Protein in water t=   0.00000 step= 0
325755
    1DC5    H5T    1   9.459   9.518   6.317
    1DC5    O5'    2   9.422   9.534   6.404
    1DC5    C5'    3   9.292   9.584   6.403
    1DC5   H5'1    4   9.295   9.692   6.418
    1DC5   H5'2    5   9.232   9.544   6.485
    1DC5    C4'    6   9.214   9.552   6.274
    1DC5    H4'    7   9.267   9.605   6.195
    1DC5    O4'    8   9.213   9.410   6.258
    1DC5    C1'    9   9.086   9.370   6.209
    1DC5    H1'   10   9.076   9.390   6.102
    1DC5     N1   11   9.055   9.226   6.234
    1DC5     C6   12   9.109   9.157   6.339
    1DC5     H6   13   9.187   9.198   6.401
    1DC5     C5   14   9.056   9.034   6.369
    1DC5     H5   15   9.090   8.978   6.455
    1DC5     C4   16   8.943   8.986   6.294
    1DC5     N4   17   8.889   8.874   6.336
    1DC5    H41   18   8.796   8.853   6.303
    1DC5    H42   19   8.922   8.847   6.428
    1DC5     N3   20   8.901   9.044   6.184
    1DC5     C2   21   8.960   9.161   6.151
    1DC5     O2   22   8.922   9.213   6.048
    1DC5    C3'   23   9.065   9.597   6.282
    1DC5    H3'   24   9.047   9.648   6.377
    1DC5    C2'   25   8.993   9.464   6.291
    1DC5   H2'1   26   8.987   9.439   6.397
    1DC5   H2'2   27   8.890   9.466   6.255
    1DC5    O3'   28   9.003   9.666   6.175
    2DG       P   29   9.069   9.796   6.103
    2DG     O1P   30   9.157   9.742   5.992
    2DG     O2P   31   9.129   9.881   6.209
    2DG     O5'   32   8.955   9.886   6.037
    2DG     C5'   33   8.859   9.833   5.951
    2DG    H5'1   34   8.871   9.726   5.934
    2DG    H5'2   35   8.894   9.873   5.856
    2DG     C4'   36   8.717   9.888   5.982
    2DG     H4'   37   8.720   9.993   5.953
    2DG     O4'   38   8.622   9.812   5.904
    2DG     C1'   39   8.567   9.709   5.986
    2DG     H1'   40   8.462   9.740   5.988
    2DG      N9   41   8.581   9.576   5.927
    2DG      C8   42   8.697   9.506   5.912
    2DG      H8   43   8.792   9.552   5.935
    2DG      N7   44   8.687   9.388   5.868
    2DG      C5   45   8.549   9.376   5.834
    2DG      C6   46   8.479   9.269   5.775
    2DG      O6   47   8.525   9.161   5.739
    2DG      N1   48   8.346   9.297   5.750
    2DG      H1   49   8.298   9.227   5.695
    2DG      C2   50   8.299   9.417   5.777
    2DG      N2   51   8.175   9.437   5.730
    2DG     H21   52   8.132   9.368   5.671
    2DG     H22   53   8.126   9.520   5.763
    2DG      N3   54   8.357   9.517   5.848
    2DG      C4   55   8.489   9.494   5.865
    2DG     C3'   56   8.678   9.869   6.131
    2DG     H3'   57   8.768   9.873   6.193
    2DG     C2'   58   8.630   9.728   6.129
    2DG    H2'1   59   8.712   9.657   6.142
    2DG    H2'2   60   8.563   9.714   6.214
    2DG     O3'   61   8.585   9.972   6.171
    3DC       P   62   8.535  10.000   6.312
    3DC     O1P   63   8.483  10.138   6.308
    3DC     O2P   64   8.641   9.962   6.409
    3DC     O5'   65   8.416   9.899   6.331
    3DC     C5'   66   8.311   9.874   6.241
    3DC    H5'1   67   8.345   9.887   6.138
    3DC    H5'2   68   8.235   9.952   6.240
    3DC     C4'   69   8.243   9.738   6.241
    3DC     H4'   70   8.147   9.744   6.190
    3DC     O4'   71   8.321   9.632   6.182
    3DC     C1'   72   8.297   9.514   6.259
    3DC     H1'   73   8.195   9.478   6.242
    3DC      N1   74   8.390   9.403   6.217
    3DC      C6   75   8.517   9.384   6.272
    3DC      H6   76   8.558   9.456   6.341
    3DC      C5   77   8.601   9.285   6.228
    3DC      H5   78   8.698   9.273   6.273
    3DC      C4   79   8.542   9.194   6.128
    3DC      N4   80   8.607   9.092   6.083
    3DC     H41   81   8.561   9.047   6.004
    3DC     H42   82   8.699   9.086   6.123
    3DC      N3   83   8.427   9.214   6.073
    3DC      C2   84   8.348   9.314   6.118
    3DC      O2   85   8.239   9.330   6.069
    3DC     C3'   86   8.206   9.688   6.377
    3DC     H3'   87   8.235   9.755   6.459
    3DC     C2'   88   8.296   9.565   6.402
    3DC    H2'1   89   8.399   9.594   6.425
    3DC    H2'2   90   8.249   9.497   6.474
    3DC     O3'   91   8.068   9.645   6.383
    4DA       P   92   7.950   9.741   6.418
    4DA     O1P   93   7.959   9.867   6.339
    4DA     O2P   94   7.952   9.747   6.563
    4DA     O5'   95   7.816   9.656   6.371
    4DA     C5'   96   7.771   9.657   6.237
    4DA    H5'1   97   7.861   9.661   6.176
    4DA    H5'2   98   7.708   9.743   6.213
    4DA     C4'   99   7.698   9.528   6.198
    4DA     H4'  100   7.630   9.547   6.116
    4DA     O4'  101   7.791   9.422   6.163
    4DA     C1'  102   7.775   9.315   6.256
    4DA     H1'  103   7.713   9.242   6.204
    4DA      N9  104   7.906   9.257   6.289
    4DA      C8  105   8.009   9.312   6.361
    4DA      H8  106   7.995   9.411   6.400
    4DA      N7  107   8.121   9.244   6.365
    4DA      C5  108   8.085   9.130   6.300
    4DA      C6  109   8.148   9.008   6.273
    4DA      N6  110   8.272   8.977   6.306
    4DA     H61  111   8.305   8.882   6.292
    4DA     H62  112   8.333   9.041   6.354
    4DA      N1  113   8.086   8.904   6.219
    4DA      C2  114   7.957   8.923   6.181
    4DA      H2  115   7.905   8.837   6.140
    4DA      N3  116   7.891   9.038   6.183
    4DA      C4  117   7.956   9.136   6.251
    4DA     C3'  118   7.602   9.472   6.308
    4DA     H3'  119   7.577   9.548   6.382
    4DA     C2'  120   7.686   9.359   6.369
    4DA    H2'1  121   7.747   9.396   6.452
    4DA    H2'2  122   7.629   9.272   6.402
    4DA     O3'  123   7.475   9.426   6.260
    5DT       P  124   7.351   9.378   6.353
    5DT     O1P  125   7.222   9.412   6.284
    5DT     O2P  126   7.373   9.435   6.490
    5DT     O5'  127   7.362   9.225   6.361
    5DT     C5'  128   7.368   9.145   6.241
    5DT    H5'1  129   7.444   9.191   6.177
    5DT    H5'2  130   7.268   9.148   6.197
    5DT     C4'  131   7.408   9.000   6.268
    5DT     H4'  132   7.396   8.944   6.175
    5DT     O4'  133   7.545   9.005   6.310
    5DT     C1'  134   7.557   8.901   6.407
    5DT     H1'  135   7.544   8.799   6.372
    5DT      N1  136   7.686   8.908   6.485
    5DT      C6  137   7.720   9.014   6.573
    5DT      H6  138   7.649   9.092   6.596
    5DT      C5  139   7.842   9.021   6.627
    5DT      C7  140   7.879   9.137   6.728
    5DT     H71  141   7.942   9.207   6.674
    5DT     H72  142   7.794   9.197   6.760
    5DT     H73  143   7.941   9.092   6.805
    5DT      C4  144   7.949   8.922   6.595
    5DT      O4  145   8.058   8.924   6.640
    5DT      N3  146   7.911   8.821   6.512
    5DT      H3  147   7.980   8.755   6.480
    5DT      C2  148   7.785   8.811   6.452
    5DT      O2  149   7.768   8.709   6.377
    5DT     C3'  150   7.317   8.931   6.380
    5DT     H3'  151   7.245   9.001   6.424
    5DT     C2'  152   7.431   8.929   6.485
    5DT    H2'1  153   7.436   9.020   6.545
    5DT    H2'2  154   7.410   8.839   6.544
    5DT     O3'  155   7.265   8.806   6.335
    6DG       P  156   7.196   8.701   6.428
    6DG     O1P  157   7.088   8.643   6.353
    6DG     O2P  158   7.169   8.774   6.556
    6DG     O5'  159   7.316   8.585   6.460
    6DG     C5'  160   7.336   8.477   6.366
    6DG    H5'1  161   7.410   8.504   6.290
    6DG    H5'2  162   7.248   8.457   6.304
    6DG     C4'  163   7.369   8.350   6.439
    6DG     H4'  164   7.371   8.268   6.368
    6DG     O4'  165   7.501   8.362   6.494
    6DG     C1'  166   7.502   8.367   6.630
    6DG     H1'  167   7.535   8.270   6.667
    6DG      N9  168   7.582   8.484   6.672
    6DG      C8  169   7.543   8.608   6.710
    6DG      H8  170   7.442   8.644   6.696
    6DG      N7  171   7.639   8.690   6.750
    6DG      C5  172   7.753   8.610   6.750
    6DG      C6  173   7.888   8.637   6.772
    6DG      O6  174   7.938   8.735   6.826
    6DG      N1  175   7.973   8.531   6.751
    6DG      H1  176   8.073   8.541   6.759
    6DG      C2  177   7.916   8.411   6.716
    6DG      N2  178   7.999   8.307   6.705
    6DG     H21  179   8.094   8.329   6.731
    6DG     H22  180   7.964   8.215   6.679
    6DG      N3  181   7.791   8.378   6.687
    6DG      C4  182   7.714   8.484   6.702
    6DG     C3'  183   7.281   8.311   6.557
    6DG     H3'  184   7.188   8.367   6.548
    6DG     C2'  185   7.353   8.369   6.677
    6DG    H2'1  186   7.319   8.468   6.708
    6DG    H2'2  187   7.350   8.299   6.760
    6DG     O3'  188   7.268   8.169   6.554
    7DT       P  189   7.205   8.085   6.676
    7DT     O1P  190   7.166   7.955   6.627
    7DT     O2P  191   7.108   8.175   6.746
    7DT     O5'  192   7.331   8.071   6.765
    7DT     C5'  193   7.443   7.995   6.711
    7DT    H5'1  194   7.472   8.039   6.615
    7DT    H5'2  195   7.406   7.897   6.680
    7DT     C4'  196   7.563   7.987   6.805
    7DT     H4'  197   7.645   7.927   6.765
    7DT     O4'  198   7.618   8.115   6.828
    7DT     C1'  199   7.665   8.117   6.964
    7DT     H1'  200   7.752   8.053   6.977
    7DT      N1  201   7.690   8.260   7.007
    7DT      C6  202   7.599   8.358   7.038
    7DT      H6  203   7.494   8.338   7.024
    7DT      C5  204   7.634   8.483   7.075
    7DT      C7  205   7.525   8.593   7.077
    7DT     H71  206   7.437   8.565   7.018
    7DT     H72  207   7.491   8.620   7.177
    7DT     H73  208   7.564   8.683   7.028
    7DT      C4  209   7.774   8.510   7.106
    7DT      O4  210   7.824   8.614   7.142
    7DT      N3  211   7.863   8.411   7.079
    7DT      H3  212   7.957   8.424   7.115
    7DT      C2  213   7.827   8.288   7.026
    7DT      O2  214   7.916   8.202   7.010
    7DT     C3'  215   7.525   7.933   6.944
    7DT     H3'  216   7.420   7.906   6.954
    7DT     C2'  217   7.539   8.059   7.029
    7DT    H2'1  218   7.456   8.127   7.013
    7DT    H2'2  219   7.552   8.030   7.133
    7DT     O3'  220   7.618   7.839   6.993
    8DG       P  221   7.595   7.676   6.988
    8DG     O1P  222   7.583   7.637   6.845
    8DG     O2P  223   7.481   7.638   7.072
    8DG     O5'  224   7.730   7.628   7.056
    8DG     C5'  225   7.845   7.580   6.988
    8DG    H5'1  226   7.849   7.648   6.904
    8DG    H5'2  227   7.825   7.477   6.958
    8DG     C4'  228   7.974   7.588   7.080
    8DG     H4'  229   8.048   7.526   7.029
    8DG     O4'  230   8.024   7.722   7.098
    8DG     C1'  231   8.019   7.752   7.240
    8DG     H1'  232   8.124   7.751   7.270
    8DG      N9  233   7.953   7.889   7.259
    8DG      C8  234   7.821   7.927   7.241
    8DG      H8  235   7.745   7.863   7.199
    8DG      N7  236   7.796   8.046   7.285
    8DG      C5  237   7.922   8.097   7.315
    8DG      C6  238   7.962   8.229   7.358
    8DG      O6  239   7.905   8.341   7.363
    8DG      N1  240   8.098   8.241   7.389
    8DG      H1  241   8.140   8.327   7.423
    8DG      C2  242   8.186   8.142   7.374
    8DG      N2  243   8.303   8.180   7.406
    8DG     H21  244   8.307   8.261   7.466
    8DG     H22  245   8.380   8.116   7.397
    8DG      N3  246   8.154   8.020   7.328
    8DG      C4  247   8.020   8.003   7.298
    8DG     C3'  248   7.951   7.524   7.221
    8DG     H3'  249   7.872   7.448   7.222
    8DG     C2'  250   7.936   7.651   7.305
    8DG    H2'1  251   7.830   7.674   7.302
    8DG    H2'2  252   7.966   7.648   7.410
    8DG     O3'  253   8.079   7.460   7.246
    9DC       P  254   8.119   7.384   7.384
    9DC     O1P  255   8.233   7.290   7.362
    9DC     O2P  256   7.992   7.329   7.439
    9DC     O5'  257   8.171   7.499   7.480
    9DC     C5'  258   8.300   7.561   7.465
    9DC    H5'1  259   8.300   7.614   7.370
    9DC    H5'2  260   8.374   7.482   7.453
    9DC     C4'  261   8.329   7.661   7.578
    9DC     H4'  262   8.433   7.689   7.566
    9DC     O4'  263   8.246   7.775   7.568
    9DC     C1'  264   8.193   7.799   7.692
    9DC     H1'  265   8.275   7.849   7.744
    9DC      N1  266   8.075   7.887   7.685
    9DC      C6  267   7.951   7.836   7.651
    9DC      H6  268   7.941   7.733   7.621
    9DC      C5  269   7.844   7.921   7.664
    9DC      H5  270   7.747   7.883   7.635
    9DC      C4  271   7.868   8.056   7.696
    9DC      N4  272   7.774   8.146   7.701
    9DC     H41  273   7.793   8.242   7.726
    9DC     H42  274   7.681   8.107   7.695
    9DC      N3  275   7.990   8.108   7.713
    9DC      C2  276   8.092   8.023   7.709
    9DC      O2  277   8.201   8.073   7.724
    9DC     C3'  278   8.305   7.603   7.714
    9DC     H3'  279   8.294   7.495   7.704
    9DC     C2'  280   8.174   7.668   7.758
    9DC    H2'1  281   8.089   7.614   7.716
    9DC    H2'2  282   8.162   7.697   7.862
    9DC     O3'  283   8.426   7.625   7.793
   10DG       P  284   8.427   7.651   7.951
   10DG     O1P  285   8.563   7.611   8.001
   10DG     O2P  286   8.316   7.590   8.019
   10DG     O5'  287   8.414   7.811   7.970
   10DG     C5'  288   8.521   7.895   7.933
   10DG    H5'1  289   8.494   7.948   7.841
   10DG    H5'2  290   8.611   7.836   7.919
   10DG     C4'  291   8.537   8.004   8.037
   10DG     H4'  292   8.634   8.048   8.011
   10DG     O4'  293   8.439   8.114   8.034
   10DG     C1'  294   8.344   8.106   8.144
   10DG     H1'  295   8.344   8.200   8.200
   10DG      N9  296   8.205   8.072   8.096
   10DG      C8  297   8.158   7.950   8.054
   10DG      H8  298   8.219   7.861   8.055
   10DG      N7  299   8.028   7.952   8.023
   10DG      C5  300   7.983   8.082   8.061
   10DG      C6  301   7.859   8.154   8.055
   10DG      O6  302   7.754   8.118   8.004
   10DG      N1  303   7.868   8.290   8.090
   10DG      H1  304   7.788   8.347   8.070
   10DG      C2  305   7.984   8.347   8.138
   10DG      N2  306   7.988   8.477   8.170
   10DG     H21  307   7.905   8.534   8.167
   10DG     H22  308   8.073   8.507   8.215
   10DG      N3  309   8.096   8.282   8.150
   10DG      C4  310   8.093   8.150   8.107
   10DG     C3'  311   8.543   7.970   8.185
   10DG     H3'  312   8.569   7.865   8.197
   10DG     C2'  313   8.397   7.998   8.240
   10DG    H2'1  314   8.350   7.901   8.227
   10DG    H2'2  315   8.382   8.027   8.344
   10DG     O3'  316   8.643   8.039   8.261
   11DT       P  317   8.641   8.044   8.426
   11DT     O1P  318   8.778   8.073   8.459
   11DT     O2P  319   8.583   7.914   8.474
   11DT     O5'  320   8.545   8.162   8.486
   11DT     C5'  321   8.568   8.297   8.455
   11DT    H5'1  322   8.575   8.315   8.347
   11DT    H5'2  323   8.662   8.325   8.502
   11DT     C4'  324   8.460   8.391   8.507
   11DT     H4'  325   8.493   8.491   8.477
   11DT     O4'  326   8.328   8.358   8.464
   11DT     C1'  327   8.243   8.370   8.572
   11DT     H1'  328   8.226   8.476   8.591
   11DT      N1  329   8.122   8.291   8.541
   11DT      C6  330   8.132   8.147   8.536
   11DT      H6  331   8.221   8.091   8.562
   11DT      C5  332   8.032   8.078   8.477
   11DT      C7  333   8.052   7.928   8.457
   11DT     H71  334   8.003   7.880   8.542
   11DT     H72  335   7.996   7.891   8.371
   11DT     H73  336   8.158   7.905   8.456
   11DT      C4  337   7.915   8.145   8.435
   11DT      O4  338   7.825   8.089   8.385
   11DT      N3  339   7.907   8.278   8.453
   11DT      H3  340   7.835   8.334   8.410
   11DT      C2  341   8.009   8.360   8.501
   11DT      O2  342   7.998   8.485   8.502
   11DT     C3'  343   8.457   8.385   8.661
   11DT     H3'  344   8.537   8.320   8.695
   11DT     C2'  345   8.323   8.322   8.692
   11DT    H2'1  346   8.342   8.215   8.691
   11DT    H2'2  347   8.289   8.366   8.786
   11DT     O3'  348   8.460   8.508   8.730
   12DA       P  349   8.579   8.547   8.823
   12DA     O1P  350   8.691   8.590   8.738
   12DA     O2P  351   8.618   8.439   8.915
   12DA     O5'  352   8.510   8.676   8.900
   12DA     C5'  353   8.422   8.655   9.010
   12DA    H5'1  354   8.479   8.670   9.101
   12DA    H5'2  355   8.392   8.551   9.025
   12DA     C4'  356   8.304   8.746   9.002
   12DA     H4'  357   8.351   8.842   8.978
   12DA     O4'  358   8.210   8.696   8.910
   12DA     C1'  359   8.086   8.674   8.981
   12DA     H1'  360   8.022   8.763   8.972
   12DA      N9  361   8.017   8.555   8.925
   12DA      C8  362   8.064   8.425   8.935
   12DA      H8  363   8.156   8.403   8.987
   12DA      N7  364   7.993   8.334   8.877
   12DA      C5  365   7.881   8.408   8.834
   12DA      C6  366   7.767   8.369   8.761
   12DA      N6  367   7.728   8.245   8.731
   12DA     H61  368   7.637   8.223   8.693
   12DA     H62  369   7.794   8.171   8.749
   12DA      N1  370   7.671   8.461   8.737
   12DA      C2  371   7.704   8.593   8.753
   12DA      H2  372   7.636   8.671   8.724
   12DA      N3  373   7.816   8.642   8.813
   12DA      C4  374   7.894   8.542   8.858
   12DA     C3'  375   8.234   8.765   9.136
   12DA     H3'  376   8.293   8.747   9.226
   12DA     C2'  377   8.119   8.666   9.132
   12DA    H2'1  378   8.160   8.570   9.165
   12DA    H2'2  379   8.040   8.698   9.200
   12DA     O3'  380   8.184   8.892   9.143
   13DT       P  381   8.128   8.961   9.261
   13DT     O1P  382   8.179   9.096   9.267
   13DT     O2P  383   8.148   8.880   9.384
   13DT     O5'  384   7.968   8.965   9.231
   13DT     C5'  385   7.922   9.026   9.113
   13DT    H5'1  386   7.975   8.981   9.029
   13DT    H5'2  387   7.959   9.128   9.110
   13DT     C4'  388   7.769   9.016   9.082
   13DT     H4'  389   7.761   9.080   8.993
   13DT     O4'  390   7.726   8.887   9.050
   13DT     C1'  391   7.620   8.857   9.135
   13DT     H1'  392   7.529   8.874   9.076
   13DT      N1  393   7.628   8.709   9.156
   13DT      C6  394   7.726   8.656   9.248
   13DT      H6  395   7.786   8.725   9.305
   13DT      C5  396   7.751   8.523   9.242
   13DT      C7  397   7.853   8.454   9.329
   13DT     H71  398   7.941   8.418   9.275
   13DT     H72  399   7.885   8.529   9.401
   13DT     H73  400   7.804   8.382   9.394
   13DT      C4  401   7.679   8.432   9.151
   13DT      O4  402   7.692   8.307   9.146
   13DT      N3  403   7.578   8.486   9.078
   13DT      H3  404   7.524   8.432   9.012
   13DT      C2  405   7.558   8.622   9.066
   13DT      O2  406   7.482   8.661   8.979
   13DT     C3'  407   7.677   9.075   9.191
   13DT     H3'  408   7.735   9.135   9.261
   13DT     C2'  409   7.623   8.948   9.262
   13DT    H2'1  410   7.689   8.911   9.340
   13DT    H2'2  411   7.524   8.962   9.308
   13DT     O3'  412   7.567   9.144   9.128
   14DT       P  413   7.470   9.247   9.211
   14DT     O1P  414   7.434   9.356   9.116
   14DT     O2P  415   7.535   9.283   9.338
   14DT     O5'  416   7.341   9.159   9.244
   14DT     C5'  417   7.254   9.130   9.138
   14DT    H5'1  418   7.312   9.118   9.047
   14DT    H5'2  419   7.192   9.219   9.136
   14DT     C4'  420   7.176   9.003   9.161
   14DT     H4'  421   7.113   8.978   9.076
   14DT     O4'  422   7.266   8.892   9.178
   14DT     C1'  423   7.207   8.805   9.272
   14DT     H1'  424   7.122   8.754   9.226
   14DT      N1  425   7.305   8.705   9.334
   14DT      C6  426   7.403   8.734   9.424
   14DT      H6  427   7.413   8.836   9.456
   14DT      C5  428   7.482   8.639   9.481
   14DT      C7  429   7.584   8.679   9.583
   14DT     H71  430   7.566   8.608   9.664
   14DT     H72  431   7.690   8.664   9.560
   14DT     H73  432   7.574   8.784   9.609
   14DT      C4  433   7.465   8.502   9.440
   14DT      O4  434   7.532   8.411   9.478
   14DT      N3  435   7.361   8.478   9.345
   14DT      H3  436   7.345   8.380   9.323
   14DT      C2  437   7.281   8.568   9.293
   14DT      O2  438   7.183   8.539   9.227
   14DT     C3'  439   7.085   9.004   9.286
   14DT     H3'  440   7.094   9.103   9.330
   14DT     C2'  441   7.146   8.892   9.376
   14DT    H2'1  442   7.223   8.928   9.444
   14DT    H2'2  443   7.067   8.835   9.425
   14DT     O3'  444   6.947   8.987   9.243
   15DA       P  445   6.828   8.981   9.347
   15DA     O1P  446   6.703   9.015   9.282
   15DA     O2P  447   6.864   9.059   9.465
   15DA     O5'  448   6.821   8.829   9.386
   15DA     C5'  449   6.782   8.732   9.287
   15DA    H5'1  450   6.853   8.736   9.204
   15DA    H5'2  451   6.681   8.757   9.254
   15DA     C4'  452   6.798   8.592   9.341
   15DA     H4'  453   6.773   8.526   9.257
   15DA     O4'  454   6.929   8.555   9.386
   15DA     C1'  455   6.914   8.489   9.507
   15DA     H1'  456   6.884   8.385   9.491
   15DA      N9  457   7.042   8.495   9.581
   15DA      C8  458   7.108   8.608   9.632
   15DA      H8  459   7.059   8.704   9.629
   15DA      N7  460   7.221   8.585   9.691
   15DA      C5  461   7.234   8.445   9.683
   15DA      C6  462   7.331   8.348   9.729
   15DA      N6  463   7.437   8.371   9.806
   15DA     H61  464   7.489   8.291   9.840
   15DA     H62  465   7.461   8.466   9.832
   15DA      N1  466   7.310   8.216   9.702
   15DA      C2  467   7.200   8.178   9.639
   15DA      H2  468   7.190   8.072   9.617
   15DA      N3  469   7.102   8.258   9.596
   15DA      C4  470   7.122   8.391   9.617
   15DA     C3'  471   6.703   8.562   9.456
   15DA     H3'  472   6.626   8.635   9.476
   15DA     C2'  473   6.797   8.569   9.572
   15DA    H2'1  474   6.806   8.675   9.599
   15DA    H2'2  475   6.748   8.517   9.654
   15DA     O3'  476   6.654   8.429   9.437
   16DT       P  477   6.506   8.390   9.458
   16DT     O1P  478   6.464   8.344   9.324
   16DT     O2P  479   6.427   8.484   9.539
   16DT     O5'  480   6.523   8.260   9.556
   16DT     C5'  481   6.545   8.130   9.501
   16DT    H5'1  482   6.625   8.127   9.428
   16DT    H5'2  483   6.453   8.091   9.457
   16DT     C4'  484   6.591   8.033   9.614
   16DT     H4'  485   6.608   7.935   9.567
   16DT     O4'  486   6.717   8.074   9.664
   16DT     C1'  487   6.721   8.040   9.794
   16DT     H1'  488   6.736   7.932   9.800
   16DT      N1  489   6.836   8.110   9.852
   16DT      C6  490   6.826   8.240   9.895
   16DT      H6  491   6.735   8.295   9.879
   16DT      C5  492   6.938   8.308   9.946
   16DT      C7  493   6.922   8.453   9.969
   16DT     H71  494   7.004   8.501   9.917
   16DT     H72  495   6.823   8.490   9.942
   16DT     H73  496   6.927   8.476  10.075
   16DT      C4  497   7.061   8.239   9.975
   16DT      O4  498   7.162   8.292  10.029
   16DT      N3  499   7.055   8.105   9.944
   16DT      H3  500   7.134   8.047   9.966
   16DT      C2  501   6.955   8.040   9.878
   16DT      O2  502   6.980   7.927   9.839
   16DT     C3'  503   6.497   8.013   9.736
   16DT     H3'  504   6.406   8.071   9.724
   16DT     C2'  505   6.575   8.069   9.851
   16DT    H2'1  506   6.570   8.178   9.851
   16DT    H2'2  507   6.566   8.015   9.945
   16DT     O3'  508   6.463   7.880   9.754
   17DA       P  509   6.309   7.833   9.758
   17DA     O1P  510   6.255   7.887   9.630
   17DA     O2P  511   6.247   7.879   9.885
   17DA     O5'  512   6.314   7.677   9.754
   17DA     C5'  513   6.398   7.610   9.663
   17DA    H5'1  514   6.465   7.682   9.615
   17DA    H5'2  515   6.340   7.562   9.583
   17DA     C4'  516   6.494   7.499   9.712
   17DA     H4'  517   6.522   7.450   9.619
   17DA     O4'  518   6.615   7.551   9.777
   17DA     C1'  519   6.610   7.500   9.914
   17DA     H1'  520   6.689   7.424   9.919
   17DA      N9  521   6.647   7.612  10.005
   17DA      C8  522   6.572   7.721  10.035
   17DA      H8  523   6.471   7.729   9.998
   17DA      N7  524   6.636   7.822  10.091
   17DA      C5  525   6.763   7.767  10.105
   17DA      C6  526   6.884   7.810  10.163
   17DA      N6  527   6.904   7.923  10.235
   17DA     H61  528   6.990   7.932  10.287
   17DA     H62  529   6.823   7.978  10.260
   17DA      N1  530   6.990   7.732  10.175
   17DA      C2  531   6.981   7.607  10.127
   17DA      H2  532   7.069   7.545  10.137
   17DA      N3  533   6.874   7.549  10.067
   17DA      C4  534   6.766   7.634  10.066
   17DA     C3'  535   6.416   7.399   9.801
   17DA     H3'  536   6.307   7.409   9.794
   17DA     C2'  537   6.466   7.448   9.933
   17DA    H2'1  538   6.396   7.522   9.970
   17DA    H2'2  539   6.460   7.367  10.005
   17DA     O3'  540   6.460   7.262   9.775
   18DC       P  541   6.393   7.132   9.836
   18DC     O1P  542   6.434   7.020   9.749
   18DC     O2P  543   6.252   7.156   9.858
   18DC     O5'  544   6.468   7.115   9.977
   18DC     C5'  545   6.605   7.083   9.994
   18DC    H5'1  546   6.671   7.125   9.917
   18DC    H5'2  547   6.612   6.974   9.990
   18DC     C4'  548   6.650   7.132  10.139
   18DC     H4'  549   6.755   7.103  10.144
   18DC     O4'  550   6.633   7.270  10.161
   18DC     C1'  551   6.653   7.282  10.296
   18DC     H1'  552   6.754   7.246  10.316
   18DC      N1  553   6.641   7.415  10.340
   18DC      C6  554   6.517   7.472  10.325
   18DC      H6  555   6.434   7.418  10.281
   18DC      C5  556   6.497   7.602  10.377
   18DC      H5  557   6.402   7.653  10.380
   18DC      C4  558   6.615   7.669  10.418
   18DC      N4  559   6.604   7.794  10.465
   18DC     H41  560   6.683   7.841  10.505
   18DC     H42  561   6.516   7.841  10.447
   18DC      N3  562   6.738   7.611  10.434
   18DC      C2  563   6.750   7.479  10.397
   18DC      O2  564   6.850   7.420  10.433
   18DC     C3'  565   6.581   7.068  10.263
   18DC     H3'  566   6.481   7.033  10.237
   18DC     C2'  567   6.555   7.182  10.354
   18DC    H2'1  568   6.453   7.219  10.343
   18DC    H2'2  569   6.577   7.157  10.458
   18DC     O3'  570   6.665   6.963  10.315
   19DA       P  571   6.644   6.887  10.446
   19DA     O1P  572   6.705   6.754  10.429
   19DA     O2P  573   6.500   6.884  10.477
   19DA     O5'  574   6.723   6.966  10.554
   19DA     C5'  575   6.866   6.963  10.561
   19DA    H5'1  576   6.900   6.862  10.544
   19DA    H5'2  577   6.903   7.024  10.479
   19DA     C4'  578   6.925   7.017  10.690
   19DA     H4'  579   7.032   7.002  10.699
   19DA     O4'  580   6.883   7.160  10.705
   19DA     C1'  581   6.855   7.196  10.838
   19DA     H1'  582   6.949   7.212  10.891
   19DA      N9  583   6.765   7.308  10.823
   19DA      C8  584   6.650   7.309  10.754
   19DA      H8  585   6.604   7.215  10.726
   19DA      N7  586   6.603   7.430  10.736
   19DA      C5  587   6.685   7.516  10.803
   19DA      C6  588   6.701   7.656  10.823
   19DA      N6  589   6.623   7.751  10.771
   19DA     H61  590   6.637   7.847  10.799
   19DA     H62  591   6.549   7.728  10.707
   19DA      N1  592   6.805   7.697  10.894
   19DA      C2  593   6.891   7.617  10.951
   19DA      H2  594   6.972   7.646  11.016
   19DA      N3  595   6.890   7.485  10.933
   19DA      C4  596   6.784   7.439  10.864
   19DA     C3'  597   6.863   6.956  10.819
   19DA     H3'  598   6.790   6.878  10.796
   19DA     C2'  599   6.788   7.064  10.891
   19DA    H2'1  600   6.681   7.064  10.870
   19DA    H2'2  601   6.804   7.060  10.999
   19DA     O3'  602   6.974   6.904  10.897
   20DT       P  603   6.952   6.830  11.042
   20DT     O1P  604   7.049   6.721  11.059
   20DT     O2P  605   6.810   6.789  11.052
   20DT     O5'  606   6.970   6.956  11.145
   20DT     C5'  607   7.080   7.048  11.130
   20DT    H5'1  608   7.064   7.100  11.035
   20DT    H5'2  609   7.180   7.005  11.137
   20DT     C4'  610   7.075   7.166  11.236
   20DT     H4'  611   7.176   7.205  11.228
   20DT     O4'  612   6.976   7.258  11.190
   20DT     C1'  613   6.903   7.291  11.303
   20DT     H1'  614   6.952   7.376  11.350
   20DT      N1  615   6.773   7.342  11.255
   20DT      C6  616   6.677   7.254  11.207
   20DT      H6  617   6.691   7.147  11.210
   20DT      C5  618   6.564   7.304  11.149
   20DT      C7  619   6.477   7.197  11.083
   20DT     H71  620   6.386   7.176  11.138
   20DT     H72  621   6.455   7.231  10.982
   20DT     H73  622   6.533   7.104  11.070
   20DT      C4  623   6.545   7.447  11.125
   20DT      O4  624   6.458   7.506  11.058
   20DT      N3  625   6.645   7.526  11.174
   20DT      H3  626   6.621   7.624  11.176
   20DT      C2  627   6.758   7.484  11.238
   20DT      O2  628   6.830   7.568  11.283
   20DT     C3'  629   7.041   7.118  11.375
   20DT     H3'  630   7.046   7.009  11.377
   20DT     C2'  631   6.898   7.168  11.392
   20DT    H2'1  632   6.829   7.095  11.350
   20DT    H2'2  633   6.865   7.189  11.494
   20DT     O3'  634   7.129   7.177  11.473
   21DG       P  635   7.101   7.170  11.632
   21DG     O1P  636   7.231   7.176  11.704
   21DG     O2P  637   7.018   7.056  11.661
   21DG     O5'  638   7.025   7.305  11.674
   21DG     C5'  639   7.095   7.430  11.676
   21DG    H5'1  640   7.153   7.456  11.587
   21DG    H5'2  641   7.167   7.428  11.757
   21DG     C4'  642   7.015   7.550  11.717
   21DG     H4'  643   7.075   7.640  11.728
   21DG     O4'  644   6.915   7.577  11.618
   21DG     C1'  645   6.799   7.635  11.678
   21DG     H1'  646   6.814   7.742  11.696
   21DG      N9  647   6.676   7.602  11.600
   21DG      C8  648   6.646   7.477  11.549
   21DG      H8  649   6.717   7.399  11.575
   21DG      N7  650   6.536   7.470  11.481
   21DG      C5  651   6.491   7.609  11.481
   21DG      C6  652   6.373   7.673  11.431
   21DG      O6  653   6.284   7.621  11.364
   21DG      N1  654   6.355   7.804  11.471
   21DG      H1  655   6.268   7.853  11.455
   21DG      C2  656   6.447   7.863  11.553
   21DG      N2  657   6.425   7.991  11.575
   21DG     H21  658   6.337   8.026  11.540
   21DG     H22  659   6.479   8.050  11.637
   21DG      N3  660   6.558   7.811  11.606
   21DG      C4  661   6.575   7.685  11.564
   21DG     C3'  662   6.944   7.538  11.853
   21DG     H3'  663   6.949   7.438  11.897
   21DG     C2'  664   6.799   7.564  11.813
   21DG    H2'1  665   6.763   7.462  11.801
   21DG    H2'2  666   6.740   7.612  11.891
   21DG     O3'  667   6.996   7.621  11.951
   22DT       P  668   6.931   7.623  12.105
   22DT     O1P  669   7.033   7.680  12.200
   22DT     O2P  670   6.870   7.492  12.127
   22DT     O5'  671   6.813   7.726  12.100
   22DT     C5'  672   6.840   7.864  12.085
   22DT    H5'1  673   6.902   7.882  11.996
   22DT    H5'2  674   6.907   7.887  12.167
   22DT     C4'  675   6.715   7.957  12.092
   22DT     H4'  676   6.747   8.060  12.079
   22DT     O4'  677   6.622   7.935  11.982
   22DT     C1'  678   6.484   7.914  12.035
   22DT     H1'  679   6.433   8.010  12.048
   22DT      N1  680   6.405   7.820  11.944
   22DT      C6  681   6.446   7.684  11.930
   22DT      H6  682   6.534   7.647  11.980
   22DT      C5  683   6.376   7.604  11.846
   22DT      C7  684   6.417   7.463  11.818
   22DT     H71  685   6.523   7.459  11.845
   22DT     H72  686   6.352   7.391  11.867
   22DT     H73  687   6.418   7.442  11.711
   22DT      C4  688   6.260   7.661  11.772
   22DT      O4  689   6.192   7.611  11.685
   22DT      N3  690   6.224   7.789  11.795
   22DT      H3  691   6.143   7.831  11.752
   22DT      C2  692   6.297   7.873  11.877
   22DT      O2  693   6.263   7.993  11.879
   22DT     C3'  694   6.636   7.947  12.220
   22DT     H3'  695   6.693   7.888  12.292
   22DT     C2'  696   6.516   7.860  12.170
   22DT    H2'1  697   6.531   7.752  12.170
   22DT    H2'2  698   6.427   7.885  12.228
   22DT     O3'  699   6.604   8.089  12.254
   23DA       P  700   6.491   8.123  12.369
   23DA     O1P  701   6.536   8.247  12.431
   23DA     O2P  702   6.474   8.005  12.456
   23DA     O5'  703   6.351   8.145  12.291
   23DA     C5'  704   6.337   8.236  12.178
   23DA    H5'1  705   6.351   8.173  12.090
   23DA    H5'2  706   6.421   8.306  12.180
   23DA     C4'  707   6.197   8.298  12.168
   23DA     H4'  708   6.199   8.400  12.131
   23DA     O4'  709   6.114   8.217  12.085
   23DA     C1'  710   6.025   8.149  12.171
   23DA     H1'  711   5.922   8.182  12.158
   23DA      N9  712   6.031   8.004  12.131
   23DA      C8  713   6.112   7.907  12.183
   23DA      H8  714   6.191   7.932  12.252
   23DA      N7  715   6.099   7.790  12.123
   23DA      C5  716   5.991   7.808  12.038
   23DA      C6  717   5.918   7.733  11.940
   23DA      N6  718   5.939   7.608  11.923
   23DA     H61  719   5.878   7.554  11.864
   23DA     H62  720   6.008   7.561  11.980
   23DA      N1  721   5.809   7.785  11.877
   23DA      C2  722   5.772   7.911  11.895
   23DA      H2  723   5.698   7.960  11.835
   23DA      N3  724   5.836   7.999  11.979
   23DA      C4  725   5.941   7.941  12.051
   23DA     C3'  726   6.135   8.309  12.310
   23DA     H3'  727   6.203   8.324  12.393
   23DA     C2'  728   6.064   8.177  12.315
   23DA    H2'1  729   6.127   8.098  12.357
   23DA    H2'2  730   5.983   8.185  12.387
   23DA     O3'  731   6.042   8.414  12.301
   24DC       P  732   5.974   8.477  12.429
   24DC     O1P  733   5.958   8.618  12.395
   24DC     O2P  734   6.051   8.442  12.545
   24DC     O5'  735   5.838   8.401  12.429
   24DC     C5'  736   5.751   8.408  12.316
   24DC    H5'1  737   5.817   8.405  12.228
   24DC    H5'2  738   5.712   8.509  12.318
   24DC     C4'  739   5.646   8.294  12.324
   24DC     H4'  740   5.564   8.318  12.257
   24DC     O4'  741   5.698   8.171  12.279
   24DC     C1'  742   5.630   8.075  12.353
   24DC     H1'  743   5.528   8.086  12.316
   24DC      N1  744   5.677   7.935  12.327
   24DC      C6  745   5.788   7.883  12.397
   24DC      H6  746   5.823   7.936  12.484
   24DC      C5  747   5.832   7.760  12.362
   24DC      H5  748   5.910   7.720  12.426
   24DC      C4  749   5.769   7.694  12.253
   24DC      N4  750   5.805   7.568  12.236
   24DC     H41  751   5.743   7.525  12.168
   24DC     H42  752   5.873   7.525  12.297
   24DC      N3  753   5.667   7.742  12.186
   24DC      C2  754   5.615   7.860  12.222
   24DC      O2  755   5.505   7.897  12.167
   24DC     C3'  756   5.588   8.272  12.465
   24DC     H3'  757   5.630   8.343  12.536
   24DC     C2'  758   5.633   8.127  12.497
   24DC    H2'1  759   5.735   8.138  12.532
   24DC    H2'2  760   5.567   8.073  12.564
   24DC     O3'  761   5.447   8.269  12.469
   25DG       P  762   5.371   8.366  12.568
   25DG     O1P  763   5.401   8.504  12.529
   25DG     O2P  764   5.394   8.327  12.705
   25DG     O5'  765   5.220   8.337  12.533
   25DG     C5'  766   5.164   8.356  12.406
   25DG    H5'1  767   5.242   8.383  12.334
   25DG    H5'2  768   5.100   8.441  12.430
   25DG     C4'  769   5.075   8.254  12.345
   25DG     H4'  770   5.019   8.305  12.266
   25DG     O4'  771   5.146   8.140  12.294
   25DG     C1'  772   5.107   8.029  12.372
   25DG     H1'  773   5.033   7.982  12.307
   25DG      N9  774   5.225   7.941  12.393
   25DG      C8  775   5.328   7.958  12.483
   25DG      H8  776   5.338   8.043  12.549
   25DG      N7  777   5.400   7.851  12.502
   25DG      C5  778   5.354   7.757  12.415
   25DG      C6  779   5.387   7.615  12.387
   25DG      O6  780   5.485   7.552  12.436
   25DG      N1  781   5.301   7.552  12.297
   25DG      H1  782   5.304   7.451  12.297
   25DG      C2  783   5.197   7.618  12.242
   25DG      N2  784   5.118   7.537  12.184
   25DG     H21  785   5.150   7.442  12.172
   25DG     H22  786   5.034   7.582  12.153
   25DG      N3  787   5.167   7.749  12.264
   25DG      C4  788   5.242   7.811  12.353
   25DG     C3'  789   4.962   8.198  12.443
   25DG     H3'  790   4.948   8.268  12.525
   25DG     C2'  791   5.035   8.075  12.496
   25DG    H2'1  792   5.098   8.101  12.581
   25DG    H2'2  793   4.962   8.002  12.533
   25DG     O3'  794   4.840   8.166  12.364
   26DC       P  795   4.709   8.103  12.417
   26DC     O1P  796   4.595   8.183  12.369
   26DC     O2P  797   4.715   8.086  12.565
   26DC     O5'  798   4.700   7.958  12.357
   26DC     C5'  799   4.727   7.932  12.221
   26DC    H5'1  800   4.824   7.971  12.190
   26DC    H5'2  801   4.651   7.988  12.167
   26DC     C4'  802   4.724   7.777  12.182
   26DC     H4'  803   4.735   7.769  12.074
   26DC     O4'  804   4.830   7.713  12.247
   26DC     C1'  805   4.781   7.610  12.333
   26DC     H1'  806   4.788   7.515  12.280
   26DC      N1  807   4.879   7.609  12.447
   26DC      C6  808   4.897   7.725  12.518
   26DC      H6  809   4.826   7.806  12.510
   26DC      C5  810   4.999   7.735  12.607
   26DC      H5  811   5.029   7.825  12.658
   26DC      C4  812   5.089   7.618  12.611
   26DC      N4  813   5.199   7.623  12.674
   26DC     H41  814   5.237   7.531  12.691
   26DC     H42  815   5.226   7.699  12.735
   26DC      N3  816   5.057   7.505  12.551
   26DC      C2  817   4.955   7.494  12.470
   26DC      O2  818   4.935   7.390  12.416
   26DC     C3'  819   4.593   7.700  12.234
   26DC     H3'  820   4.507   7.766  12.246
   26DC     C2'  821   4.636   7.636  12.364
   26DC    H2'1  822   4.622   7.701  12.450
   26DC    H2'2  823   4.581   7.546  12.388
   26DC     O3'  824   4.582   7.593  12.138
   27DA       P  825   4.449   7.506  12.131
   27DA     O1P  826   4.450   7.430  12.002
   27DA     O2P  827   4.328   7.582  12.168
   27DA     O5'  828   4.473   7.400  12.244
   27DA     C5'  829   4.533   7.275  12.218
   27DA    H5'1  830   4.623   7.287  12.158
   27DA    H5'2  831   4.463   7.213  12.162
   27DA     C4'  832   4.570   7.198  12.346
   27DA     H4'  833   4.584   7.096  12.311
   27DA     O4'  834   4.679   7.243  12.430
   27DA     C1'  835   4.625   7.252  12.566
   27DA     H1'  836   4.642   7.149  12.598
   27DA      N9  837   4.708   7.349  12.647
   27DA      C8  838   4.678   7.480  12.668
   27DA      H8  839   4.592   7.530  12.626
   27DA      N7  840   4.764   7.544  12.740
   27DA      C5  841   4.852   7.439  12.783
   27DA      C6  842   4.966   7.430  12.863
   27DA      N6  843   5.013   7.533  12.927
   27DA     H61  844   5.097   7.513  12.979
   27DA     H62  845   4.969   7.622  12.941
   27DA      N1  846   5.027   7.318  12.889
   27DA      C2  847   4.978   7.208  12.835
   27DA      H2  848   5.032   7.116  12.850
   27DA      N3  849   4.874   7.204  12.750
   27DA      C4  850   4.820   7.322  12.725
   27DA     C3'  851   4.446   7.197  12.436
   27DA     H3'  852   4.355   7.226  12.383
   27DA     C2'  853   4.475   7.285  12.557
   27DA    H2'1  854   4.456   7.391  12.536
   27DA    H2'2  855   4.418   7.255  12.645
   27DA     O3'  856   4.428   7.064  12.491
   28DT       P  857   4.311   6.974  12.436
   28DT     O1P  858   4.326   6.952  12.289
   28DT     O2P  859   4.180   7.028  12.478
   28DT     O5'  860   4.334   6.831  12.512
   28DT     C5'  861   4.449   6.740  12.475
   28DT    H5'1  862   4.522   6.796  12.416
   28DT    H5'2  863   4.411   6.663  12.407
   28DT     C4'  864   4.537   6.697  12.590
   28DT     H4'  865   4.613   6.633  12.545
   28DT     O4'  866   4.597   6.806  12.660
   28DT     C1'  867   4.577   6.794  12.800
   28DT     H1'  868   4.646   6.720  12.841
   28DT      N1  869   4.601   6.927  12.866
   28DT      C6  870   4.508   7.031  12.874
   28DT      H6  871   4.413   7.026  12.823
   28DT      C5  872   4.528   7.144  12.948
   28DT      C7  873   4.424   7.259  12.951
   28DT     H71  874   4.479   7.350  12.929
   28DT     H72  875   4.337   7.244  12.887
   28DT     H73  876   4.383   7.269  13.051
   28DT      C4  877   4.652   7.153  13.024
   28DT      O4  878   4.681   7.247  13.098
   28DT      N3  879   4.742   7.055  12.996
   28DT      H3  880   4.835   7.056  13.035
   28DT      C2  881   4.720   6.937  12.930
   28DT      O2  882   4.819   6.862  12.912
   28DT     C3'  883   4.456   6.630  12.701
   28DT     H3'  884   4.356   6.618  12.658
   28DT     C2'  885   4.434   6.743  12.805
   28DT    H2'1  886   4.351   6.807  12.774
   28DT    H2'2  887   4.408   6.702  12.903
   28DT     O3'  888   4.517   6.524  12.769
   29DA       P  889   4.504   6.375  12.707
   29DA     O1P  890   4.560   6.370  12.574
   29DA     O2P  891   4.370   6.323  12.732
   29DA     O5'  892   4.594   6.288  12.810
   29DA     C5'  893   4.731   6.276  12.787
   29DA    H5'1  894   4.777   6.365  12.744
   29DA    H5'2  895   4.748   6.209  12.703
   29DA     C4'  896   4.811   6.226  12.906
   29DA     H4'  897   4.904   6.175  12.882
   29DA     O4'  898   4.847   6.344  12.968
   29DA     C1'  899   4.782   6.345  13.098
   29DA     H1'  900   4.851   6.323  13.179
   29DA      N9  901   4.728   6.488  13.125
   29DA      C8  902   4.609   6.539  13.079
   29DA      H8  903   4.544   6.485  13.012
   29DA      N7  904   4.587   6.658  13.123
   29DA      C5  905   4.695   6.687  13.201
   29DA      C6  906   4.731   6.791  13.283
   29DA      N6  907   4.669   6.907  13.281
   29DA     H61  908   4.709   6.977  13.342
   29DA     H62  909   4.576   6.918  13.242
   29DA      N1  910   4.844   6.789  13.360
   29DA      C2  911   4.917   6.685  13.347
   29DA      H2  912   5.003   6.673  13.411
   29DA      N3  913   4.898   6.573  13.277
   29DA      C4  914   4.780   6.581  13.206
   29DA     C3'  915   4.734   6.138  13.007
   29DA     H3'  916   4.655   6.078  12.962
   29DA     C2'  917   4.676   6.239  13.097
   29DA    H2'1  918   4.590   6.276  13.041
   29DA    H2'2  919   4.659   6.200  13.198
   29DA     O3'  920   4.824   6.060  13.082
   30DT       P  921   4.775   5.938  13.167
   30DT     O1P  922   4.861   5.822  13.134
   30DT     O2P  923   4.630   5.917  13.156
   30DT     O5'  924   4.801   5.971  13.322
   30DT     C5'  925   4.922   6.038  13.369
   30DT    H5'1  926   4.955   6.095  13.282
   30DT    H5'2  927   4.987   5.965  13.416
   30DT     C4'  928   4.893   6.140  13.484
   30DT     H4'  929   4.985   6.181  13.525
   30DT     O4'  930   4.808   6.251  13.439
   30DT     C1'  931   4.743   6.310  13.544
   30DT     H1'  932   4.812   6.353  13.617
   30DT      N1  933   4.645   6.419  13.513
   30DT      C6  934   4.547   6.392  13.425
   30DT      H6  935   4.537   6.291  13.389
   30DT      C5  936   4.464   6.490  13.382
   30DT      C7  937   4.368   6.457  13.270
   30DT     H71  938   4.397   6.358  13.236
   30DT     H72  939   4.265   6.453  13.304
   30DT     H73  940   4.360   6.528  13.187
   30DT      C4  941   4.478   6.625  13.425
   30DT      O4  942   4.419   6.727  13.389
   30DT      N3  943   4.589   6.647  13.505
   30DT      H3  944   4.611   6.743  13.529
   30DT      C2  945   4.671   6.549  13.546
   30DT      O2  946   4.771   6.582  13.609
   30DT     C3'  947   4.813   6.077  13.608
   30DT     H3'  948   4.781   5.979  13.573
   30DT     C2'  949   4.686   6.178  13.601
   30DT    H2'1  950   4.608   6.134  13.539
   30DT    H2'2  951   4.645   6.186  13.702
   30DT     O3'  952   4.890   6.080  13.730
   31DG       P  953   4.825   6.041  13.873
   31DG     O1P  954   4.931   5.968  13.941
   31DG     O2P  955   4.694   5.977  13.850
   31DG     O5'  956   4.806   6.179  13.945
   31DG     C5'  957   4.909   6.277  13.941
   31DG    H5'1  958   4.914   6.312  13.838
   31DG    H5'2  959   5.004   6.230  13.966
   31DG     C4'  960   4.899   6.392  14.044
   31DG     H4'  961   5.004   6.419  14.060
   31DG     O4'  962   4.818   6.493  13.983
   31DG     C1'  963   4.706   6.501  14.063
   31DG     H1'  964   4.714   6.588  14.128
   31DG      N9  965   4.577   6.515  13.980
   31DG      C8  966   4.531   6.433  13.883
   31DG      H8  967   4.564   6.334  13.856
   31DG      N7  968   4.432   6.483  13.810
   31DG      C5  969   4.414   6.608  13.869
   31DG      C6  970   4.323   6.716  13.838
   31DG      O6  971   4.245   6.725  13.748
   31DG      N1  972   4.339   6.825  13.916
   31DG      H1  973   4.289   6.908  13.890
   31DG      C2  974   4.437   6.841  14.006
   31DG      N2  975   4.435   6.958  14.065
   31DG     H21  976   4.383   7.041  14.039
   31DG     H22  977   4.496   6.974  14.144
   31DG      N3  978   4.508   6.741  14.056
   31DG      C4  979   4.494   6.623  13.982
   31DG     C3'  980   4.834   6.345  14.180
   31DG     H3'  981   4.848   6.239  14.200
   31DG     C2'  982   4.688   6.379  14.153
   31DG    H2'1  983   4.641   6.290  14.112
   31DG    H2'2  984   4.627   6.404  14.240
   31DG     O3'  985   4.880   6.418  14.290
   32DC3      P  986   4.857   6.370  14.440
   32DC3    O1P  987   4.988   6.384  14.507
   32DC3    O2P  988   4.792   6.235  14.444
   32DC3    O5'  989   4.754   6.471  14.496
   32DC3    C5'  990   4.769   6.609  14.487
   32DC3   H5'1  991   4.800   6.639  14.387
   32DC3   H5'2  992   4.840   6.653  14.556
   32DC3    C4'  993   4.636   6.674  14.521
   32DC3    H4'  994   4.653   6.782  14.527
   32DC3    O4'  995   4.558   6.651  14.401
   32DC3    C1'  996   4.426   6.640  14.440
   32DC3    H1'  997   4.390   6.740  14.466
   32DC3     N1  998   4.353   6.579  14.326
   32DC3     C6  999   4.367   6.440  14.298
   32DC3     H6 1000   4.435   6.376  14.353
   32DC3     C5 1001   4.293   6.389  14.195
   32DC3     H5 1002   4.299   6.284  14.170
   32DC3     C4 1003   4.207   6.477  14.125
   32DC3     N4 1004   4.137   6.437  14.026
   32DC3    H41 1005   4.066   6.492  13.979
   32DC3    H42 1006   4.147   6.337  14.012
   32DC3     N3 1007   4.198   6.608  14.154
   32DC3     C2 1008   4.272   6.662  14.256
   32DC3     O2 1009   4.255   6.782  14.273
   32DC3    C3' 1010   4.546   6.633  14.642
   32DC3    H3' 1011   4.608   6.572  14.708
   32DC3    C2' 1012   4.438   6.556  14.574
   32DC3   H2'1 1013   4.482   6.460  14.549
   32DC3   H2'2 1014   4.344   6.546  14.629
   32DC3    O3' 1015   4.474   6.736  14.707
   32DC3    H3T 1016   4.433   6.698  14.785
   33DG5    H5T 1017   3.347   7.394  13.973
   33DG5    O5' 1018   3.443   7.397  13.972
   33DG5    C5' 1019   3.484   7.383  13.839
   33DG5   H5'1 1020   3.472   7.478  13.788
   33DG5   H5'2 1021   3.436   7.296  13.794
   33DG5    C4' 1022   3.633   7.349  13.849
   33DG5    H4' 1023   3.668   7.418  13.926
   33DG5    O4' 1024   3.670   7.218  13.885
   33DG5    C1' 1025   3.765   7.170  13.796
   33DG5    H1' 1026   3.867   7.205  13.812
   33DG5     N9 1027   3.776   7.019  13.788
   33DG5     C8 1028   3.722   6.926  13.696
   33DG5     H8 1029   3.645   6.954  13.626
   33DG5     N7 1030   3.759   6.802  13.709
   33DG5     C5 1031   3.846   6.814  13.816
   33DG5     C6 1032   3.929   6.716  13.878
   33DG5     O6 1033   3.945   6.601  13.845
   33DG5     N1 1034   4.005   6.758  13.986
   33DG5     H1 1035   4.059   6.692  14.039
   33DG5     C2 1036   4.000   6.889  14.031
   33DG5     N2 1037   4.075   6.926  14.131
   33DG5    H21 1038   4.139   6.860  14.174
   33DG5    H22 1039   4.079   7.023  14.160
   33DG5     N3 1040   3.924   6.981  13.981
   33DG5     C4 1041   3.848   6.940  13.868
   33DG5    C3' 1042   3.692   7.372  13.715
   33DG5    H3' 1043   3.620   7.416  13.646
   33DG5    C2' 1044   3.717   7.227  13.665
   33DG5   H2'1 1045   3.629   7.171  13.634
   33DG5   H2'2 1046   3.795   7.224  13.588
   33DG5    O3' 1047   3.809   7.450  13.720
   34DC       P 1048   3.801   7.608  13.713
   34DC     O1P 1049   3.687   7.657  13.787
   34DC     O2P 1050   3.820   7.652  13.574
   34DC     O5' 1051   3.937   7.629  13.800
   34DC     C5' 1052   3.931   7.618  13.939
   34DC    H5'1 1053   3.847   7.555  13.966
   34DC    H5'2 1054   3.912   7.720  13.973
   34DC     C4' 1055   4.058   7.564  14.013
   34DC     H4' 1056   4.047   7.570  14.121
   34DC     O4' 1057   4.065   7.430  13.962
   34DC     C1' 1058   4.192   7.400  13.899
   34DC     H1' 1059   4.265   7.382  13.978
   34DC      N1 1060   4.169   7.281  13.806
   34DC      C6 1061   4.102   7.296  13.686
   34DC      H6 1062   4.067   7.392  13.650
   34DC      C5 1063   4.076   7.182  13.619
   34DC      H5 1064   4.029   7.193  13.522
   34DC      C4 1065   4.119   7.053  13.670
   34DC      N4 1066   4.099   6.940  13.611
   34DC     H41 1067   4.132   6.856  13.656
   34DC     H42 1068   4.097   6.936  13.510
   34DC      N3 1069   4.178   7.043  13.790
   34DC      C2 1070   4.197   7.159  13.858
   34DC      O2 1071   4.235   7.138  13.975
   34DC     C3' 1072   4.192   7.622  13.969
   34DC     H3' 1073   4.188   7.729  13.947
   34DC     C2' 1074   4.222   7.536  13.839
   34DC    H2'1 1075   4.166   7.554  13.747
   34DC    H2'2 1076   4.329   7.532  13.817
   34DC     O3' 1077   4.280   7.600  14.071
   35DA       P 1078   4.407   7.699  14.093
   35DA     O1P 1079   4.378   7.787  14.211
   35DA     O2P 1080   4.447   7.755  13.964
   35DA     O5' 1081   4.531   7.610  14.143
   35DA     C5' 1082   4.505   7.503  14.235
   35DA    H5'1 1083   4.401   7.471  14.242
   35DA    H5'2 1084   4.531   7.536  14.336
   35DA     C4' 1085   4.597   7.383  14.205
   35DA     H4' 1086   4.602   7.320  14.294
   35DA     O4' 1087   4.556   7.310  14.093
   35DA     C1' 1088   4.670   7.271  14.020
   35DA     H1' 1089   4.724   7.181  14.048
   35DA      N9 1090   4.614   7.237  13.887
   35DA      C8 1091   4.528   7.317  13.814
   35DA      H8 1092   4.505   7.415  13.852
   35DA      N7 1093   4.481   7.267  13.707
   35DA      C5 1094   4.528   7.136  13.712
   35DA      C6 1095   4.508   7.019  13.635
   35DA      N6 1096   4.455   7.006  13.515
   35DA     H61 1097   4.461   6.913  13.477
   35DA     H62 1098   4.414   7.078  13.457
   35DA      N1 1099   4.574   6.909  13.659
   35DA      C2 1100   4.655   6.907  13.764
   35DA      H2 1101   4.705   6.813  13.779
   35DA      N3 1102   4.685   7.002  13.848
   35DA      C4 1103   4.612   7.117  13.821
   35DA     C3' 1104   4.736   7.435  14.172
   35DA     H3' 1105   4.735   7.543  14.182
   35DA     C2' 1106   4.756   7.392  14.024
   35DA    H2'1 1107   4.724   7.473  13.958
   35DA    H2'2 1108   4.857   7.361  13.995
   35DA     O3' 1109   4.848   7.394  14.249
   36DT       P 1110   4.996   7.442  14.244
   36DT     O1P 1111   5.057   7.433  14.376
   36DT     O2P 1112   5.008   7.574  14.178
   36DT     O5' 1113   5.062   7.328  14.156
   36DT     C5' 1114   5.047   7.188  14.190
   36DT    H5'1 1115   4.942   7.165  14.206
   36DT    H5'2 1116   5.108   7.180  14.280
   36DT     C4' 1117   5.107   7.092  14.084
   36DT     H4' 1118   5.120   6.999  14.139
   36DT     O4' 1119   5.020   7.075  13.967
   36DT     C1' 1120   5.110   7.077  13.858
   36DT     H1' 1121   5.163   6.983  13.846
   36DT      N1 1122   5.027   7.102  13.735
   36DT      C6 1123   4.965   7.227  13.725
   36DT      H6 1124   4.988   7.305  13.796
   36DT      C5 1125   4.880   7.247  13.621
   36DT      C7 1126   4.803   7.375  13.615
   36DT     H71 1127   4.857   7.440  13.546
   36DT     H72 1128   4.704   7.356  13.574
   36DT     H73 1129   4.802   7.420  13.714
   36DT      C4 1130   4.831   7.132  13.536
   36DT      O4 1131   4.743   7.130  13.451
   36DT      N3 1132   4.894   7.011  13.566
   36DT      H3 1133   4.880   6.929  13.509
   36DT      C2 1134   4.988   6.991  13.660
   36DT      O2 1135   5.028   6.875  13.670
   36DT     C3' 1136   5.243   7.138  14.040
   36DT     H3' 1137   5.277   7.227  14.093
   36DT     C2' 1138   5.215   7.185  13.897
   36DT    H2'1 1139   5.167   7.283  13.897
   36DT    H2'2 1140   5.302   7.184  13.832
   36DT     O3' 1141   5.328   7.028  14.055
   37DA       P 1142   5.480   7.029  14.015
   37DA     O1P 1143   5.547   6.927  14.104
   37DA     O2P 1144   5.525   7.173  14.017
   37DA     O5' 1145   5.464   6.980  13.862
   37DA     C5' 1146   5.424   6.853  13.821
   37DA    H5'1 1147   5.331   6.817  13.864
   37DA    H5'2 1148   5.491   6.776  13.860
   37DA     C4' 1149   5.406   6.836  13.672
   37DA     H4' 1150   5.391   6.731  13.648
   37DA     O4' 1151   5.298   6.912  13.616
   37DA     C1' 1152   5.336   6.938  13.482
   37DA     H1' 1153   5.318   6.852  13.418
   37DA      N9 1154   5.262   7.054  13.431
   37DA      C8 1155   5.264   7.182  13.485
   37DA      H8 1156   5.330   7.216  13.563
   37DA      N7 1157   5.166   7.254  13.440
   37DA      C5 1158   5.106   7.173  13.341
   37DA      C6 1159   5.002   7.187  13.251
   37DA      N6 1160   4.928   7.295  13.231
   37DA     H61 1161   4.848   7.276  13.173
   37DA     H62 1162   4.939   7.380  13.284
   37DA      N1 1163   4.963   7.089  13.168
   37DA      C2 1164   5.038   6.978  13.168
   37DA      H2 1165   5.013   6.914  13.084
   37DA      N3 1166   5.139   6.952  13.246
   37DA      C4 1167   5.165   7.052  13.335
   37DA     C3' 1168   5.538   6.880  13.605
   37DA     H3' 1169   5.610   6.937  13.663
   37DA     C2' 1170   5.484   6.972  13.497
   37DA    H2'1 1171   5.511   7.072  13.528
   37DA    H2'2 1172   5.538   6.957  13.403
   37DA     O3' 1173   5.602   6.768  13.550
   38DT       P 1174   5.750   6.761  13.484
   38DT     O1P 1175   5.806   6.626  13.510
   38DT     O2P 1176   5.820   6.882  13.538
   38DT     O5' 1177   5.740   6.787  13.325
   38DT     C5' 1178   5.652   6.708  13.246
   38DT    H5'1 1179   5.565   6.679  13.305
   38DT    H5'2 1180   5.710   6.618  13.223
   38DT     C4' 1181   5.603   6.761  13.109
   38DT     H4' 1182   5.555   6.682  13.051
   38DT     O4' 1183   5.503   6.858  13.122
   38DT     C1' 1184   5.525   6.974  13.048
   38DT     H1' 1185   5.495   6.949  12.946
   38DT      N1 1186   5.449   7.099  13.083
   38DT      C6 1187   5.491   7.189  13.182
   38DT      H6 1188   5.569   7.154  13.248
   38DT      C5 1189   5.432   7.308  13.200
   38DT      C7 1190   5.495   7.406  13.300
   38DT     H71 1191   5.593   7.369  13.330
   38DT     H72 1192   5.494   7.502  13.247
   38DT     H73 1193   5.435   7.433  13.388
   38DT      C4 1194   5.320   7.349  13.114
   38DT      O4 1195   5.265   7.459  13.111
   38DT      N3 1196   5.276   7.253  13.025
   38DT      H3 1197   5.197   7.273  12.966
   38DT      C2 1198   5.336   7.136  13.007
   38DT      O2 1199   5.284   7.066  12.918
   38DT     C3' 1200   5.716   6.835  13.028
   38DT     H3' 1201   5.818   6.823  13.064
   38DT     C2' 1202   5.674   6.984  13.029
   38DT    H2'1 1203   5.726   7.028  13.114
   38DT    H2'2 1204   5.696   7.034  12.935
   38DT     O3' 1205   5.698   6.797  12.892
   39DG       P 1206   5.780   6.675  12.841
   39DG     O1P 1207   5.781   6.562  12.938
   39DG     O2P 1208   5.911   6.738  12.805
   39DG     O5' 1209   5.713   6.626  12.707
   39DG     C5' 1210   5.606   6.539  12.704
   39DG    H5'1 1211   5.563   6.532  12.804
   39DG    H5'2 1212   5.647   6.449  12.660
   39DG     C4' 1213   5.496   6.580  12.616
   39DG     H4' 1214   5.426   6.497  12.608
   39DG     O4' 1215   5.426   6.705  12.655
   39DG     C1' 1216   5.445   6.805  12.558
   39DG     H1' 1217   5.357   6.807  12.493
   39DG      N9 1218   5.458   6.940  12.613
   39DG      C8 1219   5.574   7.002  12.671
   39DG      H8 1220   5.667   6.952  12.694
   39DG      N7 1221   5.550   7.118  12.713
   39DG      C5 1222   5.421   7.143  12.658
   39DG      C6 1223   5.339   7.261  12.669
   39DG      O6 1224   5.360   7.365  12.733
   39DG      N1 1225   5.226   7.251  12.587
   39DG      H1 1226   5.167   7.333  12.590
   39DG      C2 1227   5.186   7.145  12.515
   39DG      N2 1228   5.071   7.155  12.455
   39DG     H21 1229   5.023   7.243  12.467
   39DG     H22 1230   5.041   7.080  12.395
   39DG      N3 1231   5.252   7.029  12.511
   39DG      C4 1232   5.371   7.040  12.581
   39DG     C3' 1233   5.553   6.612  12.477
   39DG     H3' 1234   5.652   6.567  12.478
   39DG     C2' 1235   5.563   6.765  12.470
   39DG    H2'1 1236   5.653   6.802  12.519
   39DG    H2'2 1237   5.554   6.797  12.367
   39DG     O3' 1238   5.471   6.550  12.369
   40DC       P 1239   5.488   6.586  12.214
   40DC     O1P 1240   5.450   6.469  12.132
   40DC     O2P 1241   5.619   6.654  12.187
   40DC     O5' 1242   5.372   6.698  12.194
   40DC     C5' 1243   5.235   6.672  12.214
   40DC    H5'1 1244   5.218   6.676  12.322
   40DC    H5'2 1245   5.188   6.579  12.180
   40DC     C4' 1246   5.142   6.778  12.152
   40DC     H4' 1247   5.045   6.746  12.189
   40DC     O4' 1248   5.165   6.904  12.212
   40DC     C1' 1249   5.209   7.000  12.109
   40DC     H1' 1250   5.128   7.069  12.087
   40DC      N1 1251   5.324   7.088  12.152
   40DC      C6 1252   5.440   7.029  12.196
   40DC      H6 1253   5.464   6.926  12.172
   40DC      C5 1254   5.528   7.097  12.266
   40DC      H5 1255   5.619   7.045  12.291
   40DC      C4 1256   5.497   7.224  12.302
   40DC      N4 1257   5.578   7.294  12.374
   40DC     H41 1258   5.543   7.388  12.371
   40DC     H42 1259   5.672   7.274  12.404
   40DC      N3 1260   5.387   7.286  12.275
   40DC      C2 1261   5.294   7.216  12.199
   40DC      O2 1262   5.184   7.266  12.167
   40DC     C3' 1263   5.150   6.785  12.002
   40DC     H3' 1264   5.191   6.700  11.947
   40DC     C2' 1265   5.243   6.905  11.981
   40DC    H2'1 1266   5.350   6.887  11.981
   40DC    H2'2 1267   5.224   6.963  11.890
   40DC     O3' 1268   5.017   6.805  11.949
   41DG       P 1269   4.986   6.810  11.797
   41DG     O1P 1270   4.840   6.777  11.792
   41DG     O2P 1271   5.081   6.724  11.717
   41DG     O5' 1272   5.010   6.956  11.731
   41DG     C5' 1273   4.921   7.056  11.767
   41DG    H5'1 1274   4.900   7.047  11.873
   41DG    H5'2 1275   4.825   7.043  11.717
   41DG     C4' 1276   4.962   7.204  11.738
   41DG     H4' 1277   4.882   7.276  11.749
   41DG     O4' 1278   5.071   7.244  11.822
   41DG     C1' 1279   5.167   7.315  11.737
   41DG     H1' 1280   5.129   7.417  11.724
   41DG      N9 1281   5.304   7.302  11.794
   41DG      C8 1282   5.378   7.188  11.791
   41DG      H8 1283   5.343   7.092  11.754
   41DG      N7 1284   5.480   7.200  11.873
   41DG      C5 1285   5.480   7.336  11.924
   41DG      C6 1286   5.565   7.415  12.009
   41DG      O6 1287   5.671   7.381  12.060
   41DG      N1 1288   5.526   7.547  12.025
   41DG      H1 1289   5.578   7.609  12.085
   41DG      C2 1290   5.411   7.593  11.971
   41DG      N2 1291   5.382   7.715  12.002
   41DG     H21 1292   5.434   7.765  12.072
   41DG     H22 1293   5.308   7.764  11.953
   41DG      N3 1294   5.328   7.526  11.894
   41DG      C4 1295   5.367   7.398  11.871
   41DG     C3' 1296   5.002   7.208  11.594
   41DG     H3' 1297   4.990   7.121  11.529
   41DG     C2' 1298   5.152   7.249  11.601
   41DG    H2'1 1299   5.205   7.154  11.595
   41DG    H2'2 1300   5.196   7.314  11.525
   41DG     O3' 1301   4.924   7.306  11.530
   42DT       P 1302   4.943   7.370  11.387
   42DT     O1P 1303   4.811   7.426  11.361
   42DT     O2P 1304   5.009   7.282  11.294
   42DT     O5' 1305   5.043   7.490  11.416
   42DT     C5' 1306   5.009   7.611  11.489
   42DT    H5'1 1307   4.969   7.583  11.586
   42DT    H5'2 1308   4.936   7.658  11.424
   42DT     C4' 1309   5.123   7.706  11.505
   42DT     H4' 1310   5.086   7.795  11.555
   42DT     O4' 1311   5.234   7.646  11.573
   42DT     C1' 1312   5.351   7.686  11.516
   42DT     H1' 1313   5.369   7.792  11.532
   42DT      N1 1314   5.463   7.605  11.571
   42DT      C6 1315   5.484   7.471  11.537
   42DT      H6 1316   5.413   7.420  11.474
   42DT      C5 1317   5.602   7.402  11.574
   42DT      C7 1318   5.631   7.266  11.526
   42DT     H71 1319   5.546   7.210  11.488
   42DT     H72 1320   5.711   7.281  11.453
   42DT     H73 1321   5.677   7.211  11.608
   42DT      C4 1322   5.702   7.475  11.657
   42DT      O4 1323   5.815   7.437  11.692
   42DT      N3 1324   5.660   7.595  11.696
   42DT      H3 1325   5.732   7.650  11.740
   42DT      C2 1326   5.552   7.672  11.650
   42DT      O2 1327   5.541   7.789  11.686
   42DT     C3' 1328   5.181   7.747  11.366
   42DT     H3' 1329   5.124   7.719  11.278
   42DT     C2' 1330   5.316   7.666  11.365
   42DT    H2'1 1331   5.296   7.561  11.341
   42DT    H2'2 1332   5.394   7.713  11.305
   42DT     O3' 1333   5.218   7.883  11.355
   43DA       P 1334   5.115   7.991  11.298
   43DA     O1P 1335   5.023   8.027  11.410
   43DA     O2P 1336   5.066   7.946  11.167
   43DA     O5' 1337   5.214   8.114  11.267
   43DA     C5' 1338   5.245   8.208  11.369
   43DA    H5'1 1339   5.221   8.178  11.470
   43DA    H5'2 1340   5.184   8.298  11.359
   43DA     C4' 1341   5.389   8.252  11.371
   43DA     H4' 1342   5.391   8.340  11.434
   43DA     O4' 1343   5.468   8.159  11.450
   43DA     C1' 1344   5.604   8.148  11.402
   43DA     H1' 1345   5.670   8.223  11.445
   43DA      N9 1346   5.665   8.018  11.424
   43DA      C8 1347   5.633   7.906  11.355
   43DA      H8 1348   5.548   7.898  11.288
   43DA      N7 1349   5.712   7.806  11.390
   43DA      C5 1350   5.804   7.860  11.484
   43DA      C6 1351   5.920   7.814  11.556
   43DA      N6 1352   5.972   7.691  11.542
   43DA     H61 1353   6.051   7.657  11.594
   43DA     H62 1354   5.922   7.632  11.477
   43DA      N1 1355   5.978   7.890  11.646
   43DA      C2 1356   5.935   8.013  11.664
   43DA      H2 1357   5.985   8.069  11.741
   43DA      N3 1358   5.831   8.075  11.600
   43DA      C4 1359   5.767   7.989  11.511
   43DA     C3' 1360   5.465   8.282  11.244
   43DA     H3' 1361   5.396   8.269  11.160
   43DA     C2' 1362   5.579   8.178  11.251
   43DA    H2'1 1363   5.541   8.084  11.211
   43DA    H2'2 1364   5.664   8.215  11.194
   43DA     O3' 1365   5.498   8.421  11.252
   44DC       P 1366   5.584   8.498  11.147
   44DC     O1P 1367   5.556   8.641  11.158
   44DC     O2P 1368   5.593   8.431  11.016
   44DC     O5' 1369   5.724   8.480  11.217
   44DC     C5' 1370   5.745   8.525  11.355
   44DC    H5'1 1371   5.669   8.487  11.423
   44DC    H5'2 1372   5.734   8.634  11.348
   44DC     C4' 1373   5.877   8.490  11.407
   44DC     H4' 1374   5.879   8.525  11.510
   44DC     O4' 1375   5.881   8.348  11.413
   44DC     C1' 1376   6.012   8.318  11.374
   44DC     H1' 1377   6.083   8.335  11.455
   44DC      N1 1378   6.029   8.180  11.335
   44DC      C6 1379   5.966   8.128  11.227
   44DC      H6 1380   5.901   8.192  11.169
   44DC      C5 1381   5.982   8.000  11.183
   44DC      H5 1382   5.927   7.963  11.099
   44DC      C4 1383   6.075   7.921  11.253
   44DC      N4 1384   6.102   7.797  11.213
   44DC     H41 1385   6.171   7.741  11.261
   44DC     H42 1386   6.056   7.750  11.135
   44DC      N3 1387   6.145   7.969  11.352
   44DC      C2 1388   6.124   8.097  11.397
   44DC      O2 1389   6.186   8.131  11.496
   44DC     C3' 1390   5.991   8.545  11.326
   44DC     H3' 1391   5.951   8.619  11.256
   44DC     C2' 1392   6.049   8.419  11.266
   44DC    H2'1 1393   6.000   8.397  11.171
   44DC    H2'2 1394   6.158   8.419  11.260
   44DC     O3' 1395   6.087   8.605  11.413
   45DA       P 1396   6.227   8.668  11.353
   45DA     O1P 1397   6.266   8.786  11.434
   45DA     O2P 1398   6.228   8.687  11.204
   45DA     O5' 1399   6.331   8.552  11.382
   45DA     C5' 1400   6.369   8.509  11.512
   45DA    H5'1 1401   6.292   8.441  11.549
   45DA    H5'2 1402   6.369   8.597  11.576
   45DA     C4' 1403   6.508   8.447  11.520
   45DA     H4' 1404   6.532   8.454  11.626
   45DA     O4' 1405   6.497   8.312  11.489
   45DA     C1' 1406   6.575   8.276  11.378
   45DA     H1' 1407   6.662   8.228  11.423
   45DA      N9 1408   6.493   8.180  11.296
   45DA      C8 1409   6.386   8.206  11.218
   45DA      H8 1410   6.347   8.304  11.200
   45DA      N7 1411   6.343   8.098  11.150
   45DA      C5 1412   6.442   8.004  11.176
   45DA      C6 1413   6.482   7.873  11.130
   45DA      N6 1414   6.427   7.823  11.023
   45DA     H61 1415   6.456   7.730  10.999
   45DA     H62 1416   6.345   7.851  10.972
   45DA      N1 1417   6.591   7.814  11.172
   45DA      C2 1418   6.665   7.874  11.268
   45DA      H2 1419   6.753   7.826  11.307
   45DA      N3 1420   6.647   7.996  11.315
   45DA      C4 1421   6.533   8.056  11.263
   45DA     C3' 1422   6.615   8.511  11.434
   45DA     H3' 1423   6.594   8.613  11.402
   45DA     C2' 1424   6.623   8.409  11.315
   45DA    H2'1 1425   6.557   8.451  11.239
   45DA    H2'2 1426   6.722   8.399  11.271
   45DA     O3' 1427   6.732   8.525  11.512
   46DT       P 1428   6.873   8.560  11.453
   46DT     O1P 1429   6.947   8.622  11.565
   46DT     O2P 1430   6.872   8.636  11.327
   46DT     O5' 1431   6.940   8.417  11.425
   46DT     C5' 1432   6.968   8.319  11.532
   46DT    H5'1 1433   6.878   8.268  11.565
   46DT    H5'2 1434   7.023   8.360  11.617
   46DT     C4' 1435   7.048   8.205  11.471
   46DT     H4' 1436   7.070   8.134  11.550
   46DT     O4' 1437   6.963   8.140  11.375
   46DT     C1' 1438   7.042   8.132  11.253
   46DT     H1' 1439   7.105   8.044  11.262
   46DT      N1 1440   6.934   8.113  11.146
   46DT      C6 1441   6.860   8.222  11.107
   46DT      H6 1442   6.874   8.315  11.159
   46DT      C5 1443   6.759   8.197  11.013
   46DT      C7 1444   6.660   8.302  10.970
   46DT     H71 1445   6.682   8.327  10.866
   46DT     H72 1446   6.561   8.261  10.988
   46DT     H73 1447   6.665   8.395  11.027
   46DT      C4 1448   6.737   8.071  10.955
   46DT      O4 1449   6.648   8.040  10.876
   46DT      N3 1450   6.828   7.976  10.990
   46DT      H3 1451   6.812   7.883  10.955
   46DT      C2 1452   6.915   7.988  11.092
   46DT      O2 1453   6.973   7.887  11.133
   46DT     C3' 1454   7.172   8.248  11.401
   46DT     H3' 1455   7.198   8.349  11.435
   46DT     C2' 1456   7.140   8.246  11.255
   46DT    H2'1 1457   7.098   8.346  11.239
   46DT    H2'2 1458   7.225   8.233  11.189
   46DT     O3' 1459   7.286   8.172  11.442
   47DG       P 1460   7.437   8.189  11.382
   47DG     O1P 1461   7.538   8.130  11.470
   47DG     O2P 1462   7.452   8.332  11.349
   47DG     O5' 1463   7.427   8.094  11.251
   47DG     C5' 1464   7.389   7.951  11.271
   47DG    H5'1 1465   7.296   7.937  11.325
   47DG    H5'2 1466   7.472   7.900  11.320
   47DG     C4' 1467   7.365   7.893  11.130
   47DG     H4' 1468   7.347   7.786  11.141
   47DG     O4' 1469   7.257   7.956  11.058
   47DG     C1' 1470   7.266   7.903  10.924
   47DG     H1' 1471   7.242   7.797  10.926
   47DG      N9 1472   7.169   7.968  10.834
   47DG      C8 1473   7.131   8.097  10.825
   47DG      H8 1474   7.166   8.175  10.891
   47DG      N7 1475   7.033   8.113  10.740
   47DG      C5 1476   7.013   7.982  10.692
   47DG      C6 1477   6.921   7.938  10.591
   47DG      O6 1478   6.838   8.004  10.530
   47DG      N1 1479   6.928   7.801  10.557
   47DG      H1 1480   6.864   7.763  10.490
   47DG      C2 1481   7.019   7.717  10.625
   47DG      N2 1482   7.021   7.591  10.583
   47DG     H21 1483   6.950   7.560  10.519
   47DG     H22 1484   7.091   7.525  10.615
   47DG      N3 1485   7.105   7.759  10.718
   47DG      C4 1486   7.094   7.890  10.749
   47DG     C3' 1487   7.476   7.897  11.029
   47DG     H3' 1488   7.536   7.984  11.057
   47DG     C2' 1489   7.412   7.913  10.885
   47DG    H2'1 1490   7.425   8.016  10.851
   47DG    H2'2 1491   7.436   7.837  10.812
   47DG     O3' 1492   7.559   7.782  11.039
   48DT       P 1493   7.692   7.765  10.939
   48DT     O1P 1494   7.793   7.690  11.012
   48DT     O2P 1495   7.730   7.901  10.890
   48DT     O5' 1496   7.639   7.676  10.820
   48DT     C5' 1497   7.570   7.558  10.846
   48DT    H5'1 1498   7.476   7.588  10.892
   48DT    H5'2 1499   7.623   7.502  10.923
   48DT     C4' 1500   7.545   7.473  10.722
   48DT     H4' 1501   7.506   7.376  10.753
   48DT     O4' 1502   7.442   7.533  10.643
   48DT     C1' 1503   7.490   7.566  10.512
   48DT     H1' 1504   7.466   7.482  10.446
   48DT      N1 1505   7.415   7.687  10.467
   48DT      C6 1506   7.448   7.812  10.524
   48DT      H6 1507   7.526   7.823  10.597
   48DT      C5 1508   7.370   7.919  10.488
   48DT      C7 1509   7.405   8.056  10.546
   48DT     H71 1510   7.455   8.114  10.468
   48DT     H72 1511   7.312   8.097  10.585
   48DT     H73 1512   7.473   8.058  10.631
   48DT      C4 1513   7.254   7.899  10.416
   48DT      O4 1514   7.173   7.987  10.391
   48DT      N3 1515   7.231   7.775  10.361
   48DT      H3 1516   7.143   7.763  10.313
   48DT      C2 1517   7.304   7.665  10.392
   48DT      O2 1518   7.278   7.551  10.352
   48DT     C3' 1519   7.673   7.470  10.638
   48DT     H3' 1520   7.760   7.508  10.691
   48DT     C2' 1521   7.640   7.569  10.527
   48DT    H2'1 1522   7.659   7.671  10.559
   48DT    H2'2 1523   7.695   7.554  10.434
   48DT     O3' 1524   7.705   7.332  10.604
   49DA       P 1525   7.811   7.286  10.495
   49DA     O1P 1526   7.824   7.138  10.515
   49DA     O2P 1527   7.930   7.370  10.513
   49DA     O5' 1528   7.740   7.317  10.355
   49DA     C5' 1529   7.635   7.241  10.298
   49DA    H5'1 1530   7.550   7.234  10.365
   49DA    H5'2 1531   7.665   7.140  10.268
   49DA     C4' 1532   7.585   7.308  10.168
   49DA     H4' 1533   7.505   7.242  10.133
   49DA     O4' 1534   7.532   7.439  10.186
   49DA     C1' 1535   7.554   7.507  10.069
   49DA     H1' 1536   7.474   7.484   9.998
   49DA      N9 1537   7.551   7.657  10.088
   49DA      C8 1538   7.643   7.745  10.142
   49DA      H8 1539   7.743   7.709  10.158
   49DA      N7 1540   7.609   7.869  10.142
   49DA      C5 1541   7.481   7.867  10.093
   49DA      C6 1542   7.378   7.966  10.077
   49DA      N6 1543   7.395   8.097  10.097
   49DA     H61 1544   7.316   8.153  10.068
   49DA     H62 1545   7.484   8.131  10.130
   49DA      N1 1546   7.274   7.930  10.011
   49DA      C2 1547   7.249   7.798   9.980
   49DA      H2 1548   7.155   7.775   9.931
   49DA      N3 1549   7.324   7.693  10.007
   49DA      C4 1550   7.442   7.734  10.057
   49DA     C3' 1551   7.692   7.314  10.057
   49DA     H3' 1552   7.792   7.291  10.094
   49DA     C2' 1553   7.689   7.461  10.009
   49DA    H2'1 1554   7.764   7.520  10.062
   49DA    H2'2 1555   7.691   7.474   9.901
   49DA     O3' 1556   7.657   7.216   9.951
   50DT       P 1557   7.732   7.191   9.810
   50DT     O1P 1558   7.713   7.050   9.773
   50DT     O2P 1559   7.870   7.242   9.832
   50DT     O5' 1560   7.655   7.289   9.714
   50DT     C5' 1561   7.515   7.271   9.689
   50DT    H5'1 1562   7.459   7.245   9.779
   50DT    H5'2 1563   7.501   7.178   9.634
   50DT     C4' 1564   7.440   7.384   9.619
   50DT     H4' 1565   7.342   7.351   9.587
   50DT     O4' 1566   7.434   7.501   9.690
   50DT     C1' 1567   7.460   7.614   9.606
   50DT     H1' 1568   7.367   7.631   9.552
   50DT      N1 1569   7.501   7.747   9.667
   50DT      C6 1570   7.624   7.757   9.732
   50DT      H6 1571   7.686   7.669   9.737
   50DT      C5 1572   7.672   7.873   9.780
   50DT      C7 1573   7.804   7.880   9.853
   50DT     H71 1574   7.798   7.967   9.919
   50DT     H72 1575   7.824   7.790   9.913
   50DT     H73 1576   7.880   7.892   9.776
   50DT      C4 1577   7.585   7.992   9.777
   50DT      O4 1578   7.608   8.104   9.810
   50DT      N3 1579   7.458   7.967   9.731
   50DT      H3 1580   7.395   8.045   9.719
   50DT      C2 1581   7.407   7.850   9.681
   50DT      O2 1582   7.285   7.841   9.652
   50DT     C3' 1583   7.513   7.428   9.486
   50DT     H3' 1584   7.591   7.357   9.458
   50DT     C2' 1585   7.573   7.561   9.507
   50DT    H2'1 1586   7.665   7.546   9.564
   50DT    H2'2 1587   7.592   7.621   9.418
   50DT     O3' 1588   7.412   7.430   9.384
   51DA       P 1589   7.365   7.296   9.309
   51DA     O1P 1590   7.313   7.199   9.408
   51DA     O2P 1591   7.477   7.260   9.219
   51DA     O5' 1592   7.257   7.343   9.210
   51DA     C5' 1593   7.124   7.372   9.243
   51DA    H5'1 1594   7.117   7.365   9.352
   51DA    H5'2 1595   7.067   7.289   9.201
   51DA     C4' 1596   7.065   7.499   9.198
   51DA     H4' 1597   6.960   7.474   9.213
   51DA     O4' 1598   7.113   7.607   9.268
   51DA     C1' 1599   7.152   7.711   9.173
   51DA     H1' 1600   7.066   7.772   9.146
   51DA      N9 1601   7.265   7.786   9.237
   51DA      C8 1602   7.390   7.744   9.257
   51DA      H8 1603   7.421   7.643   9.236
   51DA      N7 1604   7.474   7.837   9.299
   51DA      C5 1605   7.389   7.950   9.305
   51DA      C6 1606   7.411   8.088   9.331
   51DA      N6 1607   7.529   8.142   9.352
   51DA     H61 1608   7.523   8.242   9.366
   51DA     H62 1609   7.611   8.085   9.339
   51DA      N1 1610   7.308   8.170   9.330
   51DA      C2 1611   7.191   8.126   9.293
   51DA      H2 1612   7.108   8.196   9.294
   51DA      N3 1613   7.160   8.004   9.249
   51DA      C4 1614   7.262   7.920   9.269
   51DA     C3' 1615   7.090   7.529   9.046
   51DA     H3' 1616   7.132   7.441   8.998
   51DA     C2' 1617   7.195   7.635   9.049
   51DA    H2'1 1618   7.295   7.592   9.055
   51DA    H2'2 1619   7.185   7.713   8.973
   51DA     O3' 1620   6.962   7.562   8.987
   52DA       P 1621   6.946   7.611   8.836
   52DA     O1P 1622   6.823   7.542   8.793
   52DA     O2P 1623   7.066   7.588   8.758
   52DA     O5' 1624   6.929   7.770   8.848
   52DA     C5' 1625   6.824   7.817   8.926
   52DA    H5'1 1626   6.860   7.793   9.026
   52DA    H5'2 1627   6.742   7.746   8.920
   52DA     C4' 1628   6.775   7.966   8.899
   52DA     H4' 1629   6.689   7.983   8.965
   52DA     O4' 1630   6.868   8.053   8.947
   52DA     C1' 1631   6.940   8.101   8.835
   52DA     H1' 1632   6.934   8.209   8.827
   52DA      N9 1633   7.090   8.075   8.847
   52DA      C8 1634   7.167   7.952   8.827
   52DA      H8 1635   7.122   7.860   8.794
   52DA      N7 1636   7.287   7.961   8.870
   52DA      C5 1637   7.293   8.102   8.910
   52DA      C6 1638   7.399   8.192   8.950
   52DA      N6 1639   7.527   8.157   8.959
   52DA     H61 1640   7.590   8.213   9.014
   52DA     H62 1641   7.552   8.063   8.933
   52DA      N1 1642   7.378   8.322   8.973
   52DA      C2 1643   7.252   8.367   8.965
   52DA      H2 1644   7.240   8.472   8.990
   52DA      N3 1645   7.142   8.299   8.934
   52DA      C4 1646   7.172   8.171   8.900
   52DA     C3' 1647   6.749   7.999   8.746
   52DA     H3' 1648   6.721   7.909   8.692
   52DA     C2' 1649   6.886   8.053   8.701
   52DA    H2'1 1650   6.939   7.967   8.660
   52DA    H2'2 1651   6.877   8.139   8.635
   52DA     O3' 1652   6.647   8.101   8.750
   53DT       P 1653   6.609   8.194   8.623
   53DT     O1P 1654   6.477   8.255   8.650
   53DT     O2P 1655   6.617   8.104   8.501
   53DT     O5' 1656   6.721   8.311   8.620
   53DT     C5' 1657   6.734   8.397   8.732
   53DT    H5'1 1658   6.770   8.339   8.817
   53DT    H5'2 1659   6.634   8.437   8.749
   53DT     C4' 1660   6.828   8.517   8.707
   53DT     H4' 1661   6.802   8.596   8.778
   53DT     O4' 1662   6.959   8.472   8.725
   53DT     C1' 1663   7.036   8.512   8.617
   53DT     H1' 1664   7.059   8.616   8.642
   53DT      N1 1665   7.159   8.427   8.601
   53DT      C6 1666   7.142   8.303   8.564
   53DT      H6 1667   7.047   8.263   8.531
   53DT      C5 1668   7.248   8.214   8.555
   53DT      C7 1669   7.226   8.080   8.497
   53DT     H71 1670   7.207   8.006   8.575
   53DT     H72 1671   7.146   8.073   8.424
   53DT     H73 1672   7.320   8.047   8.454
   53DT      C4 1673   7.382   8.249   8.603
   53DT      O4 1674   7.475   8.173   8.627
   53DT      N3 1675   7.393   8.380   8.627
   53DT      H3 1676   7.484   8.402   8.663
   53DT      C2 1677   7.290   8.476   8.636
   53DT      O2 1678   7.319   8.587   8.680
   53DT     C3' 1679   6.818   8.583   8.561
   53DT     H3' 1680   6.726   8.541   8.518
   53DT     C2' 1681   6.939   8.519   8.497
   53DT    H2'1 1682   6.913   8.417   8.467
   53DT    H2'2 1683   6.970   8.575   8.409
   53DT     O3' 1684   6.833   8.726   8.562
   54DA       P 1685   6.796   8.815   8.434
   54DA     O1P 1686   6.776   8.946   8.491
   54DA     O2P 1687   6.684   8.747   8.363
   54DA     O5' 1688   6.921   8.822   8.340
   54DA     C5' 1689   7.037   8.895   8.376
   54DA    H5'1 1690   7.056   8.880   8.482
   54DA    H5'2 1691   7.033   9.001   8.352
   54DA     C4' 1692   7.159   8.840   8.303
   54DA     H4' 1693   7.241   8.907   8.327
   54DA     O4' 1694   7.198   8.704   8.340
   54DA     C1' 1695   7.258   8.663   8.220
   54DA     H1' 1696   7.347   8.725   8.209
   54DA      N9 1697   7.296   8.519   8.239
   54DA      C8 1698   7.238   8.407   8.191
   54DA      H8 1699   7.149   8.412   8.131
   54DA      N7 1700   7.310   8.302   8.203
   54DA      C5 1701   7.425   8.349   8.267
   54DA      C6 1702   7.543   8.289   8.312
   54DA      N6 1703   7.570   8.164   8.295
   54DA     H61 1704   7.665   8.135   8.314
   54DA     H62 1705   7.503   8.101   8.255
   54DA      N1 1706   7.645   8.361   8.374
   54DA      C2 1707   7.621   8.488   8.392
   54DA      H2 1708   7.700   8.545   8.439
   54DA      N3 1709   7.509   8.557   8.356
   54DA      C4 1710   7.418   8.482   8.294
   54DA     C3' 1711   7.138   8.843   8.151
   54DA     H3' 1712   7.041   8.880   8.118
   54DA     C2' 1713   7.154   8.698   8.117
   54DA    H2'1 1714   7.066   8.637   8.138
   54DA    H2'2 1715   7.190   8.690   8.014
   54DA     O3' 1716   7.237   8.908   8.090
   55DC       P 1717   7.213   9.045   8.017
   55DC     O1P 1718   7.150   9.143   8.106
   55DC     O2P 1719   7.157   9.019   7.887
   55DC     O5' 1720   7.366   9.091   7.998
   55DC     C5' 1721   7.446   9.140   8.099
   55DC    H5'1 1722   7.399   9.116   8.195
   55DC    H5'2 1723   7.466   9.247   8.092
   55DC     C4' 1724   7.581   9.068   8.109
   55DC     H4' 1725   7.627   9.094   8.204
   55DC     O4' 1726   7.570   8.928   8.118
   55DC     C1' 1727   7.652   8.857   8.023
   55DC     H1' 1728   7.755   8.857   8.058
   55DC      N1 1729   7.601   8.719   7.995
   55DC      C6 1730   7.483   8.697   7.928
   55DC      H6 1731   7.408   8.773   7.917
   55DC      C5 1732   7.450   8.567   7.889
   55DC      H5 1733   7.352   8.560   7.843
   55DC      C4 1734   7.546   8.465   7.915
   55DC      N4 1735   7.533   8.347   7.862
   55DC     H41 1736   7.604   8.277   7.875
   55DC     H42 1737   7.456   8.326   7.801
   55DC      N3 1738   7.652   8.487   7.986
   55DC      C2 1739   7.681   8.615   8.032
   55DC      O2 1740   7.774   8.624   8.108
   55DC     C3' 1741   7.668   9.089   7.981
   55DC     H3' 1742   7.627   9.167   7.917
   55DC     C2' 1743   7.649   8.957   7.911
   55DC    H2'1 1744   7.557   8.948   7.853
   55DC    H2'2 1745   7.736   8.933   7.850
   55DC     O3' 1746   7.801   9.110   8.007
   56DG       P 1747   7.896   9.220   7.941
   56DG     O1P 1748   7.877   9.350   8.009
   56DG     O2P 1749   7.880   9.218   7.792
   56DG     O5' 1750   8.042   9.157   7.971
   56DG     C5' 1751   8.093   9.151   8.108
   56DG    H5'1 1752   8.006   9.139   8.174
   56DG    H5'2 1753   8.146   9.243   8.131
   56DG     C4' 1754   8.185   9.029   8.119
   56DG     H4' 1755   8.236   9.032   8.215
   56DG     O4' 1756   8.110   8.911   8.107
   56DG     C1' 1757   8.178   8.822   8.016
   56DG     H1' 1758   8.239   8.753   8.073
   56DG      N9 1759   8.073   8.750   7.940
   56DG      C8 1760   7.972   8.807   7.875
   56DG      H8 1761   7.952   8.913   7.877
   56DG      N7 1762   7.882   8.721   7.822
   56DG      C5 1763   7.958   8.606   7.826
   56DG      C6 1764   7.937   8.478   7.762
   56DG      O6 1765   7.848   8.430   7.697
   56DG      N1 1766   8.039   8.389   7.786
   56DG      H1 1767   8.029   8.298   7.742
   56DG      C2 1768   8.154   8.419   7.852
   56DG      N2 1769   8.244   8.331   7.838
   56DG     H21 1770   8.233   8.243   7.790
   56DG     H22 1771   8.322   8.327   7.902
   56DG      N3 1772   8.178   8.526   7.920
   56DG      C4 1773   8.077   8.619   7.898
   56DG     C3' 1774   8.296   9.022   8.012
   56DG     H3' 1775   8.302   9.117   7.959
   56DG     C2' 1776   8.264   8.904   7.924
   56DG    H2'1 1777   8.210   8.941   7.837
   56DG    H2'2 1778   8.353   8.851   7.891
   56DG     O3' 1779   8.423   9.001   8.070
   57DC       P 1780   8.562   9.032   7.992
   57DC     O1P 1781   8.668   9.021   8.092
   57DC     O2P 1782   8.536   9.155   7.909
   57DC     O5' 1783   8.571   8.904   7.892
   57DC     C5' 1784   8.613   8.773   7.942
   57DC    H5'1 1785   8.543   8.742   8.020
   57DC    H5'2 1786   8.715   8.782   7.981
   57DC     C4' 1787   8.620   8.664   7.835
   57DC     H4' 1788   8.670   8.580   7.882
   57DC     O4' 1789   8.489   8.623   7.798
   57DC     C1' 1790   8.489   8.629   7.661
   57DC     H1' 1791   8.537   8.535   7.631
   57DC      N1 1792   8.357   8.626   7.605
   57DC      C6 1793   8.275   8.736   7.620
   57DC      H6 1794   8.308   8.820   7.679
   57DC      C5 1795   8.144   8.731   7.577
   57DC      H5 1796   8.079   8.818   7.581
   57DC      C4 1797   8.095   8.610   7.520
   57DC      N4 1798   7.984   8.606   7.450
   57DC     H41 1799   7.963   8.523   7.396
   57DC     H42 1800   7.930   8.689   7.432
   57DC      N3 1801   8.174   8.510   7.499
   57DC      C2 1802   8.303   8.508   7.547
   57DC      O2 1803   8.368   8.407   7.533
   57DC     C3' 1804   8.700   8.708   7.707
   57DC     H3' 1805   8.764   8.793   7.731
   57DC     C2' 1806   8.585   8.745   7.619
   57DC    H2'1 1807   8.538   8.842   7.636
   57DC    H2'2 1808   8.593   8.741   7.510
   57DC     O3' 1809   8.771   8.597   7.651
   58DA       P 1810   8.890   8.609   7.544
   58DA     O1P 1811   9.014   8.566   7.611
   58DA     O2P 1812   8.886   8.741   7.476
   58DA     O5' 1813   8.851   8.495   7.432
   58DA     C5' 1814   8.854   8.353   7.449
   58DA    H5'1 1815   8.772   8.322   7.514
   58DA    H5'2 1816   8.957   8.332   7.481
   58DA     C4' 1817   8.832   8.270   7.322
   58DA     H4' 1818   8.876   8.172   7.339
   58DA     O4' 1819   8.696   8.262   7.284
   58DA     C1' 1820   8.672   8.341   7.168
   58DA     H1' 1821   8.651   8.278   7.082
   58DA      N9 1822   8.552   8.429   7.192
   58DA      C8 1823   8.548   8.538   7.263
   58DA      H8 1824   8.635   8.586   7.305
   58DA      N7 1825   8.432   8.595   7.271
   58DA      C5 1826   8.353   8.504   7.200
   58DA      C6 1827   8.215   8.505   7.170
   58DA      N6 1828   8.144   8.604   7.187
   58DA     H61 1829   8.050   8.605   7.151
   58DA     H62 1830   8.186   8.675   7.245
   58DA      N1 1831   8.159   8.406   7.104
   58DA      C2 1832   8.236   8.303   7.069
   58DA      H2 1833   8.190   8.220   7.016
   58DA      N3 1834   8.367   8.289   7.088
   58DA      C4 1835   8.419   8.395   7.163
   58DA     C3' 1836   8.903   8.322   7.197
   58DA     H3' 1837   8.998   8.372   7.219
   58DA     C2' 1838   8.797   8.419   7.133
   58DA    H2'1 1839   8.802   8.517   7.181
   58DA    H2'2 1840   8.821   8.417   7.027
   58DA     O3' 1841   8.933   8.211   7.117
   59DC       P 1842   9.019   8.218   6.981
   59DC     O1P 1843   9.089   8.084   6.967
   59DC     O2P 1844   9.101   8.340   6.985
   59DC     O5' 1845   8.929   8.223   6.850
   59DC     C5' 1846   8.855   8.106   6.822
   59DC    H5'1 1847   8.813   8.066   6.914
   59DC    H5'2 1848   8.912   8.029   6.769
   59DC     C4' 1849   8.730   8.145   6.744
   59DC     H4' 1850   8.679   8.051   6.727
   59DC     O4' 1851   8.641   8.233   6.811
   59DC     C1' 1852   8.570   8.297   6.715
   59DC     H1' 1853   8.506   8.229   6.660
   59DC      N1 1854   8.482   8.403   6.773
   59DC      C6 1855   8.542   8.522   6.815
   59DC      H6 1856   8.650   8.534   6.817
   59DC      C5 1857   8.460   8.616   6.866
   59DC      H5 1858   8.507   8.709   6.895
   59DC      C4 1859   8.320   8.609   6.847
   59DC      N4 1860   8.253   8.715   6.877
   59DC     H41 1861   8.153   8.716   6.869
   59DC     H42 1862   8.307   8.796   6.906
   59DC      N3 1863   8.261   8.502   6.792
   59DC      C2 1864   8.341   8.397   6.755
   59DC      O2 1865   8.287   8.298   6.716
   59DC     C3' 1866   8.759   8.204   6.605
   59DC     H3' 1867   8.868   8.214   6.598
   59DC     C2' 1868   8.681   8.338   6.621
   59DC    H2'1 1869   8.755   8.405   6.664
   59DC    H2'2 1870   8.645   8.379   6.526
   59DC     O3' 1871   8.693   8.134   6.499
   60DA       P 1872   8.760   8.069   6.375
   60DA     O1P 1873   8.865   7.978   6.417
   60DA     O2P 1874   8.783   8.174   6.283
   60DA     O5' 1875   8.642   7.989   6.315
   60DA     C5' 1876   8.556   7.902   6.386
   60DA    H5'1 1877   8.593   7.896   6.489
   60DA    H5'2 1878   8.559   7.798   6.352
   60DA     C4' 1879   8.403   7.934   6.388
   60DA     H4' 1880   8.348   7.849   6.429
   60DA     O4' 1881   8.375   8.056   6.449
   60DA     C1' 1882   8.295   8.131   6.355
   60DA     H1' 1883   8.193   8.105   6.383
   60DA      N9 1884   8.314   8.278   6.376
   60DA      C8 1885   8.438   8.336   6.383
   60DA      H8 1886   8.526   8.277   6.361
   60DA      N7 1887   8.420   8.458   6.426
   60DA      C5 1888   8.283   8.488   6.428
   60DA      C6 1889   8.202   8.608   6.454
   60DA      N6 1890   8.251   8.722   6.507
   60DA     H61 1891   8.183   8.793   6.530
   60DA     H62 1892   8.350   8.725   6.528
   60DA      N1 1893   8.069   8.601   6.454
   60DA      C2 1894   8.019   8.486   6.419
   60DA      H2 1895   7.911   8.482   6.419
   60DA      N3 1896   8.083   8.373   6.389
   60DA      C4 1897   8.214   8.379   6.404
   60DA     C3' 1898   8.367   7.944   6.241
   60DA     H3' 1899   8.449   7.905   6.181
   60DA     C2' 1900   8.341   8.091   6.219
   60DA    H2'1 1901   8.435   8.141   6.197
   60DA    H2'2 1902   8.273   8.116   6.137
   60DA     O3' 1903   8.248   7.875   6.217
   61DT       P 1904   8.196   7.840   6.068
   61DT     O1P 1905   8.104   7.727   6.087
   61DT     O2P 1906   8.310   7.832   5.971
   61DT     O5' 1907   8.119   7.969   6.032
   61DT     C5' 1908   8.003   8.007   6.107
   61DT    H5'1 1909   8.012   8.013   6.216
   61DT    H5'2 1910   7.929   7.929   6.090
   61DT     C4' 1911   7.938   8.129   6.045
   61DT     H4' 1912   7.832   8.130   6.072
   61DT     O4' 1913   8.008   8.244   6.091
   61DT     C1' 1914   8.022   8.331   5.984
   61DT     H1' 1915   7.929   8.386   5.970
   61DT      N1 1916   8.120   8.431   6.028
   61DT      C6 1917   8.255   8.407   6.019
   61DT      H6 1918   8.292   8.311   5.984
   61DT      C5 1919   8.346   8.501   6.053
   61DT      C7 1920   8.496   8.477   6.038
   61DT     H71 1921   8.550   8.560   5.995
   61DT     H72 1922   8.533   8.464   6.140
   61DT     H73 1923   8.505   8.384   5.982
   61DT      C4 1924   8.302   8.629   6.107
   61DT      O4 1925   8.368   8.721   6.152
   61DT      N3 1926   8.166   8.655   6.090
   61DT      H3 1927   8.127   8.744   6.118
   61DT      C2 1928   8.068   8.563   6.056
   61DT      O2 1929   7.950   8.597   6.058
   61DT     C3' 1930   7.943   8.138   5.892
   61DT     H3' 1931   7.971   8.044   5.844
   61DT     C2' 1932   8.054   8.244   5.866
   61DT    H2'1 1933   8.151   8.197   5.885
   61DT    H2'2 1934   8.043   8.296   5.771
   61DT     O3' 1935   7.821   8.186   5.834
   62DG       P 1936   7.786   8.166   5.681
   62DG     O1P 1937   7.634   8.156   5.668
   62DG     O2P 1938   7.859   8.051   5.628
   62DG     O5' 1939   7.838   8.300   5.621
   62DG     C5' 1940   7.763   8.423   5.652
   62DG    H5'1 1941   7.747   8.410   5.758
   62DG    H5'2 1942   7.664   8.421   5.605
   62DG     C4' 1943   7.840   8.557   5.626
   62DG     H4' 1944   7.775   8.644   5.634
   62DG     O4' 1945   7.951   8.568   5.715
   62DG     C1' 1946   8.029   8.662   5.646
   62DG     H1' 1947   7.978   8.757   5.639
   62DG      N9 1948   8.159   8.676   5.716
   62DG      C8 1949   8.275   8.602   5.703
   62DG      H8 1950   8.282   8.503   5.660
   62DG      N7 1951   8.378   8.663   5.750
   62DG      C5 1952   8.329   8.779   5.805
   62DG      C6 1953   8.402   8.886   5.872
   62DG      O6 1954   8.520   8.898   5.892
   62DG      N1 1955   8.318   8.994   5.907
   62DG      H1 1956   8.360   9.078   5.944
   62DG      C2 1957   8.183   8.993   5.884
   62DG      N2 1958   8.119   9.101   5.912
   62DG     H21 1959   8.173   9.178   5.948
   62DG     H22 1960   8.018   9.096   5.915
   62DG      N3 1961   8.116   8.897   5.831
   62DG      C4 1962   8.195   8.789   5.790
   62DG     C3' 1963   7.894   8.566   5.485
   62DG     H3' 1964   7.873   8.480   5.421
   62DG     C2' 1965   8.041   8.599   5.508
   62DG    H2'1 1966   8.101   8.509   5.497
   62DG    H2'2 1967   8.076   8.673   5.436
   62DG     O3' 1968   7.836   8.672   5.419
   63DC       P 1969   7.799   8.662   5.260
   63DC     O1P 1970   7.701   8.559   5.250
   63DC     O2P 1971   7.925   8.646   5.185
   63DC     O5' 1972   7.734   8.799   5.233
   63DC     C5' 1973   7.633   8.860   5.316
   63DC    H5'1 1974   7.600   8.797   5.398
   63DC    H5'2 1975   7.549   8.872   5.248
   63DC     C4' 1976   7.670   8.999   5.371
   63DC     H4' 1977   7.571   9.020   5.412
   63DC     O4' 1978   7.771   9.009   5.473
   63DC     C1' 1979   7.868   9.102   5.423
   63DC     H1' 1980   7.845   9.199   5.465
   63DC      N1 1981   8.002   9.046   5.463
   63DC      C6 1982   8.065   8.941   5.396
   63DC      H6 1983   7.997   8.873   5.347
   63DC      C5 1984   8.198   8.912   5.413
   63DC      H5 1985   8.242   8.827   5.363
   63DC      C4 1986   8.272   9.004   5.490
   63DC      N4 1987   8.391   8.979   5.532
   63DC     H41 1988   8.427   9.029   5.613
   63DC     H42 1989   8.439   8.899   5.496
   63DC      N3 1990   8.216   9.104   5.549
   63DC      C2 1991   8.079   9.122   5.548
   63DC      O2 1992   8.037   9.210   5.621
   63DC     C3' 1993   7.695   9.107   5.265
   63DC     H3' 1994   7.670   9.080   5.163
   63DC     C2' 1995   7.845   9.114   5.273
   63DC    H2'1 1996   7.883   9.033   5.212
   63DC    H2'2 1997   7.895   9.202   5.232
   63DC     O3' 1998   7.633   9.231   5.296
   64DG3      P 1999   7.658   9.362   5.207
   64DG3    O1P 2000   7.559   9.467   5.235
   64DG3    O2P 2001   7.667   9.316   5.066
   64DG3    O5' 2002   7.801   9.416   5.246
   64DG3    C5' 2003   7.817   9.482   5.373
   64DG3   H5'1 2004   7.782   9.421   5.456
   64DG3   H5'2 2005   7.757   9.573   5.375
   64DG3    C4' 2006   7.961   9.536   5.403
   64DG3    H4' 2007   7.967   9.595   5.494
   64DG3    O4' 2008   8.047   9.425   5.402
   64DG3    C1' 2009   8.160   9.477   5.337
   64DG3    H1' 2010   8.215   9.542   5.406
   64DG3     N9 2011   8.244   9.369   5.284
   64DG3     C8 2012   8.202   9.265   5.204
   64DG3     H8 2013   8.100   9.256   5.169
   64DG3     N7 2014   8.302   9.189   5.182
   64DG3     C5 2015   8.410   9.232   5.258
   64DG3     C6 2016   8.544   9.182   5.277
   64DG3     O6 2017   8.612   9.092   5.220
   64DG3     N1 2018   8.609   9.248   5.379
   64DG3     H1 2019   8.706   9.221   5.390
   64DG3     C2 2020   8.557   9.353   5.456
   64DG3     N2 2021   8.641   9.415   5.528
   64DG3    H21 2022   8.738   9.387   5.524
   64DG3    H22 2023   8.618   9.506   5.564
   64DG3     N3 2024   8.435   9.405   5.435
   64DG3     C4 2025   8.371   9.341   5.329
   64DG3    C3' 2026   8.003   9.639   5.286
   64DG3    H3' 2027   7.924   9.651   5.211
   64DG3    C2' 2028   8.109   9.553   5.217
   64DG3   H2'1 2029   8.059   9.495   5.140
   64DG3   H2'2 2030   8.186   9.612   5.167
   64DG3    O3' 2031   8.056   9.765   5.334
   64DG3    H3T 2032   8.116   9.748   5.408
   65SOL     OW 2033   5.400  14.456   7.204
   65SOL    HW1 2034   5.364  14.544   7.192
   65SOL    HW2 2035   5.465  14.466   7.273
   66SOL     OW 2036   2.265   3.119   2.534
   66SOL    HW1 2037   2.185   3.115   2.482
   66SOL    HW2 2038   2.235   3.129   2.624
   67SOL     OW 2039   3.020   2.461   8.264
   67SOL    HW1 2040   3.018   2.442   8.358
   67SOL    HW2 2041   2.934   2.499   8.245
   68SOL     OW 2042  10.951  11.303   2.911
   68SOL    HW1 2043  11.040  11.269   2.906
   68SOL    HW2 2044  10.948  11.352   2.993
   69SOL     OW 2045   8.896  14.844   5.496
   69SOL    HW1 2046   8.983  14.866   5.529
   69SOL    HW2 2047   8.841   0.043   5.526
   70SOL     OW 2048  11.510   6.748  12.582
   70SOL    HW1 2049  11.605   6.734  12.582
   70SOL    HW2 2050  11.473   6.668  12.545
   71SOL     OW 2051  14.575   4.010   8.300
   71SOL    HW1 2052  14.518   3.978   8.369
   71SOL    HW2 2053  14.590   4.102   8.322
   72SOL     OW 2054  14.490   7.222   1.409
   72SOL    HW1 2055  14.560   7.263   1.359
   72SOL    HW2 2056  14.524   7.135   1.432
   73SOL     OW 2057   4.434   9.251   1.562
   73SOL    HW1 2058   4.528   9.255   1.580
   73SOL    HW2 2059   4.427   9.197   1.483
   74SOL     OW 2060   8.445   5.998   6.815
   74SOL    HW1 2061   8.417   6.086   6.840
   74SOL    HW2 2062   8.535   6.009   6.786
   75SOL     OW 2063  12.297  12.208  10.943
   75SOL    HW1 2064  12.391  12.220  10.928
   75SOL    HW2 2065  12.293  12.151  11.020
   76SOL     OW 2066  10.163   2.739   2.727
   76SOL    HW1 2067  10.241   2.788   2.703
   76SOL    HW2 2068  10.169   2.727   2.821
   77SOL     OW 2069   1.044   9.683   8.348
   77SOL    HW1 2070   1.084   9.657   8.265
   77SOL    HW2 2071   1.047   9.605   8.402
   78SOL     OW 2072   5.037   8.616  13.716
   78SOL    HW1 2073   4.954   8.649  13.681
   78SOL    HW2 2074   5.010   8.553  13.783
   79SOL     OW 2075   9.899   4.904   7.024
   79SOL    HW1 2076   9.885   4.827   7.078
   79SOL    HW2 2077   9.840   4.970   7.059
   80SOL     OW 2078  13.285   0.979   0.336
   80SOL    HW1 2079  13.346   1.044   0.369
   80SOL    HW2 2080  13.237   1.024   0.266
   81SOL     OW 2081   8.263  11.895   6.851
   81SOL    HW1 2082   8.302  11.982   6.851
   81SOL    HW2 2083   8.268  11.866   6.760
   82SOL     OW 2084  12.016   1.247   1.406
   82SOL    HW1 2085  12.092   1.300   1.382
   82SOL    HW2 2086  11.944   1.309   1.409
   83SOL     OW 2087  12.116   2.665  10.068
   83SOL    HW1 2088  12.158   2.589  10.108
   83SOL    HW2 2089  12.129   2.736  10.131
   84SOL     OW 2090   9.186   6.757   1.757
   84SOL    HW1 2091   9.153   6.846   1.751
   84SOL    HW2 2092   9.278   6.766   1.780
   85SOL     OW 2093   0.689  14.526   2.880
   85SOL    HW1 2094   0.624  14.586   2.917
   85SOL    HW2 2095   0.768  14.540   2.932
   86SOL     OW 2096   1.590   2.956  12.454
   86SOL    HW1 2097   1.571   2.921  12.367
   86SOL    HW2 2098   1.515   2.930  12.508
   87SOL     OW 2099  12.144   8.040   0.602
   87SOL    HW1 2100  12.059   8.039   0.557
   87SOL    HW2 2101  12.123   8.021   0.693
   88SOL     OW 2102   8.310   8.834  10.526
   88SOL    HW1 2103   8.300   8.768  10.594
   88SOL    HW2 2104   8.336   8.784  10.448
   89SOL     OW 2105   9.864  13.422   8.712
   89SOL    HW1 2106   9.951  13.396   8.681
   89SOL    HW2 2107   9.879  13.504   8.759
   90SOL     OW 2108   0.431   6.377   6.845
   90SOL    HW1 2109   0.358   6.334   6.891
   90SOL    HW2 2110   0.388   6.426   6.775
   91SOL     OW 2111   6.176   4.021  12.164
   91SOL    HW1 2112   6.107   4.015  12.098
   91SOL    HW2 2113   6.150   4.095  12.219
   92SOL     OW 2114   7.845   1.080   0.371
   92SOL    HW1 2115   7.804   1.052   0.453
   92SOL    HW2 2116   7.926   1.124   0.399
   93SOL     OW 2117   0.490   9.390   4.889
   93SOL    HW1 2118   0.508   9.484   4.886
   93SOL    HW2 2119   0.565   9.350   4.845
   94SOL     OW 2120  14.639  12.658  12.165
   94SOL    HW1 2121  14.709  12.640  12.102
   94SOL    HW2 2122  14.562  12.612  12.131
   95SOL     OW 2123  13.258   4.889  12.868
   95SOL    HW1 2124  13.250   4.920  12.778
   95SOL    HW2 2125  13.173   4.908  12.908
   96SOL     OW 2126   3.766  11.119   9.374
   96SOL    HW1 2127   3.807  11.077   9.298
   96SOL    HW2 2128   3.807  11.205   9.379
   97SOL     OW 2129   3.746   2.753   2.301
   97SOL    HW1 2130   3.654   2.744   2.275
   97SOL    HW2 2131   3.781   2.664   2.294
   98SOL     OW 2132  14.757  10.277   0.504
   98SOL    HW1 2133  14.667  10.309   0.503
   98SOL    HW2 2134  14.810  10.354   0.525
   99SOL     OW 2135   8.460   9.234   3.183
   99SOL    HW1 2136   8.471   9.143   3.156
   99SOL    HW2 2137   8.550   9.268   3.192
  100SOL     OW 2138   6.980   3.098  10.959
  100SOL    HW1 2139   7.012   3.101  11.049
  100SOL    HW2 2140   7.033   3.164  10.913
  101SOL     OW 2141   2.137   9.605  11.636
  101SOL    HW1 2142   2.227   9.601  11.666
  101SOL    HW2 2143   2.117   9.698  11.631
  102SOL     OW 2144   9.359   5.654   8.135
  102SOL    HW1 2145   9.287   5.718   8.132
  102SOL    HW2 2146   9.332   5.590   8.201
  103SOL     OW 2147  11.131  11.393   6.069
  103SOL    HW1 2148  11.179  11.400   5.986
  103SOL    HW2 2149  11.098  11.303   6.070
  104SOL     OW 2150   0.190   4.624   6.503
  104SOL    HW1 2151   0.094   4.625   6.510
  104SOL    HW2 2152   0.209   4.551   6.445
  105SOL     OW 2153  10.280  13.492   4.099
  105SOL    HW1 2154  10.273  13.510   4.193
  105SOL    HW2 2155  10.302  13.577   4.061
  106SOL     OW 2156   9.366   3.471   3.932
  106SOL    HW1 2157   9.461   3.483   3.928
  106SOL    HW2 2158   9.351   3.381   3.904
  107SOL     OW 2159   8.604   4.268  11.345
  107SOL    HW1 2160   8.673   4.292  11.407
  107SOL    HW2 2161   8.527   4.251  11.399
  108SOL     OW 2162   1.974  11.364  13.516
  108SOL    HW1 2163   2.034  11.319  13.456
  108SOL    HW2 2164   1.914  11.295  13.546
  109SOL     OW 2165  10.035  13.975   6.782
  109SOL    HW1 2166  10.116  13.952   6.736
  109SOL    HW2 2167  10.017  13.899   6.837
  110SOL     OW 2168   9.592   9.516   6.172
  110SOL    HW1 2169   9.636   9.475   6.097
  110SOL    HW2 2170   9.645   9.593   6.192
  111SOL     OW 2171  10.976   4.183   6.860
  111SOL    HW1 2172  11.002   4.269   6.828
  111SOL    HW2 2173  10.923   4.201   6.938
  112SOL     OW 2174   9.166   6.950   5.471
  112SOL    HW1 2175   9.161   6.959   5.566
  112SOL    HW2 2176   9.084   6.908   5.447
  113SOL     OW 2177  11.541   4.027   3.236
  113SOL    HW1 2178  11.598   3.978   3.295
  113SOL    HW2 2179  11.504   4.096   3.292
  114SOL     OW 2180  10.610   2.452   8.983
  114SOL    HW1 2181  10.613   2.499   8.900
  114SOL    HW2 2182  10.608   2.359   8.958
  115SOL     OW 2183   9.461  13.385   5.890
  115SOL    HW1 2184   9.467  13.354   5.800
  115SOL    HW2 2185   9.462  13.305   5.943
  116SOL     OW 2186   4.309  11.213   0.329
  116SOL    HW1 2187   4.310  11.179   0.419
  116SOL    HW2 2188   4.267  11.298   0.336
  117SOL     OW 2189   5.728   9.626   4.961
  117SOL    HW1 2190   5.815   9.616   4.924
  117SOL    HW2 2191   5.689   9.539   4.954
  118SOL     OW 2192   2.176   9.842   5.996
  118SOL    HW1 2193   2.193   9.830   6.089
  118SOL    HW2 2194   2.107   9.779   5.975
  119SOL     OW 2195  10.860  14.230  10.192
  119SOL    HW1 2196  10.900  14.172  10.127
  119SOL    HW2 2197  10.881  14.318  10.161
  120SOL     OW 2198  11.697   3.502  13.351
  120SOL    HW1 2199  11.614   3.486  13.397
  120SOL    HW2 2200  11.744   3.419  13.359
  121SOL     OW 2201  10.932   5.559  11.469
  121SOL    HW1 2202  10.882   5.639  11.482
  121SOL    HW2 2203  10.924   5.541  11.375
  122SOL     OW 2204   7.077   7.754   2.260
  122SOL    HW1 2205   7.163   7.713   2.267
  122SOL    HW2 2206   7.082   7.807   2.180
  123SOL     OW 2207   2.939   8.676   3.293
  123SOL    HW1 2208   2.909   8.687   3.383
  123SOL    HW2 2209   2.970   8.586   3.289
  124SOL     OW 2210  14.829   1.053   2.795
  124SOL    HW1 2211   0.010   1.111   2.848
  124SOL    HW2 2212  14.866   0.966   2.807
  125SOL     OW 2213  12.608   9.750  11.866
  125SOL    HW1 2214  12.661   9.708  11.798
  125SOL    HW2 2215  12.599   9.684  11.934
  126SOL     OW 2216   9.774   9.636   7.846
  126SOL    HW1 2217   9.784   9.590   7.929
  126SOL    HW2 2218   9.684   9.618   7.820
  127SOL     OW 2219   2.436  13.621  10.301
  127SOL    HW1 2220   2.464  13.661  10.383
  127SOL    HW2 2221   2.429  13.694  10.240
  128SOL     OW 2222  12.299   8.324   4.178
  128SOL    HW1 2223  12.309   8.419   4.182
  128SOL    HW2 2224  12.299   8.303   4.085
  129SOL     OW 2225  12.743   1.293   7.426
  129SOL    HW1 2226  12.795   1.350   7.484
  129SOL    HW2 2227  12.653   1.326   7.434
  130SOL     OW 2228  11.102   4.420  10.176
  130SOL    HW1 2229  11.185   4.403  10.131
  130SOL    HW2 2230  11.127   4.451  10.262
  131SOL     OW 2231   3.077   9.847   4.701
  131SOL    HW1 2232   2.987   9.819   4.721
  131SOL    HW2 2233   3.130   9.769   4.715
  132SOL     OW 2234   8.653  10.035  11.197
  132SOL    HW1 2235   8.734   9.998  11.231
  132SOL    HW2 2236   8.588   9.965  11.207
  133SOL     OW 2237  13.461   0.374   1.141
  133SOL    HW1 2238  13.519   0.351   1.069
  133SOL    HW2 2239  13.375   0.386   1.100
  134SOL     OW 2240   2.070   8.302   6.582
  134SOL    HW1 2241   2.095   8.210   6.588
  134SOL    HW2 2242   2.042   8.326   6.670
  135SOL     OW 2243   8.421   4.846   1.177
  135SOL    HW1 2244   8.451   4.787   1.246
  135SOL    HW2 2245   8.433   4.934   1.213
  136SOL     OW 2246   3.396  14.491   9.861
  136SOL    HW1 2247   3.394  14.586   9.876
  136SOL    HW2 2248   3.304  14.465   9.862
  137SOL     OW 2249   6.073   9.466   5.782
  137SOL    HW1 2250   6.087   9.550   5.738
  137SOL    HW2 2251   6.105   9.401   5.720
  138SOL     OW 2252   1.805   9.940   6.257
  138SOL    HW1 2253   1.862   9.874   6.296
  138SOL    HW2 2254   1.862  10.016   6.244
  139SOL     OW 2255   1.209   6.794   1.103
  139SOL    HW1 2256   1.226   6.887   1.089
  139SOL    HW2 2257   1.290   6.750   1.078
  140SOL     OW 2258   0.656  13.674   4.222
  140SOL    HW1 2259   0.696  13.757   4.248
  140SOL    HW2 2260   0.562  13.688   4.235
  141SOL     OW 2261   1.152   9.513   6.331
  141SOL    HW1 2262   1.121   9.600   6.354
  141SOL    HW2 2263   1.247   9.524   6.318
  142SOL     OW 2264  11.559  13.345  12.526
  142SOL    HW1 2265  11.519  13.312  12.606
  142SOL    HW2 2266  11.559  13.440  12.537
  143SOL     OW 2267   9.620   6.177  11.829
  143SOL    HW1 2268   9.558   6.176  11.756
  143SOL    HW2 2269   9.705   6.163  11.788
  144SOL     OW 2270   6.163  12.090  12.875
  144SOL    HW1 2271   6.214  12.024  12.921
  144SOL    HW2 2272   6.150  12.053  12.787
  145SOL     OW 2273   1.318   7.950   7.457
  145SOL    HW1 2274   1.311   7.855   7.462
  145SOL    HW2 2275   1.347   7.977   7.544
  146SOL     OW 2276  13.799  14.599   5.496
  146SOL    HW1 2277  13.866  14.541   5.531
  146SOL    HW2 2278  13.720  14.545   5.493
  147SOL     OW 2279   3.098   1.982   2.957
  147SOL    HW1 2280   3.072   2.014   2.871
  147SOL    HW2 2281   3.029   2.012   3.016
  148SOL     OW 2282   3.759  11.312   3.557
  148SOL    HW1 2283   3.718  11.228   3.538
  148SOL    HW2 2284   3.780  11.349   3.472
  149SOL     OW 2285   3.144   1.426   0.342
  149SOL    HW1 2286   3.214   1.445   0.404
  149SOL    HW2 2287   3.172   1.344   0.299
  150SOL     OW 2288   1.246  10.830   4.962
  150SOL    HW1 2289   1.234  10.768   5.034
  150SOL    HW2 2290   1.216  10.784   4.884
  151SOL     OW 2291  14.074   0.315   5.748
  151SOL    HW1 2292  14.043   0.228   5.725
  151SOL    HW2 2293  14.153   0.300   5.800
  152SOL     OW 2294   9.450  13.067   2.918
  152SOL    HW1 2295   9.479  13.151   2.952
  152SOL    HW2 2296   9.373  13.088   2.865
  153SOL     OW 2297  11.767   9.702   9.835
  153SOL    HW1 2298  11.766   9.658   9.920
  153SOL    HW2 2299  11.742   9.792   9.854
  154SOL     OW 2300  12.748  13.429   1.713
  154SOL    HW1 2301  12.753  13.494   1.783
  154SOL    HW2 2302  12.717  13.477   1.637
  155SOL     OW 2303  13.206   3.772   0.899
  155SOL    HW1 2304  13.137   3.804   0.958
  155SOL    HW2 2305  13.216   3.842   0.835
  156SOL     OW 2306  14.035  12.008   3.427
  156SOL    HW1 2307  14.029  12.103   3.435
  156SOL    HW2 2308  13.970  11.974   3.489
  157SOL     OW 2309  11.138  14.008   9.144
  157SOL    HW1 2310  11.171  14.094   9.170
  157SOL    HW2 2311  11.059  14.027   9.093
  158SOL     OW 2312   6.935   6.255   8.229
  158SOL    HW1 2313   6.893   6.277   8.312
  158SOL    HW2 2314   7.029   6.259   8.249
  159SOL     OW 2315   0.901   0.923   4.549
  159SOL    HW1 2316   0.837   0.985   4.514
  159SOL    HW2 2317   0.875   0.910   4.640
  160SOL     OW 2318   3.105   3.960   5.826
  160SOL    HW1 2319   3.041   3.892   5.845
  160SOL    HW2 2320   3.186   3.913   5.808
  161SOL     OW 2321   2.746  10.618   1.620
  161SOL    HW1 2322   2.656  10.639   1.596
  161SOL    HW2 2323   2.793  10.618   1.537
  162SOL     OW 2324   8.449   1.832   7.302
  162SOL    HW1 2325   8.450   1.913   7.252
  162SOL    HW2 2326   8.392   1.774   7.252
  163SOL     OW 2327   1.329  11.960   5.744
  163SOL    HW1 2328   1.307  11.867   5.742
  163SOL    HW2 2329   1.423  11.962   5.761
  164SOL     OW 2330   7.150   5.932   2.856
  164SOL    HW1 2331   7.056   5.940   2.871
  164SOL    HW2 2332   7.176   5.853   2.902
  165SOL     OW 2333   4.574   4.797   5.226
  165SOL    HW1 2334   4.578   4.775   5.320
  165SOL    HW2 2335   4.662   4.829   5.206
  166SOL     OW 2336   7.004   0.616  10.339
  166SOL    HW1 2337   6.921   0.626  10.386
  166SOL    HW2 2338   7.019   0.701  10.299
  167SOL     OW 2339   0.687  10.203   1.038
  167SOL    HW1 2340   0.652  10.275   1.089
  167SOL    HW2 2341   0.610  10.158   1.003
  168SOL     OW 2342  11.692   9.208   1.907
  168SOL    HW1 2343  11.728   9.229   1.993
  168SOL    HW2 2344  11.749   9.139   1.873
  169SOL     OW 2345   9.280  10.216   4.159
  169SOL    HW1 2346   9.305  10.124   4.171
  169SOL    HW2 2347   9.263  10.224   4.066
  170SOL     OW 2348   3.809   0.756  10.117
  170SOL    HW1 2349   3.797   0.703  10.196
  170SOL    HW2 2350   3.762   0.838  10.136
  171SOL     OW 2351   8.268   1.544   0.206
  171SOL    HW1 2352   8.173   1.554   0.202
  171SOL    HW2 2353   8.300   1.633   0.225
  172SOL     OW 2354  13.205   6.182   4.539
  172SOL    HW1 2355  13.238   6.259   4.493
  172SOL    HW2 2356  13.245   6.108   4.494
  173SOL     OW 2357   6.125   4.548   8.670
  173SOL    HW1 2358   6.209   4.530   8.628
  173SOL    HW2 2359   6.147   4.595   8.750
  174SOL     OW 2360   1.850   9.761   3.252
  174SOL    HW1 2361   1.838   9.855   3.246
  174SOL    HW2 2362   1.847   9.731   3.161
  175SOL     OW 2363   3.565   7.269   4.471
  175SOL    HW1 2364   3.553   7.245   4.562
  175SOL    HW2 2365   3.478   7.298   4.442
  176SOL     OW 2366   4.944  10.811  14.744
  176SOL    HW1 2367   4.879  10.836  14.678
  176SOL    HW2 2368   4.996  10.743  14.702
  177SOL     OW 2369  10.383   8.873   0.773
  177SOL    HW1 2370  10.398   8.908   0.685
  177SOL    HW2 2371  10.435   8.793   0.776
  178SOL     OW 2372   9.314   3.452   5.352
  178SOL    HW1 2373   9.346   3.525   5.406
  178SOL    HW2 2374   9.221   3.446   5.372
  179SOL     OW 2375  10.519   0.825   9.041
  179SOL    HW1 2376  10.516   0.735   9.072
  179SOL    HW2 2377  10.433   0.861   9.063
  180SOL     OW 2378   9.628  10.702  10.894
  180SOL    HW1 2379   9.644  10.741  10.808
  180SOL    HW2 2380   9.533  10.691  10.898
  181SOL     OW 2381  14.099   7.170   8.586
  181SOL    HW1 2382  14.174   7.208   8.540
  181SOL    HW2 2383  14.051   7.246   8.620
  182SOL     OW 2384   4.941  10.498  10.366
  182SOL    HW1 2385   4.902  10.585  10.370
  182SOL    HW2 2386   4.874  10.444  10.323
  183SOL     OW 2387   3.963   3.380   8.458
  183SOL    HW1 2388   4.038   3.349   8.508
  183SOL    HW2 2389   3.983   3.355   8.368
  184SOL     OW 2390   4.404   2.757  12.005
  184SOL    HW1 2391   4.439   2.767  12.093
  184SOL    HW2 2392   4.471   2.794  11.947
  185SOL     OW 2393   2.063  13.041  10.493
  185SOL    HW1 2394   2.117  12.989  10.434
  185SOL    HW2 2395   2.079  13.004  10.580
  186SOL     OW 2396  10.225  10.884   4.877
  186SOL    HW1 2397  10.291  10.820   4.905
  186SOL    HW2 2398  10.227  10.880   4.782
  187SOL     OW 2399   2.070   0.243  13.290
  187SOL    HW1 2400   2.130   0.318  13.294
  187SOL    HW2 2401   2.086   0.196  13.372
  188SOL     OW 2402   5.314  13.628   5.019
  188SOL    HW1 2403   5.308  13.533   5.028
  188SOL    HW2 2404   5.328  13.643   4.926
  189SOL     OW 2405   3.675   4.588   6.263
  189SOL    HW1 2406   3.722   4.615   6.184
  189SOL    HW2 2407   3.742   4.590   6.332
  190SOL     OW 2408   4.205   1.179   0.436
  190SOL    HW1 2409   4.239   1.114   0.375
  190SOL    HW2 2410   4.280   1.201   0.493
  191SOL     OW 2411   4.373  11.366   9.180
  191SOL    HW1 2412   4.420  11.427   9.237
  191SOL    HW2 2413   4.297  11.415   9.150
  192SOL     OW 2414   6.480  11.585   7.982
  192SOL    HW1 2415   6.396  11.608   8.023
  192SOL    HW2 2416   6.462  11.587   7.888
  193SOL     OW 2417   7.830   6.135   5.029
  193SOL    HW1 2418   7.793   6.160   4.944
  193SOL    HW2 2419   7.769   6.171   5.093
  194SOL     OW 2420   5.228   4.038   5.586
  194SOL    HW1 2421   5.310   4.042   5.636
  194SOL    HW2 2422   5.249   3.984   5.510
  195SOL     OW 2423   1.463   7.045  11.130
  195SOL    HW1 2424   1.461   7.105  11.205
  195SOL    HW2 2425   1.556   7.035  11.110
  196SOL     OW 2426   3.813  12.594  10.047
  196SOL    HW1 2427   3.866  12.592  10.127
  196SOL    HW2 2428   3.850  12.526   9.992
  197SOL     OW 2429   6.067   3.752   7.522
  197SOL    HW1 2430   6.128   3.720   7.456
  197SOL    HW2 2431   5.980   3.728   7.488
  198SOL     OW 2432   5.903  13.510   0.488
  198SOL    HW1 2433   5.868  13.501   0.576
  198SOL    HW2 2434   5.828  13.497   0.430
  199SOL     OW 2435   0.490   7.966   9.966
  199SOL    HW1 2436   0.480   8.061   9.959
  199SOL    HW2 2437   0.566   7.946   9.911
  200SOL     OW 2438  12.701  14.292   7.310
  200SOL    HW1 2439  12.663  14.380   7.316
  200SOL    HW2 2440  12.652  14.241   7.374
  201SOL     OW 2441  10.369  11.472  13.297
  201SOL    HW1 2442  10.299  11.408  13.297
  201SOL    HW2 2443  10.375  11.501  13.206
  202SOL     OW 2444  13.447   8.416   3.274
  202SOL    HW1 2445  13.527   8.462   3.250
  202SOL    HW2 2446  13.384   8.486   3.291
  203SOL     OW 2447   7.500   3.631   4.656
  203SOL    HW1 2448   7.513   3.719   4.620
  203SOL    HW2 2449   7.407   3.613   4.642
  204SOL     OW 2450  13.458   7.890   3.076
  204SOL    HW1 2451  13.376   7.844   3.058
  204SOL    HW2 2452  13.440   7.942   3.154
  205SOL     OW 2453   4.040   2.279   3.916
  205SOL    HW1 2454   4.002   2.344   3.858
  205SOL    HW2 2455   3.996   2.197   3.893
  206SOL     OW 2456  14.500  10.707  10.565
  206SOL    HW1 2457  14.525  10.628  10.518
  206SOL    HW2 2458  14.579  10.731  10.615
  207SOL     OW 2459   7.052   9.701   8.864
  207SOL    HW1 2460   6.996   9.628   8.837
  207SOL    HW2 2461   7.104   9.666   8.936
  208SOL     OW 2462   0.588  11.230  13.394
  208SOL    HW1 2463   0.612  11.202  13.482
  208SOL    HW2 2464   0.525  11.164  13.364
  209SOL     OW 2465   1.023   7.664   0.426
  209SOL    HW1 2466   0.976   7.613   0.359
  209SOL    HW2 2467   1.077   7.725   0.377
  210SOL     OW 2468   9.465   1.584   3.419
  210SOL    HW1 2469   9.407   1.510   3.400
  210SOL    HW2 2470   9.421   1.632   3.489
  211SOL     OW 2471   6.333   8.888   5.928
  211SOL    HW1 2472   6.267   8.848   5.984
  211SOL    HW2 2473   6.283   8.932   5.859
  212SOL     OW 2474  10.397   1.277   1.805
  212SOL    HW1 2475  10.332   1.265   1.735
  212SOL    HW2 2476  10.358   1.342   1.863
  213SOL     OW 2477  12.405   9.187   6.369
  213SOL    HW1 2478  12.345   9.260   6.351
  213SOL    HW2 2479  12.433   9.201   6.459
  214SOL     OW 2480   3.419   3.098   0.802
  214SOL    HW1 2481   3.470   3.179   0.809
  214SOL    HW2 2482   3.484   3.030   0.789
  215SOL     OW 2483   3.520   9.822  10.306
  215SOL    HW1 2484   3.599   9.877  10.309
  215SOL    HW2 2485   3.452   9.881  10.274
  216SOL     OW 2486   3.955  14.422   2.769
  216SOL    HW1 2487   4.034  14.390   2.813
  216SOL    HW2 2488   3.920  14.489   2.828
  217SOL     OW 2489   4.842   8.348   3.389
  217SOL    HW1 2490   4.794   8.364   3.470
  217SOL    HW2 2491   4.850   8.434   3.348
  218SOL     OW 2492   9.099  11.636  11.682
  218SOL    HW1 2493   9.030  11.682  11.633
  218SOL    HW2 2494   9.114  11.556  11.631
  219SOL     OW 2495  10.028   9.107  11.807
  219SOL    HW1 2496  10.042   9.195  11.841
  219SOL    HW2 2497   9.963   9.068  11.866
  220SOL     OW 2498  13.197   8.433  14.088
  220SOL    HW1 2499  13.172   8.358  14.034
  220SOL    HW2 2500  13.163   8.509  14.041
  221SOL     OW 2501  12.424   6.612   8.509
  221SOL    HW1 2502  12.426   6.704   8.535
  221SOL    HW2 2503  12.515   6.591   8.490
  222SOL     OW 2504   2.316   0.494   6.822
  222SOL    HW1 2505   2.383   0.437   6.861
  222SOL    HW2 2506   2.306   0.461   6.732
  223SOL     OW 2507  11.908  13.175  14.089
  223SOL    HW1 2508  11.919  13.265  14.120
  223SOL    HW2 2509  11.947  13.121  14.158
  224SOL     OW 2510   0.547   7.192   0.547
  224SOL    HW1 2511   0.495   7.147   0.481
  224SOL    HW2 2512   0.579   7.271   0.504
  225SOL     OW 2513   1.130  12.651   7.611
  225SOL    HW1 2514   1.181  12.730   7.594
  225SOL    HW2 2515   1.067  12.647   7.538
  226SOL     OW 2516   1.450   9.128  12.355
  226SOL    HW1 2517   1.431   9.092  12.442
  226SOL    HW2 2518   1.438   9.054  12.296
  227SOL     OW 2519   6.553   5.174   3.499
  227SOL    HW1 2520   6.588   5.208   3.417
  227SOL    HW2 2521   6.468   5.137   3.476
  228SOL     OW 2522   8.907   3.527  10.816
  228SOL    HW1 2523   8.818   3.502  10.838
  228SOL    HW2 2524   8.927   3.601  10.873
  229SOL     OW 2525  13.248   2.417  11.769
  229SOL    HW1 2526  13.244   2.421  11.673
  229SOL    HW2 2527  13.175   2.361  11.794
  230SOL     OW 2528  11.947   0.522   4.196
  230SOL    HW1 2529  11.938   0.478   4.281
  230SOL    HW2 2530  12.034   0.497   4.166
  231SOL     OW 2531   6.574  11.597   8.438
  231SOL    HW1 2532   6.505  11.537   8.408
  231SOL    HW2 2533   6.596  11.566   8.525
  232SOL     OW 2534   4.738   9.139  14.418
  232SOL    HW1 2535   4.759   9.232  14.408
  232SOL    HW2 2536   4.647   9.138  14.445
  233SOL     OW 2537   3.683  13.532   4.656
  233SOL    HW1 2538   3.635  13.461   4.698
  233SOL    HW2 2539   3.739  13.488   4.592
  234SOL     OW 2540   3.990   3.956  13.410
  234SOL    HW1 2541   3.935   4.025  13.446
  234SOL    HW2 2542   4.000   3.979  13.317
  235SOL     OW 2543  13.559   6.661   4.254
  235SOL    HW1 2544  13.581   6.576   4.291
  235SOL    HW2 2545  13.464   6.668   4.264
  236SOL     OW 2546   0.631   9.309   0.623
  236SOL    HW1 2547   0.693   9.379   0.644
  236SOL    HW2 2548   0.639   9.248   0.696
  237SOL     OW 2549   1.453  14.454   8.313
  237SOL    HW1 2550   1.509  14.518   8.268
  237SOL    HW2 2551   1.465  14.474   8.406
  238SOL     OW 2552   8.335  12.563   4.937
  238SOL    HW1 2553   8.427  12.584   4.922
  238SOL    HW2 2554   8.320  12.581   5.030
  239SOL     OW 2555   8.673  13.842  11.592
  239SOL    HW1 2556   8.699  13.789  11.517
  239SOL    HW2 2557   8.589  13.805  11.620
  240SOL     OW 2558   2.174   7.267  10.069
  240SOL    HW1 2559   2.088   7.248  10.031
  240SOL    HW2 2560   2.180   7.208  10.145
  241SOL     OW 2561  12.600   0.037   1.645
  241SOL    HW1 2562  12.505   0.041   1.655
  241SOL    HW2 2563  12.633   0.039   1.735
  242SOL     OW 2564   8.018   4.624   8.206
  242SOL    HW1 2565   8.085   4.629   8.274
  242SOL    HW2 2566   8.067   4.635   8.124
  243SOL     OW 2567   2.279  14.193  10.676
  243SOL    HW1 2568   2.240  14.147  10.750
  243SOL    HW2 2569   2.367  14.154  10.668
  244SOL     OW 2570   2.298   6.308  11.037
  244SOL    HW1 2571   2.213   6.301  10.993
  244SOL    HW2 2572   2.361   6.321  10.966
  245SOL     OW 2573   9.152   9.451   5.508
  245SOL    HW1 2574   9.078   9.496   5.548
  245SOL    HW2 2575   9.148   9.362   5.544
  246SOL     OW 2576  13.427  10.980   4.498
  246SOL    HW1 2577  13.333  10.960   4.501
  246SOL    HW2 2578  13.462  10.944   4.580
  247SOL     OW 2579   8.005   7.899  10.924
  247SOL    HW1 2580   8.026   7.967  10.988
  247SOL    HW2 2581   7.911   7.884  10.935
  248SOL     OW 2582   2.998   5.320  14.158
  248SOL    HW1 2583   3.013   5.371  14.079
  248SOL    HW2 2584   3.079   5.271  14.172
  249SOL     OW 2585   0.518   1.940  11.417
  249SOL    HW1 2586   0.575   1.890  11.358
  249SOL    HW2 2587   0.433   1.940  11.375
  250SOL     OW 2588   6.783   6.538   0.784
  250SOL    HW1 2589   6.791   6.621   0.738
  250SOL    HW2 2590   6.741   6.479   0.720
  251SOL     OW 2591   2.116  11.171   8.488
  251SOL    HW1 2592   2.136  11.189   8.396
  251SOL    HW2 2593   2.174  11.098   8.512
  252SOL     OW 2594  13.990  13.943   4.437
  252SOL    HW1 2595  13.960  13.871   4.383
  252SOL    HW2 2596  13.928  13.947   4.509
  253SOL     OW 2597   4.110   0.578   4.275
  253SOL    HW1 2598   4.069   0.586   4.189
  253SOL    HW2 2599   4.091   0.660   4.319
  254SOL     OW 2600  12.043  11.295   2.598
  254SOL    HW1 2601  11.985  11.222   2.577
  254SOL    HW2 2602  12.005  11.370   2.551
  255SOL     OW 2603   6.112   7.959   2.818
  255SOL    HW1 2604   6.023   7.978   2.847
  255SOL    HW2 2605   6.142   7.890   2.878
  256SOL     OW 2606   4.448   0.039   6.777
  256SOL    HW1 2607   4.417  14.823   6.768
  256SOL    HW2 2608   4.440   0.076   6.688
  257SOL     OW 2609   1.540   2.183   1.105
  257SOL    HW1 2610   1.492   2.117   1.056
  257SOL    HW2 2611   1.612   2.209   1.047
  258SOL     OW 2612   6.328  12.459  11.517
  258SOL    HW1 2613   6.254  12.404  11.494
  258SOL    HW2 2614   6.400  12.398  11.533
  259SOL     OW 2615  11.951   7.933  13.509
  259SOL    HW1 2616  12.015   7.863  13.499
  259SOL    HW2 2617  11.987   8.005  13.457
  260SOL     OW 2618   0.294   3.196   6.880
  260SOL    HW1 2619   0.210   3.227   6.912
  260SOL    HW2 2620   0.307   3.112   6.925
  261SOL     OW 2621  12.557   4.453   3.126
  261SOL    HW1 2622  12.604   4.531   3.097
  261SOL    HW2 2623  12.555   4.460   3.221
  262SOL     OW 2624   6.096   8.515   7.873
  262SOL    HW1 2625   6.109   8.459   7.796
  262SOL    HW2 2626   6.011   8.556   7.858
  263SOL     OW 2627  11.777   5.359   3.845
  263SOL    HW1 2628  11.785   5.450   3.875
  263SOL    HW2 2629  11.748   5.367   3.754
  264SOL     OW 2630   3.998   9.687   4.249
  264SOL    HW1 2631   3.925   9.662   4.192
  264SOL    HW2 2632   4.041   9.758   4.202
  265SOL     OW 2633  11.539   2.785   4.228
  265SOL    HW1 2634  11.448   2.758   4.223
  265SOL    HW2 2635  11.547   2.855   4.164
  266SOL     OW 2636  12.724  10.652  14.360
  266SOL    HW1 2637  12.715  10.557  14.354
  266SOL    HW2 2638  12.814  10.666  14.389
  267SOL     OW 2639  10.805  12.013   0.332
  267SOL    HW1 2640  10.899  11.994   0.330
  267SOL    HW2 2641  10.784  12.025   0.424
  268SOL     OW 2642   8.864   0.346  10.683
  268SOL    HW1 2643   8.833   0.434  10.707
  268SOL    HW2 2644   8.784   0.294  10.674
  269SOL     OW 2645  13.775   0.052   4.178
  269SOL    HW1 2646  13.838   0.113   4.139
  269SOL    HW2 2647  13.747  14.871   4.105
  270SOL     OW 2648   0.412  11.246   5.221
  270SOL    HW1 2649   0.395  11.320   5.279
  270SOL    HW2 2650   0.326  11.220   5.189
  271SOL     OW 2651   6.614   4.700  14.214
  271SOL    HW1 2652   6.642   4.791  14.202
  271SOL    HW2 2653   6.691   4.655  14.247
  272SOL     OW 2654  10.530   6.402   0.183
  272SOL    HW1 2655  10.607   6.358   0.219
  272SOL    HW2 2656  10.457   6.374   0.239
  273SOL     OW 2657  11.442   9.078   2.141
  273SOL    HW1 2658  11.349   9.087   2.118
  273SOL    HW2 2659  11.482   9.157   2.106
  274SOL     OW 2660   4.410   9.918  13.279
  274SOL    HW1 2661   4.387   9.946  13.190
  274SOL    HW2 2662   4.504   9.900  13.275
  275SOL     OW 2663  12.569  11.454  10.592
  275SOL    HW1 2664  12.547  11.512  10.519
  275SOL    HW2 2665  12.498  11.389  10.593
  276SOL     OW 2666   1.630  10.387  14.045
  276SOL    HW1 2667   1.587  10.418  13.965
  276SOL    HW2 2668   1.717  10.427  14.042
  277SOL     OW 2669  14.719   5.395  14.096
  277SOL    HW1 2670  14.765   5.479  14.096
  277SOL    HW2 2671  14.788   5.330  14.106
  278SOL     OW 2672   5.961  14.430   8.193
  278SOL    HW1 2673   5.871  14.411   8.219
  278SOL    HW2 2674   5.964  14.408   8.100
  279SOL     OW 2675  12.843   2.786  14.626
  279SOL    HW1 2676  12.772   2.790  14.561
  279SOL    HW2 2677  12.801   2.749  14.704
  280SOL     OW 2678  10.390   8.014  13.844
  280SOL    HW1 2679  10.355   7.992  13.930
  280SOL    HW2 2680  10.314   8.015  13.786
  281SOL     OW 2681   3.838  11.901  12.850
  281SOL    HW1 2682   3.762  11.849  12.874
  281SOL    HW2 2683   3.892  11.903  12.929
  282SOL     OW 2684   3.754  13.037   9.752
  282SOL    HW1 2685   3.837  13.082   9.740
  282SOL    HW2 2686   3.750  13.018   9.846
  283SOL     OW 2687   1.207  10.909  11.216
  283SOL    HW1 2688   1.200  10.994  11.259
  283SOL    HW2 2689   1.168  10.848  11.278
  284SOL     OW 2690   1.298   9.664   2.437
  284SOL    HW1 2691   1.328   9.748   2.472
  284SOL    HW2 2692   1.316   9.601   2.507
  285SOL     OW 2693  13.512   9.386   8.786
  285SOL    HW1 2694  13.559   9.403   8.867
  285SOL    HW2 2695  13.575   9.405   8.717
  286SOL     OW 2696   1.655   1.502   0.181
  286SOL    HW1 2697   1.616   1.423   0.219
  286SOL    HW2 2698   1.740   1.474   0.148
  287SOL     OW 2699   3.720   9.474   8.743
  287SOL    HW1 2700   3.758   9.389   8.722
  287SOL    HW2 2701   3.681   9.463   8.829
  288SOL     OW 2702   7.860   1.853  11.081
  288SOL    HW1 2703   7.768   1.869  11.065
  288SOL    HW2 2704   7.864   1.763  11.112
  289SOL     OW 2705   1.473   8.642   2.945
  289SOL    HW1 2706   1.528   8.563   2.939
  289SOL    HW2 2707   1.392   8.612   2.985
  290SOL     OW 2708  13.029   4.259   7.734
  290SOL    HW1 2709  12.972   4.210   7.675
  290SOL    HW2 2710  13.093   4.195   7.766
  291SOL     OW 2711   7.478   1.670   6.392
  291SOL    HW1 2712   7.511   1.736   6.332
  291SOL    HW2 2713   7.401   1.711   6.432
  292SOL     OW 2714  14.837  14.601   5.251
  292SOL    HW1 2715  14.837  14.692   5.222
  292SOL    HW2 2716   0.054  14.581   5.270
  293SOL     OW 2717  10.855   7.413   2.374
  293SOL    HW1 2718  10.831   7.477   2.307
  293SOL    HW2 2719  10.854   7.329   2.327
  294SOL     OW 2720   3.586   6.382  14.289
  294SOL    HW1 2721   3.604   6.317  14.357
  294SOL    HW2 2722   3.584   6.465  14.336
  295SOL     OW 2723  11.653   9.844  12.754
  295SOL    HW1 2724  11.718   9.876  12.817
  295SOL    HW2 2725  11.649   9.750  12.769
  296SOL     OW 2726  12.218   6.950  13.746
  296SOL    HW1 2727  12.268   7.031  13.761
  296SOL    HW2 2728  12.134   6.966  13.789
  297SOL     OW 2729   9.883  14.824  14.679
  297SOL    HW1 2730   9.938   0.017  14.719
  297SOL    HW2 2731   9.822  14.799  14.748
  298SOL     OW 2732  10.455  10.746   4.691
  298SOL    HW1 2733  10.545  10.718   4.670
  298SOL    HW2 2734  10.401  10.669   4.672
  299SOL     OW 2735   1.467  10.882   7.475
  299SOL    HW1 2736   1.520  10.947   7.520
  299SOL    HW2 2737   1.386  10.877   7.526
  300SOL     OW 2738  12.095   5.322   8.100
  300SOL    HW1 2739  12.154   5.367   8.039
  300SOL    HW2 2740  12.094   5.376   8.178
  301SOL     OW 2741  14.161   0.744  13.026
  301SOL    HW1 2742  14.241   0.691  13.019
  301SOL    HW2 2743  14.136   0.736  13.118
  302SOL     OW 2744   5.034  13.805  14.856
  302SOL    HW1 2745   4.977  13.874   0.016
  302SOL    HW2 2746   4.978  13.752  14.799
  303SOL     OW 2747   5.068   5.580   9.751
  303SOL    HW1 2748   5.102   5.669   9.760
  303SOL    HW2 2749   5.089   5.538   9.834
  304SOL     OW 2750   6.002   8.952  10.380
  304SOL    HW1 2751   6.097   8.965  10.373
  304SOL    HW2 2752   5.970   9.031  10.423
  305SOL     OW 2753   2.768  10.222  14.502
  305SOL    HW1 2754   2.818  10.275  14.441
  305SOL    HW2 2755   2.777  10.132  14.470
  306SOL     OW 2756   1.840   7.835  13.820
  306SOL    HW1 2757   1.851   7.885  13.900
  306SOL    HW2 2758   1.921   7.785  13.812
  307SOL     OW 2759   5.784  13.867   5.263
  307SOL    HW1 2760   5.851  13.868   5.195
  307SOL    HW2 2761   5.818  13.807   5.330
  308SOL     OW 2762   4.232  10.467   9.043
  308SOL    HW1 2763   4.219  10.380   9.006
  308SOL    HW2 2764   4.301  10.456   9.109
  309SOL     OW 2765   9.933   3.658   7.964
  309SOL    HW1 2766   9.987   3.620   7.895
  309SOL    HW2 2767   9.917   3.585   8.024
  310SOL     OW 2768  11.911   7.741  13.902
  310SOL    HW1 2769  11.983   7.800  13.879
  310SOL    HW2 2770  11.887   7.767  13.991
  311SOL     OW 2771   0.054  10.273   2.943
  311SOL    HW1 2772   0.020  10.184   2.959
  311SOL    HW2 2773   0.005  10.329   3.003
  312SOL     OW 2774   7.868   0.560  12.030
  312SOL    HW1 2775   7.801   0.566  12.097
  312SOL    HW2 2776   7.822   0.574  11.947
  313SOL     OW 2777  11.214   5.694   9.000
  313SOL    HW1 2778  11.183   5.784   9.002
  313SOL    HW2 2779  11.135   5.641   9.010
  314SOL     OW 2780   3.177   9.733   0.037
  314SOL    HW1 2781   3.112   9.777  14.857
  314SOL    HW2 2782   3.225   9.803   0.080
  315SOL     OW 2783   3.525   2.497   8.379
  315SOL    HW1 2784   3.614   2.532   8.383
  315SOL    HW2 2785   3.527   2.437   8.305
  316SOL     OW 2786   5.836   6.977  11.606
  316SOL    HW1 2787   5.866   7.017  11.526
  316SOL    HW2 2788   5.860   7.038  11.675
  317SOL     OW 2789   8.430  12.643   8.997
  317SOL    HW1 2790   8.435  12.731   9.036
  317SOL    HW2 2791   8.445  12.658   8.904
  318SOL     OW 2792   6.649  12.726   9.218
  318SOL    HW1 2793   6.576  12.719   9.279
  318SOL    HW2 2794   6.626  12.667   9.146
  319SOL     OW 2795   5.601   3.754   7.044
  319SOL    HW1 2796   5.664   3.802   6.990
  319SOL    HW2 2797   5.583   3.674   6.994
  320SOL     OW 2798  12.861   7.628   2.281
  320SOL    HW1 2799  12.909   7.569   2.340
  320SOL    HW2 2800  12.871   7.715   2.320
  321SOL     OW 2801  11.348  11.509  11.753
  321SOL    HW1 2802  11.421  11.451  11.729
  321SOL    HW2 2803  11.281  11.450  11.787
  322SOL     OW 2804  12.520  11.460   9.791
  322SOL    HW1 2805  12.472  11.412   9.858
  322SOL    HW2 2806  12.595  11.404   9.770
  323SOL     OW 2807   0.227   3.771   3.876
  323SOL    HW1 2808   0.293   3.840   3.883
  323SOL    HW2 2809   0.187   3.785   3.790
  324SOL     OW 2810   9.442   7.347   5.904
  324SOL    HW1 2811   9.530   7.378   5.926
  324SOL    HW2 2812   9.447   7.323   5.812
  325SOL     OW 2813   1.092   2.299  11.381
  325SOL    HW1 2814   1.023   2.357  11.416
  325SOL    HW2 2815   1.088   2.312  11.287
  326SOL     OW 2816  14.225   6.987  13.994
  326SOL    HW1 2817  14.135   6.961  14.012
  326SOL    HW2 2818  14.246   6.946  13.910
  327SOL     OW 2819   4.505   4.615   7.684
  327SOL    HW1 2820   4.564   4.646   7.615
  327SOL    HW2 2821   4.448   4.690   7.701
  328SOL     OW 2822   6.201   3.952   0.679
  328SOL    HW1 2823   6.211   3.961   0.584
  328SOL    HW2 2824   6.196   4.042   0.711
  329SOL     OW 2825   5.977  11.464   4.163
  329SOL    HW1 2826   5.953  11.392   4.105
  329SOL    HW2 2827   6.026  11.525   4.107
  330SOL     OW 2828   1.824   6.569   6.558
  330SOL    HW1 2829   1.734   6.589   6.583
  330SOL    HW2 2830   1.817   6.506   6.487
  331SOL     OW 2831  12.371   4.604   6.194
  331SOL    HW1 2832  12.397   4.516   6.220
  331SOL    HW2 2833  12.302   4.591   6.128
  332SOL     OW 2834   9.417  14.159   9.600
  332SOL    HW1 2835   9.406  14.210   9.680
  332SOL    HW2 2836   9.512  14.152   9.589
  333SOL     OW 2837   8.812   5.204   9.352
  333SOL    HW1 2838   8.797   5.112   9.329
  333SOL    HW2 2839   8.859   5.240   9.278
  334SOL     OW 2840  12.851   3.561   8.148
  334SOL    HW1 2841  12.800   3.513   8.214
  334SOL    HW2 2842  12.786   3.595   8.087
  335SOL     OW 2843  10.442   5.853   2.092
  335SOL    HW1 2844  10.501   5.849   2.017
  335SOL    HW2 2845  10.396   5.937   2.082
  336SOL     OW 2846   1.324   4.324   5.113
  336SOL    HW1 2847   1.357   4.328   5.023
  336SOL    HW2 2848   1.274   4.405   5.123
  337SOL     OW 2849   9.304  10.180  14.595
  337SOL    HW1 2850   9.385  10.149  14.554
  337SOL    HW2 2851   9.321  10.272  14.615
  338SOL     OW 2852   5.465   8.983   8.656
  338SOL    HW1 2853   5.427   9.037   8.725
  338SOL    HW2 2854   5.443   8.893   8.680
  339SOL     OW 2855  14.311   6.452  10.066
  339SOL    HW1 2856  14.226   6.424  10.100
  339SOL    HW2 2857  14.370   6.378  10.085
  340SOL     OW 2858   0.063   5.144   1.271
  340SOL    HW1 2859   0.113   5.116   1.347
  340SOL    HW2 2860   0.053   5.066   1.217
  341SOL     OW 2861   2.044   9.884   4.597
  341SOL    HW1 2862   2.139   9.894   4.599
  341SOL    HW2 2863   2.026   9.812   4.657
  342SOL     OW 2864  10.104  10.220   2.702
  342SOL    HW1 2865  10.104  10.254   2.612
  342SOL    HW2 2866  10.012  10.226   2.729
  343SOL     OW 2867  11.214   6.723   3.312
  343SOL    HW1 2868  11.291   6.752   3.263
  343SOL    HW2 2869  11.147   6.789   3.293
  344SOL     OW 2870   1.655  10.088   8.578
  344SOL    HW1 2871   1.637  10.063   8.669
  344SOL    HW2 2872   1.657  10.005   8.530
  345SOL     OW 2873   8.182  10.642   9.338
  345SOL    HW1 2874   8.130  10.572   9.300
  345SOL    HW2 2875   8.214  10.692   9.263
  346SOL     OW 2876  10.161   2.683  13.762
  346SOL    HW1 2877  10.237   2.705  13.815
  346SOL    HW2 2878  10.169   2.589  13.746
  347SOL     OW 2879   6.127   9.018   3.890
  347SOL    HW1 2880   6.058   8.958   3.918
  347SOL    HW2 2881   6.149   9.067   3.970
  348SOL     OW 2882   6.305   4.702   6.497
  348SOL    HW1 2883   6.239   4.689   6.564
  348SOL    HW2 2884   6.385   4.724   6.545
  349SOL     OW 2885   7.949   3.698   2.859
  349SOL    HW1 2886   7.896   3.622   2.884
  349SOL    HW2 2887   7.990   3.726   2.940
  350SOL     OW 2888   1.907   6.696   1.517
  350SOL    HW1 2889   1.971   6.767   1.514
  350SOL    HW2 2890   1.893   6.672   1.426
  351SOL     OW 2891   4.624  11.104  13.539
  351SOL    HW1 2892   4.635  11.015  13.572
  351SOL    HW2 2893   4.653  11.100  13.448
  352SOL     OW 2894  12.355   7.390   9.904
  352SOL    HW1 2895  12.347   7.349   9.818
  352SOL    HW2 2896  12.446   7.419   9.908
  353SOL     OW 2897   5.904  11.288   9.307
  353SOL    HW1 2898   5.853  11.341   9.369
  353SOL    HW2 2899   5.868  11.311   9.221
  354SOL     OW 2900  13.732   3.332   2.746
  354SOL    HW1 2901  13.751   3.287   2.663
  354SOL    HW2 2902  13.662   3.280   2.786
  355SOL     OW 2903   9.635   7.565  14.666
  355SOL    HW1 2904   9.717   7.519  14.650
  355SOL    HW2 2905   9.581   7.503  14.715
  356SOL     OW 2906  10.513  11.545   2.695
  356SOL    HW1 2907  10.492  11.498   2.615
  356SOL    HW2 2908  10.429  11.558   2.738
  357SOL     OW 2909   4.902   4.270   9.850
  357SOL    HW1 2910   4.846   4.213   9.797
  357SOL    HW2 2911   4.866   4.358   9.836
  358SOL     OW 2912  10.043  14.743   3.402
  358SOL    HW1 2913  10.029  14.704   3.315
  358SOL    HW2 2914  10.031  14.837   3.388
  359SOL     OW 2915   7.947  11.653   0.214
  359SOL    HW1 2916   7.918  11.607   0.292
  359SOL    HW2 2917   8.039  11.672   0.231
  360SOL     OW 2918   7.060   6.265   0.671
  360SOL    HW1 2919   7.108   6.301   0.746
  360SOL    HW2 2920   7.112   6.190   0.643
  361SOL     OW 2921  13.645   6.178  13.794
  361SOL    HW1 2922  13.677   6.225  13.717
  361SOL    HW2 2923  13.577   6.235  13.830
  362SOL     OW 2924  13.273   9.475   5.685
  362SOL    HW1 2925  13.324   9.487   5.765
  362SOL    HW2 2926  13.257   9.564   5.653
  363SOL     OW 2927   4.419   5.982   1.880
  363SOL    HW1 2928   4.352   6.031   1.927
  363SOL    HW2 2929   4.467   5.936   1.949
  364SOL     OW 2930  12.686   3.088  10.465
  364SOL    HW1 2931  12.614   3.042  10.420
  364SOL    HW2 2932  12.748   3.109  10.395
  365SOL     OW 2933   6.297  11.358   0.038
  365SOL    HW1 2934   6.202  11.346   0.030
  365SOL    HW2 2935   6.313  11.443  14.872
  366SOL     OW 2936   1.893   6.572   8.911
  366SOL    HW1 2937   1.822   6.634   8.927
  366SOL    HW2 2938   1.963   6.624   8.872
  367SOL     OW 2939   8.235   6.743   1.213
  367SOL    HW1 2940   8.313   6.765   1.264
  367SOL    HW2 2941   8.264   6.749   1.122
  368SOL     OW 2942   9.394   8.741  12.741
  368SOL    HW1 2943   9.399   8.645  12.747
  368SOL    HW2 2944   9.421   8.772  12.828
  369SOL     OW 2945  10.792  13.655   3.368
  369SOL    HW1 2946  10.773  13.747   3.383
  369SOL    HW2 2947  10.803  13.647   3.273
  370SOL     OW 2948  11.159   9.969   8.195
  370SOL    HW1 2949  11.200   9.885   8.177
  370SOL    HW2 2950  11.065   9.951   8.190
  371SOL     OW 2951  13.631  10.337   2.315
  371SOL    HW1 2952  13.536  10.338   2.330
  371SOL    HW2 2953  13.640  10.317   2.222
  372SOL     OW 2954   9.410   3.857   9.350
  372SOL    HW1 2955   9.445   3.931   9.301
  372SOL    HW2 2956   9.315   3.867   9.345
  373SOL     OW 2957   8.858  14.275   0.737
  373SOL    HW1 2958   8.939  14.321   0.718
  373SOL    HW2 2959   8.826  14.245   0.652
  374SOL     OW 2960  11.007  10.597   8.573
  374SOL    HW1 2961  11.057  10.594   8.655
  374SOL    HW2 2962  11.022  10.512   8.532
  375SOL     OW 2963  12.141  14.663   5.058
  375SOL    HW1 2964  12.137  14.743   5.111
  375SOL    HW2 2965  12.051  14.650   5.027
  376SOL     OW 2966   6.679   4.012   9.667
  376SOL    HW1 2967   6.737   3.938   9.653
  376SOL    HW2 2968   6.620   3.984   9.737
  377SOL     OW 2969  11.462   9.008   8.368
  377SOL    HW1 2970  11.405   9.039   8.298
  377SOL    HW2 2971  11.431   8.919   8.387
  378SOL     OW 2972  13.470   2.654   7.548
  378SOL    HW1 2973  13.458   2.572   7.595
  378SOL    HW2 2974  13.382   2.687   7.533
  379SOL     OW 2975   3.588   9.548   1.573
  379SOL    HW1 2976   3.583   9.525   1.666
  379SOL    HW2 2977   3.646   9.624   1.570
  380SOL     OW 2978   4.573   1.496   0.362
  380SOL    HW1 2979   4.586   1.532   0.450
  380SOL    HW2 2980   4.510   1.556   0.322
  381SOL     OW 2981   8.856   7.324   3.535
  381SOL    HW1 2982   8.914   7.322   3.459
  381SOL    HW2 2983   8.908   7.365   3.604
  382SOL     OW 2984   5.128  13.915   6.232
  382SOL    HW1 2985   5.091  14.003   6.229
  382SOL    HW2 2986   5.076  13.866   6.168
  383SOL     OW 2987   8.147   0.392   2.778
  383SOL    HW1 2988   8.099   0.431   2.705
  383SOL    HW2 2989   8.124   0.299   2.775
  384SOL     OW 2990  13.532   1.926  11.047
  384SOL    HW1 2991  13.560   1.999  11.102
  384SOL    HW2 2992  13.488   1.967  10.973
  385SOL     OW 2993   0.879   4.536  13.473
  385SOL    HW1 2994   0.804   4.500  13.427
  385SOL    HW2 2995   0.932   4.577  13.405
  386SOL     OW 2996  13.127  10.260  12.306
  386SOL    HW1 2997  13.210  10.266  12.355
  386SOL    HW2 2998  13.098  10.351  12.298
  387SOL     OW 2999   1.714   3.623   4.159
  387SOL    HW1 3000   1.712   3.615   4.064
  387SOL    HW2 3001   1.634   3.672   4.181
  388SOL     OW 3002   8.541   1.241   9.966
  388SOL    HW1 3003   8.588   1.296  10.029
  388SOL    HW2 3004   8.451   1.240   9.997
  389SOL     OW 3005   7.432   0.437   2.254
  389SOL    HW1 3006   7.479   0.507   2.300
  389SOL    HW2 3007   7.340   0.453   2.274
  390SOL     OW 3008  10.303  10.737  10.627
  390SOL    HW1 3009  10.345  10.818  10.598
  390SOL    HW2 3010  10.333  10.725  10.717
  391SOL     OW 3011   7.934  13.264  12.184
  391SOL    HW1 3012   7.938  13.358  12.167
  391SOL    HW2 3013   7.840  13.246  12.191
  392SOL     OW 3014   5.242  13.808  11.154
  392SOL    HW1 3015   5.183  13.882  11.171
  392SOL    HW2 3016   5.213  13.740  11.214
  393SOL     OW 3017   7.130   3.550   3.813
  393SOL    HW1 3018   7.201   3.532   3.875
  393SOL    HW2 3019   7.059   3.493   3.841
  394SOL     OW 3020  11.779   5.564  14.654
  394SOL    HW1 3021  11.704   5.548  14.711
  394SOL    HW2 3022  11.801   5.478  14.619
  395SOL     OW 3023  10.276   6.151   9.748
  395SOL    HW1 3024  10.213   6.197   9.693
  395SOL    HW2 3025  10.305   6.216   9.812
  396SOL     OW 3026  10.402  13.507  13.124
  396SOL    HW1 3027  10.363  13.495  13.211
  396SOL    HW2 3028  10.492  13.532  13.142
  397SOL     OW 3029   3.804   3.911   7.569
  397SOL    HW1 3030   3.793   3.868   7.485
  397SOL    HW2 3031   3.739   3.871   7.626
  398SOL     OW 3032   0.018   3.465   9.914
  398SOL    HW1 3033   0.105   3.434   9.889
  398SOL    HW2 3034   0.032   3.556   9.941
  399SOL     OW 3035  10.946   4.334   2.455
  399SOL    HW1 3036  10.986   4.261   2.503
  399SOL    HW2 3037  10.896   4.381   2.521
  400SOL     OW 3038   9.844  13.516   1.691
  400SOL    HW1 3039   9.789  13.569   1.633
  400SOL    HW2 3040   9.933  13.529   1.658
  401SOL     OW 3041   5.043   9.428   8.950
  401SOL    HW1 3042   4.968   9.425   9.009
  401SOL    HW2 3043   5.094   9.504   8.979
  402SOL     OW 3044   9.881   8.281   5.769
  402SOL    HW1 3045   9.877   8.192   5.733
  402SOL    HW2 3046   9.970   8.288   5.805
  403SOL     OW 3047  13.739   1.047   7.791
  403SOL    HW1 3048  13.689   1.084   7.864
  403SOL    HW2 3049  13.674   1.036   7.721
  404SOL     OW 3050   2.858  13.790  11.657
  404SOL    HW1 3051   2.824  13.753  11.738
  404SOL    HW2 3052   2.889  13.713  11.608
  405SOL     OW 3053   9.424   9.150   1.979
  405SOL    HW1 3054   9.422   9.074   1.920
  405SOL    HW2 3055   9.386   9.221   1.928
  406SOL     OW 3056   0.396   4.666   3.160
  406SOL    HW1 3057   0.351   4.662   3.075
  406SOL    HW2 3058   0.445   4.748   3.157
  407SOL     OW 3059  13.681   5.076   7.879
  407SOL    HW1 3060  13.724   5.150   7.922
  407SOL    HW2 3061  13.642   5.026   7.950
  408SOL     OW 3062   3.507  14.038  12.998
  408SOL    HW1 3063   3.483  14.131  12.993
  408SOL    HW2 3064   3.434  13.996  13.043
  409SOL     OW 3065   8.330   1.295   9.341
  409SOL    HW1 3066   8.315   1.212   9.296
  409SOL    HW2 3067   8.249   1.344   9.327
  410SOL     OW 3068  11.275   8.771  14.304
  410SOL    HW1 3069  11.269   8.856  14.347
  410SOL    HW2 3070  11.201   8.722  14.338
  411SOL     OW 3071  10.998  12.399  13.985
  411SOL    HW1 3072  10.931  12.433  14.044
  411SOL    HW2 3073  10.950  12.371  13.907
  412SOL     OW 3074   4.426   3.930   7.047
  412SOL    HW1 3075   4.505   3.880   7.028
  412SOL    HW2 3076   4.457   4.018   7.065
  413SOL     OW 3077   0.641   4.531   8.987
  413SOL    HW1 3078   0.629   4.578   9.069
  413SOL    HW2 3079   0.584   4.575   8.925
  414SOL     OW 3080  14.161   1.176   4.585
  414SOL    HW1 3081  14.186   1.261   4.550
  414SOL    HW2 3082  14.225   1.157   4.653
  415SOL     OW 3083   2.670  11.881  11.108
  415SOL    HW1 3084   2.633  11.892  11.021
  415SOL    HW2 3085   2.721  11.961  11.123
  416SOL     OW 3086  13.944   1.301  10.488
  416SOL    HW1 3087  13.853   1.298  10.459
  416SOL    HW2 3088  13.940   1.281  10.581
  417SOL     OW 3089   6.955   3.130   6.783
  417SOL    HW1 3090   7.033   3.110   6.732
  417SOL    HW2 3091   6.884   3.133   6.719
  418SOL     OW 3092   7.359  11.498   4.159
  418SOL    HW1 3093   7.409  11.417   4.151
  418SOL    HW2 3094   7.424  11.568   4.159
  419SOL     OW 3095   0.485  12.318   2.915
  419SOL    HW1 3096   0.472  12.363   2.831
  419SOL    HW2 3097   0.488  12.389   2.980
  420SOL     OW 3098   8.791   2.758   2.540
  420SOL    HW1 3099   8.820   2.672   2.509
  420SOL    HW2 3100   8.830   2.820   2.479
  421SOL     OW 3101   9.649  14.020   0.382
  421SOL    HW1 3102   9.726  14.073   0.400
  421SOL    HW2 3103   9.635  13.969   0.462
  422SOL     OW 3104   9.922  13.022   0.563
  422SOL    HW1 3105   9.923  13.094   0.627
  422SOL    HW2 3106  10.014  12.997   0.554
  423SOL     OW 3107   4.218   7.946  14.717
  423SOL    HW1 3108   4.156   7.901  14.659
  423SOL    HW2 3109   4.265   8.007  14.661
  424SOL     OW 3110   6.263   6.704   2.276
  424SOL    HW1 3111   6.273   6.750   2.360
  424SOL    HW2 3112   6.314   6.756   2.214
  425SOL     OW 3113   9.288   4.828  13.367
  425SOL    HW1 3114   9.292   4.873  13.451
  425SOL    HW2 3115   9.198   4.797  13.360
  426SOL     OW 3116   9.163  13.807   4.566
  426SOL    HW1 3117   9.115  13.857   4.632
  426SOL    HW2 3118   9.120  13.721   4.565
  427SOL     OW 3119   5.541   3.030   2.917
  427SOL    HW1 3120   5.488   2.971   2.863
  427SOL    HW2 3121   5.626   2.987   2.925
  428SOL     OW 3122  11.832   1.719  14.570
  428SOL    HW1 3123  11.857   1.771  14.493
  428SOL    HW2 3124  11.818   1.784  14.639
  429SOL     OW 3125  11.661   6.704   1.189
  429SOL    HW1 3126  11.657   6.628   1.131
  429SOL    HW2 3127  11.752   6.732   1.187
  430SOL     OW 3128   5.627  10.140  10.362
  430SOL    HW1 3129   5.657  10.071  10.421
  430SOL    HW2 3130   5.675  10.122  10.280
  431SOL     OW 3131   8.104   0.836   4.816
  431SOL    HW1 3132   8.040   0.859   4.749
  431SOL    HW2 3133   8.163   0.911   4.820
  432SOL     OW 3134   1.953   8.150   3.427
  432SOL    HW1 3135   2.015   8.221   3.412
  432SOL    HW2 3136   1.980   8.112   3.511
  433SOL     OW 3137  11.787   0.999   3.349
  433SOL    HW1 3138  11.804   1.015   3.441
  433SOL    HW2 3139  11.691   0.999   3.341
  434SOL     OW 3140   6.520   2.042  11.460
  434SOL    HW1 3141   6.492   2.000  11.378
  434SOL    HW2 3142   6.610   2.069  11.443
  435SOL     OW 3143  11.081   8.340  12.756
  435SOL    HW1 3144  11.104   8.378  12.672
  435SOL    HW2 3145  11.162   8.297  12.786
  436SOL     OW 3146   0.978   1.660   4.620
  436SOL    HW1 3147   1.002   1.607   4.544
  436SOL    HW2 3148   1.061   1.697   4.650
  437SOL     OW 3149  10.082   4.366   5.279
  437SOL    HW1 3150  10.169   4.399   5.255
  437SOL    HW2 3151  10.087   4.272   5.260
  438SOL     OW 3152   1.996  14.053   6.456
  438SOL    HW1 3153   2.037  13.998   6.523
  438SOL    HW2 3154   2.067  14.110   6.426
  439SOL     OW 3155   9.182   7.683   0.784
  439SOL    HW1 3156   9.118   7.617   0.759
  439SOL    HW2 3157   9.145   7.766   0.754
  440SOL     OW 3158   9.881   4.118  11.380
  440SOL    HW1 3159   9.903   4.100  11.471
  440SOL    HW2 3160   9.928   4.198  11.359
  441SOL     OW 3161  13.042   9.878  10.865
  441SOL    HW1 3162  13.071   9.808  10.924
  441SOL    HW2 3163  12.960   9.844  10.827
  442SOL     OW 3164   5.533   6.039   9.967
  442SOL    HW1 3165   5.532   6.093   9.887
  442SOL    HW2 3166   5.593   5.967   9.947
  443SOL     OW 3167   4.420   9.627   5.321
  443SOL    HW1 3168   4.339   9.678   5.321
  443SOL    HW2 3169   4.490   9.692   5.330
  444SOL     OW 3170  12.430  10.017  10.719
  444SOL    HW1 3171  12.516   9.976  10.723
  444SOL    HW2 3172  12.425  10.054  10.631
  445SOL     OW 3173   6.112   7.079   7.571
  445SOL    HW1 3174   6.084   6.987   7.571
  445SOL    HW2 3175   6.039   7.127   7.609
  446SOL     OW 3176  12.996   5.212   1.909
  446SOL    HW1 3177  13.049   5.229   1.831
  446SOL    HW2 3178  13.024   5.278   1.972
  447SOL     OW 3179   5.467   5.169  10.334
  447SOL    HW1 3180   5.402   5.099  10.344
  447SOL    HW2 3181   5.510   5.150  10.251
  448SOL     OW 3182   6.837  10.800  12.882
  448SOL    HW1 3183   6.881  10.865  12.829
  448SOL    HW2 3184   6.743  10.814  12.865
  449SOL     OW 3185   7.478  11.873   8.616
  449SOL    HW1 3186   7.548  11.929   8.649
  449SOL    HW2 3187   7.522  11.793   8.588
  450SOL     OW 3188  12.205   9.482  14.436
  450SOL    HW1 3189  12.166   9.418  14.495
  450SOL    HW2 3190  12.131   9.530  14.400
  451SOL     OW 3191  11.546   8.701  13.693
  451SOL    HW1 3192  11.473   8.643  13.716
  451SOL    HW2 3193  11.610   8.687  13.763
  452SOL     OW 3194   3.501  14.232  10.209
  452SOL    HW1 3195   3.461  14.317  10.189
  452SOL    HW2 3196   3.499  14.227  10.304
  453SOL     OW 3197  11.667   8.245   9.896
  453SOL    HW1 3198  11.602   8.307   9.863
  453SOL    HW2 3199  11.624   8.204   9.972
  454SOL     OW 3200   3.704  14.264   0.172
  454SOL    HW1 3201   3.759  14.263   0.250
  454SOL    HW2 3202   3.684  14.172   0.155
  455SOL     OW 3203   1.030   0.621  10.171
  455SOL    HW1 3204   1.052   0.543  10.222
  455SOL    HW2 3205   1.077   0.692  10.214
  456SOL     OW 3206  14.440   9.144   6.095
  456SOL    HW1 3207  14.513   9.096   6.135
  456SOL    HW2 3208  14.434   9.225   6.146
  457SOL     OW 3209   8.192   0.612  12.408
  457SOL    HW1 3210   8.160   0.522  12.398
  457SOL    HW2 3211   8.191   0.628  12.503
  458SOL     OW 3212   4.666   1.698   9.313
  458SOL    HW1 3213   4.622   1.616   9.334
  458SOL    HW2 3214   4.640   1.758   9.383
  459SOL     OW 3215  12.841   4.397  14.603
  459SOL    HW1 3216  12.802   4.484  14.600
  459SOL    HW2 3217  12.880   4.386  14.516
  460SOL     OW 3218  12.947   1.075   9.126
  460SOL    HW1 3219  12.923   0.983   9.136
  460SOL    HW2 3220  13.025   1.074   9.071
  461SOL     OW 3221   6.977   7.694   3.382
  461SOL    HW1 3222   6.917   7.675   3.309
  461SOL    HW2 3223   6.928   7.755   3.437
  462SOL     OW 3224   8.040   5.810   7.392
  462SOL    HW1 3225   7.988   5.738   7.427
  462SOL    HW2 3226   8.034   5.878   7.459
  463SOL     OW 3227   6.725   9.101  14.757
  463SOL    HW1 3228   6.698   9.022  14.709
  463SOL    HW2 3229   6.668   9.103  14.834
  464SOL     OW 3230   5.379  11.821  13.241
  464SOL    HW1 3231   5.306  11.877  13.215
  464SOL    HW2 3232   5.377  11.748  13.179
  465SOL     OW 3233   8.176   0.246  10.561
  465SOL    HW1 3234   8.178   0.338  10.586
  465SOL    HW2 3235   8.128   0.245  10.478
  466SOL     OW 3236   1.587   4.481   8.694
  466SOL    HW1 3237   1.672   4.466   8.734
  466SOL    HW2 3238   1.538   4.400   8.710
  467SOL     OW 3239   4.892  14.313   1.451
  467SOL    HW1 3240   4.899  14.218   1.459
  467SOL    HW2 3241   4.927  14.347   1.533
  468SOL     OW 3242   5.229   7.697  14.170
  468SOL    HW1 3243   5.149   7.644  14.168
  468SOL    HW2 3244   5.204   7.779  14.127
  469SOL     OW 3245  11.068   4.454   6.808
  469SOL    HW1 3246  11.021   4.537   6.805
  469SOL    HW2 3247  11.119   4.458   6.889
  470SOL     OW 3248  13.849   2.324  14.641
  470SOL    HW1 3249  13.842   2.264  14.715
  470SOL    HW2 3250  13.809   2.405  14.673
  471SOL     OW 3251   1.134   5.601  12.136
  471SOL    HW1 3252   1.182   5.629  12.058
  471SOL    HW2 3253   1.194   5.621  12.209
  472SOL     OW 3254   0.162   9.967   4.791
  472SOL    HW1 3255   0.215  10.013   4.726
  472SOL    HW2 3256   0.074   9.966   4.754
  473SOL     OW 3257   1.123   9.921   4.197
  473SOL    HW1 3258   1.087   9.975   4.268
  473SOL    HW2 3259   1.068   9.943   4.121
  474SOL     OW 3260   3.649  12.627  13.988
  474SOL    HW1 3261   3.728  12.659  13.944
  474SOL    HW2 3262   3.578  12.645  13.926
  475SOL     OW 3263  14.301   8.809   6.580
  475SOL    HW1 3264  14.297   8.750   6.656
  475SOL    HW2 3265  14.378   8.779   6.531
  476SOL     OW 3266   8.530   1.597  13.162
  476SOL    HW1 3267   8.454   1.541  13.180
  476SOL    HW2 3268   8.499   1.686  13.182
  477SOL     OW 3269  10.769   5.053   3.175
  477SOL    HW1 3270  10.695   5.096   3.132
  477SOL    HW2 3271  10.843   5.112   3.159
  478SOL     OW 3272   8.877   9.205  12.226
  478SOL    HW1 3273   8.879   9.259  12.148
  478SOL    HW2 3274   8.968   9.180  12.241
  479SOL     OW 3275   8.984   3.157   4.681
  479SOL    HW1 3276   9.067   3.167   4.634
  479SOL    HW2 3277   9.009   3.153   4.773
  480SOL     OW 3278  11.658   9.476  10.846
  480SOL    HW1 3279  11.569   9.452  10.821
  480SOL    HW2 3280  11.705   9.393  10.851
  481SOL     OW 3281   0.283   5.308  14.230
  481SOL    HW1 3282   0.303   5.306  14.324
  481SOL    HW2 3283   0.369   5.301  14.187
  482SOL     OW 3284   9.146   3.733   8.709
  482SOL    HW1 3285   9.075   3.775   8.660
  482SOL    HW2 3286   9.109   3.719   8.796
  483SOL     OW 3287   3.483   6.456   6.896
  483SOL    HW1 3288   3.446   6.538   6.863
  483SOL    HW2 3289   3.407   6.399   6.908
  484SOL     OW 3290   0.784   0.655  12.351
  484SOL    HW1 3291   0.701   0.642  12.397
  484SOL    HW2 3292   0.769   0.733  12.297
  485SOL     OW 3293  11.828   1.630   0.387
  485SOL    HW1 3294  11.849   1.625   0.293
  485SOL    HW2 3295  11.838   1.723   0.408
  486SOL     OW 3296   7.658   5.799  10.688
  486SOL    HW1 3297   7.654   5.789  10.593
  486SOL    HW2 3298   7.634   5.890  10.703
  487SOL     OW 3299   3.714   8.600   8.212
  487SOL    HW1 3300   3.642   8.569   8.157
  487SOL    HW2 3301   3.728   8.691   8.183
  488SOL     OW 3302   5.697   8.080   6.243
  488SOL    HW1 3303   5.735   8.135   6.312
  488SOL    HW2 3304   5.764   8.015   6.224
  489SOL     OW 3305   6.143   8.270   2.232
  489SOL    HW1 3306   6.154   8.175   2.238
  489SOL    HW2 3307   6.083   8.283   2.159
  490SOL     OW 3308   9.399  12.813   3.900
  490SOL    HW1 3309   9.484  12.847   3.870
  490SOL    HW2 3310   9.422  12.749   3.967
  491SOL     OW 3311   7.126   5.431   4.751
  491SOL    HW1 3312   7.090   5.520   4.747
  491SOL    HW2 3313   7.148   5.410   4.660
  492SOL     OW 3314   8.395   9.008  13.488
  492SOL    HW1 3315   8.436   8.924  13.508
  492SOL    HW2 3316   8.461   9.056  13.437
  493SOL     OW 3317   2.042   4.720  12.397
  493SOL    HW1 3318   1.962   4.764  12.427
  493SOL    HW2 3319   2.103   4.792  12.377
  494SOL     OW 3320   5.852   6.976  12.487
  494SOL    HW1 3321   5.874   6.956  12.396
  494SOL    HW2 3322   5.897   6.908  12.537
  495SOL     OW 3323   7.994   9.205   4.363
  495SOL    HW1 3324   7.923   9.207   4.427
  495SOL    HW2 3325   8.003   9.296   4.334
  496SOL     OW 3326  12.911   4.627  13.154
  496SOL    HW1 3327  13.003   4.639  13.134
  496SOL    HW2 3328  12.878   4.569  13.085
  497SOL     OW 3329   3.161   0.332   6.083
  497SOL    HW1 3330   3.250   0.346   6.052
  497SOL    HW2 3331   3.167   0.253   6.137
  498SOL     OW 3332   7.132  13.499  12.788
  498SOL    HW1 3333   7.195  13.509  12.716
  498SOL    HW2 3334   7.066  13.438  12.754
  499SOL     OW 3335  11.800   1.395   6.526
  499SOL    HW1 3336  11.773   1.309   6.559
  499SOL    HW2 3337  11.742   1.411   6.451
  500SOL     OW 3338  11.633   5.521  14.026
  500SOL    HW1 3339  11.543   5.537  13.996
  500SOL    HW2 3340  11.682   5.503  13.945
  501SOL     OW 3341   3.480  10.073   7.735
  501SOL    HW1 3342   3.434  10.114   7.808
  501SOL    HW2 3343   3.572  10.095   7.748
  502SOL     OW 3344   0.935   0.838  10.727
  502SOL    HW1 3345   0.936   0.852  10.632
  502SOL    HW2 3346   1.027   0.830  10.751
  503SOL     OW 3347  11.986   6.145  14.749
  503SOL    HW1 3348  12.002   6.067  14.801
  503SOL    HW2 3349  11.974   6.215  14.814
  504SOL     OW 3350   2.599   9.435   3.579
  504SOL    HW1 3351   2.629   9.351   3.614
  504SOL    HW2 3352   2.558   9.413   3.495
  505SOL     OW 3353   2.058   1.680   2.853
  505SOL    HW1 3354   2.061   1.599   2.801
  505SOL    HW2 3355   2.141   1.723   2.835
  506SOL     OW 3356   7.523   3.347  10.625
  506SOL    HW1 3357   7.595   3.388  10.674
  506SOL    HW2 3358   7.484   3.285  10.687
  507SOL     OW 3359  10.763   4.198   0.750
  507SOL    HW1 3360  10.767   4.127   0.814
  507SOL    HW2 3361  10.854   4.221   0.734
  508SOL     OW 3362   9.952   7.244  10.488
  508SOL    HW1 3363  10.036   7.266  10.528
  508SOL    HW2 3364   9.973   7.178  10.422
  509SOL     OW 3365   0.602   0.597  14.470
  509SOL    HW1 3366   0.562   0.622  14.387
  509SOL    HW2 3367   0.648   0.676  14.499
  510SOL     OW 3368  13.537   0.521   6.777
  510SOL    HW1 3369  13.553   0.607   6.814
  510SOL    HW2 3370  13.622   0.491   6.746
  511SOL     OW 3371   6.051  10.244   0.852
  511SOL    HW1 3372   6.044  10.192   0.932
  511SOL    HW2 3373   6.002  10.195   0.787
  512SOL     OW 3374  12.459   2.958  10.021
  512SOL    HW1 3375  12.441   2.974  10.114
  512SOL    HW2 3376  12.379   2.917   9.988
  513SOL     OW 3377   3.798  14.096  13.166
  513SOL    HW1 3378   3.859  14.091  13.240
  513SOL    HW2 3379   3.712  14.083  13.206
  514SOL     OW 3380   2.285   5.487   2.327
  514SOL    HW1 3381   2.214   5.432   2.360
  514SOL    HW2 3382   2.326   5.523   2.405
  515SOL     OW 3383   4.906   6.560   3.993
  515SOL    HW1 3384   4.962   6.559   4.071
  515SOL    HW2 3385   4.838   6.496   4.011
  516SOL     OW 3386   6.167   1.321   4.636
  516SOL    HW1 3387   6.194   1.357   4.552
  516SOL    HW2 3388   6.168   1.226   4.624
  517SOL     OW 3389   8.539  13.000  13.386
  517SOL    HW1 3390   8.560  13.088  13.356
  517SOL    HW2 3391   8.447  12.988  13.365
  518SOL     OW 3392   2.318  10.719   9.267
  518SOL    HW1 3393   2.265  10.713   9.347
  518SOL    HW2 3394   2.383  10.649   9.276
  519SOL     OW 3395   6.070   0.942   2.355
  519SOL    HW1 3396   5.983   0.974   2.329
  519SOL    HW2 3397   6.055   0.899   2.439
  520SOL     OW 3398   7.970   6.194   9.949
  520SOL    HW1 3399   7.875   6.200   9.955
  520SOL    HW2 3400   7.997   6.164  10.036
  521SOL     OW 3401   7.749   0.866   2.983
  521SOL    HW1 3402   7.792   0.783   3.004
  521SOL    HW2 3403   7.678   0.873   3.046
  522SOL     OW 3404   3.261   5.701   5.286
  522SOL    HW1 3405   3.217   5.622   5.319
  522SOL    HW2 3406   3.204   5.773   5.311
  523SOL     OW 3407   5.421   1.097   9.380
  523SOL    HW1 3408   5.413   1.190   9.400
  523SOL    HW2 3409   5.476   1.062   9.450
  524SOL     OW 3410   5.796  12.119  10.553
  524SOL    HW1 3411   5.844  12.104  10.472
  524SOL    HW2 3412   5.705  12.096  10.531
  525SOL     OW 3413   6.636   6.654  11.406
  525SOL    HW1 3414   6.712   6.635  11.461
  525SOL    HW2 3415   6.567   6.680  11.467
  526SOL     OW 3416  12.010  13.907  13.503
  526SOL    HW1 3417  11.961  13.914  13.585
  526SOL    HW2 3418  11.952  13.858  13.445
  527SOL     OW 3419   1.699   7.121  13.195
  527SOL    HW1 3420   1.742   7.100  13.112
  527SOL    HW2 3421   1.770   7.146  13.254
  528SOL     OW 3422   3.323   4.869   2.798
  528SOL    HW1 3423   3.415   4.869   2.774
  528SOL    HW2 3424   3.319   4.919   2.880
  529SOL     OW 3425  14.483   0.148   2.739
  529SOL    HW1 3426  14.437   0.081   2.688
  529SOL    HW2 3427  14.413   0.206   2.770
  530SOL     OW 3428   3.154   6.468   9.063
  530SOL    HW1 3429   3.095   6.395   9.043
  530SOL    HW2 3430   3.239   6.425   9.078
  531SOL     OW 3431  14.502   8.842  11.256
  531SOL    HW1 3432  14.546   8.792  11.325
  531SOL    HW2 3433  14.418   8.866  11.294
  532SOL     OW 3434  12.870  12.099   1.913
  532SOL    HW1 3435  12.932  12.146   1.858
  532SOL    HW2 3436  12.925  12.051   1.975
  533SOL     OW 3437  11.967  10.444   4.746
  533SOL    HW1 3438  12.005  10.473   4.829
  533SOL    HW2 3439  11.989  10.351   4.740
  534SOL     OW 3440   9.685   1.207  14.556
  534SOL    HW1 3441   9.614   1.203  14.620
  534SOL    HW2 3442   9.686   1.298  14.527
  535SOL     OW 3443  13.338  14.317   1.040
  535SOL    HW1 3444  13.331  14.322   0.945
  535SOL    HW2 3445  13.250  14.292   1.070
  536SOL     OW 3446  12.428   2.893   3.150
  536SOL    HW1 3447  12.386   2.916   3.067
  536SOL    HW2 3448  12.520   2.916   3.138
  537SOL     OW 3449  11.917   8.591   5.160
  537SOL    HW1 3450  11.970   8.566   5.085
  537SOL    HW2 3451  11.827   8.594   5.126
  538SOL     OW 3452   9.536   3.675   9.945
  538SOL    HW1 3453   9.483   3.691   9.866
  538SOL    HW2 3454   9.623   3.705   9.921
  539SOL     OW 3455   7.928   7.431   4.134
  539SOL    HW1 3456   7.865   7.442   4.205
  539SOL    HW2 3457   7.989   7.364   4.166
  540SOL     OW 3458   3.059   8.589   9.816
  540SOL    HW1 3459   3.060   8.663   9.878
  540SOL    HW2 3460   3.049   8.512   9.872
  541SOL     OW 3461   2.317   2.641   0.137
  541SOL    HW1 3462   2.378   2.597   0.078
  541SOL    HW2 3463   2.236   2.593   0.128
  542SOL     OW 3464   9.849  10.518   6.462
  542SOL    HW1 3465   9.898  10.449   6.507
  542SOL    HW2 3466   9.791  10.553   6.528
  543SOL     OW 3467   6.199   0.076  12.523
  543SOL    HW1 3468   6.143  14.873  12.528
  543SOL    HW2 3469   6.282   0.048  12.563
  544SOL     OW 3470   5.014   7.032   0.042
  544SOL    HW1 3471   5.078   7.087  14.871
  544SOL    HW2 3472   4.933   7.043  14.866
  545SOL     OW 3473  10.148   5.660   6.144
  545SOL    HW1 3474  10.148   5.680   6.238
  545SOL    HW2 3475  10.058   5.631   6.126
  546SOL     OW 3476   3.693  11.303  10.372
  546SOL    HW1 3477   3.751  11.378  10.379
  546SOL    HW2 3478   3.747  11.235  10.332
  547SOL     OW 3479  11.900   6.603   2.398
  547SOL    HW1 3480  11.826   6.546   2.418
  547SOL    HW2 3481  11.861   6.675   2.348
  548SOL     OW 3482  13.362   3.598   3.486
  548SOL    HW1 3483  13.327   3.675   3.443
  548SOL    HW2 3484  13.307   3.587   3.564
  549SOL     OW 3485   3.240  12.584  11.606
  549SOL    HW1 3486   3.190  12.514  11.564
  549SOL    HW2 3487   3.255  12.552  11.695
  550SOL     OW 3488   1.948  14.490   5.083
  550SOL    HW1 3489   2.023  14.446   5.123
  550SOL    HW2 3490   1.919  14.553   5.150
  551SOL     OW 3491   0.768  12.251   2.953
  551SOL    HW1 3492   0.678  12.273   2.974
  551SOL    HW2 3493   0.812  12.335   2.943
  552SOL     OW 3494  12.961  13.302   1.421
  552SOL    HW1 3495  12.915  13.248   1.486
  552SOL    HW2 3496  13.053  13.300   1.449
  553SOL     OW 3497  11.419  12.001   1.544
  553SOL    HW1 3498  11.488  12.056   1.581
  553SOL    HW2 3499  11.456  11.913   1.543
  554SOL     OW 3500   8.786   0.413   3.741
  554SOL    HW1 3501   8.727   0.454   3.678
  554SOL    HW2 3502   8.739   0.420   3.825
  555SOL     OW 3503  10.635  11.630   5.454
  555SOL    HW1 3504  10.575  11.657   5.524
  555SOL    HW2 3505  10.718  11.674   5.475
  556SOL     OW 3506   0.922  13.638   3.781
  556SOL    HW1 3507   0.871  13.564   3.815
  556SOL    HW2 3508   0.953  13.684   3.859
  557SOL     OW 3509   5.982   9.262   1.784
  557SOL    HW1 3510   5.955   9.317   1.857
  557SOL    HW2 3511   5.986   9.174   1.821
  558SOL     OW 3512   0.961   7.574   7.594
  558SOL    HW1 3513   0.894   7.534   7.539
  558SOL    HW2 3514   0.915   7.646   7.638
  559SOL     OW 3515  12.085   1.821  10.478
  559SOL    HW1 3516  12.056   1.774  10.401
  559SOL    HW2 3517  12.005   1.864  10.511
  560SOL     OW 3518   2.764   2.661   0.625
  560SOL    HW1 3519   2.831   2.728   0.613
  560SOL    HW2 3520   2.790   2.590   0.566
  561SOL     OW 3521  10.275  11.458   2.811
  561SOL    HW1 3522  10.314  11.384   2.764
  561SOL    HW2 3523  10.256  11.423   2.898
  562SOL     OW 3524   3.688   7.007   2.538
  562SOL    HW1 3525   3.692   6.912   2.551
  562SOL    HW2 3526   3.768   7.041   2.577
  563SOL     OW 3527  10.684  14.156  13.334
  563SOL    HW1 3528  10.630  14.082  13.362
  563SOL    HW2 3529  10.773  14.122  13.336
  564SOL     OW 3530  14.431   6.760   8.593
  564SOL    HW1 3531  14.397   6.760   8.683
  564SOL    HW2 3532  14.519   6.723   8.600
  565SOL     OW 3533  13.109   1.993   4.658
  565SOL    HW1 3534  13.165   2.056   4.703
  565SOL    HW2 3535  13.069   2.043   4.587
  566SOL     OW 3536   5.115  11.914  11.189
  566SOL    HW1 3537   5.200  11.955  11.176
  566SOL    HW2 3538   5.085  11.944  11.275
  567SOL     OW 3539   0.238  11.515   9.706
  567SOL    HW1 3540   0.292  11.593   9.715
  567SOL    HW2 3541   0.176  11.537   9.635
  568SOL     OW 3542   1.810  14.079   3.592
  568SOL    HW1 3543   1.777  14.145   3.653
  568SOL    HW2 3544   1.732  14.030   3.567
  569SOL     OW 3545   4.444   6.662   5.542
  569SOL    HW1 3546   4.350   6.669   5.563
  569SOL    HW2 3547   4.446   6.625   5.454
  570SOL     OW 3548   2.552   8.693   4.160
  570SOL    HW1 3549   2.505   8.654   4.086
  570SOL    HW2 3550   2.487   8.698   4.230
  571SOL     OW 3551   1.573  13.179   6.416
  571SOL    HW1 3552   1.571  13.271   6.390
  571SOL    HW2 3553   1.594  13.131   6.336
  572SOL     OW 3554  13.702  11.531  13.978
  572SOL    HW1 3555  13.670  11.587  13.907
  572SOL    HW2 3556  13.796  11.521  13.960
  573SOL     OW 3557   3.931   0.861  11.303
  573SOL    HW1 3558   3.976   0.864  11.387
  573SOL    HW2 3559   3.945   0.948  11.265
  574SOL     OW 3560   0.532   3.668   1.882
  574SOL    HW1 3561   0.469   3.614   1.930
  574SOL    HW2 3562   0.543   3.746   1.936
  575SOL     OW 3563   1.045   3.265   7.024
  575SOL    HW1 3564   0.956   3.292   7.003
  575SOL    HW2 3565   1.098   3.343   7.013
  576SOL     OW 3566  12.722   2.676   9.945
  576SOL    HW1 3567  12.662   2.647  10.014
  576SOL    HW2 3568  12.793   2.612   9.947
  577SOL     OW 3569  10.046  12.127   8.423
  577SOL    HW1 3570  10.044  12.080   8.506
  577SOL    HW2 3571  10.140  12.136   8.403
  578SOL     OW 3572  10.497   8.262  14.190
  578SOL    HW1 3573  10.541   8.290  14.270
  578SOL    HW2 3574  10.527   8.324  14.123
  579SOL     OW 3575   7.445   8.199   3.537
  579SOL    HW1 3576   7.429   8.189   3.630
  579SOL    HW2 3577   7.438   8.293   3.521
  580SOL     OW 3578   9.893  10.274  14.304
  580SOL    HW1 3579   9.901  10.311  14.216
  580SOL    HW2 3580   9.982  10.245  14.326
  581SOL     OW 3581  10.941   1.054   4.773
  581SOL    HW1 3582  10.853   1.048   4.811
  581SOL    HW2 3583  10.939   1.135   4.722
  582SOL     OW 3584   0.274  10.532   8.278
  582SOL    HW1 3585   0.185  10.500   8.295
  582SOL    HW2 3586   0.286  10.520   8.184
  583SOL     OW 3587   1.702  12.902   0.936
  583SOL    HW1 3588   1.721  12.822   0.986
  583SOL    HW2 3589   1.769  12.964   0.965
  584SOL     OW 3590   4.807  14.682  12.279
  584SOL    HW1 3591   4.765  14.764  12.251
  584SOL    HW2 3592   4.831  14.639  12.197
  585SOL     OW 3593   7.843   5.501  13.407
  585SOL    HW1 3594   7.810   5.547  13.484
  585SOL    HW2 3595   7.815   5.554  13.333
  586SOL     OW 3596   5.165   4.085  13.295
  586SOL    HW1 3597   5.213   4.168  13.294
  586SOL    HW2 3598   5.116   4.086  13.213
  587SOL     OW 3599  12.740  14.487  13.764
  587SOL    HW1 3600  12.714  14.396  13.781
  587SOL    HW2 3601  12.835  14.486  13.764
  588SOL     OW 3602  10.858   7.468   4.119
  588SOL    HW1 3603  10.898   7.552   4.141
  588SOL    HW2 3604  10.851   7.422   4.203
  589SOL     OW 3605  14.769   4.271  13.483
  589SOL    HW1 3606  14.748   4.197  13.540
  589SOL    HW2 3607  14.855   4.249  13.446
  590SOL     OW 3608   3.595   5.990   3.047
  590SOL    HW1 3609   3.530   5.964   3.113
  590SOL    HW2 3610   3.636   6.069   3.083
  591SOL     OW 3611   8.585   6.641  12.773
  591SOL    HW1 3612   8.570   6.559  12.820
  591SOL    HW2 3613   8.673   6.632  12.738
  592SOL     OW 3614   9.292   8.934   3.223
  592SOL    HW1 3615   9.321   8.905   3.136
  592SOL    HW2 3616   9.230   9.006   3.204
  593SOL     OW 3617  14.133   4.864  11.755
  593SOL    HW1 3618  14.059   4.805  11.746
  593SOL    HW2 3619  14.207   4.807  11.774
  594SOL     OW 3620  13.396   7.738   5.279
  594SOL    HW1 3621  13.361   7.804   5.220
  594SOL    HW2 3622  13.473   7.703   5.234
  595SOL     OW 3623   3.531   4.034   0.861
  595SOL    HW1 3624   3.622   4.059   0.850
  595SOL    HW2 3625   3.514   4.046   0.955
  596SOL     OW 3626   5.148  14.000  13.517
  596SOL    HW1 3627   5.069  13.989  13.570
  596SOL    HW2 3628   5.141  13.933  13.449
  597SOL     OW 3629   4.326  12.591   9.606
  597SOL    HW1 3630   4.235  12.581   9.633
  597SOL    HW2 3631   4.321  12.624   9.516
  598SOL     OW 3632   2.335   4.223   4.376
  598SOL    HW1 3633   2.306   4.303   4.332
  598SOL    HW2 3634   2.306   4.152   4.320
  599SOL     OW 3635   5.867   8.722  11.764
  599SOL    HW1 3636   5.850   8.812  11.792
  599SOL    HW2 3637   5.793   8.672  11.799
  600SOL     OW 3638   3.729  13.976   5.169
  600SOL    HW1 3639   3.713  13.926   5.248
  600SOL    HW2 3640   3.749  14.064   5.201
  601SOL     OW 3641   5.982   2.822   8.141
  601SOL    HW1 3642   5.896   2.863   8.137
  601SOL    HW2 3643   5.980   2.757   8.070
  602SOL     OW 3644   7.922  12.074   0.224
  602SOL    HW1 3645   7.916  12.157   0.270
  602SOL    HW2 3646   7.985  12.023   0.274
  603SOL     OW 3647   6.072  10.987  13.491
  603SOL    HW1 3648   6.073  10.930  13.568
  603SOL    HW2 3649   6.084  10.927  13.417
  604SOL     OW 3650   8.851  11.847  14.105
  604SOL    HW1 3651   8.892  11.924  14.064
  604SOL    HW2 3652   8.784  11.884  14.163
  605SOL     OW 3653   5.941   5.407  10.214
  605SOL    HW1 3654   5.907   5.384  10.127
  605SOL    HW2 3655   6.027   5.363  10.217
  606SOL     OW 3656  11.009  11.431   1.116
  606SOL    HW1 3657  11.071  11.412   1.046
  606SOL    HW2 3658  10.925  11.402   1.082
  607SOL     OW 3659   6.496  11.263   2.642
  607SOL    HW1 3660   6.448  11.196   2.593
  607SOL    HW2 3661   6.579  11.273   2.594
  608SOL     OW 3662   8.930   2.973   9.983
  608SOL    HW1 3663   8.915   2.984  10.077
  608SOL    HW2 3664   8.847   2.939   9.949
  609SOL     OW 3665   7.909   2.129  13.754
  609SOL    HW1 3666   7.856   2.163  13.683
  609SOL    HW2 3667   7.915   2.201  13.817
  610SOL     OW 3668   9.280  13.455  10.618
  610SOL    HW1 3669   9.251  13.400  10.545
  610SOL    HW2 3670   9.244  13.541  10.599
  611SOL     OW 3671   4.838   8.363   6.115
  611SOL    HW1 3672   4.900   8.290   6.107
  611SOL    HW2 3673   4.885   8.428   6.167
  612SOL     OW 3674   6.622  10.024   3.042
  612SOL    HW1 3675   6.585  10.112   3.039
  612SOL    HW2 3676   6.700  10.029   2.986
  613SOL     OW 3677  10.245   2.194   8.952
  613SOL    HW1 3678  10.302   2.260   8.913
  613SOL    HW2 3679  10.292   2.111   8.939
  614SOL     OW 3680   2.363  12.912   1.126
  614SOL    HW1 3681   2.386  12.838   1.182
  614SOL    HW2 3682   2.289  12.880   1.073
  615SOL     OW 3683  14.103   9.045   6.361
  615SOL    HW1 3684  14.154   8.978   6.317
  615SOL    HW2 3685  14.033   9.067   6.300
  616SOL     OW 3686  10.280   2.551  11.994
  616SOL    HW1 3687  10.215   2.582  12.057
  616SOL    HW2 3688  10.232   2.493  11.936
  617SOL     OW 3689   5.093   0.085   7.681
  617SOL    HW1 3690   5.145   0.029   7.738
  617SOL    HW2 3691   5.152   0.157   7.659
  618SOL     OW 3692   2.418   0.048   1.290
  618SOL    HW1 3693   2.353  14.873   1.341
  618SOL    HW2 3694   2.476   0.087   1.356
  619SOL     OW 3695  13.618   6.676  13.372
  619SOL    HW1 3696  13.616   6.687  13.467
  619SOL    HW2 3697  13.710   6.689  13.347
  620SOL     OW 3698  13.038  10.181   0.428
  620SOL    HW1 3699  13.041  10.260   0.375
  620SOL    HW2 3700  13.062  10.111   0.367
  621SOL     OW 3701  10.848   7.645  13.195
  621SOL    HW1 3702  10.777   7.617  13.253
  621SOL    HW2 3703  10.887   7.721  13.239
  622SOL     OW 3704   6.837   7.365  13.955
  622SOL    HW1 3705   6.789   7.382  14.036
  622SOL    HW2 3706   6.904   7.432  13.952
  623SOL     OW 3707  12.712  11.427  13.877
  623SOL    HW1 3708  12.710  11.402  13.970
  623SOL    HW2 3709  12.673  11.514  13.875
  624SOL     OW 3710   6.453  13.900   4.117
  624SOL    HW1 3711   6.512  13.827   4.099
  624SOL    HW2 3712   6.384  13.863   4.173
  625SOL     OW 3713  11.076  12.748  14.138
  625SOL    HW1 3714  11.009  12.679  14.129
  625SOL    HW2 3715  11.032  12.817  14.188
  626SOL     OW 3716  10.943  12.202  12.490
  626SOL    HW1 3717  10.937  12.116  12.447
  626SOL    HW2 3718  10.911  12.264  12.424
  627SOL     OW 3719  11.880  14.037   8.369
  627SOL    HW1 3720  11.831  13.964   8.407
  627SOL    HW2 3721  11.931  13.997   8.298
  628SOL     OW 3722   9.103   9.059   5.806
  628SOL    HW1 3723   9.024   9.092   5.849
  628SOL    HW2 3724   9.103   8.965   5.826
  629SOL     OW 3725  11.625   9.039   6.460
  629SOL    HW1 3726  11.682   9.051   6.537
  629SOL    HW2 3727  11.559   9.108   6.469
  630SOL     OW 3728   2.218   5.722  12.697
  630SOL    HW1 3729   2.142   5.729  12.754
  630SOL    HW2 3730   2.267   5.803  12.712
  631SOL     OW 3731  11.265  11.755  13.016
  631SOL    HW1 3732  11.292  11.732  12.927
  631SOL    HW2 3733  11.328  11.822  13.043
  632SOL     OW 3734   6.330  12.986   6.278
  632SOL    HW1 3735   6.328  13.081   6.267
  632SOL    HW2 3736   6.238  12.960   6.273
  633SOL     OW 3737  14.460   6.250  12.373
  633SOL    HW1 3738  14.523   6.237  12.302
  633SOL    HW2 3739  14.376   6.228  12.334
  634SOL     OW 3740   5.232  13.504   4.116
  634SOL    HW1 3741   5.326  13.509   4.135
  634SOL    HW2 3742   5.219  13.565   4.043
  635SOL     OW 3743   2.047   6.797   2.153
  635SOL    HW1 3744   2.041   6.893   2.146
  635SOL    HW2 3745   2.137   6.781   2.181
  636SOL     OW 3746   9.970   3.914   8.826
  636SOL    HW1 3747   9.999   3.850   8.762
  636SOL    HW2 3748  10.051   3.951   8.862
  637SOL     OW 3749  14.220   4.220   6.058
  637SOL    HW1 3750  14.274   4.143   6.038
  637SOL    HW2 3751  14.191   4.206   6.148
  638SOL     OW 3752   0.464   8.844   3.451
  638SOL    HW1 3753   0.373   8.821   3.431
  638SOL    HW2 3754   0.470   8.938   3.433
  639SOL     OW 3755   8.688  12.002  14.523
  639SOL    HW1 3756   8.664  12.005  14.616
  639SOL    HW2 3757   8.782  12.018  14.522
  640SOL     OW 3758   0.671   3.407   2.258
  640SOL    HW1 3759   0.697   3.315   2.258
  640SOL    HW2 3760   0.577   3.405   2.276
  641SOL     OW 3761   3.616  11.735   8.391
  641SOL    HW1 3762   3.560  11.780   8.327
  641SOL    HW2 3763   3.559  11.669   8.430
  642SOL     OW 3764   3.291   0.144  10.726
  642SOL    HW1 3765   3.250   0.157  10.812
  642SOL    HW2 3766   3.270   0.054  10.703
  643SOL     OW 3767   9.694   9.392   3.051
  643SOL    HW1 3768   9.769   9.346   3.015
  643SOL    HW2 3769   9.732   9.468   3.097
  644SOL     OW 3770   3.277  14.449   7.494
  644SOL    HW1 3771   3.265  14.362   7.532
  644SOL    HW2 3772   3.273  14.509   7.569
  645SOL     OW 3773   7.314  13.442   0.539
  645SOL    HW1 3774   7.261  13.488   0.605
  645SOL    HW2 3775   7.308  13.350   0.564
  646SOL     OW 3776   8.020   5.410   2.938
  646SOL    HW1 3777   8.073   5.334   2.958
  646SOL    HW2 3778   7.942   5.375   2.896
  647SOL     OW 3779   1.573  12.671   8.407
  647SOL    HW1 3780   1.574  12.580   8.376
  647SOL    HW2 3781   1.560  12.723   8.328
  648SOL     OW 3782   8.364   5.542   0.665
  648SOL    HW1 3783   8.382   5.635   0.675
  648SOL    HW2 3784   8.319   5.535   0.581
  649SOL     OW 3785   5.224   7.225   3.703
  649SOL    HW1 3786   5.297   7.269   3.659
  649SOL    HW2 3787   5.252   7.216   3.794
  650SOL     OW 3788   4.622   3.842   8.037
  650SOL    HW1 3789   4.535   3.829   8.075
  650SOL    HW2 3790   4.656   3.919   8.082
  651SOL     OW 3791   5.810   8.213   4.781
  651SOL    HW1 3792   5.857   8.131   4.797
  651SOL    HW2 3793   5.879   8.278   4.766
  652SOL     OW 3794  13.461   6.638  11.109
  652SOL    HW1 3795  13.468   6.547  11.080
  652SOL    HW2 3796  13.499   6.689  11.038
  653SOL     OW 3797   9.908   6.565   6.413
  653SOL    HW1 3798   9.893   6.559   6.319
  653SOL    HW2 3799   9.928   6.475   6.439
  654SOL     OW 3800  11.762  13.224   2.920
  654SOL    HW1 3801  11.852  13.206   2.949
  654SOL    HW2 3802  11.765  13.314   2.890
  655SOL     OW 3803   4.500   4.705   6.330
  655SOL    HW1 3804   4.446   4.626   6.343
  655SOL    HW2 3805   4.533   4.696   6.240
  656SOL     OW 3806   5.753  10.391   0.042
  656SOL    HW1 3807   5.664  10.423   0.034
  656SOL    HW2 3808   5.748  10.298   0.021
  657SOL     OW 3809   3.649   0.640   7.099
  657SOL    HW1 3810   3.699   0.615   7.022
  657SOL    HW2 3811   3.671   0.732   7.113
  658SOL     OW 3812  11.317   3.511   3.829
  658SOL    HW1 3813  11.382   3.476   3.768
  658SOL    HW2 3814  11.340   3.603   3.839
  659SOL     OW 3815   6.514   7.566   9.190
  659SOL    HW1 3816   6.564   7.546   9.111
  659SOL    HW2 3817   6.567   7.631   9.236
  660SOL     OW 3818   8.125   5.948   0.940
  660SOL    HW1 3819   8.157   5.966   1.028
  660SOL    HW2 3820   8.067   6.021   0.919
  661SOL     OW 3821   7.658   0.549   6.322
  661SOL    HW1 3822   7.598   0.478   6.300
  661SOL    HW2 3823   7.617   0.628   6.287
  662SOL     OW 3824  13.094  12.722  13.002
  662SOL    HW1 3825  13.180  12.754  12.975
  662SOL    HW2 3826  13.093  12.631  12.974
  663SOL     OW 3827  12.186   0.061  12.484
  663SOL    HW1 3828  12.193   0.035  12.576
  663SOL    HW2 3829  12.271   0.041  12.447
  664SOL     OW 3830  11.198   4.565   2.994
  664SOL    HW1 3831  11.273   4.602   2.948
  664SOL    HW2 3832  11.221   4.473   3.009
  665SOL     OW 3833  12.759   4.118   3.873
  665SOL    HW1 3834  12.722   4.039   3.913
  665SOL    HW2 3835  12.737   4.110   3.780
  666SOL     OW 3836  12.199   8.546   0.464
  666SOL    HW1 3837  12.244   8.464   0.441
  666SOL    HW2 3838  12.270   8.606   0.488
  667SOL     OW 3839   6.690  13.390   4.967
  667SOL    HW1 3840   6.664  13.458   5.029
  667SOL    HW2 3841   6.751  13.334   5.016
  668SOL     OW 3842  11.664   4.412   2.970
  668SOL    HW1 3843  11.751   4.448   2.990
  668SOL    HW2 3844  11.668   4.321   3.000
  669SOL     OW 3845   8.743   0.818   7.556
  669SOL    HW1 3846   8.815   0.785   7.609
  669SOL    HW2 3847   8.785   0.859   7.481
  670SOL     OW 3848   5.144   1.914   2.517
  670SOL    HW1 3849   5.172   1.823   2.507
  670SOL    HW2 3850   5.166   1.956   2.434
  671SOL     OW 3851   8.717   1.805   8.026
  671SOL    HW1 3852   8.646   1.816   7.962
  671SOL    HW2 3853   8.711   1.713   8.053
  672SOL     OW 3854   5.453   7.729   0.479
  672SOL    HW1 3855   5.538   7.770   0.489
  672SOL    HW2 3856   5.410   7.778   0.408
  673SOL     OW 3857   6.491   9.557   2.483
  673SOL    HW1 3858   6.474   9.605   2.564
  673SOL    HW2 3859   6.587   9.548   2.481
  674SOL     OW 3860   1.359   0.089   8.254
  674SOL    HW1 3861   1.393   0.067   8.168
  674SOL    HW2 3862   1.434   0.082   8.313
  675SOL     OW 3863   6.712   4.204   2.072
  675SOL    HW1 3864   6.703   4.152   2.151
  675SOL    HW2 3865   6.702   4.141   2.000
  676SOL     OW 3866   4.134  10.408   2.010
  676SOL    HW1 3867   4.178  10.483   1.970
  676SOL    HW2 3868   4.128  10.343   1.939
  677SOL     OW 3869  11.065   7.074   0.042
  677SOL    HW1 3870  10.987   7.096  14.864
  677SOL    HW2 3871  11.136   7.123  14.874
  678SOL     OW 3872   9.042   7.407  13.967
  678SOL    HW1 3873   9.019   7.396  13.875
  678SOL    HW2 3874   9.137   7.422  13.966
  679SOL     OW 3875   1.830   8.126   7.195
  679SOL    HW1 3876   1.802   8.036   7.209
  679SOL    HW2 3877   1.907   8.137   7.251
  680SOL     OW 3878   4.081   2.480  10.224
  680SOL    HW1 3879   4.061   2.390  10.199
  680SOL    HW2 3880   3.997   2.526  10.219
  681SOL     OW 3881   1.343   7.760   9.377
  681SOL    HW1 3882   1.279   7.831   9.370
  681SOL    HW2 3883   1.383   7.772   9.463
  682SOL     OW 3884   7.840   9.597  13.695
  682SOL    HW1 3885   7.771   9.562  13.750
  682SOL    HW2 3886   7.912   9.534  13.702
  683SOL     OW 3887   0.675   4.393   3.663
  683SOL    HW1 3888   0.718   4.309   3.645
  683SOL    HW2 3889   0.696   4.411   3.755
  684SOL     OW 3890   9.562   5.830   8.294
  684SOL    HW1 3891   9.652   5.863   8.294
  684SOL    HW2 3892   9.558   5.772   8.218
  685SOL     OW 3893   0.670  12.046   6.457
  685SOL    HW1 3894   0.614  12.047   6.379
  685SOL    HW2 3895   0.749  12.093   6.430
  686SOL     OW 3896  12.832  10.471  14.540
  686SOL    HW1 3897  12.859  10.390  14.497
  686SOL    HW2 3898  12.901  10.534  14.518
  687SOL     OW 3899   0.733  11.933  11.671
  687SOL    HW1 3900   0.773  11.971  11.749
  687SOL    HW2 3901   0.642  11.916  11.696
  688SOL     OW 3902   4.993  12.856   2.420
  688SOL    HW1 3903   5.039  12.873   2.503
  688SOL    HW2 3904   4.902  12.841   2.446
  689SOL     OW 3905   2.196   9.642  14.738
  689SOL    HW1 3906   2.113   9.606  14.707
  689SOL    HW2 3907   2.259   9.620  14.669
  690SOL     OW 3908   6.280  11.749  13.252
  690SOL    HW1 3909   6.335  11.672  13.242
  690SOL    HW2 3910   6.195  11.722  13.218
  691SOL     OW 3911   1.868  12.666  10.439
  691SOL    HW1 3912   1.910  12.610  10.504
  691SOL    HW2 3913   1.779  12.677  10.471
  692SOL     OW 3914   0.147  14.087  10.528
  692SOL    HW1 3915   0.125  14.161  10.472
  692SOL    HW2 3916   0.069  14.074  10.583
  693SOL     OW 3917   6.172  11.304   9.642
  693SOL    HW1 3918   6.238  11.253   9.595
  693SOL    HW2 3919   6.115  11.238   9.682
  694SOL     OW 3920   9.054   5.154  12.827
  694SOL    HW1 3921   8.959   5.156  12.828
  694SOL    HW2 3922   9.076   5.121  12.740
  695SOL     OW 3923  10.444   5.212   6.050
  695SOL    HW1 3924  10.451   5.301   6.083
  695SOL    HW2 3925  10.414   5.221   5.960
  696SOL     OW 3926   5.453   2.732   5.419
  696SOL    HW1 3927   5.485   2.659   5.367
  696SOL    HW2 3928   5.514   2.738   5.493
  697SOL     OW 3929  10.581   1.600  10.279
  697SOL    HW1 3930  10.528   1.642  10.211
  697SOL    HW2 3931  10.642   1.545  10.230
  698SOL     OW 3932   1.296  11.678   1.356
  698SOL    HW1 3933   1.367  11.697   1.295
  698SOL    HW2 3934   1.335  11.620   1.421
  699SOL     OW 3935   4.606   9.189   6.295
  699SOL    HW1 3936   4.626   9.195   6.202
  699SOL    HW2 3937   4.580   9.098   6.308
  700SOL     OW 3938  13.569  14.655   2.279
  700SOL    HW1 3939  13.486  14.702   2.282
  700SOL    HW2 3940  13.613  14.689   2.201
  701SOL     OW 3941  11.309   7.317   9.935
  701SOL    HW1 3942  11.277   7.231   9.961
  701SOL    HW2 3943  11.246   7.379   9.973
  702SOL     OW 3944  14.660   4.159   5.616
  702SOL    HW1 3945  14.594   4.115   5.563
  702SOL    HW2 3946  14.612   4.225   5.665
  703SOL     OW 3947   7.556   4.134   4.706
  703SOL    HW1 3948   7.517   4.052   4.676
  703SOL    HW2 3949   7.641   4.109   4.742
  704SOL     OW 3950   6.894   8.081   3.851
  704SOL    HW1 3951   6.911   8.146   3.920
  704SOL    HW2 3952   6.886   8.133   3.771
  705SOL     OW 3953   1.776   3.578  10.962
  705SOL    HW1 3954   1.768   3.672  10.978
  705SOL    HW2 3955   1.864   3.556  10.994
  706SOL     OW 3956   4.491   6.762   8.222
  706SOL    HW1 3957   4.440   6.695   8.178
  706SOL    HW2 3958   4.530   6.813   8.150
  707SOL     OW 3959   0.376   2.730   9.649
  707SOL    HW1 3960   0.424   2.691   9.576
  707SOL    HW2 3961   0.307   2.667   9.669
  708SOL     OW 3962  12.432   5.272   2.972
  708SOL    HW1 3963  12.403   5.194   2.923
  708SOL    HW2 3964  12.357   5.331   2.969
  709SOL     OW 3965   1.020   4.166   9.387
  709SOL    HW1 3966   0.943   4.157   9.331
  709SOL    HW2 3967   1.089   4.196   9.328
  710SOL     OW 3968  10.741  11.589   4.035
  710SOL    HW1 3969  10.688  11.622   4.108
  710SOL    HW2 3970  10.740  11.660   3.970
  711SOL     OW 3971   2.107   3.659   6.380
  711SOL    HW1 3972   2.054   3.738   6.376
  711SOL    HW2 3973   2.123   3.646   6.474
  712SOL     OW 3974   6.023  10.627   1.690
  712SOL    HW1 3975   6.028  10.571   1.613
  712SOL    HW2 3976   6.027  10.716   1.656
  713SOL     OW 3977   9.009  11.546   5.885
  713SOL    HW1 3978   9.034  11.618   5.827
  713SOL    HW2 3979   9.088  11.530   5.938
  714SOL     OW 3980   7.786   2.256   5.747
  714SOL    HW1 3981   7.879   2.278   5.750
  714SOL    HW2 3982   7.758   2.278   5.659
  715SOL     OW 3983   7.006   1.521   9.005
  715SOL    HW1 3984   6.998   1.568   8.921
  715SOL    HW2 3985   6.969   1.582   9.069
  716SOL     OW 3986  14.338  10.151   1.755
  716SOL    HW1 3987  14.388  10.197   1.822
  716SOL    HW2 3988  14.282  10.091   1.804
  717SOL     OW 3989  10.408   4.474   6.376
  717SOL    HW1 3990  10.429   4.393   6.423
  717SOL    HW2 3991  10.460   4.541   6.420
  718SOL     OW 3992   1.496   3.607  14.202
  718SOL    HW1 3993   1.459   3.680  14.252
  718SOL    HW2 3994   1.440   3.601  14.125
  719SOL     OW 3995   6.785   8.454  14.396
  719SOL    HW1 3996   6.825   8.464  14.483
  719SOL    HW2 3997   6.710   8.396  14.411
  720SOL     OW 3998   3.139   2.649  14.563
  720SOL    HW1 3999   3.166   2.558  14.574
  720SOL    HW2 4000   3.082   2.647  14.486
  721SOL     OW 4001   4.440  14.784  14.051
  721SOL    HW1 4002   4.462  14.801  13.960
  721SOL    HW2 4003   4.371  14.718  14.047
  722SOL     OW 4004  10.920   1.732   1.833
  722SOL    HW1 4005  11.008   1.757   1.806
  722SOL    HW2 4006  10.870   1.729   1.751
  723SOL     OW 4007  10.965   0.165  10.532
  723SOL    HW1 4008  11.059   0.170  10.545
  723SOL    HW2 4009  10.928   0.151  10.619
  724SOL     OW 4010  13.340   5.049   0.051
  724SOL    HW1 4011  13.360   5.060  14.832
  724SOL    HW2 4012  13.283   4.973   0.055
  725SOL     OW 4013   0.187  12.468   8.525
  725SOL    HW1 4014   0.256  12.524   8.561
  725SOL    HW2 4015   0.230  12.384   8.509
  726SOL     OW 4016   6.500   9.443   1.928
  726SOL    HW1 4017   6.409   9.441   1.898
  726SOL    HW2 4018   6.529   9.352   1.921
  727SOL     OW 4019   0.852   5.037   8.048
  727SOL    HW1 4020   0.852   5.065   7.957
  727SOL    HW2 4021   0.932   4.984   8.057
  728SOL     OW 4022  12.363  10.134   7.962
  728SOL    HW1 4023  12.368  10.221   7.922
  728SOL    HW2 4024  12.314  10.081   7.899
  729SOL     OW 4025   7.189   6.139   3.028
  729SOL    HW1 4026   7.206   6.061   2.975
  729SOL    HW2 4027   7.154   6.203   2.966
  730SOL     OW 4028   5.587  13.915   7.660
  730SOL    HW1 4029   5.555  14.005   7.665
  730SOL    HW2 4030   5.605  13.901   7.567
  731SOL     OW 4031  12.528  11.114  12.975
  731SOL    HW1 4032  12.518  11.209  12.983
  731SOL    HW2 4033  12.533  11.082  13.065
  732SOL     OW 4034   6.501  10.950   3.676
  732SOL    HW1 4035   6.586  10.945   3.633
  732SOL    HW2 4036   6.518  10.928   3.767
  733SOL     OW 4037   2.504   1.860   4.936
  733SOL    HW1 4038   2.512   1.845   4.841
  733SOL    HW2 4039   2.563   1.796   4.975
  734SOL     OW 4040   7.180   1.815   1.901
  734SOL    HW1 4041   7.149   1.884   1.959
  734SOL    HW2 4042   7.267   1.844   1.873
  735SOL     OW 4043  11.556   6.252   0.224
  735SOL    HW1 4044  11.547   6.288   0.136
  735SOL    HW2 4045  11.636   6.199   0.220
  736SOL     OW 4046   6.736   3.691  14.181
  736SOL    HW1 4047   6.712   3.725  14.094
  736SOL    HW2 4048   6.705   3.601  14.180
  737SOL     OW 4049  14.630   9.919  10.950
  737SOL    HW1 4050  14.651   9.828  10.971
  737SOL    HW2 4051  14.536   9.917  10.929
  738SOL     OW 4052  14.427  12.201  13.562
  738SOL    HW1 4053  14.506  12.155  13.591
  738SOL    HW2 4054  14.363  12.186  13.632
  739SOL     OW 4055  14.389  13.769  13.629
  739SOL    HW1 4056  14.484  13.755  13.629
  739SOL    HW2 4057  14.372  13.821  13.551
  740SOL     OW 4058   8.427  13.769   6.345
  740SOL    HW1 4059   8.413  13.749   6.252
  740SOL    HW2 4060   8.522  13.779   6.353
  741SOL     OW 4061  12.951   2.745   2.692
  741SOL    HW1 4062  12.996   2.737   2.777
  741SOL    HW2 4063  12.965   2.661   2.649
  742SOL     OW 4064   7.381   3.460   3.326
  742SOL    HW1 4065   7.330   3.534   3.292
  742SOL    HW2 4066   7.345   3.444   3.413
  743SOL     OW 4067   3.849   8.596  14.229
  743SOL    HW1 4068   3.784   8.616  14.296
  743SOL    HW2 4069   3.823   8.509  14.197
  744SOL     OW 4070   3.640   3.495  13.668
  744SOL    HW1 4071   3.549   3.467  13.676
  744SOL    HW2 4072   3.671   3.501  13.758
  745SOL     OW 4073   5.486  14.125   4.127
  745SOL    HW1 4074   5.496  14.207   4.078
  745SOL    HW2 4075   5.392  14.115   4.139
  746SOL     OW 4076   5.145   2.994  12.656
  746SOL    HW1 4077   5.126   2.947  12.575
  746SOL    HW2 4078   5.059   3.024  12.687
  747SOL     OW 4079  11.242   0.117  10.605
  747SOL    HW1 4080  11.327   0.156  10.583
  747SOL    HW2 4081  11.252   0.024  10.584
  748SOL     OW 4082   1.014   3.487  10.541
  748SOL    HW1 4083   1.079   3.558  10.541
  748SOL    HW2 4084   1.012   3.457  10.450
  749SOL     OW 4085   2.308  10.427  13.973
  749SOL    HW1 4086   2.254  10.506  13.969
  749SOL    HW2 4087   2.312  10.405  14.066
  750SOL     OW 4088  13.360   6.656   7.223
  750SOL    HW1 4089  13.335   6.676   7.133
  750SOL    HW2 4090  13.284   6.613   7.261
  751SOL     OW 4091   4.121  12.593   0.181
  751SOL    HW1 4092   4.196  12.617   0.128
  751SOL    HW2 4093   4.047  12.641   0.142
  752SOL     OW 4094  10.536   6.123  10.437
  752SOL    HW1 4095  10.518   6.193  10.375
  752SOL    HW2 4096  10.484   6.145  10.514
  753SOL     OW 4097   7.642   4.321   4.914
  753SOL    HW1 4098   7.586   4.397   4.925
  753SOL    HW2 4099   7.591   4.261   4.861
  754SOL     OW 4100   0.898   6.589   3.103
  754SOL    HW1 4101   0.819   6.544   3.074
  754SOL    HW2 4102   0.873   6.682   3.107
  755SOL     OW 4103   8.229   2.432   1.939
  755SOL    HW1 4104   8.272   2.398   1.861
  755SOL    HW2 4105   8.180   2.357   1.974
  756SOL     OW 4106   5.494   6.536   4.120
  756SOL    HW1 4107   5.478   6.622   4.158
  756SOL    HW2 4108   5.413   6.514   4.075
  757SOL     OW 4109   0.057  13.854   0.242
  757SOL    HW1 4110  14.860  13.885   0.298
  757SOL    HW2 4111   0.093  13.779   0.289
  758SOL     OW 4112  13.689   9.027   2.468
  758SOL    HW1 4113  13.739   8.946   2.482
  758SOL    HW2 4114  13.603   9.009   2.507
  759SOL     OW 4115   6.388   1.823  12.374
  759SOL    HW1 4116   6.323   1.758  12.346
  759SOL    HW2 4117   6.472   1.780  12.360
  760SOL     OW 4118   2.978   0.853   8.761
  760SOL    HW1 4119   2.895   0.893   8.787
  760SOL    HW2 4120   2.982   0.866   8.666
  761SOL     OW 4121   8.244   7.999   0.258
  761SOL    HW1 4122   8.288   7.917   0.283
  761SOL    HW2 4123   8.273   8.013   0.167
  762SOL     OW 4124   9.800   8.079  11.800
  762SOL    HW1 4125   9.754   8.022  11.739
  762SOL    HW2 4126   9.858   8.131  11.744
  763SOL     OW 4127   3.765  11.870  11.393
  763SOL    HW1 4128   3.744  11.780  11.370
  763SOL    HW2 4129   3.830  11.863  11.462
  764SOL     OW 4130   4.126   5.782  13.330
  764SOL    HW1 4131   4.206   5.836  13.332
  764SOL    HW2 4132   4.108   5.769  13.237
  765SOL     OW 4133   0.698   0.047   1.220
  765SOL    HW1 4134   0.604   0.056   1.204
  765SOL    HW2 4135   0.716   0.105   1.294
  766SOL     OW 4136   9.495   2.932   2.359
  766SOL    HW1 4137   9.460   2.979   2.435
  766SOL    HW2 4138   9.571   2.885   2.393
  767SOL     OW 4139   4.026  10.223   0.229
  767SOL    HW1 4140   3.971  10.294   0.196
  767SOL    HW2 4141   4.044  10.247   0.320
  768SOL     OW 4142   1.754  12.226   4.225
  768SOL    HW1 4143   1.775  12.256   4.314
  768SOL    HW2 4144   1.802  12.144   4.215
  769SOL     OW 4145  14.413   3.923   2.055
  769SOL    HW1 4146  14.332   3.960   2.020
  769SOL    HW2 4147  14.409   3.830   2.033
  770SOL     OW 4148   0.764  14.593   2.234
  770SOL    HW1 4149   0.684  14.629   2.270
  770SOL    HW2 4150   0.764  14.623   2.143
  771SOL     OW 4151  12.376   1.787   5.869
  771SOL    HW1 4152  12.342   1.803   5.957
  771SOL    HW2 4153  12.449   1.726   5.882
  772SOL     OW 4154  10.398   3.988   4.912
  772SOL    HW1 4155  10.422   3.898   4.889
  772SOL    HW2 4156  10.463   4.014   4.977
  773SOL     OW 4157  11.633   2.072   5.840
  773SOL    HW1 4158  11.647   2.163   5.816
  773SOL    HW2 4159  11.625   2.073   5.935
  774SOL     OW 4160   5.936   0.863  12.506
  774SOL    HW1 4161   5.991   0.935  12.474
  774SOL    HW2 4162   5.867   0.906  12.556
  775SOL     OW 4163   5.140  14.478   1.121
  775SOL    HW1 4164   5.172  14.484   1.212
  775SOL    HW2 4165   5.213  14.510   1.068
  776SOL     OW 4166   7.070   4.037   5.402
  776SOL    HW1 4167   6.984   4.045   5.359
  776SOL    HW2 4168   7.118   4.115   5.373
  777SOL     OW 4169  14.780   5.787  14.245
  777SOL    HW1 4170  14.714   5.779  14.313
  777SOL    HW2 4171  14.735   5.762  14.164
  778SOL     OW 4172  12.495  10.660  14.569
  778SOL    HW1 4173  12.548  10.728  14.612
  778SOL    HW2 4174  12.551  10.627  14.499
  779SOL     OW 4175  10.725   6.328  12.713
  779SOL    HW1 4176  10.790   6.386  12.753
  779SOL    HW2 4177  10.651   6.329  12.774
  780SOL     OW 4178   1.775   8.831   4.908
  780SOL    HW1 4179   1.702   8.769   4.904
  780SOL    HW2 4180   1.852   8.778   4.926
  781SOL     OW 4181   7.278   0.120   9.440
  781SOL    HW1 4182   7.254   0.050   9.379
  781SOL    HW2 4183   7.238   0.199   9.402
  782SOL     OW 4184  11.810   7.614  10.160
  782SOL    HW1 4185  11.892   7.622  10.208
  782SOL    HW2 4186  11.833   7.573  10.077
  783SOL     OW 4187   4.854   9.112  11.814
  783SOL    HW1 4188   4.891   9.033  11.853
  783SOL    HW2 4189   4.776   9.081  11.767
  784SOL     OW 4190   6.138   9.896  10.441
  784SOL    HW1 4191   6.104   9.985  10.449
  784SOL    HW2 4192   6.150   9.884  10.347
  785SOL     OW 4193   3.914  11.004   2.069
  785SOL    HW1 4194   3.821  10.994   2.045
  785SOL    HW2 4195   3.961  10.960   1.998
  786SOL     OW 4196   6.245   8.211  11.747
  786SOL    HW1 4197   6.247   8.170  11.661
  786SOL    HW2 4198   6.251   8.137  11.808
  787SOL     OW 4199   9.991   0.701   5.165
  787SOL    HW1 4200   9.974   0.795   5.154
  787SOL    HW2 4201   9.906   0.660   5.154
  788SOL     OW 4202   6.640   2.351   3.022
  788SOL    HW1 4203   6.722   2.324   2.981
  788SOL    HW2 4204   6.589   2.270   3.029
  789SOL     OW 4205  12.917  13.553  11.560
  789SOL    HW1 4206  12.972  13.620  11.520
  789SOL    HW2 4207  12.830  13.592  11.563
  790SOL     OW 4208   2.653  12.208   2.502
  790SOL    HW1 4209   2.708  12.219   2.580
  790SOL    HW2 4210   2.701  12.253   2.432
  791SOL     OW 4211  10.500   0.787   7.646
  791SOL    HW1 4212  10.441   0.765   7.574
  791SOL    HW2 4213  10.498   0.710   7.703
  792SOL     OW 4214   9.717   8.645  13.068
  792SOL    HW1 4215   9.625   8.667  13.082
  792SOL    HW2 4216   9.760   8.729  13.049
  793SOL     OW 4217  13.010  12.493   9.829
  793SOL    HW1 4218  13.101  12.504   9.858
  793SOL    HW2 4219  13.016  12.498   9.733
  794SOL     OW 4220   8.628   6.226   6.379
  794SOL    HW1 4221   8.643   6.276   6.460
  794SOL    HW2 4222   8.698   6.255   6.320
  795SOL     OW 4223  10.072   9.573   6.226
  795SOL    HW1 4224  10.138   9.577   6.157
  795SOL    HW2 4225  10.004   9.635   6.198
  796SOL     OW 4226   4.352   6.987   5.944
  796SOL    HW1 4227   4.292   7.061   5.952
  796SOL    HW2 4228   4.439   7.025   5.958
  797SOL     OW 4229  11.457   1.148  10.620
  797SOL    HW1 4230  11.374   1.150  10.667
  797SOL    HW2 4231  11.471   1.055  10.601
  798SOL     OW 4232   1.622   5.538   3.607
  798SOL    HW1 4233   1.671   5.595   3.548
  798SOL    HW2 4234   1.530   5.553   3.584
  799SOL     OW 4235  13.063   8.163   9.055
  799SOL    HW1 4236  13.114   8.084   9.076
  799SOL    HW2 4237  13.024   8.188   9.139
  800SOL     OW 4238   7.876  12.903   6.833
  800SOL    HW1 4239   7.920  12.830   6.877
  800SOL    HW2 4240   7.783  12.881   6.840
  801SOL     OW 4241  14.553   6.929  12.283
  801SOL    HW1 4242  14.550   6.839  12.317
  801SOL    HW2 4243  14.564   6.918  12.189
  802SOL     OW 4244   0.688  10.100   3.428
  802SOL    HW1 4245   0.628  10.143   3.367
  802SOL    HW2 4246   0.632  10.063   3.496
  803SOL     OW 4247   4.632   7.226  10.602
  803SOL    HW1 4248   4.605   7.259  10.517
  803SOL    HW2 4249   4.556   7.240  10.659
  804SOL     OW 4250   4.316   4.700  12.072
  804SOL    HW1 4251   4.290   4.720  11.982
  804SOL    HW2 4252   4.322   4.786  12.115
  805SOL     OW 4253   9.900  14.310   0.797
  805SOL    HW1 4254   9.875  14.217   0.790
  805SOL    HW2 4255   9.994  14.310   0.780
  806SOL     OW 4256   9.386  12.535   3.252
  806SOL    HW1 4257   9.358  12.600   3.317
  806SOL    HW2 4258   9.476  12.515   3.276
  807SOL     OW 4259  13.305   0.084   9.444
  807SOL    HW1 4260  13.240   0.149   9.416
  807SOL    HW2 4261  13.265  14.874   9.424
  808SOL     OW 4262   1.794  10.537   9.837
  808SOL    HW1 4263   1.789  10.513   9.744
  808SOL    HW2 4264   1.740  10.616   9.844
  809SOL     OW 4265   0.762   7.930   5.821
  809SOL    HW1 4266   0.732   8.019   5.840
  809SOL    HW2 4267   0.706   7.874   5.875
  810SOL     OW 4268  14.389   5.055  12.574
  810SOL    HW1 4269  14.474   5.071  12.534
  810SOL    HW2 4270  14.401   5.079  12.666
  811SOL     OW 4271   7.640  12.537  11.652
  811SOL    HW1 4272   7.583  12.528  11.729
  811SOL    HW2 4273   7.680  12.624  11.662
  812SOL     OW 4274  13.236  14.440   7.314
  812SOL    HW1 4275  13.294  14.420   7.387
  812SOL    HW2 4276  13.162  14.380   7.325
  813SOL     OW 4277  10.772  10.748   3.148
  813SOL    HW1 4278  10.821  10.689   3.206
  813SOL    HW2 4279  10.832  10.821   3.132
  814SOL     OW 4280   0.371   1.145   4.861
  814SOL    HW1 4281   0.427   1.078   4.823
  814SOL    HW2 4282   0.342   1.197   4.786
  815SOL     OW 4283   7.364  11.722  10.223
  815SOL    HW1 4284   7.409  11.752  10.302
  815SOL    HW2 4285   7.431  11.727  10.154
  816SOL     OW 4286   5.047  11.308   2.630
  816SOL    HW1 4287   4.996  11.328   2.552
  816SOL    HW2 4288   5.036  11.214   2.642
  817SOL     OW 4289   2.593   2.266   5.740
  817SOL    HW1 4290   2.515   2.221   5.707
  817SOL    HW2 4291   2.611   2.334   5.675
  818SOL     OW 4292  11.425   1.563   7.838
  818SOL    HW1 4293  11.394   1.546   7.927
  818SOL    HW2 4294  11.405   1.483   7.790
  819SOL     OW 4295   5.699   9.101   4.292
  819SOL    HW1 4296   5.611   9.097   4.254
  819SOL    HW2 4297   5.750   9.151   4.229
  820SOL     OW 4298   9.413   8.434   4.664
  820SOL    HW1 4299   9.489   8.426   4.607
  820SOL    HW2 4300   9.338   8.436   4.605
  821SOL     OW 4301  10.931  12.385   1.859
  821SOL    HW1 4302  10.897  12.389   1.948
  821SOL    HW2 4303  10.874  12.322   1.815
  822SOL     OW 4304  12.476  11.372   6.097
  822SOL    HW1 4305  12.392  11.385   6.140
  822SOL    HW2 4306  12.540  11.409   6.158
  823SOL     OW 4307  10.066  13.570   3.761
  823SOL    HW1 4308  10.013  13.650   3.766
  823SOL    HW2 4309  10.016  13.505   3.810
  824SOL     OW 4310   0.682   9.533   9.504
  824SOL    HW1 4311   0.643   9.463   9.451
  824SOL    HW2 4312   0.633   9.532   9.586
  825SOL     OW 4313   8.970  13.891   6.838
  825SOL    HW1 4314   8.976  13.966   6.898
  825SOL    HW2 4315   8.937  13.820   6.892
  826SOL     OW 4316  11.523  10.136   4.521
  826SOL    HW1 4317  11.505  10.136   4.615
  826SOL    HW2 4318  11.441  10.165   4.481
  827SOL     OW 4319   3.414   3.354  11.242
  827SOL    HW1 4320   3.398   3.386  11.153
  827SOL    HW2 4321   3.452   3.429  11.288
  828SOL     OW 4322   1.606   5.747  10.700
  828SOL    HW1 4323   1.563   5.820  10.656
  828SOL    HW2 4324   1.633   5.783  10.785
  829SOL     OW 4325  14.436   0.146  13.253
  829SOL    HW1 4326  14.420   0.055  13.231
  829SOL    HW2 4327  14.409   0.154  13.345
  830SOL     OW 4328   3.919   4.384  12.972
  830SOL    HW1 4329   3.893   4.304  12.927
  830SOL    HW2 4330   3.991   4.419  12.919
  831SOL     OW 4331   0.783  14.613   7.210
  831SOL    HW1 4332   0.735  14.678   7.261
  831SOL    HW2 4333   0.873  14.646   7.207
  832SOL     OW 4334   3.905   2.899   7.397
  832SOL    HW1 4335   3.846   2.972   7.378
  832SOL    HW2 4336   3.849   2.829   7.430
  833SOL     OW 4337  11.720  10.510   4.801
  833SOL    HW1 4338  11.810  10.482   4.784
  833SOL    HW2 4339  11.712  10.512   4.896
  834SOL     OW 4340  14.551   3.399   7.833
  834SOL    HW1 4341  14.564   3.319   7.882
  834SOL    HW2 4342  14.492   3.375   7.761
  835SOL     OW 4343  12.439  13.773  13.793
  835SOL    HW1 4344  12.531  13.751  13.809
  835SOL    HW2 4345  12.395  13.689  13.784
  836SOL     OW 4346   4.721   7.805  13.470
  836SOL    HW1 4347   4.737   7.721  13.428
  836SOL    HW2 4348   4.759   7.796  13.557
  837SOL     OW 4349   7.591   5.703   5.553
  837SOL    HW1 4350   7.685   5.715   5.567
  837SOL    HW2 4351   7.569   5.760   5.480
  838SOL     OW 4352  13.432   4.304  13.602
  838SOL    HW1 4353  13.343   4.325  13.572
  838SOL    HW2 4354  13.440   4.209  13.591
  839SOL     OW 4355   1.900  11.100   1.667
  839SOL    HW1 4356   1.992  11.123   1.653
  839SOL    HW2 4357   1.865  11.173   1.717
  840SOL     OW 4358   5.099   4.159  12.386
  840SOL    HW1 4359   5.071   4.067  12.380
  840SOL    HW2 4360   5.065   4.200  12.306
  841SOL     OW 4361  12.633   1.875   7.236
  841SOL    HW1 4362  12.656   1.948   7.295
  841SOL    HW2 4363  12.613   1.918   7.153
  842SOL     OW 4364   8.393   3.687   5.702
  842SOL    HW1 4365   8.438   3.607   5.729
  842SOL    HW2 4366   8.457   3.757   5.716
  843SOL     OW 4367   3.698  13.048  14.225
  843SOL    HW1 4368   3.606  13.058  14.201
  843SOL    HW2 4369   3.731  12.979  14.168
  844SOL     OW 4370   5.142  10.221  11.716
  844SOL    HW1 4371   5.126  10.313  11.740
  844SOL    HW2 4372   5.225  10.223  11.668
  845SOL     OW 4373   3.529   3.971   6.081
  845SOL    HW1 4374   3.612   3.946   6.120
  845SOL    HW2 4375   3.489   3.888   6.054
  846SOL     OW 4376   2.361  12.302   9.597
  846SOL    HW1 4377   2.450  12.318   9.630
  846SOL    HW2 4378   2.304  12.343   9.662
  847SOL     OW 4379  10.092   8.831   0.335
  847SOL    HW1 4380  10.173   8.809   0.382
  847SOL    HW2 4381  10.022   8.806   0.395
  848SOL     OW 4382   8.294   1.063  11.058
  848SOL    HW1 4383   8.372   1.119  11.051
  848SOL    HW2 4384   8.222   1.124  11.077
  849SOL     OW 4385  13.220  10.717   6.896
  849SOL    HW1 4386  13.274  10.687   6.823
  849SOL    HW2 4387  13.130  10.712   6.864
  850SOL     OW 4388   5.913   9.819  14.190
  850SOL    HW1 4389   5.833   9.871  14.180
  850SOL    HW2 4390   5.960   9.861  14.262
  851SOL     OW 4391   5.926  13.493   4.675
  851SOL    HW1 4392   5.840  13.451   4.680
  851SOL    HW2 4393   5.931  13.546   4.755
  852SOL     OW 4394   2.623   2.221  13.021
  852SOL    HW1 4395   2.656   2.132  13.033
  852SOL    HW2 4396   2.682   2.276  13.073
  853SOL     OW 4397   4.398  13.523   4.313
  853SOL    HW1 4398   4.400  13.503   4.220
  853SOL    HW2 4399   4.490  13.539   4.336
  854SOL     OW 4400   0.879  10.037   8.947
  854SOL    HW1 4401   0.945  10.026   8.878
  854SOL    HW2 4402   0.912  10.108   9.001
  855SOL     OW 4403   2.269   8.096   2.816
  855SOL    HW1 4404   2.292   8.057   2.732
  855SOL    HW2 4405   2.237   8.184   2.795
  856SOL     OW 4406  12.971  11.145   5.927
  856SOL    HW1 4407  13.009  11.097   6.000
  856SOL    HW2 4408  12.878  11.154   5.950
  857SOL     OW 4409   9.122  12.000  12.110
  857SOL    HW1 4410   9.051  11.967  12.056
  857SOL    HW2 4411   9.197  11.946  12.087
  858SOL     OW 4412   2.928   5.950   6.476
  858SOL    HW1 4413   2.866   5.991   6.415
  858SOL    HW2 4414   2.876   5.934   6.555
  859SOL     OW 4415   1.882   2.315   5.429
  859SOL    HW1 4416   1.837   2.241   5.470
  859SOL    HW2 4417   1.825   2.341   5.357
  860SOL     OW 4418   7.749  12.524   9.823
  860SOL    HW1 4419   7.686  12.453   9.832
  860SOL    HW2 4420   7.756  12.537   9.728
  861SOL     OW 4421  11.452   5.184   0.325
  861SOL    HW1 4422  11.432   5.113   0.386
  861SOL    HW2 4423  11.378   5.245   0.334
  862SOL     OW 4424   0.304  12.658   4.015
  862SOL    HW1 4425   0.370  12.626   3.954
  862SOL    HW2 4426   0.327  12.616   4.098
  863SOL     OW 4427   1.217   5.995  13.846
  863SOL    HW1 4428   1.204   6.004  13.940
  863SOL    HW2 4429   1.206   5.902  13.828
  864SOL     OW 4430  14.093   8.713   0.851
  864SOL    HW1 4431  14.149   8.654   0.800
  864SOL    HW2 4432  14.012   8.663   0.864
  865SOL     OW 4433  13.760  13.975  11.020
  865SOL    HW1 4434  13.748  13.984  10.925
  865SOL    HW2 4435  13.838  13.921  11.029
  866SOL     OW 4436  13.026   4.041  10.578
  866SOL    HW1 4437  13.060   4.090  10.503
  866SOL    HW2 4438  12.934   4.025  10.556
  867SOL     OW 4439  12.901   7.787  13.035
  867SOL    HW1 4440  12.955   7.865  13.043
  867SOL    HW2 4441  12.871   7.769  13.124
  868SOL     OW 4442   0.353   7.875  12.487
  868SOL    HW1 4443   0.298   7.952  12.471
  868SOL    HW2 4444   0.299   7.819  12.543
  869SOL     OW 4445  10.983   9.036  10.028
  869SOL    HW1 4446  10.933   9.085  10.094
  869SOL    HW2 4447  10.978   9.091   9.949
  870SOL     OW 4448   2.546  11.762  14.188
  870SOL    HW1 4449   2.470  11.795  14.141
  870SOL    HW2 4450   2.619  11.778  14.128
  871SOL     OW 4451   4.212  13.400   3.144
  871SOL    HW1 4452   4.287  13.379   3.088
  871SOL    HW2 4453   4.236  13.367   3.230
  872SOL     OW 4454   1.540  11.463   2.049
  872SOL    HW1 4455   1.594  11.404   2.101
  872SOL    HW2 4456   1.475  11.406   2.008
  873SOL     OW 4457  14.549   8.680   9.190
  873SOL    HW1 4458  14.495   8.706   9.264
  873SOL    HW2 4459  14.503   8.605   9.152
  874SOL     OW 4460  14.164   3.256   6.391
  874SOL    HW1 4461  14.141   3.174   6.434
  874SOL    HW2 4462  14.258   3.266   6.408
  875SOL     OW 4463   5.821   9.022   1.456
  875SOL    HW1 4464   5.915   9.041   1.455
  875SOL    HW2 4465   5.814   8.939   1.503
  876SOL     OW 4466   0.978   9.606  14.288
  876SOL    HW1 4467   0.899   9.599  14.234
  876SOL    HW2 4468   1.043   9.647  14.232
  877SOL     OW 4469  13.213   6.010  10.200
  877SOL    HW1 4470  13.217   6.050  10.113
  877SOL    HW2 4471  13.282   5.943  10.199
  878SOL     OW 4472  10.892   5.656   3.732
  878SOL    HW1 4473  10.817   5.601   3.710
  878SOL    HW2 4474  10.856   5.745   3.736
  879SOL     OW 4475   5.552   1.411   8.156
  879SOL    HW1 4476   5.613   1.484   8.162
  879SOL    HW2 4477   5.578   1.353   8.227
  880SOL     OW 4478  12.719   2.233   1.214
  880SOL    HW1 4479  12.741   2.280   1.133
  880SOL    HW2 4480  12.784   2.262   1.278
  881SOL     OW 4481   0.780  12.421   3.853
  881SOL    HW1 4482   0.812  12.364   3.924
  881SOL    HW2 4483   0.858  12.471   3.827
  882SOL     OW 4484  12.603   6.444  10.728
  882SOL    HW1 4485  12.569   6.420  10.642
  882SOL    HW2 4486  12.648   6.365  10.759
  883SOL     OW 4487  12.147   9.293  10.098
  883SOL    HW1 4488  12.170   9.372  10.049
  883SOL    HW2 4489  12.220   9.282  10.159
  884SOL     OW 4490   1.523   4.975   0.790
  884SOL    HW1 4491   1.457   5.041   0.810
  884SOL    HW2 4492   1.564   5.006   0.709
  885SOL     OW 4493   7.856   8.838  10.576
  885SOL    HW1 4494   7.907   8.764  10.609
  885SOL    HW2 4495   7.843   8.818  10.483
  886SOL     OW 4496  12.756  12.854   2.506
  886SOL    HW1 4497  12.831  12.910   2.487
  886SOL    HW2 4498  12.681  12.913   2.499
  887SOL     OW 4499  14.640  11.314   7.874
  887SOL    HW1 4500  14.701  11.320   7.948
  887SOL    HW2 4501  14.660  11.230   7.833
  888SOL     OW 4502   7.206   8.126   7.893
  888SOL    HW1 4503   7.122   8.164   7.918
  888SOL    HW2 4504   7.235   8.179   7.819
  889SOL     OW 4505   2.369  13.594   6.980
  889SOL    HW1 4506   2.305  13.575   6.911
  889SOL    HW2 4507   2.323  13.578   7.062
  890SOL     OW 4508   0.913   8.733  10.659
  890SOL    HW1 4509   0.926   8.716  10.566
  890SOL    HW2 4510   0.822   8.762  10.666
  891SOL     OW 4511   2.111  14.285   4.356
  891SOL    HW1 4512   2.116  14.276   4.261
  891SOL    HW2 4513   2.199  14.311   4.383
  892SOL     OW 4514   5.326   4.206  14.837
  892SOL    HW1 4515   5.403   4.247  14.797
  892SOL    HW2 4516   5.276   4.171  14.763
  893SOL     OW 4517  12.901   1.380  13.490
  893SOL    HW1 4518  12.978   1.431  13.464
  893SOL    HW2 4519  12.901   1.305  13.431
  894SOL     OW 4520   9.813   9.795   3.972
  894SOL    HW1 4521   9.797   9.735   4.044
  894SOL    HW2 4522   9.874   9.860   4.007
  895SOL     OW 4523  14.249  10.658   3.496
  895SOL    HW1 4524  14.300  10.739   3.484
  895SOL    HW2 4525  14.201  10.648   3.414
  896SOL     OW 4526  12.566   1.838  13.937
  896SOL    HW1 4527  12.587   1.755  13.894
  896SOL    HW2 4528  12.601   1.830  14.025
  897SOL     OW 4529   9.434   8.978  13.925
  897SOL    HW1 4530   9.397   9.066  13.916
  897SOL    HW2 4531   9.368   8.920  13.887
  898SOL     OW 4532   4.897  13.682   6.819
  898SOL    HW1 4533   4.955  13.746   6.859
  898SOL    HW2 4534   4.878  13.717   6.732
  899SOL     OW 4535   9.978  13.476   5.565
  899SOL    HW1 4536   9.937  13.478   5.479
  899SOL    HW2 4537   9.942  13.551   5.611
  900SOL     OW 4538  14.063  13.932  14.495
  900SOL    HW1 4539  14.140  13.988  14.503
  900SOL    HW2 4540  14.004  13.981  14.437
  901SOL     OW 4541  11.959  11.819   8.884
  901SOL    HW1 4542  12.005  11.801   8.802
  901SOL    HW2 4543  11.899  11.745   8.895
  902SOL     OW 4544  10.490   4.594  14.596
  902SOL    HW1 4545  10.533   4.614  14.679
  902SOL    HW2 4546  10.422   4.530  14.618
  903SOL     OW 4547   0.430  14.680   8.840
  903SOL    HW1 4548   0.345  14.717   8.812
  903SOL    HW2 4549   0.410  14.635   8.922
  904SOL     OW 4550   0.299   9.266   1.152
  904SOL    HW1 4551   0.313   9.277   1.058
  904SOL    HW2 4552   0.384   9.283   1.191
  905SOL     OW 4553   0.426  14.244  14.717
  905SOL    HW1 4554   0.389  14.227  14.804
  905SOL    HW2 4555   0.388  14.328  14.691
  906SOL     OW 4556  10.503   8.942   3.814
  906SOL    HW1 4557  10.561   8.886   3.763
  906SOL    HW2 4558  10.457   8.882   3.872
  907SOL     OW 4559  10.454   0.338  14.278
  907SOL    HW1 4560  10.521   0.292  14.330
  907SOL    HW2 4561  10.480   0.323  14.187
  908SOL     OW 4562   9.536   2.703   9.392
  908SOL    HW1 4563   9.514   2.756   9.316
  908SOL    HW2 4564   9.464   2.640   9.399
  909SOL     OW 4565  13.269   9.981   7.626
  909SOL    HW1 4566  13.357  10.011   7.649
  909SOL    HW2 4567  13.281   9.925   7.550
  910SOL     OW 4568   3.415   2.220  13.670
  910SOL    HW1 4569   3.420   2.251  13.580
  910SOL    HW2 4570   3.352   2.148  13.667
  911SOL     OW 4571   3.307   7.376   7.816
  911SOL    HW1 4572   3.344   7.299   7.773
  911SOL    HW2 4573   3.355   7.383   7.898
  912SOL     OW 4574   4.767   4.621  14.517
  912SOL    HW1 4575   4.776   4.610  14.612
  912SOL    HW2 4576   4.672   4.625  14.502
  913SOL     OW 4577   3.324   6.445  13.281
  913SOL    HW1 4578   3.302   6.529  13.242
  913SOL    HW2 4579   3.399   6.463  13.338
  914SOL     OW 4580   9.397  12.885   2.412
  914SOL    HW1 4581   9.397  12.945   2.487
  914SOL    HW2 4582   9.349  12.933   2.343
  915SOL     OW 4583   6.211   1.692   1.600
  915SOL    HW1 4584   6.154   1.616   1.599
  915SOL    HW2 4585   6.298   1.658   1.579
  916SOL     OW 4586   4.650  13.686   0.043
  916SOL    HW1 4587   4.637  13.775   0.077
  916SOL    HW2 4588   4.565  13.643   0.057
  917SOL     OW 4589   6.455  13.384   9.217
  917SOL    HW1 4590   6.442  13.295   9.251
  917SOL    HW2 4591   6.414  13.441   9.281
  918SOL     OW 4592  12.569   4.008   5.301
  918SOL    HW1 4593  12.626   4.079   5.331
  918SOL    HW2 4594  12.496   4.053   5.257
  919SOL     OW 4595   5.559   0.876   2.904
  919SOL    HW1 4596   5.540   0.957   2.856
  919SOL    HW2 4597   5.529   0.893   2.993
  920SOL     OW 4598   5.133   0.210   3.971
  920SOL    HW1 4599   5.209   0.194   3.916
  920SOL    HW2 4600   5.137   0.141   4.037
  921SOL     OW 4601   9.198   1.659   0.934
  921SOL    HW1 4602   9.145   1.615   1.000
  921SOL    HW2 4603   9.259   1.592   0.903
  922SOL     OW 4604   1.011   5.149  10.541
  922SOL    HW1 4605   1.031   5.124  10.631
  922SOL    HW2 4606   1.062   5.088  10.487
  923SOL     OW 4607   4.505  13.395   4.053
  923SOL    HW1 4608   4.499  13.299   4.057
  923SOL    HW2 4609   4.519  13.415   3.961
  924SOL     OW 4610  11.146   9.702  10.384
  924SOL    HW1 4611  11.090   9.709  10.307
  924SOL    HW2 4612  11.218   9.645  10.356
  925SOL     OW 4613  13.730   5.870   4.979
  925SOL    HW1 4614  13.687   5.787   4.996
  925SOL    HW2 4615  13.662   5.924   4.937
  926SOL     OW 4616  12.317   0.711  13.516
  926SOL    HW1 4617  12.331   0.747  13.604
  926SOL    HW2 4618  12.234   0.750  13.487
  927SOL     OW 4619   6.691  13.997   0.882
  927SOL    HW1 4620   6.642  14.058   0.937
  927SOL    HW2 4621   6.645  13.914   0.890
  928SOL     OW 4622   4.055   5.899   3.941
  928SOL    HW1 4623   4.109   5.875   4.017
  928SOL    HW2 4624   3.965   5.887   3.971
  929SOL     OW 4625   1.749   3.128   4.186
  929SOL    HW1 4626   1.709   3.200   4.137
  929SOL    HW2 4627   1.843   3.143   4.180
  930SOL     OW 4628  12.612  12.828  13.239
  930SOL    HW1 4629  12.557  12.887  13.186
  930SOL    HW2 4630  12.600  12.742  13.199
  931SOL     OW 4631   6.093   8.922  14.404
  931SOL    HW1 4632   6.061   8.843  14.448
  931SOL    HW2 4633   6.176   8.896  14.364
  932SOL     OW 4634   2.511   8.963   9.106
  932SOL    HW1 4635   2.574   8.913   9.158
  932SOL    HW2 4636   2.453   8.896   9.068
  933SOL     OW 4637  10.188   0.865   7.413
  933SOL    HW1 4638  10.155   0.816   7.488
  933SOL    HW2 4639  10.111   0.902   7.372
  934SOL     OW 4640  10.242   6.775   2.254
  934SOL    HW1 4641  10.261   6.818   2.337
  934SOL    HW2 4642  10.220   6.846   2.194
  935SOL     OW 4643   9.550   4.076  11.209
  935SOL    HW1 4644   9.605   4.023  11.267
  935SOL    HW2 4645   9.467   4.083  11.255
  936SOL     OW 4646   2.964   7.791   4.708
  936SOL    HW1 4647   2.960   7.822   4.799
  936SOL    HW2 4648   2.902   7.718   4.705
  937SOL     OW 4649   9.270   1.683  11.595
  937SOL    HW1 4650   9.231   1.646  11.516
  937SOL    HW2 4651   9.360   1.650  11.596
  938SOL     OW 4652   1.918  13.641  14.461
  938SOL    HW1 4653   1.921  13.731  14.494
  938SOL    HW2 4654   2.004  13.605  14.481
  939SOL     OW 4655   1.790   8.918  12.186
  939SOL    HW1 4656   1.757   8.951  12.102
  939SOL    HW2 4657   1.758   8.828  12.191
  940SOL     OW 4658   1.159   2.815   6.663
  940SOL    HW1 4659   1.231   2.862   6.621
  940SOL    HW2 4660   1.202   2.749   6.718
  941SOL     OW 4661   6.288   3.929   4.624
  941SOL    HW1 4662   6.363   3.974   4.584
  941SOL    HW2 4663   6.253   3.992   4.687
  942SOL     OW 4664   5.872  13.107   0.785
  942SOL    HW1 4665   5.893  13.169   0.716
  942SOL    HW2 4666   5.834  13.161   0.855
  943SOL     OW 4667   7.473   4.742   9.123
  943SOL    HW1 4668   7.519   4.821   9.152
  943SOL    HW2 4669   7.538   4.694   9.072
  944SOL     OW 4670   8.280  13.500   8.228
  944SOL    HW1 4671   8.195  13.515   8.270
  944SOL    HW2 4672   8.302  13.410   8.251
  945SOL     OW 4673   6.704  13.520   2.185
  945SOL    HW1 4674   6.698  13.471   2.103
  945SOL    HW2 4675   6.770  13.587   2.168
  946SOL     OW 4676   3.837   2.357   9.500
  946SOL    HW1 4677   3.919   2.317   9.472
  946SOL    HW2 4678   3.809   2.410   9.425
  947SOL     OW 4679   3.247   2.222   6.878
  947SOL    HW1 4680   3.333   2.246   6.845
  947SOL    HW2 4681   3.255   2.229   6.973
  948SOL     OW 4682   6.813   8.354  11.877
  948SOL    HW1 4683   6.897   8.309  11.875
  948SOL    HW2 4684   6.749   8.286  11.853
  949SOL     OW 4685   8.728   8.330   3.501
  949SOL    HW1 4686   8.790   8.289   3.562
  949SOL    HW2 4687   8.664   8.261   3.483
  950SOL     OW 4688   6.336  13.211   2.164
  950SOL    HW1 4689   6.414  13.240   2.212
  950SOL    HW2 4690   6.289  13.291   2.144
  951SOL     OW 4691   2.431   7.352   8.015
  951SOL    HW1 4692   2.511   7.386   7.973
  951SOL    HW2 4693   2.369   7.425   8.010
  952SOL     OW 4694   3.511  13.531  14.867
  952SOL    HW1 4695   3.440  13.592  14.845
  952SOL    HW2 4696   3.582  13.554  14.808
  953SOL     OW 4697   2.823   5.795  10.265
  953SOL    HW1 4698   2.777   5.719  10.230
  953SOL    HW2 4699   2.839   5.773  10.357
  954SOL     OW 4700   7.809  12.859  13.452
  954SOL    HW1 4701   7.749  12.907  13.509
  954SOL    HW2 4702   7.785  12.887  13.363
  955SOL     OW 4703   1.514   8.987   0.123
  955SOL    HW1 4704   1.575   8.955   0.189
  955SOL    HW2 4705   1.552   9.070   0.093
  956SOL     OW 4706   9.379   8.591  12.311
  956SOL    HW1 4707   9.436   8.515  12.323
  956SOL    HW2 4708   9.438   8.667  12.315
  957SOL     OW 4709   6.030   6.837   3.864
  957SOL    HW1 4710   6.023   6.745   3.838
  957SOL    HW2 4711   5.946   6.876   3.836
  958SOL     OW 4712   8.355   1.024  13.068
  958SOL    HW1 4713   8.307   1.032  13.151
  958SOL    HW2 4714   8.404   0.942  13.076
  959SOL     OW 4715   7.688   4.013  10.933
  959SOL    HW1 4716   7.636   3.950  10.983
  959SOL    HW2 4717   7.664   3.998  10.842
  960SOL     OW 4718   1.605   3.060   3.262
  960SOL    HW1 4719   1.518   3.070   3.223
  960SOL    HW2 4720   1.590   3.066   3.356
  961SOL     OW 4721   5.181   9.671   9.064
  961SOL    HW1 4722   5.205   9.764   9.069
  961SOL    HW2 4723   5.258   9.628   9.029
  962SOL     OW 4724   7.811   1.607   2.684
  962SOL    HW1 4725   7.787   1.519   2.656
  962SOL    HW2 4726   7.755   1.625   2.760
  963SOL     OW 4727   9.122  10.553  10.213
  963SOL    HW1 4728   9.198  10.515  10.257
  963SOL    HW2 4729   9.134  10.530  10.121
  964SOL     OW 4730  11.585   4.001   1.480
  964SOL    HW1 4731  11.540   4.042   1.406
  964SOL    HW2 4732  11.675   4.035   1.474
  965SOL     OW 4733   0.743   2.474   3.572
  965SOL    HW1 4734   0.720   2.401   3.630
  965SOL    HW2 4735   0.740   2.551   3.628
  966SOL     OW 4736   1.620  12.393   8.942
  966SOL    HW1 4737   1.663  12.450   9.005
  966SOL    HW2 4738   1.635  12.435   8.857
  967SOL     OW 4739   3.416   4.647   0.518
  967SOL    HW1 4740   3.474   4.592   0.465
  967SOL    HW2 4741   3.378   4.587   0.582
  968SOL     OW 4742  11.148   1.198   0.223
  968SOL    HW1 4743  11.176   1.251   0.149
  968SOL    HW2 4744  11.228   1.157   0.256
  969SOL     OW 4745  14.462   1.010   1.719
  969SOL    HW1 4746  14.370   0.988   1.708
  969SOL    HW2 4747  14.491   0.957   1.794
  970SOL     OW 4748  14.745   8.866   5.189
  970SOL    HW1 4749  14.688   8.790   5.197
  970SOL    HW2 4750  14.685   8.939   5.173
  971SOL     OW 4751   8.472  10.253   0.643
  971SOL    HW1 4752   8.418  10.181   0.610
  971SOL    HW2 4753   8.411  10.309   0.690
  972SOL     OW 4754   0.565   0.065   1.810
  972SOL    HW1 4755   0.485   0.034   1.768
  972SOL    HW2 4756   0.600  14.862   1.855
  973SOL     OW 4757  12.015   4.189  10.934
  973SOL    HW1 4758  12.066   4.235  11.001
  973SOL    HW2 4759  11.959   4.256  10.896
  974SOL     OW 4760  13.436   3.735   2.353
  974SOL    HW1 4761  13.366   3.750   2.290
  974SOL    HW2 4762  13.392   3.698   2.430
  975SOL     OW 4763  13.107  13.160   4.741
  975SOL    HW1 4764  13.057  13.160   4.822
  975SOL    HW2 4765  13.188  13.113   4.762
  976SOL     OW 4766   9.950  10.472   1.796
  976SOL    HW1 4767   9.929  10.425   1.877
  976SOL    HW2 4768   9.882  10.444   1.735
  977SOL     OW 4769   9.337   4.479  13.414
  977SOL    HW1 4770   9.301   4.563  13.384
  977SOL    HW2 4771   9.294   4.463  13.498
  978SOL     OW 4772  12.314   5.922  14.208
  978SOL    HW1 4773  12.260   6.000  14.215
  978SOL    HW2 4774  12.396   5.945  14.252
  979SOL     OW 4775  14.606  10.933   0.705
  979SOL    HW1 4776  14.613  11.003   0.770
  979SOL    HW2 4777  14.696  10.907   0.688
  980SOL     OW 4778   1.064  11.412   9.236
  980SOL    HW1 4779   1.062  11.368   9.321
  980SOL    HW2 4780   1.107  11.496   9.254
  981SOL     OW 4781   9.602  14.677  14.213
  981SOL    HW1 4782   9.531  14.737  14.238
  981SOL    HW2 4783   9.678  14.711  14.260
  982SOL     OW 4784   2.004   4.947   9.393
  982SOL    HW1 4785   1.976   4.891   9.465
  982SOL    HW2 4786   2.088   4.984   9.422
  983SOL     OW 4787   5.722  14.572  13.772
  983SOL    HW1 4788   5.731  14.658  13.811
  983SOL    HW2 4789   5.633  14.544  13.796
  984SOL     OW 4790   7.646   1.852  12.677
  984SOL    HW1 4791   7.698   1.924  12.713
  984SOL    HW2 4792   7.647   1.867  12.582
  985SOL     OW 4793   7.929   1.383  12.535
  985SOL    HW1 4794   7.943   1.322  12.463
  985SOL    HW2 4795   8.012   1.428  12.545
  986SOL     OW 4796  10.238   8.510   8.462
  986SOL    HW1 4797  10.167   8.550   8.412
  986SOL    HW2 4798  10.276   8.582   8.511
  987SOL     OW 4799   6.245   6.351   8.251
  987SOL    HW1 4800   6.226   6.280   8.190
  987SOL    HW2 4801   6.331   6.383   8.225
  988SOL     OW 4802   0.443   3.084  11.257
  988SOL    HW1 4803   0.399   3.073  11.342
  988SOL    HW2 4804   0.525   3.128  11.279
  989SOL     OW 4805  12.876   5.608  12.261
  989SOL    HW1 4806  12.925   5.686  12.287
  989SOL    HW2 4807  12.842   5.572  12.343
  990SOL     OW 4808   5.558   2.442  10.792
  990SOL    HW1 4809   5.470   2.414  10.813
  990SOL    HW2 4810   5.613   2.366  10.812
  991SOL     OW 4811   8.591   4.079   8.937
  991SOL    HW1 4812   8.637   4.156   8.970
  991SOL    HW2 4813   8.555   4.107   8.852
  992SOL     OW 4814   3.913   9.090   2.325
  992SOL    HW1 4815   3.970   9.154   2.369
  992SOL    HW2 4816   3.970   9.016   2.307
  993SOL     OW 4817   6.693  13.969   1.452
  993SOL    HW1 4818   6.651  13.941   1.371
  993SOL    HW2 4819   6.621  13.981   1.513
  994SOL     OW 4820   0.503   4.045  12.246
  994SOL    HW1 4821   0.534   3.981  12.182
  994SOL    HW2 4822   0.535   4.129  12.213
  995SOL     OW 4823   6.680  10.888   8.192
  995SOL    HW1 4824   6.703  10.830   8.265
  995SOL    HW2 4825   6.630  10.832   8.132
  996SOL     OW 4826   0.367  10.710   7.644
  996SOL    HW1 4827   0.347  10.647   7.575
  996SOL    HW2 4828   0.384  10.657   7.721
  997SOL     OW 4829  13.677   1.318   4.594
  997SOL    HW1 4830  13.644   1.384   4.655
  997SOL    HW2 4831  13.745   1.363   4.545
  998SOL     OW 4832   5.707  10.205  11.671
  998SOL    HW1 4833   5.726  10.114  11.645
  998SOL    HW2 4834   5.729  10.257  11.594
  999SOL     OW 4835   2.552   4.180  14.176
  999SOL    HW1 4836   2.532   4.246  14.243
  999SOL    HW2 4837   2.647   4.185  14.166
 1000SOL     OW 4838   6.614   1.232   8.928
 1000SOL    HW1 4839   6.651   1.301   8.873
 1000SOL    HW2 4840   6.624   1.152   8.877
 1001SOL     OW 4841   5.341   8.189   3.912
 1001SOL    HW1 4842   5.332   8.134   3.834
 1001SOL    HW2 4843   5.273   8.157   3.972
 1002SOL     OW 4844  13.056   9.207   2.478
 1002SOL    HW1 4845  12.987   9.142   2.491
 1002SOL    HW2 4846  13.104   9.175   2.401
 1003SOL     OW 4847   1.306  13.189  13.167
 1003SOL    HW1 4848   1.255  13.196  13.087
 1003SOL    HW2 4849   1.244  13.210  13.237
 1004SOL     OW 4850   9.078   7.165  14.286
 1004SOL    HW1 4851   9.148   7.103  14.308
 1004SOL    HW2 4852   9.098   7.243  14.337
 1005SOL     OW 4853  10.556   4.490   0.384
 1005SOL    HW1 4854  10.612   4.492   0.307
 1005SOL    HW2 4855  10.615   4.475   0.457
 1006SOL     OW 4856   8.117   0.305   8.387
 1006SOL    HW1 4857   8.207   0.278   8.404
 1006SOL    HW2 4858   8.095   0.264   8.304
 1007SOL     OW 4859   0.979   3.321   1.602
 1007SOL    HW1 4860   1.073   3.320   1.584
 1007SOL    HW2 4861   0.938   3.350   1.520
 1008SOL     OW 4862   5.331   1.029  14.240
 1008SOL    HW1 4863   5.264   0.974  14.200
 1008SOL    HW2 4864   5.390   0.968  14.283
 1009SOL     OW 4865  12.833  14.254  11.753
 1009SOL    HW1 4866  12.798  14.332  11.711
 1009SOL    HW2 4867  12.761  14.221  11.807
 1010SOL     OW 4868   9.587  10.465  13.647
 1010SOL    HW1 4869   9.605  10.482  13.739
 1010SOL    HW2 4870   9.577  10.370  13.641
 1011SOL     OW 4871   1.534   6.597   7.339
 1011SOL    HW1 4872   1.463   6.574   7.278
 1011SOL    HW2 4873   1.610   6.549   7.305
 1012SOL     OW 4874   8.824   2.065   6.757
 1012SOL    HW1 4875   8.781   2.043   6.840
 1012SOL    HW2 4876   8.857   1.981   6.724
 1013SOL     OW 4877  13.305   6.307  10.096
 1013SOL    HW1 4878  13.301   6.218  10.062
 1013SOL    HW2 4879  13.333   6.360  10.021
 1014SOL     OW 4880   4.812   6.971   9.498
 1014SOL    HW1 4881   4.787   6.905   9.562
 1014SOL    HW2 4882   4.889   7.013   9.536
 1015SOL     OW 4883   4.236   7.301  11.924
 1015SOL    HW1 4884   4.238   7.235  11.992
 1015SOL    HW2 4885   4.302   7.365  11.950
 1016SOL     OW 4886  11.211   0.149   0.093
 1016SOL    HW1 4887  11.145   0.214   0.119
 1016SOL    HW2 4888  11.281   0.201   0.052
 1017SOL     OW 4889  10.114   0.386  11.740
 1017SOL    HW1 4890  10.031   0.340  11.732
 1017SOL    HW2 4891  10.129   0.393  11.834
 1018SOL     OW 4892   6.144   5.163   9.726
 1018SOL    HW1 4893   6.142   5.200   9.814
 1018SOL    HW2 4894   6.132   5.069   9.740
 1019SOL     OW 4895   0.297   0.769   3.234
 1019SOL    HW1 4896   0.352   0.732   3.166
 1019SOL    HW2 4897   0.210   0.732   3.218
 1020SOL     OW 4898  13.307   0.063   0.960
 1020SOL    HW1 4899  13.252   0.141   0.959
 1020SOL    HW2 4900  13.310   0.034   0.869
 1021SOL     OW 4901   4.390   4.361   5.494
 1021SOL    HW1 4902   4.401   4.405   5.410
 1021SOL    HW2 4903   4.474   4.317   5.509
 1022SOL     OW 4904   9.651   3.052  14.821
 1022SOL    HW1 4905   9.614   3.137  14.797
 1022SOL    HW2 4906   9.575   3.000  14.848
 1023SOL     OW 4907   7.723   5.532   1.714
 1023SOL    HW1 4908   7.640   5.501   1.752
 1023SOL    HW2 4909   7.719   5.506   1.622
 1024SOL     OW 4910   9.193   4.392   0.963
 1024SOL    HW1 4911   9.214   4.374   1.055
 1024SOL    HW2 4912   9.207   4.309   0.918
 1025SOL     OW 4913  14.384  10.001   6.801
 1025SOL    HW1 4914  14.423  10.071   6.749
 1025SOL    HW2 4915  14.456   9.941   6.818
 1026SOL     OW 4916   1.914   3.206   7.291
 1026SOL    HW1 4917   1.996   3.230   7.248
 1026SOL    HW2 4918   1.851   3.272   7.261
 1027SOL     OW 4919  10.817   4.018   3.798
 1027SOL    HW1 4920  10.833   3.944   3.856
 1027SOL    HW2 4921  10.722   4.030   3.800
 1028SOL     OW 4922   8.980   8.496   3.618
 1028SOL    HW1 4923   8.987   8.405   3.645
 1028SOL    HW2 4924   8.999   8.546   3.697
 1029SOL     OW 4925   4.024  11.938   3.571
 1029SOL    HW1 4926   4.087  11.976   3.511
 1029SOL    HW2 4927   3.969  12.011   3.598
 1030SOL     OW 4928   6.582   4.346  12.666
 1030SOL    HW1 4929   6.505   4.377  12.618
 1030SOL    HW2 4930   6.639   4.311  12.597
 1031SOL     OW 4931  14.153   4.290   4.627
 1031SOL    HW1 4932  14.069   4.285   4.581
 1031SOL    HW2 4933  14.153   4.376   4.669
 1032SOL     OW 4934   6.406   0.480   6.577
 1032SOL    HW1 4935   6.398   0.496   6.671
 1032SOL    HW2 4936   6.317   0.489   6.543
 1033SOL     OW 4937   6.875   3.636  10.357
 1033SOL    HW1 4938   6.870   3.688  10.277
 1033SOL    HW2 4939   6.794   3.584  10.356
 1034SOL     OW 4940   1.954   9.564   2.566
 1034SOL    HW1 4941   2.037   9.526   2.536
 1034SOL    HW2 4942   1.922   9.614   2.492
 1035SOL     OW 4943   3.504   3.865   5.170
 1035SOL    HW1 4944   3.430   3.886   5.113
 1035SOL    HW2 4945   3.536   3.951   5.199
 1036SOL     OW 4946   0.629   8.714   4.768
 1036SOL    HW1 4947   0.723   8.718   4.749
 1036SOL    HW2 4948   0.595   8.797   4.736
 1037SOL     OW 4949   2.701   6.305   4.576
 1037SOL    HW1 4950   2.694   6.325   4.483
 1037SOL    HW2 4951   2.683   6.388   4.620
 1038SOL     OW 4952   8.428  14.381   0.657
 1038SOL    HW1 4953   8.351  14.325   0.658
 1038SOL    HW2 4954   8.496  14.328   0.700
 1039SOL     OW 4955   9.083  10.660   0.022
 1039SOL    HW1 4956   9.100  10.582  14.843
 1039SOL    HW2 4957   8.994  10.648   0.054
 1040SOL     OW 4958  14.710   9.183   5.836
 1040SOL    HW1 4959  14.764   9.107   5.813
 1040SOL    HW2 4960  14.681   9.218   5.752
 1041SOL     OW 4961   2.475  14.704   1.556
 1041SOL    HW1 4962   2.393  14.751   1.542
 1041SOL    HW2 4963   2.470  14.674   1.647
 1042SOL     OW 4964  11.918  10.104   9.663
 1042SOL    HW1 4965  11.929  10.156   9.583
 1042SOL    HW2 4966  11.848  10.043   9.642
 1043SOL     OW 4967   1.298   4.134  14.747
 1043SOL    HW1 4968   1.335   4.176  14.824
 1043SOL    HW2 4969   1.316   4.196  14.676
 1044SOL     OW 4970   5.476  11.780   1.215
 1044SOL    HW1 4971   5.500  11.762   1.124
 1044SOL    HW2 4972   5.398  11.728   1.230
 1045SOL     OW 4973   7.465  10.659   7.210
 1045SOL    HW1 4974   7.420  10.587   7.166
 1045SOL    HW2 4975   7.525  10.694   7.144
 1046SOL     OW 4976  10.723  14.327   8.024
 1046SOL    HW1 4977  10.633  14.325   8.057
 1046SOL    HW2 4978  10.721  14.273   7.945
 1047SOL     OW 4979   3.868  11.182   3.306
 1047SOL    HW1 4980   3.913  11.205   3.224
 1047SOL    HW2 4981   3.792  11.239   3.308
 1048SOL     OW 4982   6.772   5.565  13.185
 1048SOL    HW1 4983   6.805   5.475  13.192
 1048SOL    HW2 4984   6.764   5.581  13.091
 1049SOL     OW 4985   8.962  11.743   2.186
 1049SOL    HW1 4986   8.869  11.740   2.162
 1049SOL    HW2 4987   8.990  11.832   2.163
 1050SOL     OW 4988   1.633   7.623   6.119
 1050SOL    HW1 4989   1.599   7.624   6.209
 1050SOL    HW2 4990   1.622   7.533   6.090
 1051SOL     OW 4991   9.203  13.693   1.624
 1051SOL    HW1 4992   9.191  13.603   1.654
 1051SOL    HW2 4993   9.117  13.721   1.593
 1052SOL     OW 4994   0.093  13.206   8.193
 1052SOL    HW1 4995   0.039  13.131   8.217
 1052SOL    HW2 4996   0.129  13.237   8.277
 1053SOL     OW 4997   9.516   8.551   2.784
 1053SOL    HW1 4998   9.576   8.602   2.730
 1053SOL    HW2 4999   9.466   8.499   2.722
 1054SOL     OW 5000   5.343   5.142  13.601
 1054SOL    HW1 5001   5.399   5.201  13.652
 1054SOL    HW2 5002   5.274   5.116  13.661
 1055SOL     OW 5003   1.278   3.157   6.292
 1055SOL    HW1 5004   1.257   3.093   6.359
 1055SOL    HW2 5005   1.197   3.208   6.282
 1056SOL     OW 5006  12.325   3.882   6.559
 1056SOL    HW1 5007  12.385   3.826   6.510
 1056SOL    HW2 5008  12.250   3.894   6.501
 1057SOL     OW 5009  12.805  11.392  11.063
 1057SOL    HW1 5010  12.734  11.457  11.061
 1057SOL    HW2 5011  12.804  11.353  10.976
 1058SOL     OW 5012   7.799  12.349  13.262
 1058SOL    HW1 5013   7.815  12.424  13.318
 1058SOL    HW2 5014   7.760  12.283  13.320
 1059SOL     OW 5015  11.837   8.653   2.447
 1059SOL    HW1 5016  11.914   8.596   2.435
 1059SOL    HW2 5017  11.841   8.714   2.373
 1060SOL     OW 5018   1.268   1.708   8.158
 1060SOL    HW1 5019   1.198   1.763   8.194
 1060SOL    HW2 5020   1.232   1.619   8.160
 1061SOL     OW 5021   4.599   9.144   3.413
 1061SOL    HW1 5022   4.583   9.052   3.432
 1061SOL    HW2 5023   4.622   9.182   3.498
 1062SOL     OW 5024   3.909   4.871   1.874
 1062SOL    HW1 5025   4.003   4.887   1.867
 1062SOL    HW2 5026   3.899   4.830   1.960
 1063SOL     OW 5027   6.196   0.180   6.824
 1063SOL    HW1 5028   6.223   0.168   6.733
 1063SOL    HW2 5029   6.273   0.217   6.867
 1064SOL     OW 5030   5.146  10.091   5.091
 1064SOL    HW1 5031   5.052  10.088   5.109
 1064SOL    HW2 5032   5.182  10.141   5.164
 1065SOL     OW 5033  13.492   2.853   2.374
 1065SOL    HW1 5034  13.502   2.766   2.410
 1065SOL    HW2 5035  13.485   2.840   2.279
 1066SOL     OW 5036   6.085   0.902   1.368
 1066SOL    HW1 5037   6.002   0.908   1.414
 1066SOL    HW2 5038   6.077   0.823   1.314
 1067SOL     OW 5039  10.482   1.400  13.860
 1067SOL    HW1 5040  10.449   1.390  13.771
 1067SOL    HW2 5041  10.411   1.367  13.915
 1068SOL     OW 5042  12.553   0.569  11.909
 1068SOL    HW1 5043  12.549   0.473  11.906
 1068SOL    HW2 5044  12.463   0.596  11.923
 1069SOL     OW 5045   5.729  14.165   5.353
 1069SOL    HW1 5046   5.695  14.076   5.360
 1069SOL    HW2 5047   5.771  14.168   5.267
 1070SOL     OW 5048   9.854  10.973   9.185
 1070SOL    HW1 5049   9.829  10.892   9.139
 1070SOL    HW2 5050   9.773  11.024   9.190
 1071SOL     OW 5051  14.558   4.590   7.854
 1071SOL    HW1 5052  14.591   4.608   7.942
 1071SOL    HW2 5053  14.495   4.519   7.865
 1072SOL     OW 5054   8.267   4.991  12.554
 1072SOL    HW1 5055   8.186   5.043  12.557
 1072SOL    HW2 5056   8.261   4.943  12.472
 1073SOL     OW 5057   7.900  14.670   5.683
 1073SOL    HW1 5058   7.935  14.601   5.628
 1073SOL    HW2 5059   7.877  14.740   5.622
 1074SOL     OW 5060   8.573  10.271  11.343
 1074SOL    HW1 5061   8.608  10.183  11.324
 1074SOL    HW2 5062   8.651  10.325  11.357
 1075SOL     OW 5063  10.378   7.571  14.657
 1075SOL    HW1 5064  10.284   7.555  14.669
 1075SOL    HW2 5065  10.395   7.650  14.708
 1076SOL     OW 5066  11.331  11.156   8.102
 1076SOL    HW1 5067  11.299  11.205   8.027
 1076SOL    HW2 5068  11.361  11.073   8.066
 1077SOL     OW 5069   4.860  10.950  10.466
 1077SOL    HW1 5070   4.765  10.959  10.475
 1077SOL    HW2 5071   4.882  10.876  10.522
 1078SOL     OW 5072  14.756  12.245   1.963
 1078SOL    HW1 5073  14.707  12.320   1.929
 1078SOL    HW2 5074  14.817  12.283   2.026
 1079SOL     OW 5075   2.393  12.944   6.444
 1079SOL    HW1 5076   2.389  13.006   6.371
 1079SOL    HW2 5077   2.403  12.859   6.402
 1080SOL     OW 5078   9.250   1.192   3.875
 1080SOL    HW1 5079   9.327   1.219   3.925
 1080SOL    HW2 5080   9.193   1.268   3.876
 1081SOL     OW 5081  10.427   8.113   9.405
 1081SOL    HW1 5082  10.402   8.029   9.365
 1081SOL    HW2 5083  10.349   8.167   9.397
 1082SOL     OW 5084   7.071   9.817   5.397
 1082SOL    HW1 5085   7.067   9.846   5.488
 1082SOL    HW2 5086   7.104   9.727   5.401
 1083SOL     OW 5087   1.798  12.717   3.866
 1083SOL    HW1 5088   1.749  12.714   3.948
 1083SOL    HW2 5089   1.811  12.811   3.849
 1084SOL     OW 5090   4.233   8.897   3.271
 1084SOL    HW1 5091   4.276   8.979   3.249
 1084SOL    HW2 5092   4.304   8.834   3.282
 1085SOL     OW 5093  12.105   8.788  13.407
 1085SOL    HW1 5094  12.099   8.703  13.450
 1085SOL    HW2 5095  12.024   8.796  13.357
 1086SOL     OW 5096   5.177  10.751   2.952
 1086SOL    HW1 5097   5.216  10.834   2.981
 1086SOL    HW2 5098   5.229  10.727   2.875
 1087SOL     OW 5099  13.223  11.709   7.844
 1087SOL    HW1 5100  13.267  11.726   7.928
 1087SOL    HW2 5101  13.260  11.774   7.784
 1088SOL     OW 5102   3.660  12.126  11.484
 1088SOL    HW1 5103   3.697  12.049  11.440
 1088SOL    HW2 5104   3.730  12.158  11.541
 1089SOL     OW 5105   0.007   9.716   3.397
 1089SOL    HW1 5106   0.044   9.674   3.475
 1089SOL    HW2 5107  14.807   9.766   3.429
 1090SOL     OW 5108   1.667   3.600   8.378
 1090SOL    HW1 5109   1.604   3.599   8.450
 1090SOL    HW2 5110   1.718   3.680   8.392
 1091SOL     OW 5111  13.356  10.866   9.265
 1091SOL    HW1 5112  13.434  10.830   9.222
 1091SOL    HW2 5113  13.318  10.925   9.200
 1092SOL     OW 5114  11.095   9.964   2.212
 1092SOL    HW1 5115  11.106  10.030   2.280
 1092SOL    HW2 5116  11.001   9.963   2.194
 1093SOL     OW 5117   1.815   8.167  13.698
 1093SOL    HW1 5118   1.859   8.213  13.626
 1093SOL    HW2 5119   1.763   8.099  13.654
 1094SOL     OW 5120   2.516   1.691   0.845
 1094SOL    HW1 5121   2.499   1.762   0.783
 1094SOL    HW2 5122   2.597   1.651   0.814
 1095SOL     OW 5123   0.600   2.783   0.502
 1095SOL    HW1 5124   0.557   2.737   0.574
 1095SOL    HW2 5125   0.540   2.854   0.481
 1096SOL     OW 5126  10.767  11.858  12.898
 1096SOL    HW1 5127  10.829  11.929  12.886
 1096SOL    HW2 5128  10.821  11.783  12.925
 1097SOL     OW 5129  11.964   2.722  14.253
 1097SOL    HW1 5130  11.900   2.790  14.234
 1097SOL    HW2 5131  11.941   2.690  14.340
 1098SOL     OW 5132  10.578   3.779   0.030
 1098SOL    HW1 5133  10.489   3.798   0.059
 1098SOL    HW2 5134  10.592   3.838  14.830
 1099SOL     OW 5135   3.802  11.004   9.851
 1099SOL    HW1 5136   3.897  11.013   9.843
 1099SOL    HW2 5137   3.766  11.053   9.778
 1100SOL     OW 5138   6.036   5.717   3.469
 1100SOL    HW1 5139   6.094   5.643   3.451
 1100SOL    HW2 5140   5.949   5.686   3.443
 1101SOL     OW 5141  14.872   4.610   0.185
 1101SOL    HW1 5142   0.053   4.554   0.131
 1101SOL    HW2 5143  14.830   4.670   0.124
 1102SOL     OW 5144   6.409  13.881   1.054
 1102SOL    HW1 5145   6.442  13.824   0.984
 1102SOL    HW2 5146   6.362  13.950   1.008
 1103SOL     OW 5147   1.295   0.306   1.100
 1103SOL    HW1 5148   1.286   0.225   1.051
 1103SOL    HW2 5149   1.348   0.362   1.043
 1104SOL     OW 5150   9.975   1.353   7.634
 1104SOL    HW1 5151   9.996   1.318   7.720
 1104SOL    HW2 5152  10.003   1.285   7.573
 1105SOL     OW 5153   0.477   8.510   3.875
 1105SOL    HW1 5154   0.392   8.467   3.874
 1105SOL    HW2 5155   0.495   8.530   3.784
 1106SOL     OW 5156   8.897   3.602   3.395
 1106SOL    HW1 5157   8.944   3.680   3.423
 1106SOL    HW2 5158   8.841   3.579   3.470
 1107SOL     OW 5159   2.159   6.497  11.170
 1107SOL    HW1 5160   2.103   6.546  11.111
 1107SOL    HW2 5161   2.221   6.452  11.113
 1108SOL     OW 5162  12.260   9.833   2.259
 1108SOL    HW1 5163  12.216   9.916   2.240
 1108SOL    HW2 5164  12.207   9.767   2.214
 1109SOL     OW 5165   9.682   6.376  13.950
 1109SOL    HW1 5166   9.651   6.292  13.915
 1109SOL    HW2 5167   9.777   6.366  13.957
 1110SOL     OW 5168   9.890  13.078  14.254
 1110SOL    HW1 5169   9.892  13.130  14.334
 1110SOL    HW2 5170   9.926  12.993  14.279
 1111SOL     OW 5171  13.991   9.120   0.112
 1111SOL    HW1 5172  13.901   9.141   0.138
 1111SOL    HW2 5173  14.045   9.180   0.162
 1112SOL     OW 5174  10.511   5.710   5.016
 1112SOL    HW1 5175  10.567   5.780   5.050
 1112SOL    HW2 5176  10.449   5.755   4.958
 1113SOL     OW 5177  13.119  12.560  14.268
 1113SOL    HW1 5178  13.098  12.646  14.305
 1113SOL    HW2 5179  13.210  12.567  14.241
 1114SOL     OW 5180   9.846  11.111   6.271
 1114SOL    HW1 5181   9.856  11.054   6.347
 1114SOL    HW2 5182   9.926  11.163   6.270
 1115SOL     OW 5183  12.503   2.667   5.850
 1115SOL    HW1 5184  12.444   2.662   5.926
 1115SOL    HW2 5185  12.446   2.652   5.775
 1116SOL     OW 5186   3.372   1.498  12.618
 1116SOL    HW1 5187   3.379   1.452  12.701
 1116SOL    HW2 5188   3.407   1.586  12.635
 1117SOL     OW 5189  12.758   8.082   9.263
 1117SOL    HW1 5190  12.670   8.114   9.285
 1117SOL    HW2 5191  12.806   8.161   9.237
 1118SOL     OW 5192   8.846  10.917   3.971
 1118SOL    HW1 5193   8.772  10.945   3.917
 1118SOL    HW2 5194   8.836  10.967   4.052
 1119SOL     OW 5195   3.530  13.896   1.248
 1119SOL    HW1 5196   3.512  13.990   1.254
 1119SOL    HW2 5197   3.466  13.856   1.307
 1120SOL     OW 5198   6.960  10.535   8.105
 1120SOL    HW1 5199   7.031  10.482   8.143
 1120SOL    HW2 5200   6.893  10.537   8.174
 1121SOL     OW 5201   4.496   9.306   5.359
 1121SOL    HW1 5202   4.500   9.265   5.446
 1121SOL    HW2 5203   4.425   9.261   5.314
 1122SOL     OW 5204   1.570   9.637   2.152
 1122SOL    HW1 5205   1.503   9.572   2.173
 1122SOL    HW2 5206   1.541   9.716   2.197
 1123SOL     OW 5207   8.838   7.357  12.621
 1123SOL    HW1 5208   8.799   7.440  12.592
 1123SOL    HW2 5209   8.801   7.292  12.561
 1124SOL     OW 5210   8.533   9.729   8.835
 1124SOL    HW1 5211   8.612   9.694   8.794
 1124SOL    HW2 5212   8.562   9.762   8.919
 1125SOL     OW 5213   5.816   2.900   2.945
 1125SOL    HW1 5214   5.888   2.837   2.951
 1125SOL    HW2 5215   5.815   2.943   3.031
 1126SOL     OW 5216   7.636   7.889  11.819
 1126SOL    HW1 5217   7.556   7.890  11.871
 1126SOL    HW2 5218   7.706   7.908  11.882
 1127SOL     OW 5219  12.222   5.324   5.627
 1127SOL    HW1 5220  12.126   5.320   5.630
 1127SOL    HW2 5221  12.251   5.252   5.683
 1128SOL     OW 5222  12.031   6.250   4.966
 1128SOL    HW1 5223  12.046   6.316   5.033
 1128SOL    HW2 5224  11.941   6.265   4.937
 1129SOL     OW 5225   9.346   8.017  14.446
 1129SOL    HW1 5226   9.294   8.038  14.369
 1129SOL    HW2 5227   9.290   8.040  14.520
 1130SOL     OW 5228   7.977   8.743   8.538
 1130SOL    HW1 5229   7.906   8.767   8.478
 1130SOL    HW2 5230   7.984   8.648   8.529
 1131SOL     OW 5231   5.117  14.841   4.479
 1131SOL    HW1 5232   5.112   0.049   4.431
 1131SOL    HW2 5233   5.037  14.839   4.532
 1132SOL     OW 5234  11.078  10.033  12.429
 1132SOL    HW1 5235  11.069  10.118  12.385
 1132SOL    HW2 5236  11.006  10.031  12.491
 1133SOL     OW 5237   5.372   8.157   6.605
 1133SOL    HW1 5238   5.414   8.119   6.528
 1133SOL    HW2 5239   5.441   8.209   6.647
 1134SOL     OW 5240   4.387   0.238  10.058
 1134SOL    HW1 5241   4.417   0.255  10.147
 1134SOL    HW2 5242   4.333   0.314  10.036
 1135SOL     OW 5243   7.833  14.247   8.539
 1135SOL    HW1 5244   7.771  14.204   8.597
 1135SOL    HW2 5245   7.898  14.286   8.597
 1136SOL     OW 5246   1.359   8.694   1.181
 1136SOL    HW1 5247   1.416   8.642   1.125
 1136SOL    HW2 5248   1.412   8.769   1.207
 1137SOL     OW 5249   4.482   5.583   2.098
 1137SOL    HW1 5250   4.504   5.523   2.168
 1137SOL    HW2 5251   4.400   5.625   2.126
 1138SOL     OW 5252   7.628  10.706   8.822
 1138SOL    HW1 5253   7.550  10.679   8.870
 1138SOL    HW2 5254   7.609  10.794   8.792
 1139SOL     OW 5255   2.462   5.194  10.802
 1139SOL    HW1 5256   2.504   5.211  10.887
 1139SOL    HW2 5257   2.534   5.185  10.740
 1140SOL     OW 5258  14.840  11.002  12.099
 1140SOL    HW1 5259  14.763  11.029  12.050
 1140SOL    HW2 5260   0.023  10.962  12.033
 1141SOL     OW 5261  13.607  12.310   3.758
 1141SOL    HW1 5262  13.630  12.364   3.834
 1141SOL    HW2 5263  13.573  12.229   3.796
 1142SOL     OW 5264   8.589   4.497   8.220
 1142SOL    HW1 5265   8.499   4.482   8.249
 1142SOL    HW2 5266   8.627   4.409   8.214
 1143SOL     OW 5267  11.535  11.839  11.680
 1143SOL    HW1 5268  11.458  11.891  11.659
 1143SOL    HW2 5269  11.512  11.793  11.761
 1144SOL     OW 5270   4.773  13.000   9.586
 1144SOL    HW1 5271   4.865  13.004   9.610
 1144SOL    HW2 5272   4.732  12.945   9.652
 1145SOL     OW 5273   6.030   6.820   7.177
 1145SOL    HW1 5274   5.942   6.849   7.156
 1145SOL    HW2 5275   6.080   6.900   7.189
 1146SOL     OW 5276   5.222   7.404  10.296
 1146SOL    HW1 5277   5.150   7.404  10.233
 1146SOL    HW2 5278   5.216   7.490  10.339
 1147SOL     OW 5279   6.648  10.308   7.358
 1147SOL    HW1 5280   6.675  10.241   7.295
 1147SOL    HW2 5281   6.609  10.377   7.305
 1148SOL     OW 5282   6.896  11.694  14.267
 1148SOL    HW1 5283   6.905  11.608  14.227
 1148SOL    HW2 5284   6.805  11.698  14.296
 1149SOL     OW 5285   9.303   9.996   7.519
 1149SOL    HW1 5286   9.251   9.939   7.576
 1149SOL    HW2 5287   9.391   9.958   7.522
 1150SOL     OW 5288  13.767  12.115   2.760
 1150SOL    HW1 5289  13.756  12.210   2.765
 1150SOL    HW2 5290  13.681  12.080   2.784
 1151SOL     OW 5291   0.299  12.521  10.520
 1151SOL    HW1 5292   0.221  12.569  10.492
 1151SOL    HW2 5293   0.365  12.544  10.455
 1152SOL     OW 5294  10.339   9.823  14.434
 1152SOL    HW1 5295  10.385   9.836  14.518
 1152SOL    HW2 5296  10.383   9.883  14.374
 1153SOL     OW 5297  12.982   3.442  11.551
 1153SOL    HW1 5298  13.048   3.511  11.554
 1153SOL    HW2 5299  13.017   3.372  11.605
 1154SOL     OW 5300   6.678  12.719   0.910
 1154SOL    HW1 5301   6.657  12.737   0.818
 1154SOL    HW2 5302   6.593  12.706   0.952
 1155SOL     OW 5303   1.696   4.548   7.571
 1155SOL    HW1 5304   1.708   4.580   7.660
 1155SOL    HW2 5305   1.612   4.583   7.543
 1156SOL     OW 5306   7.679  12.305  10.438
 1156SOL    HW1 5307   7.717  12.304  10.526
 1156SOL    HW2 5308   7.754  12.311  10.379
 1157SOL     OW 5309  13.353  11.414  10.079
 1157SOL    HW1 5310  13.269  11.431  10.122
 1157SOL    HW2 5311  13.353  11.319  10.063
 1158SOL     OW 5312   5.047   6.220   0.012
 1158SOL    HW1 5313   4.980   6.287   0.000
 1158SOL    HW2 5314   5.085   6.208  14.798
 1159SOL     OW 5315   8.155  10.185  13.641
 1159SOL    HW1 5316   8.081  10.233  13.603
 1159SOL    HW2 5317   8.223  10.252  13.650
 1160SOL     OW 5318   4.112   1.359   0.220
 1160SOL    HW1 5319   4.026   1.324   0.244
 1160SOL    HW2 5320   4.173   1.318   0.281
 1161SOL     OW 5321   2.736  14.056  10.296
 1161SOL    HW1 5322   2.813  14.078  10.347
 1161SOL    HW2 5323   2.683  14.002  10.354
 1162SOL     OW 5324   0.748  13.560  12.385
 1162SOL    HW1 5325   0.826  13.570  12.329
 1162SOL    HW2 5326   0.766  13.482  12.437
 1163SOL     OW 5327   5.587  14.858   3.723
 1163SOL    HW1 5328   5.665  14.804   3.735
 1163SOL    HW2 5329   5.619   0.062   3.678
 1164SOL     OW 5330  13.855  14.575  10.285
 1164SOL    HW1 5331  13.881  14.660  10.321
 1164SOL    HW2 5332  13.774  14.592  10.238
 1165SOL     OW 5333   3.454  10.407   3.602
 1165SOL    HW1 5334   3.511  10.365   3.538
 1165SOL    HW2 5335   3.477  10.368   3.686
 1166SOL     OW 5336   2.274   7.974   2.321
 1166SOL    HW1 5337   2.204   7.986   2.385
 1166SOL    HW2 5338   2.311   7.888   2.341
 1167SOL     OW 5339   3.497  11.395   3.916
 1167SOL    HW1 5340   3.438  11.402   3.841
 1167SOL    HW2 5341   3.583  11.419   3.882
 1168SOL     OW 5342  14.421   0.888   5.387
 1168SOL    HW1 5343  14.444   0.955   5.451
 1168SOL    HW2 5344  14.393   0.813   5.439
 1169SOL     OW 5345   1.772   6.226   2.592
 1169SOL    HW1 5346   1.694   6.280   2.576
 1169SOL    HW2 5347   1.808   6.260   2.673
 1170SOL     OW 5348   7.963  12.731   2.963
 1170SOL    HW1 5349   8.047  12.695   2.935
 1170SOL    HW2 5350   7.917  12.657   3.003
 1171SOL     OW 5351   4.405  13.795   2.825
 1171SOL    HW1 5352   4.424  13.709   2.788
 1171SOL    HW2 5353   4.315  13.787   2.857
 1172SOL     OW 5354   7.361   9.829   6.711
 1172SOL    HW1 5355   7.317   9.827   6.626
 1172SOL    HW2 5356   7.454   9.816   6.690
 1173SOL     OW 5357   2.163  11.684   7.257
 1173SOL    HW1 5358   2.250  11.722   7.269
 1173SOL    HW2 5359   2.153  11.675   7.162
 1174SOL     OW 5360   7.923   6.856   6.373
 1174SOL    HW1 5361   7.990   6.911   6.332
 1174SOL    HW2 5362   7.956   6.840   6.461
 1175SOL     OW 5363   3.114  10.477  12.686
 1175SOL    HW1 5364   3.113  10.425  12.606
 1175SOL    HW2 5365   3.022  10.497  12.703
 1176SOL     OW 5366   4.788   4.912  10.888
 1176SOL    HW1 5367   4.722   4.982  10.890
 1176SOL    HW2 5368   4.750   4.841  10.940
 1177SOL     OW 5369   1.048   4.657   5.492
 1177SOL    HW1 5370   1.013   4.573   5.521
 1177SOL    HW2 5371   1.011   4.721   5.554
 1178SOL     OW 5372  11.030   2.211   2.012
 1178SOL    HW1 5373  10.998   2.149   1.947
 1178SOL    HW2 5374  11.056   2.288   1.961
 1179SOL     OW 5375  11.232   5.447   6.213
 1179SOL    HW1 5376  11.152   5.400   6.190
 1179SOL    HW2 5377  11.232   5.524   6.156
 1180SOL     OW 5378   2.770  10.710   4.202
 1180SOL    HW1 5379   2.799  10.622   4.178
 1180SOL    HW2 5380   2.694  10.696   4.258
 1181SOL     OW 5381   0.605   9.659   4.846
 1181SOL    HW1 5382   0.666   9.713   4.796
 1181SOL    HW2 5383   0.521   9.705   4.837
 1182SOL     OW 5384   6.837   5.311  12.912
 1182SOL    HW1 5385   6.774   5.376  12.881
 1182SOL    HW2 5386   6.914   5.363  12.936
 1183SOL     OW 5387   3.578  10.779   4.190
 1183SOL    HW1 5388   3.546  10.702   4.236
 1183SOL    HW2 5389   3.656  10.806   4.240
 1184SOL     OW 5390   5.446  10.233  14.637
 1184SOL    HW1 5391   5.478  10.283  14.562
 1184SOL    HW2 5392   5.526  10.203  14.682
 1185SOL     OW 5393  11.866   4.325   5.713
 1185SOL    HW1 5394  11.801   4.394   5.731
 1185SOL    HW2 5395  11.839   4.252   5.768
 1186SOL     OW 5396  14.400  10.575   9.670
 1186SOL    HW1 5397  14.352  10.515   9.612
 1186SOL    HW2 5398  14.417  10.652   9.615
 1187SOL     OW 5399  12.394   4.607   5.256
 1187SOL    HW1 5400  12.329   4.537   5.270
 1187SOL    HW2 5401  12.439   4.614   5.340
 1188SOL     OW 5402   4.253   7.011   4.428
 1188SOL    HW1 5403   4.225   7.102   4.413
 1188SOL    HW2 5404   4.225   6.964   4.349
 1189SOL     OW 5405   2.189   7.207  14.684
 1189SOL    HW1 5406   2.162   7.299  14.684
 1189SOL    HW2 5407   2.284   7.209  14.696
 1190SOL     OW 5408  13.708   9.369   3.050
 1190SOL    HW1 5409  13.786   9.379   2.996
 1190SOL    HW2 5410  13.676   9.458   3.063
 1191SOL     OW 5411   8.906   0.116  11.330
 1191SOL    HW1 5412   8.828   0.080  11.372
 1191SOL    HW2 5413   8.877   0.142  11.243
 1192SOL     OW 5414  14.290   8.118   9.910
 1192SOL    HW1 5415  14.279   8.186   9.844
 1192SOL    HW2 5416  14.263   8.038   9.867
 1193SOL     OW 5417   3.104   8.410   4.502
 1193SOL    HW1 5418   3.143   8.351   4.567
 1193SOL    HW2 5419   3.034   8.455   4.550
 1194SOL     OW 5420  11.683  14.523  13.802
 1194SOL    HW1 5421  11.627  14.451  13.831
 1194SOL    HW2 5422  11.709  14.498  13.713
 1195SOL     OW 5423  10.093   8.264   3.065
 1195SOL    HW1 5424  10.129   8.338   3.113
 1195SOL    HW2 5425  10.103   8.189   3.123
 1196SOL     OW 5426   6.582   1.878   1.419
 1196SOL    HW1 5427   6.595   1.798   1.367
 1196SOL    HW2 5428   6.585   1.949   1.356
 1197SOL     OW 5429   7.527   8.858   2.932
 1197SOL    HW1 5430   7.604   8.809   2.904
 1197SOL    HW2 5431   7.457   8.792   2.937
 1198SOL     OW 5432   9.339  12.623   2.174
 1198SOL    HW1 5433   9.420  12.599   2.129
 1198SOL    HW2 5434   9.366  12.647   2.263
 1199SOL     OW 5435  14.104   6.143   6.669
 1199SOL    HW1 5436  14.015   6.111   6.683
 1199SOL    HW2 5437  14.125   6.191   6.749
 1200SOL     OW 5438   6.119  13.059   3.598
 1200SOL    HW1 5439   6.028  13.079   3.620
 1200SOL    HW2 5440   6.133  12.971   3.634
 1201SOL     OW 5441  12.146  14.427   8.930
 1201SOL    HW1 5442  12.203  14.426   8.853
 1201SOL    HW2 5443  12.148  14.517   8.960
 1202SOL     OW 5444  12.696   9.614   8.334
 1202SOL    HW1 5445  12.745   9.535   8.314
 1202SOL    HW2 5446  12.709   9.627   8.428
 1203SOL     OW 5447   9.524   9.039   2.881
 1203SOL    HW1 5448   9.528   8.948   2.913
 1203SOL    HW2 5449   9.453   9.079   2.932
 1204SOL     OW 5450   3.364   8.676  14.486
 1204SOL    HW1 5451   3.332   8.623  14.559
 1204SOL    HW2 5452   3.288   8.728  14.459
 1205SOL     OW 5453   3.911  10.493  10.935
 1205SOL    HW1 5454   4.003  10.509  10.957
 1205SOL    HW2 5455   3.913  10.466  10.843
 1206SOL     OW 5456   5.040  13.540  11.771
 1206SOL    HW1 5457   5.058  13.630  11.746
 1206SOL    HW2 5458   5.125  13.496  11.769
 1207SOL     OW 5459   5.227  14.865   5.846
 1207SOL    HW1 5460   5.207   0.029   5.931
 1207SOL    HW2 5461   5.316   0.019   5.827
 1208SOL     OW 5462  11.785   9.068  10.506
 1208SOL    HW1 5463  11.829   9.032  10.430
 1208SOL    HW2 5464  11.816   9.014  10.579
 1209SOL     OW 5465  14.128   8.733   7.812
 1209SOL    HW1 5466  14.063   8.776   7.867
 1209SOL    HW2 5467  14.180   8.804   7.775
 1210SOL     OW 5468   7.973   8.306   0.648
 1210SOL    HW1 5469   7.912   8.275   0.716
 1210SOL    HW2 5470   7.965   8.240   0.578
 1211SOL     OW 5471   8.627  14.630  13.365
 1211SOL    HW1 5472   8.682  14.610  13.442
 1211SOL    HW2 5473   8.575  14.706  13.392
 1212SOL     OW 5474  12.996  11.018  13.878
 1212SOL    HW1 5475  12.982  10.934  13.835
 1212SOL    HW2 5476  12.933  11.019  13.951
 1213SOL     OW 5477   6.347   6.719   4.007
 1213SOL    HW1 5478   6.301   6.729   3.924
 1213SOL    HW2 5479   6.377   6.628   4.007
 1214SOL     OW 5480  12.566   5.441   4.719
 1214SOL    HW1 5481  12.520   5.525   4.709
 1214SOL    HW2 5482  12.647   5.453   4.669
 1215SOL     OW 5483  10.316   9.515   9.028
 1215SOL    HW1 5484  10.360   9.599   9.023
 1215SOL    HW2 5485  10.227   9.532   8.996
 1216SOL     OW 5486   0.055   2.533   2.108
 1216SOL    HW1 5487   0.085   2.467   2.045
 1216SOL    HW2 5488   0.123   2.535   2.174
 1217SOL     OW 5489  12.585   0.817   7.948
 1217SOL    HW1 5490  12.601   0.911   7.941
 1217SOL    HW2 5491  12.644   0.777   7.883
 1218SOL     OW 5492  11.185   0.347   1.847
 1218SOL    HW1 5493  11.277   0.319   1.845
 1218SOL    HW2 5494  11.174   0.401   1.769
 1219SOL     OW 5495   1.490  10.903  13.149
 1219SOL    HW1 5496   1.536  10.854  13.217
 1219SOL    HW2 5497   1.530  10.873  13.067
 1220SOL     OW 5498  10.014  11.738   4.373
 1220SOL    HW1 5499   9.933  11.748   4.321
 1220SOL    HW2 5500  10.024  11.822   4.418
 1221SOL     OW 5501   1.487   4.212  12.351
 1221SOL    HW1 5502   1.467   4.120  12.330
 1221SOL    HW2 5503   1.583   4.215  12.352
 1222SOL     OW 5504  14.829   5.341   4.171
 1222SOL    HW1 5505   0.027   5.393   4.206
 1222SOL    HW2 5506  14.828   5.262   4.224
 1223SOL     OW 5507  12.723   6.410   1.175
 1223SOL    HW1 5508  12.814   6.381   1.170
 1223SOL    HW2 5509  12.680   6.344   1.230
 1224SOL     OW 5510   9.192   1.105  10.440
 1224SOL    HW1 5511   9.170   1.136  10.352
 1224SOL    HW2 5512   9.222   1.015  10.427
 1225SOL     OW 5513   4.026   2.157  11.008
 1225SOL    HW1 5514   3.943   2.204  11.005
 1225SOL    HW2 5515   4.078   2.198  10.938
 1226SOL     OW 5516  10.558   6.542  10.344
 1226SOL    HW1 5517  10.604   6.467  10.306
 1226SOL    HW2 5518  10.598   6.555  10.429
 1227SOL     OW 5519  10.652   0.229  12.557
 1227SOL    HW1 5520  10.680   0.201  12.645
 1227SOL    HW2 5521  10.560   0.252  12.568
 1228SOL     OW 5522   4.644  13.667   1.295
 1228SOL    HW1 5523   4.648  13.594   1.357
 1228SOL    HW2 5524   4.570  13.720   1.324
 1229SOL     OW 5525   7.569   4.869   3.995
 1229SOL    HW1 5526   7.657   4.849   4.028
 1229SOL    HW2 5527   7.541   4.788   3.953
 1230SOL     OW 5528   4.943   8.399  11.243
 1230SOL    HW1 5529   4.967   8.433  11.157
 1230SOL    HW2 5530   4.962   8.471  11.303
 1231SOL     OW 5531   3.668  12.357   6.820
 1231SOL    HW1 5532   3.643  12.337   6.910
 1231SOL    HW2 5533   3.732  12.289   6.798
 1232SOL     OW 5534  11.807  12.108  14.236
 1232SOL    HW1 5535  11.834  12.055  14.311
 1232SOL    HW2 5536  11.722  12.071  14.211
 1233SOL     OW 5537   1.968  10.266  13.827
 1233SOL    HW1 5538   1.911  10.192  13.803
 1233SOL    HW2 5539   1.965  10.268  13.923
 1234SOL     OW 5540   3.620   2.520   5.183
 1234SOL    HW1 5541   3.618   2.441   5.236
 1234SOL    HW2 5542   3.682   2.577   5.227
 1235SOL     OW 5543   6.139   9.908  14.357
 1235SOL    HW1 5544   6.216   9.881  14.408
 1235SOL    HW2 5545   6.172   9.976  14.298
 1236SOL     OW 5546   7.646   9.877  13.101
 1236SOL    HW1 5547   7.608   9.789  13.097
 1236SOL    HW2 5548   7.665   9.900  13.010
 1237SOL     OW 5549   5.946   2.271   2.968
 1237SOL    HW1 5550   5.909   2.204   2.911
 1237SOL    HW2 5551   6.028   2.233   2.999
 1238SOL     OW 5552  13.520  13.916  13.759
 1238SOL    HW1 5553  13.464  13.874  13.694
 1238SOL    HW2 5554  13.501  13.871  13.841
 1239SOL     OW 5555  12.467  10.471   7.308
 1239SOL    HW1 5556  12.429  10.423   7.235
 1239SOL    HW2 5557  12.535  10.412   7.342
 1240SOL     OW 5558  11.799   9.901  10.169
 1240SOL    HW1 5559  11.797   9.917  10.075
 1240SOL    HW2 5560  11.707   9.907  10.196
 1241SOL     OW 5561   7.005   4.267   3.424
 1241SOL    HW1 5562   7.060   4.345   3.412
 1241SOL    HW2 5563   7.010   4.222   3.339
 1242SOL     OW 5564   8.081  10.695  12.617
 1242SOL    HW1 5565   8.073  10.692  12.521
 1242SOL    HW2 5566   8.028  10.622  12.648
 1243SOL     OW 5567  14.474   8.067   1.299
 1243SOL    HW1 5568  14.419   8.100   1.370
 1243SOL    HW2 5569  14.413   8.033   1.235
 1244SOL     OW 5570   8.455   7.835   4.987
 1244SOL    HW1 5571   8.445   7.740   4.984
 1244SOL    HW2 5572   8.370   7.867   5.015
 1245SOL     OW 5573   5.218  13.075  10.884
 1245SOL    HW1 5574   5.300  13.067  10.934
 1245SOL    HW2 5575   5.210  13.168  10.866
 1246SOL     OW 5576   6.650   0.737   3.621
 1246SOL    HW1 5577   6.560   0.760   3.645
 1246SOL    HW2 5578   6.675   0.669   3.685
 1247SOL     OW 5579   3.671   7.416   2.955
 1247SOL    HW1 5580   3.584   7.394   2.987
 1247SOL    HW2 5581   3.719   7.333   2.954
 1248SOL     OW 5582   1.756   5.835  12.562
 1248SOL    HW1 5583   1.821   5.809  12.497
 1248SOL    HW2 5584   1.700   5.898  12.516
 1249SOL     OW 5585   2.482  12.411   1.906
 1249SOL    HW1 5586   2.410  12.384   1.963
 1249SOL    HW2 5587   2.481  12.506   1.910
 1250SOL     OW 5588   0.327   2.214   1.011
 1250SOL    HW1 5589   0.319   2.149   0.942
 1250SOL    HW2 5590   0.296   2.295   0.971
 1251SOL     OW 5591   2.913  12.637   5.936
 1251SOL    HW1 5592   2.915  12.662   5.844
 1251SOL    HW2 5593   2.863  12.707   5.979
 1252SOL     OW 5594   8.362  12.000   0.011
 1252SOL    HW1 5595   8.353  12.029  14.795
 1252SOL    HW2 5596   8.387  12.079   0.059
 1253SOL     OW 5597   6.323   1.475   1.036
 1253SOL    HW1 5598   6.419   1.479   1.034
 1253SOL    HW2 5599   6.295   1.563   1.010
 1254SOL     OW 5600   2.943  13.129   2.500
 1254SOL    HW1 5601   2.877  13.124   2.431
 1254SOL    HW2 5602   2.934  13.047   2.548
 1255SOL     OW 5603   4.149   8.702  11.012
 1255SOL    HW1 5604   4.152   8.644  11.088
 1255SOL    HW2 5605   4.110   8.783  11.045
 1256SOL     OW 5606  12.250   5.813   2.316
 1256SOL    HW1 5607  12.288   5.828   2.230
 1256SOL    HW2 5608  12.292   5.878   2.373
 1257SOL     OW 5609   8.027   9.502   9.707
 1257SOL    HW1 5610   7.956   9.529   9.766
 1257SOL    HW2 5611   7.981   9.470   9.628
 1258SOL     OW 5612  10.602  13.842  14.378
 1258SOL    HW1 5613  10.528  13.831  14.319
 1258SOL    HW2 5614  10.673  13.873  14.322
 1259SOL     OW 5615   5.746   6.686  10.376
 1259SOL    HW1 5616   5.689   6.658  10.447
 1259SOL    HW2 5617   5.691   6.682  10.298
 1260SOL     OW 5618   0.495   2.558   7.921
 1260SOL    HW1 5619   0.559   2.558   7.850
 1260SOL    HW2 5620   0.431   2.492   7.896
 1261SOL     OW 5621  14.191   5.114  11.678
 1261SOL    HW1 5622  14.167   5.028  11.715
 1261SOL    HW2 5623  14.286   5.109  11.668
 1262SOL     OW 5624   4.087   5.058  13.832
 1262SOL    HW1 5625   4.141   4.999  13.780
 1262SOL    HW2 5626   4.138   5.139  13.837
 1263SOL     OW 5627   3.573   0.934  13.493
 1263SOL    HW1 5628   3.620   0.856  13.522
 1263SOL    HW2 5629   3.642   1.000  13.479
 1264SOL     OW 5630  11.689   6.709   5.209
 1264SOL    HW1 5631  11.627   6.743   5.273
 1264SOL    HW2 5632  11.693   6.775   5.141
 1265SOL     OW 5633  12.975   6.323   1.767
 1265SOL    HW1 5634  13.032   6.248   1.750
 1265SOL    HW2 5635  12.956   6.358   1.680
 1266SOL     OW 5636   6.823   2.857   7.510
 1266SOL    HW1 5637   6.864   2.789   7.564
 1266SOL    HW2 5638   6.786   2.919   7.573
 1267SOL     OW 5639   4.937  13.196  10.745
 1267SOL    HW1 5640   5.020  13.240  10.727
 1267SOL    HW2 5641   4.906  13.236  10.827
 1268SOL     OW 5642   9.489   7.357   5.330
 1268SOL    HW1 5643   9.446   7.306   5.399
 1268SOL    HW2 5644   9.463   7.447   5.349
 1269SOL     OW 5645   4.492  14.859  10.961
 1269SOL    HW1 5646   4.418  14.830  10.908
 1269SOL    HW2 5647   4.531  14.777  10.993
 1270SOL     OW 5648  13.278   4.626   5.902
 1270SOL    HW1 5649  13.310   4.688   5.967
 1270SOL    HW2 5650  13.328   4.546   5.920
 1271SOL     OW 5651   4.750   1.004  11.120
 1271SOL    HW1 5652   4.775   1.096  11.113
 1271SOL    HW2 5653   4.832   0.958  11.136
 1272SOL     OW 5654   9.515  14.025   4.966
 1272SOL    HW1 5655   9.530  14.083   4.892
 1272SOL    HW2 5656   9.565  14.064   5.038
 1273SOL     OW 5657   2.760   4.852   5.478
 1273SOL    HW1 5658   2.702   4.823   5.408
 1273SOL    HW2 5659   2.812   4.775   5.500
 1274SOL     OW 5660   7.066   6.673  11.851
 1274SOL    HW1 5661   7.049   6.694  11.760
 1274SOL    HW2 5662   6.995   6.615  11.877
 1275SOL     OW 5663   6.685  10.659   6.202
 1275SOL    HW1 5664   6.610  10.672   6.259
 1275SOL    HW2 5665   6.691  10.741   6.153
 1276SOL     OW 5666   8.219   7.542   3.864
 1276SOL    HW1 5667   8.244   7.601   3.793
 1276SOL    HW2 5668   8.200   7.600   3.938
 1277SOL     OW 5669   0.281   7.830   3.438
 1277SOL    HW1 5670   0.328   7.774   3.500
 1277SOL    HW2 5671   0.345   7.896   3.412
 1278SOL     OW 5672   8.748  14.651   0.293
 1278SOL    HW1 5673   8.773  14.565   0.326
 1278SOL    HW2 5674   8.669  14.635   0.241
 1279SOL     OW 5675  13.431   8.381   2.979
 1279SOL    HW1 5676  13.482   8.317   3.027
 1279SOL    HW2 5677  13.476   8.464   2.995
 1280SOL     OW 5678   0.907  11.336   2.113
 1280SOL    HW1 5679   0.971  11.389   2.161
 1280SOL    HW2 5680   0.828  11.389   2.112
 1281SOL     OW 5681   7.245   7.548   8.380
 1281SOL    HW1 5682   7.301   7.493   8.326
 1281SOL    HW2 5683   7.306   7.607   8.424
 1282SOL     OW 5684   7.421   7.257   6.814
 1282SOL    HW1 5685   7.429   7.163   6.833
 1282SOL    HW2 5686   7.415   7.298   6.900
 1283SOL     OW 5687   6.466  12.783   0.052
 1283SOL    HW1 5688   6.505  12.810  14.843
 1283SOL    HW2 5689   6.439  12.865   0.093
 1284SOL     OW 5690   8.794   8.779   6.898
 1284SOL    HW1 5691   8.804   8.757   6.805
 1284SOL    HW2 5692   8.853   8.718   6.943
 1285SOL     OW 5693  10.594  14.808   9.954
 1285SOL    HW1 5694  10.563   0.016   9.915
 1285SOL    HW2 5695  10.611  14.830  10.045
 1286SOL     OW 5696   2.127   1.821  14.229
 1286SOL    HW1 5697   2.203   1.762  14.231
 1286SOL    HW2 5698   2.052   1.763  14.246
 1287SOL     OW 5699   6.028   3.712   6.277
 1287SOL    HW1 5700   6.048   3.626   6.314
 1287SOL    HW2 5701   6.038   3.772   6.351
 1288SOL     OW 5702  10.010  13.962   2.226
 1288SOL    HW1 5703   9.942  14.005   2.277
 1288SOL    HW2 5704  10.017  13.875   2.265
 1289SOL     OW 5705   0.374  12.511   2.202
 1289SOL    HW1 5706   0.448  12.499   2.261
 1289SOL    HW2 5707   0.304  12.545   2.258
 1290SOL     OW 5708   7.767   7.251   3.956
 1290SOL    HW1 5709   7.721   7.317   4.008
 1290SOL    HW2 5710   7.843   7.298   3.922
 1291SOL     OW 5711  10.773  13.470  11.234
 1291SOL    HW1 5712  10.712  13.505  11.299
 1291SOL    HW2 5713  10.739  13.501  11.150
 1292SOL     OW 5714   1.097  10.546   7.941
 1292SOL    HW1 5715   1.149  10.480   7.988
 1292SOL    HW2 5716   1.007  10.527   7.966
 1293SOL     OW 5717   2.283   6.812   7.392
 1293SOL    HW1 5718   2.368   6.855   7.402
 1293SOL    HW2 5719   2.219   6.882   7.402
 1294SOL     OW 5720   7.435  10.190   5.544
 1294SOL    HW1 5721   7.436  10.221   5.453
 1294SOL    HW2 5722   7.491  10.251   5.592
 1295SOL     OW 5723  10.205   3.482   9.650
 1295SOL    HW1 5724  10.156   3.402   9.666
 1295SOL    HW2 5725  10.187   3.537   9.726
 1296SOL     OW 5726   8.262   7.299   2.054
 1296SOL    HW1 5727   8.261   7.394   2.065
 1296SOL    HW2 5728   8.179   7.279   2.012
 1297SOL     OW 5729  11.541   6.740   4.247
 1297SOL    HW1 5730  11.581   6.656   4.267
 1297SOL    HW2 5731  11.583   6.768   4.166
 1298SOL     OW 5732   2.189   7.551  10.047
 1298SOL    HW1 5733   2.214   7.460  10.058
 1298SOL    HW2 5734   2.094   7.552  10.061
 1299SOL     OW 5735  14.646   2.612   8.870
 1299SOL    HW1 5736  14.573   2.643   8.816
 1299SOL    HW2 5737  14.657   2.521   8.844
 1300SOL     OW 5738   7.481  14.869   8.790
 1300SOL    HW1 5739   7.513   0.028   8.874
 1300SOL    HW2 5740   7.560  14.843   8.743
 1301SOL     OW 5741  14.192  12.101   2.833
 1301SOL    HW1 5742  14.194  12.122   2.926
 1301SOL    HW2 5743  14.113  12.048   2.822
 1302SOL     OW 5744   9.557  11.290   8.459
 1302SOL    HW1 5745   9.474  11.315   8.500
 1302SOL    HW2 5746   9.602  11.373   8.445
 1303SOL     OW 5747   6.537   9.500   4.064
 1303SOL    HW1 5748   6.495   9.460   4.140
 1303SOL    HW2 5749   6.630   9.475   4.072
 1304SOL     OW 5750  12.630  13.026  14.649
 1304SOL    HW1 5751  12.688  13.089  14.692
 1304SOL    HW2 5752  12.613  12.959  14.716
 1305SOL     OW 5753   2.548   6.763   7.595
 1305SOL    HW1 5754   2.477   6.780   7.656
 1305SOL    HW2 5755   2.615   6.719   7.647
 1306SOL     OW 5756  13.037  11.197   7.843
 1306SOL    HW1 5757  12.992  11.268   7.890
 1306SOL    HW2 5758  13.129  11.209   7.864
 1307SOL     OW 5759   0.119  13.592  11.791
 1307SOL    HW1 5760   0.149  13.587  11.882
 1307SOL    HW2 5761   0.075  13.677  11.785
 1308SOL     OW 5762   9.970   8.504  12.313
 1308SOL    HW1 5763  10.041   8.498  12.377
 1308SOL    HW2 5764   9.894   8.465  12.357
 1309SOL     OW 5765   9.679   8.648  13.410
 1309SOL    HW1 5766   9.617   8.625  13.341
 1309SOL    HW2 5767   9.636   8.620  13.491
 1310SOL     OW 5768  14.333   6.596  12.421
 1310SOL    HW1 5769  14.288   6.669  12.464
 1310SOL    HW2 5770  14.321   6.522  12.481
 1311SOL     OW 5771   1.628   8.784   2.248
 1311SOL    HW1 5772   1.593   8.742   2.170
 1311SOL    HW2 5773   1.678   8.858   2.214
 1312SOL     OW 5774   1.916   2.102   2.746
 1312SOL    HW1 5775   1.878   2.085   2.660
 1312SOL    HW2 5776   1.867   2.044   2.805
 1313SOL     OW 5777   0.829  10.466   4.755
 1313SOL    HW1 5778   0.761  10.439   4.816
 1313SOL    HW2 5779   0.907  10.480   4.810
 1314SOL     OW 5780   2.408   9.460   1.728
 1314SOL    HW1 5781   2.337   9.398   1.746
 1314SOL    HW2 5782   2.422   9.505   1.812
 1315SOL     OW 5783  13.941  13.624   8.734
 1315SOL    HW1 5784  14.008  13.658   8.793
 1315SOL    HW2 5785  13.879  13.579   8.791
 1316SOL     OW 5786   8.657   2.046   6.991
 1316SOL    HW1 5787   8.621   2.058   7.079
 1316SOL    HW2 5788   8.603   1.977   6.952
 1317SOL     OW 5789  13.468  14.660  13.654
 1317SOL    HW1 5790  13.542  14.616  13.694
 1317SOL    HW2 5791  13.497  14.682  13.566
 1318SOL     OW 5792  11.898  11.738   9.576
 1318SOL    HW1 5793  11.960  11.688   9.523
 1318SOL    HW2 5794  11.948  11.768   9.651
 1319SOL     OW 5795   5.367   9.361   7.549
 1319SOL    HW1 5796   5.278   9.392   7.564
 1319SOL    HW2 5797   5.359   9.266   7.541
 1320SOL     OW 5798   7.255   4.993   6.059
 1320SOL    HW1 5799   7.276   5.069   6.113
 1320SOL    HW2 5800   7.162   5.001   6.041
 1321SOL     OW 5801   4.970   8.700  14.852
 1321SOL    HW1 5802   5.018   8.648  14.789
 1321SOL    HW2 5803   5.035   8.759   0.015
 1322SOL     OW 5804   3.648  13.151  13.032
 1322SOL    HW1 5805   3.644  13.074  13.088
 1322SOL    HW2 5806   3.741  13.165  13.016
 1323SOL     OW 5807   5.564  11.401   9.317
 1323SOL    HW1 5808   5.607  11.397   9.402
 1323SOL    HW2 5809   5.509  11.479   9.322
 1324SOL     OW 5810   6.757   3.065   7.680
 1324SOL    HW1 5811   6.787   3.138   7.734
 1324SOL    HW2 5812   6.669   3.090   7.652
 1325SOL     OW 5813   5.587  12.347   9.310
 1325SOL    HW1 5814   5.680  12.350   9.334
 1325SOL    HW2 5815   5.542  12.381   9.388
 1326SOL     OW 5816   8.167   0.352   4.253
 1326SOL    HW1 5817   8.113   0.277   4.279
 1326SOL    HW2 5818   8.243   0.313   4.210
 1327SOL     OW 5819   3.900   6.358  13.543
 1327SOL    HW1 5820   3.967   6.421  13.517
 1327SOL    HW2 5821   3.882   6.379  13.635
 1328SOL     OW 5822  13.988   4.058   7.960
 1328SOL    HW1 5823  13.939   4.081   8.039
 1328SOL    HW2 5824  13.967   3.965   7.945
 1329SOL     OW 5825  13.996  12.776  10.440
 1329SOL    HW1 5826  13.934  12.703  10.444
 1329SOL    HW2 5827  13.940  12.853  10.425
 1330SOL     OW 5828   4.842  11.420   7.878
 1330SOL    HW1 5829   4.748  11.440   7.886
 1330SOL    HW2 5830   4.845  11.344   7.820
 1331SOL     OW 5831  13.317   5.644   5.962
 1331SOL    HW1 5832  13.293   5.736   5.972
 1331SOL    HW2 5833  13.242   5.595   5.996
 1332SOL     OW 5834   0.823   4.410   0.590
 1332SOL    HW1 5835   0.914   4.439   0.581
 1332SOL    HW2 5836   0.794   4.447   0.674
 1333SOL     OW 5837   1.685  12.988  14.527
 1333SOL    HW1 5838   1.670  13.029  14.442
 1333SOL    HW2 5839   1.620  12.917  14.532
 1334SOL     OW 5840   4.263  12.554   7.348
 1334SOL    HW1 5841   4.244  12.486   7.284
 1334SOL    HW2 5842   4.191  12.549   7.411
 1335SOL     OW 5843   7.727  12.226   0.636
 1335SOL    HW1 5844   7.731  12.145   0.688
 1335SOL    HW2 5845   7.679  12.287   0.691
 1336SOL     OW 5846  12.330   6.695  12.783
 1336SOL    HW1 5847  12.258   6.632  12.776
 1336SOL    HW2 5848  12.324   6.730  12.872
 1337SOL     OW 5849   5.852   2.934   1.226
 1337SOL    HW1 5850   5.853   3.028   1.210
 1337SOL    HW2 5851   5.942   2.906   1.209
 1338SOL     OW 5852   2.914   6.665  13.428
 1338SOL    HW1 5853   2.844   6.603  13.445
 1338SOL    HW2 5854   2.948   6.687  13.514
 1339SOL     OW 5855   2.254   4.453   1.090
 1339SOL    HW1 5856   2.241   4.536   1.044
 1339SOL    HW2 5857   2.295   4.396   1.026
 1340SOL     OW 5858  12.250  13.497   0.208
 1340SOL    HW1 5859  12.264  13.429   0.142
 1340SOL    HW2 5860  12.179  13.463   0.262
 1341SOL     OW 5861   9.106  10.059   4.342
 1341SOL    HW1 5862   9.161  10.061   4.420
 1341SOL    HW2 5863   9.054  10.139   4.347
 1342SOL     OW 5864   1.256  10.095   5.037
 1342SOL    HW1 5865   1.164  10.111   5.061
 1342SOL    HW2 5866   1.277  10.011   5.079
 1343SOL     OW 5867  13.370  11.601   3.334
 1343SOL    HW1 5868  13.418  11.603   3.416
 1343SOL    HW2 5869  13.419  11.539   3.279
 1344SOL     OW 5870  11.778   5.936   0.586
 1344SOL    HW1 5871  11.691   5.898   0.599
 1344SOL    HW2 5872  11.835   5.886   0.644
 1345SOL     OW 5873  13.504   0.049  12.619
 1345SOL    HW1 5874  13.489   0.019  12.529
 1345SOL    HW2 5875  13.585   0.101  12.613
 1346SOL     OW 5876   5.925   7.418   8.745
 1346SOL    HW1 5877   5.946   7.325   8.729
 1346SOL    HW2 5878   5.982   7.443   8.818
 1347SOL     OW 5879   4.079  12.788   4.832
 1347SOL    HW1 5880   4.068  12.844   4.755
 1347SOL    HW2 5881   3.999  12.801   4.883
 1348SOL     OW 5882   4.429  13.089   7.286
 1348SOL    HW1 5883   4.500  13.045   7.333
 1348SOL    HW2 5884   4.362  13.103   7.353
 1349SOL     OW 5885   4.534   5.650   5.074
 1349SOL    HW1 5886   4.542   5.626   5.166
 1349SOL    HW2 5887   4.457   5.602   5.043
 1350SOL     OW 5888   3.420   6.060  12.302
 1350SOL    HW1 5889   3.394   6.006  12.227
 1350SOL    HW2 5890   3.368   6.026  12.375
 1351SOL     OW 5891  12.543   4.116   7.990
 1351SOL    HW1 5892  12.637   4.096   7.994
 1351SOL    HW2 5893  12.516   4.085   7.904
 1352SOL     OW 5894  11.492   4.081   4.762
 1352SOL    HW1 5895  11.454   4.112   4.844
 1352SOL    HW2 5896  11.423   4.028   4.722
 1353SOL     OW 5897   8.180   0.019   5.891
 1353SOL    HW1 5898   8.125  14.815   5.896
 1353SOL    HW2 5899   8.270  14.860   5.894
 1354SOL     OW 5900   8.463   4.776  11.403
 1354SOL    HW1 5901   8.555   4.762  11.427
 1354SOL    HW2 5902   8.451   4.870  11.407
 1355SOL     OW 5903  13.697  13.570  11.559
 1355SOL    HW1 5904  13.651  13.522  11.627
 1355SOL    HW2 5905  13.788  13.572  11.588
 1356SOL     OW 5906  11.237   5.151  11.978
 1356SOL    HW1 5907  11.143   5.152  11.957
 1356SOL    HW2 5908  11.273   5.223  11.925
 1357SOL     OW 5909  11.466  12.438  12.363
 1357SOL    HW1 5910  11.467  12.513  12.304
 1357SOL    HW2 5911  11.545  12.389  12.341
 1358SOL     OW 5912  10.866  14.802   4.935
 1358SOL    HW1 5913  10.907  14.769   5.014
 1358SOL    HW2 5914  10.779  14.763   4.935
 1359SOL     OW 5915  13.302   2.689  13.157
 1359SOL    HW1 5916  13.364   2.754  13.123
 1359SOL    HW2 5917  13.337   2.665  13.243
 1360SOL     OW 5918   7.934  14.173   5.763
 1360SOL    HW1 5919   7.994  14.221   5.706
 1360SOL    HW2 5920   7.945  14.214   5.849
 1361SOL     OW 5921  11.811   1.268   8.265
 1361SOL    HW1 5922  11.850   1.217   8.194
 1361SOL    HW2 5923  11.883   1.323   8.297
 1362SOL     OW 5924   7.276   7.443   5.580
 1362SOL    HW1 5925   7.242   7.388   5.510
 1362SOL    HW2 5926   7.233   7.528   5.566
 1363SOL     OW 5927   6.865   7.034   2.468
 1363SOL    HW1 5928   6.791   7.067   2.518
 1363SOL    HW2 5929   6.866   6.940   2.486
 1364SOL     OW 5930   9.284  14.871   6.398
 1364SOL    HW1 5931   9.206   0.026   6.351
 1364SOL    HW2 5932   9.260  14.784   6.432
 1365SOL     OW 5933   7.573  12.030   1.621
 1365SOL    HW1 5934   7.508  12.027   1.692
 1365SOL    HW2 5935   7.529  11.986   1.547
 1366SOL     OW 5936   7.836  12.808  10.860
 1366SOL    HW1 5937   7.749  12.847  10.866
 1366SOL    HW2 5938   7.830  12.728  10.912
 1367SOL     OW 5939   6.860  14.593   8.060
 1367SOL    HW1 5940   6.826  14.682   8.050
 1367SOL    HW2 5941   6.814  14.541   7.995
 1368SOL     OW 5942  14.223   4.418   0.234
 1368SOL    HW1 5943  14.268   4.368   0.166
 1368SOL    HW2 5944  14.210   4.356   0.305
 1369SOL     OW 5945  11.798  14.279   1.767
 1369SOL    HW1 5946  11.855  14.207   1.738
 1369SOL    HW2 5947  11.809  14.282   1.862
 1370SOL     OW 5948   1.565   0.423  11.407
 1370SOL    HW1 5949   1.571   0.515  11.433
 1370SOL    HW2 5950   1.476   0.414  11.373
 1371SOL     OW 5951   8.070  13.840   1.928
 1371SOL    HW1 5952   8.021  13.902   1.983
 1371SOL    HW2 5953   8.087  13.765   1.986
 1372SOL     OW 5954   0.684   8.014   4.370
 1372SOL    HW1 5955   0.742   8.072   4.420
 1372SOL    HW2 5956   0.687   7.931   4.417
 1373SOL     OW 5957   4.649   5.107   8.738
 1373SOL    HW1 5958   4.654   5.137   8.829
 1373SOL    HW2 5959   4.662   5.012   8.744
 1374SOL     OW 5960   2.660   3.559   0.356
 1374SOL    HW1 5961   2.597   3.613   0.403
 1374SOL    HW2 5962   2.607   3.502   0.301
 1375SOL     OW 5963   4.715   6.356   9.830
 1375SOL    HW1 5964   4.795   6.329   9.783
 1375SOL    HW2 5965   4.663   6.275   9.836
 1376SOL     OW 5966  14.654   3.397   4.849
 1376SOL    HW1 5967  14.675   3.444   4.768
 1376SOL    HW2 5968  14.559   3.400   4.854
 1377SOL     OW 5969   9.004   7.907   2.138
 1377SOL    HW1 5970   8.949   7.975   2.099
 1377SOL    HW2 5971   9.078   7.955   2.175
 1378SOL     OW 5972   1.121  12.334   8.804
 1378SOL    HW1 5973   1.107  12.339   8.899
 1378SOL    HW2 5974   1.034  12.327   8.767
 1379SOL     OW 5975   9.943  14.060  10.722
 1379SOL    HW1 5976   9.874  14.125  10.710
 1379SOL    HW2 5977   9.976  14.076  10.810
 1380SOL     OW 5978  14.788   4.805   2.625
 1380SOL    HW1 5979  14.813   4.824   2.535
 1380SOL    HW2 5980  14.830   4.875   2.677
 1381SOL     OW 5981   1.560   4.775   1.493
 1381SOL    HW1 5982   1.515   4.694   1.518
 1381SOL    HW2 5983   1.489   4.839   1.481
 1382SOL     OW 5984  11.824   5.680   5.239
 1382SOL    HW1 5985  11.859   5.676   5.149
 1382SOL    HW2 5986  11.895   5.719   5.290
 1383SOL     OW 5987   9.932   3.099  11.257
 1383SOL    HW1 5988   9.876   3.121  11.332
 1383SOL    HW2 5989   9.927   3.004  11.250
 1384SOL     OW 5990   3.438   4.727   4.571
 1384SOL    HW1 5991   3.383   4.774   4.508
 1384SOL    HW2 5992   3.401   4.750   4.656
 1385SOL     OW 5993   8.671   3.610   7.525
 1385SOL    HW1 5994   8.677   3.571   7.438
 1385SOL    HW2 5995   8.583   3.587   7.556
 1386SOL     OW 5996  12.472   1.445  10.283
 1386SOL    HW1 5997  12.427   1.530  10.289
 1386SOL    HW2 5998  12.552   1.458  10.335
 1387SOL     OW 5999   1.300   2.103   8.671
 1387SOL    HW1 6000   1.394   2.122   8.675
 1387SOL    HW2 6001   1.264   2.172   8.617
 1388SOL     OW 6002  14.510   5.535   0.356
 1388SOL    HW1 6003  14.603   5.549   0.373
 1388SOL    HW2 6004  14.470   5.621   0.367
 1389SOL     OW 6005   8.961  11.636   6.333
 1389SOL    HW1 6006   9.031  11.571   6.331
 1389SOL    HW2 6007   8.880  11.585   6.323
 1390SOL     OW 6008   3.307   2.509   1.314
 1390SOL    HW1 6009   3.238   2.491   1.250
 1390SOL    HW2 6010   3.267   2.572   1.374
 1391SOL     OW 6011  14.004  12.316   3.622
 1391SOL    HW1 6012  14.061  12.317   3.545
 1391SOL    HW2 6013  14.059  12.283   3.692
 1392SOL     OW 6014   4.874  11.437  13.899
 1392SOL    HW1 6015   4.870  11.420  13.993
 1392SOL    HW2 6016   4.804  11.500  13.883
 1393SOL     OW 6017  12.267  12.885  13.332
 1393SOL    HW1 6018  12.323  12.951  13.290
 1393SOL    HW2 6019  12.192  12.877  13.274
 1394SOL     OW 6020  14.201   2.639   7.642
 1394SOL    HW1 6021  14.179   2.732   7.638
 1394SOL    HW2 6022  14.117   2.593   7.642
 1395SOL     OW 6023   7.416  14.789   8.529
 1395SOL    HW1 6024   7.409  14.813   8.622
 1395SOL    HW2 6025   7.498  14.829   8.500
 1396SOL     OW 6026  14.611   5.058  10.420
 1396SOL    HW1 6027  14.518   5.079  10.409
 1396SOL    HW2 6028  14.650   5.140  10.451
 1397SOL     OW 6029   7.868   7.889   2.780
 1397SOL    HW1 6030   7.811   7.957   2.816
 1397SOL    HW2 6031   7.886   7.917   2.691
 1398SOL     OW 6032   8.693  11.648  11.073
 1398SOL    HW1 6033   8.651  11.714  11.019
 1398SOL    HW2 6034   8.702  11.572  11.015
 1399SOL     OW 6035   3.966   6.165   3.179
 1399SOL    HW1 6036   4.010   6.186   3.096
 1399SOL    HW2 6037   3.874   6.184   3.163
 1400SOL     OW 6038   4.669   4.960   7.768
 1400SOL    HW1 6039   4.595   4.924   7.817
 1400SOL    HW2 6040   4.746   4.930   7.816
 1401SOL     OW 6041  12.787   3.976   9.064
 1401SOL    HW1 6042  12.849   3.975   9.136
 1401SOL    HW2 6043  12.723   4.044   9.087
 1402SOL     OW 6044   2.192   4.854   5.875
 1402SOL    HW1 6045   2.154   4.900   5.950
 1402SOL    HW2 6046   2.257   4.795   5.913
 1403SOL     OW 6047  11.735   8.342   2.293
 1403SOL    HW1 6048  11.728   8.275   2.361
 1403SOL    HW2 6049  11.651   8.386   2.294
 1404SOL     OW 6050   1.246   1.116   2.582
 1404SOL    HW1 6051   1.185   1.077   2.520
 1404SOL    HW2 6052   1.294   1.181   2.531
 1405SOL     OW 6053   5.902   2.846   3.574
 1405SOL    HW1 6054   5.952   2.852   3.655
 1405SOL    HW2 6055   5.886   2.752   3.562
 1406SOL     OW 6056  14.002   2.739   4.224
 1406SOL    HW1 6057  14.008   2.650   4.259
 1406SOL    HW2 6058  13.961   2.789   4.294
 1407SOL     OW 6059  13.564   8.726  12.760
 1407SOL    HW1 6060  13.629   8.683  12.704
 1407SOL    HW2 6061  13.531   8.656  12.816
 1408SOL     OW 6062   0.814  10.980   2.458
 1408SOL    HW1 6063   0.824  11.073   2.441
 1408SOL    HW2 6064   0.815  10.940   2.371
 1409SOL     OW 6065   8.690   5.715   1.611
 1409SOL    HW1 6066   8.720   5.665   1.535
 1409SOL    HW2 6067   8.668   5.648   1.676
 1410SOL     OW 6068  14.156  13.103  11.589
 1410SOL    HW1 6069  14.093  13.077  11.522
 1410SOL    HW2 6070  14.123  13.062  11.669
 1411SOL     OW 6071   7.745   1.807   9.967
 1411SOL    HW1 6072   7.719   1.803  10.059
 1411SOL    HW2 6073   7.811   1.738   9.958
 1412SOL     OW 6074  11.947   3.960   0.614
 1412SOL    HW1 6075  11.854   3.939   0.605
 1412SOL    HW2 6076  11.948   4.054   0.632
 1413SOL     OW 6077   9.153   8.727   3.354
 1413SOL    HW1 6078   9.217   8.794   3.332
 1413SOL    HW2 6079   9.204   8.645   3.356
 1414SOL     OW 6080   3.818   3.166   4.317
 1414SOL    HW1 6081   3.790   3.228   4.249
 1414SOL    HW2 6082   3.869   3.219   4.378
 1415SOL     OW 6083   4.945   2.135   6.166
 1415SOL    HW1 6084   4.995   2.208   6.203
 1415SOL    HW2 6085   4.992   2.113   6.085
 1416SOL     OW 6086   0.057   4.647   7.353
 1416SOL    HW1 6087   0.031   4.669   7.442
 1416SOL    HW2 6088   0.098   4.727   7.319
 1417SOL     OW 6089   1.797   5.899   9.785
 1417SOL    HW1 6090   1.785   5.912   9.691
 1417SOL    HW2 6091   1.843   5.816   9.792
 1418SOL     OW 6092  12.382   9.684  10.592
 1418SOL    HW1 6093  12.451   9.744  10.621
 1418SOL    HW2 6094  12.395   9.678  10.497
 1419SOL     OW 6095   4.217  13.824   0.595
 1419SOL    HW1 6096   4.312  13.823   0.603
 1419SOL    HW2 6097   4.187  13.870   0.673
 1420SOL     OW 6098   8.169   9.223  13.172
 1420SOL    HW1 6099   8.089   9.180  13.142
 1420SOL    HW2 6100   8.239   9.161  13.153
 1421SOL     OW 6101   3.929   3.041   6.110
 1421SOL    HW1 6102   3.853   2.986   6.090
 1421SOL    HW2 6103   3.969   3.000   6.187
 1422SOL     OW 6104   7.183  13.871   9.894
 1422SOL    HW1 6105   7.259  13.870   9.953
 1422SOL    HW2 6106   7.133  13.794   9.919
 1423SOL     OW 6107   7.929   1.527   0.127
 1423SOL    HW1 6108   7.837   1.507   0.107
 1423SOL    HW2 6109   7.966   1.554   0.043
 1424SOL     OW 6110   2.148   1.998   3.823
 1424SOL    HW1 6111   2.055   2.010   3.842
 1424SOL    HW2 6112   2.181   1.946   3.897
 1425SOL     OW 6113  14.042   5.501   6.213
 1425SOL    HW1 6114  13.986   5.563   6.165
 1425SOL    HW2 6115  14.019   5.514   6.305
 1426SOL     OW 6116   5.655  11.990   3.961
 1426SOL    HW1 6117   5.574  11.965   4.005
 1426SOL    HW2 6118   5.697  12.051   4.022
 1427SOL     OW 6119  12.317  13.396   1.052
 1427SOL    HW1 6120  12.265  13.465   1.010
 1427SOL    HW2 6121  12.404  13.404   1.012
 1428SOL     OW 6122  14.469   4.748  13.860
 1428SOL    HW1 6123  14.384   4.723  13.897
 1428SOL    HW2 6124  14.529   4.681  13.891
 1429SOL     OW 6125   8.185  10.887   4.145
 1429SOL    HW1 6126   8.230  10.815   4.188
 1429SOL    HW2 6127   8.093  10.878   4.172
 1430SOL     OW 6128   7.987   9.410  12.663
 1430SOL    HW1 6129   7.965   9.369  12.747
 1430SOL    HW2 6130   8.073   9.375  12.641
 1431SOL     OW 6131   1.207  11.225   5.210
 1431SOL    HW1 6132   1.301  11.208   5.220
 1431SOL    HW2 6133   1.183  11.180   5.129
 1432SOL     OW 6134   5.559  12.284  14.057
 1432SOL    HW1 6135   5.580  12.208  14.002
 1432SOL    HW2 6136   5.469  12.268  14.085
 1433SOL     OW 6137   7.712   7.921   9.191
 1433SOL    HW1 6138   7.635   7.869   9.219
 1433SOL    HW2 6139   7.757   7.865   9.128
 1434SOL     OW 6140  13.576   3.445   6.778
 1434SOL    HW1 6141  13.492   3.417   6.812
 1434SOL    HW2 6142  13.605   3.373   6.722
 1435SOL     OW 6143  14.744  11.573   7.847
 1435SOL    HW1 6144  14.833  11.549   7.822
 1435SOL    HW2 6145  14.699  11.489   7.858
 1436SOL     OW 6146  10.919   2.864   8.329
 1436SOL    HW1 6147  11.001   2.891   8.370
 1436SOL    HW2 6148  10.851   2.907   8.382
 1437SOL     OW 6149   0.643   9.163   1.577
 1437SOL    HW1 6150   0.664   9.187   1.667
 1437SOL    HW2 6151   0.589   9.235   1.545
 1438SOL     OW 6152   9.163  10.832  10.395
 1438SOL    HW1 6153   9.146  10.739  10.377
 1438SOL    HW2 6154   9.235  10.855  10.336
 1439SOL     OW 6155   9.500   2.815  14.186
 1439SOL    HW1 6156   9.573   2.867  14.219
 1439SOL    HW2 6157   9.427   2.877  14.181
 1440SOL     OW 6158  14.205  13.828  10.473
 1440SOL    HW1 6159  14.251  13.856  10.394
 1440SOL    HW2 6160  14.174  13.740  10.452
 1441SOL     OW 6161   4.072  13.432   7.861
 1441SOL    HW1 6162   3.987  13.475   7.849
 1441SOL    HW2 6163   4.113  13.434   7.775
 1442SOL     OW 6164   6.753   1.119   3.137
 1442SOL    HW1 6165   6.737   1.168   3.056
 1442SOL    HW2 6166   6.777   1.185   3.201
 1443SOL     OW 6167   5.689   4.658   9.187
 1443SOL    HW1 6168   5.616   4.714   9.215
 1443SOL    HW2 6169   5.757   4.673   9.253
 1444SOL     OW 6170   2.291   0.703   4.364
 1444SOL    HW1 6171   2.323   0.654   4.289
 1444SOL    HW2 6172   2.325   0.792   4.351
 1445SOL     OW 6173  11.948   7.310   8.626
 1445SOL    HW1 6174  11.900   7.367   8.686
 1445SOL    HW2 6175  12.025   7.361   8.599
 1446SOL     OW 6176   7.462  12.089   4.333
 1446SOL    HW1 6177   7.371  12.068   4.313
 1446SOL    HW2 6178   7.479  12.045   4.416
 1447SOL     OW 6179   3.536   6.328   9.465
 1447SOL    HW1 6180   3.471   6.398   9.454
 1447SOL    HW2 6181   3.488   6.247   9.451
 1448SOL     OW 6182   1.157  13.547   5.541
 1448SOL    HW1 6183   1.108  13.465   5.540
 1448SOL    HW2 6184   1.094  13.613   5.510
 1449SOL     OW 6185  13.095  13.888   9.697
 1449SOL    HW1 6186  13.108  13.907   9.604
 1449SOL    HW2 6187  13.136  13.803   9.710
 1450SOL     OW 6188   2.719  13.364  13.524
 1450SOL    HW1 6189   2.705  13.447  13.571
 1450SOL    HW2 6190   2.725  13.390  13.432
 1451SOL     OW 6191  14.132   8.094  11.585
 1451SOL    HW1 6192  14.042   8.063  11.595
 1451SOL    HW2 6193  14.186   8.018  11.604
 1452SOL     OW 6194   3.395   2.729   2.793
 1452SOL    HW1 6195   3.381   2.687   2.878
 1452SOL    HW2 6196   3.323   2.792   2.785
 1453SOL     OW 6197  14.693  11.713  14.706
 1453SOL    HW1 6198  14.620  11.650  14.710
 1453SOL    HW2 6199  14.657  11.788  14.660
 1454SOL     OW 6200   0.506   2.400   2.095
 1454SOL    HW1 6201   0.460   2.361   2.021
 1454SOL    HW2 6202   0.579   2.341   2.112
 1455SOL     OW 6203   3.675   2.092   8.138
 1455SOL    HW1 6204   3.753   2.042   8.159
 1455SOL    HW2 6205   3.604   2.046   8.183
 1456SOL     OW 6206  11.695   9.679  12.270
 1456SOL    HW1 6207  11.777   9.705  12.312
 1456SOL    HW2 6208  11.626   9.708  12.331
 1457SOL     OW 6209  10.253   3.360   5.198
 1457SOL    HW1 6210  10.202   3.384   5.121
 1457SOL    HW2 6211  10.343   3.354   5.166
 1458SOL     OW 6212   0.060   4.972  10.593
 1458SOL    HW1 6213  14.840   4.951  10.595
 1458SOL    HW2 6214   0.067   5.054  10.643
 1459SOL     OW 6215  13.235  13.717   4.652
 1459SOL    HW1 6216  13.151  13.738   4.612
 1459SOL    HW2 6217  13.282  13.800   4.655
 1460SOL     OW 6218  13.670   3.357   4.076
 1460SOL    HW1 6219  13.691   3.448   4.097
 1460SOL    HW2 6220  13.679   3.310   4.159
 1461SOL     OW 6221  13.308   2.892   2.606
 1461SOL    HW1 6222  13.311   2.846   2.522
 1461SOL    HW2 6223  13.226   2.941   2.604
 1462SOL     OW 6224   8.861   5.469  13.545
 1462SOL    HW1 6225   8.862   5.386  13.497
 1462SOL    HW2 6226   8.949   5.505  13.534
 1463SOL     OW 6227  13.861   5.609  10.334
 1463SOL    HW1 6228  13.835   5.520  10.356
 1463SOL    HW2 6229  13.872   5.653  10.418
 1464SOL     OW 6230   2.211   4.997   8.663
 1464SOL    HW1 6231   2.230   4.927   8.725
 1464SOL    HW2 6232   2.203   4.952   8.578
 1465SOL     OW 6233  13.972   3.826   4.636
 1465SOL    HW1 6234  14.004   3.740   4.609
 1465SOL    HW2 6235  13.876   3.819   4.633
 1466SOL     OW 6236   2.932   5.292  11.588
 1466SOL    HW1 6237   3.001   5.243  11.543
 1466SOL    HW2 6238   2.975   5.328  11.666
 1467SOL     OW 6239   6.920   8.703   2.771
 1467SOL    HW1 6240   6.985   8.646   2.812
 1467SOL    HW2 6241   6.914   8.672   2.680
 1468SOL     OW 6242  11.289   1.491   0.296
 1468SOL    HW1 6243  11.248   1.492   0.383
 1468SOL    HW2 6244  11.383   1.487   0.314
 1469SOL     OW 6245   7.085   2.055   3.709
 1469SOL    HW1 6246   7.158   2.114   3.728
 1469SOL    HW2 6247   7.093   2.037   3.615
 1470SOL     OW 6248  14.689   8.081   4.780
 1470SOL    HW1 6249  14.690   8.165   4.735
 1470SOL    HW2 6250  14.600   8.048   4.768
 1471SOL     OW 6251   8.750  10.086  13.400
 1471SOL    HW1 6252   8.818  10.115  13.461
 1471SOL    HW2 6253   8.681  10.050  13.456
 1472SOL     OW 6254   2.587   5.760   8.111
 1472SOL    HW1 6255   2.517   5.731   8.169
 1472SOL    HW2 6256   2.622   5.838   8.152
 1473SOL     OW 6257  13.593   9.166   4.852
 1473SOL    HW1 6258  13.685   9.139   4.855
 1473SOL    HW2 6259  13.570   9.161   4.759
 1474SOL     OW 6260  10.397  12.580   1.184
 1474SOL    HW1 6261  10.335  12.507   1.193
 1474SOL    HW2 6262  10.354  12.654   1.225
 1475SOL     OW 6263  10.900   9.651   9.610
 1475SOL    HW1 6264  10.939   9.565   9.596
 1475SOL    HW2 6265  10.813   9.633   9.646
 1476SOL     OW 6266   8.988   6.216  14.523
 1476SOL    HW1 6267   9.075   6.254  14.536
 1476SOL    HW2 6268   8.928   6.287  14.545
 1477SOL     OW 6269   1.370   2.494   7.179
 1477SOL    HW1 6270   1.432   2.540   7.235
 1477SOL    HW2 6271   1.373   2.542   7.096
 1478SOL     OW 6272   9.405   7.503  11.347
 1478SOL    HW1 6273   9.430   7.478  11.436
 1478SOL    HW2 6274   9.459   7.449  11.291
 1479SOL     OW 6275  10.320  14.425   9.210
 1479SOL    HW1 6276  10.392  14.470   9.255
 1479SOL    HW2 6277  10.319  14.337   9.248
 1480SOL     OW 6278   4.914  13.442   8.349
 1480SOL    HW1 6279   4.822  13.419   8.335
 1480SOL    HW2 6280   4.917  13.537   8.337
 1481SOL     OW 6281   3.188   1.043   9.921
 1481SOL    HW1 6282   3.242   1.087   9.855
 1481SOL    HW2 6283   3.111   1.013   9.872
 1482SOL     OW 6284  13.532   5.669  10.213
 1482SOL    HW1 6285  13.551   5.593  10.158
 1482SOL    HW2 6286  13.550   5.639  10.302
 1483SOL     OW 6287   9.327   6.122   5.030
 1483SOL    HW1 6288   9.331   6.026   5.026
 1483SOL    HW2 6289   9.383   6.145   5.104
 1484SOL     OW 6290  14.410  12.065   0.116
 1484SOL    HW1 6291  14.385  11.974   0.105
 1484SOL    HW2 6292  14.424  12.097   0.027
 1485SOL     OW 6293   2.006   9.584   0.089
 1485SOL    HW1 6294   1.976   9.502   0.051
 1485SOL    HW2 6295   2.101   9.585   0.074
 1486SOL     OW 6296   6.281   3.975  10.398
 1486SOL    HW1 6297   6.263   4.065  10.372
 1486SOL    HW2 6298   6.376   3.971  10.407
 1487SOL     OW 6299   0.351   3.498  10.078
 1487SOL    HW1 6300   0.332   3.453   9.995
 1487SOL    HW2 6301   0.428   3.552  10.058
 1488SOL     OW 6302   7.704   8.168   1.610
 1488SOL    HW1 6303   7.636   8.217   1.564
 1488SOL    HW2 6304   7.769   8.234   1.634
 1489SOL     OW 6305   3.316  10.077  11.880
 1489SOL    HW1 6306   3.312  10.017  11.955
 1489SOL    HW2 6307   3.355  10.026  11.810
 1490SOL     OW 6308   6.297   9.180  12.144
 1490SOL    HW1 6309   6.340   9.117  12.087
 1490SOL    HW2 6310   6.204   9.154  12.142
 1491SOL     OW 6311   1.750  13.673  10.455
 1491SOL    HW1 6312   1.694  13.605  10.492
 1491SOL    HW2 6313   1.794  13.630  10.382
 1492SOL     OW 6314  13.105   1.375   9.225
 1492SOL    HW1 6315  13.042   1.408   9.289
 1492SOL    HW2 6316  13.093   1.280   9.225
 1493SOL     OW 6317  11.393   7.726  14.231
 1493SOL    HW1 6318  11.317   7.764  14.187
 1493SOL    HW2 6319  11.412   7.647  14.181
 1494SOL     OW 6320   2.740  11.780   4.886
 1494SOL    HW1 6321   2.809  11.720   4.914
 1494SOL    HW2 6322   2.754  11.860   4.936
 1495SOL     OW 6323  10.500   8.845  13.376
 1495SOL    HW1 6324  10.497   8.938  13.397
 1495SOL    HW2 6325  10.579   8.834  13.322
 1496SOL     OW 6326   3.904   8.080   5.381
 1496SOL    HW1 6327   3.965   8.076   5.307
 1496SOL    HW2 6328   3.836   8.016   5.360
 1497SOL     OW 6329  12.394  12.039   1.755
 1497SOL    HW1 6330  12.475  12.082   1.784
 1497SOL    HW2 6331  12.380  11.969   1.819
 1498SOL     OW 6332   5.427   6.675   8.412
 1498SOL    HW1 6333   5.448   6.758   8.369
 1498SOL    HW2 6334   5.497   6.615   8.385
 1499SOL     OW 6335  13.048   7.330   7.460
 1499SOL    HW1 6336  13.053   7.256   7.401
 1499SOL    HW2 6337  12.963   7.370   7.442
 1500SOL     OW 6338   2.317   3.499   7.182
 1500SOL    HW1 6339   2.403   3.537   7.196
 1500SOL    HW2 6340   2.268   3.565   7.133
 1501SOL     OW 6341   4.088   6.681  12.543
 1501SOL    HW1 6342   4.169   6.731  12.537
 1501SOL    HW2 6343   4.116   6.589  12.544
 1502SOL     OW 6344   2.566   5.046   7.691
 1502SOL    HW1 6345   2.581   4.999   7.773
 1502SOL    HW2 6346   2.608   5.131   7.703
 1503SOL     OW 6347   1.698   5.010   9.982
 1503SOL    HW1 6348   1.779   4.976   9.944
 1503SOL    HW2 6349   1.673   5.081   9.923
 1504SOL     OW 6350  10.117   8.674   2.454
 1504SOL    HW1 6351  10.128   8.581   2.436
 1504SOL    HW2 6352  10.023   8.685   2.467
 1505SOL     OW 6353   8.692   5.970   1.015
 1505SOL    HW1 6354   8.599   5.995   1.015
 1505SOL    HW2 6355   8.718   5.974   1.107
 1506SOL     OW 6356  10.997  12.030  11.312
 1506SOL    HW1 6357  10.953  12.095  11.367
 1506SOL    HW2 6358  10.989  11.948  11.361
 1507SOL     OW 6359  11.890   5.700  13.710
 1507SOL    HW1 6360  11.923   5.747  13.633
 1507SOL    HW2 6361  11.966   5.692  13.768
 1508SOL     OW 6362   4.958   0.602   6.911
 1508SOL    HW1 6363   5.016   0.525   6.915
 1508SOL    HW2 6364   4.910   0.592   6.830
 1509SOL     OW 6365   1.224   4.714   1.571
 1509SOL    HW1 6366   1.282   4.785   1.597
 1509SOL    HW2 6367   1.141   4.757   1.550
 1510SOL     OW 6368   3.782  13.968   4.912
 1510SOL    HW1 6369   3.771  13.971   5.007
 1510SOL    HW2 6370   3.800  13.876   4.893
 1511SOL     OW 6371  11.510   8.786   9.327
 1511SOL    HW1 6372  11.433   8.784   9.271
 1511SOL    HW2 6373  11.479   8.756   9.413
 1512SOL     OW 6374   4.490   6.156   7.236
 1512SOL    HW1 6375   4.461   6.245   7.256
 1512SOL    HW2 6376   4.409   6.109   7.215
 1513SOL     OW 6377   4.919   5.584   1.991
 1513SOL    HW1 6378   4.955   5.495   1.990
 1513SOL    HW2 6379   4.829   5.574   1.958
 1514SOL     OW 6380   8.404   9.397  14.095
 1514SOL    HW1 6381   8.471   9.446  14.143
 1514SOL    HW2 6382   8.332   9.388  14.157
 1515SOL     OW 6383   8.465   2.709  12.670
 1515SOL    HW1 6384   8.532   2.774  12.688
 1515SOL    HW2 6385   8.499   2.659  12.596
 1516SOL     OW 6386   6.124   2.998   2.280
 1516SOL    HW1 6387   6.075   3.072   2.318
 1516SOL    HW2 6388   6.177   2.964   2.352
 1517SOL     OW 6389   0.453   9.881  13.176
 1517SOL    HW1 6390   0.393   9.942  13.217
 1517SOL    HW2 6391   0.500   9.840  13.248
 1518SOL     OW 6392   2.586  14.545   5.782
 1518SOL    HW1 6393   2.541  14.560   5.865
 1518SOL    HW2 6394   2.528  14.485   5.735
 1519SOL     OW 6395  11.232   3.394  11.009
 1519SOL    HW1 6396  11.151   3.430  11.045
 1519SOL    HW2 6397  11.236   3.305  11.044
 1520SOL     OW 6398   3.570   8.010   0.122
 1520SOL    HW1 6399   3.652   7.973   0.089
 1520SOL    HW2 6400   3.581   8.014   0.217
 1521SOL     OW 6401  14.056  11.763   5.887
 1521SOL    HW1 6402  14.104  11.840   5.856
 1521SOL    HW2 6403  13.998  11.741   5.814
 1522SOL     OW 6404  10.233   8.149   7.517
 1522SOL    HW1 6405  10.200   8.239   7.515
 1522SOL    HW2 6406  10.246   8.126   7.425
 1523SOL     OW 6407   1.558  13.891   3.528
 1523SOL    HW1 6408   1.474  13.851   3.552
 1523SOL    HW2 6409   1.539  13.941   3.449
 1524SOL     OW 6410   5.465   8.037  11.712
 1524SOL    HW1 6411   5.494   8.053  11.622
 1524SOL    HW2 6412   5.475   7.943  11.723
 1525SOL     OW 6413   5.404  12.049   1.023
 1525SOL    HW1 6414   5.404  12.144   1.022
 1525SOL    HW2 6415   5.417  12.024   0.931
 1526SOL     OW 6416  14.073  13.667   0.015
 1526SOL    HW1 6417  14.127  13.594  14.858
 1526SOL    HW2 6418  14.135  13.740   0.023
 1527SOL     OW 6419   8.740  14.461  11.704
 1527SOL    HW1 6420   8.778  14.374  11.704
 1527SOL    HW2 6421   8.812  14.519  11.681
 1528SOL     OW 6422   0.255   3.320  13.320
 1528SOL    HW1 6423   0.160   3.331  13.310
 1528SOL    HW2 6424   0.267   3.226  13.335
 1529SOL     OW 6425   4.573   9.462  13.372
 1529SOL    HW1 6426   4.559   9.529  13.439
 1529SOL    HW2 6427   4.519   9.388  13.401
 1530SOL     OW 6428   4.961   2.443  13.586
 1530SOL    HW1 6429   4.978   2.534  13.561
 1530SOL    HW2 6430   5.030   2.394  13.542
 1531SOL     OW 6431  10.933  12.805  11.193
 1531SOL    HW1 6432  10.938  12.756  11.274
 1531SOL    HW2 6433  10.844  12.790  11.161
 1532SOL     OW 6434   1.032  13.968   4.283
 1532SOL    HW1 6435   1.029  14.060   4.256
 1532SOL    HW2 6436   1.016  13.971   4.378
 1533SOL     OW 6437  11.950   7.863  11.660
 1533SOL    HW1 6438  11.917   7.775  11.641
 1533SOL    HW2 6439  11.920   7.916  11.587
 1534SOL     OW 6440   5.130   0.735   0.148
 1534SOL    HW1 6441   5.164   0.802   0.089
 1534SOL    HW2 6442   5.037   0.753   0.155
 1535SOL     OW 6443   0.864   7.927  13.929
 1535SOL    HW1 6444   0.782   7.975  13.933
 1535SOL    HW2 6445   0.908   7.945  14.012
 1536SOL     OW 6446   2.566  14.849   7.074
 1536SOL    HW1 6447   2.488  14.844   7.020
 1536SOL    HW2 6448   2.533  14.864   7.163
 1537SOL     OW 6449  10.737  11.257   8.861
 1537SOL    HW1 6450  10.714  11.202   8.936
 1537SOL    HW2 6451  10.680  11.226   8.791
 1538SOL     OW 6452   7.961   3.403   4.223
 1538SOL    HW1 6453   7.890   3.442   4.172
 1538SOL    HW2 6454   7.963   3.311   4.195
 1539SOL     OW 6455   1.252   4.632   0.879
 1539SOL    HW1 6456   1.203   4.550   0.871
 1539SOL    HW2 6457   1.342   4.605   0.897
 1540SOL     OW 6458   5.749   1.219   6.327
 1540SOL    HW1 6459   5.780   1.292   6.275
 1540SOL    HW2 6460   5.801   1.144   6.297
 1541SOL     OW 6461   4.027   3.722  11.080
 1541SOL    HW1 6462   3.943   3.694  11.045
 1541SOL    HW2 6463   4.091   3.669  11.032
 1542SOL     OW 6464  10.790   3.239  11.810
 1542SOL    HW1 6465  10.704   3.224  11.848
 1542SOL    HW2 6466  10.787   3.328  11.776
 1543SOL     OW 6467   0.765  13.542   7.028
 1543SOL    HW1 6468   0.754  13.637   7.022
 1543SOL    HW2 6469   0.781  13.514   6.938
 1544SOL     OW 6470  10.458  13.245   1.538
 1544SOL    HW1 6471  10.527  13.186   1.570
 1544SOL    HW2 6472  10.417  13.198   1.466
 1545SOL     OW 6473   2.716   0.103   3.549
 1545SOL    HW1 6474   2.639   0.132   3.500
 1545SOL    HW2 6475   2.780   0.174   3.537
 1546SOL     OW 6476   2.898  10.693   2.993
 1546SOL    HW1 6477   2.951  10.724   3.065
 1546SOL    HW2 6478   2.893  10.766   2.932
 1547SOL     OW 6479   2.944  14.434  10.554
 1547SOL    HW1 6480   2.932  14.342  10.530
 1547SOL    HW2 6481   2.875  14.481  10.507
 1548SOL     OW 6482   8.216  10.365   0.684
 1548SOL    HW1 6483   8.156  10.324   0.747
 1548SOL    HW2 6484   8.189  10.330   0.599
 1549SOL     OW 6485   4.944   7.857   8.604
 1549SOL    HW1 6486   4.877   7.916   8.570
 1549SOL    HW2 6487   5.013   7.859   8.537
 1550SOL     OW 6488   5.892   6.328  12.710
 1550SOL    HW1 6489   5.883   6.394  12.778
 1550SOL    HW2 6490   5.853   6.249  12.748
 1551SOL     OW 6491  11.626   1.186  13.638
 1551SOL    HW1 6492  11.662   1.224  13.719
 1551SOL    HW2 6493  11.532   1.179  13.656
 1552SOL     OW 6494   7.694   3.809   6.013
 1552SOL    HW1 6495   7.602   3.833   6.010
 1552SOL    HW2 6496   7.729   3.840   5.929
 1553SOL     OW 6497   1.507   9.498   5.325
 1553SOL    HW1 6498   1.433   9.484   5.384
 1553SOL    HW2 6499   1.492   9.438   5.253
 1554SOL     OW 6500   9.614   7.045  12.069
 1554SOL    HW1 6501   9.565   7.123  12.094
 1554SOL    HW2 6502   9.553   6.995  12.015
 1555SOL     OW 6503   7.346  13.426  11.176
 1555SOL    HW1 6504   7.253  13.435  11.197
 1555SOL    HW2 6505   7.348  13.426  11.080
 1556SOL     OW 6506  11.862   1.092  14.206
 1556SOL    HW1 6507  11.773   1.127  14.211
 1556SOL    HW2 6508  11.901   1.115  14.291
 1557SOL     OW 6509  12.094   4.063   2.361
 1557SOL    HW1 6510  12.159   4.013   2.313
 1557SOL    HW2 6511  12.141   4.097   2.437
 1558SOL     OW 6512   6.818  12.788   7.245
 1558SOL    HW1 6513   6.842  12.778   7.337
 1558SOL    HW2 6514   6.756  12.717   7.229
 1559SOL     OW 6515   1.459  13.663   5.097
 1559SOL    HW1 6516   1.515  13.707   5.161
 1559SOL    HW2 6517   1.476  13.569   5.110
 1560SOL     OW 6518  14.040   2.996  11.016
 1560SOL    HW1 6519  14.112   3.055  11.036
 1560SOL    HW2 6520  14.063   2.914  11.061
 1561SOL     OW 6521   4.659   5.673   9.365
 1561SOL    HW1 6522   4.747   5.651   9.396
 1561SOL    HW2 6523   4.650   5.766   9.384
 1562SOL     OW 6524  10.777   1.053   9.984
 1562SOL    HW1 6525  10.861   1.061  10.029
 1562SOL    HW2 6526  10.712   1.066  10.053
 1563SOL     OW 6527   9.940  10.784   2.249
 1563SOL    HW1 6528  10.025  10.828   2.244
 1563SOL    HW2 6529   9.941  10.739   2.333
 1564SOL     OW 6530   9.730   0.675   1.990
 1564SOL    HW1 6531   9.657   0.632   2.035
 1564SOL    HW2 6532   9.714   0.659   1.897
 1565SOL     OW 6533  11.330   1.662  10.434
 1565SOL    HW1 6534  11.243   1.626  10.450
 1565SOL    HW2 6535  11.389   1.587  10.444
 1566SOL     OW 6536   0.255   8.506  13.244
 1566SOL    HW1 6537   0.218   8.419  13.226
 1566SOL    HW2 6538   0.344   8.487  13.275
 1567SOL     OW 6539   4.901   9.576   0.392
 1567SOL    HW1 6540   4.844   9.508   0.426
 1567SOL    HW2 6541   4.966   9.528   0.339
 1568SOL     OW 6542   0.165   6.609  13.361
 1568SOL    HW1 6543   0.160   6.555  13.439
 1568SOL    HW2 6544   0.136   6.552  13.289
 1569SOL     OW 6545   6.087   8.062   9.272
 1569SOL    HW1 6546   6.173   8.095   9.246
 1569SOL    HW2 6547   6.067   8.108   9.354
 1570SOL     OW 6548   6.482  12.272   7.761
 1570SOL    HW1 6549   6.432  12.353   7.762
 1570SOL    HW2 6550   6.462  12.231   7.845
 1571SOL     OW 6551  10.795  10.015   4.426
 1571SOL    HW1 6552  10.844   9.986   4.502
 1571SOL    HW2 6553  10.704   9.993   4.446
 1572SOL     OW 6554  10.787   3.930   7.852
 1572SOL    HW1 6555  10.871   3.976   7.845
 1572SOL    HW2 6556  10.734   3.987   7.907
 1573SOL     OW 6557   0.424  12.897   4.329
 1573SOL    HW1 6558   0.474  12.910   4.249
 1573SOL    HW2 6559   0.392  12.807   4.323
 1574SOL     OW 6560   8.077   3.971   2.283
 1574SOL    HW1 6561   8.152   3.971   2.344
 1574SOL    HW2 6562   8.114   3.942   2.200
 1575SOL     OW 6563  12.276   5.255   4.845
 1575SOL    HW1 6564  12.348   5.245   4.908
 1575SOL    HW2 6565  12.198   5.233   4.896
 1576SOL     OW 6566   8.774   9.581   3.366
 1576SOL    HW1 6567   8.729   9.568   3.282
 1576SOL    HW2 6568   8.793   9.493   3.397
 1577SOL     OW 6569  13.981   0.891   0.073
 1577SOL    HW1 6570  13.901   0.839   0.068
 1577SOL    HW2 6571  13.953   0.977   0.102
 1578SOL     OW 6572  13.416   2.660   1.030
 1578SOL    HW1 6573  13.392   2.712   0.953
 1578SOL    HW2 6574  13.392   2.570   1.006
 1579SOL     OW 6575   3.976   2.016   9.622
 1579SOL    HW1 6576   4.033   1.940   9.615
 1579SOL    HW2 6577   3.938   2.009   9.710
 1580SOL     OW 6578  13.865   4.327   9.665
 1580SOL    HW1 6579  13.905   4.341   9.751
 1580SOL    HW2 6580  13.828   4.412   9.641
 1581SOL     OW 6581   1.201  14.067   2.427
 1581SOL    HW1 6582   1.165  14.151   2.458
 1581SOL    HW2 6583   1.294  14.085   2.414
 1582SOL     OW 6584  10.590   0.522   6.119
 1582SOL    HW1 6585  10.670   0.571   6.140
 1582SOL    HW2 6586  10.606   0.434   6.152
 1583SOL     OW 6587   0.722  12.023   1.152
 1583SOL    HW1 6588   0.790  11.993   1.091
 1583SOL    HW2 6589   0.699  12.110   1.120
 1584SOL     OW 6590   4.396   3.091   8.073
 1584SOL    HW1 6591   4.414   3.183   8.089
 1584SOL    HW2 6592   4.429   3.074   7.985
 1585SOL     OW 6593  13.135   0.883   1.691
 1585SOL    HW1 6594  13.146   0.893   1.596
 1585SOL    HW2 6595  13.182   0.802   1.712
 1586SOL     OW 6596   9.659   4.350  14.822
 1586SOL    HW1 6597   9.738   4.404  14.814
 1586SOL    HW2 6598   9.607   4.372  14.744
 1587SOL     OW 6599   7.536  12.409  13.859
 1587SOL    HW1 6600   7.625  12.445  13.862
 1587SOL    HW2 6601   7.523  12.372  13.947
 1588SOL     OW 6602   8.846   7.574  12.395
 1588SOL    HW1 6603   8.839   7.666  12.419
 1588SOL    HW2 6604   8.762   7.554  12.353
 1589SOL     OW 6605  11.687   5.242   6.098
 1589SOL    HW1 6606  11.658   5.324   6.059
 1589SOL    HW2 6607  11.611   5.185   6.093
 1590SOL     OW 6608   6.412   7.093  14.371
 1590SOL    HW1 6609   6.468   7.109  14.447
 1590SOL    HW2 6610   6.473   7.078  14.299
 1591SOL     OW 6611  14.648   6.428   4.790
 1591SOL    HW1 6612  14.558   6.456   4.773
 1591SOL    HW2 6613  14.688   6.422   4.703
 1592SOL     OW 6614   3.850  13.485  13.294
 1592SOL    HW1 6615   3.855  13.559  13.234
 1592SOL    HW2 6616   3.760  13.454  13.287
 1593SOL     OW 6617   0.002   1.640   8.601
 1593SOL    HW1 6618   0.013   1.657   8.508
 1593SOL    HW2 6619  14.785   1.613   8.611
 1594SOL     OW 6620  10.839   7.858   0.673
 1594SOL    HW1 6621  10.779   7.868   0.599
 1594SOL    HW2 6622  10.813   7.777   0.715
 1595SOL     OW 6623   1.360  12.077   8.063
 1595SOL    HW1 6624   1.370  12.134   8.139
 1595SOL    HW2 6625   1.268  12.051   8.064
 1596SOL     OW 6626   5.227  14.129   4.204
 1596SOL    HW1 6627   5.210  14.102   4.295
 1596SOL    HW2 6628   5.156  14.189   4.183
 1597SOL     OW 6629   2.550   0.429   9.419
 1597SOL    HW1 6630   2.553   0.506   9.476
 1597SOL    HW2 6631   2.632   0.383   9.437
 1598SOL     OW 6632  13.017   0.841  10.368
 1598SOL    HW1 6633  13.023   0.771  10.302
 1598SOL    HW2 6634  13.098   0.891  10.356
 1599SOL     OW 6635   0.850   8.755  13.774
 1599SOL    HW1 6636   0.779   8.694  13.753
 1599SOL    HW2 6637   0.815   8.806  13.848
 1600SOL     OW 6638   0.945   5.906   4.103
 1600SOL    HW1 6639   1.009   5.837   4.082
 1600SOL    HW2 6640   0.860   5.861   4.100
 1601SOL     OW 6641  12.560  13.036   7.960
 1601SOL    HW1 6642  12.496  12.980   7.915
 1601SOL    HW2 6643  12.532  13.036   8.051
 1602SOL     OW 6644  11.431   0.653   9.154
 1602SOL    HW1 6645  11.347   0.658   9.108
 1602SOL    HW2 6646  11.496   0.660   9.084
 1603SOL     OW 6647  10.361   1.721  12.177
 1603SOL    HW1 6648  10.276   1.762  12.166
 1603SOL    HW2 6649  10.420   1.792  12.202
 1604SOL     OW 6650   8.646  11.632   5.045
 1604SOL    HW1 6651   8.634  11.545   5.007
 1604SOL    HW2 6652   8.557  11.663   5.063
 1605SOL     OW 6653   1.890   8.607  13.253
 1605SOL    HW1 6654   1.929   8.693  13.268
 1605SOL    HW2 6655   1.962   8.552  13.225
 1606SOL     OW 6656   2.543  12.017   2.963
 1606SOL    HW1 6657   2.468  12.001   2.906
 1606SOL    HW2 6658   2.563  11.931   3.001
 1607SOL     OW 6659   0.025   9.113  13.339
 1607SOL    HW1 6660   0.077   9.041  13.375
 1607SOL    HW2 6661  14.821   9.115  13.394
 1608SOL     OW 6662   0.681   8.065   3.949
 1608SOL    HW1 6663   0.749   8.046   4.014
 1608SOL    HW2 6664   0.677   8.160   3.946
 1609SOL     OW 6665   1.022   1.960   5.884
 1609SOL    HW1 6666   0.951   1.918   5.932
 1609SOL    HW2 6667   1.102   1.927   5.925
 1610SOL     OW 6668   2.261  13.924   2.036
 1610SOL    HW1 6669   2.261  14.000   1.979
 1610SOL    HW2 6670   2.169  13.903   2.049
 1611SOL     OW 6671   9.742   1.811   2.867
 1611SOL    HW1 6672   9.691   1.891   2.859
 1611SOL    HW2 6673   9.819   1.826   2.813
 1612SOL     OW 6674   9.559   6.714  12.110
 1612SOL    HW1 6675   9.587   6.699  12.019
 1612SOL    HW2 6676   9.465   6.731  12.103
 1613SOL     OW 6677  10.621   0.879   3.850
 1613SOL    HW1 6678  10.616   0.801   3.904
 1613SOL    HW2 6679  10.707   0.917   3.870
 1614SOL     OW 6680   7.666  14.802  11.921
 1614SOL    HW1 6681   7.695   0.018  11.904
 1614SOL    HW2 6682   7.710  14.750  11.854
 1615SOL     OW 6683  11.151  12.522  13.511
 1615SOL    HW1 6684  11.057  12.533  13.494
 1615SOL    HW2 6685  11.162  12.546  13.603
 1616SOL     OW 6686   0.140  10.312   5.454
 1616SOL    HW1 6687   0.193  10.324   5.534
 1616SOL    HW2 6688   0.155  10.392   5.404
 1617SOL     OW 6689   2.390   8.432   1.655
 1617SOL    HW1 6690   2.301   8.446   1.687
 1617SOL    HW2 6691   2.411   8.342   1.679
 1618SOL     OW 6692  14.343  12.092  12.293
 1618SOL    HW1 6693  14.332  12.141  12.375
 1618SOL    HW2 6694  14.422  12.128  12.253
 1619SOL     OW 6695   9.517   4.997   9.098
 1619SOL    HW1 6696   9.594   5.023   9.048
 1619SOL    HW2 6697   9.475   4.930   9.045
 1620SOL     OW 6698  14.818  14.596   3.397
 1620SOL    HW1 6699  14.852  14.509   3.379
 1620SOL    HW2 6700  14.874  14.630   3.467
 1621SOL     OW 6701  10.199   0.242   1.999
 1621SOL    HW1 6702  10.188   0.151   1.970
 1621SOL    HW2 6703  10.148   0.293   1.936
 1622SOL     OW 6704  10.513   9.945   6.219
 1622SOL    HW1 6705  10.466   9.988   6.290
 1622SOL    HW2 6706  10.445   9.914   6.159
 1623SOL     OW 6707   0.438   0.597  14.227
 1623SOL    HW1 6708   0.487   0.673  14.195
 1623SOL    HW2 6709   0.447   0.531  14.159
 1624SOL     OW 6710   5.245   7.646  10.394
 1624SOL    HW1 6711   5.197   7.722  10.360
 1624SOL    HW2 6712   5.334   7.679  10.410
 1625SOL     OW 6713  13.515   9.576   7.674
 1625SOL    HW1 6714  13.536   9.646   7.612
 1625SOL    HW2 6715  13.449   9.524   7.630
 1626SOL     OW 6716   7.805   7.415   3.610
 1626SOL    HW1 6717   7.726   7.395   3.561
 1626SOL    HW2 6718   7.876   7.373   3.561
 1627SOL     OW 6719   6.516   6.888   1.584
 1627SOL    HW1 6720   6.541   6.975   1.616
 1627SOL    HW2 6721   6.420   6.887   1.594
 1628SOL     OW 6722   2.553   3.997   8.264
 1628SOL    HW1 6723   2.622   3.933   8.283
 1628SOL    HW2 6724   2.587   4.080   8.298
 1629SOL     OW 6725   9.064   2.663  10.968
 1629SOL    HW1 6726   9.034   2.715  11.043
 1629SOL    HW2 6727   8.984   2.637  10.923
 1630SOL     OW 6728   6.509   5.309   5.825
 1630SOL    HW1 6729   6.579   5.370   5.849
 1630SOL    HW2 6730   6.454   5.358   5.763
 1631SOL     OW 6731   9.085   2.594   6.039
 1631SOL    HW1 6732   9.128   2.597   6.125
 1631SOL    HW2 6733   9.022   2.666   6.041
 1632SOL     OW 6734   0.274   4.847   6.628
 1632SOL    HW1 6735   0.341   4.855   6.696
 1632SOL    HW2 6736   0.288   4.761   6.590
 1633SOL     OW 6737   1.425   6.102   8.048
 1633SOL    HW1 6738   1.465   6.141   8.126
 1633SOL    HW2 6739   1.359   6.165   8.020
 1634SOL     OW 6740   1.946  14.843   4.125
 1634SOL    HW1 6741   2.013   0.037   4.128
 1634SOL    HW2 6742   1.976  14.782   4.059
 1635SOL     OW 6743  10.547   7.028  14.010
 1635SOL    HW1 6744  10.510   7.022  13.922
 1635SOL    HW2 6745  10.476   7.003  14.068
 1636SOL     OW 6746  12.223  13.110  10.259
 1636SOL    HW1 6747  12.132  13.081  10.269
 1636SOL    HW2 6748  12.217  13.188  10.204
 1637SOL     OW 6749   8.294  14.749   8.102
 1637SOL    HW1 6750   8.291  14.674   8.043
 1637SOL    HW2 6751   8.206  14.754   8.139
 1638SOL     OW 6752   3.966  12.700   4.493
 1638SOL    HW1 6753   4.050  12.670   4.526
 1638SOL    HW2 6754   3.914  12.620   4.484
 1639SOL     OW 6755   1.529  13.361  11.321
 1639SOL    HW1 6756   1.608  13.382  11.272
 1639SOL    HW2 6757   1.516  13.267  11.307
 1640SOL     OW 6758  10.961   1.294  12.324
 1640SOL    HW1 6759  11.004   1.331  12.401
 1640SOL    HW2 6760  10.914   1.217  12.357
 1641SOL     OW 6761   5.996  10.848   2.015
 1641SOL    HW1 6762   6.075  10.897   1.991
 1641SOL    HW2 6763   6.025  10.788   2.083
 1642SOL     OW 6764   5.854   8.477   0.673
 1642SOL    HW1 6765   5.791   8.548   0.662
 1642SOL    HW2 6766   5.809   8.400   0.640
 1643SOL     OW 6767   0.493  10.022   0.949
 1643SOL    HW1 6768   0.425  10.044   0.885
 1643SOL    HW2 6769   0.446   9.976   1.019
 1644SOL     OW 6770   5.761   2.413  12.271
 1644SOL    HW1 6771   5.807   2.405  12.187
 1644SOL    HW2 6772   5.814   2.363  12.332
 1645SOL     OW 6773   7.946  10.853  14.773
 1645SOL    HW1 6774   7.940  10.938  14.730
 1645SOL    HW2 6775   7.878  10.855  14.841
 1646SOL     OW 6776   0.220   7.822   6.098
 1646SOL    HW1 6777   0.190   7.875   6.173
 1646SOL    HW2 6778   0.233   7.734   6.134
 1647SOL     OW 6779  13.869  14.841   4.564
 1647SOL    HW1 6780  13.873  14.836   4.660
 1647SOL    HW2 6781  13.843  14.752   4.537
 1648SOL     OW 6782   0.725   8.252   6.149
 1648SOL    HW1 6783   0.817   8.253   6.177
 1648SOL    HW2 6784   0.728   8.241   6.054
 1649SOL     OW 6785  12.663   9.422   1.430
 1649SOL    HW1 6786  12.636   9.339   1.469
 1649SOL    HW2 6787  12.735   9.452   1.485
 1650SOL     OW 6788  10.434  12.255  13.852
 1650SOL    HW1 6789  10.420  12.333  13.799
 1650SOL    HW2 6790  10.391  12.274  13.935
 1651SOL     OW 6791  11.636   9.091  12.301
 1651SOL    HW1 6792  11.669   9.084  12.212
 1651SOL    HW2 6793  11.590   9.175  12.303
 1652SOL     OW 6794  13.859   6.607   2.465
 1652SOL    HW1 6795  13.901   6.583   2.383
 1652SOL    HW2 6796  13.826   6.695   2.451
 1653SOL     OW 6797   8.765   0.554  13.742
 1653SOL    HW1 6798   8.823   0.619  13.703
 1653SOL    HW2 6799   8.808   0.470  13.726
 1654SOL     OW 6800   5.220  13.856  13.305
 1654SOL    HW1 6801   5.157  13.805  13.254
 1654SOL    HW2 6802   5.288  13.793  13.329
 1655SOL     OW 6803   8.881  12.277   9.224
 1655SOL    HW1 6804   8.874  12.306   9.315
 1655SOL    HW2 6805   8.872  12.358   9.173
 1656SOL     OW 6806   4.219   2.941   9.358
 1656SOL    HW1 6807   4.245   2.889   9.434
 1656SOL    HW2 6808   4.137   2.902   9.329
 1657SOL     OW 6809   2.916   7.483   5.070
 1657SOL    HW1 6810   2.919   7.394   5.033
 1657SOL    HW2 6811   2.822   7.500   5.080
 1658SOL     OW 6812  13.494   2.317   4.458
 1658SOL    HW1 6813  13.498   2.290   4.366
 1658SOL    HW2 6814  13.539   2.247   4.505
 1659SOL     OW 6815   0.054   8.187   8.934
 1659SOL    HW1 6816   0.092   8.208   8.849
 1659SOL    HW2 6817  14.834   8.182   8.919
 1660SOL     OW 6818   3.247  11.227  13.468
 1660SOL    HW1 6819   3.198  11.164  13.415
 1660SOL    HW2 6820   3.181  11.274  13.519
 1661SOL     OW 6821   6.725  14.174  13.538
 1661SOL    HW1 6822   6.702  14.240  13.472
 1661SOL    HW2 6823   6.821  14.172  13.537
 1662SOL     OW 6824  13.361   1.632   5.656
 1662SOL    HW1 6825  13.417   1.707   5.636
 1662SOL    HW2 6826  13.344   1.592   5.570
 1663SOL     OW 6827   6.728   2.623   2.944
 1663SOL    HW1 6828   6.684   2.539   2.960
 1663SOL    HW2 6829   6.666   2.672   2.889
 1664SOL     OW 6830  10.563   1.667  13.665
 1664SOL    HW1 6831  10.570   1.758  13.692
 1664SOL    HW2 6832  10.537   1.620  13.744
 1665SOL     OW 6833  12.010   6.994   8.431
 1665SOL    HW1 6834  11.948   7.049   8.383
 1665SOL    HW2 6835  11.997   6.906   8.396
 1666SOL     OW 6836   2.197  12.118   9.483
 1666SOL    HW1 6837   2.265  12.183   9.505
 1666SOL    HW2 6838   2.127  12.134   9.546
 1667SOL     OW 6839   5.494   8.203  10.906
 1667SOL    HW1 6840   5.527   8.286  10.940
 1667SOL    HW2 6841   5.399   8.209  10.916
 1668SOL     OW 6842  12.107   6.606  11.784
 1668SOL    HW1 6843  12.144   6.687  11.749
 1668SOL    HW2 6844  12.072   6.630  11.870
 1669SOL     OW 6845   1.765   2.533  14.864
 1669SOL    HW1 6846   1.764   2.467  14.795
 1669SOL    HW2 6847   1.687   2.515   0.042
 1670SOL     OW 6848   0.930   0.320  11.170
 1670SOL    HW1 6849   0.859   0.369  11.211
 1670SOL    HW2 6850   0.889   0.278  11.094
 1671SOL     OW 6851   5.631   3.144  13.907
 1671SOL    HW1 6852   5.647   3.157  14.000
 1671SOL    HW2 6853   5.564   3.207  13.884
 1672SOL     OW 6854   1.674  13.285  12.123
 1672SOL    HW1 6855   1.704  13.242  12.203
 1672SOL    HW2 6856   1.608  13.347  12.153
 1673SOL     OW 6857   1.595   6.251   7.210
 1673SOL    HW1 6858   1.626   6.176   7.260
 1673SOL    HW2 6859   1.502   6.258   7.230
 1674SOL     OW 6860   1.456   0.450   8.663
 1674SOL    HW1 6861   1.384   0.388   8.656
 1674SOL    HW2 6862   1.424   0.517   8.724
 1675SOL     OW 6863   8.025  10.567   1.486
 1675SOL    HW1 6864   7.932  10.564   1.508
 1675SOL    HW2 6865   8.034  10.503   1.415
 1676SOL     OW 6866  12.358  14.421  10.645
 1676SOL    HW1 6867  12.408  14.498  10.618
 1676SOL    HW2 6868  12.347  14.432  10.739
 1677SOL     OW 6869   7.878  13.999   3.161
 1677SOL    HW1 6870   7.946  14.066   3.165
 1677SOL    HW2 6871   7.925  13.916   3.166
 1678SOL     OW 6872   9.682   1.865   9.317
 1678SOL    HW1 6873   9.712   1.779   9.344
 1678SOL    HW2 6874   9.753   1.900   9.264
 1679SOL     OW 6875   8.698  12.913  11.628
 1679SOL    HW1 6876   8.672  12.938  11.539
 1679SOL    HW2 6877   8.773  12.854  11.616
 1680SOL     OW 6878   7.339   4.784  11.255
 1680SOL    HW1 6879   7.300   4.741  11.178
 1680SOL    HW2 6880   7.265   4.806  11.311
 1681SOL     OW 6881   9.121   7.020   4.270
 1681SOL    HW1 6882   9.145   7.069   4.191
 1681SOL    HW2 6883   9.203   6.980   4.299
 1682SOL     OW 6884   3.952   7.202   0.289
 1682SOL    HW1 6885   4.009   7.127   0.273
 1682SOL    HW2 6886   4.011   7.276   0.299
 1683SOL     OW 6887   6.202  10.541  14.859
 1683SOL    HW1 6888   6.246  10.555  14.775
 1683SOL    HW2 6889   6.140  10.614  14.866
 1684SOL     OW 6890   5.019  14.428   5.222
 1684SOL    HW1 6891   4.969  14.353   5.256
 1684SOL    HW2 6892   5.101  14.390   5.191
 1685SOL     OW 6893  12.169  11.785   8.666
 1685SOL    HW1 6894  12.236  11.759   8.604
 1685SOL    HW2 6895  12.150  11.876   8.645
 1686SOL     OW 6896   4.778   4.950   6.587
 1686SOL    HW1 6897   4.741   5.031   6.622
 1686SOL    HW2 6898   4.870   4.971   6.570
 1687SOL     OW 6899  14.237   3.487  11.716
 1687SOL    HW1 6900  14.175   3.558  11.731
 1687SOL    HW2 6901  14.208   3.445  11.635
 1688SOL     OW 6902   1.185   5.993   7.022
 1688SOL    HW1 6903   1.230   6.060   7.075
 1688SOL    HW2 6904   1.193   6.024   6.932
 1689SOL     OW 6905   1.367   2.013   6.865
 1689SOL    HW1 6906   1.443   2.067   6.886
 1689SOL    HW2 6907   1.402   1.924   6.857
 1690SOL     OW 6908   9.519  14.677   5.380
 1690SOL    HW1 6909   9.517  14.595   5.429
 1690SOL    HW2 6910   9.608  14.681   5.345
 1691SOL     OW 6911  10.022   2.658   0.206
 1691SOL    HW1 6912  10.113   2.636   0.185
 1691SOL    HW2 6913  10.026   2.747   0.241
 1692SOL     OW 6914   5.175  14.437   4.840
 1692SOL    HW1 6915   5.205  14.479   4.921
 1692SOL    HW2 6916   5.254  14.435   4.785
 1693SOL     OW 6917  14.448   0.583  10.982
 1693SOL    HW1 6918  14.434   0.529  11.059
 1693SOL    HW2 6919  14.367   0.574  10.931
 1694SOL     OW 6920   3.412   5.735   3.191
 1694SOL    HW1 6921   3.446   5.758   3.277
 1694SOL    HW2 6922   3.317   5.729   3.203
 1695SOL     OW 6923  12.227   4.030   5.687
 1695SOL    HW1 6924  12.164   3.959   5.698
 1695SOL    HW2 6925  12.244   4.061   5.776
 1696SOL     OW 6926   3.612  12.653  13.204
 1696SOL    HW1 6927   3.537  12.643  13.263
 1696SOL    HW2 6928   3.656  12.568  13.207
 1697SOL     OW 6929  12.962   8.048   8.032
 1697SOL    HW1 6930  12.899   7.977   8.047
 1697SOL    HW2 6931  13.045   8.013   8.063
 1698SOL     OW 6932  12.385  10.777   8.779
 1698SOL    HW1 6933  12.331  10.735   8.712
 1698SOL    HW2 6934  12.445  10.708   8.807
 1699SOL     OW 6935   3.701  12.140   0.986
 1699SOL    HW1 6936   3.639  12.070   1.009
 1699SOL    HW2 6937   3.786  12.105   1.012
 1700SOL     OW 6938   2.906   0.649  12.834
 1700SOL    HW1 6939   2.889   0.625  12.925
 1700SOL    HW2 6940   2.905   0.566  12.787
 1701SOL     OW 6941   4.338   0.270  12.963
 1701SOL    HW1 6942   4.431   0.248  12.975
 1701SOL    HW2 6943   4.338   0.347  12.906
 1702SOL     OW 6944  11.420   5.676  12.771
 1702SOL    HW1 6945  11.437   5.713  12.857
 1702SOL    HW2 6946  11.469   5.594  12.770
 1703SOL     OW 6947   3.512   4.540   6.646
 1703SOL    HW1 6948   3.511   4.616   6.588
 1703SOL    HW2 6949   3.604   4.515   6.651
 1704SOL     OW 6950  10.219   1.638  13.444
 1704SOL    HW1 6951  10.171   1.617  13.523
 1704SOL    HW2 6952  10.304   1.670  13.475
 1705SOL     OW 6953   9.137  13.040   3.331
 1705SOL    HW1 6954   9.148  13.124   3.375
 1705SOL    HW2 6955   9.143  12.975   3.401
 1706SOL     OW 6956  14.155   7.619   9.781
 1706SOL    HW1 6957  14.117   7.701   9.813
 1706SOL    HW2 6958  14.242   7.616   9.821
 1707SOL     OW 6959   9.380  10.670   0.313
 1707SOL    HW1 6960   9.365  10.759   0.280
 1707SOL    HW2 6961   9.356  10.613   0.241
 1708SOL     OW 6962  13.860   8.833   3.116
 1708SOL    HW1 6963  13.848   8.924   3.144
 1708SOL    HW2 6964  13.882   8.786   3.197
 1709SOL     OW 6965   4.341   6.746   6.811
 1709SOL    HW1 6966   4.315   6.822   6.759
 1709SOL    HW2 6967   4.282   6.676   6.782
 1710SOL     OW 6968  11.061  10.948  14.278
 1710SOL    HW1 6969  10.973  10.939  14.316
 1710SOL    HW2 6970  11.077  10.863  14.236
 1711SOL     OW 6971   3.694  11.227   2.497
 1711SOL    HW1 6972   3.721  11.318   2.490
 1711SOL    HW2 6973   3.762  11.185   2.550
 1712SOL     OW 6974  10.282   9.201   0.333
 1712SOL    HW1 6975  10.317   9.289   0.319
 1712SOL    HW2 6976  10.218   9.212   0.404
 1713SOL     OW 6977  11.801   7.219   3.981
 1713SOL    HW1 6978  11.791   7.294   3.922
 1713SOL    HW2 6979  11.883   7.235   4.027
 1714SOL     OW 6980  10.564   9.630   2.228
 1714SOL    HW1 6981  10.526   9.675   2.304
 1714SOL    HW2 6982  10.650   9.671   2.216
 1715SOL     OW 6983   1.995  12.670  14.706
 1715SOL    HW1 6984   2.062  12.676  14.637
 1715SOL    HW2 6985   1.956  12.757  14.709
 1716SOL     OW 6986   5.547   3.436   0.019
 1716SOL    HW1 6987   5.570   3.371  14.827
 1716SOL    HW2 6988   5.623   3.441   0.076
 1717SOL     OW 6989   8.328  13.506   5.535
 1717SOL    HW1 6990   8.297  13.531   5.622
 1717SOL    HW2 6991   8.345  13.412   5.542
 1718SOL     OW 6992   0.796   2.459   1.561
 1718SOL    HW1 6993   0.818   2.374   1.520
 1718SOL    HW2 6994   0.741   2.436   1.635
 1719SOL     OW 6995   8.944   9.866  13.397
 1719SOL    HW1 6996   8.879   9.935  13.408
 1719SOL    HW2 6997   8.965   9.837  13.486
 1720SOL     OW 6998   7.879   9.023   2.529
 1720SOL    HW1 6999   7.902   9.071   2.450
 1720SOL    HW2 7000   7.929   9.066   2.599
 1721SOL     OW 7001  11.340   1.394   1.639
 1721SOL    HW1 7002  11.303   1.307   1.657
 1721SOL    HW2 7003  11.271   1.455   1.664
 1722SOL     OW 7004  12.747   1.102   5.314
 1722SOL    HW1 7005  12.727   1.045   5.239
 1722SOL    HW2 7006  12.662   1.138   5.339
 1723SOL     OW 7007   2.590  11.463   2.575
 1723SOL    HW1 7008   2.572  11.557   2.587
 1723SOL    HW2 7009   2.509  11.428   2.538
 1724SOL     OW 7010   9.439   8.128  10.264
 1724SOL    HW1 7011   9.366   8.119  10.202
 1724SOL    HW2 7012   9.516   8.141  10.208
 1725SOL     OW 7013   9.474   2.778   1.469
 1725SOL    HW1 7014   9.468   2.842   1.540
 1725SOL    HW2 7015   9.399   2.799   1.412
 1726SOL     OW 7016   1.817  14.724   7.506
 1726SOL    HW1 7017   1.875  14.724   7.582
 1726SOL    HW2 7018   1.851  14.655   7.449
 1727SOL     OW 7019   3.218   2.121   5.617
 1727SOL    HW1 7020   3.245   2.058   5.684
 1727SOL    HW2 7021   3.152   2.176   5.660
 1728SOL     OW 7022   4.419   4.707   6.798
 1728SOL    HW1 7023   4.480   4.747   6.737
 1728SOL    HW2 7024   4.357   4.659   6.742
 1729SOL     OW 7025   1.613   7.831  10.642
 1729SOL    HW1 7026   1.602   7.863  10.553
 1729SOL    HW2 7027   1.558   7.753  10.648
 1730SOL     OW 7028   3.917   9.039   4.677
 1730SOL    HW1 7029   4.012   9.027   4.671
 1730SOL    HW2 7030   3.906   9.127   4.712
 1731SOL     OW 7031   5.102   8.809  12.313
 1731SOL    HW1 7032   5.183   8.758  12.301
 1731SOL    HW2 7033   5.075   8.789  12.403
 1732SOL     OW 7034   8.155   8.373   3.934
 1732SOL    HW1 7035   8.249   8.382   3.949
 1732SOL    HW2 7036   8.139   8.279   3.935
 1733SOL     OW 7037  11.153   3.790   0.113
 1733SOL    HW1 7038  11.130   3.699   0.094
 1733SOL    HW2 7039  11.248   3.793   0.103
 1734SOL     OW 7040  11.802  10.562   7.867
 1734SOL    HW1 7041  11.756  10.563   7.782
 1734SOL    HW2 7042  11.765  10.488   7.913
 1735SOL     OW 7043   4.540  13.073   4.251
 1735SOL    HW1 7044   4.510  13.083   4.161
 1735SOL    HW2 7045   4.462  13.049   4.300
 1736SOL     OW 7046  10.048   1.610   7.620
 1736SOL    HW1 7047   9.980   1.659   7.572
 1736SOL    HW2 7048  10.010   1.522   7.630
 1737SOL     OW 7049  13.016   5.796  14.281
 1737SOL    HW1 7050  13.028   5.720  14.224
 1737SOL    HW2 7051  13.036   5.872  14.225
 1738SOL     OW 7052   0.809  11.101   7.036
 1738SOL    HW1 7053   0.820  11.153   6.957
 1738SOL    HW2 7054   0.805  11.010   7.005
 1739SOL     OW 7055   2.059   2.590  11.138
 1739SOL    HW1 7056   2.132   2.636  11.179
 1739SOL    HW2 7057   2.096   2.553  11.057
 1740SOL     OW 7058   8.207   4.115   7.104
 1740SOL    HW1 7059   8.131   4.061   7.081
 1740SOL    HW2 7060   8.183   4.203   7.074
 1741SOL     OW 7061   9.665   4.090   2.983
 1741SOL    HW1 7062   9.632   4.033   3.052
 1741SOL    HW2 7063   9.726   4.035   2.933
 1742SOL     OW 7064   2.455  13.572   9.413
 1742SOL    HW1 7065   2.368  13.570   9.453
 1742SOL    HW2 7066   2.515  13.553   9.486
 1743SOL     OW 7067   5.443   5.006   4.499
 1743SOL    HW1 7068   5.364   4.994   4.447
 1743SOL    HW2 7069   5.483   5.086   4.464
 1744SOL     OW 7070   9.708  10.148   1.014
 1744SOL    HW1 7071   9.677  10.175   0.927
 1744SOL    HW2 7072   9.773  10.079   0.995
 1745SOL     OW 7073   2.737   2.394  13.190
 1745SOL    HW1 7074   2.782   2.473  13.161
 1745SOL    HW2 7075   2.783   2.369  13.270
 1746SOL     OW 7076   9.698   4.830  12.439
 1746SOL    HW1 7077   9.690   4.788  12.525
 1746SOL    HW2 7078   9.623   4.797  12.389
 1747SOL     OW 7079  10.125  13.405   8.663
 1747SOL    HW1 7080  10.136  13.311   8.650
 1747SOL    HW2 7081  10.206  13.433   8.705
 1748SOL     OW 7082  11.434  12.765  11.615
 1748SOL    HW1 7083  11.483  12.683  11.621
 1748SOL    HW2 7084  11.374  12.763  11.689
 1749SOL     OW 7085   3.453  13.173   1.271
 1749SOL    HW1 7086   3.364  13.151   1.298
 1749SOL    HW2 7087   3.445  13.195   1.178
 1750SOL     OW 7088  10.052   6.364  12.333
 1750SOL    HW1 7089  10.083   6.453  12.351
 1750SOL    HW2 7090  10.069   6.351  12.240
 1751SOL     OW 7091   7.068   7.234  13.051
 1751SOL    HW1 7092   7.126   7.164  13.021
 1751SOL    HW2 7093   7.115   7.314  13.030
 1752SOL     OW 7094  12.255   1.266   9.033
 1752SOL    HW1 7095  12.246   1.200   8.963
 1752SOL    HW2 7096  12.334   1.314   9.010
 1753SOL     OW 7097   0.973  11.449   5.763
 1753SOL    HW1 7098   0.942  11.479   5.849
 1753SOL    HW2 7099   1.064  11.424   5.778
 1754SOL     OW 7100   2.929   8.618   2.935
 1754SOL    HW1 7101   2.935   8.535   2.983
 1754SOL    HW2 7102   2.949   8.595   2.844
 1755SOL     OW 7103   2.683  14.623   2.843
 1755SOL    HW1 7104   2.777  14.627   2.824
 1755SOL    HW2 7105   2.663  14.707   2.884
 1756SOL     OW 7106   0.652   5.091   1.458
 1756SOL    HW1 7107   0.637   5.004   1.422
 1756SOL    HW2 7108   0.717   5.077   1.528
 1757SOL     OW 7109   5.024  14.353   0.020
 1757SOL    HW1 7110   4.968  14.391  14.827
 1757SOL    HW2 7111   4.964  14.305   0.077
 1758SOL     OW 7112   9.952   1.048   6.732
 1758SOL    HW1 7113   9.921   0.975   6.785
 1758SOL    HW2 7114   9.873   1.088   6.696
 1759SOL     OW 7115   5.068   3.350   2.321
 1759SOL    HW1 7116   5.160   3.326   2.325
 1759SOL    HW2 7117   5.026   3.293   2.385
 1760SOL     OW 7118  14.266   7.626  14.492
 1760SOL    HW1 7119  14.179   7.632  14.530
 1760SOL    HW2 7120  14.305   7.549  14.533
 1761SOL     OW 7121   6.019   6.500   7.515
 1761SOL    HW1 7122   6.090   6.437   7.504
 1761SOL    HW2 7123   5.984   6.513   7.427
 1762SOL     OW 7124   3.457   8.049   4.189
 1762SOL    HW1 7125   3.543   8.009   4.202
 1762SOL    HW2 7126   3.410   8.033   4.271
 1763SOL     OW 7127   2.353   9.705   2.609
 1763SOL    HW1 7128   2.329   9.612   2.614
 1763SOL    HW2 7129   2.282   9.745   2.559
 1764SOL     OW 7130  11.260   5.640   5.483
 1764SOL    HW1 7131  11.304   5.687   5.412
 1764SOL    HW2 7132  11.326   5.577   5.513
 1765SOL     OW 7133  10.451   4.760   3.766
 1765SOL    HW1 7134  10.461   4.667   3.787
 1765SOL    HW2 7135  10.362   4.767   3.732
 1766SOL     OW 7136   7.602   9.164   0.590
 1766SOL    HW1 7137   7.532   9.191   0.531
 1766SOL    HW2 7138   7.682   9.197   0.550
 1767SOL     OW 7139  13.277  10.785  11.812
 1767SOL    HW1 7140  13.317  10.809  11.896
 1767SOL    HW2 7141  13.274  10.690  11.813
 1768SOL     OW 7142   4.819   6.934   4.789
 1768SOL    HW1 7143   4.871   6.868   4.743
 1768SOL    HW2 7144   4.882   7.003   4.812
 1769SOL     OW 7145   1.398  14.776   7.224
 1769SOL    HW1 7146   1.446  14.753   7.303
 1769SOL    HW2 7147   1.409  14.701   7.166
 1770SOL     OW 7148   1.254   3.139   7.385
 1770SOL    HW1 7149   1.274   3.163   7.476
 1770SOL    HW2 7150   1.166   3.173   7.369
 1771SOL     OW 7151  10.119   9.411   8.217
 1771SOL    HW1 7152  10.208   9.413   8.182
 1771SOL    HW2 7153  10.126   9.457   8.301
 1772SOL     OW 7154  14.255   6.477   0.880
 1772SOL    HW1 7155  14.303   6.555   0.851
 1772SOL    HW2 7156  14.163   6.496   0.862
 1773SOL     OW 7157   8.592   8.769   8.564
 1773SOL    HW1 7158   8.508   8.780   8.608
 1773SOL    HW2 7159   8.649   8.731   8.631
 1774SOL     OW 7160  13.647   2.065  14.019
 1774SOL    HW1 7161  13.644   2.157  13.990
 1774SOL    HW2 7162  13.613   2.016  13.944
 1775SOL     OW 7163  10.085   0.628   9.010
 1775SOL    HW1 7164  10.096   0.561   9.079
 1775SOL    HW2 7165  10.118   0.586   8.931
 1776SOL     OW 7166  14.577   2.405   1.741
 1776SOL    HW1 7167  14.582   2.484   1.687
 1776SOL    HW2 7168  14.590   2.436   1.830
 1777SOL     OW 7169  14.633   8.413   3.452
 1777SOL    HW1 7170  14.650   8.484   3.390
 1777SOL    HW2 7171  14.548   8.378   3.425
 1778SOL     OW 7172  11.877   6.451  14.063
 1778SOL    HW1 7173  11.920   6.379  14.016
 1778SOL    HW2 7174  11.799   6.410  14.102
 1779SOL     OW 7175   1.322  11.109   2.685
 1779SOL    HW1 7176   1.354  11.192   2.650
 1779SOL    HW2 7177   1.235  11.100   2.647
 1780SOL     OW 7178   9.949   4.915  13.547
 1780SOL    HW1 7179   9.857   4.890  13.538
 1780SOL    HW2 7180   9.995   4.861  13.483
 1781SOL     OW 7181  14.441   9.122   5.383
 1781SOL    HW1 7182  14.412   9.034   5.408
 1781SOL    HW2 7183  14.394   9.180   5.443
 1782SOL     OW 7184  11.191   4.677   6.215
 1782SOL    HW1 7185  11.109   4.665   6.263
 1782SOL    HW2 7186  11.227   4.759   6.248
 1783SOL     OW 7187   1.687  14.157   9.305
 1783SOL    HW1 7188   1.715  14.249   9.306
 1783SOL    HW2 7189   1.733  14.119   9.231
 1784SOL     OW 7190  12.663  12.669   2.859
 1784SOL    HW1 7191  12.594  12.691   2.922
 1784SOL    HW2 7192  12.669  12.574   2.863
 1785SOL     OW 7193  10.352  13.924   0.259
 1785SOL    HW1 7194  10.326  13.854   0.199
 1785SOL    HW2 7195  10.433  13.959   0.222
 1786SOL     OW 7196  12.417  14.251  13.647
 1786SOL    HW1 7197  12.337  14.238  13.698
 1786SOL    HW2 7198  12.407  14.193  13.571
 1787SOL     OW 7199  12.109   4.757  11.459
 1787SOL    HW1 7200  12.082   4.806  11.381
 1787SOL    HW2 7201  12.125   4.668  11.426
 1788SOL     OW 7202   0.291   1.118   6.821
 1788SOL    HW1 7203   0.320   1.062   6.749
 1788SOL    HW2 7204   0.204   1.148   6.794
 1789SOL     OW 7205   8.079  10.967   3.459
 1789SOL    HW1 7206   8.074  10.875   3.436
 1789SOL    HW2 7207   8.159  10.974   3.512
 1790SOL     OW 7208   3.288  11.895   2.767
 1790SOL    HW1 7209   3.243  11.977   2.787
 1790SOL    HW2 7210   3.230  11.850   2.706
 1791SOL     OW 7211  13.794   5.694   6.092
 1791SOL    HW1 7212  13.702   5.669   6.082
 1791SOL    HW2 7213  13.836   5.663   6.012
 1792SOL     OW 7214   8.602   2.693   0.188
 1792SOL    HW1 7215   8.567   2.606   0.170
 1792SOL    HW2 7216   8.655   2.682   0.266
 1793SOL     OW 7217   1.513   7.797   0.703
 1793SOL    HW1 7218   1.422   7.796   0.734
 1793SOL    HW2 7219   1.515   7.866   0.637
 1794SOL     OW 7220   2.762  12.827  11.889
 1794SOL    HW1 7221   2.849  12.789  11.905
 1794SOL    HW2 7222   2.763  12.909  11.938
 1795SOL     OW 7223   4.820   4.874   5.125
 1795SOL    HW1 7224   4.856   4.785   5.127
 1795SOL    HW2 7225   4.896   4.931   5.134
 1796SOL     OW 7226   4.376  12.280  11.586
 1796SOL    HW1 7227   4.384  12.302  11.679
 1796SOL    HW2 7228   4.302  12.332  11.555
 1797SOL     OW 7229   1.323   4.719   5.158
 1797SOL    HW1 7230   1.340   4.646   5.218
 1797SOL    HW2 7231   1.279   4.785   5.211
 1798SOL     OW 7232  14.574   3.128  11.920
 1798SOL    HW1 7233  14.515   3.190  11.877
 1798SOL    HW2 7234  14.589   3.165  12.007
 1799SOL     OW 7235  10.663   2.866   5.322
 1799SOL    HW1 7236  10.633   2.954   5.298
 1799SOL    HW2 7237  10.696   2.829   5.240
 1800SOL     OW 7238   4.502   1.098   6.171
 1800SOL    HW1 7239   4.565   1.152   6.124
 1800SOL    HW2 7240   4.426   1.155   6.184
 1801SOL     OW 7241   7.824  11.332   8.247
 1801SOL    HW1 7242   7.800  11.240   8.237
 1801SOL    HW2 7243   7.848  11.361   8.160
 1802SOL     OW 7244  11.026  12.588   9.295
 1802SOL    HW1 7245  11.031  12.581   9.391
 1802SOL    HW2 7246  11.097  12.649   9.272
 1803SOL     OW 7247   2.404  11.817   1.468
 1803SOL    HW1 7248   2.460  11.752   1.509
 1803SOL    HW2 7249   2.335  11.833   1.532
 1804SOL     OW 7250   4.244   1.211   1.646
 1804SOL    HW1 7251   4.250   1.283   1.584
 1804SOL    HW2 7252   4.246   1.132   1.592
 1805SOL     OW 7253  14.807   1.454  11.611
 1805SOL    HW1 7254   0.024   1.424  11.614
 1805SOL    HW2 7255  14.755   1.377  11.630
 1806SOL     OW 7256   3.806  13.327  14.763
 1806SOL    HW1 7257   3.736  13.273  14.727
 1806SOL    HW2 7258   3.773  13.417  14.756
 1807SOL     OW 7259   0.550  11.539   9.147
 1807SOL    HW1 7260   0.512  11.547   9.059
 1807SOL    HW2 7261   0.608  11.463   9.141
 1808SOL     OW 7262   9.192   6.841  13.213
 1808SOL    HW1 7263   9.176   6.923  13.166
 1808SOL    HW2 7264   9.188   6.774  13.145
 1809SOL     OW 7265  12.936  11.289   5.542
 1809SOL    HW1 7266  12.897  11.287   5.455
 1809SOL    HW2 7267  13.019  11.242   5.532
 1810SOL     OW 7268   9.259   0.537  13.965
 1810SOL    HW1 7269   9.164   0.542  13.954
 1810SOL    HW2 7270   9.279   0.596  14.037
 1811SOL     OW 7271  14.141  10.806   1.507
 1811SOL    HW1 7272  14.192  10.878   1.543
 1811SOL    HW2 7273  14.111  10.756   1.583
 1812SOL     OW 7274   6.899   0.786  12.398
 1812SOL    HW1 7275   6.986   0.751  12.412
 1812SOL    HW2 7276   6.849   0.713  12.361
 1813SOL     OW 7277   9.982  12.640  13.808
 1813SOL    HW1 7278  10.026  12.715  13.848
 1813SOL    HW2 7279   9.890  12.653  13.830
 1814SOL     OW 7280   2.933  11.386   4.029
 1814SOL    HW1 7281   2.998  11.439   4.076
 1814SOL    HW2 7282   2.956  11.296   4.050
 1815SOL     OW 7283   2.653  13.652   5.049
 1815SOL    HW1 7284   2.561  13.629   5.034
 1815SOL    HW2 7285   2.692  13.572   5.085
 1816SOL     OW 7286   1.284  14.600  12.046
 1816SOL    HW1 7287   1.197  14.564  12.029
 1816SOL    HW2 7288   1.344  14.540  12.002
 1817SOL     OW 7289   7.524  11.415  12.068
 1817SOL    HW1 7290   7.542  11.325  12.041
 1817SOL    HW2 7291   7.551  11.418  12.159
 1818SOL     OW 7292   7.098  14.093   2.309
 1818SOL    HW1 7293   7.066  14.165   2.255
 1818SOL    HW2 7294   7.054  14.105   2.394
 1819SOL     OW 7295   5.137   9.795   8.013
 1819SOL    HW1 7296   5.156   9.728   8.079
 1819SOL    HW2 7297   5.048   9.776   7.985
 1820SOL     OW 7298   9.148   3.008  12.012
 1820SOL    HW1 7299   9.215   3.013  12.080
 1820SOL    HW2 7300   9.181   3.064  11.941
 1821SOL     OW 7301   6.451   4.218   0.262
 1821SOL    HW1 7302   6.538   4.255   0.249
 1821SOL    HW2 7303   6.452   4.183   0.351
 1822SOL     OW 7304   2.799   2.214   0.491
 1822SOL    HW1 7305   2.713   2.172   0.488
 1822SOL    HW2 7306   2.856   2.150   0.534
 1823SOL     OW 7307   2.107   0.551   9.865
 1823SOL    HW1 7308   2.087   0.457   9.864
 1823SOL    HW2 7309   2.073   0.583   9.781
 1824SOL     OW 7310   2.235   0.102   3.361
 1824SOL    HW1 7311   2.258   0.030   3.421
 1824SOL    HW2 7312   2.149   0.131   3.391
 1825SOL     OW 7313   9.231  13.570  12.160
 1825SOL    HW1 7314   9.230  13.571  12.256
 1825SOL    HW2 7315   9.152  13.617  12.134
 1826SOL     OW 7316   8.430   5.436   1.520
 1826SOL    HW1 7317   8.502   5.410   1.578
 1826SOL    HW2 7318   8.465   5.421   1.431
 1827SOL     OW 7319   9.473   5.282   7.824
 1827SOL    HW1 7320   9.524   5.323   7.894
 1827SOL    HW2 7321   9.536   5.272   7.752
 1828SOL     OW 7322   3.766   8.643   7.299
 1828SOL    HW1 7323   3.774   8.561   7.348
 1828SOL    HW2 7324   3.849   8.651   7.251
 1829SOL     OW 7325  12.962   8.511   8.886
 1829SOL    HW1 7326  12.960   8.573   8.813
 1829SOL    HW2 7327  12.879   8.463   8.879
 1830SOL     OW 7328   3.603   6.942   1.891
 1830SOL    HW1 7329   3.631   6.882   1.822
 1830SOL    HW2 7330   3.600   7.028   1.849
 1831SOL     OW 7331   8.728  10.019   9.269
 1831SOL    HW1 7332   8.705   9.935   9.310
 1831SOL    HW2 7333   8.649  10.072   9.278
 1832SOL     OW 7334  11.340   5.459  10.120
 1832SOL    HW1 7335  11.272   5.509  10.075
 1832SOL    HW2 7336  11.382   5.408  10.050
 1833SOL     OW 7337   9.597  11.084   3.817
 1833SOL    HW1 7338   9.680  11.127   3.835
 1833SOL    HW2 7339   9.580  11.101   3.725
 1834SOL     OW 7340   2.466   1.202   9.781
 1834SOL    HW1 7341   2.492   1.282   9.827
 1834SOL    HW2 7342   2.370   1.204   9.783
 1835SOL     OW 7343   1.393  13.273   9.910
 1835SOL    HW1 7344   1.304  13.243   9.896
 1835SOL    HW2 7345   1.383  13.355   9.958
 1836SOL     OW 7346  13.728   7.004   5.952
 1836SOL    HW1 7347  13.755   6.924   5.906
 1836SOL    HW2 7348  13.659   7.041   5.898
 1837SOL     OW 7349  14.019   4.270   1.766
 1837SOL    HW1 7350  13.982   4.315   1.690
 1837SOL    HW2 7351  13.967   4.189   1.773
 1838SOL     OW 7352   2.004   2.314  10.941
 1838SOL    HW1 7353   1.966   2.248  10.999
 1838SOL    HW2 7354   2.096   2.318  10.968
 1839SOL     OW 7355   7.189   2.149   9.968
 1839SOL    HW1 7356   7.100   2.159   9.936
 1839SOL    HW2 7357   7.194   2.059   9.999
 1840SOL     OW 7358  13.389  11.680   8.929
 1840SOL    HW1 7359  13.314  11.653   8.981
 1840SOL    HW2 7360  13.450  11.607   8.935
 1841SOL     OW 7361   6.210  10.674  13.011
 1841SOL    HW1 7362   6.239  10.755  13.053
 1841SOL    HW2 7363   6.115  10.674  13.022
 1842SOL     OW 7364  13.525   3.750  11.027
 1842SOL    HW1 7365  13.606   3.793  11.056
 1842SOL    HW2 7366  13.544   3.657  11.032
 1843SOL     OW 7367   8.963   9.381   0.320
 1843SOL    HW1 7368   9.050   9.353   0.293
 1843SOL    HW2 7369   8.906   9.359   0.246
 1844SOL     OW 7370   4.600   2.781  11.000
 1844SOL    HW1 7371   4.606   2.849  11.066
 1844SOL    HW2 7372   4.644   2.818  10.923
 1845SOL     OW 7373   2.110   0.124  13.564
 1845SOL    HW1 7374   2.023   0.093  13.538
 1845SOL    HW2 7375   2.158   0.043  13.583
 1846SOL     OW 7376   5.174   6.565  10.436
 1846SOL    HW1 7377   5.202   6.652  10.405
 1846SOL    HW2 7378   5.120   6.583  10.513
 1847SOL     OW 7379  14.778   8.524   3.671
 1847SOL    HW1 7380  14.707   8.494   3.613
 1847SOL    HW2 7381  14.744   8.509   3.760
 1848SOL     OW 7382   5.929   9.247   3.686
 1848SOL    HW1 7383   5.939   9.341   3.697
 1848SOL    HW2 7384   5.886   9.218   3.766
 1849SOL     OW 7385   6.857   2.103   7.390
 1849SOL    HW1 7386   6.774   2.129   7.349
 1849SOL    HW2 7387   6.879   2.021   7.347
 1850SOL     OW 7388   5.256   9.938   4.911
 1850SOL    HW1 7389   5.216   9.999   4.973
 1850SOL    HW2 7390   5.250   9.853   4.955
 1851SOL     OW 7391  11.223   0.680  13.198
 1851SOL    HW1 7392  11.232   0.645  13.110
 1851SOL    HW2 7393  11.204   0.604  13.253
 1852SOL     OW 7394   5.779   6.082  13.637
 1852SOL    HW1 7395   5.860   6.072  13.587
 1852SOL    HW2 7396   5.758   5.994  13.667
 1853SOL     OW 7397   0.025   6.622   8.494
 1853SOL    HW1 7398  14.870   6.682   8.425
 1853SOL    HW2 7399   0.035   6.538   8.450
 1854SOL     OW 7400  12.080   0.432   8.528
 1854SOL    HW1 7401  12.037   0.512   8.497
 1854SOL    HW2 7402  12.072   0.371   8.455
 1855SOL     OW 7403   4.195   0.232   1.692
 1855SOL    HW1 7404   4.207   0.262   1.602
 1855SOL    HW2 7405   4.195   0.312   1.744
 1856SOL     OW 7406  13.416   1.070   3.795
 1856SOL    HW1 7407  13.490   1.098   3.740
 1856SOL    HW2 7408  13.456   1.054   3.880
 1857SOL     OW 7409  12.708   6.459   9.793
 1857SOL    HW1 7410  12.694   6.452   9.698
 1857SOL    HW2 7411  12.694   6.552   9.812
 1858SOL     OW 7412  13.231  11.892  12.671
 1858SOL    HW1 7413  13.227  11.879  12.576
 1858SOL    HW2 7414  13.197  11.811  12.708
 1859SOL     OW 7415  12.885   4.360   0.293
 1859SOL    HW1 7416  12.954   4.365   0.359
 1859SOL    HW2 7417  12.810   4.325   0.340
 1860SOL     OW 7418   9.011   8.357   9.399
 1860SOL    HW1 7419   9.032   8.337   9.308
 1860SOL    HW2 7420   8.926   8.402   9.395
 1861SOL     OW 7421   3.965   0.172   6.438
 1861SOL    HW1 7422   3.951   0.204   6.349
 1861SOL    HW2 7423   3.993   0.081   6.426
 1862SOL     OW 7424  11.787  12.419  10.952
 1862SOL    HW1 7425  11.829  12.483  10.896
 1862SOL    HW2 7426  11.819  12.439  11.040
 1863SOL     OW 7427   2.791  13.109   4.496
 1863SOL    HW1 7428   2.853  13.082   4.428
 1863SOL    HW2 7429   2.711  13.131   4.448
 1864SOL     OW 7430   3.710   3.721   6.226
 1864SOL    HW1 7431   3.748   3.807   6.244
 1864SOL    HW2 7432   3.752   3.692   6.145
 1865SOL     OW 7433  13.487   4.048   5.405
 1865SOL    HW1 7434  13.463   4.059   5.313
 1865SOL    HW2 7435  13.563   4.106   5.417
 1866SOL     OW 7436   4.773  14.052   2.530
 1866SOL    HW1 7437   4.721  13.982   2.569
 1866SOL    HW2 7438   4.858  14.012   2.514
 1867SOL     OW 7439  12.633   0.265   5.631
 1867SOL    HW1 7440  12.541   0.240   5.639
 1867SOL    HW2 7441  12.670   0.204   5.566
 1868SOL     OW 7442  11.922   9.343  13.161
 1868SOL    HW1 7443  11.980   9.275  13.127
 1868SOL    HW2 7444  11.952   9.424  13.118
 1869SOL     OW 7445   3.984   8.219   2.775
 1869SOL    HW1 7446   3.988   8.301   2.727
 1869SOL    HW2 7447   4.070   8.211   2.816
 1870SOL     OW 7448   1.985   2.669   8.248
 1870SOL    HW1 7449   1.992   2.600   8.182
 1870SOL    HW2 7450   1.955   2.746   8.200
 1871SOL     OW 7451  11.805   0.550   1.285
 1871SOL    HW1 7452  11.813   0.578   1.376
 1871SOL    HW2 7453  11.723   0.501   1.281
 1872SOL     OW 7454   7.208   9.791   0.812
 1872SOL    HW1 7455   7.250   9.857   0.757
 1872SOL    HW2 7456   7.190   9.836   0.895
 1873SOL     OW 7457   1.801  13.409   3.567
 1873SOL    HW1 7458   1.843  13.474   3.512
 1873SOL    HW2 7459   1.852  13.329   3.554
 1874SOL     OW 7460   0.967   6.638   9.105
 1874SOL    HW1 7461   0.963   6.730   9.131
 1874SOL    HW2 7462   0.880   6.603   9.125
 1875SOL     OW 7463   8.162   7.746  10.429
 1875SOL    HW1 7464   8.067   7.761  10.436
 1875SOL    HW2 7465   8.193   7.746  10.520
 1876SOL     OW 7466   3.911   3.816   1.613
 1876SOL    HW1 7467   3.936   3.851   1.527
 1876SOL    HW2 7468   3.819   3.840   1.623
 1877SOL     OW 7469   4.376   1.313   9.128
 1877SOL    HW1 7470   4.460   1.359   9.136
 1877SOL    HW2 7471   4.329   1.336   9.208
 1878SOL     OW 7472   0.008   9.366  12.112
 1878SOL    HW1 7473   0.077   9.329  12.166
 1878SOL    HW2 7474  14.811   9.302  12.115
 1879SOL     OW 7475   0.568  10.808   6.696
 1879SOL    HW1 7476   0.595  10.890   6.655
 1879SOL    HW2 7477   0.641  10.748   6.680
 1880SOL     OW 7478   3.188   8.891  12.526
 1880SOL    HW1 7479   3.273   8.928  12.549
 1880SOL    HW2 7480   3.194   8.872  12.432
 1881SOL     OW 7481   6.300   6.190   5.401
 1881SOL    HW1 7482   6.214   6.180   5.442
 1881SOL    HW2 7483   6.348   6.111   5.426
 1882SOL     OW 7484   4.784   0.947   8.157
 1882SOL    HW1 7485   4.768   0.864   8.111
 1882SOL    HW2 7486   4.724   0.945   8.231
 1883SOL     OW 7487   1.216  14.174   5.927
 1883SOL    HW1 7488   1.297  14.225   5.918
 1883SOL    HW2 7489   1.174  14.181   5.842
 1884SOL     OW 7490   5.185   4.348  11.436
 1884SOL    HW1 7491   5.154   4.415  11.376
 1884SOL    HW2 7492   5.107   4.324  11.487
 1885SOL     OW 7493  13.787  12.482   3.101
 1885SOL    HW1 7494  13.770  12.389   3.086
 1885SOL    HW2 7495  13.702  12.524   3.085
 1886SOL     OW 7496  13.215  10.591   9.682
 1886SOL    HW1 7497  13.261  10.617   9.602
 1886SOL    HW2 7498  13.267  10.629   9.753
 1887SOL     OW 7499  11.653  11.654   4.528
 1887SOL    HW1 7500  11.616  11.566   4.537
 1887SOL    HW2 7501  11.638  11.695   4.613
 1888SOL     OW 7502   2.639   6.103   2.745
 1888SOL    HW1 7503   2.707   6.169   2.754
 1888SOL    HW2 7504   2.562   6.143   2.785
 1889SOL     OW 7505  10.229  10.103   4.370
 1889SOL    HW1 7506  10.241  10.141   4.283
 1889SOL    HW2 7507  10.167  10.161   4.414
 1890SOL     OW 7508   2.377  13.405   0.727
 1890SOL    HW1 7509   2.415  13.422   0.813
 1890SOL    HW2 7510   2.426  13.331   0.693
 1891SOL     OW 7511   1.047   5.384   2.989
 1891SOL    HW1 7512   1.055   5.289   2.981
 1891SOL    HW2 7513   0.968   5.397   3.042
 1892SOL     OW 7514  12.068   1.664   0.039
 1892SOL    HW1 7515  11.975   1.651   0.056
 1892SOL    HW2 7516  12.090   1.746   0.085
 1893SOL     OW 7517   6.283  13.628  12.367
 1893SOL    HW1 7518   6.287  13.661  12.457
 1893SOL    HW2 7519   6.234  13.694  12.319
 1894SOL     OW 7520  11.989  11.312   6.501
 1894SOL    HW1 7521  11.935  11.281   6.574
 1894SOL    HW2 7522  12.065  11.352   6.543
 1895SOL     OW 7523  11.131   3.371   3.963
 1895SOL    HW1 7524  11.202   3.416   3.917
 1895SOL    HW2 7525  11.120   3.422   4.044
 1896SOL     OW 7526  14.801   8.867  11.130
 1896SOL    HW1 7527  14.711   8.839  11.144
 1896SOL    HW2 7528  14.829   8.821  11.050
 1897SOL     OW 7529   4.788  11.013   4.344
 1897SOL    HW1 7530   4.700  11.009   4.306
 1897SOL    HW2 7531   4.840  11.062   4.281
 1898SOL     OW 7532   4.968   2.204   8.363
 1898SOL    HW1 7533   4.903   2.240   8.424
 1898SOL    HW2 7534   5.035   2.166   8.420
 1899SOL     OW 7535  14.736   9.222   6.096
 1899SOL    HW1 7536  14.807   9.161   6.116
 1899SOL    HW2 7537  14.720   9.210   6.003
 1900SOL     OW 7538   9.932   0.942   0.949
 1900SOL    HW1 7539   9.996   0.984   1.007
 1900SOL    HW2 7540   9.934   0.994   0.869
 1901SOL     OW 7541   1.476  13.175   4.636
 1901SOL    HW1 7542   1.455  13.261   4.600
 1901SOL    HW2 7543   1.529  13.134   4.568
 1902SOL     OW 7544   7.294  10.497   3.492
 1902SOL    HW1 7545   7.286  10.540   3.576
 1902SOL    HW2 7546   7.344  10.558   3.438
 1903SOL     OW 7547  13.916  10.201  12.150
 1903SOL    HW1 7548  13.938  10.155  12.069
 1903SOL    HW2 7549  13.827  10.233  12.137
 1904SOL     OW 7550   1.870   0.597   5.805
 1904SOL    HW1 7551   1.843   0.511   5.840
 1904SOL    HW2 7552   1.926   0.634   5.873
 1905SOL     OW 7553  11.561   0.513   4.536
 1905SOL    HW1 7554  11.612   0.434   4.554
 1905SOL    HW2 7555  11.611   0.558   4.467
 1906SOL     OW 7556   1.976   9.764   6.352
 1906SOL    HW1 7557   1.950   9.677   6.382
 1906SOL    HW2 7558   2.059   9.750   6.306
 1907SOL     OW 7559  10.621  11.566   8.155
 1907SOL    HW1 7560  10.643  11.644   8.103
 1907SOL    HW2 7561  10.690  11.503   8.133
 1908SOL     OW 7562   0.865   6.439  13.031
 1908SOL    HW1 7563   0.800   6.391  13.083
 1908SOL    HW2 7564   0.821   6.521  13.009
 1909SOL     OW 7565  11.771   5.572  13.412
 1909SOL    HW1 7566  11.752   5.560  13.505
 1909SOL    HW2 7567  11.717   5.647  13.386
 1910SOL     OW 7568  10.406  13.988   3.220
 1910SOL    HW1 7569  10.374  14.071   3.187
 1910SOL    HW2 7570  10.434  14.007   3.310
 1911SOL     OW 7571   5.642   3.375  12.271
 1911SOL    HW1 7572   5.630   3.426  12.191
 1911SOL    HW2 7573   5.677   3.436  12.335
 1912SOL     OW 7574   1.558   7.477   8.440
 1912SOL    HW1 7575   1.594   7.389   8.453
 1912SOL    HW2 7576   1.610   7.533   8.498
 1913SOL     OW 7577   7.156  14.427  13.464
 1913SOL    HW1 7578   7.223  14.414  13.531
 1913SOL    HW2 7579   7.088  14.478  13.507
 1914SOL     OW 7580   3.621   6.797   5.343
 1914SOL    HW1 7581   3.572   6.786   5.425
 1914SOL    HW2 7582   3.563   6.759   5.277
 1915SOL     OW 7583   6.785  12.766  10.528
 1915SOL    HW1 7584   6.841  12.738  10.455
 1915SOL    HW2 7585   6.734  12.838  10.492
 1916SOL     OW 7586   7.104   9.726   7.279
 1916SOL    HW1 7587   7.090   9.728   7.184
 1916SOL    HW2 7588   7.159   9.803   7.297
 1917SOL     OW 7589   1.165  13.599   0.157
 1917SOL    HW1 7590   1.186  13.541   0.083
 1917SOL    HW2 7591   1.250  13.635   0.183
 1918SOL     OW 7592   7.366   4.656  11.607
 1918SOL    HW1 7593   7.382   4.576  11.657
 1918SOL    HW2 7594   7.450   4.677  11.567
 1919SOL     OW 7595  14.423   1.331  12.602
 1919SOL    HW1 7596  14.377   1.374  12.674
 1919SOL    HW2 7597  14.397   1.379  12.524
 1920SOL     OW 7598   0.773  11.143   6.341
 1920SOL    HW1 7599   0.732  11.204   6.279
 1920SOL    HW2 7600   0.851  11.189   6.371
 1921SOL     OW 7601   5.248   6.554   7.550
 1921SOL    HW1 7602   5.286   6.477   7.593
 1921SOL    HW2 7603   5.230   6.525   7.461
 1922SOL     OW 7604  13.989   5.211   6.490
 1922SOL    HW1 7605  13.965   5.230   6.581
 1922SOL    HW2 7606  14.028   5.293   6.458
 1923SOL     OW 7607  10.268   2.097  11.863
 1923SOL    HW1 7608  10.202   2.030  11.878
 1923SOL    HW2 7609  10.263   2.116  11.770
 1924SOL     OW 7610   5.118   1.262  10.997
 1924SOL    HW1 7611   5.072   1.310  11.067
 1924SOL    HW2 7612   5.049   1.220  10.947
 1925SOL     OW 7613   8.175   1.842   1.330
 1925SOL    HW1 7614   8.233   1.776   1.366
 1925SOL    HW2 7615   8.233   1.914   1.303
 1926SOL     OW 7616  14.496   5.233   5.953
 1926SOL    HW1 7617  14.518   5.279   5.872
 1926SOL    HW2 7618  14.419   5.182   5.931
 1927SOL     OW 7619   7.320  14.011  13.819
 1927SOL    HW1 7620   7.271  14.013  13.737
 1927SOL    HW2 7621   7.408  14.040  13.796
 1928SOL     OW 7622  12.346  14.811   1.794
 1928SOL    HW1 7623  12.289   0.012   1.804
 1928SOL    HW2 7624  12.405  14.815   1.869
 1929SOL     OW 7625   8.816   3.854   7.501
 1929SOL    HW1 7626   8.896   3.828   7.546
 1929SOL    HW2 7627   8.771   3.771   7.482
 1930SOL     OW 7628   3.508  10.476  13.037
 1930SOL    HW1 7629   3.550  10.390  13.050
 1930SOL    HW2 7630   3.423  10.455  12.998
 1931SOL     OW 7631   7.594   6.983  11.458
 1931SOL    HW1 7632   7.587   7.075  11.433
 1931SOL    HW2 7633   7.541   6.975  11.537
 1932SOL     OW 7634   1.952   8.290  10.126
 1932SOL    HW1 7635   1.894   8.351  10.080
 1932SOL    HW2 7636   1.944   8.208  10.078
 1933SOL     OW 7637  11.149  10.689   3.024
 1933SOL    HW1 7638  11.115  10.670   3.112
 1933SOL    HW2 7639  11.184  10.777   3.031
 1934SOL     OW 7640   2.555   7.963   2.811
 1934SOL    HW1 7641   2.468   7.985   2.845
 1934SOL    HW2 7642   2.574   7.877   2.848
 1935SOL     OW 7643   5.259   8.116   6.264
 1935SOL    HW1 7644   5.199   8.144   6.333
 1935SOL    HW2 7645   5.316   8.053   6.306
 1936SOL     OW 7646   1.313  14.558   3.359
 1936SOL    HW1 7647   1.373  14.605   3.417
 1936SOL    HW2 7648   1.367  14.491   3.318
 1937SOL     OW 7649  11.021   5.584  10.400
 1937SOL    HW1 7650  11.039   5.508  10.344
 1937SOL    HW2 7651  11.080   5.574  10.474
 1938SOL     OW 7652   5.942   2.088   1.628
 1938SOL    HW1 7653   6.008   2.020   1.615
 1938SOL    HW2 7654   5.899   2.064   1.710
 1939SOL     OW 7655  14.176  14.607  11.933
 1939SOL    HW1 7656  14.250  14.659  11.965
 1939SOL    HW2 7657  14.099  14.647  11.973
 1940SOL     OW 7658  10.418  12.503   5.684
 1940SOL    HW1 7659  10.399  12.467   5.770
 1940SOL    HW2 7660  10.492  12.563   5.698
 1941SOL     OW 7661   4.230   3.342  14.307
 1941SOL    HW1 7662   4.205   3.427  14.271
 1941SOL    HW2 7663   4.311   3.320  14.261
 1942SOL     OW 7664  13.019   8.956   0.245
 1942SOL    HW1 7665  12.996   8.886   0.184
 1942SOL    HW2 7666  12.956   9.026   0.228
 1943SOL     OW 7667   1.826  10.994   5.904
 1943SOL    HW1 7668   1.792  10.973   5.817
 1943SOL    HW2 7669   1.898  10.933   5.917
 1944SOL     OW 7670  10.513  10.512   8.206
 1944SOL    HW1 7671  10.479  10.561   8.131
 1944SOL    HW2 7672  10.597  10.478   8.176
 1945SOL     OW 7673  12.334   0.866   6.766
 1945SOL    HW1 7674  12.346   0.810   6.843
 1945SOL    HW2 7675  12.287   0.943   6.800
 1946SOL     OW 7676  10.246   1.988   7.778
 1946SOL    HW1 7677  10.199   1.932   7.717
 1946SOL    HW2 7678  10.234   2.077   7.743
 1947SOL     OW 7679  11.844   7.864  12.323
 1947SOL    HW1 7680  11.770   7.919  12.350
 1947SOL    HW2 7681  11.804   7.783  12.294
 1948SOL     OW 7682   2.149   7.469   2.898
 1948SOL    HW1 7683   2.155   7.460   2.993
 1948SOL    HW2 7684   2.056   7.479   2.880
 1949SOL     OW 7685   3.377   1.346  11.389
 1949SOL    HW1 7686   3.393   1.432  11.430
 1949SOL    HW2 7687   3.465   1.311  11.372
 1950SOL     OW 7688  11.361   3.443   5.501
 1950SOL    HW1 7689  11.324   3.456   5.588
 1950SOL    HW2 7690  11.333   3.520   5.451
 1951SOL     OW 7691  14.345   9.621  12.654
 1951SOL    HW1 7692  14.439   9.633  12.659
 1951SOL    HW2 7693  14.331   9.565  12.577
 1952SOL     OW 7694   3.895   9.741   9.897
 1952SOL    HW1 7695   3.893   9.651   9.929
 1952SOL    HW2 7696   3.857   9.735   9.809
 1953SOL     OW 7697   8.732   0.194  12.630
 1953SOL    HW1 7698   8.764   0.104  12.618
 1953SOL    HW2 7699   8.750   0.213  12.722
 1954SOL     OW 7700   3.866   9.210   8.930
 1954SOL    HW1 7701   3.916   9.156   8.991
 1954SOL    HW2 7702   3.835   9.149   8.863
 1955SOL     OW 7703  10.945  13.517  14.145
 1955SOL    HW1 7704  10.946  13.435  14.195
 1955SOL    HW2 7705  10.942  13.585  14.212
 1956SOL     OW 7706   0.527  11.954   9.576
 1956SOL    HW1 7707   0.595  12.020   9.561
 1956SOL    HW2 7708   0.493  11.934   9.489
 1957SOL     OW 7709   2.524   9.817   7.602
 1957SOL    HW1 7710   2.552   9.880   7.668
 1957SOL    HW2 7711   2.566   9.847   7.521
 1958SOL     OW 7712  13.033   6.825   2.171
 1958SOL    HW1 7713  13.008   6.762   2.239
 1958SOL    HW2 7714  13.113   6.866   2.205
 1959SOL     OW 7715   1.053   7.516   1.436
 1959SOL    HW1 7716   1.121   7.507   1.502
 1959SOL    HW2 7717   1.057   7.608   1.409
 1960SOL     OW 7718  12.305  13.876   2.485
 1960SOL    HW1 7719  12.236  13.835   2.536
 1960SOL    HW2 7720  12.285  13.969   2.488
 1961SOL     OW 7721   8.891  12.492  13.093
 1961SOL    HW1 7722   8.871  12.577  13.054
 1961SOL    HW2 7723   8.956  12.453  13.035
 1962SOL     OW 7724  13.012   2.190  12.826
 1962SOL    HW1 7725  13.039   2.101  12.802
 1962SOL    HW2 7726  12.917   2.183  12.837
 1963SOL     OW 7727   1.037   4.361  14.593
 1963SOL    HW1 7728   0.947   4.392  14.585
 1963SOL    HW2 7729   1.090   4.428  14.550
 1964SOL     OW 7730   0.953  10.996  10.615
 1964SOL    HW1 7731   0.984  10.915  10.574
 1964SOL    HW2 7732   0.955  11.061  10.544
 1965SOL     OW 7733   6.349  11.390   0.334
 1965SOL    HW1 7734   6.349  11.302   0.373
 1965SOL    HW2 7735   6.358  11.374   0.240
 1966SOL     OW 7736  13.949   9.419  14.628
 1966SOL    HW1 7737  14.030   9.468  14.640
 1966SOL    HW2 7738  13.926   9.390  14.717
 1967SOL     OW 7739  11.013  11.116   7.217
 1967SOL    HW1 7740  10.950  11.051   7.249
 1967SOL    HW2 7741  11.098  11.075   7.229
 1968SOL     OW 7742   9.034   6.961  14.797
 1968SOL    HW1 7743   9.014   6.906  14.722
 1968SOL    HW2 7744   8.963   7.025  14.799
 1969SOL     OW 7745   8.619  10.999   4.924
 1969SOL    HW1 7746   8.591  10.908   4.913
 1969SOL    HW2 7747   8.686  11.012   4.857
 1970SOL     OW 7748   2.145  13.253  13.046
 1970SOL    HW1 7749   2.152  13.345  13.072
 1970SOL    HW2 7750   2.137  13.256  12.951
 1971SOL     OW 7751   1.569  14.838  14.601
 1971SOL    HW1 7752   1.527  14.809  14.682
 1971SOL    HW2 7753   1.570   0.060  14.608
 1972SOL     OW 7754  11.229  13.552   4.593
 1972SOL    HW1 7755  11.166  13.604   4.643
 1972SOL    HW2 7756  11.314  13.581   4.625
 1973SOL     OW 7757   2.722  11.000   7.747
 1973SOL    HW1 7758   2.759  10.982   7.660
 1973SOL    HW2 7759   2.720  11.096   7.752
 1974SOL     OW 7760  10.717  14.511  10.320
 1974SOL    HW1 7761  10.782  14.461  10.272
 1974SOL    HW2 7762  10.762  14.591  10.346
 1975SOL     OW 7763   7.805  12.870   1.847
 1975SOL    HW1 7764   7.719  12.861   1.806
 1975SOL    HW2 7765   7.812  12.795   1.906
 1976SOL     OW 7766  12.776  12.202  12.702
 1976SOL    HW1 7767  12.789  12.295  12.684
 1976SOL    HW2 7768  12.812  12.189  12.789
 1977SOL     OW 7769   8.753   5.607  14.489
 1977SOL    HW1 7770   8.733   5.542  14.421
 1977SOL    HW2 7771   8.716   5.689  14.456
 1978SOL     OW 7772   0.504  14.349   2.464
 1978SOL    HW1 7773   0.590  14.391   2.466
 1978SOL    HW2 7774   0.469  14.358   2.552
 1979SOL     OW 7775   8.542   3.572  12.700
 1979SOL    HW1 7776   8.544   3.666  12.718
 1979SOL    HW2 7777   8.486   3.563  12.623
 1980SOL     OW 7778   3.199   9.150  13.590
 1980SOL    HW1 7779   3.219   9.060  13.564
 1980SOL    HW2 7780   3.197   9.199  13.508
 1981SOL     OW 7781  12.232   3.066  12.683
 1981SOL    HW1 7782  12.257   3.156  12.659
 1981SOL    HW2 7783  12.146   3.075  12.722
 1982SOL     OW 7784   8.618   9.873  14.135
 1982SOL    HW1 7785   8.632   9.800  14.076
 1982SOL    HW2 7786   8.670   9.945  14.099
 1983SOL     OW 7787  10.580  14.077   2.358
 1983SOL    HW1 7788  10.575  13.999   2.413
 1983SOL    HW2 7789  10.493  14.085   2.319
 1984SOL     OW 7790  12.211  14.601   4.625
 1984SOL    HW1 7791  12.209  14.523   4.681
 1984SOL    HW2 7792  12.130  14.597   4.575
 1985SOL     OW 7793   8.123   6.280  12.424
 1985SOL    HW1 7794   8.053   6.271  12.489
 1985SOL    HW2 7795   8.111   6.206  12.366
 1986SOL     OW 7796  12.404   4.575   4.742
 1986SOL    HW1 7797  12.379   4.536   4.658
 1986SOL    HW2 7798  12.491   4.612   4.726
 1987SOL     OW 7799   2.279   6.040   0.025
 1987SOL    HW1 7800   2.224   5.964   0.043
 1987SOL    HW2 7801   2.350   6.035   0.089
 1988SOL     OW 7802   5.259  11.323  11.660
 1988SOL    HW1 7803   5.194  11.361  11.720
 1988SOL    HW2 7804   5.293  11.248  11.707
 1989SOL     OW 7805   0.239  11.770   3.341
 1989SOL    HW1 7806   0.178  11.804   3.276
 1989SOL    HW2 7807   0.305  11.724   3.290
 1990SOL     OW 7808   7.953   7.283  13.480
 1990SOL    HW1 7809   8.013   7.338  13.529
 1990SOL    HW2 7810   7.942   7.328  13.395
 1991SOL     OW 7811   8.436   5.397   4.982
 1991SOL    HW1 7812   8.409   5.313   5.018
 1991SOL    HW2 7813   8.371   5.417   4.914
 1992SOL     OW 7814  13.094   0.158  10.422
 1992SOL    HW1 7815  13.063   0.102  10.351
 1992SOL    HW2 7816  13.061   0.245  10.400
 1993SOL     OW 7817   1.012  13.621   0.475
 1993SOL    HW1 7818   1.012  13.564   0.398
 1993SOL    HW2 7819   0.977  13.566   0.545
 1994SOL     OW 7820  10.979   2.468   2.847
 1994SOL    HW1 7821  10.887   2.445   2.853
 1994SOL    HW2 7822  10.980   2.556   2.809
 1995SOL     OW 7823   2.334   4.425   0.109
 1995SOL    HW1 7824   2.309   4.501   0.057
 1995SOL    HW2 7825   2.424   4.442   0.135
 1996SOL     OW 7826   7.008   8.285   5.027
 1996SOL    HW1 7827   7.073   8.214   5.030
 1996SOL    HW2 7828   7.046   8.354   5.081
 1997SOL     OW 7829   9.021   6.066  13.188
 1997SOL    HW1 7830   8.983   6.148  13.222
 1997SOL    HW2 7831   9.114   6.084  13.179
 1998SOL     OW 7832   1.371   4.662   8.654
 1998SOL    HW1 7833   1.458   4.624   8.639
 1998SOL    HW2 7834   1.328   4.601   8.713
 1999SOL     OW 7835  14.059  11.293  12.559
 1999SOL    HW1 7836  14.155  11.292  12.558
 1999SOL    HW2 7837  14.034  11.242  12.482
 2000SOL     OW 7838   1.362   4.737   5.506
 2000SOL    HW1 7839   1.389   4.675   5.574
 2000SOL    HW2 7840   1.269   4.720   5.494
 2001SOL     OW 7841   0.492   9.451  12.795
 2001SOL    HW1 7842   0.466   9.489  12.879
 2001SOL    HW2 7843   0.411   9.415  12.759
 2002SOL     OW 7844   0.186   7.585  14.156
 2002SOL    HW1 7845   0.125   7.617  14.089
 2002SOL    HW2 7846   0.244   7.659  14.174
 2003SOL     OW 7847   3.215   7.963  14.539
 2003SOL    HW1 7848   3.119   7.958  14.542
 2003SOL    HW2 7849   3.244   7.897  14.603
 2004SOL     OW 7850   0.658  13.592  13.019
 2004SOL    HW1 7851   0.737  13.557  12.977
 2004SOL    HW2 7852   0.670  13.575  13.112
 2005SOL     OW 7853   9.234  12.269  13.387
 2005SOL    HW1 7854   9.277  12.352  13.367
 2005SOL    HW2 7855   9.166  12.292  13.450
 2006SOL     OW 7856  12.904   1.751   5.080
 2006SOL    HW1 7857  12.817   1.734   5.117
 2006SOL    HW2 7858  12.955   1.785   5.154
 2007SOL     OW 7859   7.597   6.932  10.039
 2007SOL    HW1 7860   7.639   6.980   9.967
 2007SOL    HW2 7861   7.504   6.951  10.029
 2008SOL     OW 7862   4.978  12.367  14.407
 2008SOL    HW1 7863   5.008  12.334  14.492
 2008SOL    HW2 7864   4.928  12.294  14.370
 2009SOL     OW 7865   4.307   6.386   1.794
 2009SOL    HW1 7866   4.250   6.319   1.831
 2009SOL    HW2 7867   4.396   6.357   1.815
 2010SOL     OW 7868  12.763  14.168  14.361
 2010SOL    HW1 7869  12.801  14.164  14.274
 2010SOL    HW2 7870  12.822  14.225  14.411
 2011SOL     OW 7871   9.131   5.412   2.774
 2011SOL    HW1 7872   9.111   5.406   2.680
 2011SOL    HW2 7873   9.047   5.393   2.817
 2012SOL     OW 7874  14.598   2.106  13.672
 2012SOL    HW1 7875  14.631   2.193  13.695
 2012SOL    HW2 7876  14.666   2.046  13.702
 2013SOL     OW 7877   0.777   0.856   1.243
 2013SOL    HW1 7878   0.794   0.949   1.229
 2013SOL    HW2 7879   0.825   0.834   1.322
 2014SOL     OW 7880   1.333   2.655  10.270
 2014SOL    HW1 7881   1.419   2.694  10.283
 2014SOL    HW2 7882   1.303   2.632  10.358
 2015SOL     OW 7883   3.611   0.375   4.979
 2015SOL    HW1 7884   3.518   0.354   4.981
 2015SOL    HW2 7885   3.643   0.352   5.067
 2016SOL     OW 7886  11.053   8.560  10.273
 2016SOL    HW1 7887  11.145   8.580  10.254
 2016SOL    HW2 7888  11.007   8.642  10.259
 2017SOL     OW 7889   3.133   2.030   5.858
 2017SOL    HW1 7890   3.051   2.040   5.810
 2017SOL    HW2 7891   3.131   2.098   5.925
 2018SOL     OW 7892  13.828  14.178  11.190
 2018SOL    HW1 7893  13.819  14.132  11.107
 2018SOL    HW2 7894  13.800  14.114  11.256
 2019SOL     OW 7895   0.501   5.936  12.447
 2019SOL    HW1 7896   0.573   5.994  12.470
 2019SOL    HW2 7897   0.434   5.994  12.411
 2020SOL     OW 7898  13.577   7.050  13.329
 2020SOL    HW1 7899  13.483   7.052  13.346
 2020SOL    HW2 7900  13.589   7.109  13.254
 2021SOL     OW 7901   1.927   5.750   6.407
 2021SOL    HW1 7902   1.889   5.720   6.489
 2021SOL    HW2 7903   1.859   5.734   6.342
 2022SOL     OW 7904  13.825   5.171   7.349
 2022SOL    HW1 7905  13.743   5.121   7.345
 2022SOL    HW2 7906  13.839   5.200   7.259
 2023SOL     OW 7907   8.746   4.236   4.315
 2023SOL    HW1 7908   8.784   4.295   4.381
 2023SOL    HW2 7909   8.655   4.264   4.308
 2024SOL     OW 7910  14.731   7.721   8.883
 2024SOL    HW1 7911  14.636   7.723   8.873
 2024SOL    HW2 7912  14.763   7.791   8.826
 2025SOL     OW 7913  11.105   1.144   7.788
 2025SOL    HW1 7914  11.061   1.159   7.872
 2025SOL    HW2 7915  11.104   1.049   7.777
 2026SOL     OW 7916   4.922   0.173   8.110
 2026SOL    HW1 7917   5.014   0.161   8.136
 2026SOL    HW2 7918   4.909   0.267   8.109
 2027SOL     OW 7919   1.151   7.449  12.916
 2027SOL    HW1 7920   1.187   7.369  12.955
 2027SOL    HW2 7921   1.223   7.485  12.865
 2028SOL     OW 7922   0.178   8.806   8.003
 2028SOL    HW1 7923   0.188   8.724   8.052
 2028SOL    HW2 7924   0.131   8.864   8.063
 2029SOL     OW 7925  13.500   9.439  10.064
 2029SOL    HW1 7926  13.591   9.459  10.045
 2029SOL    HW2 7927  13.502   9.395  10.149
 2030SOL     OW 7928  10.362   9.805   9.309
 2030SOL    HW1 7929  10.389   9.735   9.368
 2030SOL    HW2 7930  10.340   9.761   9.227
 2031SOL     OW 7931   7.659  10.861  12.430
 2031SOL    HW1 7932   7.641  10.781  12.382
 2031SOL    HW2 7933   7.700  10.919  12.366
 2032SOL     OW 7934  11.753   4.662   8.790
 2032SOL    HW1 7935  11.774   4.755   8.780
 2032SOL    HW2 7936  11.696   4.659   8.867
 2033SOL     OW 7937   2.015   9.479  12.816
 2033SOL    HW1 7938   2.094   9.532  12.801
 2033SOL    HW2 7939   2.023   9.406  12.755
 2034SOL     OW 7940   5.514  11.281   0.086
 2034SOL    HW1 7941   5.511  11.218   0.013
 2034SOL    HW2 7942   5.423  11.290   0.114
 2035SOL     OW 7943   9.501   2.416   4.571
 2035SOL    HW1 7944   9.574   2.358   4.593
 2035SOL    HW2 7945   9.527   2.457   4.489
 2036SOL     OW 7946   4.913   2.844   0.837
 2036SOL    HW1 7947   4.909   2.927   0.883
 2036SOL    HW2 7948   4.901   2.866   0.745
 2037SOL     OW 7949   7.321   2.404   7.326
 2037SOL    HW1 7950   7.345   2.477   7.382
 2037SOL    HW2 7951   7.376   2.414   7.248
 2038SOL     OW 7952  13.024  14.059  10.456
 2038SOL    HW1 7953  12.932  14.059  10.432
 2038SOL    HW2 7954  13.068  14.018  10.382
 2039SOL     OW 7955   9.001   4.826   6.673
 2039SOL    HW1 7956   9.094   4.838   6.656
 2039SOL    HW2 7957   8.997   4.794   6.763
 2040SOL     OW 7958  12.346  13.895   8.364
 2040SOL    HW1 7959  12.398  13.968   8.329
 2040SOL    HW2 7960  12.278  13.881   8.299
 2041SOL     OW 7961   4.762   5.812   6.386
 2041SOL    HW1 7962   4.708   5.754   6.332
 2041SOL    HW2 7963   4.848   5.811   6.344
 2042SOL     OW 7964   1.662  10.612   6.279
 2042SOL    HW1 7965   1.709  10.689   6.311
 2042SOL    HW2 7966   1.638  10.563   6.358
 2043SOL     OW 7967  14.252  11.317   8.628
 2043SOL    HW1 7968  14.300  11.302   8.546
 2043SOL    HW2 7969  14.221  11.408   8.621
 2044SOL     OW 7970   7.155  14.559   0.722
 2044SOL    HW1 7971   7.077  14.607   0.693
 2044SOL    HW2 7972   7.202  14.620   0.779
 2045SOL     OW 7973  13.427  13.899   3.326
 2045SOL    HW1 7974  13.519  13.924   3.333
 2045SOL    HW2 7975  13.394  13.946   3.250
 2046SOL     OW 7976   0.720   0.175  11.824
 2046SOL    HW1 7977   0.806   0.217  11.828
 2046SOL    HW2 7978   0.663   0.231  11.877
 2047SOL     OW 7979   9.170  10.880   5.128
 2047SOL    HW1 7980   9.205  10.888   5.039
 2047SOL    HW2 7981   9.240  10.838   5.178
 2048SOL     OW 7982  14.590  13.268   3.309
 2048SOL    HW1 7983  14.638  13.207   3.253
 2048SOL    HW2 7984  14.567  13.216   3.386
 2049SOL     OW 7985   7.276  14.316   2.511
 2049SOL    HW1 7986   7.278  14.276   2.597
 2049SOL    HW2 7987   7.183  14.332   2.494
 2050SOL     OW 7988   9.783   5.898  12.294
 2050SOL    HW1 7989   9.877   5.917  12.294
 2050SOL    HW2 7990   9.745   5.965  12.237
 2051SOL     OW 7991   9.631  11.719   4.008
 2051SOL    HW1 7992   9.660  11.691   3.921
 2051SOL    HW2 7993   9.621  11.813   4.000
 2052SOL     OW 7994   0.611   4.776  12.479
 2052SOL    HW1 7995   0.697   4.794  12.518
 2052SOL    HW2 7996   0.556   4.849  12.507
 2053SOL     OW 7997   2.246   1.204   8.079
 2053SOL    HW1 7998   2.214   1.264   8.012
 2053SOL    HW2 7999   2.214   1.118   8.052
 2054SOL     OW 8000  14.197  10.961   4.876
 2054SOL    HW1 8001  14.209  10.945   4.969
 2054SOL    HW2 8002  14.166  10.877   4.841
 2055SOL     OW 8003  11.712   3.462   5.596
 2055SOL    HW1 8004  11.646   3.529   5.577
 2055SOL    HW2 8005  11.795   3.510   5.593
 2056SOL     OW 8006   3.148   7.587   7.730
 2056SOL    HW1 8007   3.105   7.554   7.651
 2056SOL    HW2 8008   3.197   7.513   7.764
 2057SOL     OW 8009   0.068   9.485   7.625
 2057SOL    HW1 8010   0.136   9.458   7.687
 2057SOL    HW2 8011   0.116   9.525   7.552
 2058SOL     OW 8012   8.267   4.227   8.888
 2058SOL    HW1 8013   8.327   4.244   8.960
 2058SOL    HW2 8014   8.206   4.301   8.890
 2059SOL     OW 8015  10.436  12.242   3.432
 2059SOL    HW1 8016  10.402  12.171   3.378
 2059SOL    HW2 8017  10.372  12.251   3.503
 2060SOL     OW 8018  13.340   6.369   1.578
 2060SOL    HW1 8019  13.400   6.298   1.555
 2060SOL    HW2 8020  13.372   6.444   1.528
 2061SOL     OW 8021   5.720   1.898   8.289
 2061SOL    HW1 8022   5.640   1.942   8.319
 2061SOL    HW2 8023   5.727   1.923   8.196
 2062SOL     OW 8024  12.195   8.601   6.795
 2062SOL    HW1 8025  12.105   8.617   6.820
 2062SOL    HW2 8026  12.241   8.587   6.877
 2063SOL     OW 8027  11.555  12.208   4.937
 2063SOL    HW1 8028  11.525  12.296   4.917
 2063SOL    HW2 8029  11.543  12.199   5.031
 2064SOL     OW 8030   2.784   5.676   5.370
 2064SOL    HW1 8031   2.821   5.606   5.317
 2064SOL    HW2 8032   2.759   5.634   5.453
 2065SOL     OW 8033   0.940   8.309  13.553
 2065SOL    HW1 8034   0.983   8.344  13.475
 2065SOL    HW2 8035   0.909   8.386  13.600
 2066SOL     OW 8036  11.264  14.163  14.138
 2066SOL    HW1 8037  11.248  14.224  14.210
 2066SOL    HW2 8038  11.246  14.214  14.059
 2067SOL     OW 8039   4.812  14.785   8.466
 2067SOL    HW1 8040   4.846  14.824   8.546
 2067SOL    HW2 8041   4.788  14.859   8.411
 2068SOL     OW 8042   0.942   9.865   9.859
 2068SOL    HW1 8043   0.931   9.822   9.774
 2068SOL    HW2 8044   0.914   9.800   9.923
 2069SOL     OW 8045  11.174   9.309  10.294
 2069SOL    HW1 8046  11.228   9.285  10.219
 2069SOL    HW2 8047  11.107   9.368  10.258
 2070SOL     OW 8048   4.675   8.637   7.642
 2070SOL    HW1 8049   4.605   8.600   7.588
 2070SOL    HW2 8050   4.682   8.578   7.717
 2071SOL     OW 8051  13.842   8.684   6.605
 2071SOL    HW1 8052  13.878   8.721   6.686
 2071SOL    HW2 8053  13.901   8.716   6.536
 2072SOL     OW 8054   4.669   4.956   4.910
 2072SOL    HW1 8055   4.721   5.034   4.892
 2072SOL    HW2 8056   4.715   4.912   4.982
 2073SOL     OW 8057  11.862  10.430   7.410
 2073SOL    HW1 8058  11.933  10.493   7.402
 2073SOL    HW2 8059  11.877  10.368   7.338
 2074SOL     OW 8060   9.866   5.783   4.172
 2074SOL    HW1 8061   9.843   5.715   4.235
 2074SOL    HW2 8062   9.962   5.779   4.167
 2075SOL     OW 8063   9.087   0.981  14.088
 2075SOL    HW1 8064   9.041   0.898  14.079
 2075SOL    HW2 8065   9.163   0.960  14.143
 2076SOL     OW 8066  12.576   7.740   1.362
 2076SOL    HW1 8067  12.605   7.776   1.278
 2076SOL    HW2 8068  12.518   7.668   1.338
 2077SOL     OW 8069   1.413   5.593  10.874
 2077SOL    HW1 8070   1.456   5.655  10.816
 2077SOL    HW2 8071   1.393   5.518  10.819
 2078SOL     OW 8072   0.911   0.941   7.730
 2078SOL    HW1 8073   1.006   0.950   7.725
 2078SOL    HW2 8074   0.897   0.847   7.741
 2079SOL     OW 8075   4.275  13.880   3.887
 2079SOL    HW1 8076   4.196  13.932   3.879
 2079SOL    HW2 8077   4.252  13.809   3.948
 2080SOL     OW 8078   1.689  13.120   4.426
 2080SOL    HW1 8079   1.743  13.061   4.479
 2080SOL    HW2 8080   1.702  13.206   4.465
 2081SOL     OW 8081   0.947   2.141   9.520
 2081SOL    HW1 8082   1.032   2.106   9.545
 2081SOL    HW2 8083   0.885   2.070   9.540
 2082SOL     OW 8084   7.054   4.937  13.761
 2082SOL    HW1 8085   7.038   4.864  13.701
 2082SOL    HW2 8086   7.060   5.014  13.704
 2083SOL     OW 8087   8.260   7.202  14.224
 2083SOL    HW1 8088   8.196   7.240  14.164
 2083SOL    HW2 8089   8.329   7.269  14.231
 2084SOL     OW 8090  10.433  11.302  11.956
 2084SOL    HW1 8091  10.426  11.223  12.010
 2084SOL    HW2 8092  10.359  11.296  11.895
 2085SOL     OW 8093  12.013   6.152   4.251
 2085SOL    HW1 8094  12.074   6.213   4.293
 2085SOL    HW2 8095  11.995   6.192   4.165
 2086SOL     OW 8096   7.158   8.489  14.720
 2086SOL    HW1 8097   7.247   8.525  14.714
 2086SOL    HW2 8098   7.108   8.556  14.766
 2087SOL     OW 8099  13.070  11.303   9.037
 2087SOL    HW1 8100  13.088  11.221   9.082
 2087SOL    HW2 8101  13.127  11.367   9.081
 2088SOL     OW 8102  10.525  11.365   3.796
 2088SOL    HW1 8103  10.578  11.419   3.737
 2088SOL    HW2 8104  10.501  11.289   3.744
 2089SOL     OW 8105   4.376   3.098   1.629
 2089SOL    HW1 8106   4.336   3.080   1.714
 2089SOL    HW2 8107   4.315   3.158   1.586
 2090SOL     OW 8108   3.902   8.526  10.156
 2090SOL    HW1 8109   3.878   8.619  10.152
 2090SOL    HW2 8110   3.827   8.481  10.117
 2091SOL     OW 8111   6.231  12.042   2.795
 2091SOL    HW1 8112   6.198  11.954   2.812
 2091SOL    HW2 8113   6.167  12.100   2.836
 2092SOL     OW 8114   4.362  12.350   1.996
 2092SOL    HW1 8115   4.358  12.444   2.013
 2092SOL    HW2 8116   4.403  12.313   2.075
 2093SOL     OW 8117   5.281   4.561   1.991
 2093SOL    HW1 8118   5.321   4.624   1.930
 2093SOL    HW2 8119   5.268   4.611   2.071
 2094SOL     OW 8120  11.173  13.869  11.116
 2094SOL    HW1 8121  11.150  13.777  11.105
 2094SOL    HW2 8122  11.123  13.915  11.049
 2095SOL     OW 8123   8.777  10.921  11.278
 2095SOL    HW1 8124   8.831  10.893  11.204
 2095SOL    HW2 8125   8.687  10.899  11.251
 2096SOL     OW 8126   1.120   5.802  10.381
 2096SOL    HW1 8127   1.029   5.793  10.410
 2096SOL    HW2 8128   1.169   5.822  10.461
 2097SOL     OW 8129  11.168  11.627  14.525
 2097SOL    HW1 8130  11.155  11.706  14.474
 2097SOL    HW2 8131  11.082  11.607  14.563
 2098SOL     OW 8132  12.129  14.110  12.460
 2098SOL    HW1 8133  12.044  14.117  12.417
 2098SOL    HW2 8134  12.117  14.154  12.544
 2099SOL     OW 8135   1.418  13.246  14.515
 2099SOL    HW1 8136   1.494  13.298  14.538
 2099SOL    HW2 8137   1.401  13.266  14.423
 2100SOL     OW 8138   0.118  13.244   7.833
 2100SOL    HW1 8139   0.201  13.198   7.842
 2100SOL    HW2 8140   0.061  13.203   7.899
 2101SOL     OW 8141   3.093   9.325  11.425
 2101SOL    HW1 8142   3.083   9.336  11.519
 2101SOL    HW2 8143   3.019   9.271  11.399
 2102SOL     OW 8144   5.767  11.153   1.355
 2102SOL    HW1 8145   5.856  11.147   1.390
 2102SOL    HW2 8146   5.714  11.103   1.418
 2103SOL     OW 8147  11.540  13.332   7.793
 2103SOL    HW1 8148  11.541  13.256   7.852
 2103SOL    HW2 8149  11.533  13.293   7.706
 2104SOL     OW 8150   0.398   8.609   2.222
 2104SOL    HW1 8151   0.346   8.594   2.143
 2104SOL    HW2 8152   0.489   8.613   2.191
 2105SOL     OW 8153   7.161  13.467   7.531
 2105SOL    HW1 8154   7.162  13.443   7.438
 2105SOL    HW2 8155   7.253  13.461   7.558
 2106SOL     OW 8156  13.936   7.877   7.801
 2106SOL    HW1 8157  13.857   7.900   7.851
 2106SOL    HW2 8158  13.989   7.826   7.863
 2107SOL     OW 8159  13.260   8.944  10.887
 2107SOL    HW1 8160  13.250   8.862  10.839
 2107SOL    HW2 8161  13.271   8.917  10.978
 2108SOL     OW 8162   0.545   2.069   0.769
 2108SOL    HW1 8163   0.600   2.132   0.722
 2108SOL    HW2 8164   0.607   2.003   0.801
 2109SOL     OW 8165  10.416   6.975   5.265
 2109SOL    HW1 8166  10.506   7.006   5.266
 2109SOL    HW2 8167  10.363   7.055   5.263
 2110SOL     OW 8168  11.591  13.344  10.070
 2110SOL    HW1 8169  11.633  13.424  10.102
 2110SOL    HW2 8170  11.653  13.275  10.089
 2111SOL     OW 8171  11.874   0.867  14.557
 2111SOL    HW1 8172  11.900   0.811  14.483
 2111SOL    HW2 8173  11.784   0.892  14.537
 2112SOL     OW 8174   1.047   8.295   3.493
 2112SOL    HW1 8175   1.018   8.334   3.576
 2112SOL    HW2 8176   1.011   8.354   3.426
 2113SOL     OW 8177   6.143   1.817   6.485
 2113SOL    HW1 8178   6.204   1.852   6.551
 2113SOL    HW2 8179   6.106   1.895   6.443
 2114SOL     OW 8180  11.480  14.331   4.558
 2114SOL    HW1 8181  11.436  14.303   4.639
 2114SOL    HW2 8182  11.566  14.290   4.562
 2115SOL     OW 8183   4.001   9.065   6.158
 2115SOL    HW1 8184   3.959   9.061   6.073
 2115SOL    HW2 8185   3.946   9.124   6.210
 2116SOL     OW 8186   1.048   2.985   6.042
 2116SOL    HW1 8187   1.087   2.914   6.093
 2116SOL    HW2 8188   1.042   3.059   6.103
 2117SOL     OW 8189   0.941   7.820   5.666
 2117SOL    HW1 8190   0.931   7.836   5.572
 2117SOL    HW2 8191   0.871   7.870   5.707
 2118SOL     OW 8192  13.151   8.570   7.937
 2118SOL    HW1 8193  13.214   8.499   7.950
 2118SOL    HW2 8194  13.091   8.563   8.011
 2119SOL     OW 8195  14.777  11.278   4.146
 2119SOL    HW1 8196  14.744  11.335   4.077
 2119SOL    HW2 8197  14.791  11.193   4.103
 2120SOL     OW 8198   7.763   0.620   5.347
 2120SOL    HW1 8199   7.821   0.544   5.346
 2120SOL    HW2 8200   7.790   0.671   5.270
 2121SOL     OW 8201   9.849  14.073   8.672
 2121SOL    HW1 8202   9.880  13.984   8.654
 2121SOL    HW2 8203   9.821  14.106   8.587
 2122SOL     OW 8204   5.141  12.662  13.252
 2122SOL    HW1 8205   5.070  12.626  13.304
 2122SOL    HW2 8206   5.168  12.590  13.195
 2123SOL     OW 8207  10.981   8.867   2.303
 2123SOL    HW1 8208  11.068   8.896   2.332
 2123SOL    HW2 8209  10.980   8.773   2.320
 2124SOL     OW 8210   1.937   9.869   8.354
 2124SOL    HW1 8211   2.003   9.830   8.298
 2124SOL    HW2 8212   1.924   9.957   8.318
 2125SOL     OW 8213   3.332   4.279  13.164
 2125SOL    HW1 8214   3.257   4.223  13.143
 2125SOL    HW2 8215   3.320   4.301  13.257
 2126SOL     OW 8216  13.430  11.224   9.026
 2126SOL    HW1 8217  13.434  11.128   9.019
 2126SOL    HW2 8218  13.379  11.240   9.106
 2127SOL     OW 8219   7.066   9.014   6.899
 2127SOL    HW1 8220   6.978   8.994   6.932
 2127SOL    HW2 8221   7.099   8.930   6.867
 2128SOL     OW 8222  11.193  14.447  13.019
 2128SOL    HW1 8223  11.262  14.401  12.972
 2128SOL    HW2 8224  11.229  14.534  13.036
 2129SOL     OW 8225   5.383  14.405   5.262
 2129SOL    HW1 8226   5.400  14.457   5.183
 2129SOL    HW2 8227   5.398  14.315   5.235
 2130SOL     OW 8228   4.273  11.769   2.139
 2130SOL    HW1 8229   4.233  11.851   2.109
 2130SOL    HW2 8230   4.257  11.707   2.068
 2131SOL     OW 8231   4.924   4.146  12.876
 2131SOL    HW1 8232   4.965   4.215  12.824
 2131SOL    HW2 8233   4.889   4.084  12.812
 2132SOL     OW 8234   2.881   1.239   4.045
 2132SOL    HW1 8235   2.817   1.207   4.109
 2132SOL    HW2 8236   2.905   1.325   4.077
 2133SOL     OW 8237  11.003   1.339   3.688
 2133SOL    HW1 8238  11.010   1.429   3.656
 2133SOL    HW2 8239  11.092   1.303   3.679
 2134SOL     OW 8240   8.614   3.822  13.654
 2134SOL    HW1 8241   8.624   3.760  13.582
 2134SOL    HW2 8242   8.531   3.799  13.695
 2135SOL     OW 8243   4.275   3.001   4.895
 2135SOL    HW1 8244   4.297   2.910   4.875
 2135SOL    HW2 8245   4.205   2.995   4.960
 2136SOL     OW 8246  12.476   1.855  11.785
 2136SOL    HW1 8247  12.432   1.812  11.858
 2136SOL    HW2 8248  12.444   1.809  11.707
 2137SOL     OW 8249   9.142  10.648  11.403
 2137SOL    HW1 8250   9.086  10.571  11.394
 2137SOL    HW2 8251   9.158  10.678  11.314
 2138SOL     OW 8252  11.904   8.804   5.326
 2138SOL    HW1 8253  11.915   8.744   5.252
 2138SOL    HW2 8254  11.817   8.783   5.361
 2139SOL     OW 8255   9.910   3.076   6.031
 2139SOL    HW1 8256   9.993   3.053   5.989
 2139SOL    HW2 8257   9.931   3.150   6.088
 2140SOL     OW 8258  11.052   1.411   2.329
 2140SOL    HW1 8259  11.132   1.457   2.354
 2140SOL    HW2 8260  10.982   1.457   2.376
 2141SOL     OW 8261   9.771   4.227   0.640
 2141SOL    HW1 8262   9.754   4.322   0.635
 2141SOL    HW2 8263   9.808   4.214   0.728
 2142SOL     OW 8264   9.408   0.180   2.159
 2142SOL    HW1 8265   9.375   0.242   2.094
 2142SOL    HW2 8266   9.407   0.228   2.241
 2143SOL     OW 8267  12.814   2.218   6.563
 2143SOL    HW1 8268  12.725   2.251   6.569
 2143SOL    HW2 8269  12.836   2.225   6.470
 2144SOL     OW 8270   4.190   7.772   5.579
 2144SOL    HW1 8271   4.108   7.754   5.532
 2144SOL    HW2 8272   4.202   7.867   5.570
 2145SOL     OW 8273   3.744  13.022  14.491
 2145SOL    HW1 8274   3.836  13.042  14.509
 2145SOL    HW2 8275   3.736  13.028  14.396
 2146SOL     OW 8276   1.870   8.981  10.630
 2146SOL    HW1 8277   1.960   8.951  10.614
 2146SOL    HW2 8278   1.880   9.066  10.673
 2147SOL     OW 8279   8.929  14.722   2.720
 2147SOL    HW1 8280   8.905  14.685   2.805
 2147SOL    HW2 8281   9.023  14.740   2.727
 2148SOL     OW 8282   4.324  13.326   3.378
 2148SOL    HW1 8283   4.267  13.274   3.436
 2148SOL    HW2 8284   4.406  13.277   3.375
 2149SOL     OW 8285   4.383  12.280   5.941
 2149SOL    HW1 8286   4.368  12.186   5.954
 2149SOL    HW2 8287   4.465  12.298   5.987
 2150SOL     OW 8288   9.205   4.275   5.278
 2150SOL    HW1 8289   9.232   4.188   5.309
 2150SOL    HW2 8290   9.265   4.335   5.321
 2151SOL     OW 8291   9.188  14.469   7.810
 2151SOL    HW1 8292   9.152  14.453   7.898
 2151SOL    HW2 8293   9.275  14.505   7.826
 2152SOL     OW 8294   1.712  13.137  12.351
 2152SOL    HW1 8295   1.734  13.221  12.393
 2152SOL    HW2 8296   1.789  13.082  12.367
 2153SOL     OW 8297   6.976   1.225   9.575
 2153SOL    HW1 8298   7.017   1.273   9.502
 2153SOL    HW2 8299   6.883   1.246   9.568
 2154SOL     OW 8300   2.602  12.829   4.614
 2154SOL    HW1 8301   2.645  12.829   4.700
 2154SOL    HW2 8302   2.652  12.765   4.563
 2155SOL     OW 8303  13.392  12.089  10.783
 2155SOL    HW1 8304  13.486  12.098  10.767
 2155SOL    HW2 8305  13.386  12.053  10.871
 2156SOL     OW 8306   5.817   0.887   5.716
 2156SOL    HW1 8307   5.723   0.868   5.706
 2156SOL    HW2 8308   5.853   0.876   5.628
 2157SOL     OW 8309   0.526   1.590   4.519
 2157SOL    HW1 8310   0.590   1.616   4.453
 2157SOL    HW2 8311   0.490   1.507   4.487
 2158SOL     OW 8312   6.570  12.870  14.675
 2158SOL    HW1 8313   6.655  12.843  14.711
 2158SOL    HW2 8314   6.591  12.946  14.620
 2159SOL     OW 8315   9.930   2.340   5.859
 2159SOL    HW1 8316  10.002   2.397   5.886
 2159SOL    HW2 8317   9.900   2.377   5.776
 2160SOL     OW 8318  11.218   7.713  11.094
 2160SOL    HW1 8319  11.234   7.806  11.081
 2160SOL    HW2 8320  11.296   7.681  11.139
 2161SOL     OW 8321  12.368   4.261  11.220
 2161SOL    HW1 8322  12.403   4.285  11.306
 2161SOL    HW2 8323  12.433   4.293  11.157
 2162SOL     OW 8324   7.194  10.422   4.759
 2162SOL    HW1 8325   7.124  10.457   4.814
 2162SOL    HW2 8326   7.159  10.426   4.670
 2163SOL     OW 8327   7.708  12.318   3.432
 2163SOL    HW1 8328   7.705  12.305   3.527
 2163SOL    HW2 8329   7.711  12.413   3.420
 2164SOL     OW 8330   3.356   9.392   8.382
 2164SOL    HW1 8331   3.327   9.449   8.311
 2164SOL    HW2 8332   3.395   9.451   8.446
 2165SOL     OW 8333   5.223   6.016   1.740
 2165SOL    HW1 8334   5.182   5.961   1.672
 2165SOL    HW2 8335   5.149   6.049   1.791
 2166SOL     OW 8336   6.476   1.738  14.596
 2166SOL    HW1 8337   6.553   1.691  14.564
 2166SOL    HW2 8338   6.450   1.689  14.674
 2167SOL     OW 8339   4.474   0.527   1.261
 2167SOL    HW1 8340   4.391   0.531   1.308
 2167SOL    HW2 8341   4.525   0.600   1.297
 2168SOL     OW 8342   7.983  14.705   6.385
 2168SOL    HW1 8343   8.009  14.701   6.477
 2168SOL    HW2 8344   7.990  14.797   6.362
 2169SOL     OW 8345   4.607   6.211   5.221
 2169SOL    HW1 8346   4.682   6.184   5.168
 2169SOL    HW2 8347   4.579   6.293   5.181
 2170SOL     OW 8348   2.752  13.428   9.046
 2170SOL    HW1 8349   2.770  13.338   9.019
 2170SOL    HW2 8350   2.664  13.445   9.011
 2171SOL     OW 8351   8.967   5.865  13.556
 2171SOL    HW1 8352   8.930   5.800  13.497
 2171SOL    HW2 8353   8.899   5.932  13.563
 2172SOL     OW 8354   6.825   0.522   5.450
 2172SOL    HW1 8355   6.752   0.461   5.451
 2172SOL    HW2 8356   6.788   0.604   5.482
 2173SOL     OW 8357   7.044   7.237   6.953
 2173SOL    HW1 8358   6.992   7.224   7.031
 2173SOL    HW2 8359   7.118   7.176   6.963
 2174SOL     OW 8360   2.014  12.797  13.792
 2174SOL    HW1 8361   2.101  12.828  13.767
 2174SOL    HW2 8362   2.026  12.703  13.808
 2175SOL     OW 8363  12.237  10.715  13.372
 2175SOL    HW1 8364  12.143  10.723  13.389
 2175SOL    HW2 8365  12.243  10.670  13.288
 2176SOL     OW 8366  10.725   4.027  10.418
 2176SOL    HW1 8367  10.789   4.033  10.347
 2176SOL    HW2 8368  10.759   4.086  10.486
 2177SOL     OW 8369   5.238  11.459  14.754
 2177SOL    HW1 8370   5.256  11.418  14.670
 2177SOL    HW2 8371   5.157  11.419  14.785
 2178SOL     OW 8372  12.325   3.622  10.261
 2178SOL    HW1 8373  12.384   3.679  10.311
 2178SOL    HW2 8374  12.378   3.594  10.186
 2179SOL     OW 8375  13.443   6.754   9.509
 2179SOL    HW1 8376  13.488   6.673   9.535
 2179SOL    HW2 8377  13.383   6.727   9.441
 2180SOL     OW 8378   2.070   6.426   4.567
 2180SOL    HW1 8379   2.163   6.432   4.586
 2180SOL    HW2 8380   2.027   6.467   4.643
 2181SOL     OW 8381   8.051   8.129  12.166
 2181SOL    HW1 8382   8.118   8.082  12.117
 2181SOL    HW2 8383   7.983   8.064  12.183
 2182SOL     OW 8384  14.609   1.524  13.480
 2182SOL    HW1 8385  14.642   1.510  13.391
 2182SOL    HW2 8386  14.539   1.588  13.470
 2183SOL     OW 8387   5.598   4.235  14.349
 2183SOL    HW1 8388   5.612   4.141  14.347
 2183SOL    HW2 8389   5.686   4.272  14.362
 2184SOL     OW 8390   1.028   1.476   4.430
 2184SOL    HW1 8391   1.060   1.471   4.340
 2184SOL    HW2 8392   1.037   1.387   4.463
 2185SOL     OW 8393   6.560   8.039   6.059
 2185SOL    HW1 8394   6.524   8.121   6.092
 2185SOL    HW2 8395   6.484   7.981   6.051
 2186SOL     OW 8396  14.286   6.010   5.710
 2186SOL    HW1 8397  14.195   5.996   5.683
 2186SOL    HW2 8398  14.281   6.029   5.803
 2187SOL     OW 8399  14.176  13.271   0.670
 2187SOL    HW1 8400  14.099  13.247   0.619
 2187SOL    HW2 8401  14.157  13.359   0.703
 2188SOL     OW 8402   7.383   7.801   5.535
 2188SOL    HW1 8403   7.472   7.779   5.511
 2188SOL    HW2 8404   7.378   7.781   5.629
 2189SOL     OW 8405   4.299   2.329   0.504
 2189SOL    HW1 8406   4.219   2.283   0.530
 2189SOL    HW2 8407   4.316   2.390   0.576
 2190SOL     OW 8408   3.984   4.655   6.764
 2190SOL    HW1 8409   4.032   4.609   6.695
 2190SOL    HW2 8410   3.976   4.592   6.835
 2191SOL     OW 8411  14.215   9.303   7.192
 2191SOL    HW1 8412  14.195   9.222   7.145
 2191SOL    HW2 8413  14.132   9.328   7.233
 2192SOL     OW 8414  10.086  12.025   3.670
 2192SOL    HW1 8415  10.134  11.967   3.730
 2192SOL    HW2 8416  10.124  12.111   3.684
 2193SOL     OW 8417   8.168   9.591  13.523
 2193SOL    HW1 8418   8.107   9.568  13.453
 2193SOL    HW2 8419   8.191   9.507  13.564
 2194SOL     OW 8420  12.441   0.262   4.926
 2194SOL    HW1 8421  12.395   0.336   4.965
 2194SOL    HW2 8422  12.458   0.202   4.999
 2195SOL     OW 8423   4.883   3.867   1.231
 2195SOL    HW1 8424   4.803   3.898   1.275
 2195SOL    HW2 8425   4.944   3.848   1.303
 2196SOL     OW 8426   6.023  10.782  12.789
 2196SOL    HW1 8427   6.061  10.699  12.760
 2196SOL    HW2 8428   6.054  10.792  12.879
 2197SOL     OW 8429  14.221   4.165   6.496
 2197SOL    HW1 8430  14.255   4.080   6.524
 2197SOL    HW2 8431  14.261   4.228   6.557
 2198SOL     OW 8432   8.460  11.000   7.447
 2198SOL    HW1 8433   8.369  10.985   7.419
 2198SOL    HW2 8434   8.451  11.041   7.533
 2199SOL     OW 8435   9.336   5.303   7.391
 2199SOL    HW1 8436   9.270   5.243   7.427
 2199SOL    HW2 8437   9.309   5.317   7.301
 2200SOL     OW 8438   6.116  12.988  12.427
 2200SOL    HW1 8439   6.046  12.981  12.361
 2200SOL    HW2 8440   6.146  13.078  12.419
 2201SOL     OW 8441   5.798   8.144   3.376
 2201SOL    HW1 8442   5.765   8.167   3.289
 2201SOL    HW2 8443   5.886   8.110   3.361
 2202SOL     OW 8444   7.183  11.882  10.663
 2202SOL    HW1 8445   7.175  11.805  10.608
 2202SOL    HW2 8446   7.138  11.952  10.615
 2203SOL     OW 8447   9.697  10.550   4.606
 2203SOL    HW1 8448   9.695  10.486   4.535
 2203SOL    HW2 8449   9.655  10.506   4.680
 2204SOL     OW 8450   9.267   9.812   3.021
 2204SOL    HW1 8451   9.197   9.801   3.085
 2204SOL    HW2 8452   9.340   9.848   3.071
 2205SOL     OW 8453  11.269   0.740  14.180
 2205SOL    HW1 8454  11.295   0.825  14.145
 2205SOL    HW2 8455  11.276   0.680  14.106
 2206SOL     OW 8456   7.557   1.847   4.852
 2206SOL    HW1 8457   7.573   1.921   4.910
 2206SOL    HW2 8458   7.472   1.865   4.812
 2207SOL     OW 8459   4.257  11.096  13.203
 2207SOL    HW1 8460   4.279  11.043  13.127
 2207SOL    HW2 8461   4.317  11.066  13.271
 2208SOL     OW 8462   8.421   3.682   4.206
 2208SOL    HW1 8463   8.405   3.742   4.278
 2208SOL    HW2 8464   8.364   3.607   4.224
 2209SOL     OW 8465   2.609   5.213   0.567
 2209SOL    HW1 8466   2.623   5.122   0.592
 2209SOL    HW2 8467   2.620   5.215   0.472
 2210SOL     OW 8468   1.581   4.873   4.203
 2210SOL    HW1 8469   1.585   4.948   4.263
 2210SOL    HW2 8470   1.669   4.837   4.205
 2211SOL     OW 8471   6.585   2.051   4.022
 2211SOL    HW1 8472   6.502   2.097   4.013
 2211SOL    HW2 8473   6.609   2.027   3.932
 2212SOL     OW 8474   7.798   9.646  12.367
 2212SOL    HW1 8475   7.712   9.676  12.336
 2212SOL    HW2 8476   7.793   9.551  12.365
 2213SOL     OW 8477   1.863   6.941   4.106
 2213SOL    HW1 8478   1.828   7.022   4.068
 2213SOL    HW2 8479   1.875   6.882   4.032
 2214SOL     OW 8480   9.812  12.948   1.787
 2214SOL    HW1 8481   9.801  12.853   1.785
 2214SOL    HW2 8482   9.733  12.980   1.830
 2215SOL     OW 8483  10.103  10.737  10.428
 2215SOL    HW1 8484  10.039  10.802  10.456
 2215SOL    HW2 8485  10.185  10.766  10.467
 2216SOL     OW 8486  11.875   9.253   5.069
 2216SOL    HW1 8487  11.855   9.327   5.011
 2216SOL    HW2 8488  11.805   9.189   5.051
 2217SOL     OW 8489   2.826   5.260   5.446
 2217SOL    HW1 8490   2.878   5.282   5.369
 2217SOL    HW2 8491   2.742   5.232   5.411
 2218SOL     OW 8492   5.474   6.648   9.688
 2218SOL    HW1 8493   5.495   6.697   9.768
 2218SOL    HW2 8494   5.473   6.556   9.717
 2219SOL     OW 8495   8.833   4.332  13.765
 2219SOL    HW1 8496   8.746   4.324  13.804
 2219SOL    HW2 8497   8.876   4.401  13.817
 2220SOL     OW 8498   2.201  11.335   4.471
 2220SOL    HW1 8499   2.107  11.335   4.453
 2220SOL    HW2 8500   2.239  11.381   4.397
 2221SOL     OW 8501   3.448   5.806  12.696
 2221SOL    HW1 8502   3.397   5.805  12.616
 2221SOL    HW2 8503   3.427   5.723  12.739
 2222SOL     OW 8504   7.932   8.852   9.982
 2222SOL    HW1 8505   7.841   8.823   9.971
 2222SOL    HW2 8506   7.950   8.903   9.903
 2223SOL     OW 8507   4.231  14.412   7.476
 2223SOL    HW1 8508   4.301  14.354   7.505
 2223SOL    HW2 8509   4.194  14.368   7.399
 2224SOL     OW 8510   7.238  14.008   9.653
 2224SOL    HW1 8511   7.149  14.027   9.624
 2224SOL    HW2 8512   7.227  13.960   9.735
 2225SOL     OW 8513  13.514   1.619   7.835
 2225SOL    HW1 8514  13.474   1.588   7.916
 2225SOL    HW2 8515  13.448   1.602   7.768
 2226SOL     OW 8516   1.514  11.837   7.758
 2226SOL    HW1 8517   1.502  11.919   7.807
 2226SOL    HW2 8518   1.448  11.778   7.794
 2227SOL     OW 8519   7.134  12.118   0.088
 2227SOL    HW1 8520   7.199  12.140   0.022
 2227SOL    HW2 8521   7.056  12.092   0.038
 2228SOL     OW 8522  14.130   0.848   1.134
 2228SOL    HW1 8523  14.190   0.852   1.060
 2228SOL    HW2 8524  14.130   0.756   1.160
 2229SOL     OW 8525  12.559   2.099  14.220
 2229SOL    HW1 8526  12.550   2.069  14.311
 2229SOL    HW2 8527  12.596   2.025  14.173
 2230SOL     OW 8528  13.509   1.737   9.031
 2230SOL    HW1 8529  13.436   1.706   9.085
 2230SOL    HW2 8530  13.552   1.803   9.086
 2231SOL     OW 8531  13.732   8.569   7.591
 2231SOL    HW1 8532  13.752   8.659   7.615
 2231SOL    HW2 8533  13.775   8.557   7.506
 2232SOL     OW 8534  13.742   3.653   1.576
 2232SOL    HW1 8535  13.760   3.741   1.543
 2232SOL    HW2 8536  13.753   3.660   1.671
 2233SOL     OW 8537  14.454  10.390  13.438
 2233SOL    HW1 8538  14.496  10.371  13.354
 2233SOL    HW2 8539  14.437  10.485  13.435
 2234SOL     OW 8540   1.918   1.502  13.162
 2234SOL    HW1 8541   1.932   1.538  13.250
 2234SOL    HW2 8542   1.887   1.577  13.111
 2235SOL     OW 8543   0.711   2.230   4.716
 2235SOL    HW1 8544   0.673   2.145   4.693
 2235SOL    HW2 8545   0.771   2.250   4.644
 2236SOL     OW 8546  13.887   0.894   5.525
 2236SOL    HW1 8547  13.794   0.871   5.532
 2236SOL    HW2 8548  13.924   0.869   5.609
 2237SOL     OW 8549   1.207   5.240   8.889
 2237SOL    HW1 8550   1.293   5.198   8.885
 2237SOL    HW2 8551   1.207   5.285   8.974
 2238SOL     OW 8552   8.616   6.803   9.697
 2238SOL    HW1 8553   8.543   6.762   9.652
 2238SOL    HW2 8554   8.592   6.896   9.702
 2239SOL     OW 8555   8.972   4.724  13.723
 2239SOL    HW1 8556   8.934   4.771  13.649
 2239SOL    HW2 8557   8.934   4.767  13.800
 2240SOL     OW 8558   0.125  12.339   8.068
 2240SOL    HW1 8559   0.104  12.328   7.975
 2240SOL    HW2 8560   0.042  12.331   8.113
 2241SOL     OW 8561  13.091   8.472   5.245
 2241SOL    HW1 8562  13.153   8.541   5.271
 2241SOL    HW2 8563  13.130   8.391   5.277
 2242SOL     OW 8564  11.160  13.175  12.538
 2242SOL    HW1 8565  11.248  13.199  12.510
 2242SOL    HW2 8566  11.158  13.080  12.533
 2243SOL     OW 8567  11.244  10.687   3.657
 2243SOL    HW1 8568  11.256  10.597   3.627
 2243SOL    HW2 8569  11.160  10.713   3.621
 2244SOL     OW 8570   8.335   2.484   2.783
 2244SOL    HW1 8571   8.361   2.434   2.861
 2244SOL    HW2 8572   8.361   2.429   2.710
 2245SOL     OW 8573   3.467  10.691  12.032
 2245SOL    HW1 8574   3.517  10.741  12.096
 2245SOL    HW2 8575   3.524  10.687  11.955
 2246SOL     OW 8576   9.781   7.330  12.486
 2246SOL    HW1 8577   9.871   7.300  12.497
 2246SOL    HW2 8578   9.765   7.323  12.392
 2247SOL     OW 8579   6.435  13.853   5.372
 2247SOL    HW1 8580   6.428  13.798   5.294
 2247SOL    HW2 8581   6.348  13.847   5.413
 2248SOL     OW 8582   8.628   7.474   6.082
 2248SOL    HW1 8583   8.599   7.564   6.099
 2248SOL    HW2 8584   8.548   7.429   6.054
 2249SOL     OW 8585   3.635   6.228  11.764
 2249SOL    HW1 8586   3.635   6.280  11.844
 2249SOL    HW2 8587   3.728   6.213  11.746
 2250SOL     OW 8588   6.903   1.254   5.496
 2250SOL    HW1 8589   6.998   1.265   5.493
 2250SOL    HW2 8590   6.868   1.342   5.503
 2251SOL     OW 8591   6.694   1.506   0.182
 2251SOL    HW1 8592   6.691   1.598   0.157
 2251SOL    HW2 8593   6.718   1.460   0.102
 2252SOL     OW 8594  11.397   3.028   6.911
 2252SOL    HW1 8595  11.396   2.958   6.976
 2252SOL    HW2 8596  11.363   2.987   6.831
 2253SOL     OW 8597   7.565  14.066   1.806
 2253SOL    HW1 8598   7.633  14.008   1.839
 2253SOL    HW2 8599   7.596  14.154   1.825
 2254SOL     OW 8600  12.771  12.817   1.757
 2254SOL    HW1 8601  12.832  12.758   1.801
 2254SOL    HW2 8602  12.685  12.792   1.791
 2255SOL     OW 8603   7.167  13.067   8.772
 2255SOL    HW1 8604   7.081  13.088   8.809
 2255SOL    HW2 8605   7.147  13.009   8.698
 2256SOL     OW 8606   6.195  14.791   4.995
 2256SOL    HW1 8607   6.163  14.872   5.034
 2256SOL    HW2 8608   6.288  14.807   4.979
 2257SOL     OW 8609   1.818   9.278   6.214
 2257SOL    HW1 8610   1.815   9.223   6.292
 2257SOL    HW2 8611   1.748   9.243   6.158
 2258SOL     OW 8612   6.556   3.083  10.219
 2258SOL    HW1 8613   6.473   3.067  10.173
 2258SOL    HW2 8614   6.621   3.091  10.149
 2259SOL     OW 8615  14.305  12.759  11.729
 2259SOL    HW1 8616  14.360  12.822  11.776
 2259SOL    HW2 8617  14.365  12.715  11.668
 2260SOL     OW 8618   9.792   3.501  11.700
 2260SOL    HW1 8619   9.853   3.566  11.734
 2260SOL    HW2 8620   9.848   3.437  11.656
 2261SOL     OW 8621   2.617   5.845   0.491
 2261SOL    HW1 8622   2.528   5.818   0.468
 2261SOL    HW2 8623   2.673   5.795   0.432
 2262SOL     OW 8624   6.186   0.784  10.930
 2262SOL    HW1 8625   6.136   0.860  10.960
 2262SOL    HW2 8626   6.158   0.771  10.840
 2263SOL     OW 8627   0.260  14.017  10.820
 2263SOL    HW1 8628   0.244  14.091  10.879
 2263SOL    HW2 8629   0.214  14.041  10.739
 2264SOL     OW 8630   2.080   9.513   1.422
 2264SOL    HW1 8631   2.164   9.476   1.398
 2264SOL    HW2 8632   2.040   9.448   1.479
 2265SOL     OW 8633   7.673   4.486  11.353
 2265SOL    HW1 8634   7.766   4.474  11.369
 2265SOL    HW2 8635   7.645   4.548  11.421
 2266SOL     OW 8636   1.757   2.904   4.673
 2266SOL    HW1 8637   1.744   2.867   4.586
 2266SOL    HW2 8638   1.774   2.997   4.658
 2267SOL     OW 8639   0.213   0.020  13.718
 2267SOL    HW1 8640   0.143   0.002  13.782
 2267SOL    HW2 8641   0.241   0.109  13.738
 2268SOL     OW 8642   8.202   5.256  13.700
 2268SOL    HW1 8643   8.268   5.198  13.663
 2268SOL    HW2 8644   8.121   5.231  13.658
 2269SOL     OW 8645   4.583  11.397   8.926
 2269SOL    HW1 8646   4.541  11.314   8.948
 2269SOL    HW2 8647   4.555  11.416   8.837
 2270SOL     OW 8648   7.065   5.939   3.668
 2270SOL    HW1 8649   7.011   5.997   3.722
 2270SOL    HW2 8650   7.096   5.872   3.728
 2271SOL     OW 8651   3.787   6.111  13.583
 2271SOL    HW1 8652   3.782   6.064  13.666
 2271SOL    HW2 8653   3.819   6.198  13.607
 2272SOL     OW 8654  11.693  13.197   9.142
 2272SOL    HW1 8655  11.718  13.104   9.141
 2272SOL    HW2 8656  11.680  13.218   9.234
 2273SOL     OW 8657  10.079   7.071  12.052
 2273SOL    HW1 8658  10.165   7.112  12.064
 2273SOL    HW2 8659  10.066   7.019  12.131
 2274SOL     OW 8660  10.546   2.726   6.102
 2274SOL    HW1 8661  10.590   2.804   6.067
 2274SOL    HW2 8662  10.486   2.760   6.168
 2275SOL     OW 8663  12.206   7.122  11.837
 2275SOL    HW1 8664  12.166   7.207  11.854
 2275SOL    HW2 8665  12.194   7.073  11.918
 2276SOL     OW 8666   9.891   1.937   5.206
 2276SOL    HW1 8667   9.861   1.847   5.198
 2276SOL    HW2 8668   9.823   1.981   5.257
 2277SOL     OW 8669  14.322  11.860  10.858
 2277SOL    HW1 8670  14.325  11.944  10.812
 2277SOL    HW2 8671  14.414  11.834  10.867
 2278SOL     OW 8672  13.508   4.831   7.424
 2278SOL    HW1 8673  13.575   4.892   7.456
 2278SOL    HW2 8674  13.557   4.762   7.381
 2279SOL     OW 8675  11.037  10.181   3.647
 2279SOL    HW1 8676  11.123  10.174   3.606
 2279SOL    HW2 8677  11.003  10.266   3.618
 2280SOL     OW 8678  14.394  12.120   4.424
 2280SOL    HW1 8679  14.426  12.208   4.445
 2280SOL    HW2 8680  14.417  12.067   4.500
 2281SOL     OW 8681  11.555  12.700   0.640
 2281SOL    HW1 8682  11.571  12.794   0.650
 2281SOL    HW2 8683  11.639  12.659   0.661
 2282SOL     OW 8684   5.414   6.567   8.036
 2282SOL    HW1 8685   5.471   6.544   8.110
 2282SOL    HW2 8686   5.474   6.581   7.963
 2283SOL     OW 8687   8.066   2.851  12.169
 2283SOL    HW1 8688   8.052   2.792  12.094
 2283SOL    HW2 8689   8.039   2.799  12.245
 2284SOL     OW 8690   5.830   0.641   0.469
 2284SOL    HW1 8691   5.897   0.608   0.410
 2284SOL    HW2 8692   5.759   0.577   0.464
 2285SOL     OW 8693   9.968   9.432   7.722
 2285SOL    HW1 8694   9.885   9.465   7.757
 2285SOL    HW2 8695   9.943   9.362   7.662
 2286SOL     OW 8696   4.725   5.568   6.102
 2286SOL    HW1 8697   4.815   5.537   6.091
 2286SOL    HW2 8698   4.683   5.551   6.017
 2287SOL     OW 8699   1.712   6.213   8.797
 2287SOL    HW1 8700   1.648   6.142   8.805
 2287SOL    HW2 8701   1.797   6.169   8.795
 2288SOL     OW 8702  13.487   6.314   8.433
 2288SOL    HW1 8703  13.422   6.259   8.477
 2288SOL    HW2 8704  13.488   6.395   8.484
 2289SOL     OW 8705  11.038  13.246   3.579
 2289SOL    HW1 8706  11.083  13.288   3.505
 2289SOL    HW2 8707  10.950  13.282   3.577
 2290SOL     OW 8708  14.060   2.194  10.573
 2290SOL    HW1 8709  14.007   2.117  10.553
 2290SOL    HW2 8710  14.054   2.202  10.668
 2291SOL     OW 8711   4.174  10.833  10.948
 2291SOL    HW1 8712   4.263  10.808  10.924
 2291SOL    HW2 8713   4.135  10.865  10.866
 2292SOL     OW 8714  11.695   5.063   0.252
 2292SOL    HW1 8715  11.605   5.092   0.239
 2292SOL    HW2 8716  11.708   5.068   0.347
 2293SOL     OW 8717   8.807  11.388  13.431
 2293SOL    HW1 8718   8.856  11.305  13.431
 2293SOL    HW2 8719   8.715  11.362  13.435
 2294SOL     OW 8720   7.143   0.067   0.829
 2294SOL    HW1 8721   7.185  14.867   0.873
 2294SOL    HW2 8722   7.194   0.080   0.750
 2295SOL     OW 8723   5.342   2.522   9.005
 2295SOL    HW1 8724   5.431   2.554   8.992
 2295SOL    HW2 8725   5.338   2.498   9.097
 2296SOL     OW 8726  11.919   4.388   1.155
 2296SOL    HW1 8727  11.863   4.360   1.227
 2296SOL    HW2 8728  11.904   4.483   1.149
 2297SOL     OW 8729   9.739   3.260   1.522
 2297SOL    HW1 8730   9.767   3.322   1.454
 2297SOL    HW2 8731   9.776   3.296   1.603
 2298SOL     OW 8732   3.372  10.664   0.242
 2298SOL    HW1 8733   3.338  10.619   0.320
 2298SOL    HW2 8734   3.316  10.635   0.171
 2299SOL     OW 8735   0.225  13.125   5.864
 2299SOL    HW1 8736   0.236  13.214   5.897
 2299SOL    HW2 8737   0.260  13.069   5.933
 2300SOL     OW 8738   6.356  12.734   6.568
 2300SOL    HW1 8739   6.389  12.807   6.620
 2300SOL    HW2 8740   6.263  12.730   6.587
 2301SOL     OW 8741   0.344   2.505   0.881
 2301SOL    HW1 8742   0.430   2.465   0.895
 2301SOL    HW2 8743   0.362   2.583   0.829
 2302SOL     OW 8744  11.087  13.915   9.562
 2302SOL    HW1 8745  11.039  13.982   9.514
 2302SOL    HW2 8746  11.021  13.870   9.615
 2303SOL     OW 8747   5.720  10.314   9.429
 2303SOL    HW1 8748   5.684  10.277   9.348
 2303SOL    HW2 8749   5.760  10.240   9.474
 2304SOL     OW 8750  11.813  14.104   7.917
 2304SOL    HW1 8751  11.835  14.197   7.918
 2304SOL    HW2 8752  11.886  14.061   7.961
 2305SOL     OW 8753  11.265   2.196   6.537
 2305SOL    HW1 8754  11.345   2.154   6.505
 2305SOL    HW2 8755  11.206   2.124   6.559
 2306SOL     OW 8756  10.021   2.736   4.025
 2306SOL    HW1 8757   9.974   2.653   4.030
 2306SOL    HW2 8758   9.993   2.784   4.103
 2307SOL     OW 8759   2.834   9.181  12.703
 2307SOL    HW1 8760   2.804   9.094  12.729
 2307SOL    HW2 8761   2.922   9.166  12.668
 2308SOL     OW 8762   5.100  11.969   1.675
 2308SOL    HW1 8763   5.055  11.885   1.677
 2308SOL    HW2 8764   5.085  12.002   1.586
 2309SOL     OW 8765   7.177   3.045   0.727
 2309SOL    HW1 8766   7.182   2.986   0.652
 2309SOL    HW2 8767   7.161   2.987   0.802
 2310SOL     OW 8768  11.520  14.859   4.409
 2310SOL    HW1 8769  11.596   0.023   4.364
 2310SOL    HW2 8770  11.516  14.769   4.376
 2311SOL     OW 8771   5.647   6.220   2.579
 2311SOL    HW1 8772   5.741   6.206   2.583
 2311SOL    HW2 8773   5.623   6.246   2.668
 2312SOL     OW 8774   4.666   2.768  10.489
 2312SOL    HW1 8775   4.633   2.679  10.499
 2312SOL    HW2 8776   4.635   2.796  10.403
 2313SOL     OW 8777  14.094   5.191  12.389
 2313SOL    HW1 8778  14.179   5.199  12.432
 2313SOL    HW2 8779  14.114   5.155  12.302
 2314SOL     OW 8780   7.104   8.836   0.213
 2314SOL    HW1 8781   7.121   8.904   0.148
 2314SOL    HW2 8782   7.168   8.767   0.193
 2315SOL     OW 8783   1.053  13.429   6.607
 2315SOL    HW1 8784   1.112  13.504   6.611
 2315SOL    HW2 8785   1.110  13.354   6.588
 2316SOL     OW 8786   4.686   1.911   9.817
 2316SOL    HW1 8787   4.768   1.886   9.775
 2316SOL    HW2 8788   4.618   1.872   9.761
 2317SOL     OW 8789   1.677   0.755  14.545
 2317SOL    HW1 8790   1.707   0.794  14.462
 2317SOL    HW2 8791   1.589   0.790  14.557
 2318SOL     OW 8792  11.601   2.263   6.881
 2318SOL    HW1 8793  11.604   2.349   6.923
 2318SOL    HW2 8794  11.568   2.204   6.949
 2319SOL     OW 8795   3.786  14.504   0.083
 2319SOL    HW1 8796   3.881  14.503   0.099
 2319SOL    HW2 8797   3.757  14.416   0.106
 2320SOL     OW 8798   8.667  13.759   1.367
 2320SOL    HW1 8799   8.707  13.741   1.452
 2320SOL    HW2 8800   8.576  13.779   1.387
 2321SOL     OW 8801  13.938   0.910   7.927
 2321SOL    HW1 8802  14.019   0.952   7.898
 2321SOL    HW2 8803  13.872   0.939   7.865
 2322SOL     OW 8804   0.797   2.335  12.777
 2322SOL    HW1 8805   0.731   2.267  12.790
 2322SOL    HW2 8806   0.753   2.402  12.725
 2323SOL     OW 8807   8.663  10.575   9.483
 2323SOL    HW1 8808   8.683  10.619   9.565
 2323SOL    HW2 8809   8.637  10.486   9.509
 2324SOL     OW 8810  14.647   9.139   5.210
 2324SOL    HW1 8811  14.674   9.231   5.213
 2324SOL    HW2 8812  14.567   9.136   5.263
 2325SOL     OW 8813  11.815   8.195   2.078
 2325SOL    HW1 8814  11.798   8.103   2.100
 2325SOL    HW2 8815  11.791   8.243   2.157
 2326SOL     OW 8816   0.922   1.867   6.704
 2326SOL    HW1 8817   0.987   1.827   6.646
 2326SOL    HW2 8818   0.956   1.956   6.719
 2327SOL     OW 8819  13.584   4.384   5.424
 2327SOL    HW1 8820  13.670   4.343   5.434
 2327SOL    HW2 8821  13.551   4.391   5.513
 2328SOL     OW 8822   1.300   6.792   8.471
 2328SOL    HW1 8823   1.264   6.708   8.445
 2328SOL    HW2 8824   1.341   6.827   8.391
 2329SOL     OW 8825   7.382  11.879  13.880
 2329SOL    HW1 8826   7.337  11.880  13.964
 2329SOL    HW2 8827   7.439  11.801  13.883
 2330SOL     OW 8828   3.612   1.277   2.006
 2330SOL    HW1 8829   3.629   1.363   1.966
 2330SOL    HW2 8830   3.542   1.239   1.952
 2331SOL     OW 8831   9.189   8.240   1.242
 2331SOL    HW1 8832   9.139   8.159   1.247
 2331SOL    HW2 8833   9.125   8.309   1.262
 2332SOL     OW 8834  12.817   2.015  14.469
 2332SOL    HW1 8835  12.895   1.962  14.487
 2332SOL    HW2 8836  12.811   2.075  14.544
 2333SOL     OW 8837   2.711   2.864  12.736
 2333SOL    HW1 8838   2.789   2.860  12.793
 2333SOL    HW2 8839   2.649   2.918  12.785
 2334SOL     OW 8840   6.897   8.663  12.990
 2334SOL    HW1 8841   6.873   8.751  13.017
 2334SOL    HW2 8842   6.851   8.650  12.906
 2335SOL     OW 8843  14.633  11.502   5.349
 2335SOL    HW1 8844  14.564  11.523   5.287
 2335SOL    HW2 8845  14.691  11.443   5.302
 2336SOL     OW 8846  10.004   5.589   2.167
 2336SOL    HW1 8847  10.001   5.617   2.075
 2336SOL    HW2 8848   9.975   5.497   2.164
 2337SOL     OW 8849   7.616   4.135   5.440
 2337SOL    HW1 8850   7.711   4.146   5.440
 2337SOL    HW2 8851   7.593   4.126   5.532
 2338SOL     OW 8852   7.416   7.656  11.844
 2338SOL    HW1 8853   7.341   7.714  11.852
 2338SOL    HW2 8854   7.454   7.678  11.759
 2339SOL     OW 8855   2.392   3.224   6.388
 2339SOL    HW1 8856   2.395   3.212   6.293
 2339SOL    HW2 8857   2.306   3.190   6.413
 2340SOL     OW 8858  14.753   6.059   9.819
 2340SOL    HW1 8859  14.720   6.083   9.905
 2340SOL    HW2 8860  14.683   6.085   9.759
 2341SOL     OW 8861  13.851   9.109   7.699
 2341SOL    HW1 8862  13.835   9.015   7.701
 2341SOL    HW2 8863  13.801   9.140   7.624
 2342SOL     OW 8864   4.849   7.460   1.224
 2342SOL    HW1 8865   4.801   7.504   1.294
 2342SOL    HW2 8866   4.937   7.446   1.260
 2343SOL     OW 8867   1.556   9.966  10.781
 2343SOL    HW1 8868   1.507  10.019  10.844
 2343SOL    HW2 8869   1.492   9.945  10.713
 2344SOL     OW 8870   8.290  12.828   7.119
 2344SOL    HW1 8871   8.333  12.912   7.135
 2344SOL    HW2 8872   8.306  12.778   7.200
 2345SOL     OW 8873   6.269   3.290   9.091
 2345SOL    HW1 8874   6.349   3.255   9.129
 2345SOL    HW2 8875   6.264   3.380   9.124
 2346SOL     OW 8876   8.462   0.893   5.639
 2346SOL    HW1 8877   8.541   0.903   5.587
 2346SOL    HW2 8878   8.395   0.941   5.591
 2347SOL     OW 8879  14.814  12.154   5.600
 2347SOL    HW1 8880  14.749  12.206   5.647
 2347SOL    HW2 8881  14.844  12.089   5.664
 2348SOL     OW 8882   3.706  14.112   3.614
 2348SOL    HW1 8883   3.672  14.049   3.677
 2348SOL    HW2 8884   3.725  14.060   3.536
 2349SOL     OW 8885   9.431   4.695  11.931
 2349SOL    HW1 8886   9.477   4.743  11.862
 2349SOL    HW2 8887   9.472   4.726  12.012
 2350SOL     OW 8888   2.651   9.924   5.229
 2350SOL    HW1 8889   2.737   9.882   5.228
 2350SOL    HW2 8890   2.652   9.977   5.309
 2351SOL     OW 8891  14.393  10.254  11.749
 2351SOL    HW1 8892  14.331  10.228  11.681
 2351SOL    HW2 8893  14.477  10.220  11.719
 2352SOL     OW 8894  14.342   3.248   6.718
 2352SOL    HW1 8895  14.359   3.254   6.624
 2352SOL    HW2 8896  14.425   3.271   6.759
 2353SOL     OW 8897  13.398   4.234   1.013
 2353SOL    HW1 8898  13.335   4.298   1.044
 2353SOL    HW2 8899  13.380   4.225   0.919
 2354SOL     OW 8900  11.973   0.229   8.373
 2354SOL    HW1 8901  12.014   0.228   8.286
 2354SOL    HW2 8902  11.899   0.168   8.364
 2355SOL     OW 8903   8.058  10.626  13.515
 2355SOL    HW1 8904   8.047  10.531  13.507
 2355SOL    HW2 8905   8.014  10.663  13.439
 2356SOL     OW 8906  14.822  13.026   5.872
 2356SOL    HW1 8907  14.837  12.932   5.873
 2356SOL    HW2 8908   0.035  13.064   5.855
 2357SOL     OW 8909  11.572  10.236  12.567
 2357SOL    HW1 8910  11.486  10.210  12.602
 2357SOL    HW2 8911  11.577  10.330  12.583
 2358SOL     OW 8912   6.063   7.604   5.756
 2358SOL    HW1 8913   5.991   7.575   5.700
 2358SOL    HW2 8914   6.128   7.638   5.695
 2359SOL     OW 8915   5.547  14.461   4.968
 2359SOL    HW1 8916   5.630  14.416   4.982
 2359SOL    HW2 8917   5.559  14.547   5.008
 2360SOL     OW 8918   3.283   4.067   3.794
 2360SOL    HW1 8919   3.295   4.141   3.854
 2360SOL    HW2 8920   3.252   4.108   3.712
 2361SOL     OW 8921   5.444   3.472   7.416
 2361SOL    HW1 8922   5.423   3.405   7.351
 2361SOL    HW2 8923   5.401   3.442   7.496
 2362SOL     OW 8924   0.218   5.865   2.938
 2362SOL    HW1 8925   0.237   5.772   2.949
 2362SOL    HW2 8926   0.156   5.885   3.008
 2363SOL     OW 8927   1.230   6.432   6.906
 2363SOL    HW1 8928   1.321   6.460   6.916
 2363SOL    HW2 8929   1.186   6.506   6.862
 2364SOL     OW 8930   7.106   1.957  14.085
 2364SOL    HW1 8931   7.023   1.910  14.087
 2364SOL    HW2 8932   7.150   1.932  14.166
 2365SOL     OW 8933   6.448   9.374   5.030
 2365SOL    HW1 8934   6.491   9.302   4.984
 2365SOL    HW2 8935   6.503   9.389   5.107
 2366SOL     OW 8936   9.045   0.793  12.117
 2366SOL    HW1 8937   9.034   0.766  12.025
 2366SOL    HW2 8938   8.955   0.796  12.151
 2367SOL     OW 8939  14.837   0.607   9.064
 2367SOL    HW1 8940   0.054   0.579   9.056
 2367SOL    HW2 8941  14.840   0.679   9.127
 2368SOL     OW 8942   7.825  14.183  10.267
 2368SOL    HW1 8943   7.812  14.274  10.242
 2368SOL    HW2 8944   7.912  14.181  10.306
 2369SOL     OW 8945   2.028   7.637   1.515
 2369SOL    HW1 8946   2.115   7.663   1.486
 2369SOL    HW2 8947   2.012   7.691   1.593
 2370SOL     OW 8948   6.992   6.301   7.088
 2370SOL    HW1 8949   6.926   6.367   7.107
 2370SOL    HW2 8950   6.973   6.272   6.999
 2371SOL     OW 8951  11.306  13.734   1.000
 2371SOL    HW1 8952  11.400  13.740   1.019
 2371SOL    HW2 8953  11.288  13.640   1.000
 2372SOL     OW 8954  10.845  10.941  10.981
 2372SOL    HW1 8955  10.911  10.891  10.933
 2372SOL    HW2 8956  10.893  11.015  11.017
 2373SOL     OW 8957   1.419  12.096  13.033
 2373SOL    HW1 8958   1.482  12.067  13.098
 2373SOL    HW2 8959   1.360  12.155  13.081
 2374SOL     OW 8960   0.762  13.169  11.232
 2374SOL    HW1 8961   0.817  13.235  11.190
 2374SOL    HW2 8962   0.800  13.085  11.205
 2375SOL     OW 8963   7.733   8.346  11.440
 2375SOL    HW1 8964   7.641   8.347  11.466
 2375SOL    HW2 8965   7.738   8.277  11.373
 2376SOL     OW 8966   4.381  11.432   6.355
 2376SOL    HW1 8967   4.369  11.370   6.428
 2376SOL    HW2 8968   4.341  11.388   6.280
 2377SOL     OW 8969   0.490   5.827   6.827
 2377SOL    HW1 8970   0.399   5.826   6.797
 2377SOL    HW2 8971   0.527   5.905   6.786
 2378SOL     OW 8972   8.358   3.841  10.387
 2378SOL    HW1 8973   8.435   3.793  10.419
 2378SOL    HW2 8974   8.294   3.832  10.457
 2379SOL     OW 8975   3.061  11.961   0.787
 2379SOL    HW1 8976   3.137  11.942   0.843
 2379SOL    HW2 8977   3.079  11.914   0.706
 2380SOL     OW 8978   9.742   8.705   5.967
 2380SOL    HW1 8979   9.813   8.640   5.966
 2380SOL    HW2 8980   9.690   8.684   5.890
 2381SOL     OW 8981   5.621   6.682   0.801
 2381SOL    HW1 8982   5.711   6.716   0.805
 2381SOL    HW2 8983   5.576   6.743   0.743
 2382SOL     OW 8984   1.786  10.953   5.635
 2382SOL    HW1 8985   1.736  11.032   5.617
 2382SOL    HW2 8986   1.814  10.923   5.548
 2383SOL     OW 8987   0.801   6.510  12.566
 2383SOL    HW1 8988   0.858   6.471  12.633
 2383SOL    HW2 8989   0.854   6.579  12.526
 2384SOL     OW 8990   9.572  13.928  10.727
 2384SOL    HW1 8991   9.514  13.984  10.779
 2384SOL    HW2 8992   9.630  13.990  10.682
 2385SOL     OW 8993  10.066   8.580  13.674
 2385SOL    HW1 8994  10.144   8.605  13.723
 2385SOL    HW2 8995  10.024   8.664  13.653
 2386SOL     OW 8996  12.398   0.020   1.181
 2386SOL    HW1 8997  12.409   0.061   1.266
 2386SOL    HW2 8998  12.485   0.024   1.141
 2387SOL     OW 8999   7.380   8.887   5.578
 2387SOL    HW1 9000   7.455   8.901   5.635
 2387SOL    HW2 9001   7.331   8.969   5.581
 2388SOL     OW 9002  13.360   7.117   0.560
 2388SOL    HW1 9003  13.272   7.153   0.546
 2388SOL    HW2 9004  13.345   7.036   0.608
 2389SOL     OW 9005   0.099   1.305  14.712
 2389SOL    HW1 9006   0.091   1.330  14.804
 2389SOL    HW2 9007   0.015   1.331  14.673
 2390SOL     OW 9008  12.744  12.862  14.434
 2390SOL    HW1 9009  12.690  12.792  14.470
 2390SOL    HW2 9010  12.745  12.929  14.502
 2391SOL     OW 9011  12.642   3.999  10.813
 2391SOL    HW1 9012  12.579   4.023  10.880
 2391SOL    HW2 9013  12.604   4.031  10.731
 2392SOL     OW 9014  10.918   2.569  10.367
 2392SOL    HW1 9015  10.903   2.620  10.447
 2392SOL    HW2 9016  10.851   2.599  10.306
 2393SOL     OW 9017  10.176   4.170  11.211
 2393SOL    HW1 9018  10.165   4.263  11.193
 2393SOL    HW2 9019  10.123   4.126  11.145
 2394SOL     OW 9020  11.482   3.069   7.615
 2394SOL    HW1 9021  11.441   3.026   7.540
 2394SOL    HW2 9022  11.513   3.153   7.580
 2395SOL     OW 9023  14.830  10.317   0.059
 2395SOL    HW1 9024  14.779  10.398   0.061
 2395SOL    HW2 9025   0.040  10.341   0.098
 2396SOL     OW 9026   3.753  12.458  14.320
 2396SOL    HW1 9027   3.825  12.460  14.257
 2396SOL    HW2 9028   3.729  12.550  14.332
 2397SOL     OW 9029   2.598  14.150  11.689
 2397SOL    HW1 9030   2.553  14.078  11.644
 2397SOL    HW2 9031   2.673  14.169  11.634
 2398SOL     OW 9032   2.188   6.254   7.135
 2398SOL    HW1 9033   2.118   6.212   7.186
 2398SOL    HW2 9034   2.157   6.344   7.123
 2399SOL     OW 9035   4.003   2.970  11.327
 2399SOL    HW1 9036   3.959   3.029  11.265
 2399SOL    HW2 9037   4.020   2.890  11.277
 2400SOL     OW 9038  10.928   1.001   1.629
 2400SOL    HW1 9039  10.939   1.090   1.596
 2400SOL    HW2 9040  10.834   0.983   1.619
 2401SOL     OW 9041  13.446  10.190   3.035
 2401SOL    HW1 9042  13.414  10.120   2.979
 2401SOL    HW2 9043  13.454  10.150   3.122
 2402SOL     OW 9044   1.469  14.104   2.404
 2402SOL    HW1 9045   1.503  14.019   2.374
 2402SOL    HW2 9046   1.500  14.111   2.495
 2403SOL     OW 9047   9.895   9.570   5.268
 2403SOL    HW1 9048   9.865   9.496   5.320
 2403SOL    HW2 9049   9.988   9.554   5.254
 2404SOL     OW 9050   7.815   5.542   2.127
 2404SOL    HW1 9051   7.790   5.477   2.193
 2404SOL    HW2 9052   7.747   5.609   2.132
 2405SOL     OW 9053   9.035   7.564   4.124
 2405SOL    HW1 9054   9.014   7.637   4.182
 2405SOL    HW2 9055   8.952   7.519   4.109
 2406SOL     OW 9056  13.313  14.377   5.943
 2406SOL    HW1 9057  13.284  14.343   6.027
 2406SOL    HW2 9058  13.381  14.316   5.914
 2407SOL     OW 9059  13.829   9.149   3.726
 2407SOL    HW1 9060  13.757   9.112   3.676
 2407SOL    HW2 9061  13.788   9.214   3.784
 2408SOL     OW 9062   4.699  13.968  13.447
 2408SOL    HW1 9063   4.712  13.929  13.361
 2408SOL    HW2 9064   4.687  14.062  13.429
 2409SOL     OW 9065   2.127   8.353   8.055
 2409SOL    HW1 9066   2.195   8.418   8.068
 2409SOL    HW2 9067   2.128   8.300   8.134
 2410SOL     OW 9068  12.821   6.392  12.211
 2410SOL    HW1 9069  12.746   6.440  12.176
 2410SOL    HW2 9070  12.868   6.360  12.134
 2411SOL     OW 9071  12.311   3.395   1.914
 2411SOL    HW1 9072  12.334   3.484   1.940
 2411SOL    HW2 9073  12.228   3.404   1.868
 2412SOL     OW 9074  12.007   7.846   7.568
 2412SOL    HW1 9075  11.969   7.929   7.595
 2412SOL    HW2 9076  12.065   7.821   7.640
 2413SOL     OW 9077   3.047   1.154   5.830
 2413SOL    HW1 9078   3.053   1.120   5.919
 2413SOL    HW2 9079   2.954   1.148   5.808
 2414SOL     OW 9080   3.352   3.869  14.279
 2414SOL    HW1 9081   3.401   3.915  14.212
 2414SOL    HW2 9082   3.356   3.925  14.356
 2415SOL     OW 9083   1.961   1.020  14.155
 2415SOL    HW1 9084   2.004   1.070  14.224
 2415SOL    HW2 9085   2.021   1.023  14.081
 2416SOL     OW 9086   7.027   3.076  11.266
 2416SOL    HW1 9087   6.942   3.031  11.260
 2416SOL    HW2 9088   7.004   3.168  11.282
 2417SOL     OW 9089   1.265  12.320  14.697
 2417SOL    HW1 9090   1.358  12.334  14.714
 2417SOL    HW2 9091   1.260  12.228  14.670
 2418SOL     OW 9092   4.218   2.556   8.982
 2418SOL    HW1 9093   4.208   2.613   8.905
 2418SOL    HW2 9094   4.216   2.467   8.946
 2419SOL     OW 9095   1.954   9.787   7.501
 2419SOL    HW1 9096   2.046   9.761   7.496
 2419SOL    HW2 9097   1.908   9.707   7.524
 2420SOL     OW 9098  11.532  10.924   1.863
 2420SOL    HW1 9099  11.570  10.914   1.950
 2420SOL    HW2 9100  11.490  11.010   1.866
 2421SOL     OW 9101  13.979   9.944   7.666
 2421SOL    HW1 9102  13.921  10.011   7.701
 2421SOL    HW2 9103  13.937   9.861   7.690
 2422SOL     OW 9104  10.578   0.715   5.590
 2422SOL    HW1 9105  10.574   0.757   5.676
 2422SOL    HW2 9106  10.635   0.773   5.538
 2423SOL     OW 9107  10.178   8.157  13.640
 2423SOL    HW1 9108  10.129   8.103  13.702
 2423SOL    HW2 9109  10.219   8.095  13.580
 2424SOL     OW 9110  11.906   0.216  12.809
 2424SOL    HW1 9111  11.885   0.132  12.769
 2424SOL    HW2 9112  11.930   0.194  12.899
 2425SOL     OW 9113   8.387   9.608   8.044
 2425SOL    HW1 9114   8.300   9.615   8.083
 2425SOL    HW2 9115   8.386   9.524   7.998
 2426SOL     OW 9116   6.369   5.486  10.040
 2426SOL    HW1 9117   6.360   5.462   9.947
 2426SOL    HW2 9118   6.461   5.509  10.050
 2427SOL     OW 9119   9.923   8.395   4.622
 2427SOL    HW1 9120   9.974   8.323   4.658
 2427SOL    HW2 9121   9.859   8.417   4.690
 2428SOL     OW 9122   7.349   7.386  13.830
 2428SOL    HW1 9123   7.359   7.428  13.745
 2428SOL    HW2 9124   7.309   7.454  13.886
 2429SOL     OW 9125  12.881   4.488  11.807
 2429SOL    HW1 9126  12.882   4.567  11.861
 2429SOL    HW2 9127  12.868   4.416  11.869
 2430SOL     OW 9128   4.295  13.690   8.871
 2430SOL    HW1 9129   4.281  13.784   8.854
 2430SOL    HW2 9130   4.245  13.646   8.802
 2431SOL     OW 9131   8.868   0.359   6.433
 2431SOL    HW1 9132   8.913   0.373   6.516
 2431SOL    HW2 9133   8.922   0.404   6.369
 2432SOL     OW 9134   1.077   8.277   8.760
 2432SOL    HW1 9135   1.123   8.360   8.748
 2432SOL    HW2 9136   1.098   8.226   8.681
 2433SOL     OW 9137   3.869   2.596   6.115
 2433SOL    HW1 9138   3.804   2.616   6.183
 2433SOL    HW2 9139   3.817   2.561   6.043
 2434SOL     OW 9140  10.314  11.505   0.651
 2434SOL    HW1 9141  10.389  11.471   0.700
 2434SOL    HW2 9142  10.240  11.497   0.712
 2435SOL     OW 9143   0.641   9.928   8.859
 2435SOL    HW1 9144   0.652   9.853   8.801
 2435SOL    HW2 9145   0.729   9.965   8.867
 2436SOL     OW 9146  13.754  11.920   4.393
 2436SOL    HW1 9147  13.727  11.969   4.315
 2436SOL    HW2 9148  13.764  11.830   4.362
 2437SOL     OW 9149   4.949   5.274  11.485
 2437SOL    HW1 9150   5.029   5.321  11.460
 2437SOL    HW2 9151   4.910   5.327  11.555
 2438SOL     OW 9152   3.726  10.214   2.111
 2438SOL    HW1 9153   3.770  10.243   2.031
 2438SOL    HW2 9154   3.641  10.257   2.109
 2439SOL     OW 9155   9.805   3.377   4.110
 2439SOL    HW1 9156   9.825   3.363   4.203
 2439SOL    HW2 9157   9.889   3.370   4.066
 2440SOL     OW 9158   5.255   5.378   7.688
 2440SOL    HW1 9159   5.322   5.412   7.628
 2440SOL    HW2 9160   5.205   5.316   7.634
 2441SOL     OW 9161   3.371  13.549  10.320
 2441SOL    HW1 9162   3.450  13.525  10.368
 2441SOL    HW2 9163   3.399  13.620  10.262
 2442SOL     OW 9164   0.372   1.301   5.110
 2442SOL    HW1 9165   0.435   1.262   5.171
 2442SOL    HW2 9166   0.344   1.227   5.055
 2443SOL     OW 9167   9.425  11.748  14.050
 2443SOL    HW1 9168   9.457  11.752  14.139
 2443SOL    HW2 9169   9.429  11.656  14.026
 2444SOL     OW 9170   6.817   1.513  10.311
 2444SOL    HW1 9171   6.839   1.528  10.403
 2444SOL    HW2 9172   6.797   1.419  10.306
 2445SOL     OW 9173   2.748  11.354   4.253
 2445SOL    HW1 9174   2.800  11.347   4.173
 2445SOL    HW2 9175   2.672  11.297   4.237
 2446SOL     OW 9176   9.020   6.695   7.971
 2446SOL    HW1 9177   9.093   6.645   7.934
 2446SOL    HW2 9178   9.046   6.786   7.962
 2447SOL     OW 9179   3.955   8.201   5.988
 2447SOL    HW1 9180   3.897   8.135   5.950
 2447SOL    HW2 9181   3.907   8.233   6.065
 2448SOL     OW 9182  13.265  10.964  13.970
 2448SOL    HW1 9183  13.228  11.048  13.999
 2448SOL    HW2 9184  13.198  10.925  13.916
 2449SOL     OW 9185   1.967  10.788   7.226
 2449SOL    HW1 9186   2.021  10.826   7.156
 2449SOL    HW2 9187   1.920  10.717   7.183
 2450SOL     OW 9188   5.222   4.896   0.464
 2450SOL    HW1 9189   5.153   4.837   0.435
 2450SOL    HW2 9190   5.213   4.973   0.408
 2451SOL     OW 9191   2.500  13.208  10.105
 2451SOL    HW1 9192   2.558  13.142  10.141
 2451SOL    HW2 9193   2.423  13.160  10.076
 2452SOL     OW 9194   6.762  12.021  14.170
 2452SOL    HW1 9195   6.789  12.102  14.213
 2452SOL    HW2 9196   6.843  11.984  14.135
 2453SOL     OW 9197   1.631  13.703  10.833
 2453SOL    HW1 9198   1.714  13.735  10.797
 2453SOL    HW2 9199   1.596  13.646  10.764
 2454SOL     OW 9200  12.219  13.526   9.055
 2454SOL    HW1 9201  12.220  13.430   9.046
 2454SOL    HW2 9202  12.309  13.549   9.079
 2455SOL     OW 9203   5.698  14.663   4.832
 2455SOL    HW1 9204   5.734  14.574   4.826
 2455SOL    HW2 9205   5.653  14.676   4.749
 2456SOL     OW 9206  10.281  13.422   9.320
 2456SOL    HW1 9207  10.298  13.331   9.298
 2456SOL    HW2 9208  10.219  13.419   9.393
 2457SOL     OW 9209   2.587  10.000  10.360
 2457SOL    HW1 9210   2.591   9.961  10.272
 2457SOL    HW2 9211   2.535  10.080  10.348
 2458SOL     OW 9212   1.356  10.735   1.704
 2458SOL    HW1 9213   1.267  10.731   1.737
 2458SOL    HW2 9214   1.352  10.797   1.631
 2459SOL     OW 9215  12.036   9.601  11.438
 2459SOL    HW1 9216  12.097   9.672  11.455
 2459SOL    HW2 9217  11.959   9.622  11.492
 2460SOL     OW 9218   3.528   9.940   1.070
 2460SOL    HW1 9219   3.586   9.970   0.999
 2460SOL    HW2 9220   3.569   9.860   1.102
 2461SOL     OW 9221   9.051   4.317   4.388
 2461SOL    HW1 9222   9.029   4.226   4.371
 2461SOL    HW2 9223   9.051   4.324   4.483
 2462SOL     OW 9224   8.575   1.492   4.414
 2462SOL    HW1 9225   8.657   1.541   4.422
 2462SOL    HW2 9226   8.557   1.462   4.503
 2463SOL     OW 9227   9.035   5.718   8.678
 2463SOL    HW1 9228   9.003   5.630   8.656
 2463SOL    HW2 9229   8.957   5.765   8.707
 2464SOL     OW 9230   0.879   7.210   6.850
 2464SOL    HW1 9231   0.834   7.283   6.807
 2464SOL    HW2 9232   0.960   7.247   6.884
 2465SOL     OW 9233  11.126   8.913   1.730
 2465SOL    HW1 9234  11.054   8.966   1.697
 2465SOL    HW2 9235  11.192   8.977   1.758
 2466SOL     OW 9236  14.001  11.033   1.094
 2466SOL    HW1 9237  14.074  10.987   1.052
 2466SOL    HW2 9238  13.932  11.033   1.028
 2467SOL     OW 9239   3.811  10.178   3.148
 2467SOL    HW1 9240   3.832  10.222   3.065
 2467SOL    HW2 9241   3.817  10.248   3.213
 2468SOL     OW 9242  13.316   5.289  14.523
 2468SOL    HW1 9243  13.304   5.331  14.607
 2468SOL    HW2 9244  13.410   5.271  14.518
 2469SOL     OW 9245   0.629  12.461   4.183
 2469SOL    HW1 9246   0.691  12.533   4.179
 2469SOL    HW2 9247   0.668  12.392   4.129
 2470SOL     OW 9248  14.146  14.591   6.321
 2470SOL    HW1 9249  14.193  14.644   6.257
 2470SOL    HW2 9250  14.203  14.589   6.398
 2471SOL     OW 9251   2.100   5.078   3.146
 2471SOL    HW1 9252   2.193   5.058   3.134
 2471SOL    HW2 9253   2.068   5.014   3.209
 2472SOL     OW 9254  13.790   8.704   0.316
 2472SOL    HW1 9255  13.833   8.749   0.244
 2472SOL    HW2 9256  13.781   8.614   0.286
 2473SOL     OW 9257   0.441  12.966  13.887
 2473SOL    HW1 9258   0.509  13.032  13.895
 2473SOL    HW2 9259   0.374  12.992  13.950
 2474SOL     OW 9260   0.475  10.223   0.692
 2474SOL    HW1 9261   0.453  10.129   0.698
 2474SOL    HW2 9262   0.407  10.266   0.745
 2475SOL     OW 9263   7.990  14.128   9.255
 2475SOL    HW1 9264   7.949  14.199   9.303
 2475SOL    HW2 9265   7.972  14.050   9.308
 2476SOL     OW 9266   1.178  12.486   7.003
 2476SOL    HW1 9267   1.236  12.451   6.936
 2476SOL    HW2 9268   1.124  12.551   6.957
 2477SOL     OW 9269   7.396   5.471   8.188
 2477SOL    HW1 9270   7.378   5.377   8.178
 2477SOL    HW2 9271   7.491   5.477   8.196
 2478SOL     OW 9272  14.501  11.079   3.412
 2478SOL    HW1 9273  14.463  11.008   3.361
 2478SOL    HW2 9274  14.534  11.141   3.346
 2479SOL     OW 9275  11.507   5.519  10.328
 2479SOL    HW1 9276  11.452   5.589  10.365
 2479SOL    HW2 9277  11.456   5.486  10.254
 2480SOL     OW 9278   7.820   2.213   9.576
 2480SOL    HW1 9279   7.767   2.291   9.558
 2480SOL    HW2 9280   7.769   2.141   9.539
 2481SOL     OW 9281   5.824   3.666  10.522
 2481SOL    HW1 9282   5.823   3.610  10.445
 2481SOL    HW2 9283   5.905   3.642  10.568
 2482SOL     OW 9284   6.029  12.303   5.026
 2482SOL    HW1 9285   6.105  12.291   4.969
 2482SOL    HW2 9286   6.049  12.251   5.104
 2483SOL     OW 9287  13.623   7.775   8.910
 2483SOL    HW1 9288  13.627   7.738   8.999
 2483SOL    HW2 9289  13.710   7.759   8.874
 2484SOL     OW 9290  11.938   4.692   3.301
 2484SOL    HW1 9291  11.966   4.760   3.362
 2484SOL    HW2 9292  11.927   4.614   3.355
 2485SOL     OW 9293  10.718  13.362  11.565
 2485SOL    HW1 9294  10.779  13.301  11.524
 2485SOL    HW2 9295  10.744  13.448  11.532
 2486SOL     OW 9296  14.777  14.181   3.685
 2486SOL    HW1 9297  14.808  14.118   3.750
 2486SOL    HW2 9298  14.682  14.187   3.700
 2487SOL     OW 9299   5.602   8.246   1.783
 2487SOL    HW1 9300   5.599   8.173   1.845
 2487SOL    HW2 9301   5.539   8.222   1.715
 2488SOL     OW 9302  13.923  13.603  11.723
 2488SOL    HW1 9303  13.987  13.551  11.674
 2488SOL    HW2 9304  13.972  13.682  11.750
 2489SOL     OW 9305  12.749  14.328  10.441
 2489SOL    HW1 9306  12.791  14.377  10.370
 2489SOL    HW2 9307  12.818  14.316  10.506
 2490SOL     OW 9308  13.322   5.170   4.848
 2490SOL    HW1 9309  13.274   5.244   4.809
 2490SOL    HW2 9310  13.318   5.186   4.943
 2491SOL     OW 9311   2.844   1.803  10.154
 2491SOL    HW1 9312   2.808   1.715  10.161
 2491SOL    HW2 9313   2.895   1.814  10.235
 2492SOL     OW 9314   0.321  13.987  11.757
 2492SOL    HW1 9315   0.314  14.065  11.812
 2492SOL    HW2 9316   0.236  13.979  11.715
 2493SOL     OW 9317   6.713   5.675   1.472
 2493SOL    HW1 9318   6.694   5.584   1.493
 2493SOL    HW2 9319   6.694   5.682   1.378
 2494SOL     OW 9320   8.649   2.456   7.692
 2494SOL    HW1 9321   8.717   2.393   7.712
 2494SOL    HW2 9322   8.694   2.540   7.690
 2495SOL     OW 9323   4.157  11.368  10.352
 2495SOL    HW1 9324   4.176  11.327  10.268
 2495SOL    HW2 9325   4.201  11.453  10.347
 2496SOL     OW 9326  14.545  10.161   6.657
 2496SOL    HW1 9327  14.538  10.221   6.583
 2496SOL    HW2 9328  14.614  10.099   6.632
 2497SOL     OW 9329   2.988  11.882   6.756
 2497SOL    HW1 9330   2.902  11.851   6.728
 2497SOL    HW2 9331   3.017  11.817   6.820
 2498SOL     OW 9332   1.921  10.124   4.740
 2498SOL    HW1 9333   1.918  10.038   4.697
 2498SOL    HW2 9334   2.015  10.142   4.749
 2499SOL     OW 9335  14.174   2.566  12.421
 2499SOL    HW1 9336  14.155   2.659  12.427
 2499SOL    HW2 9337  14.168   2.546  12.328
 2500SOL     OW 9338   5.783   6.627  11.620
 2500SOL    HW1 9339   5.726   6.658  11.550
 2500SOL    HW2 9340   5.771   6.532  11.620
 2501SOL     OW 9341   6.096  12.041   9.151
 2501SOL    HW1 9342   6.103  11.959   9.201
 2501SOL    HW2 9343   6.004  12.066   9.160
 2502SOL     OW 9344  12.170   5.944   1.075
 2502SOL    HW1 9345  12.077   5.966   1.067
 2502SOL    HW2 9346  12.199   5.991   1.153
 2503SOL     OW 9347  13.610   5.116   1.426
 2503SOL    HW1 9348  13.545   5.054   1.457
 2503SOL    HW2 9349  13.563   5.199   1.420
 2504SOL     OW 9350  14.731  12.181   3.704
 2504SOL    HW1 9351  14.695  12.153   3.788
 2504SOL    HW2 9352  14.666  12.241   3.668
 2505SOL     OW 9353   7.421  12.898   2.589
 2505SOL    HW1 9354   7.443  12.805   2.591
 2505SOL    HW2 9355   7.505  12.942   2.578
 2506SOL     OW 9356   0.182  13.172   9.001
 2506SOL    HW1 9357   0.154  13.257   8.969
 2506SOL    HW2 9358   0.265  13.156   8.957
 2507SOL     OW 9359   8.032  11.344  14.452
 2507SOL    HW1 9360   8.007  11.383  14.369
 2507SOL    HW2 9361   8.054  11.253  14.430
 2508SOL     OW 9362  10.693  11.188  10.509
 2508SOL    HW1 9363  10.670  11.200  10.601
 2508SOL    HW2 9364  10.773  11.240  10.498
 2509SOL     OW 9365   1.908  11.764  10.823
 2509SOL    HW1 9366   1.925  11.814  10.903
 2509SOL    HW2 9367   1.875  11.679  10.853
 2510SOL     OW 9368   1.074   7.789   1.750
 2510SOL    HW1 9369   1.121   7.872   1.745
 2510SOL    HW2 9370   1.136   7.725   1.716
 2511SOL     OW 9371  13.127   9.707   1.031
 2511SOL    HW1 9372  13.164   9.619   1.037
 2511SOL    HW2 9373  13.033   9.694   1.043
 2512SOL     OW 9374  13.242  10.514   0.815
 2512SOL    HW1 9375  13.241  10.606   0.787
 2512SOL    HW2 9376  13.194  10.514   0.898
 2513SOL     OW 9377  13.413  10.947  10.878
 2513SOL    HW1 9378  13.393  10.884  10.946
 2513SOL    HW2 9379  13.454  11.021  10.924
 2514SOL     OW 9380   5.497  12.423  14.689
 2514SOL    HW1 9381   5.406  12.406  14.713
 2514SOL    HW2 9382   5.549  12.379  14.757
 2515SOL     OW 9383  11.525   1.824   9.768
 2515SOL    HW1 9384  11.577   1.886   9.717
 2515SOL    HW2 9385  11.460   1.879   9.812
 2516SOL     OW 9386   2.070   8.972   6.795
 2516SOL    HW1 9387   2.126   8.996   6.869
 2516SOL    HW2 9388   2.055   8.878   6.806
 2517SOL     OW 9389   8.963   0.615   7.567
 2517SOL    HW1 9390   8.883   0.563   7.574
 2517SOL    HW2 9391   8.962   0.648   7.477
 2518SOL     OW 9392  13.994   4.642   2.299
 2518SOL    HW1 9393  13.904   4.617   2.321
 2518SOL    HW2 9394  14.045   4.562   2.314
 2519SOL     OW 9395   6.008   1.436   0.106
 2519SOL    HW1 9396   6.082   1.457   0.162
 2519SOL    HW2 9397   6.004   1.340   0.106
 2520SOL     OW 9398  11.052  13.711   5.652
 2520SOL    HW1 9399  11.014  13.648   5.713
 2520SOL    HW2 9400  11.084  13.657   5.580
 2521SOL     OW 9401   8.920   4.889   7.436
 2521SOL    HW1 9402   8.921   4.927   7.523
 2521SOL    HW2 9403   8.839   4.838   7.433
 2522SOL     OW 9404   0.459  10.558   2.751
 2522SOL    HW1 9405   0.401  10.613   2.804
 2522SOL    HW2 9406   0.420  10.471   2.755
 2523SOL     OW 9407   7.568  13.867   9.927
 2523SOL    HW1 9408   7.567  13.881   9.833
 2523SOL    HW2 9409   7.636  13.925   9.960
 2524SOL     OW 9410   4.797   1.518  14.106
 2524SOL    HW1 9411   4.866   1.562  14.155
 2524SOL    HW2 9412   4.723   1.514  14.167
 2525SOL     OW 9413  10.082   6.405   8.521
 2525SOL    HW1 9414  10.040   6.486   8.551
 2525SOL    HW2 9415  10.167   6.434   8.486
 2526SOL     OW 9416   2.577   8.067  10.816
 2526SOL    HW1 9417   2.514   8.007  10.777
 2526SOL    HW2 9418   2.659   8.050  10.770
 2527SOL     OW 9419   2.251  13.181   5.969
 2527SOL    HW1 9420   2.242  13.271   5.938
 2527SOL    HW2 9421   2.281  13.132   5.892
 2528SOL     OW 9422   1.133   4.096   6.340
 2528SOL    HW1 9423   1.069   4.032   6.309
 2528SOL    HW2 9424   1.127   4.091   6.435
 2529SOL     OW 9425  13.011   9.445   7.459
 2529SOL    HW1 9426  13.044   9.434   7.549
 2529SOL    HW2 9427  13.090   9.464   7.407
 2530SOL     OW 9428  11.000   7.499   7.683
 2530SOL    HW1 9429  10.907   7.497   7.661
 2530SOL    HW2 9430  11.003   7.493   7.778
 2531SOL     OW 9431   2.410   2.420  13.115
 2531SOL    HW1 9432   2.490   2.368  13.106
 2531SOL    HW2 9433   2.441   2.505  13.145
 2532SOL     OW 9434  11.159   2.359  12.834
 2532SOL    HW1 9435  11.125   2.409  12.760
 2532SOL    HW2 9436  11.250   2.339  12.811
 2533SOL     OW 9437   3.904   6.744  14.693
 2533SOL    HW1 9438   3.961   6.769  14.621
 2533SOL    HW2 9439   3.893   6.649  14.684
 2534SOL     OW 9440   1.563   5.993   4.794
 2534SOL    HW1 9441   1.613   5.914   4.813
 2534SOL    HW2 9442   1.585   6.054   4.864
 2535SOL     OW 9443  10.558   4.693   6.460
 2535SOL    HW1 9444  10.518   4.779   6.476
 2535SOL    HW2 9445  10.616   4.708   6.386
 2536SOL     OW 9446   3.424   0.438   3.708
 2536SOL    HW1 9447   3.397   0.383   3.782
 2536SOL    HW2 9448   3.490   0.497   3.746
 2537SOL     OW 9449   1.594   6.968   5.196
 2537SOL    HW1 9450   1.648   6.905   5.148
 2537SOL    HW2 9451   1.645   7.049   5.194
 2538SOL     OW 9452   3.708   1.419   7.426
 2538SOL    HW1 9453   3.801   1.441   7.426
 2538SOL    HW2 9454   3.675   1.453   7.343
 2539SOL     OW 9455   2.003   4.172  11.918
 2539SOL    HW1 9456   1.960   4.126  11.845
 2539SOL    HW2 9457   2.036   4.253  11.878
 2540SOL     OW 9458   3.771   7.159  13.281
 2540SOL    HW1 9459   3.758   7.198  13.194
 2540SOL    HW2 9460   3.859   7.122  13.277
 2541SOL     OW 9461  11.445   1.178   3.173
 2541SOL    HW1 9462  11.466   1.087   3.193
 2541SOL    HW2 9463  11.450   1.183   3.078
 2542SOL     OW 9464  13.948  14.165   2.092
 2542SOL    HW1 9465  13.913  14.143   2.006
 2542SOL    HW2 9466  13.873  14.156   2.151
 2543SOL     OW 9467   8.740   5.512  10.101
 2543SOL    HW1 9468   8.678   5.476  10.163
 2543SOL    HW2 9469   8.762   5.599  10.136
 2544SOL     OW 9470   8.133  12.928  13.007
 2544SOL    HW1 9471   8.215  12.879  13.007
 2544SOL    HW2 9472   8.107  12.933  13.099
 2545SOL     OW 9473  14.632   9.889   4.840
 2545SOL    HW1 9474  14.636   9.806   4.888
 2545SOL    HW2 9475  14.579   9.946   4.895
 2546SOL     OW 9476   5.007   8.728   8.564
 2546SOL    HW1 9477   5.024   8.810   8.517
 2546SOL    HW2 9478   4.978   8.668   8.496
 2547SOL     OW 9479  11.364   8.790   2.136
 2547SOL    HW1 9480  11.353   8.841   2.217
 2547SOL    HW2 9481  11.282   8.803   2.088
 2548SOL     OW 9482   6.438   0.252  14.649
 2548SOL    HW1 9483   6.368   0.282  14.707
 2548SOL    HW2 9484   6.518   0.288  14.687
 2549SOL     OW 9485   3.805  10.354   0.129
 2549SOL    HW1 9486   3.776  10.304   0.053
 2549SOL    HW2 9487   3.725  10.393   0.165
 2550SOL     OW 9488   0.002  13.542   6.513
 2550SOL    HW1 9489  14.835  13.457   6.533
 2550SOL    HW2 9490   0.074  13.520   6.454
 2551SOL     OW 9491   2.746  13.133  13.152
 2551SOL    HW1 9492   2.660  13.091  13.155
 2551SOL    HW2 9493   2.746  13.181  13.069
 2552SOL     OW 9494   4.817   7.634  13.238
 2552SOL    HW1 9495   4.893   7.598  13.284
 2552SOL    HW2 9496   4.855   7.691  13.171
 2553SOL     OW 9497   1.156   7.477  14.586
 2553SOL    HW1 9498   1.072   7.430  14.582
 2553SOL    HW2 9499   1.183   7.485  14.495
 2554SOL     OW 9500  10.905   3.331  10.332
 2554SOL    HW1 9501  10.913   3.346  10.426
 2554SOL    HW2 9502  10.906   3.236  10.322
 2555SOL     OW 9503   1.743   7.054   4.935
 2555SOL    HW1 9504   1.810   7.102   4.985
 2555SOL    HW2 9505   1.724   7.111   4.860
 2556SOL     OW 9506   2.531  10.613   2.276
 2556SOL    HW1 9507   2.465  10.553   2.312
 2556SOL    HW2 9508   2.481  10.672   2.220
 2557SOL     OW 9509  12.535   5.918  11.514
 2557SOL    HW1 9510  12.441   5.934  11.525
 2557SOL    HW2 9511  12.571   6.002  11.487
 2558SOL     OW 9512   1.969   4.466   3.766
 2558SOL    HW1 9513   2.059   4.497   3.769
 2558SOL    HW2 9514   1.951   4.432   3.854
 2559SOL     OW 9515   1.008   7.425   5.298
 2559SOL    HW1 9516   1.068   7.479   5.349
 2559SOL    HW2 9517   1.053   7.410   5.215
 2560SOL     OW 9518   8.370  12.766   1.823
 2560SOL    HW1 9519   8.429  12.702   1.862
 2560SOL    HW2 9520   8.391  12.848   1.867
 2561SOL     OW 9521   4.494  13.019  13.679
 2561SOL    HW1 9522   4.418  13.071  13.652
 2561SOL    HW2 9523   4.569  13.072  13.653
 2562SOL     OW 9524  14.227  11.472   4.795
 2562SOL    HW1 9525  14.163  11.484   4.725
 2562SOL    HW2 9526  14.175  11.445   4.870
 2563SOL     OW 9527   5.322  13.497   3.071
 2563SOL    HW1 9528   5.382  13.458   3.135
 2563SOL    HW2 9529   5.297  13.425   3.014
 2564SOL     OW 9530  13.318   6.273  13.214
 2564SOL    HW1 9531  13.315   6.263  13.309
 2564SOL    HW2 9532  13.389   6.335  13.199
 2565SOL     OW 9533   0.102   8.708   5.494
 2565SOL    HW1 9534   0.163   8.752   5.435
 2565SOL    HW2 9535   0.154   8.685   5.571
 2566SOL     OW 9536   5.829  10.746   8.319
 2566SOL    HW1 9537   5.850  10.701   8.401
 2566SOL    HW2 9538   5.889  10.707   8.254
 2567SOL     OW 9539   9.245   4.063   2.904
 2567SOL    HW1 9540   9.284   4.086   2.989
 2567SOL    HW2 9541   9.175   4.127   2.892
 2568SOL     OW 9542   0.781   4.911   9.879
 2568SOL    HW1 9543   0.873   4.906   9.854
 2568SOL    HW2 9544   0.743   4.828   9.849
 2569SOL     OW 9545   4.786  11.340   1.956
 2569SOL    HW1 9546   4.691  11.347   1.950
 2569SOL    HW2 9547   4.802  11.303   2.043
 2570SOL     OW 9548  14.013   4.937  13.060
 2570SOL    HW1 9549  14.061   4.855  13.047
 2570SOL    HW2 9550  13.982   4.933  13.150
 2571SOL     OW 9551   7.172  13.289   2.761
 2571SOL    HW1 9552   7.244  13.295   2.698
 2571SOL    HW2 9553   7.094  13.310   2.709
 2572SOL     OW 9554  14.232  11.067   2.278
 2572SOL    HW1 9555  14.215  11.146   2.227
 2572SOL    HW2 9556  14.166  11.004   2.248
 2573SOL     OW 9557   6.045   9.465   0.603
 2573SOL    HW1 9558   6.131   9.495   0.574
 2573SOL    HW2 9559   6.034   9.504   0.690
 2574SOL     OW 9560   8.358  13.888   2.325
 2574SOL    HW1 9561   8.285  13.921   2.376
 2574SOL    HW2 9562   8.419  13.853   2.389
 2575SOL     OW 9563   8.171   2.580   9.793
 2575SOL    HW1 9564   8.092   2.581   9.738
 2575SOL    HW2 9565   8.160   2.653   9.853
 2576SOL     OW 9566  14.698   8.247   7.442
 2576SOL    HW1 9567  14.744   8.332   7.442
 2576SOL    HW2 9568  14.757   8.188   7.489
 2577SOL     OW 9569   7.811   1.874   5.599
 2577SOL    HW1 9570   7.778   1.787   5.577
 2577SOL    HW2 9571   7.776   1.931   5.532
 2578SOL     OW 9572  12.125  14.487   3.389
 2578SOL    HW1 9573  12.153  14.458   3.476
 2578SOL    HW2 9574  12.101  14.406   3.343
 2579SOL     OW 9575  13.374   9.859  11.798
 2579SOL    HW1 9576  13.459   9.820  11.816
 2579SOL    HW2 9577  13.333   9.867  11.885
 2580SOL     OW 9578  10.907  14.826   8.866
 2580SOL    HW1 9579  10.841  14.799   8.930
 2580SOL    HW2 9580  10.961   0.016   8.914
 2581SOL     OW 9581   3.057  14.864  12.978
 2581SOL    HW1 9582   2.973  14.839  12.941
 2581SOL    HW2 9583   3.122  14.818  12.924
 2582SOL     OW 9584   1.519   1.045   5.618
 2582SOL    HW1 9585   1.532   1.080   5.706
 2582SOL    HW2 9586   1.451   1.100   5.580
 2583SOL     OW 9587   8.983   1.159   4.456
 2583SOL    HW1 9588   9.056   1.108   4.423
 2583SOL    HW2 9589   8.917   1.154   4.387
 2584SOL     OW 9590   8.136   3.646  13.815
 2584SOL    HW1 9591   8.094   3.732  13.820
 2584SOL    HW2 9592   8.070   3.589  13.775
 2585SOL     OW 9593  14.565  14.030  12.663
 2585SOL    HW1 9594  14.541  13.967  12.595
 2585SOL    HW2 9595  14.613  13.980  12.728
 2586SOL     OW 9596   3.189   1.820  11.067
 2586SOL    HW1 9597   3.202   1.728  11.045
 2586SOL    HW2 9598   3.096   1.826  11.092
 2587SOL     OW 9599  12.462   7.644   5.222
 2587SOL    HW1 9600  12.406   7.703   5.272
 2587SOL    HW2 9601  12.436   7.556   5.251
 2588SOL     OW 9602   8.168   3.358  13.704
 2588SOL    HW1 9603   8.198   3.382  13.791
 2588SOL    HW2 9604   8.215   3.277  13.683
 2589SOL     OW 9605   8.185  14.360  13.611
 2589SOL    HW1 9606   8.218  14.381  13.524
 2589SOL    HW2 9607   8.257  14.315  13.654
 2590SOL     OW 9608  11.403   6.782  11.381
 2590SOL    HW1 9609  11.448   6.698  11.392
 2590SOL    HW2 9610  11.359   6.797  11.464
 2591SOL     OW 9611   4.686   8.961  11.503
 2591SOL    HW1 9612   4.672   9.022  11.431
 2591SOL    HW2 9613   4.640   8.881  11.475
 2592SOL     OW 9614   5.129  10.160   3.602
 2592SOL    HW1 9615   5.069  10.205   3.661
 2592SOL    HW2 9616   5.206  10.140   3.655
 2593SOL     OW 9617   8.809   5.235   2.011
 2593SOL    HW1 9618   8.748   5.264   1.944
 2593SOL    HW2 9619   8.823   5.311   2.067
 2594SOL     OW 9620   3.761   6.341   7.972
 2594SOL    HW1 9621   3.764   6.430   8.007
 2594SOL    HW2 9622   3.810   6.288   8.035
 2595SOL     OW 9623   4.328   6.809   3.561
 2595SOL    HW1 9624   4.317   6.719   3.590
 2595SOL    HW2 9625   4.393   6.846   3.620
 2596SOL     OW 9626   0.431   9.881   6.776
 2596SOL    HW1 9627   0.390   9.830   6.846
 2596SOL    HW2 9628   0.519   9.899   6.808
 2597SOL     OW 9629  10.681   4.600   8.110
 2597SOL    HW1 9630  10.719   4.682   8.142
 2597SOL    HW2 9631  10.607   4.583   8.168
 2598SOL     OW 9632   8.782   6.674  11.545
 2598SOL    HW1 9633   8.860   6.719  11.577
 2598SOL    HW2 9634   8.774   6.596  11.601
 2599SOL     OW 9635  10.172   3.646   2.167
 2599SOL    HW1 9636  10.116   3.657   2.090
 2599SOL    HW2 9637  10.116   3.606   2.233
 2600SOL     OW 9638   6.487  14.442   4.144
 2600SOL    HW1 9639   6.528  14.356   4.142
 2600SOL    HW2 9640   6.520  14.483   4.224
 2601SOL     OW 9641   4.726   1.921   0.324
 2601SOL    HW1 9642   4.722   1.902   0.230
 2601SOL    HW2 9643   4.702   2.013   0.331
 2602SOL     OW 9644  11.949   0.987   7.332
 2602SOL    HW1 9645  11.961   1.076   7.300
 2602SOL    HW2 9646  11.903   0.942   7.261
 2603SOL     OW 9647  10.156   3.818   5.128
 2603SOL    HW1 9648  10.223   3.809   5.060
 2603SOL    HW2 9649  10.077   3.781   5.088
 2604SOL     OW 9650   4.409   0.161   9.056
 2604SOL    HW1 9651   4.413   0.254   9.078
 2604SOL    HW2 9652   4.366   0.158   8.971
 2605SOL     OW 9653   6.383   9.849   8.083
 2605SOL    HW1 9654   6.454   9.792   8.112
 2605SOL    HW2 9655   6.423   9.906   8.017
 2606SOL     OW 9656   8.466  10.761   5.346
 2606SOL    HW1 9657   8.439  10.728   5.260
 2606SOL    HW2 9658   8.407  10.718   5.407
 2607SOL     OW 9659   8.615   4.390   2.258
 2607SOL    HW1 9660   8.661   4.472   2.278
 2607SOL    HW2 9661   8.588   4.356   2.343
 2608SOL     OW 9662   7.655   4.056   3.132
 2608SOL    HW1 9663   7.679   4.124   3.069
 2608SOL    HW2 9664   7.564   4.035   3.110
 2609SOL     OW 9665   9.289   9.990   8.519
 2609SOL    HW1 9666   9.373   9.947   8.533
 2609SOL    HW2 9667   9.253  10.001   8.608
 2610SOL     OW 9668   2.935  10.208   4.674
 2610SOL    HW1 9669   2.973  10.206   4.586
 2610SOL    HW2 9670   2.844  10.235   4.659
 2611SOL     OW 9671   1.496  14.751  10.359
 2611SOL    HW1 9672   1.534  14.714  10.439
 2611SOL    HW2 9673   1.570  14.762  10.300
 2612SOL     OW 9674   0.081   7.329  11.683
 2612SOL    HW1 9675   0.082   7.253  11.742
 2612SOL    HW2 9676   0.148   7.387  11.719
 2613SOL     OW 9677   4.896   7.710  14.497
 2613SOL    HW1 9678   4.949   7.669  14.428
 2613SOL    HW2 9679   4.955   7.715  14.573
 2614SOL     OW 9680  12.687   9.960  10.436
 2614SOL    HW1 9681  12.769   9.926  10.402
 2614SOL    HW2 9682  12.663  10.031  10.377
 2615SOL     OW 9683   8.298  11.521  10.432
 2615SOL    HW1 9684   8.322  11.607  10.465
 2615SOL    HW2 9685   8.343  11.514  10.348
 2616SOL     OW 9686   9.489   3.882   2.015
 2616SOL    HW1 9687   9.483   3.977   2.003
 2616SOL    HW2 9688   9.490   3.847   1.926
 2617SOL     OW 9689   1.478   2.812   9.540
 2617SOL    HW1 9690   1.490   2.861   9.621
 2617SOL    HW2 9691   1.567   2.798   9.507
 2618SOL     OW 9692  14.199   6.571   6.944
 2618SOL    HW1 9693  14.125   6.596   7.000
 2618SOL    HW2 9694  14.176   6.608   6.858
 2619SOL     OW 9695   2.863  14.234   6.593
 2619SOL    HW1 9696   2.918  14.283   6.531
 2619SOL    HW2 9697   2.825  14.163   6.541
 2620SOL     OW 9698   4.410  12.624   9.897
 2620SOL    HW1 9699   4.500  12.615   9.929
 2620SOL    HW2 9700   4.419  12.659   9.809
 2621SOL     OW 9701  14.436  10.918   4.575
 2621SOL    HW1 9702  14.345  10.891   4.565
 2621SOL    HW2 9703  14.487  10.842   4.547
 2622SOL     OW 9704  14.104  14.018   7.251
 2622SOL    HW1 9705  14.121  14.036   7.158
 2622SOL    HW2 9706  14.191  14.008   7.289
 2623SOL     OW 9707   3.258   1.022  10.466
 2623SOL    HW1 9708   3.232   1.093  10.407
 2623SOL    HW2 9709   3.330   1.058  10.517
 2624SOL     OW 9710   0.825  13.061   4.311
 2624SOL    HW1 9711   0.840  13.067   4.217
 2624SOL    HW2 9712   0.876  13.133   4.348
 2625SOL     OW 9713   8.895   4.812   1.646
 2625SOL    HW1 9714   8.933   4.726   1.666
 2625SOL    HW2 9715   8.965   4.859   1.600
 2626SOL     OW 9716   2.137   2.236  14.071
 2626SOL    HW1 9717   2.138   2.294  14.147
 2626SOL    HW2 9718   2.187   2.282  14.004
 2627SOL     OW 9719   8.342   8.175   5.438
 2627SOL    HW1 9720   8.254   8.172   5.476
 2627SOL    HW2 9721   8.368   8.083   5.432
 2628SOL     OW 9722   0.930   0.776   4.068
 2628SOL    HW1 9723   0.908   0.831   4.144
 2628SOL    HW2 9724   0.846   0.749   4.032
 2629SOL     OW 9725   8.897   9.709  11.545
 2629SOL    HW1 9726   8.826   9.711  11.481
 2629SOL    HW2 9727   8.854   9.691  11.628
 2630SOL     OW 9728   2.022   3.467  12.143
 2630SOL    HW1 9729   2.116   3.452  12.139
 2630SOL    HW2 9730   2.013   3.552  12.186
 2631SOL     OW 9731   4.055  14.578   1.944
 2631SOL    HW1 9732   3.993  14.508   1.964
 2631SOL    HW2 9733   4.068  14.623   2.027
 2632SOL     OW 9734  12.435   1.821   2.883
 2632SOL    HW1 9735  12.449   1.916   2.886
 2632SOL    HW2 9736  12.342   1.811   2.860
 2633SOL     OW 9737   8.294  12.339   1.966
 2633SOL    HW1 9738   8.364  12.275   1.981
 2633SOL    HW2 9739   8.331  12.400   1.902
 2634SOL     OW 9740   4.583  12.633   8.419
 2634SOL    HW1 9741   4.653  12.571   8.398
 2634SOL    HW2 9742   4.590  12.645   8.513
 2635SOL     OW 9743   9.607   5.427   4.076
 2635SOL    HW1 9744   9.531   5.400   4.024
 2635SOL    HW2 9745   9.616   5.521   4.058
 2636SOL     OW 9746   1.149   1.728   1.453
 2636SOL    HW1 9747   1.186   1.789   1.517
 2636SOL    HW2 9748   1.204   1.650   1.461
 2637SOL     OW 9749   1.112   3.496   6.739
 2637SOL    HW1 9750   1.115   3.519   6.832
 2637SOL    HW2 9751   1.202   3.471   6.718
 2638SOL     OW 9752  11.707   9.339   8.421
 2638SOL    HW1 9753  11.701   9.422   8.373
 2638SOL    HW2 9754  11.657   9.277   8.367
 2639SOL     OW 9755   0.893   9.598   7.839
 2639SOL    HW1 9756   0.903   9.505   7.817
 2639SOL    HW2 9757   0.968   9.640   7.798
 2640SOL     OW 9758   5.113   0.725   9.277
 2640SOL    HW1 9759   5.027   0.699   9.243
 2640SOL    HW2 9760   5.126   0.670   9.354
 2641SOL     OW 9761   0.309   8.316   7.426
 2641SOL    HW1 9762   0.270   8.231   7.406
 2641SOL    HW2 9763   0.297   8.326   7.520
 2642SOL     OW 9764   9.142   7.725   9.721
 2642SOL    HW1 9765   9.217   7.756   9.670
 2642SOL    HW2 9766   9.180   7.686   9.799
 2643SOL     OW 9767   4.514   9.327   0.004
 2643SOL    HW1 9768   4.500   9.263  14.808
 2643SOL    HW2 9769   4.580   9.287   0.060
 2644SOL     OW 9770   0.775  14.794   8.244
 2644SOL    HW1 9771   0.684  14.772   8.266
 2644SOL    HW2 9772   0.768  14.869   8.185
 2645SOL     OW 9773   7.029   9.454   2.397
 2645SOL    HW1 9774   7.076   9.502   2.465
 2645SOL    HW2 9775   7.097   9.429   2.334
 2646SOL     OW 9776   8.528   9.407   9.656
 2646SOL    HW1 9777   8.504   9.485   9.607
 2646SOL    HW2 9778   8.584   9.439   9.727
 2647SOL     OW 9779   3.632   9.124   4.774
 2647SOL    HW1 9780   3.611   9.128   4.867
 2647SOL    HW2 9781   3.719   9.164   4.767
 2648SOL     OW 9782   0.553  14.540   4.417
 2648SOL    HW1 9783   0.561  14.580   4.330
 2648SOL    HW2 9784   0.640  14.504   4.434
 2649SOL     OW 9785   1.890   3.888  14.614
 2649SOL    HW1 9786   1.878   3.929  14.528
 2649SOL    HW2 9787   1.819   3.825  14.621
 2650SOL     OW 9788   3.605   5.714   1.353
 2650SOL    HW1 9789   3.589   5.624   1.325
 2650SOL    HW2 9790   3.562   5.768   1.288
 2651SOL     OW 9791  14.474   4.743  10.989
 2651SOL    HW1 9792  14.442   4.812  11.047
 2651SOL    HW2 9793  14.567   4.763  10.978
 2652SOL     OW 9794  13.387  14.591   9.603
 2652SOL    HW1 9795  13.449  14.542   9.657
 2652SOL    HW2 9796  13.330  14.635   9.666
 2653SOL     OW 9797  14.436  10.852   9.606
 2653SOL    HW1 9798  14.464  10.809   9.525
 2653SOL    HW2 9799  14.465  10.942   9.596
 2654SOL     OW 9800   2.501   1.077   9.387
 2654SOL    HW1 9801   2.458   1.100   9.304
 2654SOL    HW2 9802   2.577   1.025   9.361
 2655SOL     OW 9803   6.388   4.303   9.595
 2655SOL    HW1 9804   6.478   4.328   9.614
 2655SOL    HW2 9805   6.383   4.297   9.500
 2656SOL     OW 9806   3.785   7.756   6.797
 2656SOL    HW1 9807   3.878   7.768   6.781
 2656SOL    HW2 9808   3.763   7.819   6.865
 2657SOL     OW 9809   8.818   1.833   7.140
 2657SOL    HW1 9810   8.846   1.922   7.161
 2657SOL    HW2 9811   8.870   1.809   7.063
 2658SOL     OW 9812   1.281   0.976   7.947
 2658SOL    HW1 9813   1.372   0.957   7.972
 2658SOL    HW2 9814   1.231   0.901   7.978
 2659SOL     OW 9815  13.961   4.954  13.435
 2659SOL    HW1 9816  14.027   4.913  13.490
 2659SOL    HW2 9817  13.942   4.889  13.367
 2660SOL     OW 9818   9.795  12.738   2.315
 2660SOL    HW1 9819   9.785  12.707   2.405
 2660SOL    HW2 9820   9.705  12.754   2.285
 2661SOL     OW 9821  14.854   0.307   8.404
 2661SOL    HW1 9822  14.810   0.346   8.328
 2661SOL    HW2 9823  14.804   0.227   8.422
 2662SOL     OW 9824   5.557  13.504   3.431
 2662SOL    HW1 9825   5.481  13.502   3.490
 2662SOL    HW2 9826   5.529  13.453   3.356
 2663SOL     OW 9827   5.548   4.201  11.158
 2663SOL    HW1 9828   5.626   4.238  11.200
 2663SOL    HW2 9829   5.475   4.231  11.212
 2664SOL     OW 9830   2.917  12.820   3.594
 2664SOL    HW1 9831   2.852  12.878   3.557
 2664SOL    HW2 9832   2.954  12.868   3.669
 2665SOL     OW 9833   1.567   8.688  10.693
 2665SOL    HW1 9834   1.484   8.642  10.676
 2665SOL    HW2 9835   1.623   8.622  10.735
 2666SOL     OW 9836   3.136   5.253   8.122
 2666SOL    HW1 9837   3.068   5.241   8.188
 2666SOL    HW2 9838   3.189   5.174   8.127
 2667SOL     OW 9839  11.080   9.689   1.030
 2667SOL    HW1 9840  11.116   9.766   0.985
 2667SOL    HW2 9841  11.141   9.673   1.102
 2668SOL     OW 9842  13.889   7.903   2.437
 2668SOL    HW1 9843  13.952   7.831   2.425
 2668SOL    HW2 9844  13.944   7.981   2.442
 2669SOL     OW 9845   1.490   3.201   8.988
 2669SOL    HW1 9846   1.447   3.120   8.960
 2669SOL    HW2 9847   1.501   3.191   9.083
 2670SOL     OW 9848   0.585   5.487  11.915
 2670SOL    HW1 9849   0.680   5.486  11.907
 2670SOL    HW2 9850   0.556   5.413  11.861
 2671SOL     OW 9851  13.913   4.110   0.319
 2671SOL    HW1 9852  14.006   4.129   0.315
 2671SOL    HW2 9853  13.880   4.164   0.391
 2672SOL     OW 9854   9.025   0.598   6.886
 2672SOL    HW1 9855   8.932   0.617   6.895
 2672SOL    HW2 9856   9.061   0.673   6.839
 2673SOL     OW 9857   2.986   5.277   0.535
 2673SOL    HW1 9858   2.915   5.314   0.483
 2673SOL    HW2 9859   3.040   5.229   0.471
 2674SOL     OW 9860   8.058  11.728  13.308
 2674SOL    HW1 9861   8.034  11.643  13.271
 2674SOL    HW2 9862   8.082  11.781  13.232
 2675SOL     OW 9863   7.838   7.451   7.628
 2675SOL    HW1 9864   7.880   7.396   7.695
 2675SOL    HW2 9865   7.883   7.429   7.547
 2676SOL     OW 9866   7.997   3.193   3.776
 2676SOL    HW1 9867   8.030   3.163   3.692
 2676SOL    HW2 9868   8.074   3.194   3.833
 2677SOL     OW 9869  12.834   4.004  11.857
 2677SOL    HW1 9870  12.839   3.993  11.952
 2677SOL    HW2 9871  12.775   3.935  11.827
 2678SOL     OW 9872   1.507  10.955   3.956
 2678SOL    HW1 9873   1.464  10.890   4.011
 2678SOL    HW2 9874   1.490  11.038   4.000
 2679SOL     OW 9875   8.489  13.813  14.350
 2679SOL    HW1 9876   8.473  13.793  14.258
 2679SOL    HW2 9877   8.532  13.735  14.385
 2680SOL     OW 9878   6.122   1.394   7.989
 2680SOL    HW1 9879   6.121   1.484   8.020
 2680SOL    HW2 9880   6.214   1.372   7.980
 2681SOL     OW 9881   6.251   7.812   8.788
 2681SOL    HW1 9882   6.289   7.858   8.863
 2681SOL    HW2 9883   6.252   7.876   8.717
 2682SOL     OW 9884  13.091   0.976  11.579
 2682SOL    HW1 9885  13.173   0.971  11.627
 2682SOL    HW2 9886  13.031   0.919  11.628
 2683SOL     OW 9887   2.144  12.348  10.742
 2683SOL    HW1 9888   2.158  12.389  10.656
 2683SOL    HW2 9889   2.123  12.256  10.721
 2684SOL     OW 9890   2.888   3.744   1.906
 2684SOL    HW1 9891   2.894   3.812   1.973
 2684SOL    HW2 9892   2.842   3.672   1.949
 2685SOL     OW 9893   3.321   0.735   2.772
 2685SOL    HW1 9894   3.290   0.695   2.853
 2685SOL    HW2 9895   3.388   0.675   2.739
 2686SOL     OW 9896   1.021  10.079   8.429
 2686SOL    HW1 9897   0.960  10.153   8.423
 2686SOL    HW2 9898   1.097  10.106   8.377
 2687SOL     OW 9899  14.324  11.279  11.691
 2687SOL    HW1 9900  14.392  11.314  11.634
 2687SOL    HW2 9901  14.253  11.256  11.632
 2688SOL     OW 9902   3.170  11.248   9.494
 2688SOL    HW1 9903   3.264  11.259   9.510
 2688SOL    HW2 9904   3.165  11.204   9.410
 2689SOL     OW 9905   1.951  14.101  10.092
 2689SOL    HW1 9906   1.935  14.060  10.008
 2689SOL    HW2 9907   1.883  14.065  10.149
 2690SOL     OW 9908   9.280   2.403  13.069
 2690SOL    HW1 9909   9.299   2.416  13.162
 2690SOL    HW2 9910   9.342   2.335  13.041
 2691SOL     OW 9911  10.050   1.469   5.198
 2691SOL    HW1 9912  10.086   1.512   5.120
 2691SOL    HW2 9913  10.094   1.514   5.271
 2692SOL     OW 9914  11.030   2.051   4.438
 2692SOL    HW1 9915  11.111   2.005   4.461
 2692SOL    HW2 9916  11.041   2.138   4.475
 2693SOL     OW 9917  14.134   8.277   5.833
 2693SOL    HW1 9918  14.065   8.221   5.797
 2693SOL    HW2 9919  14.128   8.358   5.782
 2694SOL     OW 9920   4.828   1.597   9.116
 2694SOL    HW1 9921   4.921   1.590   9.139
 2694SOL    HW2 9922   4.790   1.649   9.187
 2695SOL     OW 9923  13.762   7.585   4.919
 2695SOL    HW1 9924  13.829   7.518   4.919
 2695SOL    HW2 9925  13.779   7.637   4.841
 2696SOL     OW 9926   1.318  14.102   5.162
 2696SOL    HW1 9927   1.382  14.134   5.225
 2696SOL    HW2 9928   1.234  14.138   5.192
 2697SOL     OW 9929  11.059  14.678   7.467
 2697SOL    HW1 9930  10.989  14.644   7.411
 2697SOL    HW2 9931  11.139  14.639   7.431
 2698SOL     OW 9932   5.201   7.337   5.029
 2698SOL    HW1 9933   5.254   7.416   5.036
 2698SOL    HW2 9934   5.173   7.336   4.937
 2699SOL     OW 9935   9.058   4.121   1.210
 2699SOL    HW1 9936   8.994   4.123   1.139
 2699SOL    HW2 9937   9.125   4.059   1.181
 2700SOL     OW 9938  11.815   5.967   5.761
 2700SOL    HW1 9939  11.783   6.012   5.839
 2700SOL    HW2 9940  11.771   5.882   5.763
 2701SOL     OW 9941   1.340   9.742  10.408
 2701SOL    HW1 9942   1.369   9.654  10.384
 2701SOL    HW2 9943   1.246   9.732  10.425
 2702SOL     OW 9944   6.260   2.666   0.416
 2702SOL    HW1 9945   6.309   2.656   0.334
 2702SOL    HW2 9946   6.309   2.613   0.479
 2703SOL     OW 9947   8.225   2.254  11.876
 2703SOL    HW1 9948   8.267   2.315  11.937
 2703SOL    HW2 9949   8.164   2.205  11.930
 2704SOL     OW 9950   2.569  11.626   4.722
 2704SOL    HW1 9951   2.602  11.676   4.796
 2704SOL    HW2 9952   2.521  11.553   4.761
 2705SOL     OW 9953   2.864   4.310   8.055
 2705SOL    HW1 9954   2.815   4.244   8.006
 2705SOL    HW2 9955   2.850   4.391   8.006
 2706SOL     OW 9956   8.299   2.395   4.137
 2706SOL    HW1 9957   8.244   2.346   4.198
 2706SOL    HW2 9958   8.334   2.468   4.189
 2707SOL     OW 9959   3.933  12.291   8.609
 2707SOL    HW1 9960   3.916  12.305   8.516
 2707SOL    HW2 9961   4.024  12.263   8.613
 2708SOL     OW 9962   7.283   3.443   0.881
 2708SOL    HW1 9963   7.371   3.463   0.913
 2708SOL    HW2 9964   7.259   3.518   0.827
 2709SOL     OW 9965  11.025   8.211   4.997
 2709SOL    HW1 9966  11.012   8.132   5.050
 2709SOL    HW2 9967  11.120   8.217   4.985
 2710SOL     OW 9968   9.253   8.492  13.219
 2710SOL    HW1 9969   9.213   8.417  13.174
 2710SOL    HW2 9970   9.226   8.483  13.310
 2711SOL     OW 9971   3.065   9.090   0.563
 2711SOL    HW1 9972   3.058   9.167   0.507
 2711SOL    HW2 9973   3.149   9.051   0.539
 2712SOL     OW 9974   3.442   4.195   3.146
 2712SOL    HW1 9975   3.414   4.109   3.177
 2712SOL    HW2 9976   3.451   4.247   3.226
 2713SOL     OW 9977  12.386  11.875  12.518
 2713SOL    HW1 9978  12.317  11.837  12.572
 2713SOL    HW2 9979  12.348  11.880  12.430
 2714SOL     OW 9980  11.114   3.199   1.851
 2714SOL    HW1 9981  11.113   3.116   1.898
 2714SOL    HW2 9982  11.205   3.212   1.826
 2715SOL     OW 9983   1.036   1.862   8.540
 2715SOL    HW1 9984   1.122   1.840   8.577
 2715SOL    HW2 9985   0.974   1.807   8.587
 2716SOL     OW 9986   7.438   3.805  12.981
 2716SOL    HW1 9987   7.455   3.894  12.951
 2716SOL    HW2 9988   7.520   3.758  12.968
 2717SOL     OW 9989   7.628   3.604  12.928
 2717SOL    HW1 9990   7.704   3.584  12.982
 2717SOL    HW2 9991   7.568   3.531  12.943
 2718SOL     OW 9992  12.621  14.840   2.713
 2718SOL    HW1 9993  12.536  14.843   2.756
 2718SOL    HW2 9994  12.680  14.803   2.778
 2719SOL     OW 9995   5.852   4.176   5.061
 2719SOL    HW1 9996   5.800   4.132   5.128
 2719SOL    HW2 9997   5.793   4.243   5.026
 2720SOL     OW 9998   5.297   2.492  14.081
 2720SOL    HW1 9999   5.316   2.404  14.051
 2720SOL    HW210000   5.355   2.549  14.030
 2721SOL     OW10001  11.830   6.369   1.234
 2721SOL    HW110002  11.812   6.315   1.310
 2721SOL    HW210003  11.797   6.318   1.160
 2722SOL     OW10004  12.750   1.015   7.502
 2722SOL    HW110005  12.748   1.102   7.462
 2722SOL    HW210006  12.798   1.027   7.584
 2723SOL     OW10007  10.269   6.918   5.613
 2723SOL    HW110008  10.210   6.845   5.630
 2723SOL    HW210009  10.216   6.996   5.631
 2724SOL     OW10010   8.002  10.486   9.192
 2724SOL    HW110011   7.934  10.533   9.143
 2724SOL    HW210012   7.981  10.394   9.179
 2725SOL     OW10013   5.933  12.813   2.010
 2725SOL    HW110014   5.853  12.866   2.020
 2725SOL    HW210015   6.002  12.868   2.047
 2726SOL     OW10016   1.090   7.877   9.395
 2726SOL    HW110017   1.018   7.823   9.363
 2726SOL    HW210018   1.088   7.955   9.339
 2727SOL     OW10019   7.847  12.577  14.201
 2727SOL    HW110020   7.941  12.593  14.191
 2727SOL    HW210021   7.816  12.650  14.255
 2728SOL     OW10022  12.188   8.316   5.342
 2728SOL    HW110023  12.138   8.377   5.395
 2728SOL    HW210024  12.256   8.369   5.300
 2729SOL     OW10025  10.456   1.804   6.424
 2729SOL    HW110026  10.380   1.815   6.366
 2729SOL    HW210027  10.497   1.890   6.427
 2730SOL     OW10028   6.478  10.733   6.748
 2730SOL    HW110029   6.563  10.692   6.761
 2730SOL    HW210030   6.436  10.730   6.834
 2731SOL     OW10031   2.308   6.033   5.759
 2731SOL    HW110032   2.336   6.120   5.731
 2731SOL    HW210033   2.228   6.016   5.710
 2732SOL     OW10034   7.111  13.380   3.753
 2732SOL    HW110035   7.139  13.455   3.806
 2732SOL    HW210036   7.054  13.417   3.687
 2733SOL     OW10037  14.200   8.667   3.972
 2733SOL    HW110038  14.270   8.603   3.959
 2733SOL    HW210039  14.136   8.621   4.026
 2734SOL     OW10040  12.845   4.927  13.137
 2734SOL    HW110041  12.890   4.924  13.053
 2734SOL    HW210042  12.860   4.841  13.176
 2735SOL     OW10043   4.079   6.318   9.724
 2735SOL    HW110044   4.084   6.311   9.628
 2735SOL    HW210045   3.987   6.336   9.742
 2736SOL     OW10046   9.554   6.184  13.108
 2736SOL    HW110047   9.466   6.187  13.145
 2736SOL    HW210048   9.563   6.267  13.061
 2737SOL     OW10049  10.348   7.012   4.898
 2737SOL    HW110050  10.425   7.034   4.951
 2737SOL    HW210051  10.307   6.939   4.944
 2738SOL     OW10052  11.681   6.311  14.214
 2738SOL    HW110053  11.613   6.365  14.254
 2738SOL    HW210054  11.639   6.226  14.200
 2739SOL     OW10055  12.232  10.432   0.559
 2739SOL    HW110056  12.255  10.347   0.522
 2739SOL    HW210057  12.309  10.458   0.609
 2740SOL     OW10058  13.837  10.434  13.032
 2740SOL    HW110059  13.794  10.458  13.114
 2740SOL    HW210060  13.920  10.394  13.059
 2741SOL     OW10061   8.948  12.782   4.826
 2741SOL    HW110062   8.973  12.729   4.901
 2741SOL    HW210063   8.866  12.825   4.852
 2742SOL     OW10064   2.049   0.681  12.773
 2742SOL    HW110065   2.091   0.734  12.705
 2742SOL    HW210066   2.054   0.735  12.852
 2743SOL     OW10067  10.412   3.785   7.840
 2743SOL    HW110068  10.455   3.762   7.758
 2743SOL    HW210069  10.359   3.862   7.819
 2744SOL     OW10070   6.914  14.735   0.686
 2744SOL    HW110071   6.857  14.721   0.761
 2744SOL    HW210072   6.935  14.829   0.689
 2745SOL     OW10073   3.943  14.761   3.325
 2745SOL    HW110074   4.008  14.691   3.334
 2745SOL    HW210075   3.937  14.776   3.230
 2746SOL     OW10076   4.496  11.244   5.331
 2746SOL    HW110077   4.445  11.294   5.267
 2746SOL    HW210078   4.558  11.307   5.367
 2747SOL     OW10079   4.335   8.683   6.008
 2747SOL    HW110080   4.366   8.770   6.030
 2747SOL    HW210081   4.376   8.625   6.072
 2748SOL     OW10082   4.304  13.920   0.111
 2748SOL    HW110083   4.225  13.913   0.057
 2748SOL    HW210084   4.299  13.845   0.170
 2749SOL     OW10085  11.145   9.591   4.198
 2749SOL    HW110086  11.160   9.517   4.140
 2749SOL    HW210087  11.091   9.652   4.147
 2750SOL     OW10088  13.863  13.490   0.512
 2750SOL    HW110089  13.903  13.522   0.432
 2750SOL    HW210090  13.833  13.569   0.557
 2751SOL     OW10091   3.991   0.179   5.698
 2751SOL    HW110092   3.997   0.169   5.603
 2751SOL    HW210093   3.987   0.274   5.712
 2752SOL     OW10094   4.124  13.577   6.635
 2752SOL    HW110095   4.190  13.573   6.704
 2752SOL    HW210096   4.051  13.624   6.674
 2753SOL     OW10097   3.028   3.235  14.133
 2753SOL    HW110098   3.093   3.283  14.082
 2753SOL    HW210099   3.031   3.146  14.097
 2754SOL     OW10100   2.750  13.121  11.358
 2754SOL    HW110101   2.717  13.147  11.272
 2754SOL    HW210102   2.763  13.203  11.405
 2755SOL     OW10103   3.331   5.883   6.130
 2755SOL    HW110104   3.397   5.879   6.199
 2755SOL    HW210105   3.374   5.928   6.058
 2756SOL     OW10106  13.275  13.233   3.020
 2756SOL    HW110107  13.333  13.258   2.948
 2756SOL    HW210108  13.199  13.193   2.978
 2757SOL     OW10109   8.595  12.188   5.517
 2757SOL    HW110110   8.629  12.099   5.505
 2757SOL    HW210111   8.554  12.208   5.433
 2758SOL     OW10112   5.228   8.332   0.857
 2758SOL    HW110113   5.158   8.325   0.922
 2758SOL    HW210114   5.268   8.245   0.855
 2759SOL     OW10115  12.100   8.010   4.631
 2759SOL    HW110116  12.109   8.026   4.725
 2759SOL    HW210117  12.109   8.097   4.592
 2760SOL     OW10118   9.715   6.476   0.042
 2760SOL    HW110119   9.718   6.544   0.110
 2760SOL    HW210120   9.742   6.396   0.087
 2761SOL     OW10121   0.284   1.198   3.399
 2761SOL    HW110122   0.342   1.134   3.357
 2761SOL    HW210123   0.197   1.160   3.391
 2762SOL     OW10124  11.629   7.932   1.124
 2762SOL    HW110125  11.619   7.844   1.159
 2762SOL    HW210126  11.723   7.940   1.106
 2763SOL     OW10127   6.152   5.701   5.004
 2763SOL    HW110128   6.126   5.761   5.074
 2763SOL    HW210129   6.247   5.692   5.013
 2764SOL     OW10130  14.116  10.933   8.937
 2764SOL    HW110131  14.138  11.021   8.969
 2764SOL    HW210132  14.186  10.877   8.971
 2765SOL     OW10133  14.354   6.317   3.663
 2765SOL    HW110134  14.344   6.271   3.580
 2765SOL    HW210135  14.271   6.305   3.708
 2766SOL     OW10136  11.166   6.135   8.782
 2766SOL    HW110137  11.208   6.077   8.719
 2766SOL    HW210138  11.127   6.205   8.728
 2767SOL     OW10139   9.066   2.166   6.435
 2767SOL    HW110140   9.091   2.185   6.345
 2767SOL    HW210141   8.974   2.141   6.429
 2768SOL     OW10142  13.395   8.754   2.787
 2768SOL    HW110143  13.454   8.802   2.845
 2768SOL    HW210144  13.338   8.822   2.750
 2769SOL     OW10145   8.000  12.976   6.591
 2769SOL    HW110146   7.968  13.040   6.528
 2769SOL    HW210147   7.955  12.997   6.673
 2770SOL     OW10148   6.137   0.761   8.841
 2770SOL    HW110149   6.136   0.842   8.789
 2770SOL    HW210150   6.048   0.752   8.872
 2771SOL     OW10151  10.878   9.699   2.888
 2771SOL    HW110152  10.943   9.641   2.927
 2771SOL    HW210153  10.924   9.745   2.819
 2772SOL     OW10154   4.715   3.165   9.515
 2772SOL    HW110155   4.761   3.244   9.543
 2772SOL    HW210156   4.759   3.094   9.562
 2773SOL     OW10157   8.636   4.592   1.851
 2773SOL    HW110158   8.652   4.628   1.938
 2773SOL    HW210159   8.541   4.595   1.841
 2774SOL     OW10160  13.988   3.456  10.302
 2774SOL    HW110161  13.935   3.529  10.270
 2774SOL    HW210162  14.055   3.443  10.235
 2775SOL     OW10163   9.283   0.101   5.866
 2775SOL    HW110164   9.221   0.041   5.824
 2775SOL    HW210165   9.255   0.188   5.838
 2776SOL     OW10166   8.581  11.889  13.960
 2776SOL    HW110167   8.567  11.913  14.052
 2776SOL    HW210168   8.590  11.973  13.915
 2777SOL     OW10169   7.230  10.146  11.504
 2777SOL    HW110170   7.249  10.143  11.598
 2777SOL    HW210171   7.298  10.092  11.465
 2778SOL     OW10172   0.328  14.819  14.381
 2778SOL    HW110173   0.423  14.825  14.380
 2778SOL    HW210174   0.298   0.028  14.345
 2779SOL     OW10175   8.856   7.198   0.494
 2779SOL    HW110176   8.903   7.182   0.412
 2779SOL    HW210177   8.924   7.195   0.561
 2780SOL     OW10178   3.095  11.569   2.886
 2780SOL    HW110179   3.049  11.504   2.833
 2780SOL    HW210180   3.186  11.560   2.861
 2781SOL     OW10181  12.925  14.659   7.564
 2781SOL    HW110182  12.893  14.569   7.564
 2781SOL    HW210183  12.885  14.699   7.487
 2782SOL     OW10184   5.367   0.505   1.771
 2782SOL    HW110185   5.297   0.476   1.829
 2782SOL    HW210186   5.394   0.427   1.723
 2783SOL     OW10187  14.535  10.251   3.860
 2783SOL    HW110188  14.597  10.320   3.882
 2783SOL    HW210189  14.589  10.178   3.830
 2784SOL     OW10190  14.687   4.999   6.261
 2784SOL    HW110191  14.721   5.047   6.186
 2784SOL    HW210192  14.615   4.947   6.225
 2785SOL     OW10193   2.723   9.796   6.948
 2785SOL    HW110194   2.765   9.719   6.910
 2785SOL    HW210195   2.724   9.780   7.042
 2786SOL     OW10196   6.037   6.968   6.429
 2786SOL    HW110197   6.087   6.928   6.358
 2786SOL    HW210198   5.990   6.895   6.469
 2787SOL     OW10199  14.434  12.462   5.259
 2787SOL    HW110200  14.354  12.428   5.217
 2787SOL    HW210201  14.469  12.525   5.196
 2788SOL     OW10202  13.668   7.892   3.883
 2788SOL    HW110203  13.598   7.914   3.823
 2788SOL    HW210204  13.643   7.807   3.919
 2789SOL     OW10205  12.501   1.366   1.156
 2789SOL    HW110206  12.424   1.384   1.102
 2789SOL    HW210207  12.574   1.365   1.094
 2790SOL     OW10208   6.238   5.258   7.198
 2790SOL    HW110209   6.190   5.303   7.128
 2790SOL    HW210210   6.303   5.205   7.151
 2791SOL     OW10211   7.281   3.458  14.155
 2791SOL    HW110212   7.362   3.491  14.117
 2791SOL    HW210213   7.232   3.537  14.179
 2792SOL     OW10214  12.143   7.093  10.486
 2792SOL    HW110215  12.141   7.165  10.550
 2792SOL    HW210216  12.148   7.014  10.540
 2793SOL     OW10217   3.272   5.839  12.493
 2793SOL    HW110218   3.269   5.764  12.433
 2793SOL    HW210219   3.210   5.902  12.456
 2794SOL     OW10220   6.054   1.704  11.626
 2794SOL    HW110221   6.001   1.757  11.685
 2794SOL    HW210222   6.023   1.726  11.539
 2795SOL     OW10223   7.566   2.883   9.067
 2795SOL    HW110224   7.528   2.844   9.146
 2795SOL    HW210225   7.492   2.917   9.018
 2796SOL     OW10226   3.735  14.622   7.244
 2796SOL    HW110227   3.762  14.616   7.152
 2796SOL    HW210228   3.684  14.542   7.259
 2797SOL     OW10229   6.974  14.392   9.924
 2797SOL    HW110230   7.026  14.311   9.920
 2797SOL    HW210231   7.012  14.441   9.997
 2798SOL     OW10232   5.402   3.052   3.977
 2798SOL    HW110233   5.420   3.141   4.006
 2798SOL    HW210234   5.344   3.016   4.044
 2799SOL     OW10235   6.549  13.476  11.373
 2799SOL    HW110236   6.528  13.413  11.441
 2799SOL    HW210237   6.562  13.559  11.419
 2800SOL     OW10238   1.801  13.492   0.509
 2800SOL    HW110239   1.847  13.552   0.450
 2800SOL    HW210240   1.863  13.475   0.580
 2801SOL     OW10241  13.792   1.086   0.205
 2801SOL    HW110242  13.784   1.148   0.278
 2801SOL    HW210243  13.776   1.001   0.245
 2802SOL     OW10244   1.334  10.098   3.302
 2802SOL    HW110245   1.384  10.158   3.246
 2802SOL    HW210246   1.399  10.059   3.359
 2803SOL     OW10247   2.476  11.051  10.340
 2803SOL    HW110248   2.553  11.043  10.284
 2803SOL    HW210249   2.429  11.127  10.306
 2804SOL     OW10250   6.074  12.408   9.841
 2804SOL    HW110251   6.134  12.434   9.911
 2804SOL    HW210252   6.132  12.370   9.774
 2805SOL     OW10253   9.086  12.204   8.693
 2805SOL    HW110254   9.082  12.110   8.710
 2805SOL    HW210255   9.039  12.215   8.610
 2806SOL     OW10256  10.930   3.107   4.616
 2806SOL    HW110257  10.839   3.127   4.595
 2806SOL    HW210258  10.925   3.030   4.673
 2807SOL     OW10259  12.485   5.763   1.708
 2807SOL    HW110260  12.474   5.854   1.734
 2807SOL    HW210261  12.402   5.721   1.730
 2808SOL     OW10262  14.007  13.016   7.670
 2808SOL    HW110263  14.009  12.946   7.735
 2808SOL    HW210264  14.007  13.097   7.721
 2809SOL     OW10265  12.315   0.107  14.326
 2809SOL    HW110266  12.394   0.054  14.321
 2809SOL    HW210267  12.257   0.060  14.385
 2810SOL     OW10268   4.806   8.828  11.792
 2810SOL    HW110269   4.722   8.795  11.759
 2810SOL    HW210270   4.834   8.763  11.856
 2811SOL     OW10271   4.285   8.591  11.555
 2811SOL    HW110272   4.353   8.525  11.566
 2811SOL    HW210273   4.234   8.587  11.636
 2812SOL     OW10274  13.669   7.227   4.998
 2812SOL    HW110275  13.599   7.284   5.030
 2812SOL    HW210276  13.676   7.158   5.065
 2813SOL     OW10277   3.184   5.401   8.507
 2813SOL    HW110278   3.130   5.473   8.539
 2813SOL    HW210279   3.122   5.330   8.489
 2814SOL     OW10280   5.521   6.683  11.419
 2814SOL    HW110281   5.469   6.660  11.496
 2814SOL    HW210282   5.525   6.602  11.368
 2815SOL     OW10283   1.016   1.428  11.416
 2815SOL    HW110284   1.016   1.375  11.495
 2815SOL    HW210285   1.063   1.508  11.442
 2816SOL     OW10286   8.721  13.553   0.036
 2816SOL    HW110287   8.683  13.635   0.002
 2816SOL    HW210288   8.791  13.581   0.094
 2817SOL     OW10289   4.645   3.290   5.174
 2817SOL    HW110290   4.558   3.328   5.186
 2817SOL    HW210291   4.670   3.261   5.262
 2818SOL     OW10292  14.380  12.422   6.984
 2818SOL    HW110293  14.321  12.439   7.058
 2818SOL    HW210294  14.323  12.387   6.915
 2819SOL     OW10295   3.031  13.290   8.550
 2819SOL    HW110296   3.119  13.320   8.528
 2819SOL    HW210297   3.007  13.229   8.481
 2820SOL     OW10298  12.233   1.961   8.081
 2820SOL    HW110299  12.212   2.051   8.056
 2820SOL    HW210300  12.301   1.970   8.147
 2821SOL     OW10301   5.614  11.155   7.918
 2821SOL    HW110302   5.606  11.079   7.975
 2821SOL    HW210303   5.709  11.167   7.909
 2822SOL     OW10304   9.082  13.194   5.130
 2822SOL    HW110305   9.139  13.237   5.066
 2822SOL    HW210306   9.013  13.259   5.147
 2823SOL     OW10307   3.750   5.724   3.202
 2823SOL    HW110308   3.822   5.786   3.194
 2823SOL    HW210309   3.675   5.778   3.228
 2824SOL     OW10310  12.830   8.125   1.627
 2824SOL    HW110311  12.858   8.192   1.690
 2824SOL    HW210312  12.904   8.064   1.623
 2825SOL     OW10313   3.073  11.662  11.117
 2825SOL    HW110314   3.117  11.627  11.194
 2825SOL    HW210315   2.980  11.663  11.142
 2826SOL     OW10316   2.761   2.672   5.973
 2826SOL    HW110317   2.850   2.679   6.007
 2826SOL    HW210318   2.748   2.752   5.923
 2827SOL     OW10319   7.867   0.740   1.735
 2827SOL    HW110320   7.898   0.652   1.712
 2827SOL    HW210321   7.773   0.730   1.747
 2828SOL     OW10322   2.625  14.361   8.846
 2828SOL    HW110323   2.610  14.451   8.816
 2828SOL    HW210324   2.713  14.340   8.815
 2829SOL     OW10325   6.768   3.905   6.798
 2829SOL    HW110326   6.772   3.904   6.702
 2829SOL    HW210327   6.693   3.961   6.818
 2830SOL     OW10328   1.884   7.858   9.206
 2830SOL    HW110329   1.795   7.875   9.238
 2830SOL    HW210330   1.936   7.931   9.237
 2831SOL     OW10331  10.822   6.679   5.115
 2831SOL    HW110332  10.782   6.697   5.029
 2831SOL    HW210333  10.913   6.708   5.106
 2832SOL     OW10334  11.502   5.055   6.171
 2832SOL    HW110335  11.434   5.022   6.113
 2832SOL    HW210336  11.573   4.992   6.163
 2833SOL     OW10337  14.842   8.728  10.895
 2833SOL    HW110338   0.043   8.673  10.915
 2833SOL    HW210339  14.787   8.674  10.838
 2834SOL     OW10340   6.221   0.577  13.355
 2834SOL    HW110341   6.129   0.601  13.371
 2834SOL    HW210342   6.239   0.509  13.420
 2835SOL     OW10343  11.729  11.239   1.753
 2835SOL    HW110344  11.639  11.208   1.742
 2835SOL    HW210345  11.783  11.161   1.742
 2836SOL     OW10346   5.367   2.203  13.371
 2836SOL    HW110347   5.406   2.270  13.316
 2836SOL    HW210348   5.307   2.156  13.313
 2837SOL     OW10349  10.405  11.247   2.687
 2837SOL    HW110350  10.481  11.229   2.632
 2837SOL    HW210351  10.356  11.164   2.688
 2838SOL     OW10352   4.792   6.782   1.918
 2838SOL    HW110353   4.718   6.764   1.976
 2838SOL    HW210354   4.778   6.724   1.844
 2839SOL     OW10355  12.262   8.254   3.887
 2839SOL    HW110356  12.278   8.252   3.793
 2839SOL    HW210357  12.302   8.173   3.919
 2840SOL     OW10358  10.179  11.847   0.948
 2840SOL    HW110359  10.173  11.936   0.983
 2840SOL    HW210360  10.152  11.791   1.020
 2841SOL     OW10361   9.626   0.584   2.825
 2841SOL    HW110362   9.679   0.643   2.771
 2841SOL    HW210363   9.537   0.619   2.820
 2842SOL     OW10364  10.386  12.843   9.275
 2842SOL    HW110365  10.340  12.867   9.195
 2842SOL    HW210366  10.456  12.785   9.246
 2843SOL     OW10367   7.053   0.565   2.607
 2843SOL    HW110368   7.131   0.589   2.657
 2843SOL    HW210369   6.981   0.574   2.670
 2844SOL     OW10370  12.772   9.611  14.082
 2844SOL    HW110371  12.861   9.611  14.046
 2844SOL    HW210372  12.728   9.539  14.038
 2845SOL     OW10373   0.458   8.896   0.450
 2845SOL    HW110374   0.508   8.815   0.465
 2845SOL    HW210375   0.521   8.966   0.468
 2846SOL     OW10376   2.795   8.183   6.510
 2846SOL    HW110377   2.758   8.251   6.454
 2846SOL    HW210378   2.859   8.229   6.565
 2847SOL     OW10379   3.200   5.118   9.748
 2847SOL    HW110380   3.258   5.047   9.721
 2847SOL    HW210381   3.258   5.181   9.792
 2848SOL     OW10382   2.855   3.165  13.368
 2848SOL    HW110383   2.841   3.079  13.407
 2848SOL    HW210384   2.779   3.216  13.396
 2849SOL     OW10385  13.720   2.727   0.953
 2849SOL    HW110386  13.629   2.720   0.922
 2849SOL    HW210387  13.715   2.786   1.028
 2850SOL     OW10388  10.562  14.136   6.462
 2850SOL    HW110389  10.526  14.224   6.448
 2850SOL    HW210390  10.581  14.132   6.556
 2851SOL     OW10391   4.033   4.833   7.281
 2851SOL    HW110392   4.061   4.757   7.230
 2851SOL    HW210393   4.092   4.903   7.253
 2852SOL     OW10394  10.024   1.317   7.909
 2852SOL    HW110395  10.065   1.402   7.923
 2852SOL    HW210396  10.083   1.254   7.949
 2853SOL     OW10397  12.082   9.158   9.871
 2853SOL    HW110398  12.124   9.198   9.946
 2853SOL    HW210399  12.144   9.170   9.799
 2854SOL     OW10400   5.908  14.768   2.275
 2854SOL    HW110401   5.989  14.764   2.326
 2854SOL    HW210402   5.881  14.677   2.266
 2855SOL     OW10403  14.415   5.545   5.403
 2855SOL    HW110404  14.376   5.630   5.422
 2855SOL    HW210405  14.347   5.498   5.355
 2856SOL     OW10406   7.994   1.925   4.275
 2856SOL    HW110407   7.928   1.923   4.344
 2856SOL    HW210408   7.951   1.970   4.202
 2857SOL     OW10409  14.118   1.892   7.489
 2857SOL    HW110410  14.149   1.983   7.486
 2857SOL    HW210411  14.057   1.890   7.563
 2858SOL     OW10412  13.616  10.769   0.344
 2858SOL    HW110413  13.630  10.765   0.250
 2858SOL    HW210414  13.580  10.856   0.359
 2859SOL     OW10415   4.770   8.189   3.904
 2859SOL    HW110416   4.734   8.269   3.943
 2859SOL    HW210417   4.774   8.127   3.977
 2860SOL     OW10418   6.815   8.533  12.552
 2860SOL    HW110419   6.890   8.532  12.493
 2860SOL    HW210420   6.743   8.495  12.501
 2861SOL     OW10421  12.774   8.869   5.185
 2861SOL    HW110422  12.725   8.787   5.185
 2861SOL    HW210423  12.850   8.851   5.129
 2862SOL     OW10424  14.743  10.119   8.753
 2862SOL    HW110425  14.729  10.076   8.669
 2862SOL    HW210426  14.792  10.199   8.730
 2863SOL     OW10427   3.698  12.778   7.762
 2863SOL    HW110428   3.649  12.701   7.791
 2863SOL    HW210429   3.653  12.852   7.801
 2864SOL     OW10430  12.261   9.934   8.437
 2864SOL    HW110431  12.215   9.853   8.413
 2864SOL    HW210432  12.201  10.004   8.413
 2865SOL     OW10433   4.081  10.625  14.223
 2865SOL    HW110434   4.016  10.685  14.260
 2865SOL    HW210435   4.114  10.576  14.298
 2866SOL     OW10436  10.468   2.546   0.906
 2866SOL    HW110437  10.512   2.591   0.834
 2866SOL    HW210438  10.375   2.548   0.883
 2867SOL     OW10439  12.921   5.763   4.185
 2867SOL    HW110440  12.973   5.683   4.192
 2867SOL    HW210441  12.852   5.742   4.122
 2868SOL     OW10442   0.760  12.938   1.087
 2868SOL    HW110443   0.710  13.018   1.076
 2868SOL    HW210444   0.831  12.945   1.023
 2869SOL     OW10445  11.614  11.025  14.725
 2869SOL    HW110446  11.672  11.060  14.793
 2869SOL    HW210447  11.644  10.935  14.712
 2870SOL     OW10448  14.190   3.137  12.482
 2870SOL    HW110449  14.272   3.173  12.447
 2870SOL    HW210450  14.160   3.202  12.544
 2871SOL     OW10451   0.987   8.861   5.213
 2871SOL    HW110452   1.068   8.812   5.230
 2871SOL    HW210453   0.938   8.806   5.153
 2872SOL     OW10454  13.276   7.297  11.158
 2872SOL    HW110455  13.303   7.215  11.115
 2872SOL    HW210456  13.346   7.359  11.137
 2873SOL     OW10457   1.537  10.683   8.613
 2873SOL    HW110458   1.621  10.684   8.658
 2873SOL    HW210459   1.559  10.693   8.521
 2874SOL     OW10460   5.409   5.300  12.971
 2874SOL    HW110461   5.467   5.320  13.045
 2874SOL    HW210462   5.330   5.352  12.988
 2875SOL     OW10463   5.235   8.388   7.379
 2875SOL    HW110464   5.309   8.390   7.440
 2875SOL    HW210465   5.201   8.477   7.380
 2876SOL     OW10466   2.529   2.937   7.319
 2876SOL    HW110467   2.579   2.967   7.244
 2876SOL    HW210468   2.444   2.911   7.282
 2877SOL     OW10469   0.236   7.796   8.937
 2877SOL    HW110470   0.274   7.868   8.988
 2877SOL    HW210471   0.146   7.824   8.920
 2878SOL     OW10472   0.397  14.351   7.306
 2878SOL    HW110473   0.474  14.346   7.249
 2878SOL    HW210474   0.433  14.358   7.394
 2879SOL     OW10475   4.899  13.526  10.842
 2879SOL    HW110476   4.889  13.563  10.929
 2879SOL    HW210477   4.907  13.602  10.784
 2880SOL     OW10478   0.185   3.751   1.879
 2880SOL    HW110479   0.090   3.758   1.866
 2880SOL    HW210480   0.196   3.675   1.936
 2881SOL     OW10481   3.744  11.284   7.606
 2881SOL    HW110482   3.701  11.225   7.544
 2881SOL    HW210483   3.837  11.262   7.600
 2882SOL     OW10484  14.665   1.424  12.313
 2882SOL    HW110485  14.656   1.330  12.299
 2882SOL    HW210486  14.743   1.433  12.369
 2883SOL     OW10487  10.801   5.775   0.707
 2883SOL    HW110488  10.774   5.699   0.656
 2883SOL    HW210489  10.747   5.773   0.785
 2884SOL     OW10490   5.374   5.055   1.847
 2884SOL    HW110491   5.441   5.034   1.782
 2884SOL    HW210492   5.413   5.028   1.931
 2885SOL     OW10493  14.377  12.312   8.857
 2885SOL    HW110494  14.363  12.264   8.939
 2885SOL    HW210495  14.379  12.244   8.790
 2886SOL     OW10496  13.862   4.511   4.798
 2886SOL    HW110497  13.777   4.540   4.767
 2886SOL    HW210498  13.854   4.511   4.894
 2887SOL     OW10499   7.933   4.893   5.762
 2887SOL    HW110500   7.942   4.901   5.667
 2887SOL    HW210501   8.004   4.946   5.797
 2888SOL     OW10502   2.990   6.618   1.392
 2888SOL    HW110503   2.986   6.691   1.330
 2888SOL    HW210504   2.904   6.576   1.385
 2889SOL     OW10505   2.663   8.948  14.812
 2889SOL    HW110506   2.714   8.881  14.859
 2889SOL    HW210507   2.579   8.905  14.795
 2890SOL     OW10508  10.605   8.569   5.465
 2890SOL    HW110509  10.533   8.509   5.489
 2890SOL    HW210510  10.623   8.617   5.546
 2891SOL     OW10511  13.310  10.620   2.267
 2891SOL    HW110512  13.226  10.658   2.292
 2891SOL    HW210513  13.312  10.627   2.172
 2892SOL     OW10514   5.117   1.183   7.954
 2892SOL    HW110515   5.148   1.149   8.038
 2892SOL    HW210516   5.113   1.278   7.967
 2893SOL     OW10517   1.849  11.810   3.321
 2893SOL    HW110518   1.894  11.851   3.247
 2893SOL    HW210519   1.849  11.717   3.301
 2894SOL     OW10520   9.182  12.331   0.471
 2894SOL    HW110521   9.219  12.396   0.411
 2894SOL    HW210522   9.249  12.319   0.538
 2895SOL     OW10523   6.048   4.398   8.039
 2895SOL    HW110524   6.034   4.490   8.017
 2895SOL    HW210525   6.041   4.352   7.955
 2896SOL     OW10526   7.444  12.811  14.003
 2896SOL    HW110527   7.536  12.836  14.014
 2896SOL    HW210528   7.397  12.895  13.999
 2897SOL     OW10529   7.957   4.946   1.303
 2897SOL    HW110530   7.987   4.888   1.233
 2897SOL    HW210531   7.864   4.926   1.314
 2898SOL     OW10532  10.636   1.671   0.693
 2898SOL    HW110533  10.698   1.707   0.630
 2898SOL    HW210534  10.603   1.591   0.652
 2899SOL     OW10535   3.045   4.131   1.051
 2899SOL    HW110536   3.109   4.178   1.104
 2899SOL    HW210537   3.032   4.048   1.098
 2900SOL     OW10538   3.746   9.438   4.322
 2900SOL    HW110539   3.678   9.504   4.307
 2900SOL    HW210540   3.778   9.456   4.411
 2901SOL     OW10541  10.826   5.531  10.804
 2901SOL    HW110542  10.847   5.611  10.756
 2901SOL    HW210543  10.740   5.504  10.770
 2902SOL     OW10544  11.126  10.552   1.206
 2902SOL    HW110545  11.053  10.542   1.267
 2902SOL    HW210546  11.203  10.527   1.257
 2903SOL     OW10547   3.235  12.909   2.746
 2903SOL    HW110548   3.267  12.865   2.825
 2903SOL    HW210549   3.308  12.966   2.720
 2904SOL     OW10550  12.789   9.809   6.516
 2904SOL    HW110551  12.747   9.750   6.452
 2904SOL    HW210552  12.745   9.789   6.599
 2905SOL     OW10553  10.703   8.446  13.483
 2905SOL    HW110554  10.656   8.386  13.425
 2905SOL    HW210555  10.752   8.504  13.425
 2906SOL     OW10556   0.284  11.004  14.304
 2906SOL    HW110557   0.281  10.956  14.221
 2906SOL    HW210558   0.206  10.975  14.351
 2907SOL     OW10559   1.286   1.077   3.695
 2907SOL    HW110560   1.259   1.060   3.786
 2907SOL    HW210561   1.335   1.159   3.700
 2908SOL     OW10562   2.171  11.764   6.246
 2908SOL    HW110563   2.190  11.839   6.303
 2908SOL    HW210564   2.256  11.740   6.210
 2909SOL     OW10565   8.307  13.122  10.344
 2909SOL    HW110566   8.276  13.033  10.330
 2909SOL    HW210567   8.291  13.139  10.437
 2910SOL     OW10568   4.068   9.726  10.968
 2910SOL    HW110569   4.044   9.656  10.907
 2910SOL    HW210570   3.997   9.790  10.961
 2911SOL     OW10571  13.419   6.943   3.853
 2911SOL    HW110572  13.391   6.930   3.943
 2911SOL    HW210573  13.352   7.000   3.814
 2912SOL     OW10574  14.196  10.187  11.571
 2912SOL    HW110575  14.103  10.206  11.581
 2912SOL    HW210576  14.199  10.099  11.535
 2913SOL     OW10577   7.480   6.276  13.515
 2913SOL    HW110578   7.519   6.220  13.448
 2913SOL    HW210579   7.555   6.319  13.557
 2914SOL     OW10580  10.269   0.596  13.063
 2914SOL    HW110581  10.254   0.567  13.153
 2914SOL    HW210582  10.217   0.675  13.054
 2915SOL     OW10583   4.295   5.316  12.373
 2915SOL    HW110584   4.207   5.351  12.384
 2915SOL    HW210585   4.325   5.351  12.289
 2916SOL     OW10586   4.230  13.057  10.974
 2916SOL    HW110587   4.261  13.143  11.005
 2916SOL    HW210588   4.231  13.064  10.879
 2917SOL     OW10589   2.995   2.104   8.723
 2917SOL    HW110590   2.946   2.083   8.643
 2917SOL    HW210591   2.981   2.029   8.780
 2918SOL     OW10592  11.838   7.662   9.514
 2918SOL    HW110593  11.830   7.570   9.490
 2918SOL    HW210594  11.878   7.661   9.601
 2919SOL     OW10595   5.444   9.392   3.027
 2919SOL    HW110596   5.536   9.406   3.049
 2919SOL    HW210597   5.397   9.459   3.076
 2920SOL     OW10598   5.276   1.385   0.850
 2920SOL    HW110599   5.214   1.354   0.785
 2920SOL    HW210600   5.356   1.335   0.833
 2921SOL     OW10601   5.643   4.696  12.343
 2921SOL    HW110602   5.619   4.771  12.289
 2921SOL    HW210603   5.696   4.640  12.286
 2922SOL     OW10604   9.440  12.015  13.977
 2922SOL    HW110605   9.362  12.066  13.997
 2922SOL    HW210606   9.419  11.927  14.009
 2923SOL     OW10607   9.346   2.323   6.974
 2923SOL    HW110608   9.266   2.376   6.976
 2923SOL    HW210609   9.320   2.241   6.933
 2924SOL     OW10610   4.373   4.519   2.798
 2924SOL    HW110611   4.355   4.589   2.735
 2924SOL    HW210612   4.287   4.477   2.812
 2925SOL     OW10613  13.033  14.350   0.272
 2925SOL    HW110614  13.052  14.443   0.258
 2925SOL    HW210615  13.045  14.309   0.186
 2926SOL     OW10616   4.094   8.410   4.436
 2926SOL    HW110617   4.100   8.387   4.529
 2926SOL    HW210618   4.020   8.471   4.431
 2927SOL     OW10619   7.547   5.395   9.084
 2927SOL    HW110620   7.563   5.413   9.177
 2927SOL    HW210621   7.635   5.384   9.047
 2928SOL     OW10622   8.317   1.605   1.060
 2928SOL    HW110623   8.402   1.649   1.060
 2928SOL    HW210624   8.279   1.625   0.974
 2929SOL     OW10625   9.952  10.803   3.124
 2929SOL    HW110626   9.909  10.876   3.170
 2929SOL    HW210627   9.895  10.728   3.139
 2930SOL     OW10628   5.738   8.302  11.688
 2930SOL    HW110629   5.755   8.212  11.662
 2930SOL    HW210630   5.819   8.350  11.666
 2931SOL     OW10631  12.350   9.007   4.976
 2931SOL    HW110632  12.291   8.979   5.046
 2931SOL    HW210633  12.362   9.101   4.991
 2932SOL     OW10634   6.132   3.520   4.539
 2932SOL    HW110635   6.093   3.575   4.606
 2932SOL    HW210636   6.221   3.554   4.529
 2933SOL     OW10637   8.639  13.116   8.997
 2933SOL    HW110638   8.543  13.120   8.998
 2933SOL    HW210639   8.661  13.103   8.904
 2934SOL     OW10640   2.101   1.387  11.370
 2934SOL    HW110641   2.157   1.451  11.328
 2934SOL    HW210642   2.023   1.436  11.396
 2935SOL     OW10643   1.270   6.569   5.812
 2935SOL    HW110644   1.339   6.634   5.800
 2935SOL    HW210645   1.260   6.527   5.726
 2936SOL     OW10646  12.036   8.832   7.130
 2936SOL    HW110647  12.101   8.791   7.073
 2936SOL    HW210648  11.997   8.760   7.179
 2937SOL     OW10649  11.611   1.235   8.903
 2937SOL    HW110650  11.616   1.187   8.821
 2937SOL    HW210651  11.556   1.181   8.959
 2938SOL     OW10652  14.314  13.271   7.056
 2938SOL    HW110653  14.335  13.343   7.116
 2938SOL    HW210654  14.398  13.241   7.024
 2939SOL     OW10655   3.797   1.131  13.518
 2939SOL    HW110656   3.838   1.192  13.458
 2939SOL    HW210657   3.837   1.150  13.603
 2940SOL     OW10658   8.517   7.724   1.382
 2940SOL    HW110659   8.565   7.802   1.354
 2940SOL    HW210660   8.448   7.757   1.439
 2941SOL     OW10661   3.111   0.514   9.265
 2941SOL    HW110662   3.143   0.595   9.224
 2941SOL    HW210663   3.101   0.452   9.192
 2942SOL     OW10664   6.141   4.685   1.824
 2942SOL    HW110665   6.231   4.709   1.844
 2942SOL    HW210666   6.132   4.701   1.730
 2943SOL     OW10667  11.490  12.264  10.247
 2943SOL    HW110668  11.557  12.324  10.216
 2943SOL    HW210669  11.420  12.270  10.182
 2944SOL     OW10670  14.219  11.856  14.200
 2944SOL    HW110671  14.247  11.932  14.149
 2944SOL    HW210672  14.218  11.887  14.291
 2945SOL     OW10673  10.979  14.649  11.161
 2945SOL    HW110674  11.013  14.629  11.074
 2945SOL    HW210675  10.920  14.577  11.181
 2946SOL     OW10676   6.954   3.930   9.921
 2946SOL    HW110677   7.007   3.865   9.967
 2946SOL    HW210678   6.936   3.997   9.988
 2947SOL     OW10679   4.891   9.132   3.089
 2947SOL    HW110680   4.921   9.214   3.129
 2947SOL    HW210681   4.912   9.065   3.154
 2948SOL     OW10682   0.117   1.130  13.652
 2948SOL    HW110683   0.083   1.209  13.694
 2948SOL    HW210684   0.135   1.070  13.724
 2949SOL     OW10685   2.164   0.659   1.109
 2949SOL    HW110686   2.145   0.591   1.174
 2949SOL    HW210687   2.078   0.689   1.079
 2950SOL     OW10688   5.587   5.176  13.251
 2950SOL    HW110689   5.611   5.124  13.174
 2950SOL    HW210690   5.509   5.133  13.287
 2951SOL     OW10691   8.090   1.115   2.137
 2951SOL    HW110692   8.143   1.190   2.109
 2951SOL    HW210693   8.075   1.065   2.058
 2952SOL     OW10694   7.674   6.901  13.079
 2952SOL    HW110695   7.585   6.925  13.054
 2952SOL    HW210696   7.664   6.830  13.142
 2953SOL     OW10697   3.756  12.947   1.123
 2953SOL    HW110698   3.694  12.905   1.183
 2953SOL    HW210699   3.779  12.878   1.061
 2954SOL     OW10700   0.498  11.272  11.039
 2954SOL    HW110701   0.588  11.239  11.048
 2954SOL    HW210702   0.470  11.290  11.129
 2955SOL     OW10703  12.046   2.540  11.513
 2955SOL    HW110704  11.989   2.533  11.590
 2955SOL    HW210705  12.009   2.612  11.462
 2956SOL     OW10706  11.728  12.698   3.602
 2956SOL    HW110707  11.655  12.760   3.610
 2956SOL    HW210708  11.765  12.693   3.689
 2957SOL     OW10709  13.025   6.567   0.289
 2957SOL    HW110710  13.054   6.477   0.275
 2957SOL    HW210711  12.930   6.560   0.301
 2958SOL     OW10712  10.490   5.740  11.495
 2958SOL    HW110713  10.435   5.675  11.538
 2958SOL    HW210714  10.430   5.790  11.440
 2959SOL     OW10715   8.706   6.685   6.462
 2959SOL    HW110716   8.652   6.752   6.504
 2959SOL    HW210717   8.687   6.696   6.368
 2960SOL     OW10718   7.469  10.107  13.733
 2960SOL    HW110719   7.442  10.041  13.670
 2960SOL    HW210720   7.484  10.186  13.680
 2961SOL     OW10721  13.142   4.616   0.417
 2961SOL    HW110722  13.184   4.600   0.333
 2961SOL    HW210723  13.199   4.575   0.481
 2962SOL     OW10724   1.263  12.316  11.413
 2962SOL    HW110725   1.283  12.409  11.407
 2962SOL    HW210726   1.171  12.310  11.388
 2963SOL     OW10727   7.758   9.339   4.639
 2963SOL    HW110728   7.729   9.428   4.616
 2963SOL    HW210729   7.796   9.349   4.726
 2964SOL     OW10730  10.142   3.127  12.717
 2964SOL    HW110731  10.225   3.134  12.670
 2964SOL    HW210732  10.126   3.033  12.724
 2965SOL     OW10733   2.853   5.018   6.372
 2965SOL    HW110734   2.800   5.078   6.319
 2965SOL    HW210735   2.809   5.016   6.456
 2966SOL     OW10736   4.619  12.697  12.075
 2966SOL    HW110737   4.627  12.786  12.110
 2966SOL    HW210738   4.679  12.695  12.001
 2967SOL     OW10739   4.193   7.642   6.629
 2967SOL    HW110740   4.206   7.561   6.578
 2967SOL    HW210741   4.182   7.611   6.719
 2968SOL     OW10742  11.403  11.221   7.421
 2968SOL    HW110743  11.392  11.286   7.490
 2968SOL    HW210744  11.495  11.195   7.427
 2969SOL     OW10745  12.004   2.544   2.530
 2969SOL    HW110746  12.012   2.505   2.617
 2969SOL    HW210747  11.914   2.526   2.503
 2970SOL     OW10748  12.914   7.296   2.389
 2970SOL    HW110749  12.990   7.243   2.413
 2970SOL    HW210750  12.876   7.323   2.473
 2971SOL     OW10751   9.087   2.884   0.787
 2971SOL    HW110752   9.112   2.900   0.696
 2971SOL    HW210753   9.113   2.965   0.833
 2972SOL     OW10754  14.695  14.828   1.562
 2972SOL    HW110755  14.647  14.843   1.644
 2972SOL    HW210756  14.778  14.789   1.590
 2973SOL     OW10757  14.527  12.273   7.185
 2973SOL    HW110758  14.509  12.350   7.130
 2973SOL    HW210759  14.605  12.297   7.235
 2974SOL     OW10760  11.991   7.217  13.256
 2974SOL    HW110761  12.076   7.207  13.214
 2974SOL    HW210762  11.997   7.301  13.302
 2975SOL     OW10763  12.233   8.542   6.538
 2975SOL    HW110764  12.224   8.568   6.630
 2975SOL    HW210765  12.314   8.584   6.509
 2976SOL     OW10766   8.076  12.679   9.329
 2976SOL    HW110767   8.013  12.741   9.291
 2976SOL    HW210768   8.118  12.638   9.253
 2977SOL     OW10769  10.229   4.556  11.148
 2977SOL    HW110770  10.231   4.609  11.228
 2977SOL    HW210771  10.149   4.504  11.156
 2978SOL     OW10772  14.827  12.877   4.768
 2978SOL    HW110773   0.021  12.938   4.738
 2978SOL    HW210774   0.000  12.813   4.822
 2979SOL     OW10775  12.520   0.769   7.646
 2979SOL    HW110776  12.465   0.846   7.661
 2979SOL    HW210777  12.471   0.696   7.684
 2980SOL     OW10778   5.320  10.588  13.118
 2980SOL    HW110779   5.310  10.609  13.026
 2980SOL    HW210780   5.236  10.613  13.157
 2981SOL     OW10781   0.716   2.143   8.332
 2981SOL    HW110782   0.754   2.230   8.322
 2981SOL    HW210783   0.771   2.101   8.399
 2982SOL     OW10784  14.323   7.725  12.514
 2982SOL    HW110785  14.367   7.640  12.506
 2982SOL    HW210786  14.284   7.723  12.601
 2983SOL     OW10787   9.852  10.787  10.051
 2983SOL    HW110788   9.933  10.817  10.090
 2983SOL    HW210789   9.803  10.867  10.032
 2984SOL     OW10790   1.458   0.033   5.687
 2984SOL    HW110791   1.469   0.114   5.636
 2984SOL    HW210792   1.497   0.053   5.772
 2985SOL     OW10793   8.475   2.086  13.569
 2985SOL    HW110794   8.524   2.006  13.590
 2985SOL    HW210795   8.543   2.153  13.557
 2986SOL     OW10796  14.197   4.043   1.914
 2986SOL    HW110797  14.211   4.055   1.820
 2986SOL    HW210798  14.173   4.130   1.946
 2987SOL     OW10799  12.304  10.662  14.120
 2987SOL    HW110800  12.354  10.583  14.144
 2987SOL    HW210801  12.328  10.726  14.188
 2988SOL     OW10802   3.252   1.049   4.331
 2988SOL    HW110803   3.228   0.972   4.383
 2988SOL    HW210804   3.344   1.035   4.309
 2989SOL     OW10805  10.920  10.730   1.596
 2989SOL    HW110806  10.908  10.786   1.519
 2989SOL    HW210807  10.953  10.648   1.561
 2990SOL     OW10808   9.952   9.380  11.400
 2990SOL    HW110809   9.888   9.323  11.442
 2990SOL    HW210810  10.032   9.327  11.397
 2991SOL     OW10811   4.929  12.188   4.365
 2991SOL    HW110812   4.976  12.236   4.433
 2991SOL    HW210813   4.947  12.236   4.285
 2992SOL     OW10814   5.037  11.126   7.656
 2992SOL    HW110815   4.949  11.159   7.672
 2992SOL    HW210816   5.054  11.068   7.731
 2993SOL     OW10817  11.677  12.606   7.524
 2993SOL    HW110818  11.699  12.692   7.489
 2993SOL    HW210819  11.727  12.600   7.605
 2994SOL     OW10820  10.667  10.383   4.886
 2994SOL    HW110821  10.608  10.350   4.818
 2994SOL    HW210822  10.747  10.407   4.839
 2995SOL     OW10823   8.601   2.237   8.758
 2995SOL    HW110824   8.565   2.250   8.671
 2995SOL    HW210825   8.668   2.169   8.746
 2996SOL     OW10826   7.836   2.068   9.899
 2996SOL    HW110827   7.805   1.977   9.903
 2996SOL    HW210828   7.763   2.120   9.932
 2997SOL     OW10829   0.364  10.846   2.677
 2997SOL    HW110830   0.427  10.900   2.630
 2997SOL    HW210831   0.289  10.839   2.617
 2998SOL     OW10832   9.628   2.134  10.613
 2998SOL    HW110833   9.642   2.216  10.661
 2998SOL    HW210834   9.580   2.160  10.534
 2999SOL     OW10835  11.546   0.377  13.110
 2999SOL    HW110836  11.595   0.374  13.028
 2999SOL    HW210837  11.461   0.415  13.086
 3000SOL     OW10838   7.768   3.944   3.333
 3000SOL    HW110839   7.752   3.989   3.250
 3000SOL    HW210840   7.766   3.851   3.311
 3001SOL     OW10841   8.284   9.939   1.656
 3001SOL    HW110842   8.224   9.970   1.589
 3001SOL    HW210843   8.364   9.917   1.609
 3002SOL     OW10844   7.337   1.344   7.848
 3002SOL    HW110845   7.408   1.297   7.892
 3002SOL    HW210846   7.285   1.276   7.806
 3003SOL     OW10847   8.071   5.476   1.159
 3003SOL    HW110848   8.142   5.531   1.127
 3003SOL    HW210849   8.005   5.479   1.091
 3004SOL     OW10850   7.006  10.192  13.960
 3004SOL    HW110851   7.101  10.199  13.972
 3004SOL    HW210852   6.980  10.123  14.021
 3005SOL     OW10853   9.874  11.618   1.321
 3005SOL    HW110854   9.863  11.528   1.353
 3005SOL    HW210855   9.785  11.654   1.320
 3006SOL     OW10856   3.936   7.603  14.819
 3006SOL    HW110857   4.031   7.605  14.835
 3006SOL    HW210858   3.928   7.595  14.724
 3007SOL     OW10859  12.123   6.398   1.401
 3007SOL    HW110860  12.035   6.433   1.408
 3007SOL    HW210861  12.177   6.454   1.457
 3008SOL     OW10862   1.952   5.894  13.108
 3008SOL    HW110863   2.023   5.943  13.149
 3008SOL    HW210864   1.884   5.889  13.176
 3009SOL     OW10865   7.171  14.818   5.931
 3009SOL    HW110866   7.163   0.037   5.912
 3009SOL    HW210867   7.245  14.789   5.877
 3010SOL     OW10868   9.305   5.608  10.131
 3010SOL    HW110869   9.337   5.521  10.153
 3010SOL    HW210870   9.224   5.618  10.182
 3011SOL     OW10871  12.390   0.630   3.694
 3011SOL    HW110872  12.316   0.615   3.752
 3011SOL    HW210873  12.352   0.665   3.614
 3012SOL     OW10874   9.523  11.323   6.445
 3012SOL    HW110875   9.554  11.296   6.359
 3012SOL    HW210876   9.431  11.299   6.446
 3013SOL     OW10877   4.070  10.384  11.450
 3013SOL    HW110878   4.036  10.391  11.361
 3013SOL    HW210879   4.152  10.433  11.449
 3014SOL     OW10880   8.689  10.167   2.364
 3014SOL    HW110881   8.627  10.240   2.365
 3014SOL    HW210882   8.634  10.089   2.370
 3015SOL     OW10883   1.840   2.369  12.155
 3015SOL    HW110884   1.816   2.312  12.228
 3015SOL    HW210885   1.936   2.363  12.151
 3016SOL     OW10886   5.653   6.059  10.575
 3016SOL    HW110887   5.617   5.978  10.612
 3016SOL    HW210888   5.645   6.048  10.480
 3017SOL     OW10889  11.883  13.829   6.101
 3017SOL    HW110890  11.922  13.916   6.095
 3017SOL    HW210891  11.928  13.788   6.175
 3018SOL     OW10892   9.112   1.229  13.864
 3018SOL    HW110893   9.146   1.189  13.943
 3018SOL    HW210894   9.022   1.255  13.887
 3019SOL     OW10895   1.910   8.813   1.947
 3019SOL    HW110896   2.002   8.788   1.954
 3019SOL    HW210897   1.864   8.750   2.002
 3020SOL     OW10898   4.479   0.537  10.543
 3020SOL    HW110899   4.525   0.596  10.603
 3020SOL    HW210900   4.390   0.534  10.578
 3021SOL     OW10901   3.490   9.566  11.763
 3021SOL    HW110902   3.537   9.551  11.845
 3021SOL    HW210903   3.559   9.575  11.697
 3022SOL     OW10904   0.496   3.884  11.083
 3022SOL    HW110905   0.494   3.980  11.073
 3022SOL    HW210906   0.465   3.869  11.172
 3023SOL     OW10907   8.876   0.312   5.828
 3023SOL    HW110908   8.910   0.396   5.797
 3023SOL    HW210909   8.856   0.326   5.920
 3024SOL     OW10910  10.020  10.223   4.553
 3024SOL    HW110911  10.040  10.278   4.629
 3024SOL    HW210912  10.005  10.136   4.590
 3025SOL     OW10913   5.418  12.144  11.657
 3025SOL    HW110914   5.458  12.058  11.676
 3025SOL    HW210915   5.492  12.204  11.655
 3026SOL     OW10916   3.574  13.376   3.292
 3026SOL    HW110917   3.554  13.379   3.386
 3026SOL    HW210918   3.566  13.284   3.269
 3027SOL     OW10919   6.056   1.179   6.068
 3027SOL    HW110920   6.093   1.253   6.116
 3027SOL    HW210921   6.112   1.105   6.092
 3028SOL     OW10922   4.292   8.053   1.899
 3028SOL    HW110923   4.208   8.041   1.855
 3028SOL    HW210924   4.323   7.964   1.917
 3029SOL     OW10925   8.912   8.913   3.062
 3029SOL    HW110926   8.978   8.847   3.039
 3029SOL    HW210927   8.876   8.942   2.978
 3030SOL     OW10928  12.109   0.218   8.143
 3030SOL    HW110929  12.182   0.261   8.099
 3030SOL    HW210930  12.065   0.170   8.073
 3031SOL     OW10931   8.731  14.399  12.554
 3031SOL    HW110932   8.689  14.314  12.559
 3031SOL    HW210933   8.721  14.427  12.463
 3032SOL     OW10934  13.015   6.092  13.265
 3032SOL    HW110935  13.088   6.054  13.313
 3032SOL    HW210936  13.020   6.053  13.178
 3033SOL     OW10937   1.932   3.106   3.873
 3033SOL    HW110938   1.839   3.115   3.894
 3033SOL    HW210939   1.974   3.082   3.956
 3034SOL     OW10940  14.764   8.163   2.050
 3034SOL    HW110941  14.780   8.095   1.985
 3034SOL    HW210942  14.683   8.206   2.020
 3035SOL     OW10943  10.071  10.008  10.992
 3035SOL    HW110944   9.993  10.063  10.989
 3035SOL    HW210945  10.041   9.924  11.025
 3036SOL     OW10946  12.110   9.320  11.409
 3036SOL    HW110947  12.087   9.403  11.452
 3036SOL    HW210948  12.027   9.287  11.375
 3037SOL     OW10949  10.652  14.331   1.471
 3037SOL    HW110950  10.701  14.253   1.446
 3037SOL    HW210951  10.684  14.399   1.412
 3038SOL     OW10952   1.439   6.609   1.692
 3038SOL    HW110953   1.518   6.597   1.639
 3038SOL    HW210954   1.469   6.603   1.782
 3039SOL     OW10955   4.507   9.352   3.120
 3039SOL    HW110956   4.450   9.386   3.052
 3039SOL    HW210957   4.575   9.303   3.073
 3040SOL     OW10958   1.181  11.107  13.832
 3040SOL    HW110959   1.262  11.138  13.790
 3040SOL    HW210960   1.120  11.180  13.821
 3041SOL     OW10961   3.841  10.523   7.561
 3041SOL    HW110962   3.929  10.488   7.569
 3041SOL    HW210963   3.791  10.454   7.518
 3042SOL     OW10964   1.263  12.063  10.945
 3042SOL    HW110965   1.274  11.984  10.892
 3042SOL    HW210966   1.209  12.120  10.892
 3043SOL     OW10967   3.213   7.638  11.953
 3043SOL    HW110968   3.134   7.692  11.957
 3043SOL    HW210969   3.182   7.553  11.922
 3044SOL     OW10970   0.350   3.378   9.158
 3044SOL    HW110971   0.363   3.405   9.067
 3044SOL    HW210972   0.280   3.313   9.153
 3045SOL     OW10973   1.093   3.903  14.432
 3045SOL    HW110974   1.064   3.848  14.360
 3045SOL    HW210975   1.124   3.983  14.391
 3046SOL     OW10976   7.153  13.150  13.475
 3046SOL    HW110977   7.059  13.158  13.461
 3046SOL    HW210978   7.189  13.234  13.448
 3047SOL     OW10979   4.111  10.408   4.130
 3047SOL    HW110980   4.171  10.395   4.056
 3047SOL    HW210981   4.160  10.375   4.206
 3048SOL     OW10982   2.458   9.594  10.807
 3048SOL    HW110983   2.531   9.616  10.749
 3048SOL    HW210984   2.385   9.647  10.774
 3049SOL     OW10985   2.238   4.412   5.871
 3049SOL    HW110986   2.323   4.367   5.873
 3049SOL    HW210987   2.179   4.349   5.829
 3050SOL     OW10988   8.111  14.147   3.742
 3050SOL    HW110989   8.118  14.056   3.770
 3050SOL    HW210990   8.043  14.147   3.675
 3051SOL     OW10991   4.202   2.864   2.660
 3051SOL    HW110992   4.261   2.792   2.680
 3051SOL    HW210993   4.126   2.850   2.717
 3052SOL     OW10994  12.645  12.587   9.760
 3052SOL    HW110995  12.697  12.659   9.794
 3052SOL    HW210996  12.561  12.626   9.737
 3053SOL     OW10997   4.875  10.724   0.194
 3053SOL    HW110998   4.870  10.767   0.109
 3053SOL    HW210999   4.867  10.795   0.258
 3054SOL     OW11000  11.668   5.949   1.513
 3054SOL    HW111001  11.708   5.870   1.548
 3054SOL    HW211002  11.739   5.995   1.469
 3055SOL     OW11003   7.981   5.848   8.467
 3055SOL    HW111004   8.047   5.854   8.537
 3055SOL    HW211005   7.897   5.848   8.512
 3056SOL     OW11006   7.407   0.269   8.637
 3056SOL    HW111007   7.448   0.253   8.721
 3056SOL    HW211008   7.362   0.353   8.646
 3057SOL     OW11009  14.311   0.686   7.054
 3057SOL    HW111010  14.230   0.642   7.079
 3057SOL    HW211011  14.317   0.761   7.113
 3058SOL     OW11012   8.421  13.578   0.397
 3058SOL    HW111013   8.351  13.526   0.358
 3058SOL    HW211014   8.383  13.613   0.478
 3059SOL     OW11015  11.981  11.769   8.126
 3059SOL    HW111016  11.942  11.709   8.061
 3059SOL    HW211017  12.001  11.848   8.076
 3060SOL     OW11018   7.718   4.405   5.163
 3060SOL    HW111019   7.704   4.391   5.069
 3060SOL    HW211020   7.785   4.473   5.168
 3061SOL     OW11021   1.663   7.462   9.150
 3061SOL    HW111022   1.631   7.384   9.194
 3061SOL    HW211023   1.713   7.430   9.075
 3062SOL     OW11024   8.885  11.126  11.889
 3062SOL    HW111025   8.949  11.177  11.839
 3062SOL    HW211026   8.935  11.054  11.926
 3063SOL     OW11027   3.452  13.025   1.875
 3063SOL    HW111028   3.408  12.971   1.810
 3063SOL    HW211029   3.469  13.108   1.831
 3064SOL     OW11030   2.047   9.501   7.737
 3064SOL    HW111031   2.004   9.551   7.807
 3064SOL    HW211032   2.003   9.530   7.657
 3065SOL     OW11033   2.745   6.844   5.286
 3065SOL    HW111034   2.665   6.801   5.314
 3065SOL    HW211035   2.805   6.837   5.361
 3066SOL     OW11036   0.779   1.169  10.313
 3066SOL    HW111037   0.759   1.212  10.396
 3066SOL    HW211038   0.741   1.227  10.247
 3067SOL     OW11039  10.806   7.047   5.849
 3067SOL    HW111040  10.817   7.039   5.944
 3067SOL    HW211041  10.740   7.115   5.837
 3068SOL     OW11042   5.358   9.884   9.693
 3068SOL    HW111043   5.353   9.812   9.756
 3068SOL    HW211044   5.340   9.844   9.608
 3069SOL     OW11045   5.344   2.818  11.080
 3069SOL    HW111046   5.430   2.833  11.042
 3069SOL    HW211047   5.285   2.815  11.005
 3070SOL     OW11048   9.552   8.897   7.287
 3070SOL    HW111049   9.504   8.817   7.310
 3070SOL    HW211050   9.499   8.938   7.218
 3071SOL     OW11051   9.712   5.976   6.202
 3071SOL    HW111052   9.691   5.887   6.230
 3071SOL    HW211053   9.657   6.032   6.257
 3072SOL     OW11054   4.022   5.061   7.643
 3072SOL    HW111055   3.969   5.082   7.720
 3072SOL    HW211056   4.033   4.966   7.646
 3073SOL     OW11057  13.379  12.594   1.278
 3073SOL    HW111058  13.401  12.513   1.324
 3073SOL    HW211059  13.374  12.569   1.186
 3074SOL     OW11060  10.441  12.478  14.677
 3074SOL    HW111061  10.522  12.438  14.709
 3074SOL    HW211062  10.443  12.567  14.710
 3075SOL     OW11063   6.491   3.700  14.825
 3075SOL    HW111064   6.546   3.777  14.831
 3075SOL    HW211065   6.405   3.734  14.801
 3076SOL     OW11066  14.654   6.380   1.033
 3076SOL    HW111067  14.644   6.340   0.947
 3076SOL    HW211068  14.566   6.414   1.054
 3077SOL     OW11069   1.257   9.217   7.446
 3077SOL    HW111070   1.325   9.178   7.390
 3077SOL    HW211071   1.193   9.253   7.384
 3078SOL     OW11072   0.222   3.045  13.358
 3078SOL    HW111073   0.301   3.013  13.315
 3078SOL    HW211074   0.150   3.017  13.301
 3079SOL     OW11075   7.857  10.602   5.018
 3079SOL    HW111076   7.845  10.536   4.950
 3079SOL    HW211077   7.771  10.611   5.058
 3080SOL     OW11078  14.420   2.131   5.936
 3080SOL    HW111079  14.332   2.102   5.962
 3080SOL    HW211080  14.422   2.224   5.959
 3081SOL     OW11081   7.831   8.085  12.839
 3081SOL    HW111082   7.779   8.164  12.851
 3081SOL    HW211083   7.787   8.018  12.891
 3082SOL     OW11084  13.248   3.600   6.875
 3082SOL    HW111085  13.311   3.649   6.929
 3082SOL    HW211086  13.192   3.668   6.837
 3083SOL     OW11087   4.058   1.794   8.768
 3083SOL    HW111088   4.060   1.825   8.678
 3083SOL    HW211089   4.027   1.703   8.761
 3084SOL     OW11090  11.551   1.280   5.776
 3084SOL    HW111091  11.544   1.253   5.868
 3084SOL    HW211092  11.645   1.286   5.760
 3085SOL     OW11093  10.492   5.037  14.261
 3085SOL    HW111094  10.568   4.991  14.295
 3085SOL    HW211095  10.527   5.116  14.220
 3086SOL     OW11096  11.921  13.259   3.234
 3086SOL    HW111097  12.012  13.231   3.217
 3086SOL    HW211098  11.881  13.266   3.148
 3087SOL     OW11099   2.543   3.199  14.781
 3087SOL    HW111100   2.588   3.123  14.745
 3087SOL    HW211101   2.473   3.163  14.835
 3088SOL     OW11102   3.144   9.190  10.375
 3088SOL    HW111103   3.227   9.201  10.422
 3088SOL    HW211104   3.149   9.102  10.338
 3089SOL     OW11105  13.211   6.606  12.781
 3089SOL    HW111106  13.287   6.555  12.809
 3089SOL    HW211107  13.164   6.625  12.862
 3090SOL     OW11108   9.560   3.460   2.203
 3090SOL    HW111109   9.640   3.456   2.255
 3090SOL    HW211110   9.490   3.445   2.265
 3091SOL     OW11111   7.569   7.424  12.449
 3091SOL    HW111112   7.520   7.504  12.470
 3091SOL    HW211113   7.596   7.389  12.534
 3092SOL     OW11114   8.176  10.720  12.928
 3092SOL    HW111115   8.186  10.627  12.948
 3092SOL    HW211116   8.107  10.723  12.862
 3093SOL     OW11117   3.035   5.131  12.747
 3093SOL    HW111118   3.048   5.172  12.832
 3093SOL    HW211119   3.017   5.204  12.688
 3094SOL     OW11120  10.346   3.006   1.157
 3094SOL    HW111121  10.414   2.950   1.120
 3094SOL    HW211122  10.265   2.957   1.143
 3095SOL     OW11123   7.797   8.432   3.165
 3095SOL    HW111124   7.851   8.442   3.087
 3095SOL    HW211125   7.858   8.445   3.238
 3096SOL     OW11126   7.796   1.000   5.253
 3096SOL    HW111127   7.782   0.925   5.196
 3096SOL    HW211128   7.759   1.074   5.206
 3097SOL     OW11129   6.917  13.772  14.032
 3097SOL    HW111130   6.853  13.844  14.027
 3097SOL    HW211131   7.001  13.816  14.040
 3098SOL     OW11132  11.571   3.492  13.082
 3098SOL    HW111133  11.555   3.584  13.063
 3098SOL    HW211134  11.554   3.483  13.176
 3099SOL     OW11135   5.497  11.672   8.426
 3099SOL    HW111136   5.474  11.681   8.334
 3099SOL    HW211137   5.413  11.671   8.472
 3100SOL     OW11138   4.382   9.551   9.412
 3100SOL    HW111139   4.374   9.645   9.398
 3100SOL    HW211140   4.450   9.523   9.351
 3101SOL     OW11141   8.510   4.750   0.954
 3101SOL    HW111142   8.605   4.742   0.966
 3101SOL    HW211143   8.482   4.807   1.025
 3102SOL     OW11144   2.159   1.255   2.916
 3102SOL    HW111145   2.209   1.189   2.965
 3102SOL    HW211146   2.188   1.338   2.953
 3103SOL     OW11147  13.669   9.524  14.363
 3103SOL    HW111148  13.664   9.516  14.458
 3103SOL    HW211149  13.719   9.604  14.348
 3104SOL     OW11150  10.704   7.092   7.222
 3104SOL    HW111151  10.637   7.031   7.190
 3104SOL    HW211152  10.692   7.094   7.317
 3105SOL     OW11153   2.209   1.984   1.273
 3105SOL    HW111154   2.144   1.970   1.205
 3105SOL    HW211155   2.234   2.076   1.264
 3106SOL     OW11156   7.231   7.045   8.656
 3106SOL    HW111157   7.187   6.973   8.701
 3106SOL    HW211158   7.213   7.030   8.564
 3107SOL     OW11159   5.245   5.444   0.530
 3107SOL    HW111160   5.316   5.404   0.479
 3107SOL    HW211161   5.165   5.407   0.492
 3108SOL     OW11162  14.489   8.727   3.296
 3108SOL    HW111163  14.506   8.754   3.387
 3108SOL    HW211164  14.577   8.715   3.259
 3109SOL     OW11165  12.908  14.652   7.988
 3109SOL    HW111166  12.965  14.675   8.061
 3109SOL    HW211167  12.932  14.562   7.966
 3110SOL     OW11168  10.331   3.911   0.667
 3110SOL    HW111169  10.405   3.972   0.669
 3110SOL    HW211170  10.361   3.836   0.719
 3111SOL     OW11171   4.903  12.932   6.578
 3111SOL    HW111172   4.966  12.993   6.540
 3111SOL    HW211173   4.947  12.897   6.655
 3112SOL     OW11174   8.543   6.092   3.161
 3112SOL    HW111175   8.534   6.086   3.256
 3112SOL    HW211176   8.470   6.147   3.133
 3113SOL     OW11177  12.624   5.588  13.645
 3113SOL    HW111178  12.557   5.526  13.617
 3113SOL    HW211179  12.576   5.669  13.661
 3114SOL     OW11180  12.484  11.210   5.555
 3114SOL    HW111181  12.496  11.236   5.646
 3114SOL    HW211182  12.389  11.208   5.543
 3115SOL     OW11183  12.582  10.642   4.495
 3115SOL    HW111184  12.492  10.649   4.528
 3115SOL    HW211185  12.637  10.674   4.566
 3116SOL     OW11186  13.003   8.002   5.005
 3116SOL    HW111187  12.979   7.909   5.000
 3116SOL    HW211188  12.921   8.049   4.988
 3117SOL     OW11189   8.920   4.100  12.692
 3117SOL    HW111190   8.910   4.144  12.608
 3117SOL    HW211191   9.015   4.100  12.708
 3118SOL     OW11192  12.458   7.356  12.289
 3118SOL    HW111193  12.405   7.407  12.351
 3118SOL    HW211194  12.548   7.389  12.302
 3119SOL     OW11195   8.503   6.666   5.637
 3119SOL    HW111196   8.478   6.756   5.658
 3119SOL    HW211197   8.499   6.661   5.541
 3120SOL     OW11198   1.363   5.482  13.382
 3120SOL    HW111199   1.457   5.497  13.379
 3120SOL    HW211200   1.337   5.468  13.291
 3121SOL     OW11201  13.071  14.323   2.977
 3121SOL    HW111202  13.060  14.232   3.003
 3121SOL    HW211203  13.165  14.333   2.962
 3122SOL     OW11204   5.476   3.667   9.007
 3122SOL    HW111205   5.566   3.642   8.986
 3122SOL    HW211206   5.483   3.710   9.093
 3123SOL     OW11207  10.349   1.009  12.894
 3123SOL    HW111208  10.418   1.052  12.946
 3123SOL    HW211209  10.268   1.033  12.938
 3124SOL     OW11210  13.481   7.161   7.785
 3124SOL    HW111211  13.429   7.241   7.794
 3124SOL    HW211212  13.430   7.093   7.828
 3125SOL     OW11213   5.891  11.501  11.124
 3125SOL    HW111214   5.895  11.597  11.122
 3125SOL    HW211215   5.939  11.473  11.047
 3126SOL     OW11216   9.075   9.201  14.267
 3126SOL    HW111217   9.071   9.256  14.345
 3126SOL    HW211218   8.994   9.150  14.270
 3127SOL     OW11219   2.370   6.211  14.197
 3127SOL    HW111220   2.316   6.185  14.271
 3127SOL    HW211221   2.460   6.190  14.224
 3128SOL     OW11222   7.337   9.306  10.469
 3128SOL    HW111223   7.330   9.401  10.481
 3128SOL    HW211224   7.253   9.272  10.501
 3129SOL     OW11225   8.056   2.364  13.063
 3129SOL    HW111226   8.049   2.440  13.120
 3129SOL    HW211227   8.144   2.330  13.079
 3130SOL     OW11228   9.006   8.522  12.953
 3130SOL    HW111229   9.025   8.589  13.019
 3130SOL    HW211230   9.076   8.458  12.963
 3131SOL     OW11231   5.183  13.618   9.214
 3131SOL    HW111232   5.103  13.628   9.163
 3131SOL    HW211233   5.245  13.678   9.173
 3132SOL     OW11234  12.578  14.148   3.975
 3132SOL    HW111235  12.556  14.179   4.062
 3132SOL    HW211236  12.533  14.064   3.967
 3133SOL     OW11237   9.434   8.212   6.267
 3133SOL    HW111238   9.482   8.284   6.306
 3133SOL    HW211239   9.414   8.153   6.340
 3134SOL     OW11240  14.012   3.535   7.717
 3134SOL    HW111241  14.097   3.552   7.678
 3134SOL    HW211242  14.029   3.531   7.811
 3135SOL     OW11243   1.710   4.350   5.078
 3135SOL    HW111244   1.673   4.343   5.166
 3135SOL    HW211245   1.722   4.445   5.064
 3136SOL     OW11246   0.818   2.401   6.896
 3136SOL    HW111247   0.879   2.328   6.909
 3136SOL    HW211248   0.732   2.362   6.908
 3137SOL     OW11249   9.782  12.183   4.358
 3137SOL    HW111250   9.796  12.151   4.269
 3137SOL    HW211251   9.867  12.219   4.384
 3138SOL     OW11252   8.387  10.767   0.001
 3138SOL    HW111253   8.364  10.719  14.796
 3138SOL    HW211254   8.311  10.822   0.020
 3139SOL     OW11255   9.991   9.240  11.014
 3139SOL    HW111256   9.953   9.301  10.950
 3139SOL    HW211257   9.920   9.223  11.076
 3140SOL     OW11258   4.823   4.309  14.628
 3140SOL    HW111259   4.889   4.345  14.568
 3140SOL    HW211260   4.873   4.285  14.706
 3141SOL     OW11261   8.327   1.603   1.687
 3141SOL    HW111262   8.243   1.625   1.727
 3141SOL    HW211263   8.307   1.591   1.594
 3142SOL     OW11264  13.188  11.716   0.918
 3142SOL    HW111265  13.265  11.667   0.891
 3142SOL    HW211266  13.115  11.657   0.901
 3143SOL     OW11267  14.235   5.428   5.233
 3143SOL    HW111268  14.267   5.399   5.148
 3143SOL    HW211269  14.194   5.350   5.270
 3144SOL     OW11270   5.883   9.193   4.121
 3144SOL    HW111271   5.840   9.188   4.035
 3144SOL    HW211272   5.975   9.174   4.103
 3145SOL     OW11273   7.729   6.440   1.104
 3145SOL    HW111274   7.688   6.359   1.135
 3145SOL    HW211275   7.660   6.505   1.106
 3146SOL     OW11276   6.089   0.287   4.162
 3146SOL    HW111277   6.169   0.339   4.164
 3146SOL    HW211278   6.046   0.306   4.246
 3147SOL     OW11279   4.324   4.601   9.683
 3147SOL    HW111280   4.350   4.576   9.595
 3147SOL    HW211281   4.270   4.680   9.671
 3148SOL     OW11282   6.273   4.977  12.057
 3148SOL    HW111283   6.286   5.052  12.115
 3148SOL    HW211284   6.215   4.919  12.106
 3149SOL     OW11285   0.342   7.739   7.012
 3149SOL    HW111286   0.258   7.781   7.030
 3149SOL    HW211287   0.332   7.703   6.923
 3150SOL     OW11288   7.681   3.669   1.493
 3150SOL    HW111289   7.735   3.663   1.414
 3150SOL    HW211290   7.743   3.664   1.566
 3151SOL     OW11291   7.835   5.894   5.158
 3151SOL    HW111292   7.929   5.889   5.174
 3151SOL    HW211293   7.826   5.960   5.090
 3152SOL     OW11294   9.806  11.617  11.346
 3152SOL    HW111295   9.895  11.603  11.312
 3152SOL    HW211296   9.817  11.623  11.440
 3153SOL     OW11297   6.262   8.358  12.671
 3153SOL    HW111298   6.182   8.396  12.636
 3153SOL    HW211299   6.328   8.427  12.661
 3154SOL     OW11300   8.012  10.918   5.068
 3154SOL    HW111301   7.996  10.842   5.012
 3154SOL    HW211302   8.073  10.972   5.018
 3155SOL     OW11303   2.142  10.062   7.886
 3155SOL    HW111304   2.209  10.006   7.847
 3155SOL    HW211305   2.119  10.124   7.816
 3156SOL     OW11306  11.017  11.109   6.935
 3156SOL    HW111307  11.016  11.121   7.030
 3156SOL    HW211308  11.079  11.174   6.903
 3157SOL     OW11309   9.495   3.856   0.032
 3157SOL    HW111310   9.468   3.897  14.824
 3157SOL    HW211311   9.467   3.918   0.100
 3158SOL     OW11312   0.703   8.853   8.028
 3158SOL    HW111313   0.621   8.817   8.062
 3158SOL    HW211314   0.691   8.948   8.030
 3159SOL     OW11315   8.587  14.188   5.618
 3159SOL    HW111316   8.518  14.254   5.611
 3159SOL    HW211317   8.667  14.234   5.592
 3160SOL     OW11318   2.769   9.620  11.800
 3160SOL    HW111319   2.762   9.615  11.896
 3160SOL    HW211320   2.683   9.651  11.772
 3161SOL     OW11321   1.456   0.258   5.241
 3161SOL    HW111322   1.426   0.179   5.286
 3161SOL    HW211323   1.474   0.320   5.311
 3162SOL     OW11324  11.487   3.578   4.858
 3162SOL    HW111325  11.534   3.640   4.912
 3162SOL    HW211326  11.550   3.552   4.791
 3163SOL     OW11327   9.383   3.680   4.273
 3163SOL    HW111328   9.466   3.709   4.310
 3163SOL    HW211329   9.352   3.753   4.220
 3164SOL     OW11330   6.205  12.338  13.066
 3164SOL    HW111331   6.210  12.290  12.983
 3164SOL    HW211332   6.204  12.430  13.039
 3165SOL     OW11333  13.259   3.169   1.583
 3165SOL    HW111334  13.337   3.132   1.625
 3165SOL    HW211335  13.187   3.112   1.613
 3166SOL     OW11336   6.778   1.179   3.542
 3166SOL    HW111337   6.856   1.217   3.583
 3166SOL    HW211338   6.792   1.085   3.546
 3167SOL     OW11339   7.112  11.945   2.355
 3167SOL    HW111340   7.145  11.999   2.427
 3167SOL    HW211341   7.178  11.876   2.345
 3168SOL     OW11342   1.128   4.439   7.716
 3168SOL    HW111343   1.051   4.396   7.754
 3168SOL    HW211344   1.202   4.396   7.757
 3169SOL     OW11345   9.823   5.638  14.356
 3169SOL    HW111346   9.787   5.670  14.439
 3169SOL    HW211347   9.769   5.563  14.333
 3170SOL     OW11348   8.299   8.092   9.885
 3170SOL    HW111349   8.242   8.018   9.908
 3170SOL    HW211350   8.282   8.157   9.953
 3171SOL     OW11351  14.416   0.516  11.751
 3171SOL    HW111352  14.420   0.481  11.840
 3171SOL    HW211353  14.507   0.517  11.722
 3172SOL     OW11354  13.095  10.329   6.935
 3172SOL    HW111355  13.177  10.331   6.985
 3172SOL    HW211356  13.114  10.382   6.858
 3173SOL     OW11357   0.049  11.015   6.035
 3173SOL    HW111358  14.865  11.042   5.964
 3173SOL    HW211359   0.121  10.969   5.991
 3174SOL     OW11360   7.749  14.139  12.645
 3174SOL    HW111361   7.672  14.190  12.668
 3174SOL    HW211362   7.787  14.113  12.729
 3175SOL     OW11363   7.637  13.064  11.207
 3175SOL    HW111364   7.713  13.121  11.217
 3175SOL    HW211365   7.666  12.994  11.148
 3176SOL     OW11366   9.984   1.171   8.258
 3176SOL    HW111367   9.938   1.168   8.341
 3176SOL    HW211368   9.917   1.152   8.192
 3177SOL     OW11369  10.728   5.864   5.636
 3177SOL    HW111370  10.773   5.880   5.553
 3177SOL    HW211371  10.651   5.812   5.612
 3178SOL     OW11372   1.674  13.489  14.503
 3178SOL    HW111373   1.684  13.402  14.464
 3178SOL    HW211374   1.756  13.533  14.484
 3179SOL     OW11375   4.946  14.710  10.621
 3179SOL    HW111376   4.982  14.720  10.533
 3179SOL    HW211377   4.870  14.768  10.622
 3180SOL     OW11378  14.686   1.076   5.409
 3180SOL    HW111379  14.776   1.098   5.388
 3180SOL    HW211380  14.691   1.036   5.496
 3181SOL     OW11381   4.492   2.150   6.033
 3181SOL    HW111382   4.415   2.160   6.090
 3181SOL    HW211383   4.478   2.212   5.962
 3182SOL     OW11384   8.843  12.689   9.983
 3182SOL    HW111385   8.831  12.601  10.021
 3182SOL    HW211386   8.921  12.680   9.927
 3183SOL     OW11387  10.205   1.713   2.554
 3183SOL    HW111388  10.181   1.744   2.641
 3183SOL    HW211389  10.299   1.697   2.559
 3184SOL     OW11390   0.914   1.776  10.318
 3184SOL    HW111391   0.881   1.687  10.322
 3184SOL    HW211392   0.986   1.778  10.381
 3185SOL     OW11393   7.166   1.303   5.487
 3185SOL    HW111394   7.240   1.364   5.482
 3185SOL    HW211395   7.191   1.231   5.430
 3186SOL     OW11396   0.665  11.645   0.878
 3186SOL    HW111397   0.578  11.678   0.857
 3186SOL    HW211398   0.705  11.626   0.793
 3187SOL     OW11399  13.483  14.249  10.761
 3187SOL    HW111400  13.427  14.325  10.743
 3187SOL    HW211401  13.513  14.221  10.675
 3188SOL     OW11402   8.242   9.370  12.340
 3188SOL    HW111403   8.243   9.368  12.435
 3188SOL    HW211404   8.166   9.316  12.316
 3189SOL     OW11405   3.667   6.412   6.700
 3189SOL    HW111406   3.713   6.496   6.702
 3189SOL    HW211407   3.613   6.412   6.779
 3190SOL     OW11408   1.335  11.295   4.913
 3190SOL    HW111409   1.283  11.365   4.954
 3190SOL    HW211410   1.422  11.305   4.952
 3191SOL     OW11411   8.351  14.858  14.653
 3191SOL    HW111412   8.361  14.817  14.567
 3191SOL    HW211413   8.347  14.784  14.714
 3192SOL     OW11414   7.651   3.334   4.706
 3192SOL    HW111415   7.703   3.261   4.741
 3192SOL    HW211416   7.630   3.387   4.782
 3193SOL     OW11417  14.811   9.086  13.054
 3193SOL    HW111418   0.003   9.105  13.121
 3193SOL    HW211419  14.854   9.110  12.971
 3194SOL     OW11420  11.153  12.915   9.342
 3194SOL    HW111421  11.165  12.994   9.290
 3194SOL    HW211422  11.201  12.847   9.294
 3195SOL     OW11423  14.207  14.676  11.316
 3195SOL    HW111424  14.286  14.693  11.366
 3195SOL    HW211425  14.238  14.657  11.227
 3196SOL     OW11426   0.398  13.872   6.416
 3196SOL    HW111427   0.382  13.796   6.471
 3196SOL    HW211428   0.494  13.877   6.408
 3197SOL     OW11429   1.210  12.374   1.366
 3197SOL    HW111430   1.287  12.339   1.411
 3197SOL    HW211431   1.191  12.309   1.298
 3198SOL     OW11432   9.032   3.308   3.663
 3198SOL    HW111433   9.103   3.370   3.642
 3198SOL    HW211434   9.043   3.291   3.756
 3199SOL     OW11435   9.832   8.917   5.206
 3199SOL    HW111436   9.780   8.968   5.144
 3199SOL    HW211437   9.768   8.879   5.266
 3200SOL     OW11438   5.790   6.011  12.096
 3200SOL    HW111439   5.701   5.978  12.111
 3200SOL    HW211440   5.807   6.068  12.172
 3201SOL     OW11441   5.399   5.139   9.430
 3201SOL    HW111442   5.332   5.081   9.465
 3201SOL    HW211443   5.413   5.204   9.499
 3202SOL     OW11444  13.019   8.227  10.927
 3202SOL    HW111445  12.930   8.218  10.892
 3202SOL    HW211446  13.032   8.149  10.980
 3203SOL     OW11447   0.836   8.954  11.940
 3203SOL    HW111448   0.903   8.887  11.925
 3203SOL    HW211449   0.771   8.912  11.996
 3204SOL     OW11450   3.633   8.701   9.059
 3204SOL    HW111451   3.540   8.696   9.082
 3204SOL    HW211452   3.641   8.779   9.004
 3205SOL     OW11453   3.786   6.934   3.025
 3205SOL    HW111454   3.794   7.028   3.045
 3205SOL    HW211455   3.722   6.929   2.955
 3206SOL     OW11456   2.287  10.799  11.188
 3206SOL    HW111457   2.280  10.757  11.102
 3206SOL    HW211458   2.264  10.731  11.250
 3207SOL     OW11459  10.859   2.826   3.496
 3207SOL    HW111460  10.773   2.860   3.521
 3207SOL    HW211461  10.917   2.902   3.503
 3208SOL     OW11462   3.526  10.201   4.544
 3208SOL    HW111463   3.610  10.230   4.579
 3208SOL    HW211464   3.493  10.138   4.608
 3209SOL     OW11465  12.397   2.522   5.135
 3209SOL    HW111466  12.476   2.467   5.137
 3209SOL    HW211467  12.362   2.510   5.047
 3210SOL     OW11468   0.479   2.608   1.583
 3210SOL    HW111469   0.436   2.667   1.521
 3210SOL    HW211470   0.565   2.647   1.597
 3211SOL     OW11471   0.753  11.179   9.281
 3211SOL    HW111472   0.739  11.254   9.339
 3211SOL    HW211473   0.835  11.139   9.313
 3212SOL     OW11474   0.423  12.037   4.878
 3212SOL    HW111475   0.397  11.968   4.939
 3212SOL    HW211476   0.509  12.065   4.909
 3213SOL     OW11477   5.235  11.213  11.155
 3213SOL    HW111478   5.236  11.193  11.249
 3213SOL    HW211479   5.159  11.271  11.144
 3214SOL     OW11480   5.063  11.835   3.862
 3214SOL    HW111481   4.993  11.882   3.908
 3214SOL    HW211482   5.021  11.798   3.784
 3215SOL     OW11483  13.664   4.744  13.119
 3215SOL    HW111484  13.604   4.806  13.078
 3215SOL    HW211485  13.684   4.679  13.051
 3216SOL     OW11486  10.727   8.456   1.912
 3216SOL    HW111487  10.747   8.369   1.946
 3216SOL    HW211488  10.800   8.476   1.853
 3217SOL     OW11489   7.399  13.666   5.458
 3217SOL    HW111490   7.384  13.689   5.550
 3217SOL    HW211491   7.476  13.717   5.433
 3218SOL     OW11492  11.008  11.066   5.265
 3218SOL    HW111493  11.001  11.158   5.290
 3218SOL    HW211494  11.102  11.052   5.254
 3219SOL     OW11495   9.270   9.188  11.545
 3219SOL    HW111496   9.306   9.256  11.489
 3219SOL    HW211497   9.325   9.188  11.623
 3220SOL     OW11498   2.453   9.088  14.549
 3220SOL    HW111499   2.434   9.012  14.494
 3220SOL    HW211500   2.370   9.108  14.592
 3221SOL     OW11501   4.733   9.386   1.848
 3221SOL    HW111502   4.717   9.317   1.912
 3221SOL    HW211503   4.683   9.360   1.771
 3222SOL     OW11504   9.402   0.559   6.945
 3222SOL    HW111505   9.358   0.638   6.975
 3222SOL    HW211506   9.365   0.489   6.999
 3223SOL     OW11507   5.252  12.413   2.331
 3223SOL    HW111508   5.271  12.458   2.414
 3223SOL    HW211509   5.256  12.320   2.353
 3224SOL     OW11510   7.207   4.191  10.004
 3224SOL    HW111511   7.204   4.098  10.025
 3224SOL    HW211512   7.115   4.214   9.989
 3225SOL     OW11513  13.643   0.629  11.336
 3225SOL    HW111514  13.681   0.618  11.423
 3225SOL    HW211515  13.594   0.548  11.321
 3226SOL     OW11516  13.410   7.894   7.285
 3226SOL    HW111517  13.333   7.849   7.250
 3226SOL    HW211518  13.480   7.873   7.223
 3227SOL     OW11519   1.653  11.412   8.120
 3227SOL    HW111520   1.668  11.506   8.120
 3227SOL    HW211521   1.560  11.402   8.097
 3228SOL     OW11522   7.975   0.953   0.617
 3228SOL    HW111523   8.046   0.894   0.644
 3228SOL    HW211524   8.019   1.025   0.573
 3229SOL     OW11525   3.098  12.920   5.861
 3229SOL    HW111526   3.147  12.973   5.798
 3229SOL    HW211527   3.069  12.983   5.928
 3230SOL     OW11528   1.611   8.235  11.740
 3230SOL    HW111529   1.546   8.192  11.684
 3230SOL    HW211530   1.671   8.278  11.679
 3231SOL     OW11531   3.423  13.508   7.190
 3231SOL    HW111532   3.405  13.414   7.189
 3231SOL    HW211533   3.492  13.519   7.255
 3232SOL     OW11534  14.482   6.702   5.507
 3232SOL    HW111535  14.442   6.657   5.433
 3232SOL    HW211536  14.447   6.791   5.502
 3233SOL     OW11537   6.141  14.147   0.256
 3233SOL    HW111538   6.094  14.070   0.288
 3233SOL    HW211539   6.203  14.169   0.326
 3234SOL     OW11540   6.015   5.782   9.570
 3234SOL    HW111541   6.032   5.762   9.478
 3234SOL    HW211542   6.083   5.846   9.594
 3235SOL     OW11543   3.362   6.615  10.101
 3235SOL    HW111544   3.289   6.552  10.099
 3235SOL    HW211545   3.436   6.566  10.064
 3236SOL     OW11546  13.945   3.971  12.158
 3236SOL    HW111547  13.941   4.012  12.071
 3236SOL    HW211548  13.888   4.024  12.212
 3237SOL     OW11549   5.198   5.726   5.401
 3237SOL    HW111550   5.192   5.668   5.477
 3237SOL    HW211551   5.111   5.765   5.394
 3238SOL     OW11552   1.954   0.592  12.054
 3238SOL    HW111553   1.958   0.686  12.075
 3238SOL    HW211554   1.913   0.589  11.967
 3239SOL     OW11555   1.650   5.290  14.471
 3239SOL    HW111556   1.697   5.373  14.479
 3239SOL    HW211557   1.715   5.228  14.437
 3240SOL     OW11558   7.701  11.662   5.074
 3240SOL    HW111559   7.673  11.660   4.983
 3240SOL    HW211560   7.785  11.618   5.075
 3241SOL     OW11561   9.002   4.809   3.028
 3241SOL    HW111562   9.059   4.829   2.954
 3241SOL    HW211563   9.045   4.737   3.073
 3242SOL     OW11564   4.230   6.544  12.188
 3242SOL    HW111565   4.298   6.578  12.131
 3242SOL    HW211566   4.277   6.511  12.265
 3243SOL     OW11567   1.646   2.205   0.066
 3243SOL    HW111568   1.679   2.177   0.151
 3243SOL    HW211569   1.585   2.276   0.086
 3244SOL     OW11570  10.987  11.194   8.912
 3244SOL    HW111571  11.033  11.262   8.962
 3244SOL    HW211572  10.900  11.230   8.897
 3245SOL     OW11573   0.467   6.344   7.893
 3245SOL    HW111574   0.501   6.256   7.873
 3245SOL    HW211575   0.379   6.328   7.927
 3246SOL     OW11576  13.702   3.503  11.462
 3246SOL    HW111577  13.623   3.451  11.449
 3246SOL    HW211578  13.751   3.457  11.530
 3247SOL     OW11579  14.392  11.419   0.786
 3247SOL    HW111580  14.362  11.330   0.803
 3247SOL    HW211581  14.460  11.409   0.719
 3248SOL     OW11582   2.475   6.474   4.002
 3248SOL    HW111583   2.446   6.563   4.021
 3248SOL    HW211584   2.441   6.422   4.075
 3249SOL     OW11585   5.585   8.731   1.416
 3249SOL    HW111586   5.511   8.791   1.423
 3249SOL    HW211587   5.656   8.776   1.462
 3250SOL     OW11588   5.246   1.551   8.894
 3250SOL    HW111589   5.307   1.568   8.822
 3250SOL    HW211590   5.215   1.462   8.877
 3251SOL     OW11591   6.060   4.391   0.084
 3251SOL    HW111592   5.971   4.421   0.099
 3251SOL    HW211593   6.075   4.404  14.864
 3252SOL     OW11594   5.134   8.466  10.985
 3252SOL    HW111595   5.101   8.552  10.959
 3252SOL    HW211596   5.228   8.470  10.969
 3253SOL     OW11597   3.168   5.979   5.809
 3253SOL    HW111598   3.087   6.022   5.836
 3253SOL    HW211599   3.147   5.939   5.725
 3254SOL     OW11600   6.856   6.366   6.006
 3254SOL    HW111601   6.894   6.452   5.989
 3254SOL    HW211602   6.769   6.385   6.043
 3255SOL     OW11603  13.415  13.320   0.069
 3255SOL    HW111604  13.329  13.305   0.109
 3255SOL    HW211605  13.399  13.385   0.001
 3256SOL     OW11606   8.980   8.662   8.572
 3256SOL    HW111607   9.028   8.582   8.592
 3256SOL    HW211608   8.893   8.648   8.609
 3257SOL     OW11609   3.889   9.562  13.151
 3257SOL    HW111610   3.916   9.592  13.065
 3257SOL    HW211611   3.967   9.524  13.190
 3258SOL     OW11612  13.421   6.897  10.879
 3258SOL    HW111613  13.466   6.896  10.794
 3258SOL    HW211614  13.350   6.833  10.870
 3259SOL     OW11615  11.983   3.601   5.613
 3259SOL    HW111616  12.017   3.549   5.687
 3259SOL    HW211617  12.061   3.630   5.567
 3260SOL     OW11618   4.190   7.977   3.710
 3260SOL    HW111619   4.152   8.052   3.664
 3260SOL    HW211620   4.254   7.940   3.648
 3261SOL     OW11621  10.697  11.362   6.656
 3261SOL    HW111622  10.730  11.334   6.571
 3261SOL    HW211623  10.606  11.389   6.638
 3262SOL     OW11624   9.343   0.387  14.691
 3262SOL    HW111625   9.284   0.438  14.747
 3262SOL    HW211626   9.340   0.299  14.727
 3263SOL     OW11627   3.480  13.210   0.965
 3263SOL    HW111628   3.571  13.192   0.989
 3263SOL    HW211629   3.462  13.150   0.892
 3264SOL     OW11630  14.859  13.269   4.509
 3264SOL    HW111631   0.001  13.216   4.431
 3264SOL    HW211632   0.038  13.348   4.495
 3265SOL     OW11633   8.846  13.903   1.772
 3265SOL    HW111634   8.933  13.932   1.746
 3265SOL    HW211635   8.840  13.922   1.866
 3266SOL     OW11636  10.484   0.213  11.849
 3266SOL    HW111637  10.434   0.146  11.802
 3266SOL    HW211638  10.455   0.296  11.809
 3267SOL     OW11639   5.710  11.496   4.201
 3267SOL    HW111640   5.803  11.512   4.180
 3267SOL    HW211641   5.704  11.514   4.295
 3268SOL     OW11642   2.384   6.372  10.623
 3268SOL    HW111643   2.463   6.386  10.569
 3268SOL    HW211644   2.311   6.382  10.561
 3269SOL     OW11645   6.670  12.967   1.563
 3269SOL    HW111646   6.716  13.036   1.516
 3269SOL    HW211647   6.671  12.892   1.504
 3270SOL     OW11648   6.871   6.091   5.017
 3270SOL    HW111649   6.923   6.124   5.090
 3270SOL    HW211650   6.781   6.118   5.038
 3271SOL     OW11651   4.609   5.505  14.776
 3271SOL    HW111652   4.681   5.461  14.730
 3271SOL    HW211653   4.587   5.446  14.848
 3272SOL     OW11654   6.409  11.434   5.960
 3272SOL    HW111655   6.376  11.380   5.889
 3272SOL    HW211656   6.395  11.382   6.039
 3273SOL     OW11657   3.281  13.052   8.545
 3273SOL    HW111658   3.338  12.987   8.587
 3273SOL    HW211659   3.290  13.131   8.598
 3274SOL     OW11660  10.992   3.855   4.204
 3274SOL    HW111661  10.903   3.823   4.191
 3274SOL    HW211662  11.035   3.844   4.119
 3275SOL     OW11663   8.920  14.177   3.903
 3275SOL    HW111664   8.860  14.248   3.925
 3275SOL    HW211665   8.969  14.159   3.983
 3276SOL     OW11666   0.795   2.771  11.453
 3276SOL    HW111667   0.738   2.825  11.508
 3276SOL    HW211668   0.868   2.747  11.510
 3277SOL     OW11669   0.822   0.282  10.422
 3277SOL    HW111670   0.789   0.204  10.467
 3277SOL    HW211671   0.818   0.351  10.489
 3278SOL     OW11672  13.911   8.328   8.718
 3278SOL    HW111673  14.005   8.326   8.736
 3278SOL    HW211674  13.870   8.331   8.804
 3279SOL     OW11675  13.190  12.728   3.157
 3279SOL    HW111676  13.236  12.647   3.181
 3279SOL    HW211677  13.192  12.781   3.237
 3280SOL     OW11678   7.043   2.549  13.748
 3280SOL    HW111679   6.959   2.512  13.778
 3280SOL    HW211680   7.063   2.617  13.813
 3281SOL     OW11681   7.431   4.892   7.804
 3281SOL    HW111682   7.515   4.847   7.804
 3281SOL    HW211683   7.403   4.891   7.712
 3282SOL     OW11684   1.614   8.045  13.925
 3282SOL    HW111685   1.540   8.012  13.874
 3282SOL    HW211686   1.673   8.083  13.861
 3283SOL     OW11687   8.845   4.838   1.106
 3283SOL    HW111688   8.932   4.845   1.146
 3283SOL    HW211689   8.819   4.747   1.122
 3284SOL     OW11690  11.763  14.628   0.192
 3284SOL    HW111691  11.827  14.659   0.128
 3284SOL    HW211692  11.694  14.587   0.140
 3285SOL     OW11693   5.607  10.851  13.577
 3285SOL    HW111694   5.651  10.932  13.605
 3285SOL    HW211695   5.647  10.782  13.629
 3286SOL     OW11696   4.471   4.989  13.715
 3286SOL    HW111697   4.491   5.007  13.807
 3286SOL    HW211698   4.548   5.021  13.668
 3287SOL     OW11699   4.426   5.066  12.460
 3287SOL    HW111700   4.367   5.137  12.436
 3287SOL    HW211701   4.458   5.090  12.547
 3288SOL     OW11702   5.170   6.540   9.743
 3288SOL    HW111703   5.258   6.501   9.749
 3288SOL    HW211704   5.187   6.633   9.727
 3289SOL     OW11705  14.637   5.369  10.407
 3289SOL    HW111706  14.727   5.365  10.374
 3289SOL    HW211707  14.585   5.394  10.331
 3290SOL     OW11708  12.136   4.338   0.460
 3290SOL    HW111709  12.216   4.330   0.409
 3290SOL    HW211710  12.072   4.286   0.411
 3291SOL     OW11711  10.308  14.191  12.598
 3291SOL    HW111712  10.214  14.205  12.588
 3291SOL    HW211713  10.316  14.100  12.629
 3292SOL     OW11714   0.011  14.114  11.918
 3292SOL    HW111715   0.076  14.163  11.868
 3292SOL    HW211716  14.828  14.075  11.851
 3293SOL     OW11717   4.045  10.741  11.350
 3293SOL    HW111718   4.121  10.788  11.385
 3293SOL    HW211719   3.999  10.709  11.427
 3294SOL     OW11720   9.791   5.542  11.246
 3294SOL    HW111721   9.779   5.606  11.175
 3294SOL    HW211722   9.872   5.570  11.290
 3295SOL     OW11723   7.230  10.855  14.524
 3295SOL    HW111724   7.172  10.780  14.535
 3295SOL    HW211725   7.252  10.881  14.614
 3296SOL     OW11726   6.507  12.307  13.788
 3296SOL    HW111727   6.481  12.302  13.696
 3296SOL    HW211728   6.599  12.281  13.788
 3297SOL     OW11729   3.334  12.395   9.782
 3297SOL    HW111730   3.425  12.380   9.754
 3297SOL    HW211731   3.300  12.308   9.801
 3298SOL     OW11732   3.550   5.091   0.433
 3298SOL    HW111733   3.610   5.129   0.498
 3298SOL    HW211734   3.607   5.047   0.370
 3299SOL     OW11735   5.349   4.681   9.035
 3299SOL    HW111736   5.300   4.629   8.972
 3299SOL    HW211737   5.283   4.717   9.094
 3300SOL     OW11738  10.611  14.163   7.332
 3300SOL    HW111739  10.637  14.233   7.273
 3300SOL    HW211740  10.525  14.136   7.302
 3301SOL     OW11741  14.746   1.590   4.335
 3301SOL    HW111742  14.838   1.578   4.358
 3301SOL    HW211743  14.745   1.668   4.279
 3302SOL     OW11744  14.687  13.586   4.294
 3302SOL    HW111745  14.666  13.655   4.231
 3302SOL    HW211746  14.641  13.610   4.374
 3303SOL     OW11747   8.001  12.603   6.233
 3303SOL    HW111748   8.089  12.591   6.197
 3303SOL    HW211749   8.015  12.630   6.324
 3304SOL     OW11750   7.954  14.817  10.964
 3304SOL    HW111751   7.919  14.773  11.041
 3304SOL    HW211752   8.036  14.771  10.945
 3305SOL     OW11753  11.010   1.839   4.925
 3305SOL    HW111754  11.004   1.928   4.960
 3305SOL    HW211755  11.082   1.798   4.973
 3306SOL     OW11756  10.048   1.766   3.767
 3306SOL    HW111757   9.981   1.773   3.699
 3306SOL    HW211758  10.000   1.740   3.846
 3307SOL     OW11759   5.547   0.704   3.697
 3307SOL    HW111760   5.460   0.742   3.706
 3307SOL    HW211761   5.560   0.695   3.602
 3308SOL     OW11762   2.448   0.414  14.139
 3308SOL    HW111763   2.361   0.387  14.109
 3308SOL    HW211764   2.493   0.441  14.059
 3309SOL     OW11765   3.614   6.750   1.162
 3309SOL    HW111766   3.648   6.661   1.155
 3309SOL    HW211767   3.529   6.740   1.204
 3310SOL     OW11768   1.033   2.301  14.305
 3310SOL    HW111769   1.013   2.228  14.247
 3310SOL    HW211770   1.088   2.359  14.252
 3311SOL     OW11771   1.605   9.050   8.505
 3311SOL    HW111772   1.571   9.055   8.595
 3311SOL    HW211773   1.548   8.987   8.462
 3312SOL     OW11774  12.551   0.463   2.303
 3312SOL    HW111775  12.491   0.537   2.304
 3312SOL    HW211776  12.544   0.425   2.391
 3313SOL     OW11777   1.026   7.252   6.170
 3313SOL    HW111778   1.023   7.210   6.256
 3313SOL    HW211779   1.021   7.345   6.188
 3314SOL     OW11780   7.265   9.531  13.142
 3314SOL    HW111781   7.310   9.451  13.115
 3314SOL    HW211782   7.176   9.501  13.164
 3315SOL     OW11783   5.422  14.422   7.602
 3315SOL    HW111784   5.474  14.474   7.542
 3315SOL    HW211785   5.331  14.437   7.574
 3316SOL     OW11786  11.910   8.181   9.799
 3316SOL    HW111787  11.821   8.188   9.834
 3316SOL    HW211788  11.930   8.269   9.768
 3317SOL     OW11789  13.465   9.911   2.342
 3317SOL    HW111790  13.373   9.904   2.368
 3317SOL    HW211791  13.500   9.823   2.356
 3318SOL     OW11792   5.473   1.865   4.378
 3318SOL    HW111793   5.450   1.773   4.381
 3318SOL    HW211794   5.393   1.909   4.347
 3319SOL     OW11795   1.426   6.019  10.138
 3319SOL    HW111796   1.465   6.107  10.133
 3319SOL    HW211797   1.332   6.034  10.125
 3320SOL     OW11798   2.141  11.571   4.078
 3320SOL    HW111799   2.171  11.482   4.098
 3320SOL    HW211800   2.212  11.608   4.024
 3321SOL     OW11801   9.531  14.299  11.037
 3321SOL    HW111802   9.514  14.330  11.126
 3321SOL    HW211803   9.623  14.319  11.022
 3322SOL     OW11804  14.750   4.686   1.305
 3322SOL    HW111805  14.693   4.610   1.318
 3322SOL    HW211806  14.836   4.647   1.285
 3323SOL     OW11807   1.279  10.407   2.616
 3323SOL    HW111808   1.258  10.321   2.653
 3323SOL    HW211809   1.300  10.461   2.691
 3324SOL     OW11810   5.056  11.116   5.739
 3324SOL    HW111811   5.119  11.164   5.686
 3324SOL    HW211812   5.106  11.085   5.814
 3325SOL     OW11813   5.613   5.147   9.245
 3325SOL    HW111814   5.626   5.054   9.224
 3325SOL    HW211815   5.538   5.148   9.306
 3326SOL     OW11816   6.290   7.933   0.523
 3326SOL    HW111817   6.380   7.909   0.545
 3326SOL    HW211818   6.277   7.898   0.435
 3327SOL     OW11819   2.073   1.493   5.323
 3327SOL    HW111820   2.158   1.514   5.284
 3327SOL    HW211821   2.065   1.553   5.397
 3328SOL     OW11822   3.570  11.813  14.214
 3328SOL    HW111823   3.564  11.717  14.211
 3328SOL    HW211824   3.495  11.843  14.163
 3329SOL     OW11825   9.074   5.881  11.401
 3329SOL    HW111826   9.148   5.874  11.340
 3329SOL    HW211827   9.061   5.791  11.432
 3330SOL     OW11828   8.919   6.942  14.495
 3330SOL    HW111829   8.882   7.024  14.463
 3330SOL    HW211830   8.967   6.907  14.420
 3331SOL     OW11831  13.070   3.837  11.009
 3331SOL    HW111832  13.037   3.836  11.099
 3331SOL    HW211833  12.992   3.825  10.955
 3332SOL     OW11834   5.437  10.637   6.352
 3332SOL    HW111835   5.532  10.644   6.363
 3332SOL    HW211836   5.401  10.702   6.411
 3333SOL     OW11837  13.755  10.479   2.886
 3333SOL    HW111838  13.722  10.546   2.826
 3333SOL    HW211839  13.813  10.526   2.946
 3334SOL     OW11840   7.866   4.756   7.091
 3334SOL    HW111841   7.945   4.711   7.061
 3334SOL    HW211842   7.881   4.848   7.069
 3335SOL     OW11843   6.768  11.017   0.798
 3335SOL    HW111844   6.750  10.934   0.842
 3335SOL    HW211845   6.788  11.078   0.868
 3336SOL     OW11846   3.464   8.866   7.233
 3336SOL    HW111847   3.496   8.794   7.180
 3336SOL    HW211848   3.508   8.856   7.318
 3337SOL     OW11849   5.513   2.796   5.686
 3337SOL    HW111850   5.525   2.841   5.770
 3337SOL    HW211851   5.419   2.803   5.669
 3338SOL     OW11852  11.774   1.940   3.416
 3338SOL    HW111853  11.736   1.871   3.362
 3338SOL    HW211854  11.805   1.896   3.495
 3339SOL     OW11855   2.621   3.793   7.327
 3339SOL    HW111856   2.572   3.843   7.263
 3339SOL    HW211857   2.670   3.729   7.275
 3340SOL     OW11858   9.576  13.465   9.066
 3340SOL    HW111859   9.646  13.427   9.012
 3340SOL    HW211860   9.620  13.493   9.147
 3341SOL     OW11861   0.955   9.337  11.315
 3341SOL    HW111862   1.000   9.262  11.352
 3341SOL    HW211863   0.982   9.411  11.370
 3342SOL     OW11864   3.708   5.773  12.409
 3342SOL    HW111865   3.705   5.857  12.455
 3342SOL    HW211866   3.740   5.711  12.474
 3343SOL     OW11867   2.180  14.063   0.077
 3343SOL    HW111868   2.140  14.001   0.015
 3343SOL    HW211869   2.113  14.078   0.143
 3344SOL     OW11870   1.328   6.258   7.348
 3344SOL    HW111871   1.329   6.315   7.425
 3344SOL    HW211872   1.293   6.175   7.381
 3345SOL     OW11873   4.007   7.910  12.252
 3345SOL    HW111874   4.015   7.941  12.342
 3345SOL    HW211875   4.096   7.888  12.226
 3346SOL     OW11876   8.114  13.983  13.463
 3346SOL    HW111877   8.043  13.987  13.527
 3346SOL    HW211878   8.142  13.891  13.464
 3347SOL     OW11879  13.066   7.532  10.997
 3347SOL    HW111880  13.121   7.480  10.938
 3347SOL    HW211881  13.041   7.472  11.067
 3348SOL     OW11882  10.518   5.763  14.548
 3348SOL    HW111883  10.590   5.750  14.610
 3348SOL    HW211884  10.447   5.799  14.601
 3349SOL     OW11885   0.825   7.036   8.576
 3349SOL    HW111886   0.898   6.977   8.594
 3349SOL    HW211887   0.840   7.111   8.634
 3350SOL     OW11888  10.669   2.468  13.074
 3350SOL    HW111889  10.669   2.560  13.046
 3350SOL    HW211890  10.699   2.419  12.998
 3351SOL     OW11891   4.413   3.216   2.714
 3351SOL    HW111892   4.318   3.219   2.700
 3351SOL    HW211893   4.425   3.161   2.791
 3352SOL     OW11894   2.480   0.771   7.764
 3352SOL    HW111895   2.506   0.691   7.810
 3352SOL    HW211896   2.431   0.741   7.688
 3353SOL     OW11897  13.185   9.562   9.437
 3353SOL    HW111898  13.181   9.626   9.508
 3353SOL    HW211899  13.248   9.496   9.466
 3354SOL     OW11900  13.365   1.854  11.388
 3354SOL    HW111901  13.296   1.800  11.426
 3354SOL    HW211902  13.372   1.824  11.297
 3355SOL     OW11903   3.342   2.272   3.331
 3355SOL    HW111904   3.390   2.194   3.302
 3355SOL    HW211905   3.274   2.284   3.264
 3356SOL     OW11906  14.506   8.652  13.605
 3356SOL    HW111907  14.540   8.614  13.687
 3356SOL    HW211908  14.575   8.636  13.541
 3357SOL     OW11909  12.002   6.449   3.524
 3357SOL    HW111910  11.943   6.429   3.597
 3357SOL    HW211911  12.069   6.506   3.562
 3358SOL     OW11912   6.868  10.162   5.350
 3358SOL    HW111913   6.895  10.110   5.274
 3358SOL    HW211914   6.942  10.220   5.366
 3359SOL     OW11915   7.580   1.586  11.779
 3359SOL    HW111916   7.573   1.509  11.835
 3359SOL    HW211917   7.663   1.627  11.805
 3360SOL     OW11918   2.833   3.930  13.975
 3360SOL    HW111919   2.810   3.899  14.063
 3360SOL    HW211920   2.753   3.970  13.942
 3361SOL     OW11921   5.639  11.156   8.256
 3361SOL    HW111922   5.582  11.098   8.205
 3361SOL    HW211923   5.719  11.104   8.270
 3362SOL     OW11924   0.044  12.144  10.337
 3362SOL    HW111925  14.850  12.139  10.270
 3362SOL    HW211926   0.024  12.072  10.397
 3363SOL     OW11927   9.188  11.925  14.287
 3363SOL    HW111928   9.280  11.901  14.302
 3363SOL    HW211929   9.156  11.858  14.227
 3364SOL     OW11930   0.056   8.892   0.921
 3364SOL    HW111931   0.043   8.854   0.834
 3364SOL    HW211932   0.103   8.825   0.970
 3365SOL     OW11933  11.633   4.806   5.068
 3365SOL    HW111934  11.707   4.866   5.066
 3365SOL    HW211935  11.601   4.812   5.158
 3366SOL     OW11936   4.920  12.860  12.032
 3366SOL    HW111937   4.848  12.922  12.022
 3366SOL    HW211938   4.931  12.852  12.127
 3367SOL     OW11939  13.422  11.379  11.233
 3367SOL    HW111940  13.476  11.414  11.162
 3367SOL    HW211941  13.459  11.419  11.313
 3368SOL     OW11942   4.972   6.441   8.700
 3368SOL    HW111943   5.031   6.399   8.763
 3368SOL    HW211944   5.027   6.505   8.656
 3369SOL     OW11945  11.574  12.677   0.372
 3369SOL    HW111946  11.663  12.695   0.344
 3369SOL    HW211947  11.567  12.717   0.458
 3370SOL     OW11948   3.904   9.821   2.741
 3370SOL    HW111949   3.899   9.892   2.677
 3370SOL    HW211950   3.851   9.852   2.815
 3371SOL     OW11951  14.565   4.887  14.753
 3371SOL    HW111952  14.530   4.976  14.762
 3371SOL    HW211953  14.542   4.862  14.663
 3372SOL     OW11954   5.710   8.586  11.960
 3372SOL    HW111955   5.802   8.611  11.973
 3372SOL    HW211956   5.702   8.499  11.999
 3373SOL     OW11957   1.794  12.299   0.990
 3373SOL    HW111958   1.713  12.256   0.962
 3373SOL    HW211959   1.809  12.365   0.922
 3374SOL     OW11960  14.306   7.244  14.332
 3374SOL    HW111961  14.344   7.237  14.419
 3374SOL    HW211962  14.214   7.220  14.344
 3375SOL     OW11963   6.965   6.688   5.153
 3375SOL    HW111964   6.998   6.634   5.225
 3375SOL    HW211965   6.957   6.776   5.190
 3376SOL     OW11966   5.503  12.980   1.756
 3376SOL    HW111967   5.479  12.902   1.706
 3376SOL    HW211968   5.570  12.949   1.818
 3377SOL     OW11969   2.768  13.433   5.161
 3377SOL    HW111970   2.779  13.338   5.167
 3377SOL    HW211971   2.851  13.469   5.192
 3378SOL     OW11972  13.481   4.069   3.971
 3378SOL    HW111973  13.388   4.085   3.990
 3378SOL    HW211974  13.517   4.156   3.953
 3379SOL     OW11975   2.240  11.981   5.285
 3379SOL    HW111976   2.203  12.009   5.369
 3379SOL    HW211977   2.246  12.062   5.234
 3380SOL     OW11978  10.265   8.818  13.097
 3380SOL    HW111979  10.347   8.773  13.116
 3380SOL    HW211980  10.197   8.756  13.123
 3381SOL     OW11981   4.032  11.960   6.441
 3381SOL    HW111982   3.938  11.977   6.429
 3381SOL    HW211983   4.063  12.034   6.494
 3382SOL     OW11984   7.468  13.473  14.619
 3382SOL    HW111985   7.469  13.486  14.524
 3382SOL    HW211986   7.439  13.383  14.631
 3383SOL     OW11987   9.475   8.693   8.943
 3383SOL    HW111988   9.541   8.681   9.011
 3383SOL    HW211989   9.525   8.698   8.862
 3384SOL     OW11990   9.779   2.032   7.559
 3384SOL    HW111991   9.700   2.081   7.581
 3384SOL    HW211992   9.841   2.098   7.528
 3385SOL     OW11993   6.371  14.761   4.312
 3385SOL    HW111994   6.326  14.716   4.241
 3385SOL    HW211995   6.427  14.694   4.352
 3386SOL     OW11996   3.350  11.070   3.358
 3386SOL    HW111997   3.368  10.980   3.386
 3386SOL    HW211998   3.275  11.062   3.299
 3387SOL     OW11999   3.630   7.428  14.234
 3387SOL    HW112000   3.721   7.407  14.216
 3387SOL    HW212001   3.609   7.498  14.171
 3388SOL     OW12002   1.107   7.509   9.219
 3388SOL    HW112003   1.045   7.485   9.150
 3388SOL    HW212004   1.167   7.571   9.177
 3389SOL     OW12005   0.684   0.759  10.067
 3389SOL    HW112006   0.748   0.691  10.045
 3389SOL    HW212007   0.601   0.726  10.033
 3390SOL     OW12008  11.496   7.423  12.321
 3390SOL    HW112009  11.409   7.462  12.320
 3390SOL    HW212010  11.496   7.364  12.245
 3391SOL     OW12011   9.260   5.578   4.113
 3391SOL    HW112012   9.222   5.662   4.140
 3391SOL    HW212013   9.318   5.554   4.186
 3392SOL     OW12014  12.872   2.202   2.149
 3392SOL    HW112015  12.831   2.183   2.065
 3392SOL    HW212016  12.965   2.181   2.135
 3393SOL     OW12017   7.661  11.465  10.609
 3393SOL    HW112018   7.594  11.400  10.626
 3393SOL    HW212019   7.680  11.504  10.694
 3394SOL     OW12020  11.978   9.782  10.318
 3394SOL    HW112021  11.938   9.696  10.321
 3394SOL    HW212022  11.913   9.837  10.274
 3395SOL     OW12023   2.585  14.596   6.752
 3395SOL    HW112024   2.680  14.593   6.751
 3395SOL    HW212025   2.562  14.674   6.701
 3396SOL     OW12026  10.448   2.769   1.074
 3396SOL    HW112027  10.368   2.743   1.028
 3396SOL    HW212028  10.518   2.759   1.009
 3397SOL     OW12029  12.884   8.431   3.593
 3397SOL    HW112030  12.796   8.441   3.557
 3397SOL    HW212031  12.876   8.459   3.684
 3398SOL     OW12032  12.198   1.444  14.846
 3398SOL    HW112033  12.123   1.418  14.791
 3398SOL    HW212034  12.168   1.524   0.016
 3399SOL     OW12035  13.273   3.763   4.039
 3399SOL    HW112036  13.218   3.812   4.100
 3399SOL    HW212037  13.262   3.807   3.955
 3400SOL     OW12038  11.746   2.917   4.374
 3400SOL    HW112039  11.701   2.923   4.458
 3400SOL    HW212040  11.697   2.850   4.326
 3401SOL     OW12041  13.971  11.310   8.409
 3401SOL    HW112042  14.054  11.269   8.383
 3401SOL    HW212043  13.924  11.241   8.457
 3402SOL     OW12044   4.617   9.003   7.159
 3402SOL    HW112045   4.538   8.976   7.206
 3402SOL    HW212046   4.680   8.933   7.175
 3403SOL     OW12047   4.568  12.809  10.678
 3403SOL    HW112048   4.506  12.752  10.724
 3403SOL    HW212049   4.571  12.774  10.588
 3404SOL     OW12050   3.394  12.568   2.698
 3404SOL    HW112051   3.478  12.578   2.653
 3404SOL    HW212052   3.389  12.645   2.755
 3405SOL     OW12053   9.582   9.935   8.489
 3405SOL    HW112054   9.585   9.853   8.440
 3405SOL    HW212055   9.663   9.980   8.466
 3406SOL     OW12056   1.530   1.168  11.987
 3406SOL    HW112057   1.620   1.164  11.954
 3406SOL    HW212058   1.475   1.166  11.908
 3407SOL     OW12059  13.093   5.060   1.343
 3407SOL    HW112060  13.173   5.086   1.297
 3407SOL    HW212061  13.041   5.013   1.277
 3408SOL     OW12062   8.476  10.073  14.326
 3408SOL    HW112063   8.516  10.018  14.258
 3408SOL    HW212064   8.549  10.103  14.380
 3409SOL     OW12065  14.742   8.594   3.206
 3409SOL    HW112066  14.833   8.621   3.197
 3409SOL    HW212067  14.713   8.575   3.117
 3410SOL     OW12068  14.057  11.557  14.102
 3410SOL    HW112069  14.080  11.636  14.151
 3410SOL    HW212070  14.122  11.492  14.130
 3411SOL     OW12071   6.678   7.336  12.052
 3411SOL    HW112072   6.743   7.399  12.082
 3411SOL    HW212073   6.725   7.279  11.991
 3412SOL     OW12074   8.140   4.148   5.299
 3412SOL    HW112075   8.200   4.210   5.258
 3412SOL    HW212076   8.179   4.131   5.385
 3413SOL     OW12077   0.843  10.535  13.138
 3413SOL    HW112078   0.831  10.612  13.192
 3413SOL    HW212079   0.799  10.465  13.186
 3414SOL     OW12080   6.583   9.704   0.836
 3414SOL    HW112081   6.579   9.761   0.913
 3414SOL    HW212082   6.676   9.686   0.824
 3415SOL     OW12083  14.336   7.191   9.292
 3415SOL    HW112084  14.282   7.166   9.367
 3415SOL    HW212085  14.416   7.227   9.331
 3416SOL     OW12086  11.965   3.661   0.501
 3416SOL    HW112087  11.963   3.670   0.596
 3416SOL    HW212088  12.023   3.586   0.485
 3417SOL     OW12089  11.092   3.006   3.513
 3417SOL    HW112090  11.099   3.020   3.608
 3417SOL    HW212091  11.143   2.927   3.497
 3418SOL     OW12092   7.439  10.397  14.014
 3418SOL    HW112093   7.429  10.456  14.088
 3418SOL    HW212094   7.416  10.449  13.938
 3419SOL     OW12095   5.140  13.145   6.626
 3419SOL    HW112096   5.163  13.106   6.542
 3419SOL    HW212097   5.113  13.235   6.605
 3420SOL     OW12098   7.929   0.557   0.585
 3420SOL    HW112099   7.859   0.603   0.631
 3420SOL    HW212100   7.911   0.464   0.601
 3421SOL     OW12101   3.885  13.743   6.666
 3421SOL    HW112102   3.856  13.731   6.757
 3421SOL    HW212103   3.817  13.796   6.626
 3422SOL     OW12104   3.154  13.220   0.817
 3422SOL    HW112105   3.084  13.211   0.753
 3422SOL    HW212106   3.209  13.291   0.784
 3423SOL     OW12107   9.839   0.459  10.905
 3423SOL    HW112108   9.852   0.416  10.989
 3423SOL    HW212109   9.924   0.450  10.861
 3424SOL     OW12110   4.774  11.023  14.261
 3424SOL    HW112111   4.725  10.949  14.227
 3424SOL    HW212112   4.749  11.030  14.353
 3425SOL     OW12113  11.584  14.050   4.114
 3425SOL    HW112114  11.565  13.973   4.060
 3425SOL    HW212115  11.679  14.057   4.112
 3426SOL     OW12116   2.093   6.526   3.318
 3426SOL    HW112117   2.003   6.535   3.286
 3426SOL    HW212118   2.143   6.497   3.242
 3427SOL     OW12119   2.419   7.689   8.664
 3427SOL    HW112120   2.388   7.719   8.749
 3427SOL    HW212121   2.487   7.752   8.640
 3428SOL     OW12122  13.118  12.617   1.147
 3428SOL    HW112123  13.155  12.602   1.060
 3428SOL    HW212124  13.070  12.699   1.139
 3429SOL     OW12125   8.200   2.416  12.721
 3429SOL    HW112126   8.148   2.339  12.746
 3429SOL    HW212127   8.284   2.380  12.692
 3430SOL     OW12128   4.370   3.889   4.967
 3430SOL    HW112129   4.330   3.847   5.043
 3430SOL    HW212130   4.439   3.828   4.940
 3431SOL     OW12131   9.877  13.799   0.546
 3431SOL    HW112132   9.784  13.818   0.563
 3431SOL    HW212133   9.890  13.824   0.455
 3432SOL     OW12134  11.853  12.977   7.271
 3432SOL    HW112135  11.889  12.975   7.182
 3432SOL    HW212136  11.797  13.055   7.272
 3433SOL     OW12137   0.378   7.801  10.750
 3433SOL    HW112138   0.295   7.774  10.789
 3433SOL    HW212139   0.412   7.867  10.810
 3434SOL     OW12140  12.724  14.197   8.138
 3434SOL    HW112141  12.661  14.246   8.191
 3434SOL    HW212142  12.673  14.164   8.064
 3435SOL     OW12143  12.952   6.971   0.404
 3435SOL    HW112144  12.870   6.991   0.449
 3435SOL    HW212145  12.977   7.052   0.361
 3436SOL     OW12146  10.674  13.138   9.979
 3436SOL    HW112147  10.651  13.094   9.897
 3436SOL    HW212148  10.700  13.066  10.038
 3437SOL     OW12149   1.897   5.452   0.974
 3437SOL    HW112150   1.930   5.536   1.005
 3437SOL    HW212151   1.964   5.389   1.002
 3438SOL     OW12152  14.395   4.043   0.320
 3438SOL    HW112153  14.457   4.100   0.275
 3438SOL    HW212154  14.446   4.002   0.390
 3439SOL     OW12155   2.475   6.066   8.314
 3439SOL    HW112156   2.415   6.032   8.380
 3439SOL    HW212157   2.442   6.154   8.294
 3440SOL     OW12158   4.326   4.014  13.832
 3440SOL    HW112159   4.361   3.962  13.759
 3440SOL    HW212160   4.296   4.095  13.790
 3441SOL     OW12161  14.594   5.365   7.988
 3441SOL    HW112162  14.599   5.409   7.904
 3441SOL    HW212163  14.545   5.425   8.044
 3442SOL     OW12164   1.702   3.928   0.445
 3442SOL    HW112165   1.652   3.883   0.376
 3442SOL    HW212166   1.707   3.865   0.516
 3443SOL     OW12167  13.972   1.556  14.664
 3443SOL    HW112168  13.906   1.534  14.598
 3443SOL    HW212169  14.055   1.527  14.626
 3444SOL     OW12170   5.809   6.156   9.033
 3444SOL    HW112171   5.758   6.138   9.112
 3444SOL    HW212172   5.754   6.127   8.961
 3445SOL     OW12173   5.240  11.206  13.142
 3445SOL    HW112174   5.298  11.281  13.156
 3445SOL    HW212175   5.195  11.225  13.059
 3446SOL     OW12176   2.173  13.264   9.348
 3446SOL    HW112177   2.137  13.184   9.311
 3446SOL    HW212178   2.136  13.268   9.436
 3447SOL     OW12179  12.048   8.187   2.479
 3447SOL    HW112180  11.956   8.163   2.484
 3447SOL    HW212181  12.055   8.269   2.529
 3448SOL     OW12182   8.023   3.358   8.654
 3448SOL    HW112183   8.036   3.437   8.601
 3448SOL    HW212184   7.990   3.293   8.592
 3449SOL     OW12185  11.045   4.033   4.421
 3449SOL    HW112186  11.055   3.968   4.352
 3449SOL    HW212187  11.003   4.107   4.379
 3450SOL     OW12188   4.258   5.040   5.465
 3450SOL    HW112189   4.282   4.948   5.458
 3450SOL    HW212190   4.206   5.058   5.387
 3451SOL     OW12191   0.913  13.923   5.443
 3451SOL    HW112192   0.941  13.833   5.457
 3451SOL    HW212193   0.843  13.937   5.507
 3452SOL     OW12194   4.948  10.839   9.639
 3452SOL    HW112195   4.961  10.868   9.729
 3452SOL    HW212196   5.037  10.820   9.607
 3453SOL     OW12197   2.349   1.954  11.906
 3453SOL    HW112198   2.413   2.020  11.932
 3453SOL    HW212199   2.335   1.969  11.813
 3454SOL     OW12200   8.257  13.025  12.150
 3454SOL    HW112201   8.301  12.950  12.111
 3454SOL    HW212202   8.302  13.038  12.233
 3455SOL     OW12203   2.330   1.796   1.595
 3455SOL    HW112204   2.268   1.765   1.530
 3455SOL    HW212205   2.333   1.891   1.581
 3456SOL     OW12206   9.606   4.295   1.676
 3456SOL    HW112207   9.568   4.215   1.713
 3456SOL    HW212208   9.690   4.267   1.640
 3457SOL     OW12209   3.630   6.851   0.093
 3457SOL    HW112210   3.721   6.877   0.111
 3457SOL    HW212211   3.637   6.760   0.066
 3458SOL     OW12212   2.942   9.969   2.830
 3458SOL    HW112213   2.957   9.882   2.793
 3458SOL    HW212214   2.921  10.024   2.755
 3459SOL     OW12215  10.336   3.314   1.375
 3459SOL    HW112216  10.337   3.219   1.386
 3459SOL    HW212217  10.415   3.333   1.323
 3460SOL     OW12218   2.213   1.325   8.358
 3460SOL    HW112219   2.135   1.289   8.401
 3460SOL    HW212220   2.213   1.283   8.272
 3461SOL     OW12221  11.608  10.729   5.443
 3461SOL    HW112222  11.645  10.738   5.531
 3461SOL    HW212223  11.571  10.641   5.442
 3462SOL     OW12224  14.351  10.426   4.195
 3462SOL    HW112225  14.268  10.403   4.153
 3462SOL    HW212226  14.378  10.507   4.152
 3463SOL     OW12227   0.327  12.081   6.960
 3463SOL    HW112228   0.341  12.146   6.891
 3463SOL    HW212229   0.254  12.028   6.929
 3464SOL     OW12230   3.559   5.017  14.546
 3464SOL    HW112231   3.497   4.977  14.486
 3464SOL    HW212232   3.623   5.061  14.490
 3465SOL     OW12233   4.384   0.155   6.079
 3465SOL    HW112234   4.360   0.152   5.987
 3465SOL    HW212235   4.340   0.233   6.113
 3466SOL     OW12236  14.361   5.098   8.474
 3466SOL    HW112237  14.422   5.138   8.536
 3466SOL    HW212238  14.294   5.057   8.529
 3467SOL     OW12239   5.914   5.229  13.025
 3467SOL    HW112240   5.850   5.259  12.960
 3467SOL    HW212241   5.976   5.302  13.033
 3468SOL     OW12242  11.811   7.230   6.023
 3468SOL    HW112243  11.890   7.275   6.055
 3468SOL    HW212244  11.822   7.227   5.928
 3469SOL     OW12245   7.908  10.495  12.593
 3469SOL    HW112246   7.935  10.405  12.576
 3469SOL    HW212247   7.813  10.494  12.583
 3470SOL     OW12248   2.982   7.152   9.820
 3470SOL    HW112249   2.886   7.157   9.822
 3470SOL    HW212250   3.005   7.117   9.906
 3471SOL     OW12251   1.066   2.113   6.157
 3471SOL    HW112252   1.116   2.186   6.119
 3471SOL    HW212253   0.978   2.148   6.170
 3472SOL     OW12254   2.836   0.523   2.360
 3472SOL    HW112255   2.911   0.578   2.381
 3472SOL    HW212256   2.785   0.520   2.442
 3473SOL     OW12257   1.260   8.431  14.142
 3473SOL    HW112258   1.189   8.457  14.201
 3473SOL    HW212259   1.230   8.457  14.055
 3474SOL     OW12260  13.242   6.342   9.202
 3474SOL    HW112261  13.312   6.281   9.226
 3474SOL    HW212262  13.176   6.287   9.160
 3475SOL     OW12263  12.907  14.840  12.489
 3475SOL    HW112264  12.994  14.860  12.525
 3475SOL    HW212265  12.862  14.792  12.558
 3476SOL     OW12266  13.875   5.740  10.590
 3476SOL    HW112267  13.831   5.810  10.637
 3476SOL    HW212268  13.883   5.669  10.654
 3477SOL     OW12269  12.869  12.799   0.988
 3477SOL    HW112270  12.900  12.719   0.946
 3477SOL    HW212271  12.818  12.844   0.921
 3478SOL     OW12272  11.162   4.997   2.802
 3478SOL    HW112273  11.249   4.992   2.841
 3478SOL    HW212274  11.165   5.073   2.744
 3479SOL     OW12275   5.308   2.822  11.356
 3479SOL    HW112276   5.330   2.823  11.263
 3479SOL    HW212277   5.323   2.912  11.386
 3480SOL     OW12278  11.000  12.423   7.670
 3480SOL    HW112279  11.037  12.348   7.716
 3480SOL    HW212280  11.025  12.409   7.578
 3481SOL     OW12281   8.659   4.641  12.314
 3481SOL    HW112282   8.695   4.655  12.401
 3481SOL    HW212283   8.607   4.719  12.295
 3482SOL     OW12284  11.708   4.773   1.342
 3482SOL    HW112285  11.801   4.752   1.333
 3482SOL    HW212286  11.703   4.826   1.421
 3483SOL     OW12287   6.902   0.421   2.238
 3483SOL    HW112288   6.922   0.344   2.185
 3483SOL    HW212289   6.887   0.491   2.174
 3484SOL     OW12290   1.758   7.359   4.986
 3484SOL    HW112291   1.668   7.364   5.019
 3484SOL    HW212292   1.813   7.367   5.065
 3485SOL     OW12293   0.679   2.574  11.771
 3485SOL    HW112294   0.661   2.482  11.750
 3485SOL    HW212295   0.594   2.609  11.799
 3486SOL     OW12296   0.303   7.983   1.054
 3486SOL    HW112297   0.261   7.915   1.000
 3486SOL    HW212298   0.265   7.971   1.141
 3487SOL     OW12299  10.392  12.978  12.433
 3487SOL    HW112300  10.310  12.929  12.438
 3487SOL    HW212301  10.381  13.037  12.359
 3488SOL     OW12302  13.141   0.233  11.298
 3488SOL    HW112303  13.229   0.240  11.336
 3488SOL    HW212304  13.152   0.173  11.224
 3489SOL     OW12305   9.724   2.230   7.112
 3489SOL    HW112306   9.762   2.167   7.173
 3489SOL    HW212307   9.702   2.306   7.166
 3490SOL     OW12308   9.875   9.493  10.879
 3490SOL    HW112309   9.843   9.512  10.968
 3490SOL    HW212310   9.878   9.579  10.836
 3491SOL     OW12311  13.593  12.182   4.372
 3491SOL    HW112312  13.583  12.262   4.423
 3491SOL    HW212313  13.611  12.114   4.436
 3492SOL     OW12314  14.133   6.692   9.461
 3492SOL    HW112315  14.040   6.675   9.449
 3492SOL    HW212316  14.162   6.727   9.377
 3493SOL     OW12317   8.704  13.023  13.611
 3493SOL    HW112318   8.711  13.118  13.615
 3493SOL    HW212319   8.646  13.006  13.537
 3494SOL     OW12320  12.085   3.404  13.277
 3494SOL    HW112321  12.093   3.444  13.364
 3494SOL    HW212322  12.165   3.352  13.267
 3495SOL     OW12323  12.160  11.809   1.042
 3495SOL    HW112324  12.159  11.779   1.133
 3495SOL    HW212325  12.190  11.733   0.992
 3496SOL     OW12326  10.212   7.352   7.914
 3496SOL    HW112327  10.210   7.441   7.949
 3496SOL    HW212328  10.201   7.296   7.991
 3497SOL     OW12329  11.391   6.190  12.193
 3497SOL    HW112330  11.323   6.158  12.252
 3497SOL    HW212331  11.368   6.281  12.177
 3498SOL     OW12332  12.624   7.540   4.017
 3498SOL    HW112333  12.597   7.627   4.049
 3498SOL    HW212334  12.719   7.539   4.030
 3499SOL     OW12335  11.923  13.337   0.928
 3499SOL    HW112336  11.868  13.335   1.006
 3499SOL    HW212337  11.958  13.427   0.925
 3500SOL     OW12338  11.718   2.378   4.247
 3500SOL    HW112339  11.678   2.292   4.242
 3500SOL    HW212340  11.667   2.426   4.312
 3501SOL     OW12341   6.076   0.743   3.340
 3501SOL    HW112342   6.013   0.679   3.371
 3501SOL    HW212343   6.136   0.756   3.413
 3502SOL     OW12344   6.961   2.838   5.240
 3502SOL    HW112345   6.966   2.922   5.286
 3502SOL    HW212346   7.048   2.798   5.253
 3503SOL     OW12347  12.635  11.962  13.166
 3503SOL    HW112348  12.710  11.962  13.106
 3503SOL    HW212349  12.662  12.018  13.238
 3504SOL     OW12350   3.601   5.166   6.712
 3504SOL    HW112351   3.555   5.102   6.767
 3504SOL    HW212352   3.638   5.228   6.774
 3505SOL     OW12353   3.686  13.325   1.355
 3505SOL    HW112354   3.593  13.300   1.350
 3505SOL    HW212355   3.723  13.293   1.273
 3506SOL     OW12356  11.980   2.204  14.308
 3506SOL    HW112357  12.040   2.279  14.310
 3506SOL    HW212358  11.901   2.236  14.352
 3507SOL     OW12359  13.181   1.648   1.749
 3507SOL    HW112360  13.207   1.667   1.839
 3507SOL    HW212361  13.263   1.636   1.702
 3508SOL     OW12362   2.545  14.526   3.533
 3508SOL    HW112363   2.617  14.587   3.540
 3508SOL    HW212364   2.529  14.517   3.439
 3509SOL     OW12365  14.865   5.706   7.055
 3509SOL    HW112366  14.787   5.716   7.000
 3509SOL    HW212367  14.859   5.777   7.118
 3510SOL     OW12368   6.661   5.382  14.102
 3510SOL    HW112369   6.719   5.445  14.059
 3510SOL    HW212370   6.639   5.319  14.034
 3511SOL     OW12371   3.146   0.830  14.064
 3511SOL    HW112372   3.192   0.850  13.982
 3511SOL    HW212373   3.134   0.735  14.062
 3512SOL     OW12374   1.783   0.628   1.856
 3512SOL    HW112375   1.783   0.601   1.764
 3512SOL    HW212376   1.801   0.548   1.905
 3513SOL     OW12377   3.052  10.795   0.813
 3513SOL    HW112378   3.052  10.746   0.895
 3513SOL    HW212379   3.070  10.886   0.839
 3514SOL     OW12380   8.077  11.802  14.752
 3514SOL    HW112381   8.071  11.709  14.731
 3514SOL    HW212382   8.015  11.816  14.823
 3515SOL     OW12383   1.361   8.768  12.054
 3515SOL    HW112384   1.384   8.704  12.122
 3515SOL    HW212385   1.409   8.847  12.080
 3516SOL     OW12386  13.518   5.652   0.659
 3516SOL    HW112387  13.606   5.690   0.652
 3516SOL    HW212388  13.463   5.709   0.605
 3517SOL     OW12389  14.693   0.319  14.153
 3517SOL    HW112390  14.737   0.389  14.105
 3517SOL    HW212391  14.721   0.238  14.109
 3518SOL     OW12392   4.328  14.170   1.933
 3518SOL    HW112393   4.415  14.163   1.892
 3518SOL    HW212394   4.333  14.249   1.986
 3519SOL     OW12395   1.092   8.372  12.927
 3519SOL    HW112396   1.144   8.441  12.969
 3519SOL    HW212397   1.072   8.407  12.840
 3520SOL     OW12398   3.096  11.796   6.328
 3520SOL    HW112399   3.178  11.783   6.280
 3520SOL    HW212400   3.113  11.873   6.383
 3521SOL     OW12401   4.902   4.630   5.876
 3521SOL    HW112402   4.819   4.585   5.860
 3521SOL    HW212403   4.904   4.701   5.811
 3522SOL     OW12404  10.904   3.979  14.550
 3522SOL    HW112405  10.949   3.964  14.467
 3522SOL    HW212406  10.864   4.065  14.541
 3523SOL     OW12407   8.520   9.895   1.539
 3523SOL    HW112408   8.608   9.869   1.514
 3523SOL    HW212409   8.494   9.960   1.473
 3524SOL     OW12410   7.022  13.003   1.280
 3524SOL    HW112411   7.117  13.012   1.274
 3524SOL    HW212412   7.008  12.909   1.294
 3525SOL     OW12413   4.356   1.583   8.732
 3525SOL    HW112414   4.381   1.674   8.717
 3525SOL    HW212415   4.325   1.582   8.822
 3526SOL     OW12416   3.722   5.676  11.801
 3526SOL    HW112417   3.754   5.589  11.778
 3526SOL    HW212418   3.752   5.733  11.730
 3527SOL     OW12419  10.463   2.150   4.490
 3527SOL    HW112420  10.389   2.115   4.440
 3527SOL    HW212421  10.443   2.129   4.581
 3528SOL     OW12422   1.010  10.475   4.932
 3528SOL    HW112423   1.021  10.492   5.026
 3528SOL    HW212424   1.095  10.495   4.894
 3529SOL     OW12425   4.981  11.811  13.914
 3529SOL    HW112426   5.000  11.832  14.006
 3529SOL    HW212427   4.911  11.745  13.918
 3530SOL     OW12428   9.343   6.866   3.388
 3530SOL    HW112429   9.316   6.956   3.404
 3530SOL    HW212430   9.283   6.835   3.320
 3531SOL     OW12431   8.639   1.174  10.471
 3531SOL    HW112432   8.655   1.268  10.474
 3531SOL    HW212433   8.677   1.146  10.388
 3532SOL     OW12434   5.405   7.831   8.863
 3532SOL    HW112435   5.489   7.786   8.868
 3532SOL    HW212436   5.346   7.767   8.821
 3533SOL     OW12437  10.932   2.612   0.320
 3533SOL    HW112438  10.875   2.622   0.245
 3533SOL    HW212439  10.999   2.549   0.292
 3534SOL     OW12440  12.142   1.349  12.449
 3534SOL    HW112441  12.174   1.261  12.468
 3534SOL    HW212442  12.054   1.351  12.485
 3535SOL     OW12443   0.474  14.138  12.467
 3535SOL    HW112444   0.555  14.161  12.422
 3535SOL    HW212445   0.410  14.202  12.435
 3536SOL     OW12446   5.837   8.132   4.063
 3536SOL    HW112447   5.855   8.077   3.987
 3536SOL    HW212448   5.811   8.216   4.025
 3537SOL     OW12449  10.819  10.048   8.845
 3537SOL    HW112450  10.788  10.119   8.788
 3537SOL    HW212451  10.850  10.092   8.924
 3538SOL     OW12452   6.904   3.055   6.337
 3538SOL    HW112453   6.925   2.996   6.409
 3538SOL    HW212454   6.809   3.049   6.328
 3539SOL     OW12455   6.058   3.155  10.064
 3539SOL    HW112456   6.019   3.183   9.982
 3539SOL    HW212457   6.084   3.236  10.108
 3540SOL     OW12458   1.896  12.438   9.722
 3540SOL    HW112459   1.848  12.479   9.794
 3540SOL    HW212460   1.846  12.460   9.644
 3541SOL     OW12461  13.494   1.073  12.071
 3541SOL    HW112462  13.413   1.123  12.057
 3541SOL    HW212463  13.468   0.982  12.058
 3542SOL     OW12464  11.244   5.314  10.743
 3542SOL    HW112465  11.285   5.271  10.817
 3542SOL    HW212466  11.161   5.267  10.731
 3543SOL     OW12467   7.636   5.549  12.603
 3543SOL    HW112468   7.573   5.606  12.560
 3543SOL    HW212469   7.658   5.483  12.537
 3544SOL     OW12470   5.246  12.780   1.492
 3544SOL    HW112471   5.204  12.698   1.466
 3544SOL    HW212472   5.335  12.755   1.516
 3545SOL     OW12473   0.169   1.495   1.684
 3545SOL    HW112474   0.100   1.553   1.715
 3545SOL    HW212475   0.195   1.446   1.762
 3546SOL     OW12476   0.943   8.036   8.922
 3546SOL    HW112477   1.028   8.040   8.877
 3546SOL    HW212478   0.911   8.126   8.921
 3547SOL     OW12479  13.334   0.586   4.411
 3547SOL    HW112480  13.389   0.522   4.455
 3547SOL    HW212481  13.377   0.600   4.326
 3548SOL     OW12482   3.495   4.421   6.021
 3548SOL    HW112483   3.542   4.445   6.101
 3548SOL    HW212484   3.483   4.327   6.027
 3549SOL     OW12485   6.216   9.772  12.334
 3549SOL    HW112486   6.145   9.739  12.388
 3549SOL    HW212487   6.184   9.767  12.244
 3550SOL     OW12488   7.927   3.380   6.414
 3550SOL    HW112489   7.991   3.400   6.482
 3550SOL    HW212490   7.860   3.448   6.423
 3551SOL     OW12491   8.688  14.483   8.357
 3551SOL    HW112492   8.686  14.396   8.316
 3551SOL    HW212493   8.774  14.518   8.335
 3552SOL     OW12494   3.334   2.651  13.742
 3552SOL    HW112495   3.245   2.636  13.775
 3552SOL    HW212496   3.355   2.571  13.693
 3553SOL     OW12497   3.154   9.166   2.118
 3553SOL    HW112498   3.203   9.172   2.037
 3553SOL    HW212499   3.191   9.234   2.174
 3554SOL     OW12500   7.116   8.878   0.484
 3554SOL    HW112501   7.104   8.871   0.389
 3554SOL    HW212502   7.132   8.972   0.499
 3555SOL     OW12503   0.507   1.409   8.569
 3555SOL    HW112504   0.484   1.485   8.515
 3555SOL    HW212505   0.433   1.349   8.560
 3556SOL     OW12506   4.164  12.884   7.464
 3556SOL    HW112507   4.129  12.800   7.495
 3556SOL    HW212508   4.175  12.871   7.370
 3557SOL     OW12509   6.830   7.813   0.469
 3557SOL    HW112510   6.775   7.882   0.431
 3557SOL    HW212511   6.914   7.855   0.484
 3558SOL     OW12512  10.023   1.552   6.558
 3558SOL    HW112513  10.064   1.602   6.628
 3558SOL    HW212514  10.035   1.460   6.583
 3559SOL     OW12515  13.129   0.177   8.381
 3559SOL    HW112516  13.124   0.166   8.286
 3559SOL    HW212517  13.157   0.091   8.413
 3560SOL     OW12518   4.311  13.533   2.751
 3560SOL    HW112519   4.244  13.507   2.813
 3560SOL    HW212520   4.270  13.525   2.665
 3561SOL     OW12521   6.075   8.087   3.529
 3561SOL    HW112522   6.050   7.995   3.518
 3561SOL    HW212523   6.114   8.111   3.445
 3562SOL     OW12524  13.201   7.966  10.986
 3562SOL    HW112525  13.238   7.898  11.043
 3562SOL    HW212526  13.164   7.918  10.912
 3563SOL     OW12527  13.807  11.230  10.442
 3563SOL    HW112528  13.866  11.293  10.483
 3563SOL    HW212529  13.724  11.239  10.490
 3564SOL     OW12530  12.985   3.373   8.856
 3564SOL    HW112531  12.917   3.372   8.788
 3564SOL    HW212532  12.942   3.336   8.933
 3565SOL     OW12533  13.386   5.881   0.550
 3565SOL    HW112534  13.366   5.939   0.476
 3565SOL    HW212535  13.442   5.934   0.607
 3566SOL     OW12536  13.716  10.999   7.203
 3566SOL    HW112537  13.687  10.998   7.294
 3566SOL    HW212538  13.776  10.925   7.196
 3567SOL     OW12539  10.716   1.124   4.450
 3567SOL    HW112540  10.689   1.040   4.415
 3567SOL    HW212541  10.637   1.179   4.443
 3568SOL     OW12542   9.263   6.692   5.215
 3568SOL    HW112543   9.346   6.646   5.220
 3568SOL    HW212544   9.239   6.689   5.122
 3569SOL     OW12545   7.690   1.668  11.436
 3569SOL    HW112546   7.711   1.603  11.503
 3569SOL    HW212547   7.595   1.663  11.426
 3570SOL     OW12548   3.138   5.454   9.101
 3570SOL    HW112549   3.144   5.480   9.009
 3570SOL    HW212550   3.099   5.366   9.098
 3571SOL     OW12551  10.859  13.766  12.316
 3571SOL    HW112552  10.941  13.767  12.266
 3571SOL    HW212553  10.886  13.755  12.407
 3572SOL     OW12554   7.368   6.250   1.652
 3572SOL    HW112555   7.423   6.212   1.583
 3572SOL    HW212556   7.343   6.336   1.618
 3573SOL     OW12557   6.860   6.046  11.503
 3573SOL    HW112558   6.864   6.036  11.408
 3573SOL    HW212559   6.938   6.098  11.525
 3574SOL     OW12560   1.884   5.026   3.610
 3574SOL    HW112561   1.898   4.985   3.695
 3574SOL    HW212562   1.946   5.098   3.607
 3575SOL     OW12563   0.689   9.920  13.975
 3575SOL    HW112564   0.660  10.003  13.938
 3575SOL    HW212565   0.625   9.856  13.942
 3576SOL     OW12566  10.884   9.652   1.326
 3576SOL    HW112567  10.793   9.649   1.294
 3576SOL    HW212568  10.917   9.737   1.297
 3577SOL     OW12569  13.325   1.343  12.268
 3577SOL    HW112570  13.281   1.288  12.203
 3577SOL    HW212571  13.373   1.407  12.216
 3578SOL     OW12572   7.025   5.162   1.426
 3578SOL    HW112573   7.031   5.142   1.333
 3578SOL    HW212574   6.987   5.083   1.465
 3579SOL     OW12575   8.502  12.174   1.293
 3579SOL    HW112576   8.419  12.126   1.290
 3579SOL    HW212577   8.557  12.130   1.228
 3580SOL     OW12578   5.077   1.539  10.868
 3580SOL    HW112579   4.988   1.535  10.903
 3580SOL    HW212580   5.131   1.505  10.939
 3581SOL     OW12581   5.223   4.599  10.381
 3581SOL    HW112582   5.274   4.665  10.335
 3581SOL    HW212583   5.263   4.592  10.467
 3582SOL     OW12584  13.754   1.516   6.479
 3582SOL    HW112585  13.780   1.509   6.570
 3582SOL    HW212586  13.782   1.435   6.438
 3583SOL     OW12587   5.858   3.505  13.717
 3583SOL    HW112588   5.827   3.441  13.653
 3583SOL    HW212589   5.778   3.549  13.746
 3584SOL     OW12590  13.410   1.521  11.425
 3584SOL    HW112591  13.447   1.440  11.390
 3584SOL    HW212592  13.433   1.587  11.360
 3585SOL     OW12593  10.493   6.061   8.201
 3585SOL    HW112594  10.558   6.125   8.229
 3585SOL    HW212595  10.530   6.021   8.122
 3586SOL     OW12596   4.050   7.054   7.130
 3586SOL    HW112597   4.021   6.965   7.150
 3586SOL    HW212598   4.137   7.042   7.093
 3587SOL     OW12599   0.090   7.688   5.764
 3587SOL    HW112600   0.074   7.747   5.690
 3587SOL    HW212601   0.022   7.622   5.758
 3588SOL     OW12602  12.682   1.786  10.246
 3588SOL    HW112603  12.604   1.789  10.190
 3588SOL    HW212604  12.649   1.796  10.335
 3589SOL     OW12605   8.995  13.699   3.699
 3589SOL    HW112606   8.917  13.691   3.644
 3589SOL    HW212607   8.966  13.751   3.774
 3590SOL     OW12608  10.207   7.954  10.513
 3590SOL    HW112609  10.166   7.897  10.447
 3590SOL    HW212610  10.135   8.010  10.543
 3591SOL     OW12611   3.571   0.383   6.765
 3591SOL    HW112612   3.590   0.477   6.768
 3591SOL    HW212613   3.596   0.357   6.676
 3592SOL     OW12614   8.870   1.578   8.763
 3592SOL    HW112615   8.828   1.556   8.680
 3592SOL    HW212616   8.814   1.647   8.800
 3593SOL     OW12617  11.020  12.814   8.327
 3593SOL    HW112618  10.953  12.882   8.335
 3593SOL    HW212619  11.031  12.803   8.233
 3594SOL     OW12620   1.938   1.765   1.669
 3594SOL    HW112621   1.912   1.786   1.758
 3594SOL    HW212622   1.993   1.687   1.678
 3595SOL     OW12623   7.899   4.694  12.164
 3595SOL    HW112624   7.811   4.659  12.151
 3595SOL    HW212625   7.957   4.619  12.148
 3596SOL     OW12626   7.785   9.595   4.324
 3596SOL    HW112627   7.737   9.545   4.390
 3596SOL    HW212628   7.781   9.685   4.354
 3597SOL     OW12629  10.076   6.920  12.280
 3597SOL    HW112630  10.074   7.005  12.323
 3597SOL    HW212631   9.986   6.888  12.285
 3598SOL     OW12632   4.997  14.028   0.855
 3598SOL    HW112633   5.079  14.078   0.855
 3598SOL    HW212634   4.949  14.060   0.779
 3599SOL     OW12635   8.543  14.088  10.717
 3599SOL    HW112636   8.564  14.155  10.652
 3599SOL    HW212637   8.607  14.101  10.787
 3600SOL     OW12638  13.902   3.051  14.197
 3600SOL    HW112639  13.890   3.142  14.170
 3600SOL    HW212640  13.962   3.015  14.132
 3601SOL     OW12641   5.004   7.409   3.692
 3601SOL    HW112642   5.070   7.341   3.676
 3601SOL    HW212643   5.018   7.433   3.784
 3602SOL     OW12644  11.025   6.119   3.277
 3602SOL    HW112645  11.013   6.198   3.330
 3602SOL    HW212646  10.950   6.064   3.298
 3603SOL     OW12647   1.618   3.249   4.926
 3603SOL    HW112648   1.692   3.213   4.975
 3603SOL    HW212649   1.570   3.172   4.894
 3604SOL     OW12650   8.595  12.574   2.729
 3604SOL    HW112651   8.574  12.493   2.683
 3604SOL    HW212652   8.679  12.601   2.692
 3605SOL     OW12653  10.415   0.081   3.969
 3605SOL    HW112654  10.445   0.051   3.883
 3605SOL    HW212655  10.369   0.162   3.952
 3606SOL     OW12656   4.870  12.644   2.879
 3606SOL    HW112657   4.825  12.612   2.801
 3606SOL    HW212658   4.807  12.633   2.949
 3607SOL     OW12659  10.602   7.630  13.962
 3607SOL    HW112660  10.600   7.537  13.984
 3607SOL    HW212661  10.695   7.649  13.947
 3608SOL     OW12662   9.506   5.382   0.658
 3608SOL    HW112663   9.435   5.375   0.722
 3608SOL    HW212664   9.509   5.297   0.616
 3609SOL     OW12665  14.704  12.610   3.795
 3609SOL    HW112666  14.736  12.600   3.705
 3609SOL    HW212667  14.612  12.635   3.785
 3610SOL     OW12668   8.172   9.043  10.386
 3610SOL    HW112669   8.100   9.001  10.339
 3610SOL    HW212670   8.214   8.972  10.434
 3611SOL     OW12671   3.930   4.310  14.781
 3611SOL    HW112672   3.880   4.242  14.826
 3611SOL    HW212673   3.870   4.385  14.777
 3612SOL     OW12674  11.254  10.824   8.863
 3612SOL    HW112675  11.349  10.820   8.859
 3612SOL    HW212676  11.234  10.917   8.875
 3613SOL     OW12677   6.684   1.195  11.326
 3613SOL    HW112678   6.632   1.115  11.316
 3613SOL    HW212679   6.672   1.241  11.243
 3614SOL     OW12680   2.203   6.246  12.500
 3614SOL    HW112681   2.125   6.191  12.510
 3614SOL    HW212682   2.236   6.224  12.413
 3615SOL     OW12683  11.844  14.079  13.976
 3615SOL    HW112684  11.871  13.988  13.958
 3615SOL    HW212685  11.927  14.125  13.992
 3616SOL     OW12686   5.711  11.000   2.054
 3616SOL    HW112687   5.619  10.994   2.026
 3616SOL    HW212688   5.714  10.949   2.135
 3617SOL     OW12689  10.910  11.550   2.507
 3617SOL    HW112690  10.975  11.614   2.479
 3617SOL    HW212691  10.862  11.594   2.577
 3618SOL     OW12692   3.826   5.676   2.543
 3618SOL    HW112693   3.882   5.630   2.606
 3618SOL    HW212694   3.837   5.768   2.565
 3619SOL     OW12695   5.459   1.986   4.849
 3619SOL    HW112696   5.516   2.040   4.903
 3619SOL    HW212697   5.447   2.036   4.768
 3620SOL     OW12698   3.429   5.997   5.906
 3620SOL    HW112699   3.479   5.962   5.833
 3620SOL    HW212700   3.341   6.010   5.870
 3621SOL     OW12701   9.396   6.949  11.586
 3621SOL    HW112702   9.399   6.951  11.491
 3621SOL    HW212703   9.306   6.923  11.607
 3622SOL     OW12704  11.632   9.552   4.573
 3622SOL    HW112705  11.586   9.601   4.504
 3622SOL    HW212706  11.583   9.572   4.653
 3623SOL     OW12707  13.296  14.619   3.030
 3623SOL    HW112708  13.324  14.704   2.995
 3623SOL    HW212709  13.371  14.561   3.018
 3624SOL     OW12710  14.125  11.501   5.578
 3624SOL    HW112711  14.199  11.559   5.559
 3624SOL    HW212712  14.124  11.493   5.673
 3625SOL     OW12713   6.774   7.598  14.530
 3625SOL    HW112714   6.841   7.625  14.468
 3625SOL    HW212715   6.698   7.653  14.509
 3626SOL     OW12716   2.701   8.414   7.467
 3626SOL    HW112717   2.725   8.324   7.488
 3626SOL    HW212718   2.606   8.411   7.452
 3627SOL     OW12719  13.677   6.404   4.081
 3627SOL    HW112720  13.614   6.415   4.152
 3627SOL    HW212721  13.645   6.462   4.012
 3628SOL     OW12722   0.312  10.008   1.900
 3628SOL    HW112723   0.406  10.000   1.912
 3628SOL    HW212724   0.299   9.998   1.805
 3629SOL     OW12725  11.637   5.328   8.769
 3629SOL    HW112726  11.545   5.350   8.785
 3629SOL    HW212727  11.634   5.258   8.703
 3630SOL     OW12728   1.828   1.960   7.955
 3630SOL    HW112729   1.802   2.004   7.875
 3630SOL    HW212730   1.754   1.902   7.976
 3631SOL     OW12731  10.770  12.885   3.784
 3631SOL    HW112732  10.705  12.943   3.822
 3631SOL    HW212733  10.735  12.797   3.797
 3632SOL     OW12734   3.700  14.520  14.284
 3632SOL    HW112735   3.689  14.482  14.197
 3632SOL    HW212736   3.618  14.501  14.329
 3633SOL     OW12737   7.226   7.468   4.470
 3633SOL    HW112738   7.251   7.556   4.442
 3633SOL    HW212739   7.200   7.423   4.390
 3634SOL     OW12740  13.187  11.288   3.616
 3634SOL    HW112741  13.266  11.300   3.563
 3634SOL    HW212742  13.133  11.227   3.565
 3635SOL     OW12743   6.247  11.230  14.219
 3635SOL    HW112744   6.160  11.251  14.188
 3635SOL    HW212745   6.263  11.291  14.291
 3636SOL     OW12746   2.743  13.443   1.562
 3636SOL    HW112747   2.821  13.444   1.507
 3636SOL    HW212748   2.679  13.391   1.513
 3637SOL     OW12749   8.582   5.090  14.685
 3637SOL    HW112750   8.567   5.066  14.594
 3637SOL    HW212751   8.495   5.111  14.720
 3638SOL     OW12752   8.592  12.625  10.271
 3638SOL    HW112753   8.586  12.616  10.366
 3638SOL    HW212754   8.612  12.717  10.257
 3639SOL     OW12755   2.742   8.813   9.850
 3639SOL    HW112756   2.836   8.800   9.839
 3639SOL    HW212757   2.735   8.896   9.898
 3640SOL     OW12758   1.763   0.325   4.016
 3640SOL    HW112759   1.758   0.291   4.105
 3640SOL    HW212760   1.692   0.389   4.011
 3641SOL     OW12761   1.619   0.549  14.794
 3641SOL    HW112762   1.627   0.525  14.701
 3641SOL    HW212763   1.710   0.563  14.822
 3642SOL     OW12764  10.739   3.566   3.790
 3642SOL    HW112765  10.766   3.484   3.832
 3642SOL    HW212766  10.821   3.607   3.762
 3643SOL     OW12767   4.768   1.395   3.903
 3643SOL    HW112768   4.833   1.336   3.867
 3643SOL    HW212769   4.704   1.338   3.946
 3644SOL     OW12770  13.037   2.370   8.756
 3644SOL    HW112771  13.060   2.297   8.813
 3644SOL    HW212772  13.082   2.446   8.795
 3645SOL     OW12773   4.879  14.756  14.330
 3645SOL    HW112774   4.788  14.780  14.318
 3645SOL    HW212775   4.929  14.832  14.300
 3646SOL     OW12776   8.909   4.851   9.089
 3646SOL    HW112777   8.850   4.794   9.039
 3646SOL    HW212778   8.965   4.891   9.022
 3647SOL     OW12779  14.377  10.093   7.075
 3647SOL    HW112780  14.315  10.068   7.144
 3647SOL    HW212781  14.354  10.037   7.001
 3648SOL     OW12782  12.278   9.339  12.334
 3648SOL    HW112783  12.345   9.397  12.368
 3648SOL    HW212784  12.263   9.275  12.405
 3649SOL     OW12785  10.421  13.672   3.329
 3649SOL    HW112786  10.334  13.683   3.366
 3649SOL    HW212787  10.452  13.762   3.313
 3650SOL     OW12788   4.431   3.368   5.793
 3650SOL    HW112789   4.417   3.410   5.878
 3650SOL    HW212790   4.516   3.326   5.802
 3651SOL     OW12791  10.007  13.090  13.262
 3651SOL    HW112792   9.925  13.120  13.301
 3651SOL    HW212793  10.024  13.005  13.303
 3652SOL     OW12794   8.497   2.635  14.003
 3652SOL    HW112795   8.497   2.691  13.926
 3652SOL    HW212796   8.414   2.653  14.047
 3653SOL     OW12797  14.256   8.408  14.235
 3653SOL    HW112798  14.269   8.395  14.329
 3653SOL    HW212799  14.303   8.335  14.194
 3654SOL     OW12800   3.836   7.436  10.192
 3654SOL    HW112801   3.864   7.508  10.135
 3654SOL    HW212802   3.916   7.408  10.236
 3655SOL     OW12803  13.339   4.525  10.057
 3655SOL    HW112804  13.244   4.517  10.063
 3655SOL    HW212805  13.367   4.550  10.145
 3656SOL     OW12806  13.544  12.629   3.107
 3656SOL    HW112807  13.504  12.572   3.174
 3656SOL    HW212808  13.583  12.701   3.157
 3657SOL     OW12809  12.142  11.792   3.809
 3657SOL    HW112810  12.232  11.809   3.781
 3657SOL    HW212811  12.135  11.834   3.895
 3658SOL     OW12812   6.734   7.844   5.415
 3658SOL    HW112813   6.777   7.915   5.463
 3658SOL    HW212814   6.785   7.836   5.334
 3659SOL     OW12815   5.134  12.047   3.708
 3659SOL    HW112816   5.133  11.994   3.788
 3659SOL    HW212817   5.178  11.992   3.644
 3660SOL     OW12818   8.343   0.320   1.605
 3660SOL    HW112819   8.265   0.336   1.552
 3660SOL    HW212820   8.336   0.379   1.679
 3661SOL     OW12821   9.965   5.459  11.487
 3661SOL    HW112822   9.980   5.553  11.490
 3661SOL    HW212823   9.962   5.432  11.580
 3662SOL     OW12824  13.322   9.059   7.827
 3662SOL    HW112825  13.350   8.973   7.796
 3662SOL    HW212826  13.230   9.065   7.803
 3663SOL     OW12827  14.726  11.863  12.408
 3663SOL    HW112828  14.818  11.835  12.405
 3663SOL    HW212829  14.728  11.949  12.449
 3664SOL     OW12830   7.634   4.581  12.144
 3664SOL    HW112831   7.596   4.550  12.062
 3664SOL    HW212832   7.671   4.502  12.184
 3665SOL     OW12833   1.028  10.031  10.538
 3665SOL    HW112834   0.982   9.967  10.592
 3665SOL    HW212835   1.011  10.115  10.580
 3666SOL     OW12836  14.615   1.531   8.658
 3666SOL    HW112837  14.551   1.561   8.723
 3666SOL    HW212838  14.650   1.450   8.694
 3667SOL     OW12839   3.190   4.647   7.852
 3667SOL    HW112840   3.245   4.688   7.784
 3667SOL    HW212841   3.101   4.657   7.819
 3668SOL     OW12842  12.293  14.448   5.136
 3668SOL    HW112843  12.246  14.520   5.094
 3668SOL    HW212844  12.253  14.441   5.223
 3669SOL     OW12845  11.799  10.000   1.254
 3669SOL    HW112846  11.871  10.007   1.192
 3669SOL    HW212847  11.823   9.927   1.311
 3670SOL     OW12848  13.719  11.919  12.751
 3670SOL    HW112849  13.628  11.927  12.780
 3670SOL    HW212850  13.713  11.916  12.655
 3671SOL     OW12851  10.207   9.009   6.054
 3671SOL    HW112852  10.250   9.060   6.123
 3671SOL    HW212853  10.117   8.999   6.085
 3672SOL     OW12854   0.516   8.130   3.033
 3672SOL    HW112855   0.453   8.059   3.018
 3672SOL    HW212856   0.510   8.184   2.955
 3673SOL     OW12857   8.756   5.381  11.133
 3673SOL    HW112858   8.785   5.305  11.182
 3673SOL    HW212859   8.690   5.422  11.188
 3674SOL     OW12860   8.519   2.795  14.748
 3674SOL    HW112861   8.567   2.765  14.670
 3674SOL    HW212862   8.587   2.819  14.811
 3675SOL     OW12863   6.679  11.756   3.507
 3675SOL    HW112864   6.593  11.728   3.476
 3675SOL    HW212865   6.662  11.793   3.593
 3676SOL     OW12866   7.617   9.958   6.087
 3676SOL    HW112867   7.652   9.992   6.169
 3676SOL    HW212868   7.585   9.870   6.109
 3677SOL     OW12869  14.194  11.069   0.188
 3677SOL    HW112870  14.246  11.147   0.169
 3677SOL    HW212871  14.242  10.998   0.147
 3678SOL     OW12872   9.736   5.020  10.496
 3678SOL    HW112873   9.789   4.963  10.552
 3678SOL    HW212874   9.789   5.035  10.418
 3679SOL     OW12875   6.611   6.272   3.696
 3679SOL    HW112876   6.527   6.227   3.682
 3679SOL    HW212877   6.588   6.364   3.704
 3680SOL     OW12878  13.331   7.604   3.751
 3680SOL    HW112879  13.351   7.641   3.837
 3680SOL    HW212880  13.302   7.678   3.699
 3681SOL     OW12881   8.307   1.006   1.264
 3681SOL    HW112882   8.339   1.093   1.240
 3681SOL    HW212883   8.285   1.012   1.356
 3682SOL     OW12884   9.564  14.578   1.818
 3682SOL    HW112885   9.600  14.489   1.811
 3682SOL    HW212886   9.637  14.630   1.853
 3683SOL     OW12887   0.108  10.838   7.623
 3683SOL    HW112888   0.193  10.798   7.642
 3683SOL    HW212889   0.129  10.921   7.581
 3684SOL     OW12890   8.215   6.240   7.986
 3684SOL    HW112891   8.138   6.282   7.949
 3684SOL    HW212892   8.184   6.199   8.067
 3685SOL     OW12893  11.895  11.421   5.801
 3685SOL    HW112894  11.833  11.359   5.839
 3685SOL    HW212895  11.851  11.506   5.808
 3686SOL     OW12896   1.350   1.257  13.163
 3686SOL    HW112897   1.306   1.258  13.248
 3686SOL    HW212898   1.307   1.327  13.113
 3687SOL     OW12899   0.512  11.193   2.801
 3687SOL    HW112900   0.536  11.273   2.755
 3687SOL    HW212901   0.416  11.189   2.795
 3688SOL     OW12902   2.430   3.428   9.760
 3688SOL    HW112903   2.370   3.375   9.707
 3688SOL    HW212904   2.489   3.364   9.800
 3689SOL     OW12905   2.598   6.005   7.426
 3689SOL    HW112906   2.557   5.921   7.448
 3689SOL    HW212907   2.688   5.982   7.405
 3690SOL     OW12908  10.542  13.439   6.685
 3690SOL    HW112909  10.608  13.428   6.617
 3690SOL    HW212910  10.560  13.525   6.723
 3691SOL     OW12911  13.385   5.287   5.723
 3691SOL    HW112912  13.438   5.302   5.644
 3691SOL    HW212913  13.448   5.294   5.795
 3692SOL     OW12914   9.014  12.342  11.100
 3692SOL    HW112915   8.926  12.382  11.100
 3692SOL    HW212916   9.073  12.416  11.110
 3693SOL     OW12917   5.549   6.480  11.257
 3693SOL    HW112918   5.492   6.447  11.187
 3693SOL    HW212919   5.635   6.487  11.215
 3694SOL     OW12920   5.390   1.195   4.227
 3694SOL    HW112921   5.329   1.241   4.168
 3694SOL    HW212922   5.477   1.227   4.201
 3695SOL     OW12923   0.981  11.537   8.516
 3695SOL    HW112924   0.933  11.550   8.598
 3695SOL    HW212925   1.040  11.464   8.534
 3696SOL     OW12926  13.388   9.271   0.214
 3696SOL    HW112927  13.312   9.244   0.266
 3696SOL    HW212928  13.458   9.281   0.278
 3697SOL     OW12929   3.115   7.577   8.128
 3697SOL    HW112930   3.197   7.557   8.081
 3697SOL    HW212931   3.119   7.671   8.144
 3698SOL     OW12932  10.426  11.973  13.861
 3698SOL    HW112933  10.472  12.056  13.872
 3698SOL    HW212934  10.387  11.956  13.947
 3699SOL     OW12935  10.944  13.854   1.106
 3699SOL    HW112936  10.944  13.780   1.166
 3699SOL    HW212937  10.851  13.869   1.086
 3700SOL     OW12938   9.175   9.483  13.618
 3700SOL    HW112939   9.099   9.500  13.563
 3700SOL    HW212940   9.164   9.392  13.646
 3701SOL     OW12941   5.476   4.267   9.610
 3701SOL    HW112942   5.419   4.221   9.549
 3701SOL    HW212943   5.422   4.282   9.688
 3702SOL     OW12944   5.569   7.480   1.526
 3702SOL    HW112945   5.548   7.409   1.465
 3702SOL    HW212946   5.645   7.523   1.486
 3703SOL     OW12947  12.458   7.494   2.399
 3703SOL    HW112948  12.481   7.443   2.477
 3703SOL    HW212949  12.413   7.571   2.434
 3704SOL     OW12950   5.469   0.123   2.420
 3704SOL    HW112951   5.489   0.033   2.393
 3704SOL    HW212952   5.428   0.163   2.344
 3705SOL     OW12953   2.322  11.692   4.908
 3705SOL    HW112954   2.256  11.657   4.848
 3705SOL    HW212955   2.372  11.615   4.936
 3706SOL     OW12956   3.170   8.039  11.357
 3706SOL    HW112957   3.149   8.059  11.266
 3706SOL    HW212958   3.264   8.021  11.357
 3707SOL     OW12959   4.347   2.122  12.636
 3707SOL    HW112960   4.371   2.192  12.576
 3707SOL    HW212961   4.361   2.042  12.586
 3708SOL     OW12962  14.557   8.593   7.094
 3708SOL    HW112963  14.500   8.666   7.071
 3708SOL    HW212964  14.618   8.629   7.158
 3709SOL     OW12965   7.476  13.200   0.770
 3709SOL    HW112966   7.492  13.106   0.780
 3709SOL    HW212967   7.519  13.222   0.687
 3710SOL     OW12968   9.447   0.240   4.272
 3710SOL    HW112969   9.524   0.184   4.258
 3710SOL    HW212970   9.456   0.273   4.361
 3711SOL     OW12971   4.492   9.281  11.740
 3711SOL    HW112972   4.398   9.278  11.758
 3711SOL    HW212973   4.512   9.196  11.701
 3712SOL     OW12974  14.212   4.864   3.455
 3712SOL    HW112975  14.276   4.928   3.425
 3712SOL    HW212976  14.260   4.781   3.459
 3713SOL     OW12977   2.715   3.859   9.761
 3713SOL    HW112978   2.666   3.780   9.788
 3713SOL    HW212979   2.719   3.912   9.841
 3714SOL     OW12980   5.732   9.047   2.452
 3714SOL    HW112981   5.733   9.120   2.514
 3714SOL    HW212982   5.671   9.074   2.384
 3715SOL     OW12983   7.790  10.168   6.991
 3715SOL    HW112984   7.729  10.142   7.060
 3715SOL    HW212985   7.856  10.099   6.989
 3716SOL     OW12986   1.883   1.674  14.296
 3716SOL    HW112987   1.818   1.703  14.231
 3716SOL    HW212988   1.891   1.580  14.280
 3717SOL     OW12989   2.526  11.242  11.261
 3717SOL    HW112990   2.599  11.293  11.293
 3717SOL    HW212991   2.510  11.274  11.172
 3718SOL     OW12992   3.307  11.714   8.919
 3718SOL    HW112993   3.350  11.653   8.979
 3718SOL    HW212994   3.376  11.775   8.893
 3719SOL     OW12995   9.298  12.705   2.768
 3719SOL    HW112996   9.232  12.733   2.831
 3719SOL    HW212997   9.249  12.660   2.699
 3720SOL     OW12998  12.813   6.763   5.672
 3720SOL    HW112999  12.847   6.735   5.757
 3720SOL    HW213000  12.726   6.724   5.667
 3721SOL     OW13001  12.198   6.669   9.150
 3721SOL    HW113002  12.213   6.691   9.058
 3721SOL    HW213003  12.281   6.687   9.192
 3722SOL     OW13004   4.451   1.047   3.360
 3722SOL    HW113005   4.441   1.141   3.371
 3722SOL    HW213006   4.493   1.037   3.274
 3723SOL     OW13007   1.499  11.280  12.372
 3723SOL    HW113008   1.541  11.200  12.401
 3723SOL    HW213009   1.497  11.273  12.276
 3724SOL     OW13010  10.687   6.534   8.566
 3724SOL    HW113011  10.783   6.541   8.571
 3724SOL    HW213012  10.656   6.620   8.596
 3725SOL     OW13013   0.101  12.127   3.155
 3725SOL    HW113014   0.182  12.176   3.136
 3725SOL    HW213015   0.036  12.165   3.096
 3726SOL     OW13016   7.577   4.375   0.833
 3726SOL    HW113017   7.668   4.369   0.863
 3726SOL    HW213018   7.538   4.291   0.859
 3727SOL     OW13019   3.057   1.552   3.366
 3727SOL    HW113020   2.978   1.507   3.336
 3727SOL    HW213021   3.129   1.499   3.333
 3728SOL     OW13022  12.529   7.442   8.137
 3728SOL    HW113023  12.514   7.531   8.104
 3728SOL    HW213024  12.445   7.398   8.127
 3729SOL     OW13025   5.131   9.307  13.792
 3729SOL    HW113026   5.046   9.285  13.755
 3729SOL    HW213027   5.172   9.362  13.725
 3730SOL     OW13028  14.790  13.637  13.641
 3730SOL    HW113029   0.009  13.657  13.626
 3730SOL    HW213030  14.752  13.719  13.672
 3731SOL     OW13031   2.135   5.008  12.346
 3731SOL    HW113032   2.215   5.024  12.395
 3731SOL    HW213033   2.070   5.064  12.389
 3732SOL     OW13034  10.257   6.948  13.427
 3732SOL    HW113035  10.280   6.864  13.388
 3732SOL    HW213036  10.340   6.994  13.437
 3733SOL     OW13037  13.286   6.140   4.139
 3733SOL    HW113038  13.345   6.085   4.088
 3733SOL    HW213039  13.281   6.097   4.224
 3734SOL     OW13040   0.319   4.989   4.632
 3734SOL    HW113041   0.254   4.938   4.680
 3734SOL    HW213042   0.390   5.002   4.696
 3735SOL     OW13043   9.709   4.774   6.362
 3735SOL    HW113044   9.656   4.746   6.287
 3735SOL    HW213045   9.769   4.839   6.326
 3736SOL     OW13046   7.486   8.539   0.737
 3736SOL    HW113047   7.458   8.625   0.704
 3736SOL    HW213048   7.580   8.550   0.753
 3737SOL     OW13049  11.417   0.918  11.982
 3737SOL    HW113050  11.478   0.924  11.909
 3737SOL    HW213051  11.451   0.848  12.037
 3738SOL     OW13052   7.227  10.987   2.435
 3738SOL    HW113053   7.256  11.066   2.390
 3738SOL    HW213054   7.254  10.999   2.526
 3739SOL     OW13055   8.750   0.249   7.497
 3739SOL    HW113056   8.684   0.217   7.435
 3739SOL    HW213057   8.738   0.344   7.497
 3740SOL     OW13058  10.013   8.258   4.345
 3740SOL    HW113059  10.085   8.197   4.363
 3740SOL    HW213060   9.963   8.261   4.427
 3741SOL     OW13061   2.582   4.475   7.921
 3741SOL    HW113062   2.539   4.522   7.850
 3741SOL    HW213063   2.674   4.501   7.913
 3742SOL     OW13064  11.515  14.122  11.704
 3742SOL    HW113065  11.535  14.034  11.735
 3742SOL    HW213066  11.444  14.110  11.642
 3743SOL     OW13067  14.259   2.346  10.781
 3743SOL    HW113068  14.253   2.280  10.850
 3743SOL    HW213069  14.353   2.352  10.762
 3744SOL     OW13070   2.344  11.990  12.694
 3744SOL    HW113071   2.365  12.019  12.783
 3744SOL    HW213072   2.366  11.897  12.692
 3745SOL     OW13073   7.222   3.095   6.669
 3745SOL    HW113074   7.274   3.144   6.605
 3745SOL    HW213075   7.266   3.109   6.752
 3746SOL     OW13076   9.225   7.718  14.558
 3746SOL    HW113077   9.288   7.778  14.597
 3746SOL    HW213078   9.269   7.685  14.480
 3747SOL     OW13079   1.317   8.955  13.422
 3747SOL    HW113080   1.407   8.982  13.403
 3747SOL    HW213081   1.266   8.990  13.349
 3748SOL     OW13082   9.059  10.065   0.067
 3748SOL    HW113083   9.132  10.036   0.122
 3748SOL    HW213084   9.023   9.985   0.029
 3749SOL     OW13085   5.891  12.579   5.165
 3749SOL    HW113086   5.941  12.658   5.145
 3749SOL    HW213087   5.909  12.520   5.092
 3750SOL     OW13088   1.820  11.195   7.062
 3750SOL    HW113089   1.810  11.141   6.983
 3750SOL    HW213090   1.798  11.136   7.134
 3751SOL     OW13091  13.145  11.167   2.573
 3751SOL    HW113092  13.060  11.139   2.539
 3751SOL    HW213093  13.159  11.255   2.536
 3752SOL     OW13094  14.036   4.468  10.344
 3752SOL    HW113095  14.001   4.393  10.296
 3752SOL    HW213096  14.127   4.445  10.364
 3753SOL     OW13097   2.551   6.762   8.569
 3753SOL    HW113098   2.527   6.807   8.488
 3753SOL    HW213099   2.538   6.669   8.550
 3754SOL     OW13100   4.265   0.571   8.798
 3754SOL    HW113101   4.331   0.618   8.849
 3754SOL    HW213102   4.204   0.537   8.864
 3755SOL     OW13103   3.667  11.829   4.064
 3755SOL    HW113104   3.603  11.782   4.010
 3755SOL    HW213105   3.616  11.897   4.107
 3756SOL     OW13106  10.301   4.618  10.249
 3756SOL    HW113107  10.325   4.710  10.263
 3756SOL    HW213108  10.383   4.570  10.258
 3757SOL     OW13109   9.072   6.082   2.185
 3757SOL    HW113110   9.163   6.108   2.171
 3757SOL    HW213111   9.048   6.120   2.270
 3758SOL     OW13112   8.662  10.114   6.899
 3758SOL    HW113113   8.670  10.054   6.825
 3758SOL    HW213114   8.576  10.094   6.936
 3759SOL     OW13115  10.000   1.765  12.819
 3759SOL    HW113116   9.952   1.682  12.812
 3759SOL    HW213117  10.012   1.777  12.913
 3760SOL     OW13118   0.384  10.233   1.516
 3760SOL    HW113119   0.292  10.257   1.523
 3760SOL    HW213120   0.430  10.302   1.565
 3761SOL     OW13121  10.780  13.334   1.625
 3761SOL    HW113122  10.705  13.363   1.572
 3761SOL    HW213123  10.766  13.373   1.711
 3762SOL     OW13124   7.201   1.285  13.931
 3762SOL    HW113125   7.213   1.380  13.935
 3762SOL    HW213126   7.109   1.274  13.909
 3763SOL     OW13127   9.489   3.588   4.851
 3763SOL    HW113128   9.451   3.532   4.918
 3763SOL    HW213129   9.466   3.677   4.878
 3764SOL     OW13130   1.609  12.792  13.504
 3764SOL    HW113131   1.540  12.834  13.452
 3764SOL    HW213132   1.687  12.796  13.449
 3765SOL     OW13133   9.129   8.282   8.879
 3765SOL    HW113134   9.051   8.317   8.835
 3765SOL    HW213135   9.187   8.257   8.807
 3766SOL     OW13136   5.404   0.431  14.076
 3766SOL    HW113137   5.388   0.498  14.010
 3766SOL    HW213138   5.496   0.406  14.063
 3767SOL     OW13139   3.708   1.787  13.240
 3767SOL    HW113140   3.703   1.830  13.325
 3767SOL    HW213141   3.732   1.857  13.179
 3768SOL     OW13142  11.621  12.559  13.377
 3768SOL    HW113143  11.560  12.545  13.304
 3768SOL    HW213144  11.577  12.521  13.453
 3769SOL     OW13145  13.097   5.168  10.629
 3769SOL    HW113146  13.178   5.123  10.607
 3769SOL    HW213147  13.034   5.097  10.643
 3770SOL     OW13148  12.007   8.413   4.313
 3770SOL    HW113149  12.028   8.354   4.240
 3770SOL    HW213150  12.092   8.441   4.347
 3771SOL     OW13151  11.232  11.419   4.537
 3771SOL    HW113152  11.264  11.464   4.616
 3771SOL    HW213153  11.309  11.411   4.481
 3772SOL     OW13154  10.630  13.806   3.642
 3772SOL    HW113155  10.692  13.741   3.675
 3772SOL    HW213156  10.680  13.860   3.581
 3773SOL     OW13157   8.769   3.629  12.421
 3773SOL    HW113158   8.709   3.700  12.444
 3773SOL    HW213159   8.767   3.570  12.497
 3774SOL     OW13160   5.019  13.134  13.825
 3774SOL    HW113161   5.097  13.191  13.824
 3774SOL    HW213162   5.054  13.046  13.815
 3775SOL     OW13163   6.418   1.734   9.114
 3775SOL    HW113164   6.481   1.688   9.059
 3775SOL    HW213165   6.468   1.806   9.152
 3776SOL     OW13166  10.823  11.131  11.568
 3776SOL    HW113167  10.819  11.043  11.530
 3776SOL    HW213168  10.741  11.173  11.541
 3777SOL     OW13169   7.809   7.909  12.334
 3777SOL    HW113170   7.801   7.860  12.416
 3777SOL    HW213171   7.766   7.992  12.352
 3778SOL     OW13172   6.302  13.453  14.721
 3778SOL    HW113173   6.328  13.429  14.809
 3778SOL    HW213174   6.282  13.547  14.726
 3779SOL     OW13175   0.220   6.837   1.632
 3779SOL    HW113176   0.159   6.837   1.558
 3779SOL    HW213177   0.173   6.792   1.702
 3780SOL     OW13178   2.121  13.449   9.127
 3780SOL    HW113179   2.180  13.431   9.201
 3780SOL    HW213180   2.034  13.455   9.167
 3781SOL     OW13181   1.326   8.795   3.575
 3781SOL    HW113182   1.253   8.739   3.600
 3781SOL    HW213183   1.345   8.771   3.484
 3782SOL     OW13184   9.806   5.995  10.644
 3782SOL    HW113185   9.754   6.068  10.678
 3782SOL    HW213186   9.815   6.013  10.550
 3783SOL     OW13187   9.697  14.570   9.971
 3783SOL    HW113188   9.633  14.536   9.909
 3783SOL    HW213189   9.668  14.537  10.056
 3784SOL     OW13190   8.621   1.549   8.095
 3784SOL    HW113191   8.546   1.602   8.122
 3784SOL    HW213192   8.651   1.507   8.176
 3785SOL     OW13193   8.861  10.316   7.882
 3785SOL    HW113194   8.816  10.261   7.947
 3785SOL    HW213195   8.913  10.377   7.934
 3786SOL     OW13196   8.722   4.944   9.350
 3786SOL    HW113197   8.641   4.899   9.371
 3786SOL    HW213198   8.773   4.880   9.299
 3787SOL     OW13199   9.059  10.107   6.716
 3787SOL    HW113200   9.052  10.032   6.775
 3787SOL    HW213201   9.028  10.074   6.632
 3788SOL     OW13202  13.246   4.334   1.896
 3788SOL    HW113203  13.289   4.286   1.966
 3788SOL    HW213204  13.284   4.299   1.815
 3789SOL     OW13205   1.224  12.823   0.397
 3789SOL    HW113206   1.152  12.810   0.336
 3789SOL    HW213207   1.278  12.745   0.387
 3790SOL     OW13208   0.620  12.212   0.548
 3790SOL    HW113209   0.570  12.243   0.472
 3790SOL    HW213210   0.571  12.136   0.579
 3791SOL     OW13211   0.962  11.350  10.216
 3791SOL    HW113212   0.955  11.438  10.179
 3791SOL    HW213213   0.875  11.312  10.205
 3792SOL     OW13214   9.097   1.814  12.343
 3792SOL    HW113215   9.038   1.889  12.354
 3792SOL    HW213216   9.048   1.753  12.288
 3793SOL     OW13217  13.525  13.392   2.931
 3793SOL    HW113218  13.561  13.412   2.845
 3793SOL    HW213219  13.453  13.454   2.942
 3794SOL     OW13220   2.761  14.672  12.466
 3794SOL    HW113221   2.674  14.696  12.498
 3794SOL    HW213222   2.755  14.577  12.451
 3795SOL     OW13223   3.198  13.412  11.465
 3795SOL    HW113224   3.173  13.369  11.384
 3795SOL    HW213225   3.231  13.341  11.521
 3796SOL     OW13226   8.486   7.312   7.108
 3796SOL    HW113227   8.547   7.337   7.039
 3796SOL    HW213228   8.520   7.355   7.187
 3797SOL     OW13229   5.494  12.660   2.903
 3797SOL    HW113230   5.533  12.616   2.979
 3797SOL    HW213231   5.452  12.590   2.853
 3798SOL     OW13232  12.774  11.037   6.222
 3798SOL    HW113233  12.784  10.997   6.309
 3798SOL    HW213234  12.681  11.029   6.203
 3799SOL     OW13235   1.021   8.568  13.664
 3799SOL    HW113236   1.061   8.608  13.587
 3799SOL    HW213237   0.974   8.640  13.706
 3800SOL     OW13238   7.825   8.224   6.390
 3800SOL    HW113239   7.920   8.233   6.378
 3800SOL    HW213240   7.792   8.314   6.381
 3801SOL     OW13241   4.295  10.233  12.957
 3801SOL    HW113242   4.277  10.273  12.872
 3801SOL    HW213243   4.243  10.285  13.019
 3802SOL     OW13244   7.984   1.885   0.064
 3802SOL    HW113245   7.902   1.892   0.112
 3802SOL    HW213246   7.975   1.807   0.010
 3803SOL     OW13247   0.714   2.496  10.111
 3803SOL    HW113248   0.768   2.501  10.033
 3803SOL    HW213249   0.776   2.495  10.184
 3804SOL     OW13250   7.237   9.489   9.635
 3804SOL    HW113251   7.222   9.449   9.550
 3804SOL    HW213252   7.283   9.571   9.615
 3805SOL     OW13253   2.575   8.383   2.746
 3805SOL    HW113254   2.591   8.351   2.835
 3805SOL    HW213255   2.481   8.371   2.734
 3806SOL     OW13256   9.771   8.641   2.054
 3806SOL    HW113257   9.852   8.681   2.087
 3806SOL    HW213258   9.763   8.673   1.965
 3807SOL     OW13259   5.235   8.013   2.012
 3807SOL    HW113260   5.256   8.037   1.922
 3807SOL    HW213261   5.168   8.076   2.039
 3808SOL     OW13262   3.109   2.303  12.083
 3808SOL    HW113263   3.148   2.359  12.150
 3808SOL    HW213264   3.151   2.330  12.001
 3809SOL     OW13265   9.346   3.543   4.595
 3809SOL    HW113266   9.272   3.497   4.636
 3809SOL    HW213267   9.398   3.573   4.669
 3810SOL     OW13268   0.895   8.429   7.093
 3810SOL    HW113269   0.815   8.437   7.040
 3810SOL    HW213270   0.906   8.515   7.133
 3811SOL     OW13271   5.211   7.924   4.711
 3811SOL    HW113272   5.297   7.902   4.747
 3811SOL    HW213273   5.225   7.929   4.616
 3812SOL     OW13274   8.924   3.059   7.761
 3812SOL    HW113275   8.938   3.110   7.681
 3812SOL    HW213276   8.963   2.974   7.742
 3813SOL     OW13277  11.305   5.348   3.772
 3813SOL    HW113278  11.242   5.405   3.816
 3813SOL    HW213279  11.301   5.375   3.680
 3814SOL     OW13280   5.092   9.058  13.242
 3814SOL    HW113281   5.088   9.152  13.258
 3814SOL    HW213282   5.118   9.050  13.150
 3815SOL     OW13283   9.063   4.236   9.140
 3815SOL    HW113284   9.002   4.293   9.186
 3815SOL    HW213285   9.070   4.158   9.195
 3816SOL     OW13286   6.807  10.790  13.909
 3816SOL    HW113287   6.759  10.790  13.826
 3816SOL    HW213288   6.882  10.733  13.893
 3817SOL     OW13289   2.014  10.929  10.938
 3817SOL    HW113290   2.017  10.961  10.847
 3817SOL    HW213291   1.921  10.911  10.954
 3818SOL     OW13292   9.082   0.388  12.788
 3818SOL    HW113293   9.015   0.327  12.818
 3818SOL    HW213294   9.041   0.438  12.718
 3819SOL     OW13295  12.580  11.448  14.465
 3819SOL    HW113296  12.639  11.375  14.485
 3819SOL    HW213297  12.637  11.525  14.461
 3820SOL     OW13298  10.950   6.122  12.829
 3820SOL    HW113299  10.895   6.045  12.843
 3820SOL    HW213300  10.910   6.165  12.753
 3821SOL     OW13301   9.315  14.255   0.933
 3821SOL    HW113302   9.345  14.168   0.958
 3821SOL    HW213303   9.283  14.245   0.843
 3822SOL     OW13304  14.417   3.990   3.735
 3822SOL    HW113305  14.388   3.968   3.824
 3822SOL    HW213306  14.339   3.981   3.681
 3823SOL     OW13307  11.869   4.682   4.227
 3823SOL    HW113308  11.906   4.767   4.204
 3823SOL    HW213309  11.911   4.620   4.166
 3824SOL     OW13310   7.003   0.753   4.134
 3824SOL    HW113311   7.050   0.725   4.055
 3824SOL    HW213312   7.002   0.676   4.190
 3825SOL     OW13313   9.827   7.843   1.581
 3825SOL    HW113314   9.785   7.758   1.566
 3825SOL    HW213315   9.920   7.827   1.563
 3826SOL     OW13316   2.922  11.127  11.179
 3826SOL    HW113317   2.923  11.207  11.127
 3826SOL    HW213318   2.899  11.058  11.117
 3827SOL     OW13319   1.479   5.498  11.965
 3827SOL    HW113320   1.406   5.441  11.987
 3827SOL    HW213321   1.553   5.439  11.951
 3828SOL     OW13322   8.716   9.718   3.903
 3828SOL    HW113323   8.746   9.740   3.991
 3828SOL    HW213324   8.761   9.637   3.882
 3829SOL     OW13325   2.533   7.614   1.990
 3829SOL    HW113326   2.598   7.655   1.932
 3829SOL    HW213327   2.525   7.674   2.064
 3830SOL     OW13328  14.843   7.213   1.722
 3830SOL    HW113329   0.012   7.181   1.643
 3830SOL    HW213330   0.005   7.300   1.736
 3831SOL     OW13331  12.814  14.566   5.116
 3831SOL    HW113332  12.778  14.479   5.130
 3831SOL    HW213333  12.877  14.554   5.044
 3832SOL     OW13334  10.852   7.349   8.489
 3832SOL    HW113335  10.878   7.271   8.538
 3832SOL    HW213336  10.811   7.406   8.553
 3833SOL     OW13337   0.857  13.861   8.821
 3833SOL    HW113338   0.803  13.915   8.763
 3833SOL    HW213339   0.883  13.786   8.767
 3834SOL     OW13340   7.563   4.049   3.602
 3834SOL    HW113341   7.555   4.085   3.514
 3834SOL    HW213342   7.605   3.964   3.590
 3835SOL     OW13343  13.702  11.493   7.335
 3835SOL    HW113344  13.765  11.426   7.309
 3835SOL    HW213345  13.755  11.567   7.363
 3836SOL     OW13346   4.609   3.488  13.294
 3836SOL    HW113347   4.520   3.470  13.264
 3836SOL    HW213348   4.658   3.408  13.274
 3837SOL     OW13349   8.736  14.092   0.558
 3837SOL    HW113350   8.764  14.002   0.541
 3837SOL    HW213351   8.658  14.083   0.612
 3838SOL     OW13352   3.818   5.685   2.924
 3838SOL    HW113353   3.807   5.671   3.018
 3838SOL    HW213354   3.736   5.728   2.896
 3839SOL     OW13355   8.649   5.261   3.758
 3839SOL    HW113356   8.659   5.351   3.726
 3839SOL    HW213357   8.700   5.258   3.838
 3840SOL     OW13358   5.979   7.126  10.781
 3840SOL    HW113359   6.049   7.069  10.750
 3840SOL    HW213360   6.000   7.143  10.873
 3841SOL     OW13361  14.619  14.276   7.095
 3841SOL    HW113362  14.682  14.293   7.165
 3841SOL    HW213363  14.586  14.188   7.115
 3842SOL     OW13364  10.098  12.532  11.068
 3842SOL    HW113365  10.054  12.508  10.986
 3842SOL    HW213366  10.192  12.528  11.046
 3843SOL     OW13367   6.530   5.516  13.283
 3843SOL    HW113368   6.624   5.528  13.270
 3843SOL    HW213369   6.497   5.605  13.297
 3844SOL     OW13370   4.370  13.178  14.432
 3844SOL    HW113371   4.290  13.131  14.455
 3844SOL    HW213372   4.439  13.111  14.437
 3845SOL     OW13373  10.358   9.540  13.310
 3845SOL    HW113374  10.423   9.601  13.275
 3845SOL    HW213375  10.344   9.570  13.400
 3846SOL     OW13376  12.739   5.054  14.618
 3846SOL    HW113377  12.773   5.141  14.597
 3846SOL    HW213378  12.728   5.011  14.533
 3847SOL     OW13379   3.218   2.162  14.371
 3847SOL    HW113380   3.187   2.090  14.316
 3847SOL    HW213381   3.192   2.137  14.460
 3848SOL     OW13382   2.628   3.668   6.941
 3848SOL    HW113383   2.659   3.757   6.927
 3848SOL    HW213384   2.698   3.626   6.992
 3849SOL     OW13385   8.473   5.745   1.229
 3849SOL    HW113386   8.509   5.803   1.296
 3849SOL    HW213387   8.396   5.705   1.271
 3850SOL     OW13388   8.327   3.374  11.366
 3850SOL    HW113389   8.312   3.285  11.334
 3850SOL    HW213390   8.256   3.389  11.428
 3851SOL     OW13391  10.772   1.738  13.923
 3851SOL    HW113392  10.689   1.720  13.967
 3851SOL    HW213393  10.819   1.797  13.982
 3852SOL     OW13394  10.235   6.162   4.071
 3852SOL    HW113395  10.314   6.174   4.019
 3852SOL    HW213396  10.172   6.122   4.010
 3853SOL     OW13397   9.406   6.644   7.673
 3853SOL    HW113398   9.383   6.732   7.644
 3853SOL    HW213399   9.492   6.654   7.714
 3854SOL     OW13400   7.812   2.049   9.212
 3854SOL    HW113401   7.762   2.000   9.147
 3854SOL    HW213402   7.904   2.027   9.193
 3855SOL     OW13403  13.784   2.631  13.766
 3855SOL    HW113404  13.855   2.658  13.823
 3855SOL    HW213405  13.826   2.576  13.700
 3856SOL     OW13406  14.713  10.331   5.907
 3856SOL    HW113407  14.684  10.418   5.880
 3856SOL    HW213408  14.652  10.306   5.977
 3857SOL     OW13409  13.118  13.557   7.642
 3857SOL    HW113410  13.053  13.508   7.592
 3857SOL    HW213411  13.067  13.606   7.707
 3858SOL     OW13412   8.357   0.478   1.837
 3858SOL    HW113413   8.391   0.546   1.895
 3858SOL    HW213414   8.269   0.460   1.869
 3859SOL     OW13415  12.534   6.621  10.924
 3859SOL    HW113416  12.545   6.567  10.845
 3859SOL    HW213417  12.598   6.587  10.986
 3860SOL     OW13418   8.874  14.766  13.316
 3860SOL    HW113419   8.804  14.701  13.319
 3860SOL    HW213420   8.913  14.755  13.230
 3861SOL     OW13421  12.174  12.367  13.700
 3861SOL    HW113422  12.265  12.385  13.726
 3861SOL    HW213423  12.125  12.371  13.782
 3862SOL     OW13424   9.493   9.824   5.279
 3862SOL    HW113425   9.585   9.804   5.263
 3862SOL    HW213426   9.471   9.774   5.357
 3863SOL     OW13427   0.865   1.616   4.879
 3863SOL    HW113428   0.900   1.536   4.838
 3863SOL    HW213429   0.854   1.677   4.806
 3864SOL     OW13430  10.198   5.342   9.303
 3864SOL    HW113431  10.107   5.334   9.332
 3864SOL    HW213432  10.193   5.397   9.224
 3865SOL     OW13433   1.860   0.547   8.579
 3865SOL    HW113434   1.816   0.520   8.659
 3865SOL    HW213435   1.920   0.476   8.558
 3866SOL     OW13436   2.628   6.545   9.846
 3866SOL    HW113437   2.534   6.531   9.857
 3866SOL    HW213438   2.656   6.472   9.790
 3867SOL     OW13439   4.236   3.056   0.363
 3867SOL    HW113440   4.245   2.982   0.303
 3867SOL    HW213441   4.301   3.119   0.333
 3868SOL     OW13442  11.652  11.984   3.748
 3868SOL    HW113443  11.729  11.927   3.736
 3868SOL    HW213444  11.577  11.927   3.732
 3869SOL     OW13445   1.069   3.709   9.544
 3869SOL    HW113446   1.126   3.765   9.492
 3869SOL    HW213447   1.116   3.625   9.550
 3870SOL     OW13448  10.483   8.065  14.677
 3870SOL    HW113449  10.455   8.118  14.751
 3870SOL    HW213450  10.406   8.059  14.620
 3871SOL     OW13451   7.212  14.508   5.362
 3871SOL    HW113452   7.300  14.475   5.378
 3871SOL    HW213453   7.155  14.432   5.374
 3872SOL     OW13454   2.724  13.042   7.873
 3872SOL    HW113455   2.792  13.105   7.851
 3872SOL    HW213456   2.742  13.017   7.963
 3873SOL     OW13457   3.811  12.099   0.225
 3873SOL    HW113458   3.815  12.169   0.160
 3873SOL    HW213459   3.723  12.104   0.261
 3874SOL     OW13460  14.845   9.018   6.693
 3874SOL    HW113461   0.059   9.025   6.656
 3874SOL    HW213462  14.802   9.100   6.669
 3875SOL     OW13463   8.244  13.029   7.860
 3875SOL    HW113464   8.242  12.950   7.914
 3875SOL    HW213465   8.330  13.029   7.819
 3876SOL     OW13466  13.897   2.571   6.424
 3876SOL    HW113467  13.945   2.496   6.458
 3876SOL    HW213468  13.806   2.543   6.425
 3877SOL     OW13469   0.912  13.350   8.886
 3877SOL    HW113470   0.981  13.288   8.862
 3877SOL    HW213471   0.915  13.354   8.981
 3878SOL     OW13472  12.860   5.890   6.488
 3878SOL    HW113473  12.836   5.802   6.515
 3878SOL    HW213474  12.813   5.904   6.405
 3879SOL     OW13475  13.371   3.278  14.521
 3879SOL    HW113476  13.339   3.297  14.432
 3879SOL    HW213477  13.442   3.216  14.508
 3880SOL     OW13478   9.805   0.033   9.991
 3880SOL    HW113479   9.802   0.062   9.899
 3880SOL    HW213480   9.779  14.815   9.988
 3881SOL     OW13481   5.999  13.242  14.522
 3881SOL    HW113482   6.009  13.213  14.613
 3881SOL    HW213483   6.011  13.337  14.527
 3882SOL     OW13484   0.686  10.868  10.483
 3882SOL    HW113485   0.629  10.946  10.488
 3882SOL    HW213486   0.637  10.807  10.428
 3883SOL     OW13487  12.848  14.843   9.644
 3883SOL    HW113488  12.902   0.024   9.700
 3883SOL    HW213489  12.886  14.755   9.652
 3884SOL     OW13490   7.837  12.831   7.147
 3884SOL    HW113491   7.863  12.752   7.100
 3884SOL    HW213492   7.747  12.813   7.175
 3885SOL     OW13493   6.771  11.895   1.084
 3885SOL    HW113494   6.757  11.810   1.126
 3885SOL    HW213495   6.861  11.892   1.053
 3886SOL     OW13496   1.078  12.552   0.262
 3886SOL    HW113497   1.099  12.496   0.187
 3886SOL    HW213498   1.071  12.491   0.336
 3887SOL     OW13499  11.924   8.915   8.198
 3887SOL    HW113500  11.890   8.827   8.218
 3887SOL    HW213501  11.908   8.965   8.278
 3888SOL     OW13502  10.803   8.167   4.855
 3888SOL    HW113503  10.882   8.181   4.907
 3888SOL    HW213504  10.830   8.182   4.764
 3889SOL     OW13505  12.036   9.155   8.735
 3889SOL    HW113506  12.084   9.200   8.804
 3889SOL    HW213507  12.024   9.221   8.667
 3890SOL     OW13508  10.274  12.758  11.282
 3890SOL    HW113509  10.180  12.756  11.301
 3890SOL    HW213510  10.311  12.694  11.343
 3891SOL     OW13511  11.394   9.552   3.998
 3891SOL    HW113512  11.339   9.608   3.944
 3891SOL    HW213513  11.479   9.552   3.954
 3892SOL     OW13514  14.654   8.545   6.810
 3892SOL    HW113515  14.573   8.512   6.848
 3892SOL    HW213516  14.710   8.565   6.885
 3893SOL     OW13517  13.453   6.964   5.864
 3893SOL    HW113518  13.380   6.933   5.918
 3893SOL    HW213519  13.410   7.000   5.786
 3894SOL     OW13520   6.229   4.553  12.817
 3894SOL    HW113521   6.186   4.494  12.756
 3894SOL    HW213522   6.262   4.625  12.762
 3895SOL     OW13523  10.401  10.514  11.959
 3895SOL    HW113524  10.357  10.431  11.941
 3895SOL    HW213525  10.489  10.489  11.987
 3896SOL     OW13526   1.535   5.049   8.567
 3896SOL    HW113527   1.616   5.081   8.529
 3896SOL    HW213528   1.506   4.981   8.506
 3897SOL     OW13529   4.871   8.310   0.836
 3897SOL    HW113530   4.913   8.320   0.921
 3897SOL    HW213531   4.944   8.314   0.773
 3898SOL     OW13532  13.292   6.665   6.913
 3898SOL    HW113533  13.219   6.633   6.860
 3898SOL    HW213534  13.360   6.598   6.904
 3899SOL     OW13535  11.617  13.183   1.046
 3899SOL    HW113536  11.672  13.157   0.972
 3899SOL    HW213537  11.555  13.246   1.010
 3900SOL     OW13538   1.052  12.239   7.430
 3900SOL    HW113539   1.124  12.247   7.492
 3900SOL    HW213540   1.093  12.245   7.344
 3901SOL     OW13541   3.863   8.190   1.142
 3901SOL    HW113542   3.922   8.117   1.119
 3901SOL    HW213543   3.840   8.175   1.233
 3902SOL     OW13544   7.217   8.457   4.130
 3902SOL    HW113545   7.212   8.430   4.039
 3902SOL    HW213546   7.300   8.422   4.162
 3903SOL     OW13547   0.140   4.909   3.028
 3903SOL    HW113548   0.175   4.979   3.082
 3903SOL    HW213549   0.086   4.857   3.087
 3904SOL     OW13550  14.065   1.686   4.130
 3904SOL    HW113551  14.052   1.778   4.153
 3904SOL    HW213552  14.028   1.678   4.042
 3905SOL     OW13553  13.139  12.283   5.740
 3905SOL    HW113554  13.049  12.283   5.706
 3905SOL    HW213555  13.160  12.376   5.749
 3906SOL     OW13556   7.130   7.697  13.166
 3906SOL    HW113557   7.051   7.752  13.170
 3906SOL    HW213558   7.199   7.757  13.140
 3907SOL     OW13559   1.745   6.202   1.331
 3907SOL    HW113560   1.826   6.227   1.286
 3907SOL    HW213561   1.692   6.281   1.330
 3908SOL     OW13562   7.301   2.790   0.653
 3908SOL    HW113563   7.219   2.742   0.659
 3908SOL    HW213564   7.343   2.776   0.738
 3909SOL     OW13565   8.369   9.776   2.951
 3909SOL    HW113566   8.386   9.808   3.040
 3909SOL    HW213567   8.321   9.694   2.965
 3910SOL     OW13568   4.591  14.640   4.842
 3910SOL    HW113569   4.647  14.640   4.764
 3910SOL    HW213570   4.644  14.682   4.910
 3911SOL     OW13571   6.990   7.262   1.694
 3911SOL    HW113572   7.057   7.330   1.702
 3911SOL    HW213573   6.940   7.267   1.775
 3912SOL     OW13574   1.833  12.717   8.472
 3912SOL    HW113575   1.807  12.785   8.534
 3912SOL    HW213576   1.751  12.686   8.434
 3913SOL     OW13577   2.716   2.497   2.209
 3913SOL    HW113578   2.782   2.428   2.205
 3913SOL    HW213579   2.679   2.491   2.297
 3914SOL     OW13580   0.060  12.115  12.798
 3914SOL    HW113581   0.149  12.090  12.820
 3914SOL    HW213582   0.007  12.040  12.825
 3915SOL     OW13583   8.318   4.826   4.994
 3915SOL    HW113584   8.300   4.911   5.035
 3915SOL    HW213585   8.254   4.820   4.923
 3916SOL     OW13586  10.015  13.182  14.716
 3916SOL    HW113587   9.975  13.096  14.729
 3916SOL    HW213588   9.953  13.243  14.756
 3917SOL     OW13589  13.831   4.704   6.671
 3917SOL    HW113590  13.776   4.715   6.749
 3917SOL    HW213591  13.888   4.630   6.692
 3918SOL     OW13592  13.943  13.688   3.949
 3918SOL    HW113593  13.861  13.670   3.903
 3918SOL    HW213594  14.004  13.714   3.879
 3919SOL     OW13595  10.984  12.054  12.863
 3919SOL    HW113596  10.978  12.138  12.817
 3919SOL    HW213597  11.023  12.076  12.948
 3920SOL     OW13598   1.262  13.261   6.479
 3920SOL    HW113599   1.301  13.297   6.399
 3920SOL    HW213600   1.336  13.242   6.535
 3921SOL     OW13601   3.291   8.787  11.289
 3921SOL    HW113602   3.327   8.875  11.285
 3921SOL    HW213603   3.196   8.800  11.294
 3922SOL     OW13604  11.603  12.590  14.626
 3922SOL    HW113605  11.578  12.672  14.583
 3922SOL    HW213606  11.611  12.527  14.555
 3923SOL     OW13607   0.671   1.648   5.775
 3923SOL    HW113608   0.649   1.689   5.858
 3923SOL    HW213609   0.638   1.558   5.783
 3924SOL     OW13610   8.711  13.755  12.823
 3924SOL    HW113611   8.687  13.786  12.736
 3924SOL    HW213612   8.675  13.667  12.827
 3925SOL     OW13613  10.000   2.828  10.629
 3925SOL    HW113614   9.915   2.871  10.643
 3925SOL    HW213615  10.059   2.874  10.688
 3926SOL     OW13616   9.050   5.155   3.102
 3926SOL    HW113617   9.007   5.090   3.047
 3926SOL    HW213618   9.083   5.105   3.177
 3927SOL     OW13619   9.649   4.756  10.827
 3927SOL    HW113620   9.671   4.664  10.841
 3927SOL    HW213621   9.641   4.764  10.732
 3928SOL     OW13622   1.472   2.028  11.914
 3928SOL    HW113623   1.531   2.098  11.941
 3928SOL    HW213624   1.432   2.060  11.834
 3929SOL     OW13625   2.322   2.103   8.370
 3929SOL    HW113626   2.325   2.149   8.453
 3929SOL    HW213627   2.267   2.158   8.314
 3930SOL     OW13628   4.142   5.161  11.625
 3930SOL    HW113629   4.147   5.095  11.555
 3930SOL    HW213630   4.152   5.110  11.706
 3931SOL     OW13631  14.570   0.152  12.766
 3931SOL    HW113632  14.523   0.090  12.710
 3931SOL    HW213633  14.543   0.238  12.734
 3932SOL     OW13634   1.609   8.923   6.844
 3932SOL    HW113635   1.531   8.968   6.811
 3932SOL    HW213636   1.679   8.988   6.837
 3933SOL     OW13637  14.349   2.605   5.250
 3933SOL    HW113638  14.397   2.637   5.174
 3933SOL    HW213639  14.283   2.672   5.267
 3934SOL     OW13640  11.405   1.766   3.347
 3934SOL    HW113641  11.318   1.727   3.345
 3934SOL    HW213642  11.395   1.844   3.401
 3935SOL     OW13643   4.417  11.359   1.323
 3935SOL    HW113644   4.379  11.423   1.384
 3935SOL    HW213645   4.374  11.277   1.345
 3936SOL     OW13646   1.572  14.796   2.993
 3936SOL    HW113647   1.506  14.865   3.000
 3936SOL    HW213648   1.539  14.725   3.046
 3937SOL     OW13649   2.018   9.824  13.093
 3937SOL    HW113650   2.101   9.838  13.048
 3937SOL    HW213651   2.034   9.851  13.184
 3938SOL     OW13652   6.704   4.897   4.151
 3938SOL    HW113653   6.654   4.881   4.231
 3938SOL    HW213654   6.784   4.942   4.182
 3939SOL     OW13655   7.361   1.462  13.305
 3939SOL    HW113656   7.292   1.441  13.368
 3939SOL    HW213657   7.440   1.423  13.341
 3940SOL     OW13658   6.229   1.167   0.467
 3940SOL    HW113659   6.323   1.163   0.486
 3940SOL    HW213660   6.197   1.080   0.490
 3941SOL     OW13661   3.014   3.477   0.752
 3941SOL    HW113662   3.028   3.567   0.782
 3941SOL    HW213663   3.050   3.475   0.664
 3942SOL     OW13664   5.883   8.953   7.875
 3942SOL    HW113665   5.883   8.978   7.968
 3942SOL    HW213666   5.962   8.995   7.840
 3943SOL     OW13667   0.294  13.594   3.092
 3943SOL    HW113668   0.277  13.655   3.164
 3943SOL    HW213669   0.252  13.512   3.120
 3944SOL     OW13670   6.326   4.186  12.362
 3944SOL    HW113671   6.388   4.127  12.320
 3944SOL    HW213672   6.317   4.152  12.451
 3945SOL     OW13673   2.316   2.884  10.955
 3945SOL    HW113674   2.241   2.830  10.928
 3945SOL    HW213675   2.295   2.972  10.923
 3946SOL     OW13676   1.186   5.643  13.502
 3946SOL    HW113677   1.184   5.717  13.441
 3946SOL    HW213678   1.254   5.586  13.467
 3947SOL     OW13679   9.637  11.687  12.752
 3947SOL    HW113680   9.565  11.745  12.772
 3947SOL    HW213681   9.675  11.665  12.838
 3948SOL     OW13682  10.757   4.935  12.287
 3948SOL    HW113683  10.786   5.004  12.346
 3948SOL    HW213684  10.751   4.977  12.202
 3949SOL     OW13685  14.500  14.403   4.933
 3949SOL    HW113686  14.447  14.345   4.987
 3949SOL    HW213687  14.437  14.460   4.889
 3950SOL     OW13688  11.892   2.289   6.049
 3950SOL    HW113689  11.841   2.277   6.129
 3950SOL    HW213690  11.936   2.205   6.036
 3951SOL     OW13691   7.789   3.395   3.796
 3951SOL    HW113692   7.802   3.482   3.758
 3951SOL    HW213693   7.877   3.361   3.808
 3952SOL     OW13694   0.541   8.372  13.670
 3952SOL    HW113695   0.449   8.363  13.696
 3952SOL    HW213696   0.586   8.304  13.720
 3953SOL     OW13697   4.768   0.170   2.571
 3953SOL    HW113698   4.685   0.208   2.599
 3953SOL    HW213699   4.810   0.139   2.652
 3954SOL     OW13700   7.439   5.442   7.852
 3954SOL    HW113701   7.401   5.373   7.905
 3954SOL    HW213702   7.468   5.399   7.772
 3955SOL     OW13703  12.151   1.044  12.426
 3955SOL    HW113704  12.233   1.020  12.383
 3955SOL    HW213705  12.174   1.053  12.518
 3956SOL     OW13706   0.982   1.608   6.270
 3956SOL    HW113707   0.991   1.665   6.347
 3956SOL    HW213708   0.958   1.668   6.199
 3957SOL     OW13709  14.747   3.205   3.173
 3957SOL    HW113710  14.742   3.301   3.176
 3957SOL    HW213711  14.724   3.177   3.261
 3958SOL     OW13712  12.637   2.056  11.271
 3958SOL    HW113713  12.591   2.108  11.205
 3958SOL    HW213714  12.719   2.102  11.284
 3959SOL     OW13715   6.688   3.977   1.216
 3959SOL    HW113716   6.759   3.992   1.278
 3959SOL    HW213717   6.730   3.935   1.141
 3960SOL     OW13718   3.145   2.576   2.988
 3960SOL    HW113719   3.090   2.553   3.063
 3960SOL    HW213720   3.222   2.520   2.997
 3961SOL     OW13721  10.333   7.001   1.576
 3961SOL    HW113722  10.394   6.970   1.509
 3961SOL    HW213723  10.246   6.989   1.538
 3962SOL     OW13724   9.946   5.851  12.696
 3962SOL    HW113725   9.997   5.804  12.762
 3962SOL    HW213726   9.864   5.803  12.690
 3963SOL     OW13727   6.628   4.935   9.795
 3963SOL    HW113728   6.581   4.896   9.868
 3963SOL    HW213729   6.654   5.022   9.826
 3964SOL     OW13730   4.927   6.941   1.751
 3964SOL    HW113731   4.897   7.030   1.767
 3964SOL    HW213732   4.895   6.892   1.827
 3965SOL     OW13733   1.973   2.201   7.957
 3965SOL    HW113734   1.915   2.125   7.949
 3965SOL    HW213735   1.991   2.227   7.866
 3966SOL     OW13736   1.914   6.910  11.217
 3966SOL    HW113737   1.970   6.867  11.153
 3966SOL    HW213738   1.844   6.949  11.166
 3967SOL     OW13739   4.952  12.342   7.157
 3967SOL    HW113740   4.924  12.429   7.126
 3967SOL    HW213741   5.046  12.352   7.174
 3968SOL     OW13742   3.025   5.261   6.194
 3968SOL    HW113743   3.103   5.287   6.146
 3968SOL    HW213744   2.999   5.178   6.153
 3969SOL     OW13745  11.335   1.666   7.570
 3969SOL    HW113746  11.364   1.629   7.654
 3969SOL    HW213747  11.411   1.714   7.538
 3970SOL     OW13748   2.224   9.759   9.740
 3970SOL    HW113749   2.193   9.705   9.813
 3970SOL    HW213750   2.243   9.844   9.780
 3971SOL     OW13751   5.630   9.193   6.463
 3971SOL    HW113752   5.586   9.123   6.416
 3971SOL    HW213753   5.602   9.183   6.554
 3972SOL     OW13754   0.572   2.743   6.630
 3972SOL    HW113755   0.661   2.727   6.661
 3972SOL    HW213756   0.516   2.706   6.699
 3973SOL     OW13757   2.160   7.685   2.163
 3973SOL    HW113758   2.221   7.654   2.229
 3973SOL    HW213759   2.084   7.628   2.171
 3974SOL     OW13760   0.179   2.063  11.778
 3974SOL    HW113761   0.141   2.079  11.692
 3974SOL    HW213762   0.103   2.051  11.836
 3975SOL     OW13763   6.257   8.034   5.673
 3975SOL    HW113764   6.190   7.998   5.731
 3975SOL    HW213765   6.295   8.107   5.721
 3976SOL     OW13766   5.936  10.055  10.842
 3976SOL    HW113767   5.867  10.001  10.879
 3976SOL    HW213768   6.015  10.000  10.847
 3977SOL     OW13769   5.001   4.353  12.727
 3977SOL    HW113770   5.033   4.442  12.740
 3977SOL    HW213771   4.952   4.357  12.645
 3978SOL     OW13772  12.497   7.667   4.930
 3978SOL    HW113773  12.418   7.618   4.908
 3978SOL    HW213774  12.497   7.672   5.025
 3979SOL     OW13775   6.901   1.390  13.575
 3979SOL    HW113776   6.869   1.337  13.502
 3979SOL    HW213777   6.914   1.477  13.537
 3980SOL     OW13778  14.631   6.064  10.069
 3980SOL    HW113779  14.541   6.032  10.066
 3980SOL    HW213780  14.623   6.157  10.088
 3981SOL     OW13781   5.134  10.901   1.348
 3981SOL    HW113782   5.169  10.990   1.345
 3981SOL    HW213783   5.187  10.852   1.286
 3982SOL     OW13784  11.463  14.355   7.867
 3982SOL    HW113785  11.520  14.401   7.805
 3982SOL    HW213786  11.508  14.273   7.886
 3983SOL     OW13787  14.377   0.098   4.555
 3983SOL    HW113788  14.330   0.089   4.473
 3983SOL    HW213789  14.439   0.025   4.555
 3984SOL     OW13790   5.746  13.117  12.806
 3984SOL    HW113791   5.840  13.116  12.788
 3984SOL    HW213792   5.721  13.024  12.807
 3985SOL     OW13793   2.989  14.073   2.384
 3985SOL    HW113794   3.049  14.004   2.357
 3985SOL    HW213795   2.902  14.037   2.370
 3986SOL     OW13796   0.482   8.742   8.152
 3986SOL    HW113797   0.460   8.687   8.077
 3986SOL    HW213798   0.526   8.682   8.213
 3987SOL     OW13799   2.248   2.870  12.838
 3987SOL    HW113800   2.205   2.933  12.780
 3987SOL    HW213801   2.215   2.785  12.811
 3988SOL     OW13802   6.137   2.446   9.448
 3988SOL    HW113803   6.065   2.463   9.507
 3988SOL    HW213804   6.098   2.447   9.360
 3989SOL     OW13805   5.434   0.797   5.982
 3989SOL    HW113806   5.355   0.851   5.979
 3989SOL    HW213807   5.404   0.711   6.008
 3990SOL     OW13808   9.939  13.179   2.865
 3990SOL    HW113809   9.984  13.235   2.929
 3990SOL    HW213810   9.958  13.090   2.894
 3991SOL     OW13811   2.640   2.965  10.690
 3991SOL    HW113812   2.592   2.895  10.734
 3991SOL    HW213813   2.716   2.921  10.651
 3992SOL     OW13814  14.570  12.931   9.528
 3992SOL    HW113815  14.611  12.918   9.614
 3992SOL    HW213816  14.478  12.947   9.548
 3993SOL     OW13817   9.666   7.994   1.751
 3993SOL    HW113818   9.583   7.949   1.771
 3993SOL    HW213819   9.707   7.939   1.684
 3994SOL     OW13820  12.940  10.033   3.079
 3994SOL    HW113821  12.858  10.083   3.087
 3994SOL    HW213822  12.912   9.942   3.076
 3995SOL     OW13823   3.757   0.102  12.676
 3995SOL    HW113824   3.727   0.064  12.759
 3995SOL    HW213825   3.683   0.088  12.616
 3996SOL     OW13826  11.820   0.242   4.718
 3996SOL    HW113827  11.748   0.189   4.684
 3996SOL    HW213828  11.878   0.178   4.760
 3997SOL     OW13829   7.157   3.524  12.450
 3997SOL    HW113830   7.176   3.490  12.363
 3997SOL    HW213831   7.233   3.498  12.503
 3998SOL     OW13832   7.800  13.233  10.765
 3998SOL    HW113833   7.819  13.225  10.671
 3998SOL    HW213834   7.877  13.195  10.808
 3999SOL     OW13835  14.097   6.603  14.565
 3999SOL    HW113836  14.111   6.567  14.652
 3999SOL    HW213837  14.040   6.679  14.580
 4000SOL     OW13838   0.528  11.125   4.384
 4000SOL    HW113839   0.500  11.044   4.341
 4000SOL    HW213840   0.470  11.134   4.459
 4001SOL     OW13841  10.977   2.544   7.918
 4001SOL    HW113842  10.982   2.604   7.992
 4001SOL    HW213843  10.904   2.577   7.865
 4002SOL     OW13844   7.289   6.707   0.350
 4002SOL    HW113845   7.354   6.652   0.395
 4002SOL    HW213846   7.291   6.790   0.398
 4003SOL     OW13847  14.681   7.719   8.478
 4003SOL    HW113848  14.697   7.790   8.417
 4003SOL    HW213849  14.768   7.693   8.509
 4004SOL     OW13850  10.668  13.366  12.546
 4004SOL    HW113851  10.692  13.424  12.474
 4004SOL    HW213852  10.723  13.289  12.534
 4005SOL     OW13853   8.067   0.710   1.448
 4005SOL    HW113854   8.148   0.675   1.486
 4005SOL    HW213855   7.999   0.649   1.477
 4006SOL     OW13856   8.238   3.119   7.754
 4006SOL    HW113857   8.271   3.196   7.800
 4006SOL    HW213858   8.226   3.148   7.664
 4007SOL     OW13859   4.900  10.295   8.346
 4007SOL    HW113860   4.963  10.367   8.345
 4007SOL    HW213861   4.863  10.294   8.257
 4008SOL     OW13862  10.343  10.800  14.326
 4008SOL    HW113863  10.391  10.726  14.289
 4008SOL    HW213864  10.327  10.775  14.418
 4009SOL     OW13865   2.143   4.333   9.109
 4009SOL    HW113866   2.135   4.259   9.170
 4009SOL    HW213867   2.066   4.386   9.125
 4010SOL     OW13868   2.389   1.574  11.315
 4010SOL    HW113869   2.300   1.599  11.292
 4010SOL    HW213870   2.411   1.503  11.254
 4011SOL     OW13871  12.318   5.270  12.079
 4011SOL    HW113872  12.231   5.294  12.048
 4011SOL    HW213873  12.372   5.348  12.063
 4012SOL     OW13874   1.163   6.805   0.831
 4012SOL    HW113875   1.170   6.787   0.925
 4012SOL    HW213876   1.105   6.880   0.825
 4013SOL     OW13877   7.386  13.425  10.879
 4013SOL    HW113878   7.301  13.468  10.883
 4013SOL    HW213879   7.402  13.412  10.785
 4014SOL     OW13880  11.136   0.825   2.806
 4014SOL    HW113881  11.111   0.759   2.740
 4014SOL    HW213882  11.187   0.889   2.757
 4015SOL     OW13883   5.482   3.216   1.472
 4015SOL    HW113884   5.566   3.194   1.513
 4015SOL    HW213885   5.489   3.182   1.383
 4016SOL     OW13886   3.006   0.012   5.972
 4016SOL    HW113887   2.956   0.015   5.890
 4016SOL    HW213888   3.096   0.029   5.946
 4017SOL     OW13889  14.859   4.211  14.202
 4017SOL    HW113890   0.037   4.161  14.265
 4017SOL    HW213891   0.005   4.303  14.221
 4018SOL     OW13892   0.081   3.259   5.730
 4018SOL    HW113893   0.024   3.185   5.747
 4018SOL    HW213894   0.041   3.332   5.778
 4019SOL     OW13895   7.564   3.602  12.186
 4019SOL    HW113896   7.636   3.580  12.126
 4019SOL    HW213897   7.511   3.522  12.191
 4020SOL     OW13898   6.083   5.442   3.294
 4020SOL    HW113899   6.136   5.370   3.261
 4020SOL    HW213900   6.135   5.520   3.275
 4021SOL     OW13901   8.624   8.213  11.906
 4021SOL    HW113902   8.558   8.191  11.840
 4021SOL    HW213903   8.708   8.206  11.860
 4022SOL     OW13904   4.607  13.031  13.122
 4022SOL    HW113905   4.564  13.082  13.191
 4022SOL    HW213906   4.698  13.022  13.151
 4023SOL     OW13907   1.320  11.315   9.121
 4023SOL    HW113908   1.234  11.314   9.080
 4023SOL    HW213909   1.311  11.374   9.196
 4024SOL     OW13910   1.832   0.269   0.128
 4024SOL    HW113911   1.788   0.324   0.193
 4024SOL    HW213912   1.863   0.193   0.177
 4025SOL     OW13913   7.372  10.424  11.178
 4025SOL    HW113914   7.425  10.402  11.255
 4025SOL    HW213915   7.368  10.343  11.128
 4026SOL     OW13916   9.783   7.545  11.143
 4026SOL    HW113917   9.707   7.598  11.121
 4026SOL    HW213918   9.858   7.596  11.114
 4027SOL     OW13919   0.134  10.967   3.873
 4027SOL    HW113920   0.173  11.039   3.824
 4027SOL    HW213921   0.193  10.955   3.948
 4028SOL     OW13922   4.777  10.433   9.251
 4028SOL    HW113923   4.764  10.485   9.331
 4028SOL    HW213924   4.847  10.372   9.273
 4029SOL     OW13925  14.294  12.285   9.330
 4029SOL    HW113926  14.307  12.379   9.338
 4029SOL    HW213927  14.355  12.246   9.393
 4030SOL     OW13928  10.419   4.434   3.526
 4030SOL    HW113929  10.415   4.459   3.618
 4030SOL    HW213930  10.510   4.406   3.512
 4031SOL     OW13931   0.689   9.894   5.393
 4031SOL    HW113932   0.770   9.853   5.424
 4031SOL    HW213933   0.666   9.846   5.314
 4032SOL     OW13934  11.686   9.777   3.624
 4032SOL    HW113935  11.634   9.819   3.692
 4032SOL    HW213936  11.641   9.800   3.542
 4033SOL     OW13937  11.703   8.790   7.173
 4033SOL    HW113938  11.772   8.746   7.223
 4033SOL    HW213939  11.684   8.731   7.101
 4034SOL     OW13940   4.160  12.250  11.919
 4034SOL    HW113941   4.085  12.195  11.942
 4034SOL    HW213942   4.121  12.332  11.888
 4035SOL     OW13943  13.090   2.590   6.921
 4035SOL    HW113944  13.121   2.520   6.863
 4035SOL    HW213945  13.077   2.665   6.863
 4036SOL     OW13946   4.544  11.461  14.337
 4036SOL    HW113947   4.543  11.398  14.264
 4036SOL    HW213948   4.557  11.407  14.415
 4037SOL     OW13949   4.025  11.188  12.624
 4037SOL    HW113950   4.023  11.180  12.529
 4037SOL    HW213951   4.034  11.282  12.641
 4038SOL     OW13952   3.183   4.947   5.236
 4038SOL    HW113953   3.192   4.866   5.186
 4038SOL    HW213954   3.090   4.970   5.228
 4039SOL     OW13955  13.518  11.444   3.959
 4039SOL    HW113956  13.535  11.480   4.046
 4039SOL    HW213957  13.603  11.417   3.926
 4040SOL     OW13958  12.219   6.940   2.230
 4040SOL    HW113959  12.280   6.904   2.294
 4040SOL    HW213960  12.268   7.011   2.188
 4041SOL     OW13961  11.801   7.667   7.634
 4041SOL    HW113962  11.858   7.709   7.569
 4041SOL    HW213963  11.835   7.578   7.641
 4042SOL     OW13964  12.968  12.921  12.858
 4042SOL    HW113965  13.031  12.990  12.879
 4042SOL    HW213966  12.999  12.845  12.907
 4043SOL     OW13967   2.208   4.010   5.965
 4043SOL    HW113968   2.266   4.058   6.024
 4043SOL    HW213969   2.260   3.935   5.935
 4044SOL     OW13970   6.422   6.091   3.656
 4044SOL    HW113971   6.388   6.117   3.741
 4044SOL    HW213972   6.359   6.028   3.622
 4045SOL     OW13973  12.973   7.117   3.807
 4045SOL    HW113974  13.035   7.088   3.874
 4045SOL    HW213975  12.910   7.172   3.855
 4046SOL     OW13976  13.343   3.483   8.032
 4046SOL    HW113977  13.375   3.573   8.024
 4046SOL    HW213978  13.267   3.490   8.089
 4047SOL     OW13979   8.871  14.640   4.926
 4047SOL    HW113980   8.873  14.618   4.833
 4047SOL    HW213981   8.876  14.556   4.971
 4048SOL     OW13982  10.624   3.373   2.275
 4048SOL    HW113983  10.684   3.412   2.211
 4048SOL    HW213984  10.629   3.430   2.351
 4049SOL     OW13985  13.575   3.525   9.251
 4049SOL    HW113986  13.597   3.558   9.338
 4049SOL    HW213987  13.578   3.603   9.195
 4050SOL     OW13988   9.380   4.753   9.039
 4050SOL    HW113989   9.345   4.667   9.064
 4050SOL    HW213990   9.399   4.744   8.945
 4051SOL     OW13991   6.067   6.610  11.009
 4051SOL    HW113992   6.066   6.643  10.919
 4051SOL    HW213993   6.047   6.516  11.000
 4052SOL     OW13994  10.048  11.805   9.594
 4052SOL    HW113995  10.064  11.897   9.575
 4052SOL    HW213996  10.110  11.783   9.664
 4053SOL     OW13997  11.830   3.075   0.228
 4053SOL    HW113998  11.796   3.052   0.315
 4053SOL    HW213999  11.801   3.165   0.215
 4054SOL     OW14000   8.430   2.201   3.481
 4054SOL    HW114001   8.431   2.277   3.422
 4054SOL    HW214002   8.507   2.150   3.455
 4055SOL     OW14003   9.866   6.666   6.686
 4055SOL    HW114004   9.888   6.580   6.650
 4055SOL    HW214005   9.937   6.723   6.656
 4056SOL     OW14006  13.975   1.045   3.407
 4056SOL    HW114007  14.014   1.034   3.494
 4056SOL    HW214008  13.882   1.061   3.423
 4057SOL     OW14009   8.873   0.725   6.634
 4057SOL    HW114010   8.968   0.733   6.624
 4057SOL    HW214011   8.838   0.764   6.554
 4058SOL     OW14012   2.501  12.833  14.422
 4058SOL    HW114013   2.538  12.831  14.333
 4058SOL    HW214014   2.552  12.901  14.467
 4059SOL     OW14015   4.598  12.729   0.077
 4059SOL    HW114016   4.644  12.645   0.067
 4059SOL    HW214017   4.655  12.792   0.034
 4060SOL     OW14018   6.000   1.911  12.707
 4060SOL    HW114019   5.920   1.957  12.734
 4060SOL    HW214020   6.071   1.962  12.747
 4061SOL     OW14021  11.568   4.331  13.450
 4061SOL    HW114022  11.614   4.264  13.499
 4061SOL    HW214023  11.570   4.301  13.359
 4062SOL     OW14024   1.605  12.090   3.623
 4062SOL    HW114025   1.532  12.038   3.657
 4062SOL    HW214026   1.667  12.095   3.695
 4063SOL     OW14027   9.690  12.100   0.608
 4063SOL    HW114028   9.641  12.124   0.528
 4063SOL    HW214029   9.769  12.056   0.576
 4064SOL     OW14030   9.522   7.947  14.128
 4064SOL    HW114031   9.475   7.869  14.098
 4064SOL    HW214032   9.541   7.930  14.220
 4065SOL     OW14033   5.218  14.364   1.435
 4065SOL    HW114034   5.264  14.325   1.510
 4065SOL    HW214035   5.182  14.289   1.387
 4066SOL     OW14036   1.898   9.823   5.833
 4066SOL    HW114037   1.827   9.871   5.875
 4066SOL    HW214038   1.975   9.878   5.845
 4067SOL     OW14039  11.083   8.402   5.439
 4067SOL    HW114040  11.011   8.346   5.467
 4067SOL    HW214041  11.088   8.389   5.344
 4068SOL     OW14042   3.118   8.389   3.821
 4068SOL    HW114043   3.022   8.385   3.824
 4068SOL    HW214044   3.137   8.435   3.739
 4069SOL     OW14045   7.276  11.757   1.835
 4069SOL    HW114046   7.363  11.792   1.815
 4069SOL    HW214047   7.264  11.686   1.772
 4070SOL     OW14048   2.102   5.801   9.992
 4070SOL    HW114049   2.077   5.807   9.900
 4070SOL    HW214050   2.019   5.798  10.040
 4071SOL     OW14051   5.570   4.493   1.328
 4071SOL    HW114052   5.542   4.552   1.258
 4071SOL    HW214053   5.500   4.500   1.394
 4072SOL     OW14054   5.310   2.027   0.515
 4072SOL    HW114055   5.234   2.029   0.573
 4072SOL    HW214056   5.320   1.935   0.492
 4073SOL     OW14057   0.226   5.954   8.071
 4073SOL    HW114058   0.315   5.934   8.100
 4073SOL    HW214059   0.184   5.868   8.064
 4074SOL     OW14060   4.054   1.876   1.440
 4074SOL    HW114061   4.048   1.909   1.530
 4074SOL    HW214062   4.115   1.937   1.397
 4075SOL     OW14063   3.306   5.777  11.703
 4075SOL    HW114064   3.296   5.802  11.611
 4075SOL    HW214065   3.394   5.806  11.726
 4076SOL     OW14066  11.239   7.970   7.571
 4076SOL    HW114067  11.208   8.039   7.512
 4076SOL    HW214068  11.184   7.894   7.549
 4077SOL     OW14069   6.104   1.741   8.128
 4077SOL    HW114070   6.155   1.819   8.107
 4077SOL    HW214071   6.042   1.732   8.056
 4078SOL     OW14072   2.458   6.600   0.086
 4078SOL    HW114073   2.480   6.569   0.174
 4078SOL    HW214074   2.503   6.684   0.078
 4079SOL     OW14075   0.991   9.999   9.401
 4079SOL    HW114076   0.914  10.030   9.353
 4079SOL    HW214077   1.051  10.074   9.400
 4080SOL     OW14078  14.657  12.772  13.748
 4080SOL    HW114079  14.648  12.699  13.809
 4080SOL    HW214080  14.719  12.740  13.682
 4081SOL     OW14081  12.506  13.084   1.224
 4081SOL    HW114082  12.507  13.066   1.129
 4081SOL    HW214083  12.574  13.150   1.236
 4082SOL     OW14084  12.730   4.380   3.948
 4082SOL    HW114085  12.749   4.291   3.919
 4082SOL    HW214086  12.646   4.401   3.908
 4083SOL     OW14087  13.779  12.410   6.959
 4083SOL    HW114088  13.696  12.405   6.912
 4083SOL    HW214089  13.770  12.487   7.015
 4084SOL     OW14090   3.434  13.222   2.737
 4084SOL    HW114091   3.394  13.183   2.660
 4084SOL    HW214092   3.526  13.197   2.732
 4085SOL     OW14093   1.720  10.092   1.746
 4085SOL    HW114094   1.706  10.002   1.772
 4085SOL    HW214095   1.732  10.089   1.651
 4086SOL     OW14096   2.396  11.698   5.457
 4086SOL    HW114097   2.448  11.618   5.446
 4086SOL    HW214098   2.351  11.710   5.373
 4087SOL     OW14099   9.469   9.194   8.954
 4087SOL    HW114100   9.441   9.279   8.986
 4087SOL    HW214101   9.478   9.140   9.033
 4088SOL     OW14102   2.270  13.742  12.631
 4088SOL    HW114103   2.338  13.725  12.696
 4088SOL    HW214104   2.203  13.676  12.650
 4089SOL     OW14105   3.353   8.466   5.889
 4089SOL    HW114106   3.258   8.455   5.893
 4089SOL    HW214107   3.366   8.559   5.869
 4090SOL     OW14108   7.903   4.117  13.484
 4090SOL    HW114109   7.903   4.116  13.580
 4090SOL    HW214110   7.883   4.208  13.461
 4091SOL     OW14111   3.188   5.081  13.964
 4091SOL    HW114112   3.182   5.173  13.939
 4091SOL    HW214113   3.258   5.078  14.029
 4092SOL     OW14114   1.922   4.604   4.439
 4092SOL    HW114115   1.955   4.649   4.516
 4092SOL    HW214116   1.960   4.516   4.444
 4093SOL     OW14117   1.546   1.261  11.061
 4093SOL    HW114118   1.543   1.172  11.029
 4093SOL    HW214119   1.454   1.287  11.070
 4094SOL     OW14120   5.113   1.933  13.468
 4094SOL    HW114121   5.033   1.980  13.490
 4094SOL    HW214122   5.086   1.841  13.460
 4095SOL     OW14123  12.163   6.882   3.389
 4095SOL    HW114124  12.075   6.911   3.415
 4095SOL    HW214125  12.148   6.799   3.344
 4096SOL     OW14126  11.411  12.987  13.672
 4096SOL    HW114127  11.460  13.011  13.750
 4096SOL    HW214128  11.472  12.935  13.620
 4097SOL     OW14129   6.754   6.539   1.823
 4097SOL    HW114130   6.822   6.553   1.757
 4097SOL    HW214131   6.672   6.557   1.776
 4098SOL     OW14132   7.270  10.170   4.818
 4098SOL    HW114133   7.246  10.260   4.796
 4098SOL    HW214134   7.213  10.115   4.763
 4099SOL     OW14135   9.604  14.528   2.998
 4099SOL    HW114136   9.605  14.524   3.094
 4099SOL    HW214137   9.697  14.533   2.974
 4100SOL     OW14138   3.359  10.607  12.581
 4100SOL    HW114139   3.367  10.646  12.494
 4100SOL    HW214140   3.269  10.574  12.585
 4101SOL     OW14141   5.107   8.968   4.888
 4101SOL    HW114142   5.105   8.877   4.861
 4101SOL    HW214143   5.196   8.982   4.920
 4102SOL     OW14144   1.585   6.232  13.619
 4102SOL    HW114145   1.545   6.241  13.532
 4102SOL    HW214146   1.679   6.238  13.604
 4103SOL     OW14147   0.927   0.396   4.108
 4103SOL    HW114148   0.886   0.429   4.028
 4103SOL    HW214149   0.891   0.309   4.119
 4104SOL     OW14150   2.933   7.948   9.691
 4104SOL    HW114151   2.910   7.908   9.774
 4104SOL    HW214152   2.851   7.987   9.659
 4105SOL     OW14153   6.046  12.079   2.235
 4105SOL    HW114154   6.055  12.077   2.330
 4105SOL    HW214155   6.106  12.012   2.203
 4106SOL     OW14156   6.681   4.754   2.880
 4106SOL    HW114157   6.730   4.808   2.818
 4106SOL    HW214158   6.708   4.664   2.861
 4107SOL     OW14159  13.867  10.544  14.686
 4107SOL    HW114160  13.885  10.635  14.709
 4107SOL    HW214161  13.813  10.549  14.607
 4108SOL     OW14162   0.597   9.217   2.034
 4108SOL    HW114163   0.678   9.208   2.084
 4108SOL    HW214164   0.528   9.210   2.099
 4109SOL     OW14165   2.199  12.453   2.833
 4109SOL    HW114166   2.125  12.502   2.871
 4109SOL    HW214167   2.164  12.417   2.752
 4110SOL     OW14168   7.457   7.209   3.264
 4110SOL    HW114169   7.509   7.130   3.249
 4110SOL    HW214170   7.437   7.241   3.176
 4111SOL     OW14171   5.334   1.133   3.148
 4111SOL    HW114172   5.255   1.083   3.168
 4111SOL    HW214173   5.394   1.068   3.110
 4112SOL     OW14174  13.123  10.315   1.076
 4112SOL    HW114175  13.073  10.391   1.046
 4112SOL    HW214176  13.115  10.318   1.172
 4113SOL     OW14177   3.441  13.079  12.444
 4113SOL    HW114178   3.417  13.151  12.502
 4113SOL    HW214179   3.379  13.009  12.464
 4114SOL     OW14180  14.348   6.528  13.301
 4114SOL    HW114181  14.376   6.612  13.265
 4114SOL    HW214182  14.253   6.534  13.305
 4115SOL     OW14183   8.872  11.965  12.811
 4115SOL    HW114184   8.866  11.880  12.767
 4115SOL    HW214185   8.796  12.013  12.780
 4116SOL     OW14186  10.784  11.463   2.061
 4116SOL    HW114187  10.763  11.372   2.038
 4116SOL    HW214188  10.709  11.493   2.112
 4117SOL     OW14189   7.189   0.211   4.575
 4117SOL    HW114190   7.150   0.226   4.661
 4117SOL    HW214191   7.211   0.118   4.573
 4118SOL     OW14192  13.642   1.319  12.366
 4118SOL    HW114193  13.649   1.404  12.411
 4118SOL    HW214194  13.592   1.338  12.287
 4119SOL     OW14195  14.118   8.910   4.764
 4119SOL    HW114196  14.057   8.836   4.764
 4119SOL    HW214197  14.133   8.929   4.856
 4120SOL     OW14198   4.952   5.200   8.388
 4120SOL    HW114199   4.908   5.172   8.308
 4120SOL    HW214200   4.936   5.294   8.393
 4121SOL     OW14201   2.099  13.508   1.688
 4121SOL    HW114202   2.099  13.604   1.692
 4121SOL    HW214203   2.073  13.487   1.598
 4122SOL     OW14204  14.652  14.252   7.700
 4122SOL    HW114205  14.559  14.233   7.692
 4122SOL    HW214206  14.675  14.224   7.789
 4123SOL     OW14207  11.890   5.063   1.483
 4123SOL    HW114208  11.954   4.998   1.512
 4123SOL    HW214209  11.805   5.023   1.501
 4124SOL     OW14210   3.484  12.739   0.899
 4124SOL    HW114211   3.578  12.756   0.890
 4124SOL    HW214212   3.477  12.644   0.899
 4125SOL     OW14213   6.882   4.426   1.774
 4125SOL    HW114214   6.935   4.482   1.830
 4125SOL    HW214215   6.797   4.423   1.818
 4126SOL     OW14216   7.762   3.565   4.521
 4126SOL    HW114217   7.714   3.648   4.518
 4126SOL    HW214218   7.708   3.508   4.576
 4127SOL     OW14219   8.442   1.149   7.676
 4127SOL    HW114220   8.441   1.147   7.771
 4127SOL    HW214221   8.478   1.064   7.650
 4128SOL     OW14222   7.017   0.963  13.956
 4128SOL    HW114223   6.927   0.988  13.935
 4128SOL    HW214224   7.070   1.012  13.892
 4129SOL     OW14225  10.582  13.838  11.029
 4129SOL    HW114226  10.594  13.743  11.032
 4129SOL    HW214227  10.668  13.873  11.007
 4130SOL     OW14228  12.323   4.003   8.361
 4130SOL    HW114229  12.384   3.931   8.342
 4130SOL    HW214230  12.244   3.960   8.392
 4131SOL     OW14231   0.139  13.675   6.723
 4131SOL    HW114232   0.076  13.739   6.755
 4131SOL    HW214233   0.097  13.634   6.648
 4132SOL     OW14234  11.938   1.770   2.153
 4132SOL    HW114235  11.973   1.761   2.064
 4132SOL    HW214236  11.969   1.856   2.181
 4133SOL     OW14237  14.683   3.994   8.047
 4133SOL    HW114238  14.609   4.010   8.105
 4133SOL    HW214239  14.648   3.934   7.981
 4134SOL     OW14240   5.085   8.442  10.136
 4134SOL    HW114241   5.177   8.415  10.126
 4134SOL    HW214242   5.043   8.368  10.180
 4135SOL     OW14243   1.971  10.319  13.108
 4135SOL    HW114244   1.943  10.273  13.029
 4135SOL    HW214245   2.054  10.360  13.083
 4136SOL     OW14246   9.258  13.611   2.047
 4136SOL    HW114247   9.352  13.616   2.062
 4136SOL    HW214248   9.242  13.519   2.024
 4137SOL     OW14249   8.698   1.818   2.594
 4137SOL    HW114250   8.647   1.797   2.516
 4137SOL    HW214251   8.729   1.732   2.625
 4138SOL     OW14252   4.505  14.561   3.832
 4138SOL    HW114253   4.542  14.524   3.912
 4138SOL    HW214254   4.568  14.627   3.804
 4139SOL     OW14255   2.011   0.264   8.055
 4139SOL    HW114256   1.932   0.312   8.030
 4139SOL    HW214257   2.071   0.331   8.086
 4140SOL     OW14258   7.560   3.315  14.259
 4140SOL    HW114259   7.486   3.300  14.317
 4140SOL    HW214260   7.636   3.316  14.317
 4141SOL     OW14261   9.728  14.736   8.199
 4141SOL    HW114262   9.765  14.749   8.286
 4141SOL    HW214263   9.753  14.815   8.151
 4142SOL     OW14264   9.168  13.786  11.220
 4142SOL    HW114265   9.213  13.710  11.258
 4142SOL    HW214266   9.236  13.833  11.172
 4143SOL     OW14267   1.293  10.860  11.707
 4143SOL    HW114268   1.330  10.774  11.686
 4143SOL    HW214269   1.370  10.916  11.721
 4144SOL     OW14270   4.428   0.605   7.334
 4144SOL    HW114271   4.466   0.567   7.413
 4144SOL    HW214272   4.443   0.699   7.342
 4145SOL     OW14273   0.115   7.490   1.698
 4145SOL    HW114274   0.186   7.553   1.687
 4145SOL    HW214275   0.067   7.521   1.775
 4146SOL     OW14276   8.048   3.676  11.336
 4146SOL    HW114277   7.997   3.608  11.380
 4146SOL    HW214278   7.983   3.733  11.296
 4147SOL     OW14279   6.112  14.004   0.846
 4147SOL    HW114280   6.018  13.984   0.843
 4147SOL    HW214281   6.136  14.023   0.755
 4148SOL     OW14282   0.609   5.935   5.924
 4148SOL    HW114283   0.591   5.971   5.838
 4148SOL    HW214284   0.699   5.959   5.943
 4149SOL     OW14285   5.170   0.112   9.817
 4149SOL    HW114286   5.088   0.102   9.865
 4149SOL    HW214287   5.225   0.166   9.874
 4150SOL     OW14288  13.734   6.967  11.265
 4150SOL    HW114289  13.736   6.871  11.260
 4150SOL    HW214290  13.718   6.986  11.357
 4151SOL     OW14291  13.275   8.793   5.516
 4151SOL    HW114292  13.266   8.866   5.576
 4151SOL    HW214293  13.369   8.786   5.499
 4152SOL     OW14294   2.408  11.817   6.906
 4152SOL    HW114295   2.437  11.731   6.937
 4152SOL    HW214296   2.313  11.807   6.895
 4153SOL     OW14297   0.564  11.964   2.923
 4153SOL    HW114298   0.544  11.956   3.016
 4153SOL    HW214299   0.620  11.889   2.904
 4154SOL     OW14300   1.946   1.486   0.928
 4154SOL    HW114301   1.988   1.511   0.845
 4154SOL    HW214302   1.912   1.398   0.912
 4155SOL     OW14303   5.902   4.493   0.827
 4155SOL    HW114304   5.935   4.411   0.791
 4155SOL    HW214305   5.823   4.511   0.777
 4156SOL     OW14306   0.307   1.850   8.787
 4156SOL    HW114307   0.293   1.755   8.788
 4156SOL    HW214308   0.326   1.872   8.878
 4157SOL     OW14309   0.124   2.796   0.671
 4157SOL    HW114310   0.042   2.750   0.687
 4157SOL    HW214311   0.111   2.883   0.709
 4158SOL     OW14312   6.485  12.236   4.151
 4158SOL    HW114313   6.557  12.264   4.094
 4158SOL    HW214314   6.458  12.152   4.115
 4159SOL     OW14315  11.153   3.594  12.083
 4159SOL    HW114316  11.188   3.548  12.007
 4159SOL    HW214317  11.230   3.614  12.137
 4160SOL     OW14318   9.544   7.370  10.513
 4160SOL    HW114319   9.488   7.389  10.587
 4160SOL    HW214320   9.535   7.445  10.455
 4161SOL     OW14321  12.883  12.944  11.088
 4161SOL    HW114322  12.818  12.874  11.078
 4161SOL    HW214323  12.833  13.019  11.121
 4162SOL     OW14324   7.024   9.193   9.854
 4162SOL    HW114325   6.955   9.190   9.920
 4162SOL    HW214326   7.016   9.281   9.816
 4163SOL     OW14327  10.383   6.221   1.897
 4163SOL    HW114328  10.309   6.280   1.908
 4163SOL    HW214329  10.348   6.134   1.916
 4164SOL     OW14330   6.144   2.336   4.425
 4164SOL    HW114331   6.164   2.405   4.361
 4164SOL    HW214332   6.068   2.290   4.388
 4165SOL     OW14333   5.695   4.084   5.265
 4165SOL    HW114334   5.672   4.165   5.311
 4165SOL    HW214335   5.612   4.049   5.234
 4166SOL     OW14336  13.372   0.559  12.788
 4166SOL    HW114337  13.309   0.613  12.837
 4166SOL    HW214338  13.365   0.591  12.698
 4167SOL     OW14339   4.401   0.005   3.042
 4167SOL    HW114340   4.330  14.823   3.072
 4167SOL    HW214341   4.399  14.871   2.946
 4168SOL     OW14342   9.885   4.925   3.985
 4168SOL    HW114343   9.972   4.943   3.949
 4168SOL    HW214344   9.830   4.906   3.909
 4169SOL     OW14345   4.797   7.671   3.509
 4169SOL    HW114346   4.733   7.700   3.575
 4169SOL    HW214347   4.880   7.706   3.541
 4170SOL     OW14348  14.220   8.425   2.464
 4170SOL    HW114349  14.280   8.496   2.484
 4170SOL    HW214350  14.168   8.414   2.544
 4171SOL     OW14351   2.248   7.630  11.187
 4171SOL    HW114352   2.272   7.573  11.260
 4171SOL    HW214353   2.197   7.700  11.227
 4172SOL     OW14354  14.838   3.469  11.766
 4172SOL    HW114355   0.026   3.420  11.821
 4172SOL    HW214356  14.864   3.560  11.777
 4173SOL     OW14357  14.823   4.254  10.379
 4173SOL    HW114358  14.826   4.226  10.470
 4173SOL    HW214359  14.792   4.178  10.331
 4174SOL     OW14360   2.425  11.645   2.723
 4174SOL    HW114361   2.418  11.554   2.753
 4174SOL    HW214362   2.341  11.662   2.679
 4175SOL     OW14363   3.973   3.329  11.708
 4175SOL    HW114364   3.969   3.413  11.662
 4175SOL    HW214365   4.047   3.284  11.668
 4176SOL     OW14366   0.574   0.042   3.038
 4176SOL    HW114367   0.480   0.058   3.023
 4176SOL    HW214368   0.593   0.088   3.120
 4177SOL     OW14369   9.784   5.463   7.582
 4177SOL    HW114370   9.697   5.452   7.544
 4177SOL    HW214371   9.783   5.551   7.619
 4178SOL     OW14372   3.134  10.537   3.998
 4178SOL    HW114373   3.221  10.546   3.959
 4178SOL    HW214374   3.137  10.594   4.075
 4179SOL     OW14375   3.380  10.129  14.747
 4179SOL    HW114376   3.357  10.103  14.658
 4179SOL    HW214377   3.330  10.209  14.762
 4180SOL     OW14378  14.391   5.931   9.955
 4180SOL    HW114379  14.301   5.900   9.962
 4180SOL    HW214380  14.436   5.862   9.905
 4181SOL     OW14381   7.559   5.057   4.954
 4181SOL    HW114382   7.481   5.007   4.976
 4181SOL    HW214383   7.530   5.124   4.892
 4182SOL     OW14384   5.428  11.495   1.187
 4182SOL    HW114385   5.455  11.403   1.193
 4182SOL    HW214386   5.388  11.514   1.272
 4183SOL     OW14387   5.309   5.697   3.200
 4183SOL    HW114388   5.220   5.666   3.218
 4183SOL    HW214389   5.364   5.645   3.259
 4184SOL     OW14390  10.583  12.238   5.985
 4184SOL    HW114391  10.510  12.295   6.008
 4184SOL    HW214392  10.653  12.297   5.959
 4185SOL     OW14393  11.396   1.635   9.490
 4185SOL    HW114394  11.317   1.688   9.476
 4185SOL    HW214395  11.467   1.699   9.487
 4186SOL     OW14396   8.363  13.926   4.316
 4186SOL    HW114397   8.322  13.904   4.233
 4186SOL    HW214398   8.289  13.943   4.375
 4187SOL     OW14399   5.003   1.436  11.943
 4187SOL    HW114400   4.991   1.450  11.849
 4187SOL    HW214401   5.098   1.430  11.954
 4188SOL     OW14402   6.068   7.419   8.402
 4188SOL    HW114403   6.063   7.448   8.493
 4188SOL    HW214404   6.032   7.330   8.404
 4189SOL     OW14405   3.089  13.659   8.045
 4189SOL    HW114406   3.123  13.672   8.134
 4189SOL    HW214407   2.994  13.667   8.055
 4190SOL     OW14408  13.850   6.117   6.111
 4190SOL    HW114409  13.932   6.165   6.126
 4190SOL    HW214410  13.844   6.111   6.016
 4191SOL     OW14411  14.090   8.428   8.303
 4191SOL    HW114412  14.148   8.464   8.237
 4191SOL    HW214413  14.070   8.503   8.360
 4192SOL     OW14414   7.874   6.380  11.160
 4192SOL    HW114415   7.875   6.470  11.127
 4192SOL    HW214416   7.875   6.389  11.255
 4193SOL     OW14417   4.480   2.859  11.321
 4193SOL    HW114418   4.506   2.915  11.248
 4193SOL    HW214419   4.563   2.828  11.358
 4194SOL     OW14420   4.758  11.303  11.510
 4194SOL    HW114421   4.829  11.243  11.490
 4194SOL    HW214422   4.709  11.261  11.580
 4195SOL     OW14423   3.739  14.733   9.669
 4195SOL    HW114424   3.829  14.717   9.641
 4195SOL    HW214425   3.700  14.646   9.674
 4196SOL     OW14426   5.572   7.225   7.065
 4196SOL    HW114427   5.545   7.180   7.145
 4196SOL    HW214428   5.558   7.318   7.084
 4197SOL     OW14429   8.886   5.555   8.104
 4197SOL    HW114430   8.799   5.530   8.134
 4197SOL    HW214431   8.905   5.495   8.032
 4198SOL     OW14432   4.953   1.536   2.529
 4198SOL    HW114433   5.042   1.570   2.523
 4198SOL    HW214434   4.957   1.453   2.481
 4199SOL     OW14435   0.319   5.316   3.237
 4199SOL    HW114436   0.252   5.251   3.215
 4199SOL    HW214437   0.365   5.278   3.312
 4200SOL     OW14438  14.282  12.370   0.015
 4200SOL    HW114439  14.245  12.397  14.805
 4200SOL    HW214440  14.349  12.305  14.866
 4201SOL     OW14441   6.144   8.144   9.620
 4201SOL    HW114442   6.063   8.143   9.568
 4201SOL    HW214443   6.177   8.055   9.613
 4202SOL     OW14444  14.863   1.638   3.097
 4202SOL    HW114445  14.800   1.674   3.160
 4202SOL    HW214446   0.026   1.562   3.141
 4203SOL     OW14447   1.422  11.770   8.175
 4203SOL    HW114448   1.438  11.843   8.116
 4203SOL    HW214449   1.336  11.736   8.148
 4204SOL     OW14450   0.926   2.721  14.606
 4204SOL    HW114451   0.883   2.679  14.680
 4204SOL    HW214452   0.889   2.810  14.604
 4205SOL     OW14453   1.809   0.718   4.194
 4205SOL    HW114454   1.749   0.784   4.227
 4205SOL    HW214455   1.842   0.754   4.112
 4206SOL     OW14456   6.974   6.596  10.399
 4206SOL    HW114457   6.898   6.651  10.382
 4206SOL    HW214458   7.047   6.658  10.409
 4207SOL     OW14459  11.684   0.002  11.852
 4207SOL    HW114460  11.649   0.042  11.931
 4207SOL    HW214461  11.667   0.065  11.782
 4208SOL     OW14462   4.183   2.317   7.199
 4208SOL    HW114463   4.212   2.365   7.276
 4208SOL    HW214464   4.184   2.382   7.129
 4209SOL     OW14465   1.156   0.247   3.702
 4209SOL    HW114466   1.242   0.220   3.733
 4209SOL    HW214467   1.144   0.200   3.619
 4210SOL     OW14468   6.324   6.358   1.186
 4210SOL    HW114469   6.362   6.424   1.244
 4210SOL    HW214470   6.297   6.288   1.245
 4211SOL     OW14471   9.904  14.860   0.269
 4211SOL    HW114472   9.972  14.831   0.331
 4211SOL    HW214473   9.909   0.081   0.270
 4212SOL     OW14474   2.835  12.728   5.430
 4212SOL    HW114475   2.892  12.654   5.407
 4212SOL    HW214476   2.865  12.755   5.517
 4213SOL     OW14477   2.871   2.341   1.118
 4213SOL    HW114478   2.846   2.258   1.078
 4213SOL    HW214479   2.820   2.346   1.198
 4214SOL     OW14480   4.434   6.194  14.544
 4214SOL    HW114481   4.345   6.188  14.508
 4214SOL    HW214482   4.491   6.177  14.469
 4215SOL     OW14483  10.174   3.142  14.651
 4215SOL    HW114484  10.104   3.179  14.597
 4215SOL    HW214485  10.252   3.145  14.596
 4216SOL     OW14486   2.036   7.182  13.686
 4216SOL    HW114487   2.022   7.094  13.653
 4216SOL    HW214488   2.127   7.201  13.666
 4217SOL     OW14489   4.002  12.468   3.385
 4217SOL    HW114490   4.035  12.457   3.474
 4217SOL    HW214491   3.995  12.379   3.350
 4218SOL     OW14492   8.311   1.945  11.209
 4218SOL    HW114493   8.341   1.934  11.300
 4218SOL    HW214494   8.216   1.941  11.215
 4219SOL     OW14495   7.687   5.383  12.378
 4219SOL    HW114496   7.742   5.319  12.333
 4219SOL    HW214497   7.706   5.466  12.334
 4220SOL     OW14498   6.525   2.755  13.772
 4220SOL    HW114499   6.587   2.802  13.717
 4220SOL    HW214500   6.453   2.733  13.713
 4221SOL     OW14501  13.986   0.504   8.416
 4221SOL    HW114502  13.964   0.478   8.327
 4221SOL    HW214503  13.981   0.422   8.467
 4222SOL     OW14504   1.873  13.874   0.101
 4222SOL    HW114505   1.938  13.873   0.172
 4222SOL    HW214506   1.824  13.793   0.113
 4223SOL     OW14507   8.412   5.023  10.688
 4223SOL    HW114508   8.335   4.967  10.693
 4223SOL    HW214509   8.419   5.047  10.596
 4224SOL     OW14510   6.192  12.886   7.591
 4224SOL    HW114511   6.141  12.812   7.556
 4224SOL    HW214512   6.281  12.871   7.559
 4225SOL     OW14513   9.196   8.073   2.234
 4225SOL    HW114514   9.244   8.013   2.291
 4225SOL    HW214515   9.249   8.080   2.155
 4226SOL     OW14516   0.332   0.373   9.034
 4226SOL    HW114517   0.329   0.424   8.952
 4226SOL    HW214518   0.361   0.286   9.007
 4227SOL     OW14519  14.670   4.989   5.746
 4227SOL    HW114520  14.636   5.022   5.663
 4227SOL    HW214521  14.749   5.041   5.763
 4228SOL     OW14522   6.783   4.230   6.581
 4228SOL    HW114523   6.833   4.302   6.619
 4228SOL    HW214524   6.699   4.271   6.557
 4229SOL     OW14525   9.118   9.823   4.193
 4229SOL    HW114526   9.127   9.888   4.262
 4229SOL    HW214527   9.023   9.806   4.188
 4230SOL     OW14528   2.937   0.825   2.811
 4230SOL    HW114529   2.999   0.803   2.741
 4230SOL    HW214530   2.914   0.916   2.794
 4231SOL     OW14531   9.084  13.564   7.915
 4231SOL    HW114532   9.035  13.510   7.853
 4231SOL    HW214533   9.147  13.612   7.860
 4232SOL     OW14534   4.905   3.226  11.171
 4232SOL    HW114535   4.886   3.271  11.089
 4232SOL    HW214536   4.980   3.170  11.150
 4233SOL     OW14537  13.554  14.528   6.139
 4233SOL    HW114538  13.575  14.565   6.053
 4233SOL    HW214539  13.602  14.583   6.201
 4234SOL     OW14540   2.070  11.989  14.277
 4234SOL    HW114541   2.074  11.974  14.183
 4234SOL    HW214542   2.127  12.064  14.292
 4235SOL     OW14543   2.076   3.476   3.701
 4235SOL    HW114544   1.981   3.487   3.703
 4235SOL    HW214545   2.109   3.561   3.670
 4236SOL     OW14546   6.555  14.570   8.364
 4236SOL    HW114547   6.617  14.516   8.316
 4236SOL    HW214548   6.484  14.510   8.387
 4237SOL     OW14549   3.493  12.669  10.695
 4237SOL    HW114550   3.583  12.639  10.684
 4237SOL    HW214551   3.453  12.605  10.753
 4238SOL     OW14552   4.680  10.746   3.797
 4238SOL    HW114553   4.659  10.778   3.885
 4238SOL    HW214554   4.634  10.805   3.738
 4239SOL     OW14555  11.225  14.134   1.463
 4239SOL    HW114556  11.170  14.056   1.471
 4239SOL    HW214557  11.223  14.156   1.370
 4240SOL     OW14558  12.391  12.444   2.868
 4240SOL    HW114559  12.330  12.512   2.840
 4240SOL    HW214560  12.455  12.437   2.797
 4241SOL     OW14561   3.876   2.513  11.251
 4241SOL    HW114562   3.797   2.536  11.301
 4241SOL    HW214563   3.847   2.444  11.191
 4242SOL     OW14564   5.355   3.744   5.689
 4242SOL    HW114565   5.375   3.834   5.664
 4242SOL    HW214566   5.400   3.731   5.772
 4243SOL     OW14567  12.959   0.491   7.035
 4243SOL    HW114568  12.997   0.451   7.113
 4243SOL    HW214569  12.984   0.584   7.041
 4244SOL     OW14570  12.367   1.117   7.255
 4244SOL    HW114571  12.384   1.211   7.250
 4244SOL    HW214572  12.369   1.097   7.349
 4245SOL     OW14573   9.808   2.965  12.927
 4245SOL    HW114574   9.892   3.000  12.957
 4245SOL    HW214575   9.743   3.010  12.981
 4246SOL     OW14576  13.904   2.023   3.444
 4246SOL    HW114577  13.980   2.045   3.498
 4246SOL    HW214578  13.906   2.086   3.372
 4247SOL     OW14579   1.040   6.625   2.479
 4247SOL    HW114580   0.948   6.601   2.465
 4247SOL    HW214581   1.059   6.690   2.412
 4248SOL     OW14582   6.657  10.267   6.271
 4248SOL    HW114583   6.691  10.226   6.192
 4248SOL    HW214584   6.728  10.323   6.303
 4249SOL     OW14585   9.088   0.749   5.259
 4249SOL    HW114586   9.069   0.768   5.351
 4249SOL    HW214587   9.008   0.710   5.225
 4250SOL     OW14588  11.361  10.805   6.539
 4250SOL    HW114589  11.381  10.855   6.459
 4250SOL    HW214590  11.267  10.791   6.536
 4251SOL     OW14591  10.977   5.175  12.140
 4251SOL    HW114592  11.029   5.114  12.193
 4251SOL    HW214593  11.010   5.261  12.163
 4252SOL     OW14594   1.789  10.307   8.945
 4252SOL    HW114595   1.868  10.340   8.987
 4252SOL    HW214596   1.778  10.363   8.868
 4253SOL     OW14597   1.116  10.549   5.501
 4253SOL    HW114598   1.054  10.533   5.572
 4253SOL    HW214599   1.089  10.632   5.463
 4254SOL     OW14600  14.717  11.395   3.879
 4254SOL    HW114601  14.715  11.491   3.876
 4254SOL    HW214602  14.775  11.370   3.807
 4255SOL     OW14603   1.992   6.611   2.828
 4255SOL    HW114604   1.960   6.698   2.805
 4255SOL    HW214605   1.948   6.551   2.768
 4256SOL     OW14606   1.727  10.069   4.469
 4256SOL    HW114607   1.719  10.008   4.542
 4256SOL    HW214608   1.781  10.022   4.405
 4257SOL     OW14609   9.499   3.987  14.605
 4257SOL    HW114610   9.523   3.913  14.549
 4257SOL    HW214611   9.576   4.002  14.660
 4258SOL     OW14612  14.077  10.381  14.868
 4258SOL    HW114613  14.010  10.446   0.015
 4258SOL    HW214614  14.116  10.359   0.078
 4259SOL     OW14615   4.694   2.807   9.941
 4259SOL    HW114616   4.723   2.738  10.001
 4259SOL    HW214617   4.690   2.886   9.995
 4260SOL     OW14618  13.225  10.280  13.541
 4260SOL    HW114619  13.301  10.239  13.582
 4260SOL    HW214620  13.208  10.227  13.463
 4261SOL     OW14621   6.858   4.706  12.211
 4261SOL    HW114622   6.767   4.694  12.185
 4261SOL    HW214623   6.864   4.663  12.297
 4262SOL     OW14624   5.052   9.081  12.259
 4262SOL    HW114625   5.134   9.113  12.221
 4262SOL    HW214626   5.059   8.985  12.254
 4263SOL     OW14627   3.565   2.024   9.089
 4263SOL    HW114628   3.634   1.991   9.147
 4263SOL    HW214629   3.582   1.980   9.006
 4264SOL     OW14630  14.100  10.408   6.604
 4264SOL    HW114631  14.032  10.431   6.541
 4264SOL    HW214632  14.055  10.406   6.689
 4265SOL     OW14633  10.415   1.404   5.122
 4265SOL    HW114634  10.497   1.423   5.168
 4265SOL    HW214635  10.437   1.336   5.059
 4266SOL     OW14636   4.621   5.762  10.854
 4266SOL    HW114637   4.636   5.741  10.762
 4266SOL    HW214638   4.581   5.682  10.891
 4267SOL     OW14639   9.161  12.364   4.995
 4267SOL    HW114640   9.254  12.377   5.011
 4267SOL    HW214641   9.156  12.283   4.944
 4268SOL     OW14642   4.800   7.395   9.915
 4268SOL    HW114643   4.707   7.387   9.893
 4268SOL    HW214644   4.844   7.334   9.855
 4269SOL     OW14645   0.518  11.076   7.297
 4269SOL    HW114646   0.488  11.159   7.334
 4269SOL    HW214647   0.537  11.096   7.205
 4270SOL     OW14648  12.316  10.154  14.752
 4270SOL    HW114649  12.373  10.212  14.803
 4270SOL    HW214650  12.372  10.120  14.683
 4271SOL     OW14651  10.050   2.903   4.622
 4271SOL    HW114652  10.104   2.825   4.613
 4271SOL    HW214653   9.969   2.873   4.662
 4272SOL     OW14654   9.621   7.319   4.772
 4272SOL    HW114655   9.661   7.241   4.809
 4272SOL    HW214656   9.600   7.295   4.681
 4273SOL     OW14657  11.418  12.934  12.825
 4273SOL    HW114658  11.324  12.940  12.839
 4273SOL    HW214659  11.439  12.842  12.844
 4274SOL     OW14660  10.745  11.945  13.671
 4274SOL    HW114661  10.689  11.898  13.734
 4274SOL    HW214662  10.702  12.029  13.658
 4275SOL     OW14663   5.575   2.665   0.328
 4275SOL    HW114664   5.512   2.617   0.275
 4275SOL    HW214665   5.589   2.747   0.281
 4276SOL     OW14666   5.348   8.786   6.579
 4276SOL    HW114667   5.298   8.836   6.643
 4276SOL    HW214668   5.288   8.773   6.505
 4277SOL     OW14669  12.794   4.779   4.504
 4277SOL    HW114670  12.806   4.821   4.419
 4277SOL    HW214671  12.871   4.723   4.515
 4278SOL     OW14672   8.003  12.418   5.630
 4278SOL    HW114673   8.065  12.410   5.557
 4278SOL    HW214674   8.055  12.403   5.708
 4279SOL     OW14675   4.992   0.271  11.446
 4279SOL    HW114676   4.975   0.258  11.353
 4279SOL    HW214677   5.087   0.280  11.452
 4280SOL     OW14678   7.579   9.668   5.002
 4280SOL    HW114679   7.494   9.647   4.962
 4280SOL    HW214680   7.585   9.608   5.077
 4281SOL     OW14681  10.789   0.097   5.909
 4281SOL    HW114682  10.824   0.115   5.996
 4281SOL    HW214683  10.787   0.182   5.866
 4282SOL     OW14684  10.032   5.131   4.445
 4282SOL    HW114685  10.012   5.215   4.404
 4282SOL    HW214686  10.038   5.069   4.372
 4283SOL     OW14687  11.083   4.515  12.672
 4283SOL    HW114688  11.172   4.532  12.639
 4283SOL    HW214689  11.035   4.485  12.596
 4284SOL     OW14690  13.569   5.814   6.576
 4284SOL    HW114691  13.549   5.754   6.648
 4284SOL    HW214692  13.554   5.762   6.497
 4285SOL     OW14693   2.304   2.275   6.940
 4285SOL    HW114694   2.250   2.229   6.876
 4285SOL    HW214695   2.384   2.297   6.893
 4286SOL     OW14696   6.126  11.338   6.511
 4286SOL    HW114697   6.186  11.320   6.438
 4286SOL    HW214698   6.051  11.381   6.470
 4287SOL     OW14699   7.974   8.404   2.884
 4287SOL    HW114700   7.991   8.474   2.947
 4287SOL    HW214701   8.058   8.392   2.839
 4288SOL     OW14702   7.853  13.463  12.760
 4288SOL    HW114703   7.834  13.382  12.807
 4288SOL    HW214704   7.826  13.533  12.821
 4289SOL     OW14705   9.296  11.146   4.549
 4289SOL    HW114706   9.348  11.195   4.485
 4289SOL    HW214707   9.269  11.067   4.503
 4290SOL     OW14708  13.154   9.789   4.819
 4290SOL    HW114709  13.181   9.877   4.793
 4290SOL    HW214710  13.189   9.732   4.751
 4291SOL     OW14711  14.343   4.305   2.142
 4291SOL    HW114712  14.425   4.348   2.120
 4291SOL    HW214713  14.296   4.298   2.059
 4292SOL     OW14714  12.208   5.162   7.122
 4292SOL    HW114715  12.281   5.105   7.148
 4292SOL    HW214716  12.130   5.110   7.138
 4293SOL     OW14717  14.697   6.582   1.439
 4293SOL    HW114718  14.790   6.561   1.452
 4293SOL    HW214719  14.675   6.642   1.510
 4294SOL     OW14720   4.793   3.751   9.423
 4294SOL    HW114721   4.717   3.809   9.420
 4294SOL    HW214722   4.758   3.664   9.403
 4295SOL     OW14723   1.706   8.044   2.104
 4295SOL    HW114724   1.692   8.029   2.010
 4295SOL    HW214725   1.773   7.981   2.128
 4296SOL     OW14726   9.746   1.382   7.973
 4296SOL    HW114727   9.830   1.371   7.928
 4296SOL    HW214728   9.758   1.459   8.028
 4297SOL     OW14729   2.213   2.209   9.307
 4297SOL    HW114730   2.178   2.180   9.223
 4297SOL    HW214731   2.148   2.272   9.339
 4298SOL     OW14732  12.453  12.865  14.256
 4298SOL    HW114733  12.466  12.959  14.253
 4298SOL    HW214734  12.529  12.831  14.303
 4299SOL     OW14735   7.396   5.271   6.112
 4299SOL    HW114736   7.464   5.333   6.086
 4299SOL    HW214737   7.325   5.285   6.049
 4300SOL     OW14738   8.864   5.243  13.390
 4300SOL    HW114739   8.866   5.223  13.296
 4300SOL    HW214740   8.932   5.188  13.428
 4301SOL     OW14741   9.530   2.233   2.721
 4301SOL    HW114742   9.474   2.295   2.768
 4301SOL    HW214743   9.513   2.250   2.628
 4302SOL     OW14744   9.107   0.280   0.106
 4302SOL    HW114745   9.036   0.235   0.061
 4302SOL    HW214746   9.092   0.262   0.199
 4303SOL     OW14747   6.607  12.460   0.435
 4303SOL    HW114748   6.542  12.529   0.441
 4303SOL    HW214749   6.686  12.498   0.472
 4304SOL     OW14750   4.896   5.503   6.656
 4304SOL    HW114751   4.813   5.546   6.676
 4304SOL    HW214752   4.896   5.492   6.561
 4305SOL     OW14753   2.353   4.730   5.211
 4305SOL    HW114754   2.319   4.818   5.230
 4305SOL    HW214755   2.373   4.731   5.118
 4306SOL     OW14756   7.621   6.610  11.171
 4306SOL    HW114757   7.577   6.674  11.227
 4306SOL    HW214758   7.681   6.662  11.117
 4307SOL     OW14759   0.602  10.520   9.795
 4307SOL    HW114760   0.526  10.564   9.755
 4307SOL    HW214761   0.569  10.434   9.819
 4308SOL     OW14762  12.459   5.835   5.734
 4308SOL    HW114763  12.488   5.746   5.716
 4308SOL    HW214764  12.501   5.888   5.666
 4309SOL     OW14765  13.103  11.176  14.697
 4309SOL    HW114766  13.111  11.244  14.764
 4309SOL    HW214767  13.156  11.103  14.729
 4310SOL     OW14768   4.750   0.200   5.363
 4310SOL    HW114769   4.705   0.284   5.373
 4310SOL    HW214770   4.717   0.165   5.280
 4311SOL     OW14771   6.028  10.625   5.363
 4311SOL    HW114772   6.093  10.600   5.428
 4311SOL    HW214773   5.944  10.607   5.405
 4312SOL     OW14774   6.995   3.013   7.955
 4312SOL    HW114775   7.015   3.100   7.990
 4312SOL    HW214776   6.979   3.027   7.862
 4313SOL     OW14777  10.473   0.790  11.883
 4313SOL    HW114778  10.420   0.745  11.949
 4313SOL    HW214779  10.542   0.727  11.860
 4314SOL     OW14780  14.117   2.813   2.753
 4314SOL    HW114781  14.033   2.785   2.716
 4314SOL    HW214782  14.178   2.742   2.731
 4315SOL     OW14783   8.695  14.803  14.005
 4315SOL    HW114784   8.734   0.016  14.002
 4315SOL    HW214785   8.725  14.760  13.925
 4316SOL     OW14786   1.887   2.772   0.123
 4316SOL    HW114787   1.910   2.747   0.213
 4316SOL    HW214788   1.838   2.698   0.089
 4317SOL     OW14789   7.421  10.241  12.279
 4317SOL    HW114790   7.348  10.184  12.302
 4317SOL    HW214791   7.387  10.297  12.209
 4318SOL     OW14792   5.862   8.275   5.481
 4318SOL    HW114793   5.820   8.204   5.434
 4318SOL    HW214794   5.808   8.352   5.462
 4319SOL     OW14795   7.732   3.327   8.253
 4319SOL    HW114796   7.822   3.308   8.228
 4319SOL    HW214797   7.735   3.336   8.348
 4320SOL     OW14798   9.595   5.468   2.517
 4320SOL    HW114799   9.525   5.528   2.543
 4320SOL    HW214800   9.626   5.430   2.599
 4321SOL     OW14801  12.084  11.559   2.939
 4321SOL    HW114802  11.996  11.593   2.922
 4321SOL    HW214803  12.126  11.627   2.991
 4322SOL     OW14804   6.800   2.454   5.445
 4322SOL    HW114805   6.797   2.360   5.425
 4322SOL    HW214806   6.800   2.497   5.360
 4323SOL     OW14807  12.894  12.713  12.544
 4323SOL    HW114808  12.859  12.781  12.487
 4323SOL    HW214809  12.987  12.734  12.553
 4324SOL     OW14810   7.763  12.833  11.631
 4324SOL    HW114811   7.845  12.813  11.677
 4324SOL    HW214812   7.715  12.890  11.691
 4325SOL     OW14813   2.450   0.355  10.614
 4325SOL    HW114814   2.538   0.393  10.607
 4325SOL    HW214815   2.416   0.359  10.524
 4326SOL     OW14816   1.344  11.835   5.316
 4326SOL    HW114817   1.291  11.898   5.365
 4326SOL    HW214818   1.382  11.779   5.384
 4327SOL     OW14819   4.181  10.619   8.809
 4327SOL    HW114820   4.262  10.592   8.765
 4327SOL    HW214821   4.192  10.591   8.900
 4328SOL     OW14822   8.641  11.508   8.760
 4328SOL    HW114823   8.736  11.516   8.754
 4328SOL    HW214824   8.608  11.581   8.708
 4329SOL     OW14825   0.607   1.590   2.417
 4329SOL    HW114826   0.614   1.535   2.494
 4329SOL    HW214827   0.519   1.628   2.421
 4330SOL     OW14828  10.219  13.000   0.528
 4330SOL    HW114829  10.294  13.034   0.577
 4330SOL    HW214830  10.248  13.000   0.437
 4331SOL     OW14831  13.778   3.173  13.444
 4331SOL    HW114832  13.748   3.256  13.407
 4331SOL    HW214833  13.699   3.131  13.478
 4332SOL     OW14834   7.168   7.473  10.789
 4332SOL    HW114835   7.165   7.569  10.794
 4332SOL    HW214836   7.147   7.445  10.878
 4333SOL     OW14837   0.282  14.570   6.800
 4333SOL    HW114838   0.214  14.631   6.772
 4333SOL    HW214839   0.341  14.564   6.724
 4334SOL     OW14840  10.818  12.392   3.408
 4334SOL    HW114841  10.753  12.376   3.476
 4334SOL    HW214842  10.787  12.471   3.363
 4335SOL     OW14843   1.536   7.908  10.372
 4335SOL    HW114844   1.501   7.985  10.327
 4335SOL    HW214845   1.461   7.871  10.418
 4336SOL     OW14846  13.550  11.487   2.266
 4336SOL    HW114847  13.501  11.542   2.205
 4336SOL    HW214848  13.628  11.461   2.218
 4337SOL     OW14849   8.128   8.081   9.232
 4337SOL    HW114850   8.136   7.989   9.206
 4337SOL    HW214851   8.038   8.104   9.210
 4338SOL     OW14852   0.750  13.044   6.325
 4338SOL    HW114853   0.754  12.951   6.347
 4338SOL    HW214854   0.696  13.046   6.246
 4339SOL     OW14855  12.863   9.088  12.010
 4339SOL    HW114856  12.819   9.007  12.036
 4339SOL    HW214857  12.804   9.158  12.039
 4340SOL     OW14858  10.565  13.032   2.992
 4340SOL    HW114859  10.475  13.000   2.981
 4340SOL    HW214860  10.558  13.127   2.980
 4341SOL     OW14861   2.837   4.925   4.637
 4341SOL    HW114862   2.852   5.013   4.602
 4341SOL    HW214863   2.924   4.892   4.657
 4342SOL     OW14864   9.718   9.915   6.695
 4342SOL    HW114865   9.642   9.939   6.642
 4342SOL    HW214866   9.756   9.839   6.651
 4343SOL     OW14867  10.197   4.207   6.391
 4343SOL    HW114868  10.179   4.130   6.336
 4343SOL    HW214869  10.162   4.281   6.342
 4344SOL     OW14870  10.551   4.442  12.635
 4344SOL    HW114871  10.487   4.406  12.696
 4344SOL    HW214872  10.562   4.374  12.569
 4345SOL     OW14873   6.309   8.892   8.702
 4345SOL    HW114874   6.266   8.892   8.616
 4345SOL    HW214875   6.381   8.953   8.693
 4346SOL     OW14876   0.718   6.224   6.383
 4346SOL    HW114877   0.801   6.270   6.396
 4346SOL    HW214878   0.681   6.215   6.471
 4347SOL     OW14879  13.698   5.189   9.980
 4347SOL    HW114880  13.662   5.101   9.973
 4347SOL    HW214881  13.673   5.231   9.898
 4348SOL     OW14882   3.888   8.663   1.984
 4348SOL    HW114883   3.841   8.585   2.015
 4348SOL    HW214884   3.943   8.689   2.058
 4349SOL     OW14885  11.295   3.430  13.029
 4349SOL    HW114886  11.387   3.459  13.027
 4349SOL    HW214887  11.289   3.375  13.106
 4350SOL     OW14888   5.159  10.687  13.546
 4350SOL    HW114889   5.186  10.755  13.607
 4350SOL    HW214890   5.066  10.704  13.531
 4351SOL     OW14891  11.597  13.521   2.553
 4351SOL    HW114892  11.504  13.542   2.560
 4351SOL    HW214893  11.599  13.425   2.548
 4352SOL     OW14894  11.941   9.785   2.616
 4352SOL    HW114895  12.007   9.839   2.659
 4352SOL    HW214896  11.873   9.847   2.590
 4353SOL     OW14897   9.801  10.721   9.106
 4353SOL    HW114898   9.829  10.750   9.020
 4353SOL    HW214899   9.721  10.670   9.090
 4354SOL     OW14900  13.720   3.533   0.879
 4354SOL    HW114901  13.661   3.520   0.954
 4354SOL    HW214902  13.808   3.519   0.915
 4355SOL     OW14903  14.449   0.410  13.710
 4355SOL    HW114904  14.475   0.409  13.618
 4355SOL    HW214905  14.364   0.366  13.711
 4356SOL     OW14906   4.862  10.671   3.173
 4356SOL    HW114907   4.942  10.701   3.217
 4356SOL    HW214908   4.837  10.591   3.219
 4357SOL     OW14909  14.598   8.871   5.647
 4357SOL    HW114910  14.565   8.879   5.737
 4357SOL    HW214911  14.526   8.899   5.592
 4358SOL     OW14912  12.070   0.801  10.438
 4358SOL    HW114913  12.057   0.719  10.487
 4358SOL    HW214914  12.135   0.849  10.489
 4359SOL     OW14915  11.028  10.717  10.806
 4359SOL    HW114916  10.954  10.656  10.804
 4359SOL    HW214917  11.005  10.783  10.741
 4360SOL     OW14918   5.992  12.279  12.549
 4360SOL    HW114919   6.018  12.324  12.629
 4360SOL    HW214920   5.911  12.233  12.573
 4361SOL     OW14921  13.786   4.137  13.655
 4361SOL    HW114922  13.834   4.219  13.664
 4361SOL    HW214923  13.749   4.120  13.741
 4362SOL     OW14924  13.338  14.796  10.825
 4362SOL    HW114925  13.382  14.767  10.746
 4362SOL    HW214926  13.248  14.813  10.797
 4363SOL     OW14927   3.417   7.624   8.271
 4363SOL    HW114928   3.359   7.692   8.306
 4363SOL    HW214929   3.389   7.543   8.315
 4364SOL     OW14930   6.939   0.345   0.324
 4364SOL    HW114931   7.012   0.399   0.294
 4364SOL    HW214932   6.932   0.276   0.258
 4365SOL     OW14933   6.557   0.068   9.769
 4365SOL    HW114934   6.476   0.119   9.769
 4365SOL    HW214935   6.613   0.110   9.704
 4366SOL     OW14936  13.937   8.565  13.334
 4366SOL    HW114937  13.932   8.630  13.404
 4366SOL    HW214938  14.011   8.593  13.281
 4367SOL     OW14939   2.109   2.247   8.239
 4367SOL    HW114940   2.040   2.250   8.305
 4367SOL    HW214941   2.063   2.223   8.158
 4368SOL     OW14942   6.324  11.971   4.970
 4368SOL    HW114943   6.248  11.953   4.916
 4368SOL    HW214944   6.335  12.066   4.966
 4369SOL     OW14945   0.821  11.797  12.763
 4369SOL    HW114946   0.912  11.770  12.755
 4369SOL    HW214947   0.815  11.837  12.850
 4370SOL     OW14948   6.900  13.203   3.801
 4370SOL    HW114949   6.920  13.113   3.774
 4370SOL    HW214950   6.985  13.246   3.803
 4371SOL     OW14951   2.330   8.837  11.262
 4371SOL    HW114952   2.316   8.924  11.224
 4371SOL    HW214953   2.251   8.788  11.241
 4372SOL     OW14954  12.509   8.301   8.800
 4372SOL    HW114955  12.423   8.342   8.809
 4372SOL    HW214956  12.519   8.286   8.706
 4373SOL     OW14957   1.207  11.363   5.889
 4373SOL    HW114958   1.276  11.428   5.898
 4373SOL    HW214959   1.200  11.322   5.975
 4374SOL     OW14960  10.966   0.332   4.695
 4374SOL    HW114961  10.875   0.321   4.667
 4374SOL    HW214962  10.968   0.296   4.783
 4375SOL     OW14963  11.396  14.454   0.776
 4375SOL    HW114964  11.450  14.530   0.796
 4375SOL    HW214965  11.314  14.469   0.823
 4376SOL     OW14966  10.001   4.252   2.547
 4376SOL    HW114967  10.036   4.318   2.487
 4376SOL    HW214968   9.916   4.229   2.509
 4377SOL     OW14969   9.842  10.611   0.132
 4377SOL    HW114970   9.803  10.617   0.219
 4377SOL    HW214971   9.902  10.537   0.138
 4378SOL     OW14972   8.661  11.736   0.036
 4378SOL    HW114973   8.659  11.710  14.818
 4378SOL    HW214974   8.731  11.683   0.074
 4379SOL     OW14975   0.316  12.042  14.105
 4379SOL    HW114976   0.335  12.084  14.021
 4379SOL    HW214977   0.302  11.950  14.083
 4380SOL     OW14978  11.592   2.582   5.494
 4380SOL    HW114979  11.568   2.668   5.461
 4380SOL    HW214980  11.510   2.532   5.489
 4381SOL     OW14981  12.725   8.519  12.300
 4381SOL    HW114982  12.733   8.455  12.229
 4381SOL    HW214983  12.643   8.565  12.281
 4382SOL     OW14984  11.879   1.561  10.614
 4382SOL    HW114985  11.801   1.617  10.614
 4382SOL    HW214986  11.933   1.596  10.684
 4383SOL     OW14987   8.368   4.237  14.575
 4383SOL    HW114988   8.444   4.209  14.524
 4383SOL    HW214989   8.387   4.209  14.664
 4384SOL     OW14990   0.754   8.715   1.940
 4384SOL    HW114991   0.740   8.794   1.992
 4384SOL    HW214992   0.710   8.645   1.989
 4385SOL     OW14993   2.940   6.316   1.959
 4385SOL    HW114994   3.029   6.348   1.972
 4385SOL    HW214995   2.943   6.226   1.992
 4386SOL     OW14996   5.683  10.364   5.384
 4386SOL    HW114997   5.706  10.325   5.468
 4386SOL    HW214998   5.680  10.458   5.401
 4387SOL     OW14999   7.449   5.910  14.038
 4387SOL    HW115000   7.502   5.921  13.959
 4387SOL    HW215001   7.415   5.998  14.056
 4388SOL     OW15002   1.177   5.483  10.114
 4388SOL    HW115003   1.244   5.414  10.106
 4388SOL    HW215004   1.222   5.553  10.162
 4389SOL     OW15005   4.570  10.965  10.484
 4389SOL    HW115006   4.510  10.894  10.504
 4389SOL    HW215007   4.559  11.027  10.556
 4390SOL     OW15008   9.999   0.179  14.783
 4390SOL    HW115009  10.011   0.271  14.807
 4390SOL    HW215010  10.087   0.141  14.789
 4391SOL     OW15011   3.580   0.731  14.744
 4391SOL    HW115012   3.651   0.708  14.684
 4391SOL    HW215013   3.527   0.793  14.694
 4392SOL     OW15014  12.102   0.828   4.222
 4392SOL    HW115015  12.052   0.752   4.192
 4392SOL    HW215016  12.191   0.811   4.192
 4393SOL     OW15017   5.034   3.433   7.841
 4393SOL    HW115018   4.952   3.405   7.800
 4393SOL    HW215019   5.006   3.475   7.923
 4394SOL     OW15020   5.135   9.000   0.464
 4394SOL    HW115021   5.207   9.010   0.402
 4394SOL    HW215022   5.143   8.911   0.497
 4395SOL     OW15023  14.499   7.769  10.560
 4395SOL    HW115024  14.568   7.704  10.568
 4395SOL    HW215025  14.463   7.753  10.472
 4396SOL     OW15026   3.672   0.699   0.273
 4396SOL    HW115027   3.723   0.776   0.248
 4396SOL    HW215028   3.716   0.626   0.230
 4397SOL     OW15029  12.152  10.585   8.682
 4397SOL    HW115030  12.178  10.496   8.705
 4397SOL    HW215031  12.067  10.597   8.724
 4398SOL     OW15032  13.638   9.196   6.678
 4398SOL    HW115033  13.732   9.185   6.694
 4398SOL    HW215034  13.634   9.262   6.608
 4399SOL     OW15035   2.088   1.450   6.845
 4399SOL    HW115036   2.149   1.418   6.779
 4399SOL    HW215037   2.118   1.539   6.863
 4400SOL     OW15038  10.023  13.625   1.937
 4400SOL    HW115039  10.050  13.594   1.851
 4400SOL    HW215040  10.104  13.638   1.985
 4401SOL     OW15041   4.747   5.396   0.668
 4401SOL    HW115042   4.749   5.328   0.600
 4401SOL    HW215043   4.778   5.353   0.747
 4402SOL     OW15044   3.163  14.014   4.186
 4402SOL    HW115045   3.120  13.929   4.185
 4402SOL    HW215046   3.248  13.998   4.146
 4403SOL     OW15047   3.500  14.467  12.558
 4403SOL    HW115048   3.588  14.499  12.541
 4403SOL    HW215049   3.444  14.545  12.550
 4404SOL     OW15050  10.632   5.794  14.280
 4404SOL    HW115051  10.705   5.734  14.292
 4404SOL    HW215052  10.574   5.776  14.354
 4405SOL     OW15053   3.493   9.778  12.285
 4405SOL    HW115054   3.479   9.687  12.259
 4405SOL    HW215055   3.572   9.805  12.238
 4406SOL     OW15056   1.481   0.625   1.149
 4406SOL    HW115057   1.511   0.536   1.135
 4406SOL    HW215058   1.400   0.616   1.199
 4407SOL     OW15059   6.884  11.113  13.242
 4407SOL    HW115060   6.922  11.148  13.323
 4407SOL    HW215061   6.892  11.185  13.179
 4408SOL     OW15062   8.950   4.650   0.118
 4408SOL    HW115063   8.956   4.660   0.213
 4408SOL    HW215064   8.883   4.584   0.104
 4409SOL     OW15065   0.643   1.326   5.715
 4409SOL    HW115066   0.567   1.379   5.738
 4409SOL    HW215067   0.611   1.262   5.652
 4410SOL     OW15068   5.190   7.124   9.804
 4410SOL    HW115069   5.265   7.077   9.841
 4410SOL    HW215070   5.218   7.215   9.801
 4411SOL     OW15071   6.472   9.034   4.448
 4411SOL    HW115072   6.504   8.994   4.367
 4411SOL    HW215073   6.384   9.065   4.426
 4412SOL     OW15074   4.526   6.802   4.136
 4412SOL    HW115075   4.603   6.860   4.133
 4412SOL    HW215076   4.498   6.796   4.045
 4413SOL     OW15077   0.053   0.450   6.252
 4413SOL    HW115078   0.089   0.371   6.292
 4413SOL    HW215079  14.870   0.487   6.318
 4414SOL     OW15080   9.902   6.218   7.930
 4414SOL    HW115081   9.832   6.155   7.911
 4414SOL    HW215082   9.910   6.269   7.849
 4415SOL     OW15083   3.601   3.962   4.787
 4415SOL    HW115084   3.675   3.931   4.735
 4415SOL    HW215085   3.525   3.919   4.748
 4416SOL     OW15086   7.888   8.964  13.559
 4416SOL    HW115087   7.862   9.005  13.641
 4416SOL    HW215088   7.966   9.012  13.531
 4417SOL     OW15089   4.771   0.787  10.362
 4417SOL    HW115090   4.744   0.778  10.453
 4417SOL    HW215091   4.830   0.713  10.347
 4418SOL     OW15092   4.741   2.310   0.493
 4418SOL    HW115093   4.729   2.357   0.576
 4418SOL    HW215094   4.758   2.219   0.520
 4419SOL     OW15095   6.870  13.447   5.893
 4419SOL    HW115096   6.862  13.514   5.962
 4419SOL    HW215097   6.960  13.456   5.862
 4420SOL     OW15098   2.010  13.625  13.761
 4420SOL    HW115099   1.976  13.714  13.748
 4420SOL    HW215100   1.936  13.576  13.795
 4421SOL     OW15101   9.570  12.051  11.147
 4421SOL    HW115102   9.523  12.033  11.229
 4421SOL    HW215103   9.500  12.062  11.082
 4422SOL     OW15104  11.362  10.079   4.192
 4422SOL    HW115105  11.329  10.114   4.275
 4422SOL    HW215106  11.435  10.022   4.217
 4423SOL     OW15107   4.788   8.970   5.588
 4423SOL    HW115108   4.780   9.047   5.532
 4423SOL    HW215109   4.699   8.955   5.620
 4424SOL     OW15110   0.460   3.165   9.876
 4424SOL    HW115111   0.405   3.088   9.860
 4424SOL    HW215112   0.504   3.146   9.959
 4425SOL     OW15113  11.299  10.773  12.003
 4425SOL    HW115114  11.253  10.857  12.000
 4425SOL    HW215115  11.351  10.777  12.083
 4426SOL     OW15116   5.485   2.722   5.006
 4426SOL    HW115117   5.551   2.673   4.957
 4426SOL    HW215118   5.468   2.800   4.953
 4427SOL     OW15119   0.913   0.016   6.080
 4427SOL    HW115120   0.977   0.027   6.151
 4427SOL    HW215121   0.891  14.796   6.083
 4428SOL     OW15122  12.630   1.375  14.405
 4428SOL    HW115123  12.659   1.414  14.323
 4428SOL    HW215124  12.691   1.303  14.420
 4429SOL     OW15125   1.162   7.613  11.947
 4429SOL    HW115126   1.112   7.634  11.869
 4429SOL    HW215127   1.141   7.683  12.009
 4430SOL     OW15128  13.817  14.495  12.846
 4430SOL    HW115129  13.832  14.408  12.882
 4430SOL    HW215130  13.748  14.482  12.781
 4431SOL     OW15131   0.524   3.765   0.217
 4431SOL    HW115132   0.474   3.742   0.138
 4431SOL    HW215133   0.457   3.794   0.280
 4432SOL     OW15134  12.856   9.850   7.975
 4432SOL    HW115135  12.889   9.868   7.887
 4432SOL    HW215136  12.811   9.766   7.967
 4433SOL     OW15137   3.013   3.206   1.740
 4433SOL    HW115138   3.040   3.131   1.793
 4433SOL    HW215139   2.996   3.275   1.804
 4434SOL     OW15140  14.787   7.386  14.792
 4434SOL    HW115141  14.816   7.325  14.859
 4434SOL    HW215142  14.866   7.409  14.743
 4435SOL     OW15143   0.027   5.941   8.635
 4435SOL    HW115144  14.830   6.000   8.608
 4435SOL    HW215145   0.107   5.988   8.613
 4436SOL     OW15146   8.383   9.079   8.679
 4436SOL    HW115147   8.370   8.985   8.689
 4436SOL    HW215148   8.400   9.110   8.768
 4437SOL     OW15149  13.493   1.114   0.556
 4437SOL    HW115150  13.489   1.180   0.626
 4437SOL    HW215151  13.513   1.032   0.602
 4438SOL     OW15152   0.866   0.969  11.467
 4438SOL    HW115153   0.773   0.950  11.478
 4438SOL    HW215154   0.910   0.887  11.490
 4439SOL     OW15155  13.736   3.040   3.442
 4439SOL    HW115156  13.681   2.978   3.394
 4439SOL    HW215157  13.688   3.056   3.523
 4440SOL     OW15158   9.843   9.574   4.641
 4440SOL    HW115159   9.884   9.505   4.589
 4440SOL    HW215160   9.749   9.556   4.634
 4441SOL     OW15161  10.268   2.536  12.555
 4441SOL    HW115162  10.316   2.462  12.592
 4441SOL    HW215163  10.192   2.547  12.613
 4442SOL     OW15164   8.711   2.719   0.457
 4442SOL    HW115165   8.638   2.665   0.425
 4442SOL    HW215166   8.743   2.672   0.535
 4443SOL     OW15167   8.248  10.362   8.871
 4443SOL    HW115168   8.337  10.331   8.857
 4443SOL    HW215169   8.236  10.431   8.805
 4444SOL     OW15170   9.143  10.980  14.742
 4444SOL    HW115171   9.063  10.961  14.694
 4444SOL    HW215172   9.141  11.075  14.755
 4445SOL     OW15173   1.886   1.050   3.838
 4445SOL    HW115174   1.838   1.113   3.784
 4445SOL    HW215175   1.873   1.080   3.928
 4446SOL     OW15176   7.504  12.529   0.057
 4446SOL    HW115177   7.464  12.541   0.144
 4446SOL    HW215178   7.431  12.501   0.001
 4447SOL     OW15179   4.228   4.154   8.891
 4447SOL    HW115180   4.229   4.191   8.803
 4447SOL    HW215181   4.160   4.087   8.889
 4448SOL     OW15182   5.961   7.728   3.070
 4448SOL    HW115183   6.013   7.723   2.990
 4448SOL    HW215184   5.958   7.637   3.101
 4449SOL     OW15185   2.247   1.701   1.050
 4449SOL    HW115186   2.326   1.694   1.104
 4449SOL    HW215187   2.258   1.636   0.981
 4450SOL     OW15188   4.976   1.048   0.762
 4450SOL    HW115189   5.020   0.965   0.782
 4450SOL    HW215190   4.893   1.023   0.722
 4451SOL     OW15191  12.004   5.906   0.053
 4451SOL    HW115192  11.926   5.853   0.071
 4451SOL    HW215193  12.075   5.842   0.047
 4452SOL     OW15194  14.771   2.148  11.343
 4452SOL    HW115195  14.776   2.101  11.260
 4452SOL    HW215196  14.741   2.236  11.319
 4453SOL     OW15197   0.372   0.874   8.675
 4453SOL    HW115198   0.346   0.818   8.601
 4453SOL    HW215199   0.375   0.962   8.639
 4454SOL     OW15200   9.499   5.863   3.783
 4454SOL    HW115201   9.487   5.809   3.705
 4454SOL    HW215202   9.580   5.911   3.767
 4455SOL     OW15203   7.419   0.721  12.796
 4455SOL    HW115204   7.410   0.782  12.723
 4455SOL    HW215205   7.346   0.742  12.854
 4456SOL     OW15206   1.747   8.938   7.332
 4456SOL    HW115207   1.743   9.033   7.347
 4456SOL    HW215208   1.828   8.911   7.374
 4457SOL     OW15209   2.536  13.587  12.909
 4457SOL    HW115210   2.611  13.549  12.955
 4457SOL    HW215211   2.514  13.665  12.959
 4458SOL     OW15212   8.571  11.358   4.828
 4458SOL    HW115213   8.626  11.325   4.899
 4458SOL    HW215214   8.483  11.363   4.867
 4459SOL     OW15215   6.398  10.379   3.166
 4459SOL    HW115216   6.363  10.292   3.153
 4459SOL    HW215217   6.451  10.372   3.245
 4460SOL     OW15218   7.311  10.764   8.221
 4460SOL    HW115219   7.263  10.733   8.297
 4460SOL    HW215220   7.403  10.748   8.242
 4461SOL     OW15221   4.696   0.690  14.437
 4461SOL    HW115222   4.680   0.615  14.495
 4461SOL    HW215223   4.654   0.666  14.354
 4462SOL     OW15224  12.874  12.888   4.387
 4462SOL    HW115225  12.941  12.956   4.385
 4462SOL    HW215226  12.864  12.868   4.481
 4463SOL     OW15227  10.751  11.892  11.473
 4463SOL    HW115228  10.730  11.985  11.466
 4463SOL    HW215229  10.682  11.856  11.529
 4464SOL     OW15230   5.133  11.491   4.163
 4464SOL    HW115231   5.102  11.560   4.221
 4464SOL    HW215232   5.205  11.532   4.114
 4465SOL     OW15233   8.205   7.349   1.051
 4465SOL    HW115234   8.150   7.319   0.979
 4465SOL    HW215235   8.144   7.386   1.114
 4466SOL     OW15236   2.134   4.269   2.412
 4466SOL    HW115237   2.057   4.326   2.413
 4466SOL    HW215238   2.101   4.183   2.439
 4467SOL     OW15239  13.808   7.546   6.726
 4467SOL    HW115240  13.760   7.494   6.662
 4467SOL    HW215241  13.806   7.493   6.806
 4468SOL     OW15242   1.625  11.278   9.625
 4468SOL    HW115243   1.642  11.360   9.578
 4468SOL    HW215244   1.530  11.278   9.639
 4469SOL     OW15245  11.293  10.217  14.067
 4469SOL    HW115246  11.257  10.265  14.142
 4469SOL    HW215247  11.388  10.224  14.078
 4470SOL     OW15248   2.199  13.174   5.234
 4470SOL    HW115249   2.148  13.255   5.231
 4470SOL    HW215250   2.286  13.199   5.203
 4471SOL     OW15251  10.403  13.495   8.535
 4471SOL    HW115252  10.476  13.557   8.540
 4471SOL    HW215253  10.381  13.477   8.626
 4472SOL     OW15254   9.963   5.046  10.825
 4472SOL    HW115255  10.054   5.031  10.853
 4472SOL    HW215256   9.965   5.130  10.780
 4473SOL     OW15257   0.874   7.076  13.933
 4473SOL    HW115258   0.794   7.089  13.984
 4473SOL    HW215259   0.867   6.988  13.898
 4474SOL     OW15260  11.717   9.124   0.346
 4474SOL    HW115261  11.659   9.121   0.270
 4474SOL    HW215262  11.690   9.050   0.400
 4475SOL     OW15263   4.089   8.338   4.708
 4475SOL    HW115264   3.999   8.313   4.732
 4475SOL    HW215265   4.136   8.342   4.791
 4476SOL     OW15266  11.642   1.723  10.517
 4476SOL    HW115267  11.624   1.701  10.425
 4476SOL    HW215268  11.556   1.719  10.559
 4477SOL     OW15269   7.860   0.723   7.483
 4477SOL    HW115270   7.820   0.687   7.562
 4477SOL    HW215271   7.952   0.696   7.487
 4478SOL     OW15272  11.596  13.433   1.373
 4478SOL    HW115273  11.547  13.374   1.431
 4478SOL    HW215274  11.544  13.514   1.372
 4479SOL     OW15275   5.333   4.176  10.532
 4479SOL    HW115276   5.360   4.195  10.442
 4479SOL    HW215277   5.241   4.151  10.524
 4480SOL     OW15278   6.095   5.079  10.102
 4480SOL    HW115279   6.102   5.033  10.185
 4480SOL    HW215280   6.112   5.171  10.123
 4481SOL     OW15281  10.008  11.511   5.353
 4481SOL    HW115282   9.969  11.436   5.309
 4481SOL    HW215283   9.955  11.585   5.325
 4482SOL     OW15284   4.365   7.261   3.913
 4482SOL    HW115285   4.269   7.257   3.912
 4482SOL    HW215286   4.388   7.294   3.826
 4483SOL     OW15287   9.225   1.229  11.678
 4483SOL    HW115288   9.145   1.249  11.725
 4483SOL    HW215289   9.239   1.135  11.693
 4484SOL     OW15290  13.247   7.330   7.013
 4484SOL    HW115291  13.301   7.281   6.951
 4484SOL    HW215292  13.309   7.370   7.073
 4485SOL     OW15293  10.896   2.733  10.046
 4485SOL    HW115294  10.968   2.693   9.996
 4485SOL    HW215295  10.939   2.795  10.105
 4486SOL     OW15296   7.483   1.970  11.985
 4486SOL    HW115297   7.404   1.931  11.947
 4486SOL    HW215298   7.463   1.981  12.078
 4487SOL     OW15299  11.383  13.651   7.013
 4487SOL    HW115300  11.473  13.633   7.042
 4487SOL    HW215301  11.328  13.600   7.072
 4488SOL     OW15302   7.843   2.171  12.590
 4488SOL    HW115303   7.814   2.130  12.671
 4488SOL    HW215304   7.938   2.173  12.597
 4489SOL     OW15305   1.276   2.903  10.031
 4489SOL    HW115306   1.304   2.983  10.076
 4489SOL    HW215307   1.357   2.858  10.009
 4490SOL     OW15308   6.203   7.246   0.465
 4490SOL    HW115309   6.272   7.229   0.401
 4490SOL    HW215310   6.122   7.250   0.413
 4491SOL     OW15311   6.143  13.736   9.798
 4491SOL    HW115312   6.236  13.753   9.790
 4491SOL    HW215313   6.129  13.720   9.891
 4492SOL     OW15314   9.394   1.458   6.020
 4492SOL    HW115315   9.326   1.411   5.973
 4492SOL    HW215316   9.473   1.447   5.965
 4493SOL     OW15317  10.719  10.617  10.863
 4493SOL    HW115318  10.698  10.670  10.787
 4493SOL    HW215319  10.674  10.534  10.848
 4494SOL     OW15320  11.905  11.185  13.256
 4494SOL    HW115321  11.936  11.270  13.226
 4494SOL    HW215322  11.856  11.150  13.181
 4495SOL     OW15323   5.612   3.325   2.566
 4495SOL    HW115324   5.613   3.234   2.533
 4495SOL    HW215325   5.546   3.324   2.635
 4496SOL     OW15326   3.570   9.916   1.494
 4496SOL    HW115327   3.625   9.993   1.484
 4496SOL    HW215328   3.493   9.934   1.441
 4497SOL     OW15329  10.057   5.675  14.661
 4497SOL    HW115330   9.963   5.669  14.677
 4497SOL    HW215331  10.065   5.728  14.582
 4498SOL     OW15332   5.797  13.376   9.502
 4498SOL    HW115333   5.830  13.312   9.439
 4498SOL    HW215334   5.791  13.457   9.452
 4499SOL     OW15335   3.340   0.211  11.531
 4499SOL    HW115336   3.345   0.191  11.437
 4499SOL    HW215337   3.343   0.125  11.574
 4500SOL     OW15338   7.564   3.012   8.077
 4500SOL    HW115339   7.598   2.937   8.126
 4500SOL    HW215340   7.550   3.080   8.142
 4501SOL     OW15341  13.266   5.813  11.239
 4501SOL    HW115342  13.229   5.770  11.162
 4501SOL    HW215343  13.190   5.845  11.287
 4502SOL     OW15344   2.911   3.426  10.906
 4502SOL    HW115345   2.973   3.376  10.959
 4502SOL    HW215346   2.900   3.509  10.954
 4503SOL     OW15347   9.785  12.913   6.396
 4503SOL    HW115348   9.815  12.991   6.443
 4503SOL    HW215349   9.845  12.907   6.321
 4504SOL     OW15350   9.813   6.817   9.079
 4504SOL    HW115351   9.732   6.856   9.045
 4504SOL    HW215352   9.805   6.825   9.174
 4505SOL     OW15353   5.973   8.831   8.195
 4505SOL    HW115354   5.962   8.921   8.164
 4505SOL    HW215355   6.066   8.823   8.213
 4506SOL     OW15356   7.460   6.469  12.136
 4506SOL    HW115357   7.489   6.447  12.225
 4506SOL    HW215358   7.469   6.564  12.131
 4507SOL     OW15359   3.602   4.419   4.048
 4507SOL    HW115360   3.692   4.404   4.078
 4507SOL    HW215361   3.557   4.337   4.065
 4508SOL     OW15362   7.155   2.933   2.981
 4508SOL    HW115363   7.174   2.952   2.889
 4508SOL    HW215364   7.072   2.977   2.998
 4509SOL     OW15365   1.633   8.623   0.923
 4509SOL    HW115366   1.631   8.719   0.927
 4509SOL    HW215367   1.725   8.603   0.904
 4510SOL     OW15368   1.768   0.952  11.625
 4510SOL    HW115369   1.737   1.005  11.551
 4510SOL    HW215370   1.696   0.955  11.688
 4511SOL     OW15371  13.647   5.561   5.567
 4511SOL    HW115372  13.575   5.598   5.619
 4511SOL    HW215373  13.617   5.472   5.547
 4512SOL     OW15374  10.494   0.895  10.661
 4512SOL    HW115375  10.504   0.975  10.713
 4512SOL    HW215376  10.466   0.926  10.575
 4513SOL     OW15377   5.882   6.283  12.186
 4513SOL    HW115378   5.800   6.288  12.136
 4513SOL    HW215379   5.859   6.320  12.272
 4514SOL     OW15380  10.956  11.026  13.475
 4514SOL    HW115381  10.962  11.114  13.437
 4514SOL    HW215382  11.043  11.009  13.510
 4515SOL     OW15383   2.170   5.346   2.783
 4515SOL    HW115384   2.159   5.419   2.722
 4515SOL    HW215385   2.103   5.282   2.757
 4516SOL     OW15386   9.760   0.610   9.520
 4516SOL    HW115387   9.697   0.665   9.473
 4516SOL    HW215388   9.838   0.666   9.529
 4517SOL     OW15389  13.032   0.933  12.446
 4517SOL    HW115390  13.123   0.947  12.474
 4517SOL    HW215391  12.994   1.021  12.444
 4518SOL     OW15392   3.384   8.553   0.000
 4518SOL    HW115393   3.476   8.536  14.854
 4518SOL    HW215394   3.336   8.512  14.803
 4519SOL     OW15395   5.719   8.318  11.966
 4519SOL    HW115396   5.680   8.246  12.016
 4519SOL    HW215397   5.717   8.290  11.875
 4520SOL     OW15398   5.711  11.897  12.206
 4520SOL    HW115399   5.785  11.911  12.265
 4520SOL    HW215400   5.716  11.970  12.144
 4521SOL     OW15401   4.996   9.470   8.306
 4521SOL    HW115402   5.055   9.464   8.381
 4521SOL    HW215403   4.943   9.549   8.324
 4522SOL     OW15404   4.235  13.533   6.002
 4522SOL    HW115405   4.149  13.499   6.029
 4522SOL    HW215406   4.232  13.626   6.025
 4523SOL     OW15407   9.263  10.965   4.821
 4523SOL    HW115408   9.252  11.029   4.751
 4523SOL    HW215409   9.174  10.932   4.837
 4524SOL     OW15410   4.250   4.431   0.249
 4524SOL    HW115411   4.246   4.491   0.174
 4524SOL    HW215412   4.218   4.483   0.323
 4525SOL     OW15413   5.962   5.541   4.871
 4525SOL    HW115414   6.008   5.615   4.912
 4525SOL    HW215415   5.893   5.519   4.933
 4526SOL     OW15416   8.497   6.597   3.923
 4526SOL    HW115417   8.537   6.675   3.884
 4526SOL    HW215418   8.426   6.631   3.978
 4527SOL     OW15419   4.147   4.506   3.844
 4527SOL    HW115420   4.212   4.441   3.873
 4527SOL    HW215421   4.129   4.483   3.753
 4528SOL     OW15422   2.199   9.691   4.208
 4528SOL    HW115423   2.206   9.673   4.302
 4528SOL    HW215424   2.287   9.673   4.174
 4529SOL     OW15425  10.728  10.801   1.797
 4529SOL    HW115426  10.794  10.798   1.728
 4529SOL    HW215427  10.771  10.762   1.873
 4530SOL     OW15428   0.171   3.568  10.591
 4530SOL    HW115429   0.147   3.520  10.512
 4530SOL    HW215430   0.136   3.516  10.663
 4531SOL     OW15431  13.612  10.000   5.991
 4531SOL    HW115432  13.536   9.961   5.948
 4531SOL    HW215433  13.653  10.054   5.924
 4532SOL     OW15434   1.612   9.488  11.797
 4532SOL    HW115435   1.702   9.458  11.784
 4532SOL    HW215436   1.620   9.582  11.811
 4533SOL     OW15437  11.617   9.117   1.499
 4533SOL    HW115438  11.566   9.040   1.473
 4533SOL    HW215439  11.704   9.102   1.463
 4534SOL     OW15440  10.106   0.104  11.578
 4534SOL    HW115441  10.144   0.172  11.523
 4534SOL    HW215442  10.023   0.141  11.609
 4535SOL     OW15443   0.132   1.441   0.945
 4535SOL    HW115444   0.208   1.384   0.935
 4535SOL    HW215445   0.145   1.484   1.030
 4536SOL     OW15446  10.202   6.529   5.852
 4536SOL    HW115447  10.162   6.605   5.809
 4536SOL    HW215448  10.135   6.498   5.913
 4537SOL     OW15449   5.395   0.690   4.465
 4537SOL    HW115450   5.423   0.717   4.378
 4537SOL    HW215451   5.465   0.634   4.497
 4538SOL     OW15452  11.937   1.270   2.199
 4538SOL    HW115453  11.886   1.248   2.122
 4538SOL    HW215454  11.872   1.296   2.264
 4539SOL     OW15455  10.606   4.855   7.947
 4539SOL    HW115456  10.639   4.881   8.033
 4539SOL    HW215457  10.658   4.778   7.924
 4540SOL     OW15458   3.126  13.423  10.260
 4540SOL    HW115459   3.207  13.469  10.281
 4540SOL    HW215460   3.141  13.388  10.172
 4541SOL     OW15461   4.568   3.030  11.699
 4541SOL    HW115462   4.649   3.026  11.649
 4541SOL    HW215463   4.586   3.091  11.770
 4542SOL     OW15464  10.294   3.020  11.300
 4542SOL    HW115465  10.338   2.939  11.323
 4542SOL    HW215466  10.306   3.028  11.206
 4543SOL     OW15467   3.441  10.196  12.736
 4543SOL    HW115468   3.448  10.224  12.827
 4543SOL    HW215469   3.482  10.266  12.686
 4544SOL     OW15470  11.444  14.208   2.214
 4544SOL    HW115471  11.501  14.171   2.147
 4544SOL    HW215472  11.357  14.175   2.193
 4545SOL     OW15473  12.774   0.914   2.029
 4545SOL    HW115474  12.788   0.827   1.991
 4545SOL    HW215475  12.686   0.939   2.001
 4546SOL     OW15476   9.019   6.988  12.510
 4546SOL    HW115477   8.960   6.980  12.585
 4546SOL    HW215478   9.059   7.075  12.520
 4547SOL     OW15479   6.554   0.130   3.884
 4547SOL    HW115480   6.519   0.143   3.972
 4547SOL    HW215481   6.645   0.159   3.889
 4548SOL     OW15482  14.619   7.577  13.783
 4548SOL    HW115483  14.588   7.645  13.842
 4548SOL    HW215484  14.559   7.504  13.797
 4549SOL     OW15485   5.847   5.719   1.253
 4549SOL    HW115486   5.790   5.794   1.267
 4549SOL    HW215487   5.803   5.667   1.185
 4550SOL     OW15488   2.801   3.882  10.813
 4550SOL    HW115489   2.777   3.974  10.807
 4550SOL    HW215490   2.748   3.839  10.746
 4551SOL     OW15491  10.113   3.311   9.285
 4551SOL    HW115492  10.103   3.270   9.372
 4551SOL    HW215493  10.208   3.314   9.272
 4552SOL     OW15494   0.569   7.685  14.151
 4552SOL    HW115495   0.518   7.613  14.115
 4552SOL    HW215496   0.634   7.643  14.207
 4553SOL     OW15497   7.589   3.085  14.838
 4553SOL    HW115498   7.670   3.041  14.811
 4553SOL    HW215499   7.618   3.167   0.002
 4554SOL     OW15500   2.246   2.299   3.143
 4554SOL    HW115501   2.212   2.209   3.136
 4554SOL    HW215502   2.324   2.291   3.197
 4555SOL     OW15503   3.694   7.423  14.838
 4555SOL    HW115504   3.783   7.455  14.828
 4555SOL    HW215505   3.639   7.500  14.826
 4556SOL     OW15506   2.132   6.058   5.297
 4556SOL    HW115507   2.136   6.037   5.391
 4556SOL    HW215508   2.050   6.105   5.286
 4557SOL     OW15509  14.160   8.463   1.195
 4557SOL    HW115510  14.203   8.459   1.110
 4557SOL    HW215511  14.091   8.397   1.191
 4558SOL     OW15512   6.002   6.731  13.248
 4558SOL    HW115513   6.034   6.642  13.237
 4558SOL    HW215514   5.907   6.722  13.260
 4559SOL     OW15515   9.727  13.275   8.103
 4559SOL    HW115516   9.639  13.275   8.139
 4559SOL    HW215517   9.724  13.213   8.031
 4560SOL     OW15518   5.408   0.140  10.495
 4560SOL    HW115519   5.382   0.165  10.583
 4560SOL    HW215520   5.504   0.133  10.498
 4561SOL     OW15521   3.998  13.233  10.485
 4561SOL    HW115522   4.078  13.182  10.485
 4561SOL    HW215523   3.948  13.200  10.559
 4562SOL     OW15524  13.219   5.967   2.775
 4562SOL    HW115525  13.271   5.938   2.701
 4562SOL    HW215526  13.145   6.015   2.735
 4563SOL     OW15527  14.718   5.396  13.128
 4563SOL    HW115528  14.725   5.307  13.164
 4563SOL    HW215529  14.646   5.436  13.178
 4564SOL     OW15530  10.857  12.927  14.049
 4564SOL    HW115531  10.887  13.006  14.094
 4564SOL    HW215532  10.855  12.950  13.957
 4565SOL     OW15533  10.893   9.297   2.289
 4565SOL    HW115534  10.877   9.364   2.355
 4565SOL    HW215535  10.865   9.336   2.207
 4566SOL     OW15536   6.166  11.522   8.346
 4566SOL    HW115537   6.088  11.560   8.386
 4566SOL    HW215538   6.236  11.542   8.407
 4567SOL     OW15539   9.734  14.711   0.511
 4567SOL    HW115540   9.780  14.792   0.536
 4567SOL    HW215541   9.757  14.649   0.580
 4568SOL     OW15542   5.574   5.648   9.181
 4568SOL    HW115543   5.623   5.677   9.104
 4568SOL    HW215544   5.624   5.573   9.214
 4569SOL     OW15545   6.808   7.634  12.557
 4569SOL    HW115546   6.792   7.540  12.552
 4569SOL    HW215547   6.851   7.647  12.641
 4570SOL     OW15548   9.030   4.383   7.652
 4570SOL    HW115549   9.023   4.315   7.719
 4570SOL    HW215550   8.944   4.426   7.653
 4571SOL     OW15551   4.264  14.336   0.311
 4571SOL    HW115552   4.230  14.373   0.392
 4571SOL    HW215553   4.186  14.313   0.261
 4572SOL     OW15554   0.076   9.621   8.306
 4572SOL    HW115555   0.123   9.696   8.270
 4572SOL    HW215556  14.864   9.624   8.264
 4573SOL     OW15557  12.674   1.409   7.953
 4573SOL    HW115558  12.759   1.445   7.927
 4573SOL    HW215559  12.610   1.469   7.915
 4574SOL     OW15560  10.344  14.782   5.768
 4574SOL    HW115561  10.383  14.859   5.727
 4574SOL    HW215562  10.353  14.798   5.862
 4575SOL     OW15563   9.493   0.392   1.733
 4575SOL    HW115564   9.551   0.434   1.797
 4575SOL    HW215565   9.406   0.426   1.753
 4576SOL     OW15566   3.917  11.614  13.758
 4576SOL    HW115567   3.892  11.525  13.731
 4576SOL    HW215568   3.836  11.664  13.752
 4577SOL     OW15569  14.500   4.348   2.883
 4577SOL    HW115570  14.529   4.420   2.827
 4577SOL    HW215571  14.565   4.279   2.869
 4578SOL     OW15572   1.990   0.233   7.211
 4578SOL    HW115573   2.060   0.183   7.169
 4578SOL    HW215574   1.912   0.212   7.160
 4579SOL     OW15575   3.181  10.144   1.056
 4579SOL    HW115576   3.242  10.195   1.108
 4579SOL    HW215577   3.224  10.136   0.970
 4580SOL     OW15578   0.893  10.179   3.897
 4580SOL    HW115579   0.943  10.254   3.929
 4580SOL    HW215580   0.820  10.217   3.849
 4581SOL     OW15581   1.803   7.318   6.682
 4581SOL    HW115582   1.838   7.286   6.765
 4581SOL    HW215583   1.856   7.276   6.615
 4582SOL     OW15584   7.315   8.771  13.058
 4582SOL    HW115585   7.259   8.697  13.032
 4582SOL    HW215586   7.286   8.793  13.146
 4583SOL     OW15587  14.200  12.269  11.423
 4583SOL    HW115588  14.114  12.251  11.386
 4583SOL    HW215589  14.238  12.182  11.439
 4584SOL     OW15590   3.227  10.554   1.008
 4584SOL    HW115591   3.246  10.497   0.934
 4584SOL    HW215592   3.168  10.503   1.064
 4585SOL     OW15593   4.764   5.166   2.686
 4585SOL    HW115594   4.842   5.222   2.682
 4585SOL    HW215595   4.764   5.131   2.775
 4586SOL     OW15596  13.942  13.381  10.021
 4586SOL    HW115597  13.991  13.301  10.042
 4586SOL    HW215598  13.872  13.384  10.086
 4587SOL     OW15599  10.592   9.189   9.344
 4587SOL    HW115600  10.510   9.206   9.390
 4587SOL    HW215601  10.638   9.126   9.400
 4588SOL     OW15602   0.026   7.766   5.495
 4588SOL    HW115603  14.855   7.840   5.535
 4588SOL    HW215604   0.069   7.803   5.418
 4589SOL     OW15605   0.705   6.185   9.214
 4589SOL    HW115606   0.635   6.156   9.155
 4589SOL    HW215607   0.763   6.237   9.159
 4590SOL     OW15608   9.409   2.490   0.098
 4590SOL    HW115609   9.334   2.534   0.058
 4590SOL    HW215610   9.407   2.520   0.189
 4591SOL     OW15611   5.147  12.953  11.774
 4591SOL    HW115612   5.133  12.860  11.793
 4591SOL    HW215613   5.219  12.954  11.711
 4592SOL     OW15614  12.602   7.699   0.844
 4592SOL    HW115615  12.687   7.720   0.804
 4592SOL    HW215616  12.576   7.780   0.888
 4593SOL     OW15617  10.424   7.046   9.953
 4593SOL    HW115618  10.467   7.122   9.913
 4593SOL    HW215619  10.330   7.064   9.944
 4594SOL     OW15620  14.042   5.460   2.033
 4594SOL    HW115621  14.000   5.504   2.107
 4594SOL    HW215622  14.042   5.368   2.057
 4595SOL     OW15623   4.973   1.183   3.396
 4595SOL    HW115624   4.889   1.210   3.360
 4595SOL    HW215625   4.991   1.246   3.465
 4596SOL     OW15626  14.347   2.638   9.710
 4596SOL    HW115627  14.284   2.570   9.730
 4596SOL    HW215628  14.343   2.698   9.784
 4597SOL     OW15629   9.185   6.598  12.166
 4597SOL    HW115630   9.143   6.625  12.247
 4597SOL    HW215631   9.234   6.519  12.189
 4598SOL     OW15632  12.276   5.730   5.442
 4598SOL    HW115633  12.261   5.814   5.485
 4598SOL    HW215634  12.252   5.745   5.350
 4599SOL     OW15635  12.746   7.704   0.463
 4599SOL    HW115636  12.773   7.757   0.388
 4599SOL    HW215637  12.790   7.620   0.450
 4600SOL     OW15638  13.377   5.996   3.472
 4600SOL    HW115639  13.430   5.930   3.429
 4600SOL    HW215640  13.436   6.038   3.535
 4601SOL     OW15641   7.218   6.580   7.498
 4601SOL    HW115642   7.239   6.598   7.407
 4601SOL    HW215643   7.260   6.496   7.516
 4602SOL     OW15644   7.449   7.071  13.545
 4602SOL    HW115645   7.488   7.015  13.478
 4602SOL    HW215646   7.486   7.157  13.528
 4603SOL     OW15647   3.737  14.489  14.688
 4603SOL    HW115648   3.788  14.517  14.764
 4603SOL    HW215649   3.788  14.419  14.648
 4604SOL     OW15650   4.732   1.725   7.418
 4604SOL    HW115651   4.790   1.791   7.378
 4604SOL    HW215652   4.749   1.733   7.512
 4605SOL     OW15653   7.484   7.023   0.068
 4605SOL    HW115654   7.402   6.978   0.047
 4605SOL    HW215655   7.515   7.057  14.858
 4606SOL     OW15656  12.472   2.132   7.916
 4606SOL    HW115657  12.493   2.167   7.830
 4606SOL    HW215658  12.400   2.187   7.948
 4607SOL     OW15659  12.879   0.573   9.841
 4607SOL    HW115660  12.803   0.630   9.851
 4607SOL    HW215661  12.923   0.606   9.763
 4608SOL     OW15662   7.713   2.761  14.043
 4608SOL    HW115663   7.800   2.800  14.037
 4608SOL    HW215664   7.703   2.713  13.961
 4609SOL     OW15665   3.665  12.258  10.802
 4609SOL    HW115666   3.691  12.173  10.837
 4609SOL    HW215667   3.653  12.243  10.708
 4610SOL     OW15668   0.226   3.054  12.824
 4610SOL    HW115669   0.309   3.028  12.782
 4610SOL    HW215670   0.195   2.974  12.866
 4611SOL     OW15671   2.497   1.472   7.798
 4611SOL    HW115672   2.591   1.473   7.815
 4611SOL    HW215673   2.482   1.545   7.738
 4612SOL     OW15674  10.923  13.201  12.175
 4612SOL    HW115675  10.955  13.256  12.103
 4612SOL    HW215676  10.831  13.186  12.155
 4613SOL     OW15677   2.123  10.221   3.580
 4613SOL    HW115678   2.032  10.205   3.605
 4613SOL    HW215679   2.170  10.142   3.609
 4614SOL     OW15680   0.385  14.447   8.541
 4614SOL    HW115681   0.413  14.468   8.452
 4614SOL    HW215682   0.290  14.461   8.541
 4615SOL     OW15683   5.216  11.290   0.262
 4615SOL    HW115684   5.242  11.198   0.269
 4615SOL    HW215685   5.187  11.313   0.350
 4616SOL     OW15686   1.911  14.233   1.974
 4616SOL    HW115687   1.985  14.292   1.987
 4616SOL    HW215688   1.873  14.221   2.061
 4617SOL     OW15689   2.973   7.295   5.754
 4617SOL    HW115690   3.047   7.354   5.765
 4617SOL    HW215691   2.933   7.288   5.841
 4618SOL     OW15692   1.306   8.442   8.653
 4618SOL    HW115693   1.316   8.412   8.563
 4618SOL    HW215694   1.320   8.537   8.649
 4619SOL     OW15695   3.667  12.372   3.072
 4619SOL    HW115696   3.593  12.378   3.132
 4619SOL    HW215697   3.740  12.342   3.127
 4620SOL     OW15698   1.397   0.616   5.070
 4620SOL    HW115699   1.399   0.614   5.166
 4620SOL    HW215700   1.355   0.534   5.045
 4621SOL     OW15701   1.731  11.788   4.210
 4621SOL    HW115702   1.641  11.801   4.180
 4621SOL    HW215703   1.786  11.815   4.136
 4622SOL     OW15704  14.174  11.856   0.233
 4622SOL    HW115705  14.185  11.871   0.326
 4622SOL    HW215706  14.079  11.861   0.219
 4623SOL     OW15707   5.545  12.082   1.625
 4623SOL    HW115708   5.487  12.033   1.567
 4623SOL    HW215709   5.525  12.174   1.607
 4624SOL     OW15710  13.000   7.054   8.826
 4624SOL    HW115711  12.961   7.109   8.758
 4624SOL    HW215712  12.970   7.093   8.908
 4625SOL     OW15713   1.456  11.679   5.798
 4625SOL    HW115714   1.413  11.639   5.873
 4625SOL    HW215715   1.505  11.753   5.835
 4626SOL     OW15716   3.502   7.761   6.125
 4626SOL    HW115717   3.573   7.701   6.102
 4626SOL    HW215718   3.493   7.817   6.048
 4627SOL     OW15719   4.210   5.044   4.267
 4627SOL    HW115720   4.216   4.987   4.191
 4627SOL    HW215721   4.279   5.013   4.326
 4628SOL     OW15722   2.003   1.459   4.284
 4628SOL    HW115723   2.037   1.375   4.253
 4628SOL    HW215724   1.924   1.475   4.233
 4629SOL     OW15725   2.429  14.452  11.534
 4629SOL    HW115726   2.428  14.375  11.590
 4629SOL    HW215727   2.408  14.419  11.447
 4630SOL     OW15728  10.511   6.438   7.183
 4630SOL    HW115729  10.498   6.532   7.192
 4630SOL    HW215730  10.429   6.406   7.146
 4631SOL     OW15731  14.603  14.334   5.973
 4631SOL    HW115732  14.538  14.267   5.995
 4631SOL    HW215733  14.597  14.397   6.045
 4632SOL     OW15734   3.059   8.151   5.231
 4632SOL    HW115735   3.005   8.156   5.153
 4632SOL    HW215736   3.041   8.232   5.278
 4633SOL     OW15737   2.835   6.556   4.196
 4633SOL    HW115738   2.795   6.606   4.125
 4633SOL    HW215739   2.911   6.515   4.157
 4634SOL     OW15740  13.385  10.188   2.263
 4634SOL    HW115741  13.401  10.101   2.301
 4634SOL    HW215742  13.291  10.200   2.268
 4635SOL     OW15743  12.380   5.249   0.928
 4635SOL    HW115744  12.336   5.231   0.845
 4635SOL    HW215745  12.451   5.308   0.905
 4636SOL     OW15746   8.145   7.056   4.258
 4636SOL    HW115747   8.096   7.059   4.176
 4636SOL    HW215748   8.161   7.148   4.278
 4637SOL     OW15749  11.144  11.292   1.559
 4637SOL    HW115750  11.071  11.246   1.601
 4637SOL    HW215751  11.140  11.381   1.593
 4638SOL     OW15752   3.215   1.315   7.959
 4638SOL    HW115753   3.133   1.272   7.935
 4638SOL    HW215754   3.195   1.408   7.956
 4639SOL     OW15755   7.557   0.966   9.593
 4639SOL    HW115756   7.513   1.014   9.663
 4639SOL    HW215757   7.602   1.034   9.542
 4640SOL     OW15758   5.206   9.327   8.069
 4640SOL    HW115759   5.161   9.318   8.153
 4640SOL    HW215760   5.299   9.322   8.091
 4641SOL     OW15761   5.858   8.548   6.319
 4641SOL    HW115762   5.945   8.542   6.280
 4641SOL    HW215763   5.849   8.640   6.344
 4642SOL     OW15764  10.330  14.227   6.814
 4642SOL    HW115765  10.238  14.251   6.827
 4642SOL    HW215766  10.379  14.307   6.831
 4643SOL     OW15767   4.078  10.608   6.415
 4643SOL    HW115768   4.149  10.620   6.351
 4643SOL    HW215769   4.080  10.514   6.435
 4644SOL     OW15770   2.329   2.020   7.014
 4644SOL    HW115771   2.398   2.031   7.079
 4644SOL    HW215772   2.302   2.109   6.993
 4645SOL     OW15773  12.687   6.297   5.953
 4645SOL    HW115774  12.684   6.202   5.969
 4645SOL    HW215775  12.775   6.312   5.918
 4646SOL     OW15776  12.064   9.528  13.015
 4646SOL    HW115777  12.123   9.453  13.012
 4646SOL    HW215778  12.121   9.602  13.033
 4647SOL     OW15779  13.280   7.849  13.023
 4647SOL    HW115780  13.210   7.813  12.968
 4647SOL    HW215781  13.235   7.903  13.087
 4648SOL     OW15782  14.710   6.729   2.211
 4648SOL    HW115783  14.684   6.814   2.176
 4648SOL    HW215784  14.667   6.724   2.297
 4649SOL     OW15785   1.737   2.768  10.923
 4649SOL    HW115786   1.758   2.675  10.917
 4649SOL    HW215787   1.771   2.796  11.008
 4650SOL     OW15788   4.186  11.472   2.643
 4650SOL    HW115789   4.269  11.425   2.634
 4650SOL    HW215790   4.131  11.435   2.574
 4651SOL     OW15791  11.783  13.474   2.836
 4651SOL    HW115792  11.775  13.546   2.898
 4651SOL    HW215793  11.758  13.512   2.751
 4652SOL     OW15794  10.205   7.699   0.391
 4652SOL    HW115795  10.234   7.650   0.314
 4652SOL    HW215796  10.147   7.640   0.438
 4653SOL     OW15797   7.728   7.709  13.177
 4653SOL    HW115798   7.767   7.651  13.110
 4653SOL    HW215799   7.803   7.737  13.229
 4654SOL     OW15800   2.581   0.301  14.476
 4654SOL    HW115801   2.575   0.386  14.432
 4654SOL    HW215802   2.616   0.242  14.410
 4655SOL     OW15803   8.419  14.288   6.154
 4655SOL    HW115804   8.383  14.267   6.240
 4655SOL    HW215805   8.512  14.302   6.170
 4656SOL     OW15806  13.620   4.123   2.354
 4656SOL    HW115807  13.627   4.087   2.442
 4656SOL    HW215808  13.710   4.134   2.325
 4657SOL     OW15809  12.557  14.160  10.229
 4657SOL    HW115810  12.540  14.195  10.317
 4657SOL    HW215811  12.599  14.233  10.182
 4658SOL     OW15812   7.662  13.959   2.375
 4658SOL    HW115813   7.681  14.004   2.457
 4658SOL    HW215814   7.577  13.916   2.389
 4659SOL     OW15815   7.821   9.887   0.124
 4659SOL    HW115816   7.821   9.828   0.199
 4659SOL    HW215817   7.774   9.839   0.056
 4660SOL     OW15818   5.602   6.733  11.920
 4660SOL    HW115819   5.562   6.646  11.920
 4660SOL    HW215820   5.594   6.763  12.010
 4661SOL     OW15821  10.375   2.832   1.934
 4661SOL    HW115822  10.351   2.762   1.873
 4661SOL    HW215823  10.462   2.809   1.965
 4662SOL     OW15824  14.039  10.387  11.303
 4662SOL    HW115825  14.003  10.474  11.285
 4662SOL    HW215826  13.972  10.343  11.355
 4663SOL     OW15827  10.710   9.245   2.971
 4663SOL    HW115828  10.664   9.193   3.037
 4663SOL    HW215829  10.644   9.304   2.936
 4664SOL     OW15830   5.997   0.763  10.172
 4664SOL    HW115831   5.946   0.806  10.239
 4664SOL    HW215832   5.965   0.673  10.171
 4665SOL     OW15833  13.219   1.807   0.573
 4665SOL    HW115834  13.133   1.815   0.531
 4665SOL    HW215835  13.262   1.734   0.528
 4666SOL     OW15836   9.105   5.639   7.829
 4666SOL    HW115837   9.200   5.633   7.823
 4666SOL    HW215838   9.089   5.667   7.919
 4667SOL     OW15839   5.171   3.295   5.627
 4667SOL    HW115840   5.146   3.387   5.626
 4667SOL    HW215841   5.178   3.270   5.535
 4668SOL     OW15842   3.062   0.944   3.077
 4668SOL    HW115843   3.083   1.026   3.122
 4668SOL    HW215844   3.034   0.971   2.990
 4669SOL     OW15845   0.718   8.778   3.742
 4669SOL    HW115846   0.669   8.701   3.713
 4669SOL    HW215847   0.721   8.836   3.665
 4670SOL     OW15848  12.659  10.623   7.709
 4670SOL    HW115849  12.701  10.547   7.750
 4670SOL    HW215850  12.732  10.678   7.681
 4671SOL     OW15851   4.241   3.326   5.398
 4671SOL    HW115852   4.233   3.384   5.474
 4671SOL    HW215853   4.167   3.266   5.406
 4672SOL     OW15854   5.378  11.634   7.492
 4672SOL    HW115855   5.393  11.549   7.451
 4672SOL    HW215856   5.316  11.617   7.562
 4673SOL     OW15857  13.507   0.848  12.830
 4673SOL    HW115858  13.451   0.775  12.805
 4673SOL    HW215859  13.512   0.843  12.925
 4674SOL     OW15860   9.430   0.689   8.929
 4674SOL    HW115861   9.424   0.628   8.856
 4674SOL    HW215862   9.360   0.661   8.988
 4675SOL     OW15863   5.773  14.449  11.157
 4675SOL    HW115864   5.678  14.454  11.168
 4675SOL    HW215865   5.785  14.386  11.086
 4676SOL     OW15866   2.052   9.266   1.189
 4676SOL    HW115867   2.003   9.248   1.109
 4676SOL    HW215868   2.042   9.187   1.242
 4677SOL     OW15869  12.565   1.115   1.679
 4677SOL    HW115870  12.535   1.098   1.590
 4677SOL    HW215871  12.650   1.071   1.685
 4678SOL     OW15872   7.001  13.714   0.984
 4678SOL    HW115873   7.008  13.701   1.079
 4678SOL    HW215874   6.982  13.807   0.974
 4679SOL     OW15875  12.959  13.218   7.829
 4679SOL    HW115876  12.957  13.272   7.909
 4679SOL    HW215877  13.052  13.215   7.806
 4680SOL     OW15878   1.213  13.799   0.468
 4680SOL    HW115879   1.152  13.868   0.495
 4680SOL    HW215880   1.169  13.717   0.489
 4681SOL     OW15881   1.604   3.900  10.530
 4681SOL    HW115882   1.684   3.847  10.525
 4681SOL    HW215883   1.561   3.886  10.445
 4682SOL     OW15884   7.101   5.568   6.774
 4682SOL    HW115885   7.157   5.631   6.729
 4682SOL    HW215886   7.116   5.486   6.729
 4683SOL     OW15887  10.172  11.331   3.060
 4683SOL    HW115888  10.096  11.389   3.051
 4683SOL    HW215889  10.217  11.363   3.138
 4684SOL     OW15890   6.853  11.583   2.703
 4684SOL    HW115891   6.776  11.638   2.689
 4684SOL    HW215892   6.881  11.558   2.615
 4685SOL     OW15893   7.968  11.044  14.578
 4685SOL    HW115894   8.041  11.062  14.518
 4685SOL    HW215895   7.912  10.983  14.530
 4686SOL     OW15896   0.636   9.915  12.854
 4686SOL    HW115897   0.643   9.912  12.950
 4686SOL    HW215898   0.613  10.006  12.835
 4687SOL     OW15899   7.452   1.338   5.905
 4687SOL    HW115900   7.461   1.276   5.832
 4687SOL    HW215901   7.494   1.294   5.979
 4688SOL     OW15902  14.832   6.175   7.421
 4688SOL    HW115903   0.002   6.128   7.493
 4688SOL    HW215904  14.839   6.267   7.445
 4689SOL     OW15905   7.770   2.175   6.997
 4689SOL    HW115906   7.828   2.238   7.041
 4689SOL    HW215907   7.733   2.122   7.067
 4690SOL     OW15908   3.598   4.021  12.721
 4690SOL    HW115909   3.681   3.986  12.752
 4690SOL    HW215910   3.621   4.098  12.669
 4691SOL     OW15911  14.209  10.865   8.642
 4691SOL    HW115912  14.175  10.887   8.729
 4691SOL    HW215913  14.198  10.945   8.591
 4692SOL     OW15914   9.490   2.602   4.103
 4692SOL    HW115915   9.440   2.678   4.072
 4692SOL    HW215916   9.548   2.580   4.030
 4693SOL     OW15917   3.658   6.150   5.185
 4693SOL    HW115918   3.615   6.235   5.193
 4693SOL    HW215919   3.708   6.140   5.266
 4694SOL     OW15920   7.850   4.384   6.912
 4694SOL    HW115921   7.895   4.377   6.828
 4694SOL    HW215922   7.827   4.293   6.935
 4695SOL     OW15923   2.120   1.534   1.719
 4695SOL    HW115924   2.127   1.453   1.669
 4695SOL    HW215925   2.204   1.578   1.706
 4696SOL     OW15926   3.936  12.166  13.449
 4696SOL    HW115927   3.905  12.236  13.506
 4696SOL    HW215928   4.025  12.192  13.426
 4697SOL     OW15929   4.291   8.792   7.948
 4697SOL    HW115930   4.364   8.848   7.973
 4697SOL    HW215931   4.313   8.706   7.982
 4698SOL     OW15932   6.896   0.846  10.219
 4698SOL    HW115933   6.824   0.887  10.268
 4698SOL    HW215934   6.861   0.762  10.190
 4699SOL     OW15935  11.014  10.716   3.912
 4699SOL    HW115936  11.016  10.803   3.951
 4699SOL    HW215937  10.943  10.720   3.848
 4700SOL     OW15938   5.500   5.659   1.082
 4700SOL    HW115939   5.434   5.590   1.073
 4700SOL    HW215940   5.583   5.615   1.062
 4701SOL     OW15941   0.746  10.860   4.187
 4701SOL    HW115942   0.766  10.850   4.280
 4701SOL    HW215943   0.818  10.816   4.143
 4702SOL     OW15944   8.120   4.726  11.199
 4702SOL    HW115945   8.200   4.740  11.149
 4702SOL    HW215946   8.053   4.708  11.132
 4703SOL     OW15947   5.989  12.399   6.935
 4703SOL    HW115948   5.910  12.345   6.939
 4703SOL    HW215949   6.059  12.338   6.912
 4704SOL     OW15950   3.892   1.273   3.728
 4704SOL    HW115951   3.813   1.293   3.677
 4704SOL    HW215952   3.858   1.239   3.811
 4705SOL     OW15953  10.295   4.826   7.989
 4705SOL    HW115954  10.379   4.828   7.942
 4705SOL    HW215955  10.319   4.829   8.081
 4706SOL     OW15956   9.265  14.133   3.745
 4706SOL    HW115957   9.253  14.042   3.769
 4706SOL    HW215958   9.233  14.139   3.655
 4707SOL     OW15959   5.601   4.416   8.080
 4707SOL    HW115960   5.520   4.367   8.066
 4707SOL    HW215961   5.665   4.348   8.103
 4708SOL     OW15962  10.256   7.697   6.354
 4708SOL    HW115963  10.327   7.703   6.418
 4708SOL    HW215964  10.178   7.727   6.402
 4709SOL     OW15965   2.332  14.319   0.551
 4709SOL    HW115966   2.389  14.393   0.575
 4709SOL    HW215967   2.378  14.242   0.586
 4710SOL     OW15968  10.314   9.519  10.648
 4710SOL    HW115969  10.243   9.466  10.685
 4710SOL    HW215970  10.289   9.609  10.668
 4711SOL     OW15971   0.416   3.431   0.862
 4711SOL    HW115972   0.500   3.385   0.859
 4711SOL    HW215973   0.399   3.445   0.955
 4712SOL     OW15974  12.213   5.416   2.910
 4712SOL    HW115975  12.172   5.498   2.937
 4712SOL    HW215976  12.140   5.360   2.885
 4713SOL     OW15977  12.451  10.069  14.202
 4713SOL    HW115978  12.468  10.163  14.202
 4713SOL    HW215979  12.361  10.061  14.235
 4714SOL     OW15980   0.191   5.474   7.486
 4714SOL    HW115981   0.127   5.494   7.554
 4714SOL    HW215982   0.232   5.393   7.516
 4715SOL     OW15983   0.602  10.492  12.589
 4715SOL    HW115984   0.567  10.580  12.600
 4715SOL    HW215985   0.526  10.435  12.593
 4716SOL     OW15986   9.839  13.543  11.697
 4716SOL    HW115987   9.893  13.466  11.713
 4716SOL    HW215988   9.898  13.606  11.655
 4717SOL     OW15989   4.627   2.806  12.206
 4717SOL    HW115990   4.661   2.744  12.271
 4717SOL    HW215991   4.704   2.839  12.160
 4718SOL     OW15992   2.311   8.588   2.325
 4718SOL    HW115993   2.320   8.558   2.234
 4718SOL    HW215994   2.308   8.683   2.319
 4719SOL     OW15995  12.418   4.229  12.684
 4719SOL    HW115996  12.346   4.217  12.746
 4719SOL    HW215997  12.458   4.143  12.677
 4720SOL     OW15998   6.827   4.276   0.518
 4720SOL    HW115999   6.868   4.294   0.603
 4720SOL    HW216000   6.855   4.187   0.497
 4721SOL     OW16001   7.532   0.244   9.541
 4721SOL    HW116002   7.462   0.189   9.505
 4721SOL    HW216003   7.487   0.311   9.591
 4722SOL     OW16004   6.906   0.193   0.541
 4722SOL    HW116005   6.899   0.237   0.456
 4722SOL    HW216006   6.826   0.141   0.547
 4723SOL     OW16007  14.437   9.632   4.055
 4723SOL    HW116008  14.447   9.543   4.022
 4723SOL    HW216009  14.347   9.656   4.031
 4724SOL     OW16010  14.199  11.776  14.494
 4724SOL    HW116011  14.230  11.829  14.568
 4724SOL    HW216012  14.106  11.796  14.488
 4725SOL     OW16013   1.181  13.946   3.395
 4725SOL    HW116014   1.159  14.010   3.464
 4725SOL    HW216015   1.242  13.992   3.338
 4726SOL     OW16016   7.241   2.005   4.269
 4726SOL    HW116017   7.257   1.993   4.175
 4726SOL    HW216018   7.173   2.072   4.273
 4727SOL     OW16019  10.753   6.139   5.421
 4727SOL    HW116020  10.702   6.154   5.341
 4727SOL    HW216021  10.698   6.173   5.491
 4728SOL     OW16022  14.561   5.881   3.092
 4728SOL    HW116023  14.465   5.883   3.083
 4728SOL    HW216024  14.576   5.845   3.179
 4729SOL     OW16025  13.660  10.587   9.494
 4729SOL    HW116026  13.716  10.606   9.419
 4729SOL    HW216027  13.664  10.492   9.504
 4730SOL     OW16028  12.954  12.948   2.164
 4730SOL    HW116029  12.967  12.854   2.154
 4730SOL    HW216030  12.947  12.961   2.259
 4731SOL     OW16031  10.787   6.013   2.751
 4731SOL    HW116032  10.740   6.096   2.738
 4731SOL    HW216033  10.835   6.001   2.669
 4732SOL     OW16034   9.441  10.387   1.639
 4732SOL    HW116035   9.438  10.482   1.632
 4732SOL    HW216036   9.349  10.360   1.643
 4733SOL     OW16037   8.154   5.160   1.266
 4733SOL    HW116038   8.111   5.245   1.253
 4733SOL    HW216039   8.084   5.099   1.286
 4734SOL     OW16040   4.339  14.417   5.556
 4734SOL    HW116041   4.399  14.491   5.547
 4734SOL    HW216042   4.255  14.450   5.525
 4735SOL     OW16043  10.250   8.223   3.651
 4735SOL    HW116044  10.201   8.230   3.569
 4735SOL    HW216045  10.225   8.138   3.687
 4736SOL     OW16046   7.135   9.404  14.786
 4736SOL    HW116047   7.088   9.441  14.860
 4736SOL    HW216048   7.093   9.319  14.772
 4737SOL     OW16049   8.556  10.049  13.186
 4737SOL    HW116050   8.587  10.133  13.152
 4737SOL    HW216051   8.625  10.021  13.246
 4738SOL     OW16052  12.955   4.859   2.740
 4738SOL    HW116053  12.919   4.919   2.674
 4738SOL    HW216054  13.048   4.882   2.744
 4739SOL     OW16055  14.161  14.874   6.806
 4739SOL    HW116056  14.070  14.871   6.775
 4739SOL    HW216057  14.190  14.782   6.804
 4740SOL     OW16058   8.620  11.913   8.053
 4740SOL    HW116059   8.683  11.845   8.078
 4740SOL    HW216060   8.565  11.871   7.987
 4741SOL     OW16061   6.490   3.488  12.420
 4741SOL    HW116062   6.557   3.424  12.395
 4741SOL    HW216063   6.473   3.469  12.513
 4742SOL     OW16064  13.205   9.449   1.012
 4742SOL    HW116065  13.188   9.380   1.077
 4742SOL    HW216066  13.254   9.405   0.943
 4743SOL     OW16067  13.889   9.054   1.697
 4743SOL    HW116068  13.815   9.000   1.726
 4743SOL    HW216069  13.962   8.993   1.691
 4744SOL     OW16070   9.939  10.306   7.157
 4744SOL    HW116071  10.001  10.252   7.107
 4744SOL    HW216072   9.868  10.323   7.096
 4745SOL     OW16073  13.005   8.332  12.946
 4745SOL    HW116074  12.972   8.351  13.034
 4745SOL    HW216075  12.926   8.331  12.891
 4746SOL     OW16076   9.654  12.588   5.842
 4746SOL    HW116077   9.587  12.521   5.834
 4746SOL    HW216078   9.606  12.671   5.841
 4747SOL     OW16079  14.585   9.956  12.012
 4747SOL    HW116080  14.641  10.018  11.965
 4747SOL    HW216081  14.625   9.949  12.099
 4748SOL     OW16082   5.516  11.088   4.862
 4748SOL    HW116083   5.425  11.092   4.890
 4748SOL    HW216084   5.512  11.092   4.766
 4749SOL     OW16085  11.976   1.115   3.914
 4749SOL    HW116086  11.983   1.028   3.876
 4749SOL    HW216087  12.034   1.169   3.861
 4750SOL     OW16088   9.257  14.463   1.968
 4750SOL    HW116089   9.241  14.539   1.913
 4750SOL    HW216090   9.268  14.391   1.907
 4751SOL     OW16091   0.035   3.403   8.766
 4751SOL    HW116092   0.114   3.432   8.811
 4751SOL    HW216093  14.848   3.475   8.777
 4752SOL     OW16094   1.172   4.880   0.978
 4752SOL    HW116095   1.165   4.801   0.924
 4752SOL    HW216096   1.115   4.864   1.052
 4753SOL     OW16097   0.036   1.866   1.555
 4753SOL    HW116098   0.107   1.837   1.498
 4753SOL    HW216099   0.029   1.960   1.540
 4754SOL     OW16100   1.691   9.690  12.098
 4754SOL    HW116101   1.694   9.694  12.003
 4754SOL    HW216102   1.720   9.776  12.128
 4755SOL     OW16103   6.032  12.020  13.666
 4755SOL    HW116104   6.054  11.999  13.575
 4755SOL    HW216105   6.031  12.116  13.669
 4756SOL     OW16106  10.316  12.190   4.241
 4756SOL    HW116107  10.254  12.257   4.268
 4756SOL    HW216108  10.284  12.110   4.283
 4757SOL     OW16109   2.481   1.357   0.288
 4757SOL    HW116110   2.500   1.279   0.339
 4757SOL    HW216111   2.392   1.381   0.313
 4758SOL     OW16112   3.763  10.206   9.615
 4758SOL    HW116113   3.784  10.281   9.672
 4758SOL    HW216114   3.832  10.206   9.550
 4759SOL     OW16115  10.661  12.404  11.647
 4759SOL    HW116116  10.654  12.495  11.619
 4759SOL    HW216117  10.570  12.375  11.656
 4760SOL     OW16118   3.252   2.401  14.505
 4760SOL    HW116119   3.344   2.415  14.479
 4760SOL    HW216120   3.228   2.318  14.464
 4761SOL     OW16121  10.870  14.792  13.106
 4761SOL    HW116122  10.894  14.703  13.130
 4761SOL    HW216123  10.936  14.818  13.043
 4762SOL     OW16124  13.062  14.693  13.233
 4762SOL    HW116125  13.009  14.756  13.183
 4762SOL    HW216126  13.134  14.744  13.268
 4763SOL     OW16127   0.356   7.459   5.614
 4763SOL    HW116128   0.405   7.383   5.644
 4763SOL    HW216129   0.271   7.451   5.657
 4764SOL     OW16130   3.280   5.456   7.000
 4764SOL    HW116131   3.374   5.456   7.020
 4764SOL    HW216132   3.242   5.509   7.070
 4765SOL     OW16133   1.437  13.125   2.944
 4765SOL    HW116134   1.422  13.038   2.907
 4765SOL    HW216135   1.366  13.179   2.909
 4766SOL     OW16136   3.194  11.827   5.541
 4766SOL    HW116137   3.237  11.872   5.468
 4766SOL    HW216138   3.227  11.872   5.619
 4767SOL     OW16139   0.875  11.871  14.175
 4767SOL    HW116140   0.947  11.922  14.213
 4767SOL    HW216141   0.810  11.866  14.245
 4768SOL     OW16142   5.739   0.184  13.575
 4768SOL    HW116143   5.700   0.230  13.501
 4768SOL    HW216144   5.664   0.147  13.622
 4769SOL     OW16145   6.463   0.859   0.441
 4769SOL    HW116146   6.405   0.817   0.504
 4769SOL    HW216147   6.550   0.851   0.480
 4770SOL     OW16148   9.861  13.341   4.328
 4770SOL    HW116149   9.786  13.395   4.302
 4770SOL    HW216150   9.930  13.404   4.349
 4771SOL     OW16151   9.014   5.682   1.582
 4771SOL    HW116152   8.985   5.626   1.655
 4771SOL    HW216153   8.946   5.672   1.516
 4772SOL     OW16154   5.470   3.750  12.556
 4772SOL    HW116155   5.463   3.838  12.518
 4772SOL    HW216156   5.496   3.766  12.647
 4773SOL     OW16157  13.358  10.271  12.496
 4773SOL    HW116158  13.444  10.265  12.537
 4773SOL    HW216159  13.296  10.268  12.569
 4774SOL     OW16160  14.339  11.049  13.419
 4774SOL    HW116161  14.309  11.101  13.344
 4774SOL    HW216162  14.356  11.113  13.488
 4775SOL     OW16163   6.091   3.810  13.855
 4775SOL    HW116164   6.066   3.826  13.946
 4775SOL    HW216165   6.088   3.896  13.814
 4776SOL     OW16166  12.031  12.020  11.955
 4776SOL    HW116167  12.089  12.062  11.891
 4776SOL    HW216168  11.963  11.979  11.902
 4777SOL     OW16169  10.166   7.352   4.108
 4777SOL    HW116170  10.234   7.416   4.131
 4777SOL    HW216171  10.086   7.404   4.099
 4778SOL     OW16172  14.509   2.644  10.633
 4778SOL    HW116173  14.440   2.590  10.594
 4778SOL    HW216174  14.545   2.694  10.560
 4779SOL     OW16175  12.296  13.385   5.143
 4779SOL    HW116176  12.304  13.395   5.049
 4779SOL    HW216177  12.261  13.297   5.155
 4780SOL     OW16178  12.116  12.564  10.208
 4780SOL    HW116179  12.208  12.592  10.206
 4780SOL    HW216180  12.082  12.587  10.122
 4781SOL     OW16181   3.698  13.314   9.587
 4781SOL    HW116182   3.634  13.248   9.561
 4781SOL    HW216183   3.766  13.310   9.520
 4782SOL     OW16184   3.408   6.570  10.642
 4782SOL    HW116185   3.321   6.552  10.678
 4782SOL    HW216186   3.422   6.500  10.579
 4783SOL     OW16187  14.084   2.190  14.579
 4783SOL    HW116188  14.044   2.277  14.580
 4783SOL    HW216189  14.114   2.177  14.669
 4784SOL     OW16190   4.124   7.089   4.905
 4784SOL    HW116191   4.033   7.102   4.934
 4784SOL    HW216192   4.121   7.009   4.852
 4785SOL     OW16193  13.236   2.066   8.575
 4785SOL    HW116194  13.241   2.153   8.535
 4785SOL    HW216195  13.239   2.005   8.502
 4786SOL     OW16196  14.005  12.466   4.931
 4786SOL    HW116197  14.085  12.441   4.884
 4786SOL    HW216198  13.977  12.386   4.975
 4787SOL     OW16199  10.453   1.882   2.158
 4787SOL    HW116200  10.451   1.861   2.065
 4787SOL    HW216201  10.465   1.976   2.161
 4788SOL     OW16202   3.262   7.947   9.407
 4788SOL    HW116203   3.215   7.915   9.484
 4788SOL    HW216204   3.287   8.037   9.430
 4789SOL     OW16205   4.855  10.078   5.268
 4789SOL    HW116206   4.862  10.140   5.340
 4789SOL    HW216207   4.877   9.993   5.307
 4790SOL     OW16208  12.784  14.143  10.827
 4790SOL    HW116209  12.829  14.201  10.765
 4790SOL    HW216210  12.850  14.080  10.855
 4791SOL     OW16211  11.224   7.660  14.858
 4791SOL    HW116212  11.168   7.733  14.832
 4791SOL    HW216213  11.222   7.601  14.783
 4792SOL     OW16214  10.041  11.885   2.477
 4792SOL    HW116215   9.982  11.958   2.498
 4792SOL    HW216216   9.988  11.824   2.427
 4793SOL     OW16217  13.232   6.683  11.928
 4793SOL    HW116218  13.146   6.640  11.929
 4793SOL    HW216219  13.283   6.630  11.867
 4794SOL     OW16220  14.526  11.893  13.398
 4794SOL    HW116221  14.547  11.947  13.474
 4794SOL    HW216222  14.606  11.895  13.344
 4795SOL     OW16223   2.290   5.010  10.693
 4795SOL    HW116224   2.353   5.061  10.744
 4795SOL    HW216225   2.334   4.926  10.679
 4796SOL     OW16226   6.692   2.936  12.739
 4796SOL    HW116227   6.660   3.020  12.770
 4796SOL    HW216228   6.708   2.949  12.646
 4797SOL     OW16229   2.885   1.733  12.006
 4797SOL    HW116230   2.859   1.663  12.066
 4797SOL    HW216231   2.846   1.709  11.922
 4798SOL     OW16232  13.320  11.847   4.975
 4798SOL    HW116233  13.265  11.778   5.012
 4798SOL    HW216234  13.410  11.817   4.989
 4799SOL     OW16235  14.086   9.902   5.680
 4799SOL    HW116236  14.025   9.870   5.746
 4799SOL    HW216237  14.164   9.848   5.692
 4800SOL     OW16238   2.122   9.284  10.410
 4800SOL    HW116239   2.061   9.210  10.421
 4800SOL    HW216240   2.065   9.359  10.393
 4801SOL     OW16241  10.382  11.949   7.375
 4801SOL    HW116242  10.466  11.903   7.370
 4801SOL    HW216243  10.322  11.894   7.325
 4802SOL     OW16244   1.069  13.221  12.248
 4802SOL    HW116245   1.156  13.206  12.285
 4802SOL    HW216246   1.008  13.194  12.318
 4803SOL     OW16247   5.327   3.655  12.280
 4803SOL    HW116248   5.410   3.628  12.240
 4803SOL    HW216249   5.313   3.745  12.251
 4804SOL     OW16250  13.382   0.749   1.046
 4804SOL    HW116251  13.457   0.702   1.010
 4804SOL    HW216252  13.306   0.693   1.025
 4805SOL     OW16253   4.866   7.713   7.808
 4805SOL    HW116254   4.845   7.644   7.870
 4805SOL    HW216255   4.912   7.779   7.860
 4806SOL     OW16256  12.416  13.941   3.946
 4806SOL    HW116257  12.356  13.909   4.014
 4806SOL    HW216258  12.409  13.876   3.876
 4807SOL     OW16259   7.337   8.148   2.637
 4807SOL    HW116260   7.393   8.215   2.598
 4807SOL    HW216261   7.249   8.186   2.635
 4808SOL     OW16262   5.701  10.813   6.031
 4808SOL    HW116263   5.700  10.891   6.087
 4808SOL    HW216264   5.722  10.847   5.944
 4809SOL     OW16265   8.358   1.770   9.981
 4809SOL    HW116266   8.263   1.761   9.985
 4809SOL    HW216267   8.383   1.717   9.905
 4810SOL     OW16268   8.139  13.015   2.818
 4810SOL    HW116269   8.047  13.002   2.796
 4810SOL    HW216270   8.184  12.939   2.781
 4811SOL     OW16271   5.709   5.018   1.957
 4811SOL    HW116272   5.678   4.986   1.872
 4811SOL    HW216273   5.635   5.003   2.016
 4812SOL     OW16274  13.586   8.897   4.383
 4812SOL    HW116275  13.542   8.979   4.358
 4812SOL    HW216276  13.524   8.853   4.441
 4813SOL     OW16277   8.697   0.712   0.295
 4813SOL    HW116278   8.609   0.677   0.285
 4813SOL    HW216279   8.684   0.798   0.335
 4814SOL     OW16280  12.093   4.930   1.610
 4814SOL    HW116281  12.158   4.861   1.610
 4814SOL    HW216282  12.065   4.937   1.702
 4815SOL     OW16283  11.215   7.660  10.364
 4815SOL    HW116284  11.300   7.666  10.408
 4815SOL    HW216285  11.217   7.728  10.297
 4816SOL     OW16286   7.951   0.871   1.970
 4816SOL    HW116287   7.956   0.810   1.897
 4816SOL    HW216288   7.859   0.898   1.974
 4817SOL     OW16289   0.519   5.111   2.394
 4817SOL    HW116290   0.443   5.061   2.366
 4817SOL    HW216291   0.582   5.046   2.424
 4818SOL     OW16292   5.198  12.894   2.028
 4818SOL    HW116293   5.291  12.872   2.035
 4818SOL    HW216294   5.154  12.832   2.086
 4819SOL     OW16295   3.900  13.260   4.948
 4819SOL    HW116296   3.837  13.194   4.979
 4819SOL    HW216297   3.983  13.234   4.988
 4820SOL     OW16298   4.511  12.846   6.774
 4820SOL    HW116299   4.530  12.882   6.687
 4820SOL    HW216300   4.468  12.917   6.821
 4821SOL     OW16301  14.069   2.885   7.029
 4821SOL    HW116302  14.162   2.905   7.034
 4821SOL    HW216303  14.062   2.795   7.061
 4822SOL     OW16304   6.545   4.159   8.551
 4822SOL    HW116305   6.553   4.099   8.477
 4822SOL    HW216306   6.457   4.144   8.585
 4823SOL     OW16307   5.947  10.625   9.995
 4823SOL    HW116308   5.864  10.648   9.952
 4823SOL    HW216309   5.966  10.700  10.051
 4824SOL     OW16310  13.043  14.433  12.440
 4824SOL    HW116311  12.963  14.439  12.492
 4824SOL    HW216312  13.066  14.340  12.441
 4825SOL     OW16313   9.548   0.752  13.572
 4825SOL    HW116314   9.572   0.756  13.480
 4825SOL    HW216315   9.477   0.686  13.575
 4826SOL     OW16316   1.876   7.010  10.291
 4826SOL    HW116317   1.858   7.083  10.233
 4826SOL    HW216318   1.851   6.932  10.241
 4827SOL     OW16319   4.147   6.968   1.669
 4827SOL    HW116320   4.189   6.914   1.602
 4827SOL    HW216321   4.116   7.045   1.622
 4828SOL     OW16322  14.495  12.838   2.063
 4828SOL    HW116323  14.441  12.802   1.993
 4828SOL    HW216324  14.442  12.828   2.143
 4829SOL     OW16325   1.944   4.746   6.784
 4829SOL    HW116326   1.986   4.831   6.773
 4829SOL    HW216327   1.865   4.751   6.730
 4830SOL     OW16328   9.683   0.285   7.896
 4830SOL    HW116329   9.626   0.346   7.850
 4830SOL    HW216330   9.657   0.293   7.988
 4831SOL     OW16331  12.408   9.327   3.719
 4831SOL    HW116332  12.369   9.359   3.638
 4831SOL    HW216333  12.440   9.405   3.764
 4832SOL     OW16334  10.173   7.843  12.944
 4832SOL    HW116335  10.127   7.853  13.027
 4832SOL    HW216336  10.258   7.886  12.958
 4833SOL     OW16337   6.859   5.131  12.008
 4833SOL    HW116338   6.829   5.211  12.051
 4833SOL    HW216339   6.890   5.075  12.079
 4834SOL     OW16340   7.593  10.327   7.605
 4834SOL    HW116341   7.650  10.290   7.538
 4834SOL    HW216342   7.516  10.356   7.557
 4835SOL     OW16343  10.996   6.151   7.173
 4835SOL    HW116344  10.916   6.192   7.140
 4835SOL    HW216345  11.020   6.087   7.106
 4836SOL     OW16346   7.671   8.464   6.324
 4836SOL    HW116347   7.707   8.549   6.351
 4836SOL    HW216348   7.598   8.449   6.384
 4837SOL     OW16349   4.495   4.621   8.017
 4837SOL    HW116350   4.474   4.694   7.959
 4837SOL    HW216351   4.488   4.543   7.961
 4838SOL     OW16352   3.180  13.739  10.520
 4838SOL    HW116353   3.210  13.739  10.611
 4838SOL    HW216354   3.241  13.681  10.475
 4839SOL     OW16355   8.507   2.168  11.169
 4839SOL    HW116356   8.494   2.083  11.212
 4839SOL    HW216357   8.596   2.163  11.134
 4840SOL     OW16358  14.710   8.580   5.901
 4840SOL    HW116359  14.676   8.665   5.929
 4840SOL    HW216360  14.682   8.572   5.810
 4841SOL     OW16361  11.153   6.822  13.957
 4841SOL    HW116362  11.071   6.780  13.983
 4841SOL    HW216363  11.210   6.814  14.033
 4842SOL     OW16364   7.354  10.651  11.868
 4842SOL    HW116365   7.262  10.627  11.878
 4842SOL    HW216366   7.356  10.711  11.794
 4843SOL     OW16367  14.851   7.108  13.595
 4843SOL    HW116368  14.816   7.172  13.533
 4843SOL    HW216369   0.048   7.154  13.640
 4844SOL     OW16370   0.035   0.527  13.490
 4844SOL    HW116371  14.834   0.496  13.541
 4844SOL    HW216372   0.095   0.453  13.488
 4845SOL     OW16373  10.615   8.951   0.938
 4845SOL    HW116374  10.530   8.977   0.903
 4845SOL    HW216375  10.637   9.019   1.002
 4846SOL     OW16376   3.191   5.910  10.056
 4846SOL    HW116377   3.213   5.819  10.075
 4846SOL    HW216378   3.224   5.925   9.968
 4847SOL     OW16379  11.480   0.390   2.790
 4847SOL    HW116380  11.406   0.449   2.773
 4847SOL    HW216381  11.440   0.304   2.803
 4848SOL     OW16382   9.294   4.606   4.039
 4848SOL    HW116383   9.224   4.580   4.099
 4848SOL    HW216384   9.370   4.619   4.096
 4849SOL     OW16385  14.315   1.484   1.020
 4849SOL    HW116386  14.237   1.494   0.965
 4849SOL    HW216387  14.387   1.473   0.958
 4850SOL     OW16388  10.087   7.811  11.319
 4850SOL    HW116389  10.160   7.865  11.288
 4850SOL    HW216390  10.103   7.724  11.282
 4851SOL     OW16391   4.175   1.729   9.008
 4851SOL    HW116392   4.179   1.778   8.926
 4851SOL    HW216393   4.082   1.731   9.032
 4852SOL     OW16394  12.054   6.490   8.363
 4852SOL    HW116395  12.012   6.409   8.335
 4852SOL    HW216396  12.038   6.494   8.457
 4853SOL     OW16397   2.591   8.150  13.774
 4853SOL    HW116398   2.618   8.129  13.863
 4853SOL    HW216399   2.665   8.197  13.736
 4854SOL     OW16400   7.339   4.622   5.253
 4854SOL    HW116401   7.316   4.552   5.192
 4854SOL    HW216402   7.375   4.692   5.198
 4855SOL     OW16403  13.800   3.221  12.587
 4855SOL    HW116404  13.748   3.296  12.560
 4855SOL    HW216405  13.751   3.181  12.659
 4856SOL     OW16406   2.551  12.413   2.304
 4856SOL    HW116407   2.564  12.443   2.394
 4856SOL    HW216408   2.521  12.491   2.257
 4857SOL     OW16409  13.567   6.120  14.689
 4857SOL    HW116410  13.511   6.108  14.612
 4857SOL    HW216411  13.642   6.171  14.656
 4858SOL     OW16412   3.484   7.003   9.049
 4858SOL    HW116413   3.420   6.934   9.065
 4858SOL    HW216414   3.434   7.070   9.002
 4859SOL     OW16415   0.473   3.191  11.679
 4859SOL    HW116416   0.451   3.206  11.771
 4859SOL    HW216417   0.513   3.273  11.650
 4860SOL     OW16418   9.713  12.761   8.787
 4860SOL    HW116419   9.711  12.849   8.824
 4860SOL    HW216420   9.803  12.751   8.754
 4861SOL     OW16421   9.508  10.958   6.846
 4861SOL    HW116422   9.491  10.869   6.875
 4861SOL    HW216423   9.603  10.963   6.839
 4862SOL     OW16424   4.907   5.740   8.956
 4862SOL    HW116425   4.955   5.806   9.006
 4862SOL    HW216426   4.923   5.658   9.003
 4863SOL     OW16427   2.687   0.767   1.826
 4863SOL    HW116428   2.640   0.730   1.900
 4863SOL    HW216429   2.718   0.692   1.776
 4864SOL     OW16430  10.860  11.329   4.569
 4864SOL    HW116431  10.827  11.304   4.483
 4864SOL    HW216432  10.827  11.260   4.627
 4865SOL     OW16433   2.109   1.829   2.161
 4865SOL    HW116434   2.167   1.812   2.087
 4865SOL    HW216435   2.121   1.922   2.180
 4866SOL     OW16436   4.289  11.082   4.278
 4866SOL    HW116437   4.203  11.090   4.237
 4866SOL    HW216438   4.281  11.126   4.362
 4867SOL     OW16439  10.174   9.403  14.028
 4867SOL    HW116440  10.134   9.459  13.962
 4867SOL    HW216441  10.106   9.390  14.093
 4868SOL     OW16442   8.741  10.524   0.928
 4868SOL    HW116443   8.798  10.555   0.998
 4868SOL    HW216444   8.788  10.451   0.889
 4869SOL     OW16445   9.668  13.549   4.298
 4869SOL    HW116446   9.618  13.561   4.379
 4869SOL    HW216447   9.673  13.637   4.260
 4870SOL     OW16448  12.366   4.723  11.816
 4870SOL    HW116449  12.376   4.799  11.760
 4870SOL    HW216450  12.352   4.650  11.755
 4871SOL     OW16451   5.023   2.331   5.143
 4871SOL    HW116452   4.961   2.390   5.100
 4871SOL    HW216453   5.080   2.389   5.194
 4872SOL     OW16454  11.641   3.074  11.309
 4872SOL    HW116455  11.690   3.153  11.333
 4872SOL    HW216456  11.708   3.010  11.286
 4873SOL     OW16457   6.684   5.506   5.893
 4873SOL    HW116458   6.760   5.553   5.860
 4873SOL    HW216459   6.629   5.574   5.933
 4874SOL     OW16460   6.858  13.759   7.908
 4874SOL    HW116461   6.847  13.674   7.950
 4874SOL    HW216462   6.940  13.793   7.944
 4875SOL     OW16463   0.511   6.082   1.038
 4875SOL    HW116464   0.445   6.086   0.969
 4875SOL    HW216465   0.580   6.141   1.008
 4876SOL     OW16466   0.837   7.458   9.786
 4876SOL    HW116467   0.869   7.406   9.860
 4876SOL    HW216468   0.742   7.462   9.798
 4877SOL     OW16469   7.227  13.113  13.162
 4877SOL    HW116470   7.139  13.079  13.177
 4877SOL    HW216471   7.227  13.199  13.202
 4878SOL     OW16472   9.052   0.285  10.968
 4878SOL    HW116473   9.019   0.196  10.955
 4878SOL    HW216474   9.032   0.330  10.886
 4879SOL     OW16475   3.713  12.244   7.521
 4879SOL    HW116476   3.756  12.231   7.436
 4879SOL    HW216477   3.727  12.161   7.568
 4880SOL     OW16478   4.193   1.437   8.954
 4880SOL    HW116479   4.256   1.376   8.992
 4880SOL    HW216480   4.220   1.523   8.985
 4881SOL     OW16481  14.571   7.623  13.064
 4881SOL    HW116482  14.478   7.602  13.055
 4881SOL    HW216483  14.601   7.569  13.138
 4882SOL     OW16484   1.094   5.792   0.154
 4882SOL    HW116485   1.114   5.774   0.062
 4882SOL    HW216486   1.163   5.747   0.203
 4883SOL     OW16487  14.815   2.066   4.771
 4883SOL    HW116488  14.822   2.157   4.746
 4883SOL    HW216489   0.004   2.055   4.843
 4884SOL     OW16490  13.582   0.245   4.186
 4884SOL    HW116491  13.603   0.307   4.256
 4884SOL    HW216492  13.654   0.182   4.187
 4885SOL     OW16493  14.369   1.757   3.599
 4885SOL    HW116494  14.289   1.712   3.573
 4885SOL    HW216495  14.341   1.847   3.618
 4886SOL     OW16496   5.461  14.412   3.541
 4886SOL    HW116497   5.549  14.402   3.505
 4886SOL    HW216498   5.411  14.341   3.502
 4887SOL     OW16499   3.046   8.999   6.889
 4887SOL    HW116500   3.065   9.081   6.843
 4887SOL    HW216501   3.131   8.956   6.896
 4888SOL     OW16502   3.392  12.422   1.468
 4888SOL    HW116503   3.296  12.425   1.461
 4888SOL    HW216504   3.414  12.501   1.518
 4889SOL     OW16505   3.299   4.452   9.235
 4889SOL    HW116506   3.259   4.365   9.232
 4889SOL    HW216507   3.224   4.512   9.236
 4890SOL     OW16508  14.610   8.503  10.328
 4890SOL    HW116509  14.584   8.543  10.411
 4890SOL    HW216510  14.638   8.415  10.352
 4891SOL     OW16511  10.282  13.161   9.275
 4891SOL    HW116512  10.315  13.131   9.360
 4891SOL    HW216513  10.280  13.083   9.220
 4892SOL     OW16514   4.504   8.482   4.209
 4892SOL    HW116515   4.451   8.424   4.264
 4892SOL    HW216516   4.452   8.561   4.200
 4893SOL     OW16517   9.108   0.406  10.606
 4893SOL    HW116518   9.015   0.387  10.614
 4893SOL    HW216519   9.148   0.322  10.584
 4894SOL     OW16520  11.335  14.245   4.772
 4894SOL    HW116521  11.240  14.234   4.776
 4894SOL    HW216522  11.370  14.173   4.825
 4895SOL     OW16523  12.839  13.031   6.892
 4895SOL    HW116524  12.870  12.991   6.810
 4895SOL    HW216525  12.914  13.025   6.951
 4896SOL     OW16526  11.489   7.086  10.281
 4896SOL    HW116527  11.469   7.010  10.227
 4896SOL    HW216528  11.410   7.140  10.279
 4897SOL     OW16529   2.740  10.477   2.888
 4897SOL    HW116530   2.820  10.518   2.921
 4897SOL    HW216531   2.726  10.520   2.803
 4898SOL     OW16532  10.394   3.209  13.035
 4898SOL    HW116533  10.446   3.161  12.970
 4898SOL    HW216534  10.395   3.300  13.003
 4899SOL     OW16535   2.879   7.391   4.499
 4899SOL    HW116536   2.961   7.433   4.474
 4899SOL    HW216537   2.860   7.329   4.429
 4900SOL     OW16538   0.607   9.071  12.405
 4900SOL    HW116539   0.596   9.119  12.323
 4900SOL    HW216540   0.518   9.058  12.438
 4901SOL     OW16541  12.453   9.646   2.978
 4901SOL    HW116542  12.364   9.615   2.995
 4901SOL    HW216543  12.475   9.699   3.055
 4902SOL     OW16544   9.332   4.906  10.807
 4902SOL    HW116545   9.343   4.841  10.738
 4902SOL    HW216546   9.239   4.900  10.832
 4903SOL     OW16547  14.292   7.396   7.725
 4903SOL    HW116548  14.255   7.417   7.639
 4903SOL    HW216549  14.310   7.481   7.765
 4904SOL     OW16550   5.659  13.195   3.578
 4904SOL    HW116551   5.616  13.258   3.635
 4904SOL    HW216552   5.594  13.125   3.566
 4905SOL     OW16553   6.497   0.199   4.335
 4905SOL    HW116554   6.497   0.170   4.244
 4905SOL    HW216555   6.404   0.202   4.359
 4906SOL     OW16556   0.803   9.910   5.037
 4906SOL    HW116557   0.894   9.938   5.042
 4906SOL    HW216558   0.779   9.886   5.127
 4907SOL     OW16559   7.634   8.029   1.210
 4907SOL    HW116560   7.580   8.047   1.287
 4907SOL    HW216561   7.645   7.934   1.210
 4908SOL     OW16562   5.178   3.008  13.209
 4908SOL    HW116563   5.084   3.000  13.222
 4908SOL    HW216564   5.195   3.102  13.212
 4909SOL     OW16565   8.122  14.393   5.766
 4909SOL    HW116566   8.116  14.422   5.857
 4909SOL    HW216567   8.178  14.458   5.723
 4910SOL     OW16568  12.744  14.033   0.658
 4910SOL    HW116569  12.766  14.123   0.633
 4910SOL    HW216570  12.710  13.993   0.578
 4911SOL     OW16571   2.541   5.994  14.057
 4911SOL    HW116572   2.619   6.009  14.111
 4911SOL    HW216573   2.564   6.032  13.972
 4912SOL     OW16574  12.071   2.518  14.096
 4912SOL    HW116575  12.034   2.586  14.151
 4912SOL    HW216576  12.002   2.453  14.087
 4913SOL     OW16577   3.787  10.939   4.003
 4913SOL    HW116578   3.800  10.999   3.930
 4913SOL    HW216579   3.707  10.970   4.046
 4914SOL     OW16580  13.972   2.497   9.159
 4914SOL    HW116581  13.978   2.414   9.112
 4914SOL    HW216582  14.001   2.563   9.095
 4915SOL     OW16583   4.427   1.459   8.273
 4915SOL    HW116584   4.347   1.418   8.240
 4915SOL    HW216585   4.490   1.450   8.203
 4916SOL     OW16586   6.677   9.379   9.010
 4916SOL    HW116587   6.658   9.418   9.096
 4916SOL    HW216588   6.726   9.300   9.030
 4917SOL     OW16589  14.060   4.232   2.565
 4917SOL    HW116590  14.004   4.303   2.596
 4917SOL    HW216591  14.127   4.222   2.634
 4918SOL     OW16592  13.107   2.198   8.952
 4918SOL    HW116593  13.078   2.129   8.893
 4918SOL    HW216594  13.056   2.186   9.032
 4919SOL     OW16595   7.469   8.316  14.432
 4919SOL    HW116596   7.388   8.265  14.427
 4919SOL    HW216597   7.441   8.406  14.448
 4920SOL     OW16598  14.674   4.696   9.288
 4920SOL    HW116599  14.627   4.709   9.371
 4920SOL    HW216600  14.700   4.604   9.290
 4921SOL     OW16601   2.511   9.754   2.904
 4921SOL    HW116602   2.603   9.748   2.930
 4921SOL    HW216603   2.514   9.758   2.808
 4922SOL     OW16604   0.815   3.791   7.833
 4922SOL    HW116605   0.765   3.873   7.835
 4922SOL    HW216606   0.896   3.811   7.880
 4923SOL     OW16607   4.790  10.688   0.918
 4923SOL    HW116608   4.730  10.751   0.958
 4923SOL    HW216609   4.788  10.612   0.977
 4924SOL     OW16610   9.875  11.427   8.591
 4924SOL    HW116611   9.941  11.493   8.610
 4924SOL    HW216612   9.811  11.434   8.662
 4925SOL     OW16613   4.419   9.449   8.729
 4925SOL    HW116614   4.384   9.538   8.725
 4925SOL    HW216615   4.508   9.457   8.695
 4926SOL     OW16616  14.188   5.501  12.464
 4926SOL    HW116617  14.142   5.463  12.539
 4926SOL    HW216618  14.144   5.585  12.449
 4927SOL     OW16619   0.718  11.015   4.581
 4927SOL    HW116620   0.684  11.087   4.527
 4927SOL    HW216621   0.696  11.040   4.671
 4928SOL     OW16622   0.131   6.376   4.562
 4928SOL    HW116623   0.103   6.463   4.590
 4928SOL    HW216624   0.145   6.384   4.468
 4929SOL     OW16625   1.367  10.033   1.240
 4929SOL    HW116626   1.325  10.048   1.324
 4929SOL    HW216627   1.456  10.067   1.251
 4930SOL     OW16628   1.619   4.427   6.660
 4930SOL    HW116629   1.682   4.409   6.592
 4930SOL    HW216630   1.669   4.421   6.742
 4931SOL     OW16631  13.697   6.673  12.510
 4931SOL    HW116632  13.672   6.703  12.422
 4931SOL    HW216633  13.628   6.612  12.535
 4932SOL     OW16634   7.432  10.821   5.644
 4932SOL    HW116635   7.381  10.895   5.611
 4932SOL    HW216636   7.519  10.857   5.660
 4933SOL     OW16637   8.520   3.160   3.361
 4933SOL    HW116638   8.488   3.119   3.441
 4933SOL    HW216639   8.461   3.128   3.292
 4934SOL     OW16640  12.076  13.528  13.197
 4934SOL    HW116641  12.107  13.471  13.127
 4934SOL    HW216642  11.981  13.530  13.186
 4935SOL     OW16643   3.830  12.558   5.608
 4935SOL    HW116644   3.852  12.613   5.684
 4935SOL    HW216645   3.820  12.620   5.536
 4936SOL     OW16646   7.458   4.165  10.296
 4936SOL    HW116647   7.403   4.223  10.245
 4936SOL    HW216648   7.400   4.094  10.324
 4937SOL     OW16649   7.284  10.779   3.612
 4937SOL    HW116650   7.192  10.805   3.609
 4937SOL    HW216651   7.317  10.795   3.524
 4938SOL     OW16652  10.981  12.829  13.063
 4938SOL    HW116653  10.976  12.844  13.157
 4938SOL    HW216654  11.031  12.748  13.054
 4939SOL     OW16655  13.814   4.332   7.314
 4939SOL    HW116656  13.747   4.266   7.301
 4939SOL    HW216657  13.825   4.337   7.409
 4940SOL     OW16658   1.352   6.588  13.573
 4940SOL    HW116659   1.343   6.637  13.654
 4940SOL    HW216660   1.422   6.632  13.526
 4941SOL     OW16661   1.691   7.941   1.502
 4941SOL    HW116662   1.733   7.910   1.423
 4941SOL    HW216663   1.762   7.976   1.556
 4942SOL     OW16664  12.797   9.517   4.847
 4942SOL    HW116665  12.749   9.453   4.900
 4942SOL    HW216666  12.781   9.489   4.757
 4943SOL     OW16667   4.216   5.890  11.059
 4943SOL    HW116668   4.289   5.953  11.068
 4943SOL    HW216669   4.165   5.923  10.985
 4944SOL     OW16670  10.534   6.108  11.195
 4944SOL    HW116671  10.498   6.019  11.191
 4944SOL    HW216672  10.512   6.145  11.110
 4945SOL     OW16673   6.777   1.176  10.345
 4945SOL    HW116674   6.793   1.095  10.395
 4945SOL    HW216675   6.698   1.157  10.294
 4946SOL     OW16676   9.532   4.860   0.943
 4946SOL    HW116677   9.599   4.830   1.005
 4946SOL    HW216678   9.555   4.818   0.861
 4947SOL     OW16679  14.071  11.316  13.335
 4947SOL    HW116680  14.033  11.325  13.248
 4947SOL    HW216681  14.036  11.233  13.369
 4948SOL     OW16682   0.887   6.420   9.367
 4948SOL    HW116683   0.855   6.497   9.320
 4948SOL    HW216684   0.957   6.385   9.311
 4949SOL     OW16685  13.618   3.272   5.457
 4949SOL    HW116686  13.589   3.273   5.366
 4949SOL    HW216687  13.546   3.311   5.506
 4950SOL     OW16688   7.165   8.899  10.919
 4950SOL    HW116689   7.260   8.885  10.916
 4950SOL    HW216690   7.139   8.901  10.827
 4951SOL     OW16691   6.339  14.193   7.768
 4951SOL    HW116692   6.414  14.178   7.826
 4951SOL    HW216693   6.293  14.267   7.807
 4952SOL     OW16694   9.506  10.990  12.152
 4952SOL    HW116695   9.445  10.920  12.128
 4952SOL    HW216696   9.515  10.982  12.247
 4953SOL     OW16697   6.664   4.703   8.626
 4953SOL    HW116698   6.730   4.666   8.567
 4953SOL    HW216699   6.703   4.696   8.713
 4954SOL     OW16700  12.223  12.589  11.971
 4954SOL    HW116701  12.229  12.610  11.878
 4954SOL    HW216702  12.191  12.499  11.974
 4955SOL     OW16703   4.355  13.232   8.906
 4955SOL    HW116704   4.417  13.285   8.856
 4955SOL    HW216705   4.286  13.210   8.844
 4956SOL     OW16706   6.242   3.753  10.067
 4956SOL    HW116707   6.185   3.778  10.139
 4956SOL    HW216708   6.189   3.693  10.014
 4957SOL     OW16709   9.943  10.053   2.427
 4957SOL    HW116710   9.975  10.140   2.403
 4957SOL    HW216711   9.877  10.032   2.361
 4958SOL     OW16712  10.391   0.333  12.627
 4958SOL    HW116713  10.375   0.388  12.704
 4958SOL    HW216714  10.309   0.285  12.615
 4959SOL     OW16715   1.266  14.424   1.638
 4959SOL    HW116716   1.276  14.359   1.707
 4959SOL    HW216717   1.290  14.378   1.558
 4960SOL     OW16718   2.309   3.130   5.238
 4960SOL    HW116719   2.252   3.194   5.281
 4960SOL    HW216720   2.267   3.115   5.153
 4961SOL     OW16721  11.330   7.768  13.700
 4961SOL    HW116722  11.298   7.851  13.665
 4961SOL    HW216723  11.419   7.787  13.728
 4962SOL     OW16724  12.717  10.813  14.644
 4962SOL    HW116725  12.804  10.774  14.652
 4962SOL    HW216726  12.726  10.877  14.574
 4963SOL     OW16727  12.749   6.560   0.401
 4963SOL    HW116728  12.694   6.608   0.339
 4963SOL    HW216729  12.746   6.612   0.481
 4964SOL     OW16730  11.316   1.332   0.748
 4964SOL    HW116731  11.409   1.350   0.754
 4964SOL    HW216732  11.287   1.326   0.839
 4965SOL     OW16733   0.659  11.173   4.895
 4965SOL    HW116734   0.633  11.210   4.980
 4965SOL    HW216735   0.755  11.167   4.901
 4966SOL     OW16736   4.913   8.427   2.761
 4966SOL    HW116737   4.897   8.349   2.814
 4966SOL    HW216738   4.905   8.397   2.670
 4967SOL     OW16739   6.121   8.904  12.088
 4967SOL    HW116740   6.132   8.911  12.182
 4967SOL    HW216741   6.073   8.822  12.075
 4968SOL     OW16742   3.767  12.643  10.645
 4968SOL    HW116743   3.813  12.718  10.684
 4968SOL    HW216744   3.825  12.569  10.660
 4969SOL     OW16745   2.580  14.835   6.595
 4969SOL    HW116746   2.544   0.048   6.611
 4969SOL    HW216747   2.667  14.851   6.559
 4970SOL     OW16748  13.988   8.475   3.738
 4970SOL    HW116749  13.944   8.414   3.797
 4970SOL    HW216750  13.922   8.541   3.718
 4971SOL     OW16751   6.549  13.057   7.167
 4971SOL    HW116752   6.551  13.150   7.190
 4971SOL    HW216753   6.618  13.018   7.219
 4972SOL     OW16754   0.943   1.968   4.406
 4972SOL    HW116755   0.875   1.928   4.459
 4972SOL    HW216756   1.005   1.896   4.388
 4973SOL     OW16757   2.261   8.203   2.131
 4973SOL    HW116758   2.178   8.181   2.173
 4973SOL    HW216759   2.290   8.121   2.092
 4974SOL     OW16760   2.652   1.544   1.251
 4974SOL    HW116761   2.693   1.623   1.286
 4974SOL    HW216762   2.638   1.488   1.328
 4975SOL     OW16763   2.421   0.412   2.925
 4975SOL    HW116764   2.362   0.379   2.992
 4975SOL    HW216765   2.399   0.361   2.846
 4976SOL     OW16766   9.677   5.288   8.134
 4976SOL    HW116767   9.659   5.343   8.210
 4976SOL    HW216768   9.630   5.329   8.062
 4977SOL     OW16769  13.615   9.430   5.253
 4977SOL    HW116770  13.555   9.419   5.326
 4977SOL    HW216771  13.670   9.504   5.277
 4978SOL     OW16772  10.341   4.797   7.170
 4978SOL    HW116773  10.292   4.874   7.198
 4978SOL    HW216774  10.274   4.733   7.143
 4979SOL     OW16775  13.326  12.184   0.642
 4979SOL    HW116776  13.249  12.137   0.611
 4979SOL    HW216777  13.292  12.251   0.701
 4980SOL     OW16778   4.761   3.473  11.336
 4980SOL    HW116779   4.719   3.424  11.265
 4980SOL    HW216780   4.852   3.445  11.333
 4981SOL     OW16781   8.127   3.265  11.553
 4981SOL    HW116782   8.071   3.246  11.477
 4981SOL    HW216783   8.068   3.304  11.617
 4982SOL     OW16784  14.380   9.676   5.402
 4982SOL    HW116785  14.403   9.767   5.382
 4982SOL    HW216786  14.348   9.679   5.492
 4983SOL     OW16787  10.112   8.595   9.505
 4983SOL    HW116788  10.168   8.658   9.459
 4983SOL    HW216789  10.050   8.565   9.439
 4984SOL     OW16790   9.834   6.754   4.369
 4984SOL    HW116791   9.926   6.754   4.344
 4984SOL    HW216792   9.811   6.847   4.377
 4985SOL     OW16793  10.010   3.729  13.753
 4985SOL    HW116794   9.914   3.725  13.754
 4985SOL    HW216795  10.032   3.757  13.664
 4986SOL     OW16796  11.149   0.334   1.564
 4986SOL    HW116797  11.188   0.399   1.505
 4986SOL    HW216798  11.195   0.253   1.544
 4987SOL     OW16799  11.791  13.509  13.172
 4987SOL    HW116800  11.832  13.423  13.159
 4987SOL    HW216801  11.702  13.489  13.200
 4988SOL     OW16802   4.813   7.535   5.679
 4988SOL    HW116803   4.859   7.488   5.609
 4988SOL    HW216804   4.720   7.528   5.654
 4989SOL     OW16805   9.270   7.852  12.101
 4989SOL    HW116806   9.235   7.890  12.020
 4989SOL    HW216807   9.193   7.823  12.149
 4990SOL     OW16808   9.985   9.909  14.313
 4990SOL    HW116809  10.031   9.893  14.231
 4990SOL    HW216810   9.909   9.851  14.311
 4991SOL     OW16811   2.947   8.783   6.582
 4991SOL    HW116812   2.939   8.729   6.504
 4991SOL    HW216813   3.018   8.845   6.562
 4992SOL     OW16814  13.513   4.493   1.515
 4992SOL    HW116815  13.435   4.521   1.563
 4992SOL    HW216816  13.574   4.566   1.524
 4993SOL     OW16817   1.900   2.794  11.945
 4993SOL    HW116818   1.891   2.876  11.993
 4993SOL    HW216819   1.818   2.747  11.962
 4994SOL     OW16820   6.525   7.705  14.838
 4994SOL    HW116821   6.486   7.766   0.026
 4994SOL    HW216822   6.506   7.619  14.874
 4995SOL     OW16823   5.695   2.306   1.919
 4995SOL    HW116824   5.693   2.395   1.884
 4995SOL    HW216825   5.787   2.290   1.938
 4996SOL     OW16826   7.088   0.845  11.217
 4996SOL    HW116827   7.169   0.897  11.217
 4996SOL    HW216828   7.024   0.903  11.176
 4997SOL     OW16829   2.771   6.792   2.930
 4997SOL    HW116830   2.741   6.882   2.915
 4997SOL    HW216831   2.866   6.801   2.942
 4998SOL     OW16832   8.973   6.862   3.279
 4998SOL    HW116833   8.932   6.925   3.220
 4998SOL    HW216834   8.939   6.885   3.366
 4999SOL     OW16835   3.740   6.288   7.663
 4999SOL    HW116836   3.719   6.194   7.661
 4999SOL    HW216837   3.740   6.310   7.756
 5000SOL     OW16838   2.116   5.342  11.533
 5000SOL    HW116839   2.065   5.326  11.454
 5000SOL    HW216840   2.075   5.286  11.599
 5001SOL     OW16841   6.827   1.356   1.167
 5001SOL    HW116842   6.854   1.415   1.237
 5001SOL    HW216843   6.734   1.340   1.184
 5002SOL     OW16844  12.948   1.751   0.505
 5002SOL    HW116845  12.875   1.810   0.485
 5002SOL    HW216846  12.949   1.688   0.433
 5003SOL     OW16847   5.123   1.811   0.229
 5003SOL    HW116848   5.060   1.855   0.172
 5003SOL    HW216849   5.079   1.731   0.257
 5004SOL     OW16850  10.355   3.943   9.246
 5004SOL    HW116851  10.450   3.931   9.252
 5004SOL    HW216852  10.323   3.924   9.334
 5005SOL     OW16853   8.598   2.497   7.032
 5005SOL    HW116854   8.510   2.465   7.012
 5005SOL    HW216855   8.622   2.451   7.112
 5006SOL     OW16856  12.344   6.796   5.881
 5006SOL    HW116857  12.383   6.742   5.950
 5006SOL    HW216858  12.272   6.842   5.924
 5007SOL     OW16859  11.574   6.294   4.443
 5007SOL    HW116860  11.533   6.221   4.491
 5007SOL    HW216861  11.637   6.252   4.385
 5008SOL     OW16862  13.355   5.874   3.764
 5008SOL    HW116863  13.377   5.942   3.700
 5008SOL    HW216864  13.367   5.792   3.717
 5009SOL     OW16865   6.890   8.291   6.589
 5009SOL    HW116866   6.904   8.382   6.563
 5009SOL    HW216867   6.976   8.262   6.622
 5010SOL     OW16868   8.643  14.492   9.884
 5010SOL    HW116869   8.695  14.542   9.820
 5010SOL    HW216870   8.709  14.452   9.941
 5011SOL     OW16871   1.623  10.654   3.535
 5011SOL    HW116872   1.713  10.670   3.506
 5011SOL    HW216873   1.607  10.562   3.515
 5012SOL     OW16874   2.602  12.689   5.288
 5012SOL    HW116875   2.642  12.609   5.254
 5012SOL    HW216876   2.675  12.737   5.329
 5013SOL     OW16877   0.900   7.541   6.259
 5013SOL    HW116878   0.909   7.519   6.352
 5013SOL    HW216879   0.806   7.555   6.246
 5014SOL     OW16880   1.558  12.765   1.785
 5014SOL    HW116881   1.524  12.763   1.875
 5014SOL    HW216882   1.653  12.768   1.796
 5015SOL     OW16883  13.293  11.085  12.564
 5015SOL    HW116884  13.308  11.179  12.573
 5015SOL    HW216885  13.215  11.079  12.509
 5016SOL     OW16886   5.535  11.526   2.725
 5016SOL    HW116887   5.487  11.604   2.698
 5016SOL    HW216888   5.467  11.458   2.733
 5017SOL     OW16889  10.214  14.180   0.264
 5017SOL    HW116890  10.308  14.198   0.273
 5017SOL    HW216891  10.209  14.084   0.263
 5018SOL     OW16892  11.885   7.215   0.048
 5018SOL    HW116893  11.795   7.198   0.020
 5018SOL    HW216894  11.878   7.293   0.104
 5019SOL     OW16895   6.118   6.783   2.836
 5019SOL    HW116896   6.176   6.852   2.870
 5019SOL    HW216897   6.106   6.805   2.744
 5020SOL     OW16898   9.260  12.829   0.145
 5020SOL    HW116899   9.328  12.896   0.144
 5020SOL    HW216900   9.182  12.873   0.179
 5021SOL     OW16901   8.266  13.531   5.805
 5021SOL    HW116902   8.195  13.470   5.826
 5021SOL    HW216903   8.237  13.615   5.841
 5022SOL     OW16904   6.661  13.683   5.665
 5022SOL    HW116905   6.753  13.659   5.662
 5022SOL    HW216906   6.635  13.670   5.756
 5023SOL     OW16907   0.617  13.598  14.212
 5023SOL    HW116908   0.678  13.599  14.285
 5023SOL    HW216909   0.631  13.513  14.170
 5024SOL     OW16910  12.993   1.477   1.578
 5024SOL    HW116911  13.065   1.489   1.640
 5024SOL    HW216912  12.948   1.398   1.607
 5025SOL     OW16913  11.579  13.523  10.642
 5025SOL    HW116914  11.525  13.555  10.570
 5025SOL    HW216915  11.663  13.500  10.601
 5026SOL     OW16916   2.142  14.619   0.252
 5026SOL    HW116917   2.162  14.600   0.161
 5026SOL    HW216918   2.208  14.683   0.279
 5027SOL     OW16919   8.994   4.355   2.886
 5027SOL    HW116920   9.004   4.330   2.794
 5027SOL    HW216921   9.084   4.371   2.916
 5028SOL     OW16922   5.802  12.769   0.319
 5028SOL    HW116923   5.831  12.817   0.241
 5028SOL    HW216924   5.859  12.691   0.321
 5029SOL     OW16925   2.411   0.753   3.690
 5029SOL    HW116926   2.467   0.808   3.635
 5029SOL    HW216927   2.402   0.672   3.640
 5030SOL     OW16928   3.542   7.663  11.142
 5030SOL    HW116929   3.623   7.694  11.182
 5030SOL    HW216930   3.517   7.733  11.082
 5031SOL     OW16931   3.735  14.462   9.978
 5031SOL    HW116932   3.679  14.422   9.912
 5031SOL    HW216933   3.824  14.440   9.949
 5032SOL     OW16934  12.205   1.142   0.922
 5032SOL    HW116935  12.297   1.115   0.920
 5032SOL    HW216936  12.186   1.168   0.832
 5033SOL     OW16937  12.469  10.324  12.579
 5033SOL    HW116938  12.540  10.357  12.634
 5033SOL    HW216939  12.513  10.275  12.510
 5034SOL     OW16940   2.464  14.517   1.764
 5034SOL    HW116941   2.416  14.435   1.756
 5034SOL    HW216942   2.554  14.494   1.741
 5035SOL     OW16943   9.027   5.076  12.159
 5035SOL    HW116944   8.958   5.070  12.093
 5035SOL    HW216945   9.065   5.163  12.145
 5036SOL     OW16946   7.225  14.547   8.604
 5036SOL    HW116947   7.296  14.602   8.638
 5036SOL    HW216948   7.163  14.609   8.566
 5037SOL     OW16949  11.203   1.648  10.711
 5037SOL    HW116950  11.275   1.689  10.758
 5037SOL    HW216951  11.142   1.719  10.693
 5038SOL     OW16952  11.190   7.638  12.846
 5038SOL    HW116953  11.258   7.573  12.829
 5038SOL    HW216954  11.154   7.613  12.932
 5039SOL     OW16955   3.280   4.597   2.902
 5039SOL    HW116956   3.317   4.678   2.866
 5039SOL    HW216957   3.221   4.627   2.971
 5040SOL     OW16958  10.862   5.794   9.800
 5040SOL    HW116959  10.848   5.729   9.869
 5040SOL    HW216960  10.841   5.749   9.719
 5041SOL     OW16961   9.500   8.071  10.524
 5041SOL    HW116962   9.571   8.125  10.561
 5041SOL    HW216963   9.459   8.128  10.459
 5042SOL     OW16964  13.281  13.183   0.378
 5042SOL    HW116965  13.283  13.262   0.432
 5042SOL    HW216966  13.303  13.112   0.438
 5043SOL     OW16967   5.050  13.845   1.713
 5043SOL    HW116968   5.138  13.844   1.675
 5043SOL    HW216969   5.008  13.765   1.681
 5044SOL     OW16970  13.368  14.542   7.102
 5044SOL    HW116971  13.455  14.575   7.126
 5044SOL    HW216972  13.337  14.497   7.180
 5045SOL     OW16973   9.901   0.225   3.062
 5045SOL    HW116974   9.992   0.248   3.079
 5045SOL    HW216975   9.863   0.305   3.026
 5046SOL     OW16976  13.343   9.684   3.317
 5046SOL    HW116977  13.322   9.609   3.261
 5046SOL    HW216978  13.434   9.706   3.296
 5047SOL     OW16979   5.293   9.917   9.035
 5047SOL    HW116980   5.285   9.898   8.941
 5047SOL    HW216981   5.384   9.943   9.046
 5048SOL     OW16982   7.608   4.799   7.465
 5048SOL    HW116983   7.689   4.826   7.420
 5048SOL    HW216984   7.633   4.721   7.514
 5049SOL     OW16985   1.069  10.044   3.265
 5049SOL    HW116986   1.159  10.040   3.298
 5049SOL    HW216987   1.075  10.008   3.176
 5050SOL     OW16988   9.498   4.708   5.609
 5050SOL    HW116989   9.534   4.629   5.570
 5050SOL    HW216990   9.429   4.676   5.668
 5051SOL     OW16991   1.898   1.824   3.436
 5051SOL    HW116992   1.917   1.812   3.344
 5051SOL    HW216993   1.982   1.846   3.476
 5052SOL     OW16994   4.464   4.391   7.836
 5052SOL    HW116995   4.489   4.311   7.790
 5052SOL    HW216996   4.448   4.454   7.766
 5053SOL     OW16997   5.151   2.175  14.643
 5053SOL    HW116998   5.149   2.083  14.670
 5053SOL    HW216999   5.243   2.198  14.640
 5054SOL     OW17000   1.696   5.274   8.821
 5054SOL    HW117001   1.780   5.319   8.832
 5054SOL    HW217002   1.633   5.345   8.806
 5055SOL     OW17003   6.400   6.725  13.885
 5055SOL    HW117004   6.378   6.798  13.826
 5055SOL    HW217005   6.470   6.679  13.839
 5056SOL     OW17006   3.998   5.218   3.489
 5056SOL    HW117007   3.974   5.249   3.401
 5056SOL    HW217008   4.007   5.298   3.540
 5057SOL     OW17009   8.610  11.669   7.587
 5057SOL    HW117010   8.517  11.672   7.610
 5057SOL    HW217011   8.613  11.624   7.503
 5058SOL     OW17012   5.628   0.487   6.727
 5058SOL    HW117013   5.536   0.482   6.700
 5058SOL    HW217014   5.639   0.415   6.789
 5059SOL     OW17015   6.697  10.652   7.578
 5059SOL    HW117016   6.672  10.562   7.599
 5059SOL    HW217017   6.789  10.646   7.555
 5060SOL     OW17018  10.705   8.570  13.943
 5060SOL    HW117019  10.710   8.503  13.875
 5060SOL    HW217020  10.672   8.647  13.898
 5061SOL     OW17021   5.167   5.947   8.929
 5061SOL    HW117022   5.185   5.870   8.874
 5061SOL    HW217023   5.179   5.916   9.019
 5062SOL     OW17024   5.391   8.449  12.117
 5062SOL    HW117025   5.461   8.387  12.096
 5062SOL    HW217026   5.322   8.429  12.053
 5063SOL     OW17027   0.710  11.282  10.318
 5063SOL    HW117028   0.693  11.370  10.351
 5063SOL    HW217029   0.696  11.225  10.394
 5064SOL     OW17030   7.338   8.335   4.825
 5064SOL    HW117031   7.303   8.288   4.900
 5064SOL    HW217032   7.289   8.300   4.750
 5065SOL     OW17033  11.807  11.051   0.041
 5065SOL    HW117034  11.900  11.075   0.037
 5065SOL    HW217035  11.801  10.991   0.115
 5066SOL     OW17036   8.255  13.983   1.528
 5066SOL    HW117037   8.177  13.935   1.556
 5066SOL    HW217038   8.323  13.915   1.519
 5067SOL     OW17039   7.796   9.644   3.771
 5067SOL    HW117040   7.868   9.676   3.825
 5067SOL    HW217041   7.822   9.666   3.681
 5068SOL     OW17042  10.909  11.332   9.619
 5068SOL    HW117043  10.917  11.426   9.634
 5068SOL    HW217044  10.842  11.324   9.550
 5069SOL     OW17045   8.023  12.588  13.619
 5069SOL    HW117046   8.085  12.516  13.608
 5069SOL    HW217047   7.958  12.574  13.550
 5070SOL     OW17048   3.013   5.180   8.480
 5070SOL    HW117049   3.060   5.099   8.459
 5070SOL    HW217050   2.950   5.191   8.409
 5071SOL     OW17051  11.565   0.862  14.483
 5071SOL    HW117052  11.547   0.792  14.546
 5071SOL    HW217053  11.548   0.823  14.398
 5072SOL     OW17054   4.357   2.720  14.738
 5072SOL    HW117055   4.360   2.700  14.645
 5072SOL    HW217056   4.447   2.710  14.769
 5073SOL     OW17057   3.418   0.074   3.705
 5073SOL    HW117058   3.486   0.054   3.641
 5073SOL    HW217059   3.368  14.867   3.713
 5074SOL     OW17060   7.875  11.943   5.536
 5074SOL    HW117061   7.910  11.985   5.458
 5074SOL    HW217062   7.780  11.951   5.526
 5075SOL     OW17063   1.272   3.045   0.768
 5075SOL    HW117064   1.198   3.105   0.778
 5075SOL    HW217065   1.235   2.958   0.784
 5076SOL     OW17066   0.441   2.217   7.572
 5076SOL    HW117067   0.473   2.214   7.662
 5076SOL    HW217068   0.426   2.126   7.548
 5077SOL     OW17069   2.114   5.757   9.496
 5077SOL    HW117070   2.193   5.776   9.545
 5077SOL    HW217071   2.140   5.687   9.435
 5078SOL     OW17072   1.180   8.663   5.260
 5078SOL    HW117073   1.230   8.583   5.272
 5078SOL    HW217074   1.148   8.685   5.348
 5079SOL     OW17075  13.198   1.751  14.262
 5079SOL    HW117076  13.271   1.809  14.240
 5079SOL    HW217077  13.233   1.663  14.248
 5080SOL     OW17078  12.670  10.980   9.855
 5080SOL    HW117079  12.700  10.989   9.765
 5080SOL    HW217080  12.576  10.963   9.848
 5081SOL     OW17081   4.460   7.693   5.919
 5081SOL    HW117082   4.382   7.638   5.908
 5081SOL    HW217083   4.521   7.638   5.969
 5082SOL     OW17084   3.498  10.743  14.492
 5082SOL    HW117085   3.452  10.809  14.440
 5082SOL    HW217086   3.430  10.701  14.544
 5083SOL     OW17087  14.481  12.343   9.846
 5083SOL    HW117088  14.516  12.426   9.812
 5083SOL    HW217089  14.386  12.354   9.844
 5084SOL     OW17090  13.103   6.070   1.719
 5084SOL    HW117091  13.166   6.050   1.787
 5084SOL    HW217092  13.117   6.004   1.651
 5085SOL     OW17093  10.574   8.449   1.308
 5085SOL    HW117094  10.574   8.427   1.401
 5085SOL    HW217095  10.597   8.367   1.263
 5086SOL     OW17096   4.438   4.457   6.455
 5086SOL    HW117097   4.447   4.428   6.546
 5086SOL    HW217098   4.417   4.377   6.406
 5087SOL     OW17099   8.497   8.427   7.997
 5087SOL    HW117100   8.451   8.486   7.938
 5087SOL    HW217101   8.471   8.455   8.085
 5088SOL     OW17102   2.291   4.967   6.158
 5088SOL    HW117103   2.201   4.985   6.130
 5088SOL    HW217104   2.285   4.887   6.210
 5089SOL     OW17105   7.143   8.172   3.480
 5089SOL    HW117106   7.109   8.261   3.486
 5089SOL    HW217107   7.220   8.171   3.537
 5090SOL     OW17108   2.747   9.949  13.520
 5090SOL    HW117109   2.719  10.040  13.525
 5090SOL    HW217110   2.690   9.903  13.582
 5091SOL     OW17111   7.799   5.532   0.988
 5091SOL    HW117112   7.783   5.625   0.977
 5091SOL    HW217113   7.740   5.506   1.060
 5092SOL     OW17114   5.275   9.520   3.921
 5092SOL    HW117115   5.216   9.460   3.874
 5092SOL    HW217116   5.355   9.469   3.934
 5093SOL     OW17117   5.487  11.653   9.464
 5093SOL    HW117118   5.559  11.715   9.462
 5093SOL    HW217119   5.413  11.701   9.424
 5094SOL     OW17120   0.280   8.201  11.877
 5094SOL    HW117121   0.272   8.252  11.796
 5094SOL    HW217122   0.208   8.231  11.932
 5095SOL     OW17123   2.849   7.008   8.519
 5095SOL    HW117124   2.853   6.960   8.437
 5095SOL    HW217125   2.861   7.100   8.494
 5096SOL     OW17126   9.540  14.802   4.750
 5096SOL    HW117127   9.538  14.843   4.836
 5096SOL    HW217128   9.553  14.709   4.768
 5097SOL     OW17129   8.329  13.025   9.506
 5097SOL    HW117130   8.409  12.985   9.539
 5097SOL    HW217131   8.328  13.113   9.544
 5098SOL     OW17132   1.342   8.834   3.267
 5098SOL    HW117133   1.336   8.929   3.254
 5098SOL    HW217134   1.273   8.799   3.210
 5099SOL     OW17135   0.441  11.530   1.886
 5099SOL    HW117136   0.469  11.465   1.821
 5099SOL    HW217137   0.484  11.611   1.857
 5100SOL     OW17138   0.219   9.302   5.411
 5100SOL    HW117139   0.309   9.274   5.399
 5100SOL    HW217140   0.173   9.274   5.332
 5101SOL     OW17141   7.886  14.515  13.976
 5101SOL    HW117142   7.951  14.460  13.932
 5101SOL    HW217143   7.863  14.582  13.911
 5102SOL     OW17144  10.668   2.804  10.424
 5102SOL    HW117145  10.674   2.755  10.342
 5102SOL    HW217146  10.700   2.891  10.402
 5103SOL     OW17147  13.526   1.511  12.158
 5103SOL    HW117148  13.519   1.607  12.166
 5103SOL    HW217149  13.580   1.498  12.080
 5104SOL     OW17150  10.248   2.831   5.956
 5104SOL    HW117151  10.317   2.766   5.939
 5104SOL    HW217152  10.231   2.825   6.050
 5105SOL     OW17153   3.011   9.747   2.663
 5105SOL    HW117154   3.044   9.672   2.613
 5105SOL    HW217155   3.049   9.737   2.750
 5106SOL     OW17156  14.843  12.805   1.233
 5106SOL    HW117157  14.873  12.738   1.172
 5106SOL    HW217158  14.823  12.756   1.314
 5107SOL     OW17159  12.245   9.680   5.055
 5107SOL    HW117160  12.251   9.588   5.081
 5107SOL    HW217161  12.236   9.728   5.138
 5108SOL     OW17162  10.974  12.138   5.143
 5108SOL    HW117163  11.066  12.115   5.128
 5108SOL    HW217164  10.970  12.232   5.121
 5109SOL     OW17165  12.002   5.412   2.578
 5109SOL    HW117166  11.953   5.494   2.569
 5109SOL    HW217167  11.985   5.384   2.668
 5110SOL     OW17168   0.142   6.197   2.641
 5110SOL    HW117169   0.155   6.292   2.631
 5110SOL    HW217170   0.121   6.186   2.733
 5111SOL     OW17171  12.636   1.698   5.104
 5111SOL    HW117172  12.618   1.613   5.145
 5111SOL    HW217173  12.556   1.749   5.117
 5112SOL     OW17174  12.153  13.967   2.223
 5112SOL    HW117175  12.061  13.952   2.205
 5112SOL    HW217176  12.189  13.880   2.242
 5113SOL     OW17177   9.692   8.859  13.922
 5113SOL    HW117178   9.727   8.911  13.850
 5113SOL    HW217179   9.603   8.891  13.934
 5114SOL     OW17180  13.311  13.573   2.965
 5114SOL    HW117181  13.241  13.601   2.906
 5114SOL    HW217182  13.297  13.625   3.044
 5115SOL     OW17183   9.215  10.832   2.271
 5115SOL    HW117184   9.197  10.925   2.257
 5115SOL    HW217185   9.147  10.786   2.221
 5116SOL     OW17186   9.684   9.825  10.885
 5116SOL    HW117187   9.609   9.799  10.832
 5116SOL    HW217188   9.761   9.806  10.831
 5117SOL     OW17189   4.916   6.581   8.044
 5117SOL    HW117190   4.940   6.489   8.035
 5117SOL    HW217191   4.996   6.629   8.022
 5118SOL     OW17192   8.961  10.280   8.437
 5118SOL    HW117193   8.990  10.368   8.415
 5118SOL    HW217194   8.968  10.230   8.356
 5119SOL     OW17195   8.479   6.046  10.027
 5119SOL    HW117196   8.398   6.009   9.992
 5119SOL    HW217197   8.460   6.059  10.120
 5120SOL     OW17198   4.523   8.071  13.902
 5120SOL    HW117199   4.451   8.069  13.839
 5120SOL    HW217200   4.572   7.990  13.886
 5121SOL     OW17201   3.527  13.562   0.276
 5121SOL    HW117202   3.523  13.522   0.189
 5121SOL    HW217203   3.600  13.624   0.270
 5122SOL     OW17204  10.748  10.199   9.834
 5122SOL    HW117205  10.814  10.268   9.829
 5122SOL    HW217206  10.713  10.206   9.923
 5123SOL     OW17207   0.586   7.019  13.038
 5123SOL    HW117208   0.554   7.107  13.055
 5123SOL    HW217209   0.681   7.026  13.042
 5124SOL     OW17210  12.125   7.177   9.778
 5124SOL    HW117211  12.173   7.109   9.731
 5124SOL    HW217212  12.118   7.144   9.868
 5125SOL     OW17213   2.583  11.749   9.502
 5125SOL    HW117214   2.655  11.686   9.493
 5125SOL    HW217215   2.627  11.833   9.511
 5126SOL     OW17216  14.424   7.278   6.010
 5126SOL    HW117217  14.409   7.342   5.940
 5126SOL    HW217218  14.353   7.215   6.000
 5127SOL     OW17219   0.922   6.326  11.861
 5127SOL    HW117220   0.854   6.355  11.801
 5127SOL    HW217221   1.003   6.361  11.824
 5128SOL     OW17222   9.088   5.122   6.171
 5128SOL    HW117223   9.103   5.217   6.171
 5128SOL    HW217224   9.054   5.104   6.259
 5129SOL     OW17225   3.891   9.851  14.708
 5129SOL    HW117226   3.860   9.879  14.622
 5129SOL    HW217227   3.816   9.865  14.766
 5130SOL     OW17228  12.908   1.891   2.354
 5130SOL    HW117229  12.942   1.926   2.271
 5130SOL    HW217230  12.882   1.801   2.332
 5131SOL     OW17231  13.454   4.006   8.577
 5131SOL    HW117232  13.401   3.956   8.516
 5131SOL    HW217233  13.510   3.941   8.620
 5132SOL     OW17234   2.244   4.503   7.825
 5132SOL    HW117235   2.188   4.499   7.748
 5132SOL    HW217236   2.191   4.465   7.895
 5133SOL     OW17237   7.962   9.449   3.661
 5133SOL    HW117238   7.884   9.460   3.715
 5133SOL    HW217239   8.032   9.425   3.722
 5134SOL     OW17240   6.627  11.691   1.226
 5134SOL    HW117241   6.540  11.681   1.263
 5134SOL    HW217242   6.676  11.615   1.260
 5135SOL     OW17243   7.598  13.210   0.508
 5135SOL    HW117244   7.559  13.143   0.452
 5135SOL    HW217245   7.635  13.274   0.447
 5136SOL     OW17246  11.275   2.174  11.383
 5136SOL    HW117247  11.328   2.226  11.444
 5136SOL    HW217248  11.202   2.231  11.359
 5137SOL     OW17249  12.731  14.296  11.231
 5137SOL    HW117250  12.775  14.360  11.288
 5137SOL    HW217251  12.801  14.254  11.183
 5138SOL     OW17252   4.326  12.695   0.005
 5138SOL    HW117253   4.421  12.692   0.016
 5138SOL    HW217254   4.313  12.754  14.805
 5139SOL     OW17255   7.991   3.890   6.130
 5139SOL    HW117256   7.945   3.809   6.108
 5139SOL    HW217257   8.081   3.875   6.100
 5140SOL     OW17258   3.749   7.042  12.208
 5140SOL    HW117259   3.788   7.074  12.289
 5140SOL    HW217260   3.813   7.065  12.140
 5141SOL     OW17261   6.330  13.871   9.086
 5141SOL    HW117262   6.392  13.798   9.086
 5141SOL    HW217263   6.316  13.890   8.993
 5142SOL     OW17264  10.032  12.110   6.735
 5142SOL    HW117265  10.086  12.189   6.722
 5142SOL    HW217266  10.090  12.038   6.711
 5143SOL     OW17267   9.584  11.000   4.341
 5143SOL    HW117268   9.505  10.992   4.288
 5143SOL    HW217269   9.623  10.913   4.340
 5144SOL     OW17270  10.038  11.327   4.574
 5144SOL    HW117271  10.052  11.300   4.665
 5144SOL    HW217272  10.014  11.419   4.580
 5145SOL     OW17273  13.139   0.496  10.735
 5145SOL    HW117274  13.213   0.462  10.784
 5145SOL    HW217275  13.074   0.426  10.737
 5146SOL     OW17276   7.724   9.279  11.652
 5146SOL    HW117277   7.648   9.283  11.710
 5146SOL    HW217278   7.696   9.224  11.579
 5147SOL     OW17279  12.567  11.306   3.850
 5147SOL    HW117280  12.532  11.241   3.911
 5147SOL    HW217281  12.513  11.296   3.771
 5148SOL     OW17282   7.274   5.155   9.200
 5148SOL    HW117283   7.251   5.247   9.186
 5148SOL    HW217284   7.363   5.147   9.168
 5149SOL     OW17285  10.806   0.710   0.383
 5149SOL    HW117286  10.732   0.650   0.374
 5149SOL    HW217287  10.800   0.768   0.307
 5150SOL     OW17288   9.504   7.740   2.026
 5150SOL    HW117289   9.436   7.676   2.048
 5150SOL    HW217290   9.497   7.806   2.096
 5151SOL     OW17291   2.798   3.956  13.652
 5151SOL    HW117292   2.723   3.971  13.710
 5151SOL    HW217293   2.760   3.922  13.571
 5152SOL     OW17294   2.589   5.865   4.068
 5152SOL    HW117295   2.644   5.908   4.004
 5152SOL    HW217296   2.501   5.867   4.030
 5153SOL     OW17297   6.589   4.578   2.622
 5153SOL    HW117298   6.673   4.560   2.664
 5153SOL    HW217299   6.612   4.620   2.538
 5154SOL     OW17300   5.437   9.141   4.214
 5154SOL    HW117301   5.368   9.168   4.275
 5154SOL    HW217302   5.418   9.049   4.195
 5155SOL     OW17303   8.764   1.438   6.771
 5155SOL    HW117304   8.699   1.490   6.722
 5155SOL    HW217305   8.781   1.363   6.715
 5156SOL     OW17306   6.293  10.022   7.610
 5156SOL    HW117307   6.308  10.113   7.586
 5156SOL    HW217308   6.319   9.972   7.532
 5157SOL     OW17309   1.938  12.959  11.298
 5157SOL    HW117310   1.872  12.921  11.239
 5157SOL    HW217311   1.923  13.053  11.294
 5158SOL     OW17312   2.809  11.644  13.830
 5158SOL    HW117313   2.739  11.588  13.797
 5158SOL    HW217314   2.874  11.584  13.864
 5159SOL     OW17315   6.105  10.460  11.903
 5159SOL    HW117316   6.017  10.423  11.903
 5159SOL    HW217317   6.148  10.420  11.827
 5160SOL     OW17318  10.412   7.818  14.798
 5160SOL    HW117319  10.467   7.896  14.787
 5160SOL    HW217320  10.324   7.847  14.775
 5161SOL     OW17321  14.332   6.419   5.735
 5161SOL    HW117322  14.362   6.375   5.656
 5161SOL    HW217323  14.254   6.370   5.761
 5162SOL     OW17324   2.803   2.801  14.676
 5162SOL    HW117325   2.896   2.789  14.697
 5162SOL    HW217326   2.793   2.896  14.667
 5163SOL     OW17327   2.506   9.431  14.227
 5163SOL    HW117328   2.522   9.362  14.291
 5163SOL    HW217329   2.480   9.385  14.147
 5164SOL     OW17330   1.573   3.400  13.417
 5164SOL    HW117331   1.615   3.452  13.348
 5164SOL    HW217332   1.636   3.403  13.489
 5165SOL     OW17333   0.851  12.270   7.622
 5165SOL    HW117334   0.915  12.271   7.551
 5165SOL    HW217335   0.829  12.178   7.633
 5166SOL     OW17336   1.090   1.047   1.053
 5166SOL    HW117337   1.024   1.040   0.985
 5166SOL    HW217338   1.099   1.142   1.067
 5167SOL     OW17339   5.030  12.418   3.224
 5167SOL    HW117340   4.980  12.500   3.221
 5167SOL    HW217341   5.093  12.431   3.294
 5168SOL     OW17342  11.607   7.995  10.572
 5168SOL    HW117343  11.525   7.946  10.578
 5168SOL    HW217344  11.595   8.070  10.629
 5169SOL     OW17345   5.372   1.118   6.776
 5169SOL    HW117346   5.443   1.072   6.821
 5169SOL    HW217347   5.400   1.122   6.685
 5170SOL     OW17348   9.736  13.989  11.226
 5170SOL    HW117349   9.696  14.075  11.216
 5170SOL    HW217350   9.664  13.931  11.250
 5171SOL     OW17351   6.432   9.836   6.462
 5171SOL    HW117352   6.465   9.747   6.478
 5171SOL    HW217353   6.510   9.888   6.446
 5172SOL     OW17354  12.183   7.135   2.599
 5172SOL    HW117355  12.144   7.062   2.551
 5172SOL    HW217356  12.130   7.212   2.574
 5173SOL     OW17357   5.687   9.917  12.275
 5173SOL    HW117358   5.635   9.869  12.210
 5173SOL    HW217359   5.724   9.850  12.332
 5174SOL     OW17360  13.384   2.539  10.852
 5174SOL    HW117361  13.331   2.481  10.906
 5174SOL    HW217362  13.475   2.513  10.870
 5175SOL     OW17363   3.671   4.040   7.248
 5175SOL    HW117364   3.691   3.947   7.254
 5175SOL    HW217365   3.576   4.043   7.239
 5176SOL     OW17366  12.488   2.952   9.726
 5176SOL    HW117367  12.516   2.941   9.817
 5176SOL    HW217368  12.465   2.864   9.698
 5177SOL     OW17369   6.776   4.432  10.323
 5177SOL    HW117370   6.705   4.395  10.270
 5177SOL    HW217371   6.749   4.522  10.340
 5178SOL     OW17372   6.264   8.371   9.120
 5178SOL    HW117373   6.339   8.332   9.076
 5178SOL    HW217374   6.292   8.383   9.211
 5179SOL     OW17375   4.939   2.622  11.562
 5179SOL    HW117376   4.884   2.551  11.594
 5179SOL    HW217377   4.885   2.668  11.498
 5180SOL     OW17378   1.478  12.485  11.153
 5180SOL    HW117379   1.410  12.524  11.206
 5180SOL    HW217380   1.434  12.418  11.101
 5181SOL     OW17381   4.196  13.847   9.178
 5181SOL    HW117382   4.217  13.824   9.268
 5181SOL    HW217383   4.281  13.860   9.136
 5182SOL     OW17384   3.885   1.790   5.488
 5182SOL    HW117385   3.926   1.824   5.409
 5182SOL    HW217386   3.953   1.735   5.529
 5183SOL     OW17387  13.382  13.249  12.852
 5183SOL    HW117388  13.465  13.206  12.873
 5183SOL    HW217389  13.347  13.277  12.936
 5184SOL     OW17390   0.015  14.540   5.919
 5184SOL    HW117391   0.097  14.545   5.868
 5184SOL    HW217392   0.004  14.447   5.938
 5185SOL     OW17393   7.130   5.658   3.395
 5185SOL    HW117394   7.179   5.713   3.333
 5185SOL    HW217395   7.126   5.573   3.352
 5186SOL     OW17396   0.138   0.086   2.156
 5186SOL    HW117397   0.068   0.106   2.219
 5186SOL    HW217398   0.151  14.866   2.165
 5187SOL     OW17399  10.892   6.233   0.243
 5187SOL    HW117400  10.805   6.198   0.263
 5187SOL    HW217401  10.892   6.243   0.148
 5188SOL     OW17402   6.233  10.262   7.488
 5188SOL    HW117403   6.221  10.206   7.411
 5188SOL    HW217404   6.290  10.333   7.457
 5189SOL     OW17405  14.502   5.951   7.360
 5189SOL    HW117406  14.595   5.966   7.379
 5189SOL    HW217407  14.459   6.034   7.383
 5190SOL     OW17408   0.016   1.301  13.083
 5190SOL    HW117409  14.821   1.236  13.083
 5190SOL    HW217410  14.856   1.373  13.029
 5191SOL     OW17411   8.394   8.481   5.369
 5191SOL    HW117412   8.360   8.394   5.390
 5191SOL    HW217413   8.332   8.516   5.305
 5192SOL     OW17414   8.351   4.765  11.033
 5192SOL    HW117415   8.423   4.828  11.029
 5192SOL    HW217416   8.387   4.690  11.080
 5193SOL     OW17417   2.072   9.950   8.778
 5193SOL    HW117418   2.113  10.021   8.729
 5193SOL    HW217419   2.141   9.918   8.836
 5194SOL     OW17420   8.468  12.235   6.517
 5194SOL    HW117421   8.527  12.195   6.581
 5194SOL    HW217422   8.385  12.188   6.528
 5195SOL     OW17423   7.124   6.136   9.622
 5195SOL    HW117424   7.128   6.135   9.526
 5195SOL    HW217425   7.209   6.171   9.649
 5196SOL     OW17426  12.781   0.680   1.893
 5196SOL    HW117427  12.765   0.669   1.799
 5196SOL    HW217428  12.831   0.602   1.918
 5197SOL     OW17429   1.342   6.984   9.518
 5197SOL    HW117430   1.306   6.976   9.606
 5197SOL    HW217431   1.378   6.897   9.498
 5198SOL     OW17432   4.701   6.771   7.213
 5198SOL    HW117433   4.690   6.689   7.164
 5198SOL    HW217434   4.618   6.817   7.200
 5199SOL     OW17435  11.539   1.530  11.283
 5199SOL    HW117436  11.444   1.524  11.270
 5199SOL    HW217437  11.549   1.563  11.372
 5200SOL     OW17438   6.984   1.541   3.622
 5200SOL    HW117439   7.078   1.552   3.634
 5200SOL    HW217440   6.956   1.494   3.701
 5201SOL     OW17441  11.894   6.249   2.394
 5201SOL    HW117442  11.888   6.256   2.298
 5201SOL    HW217443  11.816   6.296   2.426
 5202SOL     OW17444   8.911   8.188   3.644
 5202SOL    HW117445   8.993   8.141   3.630
 5202SOL    HW217446   8.892   8.177   3.737
 5203SOL     OW17447   9.817   5.711   0.968
 5203SOL    HW117448   9.805   5.761   1.049
 5203SOL    HW217449   9.781   5.625   0.988
 5204SOL     OW17450   0.018   9.933   7.416
 5204SOL    HW117451  14.850   9.935   7.502
 5204SOL    HW217452   0.030  10.026   7.393
 5205SOL     OW17453   0.823   2.897  13.505
 5205SOL    HW117454   0.876   2.956  13.451
 5205SOL    HW217455   0.795   2.828  13.444
 5206SOL     OW17456   7.601  13.945  10.883
 5206SOL    HW117457   7.565  13.971  10.799
 5206SOL    HW217458   7.612  14.028  10.931
 5207SOL     OW17459   3.118   8.388  10.956
 5207SOL    HW117460   3.100   8.347  11.041
 5207SOL    HW217461   3.072   8.333  10.893
 5208SOL     OW17462   6.971  13.909   7.540
 5208SOL    HW117463   6.988  13.900   7.447
 5208SOL    HW217464   7.014  13.991   7.565
 5209SOL     OW17465  11.242  13.281   1.271
 5209SOL    HW117466  11.171  13.321   1.319
 5209SOL    HW217467  11.201  13.212   1.219
 5210SOL     OW17468  14.241  11.447  12.274
 5210SOL    HW117469  14.221  11.363  12.316
 5210SOL    HW217470  14.243  11.427  12.181
 5211SOL     OW17471   5.592   0.000   4.953
 5211SOL    HW117472   5.610   0.061   4.881
 5211SOL    HW217473   5.641  14.795   4.930
 5212SOL     OW17474   7.784   6.227   1.609
 5212SOL    HW117475   7.842   6.152   1.620
 5212SOL    HW217476   7.841   6.299   1.582
 5213SOL     OW17477   8.346   3.159   9.628
 5213SOL    HW117478   8.277   3.096   9.649
 5213SOL    HW217479   8.423   3.127   9.676
 5214SOL     OW17480   2.309   0.756   7.543
 5214SOL    HW117481   2.216   0.737   7.544
 5214SOL    HW217482   2.319   0.822   7.474
 5215SOL     OW17483  12.371   3.822   7.109
 5215SOL    HW117484  12.438   3.762   7.075
 5215SOL    HW217485  12.419   3.883   7.165
 5216SOL     OW17486  11.983   2.613   6.272
 5216SOL    HW117487  11.895   2.650   6.280
 5216SOL    HW217488  12.003   2.619   6.178
 5217SOL     OW17489  11.204  13.244   6.270
 5217SOL    HW117490  11.255  13.226   6.349
 5217SOL    HW217491  11.270  13.257   6.201
 5218SOL     OW17492  11.755  11.002   5.731
 5218SOL    HW117493  11.805  11.002   5.650
 5218SOL    HW217494  11.757  10.911   5.761
 5219SOL     OW17495  14.358   4.850   6.357
 5219SOL    HW117496  14.346   4.929   6.304
 5219SOL    HW217497  14.369   4.883   6.446
 5220SOL     OW17498  12.370  10.954  10.361
 5220SOL    HW117499  12.383  10.918  10.449
 5220SOL    HW217500  12.380  10.879  10.303
 5221SOL     OW17501   8.287   3.013   4.543
 5221SOL    HW117502   8.338   2.958   4.602
 5221SOL    HW217503   8.345   3.029   4.469
 5222SOL     OW17504   8.129  14.131  12.124
 5222SOL    HW117505   8.042  14.092  12.111
 5222SOL    HW217506   8.122  14.179  12.206
 5223SOL     OW17507   1.104   1.974   4.882
 5223SOL    HW117508   1.118   2.056   4.930
 5223SOL    HW217509   1.011   1.955   4.893
 5224SOL     OW17510   9.870  10.516  10.041
 5224SOL    HW117511   9.860  10.611  10.037
 5224SOL    HW217512   9.900  10.491   9.954
 5225SOL     OW17513   0.090  11.598   4.077
 5225SOL    HW117514   0.135  11.563   4.000
 5225SOL    HW217515   0.157  11.650   4.122
 5226SOL     OW17516   4.909  14.207  12.362
 5226SOL    HW117517   4.971  14.210  12.289
 5226SOL    HW217518   4.824  14.225  12.321
 5227SOL     OW17519  10.297  10.496   1.139
 5227SOL    HW117520  10.204  10.478   1.155
 5227SOL    HW217521  10.303  10.505   1.044
 5228SOL     OW17522  11.927   3.015   1.607
 5228SOL    HW117523  11.845   3.021   1.657
 5228SOL    HW217524  11.954   2.924   1.615
 5229SOL     OW17525  12.443  11.121   2.573
 5229SOL    HW117526  12.475  11.089   2.489
 5229SOL    HW217527  12.385  11.051   2.604
 5230SOL     OW17528  12.509  14.175  12.732
 5230SOL    HW117529  12.453  14.101  12.754
 5230SOL    HW217530  12.489  14.241  12.798
 5231SOL     OW17531   6.404   0.301   7.758
 5231SOL    HW117532   6.363   0.379   7.721
 5231SOL    HW217533   6.393   0.311   7.853
 5232SOL     OW17534   4.465  13.916   6.244
 5232SOL    HW117535   4.500  13.828   6.230
 5232SOL    HW217536   4.447  13.920   6.338
 5233SOL     OW17537   8.330  12.128  12.098
 5233SOL    HW117538   8.360  12.189  12.166
 5233SOL    HW217539   8.340  12.042  12.138
 5234SOL     OW17540   3.024   3.008  13.034
 5234SOL    HW117541   3.098   3.068  13.038
 5234SOL    HW217542   2.987   3.021  12.947
 5235SOL     OW17543  11.771   3.756   3.618
 5235SOL    HW117544  11.693   3.761   3.673
 5235SOL    HW217545  11.843   3.783   3.675
 5236SOL     OW17546   7.364   6.264   2.531
 5236SOL    HW117547   7.425   6.207   2.484
 5236SOL    HW217548   7.411   6.347   2.542
 5237SOL     OW17549   5.374   8.653   5.415
 5237SOL    HW117550   5.372   8.560   5.435
 5237SOL    HW217551   5.290   8.672   5.373
 5238SOL     OW17552  13.703  14.314   5.650
 5238SOL    HW117553  13.633  14.375   5.624
 5238SOL    HW217554  13.753  14.299   5.570
 5239SOL     OW17555   0.205   8.532   6.724
 5239SOL    HW117556   0.165   8.561   6.642
 5239SOL    HW217557   0.167   8.589   6.790
 5240SOL     OW17558  13.995  11.230  11.578
 5240SOL    HW117559  13.974  11.138  11.564
 5240SOL    HW217560  13.947  11.254  11.657
 5241SOL     OW17561   8.019   6.248  10.976
 5241SOL    HW117562   7.955   6.289  11.034
 5241SOL    HW217563   8.075   6.198  11.036
 5242SOL     OW17564  10.980  14.012   8.574
 5242SOL    HW117565  11.072  13.985   8.578
 5242SOL    HW217566  10.940  13.970   8.650
 5243SOL     OW17567   4.343  10.481   3.099
 5243SOL    HW117568   4.421  10.434   3.068
 5243SOL    HW217569   4.311  10.428   3.171
 5244SOL     OW17570   5.514  13.581   8.807
 5244SOL    HW117571   5.440  13.554   8.861
 5244SOL    HW217572   5.476  13.595   8.720
 5245SOL     OW17573  12.506   8.954  12.236
 5245SOL    HW117574  12.471   9.017  12.172
 5245SOL    HW217575  12.429   8.923  12.284
 5246SOL     OW17576   7.740   3.132   4.339
 5246SOL    HW117577   7.797   3.132   4.261
 5246SOL    HW217578   7.690   3.050   4.331
 5247SOL     OW17579   8.986   1.567  13.868
 5247SOL    HW117580   8.973   1.483  13.910
 5247SOL    HW217581   8.988   1.547  13.774
 5248SOL     OW17582   8.498   9.314   0.076
 5248SOL    HW117583   8.488   9.374   0.002
 5248SOL    HW217584   8.496   9.371   0.153
 5249SOL     OW17585  14.345  13.420  11.442
 5249SOL    HW117586  14.356  13.490  11.377
 5249SOL    HW217587  14.314  13.345  11.391
 5250SOL     OW17588  13.202  12.901   2.354
 5250SOL    HW117589  13.241  12.823   2.315
 5250SOL    HW217590  13.108  12.881   2.357
 5251SOL     OW17591   8.105   2.250   9.023
 5251SOL    HW117592   8.147   2.334   9.043
 5251SOL    HW217593   8.013   2.264   9.047
 5252SOL     OW17594   4.579   5.572   9.122
 5252SOL    HW117595   4.651   5.592   9.183
 5252SOL    HW217596   4.568   5.652   9.071
 5253SOL     OW17597   4.340   8.326   1.555
 5253SOL    HW117598   4.422   8.369   1.532
 5253SOL    HW217599   4.300   8.383   1.621
 5254SOL     OW17600   6.711  10.153  11.669
 5254SOL    HW117601   6.664  10.079  11.707
 5254SOL    HW217602   6.668  10.231  11.704
 5255SOL     OW17603  10.759   1.076   9.289
 5255SOL    HW117604  10.727   1.064   9.199
 5255SOL    HW217605  10.854   1.065   9.282
 5256SOL     OW17606  11.078   7.006   9.590
 5256SOL    HW117607  11.142   6.941   9.620
 5256SOL    HW217608  10.998   6.985   9.639
 5257SOL     OW17609   3.646   4.100   8.700
 5257SOL    HW117610   3.583   4.051   8.649
 5257SOL    HW217611   3.731   4.064   8.675
 5258SOL     OW17612  13.803   3.511   1.350
 5258SOL    HW117613  13.870   3.479   1.290
 5258SOL    HW217614  13.830   3.600   1.372
 5259SOL     OW17615   7.431   6.593   9.824
 5259SOL    HW117616   7.383   6.675   9.811
 5259SOL    HW217617   7.372   6.540   9.879
 5260SOL     OW17618   8.489   8.516   0.939
 5260SOL    HW117619   8.452   8.563   1.014
 5260SOL    HW217620   8.568   8.474   0.973
 5261SOL     OW17621   8.476   7.212   4.278
 5261SOL    HW117622   8.392   7.234   4.237
 5261SOL    HW217623   8.476   7.261   4.360
 5262SOL     OW17624   1.532   0.158  10.003
 5262SOL    HW117625   1.556   0.184  10.092
 5262SOL    HW217626   1.445   0.195   9.989
 5263SOL     OW17627  10.335   5.280   8.637
 5263SOL    HW117628  10.333   5.376   8.627
 5263SOL    HW217629  10.301   5.265   8.725
 5264SOL     OW17630   6.660  11.176   3.603
 5264SOL    HW117631   6.566  11.168   3.623
 5264SOL    HW217632   6.669  11.265   3.568
 5265SOL     OW17633   5.080   9.844   4.295
 5265SOL    HW117634   5.002   9.899   4.303
 5265SOL    HW217635   5.152   9.905   4.287
 5266SOL     OW17636   3.297   1.310  13.221
 5266SOL    HW117637   3.308   1.389  13.169
 5266SOL    HW217638   3.279   1.241  13.156
 5267SOL     OW17639   4.380   6.337   0.259
 5267SOL    HW117640   4.437   6.387   0.318
 5267SOL    HW217641   4.302   6.391   0.249
 5268SOL     OW17642   0.786  11.507  14.786
 5268SOL    HW117643   0.760  11.481  14.698
 5268SOL    HW217644   0.743  11.443  14.844
 5269SOL     OW17645  14.268   0.479   4.631
 5269SOL    HW117646  14.208   0.422   4.583
 5269SOL    HW217647  14.350   0.430   4.636
 5270SOL     OW17648   3.982   1.850   4.027
 5270SOL    HW117649   3.951   1.923   4.082
 5270SOL    HW217650   3.959   1.771   4.077
 5271SOL     OW17651   0.864  14.867  10.272
 5271SOL    HW117652   0.925  14.807  10.314
 5271SOL    HW217653   0.837  14.822  10.192
 5272SOL     OW17654  10.007  13.604  12.320
 5272SOL    HW117655   9.988  13.563  12.405
 5272SOL    HW217656  10.068  13.544  12.278
 5273SOL     OW17657   0.584  11.304  13.809
 5273SOL    HW117658   0.576  11.363  13.885
 5273SOL    HW217659   0.550  11.355  13.736
 5274SOL     OW17660   3.088   8.824   8.355
 5274SOL    HW117661   3.096   8.729   8.366
 5274SOL    HW217662   3.074   8.836   8.261
 5275SOL     OW17663  14.243  11.163   9.638
 5275SOL    HW117664  14.175  11.210   9.686
 5275SOL    HW217665  14.318  11.164   9.697
 5276SOL     OW17666  14.458   9.943   3.699
 5276SOL    HW117667  14.379   9.996   3.694
 5276SOL    HW217668  14.508   9.968   3.621
 5277SOL     OW17669  14.813   5.446   9.953
 5277SOL    HW117670  14.821   5.366  10.005
 5277SOL    HW217671  14.738   5.491   9.990
 5278SOL     OW17672   4.249  14.682   8.096
 5278SOL    HW117673   4.289  14.680   8.183
 5278SOL    HW217674   4.318  14.715   8.039
 5279SOL     OW17675   6.543   3.812   2.424
 5279SOL    HW117676   6.473   3.751   2.445
 5279SOL    HW217677   6.503   3.875   2.364
 5280SOL     OW17678   7.626   1.385  13.386
 5280SOL    HW117679   7.676   1.320  13.337
 5280SOL    HW217680   7.636   1.466  13.336
 5281SOL     OW17681   3.854   7.139   1.140
 5281SOL    HW117682   3.803   7.194   1.081
 5281SOL    HW217683   3.789   7.088   1.189
 5282SOL     OW17684   5.398   2.197   3.960
 5282SOL    HW117685   5.319   2.246   3.983
 5282SOL    HW217686   5.459   2.264   3.928
 5283SOL     OW17687  10.373   1.921   8.002
 5283SOL    HW117688  10.459   1.896   7.968
 5283SOL    HW217689  10.324   1.949   7.925
 5284SOL     OW17690   8.370   3.466   3.918
 5284SOL    HW117691   8.444   3.455   3.977
 5284SOL    HW217692   8.324   3.544   3.951
 5285SOL     OW17693  11.020  11.819   8.051
 5285SOL    HW117694  11.039  11.768   8.130
 5285SOL    HW217695  11.093  11.881   8.045
 5286SOL     OW17696   3.490   2.083   6.723
 5286SOL    HW117697   3.532   2.121   6.645
 5286SOL    HW217698   3.500   1.989   6.712
 5287SOL     OW17699   2.883   7.996   2.171
 5287SOL    HW117700   2.841   8.074   2.207
 5287SOL    HW217701   2.832   7.975   2.093
 5288SOL     OW17702  12.197   6.529   2.440
 5288SOL    HW117703  12.108   6.563   2.432
 5288SOL    HW217704  12.248   6.602   2.476
 5289SOL     OW17705   8.886   5.749   3.091
 5289SOL    HW117706   8.877   5.717   3.181
 5289SOL    HW217707   8.976   5.779   3.085
 5290SOL     OW17708   8.126   6.703   8.798
 5290SOL    HW117709   8.059   6.642   8.830
 5290SOL    HW217710   8.154   6.666   8.714
 5291SOL     OW17711   1.922  12.177  11.038
 5291SOL    HW117712   2.014  12.159  11.020
 5291SOL    HW217713   1.921  12.210  11.128
 5292SOL     OW17714  11.323   6.550   2.979
 5292SOL    HW117715  11.257   6.615   2.951
 5292SOL    HW217716  11.289   6.516   3.062
 5293SOL     OW17717   4.067   9.755  13.767
 5293SOL    HW117718   4.123   9.775  13.842
 5293SOL    HW217719   4.128   9.750  13.693
 5294SOL     OW17720   8.349   5.609  12.463
 5294SOL    HW117721   8.325   5.516  12.459
 5294SOL    HW217722   8.442   5.611  12.442
 5295SOL     OW17723   5.511   4.019   7.381
 5295SOL    HW117724   5.483   4.108   7.405
 5295SOL    HW217725   5.562   3.989   7.456
 5296SOL     OW17726  13.281   0.670   7.251
 5296SOL    HW117727  13.210   0.640   7.308
 5296SOL    HW217728  13.306   0.592   7.202
 5297SOL     OW17729   2.922   5.144   2.839
 5297SOL    HW117730   3.005   5.148   2.793
 5297SOL    HW217731   2.858   5.178   2.777
 5298SOL     OW17732   0.463  14.148   9.836
 5298SOL    HW117733   0.450  14.063   9.795
 5298SOL    HW217734   0.406  14.148   9.912
 5299SOL     OW17735  12.991   2.443  12.085
 5299SOL    HW117736  12.940   2.415  12.010
 5299SOL    HW217737  12.981   2.539  12.087
 5300SOL     OW17738  12.797   8.300  14.076
 5300SOL    HW117739  12.857   8.226  14.074
 5300SOL    HW217740  12.822   8.349  14.154
 5301SOL     OW17741   1.341  12.418   0.844
 5301SOL    HW117742   1.319  12.509   0.865
 5301SOL    HW217743   1.331  12.412   0.749
 5302SOL     OW17744  12.952   2.884  10.586
 5302SOL    HW117745  12.962   2.801  10.633
 5302SOL    HW217746  12.909   2.859  10.504
 5303SOL     OW17747  10.828   8.879   1.938
 5303SOL    HW117748  10.818   8.827   2.018
 5303SOL    HW217749  10.784   8.961   1.957
 5304SOL     OW17750   7.792  11.503   8.587
 5304SOL    HW117751   7.820  11.443   8.518
 5304SOL    HW217752   7.839  11.473   8.665
 5305SOL     OW17753   5.636   0.835   9.708
 5305SOL    HW117754   5.714   0.782   9.690
 5305SOL    HW217755   5.578   0.775   9.755
 5306SOL     OW17756   7.913   3.397  13.221
 5306SOL    HW117757   7.897   3.395  13.315
 5306SOL    HW217758   7.966   3.319  13.204
 5307SOL     OW17759  13.156   4.173   9.973
 5307SOL    HW117760  13.196   4.202   9.891
 5307SOL    HW217761  13.093   4.106   9.947
 5308SOL     OW17762   4.516   5.962   6.964
 5308SOL    HW117763   4.502   5.992   6.874
 5308SOL    HW217764   4.454   6.014   7.016
 5309SOL     OW17765   5.059   9.770   1.962
 5309SOL    HW117766   5.013   9.686   1.965
 5309SOL    HW217767   5.148   9.749   1.990
 5310SOL     OW17768   9.595  13.500   7.328
 5310SOL    HW117769   9.638  13.582   7.354
 5310SOL    HW217770   9.665  13.434   7.332
 5311SOL     OW17771   9.967   2.965   0.900
 5311SOL    HW117772   9.931   3.051   0.878
 5311SOL    HW217773   9.919   2.904   0.844
 5312SOL     OW17774   8.963   7.836  11.690
 5312SOL    HW117775   8.929   7.854  11.603
 5312SOL    HW217776   8.892   7.863  11.749
 5313SOL     OW17777  14.767  14.815  13.350
 5313SOL    HW117778  14.855  14.847  13.372
 5313SOL    HW217779  14.776  14.720  13.347
 5314SOL     OW17780  14.842  13.798  13.141
 5314SOL    HW117781   0.062  13.810  13.136
 5314SOL    HW217782  14.827  13.707  13.116
 5315SOL     OW17783   3.183  13.088   5.050
 5315SOL    HW117784   3.093  13.080   5.083
 5315SOL    HW217785   3.194  13.182   5.037
 5316SOL     OW17786   0.872  11.963   4.284
 5316SOL    HW117787   0.831  11.968   4.370
 5316SOL    HW217788   0.841  11.880   4.248
 5317SOL     OW17789  10.329  11.567   3.609
 5317SOL    HW117790  10.317  11.490   3.665
 5317SOL    HW217791  10.424  11.577   3.602
 5318SOL     OW17792   8.932   5.644   7.245
 5318SOL    HW117793   8.954   5.707   7.176
 5318SOL    HW217794   8.891   5.696   7.314
 5319SOL     OW17795   6.790   6.292  13.985
 5319SOL    HW117796   6.728   6.219  13.984
 5319SOL    HW217797   6.827   6.291  14.073
 5320SOL     OW17798  11.604   6.897   8.459
 5320SOL    HW117799  11.577   6.987   8.476
 5320SOL    HW217800  11.641   6.866   8.541
 5321SOL     OW17801   0.289   5.987  11.831
 5321SOL    HW117802   0.312   5.894  11.825
 5321SOL    HW217803   0.200   5.987  11.866
 5322SOL     OW17804   1.915   2.597   9.773
 5322SOL    HW117805   2.004   2.579   9.744
 5322SOL    HW217806   1.897   2.686   9.743
 5323SOL     OW17807  10.161   7.147   3.908
 5323SOL    HW117808  10.146   7.214   3.975
 5323SOL    HW217809  10.187   7.069   3.957
 5324SOL     OW17810   9.106   2.207  10.679
 5324SOL    HW117811   9.181   2.267  10.674
 5324SOL    HW217812   9.079   2.210  10.771
 5325SOL     OW17813   2.925   9.143   3.044
 5325SOL    HW117814   2.928   9.201   2.968
 5325SOL    HW217815   2.916   9.055   3.007
 5326SOL     OW17816  12.486  11.537  11.456
 5326SOL    HW117817  12.508  11.551  11.548
 5326SOL    HW217818  12.463  11.445  11.450
 5327SOL     OW17819   0.005   7.984  11.750
 5327SOL    HW117820  14.787   7.964  11.767
 5327SOL    HW217821   0.022   7.947  11.663
 5328SOL     OW17822  12.672   8.932  13.859
 5328SOL    HW117823  12.639   8.887  13.937
 5328SOL    HW217824  12.604   8.996  13.838
 5329SOL     OW17825  12.212  10.887   8.968
 5329SOL    HW117826  12.253  10.973   8.972
 5329SOL    HW217827  12.261  10.840   8.900
 5330SOL     OW17828  10.310   3.361   1.873
 5330SOL    HW117829  10.287   3.430   1.936
 5330SOL    HW217830  10.399   3.381   1.846
 5331SOL     OW17831   2.406   4.277  10.646
 5331SOL    HW117832   2.316   4.281  10.612
 5331SOL    HW217833   2.450   4.352  10.606
 5332SOL     OW17834   7.054   9.903   5.659
 5332SOL    HW117835   7.121   9.971   5.666
 5332SOL    HW217836   7.050   9.864   5.746
 5333SOL     OW17837  12.190  10.429   6.195
 5333SOL    HW117838  12.255  10.361   6.178
 5333SOL    HW217839  12.241  10.503   6.230
 5334SOL     OW17840   8.720   7.556   3.224
 5334SOL    HW117841   8.664   7.527   3.152
 5334SOL    HW217842   8.808   7.556   3.189
 5335SOL     OW17843   3.028  14.211   7.154
 5335SOL    HW117844   3.024  14.261   7.073
 5335SOL    HW217845   2.998  14.123   7.130
 5336SOL     OW17846   8.391   5.366   9.289
 5336SOL    HW117847   8.327   5.427   9.324
 5336SOL    HW217848   8.469   5.379   9.343
 5337SOL     OW17849  13.985  13.244   0.467
 5337SOL    HW117850  13.964  13.225   0.376
 5337SOL    HW217851  13.947  13.331   0.483
 5338SOL     OW17852  13.117  13.446   2.367
 5338SOL    HW117853  13.107  13.409   2.280
 5338SOL    HW217854  13.114  13.541   2.353
 5339SOL     OW17855  13.937  11.766  10.252
 5339SOL    HW117856  13.903  11.852  10.226
 5339SOL    HW217857  13.866  11.727  10.303
 5340SOL     OW17858  13.046   6.584  10.472
 5340SOL    HW117859  13.127   6.584  10.421
 5340SOL    HW217860  12.993   6.653  10.433
 5341SOL     OW17861   4.254  11.642   9.114
 5341SOL    HW117862   4.258  11.725   9.067
 5341SOL    HW217863   4.317  11.651   9.185
 5342SOL     OW17864   8.650   5.549   5.010
 5342SOL    HW117865   8.567   5.502   5.005
 5342SOL    HW217866   8.639   5.609   5.084
 5343SOL     OW17867   3.542  11.211  14.517
 5343SOL    HW117868   3.553  11.150  14.444
 5343SOL    HW217869   3.586  11.170  14.591
 5344SOL     OW17870  10.121   6.215  12.556
 5344SOL    HW117871  10.097   6.252  12.471
 5344SOL    HW217872  10.213   6.189  12.545
 5345SOL     OW17873   8.122   7.528   3.116
 5345SOL    HW117874   8.062   7.566   3.052
 5345SOL    HW217875   8.183   7.475   3.065
 5346SOL     OW17876  13.638  13.275   7.239
 5346SOL    HW117877  13.612  13.340   7.304
 5346SOL    HW217878  13.701  13.320   7.183
 5347SOL     OW17879   2.258  12.472  13.615
 5347SOL    HW117880   2.295  12.411  13.679
 5347SOL    HW217881   2.218  12.541  13.668
 5348SOL     OW17882   1.039   7.870   6.443
 5348SOL    HW117883   1.044   7.962   6.467
 5348SOL    HW217884   0.980   7.868   6.368
 5349SOL     OW17885   1.018   1.044   3.506
 5349SOL    HW117886   0.949   1.046   3.573
 5349SOL    HW217887   1.099   1.041   3.556
 5350SOL     OW17888   3.711  12.035   5.230
 5350SOL    HW117889   3.629  11.993   5.204
 5350SOL    HW217890   3.734  11.995   5.314
 5351SOL     OW17891   3.322   6.985   8.756
 5351SOL    HW117892   3.402   6.945   8.791
 5351SOL    HW217893   3.312   7.067   8.805
 5352SOL     OW17894   1.485   3.864   4.590
 5352SOL    HW117895   1.528   3.875   4.505
 5352SOL    HW217896   1.467   3.954   4.619
 5353SOL     OW17897  10.815   3.369   9.801
 5353SOL    HW117898  10.734   3.413   9.773
 5353SOL    HW217899  10.814   3.376   9.897
 5354SOL     OW17900   2.673   2.103   5.412
 5354SOL    HW117901   2.650   2.010   5.407
 5354SOL    HW217902   2.603   2.143   5.463
 5355SOL     OW17903   4.594   6.242   2.441
 5355SOL    HW117904   4.671   6.274   2.393
 5355SOL    HW217905   4.623   6.159   2.479
 5356SOL     OW17906  12.808   0.465   6.489
 5356SOL    HW117907  12.731   0.511   6.524
 5356SOL    HW217908  12.782   0.373   6.487
 5357SOL     OW17909   8.118   8.636  12.244
 5357SOL    HW117910   8.144   8.578  12.316
 5357SOL    HW217911   8.120   8.581  12.166
 5358SOL     OW17912   2.880  10.127   6.328
 5358SOL    HW117913   2.898  10.218   6.302
 5358SOL    HW217914   2.917  10.121   6.417
 5359SOL     OW17915   8.803   8.811   5.040
 5359SOL    HW117916   8.839   8.722   5.039
 5359SOL    HW217917   8.725   8.805   5.094
 5360SOL     OW17918  11.932   0.808  14.274
 5360SOL    HW117919  12.024   0.833  14.272
 5360SOL    HW217920  11.886   0.885  14.306
 5361SOL     OW17921   7.571   2.033   5.068
 5361SOL    HW117922   7.654   2.035   5.116
 5361SOL    HW217923   7.543   2.124   5.064
 5362SOL     OW17924   0.080   7.023  10.379
 5362SOL    HW117925   0.129   6.972  10.315
 5362SOL    HW217926   0.070   7.109  10.338
 5363SOL     OW17927  11.310  13.549  12.906
 5363SOL    HW117928  11.225  13.505  12.902
 5363SOL    HW217929  11.371  13.481  12.934
 5364SOL     OW17930   4.944   0.676   9.683
 5364SOL    HW117931   4.852   0.698   9.672
 5364SOL    HW217932   4.944   0.587   9.718
 5365SOL     OW17933  12.140  13.308   2.230
 5365SOL    HW117934  12.051  13.330   2.202
 5365SOL    HW217935  12.193  13.383   2.205
 5366SOL     OW17936   8.721   2.426   9.444
 5366SOL    HW117937   8.695   2.442   9.535
 5366SOL    HW217938   8.696   2.505   9.397
 5367SOL     OW17939  14.366   4.401  12.177
 5367SOL    HW117940  14.425   4.418  12.104
 5367SOL    HW217941  14.366   4.482  12.228
 5368SOL     OW17942   5.617   3.877  10.286
 5368SOL    HW117943   5.522   3.870  10.275
 5368SOL    HW217944   5.654   3.839  10.206
 5369SOL     OW17945  12.100  11.884  10.559
 5369SOL    HW117946  12.159  11.811  10.578
 5369SOL    HW217947  12.015  11.855  10.592
 5370SOL     OW17948  13.077   9.223   1.453
 5370SOL    HW117949  13.079   9.309   1.494
 5370SOL    HW217950  13.007   9.176   1.499
 5371SOL     OW17951   6.115   1.868   5.088
 5371SOL    HW117952   6.094   1.877   5.181
 5371SOL    HW217953   6.051   1.804   5.055
 5372SOL     OW17954  10.556   5.453   9.824
 5372SOL    HW117955  10.541   5.547   9.829
 5372SOL    HW217956  10.471   5.414   9.845
 5373SOL     OW17957   6.698   3.549   0.090
 5373SOL    HW117958   6.634   3.569   0.022
 5373SOL    HW217959   6.656   3.482   0.144
 5374SOL     OW17960   0.557  14.853   4.974
 5374SOL    HW117961   0.549   0.060   4.924
 5374SOL    HW217962   0.647  14.855   5.008
 5375SOL     OW17963   0.119  11.280   9.594
 5375SOL    HW117964   0.152  11.334   9.666
 5375SOL    HW217965   0.178  11.298   9.521
 5376SOL     OW17966  10.563   3.748  14.372
 5376SOL    HW117967  10.556   3.820  14.434
 5376SOL    HW217968  10.524   3.781  14.292
 5377SOL     OW17969  12.405   8.830   4.335
 5377SOL    HW117970  12.499   8.822   4.349
 5377SOL    HW217971  12.397   8.884   4.256
 5378SOL     OW17972   0.356   2.436  11.972
 5378SOL    HW117973   0.379   2.349  11.938
 5378SOL    HW217974   0.302   2.475  11.904
 5379SOL     OW17975   7.021   3.967   0.987
 5379SOL    HW117976   7.049   3.878   1.008
 5379SOL    HW217977   7.030   4.015   1.069
 5380SOL     OW17978   7.448   0.162   6.061
 5380SOL    HW117979   7.443   0.115   6.145
 5380SOL    HW217980   7.358   0.189   6.044
 5381SOL     OW17981   5.020   7.142   5.898
 5381SOL    HW117982   5.035   7.085   5.974
 5381SOL    HW217983   5.108   7.168   5.871
 5382SOL     OW17984   3.501   4.977   7.501
 5382SOL    HW117985   3.546   4.906   7.455
 5382SOL    HW217986   3.502   5.050   7.440
 5383SOL     OW17987   9.619  14.835   3.426
 5383SOL    HW117988   9.656   0.032   3.374
 5383SOL    HW217989   9.544   0.000   3.471
 5384SOL     OW17990   2.660   8.892   1.064
 5384SOL    HW117991   2.646   8.937   1.147
 5384SOL    HW217992   2.629   8.803   1.080
 5385SOL     OW17993   1.280  14.541   5.559
 5385SOL    HW117994   1.257  14.463   5.610
 5385SOL    HW217995   1.312  14.506   5.476
 5386SOL     OW17996   9.893   1.756  10.748
 5386SOL    HW117997   9.852   1.671  10.732
 5386SOL    HW217998   9.833   1.819  10.708
 5387SOL     OW17999  11.208  12.753   8.548
 5387SOL    HW118000  11.151  12.767   8.472
 5387SOL    HW218001  11.152  12.773   8.623
 5388SOL     OW18002   0.704   0.528   9.373
 5388SOL    HW118003   0.610   0.512   9.368
 5388SOL    HW218004   0.718   0.606   9.319
 5389SOL     OW18005   9.772   8.498  14.736
 5389SOL    HW118006   9.853   8.485  14.784
 5389SOL    HW218007   9.703   8.483  14.800
 5390SOL     OW18008  13.499   9.222  13.381
 5390SOL    HW118009  13.428   9.218  13.316
 5390SOL    HW218010  13.465   9.177  13.457
 5391SOL     OW18011  11.064  14.571   5.724
 5391SOL    HW118012  11.013  14.504   5.769
 5391SOL    HW218013  11.136  14.590   5.784
 5392SOL     OW18014   3.390   1.423   3.865
 5392SOL    HW118015   3.356   1.500   3.819
 5392SOL    HW218016   3.313   1.373   3.889
 5393SOL     OW18017   2.438   5.332   7.272
 5393SOL    HW118018   2.398   5.279   7.203
 5393SOL    HW218019   2.531   5.335   7.250
 5394SOL     OW18020   9.209  14.188   0.366
 5394SOL    HW118021   9.150  14.113   0.356
 5394SOL    HW218022   9.297  14.150   0.360
 5395SOL     OW18023  12.949   4.568   5.051
 5395SOL    HW118024  13.005   4.547   5.127
 5395SOL    HW218025  12.973   4.502   4.986
 5396SOL     OW18026   5.419   5.996   4.038
 5396SOL    HW118027   5.508   5.999   4.003
 5396SOL    HW218028   5.425   6.036   4.125
 5397SOL     OW18029   1.900   7.900   5.236
 5397SOL    HW118030   1.929   7.828   5.293
 5397SOL    HW218031   1.852   7.856   5.165
 5398SOL     OW18032  10.590   7.311   9.885
 5398SOL    HW118033  10.677   7.318   9.922
 5398SOL    HW218034  10.535   7.365   9.942
 5399SOL     OW18035   2.832  12.391   8.457
 5399SOL    HW118036   2.897  12.442   8.408
 5399SOL    HW218037   2.751  12.442   8.449
 5400SOL     OW18038  12.816   6.888   3.710
 5400SOL    HW118039  12.889   6.849   3.758
 5400SOL    HW218040  12.822   6.982   3.731
 5401SOL     OW18041   0.704   6.036  11.100
 5401SOL    HW118042   0.771   6.078  11.046
 5401SOL    HW218043   0.672   6.105  11.157
 5402SOL     OW18044  13.827  10.275   8.736
 5402SOL    HW118045  13.867  10.194   8.706
 5402SOL    HW218046  13.888  10.309   8.801
 5403SOL     OW18047   4.913   7.448  10.791
 5403SOL    HW118048   4.818   7.457  10.803
 5403SOL    HW218049   4.951   7.521  10.841
 5404SOL     OW18050  10.440  14.600   4.130
 5404SOL    HW118051  10.367  14.656   4.157
 5404SOL    HW218052  10.518  14.647   4.159
 5405SOL     OW18053   9.873   7.452   9.464
 5405SOL    HW118054   9.845   7.405   9.543
 5405SOL    HW218055   9.926   7.388   9.416
 5406SOL     OW18056   6.841  13.488   0.954
 5406SOL    HW118057   6.793  13.495   1.037
 5406SOL    HW218058   6.899  13.564   0.953
 5407SOL     OW18059   9.051   7.674   7.053
 5407SOL    HW118060   9.138   7.671   7.015
 5407SOL    HW218061   9.048   7.758   7.100
 5408SOL     OW18062   1.747   8.381   7.091
 5408SOL    HW118063   1.809   8.312   7.116
 5408SOL    HW218064   1.734   8.432   7.171
 5409SOL     OW18065   9.208   9.542   7.387
 5409SOL    HW118066   9.146   9.564   7.318
 5409SOL    HW218067   9.163   9.565   7.469
 5410SOL     OW18068   7.711   6.442   0.599
 5410SOL    HW118069   7.790   6.400   0.567
 5410SOL    HW218070   7.721   6.444   0.695
 5411SOL     OW18071  14.574   7.386  12.770
 5411SOL    HW118072  14.491   7.352  12.805
 5411SOL    HW218073  14.549   7.426  12.686
 5412SOL     OW18074  10.900   8.207   9.545
 5412SOL    HW118075  10.844   8.279   9.574
 5412SOL    HW218076  10.856   8.128   9.577
 5413SOL     OW18077  12.999   3.147  12.480
 5413SOL    HW118078  12.918   3.185  12.515
 5413SOL    HW218079  13.019   3.202  12.404
 5414SOL     OW18080  10.093  10.127   5.150
 5414SOL    HW118081  10.117  10.214   5.117
 5414SOL    HW218082  10.018  10.143   5.206
 5415SOL     OW18083   2.300  14.826  11.167
 5415SOL    HW118084   2.383  14.793  11.134
 5415SOL    HW218085   2.294  14.793  11.256
 5416SOL     OW18086   3.814  14.858   3.545
 5416SOL    HW118087   3.867   0.063   3.533
 5416SOL    HW218088   3.856  14.793   3.490
 5417SOL     OW18089   3.038   6.306   1.589
 5417SOL    HW118090   3.077   6.270   1.510
 5417SOL    HW218091   2.944   6.290   1.579
 5418SOL     OW18092  10.283   3.301  11.378
 5418SOL    HW118093  10.220   3.331  11.312
 5418SOL    HW218094  10.293   3.208  11.361
 5419SOL     OW18095   4.673   3.745   2.450
 5419SOL    HW118096   4.607   3.689   2.409
 5419SOL    HW218097   4.735   3.683   2.490
 5420SOL     OW18098   2.721   4.982   6.638
 5420SOL    HW118099   2.812   4.984   6.665
 5420SOL    HW218100   2.673   4.958   6.717
 5421SOL     OW18101   4.628   4.321  13.612
 5421SOL    HW118102   4.671   4.339  13.695
 5421SOL    HW218103   4.690   4.264  13.565
 5422SOL     OW18104  11.481   5.747  12.217
 5422SOL    HW118105  11.447   5.749  12.127
 5422SOL    HW218106  11.404   5.737  12.272
 5423SOL     OW18107  12.260   6.876   3.636
 5423SOL    HW118108  12.215   6.872   3.552
 5423SOL    HW218109  12.332   6.937   3.622
 5424SOL     OW18110  14.602  12.709   6.321
 5424SOL    HW118111  14.646  12.722   6.405
 5424SOL    HW218112  14.655  12.759   6.259
 5425SOL     OW18113  14.033   1.533   4.810
 5425SOL    HW118114  14.015   1.520   4.717
 5425SOL    HW218115  13.968   1.479   4.855
 5426SOL     OW18116  10.963   6.591   7.203
 5426SOL    HW118117  11.016   6.659   7.244
 5426SOL    HW218118  10.914   6.552   7.276
 5427SOL     OW18119   9.106  12.650  12.040
 5427SOL    HW118120   9.044  12.720  12.018
 5427SOL    HW218121   9.188  12.676  11.999
 5428SOL     OW18122   5.579   0.926   2.464
 5428SOL    HW118123   5.629   0.891   2.538
 5428SOL    HW218124   5.603   1.019   2.461
 5429SOL     OW18125  10.091   6.146  10.114
 5429SOL    HW118126  10.121   6.101  10.035
 5429SOL    HW218127  10.016   6.093  10.144
 5430SOL     OW18128   3.960  14.469   9.180
 5430SOL    HW118129   3.891  14.402   9.183
 5430SOL    HW218130   4.040  14.420   9.163
 5431SOL     OW18131   3.181   6.115   8.512
 5431SOL    HW118132   3.181   6.211   8.508
 5431SOL    HW218133   3.188   6.088   8.420
 5432SOL     OW18134  13.626   2.062   7.046
 5432SOL    HW118135  13.644   2.147   7.006
 5432SOL    HW218136  13.587   2.083   7.131
 5433SOL     OW18137   6.865  11.355   8.628
 5433SOL    HW118138   6.912  11.421   8.576
 5433SOL    HW218139   6.873  11.386   8.718
 5434SOL     OW18140  12.780   8.163   4.253
 5434SOL    HW118141  12.708   8.119   4.297
 5434SOL    HW218142  12.790   8.117   4.170
 5435SOL     OW18143   8.405   2.590   0.961
 5435SOL    HW118144   8.499   2.576   0.964
 5435SOL    HW218145   8.375   2.541   0.885
 5436SOL     OW18146   7.131  13.005   2.539
 5436SOL    HW118147   7.119  12.910   2.536
 5436SOL    HW218148   7.224  13.017   2.556
 5437SOL     OW18149  11.387   3.768   6.923
 5437SOL    HW118150  11.357   3.684   6.958
 5437SOL    HW218151  11.307   3.817   6.903
 5438SOL     OW18152   5.145   9.568  13.408
 5438SOL    HW118153   5.193   9.605  13.482
 5438SOL    HW218154   5.058   9.608  13.414
 5439SOL     OW18155   0.022   0.722   7.983
 5439SOL    HW118156   0.072   0.801   8.001
 5439SOL    HW218157   0.028   0.670   8.063
 5440SOL     OW18158  13.807   6.910   6.314
 5440SOL    HW118159  13.875   6.965   6.276
 5440SOL    HW218160  13.835   6.895   6.404
 5441SOL     OW18161   2.172   9.176   7.991
 5441SOL    HW118162   2.131   9.221   8.064
 5441SOL    HW218163   2.212   9.246   7.939
 5442SOL     OW18164   4.155   8.460   2.240
 5442SOL    HW118165   4.095   8.387   2.228
 5442SOL    HW218166   4.242   8.422   2.229
 5443SOL     OW18167  12.463   6.254   6.338
 5443SOL    HW118168  12.409   6.320   6.382
 5443SOL    HW218169  12.400   6.201   6.288
 5444SOL     OW18170  14.830  13.497  13.093
 5444SOL    HW118171   0.012  13.483  13.017
 5444SOL    HW218172  14.743  13.470  13.064
 5445SOL     OW18173  12.129   5.116  11.867
 5445SOL    HW118174  12.122   5.037  11.920
 5445SOL    HW218175  12.108   5.088  11.778
 5446SOL     OW18176  12.265   6.197   5.890
 5446SOL    HW118177  12.192   6.136   5.893
 5446SOL    HW218178  12.305   6.183   5.804
 5447SOL     OW18179   1.373  13.371   6.263
 5447SOL    HW118180   1.315  13.430   6.215
 5447SOL    HW218181   1.419  13.323   6.195
 5448SOL     OW18182   7.813   8.047   5.334
 5448SOL    HW118183   7.814   8.064   5.428
 5448SOL    HW218184   7.772   8.124   5.295
 5449SOL     OW18185   5.153   1.018   9.341
 5449SOL    HW118186   5.151   0.924   9.328
 5449SOL    HW218187   5.246   1.040   9.344
 5450SOL     OW18188   5.201  13.636   5.611
 5450SOL    HW118189   5.114  13.612   5.641
 5450SOL    HW218190   5.260  13.602   5.678
 5451SOL     OW18191  10.291   3.044   1.767
 5451SOL    HW118192  10.310   2.972   1.826
 5451SOL    HW218193  10.353   3.113   1.792
 5452SOL     OW18194   5.572   5.639  13.051
 5452SOL    HW118195   5.656   5.658  13.093
 5452SOL    HW218196   5.544   5.557  13.090
 5453SOL     OW18197   2.985   2.970  13.963
 5453SOL    HW118198   3.055   2.976  13.898
 5453SOL    HW218199   2.911   2.933  13.914
 5454SOL     OW18200   6.269   1.360   5.706
 5454SOL    HW118201   6.185   1.322   5.732
 5454SOL    HW218202   6.256   1.454   5.712
 5455SOL     OW18203   0.651   6.144  12.491
 5455SOL    HW118204   0.594   6.161  12.566
 5455SOL    HW218205   0.737   6.179  12.517
 5456SOL     OW18206  12.583  11.699   6.763
 5456SOL    HW118207  12.645  11.681   6.693
 5456SOL    HW218208  12.612  11.644   6.836
 5457SOL     OW18209   7.758   1.286   6.669
 5457SOL    HW118210   7.808   1.207   6.648
 5457SOL    HW218211   7.667   1.261   6.657
 5458SOL     OW18212  11.029   2.918   4.821
 5458SOL    HW118213  11.037   2.829   4.786
 5458SOL    HW218214  11.112   2.934   4.865
 5459SOL     OW18215   8.852  12.082   0.085
 5459SOL    HW118216   8.796  12.078   0.008
 5459SOL    HW218217   8.793  12.067   0.159
 5460SOL     OW18218  10.609  11.545   5.041
 5460SOL    HW118219  10.588  11.478   4.975
 5460SOL    HW218220  10.665  11.500   5.104
 5461SOL     OW18221  14.660   5.719   1.180
 5461SOL    HW118222  14.637   5.698   1.090
 5461SOL    HW218223  14.619   5.650   1.233
 5462SOL     OW18224  11.207   6.458  13.030
 5462SOL    HW118225  11.145   6.386  13.022
 5462SOL    HW218226  11.155   6.532  13.062
 5463SOL     OW18227   6.819   5.764   9.956
 5463SOL    HW118228   6.772   5.839   9.921
 5463SOL    HW218229   6.909   5.776   9.926
 5464SOL     OW18230   9.807   5.179   9.735
 5464SOL    HW118231   9.749   5.166   9.660
 5464SOL    HW218232   9.889   5.211   9.697
 5465SOL     OW18233   1.137   8.704   0.174
 5465SOL    HW118234   1.148   8.755   0.095
 5465SOL    HW218235   1.142   8.768   0.245
 5466SOL     OW18236  11.375   6.791   2.480
 5466SOL    HW118237  11.440   6.847   2.437
 5466SOL    HW218238  11.415   6.767   2.564
 5467SOL     OW18239   1.984   2.827  14.132
 5467SOL    HW118240   2.079   2.823  14.122
 5467SOL    HW218241   1.970   2.877  14.212
 5468SOL     OW18242   7.097   8.463   2.237
 5468SOL    HW118243   7.017   8.514   2.229
 5468SOL    HW218244   7.131   8.485   2.324
 5469SOL     OW18245   0.294   4.123  14.584
 5469SOL    HW118246   0.246   4.099  14.505
 5469SOL    HW218247   0.376   4.161  14.552
 5470SOL     OW18248   9.927   6.078  13.513
 5470SOL    HW118249   9.969   6.126  13.584
 5470SOL    HW218250   9.917   6.143  13.443
 5471SOL     OW18251   0.442  10.708  10.409
 5471SOL    HW118252   0.380  10.740  10.343
 5471SOL    HW218253   0.477  10.627  10.371
 5472SOL     OW18254  11.809   6.099   6.483
 5472SOL    HW118255  11.823   6.024   6.542
 5472SOL    HW218256  11.755   6.064   6.413
 5473SOL     OW18257  13.585  11.964  13.441
 5473SOL    HW118258  13.603  11.916  13.522
 5473SOL    HW218259  13.490  11.981  13.444
 5474SOL     OW18260  10.127  12.066   9.658
 5474SOL    HW118261  10.106  12.159   9.660
 5474SOL    HW218262  10.103  12.034   9.745
 5475SOL     OW18263   2.748   0.865  10.845
 5475SOL    HW118264   2.734   0.788  10.901
 5475SOL    HW218265   2.839   0.858  10.817
 5476SOL     OW18266  12.709   0.587  12.479
 5476SOL    HW118267  12.638   0.639  12.518
 5476SOL    HW218268  12.766   0.652  12.440
 5477SOL     OW18269   1.290   6.525   2.677
 5477SOL    HW118270   1.205   6.567   2.661
 5477SOL    HW218271   1.331   6.579   2.745
 5478SOL     OW18272  11.168  11.646  13.320
 5478SOL    HW118273  11.255  11.609  13.333
 5478SOL    HW218274  11.184  11.728  13.274
 5479SOL     OW18275  12.281   2.860  13.732
 5479SOL    HW118276  12.313   2.836  13.644
 5479SOL    HW218277  12.324   2.798  13.791
 5480SOL     OW18278   6.026   9.725  12.513
 5480SOL    HW118279   5.971   9.648  12.527
 5480SOL    HW218280   6.009   9.781  12.589
 5481SOL     OW18281   4.633   4.745   5.487
 5481SOL    HW118282   4.659   4.665   5.532
 5481SOL    HW218283   4.597   4.801   5.556
 5482SOL     OW18284   4.329   8.110  10.355
 5482SOL    HW118285   4.348   8.196  10.319
 5482SOL    HW218286   4.256   8.125  10.415
 5483SOL     OW18287  11.306   5.695  10.345
 5483SOL    HW118288  11.236   5.680  10.408
 5483SOL    HW218289  11.260   5.716  10.263
 5484SOL     OW18290   9.049  10.621   8.676
 5484SOL    HW118291   9.062  10.669   8.757
 5484SOL    HW218292   8.954  10.621   8.663
 5485SOL     OW18293   4.327   0.892   6.376
 5485SOL    HW118294   4.287   0.872   6.461
 5485SOL    HW218295   4.383   0.968   6.393
 5486SOL     OW18296  11.820   9.478   0.318
 5486SOL    HW118297  11.742   9.453   0.268
 5486SOL    HW218298  11.879   9.517   0.254
 5487SOL     OW18299   5.938   3.810  10.804
 5487SOL    HW118300   5.974   3.873  10.742
 5487SOL    HW218301   5.898   3.863  10.872
 5488SOL     OW18302   7.797   6.937  10.704
 5488SOL    HW118303   7.827   6.993  10.632
 5488SOL    HW218304   7.703   6.955  10.710
 5489SOL     OW18305   6.740   5.734  10.930
 5489SOL    HW118306   6.753   5.828  10.922
 5489SOL    HW218307   6.730   5.703  10.840
 5490SOL     OW18308  13.137   0.288   3.216
 5490SOL    HW118309  13.101   0.365   3.260
 5490SOL    HW218310  13.232   0.303   3.214
 5491SOL     OW18311   7.839  11.174   2.125
 5491SOL    HW118312   7.813  11.265   2.139
 5491SOL    HW218313   7.758  11.124   2.126
 5492SOL     OW18314  12.651   2.390  12.313
 5492SOL    HW118315  12.586   2.391  12.243
 5492SOL    HW218316  12.643   2.477  12.354
 5493SOL     OW18317   8.380   2.466   5.081
 5493SOL    HW118318   8.332   2.403   5.134
 5493SOL    HW218319   8.391   2.421   4.996
 5494SOL     OW18320   5.379   3.483   1.436
 5494SOL    HW118321   5.354   3.492   1.345
 5494SOL    HW218322   5.437   3.407   1.438
 5495SOL     OW18323  12.189   5.211   3.205
 5495SOL    HW118324  12.263   5.152   3.219
 5495SOL    HW218325  12.226   5.298   3.216
 5496SOL     OW18326   4.139   1.903   3.510
 5496SOL    HW118327   4.197   1.867   3.443
 5496SOL    HW218328   4.196   1.960   3.563
 5497SOL     OW18329  12.986   7.405   3.649
 5497SOL    HW118330  12.917   7.383   3.711
 5497SOL    HW218331  12.972   7.347   3.574
 5498SOL     OW18332   7.660  14.733   0.884
 5498SOL    HW118333   7.598  14.748   0.955
 5498SOL    HW218334   7.665  14.817   0.839
 5499SOL     OW18335   9.340   6.994  10.231
 5499SOL    HW118336   9.332   7.048  10.309
 5499SOL    HW218337   9.260   6.941  10.229
 5500SOL     OW18338   3.476  11.661  10.937
 5500SOL    HW118339   3.540  11.650  11.007
 5500SOL    HW218340   3.446  11.572  10.918
 5501SOL     OW18341   9.241   4.591  12.282
 5501SOL    HW118342   9.275   4.502  12.274
 5501SOL    HW218343   9.166   4.583  12.341
 5502SOL     OW18344   1.037   7.883  11.128
 5502SOL    HW118345   0.988   7.820  11.180
 5502SOL    HW218346   1.000   7.875  11.039
 5503SOL     OW18347  14.304   5.174  14.008
 5503SOL    HW118348  14.316   5.090  14.053
 5503SOL    HW218349  14.258   5.151  13.927
 5504SOL     OW18350  11.775   1.013  10.598
 5504SOL    HW118351  11.737   1.058  10.673
 5504SOL    HW218352  11.862   1.052  10.588
 5505SOL     OW18353   9.511   8.072   7.445
 5505SOL    HW118354   9.492   7.999   7.504
 5505SOL    HW218355   9.424   8.103   7.418
 5506SOL     OW18356   5.010   2.345  13.836
 5506SOL    HW118357   5.092   2.299  13.817
 5506SOL    HW218358   4.979   2.375  13.751
 5507SOL     OW18359   4.071   3.657   3.579
 5507SOL    HW118360   4.141   3.594   3.564
 5507SOL    HW218361   4.051   3.649   3.673
 5508SOL     OW18362   4.076   2.967  13.257
 5508SOL    HW118363   4.082   2.872  13.267
 5508SOL    HW218364   4.043   2.998  13.341
 5509SOL     OW18365  13.723  10.370   7.590
 5509SOL    HW118366  13.706  10.365   7.684
 5509SOL    HW218367  13.660  10.434   7.557
 5510SOL     OW18368   3.982  12.648   2.380
 5510SOL    HW118369   3.969  12.599   2.299
 5510SOL    HW218370   3.910  12.712   2.381
 5511SOL     OW18371   9.806  11.623   3.502
 5511SOL    HW118372   9.813  11.691   3.435
 5511SOL    HW218373   9.797  11.541   3.453
 5512SOL     OW18374   2.530   3.962   0.642
 5512SOL    HW118375   2.469   4.006   0.583
 5512SOL    HW218376   2.599   4.027   0.658
 5513SOL     OW18377  10.920   5.743   9.116
 5513SOL    HW118378  10.892   5.658   9.082
 5513SOL    HW218379  10.947   5.792   9.038
 5514SOL     OW18380   6.620  13.403   8.387
 5514SOL    HW118381   6.614  13.307   8.391
 5514SOL    HW218382   6.584  13.432   8.471
 5515SOL     OW18383  11.716   5.183   8.521
 5515SOL    HW118384  11.695   5.090   8.516
 5515SOL    HW218385  11.811   5.186   8.529
 5516SOL     OW18386   2.119  14.590   1.478
 5516SOL    HW118387   2.165  14.517   1.519
 5516SOL    HW218388   2.133  14.579   1.384
 5517SOL     OW18389   7.613   0.794  11.236
 5517SOL    HW118390   7.648   0.708  11.209
 5517SOL    HW218391   7.565   0.776  11.316
 5518SOL     OW18392  12.385  13.574   3.555
 5518SOL    HW118393  12.391  13.482   3.581
 5518SOL    HW218394  12.291  13.592   3.553
 5519SOL     OW18395   9.568   5.567   5.560
 5519SOL    HW118396   9.553   5.477   5.531
 5519SOL    HW218397   9.529   5.571   5.647
 5520SOL     OW18398   8.497   3.494   9.218
 5520SOL    HW118399   8.491   3.574   9.271
 5520SOL    HW218400   8.427   3.438   9.253
 5521SOL     OW18401  11.236  10.924   9.424
 5521SOL    HW118402  11.155  10.971   9.405
 5521SOL    HW218403  11.269  10.896   9.338
 5522SOL     OW18404   1.249   7.505   4.838
 5522SOL    HW118405   1.307   7.479   4.910
 5522SOL    HW218406   1.308   7.538   4.770
 5523SOL     OW18407  11.214   0.737   9.627
 5523SOL    HW118408  11.280   0.738   9.697
 5523SOL    HW218409  11.261   0.765   9.549
 5524SOL     OW18410   7.401   7.055   4.749
 5524SOL    HW118411   7.385   7.046   4.843
 5524SOL    HW218412   7.491   7.087   4.744
 5525SOL     OW18413  10.572   4.146   8.282
 5525SOL    HW118414  10.613   4.129   8.367
 5525SOL    HW218415  10.488   4.100   8.287
 5526SOL     OW18416  10.793   8.773   1.208
 5526SOL    HW118417  10.823   8.854   1.249
 5526SOL    HW218418  10.873   8.728   1.181
 5527SOL     OW18419   1.516   7.851  12.987
 5527SOL    HW118420   1.473   7.877  12.906
 5527SOL    HW218421   1.585   7.917  12.999
 5528SOL     OW18422   1.896   3.186   8.421
 5528SOL    HW118423   1.814   3.236   8.415
 5528SOL    HW218424   1.954   3.241   8.472
 5529SOL     OW18425   1.224  12.360  12.085
 5529SOL    HW118426   1.312  12.398  12.072
 5529SOL    HW218427   1.210  12.308  12.006
 5530SOL     OW18428   7.358   1.685   6.074
 5530SOL    HW118429   7.426   1.752   6.060
 5530SOL    HW218430   7.278   1.735   6.090
 5531SOL     OW18431   8.945  14.577  13.035
 5531SOL    HW118432   8.850  14.575  13.047
 5531SOL    HW218433   8.979  14.530  13.111
 5532SOL     OW18434   4.521   0.440   0.049
 5532SOL    HW118435   4.437   0.417   0.090
 5532SOL    HW218436   4.576   0.362   0.062
 5533SOL     OW18437   6.411   4.018   3.006
 5533SOL    HW118438   6.368   3.971   2.935
 5533SOL    HW218439   6.363   3.991   3.085
 5534SOL     OW18440  13.071   1.861   0.018
 5534SOL    HW118441  13.028   1.895   0.097
 5534SOL    HW218442  13.163   1.882   0.030
 5535SOL     OW18443   2.705   3.960   4.311
 5535SOL    HW118444   2.663   4.013   4.379
 5535SOL    HW218445   2.645   3.963   4.237
 5536SOL     OW18446   8.342   0.811   4.627
 5536SOL    HW118447   8.291   0.735   4.598
 5536SOL    HW218448   8.423   0.773   4.663
 5537SOL     OW18449   4.222   1.000  11.701
 5537SOL    HW118450   4.181   1.039  11.624
 5537SOL    HW218451   4.211   0.906  11.688
 5538SOL     OW18452   6.880   6.698   8.340
 5538SOL    HW118453   6.920   6.656   8.417
 5538SOL    HW218454   6.787   6.676   8.347
 5539SOL     OW18455   2.606  13.377   1.327
 5539SOL    HW118456   2.621  13.282   1.318
 5539SOL    HW218457   2.511  13.386   1.331
 5540SOL     OW18458   3.949   5.547   1.549
 5540SOL    HW118459   3.937   5.553   1.644
 5540SOL    HW218460   4.018   5.482   1.537
 5541SOL     OW18461   9.066  14.786  11.468
 5541SOL    HW118462   9.009  14.856  11.436
 5541SOL    HW218463   9.087  14.735  11.391
 5542SOL     OW18464   6.919  14.179  10.507
 5542SOL    HW118465   6.842  14.128  10.482
 5542SOL    HW218466   6.927  14.245  10.439
 5543SOL     OW18467  14.823   7.324   8.786
 5543SOL    HW118468  14.857   7.266   8.855
 5543SOL    HW218469  14.873   7.405   8.796
 5544SOL     OW18470  12.273   3.530  10.625
 5544SOL    HW118471  12.236   3.565  10.706
 5544SOL    HW218472  12.239   3.587  10.556
 5545SOL     OW18473   4.428   5.411   4.397
 5545SOL    HW118474   4.392   5.497   4.376
 5545SOL    HW218475   4.515   5.410   4.356
 5546SOL     OW18476   2.734   5.051   2.474
 5546SOL    HW118477   2.816   5.098   2.459
 5546SOL    HW218478   2.721   5.055   2.569
 5547SOL     OW18479   1.951  10.735   0.412
 5547SOL    HW118480   1.887  10.716   0.343
 5547SOL    HW218481   1.929  10.823   0.442
 5548SOL     OW18482   1.038   8.541   4.127
 5548SOL    HW118483   1.033   8.572   4.217
 5548SOL    HW218484   1.132   8.535   4.109
 5549SOL     OW18485   1.156  13.188  11.971
 5549SOL    HW118486   1.117  13.209  12.056
 5549SOL    HW218487   1.210  13.265  11.951
 5550SOL     OW18488   2.592   0.550   3.740
 5550SOL    HW118489   2.544   0.629   3.761
 5550SOL    HW218490   2.680   0.580   3.716
 5551SOL     OW18491   6.485   0.756  14.390
 5551SOL    HW118492   6.460   0.682  14.445
 5551SOL    HW218493   6.470   0.833  14.444
 5552SOL     OW18494  11.702   9.915  10.995
 5552SOL    HW118495  11.652   9.882  11.069
 5552SOL    HW218496  11.668  10.004  10.980
 5553SOL     OW18497   6.905   4.907   1.466
 5553SOL    HW118498   6.849   4.854   1.410
 5553SOL    HW218499   6.969   4.845   1.502
 5554SOL     OW18500   1.733  10.014  11.051
 5554SOL    HW118501   1.725  10.067  11.131
 5554SOL    HW218502   1.665   9.948  11.060
 5555SOL     OW18503   9.103  14.533   1.510
 5555SOL    HW118504   9.152  14.611   1.535
 5555SOL    HW218505   9.022  14.566   1.471
 5556SOL     OW18506   9.769  12.155   2.407
 5556SOL    HW118507   9.713  12.090   2.449
 5556SOL    HW218508   9.709  12.205   2.351
 5557SOL     OW18509   5.287  10.907  13.659
 5557SOL    HW118510   5.271  10.994  13.624
 5557SOL    HW218511   5.359  10.871  13.607
 5558SOL     OW18512  10.584   1.985  12.883
 5558SOL    HW118513  10.495   1.956  12.861
 5558SOL    HW218514  10.572   2.042  12.958
 5559SOL     OW18515   8.484  13.014   9.739
 5559SOL    HW118516   8.503  13.088   9.795
 5559SOL    HW218517   8.563  12.960   9.742
 5560SOL     OW18518   0.784   7.139   2.455
 5560SOL    HW118519   0.689   7.142   2.457
 5560SOL    HW218520   0.805   7.111   2.366
 5561SOL     OW18521   3.833  11.938   6.898
 5561SOL    HW118522   3.917  11.896   6.920
 5561SOL    HW218523   3.773  11.909   6.967
 5562SOL     OW18524  14.569   3.093   2.563
 5562SOL    HW118525  14.524   3.169   2.527
 5562SOL    HW218526  14.525   3.018   2.524
 5563SOL     OW18527   3.745   2.866   8.281
 5563SOL    HW118528   3.800   2.892   8.355
 5563SOL    HW218529   3.667   2.921   8.289
 5564SOL     OW18530   0.466  10.799   8.703
 5564SOL    HW118531   0.444  10.791   8.610
 5564SOL    HW218532   0.558  10.774   8.708
 5565SOL     OW18533  14.542   6.184  12.801
 5565SOL    HW118534  14.615   6.150  12.852
 5565SOL    HW218535  14.581   6.215  12.719
 5566SOL     OW18536   0.427   6.137  10.549
 5566SOL    HW118537   0.479   6.180  10.481
 5566SOL    HW218538   0.484   6.066  10.581
 5567SOL     OW18539   4.658   9.516   4.174
 5567SOL    HW118540   4.611   9.597   4.195
 5567SOL    HW218541   4.612   9.480   4.099
 5568SOL     OW18542  12.499   2.220   7.682
 5568SOL    HW118543  12.586   2.197   7.648
 5568SOL    HW218544  12.445   2.231   7.603
 5569SOL     OW18545   1.416   4.042   4.278
 5569SOL    HW118546   1.420   4.077   4.189
 5569SOL    HW218547   1.423   4.118   4.335
 5570SOL     OW18548   6.846   7.023  13.919
 5570SOL    HW118549   6.914   7.057  13.977
 5570SOL    HW218550   6.798   7.100  13.890
 5571SOL     OW18551   5.038   7.038   6.623
 5571SOL    HW118552   5.122   7.073   6.652
 5571SOL    HW218553   4.984   7.115   6.607
 5572SOL     OW18554   3.945   6.909   1.842
 5572SOL    HW118555   3.915   6.827   1.802
 5572SOL    HW218556   4.012   6.942   1.782
 5573SOL     OW18557  12.934   6.976  12.173
 5573SOL    HW118558  13.012   7.031  12.174
 5573SOL    HW218559  12.861   7.037  12.162
 5574SOL     OW18560   0.764   1.965   1.621
 5574SOL    HW118561   0.703   1.902   1.659
 5574SOL    HW218562   0.740   2.049   1.659
 5575SOL     OW18563  13.367  10.730   5.449
 5575SOL    HW118564  13.312  10.793   5.496
 5575SOL    HW218565  13.444  10.718   5.506
 5576SOL     OW18566   8.191   1.424  14.812
 5576SOL    HW118567   8.243   1.502  14.829
 5576SOL    HW218568   8.185   1.381   0.023
 5577SOL     OW18569   8.554  14.568   0.503
 5577SOL    HW118570   8.639  14.535   0.474
 5577SOL    HW218571   8.512  14.494   0.546
 5578SOL     OW18572  11.631   5.604   9.819
 5578SOL    HW118573  11.679   5.533   9.862
 5578SOL    HW218574  11.594   5.564   9.741
 5579SOL     OW18575  12.779   3.896  10.554
 5579SOL    HW118576  12.708   3.835  10.534
 5579SOL    HW218577  12.811   3.868  10.640
 5580SOL     OW18578   7.423   2.108   4.001
 5580SOL    HW118579   7.436   2.139   3.911
 5580SOL    HW218580   7.352   2.044   3.995
 5581SOL     OW18581   9.522  13.211   6.835
 5581SOL    HW118582   9.538  13.183   6.745
 5581SOL    HW218583   9.426  13.211   6.844
 5582SOL     OW18584   4.257   6.083  12.728
 5582SOL    HW118585   4.192   6.080  12.799
 5582SOL    HW218586   4.282   6.175  12.722
 5583SOL     OW18587   1.622  13.965   6.570
 5583SOL    HW118588   1.534  13.989   6.541
 5583SOL    HW218589   1.668  14.048   6.578
 5584SOL     OW18590   2.553   0.301  11.861
 5584SOL    HW118591   2.588   0.214  11.879
 5584SOL    HW218592   2.569   0.315  11.768
 5585SOL     OW18593   4.836  14.226   0.143
 5585SOL    HW118594   4.829  14.262   0.232
 5585SOL    HW218595   4.747  14.227   0.110
 5586SOL     OW18596   1.485  10.898  14.270
 5586SOL    HW118597   1.528  10.831  14.217
 5586SOL    HW218598   1.396  10.903  14.234
 5587SOL     OW18599   7.318   3.783   2.859
 5587SOL    HW118600   7.273   3.705   2.826
 5587SOL    HW218601   7.249   3.848   2.870
 5588SOL     OW18602   9.152  13.714   8.737
 5588SOL    HW118603   9.084  13.769   8.777
 5588SOL    HW218604   9.193  13.670   8.811
 5589SOL     OW18605   3.316   7.087  13.612
 5589SOL    HW118606   3.306   7.142  13.534
 5589SOL    HW218607   3.281   7.002  13.586
 5590SOL     OW18608  13.289   6.672  13.091
 5590SOL    HW118609  13.283   6.765  13.069
 5590SOL    HW218610  13.202   6.649  13.125
 5591SOL     OW18611   5.927  10.696  13.042
 5591SOL    HW118612   5.875  10.773  13.020
 5591SOL    HW218613   5.863  10.630  13.069
 5592SOL     OW18614   4.894  13.315  11.857
 5592SOL    HW118615   4.901  13.406  11.828
 5592SOL    HW218616   4.984  13.283  11.858
 5593SOL     OW18617   0.145   5.555  14.846
 5593SOL    HW118618   0.208   5.563   0.044
 5593SOL    HW218619   0.089   5.632  14.855
 5594SOL     OW18620  10.607   1.918  11.623
 5594SOL    HW118621  10.646   2.001  11.595
 5594SOL    HW218622  10.595   1.927  11.717
 5595SOL     OW18623  11.436   7.140  14.856
 5595SOL    HW118624  11.507   7.149   0.047
 5595SOL    HW218625  11.391   7.060   0.007
 5596SOL     OW18626   2.773   4.167   9.683
 5596SOL    HW118627   2.843   4.101   9.681
 5596SOL    HW218628   2.698   4.124   9.642
 5597SOL     OW18629   1.508   9.254  13.198
 5597SOL    HW118630   1.487   9.221  13.286
 5597SOL    HW218631   1.570   9.326  13.214
 5598SOL     OW18632   4.964   5.797   6.205
 5598SOL    HW118633   5.039   5.856   6.197
 5598SOL    HW218634   4.953   5.761   6.117
 5599SOL     OW18635  10.979   4.535   7.842
 5599SOL    HW118636  10.901   4.546   7.788
 5599SOL    HW218637  10.983   4.440   7.859
 5600SOL     OW18638  12.954   7.692   2.911
 5600SOL    HW118639  12.932   7.599   2.909
 5600SOL    HW218640  12.903   7.730   2.840
 5601SOL     OW18641  10.547   9.769   5.442
 5601SOL    HW118642  10.479   9.837   5.447
 5601SOL    HW218643  10.621   9.813   5.400
 5602SOL     OW18644  14.297  13.660   8.888
 5602SOL    HW118645  14.287  13.586   8.828
 5602SOL    HW218646  14.322  13.733   8.831
 5603SOL     OW18647  12.275  13.594  14.154
 5603SOL    HW118648  12.325  13.674  14.172
 5603SOL    HW218649  12.195  13.604  14.206
 5604SOL     OW18650   6.028   2.270   7.347
 5604SOL    HW118651   6.095   2.208   7.320
 5604SOL    HW218652   5.972   2.281   7.270
 5605SOL     OW18653   3.948   2.435  12.236
 5605SOL    HW118654   3.876   2.495  12.252
 5605SOL    HW218655   3.956   2.433  12.141
 5606SOL     OW18656  10.007  12.106   9.166
 5606SOL    HW118657  10.091  12.076   9.131
 5606SOL    HW218658   9.954  12.027   9.172
 5607SOL     OW18659   3.199   6.725  14.114
 5607SOL    HW118660   3.108   6.727  14.143
 5607SOL    HW218661   3.240   6.800  14.158
 5608SOL     OW18662   6.301   8.326   0.406
 5608SOL    HW118663   6.249   8.296   0.481
 5608SOL    HW218664   6.336   8.411   0.434
 5609SOL     OW18665   6.001   2.354  11.042
 5609SOL    HW118666   6.056   2.421  11.002
 5609SOL    HW218667   6.029   2.272  11.001
 5610SOL     OW18668   8.635   4.544  13.844
 5610SOL    HW118669   8.560   4.584  13.887
 5610SOL    HW218670   8.606   4.530  13.754
 5611SOL     OW18671   0.496   9.851   9.995
 5611SOL    HW118672   0.498   9.859  10.090
 5611SOL    HW218673   0.525   9.936   9.963
 5612SOL     OW18674   2.609  10.980   1.732
 5612SOL    HW118675   2.628  10.969   1.825
 5612SOL    HW218676   2.578  11.071   1.724
 5613SOL     OW18677   0.191  13.544   7.752
 5613SOL    HW118678   0.184  13.450   7.739
 5613SOL    HW218679   0.284  13.559   7.770
 5614SOL     OW18680   1.528   6.223   2.987
 5614SOL    HW118681   1.546   6.138   2.945
 5614SOL    HW218682   1.474   6.270   2.923
 5615SOL     OW18683   7.962   5.488   4.750
 5615SOL    HW118684   7.882   5.484   4.802
 5615SOL    HW218685   7.990   5.579   4.756
 5616SOL     OW18686   1.141   5.090  13.760
 5616SOL    HW118687   1.054   5.131  13.756
 5616SOL    HW218688   1.186   5.139  13.829
 5617SOL     OW18689   9.189   0.003  12.977
 5617SOL    HW118690   9.196  14.786  12.949
 5617SOL    HW218691   9.240   0.052  12.912
 5618SOL     OW18692  14.256   9.062   9.015
 5618SOL    HW118693  14.337   9.020   8.986
 5618SOL    HW218694  14.187   9.016   8.967
 5619SOL     OW18695   0.437   4.714   1.575
 5619SOL    HW118696   0.348   4.748   1.571
 5619SOL    HW218697   0.440   4.661   1.655
 5620SOL     OW18698   5.549   1.766   0.067
 5620SOL    HW118699   5.484   1.697   0.082
 5620SOL    HW218700   5.633   1.720   0.066
 5621SOL     OW18701  13.739   5.879  12.817
 5621SOL    HW118702  13.654   5.923  12.824
 5621SOL    HW218703  13.770   5.871  12.907
 5622SOL     OW18704   5.809   5.122   7.349
 5622SOL    HW118705   5.839   5.041   7.309
 5622SOL    HW218706   5.888   5.175   7.359
 5623SOL     OW18707  10.069   4.676  13.797
 5623SOL    HW118708  10.084   4.707  13.708
 5623SOL    HW218709  10.157   4.671  13.836
 5624SOL     OW18710   9.443   5.516  10.982
 5624SOL    HW118711   9.500   5.443  10.957
 5624SOL    HW218712   9.355   5.481  10.974
 5625SOL     OW18713   9.004   3.260   8.484
 5625SOL    HW118714   8.997   3.225   8.573
 5625SOL    HW218715   9.050   3.192   8.435
 5626SOL     OW18716   6.025   4.133   1.193
 5626SOL    HW118717   6.044   4.225   1.211
 5626SOL    HW218718   6.097   4.085   1.234
 5627SOL     OW18719   6.607   8.821   3.118
 5627SOL    HW118720   6.561   8.782   3.043
 5627SOL    HW218721   6.560   8.903   3.135
 5628SOL     OW18722   8.601  14.468  14.161
 5628SOL    HW118723   8.561  14.501  14.241
 5628SOL    HW218724   8.693  14.458  14.182
 5629SOL     OW18725  13.743   1.050   4.584
 5629SOL    HW118726  13.725   1.144   4.585
 5629SOL    HW218727  13.698   1.017   4.506
 5630SOL     OW18728   5.839  10.753   5.772
 5630SOL    HW118729   5.892  10.693   5.825
 5630SOL    HW218730   5.844  10.717   5.683
 5631SOL     OW18731   5.359   9.814  14.765
 5631SOL    HW118732   5.383   9.794  14.674
 5631SOL    HW218733   5.435   9.788  14.816
 5632SOL     OW18734  11.885   9.459  12.801
 5632SOL    HW118735  11.941   9.440  12.725
 5632SOL    HW218736  11.942   9.509  12.860
 5633SOL     OW18737   4.737   4.649  10.709
 5633SOL    HW118738   4.820   4.644  10.755
 5633SOL    HW218739   4.722   4.743  10.696
 5634SOL     OW18740   9.243   2.237  10.961
 5634SOL    HW118741   9.269   2.319  10.919
 5634SOL    HW218742   9.193   2.263  11.038
 5635SOL     OW18743  12.215  12.523   5.983
 5635SOL    HW118744  12.196  12.557   6.070
 5635SOL    HW218745  12.310  12.513   5.981
 5636SOL     OW18746  10.260  11.123   8.759
 5636SOL    HW118747  10.176  11.117   8.804
 5636SOL    HW218748  10.246  11.187   8.690
 5637SOL     OW18749   0.606  11.851   7.326
 5637SOL    HW118750   0.690  11.890   7.303
 5637SOL    HW218751   0.545  11.884   7.259
 5638SOL     OW18752   7.296  11.006   2.744
 5638SOL    HW118753   7.357  10.932   2.751
 5638SOL    HW218754   7.347  11.081   2.773
 5639SOL     OW18755   7.400   8.084   1.376
 5639SOL    HW118756   7.362   8.019   1.435
 5639SOL    HW218757   7.354   8.071   1.293
 5640SOL     OW18758  10.572   4.727  10.393
 5640SOL    HW118759  10.597   4.817  10.409
 5640SOL    HW218760  10.637   4.695  10.330
 5641SOL     OW18761   0.440   7.369  13.643
 5641SOL    HW118762   0.460   7.344  13.553
 5641SOL    HW218763   0.525   7.389  13.682
 5642SOL     OW18764  14.031   6.662   0.223
 5642SOL    HW118765  13.941   6.690   0.243
 5642SOL    HW218766  14.086   6.712   0.283
 5643SOL     OW18767  11.569   8.004   4.683
 5643SOL    HW118768  11.617   8.074   4.729
 5643SOL    HW218769  11.568   7.931   4.745
 5644SOL     OW18770   2.553   1.887  12.588
 5644SOL    HW118771   2.563   1.794  12.566
 5644SOL    HW218772   2.575   1.893  12.681
 5645SOL     OW18773   0.575   3.031   0.259
 5645SOL    HW118774   0.628   3.005   0.184
 5645SOL    HW218775   0.508   2.963   0.266
 5646SOL     OW18776   6.511   4.078   4.589
 5646SOL    HW118777   6.453   4.152   4.611
 5646SOL    HW218778   6.585   4.119   4.544
 5647SOL     OW18779  10.091  12.598   4.424
 5647SOL    HW118780  10.005  12.615   4.385
 5647SOL    HW218781  10.137  12.682   4.419
 5648SOL     OW18782  10.042  14.064   4.110
 5648SOL    HW118783  10.115  14.019   4.152
 5648SOL    HW218784  10.075  14.151   4.090
 5649SOL     OW18785  14.493  14.731   2.077
 5649SOL    HW118786  14.509  14.637   2.080
 5649SOL    HW218787  14.400  14.739   2.058
 5650SOL     OW18788  12.154  13.490  13.909
 5650SOL    HW118789  12.062  13.467  13.917
 5650SOL    HW218790  12.179  13.521  13.996
 5651SOL     OW18791  13.882   6.065  10.905
 5651SOL    HW118792  13.961   6.072  10.958
 5651SOL    HW218793  13.852   5.975  10.920
 5652SOL     OW18794   1.395   6.180   0.443
 5652SOL    HW118795   1.480   6.222   0.460
 5652SOL    HW218796   1.403   6.144   0.355
 5653SOL     OW18797   6.961   3.204  10.553
 5653SOL    HW118798   6.914   3.201  10.470
 5653SOL    HW218799   6.914   3.143  10.610
 5654SOL     OW18800   2.742  11.178   6.945
 5654SOL    HW118801   2.785  11.156   7.028
 5654SOL    HW218802   2.663  11.124   6.944
 5655SOL     OW18803   2.349   8.171  12.267
 5655SOL    HW118804   2.324   8.259  12.293
 5655SOL    HW218805   2.387   8.181  12.180
 5656SOL     OW18806   3.643   8.847   4.184
 5656SOL    HW118807   3.556   8.862   4.221
 5656SOL    HW218808   3.703   8.863   4.256
 5657SOL     OW18809   6.175   3.665   9.470
 5657SOL    HW118810   6.190   3.581   9.513
 5657SOL    HW218811   6.261   3.706   9.464
 5658SOL     OW18812   0.202  14.186   1.782
 5658SOL    HW118813   0.295  14.208   1.774
 5658SOL    HW218814   0.157  14.271   1.774
 5659SOL     OW18815   2.622   2.333  14.523
 5659SOL    HW118816   2.543   2.299  14.564
 5659SOL    HW218817   2.616   2.428  14.531
 5660SOL     OW18818   1.399  10.260   0.375
 5660SOL    HW118819   1.357  10.194   0.321
 5660SOL    HW218820   1.492  10.255   0.350
 5661SOL     OW18821   6.230   7.951   5.220
 5661SOL    HW118822   6.145   7.979   5.187
 5661SOL    HW218823   6.210   7.902   5.300
 5662SOL     OW18824   6.035   7.658   0.934
 5662SOL    HW118825   5.948   7.625   0.959
 5662SOL    HW218826   6.077   7.583   0.891
 5663SOL     OW18827  10.045   4.267   5.655
 5663SOL    HW118828  10.107   4.266   5.728
 5663SOL    HW218829  10.069   4.344   5.604
 5664SOL     OW18830   0.531  10.674  12.299
 5664SOL    HW118831   0.594  10.603  12.312
 5664SOL    HW218832   0.462  10.636  12.245
 5665SOL     OW18833   4.225   0.149   4.902
 5665SOL    HW118834   4.274   0.095   4.840
 5665SOL    HW218835   4.236   0.104   4.987
 5666SOL     OW18836  10.126   6.535  10.709
 5666SOL    HW118837  10.215   6.554  10.680
 5666SOL    HW218838  10.118   6.578  10.794
 5667SOL     OW18839   5.008  12.269   9.295
 5667SOL    HW118840   5.092  12.309   9.273
 5667SOL    HW218841   4.954  12.281   9.217
 5668SOL     OW18842   2.123   3.765   1.685
 5668SOL    HW118843   2.098   3.818   1.609
 5668SOL    HW218844   2.075   3.683   1.675
 5669SOL     OW18845  10.948   3.181   6.610
 5669SOL    HW118846  10.956   3.087   6.620
 5669SOL    HW218847  11.019   3.205   6.551
 5670SOL     OW18848   0.337  12.728  10.854
 5670SOL    HW118849   0.364  12.642  10.886
 5670SOL    HW218850   0.357  12.727  10.761
 5671SOL     OW18851  12.076  10.750   4.954
 5671SOL    HW118852  12.080  10.789   4.867
 5671SOL    HW218853  12.153  10.786   4.999
 5672SOL     OW18854  11.474  14.394   2.929
 5672SOL    HW118855  11.554  14.346   2.950
 5672SOL    HW218856  11.409  14.361   2.991
 5673SOL     OW18857   8.802   9.651  12.518
 5673SOL    HW118858   8.792   9.560  12.493
 5673SOL    HW218859   8.894   9.671  12.501
 5674SOL     OW18860   4.143   2.371   4.744
 5674SOL    HW118861   4.192   2.291   4.724
 5674SOL    HW218862   4.205   2.442   4.727
 5675SOL     OW18863  13.816  13.847   0.137
 5675SOL    HW118864  13.868  13.819   0.213
 5675SOL    HW218865  13.881  13.860   0.068
 5676SOL     OW18866   4.189   7.767  14.370
 5676SOL    HW118867   4.259   7.773  14.306
 5676SOL    HW218868   4.180   7.673  14.389
 5677SOL     OW18869   7.069   4.244  11.136
 5677SOL    HW118870   7.000   4.207  11.082
 5677SOL    HW218871   7.025   4.304  11.195
 5678SOL     OW18872   3.244   6.295  14.618
 5678SOL    HW118873   3.199   6.283  14.534
 5678SOL    HW218874   3.195   6.365  14.662
 5679SOL     OW18875   8.431  12.377   0.938
 5679SOL    HW118876   8.383  12.426   1.005
 5679SOL    HW218877   8.365  12.323   0.895
 5680SOL     OW18878   9.511   6.282   2.151
 5680SOL    HW118879   9.535   6.327   2.232
 5680SOL    HW218880   9.420   6.310   2.134
 5681SOL     OW18881  14.679   0.965   9.406
 5681SOL    HW118882  14.592   0.926   9.397
 5681SOL    HW218883  14.738   0.891   9.408
 5682SOL     OW18884   9.745   3.718  13.734
 5682SOL    HW118885   9.696   3.749  13.658
 5682SOL    HW218886   9.679   3.679  13.791
 5683SOL     OW18887   4.683   9.284   4.862
 5683SOL    HW118888   4.749   9.266   4.928
 5683SOL    HW218889   4.657   9.374   4.878
 5684SOL     OW18890  10.406   1.085   1.210
 5684SOL    HW118891  10.470   1.144   1.250
 5684SOL    HW218892  10.431   1.082   1.118
 5685SOL     OW18893   7.495  12.579  11.898
 5685SOL    HW118894   7.478  12.589  11.992
 5685SOL    HW218895   7.521  12.667  11.869
 5686SOL     OW18896   8.663  12.564   9.750
 5686SOL    HW118897   8.620  12.529   9.828
 5686SOL    HW218898   8.675  12.487   9.693
 5687SOL     OW18899   3.708   1.184   8.264
 5687SOL    HW118900   3.671   1.155   8.181
 5687SOL    HW218901   3.669   1.126   8.330
 5688SOL     OW18902  13.344   1.926   2.487
 5688SOL    HW118903  13.390   1.849   2.455
 5688SOL    HW218904  13.340   1.914   2.582
 5689SOL     OW18905  10.905   4.552  14.777
 5689SOL    HW118906  10.894   4.457  14.788
 5689SOL    HW218907  10.821   4.589  14.802
 5690SOL     OW18908   8.715   1.175   2.395
 5690SOL    HW118909   8.710   1.079   2.401
 5690SOL    HW218910   8.657   1.206   2.464
 5691SOL     OW18911   4.917   1.158   5.862
 5691SOL    HW118912   4.993   1.107   5.835
 5691SOL    HW218913   4.947   1.249   5.858
 5692SOL     OW18914   0.160  13.465  14.779
 5692SOL    HW118915   0.228  13.466  14.711
 5692SOL    HW218916   0.188  13.532  14.841
 5693SOL     OW18917  13.853  11.458  12.301
 5693SOL    HW118918  13.838  11.477  12.394
 5693SOL    HW218919  13.920  11.390  12.302
 5694SOL     OW18920  11.293   9.648   2.910
 5694SOL    HW118921  11.321   9.620   2.997
 5694SOL    HW218922  11.264   9.738   2.921
 5695SOL     OW18923  12.439  10.010  13.185
 5695SOL    HW118924  12.349  10.019  13.218
 5695SOL    HW218925  12.480   9.948  13.244
 5696SOL     OW18926   1.438  14.241  11.337
 5696SOL    HW118927   1.452  14.147  11.326
 5696SOL    HW218928   1.390  14.268  11.259
 5697SOL     OW18929  11.844   4.962   5.174
 5697SOL    HW118930  11.871   4.928   5.259
 5697SOL    HW218931  11.858   5.057   5.181
 5698SOL     OW18932   5.044   1.780   8.799
 5698SOL    HW118933   5.089   1.794   8.882
 5698SOL    HW218934   4.998   1.697   8.810
 5699SOL     OW18935   9.529  14.734  12.245
 5699SOL    HW118936   9.528  14.822  12.283
 5699SOL    HW218937   9.464  14.739  12.174
 5700SOL     OW18938  14.477  13.531   0.033
 5700SOL    HW118939  14.496  13.483   0.114
 5700SOL    HW218940  14.450  13.463  14.845
 5701SOL     OW18941   9.524   0.857   7.229
 5701SOL    HW118942   9.431   0.851   7.208
 5701SOL    HW218943   9.528   0.913   7.307
 5702SOL     OW18944   3.840   7.502   6.486
 5702SOL    HW118945   3.935   7.510   6.497
 5702SOL    HW218946   3.810   7.591   6.471
 5703SOL     OW18947   4.678   4.753   0.371
 5703SOL    HW118948   4.699   4.812   0.444
 5703SOL    HW218949   4.717   4.794   0.294
 5704SOL     OW18950   0.972  11.817   3.585
 5704SOL    HW118951   1.015  11.902   3.577
 5704SOL    HW218952   0.882  11.833   3.557
 5705SOL     OW18953   6.473   2.690   3.923
 5705SOL    HW118954   6.498   2.604   3.958
 5705SOL    HW218955   6.472   2.748   3.999
 5706SOL     OW18956  12.597   2.580   4.300
 5706SOL    HW118957  12.615   2.552   4.210
 5706SOL    HW218958  12.514   2.539   4.322
 5707SOL     OW18959  11.070   1.227   4.046
 5707SOL    HW118960  11.006   1.215   4.115
 5707SOL    HW218961  11.147   1.263   4.091
 5708SOL     OW18962   9.869  13.830   1.836
 5708SOL    HW118963   9.915  13.768   1.893
 5708SOL    HW218964   9.841  13.777   1.762
 5709SOL     OW18965   1.333  14.546  13.481
 5709SOL    HW118966   1.355  14.517  13.393
 5709SOL    HW218967   1.241  14.573  13.475
 5710SOL     OW18968  11.685  10.675   3.333
 5710SOL    HW118969  11.647  10.762   3.319
 5710SOL    HW218970  11.745  10.663   3.259
 5711SOL     OW18971   7.032  11.479   1.050
 5711SOL    HW118972   7.040  11.533   1.128
 5711SOL    HW218973   6.974  11.529   0.992
 5712SOL     OW18974   7.242   3.234   1.844
 5712SOL    HW118975   7.250   3.139   1.832
 5712SOL    HW218976   7.328   3.261   1.878
 5713SOL     OW18977   6.925   8.546   5.571
 5713SOL    HW118978   6.884   8.629   5.546
 5713SOL    HW218979   6.861   8.479   5.547
 5714SOL     OW18980  12.825  14.431  10.190
 5714SOL    HW118981  12.776  14.398  10.115
 5714SOL    HW218982  12.914  14.445  10.157
 5715SOL     OW18983   9.547   1.432   5.456
 5715SOL    HW118984   9.627   1.482   5.439
 5715SOL    HW218985   9.578   1.343   5.471
 5716SOL     OW18986   5.853   3.633   6.760
 5716SOL    HW118987   5.804   3.697   6.708
 5716SOL    HW218988   5.801   3.553   6.756
 5717SOL     OW18989   7.620   9.984   2.692
 5717SOL    HW118990   7.575   9.928   2.755
 5717SOL    HW218991   7.648   9.926   2.623
 5718SOL     OW18992  10.185   8.078   0.587
 5718SOL    HW118993  10.242   8.003   0.602
 5718SOL    HW218994  10.100   8.051   0.619
 5719SOL     OW18995   8.030   3.361   0.313
 5719SOL    HW118996   8.046   3.438   0.368
 5719SOL    HW218997   8.060   3.287   0.365
 5720SOL     OW18998  11.872  11.703  10.582
 5720SOL    HW118999  11.858  11.782  10.530
 5720SOL    HW219000  11.788  11.689  10.627
 5721SOL     OW19001  10.815   3.640   4.089
 5721SOL    HW119002  10.886   3.576   4.097
 5721SOL    HW219003  10.737   3.594   4.118
 5722SOL     OW19004  11.540   6.381  13.912
 5722SOL    HW119005  11.471   6.331  13.955
 5722SOL    HW219006  11.612   6.318  13.901
 5723SOL     OW19007  13.092  13.187  13.387
 5723SOL    HW119008  13.078  13.146  13.473
 5723SOL    HW219009  13.118  13.277  13.407
 5724SOL     OW19010  13.928   6.178   2.973
 5724SOL    HW119011  13.877   6.114   2.924
 5724SOL    HW219012  13.864   6.219   3.032
 5725SOL     OW19013  13.292   0.803   3.063
 5725SOL    HW119014  13.202   0.771   3.065
 5725SOL    HW219015  13.297   0.864   3.137
 5726SOL     OW19016   7.176   6.326   7.574
 5726SOL    HW119017   7.108   6.286   7.629
 5726SOL    HW219018   7.144   6.313   7.485
 5727SOL     OW19019   4.779   6.605  11.987
 5727SOL    HW119020   4.791   6.676  11.925
 5727SOL    HW219021   4.867   6.587  12.021
 5728SOL     OW19022   4.633  12.329   5.660
 5728SOL    HW119023   4.608  12.237   5.675
 5728SOL    HW219024   4.723  12.324   5.626
 5729SOL     OW19025   4.659   3.759   7.271
 5729SOL    HW119026   4.703   3.834   7.232
 5729SOL    HW219027   4.588   3.798   7.323
 5730SOL     OW19028   3.875   8.196   7.645
 5730SOL    HW119029   3.782   8.177   7.658
 5730SOL    HW219030   3.919   8.111   7.654
 5731SOL     OW19031   5.345   7.165   3.939
 5731SOL    HW119032   5.377   7.210   4.017
 5731SOL    HW219033   5.415   7.174   3.875
 5732SOL     OW19034   2.518   5.888  10.726
 5732SOL    HW119035   2.604   5.891  10.768
 5732SOL    HW219036   2.486   5.979  10.732
 5733SOL     OW19037  14.124   7.135   9.068
 5733SOL    HW119038  14.163   7.113   9.153
 5733SOL    HW219039  14.070   7.212   9.086
 5734SOL     OW19040  12.889  14.427  12.001
 5734SOL    HW119041  12.923  14.473  12.078
 5734SOL    HW219042  12.931  14.471  11.927
 5735SOL     OW19043   7.902   3.346   7.365
 5735SOL    HW119044   7.811   3.368   7.345
 5735SOL    HW219045   7.900   3.253   7.386
 5736SOL     OW19046   4.901   7.643   7.505
 5736SOL    HW119047   4.958   7.682   7.572
 5736SOL    HW219048   4.814   7.641   7.546
 5737SOL     OW19049  10.207   2.104   4.435
 5737SOL    HW119050  10.123   2.128   4.475
 5737SOL    HW219051  10.206   2.009   4.431
 5738SOL     OW19052   0.930   2.245  12.308
 5738SOL    HW119053   0.961   2.190  12.237
 5738SOL    HW219054   1.010   2.282  12.346
 5739SOL     OW19055   5.936   2.446   2.044
 5739SOL    HW119056   5.883   2.494   2.109
 5739SOL    HW219057   5.986   2.514   1.999
 5740SOL     OW19058   0.663   3.791   5.129
 5740SOL    HW119059   0.596   3.845   5.087
 5740SOL    HW219060   0.697   3.735   5.059
 5741SOL     OW19061  10.158   9.702  12.489
 5741SOL    HW119062  10.101   9.714  12.413
 5741SOL    HW219063  10.175   9.790  12.521
 5742SOL     OW19064   6.608   2.642   6.161
 5742SOL    HW119065   6.648   2.568   6.116
 5742SOL    HW219066   6.525   2.656   6.114
 5743SOL     OW19067   2.015   2.592  14.428
 5743SOL    HW119068   2.014   2.500  14.453
 5743SOL    HW219069   1.927   2.623  14.451
 5744SOL     OW19070  10.766  12.097   8.142
 5744SOL    HW119071  10.696  12.034   8.162
 5744SOL    HW219072  10.762  12.107   8.047
 5745SOL     OW19073   4.728   8.320  12.130
 5745SOL    HW119074   4.721   8.274  12.214
 5745SOL    HW219075   4.693   8.408  12.147
 5746SOL     OW19076   8.299  12.295   8.803
 5746SOL    HW119077   8.288  12.208   8.840
 5746SOL    HW219078   8.287  12.284   8.708
 5747SOL     OW19079  14.611   7.353   7.671
 5747SOL    HW119080  14.516   7.361   7.684
 5747SOL    HW219081  14.648   7.373   7.757
 5748SOL     OW19082  12.738   3.541  11.574
 5748SOL    HW119083  12.689   3.529  11.493
 5748SOL    HW219084  12.826   3.508  11.554
 5749SOL     OW19085  10.541   6.238   9.732
 5749SOL    HW119086  10.573   6.153   9.763
 5749SOL    HW219087  10.463   6.217   9.680
 5750SOL     OW19088   1.235   4.479   5.330
 5750SOL    HW119089   1.171   4.527   5.383
 5750SOL    HW219090   1.253   4.399   5.381
 5751SOL     OW19091  13.061   4.024   1.416
 5751SOL    HW119092  13.034   3.934   1.399
 5751SOL    HW219093  13.038   4.071   1.335
 5752SOL     OW19094  12.250   7.118   6.052
 5752SOL    HW119095  12.345   7.125   6.050
 5752SOL    HW219096  12.229   7.043   5.996
 5753SOL     OW19097   9.257   5.927   9.726
 5753SOL    HW119098   9.304   5.863   9.780
 5753SOL    HW219099   9.188   5.960   9.783
 5754SOL     OW19100  13.844   1.001   5.275
 5754SOL    HW119101  13.932   1.038   5.284
 5754SOL    HW219102  13.797   1.032   5.352
 5755SOL     OW19103  14.156   9.028   6.633
 5755SOL    HW119104  14.134   9.050   6.542
 5755SOL    HW219105  14.209   8.948   6.626
 5756SOL     OW19106  11.815  11.067   4.664
 5756SOL    HW119107  11.838  11.027   4.748
 5756SOL    HW219108  11.734  11.115   4.682
 5757SOL     OW19109   1.147   8.115  10.276
 5757SOL    HW119110   1.136   8.025  10.305
 5757SOL    HW219111   1.193   8.108  10.193
 5758SOL     OW19112  13.111   9.617   3.032
 5758SOL    HW119113  13.079   9.628   3.121
 5758SOL    HW219114  13.074   9.691   2.984
 5759SOL     OW19115   0.159  13.789  13.887
 5759SOL    HW119116   0.157  13.733  13.809
 5759SOL    HW219117   0.251  13.792  13.912
 5760SOL     OW19118   8.987   8.875   3.921
 5760SOL    HW119119   9.059   8.907   3.867
 5760SOL    HW219120   8.931   8.952   3.934
 5761SOL     OW19121   8.909   8.786   5.353
 5761SOL    HW119122   8.847   8.798   5.281
 5761SOL    HW219123   8.894   8.862   5.410
 5762SOL     OW19124  14.639   5.000   0.207
 5762SOL    HW119125  14.621   5.035   0.120
 5762SOL    HW219126  14.681   4.916   0.191
 5763SOL     OW19127   2.941   5.293   9.355
 5763SOL    HW119128   3.018   5.249   9.392
 5763SOL    HW219129   2.899   5.227   9.300
 5764SOL     OW19130   7.503   8.465   4.033
 5764SOL    HW119131   7.579   8.507   4.074
 5764SOL    HW219132   7.541   8.410   3.964
 5765SOL     OW19133  13.720   6.528  14.488
 5765SOL    HW119134  13.789   6.477  14.531
 5765SOL    HW219135  13.659   6.549  14.557
 5766SOL     OW19136   2.359   7.502  14.850
 5766SOL    HW119137   2.273   7.479   0.011
 5766SOL    HW219138   2.342   7.525  14.759
 5767SOL     OW19139   9.322  11.902   4.446
 5767SOL    HW119140   9.363  11.887   4.532
 5767SOL    HW219141   9.396  11.914   4.387
 5768SOL     OW19142   0.069  13.072  10.650
 5768SOL    HW119143   0.140  13.015  10.621
 5768SOL    HW219144   0.111  13.135  10.709
 5769SOL     OW19145  13.651   3.056  10.508
 5769SOL    HW119146  13.615   3.024  10.590
 5769SOL    HW219147  13.584   3.115  10.473
 5770SOL     OW19148  10.216  13.298   2.693
 5770SOL    HW119149  10.185  13.345   2.615
 5770SOL    HW219150  10.141  13.244   2.719
 5771SOL     OW19151   4.680   9.299   5.877
 5771SOL    HW119152   4.672   9.379   5.827
 5771SOL    HW219153   4.774   9.279   5.876
 5772SOL     OW19154   6.358   3.437  12.666
 5772SOL    HW119155   6.268   3.408  12.682
 5772SOL    HW219156   6.401   3.428  12.751
 5773SOL     OW19157   0.667   5.354  12.499
 5773SOL    HW119158   0.582   5.349  12.456
 5773SOL    HW219159   0.718   5.415  12.446
 5774SOL     OW19160   5.194   1.551   9.170
 5774SOL    HW119161   5.240   1.468   9.154
 5774SOL    HW219162   5.196   1.596   9.086
 5775SOL     OW19163   8.945  10.270   9.984
 5775SOL    HW119164   8.865  10.217   9.994
 5775SOL    HW219165   8.938  10.307   9.897
 5776SOL     OW19166  14.370  13.772  10.245
 5776SOL    HW119167  14.358  13.679  10.267
 5776SOL    HW219168  14.464  13.781  10.230
 5777SOL     OW19169   4.380   7.593   3.300
 5777SOL    HW119170   4.435   7.514   3.302
 5777SOL    HW219171   4.441   7.666   3.298
 5778SOL     OW19172   3.124  11.414  11.293
 5778SOL    HW119173   3.073  11.388  11.216
 5778SOL    HW219174   3.060  11.417  11.365
 5779SOL     OW19175  14.350  12.238  12.534
 5779SOL    HW119176  14.369  12.331  12.522
 5779SOL    HW219177  14.433  12.200  12.561
 5780SOL     OW19178  11.092   4.754   4.214
 5780SOL    HW119179  11.038   4.830   4.189
 5780SOL    HW219180  11.058   4.728   4.300
 5781SOL     OW19181   1.219   1.783   6.025
 5781SOL    HW119182   1.244   1.772   6.116
 5781SOL    HW219183   1.165   1.707   6.005
 5782SOL     OW19184  13.216   9.236   1.220
 5782SOL    HW119185  13.145   9.231   1.283
 5782SOL    HW219186  13.295   9.225   1.273
 5783SOL     OW19187  10.428  12.849  10.193
 5783SOL    HW119188  10.454  12.843  10.101
 5783SOL    HW219189  10.425  12.943  10.210
 5784SOL     OW19190   0.167   7.762  11.795
 5784SOL    HW119191   0.096   7.824  11.779
 5784SOL    HW219192   0.247   7.813  11.779
 5785SOL     OW19193  14.544   8.658   6.582
 5785SOL    HW119194  14.632   8.677   6.549
 5785SOL    HW219195  14.554   8.577   6.631
 5786SOL     OW19196  13.091   1.777   5.682
 5786SOL    HW119197  13.177   1.741   5.660
 5786SOL    HW219198  13.069   1.736   5.766
 5787SOL     OW19199   6.558   2.033   5.982
 5787SOL    HW119200   6.595   2.058   5.897
 5787SOL    HW219201   6.634   2.010   6.035
 5788SOL     OW19202  13.322   6.874   1.640
 5788SOL    HW119203  13.377   6.940   1.597
 5788SOL    HW219204  13.304   6.910   1.727
 5789SOL     OW19205   4.894  13.296   1.226
 5789SOL    HW119206   4.970  13.312   1.170
 5789SOL    HW219207   4.845  13.378   1.225
 5790SOL     OW19208  13.419  10.366   5.556
 5790SOL    HW119209  13.370  10.361   5.474
 5790SOL    HW219210  13.358  10.331   5.622
 5791SOL     OW19211  11.685   3.163   7.169
 5791SOL    HW119212  11.704   3.110   7.246
 5791SOL    HW219213  11.713   3.108   7.095
 5792SOL     OW19214   4.789  13.005  13.837
 5792SOL    HW119215   4.811  12.925  13.790
 5792SOL    HW219216   4.861  13.065  13.818
 5793SOL     OW19217   6.816  11.615  10.399
 5793SOL    HW119218   6.738  11.659  10.367
 5793SOL    HW219219   6.876  11.686  10.423
 5794SOL     OW19220   7.978   8.528   4.948
 5794SOL    HW119221   7.966   8.563   5.037
 5794SOL    HW219222   7.988   8.605   4.893
 5795SOL     OW19223  10.891   3.715  14.014
 5795SOL    HW119224  10.809   3.666  14.019
 5795SOL    HW219225  10.921   3.720  14.105
 5796SOL     OW19226   6.426   8.105   1.965
 5796SOL    HW119227   6.518   8.083   1.980
 5796SOL    HW219228   6.377   8.031   1.999
 5797SOL     OW19229   1.555   9.856   5.658
 5797SOL    HW119230   1.513   9.784   5.705
 5797SOL    HW219231   1.487   9.923   5.653
 5798SOL     OW19232  14.007  13.238   6.124
 5798SOL    HW119233  14.045  13.305   6.181
 5798SOL    HW219234  13.925  13.276   6.093
 5799SOL     OW19235   8.520   6.957   8.261
 5799SOL    HW119236   8.476   7.042   8.269
 5799SOL    HW219237   8.566   6.947   8.344
 5800SOL     OW19238   9.633   3.824   8.759
 5800SOL    HW119239   9.604   3.786   8.843
 5800SOL    HW219240   9.553   3.829   8.707
 5801SOL     OW19241  13.662  11.964   1.185
 5801SOL    HW119242  13.755  11.944   1.178
 5801SOL    HW219243  13.630  11.962   1.095
 5802SOL     OW19244   9.822  14.757   3.560
 5802SOL    HW119245   9.896  14.734   3.504
 5802SOL    HW219246   9.753  14.785   3.499
 5803SOL     OW19247   7.482   5.334   7.226
 5803SOL    HW119248   7.408   5.276   7.207
 5803SOL    HW219249   7.540   5.282   7.281
 5804SOL     OW19250   8.061   7.070  13.167
 5804SOL    HW119251   8.134   7.089  13.226
 5804SOL    HW219252   7.998   7.140  13.184
 5805SOL     OW19253  10.183   5.027  14.759
 5805SOL    HW119254  10.276   5.009  14.770
 5805SOL    HW219255  10.142   4.990  14.837
 5806SOL     OW19256  14.591   9.031   3.407
 5806SOL    HW119257  14.552   8.993   3.328
 5806SOL    HW219258  14.607   8.956   3.465
 5807SOL     OW19259   2.415  13.321   5.553
 5807SOL    HW119260   2.492  13.373   5.532
 5807SOL    HW219261   2.341  13.378   5.532
 5808SOL     OW19262  13.818   4.003   6.853
 5808SOL    HW119263  13.877   4.034   6.921
 5808SOL    HW219264  13.731   4.008   6.894
 5809SOL     OW19265  11.478   6.916  11.637
 5809SOL    HW119266  11.510   6.941  11.724
 5809SOL    HW219267  11.546   6.947  11.577
 5810SOL     OW19268   1.374  12.511   7.942
 5810SOL    HW119269   1.428  12.482   8.016
 5810SOL    HW219270   1.366  12.606   7.954
 5811SOL     OW19271  14.379   7.785   0.550
 5811SOL    HW119272  14.416   7.697   0.540
 5811SOL    HW219273  14.301   7.773   0.603
 5812SOL     OW19274   1.273   1.694   8.569
 5812SOL    HW119275   1.287   1.600   8.583
 5812SOL    HW219276   1.339   1.719   8.505
 5813SOL     OW19277  13.727   0.290   2.059
 5813SOL    HW119278  13.712   0.242   2.141
 5813SOL    HW219279  13.813   0.261   2.030
 5814SOL     OW19280  13.994   8.855   5.170
 5814SOL    HW119281  14.060   8.800   5.213
 5814SOL    HW219282  14.045   8.917   5.117
 5815SOL     OW19283  11.283  14.150   3.598
 5815SOL    HW119284  11.341  14.135   3.524
 5815SOL    HW219285  11.196  14.155   3.559
 5816SOL     OW19286  10.513  11.234   3.487
 5816SOL    HW119287  10.458  11.222   3.410
 5816SOL    HW219288  10.466  11.192   3.558
 5817SOL     OW19289  10.690  10.455   5.785
 5817SOL    HW119290  10.721  10.455   5.875
 5817SOL    HW219291  10.598  10.428   5.791
 5818SOL     OW19292   0.979  12.153   2.521
 5818SOL    HW119293   0.923  12.143   2.598
 5818SOL    HW219294   1.000  12.063   2.495
 5819SOL     OW19295   9.336  10.483  12.795
 5819SOL    HW119296   9.307  10.520  12.711
 5819SOL    HW219297   9.256  10.478  12.848
 5820SOL     OW19298   1.241   0.551  12.629
 5820SOL    HW119299   1.298   0.573  12.555
 5820SOL    HW219300   1.299   0.510  12.693
 5821SOL     OW19301   2.746   1.262   1.817
 5821SOL    HW119302   2.825   1.237   1.769
 5821SOL    HW219303   2.774   1.267   1.908
 5822SOL     OW19304  14.642   1.007   6.218
 5822SOL    HW119305  14.659   0.962   6.300
 5822SOL    HW219306  14.547   1.020   6.216
 5823SOL     OW19307   3.826   0.582  12.798
 5823SOL    HW119308   3.848   0.507  12.743
 5823SOL    HW219309   3.874   0.655  12.759
 5824SOL     OW19310  10.153   2.665   5.283
 5824SOL    HW119311  10.134   2.632   5.195
 5824SOL    HW219312  10.161   2.587   5.337
 5825SOL     OW19313   2.862  10.010   0.813
 5825SOL    HW119314   2.898  10.094   0.786
 5825SOL    HW219315   2.859   9.958   0.732
 5826SOL     OW19316  13.809   4.306   7.584
 5826SOL    HW119317  13.720   4.327   7.611
 5826SOL    HW219318  13.864   4.340   7.654
 5827SOL     OW19319   4.530   6.035   5.622
 5827SOL    HW119320   4.443   6.073   5.615
 5827SOL    HW219321   4.543   5.987   5.540
 5828SOL     OW19322   7.273   4.450  13.777
 5828SOL    HW119323   7.296   4.532  13.821
 5828SOL    HW219324   7.304   4.381  13.837
 5829SOL     OW19325   3.463   6.210   7.520
 5829SOL    HW119326   3.411   6.193   7.599
 5829SOL    HW219327   3.434   6.296   7.490
 5830SOL     OW19328  14.095  12.124  11.759
 5830SOL    HW119329  14.082  12.089  11.847
 5830SOL    HW219330  14.170  12.076  11.725
 5831SOL     OW19331   7.001  10.189   7.826
 5831SOL    HW119332   7.002  10.144   7.910
 5831SOL    HW219333   7.008  10.119   7.761
 5832SOL     OW19334   1.175   1.826  12.355
 5832SOL    HW119335   1.222   1.877  12.420
 5832SOL    HW219336   1.083   1.845  12.371
 5833SOL     OW19337  11.194   8.282  13.528
 5833SOL    HW119338  11.162   8.301  13.616
 5833SOL    HW219339  11.274   8.335  13.519
 5834SOL     OW19340   3.995   0.521   9.538
 5834SOL    HW119341   3.909   0.489   9.509
 5834SOL    HW219342   4.014   0.469   9.616
 5835SOL     OW19343   1.955   0.165   8.322
 5835SOL    HW119344   1.859   0.159   8.317
 5835SOL    HW219345   1.984   0.159   8.231
 5836SOL     OW19346   2.877   8.392   2.182
 5836SOL    HW119347   2.811   8.328   2.211
 5836SOL    HW219348   2.888   8.451   2.257
 5837SOL     OW19349  11.554  11.383   6.897
 5837SOL    HW119350  11.480  11.326   6.917
 5837SOL    HW219351  11.515  11.467   6.876
 5838SOL     OW19352   2.696   7.128  10.078
 5838SOL    HW119353   2.759   7.200  10.087
 5838SOL    HW219354   2.618   7.159  10.125
 5839SOL     OW19355   2.119   4.554   4.946
 5839SOL    HW119356   2.199   4.595   4.914
 5839SOL    HW219357   2.066   4.626   4.979
 5840SOL     OW19358   2.270   1.641   8.844
 5840SOL    HW119359   2.231   1.556   8.865
 5840SOL    HW219360   2.344   1.649   8.905
 5841SOL     OW19361  14.265   7.766  12.203
 5841SOL    HW119362  14.272   7.790  12.295
 5841SOL    HW219363  14.171   7.761  12.186
 5842SOL     OW19364  11.748  13.248  14.845
 5842SOL    HW119365  11.739  13.343  14.844
 5842SOL    HW219366  11.795  13.227  14.764
 5843SOL     OW19367   0.967  12.309   3.461
 5843SOL    HW119368   1.058  12.314   3.431
 5843SOL    HW219369   0.957  12.384   3.520
 5844SOL     OW19370  11.599   6.459   6.332
 5844SOL    HW119371  11.539   6.467   6.406
 5844SOL    HW219372  11.577   6.375   6.292
 5845SOL     OW19373   9.732   1.894   0.962
 5845SOL    HW119374   9.731   1.846   0.879
 5845SOL    HW219375   9.641   1.892   0.991
 5846SOL     OW19376   7.909   0.482  11.614
 5846SOL    HW119377   7.866   0.404  11.579
 5846SOL    HW219378   7.905   0.470  11.709
 5847SOL     OW19379  12.537   6.377   7.825
 5847SOL    HW119380  12.506   6.288   7.808
 5847SOL    HW219381  12.476   6.411   7.891
 5848SOL     OW19382   8.230  13.159  10.587
 5848SOL    HW119383   8.265  13.113  10.663
 5848SOL    HW219384   8.187  13.237  10.624
 5849SOL     OW19385   6.819   7.235   0.612
 5849SOL    HW119386   6.850   7.178   0.682
 5849SOL    HW219387   6.794   7.175   0.542
 5850SOL     OW19388   5.257   2.908   5.636
 5850SOL    HW119389   5.256   3.003   5.652
 5850SOL    HW219390   5.185   2.894   5.575
 5851SOL     OW19391   8.732   9.756   9.422
 5851SOL    HW119392   8.726   9.683   9.484
 5851SOL    HW219393   8.669   9.820   9.454
 5852SOL     OW19394  12.626   5.645   2.895
 5852SOL    HW119395  12.613   5.740   2.883
 5852SOL    HW219396  12.598   5.628   2.985
 5853SOL     OW19397   2.033  10.547   3.808
 5853SOL    HW119398   1.961  10.485   3.821
 5853SOL    HW219399   2.102  10.515   3.866
 5854SOL     OW19400   8.457  10.819  13.812
 5854SOL    HW119401   8.402  10.783  13.744
 5854SOL    HW219402   8.430  10.911  13.818
 5855SOL     OW19403   7.870   0.997  13.653
 5855SOL    HW119404   7.813   0.921  13.666
 5855SOL    HW219405   7.810   1.067  13.627
 5856SOL     OW19406   1.168  11.003   6.959
 5856SOL    HW119407   1.255  10.995   7.000
 5856SOL    HW219408   1.184  10.985   6.866
 5857SOL     OW19409  13.380   1.006   4.432
 5857SOL    HW119410  13.321   1.005   4.357
 5857SOL    HW219411  13.322   1.011   4.508
 5858SOL     OW19412  10.820  13.262   5.905
 5858SOL    HW119413  10.851  13.214   5.828
 5858SOL    HW219414  10.866  13.221   5.979
 5859SOL     OW19415   6.847   1.195   2.220
 5859SOL    HW119416   6.821   1.152   2.138
 5859SOL    HW219417   6.930   1.237   2.200
 5860SOL     OW19418  12.194  13.515   0.826
 5860SOL    HW119419  12.179  13.608   0.811
 5860SOL    HW219420  12.203  13.477   0.739
 5861SOL     OW19421   6.187  13.223  13.479
 5861SOL    HW119422   6.172  13.243  13.387
 5861SOL    HW219423   6.108  13.253  13.524
 5862SOL     OW19424   7.442   0.971   0.932
 5862SOL    HW119425   7.492   1.052   0.919
 5862SOL    HW219426   7.354   0.991   0.901
 5863SOL     OW19427   2.423   4.746  12.711
 5863SOL    HW119428   2.467   4.746  12.626
 5863SOL    HW219429   2.425   4.654  12.739
 5864SOL     OW19430   9.319   3.247   9.427
 5864SOL    HW119431   9.325   3.335   9.391
 5864SOL    HW219432   9.242   3.209   9.385
 5865SOL     OW19433   5.977   9.158   0.637
 5865SOL    HW119434   6.072   9.150   0.628
 5865SOL    HW219435   5.947   9.069   0.653
 5866SOL     OW19436   4.077   0.041   0.042
 5866SOL    HW119437   4.092   0.133   0.064
 5866SOL    HW219438   4.028   0.043  14.834
 5867SOL     OW19439  10.776   7.996   5.070
 5867SOL    HW119440  10.772   8.035   4.982
 5867SOL    HW219441  10.821   7.913   5.058
 5868SOL     OW19442   5.359   3.580   4.327
 5868SOL    HW119443   5.446   3.612   4.304
 5868SOL    HW219444   5.305   3.659   4.332
 5869SOL     OW19445  11.986   7.790   7.932
 5869SOL    HW119446  11.902   7.815   7.971
 5869SOL    HW219447  11.972   7.799   7.838
 5870SOL     OW19448  13.434  13.491   9.624
 5870SOL    HW119449  13.357  13.547   9.612
 5870SOL    HW219450  13.466  13.512   9.712
 5871SOL     OW19451  14.510   3.801  13.687
 5871SOL    HW119452  14.430   3.815  13.635
 5871SOL    HW219453  14.557   3.733  13.640
 5872SOL     OW19454   3.189   9.113   6.030
 5872SOL    HW119455   3.168   9.206   6.021
 5872SOL    HW219456   3.252   9.096   5.960
 5873SOL     OW19457   1.848  12.366   0.214
 5873SOL    HW119458   1.767  12.323   0.189
 5873SOL    HW219459   1.887  12.394   0.130
 5874SOL     OW19460   2.462   8.479   5.618
 5874SOL    HW119461   2.479   8.417   5.547
 5874SOL    HW219462   2.482   8.565   5.581
 5875SOL     OW19463   6.068   1.656   8.391
 5875SOL    HW119464   6.033   1.743   8.412
 5875SOL    HW219465   6.087   1.660   8.297
 5876SOL     OW19466  12.840   1.660   7.856
 5876SOL    HW119467  12.811   1.702   7.937
 5876SOL    HW219468  12.919   1.612   7.881
 5877SOL     OW19469  10.103   9.095  13.454
 5877SOL    HW119470  10.010   9.117  13.466
 5877SOL    HW219471  10.112   9.082  13.360
 5878SOL     OW19472   9.446   4.244  13.306
 5878SOL    HW119473   9.468   4.262  13.215
 5878SOL    HW219474   9.423   4.329  13.343
 5879SOL     OW19475   2.365   3.497   5.430
 5879SOL    HW119476   2.426   3.482   5.359
 5879SOL    HW219477   2.280   3.511   5.387
 5880SOL     OW19478   8.046   0.410   9.043
 5880SOL    HW119479   8.089   0.495   9.042
 5880SOL    HW219480   8.113   0.349   9.075
 5881SOL     OW19481   3.149  14.695   9.001
 5881SOL    HW119482   3.175  14.694   8.909
 5881SOL    HW219483   3.098  14.776   9.010
 5882SOL     OW19484   7.129  12.653  11.996
 5882SOL    HW119485   7.194  12.714  11.961
 5882SOL    HW219486   7.121  12.676  12.089
 5883SOL     OW19487  12.703   3.782  12.718
 5883SOL    HW119488  12.703   3.768  12.623
 5883SOL    HW219489  12.634   3.725  12.751
 5884SOL     OW19490   7.596  14.192   4.921
 5884SOL    HW119491   7.595  14.287   4.907
 5884SOL    HW219492   7.509  14.163   4.894
 5885SOL     OW19493   8.199   0.186   0.308
 5885SOL    HW119494   8.252   0.144   0.241
 5885SOL    HW219495   8.179   0.117   0.370
 5886SOL     OW19496   1.312   6.770   4.358
 5886SOL    HW119497   1.300   6.820   4.438
 5886SOL    HW219498   1.380   6.818   4.310
 5887SOL     OW19499   4.454   3.661   8.683
 5887SOL    HW119500   4.538   3.615   8.672
 5887SOL    HW219501   4.406   3.607   8.746
 5888SOL     OW19502  12.857   5.511  11.146
 5888SOL    HW119503  12.780   5.521  11.202
 5888SOL    HW219504  12.824   5.530  11.058
 5889SOL     OW19505   2.387   4.073  13.293
 5889SOL    HW119506   2.482   4.078  13.280
 5889SOL    HW219507   2.364   4.157  13.334
 5890SOL     OW19508   1.473   2.173  10.097
 5890SOL    HW119509   1.457   2.267  10.087
 5890SOL    HW219510   1.417   2.132  10.031
 5891SOL     OW19511   9.425   9.075   8.702
 5891SOL    HW119512   9.419   9.124   8.784
 5891SOL    HW219513   9.358   9.007   8.709
 5892SOL     OW19514  11.917  14.506   2.271
 5892SOL    HW119515  11.914  14.476   2.362
 5892SOL    HW219516  11.831  14.543   2.255
 5893SOL     OW19517   6.388   9.957  12.004
 5893SOL    HW119518   6.340  10.038  11.986
 5893SOL    HW219519   6.480   9.981  11.994
 5894SOL     OW19520   3.340   3.257   7.635
 5894SOL    HW119521   3.373   3.341   7.666
 5894SOL    HW219522   3.356   3.197   7.708
 5895SOL     OW19523   2.633   1.093   0.951
 5895SOL    HW119524   2.673   1.010   0.974
 5895SOL    HW219525   2.706   1.154   0.944
 5896SOL     OW19526  12.367  11.063   0.382
 5896SOL    HW119527  12.384  10.996   0.316
 5896SOL    HW219528  12.289  11.109   0.350
 5897SOL     OW19529   4.628  14.179   6.533
 5897SOL    HW119530   4.611  14.239   6.460
 5897SOL    HW219531   4.643  14.094   6.492
 5898SOL     OW19532  14.628   5.684  14.036
 5898SOL    HW119533  14.598   5.742  13.966
 5898SOL    HW219534  14.549   5.637  14.062
 5899SOL     OW19535   3.220  13.025   7.349
 5899SOL    HW119536   3.167  12.946   7.364
 5899SOL    HW219537   3.253  13.049   7.436
 5900SOL     OW19538   7.081   5.107  10.648
 5900SOL    HW119539   7.005   5.165  10.643
 5900SOL    HW219540   7.152   5.165  10.676
 5901SOL     OW19541  14.567   9.716  11.779
 5901SOL    HW119542  14.484   9.696  11.823
 5901SOL    HW219543  14.595   9.799  11.817
 5902SOL     OW19544   3.968   5.050   0.119
 5902SOL    HW119545   4.015   5.133   0.109
 5902SOL    HW219546   3.898   5.055   0.055
 5903SOL     OW19547  14.087  10.075   6.371
 5903SOL    HW119548  14.042  10.002   6.413
 5903SOL    HW219549  14.021  10.116   6.316
 5904SOL     OW19550  11.613   5.270   2.385
 5904SOL    HW119551  11.557   5.348   2.389
 5904SOL    HW219552  11.596   5.225   2.468
 5905SOL     OW19553  12.119  11.792  14.068
 5905SOL    HW119554  12.069  11.784  13.987
 5905SOL    HW219555  12.064  11.747  14.133
 5906SOL     OW19556   5.389   6.807  11.104
 5906SOL    HW119557   5.309   6.759  11.126
 5906SOL    HW219558   5.361   6.897  11.092
 5907SOL     OW19559   8.910   0.886  11.058
 5907SOL    HW119560   8.959   0.913  10.980
 5907SOL    HW219561   8.964   0.916  11.131
 5908SOL     OW19562  10.362  10.153   0.927
 5908SOL    HW119563  10.360  10.166   0.833
 5908SOL    HW219564  10.270  10.159   0.954
 5909SOL     OW19565   1.350   7.572  11.745
 5909SOL    HW119566   1.309   7.592  11.830
 5909SOL    HW219567   1.393   7.488  11.759
 5910SOL     OW19568  11.033   3.201   6.102
 5910SOL    HW119569  10.956   3.157   6.139
 5910SOL    HW219570  11.087   3.130   6.067
 5911SOL     OW19571   2.097  14.291   5.710
 5911SOL    HW119572   2.187  14.307   5.737
 5911SOL    HW219573   2.062  14.230   5.775
 5912SOL     OW19574   8.362   0.628  11.451
 5912SOL    HW119575   8.270   0.649  11.465
 5912SOL    HW219576   8.388   0.579  11.529
 5913SOL     OW19577   2.311   1.602  10.318
 5913SOL    HW119578   2.265   1.594  10.402
 5913SOL    HW219579   2.367   1.679  10.328
 5914SOL     OW19580   4.992  13.921   8.077
 5914SOL    HW119581   4.954  13.962   8.155
 5914SOL    HW219582   5.064  13.979   8.053
 5915SOL     OW19583  11.950   8.158   3.266
 5915SOL    HW119584  11.973   8.236   3.317
 5915SOL    HW219585  11.855   8.149   3.279
 5916SOL     OW19586   4.210  12.972  13.511
 5916SOL    HW119587   4.178  13.005  13.427
 5916SOL    HW219588   4.234  13.051  13.560
 5917SOL     OW19589  13.271   5.384  14.781
 5917SOL    HW119590  13.220   5.389  14.862
 5917SOL    HW219591  13.361   5.403  14.808
 5918SOL     OW19592   3.676  10.072   2.542
 5918SOL    HW119593   3.689  10.157   2.584
 5918SOL    HW219594   3.759  10.054   2.498
 5919SOL     OW19595  11.789   7.515  13.539
 5919SOL    HW119596  11.724   7.459  13.582
 5919SOL    HW219597  11.768   7.603  13.568
 5920SOL     OW19598   3.463   5.809  14.497
 5920SOL    HW119599   3.491   5.825  14.587
 5920SOL    HW219600   3.368   5.796  14.504
 5921SOL     OW19601  12.460   7.931   0.924
 5921SOL    HW119602  12.393   7.919   0.991
 5921SOL    HW219603  12.537   7.963   0.972
 5922SOL     OW19604   3.697   2.862  12.255
 5922SOL    HW119605   3.769   2.911  12.295
 5922SOL    HW219606   3.622   2.880  12.312
 5923SOL     OW19607   1.979   1.709  12.978
 5923SOL    HW119608   1.947   1.775  13.040
 5923SOL    HW219609   2.001   1.759  12.899
 5924SOL     OW19610   0.200   9.417   6.461
 5924SOL    HW119611   0.267   9.411   6.529
 5924SOL    HW219612   0.182   9.511   6.453
 5925SOL     OW19613   9.096  10.217  13.313
 5925SOL    HW119614   9.173  10.179  13.271
 5925SOL    HW219615   9.123  10.306  13.335
 5926SOL     OW19616   9.911   8.212   3.558
 5926SOL    HW119617   9.991   8.249   3.521
 5926SOL    HW219618   9.920   8.117   3.545
 5927SOL     OW19619  14.222   4.012   2.991
 5927SOL    HW119620  14.307   4.051   3.015
 5927SOL    HW219621  14.245   3.940   2.932
 5928SOL     OW19622  11.248   4.898   3.356
 5928SOL    HW119623  11.211   4.846   3.285
 5928SOL    HW219624  11.183   4.968   3.369
 5929SOL     OW19625   3.059  14.800  11.952
 5929SOL    HW119626   3.053  14.706  11.933
 5929SOL    HW219627   2.973  14.823  11.986
 5930SOL     OW19628   0.942   9.333   0.491
 5930SOL    HW119629   0.865   9.278   0.482
 5930SOL    HW219630   0.916   9.401   0.554
 5931SOL     OW19631   4.749  13.071   4.421
 5931SOL    HW119632   4.681  13.075   4.353
 5931SOL    HW219633   4.700  13.057   4.502
 5932SOL     OW19634  13.582   7.638  10.304
 5932SOL    HW119635  13.500   7.617  10.351
 5932SOL    HW219636  13.594   7.565  10.243
 5933SOL     OW19637   8.569  11.435  11.555
 5933SOL    HW119638   8.580  11.410  11.463
 5933SOL    HW219639   8.602  11.361  11.604
 5934SOL     OW19640   6.534   9.000   8.604
 5934SOL    HW119641   6.623   8.986   8.571
 5934SOL    HW219642   6.528   9.094   8.618
 5935SOL     OW19643  12.225   8.068  12.502
 5935SOL    HW119644  12.211   7.974  12.488
 5935SOL    HW219645  12.170   8.110  12.437
 5936SOL     OW19646   7.538   6.207   1.448
 5936SOL    HW119647   7.584   6.136   1.403
 5936SOL    HW219648   7.603   6.241   1.511
 5937SOL     OW19649   6.475   3.830  12.655
 5937SOL    HW119650   6.458   3.802  12.565
 5937SOL    HW219651   6.390   3.826  12.698
 5938SOL     OW19652   8.240   2.204  11.072
 5938SOL    HW119653   8.188   2.175  11.147
 5938SOL    HW219654   8.330   2.183  11.095
 5939SOL     OW19655   8.280   1.584   4.025
 5939SOL    HW119656   8.305   1.621   4.110
 5939SOL    HW219657   8.287   1.658   3.964
 5940SOL     OW19658   5.596  10.298  13.331
 5940SOL    HW119659   5.523  10.321  13.275
 5940SOL    HW219660   5.661  10.260  13.272
 5941SOL     OW19661  14.278   0.921   4.787
 5941SOL    HW119662  14.279   0.839   4.836
 5941SOL    HW219663  14.209   0.973   4.828
 5942SOL     OW19664   3.053  10.844   3.556
 5942SOL    HW119665   3.144  10.851   3.528
 5942SOL    HW219666   3.058  10.823   3.650
 5943SOL     OW19667   5.287  10.576   9.472
 5943SOL    HW119668   5.224  10.645   9.451
 5943SOL    HW219669   5.344  10.571   9.396
 5944SOL     OW19670   8.157  13.834  13.863
 5944SOL    HW119671   8.136  13.802  13.951
 5944SOL    HW219672   8.135  13.761  13.806
 5945SOL     OW19673   9.569   9.093   3.195
 5945SOL    HW119674   9.590   9.186   3.192
 5945SOL    HW219675   9.475   9.089   3.174
 5946SOL     OW19676  11.954   9.089   5.990
 5946SOL    HW119677  11.906   9.159   5.945
 5946SOL    HW219678  11.886   9.037   6.033
 5947SOL     OW19679  10.536   6.196   3.669
 5947SOL    HW119680  10.507   6.156   3.751
 5947SOL    HW219681  10.575   6.124   3.619
 5948SOL     OW19682   6.923  14.138   2.958
 5948SOL    HW119683   6.999  14.187   2.927
 5948SOL    HW219684   6.954  14.094   3.037
 5949SOL     OW19685   9.455   4.641  14.776
 5949SOL    HW119686   9.399   4.630  14.853
 5949SOL    HW219687   9.414   4.712  14.726
 5950SOL     OW19688   4.898   3.752   6.855
 5950SOL    HW119689   4.913   3.689   6.785
 5950SOL    HW219690   4.983   3.760   6.899
 5951SOL     OW19691   4.945  11.773   0.476
 5951SOL    HW119692   4.919  11.713   0.406
 5951SOL    HW219693   5.040  11.770   0.477
 5952SOL     OW19694   0.034   3.223   5.461
 5952SOL    HW119695   0.034   3.241   5.556
 5952SOL    HW219696   0.061   3.132   5.454
 5953SOL     OW19697  11.490  13.169   2.027
 5953SOL    HW119698  11.399  13.140   2.019
 5953SOL    HW219699  11.506  13.173   2.122
 5954SOL     OW19700   4.689   0.800   2.073
 5954SOL    HW119701   4.594   0.796   2.079
 5954SOL    HW219702   4.707   0.845   1.991
 5955SOL     OW19703   8.716  10.293  11.002
 5955SOL    HW119704   8.679  10.249  11.078
 5955SOL    HW219705   8.787  10.236  10.973
 5956SOL     OW19706   3.266  13.891   1.658
 5956SOL    HW119707   3.205  13.944   1.709
 5956SOL    HW219708   3.286  13.816   1.714
 5957SOL     OW19709  13.212  10.150   4.978
 5957SOL    HW119710  13.185  10.092   4.907
 5957SOL    HW219711  13.301  10.121   5.000
 5958SOL     OW19712   9.719   4.096  14.719
 5958SOL    HW119713   9.797   4.060  14.762
 5958SOL    HW219714   9.684   4.159  14.782
 5959SOL     OW19715   4.411   4.547   2.125
 5959SOL    HW119716   4.484   4.572   2.182
 5959SOL    HW219717   4.435   4.461   2.091
 5960SOL     OW19718  12.113   9.324  10.938
 5960SOL    HW119719  12.123   9.396  11.000
 5960SOL    HW219720  12.152   9.358  10.857
 5961SOL     OW19721   2.454  13.899   2.407
 5961SOL    HW119722   2.364  13.875   2.433
 5961SOL    HW219723   2.500  13.815   2.403
 5962SOL     OW19724  14.655   5.919  14.838
 5962SOL    HW119725  14.622   6.008  14.824
 5962SOL    HW219726  14.591   5.863  14.795
 5963SOL     OW19727   0.402   5.364   9.181
 5963SOL    HW119728   0.483   5.382   9.229
 5963SOL    HW219729   0.372   5.280   9.214
 5964SOL     OW19730   3.293   4.792   4.799
 5964SOL    HW119731   3.258   4.730   4.864
 5964SOL    HW219732   3.281   4.878   4.839
 5965SOL     OW19733   1.244   5.313  11.650
 5965SOL    HW119734   1.305   5.368  11.601
 5965SOL    HW219735   1.235   5.234  11.597
 5966SOL     OW19736  10.955   5.981   4.238
 5966SOL    HW119737  10.977   5.889   4.254
 5966SOL    HW219738  11.016   6.030   4.294
 5967SOL     OW19739  11.959   1.050   1.617
 5967SOL    HW119740  12.038   0.996   1.610
 5967SOL    HW219741  11.959   1.103   1.537
 5968SOL     OW19742   4.444   4.969   4.421
 5968SOL    HW119743   4.511   4.913   4.382
 5968SOL    HW219744   4.490   5.020   4.488
 5969SOL     OW19745  12.228  11.071  11.400
 5969SOL    HW119746  12.271  11.032  11.324
 5969SOL    HW219747  12.139  11.090  11.370
 5970SOL     OW19748  13.022   0.687   5.380
 5970SOL    HW119749  13.027   0.616   5.444
 5970SOL    HW219750  13.086   0.663   5.312
 5971SOL     OW19751   5.568   5.330   0.796
 5971SOL    HW119752   5.641   5.297   0.849
 5971SOL    HW219753   5.533   5.253   0.753
 5972SOL     OW19754   0.253   0.699  10.292
 5972SOL    HW119755   0.242   0.692  10.387
 5972SOL    HW219756   0.287   0.787  10.278
 5973SOL     OW19757  11.363   8.276   7.645
 5973SOL    HW119758  11.336   8.184   7.645
 5973SOL    HW219759  11.317   8.314   7.720
 5974SOL     OW19760   8.555   8.535   4.253
 5974SOL    HW119761   8.646   8.504   4.253
 5974SOL    HW219762   8.538   8.559   4.344
 5975SOL     OW19763   2.588  10.384  10.485
 5975SOL    HW119764   2.580  10.411  10.394
 5975SOL    HW219765   2.661  10.435  10.520
 5976SOL     OW19766   8.519  10.612  13.476
 5976SOL    HW119767   8.533  10.705  13.496
 5976SOL    HW219768   8.448  10.612  13.412
 5977SOL     OW19769   9.678  12.534   3.406
 5977SOL    HW119770   9.624  12.538   3.484
 5977SOL    HW219771   9.705  12.625   3.390
 5978SOL     OW19772  10.094   3.408   5.594
 5978SOL    HW119773  10.183   3.436   5.619
 5978SOL    HW219774  10.050   3.391   5.677
 5979SOL     OW19775   6.970   5.745  13.342
 5979SOL    HW119776   6.907   5.675  13.326
 5979SOL    HW219777   7.054   5.701  13.350
 5980SOL     OW19778   0.730   2.415   1.862
 5980SOL    HW119779   0.818   2.452   1.854
 5980SOL    HW219780   0.696   2.453   1.943
 5981SOL     OW19781  10.141   4.229   0.420
 5981SOL    HW119782  10.151   4.253   0.328
 5981SOL    HW219783  10.227   4.246   0.459
 5982SOL     OW19784  11.446  10.227   7.125
 5982SOL    HW119785  11.422  10.269   7.043
 5982SOL    HW219786  11.405  10.140   7.121
 5983SOL     OW19787  12.649   9.409   3.899
 5983SOL    HW119788  12.675   9.483   3.844
 5983SOL    HW219789  12.596   9.449   3.968
 5984SOL     OW19790  13.003   5.425   7.152
 5984SOL    HW119791  13.075   5.362   7.161
 5984SOL    HW219792  12.955   5.395   7.075
 5985SOL     OW19793   1.691  13.610   9.004
 5985SOL    HW119794   1.717  13.549   8.935
 5985SOL    HW219795   1.602  13.637   8.981
 5986SOL     OW19796   3.525   2.087  11.755
 5986SOL    HW119797   3.521   2.039  11.838
 5986SOL    HW219798   3.616   2.118  11.750
 5987SOL     OW19799   9.773   4.415   8.745
 5987SOL    HW119800   9.682   4.407   8.717
 5987SOL    HW219801   9.796   4.506   8.725
 5988SOL     OW19802   9.947   8.434  11.867
 5988SOL    HW119803   9.863   8.472  11.892
 5988SOL    HW219804  10.000   8.441  11.946
 5989SOL     OW19805   0.688   1.274  12.703
 5989SOL    HW119806   0.639   1.333  12.645
 5989SOL    HW219807   0.759   1.328  12.739
 5990SOL     OW19808   9.999  11.201   4.306
 5990SOL    HW119809  10.023  11.181   4.397
 5990SOL    HW219810  10.024  11.124   4.256
 5991SOL     OW19811   6.165   7.611   2.607
 5991SOL    HW119812   6.089   7.580   2.559
 5991SOL    HW219813   6.227   7.639   2.539
 5992SOL     OW19814   8.689  14.731  14.259
 5992SOL    HW119815   8.665  14.761  14.172
 5992SOL    HW219816   8.783  14.750  14.266
 5993SOL     OW19817  12.973  10.884  10.568
 5993SOL    HW119818  12.953  10.798  10.533
 5993SOL    HW219819  12.891  10.913  10.608
 5994SOL     OW19820   0.255  10.381   4.555
 5994SOL    HW119821   0.278  10.446   4.489
 5994SOL    HW219822   0.335  10.332   4.570
 5995SOL     OW19823   4.730  11.247   5.608
 5995SOL    HW119824   4.705  11.315   5.545
 5995SOL    HW219825   4.826  11.252   5.611
 5996SOL     OW19826   1.304   7.019   2.975
 5996SOL    HW119827   1.306   6.935   3.020
 5996SOL    HW219828   1.298   6.997   2.882
 5997SOL     OW19829  10.054   8.942   8.759
 5997SOL    HW119830  10.101   9.011   8.711
 5997SOL    HW219831  10.100   8.936   8.843
 5998SOL     OW19832   6.398  14.570  10.941
 5998SOL    HW119833   6.429  14.570  11.031
 5998SOL    HW219834   6.304  14.553  10.947
 5999SOL     OW19835   8.950  12.223   6.596
 5999SOL    HW119836   8.939  12.315   6.572
 5999SOL    HW219837   9.039  12.217   6.630
 6000SOL     OW19838   9.431  14.409  12.498
 6000SOL    HW119839   9.380  14.332  12.524
 6000SOL    HW219840   9.366  14.473  12.469
 6001SOL     OW19841  11.896   8.928  10.697
 6001SOL    HW119842  11.981   8.939  10.740
 6001SOL    HW219843  11.872   8.837  10.712
 6002SOL     OW19844   5.512  10.829   3.259
 6002SOL    HW119845   5.510  10.811   3.353
 6002SOL    HW219846   5.605  10.832   3.238
 6003SOL     OW19847   3.700   9.264   6.020
 6003SOL    HW119848   3.767   9.212   5.977
 6003SOL    HW219849   3.732   9.274   6.110
 6004SOL     OW19850   0.684   2.636   9.350
 6004SOL    HW119851   0.700   2.584   9.272
 6004SOL    HW219852   0.730   2.590   9.420
 6005SOL     OW19853   3.144   7.528   1.852
 6005SOL    HW119854   3.095   7.606   1.878
 6005SOL    HW219855   3.122   7.516   1.760
 6006SOL     OW19856   7.546   2.031   7.672
 6006SOL    HW119857   7.514   1.940   7.673
 6006SOL    HW219858   7.524   2.063   7.585
 6007SOL     OW19859   3.757   8.261   0.707
 6007SOL    HW119860   3.726   8.350   0.690
 6007SOL    HW219861   3.838   8.273   0.758
 6008SOL     OW19862   2.700   5.675   4.980
 6008SOL    HW119863   2.728   5.738   4.914
 6008SOL    HW219864   2.781   5.637   5.014
 6009SOL     OW19865   2.667   4.481   0.827
 6009SOL    HW119866   2.635   4.453   0.912
 6009SOL    HW219867   2.647   4.574   0.823
 6010SOL     OW19868   2.415   3.571  14.240
 6010SOL    HW119869   2.497   3.522  14.245
 6010SOL    HW219870   2.347   3.504  14.233
 6011SOL     OW19871   1.290  10.367   1.807
 6011SOL    HW119872   1.374  10.397   1.772
 6011SOL    HW219873   1.290  10.273   1.791
 6012SOL     OW19874  11.462   1.871   4.711
 6012SOL    HW119875  11.511   1.887   4.791
 6012SOL    HW219876  11.507   1.797   4.670
 6013SOL     OW19877   5.614   9.846   7.899
 6013SOL    HW119878   5.549   9.916   7.909
 6013SOL    HW219879   5.641   9.825   7.988
 6014SOL     OW19880   7.639   0.814  10.835
 6014SOL    HW119881   7.730   0.798  10.861
 6014SOL    HW219882   7.637   0.790  10.742
 6015SOL     OW19883   6.141  10.158   9.767
 6015SOL    HW119884   6.108  10.157   9.677
 6015SOL    HW219885   6.063  10.177   9.820
 6016SOL     OW19886   3.149   9.478   9.049
 6016SOL    HW119887   3.127   9.387   9.033
 6016SOL    HW219888   3.181   9.510   8.965
 6017SOL     OW19889  13.056  11.232  10.645
 6017SOL    HW119890  12.977  11.274  10.611
 6017SOL    HW219891  13.110  11.216  10.567
 6018SOL     OW19892   0.011   8.649  12.846
 6018SOL    HW119893   0.064   8.585  12.894
 6018SOL    HW219894   0.059   8.664  12.765
 6019SOL     OW19895   6.354  13.638  12.900
 6019SOL    HW119896   6.415  13.576  12.862
 6019SOL    HW219897   6.397  13.723  12.890
 6020SOL     OW19898   3.432   6.260  10.276
 6020SOL    HW119899   3.459   6.225  10.191
 6020SOL    HW219900   3.511   6.298  10.313
 6021SOL     OW19901  14.427   2.615   4.980
 6021SOL    HW119902  14.337   2.647   4.972
 6021SOL    HW219903  14.473   2.652   4.905
 6022SOL     OW19904   6.907   5.368  10.212
 6022SOL    HW119905   6.921   5.401  10.300
 6022SOL    HW219906   6.994   5.366  10.172
 6023SOL     OW19907  11.119   0.809   8.984
 6023SOL    HW119908  11.031   0.790   8.949
 6023SOL    HW219909  11.170   0.731   8.962
 6024SOL     OW19910   2.239  10.397   4.429
 6024SOL    HW119911   2.244  10.307   4.395
 6024SOL    HW219912   2.330  10.423   4.442
 6025SOL     OW19913  13.912   7.685  13.602
 6025SOL    HW119914  13.976   7.657  13.667
 6025SOL    HW219915  13.964   7.706  13.524
 6026SOL     OW19916   5.632  13.430   8.456
 6026SOL    HW119917   5.692  13.487   8.407
 6026SOL    HW219918   5.662  13.436   8.547
 6027SOL     OW19919  14.615  10.577   6.093
 6027SOL    HW119920  14.539  10.574   6.151
 6027SOL    HW219921  14.578  10.573   6.005
 6028SOL     OW19922  13.730   7.041   4.809
 6028SOL    HW119923  13.820   7.019   4.786
 6028SOL    HW219924  13.738   7.114   4.871
 6029SOL     OW19925   0.885  11.973   1.676
 6029SOL    HW119926   0.871  12.035   1.748
 6029SOL    HW219927   0.797  11.951   1.646
 6030SOL     OW19928  12.667   2.313   2.544
 6030SOL    HW119929  12.718   2.346   2.470
 6030SOL    HW219930  12.689   2.219   2.548
 6031SOL     OW19931  10.581  14.091   1.008
 6031SOL    HW119932  10.543  14.068   0.923
 6031SOL    HW219933  10.586  14.007   1.054
 6032SOL     OW19934   8.530   2.866   1.511
 6032SOL    HW119935   8.440   2.867   1.543
 6032SOL    HW219936   8.583   2.853   1.590
 6033SOL     OW19937   6.884  12.989  12.959
 6033SOL    HW119938   6.900  13.008  13.051
 6033SOL    HW219939   6.965  12.949  12.928
 6034SOL     OW19940   9.139   3.102   9.283
 6034SOL    HW119941   9.090   3.150   9.216
 6034SOL    HW219942   9.072   3.069   9.342
 6035SOL     OW19943   2.833   6.631   8.261
 6035SOL    HW119944   2.903   6.607   8.322
 6035SOL    HW219945   2.784   6.549   8.247
 6036SOL     OW19946  13.997   8.559   2.125
 6036SOL    HW119947  13.965   8.579   2.037
 6036SOL    HW219948  14.089   8.588   2.124
 6037SOL     OW19949  14.231   5.956   8.394
 6037SOL    HW119950  14.203   6.032   8.342
 6037SOL    HW219951  14.314   5.983   8.433
 6038SOL     OW19952   8.891  11.978   8.888
 6038SOL    HW119953   8.820  11.974   8.952
 6038SOL    HW219954   8.847  11.972   8.803
 6039SOL     OW19955  14.806   9.329   8.907
 6039SOL    HW119956  14.870   9.375   8.852
 6039SOL    HW219957  14.753   9.399   8.945
 6040SOL     OW19958   5.003   0.292   2.349
 6040SOL    HW119959   5.028   0.255   2.433
 6040SOL    HW219960   4.908   0.286   2.346
 6041SOL     OW19961   1.486   8.512  13.907
 6041SOL    HW119962   1.428   8.471  13.842
 6041SOL    HW219963   1.574   8.484  13.882
 6042SOL     OW19964   6.408   5.578   2.139
 6042SOL    HW119965   6.369   5.601   2.224
 6042SOL    HW219966   6.333   5.567   2.081
 6043SOL     OW19967   5.603  14.005   9.743
 6043SOL    HW119968   5.651  14.045   9.815
 6043SOL    HW219969   5.650  14.033   9.664
 6044SOL     OW19970   5.310   8.645  12.294
 6044SOL    HW119971   5.331   8.582  12.226
 6044SOL    HW219972   5.344   8.605  12.375
 6045SOL     OW19973   9.301  14.427  13.422
 6045SOL    HW119974   9.369  14.492  13.440
 6045SOL    HW219975   9.322  14.395  13.335
 6046SOL     OW19976   9.896   6.368   7.691
 6046SOL    HW119977   9.845   6.424   7.632
 6046SOL    HW219978   9.929   6.297   7.636
 6047SOL     OW19979  10.113   3.284   3.176
 6047SOL    HW119980  10.062   3.348   3.128
 6047SOL    HW219981  10.056   3.258   3.249
 6048SOL     OW19982   0.563  12.954   4.088
 6048SOL    HW119983   0.621  13.030   4.089
 6048SOL    HW219984   0.609  12.890   4.034
 6049SOL     OW19985  14.463   1.608   0.251
 6049SOL    HW119986  14.412   1.558   0.187
 6049SOL    HW219987  14.528   1.655   0.198
 6050SOL     OW19988  14.810   7.192   0.107
 6050SOL    HW119989  14.856   7.114   0.079
 6050SOL    HW219990  14.835   7.204   0.198
 6051SOL     OW19991  10.735   9.284   0.661
 6051SOL    HW119992  10.642   9.280   0.683
 6051SOL    HW219993  10.740   9.255   0.570
 6052SOL     OW19994   6.295   8.554   7.266
 6052SOL    HW119995   6.337   8.502   7.334
 6052SOL    HW219996   6.263   8.632   7.311
 6053SOL     OW19997  14.679   3.120   3.429
 6053SOL    HW119998  14.752   3.179   3.452
 6053SOL    HW219999  14.642   3.094   3.513
 6054SOL     OW20000  14.086  14.069  11.295
 6054SOL    HW120001  14.095  14.049  11.388
 6054SOL    HW220002  14.000  14.110  11.287
 6055SOL     OW20003   3.161   6.375   6.296
 6055SOL    HW120004   3.174   6.299   6.240
 6055SOL    HW220005   3.202   6.352   6.379
 6056SOL     OW20006  12.412   8.522   9.268
 6056SOL    HW120007  12.410   8.564   9.182
 6056SOL    HW220008  12.489   8.465   9.265
 6057SOL     OW20009  11.772   9.021  14.212
 6057SOL    HW120010  11.842   9.043  14.273
 6057SOL    HW220011  11.769   9.095  14.152
 6058SOL     OW20012   6.516   5.233   2.508
 6058SOL    HW120013   6.482   5.289   2.577
 6058SOL    HW220014   6.471   5.149   2.520
 6059SOL     OW20015   9.213   4.372  14.861
 6059SOL    HW120016   9.251   4.365  14.773
 6059SOL    HW220017   9.213   4.466   0.005
 6060SOL     OW20018   9.515  14.422  14.224
 6060SOL    HW120019   9.542  14.512  14.205
 6060SOL    HW220020   9.439  14.432  14.282
 6061SOL     OW20021  11.916   7.964  11.942
 6061SOL    HW120022  11.928   7.931  11.853
 6061SOL    HW220023  11.824   7.993  11.945
 6062SOL     OW20024   5.066  12.877   7.265
 6062SOL    HW120025   4.977  12.842   7.260
 6062SOL    HW220026   5.061  12.962   7.221
 6063SOL     OW20027   7.342   3.735   3.589
 6063SOL    HW120028   7.350   3.640   3.591
 6063SOL    HW220029   7.427   3.767   3.619
 6064SOL     OW20030   8.866   7.502   6.948
 6064SOL    HW120031   8.921   7.484   6.871
 6064SOL    HW220032   8.911   7.573   6.993
 6065SOL     OW20033   1.041  11.421   4.474
 6065SOL    HW120034   1.013  11.480   4.405
 6065SOL    HW220035   1.066  11.340   4.429
 6066SOL     OW20036   2.654  13.273   8.284
 6066SOL    HW120037   2.623  13.317   8.204
 6066SOL    HW220038   2.630  13.332   8.355
 6067SOL     OW20039  10.605   2.223  12.418
 6067SOL    HW120040  10.632   2.268  12.338
 6067SOL    HW220041  10.601   2.292  12.484
 6068SOL     OW20042   2.848   4.279   4.494
 6068SOL    HW120043   2.763   4.235   4.490
 6068SOL    HW220044   2.841   4.338   4.570
 6069SOL     OW20045   8.421  11.400   7.316
 6069SOL    HW120046   8.380  11.380   7.400
 6069SOL    HW220047   8.506  11.438   7.339
 6070SOL     OW20048   6.383   6.457   0.651
 6070SOL    HW120049   6.297   6.462   0.610
 6070SOL    HW220050   6.365   6.427   0.740
 6071SOL     OW20051   7.739  12.466   4.899
 6071SOL    HW120052   7.662  12.413   4.921
 6071SOL    HW220053   7.735  12.475   4.804
 6072SOL     OW20054   5.585  12.976   2.601
 6072SOL    HW120055   5.618  12.889   2.577
 6072SOL    HW220056   5.593  13.027   2.520
 6073SOL     OW20057   5.841  14.657   7.000
 6073SOL    HW120058   5.919  14.706   7.026
 6073SOL    HW220059   5.834  14.671   6.906
 6074SOL     OW20060   9.660  13.251  11.257
 6074SOL    HW120061   9.631  13.341  11.246
 6074SOL    HW220062   9.638  13.208  11.175
 6075SOL     OW20063  11.005   9.065   8.877
 6075SOL    HW120064  10.972   9.150   8.907
 6075SOL    HW220065  10.926   9.014   8.856
 6076SOL     OW20066   5.394   1.694   2.702
 6076SOL    HW120067   5.426   1.784   2.694
 6076SOL    HW220068   5.460   1.649   2.753
 6077SOL     OW20069  13.200   9.688  11.702
 6077SOL    HW120070  13.140   9.681  11.777
 6077SOL    HW220071  13.259   9.759  11.726
 6078SOL     OW20072  14.014  14.141   3.885
 6078SOL    HW120073  13.942  14.101   3.934
 6078SOL    HW220074  14.015  14.094   3.802
 6079SOL     OW20075   3.532   7.191   3.873
 6079SOL    HW120076   3.593   7.147   3.813
 6079SOL    HW220077   3.576   7.272   3.897
 6080SOL     OW20078   6.366   8.419  10.190
 6080SOL    HW120079   6.384   8.364  10.266
 6080SOL    HW220080   6.320   8.362  10.129
 6081SOL     OW20081   7.201  13.868   2.770
 6081SOL    HW120082   7.248  13.785   2.761
 6081SOL    HW220083   7.260  13.923   2.822
 6082SOL     OW20084   0.423   1.455  10.045
 6082SOL    HW120085   0.399   1.512  10.118
 6082SOL    HW220086   0.457   1.515   9.979
 6083SOL     OW20087   9.330  10.417   0.176
 6083SOL    HW120088   9.238  10.391   0.179
 6083SOL    HW220089   9.377  10.337   0.158
 6084SOL     OW20090  11.983   9.913   0.809
 6084SOL    HW120091  11.891   9.939   0.809
 6084SOL    HW220092  11.983   9.825   0.773
 6085SOL     OW20093  11.952  13.141   0.599
 6085SOL    HW120094  11.925  13.177   0.514
 6085SOL    HW220095  11.947  13.046   0.588
 6086SOL     OW20096   0.639   7.214  14.023
 6086SOL    HW120097   0.580   7.288  14.014
 6086SOL    HW220098   0.655   7.206  14.117
 6087SOL     OW20099   3.224  13.053  14.283
 6087SOL    HW120100   3.206  12.996  14.208
 6087SOL    HW220101   3.159  13.123  14.275
 6088SOL     OW20102  12.776   0.132   7.246
 6088SOL    HW120103  12.694   0.138   7.294
 6088SOL    HW220104  12.756   0.078   7.170
 6089SOL     OW20105  11.538   3.562   0.961
 6089SOL    HW120106  11.582   3.492   1.010
 6089SOL    HW220107  11.592   3.572   0.882
 6090SOL     OW20108   9.366  10.379   8.331
 6090SOL    HW120109   9.378  10.391   8.237
 6090SOL    HW220110   9.287  10.429   8.352
 6091SOL     OW20111   1.508   6.019   7.513
 6091SOL    HW120112   1.422   6.015   7.473
 6091SOL    HW220113   1.500   6.087   7.580
 6092SOL     OW20114  14.583  12.547  10.735
 6092SOL    HW120115  14.664  12.535  10.684
 6092SOL    HW220116  14.527  12.599  10.678
 6093SOL     OW20117  13.235  13.103   7.418
 6093SOL    HW120118  13.292  13.160   7.469
 6093SOL    HW220119  13.266  13.015   7.437
 6094SOL     OW20120   4.685  14.715   1.968
 6094SOL    HW120121   4.667  14.787   1.907
 6094SOL    HW220122   4.629  14.644   1.938
 6095SOL     OW20123  10.643   4.075   5.961
 6095SOL    HW120124  10.720   4.018   5.965
 6095SOL    HW220125  10.623   4.082   5.867
 6096SOL     OW20126  14.234  13.444  14.686
 6096SOL    HW120127  14.244  13.533  14.650
 6096SOL    HW220128  14.269  13.387  14.617
 6097SOL     OW20129  11.698   0.951  11.068
 6097SOL    HW120130  11.651   0.868  11.081
 6097SOL    HW220131  11.721   0.950  10.975
 6098SOL     OW20132   5.272   0.975  11.693
 6098SOL    HW120133   5.211   1.048  11.696
 6098SOL    HW220134   5.262   0.932  11.778
 6099SOL     OW20135   1.145   3.194   9.097
 6099SOL    HW120136   1.108   3.106   9.105
 6099SOL    HW220137   1.236   3.180   9.073
 6100SOL     OW20138  10.226  12.211   7.665
 6100SOL    HW120139  10.290  12.215   7.593
 6100SOL    HW220140  10.159  12.150   7.634
 6101SOL     OW20141   7.467   1.698  13.230
 6101SOL    HW120142   7.413   1.730  13.158
 6101SOL    HW220143   7.438   1.608  13.243
 6102SOL     OW20144   2.606   4.463   1.965
 6102SOL    HW120145   2.587   4.418   1.883
 6102SOL    HW220146   2.530   4.444   2.020
 6103SOL     OW20147   3.419  10.724   2.231
 6103SOL    HW120148   3.458  10.706   2.145
 6103SOL    HW220149   3.402  10.637   2.268
 6104SOL     OW20150   3.320   4.264   4.370
 6104SOL    HW120151   3.302   4.358   4.361
 6104SOL    HW220152   3.395   4.248   4.312
 6105SOL     OW20153   8.177   8.908   7.353
 6105SOL    HW120154   8.184   8.832   7.411
 6105SOL    HW220155   8.261   8.910   7.306
 6106SOL     OW20156  14.440   7.452   4.932
 6106SOL    HW120157  14.369   7.458   4.996
 6106SOL    HW220158  14.407   7.391   4.866
 6107SOL     OW20159   9.755   7.632  12.001
 6107SOL    HW120160   9.816   7.687  12.049
 6107SOL    HW220161   9.670   7.646  12.043
 6108SOL     OW20162   0.713   6.844  12.623
 6108SOL    HW120163   0.699   6.932  12.588
 6108SOL    HW220164   0.664   6.787  12.564
 6109SOL     OW20165   2.917   2.729   1.905
 6109SOL    HW120166   2.900   2.638   1.882
 6109SOL    HW220167   2.847   2.778   1.862
 6110SOL     OW20168   7.777  13.898   1.806
 6110SOL    HW120169   7.772  13.803   1.800
 6110SOL    HW220170   7.784  13.916   1.900
 6111SOL     OW20171   6.949   6.325  10.977
 6111SOL    HW120172   6.856   6.325  10.955
 6111SOL    HW220173   6.993   6.307  10.893
 6112SOL     OW20174   5.721   9.229   2.169
 6112SOL    HW120175   5.675   9.286   2.230
 6112SOL    HW220176   5.770   9.289   2.112
 6113SOL     OW20177   9.436   6.462  13.095
 6113SOL    HW120178   9.345   6.443  13.072
 6113SOL    HW220179   9.451   6.551  13.062
 6114SOL     OW20180  12.327   5.063   2.846
 6114SOL    HW120181  12.357   5.018   2.767
 6114SOL    HW220182  12.283   4.995   2.897
 6115SOL     OW20183   8.587   1.459   4.000
 6115SOL    HW120184   8.514   1.520   4.009
 6115SOL    HW220185   8.550   1.383   3.955
 6116SOL     OW20186  14.192   8.821   8.173
 6116SOL    HW120187  14.116   8.869   8.206
 6116SOL    HW220188  14.217   8.868   8.093
 6117SOL     OW20189   9.057   1.789   7.513
 6117SOL    HW120190   9.133   1.732   7.513
 6117SOL    HW220191   9.076   1.856   7.447
 6118SOL     OW20192   9.062   4.933  11.497
 6118SOL    HW120193   9.040   4.867  11.431
 6118SOL    HW220194   9.008   4.908  11.573
 6119SOL     OW20195  12.283   5.602   8.204
 6119SOL    HW120196  12.199   5.637   8.235
 6119SOL    HW220197  12.330   5.679   8.171
 6120SOL     OW20198  12.401   1.885  13.441
 6120SOL    HW120199  12.390   1.866  13.534
 6120SOL    HW220200  12.420   1.800  13.402
 6121SOL     OW20201   8.798   0.482  12.092
 6121SOL    HW120202   8.807   0.577  12.094
 6121SOL    HW220203   8.869   0.450  12.147
 6122SOL     OW20204   2.271   7.300   3.911
 6122SOL    HW120205   2.177   7.291   3.928
 6122SOL    HW220206   2.288   7.394   3.915
 6123SOL     OW20207  13.615  11.191  10.831
 6123SOL    HW120208  13.663  11.226  10.906
 6123SOL    HW220209  13.597  11.100  10.853
 6124SOL     OW20210  14.745   9.335   7.518
 6124SOL    HW120211  14.794   9.385   7.583
 6124SOL    HW220212  14.672   9.297   7.568
 6125SOL     OW20213  14.466  14.731  13.324
 6125SOL    HW120214  14.513  14.684  13.255
 6125SOL    HW220215  14.534  14.781  13.370
 6126SOL     OW20216   1.916   6.584   5.584
 6126SOL    HW120217   1.914   6.676   5.612
 6126SOL    HW220218   1.969   6.540   5.650
 6127SOL     OW20219   3.994   9.495   6.301
 6127SOL    HW120220   4.069   9.523   6.249
 6127SOL    HW220221   4.017   9.518   6.391
 6128SOL     OW20222   9.660  10.490  13.262
 6128SOL    HW120223   9.659  10.554  13.192
 6128SOL    HW220224   9.596  10.523  13.326
 6129SOL     OW20225   8.487   0.524  11.694
 6129SOL    HW120226   8.444   0.483  11.769
 6129SOL    HW220227   8.501   0.615  11.720
 6130SOL     OW20228   4.717   0.249   4.685
 6130SOL    HW120229   4.790   0.205   4.727
 6130SOL    HW220230   4.673   0.296   4.756
 6131SOL     OW20231   2.039   2.813  14.762
 6131SOL    HW120232   2.036   2.717  14.752
 6131SOL    HW220233   2.009   2.829  14.852
 6132SOL     OW20234   5.118  10.709   2.252
 6132SOL    HW120235   5.039  10.669   2.288
 6132SOL    HW220236   5.103  10.711   2.157
 6133SOL     OW20237   4.797  10.839   4.570
 6133SOL    HW120238   4.759  10.883   4.493
 6133SOL    HW220239   4.807  10.748   4.542
 6134SOL     OW20240   9.235   9.973   2.071
 6134SOL    HW120241   9.166   9.990   2.006
 6134SOL    HW220242   9.230  10.048   2.131
 6135SOL     OW20243  14.207   3.333   5.880
 6135SOL    HW120244  14.255   3.280   5.817
 6135SOL    HW220245  14.233   3.298   5.965
 6136SOL     OW20246   9.274  13.208  13.164
 6136SOL    HW120247   9.210  13.250  13.107
 6136SOL    HW220248   9.265  13.114  13.145
 6137SOL     OW20249  13.002   0.549   4.522
 6137SOL    HW120250  13.039   0.490   4.456
 6137SOL    HW220251  13.057   0.627   4.517
 6138SOL     OW20252   8.667   3.190   8.491
 6138SOL    HW120253   8.689   3.268   8.542
 6138SOL    HW220254   8.667   3.219   8.400
 6139SOL     OW20255  10.511   8.891   1.263
 6139SOL    HW120256  10.524   8.855   1.350
 6139SOL    HW220257  10.562   8.834   1.205
 6140SOL     OW20258  14.308   6.657  13.895
 6140SOL    HW120259  14.335   6.742  13.861
 6140SOL    HW220260  14.299   6.602  13.817
 6141SOL     OW20261  14.226   2.058   7.022
 6141SOL    HW120262  14.210   1.965   7.010
 6141SOL    HW220263  14.148   2.091   7.068
 6142SOL     OW20264   7.144   3.870   6.992
 6142SOL    HW120265   7.070   3.918   6.957
 6142SOL    HW220266   7.118   3.778   6.986
 6143SOL     OW20267   4.269   5.174   7.302
 6143SOL    HW120268   4.342   5.146   7.358
 6143SOL    HW220269   4.271   5.112   7.228
 6144SOL     OW20270   9.324  13.686  14.458
 6144SOL    HW120271   9.388  13.699  14.528
 6144SOL    HW220272   9.241  13.717  14.495
 6145SOL     OW20273   9.137  10.963   4.064
 6145SOL    HW120274   9.185  10.989   3.985
 6145SOL    HW220275   9.048  10.945   4.033
 6146SOL     OW20276   4.128   3.768   4.769
 6146SOL    HW120277   4.119   3.675   4.746
 6146SOL    HW220278   4.192   3.768   4.840
 6147SOL     OW20279   4.032  10.199   4.389
 6147SOL    HW120280   4.116  10.244   4.392
 6147SOL    HW220281   3.968  10.269   4.374
 6148SOL     OW20282   0.045  12.340  14.599
 6148SOL    HW120283   0.106  12.412  14.616
 6148SOL    HW220284   0.044  12.290  14.681
 6149SOL     OW20285   1.759   4.248  14.231
 6149SOL    HW120286   1.848   4.222  14.205
 6149SOL    HW220287   1.732   4.311  14.164
 6150SOL     OW20288   3.377  11.517  11.306
 6150SOL    HW120289   3.294  11.470  11.315
 6150SOL    HW220290   3.388  11.564  11.388
 6151SOL     OW20291   3.248   8.528  14.168
 6151SOL    HW120292   3.240   8.433  14.178
 6151SOL    HW220293   3.164   8.562  14.200
 6152SOL     OW20294   3.105   9.245   6.737
 6152SOL    HW120295   3.071   9.272   6.652
 6152SOL    HW220296   3.181   9.190   6.716
 6153SOL     OW20297   3.132   2.770  11.468
 6153SOL    HW120298   3.104   2.847  11.518
 6153SOL    HW220299   3.151   2.704  11.534
 6154SOL     OW20300  11.741   7.196   0.538
 6154SOL    HW120301  11.834   7.195   0.515
 6154SOL    HW220302  11.708   7.111   0.510
 6155SOL     OW20303   8.990   9.798   9.435
 6155SOL    HW120304   9.007   9.764   9.523
 6155SOL    HW220305   8.898   9.776   9.418
 6156SOL     OW20306   6.603   6.052   7.141
 6156SOL    HW120307   6.654   6.042   7.221
 6156SOL    HW220308   6.522   6.095   7.170
 6157SOL     OW20309   7.953   8.226  12.638
 6157SOL    HW120310   7.989   8.299  12.689
 6157SOL    HW220311   7.922   8.163  12.702
 6158SOL     OW20312   2.358   3.057   0.048
 6158SOL    HW120313   2.340   2.995  14.851
 6158SOL    HW220314   2.272   3.072   0.088
 6159SOL     OW20315   7.227   6.219  12.686
 6159SOL    HW120316   7.174   6.298  12.697
 6159SOL    HW220317   7.202   6.163  12.759
 6160SOL     OW20318   4.927   9.870   4.573
 6160SOL    HW120319   4.940   9.810   4.500
 6160SOL    HW220320   5.014   9.882   4.611
 6161SOL     OW20321  10.998   0.047   9.297
 6161SOL    HW120322  11.072   0.041   9.358
 6161SOL    HW220323  10.947  14.842   9.314
 6162SOL     OW20324  12.748   5.992  11.946
 6162SOL    HW120325  12.681   5.925  11.958
 6162SOL    HW220326  12.712   6.050  11.879
 6163SOL     OW20327   1.620   9.794   7.292
 6163SOL    HW120328   1.643   9.701   7.282
 6163SOL    HW220329   1.527   9.797   7.270
 6164SOL     OW20330   3.295  13.770   7.916
 6164SOL    HW120331   3.259  13.855   7.893
 6164SOL    HW220332   3.227  13.728   7.968
 6165SOL     OW20333  10.534   6.288   1.648
 6165SOL    HW120334  10.470   6.296   1.718
 6165SOL    HW220335  10.516   6.203   1.607
 6166SOL     OW20336  13.888  11.918   0.252
 6166SOL    HW120337  13.891  11.995   0.309
 6166SOL    HW220338  13.863  11.846   0.309
 6167SOL     OW20339   4.100  10.013   7.511
 6167SOL    HW120340   4.164   9.982   7.447
 6167SOL    HW220341   4.122   9.965   7.591
 6168SOL     OW20342  11.804   5.435  10.549
 6168SOL    HW120343  11.719   5.427  10.507
 6168SOL    HW220344  11.786   5.430  10.643
 6169SOL     OW20345   1.545  10.869  12.038
 6169SOL    HW120346   1.454  10.838  12.035
 6169SOL    HW220347   1.589  10.806  12.095
 6170SOL     OW20348   6.730   0.401  10.062
 6170SOL    HW120349   6.736   0.474  10.124
 6170SOL    HW220350   6.818   0.364  10.061
 6171SOL     OW20351   0.749  14.575  12.937
 6171SOL    HW120352   0.714  14.657  12.900
 6171SOL    HW220353   0.831  14.562  12.890
 6172SOL     OW20354   3.414  11.379  10.927
 6172SOL    HW120355   3.377  11.356  10.841
 6172SOL    HW220356   3.351  11.441  10.963
 6173SOL     OW20357  11.910  13.278  13.120
 6173SOL    HW120358  11.917  13.251  13.029
 6173SOL    HW220359  11.882  13.198  13.166
 6174SOL     OW20360   5.213   8.495   4.141
 6174SOL    HW120361   5.134   8.477   4.192
 6174SOL    HW220362   5.182   8.499   4.050
 6175SOL     OW20363   1.181   5.720  11.398
 6175SOL    HW120364   1.196   5.756  11.311
 6175SOL    HW220365   1.218   5.785  11.458
 6176SOL     OW20366   7.675   2.840   5.406
 6176SOL    HW120367   7.582   2.822   5.416
 6176SOL    HW220368   7.691   2.916   5.462
 6177SOL     OW20369   1.399  13.684   6.900
 6177SOL    HW120370   1.477  13.726   6.864
 6177SOL    HW220371   1.331  13.750   6.896
 6178SOL     OW20372   0.910   1.678   5.677
 6178SOL    HW120373   0.827   1.685   5.723
 6178SOL    HW220374   0.899   1.605   5.616
 6179SOL     OW20375  13.321   9.025  13.891
 6179SOL    HW120376  13.355   9.105  13.930
 6179SOL    HW220377  13.370   8.955  13.933
 6180SOL     OW20378   1.004   3.601   3.762
 6180SOL    HW120379   1.072   3.587   3.828
 6180SOL    HW220380   0.941   3.659   3.804
 6181SOL     OW20381   5.712  13.156  13.399
 6181SOL    HW120382   5.761  13.206  13.464
 6181SOL    HW220383   5.777  13.098  13.359
 6182SOL     OW20384  12.297   4.209  10.894
 6182SOL    HW120385  12.266   4.298  10.912
 6182SOL    HW220386  12.217   4.159  10.878
 6183SOL     OW20387   9.810   3.182  13.756
 6183SOL    HW120388   9.883   3.123  13.774
 6183SOL    HW220389   9.746   3.162  13.824
 6184SOL     OW20390  14.289   2.043   3.284
 6184SOL    HW120391  14.242   1.961   3.300
 6184SOL    HW220392  14.286   2.055   3.189
 6185SOL     OW20393  10.445  11.692  10.426
 6185SOL    HW120394  10.482  11.710  10.340
 6185SOL    HW220395  10.511  11.724  10.488
 6186SOL     OW20396  14.830   5.358   1.426
 6186SOL    HW120397   0.033   5.400   1.465
 6186SOL    HW220398  14.864   5.278   1.386
 6187SOL     OW20399   8.069  10.670   4.296
 6187SOL    HW120400   8.164  10.669   4.302
 6187SOL    HW220401   8.039  10.700   4.383
 6188SOL     OW20402   2.179   7.066   8.507
 6188SOL    HW120403   2.227   7.049   8.589
 6188SOL    HW220404   2.239   7.038   8.438
 6189SOL     OW20405  12.709  10.956   9.568
 6189SOL    HW120406  12.694  10.945   9.474
 6189SOL    HW220407  12.795  10.918   9.584
 6190SOL     OW20408   2.468   0.975   0.733
 6190SOL    HW120409   2.535   0.911   0.709
 6190SOL    HW220410   2.503   1.018   0.811
 6191SOL     OW20411   9.800   6.653  13.962
 6191SOL    HW120412   9.886   6.637  14.001
 6191SOL    HW220413   9.770   6.567  13.934
 6192SOL     OW20414  13.918   1.669   6.278
 6192SOL    HW120415  13.985   1.610   6.243
 6192SOL    HW220416  13.871   1.617   6.343
 6193SOL     OW20417   0.959   4.788  14.321
 6193SOL    HW120418   0.886   4.730  14.343
 6193SOL    HW220419   1.022   4.732  14.276
 6194SOL     OW20420   4.339   0.161  10.414
 6194SOL    HW120421   4.343   0.090  10.350
 6194SOL    HW220422   4.410   0.221  10.388
 6195SOL     OW20423   9.567   7.264  12.681
 6195SOL    HW120424   9.631   7.247  12.612
 6195SOL    HW220425   9.485   7.279  12.634
 6196SOL     OW20426   3.079   5.167   9.006
 6196SOL    HW120427   3.038   5.225   8.942
 6196SOL    HW220428   3.016   5.161   9.078
 6197SOL     OW20429   0.653   9.011   3.302
 6197SOL    HW120430   0.696   8.975   3.379
 6197SOL    HW220431   0.673   8.949   3.232
 6198SOL     OW20432  11.955   6.993  13.429
 6198SOL    HW120433  11.954   7.074  13.378
 6198SOL    HW220434  11.926   7.019  13.516
 6199SOL     OW20435   7.503  12.876   1.316
 6199SOL    HW120436   7.506  12.828   1.399
 6199SOL    HW220437   7.570  12.943   1.325
 6200SOL     OW20438   7.372   2.120  13.999
 6200SOL    HW120439   7.421   2.094  13.921
 6200SOL    HW220440   7.363   2.039  14.050
 6201SOL     OW20441  14.722   7.623   7.479
 6201SOL    HW120442  14.746   7.638   7.570
 6201SOL    HW220443  14.656   7.689   7.459
 6202SOL     OW20444  14.222  14.543   3.858
 6202SOL    HW120445  14.316  14.538   3.877
 6202SOL    HW220446  14.213  14.499   3.773
 6203SOL     OW20447  12.743  12.028   5.684
 6203SOL    HW120448  12.679  11.964   5.714
 6203SOL    HW220449  12.827  11.997   5.718
 6204SOL     OW20450   4.603  13.284   8.706
 6204SOL    HW120451   4.693  13.252   8.704
 6204SOL    HW220452   4.550  13.205   8.710
 6205SOL     OW20453   9.902  14.094   4.844
 6205SOL    HW120454   9.916  14.131   4.757
 6205SOL    HW220455   9.807  14.093   4.854
 6206SOL     OW20456   8.117   6.872   3.596
 6206SOL    HW120457   8.080   6.842   3.513
 6206SOL    HW220458   8.063   6.947   3.620
 6207SOL     OW20459  11.935   5.763  12.755
 6207SOL    HW120460  11.934   5.693  12.690
 6207SOL    HW220461  11.843   5.786  12.767
 6208SOL     OW20462  13.372  11.230  11.719
 6208SOL    HW120463  13.348  11.142  11.691
 6208SOL    HW220464  13.468  11.231  11.718
 6209SOL     OW20465   7.788   2.434   8.646
 6209SOL    HW120466   7.705   2.442   8.693
 6209SOL    HW220467   7.844   2.380   8.702
 6210SOL     OW20468   8.633  11.684  14.460
 6210SOL    HW120469   8.643  11.611  14.521
 6210SOL    HW220470   8.649  11.762  14.513
 6211SOL     OW20471   8.273  12.746   4.287
 6211SOL    HW120472   8.190  12.714   4.252
 6211SOL    HW220473   8.248  12.804   4.359
 6212SOL     OW20474   9.062  12.610   9.250
 6212SOL    HW120475   8.983  12.580   9.206
 6212SOL    HW220476   9.128  12.545   9.227
 6213SOL     OW20477  11.189   1.684  12.872
 6213SOL    HW120478  11.237   1.628  12.933
 6213SOL    HW220479  11.172   1.764  12.921
 6214SOL     OW20480  10.371   1.033   9.808
 6214SOL    HW120481  10.453   1.040   9.760
 6214SOL    HW220482  10.394   0.994   9.891
 6215SOL     OW20483   2.553  11.699   1.926
 6215SOL    HW120484   2.552  11.610   1.892
 6215SOL    HW220485   2.493  11.697   2.000
 6216SOL     OW20486  11.291   7.242  11.414
 6216SOL    HW120487  11.280   7.157  11.371
 6216SOL    HW220488  11.284   7.306  11.343
 6217SOL     OW20489  10.603   7.314  12.258
 6217SOL    HW120490  10.546   7.388  12.279
 6217SOL    HW220491  10.601   7.259  12.336
 6218SOL     OW20492   4.675  10.297   8.621
 6218SOL    HW120493   4.653  10.346   8.700
 6218SOL    HW220494   4.705  10.364   8.560
 6219SOL     OW20495   8.259   4.862   9.564
 6219SOL    HW120496   8.227   4.945   9.597
 6219SOL    HW220497   8.283   4.812   9.642
 6220SOL     OW20498   3.154  10.070   9.161
 6220SOL    HW120499   3.201  10.103   9.237
 6220SOL    HW220500   3.220  10.064   9.092
 6221SOL     OW20501   1.271  12.672   0.796
 6221SOL    HW120502   1.281  12.763   0.767
 6221SOL    HW220503   1.177  12.656   0.792
 6222SOL     OW20504   6.622   2.251   0.688
 6222SOL    HW120505   6.582   2.245   0.774
 6222SOL    HW220506   6.663   2.165   0.675
 6223SOL     OW20507   5.590   6.769   0.466
 6223SOL    HW120508   5.500   6.738   0.457
 6223SOL    HW220509   5.604   6.823   0.388
 6224SOL     OW20510   2.706   3.058  13.679
 6224SOL    HW120511   2.678   3.143  13.712
 6224SOL    HW220512   2.732   3.009  13.757
 6225SOL     OW20513   7.469  11.089   1.392
 6225SOL    HW120514   7.538  11.134   1.343
 6225SOL    HW220515   7.449  11.147   1.465
 6226SOL     OW20516   3.993   2.558   7.434
 6226SOL    HW120517   3.924   2.564   7.499
 6226SOL    HW220518   4.018   2.649   7.417
 6227SOL     OW20519   0.756  10.344  13.308
 6227SOL    HW120520   0.707  10.267  13.336
 6227SOL    HW220521   0.848  10.322  13.328
 6228SOL     OW20522   2.399   9.065   6.695
 6228SOL    HW120523   2.361   9.053   6.608
 6228SOL    HW220524   2.404   8.977   6.732
 6229SOL     OW20525   4.568  10.964   7.670
 6229SOL    HW120526   4.540  10.876   7.646
 6229SOL    HW220527   4.639  10.985   7.609
 6230SOL     OW20528  10.555  13.393   3.781
 6230SOL    HW120529  10.563  13.389   3.877
 6230SOL    HW220530  10.480  13.450   3.766
 6231SOL     OW20531  13.588   4.304   9.339
 6231SOL    HW120532  13.577   4.351   9.256
 6231SOL    HW220533  13.682   4.289   9.346
 6232SOL     OW20534   4.485   4.525  10.723
 6232SOL    HW120535   4.503   4.488  10.809
 6232SOL    HW220536   4.561   4.580  10.703
 6233SOL     OW20537   2.442   4.151  11.538
 6233SOL    HW120538   2.530   4.175  11.509
 6233SOL    HW220539   2.426   4.205  11.615
 6234SOL     OW20540   3.788   1.624   6.727
 6234SOL    HW120541   3.751   1.565   6.661
 6234SOL    HW220542   3.809   1.704   6.679
 6235SOL     OW20543   5.909   3.556  14.415
 6235SOL    HW120544   5.933   3.516  14.331
 6235SOL    HW220545   5.956   3.639  14.415
 6236SOL     OW20546   9.589  10.587   9.483
 6236SOL    HW120547   9.570  10.657   9.420
 6236SOL    HW220548   9.607  10.510   9.428
 6237SOL     OW20549  13.874  13.949  12.666
 6237SOL    HW120550  13.852  13.906  12.748
 6237SOL    HW220551  13.919  14.030  12.692
 6238SOL     OW20552   0.022   2.015   7.725
 6238SOL    HW120553   0.006   2.046   7.636
 6238SOL    HW220554   0.091   1.949   7.716
 6239SOL     OW20555   0.268  11.646  12.969
 6239SOL    HW120556   0.255  11.570  13.026
 6239SOL    HW220557   0.187  11.651  12.918
 6240SOL     OW20558   8.708   0.431  13.294
 6240SOL    HW120559   8.694   0.502  13.358
 6240SOL    HW220560   8.688   0.351  13.342
 6241SOL     OW20561  11.016  10.458   3.797
 6241SOL    HW120562  11.102  10.422   3.820
 6241SOL    HW220563  11.028  10.553   3.801
 6242SOL     OW20564  13.093   2.676   3.162
 6242SOL    HW120565  13.066   2.768   3.160
 6242SOL    HW220566  13.044   2.639   3.236
 6243SOL     OW20567   0.611  11.322   8.419
 6243SOL    HW120568   0.587  11.254   8.482
 6243SOL    HW220569   0.706  11.323   8.421
 6244SOL     OW20570   3.991  10.422   3.124
 6244SOL    HW120571   4.013  10.508   3.087
 6244SOL    HW220572   4.070  10.370   3.112
 6245SOL     OW20573   0.049   7.008   2.895
 6245SOL    HW120574  14.874   7.090   2.890
 6245SOL    HW220575   0.005   6.959   2.964
 6246SOL     OW20576   2.459   6.605   5.132
 6246SOL    HW120577   2.532   6.659   5.100
 6246SOL    HW220578   2.482   6.584   5.222
 6247SOL     OW20579  12.484   2.856   0.054
 6247SOL    HW120580  12.443   2.769   0.051
 6247SOL    HW220581  12.412   2.915   0.076
 6248SOL     OW20582   7.571  10.721   8.218
 6248SOL    HW120583   7.641  10.656   8.223
 6248SOL    HW220584   7.555  10.733   8.125
 6249SOL     OW20585   7.808   3.603  12.715
 6249SOL    HW120586   7.741   3.612  12.782
 6249SOL    HW220587   7.764   3.563  12.640
 6250SOL     OW20588  12.653   5.571   5.512
 6250SOL    HW120589  12.736   5.545   5.472
 6250SOL    HW220590  12.586   5.546   5.449
 6251SOL     OW20591   8.142   0.739   8.286
 6251SOL    HW120592   8.222   0.687   8.283
 6251SOL    HW220593   8.145   0.793   8.207
 6252SOL     OW20594   7.215   2.114   4.553
 6252SOL    HW120595   7.156   2.118   4.478
 6252SOL    HW220596   7.183   2.181   4.613
 6253SOL     OW20597   0.282   4.588  13.450
 6253SOL    HW120598   0.190   4.562  13.446
 6253SOL    HW220599   0.320   4.556  13.369
 6254SOL     OW20600   2.574   9.519   7.352
 6254SOL    HW120601   2.509   9.460   7.388
 6254SOL    HW220602   2.582   9.494   7.260
 6255SOL     OW20603   9.222  12.697   7.092
 6255SOL    HW120604   9.222  12.618   7.039
 6255SOL    HW220605   9.314  12.726   7.091
 6256SOL     OW20606   5.780   0.100  10.185
 6256SOL    HW120607   5.731   0.182  10.192
 6256SOL    HW220608   5.731   0.038  10.239
 6257SOL     OW20609   6.941  10.705  13.144
 6257SOL    HW120610   6.956  10.718  13.050
 6257SOL    HW220611   6.862  10.756  13.163
 6258SOL     OW20612   5.400   8.614   3.313
 6258SOL    HW120613   5.322   8.571   3.280
 6258SOL    HW220614   5.395   8.604   3.408
 6259SOL     OW20615   6.382   5.534   4.746
 6259SOL    HW120616   6.319   5.559   4.679
 6259SOL    HW220617   6.387   5.439   4.741
 6260SOL     OW20618   3.521   9.201  13.746
 6260SOL    HW120619   3.516   9.296  13.752
 6260SOL    HW220620   3.607   9.183  13.708
 6261SOL     OW20621   0.761   1.589   9.793
 6261SOL    HW120622   0.827   1.655   9.815
 6261SOL    HW220623   0.791   1.509   9.837
 6262SOL     OW20624  14.312   8.524   9.868
 6262SOL    HW120625  14.292   8.508   9.960
 6262SOL    HW220626  14.392   8.475   9.851
 6263SOL     OW20627   6.899   9.144  13.983
 6263SOL    HW120628   6.850   9.130  13.901
 6263SOL    HW220629   6.988   9.166  13.954
 6264SOL     OW20630   9.025  11.176  13.422
 6264SOL    HW120631   9.014  11.146  13.513
 6264SOL    HW220632   9.118  11.163  13.404
 6265SOL     OW20633   3.181   2.456   4.730
 6265SOL    HW120634   3.180   2.537   4.782
 6265SOL    HW220635   3.127   2.476   4.654
 6266SOL     OW20636   4.369  11.900  12.420
 6266SOL    HW120637   4.329  11.985  12.402
 6266SOL    HW220638   4.345  11.881  12.511
 6267SOL     OW20639   5.900   2.732   6.766
 6267SOL    HW120640   5.934   2.807   6.815
 6267SOL    HW220641   5.946   2.656   6.802
 6268SOL     OW20642   2.260   1.827   9.976
 6268SOL    HW120643   2.290   1.896  10.035
 6268SOL    HW220644   2.303   1.846   9.892
 6269SOL     OW20645   9.922   4.920   6.240
 6269SOL    HW120646   9.950   4.862   6.169
 6269SOL    HW220647  10.003   4.950   6.280
 6270SOL     OW20648   5.502   5.566   2.241
 6270SOL    HW120649   5.507   5.651   2.197
 6270SOL    HW220650   5.509   5.587   2.334
 6271SOL     OW20651   9.462  14.511   4.884
 6271SOL    HW120652   9.398  14.440   4.887
 6271SOL    HW220653   9.521  14.487   4.813
 6272SOL     OW20654   1.681   6.679  12.337
 6272SOL    HW120655   1.760   6.649  12.292
 6272SOL    HW220656   1.713   6.734  12.408
 6273SOL     OW20657   9.163   1.606  10.619
 6273SOL    HW120658   9.171   1.545  10.693
 6273SOL    HW220659   9.205   1.561  10.546
 6274SOL     OW20660   9.173   3.978   3.706
 6274SOL    HW120661   9.171   3.957   3.799
 6274SOL    HW220662   9.223   4.059   3.701
 6275SOL     OW20663   4.889   0.137  14.230
 6275SOL    HW120664   4.946   0.201  14.271
 6275SOL    HW220665   4.865   0.176  14.146
 6276SOL     OW20666  10.226   8.200   9.833
 6276SOL    HW120667  10.200   8.281   9.789
 6276SOL    HW220668  10.276   8.229   9.909
 6277SOL     OW20669   3.380   5.248   0.319
 6277SOL    HW120670   3.446   5.193   0.360
 6277SOL    HW220671   3.415   5.337   0.327
 6278SOL     OW20672   2.368   7.699   6.838
 6278SOL    HW120673   2.357   7.662   6.925
 6278SOL    HW220674   2.462   7.705   6.825
 6279SOL     OW20675   1.491   8.441   1.079
 6279SOL    HW120676   1.548   8.496   1.026
 6279SOL    HW220677   1.551   8.382   1.125
 6280SOL     OW20678   5.437  13.799   1.031
 6280SOL    HW120679   5.348  13.830   1.015
 6280SOL    HW220680   5.428  13.704   1.045
 6281SOL     OW20681  14.351  12.370  13.349
 6281SOL    HW120682  14.363  12.310  13.422
 6281SOL    HW220683  14.287  12.434  13.379
 6282SOL     OW20684   5.562  12.637   3.427
 6282SOL    HW120685   5.588  12.545   3.424
 6282SOL    HW220686   5.557  12.658   3.521
 6283SOL     OW20687  11.774   8.757   0.603
 6283SOL    HW120688  11.807   8.670   0.582
 6283SOL    HW220689  11.771   8.759   0.699
 6284SOL     OW20690   8.613   8.832  13.780
 6284SOL    HW120691   8.534   8.874  13.813
 6284SOL    HW220692   8.680   8.899  13.786
 6285SOL     OW20693  12.904  11.396  12.627
 6285SOL    HW120694  12.980  11.440  12.588
 6285SOL    HW220695  12.857  11.359  12.552
 6286SOL     OW20696   7.988   3.473   8.209
 6286SOL    HW120697   8.015   3.412   8.141
 6286SOL    HW220698   7.905   3.509   8.178
 6287SOL     OW20699   1.669   3.309   5.457
 6287SOL    HW120700   1.629   3.306   5.370
 6287SOL    HW220701   1.745   3.252   5.450
 6288SOL     OW20702   0.636   6.840   4.869
 6288SOL    HW120703   0.586   6.906   4.917
 6288SOL    HW220704   0.698   6.805   4.933
 6289SOL     OW20705  11.946   9.850   9.425
 6289SOL    HW120706  11.906   9.763   9.416
 6289SOL    HW220707  11.885   9.900   9.478
 6290SOL     OW20708   1.438   0.875  14.505
 6290SOL    HW120709   1.366   0.857  14.565
 6290SOL    HW220710   1.400   0.866  14.418
 6291SOL     OW20711  14.665   1.999   7.907
 6291SOL    HW120712  14.593   2.023   7.849
 6291SOL    HW220713  14.743   2.005   7.852
 6292SOL     OW20714   0.191   5.349   3.901
 6292SOL    HW120715   0.232   5.264   3.915
 6292SOL    HW220716   0.257   5.412   3.930
 6293SOL     OW20717   0.410   4.225   2.081
 6293SOL    HW120718   0.505   4.231   2.083
 6293SOL    HW220719   0.392   4.143   2.034
 6294SOL     OW20720  11.569   9.531   5.344
 6294SOL    HW120721  11.586   9.580   5.424
 6294SOL    HW220722  11.640   9.468   5.338
 6295SOL     OW20723   4.153   9.151   3.552
 6295SOL    HW120724   4.097   9.077   3.576
 6295SOL    HW220725   4.113   9.186   3.472
 6296SOL     OW20726   6.452  13.136  13.458
 6296SOL    HW120727   6.459  13.088  13.541
 6296SOL    HW220728   6.370  13.184  13.466
 6297SOL     OW20729   3.170   3.656   9.252
 6297SOL    HW120730   3.077   3.666   9.272
 6297SOL    HW220731   3.209   3.738   9.282
 6298SOL     OW20732   1.360   5.382  10.733
 6298SOL    HW120733   1.319   5.306  10.774
 6298SOL    HW220734   1.361   5.361  10.639
 6299SOL     OW20735   5.040  14.501   2.130
 6299SOL    HW120736   4.947  14.500   2.153
 6299SOL    HW220737   5.085  14.487   2.213
 6300SOL     OW20738  12.838   6.132  10.154
 6300SOL    HW120739  12.886   6.127  10.071
 6300SOL    HW220740  12.825   6.226  10.168
 6301SOL     OW20741   7.083  14.632   4.658
 6301SOL    HW120742   7.145  14.607   4.727
 6301SOL    HW220743   7.056  14.548   4.620
 6302SOL     OW20744  13.336   5.039   8.360
 6302SOL    HW120745  13.317   5.131   8.345
 6302SOL    HW220746  13.351   5.002   8.272
 6303SOL     OW20747  14.088  10.360  13.101
 6303SOL    HW120748  14.114  10.366  13.193
 6303SOL    HW220749  14.166  10.332  13.055
 6304SOL     OW20750   7.892   3.368   2.620
 6304SOL    HW120751   7.899   3.273   2.627
 6304SOL    HW220752   7.971   3.402   2.662
 6305SOL     OW20753   8.196  14.571   8.848
 6305SOL    HW120754   8.128  14.592   8.784
 6305SOL    HW220755   8.277  14.601   8.806
 6306SOL     OW20756   7.398  14.627   7.572
 6306SOL    HW120757   7.425  14.643   7.482
 6306SOL    HW220758   7.455  14.556   7.602
 6307SOL     OW20759   1.702  12.772  14.042
 6307SOL    HW120760   1.697  12.846  14.102
 6307SOL    HW220761   1.620  12.724  14.055
 6308SOL     OW20762  10.937   0.440  13.571
 6308SOL    HW120763  11.001   0.383  13.613
 6308SOL    HW220764  10.905   0.496  13.641
 6309SOL     OW20765   8.166   1.882   3.641
 6309SOL    HW120766   8.119   1.910   3.562
 6309SOL    HW220767   8.192   1.792   3.622
 6310SOL     OW20768   9.062   6.918   5.706
 6310SOL    HW120769   9.066   6.953   5.795
 6310SOL    HW220770   9.066   6.823   5.716
 6311SOL     OW20771  14.110  13.404   4.997
 6311SOL    HW120772  14.085  13.448   5.078
 6311SOL    HW220773  14.096  13.311   5.016
 6312SOL     OW20774   9.767  12.697   6.551
 6312SOL    HW120775   9.858  12.672   6.568
 6312SOL    HW220776   9.773  12.769   6.489
 6313SOL     OW20777  11.653   3.324   0.297
 6313SOL    HW120778  11.569   3.294   0.262
 6313SOL    HW220779  11.633   3.409   0.337
 6314SOL     OW20780   1.485   2.287   5.396
 6314SOL    HW120781   1.432   2.301   5.318
 6314SOL    HW220782   1.423   2.297   5.469
 6315SOL     OW20783  11.438   2.630  11.628
 6315SOL    HW120784  11.420   2.706  11.573
 6315SOL    HW220785  11.514   2.589  11.587
 6316SOL     OW20786  13.766  11.502   5.925
 6316SOL    HW120787  13.762  11.547   6.010
 6316SOL    HW220788  13.798  11.568   5.864
 6317SOL     OW20789  10.465   5.340   3.821
 6317SOL    HW120790  10.508   5.256   3.801
 6317SOL    HW220791  10.439   5.375   3.736
 6318SOL     OW20792  12.948   8.498  11.449
 6318SOL    HW120793  13.036   8.504  11.485
 6318SOL    HW220794  12.943   8.411  11.409
 6319SOL     OW20795   0.152  12.174   9.281
 6319SOL    HW120796   0.136  12.207   9.370
 6319SOL    HW220797   0.209  12.239   9.241
 6320SOL     OW20798  12.789   5.496  11.657
 6320SOL    HW120799  12.829   5.431  11.599
 6320SOL    HW220800  12.732   5.547  11.599
 6321SOL     OW20801   9.792   7.471   8.195
 6321SOL    HW120802   9.702   7.476   8.163
 6321SOL    HW220803   9.831   7.398   8.147
 6322SOL     OW20804  13.499   8.921   7.206
 6322SOL    HW120805  13.498   8.835   7.249
 6322SOL    HW220806  13.575   8.965   7.244
 6323SOL     OW20807  13.823   9.793  11.712
 6323SOL    HW120808  13.786   9.863  11.766
 6323SOL    HW220809  13.863   9.733  11.775
 6324SOL     OW20810   9.211   1.584  12.102
 6324SOL    HW120811   9.261   1.548  12.175
 6324SOL    HW220812   9.277   1.625  12.046
 6325SOL     OW20813  11.565   0.738   3.014
 6325SOL    HW120814  11.643   0.779   2.977
 6325SOL    HW220815  11.589   0.646   3.027
 6326SOL     OW20816   3.019   7.792   0.179
 6326SOL    HW120817   3.043   7.706   0.213
 6326SOL    HW220818   3.072   7.801   0.099
 6327SOL     OW20819   0.491  11.999   1.551
 6327SOL    HW120820   0.405  12.018   1.591
 6327SOL    HW220821   0.508  12.075   1.495
 6328SOL     OW20822  14.178   4.089  10.263
 6328SOL    HW120823  14.221   4.081  10.178
 6328SOL    HW220824  14.246   4.069  10.327
 6329SOL     OW20825  10.376   8.426   2.954
 6329SOL    HW120826  10.300   8.393   2.905
 6329SOL    HW220827  10.405   8.502   2.905
 6330SOL     OW20828  12.494   2.912   5.604
 6330SOL    HW120829  12.539   2.883   5.525
 6330SOL    HW220830  12.565   2.937   5.664
 6331SOL     OW20831   7.135   9.114  11.074
 6331SOL    HW120832   7.150   9.041  11.014
 6331SOL    HW220833   7.059   9.159  11.039
 6332SOL     OW20834   3.792  14.782   0.797
 6332SOL    HW120835   3.826  14.775   0.708
 6332SOL    HW220836   3.860  14.745   0.852
 6333SOL     OW20837   8.130   1.899   1.685
 6333SOL    HW120838   8.121   1.810   1.719
 6333SOL    HW220839   8.212   1.897   1.636
 6334SOL     OW20840  12.828  11.868   9.802
 6334SOL    HW120841  12.885  11.872   9.725
 6334SOL    HW220842  12.744  11.837   9.768
 6335SOL     OW20843   9.718   0.835  12.808
 6335SOL    HW120844   9.790   0.822  12.747
 6335SOL    HW220845   9.650   0.775  12.777
 6336SOL     OW20846   0.162   1.531   4.734
 6336SOL    HW120847   0.067   1.534   4.721
 6336SOL    HW220848   0.176   1.574   4.819
 6337SOL     OW20849   2.882  12.544   4.038
 6337SOL    HW120850   2.849  12.550   3.949
 6337SOL    HW220851   2.951  12.610   4.042
 6338SOL     OW20852   5.116   4.213   7.747
 6338SOL    HW120853   5.164   4.134   7.722
 6338SOL    HW220854   5.159   4.284   7.699
 6339SOL     OW20855  10.287  13.148  10.694
 6339SOL    HW120856  10.252  13.132  10.607
 6339SOL    HW220857  10.298  13.243  10.698
 6340SOL     OW20858   1.913   8.077   4.177
 6340SOL    HW120859   1.920   8.071   4.082
 6340SOL    HW220860   1.897   8.170   4.194
 6341SOL     OW20861   6.736  12.616  13.620
 6341SOL    HW120862   6.776  12.606  13.533
 6341SOL    HW220863   6.742  12.529  13.659
 6342SOL     OW20864  12.969  12.848  14.157
 6342SOL    HW120865  12.959  12.942  14.173
 6342SOL    HW220866  12.991  12.812  14.243
 6343SOL     OW20867  10.011   7.610   6.916
 6343SOL    HW120868   9.959   7.613   6.835
 6343SOL    HW220869  10.037   7.700   6.932
 6344SOL     OW20870  10.090   8.704   3.063
 6344SOL    HW120871  10.171   8.754   3.065
 6344SOL    HW220872  10.068   8.696   2.970
 6345SOL     OW20873   0.585   8.727  10.020
 6345SOL    HW120874   0.632   8.650   9.988
 6345SOL    HW220875   0.603   8.795   9.955
 6346SOL     OW20876   0.599  10.622  11.265
 6346SOL    HW120877   0.652  10.692  11.227
 6346SOL    HW220878   0.587  10.649  11.356
 6347SOL     OW20879   6.931  10.815  11.515
 6347SOL    HW120880   6.989  10.744  11.544
 6347SOL    HW220881   6.870  10.774  11.454
 6348SOL     OW20882   4.379  11.791  14.362
 6348SOL    HW120883   4.393  11.793  14.267
 6348SOL    HW220884   4.435  11.860  14.396
 6349SOL     OW20885   4.578   1.049   7.277
 6349SOL    HW120886   4.571   0.981   7.210
 6349SOL    HW220887   4.660   1.030   7.322
 6350SOL     OW20888   7.083   6.991   5.307
 6350SOL    HW120889   7.107   7.069   5.356
 6350SOL    HW220890   6.988   6.985   5.318
 6351SOL     OW20891  10.605   7.322  14.043
 6351SOL    HW120892  10.670   7.337  14.111
 6351SOL    HW220893  10.604   7.227  14.031
 6352SOL     OW20894  10.192   4.879   8.835
 6352SOL    HW120895  10.154   4.952   8.884
 6352SOL    HW220896  10.217   4.916   8.751
 6353SOL     OW20897   0.910   3.288  13.695
 6353SOL    HW120898   0.922   3.194  13.710
 6353SOL    HW220899   0.827   3.309  13.738
 6354SOL     OW20900   6.876  13.274  11.541
 6354SOL    HW120901   6.862  13.349  11.599
 6354SOL    HW220902   6.826  13.203  11.581
 6355SOL     OW20903   3.759   1.604  11.408
 6355SOL    HW120904   3.708   1.546  11.352
 6355SOL    HW220905   3.715   1.689  11.402
 6356SOL     OW20906   8.646   6.195  10.678
 6356SOL    HW120907   8.725   6.229  10.720
 6356SOL    HW220908   8.584   6.185  10.750
 6357SOL     OW20909   8.369  14.306   5.090
 6357SOL    HW120910   8.382  14.279   4.999
 6357SOL    HW220911   8.407  14.394   5.095
 6358SOL     OW20912   5.809   4.982   2.991
 6358SOL    HW120913   5.797   4.919   2.919
 6358SOL    HW220914   5.763   5.061   2.962
 6359SOL     OW20915   1.523   7.486   1.013
 6359SOL    HW120916   1.460   7.540   1.061
 6359SOL    HW220917   1.499   7.497   0.921
 6360SOL     OW20918   3.462  10.220   7.126
 6360SOL    HW120919   3.544  10.182   7.156
 6360SOL    HW220920   3.471  10.224   7.031
 6361SOL     OW20921   6.992   5.244   0.666
 6361SOL    HW120922   7.009   5.190   0.744
 6361SOL    HW220923   7.009   5.333   0.695
 6362SOL     OW20924   5.994  10.850  10.193
 6362SOL    HW120925   6.076  10.882  10.156
 6362SOL    HW220926   5.972  10.913  10.262
 6363SOL     OW20927  10.406   8.754   6.689
 6363SOL    HW120928  10.462   8.828   6.710
 6363SOL    HW220929  10.335   8.791   6.638
 6364SOL     OW20930   5.871   3.459  10.349
 6364SOL    HW120931   5.905   3.480  10.262
 6364SOL    HW220932   5.804   3.392  10.333
 6365SOL     OW20933  12.918  12.376   9.326
 6365SOL    HW120934  12.945  12.285   9.333
 6365SOL    HW220935  12.918  12.408   9.416
 6366SOL     OW20936   2.520  13.386  10.925
 6366SOL    HW120937   2.570  13.429  10.855
 6366SOL    HW220938   2.454  13.450  10.950
 6367SOL     OW20939   3.827   0.797   5.084
 6367SOL    HW120940   3.877   0.834   5.011
 6367SOL    HW220941   3.836   0.861   5.154
 6368SOL     OW20942  11.659   8.223   4.984
 6368SOL    HW120943  11.722   8.151   4.981
 6368SOL    HW220944  11.633   8.228   5.076
 6369SOL     OW20945  11.481   9.320   9.447
 6369SOL    HW120946  11.483   9.382   9.520
 6369SOL    HW220947  11.565   9.274   9.451
 6370SOL     OW20948   3.685   7.433   0.704
 6370SOL    HW120949   3.597   7.459   0.677
 6370SOL    HW220950   3.737   7.439   0.624
 6371SOL     OW20951   7.524   1.817   3.885
 6371SOL    HW120952   7.564   1.789   3.803
 6371SOL    HW220953   7.432   1.832   3.862
 6372SOL     OW20954  12.429   5.020  13.415
 6372SOL    HW120955  12.496   4.988  13.476
 6372SOL    HW220956  12.471   5.094  13.371
 6373SOL     OW20957   1.052   1.206   5.755
 6373SOL    HW120958   1.017   1.215   5.666
 6373SOL    HW220959   0.976   1.219   5.812
 6374SOL     OW20960   4.918  12.316  13.332
 6374SOL    HW120961   4.928  12.366  13.412
 6374SOL    HW220962   4.887  12.230  13.361
 6375SOL     OW20963   7.737  12.134   6.454
 6375SOL    HW120964   7.780  12.060   6.412
 6375SOL    HW220965   7.789  12.210   6.428
 6376SOL     OW20966   7.496  14.664  10.848
 6376SOL    HW120967   7.590  14.673  10.862
 6376SOL    HW220968   7.484  14.675  10.754
 6377SOL     OW20969   8.401   9.672   0.617
 6377SOL    HW120970   8.390   9.634   0.704
 6377SOL    HW220971   8.330   9.634   0.564
 6378SOL     OW20972   7.896   0.715   6.717
 6378SOL    HW120973   7.969   0.752   6.666
 6378SOL    HW220974   7.820   0.725   6.660
 6379SOL     OW20975   5.198   9.238  11.513
 6379SOL    HW120976   5.149   9.246  11.432
 6379SOL    HW220977   5.132   9.233  11.581
 6380SOL     OW20978   8.041   8.495  10.093
 6380SOL    HW120979   8.079   8.534  10.172
 6380SOL    HW220980   8.057   8.559  10.024
 6381SOL     OW20981   8.584  12.706   6.043
 6381SOL    HW120982   8.673  12.675   6.062
 6381SOL    HW220983   8.567  12.772   6.110
 6382SOL     OW20984   5.720   6.215   0.226
 6382SOL    HW120985   5.733   6.310   0.225
 6382SOL    HW220986   5.743   6.187   0.137
 6383SOL     OW20987   8.446   3.131   9.301
 6383SOL    HW120988   8.386   3.061   9.275
 6383SOL    HW220989   8.399   3.179   9.370
 6384SOL     OW20990   2.130  11.524   5.937
 6384SOL    HW120991   2.161  11.598   5.885
 6384SOL    HW220992   2.089  11.466   5.873
 6385SOL     OW20993   7.640  14.115   8.679
 6385SOL    HW120994   7.619  14.037   8.731
 6385SOL    HW220995   7.575  14.115   8.608
 6386SOL     OW20996   6.775   6.492  13.804
 6386SOL    HW120997   6.765   6.582  13.837
 6386SOL    HW220998   6.763   6.437  13.881
 6387SOL     OW20999   6.935   7.810   3.887
 6387SOL    HW121000   6.920   7.903   3.872
 6387SOL    HW221001   6.875   7.787   3.957
 6388SOL     OW21002   6.373   3.320  13.579
 6388SOL    HW121003   6.456   3.367  13.571
 6388SOL    HW221004   6.346   3.334  13.670
 6389SOL     OW21005   7.396   3.693   1.911
 6389SOL    HW121006   7.327   3.745   1.952
 6389SOL    HW221007   7.436   3.646   1.984
 6390SOL     OW21008   8.794   7.086  14.819
 6390SOL    HW121009   8.801   7.008  14.874
 6390SOL    HW221010   8.700   7.098  14.806
 6391SOL     OW21011   3.661   8.252   3.400
 6391SOL    HW121012   3.682   8.172   3.449
 6391SOL    HW221013   3.741   8.272   3.351
 6392SOL     OW21014   7.861   7.257   6.763
 6392SOL    HW121015   7.939   7.212   6.732
 6392SOL    HW221016   7.827   7.201   6.833
 6393SOL     OW21017   3.309  10.891   8.230
 6393SOL    HW121018   3.359  10.902   8.312
 6393SOL    HW221019   3.295  10.981   8.199
 6394SOL     OW21020  12.707   5.055  14.345
 6394SOL    HW121021  12.714   5.150  14.340
 6394SOL    HW221022  12.764   5.023  14.275
 6395SOL     OW21023   7.065  10.232   8.418
 6395SOL    HW121024   7.139  10.175   8.434
 6395SOL    HW221025   6.989  10.183   8.450
 6396SOL     OW21026  10.348   9.195   3.637
 6396SOL    HW121027  10.317   9.105   3.630
 6396SOL    HW221028  10.412   9.192   3.709
 6397SOL     OW21029   8.075   2.539   2.811
 6397SOL    HW121030   8.162   2.542   2.771
 6397SOL    HW221031   8.090   2.499   2.897
 6398SOL     OW21032   5.023   4.637  11.539
 6398SOL    HW121033   5.064   4.704  11.484
 6398SOL    HW221034   4.929   4.646  11.520
 6399SOL     OW21035  10.138  11.093   6.101
 6399SOL    HW121036  10.131  11.181   6.139
 6399SOL    HW221037  10.207  11.101   6.035
 6400SOL     OW21038  13.495  14.406  11.590
 6400SOL    HW121039  13.461  14.318  11.573
 6400SOL    HW221040  13.510  14.442  11.503
 6401SOL     OW21041   2.304  11.689   5.735
 6401SOL    HW121042   2.332  11.773   5.772
 6401SOL    HW221043   2.322  11.698   5.641
 6402SOL     OW21044   6.638   2.933   6.832
 6402SOL    HW121045   6.727   2.896   6.831
 6402SOL    HW221046   6.617   2.943   6.739
 6403SOL     OW21047   4.054   8.648  14.041
 6403SOL    HW121048   3.988   8.596  14.087
 6403SOL    HW221049   4.011   8.677  13.961
 6404SOL     OW21050  11.095  11.776   5.244
 6404SOL    HW121051  11.157  11.838   5.282
 6404SOL    HW221052  11.136  11.747   5.163
 6405SOL     OW21053   9.590  11.210   7.792
 6405SOL    HW121054   9.593  11.135   7.852
 6405SOL    HW221055   9.524  11.186   7.727
 6406SOL     OW21056   0.522   9.648   0.784
 6406SOL    HW121057   0.492   9.594   0.711
 6406SOL    HW221058   0.458   9.631   0.854
 6407SOL     OW21059  10.157   4.871   8.310
 6407SOL    HW121060  10.148   4.796   8.369
 6407SOL    HW221061  10.251   4.887   8.307
 6408SOL     OW21062   6.164   1.705  10.044
 6408SOL    HW121063   6.080   1.745  10.064
 6408SOL    HW221064   6.185   1.737   9.956
 6409SOL     OW21065   3.566   2.537  13.438
 6409SOL    HW121066   3.592   2.612  13.491
 6409SOL    HW221067   3.631   2.470  13.458
 6410SOL     OW21068   9.276   5.121  13.393
 6410SOL    HW121069   9.256   5.204  13.349
 6410SOL    HW221070   9.223   5.056  13.346
 6411SOL     OW21071   4.504   7.664  10.409
 6411SOL    HW121072   4.591   7.653  10.370
 6411SOL    HW221073   4.518   7.724  10.482
 6412SOL     OW21074   2.144   7.879  13.221
 6412SOL    HW121075   2.067   7.868  13.164
 6412SOL    HW221076   2.107   7.901  13.306
 6413SOL     OW21077  10.188   1.962  12.155
 6413SOL    HW121078  10.188   2.058  12.153
 6413SOL    HW221079  10.111   1.939  12.207
 6414SOL     OW21080  10.336   2.900   2.967
 6414SOL    HW121081  10.359   2.922   3.058
 6414SOL    HW221082  10.273   2.968   2.941
 6415SOL     OW21083   7.948   2.149   2.274
 6415SOL    HW121084   7.916   2.179   2.359
 6415SOL    HW221085   8.020   2.208   2.253
 6416SOL     OW21086   5.681  14.659   2.821
 6416SOL    HW121087   5.599  14.621   2.789
 6416SOL    HW221088   5.656  14.705   2.902
 6417SOL     OW21089  12.635  12.986   7.095
 6417SOL    HW121090  12.696  12.972   7.022
 6417SOL    HW221091  12.627  13.081   7.101
 6418SOL     OW21092  13.164   5.633   3.217
 6418SOL    HW121093  13.205   5.700   3.163
 6418SOL    HW221094  13.109   5.584   3.156
 6419SOL     OW21095   9.480   7.672   0.190
 6419SOL    HW121096   9.517   7.716   0.267
 6419SOL    HW221097   9.556   7.643   0.140
 6420SOL     OW21098   3.301  11.648   6.227
 6420SOL    HW121099   3.345  11.695   6.156
 6420SOL    HW221100   3.331  11.691   6.307
 6421SOL     OW21101   9.976  10.563   0.651
 6421SOL    HW121102   9.984  10.653   0.684
 6421SOL    HW221103   9.886  10.537   0.673
 6422SOL     OW21104   3.836   6.050  11.902
 6422SOL    HW121105   3.890   5.974  11.923
 6422SOL    HW221106   3.779   6.059  11.979
 6423SOL     OW21107   1.574   7.373   1.978
 6423SOL    HW121108   1.594   7.282   1.956
 6423SOL    HW221109   1.479   7.375   1.984
 6424SOL     OW21110   0.740   9.531   5.578
 6424SOL    HW121111   0.653   9.538   5.538
 6424SOL    HW221112   0.725   9.545   5.672
 6425SOL     OW21113  11.443   6.900   1.235
 6425SOL    HW121114  11.481   6.971   1.184
 6425SOL    HW221115  11.495   6.823   1.211
 6426SOL     OW21116  14.360  12.756  13.160
 6426SOL    HW121117  14.386  12.664  13.156
 6426SOL    HW221118  14.265  12.755  13.156
 6427SOL     OW21119   4.909   4.886   6.011
 6427SOL    HW121120   4.899   4.795   5.983
 6427SOL    HW221121   4.841   4.933   5.963
 6428SOL     OW21122   6.672   4.982  12.563
 6428SOL    HW121123   6.680   5.001  12.470
 6428SOL    HW221124   6.664   5.067  12.605
 6429SOL     OW21125  12.085   7.770   2.499
 6429SOL    HW121126  11.990   7.765   2.485
 6429SOL    HW221127  12.098   7.851   2.547
 6430SOL     OW21128  10.154  10.482   0.475
 6430SOL    HW121129  10.130  10.563   0.430
 6430SOL    HW221130  10.097  10.478   0.551
 6431SOL     OW21131   8.173  13.451   4.466
 6431SOL    HW121132   8.267  13.433   4.456
 6431SOL    HW221133   8.147  13.487   4.382
 6432SOL     OW21134   6.672   8.350   7.336
 6432SOL    HW121135   6.693   8.297   7.259
 6432SOL    HW221136   6.756   8.382   7.366
 6433SOL     OW21137   5.600   4.994   3.804
 6433SOL    HW121138   5.528   4.934   3.823
 6433SOL    HW221139   5.676   4.937   3.791
 6434SOL     OW21140   0.548   8.151  10.305
 6434SOL    HW121141   0.587   8.186  10.225
 6434SOL    HW221142   0.537   8.227  10.362
 6435SOL     OW21143   0.655   4.437   5.507
 6435SOL    HW121144   0.705   4.356   5.515
 6435SOL    HW221145   0.627   4.439   5.415
 6436SOL     OW21146  10.400   5.765   8.443
 6436SOL    HW121147  10.482   5.814   8.453
 6436SOL    HW221148  10.383   5.766   8.349
 6437SOL     OW21149  14.060  12.788  12.380
 6437SOL    HW121150  14.077  12.698  12.353
 6437SOL    HW221151  14.004  12.780  12.457
 6438SOL     OW21152  10.849   9.851   9.123
 6438SOL    HW121153  10.817   9.931   9.081
 6438SOL    HW221154  10.832   9.865   9.216
 6439SOL     OW21155  12.884   7.934   5.947
 6439SOL    HW121156  12.902   7.924   6.041
 6439SOL    HW221157  12.881   8.029   5.934
 6440SOL     OW21158  12.132   0.018   5.505
 6440SOL    HW121159  12.084   0.093   5.540
 6440SOL    HW221160  12.074  14.857   5.437
 6441SOL     OW21161  14.758  11.744  13.696
 6441SOL    HW121162  14.764  11.693  13.776
 6441SOL    HW221163  14.828  11.709  13.640
 6442SOL     OW21164   7.852   9.300   4.037
 6442SOL    HW121165   7.829   9.391   4.020
 6442SOL    HW221166   7.769   9.257   4.057
 6443SOL     OW21167  13.460  14.819  14.036
 6443SOL    HW121168  13.515   0.012  13.996
 6443SOL    HW221169  13.520  14.747  14.053
 6444SOL     OW21170   1.299   1.205   5.602
 6444SOL    HW121171   1.224   1.180   5.658
 6444SOL    HW221172   1.260   1.262   5.535
 6445SOL     OW21173  13.944   5.309  10.171
 6445SOL    HW121174  13.903   5.255  10.239
 6445SOL    HW221175  13.896   5.286  10.091
 6446SOL     OW21176  13.295   1.197   6.096
 6446SOL    HW121177  13.300   1.259   6.023
 6446SOL    HW221178  13.286   1.111   6.053
 6447SOL     OW21179   0.640   9.304   8.856
 6447SOL    HW121180   0.703   9.238   8.885
 6447SOL    HW221181   0.557   9.257   8.851
 6448SOL     OW21182  10.819  12.420   1.320
 6448SOL    HW121183  10.737  12.374   1.305
 6448SOL    HW221184  10.793  12.511   1.338
 6449SOL     OW21185   4.290   8.695   4.257
 6449SOL    HW121186   4.324   8.783   4.239
 6449SOL    HW221187   4.200   8.697   4.227
 6450SOL     OW21188  11.633  13.236   6.290
 6450SOL    HW121189  11.565  13.264   6.229
 6450SOL    HW221190  11.659  13.149   6.259
 6451SOL     OW21191   6.550  11.755   7.427
 6451SOL    HW121192   6.485  11.684   7.427
 6451SOL    HW221193   6.632  11.712   7.451
 6452SOL     OW21194   3.370   6.918  10.168
 6452SOL    HW121195   3.352   6.838  10.118
 6452SOL    HW221196   3.442   6.894  10.226
 6453SOL     OW21197  10.699   4.480  14.183
 6453SOL    HW121198  10.659   4.564  14.157
 6453SOL    HW221199  10.773   4.470  14.124
 6454SOL     OW21200   0.755   5.607  12.835
 6454SOL    HW121201   0.792   5.612  12.923
 6454SOL    HW221202   0.727   5.516  12.825
 6455SOL     OW21203  12.360   6.864  14.602
 6455SOL    HW121204  12.356   6.777  14.562
 6455SOL    HW221205  12.368   6.924  14.528
 6456SOL     OW21206  10.183   6.412   8.116
 6456SOL    HW121207  10.115   6.479   8.121
 6456SOL    HW221208  10.158   6.349   8.184
 6457SOL     OW21209  11.933   6.891   1.506
 6457SOL    HW121210  11.902   6.946   1.434
 6457SOL    HW221211  11.967   6.813   1.463
 6458SOL     OW21212   6.813  13.994   2.745
 6458SOL    HW121213   6.845  13.997   2.835
 6458SOL    HW221214   6.731  14.045   2.747
 6459SOL     OW21215   7.950   5.893  11.545
 6459SOL    HW121216   8.039   5.869  11.519
 6459SOL    HW221217   7.960   5.933  11.632
 6460SOL     OW21218  13.872   3.082   0.122
 6460SOL    HW121219  13.819   3.015   0.165
 6460SOL    HW221220  13.817   3.116   0.052
 6461SOL     OW21221   7.720  14.598   1.205
 6461SOL    HW121222   7.697  14.649   1.128
 6461SOL    HW221223   7.809  14.568   1.188
 6462SOL     OW21224  14.611   6.680  12.357
 6462SOL    HW121225  14.534   6.636  12.396
 6462SOL    HW221226  14.682   6.662  12.419
 6463SOL     OW21227   9.364   1.564   4.371
 6463SOL    HW121228   9.400   1.601   4.452
 6463SOL    HW221229   9.415   1.484   4.356
 6464SOL     OW21230   2.146  14.357  10.926
 6464SOL    HW121231   2.216  14.422  10.938
 6464SOL    HW221232   2.165  14.316  10.842
 6465SOL     OW21233   1.096   6.970  13.176
 6465SOL    HW121234   1.165   7.037  13.180
 6465SOL    HW221235   1.102   6.924  13.260
 6466SOL     OW21236   0.484   8.542   0.265
 6466SOL    HW121237   0.546   8.607   0.299
 6466SOL    HW221238   0.492   8.467   0.324
 6467SOL     OW21239   4.471   9.158  12.502
 6467SOL    HW121240   4.432   9.167  12.589
 6467SOL    HW221241   4.551   9.106  12.517
 6468SOL     OW21242  10.763   4.167   4.296
 6468SOL    HW121243  10.747   4.102   4.228
 6468SOL    HW221244  10.721   4.247   4.264
 6469SOL     OW21245   9.862   2.866   7.247
 6469SOL    HW121246   9.912   2.784   7.255
 6469SOL    HW221247   9.778   2.847   7.288
 6470SOL     OW21248   2.176   7.082   2.000
 6470SOL    HW121249   2.256   7.032   1.980
 6470SOL    HW221250   2.196   7.171   1.971
 6471SOL     OW21251  14.714   9.664   3.829
 6471SOL    HW121252  14.800   9.627   3.847
 6471SOL    HW221253  14.653   9.594   3.850
 6472SOL     OW21254   1.092   6.300   7.800
 6472SOL    HW121255   1.083   6.206   7.813
 6472SOL    HW221256   1.122   6.309   7.709
 6473SOL     OW21257  14.576   7.621  10.839
 6473SOL    HW121258  14.616   7.657  10.919
 6473SOL    HW221259  14.511   7.558  10.871
 6474SOL     OW21260   1.936  11.952  12.724
 6474SOL    HW121261   1.918  11.987  12.812
 6474SOL    HW221262   2.030  11.934  12.724
 6475SOL     OW21263   8.347   0.514   2.186
 6475SOL    HW121264   8.283   0.549   2.125
 6475SOL    HW221265   8.295   0.484   2.261
 6476SOL     OW21266   2.161  12.709   3.560
 6476SOL    HW121267   2.199  12.748   3.638
 6476SOL    HW221268   2.077  12.674   3.589
 6477SOL     OW21269  14.693   7.958   7.037
 6477SOL    HW121270  14.652   7.901   6.972
 6477SOL    HW221271  14.784   7.930   7.039
 6478SOL     OW21272   0.379  14.125   5.562
 6478SOL    HW121273   0.307  14.075   5.601
 6478SOL    HW221274   0.442  14.135   5.633
 6479SOL     OW21275   9.968   8.444   0.426
 6479SOL    HW121276   9.969   8.492   0.344
 6479SOL    HW221277   9.949   8.511   0.492
 6480SOL     OW21278  14.656  11.601  12.362
 6480SOL    HW121279  14.688  11.685  12.394
 6480SOL    HW221280  14.563  11.600  12.385
 6481SOL     OW21281   9.105   6.280   7.806
 6481SOL    HW121282   9.024   6.328   7.792
 6481SOL    HW221283   9.174   6.347   7.807
 6482SOL     OW21284   3.255   1.988  13.555
 6482SOL    HW121285   3.273   1.982  13.461
 6482SOL    HW221286   3.318   1.928  13.595
 6483SOL     OW21287   4.810  11.010   3.410
 6483SOL    HW121288   4.750  11.064   3.359
 6483SOL    HW221289   4.897  11.046   3.390
 6484SOL     OW21290  13.406   2.964   9.506
 6484SOL    HW121291  13.343   3.001   9.568
 6484SOL    HW221292  13.394   3.014   9.426
 6485SOL     OW21293  13.399  10.434   4.090
 6485SOL    HW121294  13.337  10.438   4.016
 6485SOL    HW221295  13.458  10.508   4.076
 6486SOL     OW21296  10.140   2.659   0.707
 6486SOL    HW121297  10.221   2.608   0.700
 6486SOL    HW221298  10.086   2.628   0.634
 6487SOL     OW21299  10.533   3.084   8.252
 6487SOL    HW121300  10.560   3.120   8.167
 6487SOL    HW221301  10.465   3.021   8.230
 6488SOL     OW21302   8.425   4.749  12.964
 6488SOL    HW121303   8.438   4.754  13.059
 6488SOL    HW221304   8.416   4.839  12.935
 6489SOL     OW21305  13.094   6.086  12.458
 6489SOL    HW121306  13.108   6.157  12.396
 6489SOL    HW221307  13.003   6.097  12.486
 6490SOL     OW21308   6.376   0.966   7.570
 6490SOL    HW121309   6.310   0.898   7.558
 6490SOL    HW221310   6.444   0.925   7.622
 6491SOL     OW21311   4.569   8.753  13.736
 6491SOL    HW121312   4.594   8.786  13.822
 6491SOL    HW221313   4.506   8.684  13.754
 6492SOL     OW21314   2.250   6.110  12.733
 6492SOL    HW121315   2.249   6.163  12.654
 6492SOL    HW221316   2.343   6.095  12.751
 6493SOL     OW21317   6.755  13.782  12.507
 6493SOL    HW121318   6.763  13.839  12.584
 6493SOL    HW221319   6.757  13.842  12.433
 6494SOL     OW21320   1.895   2.452   3.218
 6494SOL    HW121321   1.834   2.381   3.239
 6494SOL    HW221322   1.935   2.475   3.302
 6495SOL     OW21323  13.770   1.567   5.333
 6495SOL    HW121324  13.725   1.617   5.265
 6495SOL    HW221325  13.821   1.502   5.285
 6496SOL     OW21326  10.486  13.822   8.730
 6496SOL    HW121327  10.529  13.758   8.673
 6496SOL    HW221328  10.475  13.899   8.674
 6497SOL     OW21329   0.906   8.585   2.601
 6497SOL    HW121330   0.998   8.576   2.580
 6497SOL    HW221331   0.903   8.654   2.668
 6498SOL     OW21332   4.218   3.558  10.929
 6498SOL    HW121333   4.173   3.494  10.873
 6498SOL    HW221334   4.250   3.506  11.003
 6499SOL     OW21335  10.488   7.646   0.448
 6499SOL    HW121336  10.520   7.695   0.372
 6499SOL    HW221337  10.414   7.698   0.481
 6500SOL     OW21338   8.532   0.711   1.923
 6500SOL    HW121339   8.545   0.804   1.941
 6500SOL    HW221340   8.586   0.667   1.989
 6501SOL     OW21341   4.846   1.405   7.689
 6501SOL    HW121342   4.901   1.395   7.611
 6501SOL    HW221343   4.870   1.331   7.744
 6502SOL     OW21344   8.382   4.384   0.046
 6502SOL    HW121345   8.423   4.305   0.079
 6502SOL    HW221346   8.426   4.456   0.092
 6503SOL     OW21347  12.126   2.456   2.152
 6503SOL    HW121348  12.092   2.494   2.071
 6503SOL    HW221349  12.084   2.370   2.159
 6504SOL     OW21350   2.534  10.341   1.765
 6504SOL    HW121351   2.489  10.377   1.841
 6504SOL    HW221352   2.603  10.286   1.802
 6505SOL     OW21353   1.319  11.222   2.231
 6505SOL    HW121354   1.349  11.153   2.290
 6505SOL    HW221355   1.398  11.269   2.207
 6506SOL     OW21356   3.407  10.263   3.855
 6506SOL    HW121357   3.359  10.213   3.921
 6506SOL    HW221358   3.456  10.197   3.806
 6507SOL     OW21359   5.977   5.855   2.721
 6507SOL    HW121360   5.886   5.835   2.697
 6507SOL    HW221361   6.003   5.923   2.659
 6508SOL     OW21362  11.154   3.961  13.846
 6508SOL    HW121363  11.207   3.882  13.844
 6508SOL    HW221364  11.067   3.932  13.820
 6509SOL     OW21365  12.814   6.250   8.784
 6509SOL    HW121366  12.804   6.198   8.705
 6509SOL    HW221367  12.823   6.340   8.753
 6510SOL     OW21368   9.642   8.778  11.366
 6510SOL    HW121369   9.594   8.762  11.285
 6510SOL    HW221370   9.595   8.728  11.433
 6511SOL     OW21371   7.277   4.613   9.605
 6511SOL    HW121372   7.318   4.699   9.615
 6511SOL    HW221373   7.230   4.619   9.521
 6512SOL     OW21374   0.205   3.117  14.026
 6512SOL    HW121375   0.238   3.192  14.077
 6512SOL    HW221376   0.266   3.046  14.047
 6513SOL     OW21377   7.780   5.615   7.594
 6513SOL    HW121378   7.700   5.584   7.552
 6513SOL    HW221379   7.755   5.697   7.637
 6514SOL     OW21380   2.025   2.883   5.064
 6514SOL    HW121381   2.098   2.831   5.031
 6514SOL    HW221382   1.950   2.854   5.012
 6515SOL     OW21383   7.543   6.455  12.415
 6515SOL    HW121384   7.488   6.529  12.438
 6515SOL    HW221385   7.536   6.396  12.491
 6516SOL     OW21386   4.992   6.130   8.836
 6516SOL    HW121387   5.019   6.154   8.747
 6516SOL    HW221388   5.053   6.062   8.864
 6517SOL     OW21389   1.813  10.601   4.928
 6517SOL    HW121390   1.907  10.620   4.919
 6517SOL    HW221391   1.809  10.527   4.987
 6518SOL     OW21392   4.139   5.759  14.616
 6518SOL    HW121393   4.232   5.746  14.634
 6518SOL    HW221394   4.137   5.833  14.555
 6519SOL     OW21395   2.609  14.768   1.127
 6519SOL    HW121396   2.649  14.691   1.169
 6519SOL    HW221397   2.532  14.787   1.180
 6520SOL     OW21398  14.589   5.220   1.607
 6520SOL    HW121399  14.669   5.204   1.659
 6520SOL    HW221400  14.526   5.251   1.671
 6521SOL     OW21401  13.767   5.449   0.316
 6521SOL    HW121402  13.807   5.535   0.325
 6521SOL    HW221403  13.841   5.388   0.313
 6522SOL     OW21404  14.648   8.403  12.849
 6522SOL    HW121405  14.691   8.451  12.920
 6522SOL    HW221406  14.573   8.360  12.890
 6523SOL     OW21407   7.006   3.253  10.025
 6523SOL    HW121408   7.034   3.175   9.977
 6523SOL    HW221409   6.942   3.221  10.088
 6524SOL     OW21410   0.447   9.826   9.201
 6524SOL    HW121411   0.425   9.821   9.108
 6524SOL    HW221412   0.541   9.847   9.202
 6525SOL     OW21413  14.832  11.734  13.071
 6525SOL    HW121414   0.032  11.691  13.114
 6525SOL    HW221415  14.816  11.681  12.993
 6526SOL     OW21416  12.548   9.047   6.857
 6526SOL    HW121417  12.546   9.052   6.953
 6526SOL    HW221418  12.553   8.953   6.838
 6527SOL     OW21419  11.023  13.703   9.738
 6527SOL    HW121420  10.938  13.731   9.705
 6527SOL    HW221421  11.035  13.615   9.703
 6528SOL     OW21422   8.809   8.200   2.913
 6528SOL    HW121423   8.768   8.280   2.881
 6528SOL    HW221424   8.902   8.221   2.918
 6529SOL     OW21425   5.738  10.313   7.512
 6529SOL    HW121426   5.728  10.217   7.516
 6529SOL    HW221427   5.674  10.340   7.446
 6530SOL     OW21428  13.312   9.274  12.157
 6530SOL    HW121429  13.309   9.190  12.111
 6530SOL    HW221430  13.224   9.286  12.191
 6531SOL     OW21431  10.962  14.449   1.138
 6531SOL    HW121432  10.912  14.367   1.137
 6531SOL    HW221433  10.895  14.518   1.136
 6532SOL     OW21434   9.657   9.268   0.154
 6532SOL    HW121435   9.690   9.178   0.153
 6532SOL    HW221436   9.574   9.263   0.200
 6533SOL     OW21437   3.777   9.372   6.961
 6533SOL    HW121438   3.835   9.306   6.999
 6533SOL    HW221439   3.719   9.324   6.902
 6534SOL     OW21440   6.435   1.960   6.493
 6534SOL    HW121441   6.399   1.996   6.574
 6534SOL    HW221442   6.516   1.916   6.519
 6535SOL     OW21443  14.689   4.611   2.061
 6535SOL    HW121444  14.779   4.640   2.073
 6535SOL    HW221445  14.659   4.590   2.150
 6536SOL     OW21446   8.581   3.531   5.833
 6536SOL    HW121447   8.562   3.442   5.803
 6536SOL    HW221448   8.536   3.537   5.917
 6537SOL     OW21449   9.251  10.219   6.082
 6537SOL    HW121450   9.194  10.254   6.151
 6537SOL    HW221451   9.199  10.149   6.042
 6538SOL     OW21452   4.952   1.401   6.566
 6538SOL    HW121453   4.987   1.357   6.643
 6538SOL    HW221454   4.861   1.372   6.560
 6539SOL     OW21455   0.344   2.895   1.041
 6539SOL    HW121456   0.265   2.841   1.033
 6539SOL    HW221457   0.313   2.978   1.078
 6540SOL     OW21458   1.478  10.719   8.027
 6540SOL    HW121459   1.509  10.809   8.020
 6540SOL    HW221460   1.525  10.683   8.102
 6541SOL     OW21461   9.700  10.190  13.998
 6541SOL    HW121462   9.712  10.111  13.945
 6541SOL    HW221463   9.789  10.222  14.013
 6542SOL     OW21464  11.482   1.613   6.469
 6542SOL    HW121465  11.483   1.528   6.513
 6542SOL    HW221466  11.396   1.650   6.492
 6543SOL     OW21467  11.512   9.864  13.706
 6543SOL    HW121468  11.466   9.937  13.663
 6543SOL    HW221469  11.603   9.874  13.677
 6544SOL     OW21470   9.013  11.722  12.584
 6544SOL    HW121471   9.023  11.797  12.524
 6544SOL    HW221472   9.040  11.647  12.532
 6545SOL     OW21473   5.886   2.705  10.745
 6545SOL    HW121474   5.794   2.714  10.769
 6545SOL    HW221475   5.928   2.783  10.781
 6546SOL     OW21476   9.803  14.283  10.987
 6546SOL    HW121477   9.860  14.208  10.971
 6546SOL    HW221478   9.861  14.352  11.018
 6547SOL     OW21479   7.021  11.100  11.925
 6547SOL    HW121480   7.099  11.125  11.975
 6547SOL    HW221481   7.039  11.011  11.895
 6548SOL     OW21482  14.795   2.886   8.971
 6548SOL    HW121483  14.712   2.908   8.927
 6548SOL    HW221484  14.777   2.802   9.014
 6549SOL     OW21485  12.934   6.898  11.716
 6549SOL    HW121486  12.876   6.875  11.789
 6549SOL    HW221487  12.920   6.829  11.652
 6550SOL     OW21488   0.388   0.434  11.503
 6550SOL    HW121489   0.453   0.381  11.456
 6550SOL    HW221490   0.322   0.370  11.530
 6551SOL     OW21491   8.489  14.820   3.192
 6551SOL    HW121492   8.489  14.823   3.097
 6551SOL    HW221493   8.469   0.036   3.218
 6552SOL     OW21494   0.101  14.313   2.996
 6552SOL    HW121495   0.037  14.253   3.035
 6552SOL    HW221496   0.069  14.400   3.020
 6553SOL     OW21497  13.504  13.177   2.505
 6553SOL    HW121498  13.449  13.254   2.493
 6553SOL    HW221499  13.510  13.167   2.600
 6554SOL     OW21500  11.983   4.585  10.002
 6554SOL    HW121501  12.045   4.564  10.073
 6554SOL    HW221502  11.908   4.623  10.047
 6555SOL     OW21503   9.381   2.499   2.300
 6555SOL    HW121504   9.308   2.448   2.265
 6555SOL    HW221505   9.422   2.442   2.365
 6556SOL     OW21506  11.581   3.028  10.340
 6556SOL    HW121507  11.520   3.071  10.280
 6556SOL    HW221508  11.538   2.946  10.363
 6557SOL     OW21509  11.870   9.837  11.280
 6557SOL    HW121510  11.895   9.891  11.205
 6557SOL    HW221511  11.925   9.759  11.273
 6558SOL     OW21512   1.198   4.448   8.246
 6558SOL    HW121513   1.196   4.538   8.279
 6558SOL    HW221514   1.268   4.448   8.181
 6559SOL     OW21515   4.610  12.708   1.342
 6559SOL    HW121516   4.559  12.654   1.282
 6559SOL    HW221517   4.561  12.705   1.425
 6560SOL     OW21518   7.806   0.947   3.628
 6560SOL    HW121519   7.802   0.955   3.723
 6560SOL    HW221520   7.877   0.886   3.611
 6561SOL     OW21521   3.295   0.570   5.599
 6561SOL    HW121522   3.203   0.578   5.623
 6561SOL    HW221523   3.294   0.560   5.503
 6562SOL     OW21524   2.749   0.071   9.032
 6562SOL    HW121525   2.746   0.099   8.940
 6562SOL    HW221526   2.682   0.124   9.075
 6563SOL     OW21527   4.281   7.684   1.273
 6563SOL    HW121528   4.363   7.711   1.314
 6563SOL    HW221529   4.223   7.662   1.346
 6564SOL     OW21530   1.657  10.602   7.787
 6564SOL    HW121531   1.623  10.643   7.866
 6564SOL    HW221532   1.703  10.673   7.741
 6565SOL     OW21533  14.852   7.064   3.333
 6565SOL    HW121534  14.785   7.087   3.270
 6565SOL    HW221535   0.047   7.129   3.319
 6566SOL     OW21536  12.686   2.150   9.294
 6566SOL    HW121537  12.701   2.124   9.385
 6566SOL    HW221538  12.643   2.075   9.253
 6567SOL     OW21539   1.055   1.373  12.095
 6567SOL    HW121540   1.107   1.429  12.153
 6567SOL    HW221541   1.029   1.299  12.150
 6568SOL     OW21542  10.235  12.512   7.304
 6568SOL    HW121543  10.261  12.505   7.396
 6568SOL    HW221544  10.263  12.429   7.265
 6569SOL     OW21545   8.581   8.489   3.659
 6569SOL    HW121546   8.546   8.408   3.695
 6569SOL    HW221547   8.642   8.460   3.590
 6570SOL     OW21548   6.550  10.659   6.449
 6570SOL    HW121549   6.553  10.595   6.520
 6570SOL    HW221550   6.530  10.742   6.493
 6571SOL     OW21551   5.202   5.776   4.222
 6571SOL    HW121552   5.281   5.722   4.230
 6571SOL    HW221553   5.139   5.733   4.279
 6572SOL     OW21554   2.932   3.135   9.782
 6572SOL    HW121555   2.915   3.211   9.726
 6572SOL    HW221556   3.011   3.096   9.746
 6573SOL     OW21557  12.455  12.396  13.716
 6573SOL    HW121558  12.485  12.485  13.736
 6573SOL    HW221559  12.521  12.339  13.756
 6574SOL     OW21560   7.380   5.857   8.096
 6574SOL    HW121561   7.423   5.802   8.030
 6574SOL    HW221562   7.305   5.804   8.125
 6575SOL     OW21563  13.006  11.593  14.385
 6575SOL    HW121564  12.996  11.537  14.462
 6575SOL    HW221565  13.032  11.533  14.315
 6576SOL     OW21566  10.330  11.485   0.246
 6576SOL    HW121567  10.264  11.541   0.286
 6576SOL    HW221568  10.287  11.400   0.235
 6577SOL     OW21569  13.241  10.427   8.170
 6577SOL    HW121570  13.155  10.387   8.183
 6577SOL    HW221571  13.286  10.414   8.253
 6578SOL     OW21572  11.637   6.164   7.830
 6578SOL    HW121573  11.609   6.074   7.818
 6578SOL    HW221574  11.566   6.216   7.792
 6579SOL     OW21575   6.691   4.961  10.364
 6579SOL    HW121576   6.679   5.048  10.327
 6579SOL    HW221577   6.624   4.953  10.432
 6580SOL     OW21578   3.597   7.752   5.105
 6580SOL    HW121579   3.677   7.700   5.103
 6580SOL    HW221580   3.527   7.689   5.120
 6581SOL     OW21581   3.351   7.046   4.015
 6581SOL    HW121582   3.281   7.078   3.958
 6581SOL    HW221583   3.430   7.088   3.980
 6582SOL     OW21584   5.496  14.707   7.941
 6582SOL    HW121585   5.437  14.632   7.937
 6582SOL    HW221586   5.570  14.683   7.886
 6583SOL     OW21587   3.395  10.497  10.483
 6583SOL    HW121588   3.390  10.500  10.579
 6583SOL    HW221589   3.342  10.571  10.454
 6584SOL     OW21590   1.232  11.359   1.382
 6584SOL    HW121591   1.179  11.281   1.368
 6584SOL    HW221592   1.175  11.432   1.358
 6585SOL     OW21593   5.035  11.363   1.791
 6585SOL    HW121594   4.955  11.351   1.842
 6585SOL    HW221595   5.039  11.286   1.734
 6586SOL     OW21596   7.881  14.174   4.387
 6586SOL    HW121597   7.902  14.088   4.424
 6586SOL    HW221598   7.929  14.177   4.305
 6587SOL     OW21599   0.586   9.608   4.412
 6587SOL    HW121600   0.575   9.649   4.326
 6587SOL    HW221601   0.680   9.594   4.420
 6588SOL     OW21602  12.783  10.136   1.397
 6588SOL    HW121603  12.751  10.166   1.482
 6588SOL    HW221604  12.810  10.045   1.412
 6589SOL     OW21605   9.237   6.541   6.437
 6589SOL    HW121606   9.153   6.571   6.473
 6589SOL    HW221607   9.283   6.501   6.511
 6590SOL     OW21608   7.406   0.187   9.143
 6590SOL    HW121609   7.360   0.235   9.074
 6590SOL    HW221610   7.401   0.095   9.114
 6591SOL     OW21611  10.165  11.118   3.318
 6591SOL    HW121612  10.197  11.187   3.260
 6591SOL    HW221613  10.194  11.037   3.277
 6592SOL     OW21614   0.013   9.568   9.762
 6592SOL    HW121615   0.004   9.663   9.754
 6592SOL    HW221616   0.019   9.552   9.856
 6593SOL     OW21617   1.111   1.680   6.591
 6593SOL    HW121618   1.054   1.604   6.579
 6593SOL    HW221619   1.197   1.650   6.562
 6594SOL     OW21620   4.438   1.157   2.587
 6594SOL    HW121621   4.380   1.219   2.543
 6594SOL    HW221622   4.482   1.209   2.654
 6595SOL     OW21623  12.754  12.154  13.339
 6595SOL    HW121624  12.691  12.224  13.358
 6595SOL    HW221625  12.823  12.197  13.289
 6596SOL     OW21626  11.713   1.176   1.824
 6596SOL    HW121627  11.714   1.081   1.833
 6596SOL    HW221628  11.798   1.204   1.860
 6597SOL     OW21629   9.453   5.674   0.041
 6597SOL    HW121630   9.418   5.647   0.125
 6597SOL    HW221631   9.456   5.769   0.045
 6598SOL     OW21632  12.518  10.025  14.583
 6598SOL    HW121633  12.593   9.982  14.544
 6598SOL    HW221634  12.487   9.965  14.651
 6599SOL     OW21635  10.146   1.161   4.600
 6599SOL    HW121636  10.169   1.088   4.658
 6599SOL    HW221637  10.228   1.185   4.556
 6600SOL     OW21638  14.474  10.693  10.233
 6600SOL    HW121639  14.463  10.611  10.281
 6600SOL    HW221640  14.385  10.720  10.210
 6601SOL     OW21641  10.832   2.286  12.855
 6601SOL    HW121642  10.863   2.339  12.781
 6601SOL    HW221643  10.757   2.238  12.820
 6602SOL     OW21644   4.901   0.173   3.515
 6602SOL    HW121645   4.916   0.259   3.476
 6602SOL    HW221646   4.973   0.163   3.578
 6603SOL     OW21647  12.564   4.526  10.328
 6603SOL    HW121648  12.655   4.496  10.316
 6603SOL    HW221649  12.540   4.495  10.415
 6604SOL     OW21650  14.119   4.852   4.296
 6604SOL    HW121651  14.078   4.819   4.376
 6604SOL    HW221652  14.116   4.948   4.305
 6605SOL     OW21653  13.918  11.667   6.400
 6605SOL    HW121654  13.932  11.643   6.491
 6605SOL    HW221655  13.999  11.709   6.373
 6606SOL     OW21656   4.489   2.269   8.235
 6606SOL    HW121657   4.524   2.247   8.149
 6606SOL    HW221658   4.522   2.200   8.292
 6607SOL     OW21659   9.574   9.915   6.062
 6607SOL    HW121660   9.637   9.923   5.990
 6607SOL    HW221661   9.626   9.932   6.141
 6608SOL     OW21662   2.700   1.981  13.107
 6608SOL    HW121663   2.647   1.953  13.182
 6608SOL    HW221664   2.787   1.995  13.143
 6609SOL     OW21665   2.944  11.503   8.581
 6609SOL    HW121666   3.012  11.519   8.647
 6609SOL    HW221667   2.924  11.409   8.590
 6610SOL     OW21668   9.900   2.061  14.740
 6610SOL    HW121669   9.932   2.130  14.799
 6610SOL    HW221670   9.815   2.095  14.709
 6611SOL     OW21671  14.708   3.781  12.545
 6611SOL    HW121672  14.724   3.786  12.451
 6611SOL    HW221673  14.757   3.854  12.582
 6612SOL     OW21674   5.342  12.386   7.048
 6612SOL    HW121675   5.362  12.386   7.142
 6612SOL    HW221676   5.398  12.454   7.011
 6613SOL     OW21677  14.536   8.335   7.217
 6613SOL    HW121678  14.563   8.419   7.180
 6613SOL    HW221679  14.602   8.317   7.284
 6614SOL     OW21680   0.921   9.015   4.315
 6614SOL    HW121681   1.013   9.041   4.320
 6614SOL    HW221682   0.920   8.925   4.349
 6615SOL     OW21683   4.114  13.892   5.270
 6615SOL    HW121684   4.145  13.915   5.358
 6615SOL    HW221685   4.035  13.840   5.285
 6616SOL     OW21686  13.615  10.929  11.516
 6616SOL    HW121687  13.602  10.852  11.461
 6616SOL    HW221688  13.527  10.956  11.542
 6617SOL     OW21689   3.975   9.655   3.038
 6617SOL    HW121690   3.990   9.597   2.963
 6617SOL    HW221691   3.936   9.734   3.000
 6618SOL     OW21692  13.879   9.894   3.871
 6618SOL    HW121693  13.897   9.835   3.798
 6618SOL    HW221694  13.800   9.941   3.845
 6619SOL     OW21695   3.041   0.221   5.684
 6619SOL    HW121696   2.969   0.169   5.648
 6619SOL    HW221697   3.022   0.310   5.655
 6620SOL     OW21698   2.560   5.357   9.925
 6620SOL    HW121699   2.586   5.354  10.018
 6620SOL    HW221700   2.465   5.365   9.927
 6621SOL     OW21701   2.381   1.355   3.833
 6621SOL    HW121702   2.300   1.334   3.786
 6621SOL    HW221703   2.380   1.451   3.840
 6622SOL     OW21704   3.262   2.051  12.146
 6622SOL    HW121705   3.209   2.131  12.148
 6622SOL    HW221706   3.198   1.980  12.135
 6623SOL     OW21707  11.925   1.329  14.087
 6623SOL    HW121708  11.903   1.245  14.128
 6623SOL    HW221709  12.004   1.312  14.037
 6624SOL     OW21710  13.169   0.375   5.880
 6624SOL    HW121711  13.134   0.323   5.952
 6624SOL    HW221712  13.264   0.378   5.897
 6625SOL     OW21713   7.001   5.649   1.619
 6625SOL    HW121714   7.042   5.587   1.558
 6625SOL    HW221715   6.907   5.632   1.611
 6626SOL     OW21716   1.544   5.579  13.738
 6626SOL    HW121717   1.539   5.654  13.679
 6626SOL    HW221718   1.521   5.504  13.683
 6627SOL     OW21719  11.036  12.516   0.555
 6627SOL    HW121720  11.002  12.514   0.465
 6627SOL    HW221721  11.119  12.562   0.548
 6628SOL     OW21722   3.453   6.308   2.042
 6628SOL    HW121723   3.468   6.244   2.112
 6628SOL    HW221724   3.512   6.380   2.062
 6629SOL     OW21725   9.135   0.897   3.426
 6629SOL    HW121726   9.219   0.939   3.449
 6629SOL    HW221727   9.143   0.808   3.460
 6630SOL     OW21728  12.269  10.991   3.523
 6630SOL    HW121729  12.302  10.996   3.613
 6630SOL    HW221730  12.194  10.932   3.528
 6631SOL     OW21731   6.261   3.278  13.315
 6631SOL    HW121732   6.274   3.306  13.406
 6631SOL    HW221733   6.180   3.227  13.317
 6632SOL     OW21734  13.890  14.248   0.321
 6632SOL    HW121735  13.867  14.157   0.303
 6632SOL    HW221736  13.966  14.243   0.380
 6633SOL     OW21737  13.317   3.576  12.432
 6633SOL    HW121738  13.393   3.634  12.431
 6633SOL    HW221739  13.353   3.489  12.416
 6634SOL     OW21740   1.744   9.667  13.704
 6634SOL    HW121741   1.771   9.575  13.703
 6634SOL    HW221742   1.729   9.686  13.797
 6635SOL     OW21743   0.194   0.938  11.368
 6635SOL    HW121744   0.162   0.867  11.423
 6635SOL    HW221745   0.206   0.898  11.282
 6636SOL     OW21746  10.151   0.295   2.782
 6636SOL    HW121747  10.241   0.326   2.782
 6636SOL    HW221748  10.108   0.344   2.712
 6637SOL     OW21749  10.498  11.183   0.475
 6637SOL    HW121750  10.434  11.192   0.545
 6637SOL    HW221751  10.577  11.226   0.508
 6638SOL     OW21752  11.171   8.588   9.988
 6638SOL    HW121753  11.082   8.583  10.022
 6638SOL    HW221754  11.177   8.674   9.946
 6639SOL     OW21755   8.028   0.212   9.402
 6639SOL    HW121756   8.043   0.128   9.446
 6639SOL    HW221757   8.086   0.211   9.327
 6640SOL     OW21758   9.718   5.416   9.841
 6640SOL    HW121759   9.669   5.431   9.760
 6640SOL    HW221760   9.758   5.330   9.829
 6641SOL     OW21761   7.991   6.330   0.514
 6641SOL    HW121762   7.968   6.248   0.559
 6641SOL    HW221763   7.962   6.316   0.424
 6642SOL     OW21764   9.473   6.182  14.106
 6642SOL    HW121765   9.445   6.187  14.014
 6642SOL    HW221766   9.527   6.103  14.110
 6643SOL     OW21767   5.537   5.598  12.790
 6643SOL    HW121768   5.529   5.608  12.885
 6643SOL    HW221769   5.460   5.643  12.755
 6644SOL     OW21770   6.943   2.711   9.233
 6644SOL    HW121771   6.862   2.678   9.195
 6644SOL    HW221772   6.996   2.633   9.249
 6645SOL     OW21773   7.561  12.850  11.923
 6645SOL    HW121774   7.557  12.943  11.902
 6645SOL    HW221775   7.642  12.840  11.971
 6646SOL     OW21776   5.418   6.416   2.848
 6646SOL    HW121777   5.437   6.505   2.817
 6646SOL    HW221778   5.503   6.371   2.844
 6647SOL     OW21779   5.095   3.399   2.059
 6647SOL    HW121780   5.133   3.481   2.093
 6647SOL    HW221781   5.047   3.363   2.133
 6648SOL     OW21782   2.843   7.541   4.740
 6648SOL    HW121783   2.794   7.505   4.815
 6648SOL    HW221784   2.859   7.465   4.684
 6649SOL     OW21785   8.229   3.427  13.959
 6649SOL    HW121786   8.324   3.437  13.968
 6649SOL    HW221787   8.200   3.510  13.922
 6650SOL     OW21788  11.222   6.915   1.405
 6650SOL    HW121789  11.284   6.909   1.332
 6650SOL    HW221790  11.278   6.919   1.483
 6651SOL     OW21791  12.789   3.414  13.615
 6651SOL    HW121792  12.769   3.487  13.556
 6651SOL    HW221793  12.730   3.426  13.689
 6652SOL     OW21794   9.484   8.460   9.227
 6652SOL    HW121795   9.486   8.424   9.138
 6652SOL    HW221796   9.404   8.511   9.230
 6653SOL     OW21797   3.424   6.229  14.121
 6653SOL    HW121798   3.478   6.286  14.176
 6653SOL    HW221799   3.451   6.141  14.145
 6654SOL     OW21800   4.240  10.632  12.551
 6654SOL    HW121801   4.296  10.643  12.628
 6654SOL    HW221802   4.299  10.600  12.483
 6655SOL     OW21803   8.410  13.189   3.161
 6655SOL    HW121804   8.404  13.097   3.135
 6655SOL    HW221805   8.366  13.236   3.090
 6656SOL     OW21806   8.383  13.472  11.172
 6656SOL    HW121807   8.309  13.412  11.181
 6656SOL    HW221808   8.444  13.427  11.114
 6657SOL     OW21809   2.393   8.374  10.578
 6657SOL    HW121810   2.341   8.453  10.586
 6657SOL    HW221811   2.415   8.350  10.669
 6658SOL     OW21812  10.811   7.112   1.913
 6658SOL    HW121813  10.798   7.020   1.889
 6658SOL    HW221814  10.906   7.123   1.913
 6659SOL     OW21815  11.069   7.859  13.816
 6659SOL    HW121816  11.109   7.868  13.729
 6659SOL    HW221817  11.101   7.775  13.848
 6660SOL     OW21818  14.093  10.625   1.749
 6660SOL    HW121819  14.096  10.544   1.698
 6660SOL    HW221820  14.020  10.612   1.810
 6661SOL     OW21821   5.654   2.901   6.739
 6661SOL    HW121822   5.675   2.967   6.674
 6661SOL    HW221823   5.730   2.842   6.739
 6662SOL     OW21824   8.996   0.072   6.026
 6662SOL    HW121825   8.980   0.162   6.053
 6662SOL    HW221826   9.091   0.062   6.032
 6663SOL     OW21827   2.913  12.803   0.546
 6663SOL    HW121828   3.003  12.804   0.580
 6663SOL    HW221829   2.893  12.711   0.533
 6664SOL     OW21830  11.300   6.094  13.860
 6664SOL    HW121831  11.343   6.105  13.945
 6664SOL    HW221832  11.257   6.178  13.843
 6665SOL     OW21833  12.673   4.282   8.169
 6665SOL    HW121834  12.611   4.236   8.113
 6665SOL    HW221835  12.652   4.252   8.258
 6666SOL     OW21836  13.638  13.544   0.239
 6666SOL    HW121837  13.550  13.581   0.238
 6666SOL    HW221838  13.625  13.451   0.255
 6667SOL     OW21839  13.057   9.416  13.209
 6667SOL    HW121840  12.980   9.462  13.243
 6667SOL    HW221841  13.102   9.384  13.287
 6668SOL     OW21842   5.616  12.524   5.172
 6668SOL    HW121843   5.586  12.615   5.161
 6668SOL    HW221844   5.709  12.526   5.148
 6669SOL     OW21845  11.127  14.684  10.896
 6669SOL    HW121846  11.177  14.707  10.818
 6669SOL    HW221847  11.038  14.711  10.876
 6670SOL     OW21848   4.104  12.927   5.931
 6670SOL    HW121849   4.188  12.972   5.927
 6670SOL    HW221850   4.127  12.834   5.935
 6671SOL     OW21851   0.592   9.035   8.291
 6671SOL    HW121852   0.655   9.101   8.261
 6671SOL    HW221853   0.643   8.976   8.347
 6672SOL     OW21854   3.352   6.677   1.171
 6672SOL    HW121855   3.302   6.639   1.099
 6672SOL    HW221856   3.334   6.620   1.246
 6673SOL     OW21857   0.252   6.082   8.518
 6673SOL    HW121858   0.228   6.161   8.565
 6673SOL    HW221859   0.328   6.048   8.566
 6674SOL     OW21860  11.484  11.507   8.647
 6674SOL    HW121861  11.411  11.553   8.690
 6674SOL    HW221862  11.468  11.518   8.554
 6675SOL     OW21863   0.746  13.251  10.707
 6675SOL    HW121864   0.684  13.190  10.667
 6675SOL    HW221865   0.819  13.197  10.736
 6676SOL     OW21866   9.635   7.435   6.632
 6676SOL    HW121867   9.590   7.487   6.566
 6676SOL    HW221868   9.584   7.355   6.639
 6677SOL     OW21869   8.088   2.132   0.137
 6677SOL    HW121870   8.047   2.053   0.102
 6677SOL    HW221871   8.149   2.160   0.069
 6678SOL     OW21872   0.733   1.619  14.232
 6678SOL    HW121873   0.640   1.632  14.210
 6678SOL    HW221874   0.760   1.546  14.177
 6679SOL     OW21875   1.436  13.534   9.970
 6679SOL    HW121876   1.382  13.594   9.919
 6679SOL    HW221877   1.522  13.537   9.927
 6680SOL     OW21878   9.193   1.710   1.861
 6680SOL    HW121879   9.187   1.775   1.930
 6680SOL    HW221880   9.189   1.626   1.906
 6681SOL     OW21881   2.682   2.464   5.406
 6681SOL    HW121882   2.627   2.447   5.329
 6681SOL    HW221883   2.647   2.546   5.442
 6682SOL     OW21884  14.443   0.283   2.447
 6682SOL    HW121885  14.372   0.343   2.467
 6682SOL    HW221886  14.419   0.201   2.491
 6683SOL     OW21887   6.399  12.729   7.851
 6683SOL    HW121888   6.309  12.752   7.872
 6683SOL    HW221889   6.391  12.646   7.804
 6684SOL     OW21890   6.839  12.971  10.164
 6684SOL    HW121891   6.791  12.970  10.081
 6684SOL    HW221892   6.776  12.937  10.228
 6685SOL     OW21893   3.411   7.910  11.347
 6685SOL    HW121894   3.403   7.923  11.442
 6685SOL    HW221895   3.504   7.925  11.329
 6686SOL     OW21896  13.498   9.607   1.395
 6686SOL    HW121897  13.459   9.554   1.465
 6686SOL    HW221898  13.580   9.563   1.374
 6687SOL     OW21899  10.247   6.115  10.957
 6687SOL    HW121900  10.165   6.129  10.910
 6687SOL    HW221901  10.312   6.168  10.911
 6688SOL     OW21902   2.710  12.701   6.740
 6688SOL    HW121903   2.689  12.611   6.767
 6688SOL    HW221904   2.742  12.743   6.820
 6689SOL     OW21905   6.088   4.972   8.110
 6689SOL    HW121906   6.050   4.911   8.173
 6689SOL    HW221907   6.162   4.924   8.072
 6690SOL     OW21908   4.081  10.764   0.175
 6690SOL    HW121909   4.028  10.833   0.217
 6690SOL    HW221910   4.017  10.698   0.149
 6691SOL     OW21911   8.200   5.530  13.234
 6691SOL    HW121912   8.253   5.488  13.302
 6691SOL    HW221913   8.264   5.560  13.170
 6692SOL     OW21914   1.134   8.718   5.963
 6692SOL    HW121915   1.075   8.766   6.022
 6692SOL    HW221916   1.078   8.650   5.924
 6693SOL     OW21917   9.222   7.495  10.340
 6693SOL    HW121918   9.310   7.530  10.330
 6693SOL    HW221919   9.185   7.541  10.415
 6694SOL     OW21920   8.325   0.012  12.541
 6694SOL    HW121921   8.358   0.096  12.572
 6694SOL    HW221922   8.297  14.840  12.620
 6695SOL     OW21923  12.845   9.543  13.427
 6695SOL    HW121924  12.830   9.569  13.518
 6695SOL    HW221925  12.849   9.448  13.429
 6696SOL     OW21926   6.379  12.054  14.071
 6696SOL    HW121927   6.371  12.069  13.977
 6696SOL    HW221928   6.377  12.141  14.110
 6697SOL     OW21929   9.152   5.078   8.984
 6697SOL    HW121930   9.198   5.149   8.940
 6697SOL    HW221931   9.220   5.015   9.006
 6698SOL     OW21932   1.859   3.209  10.239
 6698SOL    HW121933   1.911   3.289  10.234
 6698SOL    HW221934   1.923   3.139  10.224
 6699SOL     OW21935   1.063   4.520  11.958
 6699SOL    HW121936   1.154   4.516  11.987
 6699SOL    HW221937   1.012   4.525  12.038
 6700SOL     OW21938   0.619  13.828  14.054
 6700SOL    HW121939   0.626  13.749  14.108
 6700SOL    HW221940   0.675  13.892  14.098
 6701SOL     OW21941   5.169  10.687   8.031
 6701SOL    HW121942   5.146  10.594   8.036
 6701SOL    HW221943   5.130  10.717   7.949
 6702SOL     OW21944   2.845   7.033  12.142
 6702SOL    HW121945   2.907   6.992  12.202
 6702SOL    HW221946   2.817   7.112  12.188
 6703SOL     OW21947   5.848   7.671   2.302
 6703SOL    HW121948   5.761   7.643   2.273
 6703SOL    HW221949   5.832   7.756   2.344
 6704SOL     OW21950  13.619   3.580   7.383
 6704SOL    HW121951  13.561   3.526   7.329
 6704SOL    HW221952  13.672   3.628   7.320
 6705SOL     OW21953   4.702   6.272   7.095
 6705SOL    HW121954   4.643   6.345   7.075
 6705SOL    HW221955   4.644   6.204   7.131
 6706SOL     OW21956   7.236   2.316  14.707
 6706SOL    HW121957   7.319   2.363  14.718
 6706SOL    HW221958   7.193   2.360  14.634
 6707SOL     OW21959   7.555   9.842   8.552
 6707SOL    HW121960   7.547   9.932   8.582
 6707SOL    HW221961   7.592   9.850   8.464
 6708SOL     OW21962  10.878   3.998   8.387
 6708SOL    HW121963  10.909   4.074   8.338
 6708SOL    HW221964  10.822   4.035   8.456
 6709SOL     OW21965  13.873   1.322   7.745
 6709SOL    HW121966  13.868   1.229   7.727
 6709SOL    HW221967  13.950   1.331   7.802
 6710SOL     OW21968   0.238   2.153   2.150
 6710SOL    HW121969   0.327   2.143   2.115
 6710SOL    HW221970   0.188   2.191   2.079
 6711SOL     OW21971   6.046   4.064  13.750
 6711SOL    HW121972   6.061   4.136  13.688
 6711SOL    HW221973   5.954   4.074  13.774
 6712SOL     OW21974   0.680   4.652   9.742
 6712SOL    HW121975   0.606   4.606   9.703
 6712SOL    HW221976   0.720   4.589   9.802
 6713SOL     OW21977   6.763   4.441   4.931
 6713SOL    HW121978   6.775   4.431   4.837
 6713SOL    HW221979   6.790   4.357   4.968
 6714SOL     OW21980  13.058   2.831   5.977
 6714SOL    HW121981  13.092   2.919   5.991
 6714SOL    HW221982  13.057   2.820   5.882
 6715SOL     OW21983  10.350   6.754   7.522
 6715SOL    HW121984  10.428   6.743   7.576
 6715SOL    HW221985  10.277   6.748   7.583
 6716SOL     OW21986   6.697   0.366   7.115
 6716SOL    HW121987   6.628   0.300   7.113
 6716SOL    HW221988   6.773   0.321   7.152
 6717SOL     OW21989   6.666   4.591   0.536
 6717SOL    HW121990   6.700   4.546   0.458
 6717SOL    HW221991   6.698   4.681   0.528
 6718SOL     OW21992   4.858   3.146   2.194
 6718SOL    HW121993   4.829   3.090   2.266
 6718SOL    HW221994   4.938   3.103   2.161
 6719SOL     OW21995   5.305   0.757   7.698
 6719SOL    HW121996   5.386   0.806   7.682
 6719SOL    HW221997   5.270   0.741   7.610
 6720SOL     OW21998   6.703   6.997   0.979
 6720SOL    HW121999   6.744   7.029   1.060
 6720SOL    HW222000   6.610   6.990   1.001
 6721SOL     OW22001  11.985  14.112   4.456
 6721SOL    HW122002  12.065  14.077   4.495
 6721SOL    HW222003  11.936  14.035   4.427
 6722SOL     OW22004   4.180  13.863  10.927
 6722SOL    HW122005   4.243  13.895  10.863
 6722SOL    HW222006   4.128  13.798  10.880
 6723SOL     OW22007   2.096  10.220   8.126
 6723SOL    HW122008   2.096  10.161   8.051
 6723SOL    HW222009   2.086  10.307   8.088
 6724SOL     OW22010   1.157   9.608  10.691
 6724SOL    HW122011   1.128   9.585  10.603
 6724SOL    HW222012   1.238   9.559  10.703
 6725SOL     OW22013   1.956   0.583  10.110
 6725SOL    HW122014   2.029   0.570  10.049
 6725SOL    HW222015   1.973   0.521  10.181
 6726SOL     OW22016   5.107   8.061   1.178
 6726SOL    HW122017   5.146   7.981   1.141
 6726SOL    HW222018   5.153   8.132   1.134
 6727SOL     OW22019  13.788   7.199   7.014
 6727SOL    HW122020  13.797   7.124   7.072
 6727SOL    HW222021  13.698   7.195   6.982
 6728SOL     OW22022   9.625   3.921   9.564
 6728SOL    HW122023   9.575   3.883   9.492
 6728SOL    HW222024   9.698   3.966   9.522
 6729SOL     OW22025  12.021  10.634   3.626
 6729SOL    HW122026  11.977  10.633   3.711
 6729SOL    HW222027  11.950  10.630   3.563
 6730SOL     OW22028   4.799   9.188   4.255
 6730SOL    HW122029   4.710   9.184   4.220
 6730SOL    HW222030   4.833   9.100   4.244
 6731SOL     OW22031   0.241   8.374   2.629
 6731SOL    HW122032   0.194   8.303   2.586
 6731SOL    HW222033   0.292   8.415   2.559
 6732SOL     OW22034  13.797   4.998   1.761
 6732SOL    HW122035  13.720   4.943   1.753
 6732SOL    HW222036  13.816   5.026   1.671
 6733SOL     OW22037  11.646   9.058  13.609
 6733SOL    HW122038  11.584   9.115  13.563
 6733SOL    HW222039  11.719   9.115  13.632
 6734SOL     OW22040  10.808  12.393   9.437
 6734SOL    HW122041  10.722  12.360   9.462
 6734SOL    HW222042  10.812  12.383   9.342
 6735SOL     OW22043  11.118   2.377   3.471
 6735SOL    HW122044  11.073   2.460   3.489
 6735SOL    HW222045  11.155   2.351   3.555
 6736SOL     OW22046   7.529   0.099   8.178
 6736SOL    HW122047   7.556   0.101   8.270
 6736SOL    HW222048   7.606   0.068   8.131
 6737SOL     OW22049  14.644  10.544   0.089
 6737SOL    HW122050  14.610  10.620   0.041
 6737SOL    HW222051  14.722  10.577   0.133
 6738SOL     OW22052  13.876  11.103   5.663
 6738SOL    HW122053  13.883  11.068   5.751
 6738SOL    HW222054  13.869  11.027   5.606
 6739SOL     OW22055   2.958   6.177  12.538
 6739SOL    HW122056   2.897   6.251  12.534
 6739SOL    HW222057   3.018   6.198  12.609
 6740SOL     OW22058   5.257  12.229   0.786
 6740SOL    HW122059   5.179  12.228   0.840
 6740SOL    HW222060   5.302  12.311   0.809
 6741SOL     OW22061   4.216   6.854  11.010
 6741SOL    HW122062   4.146   6.905  11.051
 6741SOL    HW222063   4.253   6.802  11.081
 6742SOL     OW22064   8.687   1.731  14.675
 6742SOL    HW122065   8.685   1.665  14.605
 6742SOL    HW222066   8.621   1.701  14.738
 6743SOL     OW22067   4.534   5.982  11.052
 6743SOL    HW122068   4.468   6.045  11.023
 6743SOL    HW222069   4.576   5.952  10.972
 6744SOL     OW22070   2.989  10.383   5.295
 6744SOL    HW122071   3.038  10.418   5.370
 6744SOL    HW222072   3.004  10.445   5.225
 6745SOL     OW22073  12.393  14.552   3.320
 6745SOL    HW122074  12.428  14.595   3.398
 6745SOL    HW222075  12.308  14.516   3.349
 6746SOL     OW22076   7.617   4.772   8.687
 6746SOL    HW122077   7.588   4.681   8.679
 6746SOL    HW222078   7.612   4.791   8.781
 6747SOL     OW22079  11.625   7.973  11.938
 6747SOL    HW122080  11.638   7.878  11.943
 6747SOL    HW222081  11.584   7.987  11.853
 6748SOL     OW22082   4.555  10.267   5.076
 6748SOL    HW122083   4.505  10.222   5.144
 6748SOL    HW222084   4.542  10.214   4.997
 6749SOL     OW22085   3.210   1.640  11.442
 6749SOL    HW122086   3.142   1.605  11.500
 6749SOL    HW222087   3.174   1.631  11.354
 6750SOL     OW22088   9.633   0.096  13.840
 6750SOL    HW122089   9.690   0.028  13.876
 6750SOL    HW222090   9.575   0.049  13.781
 6751SOL     OW22091  13.829   0.002   5.569
 6751SOL    HW122092  13.860   0.031   5.483
 6751SOL    HW222093  13.839  14.780   5.567
 6752SOL     OW22094   9.712   5.745  10.708
 6752SOL    HW122095   9.745   5.832  10.686
 6752SOL    HW222096   9.666   5.717  10.629
 6753SOL     OW22097  11.712   6.945   6.409
 6753SOL    HW122098  11.649   6.876   6.430
 6753SOL    HW222099  11.796   6.899   6.402
 6754SOL     OW22100   1.413  11.361   2.584
 6754SOL    HW122101   1.368  11.439   2.617
 6754SOL    HW222102   1.477  11.341   2.652
 6755SOL     OW22103  13.440  10.743   3.575
 6755SOL    HW122104  13.441  10.788   3.490
 6755SOL    HW222105  13.440  10.813   3.640
 6756SOL     OW22106  12.028  10.185  11.465
 6756SOL    HW122107  12.067  10.110  11.508
 6756SOL    HW222108  12.058  10.179  11.374
 6757SOL     OW22109  12.162   5.516   9.632
 6757SOL    HW122110  12.175   5.553   9.719
 6757SOL    HW222111  12.129   5.588   9.579
 6758SOL     OW22112   6.588  11.799   1.596
 6758SOL    HW122113   6.557  11.709   1.608
 6758SOL    HW222114   6.563  11.844   1.678
 6759SOL     OW22115   3.073   1.572  10.508
 6759SOL    HW122116   3.146   1.539  10.455
 6759SOL    HW222117   3.116   1.616  10.582
 6760SOL     OW22118   7.195  12.855   7.318
 6760SOL    HW122119   7.217  12.915   7.389
 6760SOL    HW222120   7.165  12.775   7.362
 6761SOL     OW22121   1.538  12.342  13.746
 6761SOL    HW122122   1.502  12.424  13.714
 6761SOL    HW222123   1.518  12.342  13.840
 6762SOL     OW22124   7.989   3.046  14.295
 6762SOL    HW122125   7.930   2.972  14.303
 6762SOL    HW222126   7.964   3.105  14.366
 6763SOL     OW22127   8.766  12.366   6.899
 6763SOL    HW122128   8.762  12.281   6.943
 6763SOL    HW222129   8.807  12.424   6.964
 6764SOL     OW22130   3.573  10.777   1.504
 6764SOL    HW122131   3.487  10.803   1.537
 6764SOL    HW222132   3.570  10.681   1.502
 6765SOL     OW22133   5.734   3.517   8.981
 6765SOL    HW122134   5.791   3.458   9.031
 6765SOL    HW222135   5.721   3.472   8.897
 6766SOL     OW22136   7.454  13.407   7.575
 6766SOL    HW122137   7.469  13.317   7.546
 6766SOL    HW222138   7.531  13.455   7.545
 6767SOL     OW22139   2.885   7.564  11.613
 6767SOL    HW122140   2.925   7.527  11.535
 6767SOL    HW222141   2.957   7.570  11.676
 6768SOL     OW22142  13.685   9.712   9.791
 6768SOL    HW122143  13.699   9.764   9.870
 6768SOL    HW222144  13.734   9.632   9.805
 6769SOL     OW22145   1.731  10.862  14.649
 6769SOL    HW122146   1.664  10.926  14.672
 6769SOL    HW222147   1.706  10.783  14.697
 6770SOL     OW22148   7.900   2.524  12.867
 6770SOL    HW122149   7.933   2.608  12.834
 6770SOL    HW222150   7.954   2.505  12.944
 6771SOL     OW22151   6.508   2.032  14.195
 6771SOL    HW122152   6.470   1.972  14.259
 6771SOL    HW222153   6.433   2.076  14.155
 6772SOL     OW22154   1.897  14.275  14.132
 6772SOL    HW122155   1.926  14.352  14.083
 6772SOL    HW222156   1.827  14.308  14.188
 6773SOL     OW22157   6.998  12.853   1.856
 6773SOL    HW122158   6.922  12.911   1.844
 6773SOL    HW222159   7.061  12.906   1.905
 6774SOL     OW22160   5.088  12.298  12.881
 6774SOL    HW122161   5.009  12.258  12.846
 6774SOL    HW222162   5.133  12.333  12.804
 6775SOL     OW22163   6.036  14.511   7.626
 6775SOL    HW122164   6.129  14.490   7.618
 6775SOL    HW222165   5.995  14.431   7.658
 6776SOL     OW22166   5.070  13.679   2.406
 6776SOL    HW122167   5.038  13.651   2.491
 6776SOL    HW222168   4.993  13.677   2.349
 6777SOL     OW22169   3.549   0.420   6.303
 6777SOL    HW122170   3.569   0.504   6.345
 6777SOL    HW222171   3.594   0.355   6.357
 6778SOL     OW22172   4.374  14.759   0.698
 6778SOL    HW122173   4.353  14.685   0.755
 6778SOL    HW222174   4.339  14.836   0.744
 6779SOL     OW22175  11.386   2.588  12.095
 6779SOL    HW122176  11.409   2.561  12.007
 6779SOL    HW222177  11.412   2.680  12.100
 6780SOL     OW22178  12.126  12.398  13.979
 6780SOL    HW122179  12.051  12.402  14.039
 6780SOL    HW222180  12.181  12.328  14.014
 6781SOL     OW22181   3.847   9.044   5.480
 6781SOL    HW122182   3.789   9.067   5.406
 6781SOL    HW222183   3.835   8.950   5.491
 6782SOL     OW22184  11.683   1.530   0.800
 6782SOL    HW122185  11.775   1.536   0.825
 6782SOL    HW222186  11.682   1.469   0.726
 6783SOL     OW22187   5.067   8.343   1.094
 6783SOL    HW122188   5.007   8.323   1.165
 6783SOL    HW222189   5.065   8.439   1.086
 6784SOL     OW22190  13.067   3.871   2.972
 6784SOL    HW122191  13.000   3.855   3.038
 6784SOL    HW222192  13.103   3.957   2.995
 6785SOL     OW22193  10.507   5.433  13.301
 6785SOL    HW122194  10.570   5.484  13.352
 6785SOL    HW222195  10.500   5.350  13.349
 6786SOL     OW22196  12.141  11.366   4.918
 6786SOL    HW122197  12.194  11.370   4.997
 6786SOL    HW222198  12.092  11.284   4.926
 6787SOL     OW22199  14.579   0.060   8.649
 6787SOL    HW122200  14.598   0.149   8.678
 6787SOL    HW222201  14.553   0.069   8.558
 6788SOL     OW22202   1.359   8.803   5.830
 6788SOL    HW122203   1.284   8.798   5.890
 6788SOL    HW222204   1.372   8.897   5.816
 6789SOL     OW22205   0.497   6.417   4.520
 6789SOL    HW122206   0.518   6.506   4.492
 6789SOL    HW222207   0.402   6.419   4.536
 6790SOL     OW22208  12.600   6.431   6.186
 6790SOL    HW122209  12.608   6.394   6.098
 6790SOL    HW222210  12.592   6.355   6.244
 6791SOL     OW22211   4.306  14.539   0.878
 6791SOL    HW122212   4.312  14.463   0.819
 6791SOL    HW222213   4.270  14.503   0.959
 6792SOL     OW22214  13.809   1.229   9.831
 6792SOL    HW122215  13.883   1.174   9.807
 6792SOL    HW222216  13.776   1.192   9.913
 6793SOL     OW22217   6.301  13.098   8.800
 6793SOL    HW122218   6.351  13.124   8.723
 6793SOL    HW222219   6.361  13.045   8.851
 6794SOL     OW22220   5.761   3.697   3.593
 6794SOL    HW122221   5.856   3.679   3.593
 6794SOL    HW222222   5.747   3.745   3.512
 6795SOL     OW22223   9.759   2.572  13.469
 6795SOL    HW122224   9.771   2.639  13.537
 6795SOL    HW222225   9.741   2.491  13.517
 6796SOL     OW22226   9.155  14.333   1.724
 6796SOL    HW122227   9.172  14.392   1.650
 6796SOL    HW222228   9.096  14.382   1.781
 6797SOL     OW22229  13.593  14.293   4.965
 6797SOL    HW122230  13.521  14.264   4.909
 6797SOL    HW222231  13.663  14.230   4.949
 6798SOL     OW22232   3.689   6.528   3.085
 6798SOL    HW122233   3.700   6.500   2.994
 6798SOL    HW222234   3.598   6.554   3.091
 6799SOL     OW22235   1.298   3.446   8.460
 6799SOL    HW122236   1.269   3.377   8.520
 6799SOL    HW222237   1.325   3.399   8.381
 6800SOL     OW22238  12.166   7.965   8.085
 6800SOL    HW122239  12.122   7.889   8.047
 6800SOL    HW222240  12.223   7.929   8.153
 6801SOL     OW22241  13.634   8.148  12.232
 6801SOL    HW122242  13.566   8.099  12.276
 6801SOL    HW222243  13.591   8.186  12.155
 6802SOL     OW22244   2.348   1.464  14.206
 6802SOL    HW122245   2.292   1.393  14.174
 6802SOL    HW222246   2.431   1.452  14.160
 6803SOL     OW22247   3.047   5.677   3.369
 6803SOL    HW122248   3.074   5.705   3.282
 6803SOL    HW222249   3.043   5.757   3.421
 6804SOL     OW22250   7.943   4.303  13.992
 6804SOL    HW122251   8.027   4.347  13.977
 6804SOL    HW222252   7.965   4.222  14.037
 6805SOL     OW22253   6.780  11.461   5.615
 6805SOL    HW122254   6.754  11.384   5.565
 6805SOL    HW222255   6.748  11.444   5.704
 6806SOL     OW22256  12.231  14.209   3.966
 6806SOL    HW122257  12.217  14.184   4.057
 6806SOL    HW222258  12.291  14.143   3.931
 6807SOL     OW22259   2.812   5.047  12.963
 6807SOL    HW122260   2.875   5.107  13.001
 6807SOL    HW222261   2.851   4.960  12.973
 6808SOL     OW22262   1.144  14.304   5.625
 6808SOL    HW122263   1.073  14.302   5.562
 6808SOL    HW222264   1.197  14.227   5.605
 6809SOL     OW22265  14.282  13.139   9.315
 6809SOL    HW122266  14.354  13.104   9.263
 6809SOL    HW222267  14.209  13.145   9.254
 6810SOL     OW22268  11.144  14.195   7.967
 6810SOL    HW122269  11.074  14.169   8.027
 6810SOL    HW222270  11.101  14.250   7.902
 6811SOL     OW22271   3.637   2.587   5.934
 6811SOL    HW122272   3.617   2.613   5.844
 6811SOL    HW222273   3.560   2.614   5.984
 6812SOL     OW22274   7.225  10.922  12.311
 6812SOL    HW122275   7.239  10.864  12.387
 6812SOL    HW222276   7.234  10.864  12.235
 6813SOL     OW22277   7.265   1.983  10.305
 6813SOL    HW122278   7.298   2.068  10.276
 6813SOL    HW222279   7.234   1.941  10.225
 6814SOL     OW22280   1.988   8.249   1.739
 6814SOL    HW122281   1.914   8.295   1.778
 6814SOL    HW222282   2.033   8.208   1.814
 6815SOL     OW22283   4.641  12.064   5.718
 6815SOL    HW122284   4.677  12.105   5.797
 6815SOL    HW222285   4.712  12.008   5.686
 6816SOL     OW22286   3.150   0.810   0.601
 6816SOL    HW122287   3.089   0.745   0.635
 6816SOL    HW222288   3.095   0.885   0.576
 6817SOL     OW22289   4.400   3.476   9.384
 6817SOL    HW122290   4.443   3.562   9.382
 6817SOL    HW222291   4.379   3.462   9.476
 6818SOL     OW22292   6.261   7.607  13.845
 6818SOL    HW122293   6.223   7.525  13.812
 6818SOL    HW222294   6.198   7.674  13.821
 6819SOL     OW22295   3.140   4.204   5.195
 6819SOL    HW122296   3.070   4.265   5.173
 6819SOL    HW222297   3.220   4.249   5.167
 6820SOL     OW22298   6.449  12.627   4.500
 6820SOL    HW122299   6.393  12.702   4.520
 6820SOL    HW222300   6.536  12.654   4.530
 6821SOL     OW22301   0.600   4.609   7.574
 6821SOL    HW122302   0.527   4.585   7.630
 6821SOL    HW222303   0.600   4.544   7.504
 6822SOL     OW22304   3.571   9.208   8.310
 6822SOL    HW122305   3.627   9.245   8.242
 6822SOL    HW222306   3.507   9.277   8.328
 6823SOL     OW22307  12.794   3.857  14.795
 6823SOL    HW122308  12.790   3.914  14.719
 6823SOL    HW222309  12.804   3.917  14.869
 6824SOL     OW22310   9.443  13.960  13.094
 6824SOL    HW122311   9.425  13.978  13.002
 6824SOL    HW222312   9.363  13.983  13.140
 6825SOL     OW22313   7.068  14.539  12.772
 6825SOL    HW122314   7.003  14.553  12.702
 6825SOL    HW222315   7.145  14.589  12.743
 6826SOL     OW22316   2.478   0.353   8.093
 6826SOL    HW122317   2.510   0.277   8.143
 6826SOL    HW222318   2.391   0.326   8.062
 6827SOL     OW22319   7.255  10.038  14.257
 6827SOL    HW122320   7.223  10.112  14.309
 6827SOL    HW222321   7.335  10.071  14.216
 6828SOL     OW22322   3.446  10.312  13.418
 6828SOL    HW122323   3.499  10.389  13.397
 6828SOL    HW222324   3.509  10.242  13.433
 6829SOL     OW22325  12.374   0.111   7.232
 6829SOL    HW122326  12.424   0.175   7.283
 6829SOL    HW222327  12.283   0.135   7.247
 6830SOL     OW22328  10.694   3.684  11.943
 6830SOL    HW122329  10.613   3.637  11.922
 6830SOL    HW222330  10.728   3.639  12.021
 6831SOL     OW22331   4.305   7.115  10.997
 6831SOL    HW122332   4.255   7.036  11.016
 6831SOL    HW222333   4.396   7.087  10.998
 6832SOL     OW22334   9.931  11.975   8.625
 6832SOL    HW122335   9.903  11.898   8.575
 6832SOL    HW222336   9.853  12.031   8.629
 6833SOL     OW22337  12.468   9.675   8.083
 6833SOL    HW122338  12.493   9.761   8.049
 6833SOL    HW222339  12.479   9.682   8.178
 6834SOL     OW22340   8.653   4.549   4.918
 6834SOL    HW122341   8.632   4.642   4.931
 6834SOL    HW222342   8.693   4.545   4.831
 6835SOL     OW22343   3.266   7.815   1.691
 6835SOL    HW122344   3.257   7.856   1.606
 6835SOL    HW222345   3.313   7.733   1.674
 6836SOL     OW22346   1.111   5.970   2.461
 6836SOL    HW122347   1.190   5.948   2.510
 6836SOL    HW222348   1.140   6.036   2.398
 6837SOL     OW22349   3.607  13.271  11.980
 6837SOL    HW122350   3.609  13.192  12.034
 6837SOL    HW222351   3.562  13.336  12.033
 6838SOL     OW22352   3.151   9.407   1.470
 6838SOL    HW122353   3.090   9.459   1.418
 6838SOL    HW222354   3.140   9.439   1.560
 6839SOL     OW22355   1.467   1.765   6.546
 6839SOL    HW122356   1.534   1.825   6.579
 6839SOL    HW222357   1.512   1.681   6.538
 6840SOL     OW22358   0.716   5.621   8.331
 6840SOL    HW122359   0.745   5.685   8.265
 6840SOL    HW222360   0.735   5.663   8.415
 6841SOL     OW22361  12.085   3.973   0.873
 6841SOL    HW122362  12.040   3.971   0.957
 6841SOL    HW222363  12.030   3.920   0.815
 6842SOL     OW22364   0.167   3.951   6.147
 6842SOL    HW122365   0.214   3.969   6.066
 6842SOL    HW222366   0.230   3.970   6.217
 6843SOL     OW22367   2.429   4.482  12.725
 6843SOL    HW122368   2.519   4.451  12.720
 6843SOL    HW222369   2.382   4.412  12.771
 6844SOL     OW22370  14.346   2.284   5.484
 6844SOL    HW122371  14.382   2.286   5.395
 6844SOL    HW222372  14.269   2.227   5.477
 6845SOL     OW22373   5.044   9.689  14.498
 6845SOL    HW122374   5.067   9.614  14.553
 6845SOL    HW222375   4.994   9.652  14.426
 6846SOL     OW22376   1.141  14.253   8.544
 6846SOL    HW122377   1.197  14.181   8.516
 6846SOL    HW222378   1.054  14.228   8.513
 6847SOL     OW22379   3.423  13.657  11.924
 6847SOL    HW122380   3.335  13.631  11.952
 6847SOL    HW222381   3.411  13.743  11.885
 6848SOL     OW22382   5.950   4.313  14.599
 6848SOL    HW122383   6.011   4.386  14.606
 6848SOL    HW222384   6.004   4.238  14.576
 6849SOL     OW22385   6.478   9.250   8.858
 6849SOL    HW122386   6.507   9.176   8.910
 6849SOL    HW222387   6.537   9.321   8.882
 6850SOL     OW22388   9.317   5.690   2.857
 6850SOL    HW122389   9.344   5.671   2.767
 6850SOL    HW222390   9.396   5.680   2.909
 6851SOL     OW22391  13.082   0.689   8.964
 6851SOL    HW122392  13.056   0.737   8.885
 6851SOL    HW222393  13.156   0.740   8.999
 6852SOL     OW22394   6.718   3.384   2.261
 6852SOL    HW122395   6.809   3.369   2.285
 6852SOL    HW222396   6.711   3.479   2.252
 6853SOL     OW22397   4.105   4.362   5.528
 6853SOL    HW122398   4.199   4.350   5.516
 6853SOL    HW222399   4.081   4.430   5.465
 6854SOL     OW22400   3.501   5.148   7.763
 6854SOL    HW122401   3.543   5.077   7.715
 6854SOL    HW222402   3.412   5.117   7.780
 6855SOL     OW22403   8.472   6.536   6.976
 6855SOL    HW122404   8.567   6.545   6.990
 6855SOL    HW222405   8.440   6.626   6.968
 6856SOL     OW22406  12.004   6.218   9.718
 6856SOL    HW122407  12.084   6.250   9.676
 6856SOL    HW222408  11.996   6.272   9.797
 6857SOL     OW22409   4.471   7.481  11.744
 6857SOL    HW122410   4.424   7.466  11.826
 6857SOL    HW222411   4.559   7.510  11.771
 6858SOL     OW22412   7.311   2.828  12.363
 6858SOL    HW122413   7.232   2.783  12.331
 6858SOL    HW222414   7.289   2.854  12.452
 6859SOL     OW22415   9.215   9.082   9.281
 6859SOL    HW122416   9.271   9.046   9.212
 6859SOL    HW222417   9.275   9.105   9.351
 6860SOL     OW22418  11.306   0.012   8.060
 6860SOL    HW122419  11.342   0.100   8.073
 6860SOL    HW222420  11.211   0.025   8.061
 6861SOL     OW22421   5.910  11.471   6.385
 6861SOL    HW122422   5.893  11.462   6.291
 6861SOL    HW222423   5.836  11.428   6.427
 6862SOL     OW22424   4.998   1.858   7.916
 6862SOL    HW122425   5.017   1.765   7.912
 6862SOL    HW222426   4.977   1.875   8.008
 6863SOL     OW22427   0.474   5.387  13.414
 6863SOL    HW122428   0.468   5.451  13.485
 6863SOL    HW222429   0.385   5.379  13.381
 6864SOL     OW22430  13.896   5.100  13.869
 6864SOL    HW122431  13.864   5.133  13.785
 6864SOL    HW222432  13.991   5.105  13.862
 6865SOL     OW22433   9.965  14.352   5.939
 6865SOL    HW122434  10.029  14.411   5.898
 6865SOL    HW222435   9.933  14.401   6.015
 6866SOL     OW22436   6.194   7.040   7.238
 6866SOL    HW122437   6.285   7.016   7.216
 6866SOL    HW222438   6.178   7.120   7.189
 6867SOL     OW22439   8.745  14.233   8.260
 6867SOL    HW122440   8.819  14.195   8.212
 6867SOL    HW222441   8.747  14.190   8.345
 6868SOL     OW22442   9.418   1.757   3.856
 6868SOL    HW122443   9.398   1.729   3.945
 6868SOL    HW222444   9.383   1.687   3.801
 6869SOL     OW22445   8.027  13.608   8.313
 6869SOL    HW122446   7.986  13.583   8.395
 6869SOL    HW222447   8.037  13.703   8.318
 6870SOL     OW22448   8.516  13.053   4.548
 6870SOL    HW122449   8.548  12.964   4.562
 6870SOL    HW222450   8.439  13.060   4.604
 6871SOL     OW22451   0.355   9.110   1.744
 6871SOL    HW122452   0.413   9.184   1.729
 6871SOL    HW222453   0.283   9.123   1.682
 6872SOL     OW22454   6.953   9.758   8.137
 6872SOL    HW122455   6.927   9.699   8.066
 6872SOL    HW222456   6.934   9.845   8.104
 6873SOL     OW22457   6.635   5.885  11.516
 6873SOL    HW122458   6.714   5.937  11.530
 6873SOL    HW222459   6.617   5.894  11.422
 6874SOL     OW22460   5.804   0.896   6.522
 6874SOL    HW122461   5.814   0.937   6.608
 6874SOL    HW222462   5.852   0.953   6.462
 6875SOL     OW22463   7.452  13.074   9.260
 6875SOL    HW122464   7.450  13.135   9.186
 6875SOL    HW222465   7.510  13.116   9.324
 6876SOL     OW22466   6.802   8.434   1.210
 6876SOL    HW122467   6.869   8.366   1.200
 6876SOL    HW222468   6.743   8.400   1.277
 6877SOL     OW22469   6.772   8.862   8.841
 6877SOL    HW122470   6.692   8.824   8.877
 6877SOL    HW222471   6.840   8.837   8.905
 6878SOL     OW22472   4.992  13.534   2.622
 6878SOL    HW122473   5.063  13.474   2.600
 6878SOL    HW222474   4.935  13.483   2.680
 6879SOL     OW22475   3.091  11.980   4.197
 6879SOL    HW122476   3.097  11.982   4.102
 6879SOL    HW222477   3.021  11.917   4.216
 6880SOL     OW22478   2.338  14.722   3.523
 6880SOL    HW122479   2.368  14.650   3.579
 6880SOL    HW222480   2.418  14.765   3.493
 6881SOL     OW22481   1.770   5.805   9.296
 6881SOL    HW122482   1.750   5.815   9.203
 6881SOL    HW222483   1.784   5.711   9.307
 6882SOL     OW22484   0.540   6.298   3.066
 6882SOL    HW122485   0.509   6.357   2.997
 6882SOL    HW222486   0.583   6.226   3.019
 6883SOL     OW22487   3.566   4.215   5.773
 6883SOL    HW122488   3.565   4.120   5.780
 6883SOL    HW222489   3.474   4.241   5.774
 6884SOL     OW22490   8.485   8.679   9.546
 6884SOL    HW122491   8.498   8.650   9.455
 6884SOL    HW222492   8.392   8.664   9.562
 6885SOL     OW22493   3.423   8.509   4.652
 6885SOL    HW122494   3.479   8.432   4.664
 6885SOL    HW222495   3.341   8.473   4.619
 6886SOL     OW22496   5.380  14.134  11.175
 6886SOL    HW122497   5.308  14.071  11.173
 6886SOL    HW222498   5.353  14.203  11.114
 6887SOL     OW22499  12.059  14.694  11.932
 6887SOL    HW122500  12.149  14.663  11.929
 6887SOL    HW222501  12.049  14.749  11.854
 6888SOL     OW22502   4.055   8.779   5.416
 6888SOL    HW122503   4.000   8.809   5.489
 6888SOL    HW222504   4.074   8.688   5.436
 6889SOL     OW22505  11.144   0.916   1.083
 6889SOL    HW122506  11.067   0.909   1.140
 6889SOL    HW222507  11.211   0.956   1.138
 6890SOL     OW22508   8.559   6.805   8.957
 6890SOL    HW122509   8.596   6.758   9.032
 6890SOL    HW222510   8.465   6.810   8.976
 6891SOL     OW22511  12.659  11.354   2.645
 6891SOL    HW122512  12.649  11.293   2.571
 6891SOL    HW222513  12.702  11.302   2.713
 6892SOL     OW22514  10.716   5.241  14.108
 6892SOL    HW122515  10.767   5.293  14.045
 6892SOL    HW222516  10.725   5.151  14.077
 6893SOL     OW22517   9.261   3.005   5.156
 6893SOL    HW122518   9.307   3.076   5.200
 6893SOL    HW222519   9.200   3.049   5.097
 6894SOL     OW22520   6.323  11.703   9.608
 6894SOL    HW122521   6.358  11.644   9.675
 6894SOL    HW222522   6.359  11.789   9.631
 6895SOL     OW22523  11.702  11.947   8.994
 6895SOL    HW122524  11.687  12.025   8.942
 6895SOL    HW222525  11.796  11.930   8.985
 6896SOL     OW22526   0.512   4.207   9.857
 6896SOL    HW122527   0.556   4.177   9.936
 6896SOL    HW222528   0.478   4.293   9.879
 6897SOL     OW22529   0.329   5.004  10.804
 6897SOL    HW122530   0.256   5.065  10.801
 6897SOL    HW222531   0.395   5.042  10.747
 6898SOL     OW22532  13.790   2.412   8.314
 6898SOL    HW122533  13.761   2.320   8.311
 6898SOL    HW222534  13.818   2.425   8.405
 6899SOL     OW22535  13.391   3.138   6.673
 6899SOL    HW122536  13.478   3.172   6.655
 6899SOL    HW222537  13.346   3.210   6.719
 6900SOL     OW22538   0.536   7.171  11.993
 6900SOL    HW122539   0.585   7.089  12.000
 6900SOL    HW222540   0.447   7.144  11.972
 6901SOL     OW22541   2.286   0.720  13.544
 6901SOL    HW122542   2.250   0.667  13.616
 6901SOL    HW222543   2.365   0.759  13.580
 6902SOL     OW22544   1.483  14.242   1.106
 6902SOL    HW122545   1.464  14.300   1.179
 6902SOL    HW222546   1.576  14.256   1.088
 6903SOL     OW22547   4.857  10.184  11.976
 6903SOL    HW122548   4.781  10.176  12.034
 6903SOL    HW222549   4.860  10.277  11.954
 6904SOL     OW22550  11.031   5.202  12.771
 6904SOL    HW122551  11.052   5.122  12.723
 6904SOL    HW222552  10.984   5.256  12.708
 6905SOL     OW22553   9.730  12.338  11.876
 6905SOL    HW122554   9.657  12.314  11.933
 6905SOL    HW222555   9.694  12.405  11.819
 6906SOL     OW22556   7.396   6.428   6.394
 6906SOL    HW122557   7.482   6.469   6.380
 6906SOL    HW222558   7.358   6.475   6.467
 6907SOL     OW22559   4.635  11.132   8.580
 6907SOL    HW122560   4.639  11.060   8.643
 6907SOL    HW222561   4.629  11.089   8.494
 6908SOL     OW22562   2.438  12.496   7.389
 6908SOL    HW122563   2.498  12.570   7.401
 6908SOL    HW222564   2.458  12.463   7.301
 6909SOL     OW22565   0.999   4.783  13.319
 6909SOL    HW122566   0.906   4.783  13.341
 6909SOL    HW222567   1.032   4.866  13.352
 6910SOL     OW22568   3.665  11.063   8.087
 6910SOL    HW122569   3.730  11.049   8.018
 6910SOL    HW222570   3.582  11.042   8.045
 6911SOL     OW22571  10.882  14.699   9.368
 6911SOL    HW122572  10.956  14.655   9.408
 6911SOL    HW222573  10.825  14.723   9.441
 6912SOL     OW22574  13.341  10.133  11.038
 6912SOL    HW122575  13.277  10.139  11.108
 6912SOL    HW222576  13.297  10.083  10.969
 6913SOL     OW22577  11.729  12.810   2.017
 6913SOL    HW122578  11.819  12.840   2.004
 6913SOL    HW222579  11.685  12.831   1.935
 6914SOL     OW22580   8.303   3.532  10.693
 6914SOL    HW122581   8.211   3.521  10.671
 6914SOL    HW222582   8.318   3.626  10.688
 6915SOL     OW22583   0.039  14.560   4.325
 6915SOL    HW122584  14.854  14.527   4.393
 6915SOL    HW222585   0.070  14.482   4.281
 6916SOL     OW22586   7.033   5.951  13.153
 6916SOL    HW122587   7.128   5.953  13.143
 6916SOL    HW222588   7.018   5.886  13.222
 6917SOL     OW22589  12.786   3.866   0.381
 6917SOL    HW122590  12.866   3.878   0.329
 6917SOL    HW222591  12.750   3.783   0.350
 6918SOL     OW22592   3.107  11.946   3.918
 6918SOL    HW122593   3.052  11.872   3.943
 6918SOL    HW222594   3.092  11.958   3.824
 6919SOL     OW22595  14.570   1.264   7.408
 6919SOL    HW122596  14.543   1.210   7.334
 6919SOL    HW222597  14.533   1.219   7.485
 6920SOL     OW22598   5.517  10.563   3.058
 6920SOL    HW122599   5.537  10.597   2.971
 6920SOL    HW222600   5.430  10.598   3.078
 6921SOL     OW22601   0.450   0.304   5.058
 6921SOL    HW122602   0.459   0.227   5.115
 6921SOL    HW222603   0.538   0.342   5.057
 6922SOL     OW22604   1.383   1.373   5.826
 6922SOL    HW122605   1.369   1.303   5.763
 6922SOL    HW222606   1.407   1.449   5.773
 6923SOL     OW22607   5.690   6.260   1.422
 6923SOL    HW122608   5.670   6.256   1.516
 6923SOL    HW222609   5.775   6.304   1.417
 6924SOL     OW22610   4.566   1.493   9.473
 6924SOL    HW122611   4.485   1.495   9.524
 6924SOL    HW222612   4.558   1.415   9.418
 6925SOL     OW22613  12.708  10.800   4.291
 6925SOL    HW122614  12.705  10.704   4.298
 6925SOL    HW222615  12.723  10.830   4.381
 6926SOL     OW22616   0.220  14.516   0.096
 6926SOL    HW122617   0.180  14.440   0.054
 6926SOL    HW222618   0.268  14.481   0.170
 6927SOL     OW22619  12.773   9.388   8.166
 6927SOL    HW122620  12.713   9.326   8.124
 6927SOL    HW222621  12.783   9.355   8.255
 6928SOL     OW22622   9.900  11.818   5.569
 6928SOL    HW122623   9.934  11.817   5.480
 6928SOL    HW222624   9.911  11.908   5.598
 6929SOL     OW22625   5.100  13.948   5.183
 6929SOL    HW122626   5.005  13.943   5.184
 6929SOL    HW222627   5.128  13.864   5.147
 6930SOL     OW22628  11.149   2.674   1.225
 6930SOL    HW122629  11.151   2.693   1.131
 6930SOL    HW222630  11.060   2.694   1.252
 6931SOL     OW22631  14.507  10.951   8.045
 6931SOL    HW122632  14.476  10.999   7.968
 6931SOL    HW222633  14.601  10.939   8.031
 6932SOL     OW22634  10.975   4.564   8.788
 6932SOL    HW122635  10.993   4.478   8.751
 6932SOL    HW222636  10.998   4.556   8.880
 6933SOL     OW22637   2.248   3.333  13.983
 6933SOL    HW122638   2.275   3.252  13.940
 6933SOL    HW222639   2.269   3.320  14.075
 6934SOL     OW22640  14.637   1.998   0.996
 6934SOL    HW122641  14.577   1.964   1.063
 6934SOL    HW222642  14.652   1.923   0.938
 6935SOL     OW22643   4.238   8.002  11.554
 6935SOL    HW122644   4.289   7.921  11.561
 6935SOL    HW222645   4.256   8.035  11.466
 6936SOL     OW22646  13.381   1.840  12.688
 6936SOL    HW122647  13.381   1.767  12.625
 6936SOL    HW222648  13.413   1.801  12.769
 6937SOL     OW22649   9.531  13.983  12.754
 6937SOL    HW122650   9.562  13.892  12.756
 6937SOL    HW222651   9.611  14.035  12.763
 6938SOL     OW22652   4.468  14.352  14.460
 6938SOL    HW122653   4.538  14.303  14.417
 6938SOL    HW222654   4.453  14.307  14.543
 6939SOL     OW22655   9.689   8.414   7.129
 6939SOL    HW122656   9.606   8.373   7.108
 6939SOL    HW222657   9.699   8.484   7.064
 6940SOL     OW22658  13.666  14.169   3.005
 6940SOL    HW122659  13.760  14.186   2.999
 6940SOL    HW222660  13.656  14.117   3.085
 6941SOL     OW22661   1.807  13.807  11.226
 6941SOL    HW122662   1.787  13.900  11.217
 6941SOL    HW222663   1.757  13.765  11.156
 6942SOL     OW22664   2.368   1.419  12.115
 6942SOL    HW122665   2.456   1.389  12.092
 6942SOL    HW222666   2.380   1.510  12.142
 6943SOL     OW22667   6.407   2.686   7.941
 6943SOL    HW122668   6.501   2.705   7.937
 6943SOL    HW222669   6.374   2.746   8.008
 6944SOL     OW22670   2.700   7.837   7.178
 6944SOL    HW122671   2.743   7.870   7.257
 6944SOL    HW222672   2.662   7.753   7.205
 6945SOL     OW22673   3.046   3.300  11.889
 6945SOL    HW122674   3.091   3.371  11.936
 6945SOL    HW222675   3.053   3.225  11.948
 6946SOL     OW22676  14.756  11.585   2.377
 6946SOL    HW122677  14.845  11.615   2.356
 6946SOL    HW222678  14.699  11.638   2.322
 6947SOL     OW22679  10.892   1.291   2.841
 6947SOL    HW122680  10.851   1.277   2.757
 6947SOL    HW222681  10.850   1.229   2.900
 6948SOL     OW22682   0.552   4.202   5.050
 6948SOL    HW122683   0.518   4.179   5.136
 6948SOL    HW222684   0.637   4.242   5.067
 6949SOL     OW22685   7.061  14.178   7.594
 6949SOL    HW122686   7.105  14.207   7.673
 6949SOL    HW222687   7.116  14.210   7.523
 6950SOL     OW22688   6.158  12.600   5.413
 6950SOL    HW122689   6.080  12.591   5.467
 6950SOL    HW222690   6.184  12.510   5.393
 6951SOL     OW22691   8.138  13.406  13.036
 6951SOL    HW122692   8.209  13.383  12.975
 6951SOL    HW222693   8.058  13.384  12.990
 6952SOL     OW22694   0.521   5.069   8.307
 6952SOL    HW122695   0.535   5.075   8.212
 6952SOL    HW222696   0.606   5.041   8.342
 6953SOL     OW22697  12.651  10.522   9.235
 6953SOL    HW122698  12.644  10.436   9.193
 6953SOL    HW222699  12.596  10.514   9.313
 6954SOL     OW22700   2.835   2.112   4.653
 6954SOL    HW122701   2.775   2.185   4.640
 6954SOL    HW222702   2.781   2.034   4.640
 6955SOL     OW22703  11.204   4.196   1.602
 6955SOL    HW122704  11.235   4.272   1.652
 6955SOL    HW222705  11.276   4.133   1.607
 6956SOL     OW22706   3.012   0.281   8.812
 6956SOL    HW122707   3.082   0.224   8.780
 6956SOL    HW222708   2.987   0.333   8.735
 6957SOL     OW22709   3.802   0.084   7.340
 6957SOL    HW122710   3.881   0.093   7.288
 6957SOL    HW222711   3.737   0.049   7.279
 6958SOL     OW22712   6.787   7.330   9.102
 6958SOL    HW122713   6.742   7.399   9.054
 6958SOL    HW222714   6.726   7.307   9.172
 6959SOL     OW22715   2.791  12.276   8.802
 6959SOL    HW122716   2.720  12.305   8.744
 6959SOL    HW222717   2.750  12.273   8.889
 6960SOL     OW22718  11.758   8.530   0.879
 6960SOL    HW122719  11.775   8.444   0.840
 6960SOL    HW222720  11.843   8.572   0.883
 6961SOL     OW22721   2.433  13.670  14.207
 6961SOL    HW122722   2.452  13.617  14.285
 6961SOL    HW222723   2.430  13.760  14.240
 6962SOL     OW22724   4.792  11.786   4.706
 6962SOL    HW122725   4.842  11.859   4.670
 6962SOL    HW222726   4.844  11.709   4.685
 6963SOL     OW22727  12.413  14.051   4.938
 6963SOL    HW122728  12.443  13.960   4.932
 6963SOL    HW222729  12.482  14.096   4.986
 6964SOL     OW22730   2.032  11.618   3.646
 6964SOL    HW122731   2.039  11.704   3.686
 6964SOL    HW222732   1.938  11.605   3.633
 6965SOL     OW22733  12.293   2.190  14.535
 6965SOL    HW122734  12.252   2.157  14.616
 6965SOL    HW222735  12.333   2.112  14.496
 6966SOL     OW22736   5.496   9.362   3.338
 6966SOL    HW122737   5.559   9.291   3.324
 6966SOL    HW222738   5.549   9.436   3.368
 6967SOL     OW22739  13.075   6.089  13.704
 6967SOL    HW122740  13.038   6.078  13.616
 6967SOL    HW222741  13.153   6.034  13.704
 6968SOL     OW22742   1.364  12.308   3.317
 6968SOL    HW122743   1.417  12.251   3.262
 6968SOL    HW222744   1.393  12.396   3.294
 6969SOL     OW22745   8.964  12.333  12.013
 6969SOL    HW122746   8.910  12.393  11.961
 6969SOL    HW222747   8.973  12.255  11.957
 6970SOL     OW22748   5.424   3.305  10.323
 6970SOL    HW122749   5.374   3.302  10.405
 6970SOL    HW222750   5.464   3.392  10.323
 6971SOL     OW22751  14.566  10.214  14.116
 6971SOL    HW122752  14.517  10.174  14.187
 6971SOL    HW222753  14.627  10.146  14.088
 6972SOL     OW22754   8.537   1.259   6.260
 6972SOL    HW122755   8.553   1.194   6.191
 6972SOL    HW222756   8.443   1.252   6.276
 6973SOL     OW22757   0.174  12.935   2.723
 6973SOL    HW122758   0.176  12.861   2.784
 6973SOL    HW222759   0.139  13.007   2.775
 6974SOL     OW22760   2.098  11.287   1.609
 6974SOL    HW122761   2.068  11.346   1.540
 6974SOL    HW222762   2.180  11.251   1.576
 6975SOL     OW22763   5.136   2.595   6.952
 6975SOL    HW122764   5.160   2.680   6.913
 6975SOL    HW222765   5.083   2.618   7.028
 6976SOL     OW22766   0.095   3.698   4.113
 6976SOL    HW122767   0.140   3.697   4.029
 6976SOL    HW222768   0.005   3.721   4.092
 6977SOL     OW22769   4.021  13.159  13.731
 6977SOL    HW122770   4.003  13.177  13.638
 6977SOL    HW222771   4.067  13.237  13.762
 6978SOL     OW22772   4.895  11.938   5.681
 6978SOL    HW122773   4.878  11.925   5.775
 6978SOL    HW222774   4.946  11.861   5.655
 6979SOL     OW22775   3.273  13.693   8.601
 6979SOL    HW122776   3.297  13.786   8.612
 6979SOL    HW222777   3.276  13.679   8.507
 6980SOL     OW22778   6.447  12.169   1.045
 6980SOL    HW122779   6.370  12.185   0.991
 6980SOL    HW222780   6.502  12.111   0.993
 6981SOL     OW22781   0.285   5.885  14.188
 6981SOL    HW122782   0.236   5.880  14.106
 6981SOL    HW222783   0.285   5.796  14.222
 6982SOL     OW22784   9.556   8.751  14.458
 6982SOL    HW122785   9.639   8.704  14.469
 6982SOL    HW222786   9.526   8.725  14.371
 6983SOL     OW22787   4.922   8.538  12.999
 6983SOL    HW122788   4.842   8.491  12.976
 6983SOL    HW222789   4.986   8.510  12.934
 6984SOL     OW22790   6.784   2.848  10.052
 6984SOL    HW122791   6.817   2.782   9.991
 6984SOL    HW222792   6.833   2.832  10.133
 6985SOL     OW22793  12.978   2.086   7.279
 6985SOL    HW122794  12.886   2.066   7.295
 6985SOL    HW222795  13.018   2.084   7.367
 6986SOL     OW22796   2.131   7.704  14.319
 6986SOL    HW122797   2.190   7.653  14.375
 6986SOL    HW222798   2.052   7.651  14.312
 6987SOL     OW22799   8.718   7.164   6.440
 6987SOL    HW122800   8.811   7.184   6.452
 6987SOL    HW222801   8.673   7.221   6.502
 6988SOL     OW22802   6.881   3.893  10.815
 6988SOL    HW122803   6.880   3.804  10.852
 6988SOL    HW222804   6.900   3.880  10.722
 6989SOL     OW22805   8.328  12.852  10.230
 6989SOL    HW122806   8.423  12.846  10.227
 6989SOL    HW222807   8.300  12.771  10.272
 6990SOL     OW22808   5.697   1.998  14.839
 6990SOL    HW122809   5.754   2.012   0.041
 6990SOL    HW222810   5.628   1.940  14.871
 6991SOL     OW22811  13.232   4.126   7.481
 6991SOL    HW122812  13.313   4.104   7.434
 6991SOL    HW222813  13.250   4.210   7.522
 6992SOL     OW22814   7.758   7.758  12.574
 6992SOL    HW122815   7.670   7.772  12.611
 6992SOL    HW222816   7.812   7.735  12.649
 6993SOL     OW22817   4.189  14.289   1.706
 6993SOL    HW122818   4.215  14.261   1.794
 6993SOL    HW222819   4.225  14.378   1.698
 6994SOL     OW22820  10.916   7.142   9.406
 6994SOL    HW122821  10.838   7.155   9.460
 6994SOL    HW222822  10.975   7.090   9.461
 6995SOL     OW22823  13.108   6.928   1.024
 6995SOL    HW122824  13.139   6.954   1.110
 6995SOL    HW222825  13.181   6.879   0.985
 6996SOL     OW22826   3.921   8.244  14.436
 6996SOL    HW122827   3.829   8.244  14.463
 6996SOL    HW222828   3.968   8.212  14.513
 6997SOL     OW22829   8.586   1.778   9.677
 6997SOL    HW122830   8.670   1.787   9.632
 6997SOL    HW222831   8.554   1.867   9.687
 6998SOL     OW22832   9.027   7.428   8.195
 6998SOL    HW122833   8.987   7.409   8.279
 6998SOL    HW222834   8.963   7.398   8.130
 6999SOL     OW22835  10.811   3.382   0.585
 6999SOL    HW122836  10.725   3.406   0.621
 6999SOL    HW222837  10.820   3.435   0.506
 7000SOL     OW22838  11.311   1.390  10.715
 7000SOL    HW122839  11.352   1.399  10.801
 7000SOL    HW222840  11.284   1.478  10.691
 7001SOL     OW22841   0.473   6.697   9.442
 7001SOL    HW122842   0.565   6.677   9.454
 7001SOL    HW222843   0.442   6.634   9.377
 7002SOL     OW22844  12.407   1.830   1.428
 7002SOL    HW122845  12.386   1.751   1.478
 7002SOL    HW222846  12.356   1.821   1.347
 7003SOL     OW22847  12.712  14.787  11.933
 7003SOL    HW122848  12.698  14.729  12.008
 7003SOL    HW222849  12.785  14.748  11.885
 7004SOL     OW22850   2.383   5.907   3.450
 7004SOL    HW122851   2.428   5.886   3.532
 7004SOL    HW222852   2.353   5.997   3.463
 7005SOL     OW22853   5.433   8.092   0.594
 7005SOL    HW122854   5.382   8.170   0.569
 7005SOL    HW222855   5.393   8.021   0.544
 7006SOL     OW22856   1.715   4.996   4.646
 7006SOL    HW122857   1.652   4.925   4.660
 7006SOL    HW222858   1.772   4.964   4.576
 7007SOL     OW22859   7.804   3.493  14.705
 7007SOL    HW122860   7.883   3.538  14.736
 7007SOL    HW222861   7.787   3.532  14.620
 7008SOL     OW22862   4.253  14.737  11.604
 7008SOL    HW122863   4.302  14.701  11.678
 7008SOL    HW222864   4.162  14.737  11.633
 7009SOL     OW22865   7.544   4.615  14.775
 7009SOL    HW122866   7.549   4.670  14.852
 7009SOL    HW222867   7.597   4.660  14.709
 7010SOL     OW22868  11.152  12.833   7.648
 7010SOL    HW122869  11.200  12.916   7.652
 7010SOL    HW222870  11.113  12.833   7.560
 7011SOL     OW22871   0.147   0.741  13.854
 7011SOL    HW122872   0.118   0.710  13.939
 7011SOL    HW222873   0.187   0.827  13.872
 7012SOL     OW22874   8.551  12.461   4.591
 7012SOL    HW122875   8.567  12.417   4.675
 7012SOL    HW222876   8.614  12.533   4.589
 7013SOL     OW22877  10.520  13.708  13.341
 7013SOL    HW122878  10.610  13.698  13.372
 7013SOL    HW222879  10.475  13.630  13.373
 7014SOL     OW22880  10.056   1.424   4.307
 7014SOL    HW122881  10.147   1.425   4.278
 7014SOL    HW222882  10.014   1.357   4.253
 7015SOL     OW22883   1.740   0.541   6.533
 7015SOL    HW122884   1.796   0.618   6.528
 7015SOL    HW222885   1.756   0.505   6.620
 7016SOL     OW22886  12.015  10.889  10.281
 7016SOL    HW122887  12.091  10.847  10.323
 7016SOL    HW222888  11.979  10.822  10.224
 7017SOL     OW22889  12.117   5.020  10.481
 7017SOL    HW122890  12.029   5.058  10.492
 7017SOL    HW222891  12.107   4.960  10.407
 7018SOL     OW22892   6.803   9.419  11.366
 7018SOL    HW122893   6.823   9.340  11.417
 7018SOL    HW222894   6.873   9.481  11.390
 7019SOL     OW22895   1.250   3.975   0.122
 7019SOL    HW122896   1.155   3.980   0.109
 7019SOL    HW222897   1.283   4.061   0.096
 7020SOL     OW22898   9.733  12.448  13.513
 7020SOL    HW122899   9.665  12.403  13.463
 7020SOL    HW222900   9.732  12.405  13.599
 7021SOL     OW22901   7.598   0.867   0.453
 7021SOL    HW122902   7.634   0.927   0.519
 7021SOL    HW222903   7.539   0.810   0.503
 7022SOL     OW22904   1.176   9.446   7.038
 7022SOL    HW122905   1.145   9.518   6.983
 7022SOL    HW222906   1.201   9.378   6.976
 7023SOL     OW22907   2.710   7.950   4.947
 7023SOL    HW122908   2.690   7.892   4.873
 7023SOL    HW222909   2.653   7.919   5.018
 7024SOL     OW22910   1.966  13.732   6.854
 7024SOL    HW122911   1.968  13.734   6.950
 7024SOL    HW222912   1.874  13.723   6.832
 7025SOL     OW22913   4.239  14.819   2.553
 7025SOL    HW122914   4.303  14.748   2.553
 7025SOL    HW222915   4.291   0.024   2.535
 7026SOL     OW22916   8.448  14.820  13.431
 7026SOL    HW122917   8.423  14.852  13.517
 7026SOL    HW222918   8.468   0.025  13.381
 7027SOL     OW22919  10.028   3.077   7.460
 7027SOL    HW122920  10.023   3.073   7.364
 7027SOL    HW222921  10.048   2.987   7.487
 7028SOL     OW22922   1.684   7.747  12.055
 7028SOL    HW122923   1.750   7.747  11.985
 7028SOL    HW222924   1.637   7.665  12.044
 7029SOL     OW22925  14.083  12.400   3.098
 7029SOL    HW122926  13.996  12.437   3.105
 7029SOL    HW222927  14.122  12.442   3.021
 7030SOL     OW22928  11.019   6.781   3.964
 7030SOL    HW122929  11.035   6.851   3.902
 7030SOL    HW222930  10.929   6.754   3.948
 7031SOL     OW22931  13.898   9.429   0.026
 7031SOL    HW122932  13.902   9.523   0.009
 7031SOL    HW222933  13.962   9.415   0.096
 7032SOL     OW22934  12.398   2.763   3.376
 7032SOL    HW122935  12.423   2.794   3.289
 7032SOL    HW222936  12.305   2.785   3.383
 7033SOL     OW22937  14.076   9.346  12.537
 7033SOL    HW122938  14.122   9.263  12.541
 7033SOL    HW222939  14.041   9.351  12.449
 7034SOL     OW22940   7.097   6.915   8.441
 7034SOL    HW122941   7.015   6.914   8.393
 7034SOL    HW222942   7.132   6.826   8.432
 7035SOL     OW22943   7.354  14.855  10.276
 7035SOL    HW122944   7.395   0.058  10.316
 7035SOL    HW222945   7.269  14.849  10.320
 7036SOL     OW22946  13.870   9.348   4.090
 7036SOL    HW122947  13.832   9.260   4.100
 7036SOL    HW222948  13.914   9.365   4.173
 7037SOL     OW22949   3.006   3.929  12.741
 7037SOL    HW122950   3.061   3.852  12.755
 7037SOL    HW222951   3.053   4.000  12.784
 7038SOL     OW22952   4.570  12.998  14.747
 7038SOL    HW122953   4.589  13.088  14.773
 7038SOL    HW222954   4.651  12.950  14.766
 7039SOL     OW22955  12.857  11.391  11.644
 7039SOL    HW122956  12.938  11.350  11.615
 7039SOL    HW222957  12.813  11.420  11.564
 7040SOL     OW22958   4.003   9.887   2.403
 7040SOL    HW122959   3.990   9.978   2.375
 7040SOL    HW222960   4.026   9.840   2.323
 7041SOL     OW22961  11.614   3.229   9.267
 7041SOL    HW122962  11.601   3.267   9.354
 7041SOL    HW222963  11.669   3.151   9.283
 7042SOL     OW22964   3.272   5.445  14.083
 7042SOL    HW122965   3.328   5.423  14.008
 7042SOL    HW222966   3.253   5.538  14.072
 7043SOL     OW22967  10.313   2.652   1.733
 7043SOL    HW122968  10.220   2.652   1.754
 7043SOL    HW222969  10.316   2.670   1.639
 7044SOL     OW22970   5.655   2.381  13.200
 7044SOL    HW122971   5.637   2.454  13.141
 7044SOL    HW222972   5.602   2.398  13.277
 7045SOL     OW22973   7.988   3.414  13.499
 7045SOL    HW122974   8.059   3.390  13.559
 7045SOL    HW222975   7.985   3.509  13.504
 7046SOL     OW22976  14.752  11.792   3.919
 7046SOL    HW122977  14.839  11.821   3.890
 7046SOL    HW222978  14.764  11.767   4.011
 7047SOL     OW22979   2.017  10.735  12.350
 7047SOL    HW122980   2.020  10.657  12.405
 7047SOL    HW222981   1.969  10.800  12.402
 7048SOL     OW22982   5.916  12.440   8.345
 7048SOL    HW122983   5.868  12.409   8.269
 7048SOL    HW222984   6.000  12.393   8.342
 7049SOL     OW22985   9.746   3.768   8.287
 7049SOL    HW122986   9.693   3.745   8.363
 7049SOL    HW222987   9.809   3.696   8.279
 7050SOL     OW22988  14.577   9.806  10.400
 7050SOL    HW122989  14.571   9.805  10.496
 7050SOL    HW222990  14.502   9.857  10.372
 7051SOL     OW22991   6.798   7.249  14.542
 7051SOL    HW122992   6.788   7.344  14.530
 7051SOL    HW222993   6.796   7.237  14.637
 7052SOL     OW22994   6.227   9.120  14.058
 7052SOL    HW122995   6.182   9.036  14.059
 7052SOL    HW222996   6.320   9.098  14.049
 7053SOL     OW22997   7.632   2.898   0.336
 7053SOL    HW122998   7.698   2.938   0.392
 7053SOL    HW222999   7.673   2.896   0.249
 7054SOL     OW23000  11.822  13.298   0.426
 7054SOL    HW123001  11.733  13.321   0.398
 7054SOL    HW223002  11.839  13.355   0.501
 7055SOL     OW23003  11.497  11.208  12.013
 7055SOL    HW123004  11.501  11.117  11.985
 7055SOL    HW223005  11.425  11.211  12.076
 7056SOL     OW23006  11.263   4.547  13.991
 7056SOL    HW123007  11.328   4.579  14.054
 7056SOL    HW223008  11.315   4.518  13.915
 7057SOL     OW23009   5.820   4.260   8.110
 7057SOL    HW123010   5.913   4.279   8.096
 7057SOL    HW223011   5.818   4.167   8.133
 7058SOL     OW23012   8.538  10.579   2.706
 7058SOL    HW123013   8.486  10.530   2.643
 7058SOL    HW223014   8.474  10.629   2.756
 7059SOL     OW23015  11.070   2.628   4.755
 7059SOL    HW123016  11.133   2.587   4.695
 7059SOL    HW223017  10.989   2.579   4.741
 7060SOL     OW23018  14.775   1.940   0.142
 7060SOL    HW123019  14.848   1.889   0.105
 7060SOL    HW223020  14.805   1.963   0.230
 7061SOL     OW23021  10.217   5.606   2.388
 7061SOL    HW123022  10.257   5.641   2.308
 7061SOL    HW223023  10.133   5.570   2.359
 7062SOL     OW23024  14.320  12.016   7.266
 7062SOL    HW123025  14.312  12.050   7.355
 7062SOL    HW223026  14.378  11.941   7.273
 7063SOL     OW23027  11.686   4.726   7.271
 7063SOL    HW123028  11.610   4.780   7.251
 7063SOL    HW223029  11.691   4.664   7.199
 7064SOL     OW23030  11.519   8.586  10.999
 7064SOL    HW123031  11.533   8.504  11.045
 7064SOL    HW223032  11.606   8.610  10.966
 7065SOL     OW23033   9.474   1.276   1.948
 7065SOL    HW123034   9.549   1.276   1.889
 7065SOL    HW223035   9.510   1.303   2.033
 7066SOL     OW23036   3.848   3.207   5.907
 7066SOL    HW123037   3.860   3.140   5.975
 7066SOL    HW223038   3.761   3.188   5.871
 7067SOL     OW23039  11.200   3.972   3.757
 7067SOL    HW123040  11.154   4.030   3.818
 7067SOL    HW223041  11.130   3.933   3.705
 7068SOL     OW23042   9.659   2.934   0.490
 7068SOL    HW123043   9.729   2.980   0.536
 7068SOL    HW223044   9.704   2.861   0.447
 7069SOL     OW23045   6.523  12.139   2.495
 7069SOL    HW123046   6.595  12.197   2.471
 7069SOL    HW223047   6.478  12.122   2.412
 7070SOL     OW23048  10.129  11.056   8.383
 7070SOL    HW123049  10.076  11.084   8.458
 7070SOL    HW223050  10.075  11.075   8.307
 7071SOL     OW23051   6.648   7.200  13.325
 7071SOL    HW123052   6.718   7.264  13.316
 7071SOL    HW223053   6.602   7.204  13.241
 7072SOL     OW23054  10.279  11.231   5.130
 7072SOL    HW123055  10.322  11.213   5.214
 7072SOL    HW223056  10.347  11.212   5.064
 7073SOL     OW23057   6.620  11.082  11.468
 7073SOL    HW123058   6.640  11.022  11.396
 7073SOL    HW223059   6.569  11.029  11.530
 7074SOL     OW23060  13.530  11.700   4.136
 7074SOL    HW123061  13.573  11.692   4.222
 7074SOL    HW223062  13.450  11.649   4.144
 7075SOL     OW23063   3.892   3.204   8.031
 7075SOL    HW123064   3.890   3.157   7.947
 7075SOL    HW223065   3.836   3.152   8.089
 7076SOL     OW23066   4.533  11.657   2.179
 7076SOL    HW123067   4.537  11.570   2.219
 7076SOL    HW223068   4.442  11.666   2.152
 7077SOL     OW23069  14.841   8.165   3.153
 7077SOL    HW123070  14.812   8.093   3.209
 7077SOL    HW223071   0.007   8.228   3.212
 7078SOL     OW23072   5.353   4.068  10.114
 7078SOL    HW123073   5.300   4.140  10.148
 7078SOL    HW223074   5.350   4.001  10.183
 7079SOL     OW23075   3.757   1.734   4.454
 7079SOL    HW123076   3.756   1.816   4.504
 7079SOL    HW223077   3.790   1.669   4.515
 7080SOL     OW23078   1.708  14.769   6.503
 7080SOL    HW123079   1.615  14.791   6.499
 7080SOL    HW223080   1.712  14.678   6.474
 7081SOL     OW23081   6.644  12.415   2.588
 7081SOL    HW123082   6.612  12.497   2.550
 7081SOL    HW223083   6.576  12.391   2.651
 7082SOL     OW23084  14.142  11.775  12.123
 7082SOL    HW123085  14.197  11.784  12.201
 7082SOL    HW223086  14.187  11.710  12.070
 7083SOL     OW23087   3.808  11.104   0.790
 7083SOL    HW123088   3.819  11.030   0.731
 7083SOL    HW223089   3.739  11.077   0.850
 7084SOL     OW23090  13.227   3.731   1.362
 7084SOL    HW123091  13.317   3.718   1.392
 7084SOL    HW223092  13.177   3.743   1.443
 7085SOL     OW23093   8.831   0.442   0.161
 7085SOL    HW123094   8.918   0.404   0.175
 7085SOL    HW223095   8.816   0.497   0.238
 7086SOL     OW23096   5.353   9.857   6.830
 7086SOL    HW123097   5.371   9.768   6.861
 7086SOL    HW223098   5.313   9.845   6.744
 7087SOL     OW23099   6.031   7.266   1.379
 7087SOL    HW123100   6.050   7.177   1.408
 7087SOL    HW223101   6.117   7.306   1.366
 7088SOL     OW23102   9.137  11.443   6.332
 7088SOL    HW123103   9.132  11.376   6.264
 7088SOL    HW223104   9.197  11.407   6.397
 7089SOL     OW23105   5.587   9.205   4.810
 7089SOL    HW123106   5.533   9.135   4.846
 7089SOL    HW223107   5.562   9.283   4.861
 7090SOL     OW23108  11.174  10.614  14.645
 7090SOL    HW123109  11.197  10.639  14.734
 7090SOL    HW223110  11.080  10.630  14.639
 7091SOL     OW23111  12.688   8.520   2.458
 7091SOL    HW123112  12.739   8.570   2.395
 7091SOL    HW223113  12.687   8.431   2.423
 7092SOL     OW23114   8.887  12.878   0.658
 7092SOL    HW123115   8.794  12.888   0.675
 7092SOL    HW223116   8.902  12.783   0.661
 7093SOL     OW23117   1.694   3.486   4.677
 7093SOL    HW123118   1.785   3.475   4.702
 7093SOL    HW223119   1.645   3.428   4.736
 7094SOL     OW23120   9.742   9.626   0.380
 7094SOL    HW123121   9.817   9.568   0.371
 7094SOL    HW223122   9.780   9.713   0.390
 7095SOL     OW23123   4.934   0.450   0.538
 7095SOL    HW123124   4.936   0.369   0.487
 7095SOL    HW223125   4.884   0.511   0.484
 7096SOL     OW23126   3.564   6.624  11.630
 7096SOL    HW123127   3.549   6.701  11.575
 7096SOL    HW223128   3.653   6.595  11.608
 7097SOL     OW23129   1.817   2.467  11.185
 7097SOL    HW123130   1.810   2.442  11.093
 7097SOL    HW223131   1.905   2.504  11.193
 7098SOL     OW23132  11.603   8.009   1.771
 7098SOL    HW123133  11.538   8.042   1.832
 7098SOL    HW223134  11.684   8.003   1.822
 7099SOL     OW23135  11.920   9.545   4.888
 7099SOL    HW123136  11.880   9.531   4.802
 7099SOL    HW223137  12.003   9.589   4.869
 7100SOL     OW23138   8.883  13.913   1.224
 7100SOL    HW123139   8.960  13.964   1.249
 7100SOL    HW223140   8.828  13.911   1.302
 7101SOL     OW23141  11.909  14.306   1.097
 7101SOL    HW123142  11.876  14.250   1.167
 7101SOL    HW223143  11.897  14.254   1.018
 7102SOL     OW23144  13.651  14.135   7.706
 7102SOL    HW123145  13.563  14.133   7.669
 7102SOL    HW223146  13.665  14.046   7.740
 7103SOL     OW23147  10.450   1.238  11.292
 7103SOL    HW123148  10.482   1.328  11.286
 7103SOL    HW223149  10.462   1.214  11.384
 7104SOL     OW23150   4.624   1.126   8.814
 7104SOL    HW123151   4.555   1.188   8.792
 7104SOL    HW223152   4.697   1.180   8.844
 7105SOL     OW23153  10.608   3.221  10.098
 7105SOL    HW123154  10.609   3.303  10.049
 7105SOL    HW223155  10.518   3.215  10.132
 7106SOL     OW23156   1.329   6.250  13.104
 7106SOL    HW123157   1.249   6.302  13.097
 7106SOL    HW223158   1.400   6.313  13.093
 7107SOL     OW23159   9.124   1.553   1.187
 7107SOL    HW123160   9.197   1.557   1.250
 7107SOL    HW223161   9.052   1.513   1.237
 7108SOL     OW23162  10.879   2.160   3.587
 7108SOL    HW123163  10.894   2.174   3.680
 7108SOL    HW223164  10.950   2.102   3.560
 7109SOL     OW23165   0.395   0.122   1.259
 7109SOL    HW123166   0.341   0.120   1.181
 7109SOL    HW223167   0.353   0.186   1.316
 7110SOL     OW23168  10.902   4.445   8.255
 7110SOL    HW123169  10.943   4.531   8.249
 7110SOL    HW223170  10.817   4.456   8.213
 7111SOL     OW23171  11.792  11.532   1.794
 7111SOL    HW123172  11.825  11.622   1.801
 7111SOL    HW223173  11.849  11.481   1.850
 7112SOL     OW23174   7.120   6.683  12.283
 7112SOL    HW123175   7.156   6.749  12.343
 7112SOL    HW223176   7.027   6.706  12.276
 7113SOL     OW23177  14.338   9.213  10.037
 7113SOL    HW123178  14.311   9.299  10.070
 7113SOL    HW223179  14.269   9.189   9.974
 7114SOL     OW23180   3.202   8.118   2.496
 7114SOL    HW123181   3.150   8.099   2.418
 7114SOL    HW223182   3.288   8.143   2.462
 7115SOL     OW23183  12.707   3.043   3.365
 7115SOL    HW123184  12.748   2.962   3.335
 7115SOL    HW223185  12.676   3.023   3.454
 7116SOL     OW23186  14.361  14.144   0.162
 7116SOL    HW123187  14.292  14.100   0.213
 7116SOL    HW223188  14.342  14.120   0.071
 7117SOL     OW23189  10.565   6.856   1.676
 7117SOL    HW123190  10.495   6.918   1.699
 7117SOL    HW223191  10.521   6.790   1.623
 7118SOL     OW23192  13.523   5.674   0.131
 7118SOL    HW123193  13.501   5.755   0.086
 7118SOL    HW223194  13.542   5.612   0.060
 7119SOL     OW23195  10.243   5.447  10.743
 7119SOL    HW123196  10.209   5.384  10.807
 7119SOL    HW223197  10.230   5.532  10.783
 7120SOL     OW23198   4.756  10.017   2.990
 7120SOL    HW123199   4.686  10.020   3.055
 7120SOL    HW223200   4.726   9.955   2.924
 7121SOL     OW23201   1.209   1.104  14.833
 7121SOL    HW123202   1.155   1.136   0.031
 7121SOL    HW223203   1.186   1.012  14.824
 7122SOL     OW23204   5.871   9.362   7.405
 7122SOL    HW123205   5.940   9.305   7.372
 7122SOL    HW223206   5.913   9.446   7.418
 7123SOL     OW23207   6.553  12.306   6.168
 7123SOL    HW123208   6.468  12.293   6.210
 7123SOL    HW223209   6.617  12.275   6.233
 7124SOL     OW23210   1.986   6.269   3.987
 7124SOL    HW123211   1.992   6.299   4.077
 7124SOL    HW223212   1.892   6.266   3.969
 7125SOL     OW23213   9.941   9.372   3.482
 7125SOL    HW123214  10.009   9.330   3.429
 7125SOL    HW223215   9.885   9.416   3.418
 7126SOL     OW23216   9.014   9.177  13.481
 7126SOL    HW123217   8.940   9.122  13.507
 7126SOL    HW223218   9.059   9.196  13.564
 7127SOL     OW23219   0.983  10.944   1.970
 7127SOL    HW123220   0.944  10.919   2.054
 7127SOL    HW223221   0.923  11.010   1.934
 7128SOL     OW23222  14.113  11.257   6.791
 7128SOL    HW123223  14.079  11.269   6.880
 7128SOL    HW223224  14.058  11.188   6.754
 7129SOL     OW23225  11.341  13.548   2.607
 7129SOL    HW123226  11.289  13.623   2.581
 7129SOL    HW223227  11.332  13.543   2.702
 7130SOL     OW23228   2.554   1.484   5.214
 7130SOL    HW123229   2.566   1.431   5.135
 7130SOL    HW223230   2.607   1.439   5.281
 7131SOL     OW23231   5.193   1.462   9.636
 7131SOL    HW123232   5.110   1.468   9.684
 7131SOL    HW223233   5.257   1.503   9.694
 7132SOL     OW23234   5.801  11.641   2.244
 7132SOL    HW123235   5.749  11.637   2.324
 7132SOL    HW223236   5.789  11.555   2.203
 7133SOL     OW23237  13.422   3.382   1.583
 7133SOL    HW123238  13.354   3.316   1.570
 7133SOL    HW223239  13.433   3.423   1.497
 7134SOL     OW23240   6.384   4.221   2.139
 7134SOL    HW123241   6.381   4.316   2.151
 7134SOL    HW223242   6.404   4.209   2.047
 7135SOL     OW23243  11.650   5.027   2.218
 7135SOL    HW123244  11.562   5.016   2.184
 7135SOL    HW223245  11.648   5.109   2.267
 7136SOL     OW23246   0.601   3.008   9.550
 7136SOL    HW123247   0.506   2.997   9.543
 7136SOL    HW223248   0.624   2.962   9.631
 7137SOL     OW23249  14.775   2.589  13.541
 7137SOL    HW123250  14.864   2.624  13.533
 7137SOL    HW223251  14.752   2.561  13.452
 7138SOL     OW23252   1.494   2.192   3.120
 7138SOL    HW123253   1.403   2.216   3.101
 7138SOL    HW223254   1.531   2.270   3.161
 7139SOL     OW23255   2.136  14.261   7.918
 7139SOL    HW123256   2.068  14.197   7.938
 7139SOL    HW223257   2.137  14.267   7.822
 7140SOL     OW23258   7.519   4.081  10.712
 7140SOL    HW123259   7.432   4.106  10.680
 7140SOL    HW223260   7.527   4.126  10.796
 7141SOL     OW23261   3.594   0.384   4.050
 7141SOL    HW123262   3.543   0.316   4.006
 7141SOL    HW223263   3.574   0.373   4.143
 7142SOL     OW23264   5.709  14.011   4.270
 7142SOL    HW123265   5.643  14.062   4.223
 7142SOL    HW223266   5.765  14.077   4.312
 7143SOL     OW23267   0.374  10.946   8.126
 7143SOL    HW123268   0.455  10.995   8.137
 7143SOL    HW223269   0.374  10.918   8.035
 7144SOL     OW23270  14.765  12.268   9.816
 7144SOL    HW123271  14.804  12.190   9.777
 7144SOL    HW223272  14.671  12.254   9.808
 7145SOL     OW23273   7.346   2.658  11.342
 7145SOL    HW123274   7.390   2.609  11.412
 7145SOL    HW223275   7.288   2.718  11.388
 7146SOL     OW23276  10.939   2.542   8.858
 7146SOL    HW123277  10.914   2.569   8.946
 7146SOL    HW223278  11.012   2.482   8.870
 7147SOL     OW23279  12.437   5.188  10.265
 7147SOL    HW123280  12.405   5.190  10.355
 7147SOL    HW223281  12.478   5.274  10.253
 7148SOL     OW23282   8.097   7.456   4.657
 7148SOL    HW123283   8.123   7.529   4.712
 7148SOL    HW223284   8.015   7.425   4.696
 7149SOL     OW23285   5.771   3.099   6.561
 7149SOL    HW123286   5.752   3.110   6.467
 7149SOL    HW223287   5.866   3.094   6.566
 7150SOL     OW23288   5.446   8.752  13.868
 7150SOL    HW123289   5.468   8.806  13.943
 7150SOL    HW223290   5.530   8.721  13.834
 7151SOL     OW23291   0.349   9.282   9.101
 7151SOL    HW123292   0.361   9.376   9.083
 7151SOL    HW223293   0.306   9.280   9.187
 7152SOL     OW23294  12.281  10.748   9.207
 7152SOL    HW123295  12.240  10.810   9.147
 7152SOL    HW223296  12.374  10.753   9.187
 7153SOL     OW23297   4.730   1.156  14.230
 7153SOL    HW123298   4.793   1.220  14.195
 7153SOL    HW223299   4.774   1.071  14.221
 7154SOL     OW23300   3.775   1.588   8.531
 7154SOL    HW123301   3.813   1.510   8.490
 7154SOL    HW223302   3.826   1.600   8.611
 7155SOL     OW23303  13.266   0.963  12.605
 7155SOL    HW123304  13.230   0.878  12.627
 7155SOL    HW223305  13.315   0.991  12.683
 7156SOL     OW23306   6.248   3.016  13.098
 7156SOL    HW123307   6.308   3.086  13.075
 7156SOL    HW223308   6.246   2.959  13.021
 7157SOL     OW23309  10.403   1.185   2.868
 7157SOL    HW123310  10.487   1.174   2.823
 7157SOL    HW223311  10.411   1.130   2.946
 7158SOL     OW23312  11.963   3.826   1.320
 7158SOL    HW123313  11.947   3.864   1.407
 7158SOL    HW223314  12.006   3.897   1.271
 7159SOL     OW23315   4.786   0.402   0.205
 7159SOL    HW123316   4.873   0.422   0.169
 7159SOL    HW223317   4.772   0.470   0.270
 7160SOL     OW23318  13.882   2.265   1.555
 7160SOL    HW123319  13.788   2.285   1.559
 7160SOL    HW223320  13.909   2.262   1.646
 7161SOL     OW23321   1.175   9.954   1.066
 7161SOL    HW123322   1.244   9.991   1.120
 7161SOL    HW223323   1.094   9.970   1.115
 7162SOL     OW23324   9.850   2.685   4.942
 7162SOL    HW123325   9.784   2.615   4.939
 7162SOL    HW223326   9.832   2.730   5.024
 7163SOL     OW23327  10.518   4.500   3.088
 7163SOL    HW123328  10.430   4.480   3.056
 7163SOL    HW223329  10.510   4.498   3.183
 7164SOL     OW23330   6.233  13.714   8.849
 7164SOL    HW123331   6.295  13.736   8.779
 7164SOL    HW223332   6.149  13.702   8.804
 7165SOL     OW23333   6.005   9.773  11.452
 7165SOL    HW123334   5.944   9.805  11.386
 7165SOL    HW223335   5.952   9.719  11.510
 7166SOL     OW23336   7.627   4.221  13.783
 7166SOL    HW123337   7.612   4.288  13.716
 7166SOL    HW223338   7.556   4.235  13.846
 7167SOL     OW23339  10.466  11.798   2.174
 7167SOL    HW123340  10.482  11.840   2.259
 7167SOL    HW223341  10.552  11.762   2.149
 7168SOL     OW23342  11.513  14.827   4.025
 7168SOL    HW123343  11.593  14.819   3.972
 7168SOL    HW223344  11.532  14.776   4.104
 7169SOL     OW23345   5.299  12.101  12.893
 7169SOL    HW123346   5.223  12.049  12.919
 7169SOL    HW223347   5.264  12.188  12.877
 7170SOL     OW23348   3.386   9.817   3.969
 7170SOL    HW123349   3.296   9.786   3.957
 7170SOL    HW223350   3.390   9.897   3.917
 7171SOL     OW23351   6.146  11.746  11.672
 7171SOL    HW123352   6.054  11.740  11.698
 7171SOL    HW223353   6.171  11.835  11.695
 7172SOL     OW23354   5.792  11.275   5.812
 7172SOL    HW123355   5.880  11.298   5.780
 7172SOL    HW223356   5.734  11.300   5.740
 7173SOL     OW23357   0.500   4.889  14.617
 7173SOL    HW123358   0.521   4.798  14.597
 7173SOL    HW223359   0.454   4.920  14.538
 7174SOL     OW23360   7.937  13.943   9.436
 7174SOL    HW123361   8.011  13.905   9.482
 7174SOL    HW223362   7.867  13.947   9.502
 7175SOL     OW23363   8.832   7.859   4.923
 7175SOL    HW123364   8.864   7.777   4.962
 7175SOL    HW223365   8.904   7.921   4.935
 7176SOL     OW23366   9.832   1.098  11.481
 7176SOL    HW123367   9.891   1.023  11.488
 7176SOL    HW223368   9.750   1.068  11.521
 7177SOL     OW23369  12.247   6.302   3.080
 7177SOL    HW123370  12.189   6.233   3.045
 7177SOL    HW223371  12.273   6.353   3.003
 7178SOL     OW23372   9.892  13.461   0.457
 7178SOL    HW123373   9.958  13.482   0.392
 7178SOL    HW223374   9.887  13.365   0.456
 7179SOL     OW23375   6.821   9.692  13.812
 7179SOL    HW123376   6.835   9.597  13.817
 7179SOL    HW223377   6.761   9.704  13.738
 7180SOL     OW23378   3.637   5.770   4.424
 7180SOL    HW123379   3.703   5.803   4.486
 7180SOL    HW223380   3.684   5.705   4.372
 7181SOL     OW23381   7.405   5.078  13.897
 7181SOL    HW123382   7.476   5.015  13.884
 7181SOL    HW223383   7.450   5.160  13.920
 7182SOL     OW23384   4.885   6.861   0.543
 7182SOL    HW123385   4.909   6.815   0.462
 7182SOL    HW223386   4.853   6.791   0.601
 7183SOL     OW23387   3.999   8.673  10.616
 7183SOL    HW123388   3.998   8.767  10.634
 7183SOL    HW223389   3.994   8.632  10.702
 7184SOL     OW23390  14.185  10.188  13.996
 7184SOL    HW123391  14.192  10.105  13.948
 7184SOL    HW223392  14.204  10.255  13.930
 7185SOL     OW23393   4.179   0.101   1.393
 7185SOL    HW123394   4.093   0.131   1.365
 7185SOL    HW223395   4.178   0.006   1.377
 7186SOL     OW23396   3.948   8.107   3.132
 7186SOL    HW123397   3.962   8.169   3.204
 7186SOL    HW223398   3.873   8.142   3.084
 7187SOL     OW23399   6.187   2.970  11.935
 7187SOL    HW123400   6.093   2.972  11.918
 7187SOL    HW223401   6.193   2.974  12.030
 7188SOL     OW23402   0.486   2.613  13.500
 7188SOL    HW123403   0.512   2.681  13.562
 7188SOL    HW223404   0.394   2.631  13.481
 7189SOL     OW23405   6.959   9.110   5.447
 7189SOL    HW123406   7.010   9.051   5.502
 7189SOL    HW223407   6.930   9.179   5.506
 7190SOL     OW23408   0.591  11.566  10.119
 7190SOL    HW123409   0.542  11.488  10.090
 7190SOL    HW223410   0.612  11.548  10.211
 7191SOL     OW23411   9.088   1.348  12.409
 7191SOL    HW123412   9.061   1.278  12.350
 7191SOL    HW223413   9.140   1.407  12.354
 7192SOL     OW23414  12.739   7.468   9.589
 7192SOL    HW123415  12.743   7.514   9.672
 7192SOL    HW223416  12.702   7.532   9.528
 7193SOL     OW23417   5.223  10.279  11.102
 7193SOL    HW123418   5.257  10.198  11.065
 7193SOL    HW223419   5.280  10.297  11.177
 7194SOL     OW23420  10.109  13.636   0.494
 7194SOL    HW123421  10.035  13.680   0.537
 7194SOL    HW223422  10.094  13.651   0.400
 7195SOL     OW23423  11.810   7.298  11.558
 7195SOL    HW123424  11.773   7.355  11.626
 7195SOL    HW223425  11.820   7.356  11.482
 7196SOL     OW23426  12.927  10.415  12.559
 7196SOL    HW123427  12.851  10.448  12.606
 7196SOL    HW223428  12.907  10.431  12.467
 7197SOL     OW23429   8.290  12.148  12.711
 7197SOL    HW123430   8.290  12.240  12.687
 7197SOL    HW223431   8.318  12.146  12.802
 7198SOL     OW23432  14.344   2.147   0.321
 7198SOL    HW123433  14.359   2.053   0.332
 7198SOL    HW223434  14.424   2.189   0.353
 7199SOL     OW23435  12.394   4.040   2.730
 7199SOL    HW123436  12.366   4.082   2.649
 7199SOL    HW223437  12.332   4.071   2.796
 7200SOL     OW23438   0.395   7.567  13.257
 7200SOL    HW123439   0.390   7.593  13.349
 7200SOL    HW223440   0.311   7.523  13.240
 7201SOL     OW23441   6.125  12.153  10.359
 7201SOL    HW123442   6.165  12.237  10.335
 7201SOL    HW223443   6.198  12.100  10.389
 7202SOL     OW23444   5.293   0.663   0.357
 7202SOL    HW123445   5.230   0.683   0.288
 7202SOL    HW223446   5.299   0.744   0.408
 7203SOL     OW23447  13.046   0.680   2.142
 7203SOL    HW123448  13.011   0.614   2.083
 7203SOL    HW223449  12.991   0.757   2.128
 7204SOL     OW23450   5.512  10.484   9.884
 7204SOL    HW123451   5.522  10.473   9.790
 7204SOL    HW223452   5.419  10.465   9.900
 7205SOL     OW23453   3.115   3.262   7.223
 7205SOL    HW123454   3.092   3.282   7.132
 7205SOL    HW223455   3.031   3.242   7.265
 7206SOL     OW23456  14.862  12.176  14.822
 7206SOL    HW123457   0.034  12.096  14.797
 7206SOL    HW223458  14.830  12.158   0.036
 7207SOL     OW23459   5.544   8.530  11.629
 7207SOL    HW123460   5.598   8.454  11.649
 7207SOL    HW223461   5.501   8.551  11.712
 7208SOL     OW23462   7.750   3.441   3.457
 7208SOL    HW123463   7.733   3.397   3.540
 7208SOL    HW223464   7.714   3.382   3.391
 7209SOL     OW23465   0.402  14.741   3.890
 7209SOL    HW123466   0.312  14.731   3.859
 7209SOL    HW223467   0.447  14.662   3.861
 7210SOL     OW23468   5.125  11.490  13.278
 7210SOL    HW123469   5.130  11.567  13.222
 7210SOL    HW223470   5.194  11.503  13.343
 7211SOL     OW23471   5.968   7.060   3.450
 7211SOL    HW123472   5.945   7.006   3.374
 7211SOL    HW223473   5.904   7.131   3.450
 7212SOL     OW23474   2.848  14.636  11.035
 7212SOL    HW123475   2.887  14.700  10.975
 7212SOL    HW223476   2.830  14.686  11.115
 7213SOL     OW23477  12.988   2.003   8.752
 7213SOL    HW123478  12.957   1.913   8.737
 7213SOL    HW223479  13.075   2.005   8.712
 7214SOL     OW23480  13.070   9.299   6.189
 7214SOL    HW123481  13.165   9.295   6.193
 7214SOL    HW223482  13.040   9.209   6.202
 7215SOL     OW23483   2.553   0.643   1.462
 7215SOL    HW123484   2.610   0.704   1.415
 7215SOL    HW223485   2.494   0.609   1.395
 7216SOL     OW23486  14.809   7.983   7.550
 7216SOL    HW123487  14.859   7.954   7.626
 7216SOL    HW223488  14.722   7.946   7.562
 7217SOL     OW23489   3.048  12.381  12.406
 7217SOL    HW123490   3.016  12.329  12.332
 7217SOL    HW223491   3.121  12.332  12.441
 7218SOL     OW23492  10.603  14.039  11.402
 7218SOL    HW123493  10.527  14.000  11.447
 7218SOL    HW223494  10.664  13.966  11.393
 7219SOL     OW23495  11.594   2.438   2.981
 7219SOL    HW123496  11.631   2.515   2.938
 7219SOL    HW223497  11.596   2.370   2.913
 7220SOL     OW23498   8.082  11.009  10.630
 7220SOL    HW123499   8.000  10.993  10.584
 7220SOL    HW223500   8.125  10.923  10.634
 7221SOL     OW23501   1.042  12.789   5.569
 7221SOL    HW123502   1.067  12.881   5.560
 7221SOL    HW223503   1.115  12.741   5.529
 7222SOL     OW23504   4.597   5.786   6.755
 7222SOL    HW123505   4.687   5.806   6.730
 7222SOL    HW223506   4.587   5.824   6.842
 7223SOL     OW23507   8.948  13.537   1.236
 7223SOL    HW123508   8.909  13.476   1.299
 7223SOL    HW223509   8.881  13.605   1.226
 7224SOL     OW23510   7.209   1.599  12.074
 7224SOL    HW123511   7.232   1.596  12.167
 7224SOL    HW223512   7.138   1.664  12.069
 7225SOL     OW23513   4.230   2.773  10.186
 7225SOL    HW123514   4.284   2.785  10.108
 7225SOL    HW223515   4.159   2.716  10.157
 7226SOL     OW23516  14.628   0.758   8.879
 7226SOL    HW123517  14.668   0.818   8.943
 7226SOL    HW223518  14.702   0.723   8.830
 7227SOL     OW23519   9.248   7.465   9.879
 7227SOL    HW123520   9.325   7.506   9.921
 7227SOL    HW223521   9.180   7.468   9.947
 7228SOL     OW23522   1.378  12.837   4.308
 7228SOL    HW123523   1.347  12.797   4.389
 7228SOL    HW223524   1.473  12.833   4.314
 7229SOL     OW23525   7.971   1.723   4.085
 7229SOL    HW123526   7.958   1.700   4.176
 7229SOL    HW223527   8.014   1.808   4.087
 7230SOL     OW23528   2.935  10.476  10.336
 7230SOL    HW123529   2.920  10.390  10.376
 7230SOL    HW223530   2.865  10.531  10.371
 7231SOL     OW23531  12.614   4.143   3.474
 7231SOL    HW123532  12.696   4.106   3.507
 7231SOL    HW223533  12.554   4.136   3.548
 7232SOL     OW23534   6.520   7.126  11.805
 7232SOL    HW123535   6.611   7.142  11.830
 7232SOL    HW223536   6.511   7.168  11.719
 7233SOL     OW23537   0.575   0.852   5.589
 7233SOL    HW123538   0.620   0.772   5.561
 7233SOL    HW223539   0.615   0.874   5.673
 7234SOL     OW23540   0.504   9.311   2.694
 7234SOL    HW123541   0.486   9.394   2.649
 7234SOL    HW223542   0.556   9.337   2.771
 7235SOL     OW23543   6.637   6.864   6.307
 7235SOL    HW123544   6.556   6.833   6.267
 7235SOL    HW223545   6.660   6.942   6.258
 7236SOL     OW23546   5.021  14.759  11.229
 7236SOL    HW123547   5.064  14.707  11.297
 7236SOL    HW223548   5.067  14.844  11.231
 7237SOL     OW23549   5.423   9.150   3.777
 7237SOL    HW123550   5.390   9.202   3.704
 7237SOL    HW223551   5.430   9.212   3.850
 7238SOL     OW23552   1.856  13.795  12.736
 7238SOL    HW123553   1.782  13.847  12.767
 7238SOL    HW223554   1.904  13.854  12.678
 7239SOL     OW23555   8.452   0.883  11.969
 7239SOL    HW123556   8.463   0.845  11.882
 7239SOL    HW223557   8.429   0.809  12.025
 7240SOL     OW23558   4.559   9.484   8.189
 7240SOL    HW123559   4.619   9.411   8.177
 7240SOL    HW223560   4.604   9.559   8.149
 7241SOL     OW23561   7.522  14.475  14.218
 7241SOL    HW123562   7.546  14.452  14.128
 7241SOL    HW223563   7.524  14.392  14.265
 7242SOL     OW23564   1.713   2.143  10.134
 7242SOL    HW123565   1.767   2.203  10.082
 7242SOL    HW223566   1.624   2.155  10.100
 7243SOL     OW23567   6.501   0.316  13.762
 7243SOL    HW123568   6.471   0.249  13.701
 7243SOL    HW223569   6.449   0.302  13.841
 7244SOL     OW23570  10.071  11.939   7.402
 7244SOL    HW123571   9.978  11.927   7.420
 7244SOL    HW223572  10.079  12.031   7.378
 7245SOL     OW23573   4.952  13.221   4.453
 7245SOL    HW123574   5.035  13.177   4.433
 7245SOL    HW223575   4.890  13.149   4.467
 7246SOL     OW23576   9.244   4.630   0.098
 7246SOL    HW123577   9.167   4.686   0.090
 7246SOL    HW223578   9.237   4.594   0.187
 7247SOL     OW23579   9.019   8.042  10.582
 7247SOL    HW123580   9.076   8.106  10.625
 7247SOL    HW223581   9.074   7.999  10.518
 7248SOL     OW23582  14.081   0.546   7.102
 7248SOL    HW123583  14.099   0.456   7.127
 7248SOL    HW223584  14.075   0.594   7.185
 7249SOL     OW23585  14.837   9.623   9.450
 7249SOL    HW123586  14.848   9.537   9.489
 7249SOL    HW223587  14.869   9.684   9.516
 7250SOL     OW23588   4.501  12.246   1.091
 7250SOL    HW123589   4.569  12.266   1.155
 7250SOL    HW223590   4.518  12.307   1.019
 7251SOL     OW23591  11.821   0.943  12.156
 7251SOL    HW123592  11.838   0.983  12.241
 7251SOL    HW223593  11.762   1.004  12.112
 7252SOL     OW23594   4.515   8.480   7.464
 7252SOL    HW123595   4.563   8.460   7.384
 7252SOL    HW223596   4.497   8.395   7.503
 7253SOL     OW23597   1.503   2.685  13.124
 7253SOL    HW123598   1.449   2.758  13.152
 7253SOL    HW223599   1.449   2.608  13.139
 7254SOL     OW23600  14.827   9.107   1.589
 7254SOL    HW123601   0.018   9.174   1.611
 7254SOL    HW223602   0.004   9.027   1.578
 7255SOL     OW23603  10.935   6.515   9.996
 7255SOL    HW123604  10.936   6.484   9.906
 7255SOL    HW223605  10.861   6.576  10.000
 7256SOL     OW23606  11.336  10.299   9.695
 7256SOL    HW123607  11.334  10.312   9.600
 7256SOL    HW223608  11.254  10.253   9.714
 7257SOL     OW23609   9.121   5.457   7.272
 7257SOL    HW123610   9.055   5.526   7.275
 7257SOL    HW223611   9.161   5.458   7.359
 7258SOL     OW23612  10.679  12.886   6.564
 7258SOL    HW123613  10.709  12.960   6.617
 7258SOL    HW223614  10.732  12.812   6.594
 7259SOL     OW23615   8.280  11.863  10.172
 7259SOL    HW123616   8.288  11.918  10.094
 7259SOL    HW223617   8.351  11.800  10.165
 7260SOL     OW23618   9.014  11.895   7.371
 7260SOL    HW123619   8.936  11.944   7.398
 7260SOL    HW223620   9.018  11.822   7.434
 7261SOL     OW23621   5.124   7.521  13.668
 7261SOL    HW123622   5.101   7.611  13.649
 7261SOL    HW223623   5.086   7.504  13.755
 7262SOL     OW23624   2.598  10.613   3.069
 7262SOL    HW123625   2.687  10.606   3.036
 7262SOL    HW223626   2.561  10.525   3.057
 7263SOL     OW23627   0.354   5.344   0.957
 7263SOL    HW123628   0.281   5.296   0.919
 7263SOL    HW223629   0.316   5.390   1.032
 7264SOL     OW23630   1.897   8.064  12.302
 7264SOL    HW123631   1.929   8.153  12.319
 7264SOL    HW223632   1.878   8.063  12.208
 7265SOL     OW23633   5.975  12.439  10.286
 7265SOL    HW123634   5.894  12.488  10.275
 7265SOL    HW223635   6.038  12.484  10.230
 7266SOL     OW23636   4.477  14.196   3.723
 7266SOL    HW123637   4.531  14.136   3.774
 7266SOL    HW223638   4.424  14.241   3.788
 7267SOL     OW23639   6.223   9.432   1.886
 7267SOL    HW123640   6.195   9.429   1.977
 7267SOL    HW223641   6.168   9.500   1.847
 7268SOL     OW23642   2.387   6.945   1.931
 7268SOL    HW123643   2.426   6.928   1.845
 7268SOL    HW223644   2.457   6.926   1.993
 7269SOL     OW23645   8.214   2.788  13.293
 7269SOL    HW123646   8.127   2.820  13.271
 7269SOL    HW223647   8.265   2.798  13.212
 7270SOL     OW23648   3.717   4.561  13.037
 7270SOL    HW123649   3.752   4.648  13.019
 7270SOL    HW223650   3.791   4.501  13.023
 7271SOL     OW23651   2.118   1.548   6.033
 7271SOL    HW123652   2.025   1.569   6.032
 7271SOL    HW223653   2.147   1.563   5.943
 7272SOL     OW23654   5.221   1.053  12.800
 7272SOL    HW123655   5.265   1.028  12.881
 7272SOL    HW223656   5.145   0.996  12.795
 7273SOL     OW23657  12.865  14.246   3.878
 7273SOL    HW123658  12.879  14.231   3.784
 7273SOL    HW223659  12.787  14.194   3.898
 7274SOL     OW23660   9.395   4.733  11.055
 7274SOL    HW123661   9.433   4.653  11.017
 7274SOL    HW223662   9.386   4.793  10.982
 7275SOL     OW23663   8.735  14.471   7.885
 7275SOL    HW123664   8.777  14.386   7.900
 7275SOL    HW223665   8.691  14.460   7.801
 7276SOL     OW23666  13.821  11.244   7.648
 7276SOL    HW123667  13.778  11.328   7.659
 7276SOL    HW223668  13.750  11.180   7.649
 7277SOL     OW23669   1.845   4.969   5.321
 7277SOL    HW123670   1.838   5.061   5.344
 7277SOL    HW223671   1.890   4.929   5.396
 7278SOL     OW23672   8.150   4.270   0.891
 7278SOL    HW123673   8.205   4.223   0.827
 7278SOL    HW223674   8.130   4.205   0.958
 7279SOL     OW23675   0.783  12.253  14.244
 7279SOL    HW123676   0.716  12.189  14.221
 7279SOL    HW223677   0.805  12.234  14.335
 7280SOL     OW23678  13.003   5.309  10.834
 7280SOL    HW123679  12.918   5.277  10.807
 7280SOL    HW223680  13.066   5.252  10.789
 7281SOL     OW23681  11.222   5.412   3.486
 7281SOL    HW123682  11.221   5.505   3.464
 7281SOL    HW223683  11.134   5.394   3.519
 7282SOL     OW23684   7.733   4.454  14.089
 7282SOL    HW123685   7.797   4.404  14.038
 7282SOL    HW223686   7.785   4.506  14.149
 7283SOL     OW23687   3.548   5.553   3.046
 7283SOL    HW123688   3.494   5.577   2.970
 7283SOL    HW223689   3.538   5.628   3.105
 7284SOL     OW23690  13.881  10.985  11.651
 7284SOL    HW123691  13.859  10.933  11.729
 7284SOL    HW223692  13.815  10.961  11.587
 7285SOL     OW23693   8.092   2.665  10.348
 7285SOL    HW123694   8.024   2.622  10.297
 7285SOL    HW223695   8.104   2.750  10.305
 7286SOL     OW23696   0.735   7.870   8.211
 7286SOL    HW123697   0.709   7.867   8.119
 7286SOL    HW223698   0.812   7.814   8.216
 7287SOL     OW23699   5.584   9.227   6.760
 7287SOL    HW123700   5.507   9.275   6.729
 7287SOL    HW223701   5.583   9.240   6.855
 7288SOL     OW23702   2.704  13.243   7.457
 7288SOL    HW123703   2.752  13.309   7.406
 7288SOL    HW223704   2.683  13.286   7.540
 7289SOL     OW23705  14.830   3.380  13.298
 7289SOL    HW123706  14.801   3.304  13.349
 7289SOL    HW223707  14.840   3.450  13.363
 7290SOL     OW23708   0.907  13.442  12.943
 7290SOL    HW123709   0.947  13.475  13.024
 7290SOL    HW223710   0.939  13.501  12.875
 7291SOL     OW23711   1.113   6.883   2.312
 7291SOL    HW123712   1.134   6.951   2.376
 7291SOL    HW223713   1.193   6.832   2.304
 7292SOL     OW23714  11.576   0.829   1.620
 7292SOL    HW123715  11.547   0.912   1.657
 7292SOL    HW223716  11.569   0.767   1.694
 7293SOL     OW23717  14.215   8.309   4.876
 7293SOL    HW123718  14.292   8.328   4.930
 7293SOL    HW223719  14.247   8.246   4.811
 7294SOL     OW23720   2.577   9.114   7.413
 7294SOL    HW123721   2.535   9.056   7.349
 7294SOL    HW223722   2.593   9.058   7.489
 7295SOL     OW23723   3.354   5.484   4.253
 7295SOL    HW123724   3.373   5.575   4.277
 7295SOL    HW223725   3.328   5.443   4.335
 7296SOL     OW23726   6.028  13.353   8.849
 7296SOL    HW123727   6.039  13.321   8.759
 7296SOL    HW223728   6.116  13.378   8.877
 7297SOL     OW23729   3.054   0.417   1.067
 7297SOL    HW123730   3.033   0.341   1.013
 7297SOL    HW223731   3.038   0.388   1.157
 7298SOL     OW23732   7.656   9.799   5.773
 7298SOL    HW123733   7.727   9.739   5.796
 7298SOL    HW223734   7.577   9.758   5.810
 7299SOL     OW23735   2.142  11.934   2.062
 7299SOL    HW123736   2.143  12.010   2.004
 7299SOL    HW223737   2.141  11.972   2.150
 7300SOL     OW23738  13.590   2.877   8.653
 7300SOL    HW123739  13.582   2.971   8.635
 7300SOL    HW223740  13.514   2.858   8.709
 7301SOL     OW23741  10.102   1.501  12.416
 7301SOL    HW123742  10.072   1.419  12.377
 7301SOL    HW223743  10.197   1.501  12.402
 7302SOL     OW23744   9.015   6.293   6.784
 7302SOL    HW123745   8.983   6.339   6.706
 7302SOL    HW223746   8.939   6.243   6.814
 7303SOL     OW23747  11.668   0.434   2.272
 7303SOL    HW123748  11.643   0.455   2.362
 7303SOL    HW223749  11.645   0.342   2.262
 7304SOL     OW23750   2.167   6.747   2.471
 7304SOL    HW123751   2.159   6.842   2.468
 7304SOL    HW223752   2.245   6.727   2.419
 7305SOL     OW23753   2.734   4.458   4.020
 7305SOL    HW123754   2.829   4.445   4.017
 7305SOL    HW223755   2.700   4.398   3.954
 7306SOL     OW23756   5.548   2.472  12.461
 7306SOL    HW123757   5.626   2.479  12.406
 7306SOL    HW223758   5.574   2.510  12.545
 7307SOL     OW23759   4.015  11.669  13.386
 7307SOL    HW123760   4.075  11.683  13.460
 7307SOL    HW223761   4.009  11.755  13.344
 7308SOL     OW23762   0.131   3.828   1.438
 7308SOL    HW123763   0.042   3.793   1.442
 7308SOL    HW223764   0.131   3.885   1.361
 7309SOL     OW23765   7.586  12.882   5.700
 7309SOL    HW123766   7.598  12.946   5.629
 7309SOL    HW223767   7.613  12.799   5.661
 7310SOL     OW23768  14.139   0.370  13.264
 7310SOL    HW123769  14.120   0.369  13.170
 7310SOL    HW223770  14.233   0.387  13.269
 7311SOL     OW23771   3.753   9.282   8.116
 7311SOL    HW123772   3.833   9.230   8.104
 7311SOL    HW223773   3.721   9.296   8.027
 7312SOL     OW23774   1.120   7.408   4.083
 7312SOL    HW123775   1.194   7.347   4.081
 7312SOL    HW223776   1.051   7.363   4.035
 7313SOL     OW23777  10.580  10.914   8.970
 7313SOL    HW123778  10.583  10.968   8.892
 7313SOL    HW223779  10.553  10.827   8.939
 7314SOL     OW23780   6.450  14.448   3.871
 7314SOL    HW123781   6.357  14.463   3.849
 7314SOL    HW223782   6.450  14.431   3.965
 7315SOL     OW23783  12.730   9.138   4.689
 7315SOL    HW123784  12.817   9.134   4.649
 7315SOL    HW223785  12.719   9.052   4.730
 7316SOL     OW23786   3.801   5.520   4.417
 7316SOL    HW123787   3.851   5.489   4.493
 7316SOL    HW223788   3.741   5.448   4.397
 7317SOL     OW23789   9.270   2.939   8.479
 7317SOL    HW123790   9.203   2.919   8.544
 7317SOL    HW223791   9.231   3.008   8.425
 7318SOL     OW23792   1.239   7.349  10.153
 7318SOL    HW123793   1.265   7.379  10.240
 7318SOL    HW223794   1.251   7.425  10.096
 7319SOL     OW23795   5.504   4.956   1.416
 7319SOL    HW123796   5.423   4.937   1.367
 7319SOL    HW223797   5.568   4.978   1.349
 7320SOL     OW23798   1.167   3.650   5.856
 7320SOL    HW123799   1.179   3.694   5.940
 7320SOL    HW223800   1.160   3.722   5.793
 7321SOL     OW23801   7.253   4.910   2.690
 7321SOL    HW123802   7.293   4.864   2.616
 7321SOL    HW223803   7.318   4.976   2.715
 7322SOL     OW23804  10.817   5.019   3.436
 7322SOL    HW123805  10.771   5.014   3.352
 7322SOL    HW223806  10.756   4.982   3.499
 7323SOL     OW23807  11.851   3.046   7.987
 7323SOL    HW123808  11.853   3.064   7.893
 7323SOL    HW223809  11.779   2.984   7.998
 7324SOL     OW23810   1.665   0.945   4.177
 7324SOL    HW123811   1.612   0.932   4.098
 7324SOL    HW223812   1.731   1.009   4.150
 7325SOL     OW23813   9.976  12.039   6.191
 7325SOL    HW123814   9.894  12.021   6.238
 7325SOL    HW223815   9.950  12.099   6.121
 7326SOL     OW23816   2.273  10.338   3.397
 7326SOL    HW123817   2.197  10.316   3.451
 7326SOL    HW223818   2.292  10.429   3.418
 7327SOL     OW23819  11.575   8.466   3.024
 7327SOL    HW123820  11.653   8.511   2.992
 7327SOL    HW223821  11.529   8.438   2.945
 7328SOL     OW23822   4.623   6.550   5.924
 7328SOL    HW123823   4.617   6.482   5.990
 7328SOL    HW223824   4.655   6.505   5.845
 7329SOL     OW23825  13.765   3.278   9.883
 7329SOL    HW123826  13.841   3.219   9.875
 7329SOL    HW223827  13.753   3.289   9.977
 7330SOL     OW23828   0.381   0.122   6.262
 7330SOL    HW123829   0.436   0.048   6.236
 7330SOL    HW223830   0.439   0.178   6.315
 7331SOL     OW23831  13.970  10.224   4.500
 7331SOL    HW123832  14.015  10.280   4.437
 7331SOL    HW223833  14.034  10.155   4.520
 7332SOL     OW23834   0.017  12.433   2.133
 7332SOL    HW123835   0.044  12.447   2.223
 7332SOL    HW223836  14.840  12.512   2.111
 7333SOL     OW23837   2.366   9.164  11.927
 7333SOL    HW123838   2.365   9.206  12.013
 7333SOL    HW223839   2.442   9.105  11.930
 7334SOL     OW23840  12.721  10.944   6.519
 7334SOL    HW123841  12.631  10.922   6.544
 7334SOL    HW223842  12.766  10.860   6.514
 7335SOL     OW23843   8.400   7.635   5.306
 7335SOL    HW123844   8.470   7.576   5.333
 7335SOL    HW223845   8.340   7.637   5.381
 7336SOL     OW23846   2.577   6.255  10.060
 7336SOL    HW123847   2.487   6.288  10.061
 7336SOL    HW223848   2.619   6.298  10.134
 7337SOL     OW23849  12.294  12.089   2.636
 7337SOL    HW123850  12.211  12.068   2.593
 7337SOL    HW223851  12.357  12.096   2.564
 7338SOL     OW23852  14.194   4.627   5.788
 7338SOL    HW123853  14.211   4.532   5.788
 7338SOL    HW223854  14.140   4.641   5.710
 7339SOL     OW23855   2.319   1.826  12.893
 7339SOL    HW123856   2.402   1.779  12.904
 7339SOL    HW223857   2.343   1.918  12.895
 7340SOL     OW23858   4.473   8.244   6.913
 7340SOL    HW123859   4.443   8.153   6.909
 7340SOL    HW223860   4.558   8.243   6.870
 7341SOL     OW23861  12.062   0.506   9.574
 7341SOL    HW123862  11.994   0.564   9.538
 7341SOL    HW223863  12.020   0.420   9.575
 7342SOL     OW23864   7.991  11.019  10.274
 7342SOL    HW123865   7.947  11.006  10.357
 7342SOL    HW223866   8.084  11.021  10.296
 7343SOL     OW23867  10.667   0.404  11.186
 7343SOL    HW123868  10.653   0.338  11.117
 7343SOL    HW223869  10.616   0.480  11.158
 7344SOL     OW23870   3.963  10.150   4.090
 7344SOL    HW123871   3.997  10.127   4.003
 7344SOL    HW223872   4.003  10.235   4.110
 7345SOL     OW23873   7.301   9.180  12.646
 7345SOL    HW123874   7.397   9.185  12.650
 7345SOL    HW223875   7.271   9.255  12.698
 7346SOL     OW23876   0.615  11.556   2.933
 7346SOL    HW123877   0.676  11.488   2.907
 7346SOL    HW223878   0.537  11.508   2.962
 7347SOL     OW23879  11.626   2.883   1.090
 7347SOL    HW123880  11.637   2.855   0.999
 7347SOL    HW223881  11.569   2.960   1.084
 7348SOL     OW23882  10.417   2.481   2.720
 7348SOL    HW123883  10.366   2.497   2.800
 7348SOL    HW223884  10.357   2.503   2.649
 7349SOL     OW23885  12.440   4.929   5.779
 7349SOL    HW123886  12.520   4.929   5.727
 7349SOL    HW223887  12.373   4.894   5.719
 7350SOL     OW23888  10.702   7.588   2.548
 7350SOL    HW123889  10.757   7.527   2.500
 7350SOL    HW223890  10.636   7.616   2.484
 7351SOL     OW23891   5.642  10.131  14.837
 7351SOL    HW123892   5.627  10.103   0.054
 7351SOL    HW223893   5.694  10.061  14.799
 7352SOL     OW23894   2.723   4.657  12.748
 7352SOL    HW123895   2.798   4.710  12.773
 7352SOL    HW223896   2.701   4.608  12.827
 7353SOL     OW23897  10.040   9.436  14.585
 7353SOL    HW123898   9.983   9.481  14.647
 7353SOL    HW223899  10.056   9.350  14.625
 7354SOL     OW23900  13.055   5.198   7.562
 7354SOL    HW123901  13.025   5.283   7.530
 7354SOL    HW223902  13.023   5.136   7.497
 7355SOL     OW23903   5.758   5.336   7.002
 7355SOL    HW123904   5.698   5.299   7.067
 7355SOL    HW223905   5.703   5.350   6.924
 7356SOL     OW23906  11.021   3.515   7.094
 7356SOL    HW123907  10.967   3.594   7.088
 7356SOL    HW223908  10.986   3.457   7.026
 7357SOL     OW23909   0.335   9.451  14.099
 7357SOL    HW123910   0.340   9.385  14.030
 7357SOL    HW223911   0.262   9.507  14.072
 7358SOL     OW23912   2.493   7.016   3.425
 7358SOL    HW123913   2.481   7.009   3.520
 7358SOL    HW223914   2.421   6.966   3.388
 7359SOL     OW23915   8.746   7.828  12.368
 7359SOL    HW123916   8.754   7.891  12.439
 7359SOL    HW223917   8.667   7.855  12.321
 7360SOL     OW23918  12.853   4.352  11.209
 7360SOL    HW123919  12.842   4.446  11.228
 7360SOL    HW223920  12.940   4.331  11.241
 7361SOL     OW23921   7.028   5.957   7.274
 7361SOL    HW123922   7.057   5.975   7.185
 7361SOL    HW223923   7.051   6.036   7.323
 7362SOL     OW23924   7.997   9.740   3.601
 7362SOL    HW123925   8.045   9.658   3.611
 7362SOL    HW223926   8.065   9.805   3.583
 7363SOL     OW23927   3.086  13.562   6.976
 7363SOL    HW123928   2.995  13.559   6.946
 7363SOL    HW223929   3.088  13.506   7.053
 7364SOL     OW23930  14.870  11.297   3.132
 7364SOL    HW123931   0.007  11.392   3.131
 7364SOL    HW223932   0.083  11.262   3.151
 7365SOL     OW23933   8.667   4.712  13.484
 7365SOL    HW123934   8.605   4.651  13.523
 7365SOL    HW223935   8.736   4.722  13.550
 7366SOL     OW23936   6.102  11.812   2.846
 7366SOL    HW123937   6.113  11.717   2.845
 7366SOL    HW223938   6.021  11.826   2.895
 7367SOL     OW23939   9.342  11.409   0.004
 7367SOL    HW123940   9.365  11.417  14.785
 7367SOL    HW223941   9.420  11.439   0.050
 7368SOL     OW23942   8.718   9.318  13.826
 7368SOL    HW123943   8.735   9.319  13.921
 7368SOL    HW223944   8.727   9.409  13.799
 7369SOL     OW23945  11.363  12.260   9.084
 7369SOL    HW123946  11.438  12.319   9.085
 7369SOL    HW223947  11.400  12.173   9.097
 7370SOL     OW23948   7.520  11.653   1.536
 7370SOL    HW123949   7.517  11.678   1.444
 7370SOL    HW223950   7.586  11.584   1.540
 7371SOL     OW23951   2.887  12.703  12.408
 7371SOL    HW123952   2.826  12.776  12.399
 7371SOL    HW223953   2.876  12.652  12.328
 7372SOL     OW23954  14.185   4.119  10.576
 7372SOL    HW123955  14.162   4.133  10.484
 7372SOL    HW223956  14.132   4.183  10.624
 7373SOL     OW23957  12.965  13.215   6.499
 7373SOL    HW123958  12.955  13.127   6.535
 7373SOL    HW223959  12.949  13.274   6.573
 7374SOL     OW23960  13.586  10.282   9.008
 7374SOL    HW123961  13.506  10.229   9.011
 7374SOL    HW223962  13.559  10.369   9.036
 7375SOL     OW23963  14.344  14.145   8.846
 7375SOL    HW123964  14.263  14.112   8.885
 7375SOL    HW223965  14.316  14.216   8.788
 7376SOL     OW23966   4.724   1.209   1.136
 7376SOL    HW123967   4.720   1.297   1.173
 7376SOL    HW223968   4.818   1.188   1.135
 7377SOL     OW23969   2.582   0.021  10.673
 7377SOL    HW123970   2.615  14.809  10.698
 7377SOL    HW223971   2.659   0.078  10.677
 7378SOL     OW23972   5.410   2.135   8.630
 7378SOL    HW123973   5.317   2.112   8.631
 7378SOL    HW223974   5.417   2.210   8.689
 7379SOL     OW23975   4.684   5.038   2.936
 7379SOL    HW123976   4.648   4.977   2.872
 7379SOL    HW223977   4.738   4.983   2.993
 7380SOL     OW23978   3.920   5.433   4.643
 7380SOL    HW123979   3.996   5.491   4.652
 7380SOL    HW223980   3.861   5.458   4.713
 7381SOL     OW23981   6.806  11.399  11.302
 7381SOL    HW123982   6.897  11.418  11.322
 7381SOL    HW223983   6.770  11.362  11.383
 7382SOL     OW23984  10.621   0.420   7.545
 7382SOL    HW123985  10.710   0.427   7.580
 7382SOL    HW223986  10.564   0.442   7.620
 7383SOL     OW23987  11.330   4.901   8.859
 7383SOL    HW123988  11.312   4.807   8.861
 7383SOL    HW223989  11.384   4.916   8.937
 7384SOL     OW23990  11.797  10.742   4.595
 7384SOL    HW123991  11.785  10.659   4.642
 7384SOL    HW223992  11.709  10.773   4.577
 7385SOL     OW23993   6.747  14.104  11.121
 7385SOL    HW123994   6.797  14.175  11.081
 7385SOL    HW223995   6.669  14.147  11.156
 7386SOL     OW23996   9.483   7.547   8.955
 7386SOL    HW123997   9.567   7.524   8.916
 7386SOL    HW223998   9.423   7.479   8.925
 7387SOL     OW23999   9.660   3.120   9.777
 7387SOL    HW124000   9.582   3.077   9.742
 7387SOL    HW224001   9.629   3.205   9.808
 7388SOL     OW24002   2.365  11.389   9.447
 7388SOL    HW124003   2.420  11.428   9.516
 7388SOL    HW224004   2.300  11.456   9.428
 7389SOL     OW24005   1.296  13.774  13.222
 7389SOL    HW124006   1.324  13.858  13.185
 7389SOL    HW224007   1.311  13.784  13.316
 7390SOL     OW24008   6.850  11.440  14.522
 7390SOL    HW124009   6.925  11.382  14.535
 7390SOL    HW224010   6.889  11.521  14.488
 7391SOL     OW24011   3.417   0.892   0.529
 7391SOL    HW124012   3.349   0.873   0.594
 7391SOL    HW224013   3.424   0.811   0.478
 7392SOL     OW24014   8.151   2.959   6.474
 7392SOL    HW124015   8.069   2.935   6.431
 7392SOL    HW224016   8.185   2.876   6.508
 7393SOL     OW24017   5.600  13.320   3.906
 7393SOL    HW124018   5.641  13.383   3.847
 7393SOL    HW224019   5.517  13.298   3.864
 7394SOL     OW24020  12.390  14.746   4.408
 7394SOL    HW124021  12.457  14.738   4.340
 7394SOL    HW224022  12.411  14.675   4.470
 7395SOL     OW24023   6.032   8.187  10.609
 7395SOL    HW124024   5.963   8.253  10.611
 7395SOL    HW224025   6.023   8.140  10.692
 7396SOL     OW24026   9.353  10.454  14.564
 7396SOL    HW124027   9.424  10.479  14.505
 7396SOL    HW224028   9.276  10.498  14.528
 7397SOL     OW24029  11.864  10.665   6.192
 7397SOL    HW124030  11.900  10.751   6.214
 7397SOL    HW224031  11.809  10.681   6.115
 7398SOL     OW24032   9.673  10.965   9.911
 7398SOL    HW124033   9.756  11.002   9.880
 7398SOL    HW224034   9.607  11.026   9.877
 7399SOL     OW24035  14.263  12.042   7.530
 7399SOL    HW124036  14.219  11.965   7.566
 7399SOL    HW224037  14.228  12.115   7.581
 7400SOL     OW24038   5.076   8.493  14.682
 7400SOL    HW124039   5.025   8.422  14.644
 7400SOL    HW224040   5.138   8.449  14.740
 7401SOL     OW24041  14.114   1.858   9.833
 7401SOL    HW124042  14.124   1.763   9.822
 7401SOL    HW224043  14.101   1.891   9.744
 7402SOL     OW24044   2.716  13.367   9.313
 7402SOL    HW124045   2.644  13.305   9.330
 7402SOL    HW224046   2.703  13.394   9.223
 7403SOL     OW24047  12.626  12.340  12.466
 7403SOL    HW124048  12.719  12.353  12.481
 7403SOL    HW224049  12.618  12.251  12.434
 7404SOL     OW24050  12.227   8.565   7.481
 7404SOL    HW124051  12.203   8.656   7.499
 7404SOL    HW224052  12.167   8.514   7.535
 7405SOL     OW24053  10.988  14.734   3.304
 7405SOL    HW124054  10.910  14.760   3.352
 7405SOL    HW224055  11.004  14.643   3.331
 7406SOL     OW24056   9.283  10.497   4.174
 7406SOL    HW124057   9.373  10.479   4.147
 7406SOL    HW224058   9.241  10.411   4.176
 7407SOL     OW24059   6.491  12.711   9.451
 7407SOL    HW124060   6.456  12.683   9.536
 7407SOL    HW224061   6.414  12.742   9.403
 7408SOL     OW24062  11.582   3.917  14.190
 7408SOL    HW124063  11.504   3.876  14.152
 7408SOL    HW224064  11.549   3.987  14.246
 7409SOL     OW24065   1.565  13.624   4.763
 7409SOL    HW124066   1.519  13.545   4.736
 7409SOL    HW224067   1.505  13.669   4.821
 7410SOL     OW24068   1.780   0.903  11.240
 7410SOL    HW124069   1.859   0.899  11.294
 7410SOL    HW224070   1.725   0.969  11.282
 7411SOL     OW24071   3.969   1.614   2.290
 7411SOL    HW124072   3.995   1.703   2.265
 7411SOL    HW224073   3.879   1.606   2.261
 7412SOL     OW24074  13.328   1.030   5.112
 7412SOL    HW124075  13.248   1.071   5.079
 7412SOL    HW224076  13.399   1.079   5.071
 7413SOL     OW24077   4.120   3.541  12.209
 7413SOL    HW124078   4.071   3.461  12.188
 7413SOL    HW224079   4.086   3.607  12.149
 7414SOL     OW24080   6.064  13.095   1.371
 7414SOL    HW124081   6.151  13.084   1.410
 7414SOL    HW224082   6.007  13.039   1.423
 7415SOL     OW24083   8.068  13.947  11.455
 7415SOL    HW124084   8.107  14.033  11.471
 7415SOL    HW224085   7.974  13.962  11.465
 7416SOL     OW24086   2.996   6.330   5.129
 7416SOL    HW124087   2.990   6.256   5.069
 7416SOL    HW224088   3.043   6.397   5.079
 7417SOL     OW24089   1.164   6.519   0.736
 7417SOL    HW124090   1.119   6.464   0.800
 7417SOL    HW224091   1.157   6.608   0.773
 7418SOL     OW24092   7.050  13.328  12.309
 7418SOL    HW124093   6.994  13.260  12.347
 7418SOL    HW224094   7.035  13.322  12.215
 7419SOL     OW24095   2.895   4.570   5.900
 7419SOL    HW124096   2.884   4.489   5.951
 7419SOL    HW224097   2.987   4.593   5.912
 7420SOL     OW24098   2.993   4.386   4.013
 7420SOL    HW124099   3.082   4.406   3.982
 7420SOL    HW224100   3.006   4.342   4.097
 7421SOL     OW24101  10.317   0.023   4.996
 7421SOL    HW124102  10.317   0.089   4.927
 7421SOL    HW224103  10.261   0.059   5.064
 7422SOL     OW24104  11.452  13.543  11.409
 7422SOL    HW124105  11.485  13.600  11.478
 7422SOL    HW224106  11.484  13.456  11.431
 7423SOL     OW24107   2.921  11.146  14.387
 7423SOL    HW124108   2.902  11.055  14.413
 7423SOL    HW224109   3.002  11.140  14.336
 7424SOL     OW24110   1.925   2.155  10.530
 7424SOL    HW124111   1.915   2.222  10.463
 7424SOL    HW224112   1.879   2.078  10.496
 7425SOL     OW24113   9.342   3.758  12.384
 7425SOL    HW124114   9.301   3.712  12.311
 7425SOL    HW224115   9.415   3.805  12.343
 7426SOL     OW24116   8.919   1.891   7.864
 7426SOL    HW124117   8.841   1.887   7.920
 7426SOL    HW224118   8.899   1.834   7.790
 7427SOL     OW24119   4.914  13.235   0.195
 7427SOL    HW124120   4.825  13.230   0.159
 7427SOL    HW224121   4.903  13.274   0.282
 7428SOL     OW24122  10.285   3.432   2.840
 7428SOL    HW124123  10.377   3.447   2.860
 7428SOL    HW224124  10.285   3.369   2.768
 7429SOL     OW24125   4.787   7.058   9.967
 7429SOL    HW124126   4.855   7.094  10.024
 7429SOL    HW224127   4.706   7.100   9.996
 7430SOL     OW24128  11.843  11.033   7.504
 7430SOL    HW124129  11.804  11.018   7.590
 7430SOL    HW224130  11.768  11.043   7.445
 7431SOL     OW24131  13.935   9.876   4.151
 7431SOL    HW124132  13.919   9.873   4.057
 7431SOL    HW224133  14.030   9.883   4.160
 7432SOL     OW24134   9.375  14.451   7.155
 7432SOL    HW124135   9.290  14.435   7.197
 7432SOL    HW224136   9.373  14.544   7.131
 7433SOL     OW24137   5.630  12.498   4.129
 7433SOL    HW124138   5.548  12.451   4.120
 7433SOL    HW224139   5.605  12.585   4.161
 7434SOL     OW24140   5.488  12.950   1.333
 7434SOL    HW124141   5.540  12.908   1.402
 7434SOL    HW224142   5.542  12.943   1.255
 7435SOL     OW24143  14.487   3.219  14.858
 7435SOL    HW124144  14.569   3.177  14.833
 7435SOL    HW224145  14.456   3.167   0.059
 7436SOL     OW24146   7.071   3.610   9.598
 7436SOL    HW124147   7.054   3.592   9.690
 7436SOL    HW224148   7.082   3.524   9.557
 7437SOL     OW24149  11.985  11.464  14.465
 7437SOL    HW124150  12.079  11.446  14.471
 7437SOL    HW224151  11.943  11.382  14.489
 7438SOL     OW24152   5.614   9.464   7.495
 7438SOL    HW124153   5.529   9.423   7.505
 7438SOL    HW224154   5.674   9.392   7.474
 7439SOL     OW24155  11.020  10.643  12.343
 7439SOL    HW124156  11.059  10.560  12.314
 7439SOL    HW224157  11.011  10.695  12.263
 7440SOL     OW24158   9.401   1.666  12.791
 7440SOL    HW124159   9.426   1.601  12.857
 7440SOL    HW224160   9.389   1.747  12.840
 7441SOL     OW24161  10.082  11.268   6.350
 7441SOL    HW124162  10.098  11.363   6.352
 7441SOL    HW224163  10.162  11.230   6.388
 7442SOL     OW24164   7.720  10.773   1.144
 7442SOL    HW124165   7.807  10.734   1.145
 7442SOL    HW224166   7.661  10.702   1.120
 7443SOL     OW24167   0.723   4.413  14.248
 7443SOL    HW124168   0.788   4.422  14.179
 7443SOL    HW224169   0.708   4.319  14.256
 7444SOL     OW24170  11.673   9.468   3.361
 7444SOL    HW124171  11.757   9.434   3.332
 7444SOL    HW224172  11.677   9.562   3.341
 7445SOL     OW24173  13.534   5.571   8.896
 7445SOL    HW124174  13.507   5.616   8.976
 7445SOL    HW224175  13.603   5.511   8.924
 7446SOL     OW24176   3.875  10.607   6.953
 7446SOL    HW124177   3.880  10.695   6.916
 7446SOL    HW224178   3.940  10.607   7.023
 7447SOL     OW24179   6.923   0.128   7.063
 7447SOL    HW124180   6.888   0.116   6.975
 7447SOL    HW224181   7.018   0.133   7.051
 7448SOL     OW24182  12.010  13.848  12.711
 7448SOL    HW124183  12.087  13.828  12.657
 7448SOL    HW224184  12.029  13.934  12.748
 7449SOL     OW24185   0.339   5.925   0.720
 7449SOL    HW124186   0.285   5.993   0.760
 7449SOL    HW224187   0.276   5.859   0.690
 7450SOL     OW24188  12.819  12.619   2.639
 7450SOL    HW124189  12.773  12.623   2.723
 7450SOL    HW224190  12.791  12.698   2.593
 7451SOL     OW24191   1.097   1.089   1.709
 7451SOL    HW124192   1.183   1.049   1.702
 7451SOL    HW224193   1.038   1.016   1.728
 7452SOL     OW24194   8.215   0.464  13.533
 7452SOL    HW124195   8.124   0.457  13.561
 7452SOL    HW224196   8.223   0.399  13.463
 7453SOL     OW24197   0.368   9.799   8.946
 7453SOL    HW124198   0.455   9.799   8.907
 7453SOL    HW224199   0.323   9.725   8.905
 7454SOL     OW24200   5.682  14.200  12.620
 7454SOL    HW124201   5.626  14.135  12.662
 7454SOL    HW224202   5.734  14.237  12.691
 7455SOL     OW24203   7.487   9.707   3.994
 7455SOL    HW124204   7.436   9.773   3.947
 7455SOL    HW224205   7.485   9.736   4.085
 7456SOL     OW24206   8.709   0.416   4.564
 7456SOL    HW124207   8.783   0.456   4.520
 7456SOL    HW224208   8.738   0.404   4.655
 7457SOL     OW24209   5.902   9.703   9.884
 7457SOL    HW124210   5.809   9.723   9.896
 7457SOL    HW224211   5.935   9.685   9.972
 7458SOL     OW24212   1.870   8.704  14.624
 7458SOL    HW124213   1.810   8.737  14.558
 7458SOL    HW224214   1.826   8.722  14.707
 7459SOL     OW24215   0.026   7.516  11.464
 7459SOL    HW124216  14.848   7.444  11.429
 7459SOL    HW224217   0.048   7.489  11.553
 7460SOL     OW24218  13.541   7.008   0.355
 7460SOL    HW124219  13.575   7.060   0.283
 7460SOL    HW224220  13.493   7.070   0.409
 7461SOL     OW24221  13.597  13.101   9.455
 7461SOL    HW124222  13.613  13.034   9.520
 7461SOL    HW224223  13.633  13.066   9.373
 7462SOL     OW24224   6.770   5.925   7.367
 7462SOL    HW124225   6.855   5.925   7.324
 7462SOL    HW224226   6.784   5.969   7.451
 7463SOL     OW24227  10.128  12.463   9.547
 7463SOL    HW124228  10.112  12.403   9.474
 7463SOL    HW224229  10.094  12.417   9.624
 7464SOL     OW24230   9.902   3.352  14.840
 7464SOL    HW124231   9.970   3.323   0.026
 7464SOL    HW224232   9.820   3.335   0.012
 7465SOL     OW24233   9.502   3.834  12.018
 7465SOL    HW124234   9.514   3.900  12.086
 7465SOL    HW224235   9.419   3.857  11.976
 7466SOL     OW24236   1.991  12.515   5.821
 7466SOL    HW124237   1.952  12.578   5.881
 7466SOL    HW224238   1.928  12.443   5.818
 7467SOL     OW24239   5.017   4.358   3.193
 7467SOL    HW124240   4.961   4.327   3.122
 7467SOL    HW224241   5.002   4.295   3.264
 7468SOL     OW24242   9.573   7.283  12.950
 7468SOL    HW124243   9.574   7.282  12.854
 7468SOL    HW224244   9.606   7.370  12.973
 7469SOL     OW24245   5.481   8.524   0.516
 7469SOL    HW124246   5.466   8.616   0.537
 7469SOL    HW224247   5.571   8.521   0.485
 7470SOL     OW24248   4.242   0.150   5.796
 7470SOL    HW124249   4.311   0.190   5.743
 7470SOL    HW224250   4.161   0.168   5.749
 7471SOL     OW24251   8.437   5.848   0.111
 7471SOL    HW124252   8.473   5.914   0.171
 7471SOL    HW224253   8.370   5.895   0.061
 7472SOL     OW24254   0.189   7.071   4.987
 7472SOL    HW124255   0.176   6.995   5.044
 7472SOL    HW224256   0.103   7.084   4.946
 7473SOL     OW24257   1.713   3.687   2.890
 7473SOL    HW124258   1.734   3.740   2.967
 7473SOL    HW224259   1.798   3.655   2.860
 7474SOL     OW24260   4.554  11.368   2.216
 7474SOL    HW124261   4.640  11.385   2.255
 7474SOL    HW224262   4.518  11.295   2.265
 7475SOL     OW24263   0.276   7.427  10.128
 7475SOL    HW124264   0.269   7.441  10.033
 7475SOL    HW224265   0.266   7.514  10.166
 7476SOL     OW24266  11.040   6.439   1.330
 7476SOL    HW124267  10.966   6.483   1.371
 7476SOL    HW224268  11.052   6.485   1.247
 7477SOL     OW24269   1.296  13.790   3.645
 7477SOL    HW124270   1.361  13.803   3.715
 7477SOL    HW224271   1.280  13.696   3.645
 7478SOL     OW24272   3.029  10.540  12.422
 7478SOL    HW124273   3.026  10.625  12.378
 7478SOL    HW224274   2.958  10.543  12.485
 7479SOL     OW24275   5.653  13.164   5.804
 7479SOL    HW124276   5.567  13.150   5.765
 7479SOL    HW224277   5.713  13.114   5.749
 7480SOL     OW24278   8.022   6.677   7.097
 7480SOL    HW124279   8.095   6.737   7.116
 7480SOL    HW224280   7.956   6.732   7.055
 7481SOL     OW24281   4.861  14.530   4.142
 7481SOL    HW124282   4.843  14.464   4.209
 7481SOL    HW224283   4.902  14.602   4.190
 7482SOL     OW24284   7.266   1.732   0.844
 7482SOL    HW124285   7.172   1.729   0.830
 7482SOL    HW224286   7.287   1.826   0.845
 7483SOL     OW24287   4.389   1.496  10.823
 7483SOL    HW124288   4.340   1.429  10.776
 7483SOL    HW224289   4.412   1.561  10.756
 7484SOL     OW24290   1.135   0.050  11.428
 7484SOL    HW124291   1.202   0.050  11.360
 7484SOL    HW224292   1.169  14.864  11.494
 7485SOL     OW24293   0.316   2.285   3.097
 7485SOL    HW124294   0.316   2.380   3.114
 7485SOL    HW224295   0.255   2.250   3.162
 7486SOL     OW24296  12.122   0.552   3.817
 7486SOL    HW124297  12.146   0.498   3.742
 7486SOL    HW224298  12.028   0.562   3.810
 7487SOL     OW24299  12.123   4.501   2.370
 7487SOL    HW124300  12.091   4.448   2.443
 7487SOL    HW224301  12.050   4.561   2.351
 7488SOL     OW24302   6.326  12.486   3.086
 7488SOL    HW124303   6.271  12.542   3.141
 7488SOL    HW224304   6.399  12.542   3.060
 7489SOL     OW24305   5.310   5.300  12.335
 7489SOL    HW124306   5.397   5.318  12.371
 7489SOL    HW224307   5.304   5.205  12.333
 7490SOL     OW24308   1.222  10.260  10.743
 7490SOL    HW124309   1.279  10.304  10.679
 7490SOL    HW224310   1.134  10.288  10.720
 7491SOL     OW24311  10.286  10.951   0.271
 7491SOL    HW124312  10.350  10.945   0.343
 7491SOL    HW224313  10.204  10.975   0.314
 7492SOL     OW24314  14.394  11.914   1.305
 7492SOL    HW124315  14.485  11.940   1.294
 7492SOL    HW224316  14.389  11.826   1.267
 7493SOL     OW24317   0.182   2.799   3.336
 7493SOL    HW124318   0.273   2.779   3.357
 7493SOL    HW224319   0.147   2.717   3.301
 7494SOL     OW24320  11.605  12.045   7.232
 7494SOL    HW124321  11.661  11.998   7.294
 7494SOL    HW224322  11.544  12.094   7.288
 7495SOL     OW24323   7.834  10.130   3.616
 7495SOL    HW124324   7.839  10.174   3.531
 7495SOL    HW224325   7.756  10.167   3.658
 7496SOL     OW24326   9.376  11.982   9.923
 7496SOL    HW124327   9.292  11.942   9.898
 7496SOL    HW224328   9.388  12.053   9.860
 7497SOL     OW24329   3.235  11.988   7.412
 7497SOL    HW124330   3.168  11.920   7.413
 7497SOL    HW224331   3.317  11.942   7.426
 7498SOL     OW24332  14.025   9.951   1.636
 7498SOL    HW124333  13.962   9.952   1.707
 7498SOL    HW224334  14.016   9.864   1.596
 7499SOL     OW24335   7.028   1.167   7.256
 7499SOL    HW124336   6.999   1.224   7.185
 7499SOL    HW224337   6.974   1.193   7.331
 7500SOL     OW24338   8.350   3.950   8.771
 7500SOL    HW124339   8.361   4.044   8.789
 7500SOL    HW224340   8.264   3.943   8.729
 7501SOL     OW24341   6.721   3.223   3.934
 7501SOL    HW124342   6.713   3.145   3.988
 7501SOL    HW224343   6.660   3.208   3.862
 7502SOL     OW24344   4.568   9.603   2.155
 7502SOL    HW124345   4.661   9.622   2.151
 7502SOL    HW224346   4.561   9.512   2.127
 7503SOL     OW24347   1.770   3.163   9.302
 7503SOL    HW124348   1.836   3.187   9.236
 7503SOL    HW224349   1.686   3.182   9.259
 7504SOL     OW24350   7.436  13.577  10.136
 7504SOL    HW124351   7.473  13.580  10.047
 7504SOL    HW224352   7.504  13.535  10.188
 7505SOL     OW24353  13.985   9.469   6.657
 7505SOL    HW124354  13.943   9.518   6.727
 7505SOL    HW224355  14.030   9.535   6.604
 7506SOL     OW24356   7.604   2.981   5.934
 7506SOL    HW124357   7.539   2.941   5.877
 7506SOL    HW224358   7.597   2.933   6.016
 7507SOL     OW24359   3.282   0.210   0.089
 7507SOL    HW124360   3.373   0.180   0.087
 7507SOL    HW224361   3.280   0.274   0.161
 7508SOL     OW24362  14.439  14.280   0.958
 7508SOL    HW124363  14.403  14.198   0.923
 7508SOL    HW224364  14.495  14.314   0.888
 7509SOL     OW24365   5.009   7.848  11.991
 7509SOL    HW124366   5.048   7.826  12.076
 7509SOL    HW224367   4.980   7.764  11.956
 7510SOL     OW24368  13.976  10.759  12.428
 7510SOL    HW124369  13.908  10.693  12.444
 7510SOL    HW224370  14.039  10.715  12.370
 7511SOL     OW24371  13.222   2.915  14.831
 7511SOL    HW124372  13.202   2.998  14.787
 7511SOL    HW224373  13.267   2.941   0.037
 7512SOL     OW24374   6.763  11.199   5.825
 7512SOL    HW124375   6.706  11.270   5.854
 7512SOL    HW224376   6.849  11.240   5.813
 7513SOL     OW24377   0.176   0.738   0.466
 7513SOL    HW124378   0.143   0.655   0.431
 7513SOL    HW224379   0.098   0.782   0.500
 7514SOL     OW24380   8.014  13.306   5.658
 7514SOL    HW124381   7.953  13.245   5.700
 7514SOL    HW224382   8.076  13.250   5.612
 7515SOL     OW24383  10.875   5.553  12.744
 7515SOL    HW124384  10.827   5.526  12.823
 7515SOL    HW224385  10.810   5.600  12.692
 7516SOL     OW24386   6.017  13.127  10.914
 7516SOL    HW124387   5.950  13.156  10.852
 7516SOL    HW224388   6.100  13.139  10.867
 7517SOL     OW24389   9.429   9.066  14.208
 7517SOL    HW124390   9.450   9.057  14.115
 7517SOL    HW224391   9.494   9.127  14.242
 7518SOL     OW24392   3.905   0.893  13.384
 7518SOL    HW124393   3.968   0.837  13.429
 7518SOL    HW224394   3.892   0.967  13.443
 7519SOL     OW24395   9.991   0.813  11.467
 7519SOL    HW124396  10.017   0.815  11.559
 7519SOL    HW224397  10.067   0.845  11.419
 7520SOL     OW24398  13.021   7.293  10.445
 7520SOL    HW124399  13.004   7.260  10.356
 7520SOL    HW224400  12.951   7.256  10.498
 7521SOL     OW24401   1.829  13.307   7.436
 7521SOL    HW124402   1.755  13.266   7.392
 7521SOL    HW224403   1.906  13.261   7.404
 7522SOL     OW24404   8.800  13.399   4.698
 7522SOL    HW124405   8.794  13.335   4.627
 7522SOL    HW224406   8.710  13.420   4.720
 7523SOL     OW24407   1.747  12.421   2.970
 7523SOL    HW124408   1.755  12.404   3.064
 7523SOL    HW224409   1.699  12.345   2.936
 7524SOL     OW24410   0.993   5.915   4.451
 7524SOL    HW124411   0.910   5.881   4.419
 7524SOL    HW224412   1.022   5.977   4.384
 7525SOL     OW24413   2.569   3.665   5.988
 7525SOL    HW124414   2.493   3.715   5.958
 7525SOL    HW224415   2.531   3.590   6.035
 7526SOL     OW24416   8.000  14.356   4.717
 7526SOL    HW124417   8.013  14.355   4.812
 7526SOL    HW224418   7.946  14.279   4.699
 7527SOL     OW24419  12.312   9.562   4.109
 7527SOL    HW124420  12.245   9.602   4.054
 7527SOL    HW224421  12.277   9.474   4.128
 7528SOL     OW24422   0.366  12.249   8.465
 7528SOL    HW124423   0.360  12.179   8.531
 7528SOL    HW224424   0.330  12.210   8.386
 7529SOL     OW24425   9.159   5.332  12.353
 7529SOL    HW124426   9.230   5.275  12.326
 7529SOL    HW224427   9.177   5.415  12.309
 7530SOL     OW24428  14.242  14.054   7.002
 7530SOL    HW124429  14.266  14.111   6.929
 7530SOL    HW224430  14.204  13.976   6.960
 7531SOL     OW24431   4.864   8.245   9.262
 7531SOL    HW124432   4.848   8.313   9.196
 7531SOL    HW224433   4.883   8.166   9.211
 7532SOL     OW24434   4.902  10.470  11.683
 7532SOL    HW124435   4.875  10.483  11.774
 7532SOL    HW224436   4.987  10.515  11.676
 7533SOL     OW24437   7.457  11.370   0.166
 7533SOL    HW124438   7.425  11.456   0.139
 7533SOL    HW224439   7.553  11.380   0.169
 7534SOL     OW24440   2.697   7.169   9.801
 7534SOL    HW124441   2.616   7.198   9.760
 7534SOL    HW224442   2.671   7.143   9.890
 7535SOL     OW24443  13.241   4.985   0.732
 7535SOL    HW124444  13.179   4.971   0.803
 7535SOL    HW224445  13.203   5.056   0.681
 7536SOL     OW24446   0.030  11.537  10.408
 7536SOL    HW124447   0.043  11.624  10.445
 7536SOL    HW224448  14.859  11.553  10.324
 7537SOL     OW24449  10.685   5.438   3.103
 7537SOL    HW124450  10.664   5.471   3.016
 7537SOL    HW224451  10.627   5.363   3.115
 7538SOL     OW24452   9.944  11.233  14.305
 7538SOL    HW124453   9.918  11.148  14.270
 7538SOL    HW224454  10.010  11.266  14.245
 7539SOL     OW24455   0.932  11.840   1.023
 7539SOL    HW124456   0.993  11.862   1.093
 7539SOL    HW224457   0.897  11.755   1.049
 7540SOL     OW24458  11.863  10.973   4.369
 7540SOL    HW124459  11.849  10.967   4.464
 7540SOL    HW224460  11.800  10.911   4.332
 7541SOL     OW24461  13.294   2.699  10.644
 7541SOL    HW124462  13.382   2.735  10.630
 7541SOL    HW224463  13.300   2.652  10.727
 7542SOL     OW24464   0.727   6.896   7.204
 7542SOL    HW124465   0.702   6.901   7.297
 7542SOL    HW224466   0.761   6.983   7.183
 7543SOL     OW24467   4.987  13.344   2.286
 7543SOL    HW124468   5.047  13.335   2.360
 7543SOL    HW224469   5.043  13.339   2.208
 7544SOL     OW24470   0.893   6.649   1.411
 7544SOL    HW124471   0.928   6.668   1.323
 7544SOL    HW224472   0.935   6.567   1.436
 7545SOL     OW24473   2.802   5.379   7.992
 7545SOL    HW124474   2.738   5.405   8.058
 7545SOL    HW224475   2.875   5.440   8.004
 7546SOL     OW24476  13.625   1.066   1.801
 7546SOL    HW124477  13.717   1.056   1.824
 7546SOL    HW224478  13.580   1.073   1.885
 7547SOL     OW24479   7.966   8.022   2.555
 7547SOL    HW124480   7.922   8.105   2.533
 7547SOL    HW224481   7.996   7.989   2.471
 7548SOL     OW24482  11.831   9.033   8.843
 7548SOL    HW124483  11.887   9.100   8.802
 7548SOL    HW224484  11.885   8.999   8.914
 7549SOL     OW24485  13.578   2.080   1.092
 7549SOL    HW124486  13.618   1.994   1.105
 7549SOL    HW224487  13.547   2.079   1.002
 7550SOL     OW24488   4.716  11.560  11.389
 7550SOL    HW124489   4.802  11.597  11.372
 7550SOL    HW224490   4.733  11.475  11.429
 7551SOL     OW24491   4.260   5.569  11.110
 7551SOL    HW124492   4.215   5.642  11.068
 7551SOL    HW224493   4.309   5.610  11.181
 7552SOL     OW24494   9.855  13.663  11.377
 7552SOL    HW124495   9.768  13.671  11.416
 7552SOL    HW224496   9.890  13.752  11.379
 7553SOL     OW24497   0.925  13.042   0.798
 7553SOL    HW124498   0.952  13.035   0.706
 7553SOL    HW224499   0.833  13.016   0.799
 7554SOL     OW24500   3.269   2.237  10.540
 7554SOL    HW124501   3.244   2.221  10.630
 7554SOL    HW224502   3.333   2.308  10.545
 7555SOL     OW24503  13.437   6.452  13.686
 7555SOL    HW124504  13.425   6.547  13.688
 7555SOL    HW224505  13.444   6.427  13.778
 7556SOL     OW24506   0.850   8.776   4.450
 7556SOL    HW124507   0.857   8.742   4.539
 7556SOL    HW224508   0.917   8.729   4.401
 7557SOL     OW24509   6.159   8.931   4.371
 7557SOL    HW124510   6.230   8.889   4.323
 7557SOL    HW224511   6.134   8.867   4.437
 7558SOL     OW24512   4.631   1.811  11.973
 7558SOL    HW124513   4.596   1.724  11.954
 7558SOL    HW224514   4.612   1.825  12.066
 7559SOL     OW24515   7.317   4.974   3.804
 7559SOL    HW124516   7.350   4.902   3.750
 7559SOL    HW224517   7.288   4.931   3.885
 7560SOL     OW24518   3.440  11.602  12.254
 7560SOL    HW124519   3.400  11.591  12.340
 7560SOL    HW224520   3.401  11.682  12.220
 7561SOL     OW24521   8.532   8.784  13.526
 7561SOL    HW124522   8.541   8.786  13.621
 7561SOL    HW224523   8.560   8.696  13.500
 7562SOL     OW24524   2.374  12.966   4.994
 7562SOL    HW124525   2.414  12.947   5.079
 7562SOL    HW224526   2.295  12.912   4.992
 7563SOL     OW24527   3.684  10.289  10.978
 7563SOL    HW124528   3.658  10.270  11.068
 7563SOL    HW224529   3.765  10.340  10.986
 7564SOL     OW24530   0.015   4.388   7.323
 7564SOL    HW124531   0.007   4.480   7.347
 7564SOL    HW224532   0.095   4.383   7.271
 7565SOL     OW24533  13.129  14.168   8.771
 7565SOL    HW124534  13.061  14.153   8.836
 7565SOL    HW224535  13.090  14.229   8.709
 7566SOL     OW24536  14.669  14.658   5.795
 7566SOL    HW124537  14.739  14.611   5.839
 7566SOL    HW224538  14.598  14.595   5.787
 7567SOL     OW24539  14.250   0.964   5.178
 7567SOL    HW124540  14.221   0.881   5.140
 7567SOL    HW224541  14.324   0.940   5.233
 7568SOL     OW24542  14.254  12.535   7.848
 7568SOL    HW124543  14.170  12.495   7.871
 7568SOL    HW224544  14.267  12.602   7.915
 7569SOL     OW24545   5.308   3.553   0.466
 7569SOL    HW124546   5.328   3.644   0.487
 7569SOL    HW224547   5.306   3.550   0.371
 7570SOL     OW24548  14.567   5.498   9.268
 7570SOL    HW124549  14.530   5.453   9.192
 7570SOL    HW224550  14.648   5.452   9.286
 7571SOL     OW24551   2.757   4.949   3.050
 7571SOL    HW124552   2.727   4.945   3.141
 7571SOL    HW224553   2.847   4.983   3.057
 7572SOL     OW24554   2.853  10.730   5.625
 7572SOL    HW124555   2.876  10.665   5.691
 7572SOL    HW224556   2.928  10.789   5.622
 7573SOL     OW24557   6.371   2.149   2.552
 7573SOL    HW124558   6.284   2.151   2.590
 7573SOL    HW224559   6.430   2.166   2.625
 7574SOL     OW24560   8.836  10.588   1.168
 7574SOL    HW124561   8.743  10.581   1.188
 7574SOL    HW224562   8.875  10.628   1.246
 7575SOL     OW24563  14.527  12.877   8.452
 7575SOL    HW124564  14.488  12.814   8.512
 7575SOL    HW224565  14.455  12.936   8.429
 7576SOL     OW24566   4.337   5.217  13.170
 7576SOL    HW124567   4.383   5.217  13.254
 7576SOL    HW224568   4.319   5.310  13.152
 7577SOL     OW24569   5.837  13.369   7.491
 7577SOL    HW124570   5.742  13.364   7.501
 7577SOL    HW224571   5.872  13.351   7.578
 7578SOL     OW24572  14.528   9.511   0.705
 7578SOL    HW124573  14.592   9.581   0.717
 7578SOL    HW224574  14.529   9.463   0.788
 7579SOL     OW24575  10.100  12.762   6.329
 7579SOL    HW124576  10.066  12.803   6.409
 7579SOL    HW224577  10.102  12.669   6.348
 7580SOL     OW24578   2.471  14.451   3.937
 7580SOL    HW124579   2.490  14.398   3.859
 7580SOL    HW224580   2.554  14.494   3.958
 7581SOL     OW24581  11.415  12.079   6.433
 7581SOL    HW124582  11.436  12.054   6.523
 7581SOL    HW224583  11.320  12.089   6.432
 7582SOL     OW24584  11.956   0.949  12.902
 7582SOL    HW124585  11.923   1.018  12.845
 7582SOL    HW224586  11.882   0.889  12.911
 7583SOL     OW24587  14.262  14.013   8.388
 7583SOL    HW124588  14.213  14.030   8.468
 7583SOL    HW224589  14.324  14.086   8.381
 7584SOL     OW24590   6.143  12.410   7.775
 7584SOL    HW124591   6.168  12.383   7.863
 7584SOL    HW224592   6.091  12.490   7.789
 7585SOL     OW24593   3.525   6.154   9.898
 7585SOL    HW124594   3.557   6.106   9.974
 7585SOL    HW224595   3.530   6.091   9.826
 7586SOL     OW24596   3.506   4.312   9.000
 7586SOL    HW124597   3.548   4.338   9.082
 7586SOL    HW224598   3.534   4.222   8.985
 7587SOL     OW24599   3.997   9.031   1.614
 7587SOL    HW124600   4.072   9.070   1.660
 7587SOL    HW224601   4.009   8.937   1.624
 7588SOL     OW24602   0.798   6.134   0.668
 7588SOL    HW124603   0.837   6.051   0.693
 7588SOL    HW224604   0.741   6.112   0.594
 7589SOL     OW24605   8.137   0.169   3.239
 7589SOL    HW124606   8.091   0.233   3.185
 7589SOL    HW224607   8.166   0.102   3.177
 7590SOL     OW24608  11.044   7.351   1.185
 7590SOL    HW124609  11.138   7.365   1.170
 7590SOL    HW224610  11.006   7.439   1.184
 7591SOL     OW24611  13.054   8.510   0.903
 7591SOL    HW124612  13.062   8.601   0.876
 7591SOL    HW224613  12.961   8.498   0.922
 7592SOL     OW24614   1.147   2.647   8.875
 7592SOL    HW124615   1.235   2.617   8.897
 7592SOL    HW224616   1.130   2.612   8.787
 7593SOL     OW24617   0.005   5.478   4.632
 7593SOL    HW124618  14.790   5.493   4.665
 7593SOL    HW224619   0.051   5.439   4.706
 7594SOL     OW24620   8.616   2.144   0.000
 7594SOL    HW124621   8.635   2.112  14.786
 7594SOL    HW224622   8.631   2.239  14.868
 7595SOL     OW24623  11.217   3.293   8.958
 7595SOL    HW124624  11.167   3.287   9.040
 7595SOL    HW224625  11.151   3.285   8.889
 7596SOL     OW24626   1.161   3.919  11.168
 7596SOL    HW124627   1.067   3.926  11.179
 7596SOL    HW224628   1.173   3.845  11.108
 7597SOL     OW24629  10.928   9.279  11.899
 7597SOL    HW124630  10.961   9.359  11.940
 7597SOL    HW224631  10.882   9.233  11.969
 7598SOL     OW24632   2.802   1.010   4.427
 7598SOL    HW124633   2.830   1.095   4.463
 7598SOL    HW224634   2.761   1.032   4.344
 7599SOL     OW24635   2.862   5.662  13.620
 7599SOL    HW124636   2.825   5.711  13.546
 7599SOL    HW224637   2.918   5.596  13.580
 7600SOL     OW24638   2.788  11.249   8.604
 7600SOL    HW124639   2.799  11.198   8.524
 7600SOL    HW224640   2.813  11.188   8.675
 7601SOL     OW24641  14.845  12.402   0.472
 7601SOL    HW124642  14.815  12.493   0.466
 7601SOL    HW224643   0.063  12.405   0.446
 7602SOL     OW24644   7.128   1.355   9.351
 7602SOL    HW124645   7.168   1.438   9.380
 7602SOL    HW224646   7.077   1.379   9.274
 7603SOL     OW24647   8.289   8.475   8.176
 7603SOL    HW124648   8.254   8.390   8.200
 7603SOL    HW224649   8.265   8.486   8.084
 7604SOL     OW24650  10.631   5.363  14.337
 7604SOL    HW124651  10.704   5.333  14.390
 7604SOL    HW224652  10.641   5.316  14.254
 7605SOL     OW24653   6.935  11.433   4.251
 7605SOL    HW124654   6.839  11.423   4.249
 7605SOL    HW224655   6.951  11.485   4.330
 7606SOL     OW24656  12.442   3.996   4.357
 7606SOL    HW124657  12.532   3.997   4.392
 7606SOL    HW224658  12.388   4.024   4.430
 7607SOL     OW24659  12.076   2.898  13.918
 7607SOL    HW124660  12.119   2.873  14.000
 7607SOL    HW224661  12.143   2.884  13.851
 7608SOL     OW24662   9.754   5.444   3.745
 7608SOL    HW124663   9.693   5.518   3.746
 7608SOL    HW224664   9.835   5.480   3.783
 7609SOL     OW24665  10.111   0.889   3.492
 7609SOL    HW124666  10.097   0.821   3.558
 7609SOL    HW224667  10.206   0.898   3.487
 7610SOL     OW24668  13.928   5.540   2.468
 7610SOL    HW124669  13.953   5.447   2.470
 7610SOL    HW224670  13.948   5.572   2.556
 7611SOL     OW24671  12.671   1.738  12.624
 7611SOL    HW124672  12.693   1.764  12.713
 7611SOL    HW224673  12.718   1.799  12.568
 7612SOL     OW24674  12.461   4.200  13.395
 7612SOL    HW124675  12.474   4.231  13.485
 7612SOL    HW224676  12.447   4.105  13.404
 7613SOL     OW24677   5.029   6.277   7.681
 7613SOL    HW124678   4.996   6.189   7.667
 7613SOL    HW224679   5.123   6.271   7.664
 7614SOL     OW24680  13.050   2.484  13.716
 7614SOL    HW124681  13.020   2.484  13.625
 7614SOL    HW224682  12.987   2.541  13.761
 7615SOL     OW24683   1.376   9.344  14.772
 7615SOL    HW124684   1.315   9.271  14.770
 7615SOL    HW224685   1.327   9.415  14.814
 7616SOL     OW24686   3.250  13.385  11.023
 7616SOL    HW124687   3.182  13.321  11.042
 7616SOL    HW224688   3.203  13.461  10.988
 7617SOL     OW24689   7.748   5.620   4.366
 7617SOL    HW124690   7.803   5.624   4.287
 7617SOL    HW224691   7.683   5.689   4.353
 7618SOL     OW24692  11.092  11.637   4.080
 7618SOL    HW124693  11.069  11.568   4.143
 7618SOL    HW224694  11.008  11.666   4.045
 7619SOL     OW24695   8.257   4.189  10.714
 7619SOL    HW124696   8.203   4.224  10.785
 7619SOL    HW224697   8.197   4.134  10.664
 7620SOL     OW24698   6.986   8.665  14.816
 7620SOL    HW124699   7.021   8.750  14.790
 7620SOL    HW224700   6.908   8.685  14.867
 7621SOL     OW24701   9.825   7.989   4.128
 7621SOL    HW124702   9.758   8.056   4.113
 7621SOL    HW224703   9.801   7.950   4.212
 7622SOL     OW24704   9.859  14.701  12.142
 7622SOL    HW124705   9.932  14.658  12.097
 7622SOL    HW224706   9.793  14.632  12.150
 7623SOL     OW24707   5.747   9.895   1.956
 7623SOL    HW124708   5.805   9.933   2.021
 7623SOL    HW224709   5.700   9.970   1.919
 7624SOL     OW24710  11.605  12.993   2.859
 7624SOL    HW124711  11.613  12.977   2.765
 7624SOL    HW224712  11.655  13.073   2.875
 7625SOL     OW24713   5.766  14.054   8.441
 7625SOL    HW124714   5.703  14.110   8.486
 7625SOL    HW224715   5.726  13.967   8.441
 7626SOL     OW24716   2.569   2.755   3.446
 7626SOL    HW124717   2.612   2.783   3.365
 7626SOL    HW224718   2.635   2.770   3.514
 7627SOL     OW24719   3.184  11.496   4.496
 7627SOL    HW124720   3.153  11.575   4.539
 7627SOL    HW224721   3.276  11.514   4.476
 7628SOL     OW24722   4.536  12.935   3.234
 7628SOL    HW124723   4.515  12.875   3.163
 7628SOL    HW224724   4.471  12.918   3.301
 7629SOL     OW24725  11.178   9.762  14.032
 7629SOL    HW124726  11.184   9.748  13.938
 7629SOL    HW224727  11.112   9.700  14.062
 7630SOL     OW24728   3.185   1.469  11.219
 7630SOL    HW124729   3.102   1.428  11.245
 7630SOL    HW224730   3.251   1.420  11.267
 7631SOL     OW24731  12.850   2.973   6.307
 7631SOL    HW124732  12.895   3.026   6.240
 7631SOL    HW224733  12.815   2.898   6.259
 7632SOL     OW24734   5.398   9.603   6.916
 7632SOL    HW124735   5.469   9.593   6.980
 7632SOL    HW224736   5.422   9.545   6.844
 7633SOL     OW24737  13.315  11.151  10.060
 7633SOL    HW124738  13.342  11.097  10.134
 7633SOL    HW224739  13.259  11.093  10.008
 7634SOL     OW24740   4.821   4.892   1.709
 7634SOL    HW124741   4.888   4.852   1.653
 7634SOL    HW224742   4.836   4.854   1.795
 7635SOL     OW24743   1.773  11.021   6.812
 7635SOL    HW124744   1.835  10.991   6.746
 7635SOL    HW224745   1.707  10.952   6.817
 7636SOL     OW24746  11.128   4.443   9.123
 7636SOL    HW124747  11.195   4.489   9.174
 7636SOL    HW224748  11.054   4.502   9.122
 7637SOL     OW24749   2.460   0.723  11.488
 7637SOL    HW124750   2.475   0.786  11.558
 7637SOL    HW224751   2.540   0.669  11.487
 7638SOL     OW24752   0.309   3.971  14.094
 7638SOL    HW124753   0.325   3.923  14.175
 7638SOL    HW224754   0.371   4.043  14.095
 7639SOL     OW24755  11.142   5.228   4.805
 7639SOL    HW124756  11.085   5.213   4.730
 7639SOL    HW224757  11.086   5.271   4.870
 7640SOL     OW24758   7.679  11.723   2.083
 7640SOL    HW124759   7.615  11.793   2.084
 7640SOL    HW224760   7.702  11.710   2.175
 7641SOL     OW24761   0.866   0.838   0.437
 7641SOL    HW124762   0.801   0.836   0.507
 7641SOL    HW224763   0.945   0.801   0.477
 7642SOL     OW24764  11.659  13.011  14.622
 7642SOL    HW124765  11.701  13.097  14.623
 7642SOL    HW224766  11.647  12.989  14.715
 7643SOL     OW24767  13.190   0.349   2.589
 7643SOL    HW124768  13.124   0.377   2.652
 7643SOL    HW224769  13.209   0.428   2.539
 7644SOL     OW24770   6.248  13.847   2.994
 7644SOL    HW124771   6.334  13.886   2.978
 7644SOL    HW224772   6.213  13.898   3.068
 7645SOL     OW24773  14.741   2.063   0.549
 7645SOL    HW124774  14.683   2.101   0.484
 7645SOL    HW224775  14.715   2.105   0.631
 7646SOL     OW24776   7.805   0.567   4.884
 7646SOL    HW124777   7.739   0.581   4.816
 7646SOL    HW224778   7.889   0.582   4.839
 7647SOL     OW24779   9.338   5.051   8.370
 7647SOL    HW124780   9.287   4.988   8.422
 7647SOL    HW224781   9.308   5.037   8.280
 7648SOL     OW24782  12.609   9.309   5.002
 7648SOL    HW124783  12.553   9.343   4.932
 7648SOL    HW224784  12.548   9.285   5.072
 7649SOL     OW24785   8.868  14.001   8.101
 7649SOL    HW124786   8.909  13.922   8.067
 7649SOL    HW224787   8.777  13.977   8.115
 7650SOL     OW24788   5.254   3.722   1.489
 7650SOL    HW124789   5.269   3.776   1.411
 7650SOL    HW224790   5.298   3.639   1.468
 7651SOL     OW24791  12.655  13.450   8.242
 7651SOL    HW124792  12.669  13.355   8.231
 7651SOL    HW224793  12.604  13.457   8.322
 7652SOL     OW24794   7.670   7.268  12.246
 7652SOL    HW124795   7.620   7.186  12.251
 7652SOL    HW224796   7.616   7.331  12.293
 7653SOL     OW24797   6.393   1.399   3.075
 7653SOL    HW124798   6.359   1.468   3.019
 7653SOL    HW224799   6.479   1.431   3.103
 7654SOL     OW24800   5.727   9.366   0.061
 7654SOL    HW124801   5.668   9.349  14.862
 7654SOL    HW224802   5.684   9.325   0.137
 7655SOL     OW24803   3.151  13.285   6.830
 7655SOL    HW124804   3.213  13.318   6.765
 7655SOL    HW224805   3.117  13.364   6.873
 7656SOL     OW24806  11.024   5.726   1.303
 7656SOL    HW124807  11.084   5.793   1.334
 7656SOL    HW224808  11.080   5.664   1.256
 7657SOL     OW24809  11.338   4.436  13.714
 7657SOL    HW124810  11.266   4.395  13.665
 7657SOL    HW224811  11.401   4.366  13.729
 7658SOL     OW24812   3.774   2.595   4.290
 7658SOL    HW124813   3.766   2.680   4.332
 7658SOL    HW224814   3.732   2.534   4.351
 7659SOL     OW24815  10.155  10.362   5.092
 7659SOL    HW124816  10.171  10.335   5.183
 7659SOL    HW224817  10.107  10.444   5.099
 7660SOL     OW24818   2.025   0.674   9.325
 7660SOL    HW124819   1.989   0.759   9.348
 7660SOL    HW224820   2.000   0.661   9.234
 7661SOL     OW24821   3.609  14.738   8.417
 7661SOL    HW124822   3.651  14.781   8.343
 7661SOL    HW224823   3.654  14.654   8.424
 7662SOL     OW24824   3.597   7.294   6.586
 7662SOL    HW124825   3.578   7.387   6.601
 7662SOL    HW224826   3.689   7.292   6.562
 7663SOL     OW24827  11.334  11.883   8.660
 7663SOL    HW124828  11.240  11.879   8.677
 7663SOL    HW224829  11.354  11.977   8.661
 7664SOL     OW24830   4.769  13.283  10.068
 7664SOL    HW124831   4.827  13.261   9.995
 7664SOL    HW224832   4.688  13.313  10.026
 7665SOL     OW24833  10.708   4.074   0.064
 7665SOL    HW124834  10.795   4.035   0.056
 7665SOL    HW224835  10.660   4.041  14.862
 7666SOL     OW24836   9.265   9.091   5.245
 7666SOL    HW124837   9.321   9.095   5.323
 7666SOL    HW224838   9.276   9.177   5.204
 7667SOL     OW24839   2.203   2.447  11.459
 7667SOL    HW124840   2.120   2.408  11.432
 7667SOL    HW224841   2.254   2.374  11.494
 7668SOL     OW24842  11.343  10.666  14.852
 7668SOL    HW124843  11.388  10.719   0.043
 7668SOL    HW224844  11.380  10.694  14.768
 7669SOL     OW24845  12.673  13.665  13.834
 7669SOL    HW124846  12.758  13.678  13.792
 7669SOL    HW224847  12.653  13.573  13.821
 7670SOL     OW24848   1.524  12.870   9.577
 7670SOL    HW124849   1.548  12.960   9.556
 7670SOL    HW224850   1.445  12.854   9.526
 7671SOL     OW24851  14.463  10.086  13.254
 7671SOL    HW124852  14.558  10.100  13.257
 7671SOL    HW224853  14.428  10.169  13.223
 7672SOL     OW24854   7.033   0.759   0.809
 7672SOL    HW124855   7.077   0.699   0.868
 7672SOL    HW224856   7.026   0.712   0.726
 7673SOL     OW24857  11.057   3.868  12.153
 7673SOL    HW124858  11.081   3.787  12.108
 7673SOL    HW224859  11.111   3.936  12.111
 7674SOL     OW24860   0.747   8.031   2.177
 7674SOL    HW124861   0.790   8.017   2.093
 7674SOL    HW224862   0.734   8.125   2.182
 7675SOL     OW24863   1.776   9.912  12.835
 7675SOL    HW124864   1.826   9.889  12.757
 7675SOL    HW224865   1.840   9.953  12.893
 7676SOL     OW24866   5.654  11.914   2.930
 7676SOL    HW124867   5.623  11.995   2.969
 7676SOL    HW224868   5.748  11.912   2.950
 7677SOL     OW24869   1.027   6.614   4.917
 7677SOL    HW124870   0.969   6.639   4.990
 7677SOL    HW224871   0.976   6.550   4.867
 7678SOL     OW24872   8.597   8.017   2.703
 7678SOL    HW124873   8.577   8.092   2.647
 7678SOL    HW224874   8.512   7.974   2.715
 7679SOL     OW24875  10.846  14.232   5.166
 7679SOL    HW124876  10.845  14.179   5.246
 7679SOL    HW224877  10.813  14.173   5.098
 7680SOL     OW24878   6.438   3.770  13.576
 7680SOL    HW124879   6.417   3.760  13.669
 7680SOL    HW224880   6.358   3.805  13.537
 7681SOL     OW24881  13.261   3.233   2.174
 7681SOL    HW124882  13.274   3.167   2.242
 7681SOL    HW224883  13.314   3.307   2.202
 7682SOL     OW24884  11.634  12.279  13.983
 7682SOL    HW124885  11.560  12.269  13.923
 7682SOL    HW224886  11.603  12.340  14.050
 7683SOL     OW24887   0.171   7.260   3.183
 7683SOL    HW124888   0.212   7.176   3.163
 7683SOL    HW224889   0.099   7.267   3.121
 7684SOL     OW24890  10.906   3.337  10.604
 7684SOL    HW124891  10.891   3.350  10.697
 7684SOL    HW224892  10.985   3.283  10.599
 7685SOL     OW24893   4.787   3.599   4.795
 7685SOL    HW124894   4.712   3.658   4.783
 7685SOL    HW224895   4.856   3.655   4.831
 7686SOL     OW24896  10.656  14.770   4.251
 7686SOL    HW124897  10.655  14.865   4.266
 7686SOL    HW224898  10.636  14.732   4.336
 7687SOL     OW24899   0.558  12.907  12.568
 7687SOL    HW124900   0.580  12.954  12.648
 7687SOL    HW224901   0.611  12.827  12.571
 7688SOL     OW24902   2.519  11.069   9.735
 7688SOL    HW124903   2.596  11.016   9.755
 7688SOL    HW224904   2.446  11.022   9.775
 7689SOL     OW24905   2.569  13.635   5.980
 7689SOL    HW124906   2.601  13.668   5.896
 7689SOL    HW224907   2.548  13.543   5.964
 7690SOL     OW24908   2.147   3.402  12.663
 7690SOL    HW124909   2.186   3.338  12.603
 7690SOL    HW224910   2.101   3.464  12.607
 7691SOL     OW24911   5.858  11.283   7.820
 7691SOL    HW124912   5.849  11.253   7.730
 7691SOL    HW224913   5.843  11.377   7.816
 7692SOL     OW24914  13.564  13.280  14.280
 7692SOL    HW124915  13.648  13.322  14.298
 7692SOL    HW224916  13.510  13.299  14.356
 7693SOL     OW24917   1.780   0.028  11.709
 7693SOL    HW124918   1.770  14.813  11.675
 7693SOL    HW224919   1.750   0.084  11.637
 7694SOL     OW24920  14.270  14.567   3.123
 7694SOL    HW124921  14.320  14.559   3.042
 7694SOL    HW224922  14.263  14.661   3.138
 7695SOL     OW24923   1.673   9.689   9.183
 7695SOL    HW124924   1.696   9.606   9.140
 7695SOL    HW224925   1.735   9.697   9.255
 7696SOL     OW24926  10.506  11.904   9.118
 7696SOL    HW124927  10.598  11.877   9.115
 7696SOL    HW224928  10.488  11.936   9.030
 7697SOL     OW24929  11.385   0.622   6.352
 7697SOL    HW124930  11.431   0.611   6.435
 7697SOL    HW224931  11.386   0.716   6.336
 7698SOL     OW24932   9.435   3.352  10.304
 7698SOL    HW124933   9.390   3.347  10.388
 7698SOL    HW224934   9.525   3.323  10.323
 7699SOL     OW24935   3.839  13.147  10.700
 7699SOL    HW124936   3.804  13.175  10.784
 7699SOL    HW224937   3.766  13.158  10.639
 7700SOL     OW24938   7.064  12.405  12.440
 7700SOL    HW124939   7.089  12.359  12.360
 7700SOL    HW224940   6.982  12.449  12.418
 7701SOL     OW24941   8.272  11.972   7.879
 7701SOL    HW124942   8.340  11.911   7.906
 7701SOL    HW224943   8.192  11.919   7.877
 7702SOL     OW24944   3.825  13.469   3.894
 7702SOL    HW124945   3.859  13.403   3.834
 7702SOL    HW224946   3.769  13.524   3.839
 7703SOL     OW24947   8.593   9.279  14.456
 7703SOL    HW124948   8.649   9.355  14.442
 7703SOL    HW224949   8.569   9.250  14.368
 7704SOL     OW24950  10.965   7.524  12.323
 7704SOL    HW124951  10.898   7.589  12.345
 7704SOL    HW224952  11.044   7.555  12.367
 7705SOL     OW24953   4.682   0.040   8.947
 7705SOL    HW124954   4.715   0.128   8.969
 7705SOL    HW224955   4.587   0.047   8.957
 7706SOL     OW24956   0.508   2.702   5.699
 7706SOL    HW124957   0.574   2.771   5.693
 7706SOL    HW224958   0.557   2.620   5.697
 7707SOL     OW24959   9.841   6.137   3.655
 7707SOL    HW124960   9.927   6.130   3.698
 7707SOL    HW224961   9.779   6.108   3.722
 7708SOL     OW24962  11.270   2.671  13.775
 7708SOL    HW124963  11.293   2.627  13.693
 7708SOL    HW224964  11.297   2.762  13.761
 7709SOL     OW24965  12.970   4.784  11.392
 7709SOL    HW124966  12.934   4.810  11.307
 7709SOL    HW224967  12.911   4.823  11.456
 7710SOL     OW24968  14.519   3.207   9.524
 7710SOL    HW124969  14.555   3.282   9.477
 7710SOL    HW224970  14.424   3.220   9.520
 7711SOL     OW24971  12.818   4.430   2.916
 7711SOL    HW124972  12.910   4.419   2.940
 7711SOL    HW224973  12.820   4.472   2.830
 7712SOL     OW24974   0.426   9.800   3.174
 7712SOL    HW124975   0.469   9.793   3.259
 7712SOL    HW224976   0.396   9.711   3.155
 7713SOL     OW24977   5.786   7.365   3.463
 7713SOL    HW124978   5.781   7.302   3.535
 7713SOL    HW224979   5.762   7.449   3.503
 7714SOL     OW24980   3.332   9.844   5.869
 7714SOL    HW124981   3.391   9.786   5.821
 7714SOL    HW224982   3.297   9.903   5.801
 7715SOL     OW24983  13.781   6.923   1.349
 7715SOL    HW124984  13.838   6.917   1.426
 7715SOL    HW224985  13.841   6.943   1.277
 7716SOL     OW24986  12.955   2.392   5.734
 7716SOL    HW124987  12.895   2.320   5.715
 7716SOL    HW224988  12.977   2.382   5.826
 7717SOL     OW24989   6.829   8.689   1.286
 7717SOL    HW124990   6.823   8.598   1.257
 7717SOL    HW224991   6.742   8.710   1.320
 7718SOL     OW24992  13.487   1.104   2.750
 7718SOL    HW124993  13.572   1.068   2.726
 7718SOL    HW224994  13.430   1.028   2.758
 7719SOL     OW24995  13.108   7.568  13.537
 7719SOL    HW124996  13.156   7.600  13.613
 7719SOL    HW224997  13.093   7.647  13.484
 7720SOL     OW24998  14.673   3.099  13.227
 7720SOL    HW124999  14.582   3.072  13.237
 7720SOL    HW225000  14.670   3.172  13.166
 7721SOL     OW25001   3.535   8.633   2.696
 7721SOL    HW125002   3.501   8.576   2.765
 7721SOL    HW225003   3.628   8.645   2.719
 7722SOL     OW25004   7.537   7.724   4.481
 7722SOL    HW125005   7.442   7.732   4.493
 7722SOL    HW225006   7.547   7.672   4.401
 7723SOL     OW25007   5.926  12.656   6.366
 7723SOL    HW125008   5.838  12.686   6.347
 7723SOL    HW225009   5.920  12.560   6.366
 7724SOL     OW25010   7.147  10.790   1.986
 7724SOL    HW125011   7.094  10.802   1.907
 7724SOL    HW225012   7.084  10.797   2.058
 7725SOL     OW25013  11.102  14.332  10.403
 7725SOL    HW125014  11.077  14.411  10.355
 7725SOL    HW225015  11.052  14.337  10.484
 7726SOL     OW25016  12.190   0.894  14.320
 7726SOL    HW125017  12.253   0.835  14.280
 7726SOL    HW225018  12.233   0.925  14.400
 7727SOL     OW25019   5.051   9.830   1.460
 7727SOL    HW125020   5.010   9.827   1.374
 7727SOL    HW225021   5.033   9.745   1.499
 7728SOL     OW25022   5.531  12.067   5.812
 7728SOL    HW125023   5.550  12.056   5.905
 7728SOL    HW225024   5.537  11.979   5.775
 7729SOL     OW25025   6.703   8.397   1.837
 7729SOL    HW125026   6.672   8.314   1.872
 7729SOL    HW225027   6.784   8.415   1.884
 7730SOL     OW25028   2.766  14.026   8.358
 7730SOL    HW125029   2.774  14.100   8.298
 7730SOL    HW225030   2.769  14.066   8.445
 7731SOL     OW25031   0.063   7.783  12.973
 7731SOL    HW125032   0.085   7.810  12.884
 7731SOL    HW225033  14.856   7.734  12.964
 7732SOL     OW25034   5.891   2.375   7.857
 7732SOL    HW125035   5.809   2.375   7.907
 7732SOL    HW225036   5.863   2.368   7.766
 7733SOL     OW25037  12.394   3.526  14.614
 7733SOL    HW125038  12.434   3.442  14.632
 7733SOL    HW225039  12.429   3.584  14.682
 7734SOL     OW25040  11.043   3.316   6.841
 7734SOL    HW125041  11.017   3.402   6.807
 7734SOL    HW225042  10.989   3.254   6.793
 7735SOL     OW25043   4.986  14.555   1.858
 7735SOL    HW125044   4.970  14.472   1.813
 7735SOL    HW225045   5.036  14.530   1.937
 7736SOL     OW25046  12.713  11.402   0.950
 7736SOL    HW125047  12.696  11.321   0.902
 7736SOL    HW225048  12.681  11.472   0.893
 7737SOL     OW25049   4.539   6.081   8.822
 7737SOL    HW125050   4.598   6.136   8.874
 7737SOL    HW225051   4.595   6.010   8.790
 7738SOL     OW25052  14.201  12.452  10.790
 7738SOL    HW125053  14.230  12.413  10.873
 7738SOL    HW225054  14.106  12.444  10.792
 7739SOL     OW25055  10.442  14.673   8.223
 7739SOL    HW125056  10.440  14.714   8.309
 7739SOL    HW225057  10.482  14.587   8.238
 7740SOL     OW25058   4.101  14.532   4.942
 7740SOL    HW125059   4.177  14.537   4.884
 7740SOL    HW225060   4.119  14.457   4.998
 7741SOL     OW25061  13.874  12.116   9.961
 7741SOL    HW125062  13.881  12.091  10.053
 7741SOL    HW225063  13.830  12.042   9.919
 7742SOL     OW25064   2.020   7.657   5.684
 7742SOL    HW125065   2.011   7.743   5.643
 7742SOL    HW225066   1.940   7.611   5.659
 7743SOL     OW25067   9.142   0.056   7.267
 7743SOL    HW125068   9.113   0.005   7.342
 7743SOL    HW225069   9.220   0.011   7.235
 7744SOL     OW25070   3.313   3.231   9.502
 7744SOL    HW125071   3.380   3.210   9.567
 7744SOL    HW225072   3.359   3.229   9.418
 7745SOL     OW25073   8.604   3.438  11.389
 7745SOL    HW125074   8.512   3.420  11.369
 7745SOL    HW225075   8.611   3.423  11.483
 7746SOL     OW25076   4.413   2.522   0.677
 7746SOL    HW125077   4.382   2.529   0.768
 7746SOL    HW225078   4.375   2.598   0.633
 7747SOL     OW25079   7.797  12.622   6.921
 7747SOL    HW125080   7.735  12.560   6.961
 7747SOL    HW225081   7.744  12.671   6.858
 7748SOL     OW25082   8.954   4.495   3.285
 7748SOL    HW125083   9.028   4.543   3.248
 7748SOL    HW225084   8.908   4.560   3.339
 7749SOL     OW25085   2.944  10.685   0.588
 7749SOL    HW125086   2.859  10.658   0.622
 7749SOL    HW225087   2.992  10.715   0.665
 7750SOL     OW25088   2.473   8.136   2.281
 7750SOL    HW125089   2.412   8.076   2.322
 7750SOL    HW225090   2.425   8.174   2.208
 7751SOL     OW25091   0.665   0.773   2.495
 7751SOL    HW125092   0.653   0.804   2.585
 7751SOL    HW225093   0.630   0.684   2.495
 7752SOL     OW25094   2.317   5.033  14.271
 7752SOL    HW125095   2.396   5.079  14.243
 7752SOL    HW225096   2.246   5.076  14.225
 7753SOL     OW25097   5.857   4.282   6.975
 7753SOL    HW125098   5.914   4.206   6.964
 7753SOL    HW225099   5.787   4.251   7.033
 7754SOL     OW25100  13.401   8.681   0.595
 7754SOL    HW125101  13.362   8.694   0.509
 7754SOL    HW225102  13.349   8.737   0.653
 7755SOL     OW25103   0.758  13.922  10.561
 7755SOL    HW125104   0.696  13.936  10.633
 7755SOL    HW225105   0.810  14.003  10.558
 7756SOL     OW25106   9.768   7.461  14.403
 7756SOL    HW125107   9.813   7.391  14.355
 7756SOL    HW225108   9.766   7.430  14.494
 7757SOL     OW25109   4.353   5.467   4.920
 7757SOL    HW125110   4.262   5.482   4.894
 7757SOL    HW225111   4.403   5.482   4.840
 7758SOL     OW25112   8.043  14.778   8.215
 7758SOL    HW125113   8.079  14.717   8.279
 7758SOL    HW225114   7.952  14.790   8.242
 7759SOL     OW25115  13.655   2.525   7.915
 7759SOL    HW125116  13.622   2.598   7.968
 7759SOL    HW225117  13.582   2.462   7.913
 7760SOL     OW25118   4.947   1.409  11.152
 7760SOL    HW125119   4.900   1.482  11.112
 7760SOL    HW225120   5.007   1.451  11.214
 7761SOL     OW25121   1.741   5.967   8.605
 7761SOL    HW125122   1.663   5.996   8.654
 7761SOL    HW225123   1.733   6.011   8.520
 7762SOL     OW25124  11.501   0.549  10.849
 7762SOL    HW125125  11.567   0.483  10.870
 7762SOL    HW225126  11.552   0.624  10.816
 7763SOL     OW25127   3.667   9.651   4.576
 7763SOL    HW125128   3.584   9.607   4.595
 7763SOL    HW225129   3.732   9.601   4.626
 7764SOL     OW25130  14.169  13.223   5.667
 7764SOL    HW125131  14.197  13.146   5.717
 7764SOL    HW225132  14.084  13.247   5.706
 7765SOL     OW25133   0.546   9.356   8.017
 7765SOL    HW125134   0.528   9.429   7.957
 7765SOL    HW225135   0.599   9.394   8.086
 7766SOL     OW25136   1.353   7.768   0.102
 7766SOL    HW125137   1.290   7.759   0.030
 7766SOL    HW225138   1.418   7.700   0.085
 7767SOL     OW25139   1.569   3.376   0.340
 7767SOL    HW125140   1.663   3.377   0.326
 7767SOL    HW225141   1.558   3.390   0.434
 7768SOL     OW25142  11.320  12.902  14.668
 7768SOL    HW125143  11.255  12.920  14.600
 7768SOL    HW225144  11.357  12.988  14.688
 7769SOL     OW25145   7.701   1.443  14.348
 7769SOL    HW125146   7.739   1.355  14.348
 7769SOL    HW225147   7.760   1.494  14.293
 7770SOL     OW25148  11.056   4.112   3.958
 7770SOL    HW125149  10.981   4.054   3.946
 7770SOL    HW225150  11.018   4.192   3.995
 7771SOL     OW25151   3.255   6.589   7.493
 7771SOL    HW125152   3.281   6.522   7.556
 7771SOL    HW225153   3.301   6.565   7.412
 7772SOL     OW25154  11.137   0.409   0.204
 7772SOL    HW125155  11.134   0.406   0.300
 7772SOL    HW225156  11.183   0.491   0.185
 7773SOL     OW25157   8.775   1.886   1.336
 7773SOL    HW125158   8.753   1.795   1.316
 7773SOL    HW225159   8.867   1.894   1.313
 7774SOL     OW25160  13.598   2.088   7.870
 7774SOL    HW125161  13.563   2.049   7.950
 7774SOL    HW225162  13.544   2.166   7.856
 7775SOL     OW25163   9.778   3.047   8.990
 7775SOL    HW125164   9.861   3.085   8.960
 7775SOL    HW225165   9.779   3.059   9.084
 7776SOL     OW25166   0.910   2.924  11.238
 7776SOL    HW125167   0.835   2.978  11.212
 7776SOL    HW225168   0.874   2.863  11.302
 7777SOL     OW25169  12.506   5.293   3.248
 7777SOL    HW125170  12.443   5.301   3.176
 7777SOL    HW225171  12.486   5.208   3.287
 7778SOL     OW25172  10.358   7.512   3.842
 7778SOL    HW125173  10.387   7.423   3.861
 7778SOL    HW225174  10.333   7.510   3.750
 7779SOL     OW25175   0.105  11.346   4.315
 7779SOL    HW125176   0.185  11.335   4.263
 7779SOL    HW225177   0.034  11.324   4.254
 7780SOL     OW25178   8.755  13.131   5.154
 7780SOL    HW125179   8.764  13.155   5.062
 7780SOL    HW225180   8.844  13.115   5.184
 7781SOL     OW25181   3.569   5.507   1.106
 7781SOL    HW125182   3.507   5.483   1.175
 7781SOL    HW225183   3.515   5.542   1.036
 7782SOL     OW25184  12.775   3.772  10.131
 7782SOL    HW125185  12.726   3.711  10.076
 7782SOL    HW225186  12.839   3.717  10.176
 7783SOL     OW25187   1.179   4.912   5.700
 7783SOL    HW125188   1.251   4.883   5.756
 7783SOL    HW225189   1.107   4.853   5.721
 7784SOL     OW25190   0.326   2.332   7.932
 7784SOL    HW125191   0.255   2.277   7.964
 7784SOL    HW225192   0.387   2.270   7.890
 7785SOL     OW25193   3.585  10.314   0.415
 7785SOL    HW125194   3.541  10.273   0.340
 7785SOL    HW225195   3.645  10.246   0.446
 7786SOL     OW25196   2.992   3.987   5.283
 7786SOL    HW125197   3.027   4.067   5.245
 7786SOL    HW225198   3.012   3.994   5.377
 7787SOL     OW25199  13.320   8.417   1.193
 7787SOL    HW125200  13.260   8.345   1.176
 7787SOL    HW225201  13.264   8.487   1.226
 7788SOL     OW25202  10.841   4.298   7.942
 7788SOL    HW125203  10.857   4.214   7.898
 7788SOL    HW225204  10.763   4.333   7.900
 7789SOL     OW25205   9.201  13.987   0.828
 7789SOL    HW125206   9.128  13.934   0.860
 7789SOL    HW225207   9.277  13.956   0.878
 7790SOL     OW25208   8.789  11.208   5.843
 7790SOL    HW125209   8.786  11.295   5.802
 7790SOL    HW225210   8.747  11.150   5.780
 7791SOL     OW25211   6.747   7.157   5.417
 7791SOL    HW125212   6.750   7.139   5.511
 7791SOL    HW225213   6.663   7.203   5.404
 7792SOL     OW25214   1.412   9.034  10.977
 7792SOL    HW125215   1.443   9.027  10.887
 7792SOL    HW225216   1.425   9.126  11.001
 7793SOL     OW25217  10.028  10.411   0.943
 7793SOL    HW125218   9.990  10.423   0.856
 7793SOL    HW225219   9.969  10.458   1.002
 7794SOL     OW25220   8.119   2.870   1.734
 7794SOL    HW125221   8.038   2.919   1.725
 7794SOL    HW225222   8.103   2.812   1.809
 7795SOL     OW25223  11.019   2.150  12.266
 7795SOL    HW125224  11.048   2.238  12.242
 7795SOL    HW225225  10.958   2.125  12.197
 7796SOL     OW25226   0.899  14.286   5.489
 7796SOL    HW125227   0.819  14.237   5.470
 7796SOL    HW225228   0.869  14.362   5.539
 7797SOL     OW25229  13.258  14.168   6.954
 7797SOL    HW125230  13.228  14.208   7.036
 7797SOL    HW225231  13.180  14.162   6.900
 7798SOL     OW25232   7.223   1.558  12.348
 7798SOL    HW125233   7.300   1.506  12.372
 7798SOL    HW225234   7.180   1.577  12.432
 7799SOL     OW25235   7.701  12.027   8.687
 7799SOL    HW125236   7.633  12.058   8.747
 7799SOL    HW225237   7.780  12.025   8.740
 7800SOL     OW25238   9.644   1.143  10.568
 7800SOL    HW125239   9.684   1.184  10.645
 7800SOL    HW225240   9.683   1.056  10.564
 7801SOL     OW25241   0.722   4.840  13.296
 7801SOL    HW125242   0.717   4.877  13.384
 7801SOL    HW225243   0.650   4.882  13.249
 7802SOL     OW25244  13.509   0.631   1.686
 7802SOL    HW125245  13.493   0.587   1.603
 7802SOL    HW225246  13.596   0.602   1.713
 7803SOL     OW25247  13.173  12.644   6.666
 7803SOL    HW125248  13.251  12.654   6.720
 7803SOL    HW225249  13.101  12.668   6.724
 7804SOL     OW25250   0.526   6.484  12.608
 7804SOL    HW125251   0.475   6.452  12.534
 7804SOL    HW225252   0.616   6.482  12.578
 7805SOL     OW25253  11.854   2.321  12.905
 7805SOL    HW125254  11.939   2.284  12.928
 7805SOL    HW225255  11.874   2.408  12.870
 7806SOL     OW25256   1.978  14.235   3.091
 7806SOL    HW125257   2.026  14.312   3.123
 7806SOL    HW225258   2.030  14.160   3.122
 7807SOL     OW25259  14.791  13.543   7.832
 7807SOL    HW125260  14.749  13.617   7.878
 7807SOL    HW225261   0.010  13.566   7.830
 7808SOL     OW25262   0.804   5.835   5.218
 7808SOL    HW125263   0.778   5.747   5.245
 7808SOL    HW225264   0.735   5.863   5.158
 7809SOL     OW25265   3.993   8.839   3.419
 7809SOL    HW125266   4.070   8.852   3.363
 7809SOL    HW225267   3.921   8.826   3.358
 7810SOL     OW25268  11.292  14.545   7.940
 7810SOL    HW125269  11.273  14.604   7.867
 7810SOL    HW225270  11.355  14.483   7.904
 7811SOL     OW25271   5.757   1.622  11.611
 7811SOL    HW125272   5.812   1.572  11.550
 7811SOL    HW225273   5.682   1.650  11.558
 7812SOL     OW25274   5.564  11.304   2.461
 7812SOL    HW125275   5.483  11.334   2.503
 7812SOL    HW225276   5.617  11.271   2.534
 7813SOL     OW25277   8.884   5.206   7.240
 7813SOL    HW125278   8.950   5.193   7.308
 7813SOL    HW225279   8.912   5.285   7.194
 7814SOL     OW25280   9.036   7.149  10.557
 7814SOL    HW125281   9.007   7.196  10.635
 7814SOL    HW225282   9.053   7.060  10.589
 7815SOL     OW25283   0.332   1.662   0.218
 7815SOL    HW125284   0.297   1.577   0.245
 7815SOL    HW225285   0.324   1.718   0.295
 7816SOL     OW25286   8.104   0.990  14.250
 7816SOL    HW125287   8.075   0.924  14.312
 7816SOL    HW225288   8.193   0.965  14.227
 7817SOL     OW25289   2.695   5.786   1.920
 7817SOL    HW125290   2.641   5.824   1.990
 7817SOL    HW225291   2.721   5.701   1.953
 7818SOL     OW25292   0.502   2.915   1.556
 7818SOL    HW125293   0.453   2.868   1.488
 7818SOL    HW225294   0.580   2.861   1.570
 7819SOL     OW25295   3.033   1.393   6.511
 7819SOL    HW125296   2.992   1.412   6.427
 7819SOL    HW225297   3.122   1.425   6.502
 7820SOL     OW25298  13.232   9.894   4.013
 7820SOL    HW125299  13.227   9.943   4.095
 7820SOL    HW225300  13.320   9.855   4.013
 7821SOL     OW25301   8.080   6.636   0.868
 7821SOL    HW125302   8.115   6.573   0.805
 7821SOL    HW225303   8.158   6.666   0.916
 7822SOL     OW25304   6.663   8.155  11.809
 7822SOL    HW125305   6.710   8.115  11.736
 7822SOL    HW225306   6.668   8.091  11.879
 7823SOL     OW25307   5.599  14.023  12.829
 7823SOL    HW125308   5.622  13.931  12.845
 7823SOL    HW225309   5.633  14.070  12.904
 7824SOL     OW25310   0.416   7.361  12.207
 7824SOL    HW125311   0.382   7.271  12.199
 7824SOL    HW225312   0.383   7.405  12.129
 7825SOL     OW25313   3.266   7.258   0.379
 7825SOL    HW125314   3.341   7.278   0.435
 7825SOL    HW225315   3.254   7.163   0.388
 7826SOL     OW25316  11.785   6.249   8.279
 7826SOL    HW125317  11.727   6.246   8.203
 7826SOL    HW225318  11.770   6.336   8.316
 7827SOL     OW25319   3.132  14.245  11.675
 7827SOL    HW125320   3.101  14.305  11.607
 7827SOL    HW225321   3.087  14.163  11.657
 7828SOL     OW25322   0.885   8.234   7.990
 7828SOL    HW125323   0.931   8.182   8.056
 7828SOL    HW225324   0.954   8.261   7.929
 7829SOL     OW25325  11.441   8.784   4.036
 7829SOL    HW125326  11.361   8.765   3.986
 7829SOL    HW225327  11.427   8.872   4.072
 7830SOL     OW25328   5.488   4.879   9.378
 7830SOL    HW125329   5.435   4.958   9.387
 7830SOL    HW225330   5.454   4.820   9.445
 7831SOL     OW25331  13.003   2.647  10.670
 7831SOL    HW125332  13.088   2.643  10.626
 7831SOL    HW225333  12.975   2.556  10.675
 7832SOL     OW25334  14.746  13.419   7.094
 7832SOL    HW125335  14.761  13.467   7.175
 7832SOL    HW225336  14.653  13.433   7.076
 7833SOL     OW25337   0.227  11.267   0.605
 7833SOL    HW125338   0.301  11.208   0.617
 7833SOL    HW225339   0.164  11.217   0.553
 7834SOL     OW25340  11.924   4.425   2.104
 7834SOL    HW125341  11.954   4.506   2.144
 7834SOL    HW225342  11.861   4.389   2.165
 7835SOL     OW25343   3.077   2.703   3.426
 7835SOL    HW125344   3.081   2.607   3.423
 7835SOL    HW225345   3.140   2.731   3.360
 7836SOL     OW25346  14.355   4.007  12.249
 7836SOL    HW125347  14.272   3.967  12.276
 7836SOL    HW225348  14.369   4.078  12.313
 7837SOL     OW25349  13.818   3.102   0.669
 7837SOL    HW125350  13.780   3.132   0.751
 7837SOL    HW225351  13.895   3.157   0.657
 7838SOL     OW25352  12.940   1.476   4.475
 7838SOL    HW125353  12.960   1.556   4.523
 7838SOL    HW225354  13.024   1.446   4.440
 7839SOL     OW25355   9.101   1.895  11.668
 7839SOL    HW125356   9.144   1.821  11.625
 7839SOL    HW225357   9.117   1.969  11.609
 7840SOL     OW25358   5.711   3.038  12.500
 7840SOL    HW125359   5.678   3.047  12.411
 7840SOL    HW225360   5.806   3.046  12.492
 7841SOL     OW25361  11.565  13.616   0.039
 7841SOL    HW125362  11.557  13.622  14.818
 7841SOL    HW225363  11.635  13.678   0.062
 7842SOL     OW25364  11.557  13.250   2.560
 7842SOL    HW125365  11.594  13.162   2.560
 7842SOL    HW225366  11.516  13.258   2.647
 7843SOL     OW25367   0.178  10.803  12.803
 7843SOL    HW125368   0.151  10.743  12.734
 7843SOL    HW225369   0.265  10.832  12.777
 7844SOL     OW25370   6.012   5.663   2.200
 7844SOL    HW125371   5.968   5.726   2.258
 7844SOL    HW225372   5.941   5.622   2.150
 7845SOL     OW25373   3.864   1.593   0.936
 7845SOL    HW125374   3.891   1.679   0.904
 7845SOL    HW225375   3.805   1.560   0.868
 7846SOL     OW25376   0.399  10.722   8.434
 7846SOL    HW125377   0.485  10.722   8.391
 7846SOL    HW225378   0.358  10.640   8.407
 7847SOL     OW25379   4.161  14.001  12.477
 7847SOL    HW125380   4.241  14.008  12.529
 7847SOL    HW225381   4.103  14.068  12.512
 7848SOL     OW25382   1.215  14.382  13.956
 7848SOL    HW125383   1.160  14.449  13.917
 7848SOL    HW225384   1.297  14.387  13.907
 7849SOL     OW25385  12.315   6.472  14.268
 7849SOL    HW125386  12.358   6.528  14.333
 7849SOL    HW225387  12.384   6.447  14.207
 7850SOL     OW25388  11.782   6.550   6.480
 7850SOL    HW125389  11.726   6.513   6.411
 7850SOL    HW225390  11.826   6.624   6.438
 7851SOL     OW25391   6.881  11.965  13.528
 7851SOL    HW125392   6.790  11.995  13.524
 7851SOL    HW225393   6.932  12.038  13.492
 7852SOL     OW25394  12.692   6.392   7.312
 7852SOL    HW125395  12.619   6.415   7.370
 7852SOL    HW225396  12.716   6.474   7.271
 7853SOL     OW25397  11.235   0.963  11.599
 7853SOL    HW125398  11.236   0.910  11.520
 7853SOL    HW225399  11.178   1.037  11.579
 7854SOL     OW25400   0.583   7.136   9.277
 7854SOL    HW125401   0.503   7.116   9.325
 7854SOL    HW225402   0.634   7.191   9.336
 7855SOL     OW25403  13.320   0.281  10.543
 7855SOL    HW125404  13.285   0.268  10.631
 7855SOL    HW225405  13.249   0.256  10.485
 7856SOL     OW25406  11.937   3.516   1.327
 7856SOL    HW125407  11.967   3.585   1.386
 7856SOL    HW225408  11.946   3.435   1.377
 7857SOL     OW25409  10.880   4.147  11.707
 7857SOL    HW125410  10.844   4.236  11.713
 7857SOL    HW225411  10.822   4.094  11.762
 7858SOL     OW25412   5.877  11.407   4.662
 7858SOL    HW125413   5.893  11.467   4.735
 7858SOL    HW225414   5.928  11.329   4.683
 7859SOL     OW25415  14.683   7.731   2.831
 7859SOL    HW125416  14.670   7.819   2.866
 7859SOL    HW225417  14.735   7.744   2.752
 7860SOL     OW25418  13.783   5.343  14.020
 7860SOL    HW125419  13.752   5.289  13.947
 7860SOL    HW225420  13.724   5.419  14.020
 7861SOL     OW25421   8.777   2.386  13.281
 7861SOL    HW125422   8.752   2.467  13.238
 7861SOL    HW225423   8.841   2.412  13.347
 7862SOL     OW25424   6.177   9.964   1.330
 7862SOL    HW125425   6.222   9.885   1.297
 7862SOL    HW225426   6.093   9.931   1.362
 7863SOL     OW25427   6.051   3.331  12.774
 7863SOL    HW125428   6.043   3.315  12.868
 7863SOL    HW225429   5.961   3.330  12.742
 7864SOL     OW25430   7.708  14.471   0.814
 7864SOL    HW125431   7.701  14.566   0.824
 7864SOL    HW225432   7.726  14.457   0.721
 7865SOL     OW25433   1.922   2.069   0.547
 7865SOL    HW125434   1.990   2.134   0.562
 7865SOL    HW225435   1.840   2.115   0.563
 7866SOL     OW25436   5.901  10.305   9.800
 7866SOL    HW125437   5.849  10.226   9.811
 7866SOL    HW225438   5.840  10.368   9.761
 7867SOL     OW25439   8.699   4.615  13.229
 7867SOL    HW125440   8.613   4.645  13.203
 7867SOL    HW225441   8.708   4.642  13.320
 7868SOL     OW25442  13.982   2.968   6.759
 7868SOL    HW125443  14.000   2.966   6.853
 7868SOL    HW225444  13.888   2.950   6.752
 7869SOL     OW25445   3.643   5.572   8.297
 7869SOL    HW125446   3.724   5.623   8.292
 7869SOL    HW225447   3.668   5.493   8.344
 7870SOL     OW25448  11.328  11.625   7.805
 7870SOL    HW125449  11.248  11.625   7.858
 7870SOL    HW225450  11.300  11.651   7.718
 7871SOL     OW25451   3.509  11.208   9.369
 7871SOL    HW125452   3.449  11.133   9.366
 7871SOL    HW225453   3.595  11.170   9.351
 7872SOL     OW25454   3.645   1.427  12.983
 7872SOL    HW125455   3.654   1.472  13.067
 7872SOL    HW225456   3.705   1.473  12.924
 7873SOL     OW25457   3.743  12.617   5.980
 7873SOL    HW125458   3.664  12.642   6.029
 7873SOL    HW225459   3.785  12.700   5.957
 7874SOL     OW25460   7.505  14.404  10.626
 7874SOL    HW125461   7.468  14.377  10.542
 7874SOL    HW225462   7.585  14.353  10.635
 7875SOL     OW25463  13.176   5.018   5.344
 7875SOL    HW125464  13.138   4.931   5.363
 7875SOL    HW225465  13.209   5.048   5.429
 7876SOL     OW25466   4.100   8.549  12.220
 7876SOL    HW125467   4.034   8.481  12.232
 7876SOL    HW225468   4.089   8.607  12.295
 7877SOL     OW25469  13.432   5.957   4.008
 7877SOL    HW125470  13.422   5.937   3.915
 7877SOL    HW225471  13.526   5.968   4.021
 7878SOL     OW25472   6.383   0.390   3.182
 7878SOL    HW125473   6.355   0.315   3.130
 7878SOL    HW225474   6.364   0.466   3.127
 7879SOL     OW25475   0.587   1.126   8.647
 7879SOL    HW125476   0.495   1.148   8.634
 7879SOL    HW225477   0.617   1.189   8.713
 7880SOL     OW25478  14.238   0.388  14.432
 7880SOL    HW125479  14.218   0.476  14.401
 7880SOL    HW225480  14.327   0.371  14.402
 7881SOL     OW25481   9.628   6.826   7.629
 7881SOL    HW125482   9.620   6.884   7.552
 7881SOL    HW225483   9.676   6.878   7.693
 7882SOL     OW25484   6.139   7.677  10.021
 7882SOL    HW125485   6.044   7.685  10.014
 7882SOL    HW225486   6.174   7.749   9.969
 7883SOL     OW25487   7.079   0.228   3.969
 7883SOL    HW125488   7.103   0.136   3.983
 7883SOL    HW225489   6.984   0.228   3.963
 7884SOL     OW25490   7.586  13.891   5.121
 7884SOL    HW125491   7.578  13.985   5.105
 7884SOL    HW225492   7.497  13.857   5.114
 7885SOL     OW25493   0.242  13.913   1.402
 7885SOL    HW125494   0.177  13.969   1.443
 7885SOL    HW225495   0.277  13.965   1.329
 7886SOL     OW25496   9.580   4.673  12.683
 7886SOL    HW125497   9.552   4.678  12.774
 7886SOL    HW225498   9.520   4.612  12.642
 7887SOL     OW25499   0.664  14.121  12.181
 7887SOL    HW125500   0.652  14.032  12.216
 7887SOL    HW225501   0.579  14.163  12.191
 7888SOL     OW25502   9.574   9.537   1.869
 7888SOL    HW125503   9.521   9.477   1.818
 7888SOL    HW225504   9.515   9.608   1.892
 7889SOL     OW25505   8.641   5.726  14.016
 7889SOL    HW125506   8.646   5.650  14.073
 7889SOL    HW225507   8.687   5.699  13.936
 7890SOL     OW25508   5.098  14.024  11.204
 7890SOL    HW125509   5.100  14.075  11.123
 7890SOL    HW225510   5.016  14.050  11.246
 7891SOL     OW25511   0.975  14.763  13.215
 7891SOL    HW125512   1.022  14.742  13.296
 7891SOL    HW225513   1.043  14.760  13.147
 7892SOL     OW25514  10.362   7.872   3.669
 7892SOL    HW125515  10.381   7.904   3.581
 7892SOL    HW225516  10.428   7.804   3.685
 7893SOL     OW25517   8.812   5.158   1.376
 7893SOL    HW125518   8.761   5.163   1.296
 7893SOL    HW225519   8.759   5.104   1.435
 7894SOL     OW25520  12.523   8.594   3.776
 7894SOL    HW125521  12.593   8.657   3.759
 7894SOL    HW225522  12.443   8.647   3.772
 7895SOL     OW25523   3.456   4.449  10.980
 7895SOL    HW125524   3.430   4.482  10.894
 7895SOL    HW225525   3.504   4.368  10.961
 7896SOL     OW25526  10.059   0.612   3.039
 7896SOL    HW125527  10.086   0.676   2.973
 7896SOL    HW225528   9.966   0.598   3.023
 7897SOL     OW25529   9.112   7.750   0.478
 7897SOL    HW125530   9.020   7.777   0.476
 7897SOL    HW225531   9.161   7.833   0.483
 7898SOL     OW25532  13.081   1.554  13.141
 7898SOL    HW125533  13.109   1.640  13.109
 7898SOL    HW225534  13.046   1.570  13.228
 7899SOL     OW25535  10.457   2.581   9.646
 7899SOL    HW125536  10.414   2.555   9.565
 7899SOL    HW225537  10.549   2.562   9.632
 7900SOL     OW25538   0.567   9.016   3.704
 7900SOL    HW125539   0.623   9.060   3.767
 7900SOL    HW225540   0.484   9.062   3.709
 7901SOL     OW25541  12.490   4.602  13.387
 7901SOL    HW125542  12.582   4.581  13.405
 7901SOL    HW225543  12.483   4.696  13.405
 7902SOL     OW25544   3.065   7.216   4.097
 7902SOL    HW125545   3.071   7.305   4.061
 7902SOL    HW225546   3.064   7.160   4.020
 7903SOL     OW25547   9.222   1.364   4.644
 7903SOL    HW125548   9.247   1.274   4.665
 7903SOL    HW225549   9.200   1.402   4.729
 7904SOL     OW25550   7.189  11.338  14.841
 7904SOL    HW125551   7.267  11.313  14.790
 7904SOL    HW225552   7.118  11.338  14.778
 7905SOL     OW25553   4.994   2.117  12.975
 7905SOL    HW125554   5.058   2.156  12.916
 7905SOL    HW225555   4.928   2.078  12.916
 7906SOL     OW25556   0.359   6.858  10.426
 7906SOL    HW125557   0.336   6.844  10.334
 7906SOL    HW225558   0.432   6.920  10.423
 7907SOL     OW25559   2.476   0.093   0.055
 7907SOL    HW125560   2.482   0.172   0.001
 7907SOL    HW225561   2.543   0.034   0.019
 7908SOL     OW25562  11.265   6.339   9.617
 7908SOL    HW125563  11.355   6.308   9.607
 7908SOL    HW225564  11.270   6.433   9.604
 7909SOL     OW25565   5.788   3.280  12.687
 7909SOL    HW125566   5.761   3.208  12.630
 7909SOL    HW225567   5.712   3.295  12.744
 7910SOL     OW25568  11.868   6.257  10.985
 7910SOL    HW125569  11.779   6.227  11.006
 7910SOL    HW225570  11.926   6.195  11.028
 7911SOL     OW25571   9.278  12.791   7.898
 7911SOL    HW125572   9.309  12.713   7.944
 7911SOL    HW225573   9.346  12.857   7.914
 7912SOL     OW25574   7.763   5.565   2.784
 7912SOL    HW125575   7.802   5.546   2.699
 7912SOL    HW225576   7.821   5.629   2.825
 7913SOL     OW25577   2.198   9.421   7.271
 7913SOL    HW125578   2.247   9.372   7.337
 7913SOL    HW225579   2.108   9.424   7.304
 7914SOL     OW25580  12.179  14.417   1.095
 7914SOL    HW125581  12.129  14.389   1.018
 7914SOL    HW225582  12.137  14.371   1.168
 7915SOL     OW25583   9.617   2.530   2.512
 7915SOL    HW125584   9.626   2.502   2.603
 7915SOL    HW225585   9.705   2.524   2.475
 7916SOL     OW25586  10.113   9.082   0.162
 7916SOL    HW125587  10.162   9.149   0.210
 7916SOL    HW225588  10.105   9.009   0.224
 7917SOL     OW25589   4.392   2.297   6.768
 7917SOL    HW125590   4.417   2.387   6.791
 7917SOL    HW225591   4.341   2.307   6.688
 7918SOL     OW25592   0.683   0.671  14.798
 7918SOL    HW125593   0.742   0.679  14.723
 7918SOL    HW225594   0.742   0.662  14.873
 7919SOL     OW25595   2.708  11.027   0.265
 7919SOL    HW125596   2.792  11.053   0.228
 7919SOL    HW225597   2.730  10.977   0.343
 7920SOL     OW25598   3.921  10.409   5.298
 7920SOL    HW125599   3.955  10.435   5.213
 7920SOL    HW225600   3.991  10.356   5.336
 7921SOL     OW25601  12.761   9.248   2.430
 7921SOL    HW125602  12.780   9.341   2.423
 7921SOL    HW225603  12.728   9.236   2.519
 7922SOL     OW25604  10.110  13.204  12.822
 7922SOL    HW125605  10.052  13.128  12.818
 7922SOL    HW225606  10.191  13.174  12.782
 7923SOL     OW25607  14.860  12.702   9.778
 7923SOL    HW125608   0.081  12.701   9.767
 7923SOL    HW225609  14.840  12.625   9.831
 7924SOL     OW25610  10.661   5.778   1.285
 7924SOL    HW125611  10.674   5.705   1.225
 7924SOL    HW225612  10.749   5.809   1.306
 7925SOL     OW25613   1.703   5.803   2.466
 7925SOL    HW125614   1.756   5.723   2.470
 7925SOL    HW225615   1.614   5.772   2.449
 7926SOL     OW25616   2.566   5.010   0.216
 7926SOL    HW125617   2.479   4.976   0.235
 7926SOL    HW225618   2.576   4.999   0.121
 7927SOL     OW25619  13.219   5.628  14.481
 7927SOL    HW125620  13.133   5.649  14.518
 7927SOL    HW225621  13.214   5.536  14.457
 7928SOL     OW25622  12.101   3.405   7.855
 7928SOL    HW125623  12.081   3.345   7.927
 7928SOL    HW225624  12.055   3.486   7.878
 7929SOL     OW25625   0.997   9.036   4.627
 7929SOL    HW125626   0.969   9.083   4.548
 7929SOL    HW225627   1.043   9.103   4.678
 7930SOL     OW25628   8.835   2.521  10.851
 7930SOL    HW125629   8.814   2.538  10.759
 7930SOL    HW225630   8.753   2.540  10.898
 7931SOL     OW25631   5.292   5.109  12.069
 7931SOL    HW125632   5.313   5.037  12.010
 7931SOL    HW225633   5.359   5.175  12.050
 7932SOL     OW25634  14.702   5.598   8.862
 7932SOL    HW125635  14.621   5.576   8.908
 7932SOL    HW225636  14.699   5.693   8.852
 7933SOL     OW25637  12.118  10.557   8.982
 7933SOL    HW125638  12.027  10.561   9.012
 7933SOL    HW225639  12.165  10.616   9.041
 7934SOL     OW25640  14.467  12.127  10.363
 7934SOL    HW125641  14.456  12.067  10.289
 7934SOL    HW225642  14.415  12.203  10.339
 7935SOL     OW25643  13.130   3.013   3.739
 7935SOL    HW125644  13.223   3.031   3.726
 7935SOL    HW225645  13.085   3.073   3.680
 7936SOL     OW25646   1.246  13.547   2.797
 7936SOL    HW125647   1.303  13.604   2.848
 7936SOL    HW225648   1.166  13.598   2.783
 7937SOL     OW25649   9.647   1.664   8.652
 7937SOL    HW125650   9.734   1.702   8.637
 7937SOL    HW225651   9.627   1.687   8.742
 7938SOL     OW25652   3.007  10.769  12.277
 7938SOL    HW125653   3.068  10.808  12.215
 7938SOL    HW225654   3.033  10.805  12.362
 7939SOL     OW25655  11.683   2.433  13.639
 7939SOL    HW125656  11.670   2.524  13.664
 7939SOL    HW225657  11.778   2.425  13.626
 7940SOL     OW25658   5.568  10.000   3.415
 7940SOL    HW125659   5.612   9.984   3.498
 7940SOL    HW225660   5.531   9.916   3.390
 7941SOL     OW25661   9.560   8.467   0.761
 7941SOL    HW125662   9.581   8.540   0.702
 7941SOL    HW225663   9.524   8.400   0.703
 7942SOL     OW25664   0.054   2.193  14.845
 7942SOL    HW125665   0.030   2.107   0.005
 7942SOL    HW225666   0.032   2.190  14.752
 7943SOL     OW25667  10.425  11.892   9.995
 7943SOL    HW125668  10.455  11.955   9.930
 7943SOL    HW225669  10.336  11.919  10.015
 7944SOL     OW25670   9.672   6.365  14.268
 7944SOL    HW125671   9.638   6.298  14.208
 7944SOL    HW225672   9.676   6.321  14.353
 7945SOL     OW25673   2.437  13.467  13.492
 7945SOL    HW125674   2.499  13.484  13.563
 7945SOL    HW225675   2.396  13.552  13.476
 7946SOL     OW25676   7.630   0.683   1.834
 7946SOL    HW125677   7.587   0.616   1.887
 7946SOL    HW225678   7.581   0.683   1.752
 7947SOL     OW25679   1.356   3.058   6.895
 7947SOL    HW125680   1.342   2.967   6.872
 7947SOL    HW225681   1.362   3.059   6.990
 7948SOL     OW25682  10.733  14.810   2.408
 7948SOL    HW125683  10.681  14.869   2.354
 7948SOL    HW225684  10.676  14.787   2.482
 7949SOL     OW25685   7.573  14.573   8.693
 7949SOL    HW125686   7.593  14.658   8.655
 7949SOL    HW225687   7.657  14.528   8.698
 7950SOL     OW25688   6.010   0.347   7.188
 7950SOL    HW125689   5.996   0.366   7.281
 7950SOL    HW225690   6.040   0.256   7.186
 7951SOL     OW25691   2.087  13.562   7.879
 7951SOL    HW125692   2.047  13.514   7.952
 7951SOL    HW225693   2.035  13.537   7.803
 7952SOL     OW25694   1.660   0.557   9.309
 7952SOL    HW125695   1.588   0.494   9.310
 7952SOL    HW225696   1.619   0.640   9.334
 7953SOL     OW25697   1.640   0.674   5.644
 7953SOL    HW125698   1.712   0.655   5.704
 7953SOL    HW225699   1.684   0.700   5.562
 7954SOL     OW25700  12.110   8.698   4.565
 7954SOL    HW125701  12.144   8.779   4.528
 7954SOL    HW225702  12.015   8.711   4.570
 7955SOL     OW25703  10.791   6.422   5.550
 7955SOL    HW125704  10.764   6.498   5.500
 7955SOL    HW225705  10.842   6.458   5.623
 7956SOL     OW25706   7.495   0.537  11.051
 7956SOL    HW125707   7.566   0.534  11.116
 7956SOL    HW225708   7.530   0.591  10.980
 7957SOL     OW25709   9.480  12.535   2.931
 7957SOL    HW125710   9.407  12.565   2.877
 7957SOL    HW225711   9.490  12.603   2.997
 7958SOL     OW25712   9.266  10.393  12.207
 7958SOL    HW125713   9.327  10.435  12.267
 7958SOL    HW225714   9.181  10.402  12.250
 7959SOL     OW25715  12.093   6.190  14.492
 7959SOL    HW125716  12.021   6.220  14.436
 7959SOL    HW225717  12.051   6.163  14.573
 7960SOL     OW25718   9.010   7.508   5.419
 7960SOL    HW125719   9.021   7.579   5.483
 7960SOL    HW225720   9.039   7.546   5.336
 7961SOL     OW25721   7.861   0.657   2.209
 7961SOL    HW125722   7.939   0.710   2.225
 7961SOL    HW225723   7.791   0.704   2.256
 7962SOL     OW25724   6.707   9.574   5.115
 7962SOL    HW125725   6.626   9.622   5.097
 7962SOL    HW225726   6.682   9.510   5.182
 7963SOL     OW25727  10.309   6.455   9.598
 7963SOL    HW125728  10.301   6.440   9.692
 7963SOL    HW225729  10.319   6.550   9.589
 7964SOL     OW25730   4.466   7.394   9.818
 7964SOL    HW125731   4.395   7.447   9.856
 7964SOL    HW225732   4.505   7.451   9.752
 7965SOL     OW25733   8.962  11.601   1.813
 7965SOL    HW125734   8.981  11.549   1.891
 7965SOL    HW225735   9.027  11.671   1.813
 7966SOL     OW25736   8.943   1.634  12.198
 7966SOL    HW125737   8.913   1.545  12.215
 7966SOL    HW225738   9.032   1.623  12.163
 7967SOL     OW25739   7.624   5.385  12.037
 7967SOL    HW125740   7.586   5.355  11.954
 7967SOL    HW225741   7.549   5.418  12.087
 7968SOL     OW25742   4.557  13.459   2.865
 7968SOL    HW125743   4.495  13.482   2.796
 7968SOL    HW225744   4.514  13.388   2.914
 7969SOL     OW25745  13.354  11.046   5.107
 7969SOL    HW125746  13.438  11.048   5.061
 7969SOL    HW225747  13.290  11.020   5.041
 7970SOL     OW25748   2.441  13.813   7.605
 7970SOL    HW125749   2.417  13.827   7.697
 7970SOL    HW225750   2.527  13.854   7.596
 7971SOL     OW25751  11.470   3.292  12.084
 7971SOL    HW125752  11.528   3.358  12.122
 7971SOL    HW225753  11.448   3.326  11.997
 7972SOL     OW25754   7.043  14.286   2.132
 7972SOL    HW125755   7.041  14.382   2.133
 7972SOL    HW225756   7.107  14.265   2.064
 7973SOL     OW25757   0.364   5.476   1.870
 7973SOL    HW125758   0.368   5.571   1.880
 7973SOL    HW225759   0.374   5.442   1.959
 7974SOL     OW25760  13.933  14.156   1.028
 7974SOL    HW125761  13.934  14.247   1.055
 7974SOL    HW225762  13.922  14.106   1.109
 7975SOL     OW25763  12.705   9.829  13.897
 7975SOL    HW125764  12.743   9.915  13.916
 7975SOL    HW225765  12.734   9.774  13.969
 7976SOL     OW25766   2.989   5.353   5.885
 7976SOL    HW125767   2.976   5.420   5.952
 7976SOL    HW225768   2.920   5.369   5.821
 7977SOL     OW25769  11.518   6.913   9.024
 7977SOL    HW125770  11.468   6.978   8.974
 7977SOL    HW225771  11.476   6.830   9.004
 7978SOL     OW25772  12.202   3.708  13.803
 7978SOL    HW125773  12.243   3.704  13.717
 7978SOL    HW225774  12.113   3.739  13.786
 7979SOL     OW25775   7.127   7.429  12.431
 7979SOL    HW125776   7.089   7.385  12.356
 7979SOL    HW225777   7.194   7.486  12.394
 7980SOL     OW25778  10.488   1.807   5.269
 7980SOL    HW125779  10.506   1.898   5.292
 7980SOL    HW225780  10.439   1.813   5.187
 7981SOL     OW25781  10.206  10.924   2.078
 7981SOL    HW125782  10.137  10.991   2.078
 7981SOL    HW225783  10.286  10.972   2.061
 7982SOL     OW25784  12.979   5.236  14.033
 7982SOL    HW125785  13.059   5.192  14.059
 7982SOL    HW225786  13.006   5.326  14.012
 7983SOL     OW25787   6.571  12.291   6.452
 7983SOL    HW125788   6.637  12.329   6.510
 7983SOL    HW225789   6.488  12.327   6.484
 7984SOL     OW25790  13.114  10.548   5.927
 7984SOL    HW125791  13.199  10.555   5.883
 7984SOL    HW225792  13.050  10.560   5.857
 7985SOL     OW25793   2.724  13.342   0.465
 7985SOL    HW125794   2.783  13.334   0.391
 7985SOL    HW225795   2.654  13.399   0.433
 7986SOL     OW25796   4.374  10.148   0.915
 7986SOL    HW125797   4.464  10.149   0.949
 7986SOL    HW225798   4.384  10.170   0.823
 7987SOL     OW25799   0.965   3.189  10.045
 7987SOL    HW125800   0.935   3.278  10.033
 7987SOL    HW225801   1.017   3.170   9.967
 7988SOL     OW25802  12.809  11.528  11.396
 7988SOL    HW125803  12.878  11.474  11.358
 7988SOL    HW225804  12.734  11.516  11.337
 7989SOL     OW25805   9.497   5.331   2.950
 7989SOL    HW125806   9.550   5.360   3.024
 7989SOL    HW225807   9.408   5.360   2.971
 7990SOL     OW25808   5.818   3.607   8.158
 7990SOL    HW125809   5.850   3.697   8.170
 7990SOL    HW225810   5.857   3.579   8.075
 7991SOL     OW25811   3.332  14.796   8.365
 7991SOL    HW125812   3.427  14.799   8.375
 7991SOL    HW225813   3.311  14.703   8.361
 7992SOL     OW25814   6.921   5.187   3.757
 7992SOL    HW125815   6.880   5.232   3.683
 7992SOL    HW225816   7.013   5.177   3.732
 7993SOL     OW25817   8.351   6.461   8.733
 7993SOL    HW125818   8.365   6.370   8.707
 7993SOL    HW225819   8.423   6.509   8.690
 7994SOL     OW25820  11.610  12.966  11.514
 7994SOL    HW125821  11.679  12.900  11.504
 7994SOL    HW225822  11.542  12.922  11.565
 7995SOL     OW25823   0.035  10.831  11.631
 7995SOL    HW125824  14.824  10.838  11.588
 7995SOL    HW225825   0.041  10.739  11.658
 7996SOL     OW25826  14.173  11.765   3.478
 7996SOL    HW125827  14.134  11.847   3.449
 7996SOL    HW225828  14.160  11.704   3.405
 7997SOL     OW25829   0.872   7.829   7.700
 7997SOL    HW125830   0.941   7.885   7.666
 7997SOL    HW225831   0.851   7.865   7.786
 7998SOL     OW25832   0.621  12.347   8.420
 7998SOL    HW125833   0.589  12.259   8.436
 7998SOL    HW225834   0.543  12.398   8.400
 7999SOL     OW25835   3.749  11.972   7.296
 7999SOL    HW125836   3.679  11.993   7.357
 7999SOL    HW225837   3.801  11.905   7.341
 8000SOL     OW25838   5.231  12.050  10.491
 8000SOL    HW125839   5.194  12.034  10.578
 8000SOL    HW225840   5.222  11.966  10.445
 8001SOL     OW25841   3.922   3.559   7.494
 8001SOL    HW125842   4.005   3.563   7.541
 8001SOL    HW225843   3.946   3.565   7.401
 8002SOL     OW25844   9.264   9.284   2.268
 8002SOL    HW125845   9.173   9.278   2.238
 8002SOL    HW225846   9.268   9.367   2.316
 8003SOL     OW25847  10.812  13.451   2.614
 8003SOL    HW125848  10.764  13.504   2.677
 8003SOL    HW225849  10.792  13.360   2.637
 8004SOL     OW25850   7.310   3.020   3.524
 8004SOL    HW125851   7.279   2.974   3.602
 8004SOL    HW225852   7.299   2.957   3.453
 8005SOL     OW25853   7.561  11.749  12.134
 8005SOL    HW125854   7.477  11.705  12.124
 8005SOL    HW225855   7.618  11.683  12.174
 8006SOL     OW25856  14.130  10.318  12.275
 8006SOL    HW125857  14.056  10.289  12.222
 8006SOL    HW225858  14.094  10.330  12.363
 8007SOL     OW25859   8.179   7.037   2.531
 8007SOL    HW125860   8.099   7.090   2.533
 8007SOL    HW225861   8.250   7.101   2.527
 8008SOL     OW25862  14.836   5.861  13.014
 8008SOL    HW125863  14.761   5.802  13.014
 8008SOL    HW225864   0.021   5.826  12.949
 8009SOL     OW25865   4.933   9.266   5.878
 8009SOL    HW125866   4.982   9.244   5.799
 8009SOL    HW225867   4.912   9.181   5.917
 8010SOL     OW25868   4.430  13.642   7.207
 8010SOL    HW125869   4.419  13.561   7.258
 8010SOL    HW225870   4.494  13.619   7.139
 8011SOL     OW25871   2.801  14.004   8.999
 8011SOL    HW125872   2.711  14.008   9.031
 8011SOL    HW225873   2.823  13.911   9.003
 8012SOL     OW25874   3.005   8.585   2.682
 8012SOL    HW125875   3.069   8.654   2.663
 8012SOL    HW225876   3.034   8.510   2.630
 8013SOL     OW25877   8.367   3.556  12.501
 8013SOL    HW125878   8.326   3.611  12.434
 8013SOL    HW225879   8.358   3.467  12.467
 8014SOL     OW25880   1.134  10.852   1.524
 8014SOL    HW125881   1.043  10.849   1.553
 8014SOL    HW225882   1.140  10.784   1.456
 8015SOL     OW25883   8.754   6.777   5.870
 8015SOL    HW125884   8.788   6.751   5.785
 8015SOL    HW225885   8.737   6.870   5.862
 8016SOL     OW25886  11.121  13.256   0.963
 8016SOL    HW125887  11.211  13.278   0.941
 8016SOL    HW225888  11.128  13.170   1.006
 8017SOL     OW25889   0.296  11.454   1.532
 8017SOL    HW125890   0.387  11.468   1.558
 8017SOL    HW225891   0.253  11.421   1.611
 8018SOL     OW25892   8.226   9.753   5.709
 8018SOL    HW125893   8.284   9.684   5.739
 8018SOL    HW225894   8.236   9.754   5.614
 8019SOL     OW25895   6.595  12.317   5.506
 8019SOL    HW125896   6.607  12.315   5.601
 8019SOL    HW225897   6.507  12.351   5.493
 8020SOL     OW25898  11.564   6.737   8.706
 8020SOL    HW125899  11.632   6.779   8.759
 8020SOL    HW225900  11.488   6.794   8.714
 8021SOL     OW25901   0.558  13.518  12.771
 8021SOL    HW125902   0.582  13.522  12.864
 8021SOL    HW225903   0.587  13.601  12.735
 8022SOL     OW25904   8.779   9.269  10.762
 8022SOL    HW125905   8.685   9.276  10.779
 8022SOL    HW225906   8.803   9.354  10.726
 8023SOL     OW25907  12.619   1.034   3.144
 8023SOL    HW125908  12.712   1.044   3.162
 8023SOL    HW225909  12.610   1.052   3.050
 8024SOL     OW25910   3.294   5.075   7.209
 8024SOL    HW125911   3.389   5.084   7.207
 8024SOL    HW225912   3.271   5.037   7.125
 8025SOL     OW25913   9.266   3.031   3.474
 8025SOL    HW125914   9.217   3.023   3.392
 8025SOL    HW225915   9.350   2.987   3.457
 8026SOL     OW25916  12.596  12.193  12.980
 8026SOL    HW125917  12.587  12.256  12.909
 8026SOL    HW225918  12.598  12.246  13.060
 8027SOL     OW25919   6.183  10.758   1.240
 8027SOL    HW125920   6.208  10.778   1.149
 8027SOL    HW225921   6.091  10.783   1.246
 8028SOL     OW25922   5.621  10.794   7.711
 8028SOL    HW125923   5.666  10.796   7.796
 8028SOL    HW225924   5.610  10.701   7.692
 8029SOL     OW25925   9.794   8.524  10.126
 8029SOL    HW125926   9.878   8.568  10.132
 8029SOL    HW225927   9.813   8.431  10.139
 8030SOL     OW25928   6.824  11.778  14.802
 8030SOL    HW125929   6.892  11.730  14.849
 8030SOL    HW225930   6.745  11.766  14.854
 8031SOL     OW25931  11.931   0.540   2.965
 8031SOL    HW125932  11.886   0.478   2.908
 8031SOL    HW225933  12.003   0.489   3.003
 8032SOL     OW25934  10.498   9.129  12.977
 8032SOL    HW125935  10.427   9.153  12.917
 8032SOL    HW225936  10.572   9.181  12.947
 8033SOL     OW25937   9.245   8.489   7.494
 8033SOL    HW125938   9.156   8.510   7.522
 8033SOL    HW225939   9.301   8.527   7.561
 8034SOL     OW25940   4.106  12.473   6.971
 8034SOL    HW125941   4.046  12.543   6.999
 8034SOL    HW225942   4.093  12.468   6.876
 8035SOL     OW25943   4.110   1.025  12.107
 8035SOL    HW125944   4.149   1.072  12.034
 8035SOL    HW225945   4.016   1.041  12.098
 8036SOL     OW25946   4.229  11.431  12.155
 8036SOL    HW125947   4.152  11.483  12.135
 8036SOL    HW225948   4.277  11.483  12.219
 8037SOL     OW25949   4.978   8.620   3.612
 8037SOL    HW125950   5.046   8.651   3.671
 8037SOL    HW225951   5.005   8.649   3.525
 8038SOL     OW25952   7.076   5.677   2.353
 8038SOL    HW125953   7.012   5.743   2.326
 8038SOL    HW225954   7.133   5.722   2.415
 8039SOL     OW25955  13.099   5.717   0.137
 8039SOL    HW125956  13.056   5.634   0.117
 8039SOL    HW225957  13.153   5.735   0.060
 8040SOL     OW25958   4.874   1.560   8.831
 8040SOL    HW125959   4.831   1.608   8.902
 8040SOL    HW225960   4.824   1.478   8.825
 8041SOL     OW25961  14.129   4.787   0.958
 8041SOL    HW125962  14.176   4.776   0.875
 8041SOL    HW225963  14.162   4.870   0.993
 8042SOL     OW25964  11.108   6.875   8.329
 8042SOL    HW125965  11.070   6.903   8.246
 8042SOL    HW225966  11.140   6.786   8.312
 8043SOL     OW25967   6.779  12.414   4.337
 8043SOL    HW125968   6.811  12.353   4.404
 8043SOL    HW225969   6.686  12.422   4.354
 8044SOL     OW25970  12.334   7.228   8.405
 8044SOL    HW125971  12.331   7.243   8.311
 8044SOL    HW225972  12.327   7.133   8.414
 8045SOL     OW25973  14.041   0.620   3.655
 8045SOL    HW125974  13.967   0.654   3.705
 8045SOL    HW225975  14.117   0.641   3.709
 8046SOL     OW25976  14.698  13.456   8.863
 8046SOL    HW125977  14.615  13.407   8.863
 8046SOL    HW225978  14.721  13.462   8.770
 8047SOL     OW25979   4.368   9.826   1.389
 8047SOL    HW125980   4.296   9.880   1.359
 8047SOL    HW225981   4.363   9.746   1.336
 8048SOL     OW25982   4.362   4.906   6.048
 8048SOL    HW125983   4.416   4.838   6.087
 8048SOL    HW225984   4.395   4.988   6.086
 8049SOL     OW25985   8.030   0.872   7.160
 8049SOL    HW125986   7.996   0.911   7.079
 8049SOL    HW225987   8.033   0.778   7.141
 8050SOL     OW25988   5.627   4.885   0.338
 8050SOL    HW125989   5.558   4.915   0.279
 8050SOL    HW225990   5.584   4.876   0.423
 8051SOL     OW25991  13.805  12.770  11.938
 8051SOL    HW125992  13.865  12.737  11.872
 8051SOL    HW225993  13.790  12.696  11.997
 8052SOL     OW25994   1.866  14.468   3.807
 8052SOL    HW125995   1.812  14.447   3.731
 8052SOL    HW225996   1.825  14.421   3.879
 8053SOL     OW25997  12.446   1.306   4.815
 8053SOL    HW125998  12.478   1.309   4.905
 8053SOL    HW225999  12.497   1.236   4.774
 8054SOL     OW26000  10.594   0.657   4.021
 8054SOL    HW126001  10.619   0.615   4.103
 8054SOL    HW226002  10.656   0.622   3.957
 8055SOL     OW26003   6.041   6.463   5.286
 8055SOL    HW126004   5.975   6.467   5.354
 8055SOL    HW226005   6.124   6.472   5.333
 8056SOL     OW26006   7.819   9.072   5.904
 8056SOL    HW126007   7.825   8.980   5.881
 8056SOL    HW226008   7.831   9.073   5.999
 8057SOL     OW26009  10.053   6.996   6.619
 8057SOL    HW126010  10.012   6.951   6.545
 8057SOL    HW226011  10.126   7.045   6.581
 8058SOL     OW26012   3.820   5.583  13.983
 8058SOL    HW126013   3.800   5.595  13.890
 8058SOL    HW226014   3.755   5.636  14.028
 8059SOL     OW26015  11.482   3.500  12.766
 8059SOL    HW126016  11.563   3.544  12.791
 8059SOL    HW226017  11.415   3.543  12.819
 8060SOL     OW26018   0.355  11.466  14.262
 8060SOL    HW126019   0.395  11.380  14.249
 8060SOL    HW226020   0.307  11.484  14.181
 8061SOL     OW26021  13.078   3.974   4.402
 8061SOL    HW126022  13.030   4.006   4.478
 8061SOL    HW226023  13.170   3.975   4.429
 8062SOL     OW26024   3.450   6.950   4.674
 8062SOL    HW126025   3.428   6.888   4.744
 8062SOL    HW226026   3.474   6.895   4.600
 8063SOL     OW26027  13.447   6.160   3.708
 8063SOL    HW126028  13.396   6.240   3.721
 8063SOL    HW226029  13.537   6.185   3.731
 8064SOL     OW26030  13.348   0.143   9.141
 8064SOL    HW126031  13.334   0.060   9.096
 8064SOL    HW226032  13.435   0.136   9.179
 8065SOL     OW26033   2.539   7.161   1.265
 8065SOL    HW126034   2.535   7.079   1.315
 8065SOL    HW226035   2.448   7.190   1.261
 8066SOL     OW26036   3.402   0.243   3.915
 8066SOL    HW126037   3.398   0.181   3.842
 8066SOL    HW226038   3.311   0.266   3.933
 8067SOL     OW26039   0.622   0.828  11.489
 8067SOL    HW126040   0.650   0.773  11.563
 8067SOL    HW226041   0.602   0.766  11.419
 8068SOL     OW26042   1.149   5.547   9.020
 8068SOL    HW126043   1.146   5.595   9.103
 8068SOL    HW226044   1.242   5.531   9.005
 8069SOL     OW26045   4.488  12.970  10.386
 8069SOL    HW126046   4.509  12.914  10.311
 8069SOL    HW226047   4.520  13.057  10.360
 8070SOL     OW26048  13.607  13.261   0.274
 8070SOL    HW126049  13.558  13.215   0.342
 8070SOL    HW226050  13.554  13.252   0.195
 8071SOL     OW26051   6.381   9.983  12.279
 8071SOL    HW126052   6.326   9.911  12.310
 8071SOL    HW226053   6.348  10.002  12.191
 8072SOL     OW26054   2.809   6.199   8.271
 8072SOL    HW126055   2.735   6.257   8.293
 8072SOL    HW226056   2.861   6.250   8.208
 8073SOL     OW26057   7.305   8.656   0.199
 8073SOL    HW126058   7.290   8.594   0.271
 8073SOL    HW226059   7.364   8.609   0.140
 8074SOL     OW26060  12.847  12.902  13.783
 8074SOL    HW126061  12.826  12.972  13.844
 8074SOL    HW226062  12.779  12.907  13.716
 8075SOL     OW26063  12.845   6.103   0.335
 8075SOL    HW126064  12.776   6.038   0.317
 8075SOL    HW226065  12.841   6.115   0.430
 8076SOL     OW26066  12.125   6.888   6.995
 8076SOL    HW126067  12.092   6.925   6.913
 8076SOL    HW226068  12.210   6.930   7.007
 8077SOL     OW26069   6.414   3.324   1.718
 8077SOL    HW126070   6.325   3.335   1.750
 8077SOL    HW226071   6.469   3.362   1.786
 8078SOL     OW26072  10.298   7.899   6.787
 8078SOL    HW126073  10.248   7.847   6.724
 8078SOL    HW226074  10.246   7.895   6.868
 8079SOL     OW26075   2.792  12.370  13.447
 8079SOL    HW126076   2.718  12.427  13.468
 8079SOL    HW226077   2.836  12.357  13.531
 8080SOL     OW26078  11.448  13.772   4.282
 8080SOL    HW126079  11.398  13.852   4.264
 8080SOL    HW226080  11.396  13.702   4.244
 8081SOL     OW26081   9.272   6.400   5.712
 8081SOL    HW126082   9.219   6.457   5.657
 8081SOL    HW226083   9.355   6.446   5.721
 8082SOL     OW26084  13.887   9.906  11.471
 8082SOL    HW126085  13.878   9.868  11.559
 8082SOL    HW226086  13.957   9.970  11.480
 8083SOL     OW26087   0.049   9.496   2.208
 8083SOL    HW126088   0.059   9.448   2.290
 8083SOL    HW226089   0.019   9.583   2.234
 8084SOL     OW26090  13.707   4.998  10.761
 8084SOL    HW126091  13.720   5.092  10.749
 8084SOL    HW226092  13.627   4.992  10.813
 8085SOL     OW26093  10.362  11.070   5.911
 8085SOL    HW126094  10.299  11.035   5.848
 8085SOL    HW226095  10.423  11.122   5.858
 8086SOL     OW26096   9.369   5.571  13.838
 8086SOL    HW126097   9.402   5.653  13.800
 8086SOL    HW226098   9.297   5.599  13.894
 8087SOL     OW26099  11.224   9.432  12.497
 8087SOL    HW126100  11.149   9.492  12.491
 8087SOL    HW226101  11.286   9.476  12.556
 8088SOL     OW26102   2.908   2.500  12.606
 8088SOL    HW126103   2.978   2.444  12.638
 8088SOL    HW226104   2.878   2.458  12.525
 8089SOL     OW26105   6.969   7.000  11.928
 8089SOL    HW126106   6.931   6.913  11.922
 8089SOL    HW226107   6.998   7.019  11.839
 8090SOL     OW26108  11.944   8.383   4.963
 8090SOL    HW126109  11.987   8.408   4.881
 8090SOL    HW226110  11.859   8.350   4.937
 8091SOL     OW26111   6.072   9.738   5.688
 8091SOL    HW126112   6.058   9.812   5.629
 8091SOL    HW226113   6.163   9.746   5.716
 8092SOL     OW26114  11.934   7.756   5.792
 8092SOL    HW126115  11.967   7.667   5.783
 8092SOL    HW226116  11.840   7.749   5.772
 8093SOL     OW26117   1.242   0.719  13.324
 8093SOL    HW126118   1.147   0.710  13.316
 8093SOL    HW226119   1.255   0.793  13.384
 8094SOL     OW26120   8.326  10.653  10.252
 8094SOL    HW126121   8.269  10.576  10.251
 8094SOL    HW226122   8.303  10.700  10.172
 8095SOL     OW26123   9.894   1.113   9.998
 8095SOL    HW126124   9.877   1.098   9.905
 8095SOL    HW226125   9.813   1.085  10.041
 8096SOL     OW26126   1.327  13.451  14.825
 8096SOL    HW126127   1.289  13.444  14.738
 8096SOL    HW226128   1.327  13.362  14.859
 8097SOL     OW26129   5.866  13.005   7.912
 8097SOL    HW126130   5.821  12.929   7.947
 8097SOL    HW226131   5.933  13.026   7.978
 8098SOL     OW26132   4.516   6.967   7.129
 8098SOL    HW126133   4.533   6.969   7.035
 8098SOL    HW226134   4.532   7.057   7.158
 8099SOL     OW26135   9.048   6.613   7.628
 8099SOL    HW126136   9.106   6.610   7.704
 8099SOL    HW226137   9.007   6.699   7.632
 8100SOL     OW26138   9.878  11.454   4.309
 8100SOL    HW126139   9.897  11.361   4.323
 8100SOL    HW226140   9.961  11.498   4.326
 8101SOL     OW26141   2.063  13.200  13.296
 8101SOL    HW126142   1.986  13.143  13.294
 8101SOL    HW226143   2.078  13.224  13.204
 8102SOL     OW26144   4.083   3.530   5.128
 8102SOL    HW126145   4.141   3.458   5.104
 8102SOL    HW226146   4.043   3.503   5.210
 8103SOL     OW26147   5.564   3.767   1.664
 8103SOL    HW126148   5.482   3.720   1.672
 8103SOL    HW226149   5.606   3.731   1.586
 8104SOL     OW26150   4.822  10.081  14.005
 8104SOL    HW126151   4.841  10.085  14.099
 8104SOL    HW226152   4.773   9.999  13.994
 8105SOL     OW26153   0.196   4.340   9.769
 8105SOL    HW126154   0.151   4.329   9.852
 8105SOL    HW226155   0.277   4.289   9.778
 8106SOL     OW26156   5.860  12.803   2.910
 8106SOL    HW126157   5.880  12.897   2.911
 8106SOL    HW226158   5.903  12.769   2.989
 8107SOL     OW26159  14.807   3.842   8.257
 8107SOL    HW126160  14.738   3.906   8.242
 8107SOL    HW226161  14.782   3.766   8.204
 8108SOL     OW26162   1.495   5.768   7.585
 8108SOL    HW126163   1.507   5.861   7.567
 8108SOL    HW226164   1.498   5.726   7.499
 8109SOL     OW26165   6.448   0.587   2.524
 8109SOL    HW126166   6.480   0.649   2.457
 8109SOL    HW226167   6.357   0.613   2.538
 8110SOL     OW26168  14.257  13.149   3.034
 8110SOL    HW126169  14.315  13.176   3.105
 8110SOL    HW226170  14.209  13.074   3.070
 8111SOL     OW26171   2.615   3.234   4.593
 8111SOL    HW126172   2.635   3.268   4.681
 8111SOL    HW226173   2.661   3.293   4.534
 8112SOL     OW26174  11.455   1.569   8.620
 8112SOL    HW126175  11.502   1.643   8.658
 8112SOL    HW226176  11.397   1.608   8.554
 8113SOL     OW26177  10.794   8.818  13.329
 8113SOL    HW126178  10.825   8.738  13.287
 8113SOL    HW226179  10.811   8.804  13.422
 8114SOL     OW26180   8.047   5.925  12.503
 8114SOL    HW126181   7.955   5.924  12.529
 8114SOL    HW226182   8.052   5.992  12.435
 8115SOL     OW26183   2.446   5.085   7.449
 8115SOL    HW126184   2.455   5.176   7.421
 8115SOL    HW226185   2.484   5.082   7.537
 8116SOL     OW26186   7.096   0.912  11.992
 8116SOL    HW126187   7.012   0.934  11.952
 8116SOL    HW226188   7.124   0.992  12.036
 8117SOL     OW26189   7.150   3.528  13.005
 8117SOL    HW126190   7.100   3.607  13.024
 8117SOL    HW226191   7.207   3.552  12.932
 8118SOL     OW26192   7.830   9.133   8.726
 8118SOL    HW126193   7.868   9.047   8.744
 8118SOL    HW226194   7.809   9.131   8.633
 8119SOL     OW26195  14.392  11.210  10.630
 8119SOL    HW126196  14.385  11.158  10.550
 8119SOL    HW226197  14.452  11.281  10.607
 8120SOL     OW26198   7.523   4.896   6.565
 8120SOL    HW126199   7.580   4.906   6.489
 8120SOL    HW226200   7.480   4.812   6.551
 8121SOL     OW26201   6.666   1.598  13.160
 8121SOL    HW126202   6.574   1.577  13.175
 8121SOL    HW226203   6.708   1.582  13.244
 8122SOL     OW26204   8.296  10.644   8.980
 8122SOL    HW126205   8.276  10.550   8.980
 8122SOL    HW226206   8.210  10.686   8.979
 8123SOL     OW26207   6.589  11.599   9.361
 8123SOL    HW126208   6.567  11.681   9.317
 8123SOL    HW226209   6.504  11.555   9.374
 8124SOL     OW26210  13.222   9.448   7.974
 8124SOL    HW126211  13.244   9.366   8.019
 8124SOL    HW226212  13.296   9.505   7.991
 8125SOL     OW26213   4.494  13.790   7.636
 8125SOL    HW126214   4.529  13.713   7.681
 8125SOL    HW226215   4.563  13.855   7.644
 8126SOL     OW26216   5.839   7.616   4.686
 8126SOL    HW126217   5.789   7.698   4.687
 8126SOL    HW226218   5.832   7.583   4.775
 8127SOL     OW26219   7.698   3.461  13.718
 8127SOL    HW126220   7.787   3.473  13.751
 8127SOL    HW226221   7.644   3.517  13.774
 8128SOL     OW26222   2.393  10.324   8.791
 8128SOL    HW126223   2.479  10.360   8.772
 8128SOL    HW226224   2.411  10.237   8.828
 8129SOL     OW26225  11.069  11.242   0.219
 8129SOL    HW126226  11.069  11.235   0.314
 8129SOL    HW226227  11.040  11.157   0.188
 8130SOL     OW26228   9.655   5.701   8.655
 8130SOL    HW126229   9.684   5.708   8.564
 8130SOL    HW226230   9.605   5.620   8.658
 8131SOL     OW26231   6.251   7.940  13.618
 8131SOL    HW126232   6.205   7.957  13.536
 8131SOL    HW226233   6.223   7.852  13.643
 8132SOL     OW26234   4.477  12.750   9.099
 8132SOL    HW126235   4.468  12.816   9.030
 8132SOL    HW226236   4.538  12.789   9.162
 8133SOL     OW26237   8.920  12.313   9.740
 8133SOL    HW126238   8.850  12.254   9.767
 8133SOL    HW226239   8.928  12.376   9.811
 8134SOL     OW26240   6.893   8.870  11.037
 8134SOL    HW126241   6.976   8.905  11.004
 8134SOL    HW226242   6.844   8.846  10.959
 8135SOL     OW26243   1.628   3.673   3.889
 8135SOL    HW126244   1.696   3.675   3.822
 8135SOL    HW226245   1.557   3.727   3.852
 8136SOL     OW26246   1.294   6.158  13.429
 8136SOL    HW126247   1.225   6.154  13.364
 8136SOL    HW226248   1.282   6.242  13.472
 8137SOL     OW26249   5.573   4.577   6.697
 8137SOL    HW126250   5.642   4.543   6.639
 8137SOL    HW226251   5.515   4.627   6.639
 8138SOL     OW26252  13.605   9.703   7.010
 8138SOL    HW126253  13.515   9.696   6.978
 8138SOL    HW226254  13.654   9.739   6.936
 8139SOL     OW26255   1.474   8.343  12.420
 8139SOL    HW126256   1.562   8.370  12.394
 8139SOL    HW226257   1.421   8.353  12.342
 8140SOL     OW26258  12.094  10.194   2.759
 8140SOL    HW126259  12.067  10.189   2.668
 8140SOL    HW226260  12.025  10.246   2.801
 8141SOL     OW26261   2.894   7.734   1.626
 8141SOL    HW126262   2.844   7.802   1.581
 8141SOL    HW226263   2.951   7.782   1.686
 8142SOL     OW26264   8.899  14.790   4.253
 8142SOL    HW126265   8.855  14.775   4.170
 8142SOL    HW226266   8.961  14.861   4.235
 8143SOL     OW26267  14.612  12.171   6.671
 8143SOL    HW126268  14.532  12.208   6.634
 8143SOL    HW226269  14.583  12.095   6.721
 8144SOL     OW26270   0.221  10.335   0.536
 8144SOL    HW126271   0.298  10.371   0.579
 8144SOL    HW226272   0.256  10.273   0.472
 8145SOL     OW26273  12.807   8.200  11.690
 8145SOL    HW126274  12.795   8.294  11.692
 8145SOL    HW226275  12.884   8.184  11.746
 8146SOL     OW26276   1.731   9.416   2.825
 8146SOL    HW126277   1.734   9.427   2.730
 8146SOL    HW226278   1.684   9.333   2.838
 8147SOL     OW26279   2.801  10.218   1.447
 8147SOL    HW126280   2.834  10.260   1.527
 8147SOL    HW226281   2.871  10.231   1.383
 8148SOL     OW26282   7.652   0.302   7.588
 8148SOL    HW126283   7.579   0.298   7.649
 8148SOL    HW226284   7.716   0.240   7.624
 8149SOL     OW26285   4.455  10.319   0.307
 8149SOL    HW126286   4.443  10.394   0.250
 8149SOL    HW226287   4.533  10.339   0.358
 8150SOL     OW26288   2.205   4.883   1.822
 8150SOL    HW126289   2.261   4.807   1.804
 8150SOL    HW226290   2.257   4.937   1.881
 8151SOL     OW26291   6.292   2.749   7.649
 8151SOL    HW126292   6.321   2.720   7.736
 8151SOL    HW226293   6.359   2.714   7.590
 8152SOL     OW26294   0.314  12.181   5.148
 8152SOL    HW126295   0.405  12.157   5.131
 8152SOL    HW226296   0.297  12.148   5.237
 8153SOL     OW26297   6.017   0.805   9.811
 8153SOL    HW126298   6.102   0.774   9.781
 8153SOL    HW226299   6.034   0.844   9.897
 8154SOL     OW26300   8.366   6.941   4.123
 8154SOL    HW126301   8.306   6.930   4.050
 8154SOL    HW226302   8.312   6.980   4.192
 8155SOL     OW26303   3.945   8.415  11.561
 8155SOL    HW126304   4.035   8.403  11.531
 8155SOL    HW226305   3.895   8.433  11.482
 8156SOL     OW26306   9.514  11.873   4.640
 8156SOL    HW126307   9.501  11.793   4.691
 8156SOL    HW226308   9.515  11.943   4.706
 8157SOL     OW26309   0.913   1.892   3.917
 8157SOL    HW126310   0.869   1.946   3.983
 8157SOL    HW226311   1.004   1.921   3.919
 8158SOL     OW26312   5.283   3.658   4.661
 8158SOL    HW126313   5.257   3.746   4.688
 8158SOL    HW226314   5.272   3.658   4.566
 8159SOL     OW26315   6.790  14.589  10.116
 8159SOL    HW126316   6.880  14.600  10.086
 8159SOL    HW226317   6.780  14.654  10.185
 8160SOL     OW26318   8.289  13.358   9.117
 8160SOL    HW126319   8.262  13.423   9.052
 8160SOL    HW226320   8.221  13.362   9.184
 8161SOL     OW26321  11.154   3.475   0.481
 8161SOL    HW126322  11.227   3.414   0.478
 8161SOL    HW226323  11.114   3.470   0.394
 8162SOL     OW26324  10.289   8.898  12.812
 8162SOL    HW126325  10.297   8.901  12.908
 8162SOL    HW226326  10.207   8.942  12.793
 8163SOL     OW26327  13.198   3.513   3.947
 8163SOL    HW126328  13.252   3.582   3.984
 8163SOL    HW226329  13.242   3.431   3.973
 8164SOL     OW26330   1.596   4.065  14.379
 8164SOL    HW126331   1.649   4.138  14.346
 8164SOL    HW226332   1.653   3.988  14.370
 8165SOL     OW26333   3.268   5.543   2.495
 8165SOL    HW126334   3.362   5.528   2.501
 8165SOL    HW226335   3.229   5.472   2.547
 8166SOL     OW26336  14.009   1.467   1.713
 8166SOL    HW126337  13.954   1.398   1.677
 8166SOL    HW226338  13.960   1.548   1.697
 8167SOL     OW26339  13.283   5.204   1.718
 8167SOL    HW126340  13.340   5.252   1.777
 8167SOL    HW226341  13.298   5.112   1.740
 8168SOL     OW26342   4.352   4.108   2.221
 8168SOL    HW126343   4.414   4.132   2.152
 8168SOL    HW226344   4.382   4.155   2.298
 8169SOL     OW26345   2.645  14.465   1.001
 8169SOL    HW126346   2.728  14.498   0.967
 8169SOL    HW226347   2.578  14.507   0.947
 8170SOL     OW26348   3.523   7.182   7.731
 8170SOL    HW126349   3.521   7.213   7.641
 8170SOL    HW226350   3.595   7.118   7.733
 8171SOL     OW26351   0.957   7.412   1.034
 8171SOL    HW126352   0.871   7.388   1.067
 8171SOL    HW226353   0.952   7.506   1.019
 8172SOL     OW26354   5.350   7.791  13.452
 8172SOL    HW126355   5.286   7.740  13.501
 8172SOL    HW226356   5.333   7.769  13.360
 8173SOL     OW26357   6.635  11.866  11.524
 8173SOL    HW126358   6.627  11.823  11.609
 8173SOL    HW226359   6.719  11.912  11.528
 8174SOL     OW26360  11.953   8.795   3.865
 8174SOL    HW126361  11.971   8.752   3.948
 8174SOL    HW226362  11.866   8.834   3.876
 8175SOL     OW26363   1.893   9.524   8.755
 8175SOL    HW126364   1.865   9.611   8.781
 8175SOL    HW226365   1.920   9.533   8.663
 8176SOL     OW26366   3.076  13.290  12.386
 8176SOL    HW126367   3.136  13.348  12.339
 8176SOL    HW226368   2.994  13.339  12.392
 8177SOL     OW26369   0.429  12.364   8.114
 8177SOL    HW126370   0.344  12.386   8.078
 8177SOL    HW226371   0.435  12.269   8.109
 8178SOL     OW26372   5.065   6.911   8.504
 8178SOL    HW126373   5.148   6.910   8.552
 8178SOL    HW226374   5.028   6.824   8.519
 8179SOL     OW26375  11.439   7.145   3.700
 8179SOL    HW126376  11.384   7.223   3.702
 8179SOL    HW226377  11.479   7.141   3.787
 8180SOL     OW26378  14.577   4.456  13.088
 8180SOL    HW126379  14.577   4.378  13.142
 8180SOL    HW226380  14.657   4.502  13.111
 8181SOL     OW26381   8.737  12.251  14.291
 8181SOL    HW126382   8.676  12.243  14.218
 8181SOL    HW226383   8.686  12.225  14.368
 8182SOL     OW26384   3.273   2.097  12.667
 8182SOL    HW126385   3.359   2.141  12.665
 8182SOL    HW226386   3.275   2.039  12.591
 8183SOL     OW26387   2.703   6.616  14.089
 8183SOL    HW126388   2.630   6.663  14.130
 8183SOL    HW226389   2.705   6.649  13.999
 8184SOL     OW26390   9.646   2.068   4.966
 8184SOL    HW126391   9.561   2.073   4.922
 8184SOL    HW226392   9.706   2.038   4.897
 8185SOL     OW26393   9.899  11.864   9.151
 8185SOL    HW126394   9.805  11.861   9.164
 8185SOL    HW226395   9.912  11.841   9.059
 8186SOL     OW26396  10.186   8.046  12.167
 8186SOL    HW126397  10.114   8.044  12.104
 8186SOL    HW226398  10.265   8.060  12.114
 8187SOL     OW26399  12.764   9.068   3.260
 8187SOL    HW126400  12.718   9.060   3.344
 8187SOL    HW226401  12.709   9.020   3.199
 8188SOL     OW26402  12.974   3.520   9.439
 8188SOL    HW126403  13.022   3.438   9.455
 8188SOL    HW226404  12.981   3.533   9.344
 8189SOL     OW26405   5.116   1.549   0.384
 8189SOL    HW126406   5.040   1.505   0.346
 8189SOL    HW226407   5.182   1.480   0.392
 8190SOL     OW26408   0.966   9.620   3.472
 8190SOL    HW126409   1.028   9.553   3.442
 8190SOL    HW226410   1.019   9.679   3.525
 8191SOL     OW26411   3.070  11.349   3.121
 8191SOL    HW126412   3.011  11.277   3.099
 8191SOL    HW226413   3.091  11.389   3.037
 8192SOL     OW26414  14.235  11.984  11.408
 8192SOL    HW126415  14.176  11.972  11.334
 8192SOL    HW226416  14.313  12.024  11.370
 8193SOL     OW26417  13.435  10.496  13.060
 8193SOL    HW126418  13.397  10.479  13.146
 8193SOL    HW226419  13.483  10.579  13.072
 8194SOL     OW26420   8.606   6.705   3.455
 8194SOL    HW126421   8.645   6.790   3.433
 8194SOL    HW226422   8.648   6.680   3.537
 8195SOL     OW26423   4.424   6.036  11.781
 8195SOL    HW126424   4.478   5.993  11.847
 8195SOL    HW226425   4.368   6.096  11.830
 8196SOL     OW26426   5.628   0.806   8.940
 8196SOL    HW126427   5.555   0.859   8.908
 8196SOL    HW226428   5.601   0.779   9.028
 8197SOL     OW26429   0.434  13.783   0.721
 8197SOL    HW126430   0.490  13.716   0.682
 8197SOL    HW226431   0.387  13.821   0.648
 8198SOL     OW26432   7.376   1.645   9.883
 8198SOL    HW126433   7.434   1.590   9.831
 8198SOL    HW226434   7.412   1.733   9.873
 8199SOL     OW26435  12.400  11.119   2.109
 8199SOL    HW126436  12.369  11.040   2.065
 8199SOL    HW226437  12.343  11.188   2.075
 8200SOL     OW26438  14.211   5.886   5.956
 8200SOL    HW126439  14.120   5.873   5.929
 8200SOL    HW226440  14.222   5.831   6.033
 8201SOL     OW26441   8.039   7.218   9.207
 8201SOL    HW126442   8.050   7.125   9.183
 8201SOL    HW226443   7.980   7.252   9.140
 8202SOL     OW26444  10.867  11.595   4.594
 8202SOL    HW126445  10.837  11.607   4.684
 8202SOL    HW226446  10.883  11.501   4.587
 8203SOL     OW26447  13.266   5.387   5.038
 8203SOL    HW126448  13.241   5.467   5.084
 8203SOL    HW226449  13.229   5.396   4.951
 8204SOL     OW26450   0.100  14.151   5.428
 8204SOL    HW126451   0.023  14.202   5.403
 8204SOL    HW226452   0.170  14.184   5.371
 8205SOL     OW26453   3.087   6.389   8.406
 8205SOL    HW126454   3.113   6.401   8.315
 8205SOL    HW226455   3.079   6.478   8.441
 8206SOL     OW26456   1.256  12.989   4.685
 8206SOL    HW126457   1.179  13.044   4.668
 8206SOL    HW226458   1.330  13.040   4.653
 8207SOL     OW26459   9.423  10.786   8.686
 8207SOL    HW126460   9.359  10.825   8.745
 8207SOL    HW226461   9.415  10.837   8.605
 8208SOL     OW26462   9.160   0.129  10.642
 8208SOL    HW126463   9.111   0.078  10.706
 8208SOL    HW226464   9.194   0.065  10.580
 8209SOL     OW26465   7.160   8.599  10.856
 8209SOL    HW126466   7.221   8.581  10.928
 8209SOL    HW226467   7.216   8.629  10.785
 8210SOL     OW26468   6.010   2.825   5.386
 8210SOL    HW126469   5.956   2.880   5.329
 8210SOL    HW226470   6.000   2.736   5.351
 8211SOL     OW26471   2.937   8.914   9.509
 8211SOL    HW126472   2.978   8.994   9.541
 8211SOL    HW226473   2.874   8.944   9.443
 8212SOL     OW26474  11.730  12.689   1.522
 8212SOL    HW126475  11.783  12.678   1.443
 8212SOL    HW226476  11.787  12.737   1.583
 8213SOL     OW26477  12.206   4.451   1.018
 8213SOL    HW126478  12.212   4.434   0.924
 8213SOL    HW226479  12.117   4.426   1.041
 8214SOL     OW26480   5.177   2.097  12.520
 8214SOL    HW126481   5.227   2.016  12.512
 8214SOL    HW226482   5.191   2.142  12.436
 8215SOL     OW26483   6.717  13.584   0.749
 8215SOL    HW126484   6.780  13.557   0.816
 8215SOL    HW226485   6.744  13.537   0.670
 8216SOL     OW26486   7.472   6.615   5.170
 8216SOL    HW126487   7.451   6.706   5.192
 8216SOL    HW226488   7.558   6.600   5.210
 8217SOL     OW26489   8.275   9.318   1.266
 8217SOL    HW126490   8.246   9.252   1.204
 8217SOL    HW226491   8.250   9.283   1.352
 8218SOL     OW26492  14.620   8.487  14.751
 8218SOL    HW126493  14.602   8.575  14.782
 8218SOL    HW226494  14.547   8.466  14.692
 8219SOL     OW26495   9.137  12.296   8.063
 8219SOL    HW126496   9.191  12.374   8.052
 8219SOL    HW226497   9.164  12.260   8.148
 8220SOL     OW26498   3.384   4.048  10.702
 8220SOL    HW126499   3.294   4.083  10.701
 8220SOL    HW226500   3.383   3.983  10.772
 8221SOL     OW26501   5.976  10.366   6.187
 8221SOL    HW126502   6.054  10.415   6.215
 8221SOL    HW226503   6.005  10.314   6.113
 8222SOL     OW26504   6.429  10.074   9.748
 8222SOL    HW126505   6.339  10.107   9.747
 8222SOL    HW226506   6.482  10.147   9.718
 8223SOL     OW26507   0.764   2.566  13.023
 8223SOL    HW126508   0.815   2.489  13.047
 8223SOL    HW226509   0.802   2.595  12.940
 8224SOL     OW26510   6.272   7.047   4.393
 8224SOL    HW126511   6.223   6.964   4.397
 8224SOL    HW226512   6.343   7.030   4.331
 8225SOL     OW26513  10.325   6.253   0.294
 8225SOL    HW126514  10.240   6.214   0.272
 8225SOL    HW226515  10.387   6.180   0.290
 8226SOL     OW26516   7.849  10.023   5.566
 8226SOL    HW126517   7.838   9.938   5.609
 8226SOL    HW226518   7.939  10.022   5.535
 8227SOL     OW26519  14.000  14.142  10.425
 8227SOL    HW126520  14.056  14.095  10.486
 8227SOL    HW226521  14.037  14.230  10.420
 8228SOL     OW26522  12.803   0.002  11.360
 8228SOL    HW126523  12.819  14.845  11.271
 8228SOL    HW226524  12.799   0.098  11.351
 8229SOL     OW26525   2.839   8.425  11.912
 8229SOL    HW126526   2.805   8.425  11.823
 8229SOL    HW226527   2.831   8.516  11.941
 8230SOL     OW26528   8.303   3.600   9.603
 8230SOL    HW126529   8.258   3.524   9.565
 8230SOL    HW226530   8.340   3.567   9.685
 8231SOL     OW26531   0.711   5.965  13.367
 8231SOL    HW126532   0.780   5.955  13.433
 8231SOL    HW226533   0.643   6.017  13.411
 8232SOL     OW26534  11.673   9.936   9.891
 8232SOL    HW126535  11.660  10.013   9.947
 8232SOL    HW226536  11.692   9.973   9.804
 8233SOL     OW26537   5.764   5.656   6.020
 8233SOL    HW126538   5.744   5.619   6.106
 8233SOL    HW226539   5.733   5.590   5.958
 8234SOL     OW26540  13.234   5.854   8.689
 8234SOL    HW126541  13.272   5.908   8.758
 8234SOL    HW226542  13.280   5.771   8.694
 8235SOL     OW26543  10.411  10.681  13.263
 8235SOL    HW126544  10.484  10.620  13.250
 8235SOL    HW226545  10.419  10.743  13.191
 8236SOL     OW26546   2.805  11.655   4.606
 8236SOL    HW126547   2.721  11.668   4.650
 8236SOL    HW226548   2.804  11.564   4.578
 8237SOL     OW26549  12.401  13.560  14.774
 8237SOL    HW126550  12.476  13.510  14.741
 8237SOL    HW226551  12.438  13.618  14.840
 8238SOL     OW26552   9.969  12.445  10.843
 8238SOL    HW126553   9.988  12.404  10.759
 8238SOL    HW226554   9.973  12.374  10.906
 8239SOL     OW26555   8.260   8.226   4.510
 8239SOL    HW126556   8.352   8.252   4.521
 8239SOL    HW226557   8.240   8.178   4.590
 8240SOL     OW26558   0.808   8.676  14.778
 8240SOL    HW126559   0.792   8.770  14.784
 8240SOL    HW226560   0.727   8.636  14.809
 8241SOL     OW26561   9.268  14.428   5.364
 8241SOL    HW126562   9.249  14.361   5.299
 8241SOL    HW226563   9.213  14.405   5.439
 8242SOL     OW26564  12.653   5.884   0.284
 8242SOL    HW126565  12.560   5.900   0.270
 8242SOL    HW226566  12.659   5.791   0.304
 8243SOL     OW26567  12.612   0.875   9.023
 8243SOL    HW126568  12.688   0.895   9.079
 8243SOL    HW226569  12.570   0.801   9.066
 8244SOL     OW26570  10.696  13.196  12.040
 8244SOL    HW126571  10.654  13.109  12.038
 8244SOL    HW226572  10.666  13.238  11.959
 8245SOL     OW26573   8.906   2.361   7.808
 8245SOL    HW126574   8.945   2.274   7.800
 8245SOL    HW226575   8.906   2.380   7.902
 8246SOL     OW26576   6.049   2.032   0.326
 8246SOL    HW126577   6.012   2.098   0.267
 8246SOL    HW226578   5.987   1.960   0.324
 8247SOL     OW26579   7.344   3.982   0.696
 8247SOL    HW126580   7.317   3.912   0.756
 8247SOL    HW226581   7.278   3.980   0.626
 8248SOL     OW26582   0.499   8.249   1.372
 8248SOL    HW126583   0.488   8.219   1.463
 8248SOL    HW226584   0.501   8.168   1.321
 8249SOL     OW26585   9.441   3.119   8.890
 8249SOL    HW126586   9.426   3.184   8.821
 8249SOL    HW226587   9.446   3.170   8.971
 8250SOL     OW26588   4.827  12.711   2.005
 8250SOL    HW126589   4.791  12.792   2.043
 8250SOL    HW226590   4.863  12.738   1.921
 8251SOL     OW26591  13.364   3.131   8.746
 8251SOL    HW126592  13.389   3.133   8.653
 8251SOL    HW226593  13.332   3.219   8.764
 8252SOL     OW26594   0.260   7.150  12.345
 8252SOL    HW126595   0.235   7.073  12.293
 8252SOL    HW226596   0.178   7.198  12.357
 8253SOL     OW26597   2.378  12.452   7.704
 8253SOL    HW126598   2.289  12.417   7.695
 8253SOL    HW226599   2.401  12.482   7.616
 8254SOL     OW26600   3.053  13.272  14.302
 8254SOL    HW126601   3.082  13.363  14.313
 8254SOL    HW226602   2.976  13.278  14.246
 8255SOL     OW26603   3.804   6.553   7.247
 8255SOL    HW126604   3.770   6.547   7.336
 8255SOL    HW226605   3.832   6.464   7.226
 8256SOL     OW26606   4.596   5.302   9.031
 8256SOL    HW126607   4.681   5.316   9.071
 8256SOL    HW226608   4.553   5.387   9.036
 8257SOL     OW26609  13.740  10.784  12.776
 8257SOL    HW126610  13.688  10.709  12.804
 8257SOL    HW226611  13.830  10.753  12.776
 8258SOL     OW26612   5.540  10.180   9.915
 8258SOL    HW126613   5.619  10.156   9.964
 8258SOL    HW226614   5.529  10.274   9.933
 8259SOL     OW26615   0.698   9.132   0.869
 8259SOL    HW126616   0.613   9.099   0.897
 8259SOL    HW226617   0.750   9.053   0.852
 8260SOL     OW26618  10.796   2.586   6.074
 8260SOL    HW126619  10.708   2.623   6.068
 8260SOL    HW226620  10.836   2.630   6.148
 8261SOL     OW26621   5.783   3.806  13.507
 8261SOL    HW126622   5.841   3.775  13.576
 8261SOL    HW226623   5.818   3.891  13.482
 8262SOL     OW26624  11.521  11.941   6.000
 8262SOL    HW126625  11.582  11.887   6.051
 8262SOL    HW226626  11.440  11.940   6.051
 8263SOL     OW26627   0.902  11.610   4.653
 8263SOL    HW126628   0.921  11.524   4.614
 8263SOL    HW226629   0.934  11.604   4.743
 8264SOL     OW26630   3.802   6.546  14.346
 8264SOL    HW126631   3.791   6.636  14.317
 8264SOL    HW226632   3.893   6.525  14.326
 8265SOL     OW26633   9.337   2.337   1.792
 8265SOL    HW126634   9.269   2.364   1.855
 8265SOL    HW226635   9.327   2.242   1.787
 8266SOL     OW26636  14.303   7.152  13.273
 8266SOL    HW126637  14.237   7.088  13.299
 8266SOL    HW226638  14.377   7.098  13.244
 8267SOL     OW26639  12.031   8.194   0.148
 8267SOL    HW126640  12.030   8.289   0.140
 8267SOL    HW226641  11.964   8.174   0.213
 8268SOL     OW26642   7.456   3.946   7.626
 8268SOL    HW126643   7.377   3.899   7.651
 8268SOL    HW226644   7.453   3.950   7.530
 8269SOL     OW26645   6.115   6.917   2.608
 8269SOL    HW126646   6.186   6.981   2.611
 8269SOL    HW226647   6.110   6.892   2.516
 8270SOL     OW26648   2.993   4.595  11.753
 8270SOL    HW126649   3.074   4.645  11.759
 8270SOL    HW226650   2.927   4.659  11.726
 8271SOL     OW26651  10.018  11.098   5.104
 8271SOL    HW126652  10.027  11.030   5.171
 8271SOL    HW226653  10.101  11.145   5.106
 8272SOL     OW26654  10.975   4.348   4.108
 8272SOL    HW126655  10.939   4.418   4.054
 8272SOL    HW226656  10.942   4.366   4.196
 8273SOL     OW26657  13.521  10.086   4.071
 8273SOL    HW126658  13.529  10.134   4.153
 8273SOL    HW226659  13.508   9.995   4.098
 8274SOL     OW26660   2.111  12.448   6.129
 8274SOL    HW126661   2.176  12.501   6.082
 8274SOL    HW226662   2.052  12.416   6.060
 8275SOL     OW26663  13.732   4.661   4.527
 8275SOL    HW126664  13.723   4.703   4.442
 8275SOL    HW226665  13.648   4.675   4.570
 8276SOL     OW26666   1.490   6.827   2.633
 8276SOL    HW126667   1.421   6.869   2.685
 8276SOL    HW226668   1.522   6.756   2.689
 8277SOL     OW26669   1.974   4.929  10.436
 8277SOL    HW126670   1.976   4.949  10.530
 8277SOL    HW226671   2.007   5.008  10.394
 8278SOL     OW26672  13.595  11.161   9.781
 8278SOL    HW126673  13.502  11.184   9.775
 8278SOL    HW226674  13.641  11.245   9.780
 8279SOL     OW26675   4.412   9.891   3.559
 8279SOL    HW126676   4.329   9.857   3.524
 8279SOL    HW226677   4.392   9.981   3.583
 8280SOL     OW26678   2.523   3.089  14.134
 8280SOL    HW126679   2.591   3.152  14.110
 8280SOL    HW226680   2.461   3.092  14.062
 8281SOL     OW26681  11.707   1.435   8.667
 8281SOL    HW126682  11.634   1.467   8.615
 8281SOL    HW226683  11.700   1.482   8.751
 8282SOL     OW26684   5.843   8.594   8.154
 8282SOL    HW126685   5.892   8.676   8.150
 8282SOL    HW226686   5.908   8.526   8.135
 8283SOL     OW26687   7.176   3.557   2.451
 8283SOL    HW126688   7.257   3.608   2.450
 8283SOL    HW226689   7.204   3.466   2.446
 8284SOL     OW26690   6.184   3.576  11.585
 8284SOL    HW126691   6.112   3.606  11.529
 8284SOL    HW226692   6.175   3.626  11.665
 8285SOL     OW26693  11.814   0.333   3.755
 8285SOL    HW126694  11.786   0.369   3.839
 8285SOL    HW226695  11.732   0.305   3.713
 8286SOL     OW26696  14.556   9.483   4.531
 8286SOL    HW126697  14.590   9.403   4.572
 8286SOL    HW226698  14.629   9.545   4.534
 8287SOL     OW26699  10.115   1.436  14.552
 8287SOL    HW126700  10.084   1.403  14.468
 8287SOL    HW226701  10.124   1.358  14.607
 8288SOL     OW26702   3.298   0.414   0.281
 8288SOL    HW126703   3.214   0.392   0.322
 8288SOL    HW226704   3.363   0.379   0.342
 8289SOL     OW26705   6.880   7.256   1.428
 8289SOL    HW126706   6.949   7.295   1.375
 8289SOL    HW226707   6.925   7.223   1.506
 8290SOL     OW26708  14.402  14.675   1.149
 8290SOL    HW126709  14.402  14.661   1.244
 8290SOL    HW226710  14.380  14.767   1.138
 8291SOL     OW26711   1.005   4.583  12.934
 8291SOL    HW126712   1.019   4.678  12.934
 8291SOL    HW226713   0.910   4.573  12.937
 8292SOL     OW26714  11.598  10.852  10.631
 8292SOL    HW126715  11.675  10.795  10.625
 8292SOL    HW226716  11.577  10.873  10.540
 8293SOL     OW26717   9.922   1.582   2.482
 8293SOL    HW126718  10.004   1.631   2.473
 8293SOL    HW226719   9.915   1.533   2.400
 8294SOL     OW26720  12.489   8.873  13.165
 8294SOL    HW126721  12.531   8.952  13.197
 8294SOL    HW226722  12.411   8.863  13.220
 8295SOL     OW26723   7.897  11.130  13.514
 8295SOL    HW126724   7.919  11.161  13.602
 8295SOL    HW226725   7.850  11.048  13.528
 8296SOL     OW26726   2.775   7.373  12.510
 8296SOL    HW126727   2.765   7.427  12.589
 8296SOL    HW226728   2.794   7.436  12.440
 8297SOL     OW26729   9.605   6.762  12.738
 8297SOL    HW126730   9.588   6.694  12.803
 8297SOL    HW226731   9.549   6.739  12.664
 8298SOL     OW26732   6.034  12.943  11.871
 8298SOL    HW126733   6.092  12.963  11.944
 8298SOL    HW226734   5.992  13.026  11.850
 8299SOL     OW26735   7.815   3.194   5.948
 8299SOL    HW126736   7.790   3.286   5.953
 8299SOL    HW226737   7.734   3.148   5.927
 8300SOL     OW26738   5.386   1.191   8.397
 8300SOL    HW126739   5.479   1.193   8.374
 8300SOL    HW226740   5.369   1.277   8.435
 8301SOL     OW26741   1.783   6.021   2.009
 8301SOL    HW126742   1.714   6.010   1.944
 8301SOL    HW226743   1.812   6.111   1.999
 8302SOL     OW26744  14.395  14.338  11.305
 8302SOL    HW126745  14.434  14.263  11.352
 8302SOL    HW226746  14.313  14.355  11.351
 8303SOL     OW26747   6.682  10.354   2.792
 8303SOL    HW126748   6.773  10.371   2.766
 8303SOL    HW226749   6.657  10.277   2.741
 8304SOL     OW26750   0.187   3.539   2.265
 8304SOL    HW126751   0.128   3.538   2.340
 8304SOL    HW226752   0.275   3.538   2.304
 8305SOL     OW26753   4.544  12.010  13.446
 8305SOL    HW126754   4.538  11.932  13.501
 8305SOL    HW226755   4.454  12.040  13.435
 8306SOL     OW26756   4.162  11.466  13.502
 8306SOL    HW126757   4.247  11.511  13.504
 8306SOL    HW226758   4.122  11.495  13.420
 8307SOL     OW26759  14.681   6.340   0.738
 8307SOL    HW126760  14.615   6.287   0.692
 8307SOL    HW226761  14.664   6.430   0.710
 8308SOL     OW26762   1.881   6.704   3.536
 8308SOL    HW126763   1.892   6.702   3.440
 8308SOL    HW226764   1.866   6.613   3.561
 8309SOL     OW26765  11.981  10.509   8.126
 8309SOL    HW126766  11.954  10.580   8.068
 8309SOL    HW226767  12.061  10.541   8.167
 8310SOL     OW26768  13.780   6.652   3.254
 8310SOL    HW126769  13.724   6.581   3.225
 8310SOL    HW226770  13.730   6.694   3.325
 8311SOL     OW26771   3.194   0.780   4.778
 8311SOL    HW126772   3.102   0.775   4.803
 8311SOL    HW226773   3.239   0.723   4.840
 8312SOL     OW26774  11.695   1.327  14.446
 8312SOL    HW126775  11.791   1.324  14.443
 8312SOL    HW226776  11.673   1.415  14.414
 8313SOL     OW26777   0.581  12.741  13.856
 8313SOL    HW126778   0.533  12.823  13.843
 8313SOL    HW226779   0.579  12.727  13.951
 8314SOL     OW26780  13.039  12.505   2.752
 8314SOL    HW126781  12.991  12.581   2.718
 8314SOL    HW226782  13.115  12.543   2.796
 8315SOL     OW26783   9.872  10.302   2.215
 8315SOL    HW126784   9.905  10.353   2.141
 8315SOL    HW226785   9.824  10.366   2.268
 8316SOL     OW26786   3.156   4.613   5.405
 8316SOL    HW126787   3.200   4.697   5.412
 8316SOL    HW226788   3.220   4.550   5.438
 8317SOL     OW26789  12.242   1.671  12.931
 8317SOL    HW126790  12.166   1.616  12.949
 8317SOL    HW226791  12.242   1.682  12.836
 8318SOL     OW26792   5.973   3.512   7.423
 8318SOL    HW126793   6.020   3.570   7.363
 8318SOL    HW226794   5.989   3.424   7.389
 8319SOL     OW26795   6.874   3.950   8.770
 8319SOL    HW126796   6.920   3.963   8.853
 8319SOL    HW226797   6.804   4.015   8.771
 8320SOL     OW26798  14.177   0.578  13.865
 8320SOL    HW126799  14.262   0.604  13.899
 8320SOL    HW226800  14.116   0.597  13.936
 8321SOL     OW26801   6.193  14.090   5.295
 8321SOL    HW126802   6.216  14.018   5.353
 8321SOL    HW226803   6.102  14.110   5.316
 8322SOL     OW26804   8.740   2.851   7.160
 8322SOL    HW126805   8.679   2.859   7.233
 8322SOL    HW226806   8.824   2.879   7.195
 8323SOL     OW26807   9.653   6.562   4.457
 8323SOL    HW126808   9.697   6.479   4.475
 8323SOL    HW226809   9.721   6.618   4.420
 8324SOL     OW26810   3.802   5.653   2.276
 8324SOL    HW126811   3.846   5.634   2.358
 8324SOL    HW226812   3.764   5.740   2.288
 8325SOL     OW26813   0.106   5.253   9.843
 8325SOL    HW126814   0.035   5.317   9.848
 8325SOL    HW226815   0.067   5.172   9.878
 8326SOL     OW26816   1.050  11.274   9.488
 8326SOL    HW126817   1.005  11.338   9.543
 8326SOL    HW226818   1.132  11.256   9.534
 8327SOL     OW26819  13.412   7.075   5.237
 8327SOL    HW126820  13.431   7.004   5.175
 8327SOL    HW226821  13.320   7.065   5.258
 8328SOL     OW26822   2.917   7.344  14.566
 8328SOL    HW126823   2.936   7.259  14.529
 8328SOL    HW226824   2.951   7.407  14.503
 8329SOL     OW26825  14.586  12.125   2.438
 8329SOL    HW126826  14.572  12.155   2.348
 8329SOL    HW226827  14.500  12.097   2.468
 8330SOL     OW26828   5.981   5.936   5.221
 8330SOL    HW126829   6.065   5.961   5.261
 8330SOL    HW226830   5.929   6.017   5.222
 8331SOL     OW26831  14.469  12.559   1.564
 8331SOL    HW126832  14.520  12.640   1.562
 8331SOL    HW226833  14.468  12.534   1.656
 8332SOL     OW26834   3.574   4.252  10.004
 8332SOL    HW126835   3.631   4.180   9.979
 8332SOL    HW226836   3.547   4.232  10.093
 8333SOL     OW26837   6.202  13.226   7.402
 8333SOL    HW126838   6.129  13.180   7.358
 8333SOL    HW226839   6.186  13.212   7.495
 8334SOL     OW26840   9.625   5.184   6.273
 8334SOL    HW126841   9.649   5.168   6.364
 8334SOL    HW226842   9.598   5.276   6.271
 8335SOL     OW26843   6.283   2.224  14.278
 8335SOL    HW126844   6.365   2.244  14.323
 8335SOL    HW226845   6.217   2.278  14.322
 8336SOL     OW26846   1.256  13.572  12.865
 8336SOL    HW126847   1.167  13.581  12.831
 8336SOL    HW226848   1.311  13.557  12.788
 8337SOL     OW26849   4.364   2.784   6.374
 8337SOL    HW126850   4.412   2.752   6.298
 8337SOL    HW226851   4.367   2.879   6.367
 8338SOL     OW26852  11.714   9.973   2.250
 8338SOL    HW126853  11.634  10.022   2.272
 8338SOL    HW226854  11.771  10.037   2.209
 8339SOL     OW26855  13.781   0.290   5.211
 8339SOL    HW126856  13.860   0.283   5.266
 8339SOL    HW226857  13.713   0.247   5.261
 8340SOL     OW26858   0.604   8.530   1.184
 8340SOL    HW126859   0.633   8.535   1.275
 8340SOL    HW226860   0.517   8.492   1.188
 8341SOL     OW26861  11.413   4.990   2.931
 8341SOL    HW126862  11.447   4.982   3.020
 8341SOL    HW226863  11.481   5.039   2.884
 8342SOL     OW26864   8.160   4.655  13.571
 8342SOL    HW126865   8.087   4.594  13.576
 8342SOL    HW226866   8.189   4.667  13.662
 8343SOL     OW26867   1.488  10.225   8.012
 8343SOL    HW126868   1.428  10.150   8.014
 8343SOL    HW226869   1.574  10.188   8.031
 8344SOL     OW26870   2.959   5.639   8.553
 8344SOL    HW126871   2.935   5.662   8.464
 8344SOL    HW226872   3.011   5.713   8.584
 8345SOL     OW26873  12.168   6.259   2.401
 8345SOL    HW126874  12.079   6.224   2.412
 8345SOL    HW226875  12.162   6.350   2.428
 8346SOL     OW26876   4.652   1.278  14.636
 8346SOL    HW126877   4.571   1.227  14.640
 8346SOL    HW226878   4.706   1.232  14.572
 8347SOL     OW26879   4.362   2.010   1.979
 8347SOL    HW126880   4.319   1.951   1.918
 8347SOL    HW226881   4.443   2.037   1.935
 8348SOL     OW26882   3.081   6.775   8.697
 8348SOL    HW126883   3.108   6.774   8.788
 8348SOL    HW226884   3.162   6.793   8.648
 8349SOL     OW26885  10.958   5.003   1.145
 8349SOL    HW126886  11.008   4.930   1.110
 8349SOL    HW226887  10.998   5.021   1.230
 8350SOL     OW26888   2.596  14.856   2.599
 8350SOL    HW126889   2.642  14.871   2.681
 8350SOL    HW226890   2.658  14.807   2.545
 8351SOL     OW26891  14.190   7.185   9.791
 8351SOL    HW126892  14.170   7.141   9.709
 8351SOL    HW226893  14.283   7.170   9.805
 8352SOL     OW26894  12.410   6.267   0.951
 8352SOL    HW126895  12.412   6.204   1.023
 8352SOL    HW226896  12.437   6.216   0.874
 8353SOL     OW26897  12.882   7.462   0.370
 8353SOL    HW126898  12.810   7.399   0.359
 8353SOL    HW226899  12.927   7.461   0.286
 8354SOL     OW26900  12.549   9.116  10.520
 8354SOL    HW126901  12.529   9.052  10.588
 8354SOL    HW226902  12.590   9.066  10.450
 8355SOL     OW26903   0.227  11.787   7.250
 8355SOL    HW126904   0.142  11.830   7.263
 8355SOL    HW226905   0.240  11.735   7.330
 8356SOL     OW26906   0.393   6.983   9.400
 8356SOL    HW126907   0.397   6.890   9.421
 8356SOL    HW226908   0.397   7.027   9.484
 8357SOL     OW26909  14.870  14.525  14.330
 8357SOL    HW126910  14.841  14.589  14.265
 8357SOL    HW226911  14.792  14.509  14.384
 8358SOL     OW26912  13.143  11.396  10.871
 8358SOL    HW126913  13.115  11.367  10.784
 8358SOL    HW226914  13.237  11.410  10.862
 8359SOL     OW26915   3.772   0.074  11.177
 8359SOL    HW126916   3.834   0.123  11.123
 8359SOL    HW226917   3.715   0.142  11.214
 8360SOL     OW26918  13.991   5.364  14.836
 8360SOL    HW126919  13.904   5.353   0.001
 8360SOL    HW226920  14.012   5.457  14.850
 8361SOL     OW26921   1.439   3.635   3.013
 8361SOL    HW126922   1.491   3.685   2.950
 8361SOL    HW226923   1.396   3.568   2.960
 8362SOL     OW26924   6.382  13.171  11.030
 8362SOL    HW126925   6.348  13.225  11.102
 8362SOL    HW226926   6.328  13.196  10.955
 8363SOL     OW26927   1.138   4.688  10.538
 8363SOL    HW126928   1.138   4.639  10.456
 8363SOL    HW226929   1.221   4.665  10.580
 8364SOL     OW26930  13.520   4.538  10.317
 8364SOL    HW126931  13.502   4.479  10.391
 8364SOL    HW226932  13.608   4.570  10.334
 8365SOL     OW26933   3.846  11.893   3.888
 8365SOL    HW126934   3.789  11.880   3.963
 8365SOL    HW226935   3.865  11.986   3.888
 8366SOL     OW26936  11.364   8.035   1.346
 8366SOL    HW126937  11.384   8.074   1.261
 8366SOL    HW226938  11.269   8.047   1.355
 8367SOL     OW26939   1.906  14.706   8.267
 8367SOL    HW126940   1.923  14.769   8.197
 8367SOL    HW226941   1.821  14.668   8.246
 8368SOL     OW26942   2.695   2.304  11.415
 8368SOL    HW126943   2.611   2.324  11.374
 8368SOL    HW226944   2.674   2.246  11.487
 8369SOL     OW26945  14.279   9.656   0.933
 8369SOL    HW126946  14.343   9.724   0.955
 8369SOL    HW226947  14.326   9.574   0.941
 8370SOL     OW26948   2.469  14.094  13.645
 8370SOL    HW126949   2.457  14.095  13.550
 8370SOL    HW226950   2.402  14.034  13.676
 8371SOL     OW26951  13.806   5.649  13.405
 8371SOL    HW126952  13.758   5.573  13.436
 8371SOL    HW226953  13.898   5.630  13.425
 8372SOL     OW26954   5.870   4.083  13.104
 8372SOL    HW126955   5.818   4.148  13.152
 8372SOL    HW226956   5.832   3.999  13.128
 8373SOL     OW26957   2.695  10.923   9.070
 8373SOL    HW126958   2.623  10.940   9.130
 8373SOL    HW226959   2.747  10.856   9.114
 8374SOL     OW26960  14.286  11.617   8.839
 8374SOL    HW126961  14.295  11.586   8.929
 8374SOL    HW226962  14.375  11.614   8.804
 8375SOL     OW26963   5.378  10.979   0.843
 8375SOL    HW126964   5.331  11.027   0.911
 8375SOL    HW226965   5.463  11.022   0.837
 8376SOL     OW26966  12.580   7.687   6.097
 8376SOL    HW126967  12.631   7.625   6.150
 8376SOL    HW226968  12.616   7.678   6.009
 8377SOL     OW26969   9.511  10.523   7.793
 8377SOL    HW126970   9.512  10.500   7.886
 8377SOL    HW226971   9.555  10.449   7.750
 8378SOL     OW26972   9.325   6.171   8.347
 8378SOL    HW126973   9.340   6.090   8.396
 8378SOL    HW226974   9.231   6.184   8.350
 8379SOL     OW26975   3.796   8.541   5.616
 8379SOL    HW126976   3.746   8.474   5.570
 8379SOL    HW226977   3.884   8.535   5.578
 8380SOL     OW26978   8.552   9.695   4.405
 8380SOL    HW126979   8.562   9.787   4.382
 8380SOL    HW226980   8.495   9.659   4.337
 8381SOL     OW26981  12.527   1.385  11.767
 8381SOL    HW126982  12.539   1.348  11.680
 8381SOL    HW226983  12.451   1.339  11.802
 8382SOL     OW26984  10.671   5.232   9.743
 8382SOL    HW126985  10.637   5.317   9.770
 8382SOL    HW226986  10.620   5.209   9.665
 8383SOL     OW26987  10.266  13.386  11.423
 8383SOL    HW126988  10.237  13.375  11.514
 8383SOL    HW226989  10.189  13.366  11.370
 8384SOL     OW26990   3.003   7.146   7.867
 8384SOL    HW126991   3.081   7.133   7.813
 8384SOL    HW226992   2.932   7.108   7.816
 8385SOL     OW26993  13.965   4.352   8.520
 8385SOL    HW126994  13.989   4.349   8.428
 8385SOL    HW226995  13.912   4.432   8.529
 8386SOL     OW26996  14.017  13.291   3.813
 8386SOL    HW126997  14.003  13.310   3.720
 8386SOL    HW226998  13.930  13.289   3.851
 8387SOL     OW26999   9.752  11.821  11.811
 8387SOL    HW127000   9.717  11.807  11.900
 8387SOL    HW227001   9.765  11.915  11.805
 8388SOL     OW27002  14.760   3.545   9.678
 8388SOL    HW127003  14.781   3.494   9.600
 8388SOL    HW227004  14.784   3.488   9.751
 8389SOL     OW27005   0.144   5.199  10.735
 8389SOL    HW127006   0.060   5.210  10.780
 8389SOL    HW227007   0.153   5.278  10.682
 8390SOL     OW27008  13.048   5.856  10.827
 8390SOL    HW127009  12.990   5.922  10.788
 8390SOL    HW227010  13.077   5.803  10.754
 8391SOL     OW27011  14.646  10.205   5.681
 8391SOL    HW127012  14.572  10.264   5.665
 8391SOL    HW227013  14.686  10.237   5.762
 8392SOL     OW27014  10.659   8.798  13.823
 8392SOL    HW127015  10.633   8.869  13.883
 8392SOL    HW227016  10.583   8.784  13.768
 8393SOL     OW27017   4.947  11.641   0.002
 8393SOL    HW127018   4.901  11.665  14.796
 8393SOL    HW227019   4.982  11.553  14.858
 8394SOL     OW27020   5.697   9.235   1.644
 8394SOL    HW127021   5.782   9.248   1.687
 8394SOL    HW227022   5.719   9.202   1.557
 8395SOL     OW27023  12.752   8.755   8.860
 8395SOL    HW127024  12.756   8.720   8.771
 8395SOL    HW227025  12.709   8.687   8.911
 8396SOL     OW27026   8.934  12.071  13.971
 8396SOL    HW127027   8.884  12.148  13.944
 8396SOL    HW227028   9.011  12.106  14.015
 8397SOL     OW27029   7.236   6.453  11.972
 8397SOL    HW127030   7.220   6.548  11.974
 8397SOL    HW227031   7.326   6.443  12.001
 8398SOL     OW27032   6.309   8.964   2.974
 8398SOL    HW127033   6.333   8.996   3.061
 8398SOL    HW227034   6.215   8.945   2.981
 8399SOL     OW27035   7.755   4.123   9.973
 8399SOL    HW127036   7.761   4.207  10.019
 8399SOL    HW227037   7.676   4.132   9.919
 8400SOL     OW27038   0.559   1.497  14.622
 8400SOL    HW127039   0.539   1.506  14.715
 8400SOL    HW227040   0.474   1.498  14.579
 8401SOL     OW27041   7.653  12.961  12.828
 8401SOL    HW127042   7.643  12.866  12.818
 8401SOL    HW227043   7.741  12.972  12.862
 8402SOL     OW27044   7.455   2.978  10.384
 8402SOL    HW127045   7.420   3.047  10.328
 8402SOL    HW227046   7.420   2.998  10.471
 8403SOL     OW27047   7.606  14.469   7.617
 8403SOL    HW127048   7.640  14.484   7.705
 8403SOL    HW227049   7.652  14.391   7.586
 8404SOL     OW27050   5.793   4.810   4.646
 8404SOL    HW127051   5.728   4.859   4.697
 8404SOL    HW227052   5.761   4.815   4.556
 8405SOL     OW27053  13.740   4.124  11.521
 8405SOL    HW127054  13.800   4.073  11.576
 8405SOL    HW227055  13.680   4.165  11.583
 8406SOL     OW27056   8.172   2.059  12.365
 8406SOL    HW127057   8.201   1.970  12.384
 8406SOL    HW227058   8.250   2.103  12.333
 8407SOL     OW27059   0.485   7.477   0.369
 8407SOL    HW127060   0.483   7.572   0.381
 8407SOL    HW227061   0.578   7.454   0.369
 8408SOL     OW27062   3.888  10.887   2.738
 8408SOL    HW127063   3.844  10.840   2.668
 8408SOL    HW227064   3.981  10.869   2.724
 8409SOL     OW27065   8.765   2.905   3.474
 8409SOL    HW127066   8.822   2.953   3.534
 8409SOL    HW227067   8.806   2.916   3.388
 8410SOL     OW27068   5.707   1.747  12.636
 8410SOL    HW127069   5.798   1.727  12.657
 8410SOL    HW227070   5.690   1.830  12.681
 8411SOL     OW27071   3.803  14.011   5.433
 8411SOL    HW127072   3.822  14.087   5.378
 8411SOL    HW227073   3.806  14.044   5.522
 8412SOL     OW27074  11.666  14.127   7.512
 8412SOL    HW127075  11.674  14.053   7.572
 8412SOL    HW227076  11.751  14.130   7.468
 8413SOL     OW27077   6.609   0.098   3.383
 8413SOL    HW127078   6.627   0.183   3.342
 8413SOL    HW227079   6.696   0.057   3.392
 8414SOL     OW27080   8.791   5.850   5.827
 8414SOL    HW127081   8.740   5.931   5.829
 8414SOL    HW227082   8.844   5.853   5.907
 8415SOL     OW27083   3.368  11.614   0.781
 8415SOL    HW127084   3.297  11.610   0.846
 8415SOL    HW227085   3.398  11.705   0.785
 8416SOL     OW27086   6.522   4.932   1.370
 8416SOL    HW127087   6.571   5.013   1.388
 8416SOL    HW227088   6.431   4.956   1.382
 8417SOL     OW27089  11.718   3.571   0.394
 8417SOL    HW127090  11.700   3.651   0.345
 8417SOL    HW227091  11.796   3.590   0.445
 8418SOL     OW27092   1.585   9.677  14.534
 8418SOL    HW127093   1.569   9.682  14.440
 8418SOL    HW227094   1.586   9.583  14.554
 8419SOL     OW27095   9.913  14.354  11.768
 8419SOL    HW127096  10.009  14.352  11.777
 8419SOL    HW227097   9.898  14.326  11.678
 8420SOL     OW27098  11.291  13.605  12.611
 8420SOL    HW127099  11.236  13.572  12.540
 8420SOL    HW227100  11.267  13.551  12.687
 8421SOL     OW27101   8.445  11.064  12.964
 8421SOL    HW127102   8.505  11.089  12.893
 8421SOL    HW227103   8.498  11.011  13.023
 8422SOL     OW27104   6.827  11.576  12.824
 8422SOL    HW127105   6.882  11.572  12.902
 8422SOL    HW227106   6.782  11.661  12.831
 8423SOL     OW27107  14.724   1.232   4.649
 8423SOL    HW127108  14.639   1.190   4.661
 8423SOL    HW227109  14.785   1.181   4.701
 8424SOL     OW27110  12.550  14.771   8.177
 8424SOL    HW127111  12.590  14.734   8.256
 8424SOL    HW227112  12.469  14.811   8.209
 8425SOL     OW27113   2.490   4.577   4.808
 8425SOL    HW127114   2.544   4.527   4.869
 8425SOL    HW227115   2.552   4.607   4.741
 8426SOL     OW27116   0.926   9.187   1.639
 8426SOL    HW127117   0.889   9.238   1.711
 8426SOL    HW227118   0.851   9.141   1.601
 8427SOL     OW27119  10.739   2.287   1.700
 8427SOL    HW127120  10.721   2.320   1.612
 8427SOL    HW227121  10.658   2.241   1.725
 8428SOL     OW27122   4.552   6.122  14.315
 8428SOL    HW127123   4.640   6.155  14.332
 8428SOL    HW227124   4.559   6.028  14.330
 8429SOL     OW27125   4.601   3.826   6.245
 8429SOL    HW127126   4.635   3.736   6.249
 8429SOL    HW227127   4.550   3.836   6.325
 8430SOL     OW27128  14.514   0.691  10.613
 8430SOL    HW127129  14.477   0.778  10.628
 8430SOL    HW227130  14.566   0.700  10.533
 8431SOL     OW27131   8.067   1.474   2.672
 8431SOL    HW127132   8.102   1.493   2.759
 8431SOL    HW227133   7.986   1.525   2.667
 8432SOL     OW27134  10.651  11.663   4.272
 8432SOL    HW127135  10.743  11.689   4.281
 8432SOL    HW227136  10.644  11.582   4.323
 8433SOL     OW27137  12.073   9.056   7.229
 8433SOL    HW127138  12.062   8.979   7.173
 8433SOL    HW227139  11.993   9.058   7.282
 8434SOL     OW27140   5.878  12.013   4.809
 8434SOL    HW127141   5.807  11.948   4.814
 8434SOL    HW227142   5.848  12.084   4.866
 8435SOL     OW27143   5.313   0.152  11.595
 8435SOL    HW127144   5.245   0.216  11.615
 8435SOL    HW227145   5.265   0.070  11.581
 8436SOL     OW27146  14.685   9.730   1.009
 8436SOL    HW127147  14.640   9.691   1.083
 8436SOL    HW227148  14.724   9.656   0.962
 8437SOL     OW27149   0.108   8.558   0.766
 8437SOL    HW127150   0.058   8.615   0.707
 8437SOL    HW227151   0.042   8.519   0.823
 8438SOL     OW27152   2.342  13.880  12.337
 8438SOL    HW127153   2.323  13.950  12.275
 8438SOL    HW227154   2.261  13.830  12.343
 8439SOL     OW27155  14.819   3.129  11.236
 8439SOL    HW127156   0.028   3.101  11.275
 8439SOL    HW227157  14.764   3.150  11.311
 8440SOL     OW27158   0.079  10.208   3.803
 8440SOL    HW127159   0.097  10.289   3.754
 8440SOL    HW227160   0.140  10.210   3.876
 8441SOL     OW27161   4.956   8.188  11.984
 8441SOL    HW127162   4.916   8.223  11.904
 8441SOL    HW227163   4.882   8.154  12.035
 8442SOL     OW27164   6.091  10.130   4.471
 8442SOL    HW127165   6.180  10.156   4.446
 8442SOL    HW227166   6.100  10.099   4.561
 8443SOL     OW27167   4.797   7.111   3.531
 8443SOL    HW127168   4.832   7.048   3.594
 8443SOL    HW227169   4.781   7.060   3.452
 8444SOL     OW27170   4.613   1.649  12.375
 8444SOL    HW127171   4.596   1.605  12.458
 8444SOL    HW227172   4.706   1.673  12.379
 8445SOL     OW27173   4.076  12.436   9.382
 8445SOL    HW127174   3.985  12.406   9.387
 8445SOL    HW227175   4.090  12.456   9.290
 8446SOL     OW27176  11.789   7.389   5.754
 8446SOL    HW127177  11.696   7.393   5.732
 8446SOL    HW227178  11.817   7.303   5.724
 8447SOL     OW27179   5.087  13.290   5.858
 8447SOL    HW127180   5.053  13.213   5.904
 8447SOL    HW227181   5.175  13.265   5.830
 8448SOL     OW27182   0.459   6.249   2.004
 8448SOL    HW127183   0.407   6.327   2.023
 8448SOL    HW227184   0.515   6.275   1.930
 8449SOL     OW27185   4.019   0.810   2.103
 8449SOL    HW127186   3.971   0.847   2.029
 8449SOL    HW227187   3.955   0.806   2.174
 8450SOL     OW27188   0.318  11.886   2.431
 8450SOL    HW127189   0.311  11.813   2.370
 8450SOL    HW227190   0.307  11.964   2.377
 8451SOL     OW27191   6.303   6.107   8.028
 8451SOL    HW127192   6.260   6.115   7.942
 8451SOL    HW227193   6.275   6.021   8.060
 8452SOL     OW27194   6.190   8.640   9.094
 8452SOL    HW127195   6.098   8.614   9.099
 8452SOL    HW227196   6.238   8.558   9.096
 8453SOL     OW27197  11.790   1.575   9.732
 8453SOL    HW127198  11.695   1.566   9.735
 8453SOL    HW227199  11.823   1.485   9.732
 8454SOL     OW27200  11.781  11.053  12.314
 8454SOL    HW127201  11.743  11.013  12.392
 8454SOL    HW227202  11.789  11.146  12.335
 8455SOL     OW27203   0.611   7.677   6.950
 8455SOL    HW127204   0.627   7.724   6.869
 8455SOL    HW227205   0.526   7.709   6.981
 8456SOL     OW27206   8.312   7.433  11.132
 8456SOL    HW127207   8.340   7.479  11.053
 8456SOL    HW227208   8.393   7.420  11.182
 8457SOL     OW27209   8.453   6.454  10.703
 8457SOL    HW127210   8.463   6.384  10.767
 8457SOL    HW227211   8.438   6.409  10.620
 8458SOL     OW27212  11.518   6.105  14.257
 8458SOL    HW127213  11.460   6.173  14.292
 8458SOL    HW227214  11.464   6.026  14.257
 8459SOL     OW27215   4.980   4.084   2.055
 8459SOL    HW127216   5.010   4.076   1.964
 8459SOL    HW227217   5.006   4.001   2.096
 8460SOL     OW27218  12.959   1.813   7.083
 8460SOL    HW127219  12.968   1.907   7.065
 8460SOL    HW227220  12.885   1.785   7.029
 8461SOL     OW27221   1.252   3.265   8.682
 8461SOL    HW127222   1.203   3.326   8.737
 8461SOL    HW227223   1.190   3.196   8.661
 8462SOL     OW27224  11.407  12.781  11.344
 8462SOL    HW127225  11.435  12.861  11.300
 8462SOL    HW227226  11.455  12.782  11.427
 8463SOL     OW27227   3.989   9.480  11.561
 8463SOL    HW127228   4.063   9.507  11.506
 8463SOL    HW227229   3.990   9.385  11.559
 8464SOL     OW27230   2.672  10.376  12.491
 8464SOL    HW127231   2.667  10.281  12.504
 8464SOL    HW227232   2.581  10.404  12.480
 8465SOL     OW27233   4.986  12.201   5.743
 8465SOL    HW127234   4.941  12.226   5.824
 8465SOL    HW227235   4.940  12.122   5.714
 8466SOL     OW27236   5.493   4.552   5.627
 8466SOL    HW127237   5.482   4.487   5.558
 8466SOL    HW227238   5.566   4.519   5.679
 8467SOL     OW27239   6.061   8.097  14.121
 8467SOL    HW127240   6.097   8.013  14.151
 8467SOL    HW227241   6.052   8.086  14.026
 8468SOL     OW27242   4.822   9.964  14.855
 8468SOL    HW127243   4.862   9.994   0.063
 8468SOL    HW227244   4.894   9.965  14.792
 8469SOL     OW27245  13.573   8.239  14.343
 8469SOL    HW127246  13.547   8.169  14.283
 8469SOL    HW227247  13.525   8.222  14.424
 8470SOL     OW27248  13.532  10.010   6.650
 8470SOL    HW127249  13.561  10.100   6.637
 8470SOL    HW227250  13.456  10.001   6.592
 8471SOL     OW27251   1.140  14.101   7.871
 8471SOL    HW127252   1.189  14.059   7.941
 8471SOL    HW227253   1.188  14.182   7.852
 8472SOL     OW27254  10.570   6.314   2.102
 8472SOL    HW127255  10.534   6.299   2.015
 8472SOL    HW227256  10.624   6.236   2.120
 8473SOL     OW27257   2.976  11.016   9.666
 8473SOL    HW127258   2.995  11.106   9.692
 8473SOL    HW227259   2.997  11.013   9.573
 8474SOL     OW27260   6.483   8.897   8.331
 8474SOL    HW127261   6.530   8.979   8.344
 8474SOL    HW227262   6.552   8.830   8.332
 8475SOL     OW27263   0.168   7.806  14.463
 8475SOL    HW127264   0.259   7.827  14.442
 8475SOL    HW227265   0.118   7.881  14.430
 8476SOL     OW27266   5.600  14.438   9.117
 8476SOL    HW127267   5.624  14.375   9.049
 8476SOL    HW227268   5.683  14.475   9.146
 8477SOL     OW27269  10.166  11.201   0.948
 8477SOL    HW127270  10.221  11.194   1.026
 8477SOL    HW227271  10.080  11.168   0.977
 8478SOL     OW27272   0.442   4.937   4.376
 8478SOL    HW127273   0.388   4.961   4.452
 8478SOL    HW227274   0.493   4.862   4.405
 8479SOL     OW27275  10.919  10.702   2.517
 8479SOL    HW127276  10.927  10.658   2.601
 8479SOL    HW227277  10.956  10.789   2.532
 8480SOL     OW27278  12.822   8.469   0.435
 8480SOL    HW127279  12.843   8.382   0.403
 8480SOL    HW227280  12.758   8.455   0.506
 8481SOL     OW27281   1.653  10.408   9.607
 8481SOL    HW127282   1.572  10.359   9.595
 8481SOL    HW227283   1.636  10.493   9.565
 8482SOL     OW27284  11.427  11.193   1.939
 8482SOL    HW127285  11.428  11.201   1.844
 8482SOL    HW227286  11.335  11.188   1.963
 8483SOL     OW27287   9.767  11.393  10.716
 8483SOL    HW127288   9.697  11.404  10.780
 8483SOL    HW227289   9.722  11.395  10.631
 8484SOL     OW27290   9.085   9.058   2.451
 8484SOL    HW127291   9.024   9.001   2.405
 8484SOL    HW227292   9.089   9.137   2.397
 8485SOL     OW27293  10.803   9.620   5.574
 8485SOL    HW127294  10.720   9.613   5.620
 8485SOL    HW227295  10.780   9.638   5.483
 8486SOL     OW27296   9.619   1.310   5.939
 8486SOL    HW127297   9.546   1.251   5.923
 8486SOL    HW227298   9.693   1.253   5.962
 8487SOL     OW27299   0.154   0.945   7.522
 8487SOL    HW127300   0.221   0.980   7.463
 8487SOL    HW227301   0.078   0.930   7.465
 8488SOL     OW27302   8.030  10.498   5.610
 8488SOL    HW127303   8.028  10.406   5.586
 8488SOL    HW227304   8.095  10.502   5.681
 8489SOL     OW27305   5.229   0.971   1.979
 8489SOL    HW127306   5.310   1.008   1.944
 8489SOL    HW227307   5.253   0.883   2.008
 8490SOL     OW27308   2.745   0.211  13.457
 8490SOL    HW127309   2.824   0.158  13.464
 8490SOL    HW227310   2.673   0.148  13.465
 8491SOL     OW27311   0.253   0.662   4.189
 8491SOL    HW127312   0.307   0.683   4.113
 8491SOL    HW227313   0.315   0.643   4.259
 8492SOL     OW27314   6.007   6.766   2.384
 8492SOL    HW127315   6.040   6.781   2.295
 8492SOL    HW227316   6.069   6.703   2.422
 8493SOL     OW27317   5.557   0.907   6.444
 8493SOL    HW127318   5.538   0.814   6.433
 8493SOL    HW227319   5.640   0.909   6.492
 8494SOL     OW27320   8.796   5.462   3.929
 8494SOL    HW127321   8.821   5.432   4.016
 8494SOL    HW227322   8.709   5.501   3.940
 8495SOL     OW27323   0.243  12.941  10.500
 8495SOL    HW127324   0.310  12.895  10.550
 8495SOL    HW227325   0.193  12.871  10.458
 8496SOL     OW27326  11.618   7.148  10.520
 8496SOL    HW127327  11.710   7.124  10.505
 8496SOL    HW227328  11.576   7.139  10.435
 8497SOL     OW27329   9.689  12.539  14.076
 8497SOL    HW127330   9.706  12.466  14.135
 8497SOL    HW227331   9.766  12.595  14.084
 8498SOL     OW27332   0.100   3.045   0.762
 8498SOL    HW127333   0.190   3.067   0.737
 8498SOL    HW227334   0.079   3.105   0.834
 8499SOL     OW27335   9.518  11.146   9.786
 8499SOL    HW127336   9.582  11.208   9.752
 8499SOL    HW227337   9.442  11.200   9.809
 8500SOL     OW27338   8.277  11.058   8.365
 8500SOL    HW127339   8.354  11.012   8.399
 8500SOL    HW227340   8.204  11.023   8.415
 8501SOL     OW27341  14.123  11.518   4.092
 8501SOL    HW127342  14.159  11.588   4.147
 8501SOL    HW227343  14.071  11.563   4.026
 8502SOL     OW27344  13.727  10.017   8.259
 8502SOL    HW127345  13.684   9.974   8.332
 8502SOL    HW227346  13.786  10.080   8.299
 8503SOL     OW27347   0.028   4.516  14.513
 8503SOL    HW127348   0.056   4.600  14.549
 8503SOL    HW227349   0.075   4.508  14.431
 8504SOL     OW27350  13.939   6.914  14.099
 8504SOL    HW127351  13.919   7.006  14.119
 8504SOL    HW227352  13.898   6.864  14.169
 8505SOL     OW27353   3.040  13.842   2.617
 8505SOL    HW127354   3.039  13.771   2.552
 8505SOL    HW227355   2.949  13.867   2.626
 8506SOL     OW27356   8.539  12.588   1.904
 8506SOL    HW127357   8.551  12.502   1.865
 8506SOL    HW227358   8.627  12.618   1.925
 8507SOL     OW27359   6.271   4.587  12.040
 8507SOL    HW127360   6.361   4.595  12.009
 8507SOL    HW227361   6.266   4.499  12.077
 8508SOL     OW27362  12.481   0.218   6.612
 8508SOL    HW127363  12.553   0.234   6.551
 8508SOL    HW227364  12.503   0.269   6.690
 8509SOL     OW27365   4.903   7.309   2.214
 8509SOL    HW127366   4.879   7.398   2.190
 8509SOL    HW227367   4.997   7.314   2.233
 8510SOL     OW27368   6.003   3.355  13.071
 8510SOL    HW127369   5.940   3.294  13.110
 8510SOL    HW227370   5.992   3.436  13.121
 8511SOL     OW27371  11.753  11.613  13.458
 8511SOL    HW127372  11.807  11.688  13.484
 8511SOL    HW227373  11.724  11.634  13.370
 8512SOL     OW27374   0.618   1.315   8.893
 8512SOL    HW127375   0.549   1.279   8.949
 8512SOL    HW227376   0.591   1.405   8.878
 8513SOL     OW27377   6.203   2.461   2.908
 8513SOL    HW127378   6.184   2.402   2.835
 8513SOL    HW227379   6.194   2.407   2.986
 8514SOL     OW27380  13.033  10.262   6.119
 8514SOL    HW127381  13.036  10.356   6.107
 8514SOL    HW227382  12.941  10.238   6.107
 8515SOL     OW27383   2.070   7.133  10.924
 8515SOL    HW127384   2.121   7.061  10.962
 8515SOL    HW227385   2.135   7.202  10.908
 8516SOL     OW27386  14.396   7.838   8.324
 8516SOL    HW127387  14.304   7.859   8.338
 8516SOL    HW227388  14.415   7.767   8.385
 8517SOL     OW27389   0.201   0.219   1.440
 8517SOL    HW127390   0.176   0.295   1.492
 8517SOL    HW227391   0.119   0.188   1.401
 8518SOL     OW27392   1.517   2.589   8.010
 8518SOL    HW127393   1.583   2.524   8.033
 8518SOL    HW227394   1.475   2.610   8.093
 8519SOL     OW27395   4.651   6.224   1.083
 8519SOL    HW127396   4.714   6.201   1.151
 8519SOL    HW227397   4.570   6.182   1.110
 8520SOL     OW27398  12.870   1.463   7.578
 8520SOL    HW127399  12.827   1.547   7.561
 8520SOL    HW227400  12.933   1.482   7.648
 8521SOL     OW27401  11.579   8.379  13.263
 8521SOL    HW127402  11.563   8.406  13.173
 8521SOL    HW227403  11.615   8.291  13.256
 8522SOL     OW27404   3.306   1.070   1.517
 8522SOL    HW127405   3.233   1.024   1.559
 8522SOL    HW227406   3.265   1.124   1.450
 8523SOL     OW27407   1.179   8.042   3.085
 8523SOL    HW127408   1.167   8.133   3.112
 8523SOL    HW227409   1.098   7.998   3.111
 8524SOL     OW27410   4.463   4.306   2.425
 8524SOL    HW127411   4.373   4.335   2.437
 8524SOL    HW227412   4.505   4.318   2.510
 8525SOL     OW27413   2.769   5.336   5.701
 8525SOL    HW127414   2.717   5.288   5.765
 8525SOL    HW227415   2.783   5.274   5.629
 8526SOL     OW27416  10.988  14.218   2.147
 8526SOL    HW127417  11.008  14.275   2.221
 8526SOL    HW227418  10.893  14.212   2.146
 8527SOL     OW27419   9.150   7.139   4.536
 8527SOL    HW127420   9.089   7.084   4.584
 8527SOL    HW227421   9.121   7.133   4.445
 8528SOL     OW27422   9.543  10.417   7.308
 8528SOL    HW127423   9.576  10.483   7.369
 8528SOL    HW227424   9.478  10.368   7.358
 8529SOL     OW27425   4.385  10.530  13.668
 8529SOL    HW127426   4.349  10.598  13.611
 8529SOL    HW227427   4.462  10.498  13.621
 8530SOL     OW27428   2.492  14.271   7.649
 8530SOL    HW127429   2.439  14.273   7.569
 8530SOL    HW227430   2.429  14.268   7.720
 8531SOL     OW27431  10.146   0.507   5.601
 8531SOL    HW127432  10.112   0.453   5.529
 8531SOL    HW227433  10.216   0.560   5.561
 8532SOL     OW27434   5.239   6.693   7.171
 8532SOL    HW127435   5.223   6.601   7.191
 8532SOL    HW227436   5.156   6.725   7.138
 8533SOL     OW27437   9.984   7.225   3.148
 8533SOL    HW127438   9.913   7.236   3.085
 8533SOL    HW227439  10.023   7.141   3.126
 8534SOL     OW27440   0.078   1.351  11.138
 8534SOL    HW127441   0.096   1.337  11.045
 8534SOL    HW227442  14.863   1.318  11.151
 8535SOL     OW27443  11.362  10.325   1.261
 8535SOL    HW127444  11.411  10.256   1.305
 8535SOL    HW227445  11.394  10.324   1.171
 8536SOL     OW27446   2.799   2.663   4.866
 8536SOL    HW127447   2.819   2.680   4.773
 8536SOL    HW227448   2.885   2.666   4.909
 8537SOL     OW27449   3.573   5.157   1.620
 8537SOL    HW127450   3.509   5.187   1.555
 8537SOL    HW227451   3.542   5.195   1.703
 8538SOL     OW27452   0.375   4.188  11.955
 8538SOL    HW127453   0.462   4.155  11.976
 8538SOL    HW227454   0.390   4.252  11.885
 8539SOL     OW27455  11.281   8.644   0.030
 8539SOL    HW127456  11.345   8.655  14.833
 8539SOL    HW227457  11.266   8.550   0.034
 8540SOL     OW27458   8.751   1.135   7.034
 8540SOL    HW127459   8.815   1.161   7.101
 8540SOL    HW227460   8.803   1.113   6.957
 8541SOL     OW27461  10.655  11.167  10.179
 8541SOL    HW127462  10.613  11.210  10.105
 8541SOL    HW227463  10.660  11.235  10.247
 8542SOL     OW27464   6.478   7.949   4.788
 8542SOL    HW127465   6.512   7.946   4.878
 8542SOL    HW227466   6.387   7.976   4.798
 8543SOL     OW27467   3.987   4.727   7.704
 8543SOL    HW127468   4.034   4.660   7.654
 8543SOL    HW227469   3.901   4.690   7.720
 8544SOL     OW27470  11.808  11.352   3.122
 8544SOL    HW127471  11.900  11.336   3.139
 8544SOL    HW227472  11.804  11.445   3.098
 8545SOL     OW27473   1.270  10.353   9.864
 8545SOL    HW127474   1.251  10.419   9.797
 8545SOL    HW227475   1.259  10.400   9.947
 8546SOL     OW27476  10.067   1.041   5.403
 8546SOL    HW127477  10.130   0.995   5.348
 8546SOL    HW227478  10.019   1.098   5.342
 8547SOL     OW27479  14.295   0.654  11.356
 8547SOL    HW127480  14.202   0.664  11.338
 8547SOL    HW227481  14.332   0.742  11.342
 8548SOL     OW27482  10.796  13.907  14.605
 8548SOL    HW127483  10.716  13.883  14.559
 8548SOL    HW227484  10.765  13.956  14.682
 8549SOL     OW27485   8.251   9.715   0.002
 8549SOL    HW127486   8.245   9.790  14.817
 8549SOL    HW227487   8.329   9.733   0.055
 8550SOL     OW27488  14.374  13.936  14.604
 8550SOL    HW127489  14.305  14.002  14.611
 8550SOL    HW227490  14.326  13.852  14.605
 8551SOL     OW27491   9.249  11.610   2.480
 8551SOL    HW127492   9.154  11.595   2.481
 8551SOL    HW227493   9.260  11.692   2.432
 8552SOL     OW27494   8.046   3.918  12.973
 8552SOL    HW127495   7.981   3.898  13.041
 8552SOL    HW227496   8.031   3.853  12.905
 8553SOL     OW27497  11.862   3.063   4.681
 8553SOL    HW127498  11.801   3.131   4.710
 8553SOL    HW227499  11.939   3.110   4.652
 8554SOL     OW27500   0.299   4.207   6.492
 8554SOL    HW127501   0.352   4.244   6.562
 8554SOL    HW227502   0.285   4.280   6.431
 8555SOL     OW27503   1.941   7.018  13.048
 8555SOL    HW127504   1.948   7.024  13.143
 8555SOL    HW227505   1.958   6.926  13.028
 8556SOL     OW27506  14.246   4.645  14.659
 8556SOL    HW127507  14.315   4.580  14.644
 8556SOL    HW227508  14.171   4.593  14.688
 8557SOL     OW27509   5.882   1.093  14.321
 8557SOL    HW127510   5.790   1.104  14.345
 8557SOL    HW227511   5.915   1.183  14.312
 8558SOL     OW27512   9.193  11.043   0.833
 8558SOL    HW127513   9.186  11.049   0.738
 8558SOL    HW227514   9.117  11.090   0.866
 8559SOL     OW27515  10.523   7.008   5.722
 8559SOL    HW127516  10.609   6.966   5.721
 8559SOL    HW227517  10.465   6.947   5.676
 8560SOL     OW27518  12.346   6.285  10.583
 8560SOL    HW127519  12.346   6.207  10.638
 8560SOL    HW227520  12.285   6.265  10.512
 8561SOL     OW27521   4.467  10.413  14.374
 8561SOL    HW127522   4.448  10.502  14.344
 8561SOL    HW227523   4.512  10.424  14.457
 8562SOL     OW27524   4.999   9.615   3.295
 8562SOL    HW127525   4.924   9.606   3.354
 8562SOL    HW227526   5.075   9.623   3.354
 8563SOL     OW27527   5.690   4.370   4.945
 8563SOL    HW127528   5.617   4.313   4.920
 8563SOL    HW227529   5.714   4.415   4.865
 8564SOL     OW27530  13.567  12.862   9.656
 8564SOL    HW127531  13.500  12.844   9.722
 8564SOL    HW227532  13.536  12.818   9.577
 8565SOL     OW27533   0.768   0.215  10.989
 8565SOL    HW127534   0.696   0.278  10.992
 8565SOL    HW227535   0.736   0.140  11.040
 8566SOL     OW27536   6.269   3.586   7.806
 8566SOL    HW127537   6.360   3.589   7.834
 8566SOL    HW227538   6.218   3.599   7.886
 8567SOL     OW27539   0.813  11.202   6.787
 8567SOL    HW127540   0.762  11.168   6.714
 8567SOL    HW227541   0.893  11.235   6.745
 8568SOL     OW27542  13.723  13.880  12.476
 8568SOL    HW127543  13.673  13.813  12.522
 8568SOL    HW227544  13.785  13.913  12.541
 8569SOL     OW27545  12.791   2.986  12.058
 8569SOL    HW127546  12.764   2.910  12.006
 8569SOL    HW227547  12.790   3.059  11.997
 8570SOL     OW27548  11.806   1.300   3.644
 8570SOL    HW127549  11.833   1.345   3.724
 8570SOL    HW227550  11.886   1.299   3.590
 8571SOL     OW27551   7.320  10.444   9.146
 8571SOL    HW127552   7.246  10.412   9.094
 8571SOL    HW227553   7.358  10.366   9.185
 8572SOL     OW27554   4.093   4.472   3.587
 8572SOL    HW127555   4.170   4.448   3.536
 8572SOL    HW227556   4.027   4.407   3.564
 8573SOL     OW27557   7.662  11.419   3.944
 8573SOL    HW127558   7.747  11.382   3.921
 8573SOL    HW227559   7.668  11.511   3.917
 8574SOL     OW27560   3.525   0.506  11.260
 8574SOL    HW127561   3.578   0.584  11.244
 8574SOL    HW227562   3.498   0.513  11.351
 8575SOL     OW27563  13.067  12.664   4.140
 8575SOL    HW127564  12.982  12.676   4.184
 8575SOL    HW227565  13.058  12.711   4.058
 8576SOL     OW27566  13.118   1.746   4.070
 8576SOL    HW127567  13.081   1.701   4.147
 8576SOL    HW227568  13.201   1.701   4.055
 8577SOL     OW27569  14.312   6.039  10.450
 8577SOL    HW127570  14.389   6.075  10.407
 8577SOL    HW227571  14.238   6.076  10.401
 8578SOL     OW27572  12.518   1.449   5.706
 8578SOL    HW127573  12.464   1.373   5.686
 8578SOL    HW227574  12.480   1.520   5.654
 8579SOL     OW27575   7.607  13.203   6.192
 8579SOL    HW127576   7.629  13.122   6.145
 8579SOL    HW227577   7.516  13.220   6.169
 8580SOL     OW27578   9.859  12.125   8.221
 8580SOL    HW127579   9.898  12.196   8.170
 8580SOL    HW227580   9.860  12.157   8.311
 8581SOL     OW27581   8.264  14.579   5.613
 8581SOL    HW127582   8.232  14.644   5.552
 8581SOL    HW227583   8.360  14.589   5.611
 8582SOL     OW27584   2.084   0.018  10.284
 8582SOL    HW127585   2.161  14.840  10.261
 8582SOL    HW227586   2.102   0.048  10.373
 8583SOL     OW27587  10.147  14.829   5.989
 8583SOL    HW127588  10.153  14.785   6.074
 8583SOL    HW227589  10.134  14.758   5.926
 8584SOL     OW27590   9.406   2.006   0.405
 8584SOL    HW127591   9.368   2.018   0.318
 8584SOL    HW227592   9.489   2.054   0.400
 8585SOL     OW27593   3.376   7.504   3.212
 8585SOL    HW127594   3.448   7.532   3.268
 8585SOL    HW227595   3.297   7.526   3.262
 8586SOL     OW27596   8.305   1.310   5.935
 8586SOL    HW127597   8.304   1.384   5.996
 8586SOL    HW227598   8.380   1.257   5.962
 8587SOL     OW27599  10.325   2.183   5.057
 8587SOL    HW127600  10.277   2.114   5.103
 8587SOL    HW227601  10.407   2.192   5.106
 8588SOL     OW27602   5.152   7.255  14.573
 8588SOL    HW127603   5.100   7.175  14.581
 8588SOL    HW227604   5.096   7.315  14.524
 8589SOL     OW27605   9.508   9.305  11.200
 8589SOL    HW127606   9.421   9.337  11.173
 8589SOL    HW227607   9.520   9.342  11.287
 8590SOL     OW27608   4.393   0.094   0.884
 8590SOL    HW127609   4.422   0.083   0.975
 8590SOL    HW227610   4.457   0.154   0.846
 8591SOL     OW27611   1.358   1.493  11.827
 8591SOL    HW127612   1.381   1.584  11.846
 8591SOL    HW227613   1.350   1.452  11.914
 8592SOL     OW27614   5.249  11.238  12.829
 8592SOL    HW127615   5.195  11.203  12.758
 8592SOL    HW227616   5.339  11.222  12.801
 8593SOL     OW27617   6.657  12.636  14.231
 8593SOL    HW127618   6.639  12.634  14.325
 8593SOL    HW227619   6.738  12.586  14.222
 8594SOL     OW27620   3.809   0.770   6.068
 8594SOL    HW127621   3.772   0.791   5.982
 8594SOL    HW227622   3.778   0.839   6.126
 8595SOL     OW27623   1.070   4.687   5.985
 8595SOL    HW127624   1.022   4.747   6.042
 8595SOL    HW227625   1.023   4.690   5.902
 8596SOL     OW27626   0.345  11.412  13.315
 8596SOL    HW127627   0.425  11.461  13.336
 8596SOL    HW227628   0.374  11.344  13.254
 8597SOL     OW27629   2.087   3.692   3.929
 8597SOL    HW127630   2.117   3.769   3.977
 8597SOL    HW227631   2.117   3.618   3.982
 8598SOL     OW27632   9.276   2.239   4.483
 8598SOL    HW127633   9.328   2.304   4.530
 8598SOL    HW227634   9.341   2.182   4.441
 8599SOL     OW27635  11.669  10.798   4.278
 8599SOL    HW127636  11.634  10.766   4.194
 8599SOL    HW227637  11.611  10.760   4.344
 8600SOL     OW27638   9.681   3.178   7.262
 8600SOL    HW127639   9.653   3.252   7.316
 8600SOL    HW227640   9.646   3.101   7.306
 8601SOL     OW27641  12.564   4.661   9.274
 8601SOL    HW127642  12.491   4.722   9.264
 8601SOL    HW227643  12.547   4.618   9.358
 8602SOL     OW27644  14.038   7.351  13.534
 8602SOL    HW127645  13.952   7.380  13.563
 8602SOL    HW227646  14.047   7.263  13.571
 8603SOL     OW27647   5.542   3.709  11.481
 8603SOL    HW127648   5.620   3.653  11.479
 8603SOL    HW227649   5.577   3.798  11.474
 8604SOL     OW27650  12.012  11.162  13.810
 8604SOL    HW127651  12.058  11.133  13.731
 8604SOL    HW227652  12.065  11.235  13.843
 8605SOL     OW27653  10.711   6.384   4.868
 8605SOL    HW127654  10.774   6.449   4.834
 8605SOL    HW227655  10.717   6.393   4.963
 8606SOL     OW27656  12.857   8.004   3.522
 8606SOL    HW127657  12.790   8.052   3.473
 8606SOL    HW227658  12.893   7.943   3.458
 8607SOL     OW27659   9.981   0.058   2.831
 8607SOL    HW127660   9.960   0.102   2.914
 8607SOL    HW227661  10.024   0.126   2.779
 8608SOL     OW27662   5.075   7.887  10.453
 8608SOL    HW127663   5.096   7.925  10.367
 8608SOL    HW227664   5.142   7.922  10.512
 8609SOL     OW27665   8.025   7.558  11.001
 8609SOL    HW127666   8.040   7.522  10.913
 8609SOL    HW227667   7.945   7.609  10.993
 8610SOL     OW27668  11.372   4.713   5.341
 8610SOL    HW127669  11.284   4.728   5.375
 8610SOL    HW227670  11.365   4.632   5.290
 8611SOL     OW27671   3.324   5.011   3.033
 8611SOL    HW127672   3.394   5.075   3.021
 8611SOL    HW227673   3.331   4.984   3.125
 8612SOL     OW27674  13.360  11.406  12.144
 8612SOL    HW127675  13.454  11.426  12.144
 8612SOL    HW227676  13.325  11.454  12.070
 8613SOL     OW27677   1.942  12.302   7.400
 8613SOL    HW127678   2.024  12.267   7.366
 8613SOL    HW227679   1.963  12.334   7.488
 8614SOL     OW27680   5.570   0.152  12.216
 8614SOL    HW127681   5.616   0.236  12.208
 8614SOL    HW227682   5.505   0.154  12.146
 8615SOL     OW27683  12.798  11.708   6.099
 8615SOL    HW127684  12.854  11.655   6.042
 8615SOL    HW227685  12.835  11.797   6.093
 8616SOL     OW27686  13.431  13.359  12.145
 8616SOL    HW127687  13.431  13.435  12.202
 8616SOL    HW227688  13.495  13.380  12.077
 8617SOL     OW27689   9.780  11.165  13.259
 8617SOL    HW127690   9.832  11.244  13.243
 8617SOL    HW227691   9.712  11.193  13.321
 8618SOL     OW27692   6.833   7.338   7.131
 8618SOL    HW127693   6.808   7.431   7.130
 8618SOL    HW227694   6.870   7.324   7.218
 8619SOL     OW27695  13.757  13.725   0.600
 8619SOL    HW127696  13.674  13.760   0.633
 8619SOL    HW227697  13.812  13.803   0.590
 8620SOL     OW27698   9.895  10.987  13.654
 8620SOL    HW127699   9.854  11.073  13.654
 8620SOL    HW227700   9.929  10.976  13.743
 8621SOL     OW27701   0.014  12.119   1.013
 8621SOL    HW127702   0.029  12.064   0.936
 8621SOL    HW227703   0.075  12.086   1.078
 8622SOL     OW27704   8.178  14.092   9.712
 8622SOL    HW127705   8.183  14.144   9.792
 8622SOL    HW227706   8.164  14.156   9.642
 8623SOL     OW27707  14.054  13.787   6.146
 8623SOL    HW127708  14.106  13.804   6.224
 8623SOL    HW227709  13.989  13.723   6.175
 8624SOL     OW27710   3.959   8.918   7.211
 8624SOL    HW127711   3.912   8.914   7.294
 8624SOL    HW227712   3.937   8.836   7.166
 8625SOL     OW27713   5.500  13.975   2.559
 8625SOL    HW127714   5.441  14.035   2.514
 8625SOL    HW227715   5.470  13.887   2.534
 8626SOL     OW27716   4.811  10.514   9.809
 8626SOL    HW127717   4.858  10.577   9.863
 8626SOL    HW227718   4.830  10.429   9.849
 8627SOL     OW27719   3.605   0.591   8.315
 8627SOL    HW127720   3.638   0.510   8.354
 8627SOL    HW227721   3.679   0.625   8.265
 8628SOL     OW27722  12.849   2.905   3.755
 8628SOL    HW127723  12.832   2.840   3.823
 8628SOL    HW227724  12.945   2.906   3.746
 8629SOL     OW27725  12.881   7.363   0.839
 8629SOL    HW127726  12.928   7.394   0.762
 8629SOL    HW227727  12.809   7.310   0.803
 8630SOL     OW27728   6.048   9.841   2.365
 8630SOL    HW127729   6.101   9.918   2.342
 8630SOL    HW227730   6.011   9.862   2.451
 8631SOL     OW27731   4.277  12.125  14.179
 8631SOL    HW127732   4.324  12.190  14.127
 8631SOL    HW227733   4.315  12.133  14.267
 8632SOL     OW27734   6.882  13.877   8.803
 8632SOL    HW127735   6.830  13.878   8.884
 8632SOL    HW227736   6.844  13.948   8.751
 8633SOL     OW27737   3.747   6.720   2.512
 8633SOL    HW127738   3.746   6.730   2.607
 8633SOL    HW227739   3.825   6.667   2.494
 8634SOL     OW27740   0.667  13.357  11.798
 8634SOL    HW127741   0.652  13.377  11.890
 8634SOL    HW227742   0.721  13.429  11.766
 8635SOL     OW27743  11.042  13.115   2.665
 8635SOL    HW127744  11.074  13.203   2.686
 8635SOL    HW227745  10.947  13.120   2.678
 8636SOL     OW27746   2.111   1.230   4.425
 8636SOL    HW127747   2.140   1.244   4.515
 8636SOL    HW227748   2.190   1.206   4.377
 8637SOL     OW27749   6.687   1.853   2.691
 8637SOL    HW127750   6.706   1.914   2.762
 8637SOL    HW227751   6.661   1.772   2.735
 8638SOL     OW27752  11.300  13.914   2.896
 8638SOL    HW127753  11.267  13.900   2.985
 8638SOL    HW227754  11.391  13.942   2.909
 8639SOL     OW27755   2.899  12.873   1.353
 8639SOL    HW127756   2.941  12.828   1.279
 8639SOL    HW227757   2.875  12.802   1.413
 8640SOL     OW27758   8.407   7.059  13.143
 8640SOL    HW127759   8.476   7.013  13.096
 8640SOL    HW227760   8.334   6.997  13.146
 8641SOL     OW27761   5.544   6.913  11.651
 8641SOL    HW127762   5.505   6.938  11.566
 8641SOL    HW227763   5.486   6.846  11.685
 8642SOL     OW27764   3.769  11.577   7.153
 8642SOL    HW127765   3.854  11.533   7.147
 8642SOL    HW227766   3.757  11.593   7.247
 8643SOL     OW27767  13.585  10.259  11.073
 8643SOL    HW127768  13.495  10.227  11.078
 8643SOL    HW227769  13.630  10.197  11.015
 8644SOL     OW27770  14.769   5.090   7.767
 8644SOL    HW127771  14.838   5.102   7.832
 8644SOL    HW227772  14.710   5.026   7.808
 8645SOL     OW27773   1.869   4.428   1.003
 8645SOL    HW127774   1.780   4.424   0.970
 8645SOL    HW227775   1.862   4.475   1.086
 8646SOL     OW27776   5.890   1.916   8.490
 8646SOL    HW127777   5.834   1.893   8.416
 8646SOL    HW227778   5.963   1.963   8.450
 8647SOL     OW27779   9.956   0.471  10.372
 8647SOL    HW127780  10.002   0.551  10.398
 8647SOL    HW227781  10.025   0.407  10.356
 8648SOL     OW27782  14.751   6.720  14.314
 8648SOL    HW127783  14.824   6.759  14.266
 8648SOL    HW227784  14.793   6.666  14.381
 8649SOL     OW27785   5.015   3.983  13.503
 8649SOL    HW127786   4.922   3.996  13.485
 8649SOL    HW227787   5.059   4.024  13.429
 8650SOL     OW27788   8.146   0.938  11.266
 8650SOL    HW127789   8.101   0.864  11.224
 8650SOL    HW227790   8.218   0.958  11.207
 8651SOL     OW27791  12.052  13.804  14.543
 8651SOL    HW127792  12.021  13.717  14.571
 8651SOL    HW227793  12.044  13.803  14.448
 8652SOL     OW27794  12.535   5.833   1.058
 8652SOL    HW127795  12.563   5.820   0.967
 8652SOL    HW227796  12.524   5.927   1.066
 8653SOL     OW27797   6.851   5.829   1.050
 8653SOL    HW127798   6.940   5.823   1.086
 8653SOL    HW227799   6.864   5.832   0.955
 8654SOL     OW27800   4.227   7.085  12.090
 8654SOL    HW127801   4.273   7.054  12.168
 8654SOL    HW227802   4.229   7.010  12.030
 8655SOL     OW27803  10.940  12.122   2.038
 8655SOL    HW127804  10.999  12.177   2.089
 8655SOL    HW227805  10.853  12.145   2.068
 8656SOL     OW27806  13.986   9.032  11.526
 8656SOL    HW127807  13.979   8.968  11.455
 8656SOL    HW227808  13.971   9.117  11.483
 8657SOL     OW27809  11.709   4.181   8.049
 8657SOL    HW127810  11.680   4.254   7.995
 8657SOL    HW227811  11.766   4.222   8.115
 8658SOL     OW27812  13.655   3.732   5.403
 8658SOL    HW127813  13.740   3.772   5.388
 8658SOL    HW227814  13.659   3.700   5.493
 8659SOL     OW27815  13.780   6.677   9.188
 8659SOL    HW127816  13.828   6.745   9.140
 8659SOL    HW227817  13.750   6.616   9.119
 8660SOL     OW27818   8.608   7.999   0.942
 8660SOL    HW127819   8.555   7.984   0.864
 8660SOL    HW227820   8.547   7.993   1.015
 8661SOL     OW27821   5.871   2.850   9.875
 8661SOL    HW127822   5.946   2.797   9.848
 8661SOL    HW227823   5.894   2.939   9.852
 8662SOL     OW27824   8.157   8.401   3.280
 8662SOL    HW127825   8.218   8.454   3.229
 8662SOL    HW227826   8.153   8.317   3.234
 8663SOL     OW27827   7.275   3.254  11.418
 8663SOL    HW127828   7.354   3.283  11.465
 8663SOL    HW227829   7.203   3.298  11.463
 8664SOL     OW27830   8.906   3.746  10.358
 8664SOL    HW127831   8.903   3.665  10.410
 8664SOL    HW227832   8.821   3.749  10.314
 8665SOL     OW27833  11.816  12.631  12.026
 8665SOL    HW127834  11.758  12.704  12.002
 8665SOL    HW227835  11.898  12.674  12.051
 8666SOL     OW27836  13.971   6.876   1.512
 8666SOL    HW127837  13.928   6.894   1.596
 8666SOL    HW227838  14.064   6.891   1.530
 8667SOL     OW27839  12.747   4.000   5.022
 8667SOL    HW127840  12.771   3.908   5.034
 8667SOL    HW227841  12.803   4.048   5.083
 8668SOL     OW27842   1.447   5.575   6.795
 8668SOL    HW127843   1.362   5.597   6.833
 8668SOL    HW227844   1.451   5.626   6.714
 8669SOL     OW27845  13.154  14.613   3.279
 8669SOL    HW127846  13.191  14.581   3.197
 8669SOL    HW227847  13.112  14.696   3.255
 8670SOL     OW27848  14.557   0.476   9.394
 8670SOL    HW127849  14.469   0.446   9.416
 8670SOL    HW227850  14.544   0.547   9.331
 8671SOL     OW27851   8.271  11.756   8.526
 8671SOL    HW127852   8.272  11.832   8.584
 8671SOL    HW227853   8.241  11.790   8.442
 8672SOL     OW27854  10.950   8.277   7.275
 8672SOL    HW127855  10.934   8.363   7.237
 8672SOL    HW227856  10.866   8.251   7.314
 8673SOL     OW27857   0.715  14.677  10.724
 8673SOL    HW127858   0.720  14.773  10.731
 8673SOL    HW227859   0.805  14.650  10.706
 8674SOL     OW27860   8.596  14.022   9.910
 8674SOL    HW127861   8.540  14.088   9.869
 8674SOL    HW227862   8.685  14.049   9.887
 8675SOL     OW27863  13.075   7.292   1.038
 8675SOL    HW127864  13.026   7.220   1.079
 8675SOL    HW227865  13.011   7.334   0.980
 8676SOL     OW27866  12.702   2.488  10.737
 8676SOL    HW127867  12.646   2.564  10.754
 8676SOL    HW227868  12.644   2.413  10.750
 8677SOL     OW27869   1.606  14.707   9.119
 8677SOL    HW127870   1.659  14.782   9.092
 8677SOL    HW227871   1.516  14.732   9.100
 8678SOL     OW27872  13.937   2.724  11.409
 8678SOL    HW127873  13.964   2.724  11.317
 8678SOL    HW227874  14.006   2.677  11.455
 8679SOL     OW27875   0.543   0.801   9.522
 8679SOL    HW127876   0.568   0.709   9.518
 8679SOL    HW227877   0.522   0.816   9.614
 8680SOL     OW27878   2.154  14.039   0.710
 8680SOL    HW127879   2.099  14.088   0.648
 8680SOL    HW227880   2.107  14.046   0.794
 8681SOL     OW27881  11.751   3.937   9.142
 8681SOL    HW127882  11.677   3.985   9.180
 8681SOL    HW227883  11.820   3.943   9.208
 8682SOL     OW27884   6.842   0.880  13.341
 8682SOL    HW127885   6.836   0.974  13.325
 8682SOL    HW227886   6.816   0.870  13.433
 8683SOL     OW27887  12.082  11.355   7.848
 8683SOL    HW127888  12.130  11.366   7.766
 8683SOL    HW227889  12.094  11.262   7.870
 8684SOL     OW27890   3.414  10.920   8.819
 8684SOL    HW127891   3.445  11.001   8.777
 8684SOL    HW227892   3.333  10.899   8.773
 8685SOL     OW27893   1.495   3.574  10.854
 8685SOL    HW127894   1.461   3.489  10.828
 8685SOL    HW227895   1.582   3.556  10.889
 8686SOL     OW27896   5.038   3.174  10.651
 8686SOL    HW127897   5.042   3.262  10.688
 8686SOL    HW227898   4.945   3.158  10.636
 8687SOL     OW27899   4.218   8.765   5.123
 8687SOL    HW127900   4.212   8.707   5.199
 8687SOL    HW227901   4.178   8.715   5.052
 8688SOL     OW27902   4.096   8.393   8.136
 8688SOL    HW127903   4.028   8.355   8.081
 8688SOL    HW227904   4.165   8.419   8.075
 8689SOL     OW27905   8.874  13.815   3.144
 8689SOL    HW127906   8.907  13.882   3.205
 8689SOL    HW227907   8.848  13.742   3.201
 8690SOL     OW27908   5.904   2.625  11.309
 8690SOL    HW127909   5.837   2.677  11.265
 8690SOL    HW227910   5.972   2.689  11.332
 8691SOL     OW27911   2.659  11.775   8.295
 8691SOL    HW127912   2.674  11.688   8.334
 8691SOL    HW227913   2.746  11.814   8.289
 8692SOL     OW27914   6.061   8.155   7.831
 8692SOL    HW127915   5.999   8.177   7.900
 8692SOL    HW227916   6.016   8.178   7.750
 8693SOL     OW27917   1.282   3.887   1.296
 8693SOL    HW127918   1.295   3.974   1.333
 8693SOL    HW227919   1.304   3.827   1.366
 8694SOL     OW27920   0.645   4.485   3.933
 8694SOL    HW127921   0.715   4.546   3.954
 8694SOL    HW227922   0.638   4.429   4.011
 8695SOL     OW27923  11.056  12.834   8.750
 8695SOL    HW127924  11.102  12.875   8.824
 8695SOL    HW227925  11.004  12.764   8.790
 8696SOL     OW27926   7.715   5.362  12.807
 8696SOL    HW127927   7.761   5.395  12.884
 8696SOL    HW227928   7.710   5.438  12.748
 8697SOL     OW27929  10.087  10.362   5.427
 8697SOL    HW127930  10.077  10.361   5.523
 8697SOL    HW227931   9.998  10.371   5.393
 8698SOL     OW27932   9.121   3.563  13.074
 8698SOL    HW127933   9.170   3.593  13.150
 8698SOL    HW227934   9.117   3.639  13.017
 8699SOL     OW27935  12.129  13.474  10.487
 8699SOL    HW127936  12.119  13.383  10.515
 8699SOL    HW227937  12.222  13.493  10.500
 8700SOL     OW27938  14.823   5.203   5.390
 8700SOL    HW127939   0.018   5.173   5.449
 8700SOL    HW227940  14.759   5.245   5.448
 8701SOL     OW27941  11.448  10.597   2.971
 8701SOL    HW127942  11.501  10.671   3.000
 8701SOL    HW227943  11.359  10.618   3.000
 8702SOL     OW27944  13.461   4.674   0.856
 8702SOL    HW127945  13.523   4.643   0.922
 8702SOL    HW227946  13.505   4.659   0.773
 8703SOL     OW27947   6.553   1.504  12.681
 8703SOL    HW127948   6.535   1.482  12.773
 8703SOL    HW227949   6.554   1.420  12.636
 8704SOL     OW27950   7.747   9.825  14.689
 8704SOL    HW127951   7.832   9.834  14.646
 8704SOL    HW227952   7.691   9.785  14.622
 8705SOL     OW27953  14.204   6.232  10.241
 8705SOL    HW127954  14.260   6.194  10.173
 8705SOL    HW227955  14.115   6.224  10.207
 8706SOL     OW27956  14.429   0.333   0.907
 8706SOL    HW127957  14.379   0.259   0.940
 8706SOL    HW227958  14.451   0.309   0.816
 8707SOL     OW27959  12.591  11.755   2.543
 8707SOL    HW127960  12.559  11.669   2.573
 8707SOL    HW227961  12.512  11.809   2.537
 8708SOL     OW27962  11.884   3.876   2.079
 8708SOL    HW127963  11.923   3.793   2.107
 8708SOL    HW227964  11.803   3.851   2.035
 8709SOL     OW27965   9.870   9.161   8.583
 8709SOL    HW127966   9.898   9.169   8.492
 8709SOL    HW227967   9.781   9.126   8.578
 8710SOL     OW27968   0.577  12.401  11.511
 8710SOL    HW127969   0.653  12.388  11.568
 8710SOL    HW227970   0.603  12.361  11.428
 8711SOL     OW27971   9.624  14.423  12.820
 8711SOL    HW127972   9.544  14.397  12.774
 8711SOL    HW227973   9.594  14.448  12.908
 8712SOL     OW27974   3.942  10.781   4.765
 8712SOL    HW127975   3.986  10.805   4.846
 8712SOL    HW227976   3.850  10.806   4.779
 8713SOL     OW27977   8.513   6.756   1.271
 8713SOL    HW127978   8.597   6.721   1.241
 8713SOL    HW227979   8.497   6.832   1.215
 8714SOL     OW27980   0.415   0.665  10.028
 8714SOL    HW127981   0.402   0.576   9.994
 8714SOL    HW227982   0.392   0.659  10.120
 8715SOL     OW27983   6.981   9.495   1.824
 8715SOL    HW127984   6.962   9.521   1.734
 8715SOL    HW227985   7.071   9.463   1.820
 8716SOL     OW27986   7.238  14.818  13.111
 8716SOL    HW127987   7.317  14.806  13.060
 8716SOL    HW227988   7.235  14.742  13.170
 8717SOL     OW27989  11.014  10.314   9.550
 8717SOL    HW127990  11.062  10.248   9.600
 8717SOL    HW227991  11.082  10.369   9.511
 8718SOL     OW27992  14.359  10.224   9.655
 8718SOL    HW127993  14.351  10.131   9.675
 8718SOL    HW227994  14.269  10.255   9.645
 8719SOL     OW27995   5.031   6.860   3.653
 8719SOL    HW127996   5.081   6.905   3.721
 8719SOL    HW227997   5.069   6.893   3.571
 8720SOL     OW27998   8.881   0.125  13.871
 8720SOL    HW127999   8.915   0.063  13.806
 8720SOL    HW228000   8.943   0.122  13.943
 8721SOL     OW28001   5.127   6.171   8.611
 8721SOL    HW128002   5.108   6.157   8.519
 8721SOL    HW228003   5.173   6.255   8.614
 8722SOL     OW28004  14.138   8.969   9.305
 8722SOL    HW128005  14.088   8.893   9.335
 8722SOL    HW228006  14.107   8.986   9.217
 8723SOL     OW28007   0.272   4.644   1.005
 8723SOL    HW128008   0.356   4.687   0.991
 8723SOL    HW228009   0.208   4.703   0.967
 8724SOL     OW28010  14.613  13.520  10.410
 8724SOL    HW128011  14.620  13.502  10.316
 8724SOL    HW228012  14.670  13.596  10.424
 8725SOL     OW28013   5.448  13.337   6.521
 8725SOL    HW128014   5.512  13.393   6.564
 8725SOL    HW228015   5.363  13.370   6.551
 8726SOL     OW28016   7.683  10.309   1.336
 8726SOL    HW128017   7.622  10.267   1.276
 8726SOL    HW228018   7.641  10.302   1.422
 8727SOL     OW28019   5.012   5.530   0.206
 8727SOL    HW128020   5.066   5.505   0.131
 8727SOL    HW228021   5.013   5.453   0.263
 8728SOL     OW28022   1.098   3.165   3.811
 8728SOL    HW128023   1.124   3.211   3.891
 8728SOL    HW228024   1.044   3.092   3.842
 8729SOL     OW28025   4.890  13.764  12.706
 8729SOL    HW128026   4.868  13.792  12.795
 8729SOL    HW228027   4.954  13.693  12.718
 8730SOL     OW28028   3.283   9.250  12.674
 8730SOL    HW128029   3.215   9.224  12.612
 8730SOL    HW228030   3.344   9.303  12.623
 8731SOL     OW28031   8.704   9.719   6.495
 8731SOL    HW128032   8.781   9.724   6.551
 8731SOL    HW228033   8.685   9.810   6.472
 8732SOL     OW28034   5.801   2.877  13.616
 8732SOL    HW128035   5.827   2.965  13.644
 8732SOL    HW228036   5.707   2.885  13.597
 8733SOL     OW28037  14.447   0.290   4.322
 8733SOL    HW128038  14.385   0.216   4.324
 8733SOL    HW228039  14.533   0.248   4.324
 8734SOL     OW28040  11.751   9.170   3.237
 8734SOL    HW128041  11.764   9.264   3.224
 8734SOL    HW228042  11.677   9.148   3.180
 8735SOL     OW28043  10.896   4.521  10.045
 8735SOL    HW128044  10.940   4.594  10.001
 8735SOL    HW228045  10.961   4.485  10.104
 8736SOL     OW28046  10.873   3.725   1.510
 8736SOL    HW128047  10.864   3.669   1.587
 8736SOL    HW228048  10.936   3.679   1.454
 8737SOL     OW28049   2.351  13.441   3.890
 8737SOL    HW128050   2.372  13.350   3.911
 8737SOL    HW228051   2.263  13.454   3.924
 8738SOL     OW28052   6.971   9.042   2.585
 8738SOL    HW128053   6.987   8.951   2.559
 8738SOL    HW228054   6.946   9.085   2.503
 8739SOL     OW28055   7.046  14.384  12.117
 8739SOL    HW128056   6.992  14.395  12.195
 8739SOL    HW228057   7.136  14.380  12.151
 8740SOL     OW28058   7.729   8.296   5.261
 8740SOL    HW128059   7.646   8.266   5.298
 8740SOL    HW228060   7.724   8.391   5.265
 8741SOL     OW28061   8.684   8.290   7.765
 8741SOL    HW128062   8.603   8.243   7.747
 8741SOL    HW228063   8.668   8.379   7.732
 8742SOL     OW28064   2.604  10.426   3.607
 8742SOL    HW128065   2.692  10.401   3.580
 8742SOL    HW228066   2.601  10.521   3.595
 8743SOL     OW28067   4.352  10.416   7.124
 8743SOL    HW128068   4.347  10.510   7.143
 8743SOL    HW228069   4.387  10.412   7.036
 8744SOL     OW28070   1.948  13.785   7.614
 8744SOL    HW128071   1.910  13.710   7.659
 8744SOL    HW228072   1.992  13.835   7.683
 8745SOL     OW28073  11.621  12.681  13.813
 8745SOL    HW128074  11.710  12.674  13.779
 8745SOL    HW228075  11.586  12.760  13.773
 8746SOL     OW28076   4.845   9.874  10.701
 8746SOL    HW128077   4.940   9.882  10.705
 8746SOL    HW228078   4.818   9.861  10.792
 8747SOL     OW28079   7.431   4.655  13.579
 8747SOL    HW128080   7.410   4.659  13.673
 8747SOL    HW228081   7.403   4.740  13.546
 8748SOL     OW28082   6.385  14.491   9.769
 8748SOL    HW128083   6.399  14.498   9.864
 8748SOL    HW228084   6.435  14.414   9.743
 8749SOL     OW28085  13.942  14.005  13.776
 8749SOL    HW128086  14.032  13.977  13.788
 8749SOL    HW228087  13.946  14.067  13.702
 8750SOL     OW28088   6.592  12.098   0.584
 8750SOL    HW128089   6.610  12.117   0.677
 8750SOL    HW228090   6.669  12.049   0.554
 8751SOL     OW28091   8.084   9.377   4.809
 8751SOL    HW128092   8.004   9.397   4.858
 8751SOL    HW228093   8.148   9.353   4.876
 8752SOL     OW28094   9.555  12.599   0.696
 8752SOL    HW128095   9.492  12.671   0.696
 8752SOL    HW228096   9.602  12.607   0.612
 8753SOL     OW28097   5.653  10.054   0.211
 8753SOL    HW128098   5.607  10.028   0.290
 8753SOL    HW228099   5.746  10.050   0.235
 8754SOL     OW28100  12.401   5.832   9.382
 8754SOL    HW128101  12.357   5.843   9.466
 8754SOL    HW228102  12.430   5.921   9.358
 8755SOL     OW28103   7.111   7.950   0.772
 8755SOL    HW128104   7.120   7.855   0.779
 8755SOL    HW228105   7.052   7.974   0.843
 8756SOL     OW28106   8.709   7.097   4.709
 8756SOL    HW128107   8.711   7.014   4.756
 8756SOL    HW228108   8.645   7.083   4.639
 8757SOL     OW28109  11.575   7.183   4.939
 8757SOL    HW128110  11.502   7.224   4.985
 8757SOL    HW228111  11.535   7.147   4.859
 8758SOL     OW28112  10.088  10.487   4.037
 8758SOL    HW128113  10.051  10.537   4.109
 8758SOL    HW228114  10.135  10.415   4.079
 8759SOL     OW28115   0.355  14.622  12.912
 8759SOL    HW128116   0.307  14.705  12.908
 8759SOL    HW228117   0.399  14.624  12.996
 8760SOL     OW28118   6.097   9.020   1.521
 8760SOL    HW128119   6.118   8.967   1.599
 8760SOL    HW228120   6.105   9.110   1.551
 8761SOL     OW28121   0.787  14.377   4.382
 8761SOL    HW128122   0.846  14.302   4.366
 8761SOL    HW228123   0.725  14.375   4.310
 8762SOL     OW28124  10.624   9.391  14.595
 8762SOL    HW128125  10.642   9.303  14.626
 8762SOL    HW228126  10.660   9.394  14.506
 8763SOL     OW28127   6.290   1.687   3.843
 8763SOL    HW128128   6.282   1.764   3.786
 8763SOL    HW228129   6.376   1.697   3.885
 8764SOL     OW28130   3.254   3.559   8.489
 8764SOL    HW128131   3.233   3.507   8.412
 8764SOL    HW228132   3.345   3.536   8.509
 8765SOL     OW28133   4.544   6.513   6.424
 8765SOL    HW128134   4.455   6.547   6.411
 8765SOL    HW228135   4.537   6.420   6.403
 8766SOL     OW28136  10.399  12.969   0.995
 8766SOL    HW128137  10.486  12.944   1.026
 8766SOL    HW228138  10.341  12.898   1.024
 8767SOL     OW28139   7.694   8.786   7.616
 8767SOL    HW128140   7.709   8.729   7.541
 8767SOL    HW228141   7.756   8.755   7.682
 8768SOL     OW28142   9.711   4.481   0.746
 8768SOL    HW128143   9.663   4.564   0.747
 8768SOL    HW228144   9.717   4.455   0.838
 8769SOL     OW28145  12.639  10.336  13.263
 8769SOL    HW128146  12.690  10.255  13.260
 8769SOL    HW228147  12.627  10.353  13.356
 8770SOL     OW28148   5.656   4.263   0.533
 8770SOL    HW128149   5.722   4.283   0.467
 8770SOL    HW228150   5.654   4.340   0.590
 8771SOL     OW28151  13.474  13.579   4.672
 8771SOL    HW128152  13.393  13.629   4.659
 8771SOL    HW228153  13.460  13.499   4.623
 8772SOL     OW28154   1.190   4.772   8.446
 8772SOL    HW128155   1.261   4.728   8.493
 8772SOL    HW228156   1.129   4.799   8.515
 8773SOL     OW28157   2.075   8.979   3.324
 8773SOL    HW128158   2.080   9.042   3.252
 8773SOL    HW228159   2.162   8.979   3.362
 8774SOL     OW28160   7.907  11.948  12.800
 8774SOL    HW128161   7.863  11.871  12.766
 8774SOL    HW228162   7.895  11.942  12.895
 8775SOL     OW28163  12.543   9.989  11.636
 8775SOL    HW128164  12.465  10.021  11.682
 8775SOL    HW228165  12.587  10.068  11.605
 8776SOL     OW28166   0.004   8.137  13.123
 8776SOL    HW128167  14.864   8.226  13.156
 8776SOL    HW228168   0.041   8.150  13.036
 8777SOL     OW28169   5.089   6.143   9.550
 8777SOL    HW128170   5.177   6.106   9.554
 8777SOL    HW228171   5.057   6.120   9.462
 8778SOL     OW28172  13.474   5.800   3.097
 8778SOL    HW128173  13.525   5.881   3.098
 8778SOL    HW228174  13.386   5.827   3.072
 8779SOL     OW28175   3.670   6.818   9.436
 8779SOL    HW128176   3.613   6.767   9.379
 8779SOL    HW228177   3.717   6.877   9.377
 8780SOL     OW28178   5.945   2.791   9.338
 8780SOL    HW128179   5.979   2.813   9.424
 8780SOL    HW228180   5.850   2.796   9.348
 8781SOL     OW28181   9.437  13.850   0.891
 8781SOL    HW128182   9.467  13.805   0.971
 8781SOL    HW228183   9.431  13.781   0.826
 8782SOL     OW28184  11.043   3.410   0.715
 8782SOL    HW128185  11.084   3.430   0.631
 8782SOL    HW228186  10.952   3.392   0.694
 8783SOL     OW28187  10.459  10.093   7.062
 8783SOL    HW128188  10.520  10.033   7.019
 8783SOL    HW228189  10.426  10.043   7.137
 8784SOL     OW28190  11.288  10.300   6.532
 8784SOL    HW128191  11.289  10.268   6.441
 8784SOL    HW228192  11.363  10.257   6.573
 8785SOL     OW28193  12.774   8.297   0.848
 8785SOL    HW128194  12.866   8.273   0.855
 8785SOL    HW228195  12.748   8.316   0.938
 8786SOL     OW28196   7.592   2.325   2.634
 8786SOL    HW128197   7.657   2.260   2.607
 8786SOL    HW228198   7.522   2.274   2.674
 8787SOL     OW28199  12.786   1.417   3.783
 8787SOL    HW128200  12.821   1.506   3.790
 8787SOL    HW228201  12.754   1.396   3.871
 8788SOL     OW28202   8.257   5.892   3.210
 8788SOL    HW128203   8.297   5.809   3.185
 8788SOL    HW228204   8.188   5.868   3.272
 8789SOL     OW28205   7.269   5.690   9.023
 8789SOL    HW128206   7.219   5.725   9.097
 8789SOL    HW228207   7.253   5.751   8.951
 8790SOL     OW28208  10.343  14.154   1.608
 8790SOL    HW128209  10.353  14.240   1.566
 8790SOL    HW228210  10.431  14.132   1.639
 8791SOL     OW28211   6.855   0.875  10.750
 8791SOL    HW128212   6.933   0.870  10.695
 8791SOL    HW228213   6.807   0.951  10.716
 8792SOL     OW28214   0.514  14.837   5.592
 8792SOL    HW128215   0.507  14.748   5.557
 8792SOL    HW228216   0.604  14.842   5.625
 8793SOL     OW28217   6.480   0.479   3.790
 8793SOL    HW128218   6.395   0.510   3.756
 8793SOL    HW228219   6.482   0.509   3.880
 8794SOL     OW28220   0.643   1.440  13.175
 8794SOL    HW128221   0.653   1.491  13.094
 8794SOL    HW228222   0.639   1.349  13.146
 8795SOL     OW28223  12.034  10.790  12.391
 8795SOL    HW128224  12.070  10.792  12.303
 8795SOL    HW228225  12.097  10.740  12.443
 8796SOL     OW28226   6.484  10.644  11.176
 8796SOL    HW128227   6.540  10.587  11.123
 8796SOL    HW228228   6.484  10.604  11.263
 8797SOL     OW28229  10.796  14.370  11.639
 8797SOL    HW128230  10.798  14.354  11.733
 8797SOL    HW228231  10.865  14.434  11.624
 8798SOL     OW28232  11.170   3.228   6.468
 8798SOL    HW128233  11.182   3.240   6.374
 8798SOL    HW228234  11.255   3.250   6.506
 8799SOL     OW28235  13.571  10.555   6.120
 8799SOL    HW128236  13.498  10.616   6.126
 8799SOL    HW228237  13.536  10.480   6.073
 8800SOL     OW28238   4.756  13.411   5.897
 8800SOL    HW128239   4.820  13.444   5.960
 8800SOL    HW228240   4.786  13.322   5.878
 8801SOL     OW28241  14.347   4.979  11.447
 8801SOL    HW128242  14.355   5.074  11.456
 8801SOL    HW228243  14.294   4.953  11.522
 8802SOL     OW28244   3.851   6.826  10.159
 8802SOL    HW128245   3.932   6.842  10.110
 8802SOL    HW228246   3.782   6.866  10.106
 8803SOL     OW28247  12.171   9.047   5.808
 8803SOL    HW128248  12.229   9.113   5.846
 8803SOL    HW228249  12.098   9.041   5.869
 8804SOL     OW28250  10.979  11.326   5.317
 8804SOL    HW128251  10.906  11.385   5.298
 8804SOL    HW228252  11.045  11.381   5.358
 8805SOL     OW28253   0.028   4.809   1.999
 8805SOL    HW128254   0.056   4.894   1.965
 8805SOL    HW228255  14.832   4.782   1.940
 8806SOL     OW28256  13.217   0.742   7.827
 8806SOL    HW128257  13.153   0.744   7.756
 8806SOL    HW228258  13.166   0.723   7.905
 8807SOL     OW28259   8.006   2.971   4.649
 8807SOL    HW128260   8.029   3.010   4.733
 8807SOL    HW228261   8.081   2.990   4.593
 8808SOL     OW28262   3.010  11.226   1.119
 8808SOL    HW128263   3.016  11.221   1.214
 8808SOL    HW228264   3.002  11.319   1.100
 8809SOL     OW28265   5.204   7.621   4.610
 8809SOL    HW128266   5.208   7.557   4.538
 8809SOL    HW228267   5.193   7.705   4.566
 8810SOL     OW28268   9.176  12.099   4.847
 8810SOL    HW128269   9.180  12.006   4.869
 8810SOL    HW228270   9.193  12.102   4.753
 8811SOL     OW28271   3.311   1.253  13.490
 8811SOL    HW128272   3.407   1.250  13.492
 8811SOL    HW228273   3.290   1.286  13.402
 8812SOL     OW28274  10.985   5.596   5.444
 8812SOL    HW128275  11.070   5.628   5.473
 8812SOL    HW228276  10.932   5.675   5.431
 8813SOL     OW28277   6.931  13.352   7.188
 8813SOL    HW128278   6.872  13.340   7.262
 8813SOL    HW228279   7.018  13.338   7.225
 8814SOL     OW28280  13.192   5.402  13.298
 8814SOL    HW128281  13.132   5.474  13.314
 8814SOL    HW228282  13.187   5.349  13.378
 8815SOL     OW28283  10.727   5.870  11.093
 8815SOL    HW128284  10.639   5.861  11.056
 8815SOL    HW228285  10.756   5.957  11.066
 8816SOL     OW28286  13.627  13.989   4.509
 8816SOL    HW128287  13.683  13.940   4.569
 8816SOL    HW228288  13.645  14.081   4.529
 8817SOL     OW28289   0.604   5.685   6.315
 8817SOL    HW128290   0.592   5.681   6.220
 8817SOL    HW228291   0.661   5.760   6.329
 8818SOL     OW28292   6.336  13.801   1.774
 8818SOL    HW128293   6.257  13.799   1.828
 8818SOL    HW228294   6.372  13.889   1.787
 8819SOL     OW28295  12.881  11.110   4.956
 8819SOL    HW128296  12.921  11.193   4.978
 8819SOL    HW228297  12.896  11.054   5.032
 8820SOL     OW28298  12.319   0.723   4.791
 8820SOL    HW128299  12.395   0.702   4.845
 8820SOL    HW228300  12.318   0.655   4.723
 8821SOL     OW28301  11.995   3.190  10.784
 8821SOL    HW128302  12.015   3.245  10.708
 8821SOL    HW228303  12.080   3.165  10.819
 8822SOL     OW28304   3.668   3.728   7.806
 8822SOL    HW128305   3.691   3.797   7.868
 8822SOL    HW228306   3.741   3.667   7.808
 8823SOL     OW28307  12.085  13.708   2.004
 8823SOL    HW128308  12.094  13.625   1.958
 8823SOL    HW228309  12.048  13.768   1.939
 8824SOL     OW28310   3.425  11.087   9.022
 8824SOL    HW128311   3.438  11.021   8.954
 8824SOL    HW228312   3.376  11.157   8.977
 8825SOL     OW28313   5.803  10.404   8.898
 8825SOL    HW128314   5.794  10.390   8.803
 8825SOL    HW228315   5.874  10.346   8.924
 8826SOL     OW28316   9.325   8.098   7.098
 8826SOL    HW128317   9.345   8.007   7.121
 8826SOL    HW228318   9.248   8.092   7.042
 8827SOL     OW28319  10.821   0.869   6.627
 8827SOL    HW128320  10.747   0.914   6.667
 8827SOL    HW228321  10.827   0.785   6.673
 8828SOL     OW28322   4.771   5.524  12.780
 8828SOL    HW128323   4.794   5.520  12.872
 8828SOL    HW228324   4.715   5.602  12.773
 8829SOL     OW28325   2.805  11.905   2.616
 8829SOL    HW128326   2.755  11.867   2.688
 8829SOL    HW228327   2.753  11.887   2.538
 8830SOL     OW28328   6.659   8.186   6.957
 8830SOL    HW128329   6.663   8.189   6.861
 8830SOL    HW228330   6.643   8.277   6.982
 8831SOL     OW28331  10.494  13.240   2.776
 8831SOL    HW128332  10.413  13.238   2.725
 8831SOL    HW228333  10.473  13.297   2.850
 8832SOL     OW28334  10.102  13.145   8.616
 8832SOL    HW128335  10.135  13.059   8.591
 8832SOL    HW228336  10.011  13.130   8.641
 8833SOL     OW28337   8.317   5.158   0.988
 8833SOL    HW128338   8.290   5.249   0.976
 8833SOL    HW228339   8.301   5.141   1.081
 8834SOL     OW28340  11.801   2.925   5.452
 8834SOL    HW128341  11.826   2.865   5.383
 8834SOL    HW228342  11.759   2.998   5.407
 8835SOL     OW28343   1.212   3.942  12.070
 8835SOL    HW128344   1.233   3.911  11.982
 8835SOL    HW228345   1.121   3.914  12.084
 8836SOL     OW28346   6.447   1.408  13.707
 8836SOL    HW128347   6.359   1.432  13.737
 8836SOL    HW228348   6.505   1.463  13.760
 8837SOL     OW28349   4.145   8.556  10.296
 8837SOL    HW128350   4.175   8.644  10.273
 8837SOL    HW228351   4.067   8.542  10.243
 8838SOL     OW28352  13.920   1.554  14.015
 8838SOL    HW128353  13.910   1.640  14.055
 8838SOL    HW228354  13.848   1.548  13.952
 8839SOL     OW28355  10.190  13.657   5.277
 8839SOL    HW128356  10.239  13.736   5.299
 8839SOL    HW228357  10.103  13.672   5.315
 8840SOL     OW28358  13.453   5.188   3.666
 8840SOL    HW128359  13.396   5.117   3.635
 8840SOL    HW228360  13.460   5.248   3.592
 8841SOL     OW28361   9.960  14.403   2.722
 8841SOL    HW128362   9.887  14.437   2.671
 8841SOL    HW228363  10.007  14.346   2.660
 8842SOL     OW28364  11.345  11.663  12.769
 8842SOL    HW128365  11.413  11.596  12.782
 8842SOL    HW228366  11.373  11.710  12.690
 8843SOL     OW28367   8.799  10.455  11.503
 8843SOL    HW128368   8.820  10.424  11.591
 8843SOL    HW228369   8.882  10.447  11.455
 8844SOL     OW28370   4.511   7.944   8.005
 8844SOL    HW128371   4.503   7.943   8.100
 8844SOL    HW228372   4.463   7.867   7.976
 8845SOL     OW28373   2.476   4.520  13.566
 8845SOL    HW128374   2.415   4.536  13.638
 8845SOL    HW228375   2.471   4.599  13.512
 8846SOL     OW28376  10.784  13.964   6.493
 8846SOL    HW128377  10.792  13.978   6.587
 8846SOL    HW228378  10.734  14.040   6.461
 8847SOL     OW28379   9.314   0.519  11.220
 8847SOL    HW128380   9.291   0.604  11.182
 8847SOL    HW228381   9.376   0.540  11.290
 8848SOL     OW28382   9.101   5.113   0.268
 8848SOL    HW128383   9.162   5.186   0.262
 8848SOL    HW228384   9.045   5.135   0.343
 8849SOL     OW28385   2.912   1.204  13.030
 8849SOL    HW128386   2.826   1.161  13.037
 8849SOL    HW228387   2.935   1.196  12.938
 8850SOL     OW28388   7.276   3.859  11.010
 8850SOL    HW128389   7.268   3.864  11.106
 8850SOL    HW228390   7.355   3.809  10.995
 8851SOL     OW28391  10.595   7.808  12.741
 8851SOL    HW128392  10.649   7.884  12.763
 8851SOL    HW228393  10.606   7.749  12.816
 8852SOL     OW28394  13.692  12.056  11.155
 8852SOL    HW128395  13.606  12.041  11.115
 8852SOL    HW228396  13.673  12.107  11.233
 8853SOL     OW28397  14.243   7.246   5.772
 8853SOL    HW128398  14.322   7.272   5.724
 8853SOL    HW228399  14.175   7.306   5.741
 8854SOL     OW28400  13.784  12.111   5.701
 8854SOL    HW128401  13.691  12.132   5.689
 8854SOL    HW228402  13.812  12.165   5.775
 8855SOL     OW28403  12.008   2.707   1.295
 8855SOL    HW128404  11.957   2.784   1.320
 8855SOL    HW228405  12.004   2.706   1.199
 8856SOL     OW28406   1.941   7.703   6.090
 8856SOL    HW128407   1.872   7.669   6.146
 8856SOL    HW228408   2.004   7.631   6.083
 8857SOL     OW28409  10.082   2.555   5.035
 8857SOL    HW128410  10.096   2.476   4.983
 8857SOL    HW228411  10.015   2.604   4.987
 8858SOL     OW28412   1.276  14.833   0.765
 8858SOL    HW128413   1.360  14.820   0.721
 8858SOL    HW228414   1.211  14.825   0.695
 8859SOL     OW28415  11.474   4.435   7.338
 8859SOL    HW128416  11.549   4.444   7.397
 8859SOL    HW228417  11.443   4.346   7.353
 8860SOL     OW28418  12.462   9.117   0.595
 8860SOL    HW128419  12.434   9.025   0.593
 8860SOL    HW228420  12.556   9.114   0.576
 8861SOL     OW28421   7.447   7.540   3.758
 8861SOL    HW128422   7.454   7.607   3.691
 8861SOL    HW228423   7.497   7.466   3.723
 8862SOL     OW28424  13.768  12.248   7.534
 8862SOL    HW128425  13.767  12.339   7.502
 8862SOL    HW228426  13.676  12.225   7.543
 8863SOL     OW28427   9.417   4.219   9.709
 8863SOL    HW128428   9.416   4.197   9.616
 8863SOL    HW228429   9.448   4.140   9.752
 8864SOL     OW28430   5.966   7.846   5.510
 8864SOL    HW128431   5.914   7.842   5.590
 8864SOL    HW228432   6.053   7.876   5.538
 8865SOL     OW28433  12.195   0.505   4.100
 8865SOL    HW128434  12.165   0.514   4.010
 8865SOL    HW228435  12.249   0.582   4.116
 8866SOL     OW28436   4.267   6.356  11.639
 8866SOL    HW128437   4.354   6.317  11.630
 8866SOL    HW228438   4.251   6.397  11.554
 8867SOL     OW28439   7.498   8.466   5.407
 8867SOL    HW128440   7.559   8.516   5.353
 8867SOL    HW228441   7.428   8.527   5.428
 8868SOL     OW28442   8.780  11.280   3.335
 8868SOL    HW128443   8.804  11.202   3.284
 8868SOL    HW228444   8.703  11.314   3.290
 8869SOL     OW28445   6.358   6.662   9.118
 8869SOL    HW128446   6.361   6.698   9.207
 8869SOL    HW228447   6.267   6.672   9.091
 8870SOL     OW28448   0.095   0.478   5.508
 8870SOL    HW128449   0.041   0.473   5.429
 8870SOL    HW228450   0.101   0.572   5.527
 8871SOL     OW28451   1.097   5.449  10.552
 8871SOL    HW128452   1.019   5.482  10.509
 8871SOL    HW228453   1.073   5.361  10.581
 8872SOL     OW28454  10.755   4.019  11.335
 8872SOL    HW128455  10.724   3.928  11.338
 8872SOL    HW228456  10.684   4.069  11.375
 8873SOL     OW28457  10.314   7.591   4.227
 8873SOL    HW128458  10.259   7.642   4.167
 8873SOL    HW228459  10.402   7.599   4.190
 8874SOL     OW28460   5.388   1.906  13.206
 8874SOL    HW128461   5.374   1.959  13.128
 8874SOL    HW228462   5.316   1.931  13.265
 8875SOL     OW28463   6.876   1.716  14.118
 8875SOL    HW128464   6.895   1.650  14.050
 8875SOL    HW228465   6.784   1.738  14.105
 8876SOL     OW28466   4.682   8.906   7.690
 8876SOL    HW128467   4.667   8.819   7.653
 8876SOL    HW228468   4.697   8.891   7.783
 8877SOL     OW28469  13.374   1.705   9.634
 8877SOL    HW128470  13.416   1.779   9.678
 8877SOL    HW228471  13.445   1.644   9.618
 8878SOL     OW28472   4.009  14.052  14.049
 8878SOL    HW128473   3.975  14.140  14.033
 8878SOL    HW228474   3.932  13.996  14.051
 8879SOL     OW28475   1.435   6.769   5.745
 8879SOL    HW128476   1.519   6.776   5.789
 8879SOL    HW228477   1.410   6.860   5.728
 8880SOL     OW28478   4.747  14.097  10.233
 8880SOL    HW128479   4.671  14.038  10.223
 8880SOL    HW228480   4.724  14.174  10.180
 8881SOL     OW28481   5.560   3.759   4.875
 8881SOL    HW128482   5.545   3.700   4.801
 8881SOL    HW228483   5.655   3.764   4.883
 8882SOL     OW28484   6.520  12.284   7.447
 8882SOL    HW128485   6.428  12.259   7.459
 8882SOL    HW228486   6.569  12.205   7.471
 8883SOL     OW28487  13.008   4.025  14.827
 8883SOL    HW128488  12.988   4.117  14.809
 8883SOL    HW228489  13.091   4.010  14.782
 8884SOL     OW28490  13.434   1.994   4.090
 8884SOL    HW128491  13.347   1.978   4.053
 8884SOL    HW228492  13.494   1.980   4.016
 8885SOL     OW28493  10.246   1.553   2.025
 8885SOL    HW128494  10.310   1.517   2.087
 8885SOL    HW228495  10.294   1.620   1.977
 8886SOL     OW28496   0.723   1.330   4.512
 8886SOL    HW128497   0.664   1.403   4.496
 8886SOL    HW228498   0.756   1.345   4.601
 8887SOL     OW28499   4.905  10.056   0.870
 8887SOL    HW128500   4.978  10.007   0.906
 8887SOL    HW228501   4.832   9.993   0.867
 8888SOL     OW28502   6.883   1.566   8.356
 8888SOL    HW128503   6.898   1.505   8.428
 8888SOL    HW228504   6.970   1.590   8.325
 8889SOL     OW28505   9.816  13.316   8.977
 8889SOL    HW128506   9.839  13.372   8.903
 8889SOL    HW228507   9.892  13.320   9.034
 8890SOL     OW28508   6.012  14.724   8.749
 8890SOL    HW128509   5.983  14.764   8.831
 8890SOL    HW228510   5.942  14.744   8.686
 8891SOL     OW28511  12.477   7.039   3.070
 8891SOL    HW128512  12.411   6.979   3.036
 8891SOL    HW228513  12.426   7.113   3.105
 8892SOL     OW28514   5.744  10.900   7.066
 8892SOL    HW128515   5.756  10.805   7.064
 8892SOL    HW228516   5.657  10.913   7.103
 8893SOL     OW28517   6.307   8.906   7.851
 8893SOL    HW128518   6.279   8.997   7.865
 8893SOL    HW228519   6.402   8.911   7.844
 8894SOL     OW28520  11.125   3.386   7.963
 8894SOL    HW128521  11.209   3.377   7.919
 8894SOL    HW228522  11.144   3.368   8.055
 8895SOL     OW28523   3.570  12.039   9.458
 8895SOL    HW128524   3.534  11.950   9.452
 8895SOL    HW228525   3.532  12.086   9.383
 8896SOL     OW28526   1.320   8.988   9.194
 8896SOL    HW128527   1.349   9.057   9.134
 8896SOL    HW228528   1.261   9.032   9.255
 8897SOL     OW28529  12.295  13.334   3.123
 8897SOL    HW128530  12.246  13.258   3.153
 8897SOL    HW228531  12.386  13.305   3.122
 8898SOL     OW28532   8.726  12.794   5.146
 8898SOL    HW128533   8.706  12.807   5.053
 8898SOL    HW228534   8.672  12.858   5.192
 8899SOL     OW28535   6.389   9.469  12.136
 8899SOL    HW128536   6.352   9.382  12.155
 8899SOL    HW228537   6.346   9.497  12.055
 8900SOL     OW28538  10.933   2.707   2.752
 8900SOL    HW128539  10.857   2.739   2.800
 8900SOL    HW228540  11.000   2.774   2.765
 8901SOL     OW28541   2.811   6.121   3.478
 8901SOL    HW128542   2.829   6.215   3.480
 8901SOL    HW228543   2.745   6.107   3.546
 8902SOL     OW28544   4.554   0.440   7.516
 8902SOL    HW128545   4.577   0.401   7.600
 8902SOL    HW228546   4.540   0.366   7.457
 8903SOL     OW28547   1.752   4.577   5.991
 8903SOL    HW128548   1.748   4.481   5.994
 8903SOL    HW228549   1.843   4.597   5.972
 8904SOL     OW28550   5.324   8.876  11.570
 8904SOL    HW128551   5.261   8.883  11.642
 8904SOL    HW228552   5.354   8.785  11.573
 8905SOL     OW28553   7.264   0.503   8.661
 8905SOL    HW128554   7.321   0.579   8.650
 8905SOL    HW228555   7.198   0.513   8.592
 8906SOL     OW28556   3.007   8.277   7.955
 8906SOL    HW128557   3.041   8.301   8.041
 8906SOL    HW228558   2.965   8.356   7.922
 8907SOL     OW28559   1.411   3.031   4.701
 8907SOL    HW128560   1.439   2.987   4.620
 8907SOL    HW228561   1.475   3.002   4.766
 8908SOL     OW28562   7.410  12.997   9.822
 8908SOL    HW128563   7.372  13.074   9.863
 8908SOL    HW228564   7.488  13.030   9.778
 8909SOL     OW28565  14.061   3.445  12.092
 8909SOL    HW128566  14.027   3.520  12.140
 8909SOL    HW228567  13.992   3.379  12.100
 8910SOL     OW28568   6.561   8.090  10.197
 8910SOL    HW128569   6.540   8.072  10.288
 8910SOL    HW228570   6.585   8.005  10.160
 8911SOL     OW28571  12.323   2.607  13.115
 8911SOL    HW128572  12.280   2.579  13.034
 8911SOL    HW228573  12.381   2.678  13.088
 8912SOL     OW28574  14.746  10.466   1.350
 8912SOL    HW128575  14.666  10.496   1.306
 8912SOL    HW228576  14.807  10.448   1.278
 8913SOL     OW28577   3.514  10.318   6.525
 8913SOL    HW128578   3.468  10.319   6.441
 8913SOL    HW228579   3.607  10.315   6.501
 8914SOL     OW28580   8.130  11.070   4.733
 8914SOL    HW128581   8.142  11.090   4.641
 8914SOL    HW228582   8.164  10.981   4.743
 8915SOL     OW28583   4.853   7.537   7.997
 8915SOL    HW128584   4.782   7.579   8.045
 8915SOL    HW228585   4.903   7.490   8.063
 8916SOL     OW28586   0.598   9.183   4.465
 8916SOL    HW128587   0.591   9.111   4.403
 8916SOL    HW228588   0.509   9.214   4.478
 8917SOL     OW28589   9.792   5.793  14.706
 8917SOL    HW128590   9.771   5.711  14.750
 8917SOL    HW228591   9.709   5.820  14.665
 8918SOL     OW28592   5.912   0.422  12.972
 8918SOL    HW128593   5.924   0.483  12.899
 8918SOL    HW228594   5.995   0.375  12.978
 8919SOL     OW28595   7.304   3.719   9.461
 8919SOL    HW128596   7.354   3.666   9.523
 8919SOL    HW228597   7.214   3.714   9.492
 8920SOL     OW28598   6.352  11.094   6.448
 8920SOL    HW128599   6.389  11.064   6.365
 8920SOL    HW228600   6.424  11.139   6.492
 8921SOL     OW28601   7.982   3.320   7.957
 8921SOL    HW128602   7.904   3.336   7.903
 8921SOL    HW228603   7.977   3.228   7.981
 8922SOL     OW28604  14.737   6.822   9.698
 8922SOL    HW128605  14.658   6.828   9.752
 8922SOL    HW228606  14.761   6.729   9.701
 8923SOL     OW28607  11.454   6.846  14.066
 8923SOL    HW128608  11.445   6.937  14.094
 8923SOL    HW228609  11.428   6.794  14.142
 8924SOL     OW28610  10.513   3.129   9.469
 8924SOL    HW128611  10.451   3.190   9.429
 8924SOL    HW228612  10.599   3.168   9.455
 8925SOL     OW28613  14.342   5.740   5.122
 8925SOL    HW128614  14.381   5.670   5.175
 8925SOL    HW228615  14.275   5.778   5.178
 8926SOL     OW28616   0.214  14.725   1.392
 8926SOL    HW128617   0.192  14.733   1.485
 8926SOL    HW228618   0.288  14.785   1.380
 8927SOL     OW28619  14.179   3.621  11.370
 8927SOL    HW128620  14.208   3.530  11.383
 8927SOL    HW228621  14.089   3.613  11.340
 8928SOL     OW28622  12.736  14.203   8.797
 8928SOL    HW128623  12.668  14.151   8.756
 8928SOL    HW228624  12.800  14.220   8.727
 8929SOL     OW28625   7.384   4.195   5.040
 8929SOL    HW128626   7.416   4.258   5.104
 8929SOL    HW228627   7.397   4.110   5.082
 8930SOL     OW28628   2.110  12.555   4.813
 8930SOL    HW128629   2.061  12.562   4.895
 8930SOL    HW228630   2.165  12.478   4.825
 8931SOL     OW28631   8.936   1.821   6.704
 8931SOL    HW128632   9.002   1.785   6.645
 8931SOL    HW228633   8.854   1.779   6.678
 8932SOL     OW28634   7.707   2.802   8.249
 8932SOL    HW128635   7.625   2.753   8.248
 8932SOL    HW228636   7.744   2.786   8.335
 8933SOL     OW28637   2.238   5.162  10.441
 8933SOL    HW128638   2.242   5.092  10.375
 8933SOL    HW228639   2.255   5.117  10.524
 8934SOL     OW28640   7.148   3.730  10.017
 8934SOL    HW128641   7.221   3.790  10.007
 8934SOL    HW228642   7.181   3.660  10.074
 8935SOL     OW28643   4.581   3.090   1.469
 8935SOL    HW128644   4.498   3.100   1.514
 8935SOL    HW228645   4.640   3.151   1.513
 8936SOL     OW28646   4.871   0.360  10.609
 8936SOL    HW128647   4.929   0.405  10.547
 8936SOL    HW228648   4.871   0.415  10.687
 8937SOL     OW28649   7.480   7.082  12.797
 8937SOL    HW128650   7.541   7.010  12.780
 8937SOL    HW228651   7.446   7.105  12.710
 8938SOL     OW28652  13.535  14.672  11.160
 8938SOL    HW128653  13.547  14.578  11.173
 8938SOL    HW228654  13.568  14.712  11.241
 8939SOL     OW28655   8.993   6.310   4.732
 8939SOL    HW128656   9.084   6.341   4.730
 8939SOL    HW228657   8.988   6.258   4.813
 8940SOL     OW28658   1.354   9.470  11.167
 8940SOL    HW128659   1.431   9.417  11.146
 8940SOL    HW228660   1.350   9.536  11.098
 8941SOL     OW28661   9.165   1.941   9.835
 8941SOL    HW128662   9.087   1.923   9.887
 8941SOL    HW228663   9.235   1.952   9.900
 8942SOL     OW28664  11.075   4.923   0.848
 8942SOL    HW128665  11.124   4.979   0.787
 8942SOL    HW228666  10.997   4.897   0.799
 8943SOL     OW28667   2.836   4.972   6.013
 8943SOL    HW128668   2.832   4.911   5.939
 8943SOL    HW228669   2.838   4.916   6.090
 8944SOL     OW28670   4.321  11.247   6.546
 8944SOL    HW128671   4.371  11.220   6.624
 8944SOL    HW228672   4.256  11.178   6.535
 8945SOL     OW28673  10.307  13.065  12.693
 8945SOL    HW128674  10.298  13.027  12.780
 8945SOL    HW228675  10.323  12.990  12.635
 8946SOL     OW28676  12.686  12.393  13.162
 8946SOL    HW128677  12.640  12.476  13.174
 8946SOL    HW228678  12.731  12.402  13.078
 8947SOL     OW28679  10.205   4.969  13.779
 8947SOL    HW128680  10.120   4.995  13.813
 8947SOL    HW228681  10.228   4.890  13.829
 8948SOL     OW28682  12.618  14.504   2.532
 8948SOL    HW128683  12.577  14.464   2.455
 8948SOL    HW228684  12.712  14.501   2.513
 8949SOL     OW28685   4.175   5.821  10.764
 8949SOL    HW128686   4.196   5.731  10.787
 8949SOL    HW228687   4.246   5.848  10.706
 8950SOL     OW28688   1.328   7.134  10.460
 8950SOL    HW128689   1.329   7.074  10.535
 8950SOL    HW228690   1.403   7.192  10.475
 8951SOL     OW28691   5.109   0.774   4.156
 8951SOL    HW128692   5.173   0.836   4.121
 8951SOL    HW228693   5.099   0.799   4.248
 8952SOL     OW28694   5.076  13.313   4.028
 8952SOL    HW128695   4.992  13.345   4.060
 8952SOL    HW228696   5.141  13.368   4.072
 8953SOL     OW28697   7.484   5.005  10.775
 8953SOL    HW128698   7.493   4.982  10.683
 8953SOL    HW228699   7.407   4.957  10.805
 8954SOL     OW28700   2.190   9.153  12.992
 8954SOL    HW128701   2.126   9.151  12.920
 8954SOL    HW228702   2.193   9.244  13.019
 8955SOL     OW28703   7.274   0.530   1.497
 8955SOL    HW128704   7.348   0.585   1.474
 8955SOL    HW228705   7.230   0.576   1.569
 8956SOL     OW28706   9.431   5.291   2.004
 8956SOL    HW128707   9.430   5.208   2.053
 8956SOL    HW228708   9.483   5.350   2.058
 8957SOL     OW28709   5.498  12.057   7.496
 8957SOL    HW128710   5.549  12.049   7.415
 8957SOL    HW228711   5.420  12.004   7.479
 8958SOL     OW28712   9.298   0.890   1.608
 8958SOL    HW128713   9.384   0.917   1.642
 8958SOL    HW228714   9.310   0.798   1.584
 8959SOL     OW28715   7.334  11.900  12.963
 8959SOL    HW128716   7.346  11.834  13.032
 8959SOL    HW228717   7.289  11.853  12.893
 8960SOL     OW28718   8.559   4.961   7.276
 8960SOL    HW128719   8.609   4.940   7.197
 8960SOL    HW228720   8.549   5.056   7.274
 8961SOL     OW28721  11.946  13.200   3.484
 8961SOL    HW128722  11.982  13.114   3.463
 8961SOL    HW228723  11.946  13.247   3.400
 8962SOL     OW28724   9.190  14.327  10.813
 8962SOL    HW128725   9.202  14.420  10.829
 8962SOL    HW228726   9.128  14.298  10.880
 8963SOL     OW28727   4.603   4.238   5.535
 8963SOL    HW128728   4.625   4.172   5.470
 8963SOL    HW228729   4.679   4.241   5.593
 8964SOL     OW28730  13.231   1.037   5.869
 8964SOL    HW128731  13.246   0.943   5.870
 8964SOL    HW228732  13.137   1.046   5.851
 8965SOL     OW28733  14.627  10.331  11.222
 8965SOL    HW128734  14.547  10.349  11.171
 8965SOL    HW228735  14.622  10.238  11.242
 8966SOL     OW28736  14.271   9.039   1.134
 8966SOL    HW128737  14.365   9.035   1.152
 8966SOL    HW228738  14.264   9.026   1.040
 8967SOL     OW28739   5.769   3.112   5.811
 8967SOL    HW128740   5.749   3.197   5.771
 8967SOL    HW228741   5.834   3.073   5.753
 8968SOL     OW28742  10.313   7.012  10.494
 8968SOL    HW128743  10.341   7.033  10.583
 8968SOL    HW228744  10.221   6.988  10.502
 8969SOL     OW28745  13.341   0.140  12.261
 8969SOL    HW128746  13.307   0.051  12.252
 8969SOL    HW228747  13.412   0.132  12.325
 8970SOL     OW28748   5.439   0.357  13.491
 8970SOL    HW128749   5.452   0.324  13.580
 8970SOL    HW228750   5.520   0.334  13.446
 8971SOL     OW28751   1.499   2.756   2.173
 8971SOL    HW128752   1.569   2.803   2.217
 8971SOL    HW228753   1.467   2.816   2.106
 8972SOL     OW28754   7.987   5.729   9.454
 8972SOL    HW128755   8.030   5.745   9.370
 8972SOL    HW228756   7.902   5.692   9.429
 8973SOL     OW28757   5.299  14.789   1.061
 8973SOL    HW128758   5.205  14.788   1.074
 8973SOL    HW228759   5.312  14.763   0.970
 8974SOL     OW28760   1.332   5.383  12.481
 8974SOL    HW128761   1.405   5.430  12.521
 8974SOL    HW228762   1.263   5.449  12.472
 8975SOL     OW28763   7.618  10.019   7.144
 8975SOL    HW128764   7.564   9.959   7.094
 8975SOL    HW228765   7.656   9.965   7.214
 8976SOL     OW28766  10.051   7.372  12.539
 8976SOL    HW128767  10.015   7.457  12.513
 8976SOL    HW228768  10.089   7.387  12.626
 8977SOL     OW28769   0.998   2.259   2.051
 8977SOL    HW128770   1.018   2.284   1.961
 8977SOL    HW228771   1.051   2.318   2.105
 8978SOL     OW28772  10.630   0.608   7.283
 8978SOL    HW128773  10.569   0.583   7.353
 8978SOL    HW228774  10.680   0.528   7.266
 8979SOL     OW28775   3.969  11.000  10.340
 8979SOL    HW128776   4.043  11.058  10.356
 8979SOL    HW228777   4.005  10.929  10.287
 8980SOL     OW28778   2.540  11.058   8.172
 8980SOL    HW128779   2.550  10.996   8.099
 8980SOL    HW228780   2.490  11.131   8.134
 8981SOL     OW28781   0.863   6.025   1.575
 8981SOL    HW128782   0.866   5.938   1.614
 8981SOL    HW228783   0.782   6.027   1.524
 8982SOL     OW28784  11.470   7.303  12.065
 8982SOL    HW128785  11.485   7.322  11.972
 8982SOL    HW228786  11.435   7.214  12.065
 8983SOL     OW28787   9.123   2.587   3.983
 8983SOL    HW128788   9.051   2.629   3.937
 8983SOL    HW228789   9.180   2.659   4.010
 8984SOL     OW28790   8.565  11.331   9.203
 8984SOL    HW128791   8.471  11.338   9.190
 8984SOL    HW228792   8.593  11.419   9.227
 8985SOL     OW28793   8.416  11.593   2.226
 8985SOL    HW128794   8.346  11.602   2.291
 8985SOL    HW228795   8.496  11.591   2.277
 8986SOL     OW28796   4.171   7.066  12.737
 8986SOL    HW128797   4.092   7.016  12.757
 8986SOL    HW228798   4.192   7.044  12.646
 8987SOL     OW28799  12.015  11.917  10.084
 8987SOL    HW128800  12.007  11.842  10.143
 8987SOL    HW228801  12.079  11.974  10.127
 8988SOL     OW28802  11.466  13.127   3.612
 8988SOL    HW128803  11.401  13.075   3.660
 8988SOL    HW228804  11.535  13.064   3.591
 8989SOL     OW28805   2.166   9.730   0.595
 8989SOL    HW128806   2.128   9.775   0.519
 8989SOL    HW228807   2.097   9.730   0.661
 8990SOL     OW28808   0.786   8.609   1.683
 8990SOL    HW128809   0.846   8.674   1.647
 8990SOL    HW228810   0.757   8.647   1.766
 8991SOL     OW28811   2.150   8.932   1.040
 8991SOL    HW128812   2.227   8.987   1.048
 8991SOL    HW228813   2.171   8.854   1.091
 8992SOL     OW28814   4.152  12.508   9.085
 8992SOL    HW128815   4.101  12.428   9.075
 8992SOL    HW228816   4.091  12.578   9.059
 8993SOL     OW28817  14.265   1.238  11.359
 8993SOL    HW128818  14.229   1.170  11.303
 8993SOL    HW228819  14.191   1.269  11.410
 8994SOL     OW28820  14.076   1.833  13.904
 8994SOL    HW128821  14.043   1.747  13.931
 8994SOL    HW228822  14.081   1.828  13.809
 8995SOL     OW28823   3.543   5.791  10.686
 8995SOL    HW128824   3.537   5.887  10.686
 8995SOL    HW228825   3.477   5.764  10.750
 8996SOL     OW28826   7.656   0.285  12.408
 8996SOL    HW128827   7.667   0.358  12.469
 8996SOL    HW228828   7.565   0.258  12.420
 8997SOL     OW28829   7.005   0.934   4.581
 8997SOL    HW128830   7.070   0.957   4.514
 8997SOL    HW228831   6.921   0.959   4.542
 8998SOL     OW28832   2.982   0.832   1.478
 8998SOL    HW128833   2.995   0.901   1.543
 8998SOL    HW228834   3.037   0.859   1.404
 8999SOL     OW28835   8.444   0.137  13.207
 8999SOL    HW128836   8.375   0.178  13.259
 8999SOL    HW228837   8.474   0.207  13.149
 9000SOL     OW28838   3.143  11.050   4.352
 9000SOL    HW128839   3.232  11.015   4.356
 9000SOL    HW228840   3.155  11.145   4.339
 9001SOL     OW28841   7.170   5.185  13.026
 9001SOL    HW128842   7.133   5.097  13.020
 9001SOL    HW228843   7.222   5.195  12.946
 9002SOL     OW28844   2.939  14.289   3.067
 9002SOL    HW128845   2.887  14.370   3.068
 9002SOL    HW228846   2.965  14.278   2.976
 9003SOL     OW28847   4.432   2.311   5.839
 9003SOL    HW128848   4.507   2.370   5.844
 9003SOL    HW228849   4.387   2.337   5.758
 9004SOL     OW28850   7.509  10.596   1.056
 9004SOL    HW128851   7.463  10.529   1.106
 9004SOL    HW228852   7.452  10.673   1.060
 9005SOL     OW28853  14.185   7.494   4.350
 9005SOL    HW128854  14.177   7.551   4.427
 9005SOL    HW228855  14.098   7.496   4.310
 9006SOL     OW28856  14.421   2.837   2.840
 9006SOL    HW128857  14.363   2.909   2.864
 9006SOL    HW228858  14.504   2.879   2.817
 9007SOL     OW28859  13.178  12.502   2.010
 9007SOL    HW128860  13.220  12.528   2.092
 9007SOL    HW228861  13.122  12.428   2.035
 9008SOL     OW28862  11.014  11.778  13.826
 9008SOL    HW128863  10.924  11.802  13.804
 9008SOL    HW228864  11.061  11.782  13.742
 9009SOL     OW28865   3.140   7.606   2.137
 9009SOL    HW128866   3.229   7.591   2.169
 9009SOL    HW228867   3.152   7.633   2.046
 9010SOL     OW28868   8.037   1.872  13.301
 9010SOL    HW128869   8.105   1.805  13.303
 9010SOL    HW228870   7.982   1.853  13.377
 9011SOL     OW28871   2.271   7.883  14.611
 9011SOL    HW128872   2.226   7.829  14.546
 9011SOL    HW228873   2.324   7.944  14.560
 9012SOL     OW28874   1.409  13.677   6.378
 9012SOL    HW128875   1.494  13.719   6.361
 9012SOL    HW228876   1.401  13.611   6.310
 9013SOL     OW28877   6.975  11.534   7.966
 9013SOL    HW128878   7.041  11.499   7.907
 9013SOL    HW228879   6.982  11.478   8.044
 9014SOL     OW28880   2.329   6.700   9.828
 9014SOL    HW128881   2.397   6.762   9.800
 9014SOL    HW228882   2.337   6.698   9.923
 9015SOL     OW28883   1.481   7.813  11.677
 9015SOL    HW128884   1.569   7.795  11.644
 9015SOL    HW228885   1.452   7.730  11.714
 9016SOL     OW28886   5.810   8.411   4.042
 9016SOL    HW128887   5.741   8.476   4.029
 9016SOL    HW228888   5.863   8.417   3.963
 9017SOL     OW28889   6.262  10.185  11.474
 9017SOL    HW128890   6.182  10.133  11.478
 9017SOL    HW228891   6.330  10.123  11.448
 9018SOL     OW28892  14.497   9.423   2.628
 9018SOL    HW128893  14.416   9.410   2.579
 9018SOL    HW228894  14.519   9.515   2.613
 9019SOL     OW28895   8.529  11.263   3.602
 9019SOL    HW128896   8.564  11.183   3.563
 9019SOL    HW228897   8.437  11.244   3.619
 9020SOL     OW28898   3.103  11.524   8.790
 9020SOL    HW128899   3.024  11.543   8.839
 9020SOL    HW228900   3.166  11.591   8.819
 9021SOL     OW28901   6.117  10.536   9.784
 9021SOL    HW128902   6.063  10.577   9.851
 9021SOL    HW228903   6.097  10.442   9.791
 9022SOL     OW28904   1.926  14.756  12.923
 9022SOL    HW128905   1.871  14.686  12.956
 9022SOL    HW228906   1.896  14.771  12.834
 9023SOL     OW28907  13.670  12.553   0.621
 9023SOL    HW128908  13.714  12.588   0.699
 9023SOL    HW228909  13.578  12.547   0.647
 9024SOL     OW28910   8.889   0.091   0.011
 9024SOL    HW128911   8.963   0.056  14.836
 9024SOL    HW228912   8.812   0.055  14.842
 9025SOL     OW28913   4.622  13.536   7.518
 9025SOL    HW128914   4.590  13.511   7.605
 9025SOL    HW228915   4.587  13.624   7.505
 9026SOL     OW28916   2.270   7.429   7.672
 9026SOL    HW128917   2.322   7.492   7.622
 9026SOL    HW228918   2.298   7.343   7.639
 9027SOL     OW28919   9.003  14.328   4.758
 9027SOL    HW128920   8.915  14.294   4.747
 9027SOL    HW228921   9.038  14.336   4.670
 9028SOL     OW28922   8.629   0.944   5.898
 9028SOL    HW128923   8.548   0.917   5.853
 9028SOL    HW228924   8.659   0.866   5.944
 9029SOL     OW28925   0.741   5.337   9.551
 9029SOL    HW128926   0.697   5.319   9.634
 9029SOL    HW228927   0.834   5.326   9.571
 9030SOL     OW28928   6.068   0.793  11.589
 9030SOL    HW128929   6.059   0.887  11.605
 9030SOL    HW228930   5.978   0.761  11.585
 9031SOL     OW28931   6.964   1.714   0.529
 9031SOL    HW128932   6.978   1.750   0.442
 9031SOL    HW228933   7.041   1.741   0.579
 9032SOL     OW28934  10.950   6.691   5.523
 9032SOL    HW128935  10.865   6.691   5.480
 9032SOL    HW228936  10.934   6.734   5.607
 9033SOL     OW28937   6.506   4.033  11.810
 9033SOL    HW128938   6.434   4.080  11.768
 9033SOL    HW228939   6.522   4.081  11.891
 9034SOL     OW28940   7.303   9.464   7.578
 9034SOL    HW128941   7.375   9.498   7.632
 9034SOL    HW228942   7.275   9.385   7.624
 9035SOL     OW28943   3.623   8.644  13.337
 9035SOL    HW128944   3.615   8.574  13.272
 9035SOL    HW228945   3.533   8.669  13.357
 9036SOL     OW28946  14.101  13.478   9.255
 9036SOL    HW128947  14.146  13.536   9.317
 9036SOL    HW228948  14.149  13.396   9.259
 9037SOL     OW28949   4.478   1.255   2.959
 9037SOL    HW128950   4.465   1.305   2.879
 9037SOL    HW228951   4.408   1.284   3.018
 9038SOL     OW28952   9.885   5.855   2.508
 9038SOL    HW128953   9.956   5.901   2.555
 9038SOL    HW228954   9.914   5.764   2.505
 9039SOL     OW28955   7.456   2.229   5.381
 9039SOL    HW128956   7.407   2.295   5.430
 9039SOL    HW228957   7.474   2.270   5.296
 9040SOL     OW28958   0.160   3.356   4.074
 9040SOL    HW128959   0.226   3.334   4.009
 9040SOL    HW228960   0.203   3.418   4.133
 9041SOL     OW28961   9.959  10.374  12.544
 9041SOL    HW128962  10.009  10.455  12.539
 9041SOL    HW228963   9.945  10.361  12.638
 9042SOL     OW28964  12.386   9.819  14.444
 9042SOL    HW128965  12.448   9.785  14.378
 9042SOL    HW228966  12.407   9.912  14.451
 9043SOL     OW28967   9.459  14.500  10.549
 9043SOL    HW128968   9.445  14.432  10.615
 9043SOL    HW228969   9.540  14.473  10.504
 9044SOL     OW28970   5.947  13.021   4.944
 9044SOL    HW128971   5.952  12.926   4.935
 9044SOL    HW228972   5.988  13.055   4.864
 9045SOL     OW28973   5.052  12.887  14.341
 9045SOL    HW128974   5.046  12.795  14.366
 9045SOL    HW228975   4.970  12.904  14.294
 9046SOL     OW28976   6.030   9.369  11.691
 9046SOL    HW128977   6.039   9.382  11.596
 9046SOL    HW228978   5.941   9.334  11.702
 9047SOL     OW28979   5.008   6.865   8.787
 9047SOL    HW128980   5.021   6.913   8.869
 9047SOL    HW228981   5.070   6.792   8.792
 9048SOL     OW28982   3.762  13.255   1.092
 9048SOL    HW128983   3.827  13.311   1.050
 9048SOL    HW228984   3.808  13.173   1.108
 9049SOL     OW28985  11.013   5.751  11.221
 9049SOL    HW128986  11.004   5.810  11.146
 9049SOL    HW228987  10.925   5.746  11.259
 9050SOL     OW28988   6.176   9.949   4.270
 9050SOL    HW128989   6.132   9.993   4.342
 9050SOL    HW228990   6.179   9.857   4.296
 9051SOL     OW28991   9.693   6.953   0.482
 9051SOL    HW128992   9.606   6.990   0.491
 9051SOL    HW228993   9.707   6.904   0.564
 9052SOL     OW28994   7.579   0.197  10.133
 9052SOL    HW128995   7.486   0.221  10.139
 9052SOL    HW228996   7.600   0.162  10.220
 9053SOL     OW28997   3.089   6.612   0.428
 9053SOL    HW128998   3.047   6.661   0.498
 9053SOL    HW228999   3.180   6.604   0.455
 9054SOL     OW29000  13.548   0.277   7.611
 9054SOL    HW129001  13.454   0.278   7.591
 9054SOL    HW229002  13.560   0.349   7.673
 9055SOL     OW29003   7.964   4.240   4.163
 9055SOL    HW129004   7.904   4.168   4.184
 9055SOL    HW229005   7.969   4.240   4.067
 9056SOL     OW29006  13.929  10.180  11.603
 9056SOL    HW129007  13.873  10.197  11.527
 9056SOL    HW229008  13.879  10.214  11.678
 9057SOL     OW29009  12.991   7.050   2.718
 9057SOL    HW129010  12.979   7.103   2.797
 9057SOL    HW229011  13.007   6.961   2.751
 9058SOL     OW29012  12.902   2.466  10.955
 9058SOL    HW129013  12.855   2.479  10.873
 9058SOL    HW229014  12.859   2.392  10.996
 9059SOL     OW29015   8.165   0.703   2.476
 9059SOL    HW129016   8.219   0.625   2.490
 9059SOL    HW229017   8.193   0.736   2.390
 9060SOL     OW29018  10.025   8.538   6.543
 9060SOL    HW129019  10.015   8.569   6.633
 9060SOL    HW229020   9.938   8.552   6.504
 9061SOL     OW29021   4.509   5.651  14.398
 9061SOL    HW129022   4.416   5.635  14.381
 9061SOL    HW229023   4.534   5.719  14.335
 9062SOL     OW29024  14.146   3.912   9.560
 9062SOL    HW129025  14.207   3.845   9.592
 9062SOL    HW229026  14.072   3.908   9.620
 9063SOL     OW29027  10.617   6.265  13.546
 9063SOL    HW129028  10.533   6.310  13.538
 9063SOL    HW229029  10.654   6.266  13.458
 9064SOL     OW29030   5.270  11.822   9.372
 9064SOL    HW129031   5.263  11.783   9.285
 9064SOL    HW229032   5.205  11.892   9.373
 9065SOL     OW29033   1.854   0.013   5.301
 9065SOL    HW129034   1.832   0.103   5.275
 9065SOL    HW229035   1.936  14.869   5.254
 9066SOL     OW29036   8.788  12.162   4.762
 9066SOL    HW129037   8.718  12.152   4.698
 9066SOL    HW229038   8.772  12.094   4.827
 9067SOL     OW29039  11.531   1.114   0.801
 9067SOL    HW129040  11.453   1.059   0.800
 9067SOL    HW229041  11.590   1.071   0.864
 9068SOL     OW29042  12.393   7.433   4.637
 9068SOL    HW129043  12.322   7.475   4.686
 9068SOL    HW229044  12.409   7.491   4.563
 9069SOL     OW29045  14.725  14.730  10.845
 9069SOL    HW129046  14.649  14.786  10.827
 9069SOL    HW229047  14.790  14.758  10.781
 9070SOL     OW29048   5.945   5.684   4.187
 9070SOL    HW129049   5.890   5.740   4.242
 9070SOL    HW229050   6.035   5.704   4.215
 9071SOL     OW29051   9.526   9.311  14.720
 9071SOL    HW129052   9.571   9.394  14.734
 9071SOL    HW229053   9.517   9.305  14.625
 9072SOL     OW29054   1.750   7.351   8.919
 9072SOL    HW129055   1.841   7.380   8.920
 9072SOL    HW229056   1.735   7.320   8.830
 9073SOL     OW29057  13.824   9.607  10.316
 9073SOL    HW129058  13.742   9.654  10.304
 9073SOL    HW229059  13.833   9.598  10.411
 9074SOL     OW29060   0.504   8.328  14.129
 9074SOL    HW129061   0.429   8.381  14.103
 9074SOL    HW229062   0.473   8.238  14.128
 9075SOL     OW29063   7.664   6.404  13.029
 9075SOL    HW129064   7.684   6.478  12.972
 9075SOL    HW229065   7.750   6.371  13.057
 9076SOL     OW29066  10.631  12.245   0.429
 9076SOL    HW129067  10.679  12.306   0.486
 9076SOL    HW229068  10.696  12.181   0.401
 9077SOL     OW29069   7.060   2.096   1.395
 9077SOL    HW129070   6.980   2.061   1.436
 9077SOL    HW229071   7.034   2.180   1.359
 9078SOL     OW29072   3.202   6.636   3.543
 9078SOL    HW129073   3.116   6.640   3.500
 9078SOL    HW229074   3.231   6.727   3.544
 9079SOL     OW29075   7.868   8.653   0.021
 9079SOL    HW129076   7.893   8.745   0.028
 9079SOL    HW229077   7.870   8.621   0.111
 9080SOL     OW29078  12.934  14.711  11.820
 9080SOL    HW129079  12.946  14.761  11.739
 9080SOL    HW229080  12.982  14.630  11.806
 9081SOL     OW29081   2.724  12.310   1.844
 9081SOL    HW129082   2.630  12.312   1.866
 9081SOL    HW229083   2.730  12.248   1.772
 9082SOL     OW29084   2.300  11.086   8.942
 9082SOL    HW129085   2.209  11.104   8.919
 9082SOL    HW229086   2.305  10.991   8.947
 9083SOL     OW29087  13.433   9.441   4.764
 9083SOL    HW129088  13.461   9.434   4.856
 9083SOL    HW229089  13.341   9.468   4.770
 9084SOL     OW29090   9.972   0.021  12.556
 9084SOL    HW129091   9.886  14.854  12.547
 9084SOL    HW229092   9.992   0.014  12.650
 9085SOL     OW29093  13.419   9.425   6.811
 9085SOL    HW129094  13.451   9.335   6.822
 9085SOL    HW229095  13.343   9.416   6.754
 9086SOL     OW29096   8.264   2.887   9.851
 9086SOL    HW129097   8.333   2.823   9.835
 9086SOL    HW229098   8.242   2.875   9.944
 9087SOL     OW29099  14.575  11.334   6.324
 9087SOL    HW129100  14.631  11.387   6.267
 9087SOL    HW229101  14.604  11.356   6.413
 9088SOL     OW29102  12.647  11.510  12.024
 9088SOL    HW129103  12.556  11.480  12.031
 9088SOL    HW229104  12.693  11.436  11.985
 9089SOL     OW29105   9.669   8.240   9.748
 9089SOL    HW129106   9.733   8.183   9.790
 9089SOL    HW229107   9.716   8.323   9.735
 9090SOL     OW29108   1.616   9.274   6.652
 9090SOL    HW129109   1.554   9.201   6.660
 9090SOL    HW229110   1.702   9.232   6.653
 9091SOL     OW29111  11.647   2.191   3.166
 9091SOL    HW129112  11.674   2.270   3.212
 9091SOL    HW229113  11.570   2.217   3.116
 9092SOL     OW29114  12.009   7.024  14.698
 9092SOL    HW129115  12.072   7.026  14.771
 9092SOL    HW229116  11.989   7.116  14.682
 9093SOL     OW29117   8.865  12.329   1.144
 9093SOL    HW129118   8.773  12.350   1.162
 9093SOL    HW229119   8.915  12.392   1.196
 9094SOL     OW29120   9.682  10.895   6.135
 9094SOL    HW129121   9.737  10.819   6.152
 9094SOL    HW229122   9.711  10.961   6.199
 9095SOL     OW29123   9.192   3.149   0.902
 9095SOL    HW129124   9.212   3.236   0.869
 9095SOL    HW229125   9.263   3.129   0.962
 9096SOL     OW29126   1.538   2.772  10.022
 9096SOL    HW129127   1.548   2.716  10.099
 9096SOL    HW229128   1.622   2.818  10.015
 9097SOL     OW29129  13.870   4.083   6.083
 9097SOL    HW129130  13.794   4.063   6.138
 9097SOL    HW229131  13.941   4.100   6.146
 9098SOL     OW29132   7.319   3.001  13.584
 9098SOL    HW129133   7.311   3.093  13.612
 9098SOL    HW229134   7.290   2.951  13.661
 9099SOL     OW29135  11.062   5.684   8.216
 9099SOL    HW129136  11.031   5.744   8.148
 9099SOL    HW229137  11.156   5.675   8.198
 9100SOL     OW29138  11.361   1.903   8.800
 9100SOL    HW129139  11.453   1.879   8.807
 9100SOL    HW229140  11.350   1.935   8.711
 9101SOL     OW29141   2.965   8.843  10.041
 9101SOL    HW129142   3.045   8.870  10.086
 9101SOL    HW229143   2.896   8.855  10.106
 9102SOL     OW29144   3.414  13.926   9.057
 9102SOL    HW129145   3.341  13.877   9.020
 9102SOL    HW229146   3.413  14.010   9.010
 9103SOL     OW29147   5.277   6.930   1.602
 9103SOL    HW129148   5.337   6.934   1.528
 9103SOL    HW229149   5.295   6.845   1.643
 9104SOL     OW29150   6.467   4.818   8.247
 9104SOL    HW129151   6.434   4.748   8.303
 9104SOL    HW229152   6.391   4.845   8.195
 9105SOL     OW29153   5.844   3.731   2.621
 9105SOL    HW129154   5.803   3.815   2.644
 9105SOL    HW229155   5.915   3.721   2.684
 9106SOL     OW29156   7.563  14.225   9.726
 9106SOL    HW129157   7.496  14.165   9.692
 9106SOL    HW229158   7.546  14.308   9.683
 9107SOL     OW29159   7.760   0.087   1.142
 9107SOL    HW129160   7.819   0.024   1.183
 9107SOL    HW229161   7.728   0.140   1.215
 9108SOL     OW29162  11.578   0.801   7.218
 9108SOL    HW129163  11.573   0.790   7.123
 9108SOL    HW229164  11.583   0.896   7.231
 9109SOL     OW29165  12.568   2.951  14.000
 9109SOL    HW129166  12.493   3.006  14.019
 9109SOL    HW229167  12.641   2.993  14.046
 9110SOL     OW29168   7.747   1.898   1.337
 9110SOL    HW129169   7.683   1.849   1.389
 9110SOL    HW229170   7.701   1.978   1.311
 9111SOL     OW29171   0.470  11.092   1.126
 9111SOL    HW129172   0.457  11.137   1.043
 9111SOL    HW229173   0.384  11.098   1.169
 9112SOL     OW29174  11.513   6.785  12.002
 9112SOL    HW129175  11.569   6.709  11.986
 9112SOL    HW229176  11.426   6.758  11.972
 9113SOL     OW29177  11.632   7.726   4.313
 9113SOL    HW129178  11.541   7.754   4.312
 9113SOL    HW229179  11.652   7.710   4.405
 9114SOL     OW29180  11.019  10.409   2.063
 9114SOL    HW129181  11.037  10.435   2.153
 9114SOL    HW229182  10.990  10.490   2.020
 9115SOL     OW29183   7.436  11.316  10.598
 9115SOL    HW129184   7.375  11.272  10.538
 9115SOL    HW229185   7.383  11.340  10.674
 9116SOL     OW29186   5.238   4.081   8.445
 9116SOL    HW129187   5.183   4.050   8.374
 9116SOL    HW229188   5.271   4.002   8.488
 9117SOL     OW29189  10.392   1.024   1.486
 9117SOL    HW129190  10.304   1.018   1.522
 9117SOL    HW229191  10.379   1.020   1.391
 9118SOL     OW29192  14.130  13.273  12.095
 9118SOL    HW129193  14.118  13.179  12.076
 9118SOL    HW229194  14.041  13.308  12.098
 9119SOL     OW29195   3.335   8.827   7.658
 9119SOL    HW129196   3.243   8.852   7.671
 9119SOL    HW229197   3.340   8.804   7.565
 9120SOL     OW29198   3.967  10.607   3.977
 9120SOL    HW129199   3.904  10.638   4.042
 9120SOL    HW229200   4.017  10.540   4.023
 9121SOL     OW29201   3.597  12.240   3.550
 9121SOL    HW129202   3.540  12.177   3.594
 9121SOL    HW229203   3.568  12.325   3.582
 9122SOL     OW29204   6.635   8.793  10.673
 9122SOL    HW129205   6.634   8.846  10.593
 9122SOL    HW229206   6.726   8.795  10.702
 9123SOL     OW29207  14.378  12.302   3.232
 9123SOL    HW129208  14.394  12.360   3.158
 9123SOL    HW229209  14.463  12.264   3.252
 9124SOL     OW29210   1.272   0.047   9.490
 9124SOL    HW129211   1.354  14.871   9.498
 9124SOL    HW229212   1.241   0.056   9.580
 9125SOL     OW29213   7.190   0.908  12.840
 9125SOL    HW129214   7.159   0.945  12.757
 9125SOL    HW229215   7.121   0.847  12.866
 9126SOL     OW29216   0.693   2.817  10.061
 9126SOL    HW129217   0.654   2.895  10.098
 9126SOL    HW229218   0.769   2.799  10.116
 9127SOL     OW29219  10.466  14.220   6.026
 9127SOL    HW129220  10.393  14.186   5.973
 9127SOL    HW229221  10.424  14.251   6.106
 9128SOL     OW29222   5.358  13.873   1.599
 9128SOL    HW129223   5.366  13.821   1.519
 9128SOL    HW229224   5.375  13.963   1.570
 9129SOL     OW29225   7.812  10.569   3.154
 9129SOL    HW129226   7.725  10.577   3.192
 9129SOL    HW229227   7.807  10.493   3.096
 9130SOL     OW29228  11.078  13.568   1.980
 9130SOL    HW129229  11.039  13.597   2.062
 9130SOL    HW229230  11.147  13.632   1.963
 9131SOL     OW29231   3.417  10.085   5.486
 9131SOL    HW129232   3.368  10.150   5.535
 9131SOL    HW229233   3.390  10.001   5.524
 9132SOL     OW29234  14.039   9.115   7.401
 9132SOL    HW129235  14.077   9.123   7.488
 9132SOL    HW229236  14.082   9.038   7.363
 9133SOL     OW29237   1.859   5.190   6.181
 9133SOL    HW129238   1.895   5.278   6.189
 9133SOL    HW229239   1.764   5.201   6.190
 9134SOL     OW29240  10.132  10.156  14.370
 9134SOL    HW129241  10.185  10.110  14.305
 9134SOL    HW229242  10.090  10.087  14.421
 9135SOL     OW29243   6.013   9.916  13.916
 9135SOL    HW129244   5.956   9.982  13.879
 9135SOL    HW229245   5.965   9.834  13.905
 9136SOL     OW29246   3.573   2.304   4.004
 9136SOL    HW129247   3.562   2.288   4.097
 9136SOL    HW229248   3.598   2.219   3.967
 9137SOL     OW29249  11.159   0.002   9.520
 9137SOL    HW129250  11.180  14.788   9.551
 9137SOL    HW229251  11.088   0.031   9.578
 9138SOL     OW29252   1.298   4.256   3.816
 9138SOL    HW129253   1.341   4.174   3.840
 9138SOL    HW229254   1.303   4.310   3.895
 9139SOL     OW29255  12.312   7.656   7.459
 9139SOL    HW129256  12.270   7.626   7.540
 9139SOL    HW229257  12.403   7.671   7.484
 9140SOL     OW29258   0.419  13.096   7.618
 9140SOL    HW129259   0.421  13.190   7.634
 9140SOL    HW229260   0.331  13.078   7.586
 9141SOL     OW29261  12.821   6.037   8.571
 9141SOL    HW129262  12.913   6.034   8.545
 9141SOL    HW229263  12.807   5.955   8.618
 9142SOL     OW29264   2.552  12.170   1.418
 9142SOL    HW129265   2.546  12.080   1.388
 9142SOL    HW229266   2.463  12.193   1.445
 9143SOL     OW29267  14.475   9.592   5.684
 9143SOL    HW129268  14.543   9.658   5.669
 9143SOL    HW229269  14.520   9.508   5.671
 9144SOL     OW29270   8.959   5.476   3.175
 9144SOL    HW129271   8.985   5.383   3.168
 9144SOL    HW229272   9.023   5.513   3.235
 9145SOL     OW29273  13.805   6.206   7.345
 9145SOL    HW129274  13.866   6.137   7.319
 9145SOL    HW229275  13.762   6.171   7.424
 9146SOL     OW29276   6.367   1.455   2.313
 9146SOL    HW129277   6.397   1.424   2.227
 9146SOL    HW229278   6.401   1.544   2.320
 9147SOL     OW29279   2.984  13.303   6.357
 9147SOL    HW129280   3.068  13.306   6.404
 9147SOL    HW229281   2.931  13.242   6.409
 9148SOL     OW29282  13.045   0.021   5.994
 9148SOL    HW129283  13.014   0.036   5.904
 9148SOL    HW229284  13.024   0.102   6.040
 9149SOL     OW29285  10.114   1.900   6.300
 9149SOL    HW129286  10.035   1.875   6.348
 9149SOL    HW229287  10.143   1.981   6.343
 9150SOL     OW29288   2.419   4.726   7.764
 9150SOL    HW129289   2.359   4.790   7.726
 9150SOL    HW229290   2.361   4.658   7.801
 9151SOL     OW29291  14.779  11.332   5.624
 9151SOL    HW129292  14.843  11.394   5.590
 9151SOL    HW229293  14.731  11.381   5.692
 9152SOL     OW29294   5.686   5.287  14.794
 9152SOL    HW129295   5.751   5.347  14.758
 9152SOL    HW229296   5.724   5.200  14.783
 9153SOL     OW29297   3.023  13.753   4.117
 9153SOL    HW129298   3.063  13.733   4.201
 9153SOL    HW229299   2.930  13.766   4.136
 9154SOL     OW29300   8.688   5.870   3.621
 9154SOL    HW129301   8.756   5.814   3.657
 9154SOL    HW229302   8.629   5.886   3.695
 9155SOL     OW29303  12.882   6.922   7.744
 9155SOL    HW129304  12.791   6.893   7.731
 9155SOL    HW229305  12.914   6.939   7.656
 9156SOL     OW29306   5.861  14.332  13.869
 9156SOL    HW129307   5.916  14.314  13.792
 9156SOL    HW229308   5.805  14.405  13.842
 9157SOL     OW29309  11.283   0.423   3.141
 9157SOL    HW129310  11.329   0.506   3.141
 9157SOL    HW229311  11.337   0.365   3.196
 9158SOL     OW29312   9.357  10.065   8.140
 9158SOL    HW129313   9.302   9.994   8.170
 9158SOL    HW229314   9.386  10.109   8.220
 9159SOL     OW29315   0.134  13.573  10.647
 9159SOL    HW129316   0.190  13.504  10.610
 9159SOL    HW229317   0.196  13.635  10.687
 9160SOL     OW29318   4.942  10.659   4.415
 9160SOL    HW129319   4.912  10.617   4.495
 9160SOL    HW229320   4.945  10.589   4.350
 9161SOL     OW29321   9.244  10.183  13.653
 9161SOL    HW129322   9.332  10.218  13.669
 9161SOL    HW229323   9.220  10.140  13.736
 9162SOL     OW29324   6.492   6.275   7.451
 9162SOL    HW129325   6.483   6.238   7.539
 9162SOL    HW229326   6.573   6.326   7.454
 9163SOL     OW29327   8.780   2.980   4.383
 9163SOL    HW129328   8.872   2.989   4.358
 9163SOL    HW229329   8.756   3.067   4.416
 9164SOL     OW29330   6.450  11.660   3.402
 9164SOL    HW129331   6.374  11.627   3.450
 9164SOL    HW229332   6.451  11.610   3.321
 9165SOL     OW29333   0.809   2.909   7.626
 9165SOL    HW129334   0.754   2.903   7.548
 9165SOL    HW229335   0.865   2.832   7.622
 9166SOL     OW29336   7.428   9.137   3.364
 9166SOL    HW129337   7.439   9.201   3.435
 9166SOL    HW229338   7.435   9.052   3.407
 9167SOL     OW29339  13.078   0.488   6.408
 9167SOL    HW129340  13.123   0.409   6.439
 9167SOL    HW229341  12.986   0.475   6.433
 9168SOL     OW29342   8.322   0.005   0.626
 9168SOL    HW129343   8.310   0.036   0.716
 9168SOL    HW229344   8.234   0.006   0.588
 9169SOL     OW29345   4.655   8.733   8.322
 9169SOL    HW129346   4.566   8.740   8.356
 9169SOL    HW229347   4.670   8.815   8.276
 9170SOL     OW29348   4.114  14.510   2.445
 9170SOL    HW129349   4.109  14.457   2.525
 9170SOL    HW229350   4.060  14.586   2.463
 9171SOL     OW29351   0.796   1.604   3.630
 9171SOL    HW129352   0.736   1.659   3.580
 9171SOL    HW229353   0.801   1.523   3.579
 9172SOL     OW29354   0.439   3.055  14.462
 9172SOL    HW129355   0.360   3.031  14.413
 9172SOL    HW229356   0.455   2.981  14.520
 9173SOL     OW29357   2.634   5.185   4.014
 9173SOL    HW129358   2.658   5.277   4.006
 9173SOL    HW229359   2.681   5.141   3.943
 9174SOL     OW29360   8.092   6.967   7.889
 9174SOL    HW129361   8.161   7.017   7.845
 9174SOL    HW229362   8.101   6.991   7.981
 9175SOL     OW29363   6.536  12.355   8.064
 9175SOL    HW129364   6.556  12.448   8.068
 9175SOL    HW229365   6.618  12.314   8.036
 9176SOL     OW29366   9.856   2.443  11.339
 9176SOL    HW129367   9.802   2.510  11.296
 9176SOL    HW229368   9.883   2.484  11.421
 9177SOL     OW29369   5.285   1.470  10.298
 9177SOL    HW129370   5.282   1.378  10.270
 9177SOL    HW229371   5.332   1.514  10.228
 9178SOL     OW29372   8.975   7.735  14.473
 9178SOL    HW129373   9.067   7.740  14.499
 9178SOL    HW229374   8.939   7.822  14.492
 9179SOL     OW29375   7.953  11.580   4.979
 9179SOL    HW129376   7.996  11.497   4.997
 9179SOL    HW229377   7.992  11.641   5.042
 9180SOL     OW29378   7.084   9.616   9.154
 9180SOL    HW129379   7.061   9.543   9.211
 9180SOL    HW229380   7.142   9.577   9.088
 9181SOL     OW29381   8.229  10.946   6.178
 9181SOL    HW129382   8.243  11.040   6.188
 9181SOL    HW229383   8.313  10.912   6.147
 9182SOL     OW29384   4.838  14.646   7.525
 9182SOL    HW129385   4.911  14.703   7.499
 9182SOL    HW229386   4.784  14.638   7.446
 9183SOL     OW29387   5.201   1.933   4.976
 9183SOL    HW129388   5.273   1.966   4.922
 9183SOL    HW229389   5.183   1.845   4.942
 9184SOL     OW29390   1.243  14.451   4.188
 9184SOL    HW129391   1.307  14.509   4.146
 9184SOL    HW229392   1.292  14.408   4.258
 9185SOL     OW29393   9.183   1.925   3.463
 9185SOL    HW129394   9.109   1.871   3.436
 9185SOL    HW229395   9.165   1.947   3.555
 9186SOL     OW29396   9.710  12.372   3.158
 9186SOL    HW129397   9.721  12.430   3.233
 9186SOL    HW229398   9.725  12.428   3.082
 9187SOL     OW29399   0.452   5.273   3.724
 9187SOL    HW129400   0.369   5.265   3.771
 9187SOL    HW229401   0.505   5.201   3.757
 9188SOL     OW29402  13.461  11.031   2.276
 9188SOL    HW129403  13.376  10.997   2.248
 9188SOL    HW229404  13.522  10.999   2.209
 9189SOL     OW29405  13.071  11.787  11.273
 9189SOL    HW129406  13.025  11.715  11.230
 9189SOL    HW229407  13.136  11.744  11.328
 9190SOL     OW29408   3.171  14.358  14.790
 9190SOL    HW129409   3.184  14.414  14.713
 9190SOL    HW229410   3.119  14.285  14.757
 9191SOL     OW29411   8.825  11.994  12.262
 9191SOL    HW129412   8.760  11.997  12.192
 9191SOL    HW229413   8.857  12.084  12.270
 9192SOL     OW29414   4.734   4.715   1.127
 9192SOL    HW129415   4.663   4.668   1.083
 9192SOL    HW229416   4.717   4.703   1.221
 9193SOL     OW29417  10.463  12.824   3.973
 9193SOL    HW129418  10.433  12.811   3.883
 9193SOL    HW229419  10.408  12.894   4.007
 9194SOL     OW29420   3.881   8.936   7.456
 9194SOL    HW129421   3.938   9.012   7.469
 9194SOL    HW229422   3.912   8.872   7.520
 9195SOL     OW29423  14.798  12.064  10.104
 9195SOL    HW129424  14.708  12.036  10.113
 9195SOL    HW229425  14.848  11.983  10.097
 9196SOL     OW29426   0.874   8.647   8.629
 9196SOL    HW129427   0.779   8.646   8.637
 9196SOL    HW229428   0.893   8.584   8.560
 9197SOL     OW29429   6.743   5.798  14.316
 9197SOL    HW129430   6.740   5.715  14.363
 9197SOL    HW229431   6.655   5.808  14.278
 9198SOL     OW29432   2.882   9.441  10.653
 9198SOL    HW129433   2.977   9.433  10.654
 9198SOL    HW229434   2.855   9.418  10.741
 9199SOL     OW29435   3.767   7.839  10.582
 9199SOL    HW129436   3.833   7.821  10.649
 9199SOL    HW229437   3.783   7.774  10.514
 9200SOL     OW29438  11.265   2.491  14.792
 9200SOL    HW129439  11.311   2.537  14.722
 9200SOL    HW229440  11.333   2.476  14.858
 9201SOL     OW29441   4.217   6.067   3.797
 9201SOL    HW129442   4.305   6.033   3.785
 9201SOL    HW229443   4.172   6.000   3.849
 9202SOL     OW29444   3.325  10.481   7.999
 9202SOL    HW129445   3.286  10.521   8.077
 9202SOL    HW229446   3.259  10.494   7.930
 9203SOL     OW29447   2.469  11.452   5.922
 9203SOL    HW129448   2.388  11.413   5.956
 9203SOL    HW229449   2.440  11.533   5.880
 9204SOL     OW29450   5.112   7.431   9.602
 9204SOL    HW129451   5.071   7.346   9.590
 9204SOL    HW229452   5.047   7.483   9.649
 9205SOL     OW29453  11.879  11.831   1.527
 9205SOL    HW129454  11.893  11.925   1.531
 9205SOL    HW229455  11.792  11.818   1.564
 9206SOL     OW29456  14.302   6.911   0.587
 9206SOL    HW129457  14.387   6.866   0.583
 9206SOL    HW229458  14.270   6.910   0.497
 9207SOL     OW29459   2.111   5.724   5.648
 9207SOL    HW129460   2.067   5.640   5.656
 9207SOL    HW229461   2.175   5.725   5.719
 9208SOL     OW29462   9.069   5.317   9.583
 9208SOL    HW129463   9.101   5.357   9.664
 9208SOL    HW229464   9.002   5.376   9.551
 9209SOL     OW29465   5.991  10.947   4.511
 9209SOL    HW129466   5.923  10.933   4.578
 9209SOL    HW229467   5.980  11.039   4.486
 9210SOL     OW29468  11.109   2.015   9.026
 9210SOL    HW129469  11.180   2.061   8.980
 9210SOL    HW229470  11.031   2.035   8.975
 9211SOL     OW29471   3.422   8.169   9.172
 9211SOL    HW129472   3.472   8.250   9.188
 9211SOL    HW229473   3.469   8.126   9.100
 9212SOL     OW29474   4.187  12.335   6.142
 9212SOL    HW129475   4.132  12.386   6.082
 9212SOL    HW229476   4.255  12.297   6.086
 9213SOL     OW29477   2.959   6.025  12.108
 9213SOL    HW129478   3.007   6.040  12.190
 9213SOL    HW229479   2.996   6.089  12.047
 9214SOL     OW29480   4.697   5.351   5.139
 9214SOL    HW129481   4.667   5.432   5.098
 9214SOL    HW229482   4.626   5.289   5.124
 9215SOL     OW29483  12.286  10.541   4.257
 9215SOL    HW129484  12.293  10.520   4.350
 9215SOL    HW229485  12.209  10.493   4.226
 9216SOL     OW29486   1.723   6.959  11.014
 9216SOL    HW129487   1.756   7.045  10.986
 9216SOL    HW229488   1.729   6.905  10.936
 9217SOL     OW29489   1.287   0.981   9.115
 9217SOL    HW129490   1.285   1.031   9.197
 9217SOL    HW229491   1.205   0.932   9.115
 9218SOL     OW29492  11.686   4.589   0.560
 9218SOL    HW129493  11.634   4.657   0.603
 9218SOL    HW229494  11.759   4.635   0.520
 9219SOL     OW29495   5.659   9.482   9.201
 9219SOL    HW129496   5.627   9.556   9.150
 9219SOL    HW229497   5.661   9.514   9.292
 9220SOL     OW29498  13.346   5.575   1.985
 9220SOL    HW129499  13.384   5.566   1.898
 9220SOL    HW229500  13.418   5.557   2.045
 9221SOL     OW29501   5.663   7.322   9.999
 9221SOL    HW129502   5.622   7.264  10.063
 9221SOL    HW229503   5.730   7.369  10.048
 9222SOL     OW29504  11.600   0.101   4.671
 9222SOL    HW129505  11.580   0.046   4.747
 9222SOL    HW229506  11.550   0.061   4.600
 9223SOL     OW29507   4.330   3.024  12.037
 9223SOL    HW129508   4.304   3.051  12.125
 9223SOL    HW229509   4.313   2.930  12.034
 9224SOL     OW29510   9.381   9.140  10.872
 9224SOL    HW129511   9.367   9.107  10.960
 9224SOL    HW229512   9.375   9.063  10.816
 9225SOL     OW29513   0.081  12.719  12.208
 9225SOL    HW129514   0.082  12.677  12.123
 9225SOL    HW229515  14.869  12.760  12.215
 9226SOL     OW29516   0.309  12.754   8.190
 9226SOL    HW129517   0.325  12.728   8.099
 9226SOL    HW229518   0.385  12.720   8.238
 9227SOL     OW29519   4.081   7.502   1.414
 9227SOL    HW129520   4.129   7.487   1.333
 9227SOL    HW229521   4.128   7.449   1.480
 9228SOL     OW29522   5.556  14.460  13.992
 9228SOL    HW129523   5.492  14.531  14.003
 9228SOL    HW229524   5.505  14.386  13.959
 9229SOL     OW29525   6.722   3.173   2.708
 9229SOL    HW129526   6.808   3.168   2.667
 9229SOL    HW229527   6.671   3.229   2.649
 9230SOL     OW29528   2.114   1.074  12.450
 9230SOL    HW129529   2.078   1.147  12.501
 9230SOL    HW229530   2.180   1.114  12.393
 9231SOL     OW29531   5.714  14.783   5.572
 9231SOL    HW129532   5.791  14.759   5.521
 9231SOL    HW229533   5.744  14.783   5.663
 9232SOL     OW29534   6.787   6.689   6.654
 9232SOL    HW129535   6.739   6.626   6.600
 9232SOL    HW229536   6.773   6.773   6.611
 9233SOL     OW29537  11.262   9.693   3.816
 9233SOL    HW129538  11.198   9.746   3.767
 9233SOL    HW229539  11.335   9.682   3.756
 9234SOL     OW29540  13.291  10.232  11.677
 9234SOL    HW129541  13.354  10.246  11.747
 9234SOL    HW229542  13.268  10.320  11.647
 9235SOL     OW29543   4.061  11.001   9.884
 9235SOL    HW129544   4.136  11.061   9.886
 9235SOL    HW229545   4.097  10.920   9.848
 9236SOL     OW29546   3.212  11.427   1.898
 9236SOL    HW129547   3.282  11.391   1.953
 9236SOL    HW229548   3.138  11.438   1.957
 9237SOL     OW29549   1.974   0.241   7.475
 9237SOL    HW129550   1.938   0.214   7.390
 9237SOL    HW229551   2.043   0.304   7.452
 9238SOL     OW29552   0.315   5.518  14.611
 9238SOL    HW129553   0.259   5.532  14.687
 9238SOL    HW229554   0.277   5.442  14.567
 9239SOL     OW29555  12.242   7.602  12.210
 9239SOL    HW129556  12.235   7.574  12.301
 9239SOL    HW229557  12.194   7.685  12.207
 9240SOL     OW29558   5.519   5.150   5.897
 9240SOL    HW129559   5.539   5.126   5.807
 9240SOL    HW229560   5.433   5.112   5.914
 9241SOL     OW29561   1.486   3.742   1.734
 9241SOL    HW129562   1.506   3.694   1.814
 9241SOL    HW229563   1.428   3.813   1.762
 9242SOL     OW29564   9.082   4.784   3.509
 9242SOL    HW129565   9.108   4.800   3.600
 9242SOL    HW229566   9.165   4.780   3.461
 9243SOL     OW29567   6.116   3.303   2.933
 9243SOL    HW129568   6.079   3.265   2.853
 9243SOL    HW229569   6.051   3.283   3.001
 9244SOL     OW29570  11.956   6.923   9.051
 9244SOL    HW129571  12.028   6.903   9.110
 9244SOL    HW229572  11.878   6.924   9.107
 9245SOL     OW29573   2.588   7.936   5.669
 9245SOL    HW129574   2.587   7.975   5.757
 9245SOL    HW229575   2.666   7.882   5.668
 9246SOL     OW29576   9.538  12.233   0.824
 9246SOL    HW129577   9.606  12.186   0.776
 9246SOL    HW229578   9.549  12.205   0.915
 9247SOL     OW29579   8.059  10.452   5.323
 9247SOL    HW129580   8.076  10.515   5.253
 9247SOL    HW229581   8.005  10.500   5.386
 9248SOL     OW29582   0.160  13.405  13.246
 9248SOL    HW129583   0.240  13.441  13.208
 9248SOL    HW229584   0.090  13.456  13.207
 9249SOL     OW29585  14.169   8.178  13.929
 9249SOL    HW129586  14.209   8.206  14.012
 9249SOL    HW229587  14.219   8.224  13.862
 9250SOL     OW29588   7.732   1.634   6.161
 9250SOL    HW129589   7.680   1.569   6.209
 9250SOL    HW229590   7.679   1.714   6.165
 9251SOL     OW29591   9.626  10.589   0.394
 9251SOL    HW129592   9.615  10.495   0.408
 9251SOL    HW229593   9.547  10.616   0.347
 9252SOL     OW29594  12.838   1.830  13.346
 9252SOL    HW129595  12.786   1.753  13.372
 9252SOL    HW229596  12.847   1.880  13.427
 9253SOL     OW29597  13.504   9.470   3.285
 9253SOL    HW129598  13.495   9.459   3.190
 9253SOL    HW229599  13.556   9.550   3.295
 9254SOL     OW29600   3.434  14.206   4.705
 9254SOL    HW129601   3.519  14.173   4.675
 9254SOL    HW229602   3.405  14.141   4.770
 9255SOL     OW29603   5.926   5.071   9.047
 9255SOL    HW129604   5.837   5.063   9.012
 9255SOL    HW229605   5.969   4.989   9.022
 9256SOL     OW29606  12.334   6.958   8.395
 9256SOL    HW129607  12.324   6.936   8.488
 9256SOL    HW229608  12.291   6.886   8.349
 9257SOL     OW29609   5.688   1.256   5.240
 9257SOL    HW129610   5.683   1.352   5.238
 9257SOL    HW229611   5.690   1.235   5.333
 9258SOL     OW29612  10.765   6.770   9.383
 9258SOL    HW129613  10.805   6.813   9.459
 9258SOL    HW229614  10.805   6.813   9.308
 9259SOL     OW29615   2.156   1.445   4.953
 9259SOL    HW129616   2.175   1.373   5.012
 9259SOL    HW229617   2.177   1.524   5.003
 9260SOL     OW29618  11.842   5.127  10.892
 9260SOL    HW129619  11.785   5.070  10.942
 9260SOL    HW229620  11.925   5.079  10.886
 9261SOL     OW29621   1.787  10.735  10.707
 9261SOL    HW129622   1.802  10.716  10.799
 9261SOL    HW229623   1.801  10.651  10.662
 9262SOL     OW29624  12.776  10.394   5.190
 9262SOL    HW129625  12.753  10.484   5.164
 9262SOL    HW229626  12.848  10.371   5.131
 9263SOL     OW29627  11.099  14.681  11.389
 9263SOL    HW129628  11.058  14.667  11.304
 9263SOL    HW229629  11.162  14.752  11.374
 9264SOL     OW29630  11.072  11.946   4.085
 9264SOL    HW129631  11.103  11.911   4.168
 9264SOL    HW229632  11.014  11.878   4.050
 9265SOL     OW29633   7.121  12.493   4.169
 9265SOL    HW129634   7.127  12.490   4.073
 9265SOL    HW229635   7.211  12.478   4.199
 9266SOL     OW29636  11.502  11.912   2.097
 9266SOL    HW129637  11.578  11.899   2.154
 9266SOL    HW229638  11.437  11.849   2.128
 9267SOL     OW29639   0.759   9.074   0.375
 9267SOL    HW129640   0.675   9.113   0.352
 9267SOL    HW229641   0.773   9.006   0.309
 9268SOL     OW29642   2.561   6.188   8.925
 9268SOL    HW129643   2.605   6.273   8.924
 9268SOL    HW229644   2.553   6.166   9.018
 9269SOL     OW29645   1.075   6.674   4.035
 9269SOL    HW129646   1.145   6.609   4.041
 9269SOL    HW229647   1.018   6.642   3.965
 9270SOL     OW29648   6.852   8.803   6.342
 9270SOL    HW129649   6.894   8.855   6.411
 9270SOL    HW229650   6.912   8.730   6.327
 9271SOL     OW29651   4.360  11.625  12.620
 9271SOL    HW129652   4.275  11.586  12.639
 9271SOL    HW229653   4.392  11.656  12.705
 9272SOL     OW29654   9.713  11.440   9.244
 9272SOL    HW129655   9.638  11.442   9.304
 9272SOL    HW229656   9.787  11.420   9.301
 9273SOL     OW29657   2.072   5.345   2.409
 9273SOL    HW129658   2.063   5.303   2.323
 9273SOL    HW229659   2.061   5.273   2.471
 9274SOL     OW29660   7.433   6.328  10.319
 9274SOL    HW129661   7.481   6.403  10.283
 9274SOL    HW229662   7.358   6.318  10.261
 9275SOL     OW29663  13.596   8.651  10.193
 9275SOL    HW129664  13.656   8.697  10.250
 9275SOL    HW229665  13.569   8.574  10.243
 9276SOL     OW29666   3.873   7.293   1.377
 9276SOL    HW129667   3.853   7.253   1.292
 9276SOL    HW229668   3.959   7.333   1.365
 9277SOL     OW29669   8.155   8.499   0.639
 9277SOL    HW129670   8.227   8.448   0.602
 9277SOL    HW229671   8.081   8.439   0.643
 9278SOL     OW29672   4.180   8.400   7.468
 9278SOL    HW129673   4.198   8.322   7.417
 9278SOL    HW229674   4.144   8.368   7.550
 9279SOL     OW29675   6.358   7.851   2.080
 9279SOL    HW129676   6.324   7.777   2.029
 9279SOL    HW229677   6.399   7.811   2.156
 9280SOL     OW29678   2.049   0.638   7.442
 9280SOL    HW129679   2.019   0.724   7.468
 9280SOL    HW229680   1.986   0.609   7.376
 9281SOL     OW29681  12.159  12.407   1.186
 9281SOL    HW129682  12.129  12.490   1.149
 9281SOL    HW229683  12.163  12.348   1.111
 9282SOL     OW29684   8.438   2.852   0.464
 9282SOL    HW129685   8.520   2.902   0.468
 9282SOL    HW229686   8.458   2.770   0.507
 9283SOL     OW29687   1.438   2.437   9.290
 9283SOL    HW129688   1.389   2.459   9.370
 9283SOL    HW229689   1.505   2.375   9.319
 9284SOL     OW29690  14.341   1.756   8.256
 9284SOL    HW129691  14.397   1.793   8.325
 9284SOL    HW229692  14.344   1.820   8.185
 9285SOL     OW29693   5.182   0.184  13.290
 9285SOL    HW129694   5.192   0.279  13.289
 9285SOL    HW229695   5.227   0.156  13.370
 9286SOL     OW29696  12.835   7.320   3.145
 9286SOL    HW129697  12.776   7.254   3.108
 9286SOL    HW229698  12.817   7.399   3.094
 9287SOL     OW29699   7.101   8.957   5.621
 9287SOL    HW129700   7.136   8.869   5.635
 9287SOL    HW229701   7.082   8.989   5.709
 9288SOL     OW29702  12.636  14.727   5.989
 9288SOL    HW129703  12.715  14.677   6.004
 9288SOL    HW229704  12.578  14.667   5.943
 9289SOL     OW29705   8.286  13.215   5.478
 9289SOL    HW129706   8.380  13.207   5.498
 9289SOL    HW229707   8.243  13.168   5.549
 9290SOL     OW29708   1.674   7.611   9.427
 9290SOL    HW129709   1.698   7.542   9.488
 9290SOL    HW229710   1.640   7.565   9.350
 9291SOL     OW29711   8.565  12.180   3.144
 9291SOL    HW129712   8.642  12.153   3.195
 9291SOL    HW229713   8.576  12.137   3.059
 9292SOL     OW29714   1.598   8.997  13.412
 9292SOL    HW129715   1.625   8.915  13.455
 9292SOL    HW229716   1.655   9.004  13.335
 9293SOL     OW29717  10.173   5.387   4.934
 9293SOL    HW129718  10.190   5.325   4.863
 9293SOL    HW229719  10.260   5.416   4.962
 9294SOL     OW29720   7.072  10.977   8.372
 9294SOL    HW129721   7.138  11.038   8.339
 9294SOL    HW229722   6.989  11.010   8.336
 9295SOL     OW29723   9.449   1.712  10.966
 9295SOL    HW129724   9.404   1.791  10.994
 9295SOL    HW229725   9.542   1.735  10.969
 9296SOL     OW29726  10.475   2.671   5.841
 9296SOL    HW129727  10.506   2.690   5.930
 9296SOL    HW229728  10.555   2.650   5.793
 9297SOL     OW29729  10.423   5.639  10.196
 9297SOL    HW129730  10.408   5.557  10.149
 9297SOL    HW229731  10.504   5.674  10.158
 9298SOL     OW29732   0.809   3.082   6.746
 9298SOL    HW129733   0.888   3.136   6.749
 9298SOL    HW229734   0.841   2.992   6.741
 9299SOL     OW29735   5.978   5.405   7.633
 9299SOL    HW129736   5.925   5.475   7.595
 9299SOL    HW229737   5.972   5.333   7.570
 9300SOL     OW29738   0.779   7.759   4.557
 9300SOL    HW129739   0.692   7.739   4.590
 9300SOL    HW229740   0.830   7.781   4.635
 9301SOL     OW29741   4.312   1.208   8.541
 9301SOL    HW129742   4.218   1.207   8.523
 9301SOL    HW229743   4.338   1.116   8.540
 9302SOL     OW29744   4.237   9.389   3.027
 9302SOL    HW129745   4.241   9.484   3.032
 9302SOL    HW229746   4.149   9.370   2.996
 9303SOL     OW29747   4.431  12.304   9.251
 9303SOL    HW129748   4.418  12.397   9.270
 9303SOL    HW229749   4.526  12.292   9.250
 9304SOL     OW29750  12.096   0.909   9.795
 9304SOL    HW129751  12.119   0.880   9.707
 9304SOL    HW229752  12.118   0.835   9.852
 9305SOL     OW29753   6.521  10.951  13.366
 9305SOL    HW129754   6.608  10.924  13.336
 9305SOL    HW229755   6.522  11.046  13.360
 9306SOL     OW29756  11.193  11.615   9.502
 9306SOL    HW129757  11.116  11.601   9.556
 9306SOL    HW229758  11.252  11.543   9.525
 9307SOL     OW29759   5.386   4.882   8.550
 9307SOL    HW129760   5.436   4.807   8.583
 9307SOL    HW229761   5.426   4.901   8.465
 9308SOL     OW29762  12.481   0.364  12.385
 9308SOL    HW129763  12.551   0.389  12.324
 9308SOL    HW229764  12.464   0.444  12.436
 9309SOL     OW29765   7.566  14.644  14.795
 9309SOL    HW129766   7.527  14.605  14.716
 9309SOL    HW229767   7.642  14.590  14.813
 9310SOL     OW29768   8.937   6.142   4.936
 9310SOL    HW129769   8.861   6.148   4.993
 9310SOL    HW229770   8.980   6.060   4.961
 9311SOL     OW29771   9.798   9.156  13.139
 9311SOL    HW129772   9.762   9.080  13.185
 9311SOL    HW229773   9.774   9.230  13.193
 9312SOL     OW29774   6.304   2.540   1.892
 9312SOL    HW129775   6.277   2.586   1.812
 9312SOL    HW229776   6.396   2.565   1.904
 9313SOL     OW29777  13.704   8.411   0.181
 9313SOL    HW129778  13.619   8.438   0.216
 9313SOL    HW229779  13.689   8.403   0.086
 9314SOL     OW29780   9.772   8.010  11.272
 9314SOL    HW129781   9.789   7.932  11.324
 9314SOL    HW229782   9.848   8.018  11.215
 9315SOL     OW29783   0.008   2.908   9.527
 9315SOL    HW129784  14.828   2.845   9.574
 9315SOL    HW229785  14.856   2.993   9.563
 9316SOL     OW29786  14.214   9.782   6.082
 9316SOL    HW129787  14.185   9.863   6.040
 9316SOL    HW229788  14.159   9.774   6.159
 9317SOL     OW29789  14.273   5.292  11.383
 9317SOL    HW129790  14.244   5.371  11.427
 9317SOL    HW229791  14.200   5.268  11.326
 9318SOL     OW29792   9.868   0.993   7.178
 9318SOL    HW129793   9.837   1.011   7.266
 9318SOL    HW229794   9.948   1.045   7.169
 9319SOL     OW29795   6.444  10.569  13.203
 9319SOL    HW129796   6.513  10.529  13.150
 9319SOL    HW229797   6.388  10.614  13.140
 9320SOL     OW29798   3.334  14.625   0.054
 9320SOL    HW129799   3.251  14.672   0.053
 9320SOL    HW229800   3.314  14.541   0.095
 9321SOL     OW29801   2.360   3.507  12.829
 9321SOL    HW129802   2.279   3.489  12.782
 9321SOL    HW229803   2.341   3.486  12.920
 9322SOL     OW29804   9.874   9.745   2.881
 9322SOL    HW129805   9.809   9.780   2.821
 9322SOL    HW229806   9.897   9.660   2.845
 9323SOL     OW29807  11.884  12.155   0.336
 9323SOL    HW129808  11.819  12.196   0.279
 9323SOL    HW229809  11.834  12.096   0.391
 9324SOL     OW29810  10.398  11.232   6.745
 9324SOL    HW129811  10.470  11.170   6.730
 9324SOL    HW229812  10.399  11.247   6.839
 9325SOL     OW29813  10.055  11.312  12.673
 9325SOL    HW129814  10.061  11.328  12.767
 9325SOL    HW229815  10.030  11.396  12.635
 9326SOL     OW29816   5.241  13.736   0.323
 9326SOL    HW129817   5.185  13.665   0.291
 9326SOL    HW229818   5.330  13.702   0.315
 9327SOL     OW29819   1.391   6.840  14.738
 9327SOL    HW129820   1.405   6.766  14.679
 9327SOL    HW229821   1.433   6.914  14.694
 9328SOL     OW29822   3.013  14.439  10.970
 9328SOL    HW129823   2.960  14.508  11.008
 9328SOL    HW229824   3.103  14.469  10.979
 9329SOL     OW29825   9.709  12.260  11.552
 9329SOL    HW129826   9.660  12.342  11.553
 9329SOL    HW229827   9.642  12.192  11.565
 9330SOL     OW29828   7.252   4.853  10.829
 9330SOL    HW129829   7.241   4.783  10.765
 9330SOL    HW229830   7.208   4.821  10.908
 9331SOL     OW29831  11.024   3.275  14.581
 9331SOL    HW129832  10.974   3.354  14.603
 9331SOL    HW229833  10.965   3.203  14.603
 9332SOL     OW29834  13.991  11.210   4.548
 9332SOL    HW129835  14.048  11.266   4.496
 9332SOL    HW229836  13.948  11.153   4.484
 9333SOL     OW29837   6.149  11.166   2.985
 9333SOL    HW129838   6.133  11.183   2.892
 9333SOL    HW229839   6.177  11.251   3.020
 9334SOL     OW29840  13.395   9.236   2.608
 9334SOL    HW129841  13.374   9.155   2.562
 9334SOL    HW229842  13.440   9.291   2.543
 9335SOL     OW29843   3.488   5.312   1.822
 9335SOL    HW129844   3.519   5.400   1.801
 9335SOL    HW229845   3.542   5.284   1.896
 9336SOL     OW29846   5.578   2.649  11.216
 9336SOL    HW129847   5.632   2.579  11.180
 9336SOL    HW229848   5.490   2.611  11.222
 9337SOL     OW29849   6.159  10.548   3.130
 9337SOL    HW129850   6.190  10.625   3.083
 9337SOL    HW229851   6.238  10.493   3.140
 9338SOL     OW29852   0.626  13.970   5.905
 9338SOL    HW129853   0.690  13.902   5.927
 9338SOL    HW229854   0.553  13.953   5.964
 9339SOL     OW29855   1.493   0.983  10.976
 9339SOL    HW129856   1.540   0.977  10.893
 9339SOL    HW229857   1.522   0.907  11.026
 9340SOL     OW29858   2.565  12.017  13.901
 9340SOL    HW129859   2.492  11.973  13.858
 9340SOL    HW229860   2.570  12.104  13.860
 9341SOL     OW29861   8.969  10.837   1.840
 9341SOL    HW129862   9.009  10.759   1.801
 9341SOL    HW229863   8.886  10.847   1.794
 9342SOL     OW29864   3.104   8.708   2.144
 9342SOL    HW129865   3.150   8.705   2.060
 9342SOL    HW229866   3.128   8.793   2.181
 9343SOL     OW29867   6.564   1.229  13.127
 9343SOL    HW129868   6.487   1.236  13.184
 9343SOL    HW229869   6.572   1.135  13.110
 9344SOL     OW29870  12.437  10.595   6.124
 9344SOL    HW129871  12.453  10.659   6.055
 9344SOL    HW229872  12.382  10.640   6.188
 9345SOL     OW29873   6.345   8.508   2.937
 9345SOL    HW129874   6.404   8.559   2.882
 9345SOL    HW229875   6.327   8.429   2.886
 9346SOL     OW29876   6.076   6.877   6.714
 9346SOL    HW129877   6.086   6.935   6.790
 9346SOL    HW229878   6.087   6.935   6.639
 9347SOL     OW29879   3.358   7.860  11.060
 9347SOL    HW129880   3.410   7.915  11.002
 9347SOL    HW229881   3.378   7.893  11.148
 9348SOL     OW29882   6.673   1.259   2.929
 9348SOL    HW129883   6.671   1.298   2.841
 9348SOL    HW229884   6.692   1.333   2.987
 9349SOL     OW29885   8.659   2.068  11.786
 9349SOL    HW129886   8.707   1.992  11.753
 9349SOL    HW229887   8.598   2.091  11.716
 9350SOL     OW29888  10.411   6.189   8.455
 9350SOL    HW129889  10.450   6.169   8.370
 9350SOL    HW229890  10.360   6.268   8.439
 9351SOL     OW29891  13.071   0.257   9.578
 9351SOL    HW129892  13.087   0.265   9.672
 9351SOL    HW229893  13.000   0.319   9.560
 9352SOL     OW29894   3.900  13.872  10.427
 9352SOL    HW129895   3.822  13.923  10.404
 9352SOL    HW229896   3.945  13.858  10.344
 9353SOL     OW29897   8.712  12.101   6.590
 9353SOL    HW129898   8.800  12.138   6.595
 9353SOL    HW229899   8.720  12.014   6.627
 9354SOL     OW29900   2.051   3.399  10.231
 9354SOL    HW129901   2.046   3.447  10.148
 9354SOL    HW229902   2.129   3.435  10.274
 9355SOL     OW29903   4.338  11.961   8.265
 9355SOL    HW129904   4.311  12.051   8.281
 9355SOL    HW229905   4.429  11.968   8.236
 9356SOL     OW29906   5.375   8.737   8.733
 9356SOL    HW129907   5.366   8.649   8.697
 9356SOL    HW229908   5.322   8.736   8.813
 9357SOL     OW29909   3.385   0.665   9.066
 9357SOL    HW129910   3.381   0.595   9.002
 9357SOL    HW229911   3.383   0.745   9.014
 9358SOL     OW29912   4.127   2.461   2.783
 9358SOL    HW129913   4.057   2.505   2.831
 9358SOL    HW229914   4.108   2.479   2.691
 9359SOL     OW29915   7.629  11.638  13.803
 9359SOL    HW129916   7.706  11.655  13.750
 9359SOL    HW229917   7.595  11.554  13.771
 9360SOL     OW29918   4.386  13.645  11.412
 9360SOL    HW129919   4.385  13.621  11.504
 9360SOL    HW229920   4.315  13.709  11.403
 9361SOL     OW29921  13.945   6.870  11.542
 9361SOL    HW129922  13.922   6.819  11.620
 9361SOL    HW229923  13.917   6.959  11.562
 9362SOL     OW29924  11.977   2.073   5.164
 9362SOL    HW129925  11.980   2.079   5.259
 9362SOL    HW229926  12.036   2.000   5.143
 9363SOL     OW29927   1.829  12.581   7.824
 9363SOL    HW129928   1.785  12.580   7.909
 9363SOL    HW229929   1.909  12.632   7.838
 9364SOL     OW29930   1.452   7.368   4.443
 9364SOL    HW129931   1.408   7.425   4.506
 9364SOL    HW229932   1.429   7.404   4.357
 9365SOL     OW29933   7.310   7.322   8.534
 9365SOL    HW129934   7.386   7.338   8.478
 9365SOL    HW229935   7.244   7.384   8.502
 9366SOL     OW29936  10.510  14.847  14.534
 9366SOL    HW129937  10.550  14.783  14.593
 9366SOL    HW229938  10.514  14.806  14.448
 9367SOL     OW29939  14.308   0.661   4.903
 9367SOL    HW129940  14.250   0.662   4.979
 9367SOL    HW229941  14.265   0.603   4.841
 9368SOL     OW29942   2.275   2.264  10.992
 9368SOL    HW129943   2.349   2.220  10.949
 9368SOL    HW229944   2.274   2.228  11.081
 9369SOL     OW29945   2.269   1.898  10.744
 9369SOL    HW129946   2.247   1.973  10.690
 9369SOL    HW229947   2.185   1.865  10.776
 9370SOL     OW29948  13.409   3.806  14.078
 9370SOL    HW129949  13.379   3.884  14.124
 9370SOL    HW229950  13.504   3.818  14.068
 9371SOL     OW29951  12.867   9.657  12.492
 9371SOL    HW129952  12.915   9.591  12.542
 9371SOL    HW229953  12.879   9.738  12.542
 9372SOL     OW29954  11.110   2.321   8.972
 9372SOL    HW129955  11.025   2.294   9.009
 9372SOL    HW229956  11.158   2.357   9.046
 9373SOL     OW29957  12.451  13.998   7.264
 9373SOL    HW129958  12.544  13.978   7.274
 9373SOL    HW229959  12.436  13.992   7.170
 9374SOL     OW29960  13.141  12.312   7.329
 9374SOL    HW129961  13.165  12.370   7.400
 9374SOL    HW229962  13.045  12.315   7.327
 9375SOL     OW29963  10.024   5.728   8.501
 9375SOL    HW129964  10.044   5.636   8.481
 9375SOL    HW229965  10.000   5.728   8.594
 9376SOL     OW29966  12.596   0.454   8.629
 9376SOL    HW129967  12.636   0.538   8.653
 9376SOL    HW229968  12.502   0.472   8.633
 9377SOL     OW29969   2.872   2.327   3.899
 9377SOL    HW129970   2.926   2.389   3.947
 9377SOL    HW229971   2.864   2.251   3.957
 9378SOL     OW29972  10.387  11.603  14.863
 9378SOL    HW129973  10.298  11.595  14.830
 9378SOL    HW229974  10.389  11.548   0.068
 9379SOL     OW29975   3.627   0.665   6.381
 9379SOL    HW129976   3.712   0.700   6.407
 9379SOL    HW229977   3.572   0.676   6.458
 9380SOL     OW29978   0.572   7.466   9.862
 9380SOL    HW129979   0.616   7.453   9.946
 9380SOL    HW229980   0.483   7.434   9.876
 9381SOL     OW29981  14.152   1.856  12.783
 9381SOL    HW129982  14.127   1.948  12.776
 9381SOL    HW229983  14.183   1.833  12.695
 9382SOL     OW29984   1.521   1.008   5.918
 9382SOL    HW129985   1.535   1.067   5.992
 9382SOL    HW229986   1.426   1.009   5.904
 9383SOL     OW29987   3.674   4.995  13.618
 9383SOL    HW129988   3.763   5.001  13.586
 9383SOL    HW229989   3.683   4.972  13.710
 9384SOL     OW29990   2.141   6.021   2.272
 9384SOL    HW129991   2.129   5.958   2.201
 9384SOL    HW229992   2.175   6.099   2.229
 9385SOL     OW29993   3.518   7.788  13.638
 9385SOL    HW129994   3.532   7.881  13.657
 9385SOL    HW229995   3.588   7.743  13.684
 9386SOL     OW29996   4.177   5.523   4.521
 9386SOL    HW129997   4.181   5.428   4.513
 9386SOL    HW229998   4.266   5.549   4.543
 9387SOL     OW29999   2.303   5.801   7.687
 9387SOL    HW130000   2.268   5.789   7.776
 9387SOL    HW230001   2.342   5.888   7.688
 9388SOL     OW30002   1.622   5.978   0.746
 9388SOL    HW130003   1.533   5.992   0.713
 9388SOL    HW230004   1.631   6.041   0.818
 9389SOL     OW30005  12.675   9.033  11.172
 9389SOL    HW130006  12.766   9.033  11.200
 9389SOL    HW230007  12.675   9.079  11.088
 9390SOL     OW30008   3.031   0.583   9.531
 9390SOL    HW130009   3.077   0.666   9.514
 9390SOL    HW230010   3.039   0.534   9.450
 9391SOL     OW30011   3.154   7.535   9.645
 9391SOL    HW130012   3.176   7.462   9.703
 9391SOL    HW230013   3.139   7.493   9.560
 9392SOL     OW30014   6.705   3.826  13.922
 9392SOL    HW130015   6.780   3.780  13.885
 9392SOL    HW230016   6.692   3.902  13.866
 9393SOL     OW30017   4.205  12.420   8.530
 9393SOL    HW130018   4.270  12.450   8.595
 9393SOL    HW230019   4.245  12.343   8.491
 9394SOL     OW30020   2.466  12.981   7.854
 9394SOL    HW130021   2.561  12.990   7.853
 9394SOL    HW230022   2.450  12.894   7.889
 9395SOL     OW30023  13.518   2.549   4.754
 9395SOL    HW130024  13.526   2.555   4.849
 9395SOL    HW230025  13.437   2.499   4.740
 9396SOL     OW30026   5.436   5.443  10.140
 9396SOL    HW130027   5.404   5.521  10.094
 9396SOL    HW230028   5.435   5.467  10.232
 9397SOL     OW30029  14.663  12.172   1.190
 9397SOL    HW130030  14.656  12.081   1.221
 9397SOL    HW230031  14.727  12.169   1.120
 9398SOL     OW30032   3.468  11.848  11.611
 9398SOL    HW130033   3.494  11.877  11.699
 9398SOL    HW230034   3.501  11.917  11.553
 9399SOL     OW30035   5.754   7.175   1.460
 9399SOL    HW130036   5.756   7.204   1.369
 9399SOL    HW230037   5.841   7.197   1.493
 9400SOL     OW30038   8.310  10.002   6.581
 9400SOL    HW130039   8.220  10.022   6.552
 9400SOL    HW230040   8.357   9.980   6.501
 9401SOL     OW30041   1.953   8.392   8.646
 9401SOL    HW130042   1.902   8.329   8.697
 9401SOL    HW230043   2.023   8.339   8.607
 9402SOL     OW30044   2.145   1.008  11.961
 9402SOL    HW130045   2.074   0.960  12.003
 9402SOL    HW230046   2.104   1.088  11.927
 9403SOL     OW30047  12.608   4.359  14.312
 9403SOL    HW130048  12.641   4.312  14.389
 9403SOL    HW230049  12.538   4.414  14.347
 9404SOL     OW30050   5.206  11.966   5.503
 9404SOL    HW130051   5.111  11.976   5.515
 9404SOL    HW230052   5.227  11.884   5.547
 9405SOL     OW30053   4.122  14.143   1.315
 9405SOL    HW130054   4.134  14.218   1.256
 9405SOL    HW230055   4.030  14.120   1.305
 9406SOL     OW30056   8.811   1.885   3.165
 9406SOL    HW130057   8.896   1.842   3.170
 9406SOL    HW230058   8.767   1.861   3.247
 9407SOL     OW30059   7.446   2.368   0.898
 9407SOL    HW130060   7.509   2.299   0.880
 9407SOL    HW230061   7.488   2.448   0.865
 9408SOL     OW30062  11.943  11.105  14.255
 9408SOL    HW130063  11.901  11.102  14.169
 9408SOL    HW230064  11.947  11.014  14.283
 9409SOL     OW30065   6.763   5.276   6.387
 9409SOL    HW130066   6.677   5.293   6.348
 9409SOL    HW230067   6.799   5.204   6.336
 9410SOL     OW30068   3.787  14.227   3.298
 9410SOL    HW130069   3.878  14.232   3.269
 9410SOL    HW230070   3.769  14.313   3.336
 9411SOL     OW30071   9.487   8.968  10.137
 9411SOL    HW130072   9.404   8.985  10.093
 9411SOL    HW230073   9.495   8.872  10.136
 9412SOL     OW30074   7.170  12.854   9.294
 9412SOL    HW130075   7.220  12.782   9.331
 9412SOL    HW230076   7.084  12.817   9.274
 9413SOL     OW30077   3.515   1.484  14.324
 9413SOL    HW130078   3.571   1.540  14.270
 9413SOL    HW230079   3.565   1.403  14.334
 9414SOL     OW30080  12.261   7.760  10.539
 9414SOL    HW130081  12.325   7.745  10.608
 9414SOL    HW230082  12.182   7.715  10.569
 9415SOL     OW30083   7.781  13.847   8.569
 9415SOL    HW130084   7.737  13.877   8.489
 9415SOL    HW230085   7.725  13.878   8.640
 9416SOL     OW30086  10.113  12.765   0.575
 9416SOL    HW130087  10.157  12.727   0.652
 9416SOL    HW230088  10.147  12.855   0.570
 9417SOL     OW30089   6.121  11.464  14.131
 9417SOL    HW130090   6.095  11.555  14.116
 9417SOL    HW230091   6.164  11.437  14.050
 9418SOL     OW30092  14.407   2.602   0.658
 9418SOL    HW130093  14.397   2.641   0.572
 9418SOL    HW230094  14.326   2.625   0.704
 9419SOL     OW30095   7.189  13.563   4.306
 9419SOL    HW130096   7.136  13.503   4.252
 9419SOL    HW230097   7.192  13.521   4.391
 9420SOL     OW30098   0.630   5.426   1.009
 9420SOL    HW130099   0.668   5.492   0.951
 9420SOL    HW230100   0.541   5.414   0.976
 9421SOL     OW30101   4.777   9.636  10.367
 9421SOL    HW130102   4.693   9.614  10.327
 9421SOL    HW230103   4.791   9.566  10.432
 9422SOL     OW30104   6.004  14.422   0.231
 9422SOL    HW130105   6.092  14.427   0.269
 9422SOL    HW230106   5.994  14.330   0.206
 9423SOL     OW30107   2.864   2.850   6.936
 9423SOL    HW130108   2.867   2.905   6.858
 9423SOL    HW230109   2.838   2.764   6.904
 9424SOL     OW30110  11.167   5.229   6.015
 9424SOL    HW130111  11.150   5.155   5.957
 9424SOL    HW230112  11.257   5.254   5.997
 9425SOL     OW30113   8.676   2.438  14.863
 9425SOL    HW130114   8.738   2.486  14.808
 9425SOL    HW230115   8.591   2.452  14.821
 9426SOL     OW30116   7.537   7.842  12.719
 9426SOL    HW130117   7.546   7.926  12.674
 9426SOL    HW230118   7.576   7.858  12.806
 9427SOL     OW30119   1.381  11.837  10.520
 9427SOL    HW130120   1.473  11.812  10.509
 9427SOL    HW230121   1.340  11.818  10.436
 9428SOL     OW30122  13.611  12.594  12.568
 9428SOL    HW130123  13.559  12.538  12.511
 9428SOL    HW230124  13.671  12.640  12.510
 9429SOL     OW30125   3.354   7.789   4.070
 9429SOL    HW130126   3.387   7.878   4.057
 9429SOL    HW230127   3.412   7.751   4.135
 9430SOL     OW30128  12.829   7.582   4.205
 9430SOL    HW130129  12.782   7.665   4.209
 9430SOL    HW230130  12.832   7.552   4.296
 9431SOL     OW30131   9.857   4.938  12.177
 9431SOL    HW130132   9.893   5.025  12.161
 9431SOL    HW230133   9.899   4.882  12.111
 9432SOL     OW30134   8.506   4.325   7.652
 9432SOL    HW130135   8.429   4.271   7.632
 9432SOL    HW230136   8.477   4.385   7.721
 9433SOL     OW30137   1.586   2.717   6.685
 9433SOL    HW130138   1.591   2.811   6.704
 9433SOL    HW230139   1.623   2.675   6.762
 9434SOL     OW30140   5.555   2.729   8.577
 9434SOL    HW130141   5.649   2.715   8.576
 9434SOL    HW230142   5.525   2.692   8.660
 9435SOL     OW30143   7.569  13.620   8.730
 9435SOL    HW130144   7.526  13.590   8.649
 9435SOL    HW230145   7.546  13.555   8.795
 9436SOL     OW30146   6.272  10.484   5.799
 9436SOL    HW130147   6.288  10.561   5.854
 9436SOL    HW230148   6.336  10.419   5.828
 9437SOL     OW30149   8.288  12.373   5.584
 9437SOL    HW130150   8.363  12.314   5.585
 9437SOL    HW230151   8.318  12.452   5.628
 9438SOL     OW30152   9.830  10.752   0.474
 9438SOL    HW130153   9.756  10.692   0.465
 9438SOL    HW230154   9.790  10.835   0.499
 9439SOL     OW30155   4.278   2.526   7.034
 9439SOL    HW130156   4.266   2.617   7.062
 9439SOL    HW230157   4.358   2.528   6.981
 9440SOL     OW30158   1.963   1.735   3.163
 9440SOL    HW130159   2.045   1.773   3.130
 9440SOL    HW230160   1.988   1.650   3.200
 9441SOL     OW30161  13.632   0.248   9.230
 9441SOL    HW130162  13.698   0.257   9.162
 9441SOL    HW230163  13.640   0.328   9.282
 9442SOL     OW30164   9.060  12.809  14.455
 9442SOL    HW130165   9.136  12.774  14.409
 9442SOL    HW230166   9.048  12.749  14.529
 9443SOL     OW30167   5.559   7.200   3.799
 9443SOL    HW130168   5.518   7.286   3.787
 9443SOL    HW230169   5.641   7.206   3.751
 9444SOL     OW30170   1.773  11.714  11.813
 9444SOL    HW130171   1.704  11.741  11.874
 9444SOL    HW230172   1.813  11.637  11.854
 9445SOL     OW30173   3.147   9.630   9.273
 9445SOL    HW130174   3.058   9.667   9.268
 9445SOL    HW230175   3.145   9.556   9.213
 9446SOL     OW30176  12.188   7.508  12.683
 9446SOL    HW130177  12.227   7.594  12.702
 9446SOL    HW230178  12.122   7.495  12.751
 9447SOL     OW30179  10.037  12.445  11.483
 9447SOL    HW130180   9.956  12.450  11.534
 9447SOL    HW230181  10.035  12.357  11.444
 9448SOL     OW30182   6.576   1.498  10.088
 9448SOL    HW130183   6.641   1.513  10.157
 9448SOL    HW230184   6.627   1.468  10.013
 9449SOL     OW30185  12.812  14.226   1.443
 9449SOL    HW130186  12.892  14.180   1.420
 9449SOL    HW230187  12.817  14.309   1.395
 9450SOL     OW30188  12.032   8.607   7.763
 9450SOL    HW130189  12.024   8.512   7.763
 9450SOL    HW230190  12.108   8.625   7.818
 9451SOL     OW30191   3.033   0.588   5.675
 9451SOL    HW130192   2.964   0.572   5.610
 9451SOL    HW230193   3.030   0.683   5.689
 9452SOL     OW30194   4.926   4.032  13.136
 9452SOL    HW130195   4.846   4.036  13.189
 9452SOL    HW230196   4.899   4.062  13.049
 9453SOL     OW30197   2.070   6.363  14.415
 9453SOL    HW130198   1.995   6.408  14.454
 9453SOL    HW230199   2.146   6.398  14.462
 9454SOL     OW30200   4.625   8.794   0.911
 9454SOL    HW130201   4.578   8.844   0.844
 9454SOL    HW230202   4.700   8.849   0.933
 9455SOL     OW30203   6.662  13.058   4.944
 9455SOL    HW130204   6.598  13.006   4.993
 9455SOL    HW230205   6.612  13.095   4.872
 9456SOL     OW30206  10.827   0.904  14.292
 9456SOL    HW130207  10.840   0.835  14.226
 9456SOL    HW230208  10.741   0.886  14.329
 9457SOL     OW30209  10.365  14.392   1.477
 9457SOL    HW130210  10.352  14.487   1.472
 9457SOL    HW230211  10.460  14.381   1.471
 9458SOL     OW30212   7.148   2.900  13.381
 9458SOL    HW130213   7.195   2.947  13.450
 9458SOL    HW230214   7.117   2.820  13.425
 9459SOL     OW30215   6.452   5.366   7.610
 9459SOL    HW130216   6.535   5.394   7.647
 9459SOL    HW230217   6.449   5.406   7.523
 9460SOL     OW30218   4.483   7.409   8.656
 9460SOL    HW130219   4.412   7.349   8.634
 9460SOL    HW230220   4.549   7.394   8.588
 9461SOL     OW30221   3.366   9.700  14.155
 9461SOL    HW130222   3.393   9.620  14.201
 9461SOL    HW230223   3.364   9.674  14.063
 9462SOL     OW30224   7.840   5.134  14.056
 9462SOL    HW130225   7.865   5.054  14.011
 9462SOL    HW230226   7.756   5.159  14.017
 9463SOL     OW30227   0.988   3.704  12.105
 9463SOL    HW130228   0.932   3.779  12.085
 9463SOL    HW230229   0.927   3.634  12.127
 9464SOL     OW30230   4.147  12.463   1.166
 9464SOL    HW130231   4.101  12.386   1.200
 9464SOL    HW230232   4.092  12.494   1.094
 9465SOL     OW30233   8.691   9.748   7.400
 9465SOL    HW130234   8.694   9.735   7.495
 9465SOL    HW230235   8.605   9.787   7.385
 9466SOL     OW30236  11.647   5.177   4.391
 9466SOL    HW130237  11.672   5.085   4.391
 9466SOL    HW230238  11.687   5.213   4.471
 9467SOL     OW30239   2.822   3.643   2.628
 9467SOL    HW130240   2.766   3.702   2.578
 9467SOL    HW230241   2.771   3.624   2.707
 9468SOL     OW30242   5.957  13.129   7.336
 9468SOL    HW130243   5.935  13.143   7.244
 9468SOL    HW230244   5.905  13.194   7.384
 9469SOL     OW30245   1.302   6.805  11.990
 9469SOL    HW130246   1.295   6.710  12.000
 9469SOL    HW230247   1.219   6.830  11.949
 9470SOL     OW30248   6.018   3.678   3.577
 9470SOL    HW130249   6.107   3.715   3.573
 9470SOL    HW230250   6.029   3.588   3.546
 9471SOL     OW30251   2.452  14.044   5.348
 9471SOL    HW130252   2.401  13.967   5.323
 9471SOL    HW230253   2.464  14.093   5.267
 9472SOL     OW30254   0.612   1.470  12.477
 9472SOL    HW130255   0.642   1.437  12.392
 9472SOL    HW230256   0.664   1.549  12.493
 9473SOL     OW30257   3.962  13.846   1.377
 9473SOL    HW130258   3.901  13.869   1.446
 9473SOL    HW230259   3.906  13.818   1.304
 9474SOL     OW30260   1.029   5.832   8.029
 9474SOL    HW130261   0.996   5.922   8.028
 9474SOL    HW230262   1.111   5.837   8.078
 9475SOL     OW30263   8.060   5.999   2.343
 9475SOL    HW130264   8.021   6.045   2.269
 9475SOL    HW230265   8.104   5.923   2.304
 9476SOL     OW30266  14.081   3.220  13.701
 9476SOL    HW130267  14.104   3.228  13.793
 9476SOL    HW230268  14.010   3.155  13.700
 9477SOL     OW30269  13.745  14.403  13.481
 9477SOL    HW130270  13.743  14.368  13.392
 9477SOL    HW230271  13.653  14.411  13.506
 9478SOL     OW30272   0.548  12.589  12.921
 9478SOL    HW130273   0.600  12.637  12.856
 9478SOL    HW230274   0.565  12.636  13.004
 9479SOL     OW30275   7.247  14.624   9.542
 9479SOL    HW130276   7.165  14.633   9.591
 9479SOL    HW230277   7.221  14.626   9.450
 9480SOL     OW30278  12.295  12.410   9.386
 9480SOL    HW130279  12.236  12.363   9.327
 9480SOL    HW230280  12.381  12.369   9.371
 9481SOL     OW30281   7.475  10.777   2.797
 9481SOL    HW130282   7.514  10.693   2.825
 9481SOL    HW230283   7.550  10.835   2.787
 9482SOL     OW30284   5.771   2.249   9.722
 9482SOL    HW130285   5.732   2.220   9.640
 9482SOL    HW230286   5.697   2.258   9.782
 9483SOL     OW30287   3.496   8.294   5.529
 9483SOL    HW130288   3.579   8.304   5.483
 9483SOL    HW230289   3.431   8.334   5.471
 9484SOL     OW30290  11.981   9.415  13.418
 9484SOL    HW130291  11.937   9.499  13.425
 9484SOL    HW230292  11.958   9.383  13.330
 9485SOL     OW30293   3.640  13.584   8.654
 9485SOL    HW130294   3.553  13.577   8.692
 9485SOL    HW230295   3.682  13.655   8.702
 9486SOL     OW30296   0.343   2.064  12.151
 9486SOL    HW130297   0.374   1.988  12.101
 9486SOL    HW230298   0.257   2.084  12.114
 9487SOL     OW30299  13.828   1.749   0.402
 9487SOL    HW130300  13.758   1.785   0.348
 9487SOL    HW230301  13.859   1.824   0.453
 9488SOL     OW30302   9.618   9.274   7.120
 9488SOL    HW130303   9.659   9.360   7.130
 9488SOL    HW230304   9.544   9.276   7.181
 9489SOL     OW30305   2.308   0.876  14.266
 9489SOL    HW130306   2.397   0.883  14.302
 9489SOL    HW230307   2.251   0.894  14.341
 9490SOL     OW30308   9.014   9.163  10.736
 9490SOL    HW130309   8.922   9.190  10.728
 9490SOL    HW230310   9.050   9.219  10.804
 9491SOL     OW30311   5.588  13.732   5.535
 9491SOL    HW130312   5.601  13.717   5.441
 9491SOL    HW230313   5.611  13.649   5.576
 9492SOL     OW30314   8.989   4.667  12.372
 9492SOL    HW130315   8.931   4.631  12.439
 9492SOL    HW230316   8.958   4.627  12.290
 9493SOL     OW30317  13.194  13.973   0.558
 9493SOL    HW130318  13.289  13.963   0.569
 9493SOL    HW230319  13.181  14.066   0.544
 9494SOL     OW30320  10.196  13.840  13.463
 9494SOL    HW130321  10.129  13.890  13.418
 9494SOL    HW230322  10.266  13.829  13.398
 9495SOL     OW30323   2.109   4.265  12.597
 9495SOL    HW130324   2.013   4.270  12.592
 9495SOL    HW230325   2.138   4.356  12.599
 9496SOL     OW30326   3.850  12.265   1.989
 9496SOL    HW130327   3.940  12.255   1.958
 9496SOL    HW230328   3.795  12.242   1.914
 9497SOL     OW30329   2.564   7.420   5.177
 9497SOL    HW130330   2.638   7.464   5.219
 9497SOL    HW230331   2.542   7.348   5.237
 9498SOL     OW30332   1.755  13.664   3.736
 9498SOL    HW130333   1.666  13.687   3.764
 9498SOL    HW230334   1.749  13.572   3.712
 9499SOL     OW30335   0.369  11.460   3.018
 9499SOL    HW130336   0.355  11.394   3.085
 9499SOL    HW230337   0.299  11.445   2.954
 9500SOL     OW30338   2.365  14.267   2.045
 9500SOL    HW130339   2.336  14.204   1.979
 9500SOL    HW230340   2.350  14.221   2.128
 9501SOL     OW30341  13.317  11.950   6.301
 9501SOL    HW130342  13.272  12.031   6.277
 9501SOL    HW230343  13.277  11.924   6.383
 9502SOL     OW30344  13.172   5.526   9.362
 9502SOL    HW130345  13.154   5.451   9.305
 9502SOL    HW230346  13.267   5.523   9.377
 9503SOL     OW30347  13.612   0.223   1.333
 9503SOL    HW130348  13.560   0.176   1.398
 9503SOL    HW230349  13.547   0.267   1.278
 9504SOL     OW30350   2.585  11.379   8.745
 9504SOL    HW130351   2.623  11.304   8.700
 9504SOL    HW230352   2.616  11.371   8.835
 9505SOL     OW30353   2.789  13.016  12.603
 9505SOL    HW130354   2.791  13.072  12.681
 9505SOL    HW230355   2.879  13.017  12.570
 9506SOL     OW30356  13.847  10.060  12.546
 9506SOL    HW130357  13.804   9.976  12.563
 9506SOL    HW230358  13.915  10.066  12.613
 9507SOL     OW30359   1.497   9.902   8.173
 9507SOL    HW130360   1.472   9.819   8.133
 9507SOL    HW230361   1.537   9.878   8.256
 9508SOL     OW30362  13.511  12.580   2.833
 9508SOL    HW130363  13.438  12.521   2.852
 9508SOL    HW230364  13.533  12.618   2.918
 9509SOL     OW30365   4.235  14.682   7.521
 9509SOL    HW130366   4.161  14.712   7.469
 9509SOL    HW230367   4.248  14.591   7.494
 9510SOL     OW30368   7.553   9.245   9.893
 9510SOL    HW130369   7.513   9.231   9.807
 9510SOL    HW230370   7.479   9.266   9.950
 9511SOL     OW30371   3.898   1.074  14.853
 9511SOL    HW130372   3.810   1.074  14.817
 9511SOL    HW230373   3.896   1.142   0.047
 9512SOL     OW30374   3.800  13.027   9.082
 9512SOL    HW130375   3.741  13.095   9.049
 9512SOL    HW230376   3.751  12.983   9.151
 9513SOL     OW30377   7.484   0.224  11.499
 9513SOL    HW130378   7.408   0.166  11.506
 9513SOL    HW230379   7.500   0.232  11.405
 9514SOL     OW30380  14.695   4.907  13.051
 9514SOL    HW130381  14.722   4.832  13.105
 9514SOL    HW230382  14.599   4.898  13.045
 9515SOL     OW30383   7.108   2.943   0.340
 9515SOL    HW130384   7.194   2.935   0.381
 9515SOL    HW230385   7.110   3.029   0.297
 9516SOL     OW30386   2.462   5.495   1.433
 9516SOL    HW130387   2.443   5.408   1.467
 9516SOL    HW230388   2.500   5.543   1.507
 9517SOL     OW30389   9.593  13.766  13.197
 9517SOL    HW130390   9.549  13.850  13.184
 9517SOL    HW230391   9.531  13.714  13.248
 9518SOL     OW30392  11.853   5.247   9.617
 9518SOL    HW130393  11.777   5.217   9.567
 9518SOL    HW230394  11.916   5.275   9.551
 9519SOL     OW30395   4.312  12.426  13.796
 9519SOL    HW130396   4.291  12.513  13.762
 9519SOL    HW230397   4.332  12.374  13.719
 9520SOL     OW30398   0.972   2.484   5.292
 9520SOL    HW130399   0.911   2.413   5.268
 9520SOL    HW230400   0.918   2.546   5.342
 9521SOL     OW30401  11.786  12.643   7.784
 9521SOL    HW130402  11.865  12.674   7.738
 9521SOL    HW230403  11.737  12.723   7.803
 9522SOL     OW30404  11.531  13.932  10.102
 9522SOL    HW130405  11.548  13.842  10.129
 9522SOL    HW230406  11.482  13.970  10.175
 9523SOL     OW30407  12.571   6.783   6.767
 9523SOL    HW130408  12.640   6.832   6.723
 9523SOL    HW230409  12.576   6.695   6.729
 9524SOL     OW30410   8.952   9.053   7.731
 9524SOL    HW130411   8.865   9.012   7.722
 9524SOL    HW230412   8.967   9.056   7.826
 9525SOL     OW30413  10.942  12.263   2.425
 9525SOL    HW130414  10.958  12.173   2.400
 9525SOL    HW230415  10.852  12.264   2.457
 9526SOL     OW30416   7.399   2.448   3.914
 9526SOL    HW130417   7.466   2.464   3.981
 9526SOL    HW230418   7.390   2.532   3.869
 9527SOL     OW30419   0.224   1.790   7.699
 9527SOL    HW130420   0.267   1.713   7.735
 9527SOL    HW230421   0.175   1.758   7.623
 9528SOL     OW30422   5.166  10.909  14.872
 9528SOL    HW130423   5.224  10.959  14.815
 9528SOL    HW230424   5.086  10.898  14.820
 9529SOL     OW30425   2.167   3.752   4.824
 9529SOL    HW130426   2.160   3.815   4.895
 9529SOL    HW230427   2.250   3.773   4.781
 9530SOL     OW30428   7.336   9.488   1.510
 9530SOL    HW130429   7.392   9.560   1.539
 9530SOL    HW230430   7.357   9.416   1.570
 9531SOL     OW30431   7.188   5.074   0.601
 9531SOL    HW130432   7.139   5.155   0.613
 9531SOL    HW230433   7.246   5.091   0.527
 9532SOL     OW30434   5.365  14.791   4.596
 9532SOL    HW130435   5.343  14.821   4.685
 9532SOL    HW230436   5.286  14.808   4.545
 9533SOL     OW30437   5.635  10.421  11.180
 9533SOL    HW130438   5.568  10.390  11.120
 9533SOL    HW230439   5.718  10.398  11.139
 9534SOL     OW30440   2.109   7.360   9.287
 9534SOL    HW130441   2.043   7.419   9.250
 9534SOL    HW230442   2.162   7.416   9.344
 9535SOL     OW30443  13.018  13.285   2.951
 9535SOL    HW130444  13.031  13.331   3.034
 9535SOL    HW230445  12.939  13.232   2.964
 9536SOL     OW30446   7.223  13.848   2.193
 9536SOL    HW130447   7.201  13.823   2.283
 9536SOL    HW230448   7.224  13.943   2.194
 9537SOL     OW30449   9.246   7.183   6.098
 9537SOL    HW130450   9.298   7.215   6.024
 9537SOL    HW230451   9.299   7.113   6.136
 9538SOL     OW30452   5.502  13.498   4.146
 9538SOL    HW130453   5.504  13.403   4.138
 9538SOL    HW230454   5.595  13.524   4.149
 9539SOL     OW30455   4.835   6.726   0.311
 9539SOL    HW130456   4.764   6.718   0.247
 9539SOL    HW230457   4.904   6.772   0.265
 9540SOL     OW30458   2.306   8.224   7.001
 9540SOL    HW130459   2.356   8.158   6.953
 9540SOL    HW230460   2.364   8.250   7.073
 9541SOL     OW30461   0.220   6.227   7.984
 9541SOL    HW130462   0.231   6.134   8.005
 9541SOL    HW230463   0.129   6.236   7.958
 9542SOL     OW30464   7.891   6.123   2.846
 9542SOL    HW130465   7.982   6.144   2.869
 9542SOL    HW230466   7.872   6.178   2.770
 9543SOL     OW30467   6.064  12.928   6.340
 9543SOL    HW130468   6.053  12.833   6.330
 9543SOL    HW230469   5.975  12.963   6.331
 9544SOL     OW30470   1.768  11.288   7.569
 9544SOL    HW130471   1.804  11.283   7.481
 9544SOL    HW230472   1.838  11.327   7.622
 9545SOL     OW30473   0.208   7.482   6.598
 9545SOL    HW130474   0.255   7.414   6.550
 9545SOL    HW230475   0.116   7.463   6.582
 9546SOL     OW30476   1.806   2.789  12.928
 9546SOL    HW130477   1.769   2.701  12.932
 9546SOL    HW230478   1.865   2.793  13.004
 9547SOL     OW30479  10.326   0.938   0.104
 9547SOL    HW130480  10.324   0.901   0.016
 9547SOL    HW230481  10.241   0.981   0.114
 9548SOL     OW30482   3.168   5.171   2.729
 9548SOL    HW130483   3.181   5.241   2.792
 9548SOL    HW230484   3.255   5.136   2.712
 9549SOL     OW30485   0.851   9.117   7.458
 9549SOL    HW130486   0.840   9.100   7.552
 9549SOL    HW230487   0.821   9.207   7.446
 9550SOL     OW30488  10.557  11.429   2.927
 9550SOL    HW130489  10.576  11.341   2.896
 9550SOL    HW230490  10.559  11.484   2.848
 9551SOL     OW30491   2.765  13.582  14.320
 9551SOL    HW130492   2.796  13.583  14.410
 9551SOL    HW230493   2.681  13.628  14.323
 9552SOL     OW30494   0.956  10.746  11.668
 9552SOL    HW130495   1.038  10.756  11.716
 9552SOL    HW230496   0.982  10.713  11.582
 9553SOL     OW30497  10.721   4.277   1.252
 9553SOL    HW130498  10.674   4.199   1.223
 9553SOL    HW230499  10.813   4.251   1.254
 9554SOL     OW30500   0.768  11.786   2.960
 9554SOL    HW130501   0.712  11.709   2.948
 9554SOL    HW230502   0.805  11.774   3.048
 9555SOL     OW30503   4.333  11.829   5.252
 9555SOL    HW130504   4.284  11.829   5.170
 9555SOL    HW230505   4.265  11.826   5.320
 9556SOL     OW30506   6.500   8.328  10.467
 9556SOL    HW130507   6.473   8.343  10.557
 9556SOL    HW230508   6.588   8.291  10.474
 9557SOL     OW30509  11.443  13.352   3.967
 9557SOL    HW130510  11.373  13.323   3.909
 9557SOL    HW230511  11.507  13.281   3.964
 9558SOL     OW30512   2.819   4.562   9.362
 9558SOL    HW130513   2.791   4.496   9.426
 9558SOL    HW230514   2.770   4.540   9.283
 9559SOL     OW30515   9.780   8.580   3.597
 9559SOL    HW130516   9.865   8.547   3.628
 9559SOL    HW230517   9.797   8.671   3.575
 9560SOL     OW30518   9.557   0.981   6.738
 9560SOL    HW130519   9.574   0.888   6.721
 9560SOL    HW230520   9.602   0.999   6.820
 9561SOL     OW30521   2.975   6.359  13.275
 9561SOL    HW130522   2.949   6.269  13.254
 9561SOL    HW230523   2.958   6.368  13.369
 9562SOL     OW30524  13.526   7.485  11.114
 9562SOL    HW130525  13.612   7.526  11.127
 9562SOL    HW230526  13.543   7.391  11.123
 9563SOL     OW30527   9.642   0.399   0.829
 9563SOL    HW130528   9.619   0.398   0.921
 9563SOL    HW230529   9.561   0.375   0.784
 9564SOL     OW30530  14.223   7.150   2.842
 9564SOL    HW130531  14.273   7.155   2.924
 9564SOL    HW230532  14.225   7.239   2.807
 9565SOL     OW30533   8.312   4.845   1.894
 9565SOL    HW130534   8.229   4.838   1.943
 9565SOL    HW230535   8.317   4.764   1.844
 9566SOL     OW30536   0.209   7.785   3.151
 9566SOL    HW130537   0.212   7.820   3.240
 9566SOL    HW230538   0.129   7.734   3.147
 9567SOL     OW30539   9.938   4.224   8.596
 9567SOL    HW130540   9.881   4.289   8.637
 9567SOL    HW230541   9.896   4.140   8.613
 9568SOL     OW30542   8.613   5.982   6.234
 9568SOL    HW130543   8.601   6.064   6.282
 9568SOL    HW230544   8.635   6.009   6.145
 9569SOL     OW30545   7.143   7.035   2.019
 9569SOL    HW130546   7.114   6.958   1.970
 9569SOL    HW230547   7.223   7.006   2.064
 9570SOL     OW30548   9.610   3.787  14.485
 9570SOL    HW130549   9.702   3.812  14.477
 9570SOL    HW230550   9.590   3.741  14.404
 9571SOL     OW30551  10.974   6.220   7.445
 9571SOL    HW130552  10.972   6.204   7.350
 9571SOL    HW230553  10.883   6.211   7.472
 9572SOL     OW30554   2.786   9.275  11.849
 9572SOL    HW130555   2.850   9.254  11.781
 9572SOL    HW230556   2.837   9.319  11.917
 9573SOL     OW30557  10.357   1.980   9.186
 9573SOL    HW130558  10.367   1.896   9.231
 9573SOL    HW230559  10.356   1.957   9.093
 9574SOL     OW30560   5.693   0.047   2.152
 9574SOL    HW130561   5.703  14.837   2.196
 9574SOL    HW230562   5.605   0.045   2.115
 9575SOL     OW30563   8.073   9.059   2.120
 9575SOL    HW130564   8.139   8.990   2.119
 9575SOL    HW230565   8.054   9.075   2.028
 9576SOL     OW30566   7.964  13.530   1.440
 9576SOL    HW130567   7.990  13.595   1.375
 9576SOL    HW230568   7.898  13.575   1.493
 9577SOL     OW30569   4.942   8.866  11.526
 9577SOL    HW130570   4.864   8.907  11.564
 9577SOL    HW230571   5.009   8.873  11.594
 9578SOL     OW30572   3.580   7.104   2.803
 9578SOL    HW130573   3.515   7.046   2.843
 9578SOL    HW230574   3.611   7.056   2.726
 9579SOL     OW30575   0.153   1.229   8.861
 9579SOL    HW130576   0.072   1.183   8.836
 9579SOL    HW230577   0.126   1.288   8.931
 9580SOL     OW30578   1.809   1.533   2.451
 9580SOL    HW130579   1.793   1.523   2.545
 9580SOL    HW230580   1.730   1.499   2.409
 9581SOL     OW30581  10.031   8.549   3.700
 9581SOL    HW130582  10.070   8.488   3.762
 9581SOL    HW230583  10.092   8.550   3.625
 9582SOL     OW30584  11.653   9.797   9.121
 9582SOL    HW130585  11.607   9.855   9.060
 9582SOL    HW230586  11.598   9.718   9.125
 9583SOL     OW30587   7.414   9.451  14.441
 9583SOL    HW130588   7.338   9.501  14.412
 9583SOL    HW230589   7.416   9.374  14.384
 9584SOL     OW30590  13.062   0.242   2.923
 9584SOL    HW130591  13.017   0.160   2.946
 9584SOL    HW230592  13.110   0.267   3.002
 9585SOL     OW30593  11.637   0.417   9.565
 9585SOL    HW130594  11.572   0.378   9.506
 9585SOL    HW230595  11.645   0.508   9.535
 9586SOL     OW30596   2.880   9.370   6.155
 9586SOL    HW130597   2.967   9.402   6.131
 9586SOL    HW230598   2.824   9.448   6.149
 9587SOL     OW30599   5.134   3.313  14.613
 9587SOL    HW130600   5.143   3.392  14.560
 9587SOL    HW230601   5.202   3.254  14.581
 9588SOL     OW30602   6.500   0.282  12.299
 9588SOL    HW130603   6.516   0.353  12.362
 9588SOL    HW230604   6.406   0.285  12.283
 9589SOL     OW30605  14.579  14.252   1.196
 9589SOL    HW130606  14.562  14.336   1.240
 9589SOL    HW230607  14.538  14.262   1.110
 9590SOL     OW30608   1.159  12.793  12.375
 9590SOL    HW130609   1.212  12.813  12.298
 9590SOL    HW230610   1.069  12.799  12.344
 9591SOL     OW30611   9.572   1.276   7.317
 9591SOL    HW130612   9.599   1.201   7.369
 9591SOL    HW230613   9.650   1.332   7.314
 9592SOL     OW30614   0.869  13.965  11.860
 9592SOL    HW130615   0.936  13.917  11.811
 9592SOL    HW230616   0.788  13.916  11.845
 9593SOL     OW30617  13.393  12.246   1.037
 9593SOL    HW130618  13.480  12.205   1.037
 9593SOL    HW230619  13.332  12.173   1.052
 9594SOL     OW30620  13.642   4.026   1.531
 9594SOL    HW130621  13.659   4.118   1.514
 9594SOL    HW230622  13.725   3.992   1.564
 9595SOL     OW30623   1.656  12.165  10.150
 9595SOL    HW130624   1.731  12.123  10.192
 9595SOL    HW230625   1.580  12.118  10.183
 9596SOL     OW30626  10.335   2.606  13.518
 9596SOL    HW130627  10.259   2.599  13.461
 9596SOL    HW230628  10.354   2.700  13.522
 9597SOL     OW30629   6.917  12.738   9.233
 9597SOL    HW130630   6.930  12.712   9.141
 9597SOL    HW230631   6.829  12.777   9.234
 9598SOL     OW30632   5.445   7.497   3.080
 9598SOL    HW130633   5.518   7.463   3.027
 9598SOL    HW230634   5.395   7.418   3.104
 9599SOL     OW30635   1.220   6.106   3.046
 9599SOL    HW130636   1.301   6.109   2.996
 9599SOL    HW230637   1.211   6.195   3.081
 9600SOL     OW30638   4.238   8.142  13.792
 9600SOL    HW130639   4.238   8.047  13.784
 9600SOL    HW230640   4.224   8.173  13.702
 9601SOL     OW30641   9.264   3.701   7.824
 9601SOL    HW130642   9.203   3.637   7.787
 9601SOL    HW230643   9.295   3.661   7.906
 9602SOL     OW30644   7.763   0.292   8.709
 9602SOL    HW130645   7.684   0.307   8.761
 9602SOL    HW230646   7.730   0.273   8.621
 9603SOL     OW30647  14.002  11.339   0.493
 9603SOL    HW130648  14.009  11.310   0.584
 9603SOL    HW230649  13.942  11.413   0.495
 9604SOL     OW30650  11.432   0.461  10.590
 9604SOL    HW130651  11.463   0.476  10.680
 9604SOL    HW230652  11.435   0.366  10.580
 9605SOL     OW30653   5.631  13.595   6.225
 9605SOL    HW130654   5.723  13.602   6.250
 9605SOL    HW230655   5.596  13.683   6.239
 9606SOL     OW30656  14.015  13.154   8.794
 9606SOL    HW130657  14.028  13.067   8.757
 9606SOL    HW230658  14.003  13.211   8.718
 9607SOL     OW30659   0.644   8.351   6.958
 9607SOL    HW130660   0.612   8.407   6.887
 9607SOL    HW230661   0.618   8.263   6.932
 9608SOL     OW30662   4.520   0.374   1.893
 9608SOL    HW130663   4.603   0.335   1.921
 9608SOL    HW230664   4.491   0.425   1.968
 9609SOL     OW30665  10.423   6.205   9.471
 9609SOL    HW130666  10.470   6.227   9.390
 9609SOL    HW230667  10.367   6.280   9.487
 9610SOL     OW30668   1.467  12.933  11.452
 9610SOL    HW130669   1.446  13.004  11.512
 9610SOL    HW230670   1.489  12.859  11.509
 9611SOL     OW30671   8.032  13.604  13.965
 9611SOL    HW130672   8.036  13.669  14.035
 9611SOL    HW230673   8.102  13.542  13.986
 9612SOL     OW30674  13.722  14.786   9.185
 9612SOL    HW130675  13.762  14.856   9.134
 9612SOL    HW230676  13.677  14.831   9.256
 9613SOL     OW30677   7.137  11.491   3.737
 9613SOL    HW130678   7.103  11.464   3.822
 9613SOL    HW230679   7.063  11.533   3.694
 9614SOL     OW30680   9.067  11.267   1.355
 9614SOL    HW130681   9.004  11.337   1.370
 9614SOL    HW230682   9.133  11.306   1.298
 9615SOL     OW30683  11.292   9.637   0.101
 9615SOL    HW130684  11.217   9.646   0.160
 9615SOL    HW230685  11.364   9.680   0.147
 9616SOL     OW30686  13.139  11.913   1.168
 9616SOL    HW130687  13.195  11.852   1.119
 9616SOL    HW230688  13.094  11.857   1.231
 9617SOL     OW30689   2.667  12.292   3.935
 9617SOL    HW130690   2.754  12.300   3.895
 9617SOL    HW230691   2.606  12.297   3.862
 9618SOL     OW30692   9.572  11.311   3.269
 9618SOL    HW130693   9.600  11.354   3.188
 9618SOL    HW230694   9.518  11.376   3.314
 9619SOL     OW30695  14.534   5.895  12.281
 9619SOL    HW130696  14.592   5.916  12.355
 9619SOL    HW230697  14.450   5.936  12.304
 9620SOL     OW30698   9.388  11.958  10.274
 9620SOL    HW130699   9.412  12.041  10.314
 9620SOL    HW230700   9.367  11.981  10.183
 9621SOL     OW30701  13.418   2.065   6.500
 9621SOL    HW130702  13.497   2.053   6.447
 9621SOL    HW230703  13.448   2.049   6.590
 9622SOL     OW30704   1.351   2.889   1.969
 9622SOL    HW130705   1.294   2.842   2.029
 9622SOL    HW230706   1.296   2.957   1.930
 9623SOL     OW30707   2.664   5.419   9.438
 9623SOL    HW130708   2.758   5.419   9.420
 9623SOL    HW230709   2.654   5.363   9.515
 9624SOL     OW30710   0.410   9.560   5.196
 9624SOL    HW130711   0.323   9.568   5.156
 9624SOL    HW230712   0.415   9.469   5.224
 9625SOL     OW30713   3.595   1.409  10.522
 9625SOL    HW130714   3.554   1.323  10.507
 9625SOL    HW230715   3.681   1.388  10.559
 9626SOL     OW30716   7.136  10.332   8.170
 9626SOL    HW130717   7.111  10.301   8.257
 9626SOL    HW230718   7.232  10.333   8.171
 9627SOL     OW30719  14.131   6.951  10.619
 9627SOL    HW130720  14.115   7.004  10.541
 9627SOL    HW230721  14.203   6.892  10.594
 9628SOL     OW30722   2.066  13.295   9.620
 9628SOL    HW130723   2.080  13.217   9.674
 9628SOL    HW230724   1.971  13.300   9.608
 9629SOL     OW30725   6.219  10.926   7.485
 9629SOL    HW130726   6.156  10.998   7.491
 9629SOL    HW230727   6.166  10.848   7.500
 9630SOL     OW30728   8.844   2.435   4.745
 9630SOL    HW130729   8.751   2.427   4.722
 9630SOL    HW230730   8.887   2.453   4.661
 9631SOL     OW30731  13.216   9.255   9.304
 9631SOL    HW130732  13.229   9.272   9.211
 9631SOL    HW230733  13.174   9.169   9.308
 9632SOL     OW30734  11.051   0.406  10.675
 9632SOL    HW130735  11.010   0.435  10.757
 9632SOL    HW230736  11.088   0.320  10.696
 9633SOL     OW30737   2.933  14.746   9.965
 9633SOL    HW130738   2.911  14.807   9.894
 9633SOL    HW230739   2.880  14.669   9.948
 9634SOL     OW30740  13.027   1.734   9.924
 9634SOL    HW130741  12.948   1.779   9.894
 9634SOL    HW230742  13.029   1.748  10.019
 9635SOL     OW30743   3.520   1.990   2.350
 9635SOL    HW130744   3.485   1.943   2.274
 9635SOL    HW230745   3.596   2.038   2.315
 9636SOL     OW30746  14.321   2.856   9.521
 9636SOL    HW130747  14.307   2.789   9.588
 9636SOL    HW230748  14.297   2.813   9.439
 9637SOL     OW30749   0.326  13.436  10.494
 9637SOL    HW130750   0.329  13.365  10.430
 9637SOL    HW230751   0.379  13.506  10.456
 9638SOL     OW30752   9.852   5.877   8.342
 9638SOL    HW130753   9.899   5.817   8.400
 9638SOL    HW230754   9.867   5.963   8.380
 9639SOL     OW30755  14.014  14.193  12.747
 9639SOL    HW130756  14.081  14.226  12.807
 9639SOL    HW230757  13.931  14.213  12.790
 9640SOL     OW30758   2.058  13.923   7.824
 9640SOL    HW130759   2.013  13.988   7.877
 9640SOL    HW230760   2.131  13.894   7.878
 9641SOL     OW30761   2.111   0.430  13.823
 9641SOL    HW130762   2.016   0.427  13.816
 9641SOL    HW230763   2.129   0.422  13.916
 9642SOL     OW30764  12.366   2.640   6.108
 9642SOL    HW130765  12.350   2.568   6.168
 9642SOL    HW230766  12.308   2.710   6.139
 9643SOL     OW30767   8.946  13.744   5.559
 9643SOL    HW130768   9.025  13.738   5.505
 9643SOL    HW230769   8.975  13.789   5.639
 9644SOL     OW30770   2.997   9.554  14.741
 9644SOL    HW130771   3.056   9.598  14.681
 9644SOL    HW230772   3.042   9.557  14.826
 9645SOL     OW30773   5.707   1.966  12.136
 9645SOL    HW130774   5.671   2.020  12.066
 9645SOL    HW230775   5.797   1.948  12.110
 9646SOL     OW30776   2.980   0.976   6.266
 9646SOL    HW130777   2.892   0.968   6.303
 9646SOL    HW230778   3.033   1.013   6.336
 9647SOL     OW30779   2.303  14.813   5.473
 9647SOL    HW130780   2.278  14.799   5.381
 9647SOL    HW230781   2.395  14.787   5.477
 9648SOL     OW30782   5.740   1.101  13.744
 9648SOL    HW130783   5.645   1.109  13.747
 9648SOL    HW230784   5.772   1.166  13.807
 9649SOL     OW30785   6.223   6.273   0.049
 9649SOL    HW130786   6.245   6.295   0.140
 9649SOL    HW230787   6.283   6.201   0.028
 9650SOL     OW30788   5.263  12.778   1.207
 9650SOL    HW130789   5.272  12.863   1.163
 9650SOL    HW230790   5.274  12.797   1.300
 9651SOL     OW30791   1.982   0.013  11.142
 9651SOL    HW130792   1.967   0.078  11.211
 9651SOL    HW230793   2.056   0.048  11.092
 9652SOL     OW30794   3.161  11.226   4.970
 9652SOL    HW130795   3.072  11.218   5.005
 9652SOL    HW230796   3.149  11.258   4.881
 9653SOL     OW30797   2.755   3.934   0.430
 9653SOL    HW130798   2.762   4.026   0.457
 9653SOL    HW230799   2.665   3.924   0.401
 9654SOL     OW30800  10.921  11.961   3.224
 9654SOL    HW130801  10.978  11.944   3.149
 9654SOL    HW230802  10.834  11.934   3.194
 9655SOL     OW30803   0.841  12.443   9.491
 9655SOL    HW130804   0.898  12.378   9.533
 9655SOL    HW230805   0.753  12.423   9.525
 9656SOL     OW30806   0.325   3.846   9.963
 9656SOL    HW130807   0.354   3.863  10.052
 9656SOL    HW230808   0.405   3.824   9.915
 9657SOL     OW30809   2.009  13.720   8.241
 9657SOL    HW130810   2.017  13.809   8.275
 9657SOL    HW230811   1.931  13.685   8.283
 9658SOL     OW30812   6.133  11.621   4.913
 9658SOL    HW130813   6.064  11.556   4.913
 9658SOL    HW230814   6.129  11.661   4.826
 9659SOL     OW30815   8.612   5.547  13.463
 9659SOL    HW130816   8.697   5.503  13.462
 9659SOL    HW230817   8.616   5.604  13.540
 9660SOL     OW30818   6.383   5.730   7.400
 9660SOL    HW130819   6.399   5.642   7.433
 9660SOL    HW230820   6.428   5.788   7.462
 9661SOL     OW30821  13.614   7.434   4.223
 9661SOL    HW130822  13.561   7.483   4.285
 9661SOL    HW230823  13.560   7.428   4.144
 9662SOL     OW30824  12.234   8.426  14.154
 9662SOL    HW130825  12.212   8.414  14.246
 9662SOL    HW230826  12.150   8.435  14.109
 9663SOL     OW30827  10.537   0.527  10.876
 9663SOL    HW130828  10.596   0.574  10.816
 9663SOL    HW230829  10.572   0.438  10.879
 9664SOL     OW30830  10.741   9.234  10.855
 9664SOL    HW130831  10.824   9.209  10.815
 9664SOL    HW230832  10.674   9.202  10.794
 9665SOL     OW30833   3.970  12.225   4.370
 9665SOL    HW130834   3.907  12.295   4.350
 9665SOL    HW230835   3.917  12.156   4.409
 9666SOL     OW30836   9.868   8.480   6.134
 9666SOL    HW130837   9.820   8.552   6.177
 9666SOL    HW230838   9.805   8.408   6.132
 9667SOL     OW30839   8.168  10.310   5.039
 9667SOL    HW130840   8.081  10.307   5.079
 9667SOL    HW230841   8.208  10.226   5.060
 9668SOL     OW30842   7.693   3.534  10.761
 9668SOL    HW130843   7.768   3.543  10.819
 9668SOL    HW230844   7.688   3.617  10.714
 9669SOL     OW30845  10.325   9.883  12.911
 9669SOL    HW130846  10.392   9.950  12.899
 9669SOL    HW230847  10.356   9.808  12.861
 9670SOL     OW30848   5.165   8.169   2.291
 9670SOL    HW130849   5.240   8.197   2.343
 9670SOL    HW230850   5.127   8.251   2.258
 9671SOL     OW30851   3.664   9.938   9.749
 9671SOL    HW130852   3.711  10.021   9.760
 9671SOL    HW230853   3.628   9.919   9.835
 9672SOL     OW30854   3.365  12.055   5.543
 9672SOL    HW130855   3.400  12.141   5.567
 9672SOL    HW230856   3.337  12.066   5.452
 9673SOL     OW30857  14.644   2.662   3.279
 9673SOL    HW130858  14.573   2.714   3.242
 9673SOL    HW230859  14.608   2.573   3.283
 9674SOL     OW30860   9.321   0.789  12.591
 9674SOL    HW130861   9.320   0.805  12.685
 9674SOL    HW230862   9.380   0.714  12.580
 9675SOL     OW30863   1.325  14.740  12.928
 9675SOL    HW130864   1.380  14.747  12.849
 9675SOL    HW230865   1.238  14.768  12.898
 9676SOL     OW30866   1.129  11.844   3.238
 9676SOL    HW130867   1.122  11.936   3.260
 9676SOL    HW230868   1.174  11.842   3.153
 9677SOL     OW30869   4.512   1.903   6.296
 9677SOL    HW130870   4.601   1.883   6.266
 9677SOL    HW230871   4.481   1.822   6.336
 9678SOL     OW30872   1.527  12.759   2.587
 9678SOL    HW130873   1.597  12.699   2.613
 9678SOL    HW230874   1.494  12.724   2.505
 9679SOL     OW30875  12.482   4.841   4.464
 9679SOL    HW130876  12.529   4.880   4.538
 9679SOL    HW230877  12.511   4.750   4.463
 9680SOL     OW30878   8.487   4.936   0.195
 9680SOL    HW130879   8.497   5.003   0.262
 9680SOL    HW230880   8.576   4.923   0.160
 9681SOL     OW30881   3.447  10.816   5.173
 9681SOL    HW130882   3.528  10.807   5.124
 9681SOL    HW230883   3.385  10.855   5.110
 9682SOL     OW30884   6.370   8.117   9.224
 9682SOL    HW130885   6.412   8.195   9.262
 9682SOL    HW230886   6.376   8.051   9.293
 9683SOL     OW30887   7.941   7.034  11.639
 9683SOL    HW130888   8.007   7.042  11.708
 9683SOL    HW230889   7.988   7.056  11.558
 9684SOL     OW30890   9.565   2.281   1.503
 9684SOL    HW130891   9.579   2.365   1.459
 9684SOL    HW230892   9.637   2.275   1.566
 9685SOL     OW30893   5.874   5.414   9.959
 9685SOL    HW130894   5.915   5.430   9.874
 9685SOL    HW230895   5.837   5.499   9.985
 9686SOL     OW30896   8.292   0.409   0.748
 9686SOL    HW130897   8.207   0.406   0.793
 9686SOL    HW230898   8.351   0.358   0.803
 9687SOL     OW30899   6.648  13.675  14.682
 9687SOL    HW130900   6.619  13.663  14.773
 9687SOL    HW230901   6.571  13.650  14.629
 9688SOL     OW30902   0.851  13.542   1.230
 9688SOL    HW130903   0.830  13.616   1.172
 9688SOL    HW230904   0.791  13.473   1.204
 9689SOL     OW30905   1.556  10.924  10.668
 9689SOL    HW130906   1.466  10.945  10.694
 9689SOL    HW230907   1.598  10.897  10.749
 9690SOL     OW30908  11.692  14.867   3.138
 9690SOL    HW130909  11.604  14.835   3.116
 9690SOL    HW230910  11.727   0.023   3.054
 9691SOL     OW30911   5.217  11.783   0.838
 9691SOL    HW130912   5.272  11.769   0.761
 9691SOL    HW230913   5.129  11.755   0.811
 9692SOL     OW30914  14.687   6.881   2.590
 9692SOL    HW130915  14.644   6.797   2.575
 9692SOL    HW230916  14.634   6.924   2.657
 9693SOL     OW30917   7.573   4.413  14.307
 9693SOL    HW130918   7.571   4.496  14.355
 9693SOL    HW230919   7.625   4.433  14.228
 9694SOL     OW30920  12.109   5.352  11.402
 9694SOL    HW130921  12.066   5.361  11.317
 9694SOL    HW230922  12.065   5.415  11.459
 9695SOL     OW30923   2.759  13.520   6.347
 9695SOL    HW130924   2.803  13.509   6.262
 9695SOL    HW230925   2.686  13.579   6.328
 9696SOL     OW30926  11.360  12.725   2.016
 9696SOL    HW130927  11.298  12.722   2.089
 9696SOL    HW230928  11.305  12.744   1.939
 9697SOL     OW30929   1.845  13.572  14.213
 9697SOL    HW130930   1.863  13.574  14.307
 9697SOL    HW230931   1.917  13.621  14.174
 9698SOL     OW30932  14.422  13.759   9.122
 9698SOL    HW130933  14.392  13.733   9.034
 9698SOL    HW230934  14.396  13.686   9.178
 9699SOL     OW30935  10.506   6.833   1.152
 9699SOL    HW130936  10.517   6.869   1.241
 9699SOL    HW230937  10.592   6.795   1.132
 9700SOL     OW30938   2.943   7.467   7.943
 9700SOL    HW130939   2.997   7.387   7.943
 9700SOL    HW230940   2.973   7.516   8.020
 9701SOL     OW30941   9.153   6.315   1.272
 9701SOL    HW130942   9.171   6.294   1.180
 9701SOL    HW230943   9.240   6.322   1.312
 9702SOL     OW30944   7.923  14.285   0.682
 9702SOL    HW130945   7.857  14.289   0.751
 9702SOL    HW230946   7.891  14.344   0.614
 9703SOL     OW30947   3.637  14.692   9.240
 9703SOL    HW130948   3.612  14.781   9.263
 9703SOL    HW230949   3.573  14.664   9.175
 9704SOL     OW30950  13.450   6.932   4.142
 9704SOL    HW130951  13.426   6.970   4.226
 9704SOL    HW230952  13.445   6.838   4.155
 9705SOL     OW30953   7.411  13.134  10.902
 9705SOL    HW130954   7.398  13.229  10.900
 9705SOL    HW230955   7.341  13.099  10.847
 9706SOL     OW30956   6.640   5.232   6.994
 9706SOL    HW130957   6.583   5.303   7.024
 9706SOL    HW230958   6.726   5.272   6.983
 9707SOL     OW30959   8.484   1.474  11.550
 9707SOL    HW130960   8.496   1.383  11.577
 9707SOL    HW230961   8.418   1.509  11.610
 9708SOL     OW30962   9.818   1.562  12.921
 9708SOL    HW130963   9.732   1.519  12.922
 9708SOL    HW230964   9.875   1.503  12.971
 9709SOL     OW30965   2.377   9.637  12.470
 9709SOL    HW130966   2.440   9.692  12.423
 9709SOL    HW230967   2.416   9.549  12.468
 9710SOL     OW30968   3.584   0.790   2.506
 9710SOL    HW130969   3.604   0.878   2.539
 9710SOL    HW230970   3.668   0.754   2.480
 9711SOL     OW30971  14.125   2.490  11.073
 9711SOL    HW130972  14.209   2.487  11.027
 9711SOL    HW230973  14.140   2.442  11.154
 9712SOL     OW30974  11.871   2.161  14.675
 9712SOL    HW130975  11.899   2.230  14.735
 9712SOL    HW230976  11.846   2.208  14.595
 9713SOL     OW30977   6.467  11.057  11.813
 9713SOL    HW130978   6.417  11.133  11.844
 9713SOL    HW230979   6.557  11.075  11.839
 9714SOL     OW30980   0.799   5.918   8.270
 9714SOL    HW130981   0.881   5.958   8.298
 9714SOL    HW230982   0.764   5.876   8.349
 9715SOL     OW30983   1.028  14.521  12.036
 9715SOL    HW130984   0.959  14.575  11.998
 9715SOL    HW230985   0.987  14.435  12.048
 9716SOL     OW30986   2.926  14.719   2.935
 9716SOL    HW130987   2.969  14.770   2.867
 9716SOL    HW230988   2.965  14.749   3.017
 9717SOL     OW30989  13.704   6.159   8.641
 9717SOL    HW130990  13.687   6.124   8.554
 9717SOL    HW230991  13.764   6.231   8.627
 9718SOL     OW30992  14.055  13.514   8.386
 9718SOL    HW130993  14.110  13.563   8.325
 9718SOL    HW230994  13.992  13.468   8.330
 9719SOL     OW30995   2.721   4.885   4.944
 9719SOL    HW130996   2.764   4.938   4.877
 9719SOL    HW230997   2.651   4.942   4.977
 9720SOL     OW30998   6.922   2.091   9.875
 9720SOL    HW130999   6.951   2.025   9.812
 9720SOL    HW231000   6.839   2.057   9.910
 9721SOL     OW31001  12.786  14.491   1.342
 9721SOL    HW131002  12.793  14.535   1.427
 9721SOL    HW231003  12.695  14.502   1.316
 9722SOL     OW31004   4.713   3.290   4.773
 9722SOL    HW131005   4.618   3.287   4.786
 9722SOL    HW231006   4.732   3.382   4.757
 9723SOL     OW31007  14.737   0.982   5.647
 9723SOL    HW131008  14.643   0.985   5.634
 9723SOL    HW231009  14.749   0.999   5.741
 9724SOL     OW31010  11.955   7.148  11.330
 9724SOL    HW131011  11.905   7.230  11.321
 9724SOL    HW231012  12.004   7.158  11.411
 9725SOL     OW31013   0.491   5.543   3.756
 9725SOL    HW131014   0.479   5.451   3.732
 9725SOL    HW231015   0.459   5.549   3.846
 9726SOL     OW31016   4.499   6.977  10.231
 9726SOL    HW131017   4.525   7.037  10.162
 9726SOL    HW231018   4.416   7.012  10.263
 9727SOL     OW31019   6.978   5.191   8.538
 9727SOL    HW131020   7.029   5.244   8.477
 9727SOL    HW231021   7.043   5.141   8.586
 9728SOL     OW31022   5.872   4.895   7.911
 9728SOL    HW131023   5.817   4.968   7.885
 9728SOL    HW231024   5.918   4.927   7.989
 9729SOL     OW31025  12.125  11.323   1.630
 9729SOL    HW131026  12.112  11.292   1.719
 9729SOL    HW231027  12.038  11.320   1.591
 9730SOL     OW31028   5.694  14.229   7.395
 9730SOL    HW131029   5.607  14.200   7.423
 9730SOL    HW231030   5.677  14.293   7.326
 9731SOL     OW31031  13.688   7.978   5.355
 9731SOL    HW131032  13.617   7.916   5.372
 9731SOL    HW231033  13.707   7.967   5.262
 9732SOL     OW31034   8.958  10.411  11.745
 9732SOL    HW131035   9.054  10.412  11.748
 9732SOL    HW231036   8.932  10.389  11.834
 9733SOL     OW31037   1.544   7.719  13.245
 9733SOL    HW131038   1.541   7.624  13.252
 9733SOL    HW231039   1.552   7.736  13.151
 9734SOL     OW31040   5.753   4.592   5.955
 9734SOL    HW131041   5.690   4.662   5.972
 9734SOL    HW231042   5.699   4.515   5.936
 9735SOL     OW31043  10.470   6.181  14.590
 9735SOL    HW131044  10.377   6.169  14.609
 9735SOL    HW231045  10.515   6.125  14.654
 9736SOL     OW31046  13.401   2.085   8.806
 9736SOL    HW131047  13.349   2.082   8.725
 9736SOL    HW231048  13.382   2.171   8.844
 9737SOL     OW31049  10.406   4.772  12.945
 9737SOL    HW131050  10.399   4.845  12.883
 9737SOL    HW231051  10.500   4.758  12.956
 9738SOL     OW31052   3.665   6.411  10.322
 9738SOL    HW131053   3.649   6.472  10.250
 9738SOL    HW231054   3.759   6.393  10.317
 9739SOL     OW31055   5.900  12.072  12.025
 9739SOL    HW131056   5.942  11.998  12.070
 9739SOL    HW231057   5.963  12.099  11.958
 9740SOL     OW31058  14.673  12.795   0.023
 9740SOL    HW131059  14.718  12.716  14.868
 9740SOL    HW231060  14.598  12.763   0.074
 9741SOL     OW31061   8.644  11.906   5.457
 9741SOL    HW131062   8.711  11.930   5.521
 9741SOL    HW231063   8.606  11.825   5.491
 9742SOL     OW31064  12.204   1.706   7.937
 9742SOL    HW131065  12.217   1.782   7.994
 9742SOL    HW231066  12.124   1.726   7.889
 9743SOL     OW31067   1.082   1.889   6.350
 9743SOL    HW131068   1.076   1.956   6.282
 9743SOL    HW231069   1.174   1.861   6.349
 9744SOL     OW31070   4.490  11.685  10.063
 9744SOL    HW131071   4.427  11.754  10.043
 9744SOL    HW231072   4.565  11.731  10.100
 9745SOL     OW31073   4.389   4.076   4.753
 9745SOL    HW131074   4.338   4.154   4.771
 9745SOL    HW231075   4.340   4.005   4.794
 9746SOL     OW31076   2.758   1.230   5.958
 9746SOL    HW131077   2.766   1.323   5.939
 9746SOL    HW231078   2.837   1.209   6.008
 9747SOL     OW31079  11.682   5.861  12.775
 9747SOL    HW131080  11.707   5.946  12.741
 9747SOL    HW231081  11.637   5.880  12.858
 9748SOL     OW31082   7.182   0.904   8.304
 9748SOL    HW131083   7.212   0.985   8.263
 9748SOL    HW231084   7.103   0.930   8.353
 9749SOL     OW31085   4.057   6.820   6.870
 9749SOL    HW131086   4.114   6.820   6.946
 9749SOL    HW231087   4.039   6.913   6.853
 9750SOL     OW31088   6.949   8.129   1.833
 9750SOL    HW131089   7.004   8.051   1.846
 9750SOL    HW231090   7.005   8.189   1.783
 9751SOL     OW31091   9.019  13.143   2.117
 9751SOL    HW131092   8.993  13.053   2.095
 9751SOL    HW231093   9.006  13.191   2.035
 9752SOL     OW31094   6.168  10.619   7.297
 9752SOL    HW131095   6.120  10.563   7.235
 9752SOL    HW231096   6.157  10.708   7.263
 9753SOL     OW31097   5.992   2.040   4.164
 9753SOL    HW131098   5.960   2.021   4.252
 9753SOL    HW231099   6.059   1.973   4.148
 9754SOL     OW31100  14.073  12.071  14.549
 9754SOL    HW131101  14.069  12.151  14.497
 9754SOL    HW231102  14.049  12.098  14.638
 9755SOL     OW31103  11.274   8.608   0.724
 9755SOL    HW131104  11.214   8.534   0.729
 9755SOL    HW231105  11.319   8.609   0.809
 9756SOL     OW31106   9.288   9.694   9.072
 9756SOL    HW131107   9.199   9.666   9.050
 9756SOL    HW231108   9.308   9.762   9.008
 9757SOL     OW31109   1.063   5.314   4.261
 9757SOL    HW131110   0.981   5.308   4.310
 9757SOL    HW231111   1.104   5.394   4.293
 9758SOL     OW31112   7.380  11.499   5.622
 9758SOL    HW131113   7.466  11.462   5.602
 9758SOL    HW231114   7.356  11.458   5.705
 9759SOL     OW31115   6.183   1.139  10.948
 9759SOL    HW131116   6.179   1.232  10.971
 9759SOL    HW231117   6.198   1.095  11.032
 9760SOL     OW31118   4.978   6.966   9.065
 9760SOL    HW131119   5.031   7.046   9.069
 9760SOL    HW231120   4.998   6.920   9.146
 9761SOL     OW31121  11.118   7.567  13.073
 9761SOL    HW131122  11.045   7.582  13.133
 9761SOL    HW231123  11.118   7.472  13.059
 9762SOL     OW31124   5.157  11.733   5.648
 9762SOL    HW131125   5.096  11.675   5.694
 9762SOL    HW231126   5.239  11.683   5.644
 9763SOL     OW31127   1.604  10.180   3.536
 9763SOL    HW131128   1.534  10.244   3.548
 9763SOL    HW231129   1.653  10.211   3.460
 9764SOL     OW31130  10.020  13.447   2.469
 9764SOL    HW131131  10.114  13.466   2.471
 9764SOL    HW231132   9.986  13.486   2.550
 9765SOL     OW31133   3.994  14.389  11.136
 9765SOL    HW131134   3.962  14.445  11.065
 9765SOL    HW231135   4.082  14.422  11.154
 9766SOL     OW31136   5.741  13.256   8.008
 9766SOL    HW131137   5.760  13.173   7.965
 9766SOL    HW231138   5.818  13.273   8.063
 9767SOL     OW31139   2.942  14.305   2.758
 9767SOL    HW131140   2.943  14.387   2.709
 9767SOL    HW231141   3.022  14.259   2.731
 9768SOL     OW31142   3.604  13.719   6.064
 9768SOL    HW131143   3.675  13.765   6.018
 9768SOL    HW231144   3.551  13.788   6.102
 9769SOL     OW31145   4.325   8.213  12.796
 9769SOL    HW131146   4.353   8.229  12.705
 9769SOL    HW231147   4.343   8.297  12.840
 9770SOL     OW31148  10.304   7.149   6.439
 9770SOL    HW131149  10.322   7.235   6.478
 9770SOL    HW231150  10.388   7.104   6.439
 9771SOL     OW31151   4.182   1.995  13.946
 9771SOL    HW131152   4.197   2.069  13.887
 9771SOL    HW231153   4.163   1.922  13.888
 9772SOL     OW31154  13.159  11.727   1.749
 9772SOL    HW131155  13.136  11.787   1.678
 9772SOL    HW231156  13.171  11.643   1.705
 9773SOL     OW31157  12.905  14.038   7.067
 9773SOL    HW131158  12.942  14.083   6.991
 9773SOL    HW231159  12.981  14.010   7.118
 9774SOL     OW31160  10.528   5.293   6.599
 9774SOL    HW131161  10.435   5.315   6.602
 9774SOL    HW231162  10.573   5.368   6.637
 9775SOL     OW31163   0.219  13.959  12.099
 9775SOL    HW131164   0.140  13.990  12.055
 9775SOL    HW231165   0.193  13.875  12.138
 9776SOL     OW31166   3.703  11.095  12.140
 9776SOL    HW131167   3.651  11.121  12.216
 9776SOL    HW231168   3.682  11.003  12.126
 9777SOL     OW31169   9.903   8.063   6.007
 9777SOL    HW131170   9.933   7.974   6.026
 9777SOL    HW231171   9.981   8.109   5.975
 9778SOL     OW31172   4.982   2.662   6.018
 9778SOL    HW131173   4.976   2.621   5.932
 9778SOL    HW231174   5.063   2.713   6.015
 9779SOL     OW31175   2.244  10.396   0.997
 9779SOL    HW131176   2.207  10.482   0.979
 9779SOL    HW231177   2.330  10.397   0.955
 9780SOL     OW31178   7.853   5.971  13.183
 9780SOL    HW131179   7.938   6.013  13.192
 9780SOL    HW231180   7.825   5.993  13.094
 9781SOL     OW31181  10.955   7.896   5.558
 9781SOL    HW131182  10.869   7.902   5.516
 9781SOL    HW231183  10.936   7.885   5.651
 9782SOL     OW31184   7.373   6.129   4.958
 9782SOL    HW131185   7.353   6.201   5.018
 9782SOL    HW231186   7.287   6.096   4.931
 9783SOL     OW31187   0.509   7.530   6.037
 9783SOL    HW131188   0.485   7.616   6.002
 9783SOL    HW231189   0.432   7.476   6.022
 9784SOL     OW31190  12.484  11.314   4.183
 9784SOL    HW131191  12.515  11.241   4.130
 9784SOL    HW231192  12.388  11.307   4.180
 9785SOL     OW31193   8.784   9.236   1.040
 9785SOL    HW131194   8.796   9.143   1.018
 9785SOL    HW231195   8.850   9.281   0.988
 9786SOL     OW31196  14.153  14.354   8.625
 9786SOL    HW131197  14.091  14.363   8.697
 9786SOL    HW231198  14.236  14.387   8.661
 9787SOL     OW31199   0.916   0.823  12.035
 9787SOL    HW131200   1.010   0.823  12.047
 9787SOL    HW231201   0.904   0.832  11.940
 9788SOL     OW31202  12.026   2.786   6.731
 9788SOL    HW131203  12.012   2.693   6.746
 9788SOL    HW231204  11.940   2.820   6.707
 9789SOL     OW31205   8.657  11.839   3.981
 9789SOL    HW131206   8.585  11.902   3.978
 9789SOL    HW231207   8.666  11.808   3.891
 9790SOL     OW31208  14.415   8.322  12.994
 9790SOL    HW131209  14.440   8.236  13.028
 9790SOL    HW231210  14.368   8.303  12.912
 9791SOL     OW31211  10.210   5.652   4.718
 9791SOL    HW131212  10.305   5.650   4.729
 9791SOL    HW231213  10.177   5.684   4.801
 9792SOL     OW31214  12.879  10.765  13.017
 9792SOL    HW131215  12.855  10.694  13.076
 9792SOL    HW231216  12.847  10.844  13.059
 9793SOL     OW31217   0.741   2.499   9.121
 9793SOL    HW131218   0.783   2.556   9.057
 9793SOL    HW231219   0.668   2.459   9.073
 9794SOL     OW31220   3.500  10.903  11.024
 9794SOL    HW131221   3.596  10.909  11.033
 9794SOL    HW231222   3.475  10.983  10.978
 9795SOL     OW31223   1.808  12.645   5.306
 9795SOL    HW131224   1.775  12.564   5.344
 9795SOL    HW231225   1.817  12.705   5.381
 9796SOL     OW31226   8.666   8.716  13.040
 9796SOL    HW131227   8.699   8.631  13.068
 9796SOL    HW231228   8.573   8.702  13.024
 9797SOL     OW31229   0.617   7.381   4.226
 9797SOL    HW131230   0.632   7.438   4.301
 9797SOL    HW231231   0.639   7.293   4.257
 9798SOL     OW31232  13.516   0.005   1.575
 9798SOL    HW131233  13.538  14.816   1.644
 9798SOL    HW231234  13.420   0.004   1.572
 9799SOL     OW31235   1.570   1.040   1.650
 9799SOL    HW131236   1.658   1.039   1.690
 9799SOL    HW231237   1.562   1.127   1.612
 9800SOL     OW31238   7.801   5.588   9.304
 9800SOL    HW131239   7.776   5.622   9.218
 9800SOL    HW231240   7.727   5.534   9.331
 9801SOL     OW31241   1.457   9.936  14.266
 9801SOL    HW131242   1.378   9.969  14.222
 9801SOL    HW231243   1.528   9.987  14.228
 9802SOL     OW31244   8.825   2.778  12.105
 9802SOL    HW131245   8.752   2.839  12.098
 9802SOL    HW231246   8.884   2.818  12.169
 9803SOL     OW31247  10.258   2.713   1.471
 9803SOL    HW131248  10.182   2.680   1.423
 9803SOL    HW231249  10.252   2.808   1.464
 9804SOL     OW31250   8.694   9.671  12.228
 9804SOL    HW131251   8.689   9.652  12.322
 9804SOL    HW231252   8.610   9.641  12.193
 9805SOL     OW31253   1.527  11.412   0.684
 9805SOL    HW131254   1.480  11.416   0.767
 9805SOL    HW231255   1.554  11.502   0.667
 9806SOL     OW31256   7.611  13.623  10.739
 9806SOL    HW131257   7.613  13.590  10.829
 9806SOL    HW231258   7.696  13.667  10.728
 9807SOL     OW31259   5.885   1.179  12.897
 9807SOL    HW131260   5.923   1.241  12.835
 9807SOL    HW231261   5.888   1.224  12.981
 9808SOL     OW31262  10.267  12.332  13.284
 9808SOL    HW131263  10.335  12.287  13.234
 9808SOL    HW231264  10.265  12.421  13.248
 9809SOL     OW31265   3.511   4.666   0.015
 9809SOL    HW131266   3.442   4.631   0.071
 9809SOL    HW231267   3.503   4.761   0.023
 9810SOL     OW31268   3.143  14.216   1.985
 9810SOL    HW131269   3.123  14.303   2.018
 9810SOL    HW231270   3.225  14.227   1.936
 9811SOL     OW31271   6.826  12.191   5.419
 9811SOL    HW131272   6.751  12.243   5.447
 9811SOL    HW231273   6.809  12.104   5.456
 9812SOL     OW31274   5.459   8.679  11.867
 9812SOL    HW131275   5.534   8.651  11.919
 9812SOL    HW231276   5.492   8.752  11.815
 9813SOL     OW31277   7.102  12.165   7.754
 9813SOL    HW131278   7.127  12.233   7.691
 9813SOL    HW231279   7.053  12.101   7.703
 9814SOL     OW31280   0.739  12.280  13.480
 9814SOL    HW131281   0.652  12.317  13.468
 9814SOL    HW231282   0.769  12.259  13.392
 9815SOL     OW31283   3.832   8.780  11.270
 9815SOL    HW131284   3.789   8.856  11.232
 9815SOL    HW231285   3.769   8.747  11.335
 9816SOL     OW31286   8.752   4.186   2.077
 9816SOL    HW131287   8.721   4.230   2.156
 9816SOL    HW231288   8.711   4.099   2.081
 9817SOL     OW31289   4.334  12.916  11.235
 9817SOL    HW131290   4.284  12.834  11.236
 9817SOL    HW231291   4.295  12.967  11.163
 9818SOL     OW31292   9.749   7.599   4.224
 9818SOL    HW131293   9.660   7.633   4.219
 9818SOL    HW231294   9.753   7.556   4.310
 9819SOL     OW31295   9.683  12.602   6.181
 9819SOL    HW131296   9.605  12.619   6.128
 9819SOL    HW231297   9.649  12.558   6.259
 9820SOL     OW31298   2.432   8.421  13.503
 9820SOL    HW131299   2.371   8.495  13.509
 9820SOL    HW231300   2.483   8.439  13.424
 9821SOL     OW31301   1.563  14.560  11.816
 9821SOL    HW131302   1.551  14.653  11.837
 9821SOL    HW231303   1.485  14.517  11.852
 9822SOL     OW31304   9.338   7.134   4.116
 9822SOL    HW131305   9.416   7.180   4.086
 9822SOL    HW231306   9.275   7.204   4.137
 9823SOL     OW31307   6.431  12.761  14.076
 9823SOL    HW131308   6.364  12.698  14.052
 9823SOL    HW231309   6.495  12.711  14.125
 9824SOL     OW31310  11.122  13.767   2.740
 9824SOL    HW131311  11.201  13.801   2.783
 9824SOL    HW231312  11.141  13.775   2.646
 9825SOL     OW31313   8.649   9.253   2.321
 9825SOL    HW131314   8.699   9.289   2.248
 9825SOL    HW231315   8.557   9.262   2.295
 9826SOL     OW31316   7.468   0.375  13.993
 9826SOL    HW131317   7.491   0.286  14.022
 9826SOL    HW231318   7.436   0.417  14.073
 9827SOL     OW31319  10.480   8.584   1.929
 9827SOL    HW131320  10.487   8.595   2.024
 9827SOL    HW231321  10.557   8.532   1.905
 9828SOL     OW31322  10.809  11.428  11.414
 9828SOL    HW131323  10.726  11.402  11.373
 9828SOL    HW231324  10.816  11.522  11.397
 9829SOL     OW31325  12.197  11.963   7.147
 9829SOL    HW131326  12.192  11.914   7.065
 9829SOL    HW231327  12.226  12.050   7.120
 9830SOL     OW31328   0.378   3.019   1.781
 9830SOL    HW131329   0.443   2.989   1.717
 9830SOL    HW231330   0.418   3.001   1.866
 9831SOL     OW31331   6.441  10.505   2.926
 9831SOL    HW131332   6.451  10.456   3.008
 9831SOL    HW231333   6.511  10.472   2.870
 9832SOL     OW31334  12.180   6.456   1.731
 9832SOL    HW131335  12.238   6.382   1.752
 9832SOL    HW231336  12.229   6.508   1.668
 9833SOL     OW31337  10.177   9.720   1.031
 9833SOL    HW131338  10.146   9.656   1.095
 9833SOL    HW231339  10.226   9.784   1.084
 9834SOL     OW31340   0.855   0.196   7.088
 9834SOL    HW131341   0.761   0.196   7.068
 9834SOL    HW231342   0.896   0.235   7.011
 9835SOL     OW31343   2.206   3.424   6.251
 9835SOL    HW131344   2.265   3.398   6.322
 9835SOL    HW231345   2.176   3.511   6.276
 9836SOL     OW31346   4.812   3.517   2.583
 9836SOL    HW131347   4.797   3.467   2.503
 9836SOL    HW231348   4.792   3.455   2.654
 9837SOL     OW31349   4.849  11.490  13.382
 9837SOL    HW131350   4.821  11.438  13.457
 9837SOL    HW231351   4.938  11.462  13.364
 9838SOL     OW31352   9.037   2.064   0.093
 9838SOL    HW131353   9.038   2.156   0.066
 9838SOL    HW231354   9.111   2.056   0.154
 9839SOL     OW31355   6.665   6.596   3.884
 9839SOL    HW131356   6.668   6.637   3.970
 9839SOL    HW231357   6.745   6.625   3.840
 9840SOL     OW31358   2.379  12.475   4.957
 9840SOL    HW131359   2.373  12.564   4.920
 9840SOL    HW231360   2.471  12.465   4.981
 9841SOL     OW31361   1.343   9.805   9.296
 9841SOL    HW131362   1.350   9.884   9.243
 9841SOL    HW231363   1.322   9.736   9.233
 9842SOL     OW31364   3.456  12.776   2.869
 9842SOL    HW131365   3.459  12.794   2.963
 9842SOL    HW231366   3.538  12.811   2.835
 9843SOL     OW31367   6.181   6.120  13.755
 9843SOL    HW131368   6.258   6.175  13.770
 9843SOL    HW231369   6.126   6.170  13.695
 9844SOL     OW31370  14.128  10.408   4.408
 9844SOL    HW131371  14.206  10.376   4.452
 9844SOL    HW231372  14.159  10.438   4.323
 9845SOL     OW31373   2.650   8.640  11.014
 9845SOL    HW131374   2.724   8.629  10.954
 9845SOL    HW231375   2.658   8.729  11.046
 9846SOL     OW31376  12.488   4.420   1.707
 9846SOL    HW131377  12.582   4.407   1.695
 9846SOL    HW231378  12.480   4.450   1.798
 9847SOL     OW31379   7.534   6.741  10.353
 9847SOL    HW131380   7.547   6.749  10.448
 9847SOL    HW231381   7.553   6.828  10.319
 9848SOL     OW31382   4.983  11.639   4.353
 9848SOL    HW131383   4.895  11.600   4.343
 9848SOL    HW231384   4.968  11.733   4.350
 9849SOL     OW31385   1.196  14.449   6.850
 9849SOL    HW131386   1.114  14.496   6.861
 9849SOL    HW231387   1.232  14.484   6.768
 9850SOL     OW31388   1.375   5.262  14.351
 9850SOL    HW131389   1.464   5.280  14.322
 9850SOL    HW231390   1.375   5.282  14.444
 9851SOL     OW31391  12.260   7.565   4.171
 9851SOL    HW131392  12.286   7.616   4.095
 9851SOL    HW231393  12.322   7.589   4.240
 9852SOL     OW31394  11.997   1.145  14.421
 9852SOL    HW131395  12.023   1.192  14.500
 9852SOL    HW231396  12.071   1.087  14.401
 9853SOL     OW31397  12.796   4.112   2.905
 9853SOL    HW131398  12.842   4.108   2.988
 9853SOL    HW231399  12.741   4.189   2.911
 9854SOL     OW31400   8.619  11.081  13.966
 9854SOL    HW131401   8.701  11.052  14.005
 9854SOL    HW231402   8.628  11.062  13.873
 9855SOL     OW31403   7.281  14.775   3.120
 9855SOL    HW131404   7.228  14.732   3.053
 9855SOL    HW231405   7.225  14.778   3.197
 9856SOL     OW31406   5.519  12.297  10.311
 9856SOL    HW131407   5.516  12.302  10.407
 9856SOL    HW231408   5.533  12.204  10.293
 9857SOL     OW31409   3.673   0.398  10.657
 9857SOL    HW131410   3.636   0.380  10.743
 9857SOL    HW231411   3.598   0.422  10.602
 9858SOL     OW31412  14.399  13.222   1.806
 9858SOL    HW131413  14.398  13.312   1.837
 9858SOL    HW231414  14.358  13.226   1.719
 9859SOL     OW31415   6.799   2.673   9.846
 9859SOL    HW131416   6.874   2.616   9.834
 9859SOL    HW231417   6.796   2.726   9.767
 9860SOL     OW31418   8.753  13.605   2.236
 9860SOL    HW131419   8.812  13.680   2.240
 9860SOL    HW231420   8.670  13.643   2.206
 9861SOL     OW31421  12.563  11.011  12.573
 9861SOL    HW131422  12.620  11.032  12.647
 9861SOL    HW231423  12.475  11.016  12.609
 9862SOL     OW31424   0.180   3.924  13.690
 9862SOL    HW131425   0.257   3.867  13.686
 9862SOL    HW231426   0.106   3.864  13.700
 9863SOL     OW31427   8.179   1.059  10.413
 9863SOL    HW131428   8.138   1.099  10.489
 9863SOL    HW231429   8.271   1.083  10.420
 9864SOL     OW31430  12.089   0.080  14.590
 9864SOL    HW131431  12.175   0.095  14.629
 9864SOL    HW231432  12.051   0.167  14.581
 9865SOL     OW31433   4.393   5.101   9.035
 9865SOL    HW131434   4.322   5.165   9.038
 9865SOL    HW231435   4.470   5.152   9.012
 9866SOL     OW31436   1.746  14.360   2.324
 9866SOL    HW131437   1.778  14.350   2.413
 9866SOL    HW231438   1.651  14.366   2.333
 9867SOL     OW31439   9.189  11.654   4.118
 9867SOL    HW131440   9.261  11.616   4.167
 9867SOL    HW231441   9.110  11.631   4.168
 9868SOL     OW31442   3.528   1.118  10.592
 9868SOL    HW131443   3.622   1.115  10.570
 9868SOL    HW231444   3.522   1.181  10.664
 9869SOL     OW31445   1.071   8.732  12.694
 9869SOL    HW131446   0.990   8.694  12.727
 9869SOL    HW231447   1.071   8.711  12.601
 9870SOL     OW31448   5.285   4.959   1.013
 9870SOL    HW131449   5.231   4.883   0.991
 9870SOL    HW231450   5.330   4.980   0.931
 9871SOL     OW31451   6.365   7.998   3.321
 9871SOL    HW131452   6.280   8.032   3.294
 9871SOL    HW231453   6.401   7.957   3.242
 9872SOL     OW31454  13.932   9.939   6.676
 9872SOL    HW131455  13.959   9.856   6.636
 9872SOL    HW231456  13.891   9.988   6.604
 9873SOL     OW31457   9.598  11.580   1.719
 9873SOL    HW131458   9.686  11.572   1.755
 9873SOL    HW231459   9.588  11.674   1.701
 9874SOL     OW31460   3.255   6.700   1.914
 9874SOL    HW131461   3.296   6.724   1.832
 9874SOL    HW231462   3.207   6.778   1.941
 9875SOL     OW31463   0.752  12.932   4.986
 9875SOL    HW131464   0.821  12.962   4.927
 9875SOL    HW231465   0.672  12.967   4.949
 9876SOL     OW31466   0.871   3.011   4.708
 9876SOL    HW131467   0.960   3.000   4.742
 9876SOL    HW231468   0.851   2.926   4.668
 9877SOL     OW31469  10.988  12.466   4.743
 9877SOL    HW131470  11.071  12.420   4.734
 9877SOL    HW231471  10.995  12.540   4.682
 9878SOL     OW31472   4.953   2.079   4.179
 9878SOL    HW131473   4.934   2.169   4.151
 9878SOL    HW231474   5.008   2.044   4.109
 9879SOL     OW31475  13.696  14.228   4.585
 9879SOL    HW131476  13.789  14.237   4.565
 9879SOL    HW231477  13.687  14.266   4.673
 9880SOL     OW31478  13.632  12.508   7.430
 9880SOL    HW131479  13.592  12.574   7.374
 9880SOL    HW231480  13.614  12.424   7.387
 9881SOL     OW31481   9.602   0.956  13.232
 9881SOL    HW131482   9.550   1.034  13.252
 9881SOL    HW231483   9.539   0.884  13.235
 9882SOL     OW31484   7.741  11.175   6.488
 9882SOL    HW131485   7.680  11.223   6.432
 9882SOL    HW231486   7.820  11.166   6.435
 9883SOL     OW31487   0.485  14.676  11.559
 9883SOL    HW131488   0.491  14.636  11.472
 9883SOL    HW231489   0.527  14.761  11.549
 9884SOL     OW31490  12.885   9.836  13.025
 9884SOL    HW131491  12.937   9.778  12.970
 9884SOL    HW231492  12.795   9.823  12.996
 9885SOL     OW31493   0.420   3.326  10.931
 9885SOL    HW131494   0.456   3.238  10.941
 9885SOL    HW231495   0.348   3.315  10.868
 9886SOL     OW31496   6.564   6.707  10.007
 9886SOL    HW131497   6.527   6.745   9.927
 9886SOL    HW231498   6.513   6.628  10.022
 9887SOL     OW31499   0.065   0.148  14.162
 9887SOL    HW131500   0.151   0.187  14.143
 9887SOL    HW231501   0.044   0.178  14.250
 9888SOL     OW31502   3.881   6.780  12.377
 9888SOL    HW131503   3.947   6.728  12.423
 9888SOL    HW231504   3.802   6.725  12.379
 9889SOL     OW31505   0.618   6.845  10.684
 9889SOL    HW131506   0.699   6.835  10.735
 9889SOL    HW231507   0.577   6.759  10.687
 9890SOL     OW31508   3.673   1.485  11.678
 9890SOL    HW131509   3.705   1.549  11.614
 9890SOL    HW231510   3.585   1.516  11.701
 9891SOL     OW31511  12.143   5.524   1.016
 9891SOL    HW131512  12.226   5.546   0.975
 9891SOL    HW231513  12.149   5.561   1.105
 9892SOL     OW31514   6.611   8.838  14.148
 9892SOL    HW131515   6.588   8.915  14.097
 9892SOL    HW231516   6.544   8.773  14.125
 9893SOL     OW31517   6.363   3.005  13.877
 9893SOL    HW131518   6.365   2.922  13.924
 9893SOL    HW231519   6.272   3.012  13.847
 9894SOL     OW31520   9.789  10.616   7.096
 9894SOL    HW131521   9.697  10.626   7.121
 9894SOL    HW231522   9.790  10.537   7.041
 9895SOL     OW31523   2.340   4.539  13.785
 9895SOL    HW131524   2.373   4.497  13.865
 9895SOL    HW231525   2.274   4.601  13.816
 9896SOL     OW31526   2.403  11.932   9.021
 9896SOL    HW131527   2.473  11.881   9.062
 9896SOL    HW231528   2.443  11.967   8.941
 9897SOL     OW31529   5.433   2.293   3.293
 9897SOL    HW131530   5.476   2.354   3.233
 9897SOL    HW231531   5.486   2.296   3.373
 9898SOL     OW31532   3.608   2.637   9.758
 9898SOL    HW131533   3.604   2.679   9.672
 9898SOL    HW231534   3.581   2.547   9.741
 9899SOL     OW31535  10.017  10.741   7.686
 9899SOL    HW131536  10.084  10.677   7.711
 9899SOL    HW231537  10.022  10.746   7.591
 9900SOL     OW31538   9.314  12.925  13.116
 9900SOL    HW131539   9.371  12.875  13.058
 9900SOL    HW231540   9.273  12.859  13.172
 9901SOL     OW31541   0.774   1.395   8.648
 9901SOL    HW131542   0.682   1.389   8.620
 9901SOL    HW231543   0.769   1.414   8.742
 9902SOL     OW31544  13.525   7.859   9.287
 9902SOL    HW131545  13.524   7.836   9.380
 9902SOL    HW231546  13.552   7.950   9.286
 9903SOL     OW31547  13.778  14.367   7.113
 9903SOL    HW131548  13.737  14.397   7.032
 9903SOL    HW231549  13.840  14.436   7.136
 9904SOL     OW31550  14.262  10.751  10.762
 9904SOL    HW131551  14.347  10.759  10.717
 9904SOL    HW231552  14.267  10.816  10.833
 9905SOL     OW31553  12.610  14.694   4.243
 9905SOL    HW131554  12.624  14.752   4.168
 9905SOL    HW231555  12.635  14.607   4.210
 9906SOL     OW31556  10.577  12.710   3.047
 9906SOL    HW131557  10.567  12.804   3.065
 9906SOL    HW231558  10.494  12.685   3.008
 9907SOL     OW31559  10.500   1.544  12.021
 9907SOL    HW131560  10.455   1.608  12.075
 9907SOL    HW231561  10.572   1.593  11.980
 9908SOL     OW31562  10.396  12.635   8.103
 9908SOL    HW131563  10.475  12.616   8.154
 9908SOL    HW231564  10.400  12.576   8.028
 9909SOL     OW31565   9.787   8.199   0.182
 9909SOL    HW131566   9.746   8.113   0.181
 9909SOL    HW231567   9.859   8.190   0.244
 9910SOL     OW31568  13.008  11.843   9.560
 9910SOL    HW131569  12.960  11.760   9.563
 9910SOL    HW231570  13.075  11.830   9.493
 9911SOL     OW31571   9.662  14.539   7.463
 9911SOL    HW131572   9.717  14.608   7.501
 9911SOL    HW231573   9.659  14.471   7.531
 9912SOL     OW31574  14.357   1.093  11.010
 9912SOL    HW131575  14.388   1.009  11.043
 9912SOL    HW231576  14.437   1.139  10.983
 9913SOL     OW31577   5.681   0.019   4.404
 9913SOL    HW131578   5.703   0.058   4.489
 9913SOL    HW231579   5.764  14.865   4.368
 9914SOL     OW31580   2.877   8.183  12.853
 9914SOL    HW131581   2.900   8.099  12.812
 9914SOL    HW231582   2.876   8.164  12.947
 9915SOL     OW31583   0.961  10.137   0.482
 9915SOL    HW131584   1.010  10.059   0.507
 9915SOL    HW231585   0.881  10.134   0.534
 9916SOL     OW31586  13.614   3.844  14.474
 9916SOL    HW131587  13.625   3.770  14.415
 9916SOL    HW231588  13.555   3.812  14.542
 9917SOL     OW31589  12.224   9.389   2.606
 9917SOL    HW131590  12.315   9.382   2.575
 9917SOL    HW231591  12.189   9.300   2.598
 9918SOL     OW31592  14.272  13.549   2.790
 9918SOL    HW131593  14.286  13.592   2.874
 9918SOL    HW231594  14.360  13.525   2.761
 9919SOL     OW31595   0.373   6.690  10.627
 9919SOL    HW131596   0.357   6.738  10.546
 9919SOL    HW231597   0.323   6.738  10.693
 9920SOL     OW31598   1.582   1.986   0.345
 9920SOL    HW131599   1.554   1.904   0.305
 9920SOL    HW231600   1.667   2.005   0.304
 9921SOL     OW31601   9.445   6.319   0.150
 9921SOL    HW131602   9.442   6.244   0.209
 9921SOL    HW231603   9.470   6.393   0.206
 9922SOL     OW31604   4.754   4.544  12.970
 9922SOL    HW131605   4.669   4.585  12.952
 9922SOL    HW231606   4.804   4.611  13.017
 9923SOL     OW31607  14.636  14.217   3.109
 9923SOL    HW131608  14.591  14.154   3.054
 9923SOL    HW231609  14.588  14.215   3.192
 9924SOL     OW31610  14.591  11.781   9.239
 9924SOL    HW131611  14.498  11.769   9.216
 9924SOL    HW231612  14.596  11.755   9.331
 9925SOL     OW31613   0.248  12.470   7.343
 9925SOL    HW131614   0.286  12.556   7.324
 9925SOL    HW231615   0.267  12.418   7.265
 9926SOL     OW31616   7.077  12.660   6.711
 9926SOL    HW131617   6.988  12.641   6.741
 9926SOL    HW231618   7.092  12.750   6.738
 9927SOL     OW31619   0.088   7.708   6.754
 9927SOL    HW131620   0.066   7.653   6.829
 9927SOL    HW231621   0.088   7.648   6.679
 9928SOL     OW31622  11.135  14.660   7.726
 9928SOL    HW131623  11.058  14.622   7.768
 9928SOL    HW231624  11.107  14.676   7.636
 9929SOL     OW31625  11.786   5.620   4.547
 9929SOL    HW131626  11.730   5.543   4.536
 9929SOL    HW231627  11.874   5.588   4.527
 9930SOL     OW31628   2.793   3.150   1.600
 9930SOL    HW131629   2.878   3.170   1.639
 9930SOL    HW231630   2.730   3.199   1.653
 9931SOL     OW31631  11.676  11.348   0.618
 9931SOL    HW131632  11.698  11.272   0.564
 9931SOL    HW231633  11.587  11.370   0.592
 9932SOL     OW31634   9.537   8.731   5.085
 9932SOL    HW131635   9.521   8.670   5.013
 9932SOL    HW231636   9.576   8.676   5.154
 9933SOL     OW31637   5.049   2.062   0.630
 9933SOL    HW131638   4.972   2.026   0.674
 9933SOL    HW231639   5.028   2.155   0.616
 9934SOL     OW31640  11.171   0.418   9.355
 9934SOL    HW131641  11.265   0.403   9.363
 9934SOL    HW231642  11.159   0.441   9.263
 9935SOL     OW31643   7.011   5.672   4.788
 9935SOL    HW131644   6.954   5.744   4.816
 9935SOL    HW231645   7.093   5.686   4.834
 9936SOL     OW31646  11.805   6.715   0.509
 9936SOL    HW131647  11.852   6.718   0.425
 9936SOL    HW231648  11.803   6.623   0.531
 9937SOL     OW31649  12.790   0.308  11.000
 9937SOL    HW131650  12.864   0.307  11.061
 9937SOL    HW231651  12.815   0.245  10.932
 9938SOL     OW31652  14.272   2.954  14.670
 9938SOL    HW131653  14.189   2.936  14.713
 9938SOL    HW231654  14.274   3.048  14.657
 9939SOL     OW31655  13.659   3.781  11.458
 9939SOL    HW131656  13.753   3.802  11.456
 9939SOL    HW231657  13.656   3.686  11.456
 9940SOL     OW31658   2.372   8.850  14.428
 9940SOL    HW131659   2.419   8.768  14.439
 9940SOL    HW231660   2.285   8.824  14.398
 9941SOL     OW31661   5.722   5.040  14.093
 9941SOL    HW131662   5.803   5.088  14.079
 9941SOL    HW231663   5.654   5.108  14.089
 9942SOL     OW31664   3.433  14.603   6.477
 9942SOL    HW131665   3.515  14.573   6.438
 9942SOL    HW231666   3.448  14.696   6.494
 9943SOL     OW31667   1.637  14.054   8.927
 9943SOL    HW131668   1.548  14.023   8.910
 9943SOL    HW231669   1.681  14.044   8.843
 9944SOL     OW31670   4.913   3.422  11.822
 9944SOL    HW131671   4.888   3.457  11.736
 9944SOL    HW231672   4.937   3.500  11.873
 9945SOL     OW31673   7.558  11.647   2.935
 9945SOL    HW131674   7.563  11.709   3.008
 9945SOL    HW231675   7.566  11.561   2.975
 9946SOL     OW31676  13.582   2.913  13.833
 9946SOL    HW131677  13.633   2.989  13.861
 9946SOL    HW231678  13.611   2.842  13.891
 9947SOL     OW31679  12.247  10.349   0.985
 9947SOL    HW131680  12.221  10.356   1.077
 9947SOL    HW231681  12.165  10.354   0.936
 9948SOL     OW31682   2.850   5.351  12.219
 9948SOL    HW131683   2.925   5.360  12.278
 9948SOL    HW231684   2.786   5.299  12.268
 9949SOL     OW31685   0.256  11.646   7.475
 9949SOL    HW131686   0.349  11.651   7.494
 9949SOL    HW231687   0.213  11.678   7.554
 9950SOL     OW31688   4.783   1.579  10.892
 9950SOL    HW131689   4.701   1.529  10.892
 9950SOL    HW231690   4.761   1.663  10.852
 9951SOL     OW31691  10.306   3.879   5.365
 9951SOL    HW131692  10.242   3.843   5.303
 9951SOL    HW231693  10.274   3.968   5.383
 9952SOL     OW31694  10.513  14.563  14.018
 9952SOL    HW131695  10.423  14.538  14.037
 9952SOL    HW231696  10.566  14.501  14.070
 9953SOL     OW31697   8.221  13.228  14.748
 9953SOL    HW131698   8.200  13.137  14.767
 9953SOL    HW231699   8.306  13.243  14.787
 9954SOL     OW31700   5.571   9.405   2.325
 9954SOL    HW131701   5.604   9.478   2.378
 9954SOL    HW231702   5.510   9.359   2.382
 9955SOL     OW31703   0.364  12.681  10.160
 9955SOL    HW131704   0.306  12.757  10.150
 9955SOL    HW231705   0.318  12.610  10.114
 9956SOL     OW31706  13.789  12.607  10.403
 9956SOL    HW131707  13.723  12.671  10.429
 9956SOL    HW231708  13.754  12.523  10.432
 9957SOL     OW31709  10.020  11.058   2.671
 9957SOL    HW131710  10.072  11.110   2.732
 9957SOL    HW231711  10.017  10.970   2.710
 9958SOL     OW31712  11.205  14.073   0.268
 9958SOL    HW131713  11.254  14.028   0.199
 9958SOL    HW231714  11.130  14.111   0.224
 9959SOL     OW31715  13.675   8.714   7.874
 9959SOL    HW131716  13.596   8.731   7.924
 9959SOL    HW231717  13.717   8.640   7.919
 9960SOL     OW31718  13.919  13.364  11.284
 9960SOL    HW131719  14.012  13.349  11.266
 9960SOL    HW231720  13.894  13.435  11.225
 9961SOL     OW31721  10.460  10.249   4.744
 9961SOL    HW131722  10.444  10.168   4.695
 9961SOL    HW231723  10.375  10.274   4.779
 9962SOL     OW31724   9.150   4.192   8.559
 9962SOL    HW131725   9.147   4.143   8.641
 9962SOL    HW231726   9.098   4.271   8.577
 9963SOL     OW31727   3.077  13.994   8.250
 9963SOL    HW131728   2.985  14.018   8.247
 9963SOL    HW231729   3.102  14.003   8.342
 9964SOL     OW31730  14.087   2.629   7.080
 9964SOL    HW131731  14.149   2.562   7.051
 9964SOL    HW231732  14.001   2.592   7.060
 9965SOL     OW31733  12.498   9.168   5.623
 9965SOL    HW131734  12.554   9.244   5.606
 9965SOL    HW231735  12.554   9.093   5.608
 9966SOL     OW31736  13.606   9.844   1.512
 9966SOL    HW131737  13.618   9.796   1.594
 9966SOL    HW231738  13.624   9.779   1.444
 9967SOL     OW31739   3.420   9.132   5.884
 9967SOL    HW131740   3.468   9.173   5.955
 9967SOL    HW231741   3.487   9.093   5.828
 9968SOL     OW31742   4.592   7.268   4.087
 9968SOL    HW131743   4.521   7.258   4.024
 9968SOL    HW231744   4.620   7.359   4.078
 9969SOL     OW31745   7.760   1.864   6.438
 9969SOL    HW131746   7.713   1.896   6.515
 9969SOL    HW231747   7.811   1.790   6.471
 9970SOL     OW31748   9.840   1.142   8.491
 9970SOL    HW131749   9.850   1.081   8.564
 9970SOL    HW231750   9.776   1.206   8.522
 9971SOL     OW31751   0.619  10.822  14.804
 9971SOL    HW131752   0.599  10.884  14.735
 9971SOL    HW231753   0.593  10.866   0.011
 9972SOL     OW31754   6.856   7.596   7.135
 9972SOL    HW131755   6.876   7.676   7.086
 9972SOL    HW231756   6.920   7.595   7.206
 9973SOL     OW31757   9.713  13.962   3.037
 9973SOL    HW131758   9.662  13.982   2.958
 9973SOL    HW231759   9.757  14.044   3.059
 9974SOL     OW31760  10.300   8.109   8.043
 9974SOL    HW131761  10.232   8.155   8.093
 9974SOL    HW231762  10.265   8.105   7.953
 9975SOL     OW31763   0.176  12.226   7.406
 9975SOL    HW131764   0.150  12.196   7.319
 9975SOL    HW231765   0.217  12.312   7.391
 9976SOL     OW31766   4.904   5.392  11.721
 9976SOL    HW131767   4.969   5.358  11.783
 9976SOL    HW231768   4.850   5.452  11.773
 9977SOL     OW31769   1.458  11.441   1.218
 9977SOL    HW131770   1.378  11.439   1.271
 9977SOL    HW231771   1.528  11.455   1.281
 9978SOL     OW31772   3.078   7.591   0.747
 9978SOL    HW131773   3.144   7.564   0.812
 9978SOL    HW231774   3.129   7.633   0.678
 9979SOL     OW31775  11.999  11.798   2.437
 9979SOL    HW131776  11.959  11.878   2.470
 9979SOL    HW231777  12.093  11.809   2.456
 9980SOL     OW31778   2.940  13.710   9.503
 9980SOL    HW131779   2.927  13.620   9.535
 9980SOL    HW231780   2.981  13.755   9.576
 9981SOL     OW31781  10.933   4.314   1.014
 9981SOL    HW131782  11.004   4.378   1.020
 9981SOL    HW231783  10.886   4.322   1.097
 9982SOL     OW31784   6.068   3.890   5.932
 9982SOL    HW131785   6.116   3.813   5.901
 9982SOL    HW231786   5.980   3.879   5.895
 9983SOL     OW31787  12.304  14.190   4.733
 9983SOL    HW131788  12.329  14.154   4.818
 9983SOL    HW231789  12.383  14.234   4.701
 9984SOL     OW31790   9.279   7.571  14.860
 9984SOL    HW131791   9.346   7.633   0.017
 9984SOL    HW231792   9.329   7.504  14.813
 9985SOL     OW31793   8.043   3.242   6.100
 9985SOL    HW131794   8.054   3.336   6.113
 9985SOL    HW231795   7.959   3.233   6.055
 9986SOL     OW31796   4.530   8.136   4.549
 9986SOL    HW131797   4.561   8.067   4.608
 9986SOL    HW231798   4.487   8.199   4.607
 9987SOL     OW31799  14.112   4.397   0.639
 9987SOL    HW131800  14.140   4.471   0.584
 9987SOL    HW231801  14.081   4.437   0.720
 9988SOL     OW31802  11.017   4.871   6.974
 9988SOL    HW131803  10.976   4.953   6.948
 9988SOL    HW231804  11.104   4.874   6.935
 9989SOL     OW31805   5.662  12.385   7.852
 9989SOL    HW131806   5.715  12.423   7.782
 9989SOL    HW231807   5.580  12.361   7.808
 9990SOL     OW31808  12.069   8.696   5.933
 9990SOL    HW131809  12.144   8.739   5.892
 9990SOL    HW231810  12.063   8.737   6.020
 9991SOL     OW31811   6.971   8.052   0.525
 9991SOL    HW131812   6.925   8.126   0.564
 9991SOL    HW231813   7.026   8.018   0.596
 9992SOL     OW31814   7.673   0.471   6.820
 9992SOL    HW131815   7.688   0.462   6.726
 9992SOL    HW231816   7.630   0.390   6.846
 9993SOL     OW31817   4.244  13.647   4.029
 9993SOL    HW131818   4.171  13.615   4.082
 9993SOL    HW231819   4.230  13.607   3.943
 9994SOL     OW31820   6.565   6.275   8.785
 9994SOL    HW131821   6.597   6.359   8.816
 9994SOL    HW231822   6.553   6.223   8.865
 9995SOL     OW31823   2.893   0.241  12.130
 9995SOL    HW131824   2.884   0.268  12.039
 9995SOL    HW231825   2.852   0.154  12.134
 9996SOL     OW31826  10.454   8.718   2.853
 9996SOL    HW131827  10.472   8.772   2.776
 9996SOL    HW231828  10.540   8.695   2.888
 9997SOL     OW31829  12.403   3.762  12.366
 9997SOL    HW131830  12.348   3.808  12.430
 9997SOL    HW231831  12.340   3.718  12.309
 9998SOL     OW31832   8.296   2.391   9.474
 9998SOL    HW131833   8.229   2.325   9.492
 9998SOL    HW231834   8.267   2.468   9.523
 9999SOL     OW31835  10.434   0.861   0.486
 9999SOL    HW131836  10.452   0.784   0.433
 9999SOL    HW231837  10.382   0.918   0.430
10000SOL     OW31838   9.073   6.768  11.121
10000SOL    HW131839   9.090   6.821  11.043
10000SOL    HW231840   9.026   6.827  11.180
10001SOL     OW31841   0.066   6.310   7.158
10001SOL    HW131842   0.060   6.273   7.246
10001SOL    HW231843  14.866   6.371   7.153
10002SOL     OW31844  14.019  11.122  10.281
10002SOL    HW131845  14.010  11.059  10.352
10002SOL    HW231846  13.940  11.176  10.286
10003SOL     OW31847  12.385  14.241  11.701
10003SOL    HW131848  12.452  14.277  11.643
10003SOL    HW231849  12.417  14.153  11.723
10004SOL     OW31850   2.761   2.694   1.560
10004SOL    HW131851   2.667   2.708   1.572
10004SOL    HW231852   2.771   2.681   1.465
10005SOL     OW31853  11.173  11.518   5.367
10005SOL    HW131854  11.268  11.515   5.357
10005SOL    HW231855  11.142  11.569   5.292
10006SOL     OW31856   2.802  12.369   4.353
10006SOL    HW131857   2.743  12.334   4.287
10006SOL    HW231858   2.887  12.375   4.309
10007SOL     OW31859   6.726   4.361  10.647
10007SOL    HW131860   6.815   4.343  10.617
10007SOL    HW231861   6.673   4.290  10.608
10008SOL     OW31862   7.924   0.014  13.143
10008SOL    HW131863   7.925   0.102  13.178
10008SOL    HW231864   7.894  14.833  13.216
10009SOL     OW31865  10.060  13.297   9.100
10009SOL    HW131866  10.103  13.381   9.119
10009SOL    HW231867  10.069  13.246   9.181
10010SOL     OW31868  14.502  14.002   5.411
10010SOL    HW131869  14.591  13.997   5.374
10010SOL    HW231870  14.486  13.914   5.444
10011SOL     OW31871   2.069   2.704  11.761
10011SOL    HW131872   1.998   2.746  11.810
10011SOL    HW231873   2.095   2.630  11.815
10012SOL     OW31874   3.328  10.662   0.545
10012SOL    HW131875   3.415  10.621   0.548
10012SOL    HW231876   3.309  10.686   0.635
10013SOL     OW31877   9.193   2.556   2.893
10013SOL    HW131878   9.157   2.601   2.817
10013SOL    HW231879   9.126   2.565   2.961
10014SOL     OW31880   3.301   7.938  12.441
10014SOL    HW131881   3.346   7.874  12.387
10014SOL    HW231882   3.220   7.957  12.393
10015SOL     OW31883  12.421   0.985  12.360
10015SOL    HW131884  12.415   0.899  12.319
10015SOL    HW231885  12.498   1.026  12.319
10016SOL     OW31886  13.127   9.274   9.740
10016SOL    HW131887  13.172   9.269   9.656
10016SOL    HW231888  13.056   9.336   9.726
10017SOL     OW31889  11.692   5.357   0.307
10017SOL    HW131890  11.607   5.312   0.310
10017SOL    HW231891  11.740   5.323   0.383
10018SOL     OW31892  14.173   4.552   3.572
10018SOL    HW131893  14.254   4.509   3.543
10018SOL    HW231894  14.106   4.519   3.513
10019SOL     OW31895   2.815   0.679   9.151
10019SOL    HW131896   2.897   0.729   9.160
10019SOL    HW231897   2.843   0.588   9.141
10020SOL     OW31898   5.433   8.579   9.661
10020SOL    HW131899   5.437   8.507   9.724
10020SOL    HW231900   5.344   8.614   9.671
10021SOL     OW31901   0.260   1.215   7.097
10021SOL    HW131902   0.236   1.211   7.005
10021SOL    HW231903   0.205   1.149   7.140
10022SOL     OW31904   1.277  12.144   2.082
10022SOL    HW131905   1.316  12.175   2.164
10022SOL    HW231906   1.183  12.149   2.097
10023SOL     OW31907   9.457   8.518   6.053
10023SOL    HW131908   9.480   8.514   5.960
10023SOL    HW231909   9.375   8.469   6.059
10024SOL     OW31910   4.956   9.467   5.192
10024SOL    HW131911   5.008   9.493   5.115
10024SOL    HW231912   5.020   9.465   5.264
10025SOL     OW31913  13.242   4.848   6.490
10025SOL    HW131914  13.278   4.779   6.435
10025SOL    HW231915  13.296   4.925   6.470
10026SOL     OW31916  12.458   0.826   8.762
10026SOL    HW131917  12.543   0.801   8.800
10026SOL    HW231918  12.479   0.898   8.703
10027SOL     OW31919   7.668   7.593   0.639
10027SOL    HW131920   7.611   7.557   0.707
10027SOL    HW231921   7.697   7.517   0.589
10028SOL     OW31922   2.400   7.218   7.567
10028SOL    HW131923   2.401   7.170   7.650
10028SOL    HW231924   2.493   7.234   7.548
10029SOL     OW31925   9.987  12.686  10.687
10029SOL    HW131926  10.081  12.678  10.674
10029SOL    HW231927   9.963  12.609  10.738
10030SOL     OW31928   2.825   1.865   5.958
10030SOL    HW131929   2.831   1.921   5.881
10030SOL    HW231930   2.732   1.848   5.968
10031SOL     OW31931   6.663  11.287   5.467
10031SOL    HW131932   6.577  11.246   5.478
10031SOL    HW231933   6.704  11.239   5.395
10032SOL     OW31934   9.112   5.463   3.888
10032SOL    HW131935   9.172   5.478   3.961
10032SOL    HW231936   9.027   5.451   3.929
10033SOL     OW31937   1.111   0.582  11.004
10033SOL    HW131938   1.057   0.537  11.069
10033SOL    HW231939   1.063   0.573  10.922
10034SOL     OW31940   6.993   1.874  13.711
10034SOL    HW131941   6.907   1.867  13.752
10034SOL    HW231942   7.045   1.927  13.772
10035SOL     OW31943  11.024  13.041   8.563
10035SOL    HW131944  11.036  13.000   8.649
10035SOL    HW231945  11.113  13.053   8.530
10036SOL     OW31946   3.777   3.134   3.337
10036SOL    HW131947   3.825   3.058   3.302
10036SOL    HW231948   3.769   3.193   3.262
10037SOL     OW31949  11.245   4.847  13.451
10037SOL    HW131950  11.298   4.771  13.474
10037SOL    HW231951  11.155   4.818  13.460
10038SOL     OW31952   4.007  12.873   2.762
10038SOL    HW131953   4.059  12.794   2.743
10038SOL    HW231954   3.977  12.902   2.676
10039SOL     OW31955   6.754   3.039  11.283
10039SOL    HW131956   6.702   3.118  11.278
10039SOL    HW231957   6.709   2.976  11.227
10040SOL     OW31958   6.046   1.444  11.772
10040SOL    HW131959   6.128   1.470  11.813
10040SOL    HW231960   6.018   1.521  11.723
10041SOL     OW31961   5.882   1.780   7.093
10041SOL    HW131962   5.819   1.770   7.021
10041SOL    HW231963   5.929   1.696   7.094
10042SOL     OW31964  14.254   5.631   9.799
10042SOL    HW131965  14.274   5.561   9.736
10042SOL    HW231966  14.337   5.645   9.845
10043SOL     OW31967  11.162   0.536   5.251
10043SOL    HW131968  11.091   0.524   5.189
10043SOL    HW231969  11.207   0.616   5.222
10044SOL     OW31970   8.549   7.409   8.203
10044SOL    HW131971   8.535   7.458   8.284
10044SOL    HW231972   8.550   7.475   8.134
10045SOL     OW31973  12.120   9.469   1.514
10045SOL    HW131974  12.214   9.472   1.494
10045SOL    HW231975  12.094   9.561   1.517
10046SOL     OW31976   3.842   6.657   2.151
10046SOL    HW131977   3.892   6.729   2.113
10046SOL    HW231978   3.892   6.631   2.228
10047SOL     OW31979  12.397   5.471  12.854
10047SOL    HW131980  12.477   5.439  12.813
10047SOL    HW231981  12.356   5.393  12.892
10048SOL     OW31982   9.041  11.791  10.107
10048SOL    HW131983   9.088  11.786  10.024
10048SOL    HW231984   8.979  11.864  10.094
10049SOL     OW31985  12.101   6.516   9.832
10049SOL    HW131986  12.142   6.452   9.890
10049SOL    HW231987  12.172   6.546   9.775
10050SOL     OW31988  10.343   8.896   3.056
10050SOL    HW131989  10.333   8.972   2.998
10050SOL    HW231990  10.395   8.833   3.006
10051SOL     OW31991  11.310   6.703  11.627
10051SOL    HW131992  11.375   6.769  11.651
10051SOL    HW231993  11.341   6.623  11.669
10052SOL     OW31994   2.438   6.107  12.045
10052SOL    HW131995   2.526   6.124  12.012
10052SOL    HW231996   2.387   6.182  12.014
10053SOL     OW31997   5.577  11.887  14.103
10053SOL    HW131998   5.629  11.890  14.184
10053SOL    HW231999   5.642  11.875  14.034
10054SOL     OW32000   7.325   1.979  10.787
10054SOL    HW132001   7.285   2.058  10.824
10054SOL    HW232002   7.365   2.009  10.705
10055SOL     OW32003   8.917  10.946  14.604
10055SOL    HW132004   8.887  11.024  14.556
10055SOL    HW232005   8.838  10.913  14.647
10056SOL     OW32006  11.798   0.272   6.020
10056SOL    HW132007  11.784   0.364   5.998
10056SOL    HW232008  11.724   0.248   6.075
10057SOL     OW32009   1.077   3.849   9.174
10057SOL    HW132010   1.094   3.914   9.106
10057SOL    HW232011   0.982   3.851   9.186
10058SOL     OW32012   8.339   2.603   5.987
10058SOL    HW132013   8.285   2.528   5.964
10058SOL    HW232014   8.305   2.675   5.934
10059SOL     OW32015  11.502   3.443  10.017
10059SOL    HW132016  11.458   3.367   9.981
10059SOL    HW232017  11.595   3.430   9.994
10060SOL     OW32018   3.720  11.815  14.601
10060SOL    HW132019   3.765  11.733  14.621
10060SOL    HW232020   3.729  11.867  14.681
10061SOL     OW32021   2.472  13.941   6.745
10061SOL    HW132022   2.480  13.852   6.713
10061SOL    HW232023   2.422  13.933   6.826
10062SOL     OW32024   7.202  14.601   3.428
10062SOL    HW132025   7.232  14.688   3.456
10062SOL    HW232026   7.282  14.553   3.409
10063SOL     OW32027  12.164  10.021  10.152
10063SOL    HW132028  12.172   9.955  10.221
10063SOL    HW232029  12.216   9.986  10.079
10064SOL     OW32030   7.194   9.065   1.828
10064SOL    HW132031   7.169   9.127   1.897
10064SOL    HW232032   7.129   8.994   1.836
10065SOL     OW32033  11.171   9.948  10.499
10065SOL    HW132034  11.161   9.868  10.449
10065SOL    HW232035  11.237   9.926  10.565
10066SOL     OW32036   9.812  10.192   9.206
10066SOL    HW132037   9.895  10.198   9.253
10066SOL    HW232038   9.825  10.120   9.144
10067SOL     OW32039   9.759   4.017  13.215
10067SOL    HW132040   9.841   3.975  13.189
10067SOL    HW232041   9.786   4.091  13.271
10068SOL     OW32042   7.320  11.144  13.122
10068SOL    HW132043   7.319  11.199  13.044
10068SOL    HW232044   7.258  11.073  13.103
10069SOL     OW32045   5.046  13.579   1.629
10069SOL    HW132046   5.040  13.571   1.534
10069SOL    HW232047   5.062  13.490   1.659
10070SOL     OW32048   3.607   9.201   9.849
10070SOL    HW132049   3.594   9.237   9.937
10070SOL    HW232050   3.518   9.190   9.814
10071SOL     OW32051   2.958  11.409   5.586
10071SOL    HW132052   3.005  11.468   5.527
10071SOL    HW232053   2.887  11.462   5.622
10072SOL     OW32054  13.626   5.518   6.453
10072SOL    HW132055  13.552   5.504   6.512
10072SOL    HW232056  13.600   5.593   6.399
10073SOL     OW32057   0.895   2.851   3.509
10073SOL    HW132058   0.848   2.801   3.576
10073SOL    HW232059   0.859   2.818   3.426
10074SOL     OW32060   8.437   1.742   5.746
10074SOL    HW132061   8.343   1.728   5.742
10074SOL    HW232062   8.476   1.658   5.724
10075SOL     OW32063   0.226   0.056  10.514
10075SOL    HW132064   0.286  14.867  10.476
10075SOL    HW232065   0.221   0.127  10.449
10076SOL     OW32066   9.384   1.082   1.122
10076SOL    HW132067   9.454   1.119   1.067
10076SOL    HW232068   9.372   1.147   1.191
10077SOL     OW32069  10.534   3.224  11.952
10077SOL    HW132070  10.609   3.244  12.007
10077SOL    HW232071  10.460   3.267  11.995
10078SOL     OW32072  11.392  13.911   9.332
10078SOL    HW132073  11.434  13.974   9.391
10078SOL    HW232074  11.363  13.963   9.257
10079SOL     OW32075   0.422   3.600   2.383
10079SOL    HW132076   0.456   3.613   2.471
10079SOL    HW232077   0.470   3.664   2.330
10080SOL     OW32078   8.247   8.298  11.922
10080SOL    HW132079   8.221   8.257  11.839
10080SOL    HW232080   8.293   8.228  11.969
10081SOL     OW32081   4.179  14.792   6.618
10081SOL    HW132082   4.231  14.731   6.670
10081SOL    HW232083   4.160  14.864   6.678
10082SOL     OW32084   8.927  10.706   2.785
10082SOL    HW132085   8.966  10.630   2.829
10082SOL    HW232086   8.909  10.767   2.857
10083SOL     OW32087  13.770   4.006   9.370
10083SOL    HW132088  13.779   3.957   9.452
10083SOL    HW232089  13.717   3.949   9.314
10084SOL     OW32090   5.915   6.930   8.042
10084SOL    HW132091   6.008   6.914   8.059
10084SOL    HW232092   5.874   6.929   8.128
10085SOL     OW32093   6.152   5.813  13.216
10085SOL    HW132094   6.236   5.773  13.194
10085SOL    HW232095   6.121   5.763  13.291
10086SOL     OW32096  10.766   7.923  11.839
10086SOL    HW132097  10.759   7.982  11.764
10086SOL    HW232098  10.775   7.981  11.915
10087SOL     OW32099   8.562   1.029   8.834
10087SOL    HW132100   8.497   1.034   8.764
10087SOL    HW232101   8.607   0.946   8.818
10088SOL     OW32102   6.849   1.012   3.801
10088SOL    HW132103   6.821   0.923   3.822
10088SOL    HW232104   6.939   1.002   3.769
10089SOL     OW32105   6.620   6.858  13.381
10089SOL    HW132106   6.620   6.915  13.458
10089SOL    HW232107   6.622   6.769  13.417
10090SOL     OW32108   3.968   2.344   5.166
10090SOL    HW132109   3.999   2.279   5.229
10090SOL    HW232110   3.873   2.340   5.170
10091SOL     OW32111   4.489   6.868  12.072
10091SOL    HW132112   4.437   6.900  12.145
10091SOL    HW232113   4.558   6.933  12.061
10092SOL     OW32114   0.111  11.058   2.548
10092SOL    HW132115   0.096  10.964   2.559
10092SOL    HW232116   0.056  11.083   2.474
10093SOL     OW32117  10.433  10.467   8.973
10093SOL    HW132118  10.372  10.428   9.036
10093SOL    HW232119  10.517  10.468   9.019
10094SOL     OW32120  13.666   1.039   6.174
10094SOL    HW132121  13.584   0.989   6.176
10094SOL    HW232122  13.652   1.103   6.105
10095SOL     OW32123   7.305   3.008  11.299
10095SOL    HW132124   7.245   2.962  11.357
10095SOL    HW232125   7.281   3.100  11.306
10096SOL     OW32126   9.252   3.886  12.612
10096SOL    HW132127   9.302   3.854  12.536
10096SOL    HW232128   9.316   3.937  12.662
10097SOL     OW32129   3.238  14.351  12.006
10097SOL    HW132130   3.274  14.369  12.093
10097SOL    HW232131   3.285  14.411  11.948
10098SOL     OW32132  14.182   4.892   7.183
10098SOL    HW132133  14.204   4.980   7.154
10098SOL    HW232134  14.182   4.897   7.279
10099SOL     OW32135   6.764   8.587  10.286
10099SOL    HW132136   6.701   8.600  10.216
10099SOL    HW232137   6.782   8.493  10.287
10100SOL     OW32138  10.275   1.535   5.820
10100SOL    HW132139  10.228   1.554   5.901
10100SOL    HW232140  10.278   1.619   5.774
10101SOL     OW32141   3.198   0.457  12.152
10101SOL    HW132142   3.245   0.403  12.088
10101SOL    HW232143   3.198   0.405  12.232
10102SOL     OW32144  13.071  14.193   1.361
10102SOL    HW132145  13.115  14.109   1.347
10102SOL    HW232146  13.126  14.237   1.426
10103SOL     OW32147  12.557   4.605   8.071
10103SOL    HW132148  12.493   4.638   8.134
10103SOL    HW232149  12.633   4.580   8.124
10104SOL     OW32150  14.414   5.691   7.426
10104SOL    HW132151  14.455   5.664   7.508
10104SOL    HW232152  14.443   5.781   7.413
10105SOL     OW32153   5.809   2.657   1.439
10105SOL    HW132154   5.840   2.580   1.392
10105SOL    HW232155   5.728   2.682   1.394
10106SOL     OW32156   5.855   3.399  14.613
10106SOL    HW132157   5.874   3.461  14.542
10106SOL    HW232158   5.894   3.317  14.584
10107SOL     OW32159  11.935   6.928   3.080
10107SOL    HW132160  11.886   6.921   3.162
10107SOL    HW232161  11.895   6.863   3.022
10108SOL     OW32162   5.718  12.719   1.851
10108SOL    HW132163   5.692  12.634   1.816
10108SOL    HW232164   5.807  12.706   1.884
10109SOL     OW32165   6.318   1.391   3.574
10109SOL    HW132166   6.399   1.347   3.600
10109SOL    HW232167   6.250   1.324   3.583
10110SOL     OW32168   3.058   6.126  13.724
10110SOL    HW132169   3.099   6.063  13.665
10110SOL    HW232170   3.126   6.149  13.787
10111SOL     OW32171  10.749   1.321  11.565
10111SOL    HW132172  10.678   1.285  11.618
10111SOL    HW232173  10.754   1.413  11.593
10112SOL     OW32174  12.436   7.605   8.433
10112SOL    HW132175  12.353   7.561   8.451
10112SOL    HW232176  12.503   7.541   8.457
10113SOL     OW32177   9.115   3.588   6.087
10113SOL    HW132178   9.159   3.506   6.064
10113SOL    HW232179   9.039   3.561   6.139
10114SOL     OW32180   3.827   2.962  11.884
10114SOL    HW132181   3.740   2.990  11.855
10114SOL    HW232182   3.877   3.044  11.890
10115SOL     OW32183  10.267   8.522  10.453
10115SOL    HW132184  10.268   8.615  10.428
10115SOL    HW232185  10.358   8.494  10.448
10116SOL     OW32186  11.676  14.397   3.639
10116SOL    HW132187  11.766  14.382   3.613
10116SOL    HW232188  11.661  14.337   3.712
10117SOL     OW32189   0.271   7.123  14.578
10117SOL    HW132190   0.283   7.217  14.573
10117SOL    HW232191   0.283   7.101  14.670
10118SOL     OW32192   1.686   8.324   7.559
10118SOL    HW132193   1.648   8.358   7.640
10118SOL    HW232194   1.770   8.370   7.551
10119SOL     OW32195  13.948  12.379   7.796
10119SOL    HW132196  14.007  12.320   7.749
10119SOL    HW232197  13.928  12.448   7.732
10120SOL     OW32198   7.492   2.340  13.798
10120SOL    HW132199   7.401   2.317  13.783
10120SOL    HW232200   7.505   2.422  13.751
10121SOL     OW32201  12.121   1.671   9.761
10121SOL    HW132202  12.188   1.727   9.721
10121SOL    HW232203  12.170   1.596   9.794
10122SOL     OW32204   3.365   6.123   7.772
10122SOL    HW132205   3.435   6.120   7.837
10122SOL    HW232206   3.287   6.094   7.819
10123SOL     OW32207  12.932   4.928  10.500
10123SOL    HW132208  13.018   4.906  10.463
10123SOL    HW232209  12.898   4.995  10.442
10124SOL     OW32210   8.143   1.513  11.349
10124SOL    HW132211   8.215   1.476  11.298
10124SOL    HW232212   8.111   1.439  11.402
10125SOL     OW32213   3.572   1.263   0.948
10125SOL    HW132214   3.650   1.211   0.929
10125SOL    HW232215   3.600   1.326   1.015
10126SOL     OW32216   6.404   1.068   7.104
10126SOL    HW132217   6.401   1.115   7.188
10126SOL    HW232218   6.364   0.983   7.122
10127SOL     OW32219   2.124   3.715   7.582
10127SOL    HW132220   2.074   3.685   7.505
10127SOL    HW232221   2.079   3.676   7.657
10128SOL     OW32222   4.254  10.577  11.388
10128SOL    HW132223   4.168  10.613  11.364
10128SOL    HW232224   4.317  10.630  11.341
10129SOL     OW32225   4.775   6.515  10.295
10129SOL    HW132226   4.741   6.533  10.207
10129SOL    HW232227   4.869   6.533  10.288
10130SOL     OW32228   3.597   1.900   5.449
10130SOL    HW132229   3.681   1.928   5.484
10130SOL    HW232230   3.552   1.981   5.425
10131SOL     OW32231   3.640   4.056  11.159
10131SOL    HW132232   3.653   4.073  11.066
10131SOL    HW232233   3.549   4.080  11.176
10132SOL     OW32234   3.556   4.154   4.105
10132SOL    HW132235   3.623   4.179   4.168
10132SOL    HW232236   3.565   4.059   4.096
10133SOL     OW32237   6.532   2.695  14.678
10133SOL    HW132238   6.458   2.736  14.634
10133SOL    HW232239   6.553   2.619  14.624
10134SOL     OW32240   7.797   2.768   3.142
10134SOL    HW132241   7.795   2.687   3.091
10134SOL    HW232242   7.837   2.744   3.225
10135SOL     OW32243   5.358  11.263   5.327
10135SOL    HW132244   5.303  11.264   5.405
10135SOL    HW232245   5.407  11.181   5.332
10136SOL     OW32246  11.711  14.187  11.460
10136SOL    HW132247  11.732  14.185  11.553
10136SOL    HW232248  11.649  14.259  11.451
10137SOL     OW32249   4.136  11.729  14.280
10137SOL    HW132250   4.217  11.761  14.318
10137SOL    HW232251   4.067  11.775  14.329
10138SOL     OW32252   2.810  12.362  10.438
10138SOL    HW132253   2.858  12.318  10.508
10138SOL    HW232254   2.741  12.300  10.415
10139SOL     OW32255  13.083  14.406   2.612
10139SOL    HW132256  13.178  14.394   2.621
10139SOL    HW232257  13.046  14.327   2.652
10140SOL     OW32258  13.784  11.507   8.667
10140SOL    HW132259  13.792  11.597   8.636
10140SOL    HW232260  13.869  11.487   8.706
10141SOL     OW32261   4.953   8.873   9.244
10141SOL    HW132262   4.905   8.934   9.188
10141SOL    HW232263   5.034   8.855   9.197
10142SOL     OW32264   8.399   8.809   0.348
10142SOL    HW132265   8.432   8.897   0.362
10142SOL    HW232266   8.473   8.752   0.371
10143SOL     OW32267   7.663  14.234  13.977
10143SOL    HW132268   7.643  14.142  13.992
10143SOL    HW232269   7.758  14.236  13.963
10144SOL     OW32270   2.978   9.907  12.084
10144SOL    HW132271   2.980   9.980  12.147
10144SOL    HW232272   3.068   9.876  12.080
10145SOL     OW32273   7.471   5.764   4.853
10145SOL    HW132274   7.431   5.837   4.806
10145SOL    HW232275   7.467   5.691   4.791
10146SOL     OW32276   9.178   0.513   2.073
10146SOL    HW132277   9.244   0.580   2.088
10146SOL    HW232278   9.101   0.562   2.043
10147SOL     OW32279   0.478   3.368  12.758
10147SOL    HW132280   0.484   3.458  12.790
10147SOL    HW232281   0.466   3.377  12.663
10148SOL     OW32282   2.985   8.364  11.185
10148SOL    HW132283   2.958   8.274  11.202
10148SOL    HW232284   2.926   8.417  11.238
10149SOL     OW32285  10.773   5.681  14.643
10149SOL    HW132286  10.804   5.651  14.558
10149SOL    HW232287  10.844   5.737  14.675
10150SOL     OW32288  13.582  14.002   9.959
10150SOL    HW132289  13.591  14.017  10.053
10150SOL    HW232290  13.572  13.907   9.950
10151SOL     OW32291   3.943  13.965  11.300
10151SOL    HW132292   3.902  13.920  11.374
10151SOL    HW232293   3.992  14.037  11.340
10152SOL     OW32294   1.146  12.437   1.035
10152SOL    HW132295   1.175  12.413   0.946
10152SOL    HW232296   1.188  12.521   1.051
10153SOL     OW32297   7.671   4.046  10.443
10153SOL    HW132298   7.586   4.082  10.418
10153SOL    HW232299   7.720   4.122  10.475
10154SOL     OW32300   5.144  10.439   2.853
10154SOL    HW132301   5.049  10.430   2.851
10154SOL    HW232302   5.166  10.480   2.769
10155SOL     OW32303  11.757   1.546  11.979
10155SOL    HW132304  11.764   1.520  12.070
10155SOL    HW232305  11.663   1.558  11.964
10156SOL     OW32306  11.098   0.006  13.448
10156SOL    HW132307  11.088   0.064  13.523
10156SOL    HW232308  11.041  14.806  13.466
10157SOL     OW32309  12.927   8.488   3.873
10157SOL    HW132310  12.870   8.449   3.939
10157SOL    HW232311  12.939   8.578   3.902
10158SOL     OW32312   9.214   5.168  11.566
10158SOL    HW132313   9.308   5.152  11.563
10158SOL    HW232314   9.175   5.087  11.532
10159SOL     OW32315  13.885   8.368   6.122
10159SOL    HW132316  13.825   8.368   6.196
10159SOL    HW232317  13.912   8.459   6.113
10160SOL     OW32318   0.663   2.889   7.359
10160SOL    HW132319   0.608   2.933   7.294
10160SOL    HW232320   0.643   2.796   7.348
10161SOL     OW32321   6.663   3.190   8.379
10161SOL    HW132322   6.640   3.239   8.458
10161SOL    HW232323   6.737   3.136   8.405
10162SOL     OW32324   5.052   1.776   9.405
10162SOL    HW132325   5.003   1.816   9.333
10162SOL    HW232326   5.039   1.682   9.394
10163SOL     OW32327   9.630   5.099  10.170
10163SOL    HW132328   9.616   5.097  10.075
10163SOL    HW232329   9.725   5.098  10.180
10164SOL     OW32330   7.304  10.051  10.420
10164SOL    HW132331   7.222  10.090  10.450
10164SOL    HW232332   7.315   9.973  10.474
10165SOL     OW32333   3.824   0.940   4.551
10165SOL    HW132334   3.895   0.985   4.597
10165SOL    HW232335   3.835   0.848   4.574
10166SOL     OW32336  10.781   9.252   7.157
10166SOL    HW132337  10.829   9.294   7.086
10166SOL    HW232338  10.692   9.240   7.122
10167SOL     OW32339  11.260   9.757   2.122
10167SOL    HW132340  11.320   9.822   2.085
10167SOL    HW232341  11.186   9.808   2.155
10168SOL     OW32342  10.866   3.295   4.957
10168SOL    HW132343  10.841   3.336   4.874
10168SOL    HW232344  10.908   3.366   5.006
10169SOL     OW32345   0.863   1.998   1.141
10169SOL    HW132346   0.773   1.985   1.169
10169SOL    HW232347   0.903   2.052   1.209
10170SOL     OW32348   3.520  10.585   5.977
10170SOL    HW132349   3.559  10.632   6.051
10170SOL    HW232350   3.528  10.646   5.904
10171SOL     OW32351  11.454   3.414   6.649
10171SOL    HW132352  11.547   3.437   6.636
10171SOL    HW232353  11.445   3.328   6.609
10172SOL     OW32354   5.776  12.425  13.631
10172SOL    HW132355   5.738  12.432  13.718
10172SOL    HW232356   5.726  12.488  13.578
10173SOL     OW32357   0.543   5.336   0.663
10173SOL    HW132358   0.637   5.352   0.677
10173SOL    HW232359   0.518   5.276   0.733
10174SOL     OW32360   1.095  13.849  12.250
10174SOL    HW132361   1.054  13.936  12.248
10174SOL    HW232362   1.037  13.796  12.304
10175SOL     OW32363   2.925  13.630   7.498
10175SOL    HW132364   2.899  13.664   7.583
10175SOL    HW232365   3.019  13.617   7.505
10176SOL     OW32366   1.595   6.589   3.830
10176SOL    HW132367   1.538   6.597   3.754
10176SOL    HW232368   1.558   6.649   3.895
10177SOL     OW32369   1.116  10.372   8.916
10177SOL    HW132370   1.177  10.300   8.929
10177SOL    HW232371   1.171  10.447   8.893
10178SOL     OW32372   0.152   9.536   5.523
10178SOL    HW132373   0.141   9.531   5.618
10178SOL    HW232374   0.195   9.453   5.500
10179SOL     OW32375   9.923  12.743   5.357
10179SOL    HW132376   9.828  12.746   5.371
10179SOL    HW232377   9.949  12.656   5.387
10180SOL     OW32378   3.087  14.410   8.841
10180SOL    HW132379   3.100  14.317   8.820
10180SOL    HW232380   3.145  14.425   8.915
10181SOL     OW32381   1.700  10.788  13.250
10181SOL    HW132382   1.771  10.828  13.200
10181SOL    HW232383   1.702  10.696  13.224
10182SOL     OW32384   8.586  12.894  10.345
10182SOL    HW132385   8.551  12.885  10.434
10182SOL    HW232386   8.578  12.988  10.326
10183SOL     OW32387  12.987   7.061  13.417
10183SOL    HW132388  12.924   6.998  13.453
10183SOL    HW232389  12.983   7.048  13.322
10184SOL     OW32390   2.363  10.034   5.585
10184SOL    HW132391   2.293   9.976   5.555
10184SOL    HW232392   2.382  10.003   5.674
10185SOL     OW32393   7.892   3.748   0.041
10185SOL    HW132394   7.959   3.697   0.086
10185SOL    HW232395   7.880   3.825   0.096
10186SOL     OW32396   8.323   3.881   7.126
10186SOL    HW132397   8.281   3.963   7.150
10186SOL    HW232398   8.360   3.897   7.039
10187SOL     OW32399  10.049  13.358  10.545
10187SOL    HW132400  10.006  13.402  10.472
10187SOL    HW232401  10.076  13.430  10.603
10188SOL     OW32402  14.096   8.565   7.035
10188SOL    HW132403  14.096   8.603   7.123
10188SOL    HW232404  14.013   8.518   7.029
10189SOL     OW32405  10.724  13.516   4.697
10189SOL    HW132406  10.656  13.450   4.685
10189SOL    HW232407  10.686  13.597   4.664
10190SOL     OW32408   2.321   6.748   2.177
10190SOL    HW132409   2.354   6.712   2.095
10190SOL    HW232410   2.399   6.784   2.220
10191SOL     OW32411   6.950   9.749   4.174
10191SOL    HW132412   6.870   9.697   4.177
10191SOL    HW232413   6.995   9.718   4.094
10192SOL     OW32414  14.765  13.878   2.065
10192SOL    HW132415  14.693  13.868   2.128
10192SOL    HW232416  14.827  13.809   2.088
10193SOL     OW32417   1.793  10.647   6.609
10193SOL    HW132418   1.873  10.594   6.602
10193SOL    HW232419   1.722  10.584   6.605
10194SOL     OW32420   3.336   4.244   0.831
10194SOL    HW132421   3.270   4.183   0.799
10194SOL    HW232422   3.416   4.192   0.838
10195SOL     OW32423   2.456   5.621   6.758
10195SOL    HW132424   2.369   5.660   6.768
10195SOL    HW232425   2.484   5.601   6.847
10196SOL     OW32426  14.716   1.854   3.916
10196SOL    HW132427  14.808   1.849   3.890
10196SOL    HW232428  14.671   1.794   3.857
10197SOL     OW32429  11.370   7.961  13.026
10197SOL    HW132430  11.315   7.977  12.949
10197SOL    HW232431  11.308   7.934  13.094
10198SOL     OW32432   7.193  10.265  10.988
10198SOL    HW132433   7.135  10.218  10.929
10198SOL    HW232434   7.137  10.293  11.061
10199SOL     OW32435  13.661   5.862  12.147
10199SOL    HW132436  13.663   5.941  12.201
10199SOL    HW232437  13.576   5.823  12.165
10200SOL     OW32438   5.939   5.410  10.580
10200SOL    HW132439   5.845   5.402  10.560
10200SOL    HW232440   5.974   5.322  10.564
10201SOL     OW32441   9.410  14.691   2.470
10201SOL    HW132442   9.468  14.720   2.399
10201SOL    HW232443   9.329  14.740   2.456
10202SOL     OW32444   9.325   2.838   4.376
10202SOL    HW132445   9.309   2.752   4.336
10202SOL    HW232446   9.249   2.852   4.433
10203SOL     OW32447   1.265   6.963   7.659
10203SOL    HW132448   1.171   6.945   7.663
10203SOL    HW232449   1.276   7.042   7.711
10204SOL     OW32450   1.096   4.894   1.434
10204SOL    HW132451   1.074   4.947   1.358
10204SOL    HW232452   1.192   4.886   1.431
10205SOL     OW32453   5.687   8.353   6.115
10205SOL    HW132454   5.702   8.258   6.115
10205SOL    HW232455   5.734   8.384   6.193
10206SOL     OW32456  12.125   0.809   8.613
10206SOL    HW132457  12.173   0.760   8.546
10206SOL    HW232458  12.153   0.770   8.696
10207SOL     OW32459   0.564   8.562  14.861
10207SOL    HW132460   0.512   8.561   0.067
10207SOL    HW232461   0.596   8.472  14.852
10208SOL     OW32462   5.486  12.273   7.676
10208SOL    HW132463   5.423  12.337   7.643
10208SOL    HW232464   5.478  12.199   7.615
10209SOL     OW32465   8.858  13.101   1.141
10209SOL    HW132466   8.868  13.143   1.227
10209SOL    HW232467   8.797  13.157   1.094
10210SOL     OW32468   9.668   0.143   5.246
10210SOL    HW132469   9.713   0.103   5.321
10210SOL    HW232470   9.580   0.106   5.248
10211SOL     OW32471   2.871   6.669  12.369
10211SOL    HW132472   2.889   6.763  12.374
10211SOL    HW232473   2.777   6.663  12.352
10212SOL     OW32474  10.397   7.354   4.424
10212SOL    HW132475  10.323   7.415   4.428
10212SOL    HW232476  10.358   7.268   4.441
10213SOL     OW32477   9.786  14.590  11.872
10213SOL    HW132478   9.839  14.640  11.809
10213SOL    HW232479   9.836  14.509  11.886
10214SOL     OW32480   1.385   4.946   0.161
10214SOL    HW132481   1.452   5.013   0.154
10214SOL    HW232482   1.345   4.961   0.246
10215SOL     OW32483  14.472  10.874   2.075
10215SOL    HW132484  14.407  10.818   2.033
10215SOL    HW232485  14.449  10.963   2.046
10216SOL     OW32486  11.318  11.858   6.861
10216SOL    HW132487  11.372  11.870   6.939
10216SOL    HW232488  11.275  11.943   6.849
10217SOL     OW32489   2.110   8.437   6.995
10217SOL    HW132490   2.167   8.360   6.991
10217SOL    HW232491   2.037   8.415   6.936
10218SOL     OW32492   7.280   0.791  10.547
10218SOL    HW132493   7.310   0.757  10.632
10218SOL    HW232494   7.286   0.717  10.488
10219SOL     OW32495   9.301   5.713   5.440
10219SOL    HW132496   9.251   5.678   5.514
10219SOL    HW232497   9.384   5.740   5.479
10220SOL     OW32498   6.326  14.313  14.721
10220SOL    HW132499   6.362  14.250  14.659
10220SOL    HW232500   6.239  14.279  14.742
10221SOL     OW32501   2.623   6.480   8.953
10221SOL    HW132502   2.716   6.492   8.936
10221SOL    HW232503   2.608   6.525   9.036
10222SOL     OW32504   6.669   2.741  12.272
10222SOL    HW132505   6.591   2.741  12.216
10222SOL    HW232506   6.742   2.752  12.212
10223SOL     OW32507   8.406   7.194   8.341
10223SOL    HW132508   8.475   7.254   8.315
10223SOL    HW232509   8.325   7.241   8.323
10224SOL     OW32510  12.484  11.617   4.784
10224SOL    HW132511  12.530  11.591   4.864
10224SOL    HW232512  12.510  11.552   4.719
10225SOL     OW32513   3.859   5.877   6.698
10225SOL    HW132514   3.814   5.882   6.783
10225SOL    HW232515   3.857   5.967   6.665
10226SOL     OW32516   2.487  14.033  10.726
10226SOL    HW132517   2.524  13.962  10.674
10226SOL    HW232518   2.473  13.996  10.813
10227SOL     OW32519  14.527   9.919  14.605
10227SOL    HW132520  14.612   9.892  14.639
10227SOL    HW232521  14.501   9.992  14.662
10228SOL     OW32522  12.905   6.412   4.401
10228SOL    HW132523  12.899   6.460   4.483
10228SOL    HW232524  12.892   6.320   4.425
10229SOL     OW32525  12.247  10.746   1.033
10229SOL    HW132526  12.244  10.834   1.069
10229SOL    HW232527  12.331  10.711   1.063
10230SOL     OW32528   0.194  11.416   6.574
10230SOL    HW132529   0.147  11.463   6.506
10230SOL    HW232530   0.126  11.364   6.618
10231SOL     OW32531   1.488  14.109  11.903
10231SOL    HW132532   1.479  14.059  11.822
10231SOL    HW232533   1.563  14.166  11.889
10232SOL     OW32534  14.430  12.367   4.037
10232SOL    HW132535  14.433  12.332   3.948
10232SOL    HW232536  14.359  12.319   4.079
10233SOL     OW32537   4.541   2.997  13.440
10233SOL    HW132538   4.614   3.055  13.459
10233SOL    HW232539   4.578   2.909  13.446
10234SOL     OW32540   2.085   0.067   5.160
10234SOL    HW132541   2.162   0.010   5.154
10234SOL    HW232542   2.090   0.122   5.081
10235SOL     OW32543   4.890   9.765   6.688
10235SOL    HW132544   4.850   9.839   6.642
10235SOL    HW232545   4.872   9.782   6.781
10236SOL     OW32546   3.894   3.029  11.094
10236SOL    HW132547   3.832   2.962  11.066
10236SOL    HW232548   3.945   3.048  11.015
10237SOL     OW32549   7.935  10.734   5.778
10237SOL    HW132550   7.962  10.696   5.862
10237SOL    HW232551   7.978  10.679   5.712
10238SOL     OW32552  12.849   8.305   6.359
10238SOL    HW132553  12.872   8.317   6.267
10238SOL    HW232554  12.790   8.378   6.379
10239SOL     OW32555   2.633  11.186  13.850
10239SOL    HW132556   2.585  11.192  13.932
10239SOL    HW232557   2.591  11.115  13.802
10240SOL     OW32558   7.075  10.069   6.304
10240SOL    HW132559   7.097  10.149   6.257
10240SOL    HW232560   7.134  10.003   6.268
10241SOL     OW32561  14.526   3.795  10.110
10241SOL    HW132562  14.543   3.805  10.204
10241SOL    HW232563  14.610   3.816  10.069
10242SOL     OW32564   0.752  12.769  10.654
10242SOL    HW132565   0.748  12.856  10.694
10242SOL    HW232566   0.845  12.747  10.652
10243SOL     OW32567  12.629   6.844   3.923
10243SOL    HW132568  12.690   6.823   3.852
10243SOL    HW232569  12.599   6.759   3.956
10244SOL     OW32570   1.002  11.785   5.204
10244SOL    HW132571   1.065  11.713   5.210
10244SOL    HW232572   0.940  11.758   5.137
10245SOL     OW32573  12.795  11.840  10.989
10245SOL    HW132574  12.788  11.839  11.084
10245SOL    HW232575  12.783  11.932  10.965
10246SOL     OW32576   5.106  13.327  12.148
10246SOL    HW132577   5.045  13.257  12.170
10246SOL    HW232578   5.114  13.323  12.052
10247SOL     OW32579   1.423   4.308   7.550
10247SOL    HW132580   1.438   4.393   7.509
10247SOL    HW232581   1.435   4.324   7.644
10248SOL     OW32582  10.106   7.203  14.346
10248SOL    HW132583  10.100   7.298  14.345
10248SOL    HW232584  10.172   7.184  14.413
10249SOL     OW32585   6.034   7.338  13.942
10249SOL    HW132586   5.943   7.312  13.950
10249SOL    HW232587   6.055   7.324  13.849
10250SOL     OW32588   9.402   1.258   1.358
10250SOL    HW132589   9.479   1.222   1.403
10250SOL    HW232590   9.354   1.305   1.426
10251SOL     OW32591   6.281  13.401   0.112
10251SOL    HW132592   6.230  13.470   0.154
10251SOL    HW232593   6.329  13.360   0.184
10252SOL     OW32594   4.937   1.495   4.250
10252SOL    HW132595   4.845   1.471   4.238
10252SOL    HW232596   4.979   1.471   4.167
10253SOL     OW32597   7.311   7.183   8.995
10253SOL    HW132598   7.340   7.097   9.024
10253SOL    HW232599   7.310   7.237   9.075
10254SOL     OW32600   0.009   9.031   2.524
10254SOL    HW132601  14.860   9.124   2.517
10254SOL    HW232602  14.809   8.991   2.570
10255SOL     OW32603   7.234  10.728  13.043
10255SOL    HW132604   7.283  10.743  13.124
10255SOL    HW232605   7.176  10.804  13.035
10256SOL     OW32606   4.977  13.255   1.907
10256SOL    HW132607   4.956  13.349   1.907
10256SOL    HW232608   4.892  13.212   1.915
10257SOL     OW32609   6.437   1.018  14.641
10257SOL    HW132610   6.476   1.037  14.726
10257SOL    HW232611   6.365   0.958  14.660
10258SOL     OW32612   3.210   6.892   2.718
10258SOL    HW132613   3.163   6.808   2.718
10258SOL    HW232614   3.146   6.955   2.686
10259SOL     OW32615   0.127   3.391   6.267
10259SOL    HW132616   0.058   3.448   6.301
10259SOL    HW232617   0.188   3.451   6.223
10260SOL     OW32618  10.658   1.763   2.300
10260SOL    HW132619  10.603   1.821   2.246
10260SOL    HW232620  10.605   1.747   2.378
10261SOL     OW32621   9.101  14.108   4.118
10261SOL    HW132622   9.151  14.166   4.176
10261SOL    HW232623   9.105  14.023   4.161
10262SOL     OW32624  12.413   5.165   8.100
10262SOL    HW132625  12.429   5.072   8.118
10262SOL    HW232626  12.348   5.165   8.030
10263SOL     OW32627   0.342   7.119   5.745
10263SOL    HW132628   0.318   7.134   5.653
10263SOL    HW232629   0.437   7.135   5.747
10264SOL     OW32630  11.360  10.541   5.792
10264SOL    HW132631  11.273  10.559   5.755
10264SOL    HW232632  11.399  10.628   5.803
10265SOL     OW32633   5.013   2.102  10.492
10265SOL    HW132634   5.021   2.124  10.400
10265SOL    HW232635   4.993   2.185  10.535
10266SOL     OW32636  12.274   9.238  11.190
10266SOL    HW132637  12.200   9.178  11.179
10266SOL    HW232638  12.244   9.302  11.254
10267SOL     OW32639  13.677   2.042   8.768
10267SOL    HW132640  13.582   2.046   8.761
10267SOL    HW232641  13.702   1.968   8.712
10268SOL     OW32642   6.101   6.139   8.945
10268SOL    HW132643   6.106   6.079   9.019
10268SOL    HW232644   6.148   6.094   8.875
10269SOL     OW32645   0.255   0.912   8.374
10269SOL    HW132646   0.247   1.007   8.371
10269SOL    HW232647   0.331   0.892   8.319
10270SOL     OW32648  11.837   1.689  10.877
10270SOL    HW132649  11.913   1.708  10.933
10270SOL    HW232650  11.762   1.702  10.935
10271SOL     OW32651   2.486  12.086   0.239
10271SOL    HW132652   2.458  12.165   0.192
10271SOL    HW232653   2.557  12.116   0.296
10272SOL     OW32654   5.008  14.417   0.662
10272SOL    HW132655   4.994  14.344   0.601
10272SOL    HW232656   4.925  14.426   0.709
10273SOL     OW32657  11.782  14.227   9.284
10273SOL    HW132658  11.741  14.272   9.210
10273SOL    HW232659  11.845  14.291   9.318
10274SOL     OW32660  14.550   2.376  12.255
10274SOL    HW132661  14.512   2.292  12.231
10274SOL    HW232662  14.638   2.375  12.216
10275SOL     OW32663   5.834   1.701   1.392
10275SOL    HW132664   5.827   1.709   1.487
10275SOL    HW232665   5.764   1.639   1.369
10276SOL     OW32666   0.418   5.163   3.457
10276SOL    HW132667   0.483   5.209   3.510
10276SOL    HW232668   0.443   5.071   3.461
10277SOL     OW32669   4.986  14.130  10.940
10277SOL    HW132670   4.989  14.223  10.920
10277SOL    HW232671   4.899  14.102  10.913
10278SOL     OW32672   0.025   0.049   4.904
10278SOL    HW132673  14.826   0.098   4.866
10278SOL    HW232674   0.097   0.060   4.842
10279SOL     OW32675  11.745   7.978   4.448
10279SOL    HW132676  11.667   8.018   4.488
10279SOL    HW232677  11.748   7.890   4.485
10280SOL     OW32678   5.748   7.028   1.739
10280SOL    HW132679   5.667   7.021   1.790
10280SOL    HW232680   5.719   7.063   1.654
10281SOL     OW32681   2.050   2.247  10.250
10281SOL    HW132682   2.124   2.301  10.280
10281SOL    HW232683   2.045   2.265  10.156
10282SOL     OW32684   3.782  12.451   0.646
10282SOL    HW132685   3.711  12.486   0.593
10282SOL    HW232686   3.752  12.364   0.671
10283SOL     OW32687  10.962   3.329  13.280
10283SOL    HW132688  10.884   3.283  13.249
10283SOL    HW232689  10.987   3.385  13.207
10284SOL     OW32690   7.012   6.563   8.628
10284SOL    HW132691   7.072   6.559   8.702
10284SOL    HW232692   7.065   6.540   8.552
10285SOL     OW32693   6.160   7.907  10.505
10285SOL    HW132694   6.193   7.949  10.426
10285SOL    HW232695   6.099   7.971  10.542
10286SOL     OW32696   6.344   7.006   2.912
10286SOL    HW132697   6.349   7.099   2.934
10286SOL    HW232698   6.424   6.968   2.949
10287SOL     OW32699  13.146   6.948   5.942
10287SOL    HW132700  13.110   6.863   5.916
10287SOL    HW232701  13.096   7.011   5.891
10288SOL     OW32702  12.125   7.892  10.840
10288SOL    HW132703  12.168   7.958  10.785
10288SOL    HW232704  12.091   7.828  10.779
10289SOL     OW32705   5.890   9.407  10.216
10289SOL    HW132706   5.798   9.378  10.216
10289SOL    HW232707   5.932   9.351  10.150
10290SOL     OW32708   3.099   9.119  11.123
10290SOL    HW132709   3.036   9.142  11.192
10290SOL    HW232710   3.107   9.198  11.071
10291SOL     OW32711   8.386  10.491   9.700
10291SOL    HW132712   8.418  10.481   9.790
10291SOL    HW232713   8.418  10.577   9.673
10292SOL     OW32714   4.045  12.912   9.215
10292SOL    HW132715   4.024  12.984   9.156
10292SOL    HW232716   4.019  12.943   9.301
10293SOL     OW32717  10.263   2.337  14.849
10293SOL    HW132718  10.220   2.290  14.777
10293SOL    HW232719  10.245   2.283   0.053
10294SOL     OW32720   3.496   8.468   5.261
10294SOL    HW132721   3.485   8.420   5.178
10294SOL    HW232722   3.412   8.457   5.306
10295SOL     OW32723   0.211  14.577   2.774
10295SOL    HW132724   0.265  14.507   2.810
10295SOL    HW232725   0.176  14.541   2.692
10296SOL     OW32726   1.241   2.985   2.554
10296SOL    HW132727   1.272   3.029   2.633
10296SOL    HW232728   1.304   3.009   2.486
10297SOL     OW32729   3.846   4.621   6.477
10297SOL    HW132730   3.936   4.600   6.502
10297SOL    HW232731   3.792   4.566   6.535
10298SOL     OW32732   7.273  11.197   8.383
10298SOL    HW132733   7.248  11.271   8.327
10298SOL    HW232734   7.365  11.214   8.404
10299SOL     OW32735   9.546   1.820   8.152
10299SOL    HW132736   9.552   1.738   8.201
10299SOL    HW232737   9.620   1.818   8.092
10300SOL     OW32738   4.304   6.223   9.376
10300SOL    HW132739   4.326   6.316   9.386
10300SOL    HW232740   4.210   6.223   9.357
10301SOL     OW32741   5.814   2.496   2.899
10301SOL    HW132742   5.843   2.538   2.817
10301SOL    HW232743   5.872   2.421   2.909
10302SOL     OW32744  11.338  13.933   5.618
10302SOL    HW132745  11.326  13.854   5.565
10302SOL    HW232746  11.429  13.927   5.648
10303SOL     OW32747   7.001   0.070   1.936
10303SOL    HW132748   7.053   0.138   1.893
10303SOL    HW232749   7.049  14.863   1.921
10304SOL     OW32750   9.284   5.918   3.948
10304SOL    HW132751   9.368   5.915   3.902
10304SOL    HW232752   9.307   5.897   4.039
10305SOL     OW32753   9.040   4.136   2.047
10305SOL    HW132754   8.952   4.169   2.067
10305SOL    HW232755   9.026   4.050   2.009
10306SOL     OW32756   7.625  13.295  14.233
10306SOL    HW132757   7.620  13.350  14.311
10306SOL    HW232758   7.676  13.346  14.170
10307SOL     OW32759  14.009   3.466  11.116
10307SOL    HW132760  13.917   3.481  11.138
10307SOL    HW232761  14.016   3.488  11.023
10308SOL     OW32762   6.936   2.883   6.572
10308SOL    HW132763   7.012   2.826   6.581
10308SOL    HW232764   6.882   2.864   6.649
10309SOL     OW32765   5.278   5.776   3.967
10309SOL    HW132766   5.226   5.776   4.048
10309SOL    HW232767   5.321   5.861   3.967
10310SOL     OW32768   9.158  13.778   6.286
10310SOL    HW132769   9.195  13.727   6.214
10310SOL    HW232770   9.071  13.803   6.256
10311SOL     OW32771  10.824   3.340  14.176
10311SOL    HW132772  10.739   3.297  14.185
10311SOL    HW232773  10.827   3.371  14.086
10312SOL     OW32774   9.616  10.718   5.160
10312SOL    HW132775   9.526  10.706   5.191
10312SOL    HW232776   9.620  10.668   5.079
10313SOL     OW32777   7.239  10.759   6.166
10313SOL    HW132778   7.278  10.756   6.079
10313SOL    HW232779   7.233  10.667   6.193
10314SOL     OW32780   7.866  11.786   4.432
10314SOL    HW132781   7.956  11.756   4.444
10314SOL    HW232782   7.827  11.780   4.519
10315SOL     OW32783   0.635   6.988   2.132
10315SOL    HW132784   0.709   6.932   2.155
10315SOL    HW232785   0.565   6.961   2.191
10316SOL     OW32786  11.217  14.482   3.281
10316SOL    HW132787  11.179  14.510   3.198
10316SOL    HW232788  11.281  14.416   3.258
10317SOL     OW32789   5.905   9.772   2.895
10317SOL    HW132790   5.992   9.791   2.929
10317SOL    HW232791   5.852   9.756   2.973
10318SOL     OW32792   1.999   6.218  12.883
10318SOL    HW132793   2.038   6.143  12.838
10318SOL    HW232794   1.905   6.211  12.864
10319SOL     OW32795   0.795   9.005   2.805
10319SOL    HW132796   0.797   8.977   2.713
10319SOL    HW232797   0.708   8.979   2.836
10320SOL     OW32798   3.482   0.305   5.274
10320SOL    HW132799   3.464   0.212   5.261
10320SOL    HW232800   3.574   0.315   5.252
10321SOL     OW32801   2.120   2.930  13.859
10321SOL    HW132802   2.040   2.975  13.889
10321SOL    HW232803   2.100   2.904  13.769
10322SOL     OW32804  11.812  14.767  11.165
10322SOL    HW132805  11.765  14.713  11.229
10322SOL    HW232806  11.746  14.789  11.099
10323SOL     OW32807  10.964   7.933   0.905
10323SOL    HW132808  10.923   7.915   0.820
10323SOL    HW232809  11.042   7.879   0.906
10324SOL     OW32810  12.097   1.910   9.375
10324SOL    HW132811  12.120   1.992   9.332
10324SOL    HW232812  12.107   1.928   9.469
10325SOL     OW32813  11.767   2.584   9.875
10325SOL    HW132814  11.735   2.494   9.883
10325SOL    HW232815  11.750   2.608   9.784
10326SOL     OW32816   2.410   8.383   5.861
10326SOL    HW132817   2.499   8.360   5.888
10326SOL    HW232818   2.421   8.421   5.773
10327SOL     OW32819   7.653   1.720  13.658
10327SOL    HW132820   7.598   1.759  13.589
10327SOL    HW232821   7.593   1.665  13.707
10328SOL     OW32822   9.740  13.398  13.222
10328SOL    HW132823   9.670  13.373  13.162
10328SOL    HW232824   9.714  13.361  13.307
10329SOL     OW32825  10.287  11.170   1.197
10329SOL    HW132826  10.236  11.091   1.179
10329SOL    HW232827  10.354  11.141   1.259
10330SOL     OW32828   6.865  10.652   2.511
10330SOL    HW132829   6.911  10.722   2.465
10330SOL    HW232830   6.786  10.637   2.458
10331SOL     OW32831  11.334  10.796  11.447
10331SOL    HW132832  11.251  10.843  11.436
10331SOL    HW232833  11.318  10.711  11.407
10332SOL     OW32834   3.580  14.018   2.038
10332SOL    HW132835   3.605  13.954   2.105
10332SOL    HW232836   3.620  13.985   1.958
10333SOL     OW32837   9.729   6.104  14.389
10333SOL    HW132838   9.689   6.154  14.460
10333SOL    HW232839   9.686   6.019  14.391
10334SOL     OW32840   3.719   2.490   4.926
10334SOL    HW132841   3.761   2.576   4.926
10334SOL    HW232842   3.687   2.479   5.015
10335SOL     OW32843  12.996  10.173  13.699
10335SOL    HW132844  13.082  10.133  13.708
10335SOL    HW232845  12.992  10.201  13.608
10336SOL     OW32846   7.922   9.071   3.807
10336SOL    HW132847   7.966   9.120   3.877
10336SOL    HW232848   7.864   9.135   3.765
10337SOL     OW32849   2.542  12.708   1.889
10337SOL    HW132850   2.463  12.746   1.850
10337SOL    HW232851   2.537  12.733   1.981
10338SOL     OW32852  14.647   9.766   5.589
10338SOL    HW132853  14.738   9.781   5.612
10338SOL    HW232854  14.632   9.820   5.512
10339SOL     OW32855   3.851   3.792  12.274
10339SOL    HW132856   3.844   3.719  12.212
10339SOL    HW232857   3.761   3.823  12.284
10340SOL     OW32858  12.631  13.248   2.388
10340SOL    HW132859  12.670  13.297   2.315
10340SOL    HW232860  12.612  13.314   2.454
10341SOL     OW32861   3.658  12.981   2.317
10341SOL    HW132862   3.625  12.895   2.343
10341SOL    HW232863   3.654  12.981   2.222
10342SOL     OW32864  12.873   5.308   6.048
10342SOL    HW132865  12.927   5.387   6.045
10342SOL    HW232866  12.804   5.329   6.112
10343SOL     OW32867   2.527   0.383   1.738
10343SOL    HW132868   2.458   0.370   1.803
10343SOL    HW232869   2.561   0.295   1.720
10344SOL     OW32870   6.705   4.198   9.232
10344SOL    HW132871   6.647   4.142   9.181
10344SOL    HW232872   6.763   4.138   9.278
10345SOL     OW32873  13.714   3.592   8.971
10345SOL    HW132874  13.781   3.610   8.905
10345SOL    HW232875  13.739   3.646   9.046
10346SOL     OW32876   1.277  11.286  14.419
10346SOL    HW132877   1.229  11.320  14.343
10346SOL    HW232878   1.341  11.227  14.381
10347SOL     OW32879  10.417   0.912   8.655
10347SOL    HW132880  10.398   0.977   8.723
10347SOL    HW232881  10.502   0.939   8.620
10348SOL     OW32882  12.644   8.705   9.294
10348SOL    HW132883  12.658   8.798   9.277
10348SOL    HW232884  12.570   8.702   9.354
10349SOL     OW32885   7.277   5.792   7.716
10349SOL    HW132886   7.324   5.791   7.633
10349SOL    HW232887   7.184   5.794   7.691
10350SOL     OW32888   8.689   2.902   9.912
10350SOL    HW132889   8.618   2.960   9.941
10350SOL    HW232890   8.645   2.835   9.860
10351SOL     OW32891   2.393   1.459  11.743
10351SOL    HW132892   2.473   1.480  11.791
10351SOL    HW232893   2.398   1.364  11.730
10352SOL     OW32894   2.462   1.644   7.172
10352SOL    HW132895   2.506   1.632   7.088
10352SOL    HW232896   2.482   1.733   7.198
10353SOL     OW32897   0.986   2.189   6.937
10353SOL    HW132898   1.049   2.235   6.883
10353SOL    HW232899   1.032   2.111   6.968
10354SOL     OW32900   8.312  14.849   2.744
10354SOL    HW132901   8.275  14.775   2.696
10354SOL    HW232902   8.387  14.812   2.791
10355SOL     OW32903  12.823   1.277   1.700
10355SOL    HW132904  12.838   1.184   1.714
10355SOL    HW232905  12.773   1.305   1.777
10356SOL     OW32906   2.289   6.724   8.103
10356SOL    HW132907   2.378   6.691   8.115
10356SOL    HW232908   2.247   6.661   8.045
10357SOL     OW32909   5.500  13.569  13.886
10357SOL    HW132910   5.439  13.588  13.815
10357SOL    HW232911   5.560  13.643  13.888
10358SOL     OW32912  14.380   3.280   3.083
10358SOL    HW132913  14.422   3.350   3.034
10358SOL    HW232914  14.354   3.320   3.166
10359SOL     OW32915   6.208   8.764   8.342
10359SOL    HW132916   6.300   8.790   8.336
10359SOL    HW232917   6.210   8.669   8.337
10360SOL     OW32918   9.305   1.973   2.932
10360SOL    HW132919   9.224   2.008   2.895
10360SOL    HW232920   9.319   2.024   3.012
10361SOL     OW32921   4.458   8.133   9.076
10361SOL    HW132922   4.366   8.147   9.098
10361SOL    HW232923   4.498   8.101   9.157
10362SOL     OW32924  13.816  10.633   2.338
10362SOL    HW132925  13.834  10.555   2.390
10362SOL    HW232926  13.721  10.644   2.343
10363SOL     OW32927  11.473  12.194  12.992
10363SOL    HW132928  11.560  12.232  12.991
10363SOL    HW232929  11.434  12.220  12.908
10364SOL     OW32930   4.307  11.213   7.493
10364SOL    HW132931   4.366  11.254   7.556
10364SOL    HW232932   4.331  11.251   7.409
10365SOL     OW32933   2.061   7.671  12.583
10365SOL    HW132934   2.043   7.719  12.503
10365SOL    HW232935   2.157   7.672  12.591
10366SOL     OW32936   4.133  10.564  14.481
10366SOL    HW132937   4.112  10.637  14.539
10366SOL    HW232938   4.102  10.486  14.528
10367SOL     OW32939  13.553   5.522  10.445
10367SOL    HW132940  13.523   5.449  10.391
10367SOL    HW232941  13.643   5.500  10.467
10368SOL     OW32942   6.899   5.874   3.468
10368SOL    HW132943   6.952   5.876   3.388
10368SOL    HW232944   6.961   5.892   3.539
10369SOL     OW32945   8.827  13.359   6.097
10369SOL    HW132946   8.801  13.268   6.082
10369SOL    HW232947   8.808  13.403   6.014
10370SOL     OW32948  12.519   8.649  14.310
10370SOL    HW132949  12.438   8.693  14.337
10370SOL    HW232950  12.546   8.600  14.388
10371SOL     OW32951   1.379   7.807  11.039
10371SOL    HW132952   1.364   7.818  11.133
10371SOL    HW232953   1.468   7.840  11.025
10372SOL     OW32954  12.577   4.360   8.929
10372SOL    HW132955  12.609   4.371   8.840
10372SOL    HW232956  12.655   4.341   8.981
10373SOL     OW32957  10.869   8.762  13.643
10373SOL    HW132958  10.791   8.764  13.698
10373SOL    HW232959  10.930   8.824  13.685
10374SOL     OW32960   1.869   7.149  10.732
10374SOL    HW132961   1.916   7.110  10.805
10374SOL    HW232962   1.931   7.210  10.693
10375SOL     OW32963   5.348  14.467   9.619
10375SOL    HW132964   5.363  14.552   9.661
10375SOL    HW232965   5.331  14.489   9.527
10376SOL     OW32966  10.397   2.105   5.999
10376SOL    HW132967  10.319   2.117   6.054
10376SOL    HW232968  10.382   2.021   5.955
10377SOL     OW32969  11.162   7.575   8.464
10377SOL    HW132970  11.170   7.670   8.470
10377SOL    HW232971  11.079   7.560   8.420
10378SOL     OW32972  11.985   7.605   1.449
10378SOL    HW132973  11.980   7.509   1.452
10378SOL    HW232974  11.897   7.634   1.473
10379SOL     OW32975  13.996   2.134  12.312
10379SOL    HW132976  14.031   2.214  12.350
10379SOL    HW232977  14.049   2.120  12.233
10380SOL     OW32978   2.827   8.353  10.589
10380SOL    HW132979   2.806   8.297  10.664
10380SOL    HW232980   2.903   8.311  10.548
10381SOL     OW32981  10.103  13.667   6.468
10381SOL    HW132982  10.026  13.612   6.482
10381SOL    HW232983  10.080  13.722   6.393
10382SOL     OW32984  14.346   3.051   9.307
10382SOL    HW132985  14.342   3.097   9.391
10382SOL    HW232986  14.322   2.960   9.329
10383SOL     OW32987  12.761  14.036  14.685
10383SOL    HW132988  12.836  14.012  14.631
10383SOL    HW232989  12.693  13.972  14.661
10384SOL     OW32990   6.870   5.418   3.243
10384SOL    HW132991   6.962   5.426   3.271
10384SOL    HW232992   6.870   5.452   3.154
10385SOL     OW32993  13.490  12.025  14.846
10385SOL    HW132994  13.397  12.024  14.826
10385SOL    HW232995  13.495  12.035   0.067
10386SOL     OW32996   3.346   0.513   8.562
10386SOL    HW132997   3.331   0.597   8.605
10386SOL    HW232998   3.258   0.475   8.554
10387SOL     OW32999   6.121   4.933   8.506
10387SOL    HW133000   6.097   4.926   8.598
10387SOL    HW233001   6.114   4.843   8.473
10388SOL     OW33002  10.258   0.574  14.260
10388SOL    HW133003  10.196   0.524  14.207
10388SOL    HW233004  10.342   0.530  14.247
10389SOL     OW33005   5.342  10.273   6.474
10389SOL    HW133006   5.297  10.207   6.423
10389SOL    HW233007   5.396  10.223   6.536
10390SOL     OW33008  11.896   0.231   0.023
10390SOL    HW133009  11.800   0.231   0.019
10390SOL    HW233010  11.924   0.250  14.808
10391SOL     OW33011  13.346   0.930   8.709
10391SOL    HW133012  13.329   0.861   8.645
10391SOL    HW233013  13.276   0.994   8.694
10392SOL     OW33014  13.392   8.007   1.771
10392SOL    HW133015  13.379   8.026   1.679
10392SOL    HW233016  13.454   8.074   1.801
10393SOL     OW33017  14.701   4.002   1.067
10393SOL    HW133018  14.640   4.032   0.999
10393SOL    HW233019  14.785   3.993   1.022
10394SOL     OW33020  14.358   2.060  13.248
10394SOL    HW133021  14.424   2.079  13.315
10394SOL    HW233022  14.278   2.041  13.297
10395SOL     OW33023   1.146   5.778   3.955
10395SOL    HW133024   1.185   5.842   4.016
10395SOL    HW233025   1.221   5.739   3.911
10396SOL     OW33026   1.188  14.848  10.116
10396SOL    HW133027   1.217  14.871  10.204
10396SOL    HW233028   1.265  14.812  10.073
10397SOL     OW33029  13.808   0.439   1.395
10397SOL    HW133030  13.751   0.373   1.356
10397SOL    HW233031  13.896   0.416   1.365
10398SOL     OW33032   7.598   1.344  14.057
10398SOL    HW133033   7.601   1.371  14.149
10398SOL    HW233034   7.525   1.282  14.052
10399SOL     OW33035   3.206   6.379   5.554
10399SOL    HW133036   3.248   6.387   5.468
10399SOL    HW233037   3.238   6.455   5.603
10400SOL     OW33038  11.175  13.262   7.774
10400SOL    HW133039  11.110  13.332   7.772
10400SOL    HW233040  11.136  13.195   7.829
10401SOL     OW33041   6.564  11.821  13.286
10401SOL    HW133042   6.591  11.770  13.362
10401SOL    HW233043   6.516  11.759  13.231
10402SOL     OW33044   8.468  14.075   6.731
10402SOL    HW133045   8.506  14.013   6.669
10402SOL    HW233046   8.537  14.138   6.749
10403SOL     OW33047   9.458   6.550   0.263
10403SOL    HW133048   9.514   6.591   0.329
10403SOL    HW233049   9.383   6.609   0.255
10404SOL     OW33050  10.077   2.798   7.513
10404SOL    HW133051  10.129   2.756   7.582
10404SOL    HW233052  10.096   2.747   7.435
10405SOL     OW33053   4.127  11.450   6.916
10405SOL    HW133054   4.201  11.390   6.910
10405SOL    HW233055   4.062  11.414   6.856
10406SOL     OW33056  14.294   3.742  14.370
10406SOL    HW133057  14.347   3.818  14.392
10406SOL    HW233058  14.279   3.698  14.454
10407SOL     OW33059   5.343   0.985  13.038
10407SOL    HW133060   5.371   0.894  13.045
10407SOL    HW233061   5.289   1.000  13.116
10408SOL     OW33062  12.345  11.985  11.894
10408SOL    HW133063  12.415  12.035  11.936
10408SOL    HW233064  12.390  11.927  11.833
10409SOL     OW33065   0.017   8.998   9.905
10409SOL    HW133066   0.058   9.015   9.820
10409SOL    HW233067  14.806   9.041   9.899
10410SOL     OW33068  10.985   1.801   5.687
10410SOL    HW133069  11.039   1.826   5.762
10410SOL    HW233070  11.048   1.772   5.621
10411SOL     OW33071   3.742   5.946   0.445
10411SOL    HW133072   3.684   5.947   0.522
10411SOL    HW233073   3.707   6.013   0.387
10412SOL     OW33074  12.281  13.350   7.550
10412SOL    HW133075  12.283  13.282   7.618
10412SOL    HW233076  12.321  13.309   7.473
10413SOL     OW33077   5.401   0.486   0.539
10413SOL    HW133078   5.376   0.538   0.463
10413SOL    HW233079   5.320   0.479   0.591
10414SOL     OW33080  13.158   3.071   5.986
10414SOL    HW133081  13.193   3.135   5.924
10414SOL    HW233082  13.213   3.080   6.063
10415SOL     OW33083   0.127   7.412   2.042
10415SOL    HW133084   0.105   7.429   2.134
10415SOL    HW233085   0.216   7.446   2.032
10416SOL     OW33086  10.608   0.808   3.409
10416SOL    HW133087  10.565   0.723   3.411
10416SOL    HW233088  10.678   0.801   3.473
10417SOL     OW33089  12.138   9.405   6.663
10417SOL    HW133090  12.199   9.454   6.607
10417SOL    HW233091  12.191   9.377   6.737
10418SOL     OW33092   3.639   1.949  12.888
10418SOL    HW133093   3.710   1.886  12.893
10418SOL    HW233094   3.646   1.987  12.800
10419SOL     OW33095   1.642   5.669   4.825
10419SOL    HW133096   1.675   5.582   4.801
10419SOL    HW233097   1.560   5.652   4.871
10420SOL     OW33098   3.483   2.785   6.222
10420SOL    HW133099   3.468   2.753   6.311
10420SOL    HW233100   3.415   2.742   6.170
10421SOL     OW33101   6.946   9.941   5.183
10421SOL    HW133102   7.019   9.966   5.127
10421SOL    HW233103   6.986   9.886   5.251
10422SOL     OW33104   9.416   7.619   8.688
10422SOL    HW133105   9.447   7.692   8.635
10422SOL    HW233106   9.481   7.610   8.758
10423SOL     OW33107   7.593   0.095   0.751
10423SOL    HW133108   7.647   0.174   0.760
10423SOL    HW233109   7.516   0.113   0.805
10424SOL     OW33110  10.583   9.132   2.716
10424SOL    HW133111  10.638   9.186   2.772
10424SOL    HW233112  10.635   9.054   2.697
10425SOL     OW33113  11.350  11.060  10.270
10425SOL    HW133114  11.337  11.051  10.364
10425SOL    HW233115  11.271  11.103  10.239
10426SOL     OW33116   7.710   4.379   6.105
10426SOL    HW133117   7.783   4.441   6.112
10426SOL    HW233118   7.650   4.406   6.175
10427SOL     OW33119  10.124   5.722  12.892
10427SOL    HW133120  10.101   5.797  12.946
10427SOL    HW233121  10.101   5.646  12.946
10428SOL     OW33122   9.527  13.551   4.937
10428SOL    HW133123   9.590  13.578   4.871
10428SOL    HW233124   9.518  13.456   4.924
10429SOL     OW33125  13.554   4.420  14.024
10429SOL    HW133126  13.632   4.428  14.079
10429SOL    HW233127  13.537   4.326  14.021
10430SOL     OW33128   5.956   0.706   8.504
10430SOL    HW133129   5.874   0.697   8.552
10430SOL    HW233130   6.017   0.646   8.548
10431SOL     OW33131  11.585  14.288   3.867
10431SOL    HW133132  11.492  14.301   3.883
10431SOL    HW233133  11.628  14.355   3.921
10432SOL     OW33134   0.745   1.559  10.325
10432SOL    HW133135   0.726   1.496  10.255
10432SOL    HW233136   0.674   1.547  10.387
10433SOL     OW33137  12.474   1.439   0.814
10433SOL    HW133138  12.400   1.444   0.875
10433SOL    HW233139  12.435   1.456   0.728
10434SOL     OW33140   0.993   2.105  13.281
10434SOL    HW133141   0.976   2.168  13.211
10434SOL    HW233142   0.936   2.031  13.260
10435SOL     OW33143  14.570   6.397  10.202
10435SOL    HW133144  14.658   6.394  10.166
10435SOL    HW233145  14.581   6.430  10.291
10436SOL     OW33146   3.578   5.043   3.301
10436SOL    HW133147   3.621   5.015   3.220
10436SOL    HW233148   3.596   5.137   3.306
10437SOL     OW33149   6.160  13.699   3.823
10437SOL    HW133150   6.246  13.685   3.863
10437SOL    HW233151   6.179  13.720   3.732
10438SOL     OW33152  13.735  11.701   2.802
10438SOL    HW133153  13.643  11.685   2.782
10438SOL    HW233154  13.782  11.662   2.728
10439SOL     OW33155  12.627   9.391   6.304
10439SOL    HW133156  12.685   9.317   6.320
10439SOL    HW233157  12.539   9.358   6.324
10440SOL     OW33158   3.359  10.932   7.892
10440SOL    HW133159   3.285  10.871   7.901
10440SOL    HW233160   3.319  11.014   7.865
10441SOL     OW33161   2.725   1.649  12.833
10441SOL    HW133162   2.637   1.613  12.847
10441SOL    HW233163   2.784   1.583  12.869
10442SOL     OW33164   2.409   7.251   0.964
10442SOL    HW133165   2.335   7.212   0.919
10442SOL    HW233166   2.381   7.340   0.985
10443SOL     OW33167  12.374   1.341   1.938
10443SOL    HW133168  12.403   1.306   1.854
10443SOL    HW233169  12.454   1.372   1.980
10444SOL     OW33170  12.016   5.084   5.517
10444SOL    HW133171  11.993   5.130   5.597
10444SOL    HW233172  11.942   5.025   5.500
10445SOL     OW33173  11.027   8.768  13.057
10445SOL    HW133174  10.992   8.851  13.090
10445SOL    HW233175  10.956   8.705  13.070
10446SOL     OW33176   3.161   1.690   9.577
10446SOL    HW133177   3.251   1.690   9.545
10446SOL    HW233178   3.145   1.600   9.603
10447SOL     OW33179   8.319   4.173   7.899
10447SOL    HW133180   8.399   4.225   7.905
10447SOL    HW233181   8.348   4.089   7.862
10448SOL     OW33182   8.090  11.422   6.252
10448SOL    HW133183   8.177  11.461   6.261
10448SOL    HW233184   8.032  11.482   6.299
10449SOL     OW33185   9.264   6.366   4.017
10449SOL    HW133186   9.337   6.347   4.076
10449SOL    HW233187   9.186   6.365   4.073
10450SOL     OW33188   6.985  11.140  12.630
10450SOL    HW133189   6.900  11.103  12.654
10450SOL    HW233190   6.964  11.207  12.565
10451SOL     OW33191   2.852   4.239  10.240
10451SOL    HW133192   2.922   4.211  10.298
10451SOL    HW233193   2.829   4.161  10.190
10452SOL     OW33194   2.174  13.204   0.285
10452SOL    HW133195   2.261  13.212   0.245
10452SOL    HW233196   2.163  13.286   0.334
10453SOL     OW33197   6.009   4.246   5.402
10453SOL    HW133198   5.987   4.258   5.494
10453SOL    HW233199   5.968   4.163   5.378
10454SOL     OW33200   7.256  12.402   8.636
10454SOL    HW133201   7.253  12.495   8.614
10454SOL    HW233202   7.323  12.395   8.704
10455SOL     OW33203  11.389   7.504  14.649
10455SOL    HW133204  11.334   7.524  14.573
10455SOL    HW233205  11.415   7.413  14.637
10456SOL     OW33206   6.662   3.562  11.308
10456SOL    HW133207   6.684   3.569  11.401
10456SOL    HW233208   6.725   3.619  11.264
10457SOL     OW33209   9.961   7.814   8.190
10457SOL    HW133210   9.920   7.736   8.153
10457SOL    HW233211   9.980   7.870   8.115
10458SOL     OW33212  11.906  13.796   1.681
10458SOL    HW133213  11.996  13.823   1.662
10458SOL    HW233214  11.916  13.722   1.741
10459SOL     OW33215   5.381   7.148  10.282
10459SOL    HW133216   5.334   7.116  10.359
10459SOL    HW233217   5.345   7.235  10.266
10460SOL     OW33218  12.220   0.106  11.551
10460SOL    HW133219  12.188   0.172  11.490
10460SOL    HW233220  12.300   0.073  11.510
10461SOL     OW33221  14.779   9.024  11.773
10461SOL    HW133222  14.818   9.038  11.686
10461SOL    HW233223  14.781   9.110  11.814
10462SOL     OW33224  14.246   2.076  11.420
10462SOL    HW133225  14.253   2.076  11.516
10462SOL    HW233226  14.165   2.124  11.402
10463SOL     OW33227  13.950   0.738  12.585
10463SOL    HW133228  13.924   0.648  12.562
10463SOL    HW233229  13.874   0.773  12.632
10464SOL     OW33230   7.352  11.867   9.419
10464SOL    HW133231   7.441  11.895   9.442
10464SOL    HW233232   7.332  11.797   9.481
10465SOL     OW33233   6.741   7.790  14.092
10465SOL    HW133234   6.716   7.698  14.105
10465SOL    HW233235   6.806   7.807  14.160
10466SOL     OW33236  10.049   9.258  10.304
10466SOL    HW133237   9.997   9.288  10.378
10466SOL    HW233238  10.107   9.331  10.285
10467SOL     OW33239  11.869   2.768   3.427
10467SOL    HW133240  11.933   2.827   3.466
10467SOL    HW233241  11.860   2.697   3.490
10468SOL     OW33242  14.753   3.266   4.437
10468SOL    HW133243  14.770   3.359   4.447
10468SOL    HW233244  14.742   3.253   4.343
10469SOL     OW33245   7.778  11.761  10.906
10469SOL    HW133246   7.817  11.675  10.923
10469SOL    HW233247   7.684  11.744  10.900
10470SOL     OW33248   4.515  13.800   3.819
10470SOL    HW133249   4.525  13.838   3.732
10470SOL    HW233250   4.430  13.832   3.849
10471SOL     OW33251   4.964   2.057  14.835
10471SOL    HW133252   4.882   2.103  14.820
10471SOL    HW233253   5.011   2.113   0.023
10472SOL     OW33254  14.084   4.485   7.331
10472SOL    HW133255  14.095   4.429   7.408
10472SOL    HW233256  14.004   4.452   7.289
10473SOL     OW33257  12.636  11.793   8.399
10473SOL    HW133258  12.645  11.794   8.495
10473SOL    HW233259  12.685  11.715   8.372
10474SOL     OW33260   9.258   2.417  10.360
10474SOL    HW133261   9.194   2.352  10.331
10474SOL    HW233262   9.234   2.497  10.314
10475SOL     OW33263   3.622   7.460   0.233
10475SOL    HW133264   3.663   7.452   0.147
10475SOL    HW233265   3.603   7.370   0.259
10476SOL     OW33266   2.334   4.956   3.140
10476SOL    HW133267   2.360   4.884   3.197
10476SOL    HW233268   2.411   5.012   3.135
10477SOL     OW33269  14.600  12.272   2.691
10477SOL    HW133270  14.595  12.218   2.612
10477SOL    HW233271  14.511  12.307   2.702
10478SOL     OW33272   6.355   6.686   6.484
10478SOL    HW133273   6.375   6.736   6.564
10478SOL    HW233274   6.326   6.752   6.421
10479SOL     OW33275   6.222   6.310   7.506
10479SOL    HW133276   6.315   6.302   7.488
10479SOL    HW233277   6.196   6.226   7.544
10480SOL     OW33278  14.359   7.486  10.498
10480SOL    HW133279  14.347   7.534  10.580
10480SOL    HW233280  14.360   7.554  10.431
10481SOL     OW33281   6.607   0.336  10.394
10481SOL    HW133282   6.702   0.339  10.385
10481SOL    HW233283   6.573   0.368  10.310
10482SOL     OW33284   6.805   4.973  10.838
10482SOL    HW133285   6.801   4.887  10.795
10482SOL    HW233286   6.817   5.035  10.766
10483SOL     OW33287   6.239  13.262  11.859
10483SOL    HW133288   6.148  13.261  11.887
10483SOL    HW233289   6.256  13.352  11.832
10484SOL     OW33290   4.670   0.585   2.814
10484SOL    HW133291   4.668   0.681   2.812
10484SOL    HW233292   4.692   0.560   2.724
10485SOL     OW33293   8.270   8.381  13.642
10485SOL    HW133294   8.238   8.352  13.556
10485SOL    HW233295   8.258   8.476  13.641
10486SOL     OW33296   3.950   0.296   9.763
10486SOL    HW133297   4.016   0.242   9.719
10486SOL    HW233298   3.907   0.237   9.824
10487SOL     OW33299  10.489   7.010  13.670
10487SOL    HW133300  10.573   6.974  13.699
10487SOL    HW233301  10.501   7.029  13.577
10488SOL     OW33302   2.334  14.687   7.715
10488SOL    HW133303   2.334  14.598   7.750
10488SOL    HW233304   2.306  14.677   7.624
10489SOL     OW33305  12.404  14.679   4.003
10489SOL    HW133306  12.335  14.665   4.068
10489SOL    HW233307  12.437  14.767   4.021
10490SOL     OW33308  14.324   7.916   7.051
10490SOL    HW133309  14.357   7.993   7.006
10490SOL    HW233310  14.287   7.861   6.982
10491SOL     OW33311   7.586  12.445  11.231
10491SOL    HW133312   7.595  12.375  11.295
10491SOL    HW233313   7.546  12.517  11.279
10492SOL     OW33314   6.911  10.046  13.716
10492SOL    HW133315   6.929  10.110  13.785
10492SOL    HW233316   6.982  10.059  13.653
10493SOL     OW33317   4.090  13.438   4.448
10493SOL    HW133318   4.107  13.403   4.535
10493SOL    HW233319   4.173  13.476   4.420
10494SOL     OW33320   1.733  14.317  14.825
10494SOL    HW133321   1.673  14.330  14.752
10494SOL    HW233322   1.762  14.226  14.815
10495SOL     OW33323   3.029   9.622  13.574
10495SOL    HW133324   3.038   9.589  13.663
10495SOL    HW233325   2.956   9.572  13.537
10496SOL     OW33326  14.595   3.798   9.019
10496SOL    HW133327  14.605   3.772   8.927
10496SOL    HW233328  14.506   3.833   9.025
10497SOL     OW33329   7.256   2.897   6.454
10497SOL    HW133330   7.229   2.976   6.501
10497SOL    HW233331   7.300   2.929   6.375
10498SOL     OW33332   8.363   6.870  12.382
10498SOL    HW133333   8.378   6.787  12.428
10498SOL    HW233334   8.269   6.875  12.370
10499SOL     OW33335   9.859  13.594  12.958
10499SOL    HW133336   9.872  13.588  13.053
10499SOL    HW233337   9.944  13.572  12.920
10500SOL     OW33338   7.466  10.196   1.185
10500SOL    HW133339   7.423  10.160   1.262
10500SOL    HW233340   7.403  10.184   1.114
10501SOL     OW33341   6.667   3.897   7.111
10501SOL    HW133342   6.627   3.984   7.102
10501SOL    HW233343   6.613   3.853   7.177
10502SOL     OW33344  11.045   2.615   6.430
10502SOL    HW133345  11.044   2.519   6.436
10502SOL    HW233346  10.952   2.638   6.420
10503SOL     OW33347   7.258   4.941  10.518
10503SOL    HW133348   7.202   4.974  10.588
10503SOL    HW233349   7.266   4.848  10.536
10504SOL     OW33350   0.957  12.128   5.990
10504SOL    HW133351   0.931  12.109   5.901
10504SOL    HW233352   1.046  12.164   5.982
10505SOL     OW33353  13.504   1.797  12.149
10505SOL    HW133354  13.589   1.838  12.165
10505SOL    HW233355  13.442   1.847  12.203
10506SOL     OW33356   4.664   2.554   3.750
10506SOL    HW133357   4.615   2.630   3.780
10506SOL    HW233358   4.597   2.493   3.718
10507SOL     OW33359   3.720   8.875   0.804
10507SOL    HW133360   3.793   8.864   0.743
10507SOL    HW233361   3.724   8.799   0.861
10508SOL     OW33362   9.661   9.840  10.353
10508SOL    HW133363   9.705   9.766  10.312
10508SOL    HW233364   9.574   9.807  10.376
10509SOL     OW33365   5.746   9.734   3.649
10509SOL    HW133366   5.729   9.797   3.578
10509SOL    HW233367   5.762   9.789   3.726
10510SOL     OW33368   7.633   8.441  11.697
10510SOL    HW133369   7.557   8.474  11.648
10510SOL    HW233370   7.599   8.365  11.745
10511SOL     OW33371  11.827  14.457  12.616
10511SOL    HW133372  11.763  14.388  12.635
10511SOL    HW233373  11.865  14.432  12.532
10512SOL     OW33374   4.484   9.575   0.392
10512SOL    HW133375   4.433   9.600   0.315
10512SOL    HW233376   4.562   9.631   0.388
10513SOL     OW33377  13.200  13.991  14.313
10513SOL    HW133378  13.295  14.001  14.300
10513SOL    HW233379  13.178  13.911  14.265
10514SOL     OW33380   6.455   8.797   4.628
10514SOL    HW133381   6.405   8.730   4.580
10514SOL    HW233382   6.478   8.862   4.562
10515SOL     OW33383   6.505   8.850   5.057
10515SOL    HW133384   6.560   8.777   5.086
10515SOL    HW233385   6.536   8.870   4.969
10516SOL     OW33386  13.024   0.009   9.388
10516SOL    HW133387  13.063  14.796   9.396
10516SOL    HW233388  13.028   0.045   9.477
10517SOL     OW33389   0.124   3.248  12.472
10517SOL    HW133390   0.045   3.217  12.516
10517SOL    HW233391   0.183   3.173  12.473
10518SOL     OW33392   6.763   1.689   3.624
10518SOL    HW133393   6.754   1.740   3.704
10518SOL    HW233394   6.845   1.642   3.635
10519SOL     OW33395  14.682   0.197   4.386
10519SOL    HW133396  14.685   0.222   4.479
10519SOL    HW233397  14.770   0.165   4.367
10520SOL     OW33398   1.747   5.471   0.179
10520SOL    HW133399   1.738   5.542   0.242
10520SOL    HW233400   1.804   5.407   0.222
10521SOL     OW33401  13.373   5.384   7.303
10521SOL    HW133402  13.447   5.356   7.357
10521SOL    HW233403  13.346   5.468   7.340
10522SOL     OW33404   9.970  14.161  12.239
10522SOL    HW133405   9.882  14.153  12.277
10522SOL    HW233406   9.954  14.178  12.147
10523SOL     OW33407   7.866  13.594  14.378
10523SOL    HW133408   7.848  13.632  14.292
10523SOL    HW233409   7.883  13.669  14.434
10524SOL     OW33410   0.994   2.450   6.135
10524SOL    HW133411   0.911   2.469   6.178
10524SOL    HW233412   0.983   2.481   6.045
10525SOL     OW33413   8.306   2.954   5.274
10525SOL    HW133414   8.374   3.021   5.286
10525SOL    HW233415   8.351   2.882   5.228
10526SOL     OW33416  12.689   7.361   5.600
10526SOL    HW133417  12.622   7.417   5.639
10526SOL    HW233418  12.739   7.419   5.543
10527SOL     OW33419   5.691  13.501  10.334
10527SOL    HW133420   5.747  13.500  10.256
10527SOL    HW233421   5.656  13.590  10.337
10528SOL     OW33422   3.908   3.699   5.643
10528SOL    HW133423   3.954   3.681   5.561
10528SOL    HW233424   3.858   3.779   5.625
10529SOL     OW33425   8.181   1.417   8.083
10529SOL    HW133426   8.240   1.407   8.008
10529SOL    HW233427   8.224   1.482   8.139
10530SOL     OW33428  12.501   2.434  10.478
10530SOL    HW133429  12.552   2.398  10.406
10530SOL    HW233430  12.545   2.402  10.557
10531SOL     OW33431   3.458   9.248   7.218
10531SOL    HW133432   3.475   9.235   7.311
10531SOL    HW233433   3.461   9.343   7.207
10532SOL     OW33434   9.614   7.976  14.403
10532SOL    HW133435   9.638   7.920  14.476
10532SOL    HW233436   9.523   8.000  14.420
10533SOL     OW33437   4.740  11.225   4.529
10533SOL    HW133438   4.806  11.211   4.597
10533SOL    HW233439   4.755  11.155   4.466
10534SOL     OW33440  12.414   8.967   7.560
10534SOL    HW133441  12.407   8.872   7.557
10534SOL    HW233442  12.487   8.984   7.620
10535SOL     OW33443   5.027  10.021   8.233
10535SOL    HW133444   5.001  10.107   8.264
10535SOL    HW233445   5.096  10.039   8.169
10536SOL     OW33446   4.459   5.115   3.590
10536SOL    HW133447   4.413   5.162   3.521
10536SOL    HW233448   4.394   5.101   3.658
10537SOL     OW33449   3.535   5.314   4.867
10537SOL    HW133450   3.476   5.377   4.826
10537SOL    HW233451   3.602   5.368   4.909
10538SOL     OW33452  13.274   0.321   4.047
10538SOL    HW133453  13.227   0.260   4.104
10538SOL    HW233454  13.297   0.270   3.970
10539SOL     OW33455  13.375   2.434   1.838
10539SOL    HW133456  13.324   2.513   1.857
10539SOL    HW233457  13.318   2.381   1.782
10540SOL     OW33458   0.516   6.514   8.712
10540SOL    HW133459   0.513   6.443   8.647
10540SOL    HW233460   0.495   6.593   8.662
10541SOL     OW33461  11.126  12.491   5.782
10541SOL    HW133462  11.049  12.518   5.832
10541SOL    HW233463  11.095  12.482   5.692
10542SOL     OW33464   7.431  12.854  12.966
10542SOL    HW133465   7.491  12.809  13.026
10542SOL    HW233466   7.483  12.928  12.933
10543SOL     OW33467  11.783  12.568   1.851
10543SOL    HW133468  11.797  12.662   1.843
10543SOL    HW233469  11.861  12.536   1.897
10544SOL     OW33470   2.152  12.724  12.917
10544SOL    HW133471   2.181  12.815  12.924
10544SOL    HW233472   2.213  12.675  12.972
10545SOL     OW33473  14.004  14.456   8.410
10545SOL    HW133474  13.949  14.384   8.381
10545SOL    HW233475  14.053  14.421   8.484
10546SOL     OW33476  13.107   4.743   8.147
10546SOL    HW133477  13.094   4.746   8.241
10546SOL    HW233478  13.182   4.684   8.135
10547SOL     OW33479   8.431   3.611  12.129
10547SOL    HW133480   8.356   3.659  12.166
10547SOL    HW233481   8.395   3.525  12.106
10548SOL     OW33482   3.719  13.613  13.921
10548SOL    HW133483   3.624  13.622  13.930
10548SOL    HW233484   3.743  13.677  13.854
10549SOL     OW33485   7.246   6.880   7.450
10549SOL    HW133486   7.246   6.835   7.365
10549SOL    HW233487   7.161   6.924   7.454
10550SOL     OW33488   7.511  14.745   4.161
10550SOL    HW133489   7.497  14.839   4.150
10550SOL    HW233490   7.588  14.726   4.107
10551SOL     OW33491   5.408   5.492   7.175
10551SOL    HW133492   5.471   5.546   7.222
10551SOL    HW233493   5.458   5.415   7.148
10552SOL     OW33494   4.598  12.445   9.704
10552SOL    HW133495   4.666  12.479   9.646
10552SOL    HW233496   4.527  12.508   9.697
10553SOL     OW33497  10.000  14.868   6.939
10553SOL    HW133498   9.988  14.858   7.033
10553SOL    HW233499   9.920   0.036   6.908
10554SOL     OW33500   4.364   1.691   7.605
10554SOL    HW133501   4.338   1.688   7.697
10554SOL    HW233502   4.457   1.668   7.605
10555SOL     OW33503  11.116  14.088   4.900
10555SOL    HW133504  11.027  14.070   4.869
10555SOL    HW233505  11.113  14.068   4.994
10556SOL     OW33506   7.014  13.092   4.157
10556SOL    HW133507   7.092  13.142   4.133
10556SOL    HW233508   7.048  13.004   4.176
10557SOL     OW33509  12.151  10.115   2.253
10557SOL    HW133510  12.180  10.199   2.218
10557SOL    HW233511  12.060  10.107   2.224
10558SOL     OW33512   0.397   2.433   3.891
10558SOL    HW133513   0.458   2.384   3.835
10558SOL    HW233514   0.443   2.515   3.911
10559SOL     OW33515   6.862  11.729  11.360
10559SOL    HW133516   6.798  11.674  11.404
10559SOL    HW233517   6.929  11.668  11.330
10560SOL     OW33518  10.092   1.140   7.507
10560SOL    HW133519  10.166   1.094   7.547
10560SOL    HW233520  10.117   1.152   7.415
10561SOL     OW33521  12.104  14.312   2.180
10561SOL    HW133522  12.050  14.391   2.183
10561SOL    HW233523  12.041  14.240   2.179
10562SOL     OW33524   7.368   0.027   2.621
10562SOL    HW133525   7.374   0.100   2.559
10562SOL    HW233526   7.448   0.034   2.673
10563SOL     OW33527   7.463   9.771   5.549
10563SOL    HW133528   7.515   9.772   5.468
10563SOL    HW233529   7.526   9.753   5.618
10564SOL     OW33530   3.373   2.741  11.292
10564SOL    HW133531   3.434   2.716  11.361
10564SOL    HW233532   3.287   2.742  11.334
10565SOL     OW33533   2.337  10.572   0.798
10565SOL    HW133534   2.297  10.642   0.745
10565SOL    HW233535   2.414  10.612   0.837
10566SOL     OW33536  12.334   1.275  13.120
10566SOL    HW133537  12.428   1.263  13.132
10566SOL    HW233538  12.295   1.228  13.193
10567SOL     OW33539   5.665   4.185   7.128
10567SOL    HW133540   5.630   4.097   7.111
10567SOL    HW233541   5.628   4.209   7.213
10568SOL     OW33542  12.323   3.262   3.509
10568SOL    HW133543  12.228   3.253   3.499
10568SOL    HW233544  12.359   3.200   3.446
10569SOL     OW33545   5.057   5.892   1.531
10569SOL    HW133546   4.983   5.937   1.574
10569SOL    HW233547   5.033   5.889   1.439
10570SOL     OW33548   7.199   5.931   8.332
10570SOL    HW133549   7.257   5.966   8.400
10570SOL    HW233550   7.198   5.836   8.348
10571SOL     OW33551  11.450   4.779   7.414
10571SOL    HW133552  11.516   4.780   7.484
10571SOL    HW233553  11.426   4.871   7.404
10572SOL     OW33554  10.368   6.062   0.980
10572SOL    HW133555  10.411   6.057   1.066
10572SOL    HW233556  10.292   6.003   0.989
10573SOL     OW33557   7.241  13.358   7.265
10573SOL    HW133558   7.251  13.410   7.184
10573SOL    HW233559   7.308  13.290   7.257
10574SOL     OW33560   5.100   8.309  13.578
10574SOL    HW133561   5.110   8.350  13.664
10574SOL    HW233562   5.128   8.377  13.516
10575SOL     OW33563   2.254  13.535  11.586
10575SOL    HW133564   2.262  13.529  11.491
10575SOL    HW233565   2.247  13.628  11.604
10576SOL     OW33566  14.440   7.578   6.080
10576SOL    HW133567  14.456   7.668   6.053
10576SOL    HW233568  14.379   7.544   6.015
10577SOL     OW33569   1.090   8.274   7.786
10577SOL    HW133570   1.014   8.300   7.735
10577SOL    HW233571   1.163   8.281   7.725
10578SOL     OW33572   1.201   5.810   6.611
10578SOL    HW133573   1.152   5.739   6.651
10578SOL    HW233574   1.147   5.888   6.627
10579SOL     OW33575  12.146   5.924  12.270
10579SOL    HW133576  12.152   6.018  12.288
10579SOL    HW233577  12.236   5.896  12.256
10580SOL     OW33578   5.701   5.127   7.996
10580SOL    HW133579   5.746   5.182   8.060
10580SOL    HW233580   5.725   5.164   7.911
10581SOL     OW33581  13.079   5.098   5.083
10581SOL    HW133582  13.091   5.018   5.032
10581SOL    HW233583  13.108   5.075   5.171
10582SOL     OW33584  10.329  13.564   3.724
10582SOL    HW133585  10.344  13.624   3.651
10582SOL    HW233586  10.234  13.566   3.737
10583SOL     OW33587   5.984  13.271   1.149
10583SOL    HW133588   6.064  13.302   1.106
10583SOL    HW233589   6.015  13.210   1.215
10584SOL     OW33590   0.699   0.709  13.648
10584SOL    HW133591   0.716   0.681  13.558
10584SOL    HW233592   0.603   0.707  13.655
10585SOL     OW33593   9.107  10.128   6.299
10585SOL    HW133594   9.106  10.048   6.245
10585SOL    HW233595   9.120  10.096   6.388
10586SOL     OW33596  12.182   7.446  13.952
10586SOL    HW133597  12.260   7.493  13.983
10586SOL    HW233598  12.157   7.491  13.872
10587SOL     OW33599   8.183   7.080   0.637
10587SOL    HW133600   8.162   7.084   0.544
10587SOL    HW233601   8.267   7.126   0.644
10588SOL     OW33602  14.148   0.548   0.392
10588SOL    HW133603  14.204   0.608   0.343
10588SOL    HW233604  14.172   0.560   0.483
10589SOL     OW33605  11.254  10.637   9.443
10589SOL    HW133606  11.284  10.696   9.373
10589SOL    HW233607  11.212  10.695   9.507
10590SOL     OW33608  14.829  14.791   0.662
10590SOL    HW133609  14.867  14.821   0.579
10590SOL    HW233610   0.023  14.808   0.726
10591SOL     OW33611   6.611   2.211   2.684
10591SOL    HW133612   6.702   2.201   2.655
10591SOL    HW233613   6.611   2.182   2.775
10592SOL     OW33614   2.513   1.969  11.337
10592SOL    HW133615   2.605   1.996  11.346
10592SOL    HW233616   2.504   1.895  11.397
10593SOL     OW33617   4.834   9.388   9.128
10593SOL    HW133618   4.755   9.430   9.163
10593SOL    HW233619   4.818   9.294   9.140
10594SOL     OW33620   0.595   6.003  13.834
10594SOL    HW133621   0.626   6.093  13.820
10594SOL    HW233622   0.504   6.013  13.861
10595SOL     OW33623   4.473  11.481  12.435
10595SOL    HW133624   4.423  11.526  12.503
10595SOL    HW233625   4.447  11.523  12.353
10596SOL     OW33626   1.344   6.924  12.903
10596SOL    HW133627   1.307   6.879  12.827
10596SOL    HW233628   1.398   6.858  12.946
10597SOL     OW33629   9.819   0.574  12.975
10597SOL    HW133630   9.883   0.514  13.013
10597SOL    HW233631   9.868   0.623  12.910
10598SOL     OW33632   3.766  13.526   8.189
10598SOL    HW133633   3.855  13.541   8.219
10598SOL    HW233634   3.711  13.572   8.252
10599SOL     OW33635   5.421  14.305   8.410
10599SOL    HW133636   5.332  14.325   8.382
10599SOL    HW233637   5.462  14.390   8.426
10600SOL     OW33638  13.235   9.765   0.603
10600SOL    HW133639  13.188   9.843   0.631
10600SOL    HW233640  13.256   9.719   0.685
10601SOL     OW33641   6.500  10.622   4.171
10601SOL    HW133642   6.485  10.703   4.220
10601SOL    HW233643   6.539  10.563   4.235
10602SOL     OW33644   2.514   0.829  11.740
10602SOL    HW133645   2.601   0.792  11.752
10602SOL    HW233646   2.486   0.854  11.828
10603SOL     OW33647  14.039   4.330   3.163
10603SOL    HW133648  13.997   4.245   3.151
10603SOL    HW233649  14.022   4.377   3.082
10604SOL     OW33650  13.363   0.359  14.279
10604SOL    HW133651  13.367   0.421  14.352
10604SOL    HW233652  13.454   0.347  14.253
10605SOL     OW33653   5.328   8.488  12.901
10605SOL    HW133654   5.365   8.424  12.840
10605SOL    HW233655   5.289   8.555  12.844
10606SOL     OW33656   7.589   3.216   7.727
10606SOL    HW133657   7.548   3.270   7.795
10606SOL    HW233658   7.664   3.268   7.698
10607SOL     OW33659   8.607   6.723   5.145
10607SOL    HW133660   8.677   6.676   5.101
10607SOL    HW233661   8.527   6.682   5.113
10608SOL     OW33662   9.361   2.206  11.275
10608SOL    HW133663   9.407   2.196  11.192
10608SOL    HW233664   9.326   2.295  11.273
10609SOL     OW33665   7.351   8.182  13.851
10609SOL    HW133666   7.277   8.194  13.791
10609SOL    HW233667   7.392   8.101  13.822
10610SOL     OW33668   9.170   2.808  11.334
10610SOL    HW133669   9.225   2.763  11.269
10610SOL    HW233670   9.233   2.844  11.396
10611SOL     OW33671   0.497   7.092   2.425
10611SOL    HW133672   0.480   6.999   2.409
10611SOL    HW233673   0.412   7.135   2.414
10612SOL     OW33674  12.323  11.194   4.654
10612SOL    HW133675  12.297  11.271   4.705
10612SOL    HW233676  12.397  11.224   4.601
10613SOL     OW33677   9.617   2.423   5.377
10613SOL    HW133678   9.702   2.436   5.336
10613SOL    HW233679   9.606   2.499   5.434
10614SOL     OW33680   5.307  14.479   6.549
10614SOL    HW133681   5.332  14.553   6.494
10614SOL    HW233682   5.325  14.402   6.494
10615SOL     OW33683  11.816   1.609   0.102
10615SOL    HW133684  11.800   1.515   0.092
10615SOL    HW233685  11.754   1.650   0.042
10616SOL     OW33686  14.073  13.095   1.755
10616SOL    HW133687  14.145  13.159   1.754
10616SOL    HW233688  14.040  13.096   1.665
10617SOL     OW33689   3.855   5.972   2.771
10617SOL    HW133690   3.854   5.918   2.850
10617SOL    HW233691   3.795   6.044   2.790
10618SOL     OW33692  14.573  13.532   2.770
10618SOL    HW133693  14.662  13.569   2.774
10618SOL    HW233694  14.563  13.485   2.853
10619SOL     OW33695   5.662  14.170  11.188
10619SOL    HW133696   5.567  14.176  11.185
10619SOL    HW233697   5.684  14.109  11.117
10620SOL     OW33698   5.483   8.570   6.716
10620SOL    HW133699   5.419   8.634   6.686
10620SOL    HW233700   5.568   8.609   6.696
10621SOL     OW33701   9.692   2.649  11.822
10621SOL    HW133702   9.716   2.581  11.759
10621SOL    HW233703   9.768   2.708  11.823
10622SOL     OW33704   2.767   4.749   0.969
10622SOL    HW133705   2.829   4.821   0.961
10622SOL    HW233706   2.818   4.678   1.009
10623SOL     OW33707   5.873   3.368   7.725
10623SOL    HW133708   5.958   3.346   7.688
10623SOL    HW233709   5.828   3.415   7.655
10624SOL     OW33710   4.155  12.843   2.429
10624SOL    HW133711   4.101  12.915   2.396
10624SOL    HW233712   4.102  12.765   2.417
10625SOL     OW33713  14.221   0.820   1.856
10625SOL    HW133714  14.316   0.812   1.846
10625SOL    HW233715  14.191   0.729   1.865
10626SOL     OW33716   3.141   6.912   6.793
10626SOL    HW133717   3.193   6.972   6.739
10626SOL    HW233718   3.147   6.949   6.881
10627SOL     OW33719   4.638   7.142  11.022
10627SOL    HW133720   4.729   7.148  10.994
10627SOL    HW233721   4.621   7.224  11.067
10628SOL     OW33722   6.275   6.388  10.589
10628SOL    HW133723   6.270   6.335  10.510
10628SOL    HW233724   6.234   6.335  10.657
10629SOL     OW33725  11.171   8.994  12.274
10629SOL    HW133726  11.094   8.962  12.321
10629SOL    HW233727  11.201   9.069  12.326
10630SOL     OW33728  14.323   0.901  13.678
10630SOL    HW133729  14.289   0.957  13.748
10630SOL    HW233730  14.246   0.857  13.642
10631SOL     OW33731  14.119   0.646   7.372
10631SOL    HW133732  14.073   0.625   7.454
10631SOL    HW233733  14.173   0.721   7.393
10632SOL     OW33734   9.673   6.533   9.343
10632SOL    HW133735   9.604   6.479   9.304
10632SOL    HW233736   9.643   6.548   9.433
10633SOL     OW33737   0.303   0.844   9.282
10633SOL    HW133738   0.364   0.776   9.310
10633SOL    HW233739   0.359   0.918   9.257
10634SOL     OW33740  12.576   0.464  10.968
10634SOL    HW133741  12.651   0.406  10.963
10634SOL    HW233742  12.611   0.551  10.949
10635SOL     OW33743  14.697  11.147   8.843
10635SOL    HW133744  14.606  11.117   8.839
10635SOL    HW233745  14.747  11.068   8.860
10636SOL     OW33746   1.078  14.862   2.624
10636SOL    HW133747   1.033  14.872   2.708
10636SOL    HW233748   1.036   0.053   2.567
10637SOL     OW33749   1.192  14.204   0.499
10637SOL    HW133750   1.184  14.122   0.548
10637SOL    HW233751   1.210  14.176   0.409
10638SOL     OW33752   3.531  12.588   7.852
10638SOL    HW133753   3.455  12.561   7.904
10638SOL    HW233754   3.582  12.508   7.840
10639SOL     OW33755   0.817  12.071   3.797
10639SOL    HW133756   0.904  12.092   3.764
10639SOL    HW233757   0.827  12.070   3.892
10640SOL     OW33758  10.812   2.401  14.849
10640SOL    HW133759  10.849   2.395   0.063
10640SOL    HW233760  10.718   2.390  14.863
10641SOL     OW33761   6.586   0.536   1.214
10641SOL    HW133762   6.681   0.528   1.225
10641SOL    HW233763   6.558   0.595   1.285
10642SOL     OW33764   1.036   2.242   1.744
10642SOL    HW133765   0.965   2.303   1.725
10642SOL    HW233766   1.084   2.235   1.662
10643SOL     OW33767   5.594   1.945  11.028
10643SOL    HW133768   5.607   1.865  10.978
10643SOL    HW233769   5.573   2.011  10.962
10644SOL     OW33770   3.997  10.897   6.269
10644SOL    HW133771   3.993  10.839   6.194
10644SOL    HW233772   3.932  10.862   6.330
10645SOL     OW33773  10.635  10.511  13.251
10645SOL    HW133774  10.707  10.542  13.196
10645SOL    HW233775  10.668  10.520  13.341
10646SOL     OW33776  14.829   3.571  13.491
10646SOL    HW133777   0.011   3.646  13.471
10646SOL    HW233778  14.826   3.569  13.587
10647SOL     OW33779   9.160  11.135   6.814
10647SOL    HW133780   9.190  11.048   6.838
10647SOL    HW233781   9.092  11.119   6.748
10648SOL     OW33782   9.282   4.027   0.407
10648SOL    HW133783   9.244   4.113   0.389
10648SOL    HW233784   9.228   3.992   0.478
10649SOL     OW33785   5.859   9.499   9.710
10649SOL    HW133786   5.839   9.407   9.729
10649SOL    HW233787   5.881   9.537   9.795
10650SOL     OW33788  12.738  10.755   5.556
10650SOL    HW133789  12.740  10.841   5.513
10650SOL    HW233790  12.645  10.735   5.566
10651SOL     OW33791   9.985  14.662   9.645
10651SOL    HW133792  10.040  14.726   9.689
10651SOL    HW233793  10.044  14.590   9.622
10652SOL     OW33794   7.899   5.069   3.921
10652SOL    HW133795   7.925   5.008   3.991
10652SOL    HW233796   7.810   5.094   3.944
10653SOL     OW33797   1.219   5.458   6.449
10653SOL    HW133798   1.205   5.437   6.542
10653SOL    HW233799   1.134   5.445   6.408
10654SOL     OW33800  13.977   5.014   3.724
10654SOL    HW133801  14.029   5.039   3.648
10654SOL    HW233802  13.887   5.013   3.691
10655SOL     OW33803   9.934  10.607   6.735
10655SOL    HW133804   9.965  10.524   6.698
10655SOL    HW233805   9.979  10.675   6.685
10656SOL     OW33806   2.470   7.135   4.289
10656SOL    HW133807   2.375   7.140   4.292
10656SOL    HW233808   2.488   7.046   4.257
10657SOL     OW33809   5.802  11.769   1.656
10657SOL    HW133810   5.772  11.843   1.709
10657SOL    HW233811   5.813  11.805   1.568
10658SOL     OW33812   6.475   9.220   9.997
10658SOL    HW133813   6.437   9.251  10.079
10658SOL    HW233814   6.419   9.148   9.970
10659SOL     OW33815   1.074   2.412  13.436
10659SOL    HW133816   1.164   2.408  13.468
10659SOL    HW233817   1.055   2.505  13.428
10660SOL     OW33818   4.002   1.286   1.031
10660SOL    HW133819   4.009   1.379   1.010
10660SOL    HW233820   3.938   1.252   0.970
10661SOL     OW33821   7.506   3.284   1.897
10661SOL    HW133822   7.525   3.359   1.842
10661SOL    HW233823   7.562   3.214   1.863
10662SOL     OW33824  11.691   4.978   9.498
10662SOL    HW133825  11.607   4.965   9.455
10662SOL    HW233826  11.756   4.966   9.429
10663SOL     OW33827   8.059   9.989   6.821
10663SOL    HW133828   8.048   9.921   6.754
10663SOL    HW233829   8.009   9.956   6.896
10664SOL     OW33830   7.296   1.764   9.527
10664SOL    HW133831   7.328   1.853   9.544
10664SOL    HW233832   7.284   1.725   9.614
10665SOL     OW33833   5.641   5.330  12.233
10665SOL    HW133834   5.647   5.407  12.290
10665SOL    HW233835   5.689   5.262  12.281
10666SOL     OW33836  10.541   8.401   9.413
10666SOL    HW133837  10.505   8.467   9.354
10666SOL    HW233838  10.508   8.318   9.379
10667SOL     OW33839   7.914   7.017  13.925
10667SOL    HW133840   7.878   7.061  14.002
10667SOL    HW233841   7.856   6.943  13.910
10668SOL     OW33842  13.406   8.392   8.810
10668SOL    HW133843  13.334   8.449   8.836
10668SOL    HW233844  13.437   8.353   8.892
10669SOL     OW33845  11.203  14.176  12.448
10669SOL    HW133846  11.223  14.121  12.373
10669SOL    HW233847  11.250  14.135  12.521
10670SOL     OW33848  13.512  13.787   4.137
10670SOL    HW133849  13.550  13.712   4.184
10670SOL    HW233850  13.435  13.811   4.189
10671SOL     OW33851   7.358  13.024  10.234
10671SOL    HW133852   7.319  13.015  10.321
10671SOL    HW233853   7.291  12.992  10.174
10672SOL     OW33854   0.644   1.172   6.292
10672SOL    HW133855   0.639   1.110   6.219
10672SOL    HW233856   0.644   1.258   6.250
10673SOL     OW33857   0.371   4.418   8.614
10673SOL    HW133858   0.407   4.499   8.649
10673SOL    HW233859   0.358   4.362   8.691
10674SOL     OW33860   7.392  13.051  13.520
10674SOL    HW133861   7.357  12.976  13.569
10674SOL    HW233862   7.320  13.115  13.519
10675SOL     OW33863  12.675  13.469   7.594
10675SOL    HW133864  12.623  13.409   7.541
10675SOL    HW233865  12.639  13.461   7.682
10676SOL     OW33866   9.894   0.422   1.323
10676SOL    HW133867   9.862   0.341   1.364
10676SOL    HW233868   9.984   0.402   1.297
10677SOL     OW33869   5.214   8.938   9.344
10677SOL    HW133870   5.241   8.851   9.373
10677SOL    HW233871   5.229   8.938   9.249
10678SOL     OW33872   6.928   7.003   9.367
10678SOL    HW133873   6.921   7.098   9.366
10678SOL    HW233874   6.913   6.976   9.276
10679SOL     OW33875  11.660  12.164  10.627
10679SOL    HW133876  11.715  12.148  10.704
10679SOL    HW233877  11.687  12.097  10.564
10680SOL     OW33878  12.131   3.171   2.962
10680SOL    HW133879  12.152   3.237   3.028
10680SOL    HW233880  12.036   3.172   2.956
10681SOL     OW33881   8.267   5.300   7.883
10681SOL    HW133882   8.191   5.358   7.874
10681SOL    HW233883   8.308   5.326   7.965
10682SOL     OW33884   2.491   2.268  12.221
10682SOL    HW133885   2.483   2.173  12.212
10682SOL    HW233886   2.432   2.303  12.154
10683SOL     OW33887  13.359   4.900   1.232
10683SOL    HW133888  13.349   4.986   1.191
10683SOL    HW233889  13.372   4.918   1.325
10684SOL     OW33890   6.934   4.215  13.751
10684SOL    HW133891   7.003   4.190  13.690
10684SOL    HW233892   6.965   4.296  13.791
10685SOL     OW33893   4.461  14.356   5.166
10685SOL    HW133894   4.541  14.303   5.168
10685SOL    HW233895   4.397  14.302   5.212
10686SOL     OW33896  13.695   1.255  12.761
10686SOL    HW133897  13.688   1.192  12.688
10686SOL    HW233898  13.652   1.210  12.834
10687SOL     OW33899   1.173   4.191   9.166
10687SOL    HW133900   1.182   4.202   9.071
10687SOL    HW233901   1.212   4.106   9.184
10688SOL     OW33902  10.866   2.881  12.234
10688SOL    HW133903  10.793   2.922  12.280
10688SOL    HW233904  10.902   2.818  12.296
10689SOL     OW33905  13.952   9.497   7.030
10689SOL    HW133906  14.029   9.552   7.041
10689SOL    HW233907  13.884   9.556   6.999
10690SOL     OW33908   5.190   4.733   0.898
10690SOL    HW133909   5.195   4.657   0.957
10690SOL    HW233910   5.109   4.718   0.848
10691SOL     OW33911   5.214   5.708  11.804
10691SOL    HW133912   5.152   5.779  11.787
10691SOL    HW233913   5.253   5.689  11.718
10692SOL     OW33914  14.089   2.780   2.133
10692SOL    HW133915  14.016   2.837   2.111
10692SOL    HW233916  14.108   2.732   2.052
10693SOL     OW33917  11.342   7.215   4.384
10693SOL    HW133918  11.396   7.288   4.352
10693SOL    HW233919  11.299   7.249   4.462
10694SOL     OW33920   0.049  12.090   8.739
10694SOL    HW133921  14.829  12.096   8.755
10694SOL    HW233922   0.086  12.059   8.822
10695SOL     OW33923   8.552  11.166  11.977
10695SOL    HW133924   8.539  11.072  11.987
10695SOL    HW233925   8.646  11.179  11.990
10696SOL     OW33926  12.975   8.261   7.427
10696SOL    HW133927  12.943   8.172   7.439
10696SOL    HW233928  13.018   8.260   7.341
10697SOL     OW33929  12.202   9.896   9.317
10697SOL    HW133930  12.120   9.895   9.367
10697SOL    HW233931  12.270   9.877   9.382
10698SOL     OW33932  11.580   7.161   6.314
10698SOL    HW133933  11.603   7.069   6.325
10698SOL    HW233934  11.660   7.209   6.337
10699SOL     OW33935  12.932   8.056   7.111
10699SOL    HW133936  12.867   8.049   7.181
10699SOL    HW233937  12.956   8.148   7.109
10700SOL     OW33938   1.497  13.036  14.822
10700SOL    HW133939   1.541  13.099  14.766
10700SOL    HW233940   1.474  12.964  14.762
10701SOL     OW33941  10.286   4.789   9.631
10701SOL    HW133942  10.340   4.857   9.592
10701SOL    HW233943  10.341   4.711   9.631
10702SOL     OW33944   9.098   9.203   8.682
10702SOL    HW133945   9.039   9.165   8.617
10702SOL    HW233946   9.084   9.150   8.761
10703SOL     OW33947  13.847   3.110   9.148
10703SOL    HW133948  13.884   3.186   9.102
10703SOL    HW233949  13.807   3.147   9.227
10704SOL     OW33950   5.105   5.352   4.330
10704SOL    HW133951   5.181   5.347   4.387
10704SOL    HW233952   5.140   5.382   4.246
10705SOL     OW33953   6.840   8.735   4.406
10705SOL    HW133954   6.914   8.727   4.346
10705SOL    HW233955   6.778   8.667   4.376
10706SOL     OW33956   2.005   8.204   6.331
10706SOL    HW133957   1.913   8.228   6.324
10706SOL    HW233958   2.038   8.257   6.403
10707SOL     OW33959   3.532   8.665   6.575
10707SOL    HW133960   3.538   8.665   6.480
10707SOL    HW233961   3.622   8.679   6.605
10708SOL     OW33962   6.757   1.659  11.647
10708SOL    HW133963   6.698   1.735  11.653
10708SOL    HW233964   6.816   1.670  11.722
10709SOL     OW33965   8.967   8.154   6.084
10709SOL    HW133966   8.890   8.172   6.137
10709SOL    HW233967   8.934   8.148   5.995
10710SOL     OW33968  12.319   3.437  12.873
10710SOL    HW133969  12.236   3.423  12.918
10710SOL    HW233970  12.315   3.381  12.796
10711SOL     OW33971   3.298   3.637  14.153
10711SOL    HW133972   3.324   3.717  14.199
10711SOL    HW233973   3.340   3.566  14.202
10712SOL     OW33974   5.743  11.489  14.611
10712SOL    HW133975   5.812  11.443  14.564
10712SOL    HW233976   5.755  11.464  14.702
10713SOL     OW33977  14.164  10.498   6.326
10713SOL    HW133978  14.190  10.431   6.263
10713SOL    HW233979  14.206  10.471   6.408
10714SOL     OW33980   6.267   8.165   1.693
10714SOL    HW133981   6.309   8.203   1.770
10714SOL    HW233982   6.282   8.071   1.703
10715SOL     OW33983   1.097   2.890  12.805
10715SOL    HW133984   1.085   2.806  12.761
10715SOL    HW233985   1.183   2.920  12.775
10716SOL     OW33986   6.075   0.506   6.299
10716SOL    HW133987   6.015   0.575   6.325
10716SOL    HW233988   6.161   0.547   6.301
10717SOL     OW33989   8.028   7.327   3.493
10717SOL    HW133990   8.064   7.247   3.456
10717SOL    HW233991   8.104   7.382   3.512
10718SOL     OW33992  11.400   6.346   1.879
10718SOL    HW133993  11.358   6.271   1.836
10718SOL    HW233994  11.489   6.316   1.898
10719SOL     OW33995  12.937   5.164   9.460
10719SOL    HW133996  12.969   5.115   9.385
10719SOL    HW233997  12.841   5.162   9.451
10720SOL     OW33998   7.970   5.738   3.003
10720SOL    HW133999   7.919   5.803   3.050
10720SOL    HW234000   7.964   5.659   3.058
10721SOL     OW34001  12.756  10.429   3.670
10721SOL    HW134002  12.721  10.437   3.581
10721SOL    HW234003  12.824  10.497   3.674
10722SOL     OW34004  12.763   2.993   5.774
10722SOL    HW134005  12.778   2.904   5.805
10722SOL    HW234006  12.843   3.016   5.726
10723SOL     OW34007   6.956  12.652   8.978
10723SOL    HW134008   6.907  12.570   8.984
10723SOL    HW234009   7.048  12.625   8.978
10724SOL     OW34010   8.841   0.578   8.067
10724SOL    HW134011   8.884   0.661   8.087
10724SOL    HW234012   8.908   0.527   8.020
10725SOL     OW34013   3.698   4.279  12.628
10725SOL    HW134014   3.785   4.263  12.664
10725SOL    HW234015   3.646   4.306  12.704
10726SOL     OW34016   8.133  13.429   6.437
10726SOL    HW134017   8.168  13.351   6.395
10726SOL    HW234018   8.070  13.464   6.374
10727SOL     OW34019  11.564   0.611   8.910
10727SOL    HW134020  11.615   0.628   8.831
10727SOL    HW234021  11.620   0.553   8.962
10728SOL     OW34022   5.888   1.110   0.585
10728SOL    HW134023   5.862   1.026   0.547
10728SOL    HW234024   5.849   1.175   0.527
10729SOL     OW34025   3.073   8.727   8.097
10729SOL    HW134026   3.165   8.732   8.070
10729SOL    HW234027   3.026   8.772   8.027
10730SOL     OW34028   9.054   6.219   1.625
10730SOL    HW134029   9.018   6.130   1.632
10730SOL    HW234030   9.126   6.220   1.688
10731SOL     OW34031  13.758   6.969   1.993
10731SOL    HW134032  13.671   6.964   2.031
10731SOL    HW234033  13.817   6.979   2.069
10732SOL     OW34034  12.701   0.120   4.472
10732SOL    HW134035  12.685   0.147   4.382
10732SOL    HW234036  12.618   0.080   4.500
10733SOL     OW34037   3.347   8.582   1.465
10733SOL    HW134038   3.304   8.652   1.514
10733SOL    HW234039   3.276   8.525   1.437
10734SOL     OW34040   8.839   6.004  10.522
10734SOL    HW134041   8.759   5.954  10.538
10734SOL    HW234042   8.829   6.084  10.574
10735SOL     OW34043   4.018   9.144   3.978
10735SOL    HW134044   3.956   9.090   4.027
10735SOL    HW234045   3.964   9.212   3.938
10736SOL     OW34046   4.056   5.692   6.578
10736SOL    HW134047   3.999   5.747   6.631
10736SOL    HW234048   4.002   5.617   6.554
10737SOL     OW34049   3.656   7.140  11.509
10737SOL    HW134050   3.703   7.098  11.581
10737SOL    HW234051   3.686   7.231  11.510
10738SOL     OW34052   4.240   3.840   0.963
10738SOL    HW134053   4.196   3.924   0.952
10738SOL    HW234054   4.328   3.854   0.928
10739SOL     OW34055   1.623   9.511  12.320
10739SOL    HW134056   1.553   9.467  12.272
10739SOL    HW234057   1.666   9.567  12.256
10740SOL     OW34058   1.841   5.259   6.937
10740SOL    HW134059   1.780   5.314   6.987
10740SOL    HW234060   1.817   5.169   6.962
10741SOL     OW34061   1.977   9.531   5.009
10741SOL    HW134062   1.908   9.471   5.040
10741SOL    HW234063   1.964   9.610   5.062
10742SOL     OW34064   7.977   2.444   0.802
10742SOL    HW134065   7.972   2.524   0.855
10742SOL    HW234066   8.070   2.434   0.784
10743SOL     OW34067   1.684   2.366   7.999
10743SOL    HW134068   1.692   2.330   8.087
10743SOL    HW234069   1.742   2.311   7.945
10744SOL     OW34070  10.268   8.894  11.954
10744SOL    HW134071  10.315   8.973  11.929
10744SOL    HW234072  10.179   8.907  11.920
10745SOL     OW34073  13.796   6.560   4.488
10745SOL    HW134074  13.854   6.536   4.416
10745SOL    HW234075  13.753   6.640   4.457
10746SOL     OW34076  10.459   1.660  13.199
10746SOL    HW134077  10.494   1.749  13.208
10746SOL    HW234078  10.452   1.646  13.105
10747SOL     OW34079   1.048   9.700   1.847
10747SOL    HW134080   1.110   9.722   1.778
10747SOL    HW234081   1.100   9.702   1.927
10748SOL     OW34082  14.762  11.267  11.318
10748SOL    HW134083  14.852  11.260  11.286
10748SOL    HW234084  14.759  11.351  11.363
10749SOL     OW34085  10.678   7.354   4.373
10749SOL    HW134086  10.583   7.366   4.375
10749SOL    HW234087  10.691   7.259   4.376
10750SOL     OW34088   3.023  10.104   7.957
10750SOL    HW134089   3.053  10.076   7.870
10750SOL    HW234090   3.061  10.040   8.017
10751SOL     OW34091   4.308   5.671   1.561
10751SOL    HW134092   4.256   5.656   1.481
10751SOL    HW234093   4.271   5.750   1.599
10752SOL     OW34094   5.787   3.948   2.844
10752SOL    HW134095   5.701   3.945   2.803
10752SOL    HW234096   5.824   4.031   2.816
10753SOL     OW34097   1.714   0.097   7.385
10753SOL    HW134098   1.642   0.054   7.340
10753SOL    HW234099   1.770   0.026   7.416
10754SOL     OW34100   1.492   6.931  10.639
10754SOL    HW134101   1.435   6.861  10.669
10754SOL    HW234102   1.553   6.889  10.579
10755SOL     OW34103   7.632   5.640   6.631
10755SOL    HW134104   7.677   5.676   6.555
10755SOL    HW234105   7.673   5.554   6.644
10756SOL     OW34106   6.900  11.841   7.774
10756SOL    HW134107   6.942  11.802   7.850
10756SOL    HW234108   6.817  11.874   7.807
10757SOL     OW34109   6.304   7.117  13.867
10757SOL    HW134110   6.270   7.170  13.795
10757SOL    HW234111   6.226   7.081  13.910
10758SOL     OW34112   3.083   0.276  14.679
10758SOL    HW134113   3.173   0.302  14.657
10758SOL    HW234114   3.028   0.326  14.618
10759SOL     OW34115   8.555   9.757   0.947
10759SOL    HW134116   8.477   9.812   0.934
10759SOL    HW234117   8.524   9.683   0.999
10760SOL     OW34118   5.059  13.926   2.004
10760SOL    HW134119   5.089  13.853   1.952
10760SOL    HW234120   5.138  13.961   2.045
10761SOL     OW34121   0.453  11.496  13.666
10761SOL    HW134122   0.361  11.478  13.684
10761SOL    HW234123   0.474  11.572  13.720
10762SOL     OW34124  11.190   7.064   7.505
10762SOL    HW134125  11.191   7.099   7.594
10762SOL    HW234126  11.245   7.124   7.456
10763SOL     OW34127   5.052   9.431   9.458
10763SOL    HW134128   5.024   9.457   9.370
10763SOL    HW234129   5.094   9.346   9.446
10764SOL     OW34130   9.594   4.359  11.412
10764SOL    HW134131   9.650   4.434  11.389
10764SOL    HW234132   9.650   4.303  11.465
10765SOL     OW34133   2.477  13.950   3.099
10765SOL    HW134134   2.548  13.956   3.035
10765SOL    HW234135   2.514  13.899   3.171
10766SOL     OW34136   1.307   4.831   7.971
10766SOL    HW134137   1.228   4.833   8.025
10766SOL    HW234138   1.314   4.920   7.936
10767SOL     OW34139   1.924   7.314  11.708
10767SOL    HW134140   1.852   7.335  11.768
10767SOL    HW234141   1.891   7.339  11.622
10768SOL     OW34142  12.516   3.913  10.141
10768SOL    HW134143  12.559   3.997  10.151
10768SOL    HW234144  12.586   3.853  10.115
10769SOL     OW34145  10.973  14.774  11.983
10769SOL    HW134146  10.899  14.816  11.940
10769SOL    HW234147  11.010  14.715  11.917
10770SOL     OW34148  11.207   6.953   2.266
10770SOL    HW134149  11.222   6.891   2.194
10770SOL    HW234150  11.180   6.898   2.339
10771SOL     OW34151  12.801   2.157   5.142
10771SOL    HW134152  12.847   2.146   5.059
10771SOL    HW234153  12.870   2.183   5.204
10772SOL     OW34154  11.928   3.555  12.690
10772SOL    HW134155  11.987   3.591  12.756
10772SOL    HW234156  11.986   3.508  12.629
10773SOL     OW34157   1.785  11.659   4.601
10773SOL    HW134158   1.722  11.631   4.668
10773SOL    HW234159   1.862  11.686   4.651
10774SOL     OW34160  10.782   3.613  11.233
10774SOL    HW134161  10.734   3.656  11.161
10774SOL    HW234162  10.716   3.558  11.275
10775SOL     OW34163  12.406   1.859  12.273
10775SOL    HW134164  12.348   1.809  12.331
10775SOL    HW234165  12.466   1.794  12.237
10776SOL     OW34166   2.595   9.756   1.991
10776SOL    HW134167   2.532   9.781   1.924
10776SOL    HW234168   2.667   9.715   1.942
10777SOL     OW34169  14.709   7.021   9.487
10777SOL    HW134170  14.760   6.959   9.540
10777SOL    HW234171  14.631   7.038   9.539
10778SOL     OW34172  12.832   2.146  13.789
10778SOL    HW134173  12.821   2.229  13.836
10778SOL    HW234174  12.834   2.080  13.858
10779SOL     OW34175  12.162   3.067   9.741
10779SOL    HW134176  12.071   3.042   9.752
10779SOL    HW234177  12.212   2.991   9.774
10780SOL     OW34178  14.602  11.416   9.212
10780SOL    HW134179  14.563  11.368   9.285
10780SOL    HW234180  14.674  11.466   9.252
10781SOL     OW34181   7.997   5.156   4.456
10781SOL    HW134182   8.012   5.195   4.542
10781SOL    HW234183   8.041   5.216   4.395
10782SOL     OW34184  14.033   2.839   3.250
10782SOL    HW134185  14.033   2.931   3.226
10782SOL    HW234186  13.975   2.797   3.187
10783SOL     OW34187   9.708   8.722   2.670
10783SOL    HW134188   9.791   8.744   2.712
10783SOL    HW234189   9.732   8.684   2.586
10784SOL     OW34190   2.332  10.683  14.286
10784SOL    HW134191   2.387  10.704  14.211
10784SOL    HW234192   2.372  10.606  14.325
10785SOL     OW34193  10.925   0.671  11.797
10785SOL    HW134194  11.006   0.704  11.758
10785SOL    HW234195  10.935   0.688  11.891
10786SOL     OW34196   9.283   1.726   3.608
10786SOL    HW134197   9.200   1.682   3.626
10786SOL    HW234198   9.262   1.791   3.541
10787SOL     OW34199  10.849   2.457  11.273
10787SOL    HW134200  10.785   2.386  11.284
10787SOL    HW234201  10.817   2.507  11.199
10788SOL     OW34202  11.300   6.719  14.252
10788SOL    HW134203  11.307   6.624  14.241
10788SOL    HW234204  11.299   6.732  14.346
10789SOL     OW34205   5.900   5.454   2.042
10789SOL    HW134206   5.805   5.459   2.039
10789SOL    HW234207   5.919   5.401   2.119
10790SOL     OW34208   5.723  10.655  14.303
10790SOL    HW134209   5.741  10.737  14.349
10790SOL    HW234210   5.632  10.634  14.325
10791SOL     OW34211   2.824   6.055   1.111
10791SOL    HW134212   2.763   6.009   1.168
10791SOL    HW234213   2.822   6.146   1.142
10792SOL     OW34214  12.230  12.008   7.696
10792SOL    HW134215  12.239  12.000   7.601
10792SOL    HW234216  12.186  11.927   7.723
10793SOL     OW34217  14.562  11.176   3.660
10793SOL    HW134218  14.542  11.148   3.571
10793SOL    HW234219  14.527  11.265   3.666
10794SOL     OW34220   1.292   9.105   4.768
10794SOL    HW134221   1.250   9.169   4.711
10794SOL    HW234222   1.383   9.135   4.774
10795SOL     OW34223   2.510  12.279  14.531
10795SOL    HW134224   2.580  12.246  14.587
10795SOL    HW234225   2.441  12.304  14.592
10796SOL     OW34226   1.319   5.407   0.952
10796SOL    HW134227   1.272   5.429   1.032
10796SOL    HW234228   1.320   5.489   0.902
10797SOL     OW34229   7.379   9.936  13.511
10797SOL    HW134230   7.418   9.851  13.532
10797SOL    HW234231   7.394   9.946  13.417
10798SOL     OW34232   3.479  11.569  13.122
10798SOL    HW134233   3.434  11.489  13.151
10798SOL    HW234234   3.553  11.577  13.182
10799SOL     OW34235  11.964   8.297   3.659
10799SOL    HW134236  11.871   8.306   3.683
10799SOL    HW234237  12.009   8.362   3.713
10800SOL     OW34238   4.058   1.561  12.359
10800SOL    HW134239   4.127   1.495  12.354
10800SOL    HW234240   4.081   1.625  12.292
10801SOL     OW34241   3.252   9.632  10.787
10801SOL    HW134242   3.171   9.653  10.833
10801SOL    HW234243   3.321   9.664  10.845
10802SOL     OW34244   1.860   8.305   5.768
10802SOL    HW134245   1.919   8.294   5.694
10802SOL    HW234246   1.915   8.288   5.845
10803SOL     OW34247   9.100   3.331   2.833
10803SOL    HW134248   9.007   3.323   2.852
10803SOL    HW234249   9.134   3.384   2.905
10804SOL     OW34250   1.651   0.106   1.221
10804SOL    HW134251   1.724   0.168   1.227
10804SOL    HW234252   1.602   0.135   1.144
10805SOL     OW34253   6.598   0.275   2.938
10805SOL    HW134254   6.612   0.189   2.978
10805SOL    HW234255   6.658   0.277   2.863
10806SOL     OW34256  13.206  13.317   1.517
10806SOL    HW134257  13.300  13.325   1.497
10806SOL    HW234258  13.200  13.237   1.569
10807SOL     OW34259   0.642   5.444   6.411
10807SOL    HW134260   0.689   5.455   6.494
10807SOL    HW234261   0.621   5.533   6.384
10808SOL     OW34262  12.753   1.127   7.175
10808SOL    HW134263  12.752   1.162   7.264
10808SOL    HW234264  12.666   1.088   7.163
10809SOL     OW34265  10.112   3.514   6.513
10809SOL    HW134266  10.045   3.572   6.476
10809SOL    HW234267  10.175   3.574   6.554
10810SOL     OW34268  13.721   3.490  13.668
10810SOL    HW134269  13.668   3.422  13.628
10810SOL    HW234270  13.663   3.567  13.672
10811SOL     OW34271   8.070   8.747   4.820
10811SOL    HW134272   8.012   8.741   4.744
10811SOL    HW234273   8.128   8.820   4.800
10812SOL     OW34274  13.611   9.714   0.252
10812SOL    HW134275  13.667   9.644   0.284
10812SOL    HW234276  13.522   9.683   0.269
10813SOL     OW34277  14.022   7.784  10.633
10813SOL    HW134278  14.033   7.876  10.608
10813SOL    HW234279  14.010   7.737  10.550
10814SOL     OW34280   2.226  10.313   9.869
10814SOL    HW134281   2.251  10.253   9.798
10814SOL    HW234282   2.181  10.385   9.825
10815SOL     OW34283   4.681   0.822  12.220
10815SOL    HW134284   4.664   0.891  12.156
10815SOL    HW234285   4.716   0.868  12.296
10816SOL     OW34286   8.112   2.489   6.658
10816SOL    HW134287   8.148   2.575   6.635
10816SOL    HW234288   8.107   2.442   6.575
10817SOL     OW34289  13.892   0.766   8.429
10817SOL    HW134290  13.938   0.683   8.438
10817SOL    HW234291  13.924   0.803   8.346
10818SOL     OW34292   3.018   2.402  11.748
10818SOL    HW134293   3.033   2.368  11.660
10818SOL    HW234294   3.103   2.393  11.791
10819SOL     OW34295   8.441  12.646   3.244
10819SOL    HW134296   8.395  12.576   3.199
10819SOL    HW234297   8.493  12.602   3.311
10820SOL     OW34298   6.752   1.901   7.988
10820SOL    HW134299   6.670   1.854   7.971
10820SOL    HW234300   6.757   1.966   7.918
10821SOL     OW34301   5.779   6.345  14.774
10821SOL    HW134302   5.787   6.253  14.797
10821SOL    HW234303   5.831   6.355  14.694
10822SOL     OW34304   4.720  14.416   7.973
10822SOL    HW134305   4.745  14.418   7.881
10822SOL    HW234306   4.634  14.373   7.974
10823SOL     OW34307  13.634  10.910   9.893
10823SOL    HW134308  13.641  10.859   9.813
10823SOL    HW234309  13.624  11.000   9.864
10824SOL     OW34310  12.218   7.742   0.845
10824SOL    HW134311  12.257   7.693   0.773
10824SOL    HW234312  12.187   7.675   0.905
10825SOL     OW34313   2.443   2.183   0.563
10825SOL    HW134314   2.408   2.195   0.475
10825SOL    HW234315   2.479   2.269   0.586
10826SOL     OW34316   1.937   2.412   3.710
10826SOL    HW134317   1.879   2.336   3.709
10826SOL    HW234318   1.886   2.482   3.671
10827SOL     OW34319  11.447   3.778   1.138
10827SOL    HW134320  11.535   3.774   1.176
10827SOL    HW234321  11.439   3.696   1.088
10828SOL     OW34322   3.340   0.769   8.685
10828SOL    HW134323   3.429   0.749   8.714
10828SOL    HW234324   3.292   0.789   8.766
10829SOL     OW34325  13.377  13.281  14.489
10829SOL    HW134326  13.380  13.373  14.515
10829SOL    HW234327  13.325  13.280  14.409
10830SOL     OW34328  12.345   6.772   2.473
10830SOL    HW134329  12.436   6.771   2.442
10830SOL    HW234330  12.350   6.816   2.558
10831SOL     OW34331   0.123  14.408   2.559
10831SOL    HW134332   0.064  14.472   2.520
10831SOL    HW234333   0.171  14.371   2.485
10832SOL     OW34334   5.589   0.453   4.137
10832SOL    HW134335   5.502   0.446   4.096
10832SOL    HW234336   5.580   0.405   4.219
10833SOL     OW34337  11.835  14.113   5.403
10833SOL    HW134338  11.918  14.102   5.358
10833SOL    HW234339  11.774  14.058   5.355
10834SOL     OW34340   2.415   1.023   9.056
10834SOL    HW134341   2.477   0.965   9.100
10834SOL    HW234342   2.463   1.058   8.981
10835SOL     OW34343   1.654  13.325  14.799
10835SOL    HW134344   1.653  13.411  14.758
10835SOL    HW234345   1.742  13.292  14.782
10836SOL     OW34346   2.959  14.149  14.436
10836SOL    HW134347   3.022  14.090  14.396
10836SOL    HW234348   3.007  14.231  14.450
10837SOL     OW34349   3.744   3.160   8.432
10837SOL    HW134350   3.799   3.083   8.443
10837SOL    HW234351   3.800   3.234   8.457
10838SOL     OW34352  12.532  10.358  14.083
10838SOL    HW134353  12.436  10.349  14.076
10838SOL    HW234354  12.565  10.323  14.001
10839SOL     OW34355  10.465   0.390   4.484
10839SOL    HW134356  10.469   0.447   4.408
10839SOL    HW234357  10.413   0.315   4.456
10840SOL     OW34358  13.687   0.650  11.629
10840SOL    HW134359  13.693   0.710  11.703
10840SOL    HW234360  13.760   0.675  11.572
10841SOL     OW34361   7.221   3.387   5.333
10841SOL    HW134362   7.249   3.465   5.285
10841SOL    HW234363   7.131   3.372   5.304
10842SOL     OW34364   2.088   5.837  10.362
10842SOL    HW134365   2.159   5.840  10.298
10842SOL    HW234366   2.009   5.854  10.310
10843SOL     OW34367   6.707   2.711   3.524
10843SOL    HW134368   6.753   2.653   3.585
10843SOL    HW234369   6.615   2.684   3.529
10844SOL     OW34370   7.669   2.474   8.232
10844SOL    HW134371   7.718   2.437   8.159
10844SOL    HW234372   7.736   2.506   8.293
10845SOL     OW34373   3.138   0.852   6.840
10845SOL    HW134374   3.096   0.863   6.755
10845SOL    HW234375   3.067   0.866   6.903
10846SOL     OW34376   3.466   4.137   6.715
10846SOL    HW134377   3.418   4.075   6.659
10846SOL    HW234378   3.400   4.199   6.745
10847SOL     OW34379   2.563   7.100   0.220
10847SOL    HW134380   2.595   7.095   0.310
10847SOL    HW234381   2.636   7.138   0.171
10848SOL     OW34382   9.352   1.403  14.083
10848SOL    HW134383   9.394   1.358  14.156
10848SOL    HW234384   9.420   1.409  14.016
10849SOL     OW34385   8.202  14.780   3.788
10849SOL    HW134386   8.107  14.778   3.787
10849SOL    HW234387   8.225  14.864   3.749
10850SOL     OW34388   0.311   0.884   5.473
10850SOL    HW134389   0.388   0.873   5.527
10850SOL    HW234390   0.238   0.854   5.528
10851SOL     OW34391   7.397   3.112   3.159
10851SOL    HW134392   7.444   3.030   3.172
10851SOL    HW234393   7.310   3.086   3.127
10852SOL     OW34394   1.874   7.816  10.650
10852SOL    HW134395   1.902   7.865  10.728
10852SOL    HW234396   1.779   7.825  10.648
10853SOL     OW34397   2.447   7.600  12.648
10853SOL    HW134398   2.444   7.645  12.732
10853SOL    HW234399   2.387   7.648  12.592
10854SOL     OW34400   7.073   8.187  12.987
10854SOL    HW134401   7.097   8.234  12.907
10854SOL    HW234402   7.115   8.235  13.057
10855SOL     OW34403   7.577  10.302   9.815
10855SOL    HW134404   7.553  10.394   9.829
10855SOL    HW234405   7.517  10.272   9.746
10856SOL     OW34406  13.492   1.920  10.058
10856SOL    HW134407  13.532   1.888  10.139
10856SOL    HW234408  13.538   2.001  10.039
10857SOL     OW34409   7.010   1.810   3.812
10857SOL    HW134410   7.013   1.895   3.767
10857SOL    HW234411   7.092   1.767   3.788
10858SOL     OW34412  13.400  14.063   5.926
10858SOL    HW134413  13.368  14.018   6.005
10858SOL    HW234414  13.495  14.053   5.930
10859SOL     OW34415   5.775   2.732   2.408
10859SOL    HW134416   5.857   2.766   2.447
10859SOL    HW234417   5.712   2.803   2.422
10860SOL     OW34418   7.669  14.192  12.313
10860SOL    HW134419   7.670  14.188  12.409
10860SOL    HW234420   7.728  14.265  12.292
10861SOL     OW34421  14.866  14.554   3.053
10861SOL    HW134422  14.786  14.524   3.097
10861SOL    HW234423  14.835  14.607   2.980
10862SOL     OW34424   4.884   7.822   6.716
10862SOL    HW134425   4.967   7.780   6.694
10862SOL    HW234426   4.902   7.871   6.796
10863SOL     OW34427  14.557   8.438   3.875
10863SOL    HW134428  14.471   8.409   3.843
10863SOL    HW234429  14.545   8.530   3.897
10864SOL     OW34430  11.907   7.092   4.750
10864SOL    HW134431  11.819   7.057   4.762
10864SOL    HW234432  11.956   7.060   4.825
10865SOL     OW34433   5.826   1.678   5.983
10865SOL    HW134434   5.768   1.692   6.057
10865SOL    HW234435   5.777   1.710   5.907
10866SOL     OW34436  12.011   9.665   9.717
10866SOL    HW134437  11.987   9.591   9.661
10866SOL    HW234438  11.927   9.696   9.752
10867SOL     OW34439   4.426   3.274   0.334
10867SOL    HW134440   4.434   3.289   0.240
10867SOL    HW234441   4.476   3.346   0.374
10868SOL     OW34442   5.677   1.083   4.284
10868SOL    HW134443   5.694   1.037   4.203
10868SOL    HW234444   5.668   1.175   4.258
10869SOL     OW34445  12.142   9.683   3.671
10869SOL    HW134446  12.126   9.771   3.636
10869SOL    HW234447  12.072   9.630   3.634
10870SOL     OW34448   3.941   2.603   7.091
10870SOL    HW134449   4.028   2.638   7.072
10870SOL    HW234450   3.883   2.678   7.084
10871SOL     OW34451   7.316  10.169  14.714
10871SOL    HW134452   7.409  10.150  14.698
10871SOL    HW234453   7.272  10.085  14.700
10872SOL     OW34454  14.538   0.723   5.793
10872SOL    HW134455  14.473   0.662   5.828
10872SOL    HW234456  14.564   0.776   5.868
10873SOL     OW34457  10.647   2.478   5.165
10873SOL    HW134458  10.669   2.571   5.172
10873SOL    HW234459  10.710   2.442   5.103
10874SOL     OW34460  11.530   3.989  12.560
10874SOL    HW134461  11.444   3.949  12.567
10874SOL    HW234462  11.585   3.941  12.623
10875SOL     OW34463   9.943   7.085   7.276
10875SOL    HW134464  10.019   7.144   7.273
10875SOL    HW234465   9.948   7.044   7.362
10876SOL     OW34466   0.161   3.482   6.969
10876SOL    HW134467   0.118   3.401   6.941
10876SOL    HW234468   0.198   3.518   6.888
10877SOL     OW34469  12.317   1.043   3.761
10877SOL    HW134470  12.378   0.994   3.705
10877SOL    HW234471  12.239   1.055   3.708
10878SOL     OW34472   0.040  13.671   5.162
10878SOL    HW134473   0.112  13.630   5.211
10878SOL    HW234474   0.071  13.674   5.072
10879SOL     OW34475   4.743   5.449  11.175
10879SOL    HW134476   4.719   5.540  11.159
10879SOL    HW234477   4.719   5.434  11.267
10880SOL     OW34478   1.108   4.726   6.453
10880SOL    HW134479   1.167   4.659   6.488
10880SOL    HW234480   1.031   4.677   6.424
10881SOL     OW34481   0.356  13.255   8.752
10881SOL    HW134482   0.283  13.310   8.724
10881SOL    HW234483   0.411  13.313   8.805
10882SOL     OW34484   6.463  14.645   4.624
10882SOL    HW134485   6.555  14.646   4.651
10882SOL    HW234486   6.458  14.577   4.557
10883SOL     OW34487   1.612  14.677   0.016
10883SOL    HW134488   1.697  14.720   0.023
10883SOL    HW234489   1.632  14.584   0.009
10884SOL     OW34490  13.109  14.505  11.796
10884SOL    HW134491  13.122  14.429  11.739
10884SOL    HW234492  13.194  14.548  11.799
10885SOL     OW34493   6.639   5.496  11.030
10885SOL    HW134494   6.680   5.582  11.018
10885SOL    HW234495   6.697   5.450  11.090
10886SOL     OW34496   4.687  14.699   6.099
10886SOL    HW134497   4.642  14.615   6.096
10886SOL    HW234498   4.723  14.710   6.011
10887SOL     OW34499   8.445   6.846   3.044
10887SOL    HW134500   8.413   6.929   3.079
10887SOL    HW234501   8.520   6.824   3.099
10888SOL     OW34502   5.811   9.755  13.843
10888SOL    HW134503   5.752   9.691  13.884
10888SOL    HW234504   5.753   9.819  13.803
10889SOL     OW34505  10.455   8.366   6.437
10889SOL    HW134506  10.370   8.322   6.442
10889SOL    HW234507  10.440   8.452   6.475
10890SOL     OW34508  12.419   5.123   8.862
10890SOL    HW134509  12.411   5.088   8.951
10890SOL    HW234510  12.482   5.194   8.869
10891SOL     OW34511   5.125   4.715  12.560
10891SOL    HW134512   5.092   4.800  12.591
10891SOL    HW234513   5.094   4.708  12.470
10892SOL     OW34514   6.691   1.724   9.655
10892SOL    HW134515   6.761   1.674   9.614
10892SOL    HW234516   6.611   1.677   9.631
10893SOL     OW34517   7.544   3.206   2.585
10893SOL    HW134518   7.602   3.262   2.534
10893SOL    HW234519   7.475   3.265   2.616
10894SOL     OW34520  12.197  13.024   5.525
10894SOL    HW134521  12.169  13.028   5.617
10894SOL    HW234522  12.116  13.038   5.475
10895SOL     OW34523  12.629   5.891   9.873
10895SOL    HW134524  12.684   5.916   9.798
10895SOL    HW234525  12.654   5.951   9.943
10896SOL     OW34526   7.114   7.398   0.725
10896SOL    HW134527   7.099   7.304   0.730
10896SOL    HW234528   7.160   7.419   0.807
10897SOL     OW34529   2.255  10.882  14.481
10897SOL    HW134530   2.279  10.897  14.573
10897SOL    HW234531   2.308  10.807  14.455
10898SOL     OW34532  12.560   7.779   3.810
10898SOL    HW134533  12.647   7.804   3.841
10898SOL    HW234534  12.576   7.739   3.725
10899SOL     OW34535   8.091   4.934   7.024
10899SOL    HW134536   8.021   4.987   6.985
10899SOL    HW234537   8.165   4.995   7.033
10900SOL     OW34538   1.587   3.649   5.277
10900SOL    HW134539   1.637   3.571   5.302
10900SOL    HW234540   1.496   3.623   5.289
10901SOL     OW34541  11.806  10.025   8.445
10901SOL    HW134542  11.836   9.934   8.450
10901SOL    HW234543  11.879  10.072   8.405
10902SOL     OW34544  10.895   8.210   5.508
10902SOL    HW134545  10.872   8.178   5.595
10902SOL    HW234546  10.811   8.215   5.462
10903SOL     OW34547  10.112   2.029   3.784
10903SOL    HW134548  10.095   2.044   3.877
10903SOL    HW234549  10.132   1.935   3.778
10904SOL     OW34550  13.942   6.352  13.124
10904SOL    HW134551  13.878   6.366  13.054
10904SOL    HW234552  13.899   6.291  13.184
10905SOL     OW34553  14.752   4.146   6.146
10905SOL    HW134554  14.658   4.156   6.132
10905SOL    HW234555  14.791   4.216   6.095
10906SOL     OW34556  14.049   6.951   2.170
10906SOL    HW134557  14.017   7.022   2.224
10906SOL    HW234558  14.084   6.887   2.232
10907SOL     OW34559   2.039  14.504  12.027
10907SOL    HW134560   2.043  14.441  11.955
10907SOL    HW234561   1.977  14.571  11.997
10908SOL     OW34562   8.850   7.176   9.700
10908SOL    HW134563   8.912   7.244   9.674
10908SOL    HW234564   8.867   7.103   9.640
10909SOL     OW34565   6.710   4.555  11.018
10909SOL    HW134566   6.617   4.577  11.010
10909SOL    HW234567   6.755   4.639  11.009
10910SOL     OW34568  11.582  12.105   1.922
10910SOL    HW134569  11.510  12.167   1.910
10910SOL    HW234570  11.556  12.053   1.998
10911SOL     OW34571   0.003   4.755  11.189
10911SOL    HW134572  14.870   4.808  11.110
10911SOL    HW234573  14.807   4.788  11.246
10912SOL     OW34574   3.913   2.066  11.986
10912SOL    HW134575   3.885   2.062  11.895
10912SOL    HW234576   3.834   2.090  12.034
10913SOL     OW34577   4.381   0.545   5.578
10913SOL    HW134578   4.379   0.617   5.641
10913SOL    HW234579   4.360   0.467   5.629
10914SOL     OW34580   3.810  13.791  14.232
10914SOL    HW134581   3.730  13.841  14.247
10914SOL    HW234582   3.791  13.736  14.156
10915SOL     OW34583  13.584   7.061   7.522
10915SOL    HW134584  13.574   7.069   7.617
10915SOL    HW234585  13.632   7.140   7.496
10916SOL     OW34586   4.986   4.178   3.385
10916SOL    HW134587   5.047   4.150   3.452
10916SOL    HW234588   4.931   4.101   3.369
10917SOL     OW34589  14.615   9.940   9.397
10917SOL    HW134590  14.595   9.848   9.378
10917SOL    HW234591  14.711   9.943   9.399
10918SOL     OW34592  10.991   8.101   4.013
10918SOL    HW134593  11.018   8.072   3.926
10918SOL    HW234594  11.045   8.178   4.030
10919SOL     OW34595   6.793  10.090  10.086
10919SOL    HW134596   6.792  10.142  10.006
10919SOL    HW234597   6.871  10.036  10.079
10920SOL     OW34598   0.730   0.862   2.767
10920SOL    HW134599   0.725   0.886   2.860
10920SOL    HW234600   0.786   0.929   2.728
10921SOL     OW34601  14.362   6.439   9.440
10921SOL    HW134602  14.362   6.390   9.358
10921SOL    HW234603  14.330   6.526   9.415
10922SOL     OW34604   2.413  11.748  12.824
10922SOL    HW134605   2.497  11.792  12.813
10922SOL    HW234606   2.405  11.734  12.918
10923SOL     OW34607   5.207   3.123   1.479
10923SOL    HW134608   5.300   3.140   1.463
10923SOL    HW234609   5.191   3.037   1.441
10924SOL     OW34610  14.773  13.781  11.738
10924SOL    HW134611  14.712  13.708  11.731
10924SOL    HW234612  14.719  13.856  11.762
10925SOL     OW34613  13.481   3.656   6.074
10925SOL    HW134614  13.458   3.564   6.066
10925SOL    HW234615  13.459   3.694   5.989
10926SOL     OW34616  10.740   5.318   9.155
10926SOL    HW134617  10.660   5.367   9.175
10926SOL    HW234618  10.811   5.377   9.180
10927SOL     OW34619   0.195  11.140   7.914
10927SOL    HW134620   0.257  11.072   7.888
10927SOL    HW234621   0.221  11.217   7.863
10928SOL     OW34622   5.816   5.899   4.627
10928SOL    HW134623   5.777   5.943   4.552
10928SOL    HW234624   5.833   5.810   4.597
10929SOL     OW34625   1.042   4.406  14.053
10929SOL    HW134626   0.980   4.456  13.999
10929SOL    HW234627   1.019   4.314  14.037
10930SOL     OW34628   4.572  13.256  14.822
10930SOL    HW134629   4.599  13.228   0.036
10930SOL    HW234630   4.555  13.350  14.832
10931SOL     OW34631   3.805   6.493  11.570
10931SOL    HW134632   3.873   6.453  11.624
10931SOL    HW234633   3.770   6.420  11.518
10932SOL     OW34634  12.698   6.316  13.415
10932SOL    HW134635  12.614   6.322  13.370
10932SOL    HW234636  12.704   6.397  13.465
10933SOL     OW34637   1.792   2.271   2.109
10933SOL    HW134638   1.699   2.267   2.087
10933SOL    HW234639   1.822   2.353   2.071
10934SOL     OW34640   2.796  14.240  11.539
10934SOL    HW134641   2.782  14.258  11.447
10934SOL    HW234642   2.804  14.326  11.581
10935SOL     OW34643   8.542   8.865  10.014
10935SOL    HW134644   8.461   8.870   9.962
10935SOL    HW234645   8.526   8.793  10.075
10936SOL     OW34646   7.053  10.594  12.380
10936SOL    HW134647   7.014  10.615  12.294
10936SOL    HW234648   7.030  10.670  12.435
10937SOL     OW34649  11.286  14.065   7.767
10937SOL    HW134650  11.379  14.070   7.788
10937SOL    HW234651  11.245  14.128   7.826
10938SOL     OW34652   7.907   0.644   6.248
10938SOL    HW134653   7.895   0.739   6.250
10938SOL    HW234654   7.819   0.608   6.248
10939SOL     OW34655   4.724   1.340   4.501
10939SOL    HW134656   4.690   1.364   4.415
10939SOL    HW234657   4.797   1.400   4.516
10940SOL     OW34658   6.518   5.011   7.863
10940SOL    HW134659   6.446   5.064   7.898
10940SOL    HW234660   6.543   5.056   7.782
10941SOL     OW34661   8.707  11.193  11.603
10941SOL    HW134662   8.790  11.242  11.599
10941SOL    HW234663   8.724  11.114  11.552
10942SOL     OW34664   7.920   6.063   7.255
10942SOL    HW134665   7.894   6.113   7.177
10942SOL    HW234666   8.015   6.064   7.253
10943SOL     OW34667  11.133   4.689  10.879
10943SOL    HW134668  11.164   4.771  10.918
10943SOL    HW234669  11.191   4.622  10.915
10944SOL     OW34670  14.372   3.748   8.092
10944SOL    HW134671  14.382   3.659   8.125
10944SOL    HW234672  14.282   3.772   8.116
10945SOL     OW34673   1.722  14.425   5.340
10945SOL    HW134674   1.731  14.488   5.269
10945SOL    HW234675   1.738  14.476   5.419
10946SOL     OW34676  11.170   7.426   7.912
10946SOL    HW134677  11.245   7.417   7.854
10946SOL    HW234678  11.203   7.473   7.988
10947SOL     OW34679  13.522   1.854   5.666
10947SOL    HW134680  13.547   1.846   5.574
10947SOL    HW234681  13.446   1.912   5.665
10948SOL     OW34682   9.867   5.322   0.974
10948SOL    HW134683   9.929   5.369   0.919
10948SOL    HW234684   9.844   5.383   1.043
10949SOL     OW34685   5.990   3.185   0.166
10949SOL    HW134686   5.954   3.131   0.237
10949SOL    HW234687   5.934   3.263   0.164
10950SOL     OW34688  14.099  11.162  12.055
10950SOL    HW134689  14.155  11.099  12.010
10950SOL    HW234690  14.042  11.197  11.986
10951SOL     OW34691   2.272  11.676   0.203
10951SOL    HW134692   2.288  11.762   0.242
10951SOL    HW234693   2.284  11.614   0.275
10952SOL     OW34694   6.264  10.497   1.448
10952SOL    HW134695   6.169  10.486   1.453
10952SOL    HW234696   6.277  10.547   1.367
10953SOL     OW34697   7.035   4.744   1.636
10953SOL    HW134698   7.089   4.686   1.583
10953SOL    HW234699   7.087   4.762   1.714
10954SOL     OW34700   6.850   2.347   6.224
10954SOL    HW134701   6.889   2.432   6.244
10954SOL    HW234702   6.775   2.367   6.169
10955SOL     OW34703  10.941   8.376   1.480
10955SOL    HW134704  10.903   8.427   1.551
10955SOL    HW234705  11.001   8.314   1.523
10956SOL     OW34706   3.938   8.319   3.293
10956SOL    HW134707   3.922   8.386   3.361
10956SOL    HW234708   4.007   8.356   3.239
10957SOL     OW34709   1.665   8.275   4.473
10957SOL    HW134710   1.631   8.364   4.462
10957SOL    HW234711   1.600   8.218   4.432
10958SOL     OW34712   5.549   8.559   2.063
10958SOL    HW134713   5.530   8.466   2.080
10958SOL    HW234714   5.479   8.587   2.005
10959SOL     OW34715   7.231   4.578   0.864
10959SOL    HW134716   7.154   4.632   0.846
10959SOL    HW234717   7.300   4.641   0.883
10960SOL     OW34718   6.577   9.796  12.129
10960SOL    HW134719   6.510   9.844  12.080
10960SOL    HW234720   6.616   9.862  12.187
10961SOL     OW34721  12.602  11.197   1.189
10961SOL    HW134722  12.534  11.241   1.138
10961SOL    HW234723  12.683  11.218   1.143
10962SOL     OW34724  12.482   6.648   5.698
10962SOL    HW134725  12.473   6.559   5.732
10962SOL    HW234726  12.430   6.702   5.758
10963SOL     OW34727  13.039   2.778   6.725
10963SOL    HW134728  13.059   2.828   6.646
10963SOL    HW234729  12.953   2.739   6.708
10964SOL     OW34730   7.153   0.734   3.928
10964SOL    HW134731   7.207   0.793   3.981
10964SOL    HW234732   7.132   0.784   3.850
10965SOL     OW34733   8.788   8.821  12.116
10965SOL    HW134734   8.738   8.870  12.181
10965SOL    HW234735   8.868   8.794  12.161
10966SOL     OW34736  13.100   8.004  14.639
10966SOL    HW134737  13.009   7.980  14.624
10966SOL    HW234738  13.107   8.011  14.735
10967SOL     OW34739  10.233  13.766  10.596
10967SOL    HW134740  10.231  13.800  10.507
10967SOL    HW234741  10.292  13.825  10.643
10968SOL     OW34742   8.470  11.307   2.135
10968SOL    HW134743   8.554  11.282   2.173
10968SOL    HW234744   8.490  11.387   2.085
10969SOL     OW34745   6.647  11.318   1.782
10969SOL    HW134746   6.686  11.340   1.866
10969SOL    HW234747   6.666  11.225   1.770
10970SOL     OW34748   3.739   1.468  13.824
10970SOL    HW134749   3.656   1.452  13.780
10970SOL    HW234750   3.730   1.557  13.860
10971SOL     OW34751  12.037   2.125  10.991
10971SOL    HW134752  12.102   2.165  11.049
10971SOL    HW234753  11.992   2.061  11.047
10972SOL     OW34754   8.219  13.109   5.022
10972SOL    HW134755   8.166  13.061   4.959
10972SOL    HW234756   8.241  13.044   5.089
10973SOL     OW34757   1.160  12.356   9.087
10973SOL    HW134758   1.246  12.315   9.085
10973SOL    HW234759   1.169  12.428   9.150
10974SOL     OW34760   8.719  11.384  12.132
10974SOL    HW134761   8.784  11.321  12.164
10974SOL    HW234762   8.738  11.464  12.180
10975SOL     OW34763  10.173   9.764  10.386
10975SOL    HW134764  10.246   9.803  10.435
10975SOL    HW234765  10.098   9.820  10.408
10976SOL     OW34766  13.449  12.097  12.389
10976SOL    HW134767  13.436  12.068  12.299
10976SOL    HW234768  13.361  12.102  12.426
10977SOL     OW34769  10.693   4.555   6.681
10977SOL    HW134770  10.638   4.599   6.616
10977SOL    HW234771  10.708   4.468   6.644
10978SOL     OW34772  14.519   7.987  11.566
10978SOL    HW134773  14.437   8.034  11.548
10978SOL    HW234774  14.527   7.990  11.661
10979SOL     OW34775   4.097  13.929  12.905
10979SOL    HW134776   4.095  13.882  12.822
10979SOL    HW234777   4.114  13.861  12.971
10980SOL     OW34778   7.593   2.365   7.593
10980SOL    HW134779   7.553   2.429   7.652
10980SOL    HW234780   7.687   2.380   7.602
10981SOL     OW34781  10.118   6.454   9.390
10981SOL    HW134782  10.191   6.440   9.451
10981SOL    HW234783  10.135   6.541   9.353
10982SOL     OW34784   8.455  13.180   6.561
10982SOL    HW134785   8.427  13.146   6.646
10982SOL    HW234786   8.537  13.134   6.543
10983SOL     OW34787   4.465   1.699   5.446
10983SOL    HW134788   4.512   1.707   5.529
10983SOL    HW234789   4.511   1.630   5.399
10984SOL     OW34790   4.197   6.192   6.570
10984SOL    HW134791   4.154   6.257   6.626
10984SOL    HW234792   4.127   6.156   6.516
10985SOL     OW34793   1.681  12.059  11.161
10985SOL    HW134794   1.644  12.130  11.213
10985SOL    HW234795   1.775  12.078  11.156
10986SOL     OW34796   7.734   1.360   0.428
10986SOL    HW134797   7.792   1.413   0.372
10986SOL    HW234798   7.740   1.272   0.391
10987SOL     OW34799  14.245   5.853   7.161
10987SOL    HW134800  14.190   5.833   7.237
10987SOL    HW234801  14.331   5.817   7.183
10988SOL     OW34802   3.122   4.034   1.511
10988SOL    HW134803   3.130   3.939   1.507
10988SOL    HW234804   3.028   4.051   1.509
10989SOL     OW34805  14.400   4.371   4.061
10989SOL    HW134806  14.385   4.465   4.069
10989SOL    HW234807  14.330   4.331   4.112
10990SOL     OW34808   0.485   6.392   5.966
10990SOL    HW134809   0.474   6.342   5.886
10990SOL    HW234810   0.554   6.347   6.014
10991SOL     OW34811   3.649   6.489   7.483
10991SOL    HW134812   3.691   6.565   7.524
10991SOL    HW234813   3.679   6.415   7.535
10992SOL     OW34814   5.234   9.835  11.126
10992SOL    HW134815   5.301   9.767  11.119
10992SOL    HW234816   5.196   9.822  11.213
10993SOL     OW34817   1.482   3.424   8.820
10993SOL    HW134818   1.388   3.418   8.808
10993SOL    HW234819   1.504   3.349   8.876
10994SOL     OW34820  12.783   3.185  11.879
10994SOL    HW134821  12.772   3.195  11.784
10994SOL    HW234822  12.876   3.202  11.894
10995SOL     OW34823  10.008  14.078  13.623
10995SOL    HW134824   9.988  14.014  13.555
10995SOL    HW234825   9.922  14.098  13.662
10996SOL     OW34826   0.942   7.170   9.743
10996SOL    HW134827   1.022   7.118   9.737
10996SOL    HW234828   0.921   7.172   9.837
10997SOL     OW34829  13.610  13.968  14.417
10997SOL    HW134830  13.554  14.010  14.353
10997SOL    HW234831  13.696  13.966  14.376
10998SOL     OW34832   5.181   0.991   8.486
10998SOL    HW134833   5.172   0.983   8.391
10998SOL    HW234834   5.235   1.069   8.499
10999SOL     OW34835   7.546   9.394  11.858
10999SOL    HW134836   7.488   9.334  11.905
10999SOL    HW234837   7.498   9.415  11.777
11000SOL     OW34838   3.704  14.549  12.171
11000SOL    HW134839   3.618  14.530  12.209
11000SOL    HW234840   3.753  14.591  12.242
11001SOL     OW34841  11.188   1.835   0.535
11001SOL    HW134842  11.093   1.835   0.542
11001SOL    HW234843  11.219   1.825   0.625
11002SOL     OW34844  10.536  10.079  12.920
11002SOL    HW134845  10.485  10.155  12.947
11002SOL    HW234846  10.580  10.051  13.000
11003SOL     OW34847  12.378   1.170   3.360
11003SOL    HW134848  12.427   1.184   3.440
11003SOL    HW234849  12.410   1.087   3.325
11004SOL     OW34850  10.748   4.808   3.069
11004SOL    HW134851  10.745   4.887   3.123
11004SOL    HW234852  10.787   4.837   2.987
11005SOL     OW34853   3.263   4.376   9.743
11005SOL    HW134854   3.234   4.321   9.671
11005SOL    HW234855   3.225   4.462   9.725
11006SOL     OW34856   7.324   5.184   0.356
11006SOL    HW134857   7.335   5.269   0.397
11006SOL    HW234858   7.293   5.204   0.268
11007SOL     OW34859   6.922  14.789  12.444
11007SOL    HW134860   7.017  14.798  12.449
11007SOL    HW234861   6.888  14.858  12.502
11008SOL     OW34862   8.179   4.345   3.225
11008SOL    HW134863   8.232   4.419   3.253
11008SOL    HW234864   8.197   4.276   3.290
11009SOL     OW34865   5.272   7.478  10.642
11009SOL    HW134866   5.278   7.525  10.559
11009SOL    HW234867   5.348   7.509  10.692
11010SOL     OW34868   7.278  10.909  14.778
11010SOL    HW134869   7.372  10.907  14.796
11010SOL    HW234870   7.237  10.894  14.863
11011SOL     OW34871   3.215  11.963   3.630
11011SOL    HW134872   3.299  11.922   3.609
11011SOL    HW234873   3.151  11.892   3.624
11012SOL     OW34874   5.516   9.679   9.089
11012SOL    HW134875   5.510   9.750   9.153
11012SOL    HW234876   5.569   9.715   9.018
11013SOL     OW34877  12.946  11.662  10.853
11013SOL    HW134878  12.886  11.641  10.781
11013SOL    HW234879  12.893  11.713  10.914
11014SOL     OW34880   7.399   1.288  10.988
11014SOL    HW134881   7.372   1.318  11.074
11014SOL    HW234882   7.402   1.193  10.996
11015SOL     OW34883   4.135  11.327   1.925
11015SOL    HW134884   4.188  11.275   1.984
11015SOL    HW234885   4.193  11.350   1.852
11016SOL     OW34886   9.463   9.603  11.745
11016SOL    HW134887   9.455   9.698  11.750
11016SOL    HW234888   9.373   9.571  11.750
11017SOL     OW34889  14.178   1.158   4.181
11017SOL    HW134890  14.139   1.096   4.242
11017SOL    HW234891  14.147   1.244   4.210
11018SOL     OW34892   6.110   1.313   1.011
11018SOL    HW134893   6.177   1.380   1.022
11018SOL    HW234894   6.125   1.277   0.924
11019SOL     OW34895   3.255   4.182   9.508
11019SOL    HW134896   3.245   4.096   9.550
11019SOL    HW234897   3.303   4.164   9.427
11020SOL     OW34898  11.854   9.315  11.252
11020SOL    HW134899  11.803   9.271  11.184
11020SOL    HW234900  11.792   9.331  11.323
11021SOL     OW34901   1.651  11.188   8.581
11021SOL    HW134902   1.595  11.259   8.548
11021SOL    HW234903   1.731  11.196   8.530
11022SOL     OW34904   4.523  13.595   2.507
11022SOL    HW134905   4.528  13.525   2.442
11022SOL    HW234906   4.430  13.601   2.528
11023SOL     OW34907  13.551  11.691   8.680
11023SOL    HW134908  13.564  11.683   8.586
11023SOL    HW234909  13.580  11.607   8.715
11024SOL     OW34910   0.051  13.128   6.479
11024SOL    HW134911   0.131  13.142   6.530
11024SOL    HW234912   0.079  13.073   6.406
11025SOL     OW34913   1.281  13.930   6.864
11025SOL    HW134914   1.266  13.979   6.783
11025SOL    HW234915   1.200  13.941   6.914
11026SOL     OW34916   9.966   9.312   2.990
11026SOL    HW134917   9.957   9.246   2.921
11026SOL    HW234918  10.024   9.378   2.953
11027SOL     OW34919   0.081   2.437   8.234
11027SOL    HW134920  14.865   2.450   8.264
11027SOL    HW234921   0.074   2.372   8.163
11028SOL     OW34922   5.857   1.821  11.792
11028SOL    HW134923   5.832   1.913  11.802
11028SOL    HW234924   5.783   1.782  11.745
11029SOL     OW34925   5.063  13.561  12.711
11029SOL    HW134926   5.055  13.505  12.788
11029SOL    HW234927   5.157  13.567  12.696
11030SOL     OW34928  10.449   2.351   8.179
11030SOL    HW134929  10.356   2.342   8.157
11030SOL    HW234930  10.493   2.344   8.094
11031SOL     OW34931   3.114  14.355   4.086
11031SOL    HW134932   3.088  14.285   4.026
11031SOL    HW234933   3.196  14.326   4.124
11032SOL     OW34934   6.121   9.107   7.875
11032SOL    HW134935   6.164   9.160   7.808
11032SOL    HW234936   6.144   9.148   7.958
11033SOL     OW34937   7.821  13.606   8.633
11033SOL    HW134938   7.742  13.589   8.685
11033SOL    HW234939   7.822  13.701   8.623
11034SOL     OW34940   1.067  13.061   4.008
11034SOL    HW134941   1.069  13.138   4.066
11034SOL    HW234942   1.158  13.034   4.002
11035SOL     OW34943  12.114   1.720   3.566
11035SOL    HW134944  12.165   1.647   3.531
11035SOL    HW234945  12.147   1.797   3.520
11036SOL     OW34946   8.937   9.112   4.663
11036SOL    HW134947   8.852   9.101   4.707
11036SOL    HW234948   8.950   9.029   4.617
11037SOL     OW34949   6.350   3.889   5.308
11037SOL    HW134950   6.305   3.963   5.348
11037SOL    HW234951   6.318   3.888   5.218
11038SOL     OW34952   3.798   8.815   0.142
11038SOL    HW134953   3.761   8.903   0.128
11038SOL    HW234954   3.771   8.792   0.230
11039SOL     OW34955   4.115  10.097   3.626
11039SOL    HW134956   4.143  10.074   3.537
11039SOL    HW234957   4.020  10.103   3.620
11040SOL     OW34958  13.147  11.143   7.383
11040SOL    HW134959  13.122  11.195   7.460
11040SOL    HW234960  13.066  11.132   7.334
11041SOL     OW34961  14.463   1.258   5.053
11041SOL    HW134962  14.458   1.245   5.148
11041SOL    HW234963  14.557   1.267   5.036
11042SOL     OW34964   0.251   8.817   7.294
11042SOL    HW134965   0.336   8.795   7.256
11042SOL    HW234966   0.272   8.862   7.376
11043SOL     OW34967   4.257  11.998   7.510
11043SOL    HW134968   4.178  12.035   7.550
11043SOL    HW234969   4.264  11.911   7.549
11044SOL     OW34970  13.632  14.402   2.666
11044SOL    HW134971  13.661  14.323   2.712
11044SOL    HW234972  13.689  14.407   2.589
11045SOL     OW34973   3.249   7.067   3.356
11045SOL    HW134974   3.290   7.063   3.270
11045SOL    HW234975   3.155   7.064   3.338
11046SOL     OW34976   5.863  11.062  12.934
11046SOL    HW134977   5.835  11.070  13.025
11046SOL    HW234978   5.945  11.111  12.930
11047SOL     OW34979   5.102   7.246   0.960
11047SOL    HW134980   5.041   7.312   0.928
11047SOL    HW234981   5.052   7.165   0.960
11048SOL     OW34982   9.658   9.649  12.115
11048SOL    HW134983   9.708   9.725  12.085
11048SOL    HW234984   9.719   9.576  12.108
11049SOL     OW34985   2.545   4.449   8.309
11049SOL    HW134986   2.627   4.453   8.260
11049SOL    HW234987   2.478   4.476   8.246
11050SOL     OW34988  11.138   6.972  10.467
11050SOL    HW134989  11.131   6.879  10.448
11050SOL    HW234990  11.056   6.994  10.511
11051SOL     OW34991   2.061   9.340   0.793
11051SOL    HW134992   2.022   9.349   0.706
11051SOL    HW234993   2.044   9.249   0.818
11052SOL     OW34994   2.820   0.844   0.048
11052SOL    HW134995   2.755   0.773   0.045
11052SOL    HW234996   2.898   0.806   0.006
11053SOL     OW34997   5.066  12.557   5.382
11053SOL    HW134998   5.019  12.594   5.307
11053SOL    HW234999   5.159  12.566   5.359
11054SOL     OW35000  10.852  14.740   1.127
11054SOL    HW135001  10.866  14.835   1.118
11054SOL    HW235002  10.846  14.708   1.036
11055SOL     OW35003   3.803   3.368  10.443
11055SOL    HW135004   3.752   3.342  10.366
11055SOL    HW235005   3.794   3.464  10.445
11056SOL     OW35006  11.070   7.242   1.973
11056SOL    HW135007  11.144   7.238   2.033
11056SOL    HW235008  11.109   7.237   1.886
11057SOL     OW35009   6.919   5.822   8.494
11057SOL    HW135010   6.980   5.895   8.505
11057SOL    HW235011   6.897   5.822   8.401
11058SOL     OW35012  14.725   2.526   7.304
11058SOL    HW135013  14.654   2.578   7.267
11058SOL    HW235014  14.765   2.584   7.369
11059SOL     OW35015   7.746   4.148   6.878
11059SOL    HW135016   7.817   4.127   6.817
11059SOL    HW235017   7.666   4.131   6.829
11060SOL     OW35018   9.353   9.792  14.291
11060SOL    HW135019   9.290   9.861  14.310
11060SOL    HW235020   9.414   9.832  14.228
11061SOL     OW35021   1.583   9.257   7.540
11061SOL    HW135022   1.512   9.251   7.477
11061SOL    HW235023   1.573   9.344   7.579
11062SOL     OW35024   9.871  14.727   4.253
11062SOL    HW135025   9.884  14.801   4.193
11062SOL    HW235026   9.888  14.764   4.340
11063SOL     OW35027  12.521   5.474  10.719
11063SOL    HW135028  12.511   5.468  10.814
11063SOL    HW235029  12.604   5.521  10.706
11064SOL     OW35030  10.719   9.027   8.829
11064SOL    HW135031  10.681   8.946   8.863
11064SOL    HW235032  10.735   9.080   8.907
11065SOL     OW35033  12.808   9.680  10.458
11065SOL    HW135034  12.741   9.713  10.518
11065SOL    HW235035  12.818   9.587  10.481
11066SOL     OW35036   3.727  10.189   7.190
11066SOL    HW135037   3.778  10.156   7.265
11066SOL    HW235038   3.788  10.184   7.116
11067SOL     OW35039  13.356   2.477   5.853
11067SOL    HW135040  13.296   2.453   5.782
11067SOL    HW235041  13.441   2.442   5.826
11068SOL     OW35042   7.527   2.192   4.249
11068SOL    HW135043   7.465   2.155   4.311
11068SOL    HW235044   7.515   2.140   4.169
11069SOL     OW35045   4.025   7.285   9.196
11069SOL    HW135046   3.956   7.346   9.222
11069SOL    HW235047   4.095   7.300   9.260
11070SOL     OW35048   5.364   3.799   5.046
11070SOL    HW135049   5.441   3.777   4.993
11070SOL    HW235050   5.314   3.717   5.049
11071SOL     OW35051   7.699  11.052   6.172
11071SOL    HW135052   7.694  11.145   6.193
11071SOL    HW235053   7.792  11.037   6.154
11072SOL     OW35054  14.556   7.713  12.733
11072SOL    HW135055  14.464   7.726  12.753
11072SOL    HW235056  14.601   7.784  12.779
11073SOL     OW35057  10.456   8.799  12.469
11073SOL    HW135058  10.361   8.785  12.465
11073SOL    HW235059  10.487   8.769  12.383
11074SOL     OW35060   0.889   6.675   3.447
11074SOL    HW135061   0.808   6.640   3.410
11074SOL    HW235062   0.933   6.599   3.486
11075SOL     OW35063   1.540   9.752   1.235
11075SOL    HW135064   1.491   9.816   1.184
11075SOL    HW235065   1.632   9.767   1.213
11076SOL     OW35066   3.741   0.889   8.437
11076SOL    HW135067   3.670   0.953   8.438
11076SOL    HW235068   3.728   0.840   8.356
11077SOL     OW35069   4.047   9.335  14.345
11077SOL    HW135070   4.024   9.284  14.266
11077SOL    HW235071   4.036   9.426  14.319
11078SOL     OW35072   8.149  12.381  14.278
11078SOL    HW135073   8.088  12.330  14.225
11078SOL    HW235074   8.180  12.321  14.345
11079SOL     OW35075  13.940   8.076   0.925
11079SOL    HW135076  13.951   7.980   0.925
11079SOL    HW235077  13.852   8.090   0.959
11080SOL     OW35078   2.396  13.011   0.429
11080SOL    HW135079   2.335  12.943   0.459
11080SOL    HW235080   2.339  13.083   0.401
11081SOL     OW35081  11.855   7.580   8.739
11081SOL    HW135082  11.826   7.624   8.820
11081SOL    HW235083  11.882   7.652   8.682
11082SOL     OW35084   3.516   7.933   9.292
11082SOL    HW135085   3.436   7.931   9.345
11082SOL    HW235086   3.485   7.952   9.204
11083SOL     OW35087  13.677   8.957   0.688
11083SOL    HW135088  13.773   8.963   0.694
11083SOL    HW235089  13.652   8.902   0.761
11084SOL     OW35090   3.561   4.480  13.790
11084SOL    HW135091   3.526   4.564  13.819
11084SOL    HW235092   3.578   4.432  13.872
11085SOL     OW35093  14.088   4.700   0.541
11085SOL    HW135094  14.108   4.739   0.626
11085SOL    HW235095  14.000   4.731   0.521
11086SOL     OW35096  11.601   6.373  11.759
11086SOL    HW135097  11.622   6.341  11.671
11086SOL    HW235098  11.671   6.436  11.778
11087SOL     OW35099   4.670   8.489   1.276
11087SOL    HW135100   4.599   8.508   1.337
11087SOL    HW235101   4.643   8.530   1.194
11088SOL     OW35102  14.189  13.029  12.452
11088SOL    HW135103  14.141  12.960  12.406
11088SOL    HW235104  14.236  13.076  12.382
11089SOL     OW35105   9.662  11.970   2.133
11089SOL    HW135106   9.640  11.888   2.089
11089SOL    HW235107   9.593  11.981   2.198
11090SOL     OW35108   8.125   4.080  12.783
11090SOL    HW135109   8.172   4.031  12.715
11090SOL    HW235110   8.103   4.015  12.849
11091SOL     OW35111   7.504   6.863   3.738
11091SOL    HW135112   7.568   6.932   3.756
11091SOL    HW235113   7.431   6.881   3.797
11092SOL     OW35114   3.391  12.730   3.556
11092SOL    HW135115   3.479  12.761   3.578
11092SOL    HW235116   3.401  12.684   3.473
11093SOL     OW35117  13.492   5.164  11.987
11093SOL    HW135118  13.511   5.198  12.074
11093SOL    HW235119  13.452   5.078  12.002
11094SOL     OW35120   2.113  14.050   3.805
11094SOL    HW135121   2.143  14.035   3.894
11094SOL    HW235122   2.027  14.007   3.801
11095SOL     OW35123  11.383  12.340  12.755
11095SOL    HW135124  11.420  12.406  12.697
11095SOL    HW235125  11.293  12.329  12.724
11096SOL     OW35126  10.742   7.243  11.689
11096SOL    HW135127  10.754   7.267  11.597
11096SOL    HW235128  10.727   7.326  11.734
11097SOL     OW35129   3.443  14.242   9.755
11097SOL    HW135130   3.461  14.311   9.818
11097SOL    HW235131   3.379  14.279   9.695
11098SOL     OW35132   5.242   9.936   6.056
11098SOL    HW135133   5.196   9.971   6.132
11098SOL    HW235134   5.177   9.938   5.986
11099SOL     OW35135   9.329  12.674   5.008
11099SOL    HW135136   9.299  12.763   4.991
11099SOL    HW235137   9.395  12.657   4.940
11100SOL     OW35138  11.059  13.633   3.444
11100SOL    HW135139  11.065  13.608   3.536
11100SOL    HW235140  10.965  13.636   3.426
11101SOL     OW35141   1.469   7.328  10.866
11101SOL    HW135142   1.521   7.249  10.849
11101SOL    HW235143   1.516   7.397  10.819
11102SOL     OW35144  13.045   6.306   8.286
11102SOL    HW135145  13.100   6.384   8.280
11102SOL    HW235146  13.064   6.270   8.373
11103SOL     OW35147  13.707   1.304   0.046
11103SOL    HW135148  13.742   1.373   0.102
11103SOL    HW235149  13.749   1.224   0.078
11104SOL     OW35150   5.368   8.698  10.012
11104SOL    HW135151   5.351   8.617  10.060
11104SOL    HW235152   5.456   8.687   9.976
11105SOL     OW35153   9.088  14.830   0.951
11105SOL    HW135154   9.141  14.765   0.905
11105SOL    HW235155   9.150   0.023   0.978
11106SOL     OW35156   4.085   5.815   2.944
11106SOL    HW135157   4.121   5.759   3.013
11106SOL    HW235158   4.020   5.869   2.989
11107SOL     OW35159   4.391   9.102   4.545
11107SOL    HW135160   4.480   9.133   4.526
11107SOL    HW235161   4.349   9.176   4.589
11108SOL     OW35162   7.412   0.981   8.566
11108SOL    HW135163   7.347   0.926   8.524
11108SOL    HW235164   7.461   0.921   8.622
11109SOL     OW35165  12.416  13.961   6.423
11109SOL    HW135166  12.406  13.876   6.465
11109SOL    HW235167  12.500  13.994   6.456
11110SOL     OW35168   6.404  14.177   6.917
11110SOL    HW135169   6.349  14.253   6.935
11110SOL    HW235170   6.480  14.188   6.975
11111SOL     OW35171   2.468  10.267   2.988
11111SOL    HW135172   2.413  10.293   3.062
11111SOL    HW235173   2.499  10.179   3.011
11112SOL     OW35174   8.242   5.030   7.970
11112SOL    HW135175   8.277   5.110   7.932
11112SOL    HW235176   8.174   5.060   8.031
11113SOL     OW35177   2.106   7.856  14.807
11113SOL    HW135178   2.157   7.845   0.013
11113SOL    HW235179   2.169   7.848  14.736
11114SOL     OW35180   9.965   6.458  11.688
11114SOL    HW135181   9.918   6.526  11.736
11114SOL    HW235182  10.019   6.506  11.625
11115SOL     OW35183   9.818   9.218  14.027
11115SOL    HW135184   9.872   9.276  14.081
11115SOL    HW235185   9.865   9.135  14.027
11116SOL     OW35186   4.215  13.756   8.099
11116SOL    HW135187   4.216  13.839   8.147
11116SOL    HW235188   4.131  13.716   8.122
11117SOL     OW35189  12.938   8.554  13.539
11117SOL    HW135190  12.842   8.561  13.542
11117SOL    HW235191  12.962   8.580  13.450
11118SOL     OW35192   0.826   3.389   9.322
11118SOL    HW135193   0.827   3.481   9.350
11118SOL    HW235194   0.746   3.354   9.360
11119SOL     OW35195   9.849   4.038  11.118
11119SOL    HW135196   9.845   4.046  11.213
11119SOL    HW235197   9.796   3.960  11.099
11120SOL     OW35198  12.254   2.413   8.704
11120SOL    HW135199  12.328   2.356   8.723
11120SOL    HW235200  12.291   2.501   8.702
11121SOL     OW35201  12.234   8.756  12.655
11121SOL    HW135202  12.175   8.718  12.721
11121SOL    HW235203  12.237   8.691  12.585
11122SOL     OW35204  12.985   9.386  14.703
11122SOL    HW135205  13.023   9.336  14.776
11122SOL    HW235206  12.930   9.452  14.746
11123SOL     OW35207   8.109   4.268   0.104
11123SOL    HW135208   8.198   4.305   0.108
11123SOL    HW235209   8.053   4.336   0.142
11124SOL     OW35210  11.505   1.498  14.653
11124SOL    HW135211  11.455   1.440  14.711
11124SOL    HW235212  11.445   1.519  14.582
11125SOL     OW35213  13.529  12.675   6.457
11125SOL    HW135214  13.605  12.632   6.495
11125SOL    HW235215  13.473  12.696   6.532
11126SOL     OW35216   2.216   9.745   7.457
11126SOL    HW135217   2.271   9.671   7.482
11126SOL    HW235218   2.238   9.760   7.365
11127SOL     OW35219   7.574  12.976  10.557
11127SOL    HW135220   7.483  12.989  10.529
11127SOL    HW235221   7.568  12.966  10.652
11128SOL     OW35222   9.256   1.463  10.407
11128SOL    HW135223   9.274   1.369  10.407
11128SOL    HW235224   9.190   1.475  10.338
11129SOL     OW35225   3.504   7.985   2.979
11129SOL    HW135226   3.565   7.959   3.048
11129SOL    HW235227   3.558   7.994   2.901
11130SOL     OW35228   7.303  11.355   5.863
11130SOL    HW135229   7.354  11.274   5.863
11130SOL    HW235230   7.220  11.331   5.822
11131SOL     OW35231   2.190  13.245  12.488
11131SOL    HW135232   2.123  13.302  12.526
11131SOL    HW235233   2.248  13.305  12.440
11132SOL     OW35234  14.374   1.506   8.838
11132SOL    HW135235  14.358   1.552   8.920
11132SOL    HW235236  14.301   1.531   8.782
11133SOL     OW35237   6.214   8.810   4.759
11133SOL    HW135238   6.194   8.732   4.811
11133SOL    HW235239   6.309   8.818   4.763
11134SOL     OW35240  13.281  10.802   4.220
11134SOL    HW135241  13.287  10.855   4.141
11134SOL    HW235242  13.243  10.861   4.286
11135SOL     OW35243  11.477   9.843  14.241
11135SOL    HW135244  11.544   9.846  14.310
11135SOL    HW235245  11.518   9.885  14.166
11136SOL     OW35246   0.254  10.734   6.487
11136SOL    HW135247   0.344  10.724   6.456
11136SOL    HW235248   0.210  10.780   6.416
11137SOL     OW35249   0.381  11.105   9.722
11137SOL    HW135250   0.405  11.162   9.649
11137SOL    HW235251   0.345  11.164   9.787
11138SOL     OW35252   2.578   5.514  13.714
11138SOL    HW135253   2.650   5.575  13.699
11138SOL    HW235254   2.574   5.462  13.634
11139SOL     OW35255  11.729   0.742  13.813
11139SOL    HW135256  11.650   0.794  13.827
11139SOL    HW235257  11.763   0.726  13.901
11140SOL     OW35258   8.797   1.729   0.683
11140SOL    HW135259   8.860   1.746   0.753
11140SOL    HW235260   8.816   1.795   0.617
11141SOL     OW35261   4.455  12.526   4.773
11141SOL    HW135262   4.441  12.573   4.854
11141SOL    HW235263   4.482  12.438   4.800
11142SOL     OW35264  12.680   8.233   7.511
11142SOL    HW135265  12.645   8.296   7.448
11142SOL    HW235266  12.769   8.215   7.480
11143SOL     OW35267  11.011  11.799   9.276
11143SOL    HW135268  11.083  11.817   9.337
11143SOL    HW235269  10.988  11.884   9.240
11144SOL     OW35270   8.067  12.824   7.543
11144SOL    HW135271   8.104  12.887   7.481
11144SOL    HW235272   8.020  12.878   7.607
11145SOL     OW35273  14.282   1.093   2.952
11145SOL    HW135274  14.270   0.999   2.963
11145SOL    HW235275  14.322   1.123   3.033
11146SOL     OW35276  14.139   2.047   6.443
11146SOL    HW135277  14.159   2.043   6.536
11146SOL    HW235278  14.172   2.132   6.414
11147SOL     OW35279  10.563   6.378   9.968
11147SOL    HW135280  10.563   6.337   9.882
11147SOL    HW235281  10.526   6.465   9.953
11148SOL     OW35282   9.872  10.705   4.033
11148SOL    HW135283   9.900  10.712   3.942
11148SOL    HW235284   9.782  10.736   4.034
11149SOL     OW35285   3.601  14.005   0.186
11149SOL    HW135286   3.516  14.029   0.224
11149SOL    HW235287   3.579  13.951   0.110
11150SOL     OW35288   9.709   6.065  12.073
11150SOL    HW135289   9.762   6.121  12.130
11150SOL    HW235290   9.699   6.115  11.992
11151SOL     OW35291   1.752  10.181  11.264
11151SOL    HW135292   1.673  10.220  11.301
11151SOL    HW235293   1.818  10.250  11.271
11152SOL     OW35294  11.661  10.246  10.021
11152SOL    HW135295  11.731  10.309  10.038
11152SOL    HW235296  11.598  10.294   9.968
11153SOL     OW35297   1.238  11.078   1.985
11153SOL    HW135298   1.259  11.114   2.071
11153SOL    HW235299   1.149  11.043   1.995
11154SOL     OW35300   3.641   2.922  13.312
11154SOL    HW135301   3.606   3.011  13.313
11154SOL    HW235302   3.565   2.867  13.328
11155SOL     OW35303   1.374   9.677   8.044
11155SOL    HW135304   1.292   9.723   8.063
11155SOL    HW235305   1.350   9.585   8.036
11156SOL     OW35306   1.254   5.273   1.235
11156SOL    HW135307   1.200   5.346   1.207
11156SOL    HW235308   1.192   5.204   1.258
11157SOL     OW35309   5.251   3.138  14.353
11157SOL    HW135310   5.322   3.119  14.292
11157SOL    HW235311   5.295   3.170  14.432
11158SOL     OW35312  12.414  13.686  11.281
11158SOL    HW135313  12.378  13.601  11.258
11158SOL    HW235314  12.368  13.748  11.225
11159SOL     OW35315  12.909   8.852  12.848
11159SOL    HW135316  12.944   8.763  12.846
11159SOL    HW235317  12.815   8.840  12.863
11160SOL     OW35318   4.198  13.913   1.114
11160SOL    HW135319   4.293  13.914   1.100
11160SOL    HW235320   4.187  13.939   1.206
11161SOL     OW35321   7.464   0.788   8.031
11161SOL    HW135322   7.441   0.781   8.124
11161SOL    HW235323   7.533   0.854   8.028
11162SOL     OW35324   6.397  11.707  11.022
11162SOL    HW135325   6.362  11.658  10.948
11162SOL    HW235326   6.462  11.648  11.061
11163SOL     OW35327  12.577   7.433   0.881
11163SOL    HW135328  12.574   7.527   0.866
11163SOL    HW235329  12.655   7.420   0.936
11164SOL     OW35330  11.996  12.169  12.726
11164SOL    HW135331  12.018  12.223  12.651
11164SOL    HW235332  12.048  12.090  12.716
11165SOL     OW35333   8.764  10.285  13.692
11165SOL    HW135334   8.838  10.246  13.646
11165SOL    HW235335   8.803  10.339  13.760
11166SOL     OW35336   5.970   8.995  11.588
11166SOL    HW135337   5.913   8.921  11.570
11166SOL    HW235338   5.919   9.072  11.564
11167SOL     OW35339   1.891  13.859  13.755
11167SOL    HW135340   1.850  13.908  13.684
11167SOL    HW235341   1.959  13.917  13.789
11168SOL     OW35342   3.059   2.819   1.107
11168SOL    HW135343   2.966   2.826   1.087
11168SOL    HW235344   3.091   2.747   1.053
11169SOL     OW35345  11.158   7.276   2.983
11169SOL    HW135346  11.100   7.336   2.938
11169SOL    HW235347  11.114   7.258   3.066
11170SOL     OW35348  11.848  12.373   1.254
11170SOL    HW135349  11.756  12.363   1.280
11170SOL    HW235350  11.895  12.310   1.308
11171SOL     OW35351   0.080  13.455   8.939
11171SOL    HW135352  14.859  13.452   8.928
11171SOL    HW235353   0.111  13.511   8.867
11172SOL     OW35354  13.032   6.706   5.838
11172SOL    HW135355  13.092   6.659   5.897
11172SOL    HW235356  13.077   6.704   5.753
11173SOL     OW35357  12.212   4.317   8.861
11173SOL    HW135358  12.186   4.318   8.953
11173SOL    HW235359  12.131   4.300   8.813
11174SOL     OW35360  14.812  12.533   0.058
11174SOL    HW135361  14.729  12.487   0.067
11174SOL    HW235362  14.851  12.498  14.852
11175SOL     OW35363  10.150  10.091  10.253
11175SOL    HW135364  10.085  10.141  10.203
11175SOL    HW235365  10.165  10.012  10.202
11176SOL     OW35366   9.441   8.829  13.600
11176SOL    HW135367   9.460   8.737  13.619
11176SOL    HW235368   9.527   8.870  13.589
11177SOL     OW35369   1.742  14.515  10.090
11177SOL    HW135370   1.686  14.574  10.039
11177SOL    HW235371   1.817  14.568  10.115
11178SOL     OW35372   2.988   7.772   2.299
11178SOL    HW135373   2.969   7.835   2.230
11178SOL    HW235374   3.050   7.710   2.259
11179SOL     OW35375   3.052   8.646   0.223
11179SOL    HW135376   3.005   8.727   0.244
11179SOL    HW235377   3.017   8.581   0.284
11180SOL     OW35378   5.915   5.647  14.305
11180SOL    HW135379   5.954   5.689  14.229
11180SOL    HW235380   5.871   5.569  14.270
11181SOL     OW35381  10.113   2.869   1.116
11181SOL    HW135382  10.073   2.914   1.041
11181SOL    HW235383  10.039   2.832   1.164
11182SOL     OW35384  12.992   5.000   9.247
11182SOL    HW135385  13.037   4.921   9.218
11182SOL    HW235386  12.899   4.979   9.238
11183SOL     OW35387   2.909   7.959   9.384
11183SOL    HW135388   2.908   7.945   9.479
11183SOL    HW235389   2.844   8.028   9.370
11184SOL     OW35390   9.714  11.896   6.259
11184SOL    HW135391   9.745  11.862   6.175
11184SOL    HW235392   9.629  11.854   6.272
11185SOL     OW35393   3.729   6.561   8.710
11185SOL    HW135394   3.747   6.488   8.769
11185SOL    HW235395   3.724   6.638   8.768
11186SOL     OW35396  13.547  11.286   0.429
11186SOL    HW135397  13.608  11.325   0.366
11186SOL    HW235398  13.468  11.270   0.378
11187SOL     OW35399  14.595   6.427  11.904
11187SOL    HW135400  14.605   6.494  11.972
11187SOL    HW235401  14.503   6.432  11.879
11188SOL     OW35402   7.411   0.526  12.198
11188SOL    HW135403   7.380   0.476  12.273
11188SOL    HW235404   7.377   0.479  12.122
11189SOL     OW35405  12.139  12.836   2.450
11189SOL    HW135406  12.138  12.802   2.360
11189SOL    HW235407  12.220  12.800   2.487
11190SOL     OW35408   0.525  10.557   9.143
11190SOL    HW135409   0.473  10.620   9.192
11190SOL    HW235410   0.460  10.498   9.104
11191SOL     OW35411  11.570  12.197   5.557
11191SOL    HW135412  11.476  12.212   5.559
11191SOL    HW235413  11.581  12.124   5.495
11192SOL     OW35414   0.970  10.729   2.995
11192SOL    HW135415   0.882  10.718   3.032
11192SOL    HW235416   0.986  10.823   2.999
11193SOL     OW35417   8.150  10.708   3.363
11193SOL    HW135418   8.128  10.615   3.354
11193SOL    HW235419   8.231  10.709   3.414
11194SOL     OW35420   2.041  13.571  12.302
11194SOL    HW135421   1.987  13.532  12.233
11194SOL    HW235422   2.048  13.663  12.278
11195SOL     OW35423   4.970   5.790   7.064
11195SOL    HW135424   5.053   5.757   7.031
11195SOL    HW235425   4.978   5.786   7.159
11196SOL     OW35426   9.787   3.398   3.535
11196SOL    HW135427   9.710   3.449   3.509
11196SOL    HW235428   9.855   3.463   3.551
11197SOL     OW35429   1.365   5.604   4.877
11197SOL    HW135430   1.329   5.692   4.883
11197SOL    HW235431   1.361   5.583   4.784
11198SOL     OW35432   1.492   4.784   3.315
11198SOL    HW135433   1.429   4.723   3.353
11198SOL    HW235434   1.442   4.865   3.303
11199SOL     OW35435   6.294   6.334   6.718
11199SOL    HW135436   6.257   6.422   6.709
11199SOL    HW235437   6.223   6.282   6.754
11200SOL     OW35438  11.522  11.683   5.068
11200SOL    HW135439  11.608  11.642   5.066
11200SOL    HW235440  11.478  11.641   5.142
11201SOL     OW35441   2.864   9.539   0.732
11201SOL    HW135442   2.871   9.632   0.710
11201SOL    HW235443   2.778   9.514   0.698
11202SOL     OW35444   8.819  14.514   3.074
11202SOL    HW135445   8.813  14.425   3.039
11202SOL    HW235446   8.798  14.505   3.166
11203SOL     OW35447   1.324   9.167   2.479
11203SOL    HW135448   1.259   9.126   2.537
11203SOL    HW235449   1.402   9.112   2.487
11204SOL     OW35450   1.360   6.766   0.133
11204SOL    HW135451   1.375   6.803   0.046
11204SOL    HW235452   1.323   6.838   0.184
11205SOL     OW35453   3.855  12.128   1.748
11205SOL    HW135454   3.787  12.192   1.728
11205SOL    HW235455   3.918  12.137   1.677
11206SOL     OW35456   1.684   7.840  14.254
11206SOL    HW135457   1.717   7.763  14.301
11206SOL    HW235458   1.627   7.804  14.186
11207SOL     OW35459   6.527   2.728   5.687
11207SOL    HW135460   6.527   2.659   5.621
11207SOL    HW235461   6.460   2.789   5.658
11208SOL     OW35462   2.850   6.765   2.182
11208SOL    HW135463   2.873   6.705   2.111
11208SOL    HW235464   2.928   6.769   2.237
11209SOL     OW35465   1.395   1.874   4.200
11209SOL    HW135466   1.367   1.955   4.241
11209SOL    HW235467   1.452   1.902   4.129
11210SOL     OW35468  10.762   3.347  11.358
11210SOL    HW135469  10.810   3.320  11.436
11210SOL    HW235470  10.679   3.382  11.390
11211SOL     OW35471   1.015  11.215   2.747
11211SOL    HW135472   1.009  11.144   2.682
11211SOL    HW235473   1.030  11.294   2.695
11212SOL     OW35474   7.809   5.642   9.949
11212SOL    HW135475   7.893   5.675   9.916
11212SOL    HW235476   7.811   5.548   9.931
11213SOL     OW35477  11.977  13.528   8.738
11213SOL    HW135478  11.996  13.590   8.808
11213SOL    HW235479  12.057  13.475   8.730
11214SOL     OW35480   5.280  10.771   4.895
11214SOL    HW135481   5.339  10.697   4.883
11214SOL    HW235482   5.281  10.817   4.811
11215SOL     OW35483   7.984   3.223   9.432
11215SOL    HW135484   7.943   3.154   9.484
11215SOL    HW235485   7.913   3.256   9.376
11216SOL     OW35486   5.172  13.360  10.810
11216SOL    HW135487   5.160  13.443  10.763
11216SOL    HW235488   5.158  13.383  10.902
11217SOL     OW35489   1.765   3.936   1.174
11217SOL    HW135490   1.735   4.027   1.166
11217SOL    HW235491   1.853   3.937   1.136
11218SOL     OW35492   0.852  11.055  11.935
11218SOL    HW135493   0.924  11.031  11.876
11218SOL    HW235494   0.879  11.020  12.020
11219SOL     OW35495   9.079   8.714  14.312
11219SOL    HW135496   9.101   8.786  14.252
11219SOL    HW235497   9.120   8.739  14.395
11220SOL     OW35498  12.737  10.516  10.854
11220SOL    HW135499  12.797  10.588  10.877
11220SOL    HW235500  12.685  10.550  10.782
11221SOL     OW35501   5.849  10.288  13.234
11221SOL    HW135502   5.891  10.276  13.319
11221SOL    HW235503   5.916  10.267  13.170
11222SOL     OW35504  11.556  14.241   0.898
11222SOL    HW135505  11.512  14.254   0.982
11222SOL    HW235506  11.530  14.316   0.845
11223SOL     OW35507  11.773   0.050   8.434
11223SOL    HW135508  11.713   0.030   8.506
11223SOL    HW235509  11.788  14.840   8.391
11224SOL     OW35510  14.777   3.069   5.816
11224SOL    HW135511  14.687   3.055   5.845
11224SOL    HW235512  14.821   3.105   5.894
11225SOL     OW35513  11.163   5.083   8.999
11225SOL    HW135514  11.161   5.060   8.906
11225SOL    HW235515  11.232   5.150   9.005
11226SOL     OW35516   4.039  10.213   8.214
11226SOL    HW135517   4.058  10.274   8.142
11226SOL    HW235518   4.034  10.269   8.291
11227SOL     OW35519   4.383  14.481   4.933
11227SOL    HW135520   4.461  14.518   4.893
11227SOL    HW235521   4.416  14.427   5.005
11228SOL     OW35522  13.924   2.862   0.655
11228SOL    HW135523  13.913   2.836   0.564
11228SOL    HW235524  13.878   2.945   0.663
11229SOL     OW35525  11.817   8.688   7.960
11229SOL    HW135526  11.799   8.657   7.872
11229SOL    HW235527  11.910   8.672   7.973
11230SOL     OW35528   7.282   7.898  12.999
11230SOL    HW135529   7.305   7.987  13.026
11230SOL    HW235530   7.365   7.850  13.002
11231SOL     OW35531  11.963  12.219  10.309
11231SOL    HW135532  11.877  12.261  10.306
11231SOL    HW235533  12.017  12.277  10.363
11232SOL     OW35534   0.063  13.188   7.566
11232SOL    HW135535  14.841  13.197   7.561
11232SOL    HW235536   0.085  13.216   7.654
11233SOL     OW35537  12.960   6.032   9.887
11233SOL    HW135538  12.870   6.064   9.879
11233SOL    HW235539  12.970   5.970   9.814
11234SOL     OW35540  12.347   0.755   6.065
11234SOL    HW135541  12.437   0.772   6.095
11234SOL    HW235542  12.358   0.706   5.984
11235SOL     OW35543  10.889   9.681  13.894
11235SOL    HW135544  10.858   9.737  13.965
11235SOL    HW235545  10.823   9.612  13.887
11236SOL     OW35546   7.209   9.072   0.078
11236SOL    HW135547   7.148   9.135   0.041
11236SOL    HW235548   7.291   9.121   0.089
11237SOL     OW35549   5.464   1.781   5.048
11237SOL    HW135550   5.397   1.811   5.109
11237SOL    HW235551   5.457   1.841   4.973
11238SOL     OW35552  14.513   9.728   8.756
11238SOL    HW135553  14.520   9.821   8.735
11238SOL    HW235554  14.468   9.690   8.681
11239SOL     OW35555   7.615   2.519   3.314
11239SOL    HW135556   7.616   2.432   3.355
11239SOL    HW235557   7.669   2.509   3.236
11240SOL     OW35558   8.873   8.918  13.366
11240SOL    HW135559   8.844   8.829  13.348
11240SOL    HW235560   8.935   8.939  13.296
11241SOL     OW35561  11.472  11.940  13.112
11241SOL    HW135562  11.552  11.927  13.061
11241SOL    HW235563  11.455  12.034  13.107
11242SOL     OW35564   2.332  14.432   8.266
11242SOL    HW135565   2.343  14.436   8.361
11242SOL    HW235566   2.420  14.446   8.231
11243SOL     OW35567  13.107  14.487   4.665
11243SOL    HW135568  13.071  14.475   4.753
11243SOL    HW235569  13.200  14.507   4.680
11244SOL     OW35570  14.413   5.797   0.790
11244SOL    HW135571  14.383   5.721   0.839
11244SOL    HW235572  14.437   5.861   0.857
11245SOL     OW35573   2.444  11.190  11.970
11245SOL    HW135574   2.429  11.117  12.031
11245SOL    HW235575   2.411  11.158  11.886
11246SOL     OW35576  10.589   1.644   1.692
11246SOL    HW135577  10.595   1.632   1.598
11246SOL    HW235578  10.634   1.727   1.709
11247SOL     OW35579   7.525   1.118   4.908
11247SOL    HW135580   7.444   1.093   4.864
11247SOL    HW235581   7.497   1.150   4.994
11248SOL     OW35582  11.554   1.759  12.070
11248SOL    HW135583  11.616   1.823  12.035
11248SOL    HW235584  11.495   1.740  11.997
11249SOL     OW35585  14.416   0.948   6.407
11249SOL    HW135586  14.401   1.002   6.484
11249SOL    HW235587  14.499   0.904   6.423
11250SOL     OW35588   4.006   3.617   2.272
11250SOL    HW135589   4.041   3.657   2.352
11250SOL    HW235590   4.073   3.554   2.246
11251SOL     OW35591   7.649  11.002  13.081
11251SOL    HW135592   7.637  10.919  13.126
11251SOL    HW235593   7.665  10.977  12.989
11252SOL     OW35594   7.844   1.935   3.545
11252SOL    HW135595   7.872   1.943   3.454
11252SOL    HW235596   7.853   1.842   3.565
11253SOL     OW35597   5.187   9.507   7.854
11253SOL    HW135598   5.219   9.432   7.904
11253SOL    HW235599   5.250   9.577   7.873
11254SOL     OW35600   7.551   9.559   6.656
11254SOL    HW135601   7.511   9.542   6.741
11254SOL    HW235602   7.489   9.525   6.592
11255SOL     OW35603  13.137   7.905   8.171
11255SOL    HW135604  13.090   7.913   8.254
11255SOL    HW235605  13.228   7.894   8.196
11256SOL     OW35606   4.542  10.772   5.021
11256SOL    HW135607   4.536  10.743   5.112
11256SOL    HW235608   4.635  10.786   5.006
11257SOL     OW35609   6.991  14.219  13.443
11257SOL    HW135610   7.061  14.285  13.442
11257SOL    HW235611   6.964  14.212  13.352
11258SOL     OW35612   4.943  11.355   4.037
11258SOL    HW135613   5.019  11.409   4.057
11258SOL    HW235614   4.926  11.370   3.944
11259SOL     OW35615   0.673  10.912   9.836
11259SOL    HW135616   0.650  10.984   9.777
11259SOL    HW235617   0.651  10.944   9.923
11260SOL     OW35618   0.141  10.472  11.426
11260SOL    HW135619   0.213  10.426  11.383
11260SOL    HW235620   0.117  10.541  11.364
11261SOL     OW35621  11.682   3.758   6.467
11261SOL    HW135622  11.661   3.665   6.479
11261SOL    HW235623  11.609   3.804   6.507
11262SOL     OW35624   1.490   4.736   0.010
11262SOL    HW135625   1.409   4.717  14.836
11262SOL    HW235626   1.469   4.813   0.062
11263SOL     OW35627   4.310   8.242   8.708
11263SOL    HW135628   4.281   8.239   8.799
11263SOL    HW235629   4.405   8.239   8.712
11264SOL     OW35630   5.552  12.626   7.041
11264SOL    HW135631   5.634  12.632   7.091
11264SOL    HW235632   5.536  12.716   7.013
11265SOL     OW35633  14.552   0.770   3.056
11265SOL    HW135634  14.608   0.692   3.059
11265SOL    HW235635  14.506   0.763   2.973
11266SOL     OW35636   2.605  12.514  13.578
11266SOL    HW135637   2.631  12.587  13.633
11266SOL    HW235638   2.534  12.548  13.524
11267SOL     OW35639  14.520   7.562   5.579
11267SOL    HW135640  14.556   7.637   5.627
11267SOL    HW235641  14.506   7.595   5.490
11268SOL     OW35642   6.124   3.121   0.846
11268SOL    HW135643   6.029   3.120   0.834
11268SOL    HW235644   6.159   3.148   0.761
11269SOL     OW35645   9.020  11.877   6.161
11269SOL    HW135646   9.019  11.810   6.229
11269SOL    HW235647   8.996  11.958   6.206
11270SOL     OW35648  11.769  14.708   3.932
11270SOL    HW135649  11.840  14.657   3.893
11270SOL    HW235650  11.713  14.644   3.975
11271SOL     OW35651   0.469   9.996   1.557
11271SOL    HW135652   0.384   9.953   1.553
11271SOL    HW235653   0.450  10.089   1.546
11272SOL     OW35654   5.559  10.057   7.200
11272SOL    HW135655   5.654  10.043   7.194
11272SOL    HW235656   5.528   9.988   7.258
11273SOL     OW35657  14.020  11.936   2.089
11273SOL    HW135658  14.058  12.013   2.046
11273SOL    HW235659  14.021  11.958   2.182
11274SOL     OW35660  11.000   0.689   5.413
11274SOL    HW135661  10.918   0.647   5.440
11274SOL    HW235662  11.053   0.618   5.377
11275SOL     OW35663  13.598  14.299   1.444
11275SOL    HW135664  13.596  14.341   1.358
11275SOL    HW235665  13.600  14.372   1.506
11276SOL     OW35666   9.250  11.500   1.646
11276SOL    HW135667   9.276  11.483   1.736
11276SOL    HW235668   9.237  11.413   1.608
11277SOL     OW35669   0.580   2.042   4.186
11277SOL    HW135670   0.674   2.059   4.193
11277SOL    HW235671   0.540   2.128   4.180
11278SOL     OW35672   0.420   7.683   3.643
11278SOL    HW135673   0.515   7.690   3.647
11278SOL    HW235674   0.392   7.683   3.734
11279SOL     OW35675   2.680   2.167   6.331
11279SOL    HW135676   2.593   2.139   6.303
11279SOL    HW235677   2.725   2.086   6.355
11280SOL     OW35678   0.243   1.232   4.265
11280SOL    HW135679   0.196   1.231   4.348
11280SOL    HW235680   0.175   1.248   4.199
11281SOL     OW35681   5.973   4.708   6.913
11281SOL    HW135682   5.894   4.730   6.964
11281SOL    HW235683   6.022   4.649   6.970
11282SOL     OW35684  13.058   9.686   5.432
11282SOL    HW135685  12.976   9.647   5.400
11282SOL    HW235686  13.078   9.755   5.368
11283SOL     OW35687  12.252   5.112   8.356
11283SOL    HW135688  12.314   5.141   8.423
11283SOL    HW235689  12.262   5.175   8.285
11284SOL     OW35690   7.059  13.531  13.304
11284SOL    HW135691   7.029  13.524  13.213
11284SOL    HW235692   7.006  13.600  13.342
11285SOL     OW35693   5.555   3.602  12.104
11285SOL    HW135694   5.597   3.681  12.070
11285SOL    HW235695   5.566   3.538  12.034
11286SOL     OW35696  14.041  11.018   7.448
11286SOL    HW135697  14.099  11.020   7.372
11286SOL    HW235698  13.967  10.964   7.419
11287SOL     OW35699  12.394   5.411   4.382
11287SOL    HW135700  12.332   5.478   4.352
11287SOL    HW235701  12.472   5.460   4.406
11288SOL     OW35702   7.311   5.135  10.336
11288SOL    HW135703   7.278   5.085  10.410
11288SOL    HW235704   7.392   5.174  10.367
11289SOL     OW35705   8.735   5.093   6.847
11289SOL    HW135706   8.655   5.136   6.817
11289SOL    HW235707   8.742   5.014   6.793
11290SOL     OW35708   1.958  11.314   9.351
11290SOL    HW135709   1.959  11.348   9.440
11290SOL    HW235710   1.944  11.219   9.361
11291SOL     OW35711   0.013   4.763   6.297
11291SOL    HW135712  14.860   4.685   6.346
11291SOL    HW235713  14.824   4.830   6.323
11292SOL     OW35714   3.273  10.299   8.429
11292SOL    HW135715   3.227  10.296   8.345
11292SOL    HW235716   3.231  10.231   8.482
11293SOL     OW35717   9.263  12.905  13.431
11293SOL    HW135718   9.258  12.901  13.526
11293SOL    HW235719   9.348  12.945  13.413
11294SOL     OW35720  14.814  14.614   9.312
11294SOL    HW135721  14.794  14.521   9.308
11294SOL    HW235722  14.769  14.652   9.236
11295SOL     OW35723  11.128  12.026  10.174
11295SOL    HW135724  11.180  12.011  10.253
11295SOL    HW235725  11.191  12.026  10.102
11296SOL     OW35726  12.275  12.631   6.949
11296SOL    HW135727  12.232  12.552   6.983
11296SOL    HW235728  12.348  12.597   6.897
11297SOL     OW35729   3.900  11.470   8.379
11297SOL    HW135730   3.862  11.558   8.380
11297SOL    HW235731   3.974  11.477   8.318
11298SOL     OW35732  14.334   3.001   4.114
11298SOL    HW135733  14.421   2.966   4.093
11298SOL    HW235734  14.274   2.930   4.092
11299SOL     OW35735   5.893  12.007  12.897
11299SOL    HW135736   5.954  12.076  12.923
11299SOL    HW235737   5.852  11.978  12.978
11300SOL     OW35738  14.810  14.317   2.739
11300SOL    HW135739   0.001  14.321   2.809
11300SOL    HW235740  14.856  14.351   2.662
11301SOL     OW35741  12.647  10.613  14.090
11301SOL    HW135742  12.667  10.608  14.183
11301SOL    HW235743  12.600  10.532  14.071
11302SOL     OW35744   2.900  14.300   7.880
11302SOL    HW135745   2.897  14.273   7.971
11302SOL    HW235746   2.861  14.388   7.879
11303SOL     OW35747   7.612   6.939  14.030
11303SOL    HW135748   7.660   6.857  14.021
11303SOL    HW235749   7.565   6.930  14.113
11304SOL     OW35750   7.428  12.637   1.145
11304SOL    HW135751   7.381  12.664   1.066
11304SOL    HW235752   7.436  12.718   1.196
11305SOL     OW35753   6.234  12.295   1.280
11305SOL    HW135754   6.211  12.329   1.366
11305SOL    HW235755   6.154  12.253   1.249
11306SOL     OW35756   1.579   6.301   2.254
11306SOL    HW135757   1.673   6.310   2.244
11306SOL    HW235758   1.550   6.259   2.173
11307SOL     OW35759  14.086  13.673  12.559
11307SOL    HW135760  14.166  13.621  12.564
11307SOL    HW235761  14.117  13.764  12.562
11308SOL     OW35762  10.955   1.080   6.352
11308SOL    HW135763  11.001   1.027   6.416
11308SOL    HW235764  11.005   1.069   6.271
11309SOL     OW35765  11.344   4.562   8.157
11309SOL    HW135766  11.420   4.598   8.112
11309SOL    HW235767  11.355   4.588   8.249
11310SOL     OW35768  12.068  13.592   4.010
11310SOL    HW135769  12.028  13.663   4.059
11310SOL    HW235770  12.091  13.527   4.075
11311SOL     OW35771  14.093  11.697   3.203
11311SOL    HW135772  14.164  11.724   3.145
11311SOL    HW235773  14.015  11.699   3.148
11312SOL     OW35774  10.583   5.890   7.998
11312SOL    HW135775  10.505   5.914   7.949
11312SOL    HW235776  10.580   5.794   8.002
11313SOL     OW35777   2.634   4.329  13.000
11313SOL    HW135778   2.542   4.306  13.012
11313SOL    HW235779   2.638   4.422  13.022
11314SOL     OW35780   4.377  14.172   8.307
11314SOL    HW135781   4.385  14.198   8.399
11314SOL    HW235782   4.401  14.252   8.259
11315SOL     OW35783   5.382  13.141   9.480
11315SOL    HW135784   5.381  13.166   9.572
11315SOL    HW235785   5.290  13.148   9.452
11316SOL     OW35786   0.058  12.003   3.671
11316SOL    HW135787  14.859  12.064   3.663
11316SOL    HW235788   0.104  12.009   3.587
11317SOL     OW35789   6.801   7.006  13.149
11317SOL    HW135790   6.724   6.950  13.136
11317SOL    HW235791   6.800   7.025  13.243
11318SOL     OW35792   1.087   9.290  14.815
11318SOL    HW135793   1.070   9.385  14.815
11318SOL    HW235794   1.043   9.258   0.020
11319SOL     OW35795   2.932   8.622  12.901
11319SOL    HW135796   2.981   8.680  12.842
11319SOL    HW235797   2.994   8.552  12.922
11320SOL     OW35798  14.090  10.767  11.190
11320SOL    HW135799  14.131  10.757  11.276
11320SOL    HW235800  14.146  10.717  11.131
11321SOL     OW35801  11.967  13.107   5.382
11321SOL    HW135802  11.908  13.033   5.365
11321SOL    HW235803  12.009  13.124   5.298
11322SOL     OW35804  14.141   1.861   8.390
11322SOL    HW135805  14.125   1.814   8.472
11322SOL    HW235806  14.198   1.803   8.340
11323SOL     OW35807   3.656  11.714   6.477
11323SOL    HW135808   3.599  11.788   6.456
11323SOL    HW235809   3.702  11.742   6.557
11324SOL     OW35810  13.840   9.597   6.169
11324SOL    HW135811  13.892   9.525   6.133
11324SOL    HW235812  13.789   9.629   6.095
11325SOL     OW35813   2.464  10.749   4.006
11325SOL    HW135814   2.493  10.660   3.988
11325SOL    HW235815   2.371  10.749   3.984
11326SOL     OW35816   3.425  14.139   8.888
11326SOL    HW135817   3.457  14.208   8.830
11326SOL    HW235818   3.337  14.120   8.856
11327SOL     OW35819  14.558   1.148   4.370
11327SOL    HW135820  14.514   1.063   4.376
11327SOL    HW235821  14.518   1.200   4.440
11328SOL     OW35822   8.494  12.641  12.522
11328SOL    HW135823   8.564  12.686  12.475
11328SOL    HW235824   8.539  12.592  12.591
11329SOL     OW35825  11.908   0.257   5.555
11329SOL    HW135826  11.910   0.227   5.646
11329SOL    HW235827  11.910   0.353   5.561
11330SOL     OW35828   1.396  13.234   7.658
11330SOL    HW135829   1.350  13.247   7.575
11330SOL    HW235830   1.471  13.293   7.653
11331SOL     OW35831   4.470   5.761   0.645
11331SOL    HW135832   4.547   5.784   0.593
11331SOL    HW235833   4.424   5.696   0.592
11332SOL     OW35834  11.524   0.481   4.094
11332SOL    HW135835  11.454   0.417   4.100
11332SOL    HW235836  11.480   0.564   4.074
11333SOL     OW35837   9.222   7.851   2.895
11333SOL    HW135838   9.158   7.798   2.944
11333SOL    HW235839   9.193   7.941   2.908
11334SOL     OW35840   0.478   1.503   1.184
11334SOL    HW135841   0.384   1.488   1.175
11334SOL    HW235842   0.508   1.433   1.242
11335SOL     OW35843   7.568   1.573  13.893
11335SOL    HW135844   7.595   1.648  13.946
11335SOL    HW235845   7.578   1.498  13.952
11336SOL     OW35846  10.147  12.513   3.046
11336SOL    HW135847  10.149  12.434   3.099
11336SOL    HW235848  10.101  12.487   2.966
11337SOL     OW35849   6.002   2.610   7.955
11337SOL    HW135850   5.963   2.527   7.928
11337SOL    HW235851   6.039   2.646   7.875
11338SOL     OW35852   6.401   4.951   6.211
11338SOL    HW135853   6.469   5.016   6.196
11338SOL    HW235854   6.332   4.975   6.150
11339SOL     OW35855   5.425  11.083   9.445
11339SOL    HW135856   5.476  11.004   9.425
11339SOL    HW235857   5.399  11.117   9.359
11340SOL     OW35858   9.445   6.123  11.621
11340SOL    HW135859   9.457   6.067  11.544
11340SOL    HW235860   9.352   6.147  11.619
11341SOL     OW35861   7.792   4.351  11.676
11341SOL    HW135862   7.810   4.257  11.680
11341SOL    HW235863   7.855   4.389  11.737
11342SOL     OW35864   1.805   0.653   5.409
11342SOL    HW135865   1.877   0.590   5.415
11342SOL    HW235866   1.841   0.726   5.359
11343SOL     OW35867   8.875   8.571  14.148
11343SOL    HW135868   8.835   8.654  14.120
11343SOL    HW235869   8.933   8.596  14.221
11344SOL     OW35870   3.607  12.610  12.549
11344SOL    HW135871   3.632  12.533  12.498
11344SOL    HW235872   3.581  12.675  12.483
11345SOL     OW35873   2.468  10.007   3.067
11345SOL    HW135874   2.376   9.983   3.074
11345SOL    HW235875   2.507   9.939   3.012
11346SOL     OW35876  12.678   8.765   7.404
11346SOL    HW135877  12.593   8.724   7.418
11346SOL    HW235878  12.706   8.793   7.492
11347SOL     OW35879  14.598   2.574   3.694
11347SOL    HW135880  14.564   2.663   3.685
11347SOL    HW235881  14.548   2.523   3.630
11348SOL     OW35882   9.395  13.399   6.522
11348SOL    HW135883   9.358  13.357   6.600
11348SOL    HW235884   9.376  13.492   6.534
11349SOL     OW35885  10.448  11.415   6.556
11349SOL    HW135886  10.404  11.491   6.594
11349SOL    HW235887  10.439  11.347   6.623
11350SOL     OW35888   9.330   4.109   1.425
11350SOL    HW135889   9.282   4.152   1.354
11350SOL    HW235890   9.331   4.016   1.400
11351SOL     OW35891   9.425   7.680  14.099
11351SOL    HW135892   9.489   7.614  14.122
11351SOL    HW235893   9.387   7.649  14.017
11352SOL     OW35894  12.711   6.732  12.388
11352SOL    HW135895  12.714   6.823  12.417
11352SOL    HW235896  12.786   6.724  12.329
11353SOL     OW35897  11.320  13.006  14.262
11353SOL    HW135898  11.293  12.933  14.319
11353SOL    HW235899  11.313  12.971  14.173
11354SOL     OW35900   1.989  14.662  11.635
11354SOL    HW135901   2.000  14.695  11.546
11354SOL    HW235902   1.895  14.649  11.645
11355SOL     OW35903   4.670   2.168   9.495
11355SOL    HW135904   4.594   2.202   9.542
11355SOL    HW235905   4.682   2.229   9.422
11356SOL     OW35906   1.819  10.679   4.612
11356SOL    HW135907   1.816  10.587   4.639
11356SOL    HW235908   1.727  10.704   4.600
11357SOL     OW35909   6.119   9.656   9.254
11357SOL    HW135910   6.128   9.617   9.341
11357SOL    HW235911   6.040   9.616   9.218
11358SOL     OW35912  11.548   8.845  11.506
11358SOL    HW135913  11.457   8.852  11.536
11358SOL    HW235914  11.545   8.784  11.433
11359SOL     OW35915  11.878   9.370  11.622
11359SOL    HW135916  11.969   9.364  11.652
11359SOL    HW235917  11.830   9.401  11.699
11360SOL     OW35918  13.342   5.355  10.081
11360SOL    HW135919  13.264   5.404  10.108
11360SOL    HW235920  13.329   5.338   9.988
11361SOL     OW35921  11.230   7.232   8.266
11361SOL    HW135922  11.142   7.251   8.233
11361SOL    HW235923  11.282   7.217   8.187
11362SOL     OW35924  14.806   7.928  10.319
11362SOL    HW135925  14.826   7.942  10.412
11362SOL    HW235926  14.785   8.015  10.285
11363SOL     OW35927  10.558  11.021   7.459
11363SOL    HW135928  10.481  11.077   7.449
11363SOL    HW235929  10.561  10.971   7.377
11364SOL     OW35930   1.583   3.530   1.398
11364SOL    HW135931   1.612   3.533   1.308
11364SOL    HW235932   1.663   3.537   1.450
11365SOL     OW35933   3.130  11.969  13.489
11365SOL    HW135934   3.203  11.944  13.545
11365SOL    HW235935   3.132  11.907  13.416
11366SOL     OW35936   2.630   6.521   5.633
11366SOL    HW135937   2.636   6.582   5.706
11366SOL    HW235938   2.568   6.562   5.572
11367SOL     OW35939   3.176  13.819   7.324
11367SOL    HW135940   3.189  13.815   7.229
11367SOL    HW235941   3.218  13.901   7.350
11368SOL     OW35942  11.819  14.589   6.878
11368SOL    HW135943  11.740  14.625   6.917
11368SOL    HW235944  11.802  14.589   6.784
11369SOL     OW35945   8.226   5.755   0.422
11369SOL    HW135946   8.166   5.821   0.387
11369SOL    HW235947   8.172   5.677   0.434
11370SOL     OW35948   5.679   3.384   5.696
11370SOL    HW135949   5.699   3.477   5.707
11370SOL    HW235950   5.640   3.379   5.608
11371SOL     OW35951   5.767   5.599   5.515
11371SOL    HW135952   5.805   5.566   5.596
11371SOL    HW235953   5.731   5.684   5.538
11372SOL     OW35954   0.266  13.156  13.340
11372SOL    HW135955   0.210  13.232  13.322
11372SOL    HW235956   0.244  13.094  13.271
11373SOL     OW35957   8.620   9.758   5.368
11373SOL    HW135958   8.704   9.725   5.336
11373SOL    HW235959   8.644   9.834   5.421
11374SOL     OW35960  14.372  13.211   0.437
11374SOL    HW135961  14.467  13.201   0.445
11374SOL    HW235962  14.340  13.207   0.527
11375SOL     OW35963   1.764   8.141   8.402
11375SOL    HW135964   1.669   8.140   8.413
11375SOL    HW235965   1.782   8.218   8.348
11376SOL     OW35966   6.770  11.376   2.041
11376SOL    HW135967   6.851  11.394   2.089
11376SOL    HW235968   6.737  11.462   2.016
11377SOL     OW35969   3.314   0.441   4.284
11377SOL    HW135970   3.251   0.376   4.313
11377SOL    HW235971   3.266   0.523   4.283
11378SOL     OW35972  13.861  11.885   6.059
11378SOL    HW135973  13.933  11.851   6.005
11378SOL    HW235974  13.810  11.807   6.082
11379SOL     OW35975   7.886  13.181   6.140
11379SOL    HW135976   7.838  13.157   6.219
11379SOL    HW235977   7.978  13.179   6.166
11380SOL     OW35978   7.992   0.752   0.915
11380SOL    HW135979   8.019   0.800   0.994
11380SOL    HW235980   8.061   0.772   0.851
11381SOL     OW35981   6.288   9.653  12.718
11381SOL    HW135982   6.219   9.586  12.715
11381SOL    HW235983   6.369   9.603  12.728
11382SOL     OW35984   8.935   1.072  10.524
11382SOL    HW135985   9.028   1.052  10.531
11382SOL    HW235986   8.920   1.084  10.430
11383SOL     OW35987  14.068  13.487   0.790
11383SOL    HW135988  14.110  13.573   0.793
11383SOL    HW235989  13.984  13.500   0.835
11384SOL     OW35990   8.666   5.458   1.774
11384SOL    HW135991   8.621   5.503   1.845
11384SOL    HW235992   8.651   5.365   1.791
11385SOL     OW35993  13.941  14.612   6.504
11385SOL    HW135994  13.895  14.684   6.547
11385SOL    HW235995  14.023  14.650   6.474
11386SOL     OW35996   1.585   2.065   8.704
11386SOL    HW135997   1.671   2.059   8.662
11386SOL    HW235998   1.582   1.990   8.764
11387SOL     OW35999  14.187  13.819   0.784
11387SOL    HW136000  14.129  13.884   0.744
11387SOL    HW236001  14.143  13.793   0.864
11388SOL     OW36002   3.737   9.022   3.957
11388SOL    HW136003   3.727   9.111   3.991
11388SOL    HW236004   3.721   8.965   4.032
11389SOL     OW36005   9.801  13.575  13.663
11389SOL    HW136006   9.751  13.626  13.600
11389SOL    HW236007   9.892  13.604  13.651
11390SOL     OW36008  12.347   9.759  11.929
11390SOL    HW136009  12.435   9.761  11.890
11390SOL    HW236010  12.347   9.681  11.984
11391SOL     OW36011   2.737   2.111   1.133
11391SOL    HW136012   2.773   2.103   1.221
11391SOL    HW236013   2.773   2.035   1.086
11392SOL     OW36014   8.947   2.833   1.804
11392SOL    HW136015   8.947   2.879   1.887
11392SOL    HW236016   9.033   2.789   1.801
11393SOL     OW36017   1.743   1.187   3.096
11393SOL    HW136018   1.808   1.191   3.166
11393SOL    HW236019   1.795   1.196   3.016
11394SOL     OW36020  12.430   5.977  13.979
11394SOL    HW136021  12.514   6.013  14.008
11394SOL    HW236022  12.397   5.927  14.054
11395SOL     OW36023   0.129   7.259  10.297
11395SOL    HW136024   0.193   7.308  10.244
11395SOL    HW236025   0.111   7.317  10.371
11396SOL     OW36026   2.466   3.686   3.661
11396SOL    HW136027   2.402   3.685   3.590
11396SOL    HW236028   2.479   3.594   3.683
11397SOL     OW36029  13.115   5.647  11.981
11397SOL    HW136030  13.169   5.592  12.037
11397SOL    HW236031  13.132   5.615  11.893
11398SOL     OW36032   5.784  10.063   9.524
11398SOL    HW136033   5.784   9.981   9.474
11398SOL    HW236034   5.700  10.062   9.570
11399SOL     OW36035  13.398  13.784  10.251
11399SOL    HW136036  13.483  13.740  10.258
11399SOL    HW236037  13.340  13.719  10.213
11400SOL     OW36038   1.196  11.570   6.899
11400SOL    HW136039   1.269  11.627   6.877
11400SOL    HW236040   1.224  11.483   6.872
11401SOL     OW36041   0.575   0.547   1.908
11401SOL    HW136042   0.623   0.477   1.863
11401SOL    HW236043   0.558   0.612   1.840
11402SOL     OW36044  12.052   2.399   1.702
11402SOL    HW136045  12.074   2.476   1.650
11402SOL    HW236046  11.970   2.367   1.664
11403SOL     OW36047   4.541   4.370  14.264
11403SOL    HW136048   4.489   4.291  14.250
11403SOL    HW236049   4.480   4.442  14.247
11404SOL     OW36050   0.286   0.947   0.279
11404SOL    HW136051   0.225   1.013   0.245
11404SOL    HW236052   0.234   0.893   0.337
11405SOL     OW36053   0.264   1.728   2.865
11405SOL    HW136054   0.235   1.752   2.952
11405SOL    HW236055   0.183   1.707   2.817
11406SOL     OW36056   4.710   0.745   7.455
11406SOL    HW136057   4.777   0.678   7.469
11406SOL    HW236058   4.632   0.710   7.498
11407SOL     OW36059  12.151   3.188   3.766
11407SOL    HW136060  12.129   3.127   3.837
11407SOL    HW236061  12.139   3.275   3.805
11408SOL     OW36062   6.703  10.427   3.624
11408SOL    HW136063   6.712  10.477   3.542
11408SOL    HW236064   6.717  10.336   3.598
11409SOL     OW36065   4.453   3.320   0.990
11409SOL    HW136066   4.403   3.352   0.916
11409SOL    HW236067   4.541   3.356   0.977
11410SOL     OW36068   8.288  10.057   0.602
11410SOL    HW136069   8.202  10.084   0.569
11410SOL    HW236070   8.270  10.013   0.685
11411SOL     OW36071   0.722   0.044   2.801
11411SOL    HW136072   0.663   0.062   2.874
11411SOL    HW236073   0.737   0.129   2.761
11412SOL     OW36074   5.434  11.323   4.305
11412SOL    HW136075   5.346  11.292   4.287
11412SOL    HW236076   5.456  11.378   4.231
11413SOL     OW36077   4.581   2.167   0.330
11413SOL    HW136078   4.488   2.186   0.322
11413SOL    HW236079   4.621   2.247   0.363
11414SOL     OW36080   1.653   4.372   9.836
11414SOL    HW136081   1.599   4.371   9.915
11414SOL    HW236082   1.686   4.461   9.830
11415SOL     OW36083  12.126   8.508   9.180
11415SOL    HW136084  12.190   8.523   9.250
11415SOL    HW236085  12.121   8.412   9.174
11416SOL     OW36086   4.372   0.431  13.197
11416SOL    HW136087   4.296   0.393  13.241
11416SOL    HW236088   4.367   0.398  13.107
11417SOL     OW36089   5.671   6.943   8.759
11417SOL    HW136090   5.645   6.893   8.837
11417SOL    HW236091   5.641   7.032   8.777
11418SOL     OW36092   7.137  11.332   9.617
11418SOL    HW136093   7.138  11.239   9.594
11418SOL    HW236094   7.185  11.337   9.700
11419SOL     OW36095  11.781   0.576   3.187
11419SOL    HW136096  11.832   0.573   3.106
11419SOL    HW236097  11.695   0.541   3.162
11420SOL     OW36098   5.369   4.058  10.943
11420SOL    HW136099   5.350   4.017  11.027
11420SOL    HW236100   5.459   4.089  10.951
11421SOL     OW36101  10.878   5.209   7.888
11421SOL    HW136102  10.952   5.191   7.830
11421SOL    HW236103  10.806   5.158   7.851
11422SOL     OW36104   1.657   1.910   6.678
11422SOL    HW136105   1.666   1.998   6.714
11422SOL    HW236106   1.731   1.861   6.714
11423SOL     OW36107   5.729  10.221   7.953
11423SOL    HW136108   5.802  10.223   7.891
11423SOL    HW236109   5.686  10.137   7.936
11424SOL     OW36110   3.995   0.251   4.735
11424SOL    HW136111   4.072   0.251   4.792
11424SOL    HW236112   3.999   0.167   4.689
11425SOL     OW36113   7.805  13.651  10.034
11425SOL    HW136114   7.728  13.600  10.009
11425SOL    HW236115   7.796  13.661  10.129
11426SOL     OW36116   0.378   8.192   0.876
11426SOL    HW136117   0.360   8.108   0.917
11426SOL    HW236118   0.468   8.213   0.901
11427SOL     OW36119   3.265   6.058   5.157
11427SOL    HW136120   3.182   6.036   5.200
11427SOL    HW236121   3.316   6.105   5.223
11428SOL     OW36122  14.761  10.000   8.035
11428SOL    HW136123  14.681  10.042   8.003
11428SOL    HW236124  14.818  10.073   8.060
11429SOL     OW36125   9.526   6.674   7.235
11429SOL    HW136126   9.450   6.707   7.283
11429SOL    HW236127   9.601   6.717   7.277
11430SOL     OW36128   8.159   1.690   0.801
11430SOL    HW136129   8.200   1.621   0.748
11430SOL    HW236130   8.197   1.771   0.768
11431SOL     OW36131   4.049  10.576   5.103
11431SOL    HW136132   4.131  10.566   5.055
11431SOL    HW236133   4.023  10.667   5.088
11432SOL     OW36134   3.046   5.065   3.485
11432SOL    HW136135   2.969   5.058   3.430
11432SOL    HW236136   3.039   5.152   3.525
11433SOL     OW36137   7.154   9.885   6.896
11433SOL    HW136138   7.200   9.896   6.812
11433SOL    HW236139   7.129   9.793   6.898
11434SOL     OW36140   7.642   5.341   6.961
11434SOL    HW136141   7.725   5.353   7.007
11434SOL    HW236142   7.577   5.335   7.031
11435SOL     OW36143  10.838   2.481   3.791
11435SOL    HW136144  10.887   2.539   3.733
11435SOL    HW236145  10.903   2.447   3.852
11436SOL     OW36146   0.040   0.474   7.792
11436SOL    HW136147   0.005   0.558   7.821
11436SOL    HW236148   0.130   0.494   7.764
11437SOL     OW36149  14.408   4.825   6.052
11437SOL    HW136150  14.390   4.902   6.106
11437SOL    HW236151  14.327   4.773   6.057
11438SOL     OW36152   2.250  11.714  10.901
11438SOL    HW136153   2.157  11.734  10.916
11438SOL    HW236154   2.296  11.782  10.950
11439SOL     OW36155  14.318   2.871  12.237
11439SOL    HW136156  14.257   2.880  12.310
11439SOL    HW236157  14.371   2.795  12.259
11440SOL     OW36158   5.433  10.546   4.899
11440SOL    HW136159   5.454  10.505   4.983
11440SOL    HW236160   5.381  10.480   4.853
11441SOL     OW36161  13.129   7.102  13.661
11441SOL    HW136162  13.117   7.168  13.730
11441SOL    HW236163  13.051   7.111  13.606
11442SOL     OW36164   7.569  10.592  13.452
11442SOL    HW136165   7.602  10.606  13.541
11442SOL    HW236166   7.598  10.504  13.429
11443SOL     OW36167   2.347  13.652   4.709
11443SOL    HW136168   2.431  13.610   4.691
11443SOL    HW236169   2.331  13.709   4.634
11444SOL     OW36170   8.728  13.755   0.754
11444SOL    HW136171   8.699  13.807   0.829
11444SOL    HW236172   8.787  13.690   0.791
11445SOL     OW36173   7.014   0.943   6.883
11445SOL    HW136174   6.977   0.995   6.812
11445SOL    HW236175   7.021   0.855   6.846
11446SOL     OW36176   5.543  14.201  13.171
11446SOL    HW136177   5.479  14.158  13.113
11446SOL    HW236178   5.505  14.287  13.188
11447SOL     OW36179   2.656   6.721   5.841
11447SOL    HW136180   2.628   6.739   5.931
11447SOL    HW236181   2.748   6.747   5.838
11448SOL     OW36182   3.693   4.388  13.461
11448SOL    HW136183   3.624   4.338  13.504
11448SOL    HW236184   3.651   4.470  13.436
11449SOL     OW36185   0.371  13.129   9.790
11449SOL    HW136186   0.327  13.195   9.843
11449SOL    HW236187   0.465  13.149   9.799
11450SOL     OW36188   3.553   3.245   0.018
11450SOL    HW136189   3.578   3.288   0.100
11450SOL    HW236190   3.629   3.256  14.835
11451SOL     OW36191   7.642   5.462   6.331
11451SOL    HW136192   7.666   5.377   6.366
11451SOL    HW236193   7.700   5.524   6.375
11452SOL     OW36194  14.646  14.385   0.803
11452SOL    HW136195  14.695  14.452   0.755
11452SOL    HW236196  14.701  14.306   0.797
11453SOL     OW36197   7.136   2.738   2.661
11453SOL    HW136198   7.183   2.665   2.621
11453SOL    HW236199   7.205   2.799   2.687
11454SOL     OW36200   1.803   3.059   7.989
11454SOL    HW136201   1.837   2.977   7.953
11454SOL    HW236202   1.791   3.040   8.082
11455SOL     OW36203  13.888   8.229  14.556
11455SOL    HW136204  13.914   8.321  14.550
11455SOL    HW236205  13.810   8.229  14.611
11456SOL     OW36206   4.123   7.166   2.269
11456SOL    HW136207   4.073   7.118   2.202
11456SOL    HW236208   4.060   7.229   2.304
11457SOL     OW36209   1.824   1.324  10.844
11457SOL    HW136210   1.762   1.339  10.915
11457SOL    HW236211   1.770   1.323  10.765
11458SOL     OW36212  12.022   8.264   0.806
11458SOL    HW136213  12.071   8.212   0.870
11458SOL    HW236214  12.089   8.316   0.762
11459SOL     OW36215   0.776   9.640   9.949
11459SOL    HW136216   0.692   9.667   9.912
11459SOL    HW236217   0.753   9.574  10.015
11460SOL     OW36218   7.518   1.735  14.311
11460SOL    HW136219   7.576   1.785  14.369
11460SOL    HW236220   7.431   1.773  14.325
11461SOL     OW36221   8.783   4.245   1.802
11461SOL    HW136222   8.706   4.211   1.757
11461SOL    HW236223   8.765   4.228   1.895
11462SOL     OW36224   7.921  13.131   5.851
11462SOL    HW136225   7.932  13.133   5.946
11462SOL    HW236226   7.931  13.039   5.828
11463SOL     OW36227   0.517   1.981   6.162
11463SOL    HW136228   0.511   1.950   6.252
11463SOL    HW236229   0.426   1.993   6.134
11464SOL     OW36230  11.287  10.981   1.607
11464SOL    HW136231  11.193  10.992   1.620
11464SOL    HW236232  11.295  10.915   1.538
11465SOL     OW36233   0.675   4.077  10.699
11465SOL    HW136234   0.603   4.097  10.759
11465SOL    HW236235   0.750   4.059  10.756
11466SOL     OW36236   8.207   7.724   2.576
11466SOL    HW136237   8.214   7.633   2.604
11466SOL    HW236238   8.213   7.775   2.656
11467SOL     OW36239   3.168  10.282   6.635
11467SOL    HW136240   3.089  10.229   6.620
11467SOL    HW236241   3.230  10.250   6.570
11468SOL     OW36242  14.228  12.631  10.380
11468SOL    HW136243  14.262  12.689  10.312
11468SOL    HW236244  14.156  12.681  10.419
11469SOL     OW36245  12.688   9.282   3.655
11469SOL    HW136246  12.709   9.342   3.726
11469SOL    HW236247  12.593   9.274   3.656
11470SOL     OW36248   9.066   5.962   0.419
11470SOL    HW136249   9.088   5.879   0.379
11470SOL    HW236250   9.150   6.006   0.434
11471SOL     OW36251  12.313   5.498   0.016
11471SOL    HW136252  12.232   5.501  14.838
11471SOL    HW236253  12.338   5.406   0.015
11472SOL     OW36254   3.235  13.739   0.226
11472SOL    HW136255   3.298  13.672   0.253
11472SOL    HW236256   3.203  13.777   0.308
11473SOL     OW36257  11.077  11.204  10.657
11473SOL    HW136258  11.047  11.233  10.743
11473SOL    HW236259  11.087  11.284  10.607
11474SOL     OW36260   7.356   5.203   9.713
11474SOL    HW136261   7.304   5.127   9.739
11474SOL    HW236262   7.297   5.254   9.657
11475SOL     OW36263   4.613   4.250   3.285
11475SOL    HW136264   4.690   4.196   3.266
11475SOL    HW236265   4.648   4.337   3.303
11476SOL     OW36266  11.562   2.810  12.146
11476SOL    HW136267  11.545   2.834  12.237
11476SOL    HW236268  11.656   2.798  12.141
11477SOL     OW36269  11.634  14.677   5.685
11477SOL    HW136270  11.592  14.704   5.604
11477SOL    HW236271  11.640  14.758   5.737
11478SOL     OW36272  10.893   3.926   5.665
11478SOL    HW136273  10.938   3.995   5.615
11478SOL    HW236274  10.941   3.921   5.747
11479SOL     OW36275   9.948   6.019   1.329
11479SOL    HW136276   9.939   5.980   1.242
11479SOL    HW236277  10.039   6.048   1.333
11480SOL     OW36278   6.485   9.012   0.787
11480SOL    HW136279   6.499   8.969   0.703
11480SOL    HW236280   6.390   9.006   0.801
11481SOL     OW36281  12.093   6.887   5.992
11481SOL    HW136282  12.102   6.797   6.023
11481SOL    HW236283  12.033   6.928   6.054
11482SOL     OW36284  13.968  14.873   5.095
11482SOL    HW136285  14.056  14.846   5.122
11482SOL    HW236286  13.912  14.800   5.120
11483SOL     OW36287   5.358  11.485   6.767
11483SOL    HW136288   5.393  11.572   6.748
11483SOL    HW236289   5.273  11.502   6.808
11484SOL     OW36290  11.517   7.563   1.483
11484SOL    HW136291  11.500   7.573   1.576
11484SOL    HW236292  11.612   7.574   1.474
11485SOL     OW36293  13.626   6.139  11.008
11485SOL    HW136294  13.654   6.078  11.076
11485SOL    HW236295  13.707   6.178  10.976
11486SOL     OW36296   0.810   2.211  13.519
11486SOL    HW136297   0.884   2.271  13.529
11486SOL    HW236298   0.839   2.149  13.452
11487SOL     OW36299   3.504   4.515   9.424
11487SOL    HW136300   3.438   4.480   9.365
11487SOL    HW236301   3.571   4.447   9.430
11488SOL     OW36302  14.512  10.445   0.952
11488SOL    HW136303  14.595  10.397   0.952
11488SOL    HW236304  14.458  10.400   0.887
11489SOL     OW36305   1.240   0.661  13.043
11489SOL    HW136306   1.295   0.584  13.028
11489SOL    HW236307   1.227   0.662  13.138
11490SOL     OW36308  14.499  11.202  13.573
11490SOL    HW136309  14.558  11.175  13.503
11490SOL    HW236310  14.523  11.293  13.592
11491SOL     OW36311   4.325  14.234   0.851
11491SOL    HW136312   4.417  14.219   0.826
11491SOL    HW236313   4.321  14.209   0.943
11492SOL     OW36314   7.744   1.801  10.599
11492SOL    HW136315   7.740   1.867  10.530
11492SOL    HW236316   7.652   1.787  10.623
11493SOL     OW36317   6.166   7.808   8.251
11493SOL    HW136318   6.087   7.830   8.202
11493SOL    HW236319   6.154   7.715   8.275
11494SOL     OW36320   5.838  10.490  10.546
11494SOL    HW136321   5.841  10.557  10.613
11494SOL    HW236322   5.880  10.414  10.586
11495SOL     OW36323   5.941   4.753   4.961
11495SOL    HW136324   5.967   4.662   4.946
11495SOL    HW236325   5.894   4.778   4.882
11496SOL     OW36326  11.880   8.935  10.246
11496SOL    HW136327  11.795   8.891  10.256
11496SOL    HW236328  11.858   9.027  10.235
11497SOL     OW36329   7.040   4.405   0.387
11497SOL    HW136330   6.970   4.366   0.439
11497SOL    HW236331   7.062   4.486   0.433
11498SOL     OW36332   4.857   1.292   2.148
11498SOL    HW136333   4.855   1.197   2.160
11498SOL    HW236334   4.873   1.304   2.055
11499SOL     OW36335   4.306  14.442  11.365
11499SOL    HW136336   4.384  14.493  11.383
11499SOL    HW236337   4.254  14.447  11.446
11500SOL     OW36338  13.914  14.691   7.996
11500SOL    HW136339  13.877  14.733   7.918
11500SOL    HW236340  13.873  14.604   7.996
11501SOL     OW36341  10.284   5.689  14.063
11501SOL    HW136342  10.279   5.657  14.154
11501SOL    HW236343  10.203   5.659  14.023
11502SOL     OW36344   5.036  14.379   3.443
11502SOL    HW136345   5.036  14.447   3.510
11502SOL    HW236346   4.943  14.357   3.432
11503SOL     OW36347   1.975  10.340  11.258
11503SOL    HW136348   1.964  10.432  11.284
11503SOL    HW236349   2.036  10.304  11.322
11504SOL     OW36350   5.836   3.645  11.831
11504SOL    HW136351   5.768   3.578  11.822
11504SOL    HW236352   5.802   3.705  11.897
11505SOL     OW36353  13.281   0.233  12.661
11505SOL    HW136354  13.372   0.241  12.692
11505SOL    HW236355  13.243   0.320  12.673
11506SOL     OW36356   9.959   4.964   1.232
11506SOL    HW136357   9.909   4.991   1.155
11506SOL    HW236358  10.028   4.907   1.197
11507SOL     OW36359  14.048  10.430   3.091
11507SOL    HW136360  14.039  10.502   3.029
11507SOL    HW236361  14.054  10.472   3.177
11508SOL     OW36362   2.861   2.397   5.103
11508SOL    HW136363   2.838   2.305   5.088
11508SOL    HW236364   2.779   2.444   5.087
11509SOL     OW36365   4.616   7.446   1.962
11509SOL    HW136366   4.594   7.457   2.055
11509SOL    HW236367   4.669   7.522   1.940
11510SOL     OW36368   1.557   7.326   3.353
11510SOL    HW136369   1.518   7.398   3.305
11510SOL    HW236370   1.485   7.289   3.404
11511SOL     OW36371   7.488  11.611   6.121
11511SOL    HW136372   7.487  11.705   6.105
11511SOL    HW236373   7.566  11.597   6.176
11512SOL     OW36374   4.237   2.154  12.257
11512SOL    HW136375   4.230   2.228  12.197
11512SOL    HW236376   4.208   2.189  12.341
11513SOL     OW36377  10.785   5.979  14.445
11513SOL    HW136378  10.855   5.929  14.404
11513SOL    HW236379  10.708   5.922  14.442
11514SOL     OW36380   6.265   0.476  11.018
11514SOL    HW136381   6.191   0.493  10.961
11514SOL    HW236382   6.227   0.464  11.105
11515SOL     OW36383  13.614   2.075   4.760
11515SOL    HW136384  13.689   2.133   4.776
11515SOL    HW236385  13.538   2.127   4.786
11516SOL     OW36386   4.227  12.424   9.896
11516SOL    HW136387   4.192  12.453   9.812
11516SOL    HW236388   4.276  12.499   9.929
11517SOL     OW36389   9.153   5.272   8.140
11517SOL    HW136390   9.213   5.277   8.065
11517SOL    HW236391   9.156   5.181   8.167
11518SOL     OW36392   8.941   8.923  10.658
11518SOL    HW136393   8.846   8.934  10.654
11518SOL    HW236394   8.974   9.010  10.682
11519SOL     OW36395  10.566   2.488  10.007
11519SOL    HW136396  10.487   2.485  10.061
11519SOL    HW236397  10.545   2.553   9.939
11520SOL     OW36398  14.551  10.785   8.963
11520SOL    HW136399  14.503  10.712   8.923
11520SOL    HW236400  14.484  10.835   9.009
11521SOL     OW36401   3.169  13.810  14.679
11521SOL    HW136402   3.193  13.736  14.623
11521SOL    HW236403   3.101  13.775  14.736
11522SOL     OW36404   6.419   4.639   4.096
11522SOL    HW136405   6.504   4.648   4.053
11522SOL    HW236406   6.439   4.610   4.185
11523SOL     OW36407  10.219   4.106   2.196
11523SOL    HW136408  10.158   4.061   2.138
11523SOL    HW236409  10.204   4.067   2.282
11524SOL     OW36410   8.764  10.210   1.846
11524SOL    HW136411   8.777  10.139   1.783
11524SOL    HW236412   8.673  10.202   1.873
11525SOL     OW36413  14.179  12.854   4.540
11525SOL    HW136414  14.271  12.830   4.531
11525SOL    HW236415  14.166  12.863   4.634
11526SOL     OW36416   1.585   5.829   5.539
11526SOL    HW136417   1.553   5.765   5.603
11526SOL    HW236418   1.552   5.797   5.455
11527SOL     OW36419   8.910   4.883  12.848
11527SOL    HW136420   8.862   4.965  12.838
11527SOL    HW236421   8.922   4.873  12.942
11528SOL     OW36422  13.999   4.865   2.479
11528SOL    HW136423  13.992   4.805   2.405
11528SOL    HW236424  14.068   4.926   2.453
11529SOL     OW36425  12.050   2.238   6.545
11529SOL    HW136426  12.063   2.300   6.474
11529SOL    HW236427  11.968   2.266   6.587
11530SOL     OW36428   9.371   0.374   3.553
11530SOL    HW136429   9.362   0.461   3.513
11530SOL    HW236430   9.434   0.329   3.498
11531SOL     OW36431   0.906   7.020  10.042
11531SOL    HW136432   0.900   7.003  10.136
11531SOL    HW236433   0.815   7.032  10.014
11532SOL     OW36434  10.364  12.769   7.019
11532SOL    HW136435  10.319  12.854   7.010
11532SOL    HW236436  10.339  12.738   7.106
11533SOL     OW36437   6.226   4.584   8.156
11533SOL    HW136438   6.274   4.589   8.239
11533SOL    HW236439   6.161   4.516   8.169
11534SOL     OW36440  12.657   7.803  11.530
11534SOL    HW136441  12.726   7.802  11.463
11534SOL    HW236442  12.696   7.849  11.604
11535SOL     OW36443   2.380  13.341   1.643
11535SOL    HW136444   2.361  13.394   1.565
11535SOL    HW236445   2.345  13.392   1.716
11536SOL     OW36446   1.739  14.592  13.011
11536SOL    HW136447   1.707  14.545  13.088
11536SOL    HW236448   1.678  14.567  12.941
11537SOL     OW36449  11.251   1.884   1.214
11537SOL    HW136450  11.229   1.791   1.223
11537SOL    HW236451  11.258   1.897   1.119
11538SOL     OW36452   0.422   3.255   1.452
11538SOL    HW136453   0.352   3.279   1.513
11538SOL    HW236454   0.454   3.171   1.484
11539SOL     OW36455   4.355   5.962   8.126
11539SOL    HW136456   4.284   6.026   8.134
11539SOL    HW236457   4.322   5.898   8.062
11540SOL     OW36458  13.236   5.846   7.007
11540SOL    HW136459  13.187   5.863   7.088
11540SOL    HW236460  13.211   5.756   6.983
11541SOL     OW36461   6.498   1.727   2.306
11541SOL    HW136462   6.497   1.770   2.391
11541SOL    HW236463   6.452   1.788   2.248
11542SOL     OW36464   4.486  14.795   7.418
11542SOL    HW136465   4.479  14.740   7.496
11542SOL    HW236466   4.407  14.774   7.367
11543SOL     OW36467   8.122   5.406   2.303
11543SOL    HW136468   8.086   5.348   2.236
11543SOL    HW236469   8.199   5.360   2.335
11544SOL     OW36470   3.266   2.357  14.148
11544SOL    HW136471   3.284   2.445  14.180
11544SOL    HW236472   3.263   2.303  14.227
11545SOL     OW36473   4.708   3.845   1.810
11545SOL    HW136474   4.679   3.836   1.719
11545SOL    HW236475   4.763   3.768   1.825
11546SOL     OW36476   2.108   8.187   5.117
11546SOL    HW136477   2.033   8.176   5.175
11546SOL    HW236478   2.070   8.211   5.033
11547SOL     OW36479   7.997   7.861   5.285
11547SOL    HW136480   7.929   7.929   5.287
11547SOL    HW236481   8.056   7.884   5.356
11548SOL     OW36482   9.826   8.936  14.321
11548SOL    HW136483   9.877   8.982  14.254
11548SOL    HW236484   9.793   8.858  14.276
11549SOL     OW36485  14.628  11.423   6.600
11549SOL    HW136486  14.706  11.473   6.574
11549SOL    HW236487  14.562  11.490   6.618
11550SOL     OW36488   1.287  13.876  11.161
11550SOL    HW136489   1.362  13.900  11.215
11550SOL    HW236490   1.316  13.891  11.071
11551SOL     OW36491   1.914  12.978  12.473
11551SOL    HW136492   1.942  12.907  12.415
11551SOL    HW236493   1.919  12.941  12.561
11552SOL     OW36494  11.536  10.816   4.599
11552SOL    HW136495  11.539  10.912   4.605
11552SOL    HW236496  11.466  10.798   4.536
11553SOL     OW36497   2.907   0.028  10.583
11553SOL    HW136498   2.915  14.861  10.498
11553SOL    HW236499   2.846   0.101  10.569
11554SOL     OW36500   4.565  13.202   3.338
11554SOL    HW136501   4.605  13.273   3.288
11554SOL    HW236502   4.583  13.123   3.287
11555SOL     OW36503  14.177  10.388  13.353
11555SOL    HW136504  14.145  10.395  13.443
11555SOL    HW236505  14.250  10.327  13.359
11556SOL     OW36506   3.374  10.173  14.099
11556SOL    HW136507   3.440  10.125  14.149
11556SOL    HW236508   3.318  10.105  14.061
11557SOL     OW36509  12.355  10.626   8.511
11557SOL    HW136510  12.282  10.619   8.572
11557SOL    HW236511  12.353  10.543   8.462
11558SOL     OW36512  10.266  14.567  10.028
11558SOL    HW136513  10.239  14.477  10.048
11558SOL    HW236514  10.352  14.575  10.070
11559SOL     OW36515   2.079   4.647   1.614
11559SOL    HW136516   2.060   4.741   1.603
11559SOL    HW236517   2.153   4.632   1.555
11560SOL     OW36518   4.925   2.780  10.603
11560SOL    HW136519   4.838   2.785  10.563
11560SOL    HW236520   4.912   2.810  10.693
11561SOL     OW36521   7.737  10.071   6.302
11561SOL    HW136522   7.797  10.022   6.358
11561SOL    HW236523   7.721  10.152   6.349
11562SOL     OW36524   8.777   6.698  11.271
11562SOL    HW136525   8.772   6.680  11.365
11562SOL    HW236526   8.841   6.769  11.264
11563SOL     OW36527   0.862   6.921  11.639
11563SOL    HW136528   0.866   6.893  11.548
11563SOL    HW236529   0.782   6.880  11.673
11564SOL     OW36530   8.904  14.724  10.469
11564SOL    HW136531   8.923  14.797  10.410
11564SOL    HW236532   8.886  14.650  10.410
11565SOL     OW36533   7.093   6.528   1.933
11565SOL    HW136534   7.102   6.476   1.853
11565SOL    HW236535   7.074   6.464   2.001
11566SOL     OW36536  11.779   7.063  11.096
11566SOL    HW136537  11.840   7.083  11.167
11566SOL    HW236538  11.715   7.004  11.137
11567SOL     OW36539  13.898   5.050   0.180
11567SOL    HW136540  13.930   5.098   0.257
11567SOL    HW236541  13.805   5.071   0.176
11568SOL     OW36542   2.383   8.092   4.921
11568SOL    HW136543   2.396   8.015   4.865
11568SOL    HW236544   2.368   8.163   4.859
11569SOL     OW36545   6.422   5.726   0.230
11569SOL    HW136546   6.510   5.748   0.199
11569SOL    HW236547   6.418   5.764   0.319
11570SOL     OW36548  11.537  10.857  10.381
11570SOL    HW136549  11.511  10.941  10.343
11570SOL    HW236550  11.458  10.804  10.379
11571SOL     OW36551   2.805  11.962   8.616
11571SOL    HW136552   2.746  12.030   8.649
11571SOL    HW236553   2.765  11.879   8.645
11572SOL     OW36554   6.663  12.486   7.618
11572SOL    HW136555   6.616  12.412   7.580
11572SOL    HW236556   6.598  12.529   7.674
11573SOL     OW36557   7.689   5.059   8.378
11573SOL    HW136558   7.656   5.088   8.293
11573SOL    HW236559   7.771   5.014   8.359
11574SOL     OW36560  12.386   9.713   6.720
11574SOL    HW136561  12.475   9.748   6.730
11574SOL    HW236562  12.398   9.618   6.715
11575SOL     OW36563   4.261  10.591   8.246
11575SOL    HW136564   4.288  10.499   8.236
11575SOL    HW236565   4.254  10.603   8.341
11576SOL     OW36566   1.228   9.591  12.463
11576SOL    HW136567   1.136   9.615  12.459
11576SOL    HW236568   1.231   9.501  12.431
11577SOL     OW36569   9.374  11.620  12.576
11577SOL    HW136570   9.370  11.566  12.655
11577SOL    HW236571   9.373  11.710  12.609
11578SOL     OW36572   4.395   6.068   9.581
11578SOL    HW136573   4.308   6.041   9.612
11578SOL    HW236574   4.378   6.143   9.524
11579SOL     OW36575  12.224   7.773   2.901
11579SOL    HW136576  12.224   7.869   2.899
11579SOL    HW236577  12.295   7.748   2.841
11580SOL     OW36578   0.889  12.292   0.907
11580SOL    HW136579   0.910  12.372   0.955
11580SOL    HW236580   0.874  12.321   0.817
11581SOL     OW36581  14.401   5.029  13.342
11581SOL    HW136582  14.362   4.952  13.300
11581SOL    HW236583  14.495   5.016  13.332
11582SOL     OW36584  10.386  13.507   5.584
11582SOL    HW136585  10.377  13.424   5.536
11582SOL    HW236586  10.372  13.484   5.675
11583SOL     OW36587  12.914   2.174   4.845
11583SOL    HW136588  12.840   2.117   4.862
11583SOL    HW236589  12.916   2.184   4.749
11584SOL     OW36590   1.027   3.427   4.393
11584SOL    HW136591   0.991   3.355   4.341
11584SOL    HW236592   0.976   3.427   4.474
11585SOL     OW36593   0.078   6.673  12.098
11585SOL    HW136594   0.011   6.620  12.140
11585SOL    HW236595   0.157   6.618  12.100
11586SOL     OW36596   9.157   4.998   4.475
11586SOL    HW136597   9.235   4.982   4.529
11586SOL    HW236598   9.157   4.927   4.412
11587SOL     OW36599  12.475   9.103  13.807
11587SOL    HW136600  12.439   9.106  13.896
11587SOL    HW236601  12.398   9.094  13.750
11588SOL     OW36602   3.026   9.924   9.576
11588SOL    HW136603   3.026   9.920   9.481
11588SOL    HW236604   3.030  10.018   9.596
11589SOL     OW36605  13.128   0.217  13.074
11589SOL    HW136606  13.206   0.161  13.076
11589SOL    HW236607  13.130   0.264  13.158
11590SOL     OW36608   0.346   9.205   3.652
11590SOL    HW136609   0.288   9.129   3.648
11590SOL    HW236610   0.383   9.212   3.564
11591SOL     OW36611  10.755   0.411   7.162
11591SOL    HW136612  10.720   0.449   7.081
11591SOL    HW236613  10.831   0.361   7.133
11592SOL     OW36614   2.040   0.226   0.655
11592SOL    HW136615   2.015   0.289   0.723
11592SOL    HW236616   2.134   0.212   0.669
11593SOL     OW36617   2.281   8.683   9.239
11593SOL    HW136618   2.311   8.639   9.319
11593SOL    HW236619   2.356   8.677   9.179
11594SOL     OW36620   3.116  10.224  12.024
11594SOL    HW136621   3.168  10.301  12.047
11594SOL    HW236622   3.178  10.166  11.979
11595SOL     OW36623   6.577   4.622   4.674
11595SOL    HW136624   6.566   4.712   4.643
11595SOL    HW236625   6.522   4.617   4.752
11596SOL     OW36626   2.365  11.982   2.761
11596SOL    HW136627   2.385  11.909   2.702
11596SOL    HW236628   2.273  12.002   2.743
11597SOL     OW36629   4.024   9.928   8.468
11597SOL    HW136630   4.005  10.020   8.451
11597SOL    HW236631   4.117   9.926   8.491
11598SOL     OW36632   2.427   9.634   0.517
11598SOL    HW136633   2.438   9.549   0.559
11598SOL    HW236634   2.333   9.654   0.526
11599SOL     OW36635   9.337   3.578   0.792
11599SOL    HW136636   9.242   3.580   0.784
11599SOL    HW236637   9.365   3.664   0.760
11600SOL     OW36638   3.201  13.559  12.527
11600SOL    HW136639   3.251  13.606  12.460
11600SOL    HW236640   3.113  13.598  12.523
11601SOL     OW36641   1.264   8.522   3.060
11601SOL    HW136642   1.294   8.447   3.112
11601SOL    HW236643   1.194   8.486   3.005
11602SOL     OW36644   2.454   8.894   3.104
11602SOL    HW136645   2.374   8.844   3.091
11602SOL    HW236646   2.500   8.849   3.175
11603SOL     OW36647   8.844   8.121   5.381
11603SOL    HW136648   8.916   8.129   5.444
11603SOL    HW236649   8.809   8.210   5.373
11604SOL     OW36650   6.101  14.673   4.624
11604SOL    HW136651   6.159  14.644   4.695
11604SOL    HW236652   6.105  14.769   4.627
11605SOL     OW36653   0.197  12.155   8.267
11605SOL    HW136654   0.123  12.164   8.327
11605SOL    HW236655   0.164  12.187   8.183
11606SOL     OW36656   6.967  13.166  11.303
11606SOL    HW136657   6.897  13.114  11.265
11606SOL    HW236658   6.931  13.199  11.386
11607SOL     OW36659   0.753   9.076   7.750
11607SOL    HW136660   0.840   9.077   7.791
11607SOL    HW236661   0.693   9.101   7.820
11608SOL     OW36662   3.398   3.360   1.201
11608SOL    HW136663   3.443   3.388   1.121
11608SOL    HW236664   3.368   3.271   1.181
11609SOL     OW36665   8.402   2.540   4.525
11609SOL    HW136666   8.438   2.625   4.550
11609SOL    HW236667   8.458   2.476   4.570
11610SOL     OW36668   5.442   8.522  14.201
11610SOL    HW136669   5.481   8.577  14.269
11610SOL    HW236670   5.364   8.569  14.173
11611SOL     OW36671  12.632  10.831  13.809
11611SOL    HW136672  12.591  10.860  13.890
11611SOL    HW236673  12.592  10.746  13.791
11612SOL     OW36674   0.643   4.042  10.093
11612SOL    HW136675   0.617   3.952  10.075
11612SOL    HW236676   0.736   4.046  10.069
11613SOL     OW36677  11.201  10.470   9.083
11613SOL    HW136678  11.205  10.379   9.115
11613SOL    HW236679  11.292  10.500   9.087
11614SOL     OW36680  10.363   1.816   5.033
11614SOL    HW136681  10.300   1.881   5.004
11614SOL    HW236682  10.312   1.735   5.043
11615SOL     OW36683   4.079  14.837   4.388
11615SOL    HW136684   4.014  14.812   4.454
11615SOL    HW236685   4.032  14.835   4.305
11616SOL     OW36686  10.725   3.485  11.710
11616SOL    HW136687  10.664   3.477  11.636
11616SOL    HW236688  10.692   3.559  11.761
11617SOL     OW36689   9.355  13.503  10.885
11617SOL    HW136690   9.319  13.452  10.957
11617SOL    HW236691   9.325  13.457  10.806
11618SOL     OW36692   6.214   2.205  12.532
11618SOL    HW136693   6.264   2.277  12.571
11618SOL    HW236694   6.258   2.126  12.563
11619SOL     OW36695   6.593   6.098  12.619
11619SOL    HW136696   6.669   6.106  12.560
11619SOL    HW236697   6.528   6.158  12.582
11620SOL     OW36698   4.591   6.920  10.861
11620SOL    HW136699   4.576   7.004  10.904
11620SOL    HW236700   4.656   6.939  10.793
11621SOL     OW36701  12.674   4.462   6.752
11621SOL    HW136702  12.599   4.441   6.808
11621SOL    HW236703  12.637   4.506   6.677
11622SOL     OW36704  12.971   2.327   3.222
11622SOL    HW136705  12.875   2.333   3.221
11622SOL    HW236706  12.997   2.379   3.298
11623SOL     OW36707   1.336  11.966   0.358
11623SOL    HW136708   1.296  11.892   0.405
11623SOL    HW236709   1.418  11.930   0.324
11624SOL     OW36710   9.652   9.533   5.606
11624SOL    HW136711   9.708   9.461   5.635
11624SOL    HW236712   9.574   9.526   5.660
11625SOL     OW36713  13.811   5.261  13.509
11625SOL    HW136714  13.881   5.297  13.454
11625SOL    HW236715  13.814   5.167  13.494
11626SOL     OW36716  14.387  10.896   3.242
11626SOL    HW136717  14.362  10.969   3.185
11626SOL    HW236718  14.353  10.818   3.198
11627SOL     OW36719   8.478   0.635  10.862
11627SOL    HW136720   8.407   0.699  10.871
11627SOL    HW236721   8.558   0.688  10.867
11628SOL     OW36722   3.847  10.505  10.090
11628SOL    HW136723   3.824  10.584  10.041
11628SOL    HW236724   3.936  10.484  10.061
11629SOL     OW36725   6.399   0.314   9.123
11629SOL    HW136726   6.396   0.353   9.210
11629SOL    HW236727   6.386   0.388   9.063
11630SOL     OW36728  13.703  11.194   3.618
11630SOL    HW136729  13.774  11.229   3.672
11630SOL    HW236730  13.746  11.169   3.536
11631SOL     OW36731   8.590  12.767  12.826
11631SOL    HW136732   8.598  12.672  12.814
11631SOL    HW236733   8.650  12.805  12.762
11632SOL     OW36734   8.955  10.046   7.636
11632SOL    HW136735   8.935  10.021   7.546
11632SOL    HW236736   8.879  10.097   7.665
11633SOL     OW36737  13.302   4.597   8.022
11633SOL    HW136738  13.343   4.649   7.953
11633SOL    HW236739  13.223   4.561   7.980
11634SOL     OW36740   9.938   6.141   5.204
11634SOL    HW136741   9.968   6.053   5.227
11634SOL    HW236742  10.013   6.197   5.221
11635SOL     OW36743   2.160  12.207  12.188
11635SOL    HW136744   2.185  12.282  12.133
11635SOL    HW236745   2.192  12.230  12.276
11636SOL     OW36746   6.408   7.977  14.544
11636SOL    HW136747   6.359   8.053  14.512
11636SOL    HW236748   6.452   8.009  14.623
11637SOL     OW36749  13.669   0.143   8.222
11637SOL    HW136750  13.685   0.162   8.314
11637SOL    HW236751  13.753   0.112   8.188
11638SOL     OW36752  11.776   5.052  14.512
11638SOL    HW136753  11.835   4.995  14.463
11638SOL    HW236754  11.757   5.124  14.452
11639SOL     OW36755   1.052   6.610   2.849
11639SOL    HW136756   1.013   6.542   2.792
11639SOL    HW236757   1.019   6.589   2.936
11640SOL     OW36758   6.749  10.659  11.383
11640SOL    HW136759   6.794  10.632  11.303
11640SOL    HW236760   6.673  10.601  11.388
11641SOL     OW36761   4.999  14.657  11.529
11641SOL    HW136762   4.941  14.585  11.554
11641SOL    HW236763   4.950  14.736  11.549
11642SOL     OW36764   1.543   2.617   7.345
11642SOL    HW136765   1.506   2.702   7.368
11642SOL    HW236766   1.574   2.580   7.428
11643SOL     OW36767   9.189  12.557   1.590
11643SOL    HW136768   9.245  12.634   1.592
11643SOL    HW236769   9.246  12.487   1.558
11644SOL     OW36770  14.149  10.211   0.453
11644SOL    HW136771  14.165  10.136   0.394
11644SOL    HW236772  14.077  10.182   0.509
11645SOL     OW36773  12.912   6.867   8.634
11645SOL    HW136774  12.949   6.914   8.709
11645SOL    HW236775  12.964   6.897   8.559
11646SOL     OW36776   8.489   9.562   1.592
11646SOL    HW136777   8.510   9.470   1.577
11646SOL    HW236778   8.471   9.596   1.504
11647SOL     OW36779   6.259  14.122   8.716
11647SOL    HW136780   6.183  14.089   8.764
11647SOL    HW236781   6.257  14.217   8.732
11648SOL     OW36782  12.551   7.064  13.390
11648SOL    HW136783  12.626   7.008  13.374
11648SOL    HW236784  12.480   7.004  13.414
11649SOL     OW36785  14.516   6.897   4.101
11649SOL    HW136786  14.463   6.957   4.048
11649SOL    HW236787  14.591   6.877   4.045
11650SOL     OW36788  14.665   9.694   5.017
11650SOL    HW136789  14.667   9.641   5.097
11650SOL    HW236790  14.744   9.748   5.022
11651SOL     OW36791   1.571   3.873   6.933
11651SOL    HW136792   1.568   3.880   6.838
11651SOL    HW236793   1.548   3.960   6.965
11652SOL     OW36794   9.157   2.218   8.539
11652SOL    HW136795   9.191   2.159   8.471
11652SOL    HW236796   9.223   2.286   8.547
11653SOL     OW36797  12.758   7.330   1.454
11653SOL    HW136798  12.798   7.330   1.541
11653SOL    HW236799  12.686   7.392   1.460
11654SOL     OW36800  10.540   4.853   0.174
11654SOL    HW136801  10.512   4.829   0.262
11654SOL    HW236802  10.633   4.871   0.182
11655SOL     OW36803   5.510   3.308   9.104
11655SOL    HW136804   5.534   3.373   9.171
11655SOL    HW236805   5.430   3.343   9.065
11656SOL     OW36806   1.186   8.030   9.078
11656SOL    HW136807   1.097   8.064   9.088
11656SOL    HW236808   1.175   7.935   9.068
11657SOL     OW36809  10.099   1.378  11.279
11657SOL    HW136810  10.018   1.328  11.270
11657SOL    HW236811  10.147   1.334  11.350
11658SOL     OW36812   1.233   6.956   2.724
11658SOL    HW136813   1.230   7.010   2.645
11658SOL    HW236814   1.145   6.917   2.730
11659SOL     OW36815   4.070   2.770  12.305
11659SOL    HW136816   3.997   2.814  12.348
11659SOL    HW236817   4.086   2.823  12.227
11660SOL     OW36818   1.596  14.120   2.657
11660SOL    HW136819   1.621  14.201   2.612
11660SOL    HW236820   1.667  14.103   2.719
11661SOL     OW36821   6.332   2.746  13.563
11661SOL    HW136822   6.312   2.840  13.560
11661SOL    HW236823   6.347   2.723  13.471
11662SOL     OW36824   8.667   5.084   5.176
11662SOL    HW136825   8.667   5.179   5.184
11662SOL    HW236826   8.747   5.064   5.127
11663SOL     OW36827   6.785  11.507   8.855
11663SOL    HW136828   6.754  11.528   8.942
11663SOL    HW236829   6.824  11.588   8.822
11664SOL     OW36830   6.977  13.345   8.544
11664SOL    HW136831   7.055  13.400   8.544
11664SOL    HW236832   6.990  13.287   8.469
11665SOL     OW36833   3.334   8.133   8.846
11665SOL    HW136834   3.271   8.121   8.774
11665SOL    HW236835   3.353   8.044   8.875
11666SOL     OW36836   0.615   9.892   6.259
11666SOL    HW136837   0.566   9.946   6.197
11666SOL    HW236838   0.553   9.823   6.284
11667SOL     OW36839   0.156  10.887  11.879
11667SOL    HW136840   0.096  10.896  11.805
11667SOL    HW236841   0.242  10.870  11.839
11668SOL     OW36842   3.324   0.581   0.699
11668SOL    HW136843   3.398   0.625   0.741
11668SOL    HW236844   3.268   0.652   0.668
11669SOL     OW36845   4.692   8.009  13.304
11669SOL    HW136846   4.611   8.047  13.339
11669SOL    HW236847   4.708   7.933  13.359
11670SOL     OW36848  13.330   0.874   6.897
11670SOL    HW136849  13.382   0.813   6.949
11670SOL    HW236850  13.326   0.834   6.810
11671SOL     OW36851  14.473   6.433   6.394
11671SOL    HW136852  14.455   6.526   6.411
11671SOL    HW236853  14.445   6.419   6.304
11672SOL     OW36854   0.253   4.615   2.469
11672SOL    HW136855   0.210   4.648   2.390
11672SOL    HW236856   0.244   4.520   2.464
11673SOL     OW36857  13.429  10.605  10.761
11673SOL    HW136858  13.486  10.668  10.717
11673SOL    HW236859  13.340  10.635  10.739
11674SOL     OW36860   3.261  12.863   1.697
11674SOL    HW136861   3.243  12.784   1.746
11674SOL    HW236862   3.252  12.837   1.605
11675SOL     OW36863   0.527   3.360   3.436
11675SOL    HW136864   0.489   3.441   3.468
11675SOL    HW236865   0.485   3.344   3.352
11676SOL     OW36866  11.262   8.399  10.743
11676SOL    HW136867  11.250   8.385  10.649
11676SOL    HW236868  11.353   8.426  10.751
11677SOL     OW36869   8.895   5.869   7.075
11677SOL    HW136870   8.835   5.938   7.101
11677SOL    HW236871   8.872   5.849   6.984
11678SOL     OW36872   7.033   4.694  12.007
11678SOL    HW136873   6.980   4.683  12.086
11678SOL    HW236874   6.972   4.728  11.942
11679SOL     OW36875  12.397  11.564   5.316
11679SOL    HW136876  12.488  11.538   5.305
11679SOL    HW236877  12.396  11.619   5.394
11680SOL     OW36878  12.238  13.023  14.006
11680SOL    HW136879  12.261  13.100  13.954
11680SOL    HW236880  12.295  12.954  13.973
11681SOL     OW36881   3.550   9.149   0.991
11681SOL    HW136882   3.460   9.181   0.991
11681SOL    HW236883   3.576   9.151   0.899
11682SOL     OW36884   9.487   1.331   4.702
11682SOL    HW136885   9.408   1.378   4.674
11682SOL    HW236886   9.508   1.273   4.629
11683SOL     OW36887   7.469   3.272   5.257
11683SOL    HW136888   7.486   3.274   5.351
11683SOL    HW236889   7.381   3.308   5.248
11684SOL     OW36890   0.387  14.140   0.385
11684SOL    HW136891   0.352  14.227   0.364
11684SOL    HW236892   0.389  14.139   0.481
11685SOL     OW36893   0.436  13.879   9.738
11685SOL    HW136894   0.457  13.832   9.657
11685SOL    HW236895   0.476  13.826   9.807
11686SOL     OW36896   4.450   7.016   7.467
11686SOL    HW136897   4.441   7.087   7.404
11686SOL    HW236898   4.497   7.056   7.541
11687SOL     OW36899   8.021   2.829  14.077
11687SOL    HW136900   8.005   2.901  14.016
11687SOL    HW236901   8.063   2.762  14.023
11688SOL     OW36902   0.034   1.913  12.423
11688SOL    HW136903   0.103   1.979  12.433
11688SOL    HW236904   0.023   1.876  12.510
11689SOL     OW36905   2.763   7.816   7.453
11689SOL    HW136906   2.798   7.731   7.425
11689SOL    HW236907   2.838   7.863   7.489
11690SOL     OW36908   1.120  10.561  13.958
11690SOL    HW136909   1.130  10.516  13.874
11690SOL    HW236910   1.196  10.620  13.963
11691SOL     OW36911  10.625   7.603   8.935
11691SOL    HW136912  10.544   7.650   8.955
11691SOL    HW236913  10.682   7.622   9.009
11692SOL     OW36914   0.164   6.820   2.506
11692SOL    HW136915   0.121   6.748   2.460
11692SOL    HW236916   0.251   6.826   2.465
11693SOL     OW36917   2.598  14.417  12.568
11693SOL    HW136918   2.508  14.417  12.601
11693SOL    HW236919   2.618  14.325  12.552
11694SOL     OW36920   6.958   0.672  14.217
11694SOL    HW136921   6.869   0.680  14.182
11694SOL    HW236922   7.015   0.682  14.141
11695SOL     OW36923   9.867   0.535   7.830
11695SOL    HW136924   9.875   0.541   7.925
11695SOL    HW236925   9.775   0.513   7.815
11696SOL     OW36926   5.949  10.466  11.058
11696SOL    HW136927   5.980  10.553  11.085
11696SOL    HW236928   5.934  10.474  10.964
11697SOL     OW36929   5.113  12.526   4.557
11697SOL    HW136930   5.160  12.555   4.635
11697SOL    HW236931   5.180  12.521   4.489
11698SOL     OW36932   0.940   7.605   2.812
11698SOL    HW136933   0.925   7.593   2.906
11698SOL    HW236934   0.855   7.630   2.777
11699SOL     OW36935   1.775   2.564  14.130
11699SOL    HW136936   1.846   2.557  14.193
11699SOL    HW236937   1.755   2.657  14.126
11700SOL     OW36938   8.466   6.341  14.123
11700SOL    HW136939   8.372   6.350  14.143
11700SOL    HW236940   8.468   6.298  14.038
11701SOL     OW36941   1.675   7.433   0.597
11701SOL    HW136942   1.731   7.365   0.635
11701SOL    HW236943   1.675   7.415   0.503
11702SOL     OW36944   6.331   1.085  12.964
11702SOL    HW136945   6.401   1.062  13.026
11702SOL    HW236946   6.307   1.175  12.987
11703SOL     OW36947   4.234  12.235   9.520
11703SOL    HW136948   4.251  12.322   9.485
11703SOL    HW236949   4.169  12.197   9.460
11704SOL     OW36950   0.974  14.722   5.376
11704SOL    HW136951   0.990  14.786   5.445
11704SOL    HW236952   1.053  14.667   5.376
11705SOL     OW36953   7.022   6.245   7.344
11705SOL    HW136954   7.006   6.261   7.251
11705SOL    HW236955   6.939   6.264   7.387
11706SOL     OW36956  13.825  13.737  14.097
11706SOL    HW136957  13.806  13.741  14.004
11706SOL    HW236958  13.885  13.663  14.106
11707SOL     OW36959  10.242  10.621   2.377
11707SOL    HW136960  10.267  10.567   2.302
11707SOL    HW236961  10.270  10.571   2.453
11708SOL     OW36962  12.753   0.228   8.230
11708SOL    HW136963  12.834   0.184   8.204
11708SOL    HW236964  12.746   0.212   8.324
11709SOL     OW36965   1.210   8.143   0.751
11709SOL    HW136966   1.115   8.139   0.756
11709SOL    HW236967   1.236   8.059   0.714
11710SOL     OW36968   5.474  12.799  12.311
11710SOL    HW136969   5.498  12.790  12.218
11710SOL    HW236970   5.552  12.770  12.358
11711SOL     OW36971   8.399   1.432  11.287
11711SOL    HW136972   8.427   1.458  11.375
11711SOL    HW236973   8.439   1.347  11.274
11712SOL     OW36974   7.961  11.333   3.785
11712SOL    HW136975   7.990  11.287   3.707
11712SOL    HW236976   8.002  11.286   3.858
11713SOL     OW36977   2.707   8.895   5.989
11713SOL    HW136978   2.649   8.939   6.051
11713SOL    HW236979   2.724   8.961   5.921
11714SOL     OW36980  13.042   3.033  14.272
11714SOL    HW136981  13.136   3.029  14.257
11714SOL    HW236982  13.033   3.078  14.356
11715SOL     OW36983   8.353  13.944   6.068
11715SOL    HW136984   8.439  13.980   6.089
11715SOL    HW236985   8.325  13.993   5.991
11716SOL     OW36986   5.210  13.883  10.590
11716SOL    HW136987   5.214  13.793  10.623
11716SOL    HW236988   5.209  13.937  10.669
11717SOL     OW36989   4.269   7.578  10.941
11717SOL    HW136990   4.311   7.510  10.992
11717SOL    HW236991   4.299   7.565  10.851
11718SOL     OW36992   4.744   2.249   9.836
11718SOL    HW136993   4.665   2.255   9.889
11718SOL    HW236994   4.719   2.193   9.762
11719SOL     OW36995   7.508   0.148  10.408
11719SOL    HW136996   7.527   0.117  10.497
11719SOL    HW236997   7.520   0.242  10.413
11720SOL     OW36998  14.446   5.277  14.531
11720SOL    HW136999  14.361   5.311  14.559
11720SOL    HW237000  14.439   5.182  14.542
11721SOL     OW37001  12.370   1.561   4.167
11721SOL    HW137002  12.279   1.540   4.185
11721SOL    HW237003  12.367   1.628   4.098
11722SOL     OW37004   2.428   6.687   0.562
11722SOL    HW137005   2.470   6.634   0.493
11722SOL    HW237006   2.501   6.726   0.610
11723SOL     OW37007  12.382   4.656   8.276
11723SOL    HW137008  12.328   4.578   8.291
11723SOL    HW237009  12.399   4.691   8.363
11724SOL     OW37010   3.752  12.169   3.962
11724SOL    HW137011   3.698  12.132   4.032
11724SOL    HW237012   3.690  12.218   3.907
11725SOL     OW37013  10.379  12.555   3.421
11725SOL    HW137014  10.401  12.570   3.513
11725SOL    HW237015  10.463  12.563   3.375
11726SOL     OW37016  10.113   1.082   1.082
11726SOL    HW137017  10.149   1.104   0.996
11726SOL    HW237018  10.053   1.154   1.103
11727SOL     OW37019   1.005   3.750   2.215
11727SOL    HW137020   0.984   3.835   2.177
11727SOL    HW237021   0.921   3.705   2.222
11728SOL     OW37022   7.948   7.177   8.447
11728SOL    HW137023   7.964   7.221   8.530
11728SOL    HW237024   7.867   7.128   8.461
11729SOL     OW37025   3.557  12.238  12.105
11729SOL    HW137026   3.578  12.267  12.193
11729SOL    HW237027   3.621  12.169  12.086
11730SOL     OW37028  11.781  14.118   2.613
11730SOL    HW137029  11.760  14.026   2.599
11730SOL    HW237030  11.715  14.166   2.563
11731SOL     OW37031  14.553   2.708   0.394
11731SOL    HW137032  14.552   2.784   0.453
11731SOL    HW237033  14.644   2.680   0.393
11732SOL     OW37034   5.794   5.632   9.709
11732SOL    HW137035   5.869   5.621   9.652
11732SOL    HW237036   5.722   5.653   9.650
11733SOL     OW37037   8.986   9.357   4.161
11733SOL    HW137038   8.999   9.301   4.238
11733SOL    HW237039   9.055   9.423   4.169
11734SOL     OW37040  11.584   7.604  13.068
11734SOL    HW137041  11.618   7.681  13.021
11734SOL    HW237042  11.542   7.552  13.000
11735SOL     OW37043  14.092   4.308   8.767
11735SOL    HW137044  14.096   4.215   8.787
11735SOL    HW237045  14.043   4.313   8.685
11736SOL     OW37046   5.379   9.673   3.694
11736SOL    HW137047   5.355   9.620   3.770
11736SOL    HW237048   5.408   9.756   3.732
11737SOL     OW37049   9.183   1.625  14.075
11737SOL    HW137050   9.234   1.544  14.073
11737SOL    HW237051   9.134   1.624  13.993
11738SOL     OW37052   8.190  14.782   6.165
11738SOL    HW137053   8.254  14.712   6.155
11738SOL    HW237054   8.108  14.743   6.137
11739SOL     OW37055   5.384  13.556   7.536
11739SOL    HW137056   5.388  13.573   7.630
11739SOL    HW237057   5.471  13.522   7.514
11740SOL     OW37058   9.588   4.092   4.865
11740SOL    HW137059   9.547   4.176   4.846
11740SOL    HW237060   9.542   4.030   4.809
11741SOL     OW37061   8.937   9.186  12.597
11741SOL    HW137062   9.021   9.151  12.571
11741SOL    HW237063   8.930   9.166  12.691
11742SOL     OW37064  12.343   1.204  10.126
11742SOL    HW137065  12.342   1.130  10.188
11742SOL    HW237066  12.404   1.267  10.165
11743SOL     OW37067   5.500  12.804   5.149
11743SOL    HW137068   5.454  12.831   5.070
11743SOL    HW237069   5.534  12.885   5.187
11744SOL     OW37070   4.494   7.939   8.602
11744SOL    HW137071   4.535   8.015   8.560
11744SOL    HW237072   4.544   7.926   8.682
11745SOL     OW37073   5.902   7.886   6.207
11745SOL    HW137074   5.974   7.851   6.155
11745SOL    HW237075   5.922   7.860   6.297
11746SOL     OW37076   4.633  11.539  11.712
11746SOL    HW137077   4.568  11.490  11.662
11746SOL    HW237078   4.713  11.533  11.660
11747SOL     OW37079   2.622   7.085   4.790
11747SOL    HW137080   2.622   7.124   4.702
11747SOL    HW237081   2.536   7.042   4.796
11748SOL     OW37082  13.008  12.318  10.551
11748SOL    HW137083  12.961  12.283  10.627
11748SOL    HW237084  13.028  12.241  10.498
11749SOL     OW37085   6.057   8.380   6.558
11749SOL    HW137086   6.148   8.399   6.536
11749SOL    HW237087   6.060   8.297   6.605
11750SOL     OW37088   9.974  11.203  14.567
11750SOL    HW137089   9.964  11.205  14.472
11750SOL    HW237090   9.928  11.124  14.595
11751SOL     OW37091  12.751   1.611  13.488
11751SOL    HW137092  12.796   1.527  13.496
11751SOL    HW237093  12.661   1.593  13.516
11752SOL     OW37094   6.119   4.971   5.276
11752SOL    HW137095   6.186   5.013   5.331
11752SOL    HW237096   6.046   5.033   5.275
11753SOL     OW37097   9.086   0.837  10.369
11753SOL    HW137098   9.009   0.805  10.322
11753SOL    HW237099   9.127   0.758  10.404
11754SOL     OW37100   3.757  10.469   4.327
11754SOL    HW137101   3.831  10.527   4.343
11754SOL    HW237102   3.747  10.420   4.409
11755SOL     OW37103   7.209   8.962  10.381
11755SOL    HW137104   7.183   9.026  10.315
11755SOL    HW237105   7.170   8.880  10.351
11756SOL     OW37106   7.236   5.875  11.412
11756SOL    HW137107   7.182   5.848  11.486
11756SOL    HW237108   7.251   5.794  11.364
11757SOL     OW37109   4.410  11.637  11.371
11757SOL    HW137110   4.373  11.718  11.336
11757SOL    HW237111   4.500  11.637  11.341
11758SOL     OW37112   8.647   4.087  11.897
11758SOL    HW137113   8.663   4.181  11.907
11758SOL    HW237114   8.578   4.068  11.961
11759SOL     OW37115   9.199   0.624   6.140
11759SOL    HW137116   9.249   0.547   6.115
11759SOL    HW237117   9.215   0.634   6.234
11760SOL     OW37118   7.875  10.247   9.178
11760SOL    HW137119   7.875  10.236   9.273
11760SOL    HW237120   7.792  10.207   9.149
11761SOL     OW37121  14.490  13.770   3.090
11761SOL    HW137122  14.487  13.826   3.168
11761SOL    HW237123  14.581  13.772   3.063
11762SOL     OW37124   1.995   6.493  12.424
11762SOL    HW137125   1.950   6.414  12.394
11762SOL    HW237126   2.063   6.461  12.484
11763SOL     OW37127   3.558  10.460   3.996
11763SOL    HW137128   3.609  10.397   4.046
11763SOL    HW237129   3.498  10.407   3.944
11764SOL     OW37130  13.494   9.429   5.506
11764SOL    HW137131  13.540   9.506   5.538
11764SOL    HW237132  13.401   9.448   5.520
11765SOL     OW37133   0.005  11.696   3.584
11765SOL    HW137134  14.871  11.761   3.514
11765SOL    HW237135   0.075  11.730   3.640
11766SOL     OW37136   2.839  10.055   5.578
11766SOL    HW137137   2.767  10.056   5.515
11766SOL    HW237138   2.808   9.999   5.649
11767SOL     OW37139   0.029   6.953   3.695
11767SOL    HW137140  14.824   6.918   3.655
11767SOL    HW237141   0.022   7.048   3.684
11768SOL     OW37142   5.066   8.576   2.913
11768SOL    HW137143   5.026   8.515   2.851
11768SOL    HW237144   5.020   8.658   2.899
11769SOL     OW37145  12.006  11.479   3.311
11769SOL    HW137146  12.047  11.418   3.250
11769SOL    HW237147  12.079  11.529   3.347
11770SOL     OW37148  13.895  14.275   3.618
11770SOL    HW137149  13.810  14.231   3.628
11770SOL    HW237150  13.954  14.227   3.676
11771SOL     OW37151  14.680  10.661   8.267
11771SOL    HW137152  14.664  10.755   8.271
11771SOL    HW237153  14.594  10.621   8.256
11772SOL     OW37154   7.942   8.920   3.211
11772SOL    HW137155   8.002   8.859   3.254
11772SOL    HW237156   7.861   8.869   3.200
11773SOL     OW37157   0.954   6.862   5.522
11773SOL    HW137158   0.997   6.946   5.536
11773SOL    HW237159   0.881   6.861   5.583
11774SOL     OW37160   9.122   1.607   6.166
11774SOL    HW137161   9.109   1.596   6.072
11774SOL    HW237162   9.150   1.521   6.197
11775SOL     OW37163   3.055   4.249   3.117
11775SOL    HW137164   2.973   4.259   3.069
11775SOL    HW237165   3.122   4.237   3.050
11776SOL     OW37166   5.090  12.815   4.758
11776SOL    HW137167   5.021  12.753   4.734
11776SOL    HW237168   5.046  12.880   4.811
11777SOL     OW37169  11.116   2.881   9.276
11777SOL    HW137170  11.060   2.870   9.199
11777SOL    HW237171  11.181   2.811   9.268
11778SOL     OW37172   1.871   2.258   4.196
11778SOL    HW137173   1.860   2.164   4.182
11778SOL    HW237174   1.908   2.291   4.114
11779SOL     OW37175   7.892   0.239  13.272
11779SOL    HW137176   7.833   0.307  13.241
11779SOL    HW237177   7.865   0.224  13.363
11780SOL     OW37178   9.216   7.623   7.305
11780SOL    HW137179   9.210   7.613   7.210
11780SOL    HW237180   9.207   7.718   7.319
11781SOL     OW37181  11.367   7.345   5.335
11781SOL    HW137182  11.327   7.427   5.364
11781SOL    HW237183  11.377   7.355   5.240
11782SOL     OW37184  13.996  13.108   1.494
11782SOL    HW137185  13.956  13.021   1.496
11782SOL    HW237186  14.070  13.099   1.433
11783SOL     OW37187   4.276   5.803  11.881
11783SOL    HW137188   4.249   5.844  11.799
11783SOL    HW237189   4.300   5.876  11.938
11784SOL     OW37190   2.738  12.393   7.648
11784SOL    HW137191   2.710  12.326   7.711
11784SOL    HW237192   2.680  12.380   7.572
11785SOL     OW37193   7.574  11.494  12.784
11785SOL    HW137194   7.524  11.444  12.721
11785SOL    HW237195   7.663  11.496  12.749
11786SOL     OW37196   3.002   1.401  14.012
11786SOL    HW137197   2.941   1.381  14.083
11786SOL    HW237198   2.954   1.458  13.953
11787SOL     OW37199   2.213   1.150  11.024
11787SOL    HW137200   2.272   1.142  10.949
11787SOL    HW237201   2.125   1.153  10.985
11788SOL     OW37202  11.835   6.478   9.328
11788SOL    HW137203  11.896   6.417   9.286
11788SOL    HW237204  11.767   6.494   9.263
11789SOL     OW37205  12.631  11.121  11.092
11789SOL    HW137206  12.685  11.070  11.153
11789SOL    HW237207  12.654  11.212  11.110
11790SOL     OW37208   6.419   6.272   1.543
11790SOL    HW137209   6.450   6.187   1.575
11790SOL    HW237210   6.338   6.251   1.496
11791SOL     OW37211  10.779   7.314   5.600
11791SOL    HW137212  10.798   7.221   5.589
11791SOL    HW237213  10.714   7.317   5.670
11792SOL     OW37214  11.188   5.898   4.051
11792SOL    HW137215  11.234   5.816   4.037
11792SOL    HW237216  11.209   5.950   3.973
11793SOL     OW37217   2.533   3.158   5.440
11793SOL    HW137218   2.574   3.226   5.386
11793SOL    HW237219   2.479   3.108   5.379
11794SOL     OW37220  10.077  11.215   0.565
11794SOL    HW137221  10.009  11.274   0.597
11794SOL    HW237222  10.145  11.218   0.632
11795SOL     OW37223   7.006   7.833   1.196
11795SOL    HW137224   6.922   7.869   1.170
11795SOL    HW237225   7.012   7.849   1.290
11796SOL     OW37226   4.356   2.816  14.140
11796SOL    HW137227   4.419   2.835  14.070
11796SOL    HW237228   4.347   2.898  14.187
11797SOL     OW37229  12.476   5.942   8.773
11797SOL    HW137230  12.562   5.918   8.739
11797SOL    HW237231  12.427   5.970   8.696
11798SOL     OW37232   5.953   4.398   2.708
11798SOL    HW137233   5.934   4.352   2.790
11798SOL    HW237234   5.875   4.451   2.692
11799SOL     OW37235  13.544   5.428   5.018
11799SOL    HW137236  13.449   5.423   5.029
11799SOL    HW237237  13.566   5.349   4.969
11800SOL     OW37238   1.645   5.609  12.667
11800SOL    HW137239   1.661   5.703  12.654
11800SOL    HW237240   1.552   5.605  12.693
11801SOL     OW37241  12.613   4.403   0.125
11801SOL    HW137242  12.691   4.453   0.147
11801SOL    HW237243  12.574   4.450   0.051
11802SOL     OW37244  13.372  12.144  13.126
11802SOL    HW137245  13.363  12.077  13.193
11802SOL    HW237246  13.461  12.178  13.138
11803SOL     OW37247   5.694   5.158   0.292
11803SOL    HW137248   5.668   5.076   0.250
11803SOL    HW237249   5.781   5.176   0.257
11804SOL     OW37250   9.401  11.482   3.362
11804SOL    HW137251   9.325  11.492   3.420
11804SOL    HW237252   9.430  11.571   3.344
11805SOL     OW37253   8.733   5.471   2.229
11805SOL    HW137254   8.670   5.495   2.161
11805SOL    HW237255   8.818   5.497   2.193
11806SOL     OW37256  11.276   5.825   7.215
11806SOL    HW137257  11.237   5.885   7.279
11806SOL    HW237258  11.361   5.802   7.253
11807SOL     OW37259  11.412   8.975  14.044
11807SOL    HW137260  11.472   8.903  14.062
11807SOL    HW237261  11.325   8.935  14.044
11808SOL     OW37262  12.444   1.316  13.826
11808SOL    HW137263  12.485   1.384  13.880
11808SOL    HW237264  12.354   1.309  13.859
11809SOL     OW37265  13.538   5.146   7.329
11809SOL    HW137266  13.466   5.116   7.385
11809SOL    HW237267  13.574   5.221   7.376
11810SOL     OW37268  11.921   3.596   4.298
11810SOL    HW137269  11.882   3.517   4.334
11810SOL    HW237270  11.891   3.666   4.355
11811SOL     OW37271  14.606   0.810   7.040
11811SOL    HW137272  14.540   0.862   7.085
11811SOL    HW237273  14.638   0.748   7.106
11812SOL     OW37274   8.747  14.772  12.035
11812SOL    HW137275   8.718  14.825  11.962
11812SOL    HW237276   8.755  14.833  12.108
11813SOL     OW37277   2.620   2.444   6.043
11813SOL    HW137278   2.527   2.466   6.052
11813SOL    HW237279   2.658   2.519   5.997
11814SOL     OW37280  11.105  10.045   6.401
11814SOL    HW137281  11.191  10.004   6.417
11814SOL    HW237282  11.086  10.024   6.310
11815SOL     OW37283   1.175   9.004   3.442
11815SOL    HW137284   1.242   8.946   3.477
11815SOL    HW237285   1.112   9.014   3.514
11816SOL     OW37286   8.412  13.260   0.217
11816SOL    HW137287   8.429  13.298   0.131
11816SOL    HW237288   8.324  13.292   0.240
11817SOL     OW37289   9.105   9.583   3.600
11817SOL    HW137290   9.126   9.578   3.507
11817SOL    HW237291   9.110   9.493   3.631
11818SOL     OW37292   8.935   8.829   1.286
11818SOL    HW137293   8.859   8.814   1.230
11818SOL    HW237294   9.007   8.848   1.226
11819SOL     OW37295   7.103   4.836   6.521
11819SOL    HW137296   7.037   4.772   6.548
11819SOL    HW237297   7.184   4.786   6.513
11820SOL     OW37298  12.140   4.653  13.833
11820SOL    HW137299  12.075   4.582  13.834
11820SOL    HW237300  12.178   4.649  13.746
11821SOL     OW37301   8.010  13.906   9.830
11821SOL    HW137302   7.921  13.940   9.819
11821SOL    HW237303   8.066  13.974   9.794
11822SOL     OW37304  14.277   0.781   4.542
11822SOL    HW137305  14.269   0.848   4.610
11822SOL    HW237306  14.267   0.698   4.588
11823SOL     OW37307   8.199   5.487   2.578
11823SOL    HW137308   8.228   5.561   2.632
11823SOL    HW237309   8.190   5.524   2.490
11824SOL     OW37310  10.744   0.206  10.361
11824SOL    HW137311  10.678   0.243  10.419
11824SOL    HW237312  10.817   0.182  10.420
11825SOL     OW37313   3.893   1.974  10.563
11825SOL    HW137314   3.925   1.971  10.654
11825SOL    HW237315   3.885   2.068  10.544
11826SOL     OW37316   3.613   4.447   1.206
11826SOL    HW137317   3.566   4.484   1.282
11826SOL    HW237318   3.558   4.470   1.131
11827SOL     OW37319   2.849   6.878   1.028
11827SOL    HW137320   2.767   6.870   1.076
11827SOL    HW237321   2.831   6.945   0.961
11828SOL     OW37322   0.279   7.561  12.721
11828SOL    HW137323   0.367   7.599  12.718
11828SOL    HW237324   0.240   7.583  12.636
11829SOL     OW37325   0.386   0.608   1.438
11829SOL    HW137326   0.442   0.656   1.378
11829SOL    HW237327   0.302   0.601   1.392
11830SOL     OW37328   9.804   6.889  12.211
11830SOL    HW137329   9.755   6.813  12.241
11830SOL    HW237330   9.736   6.955  12.192
11831SOL     OW37331   8.679  14.370  11.267
11831SOL    HW137332   8.718  14.401  11.185
11831SOL    HW237333   8.597  14.420  11.274
11832SOL     OW37334  13.155  13.696   4.053
11832SOL    HW137335  13.192  13.768   4.003
11832SOL    HW237336  13.063  13.718   4.064
11833SOL     OW37337   7.012   7.818   1.461
11833SOL    HW137338   7.076   7.857   1.521
11833SOL    HW237339   7.028   7.724   1.466
11834SOL     OW37340  14.248   4.480   2.904
11834SOL    HW137341  14.193   4.402   2.895
11834SOL    HW237342  14.337   4.449   2.888
11835SOL     OW37343   4.433   5.232   0.030
11835SOL    HW137344   4.393   5.293   0.091
11835SOL    HW237345   4.396   5.255  14.819
11836SOL     OW37346   6.062   1.440   1.602
11836SOL    HW137347   6.114   1.367   1.568
11836SOL    HW237348   5.973   1.424   1.571
11837SOL     OW37349   2.975   3.652  11.355
11837SOL    HW137350   2.984   3.558  11.338
11837SOL    HW237351   2.966   3.658  11.451
11838SOL     OW37352   2.781  14.673   7.761
11838SOL    HW137353   2.796  14.661   7.667
11838SOL    HW237354   2.730  14.596   7.787
11839SOL     OW37355   0.221  11.670   6.985
11839SOL    HW137356   0.312  11.651   6.961
11839SOL    HW237357   0.220  11.667   7.080
11840SOL     OW37358   2.975   5.071   5.573
11840SOL    HW137359   2.912   5.000   5.564
11840SOL    HW237360   2.932   5.147   5.535
11841SOL     OW37361  13.644   4.553  14.653
11841SOL    HW137362  13.598   4.566  14.736
11841SOL    HW237363  13.686   4.467  14.663
11842SOL     OW37364   7.216   4.495   7.335
11842SOL    HW137365   7.191   4.436   7.407
11842SOL    HW237366   7.309   4.515   7.352
11843SOL     OW37367   1.939   6.653   4.227
11843SOL    HW137368   1.943   6.683   4.136
11843SOL    HW237369   1.856   6.606   4.232
11844SOL     OW37370   4.584   7.985   0.300
11844SOL    HW137371   4.547   7.904   0.265
11844SOL    HW237372   4.660   8.003   0.243
11845SOL     OW37373   0.327  11.061   1.896
11845SOL    HW137374   0.263  11.014   1.844
11845SOL    HW237375   0.385  11.102   1.832
11846SOL     OW37376  10.382   2.729  13.941
11846SOL    HW137377  10.333   2.694  14.016
11846SOL    HW237378  10.472   2.701  13.957
11847SOL     OW37379  10.208   2.509   9.737
11847SOL    HW137380  10.215   2.454   9.816
11847SOL    HW237381  10.298   2.529   9.714
11848SOL     OW37382  14.525   1.520   1.810
11848SOL    HW137383  14.567   1.494   1.729
11848SOL    HW237384  14.493   1.439   1.849
11849SOL     OW37385   6.552  14.493  10.007
11849SOL    HW137386   6.617  14.443   9.957
11849SOL    HW237387   6.603  14.560  10.053
11850SOL     OW37388   3.893  10.867  12.124
11850SOL    HW137389   3.819  10.852  12.184
11850SOL    HW237390   3.968  10.881  12.181
11851SOL     OW37391   3.104   0.420  13.769
11851SOL    HW137392   3.018   0.381  13.787
11851SOL    HW237393   3.091   0.470  13.689
11852SOL     OW37394   1.609  10.976   3.693
11852SOL    HW137395   1.617  11.024   3.775
11852SOL    HW237396   1.516  10.984   3.670
11853SOL     OW37397   0.804  13.344  12.507
11853SOL    HW137398   0.760  13.292  12.574
11853SOL    HW237399   0.794  13.294  12.426
11854SOL     OW37400   4.369   3.026  13.835
11854SOL    HW137401   4.415   2.986  13.909
11854SOL    HW237402   4.309   2.957  13.805
11855SOL     OW37403   0.076   2.877   7.079
11855SOL    HW137404   0.085   2.786   7.051
11855SOL    HW237405   0.023   2.872   7.159
11856SOL     OW37406   9.705   7.840   7.696
11856SOL    HW137407   9.732   7.911   7.637
11856SOL    HW237408   9.787   7.795   7.718
11857SOL     OW37409  14.687   3.811   2.353
11857SOL    HW137410  14.763   3.816   2.295
11857SOL    HW237411  14.639   3.733   2.324
11858SOL     OW37412  14.726   8.874   7.001
11858SOL    HW137413  14.640   8.853   6.965
11858SOL    HW237414  14.769   8.924   6.932
11859SOL     OW37415   3.263  12.581   0.490
11859SOL    HW137416   3.334  12.645   0.489
11859SOL    HW237417   3.204  12.609   0.421
11860SOL     OW37418   2.859   5.187   9.706
11860SOL    HW137419   2.767   5.209   9.695
11860SOL    HW237420   2.865   5.094   9.681
11861SOL     OW37421   0.394   4.744   1.841
11861SOL    HW137422   0.394   4.783   1.929
11861SOL    HW237423   0.445   4.664   1.850
11862SOL     OW37424   8.894  10.642   4.334
11862SOL    HW137425   8.979  10.658   4.293
11862SOL    HW237426   8.872  10.723   4.379
11863SOL     OW37427  11.327   6.587  10.973
11863SOL    HW137428  11.241   6.609  10.937
11863SOL    HW237429  11.349   6.503  10.933
11864SOL     OW37430   3.844   7.671   3.839
11864SOL    HW137431   3.842   7.578   3.816
11864SOL    HW237432   3.914   7.707   3.785
11865SOL     OW37433  10.478  11.845  11.100
11865SOL    HW137434  10.476  11.908  11.172
11865SOL    HW237435  10.545  11.878  11.040
11866SOL     OW37436  13.364   8.414   1.670
11866SOL    HW137437  13.431   8.350   1.695
11866SOL    HW237438  13.408   8.471   1.607
11867SOL     OW37439   7.702   3.366   6.753
11867SOL    HW137440   7.703   3.271   6.764
11867SOL    HW237441   7.794   3.392   6.760
11868SOL     OW37442   7.855  14.701  11.683
11868SOL    HW137443   7.899  14.628  11.638
11868SOL    HW237444   7.922  14.768  11.693
11869SOL     OW37445   6.020  11.685  13.136
11869SOL    HW137446   5.988  11.730  13.058
11869SOL    HW237447   5.966  11.607  13.143
11870SOL     OW37448   0.498  14.202   3.630
11870SOL    HW137449   0.553  14.276   3.604
11870SOL    HW237450   0.549  14.124   3.607
11871SOL     OW37451  13.322   4.748  12.260
11871SOL    HW137452  13.345   4.792  12.178
11871SOL    HW237453  13.402   4.704  12.287
11872SOL     OW37454   7.302   2.925   7.706
11872SOL    HW137455   7.380   2.956   7.660
11872SOL    HW237456   7.235   2.990   7.683
11873SOL     OW37457  12.883  13.093   9.246
11873SOL    HW137458  12.954  13.130   9.193
11873SOL    HW237459  12.928  13.049   9.318
11874SOL     OW37460   1.908  10.819   0.910
11874SOL    HW137461   1.939  10.759   0.841
11874SOL    HW237462   1.814  10.801   0.916
11875SOL     OW37463  14.484  13.149  10.693
11875SOL    HW137464  14.483  13.125  10.600
11875SOL    HW237465  14.559  13.206  10.703
11876SOL     OW37466   3.131   4.318   5.998
11876SOL    HW137467   3.133   4.412   6.018
11876SOL    HW237468   3.192   4.279   6.060
11877SOL     OW37469   1.602   9.793  10.166
11877SOL    HW137470   1.543   9.846  10.220
11877SOL    HW237471   1.559   9.791  10.080
11878SOL     OW37472   3.247  11.438  13.989
11878SOL    HW137473   3.303  11.514  13.973
11878SOL    HW237474   3.301  11.364  13.962
11879SOL     OW37475   3.012   0.066   9.007
11879SOL    HW137476   2.919   0.055   9.027
11879SOL    HW237477   3.015   0.139   8.946
11880SOL     OW37478   7.970   9.853  12.400
11880SOL    HW137479   7.895   9.912  12.410
11880SOL    HW237480   7.931   9.767  12.386
11881SOL     OW37481   1.307   8.754   0.534
11881SOL    HW137482   1.303   8.666   0.498
11881SOL    HW237483   1.277   8.810   0.463
11882SOL     OW37484  13.981   1.262   7.361
11882SOL    HW137485  13.989   1.274   7.267
11882SOL    HW237486  13.907   1.317   7.387
11883SOL     OW37487   0.622  10.091  11.282
11883SOL    HW137488   0.619  10.186  11.270
11883SOL    HW237489   0.562  10.056  11.216
11884SOL     OW37490  14.859  14.785  11.183
11884SOL    HW137491  14.782  14.842  11.180
11884SOL    HW237492   0.015  14.789  11.274
11885SOL     OW37493   2.946  12.915  10.950
11885SOL    HW137494   3.020  12.858  10.930
11885SOL    HW237495   2.890  12.909  10.872
11886SOL     OW37496  12.779   6.266   1.938
11886SOL    HW137497  12.843   6.283   1.869
11886SOL    HW237498  12.707   6.326   1.919
11887SOL     OW37499  11.693  14.579  10.132
11887SOL    HW137500  11.747  14.538  10.065
11887SOL    HW237501  11.624  14.515  10.150
11888SOL     OW37502   9.354   2.855  14.747
11888SOL    HW137503   9.351   2.949  14.728
11888SOL    HW237504   9.417   2.820  14.685
11889SOL     OW37505   8.465  13.630   6.560
11889SOL    HW137506   8.394  13.650   6.620
11889SOL    HW237507   8.450  13.686   6.484
11890SOL     OW37508  11.991   6.958   5.657
11890SOL    HW137509  11.947   7.032   5.614
11890SOL    HW237510  12.083   6.984   5.661
11891SOL     OW37511   7.290  14.702   0.895
11891SOL    HW137512   7.253  14.649   0.966
11891SOL    HW237513   7.352  14.761   0.939
11892SOL     OW37514   2.020   5.237  12.440
11892SOL    HW137515   2.093   5.277  12.393
11892SOL    HW237516   1.980   5.309  12.489
11893SOL     OW37517   3.969   6.626   3.460
11893SOL    HW137518   3.993   6.719   3.456
11893SOL    HW237519   4.044   6.580   3.422
11894SOL     OW37520  10.096   0.821   8.696
11894SOL    HW137521  10.036   0.783   8.632
11894SOL    HW237522  10.174   0.765   8.691
11895SOL     OW37523   7.366   9.867  12.350
11895SOL    HW137524   7.331   9.946  12.310
11895SOL    HW237525   7.291   9.808  12.358
11896SOL     OW37526   0.551  14.287   1.374
11896SOL    HW137527   0.507  14.371   1.362
11896SOL    HW237528   0.623  14.306   1.433
11897SOL     OW37529   8.069   8.147  10.379
11897SOL    HW137530   7.997   8.111  10.431
11897SOL    HW237531   8.119   8.201  10.441
11898SOL     OW37532  10.162   5.634   6.966
11898SOL    HW137533  10.112   5.699   7.015
11898SOL    HW237534  10.160   5.555   7.020
11899SOL     OW37535   7.567  10.669  11.519
11899SOL    HW137536   7.656  10.635  11.517
11899SOL    HW237537   7.574  10.758  11.485
11900SOL     OW37538   2.169   9.686   9.474
11900SOL    HW137539   2.151   9.597   9.507
11900SOL    HW237540   2.212   9.730   9.548
11901SOL     OW37541   8.342  14.296   6.428
11901SOL    HW137542   8.421  14.311   6.478
11901SOL    HW237543   8.274  14.345   6.474
11902SOL     OW37544   3.950   0.437   5.781
11902SOL    HW137545   3.923   0.483   5.702
11902SOL    HW237546   3.873   0.439   5.838
11903SOL     OW37547   1.533  13.571   0.632
11903SOL    HW137548   1.611  13.531   0.594
11903SOL    HW237549   1.462  13.510   0.612
11904SOL     OW37550  11.516  10.340   1.748
11904SOL    HW137551  11.471  10.369   1.669
11904SOL    HW237552  11.448  10.339   1.816
11905SOL     OW37553   0.036  14.164   4.583
11905SOL    HW137554  14.861  14.183   4.663
11905SOL    HW237555   0.036  14.069   4.576
11906SOL     OW37556   0.638   3.345   0.511
11906SOL    HW137557   0.596   3.271   0.468
11906SOL    HW237558   0.634   3.415   0.446
11907SOL     OW37559   1.025   3.542   2.753
11907SOL    HW137560   1.015   3.465   2.697
11907SOL    HW237561   1.082   3.600   2.703
11908SOL     OW37562   2.971   6.685   4.446
11908SOL    HW137563   3.026   6.613   4.418
11908SOL    HW237564   2.881   6.655   4.430
11909SOL     OW37565   7.422   7.579   1.325
11909SOL    HW137566   7.330   7.562   1.305
11909SOL    HW237567   7.443   7.520   1.397
11910SOL     OW37568   7.341   1.616   8.743
11910SOL    HW137569   7.351   1.608   8.649
11910SOL    HW237570   7.302   1.533   8.770
11911SOL     OW37571   0.641  10.727   1.905
11911SOL    HW137572   0.619  10.816   1.930
11911SOL    HW237573   0.606  10.673   1.975
11912SOL     OW37574   4.729   9.219  10.733
11912SOL    HW137575   4.682   9.194  10.812
11912SOL    HW237576   4.727   9.142  10.678
11913SOL     OW37577   7.143   4.257   1.839
11913SOL    HW137578   7.227   4.263   1.793
11913SOL    HW237579   7.096   4.336   1.814
11914SOL     OW37580  12.907   5.545  13.617
11914SOL    HW137581  12.924   5.489  13.540
11914SOL    HW237582  12.815   5.570  13.609
11915SOL     OW37583  13.995   9.839   8.267
11915SOL    HW137584  14.046   9.781   8.210
11915SOL    HW237585  13.968   9.910   8.209
11916SOL     OW37586   6.361   2.778  14.028
11916SOL    HW137587   6.364   2.718  13.954
11916SOL    HW237588   6.312   2.730  14.095
11917SOL     OW37589   4.856  14.038   8.289
11917SOL    HW137590   4.763  14.036   8.268
11917SOL    HW237591   4.864  14.103   8.359
11918SOL     OW37592  10.240  12.397   0.936
11918SOL    HW137593  10.224  12.311   0.897
11918SOL    HW237594  10.217  12.386   1.029
11919SOL     OW37595   9.191   8.952  14.168
11919SOL    HW137596   9.284   8.970  14.159
11919SOL    HW237597   9.163   9.008  14.240
11920SOL     OW37598   7.462   0.680   8.570
11920SOL    HW137599   7.517   0.682   8.648
11920SOL    HW237600   7.519   0.710   8.499
11921SOL     OW37601  14.606   6.123   2.737
11921SOL    HW137602  14.542   6.159   2.798
11921SOL    HW237603  14.559   6.052   2.693
11922SOL     OW37604  12.405  11.723   3.668
11922SOL    HW137605  12.423  11.685   3.753
11922SOL    HW237606  12.455  11.805   3.667
11923SOL     OW37607  13.664   2.178   3.746
11923SOL    HW137608  13.715   2.245   3.699
11923SOL    HW237609  13.586   2.225   3.776
11924SOL     OW37610   0.538   4.155  11.175
11924SOL    HW137611   0.627   4.153  11.210
11924SOL    HW237612   0.483   4.131  11.250
11925SOL     OW37613   5.543  13.161   8.158
11925SOL    HW137614   5.603  13.216   8.107
11925SOL    HW237615   5.498  13.108   8.092
11926SOL     OW37616   0.504   4.946   7.757
11926SOL    HW137617   0.522   5.033   7.722
11926SOL    HW237618   0.441   4.908   7.695
11927SOL     OW37619  10.531  13.320   4.707
11927SOL    HW137620  10.555  13.231   4.682
11927SOL    HW237621  10.450  13.310   4.756
11928SOL     OW37622   5.335  14.669  12.213
11928SOL    HW137623   5.280  14.677  12.135
11928SOL    HW237624   5.292  14.601  12.265
11929SOL     OW37625  10.711   4.898   0.563
11929SOL    HW137626  10.742   4.946   0.640
11929SOL    HW237627  10.620   4.924   0.553
11930SOL     OW37628   2.826   6.838   0.010
11930SOL    HW137629   2.754   6.901  14.873
11930SOL    HW237630   2.903   6.893   0.024
11931SOL     OW37631  11.883  13.173   5.951
11931SOL    HW137632  11.847  13.259   5.932
11931SOL    HW237633  11.806  13.116   5.960
11932SOL     OW37634   2.664   0.633   5.813
11932SOL    HW137635   2.727   0.601   5.749
11932SOL    HW237636   2.617   0.703   5.768
11933SOL     OW37637  14.218  10.374   3.872
11933SOL    HW137638  14.230  10.374   3.777
11933SOL    HW237639  14.304  10.394   3.908
11934SOL     OW37640   2.761  13.945   2.635
11934SOL    HW137641   2.714  13.877   2.682
11934SOL    HW237642   2.736  13.933   2.543
11935SOL     OW37643   6.173  10.452  10.799
11935SOL    HW137644   6.231  10.375  10.800
11935SOL    HW237645   6.202  10.504  10.874
11936SOL     OW37646   5.990  14.475  12.623
11936SOL    HW137647   6.061  14.443  12.679
11936SOL    HW237648   5.974  14.404  12.561
11937SOL     OW37649  11.830  11.614   0.341
11937SOL    HW137650  11.890  11.623   0.267
11937SOL    HW237651  11.864  11.540   0.391
11938SOL     OW37652   1.004  14.014  14.270
11938SOL    HW137653   1.041  14.040  14.186
11938SOL    HW237654   1.075  13.968  14.315
11939SOL     OW37655  12.913   9.105   1.663
11939SOL    HW137656  12.939   9.133   1.751
11939SOL    HW237657  12.874   9.019   1.676
11940SOL     OW37658   7.954   8.873  13.998
11940SOL    HW137659   7.978   8.790  13.957
11940SOL    HW237660   8.008   8.878  14.076
11941SOL     OW37661   8.680  12.680  12.145
11941SOL    HW137662   8.679  12.763  12.193
11941SOL    HW237663   8.739  12.624  12.195
11942SOL     OW37664   9.999   7.626   3.828
11942SOL    HW137665   9.978   7.714   3.860
11942SOL    HW237666   9.948   7.618   3.747
11943SOL     OW37667   0.826   2.210   5.545
11943SOL    HW137668   0.773   2.153   5.600
11943SOL    HW237669   0.908   2.220   5.594
11944SOL     OW37670   4.952   7.145   2.573
11944SOL    HW137671   5.006   7.222   2.553
11944SOL    HW237672   4.967   7.085   2.500
11945SOL     OW37673   8.119   1.115   9.609
11945SOL    HW137674   8.200   1.078   9.645
11945SOL    HW237675   8.061   1.039   9.600
11946SOL     OW37676  10.662  12.887   5.647
11946SOL    HW137677  10.630  12.947   5.580
11946SOL    HW237678  10.741  12.928   5.681
11947SOL     OW37679  12.604  13.557  10.891
11947SOL    HW137680  12.575  13.500  10.962
11947SOL    HW237681  12.550  13.635  10.899
11948SOL     OW37682  12.887   8.069   8.792
11948SOL    HW137683  12.916   7.981   8.767
11948SOL    HW237684  12.939   8.091   8.869
11949SOL     OW37685  14.785   3.651   0.654
11949SOL    HW137686  14.792   3.556   0.649
11949SOL    HW237687  14.769   3.679   0.563
11950SOL     OW37688   3.144   0.131  13.820
11950SOL    HW137689   3.090   0.075  13.764
11950SOL    HW237690   3.130   0.219  13.784
11951SOL     OW37691  11.327   2.377   1.801
11951SOL    HW137692  11.247   2.429   1.811
11951SOL    HW237693  11.388   2.414   1.865
11952SOL     OW37694  11.318  13.215   3.151
11952SOL    HW137695  11.380  13.273   3.107
11952SOL    HW237696  11.371  13.140   3.178
11953SOL     OW37697   1.653  10.660   0.412
11953SOL    HW137698   1.649  10.730   0.476
11953SOL    HW237699   1.661  10.705   0.328
11954SOL     OW37700  14.422   4.027   9.781
11954SOL    HW137701  14.366   4.075   9.720
11954SOL    HW237702  14.389   3.937   9.777
11955SOL     OW37703   7.163   8.919   3.149
11955SOL    HW137704   7.170   8.841   3.094
11955SOL    HW237705   7.134   8.988   3.089
11956SOL     OW37706  11.027   6.198   4.643
11956SOL    HW137707  11.070   6.262   4.700
11956SOL    HW237708  10.943   6.239   4.621
11957SOL     OW37709  13.183   8.659  10.976
11957SOL    HW137710  13.219   8.726  11.034
11957SOL    HW237711  13.255   8.597  10.962
11958SOL     OW37712   8.569   2.525  11.995
11958SOL    HW137713   8.532   2.437  11.993
11958SOL    HW237714   8.506   2.578  11.947
11959SOL     OW37715   0.687   6.960   8.816
11959SOL    HW137716   0.767   6.912   8.798
11959SOL    HW237717   0.714   7.030   8.876
11960SOL     OW37718   2.595   4.063   1.378
11960SOL    HW137719   2.572   4.135   1.320
11960SOL    HW237720   2.627   3.994   1.319
11961SOL     OW37721   9.951   8.398   0.064
11961SOL    HW137722   9.882   8.347   0.106
11961SOL    HW237723   9.946   8.484   0.107
11962SOL     OW37724  13.065  12.227   8.472
11962SOL    HW137725  13.137  12.212   8.534
11962SOL    HW237726  13.079  12.317   8.441
11963SOL     OW37727   1.034  12.617   3.868
11963SOL    HW137728   1.100  12.650   3.929
11963SOL    HW237729   0.958  12.673   3.882
11964SOL     OW37730   9.021   1.213   6.581
11964SOL    HW137731   9.086   1.171   6.525
11964SOL    HW237732   9.053   1.303   6.591
11965SOL     OW37733   6.162   9.244  11.877
11965SOL    HW137734   6.108   9.277  11.806
11965SOL    HW237735   6.214   9.319  11.905
11966SOL     OW37736   9.419   2.910   3.179
11966SOL    HW137737   9.493   2.915   3.241
11966SOL    HW237738   9.396   2.818   3.176
11967SOL     OW37739   5.758   5.026   2.703
11967SOL    HW137740   5.777   4.933   2.696
11967SOL    HW237741   5.818   5.068   2.641
11968SOL     OW37742   6.732   6.270   2.272
11968SOL    HW137743   6.808   6.216   2.249
11968SOL    HW237744   6.744   6.289   2.365
11969SOL     OW37745   6.245   9.221   4.338
11969SOL    HW137746   6.323   9.276   4.334
11969SOL    HW237747   6.192   9.259   4.408
11970SOL     OW37748   6.388  12.944  12.347
11970SOL    HW137749   6.322  12.932  12.415
11970SOL    HW237750   6.401  13.039  12.344
11971SOL     OW37751   9.696  13.351  11.993
11971SOL    HW137752   9.700  13.357  12.089
11971SOL    HW237753   9.702  13.442  11.964
11972SOL     OW37754   9.968  10.287  14.004
11972SOL    HW137755   9.981  10.353  13.936
11972SOL    HW237756  10.056  10.261  14.030
11973SOL     OW37757   8.899   5.081   9.577
11973SOL    HW137758   8.968   5.146   9.595
11973SOL    HW237759   8.832   5.130   9.530
11974SOL     OW37760  14.824   8.525   1.161
11974SOL    HW137761  14.789   8.605   1.120
11974SOL    HW237762   0.009   8.488   1.096
11975SOL     OW37763   6.512  11.239   0.718
11975SOL    HW137764   6.433  11.259   0.769
11975SOL    HW237765   6.491  11.158   0.672
11976SOL     OW37766   9.820  14.149   7.268
11976SOL    HW137767   9.804  14.073   7.323
11976SOL    HW237768   9.733  14.176   7.238
11977SOL     OW37769  13.036   5.849  12.710
11977SOL    HW137770  12.988   5.769  12.733
11977SOL    HW237771  12.975   5.920  12.726
11978SOL     OW37772  13.945   9.895   9.990
11978SOL    HW137773  13.955   9.827   9.923
11978SOL    HW237774  13.856   9.881  10.025
11979SOL     OW37775   8.482   2.038   9.698
11979SOL    HW137776   8.560   2.076   9.658
11979SOL    HW237777   8.464   2.096   9.773
11980SOL     OW37778   6.093  14.415  10.092
11980SOL    HW137779   6.097  14.510  10.096
11980SOL    HW237780   6.181  14.388  10.068
11981SOL     OW37781   2.801   2.660   9.215
11981SOL    HW137782   2.811   2.577   9.167
11981SOL    HW237783   2.710   2.659   9.244
11982SOL     OW37784  13.367  11.824  14.155
11982SOL    HW137785  13.346  11.908  14.196
11982SOL    HW237786  13.290  11.804  14.101
11983SOL     OW37787   4.025   0.186  13.394
11983SOL    HW137788   4.054   0.222  13.310
11983SOL    HW237789   3.931   0.170  13.383
11984SOL     OW37790   5.789   3.008   3.195
11984SOL    HW137791   5.700   3.040   3.207
11984SOL    HW237792   5.793   2.929   3.249
11985SOL     OW37793  12.342  11.877  11.570
11985SOL    HW137794  12.385  11.822  11.635
11985SOL    HW237795  12.387  11.857  11.488
11986SOL     OW37796   4.343  12.805   1.036
11986SOL    HW137797   4.249  12.801   1.054
11986SOL    HW237798   4.357  12.745   0.964
11987SOL     OW37799   7.033   3.826   0.318
11987SOL    HW137800   6.963   3.767   0.346
11987SOL    HW237801   7.094   3.771   0.270
11988SOL     OW37802   6.179   3.497   9.961
11988SOL    HW137803   6.249   3.493   9.896
11988SOL    HW237804   6.218   3.461  10.041
11989SOL     OW37805  10.239  10.075   0.443
11989SOL    HW137806  10.154  10.088   0.402
11989SOL    HW237807  10.302  10.084   0.371
11990SOL     OW37808   0.927   6.987   4.829
11990SOL    HW137809   0.883   7.019   4.908
11990SOL    HW237810   0.867   7.008   4.758
11991SOL     OW37811   6.015  14.214   6.128
11991SOL    HW137812   6.095  14.267   6.121
11991SOL    HW237813   5.976  14.218   6.041
11992SOL     OW37814   7.513   9.345  12.352
11992SOL    HW137815   7.502   9.261  12.306
11992SOL    HW237816   7.536   9.407  12.283
11993SOL     OW37817   8.228   4.504  11.883
11993SOL    HW137818   8.230   4.503  11.979
11993SOL    HW237819   8.234   4.597  11.861
11994SOL     OW37820   9.611   8.623   2.309
11994SOL    HW137821   9.635   8.603   2.219
11994SOL    HW237822   9.524   8.661   2.303
11995SOL     OW37823  11.324   4.025  13.589
11995SOL    HW137824  11.412   4.010  13.555
11995SOL    HW237825  11.280   3.941  13.581
11996SOL     OW37826   6.369  12.768   5.483
11996SOL    HW137827   6.361  12.819   5.564
11996SOL    HW237828   6.289  12.714   5.481
11997SOL     OW37829   1.849   9.883   7.173
11997SOL    HW137830   1.903   9.813   7.210
11997SOL    HW237831   1.761   9.866   7.208
11998SOL     OW37832   8.907  13.009   7.536
11998SOL    HW137833   8.837  12.944   7.543
11998SOL    HW237834   8.925  13.035   7.626
11999SOL     OW37835   4.869  11.327   3.433
11999SOL    HW137836   4.823  11.409   3.451
11999SOL    HW237837   4.806  11.274   3.385
12000SOL     OW37838   0.787  11.354  13.285
12000SOL    HW137839   0.710  11.319  13.331
12000SOL    HW237840   0.767  11.447  13.273
12001SOL     OW37841  12.460  11.091  13.648
12001SOL    HW137842  12.396  11.068  13.715
12001SOL    HW237843  12.540  11.112  13.697
12002SOL     OW37844   4.897   4.363  11.352
12002SOL    HW137845   4.941   4.390  11.271
12002SOL    HW237846   4.806   4.389  11.339
12003SOL     OW37847   0.149   1.913  14.123
12003SOL    HW137848   0.203   1.973  14.174
12003SOL    HW237849   0.141   1.954  14.037
12004SOL     OW37850   4.928   5.257  13.963
12004SOL    HW137851   4.909   5.253  13.869
12004SOL    HW237852   4.995   5.324  13.972
12005SOL     OW37853   8.796   6.756  14.685
12005SOL    HW137854   8.707   6.727  14.663
12005SOL    HW237855   8.803   6.843  14.646
12006SOL     OW37856  14.210   6.070   4.912
12006SOL    HW137857  14.126   6.080   4.866
12006SOL    HW237858  14.249   5.991   4.874
12007SOL     OW37859   6.063   1.351   6.641
12007SOL    HW137860   6.065   1.303   6.724
12007SOL    HW237861   6.154   1.353   6.611
12008SOL     OW37862   4.316   1.869   0.789
12008SOL    HW137863   4.351   1.957   0.778
12008SOL    HW237864   4.221   1.880   0.786
12009SOL     OW37865   1.339   3.791   9.738
12009SOL    HW137866   1.363   3.720   9.679
12009SOL    HW237867   1.384   3.868   9.703
12010SOL     OW37868   4.034   7.214   6.916
12010SOL    HW137869   4.023   7.166   6.997
12010SOL    HW237870   3.987   7.162   6.851
12011SOL     OW37871   5.762   3.185   5.338
12011SOL    HW137872   5.814   3.140   5.405
12011SOL    HW237873   5.679   3.138   5.336
12012SOL     OW37874   7.178  12.501   8.332
12012SOL    HW137875   7.186  12.434   8.264
12012SOL    HW237876   7.228  12.466   8.406
12013SOL     OW37877  12.774   9.350   5.241
12013SOL    HW137878  12.746   9.263   5.269
12013SOL    HW237879  12.735   9.360   5.154
12014SOL     OW37880   4.557  10.021  11.373
12014SOL    HW137881   4.490  10.079  11.411
12014SOL    HW237882   4.555  10.041  11.280
12015SOL     OW37883   0.441   8.259   6.607
12015SOL    HW137884   0.355   8.222   6.626
12015SOL    HW237885   0.436   8.349   6.639
12016SOL     OW37886   9.282  14.216  13.613
12016SOL    HW137887   9.276  14.289  13.552
12016SOL    HW237888   9.313  14.256  13.695
12017SOL     OW37889   9.651   1.048  14.090
12017SOL    HW137890   9.704   1.099  14.029
12017SOL    HW237891   9.646   0.961  14.051
12018SOL     OW37892  11.781   2.380   5.496
12018SOL    HW137893  11.867   2.417   5.477
12018SOL    HW237894  11.720   2.450   5.471
12019SOL     OW37895  13.964  10.185   1.122
12019SOL    HW137896  13.926  10.190   1.209
12019SOL    HW237897  13.985  10.092   1.111
12020SOL     OW37898   2.740   4.631   6.604
12020SOL    HW137899   2.748   4.675   6.520
12020SOL    HW237900   2.649   4.600   6.606
12021SOL     OW37901   6.495   4.236  14.173
12021SOL    HW137902   6.452   4.241  14.259
12021SOL    HW237903   6.584   4.270  14.189
12022SOL     OW37904   5.747  10.346  11.429
12022SOL    HW137905   5.683  10.368  11.361
12022SOL    HW237906   5.815  10.298  11.382
12023SOL     OW37907  12.233   2.829   9.887
12023SOL    HW137908  12.243   2.743   9.845
12023SOL    HW237909  12.164   2.815   9.952
12024SOL     OW37910  13.651  12.249   6.192
12024SOL    HW137911  13.657  12.167   6.241
12024SOL    HW237912  13.742  12.279   6.185
12025SOL     OW37913  10.894   6.777  10.729
12025SOL    HW137914  10.867   6.856  10.683
12025SOL    HW237915  10.829   6.767  10.799
12026SOL     OW37916   3.728   8.058   4.964
12026SOL    HW137917   3.803   8.020   5.010
12026SOL    HW237918   3.684   8.112   5.030
12027SOL     OW37919  14.109   2.272   8.400
12027SOL    HW137920  14.040   2.337   8.384
12027SOL    HW237921  14.159   2.270   8.319
12028SOL     OW37922  11.108   6.826   8.890
12028SOL    HW137923  11.092   6.909   8.935
12028SOL    HW237924  11.024   6.780   8.893
12029SOL     OW37925  14.639   1.706   0.025
12029SOL    HW137926  14.685   1.780   0.066
12029SOL    HW237927  14.708   1.656  14.856
12030SOL     OW37928   6.783   0.092  11.112
12030SOL    HW137929   6.698   0.134  11.104
12030SOL    HW237930   6.845   0.154  11.074
12031SOL     OW37931  14.438  10.565   9.188
12031SOL    HW137932  14.496  10.536   9.117
12031SOL    HW237933  14.423  10.486   9.241
12032SOL     OW37934   7.407   5.985   8.541
12032SOL    HW137935   7.415   5.944   8.627
12032SOL    HW237936   7.440   6.074   8.553
12033SOL     OW37937   3.650  10.554   5.688
12033SOL    HW137938   3.613  10.487   5.630
12033SOL    HW237939   3.586  10.624   5.688
12034SOL     OW37940   6.058   7.922   5.847
12034SOL    HW137941   6.013   7.842   5.875
12034SOL    HW237942   6.016   7.992   5.896
12035SOL     OW37943  12.604   9.320  11.082
12035SOL    HW137944  12.652   9.349  11.004
12035SOL    HW237945  12.662   9.342  11.155
12036SOL     OW37946   3.225   9.645  12.634
12036SOL    HW137947   3.280   9.600  12.697
12036SOL    HW237948   3.282   9.712  12.596
12037SOL     OW37949   8.523  14.826   8.001
12037SOL    HW137950   8.521   0.046   8.022
12037SOL    HW237951   8.445  14.790   8.044
12038SOL     OW37952   8.478   2.264   4.924
12038SOL    HW137953   8.505   2.198   4.860
12038SOL    HW237954   8.515   2.234   5.007
12039SOL     OW37955   2.365   6.397  10.137
12039SOL    HW137956   2.308   6.381  10.212
12039SOL    HW237957   2.384   6.491  10.142
12040SOL     OW37958   4.670   4.480   6.981
12040SOL    HW137959   4.653   4.487   6.887
12040SOL    HW237960   4.731   4.407   6.989
12041SOL     OW37961   6.403   8.014   3.588
12041SOL    HW137962   6.417   8.040   3.497
12041SOL    HW237963   6.319   7.968   3.587
12042SOL     OW37964  11.101  12.688   5.448
12042SOL    HW137965  11.149  12.606   5.434
12042SOL    HW237966  11.103  12.731   5.362
12043SOL     OW37967   4.063  12.875  10.156
12043SOL    HW137968   4.056  12.780  10.165
12043SOL    HW237969   4.122  12.888  10.081
12044SOL     OW37970  14.269  12.074   0.970
12044SOL    HW137971  14.276  12.141   1.038
12044SOL    HW237972  14.358  12.042   0.958
12045SOL     OW37973   7.897   4.737  13.006
12045SOL    HW137974   7.818   4.689  12.983
12045SOL    HW237975   7.942   4.751  12.922
12046SOL     OW37976   4.908   1.860   6.850
12046SOL    HW137977   4.831   1.820   6.890
12046SOL    HW237978   4.980   1.801   6.872
12047SOL     OW37979  12.702   0.610   9.205
12047SOL    HW137980  12.641   0.671   9.245
12047SOL    HW237981  12.646   0.545   9.161
12048SOL     OW37982   8.061  10.348   0.947
12048SOL    HW137983   8.096  10.437   0.955
12048SOL    HW237984   7.971  10.354   0.979
12049SOL     OW37985   5.113   5.513   5.016
12049SOL    HW137986   5.196   5.465   5.016
12049SOL    HW237987   5.061   5.472   5.084
12050SOL     OW37988   7.520   0.325   6.330
12050SOL    HW137989   7.572   0.248   6.348
12050SOL    HW237990   7.430   0.299   6.350
12051SOL     OW37991  11.612   3.729  12.218
12051SOL    HW137992  11.543   3.765  12.275
12051SOL    HW237993  11.564   3.679  12.152
12052SOL     OW37994   4.896   0.591   8.329
12052SOL    HW137995   4.948   0.650   8.384
12052SOL    HW237996   4.851   0.649   8.267
12053SOL     OW37997   0.575  13.519   6.657
12053SOL    HW137998   0.606  13.457   6.591
12053SOL    HW237999   0.649  13.530   6.717
12054SOL     OW38000  12.735  14.010   7.591
12054SOL    HW138001  12.658  14.053   7.627
12054SOL    HW238002  12.703  13.969   7.510
12055SOL     OW38003   9.947   1.232  13.368
12055SOL    HW138004   9.916   1.150  13.329
12055SOL    HW238005   9.912   1.231  13.457
12056SOL     OW38006   1.349   7.800   2.674
12056SOL    HW138007   1.279   7.808   2.739
12056SOL    HW238008   1.313   7.741   2.608
12057SOL     OW38009   0.288   0.307  14.186
12057SOL    HW138010   0.346   0.342  14.118
12057SOL    HW238011   0.336   0.321  14.268
12058SOL     OW38012   0.924  11.871   5.435
12058SOL    HW138013   0.996  11.842   5.492
12058SOL    HW238014   0.946  11.834   5.349
12059SOL     OW38015   3.672   4.341  14.011
12059SOL    HW138016   3.725   4.366  14.087
12059SOL    HW238017   3.684   4.246  14.004
12060SOL     OW38018  14.297   7.754   5.237
12060SOL    HW138019  14.362   7.684   5.225
12060SOL    HW238020  14.215   7.708   5.253
12061SOL     OW38021  11.850   3.650  13.860
12061SOL    HW138022  11.867   3.579  13.797
12061SOL    HW238023  11.756   3.644  13.878
12062SOL     OW38024   7.220  13.811   3.197
12062SOL    HW138025   7.215  13.767   3.281
12062SOL    HW238026   7.239  13.741   3.134
12063SOL     OW38027  14.628  10.796   3.406
12063SOL    HW138028  14.662  10.707   3.404
12063SOL    HW238029  14.557  10.797   3.342
12064SOL     OW38030  11.779   7.102   2.551
12064SOL    HW138031  11.761   7.195   2.541
12064SOL    HW238032  11.797   7.071   2.463
12065SOL     OW38033  14.809   1.806  11.762
12065SOL    HW138034  14.791   1.724  11.808
12065SOL    HW238035   0.028   1.801  11.740
12066SOL     OW38036   6.208   4.340   2.635
12066SOL    HW138037   6.242   4.406   2.574
12066SOL    HW238038   6.125   4.378   2.666
12067SOL     OW38039   7.393  14.275   9.251
12067SOL    HW138040   7.345  14.275   9.334
12067SOL    HW238041   7.358  14.351   9.203
12068SOL     OW38042  10.537   3.166   0.720
12068SOL    HW138043  10.532   3.261   0.734
12068SOL    HW238044  10.479   3.130   0.786
12069SOL     OW38045  11.479   3.591  13.529
12069SOL    HW138046  11.520   3.574  13.614
12069SOL    HW238047  11.385   3.593  13.548
12070SOL     OW38048  12.651  11.820  14.566
12070SOL    HW138049  12.584  11.775  14.617
12070SOL    HW238050  12.675  11.896  14.619
12071SOL     OW38051   1.164  10.414  12.515
12071SOL    HW138052   1.160  10.502  12.478
12071SOL    HW238053   1.159  10.356  12.439
12072SOL     OW38054   2.630  10.471   6.516
12072SOL    HW138055   2.621  10.440   6.606
12072SOL    HW238056   2.540  10.470   6.482
12073SOL     OW38057   4.240   9.456  11.968
12073SOL    HW138058   4.270   9.545  11.988
12073SOL    HW238059   4.174   9.438  12.034
12074SOL     OW38060   0.652   3.748   9.575
12074SOL    HW138061   0.581   3.714   9.630
12074SOL    HW238062   0.729   3.697   9.600
12075SOL     OW38063   1.773   6.478   0.574
12075SOL    HW138064   1.857   6.437   0.595
12075SOL    HW238065   1.750   6.443   0.488
12076SOL     OW38066   4.906  10.555   8.793
12076SOL    HW138067   4.848  10.552   8.717
12076SOL    HW238068   4.846  10.560   8.868
12077SOL     OW38069   5.084   5.634   0.690
12077SOL    HW138070   5.064   5.691   0.616
12077SOL    HW238071   5.145   5.569   0.654
12078SOL     OW38072  12.530   5.263   7.256
12078SOL    HW138073  12.467   5.192   7.267
12078SOL    HW238074  12.608   5.234   7.305
12079SOL     OW38075  12.912   7.700   6.376
12079SOL    HW138076  12.846   7.640   6.413
12079SOL    HW238077  12.941   7.657   6.295
12080SOL     OW38078   9.092   4.587   5.450
12080SOL    HW138079   9.029   4.528   5.409
12080SOL    HW238080   9.177   4.552   5.423
12081SOL     OW38081   3.452   3.749   7.655
12081SOL    HW138082   3.526   3.745   7.716
12081SOL    HW238083   3.446   3.841   7.629
12082SOL     OW38084   1.728  10.217   5.003
12082SOL    HW138085   1.795  10.285   5.013
12082SOL    HW238086   1.778  10.135   4.995
12083SOL     OW38087   2.960   8.038   8.176
12083SOL    HW138088   2.893   7.973   8.200
12083SOL    HW238089   2.915   8.096   8.114
12084SOL     OW38090   5.396  13.972   6.156
12084SOL    HW138091   5.307  13.959   6.188
12084SOL    HW238092   5.452  13.952   6.231
12085SOL     OW38093   8.498   3.440   2.304
12085SOL    HW138094   8.508   3.523   2.258
12085SOL    HW238095   8.409   3.442   2.339
12086SOL     OW38096  13.224   5.121   3.402
12086SOL    HW138097  13.146   5.069   3.418
12086SOL    HW238098  13.292   5.057   3.380
12087SOL     OW38099  10.733   4.312   5.087
12087SOL    HW138100  10.773   4.394   5.059
12087SOL    HW238101  10.676   4.337   5.160
12088SOL     OW38102   7.246   3.574   0.585
12088SOL    HW138103   7.312   3.621   0.534
12088SOL    HW238104   7.239   3.489   0.541
12089SOL     OW38105   9.506   6.166   4.797
12089SOL    HW138106   9.545   6.252   4.808
12089SOL    HW238107   9.466   6.146   4.882
12090SOL     OW38108   7.544  11.396   3.123
12090SOL    HW138109   7.456  11.411   3.089
12090SOL    HW238110   7.543  11.306   3.156
12091SOL     OW38111   9.201   9.693   1.021
12091SOL    HW138112   9.290   9.718   0.997
12091SOL    HW238113   9.210   9.652   1.107
12092SOL     OW38114   0.815  11.196   4.311
12092SOL    HW138115   0.768  11.279   4.302
12092SOL    HW238116   0.748  11.132   4.333
12093SOL     OW38117   2.905   3.939   0.192
12093SOL    HW138118   2.870   3.938   0.281
12093SOL    HW238119   2.899   3.848   0.163
12094SOL     OW38120   4.509   0.597   7.036
12094SOL    HW138121   4.518   0.588   7.131
12094SOL    HW238122   4.499   0.507   7.004
12095SOL     OW38123  11.478  11.507  10.176
12095SOL    HW138124  11.533  11.442  10.220
12095SOL    HW238125  11.534  11.584  10.166
12096SOL     OW38126   2.685  13.552  11.332
12096SOL    HW138127   2.651  13.514  11.413
12096SOL    HW238128   2.768  13.506  11.317
12097SOL     OW38129  12.687  10.757  12.153
12097SOL    HW138130  12.770  10.789  12.116
12097SOL    HW238131  12.638  10.837  12.173
12098SOL     OW38132  11.665   6.027   5.990
12098SOL    HW138133  11.657   5.963   6.061
12098SOL    HW238134  11.600   6.000   5.925
12099SOL     OW38135   2.913  12.194  13.811
12099SOL    HW138136   2.996  12.159  13.842
12099SOL    HW238137   2.874  12.122  13.761
12100SOL     OW38138   0.170   8.180  11.009
12100SOL    HW138139   0.257   8.142  10.997
12100SOL    HW238140   0.165   8.202  11.102
12101SOL     OW38141   6.329   0.384   0.265
12101SOL    HW138142   6.370   0.314   0.316
12101SOL    HW238143   6.382   0.462   0.283
12102SOL     OW38144   6.332  12.744   4.193
12102SOL    HW138145   6.365  12.661   4.226
12102SOL    HW238146   6.359  12.746   4.101
12103SOL     OW38147   0.100   6.823   6.308
12103SOL    HW138148   0.161   6.896   6.314
12103SOL    HW238149   0.059   6.832   6.222
12104SOL     OW38150   3.961   4.845   4.366
12104SOL    HW138151   3.984   4.900   4.291
12104SOL    HW238152   3.951   4.757   4.330
12105SOL     OW38153  10.913   8.174   9.114
12105SOL    HW138154  10.821   8.164   9.090
12105SOL    HW238155  10.952   8.089   9.093
12106SOL     OW38156   9.885   1.206  11.230
12106SOL    HW138157   9.839   1.189  11.313
12106SOL    HW238158   9.872   1.126  11.179
12107SOL     OW38159   5.819  10.848   0.473
12107SOL    HW138160   5.773  10.807   0.546
12107SOL    HW238161   5.882  10.782   0.444
12108SOL     OW38162  11.714  10.429   8.504
12108SOL    HW138163  11.735  10.408   8.413
12108SOL    HW238164  11.694  10.523   8.503
12109SOL     OW38165   3.069   6.418  11.346
12109SOL    HW138166   3.108   6.489  11.295
12109SOL    HW238167   2.997   6.460  11.393
12110SOL     OW38168  13.460   9.096  14.326
12110SOL    HW138169  13.499   9.129  14.245
12110SOL    HW238170  13.526   9.113  14.393
12111SOL     OW38171   2.622   8.287   6.025
12111SOL    HW138172   2.614   8.332   6.109
12111SOL    HW238173   2.715   8.267   6.017
12112SOL     OW38174   2.925  13.629   5.676
12112SOL    HW138175   2.972  13.607   5.756
12112SOL    HW238176   2.833  13.633   5.702
12113SOL     OW38177   6.596   0.415   2.074
12113SOL    HW138178   6.677   0.383   2.034
12113SOL    HW238179   6.622   0.494   2.121
12114SOL     OW38180   2.190   7.990   4.672
12114SOL    HW138181   2.231   7.918   4.721
12114SOL    HW238182   2.117   7.949   4.626
12115SOL     OW38183   8.257   1.790   7.709
12115SOL    HW138184   8.318   1.853   7.671
12115SOL    HW238185   8.240   1.728   7.638
12116SOL     OW38186   6.719   4.896  11.898
12116SOL    HW138187   6.743   4.895  11.806
12116SOL    HW238188   6.755   4.978  11.931
12117SOL     OW38189   6.630   2.531   6.706
12117SOL    HW138190   6.578   2.452   6.689
12117SOL    HW238191   6.720   2.500   6.711
12118SOL     OW38192   7.001  10.628   9.793
12118SOL    HW138193   7.027  10.608   9.883
12118SOL    HW238194   7.083  10.654   9.751
12119SOL     OW38195   1.888   4.879  12.749
12119SOL    HW138196   1.809   4.921  12.783
12119SOL    HW238197   1.874   4.874  12.655
12120SOL     OW38198  14.807   7.117   9.011
12120SOL    HW138199  14.848   7.169   9.081
12120SOL    HW238200  14.713   7.133   9.022
12121SOL     OW38201  11.870   1.515   1.405
12121SOL    HW138202  11.844   1.570   1.331
12121SOL    HW238203  11.957   1.549   1.429
12122SOL     OW38204  13.057   6.209  14.226
12122SOL    HW138205  13.070   6.137  14.164
12122SOL    HW238206  12.990   6.264  14.186
12123SOL     OW38207  13.137  10.794   0.906
12123SOL    HW138208  13.153  10.875   0.857
12123SOL    HW238209  13.210  10.788   0.968
12124SOL     OW38210   3.912   9.511  13.519
12124SOL    HW138211   3.915   9.495  13.613
12124SOL    HW238212   3.845   9.450  13.487
12125SOL     OW38213   1.662   1.532   4.433
12125SOL    HW138214   1.578   1.499   4.400
12125SOL    HW238215   1.717   1.454   4.439
12126SOL     OW38216   3.724   9.192   8.649
12126SOL    HW138217   3.695   9.122   8.590
12126SOL    HW238218   3.783   9.245   8.596
12127SOL     OW38219  10.724   9.056   6.184
12127SOL    HW138220  10.727   8.960   6.178
12127SOL    HW238221  10.681   9.083   6.103
12128SOL     OW38222   1.612   8.620  11.889
12128SOL    HW138223   1.656   8.535  11.885
12128SOL    HW238224   1.652   8.665  11.963
12129SOL     OW38225   5.591  10.944   4.005
12129SOL    HW138226   5.531  11.013   3.979
12129SOL    HW238227   5.564  10.920   4.094
12130SOL     OW38228   2.160   9.715  10.695
12130SOL    HW138229   2.212   9.794  10.712
12130SOL    HW238230   2.099   9.741  10.626
12131SOL     OW38231   0.835  11.960   7.192
12131SOL    HW138232   0.843  11.876   7.148
12131SOL    HW238233   0.806  12.020   7.122
12132SOL     OW38234   7.213   8.514  14.080
12132SOL    HW138235   7.190   8.523  14.172
12132SOL    HW238236   7.160   8.580  14.035
12133SOL     OW38237  12.636  14.551   4.739
12133SOL    HW138238  12.653  14.563   4.645
12133SOL    HW238239  12.585  14.628   4.764
12134SOL     OW38240   2.857  11.634  13.013
12134SOL    HW138241   2.935  11.580  13.000
12134SOL    HW238242   2.843  11.677  12.929
12135SOL     OW38243   4.544   2.806   3.831
12135SOL    HW138244   4.497   2.800   3.914
12135SOL    HW238245   4.604   2.880   3.843
12136SOL     OW38246   7.611  10.436  11.326
12136SOL    HW138247   7.609  10.519  11.279
12136SOL    HW238248   7.703  10.425  11.352
12137SOL     OW38249   8.145   5.613   4.509
12137SOL    HW138250   8.164   5.526   4.474
12137SOL    HW238251   8.104   5.660   4.436
12138SOL     OW38252  10.599  12.910   7.925
12138SOL    HW138253  10.630  13.001   7.924
12138SOL    HW238254  10.509  12.916   7.956
12139SOL     OW38255   0.054  11.875   2.184
12139SOL    HW138256  14.848  11.827   2.162
12139SOL    HW238257   0.110  11.865   2.108
12140SOL     OW38258  12.893   8.852   8.102
12140SOL    HW138259  12.989   8.850   8.094
12140SOL    HW238260  12.876   8.840   8.195
12141SOL     OW38261   5.785   1.419  13.711
12141SOL    HW138262   5.843   1.362  13.762
12141SOL    HW238263   5.785   1.501  13.760
12142SOL     OW38264   9.522  14.550  13.265
12142SOL    HW138265   9.597  14.599  13.297
12142SOL    HW238266   9.509  14.582  13.176
12143SOL     OW38267   2.163  10.998   1.678
12143SOL    HW138268   2.150  10.964   1.590
12143SOL    HW238269   2.242  11.051   1.672
12144SOL     OW38270   1.272   4.427   1.852
12144SOL    HW138271   1.241   4.464   1.934
12144SOL    HW238272   1.368   4.430   1.859
12145SOL     OW38273  14.709   7.463  14.149
12145SOL    HW138274  14.722   7.369  14.160
12145SOL    HW238275  14.774   7.488  14.083
12146SOL     OW38276   1.655  13.487   3.295
12146SOL    HW138277   1.683  13.395   3.291
12146SOL    HW238278   1.725  13.534   3.249
12147SOL     OW38279  12.005   7.093   4.194
12147SOL    HW138280  12.059   7.170   4.209
12147SOL    HW238281  12.068   7.023   4.174
12148SOL     OW38282  12.477   7.766   1.940
12148SOL    HW138283  12.531   7.817   1.880
12148SOL    HW238284  12.539   7.710   1.988
12149SOL     OW38285   7.114  13.255   1.829
12149SOL    HW138286   7.193  13.307   1.815
12149SOL    HW238287   7.125  13.217   1.916
12150SOL     OW38288  11.912  11.262  12.057
12150SOL    HW138289  11.938  11.353  12.041
12150SOL    HW238290  11.899  11.257  12.152
12151SOL     OW38291  12.788  14.510   0.472
12151SOL    HW138292  12.876  14.546   0.480
12151SOL    HW238293  12.760  14.535   0.384
12152SOL     OW38294   6.224   6.496   1.649
12152SOL    HW138295   6.313   6.500   1.683
12152SOL    HW238296   6.234   6.479   1.556
12153SOL     OW38297   3.087  13.881  10.962
12153SOL    HW138298   3.124  13.794  10.944
12153SOL    HW238299   3.159  13.930  11.000
12154SOL     OW38300   8.780   8.493  10.733
12154SOL    HW138301   8.744   8.575  10.702
12154SOL    HW238302   8.721   8.465  10.803
12155SOL     OW38303  11.819   2.892   1.278
12155SOL    HW138304  11.755   2.889   1.349
12155SOL    HW238305  11.767   2.882   1.199
12156SOL     OW38306   3.154   4.154   3.564
12156SOL    HW138307   3.140   4.095   3.490
12156SOL    HW238308   3.137   4.241   3.529
12157SOL     OW38309   2.188  11.564   1.098
12157SOL    HW138310   2.093  11.576   1.106
12157SOL    HW238311   2.211  11.612   1.018
12158SOL     OW38312  10.637   5.596   8.020
12158SOL    HW138313  10.550   5.556   8.009
12158SOL    HW238314  10.695   5.539   7.970
12159SOL     OW38315   9.851  14.786   5.820
12159SOL    HW138316   9.946  14.791   5.810
12159SOL    HW238317   9.827  14.702   5.781
12160SOL     OW38318   6.455   2.459   4.049
12160SOL    HW138319   6.499   2.433   4.130
12160SOL    HW238320   6.362   2.456   4.071
12161SOL     OW38321   8.228  12.464  11.255
12161SOL    HW138322   8.218  12.439  11.347
12161SOL    HW238323   8.236  12.559  11.257
12162SOL     OW38324   4.444  13.089  12.060
12162SOL    HW138325   4.485  13.164  12.016
12162SOL    HW238326   4.429  13.120  12.149
12163SOL     OW38327   5.543   6.751   5.133
12163SOL    HW138328   5.490   6.744   5.213
12163SOL    HW238329   5.561   6.660   5.108
12164SOL     OW38330   3.266   6.564   0.796
12164SOL    HW138331   3.218   6.580   0.877
12164SOL    HW238332   3.200   6.530   0.736
12165SOL     OW38333   7.557   7.966   0.755
12165SOL    HW138334   7.580   7.921   0.835
12165SOL    HW238335   7.466   7.992   0.767
12166SOL     OW38336   9.588   6.979   9.089
12166SOL    HW138337   9.607   7.054   9.145
12166SOL    HW238338   9.543   6.917   9.146
12167SOL     OW38339   0.594   4.471   7.271
12167SOL    HW138340   0.593   4.404   7.204
12167SOL    HW238341   0.580   4.553   7.224
12168SOL     OW38342  10.782   5.959   4.832
12168SOL    HW138343  10.780   6.053   4.847
12168SOL    HW238344  10.841   5.947   4.758
12169SOL     OW38345   0.245   3.182   0.377
12169SOL    HW138346   0.314   3.237   0.342
12169SOL    HW238347   0.174   3.242   0.398
12170SOL     OW38348  11.670   9.294  13.257
12170SOL    HW138349  11.711   9.301  13.343
12170SOL    HW238350  11.743   9.287  13.196
12171SOL     OW38351   7.539   5.308  11.789
12171SOL    HW138352   7.463   5.255  11.812
12171SOL    HW238353   7.501   5.390  11.755
12172SOL     OW38354   5.552  12.032   6.401
12172SOL    HW138355   5.510  12.118   6.397
12172SOL    HW238356   5.638  12.045   6.361
12173SOL     OW38357  10.906  12.569   2.513
12173SOL    HW138358  10.904  12.481   2.549
12173SOL    HW238359  10.975  12.566   2.446
12174SOL     OW38360   8.544   8.779   4.916
12174SOL    HW138361   8.556   8.739   4.830
12174SOL    HW238362   8.450   8.794   4.923
12175SOL     OW38363   9.048   2.450  13.498
12175SOL    HW138364   9.041   2.493  13.584
12175SOL    HW238365   9.003   2.366  13.510
12176SOL     OW38366  12.212   3.704   4.838
12176SOL    HW138367  12.189   3.797   4.830
12176SOL    HW238368  12.182   3.665   4.756
12177SOL     OW38369   8.700   6.667  10.283
12177SOL    HW138370   8.660   6.723  10.350
12177SOL    HW238371   8.658   6.694  10.201
12178SOL     OW38372   9.358   3.884  10.205
12178SOL    HW138373   9.427   3.820  10.191
12178SOL    HW238374   9.343   3.884  10.299
12179SOL     OW38375   0.844  12.636   3.543
12179SOL    HW138376   0.761  12.643   3.590
12179SOL    HW238377   0.868  12.726   3.522
12180SOL     OW38378   7.461   1.004  10.940
12180SOL    HW138379   7.518   0.994  11.017
12180SOL    HW238380   7.511   0.964  10.869
12181SOL     OW38381   3.354   7.625   8.791
12181SOL    HW138382   3.306   7.600   8.870
12181SOL    HW238383   3.399   7.545   8.764
12182SOL     OW38384   9.842   7.087   6.211
12182SOL    HW138385   9.800   7.153   6.268
12182SOL    HW238386   9.933   7.116   6.205
12183SOL     OW38387   9.773  14.129   1.017
12183SOL    HW138388   9.813  14.061   1.072
12183SOL    HW238389   9.798  14.105   0.928
12184SOL     OW38390   6.723   0.535   8.797
12184SOL    HW138391   6.723   0.592   8.873
12184SOL    HW238392   6.771   0.584   8.730
12185SOL     OW38393  14.735  10.284   8.377
12185SOL    HW138394  14.794  10.347   8.335
12185SOL    HW238395  14.775  10.268   8.463
12186SOL     OW38396   2.583   2.714   0.104
12186SOL    HW138397   2.596   2.805   0.132
12186SOL    HW238398   2.553   2.722   0.014
12187SOL     OW38399   1.626   7.938  14.670
12187SOL    HW138400   1.703   7.966  14.719
12187SOL    HW238401   1.652   7.944  14.578
12188SOL     OW38402   5.180  10.618  12.877
12188SOL    HW138403   5.175  10.709  12.850
12188SOL    HW238404   5.101  10.604  12.929
12189SOL     OW38405  13.659  12.449   3.984
12189SOL    HW138406  13.737  12.504   3.980
12189SOL    HW238407  13.685  12.373   4.036
12190SOL     OW38408  10.000   5.858   1.908
12190SOL    HW138409   9.970   5.767   1.904
12190SOL    HW238410  10.016   5.874   2.001
12191SOL     OW38411  12.873   2.648   0.217
12191SOL    HW138412  12.900   2.630   0.307
12191SOL    HW238413  12.847   2.563   0.182
12192SOL     OW38414  10.383   4.229   3.265
12192SOL    HW138415  10.329   4.186   3.332
12192SOL    HW238416  10.320   4.270   3.206
12193SOL     OW38417   3.386   8.969   3.965
12193SOL    HW138418   3.427   8.921   4.037
12193SOL    HW238419   3.414   9.059   3.977
12194SOL     OW38420   4.272   9.463  11.582
12194SOL    HW138421   4.287   9.549  11.622
12194SOL    HW238422   4.248   9.406  11.655
12195SOL     OW38423  13.191   4.907  10.433
12195SOL    HW138424  13.246   4.887  10.508
12195SOL    HW238425  13.247   4.892  10.357
12196SOL     OW38426   1.123   5.260   2.687
12196SOL    HW138427   1.103   5.351   2.710
12196SOL    HW238428   1.100   5.254   2.594
12197SOL     OW38429   9.785  11.891   9.599
12197SOL    HW138430   9.776  11.846   9.683
12197SOL    HW238431   9.873  11.870   9.569
12198SOL     OW38432   4.349   3.151   3.678
12198SOL    HW138433   4.320   3.060   3.671
12198SOL    HW238434   4.320   3.178   3.765
12199SOL     OW38435   5.571   0.845   8.539
12199SOL    HW138436   5.539   0.879   8.622
12199SOL    HW238437   5.501   0.788   8.507
12200SOL     OW38438   7.063  10.917   3.596
12200SOL    HW138439   7.115  10.948   3.522
12200SOL    HW238440   6.975  10.903   3.559
12201SOL     OW38441  11.717  10.618   2.476
12201SOL    HW138442  11.811  10.607   2.489
12201SOL    HW238443  11.691  10.686   2.538
12202SOL     OW38444   8.107   8.707   3.293
12202SOL    HW138445   8.063   8.649   3.355
12202SOL    HW238446   8.200   8.693   3.309
12203SOL     OW38447   1.138   7.414   4.605
12203SOL    HW138448   1.157   7.444   4.694
12203SOL    HW238449   1.204   7.345   4.589
12204SOL     OW38450  11.716   0.831   2.605
12204SOL    HW138451  11.721   0.763   2.539
12204SOL    HW238452  11.734   0.912   2.557
12205SOL     OW38453   8.128   8.760   0.672
12205SOL    HW138454   8.033   8.772   0.672
12205SOL    HW238455   8.140   8.665   0.663
12206SOL     OW38456  12.030  13.493  13.488
12206SOL    HW138457  12.058  13.520  13.400
12206SOL    HW238458  12.006  13.401  13.478
12207SOL     OW38459   9.313  14.457   2.247
12207SOL    HW138460   9.252  14.513   2.296
12207SOL    HW238461   9.277  14.456   2.158
12208SOL     OW38462  14.814  12.988   6.988
12208SOL    HW138463  14.837  13.081   6.980
12208SOL    HW238464  14.759  12.984   7.066
12209SOL     OW38465   7.036  11.552  11.140
12209SOL    HW138466   7.048  11.492  11.066
12209SOL    HW238467   6.955  11.599  11.119
12210SOL     OW38468   1.072  12.219  10.813
12210SOL    HW138469   1.081  12.308  10.780
12210SOL    HW238470   1.066  12.164  10.735
12211SOL     OW38471  11.539   6.468  10.377
12211SOL    HW138472  11.499   6.553  10.397
12211SOL    HW238473  11.587   6.483  10.295
12212SOL     OW38474  11.860   6.891  12.796
12212SOL    HW138475  11.854   6.801  12.764
12212SOL    HW238476  11.797   6.940  12.743
12213SOL     OW38477   3.678  10.138   8.081
12213SOL    HW138478   3.732  10.096   8.148
12213SOL    HW238479   3.725  10.123   7.999
12214SOL     OW38480   7.599   9.948   1.291
12214SOL    HW138481   7.562   9.922   1.206
12214SOL    HW238482   7.525   9.983   1.340
12215SOL     OW38483   5.163   5.328  13.460
12215SOL    HW138484   5.086   5.273  13.444
12215SOL    HW238485   5.228   5.269  13.497
12216SOL     OW38486   6.679   3.103   9.472
12216SOL    HW138487   6.750   3.054   9.430
12216SOL    HW238488   6.717   3.137   9.553
12217SOL     OW38489  12.702   0.008  10.351
12217SOL    HW138490  12.642   0.053  10.291
12217SOL    HW238491  12.704  14.792  10.319
12218SOL     OW38492   4.513  11.735   5.998
12218SOL    HW138493   4.456  11.695   5.933
12218SOL    HW238494   4.593  11.683   5.996
12219SOL     OW38495   5.761   1.048   8.539
12219SOL    HW138496   5.711   0.968   8.554
12219SOL    HW238497   5.800   1.036   8.452
12220SOL     OW38498  11.861  13.256  14.607
12220SOL    HW138499  11.920  13.183  14.586
12220SOL    HW238500  11.819  13.277  14.523
12221SOL     OW38501   1.719   6.841  14.636
12221SOL    HW138502   1.751   6.931  14.635
12221SOL    HW238503   1.720   6.816  14.728
12222SOL     OW38504   0.327   9.636  10.206
12222SOL    HW138505   0.415   9.598  10.209
12222SOL    HW238506   0.285   9.593  10.131
12223SOL     OW38507   3.541   1.183   7.777
12223SOL    HW138508   3.547   1.187   7.682
12223SOL    HW238509   3.572   1.268   7.807
12224SOL     OW38510   8.520  13.720   7.555
12224SOL    HW138511   8.530  13.678   7.640
12224SOL    HW238512   8.442  13.680   7.517
12225SOL     OW38513   9.662  13.781  11.815
12225SOL    HW138514   9.616  13.699  11.830
12225SOL    HW238515   9.751  13.755  11.794
12226SOL     OW38516  11.028   6.878   2.960
12226SOL    HW138517  11.027   6.782   2.960
12226SOL    HW238518  10.989   6.902   2.876
12227SOL     OW38519  14.362   7.880  14.855
12227SOL    HW138520  14.323   7.881  14.768
12227SOL    HW238521  14.289   7.861   0.040
12228SOL     OW38522   6.400   1.279   0.060
12228SOL    HW138523   6.381   1.186   0.050
12228SOL    HW238524   6.437   1.288   0.148
12229SOL     OW38525   1.199   9.504   7.574
12229SOL    HW138526   1.285   9.527   7.539
12229SOL    HW238527   1.156   9.457   7.503
12230SOL     OW38528  13.448   6.039   6.473
12230SOL    HW138529  13.527   6.064   6.426
12230SOL    HW238530  13.464   5.948   6.499
12231SOL     OW38531   2.420   5.662   2.953
12231SOL    HW138532   2.403   5.676   3.046
12231SOL    HW238533   2.342   5.696   2.909
12232SOL     OW38534   0.968  13.376   0.297
12232SOL    HW138535   0.965  13.394   0.203
12232SOL    HW238536   1.032  13.305   0.306
12233SOL     OW38537   7.135  13.550   5.832
12233SOL    HW138538   7.174  13.636   5.848
12233SOL    HW238539   7.210  13.491   5.826
12234SOL     OW38540  14.148   1.890  11.715
12234SOL    HW138541  14.089   1.952  11.757
12234SOL    HW238542  14.123   1.890  11.623
12235SOL     OW38543   9.452   4.941   9.973
12235SOL    HW138544   9.484   4.871  10.030
12235SOL    HW238545   9.531   4.988   9.947
12236SOL     OW38546   9.574   9.674  12.906
12236SOL    HW138547   9.485   9.661  12.872
12236SOL    HW238548   9.580   9.768  12.923
12237SOL     OW38549   1.859   7.582  13.143
12237SOL    HW138550   1.905   7.507  13.181
12237SOL    HW238551   1.781   7.543  13.102
12238SOL     OW38552   8.711   7.495   5.475
12238SOL    HW138553   8.668   7.417   5.441
12238SOL    HW238554   8.804   7.477   5.465
12239SOL     OW38555  14.795  12.599   8.013
12239SOL    HW138556  14.795  12.588   7.918
12239SOL    HW238557  14.765  12.516   8.047
12240SOL     OW38558  13.771   7.703   1.291
12240SOL    HW138559  13.734   7.615   1.305
12240SOL    HW238560  13.862   7.688   1.268
12241SOL     OW38561   6.186   9.107  11.191
12241SOL    HW138562   6.252   9.175  11.207
12241SOL    HW238563   6.130   9.109  11.269
12242SOL     OW38564  11.169   7.279   9.634
12242SOL    HW138565  11.178   7.303   9.727
12242SOL    HW238566  11.147   7.186   9.636
12243SOL     OW38567   5.068  14.077  13.248
12243SOL    HW138568   5.137  14.024  13.288
12243SOL    HW238569   5.064  14.155  13.304
12244SOL     OW38570   2.655  10.828  10.630
12244SOL    HW138571   2.626  10.919  10.640
12244SOL    HW238572   2.579  10.784  10.591
12245SOL     OW38573   7.223  10.796   5.144
12245SOL    HW138574   7.140  10.841   5.161
12245SOL    HW238575   7.289  10.864   5.153
12246SOL     OW38576  12.782   4.225   0.508
12246SOL    HW138577  12.744   4.279   0.578
12246SOL    HW238578  12.733   4.143   0.513
12247SOL     OW38579   8.601  12.010  12.076
12247SOL    HW138580   8.619  11.984  11.985
12247SOL    HW238581   8.585  11.928  12.121
12248SOL     OW38582  12.602   3.074   1.276
12248SOL    HW138583  12.697   3.071   1.277
12248SOL    HW238584  12.579   3.113   1.361
12249SOL     OW38585   6.997   0.456  12.388
12249SOL    HW138586   6.913   0.493  12.415
12249SOL    HW238587   7.034   0.520  12.327
12250SOL     OW38588   2.963  14.033  11.607
12250SOL    HW138589   2.901  14.102  11.584
12250SOL    HW238590   2.908  13.956  11.626
12251SOL     OW38591   5.504   7.278  14.802
12251SOL    HW138592   5.447   7.205  14.777
12251SOL    HW238593   5.460   7.356  14.768
12252SOL     OW38594   8.872   8.243   4.483
12252SOL    HW138595   8.847   8.327   4.523
12252SOL    HW238596   8.930   8.267   4.411
12253SOL     OW38597   3.273   1.459   3.191
12253SOL    HW138598   3.240   1.372   3.169
12253SOL    HW238599   3.251   1.513   3.114
12254SOL     OW38600   0.314   5.439   5.169
12254SOL    HW138601   0.317   5.534   5.170
12254SOL    HW238602   0.221   5.418   5.180
12255SOL     OW38603  13.642   9.182   7.535
12255SOL    HW138604  13.568   9.242   7.539
12255SOL    HW238605  13.677   9.192   7.447
12256SOL     OW38606   9.013  11.095   5.052
12256SOL    HW138607   9.050  11.025   5.105
12256SOL    HW238608   9.039  11.176   5.096
12257SOL     OW38609  11.818   4.315  14.278
12257SOL    HW138610  11.845   4.402  14.307
12257SOL    HW238611  11.814   4.264  14.358
12258SOL     OW38612   8.148   5.150   2.103
12258SOL    HW138613   8.229   5.155   2.154
12258SOL    HW238614   8.162   5.209   2.029
12259SOL     OW38615  13.668   9.309   6.179
12259SOL    HW138616  13.607   9.249   6.221
12259SOL    HW238617  13.655   9.393   6.224
12260SOL     OW38618  14.859   0.559   2.046
12260SOL    HW138619   0.013   0.501   2.116
12260SOL    HW238620   0.066   0.584   2.001
12261SOL     OW38621  13.074  13.140  14.520
12261SOL    HW138622  13.129  13.208  14.559
12261SOL    HW238623  13.017  13.111  14.591
12262SOL     OW38624   5.609  13.072   9.982
12262SOL    HW138625   5.568  13.159   9.985
12262SOL    HW238626   5.616  13.052   9.889
12263SOL     OW38627   9.135  10.311   2.440
12263SOL    HW138628   9.099  10.396   2.463
12263SOL    HW238629   9.085  10.249   2.495
12264SOL     OW38630   2.531  10.077  14.275
12264SOL    HW138631   2.518  10.119  14.190
12264SOL    HW238632   2.503   9.987  14.262
12265SOL     OW38633   5.715  14.456   2.510
12265SOL    HW138634   5.627  14.417   2.510
12265SOL    HW238635   5.722  14.499   2.426
12266SOL     OW38636   3.857   7.611  11.467
12266SOL    HW138637   3.920   7.571  11.527
12266SOL    HW238638   3.892   7.698  11.449
12267SOL     OW38639  10.244   1.236   5.803
12267SOL    HW138640  10.261   1.330   5.816
12267SOL    HW238641  10.236   1.226   5.709
12268SOL     OW38642   3.350  12.662   7.614
12268SOL    HW138643   3.349  12.599   7.542
12268SOL    HW238644   3.423  12.635   7.669
12269SOL     OW38645   3.584   6.418   5.187
12269SOL    HW138646   3.546   6.426   5.100
12269SOL    HW238647   3.659   6.478   5.187
12270SOL     OW38648  10.826  14.522   5.868
12270SOL    HW138649  10.882  14.529   5.945
12270SOL    HW238650  10.789  14.434   5.872
12271SOL     OW38651   0.354   1.113   8.198
12271SOL    HW138652   0.310   1.192   8.168
12271SOL    HW238653   0.423   1.144   8.256
12272SOL     OW38654  10.192   9.664   8.079
12272SOL    HW138655  10.197   9.759   8.093
12272SOL    HW238656  10.109   9.638   8.119
12273SOL     OW38657   6.659  10.810   9.911
12273SOL    HW138658   6.684  10.783   9.823
12273SOL    HW238659   6.725  10.770   9.968
12274SOL     OW38660   5.262  14.590  13.510
12274SOL    HW138661   5.209  14.662  13.477
12274SOL    HW238662   5.331  14.632  13.562
12275SOL     OW38663   7.398   0.929  12.122
12275SOL    HW138664   7.341   0.866  12.166
12275SOL    HW238665   7.378   1.013  12.164
12276SOL     OW38666   5.980   5.293   1.262
12276SOL    HW138667   6.001   5.218   1.319
12276SOL    HW238668   5.884   5.300   1.267
12277SOL     OW38669  13.040   8.595   0.524
12277SOL    HW138670  12.954   8.563   0.495
12277SOL    HW238671  13.022   8.640   0.606
12278SOL     OW38672   9.927   1.923   8.868
12278SOL    HW138673  10.009   1.902   8.823
12278SOL    HW238674   9.919   1.857   8.936
12279SOL     OW38675   5.418   0.957  10.791
12279SOL    HW138676   5.491   1.019  10.798
12279SOL    HW238677   5.427   0.919  10.704
12280SOL     OW38678   7.081   0.608  10.051
12280SOL    HW138679   7.099   0.515  10.070
12280SOL    HW238680   6.986   0.614  10.050
12281SOL     OW38681   6.771  13.544  12.162
12281SOL    HW138682   6.741  13.634  12.171
12281SOL    HW238683   6.828  13.546  12.085
12282SOL     OW38684   9.141   0.560   4.230
12282SOL    HW138685   9.219   0.519   4.193
12282SOL    HW238686   9.071   0.539   4.168
12283SOL     OW38687  11.886   7.673   5.381
12283SOL    HW138688  11.802   7.639   5.351
12283SOL    HW238689  11.920   7.722   5.306
12284SOL     OW38690  12.680   4.491   2.309
12284SOL    HW138691  12.706   4.564   2.365
12284SOL    HW238692  12.620   4.530   2.246
12285SOL     OW38693   3.576  13.529   1.756
12285SOL    HW138694   3.604  13.438   1.751
12285SOL    HW238695   3.480  13.525   1.759
12286SOL     OW38696   8.043  12.271   3.297
12286SOL    HW138697   7.982  12.208   3.258
12286SOL    HW238698   8.129  12.229   3.289
12287SOL     OW38699  14.346  13.278   6.306
12287SOL    HW138700  14.385  13.205   6.353
12287SOL    HW238701  14.347  13.251   6.214
12288SOL     OW38702   2.169  11.620   9.366
12288SOL    HW138703   2.082  11.659   9.357
12288SOL    HW238704   2.229  11.694   9.353
12289SOL     OW38705   5.747  10.682   7.988
12289SOL    HW138706   5.707  10.598   8.008
12289SOL    HW238707   5.833  10.678   8.030
12290SOL     OW38708   5.134   9.219   1.465
12290SOL    HW138709   5.212   9.164   1.464
12290SOL    HW238710   5.164   9.304   1.433
12291SOL     OW38711   4.106   6.949   8.420
12291SOL    HW138712   4.056   6.919   8.496
12291SOL    HW238713   4.093   6.881   8.354
12292SOL     OW38714   1.077  11.583  12.049
12292SOL    HW138715   1.038  11.650  12.106
12292SOL    HW238716   1.004  11.553  11.996
12293SOL     OW38717   4.660   1.509   6.641
12293SOL    HW138718   4.686   1.511   6.733
12293SOL    HW238719   4.575   1.466   6.641
12294SOL     OW38720   5.694   8.232   3.807
12294SOL    HW138721   5.734   8.147   3.785
12294SOL    HW238722   5.610   8.232   3.761
12295SOL     OW38723  13.057  11.755   5.331
12295SOL    HW138724  13.003  11.825   5.294
12295SOL    HW238725  13.118  11.733   5.261
12296SOL     OW38726  13.600   3.099  14.483
12296SOL    HW138727  13.664   3.048  14.433
12296SOL    HW238728  13.520   3.046  14.479
12297SOL     OW38729   1.206   9.014   8.309
12297SOL    HW138730   1.242   9.098   8.339
12297SOL    HW238731   1.120   9.008   8.352
12298SOL     OW38732   5.003   7.691  10.075
12298SOL    HW138733   5.002   7.778  10.035
12298SOL    HW238734   5.095   7.666  10.078
12299SOL     OW38735   4.222   5.456  10.562
12299SOL    HW138736   4.280   5.383  10.541
12299SOL    HW238737   4.148   5.447  10.501
12300SOL     OW38738   3.611   0.051   5.005
12300SOL    HW138739   3.518   0.028   5.001
12300SOL    HW238740   3.619   0.128   4.949
12301SOL     OW38741   8.993   0.394   7.876
12301SOL    HW138742   8.950   0.323   7.925
12301SOL    HW238743   8.995   0.363   7.786
12302SOL     OW38744  13.906   2.271   6.905
12302SOL    HW138745  13.929   2.229   6.823
12302SOL    HW238746  13.877   2.359   6.879
12303SOL     OW38747   2.088   5.039   7.049
12303SOL    HW138748   2.025   5.047   7.121
12303SOL    HW238749   2.131   4.955   7.065
12304SOL     OW38750   9.544  11.223   5.932
12304SOL    HW138751   9.543  11.296   5.994
12304SOL    HW238752   9.636  11.211   5.910
12305SOL     OW38753   4.770   7.342   7.778
12305SOL    HW138754   4.771   7.370   7.870
12305SOL    HW238755   4.680   7.355   7.750
12306SOL     OW38756   8.326   7.875   5.685
12306SOL    HW138757   8.357   7.787   5.705
12306SOL    HW238758   8.301   7.912   5.770
12307SOL     OW38759   1.415   6.562  11.800
12307SOL    HW138760   1.412   6.649  11.760
12307SOL    HW238761   1.457   6.575  11.885
12308SOL     OW38762   4.609   3.755  14.141
12308SOL    HW138763   4.565   3.839  14.140
12308SOL    HW238764   4.686   3.768  14.197
12309SOL     OW38765  12.216   3.670  10.843
12309SOL    HW138766  12.270   3.684  10.921
12309SOL    HW238767  12.186   3.758  10.819
12310SOL     OW38768  11.343   4.181   9.501
12310SOL    HW138769  11.346   4.132   9.583
12310SOL    HW238770  11.423   4.157   9.456
12311SOL     OW38771   5.345  11.831   3.861
12311SOL    HW138772   5.250  11.824   3.866
12311SOL    HW238773   5.372  11.861   3.948
12312SOL     OW38774   5.191   0.121  11.270
12312SOL    HW138775   5.200   0.208  11.311
12312SOL    HW238776   5.281   0.087  11.266
12313SOL     OW38777   6.831   4.722  10.300
12313SOL    HW138778   6.770   4.790  10.327
12313SOL    HW238779   6.837   4.731  10.205
12314SOL     OW38780   0.463   4.030   0.310
12314SOL    HW138781   0.524   4.091   0.351
12314SOL    HW238782   0.428   3.979   0.383
12315SOL     OW38783   5.436  14.405  10.284
12315SOL    HW138784   5.368  14.347  10.319
12315SOL    HW238785   5.500  14.412  10.355
12316SOL     OW38786   8.293   8.928   4.712
12316SOL    HW138787   8.294   8.957   4.803
12316SOL    HW238788   8.346   8.993   4.665
12317SOL     OW38789   0.212   5.692  11.837
12317SOL    HW138790   0.209   5.628  11.766
12317SOL    HW238791   0.228   5.640  11.916
12318SOL     OW38792  14.519  14.318   4.081
12318SOL    HW138793  14.503  14.409   4.108
12318SOL    HW238794  14.474  14.266   4.147
12319SOL     OW38795   6.418   4.720   5.961
12319SOL    HW138796   6.511   4.699   5.957
12319SOL    HW238797   6.415   4.816   5.966
12320SOL     OW38798   7.233   0.980   7.247
12320SOL    HW138799   7.230   0.928   7.167
12320SOL    HW238800   7.158   1.039   7.241
12321SOL     OW38801   1.885  12.296   0.518
12321SOL    HW138802   1.897  12.217   0.571
12321SOL    HW238803   1.881  12.264   0.428
12322SOL     OW38804   0.285   4.060   9.800
12322SOL    HW138805   0.258   4.003   9.872
12322SOL    HW238806   0.374   4.087   9.823
12323SOL     OW38807   8.094   4.208   8.595
12323SOL    HW138808   8.103   4.122   8.637
12323SOL    HW238809   8.164   4.261   8.633
12324SOL     OW38810   0.815  12.916  11.632
12324SOL    HW138811   0.829  12.992  11.575
12324SOL    HW238812   0.851  12.943  11.716
12325SOL     OW38813   3.686   4.650  13.612
12325SOL    HW138814   3.659   4.576  13.668
12325SOL    HW238815   3.765   4.684  13.654
12326SOL     OW38816  13.556   2.820   5.080
12326SOL    HW138817  13.481   2.847   5.028
12326SOL    HW238818  13.573   2.894   5.138
12327SOL     OW38819   3.770   6.011   7.624
12327SOL    HW138820   3.845   6.009   7.684
12327SOL    HW238821   3.732   5.924   7.630
12328SOL     OW38822   4.811  14.763   5.559
12328SOL    HW138823   4.894  14.791   5.519
12328SOL    HW238824   4.791  14.679   5.517
12329SOL     OW38825  12.834   5.622  14.076
12329SOL    HW138826  12.844   5.692  14.012
12329SOL    HW238827  12.769   5.563  14.038
12330SOL     OW38828  10.165  14.088  11.618
12330SOL    HW138829  10.080  14.127  11.600
12330SOL    HW238830  10.227  14.139  11.565
12331SOL     OW38831  13.101   2.173   5.205
12331SOL    HW138832  13.121   2.225   5.127
12331SOL    HW238833  13.135   2.225   5.278
12332SOL     OW38834  14.446   4.688   5.219
12332SOL    HW138835  14.495   4.687   5.136
12332SOL    HW238836  14.481   4.763   5.266
12333SOL     OW38837  13.337   1.630   4.891
12333SOL    HW138838  13.348   1.725   4.891
12333SOL    HW238839  13.242   1.617   4.885
12334SOL     OW38840   4.653   6.036  10.748
12334SOL    HW138841   4.645   6.046  10.654
12334SOL    HW238842   4.660   5.941  10.761
12335SOL     OW38843  10.729  12.647  13.094
12335SOL    HW138844  10.715  12.628  13.001
12335SOL    HW238845  10.823  12.665  13.101
12336SOL     OW38846   4.293   1.505   2.533
12336SOL    HW138847   4.305   1.598   2.551
12336SOL    HW238848   4.364   1.483   2.471
12337SOL     OW38849   6.868  13.431   3.083
12337SOL    HW138850   6.959  13.421   3.110
12337SOL    HW238851   6.872  13.430   2.987
12338SOL     OW38852   8.600  12.094  12.730
12338SOL    HW138853   8.607  12.171  12.787
12338SOL    HW238854   8.505  12.083  12.717
12339SOL     OW38855   7.157   2.376  12.242
12339SOL    HW138856   7.191   2.400  12.156
12339SOL    HW238857   7.105   2.297  12.226
12340SOL     OW38858  13.236   8.245   6.267
12340SOL    HW138859  13.179   8.228   6.342
12340SOL    HW238860  13.234   8.340   6.256
12341SOL     OW38861   5.059  14.763   6.281
12341SOL    HW138862   5.003  14.802   6.348
12341SOL    HW238863   5.001  14.703   6.234
12342SOL     OW38864   2.623   0.984  11.138
12342SOL    HW138865   2.617   0.889  11.140
12342SOL    HW238866   2.569   1.013  11.212
12343SOL     OW38867   8.414   7.587   2.785
12343SOL    HW138868   8.374   7.539   2.712
12343SOL    HW238869   8.473   7.649   2.743
12344SOL     OW38870   8.669   0.562   7.832
12344SOL    HW138871   8.617   0.502   7.887
12344SOL    HW238872   8.700   0.629   7.893
12345SOL     OW38873   3.069   4.805   4.088
12345SOL    HW138874   3.089   4.756   4.008
12345SOL    HW238875   3.125   4.882   4.084
12346SOL     OW38876  12.572   7.066   0.955
12346SOL    HW138877  12.549   6.989   1.007
12346SOL    HW238878  12.517   7.136   0.989
12347SOL     OW38879   8.082  13.372   1.978
12347SOL    HW138880   8.063  13.328   2.062
12347SOL    HW238881   8.092  13.464   2.001
12348SOL     OW38882   6.391  14.178  11.502
12348SOL    HW138883   6.307  14.218  11.526
12348SOL    HW238884   6.449  14.199  11.576
12349SOL     OW38885   8.106   5.280   4.644
12349SOL    HW138886   8.167   5.301   4.574
12349SOL    HW238887   8.061   5.362   4.664
12350SOL     OW38888   5.686   2.456   2.352
12350SOL    HW138889   5.670   2.388   2.287
12350SOL    HW238890   5.710   2.533   2.301
12351SOL     OW38891  12.436   7.017   5.447
12351SOL    HW138892  12.502   6.976   5.503
12351SOL    HW238893  12.487   7.067   5.383
12352SOL     OW38894   7.104   4.217   9.458
12352SOL    HW138895   7.040   4.187   9.523
12352SOL    HW238896   7.180   4.244   9.509
12353SOL     OW38897  14.455   1.689   5.481
12353SOL    HW138898  14.371   1.720   5.514
12353SOL    HW238899  14.433   1.643   5.400
12354SOL     OW38900   4.138   8.882   9.440
12354SOL    HW138901   4.131   8.792   9.411
12354SOL    HW238902   4.135   8.934   9.360
12355SOL     OW38903  13.451   2.966  11.718
12355SOL    HW138904  13.370   2.979  11.767
12355SOL    HW238905  13.518   2.949  11.786
12356SOL     OW38906   9.720  13.525  10.521
12356SOL    HW138907   9.719  13.569  10.435
12356SOL    HW238908   9.683  13.590  10.581
12357SOL     OW38909   3.634  11.429  10.041
12357SOL    HW138910   3.564  11.366  10.023
12357SOL    HW238911   3.714  11.378  10.034
12358SOL     OW38912  13.723   0.390   5.993
12358SOL    HW138913  13.775   0.312   5.972
12358SOL    HW238914  13.769   0.462   5.950
12359SOL     OW38915   2.873  12.942   4.004
12359SOL    HW138916   2.829  12.927   4.087
12359SOL    HW238917   2.804  12.972   3.945
12360SOL     OW38918  12.028   6.635   0.265
12360SOL    HW138919  12.078   6.668   0.191
12360SOL    HW238920  11.953   6.589   0.225
12361SOL     OW38921   0.781   1.423   3.408
12361SOL    HW138922   0.782   1.416   3.313
12361SOL    HW238923   0.718   1.357   3.437
12362SOL     OW38924   9.095   7.529   7.707
12362SOL    HW138925   9.076   7.622   7.698
12362SOL    HW238926   9.046   7.488   7.636
12363SOL     OW38927   6.093   3.240  11.326
12363SOL    HW138928   6.142   3.210  11.403
12363SOL    HW238929   6.028   3.171  11.311
12364SOL     OW38930   2.235   5.284   4.717
12364SOL    HW138931   2.323   5.255   4.693
12364SOL    HW238932   2.248   5.343   4.791
12365SOL     OW38933  11.663  11.888  11.165
12365SOL    HW138934  11.576  11.926  11.166
12365SOL    HW238935  11.683  11.872  11.257
12366SOL     OW38936   0.553   7.348   9.477
12366SOL    HW138937   0.631   7.376   9.429
12366SOL    HW238938   0.588   7.301   9.553
12367SOL     OW38939  10.385   0.937   3.512
12367SOL    HW138940  10.462   0.900   3.470
12367SOL    HW238941  10.400   1.032   3.511
12368SOL     OW38942   6.567   2.655   5.333
12368SOL    HW138943   6.638   2.718   5.348
12368SOL    HW238944   6.577   2.590   5.403
12369SOL     OW38945  10.249   4.886   5.706
12369SOL    HW138946  10.157   4.910   5.693
12369SOL    HW238947  10.296   4.937   5.641
12370SOL     OW38948  11.340   5.561  14.499
12370SOL    HW138949  11.326   5.511  14.419
12370SOL    HW238950  11.358   5.650  14.469
12371SOL     OW38951   7.482   3.117   1.054
12371SOL    HW138952   7.447   3.056   1.119
12371SOL    HW238953   7.572   3.134   1.083
12372SOL     OW38954   7.742  10.445   6.886
12372SOL    HW138955   7.761  10.367   6.938
12372SOL    HW238956   7.725  10.513   6.951
12373SOL     OW38957   3.625   1.174   9.678
12373SOL    HW138958   3.574   1.100   9.647
12373SOL    HW238959   3.712   1.161   9.639
12374SOL     OW38960   4.901   7.273  12.176
12374SOL    HW138961   4.894   7.306  12.266
12374SOL    HW238962   4.994   7.256  12.164
12375SOL     OW38963   9.473   5.931  10.596
12375SOL    HW138964   9.413   5.957  10.666
12375SOL    HW238965   9.460   5.837  10.587
12376SOL     OW38966   3.102  12.360  13.594
12376SOL    HW138967   3.135  12.343  13.506
12376SOL    HW238968   3.047  12.438  13.585
12377SOL     OW38969   8.815  10.181   2.840
12377SOL    HW138970   8.738  10.237   2.847
12377SOL    HW238971   8.811  10.124   2.917
12378SOL     OW38972   3.361  10.187  10.571
12378SOL    HW138973   3.302  10.115  10.591
12378SOL    HW238974   3.394  10.215  10.657
12379SOL     OW38975   8.087   6.378  10.532
12379SOL    HW138976   7.999   6.343  10.539
12379SOL    HW238977   8.129   6.355  10.615
12380SOL     OW38978   0.274   9.399   2.118
12380SOL    HW138979   0.190   9.441   2.136
12380SOL    HW238980   0.287   9.410   2.024
12381SOL     OW38981   8.674  11.598   1.548
12381SOL    HW138982   8.622  11.543   1.490
12381SOL    HW238983   8.756  11.550   1.560
12382SOL     OW38984   2.998   6.614  13.157
12382SOL    HW138985   3.013   6.674  13.230
12382SOL    HW238986   2.990   6.528  13.198
12383SOL     OW38987   4.346   4.341   9.455
12383SOL    HW138988   4.427   4.359   9.502
12383SOL    HW238989   4.306   4.268   9.503
12384SOL     OW38990   7.560   7.930   8.013
12384SOL    HW138991   7.590   7.896   8.097
12384SOL    HW238992   7.595   8.019   8.009
12385SOL     OW38993  12.171   0.525  12.899
12385SOL    HW138994  12.192   0.452  12.841
12385SOL    HW238995  12.077   0.537  12.890
12386SOL     OW38996   0.757  14.528   7.635
12386SOL    HW138997   0.676  14.579   7.626
12386SOL    HW238998   0.826  14.588   7.607
12387SOL     OW38999   9.332  12.442   9.780
12387SOL    HW139000   9.425  12.460   9.794
12387SOL    HW239001   9.287  12.484   9.853
12388SOL     OW39002   9.795   5.631   4.388
12388SOL    HW139003   9.783   5.537   4.403
12388SOL    HW239004   9.845   5.661   4.464
12389SOL     OW39005   6.138   9.627   0.857
12389SOL    HW139006   6.065   9.642   0.917
12389SOL    HW239007   6.213   9.611   0.914
12390SOL     OW39008   2.779  11.431   7.239
12390SOL    HW139009   2.740  11.393   7.160
12390SOL    HW239010   2.825  11.509   7.208
12391SOL     OW39011  10.563   9.725   7.988
12391SOL    HW139012  10.617   9.776   8.048
12391SOL    HW239013  10.487   9.780   7.970
12392SOL     OW39014   1.813   4.421   6.438
12392SOL    HW139015   1.904   4.394   6.450
12392SOL    HW239016   1.783   4.371   6.363
12393SOL     OW39017   6.881  12.095   6.675
12393SOL    HW139018   6.909  12.185   6.665
12393SOL    HW239019   6.952  12.043   6.637
12394SOL     OW39020   5.606  12.779   0.796
12394SOL    HW139021   5.581  12.703   0.744
12394SOL    HW239022   5.699  12.792   0.775
12395SOL     OW39023  11.289   6.375   6.241
12395SOL    HW139024  11.374   6.353   6.202
12395SOL    HW239025  11.272   6.303   6.302
12396SOL     OW39026  11.715  10.440   8.230
12396SOL    HW139027  11.792  10.430   8.174
12396SOL    HW239028  11.646  10.469   8.170
12397SOL     OW39029  13.778   1.084  12.484
12397SOL    HW139030  13.735   1.016  12.434
12397SOL    HW239031  13.749   1.166  12.444
12398SOL     OW39032  12.339   3.880   1.404
12398SOL    HW139033  12.369   3.955   1.353
12398SOL    HW239034  12.296   3.919   1.480
12399SOL     OW39035   9.277  10.191   7.036
12399SOL    HW139036   9.316  10.117   6.989
12399SOL    HW239037   9.198  10.155   7.077
12400SOL     OW39038   7.867   7.218  10.806
12400SOL    HW139039   7.849   7.284  10.740
12400SOL    HW239040   7.783   7.175  10.821
12401SOL     OW39041  13.282   7.192  11.881
12401SOL    HW139042  13.230   7.121  11.842
12401SOL    HW239043  13.304   7.161  11.968
12402SOL     OW39044   2.741   4.816  12.115
12402SOL    HW139045   2.762   4.728  12.082
12402SOL    HW239046   2.740   4.871  12.037
12403SOL     OW39047   0.029   0.768   5.575
12403SOL    HW139048  14.824   0.739   5.530
12403SOL    HW239049   0.009   0.858   5.603
12404SOL     OW39050   7.028   2.343   9.747
12404SOL    HW139051   6.969   2.270   9.765
12404SOL    HW239052   6.975   2.404   9.696
12405SOL     OW39053   4.018  14.068  14.485
12405SOL    HW139054   4.051  14.136  14.545
12405SOL    HW239055   4.051  14.094  14.399
12406SOL     OW39056  11.174   2.253   6.243
12406SOL    HW139057  11.183   2.158   6.250
12406SOL    HW239058  11.092   2.273   6.289
12407SOL     OW39059   9.275  11.365   8.502
12407SOL    HW139060   9.203  11.355   8.439
12407SOL    HW239061   9.241  11.330   8.584
12408SOL     OW39062   9.261  11.210  10.348
12408SOL    HW139063   9.190  11.149  10.369
12408SOL    HW239064   9.235  11.292  10.388
12409SOL     OW39065  12.255   7.947   3.422
12409SOL    HW139066  12.193   7.936   3.350
12409SOL    HW239067  12.255   7.863   3.468
12410SOL     OW39068   2.501   7.404  11.347
12410SOL    HW139069   2.498   7.488  11.393
12410SOL    HW239070   2.447   7.346  11.400
12411SOL     OW39071   3.031  13.560   0.699
12411SOL    HW139072   2.994  13.559   0.788
12411SOL    HW239073   3.050  13.469   0.680
12412SOL     OW39074  14.412  13.337   9.459
12412SOL    HW139075  14.370  13.334   9.545
12412SOL    HW239076  14.379  13.258   9.414
12413SOL     OW39077   1.160  13.881   1.169
12413SOL    HW139078   1.118  13.938   1.104
12413SOL    HW239079   1.227  13.834   1.119
12414SOL     OW39080  14.695  11.138   9.349
12414SOL    HW139081  14.739  11.218   9.380
12414SOL    HW239082  14.746  11.111   9.272
12415SOL     OW39083  10.191   6.339   6.148
12415SOL    HW139084  10.255   6.410   6.140
12415SOL    HW239085  10.244   6.261   6.166
12416SOL     OW39086   7.168   0.862   3.042
12416SOL    HW139087   7.137   0.863   3.133
12416SOL    HW239088   7.139   0.778   3.007
12417SOL     OW39089   3.968  11.957  11.568
12417SOL    HW139090   4.056  11.967  11.532
12417SOL    HW239091   3.943  12.046  11.595
12418SOL     OW39092   5.742  12.775   4.414
12418SOL    HW139093   5.775  12.808   4.330
12418SOL    HW239094   5.722  12.683   4.397
12419SOL     OW39095   7.152   9.543   4.872
12419SOL    HW139096   7.062   9.571   4.859
12419SOL    HW239097   7.145   9.450   4.893
12420SOL     OW39098   6.858   7.306   4.895
12420SOL    HW139099   6.948   7.328   4.872
12420SOL    HW239100   6.858   7.300   4.991
12421SOL     OW39101  11.317  14.735  13.537
12421SOL    HW139102  11.246  14.795  13.514
12421SOL    HW239103  11.322  14.674  13.464
12422SOL     OW39104   4.089   2.408  13.420
12422SOL    HW139105   4.066   2.480  13.477
12422SOL    HW239106   4.180   2.388  13.442
12423SOL     OW39107   0.823  10.902   7.660
12423SOL    HW139108   0.753  10.898   7.595
12423SOL    HW239109   0.814  10.822   7.710
12424SOL     OW39110  11.559   7.093   8.180
12424SOL    HW139111  11.507   7.149   8.122
12424SOL    HW239112  11.518   7.102   8.266
12425SOL     OW39113  11.546   5.975   7.031
12425SOL    HW139114  11.631   6.011   7.057
12425SOL    HW239115  11.521   5.919   7.104
12426SOL     OW39116   2.396  10.943   5.728
12426SOL    HW139117   2.413  10.875   5.794
12426SOL    HW239118   2.321  10.992   5.763
12427SOL     OW39119   2.826   7.760   8.961
12427SOL    HW139120   2.849   7.733   9.050
12427SOL    HW239121   2.769   7.836   8.974
12428SOL     OW39122  12.633   9.054   9.553
12428SOL    HW139123  12.545   9.032   9.522
12428SOL    HW239124  12.624   9.062   9.648
12429SOL     OW39125  11.823   2.428  12.097
12429SOL    HW139126  11.842   2.522  12.097
12429SOL    HW239127  11.908   2.387  12.116
12430SOL     OW39128   1.547  13.568   2.746
12430SOL    HW139129   1.632  13.536   2.777
12430SOL    HW239130   1.515  13.625   2.817
12431SOL     OW39131  11.359   3.630  10.955
12431SOL    HW139132  11.327   3.542  10.973
12431SOL    HW239133  11.439   3.638  11.007
12432SOL     OW39134   8.013   1.226   3.826
12432SOL    HW139135   8.092   1.175   3.847
12432SOL    HW239136   7.987   1.194   3.739
12433SOL     OW39137   0.966  13.612  12.745
12433SOL    HW139138   0.982  13.590  12.653
12433SOL    HW239139   0.911  13.690  12.743
12434SOL     OW39140   3.491   5.180   8.655
12434SOL    HW139141   3.412   5.174   8.709
12434SOL    HW239142   3.517   5.089   8.640
12435SOL     OW39143  11.112  14.384   4.948
12435SOL    HW139144  11.063  14.436   5.011
12435SOL    HW239145  11.140  14.307   4.998
12436SOL     OW39146   5.413   9.893   2.789
12436SOL    HW139147   5.366   9.867   2.868
12436SOL    HW239148   5.376   9.838   2.720
12437SOL     OW39149   4.581   5.083  14.302
12437SOL    HW139150   4.496   5.116  14.332
12437SOL    HW239151   4.643   5.152  14.325
12438SOL     OW39152  11.500   8.741  14.140
12438SOL    HW139153  11.501   8.650  14.110
12438SOL    HW239154  11.418   8.749  14.190
12439SOL     OW39155   2.856   8.639  14.742
12439SOL    HW139156   2.924   8.705  14.734
12439SOL    HW239157   2.901   8.561  14.775
12440SOL     OW39158   1.777   1.483   8.448
12440SOL    HW139159   1.717   1.540   8.496
12440SOL    HW239160   1.722   1.440   8.382
12441SOL     OW39161  14.644   2.202  11.605
12441SOL    HW139162  14.630   2.188  11.511
12441SOL    HW239163  14.710   2.138  11.630
12442SOL     OW39164   9.672  12.543   1.242
12442SOL    HW139165   9.636  12.502   1.163
12442SOL    HW239166   9.738  12.604   1.209
12443SOL     OW39167  11.140  11.646   2.910
12443SOL    HW139168  11.094  11.574   2.952
12443SOL    HW239169  11.232  11.631   2.929
12444SOL     OW39170   3.954   8.338  12.294
12444SOL    HW139171   3.907   8.275  12.348
12444SOL    HW239172   4.012   8.285  12.240
12445SOL     OW39173   4.235   6.180  11.875
12445SOL    HW139174   4.195   6.202  11.791
12445SOL    HW239175   4.169   6.204  11.940
12446SOL     OW39176  11.326  14.619   1.721
12446SOL    HW139177  11.289  14.558   1.657
12446SOL    HW239178  11.396  14.569   1.764
12447SOL     OW39179  11.500   4.217  13.766
12447SOL    HW139180  11.464   4.143  13.716
12447SOL    HW239181  11.594   4.201  13.767
12448SOL     OW39182   0.111   1.866   3.876
12448SOL    HW139183   0.170   1.896   3.946
12448SOL    HW239184   0.165   1.807   3.823
12449SOL     OW39185   7.981  12.220   8.579
12449SOL    HW139186   7.984  12.185   8.668
12449SOL    HW239187   7.935  12.303   8.587
12450SOL     OW39188  13.117   8.934   1.172
12450SOL    HW139189  13.212   8.926   1.168
12450SOL    HW239190  13.098   9.017   1.128
12451SOL     OW39191   3.382  12.786   4.151
12451SOL    HW139192   3.412  12.856   4.210
12451SOL    HW239193   3.439  12.793   4.074
12452SOL     OW39194   0.639   5.078   5.350
12452SOL    HW139195   0.671   4.993   5.379
12452SOL    HW239196   0.678   5.140   5.411
12453SOL     OW39197  14.761  14.837  12.481
12453SOL    HW139198  14.698  14.813  12.549
12453SOL    HW239199  14.814   0.032  12.522
12454SOL     OW39200   1.141   6.173  14.712
12454SOL    HW139201   1.232   6.157  14.688
12454SOL    HW239202   1.140   6.171  14.807
12455SOL     OW39203   4.287   4.797   9.356
12455SOL    HW139204   4.243   4.763   9.279
12455SOL    HW239205   4.372   4.753   9.356
12456SOL     OW39206  13.770   4.819  11.211
12456SOL    HW139207  13.717   4.793  11.286
12456SOL    HW239208  13.815   4.740  11.184
12457SOL     OW39209   9.741  11.391  14.431
12457SOL    HW139210   9.802  11.336  14.381
12457SOL    HW239211   9.725  11.342  14.511
12458SOL     OW39212   1.977  10.937   7.578
12458SOL    HW139213   2.045  11.000   7.555
12458SOL    HW239214   1.998  10.911   7.668
12459SOL     OW39215   9.572   8.904   1.003
12459SOL    HW139216   9.523   8.904   0.920
12459SOL    HW239217   9.562   8.815   1.037
12460SOL     OW39218  10.542   8.002   2.046
12460SOL    HW139219  10.482   7.933   2.076
12460SOL    HW239220  10.492   8.082   2.057
12461SOL     OW39221  11.327   7.321   6.986
12461SOL    HW139222  11.245   7.371   6.987
12461SOL    HW239223  11.323   7.270   6.906
12462SOL     OW39224   3.911   9.343   1.829
12462SOL    HW139225   3.957   9.374   1.751
12462SOL    HW239226   3.893   9.423   1.879
12463SOL     OW39227   4.306   4.164  10.128
12463SOL    HW139228   4.303   4.070  10.109
12463SOL    HW239229   4.380   4.175  10.187
12464SOL     OW39230   4.304  13.355   1.306
12464SOL    HW139231   4.238  13.388   1.245
12464SOL    HW239232   4.343  13.433   1.346
12465SOL     OW39233  14.615   2.796   4.341
12465SOL    HW139234  14.684   2.848   4.299
12465SOL    HW239235  14.544   2.793   4.277
12466SOL     OW39236   9.548  12.637  10.362
12466SOL    HW139237   9.591  12.553  10.345
12466SOL    HW239238   9.455  12.616  10.363
12467SOL     OW39239  10.303   5.668   8.911
12467SOL    HW139240  10.293   5.755   8.873
12467SOL    HW239241  10.288   5.608   8.838
12468SOL     OW39242  10.900   2.485  12.362
12468SOL    HW139243  10.905   2.577  12.335
12468SOL    HW239244  10.970   2.441  12.313
12469SOL     OW39245   9.853  12.618   6.930
12469SOL    HW139246   9.920  12.586   6.990
12469SOL    HW239247   9.894  12.691   6.884
12470SOL     OW39248   4.637   8.343  12.642
12470SOL    HW139249   4.544   8.325  12.629
12470SOL    HW239250   4.680   8.262  12.613
12471SOL     OW39251   3.387  10.687   0.841
12471SOL    HW139252   3.443  10.610   0.847
12471SOL    HW239253   3.331  10.682   0.918
12472SOL     OW39254  13.938   3.818   9.784
12472SOL    HW139255  13.882   3.787   9.855
12472SOL    HW239256  13.975   3.900   9.817
12473SOL     OW39257   1.782   9.251  11.120
12473SOL    HW139258   1.812   9.198  11.194
12473SOL    HW239259   1.853   9.314  11.106
12474SOL     OW39260   3.167   7.903   6.475
12474SOL    HW139261   3.136   7.880   6.563
12474SOL    HW239262   3.137   7.832   6.419
12475SOL     OW39263   6.082  10.784   7.100
12475SOL    HW139264   6.015  10.844   7.132
12475SOL    HW239265   6.057  10.766   7.009
12476SOL     OW39266  12.636   3.396  12.008
12476SOL    HW139267  12.623   3.443  11.926
12476SOL    HW239268  12.730   3.381  12.012
12477SOL     OW39269   7.683  11.792  12.466
12477SOL    HW139270   7.638  11.860  12.415
12477SOL    HW239271   7.765  11.778  12.418
12478SOL     OW39272   0.334   7.439   6.886
12478SOL    HW139273   0.321   7.489   6.805
12478SOL    HW239274   0.413   7.388   6.871
12479SOL     OW39275   4.441   1.216   0.062
12479SOL    HW139276   4.404   1.151   0.121
12479SOL    HW239277   4.379   1.221  14.863
12480SOL     OW39278   0.784  14.724   5.671
12480SOL    HW139279   0.784  14.646   5.615
12480SOL    HW239280   0.863  14.771   5.646
12481SOL     OW39281  10.081  13.184  11.943
12481SOL    HW139282  10.078  13.223  11.856
12481SOL    HW239283   9.989  13.168  11.965
12482SOL     OW39284  13.462   8.465  14.071
12482SOL    HW139285  13.368   8.447  14.071
12482SOL    HW239286  13.472   8.537  14.134
12483SOL     OW39287  13.332   2.930   5.647
12483SOL    HW139288  13.292   2.844   5.662
12483SOL    HW239289  13.390   2.943   5.723
12484SOL     OW39290  11.307  13.794   8.869
12484SOL    HW139291  11.393  13.776   8.907
12484SOL    HW239292  11.252  13.816   8.944
12485SOL     OW39293   6.938   0.938   8.465
12485SOL    HW139294   6.893   0.855   8.478
12485SOL    HW239295   6.888   1.001   8.516
12486SOL     OW39296  12.576  11.111   4.049
12486SOL    HW139297  12.667  11.130   4.027
12486SOL    HW239298  12.571  11.016   4.054
12487SOL     OW39299  11.892   3.011   9.573
12487SOL    HW139300  11.831   2.996   9.646
12487SOL    HW239301  11.911   3.105   9.576
12488SOL     OW39302   0.971  12.876   9.717
12488SOL    HW139303   1.019  12.816   9.660
12488SOL    HW239304   1.012  12.961   9.702
12489SOL     OW39305   4.685   2.129  12.014
12489SOL    HW139306   4.733   2.180  11.948
12489SOL    HW239307   4.742   2.128  12.090
12490SOL     OW39308   2.061  13.922  10.960
12490SOL    HW139309   2.031  13.855  11.023
12490SOL    HW239310   2.032  13.888  10.875
12491SOL     OW39311   3.436  10.518   5.153
12491SOL    HW139312   3.417  10.612   5.148
12491SOL    HW239313   3.461  10.504   5.245
12492SOL     OW39314   8.109   8.857  10.951
12492SOL    HW139315   8.029   8.909  10.947
12492SOL    HW239316   8.173   8.914  10.993
12493SOL     OW39317  13.242   8.662   6.811
12493SOL    HW139318  13.337   8.673   6.819
12493SOL    HW239319  13.225   8.575   6.847
12494SOL     OW39320   7.475   3.378   8.230
12494SOL    HW139321   7.417   3.364   8.305
12494SOL    HW239322   7.559   3.341   8.258
12495SOL     OW39323   5.905   8.652  10.325
12495SOL    HW139324   5.821   8.697  10.335
12495SOL    HW239325   5.963   8.717  10.286
12496SOL     OW39326   1.768   2.256   3.341
12496SOL    HW139327   1.752   2.169   3.305
12496SOL    HW239328   1.790   2.241   3.433
12497SOL     OW39329   9.769   9.539  13.057
12497SOL    HW139330   9.714   9.594  13.000
12497SOL    HW239331   9.707   9.481  13.101
12498SOL     OW39332   1.514  10.884   5.162
12498SOL    HW139333   1.459  10.842   5.228
12498SOL    HW239334   1.465  10.874   5.080
12499SOL     OW39335   5.617   6.290  13.641
12499SOL    HW139336   5.623   6.301  13.736
12499SOL    HW239337   5.684   6.225  13.621
12500SOL     OW39338   9.311  13.110  11.203
12500SOL    HW139339   9.374  13.143  11.268
12500SOL    HW239340   9.358  13.040  11.157
12501SOL     OW39341  13.678   2.718  12.021
12501SOL    HW139342  13.695   2.757  12.107
12501SOL    HW239343  13.616   2.647  12.039
12502SOL     OW39344   0.678  12.827  13.552
12502SOL    HW139345   0.606  12.889  13.542
12502SOL    HW239346   0.746  12.876  13.599
12503SOL     OW39347  11.382  12.481   4.287
12503SOL    HW139348  11.352  12.496   4.197
12503SOL    HW239349  11.377  12.386   4.298
12504SOL     OW39350   5.245  14.873   2.803
12504SOL    HW139351   5.300  14.857   2.880
12504SOL    HW239352   5.308   0.015   2.732
12505SOL     OW39353   8.222   3.440   2.358
12505SOL    HW139354   8.176   3.391   2.290
12505SOL    HW239355   8.163   3.513   2.378
12506SOL     OW39356   1.901  11.275   8.030
12506SOL    HW139357   1.835  11.312   8.089
12506SOL    HW239358   1.967  11.238   8.089
12507SOL     OW39359  10.318   0.108   7.513
12507SOL    HW139360  10.350   0.194   7.485
12507SOL    HW239361  10.395   0.052   7.510
12508SOL     OW39362  12.419  12.380   0.680
12508SOL    HW139363  12.324  12.382   0.670
12508SOL    HW239364  12.451  12.356   0.593
12509SOL     OW39365   5.871  12.130   0.959
12509SOL    HW139366   5.914  12.198   0.908
12509SOL    HW239367   5.809  12.090   0.899
12510SOL     OW39368  11.822   7.514  14.847
12510SOL    HW139369  11.830   7.545  14.757
12510SOL    HW239370  11.729   7.500  14.860
12511SOL     OW39371   4.600  12.003   6.117
12511SOL    HW139372   4.519  12.054   6.116
12511SOL    HW239373   4.581  11.926   6.063
12512SOL     OW39374   8.687   3.135   0.944
12512SOL    HW139375   8.755   3.077   0.977
12512SOL    HW239376   8.721   3.223   0.957
12513SOL     OW39377   7.502  13.977   1.053
12513SOL    HW139378   7.447  14.049   1.025
12513SOL    HW239379   7.441  13.908   1.079
12514SOL     OW39380   8.077  13.687   5.921
12514SOL    HW139381   8.050  13.596   5.935
12514SOL    HW239382   8.020  13.718   5.851
12515SOL     OW39383   4.890   5.272   4.163
12515SOL    HW139384   4.833   5.337   4.122
12515SOL    HW239385   4.948   5.322   4.220
12516SOL     OW39386   2.542   8.452  10.009
12516SOL    HW139387   2.625   8.445   9.963
12516SOL    HW239388   2.539   8.544  10.038
12517SOL     OW39389  14.665  11.857   2.538
12517SOL    HW139390  14.673  11.780   2.481
12517SOL    HW239391  14.653  11.930   2.477
12518SOL     OW39392  10.291   6.394   6.960
12518SOL    HW139393  10.240   6.432   7.031
12518SOL    HW239394  10.252   6.308   6.944
12519SOL     OW39395   1.215  14.110   8.173
12519SOL    HW139396   1.121  14.125   8.167
12519SOL    HW239397   1.239  14.140   8.261
12520SOL     OW39398   8.612  10.474  14.141
12520SOL    HW139399   8.582  10.418  14.069
12520SOL    HW239400   8.677  10.421  14.187
12521SOL     OW39401  11.429   8.881  12.225
12521SOL    HW139402  11.489   8.946  12.263
12521SOL    HW239403  11.342   8.912  12.249
12522SOL     OW39404   9.495   8.401  13.463
12522SOL    HW139405   9.510   8.382  13.370
12522SOL    HW239406   9.570   8.363  13.508
12523SOL     OW39407   5.898   2.582   2.655
12523SOL    HW139408   5.863   2.551   2.572
12523SOL    HW239409   5.896   2.678   2.648
12524SOL     OW39410  13.371   1.057  14.588
12524SOL    HW139411  13.298   1.007  14.625
12524SOL    HW239412  13.355   1.147  14.614
12525SOL     OW39413   9.786   5.815   5.657
12525SOL    HW139414   9.743   5.856   5.582
12525SOL    HW239415   9.768   5.875   5.730
12526SOL     OW39416   6.114   5.337   8.317
12526SOL    HW139417   6.044   5.283   8.280
12526SOL    HW239418   6.184   5.275   8.337
12527SOL     OW39419   8.659   5.223   2.649
12527SOL    HW139420   8.624   5.245   2.735
12527SOL    HW239421   8.618   5.140   2.627
12528SOL     OW39422   8.621   3.146  11.197
12528SOL    HW139423   8.546   3.122  11.252
12528SOL    HW239424   8.639   3.237  11.220
12529SOL     OW39425  13.301   2.769  12.700
12529SOL    HW139426  13.377   2.752  12.756
12529SOL    HW239427  13.282   2.862  12.713
12530SOL     OW39428   6.467   9.602   8.000
12530SOL    HW139429   6.489   9.661   7.928
12530SOL    HW239430   6.497   9.516   7.971
12531SOL     OW39431   2.219  10.749   0.320
12531SOL    HW139432   2.128  10.723   0.337
12531SOL    HW239433   2.269  10.711   0.392
12532SOL     OW39434  11.371   6.677   7.456
12532SOL    HW139435  11.389   6.684   7.362
12532SOL    HW239436  11.277   6.660   7.460
12533SOL     OW39437  13.523  14.447   3.083
12533SOL    HW139438  13.586  14.376   3.097
12533SOL    HW239439  13.517  14.456   2.988
12534SOL     OW39440   4.382  10.002  13.034
12534SOL    HW139441   4.476  10.019  13.032
12534SOL    HW239442   4.342  10.084  13.005
12535SOL     OW39443   3.559  12.452   1.924
12535SOL    HW139444   3.559  12.357   1.918
12535SOL    HW239445   3.467  12.477   1.913
12536SOL     OW39446   9.864   6.978   3.495
12536SOL    HW139447   9.859   6.902   3.436
12536SOL    HW239448   9.864   6.939   3.582
12537SOL     OW39449  10.920   3.534   6.423
12537SOL    HW139450  11.013   3.516   6.437
12537SOL    HW239451  10.902   3.612   6.476
12538SOL     OW39452  12.499   4.174   5.997
12538SOL    HW139453  12.525   4.105   6.058
12538SOL    HW239454  12.568   4.240   6.005
12539SOL     OW39455   4.447  14.169   6.130
12539SOL    HW139456   4.426  14.092   6.183
12539SOL    HW239457   4.369  14.225   6.139
12540SOL     OW39458   6.506  14.815   2.524
12540SOL    HW139459   6.511   0.023   2.574
12540SOL    HW239460   6.432  14.828   2.465
12541SOL     OW39461   7.370   2.455   6.363
12541SOL    HW139462   7.411   2.450   6.449
12541SOL    HW239463   7.440   2.435   6.301
12542SOL     OW39464  14.735  10.449  12.555
12542SOL    HW139465  14.728  10.447  12.651
12542SOL    HW239466  14.786  10.371  12.534
12543SOL     OW39467   1.641   8.063  12.402
12543SOL    HW139468   1.586   8.017  12.339
12543SOL    HW239469   1.730   8.053  12.369
12544SOL     OW39470   6.664  13.788  11.180
12544SOL    HW139471   6.601  13.817  11.114
12544SOL    HW239472   6.643  13.840  11.257
12545SOL     OW39473   4.887  12.894   0.726
12545SOL    HW139474   4.911  12.910   0.817
12545SOL    HW239475   4.792  12.879   0.728
12546SOL     OW39476  11.719   1.152   6.251
12546SOL    HW139477  11.802   1.163   6.204
12546SOL    HW239478  11.692   1.063   6.229
12547SOL     OW39479   5.074  14.788  13.799
12547SOL    HW139480   5.151  14.770  13.852
12547SOL    HW239481   5.018  14.843  13.855
12548SOL     OW39482   9.104   7.082   7.290
12548SOL    HW139483   9.091   7.156   7.230
12548SOL    HW239484   9.190   7.098   7.329
12549SOL     OW39485   8.303   4.557  13.342
12549SOL    HW139486   8.229   4.506  13.308
12549SOL    HW239487   8.269   4.599  13.421
12550SOL     OW39488   1.364   9.077   1.602
12550SOL    HW139489   1.365   9.161   1.649
12550SOL    HW239490   1.275   9.070   1.567
12551SOL     OW39491   6.842   5.605  14.840
12551SOL    HW139492   6.849   5.537  14.773
12551SOL    HW239493   6.835   5.558   0.048
12552SOL     OW39494   7.922   4.438   9.770
12552SOL    HW139495   7.981   4.364   9.758
12552SOL    HW239496   7.964   4.492   9.837
12553SOL     OW39497   1.665  13.299   7.094
12553SOL    HW139498   1.686  13.374   7.037
12553SOL    HW239499   1.571  13.307   7.109
12554SOL     OW39500   2.040   4.794   5.049
12554SOL    HW139501   2.095   4.872   5.060
12554SOL    HW239502   1.964   4.826   5.001
12555SOL     OW39503   4.826   7.583   3.180
12555SOL    HW139504   4.911   7.539   3.172
12555SOL    HW239505   4.843   7.673   3.152
12556SOL     OW39506  13.908   7.720   8.757
12556SOL    HW139507  13.957   7.801   8.772
12556SOL    HW239508  13.941   7.660   8.824
12557SOL     OW39509   6.713   9.179   8.329
12557SOL    HW139510   6.755   9.111   8.381
12557SOL    HW239511   6.761   9.180   8.247
12558SOL     OW39512   9.617  12.852   5.276
12558SOL    HW139513   9.541  12.897   5.239
12558SOL    HW239514   9.579  12.787   5.336
12559SOL     OW39515   5.707  13.575   1.940
12559SOL    HW139516   5.794  13.574   1.900
12559SOL    HW239517   5.647  13.578   1.866
12560SOL     OW39518  12.016  12.271   9.896
12560SOL    HW139519  12.067  12.339   9.850
12560SOL    HW239520  11.983  12.215   9.826
12561SOL     OW39521  12.981   8.762  11.184
12561SOL    HW139522  12.964   8.674  11.152
12561SOL    HW239523  13.019   8.808  11.108
12562SOL     OW39524  13.746   7.407   9.481
12562SOL    HW139525  13.752   7.499   9.504
12562SOL    HW239526  13.836   7.376   9.480
12563SOL     OW39527   9.560   9.979   6.475
12563SOL    HW139528   9.471   9.956   6.447
12563SOL    HW239529   9.588  10.047   6.414
12564SOL     OW39530   0.080   8.733   3.128
12564SOL    HW139531   0.044   8.818   3.100
12564SOL    HW239532   0.121   8.698   3.050
12565SOL     OW39533  10.091   6.817   4.298
12565SOL    HW139534  10.075   6.891   4.239
12565SOL    HW239535  10.146   6.757   4.248
12566SOL     OW39536   3.649   5.985  10.336
12566SOL    HW139537   3.577   5.993  10.398
12566SOL    HW239538   3.720   5.945  10.386
12567SOL     OW39539  14.685  13.162  11.674
12567SOL    HW139540  14.591  13.144  11.679
12567SOL    HW239541  14.710  13.182  11.764
12568SOL     OW39542   4.553   7.299   2.927
12568SOL    HW139543   4.621   7.331   2.867
12568SOL    HW239544   4.548   7.205   2.909
12569SOL     OW39545   7.058   3.350   4.976
12569SOL    HW139546   6.986   3.389   4.926
12569SOL    HW239547   7.016   3.315   5.055
12570SOL     OW39548  12.903   9.404  10.487
12570SOL    HW139549  12.932   9.393  10.578
12570SOL    HW239550  12.939   9.328  10.441
12571SOL     OW39551   4.772   8.076   2.812
12571SOL    HW139552   4.755   8.136   2.885
12571SOL    HW239553   4.842   8.019   2.844
12572SOL     OW39554  13.552   4.261   8.627
12572SOL    HW139555  13.628   4.220   8.668
12572SOL    HW239556  13.495   4.188   8.604
12573SOL     OW39557   7.829  11.708  12.690
12573SOL    HW139558   7.815  11.613  12.687
12573SOL    HW239559   7.787  11.741  12.611
12574SOL     OW39560   4.322   9.804   6.295
12574SOL    HW139561   4.301   9.888   6.337
12574SOL    HW239562   4.366   9.754   6.364
12575SOL     OW39563   8.368   9.539  11.052
12575SOL    HW139564   8.392   9.452  11.018
12575SOL    HW239565   8.280   9.528  11.087
12576SOL     OW39566   7.990  12.198   0.781
12576SOL    HW139567   7.914  12.201   0.723
12576SOL    HW239568   7.967  12.257   0.853
12577SOL     OW39569   4.097   1.360  12.920
12577SOL    HW139570   4.058   1.290  12.867
12577SOL    HW239571   4.188   1.332  12.933
12578SOL     OW39572   0.676  13.829   1.392
12578SOL    HW139573   0.644  13.914   1.362
12578SOL    HW239574   0.763  13.821   1.352
12579SOL     OW39575  14.601   6.433   7.758
12579SOL    HW139576  14.567   6.482   7.833
12579SOL    HW239577  14.688   6.470   7.742
12580SOL     OW39578  10.057   3.733  11.181
12580SOL    HW139579  10.026   3.772  11.263
12580SOL    HW239580   9.986   3.748  11.119
12581SOL     OW39581   0.996   1.599   8.196
12581SOL    HW139582   1.013   1.687   8.229
12581SOL    HW239583   0.901   1.590   8.199
12582SOL     OW39584   5.622  11.260   1.729
12582SOL    HW139585   5.683  11.287   1.661
12582SOL    HW239586   5.649  11.171   1.752
12583SOL     OW39587   3.034   6.618  12.166
12583SOL    HW139588   3.023   6.704  12.126
12583SOL    HW239589   2.994   6.626  12.252
12584SOL     OW39590   1.509  12.799  14.652
12584SOL    HW139591   1.583  12.773  14.705
12584SOL    HW239592   1.525  12.757  14.567
12585SOL     OW39593  10.251  13.479   6.094
12585SOL    HW139594  10.261  13.573   6.110
12585SOL    HW239595  10.284  13.438   6.174
12586SOL     OW39596   7.043   2.774   8.946
12586SOL    HW139597   7.124   2.722   8.946
12586SOL    HW239598   7.022   2.786   9.039
12587SOL     OW39599   6.970   8.862   3.349
12587SOL    HW139600   6.937   8.799   3.285
12587SOL    HW239601   7.044   8.905   3.304
12588SOL     OW39602  12.340   1.561   4.913
12588SOL    HW139603  12.343   1.648   4.873
12588SOL    HW239604  12.380   1.503   4.847
12589SOL     OW39605  12.700  10.139   4.203
12589SOL    HW139606  12.779  10.090   4.179
12589SOL    HW239607  12.645  10.136   4.124
12590SOL     OW39608   8.980   4.571  14.567
12590SOL    HW139609   8.979   4.649  14.623
12590SOL    HW239610   9.070   4.565  14.536
12591SOL     OW39611   6.604  12.781   6.004
12591SOL    HW139612   6.534  12.717   6.016
12591SOL    HW239613   6.561  12.856   5.961
12592SOL     OW39614   2.111   3.045  12.689
12592SOL    HW139615   2.140   3.101  12.617
12592SOL    HW239616   2.018   3.032  12.674
12593SOL     OW39617   4.370   9.583   9.036
12593SOL    HW139618   4.288   9.540   9.060
12593SOL    HW239619   4.354   9.619   8.948
12594SOL     OW39620   2.141  14.389  11.528
12594SOL    HW139621   2.120  14.481  11.509
12594SOL    HW239622   2.235  14.388  11.544
12595SOL     OW39623   9.800   0.268   6.302
12595SOL    HW139624   9.718   0.220   6.293
12595SOL    HW239625   9.789   0.345   6.245
12596SOL     OW39626   2.329   9.488  14.537
12596SOL    HW139627   2.286   9.460  14.456
12596SOL    HW239628   2.414   9.522  14.508
12597SOL     OW39629   5.180   1.533   1.700
12597SOL    HW139630   5.097   1.573   1.674
12597SOL    HW239631   5.247   1.590   1.663
12598SOL     OW39632   7.366  11.092   2.080
12598SOL    HW139633   7.384  11.005   2.114
12598SOL    HW239634   7.439  11.110   2.020
12599SOL     OW39635  14.080   8.118   7.448
12599SOL    HW139636  14.049   8.161   7.527
12599SOL    HW239637  14.149   8.177   7.415
12600SOL     OW39638   7.539   0.305   0.408
12600SOL    HW139639   7.477   0.259   0.465
12600SOL    HW239640   7.544   0.393   0.444
12601SOL     OW39641   7.083   0.609   1.024
12601SOL    HW139642   7.164   0.633   1.069
12601SOL    HW239643   7.019   0.673   1.055
12602SOL     OW39644   1.120   5.930  14.127
12602SOL    HW139645   1.100   5.993  14.196
12602SOL    HW239646   1.061   5.857  14.143
12603SOL     OW39647   9.911   2.365   7.346
12603SOL    HW139648   9.888   2.389   7.256
12603SOL    HW239649   9.967   2.436   7.376
12604SOL     OW39650   6.904   6.624   5.910
12604SOL    HW139651   6.885   6.685   5.980
12604SOL    HW239652   6.889   6.674   5.830
12605SOL     OW39653   9.496  12.010  12.017
12605SOL    HW139654   9.449  11.930  12.040
12605SOL    HW239655   9.576  12.008  12.070
12606SOL     OW39656   4.689   2.333   2.850
12606SOL    HW139657   4.616   2.369   2.798
12606SOL    HW239658   4.753   2.305   2.784
12607SOL     OW39659  13.604  13.994   7.318
12607SOL    HW139660  13.669  13.952   7.374
12607SOL    HW239661  13.649  14.070   7.282
12608SOL     OW39662   4.134  12.651   3.204
12608SOL    HW139663   4.133  12.571   3.151
12608SOL    HW239664   4.092  12.625   3.287
12609SOL     OW39665   1.386  13.565   3.960
12609SOL    HW139666   1.379  13.647   4.008
12609SOL    HW239667   1.452  13.514   4.007
12610SOL     OW39668  12.191   8.579  10.121
12610SOL    HW139669  12.110   8.530  10.112
12610SOL    HW239670  12.164   8.670  10.133
12611SOL     OW39671  12.297   1.154   7.933
12611SOL    HW139672  12.235   1.114   7.995
12611SOL    HW239673  12.365   1.193   7.989
12612SOL     OW39674   5.861   2.002   6.593
12612SOL    HW139675   5.775   1.960   6.601
12612SOL    HW239676   5.896   2.002   6.682
12613SOL     OW39677   9.289  10.195   7.317
12613SOL    HW139678   9.302  10.122   7.377
12613SOL    HW239679   9.211  10.172   7.267
12614SOL     OW39680   8.450   6.588   0.168
12614SOL    HW139681   8.485   6.548   0.088
12614SOL    HW239682   8.370   6.633   0.140
12615SOL     OW39683  14.508   7.919   1.541
12615SOL    HW139684  14.474   7.938   1.454
12615SOL    HW239685  14.464   7.981   1.598
12616SOL     OW39686   8.417   2.912   5.594
12616SOL    HW139687   8.428   2.962   5.513
12616SOL    HW239688   8.468   2.832   5.580
12617SOL     OW39689   4.481  10.841   4.550
12617SOL    HW139690   4.522  10.780   4.489
12617SOL    HW239691   4.550  10.905   4.569
12618SOL     OW39692  13.841  12.419  14.117
12618SOL    HW139693  13.812  12.373  14.195
12618SOL    HW239694  13.762  12.460  14.082
12619SOL     OW39695   9.236   9.849   8.269
12619SOL    HW139696   9.231   9.894   8.353
12619SOL    HW239697   9.294   9.774   8.285
12620SOL     OW39698   4.922  14.189   5.334
12620SOL    HW139699   4.889  14.213   5.420
12620SOL    HW239700   4.864  14.119   5.305
12621SOL     OW39701   0.930   6.066   1.125
12621SOL    HW139702   0.987   6.020   1.064
12621SOL    HW239703   0.897   5.998   1.184
12622SOL     OW39704   1.604  14.656   8.236
12622SOL    HW139705   1.577  14.731   8.290
12622SOL    HW239706   1.602  14.689   8.146
12623SOL     OW39707  11.914  12.653   1.232
12623SOL    HW139708  11.856  12.682   1.162
12623SOL    HW239709  11.904  12.558   1.234
12624SOL     OW39710   9.508   5.725   0.395
12624SOL    HW139711   9.510   5.633   0.367
12624SOL    HW239712   9.566   5.728   0.471
12625SOL     OW39713  13.481   2.534  12.094
12625SOL    HW139714  13.540   2.461  12.076
12625SOL    HW239715  13.394   2.494  12.100
12626SOL     OW39716  14.296   8.094  13.488
12626SOL    HW139717  14.241   8.132  13.556
12626SOL    HW239718  14.372   8.152  13.483
12627SOL     OW39719  13.165   9.034   4.165
12627SOL    HW139720  13.135   9.004   4.251
12627SOL    HW239721  13.177   8.954   4.114
12628SOL     OW39722   5.776   8.872  10.572
12628SOL    HW139723   5.849   8.916  10.528
12628SOL    HW239724   5.711   8.941  10.586
12629SOL     OW39725  12.897   7.731   4.973
12629SOL    HW139726  12.858   7.729   5.061
12629SOL    HW239727  12.823   7.742   4.914
12630SOL     OW39728   8.980   3.429  13.744
12630SOL    HW139729   9.045   3.359  13.734
12630SOL    HW239730   8.896   3.385  13.735
12631SOL     OW39731  10.059  10.622  12.535
12631SOL    HW139732  10.009  10.703  12.531
12631SOL    HW239733  10.134  10.636  12.477
12632SOL     OW39734  10.577   6.988  13.053
12632SOL    HW139735  10.610   6.972  12.965
12632SOL    HW239736  10.483   7.002  13.042
12633SOL     OW39737   8.252   8.649   0.164
12633SOL    HW139738   8.298   8.703   0.229
12633SOL    HW239739   8.278   8.686   0.080
12634SOL     OW39740   9.056  13.969   2.554
12634SOL    HW139741   9.023  13.977   2.464
12634SOL    HW239742   9.095  13.881   2.557
12635SOL     OW39743  13.506  13.580   8.019
12635SOL    HW139744  13.551  13.532   8.088
12635SOL    HW239745  13.575  13.603   7.957
12636SOL     OW39746   7.961  14.524   6.634
12636SOL    HW139747   8.057  14.520   6.631
12636SOL    HW239748   7.939  14.506   6.725
12637SOL     OW39749   4.770   8.427   3.639
12637SOL    HW139750   4.701   8.455   3.698
12637SOL    HW239751   4.823   8.506   3.624
12638SOL     OW39752   2.311   2.502  10.541
12638SOL    HW139753   2.263   2.494  10.623
12638SOL    HW239754   2.402   2.514  10.567
12639SOL     OW39755   4.237  12.885   6.876
12639SOL    HW139756   4.262  12.906   6.966
12639SOL    HW239757   4.199  12.966   6.842
12640SOL     OW39758   0.429   0.473  10.439
12640SOL    HW139759   0.369   0.521  10.497
12640SOL    HW239760   0.474   0.542  10.391
12641SOL     OW39761  14.018   9.255  10.877
12641SOL    HW139762  14.060   9.297  10.802
12641SOL    HW239763  14.069   9.175  10.891
12642SOL     OW39764   4.355  12.807   7.714
12642SOL    HW139765   4.378  12.777   7.626
12642SOL    HW239766   4.328  12.728   7.760
12643SOL     OW39767   0.271  14.422   4.893
12643SOL    HW139768   0.336  14.368   4.939
12643SOL    HW239769   0.271  14.389   4.804
12644SOL     OW39770  11.885   5.871  14.219
12644SOL    HW139771  11.865   5.863  14.313
12644SOL    HW239772  11.830   5.805  14.177
12645SOL     OW39773   6.883   9.118  13.689
12645SOL    HW139774   6.921   9.187  13.636
12645SOL    HW239775   6.884   9.040  13.633
12646SOL     OW39776  11.519   9.918   1.781
12646SOL    HW139777  11.561   9.993   1.739
12646SOL    HW239778  11.462   9.957   1.847
12647SOL     OW39779   5.075  10.736  12.347
12647SOL    HW139780   5.116  10.823  12.347
12647SOL    HW239781   5.149  10.675  12.357
12648SOL     OW39782   3.939  11.453  14.673
12648SOL    HW139783   4.008  11.405  14.627
12648SOL    HW239784   3.963  11.545  14.663
12649SOL     OW39785  12.366   2.434   3.605
12649SOL    HW139786  12.372   2.371   3.532
12649SOL    HW239787  12.285   2.481   3.589
12650SOL     OW39788  13.450  14.241   3.937
12650SOL    HW139789  13.518  14.309   3.927
12650SOL    HW239790  13.428  14.217   3.847
12651SOL     OW39791   8.188  13.397   0.277
12651SOL    HW139792   8.128  13.427   0.210
12651SOL    HW239793   8.134  13.348   0.339
12652SOL     OW39794   8.350   7.295  11.828
12652SOL    HW139795   8.278   7.234  11.814
12652SOL    HW239796   8.354   7.306  11.923
12653SOL     OW39797   6.229   4.677   7.491
12653SOL    HW139798   6.195   4.613   7.553
12653SOL    HW239799   6.196   4.647   7.406
12654SOL     OW39800  10.860   1.394   9.301
12654SOL    HW139801  10.856   1.478   9.254
12654SOL    HW239802  10.785   1.396   9.360
12655SOL     OW39803   2.274  11.175   3.328
12655SOL    HW139804   2.247  11.252   3.279
12655SOL    HW239805   2.198  11.153   3.382
12656SOL     OW39806   4.441   8.824   1.444
12656SOL    HW139807   4.359   8.863   1.413
12656SOL    HW239808   4.499   8.826   1.368
12657SOL     OW39809   2.219   6.317   7.768
12657SOL    HW139810   2.157   6.367   7.715
12657SOL    HW239811   2.166   6.278   7.837
12658SOL     OW39812  11.244   4.110   8.535
12658SOL    HW139813  11.304   4.173   8.495
12658SOL    HW239814  11.234   4.140   8.625
12659SOL     OW39815   4.660   4.112  13.208
12659SOL    HW139816   4.648   4.062  13.128
12659SOL    HW239817   4.594   4.077  13.268
12660SOL     OW39818   3.941   2.584   6.545
12660SOL    HW139819   3.979   2.612   6.462
12660SOL    HW239820   4.012   2.597   6.609
12661SOL     OW39821   9.053   5.766   8.155
12661SOL    HW139822   9.038   5.804   8.242
12661SOL    HW239823   8.991   5.693   8.150
12662SOL     OW39824   0.644  12.990  12.822
12662SOL    HW139825   0.720  12.933  12.815
12662SOL    HW239826   0.654  13.033  12.907
12663SOL     OW39827  12.570   1.227   9.311
12663SOL    HW139828  12.569   1.277   9.393
12663SOL    HW239829  12.495   1.168   9.317
12664SOL     OW39830   6.214   0.033  11.995
12664SOL    HW139831   6.202   0.096  12.066
12664SOL    HW239832   6.195  14.822  12.035
12665SOL     OW39833   4.767   9.163  12.303
12665SOL    HW139834   4.802   9.242  12.344
12665SOL    HW239835   4.842   9.121  12.261
12666SOL     OW39836   9.663   6.272   8.527
12666SOL    HW139837   9.700   6.319   8.602
12666SOL    HW239838   9.643   6.184   8.561
12667SOL     OW39839   7.269   5.348   0.795
12667SOL    HW139840   7.235   5.392   0.873
12667SOL    HW239841   7.309   5.268   0.829
12668SOL     OW39842  10.977  10.765  11.449
12668SOL    HW139843  11.004  10.835  11.507
12668SOL    HW239844  10.911  10.805  11.392
12669SOL     OW39845   1.535  14.218   5.303
12669SOL    HW139846   1.504  14.228   5.393
12669SOL    HW239847   1.610  14.278   5.297
12670SOL     OW39848  14.331   6.873   6.736
12670SOL    HW139849  14.403   6.818   6.768
12670SOL    HW239850  14.287   6.903   6.815
12671SOL     OW39851   4.285   9.600   7.694
12671SOL    HW139852   4.248   9.525   7.742
12671SOL    HW239853   4.372   9.612   7.734
12672SOL     OW39854   4.832   3.860   4.044
12672SOL    HW139855   4.810   3.787   3.985
12672SOL    HW239856   4.747   3.892   4.076
12673SOL     OW39857  14.332  14.380   3.622
12673SOL    HW139858  14.310  14.460   3.575
12673SOL    HW239859  14.273  14.314   3.585
12674SOL     OW39860  12.348  13.728  13.269
12674SOL    HW139861  12.333  13.753  13.360
12674SOL    HW239862  12.271  13.760  13.223
12675SOL     OW39863   6.406   1.526  13.258
12675SOL    HW139864   6.342   1.496  13.323
12675SOL    HW239865   6.359   1.593  13.208
12676SOL     OW39866   3.572  11.089   7.465
12676SOL    HW139867   3.591  11.030   7.538
12676SOL    HW239868   3.529  11.033   7.400
12677SOL     OW39869  12.029   6.807  10.948
12677SOL    HW139870  11.935   6.818  10.966
12677SOL    HW239871  12.048   6.717  10.975
12678SOL     OW39872   2.489  10.759   1.593
12678SOL    HW139873   2.411  10.815   1.599
12678SOL    HW239874   2.558  10.809   1.636
12679SOL     OW39875   6.793  10.363   7.786
12679SOL    HW139876   6.853  10.434   7.810
12679SOL    HW239877   6.850  10.288   7.769
12680SOL     OW39878   3.042   7.370   6.087
12680SOL    HW139879   2.965   7.317   6.109
12680SOL    HW239880   3.013   7.461   6.098
12681SOL     OW39881   0.903   3.677  14.044
12681SOL    HW139882   0.932   3.646  13.958
12681SOL    HW239883   0.823   3.726  14.026
12682SOL     OW39884   2.494  10.421   8.011
12682SOL    HW139885   2.507  10.515   8.025
12682SOL    HW239886   2.553  10.400   7.938
12683SOL     OW39887  11.567  14.744  12.403
12683SOL    HW139888  11.576  14.751  12.307
12683SOL    HW239889  11.641  14.792  12.437
12684SOL     OW39890   1.323   5.899   3.395
12684SOL    HW139891   1.316   5.823   3.337
12684SOL    HW239892   1.273   5.875   3.473
12685SOL     OW39893  12.970   3.664   8.753
12685SOL    HW139894  12.967   3.729   8.823
12685SOL    HW239895  12.993   3.582   8.798
12686SOL     OW39896   2.206   3.886   9.188
12686SOL    HW139897   2.146   3.943   9.141
12686SOL    HW239898   2.282   3.878   9.130
12687SOL     OW39899  10.498   0.413  13.318
12687SOL    HW139900  10.590   0.395  13.340
12687SOL    HW239901  10.471   0.339  13.263
12688SOL     OW39902  13.280   8.481   2.232
12688SOL    HW139903  13.363   8.515   2.198
12688SOL    HW239904  13.304   8.402   2.279
12689SOL     OW39905   9.767   9.150  12.543
12689SOL    HW139906   9.857   9.140  12.511
12689SOL    HW239907   9.764   9.239  12.577
12690SOL     OW39908  13.049   7.734   5.563
12690SOL    HW139909  13.068   7.752   5.471
12690SOL    HW239910  13.031   7.821   5.601
12691SOL     OW39911  13.130   1.308  13.844
12691SOL    HW139912  13.221   1.299  13.874
12691SOL    HW239913  13.109   1.221  13.808
12692SOL     OW39914   3.646   5.452  14.531
12692SOL    HW139915   3.632   5.445  14.436
12692SOL    HW239916   3.558   5.468  14.566
12693SOL     OW39917  13.175   4.830   1.025
12693SOL    HW139918  13.102   4.856   1.081
12693SOL    HW239919  13.253   4.859   1.073
12694SOL     OW39920  11.901  10.314  10.428
12694SOL    HW139921  11.959  10.271  10.490
12694SOL    HW239922  11.904  10.406  10.452
12695SOL     OW39923   5.672   9.426   6.064
12695SOL    HW139924   5.729   9.468   5.999
12695SOL    HW239925   5.716   9.343   6.084
12696SOL     OW39926  13.368  11.995   0.855
12696SOL    HW139927  13.276  12.004   0.880
12696SOL    HW239928  13.377  12.051   0.778
12697SOL     OW39929  10.173  11.995  10.046
12697SOL    HW139930  10.127  12.040  10.118
12697SOL    HW239931  10.103  11.955   9.995
12698SOL     OW39932   4.941   2.846   1.832
12698SOL    HW139933   4.849   2.835   1.808
12698SOL    HW239934   4.979   2.894   1.759
12699SOL     OW39935   3.382  13.951  10.460
12699SOL    HW139936   3.432  14.026  10.429
12699SOL    HW239937   3.291  13.982  10.462
12700SOL     OW39938   5.555  11.975   3.462
12700SOL    HW139939   5.573  11.986   3.555
12700SOL    HW239940   5.597  12.049   3.420
12701SOL     OW39941   7.088   8.465  13.502
12701SOL    HW139942   6.996   8.494  13.499
12701SOL    HW239943   7.091   8.401  13.573
12702SOL     OW39944   4.427   7.282   8.208
12702SOL    HW139945   4.424   7.187   8.219
12702SOL    HW239946   4.367   7.316   8.276
12703SOL     OW39947   2.579  10.124  11.331
12703SOL    HW139948   2.651  10.157  11.278
12703SOL    HW239949   2.530  10.202  11.356
12704SOL     OW39950   1.058  10.578   3.281
12704SOL    HW139951   1.074  10.486   3.256
12704SOL    HW239952   0.965  10.591   3.266
12705SOL     OW39953   2.944   5.425   9.601
12705SOL    HW139954   2.981   5.394   9.518
12705SOL    HW239955   2.919   5.346   9.648
12706SOL     OW39956  13.665   2.883   6.748
12706SOL    HW139957  13.570   2.901   6.748
12706SOL    HW239958  13.677   2.823   6.822
12707SOL     OW39959   0.035  10.589   9.118
12707SOL    HW139960  14.846  10.662   9.120
12707SOL    HW239961   0.111  10.622   9.166
12708SOL     OW39962   1.746   1.245  12.828
12708SOL    HW139963   1.730   1.179  12.761
12708SOL    HW239964   1.669   1.242  12.884
12709SOL     OW39965   2.558   7.511   6.417
12709SOL    HW139966   2.652   7.513   6.438
12709SOL    HW239967   2.550   7.561   6.336
12710SOL     OW39968   6.434   0.043   4.583
12710SOL    HW139969   6.400   0.022   4.495
12710SOL    HW239970   6.459  14.832   4.620
12711SOL     OW39971  11.651   9.215   3.972
12711SOL    HW139972  11.708   9.227   3.896
12711SOL    HW239973  11.627   9.304   3.999
12712SOL     OW39974  14.146   1.564  11.396
12712SOL    HW139975  14.157   1.575  11.301
12712SOL    HW239976  14.086   1.490  11.405
12713SOL     OW39977  14.810   8.385  13.211
12713SOL    HW139978  14.719   8.369  13.236
12713SOL    HW239979  14.810   8.474  13.175
12714SOL     OW39980  13.717   1.455  13.834
12714SOL    HW139981  13.721   1.364  13.803
12714SOL    HW239982  13.725   1.508  13.754
12715SOL     OW39983   2.964  10.811  11.913
12715SOL    HW139984   3.005  10.809  12.000
12715SOL    HW239985   2.985  10.725  11.875
12716SOL     OW39986  14.205   6.325   6.839
12716SOL    HW139987  14.183   6.412   6.871
12716SOL    HW239988  14.250   6.340   6.756
12717SOL     OW39989   1.818  14.851   0.123
12717SOL    HW139990   1.908  14.833   0.095
12717SOL    HW239991   1.809  14.804   0.205
12718SOL     OW39992  11.660   6.455  12.044
12718SOL    HW139993  11.692   6.509  11.971
12718SOL    HW239994  11.716   6.377  12.041
12719SOL     OW39995   5.118   3.022   1.107
12719SOL    HW139996   5.108   2.927   1.111
12719SOL    HW239997   5.042   3.052   1.056
12720SOL     OW39998   6.480  10.644   3.344
12720SOL    HW139999   6.575  10.638   3.345
12720SOL    HW240000   6.450  10.555   3.326
12721SOL     OW40001  11.404   2.689   8.889
12721SOL    HW140002  11.449   2.715   8.809
12721SOL    HW240003  11.412   2.594   8.892
12722SOL     OW40004   0.107   4.711   9.396
12722SOL    HW140005   0.070   4.798   9.410
12722SOL    HW240006   0.145   4.715   9.309
12723SOL     OW40007   7.294   0.681   4.856
12723SOL    HW140008   7.245   0.762   4.870
12723SOL    HW240009   7.366   0.685   4.920
12724SOL     OW40010   1.566   0.180   1.694
12724SOL    HW140011   1.653   0.141   1.682
12724SOL    HW240012   1.517   0.153   1.616
12725SOL     OW40013   4.354   7.072   9.380
12725SOL    HW140014   4.319   7.039   9.298
12725SOL    HW240015   4.279   7.068   9.441
12726SOL     OW40016   0.396   1.192   7.828
12726SOL    HW140017   0.391   1.223   7.737
12726SOL    HW240018   0.364   1.102   7.824
12727SOL     OW40019  13.312  13.618  12.812
12727SOL    HW140020  13.369  13.553  12.770
12727SOL    HW240021  13.356  13.638  12.894
12728SOL     OW40022  13.986   3.506  10.847
12728SOL    HW140023  14.079   3.497  10.830
12728SOL    HW240024  13.944   3.485  10.764
12729SOL     OW40025   9.600   0.407   5.187
12729SOL    HW140026   9.527   0.409   5.248
12729SOL    HW240027   9.645   0.325   5.205
12730SOL     OW40028   5.848   4.448   3.302
12730SOL    HW140029   5.846   4.462   3.207
12730SOL    HW240030   5.906   4.516   3.335
12731SOL     OW40031   5.198   4.275  10.989
12731SOL    HW140032   5.184   4.235  11.076
12731SOL    HW240033   5.240   4.206  10.938
12732SOL     OW40034  10.233  10.322  12.961
12732SOL    HW140035  10.229  10.350  13.053
12732SOL    HW240036  10.197  10.396  12.912
12733SOL     OW40037   2.932   1.385  11.282
12733SOL    HW140038   2.846   1.379  11.241
12733SOL    HW240039   2.932   1.470  11.327
12734SOL     OW40040   3.419   4.712  10.377
12734SOL    HW140041   3.432   4.805  10.397
12734SOL    HW240042   3.477   4.696  10.302
12735SOL     OW40043   5.427   0.494   6.143
12735SOL    HW140044   5.467   0.427   6.089
12735SOL    HW240045   5.336   0.467   6.152
12736SOL     OW40046   1.985   7.482   8.969
12736SOL    HW140047   2.076   7.488   8.942
12736SOL    HW240048   1.983   7.518   9.057
12737SOL     OW40049  10.145   4.608   8.806
12737SOL    HW140050  10.148   4.560   8.889
12737SOL    HW240051  10.180   4.695   8.827
12738SOL     OW40052  13.457   5.926  12.748
12738SOL    HW140053  13.385   5.906  12.690
12738SOL    HW240054  13.454   5.858  12.815
12739SOL     OW40055   7.558   4.693   7.037
12739SOL    HW140056   7.519   4.776   7.061
12739SOL    HW240057   7.652   4.712   7.028
12740SOL     OW40058   3.013  11.779   8.006
12740SOL    HW140059   2.918  11.793   8.002
12740SOL    HW240060   3.029  11.704   7.948
12741SOL     OW40061   6.366   5.086   7.023
12741SOL    HW140062   6.381   5.074   6.930
12741SOL    HW240063   6.436   5.035   7.065
12742SOL     OW40064   9.293  11.399   2.625
12742SOL    HW140065   9.265  11.470   2.567
12742SOL    HW240066   9.239  11.325   2.601
12743SOL     OW40067   5.200   4.292   5.254
12743SOL    HW140068   5.268   4.254   5.199
12743SOL    HW240069   5.168   4.368   5.205
12744SOL     OW40070  10.959   3.763   8.122
12744SOL    HW140071  11.045   3.792   8.153
12744SOL    HW240072  10.962   3.668   8.129
12745SOL     OW40073  12.650   7.392   6.070
12745SOL    HW140074  12.729   7.358   6.112
12745SOL    HW240075  12.661   7.373   5.977
12746SOL     OW40076  11.921  10.642  11.060
12746SOL    HW140077  11.856  10.649  11.130
12746SOL    HW240078  11.934  10.548  11.049
12747SOL     OW40079   1.365   2.107  14.380
12747SOL    HW140080   1.434   2.046  14.353
12747SOL    HW240081   1.284   2.056  14.374
12748SOL     OW40082  14.036  13.428   2.694
12748SOL    HW140083  14.107  13.462   2.748
12748SOL    HW240084  14.023  13.338   2.724
12749SOL     OW40085  11.047  14.075   6.493
12749SOL    HW140086  10.966  14.025   6.477
12749SOL    HW240087  11.109  14.009   6.525
12750SOL     OW40088  10.461   2.359   7.097
12750SOL    HW140089  10.492   2.369   7.187
12750SOL    HW240090  10.488   2.271   7.073
12751SOL     OW40091  14.681  13.671   8.324
12751SOL    HW140092  14.694  13.614   8.248
12751SOL    HW240093  14.589  13.694   8.322
12752SOL     OW40094  13.225  10.944   3.484
12752SOL    HW140095  13.239  11.025   3.434
12752SOL    HW240096  13.258  10.875   3.427
12753SOL     OW40097   1.908  13.258   1.182
12753SOL    HW140098   1.815  13.243   1.195
12753SOL    HW240099   1.933  13.198   1.112
12754SOL     OW40100   9.397   3.786   8.589
12754SOL    HW140101   9.396   3.871   8.546
12754SOL    HW240102   9.314   3.783   8.638
12755SOL     OW40103   2.931  14.012  10.750
12755SOL    HW140104   2.999  13.962  10.795
12755SOL    HW240105   2.911  14.084  10.809
12756SOL     OW40106  10.666   7.883   6.116
12756SOL    HW140107  10.694   7.884   6.208
12756SOL    HW240108  10.747   7.899   6.067
12757SOL     OW40109  10.949  13.124   6.972
12757SOL    HW140110  10.890  13.097   7.043
12757SOL    HW240111  10.958  13.219   6.983
12758SOL     OW40112  10.690  11.911   3.729
12758SOL    HW140113  10.709  11.964   3.651
12758SOL    HW240114  10.595  11.914   3.738
12759SOL     OW40115   4.632   0.910   6.341
12759SOL    HW140116   4.560   0.955   6.297
12759SOL    HW240117   4.663   0.846   6.276
12760SOL     OW40118   6.662   1.875   7.513
12760SOL    HW140119   6.737   1.883   7.572
12760SOL    HW240120   6.615   1.958   7.522
12761SOL     OW40121   1.362   8.707  14.219
12761SOL    HW140122   1.409   8.651  14.157
12761SOL    HW240123   1.275   8.717  14.181
12762SOL     OW40124   9.190   7.713   1.376
12762SOL    HW140125   9.216   7.804   1.386
12762SOL    HW240126   9.187   7.679   1.466
12763SOL     OW40127   0.947   8.092   9.221
12763SOL    HW140128   0.854   8.071   9.220
12763SOL    HW240129   0.950   8.188   9.220
12764SOL     OW40130   3.680   7.729  12.518
12764SOL    HW140131   3.657   7.671  12.591
12764SOL    HW240132   3.772   7.710  12.501
12765SOL     OW40133   6.122   3.866   8.399
12765SOL    HW140134   6.182   3.791   8.405
12765SOL    HW240135   6.066   3.858   8.476
12766SOL     OW40136  14.501   3.685   0.155
12766SOL    HW140137  14.508   3.629   0.078
12766SOL    HW240138  14.522   3.773   0.122
12767SOL     OW40139   0.235   1.940  11.313
12767SOL    HW140140   0.174   1.898  11.251
12767SOL    HW240141   0.232   2.033  11.290
12768SOL     OW40142  12.742   9.764   1.555
12768SOL    HW140143  12.807   9.833   1.572
12768SOL    HW240144  12.658   9.810   1.557
12769SOL     OW40145   2.817   2.341   7.162
12769SOL    HW140146   2.879   2.324   7.234
12769SOL    HW240147   2.868   2.326   7.083
12770SOL     OW40148   8.919  11.257   5.528
12770SOL    HW140149   8.851  11.191   5.543
12770SOL    HW240150   8.911  11.317   5.602
12771SOL     OW40151   8.482  13.883   2.992
12771SOL    HW140152   8.509  13.974   3.005
12771SOL    HW240153   8.403  13.874   3.045
12772SOL     OW40154   4.852   3.910  11.033
12772SOL    HW140155   4.913   3.847  11.071
12772SOL    HW240156   4.827   3.966  11.106
12773SOL     OW40157  12.019   5.342  12.977
12773SOL    HW140158  11.956   5.410  13.001
12773SOL    HW240159  11.972   5.286  12.916
12774SOL     OW40160  13.054   1.219   3.795
12774SOL    HW140161  13.144   1.230   3.764
12774SOL    HW240162  13.012   1.302   3.774
12775SOL     OW40163   7.216  12.263  10.179
12775SOL    HW140164   7.270  12.224  10.111
12775SOL    HW240165   7.275  12.270  10.255
12776SOL     OW40166  12.481   4.357   2.577
12776SOL    HW140167  12.491   4.336   2.669
12776SOL    HW240168  12.426   4.435   2.575
12777SOL     OW40169   9.083   1.016   1.464
12777SOL    HW140170   9.148   0.983   1.526
12777SOL    HW240171   9.075   1.109   1.486
12778SOL     OW40172  12.235   3.641   0.667
12778SOL    HW140173  12.250   3.570   0.604
12778SOL    HW240174  12.175   3.602   0.732
12779SOL     OW40175   7.007  13.372   2.142
12779SOL    HW140176   6.995  13.278   2.155
12779SOL    HW240177   7.101  13.386   2.157
12780SOL     OW40178   1.799   1.249   7.814
12780SOL    HW140179   1.707   1.232   7.835
12780SOL    HW240180   1.822   1.324   7.869
12781SOL     OW40181   7.137  10.237   3.802
12781SOL    HW140182   7.168  10.307   3.860
12781SOL    HW240183   7.087  10.283   3.735
12782SOL     OW40184   9.877   3.119  10.781
12782SOL    HW140185   9.906   3.161  10.700
12782SOL    HW240186   9.924   3.165  10.851
12783SOL     OW40187   1.000  11.517   1.314
12783SOL    HW140188   0.952  11.435   1.322
12783SOL    HW240189   0.953  11.567   1.247
12784SOL     OW40190  11.659  13.729   6.734
12784SOL    HW140191  11.679  13.636   6.720
12784SOL    HW240192  11.622  13.758   6.650
12785SOL     OW40193   1.434   8.069   2.995
12785SOL    HW140194   1.344   8.038   2.996
12785SOL    HW240195   1.437   8.137   3.062
12786SOL     OW40196   9.917  14.824   2.419
12786SOL    HW140197   9.843  14.775   2.382
12786SOL    HW240198   9.967  14.853   2.342
12787SOL     OW40199   3.662   6.387   9.208
12787SOL    HW140200   3.632   6.349   9.290
12787SOL    HW240201   3.716   6.319   9.168
12788SOL     OW40202  11.639   4.468   5.769
12788SOL    HW140203  11.574   4.419   5.819
12788SOL    HW240204  11.589   4.506   5.696
12789SOL     OW40205  10.352   4.186  10.132
12789SOL    HW140206  10.301   4.266  10.143
12789SOL    HW240207  10.337   4.160  10.041
12790SOL     OW40208  14.851   7.348  13.403
12790SOL    HW140209  14.815   7.283  13.342
12790SOL    HW240210   0.038   7.398  13.350
12791SOL     OW40211  14.549   9.443   8.364
12791SOL    HW140212  14.596   9.400   8.435
12791SOL    HW240213  14.511   9.522   8.403
12792SOL     OW40214   6.023   6.065  11.433
12792SOL    HW140215   6.108   6.104  11.413
12792SOL    HW240216   6.004   6.010  11.356
12793SOL     OW40217  13.911   8.832   5.517
12793SOL    HW140218  14.004   8.812   5.531
12793SOL    HW240219  13.908   8.868   5.428
12794SOL     OW40220   0.077   8.601   7.194
12794SOL    HW140221   0.109   8.673   7.249
12794SOL    HW240222   0.151   8.542   7.186
12795SOL     OW40223  13.658   5.271  10.717
12795SOL    HW140224  13.566   5.290  10.735
12795SOL    HW240225  13.706   5.316  10.786
12796SOL     OW40226  11.983  10.342   1.954
12796SOL    HW140227  11.980  10.435   1.932
12796SOL    HW240228  12.054  10.335   2.018
12797SOL     OW40229   7.091  12.408  13.800
12797SOL    HW140230   7.081  12.495  13.839
12797SOL    HW240231   7.100  12.425  13.706
12798SOL     OW40232   7.307  13.026   4.891
12798SOL    HW140233   7.333  12.959   4.828
12798SOL    HW240234   7.280  12.977   4.969
12799SOL     OW40235   5.534  10.684   4.462
12799SOL    HW140236   5.513  10.632   4.385
12799SOL    HW240237   5.584  10.625   4.518
12800SOL     OW40238   1.941  11.369   3.883
12800SOL    HW140239   2.036  11.379   3.889
12800SOL    HW240240   1.929  11.285   3.838
12801SOL     OW40241   0.702   8.865   2.154
12801SOL    HW140242   0.629   8.919   2.184
12801SOL    HW240243   0.733   8.820   2.232
12802SOL     OW40244  11.598   7.621  12.527
12802SOL    HW140245  11.620   7.667  12.446
12802SOL    HW240246  11.574   7.533  12.499
12803SOL     OW40247   4.882   0.041   6.450
12803SOL    HW140248   4.835   0.119   6.421
12803SOL    HW240249   4.820  14.870   6.507
12804SOL     OW40250   7.429   4.739   4.358
12804SOL    HW140251   7.495   4.797   4.321
12804SOL    HW240252   7.358   4.798   4.385
12805SOL     OW40253   4.608   1.223   0.467
12805SOL    HW140254   4.576   1.306   0.432
12805SOL    HW240255   4.542   1.197   0.531
12806SOL     OW40256   3.323   3.568   2.811
12806SOL    HW140257   3.400   3.518   2.785
12806SOL    HW240258   3.250   3.524   2.767
12807SOL     OW40259  14.152  10.882   4.468
12807SOL    HW140260  14.111  10.943   4.406
12807SOL    HW240261  14.084  10.863   4.532
12808SOL     OW40262   0.575   7.009  14.811
12808SOL    HW140263   0.544   6.929  14.855
12808SOL    HW240264   0.644   7.042  14.868
12809SOL     OW40265  12.050   0.504  12.539
12809SOL    HW140266  11.973   0.520  12.485
12809SOL    HW240267  12.098   0.436  12.493
12810SOL     OW40268  12.819  12.536   1.317
12810SOL    HW140269  12.867  12.618   1.329
12810SOL    HW240270  12.771  12.525   1.398
12811SOL     OW40271  13.541   1.950   1.931
12811SOL    HW140272  13.518   1.887   1.999
12811SOL    HW240273  13.553   2.033   1.977
12812SOL     OW40274   4.854  11.236  12.194
12812SOL    HW140275   4.810  11.308  12.241
12812SOL    HW240276   4.829  11.157  12.242
12813SOL     OW40277   6.587   6.707  10.900
12813SOL    HW140278   6.609   6.679  10.812
12813SOL    HW240279   6.668   6.742  10.936
12814SOL     OW40280   4.945   6.540   4.455
12814SOL    HW140281   4.969   6.610   4.394
12814SOL    HW240282   4.869   6.575   4.502
12815SOL     OW40283  11.962   5.027   2.864
12815SOL    HW140284  11.991   4.973   2.791
12815SOL    HW240285  11.971   4.971   2.941
12816SOL     OW40286   4.221  12.694  11.164
12816SOL    HW140287   4.226  12.601  11.144
12816SOL    HW240288   4.187  12.734  11.084
12817SOL     OW40289   8.376  14.473  11.250
12817SOL    HW140290   8.403  14.530  11.179
12817SOL    HW240291   8.301  14.424  11.216
12818SOL     OW40292   4.288   2.474   3.447
12818SOL    HW140293   4.379   2.468   3.416
12818SOL    HW240294   4.237   2.497   3.370
12819SOL     OW40295   8.983   9.304  13.227
12819SOL    HW140296   8.893   9.335  13.225
12819SOL    HW240297   8.986   9.245  13.303
12820SOL     OW40298   1.948   9.040   3.961
12820SOL    HW140299   1.965   9.063   3.869
12820SOL    HW240300   2.031   9.003   3.992
12821SOL     OW40301   5.816   2.238  12.683
12821SOL    HW140302   5.749   2.191  12.632
12821SOL    HW240303   5.774   2.320  12.708
12822SOL     OW40304   7.221  12.408  14.065
12822SOL    HW140305   7.232  12.483  14.006
12822SOL    HW240306   7.145  12.361  14.031
12823SOL     OW40307   6.411   1.891  13.877
12823SOL    HW140308   6.395   1.977  13.838
12823SOL    HW240309   6.431   1.835  13.802
12824SOL     OW40310   8.001  10.554  13.879
12824SOL    HW140311   7.908  10.554  13.901
12824SOL    HW240312   8.034  10.637  13.912
12825SOL     OW40313  10.555  12.546  13.270
12825SOL    HW140314  10.577  12.454  13.260
12825SOL    HW240315  10.610  12.592  13.207
12826SOL     OW40316  14.006  13.037   8.041
12826SOL    HW140317  14.062  12.997   8.108
12826SOL    HW240318  14.056  13.113   8.011
12827SOL     OW40319   4.764  13.700   9.563
12827SOL    HW140320   4.686  13.648   9.541
12827SOL    HW240321   4.741  13.746   9.643
12828SOL     OW40322  13.254   7.515   1.431
12828SOL    HW140323  13.161   7.528   1.449
12828SOL    HW240324  13.257   7.440   1.372
12829SOL     OW40325   7.481   4.247   7.476
12829SOL    HW140326   7.488   4.326   7.423
12829SOL    HW240327   7.478   4.175   7.412
12830SOL     OW40328   8.740  10.708  10.501
12830SOL    HW140329   8.806  10.677  10.439
12830SOL    HW240330   8.726  10.634  10.560
12831SOL     OW40331   6.247   8.505   1.640
12831SOL    HW140332   6.175   8.455   1.680
12831SOL    HW240333   6.322   8.488   1.697
12832SOL     OW40334   5.892   3.385   4.671
12832SOL    HW140335   5.925   3.454   4.613
12832SOL    HW240336   5.970   3.351   4.714
12833SOL     OW40337   6.484  11.537   7.709
12833SOL    HW140338   6.572  11.512   7.738
12833SOL    HW240339   6.439  11.454   7.694
12834SOL     OW40340  10.705   3.189   9.253
12834SOL    HW140341  10.724   3.095   9.257
12834SOL    HW240342  10.623   3.195   9.204
12835SOL     OW40343   0.264  10.057   1.246
12835SOL    HW140344   0.188  10.055   1.304
12835SOL    HW240345   0.338  10.077   1.303
12836SOL     OW40346   2.012  10.920  14.327
12836SOL    HW140347   1.974  11.004  14.353
12836SOL    HW240348   2.098  10.919  14.369
12837SOL     OW40349   6.815   5.753  11.854
12837SOL    HW140350   6.740   5.698  11.878
12837SOL    HW240351   6.857   5.705  11.782
12838SOL     OW40352   4.523  11.677   8.928
12838SOL    HW140353   4.493  11.589   8.904
12838SOL    HW240354   4.470  11.736   8.875
12839SOL     OW40355   1.347   7.891  13.332
12839SOL    HW140356   1.285   7.825  13.364
12839SOL    HW240357   1.417   7.841  13.290
12840SOL     OW40358  12.987   8.901   3.149
12840SOL    HW140359  12.951   8.924   3.234
12840SOL    HW240360  12.936   8.826   3.120
12841SOL     OW40361   1.411   2.455  10.082
12841SOL    HW140362   1.383   2.453   9.990
12841SOL    HW240363   1.350   2.515  10.124
12842SOL     OW40364   9.295  12.669   1.023
12842SOL    HW140365   9.232  12.696   0.956
12842SOL    HW240366   9.369  12.728   1.012
12843SOL     OW40367  13.409  11.297  13.226
12843SOL    HW140368  13.468  11.360  13.268
12843SOL    HW240369  13.453  11.212  13.238
12844SOL     OW40370   6.150   8.581   3.335
12844SOL    HW140371   6.083   8.611   3.396
12844SOL    HW240372   6.184   8.500   3.374
12845SOL     OW40373  12.638   6.976   2.746
12845SOL    HW140374  12.684   6.969   2.663
12845SOL    HW240375  12.610   6.887   2.766
12846SOL     OW40376   2.095   0.991   7.698
12846SOL    HW140377   2.112   1.084   7.711
12846SOL    HW240378   2.176   0.948   7.726
12847SOL     OW40379  11.806   8.514  13.333
12847SOL    HW140380  11.815   8.473  13.419
12847SOL    HW240381  11.723   8.480  13.299
12848SOL     OW40382  13.697   0.747   7.590
12848SOL    HW140383  13.697   0.813   7.660
12848SOL    HW240384  13.625   0.774   7.533
12849SOL     OW40385  13.555   2.884   6.194
12849SOL    HW140386  13.534   2.840   6.111
12849SOL    HW240387  13.648   2.904   6.187
12850SOL     OW40388   9.190   5.187   9.360
12850SOL    HW140389   9.163   5.217   9.447
12850SOL    HW240390   9.124   5.222   9.301
12851SOL     OW40391   0.553   9.932  14.469
12851SOL    HW140392   0.524   9.904  14.555
12851SOL    HW240393   0.634   9.884  14.453
12852SOL     OW40394   1.125   8.749   5.521
12852SOL    HW140395   1.216   8.764   5.495
12852SOL    HW240396   1.094   8.834   5.552
12853SOL     OW40397   3.770  11.757   0.931
12853SOL    HW140398   3.779  11.670   0.970
12853SOL    HW240399   3.772  11.741   0.836
12854SOL     OW40400   3.207   9.945   5.263
12854SOL    HW140401   3.134  10.007   5.267
12854SOL    HW240402   3.283   9.999   5.243
12855SOL     OW40403   6.967   5.401   4.293
12855SOL    HW140404   6.963   5.422   4.386
12855SOL    HW240405   6.912   5.467   4.251
12856SOL     OW40406   8.558  14.814  12.899
12856SOL    HW140407   8.509  14.862  12.832
12856SOL    HW240408   8.572  14.728  12.862
12857SOL     OW40409   7.907   7.872   1.109
12857SOL    HW140410   7.860   7.928   1.048
12857SOL    HW240411   7.866   7.786   1.101
12858SOL     OW40412   9.772   4.767   1.045
12858SOL    HW140413   9.850   4.799   1.000
12858SOL    HW240414   9.796   4.680   1.076
12859SOL     OW40415   5.539   0.322   7.015
12859SOL    HW140416   5.599   0.262   6.970
12859SOL    HW240417   5.596   0.380   7.065
12860SOL     OW40418   3.061  11.509   1.013
12860SOL    HW140419   3.050  11.555   0.930
12860SOL    HW240420   3.046  11.577   1.079
12861SOL     OW40421   4.469   2.139  14.426
12861SOL    HW140422   4.506   2.054  14.449
12861SOL    HW240423   4.514   2.165  14.346
12862SOL     OW40424   1.169  11.748   6.550
12862SOL    HW140425   1.248  11.746   6.603
12862SOL    HW240426   1.194  11.792   6.469
12863SOL     OW40427  14.531  14.226   8.129
12863SOL    HW140428  14.437  14.244   8.116
12863SOL    HW240429  14.539  14.208   8.223
12864SOL     OW40430   2.634  10.345  14.200
12864SOL    HW140431   2.605  10.434  14.180
12864SOL    HW240432   2.610  10.332  14.292
12865SOL     OW40433  11.134  11.167   1.269
12865SOL    HW140434  11.117  11.159   1.362
12865SOL    HW240435  11.081  11.242   1.241
12866SOL     OW40436  11.394   4.758   2.615
12866SOL    HW140437  11.326   4.704   2.574
12866SOL    HW240438  11.427   4.814   2.544
12867SOL     OW40439   7.958  10.008   3.864
12867SOL    HW140440   7.925  10.075   3.924
12867SOL    HW240441   7.919  10.029   3.779
12868SOL     OW40442  12.707  12.547   3.498
12868SOL    HW140443  12.802  12.540   3.494
12868SOL    HW240444  12.677  12.456   3.499
12869SOL     OW40445   3.862   4.003   5.814
12869SOL    HW140446   3.896   3.939   5.877
12869SOL    HW240447   3.922   4.078   5.822
12870SOL     OW40448   9.681   6.095   1.810
12870SOL    HW140449   9.664   6.056   1.896
12870SOL    HW240450   9.734   6.030   1.764
12871SOL     OW40451   8.549   6.902  10.918
12871SOL    HW140452   8.530   6.898  10.824
12871SOL    HW240453   8.530   6.814  10.949
12872SOL     OW40454   5.468   2.721  11.866
12872SOL    HW140455   5.445   2.631  11.843
12872SOL    HW240456   5.556   2.733  11.830
12873SOL     OW40457   5.111   4.106   0.147
12873SOL    HW140458   5.179   4.109   0.080
12873SOL    HW240459   5.044   4.047   0.112
12874SOL     OW40460  12.054   6.846   9.494
12874SOL    HW140461  11.959   6.856   9.497
12874SOL    HW240462  12.069   6.755   9.469
12875SOL     OW40463  13.410  14.670  13.073
12875SOL    HW140464  13.444  14.684  12.985
12875SOL    HW240465  13.338  14.732  13.082
12876SOL     OW40466   1.954   1.201   4.945
12876SOL    HW140467   1.993   1.117   4.923
12876SOL    HW240468   1.983   1.219   5.035
12877SOL     OW40469   5.675   3.538   3.801
12877SOL    HW140470   5.679   3.593   3.880
12877SOL    HW240471   5.700   3.597   3.730
12878SOL     OW40472  13.856   4.540   5.076
12878SOL    HW140473  13.937   4.489   5.078
12878SOL    HW240474  13.789   4.478   5.106
12879SOL     OW40475  12.872   2.908   6.971
12879SOL    HW140476  12.888   2.981   6.911
12879SOL    HW240477  12.789   2.870   6.942
12880SOL     OW40478   5.266   6.327   4.396
12880SOL    HW140479   5.205   6.375   4.340
12880SOL    HW240480   5.346   6.378   4.395
12881SOL     OW40481   7.720   3.147  12.480
12881SOL    HW140482   7.681   3.185  12.559
12881SOL    HW240483   7.645   3.131  12.422
12882SOL     OW40484  14.688   3.313  14.334
12882SOL    HW140485  14.684   3.312  14.238
12882SOL    HW240486  14.646   3.231  14.360
12883SOL     OW40487   2.739   1.234  13.508
12883SOL    HW140488   2.823   1.227  13.461
12883SOL    HW240489   2.673   1.220  13.440
12884SOL     OW40490  13.686   6.438  14.253
12884SOL    HW140491  13.698   6.466  14.344
12884SOL    HW240492  13.592   6.446  14.237
12885SOL     OW40493   2.237   0.619   5.054
12885SOL    HW140494   2.197   0.603   4.968
12885SOL    HW240495   2.290   0.541   5.071
12886SOL     OW40496   4.886   6.322  11.098
12886SOL    HW140497   4.956   6.294  11.156
12886SOL    HW240498   4.931   6.348  11.018
12887SOL     OW40499  11.059   3.546  12.382
12887SOL    HW140500  11.083   3.513  12.469
12887SOL    HW240501  11.140   3.541  12.331
12888SOL     OW40502  14.476   1.981   5.458
12888SOL    HW140503  14.496   1.923   5.531
12888SOL    HW240504  14.445   2.062   5.498
12889SOL     OW40505  12.930   7.816   3.340
12889SOL    HW140506  12.921   7.743   3.402
12889SOL    HW240507  12.898   7.782   3.257
12890SOL     OW40508  11.100  10.680  14.183
12890SOL    HW140509  11.073  10.653  14.095
12890SOL    HW240510  11.079  10.605  14.238
12891SOL     OW40511  12.135   9.260  12.127
12891SOL    HW140512  12.047   9.228  12.149
12891SOL    HW240513  12.174   9.282  12.211
12892SOL     OW40514  13.697   5.620  12.730
12892SOL    HW140515  13.707   5.707  12.769
12892SOL    HW240516  13.652   5.636  12.648
12893SOL     OW40517  12.460  11.362  12.996
12893SOL    HW140518  12.488  11.397  13.081
12893SOL    HW240519  12.496  11.424  12.932
12894SOL     OW40520   0.528   8.716   9.626
12894SOL    HW140521   0.561   8.626   9.632
12894SOL    HW240522   0.432   8.707   9.630
12895SOL     OW40523  11.148   9.450  14.316
12895SOL    HW140524  11.182   9.453  14.405
12895SOL    HW240525  11.213   9.498  14.264
12896SOL     OW40526   4.726   9.700  12.328
12896SOL    HW140527   4.710   9.628  12.267
12896SOL    HW240528   4.819   9.720  12.317
12897SOL     OW40529  10.148  12.185  10.837
12897SOL    HW140530  10.234  12.200  10.874
12897SOL    HW240531  10.143  12.090  10.825
12898SOL     OW40532   0.182   8.077  12.439
12898SOL    HW140533   0.194   8.167  12.471
12898SOL    HW240534   0.112   8.042  12.494
12899SOL     OW40535  11.087  14.146   4.503
12899SOL    HW140536  11.119  14.074   4.557
12899SOL    HW240537  11.060  14.104   4.421
12900SOL     OW40538   2.225   2.047   5.922
12900SOL    HW140539   2.137   2.081   5.937
12900SOL    HW240540   2.212   1.963   5.878
12901SOL     OW40541   8.113   8.190  11.405
12901SOL    HW140542   8.109   8.260  11.470
12901SOL    HW240543   8.075   8.228  11.326
12902SOL     OW40544   3.542  12.613  11.986
12902SOL    HW140545   3.573  12.596  12.075
12902SOL    HW240546   3.538  12.708  11.979
12903SOL     OW40547   8.501  12.272  14.476
12903SOL    HW140548   8.444  12.299  14.547
12903SOL    HW240549   8.590  12.279  14.512
12904SOL     OW40550   3.676   8.832   0.407
12904SOL    HW140551   3.711   8.919   0.423
12904SOL    HW240552   3.735   8.773   0.453
12905SOL     OW40553   2.924   2.705   4.163
12905SOL    HW140554   2.988   2.764   4.205
12905SOL    HW240555   2.843   2.720   4.212
12906SOL     OW40556   1.095  11.749   2.093
12906SOL    HW140557   1.189  11.734   2.084
12906SOL    HW240558   1.068  11.790   2.011
12907SOL     OW40559   3.660   1.500  13.280
12907SOL    HW140560   3.707   1.578  13.250
12907SOL    HW240561   3.582   1.534  13.324
12908SOL     OW40562   4.644   4.684   2.076
12908SOL    HW140563   4.705   4.741   2.028
12908SOL    HW240564   4.558   4.710   2.045
12909SOL     OW40565   6.312   1.117   9.938
12909SOL    HW140566   6.346   1.156  10.018
12909SOL    HW240567   6.229   1.079   9.963
12910SOL     OW40568  11.769   8.920   3.287
12910SOL    HW140569  11.759   9.015   3.280
12910SOL    HW240570  11.750   8.888   3.199
12911SOL     OW40571  14.480   6.935   0.036
12911SOL    HW140572  14.403   6.889   0.004
12911SOL    HW240573  14.542   6.932  14.837
12912SOL     OW40574  11.881   5.168  13.572
12912SOL    HW140575  11.822   5.093  13.580
12912SOL    HW240576  11.868   5.199  13.483
12913SOL     OW40577   7.334   7.772   5.852
12913SOL    HW140578   7.256   7.826   5.836
12913SOL    HW240579   7.406   7.835   5.857
12914SOL     OW40580   5.355   4.695   9.519
12914SOL    HW140581   5.371   4.630   9.452
12914SOL    HW240582   5.292   4.654   9.579
12915SOL     OW40583   7.718   3.197   8.830
12915SOL    HW140584   7.752   3.281   8.798
12915SOL    HW240585   7.681   3.155   8.752
12916SOL     OW40586   4.073   9.281   3.333
12916SOL    HW140587   4.042   9.331   3.258
12916SOL    HW240588   4.163   9.257   3.312
12917SOL     OW40589  13.849   0.216   0.397
12917SOL    HW140590  13.842   0.123   0.372
12917SOL    HW240591  13.937   0.241   0.370
12918SOL     OW40592  14.197   7.518  11.452
12918SOL    HW140593  14.217   7.426  11.468
12918SOL    HW240594  14.283   7.560  11.448
12919SOL     OW40595   9.444   3.028  10.093
12919SOL    HW140596   9.413   3.089  10.027
12919SOL    HW240597   9.486   3.082  10.159
12920SOL     OW40598   3.417   6.050  13.671
12920SOL    HW140599   3.479   6.045  13.743
12920SOL    HW240600   3.469   6.035  13.592
12921SOL     OW40601  10.874   3.897  13.823
12921SOL    HW140602  10.801   3.873  13.765
12921SOL    HW240603  10.868   3.835  13.896
12922SOL     OW40604   2.926  12.904  10.219
12922SOL    HW140605   3.005  12.960  10.220
12922SOL    HW240606   2.920  12.870  10.308
12923SOL     OW40607  10.138   8.251   3.376
12923SOL    HW140608  10.210   8.226   3.319
12923SOL    HW240609  10.089   8.317   3.326
12924SOL     OW40610   2.920   3.176   4.360
12924SOL    HW140611   3.015   3.188   4.351
12924SOL    HW240612   2.889   3.260   4.395
12925SOL     OW40613  10.720  11.354   3.137
12925SOL    HW140614  10.695  11.378   3.048
12925SOL    HW240615  10.678  11.270   3.153
12926SOL     OW40616   6.362   7.005   0.669
12926SOL    HW140617   6.429   6.940   0.691
12926SOL    HW240618   6.376   7.076   0.731
12927SOL     OW40619   9.908   2.126  11.948
12927SOL    HW140620   9.934   2.198  12.005
12927SOL    HW240621   9.930   2.047  11.998
12928SOL     OW40622  11.534  11.527  14.559
12928SOL    HW140623  11.628  11.513  14.544
12928SOL    HW240624  11.495  11.441  14.548
12929SOL     OW40625  14.471  12.556   8.820
12929SOL    HW140626  14.502  12.579   8.908
12929SOL    HW240627  14.440  12.466   8.829
12930SOL     OW40628  13.317   4.807   0.542
12930SOL    HW140629  13.316   4.861   0.621
12930SOL    HW240630  13.225   4.791   0.521
12931SOL     OW40631   9.151  10.881   9.365
12931SOL    HW140632   9.188  10.849   9.447
12931SOL    HW240633   9.058  10.893   9.383
12932SOL     OW40634   5.111   7.772   7.081
12932SOL    HW140635   5.087   7.841   7.019
12932SOL    HW240636   5.111   7.692   7.029
12933SOL     OW40637  13.679   2.026   6.413
12933SOL    HW140638  13.695   1.953   6.472
12933SOL    HW240639  13.719   2.101   6.457
12934SOL     OW40640  11.461   4.185   5.683
12934SOL    HW140641  11.469   4.183   5.778
12934SOL    HW240642  11.376   4.225   5.666
12935SOL     OW40643   3.785   1.552   6.303
12935SOL    HW140644   3.870   1.593   6.321
12935SOL    HW240645   3.754   1.595   6.224
12936SOL     OW40646  11.113  12.579  11.926
12936SOL    HW140647  11.028  12.620  11.936
12936SOL    HW240648  11.110  12.503  11.984
12937SOL     OW40649   9.497   9.462   9.944
12937SOL    HW140650   9.453   9.420  10.019
12937SOL    HW240651   9.510   9.552   9.972
12938SOL     OW40652  13.586   6.836  12.770
12938SOL    HW140653  13.593   6.804  12.860
12938SOL    HW240654  13.592   6.758  12.716
12939SOL     OW40655  13.958  11.794   9.295
12939SOL    HW140656  13.965  11.715   9.243
12939SOL    HW240657  13.952  11.865   9.231
12940SOL     OW40658  11.455   4.450   0.788
12940SOL    HW140659  11.474   4.426   0.878
12940SOL    HW240660  11.363   4.478   0.789
12941SOL     OW40661   8.059  12.746   8.165
12941SOL    HW140662   8.141  12.793   8.180
12941SOL    HW240663   8.078  12.685   8.094
12942SOL     OW40664   7.950   6.417   1.529
12942SOL    HW140665   7.937   6.474   1.453
12942SOL    HW240666   7.985   6.475   1.597
12943SOL     OW40667  13.326   6.739   2.320
12943SOL    HW140668  13.333   6.834   2.319
12943SOL    HW240669  13.305   6.717   2.411
12944SOL     OW40670  14.440  12.808   6.620
12944SOL    HW140671  14.404  12.888   6.581
12944SOL    HW240672  14.533  12.828   6.634
12945SOL     OW40673   9.944   6.759  13.565
12945SOL    HW140674   9.930   6.786  13.474
12945SOL    HW240675   9.963   6.841  13.611
12946SOL     OW40676  14.707   0.112  13.124
12946SOL    HW140677  14.613   0.130  13.136
12946SOL    HW240678  14.731   0.058  13.199
12947SOL     OW40679  13.069  14.359  12.848
12947SOL    HW140680  13.031  14.447  12.843
12947SOL    HW240681  13.003  14.307  12.894
12948SOL     OW40682  11.564  12.691  10.101
12948SOL    HW140683  11.490  12.724  10.152
12948SOL    HW240684  11.582  12.604  10.138
12949SOL     OW40685   6.068   8.354   4.828
12949SOL    HW140686   6.114   8.435   4.846
12949SOL    HW240687   6.124   8.285   4.864
12950SOL     OW40688   8.084  12.210   4.445
12950SOL    HW140689   8.026  12.256   4.506
12950SOL    HW240690   8.096  12.271   4.373
12951SOL     OW40691   2.627   8.486  13.910
12951SOL    HW140692   2.680   8.517  13.836
12951SOL    HW240693   2.555   8.438  13.868
12952SOL     OW40694  14.516   0.912  13.963
12952SOL    HW140695  14.532   1.006  13.951
12952SOL    HW240696  14.422   0.902  13.949
12953SOL     OW40697  14.417  14.549   4.174
12953SOL    HW140698  14.446  14.640   4.184
12953SOL    HW240699  14.451  14.504   4.251
12954SOL     OW40700   0.385   0.148   9.473
12954SOL    HW140701   0.305   0.198   9.491
12954SOL    HW240702   0.431   0.199   9.406
12955SOL     OW40703   1.462   3.672  12.208
12955SOL    HW140704   1.527   3.735  12.177
12955SOL    HW240705   1.452   3.610  12.136
12956SOL     OW40706  13.077   8.266   9.540
12956SOL    HW140707  13.055   8.178   9.511
12956SOL    HW240708  13.006   8.290   9.599
12957SOL     OW40709   9.844   7.586   5.079
12957SOL    HW140710   9.863   7.501   5.119
12957SOL    HW240711   9.785   7.565   5.007
12958SOL     OW40712   6.954   5.162  13.626
12958SOL    HW140713   6.969   5.257  13.631
12958SOL    HW240714   6.884   5.153  13.561
12959SOL     OW40715   1.605   0.741  13.823
12959SOL    HW140716   1.611   0.835  13.806
12959SOL    HW240717   1.511   0.724  13.827
12960SOL     OW40718  10.184   1.829   2.796
12960SOL    HW140719  10.198   1.783   2.878
12960SOL    HW240720  10.255   1.893   2.791
12961SOL     OW40721  12.673   7.469   0.062
12961SOL    HW140722  12.656   7.532   0.132
12961SOL    HW240723  12.708   7.393   0.107
12962SOL     OW40724   4.887   9.432  13.019
12962SOL    HW140725   4.855   9.427  13.109
12962SOL    HW240726   4.920   9.343  13.000
12963SOL     OW40727   3.703  10.448   6.838
12963SOL    HW140728   3.756  10.495   6.902
12963SOL    HW240729   3.726  10.488   6.754
12964SOL     OW40730   8.876   4.860   5.061
12964SOL    HW140731   8.908   4.856   4.971
12964SOL    HW240732   8.784   4.832   5.056
12965SOL     OW40733   0.445   4.181   5.658
12965SOL    HW140734   0.414   4.250   5.716
12965SOL    HW240735   0.540   4.194   5.656
12966SOL     OW40736  13.249   5.704  14.774
12966SOL    HW140737  13.287   5.631  14.725
12966SOL    HW240738  13.324   5.760  14.795
12967SOL     OW40739   6.902  10.568   3.781
12967SOL    HW140740   6.847  10.517   3.721
12967SOL    HW240741   6.867  10.657   3.776
12968SOL     OW40742   7.563   3.555   0.657
12968SOL    HW140743   7.649   3.594   0.640
12968SOL    HW240744   7.501   3.613   0.614
12969SOL     OW40745  11.172   0.084   4.603
12969SOL    HW140746  11.129   0.165   4.575
12969SOL    HW240747  11.099   0.024   4.623
12970SOL     OW40748   6.592  11.994   8.179
12970SOL    HW140749   6.652  12.002   8.254
12970SOL    HW240750   6.638  11.936   8.118
12971SOL     OW40751  14.122   0.261   0.375
12971SOL    HW140752  14.120   0.356   0.373
12971SOL    HW240753  14.145   0.239   0.465
12972SOL     OW40754   1.753  11.421   9.194
12972SOL    HW140755   1.740  11.329   9.172
12972SOL    HW240756   1.803  11.420   9.275
12973SOL     OW40757   1.060   8.457   9.830
12973SOL    HW140758   1.104   8.538   9.855
12973SOL    HW240759   1.047   8.410   9.912
12974SOL     OW40760   5.110  13.147   0.024
12974SOL    HW140761   5.032  13.191   0.056
12974SOL    HW240762   5.171  13.150   0.098
12975SOL     OW40763  13.017   8.792   3.562
12975SOL    HW140764  13.044   8.879   3.534
12975SOL    HW240765  13.029   8.737   3.484
12976SOL     OW40766   7.509   4.598   5.843
12976SOL    HW140767   7.425   4.642   5.836
12976SOL    HW240768   7.489   4.515   5.887
12977SOL     OW40769  11.466  12.229  13.301
12977SOL    HW140770  11.507  12.193  13.222
12977SOL    HW240771  11.505  12.180  13.373
12978SOL     OW40772  11.952  11.424  10.850
12978SOL    HW140773  11.973  11.418  10.757
12978SOL    HW240774  11.940  11.517  10.867
12979SOL     OW40775  11.412   9.596   8.673
12979SOL    HW140776  11.341   9.540   8.703
12979SOL    HW240777  11.492   9.549   8.698
12980SOL     OW40778   7.723   6.130  14.435
12980SOL    HW140779   7.730   6.173  14.521
12980SOL    HW240780   7.687   6.044  14.455
12981SOL     OW40781  10.458   5.306   7.254
12981SOL    HW140782  10.504   5.382   7.291
12981SOL    HW240783  10.472   5.237   7.318
12982SOL     OW40784   0.857   5.946   6.081
12982SOL    HW140785   0.928   6.010   6.085
12982SOL    HW240786   0.843   5.919   6.172
12983SOL     OW40787   6.544  13.613   3.138
12983SOL    HW140788   6.471  13.558   3.112
12983SOL    HW240789   6.610  13.552   3.171
12984SOL     OW40790   9.064   5.355   5.820
12984SOL    HW140791   9.134   5.364   5.885
12984SOL    HW240792   9.015   5.437   5.827
12985SOL     OW40793   5.726   2.762  11.774
12985SOL    HW140794   5.779   2.840  11.791
12985SOL    HW240795   5.782   2.706  11.720
12986SOL     OW40796   0.677  11.305   7.688
12986SOL    HW140797   0.649  11.373   7.750
12986SOL    HW240798   0.612  11.307   7.618
12987SOL     OW40799   7.654   5.027  12.899
12987SOL    HW140800   7.743   5.057  12.918
12987SOL    HW240801   7.623   5.088  12.832
12988SOL     OW40802   6.322   0.821  12.344
12988SOL    HW140803   6.255   0.786  12.286
12988SOL    HW240804   6.279   0.894  12.389
12989SOL     OW40805  13.624   3.348  14.851
12989SOL    HW140806  13.678   3.415   0.018
12989SOL    HW240807  13.536   3.385  14.850
12990SOL     OW40808  14.598   3.716   2.614
12990SOL    HW140809  14.622   3.760   2.532
12990SOL    HW240810  14.509   3.685   2.600
12991SOL     OW40811   4.257  10.900   8.616
12991SOL    HW140812   4.249  10.967   8.683
12991SOL    HW240813   4.167  10.874   8.597
12992SOL     OW40814  11.322  14.449   7.089
12992SOL    HW140815  11.411  14.427   7.063
12992SOL    HW240816  11.271  14.441   7.009
12993SOL     OW40817   6.171   6.029   5.033
12993SOL    HW140818   6.113   5.997   4.964
12993SOL    HW240819   6.112   6.055   5.104
12994SOL     OW40820  14.537  14.527   9.139
12994SOL    HW140821  14.445  14.539   9.114
12994SOL    HW240822  14.583  14.602   9.102
12995SOL     OW40823   2.868   2.412   9.044
12995SOL    HW140824   2.800   2.375   9.100
12995SOL    HW240825   2.831   2.409   8.956
12996SOL     OW40826   6.209   6.231   2.847
12996SOL    HW140827   6.183   6.322   2.857
12996SOL    HW240828   6.289   6.223   2.898
12997SOL     OW40829   0.113   2.874   2.104
12997SOL    HW140830   0.027   2.834   2.088
12997SOL    HW240831   0.176   2.811   2.067
12998SOL     OW40832   7.984  13.966   2.346
12998SOL    HW140833   8.034  13.975   2.265
12998SOL    HW240834   7.900  14.010   2.327
12999SOL     OW40835   0.351   1.649   6.252
12999SOL    HW140836   0.408   1.627   6.325
12999SOL    HW240837   0.317   1.736   6.273
13000SOL     OW40838  13.194  12.831  14.857
13000SOL    HW140839  13.223  12.754  14.807
13000SOL    HW240840  13.184  12.799   0.072
13001SOL     OW40841  12.062  14.037  11.552
13001SOL    HW140842  12.049  14.007  11.642
13001SOL    HW240843  12.073  14.132  11.560
13002SOL     OW40844   0.134   8.434  12.934
13002SOL    HW140845   0.223   8.432  12.970
13002SOL    HW240846   0.120   8.346  12.900
13003SOL     OW40847  10.869   5.867   1.516
13003SOL    HW140848  10.920   5.862   1.597
13003SOL    HW240849  10.929   5.837   1.448
13004SOL     OW40850   8.521  10.201   4.741
13004SOL    HW140851   8.501  10.146   4.665
13004SOL    HW240852   8.508  10.144   4.816
13005SOL     OW40853  12.019   1.721  11.315
13005SOL    HW140854  12.055   1.792  11.369
13005SOL    HW240855  11.925   1.738  11.313
13006SOL     OW40856   1.231   0.001  10.407
13006SOL    HW140857   1.301   0.064  10.426
13006SOL    HW240858   1.174   0.004  10.485
13007SOL     OW40859  12.263   2.517   4.894
13007SOL    HW140860  12.173   2.487   4.906
13007SOL    HW240861  12.263   2.560   4.808
13008SOL     OW40862   5.496   4.946   3.552
13008SOL    HW140863   5.439   5.007   3.505
13008SOL    HW240864   5.527   4.996   3.627
13009SOL     OW40865   1.391  14.455  14.184
13009SOL    HW140866   1.391  14.421  14.095
13009SOL    HW240867   1.323  14.523  14.183
13010SOL     OW40868   0.533  14.629   7.724
13010SOL    HW140869   0.442  14.652   7.740
13010SOL    HW240870   0.581  14.663   7.800
13011SOL     OW40871   6.369  13.912   0.139
13011SOL    HW140872   6.325  13.885   0.219
13011SOL    HW240873   6.350  14.005   0.131
13012SOL     OW40874   6.742  13.154  10.700
13012SOL    HW140875   6.790  13.220  10.750
13012SOL    HW240876   6.743  13.077  10.756
13013SOL     OW40877  14.487   6.236   7.453
13013SOL    HW140878  14.512   6.327   7.443
13013SOL    HW240879  14.519   6.212   7.540
13014SOL     OW40880   6.462   4.839  14.468
13014SOL    HW140881   6.442   4.772  14.402
13014SOL    HW240882   6.555   4.857  14.456
13015SOL     OW40883  12.290   1.439   2.848
13015SOL    HW140884  12.266   1.445   2.756
13015SOL    HW240885  12.218   1.483   2.894
13016SOL     OW40886  12.626   1.169  10.485
13016SOL    HW140887  12.716   1.191  10.506
13016SOL    HW240888  12.633   1.104  10.415
13017SOL     OW40889  14.290  14.077  14.312
13017SOL    HW140890  14.375  14.088  14.353
13017SOL    HW240891  14.299  14.122  14.227
13018SOL     OW40892   9.062  10.908  14.207
13018SOL    HW140893   8.979  10.952  14.185
13018SOL    HW240894   9.091  10.869  14.125
13019SOL     OW40895  11.325   8.965   0.585
13019SOL    HW140896  11.250   9.023   0.598
13019SOL    HW240897  11.286   8.882   0.560
13020SOL     OW40898   1.473   5.801   1.547
13020SOL    HW140899   1.551   5.855   1.537
13020SOL    HW240900   1.506   5.715   1.573
13021SOL     OW40901   0.142  13.333   4.827
13021SOL    HW140902   0.166  13.339   4.919
13021SOL    HW240903   0.127  13.424   4.800
13022SOL     OW40904   9.441   3.821   2.296
13022SOL    HW140905   9.346   3.820   2.289
13022SOL    HW240906   9.471   3.852   2.210
13023SOL     OW40907  12.649  12.140   9.659
13023SOL    HW140908  12.677  12.162   9.748
13023SOL    HW240909  12.728  12.109   9.615
13024SOL     OW40910  14.412   3.126   2.215
13024SOL    HW140911  14.341   3.164   2.162
13024SOL    HW240912  14.395   3.032   2.213
13025SOL     OW40913   8.346   4.067   9.548
13025SOL    HW140914   8.275   4.004   9.561
13025SOL    HW240915   8.425   4.021   9.578
13026SOL     OW40916   6.384   4.497  10.666
13026SOL    HW140917   6.389   4.582  10.622
13026SOL    HW240918   6.418   4.514  10.754
13027SOL     OW40919   7.617  13.149   4.161
13027SOL    HW140920   7.602  13.217   4.228
13027SOL    HW240921   7.665  13.081   4.207
13028SOL     OW40922   5.564  10.516  12.073
13028SOL    HW140923   5.649  10.476  12.057
13028SOL    HW240924   5.573  10.557  12.159
13029SOL     OW40925   7.835   6.670  10.601
13029SOL    HW140926   7.821   6.627  10.685
13029SOL    HW240927   7.834   6.763  10.622
13030SOL     OW40928  13.068  10.080   6.815
13030SOL    HW140929  13.063  10.149   6.880
13030SOL    HW240930  13.073  10.126   6.731
13031SOL     OW40931   9.061  13.880  12.994
13031SOL    HW140932   9.082  13.857  12.903
13031SOL    HW240933   8.966  13.890  12.994
13032SOL     OW40934  13.450   5.657   7.314
13032SOL    HW140935  13.531   5.692   7.352
13032SOL    HW240936  13.381   5.715   7.347
13033SOL     OW40937   0.094  12.915  11.366
13033SOL    HW140938   0.004  12.946  11.379
13033SOL    HW240939   0.143  12.992  11.339
13034SOL     OW40940   1.283   0.625   8.400
13034SOL    HW140941   1.242   0.711   8.391
13034SOL    HW240942   1.255   0.594   8.486
13035SOL     OW40943  11.393   9.618   9.047
13035SOL    HW140944  11.328   9.687   9.032
13035SOL    HW240945  11.347   9.554   9.102
13036SOL     OW40946   0.027  13.731   8.446
13036SOL    HW140947   0.081  13.672   8.394
13036SOL    HW240948  14.815  13.727   8.406
13037SOL     OW40949   1.567  12.416  14.815
13037SOL    HW140950   1.593  12.507  14.803
13037SOL    HW240951   1.517  12.415   0.023
13038SOL     OW40952   6.293  13.908   7.803
13038SOL    HW140953   6.322  13.999   7.796
13038SOL    HW240954   6.207  13.914   7.844
13039SOL     OW40955  10.624   0.582  13.129
13039SOL    HW140956  10.557   0.523  13.164
13039SOL    HW240957  10.576   0.662  13.106
13040SOL     OW40958   5.197  10.581   4.616
13040SOL    HW140959   5.240  10.660   4.584
13040SOL    HW240960   5.268  10.524   4.643
13041SOL     OW40961   7.803  13.721  14.787
13041SOL    HW140962   7.897  13.717  14.803
13041SOL    HW240963   7.773  13.797  14.837
13042SOL     OW40964   0.308   2.774   4.976
13042SOL    HW140965   0.302   2.712   5.049
13042SOL    HW240966   0.250   2.738   4.910
13043SOL     OW40967  10.059   5.052   2.300
13043SOL    HW140968  10.122   4.983   2.283
13043SOL    HW240969  10.045   5.093   2.214
13044SOL     OW40970   3.621  14.427  10.776
13044SOL    HW140971   3.545  14.372  10.793
13044SOL    HW240972   3.696  14.372  10.797
13045SOL     OW40973   5.180  12.461   5.027
13045SOL    HW140974   5.230  12.448   5.108
13045SOL    HW240975   5.243  12.499   4.966
13046SOL     OW40976  12.326   1.739   8.358
13046SOL    HW140977  12.269   1.817   8.357
13046SOL    HW240978  12.266   1.667   8.377
13047SOL     OW40979   7.876  12.471   8.608
13047SOL    HW140980   7.913  12.558   8.594
13047SOL    HW240981   7.789  12.475   8.567
13048SOL     OW40982   1.610   8.813  11.440
13048SOL    HW140983   1.548   8.811  11.367
13048SOL    HW240984   1.684   8.760  11.409
13049SOL     OW40985   6.481  14.597  12.042
13049SOL    HW140986   6.477  14.603  11.946
13049SOL    HW240987   6.490  14.688  12.071
13050SOL     OW40988   3.736   2.071   4.862
13050SOL    HW140989   3.822   2.107   4.885
13050SOL    HW240990   3.756   1.985   4.823
13051SOL     OW40991  13.134   7.382   1.903
13051SOL    HW140992  13.124   7.467   1.859
13051SOL    HW240993  13.047   7.342   1.896
13052SOL     OW40994  14.173  11.623   1.084
13052SOL    HW140995  14.128  11.635   1.168
13052SOL    HW240996  14.266  11.621   1.107
13053SOL     OW40997   1.792   3.478  10.356
13053SOL    HW140998   1.818   3.496  10.266
13053SOL    HW240999   1.856   3.526  10.410
13054SOL     OW41000   7.751   5.601   5.164
13054SOL    HW141001   7.660   5.588   5.190
13054SOL    HW241002   7.764   5.696   5.171
13055SOL     OW41003  12.531   0.522   9.515
13055SOL    HW141004  12.455   0.548   9.464
13055SOL    HW241005  12.514   0.430   9.538
13056SOL     OW41006  14.301   5.241   8.043
13056SOL    HW141007  14.250   5.182   8.099
13056SOL    HW241008  14.336   5.307   8.103
13057SOL     OW41009   5.642  13.087  14.183
13057SOL    HW141010   5.649  13.049  14.271
13057SOL    HW241011   5.674  13.177  14.194
13058SOL     OW41012  12.320  14.326  14.462
13058SOL    HW141013  12.388  14.301  14.400
13058SOL    HW241014  12.350  14.290  14.546
13059SOL     OW41015   1.966  11.850  13.611
13059SOL    HW141016   1.930  11.772  13.570
13059SOL    HW241017   2.026  11.887  13.546
13060SOL     OW41018  14.271  14.599   9.801
13060SOL    HW141019  14.365  14.582   9.794
13060SOL    HW241020  14.238  14.588   9.711
13061SOL     OW41021  12.055   6.889  10.206
13061SOL    HW141022  11.966   6.924  10.207
13061SOL    HW241023  12.061   6.837  10.286
13062SOL     OW41024   4.297   2.953   3.275
13062SOL    HW141025   4.244   2.959   3.355
13062SOL    HW241026   4.386   2.972   3.304
13063SOL     OW41027  13.944   1.027   7.162
13063SOL    HW141028  13.926   1.090   7.093
13063SOL    HW241029  14.003   0.963   7.121
13064SOL     OW41030   8.621   0.369  11.500
13064SOL    HW141031   8.662   0.418  11.430
13064SOL    HW241032   8.579   0.435  11.555
13065SOL     OW41033  14.445  12.260   6.473
13065SOL    HW141034  14.530  12.228   6.443
13065SOL    HW241035  14.445  12.354   6.451
13066SOL     OW41036  12.051   0.514   6.553
13066SOL    HW141037  12.108   0.591   6.554
13066SOL    HW241038  11.970   0.544   6.596
13067SOL     OW41039   7.188   6.811   9.099
13067SOL    HW141040   7.095   6.830   9.087
13067SOL    HW241041   7.204   6.825   9.192
13068SOL     OW41042   3.570  10.962  11.931
13068SOL    HW141043   3.577  11.047  11.888
13068SOL    HW241044   3.656  10.921  11.919
13069SOL     OW41045   8.722   1.552   7.126
13069SOL    HW141046   8.746   1.644   7.138
13069SOL    HW241047   8.694   1.523   7.213
13070SOL     OW41048   9.190  12.133   2.723
13070SOL    HW141049   9.271  12.129   2.775
13070SOL    HW241050   9.123  12.097   2.781
13071SOL     OW41051   8.831  13.079   4.061
13071SOL    HW141052   8.863  13.008   4.005
13071SOL    HW241053   8.782  13.034   4.130
13072SOL     OW41054   5.047   5.028  12.158
13072SOL    HW141055   5.137   5.054  12.137
13072SOL    HW241056   4.993   5.096  12.120
13073SOL     OW41057   1.698   6.361   5.221
13073SOL    HW141058   1.709   6.368   5.316
13073SOL    HW241059   1.611   6.398   5.205
13074SOL     OW41060  14.476   1.260   5.337
13074SOL    HW141061  14.534   1.188   5.363
13074SOL    HW241062  14.422   1.277   5.414
13075SOL     OW41063  12.077  12.627   7.174
13075SOL    HW141064  12.008  12.653   7.113
13075SOL    HW241065  12.056  12.536   7.197
13076SOL     OW41066  11.227  12.330   4.710
13076SOL    HW141067  11.176  12.318   4.630
13076SOL    HW241068  11.237  12.241   4.745
13077SOL     OW41069   7.168   6.636   3.400
13077SOL    HW141070   7.208   6.557   3.364
13077SOL    HW241071   7.181   6.702   3.332
13078SOL     OW41072  11.269  14.393  12.270
13078SOL    HW141073  11.234  14.477  12.300
13078SOL    HW241074  11.274  14.340  12.350
13079SOL     OW41075   4.240   6.618  10.359
13079SOL    HW141076   4.320   6.642  10.404
13079SOL    HW241077   4.242   6.522  10.356
13080SOL     OW41078  11.679   1.377   4.217
13080SOL    HW141079  11.688   1.428   4.298
13080SOL    HW241080  11.642   1.438   4.154
13081SOL     OW41081   4.994  10.579  11.205
13081SOL    HW141082   5.083  10.607  11.182
13081SOL    HW241083   5.001  10.549  11.295
13082SOL     OW41084   5.494  10.760  14.477
13082SOL    HW141085   5.400  10.750  14.464
13082SOL    HW241086   5.516  10.696  14.545
13083SOL     OW41087  12.203  10.671  11.470
13083SOL    HW141088  12.118  10.713  11.486
13083SOL    HW241089  12.185  10.578  11.486
13084SOL     OW41090   0.528  11.416   6.456
13084SOL    HW141091   0.502  11.505   6.432
13084SOL    HW241092   0.487  11.360   6.389
13085SOL     OW41093   4.220  11.371  13.123
13085SOL    HW141094   4.254  11.300  13.177
13085SOL    HW241095   4.276  11.372  13.046
13086SOL     OW41096  12.916   2.593   9.376
13086SOL    HW141097  12.845   2.571   9.316
13086SOL    HW241098  12.909   2.688   9.387
13087SOL     OW41099   4.186   6.521   0.221
13087SOL    HW141100   4.105   6.472   0.205
13087SOL    HW241101   4.162   6.588   0.284
13088SOL     OW41102  10.773   8.500  10.891
13088SOL    HW141103  10.708   8.466  10.953
13088SOL    HW241104  10.816   8.422  10.856
13089SOL     OW41105   9.764   2.042  10.281
13089SOL    HW141106   9.730   1.956  10.304
13089SOL    HW241107   9.693   2.103  10.302
13090SOL     OW41108   0.062   5.868   5.785
13090SOL    HW141109   0.131   5.935   5.794
13090SOL    HW241110  14.859   5.917   5.756
13091SOL     OW41111   7.839   6.431   7.157
13091SOL    HW141112   7.912   6.492   7.170
13091SOL    HW241113   7.881   6.351   7.123
13092SOL     OW41114  10.156   3.370   1.136
13092SOL    HW141115  10.249   3.389   1.125
13092SOL    HW241116  10.122   3.443   1.188
13093SOL     OW41117  14.846   9.676  12.967
13093SOL    HW141118  14.752   9.662  12.958
13093SOL    HW241119   0.010   9.588  12.965
13094SOL     OW41120  10.030  13.713   4.065
13094SOL    HW141121  10.100  13.777   4.050
13094SOL    HW241122   9.959  13.740   4.006
13095SOL     OW41123   9.988   9.965   4.620
13095SOL    HW141124   9.908   9.927   4.656
13095SOL    HW241125  10.027   9.894   4.568
13096SOL     OW41126  13.360  11.513   0.885
13096SOL    HW141127  13.451  11.544   0.887
13096SOL    HW241128  13.352  11.470   0.800
13097SOL     OW41129   1.376  14.207  13.296
13097SOL    HW141130   1.335  14.199  13.382
13097SOL    HW241131   1.353  14.294  13.266
13098SOL     OW41132   8.589   9.350  12.114
13098SOL    HW141133   8.657   9.377  12.053
13098SOL    HW241134   8.596   9.255  12.118
13099SOL     OW41135   8.031   1.681  11.532
13099SOL    HW141136   7.985   1.760  11.504
13099SOL    HW241137   8.059   1.639  11.450
13100SOL     OW41138  11.161   8.495   7.355
13100SOL    HW141139  11.138   8.523   7.444
13100SOL    HW241140  11.078   8.500   7.307
13101SOL     OW41141   0.809   4.911   7.078
13101SOL    HW141142   0.800   5.005   7.067
13101SOL    HW241143   0.854   4.900   7.162
13102SOL     OW41144  11.286   6.020   4.261
13102SOL    HW141145  11.329   5.944   4.299
13102SOL    HW241146  11.229   5.984   4.193
13103SOL     OW41147   4.298   4.344   8.072
13103SOL    HW141148   4.342   4.379   7.994
13103SOL    HW241149   4.289   4.250   8.055
13104SOL     OW41150   6.469   3.293   9.414
13104SOL    HW141151   6.442   3.255   9.330
13104SOL    HW241152   6.546   3.243   9.439
13105SOL     OW41153   5.897   6.369  13.372
13105SOL    HW141154   5.826   6.428  13.398
13105SOL    HW241155   5.935   6.410  13.295
13106SOL     OW41156   9.559   7.880  10.862
13106SOL    HW141157   9.619   7.835  10.802
13106SOL    HW241158   9.540   7.817  10.930
13107SOL     OW41159   1.890  11.390   5.739
13107SOL    HW141160   1.977  11.419   5.713
13107SOL    HW241161   1.833  11.463   5.715
13108SOL     OW41162   8.278   7.784   2.967
13108SOL    HW141163   8.326   7.705   2.943
13108SOL    HW241164   8.328   7.823   3.039
13109SOL     OW41165   1.105   2.783   5.541
13109SOL    HW141166   1.141   2.714   5.597
13109SOL    HW241167   1.171   2.852   5.542
13110SOL     OW41168   9.518  10.301   7.075
13110SOL    HW141169   9.440  10.247   7.064
13110SOL    HW241170   9.512  10.333   7.165
13111SOL     OW41171   6.280  13.734  14.768
13111SOL    HW141172   6.279  13.807  14.707
13111SOL    HW241173   6.299  13.774  14.853
13112SOL     OW41174   6.241  14.272  12.511
13112SOL    HW141175   6.201  14.353  12.478
13112SOL    HW241176   6.222  14.273  12.605
13113SOL     OW41177   9.344   9.314  10.089
13113SOL    HW141178   9.329   9.240  10.147
13113SOL    HW241179   9.316   9.283  10.003
13114SOL     OW41180  11.611  12.189   7.838
13114SOL    HW141181  11.702  12.219   7.846
13114SOL    HW241182  11.603  12.162   7.747
13115SOL     OW41183   3.030   3.295   7.643
13115SOL    HW141184   3.000   3.300   7.734
13115SOL    HW241185   3.116   3.336   7.644
13116SOL     OW41186   9.764   9.252   4.716
13116SOL    HW141187   9.837   9.313   4.725
13116SOL    HW241188   9.798   9.169   4.749
13117SOL     OW41189  11.229   6.583   8.747
13117SOL    HW141190  11.154   6.585   8.806
13117SOL    HW241191  11.257   6.674   8.740
13118SOL     OW41192  10.595  12.973   7.436
13118SOL    HW141193  10.673  12.996   7.487
13118SOL    HW241194  10.626  12.910   7.371
13119SOL     OW41195  13.924   2.118  11.433
13119SOL    HW141196  13.967   2.034  11.418
13119SOL    HW241197  13.837   2.108  11.396
13120SOL     OW41198   0.226   5.792  13.748
13120SOL    HW141199   0.237   5.880  13.713
13120SOL    HW241200   0.204   5.739  13.672
13121SOL     OW41201   2.973   2.918   2.344
13121SOL    HW141202   2.914   2.867   2.287
13121SOL    HW241203   2.987   2.861   2.420
13122SOL     OW41204   1.581   3.274  10.665
13122SOL    HW141205   1.673   3.266  10.640
13122SOL    HW241206   1.542   3.190  10.642
13123SOL     OW41207   4.369   9.684   5.627
13123SOL    HW141208   4.377   9.760   5.685
13123SOL    HW241209   4.373   9.721   5.539
13124SOL     OW41210   6.546   4.931  13.949
13124SOL    HW141211   6.450   4.927  13.956
13124SOL    HW241212   6.576   4.944  14.038
13125SOL     OW41213   3.370   1.218  14.075
13125SOL    HW141214   3.314   1.259  14.009
13125SOL    HW241215   3.445   1.187  14.025
13126SOL     OW41216   8.163  11.926   0.335
13126SOL    HW141217   8.167  11.846   0.282
13126SOL    HW241218   8.161  11.895   0.426
13127SOL     OW41219  11.051  10.612  12.019
13127SOL    HW141220  11.097  10.694  12.003
13127SOL    HW241221  10.963  10.626  11.986
13128SOL     OW41222   6.412  13.476  14.465
13128SOL    HW141223   6.366  13.555  14.435
13128SOL    HW241224   6.381  13.462  14.554
13129SOL     OW41225  11.581   1.752   1.124
13129SOL    HW141226  11.548   1.694   1.056
13129SOL    HW241227  11.570   1.702   1.205
13130SOL     OW41228   1.362   8.375   2.684
13130SOL    HW141229   1.424   8.411   2.748
13130SOL    HW241230   1.359   8.282   2.705
13131SOL     OW41231   6.563   6.713   3.054
13131SOL    HW141232   6.581   6.807   3.055
13131SOL    HW241233   6.492   6.702   3.117
13132SOL     OW41234   9.281   1.874  10.569
13132SOL    HW141235   9.219   1.803  10.553
13132SOL    HW241236   9.246   1.920  10.646
13133SOL     OW41237  10.527   6.482   6.800
13133SOL    HW141238  10.599   6.518   6.851
13133SOL    HW241239  10.460   6.459   6.865
13134SOL     OW41240   2.253  11.951   0.246
13134SOL    HW141241   2.219  11.996   0.169
13134SOL    HW241242   2.340  11.990   0.260
13135SOL     OW41243   7.381   8.941  13.790
13135SOL    HW141244   7.466   8.925  13.833
13135SOL    HW241245   7.358   8.857  13.750
13136SOL     OW41246   5.479   3.157   0.274
13136SOL    HW141247   5.409   3.192   0.220
13136SOL    HW241248   5.481   3.063   0.254
13137SOL     OW41249  14.838   1.478  13.300
13137SOL    HW141250  14.865   1.411  13.236
13137SOL    HW241251   0.024   1.466  13.374
13138SOL     OW41252  10.338  12.347   8.664
13138SOL    HW141253  10.371  12.436   8.647
13138SOL    HW241254  10.407  12.290   8.630
13139SOL     OW41255   7.076   8.715   3.576
13139SOL    HW141256   7.021   8.731   3.500
13139SOL    HW241257   7.047   8.779   3.641
13140SOL     OW41258  12.648   0.867   8.263
13140SOL    HW141259  12.705   0.935   8.228
13140SOL    HW241260  12.602   0.832   8.186
13141SOL     OW41261  14.696   7.842  12.328
13141SOL    HW141262  14.688   7.793  12.410
13141SOL    HW241263  14.613   7.888  12.319
13142SOL     OW41264  13.902   6.707   4.807
13142SOL    HW141265  13.811   6.677   4.803
13142SOL    HW241266  13.904   6.786   4.754
13143SOL     OW41267   7.289   9.939   2.490
13143SOL    HW141268   7.232   9.892   2.551
13143SOL    HW241269   7.243  10.020   2.471
13144SOL     OW41270   1.731   1.868  12.173
13144SOL    HW141271   1.741   1.822  12.256
13144SOL    HW241272   1.808   1.925  12.168
13145SOL     OW41273   2.290  13.550   6.198
13145SOL    HW141274   2.385  13.536   6.204
13145SOL    HW241275   2.281  13.632   6.149
13146SOL     OW41276  11.659   2.668   8.228
13146SOL    HW141277  11.598   2.633   8.163
13146SOL    HW241278  11.602   2.702   8.298
13147SOL     OW41279   2.716  10.900   9.772
13147SOL    HW141280   2.798  10.948   9.760
13147SOL    HW241281   2.741  10.821   9.820
13148SOL     OW41282   3.866   1.391  12.182
13148SOL    HW141283   3.924   1.413  12.255
13148SOL    HW241284   3.805   1.464  12.177
13149SOL     OW41285   6.169   9.927   7.025
13149SOL    HW141286   6.203   9.994   6.965
13149SOL    HW241287   6.219   9.848   7.004
13150SOL     OW41288   9.375   9.182  13.589
13150SOL    HW141289   9.298   9.199  13.643
13150SOL    HW241290   9.449   9.192  13.649
13151SOL     OW41291   9.348   7.912   4.961
13151SOL    HW141292   9.354   7.990   5.015
13151SOL    HW241293   9.439   7.889   4.941
13152SOL     OW41294   1.750   5.018  10.887
13152SOL    HW141295   1.775   4.959  10.958
13152SOL    HW241296   1.656   5.028  10.896
13153SOL     OW41297   6.590   8.879   6.287
13153SOL    HW141298   6.680   8.857   6.310
13153SOL    HW241299   6.580   8.846   6.197
13154SOL     OW41300  12.530  12.874  11.941
13154SOL    HW141301  12.518  12.788  11.982
13154SOL    HW241302  12.546  12.934  12.014
13155SOL     OW41303   2.068   0.689   4.519
13155SOL    HW141304   2.097   0.684   4.428
13155SOL    HW241305   1.981   0.651   4.519
13156SOL     OW41306  10.388   9.600   4.020
13156SOL    HW141307  10.391   9.650   3.938
13156SOL    HW241308  10.328   9.527   4.001
13157SOL     OW41309  11.667   3.082   2.141
13157SOL    HW141310  11.752   3.052   2.108
13157SOL    HW241311  11.681   3.174   2.164
13158SOL     OW41312  13.293   8.230   4.705
13158SOL    HW141313  13.275   8.314   4.663
13158SOL    HW241314  13.222   8.220   4.769
13159SOL     OW41315  10.721  12.617   6.980
13159SOL    HW141316  10.741  12.591   7.070
13159SOL    HW241317  10.664  12.546   6.948
13160SOL     OW41318   9.822   2.524  14.638
13160SOL    HW141319   9.878   2.495  14.711
13160SOL    HW241320   9.734   2.525  14.676
13161SOL     OW41321  12.663   5.237  13.611
13161SOL    HW141322  12.586   5.294  13.614
13161SOL    HW241323  12.635   5.156  13.655
13162SOL     OW41324  10.133   7.931  13.787
13162SOL    HW141325  10.156   7.881  13.709
13162SOL    HW241326  10.124   7.866  13.856
13163SOL     OW41327  10.386   4.186   7.076
13163SOL    HW141328  10.295   4.193   7.047
13163SOL    HW241329  10.420   4.275   7.074
13164SOL     OW41330  13.585   1.848   1.522
13164SOL    HW141331  13.571   1.785   1.593
13164SOL    HW241332  13.536   1.925   1.549
13165SOL     OW41333   6.872   3.466   3.945
13165SOL    HW141334   6.796   3.415   3.919
13165SOL    HW241335   6.851   3.499   4.033
13166SOL     OW41336   4.202   8.710   4.589
13166SOL    HW141337   4.109   8.696   4.572
13166SOL    HW241338   4.242   8.716   4.502
13167SOL     OW41339   3.570   7.520   1.168
13167SOL    HW141340   3.548   7.606   1.134
13167SOL    HW241341   3.636   7.486   1.108
13168SOL     OW41342  12.110  11.147  14.735
13168SOL    HW141343  12.055  11.225  14.750
13168SOL    HW241344  12.126  11.112  14.822
13169SOL     OW41345  14.542  11.634  12.941
13169SOL    HW141346  14.546  11.718  12.987
13169SOL    HW241347  14.519  11.656  12.851
13170SOL     OW41348   5.907  11.591   9.950
13170SOL    HW141349   5.912  11.599   9.855
13170SOL    HW241350   5.837  11.651   9.976
13171SOL     OW41351  11.062  10.356   6.658
13171SOL    HW141352  11.149  10.352   6.620
13171SOL    HW241353  11.020  10.274   6.631
13172SOL     OW41354   1.485  14.180   1.963
13172SOL    HW141355   1.493  14.248   2.030
13172SOL    HW241356   1.393  14.183   1.937
13173SOL     OW41357   7.447   5.147   5.598
13173SOL    HW141358   7.505   5.172   5.670
13173SOL    HW241359   7.359   5.150   5.636
13174SOL     OW41360   0.024   3.309  14.516
13174SOL    HW141361   0.030   3.352  14.601
13174SOL    HW241362  14.805   3.307  14.497
13175SOL     OW41363   2.944  10.347   2.025
13175SOL    HW141364   2.928  10.255   2.005
13175SOL    HW241365   2.862  10.377   2.065
13176SOL     OW41366   2.905  10.746   9.059
13176SOL    HW141367   2.988  10.786   9.032
13176SOL    HW241368   2.927  10.654   9.074
13177SOL     OW41369   7.373   6.675   0.094
13177SOL    HW141370   7.295   6.683   0.041
13177SOL    HW241371   7.341   6.669   0.184
13178SOL     OW41372  10.156   0.919  13.998
13178SOL    HW141373  10.225   0.956  14.052
13178SOL    HW241374  10.092   0.885  14.060
13179SOL     OW41375  10.280   5.308   0.638
13179SOL    HW141376  10.289   5.313   0.542
13179SOL    HW241377  10.370   5.298   0.670
13180SOL     OW41378  12.412   1.752   7.274
13180SOL    HW141379  12.408   1.716   7.363
13180SOL    HW241380  12.498   1.792   7.268
13181SOL     OW41381   2.150   6.003   5.026
13181SOL    HW141382   2.144   6.011   5.121
13181SOL    HW241383   2.153   6.093   4.994
13182SOL     OW41384  14.765   1.714   1.147
13182SOL    HW141385  14.840   1.765   1.116
13182SOL    HW241386  14.689   1.757   1.107
13183SOL     OW41387   1.134   9.779   8.765
13183SOL    HW141388   1.070   9.785   8.694
13183SOL    HW241389   1.129   9.689   8.795
13184SOL     OW41390   1.229  14.050   9.165
13184SOL    HW141391   1.238  14.145   9.170
13184SOL    HW241392   1.138  14.035   9.142
13185SOL     OW41393   3.646   5.144   1.975
13185SOL    HW141394   3.738   5.156   1.949
13185SOL    HW241395   3.649   5.077   2.044
13186SOL     OW41396   3.539   3.020  11.812
13186SOL    HW141397   3.447   3.043  11.830
13186SOL    HW241398   3.563   3.074  11.737
13187SOL     OW41399  12.604   6.693   1.198
13187SOL    HW141400  12.639   6.613   1.159
13187SOL    HW241401  12.592   6.671   1.291
13188SOL     OW41402   4.646   5.692   9.722
13188SOL    HW141403   4.675   5.773   9.681
13188SOL    HW241404   4.725   5.655   9.761
13189SOL     OW41405   5.151   1.243   6.704
13189SOL    HW141406   5.195   1.328   6.703
13189SOL    HW241407   5.209   1.187   6.755
13190SOL     OW41408  13.832   0.287   6.464
13190SOL    HW141409  13.781   0.364   6.488
13190SOL    HW241410  13.866   0.254   6.548
13191SOL     OW41411   3.652   6.315   9.706
13191SOL    HW141412   3.592   6.278   9.770
13191SOL    HW241413   3.607   6.307   9.623
13192SOL     OW41414   1.337   5.717   9.995
13192SOL    HW141415   1.424   5.726   9.955
13192SOL    HW241416   1.355   5.703  10.088
13193SOL     OW41417   2.524   5.687  10.540
13193SOL    HW141418   2.521   5.754  10.609
13193SOL    HW241419   2.481   5.728  10.465
13194SOL     OW41420  11.842   4.826   9.250
13194SOL    HW141421  11.859   4.920   9.242
13194SOL    HW241422  11.928   4.785   9.235
13195SOL     OW41423   9.127   9.239  13.009
13195SOL    HW141424   9.083   9.266  13.089
13195SOL    HW241425   9.221   9.242  13.030
13196SOL     OW41426   5.435   5.547  11.290
13196SOL    HW141427   5.522   5.557  11.253
13196SOL    HW241428   5.395   5.477  11.239
13197SOL     OW41429  10.972   8.112   7.040
13197SOL    HW141430  10.987   8.146   7.129
13197SOL    HW241431  11.035   8.159   6.986
13198SOL     OW41432   4.686   4.410   9.164
13198SOL    HW141433   4.694   4.317   9.143
13198SOL    HW241434   4.591   4.424   9.173
13199SOL     OW41435   2.636  13.498   5.450
13199SOL    HW141436   2.645  13.592   5.467
13199SOL    HW241437   2.653  13.490   5.356
13200SOL     OW41438   1.539  14.450   9.267
13200SOL    HW141439   1.550  14.535   9.225
13200SOL    HW241440   1.571  14.387   9.202
13201SOL     OW41441   0.223  10.818  13.946
13201SOL    HW141442   0.178  10.733  13.944
13201SOL    HW241443   0.285  10.811  14.018
13202SOL     OW41444   2.374  14.722   0.413
13202SOL    HW141445   2.428  14.776   0.470
13202SOL    HW241446   2.437  14.673   0.360
13203SOL     OW41447   8.893   2.101   3.423
13203SOL    HW141448   8.985   2.117   3.401
13203SOL    HW241449   8.894   2.022   3.477
13204SOL     OW41450  13.042  12.011   1.595
13204SOL    HW141451  13.123  11.964   1.575
13204SOL    HW241452  12.999  12.022   1.511
13205SOL     OW41453   0.797  14.379   2.369
13205SOL    HW141454   0.796  14.453   2.309
13205SOL    HW241455   0.758  14.307   2.319
13206SOL     OW41456  12.013   0.586   8.098
13206SOL    HW141457  11.947   0.635   8.147
13206SOL    HW241458  12.037   0.514   8.156
13207SOL     OW41459   1.092  11.722   6.115
13207SOL    HW141460   1.000  11.714   6.143
13207SOL    HW241461   1.129  11.786   6.175
13208SOL     OW41462   3.754  13.936   4.477
13208SOL    HW141463   3.833  13.893   4.444
13208SOL    HW241464   3.740  14.010   4.417
13209SOL     OW41465  12.996   5.049  11.960
13209SOL    HW141466  13.062   5.047  11.891
13209SOL    HW241467  12.915   5.021  11.917
13210SOL     OW41468   4.779   7.943  11.336
13210SOL    HW141469   4.797   7.952  11.243
13210SOL    HW241470   4.858   7.974  11.380
13211SOL     OW41471  10.049  14.210  12.489
13211SOL    HW141472  10.070  14.303  12.496
13211SOL    HW241473  10.015  14.200  12.400
13212SOL     OW41474   0.553  12.011  10.903
13212SOL    HW141475   0.462  12.040  10.909
13212SOL    HW241476   0.602  12.073  10.957
13213SOL     OW41477   8.131   0.769   5.439
13213SOL    HW141478   8.117   0.690   5.387
13213SOL    HW241479   8.046   0.814   5.438
13214SOL     OW41480  12.992  14.064   3.018
13214SOL    HW141481  12.933  14.038   3.089
13214SOL    HW241482  12.954  14.024   2.940
13215SOL     OW41483  11.488  12.695  12.230
13215SOL    HW141484  11.396  12.717  12.244
13215SOL    HW241485  11.493  12.670  12.138
13216SOL     OW41486   2.511   7.532   2.858
13216SOL    HW141487   2.546   7.563   2.774
13216SOL    HW241488   2.464   7.452   2.837
13217SOL     OW41489  12.607   1.177   4.583
13217SOL    HW141490  12.542   1.137   4.525
13217SOL    HW241491  12.610   1.269   4.555
13218SOL     OW41492   1.507   2.979   2.731
13218SOL    HW141493   1.519   2.894   2.688
13218SOL    HW241494   1.457   2.959   2.810
13219SOL     OW41495  11.109  12.785  10.446
13219SOL    HW141496  11.024  12.818  10.417
13219SOL    HW241497  11.091  12.741  10.528
13220SOL     OW41498   7.509  13.205   8.291
13220SOL    HW141499   7.470  13.278   8.338
13220SOL    HW241500   7.447  13.133   8.301
13221SOL     OW41501  14.057   3.327  12.656
13221SOL    HW141502  14.071   3.416  12.624
13221SOL    HW241503  13.963   3.313  12.645
13222SOL     OW41504   2.776  11.458   6.888
13222SOL    HW141505   2.695  11.508   6.894
13222SOL    HW241506   2.748  11.367   6.898
13223SOL     OW41507   6.616   4.127   0.768
13223SOL    HW141508   6.619   4.146   0.674
13223SOL    HW241509   6.555   4.191   0.804
13224SOL     OW41510   7.529   5.906  14.334
13224SOL    HW141511   7.500   5.905  14.243
13224SOL    HW241512   7.478   5.837  14.376
13225SOL     OW41513   3.407  14.090   2.229
13225SOL    HW141514   3.442  14.064   2.144
13225SOL    HW241515   3.415  14.186   2.230
13226SOL     OW41516   7.093   0.707   7.069
13226SOL    HW141517   7.056   0.619   7.072
13226SOL    HW241518   7.023   0.761   7.033
13227SOL     OW41519   6.964   7.802   6.956
13227SOL    HW141520   6.962   7.894   6.930
13227SOL    HW241521   7.055   7.787   6.983
13228SOL     OW41522   6.332   2.949   0.487
13228SOL    HW141523   6.413   2.923   0.532
13228SOL    HW241524   6.304   2.870   0.442
13229SOL     OW41525   3.225  13.481   3.508
13229SOL    HW141526   3.261  13.564   3.477
13229SOL    HW241527   3.146  13.506   3.556
13230SOL     OW41528   2.186  12.772   1.945
13230SOL    HW141529   2.192  12.806   2.034
13230SOL    HW241530   2.161  12.848   1.892
13231SOL     OW41531  14.476  13.128   4.206
13231SOL    HW141532  14.381  13.138   4.200
13231SOL    HW241533  14.489  13.038   4.234
13232SOL     OW41534   8.840   7.922  11.458
13232SOL    HW141535   8.880   8.007  11.437
13232SOL    HW241536   8.773   7.909  11.391
13233SOL     OW41537   0.921   0.374   5.780
13233SOL    HW141538   0.826   0.375   5.780
13233SOL    HW241539   0.946   0.415   5.863
13234SOL     OW41540   6.316   5.225   4.063
13234SOL    HW141541   6.357   5.310   4.046
13234SOL    HW241542   6.385   5.162   4.045
13235SOL     OW41543   0.123   4.840  13.230
13235SOL    HW141544   0.053   4.831  13.294
13235SOL    HW241545   0.097   4.783  13.157
13236SOL     OW41546   8.343   2.384   8.849
13236SOL    HW141547   8.301   2.319   8.794
13236SOL    HW241548   8.436   2.361   8.847
13237SOL     OW41549  11.548   9.452   8.904
13237SOL    HW141550  11.537   9.376   8.962
13237SOL    HW241551  11.483   9.515   8.935
13238SOL     OW41552   2.881   0.601   2.966
13238SOL    HW141553   2.907   0.672   2.908
13238SOL    HW241554   2.785   0.604   2.965
13239SOL     OW41555  14.709   9.136   8.385
13239SOL    HW141556  14.752   9.065   8.434
13239SOL    HW241557  14.689   9.202   8.450
13240SOL     OW41558   8.718  12.764   9.109
13240SOL    HW141559   8.744  12.852   9.136
13240SOL    HW241560   8.663  12.732   9.180
13241SOL     OW41561  14.464  11.165   0.393
13241SOL    HW141562  14.480  11.146   0.485
13241SOL    HW241563  14.547  11.147   0.350
13242SOL     OW41564   9.146  11.876   0.758
13242SOL    HW141565   9.175  11.935   0.689
13242SOL    HW241566   9.121  11.933   0.830
13243SOL     OW41567  14.329   8.286  13.751
13243SOL    HW141568  14.390   8.213  13.743
13243SOL    HW241569  14.384   8.363  13.763
13244SOL     OW41570  13.555   6.469   7.799
13244SOL    HW141571  13.499   6.414   7.853
13244SOL    HW241572  13.534   6.444   7.709
13245SOL     OW41573  11.955  13.998   0.602
13245SOL    HW141574  11.927  13.974   0.514
13245SOL    HW241575  11.875  14.018   0.649
13246SOL     OW41576   5.299   7.703   2.723
13246SOL    HW141577   5.300   7.761   2.647
13246SOL    HW241578   5.391   7.701   2.751
13247SOL     OW41579  14.865   9.825  11.551
13247SOL    HW141580   0.043   9.746  11.533
13247SOL    HW241581   0.012   9.848  11.641
13248SOL     OW41582   3.867  14.628  11.915
13248SOL    HW141583   3.866  14.719  11.946
13248SOL    HW241584   3.788  14.589  11.952
13249SOL     OW41585  10.737   1.028   8.845
13249SOL    HW141586  10.803   1.091   8.813
13249SOL    HW241587  10.658   1.080   8.857
13250SOL     OW41588   3.831   1.199   4.331
13250SOL    HW141589   3.901   1.228   4.272
13250SOL    HW241590   3.759   1.258   4.312
13251SOL     OW41591   2.623   6.633  11.576
13251SOL    HW141592   2.537   6.593  11.581
13251SOL    HW241593   2.646   6.653  11.667
13252SOL     OW41594  13.000  12.910   8.510
13252SOL    HW141595  13.019  12.872   8.425
13252SOL    HW241596  12.908  12.937   8.504
13253SOL     OW41597   7.166   5.885   9.191
13253SOL    HW141598   7.172   5.980   9.184
13253SOL    HW241599   7.076   5.865   9.166
13254SOL     OW41600   4.781   4.440   2.479
13254SOL    HW141601   4.791   4.488   2.560
13254SOL    HW241602   4.814   4.352   2.498
13255SOL     OW41603  11.994   2.727   5.812
13255SOL    HW141604  11.902   2.713   5.789
13255SOL    HW241605  12.018   2.649   5.862
13256SOL     OW41606  10.849  10.187   7.845
13256SOL    HW141607  10.832  10.101   7.884
13256SOL    HW241608  10.934  10.213   7.881
13257SOL     OW41609   2.574   2.266   6.565
13257SOL    HW141610   2.513   2.193   6.563
13257SOL    HW241611   2.637   2.247   6.496
13258SOL     OW41612   7.119  14.442   6.563
13258SOL    HW141613   7.047  14.415   6.621
13258SOL    HW241614   7.197  14.439   6.619
13259SOL     OW41615   0.593  10.430   1.138
13259SOL    HW141616   0.543  10.463   1.063
13259SOL    HW241617   0.542  10.457   1.214
13260SOL     OW41618   4.412  10.671   1.661
13260SOL    HW141619   4.489  10.660   1.605
13260SOL    HW241620   4.338  10.667   1.600
13261SOL     OW41621   5.711  12.482   8.538
13261SOL    HW141622   5.683  12.391   8.549
13261SOL    HW241623   5.785  12.477   8.477
13262SOL     OW41624  11.691  11.982  12.824
13262SOL    HW141625  11.690  12.076  12.842
13262SOL    HW241626  11.782  11.956  12.838
13263SOL     OW41627   5.786  10.005  10.532
13263SOL    HW141628   5.859  10.049  10.488
13263SOL    HW241629   5.803  10.016  10.625
13264SOL     OW41630   7.177  11.615  14.038
13264SOL    HW141631   7.214  11.603  13.951
13264SOL    HW241632   7.238  11.673  14.082
13265SOL     OW41633   7.245   8.004   7.394
13265SOL    HW141634   7.334   8.039   7.389
13265SOL    HW241635   7.258   7.912   7.419
13266SOL     OW41636   5.367  14.071  12.999
13266SOL    HW141637   5.276  14.096  12.986
13266SOL    HW241638   5.397  14.044  12.913
13267SOL     OW41639  13.338   7.556   8.209
13267SOL    HW141640  13.372   7.523   8.292
13267SOL    HW241641  13.267   7.615   8.233
13268SOL     OW41642  12.147  11.982  13.537
13268SOL    HW141643  12.201  11.960  13.614
13268SOL    HW241644  12.151  12.077  13.531
13269SOL     OW41645  14.245  10.387   5.230
13269SOL    HW141646  14.266  10.448   5.158
13269SOL    HW241647  14.243  10.301   5.188
13270SOL     OW41648   1.597   4.170  10.536
13270SOL    HW141649   1.583   4.192  10.444
13270SOL    HW241650   1.597   4.074  10.538
13271SOL     OW41651   6.330   0.636   6.298
13271SOL    HW141652   6.394   0.594   6.355
13271SOL    HW241653   6.351   0.604   6.210
13272SOL     OW41654   4.632  10.250   6.181
13272SOL    HW141655   4.676  10.331   6.206
13272SOL    HW241656   4.543  10.276   6.158
13273SOL     OW41657   6.621   3.433  11.858
13273SOL    HW141658   6.549   3.452  11.918
13273SOL    HW241659   6.694   3.486  11.890
13274SOL     OW41660  14.097   9.164   3.038
13274SOL    HW141661  14.036   9.224   3.081
13274SOL    HW241662  14.161   9.220   2.996
13275SOL     OW41663   8.243   6.062   9.746
13275SOL    HW141664   8.194   6.025   9.672
13275SOL    HW241665   8.273   5.985   9.795
13276SOL     OW41666  10.527   2.222  10.417
13276SOL    HW141667  10.543   2.208  10.511
13276SOL    HW241668  10.432   2.225  10.410
13277SOL     OW41669   6.527  13.071   3.471
13277SOL    HW141670   6.545  12.977   3.461
13277SOL    HW241671   6.465  13.076   3.544
13278SOL     OW41672   7.319  11.268   3.315
13278SOL    HW141673   7.274  11.338   3.267
13278SOL    HW241674   7.267  11.256   3.394
13279SOL     OW41675   4.438  10.428   5.879
13279SOL    HW141676   4.496  10.503   5.865
13279SOL    HW241677   4.426  10.424   5.973
13280SOL     OW41678  12.612   0.088   3.413
13280SOL    HW141679  12.671   0.014   3.427
13280SOL    HW241680  12.666   0.153   3.367
13281SOL     OW41681   2.603  11.129   0.571
13281SOL    HW141682   2.625  11.203   0.514
13281SOL    HW241683   2.510  11.139   0.589
13282SOL     OW41684   5.748   4.547   2.622
13282SOL    HW141685   5.658   4.554   2.590
13282SOL    HW241686   5.780   4.637   2.623
13283SOL     OW41687   9.119   3.394   7.311
13283SOL    HW141688   9.089   3.484   7.293
13283SOL    HW241689   9.039   3.342   7.312
13284SOL     OW41690   7.178  12.915   0.541
13284SOL    HW141691   7.195  12.884   0.453
13284SOL    HW241692   7.084  12.905   0.553
13285SOL     OW41693   5.890  13.613  14.199
13285SOL    HW141694   5.979  13.626  14.233
13285SOL    HW241695   5.902  13.569  14.115
13286SOL     OW41696   1.151   8.889  14.862
13286SOL    HW141697   1.228   8.867  14.810
13286SOL    HW241698   1.162   8.982   0.009
13287SOL     OW41699   7.402  11.098   5.519
13287SOL    HW141700   7.454  11.174   5.544
13287SOL    HW241701   7.326  11.102   5.577
13288SOL     OW41702   1.200   3.267   2.349
13288SOL    HW141703   1.255   3.189   2.343
13288SOL    HW241704   1.219   3.317   2.269
13289SOL     OW41705   5.183   5.965   6.158
13289SOL    HW141706   5.172   6.040   6.217
13289SOL    HW241707   5.257   5.917   6.195
13290SOL     OW41708  10.087  14.588  14.871
13290SOL    HW141709  10.036  14.565  14.793
13290SOL    HW241710  10.175  14.555  14.851
13291SOL     OW41711  14.577  14.355  13.026
13291SOL    HW141712  14.615  14.315  12.948
13291SOL    HW241713  14.532  14.284  13.071
13292SOL     OW41714   3.716  12.212   3.291
13292SOL    HW141715   3.668  12.146   3.240
13292SOL    HW241716   3.666  12.220   3.372
13293SOL     OW41717   8.265   4.329   6.758
13293SOL    HW141718   8.278   4.378   6.677
13293SOL    HW241719   8.171   4.313   6.762
13294SOL     OW41720   1.089   0.303  10.460
13294SOL    HW141721   1.097   0.213  10.492
13294SOL    HW241722   1.005   0.305  10.414
13295SOL     OW41723   8.553   0.782   0.013
13295SOL    HW141724   8.617   0.846  14.855
13295SOL    HW241725   8.569   0.778   0.107
13296SOL     OW41726   8.755  14.547   2.616
13296SOL    HW141727   8.786  14.456   2.618
13296SOL    HW241728   8.824  14.596   2.660
13297SOL     OW41729   4.128  12.838   2.020
13297SOL    HW141730   4.144  12.892   1.942
13297SOL    HW241731   4.035  12.817   2.015
13298SOL     OW41732  14.273   1.102   0.202
13298SOL    HW141733  14.235   1.091   0.114
13298SOL    HW241734  14.242   1.026   0.251
13299SOL     OW41735   4.771  11.397  10.947
13299SOL    HW141736   4.715  11.466  10.983
13299SOL    HW241737   4.723  11.363  10.871
13300SOL     OW41738   0.371   4.755   9.953
13300SOL    HW141739   0.362   4.805  10.033
13300SOL    HW241740   0.281   4.741   9.923
13301SOL     OW41741   2.713   2.644  13.560
13301SOL    HW141742   2.744   2.556  13.582
13301SOL    HW241743   2.623   2.646  13.591
13302SOL     OW41744   9.535   3.443   7.285
13302SOL    HW141745   9.476   3.514   7.312
13302SOL    HW241746   9.500   3.415   7.200
13303SOL     OW41747   9.225  13.808   0.192
13303SOL    HW141748   9.244  13.716   0.207
13303SOL    HW241749   9.310  13.852   0.198
13304SOL     OW41750  13.364   9.949   0.438
13304SOL    HW141751  13.315   9.896   0.501
13304SOL    HW241752  13.429   9.995   0.490
13305SOL     OW41753  10.928   7.761   3.932
13305SOL    HW141754  10.989   7.699   3.891
13305SOL    HW241755  10.947   7.845   3.889
13306SOL     OW41756   8.739  14.228  10.566
13306SOL    HW141757   8.802  14.294  10.539
13306SOL    HW241758   8.715  14.183  10.485
13307SOL     OW41759   2.048   4.737   9.979
13307SOL    HW141760   2.101   4.695  10.047
13307SOL    HW241761   2.064   4.830   9.990
13308SOL     OW41762   2.857   8.920  12.271
13308SOL    HW141763   2.906   8.946  12.192
13308SOL    HW241764   2.924   8.910  12.338
13309SOL     OW41765   7.868  11.518   7.391
13309SOL    HW141766   7.873  11.613   7.379
13309SOL    HW241767   7.790  11.492   7.342
13310SOL     OW41768  10.633   1.350  12.490
13310SOL    HW141769  10.682   1.279  12.448
13310SOL    HW241770  10.546   1.313  12.505
13311SOL     OW41771  12.310  11.837   5.901
13311SOL    HW141772  12.307  11.787   5.982
13311SOL    HW241773  12.232  11.811   5.853
13312SOL     OW41774   6.123   2.778   4.507
13312SOL    HW141775   6.213   2.762   4.533
13312SOL    HW241776   6.082   2.692   4.506
13313SOL     OW41777   3.659   6.874  12.856
13313SOL    HW141778   3.696   6.959  12.830
13313SOL    HW241779   3.694   6.812  12.793
13314SOL     OW41780  12.478   0.515   1.674
13314SOL    HW141781  12.475   0.569   1.753
13314SOL    HW241782  12.416   0.443   1.693
13315SOL     OW41783  10.531   1.361   9.789
13315SOL    HW141784  10.567   1.277   9.760
13315SOL    HW241785  10.600   1.424   9.768
13316SOL     OW41786  11.007  11.740   0.107
13316SOL    HW141787  10.969  11.652   0.094
13316SOL    HW241788  11.004  11.754   0.201
13317SOL     OW41789   9.253  14.561  12.380
13317SOL    HW141790   9.172  14.600  12.413
13317SOL    HW241791   9.317  14.631  12.385
13318SOL     OW41792  13.614   8.231   9.011
13318SOL    HW141793  13.556   8.231   9.087
13318SOL    HW241794  13.576   8.168   8.951
13319SOL     OW41795  12.449   7.069   3.577
13319SOL    HW141796  12.527   7.020   3.554
13319SOL    HW241797  12.456   7.083   3.672
13320SOL     OW41798   5.509   4.071   0.435
13320SOL    HW141799   5.499   4.084   0.341
13320SOL    HW241800   5.567   4.141   0.464
13321SOL     OW41801   1.163   3.739  10.979
13321SOL    HW141802   1.083   3.780  10.945
13321SOL    HW241803   1.163   3.651  10.940
13322SOL     OW41804   5.061   6.345  10.021
13322SOL    HW141805   5.156   6.331  10.014
13322SOL    HW241806   5.052   6.413  10.087
13323SOL     OW41807  14.610   3.137   2.814
13323SOL    HW141808  14.601   3.131   2.719
13323SOL    HW241809  14.532   3.186   2.842
13324SOL     OW41810  13.490   2.518   6.823
13324SOL    HW141811  13.397   2.498   6.838
13324SOL    HW241812  13.505   2.494   6.732
13325SOL     OW41813   1.333   6.289   2.789
13325SOL    HW141814   1.247   6.276   2.749
13325SOL    HW241815   1.362   6.374   2.756
13326SOL     OW41816   6.959   6.258   8.654
13326SOL    HW141817   6.973   6.352   8.667
13326SOL    HW241818   6.881   6.253   8.599
13327SOL     OW41819  14.724  10.598   3.173
13327SOL    HW141820  14.686  10.526   3.123
13327SOL    HW241821  14.805  10.619   3.127
13328SOL     OW41822   9.329   0.907   3.128
13328SOL    HW141823   9.267   0.980   3.124
13328SOL    HW241824   9.412   0.947   3.154
13329SOL     OW41825   4.241   1.393  11.034
13329SOL    HW141826   4.278   1.462  10.979
13329SOL    HW241827   4.318   1.344  11.066
13330SOL     OW41828  10.245   0.798  13.752
13330SOL    HW141829  10.211   0.835  13.833
13330SOL    HW241830  10.288   0.872  13.708
13331SOL     OW41831   6.035  10.937  13.985
13331SOL    HW141832   5.980  11.004  14.025
13331SOL    HW241833   6.023  10.949  13.891
13332SOL     OW41834   2.373   8.120   7.359
13332SOL    HW141835   2.402   8.081   7.277
13332SOL    HW241836   2.409   8.064   7.427
13333SOL     OW41837   6.294   2.497  10.041
13333SOL    HW141838   6.316   2.437  10.113
13333SOL    HW241839   6.354   2.472   9.970
13334SOL     OW41840   2.282   5.418  13.281
13334SOL    HW141841   2.282   5.494  13.224
13334SOL    HW241842   2.214   5.360  13.246
13335SOL     OW41843   0.128  13.313  12.365
13335SOL    HW141844   0.205  13.267  12.400
13335SOL    HW241845   0.100  13.259  12.291
13336SOL     OW41846   0.320   9.450   6.076
13336SOL    HW141847   0.298   9.489   5.991
13336SOL    HW241848   0.239   9.458   6.127
13337SOL     OW41849  13.042  14.452   3.956
13337SOL    HW141850  12.992  14.375   3.930
13337SOL    HW241851  13.063  14.437   4.048
13338SOL     OW41852  13.789   6.064   8.989
13338SOL    HW141853  13.820   6.018   8.911
13338SOL    HW241854  13.705   6.103   8.962
13339SOL     OW41855   7.436  14.746  11.348
13339SOL    HW141856   7.439  14.650  11.345
13339SOL    HW241857   7.349  14.766  11.385
13340SOL     OW41858  10.076  10.616  13.030
13340SOL    HW141859  10.072  10.567  12.948
13340SOL    HW241860  10.089  10.707  13.003
13341SOL     OW41861  13.019   0.086  12.815
13341SOL    HW141862  13.065   0.154  12.865
13341SOL    HW241863  12.932   0.123  12.800
13342SOL     OW41864   3.253  13.389  14.811
13342SOL    HW141865   3.346  13.368  14.798
13342SOL    HW241866   3.209  13.305  14.817
13343SOL     OW41867  10.135  10.173  11.661
13343SOL    HW141868  10.174  10.088  11.679
13343SOL    HW241869  10.078  10.159  11.585
13344SOL     OW41870   1.428  13.120  11.646
13344SOL    HW141871   1.343  13.078  11.657
13344SOL    HW241872   1.450  13.154  11.733
13345SOL     OW41873   5.103   2.269   6.672
13345SOL    HW141874   5.072   2.178   6.680
13345SOL    HW241875   5.037   2.312   6.617
13346SOL     OW41876   7.201   3.019   8.732
13346SOL    HW141877   7.186   3.113   8.720
13346SOL    HW241878   7.151   2.979   8.661
13347SOL     OW41879   2.028   9.219  14.532
13347SOL    HW141880   2.038   9.138  14.482
13347SOL    HW241881   2.101   9.220  14.594
13348SOL     OW41882   2.325  14.815   6.939
13348SOL    HW141883   2.317  14.863   6.857
13348SOL    HW241884   2.248  14.758   6.942
13349SOL     OW41885  11.838   9.604   9.377
13349SOL    HW141886  11.815   9.558   9.296
13349SOL    HW241887  11.755   9.621   9.420
13350SOL     OW41888  14.420   1.166  13.230
13350SOL    HW141889  14.388   1.239  13.283
13350SOL    HW241890  14.344   1.111  13.216
13351SOL     OW41891   2.053   2.636   9.381
13351SOL    HW141892   2.108   2.698   9.430
13351SOL    HW241893   1.978   2.689   9.353
13352SOL     OW41894   3.438   8.844   0.788
13352SOL    HW141895   3.530   8.866   0.771
13352SOL    HW241896   3.393   8.864   0.706
13353SOL     OW41897   4.513   8.877   5.882
13353SOL    HW141898   4.494   8.965   5.915
13353SOL    HW241899   4.605   8.863   5.905
13354SOL     OW41900   6.842   1.350  12.407
13354SOL    HW141901   6.817   1.421  12.348
13354SOL    HW241902   6.932   1.370  12.432
13355SOL     OW41903  12.445   4.503   9.478
13355SOL    HW141904  12.353   4.475   9.478
13355SOL    HW241905  12.446   4.578   9.539
13356SOL     OW41906   7.622   2.113   0.926
13356SOL    HW141907   7.557   2.043   0.920
13356SOL    HW241908   7.679   2.099   0.850
13357SOL     OW41909   6.271  13.890  14.184
13357SOL    HW141910   6.189  13.930  14.211
13357SOL    HW241911   6.248  13.834  14.110
13358SOL     OW41912  11.220  14.424   1.553
13358SOL    HW141913  11.246  14.332   1.556
13358SOL    HW241914  11.125  14.422   1.537
13359SOL     OW41915  12.361  13.479  13.144
13359SOL    HW141916  12.454  13.471  13.165
13359SOL    HW241917  12.334  13.561  13.185
13360SOL     OW41918   0.563   0.814  10.951
13360SOL    HW141919   0.529   0.802  10.862
13360SOL    HW241920   0.646   0.766  10.951
13361SOL     OW41921   5.544   3.985  11.357
13361SOL    HW141922   5.561   4.069  11.315
13361SOL    HW241923   5.463   3.998  11.405
13362SOL     OW41924   3.558  10.972   2.391
13362SOL    HW141925   3.463  10.976   2.380
13362SOL    HW241926   3.584  11.063   2.405
13363SOL     OW41927  14.192   8.694   5.313
13363SOL    HW141928  14.269   8.643   5.291
13363SOL    HW241929  14.120   8.631   5.316
13364SOL     OW41930  14.467  10.931  12.295
13364SOL    HW141931  14.434  10.896  12.212
13364SOL    HW241932  14.559  10.906  12.295
13365SOL     OW41933  14.283  10.683   8.119
13365SOL    HW141934  14.220  10.748   8.087
13365SOL    HW241935  14.250  10.659   8.206
13366SOL     OW41936   8.978   0.470   4.450
13366SOL    HW141937   8.973   0.549   4.504
13366SOL    HW241938   9.029   0.496   4.374
13367SOL     OW41939   7.507   3.866   9.003
13367SOL    HW141940   7.532   3.930   9.070
13367SOL    HW241941   7.414   3.852   9.017
13368SOL     OW41942   0.194   0.477   8.429
13368SOL    HW141943   0.177   0.382   8.427
13368SOL    HW241944   0.273   0.486   8.483
13369SOL     OW41945   8.442  10.263   6.995
13369SOL    HW141946   8.519  10.293   6.947
13369SOL    HW241947   8.375  10.251   6.927
13370SOL     OW41948   9.357   1.486  12.328
13370SOL    HW141949   9.411   1.418  12.368
13370SOL    HW241950   9.372   1.564  12.381
13371SOL     OW41951   2.973   0.884   3.338
13371SOL    HW141952   3.004   0.874   3.248
13371SOL    HW241953   2.964   0.795   3.370
13372SOL     OW41954   5.020  13.811   7.137
13372SOL    HW141955   5.054  13.831   7.050
13372SOL    HW241956   5.065  13.731   7.163
13373SOL     OW41957  10.138   0.742  12.508
13373SOL    HW141958  10.123   0.663  12.456
13373SOL    HW241959  10.218   0.724  12.557
13374SOL     OW41960   2.236  13.519   9.594
13374SOL    HW141961   2.238  13.478   9.680
13374SOL    HW241962   2.153  13.491   9.556
13375SOL     OW41963   3.404  10.174   8.927
13375SOL    HW141964   3.444  10.183   9.013
13375SOL    HW241965   3.403  10.263   8.891
13376SOL     OW41966  13.621  13.111   2.016
13376SOL    HW141967  13.716  13.113   2.027
13376SOL    HW241968  13.597  13.020   2.035
13377SOL     OW41969   2.099  12.016   7.467
13377SOL    HW141970   2.036  12.056   7.528
13377SOL    HW241971   2.056  11.935   7.438
13378SOL     OW41972   8.917   2.981  10.308
13378SOL    HW141973   8.917   2.888  10.287
13378SOL    HW241974   8.854   2.990  10.380
13379SOL     OW41975   2.366   3.291   8.136
13379SOL    HW141976   2.287   3.280   8.084
13379SOL    HW241977   2.353   3.374   8.183
13380SOL     OW41978  11.605  13.072   7.920
13380SOL    HW141979  11.690  13.094   7.882
13380SOL    HW241980  11.584  12.986   7.883
13381SOL     OW41981   4.088  10.397  13.083
13381SOL    HW141982   3.999  10.428  13.065
13381SOL    HW241983   4.079  10.342  13.161
13382SOL     OW41984   6.074   2.060   7.895
13382SOL    HW141985   6.020   2.014   7.830
13382SOL    HW241986   6.069   2.152   7.870
13383SOL     OW41987   0.840  12.477   1.229
13383SOL    HW141988   0.858  12.518   1.144
13383SOL    HW241989   0.915  12.501   1.283
13384SOL     OW41990  10.347   0.747  10.831
13384SOL    HW141991  10.406   0.698  10.888
13384SOL    HW241992  10.403   0.778  10.759
13385SOL     OW41993   5.952   9.336   0.886
13385SOL    HW141994   5.950   9.304   0.796
13385SOL    HW241995   6.045   9.349   0.905
13386SOL     OW41996   1.117   6.697  10.042
13386SOL    HW141997   1.206   6.705  10.077
13386SOL    HW241998   1.082   6.786  10.048
13387SOL     OW41999   2.579  14.852  14.010
13387SOL    HW142000   2.512  14.793  13.976
13387SOL    HW242001   2.558  14.862  14.103
13388SOL     OW42002   4.303   7.687   4.941
13388SOL    HW142003   4.264   7.615   4.991
13388SOL    HW242004   4.364   7.728   5.002
13389SOL     OW42005  13.671   8.389   4.915
13389SOL    HW142006  13.622   8.427   4.987
13389SOL    HW242007  13.617   8.404   4.838
13390SOL     OW42008   2.734   4.157  10.847
13390SOL    HW142009   2.755   4.241  10.806
13390SOL    HW242010   2.713   4.179  10.938
13391SOL     OW42011   8.866   9.553   2.403
13391SOL    HW142012   8.797   9.619   2.398
13391SOL    HW242013   8.885   9.531   2.312
13392SOL     OW42014   8.599  13.390   0.360
13392SOL    HW142015   8.561  13.478   0.361
13392SOL    HW242016   8.549  13.342   0.294
13393SOL     OW42017   6.294   0.608  13.653
13393SOL    HW142018   6.335   0.523  13.639
13393SOL    HW242019   6.210   0.589  13.693
13394SOL     OW42020   6.402   9.694   9.272
13394SOL    HW142021   6.390   9.606   9.236
13394SOL    HW242022   6.315   9.719   9.302
13395SOL     OW42023   4.302   0.878  14.801
13395SOL    HW142024   4.262   0.965  14.803
13395SOL    HW242025   4.238   0.821  14.844
13396SOL     OW42026  13.857  13.607  10.912
13396SOL    HW142027  13.903  13.524  10.923
13396SOL    HW242028  13.916  13.661  10.860
13397SOL     OW42029   3.887   7.001  14.440
13397SOL    HW142030   3.876   7.065  14.369
13397SOL    HW242031   3.872   7.052  14.520
13398SOL     OW42032   9.625   7.243   6.910
13398SOL    HW142033   9.652   7.274   6.996
13398SOL    HW242034   9.697   7.188   6.879
13399SOL     OW42035   8.624   3.572   1.146
13399SOL    HW142036   8.588   3.545   1.231
13399SOL    HW242037   8.632   3.667   1.153
13400SOL     OW42038   3.524  14.000  12.554
13400SOL    HW142039   3.570  14.021  12.635
13400SOL    HW242040   3.593  13.986  12.489
13401SOL     OW42041   4.180   0.895  14.040
13401SOL    HW142042   4.104   0.940  14.002
13401SOL    HW242043   4.156   0.882  14.132
13402SOL     OW42044  10.321  13.905   5.300
13402SOL    HW142045  10.413  13.926   5.285
13402SOL    HW242046  10.296  13.962   5.373
13403SOL     OW42047   6.117   9.536   7.661
13403SOL    HW142048   6.050   9.526   7.729
13403SOL    HW242049   6.194   9.568   7.707
13404SOL     OW42050   3.728   6.885  11.420
13404SOL    HW142051   3.812   6.865  11.461
13404SOL    HW242052   3.719   6.980  11.428
13405SOL     OW42053   2.070  11.434   6.923
13405SOL    HW142054   2.079  11.401   7.012
13405SOL    HW242055   2.032  11.361   6.874
13406SOL     OW42056   9.332  11.778  12.063
13406SOL    HW142057   9.332  11.714  11.992
13406SOL    HW242058   9.303  11.730  12.140
13407SOL     OW42059   8.386   6.629  11.206
13407SOL    HW142060   8.460   6.639  11.266
13407SOL    HW242061   8.345   6.715  11.203
13408SOL     OW42062   2.415   8.608  13.191
13408SOL    HW142063   2.438   8.653  13.110
13408SOL    HW242064   2.440   8.669  13.260
13409SOL     OW42065   4.580  13.602  10.647
13409SOL    HW142066   4.565  13.512  10.618
13409SOL    HW242067   4.533  13.608  10.730
13410SOL     OW42068  14.691  10.593  13.555
13410SOL    HW142069  14.635  10.583  13.632
13410SOL    HW242070  14.639  10.646  13.494
13411SOL     OW42071   8.437   0.228   7.648
13411SOL    HW142072   8.442   0.139   7.612
13411SOL    HW242073   8.380   0.275   7.587
13412SOL     OW42074  14.765  10.535  12.286
13412SOL    HW142075  14.721  10.499  12.363
13412SOL    HW242076  14.763  10.630  12.299
13413SOL     OW42077   6.468   7.797   5.343
13413SOL    HW142078   6.481   7.728   5.279
13413SOL    HW242079   6.556   7.833   5.358
13414SOL     OW42080  13.860   3.705   9.184
13414SOL    HW142081  13.876   3.698   9.278
13414SOL    HW242082  13.940   3.743   9.148
13415SOL     OW42083   4.640  11.700  11.069
13415SOL    HW142084   4.736  11.698  11.074
13415SOL    HW242085   4.618  11.793  11.073
13416SOL     OW42086   0.261   8.737   0.285
13416SOL    HW142087   0.338   8.683   0.266
13416SOL    HW242088   0.289   8.794   0.356
13417SOL     OW42089  13.980  11.375   2.370
13417SOL    HW142090  14.025  11.321   2.436
13417SOL    HW242091  14.050  11.424   2.327
13418SOL     OW42092   4.465  13.975   5.901
13418SOL    HW142093   4.386  13.922   5.913
13418SOL    HW242094   4.486  14.006   5.989
13419SOL     OW42095   1.079  13.244   2.416
13419SOL    HW142096   1.166  13.285   2.419
13419SOL    HW242097   1.086  13.178   2.347
13420SOL     OW42098  13.841   3.795  10.512
13420SOL    HW142099  13.934   3.794  10.533
13420SOL    HW242100  13.801   3.850  10.580
13421SOL     OW42101   2.227   9.794   4.909
13421SOL    HW142102   2.156   9.752   4.861
13421SOL    HW242103   2.225   9.754   4.996
13422SOL     OW42104   8.265  10.775  13.635
13422SOL    HW142105   8.215  10.839  13.584
13422SOL    HW242106   8.212  10.695  13.631
13423SOL     OW42107  11.598   6.574   1.462
13423SOL    HW142108  11.509   6.606   1.470
13423SOL    HW242109  11.624   6.596   1.373
13424SOL     OW42110  10.722  13.631  10.546
13424SOL    HW142111  10.769  13.629  10.629
13424SOL    HW242112  10.641  13.677  10.565
13425SOL     OW42113   9.449  12.807   2.977
13425SOL    HW142114   9.408  12.785   2.894
13425SOL    HW242115   9.463  12.902   2.973
13426SOL     OW42116  11.244   8.249   5.983
13426SOL    HW142117  11.213   8.326   6.030
13426SOL    HW242118  11.174   8.184   5.995
13427SOL     OW42119   2.405   9.540   6.859
13427SOL    HW142120   2.453   9.458   6.852
13427SOL    HW242121   2.441   9.595   6.788
13428SOL     OW42122  11.638  14.866  11.413
13428SOL    HW142123  11.611  14.777  11.388
13428SOL    HW242124  11.704  14.852  11.481
13429SOL     OW42125  13.332  12.948   4.133
13429SOL    HW142126  13.257  12.921   4.079
13429SOL    HW242127  13.401  12.885   4.112
13430SOL     OW42128   7.425   2.338  10.851
13430SOL    HW142129   7.519   2.343  10.866
13430SOL    HW242130   7.388   2.312  10.935
13431SOL     OW42131   7.821   6.836   8.362
13431SOL    HW142132   7.809   6.863   8.271
13431SOL    HW242133   7.877   6.759   8.357
13432SOL     OW42134   6.117   8.110   3.257
13432SOL    HW142135   6.076   8.159   3.186
13432SOL    HW242136   6.067   8.028   3.260
13433SOL     OW42137   3.358  12.188   0.698
13433SOL    HW142138   3.354  12.192   0.603
13433SOL    HW242139   3.334  12.276   0.727
13434SOL     OW42140   6.399  14.209   0.374
13434SOL    HW142141   6.413  14.217   0.279
13434SOL    HW242142   6.455  14.135   0.399
13435SOL     OW42143  11.417  12.220  13.786
13435SOL    HW142144  11.370  12.157  13.841
13435SOL    HW242145  11.477  12.166  13.734
13436SOL     OW42146   9.516  14.844  13.283
13436SOL    HW142147   9.570  14.864  13.207
13436SOL    HW242148   9.437  14.803  13.247
13437SOL     OW42149   1.530   8.050  11.912
13437SOL    HW142150   1.517   8.115  11.843
13437SOL    HW242151   1.462   7.984  11.895
13438SOL     OW42152   8.341  10.393  13.590
13438SOL    HW142153   8.377  10.475  13.556
13438SOL    HW242154   8.376  10.325  13.532
13439SOL     OW42155   6.290  14.342  13.781
13439SOL    HW142156   6.350  14.277  13.745
13439SOL    HW242157   6.279  14.317  13.873
13440SOL     OW42158   7.547  12.220  13.634
13440SOL    HW142159   7.548  12.303  13.682
13440SOL    HW242160   7.640  12.197  13.626
13441SOL     OW42161  10.110   4.909  12.737
13441SOL    HW142162  10.071   4.864  12.662
13441SOL    HW242163  10.048   4.895  12.808
13442SOL     OW42164   3.277   2.104  11.693
13442SOL    HW142165   3.235   2.018  11.704
13442SOL    HW242166   3.370   2.087  11.708
13443SOL     OW42167   9.379   5.544   3.775
13443SOL    HW142168   9.312   5.567   3.841
13443SOL    HW242169   9.333   5.550   3.691
13444SOL     OW42170   4.496   5.625   3.386
13444SOL    HW142171   4.582   5.626   3.428
13444SOL    HW242172   4.456   5.708   3.411
13445SOL     OW42173  14.774  10.045   2.314
13445SOL    HW142174  14.790  10.100   2.237
13445SOL    HW242175  14.836  10.077   2.380
13446SOL     OW42176   8.485   1.546   9.838
13446SOL    HW142177   8.523   1.616   9.785
13446SOL    HW242178   8.559   1.487   9.855
13447SOL     OW42179   2.519   3.067  12.496
13447SOL    HW142180   2.535   3.130  12.567
13447SOL    HW242181   2.591   3.005  12.502
13448SOL     OW42182  10.224   6.729   9.343
13448SOL    HW142183  10.284   6.721   9.417
13448SOL    HW242184  10.167   6.802   9.367
13449SOL     OW42185   8.189  12.537   9.126
13449SOL    HW142186   8.201  12.545   9.032
13449SOL    HW242187   8.267  12.490   9.156
13450SOL     OW42188  12.460   6.114   5.339
13450SOL    HW142189  12.550   6.103   5.369
13450SOL    HW242190  12.466   6.181   5.271
13451SOL     OW42191   4.166  12.965  12.485
13451SOL    HW142192   4.112  12.956  12.564
13451SOL    HW242193   4.233  12.897  12.494
13452SOL     OW42194   0.447  13.229  12.418
13452SOL    HW142195   0.482  13.317  12.405
13452SOL    HW242196   0.477  13.203  12.505
13453SOL     OW42197  10.782   0.892   2.296
13453SOL    HW142198  10.829   0.820   2.339
13453SOL    HW242199  10.732   0.849   2.227
13454SOL     OW42200   5.144   9.604  11.632
13454SOL    HW142201   5.180   9.689  11.608
13454SOL    HW242202   5.196   9.541  11.583
13455SOL     OW42203   7.420   9.427   2.411
13455SOL    HW142204   7.446   9.337   2.429
13455SOL    HW242205   7.499   9.479   2.426
13456SOL     OW42206  11.184   5.981   4.617
13456SOL    HW142207  11.194   5.949   4.706
13456SOL    HW242208  11.136   6.064   4.626
13457SOL     OW42209  11.737   1.580  12.991
13457SOL    HW142210  11.659   1.525  12.983
13457SOL    HW242211  11.714   1.661  12.946
13458SOL     OW42212   9.979   9.399   4.460
13458SOL    HW142213   9.924   9.330   4.423
13458SOL    HW242214  10.063   9.391   4.414
13459SOL     OW42215   9.182  10.382   9.985
13459SOL    HW142216   9.234  10.342   9.916
13459SOL    HW242217   9.101  10.332   9.987
13460SOL     OW42218  10.666  14.033  13.056
13460SOL    HW142219  10.746  13.982  13.071
13460SOL    HW242220  10.654  14.082  13.137
13461SOL     OW42221   3.770  12.920   6.708
13461SOL    HW142222   3.700  12.887   6.652
13461SOL    HW242223   3.798  12.844   6.758
13462SOL     OW42224   8.320  10.160   7.842
13462SOL    HW142225   8.230  10.183   7.869
13462SOL    HW242226   8.367  10.148   7.924
13463SOL     OW42227   7.471   9.027   2.151
13463SOL    HW142228   7.527   8.964   2.195
13463SOL    HW242229   7.441   8.982   2.072
13464SOL     OW42230   4.204   7.913   8.731
13464SOL    HW142231   4.125   7.960   8.758
13464SOL    HW242232   4.269   7.982   8.718
13465SOL     OW42233   2.696   6.541   3.013
13465SOL    HW142234   2.625   6.524   2.951
13465SOL    HW242235   2.737   6.621   2.981
13466SOL     OW42236   2.061   4.074   9.058
13466SOL    HW142237   2.082   4.167   9.050
13466SOL    HW242238   1.968   4.070   9.035
13467SOL     OW42239   2.705   8.395  12.810
13467SOL    HW142240   2.708   8.424  12.901
13467SOL    HW242241   2.753   8.313  12.809
13468SOL     OW42242   1.675   0.940   5.425
13468SOL    HW142243   1.616   1.003   5.468
13468SOL    HW242244   1.703   0.984   5.345
13469SOL     OW42245  11.840   3.271  13.335
13469SOL    HW142246  11.931   3.300  13.336
13469SOL    HW242247  11.830   3.229  13.250
13470SOL     OW42248  10.773  10.583  13.490
13470SOL    HW142249  10.772  10.511  13.553
13470SOL    HW242250  10.865  10.606  13.483
13471SOL     OW42251   3.216  13.144   9.069
13471SOL    HW142252   3.182  13.189   9.147
13471SOL    HW242253   3.154  13.166   9.000
13472SOL     OW42254   5.678   1.324   7.905
13472SOL    HW142255   5.669   1.234   7.873
13472SOL    HW242256   5.621   1.327   7.982
13473SOL     OW42257  11.473   0.803   7.882
13473SOL    HW142258  11.529   0.880   7.889
13473SOL    HW242259  11.534   0.730   7.867
13474SOL     OW42260   5.690   9.257  10.073
13474SOL    HW142261   5.616   9.206  10.106
13474SOL    HW242262   5.656   9.298   9.993
13475SOL     OW42263   8.939   4.064   6.756
13475SOL    HW142264   8.874   4.134   6.767
13475SOL    HW242265   9.004   4.102   6.697
13476SOL     OW42266   4.690   5.655   4.723
13476SOL    HW142267   4.709   5.562   4.711
13476SOL    HW242268   4.599   5.664   4.695
13477SOL     OW42269  14.664   1.059  13.375
13477SOL    HW142270  14.702   1.095  13.295
13477SOL    HW242271  14.713   0.978  13.390
13478SOL     OW42272  12.431   0.305  11.156
13478SOL    HW142273  12.402   0.394  11.178
13478SOL    HW242274  12.486   0.317  11.079
13479SOL     OW42275   8.494   1.860   7.898
13479SOL    HW142276   8.455   1.928   7.844
13479SOL    HW242277   8.419   1.815   7.938
13480SOL     OW42278  10.407   9.303  10.382
13480SOL    HW142279  10.347   9.377  10.369
13480SOL    HW242280  10.374   9.259  10.461
13481SOL     OW42281   6.397  13.342   1.297
13481SOL    HW142282   6.399  13.287   1.376
13481SOL    HW242283   6.395  13.431   1.331
13482SOL     OW42284   9.941   2.630   8.622
13482SOL    HW142285   9.952   2.656   8.713
13482SOL    HW242286   9.939   2.535   8.623
13483SOL     OW42287   0.934  13.945   8.066
13483SOL    HW142288   0.889  14.013   8.116
13483SOL    HW242289   0.955  13.986   7.982
13484SOL     OW42290   9.798   7.013  13.819
13484SOL    HW142291   9.776   6.943  13.881
13484SOL    HW242292   9.798   6.970  13.733
13485SOL     OW42293   5.618  13.890  10.086
13485SOL    HW142294   5.691  13.828  10.096
13485SOL    HW242295   5.610  13.932  10.172
13486SOL     OW42296   2.306   8.875  13.776
13486SOL    HW142297   2.216   8.870  13.807
13486SOL    HW242298   2.359   8.864  13.855
13487SOL     OW42299   8.813  11.856  13.414
13487SOL    HW142300   8.791  11.798  13.341
13487SOL    HW242301   8.848  11.799  13.482
13488SOL     OW42302   0.165   7.007   9.273
13488SOL    HW142303   0.249   7.014   9.320
13488SOL    HW242304   0.121   6.934   9.315
13489SOL     OW42305   6.037  11.785   2.337
13489SOL    HW142306   5.951  11.754   2.310
13489SOL    HW242307   6.018  11.858   2.396
13490SOL     OW42308   9.168   0.700   2.456
13490SOL    HW142309   9.099   0.710   2.390
13490SOL    HW242310   9.124   0.658   2.530
13491SOL     OW42311   6.861   0.120  12.591
13491SOL    HW142312   6.786   0.179  12.602
13491SOL    HW242313   6.934   0.177  12.567
13492SOL     OW42314   8.395   7.306   8.016
13492SOL    HW142315   8.434   7.339   8.097
13492SOL    HW242316   8.361   7.384   7.973
13493SOL     OW42317   6.687  12.422  13.031
13493SOL    HW142318   6.764  12.367  13.016
13493SOL    HW242319   6.694  12.449  13.122
13494SOL     OW42320   0.981  14.077  10.760
13494SOL    HW142321   0.945  14.143  10.819
13494SOL    HW242322   0.970  14.115  10.673
13495SOL     OW42323   0.779   5.660  13.279
13495SOL    HW142324   0.768   5.672  13.374
13495SOL    HW242325   0.703   5.704  13.241
13496SOL     OW42326   3.844   9.144  10.093
13496SOL    HW142327   3.922   9.127  10.146
13496SOL    HW242328   3.820   9.058  10.058
13497SOL     OW42329   3.800   1.596   8.146
13497SOL    HW142330   3.730   1.654   8.119
13497SOL    HW242331   3.760   1.537   8.210
13498SOL     OW42332   9.553  14.227   7.214
13498SOL    HW142333   9.489  14.298   7.202
13498SOL    HW242334   9.502  14.156   7.252
13499SOL     OW42335   9.494   8.671  11.572
13499SOL    HW142336   9.483   8.640  11.662
13499SOL    HW242337   9.408   8.662  11.532
13500SOL     OW42338  12.465   5.781   6.012
13500SOL    HW142339  12.431   5.693   6.031
13500SOL    HW242340  12.447   5.793   5.918
13501SOL     OW42341   5.842   7.887   9.529
13501SOL    HW142342   5.836   7.982   9.513
13501SOL    HW242343   5.764   7.851   9.488
13502SOL     OW42344   3.113   4.589   6.435
13502SOL    HW142345   3.166   4.658   6.395
13502SOL    HW242346   3.122   4.515   6.375
13503SOL     OW42347   0.771   9.271   0.148
13503SOL    HW142348   0.713   9.195   0.138
13503SOL    HW242349   0.859   9.236   0.133
13504SOL     OW42350   4.683  12.398  14.325
13504SOL    HW142351   4.675  12.473  14.267
13504SOL    HW242352   4.676  12.434  14.413
13505SOL     OW42353   1.029   5.714   7.596
13505SOL    HW142354   1.020   5.690   7.504
13505SOL    HW242355   1.117   5.685   7.620
13506SOL     OW42356  10.299   0.546  14.821
13506SOL    HW142357  10.365   0.545   0.016
13506SOL    HW242358  10.347   0.528  14.740
13507SOL     OW42359   0.211   7.175  10.577
13507SOL    HW142360   0.168   7.118  10.514
13507SOL    HW242361   0.279   7.121  10.617
13508SOL     OW42362  11.146   3.552  11.456
13508SOL    HW142363  11.193   3.469  11.460
13508SOL    HW242364  11.195   3.610  11.515
13509SOL     OW42365  13.220   1.909   6.234
13509SOL    HW142366  13.229   1.901   6.329
13509SOL    HW242367  13.266   1.990   6.212
13510SOL     OW42368  10.425   6.384   7.466
13510SOL    HW142369  10.453   6.383   7.558
13510SOL    HW242370  10.463   6.464   7.430
13511SOL     OW42371  12.840   8.562   2.035
13511SOL    HW142372  12.844   8.466   2.036
13511SOL    HW242373  12.751   8.582   2.005
13512SOL     OW42374   4.252   3.106   1.893
13512SOL    HW142375   4.310   3.168   1.937
13512SOL    HW242376   4.164   3.142   1.905
13513SOL     OW42377   2.954  11.401  11.498
13513SOL    HW142378   2.937  11.318  11.542
13513SOL    HW242379   2.929  11.468  11.562
13514SOL     OW42380   6.907   3.357   5.772
13514SOL    HW142381   6.889   3.436   5.720
13514SOL    HW242382   6.833   3.351   5.833
13515SOL     OW42383   2.292   6.910  10.786
13515SOL    HW142384   2.382   6.924  10.815
13515SOL    HW242385   2.247   6.877  10.864
13516SOL     OW42386   1.778   0.595   1.583
13516SOL    HW142387   1.809   0.673   1.538
13516SOL    HW242388   1.683   0.605   1.587
13517SOL     OW42389   5.178   7.644   8.264
13517SOL    HW142390   5.102   7.591   8.238
13517SOL    HW242391   5.251   7.583   8.264
13518SOL     OW42392   0.508   1.590   4.984
13518SOL    HW142393   0.414   1.572   4.992
13518SOL    HW242394   0.522   1.605   4.891
13519SOL     OW42395   3.739   1.118   0.334
13519SOL    HW142396   3.694   1.075   0.406
13519SOL    HW242397   3.688   1.095   0.256
13520SOL     OW42398  13.307   2.227  12.595
13520SOL    HW142399  13.303   2.156  12.660
13520SOL    HW242400  13.396   2.261  12.603
13521SOL     OW42401  12.608   8.583   8.184
13521SOL    HW142402  12.603   8.658   8.125
13521SOL    HW242403  12.605   8.507   8.126
13522SOL     OW42404   8.440   2.595  10.787
13522SOL    HW142405   8.435   2.688  10.766
13522SOL    HW242406   8.349   2.570  10.804
13523SOL     OW42407   2.480  11.477   1.453
13523SOL    HW142408   2.492  11.533   1.376
13523SOL    HW242409   2.387  11.453   1.451
13524SOL     OW42410   3.386   7.845   0.814
13524SOL    HW142411   3.463   7.892   0.780
13524SOL    HW242412   3.328   7.836   0.739
13525SOL     OW42413   3.685  10.296   5.335
13525SOL    HW142414   3.769  10.328   5.300
13525SOL    HW242415   3.670  10.213   5.290
13526SOL     OW42416   6.324   6.222   3.871
13526SOL    HW142417   6.333   6.289   3.938
13526SOL    HW242418   6.248   6.170   3.898
13527SOL     OW42419   1.775  13.457   6.635
13527SOL    HW142420   1.800  13.370   6.666
13527SOL    HW242421   1.859  13.504   6.626
13528SOL     OW42422   7.816   9.891   3.489
13528SOL    HW142423   7.866   9.830   3.544
13528SOL    HW242424   7.809   9.970   3.542
13529SOL     OW42425   8.918   4.224  12.429
13529SOL    HW142426   8.906   4.129  12.433
13529SOL    HW242427   8.998   4.236  12.379
13530SOL     OW42428   0.089   3.706   5.871
13530SOL    HW142429   0.044   3.752   5.941
13530SOL    HW242430   0.040   3.624   5.861
13531SOL     OW42431  12.358   4.705  14.648
13531SOL    HW142432  12.394   4.794  14.648
13531SOL    HW242433  12.265   4.717  14.628
13532SOL     OW42434   5.247   8.278   8.264
13532SOL    HW142435   5.263   8.372   8.261
13532SOL    HW242436   5.251   8.250   8.173
13533SOL     OW42437   9.737  12.927  13.381
13533SOL    HW142438   9.684  12.861  13.425
13533SOL    HW242439   9.819  12.929  13.430
13534SOL     OW42440   9.318   8.855   7.617
13534SOL    HW142441   9.380   8.896   7.557
13534SOL    HW242442   9.232   8.874   7.579
13535SOL     OW42443  10.115   3.680   7.080
13535SOL    HW142444  10.183   3.657   7.016
13535SOL    HW242445  10.129   3.619   7.153
13536SOL     OW42446   0.708   6.309   6.114
13536SOL    HW142447   0.720   6.267   6.199
13536SOL    HW242448   0.724   6.402   6.130
13537SOL     OW42449  14.438   5.503  10.291
13537SOL    HW142450  14.405   5.592  10.301
13537SOL    HW242451  14.370   5.458  10.240
13538SOL     OW42452   4.302   4.303   3.948
13538SOL    HW142453   4.381   4.332   3.992
13538SOL    HW242454   4.333   4.246   3.878
13539SOL     OW42455   2.871   0.328   5.132
13539SOL    HW142456   2.820   0.276   5.071
13539SOL    HW242457   2.899   0.404   5.081
13540SOL     OW42458   4.669  14.535   1.174
13540SOL    HW142459   4.745  14.550   1.117
13540SOL    HW242460   4.705  14.525   1.262
13541SOL     OW42461  13.859  13.572  12.668
13541SOL    HW142462  13.832  13.614  12.750
13541SOL    HW242463  13.930  13.627  12.635
13542SOL     OW42464   0.963   9.929   3.952
13542SOL    HW142465   0.934  10.020   3.942
13542SOL    HW242466   1.052   9.929   3.916
13543SOL     OW42467   1.194   0.762   4.005
13543SOL    HW142468   1.202   0.710   3.924
13543SOL    HW242469   1.101   0.759   4.026
13544SOL     OW42470   7.146   3.993  10.768
13544SOL    HW142471   7.202   3.984  10.845
13544SOL    HW242472   7.058   3.974  10.799
13545SOL     OW42473   0.989  10.299   7.023
13545SOL    HW142474   0.972  10.343   7.106
13545SOL    HW242475   1.066  10.344   6.987
13546SOL     OW42476   5.204   4.725   2.192
13546SOL    HW142477   5.128   4.687   2.236
13546SOL    HW242478   5.182   4.818   2.184
13547SOL     OW42479   1.512  10.601   2.423
13547SOL    HW142480   1.606  10.610   2.415
13547SOL    HW242481   1.492  10.631   2.512
13548SOL     OW42482   4.212   8.009   0.671
13548SOL    HW142483   4.249   8.015   0.583
13548SOL    HW242484   4.160   8.089   0.680
13549SOL     OW42485  13.106   5.973   3.496
13549SOL    HW142486  13.195   5.974   3.462
13549SOL    HW242487  13.116   5.973   3.592
13550SOL     OW42488   8.634   9.934   4.143
13550SOL    HW142489   8.551   9.931   4.190
13550SOL    HW242490   8.611   9.962   4.055
13551SOL     OW42491  10.583   3.912   2.059
13551SOL    HW142492  10.521   3.982   2.036
13551SOL    HW242493  10.600   3.925   2.152
13552SOL     OW42494  12.719   1.616   4.789
13552SOL    HW142495  12.692   1.645   4.876
13552SOL    HW242496  12.787   1.678   4.763
13553SOL     OW42497   4.918   5.343  13.625
13553SOL    HW142498   4.909   5.302  13.539
13553SOL    HW242499   4.939   5.435  13.605
13554SOL     OW42500   9.814   9.761   8.687
13554SOL    HW142501   9.890   9.721   8.730
13554SOL    HW242502   9.846   9.786   8.601
13555SOL     OW42503   4.577   9.529  14.068
13555SOL    HW142504   4.556   9.549  14.159
13555SOL    HW242505   4.543   9.441  14.053
13556SOL     OW42506   5.713   3.967   7.615
13556SOL    HW142507   5.725   4.047   7.667
13556SOL    HW242508   5.694   3.899   7.680
13557SOL     OW42509  12.695   4.123   8.405
13557SOL    HW142510  12.703   4.042   8.354
13557SOL    HW242511  12.686   4.093   8.495
13558SOL     OW42512   6.345  13.600   6.773
13558SOL    HW142513   6.249  13.601   6.771
13558SOL    HW242514   6.367  13.577   6.863
13559SOL     OW42515  12.420   9.011   0.265
13559SOL    HW142516  12.362   8.946   0.306
13559SOL    HW242517  12.376   9.094   0.278
13560SOL     OW42518   6.428   5.871   0.474
13560SOL    HW142519   6.498   5.936   0.469
13560SOL    HW242520   6.347   5.922   0.467
13561SOL     OW42521   4.619   5.998   8.106
13561SOL    HW142522   4.525   5.986   8.106
13561SOL    HW242523   4.654   5.918   8.146
13562SOL     OW42524   9.852   0.301   1.973
13562SOL    HW142525   9.781   0.363   1.991
13562SOL    HW242526   9.884   0.276   2.060
13563SOL     OW42527   0.305   3.630   0.035
13563SOL    HW142528   0.287   3.679  14.829
13563SOL    HW242529   0.247   3.669   0.100
13564SOL     OW42530   3.308  14.517   8.436
13564SOL    HW142531   3.242  14.448   8.429
13564SOL    HW242532   3.388  14.478   8.400
13565SOL     OW42533  13.741  12.569   6.232
13565SOL    HW142534  13.714  12.627   6.162
13565SOL    HW242535  13.757  12.627   6.307
13566SOL     OW42536   4.616   1.835  12.794
13566SOL    HW142537   4.587   1.747  12.769
13566SOL    HW242538   4.711   1.830  12.796
13567SOL     OW42539  10.454   2.432   6.815
13567SOL    HW142540  10.494   2.472   6.892
13567SOL    HW242541  10.426   2.505   6.761
13568SOL     OW42542   4.614   4.399   8.374
13568SOL    HW142543   4.520   4.418   8.374
13568SOL    HW242544   4.647   4.441   8.295
13569SOL     OW42545  13.360   9.046   8.831
13569SOL    HW142546  13.343   9.130   8.789
13569SOL    HW242547  13.412   9.068   8.908
13570SOL     OW42548   7.679   5.884   2.881
13570SOL    HW142549   7.701   5.972   2.850
13570SOL    HW242550   7.622   5.849   2.814
13571SOL     OW42551   8.584   0.908   9.184
13571SOL    HW142552   8.503   0.871   9.220
13571SOL    HW242553   8.555   0.983   9.132
13572SOL     OW42554   9.259   9.708   8.707
13572SOL    HW142555   9.320   9.751   8.768
13572SOL    HW242556   9.314   9.677   8.636
13573SOL     OW42557   5.028  11.728  13.111
13573SOL    HW142558   5.058  11.799  13.168
13573SOL    HW242559   5.060  11.751  13.024
13574SOL     OW42560   6.221  13.924   9.320
13574SOL    HW142561   6.261  13.910   9.234
13574SOL    HW242562   6.274  13.872   9.380
13575SOL     OW42563  11.635  13.434   4.397
13575SOL    HW142564  11.692  13.377   4.448
13575SOL    HW242565  11.596  13.376   4.331
13576SOL     OW42566  11.131   1.553   5.320
13576SOL    HW142567  11.201   1.617   5.331
13576SOL    HW242568  11.176   1.469   5.311
13577SOL     OW42569   2.484  12.188  11.283
13577SOL    HW142570   2.539  12.111  11.286
13577SOL    HW242571   2.545  12.261  11.269
13578SOL     OW42572   7.854   8.296  14.647
13578SOL    HW142573   7.793   8.263  14.580
13578SOL    HW242574   7.879   8.217  14.696
13579SOL     OW42575  14.145  14.349  11.823
13579SOL    HW142576  14.168  14.438  11.848
13579SOL    HW242577  14.128  14.305  11.907
13580SOL     OW42578   1.263   9.702   1.677
13580SOL    HW142579   1.267   9.621   1.626
13580SOL    HW242580   1.332   9.692   1.743
13581SOL     OW42581   5.246  10.215   5.483
13581SOL    HW142582   5.324  10.212   5.539
13581SOL    HW242583   5.280  10.199   5.395
13582SOL     OW42584   5.445   9.453   8.057
13582SOL    HW142585   5.451   9.484   7.967
13582SOL    HW242586   5.442   9.532   8.110
13583SOL     OW42587   6.399   2.424   7.221
13583SOL    HW142588   6.491   2.452   7.214
13583SOL    HW242589   6.370   2.415   7.130
13584SOL     OW42590   3.164   8.099  11.090
13584SOL    HW142591   3.216   8.174  11.117
13584SOL    HW242592   3.223   8.047  11.035
13585SOL     OW42593   0.079  13.571   4.450
13585SOL    HW142594   0.005  13.563   4.389
13585SOL    HW242595   0.142  13.625   4.403
13586SOL     OW42596   5.970  12.100  11.226
13586SOL    HW142597   6.023  12.104  11.147
13586SOL    HW242598   6.030  12.068  11.293
13587SOL     OW42599   5.929  12.866   1.081
13587SOL    HW142600   5.958  12.905   0.998
13587SOL    HW242601   6.007  12.821   1.114
13588SOL     OW42602   6.078   4.483   7.031
13588SOL    HW142603   6.137   4.414   6.998
13588SOL    HW242604   5.995   4.439   7.045
13589SOL     OW42605   4.108  11.725   3.234
13589SOL    HW142606   4.039  11.702   3.296
13589SOL    HW242607   4.160  11.791   3.280
13590SOL     OW42608   0.050   9.263  14.238
13590SOL    HW142609  14.836   9.225  14.246
13590SOL    HW242610   0.087   9.224  14.159
13591SOL     OW42611  10.495   8.508   6.749
13591SOL    HW142612  10.474   8.601   6.740
13591SOL    HW242613  10.410   8.464   6.747
13592SOL     OW42614   6.015  11.914   8.564
13592SOL    HW142615   5.970  11.997   8.577
13592SOL    HW242616   6.035  11.912   8.471
13593SOL     OW42617  11.916   4.461   3.450
13593SOL    HW142618  11.942   4.448   3.541
13593SOL    HW242619  11.939   4.378   3.407
13594SOL     OW42620   3.514   4.762   6.484
13594SOL    HW142621   3.470   4.824   6.542
13594SOL    HW242622   3.454   4.753   6.410
13595SOL     OW42623  10.506   6.192   3.333
13595SOL    HW142624  10.579   6.155   3.383
13595SOL    HW242625  10.431   6.136   3.354
13596SOL     OW42626   7.779   3.477   0.322
13596SOL    HW142627   7.850   3.417   0.298
13596SOL    HW242628   7.714   3.420   0.363
13597SOL     OW42629  11.299  10.983   0.297
13597SOL    HW142630  11.217  10.974   0.249
13597SOL    HW242631  11.362  10.932   0.247
13598SOL     OW42632   6.324   1.546   0.732
13598SOL    HW142633   6.376   1.611   0.778
13598SOL    HW242634   6.259   1.597   0.684
13599SOL     OW42635   9.536   6.656   3.357
13599SOL    HW142636   9.476   6.729   3.343
13599SOL    HW242637   9.480   6.579   3.356
13600SOL     OW42638   1.450   1.320   7.568
13600SOL    HW142639   1.514   1.249   7.567
13600SOL    HW242640   1.395   1.304   7.491
13601SOL     OW42641  11.185   9.151   1.481
13601SOL    HW142642  11.224   9.238   1.469
13601SOL    HW242643  11.183   9.139   1.576
13602SOL     OW42644   1.370   8.401   6.842
13602SOL    HW142645   1.331   8.479   6.881
13602SOL    HW242646   1.423   8.363   6.911
13603SOL     OW42647   1.602   0.081   4.456
13603SOL    HW142648   1.575  14.865   4.474
13603SOL    HW242649   1.686   0.071   4.411
13604SOL     OW42650   4.015  10.748  11.904
13604SOL    HW142651   3.960  10.777  11.976
13604SOL    HW242652   4.086  10.698  11.945
13605SOL     OW42653   1.014   9.499   9.876
13605SOL    HW142654   0.998   9.453   9.794
13605SOL    HW242655   0.934   9.550   9.891
13606SOL     OW42656   8.569  10.321   9.540
13606SOL    HW142657   8.619  10.245   9.511
13606SOL    HW242658   8.487  10.284   9.574
13607SOL     OW42659  13.407   7.214  10.515
13607SOL    HW142660  13.404   7.249  10.426
13607SOL    HW242661  13.464   7.274  10.563
13608SOL     OW42662  14.043   5.304  13.954
13608SOL    HW142663  14.065   5.251  14.030
13608SOL    HW242664  13.950   5.321  13.962
13609SOL     OW42665  10.309   6.732   6.189
13609SOL    HW142666  10.215   6.741   6.174
13609SOL    HW242667  10.316   6.665   6.257
13610SOL     OW42668  14.571   1.474   4.488
13610SOL    HW142669  14.635   1.501   4.423
13610SOL    HW242670  14.614   1.404   4.537
13611SOL     OW42671   2.592   9.752   3.292
13611SOL    HW142672   2.623   9.786   3.207
13611SOL    HW242673   2.503   9.785   3.300
13612SOL     OW42674   2.251  14.057   1.363
13612SOL    HW142675   2.242  14.151   1.345
13612SOL    HW242676   2.345  14.043   1.373
13613SOL     OW42677  14.012  14.724   9.887
13613SOL    HW142678  14.097  14.681   9.882
13613SOL    HW242679  13.981  14.726   9.796
13614SOL     OW42680   1.449   9.148  11.536
13614SOL    HW142681   1.457   9.215  11.468
13614SOL    HW242682   1.540   9.122  11.554
13615SOL     OW42683   3.842   5.479   0.736
13615SOL    HW142684   3.800   5.556   0.773
13615SOL    HW242685   3.900   5.447   0.805
13616SOL     OW42686   5.554  10.820   8.354
13616SOL    HW142687   5.492  10.797   8.286
13616SOL    HW242688   5.640  10.800   8.317
13617SOL     OW42689  12.557   7.035   7.384
13617SOL    HW142690  12.621   7.070   7.324
13617SOL    HW242691  12.595   6.952   7.415
13618SOL     OW42692  12.468   6.698   7.146
13618SOL    HW142693  12.433   6.647   7.073
13618SOL    HW242694  12.543   6.647   7.177
13619SOL     OW42695  14.381   5.365   2.767
13619SOL    HW142696  14.372   5.369   2.862
13619SOL    HW242697  14.314   5.302   2.739
13620SOL     OW42698   3.821   9.891   4.017
13620SOL    HW142699   3.863   9.956   4.075
13620SOL    HW242700   3.775   9.943   3.951
13621SOL     OW42701   7.020   2.175  13.585
13621SOL    HW142702   6.968   2.125  13.648
13621SOL    HW242703   7.079   2.110  13.546
13622SOL     OW42704   3.451  12.481  11.312
13622SOL    HW142705   3.452  12.487  11.216
13622SOL    HW242706   3.358  12.477  11.335
13623SOL     OW42707   1.230   1.304   7.231
13623SOL    HW142708   1.156   1.263   7.275
13623SOL    HW242709   1.305   1.247   7.251
13624SOL     OW42710   9.106  13.654   8.323
13624SOL    HW142711   9.045  13.663   8.396
13624SOL    HW242712   9.101  13.562   8.298
13625SOL     OW42713   2.385  12.682  10.178
13625SOL    HW142714   2.465  12.731  10.161
13625SOL    HW242715   2.369  12.694  10.272
13626SOL     OW42716   0.555   3.892   6.717
13626SOL    HW142717   0.555   3.850   6.803
13626SOL    HW242718   0.630   3.852   6.672
13627SOL     OW42719   0.517   4.243   0.021
13627SOL    HW142720   0.602   4.286   0.008
13627SOL    HW242721   0.537   4.150   0.012
13628SOL     OW42722   6.034  14.022   6.323
13628SOL    HW142723   5.970  14.033   6.393
13628SOL    HW242724   6.023  14.100   6.267
13629SOL     OW42725  11.310   3.780  14.452
13629SOL    HW142726  11.316   3.871  14.423
13629SOL    HW242727  11.275   3.732  14.376
13630SOL     OW42728  13.845   2.266   8.779
13630SOL    HW142729  13.792   2.186   8.783
13630SOL    HW242730  13.896   2.264   8.860
13631SOL     OW42731   8.818   9.403   2.844
13631SOL    HW142732   8.866   9.485   2.847
13631SOL    HW242733   8.799   9.389   2.752
13632SOL     OW42734   9.626  11.294  10.291
13632SOL    HW142735   9.657  11.222  10.345
13632SOL    HW242736   9.646  11.372  10.343
13633SOL     OW42737   6.947   2.318   8.609
13633SOL    HW142738   6.916   2.307   8.519
13633SOL    HW242739   7.041   2.303   8.604
13634SOL     OW42740   0.481   8.964   7.700
13634SOL    HW142741   0.440   9.049   7.713
13634SOL    HW242742   0.575   8.982   7.701
13635SOL     OW42743   6.279  11.881   2.147
13635SOL    HW142744   6.249  11.796   2.177
13635SOL    HW242745   6.306  11.866   2.056
13636SOL     OW42746   2.208   8.044   7.904
13636SOL    HW142747   2.171   8.056   7.817
13636SOL    HW242748   2.242   7.955   7.905
13637SOL     OW42749  12.581   3.585   6.127
13637SOL    HW142750  12.538   3.668   6.104
13637SOL    HW242751  12.659   3.583   6.071
13638SOL     OW42752   8.598   8.674  12.593
13638SOL    HW142753   8.676   8.670  12.649
13638SOL    HW242754   8.593   8.587  12.554
13639SOL     OW42755   0.569   3.475   6.631
13639SOL    HW142756   0.611   3.549   6.588
13639SOL    HW242757   0.615   3.398   6.597
13640SOL     OW42758   3.841   4.955   4.101
13640SOL    HW142759   3.807   5.008   4.174
13640SOL    HW242760   3.815   4.865   4.124
13641SOL     OW42761   1.430   9.426   6.811
13641SOL    HW142762   1.446   9.520   6.801
13641SOL    HW242763   1.478   9.386   6.738
13642SOL     OW42764   0.052   3.198   1.914
13642SOL    HW142765  14.858   3.147   1.957
13642SOL    HW242766   0.051   3.282   1.960
13643SOL     OW42767   3.376  13.001  13.079
13643SOL    HW142768   3.355  12.919  13.034
13643SOL    HW242769   3.431  13.049  13.017
13644SOL     OW42770   2.484  13.078  10.818
13644SOL    HW142771   2.443  13.164  10.817
13644SOL    HW242772   2.578  13.096  10.821
13645SOL     OW42773   2.787   4.983   8.486
13645SOL    HW142774   2.692   4.978   8.496
13645SOL    HW242775   2.802   4.966   8.393
13646SOL     OW42776   0.635   4.058  11.708
13646SOL    HW142777   0.651   3.972  11.748
13646SOL    HW242778   0.718   4.080  11.665
13647SOL     OW42779  13.284   2.679   9.602
13647SOL    HW142780  13.316   2.770   9.604
13647SOL    HW242781  13.325   2.641   9.524
13648SOL     OW42782   1.475   4.800  13.704
13648SOL    HW142783   1.543   4.827  13.642
13648SOL    HW242784   1.500   4.842  13.787
13649SOL     OW42785   5.112   4.143   4.176
13649SOL    HW142786   5.112   4.227   4.221
13649SOL    HW242787   5.037   4.148   4.117
13650SOL     OW42788   6.752  12.569   5.858
13650SOL    HW142789   6.694  12.628   5.906
13650SOL    HW242790   6.812  12.534   5.924
13651SOL     OW42791   0.703  13.202   6.724
13651SOL    HW142792   0.679  13.244   6.642
13651SOL    HW242793   0.660  13.255   6.791
13652SOL     OW42794   4.484  10.667   9.223
13652SOL    HW142795   4.455  10.576   9.232
13652SOL    HW242796   4.408  10.712   9.187
13653SOL     OW42797   8.559   1.500   8.954
13653SOL    HW142798   8.590   1.431   8.896
13653SOL    HW242799   8.549   1.458   9.039
13654SOL     OW42800  12.577   7.044  11.473
13654SOL    HW142801  12.487   7.032  11.442
13654SOL    HW242802  12.567   7.073  11.563
13655SOL     OW42803   0.430   3.312   1.182
13655SOL    HW142804   0.410   3.309   1.275
13655SOL    HW242805   0.488   3.238   1.167
13656SOL     OW42806   9.088   9.906  12.109
13656SOL    HW142807   9.124   9.965  12.174
13656SOL    HW242808   9.016   9.955  12.069
13657SOL     OW42809   0.203   5.341  13.605
13657SOL    HW142810   0.265   5.306  13.669
13657SOL    HW242811   0.135   5.382  13.658
13658SOL     OW42812   1.639   3.066  10.851
13658SOL    HW142813   1.691   2.986  10.851
13658SOL    HW242814   1.702   3.135  10.870
13659SOL     OW42815  12.475  14.563   5.791
13659SOL    HW142816  12.381  14.573   5.776
13659SOL    HW242817  12.517  14.603   5.715
13660SOL     OW42818   3.143  13.762   3.190
13660SOL    HW142819   3.186  13.681   3.217
13660SOL    HW242820   3.129  13.752   3.096
13661SOL     OW42821   0.788  13.851   0.397
13661SOL    HW142822   0.851  13.781   0.380
13661SOL    HW242823   0.708  13.823   0.354
13662SOL     OW42824   5.988   4.425   1.230
13662SOL    HW142825   5.919   4.471   1.183
13662SOL    HW242826   5.971   4.443   1.322
13663SOL     OW42827   8.179   3.200   1.622
13663SOL    HW142828   8.180   3.107   1.643
13663SOL    HW242829   8.230   3.207   1.541
13664SOL     OW42830  11.000   9.402   9.151
13664SOL    HW142831  10.997   9.417   9.246
13664SOL    HW242832  11.091   9.380   9.133
13665SOL     OW42833   1.171   2.897  10.347
13665SOL    HW142834   1.239   2.846  10.304
13665SOL    HW242835   1.125   2.941  10.275
13666SOL     OW42836  13.776  14.767   6.629
13666SOL    HW142837  13.690  14.775   6.587
13666SOL    HW242838  13.759  14.716   6.708
13667SOL     OW42839   3.048   5.915   4.214
13667SOL    HW142840   2.976   5.917   4.277
13667SOL    HW242841   3.027   5.842   4.156
13668SOL     OW42842   4.030   7.722   0.629
13668SOL    HW142843   4.083   7.743   0.552
13668SOL    HW242844   3.973   7.798   0.640
13669SOL     OW42845  10.189   9.335   5.555
13669SOL    HW142846  10.233   9.365   5.634
13669SOL    HW242847  10.222   9.394   5.486
13670SOL     OW42848  14.201   8.138   6.851
13670SOL    HW142849  14.172   8.226   6.827
13670SOL    HW242850  14.134   8.080   6.816
13671SOL     OW42851  14.731   0.259  11.323
13671SOL    HW142852  14.674   0.191  11.286
13671SOL    HW242853  14.809   0.211  11.352
13672SOL     OW42854   2.779   9.155   1.837
13672SOL    HW142855   2.794   9.125   1.926
13672SOL    HW242856   2.827   9.238   1.831
13673SOL     OW42857   2.405   5.877  10.359
13673SOL    HW142858   2.488   5.922  10.343
13673SOL    HW242859   2.351   5.941  10.406
13674SOL     OW42860   5.858  12.276  14.199
13674SOL    HW142861   5.853  12.303  14.108
13674SOL    HW242862   5.785  12.321  14.242
13675SOL     OW42863   7.881   1.676   3.594
13675SOL    HW142864   7.936   1.654   3.519
13675SOL    HW242865   7.927   1.638   3.669
13676SOL     OW42866  10.113   3.152  12.978
13676SOL    HW142867  10.185   3.212  12.998
13676SOL    HW242868  10.111   3.148  12.883
13677SOL     OW42869   6.956   3.070   5.396
13677SOL    HW142870   6.904   3.109   5.467
13677SOL    HW242871   6.953   3.135   5.326
13678SOL     OW42872   6.563  14.503   4.402
13678SOL    HW142873   6.536  14.429   4.457
13678SOL    HW242874   6.655  14.516   4.423
13679SOL     OW42875   6.716   7.790   7.770
13679SOL    HW142876   6.738   7.787   7.676
13679SOL    HW242877   6.773   7.858   7.805
13680SOL     OW42878   4.790   3.148   1.671
13680SOL    HW142879   4.882   3.122   1.673
13680SOL    HW242880   4.792   3.243   1.687
13681SOL     OW42881   9.429  14.579   7.891
13681SOL    HW142882   9.447  14.673   7.895
13681SOL    HW242883   9.486  14.541   7.958
13682SOL     OW42884   0.681   1.848   0.221
13682SOL    HW142885   0.776   1.837   0.219
13682SOL    HW242886   0.665   1.899   0.300
13683SOL     OW42887  13.319   7.030  11.576
13683SOL    HW142888  13.304   6.990  11.490
13683SOL    HW242889  13.281   6.967  11.638
13684SOL     OW42890   7.939   8.516  10.698
13684SOL    HW142891   7.924   8.425  10.723
13684SOL    HW242892   7.878   8.566  10.752
13685SOL     OW42893   0.237   9.018   0.544
13685SOL    HW142894   0.305   8.973   0.494
13685SOL    HW242895   0.218   9.097   0.493
13686SOL     OW42896   8.172  14.049   4.497
13686SOL    HW142897   8.171  14.143   4.482
13686SOL    HW242898   8.207  14.039   4.586
13687SOL     OW42899   4.837   3.755   2.935
13687SOL    HW142900   4.790   3.774   2.854
13687SOL    HW242901   4.930   3.756   2.910
13688SOL     OW42902   7.365  12.529  12.939
13688SOL    HW142903   7.302  12.562  12.875
13688SOL    HW242904   7.355  12.585  13.015
13689SOL     OW42905   1.682   3.336   6.018
13689SOL    HW142906   1.676   3.303   5.928
13689SOL    HW242907   1.603   3.303   6.061
13690SOL     OW42908   7.956   8.090  13.648
13690SOL    HW142909   8.019   8.121  13.713
13690SOL    HW242910   7.879   8.146  13.660
13691SOL     OW42911   7.977   0.656   2.845
13691SOL    HW142912   7.965   0.581   2.787
13691SOL    HW242913   7.960   0.621   2.933
13692SOL     OW42914   9.716   9.075   3.944
13692SOL    HW142915   9.667   8.993   3.939
13692SOL    HW242916   9.777   9.071   3.870
13693SOL     OW42917  14.748   0.515   6.436
13693SOL    HW142918  14.722   0.584   6.497
13693SOL    HW242919  14.736   0.434   6.484
13694SOL     OW42920  13.210   9.474  12.736
13694SOL    HW142921  13.211   9.493  12.830
13694SOL    HW242922  13.290   9.424  12.721
13695SOL     OW42923  10.817   6.049   8.258
13695SOL    HW142924  10.848   5.984   8.321
13695SOL    HW242925  10.844   6.133   8.295
13696SOL     OW42926  14.213   7.815   0.318
13696SOL    HW142927  14.221   7.761   0.240
13696SOL    HW242928  14.266   7.770   0.384
13697SOL     OW42929   2.620   4.122   4.515
13697SOL    HW142930   2.542   4.145   4.466
13697SOL    HW242931   2.588   4.105   4.604
13698SOL     OW42932   0.212  11.802  10.842
13698SOL    HW142933   0.125  11.792  10.881
13698SOL    HW242934   0.200  11.863  10.770
13699SOL     OW42935   0.608   1.557   0.531
13699SOL    HW142936   0.513   1.548   0.532
13699SOL    HW242937   0.627   1.616   0.604
13700SOL     OW42938  10.175  14.839  10.106
13700SOL    HW142939  10.175  14.744  10.093
13700SOL    HW242940  10.159  14.850  10.200
13701SOL     OW42941  12.130  10.295   8.681
13701SOL    HW142942  12.111  10.281   8.588
13701SOL    HW242943  12.170  10.212   8.710
13702SOL     OW42944  12.313   4.241   7.830
13702SOL    HW142945  12.311   4.299   7.906
13702SOL    HW242946  12.403   4.245   7.798
13703SOL     OW42947  12.746   8.293  12.124
13703SOL    HW142948  12.664   8.245  12.130
13703SOL    HW242949  12.803   8.238  12.071
13704SOL     OW42950   2.316   5.983   7.228
13704SOL    HW142951   2.396   6.002   7.277
13704SOL    HW242952   2.262   5.930   7.288
13705SOL     OW42953   9.335   7.868   9.569
13705SOL    HW142954   9.260   7.902   9.520
13705SOL    HW242955   9.405   7.932   9.554
13706SOL     OW42956   2.606   6.896   6.996
13706SOL    HW142957   2.688   6.931   6.962
13706SOL    HW242958   2.621   6.801   7.002
13707SOL     OW42959   2.749   3.740  10.554
13707SOL    HW142960   2.682   3.796  10.515
13707SOL    HW242961   2.814   3.728  10.485
13708SOL     OW42962   7.844   2.262   0.599
13708SOL    HW142963   7.905   2.275   0.527
13708SOL    HW242964   7.877   2.318   0.670
13709SOL     OW42965  12.638   6.461  14.050
13709SOL    HW142966  12.603   6.533  14.103
13709SOL    HW242967  12.560   6.411  14.024
13710SOL     OW42968   0.383   9.963   0.095
13710SOL    HW142969   0.417  10.029   0.155
13710SOL    HW242970   0.288   9.970   0.103
13711SOL     OW42971   3.381   6.906  14.437
13711SOL    HW142972   3.339   6.978  14.485
13711SOL    HW242973   3.395   6.942  14.349
13712SOL     OW42974   3.343   2.248   2.366
13712SOL    HW142975   3.398   2.274   2.292
13712SOL    HW242976   3.305   2.330   2.398
13713SOL     OW42977   9.718   5.119   6.530
13713SOL    HW142978   9.768   5.185   6.579
13713SOL    HW242979   9.766   5.038   6.546
13714SOL     OW42980  10.226   0.472  13.301
13714SOL    HW142981  10.308   0.438  13.338
13714SOL    HW242982  10.157   0.426  13.349
13715SOL     OW42983   8.324   5.420   8.147
13715SOL    HW142984   8.278   5.367   8.212
13715SOL    HW242985   8.351   5.498   8.194
13716SOL     OW42986  10.207  14.575  14.524
13716SOL    HW142987  10.287  14.523  14.536
13716SOL    HW242988  10.136  14.510  14.523
13717SOL     OW42989  14.717  12.515   7.138
13717SOL    HW142990  14.679  12.600   7.162
13717SOL    HW242991  14.711  12.463   7.218
13718SOL     OW42992   4.650   0.332   3.312
13718SOL    HW142993   4.738   0.349   3.345
13718SOL    HW242994   4.648   0.372   3.225
13719SOL     OW42995   1.512   6.148   6.642
13719SOL    HW142996   1.493   6.168   6.550
13719SOL    HW242997   1.530   6.233   6.682
13720SOL     OW42998   2.144   8.082  11.720
13720SOL    HW142999   2.190   8.112  11.641
13720SOL    HW243000   2.065   8.041  11.687
13721SOL     OW43001   8.530   9.920   0.651
13721SOL    HW143002   8.471   9.994   0.634
13721SOL    HW243003   8.475   9.843   0.641
13722SOL     OW43004   4.875   9.613   2.290
13722SOL    HW143005   4.848   9.677   2.225
13722SOL    HW243006   4.898   9.665   2.367
13723SOL     OW43007  10.452   4.249   6.526
13723SOL    HW143008  10.437   4.155   6.517
13723SOL    HW243009  10.489   4.259   6.614
13724SOL     OW43010  12.138   7.011   2.919
13724SOL    HW143011  12.067   6.988   2.979
13724SOL    HW243012  12.121   7.102   2.896
13725SOL     OW43013   8.535  12.624  10.570
13725SOL    HW143014   8.513  12.688  10.638
13725SOL    HW243015   8.600  12.568  10.612
13726SOL     OW43016  12.018  12.818   0.075
13726SOL    HW143017  12.035  12.728   0.103
13726SOL    HW243018  12.029  12.816  14.854
13727SOL     OW43019  11.467  10.436   0.089
13727SOL    HW143020  11.407  10.477   0.027
13727SOL    HW243021  11.424  10.354   0.114
13728SOL     OW43022   8.198  13.813  14.404
13728SOL    HW143023   8.209  13.751  14.476
13728SOL    HW243024   8.288  13.833  14.376
13729SOL     OW43025   4.575   4.992  14.773
13729SOL    HW143026   4.507   5.045  14.814
13729SOL    HW243027   4.559   4.903  14.805
13730SOL     OW43028  13.322   1.611  14.023
13730SOL    HW143029  13.237   1.598  13.981
13730SOL    HW243030  13.323   1.545  14.093
13731SOL     OW43031  10.450   3.616  10.886
13731SOL    HW143032  10.424   3.628  10.794
13731SOL    HW243033  10.466   3.522  10.894
13732SOL     OW43034   9.481   7.296   2.216
13732SOL    HW143035   9.562   7.267   2.173
13732SOL    HW243036   9.509   7.369   2.272
13733SOL     OW43037  14.131   0.291  11.380
13733SOL    HW143038  14.159   0.351  11.450
13733SOL    HW243039  14.108   0.210  11.425
13734SOL     OW43040   1.654   9.226  12.187
13734SOL    HW143041   1.598   9.209  12.263
13734SOL    HW243042   1.645   9.147  12.133
13735SOL     OW43043   5.065   0.435  13.513
13735SOL    HW143044   4.969   0.435  13.516
13735SOL    HW243045   5.086   0.441  13.420
13736SOL     OW43046  10.742  14.514   1.295
13736SOL    HW143047  10.659  14.525   1.248
13736SOL    HW243048  10.778  14.602   1.302
13737SOL     OW43049   0.899  10.595  12.829
13737SOL    HW143050   0.832  10.644  12.781
13737SOL    HW243051   0.880  10.612  12.921
13738SOL     OW43052   5.970  11.887   5.323
13738SOL    HW143053   6.048  11.938   5.304
13738SOL    HW243054   6.003  11.803   5.354
13739SOL     OW43055  14.489   0.182   0.133
13739SOL    HW143056  14.403   0.214   0.106
13739SOL    HW243057  14.490   0.090   0.105
13740SOL     OW43058  10.479   3.529  11.888
13740SOL    HW143059  10.417   3.551  11.819
13740SOL    HW243060  10.432   3.468  11.945
13741SOL     OW43061  10.258   1.285  13.964
13741SOL    HW143062  10.196   1.298  13.893
13741SOL    HW243063  10.204   1.274  14.042
13742SOL     OW43064   4.111   2.204  12.505
13742SOL    HW143065   4.026   2.170  12.534
13742SOL    HW243066   4.170   2.187  12.578
13743SOL     OW43067   7.294   3.315   1.197
13743SOL    HW143068   7.311   3.295   1.105
13743SOL    HW243069   7.231   3.248   1.225
13744SOL     OW43070  14.322  14.338   2.919
13744SOL    HW143071  14.244  14.379   2.882
13744SOL    HW243072  14.395  14.383   2.877
13745SOL     OW43073   4.863   2.411   3.625
13745SOL    HW143074   4.801   2.364   3.569
13745SOL    HW243075   4.810   2.478   3.669
13746SOL     OW43076  13.752  10.932  12.548
13746SOL    HW143077  13.724  10.881  12.624
13746SOL    HW243078  13.806  10.872  12.497
13747SOL     OW43079   6.344  12.488   4.712
13747SOL    HW143080   6.364  12.516   4.623
13747SOL    HW243081   6.430  12.481   4.755
13748SOL     OW43082   6.124  11.067  14.680
13748SOL    HW143083   6.210  11.101  14.656
13748SOL    HW243084   6.126  10.975  14.653
13749SOL     OW43085   0.751   9.254   5.434
13749SOL    HW143086   0.815   9.227   5.368
13749SOL    HW243087   0.742   9.349   5.422
13750SOL     OW43088   4.344   1.800  12.047
13750SOL    HW143089   4.403   1.875  12.046
13750SOL    HW243090   4.376   1.743  11.977
13751SOL     OW43091  11.372  11.786   7.341
13751SOL    HW143092  11.461  11.810   7.366
13751SOL    HW243093  11.383  11.716   7.277
13752SOL     OW43094   9.332   9.995   2.479
13752SOL    HW143095   9.296  10.046   2.552
13752SOL    HW243096   9.264   9.930   2.460
13753SOL     OW43097   9.822   9.144   5.777
13753SOL    HW143098   9.830   9.077   5.845
13753SOL    HW243099   9.894   9.126   5.717
13754SOL     OW43100   3.544   4.828   5.876
13754SOL    HW143101   3.586   4.875   5.804
13754SOL    HW243102   3.495   4.758   5.834
13755SOL     OW43103   9.101   7.315   3.882
13755SOL    HW143104   9.058   7.282   3.961
13755SOL    HW243105   9.121   7.236   3.831
13756SOL     OW43106   8.471   8.869   2.820
13756SOL    HW143107   8.439   8.822   2.743
13756SOL    HW243108   8.501   8.954   2.784
13757SOL     OW43109   1.910  14.111   7.932
13757SOL    HW143110   1.863  14.076   8.008
13757SOL    HW243111   1.854  14.181   7.900
13758SOL     OW43112  11.494   3.465   8.630
13758SOL    HW143113  11.565   3.514   8.671
13758SOL    HW243114  11.534   3.423   8.554
13759SOL     OW43115   3.520  14.767  13.278
13759SOL    HW143116   3.510  14.673  13.265
13759SOL    HW243117   3.605  14.787  13.239
13760SOL     OW43118  12.590   9.822   7.734
13760SOL    HW143119  12.560   9.731   7.739
13760SOL    HW243120  12.548   9.865   7.808
13761SOL     OW43121   6.153   4.697   6.062
13761SOL    HW143122   6.202   4.699   6.144
13761SOL    HW243123   6.218   4.675   5.995
13762SOL     OW43124   8.717   0.134   6.471
13762SOL    HW143125   8.659   0.125   6.395
13762SOL    HW243126   8.775   0.207   6.449
13763SOL     OW43127  12.271   2.012   1.574
13763SOL    HW143128  12.304   2.100   1.557
13763SOL    HW243129  12.334   1.954   1.532
13764SOL     OW43130  13.666   8.908   6.712
13764SOL    HW143131  13.729   8.840   6.687
13764SOL    HW243132  13.660   8.964   6.635
13765SOL     OW43133   9.435   7.502   1.692
13765SOL    HW143134   9.429   7.474   1.783
13765SOL    HW243135   9.490   7.437   1.650
13766SOL     OW43136  12.943   7.882   9.837
13766SOL    HW143137  13.014   7.929   9.794
13766SOL    HW243138  12.866   7.938   9.824
13767SOL     OW43139   4.809   3.167  12.233
13767SOL    HW143140   4.887   3.175  12.177
13767SOL    HW243141   4.736   3.160  12.171
13768SOL     OW43142  11.572   3.243   0.701
13768SOL    HW143143  11.540   3.157   0.728
13768SOL    HW243144  11.517   3.305   0.749
13769SOL     OW43145   2.231   3.933   7.092
13769SOL    HW143146   2.314   3.900   7.127
13769SOL    HW243147   2.181   3.855   7.068
13770SOL     OW43148   2.690  12.250   6.993
13770SOL    HW143149   2.697  12.241   6.898
13770SOL    HW243150   2.651  12.168   7.023
13771SOL     OW43151   7.442   8.781   3.219
13771SOL    HW143152   7.534   8.778   3.194
13771SOL    HW243153   7.398   8.823   3.145
13772SOL     OW43154   4.335   7.544  13.119
13772SOL    HW143155   4.334   7.583  13.206
13772SOL    HW243156   4.426   7.520  13.104
13773SOL     OW43157   7.797  12.909   8.111
13773SOL    HW143158   7.747  12.840   8.067
13773SOL    HW243159   7.888  12.886   8.094
13774SOL     OW43160   6.029   7.420  14.801
13774SOL    HW143161   6.048   7.487  14.736
13774SOL    HW243162   5.934   7.426  14.813
13775SOL     OW43163   0.520   7.717   8.459
13775SOL    HW143164   0.476   7.632   8.458
13775SOL    HW243165   0.521   7.742   8.551
13776SOL     OW43166   7.652  11.350   6.838
13776SOL    HW143167   7.731  11.377   6.883
13776SOL    HW243168   7.580  11.378   6.896
13777SOL     OW43169   1.771   0.277   3.526
13777SOL    HW143170   1.857   0.308   3.496
13777SOL    HW243171   1.712   0.296   3.453
13778SOL     OW43172   7.813   3.633   0.562
13778SOL    HW143173   7.804   3.582   0.481
13778SOL    HW243174   7.890   3.688   0.547
13779SOL     OW43175   7.547  11.967   4.557
13779SOL    HW143176   7.484  11.935   4.622
13779SOL    HW243177   7.632  11.945   4.596
13780SOL     OW43178   5.045  12.417  11.928
13780SOL    HW143179   5.123  12.381  11.970
13780SOL    HW243180   4.976  12.353  11.945
13781SOL     OW43181   7.555   0.620   2.414
13781SOL    HW143182   7.592   0.685   2.354
13781SOL    HW243183   7.516   0.673   2.484
13782SOL     OW43184  14.660  13.136   3.044
13782SOL    HW143185  14.620  13.165   2.963
13782SOL    HW243186  14.593  13.083   3.087
13783SOL     OW43187   5.481   4.029   6.685
13783SOL    HW143188   5.413   4.096   6.677
13783SOL    HW243189   5.557   4.076   6.720
13784SOL     OW43190   0.043   7.205   0.375
13784SOL    HW143191   0.009   7.209   0.465
13784SOL    HW243192   0.134   7.233   0.382
13785SOL     OW43193   6.015   3.602   6.000
13785SOL    HW143194   6.073   3.599   5.923
13785SOL    HW243195   6.058   3.663   6.060
13786SOL     OW43196   2.547   3.560   7.554
13786SOL    HW143197   2.605   3.629   7.522
13786SOL    HW243198   2.581   3.479   7.515
13787SOL     OW43199   1.287  10.548  10.076
13787SOL    HW143200   1.258  10.629  10.119
13787SOL    HW243201   1.316  10.492  10.148
13788SOL     OW43202  14.151   9.021   5.791
13788SOL    HW143203  14.243   9.017   5.765
13788SOL    HW243204  14.133   9.114   5.802
13789SOL     OW43205   9.344   7.158   8.633
13789SOL    HW143206   9.354   7.157   8.728
13789SOL    HW243207   9.334   7.251   8.611
13790SOL     OW43208   7.682   1.427   6.353
13790SOL    HW143209   7.734   1.349   6.338
13790SOL    HW243210   7.608   1.398   6.406
13791SOL     OW43211   6.303  11.480  12.652
13791SOL    HW143212   6.256  11.499  12.733
13791SOL    HW243213   6.355  11.559  12.636
13792SOL     OW43214   5.635  11.422   0.548
13792SOL    HW143215   5.587  11.340   0.535
13792SOL    HW243216   5.569  11.482   0.584
13793SOL     OW43217   6.551   1.031   4.062
13793SOL    HW143218   6.612   0.987   4.120
13793SOL    HW243219   6.504   1.092   4.118
13794SOL     OW43220  10.583   4.335   9.294
13794SOL    HW143221  10.497   4.343   9.336
13794SOL    HW243222  10.565   4.349   9.201
13795SOL     OW43223   7.018   5.421  13.628
13795SOL    HW143224   7.056   5.434  13.715
13795SOL    HW243225   6.957   5.493  13.617
13796SOL     OW43226   9.201  10.968  11.003
13796SOL    HW143227   9.230  11.045  11.052
13796SOL    HW243228   9.236  10.981  10.915
13797SOL     OW43229   3.646   9.028   5.782
13797SOL    HW143230   3.648   8.960   5.716
13797SOL    HW243231   3.656   8.981   5.865
13798SOL     OW43232   2.314   5.629  12.458
13798SOL    HW143233   2.268   5.684  12.394
13798SOL    HW243234   2.302   5.674  12.541
13799SOL     OW43235   7.185   8.630   7.543
13799SOL    HW143236   7.191   8.723   7.567
13799SOL    HW243237   7.276   8.601   7.539
13800SOL     OW43238   8.801   3.181   9.707
13800SOL    HW143239   8.767   3.108   9.655
13800SOL    HW243240   8.749   3.257   9.679
13801SOL     OW43241   8.746   8.352   2.120
13801SOL    HW143242   8.757   8.444   2.094
13801SOL    HW243243   8.831   8.311   2.100
13802SOL     OW43244   0.358   3.819  10.500
13802SOL    HW143245   0.321   3.885  10.559
13802SOL    HW243246   0.297   3.745  10.506
13803SOL     OW43247  14.718   9.332   0.024
13803SOL    HW143248  14.736   9.425   0.008
13803SOL    HW243249  14.796   9.287  14.866
13804SOL     OW43250   6.425   0.448   3.431
13804SOL    HW143251   6.451   0.538   3.409
13804SOL    HW243252   6.435   0.400   3.349
13805SOL     OW43253   0.280   7.154   5.463
13805SOL    HW143254   0.193   7.118   5.481
13805SOL    HW243255   0.288   7.150   5.368
13806SOL     OW43256   3.311  12.621   1.863
13806SOL    HW143257   3.225  12.581   1.851
13806SOL    HW243258   3.314  12.646   1.955
13807SOL     OW43259   9.209   0.160   6.603
13807SOL    HW143260   9.285   0.216   6.611
13807SOL    HW243261   9.231   0.098   6.533
13808SOL     OW43262   7.380   7.326   7.683
13808SOL    HW143263   7.454   7.273   7.654
13808SOL    HW243264   7.407   7.416   7.669
13809SOL     OW43265   1.849   8.826   1.668
13809SOL    HW143266   1.767   8.780   1.653
13809SOL    HW243267   1.846   8.852   1.761
13810SOL     OW43268  10.417   0.474   0.762
13810SOL    HW143269  10.322   0.489   0.763
13810SOL    HW243270  10.454   0.561   0.747
13811SOL     OW43271   6.245   0.587   7.276
13811SOL    HW143272   6.291   0.522   7.329
13811SOL    HW243273   6.163   0.545   7.251
13812SOL     OW43274   1.756   4.979   6.994
13812SOL    HW143275   1.846   4.946   6.993
13812SOL    HW243276   1.706   4.910   6.951
13813SOL     OW43277   6.780   0.818  11.046
13813SOL    HW143278   6.756   0.873  11.121
13813SOL    HW243279   6.789   0.880  10.973
13814SOL     OW43280   0.068  12.069   6.184
13814SOL    HW143281   0.090  12.142   6.242
13814SOL    HW243282  14.851  12.049   6.205
13815SOL     OW43283  12.368   5.370   3.540
13815SOL    HW143284  12.456   5.339   3.561
13815SOL    HW243285  12.312   5.295   3.555
13816SOL     OW43286   4.627  11.950   4.852
13816SOL    HW143287   4.686  11.909   4.789
13816SOL    HW243288   4.680  11.962   4.931
13817SOL     OW43289   2.887  12.334  11.273
13817SOL    HW143290   2.870  12.240  11.264
13817SOL    HW243291   2.807  12.376  11.242
13818SOL     OW43292   3.752   4.500   0.006
13818SOL    HW143293   3.669   4.545  14.865
13818SOL    HW243294   3.791   4.545   0.081
13819SOL     OW43295  13.594   4.866   8.861
13819SOL    HW143296  13.660   4.892   8.796
13819SOL    HW243297  13.527   4.934   8.856
13820SOL     OW43298  12.190  13.342  14.432
13820SOL    HW143299  12.251  13.411  14.458
13820SOL    HW243300  12.229  13.261  14.465
13821SOL     OW43301   1.926   2.634   1.670
13821SOL    HW143302   1.977   2.554   1.679
13821SOL    HW243303   1.918   2.647   1.575
13822SOL     OW43304   2.833  12.459  13.802
13822SOL    HW143305   2.854  12.366  13.794
13822SOL    HW243306   2.918  12.503  13.803
13823SOL     OW43307   9.992   7.330  10.835
13823SOL    HW143308   9.962   7.242  10.814
13823SOL    HW243309  10.080   7.318  10.870
13824SOL     OW43310  12.612  10.826   7.426
13824SOL    HW143311  12.688  10.863   7.381
13824SOL    HW243312  12.649  10.773   7.497
13825SOL     OW43313   4.395   1.378   6.695
13825SOL    HW143314   4.351   1.341   6.772
13825SOL    HW243315   4.350   1.462   6.680
13826SOL     OW43316   6.203  10.146   8.143
13826SOL    HW143317   6.243  10.084   8.204
13826SOL    HW243318   6.139  10.094   8.095
13827SOL     OW43319  12.348   8.353   2.671
13827SOL    HW143320  12.366   8.447   2.680
13827SOL    HW243321  12.255   8.345   2.692
13828SOL     OW43322  13.072   7.371   8.411
13828SOL    HW143323  13.165   7.354   8.421
13828SOL    HW243324  13.065   7.422   8.331
13829SOL     OW43325  14.418  10.082   9.307
13829SOL    HW143326  14.489  10.018   9.320
13829SOL    HW243327  14.338  10.034   9.331
13830SOL     OW43328   9.073   4.902   9.791
13830SOL    HW143329   8.981   4.913   9.813
13830SOL    HW243330   9.074   4.884   9.697
13831SOL     OW43331  13.401   3.369  12.149
13831SOL    HW143332  13.425   3.456  12.116
13831SOL    HW243333  13.457   3.355  12.225
13832SOL     OW43334  10.104   3.383  10.730
13832SOL    HW143335  10.045   3.309  10.711
13832SOL    HW243336  10.046   3.455  10.753
13833SOL     OW43337  13.191   7.686   5.988
13833SOL    HW143338  13.175   7.766   5.938
13833SOL    HW243339  13.265   7.709   6.045
13834SOL     OW43340   6.246   4.505   5.685
13834SOL    HW143341   6.230   4.427   5.633
13834SOL    HW243342   6.180   4.503   5.754
13835SOL     OW43343   6.990  11.356   5.894
13835SOL    HW143344   7.027  11.312   5.970
13835SOL    HW243345   6.977  11.446   5.922
13836SOL     OW43346   3.574  10.504   0.819
13836SOL    HW143347   3.577  10.536   0.729
13836SOL    HW243348   3.566  10.409   0.811
13837SOL     OW43349   9.672   4.536   8.464
13837SOL    HW143350   9.650   4.629   8.458
13837SOL    HW243351   9.766   4.532   8.445
13838SOL     OW43352   7.125  10.398  11.404
13838SOL    HW143353   7.199  10.457  11.393
13838SOL    HW243354   7.164  10.316  11.436
13839SOL     OW43355   6.378   2.812   2.346
13839SOL    HW143356   6.330   2.795   2.265
13839SOL    HW243357   6.398   2.725   2.380
13840SOL     OW43358   9.779   3.435   5.297
13840SOL    HW143359   9.789   3.434   5.202
13840SOL    HW243360   9.847   3.375   5.329
13841SOL     OW43361   2.665  12.166   7.798
13841SOL    HW143362   2.750  12.125   7.784
13841SOL    HW243363   2.610  12.131   7.729
13842SOL     OW43364  13.821   2.861  13.496
13842SOL    HW143365  13.874   2.870  13.417
13842SOL    HW243366  13.732   2.883  13.468
13843SOL     OW43367  14.788  14.310   1.556
13843SOL    HW143368  14.774  14.403   1.575
13843SOL    HW243369  14.715  14.266   1.600
13844SOL     OW43370  13.844  12.805  14.265
13844SOL    HW143371  13.881  12.878  14.215
13844SOL    HW243372  13.766  12.843  14.306
13845SOL     OW43373  12.695   7.749   5.858
13845SOL    HW143374  12.764   7.808   5.889
13845SOL    HW243375  12.623   7.808   5.832
13846SOL     OW43376   9.170   6.596   3.881
13846SOL    HW143377   9.206   6.509   3.899
13846SOL    HW243378   9.247   6.654   3.884
13847SOL     OW43379   0.726   7.291  13.775
13847SOL    HW143380   0.700   7.290  13.867
13847SOL    HW243381   0.747   7.200  13.755
13848SOL     OW43382  12.668  12.127   1.284
13848SOL    HW143383  12.620  12.135   1.202
13848SOL    HW243384  12.604  12.147   1.352
13849SOL     OW43385  11.448   4.323  12.589
13849SOL    HW143386  11.430   4.417  12.581
13849SOL    HW243387  11.474   4.311  12.680
13850SOL     OW43388  13.894   8.661   2.901
13850SOL    HW143389  13.858   8.719   2.967
13850SOL    HW243390  13.988   8.661   2.917
13851SOL     OW43391  12.977   8.971  10.991
13851SOL    HW143392  12.908   9.030  10.959
13851SOL    HW243393  13.053   9.029  11.004
13852SOL     OW43394   6.943   5.475  14.484
13852SOL    HW143395   6.853   5.490  14.457
13852SOL    HW243396   6.936   5.432  14.569
13853SOL     OW43397  12.404  13.191   3.471
13853SOL    HW143398  12.330  13.252   3.478
13853SOL    HW243399  12.368  13.105   3.492
13854SOL     OW43400  13.510  10.554   9.730
13854SOL    HW143401  13.590  10.598   9.701
13854SOL    HW243402  13.440  10.601   9.685
13855SOL     OW43403  13.531   1.544  11.663
13855SOL    HW143404  13.476   1.535  11.584
13855SOL    HW243405  13.608   1.592  11.633
13856SOL     OW43406  14.146  10.577   0.565
13856SOL    HW143407  14.151  10.485   0.541
13856SOL    HW243408  14.087  10.615   0.500
13857SOL     OW43409   8.232   5.615   3.054
13857SOL    HW143410   8.213   5.547   2.989
13857SOL    HW243411   8.151   5.666   3.059
13858SOL     OW43412   2.667  10.914  14.139
13858SOL    HW143413   2.747  10.926  14.088
13858SOL    HW243414   2.610  10.986  14.112
13859SOL     OW43415  11.196  10.157   1.465
13859SOL    HW143416  11.163  10.158   1.375
13859SOL    HW243417  11.287  10.129   1.457
13860SOL     OW43418  12.238   9.472  13.507
13860SOL    HW143419  12.156   9.442  13.467
13860SOL    HW243420  12.211   9.536  13.573
13861SOL     OW43421   0.649   6.433   7.117
13861SOL    HW143422   0.590   6.363   7.145
13861SOL    HW243423   0.631   6.443   7.023
13862SOL     OW43424   7.464   1.101   5.422
13862SOL    HW143425   7.482   1.139   5.336
13862SOL    HW243426   7.373   1.072   5.418
13863SOL     OW43427   9.674   5.035   7.136
13863SOL    HW143428   9.710   5.101   7.196
13863SOL    HW243429   9.650   4.962   7.193
13864SOL     OW43430  12.278   5.141   5.805
13864SOL    HW143431  12.328   5.060   5.808
13864SOL    HW243432  12.250   5.155   5.895
13865SOL     OW43433  11.881   5.175  12.806
13865SOL    HW143434  11.838   5.189  12.722
13865SOL    HW243435  11.810   5.154  12.867
13866SOL     OW43436   8.245   1.554   8.854
13866SOL    HW143437   8.161   1.564   8.899
13866SOL    HW243438   8.292   1.635   8.873
13867SOL     OW43439  13.621  11.536  13.388
13867SOL    HW143440  13.556  11.600  13.359
13867SOL    HW243441  13.700  11.557  13.337
13868SOL     OW43442  11.181   0.740   4.121
13868SOL    HW143443  11.276   0.752   4.119
13868SOL    HW243444  11.148   0.817   4.168
13869SOL     OW43445   1.744   9.796  11.362
13869SOL    HW143446   1.674   9.799  11.297
13869SOL    HW243447   1.796   9.719  11.338
13870SOL     OW43448  14.224   1.281  14.283
13870SOL    HW143449  14.220   1.229  14.203
13870SOL    HW243450  14.302   1.336  14.272
13871SOL     OW43451  13.113   9.779  13.816
13871SOL    HW143452  13.176   9.748  13.752
13871SOL    HW243453  13.130   9.873  13.823
13872SOL     OW43454   5.621  11.594   2.446
13872SOL    HW143455   5.544  11.628   2.400
13872SOL    HW243456   5.593  11.510   2.482
13873SOL     OW43457  13.699   2.754  11.042
13873SOL    HW143458  13.675   2.712  11.125
13873SOL    HW243459  13.618   2.758  10.992
13874SOL     OW43460   1.802  13.096   9.884
13874SOL    HW143461   1.817  13.131   9.972
13874SOL    HW243462   1.890  13.080   9.850
13875SOL     OW43463   6.518   0.719   1.424
13875SOL    HW143464   6.487   0.683   1.507
13875SOL    HW243465   6.604   0.756   1.444
13876SOL     OW43466   9.042   6.253  12.871
13876SOL    HW143467   9.098   6.262  12.794
13876SOL    HW243468   9.036   6.159  12.886
13877SOL     OW43469   7.947   2.251   3.567
13877SOL    HW143470   7.990   2.187   3.511
13877SOL    HW243471   7.979   2.231   3.655
13878SOL     OW43472   0.397  13.789   4.926
13878SOL    HW143473   0.303  13.774   4.934
13878SOL    HW243474   0.405  13.865   4.869
13879SOL     OW43475   3.357   8.588  12.583
13879SOL    HW143476   3.323   8.665  12.627
13879SOL    HW243477   3.412   8.622  12.513
13880SOL     OW43478  12.963   7.542  14.016
13880SOL    HW143479  12.944   7.558  13.923
13880SOL    HW243480  13.056   7.516  14.016
13881SOL     OW43481   0.018   6.228  14.656
13881SOL    HW143482  14.816   6.206  14.711
13881SOL    HW243483   0.076   6.278  14.714
13882SOL     OW43484   7.570  12.495   8.842
13882SOL    HW143485   7.614  12.461   8.764
13882SOL    HW243486   7.523  12.420   8.878
13883SOL     OW43487   2.714   8.036   9.041
13883SOL    HW143488   2.745   8.124   9.063
13883SOL    HW243489   2.625   8.049   9.008
13884SOL     OW43490   5.493   9.398   5.849
13884SOL    HW143491   5.529   9.396   5.938
13884SOL    HW243492   5.560   9.355   5.795
13885SOL     OW43493   2.251  13.405   4.868
13885SOL    HW143494   2.247  13.310   4.858
13885SOL    HW243495   2.264  13.439   4.780
13886SOL     OW43496  11.707  11.531   9.628
13886SOL    HW143497  11.627  11.530   9.576
13886SOL    HW243498  11.763  11.595   9.585
13887SOL     OW43499   7.324  13.377  12.313
13887SOL    HW143500   7.355  13.313  12.377
13887SOL    HW243501   7.232  13.355  12.299
13888SOL     OW43502   9.070  12.497  11.664
13888SOL    HW143503   9.103  12.417  11.622
13888SOL    HW243504   9.139  12.520  11.727
13889SOL     OW43505   6.906   1.496  13.299
13889SOL    HW143506   6.965   1.421  13.305
13889SOL    HW243507   6.944   1.552  13.231
13890SOL     OW43508  10.766   0.691   9.395
13890SOL    HW143509  10.843   0.663   9.443
13890SOL    HW243510  10.795   0.696   9.304
13891SOL     OW43511   6.374   9.651  13.508
13891SOL    HW143512   6.405   9.733  13.547
13891SOL    HW243513   6.294   9.676  13.461
13892SOL     OW43514   3.544   0.001   4.694
13892SOL    HW143515   3.597  14.822   4.753
13892SOL    HW243516   3.601   0.074   4.669
13893SOL     OW43517   7.015   7.107  13.437
13893SOL    HW143518   7.064   7.182  13.403
13893SOL    HW243519   7.033   7.037  13.374
13894SOL     OW43520   7.725  12.184   4.361
13894SOL    HW143521   7.632  12.162   4.347
13894SOL    HW243522   7.772  12.121   4.306
13895SOL     OW43523   1.488  14.116  10.969
13895SOL    HW143524   1.560  14.129  10.908
13895SOL    HW243525   1.469  14.022  10.965
13896SOL     OW43526  10.051   3.865   1.140
13896SOL    HW143527  10.076   3.939   1.196
13896SOL    HW243528  10.099   3.879   1.059
13897SOL     OW43529  13.588  10.554  10.195
13897SOL    HW143530  13.651  10.621  10.219
13897SOL    HW243531  13.601  10.543  10.100
13898SOL     OW43532   2.955  14.780   0.607
13898SOL    HW143533   2.902  14.824   0.673
13898SOL    HW243534   2.998  14.709   0.654
13899SOL     OW43535   0.372  11.180   6.648
13899SOL    HW143536   0.325  11.136   6.577
13899SOL    HW243537   0.335  11.145   6.728
13900SOL     OW43538  13.868  12.232   1.870
13900SOL    HW143539  13.835  12.173   1.802
13900SOL    HW243540  13.837  12.193   1.952
13901SOL     OW43541   5.398  12.973   7.127
13901SOL    HW143542   5.470  12.972   7.065
13901SOL    HW243543   5.414  12.897   7.183
13902SOL     OW43544  10.102  11.742  12.747
13902SOL    HW143545  10.180  11.686  12.740
13902SOL    HW243546  10.029  11.685  12.725
13903SOL     OW43547   5.076   9.105   2.295
13903SOL    HW143548   4.991   9.071   2.266
13903SOL    HW243549   5.055   9.168   2.363
13904SOL     OW43550   0.474  11.678  14.416
13904SOL    HW143551   0.390  11.706  14.453
13904SOL    HW243552   0.456  11.592  14.377
13905SOL     OW43553   8.634   0.158   5.653
13905SOL    HW143554   8.693   0.105   5.705
13905SOL    HW243555   8.659   0.248   5.674
13906SOL     OW43556  12.653  14.808   7.475
13906SOL    HW143557  12.632  14.829   7.566
13906SOL    HW243558  12.619  14.720   7.463
13907SOL     OW43559   4.588  14.587   7.631
13907SOL    HW143560   4.678  14.619   7.623
13907SOL    HW243561   4.598  14.496   7.659
13908SOL     OW43562   6.946   4.740  13.300
13908SOL    HW143563   6.947   4.647  13.278
13908SOL    HW243564   6.923   4.784  13.219
13909SOL     OW43565  12.080   1.701   7.255
13909SOL    HW143566  12.016   1.631   7.244
13909SOL    HW243567  12.159   1.657   7.287
13910SOL     OW43568   5.422  10.112   6.786
13910SOL    HW143569   5.385  10.035   6.830
13910SOL    HW243570   5.512  10.116   6.817
13911SOL     OW43571  10.601   7.579  10.217
13911SOL    HW143572  10.663   7.642  10.254
13911SOL    HW243573  10.645   7.495  10.225
13912SOL     OW43574   9.013   1.163   9.837
13912SOL    HW143575   8.925   1.144   9.870
13912SOL    HW243576   9.058   1.078   9.838
13913SOL     OW43577  14.000   7.676   3.090
13913SOL    HW143578  14.025   7.584   3.087
13913SOL    HW243579  13.981   7.693   3.183
13914SOL     OW43580   1.203  14.733  11.607
13914SOL    HW143581   1.298  14.740  11.601
13914SOL    HW243582   1.183  14.645  11.575
13915SOL     OW43583   6.109   8.574  10.991
13915SOL    HW143584   6.147   8.601  11.075
13915SOL    HW243585   6.030   8.628  10.983
13916SOL     OW43586  11.622  13.924   8.737
13916SOL    HW143587  11.537  13.967   8.747
13916SOL    HW243588  11.633  13.875   8.818
13917SOL     OW43589   6.408   3.438   0.060
13917SOL    HW143590   6.416   3.410   0.151
13917SOL    HW243591   6.432   3.531   0.061
13918SOL     OW43592   5.893  10.747   9.314
13918SOL    HW143593   5.946  10.738   9.235
13918SOL    HW243594   5.893  10.841   9.331
13919SOL     OW43595   0.989   2.959   2.387
13919SOL    HW143596   1.030   2.978   2.472
13919SOL    HW243597   1.058   2.917   2.336
13920SOL     OW43598   5.425  11.066   8.473
13920SOL    HW143599   5.423  11.146   8.421
13920SOL    HW243600   5.498  11.015   8.438
13921SOL     OW43601   3.473   5.943  14.160
13921SOL    HW143602   3.384   5.949  14.196
13921SOL    HW243603   3.530   5.965  14.234
13922SOL     OW43604  11.749   3.018   9.350
13922SOL    HW143605  11.715   2.931   9.329
13922SOL    HW243606  11.780   3.011   9.440
13923SOL     OW43607  12.609   3.822   1.526
13923SOL    HW143608  12.585   3.742   1.479
13923SOL    HW243609  12.564   3.815   1.610
13924SOL     OW43610   2.780  11.633   2.300
13924SOL    HW143611   2.809  11.644   2.391
13924SOL    HW243612   2.723  11.708   2.284
13925SOL     OW43613   8.536  12.449  11.155
13925SOL    HW143614   8.455  12.486  11.190
13925SOL    HW243615   8.537  12.359  11.187
13926SOL     OW43616   2.878   6.559   6.873
13926SOL    HW143617   2.819   6.591   6.941
13926SOL    HW243618   2.965   6.560   6.913
13927SOL     OW43619   8.063   7.135   9.647
13927SOL    HW143620   7.985   7.096   9.606
13927SOL    HW243621   8.030   7.177   9.726
13928SOL     OW43622  13.430   2.575   9.406
13928SOL    HW143623  13.426   2.479   9.408
13928SOL    HW243624  13.514   2.596   9.445
13929SOL     OW43625   9.188  13.527   0.092
13929SOL    HW143626   9.257  13.529   0.026
13929SOL    HW243627   9.194  13.439   0.131
13930SOL     OW43628   5.936  13.937   9.776
13930SOL    HW143629   6.004  13.872   9.759
13930SOL    HW243630   5.890  13.903   9.853
13931SOL     OW43631   1.208  11.750   3.522
13931SOL    HW143632   1.214  11.779   3.431
13931SOL    HW243633   1.118  11.768   3.548
13932SOL     OW43634  12.159   9.102   8.255
13932SOL    HW143635  12.132   9.072   8.342
13932SOL    HW243636  12.113   9.044   8.194
13933SOL     OW43637   0.802   7.833  14.732
13933SOL    HW143638   0.870   7.801  14.791
13933SOL    HW243639   0.817   7.928  14.726
13934SOL     OW43640   4.103   3.941   1.399
13934SOL    HW143641   4.139   4.029   1.387
13934SOL    HW243642   4.155   3.903   1.470
13935SOL     OW43643   8.088   9.341   2.791
13935SOL    HW143644   8.070   9.300   2.706
13935SOL    HW243645   8.174   9.306   2.816
13936SOL     OW43646  14.397  13.190   0.819
13936SOL    HW143647  14.328  13.217   0.758
13936SOL    HW243648  14.364  13.109   0.857
13937SOL     OW43649  13.459   6.703  10.620
13937SOL    HW143650  13.442   6.796  10.606
13937SOL    HW243651  13.547   6.689  10.584
13938SOL     OW43652  11.562   0.207   6.109
13938SOL    HW143653  11.504   0.202   6.184
13938SOL    HW243654  11.504   0.203   6.033
13939SOL     OW43655  10.846  12.454  11.857
13939SOL    HW143656  10.800  12.422  11.779
13939SOL    HW243657  10.811  12.542  11.871
13940SOL     OW43658   9.561   0.448   9.602
13940SOL    HW143659   9.500   0.519   9.621
13940SOL    HW243660   9.639   0.492   9.568
13941SOL     OW43661   4.422   0.655   8.441
13941SOL    HW143662   4.488   0.586   8.430
13941SOL    HW243663   4.360   0.641   8.369
13942SOL     OW43664   3.268  10.960  12.711
13942SOL    HW143665   3.332  11.031  12.702
13942SOL    HW243666   3.217  10.984  12.788
13943SOL     OW43667   1.470   6.350   9.496
13943SOL    HW143668   1.409   6.277   9.503
13943SOL    HW243669   1.499   6.348   9.405
13944SOL     OW43670  13.690   0.374   3.496
13944SOL    HW143671  13.608   0.336   3.527
13944SOL    HW243672  13.727   0.309   3.437
13945SOL     OW43673   5.868  12.838   0.763
13945SOL    HW143674   5.928  12.825   0.690
13945SOL    HW243675   5.867  12.933   0.777
13946SOL     OW43676   0.820   3.926  14.416
13946SOL    HW143677   0.910   3.943  14.444
13946SOL    HW243678   0.821   3.834  14.389
13947SOL     OW43679   5.426   1.893   6.105
13947SOL    HW143680   5.493   1.826   6.117
13947SOL    HW243681   5.343   1.846   6.110
13948SOL     OW43682   8.521  13.950   4.782
13948SOL    HW143683   8.518  14.011   4.708
13948SOL    HW243684   8.484  13.999   4.855
13949SOL     OW43685   0.715   6.043   0.426
13949SOL    HW143686   0.659   5.965   0.433
13949SOL    HW243687   0.803   6.007   0.416
13950SOL     OW43688  14.777   2.732   5.830
13950SOL    HW143689  14.831   2.766   5.902
13950SOL    HW243690  14.765   2.807   5.772
13951SOL     OW43691   6.408  10.063  10.256
13951SOL    HW143692   6.333  10.040  10.202
13951SOL    HW243693   6.455  10.130  10.206
13952SOL     OW43694   6.334  11.749   1.868
13952SOL    HW143695   6.330  11.655   1.888
13952SOL    HW243696   6.252  11.768   1.824
13953SOL     OW43697  14.274   5.883   3.387
13953SOL    HW143698  14.365   5.902   3.365
13953SOL    HW243699  14.228   5.888   3.303
13954SOL     OW43700  12.835   1.011   6.861
13954SOL    HW143701  12.923   1.048   6.854
13954SOL    HW243702  12.822   0.996   6.954
13955SOL     OW43703   0.648   5.097   7.378
13955SOL    HW143704   0.592   5.027   7.414
13955SOL    HW243705   0.588   5.150   7.325
13956SOL     OW43706   9.612   9.345   9.325
13956SOL    HW143707   9.518   9.358   9.320
13956SOL    HW243708   9.642   9.406   9.392
13957SOL     OW43709   0.858   7.380   4.651
13957SOL    HW143710   0.844   7.285   4.645
13957SOL    HW243711   0.951   7.391   4.630
13958SOL     OW43712  11.878  12.587   6.753
13958SOL    HW143713  11.801  12.643   6.756
13958SOL    HW243714  11.853  12.514   6.696
13959SOL     OW43715   7.055   7.082   4.990
13959SOL    HW143716   6.996   7.041   5.053
13959SOL    HW243717   7.078   7.166   5.030
13960SOL     OW43718   2.854   0.048   7.842
13960SOL    HW143719   2.926   0.072   7.784
13960SOL    HW243720   2.812  14.848   7.798
13961SOL     OW43721  13.664   0.369   0.282
13961SOL    HW143722  13.708   0.410   0.356
13961SOL    HW243723  13.700   0.280   0.280
13962SOL     OW43724   9.991   6.978   2.601
13962SOL    HW143725   9.968   6.938   2.517
13962SOL    HW243726  10.055   6.918   2.639
13963SOL     OW43727   7.376   6.316  11.345
13963SOL    HW143728   7.456   6.273  11.316
13963SOL    HW243729   7.305   6.265  11.304
13964SOL     OW43730   9.199   5.410   2.332
13964SOL    HW143731   9.168   5.321   2.350
13964SOL    HW243732   9.294   5.401   2.330
13965SOL     OW43733   4.024  14.782   8.362
13965SOL    HW143734   4.086  14.853   8.378
13965SOL    HW243735   4.023  14.732   8.443
13966SOL     OW43736   6.528   4.380  13.179
13966SOL    HW143737   6.617   4.364  13.211
13966SOL    HW243738   6.530   4.470  13.146
13967SOL     OW43739  12.006   1.023   2.398
13967SOL    HW143740  12.075   1.080   2.365
13967SOL    HW243741  12.041   0.986   2.479
13968SOL     OW43742   1.675   8.644  11.034
13968SOL    HW143743   1.682   8.571  10.972
13968SOL    HW243744   1.701   8.606  11.119
13969SOL     OW43745   1.303   0.913   9.647
13969SOL    HW143746   1.368   0.978   9.618
13969SOL    HW243747   1.223   0.937   9.600
13970SOL     OW43748   6.364  10.716   7.023
13970SOL    HW143749   6.387  10.722   7.116
13970SOL    HW243750   6.282  10.765   7.016
13971SOL     OW43751  12.962  10.699   8.882
13971SOL    HW143752  13.051  10.691   8.914
13971SOL    HW243753  12.916  10.625   8.920
13972SOL     OW43754   3.582   4.822   4.927
13972SOL    HW143755   3.562   4.908   4.889
13972SOL    HW243756   3.501   4.773   4.920
13973SOL     OW43757  10.127   0.318   1.236
13973SOL    HW143758  10.174   0.243   1.271
13973SOL    HW243759  10.186   0.355   1.170
13974SOL     OW43760   0.970  13.874   6.097
13974SOL    HW143761   0.915  13.854   6.021
13974SOL    HW243762   1.059  13.869   6.064
13975SOL     OW43763   8.738  12.362  13.286
13975SOL    HW143764   8.801  12.400  13.224
13975SOL    HW243765   8.792  12.315  13.349
13976SOL     OW43766  14.113   5.240   3.149
13976SOL    HW143767  14.057   5.207   3.220
13976SOL    HW243768  14.075   5.203   3.069
13977SOL     OW43769  10.194  14.675  10.774
13977SOL    HW143770  10.099  14.686  10.772
13977SOL    HW243771  10.218  14.685  10.866
13978SOL     OW43772  10.665  13.472  13.589
13978SOL    HW143773  10.575  13.499  13.607
13978SOL    HW243774  10.704  13.460  13.675
13979SOL     OW43775   3.332   2.382   3.029
13979SOL    HW143776   3.259   2.322   3.044
13979SOL    HW243777   3.394   2.331   2.976
13980SOL     OW43778   8.802   1.901  13.296
13980SOL    HW143779   8.872   1.957  13.263
13980SOL    HW243780   8.721   1.945  13.271
13981SOL     OW43781   0.827   5.817  11.941
13981SOL    HW143782   0.835   5.902  11.984
13981SOL    HW243783   0.892   5.820  11.871
13982SOL     OW43784   2.867   9.549  12.320
13982SOL    HW143785   2.945   9.578  12.367
13982SOL    HW243786   2.821   9.493  12.383
13983SOL     OW43787   2.090  10.241   7.004
13983SOL    HW143788   2.170  10.249   6.952
13983SOL    HW243789   2.019  10.245   6.940
13984SOL     OW43790   4.241   4.089   7.956
13984SOL    HW143791   4.288   4.036   7.892
13984SOL    HW243792   4.154   4.100   7.918
13985SOL     OW43793   7.400   6.333  10.797
13985SOL    HW143794   7.441   6.402  10.745
13985SOL    HW243795   7.444   6.336  10.881
13986SOL     OW43796   6.514  14.382   0.822
13986SOL    HW143797   6.511  14.476   0.841
13986SOL    HW243798   6.491  14.376   0.729
13987SOL     OW43799  14.299  13.286   0.159
13987SOL    HW143800  14.261  13.272   0.246
13987SOL    HW243801  14.239  13.241   0.099
13988SOL     OW43802   2.794   4.497  10.469
13988SOL    HW143803   2.859   4.502  10.399
13988SOL    HW243804   2.753   4.584  10.471
13989SOL     OW43805   7.807   2.521  12.204
13989SOL    HW143806   7.749   2.445  12.213
13989SOL    HW243807   7.769   2.586  12.263
13990SOL     OW43808   2.278   1.280   4.136
13990SOL    HW143809   2.354   1.268   4.193
13990SOL    HW243810   2.309   1.336   4.066
13991SOL     OW43811   1.035  13.042   6.419
13991SOL    HW143812   0.987  13.005   6.493
13991SOL    HW243813   1.073  13.123   6.453
13992SOL     OW43814   0.343   2.182   6.487
13992SOL    HW143815   0.305   2.256   6.441
13992SOL    HW243816   0.388   2.220   6.562
13993SOL     OW43817   0.640   2.218  14.816
13993SOL    HW143818   0.588   2.152  14.862
13993SOL    HW243819   0.686   2.265   0.012
13994SOL     OW43820   5.607  14.745  10.220
13994SOL    HW143821   5.610  14.711  10.131
13994SOL    HW243822   5.542  14.815  10.216
13995SOL     OW43823   0.098   5.694  10.935
13995SOL    HW143824   0.138   5.608  10.943
13995SOL    HW243825   0.161   5.745  10.884
13996SOL     OW43826   8.963   4.502   0.853
13996SOL    HW143827   9.001   4.582   0.817
13996SOL    HW243828   9.039   4.451   0.882
13997SOL     OW43829   1.710  11.296   2.175
13997SOL    HW143830   1.714  11.208   2.137
13997SOL    HW243831   1.772  11.293   2.247
13998SOL     OW43832  12.264   8.152   7.776
13998SOL    HW143833  12.306   8.095   7.711
13998SOL    HW243834  12.171   8.135   7.767
13999SOL     OW43835   8.311   5.166   1.831
13999SOL    HW143836   8.292   5.083   1.874
13999SOL    HW243837   8.226   5.198   1.801
14000SOL     OW43838   3.159   8.179   3.288
14000SOL    HW143839   3.191   8.095   3.256
14000SOL    HW243840   3.219   8.202   3.359
14001SOL     OW43841  11.044   9.046   0.700
14001SOL    HW143842  11.004   9.120   0.746
14001SOL    HW243843  11.047   8.977   0.766
14002SOL     OW43844   2.516   6.580   1.209
14002SOL    HW143845   2.464   6.562   1.288
14002SOL    HW243846   2.470   6.535   1.139
14003SOL     OW43847   8.474  14.192   1.746
14003SOL    HW143848   8.389  14.154   1.769
14003SOL    HW243849   8.482  14.178   1.651
14004SOL     OW43850   1.800   1.303   4.445
14004SOL    HW143851   1.817   1.275   4.534
14004SOL    HW243852   1.886   1.329   4.411
14005SOL     OW43853   5.143   2.548   5.298
14005SOL    HW143854   5.079   2.618   5.291
14005SOL    HW243855   5.186   2.546   5.212
14006SOL     OW43856   3.006   8.010   6.237
14006SOL    HW143857   3.025   8.104   6.241
14006SOL    HW243858   3.092   7.968   6.227
14007SOL     OW43859  13.208   9.012   5.652
14007SOL    HW143860  13.144   8.981   5.716
14007SOL    HW243861  13.197   9.107   5.651
14008SOL     OW43862   9.271   0.434   0.513
14008SOL    HW143863   9.279   0.472   0.425
14008SOL    HW243864   9.178   0.418   0.523
14009SOL     OW43865  11.751   4.295  11.231
14009SOL    HW143866  11.810   4.235  11.277
14009SOL    HW243867  11.667   4.249  11.231
14010SOL     OW43868  14.230   7.631   2.165
14010SOL    HW143869  14.253   7.538   2.158
14010SOL    HW243870  14.299   7.669   2.220
14011SOL     OW43871   6.908   1.659   1.147
14011SOL    HW143872   6.973   1.723   1.174
14011SOL    HW243873   6.927   1.581   1.198
14012SOL     OW43874   7.693   8.236   0.703
14012SOL    HW143875   7.636   8.164   0.728
14012SOL    HW243876   7.656   8.269   0.621
14013SOL     OW43877  11.030   0.426  11.746
14013SOL    HW143878  10.981   0.407  11.826
14013SOL    HW243879  10.974   0.487  11.699
14014SOL     OW43880   9.351   3.227   9.890
14014SOL    HW143881   9.347   3.191   9.802
14014SOL    HW243882   9.260   3.229   9.919
14015SOL     OW43883   6.698   6.640   1.522
14015SOL    HW143884   6.645   6.666   1.597
14015SOL    HW243885   6.738   6.721   1.491
14016SOL     OW43886  11.940   9.274   9.038
14016SOL    HW143887  11.923   9.180   9.026
14016SOL    HW243888  12.028   9.277   9.076
14017SOL     OW43889   8.095  14.271   1.946
14017SOL    HW143890   8.004  14.291   1.925
14017SOL    HW243891   8.142  14.353   1.933
14018SOL     OW43892  11.887   9.576   4.520
14018SOL    HW143893  11.801   9.547   4.550
14018SOL    HW243894  11.892   9.546   4.429
14019SOL     OW43895   1.083  14.403   3.798
14019SOL    HW143896   1.084  14.470   3.867
14019SOL    HW243897   1.016  14.433   3.737
14020SOL     OW43898   9.144  10.148   3.520
14020SOL    HW143899   9.061  10.112   3.550
14020SOL    HW243900   9.209  10.080   3.541
14021SOL     OW43901   9.223   3.273   1.379
14021SOL    HW143902   9.259   3.282   1.467
14021SOL    HW243903   9.297   3.287   1.321
14022SOL     OW43904  14.769  12.329   7.337
14022SOL    HW143905  14.770  12.284   7.422
14022SOL    HW243906  14.841  12.288   7.288
14023SOL     OW43907   8.065   0.007   9.983
14023SOL    HW143908   8.004   0.037   9.915
14023SOL    HW243909   8.038   0.053  10.062
14024SOL     OW43910   6.213  10.986  12.433
14024SOL    HW143911   6.158  10.988  12.512
14024SOL    HW243912   6.237  10.894  12.423
14025SOL     OW43913   3.295  14.832  10.308
14025SOL    HW143914   3.208  14.830  10.267
14025SOL    HW243915   3.302   0.045  10.346
14026SOL     OW43916  10.690   2.364   9.772
14026SOL    HW143917  10.723   2.436   9.719
14026SOL    HW243918  10.677   2.402   9.859
14027SOL     OW43919   7.190  10.359  14.423
14027SOL    HW143920   7.164  10.418  14.352
14027SOL    HW243921   7.227  10.418  14.489
14028SOL     OW43922  14.070   8.064  12.423
14028SOL    HW143923  14.047   8.009  12.498
14028SOL    HW243924  14.053   8.153  12.453
14029SOL     OW43925  10.238  11.731   0.383
14029SOL    HW143926  10.176  11.795   0.348
14029SOL    HW243927  10.184  11.655   0.404
14030SOL     OW43928  14.487   3.785   5.760
14030SOL    HW143929  14.421   3.721   5.787
14030SOL    HW243930  14.462   3.808   5.670
14031SOL     OW43931   2.687   9.119   2.522
14031SOL    HW143932   2.594   9.106   2.505
14031SOL    HW243933   2.719   9.032   2.546
14032SOL     OW43934  11.010   3.814   7.620
14032SOL    HW143935  11.012   3.855   7.706
14032SOL    HW243936  10.920   3.823   7.591
14033SOL     OW43937   4.305  13.916   9.773
14033SOL    HW143938   4.352  13.934   9.692
14033SOL    HW243939   4.224  13.968   9.765
14034SOL     OW43940  12.072   8.360   7.649
14034SOL    HW143941  11.995   8.330   7.600
14034SOL    HW243942  12.129   8.283   7.653
14035SOL     OW43943  13.721   6.842  10.892
14035SOL    HW143944  13.669   6.921  10.878
14035SOL    HW243945  13.752   6.818  10.804
14036SOL     OW43946  13.117   6.933   7.420
14036SOL    HW143947  13.122   6.845   7.382
14036SOL    HW243948  13.203   6.971   7.402
14037SOL     OW43949  13.725   0.585   4.059
14037SOL    HW143950  13.702   0.493   4.069
14037SOL    HW243951  13.666   0.618   3.991
14038SOL     OW43952   3.065   1.732   5.455
14038SOL    HW143953   3.113   1.707   5.534
14038SOL    HW243954   2.980   1.762   5.488
14039SOL     OW43955   6.812   0.717   5.652
14039SOL    HW143956   6.748   0.652   5.680
14039SOL    HW243957   6.881   0.714   5.719
14040SOL     OW43958   0.596   5.162  11.165
14040SOL    HW143959   0.517   5.109  11.178
14040SOL    HW243960   0.649   5.147  11.243
14041SOL     OW43961   7.787  14.030  14.846
14041SOL    HW143962   7.722  14.014   0.041
14041SOL    HW243963   7.752  14.105  14.797
14042SOL     OW43964   3.513   6.945   2.142
14042SOL    HW143965   3.531   6.864   2.189
14042SOL    HW243966   3.550   6.931   2.055
14043SOL     OW43967  14.158  10.599  10.973
14043SOL    HW143968  14.171  10.505  10.966
14043SOL    HW243969  14.194  10.635  10.891
14044SOL     OW43970  10.614  13.584   9.732
14044SOL    HW143971  10.693  13.544   9.696
14044SOL    HW243972  10.542  13.538   9.688
14045SOL     OW43973  12.439  12.250   0.433
14045SOL    HW143974  12.404  12.210   0.353
14045SOL    HW243975  12.532  12.227   0.433
14046SOL     OW43976  13.302   1.851  14.591
14046SOL    HW143977  13.316   1.848  14.496
14046SOL    HW243978  13.364   1.786  14.626
14047SOL     OW43979   4.827  14.794   8.169
14047SOL    HW143980   4.847   0.012   8.152
14047SOL    HW243981   4.912  14.751   8.168
14048SOL     OW43982  13.158  13.102   1.673
14048SOL    HW143983  13.071  13.099   1.713
14048SOL    HW243984  13.218  13.084   1.745
14049SOL     OW43985   1.147   8.499   5.615
14049SOL    HW143986   1.064   8.481   5.659
14049SOL    HW243987   1.135   8.587   5.578
14050SOL     OW43988   7.753  10.808  11.733
14050SOL    HW143989   7.788  10.741  11.792
14050SOL    HW243990   7.824  10.827  11.672
14051SOL     OW43991   1.110  12.485   5.052
14051SOL    HW143992   1.045  12.523   5.110
14051SOL    HW243993   1.112  12.543   4.976
14052SOL     OW43994   5.047   0.750  14.406
14052SOL    HW143995   5.108   0.773  14.476
14052SOL    HW243996   4.965   0.731  14.452
14053SOL     OW43997   8.799   3.419   3.722
14053SOL    HW143998   8.770   3.348   3.664
14053SOL    HW243999   8.880   3.385   3.762
14054SOL     OW44000   9.909   0.031   8.048
14054SOL    HW144001   9.969  14.848   8.096
14054SOL    HW244002   9.860  14.846   7.992
14055SOL     OW44003  14.774   8.118   1.596
14055SOL    HW144004  14.728   8.198   1.619
14055SOL    HW244005  14.797   8.078   1.680
14056SOL     OW44006   6.162  10.519   4.896
14056SOL    HW144007   6.149  10.430   4.862
14056SOL    HW244008   6.098  10.572   4.848
14057SOL     OW44009   3.839   7.936   1.493
14057SOL    HW144010   3.746   7.920   1.503
14057SOL    HW244011   3.865   7.887   1.415
14058SOL     OW44012   5.855   8.379   4.399
14058SOL    HW144013   5.950   8.382   4.404
14058SOL    HW244014   5.836   8.355   4.308
14059SOL     OW44015   3.871   4.278   1.395
14059SOL    HW144016   3.963   4.298   1.376
14059SOL    HW244017   3.827   4.363   1.393
14060SOL     OW44018   9.567   5.494   5.203
14060SOL    HW144019   9.545   5.579   5.241
14060SOL    HW244020   9.503   5.482   5.133
14061SOL     OW44021   8.810  11.836   1.769
14061SOL    HW144022   8.798  11.849   1.675
14061SOL    HW244023   8.849  11.749   1.777
14062SOL     OW44024   4.846  12.482   8.050
14062SOL    HW144025   4.897  12.486   8.131
14062SOL    HW244026   4.903  12.437   7.987
14063SOL     OW44027   5.330   7.044   9.203
14063SOL    HW144028   5.386   7.113   9.239
14063SOL    HW244029   5.247   7.053   9.249
14064SOL     OW44030   2.756  11.405   1.894
14064SOL    HW144031   2.731  11.455   1.817
14064SOL    HW244032   2.676  11.360   1.920
14065SOL     OW44033  10.214   3.875   7.330
14065SOL    HW144034  10.289   3.816   7.326
14065SOL    HW244035  10.155   3.834   7.393
14066SOL     OW44036   5.880   9.562   3.317
14066SOL    HW144037   5.857   9.596   3.230
14066SOL    HW244038   5.975   9.547   3.312
14067SOL     OW44039   7.334  13.884  10.142
14067SOL    HW144040   7.357  13.797  10.174
14067SOL    HW244041   7.406  13.908  10.083
14068SOL     OW44042   4.729  13.128   6.254
14068SOL    HW144043   4.676  13.181   6.194
14068SOL    HW244044   4.738  13.044   6.209
14069SOL     OW44045  10.847   4.529   5.024
14069SOL    HW144046  10.769   4.582   5.039
14069SOL    HW244047  10.918   4.593   5.019
14070SOL     OW44048   7.578  13.539   4.192
14070SOL    HW144049   7.669  13.553   4.163
14070SOL    HW244050   7.526  13.554   4.113
14071SOL     OW44051   6.014  11.315   8.571
14071SOL    HW144052   6.100  11.279   8.553
14071SOL    HW244053   5.973  11.251   8.630
14072SOL     OW44054   5.586   9.709   4.062
14072SOL    HW144055   5.635   9.627   4.066
14072SOL    HW244056   5.504   9.691   4.108
14073SOL     OW44057  13.616   4.319   4.464
14073SOL    HW144058  13.580   4.280   4.543
14073SOL    HW244059  13.577   4.269   4.392
14074SOL     OW44060   2.511  10.644  13.719
14074SOL    HW144061   2.493  10.668  13.810
14074SOL    HW244062   2.439  10.682  13.669
14075SOL     OW44063   1.906   9.018   5.357
14075SOL    HW144064   1.956   8.980   5.429
14075SOL    HW244065   1.921   9.112   5.363
14076SOL     OW44066  11.711   4.862  11.772
14076SOL    HW144067  11.772   4.822  11.833
14076SOL    HW244068  11.649   4.791  11.751
14077SOL     OW44069   3.612  10.964   7.813
14077SOL    HW144070   3.527  10.929   7.840
14077SOL    HW244071   3.651  10.894   7.760
14078SOL     OW44072  10.805   7.890   5.335
14078SOL    HW144073  10.789   7.937   5.254
14078SOL    HW244074  10.719   7.859   5.362
14079SOL     OW44075   6.269   8.078  12.626
14079SOL    HW144076   6.255   8.171  12.642
14079SOL    HW244077   6.337   8.075  12.558
14080SOL     OW44078   7.119  10.386   2.145
14080SOL    HW144079   7.109  10.352   2.056
14080SOL    HW244080   7.116  10.309   2.201
14081SOL     OW44081   9.761  11.500   6.262
14081SOL    HW144082   9.712  11.562   6.315
14081SOL    HW244083   9.833  11.550   6.225
14082SOL     OW44084   2.368   5.622   9.708
14082SOL    HW144085   2.429   5.557   9.674
14082SOL    HW244086   2.283   5.578   9.707
14083SOL     OW44087   7.882   6.774   4.021
14083SOL    HW144088   7.886   6.724   3.940
14083SOL    HW244089   7.929   6.720   4.085
14084SOL     OW44090   9.350  13.100   2.241
14084SOL    HW144091   9.299  13.099   2.161
14084SOL    HW244092   9.325  13.182   2.284
14085SOL     OW44093   1.488   0.627  11.706
14085SOL    HW144094   1.507   0.656  11.795
14085SOL    HW244095   1.572   0.634  11.660
14086SOL     OW44096   0.505   4.128   8.724
14086SOL    HW144097   0.419   4.170   8.718
14086SOL    HW244098   0.544   4.164   8.804
14087SOL     OW44099   4.091   9.987   4.683
14087SOL    HW144100   4.045  10.004   4.601
14087SOL    HW244101   4.149  10.062   4.693
14088SOL     OW44102  12.141  10.748   2.662
14088SOL    HW144103  12.098  10.751   2.747
14088SOL    HW244104  12.169  10.839   2.646
14089SOL     OW44105  10.024   6.604  14.206
14089SOL    HW144106  10.031   6.686  14.255
14089SOL    HW244107  10.056   6.537  14.266
14090SOL     OW44108   7.589   3.772   8.110
14090SOL    HW144109   7.581   3.775   8.206
14090SOL    HW244110   7.523   3.834   8.079
14091SOL     OW44111   0.144   0.074  13.382
14091SOL    HW144112   0.152   0.150  13.440
14091SOL    HW244113   0.140  14.873  13.441
14092SOL     OW44114   8.561   7.376  14.196
14092SOL    HW144115   8.517   7.457  14.222
14092SOL    HW244116   8.601   7.397  14.111
14093SOL     OW44117   8.888   9.040   2.825
14093SOL    HW144118   8.794   9.035   2.809
14093SOL    HW244119   8.906   9.133   2.834
14094SOL     OW44120  10.656  14.368  13.830
14094SOL    HW144121  10.578  14.336  13.876
14094SOL    HW244122  10.677  14.298  13.767
14095SOL     OW44123   6.369   1.048  12.689
14095SOL    HW144124   6.459   1.068  12.715
14095SOL    HW244125   6.324   1.031  12.772
14096SOL     OW44126   0.240   1.037   2.989
14096SOL    HW144127   0.320   1.029   3.041
14096SOL    HW244128   0.247   1.122   2.947
14097SOL     OW44129   2.055   5.516  14.284
14097SOL    HW144130   2.054   5.602  14.326
14097SOL    HW244131   1.994   5.463  14.337
14098SOL     OW44132  10.729  12.071   7.845
14098SOL    HW144133  10.808  12.037   7.803
14098SOL    HW244134  10.659  12.014   7.813
14099SOL     OW44135   6.119   9.011  13.329
14099SOL    HW144136   6.210   9.010  13.360
14099SOL    HW244137   6.079   9.087  13.372
14100SOL     OW44138   6.061   5.204  13.457
14100SOL    HW144139   6.088   5.294  13.438
14100SOL    HW244140   5.969   5.212  13.483
14101SOL     OW44141   9.504   2.694  10.965
14101SOL    HW144142   9.448   2.766  10.936
14101SOL    HW244143   9.444   2.620  10.974
14102SOL     OW44144   6.806   0.691   8.568
14102SOL    HW144145   6.838   0.639   8.495
14102SOL    HW244146   6.711   0.693   8.557
14103SOL     OW44147  13.306   0.648   2.214
14103SOL    HW144148  13.223   0.642   2.166
14103SOL    HW244149  13.339   0.559   2.218
14104SOL     OW44150  12.480   4.063   8.899
14104SOL    HW144151  12.501   4.157   8.893
14104SOL    HW244152  12.443   4.053   8.986
14105SOL     OW44153  11.780   2.220   1.935
14105SOL    HW144154  11.792   2.137   1.890
14105SOL    HW244155  11.836   2.214   2.012
14106SOL     OW44156   1.566   4.703   9.259
14106SOL    HW144157   1.512   4.774   9.293
14106SOL    HW244158   1.655   4.725   9.287
14107SOL     OW44159   0.529   8.361  10.486
14107SOL    HW144160   0.563   8.447  10.510
14107SOL    HW244161   0.487   8.328  10.565
14108SOL     OW44162   5.458  13.881   3.398
14108SOL    HW144163   5.417  13.812   3.451
14108SOL    HW244164   5.496  13.835   3.324
14109SOL     OW44165   8.281  13.114   5.846
14109SOL    HW144166   8.242  13.086   5.928
14109SOL    HW244167   8.375  13.098   5.858
14110SOL     OW44168   3.002   5.304   9.926
14110SOL    HW144169   2.932   5.239   9.925
14110SOL    HW244170   3.065   5.272   9.861
14111SOL     OW44171  13.858   5.116   1.533
14111SOL    HW144172  13.914   5.193   1.524
14111SOL    HW244173  13.784   5.133   1.474
14112SOL     OW44174   9.990  11.414   1.087
14112SOL    HW144175  10.002  11.320   1.103
14112SOL    HW244176   9.896  11.424   1.074
14113SOL     OW44177   6.141   7.150   6.639
14113SOL    HW144178   6.061   7.192   6.670
14113SOL    HW244179   6.123   7.127   6.548
14114SOL     OW44180   4.240   1.269   6.351
14114SOL    HW144181   4.309   1.251   6.415
14114SOL    HW244182   4.286   1.312   6.279
14115SOL     OW44183   6.991   1.634  13.083
14115SOL    HW144184   6.945   1.560  13.042
14115SOL    HW244185   7.060   1.656  13.020
14116SOL     OW44186   0.708   9.611   3.564
14116SOL    HW144187   0.722   9.693   3.610
14116SOL    HW244188   0.768   9.614   3.490
14117SOL     OW44189  11.080  10.363  12.070
14117SOL    HW144190  11.043  10.445  12.038
14117SOL    HW244191  11.148  10.341  12.006
14118SOL     OW44192   5.418  12.223   4.213
14118SOL    HW144193   5.391  12.280   4.141
14118SOL    HW244194   5.342  12.167   4.229
14119SOL     OW44195   3.755  13.342   0.786
14119SOL    HW144196   3.676  13.356   0.839
14119SOL    HW244197   3.818  13.403   0.823
14120SOL     OW44198   8.232  14.073   5.081
14120SOL    HW144199   8.289  14.147   5.102
14120SOL    HW244200   8.273  13.998   5.124
14121SOL     OW44201  13.876   2.261  13.246
14121SOL    HW144202  13.904   2.331  13.304
14121SOL    HW244203  13.837   2.306  13.171
14122SOL     OW44204  12.737   3.824   9.796
14122SOL    HW144205  12.683   3.752   9.828
14122SOL    HW244206  12.808   3.781   9.748
14123SOL     OW44207   7.985   3.614   7.705
14123SOL    HW144208   7.978   3.635   7.798
14123SOL    HW244209   8.033   3.531   7.703
14124SOL     OW44210   8.813   7.707  14.839
14124SOL    HW144211   8.870   7.751   0.028
14124SOL    HW244212   8.874   7.656  14.784
14125SOL     OW44213  10.777   3.313   6.366
14125SOL    HW144214  10.842   3.380   6.387
14125SOL    HW244215  10.746   3.281   6.451
14126SOL     OW44216   2.462   9.876  12.856
14126SOL    HW144217   2.525   9.914  12.918
14126SOL    HW244218   2.516   9.833  12.790
14127SOL     OW44219   3.173   7.826   8.146
14127SOL    HW144220   3.099   7.881   8.173
14127SOL    HW244221   3.250   7.881   8.161
14128SOL     OW44222   7.725   4.856   3.018
14128SOL    HW144223   7.634   4.887   3.015
14128SOL    HW244224   7.750   4.866   3.110
14129SOL     OW44225   8.908  12.569  13.698
14129SOL    HW144226   8.873  12.622  13.626
14129SOL    HW244227   8.859  12.597  13.775
14130SOL     OW44228   9.560   2.884   2.869
14130SOL    HW144229   9.494   2.853   2.930
14130SOL    HW244230   9.643   2.872   2.915
14131SOL     OW44231  11.990  11.031   6.642
14131SOL    HW144232  11.954  11.076   6.717
14131SOL    HW244233  12.066  10.984   6.676
14132SOL     OW44234   4.282  14.660   7.201
14132SOL    HW144235   4.195  14.664   7.242
14132SOL    HW244236   4.269  14.697   7.114
14133SOL     OW44237   8.197   7.313  13.675
14133SOL    HW144238   8.241   7.264  13.744
14133SOL    HW244239   8.162   7.390  13.718
14134SOL     OW44240  10.757   6.308   7.088
14134SOL    HW144241  10.680   6.355   7.117
14134SOL    HW244242  10.753   6.312   6.993
14135SOL     OW44243   2.274  14.500  14.000
14135SOL    HW144244   2.287  14.585  13.959
14135SOL    HW244245   2.216  14.517  14.075
14136SOL     OW44246   2.457  11.963   5.583
14136SOL    HW144247   2.467  11.923   5.669
14136SOL    HW244248   2.445  11.889   5.523
14137SOL     OW44249   9.178   7.765  13.503
14137SOL    HW144250   9.150   7.740  13.415
14137SOL    HW244251   9.121   7.715  13.561
14138SOL     OW44252   9.255   7.506   8.302
14138SOL    HW144253   9.238   7.600   8.310
14138SOL    HW244254   9.169   7.468   8.288
14139SOL     OW44255   4.713   9.084   1.237
14139SOL    HW144256   4.739   9.104   1.147
14139SOL    HW244257   4.795   9.085   1.286
14140SOL     OW44258   4.601  10.678  13.922
14140SOL    HW144259   4.626  10.587  13.903
14140SOL    HW244260   4.508  10.683  13.899
14141SOL     OW44261   0.812   0.446  11.547
14141SOL    HW144262   0.902   0.414  11.538
14141SOL    HW244263   0.758   0.369  11.532
14142SOL     OW44264   2.021   4.960   6.105
14142SOL    HW144265   1.981   5.045   6.123
14142SOL    HW244266   1.950   4.897   6.114
14143SOL     OW44267   9.071   1.613  11.872
14143SOL    HW144268   9.113   1.585  11.953
14143SOL    HW244269   9.139   1.659  11.823
14144SOL     OW44270   2.243   1.123  14.639
14144SOL    HW144271   2.193   1.202  14.660
14144SOL    HW244272   2.216   1.059  14.705
14145SOL     OW44273   9.081  10.094   5.907
14145SOL    HW144274   9.082   9.999   5.892
14145SOL    HW244275   8.990  10.119   5.896
14146SOL     OW44276   4.090   3.056  10.160
14146SOL    HW144277   4.045   2.987  10.112
14146SOL    HW244278   4.182   3.029  10.161
14147SOL     OW44279   0.541  10.720   7.105
14147SOL    HW144280   0.461  10.678   7.073
14147SOL    HW244281   0.533  10.717   7.200
14148SOL     OW44282   0.549   5.308  14.578
14148SOL    HW144283   0.581   5.265  14.499
14148SOL    HW244284   0.456   5.285  14.581
14149SOL     OW44285   2.318   8.869   5.080
14149SOL    HW144286   2.369   8.950   5.076
14149SOL    HW244287   2.338   8.823   4.999
14150SOL     OW44288  14.474  12.027   5.653
14150SOL    HW144289  14.472  12.028   5.557
14150SOL    HW244290  14.511  12.112   5.678
14151SOL     OW44291  12.383   4.117   2.000
14151SOL    HW144292  12.462   4.165   1.975
14151SOL    HW244293  12.314   4.183   2.003
14152SOL     OW44294   9.746  14.424   5.782
14152SOL    HW144295   9.840  14.422   5.765
14152SOL    HW244296   9.738  14.398   5.874
14153SOL     OW44297   4.715   9.929   6.528
14153SOL    HW144298   4.665   9.851   6.505
14153SOL    HW244299   4.708   9.985   6.450
14154SOL     OW44300   8.109   1.085  13.740
14154SOL    HW144301   8.040   1.063  13.678
14154SOL    HW244302   8.064   1.094  13.824
14155SOL     OW44303   1.491  10.757  11.446
14155SOL    HW144304   1.502  10.751  11.351
14155SOL    HW244305   1.571  10.798  11.477
14156SOL     OW44306   9.320   8.203   8.704
14156SOL    HW144307   9.401   8.253   8.699
14156SOL    HW244308   9.332   8.131   8.643
14157SOL     OW44309   6.841   2.923   2.879
14157SOL    HW144310   6.748   2.907   2.891
14157SOL    HW244311   6.868   2.969   2.959
14158SOL     OW44312   3.346   2.844   8.865
14158SOL    HW144313   3.414   2.862   8.799
14158SOL    HW244314   3.393   2.801   8.936
14159SOL     OW44315  11.593   7.009   5.921
14159SOL    HW144316  11.530   7.042   5.857
14159SOL    HW244317  11.607   7.082   5.982
14160SOL     OW44318   0.715   7.549   8.710
14160SOL    HW144319   0.657   7.546   8.633
14160SOL    HW244320   0.797   7.586   8.678
14161SOL     OW44321  12.768   4.837   7.278
14161SOL    HW144322  12.802   4.748   7.270
14161SOL    HW244323  12.679   4.825   7.312
14162SOL     OW44324  11.796  11.014  10.427
14162SOL    HW144325  11.891  11.014  10.422
14162SOL    HW244326  11.767  10.976  10.344
14163SOL     OW44327  12.898   2.922   2.292
14163SOL    HW144328  12.942   2.990   2.240
14163SOL    HW244329  12.817   2.963   2.322
14164SOL     OW44330   7.034   0.993   1.793
14164SOL    HW144331   6.963   0.983   1.730
14164SOL    HW244332   7.098   1.049   1.749
14165SOL     OW44333   7.772  14.091  12.999
14165SOL    HW144334   7.862  14.120  13.017
14165SOL    HW244335   7.719  14.134  13.066
14166SOL     OW44336  10.100  10.161  10.749
14166SOL    HW144337  10.126  10.089  10.806
14166SOL    HW244338  10.083  10.234  10.809
14167SOL     OW44339   7.366   0.486  14.211
14167SOL    HW144340   7.369   0.498  14.306
14167SOL    HW244341   7.339   0.571  14.177
14168SOL     OW44342   5.137  13.933   7.359
14168SOL    HW144343   5.100  13.890   7.282
14168SOL    HW244344   5.166  14.018   7.327
14169SOL     OW44345  13.819  12.980  10.377
14169SOL    HW144346  13.828  12.972  10.282
14169SOL    HW244347  13.754  12.914  10.400
14170SOL     OW44348   6.999  14.317   2.494
14170SOL    HW144349   6.938  14.295   2.424
14170SOL    HW244350   6.944  14.334   2.570
14171SOL     OW44351   5.094   0.704   1.711
14171SOL    HW144352   5.075   0.796   1.690
14171SOL    HW244353   5.118   0.706   1.804
14172SOL     OW44354   5.202   3.810   6.910
14172SOL    HW144355   5.221   3.902   6.930
14172SOL    HW244356   5.257   3.761   6.972
14173SOL     OW44357  12.662  12.343   3.137
14173SOL    HW144358  12.713  12.340   3.057
14173SOL    HW244359  12.650  12.436   3.155
14174SOL     OW44360  14.650   4.084   1.897
14174SOL    HW144361  14.575   4.053   1.947
14174SOL    HW244362  14.653   4.178   1.913
14175SOL     OW44363  13.168  12.409  14.479
14175SOL    HW144364  13.201  12.489  14.438
14175SOL    HW244365  13.177  12.342  14.411
14176SOL     OW44366  13.860   4.350   7.000
14176SOL    HW144367  13.945   4.340   6.957
14176SOL    HW244368  13.860   4.284   7.068
14177SOL     OW44369   8.237  12.114  11.797
14177SOL    HW144370   8.205  12.039  11.847
14177SOL    HW244371   8.233  12.188  11.858
14178SOL     OW44372  11.563  10.401  10.511
14178SOL    HW144373  11.561  10.479  10.567
14178SOL    HW244374  11.620  10.425  10.438
14179SOL     OW44375   2.018   3.930   1.070
14179SOL    HW144376   2.101   3.916   1.113
14179SOL    HW244377   2.014   4.025   1.055
14180SOL     OW44378  14.488  10.872   6.796
14180SOL    HW144379  14.485  10.777   6.797
14180SOL    HW244380  14.472  10.897   6.705
14181SOL     OW44381   8.299   4.428   8.661
14181SOL    HW144382   8.375   4.467   8.619
14181SOL    HW244383   8.297   4.466   8.749
14182SOL     OW44384  11.292   3.328   2.065
14182SOL    HW144385  11.348   3.259   2.031
14182SOL    HW244386  11.346   3.407   2.062
14183SOL     OW44387   1.505  10.248  11.457
14183SOL    HW144388   1.524  10.341  11.468
14183SOL    HW244389   1.547  10.206  11.532
14184SOL     OW44390   9.441   2.565  11.956
14184SOL    HW144391   9.484   2.553  11.871
14184SOL    HW244392   9.497   2.627  12.003
14185SOL     OW44393   6.599   5.828  13.622
14185SOL    HW144394   6.658   5.881  13.568
14185SOL    HW244395   6.521   5.883  13.632
14186SOL     OW44396   0.493   0.690   6.597
14186SOL    HW144397   0.479   0.597   6.617
14186SOL    HW244398   0.586   0.704   6.610
14187SOL     OW44399   0.954   4.217   0.206
14187SOL    HW144400   0.880   4.158   0.222
14187SOL    HW244401   0.949   4.237   0.112
14188SOL     OW44402  11.570   9.353  10.058
14188SOL    HW144403  11.549   9.341   9.966
14188SOL    HW244404  11.537   9.274  10.101
14189SOL     OW44405   0.173  14.699   4.585
14189SOL    HW144406   0.165  14.620   4.532
14189SOL    HW244407   0.242  14.680   4.648
14190SOL     OW44408  12.362   4.250  14.681
14190SOL    HW144409  12.393   4.169  14.721
14190SOL    HW244410  12.431   4.274  14.619
14191SOL     OW44411  13.812   3.645  13.254
14191SOL    HW144412  13.869   3.711  13.293
14191SOL    HW244413  13.861   3.563  13.261
14192SOL     OW44414   7.005  12.481   0.924
14192SOL    HW144415   6.963  12.549   0.978
14192SOL    HW244416   6.988  12.399   0.970
14193SOL     OW44417   8.509  11.149   3.276
14193SOL    HW144418   8.547  11.076   3.325
14193SOL    HW244419   8.418  11.153   3.305
14194SOL     OW44420  11.100   9.912   1.817
14194SOL    HW144421  11.129   9.971   1.887
14194SOL    HW244422  11.005   9.920   1.817
14195SOL     OW44423   6.176  14.415  11.258
14195SOL    HW144424   6.162  14.324  11.284
14195SOL    HW244425   6.232  14.450  11.327
14196SOL     OW44426   3.576  14.012   7.553
14196SOL    HW144427   3.627  14.087   7.582
14196SOL    HW244428   3.488  14.028   7.590
14197SOL     OW44429   3.679   8.112   7.374
14197SOL    HW144430   3.619   8.186   7.383
14197SOL    HW244431   3.674   8.068   7.459
14198SOL     OW44432   0.211   1.624   4.455
14198SOL    HW144433   0.193   1.714   4.482
14198SOL    HW244434   0.252   1.584   4.532
14199SOL     OW44435   2.648   2.155   6.815
14199SOL    HW144436   2.634   2.228   6.754
14199SOL    HW244437   2.718   2.104   6.775
14200SOL     OW44438   9.546   3.115   4.726
14200SOL    HW144439   9.593   3.165   4.660
14200SOL    HW244440   9.579   3.150   4.810
14201SOL     OW44441   5.246   1.140   2.210
14201SOL    HW144442   5.296   1.084   2.269
14201SOL    HW244443   5.216   1.082   2.140
14202SOL     OW44444   3.287  11.656   1.526
14202SOL    HW144445   3.318  11.732   1.476
14202SOL    HW244446   3.368  11.611   1.553
14203SOL     OW44447   4.870  12.155   6.493
14203SOL    HW144448   4.903  12.073   6.531
14203SOL    HW244449   4.836  12.129   6.408
14204SOL     OW44450   0.943  10.703   6.822
14204SOL    HW144451   0.953  10.704   6.917
14204SOL    HW244452   1.018  10.752   6.789
14205SOL     OW44453   9.397   5.143   1.544
14205SOL    HW144454   9.375   5.205   1.614
14205SOL    HW244455   9.356   5.180   1.466
14206SOL     OW44456  10.750  10.511   9.278
14206SOL    HW144457  10.741  10.512   9.183
14206SOL    HW244458  10.769  10.420   9.300
14207SOL     OW44459  11.618   0.484   5.413
14207SOL    HW144460  11.544   0.443   5.368
14207SOL    HW244461  11.579   0.551   5.468
14208SOL     OW44462  14.232  14.457   1.099
14208SOL    HW144463  14.306  14.490   1.149
14208SOL    HW244464  14.266  14.381   1.052
14209SOL     OW44465   4.410   0.984   1.872
14209SOL    HW144466   4.317   0.993   1.851
14209SOL    HW244467   4.442   1.074   1.872
14210SOL     OW44468   3.166   0.397  11.635
14210SOL    HW144469   3.158   0.457  11.560
14210SOL    HW244470   3.221   0.326  11.602
14211SOL     OW44471   7.679   8.962  12.682
14211SOL    HW144472   7.669   9.024  12.754
14211SOL    HW244473   7.635   9.003  12.608
14212SOL     OW44474  10.555   8.914  12.688
14212SOL    HW144475  10.534   8.853  12.617
14212SOL    HW244476  10.479   8.910  12.746
14213SOL     OW44477  14.208   6.616   1.758
14213SOL    HW144478  14.185   6.607   1.850
14213SOL    HW244479  14.201   6.709   1.740
14214SOL     OW44480   1.019  14.662  10.361
14214SOL    HW144481   1.113  14.680  10.352
14214SOL    HW244482   1.014  14.572  10.391
14215SOL     OW44483   9.928   7.917   8.772
14215SOL    HW144484  10.005   7.927   8.828
14215SOL    HW244485   9.952   7.849   8.709
14216SOL     OW44486   1.067   8.863  14.349
14216SOL    HW144487   0.981   8.837  14.381
14216SOL    HW244488   1.071   8.830  14.259
14217SOL     OW44489   9.490  13.076   0.749
14217SOL    HW144490   9.494  13.123   0.833
14217SOL    HW244491   9.530  13.137   0.686
14218SOL     OW44492   6.652  12.753   5.281
14218SOL    HW144493   6.574  12.804   5.260
14218SOL    HW244494   6.686  12.793   5.361
14219SOL     OW44495  11.390   8.656   8.884
14219SOL    HW144496  11.303   8.651   8.845
14219SOL    HW244497  11.397   8.578   8.938
14220SOL     OW44498  10.275   6.820  13.847
14220SOL    HW144499  10.324   6.812  13.765
14220SOL    HW244500  10.198   6.871  13.824
14221SOL     OW44501  13.965   8.699   1.228
14221SOL    HW144502  13.879   8.657   1.216
14221SOL    HW244503  14.028   8.633   1.197
14222SOL     OW44504   0.859   0.991   5.109
14222SOL    HW144505   0.781   0.968   5.158
14222SOL    HW244506   0.915   1.037   5.172
14223SOL     OW44507   6.985  10.865  10.730
14223SOL    HW144508   7.058  10.847  10.671
14223SOL    HW244509   7.003  10.953  10.763
14224SOL     OW44510  10.608   7.381   6.434
14224SOL    HW144511  10.562   7.441   6.375
14224SOL    HW244512  10.647   7.316   6.376
14225SOL     OW44513   0.880   8.905  13.368
14225SOL    HW144514   0.816   8.918  13.439
14225SOL    HW244515   0.877   8.987  13.318
14226SOL     OW44516   3.629   8.813  10.552
14226SOL    HW144517   3.675   8.735  10.523
14226SOL    HW244518   3.537   8.788  10.552
14227SOL     OW44519  10.718  11.147  14.228
14227SOL    HW144520  10.674  11.231  14.239
14227SOL    HW244521  10.810  11.170  14.212
14228SOL     OW44522   1.043   9.855  11.655
14228SOL    HW144523   1.001   9.784  11.608
14228SOL    HW244524   1.137   9.836  11.651
14229SOL     OW44525   4.824   8.292   3.001
14229SOL    HW144526   4.758   8.300   3.071
14229SOL    HW244527   4.882   8.223   3.031
14230SOL     OW44528   6.789  14.246   2.035
14230SOL    HW144529   6.774  14.155   2.059
14230SOL    HW244530   6.876  14.266   2.072
14231SOL     OW44531  12.061  13.566  11.568
14231SOL    HW144532  12.052  13.573  11.663
14231SOL    HW244533  12.078  13.656  11.539
14232SOL     OW44534   0.359   1.825   0.458
14232SOL    HW144535   0.441   1.867   0.484
14232SOL    HW244536   0.307   1.895   0.417
14233SOL     OW44537   2.750   3.953   9.085
14233SOL    HW144538   2.835   3.968   9.126
14233SOL    HW244539   2.687   3.955   9.157
14234SOL     OW44540   2.943  14.216   1.249
14234SOL    HW144541   2.983  14.153   1.190
14234SOL    HW244542   2.877  14.261   1.196
14235SOL     OW44543   6.739   9.760   6.597
14235SOL    HW144544   6.681   9.702   6.547
14235SOL    HW244545   6.826   9.720   6.588
14236SOL     OW44546   2.136  13.439   2.555
14236SOL    HW144547   2.186  13.423   2.474
14236SOL    HW244548   2.122  13.533   2.556
14237SOL     OW44549   5.715   8.716   3.610
14237SOL    HW144550   5.753   8.693   3.695
14237SOL    HW244551   5.713   8.811   3.610
14238SOL     OW44552   3.785   9.072   5.192
14238SOL    HW144553   3.804   9.165   5.194
14238SOL    HW244554   3.744   9.058   5.106
14239SOL     OW44555   9.236   9.494   5.925
14239SOL    HW144556   9.154   9.450   5.901
14239SOL    HW244557   9.212   9.586   5.933
14240SOL     OW44558   9.162   8.455   4.771
14240SOL    HW144559   9.092   8.503   4.726
14240SOL    HW244560   9.241   8.476   4.722
14241SOL     OW44561   8.280  11.234   6.193
14241SOL    HW144562   8.275  11.324   6.162
14241SOL    HW244563   8.279  11.240   6.288
14242SOL     OW44564  14.105   5.128   4.265
14242SOL    HW144565  14.115   5.070   4.190
14242SOL    HW244566  14.195   5.150   4.290
14243SOL     OW44567   8.988   6.909   4.572
14243SOL    HW144568   9.052   6.859   4.522
14243SOL    HW244569   8.909   6.906   4.519
14244SOL     OW44570  10.863   7.771   8.189
14244SOL    HW144571  10.875   7.681   8.220
14244SOL    HW244572  10.786   7.803   8.237
14245SOL     OW44573   1.039   1.136  13.628
14245SOL    HW144574   0.981   1.206  13.658
14245SOL    HW244575   0.980   1.070  13.592
14246SOL     OW44576  13.499   9.830   4.122
14246SOL    HW144577  13.589   9.826   4.091
14246SOL    HW244578  13.474   9.739   4.135
14247SOL     OW44579   7.380  11.006   5.028
14247SOL    HW144580   7.394  11.092   5.068
14247SOL    HW244581   7.344  11.025   4.942
14248SOL     OW44582  12.091   3.390   1.018
14248SOL    HW144583  12.083   3.414   0.925
14248SOL    HW244584  12.185   3.386   1.033
14249SOL     OW44585   3.543   5.784  12.000
14249SOL    HW144586   3.614   5.833  12.043
14249SOL    HW244587   3.552   5.806  11.908
14250SOL     OW44588   9.936   6.692   6.946
14250SOL    HW144589   9.993   6.761   6.912
14250SOL    HW244590   9.903   6.649   6.867
14251SOL     OW44591   1.573   1.163   6.125
14251SOL    HW144592   1.492   1.174   6.174
14251SOL    HW244593   1.641   1.157   6.192
14252SOL     OW44594   0.479   9.132  11.055
14252SOL    HW144595   0.483   9.197  11.125
14252SOL    HW244596   0.389   9.136  11.023
14253SOL     OW44597   7.588  13.733  14.630
14253SOL    HW144598   7.540  13.651  14.619
14253SOL    HW244599   7.666  13.709  14.680
14254SOL     OW44600   1.704   3.858   5.154
14254SOL    HW144601   1.725   3.819   5.069
14254SOL    HW244602   1.640   3.798   5.192
14255SOL     OW44603   4.601   2.789  14.434
14255SOL    HW144604   4.639   2.745  14.358
14255SOL    HW244605   4.507   2.773  14.426
14256SOL     OW44606   0.885  10.474   4.226
14256SOL    HW144607   0.955  10.492   4.288
14256SOL    HW244608   0.815  10.437   4.279
14257SOL     OW44609   4.976   6.525   7.614
14257SOL    HW144610   5.007   6.436   7.626
14257SOL    HW244611   5.056   6.577   7.602
14258SOL     OW44612   9.232   1.292   6.870
14258SOL    HW144613   9.149   1.331   6.898
14258SOL    HW244614   9.293   1.365   6.867
14259SOL     OW44615  10.025  13.636   2.271
14259SOL    HW144616  10.000  13.580   2.344
14259SOL    HW244617   9.942  13.665   2.233
14260SOL     OW44618  12.437  12.170  11.673
14260SOL    HW144619  12.524  12.194  11.639
14260SOL    HW244620  12.416  12.087  11.629
14261SOL     OW44621   4.225  11.175  11.388
14261SOL    HW144622   4.289  11.134  11.329
14261SOL    HW244623   4.148  11.190  11.333
14262SOL     OW44624   8.483  10.276  10.312
14262SOL    HW144625   8.495  10.345  10.377
14262SOL    HW244626   8.412  10.308  10.256
14263SOL     OW44627   2.217   4.514   2.884
14263SOL    HW144628   2.294   4.530   2.939
14263SOL    HW244629   2.252   4.508   2.795
14264SOL     OW44630   2.629   9.991  10.984
14264SOL    HW144631   2.712  10.037  10.971
14264SOL    HW244632   2.564  10.060  10.995
14265SOL     OW44633  14.719   9.464  11.653
14265SOL    HW144634  14.681   9.458  11.565
14265SOL    HW244635  14.664   9.529  11.698
14266SOL     OW44636   0.377   4.987   9.534
14266SOL    HW144637   0.295   5.019   9.572
14266SOL    HW244638   0.395   4.906   9.582
14267SOL     OW44639   7.469   9.147   4.490
14267SOL    HW144640   7.450   9.221   4.432
14267SOL    HW244641   7.383   9.106   4.504
14268SOL     OW44642   8.985  10.013   0.861
14268SOL    HW144643   8.893   9.992   0.879
14268SOL    HW244644   9.011   9.950   0.794
14269SOL     OW44645   0.061   0.016   8.711
14269SOL    HW144646  14.866  14.826   8.695
14269SOL    HW244647   0.062   0.071   8.633
14270SOL     OW44648   8.586   6.792   2.044
14270SOL    HW144649   8.621   6.711   2.083
14270SOL    HW244650   8.611   6.787   1.952
14271SOL     OW44651  14.071   1.424   4.097
14271SOL    HW144652  14.159   1.431   4.061
14271SOL    HW244653  14.047   1.514   4.119
14272SOL     OW44654  12.890   3.579  12.571
14272SOL    HW144655  12.955   3.646  12.551
14272SOL    HW244656  12.806   3.626  12.568
14273SOL     OW44657  11.059   7.528   4.434
14273SOL    HW144658  10.965   7.529   4.452
14273SOL    HW244659  11.071   7.595   4.367
14274SOL     OW44660  12.723   4.628   7.000
14274SOL    HW144661  12.738   4.717   7.031
14274SOL    HW244662  12.687   4.639   6.912
14275SOL     OW44663   1.495   3.848  13.148
14275SOL    HW144664   1.413   3.882  13.113
14275SOL    HW244665   1.518   3.777  13.088
14276SOL     OW44666   7.719   4.511   9.612
14276SOL    HW144667   7.639   4.459   9.617
14276SOL    HW244668   7.775   4.474   9.681
14277SOL     OW44669   4.898   2.748   7.423
14277SOL    HW144670   4.813   2.707   7.441
14277SOL    HW244671   4.917   2.800   7.500
14278SOL     OW44672  10.900  10.051  12.678
14278SOL    HW144673  10.812  10.034  12.712
14278SOL    HW244674  10.916  10.143  12.695
14279SOL     OW44675   9.143   6.969  11.668
14279SOL    HW144676   9.077   6.903  11.643
14279SOL    HW244677   9.099   7.053  11.657
14280SOL     OW44678   4.631   3.974   3.676
14280SOL    HW144679   4.682   3.893   3.673
14280SOL    HW244680   4.597   3.984   3.587
14281SOL     OW44681   4.795   4.743  13.142
14281SOL    HW144682   4.770   4.710  13.229
14281SOL    HW244683   4.712   4.764  13.100
14282SOL     OW44684  14.729   9.989   4.361
14282SOL    HW144685  14.816   9.952   4.347
14282SOL    HW244686  14.671   9.935   4.308
14283SOL     OW44687  14.480   1.637  10.065
14283SOL    HW144688  14.423   1.623  10.141
14283SOL    HW244689  14.423   1.628   9.990
14284SOL     OW44690   2.188   9.581  13.520
14284SOL    HW144691   2.174   9.504  13.465
14284SOL    HW244692   2.282   9.581  13.537
14285SOL     OW44693   1.240   8.131   7.079
14285SOL    HW144694   1.236   8.038   7.059
14285SOL    HW244695   1.329   8.157   7.053
14286SOL     OW44696   3.305   4.716  10.618
14286SOL    HW144697   3.352   4.793  10.650
14286SOL    HW244698   3.354   4.690  10.540
14287SOL     OW44699   7.616   3.663  14.539
14287SOL    HW144700   7.655   3.747  14.563
14287SOL    HW244701   7.670   3.632  14.466
14288SOL     OW44702   1.305   7.748   5.434
14288SOL    HW144703   1.334   7.777   5.347
14288SOL    HW244704   1.289   7.829   5.482
14289SOL     OW44705   2.861   3.052  11.155
14289SOL    HW144706   2.875   3.146  11.165
14289SOL    HW244707   2.944   3.012  11.182
14290SOL     OW44708  13.721   7.588   0.768
14290SOL    HW144709  13.724   7.663   0.828
14290SOL    HW244710  13.807   7.589   0.726
14291SOL     OW44711   2.679  11.464   5.261
14291SOL    HW144712   2.671  11.399   5.331
14291SOL    HW244713   2.720  11.540   5.302
14292SOL     OW44714  13.918   4.110   3.031
14292SOL    HW144715  13.829   4.103   2.997
14292SOL    HW244716  13.945   4.019   3.047
14293SOL     OW44717   1.427  11.398   3.117
14293SOL    HW144718   1.495  11.437   3.173
14293SOL    HW244719   1.347  11.443   3.141
14294SOL     OW44720  12.162   2.964  14.517
14294SOL    HW144721  12.189   3.055  14.526
14294SOL    HW244722  12.243   2.916  14.501
14295SOL     OW44723   1.536   1.073  10.511
14295SOL    HW144724   1.452   1.055  10.467
14295SOL    HW244725   1.538   1.012  10.585
14296SOL     OW44726  11.982  11.550   0.810
14296SOL    HW144727  11.929  11.473   0.831
14296SOL    HW244728  11.921  11.624   0.816
14297SOL     OW44729   3.587   5.283   4.477
14297SOL    HW144730   3.516   5.253   4.533
14297SOL    HW244731   3.615   5.205   4.429
14298SOL     OW44732  12.702   1.672   7.498
14298SOL    HW144733  12.654   1.593   7.470
14298SOL    HW244734  12.633   1.736   7.516
14299SOL     OW44735  12.448  12.708   4.948
14299SOL    HW144736  12.453  12.780   5.011
14299SOL    HW244737  12.420  12.633   5.001
14300SOL     OW44738   7.144  10.624   5.546
14300SOL    HW144739   7.151  10.543   5.596
14300SOL    HW244740   7.145  10.596   5.454
14301SOL     OW44741   8.590  11.959  11.271
14301SOL    HW144742   8.554  11.880  11.313
14301SOL    HW244743   8.565  11.950  11.179
14302SOL     OW44744   7.332   7.109   1.340
14302SOL    HW144745   7.340   7.022   1.301
14302SOL    HW244746   7.418   7.149   1.328
14303SOL     OW44747   1.011   0.401   4.873
14303SOL    HW144748   1.021   0.420   4.780
14303SOL    HW244749   0.979   0.311   4.876
14304SOL     OW44750   5.549  13.783   2.229
14304SOL    HW144751   5.630  13.794   2.179
14304SOL    HW244752   5.565  13.830   2.311
14305SOL     OW44753  11.301  11.074  10.533
14305SOL    HW144754  11.358  11.037  10.600
14305SOL    HW244755  11.227  11.111  10.582
14306SOL     OW44756   8.978  11.415   5.321
14306SOL    HW144757   8.962  11.346   5.385
14306SOL    HW244758   8.904  11.474   5.330
14307SOL     OW44759   7.590   4.426   7.057
14307SOL    HW144760   7.593   4.522   7.055
14307SOL    HW244761   7.662   4.399   7.000
14308SOL     OW44762   1.700   6.536   4.243
14308SOL    HW144763   1.661   6.563   4.326
14308SOL    HW244764   1.652   6.458   4.217
14309SOL     OW44765   4.021  11.402   2.888
14309SOL    HW144766   4.065  11.443   2.813
14309SOL    HW244767   3.990  11.476   2.941
14310SOL     OW44768   2.956   1.926   1.890
14310SOL    HW144769   3.019   1.872   1.842
14310SOL    HW244770   2.907   1.863   1.944
14311SOL     OW44771   0.909   1.260   0.911
14311SOL    HW144772   0.856   1.250   0.990
14311SOL    HW244773   0.889   1.182   0.859
14312SOL     OW44774   6.927  12.485   9.332
14312SOL    HW144775   6.906  12.572   9.296
14312SOL    HW244776   6.848  12.458   9.379
14313SOL     OW44777  12.461   5.561   2.339
14313SOL    HW144778  12.399   5.624   2.377
14313SOL    HW244779  12.522   5.541   2.411
14314SOL     OW44780   9.880   8.308  13.100
14314SOL    HW144781   9.892   8.381  13.038
14314SOL    HW244782   9.825   8.246  13.053
14315SOL     OW44783  12.723   8.944   9.182
14315SOL    HW144784  12.732   8.970   9.090
14315SOL    HW244785  12.698   9.025   9.227
14316SOL     OW44786  14.550   9.594  13.667
14316SOL    HW144787  14.497   9.672  13.655
14316SOL    HW244788  14.617   9.618  13.732
14317SOL     OW44789  12.563   7.092   5.037
14317SOL    HW144790  12.473   7.073   5.010
14317SOL    HW244791  12.555   7.137   5.121
14318SOL     OW44792  12.855   8.526   6.609
14318SOL    HW144793  12.858   8.445   6.660
14318SOL    HW244794  12.772   8.523   6.563
14319SOL     OW44795   6.360  12.850   4.673
14319SOL    HW144796   6.323  12.903   4.603
14319SOL    HW244797   6.286  12.833   4.732
14320SOL     OW44798  14.462   5.573   3.509
14320SOL    HW144799  14.410   5.506   3.553
14320SOL    HW244800  14.547   5.570   3.553
14321SOL     OW44801  14.470   7.342  14.555
14321SOL    HW144802  14.385   7.343  14.597
14321SOL    HW244803  14.518   7.414  14.596
14322SOL     OW44804   0.616   9.348  11.825
14322SOL    HW144805   0.677   9.338  11.897
14322SOL    HW244806   0.597   9.258  11.796
14323SOL     OW44807  13.272  13.301   3.731
14323SOL    HW144808  13.279  13.396   3.745
14323SOL    HW244809  13.186  13.279   3.764
14324SOL     OW44810   8.353  10.394   1.719
14324SOL    HW144811   8.278  10.336   1.708
14324SOL    HW244812   8.317  10.474   1.758
14325SOL     OW44813   0.853   6.482   6.704
14325SOL    HW144814   0.871   6.391   6.729
14325SOL    HW244815   0.935   6.528   6.719
14326SOL     OW44816  12.188   2.131  11.573
14326SOL    HW144817  12.278   2.111  11.546
14326SOL    HW244818  12.199   2.197  11.642
14327SOL     OW44819  14.381   1.279   4.724
14327SOL    HW144820  14.365   1.373   4.718
14327SOL    HW244821  14.404   1.265   4.816
14328SOL     OW44822  10.888   5.177   8.968
14328SOL    HW144823  10.966   5.183   9.023
14328SOL    HW244824  10.817   5.209   9.023
14329SOL     OW44825   5.643   9.800   1.229
14329SOL    HW144826   5.636   9.845   1.313
14329SOL    HW244827   5.554   9.800   1.194
14330SOL     OW44828   4.271  10.394   6.413
14330SOL    HW144829   4.350  10.374   6.463
14330SOL    HW244830   4.213  10.319   6.428
14331SOL     OW44831   1.600  10.936   4.847
14331SOL    HW144832   1.569  10.851   4.879
14331SOL    HW244833   1.523  10.976   4.808
14332SOL     OW44834   2.061   9.353  11.786
14332SOL    HW144835   2.068   9.447  11.771
14332SOL    HW244836   1.967   9.337  11.799
14333SOL     OW44837  13.721   3.921  11.863
14333SOL    HW144838  13.770   3.850  11.903
14333SOL    HW244839  13.785   3.990  11.850
14334SOL     OW44840   2.334   1.811   5.173
14334SOL    HW144841   2.241   1.826   5.188
14334SOL    HW244842   2.353   1.855   5.090
14335SOL     OW44843  10.997   9.723   8.536
14335SOL    HW144844  11.064   9.716   8.468
14335SOL    HW244845  10.997   9.816   8.560
14336SOL     OW44846  14.674  12.455   1.246
14336SOL    HW144847  14.656  12.473   1.338
14336SOL    HW244848  14.654  12.363   1.235
14337SOL     OW44849   0.371  14.044   1.198
14337SOL    HW144850   0.353  14.125   1.150
14337SOL    HW244851   0.465  14.046   1.214
14338SOL     OW44852   1.213  14.106  12.003
14338SOL    HW144853   1.302  14.107  11.970
14338SOL    HW244854   1.176  14.023  11.972
14339SOL     OW44855  11.211   3.898   3.438
14339SOL    HW144856  11.127   3.914   3.482
14339SOL    HW244857  11.250   3.825   3.485
14340SOL     OW44858   9.811   1.499  10.587
14340SOL    HW144859   9.722   1.483  10.558
14340SOL    HW244860   9.821   1.445  10.666
14341SOL     OW44861   0.081   5.615   3.171
14341SOL    HW144862   0.071   5.526   3.205
14341SOL    HW244863   0.014   5.665   3.218
14342SOL     OW44864  13.153   2.315   1.673
14342SOL    HW144865  13.116   2.234   1.707
14342SOL    HW244866  13.174   2.296   1.581
14343SOL     OW44867  13.100   5.094  14.620
14343SOL    HW144868  13.052   5.055  14.693
14343SOL    HW244869  13.066   5.184  14.614
14344SOL     OW44870  14.026   3.195  13.334
14344SOL    HW144871  13.936   3.170  13.353
14344SOL    HW244872  14.053   3.137  13.263
14345SOL     OW44873   6.377  11.993  12.541
14345SOL    HW144874   6.404  11.957  12.456
14345SOL    HW244875   6.440  12.063  12.558
14346SOL     OW44876   3.568  10.470   8.703
14346SOL    HW144877   3.477  10.442   8.712
14346SOL    HW244878   3.587  10.461   8.609
14347SOL     OW44879   8.776   4.283   6.738
14347SOL    HW144880   8.702   4.314   6.789
14347SOL    HW244881   8.738   4.256   6.654
14348SOL     OW44882  12.154   5.796  13.816
14348SOL    HW144883  12.114   5.881  13.834
14348SOL    HW244884  12.190   5.767  13.900
14349SOL     OW44885   6.021   1.920   1.922
14349SOL    HW144886   5.942   1.965   1.892
14349SOL    HW244887   6.090   1.953   1.865
14350SOL     OW44888   5.609   8.996   6.956
14350SOL    HW144889   5.549   8.921   6.952
14350SOL    HW244890   5.659   8.990   6.875
14351SOL     OW44891  14.274   5.819   2.375
14351SOL    HW144892  14.287   5.729   2.405
14351SOL    HW244893  14.180   5.828   2.364
14352SOL     OW44894   0.198  11.892   6.035
14352SOL    HW144895   0.260  11.949   5.990
14352SOL    HW244896   0.161  11.947   6.104
14353SOL     OW44897  13.125  13.583   4.287
14353SOL    HW144898  13.138  13.633   4.206
14353SOL    HW244899  13.113  13.650   4.354
14354SOL     OW44900  11.216   9.672   7.204
14354SOL    HW144901  11.166   9.594   7.182
14354SOL    HW244902  11.286   9.675   7.140
14355SOL     OW44903   8.704   4.379  11.588
14355SOL    HW144904   8.616   4.364  11.621
14355SOL    HW244905   8.758   4.387  11.666
14356SOL     OW44906   5.565   1.554   9.442
14356SOL    HW144907   5.559   1.649   9.452
14356SOL    HW244908   5.655   1.538   9.414
14357SOL     OW44909   4.188   3.741   8.649
14357SOL    HW144910   4.147   3.674   8.704
14357SOL    HW244911   4.280   3.716   8.645
14358SOL     OW44912   9.604   4.778   8.116
14358SOL    HW144913   9.614   4.860   8.067
14358SOL    HW244914   9.659   4.791   8.194
14359SOL     OW44915   3.458   4.598  11.917
14359SOL    HW144916   3.470   4.600  11.822
14359SOL    HW244917   3.537   4.555  11.950
14360SOL     OW44918   5.101   8.571   7.078
14360SOL    HW144919   5.052   8.606   7.004
14360SOL    HW244920   5.134   8.648   7.124
14361SOL     OW44921   4.057   5.140  12.152
14361SOL    HW144922   4.068   5.209  12.086
14361SOL    HW244923   4.099   5.063  12.112
14362SOL     OW44924   1.938   4.761  10.864
14362SOL    HW144925   1.894   4.786  10.945
14362SOL    HW244926   1.980   4.677  10.885
14363SOL     OW44927  14.405  11.913   2.882
14363SOL    HW144928  14.323  11.961   2.870
14363SOL    HW244929  14.468  11.980   2.908
14364SOL     OW44930   0.584  12.579   8.051
14364SOL    HW144931   0.544  12.515   8.110
14364SOL    HW244932   0.542  12.565   7.967
14365SOL     OW44933   1.341   8.357  13.376
14365SOL    HW144934   1.406   8.360  13.446
14365SOL    HW244935   1.375   8.291  13.315
14366SOL     OW44936  11.440   3.641  10.688
14366SOL    HW144937  11.451   3.640  10.783
14366SOL    HW244938  11.443   3.549  10.662
14367SOL     OW44939   0.053  10.663   2.980
14367SOL    HW144940   0.146  10.681   2.990
14367SOL    HW244941   0.044  10.632   2.889
14368SOL     OW44942  12.486   9.340   7.137
14368SOL    HW144943  12.540   9.417   7.154
14368SOL    HW244944  12.492   9.288   7.217
14369SOL     OW44945  13.251  12.050   6.864
14369SOL    HW144946  13.231  12.143   6.852
14369SOL    HW244947  13.170  12.012   6.899
14370SOL     OW44948   9.694  11.184  12.070
14370SOL    HW144949   9.627  11.131  12.113
14370SOL    HW244950   9.705  11.143  11.984
14371SOL     OW44951   9.672  10.742  11.282
14371SOL    HW144952   9.738  10.695  11.231
14371SOL    HW244953   9.640  10.809  11.223
14372SOL     OW44954   6.574   4.765   7.725
14372SOL    HW144955   6.573   4.817   7.805
14372SOL    HW244956   6.606   4.825   7.657
14373SOL     OW44957  13.976  11.815   9.647
14373SOL    HW144958  13.957  11.793   9.556
14373SOL    HW244959  13.902  11.869   9.675
14374SOL     OW44960   8.755  10.823  12.900
14374SOL    HW144961   8.772  10.877  12.977
14374SOL    HW244962   8.678  10.862  12.859
14375SOL     OW44963   5.788   7.369  13.691
14375SOL    HW144964   5.700   7.334  13.679
14375SOL    HW244965   5.829   7.310  13.753
14376SOL     OW44966  14.425  13.939   4.718
14376SOL    HW144967  14.351  13.951   4.659
14376SOL    HW244968  14.387  13.910   4.800
14377SOL     OW44969   4.102   9.932   4.206
14377SOL    HW144970   4.195   9.924   4.226
14377SOL    HW244971   4.082  10.025   4.216
14378SOL     OW44972  14.570   3.764   9.682
14378SOL    HW144973  14.628   3.837   9.703
14378SOL    HW244974  14.624   3.686   9.692
14379SOL     OW44975   1.991   6.066  12.442
14379SOL    HW144976   2.061   6.029  12.388
14379SOL    HW244977   1.921   6.085  12.380
14380SOL     OW44978   6.982   6.003  12.504
14380SOL    HW144979   7.022   5.936  12.448
14380SOL    HW244980   6.903   6.030  12.457
14381SOL     OW44981   0.003  13.060   5.050
14381SOL    HW144982   0.080  13.017   5.012
14381SOL    HW244983  14.844  13.115   4.979
14382SOL     OW44984   9.689  10.012   1.243
14382SOL    HW144985   9.689  10.057   1.158
14382SOL    HW244986   9.664  10.080   1.305
14383SOL     OW44987  10.819   0.616   3.835
14383SOL    HW144988  10.874   0.539   3.821
14383SOL    HW244989  10.823   0.664   3.753
14384SOL     OW44990   2.923   0.182   4.552
14384SOL    HW144991   2.865   0.148   4.621
14384SOL    HW244992   2.866   0.234   4.496
14385SOL     OW44993   0.840   8.950   4.040
14385SOL    HW144994   0.762   8.983   3.997
14385SOL    HW244995   0.833   8.980   4.131
14386SOL     OW44996   5.450  11.163   5.680
14386SOL    HW144997   5.427  11.070   5.668
14386SOL    HW244998   5.387  11.210   5.625
14387SOL     OW44999   8.983  10.863   0.197
14387SOL    HW145000   8.897  10.828   0.221
14387SOL    HW245001   9.002  10.824   0.112
14388SOL     OW45002   1.116   8.871   6.884
14388SOL    HW145003   1.085   8.904   6.800
14388SOL    HW245004   1.137   8.950   6.934
14389SOL     OW45005  11.699   3.284  10.392
14389SOL    HW145006  11.613   3.299  10.354
14389SOL    HW245007  11.703   3.190  10.410
14390SOL     OW45008   7.139   5.697  14.642
14390SOL    HW145009   7.049   5.702  14.610
14390SOL    HW245010   7.143   5.761  14.713
14391SOL     OW45011  11.351   6.522  12.487
14391SOL    HW145012  11.304   6.579  12.548
14391SOL    HW245013  11.284   6.490  12.427
14392SOL     OW45014   2.053  11.514   6.218
14392SOL    HW145015   2.055  11.515   6.122
14392SOL    HW245016   2.098  11.594   6.244
14393SOL     OW45017   8.297   6.382   6.651
14393SOL    HW145018   8.240   6.396   6.575
14393SOL    HW245019   8.293   6.465   6.699
14394SOL     OW45020  12.088   5.254   5.031
14394SOL    HW145021  12.076   5.215   5.118
14394SOL    HW245022  12.000   5.264   4.997
14395SOL     OW45023   4.848   0.583   2.149
14395SOL    HW145024   4.798   0.665   2.142
14395SOL    HW245025   4.935   0.605   2.116
14396SOL     OW45026   6.856   1.912   7.139
14396SOL    HW145027   6.927   1.953   7.090
14396SOL    HW245028   6.861   1.819   7.115
14397SOL     OW45029  14.442   0.943  10.744
14397SOL    HW145030  14.434   1.028  10.700
14397SOL    HW245031  14.533   0.941  10.774
14398SOL     OW45032   9.116  14.278   8.737
14398SOL    HW145033   9.098  14.258   8.645
14398SOL    HW245034   9.089  14.199   8.784
14399SOL     OW45035  12.356  10.711   0.649
14399SOL    HW145036  12.430  10.689   0.593
14399SOL    HW245037  12.369  10.657   0.727
14400SOL     OW45038   8.551   2.430   6.163
14400SOL    HW145039   8.635   2.395   6.134
14400SOL    HW245040   8.494   2.354   6.173
14401SOL     OW45041   9.830  11.393   7.500
14401SOL    HW145042   9.861  11.445   7.574
14401SOL    HW245043   9.852  11.446   7.423
14402SOL     OW45044   5.430   5.851   4.487
14402SOL    HW145045   5.469   5.825   4.570
14402SOL    HW245046   5.423   5.770   4.437
14403SOL     OW45047   1.419   1.716   3.443
14403SOL    HW145048   1.349   1.668   3.487
14403SOL    HW245049   1.405   1.698   3.350
14404SOL     OW45050  13.392   0.169   8.778
14404SOL    HW145051  13.304   0.195   8.804
14404SOL    HW245052  13.390   0.074   8.778
14405SOL     OW45053   1.464   6.973   8.867
14405SOL    HW145054   1.449   7.066   8.883
14405SOL    HW245055   1.494   6.969   8.776
14406SOL     OW45056   7.562  11.254   5.170
14406SOL    HW145057   7.520  11.325   5.218
14406SOL    HW245058   7.603  11.296   5.095
14407SOL     OW45059   8.381   7.121  11.027
14407SOL    HW145060   8.440   7.053  10.994
14407SOL    HW245061   8.423   7.153  11.107
14408SOL     OW45062  12.592   5.624  11.540
14408SOL    HW145063  12.533   5.614  11.615
14408SOL    HW245064  12.578   5.713  11.510
14409SOL     OW45065   5.458  12.452  12.916
14409SOL    HW145066   5.463  12.539  12.876
14409SOL    HW245067   5.457  12.391  12.843
14410SOL     OW45068  10.518  11.852   4.973
14410SOL    HW145069  10.509  11.803   4.891
14410SOL    HW245070  10.580  11.922   4.952
14411SOL     OW45071   8.984   3.687   5.773
14411SOL    HW145072   9.063   3.705   5.822
14411SOL    HW245073   8.923   3.650   5.837
14412SOL     OW45074  10.596   7.744   3.818
14412SOL    HW145075  10.601   7.741   3.914
14412SOL    HW245076  10.671   7.692   3.788
14413SOL     OW45077   0.238   4.417   6.334
14413SOL    HW145078   0.153   4.400   6.293
14413SOL    HW245079   0.291   4.456   6.264
14414SOL     OW45080  13.384   3.416  10.649
14414SOL    HW145081  13.347   3.478  10.586
14414SOL    HW245082  13.471   3.396  10.615
14415SOL     OW45083  12.045   9.427   5.436
14415SOL    HW145084  12.111   9.461   5.497
14415SOL    HW245085  12.021   9.502   5.383
14416SOL     OW45086   3.610   8.790   9.531
14416SOL    HW145087   3.689   8.752   9.568
14416SOL    HW245088   3.641   8.855   9.467
14417SOL     OW45089  12.184   4.342   6.936
14417SOL    HW145090  12.214   4.259   6.972
14417SOL    HW245091  12.090   4.344   6.954
14418SOL     OW45092   7.179   9.444  12.705
14418SOL    HW145093   7.171   9.519  12.765
14418SOL    HW245094   7.244   9.472  12.641
14419SOL     OW45095   0.622   2.276   7.809
14419SOL    HW145096   0.663   2.362   7.795
14419SOL    HW245097   0.688   2.213   7.783
14420SOL     OW45098  13.994  11.430   2.717
14420SOL    HW145099  14.069  11.477   2.754
14420SOL    HW245100  13.961  11.488   2.648
14421SOL     OW45101   0.110  10.628   1.660
14421SOL    HW145102   0.051  10.643   1.734
14421SOL    HW245103   0.185  10.685   1.678
14422SOL     OW45104  11.809   0.084   4.029
14422SOL    HW145105  11.869   0.141   3.982
14422SOL    HW245106  11.820  14.872   3.988
14423SOL     OW45107   5.141  13.104   5.150
14423SOL    HW145108   5.045  13.105   5.154
14423SOL    HW245109   5.168  13.052   5.226
14424SOL     OW45110  14.363   1.316   5.568
14424SOL    HW145111  14.305   1.384   5.601
14424SOL    HW245112  14.399   1.275   5.647
14425SOL     OW45113  13.525   0.296  12.845
14425SOL    HW145114  13.495   0.386  12.832
14425SOL    HW245115  13.614   0.305  12.878
14426SOL     OW45116  12.262   9.396   6.295
14426SOL    HW145117  12.271   9.411   6.201
14426SOL    HW245118  12.189   9.451   6.322
14427SOL     OW45119   4.121   7.131   1.140
14427SOL    HW145120   4.146   7.062   1.079
14427SOL    HW245121   4.026   7.137   1.132
14428SOL     OW45122   0.299  12.455  11.386
14428SOL    HW145123   0.264  12.528  11.335
14428SOL    HW245124   0.394  12.467  11.384
14429SOL     OW45125   3.768   0.453   2.597
14429SOL    HW145126   3.826   0.528   2.582
14429SOL    HW245127   3.819   0.395   2.654
14430SOL     OW45128   5.397   0.800   6.752
14430SOL    HW145129   5.335   0.859   6.795
14430SOL    HW245130   5.480   0.847   6.755
14431SOL     OW45131   9.977  13.569   8.930
14431SOL    HW145132  10.056  13.526   8.964
14431SOL    HW245133  10.008  13.653   8.897
14432SOL     OW45134  12.242   4.405  14.082
14432SOL    HW145135  12.165   4.348  14.087
14432SOL    HW245136  12.211   4.490  14.112
14433SOL     OW45137   2.261   6.472   8.571
14433SOL    HW145138   2.315   6.488   8.648
14433SOL    HW245139   2.260   6.556   8.524
14434SOL     OW45140   3.048   7.495   1.575
14434SOL    HW145141   2.987   7.561   1.607
14434SOL    HW245142   3.099   7.539   1.507
14435SOL     OW45143   5.072  13.899  12.449
14435SOL    HW145144   4.989  13.915  12.494
14435SOL    HW245145   5.067  13.954  12.370
14436SOL     OW45146   4.716   0.584   3.241
14436SOL    HW145147   4.737   0.677   3.251
14436SOL    HW245148   4.785   0.549   3.185
14437SOL     OW45149  10.136   9.500  13.563
14437SOL    HW145150  10.208   9.555  13.593
14437SOL    HW245151  10.136   9.425  13.622
14438SOL     OW45152   4.036   9.605   1.818
14438SOL    HW145153   4.093   9.680   1.800
14438SOL    HW245154   3.968   9.641   1.876
14439SOL     OW45155   2.207  11.880   3.407
14439SOL    HW145156   2.132  11.918   3.452
14439SOL    HW245157   2.202  11.916   3.318
14440SOL     OW45158   3.815   2.925   9.089
14440SOL    HW145159   3.791   3.011   9.124
14440SOL    HW245160   3.870   2.886   9.157
14441SOL     OW45161   6.792   6.926  11.671
14441SOL    HW145162   6.726   6.952  11.606
14441SOL    HW245163   6.862   6.991  11.662
14442SOL     OW45164  11.606   2.584   3.998
14442SOL    HW145165  11.600   2.654   4.063
14442SOL    HW245166  11.627   2.506   4.049
14443SOL     OW45167  10.741   6.299   2.672
14443SOL    HW145168  10.824   6.336   2.703
14443SOL    HW245169  10.679   6.317   2.742
14444SOL     OW45170   7.340   1.958   7.117
14444SOL    HW145171   7.299   1.987   7.035
14444SOL    HW245172   7.386   1.878   7.094
14445SOL     OW45173   9.171  11.436   0.945
14445SOL    HW145174   9.188  11.381   0.869
14445SOL    HW245175   9.076  11.444   0.948
14446SOL     OW45176  13.440  13.565  14.442
14446SOL    HW145177  13.401  13.546  14.357
14446SOL    HW245178  13.512  13.625  14.422
14447SOL     OW45179  11.313   2.947   0.017
14447SOL    HW145180  11.384   2.939  14.827
14447SOL    HW245181  11.354   2.931   0.102
14448SOL     OW45182   1.484   3.515  14.709
14448SOL    HW145183   1.416   3.488  14.648
14448SOL    HW245184   1.461   3.472  14.791
14449SOL     OW45185   4.854   6.247   1.434
14449SOL    HW145186   4.857   6.169   1.490
14449SOL    HW245187   4.805   6.311   1.486
14450SOL     OW45188  10.005  10.579  13.859
14450SOL    HW145189  10.006  10.666  13.820
14450SOL    HW245190  10.094  10.546  13.847
14451SOL     OW45191  10.362  10.268  10.232
14451SOL    HW145192  10.321  10.355  10.232
14451SOL    HW245193  10.290  10.207  10.247
14452SOL     OW45194  14.280   6.057   3.912
14452SOL    HW145195  14.219   6.109   3.859
14452SOL    HW245196  14.355   6.043   3.855
14453SOL     OW45197   6.642  11.017   6.561
14453SOL    HW145198   6.626  11.111   6.548
14453SOL    HW245199   6.729  11.002   6.524
14454SOL     OW45200   7.982   4.348  12.420
14454SOL    HW145201   7.918   4.393  12.475
14454SOL    HW245202   7.976   4.256  12.444
14455SOL     OW45203   9.885  10.676   7.350
14455SOL    HW145204   9.888  10.648   7.259
14455SOL    HW245205   9.809  10.734   7.355
14456SOL     OW45206   6.295   0.806   7.116
14456SOL    HW145207   6.322   0.743   7.049
14456SOL    HW245208   6.278   0.753   7.194
14457SOL     OW45209   3.382  11.841  14.018
14457SOL    HW145210   3.321  11.887  13.960
14457SOL    HW245211   3.396  11.757  13.975
14458SOL     OW45212  11.547   4.901   5.325
14458SOL    HW145213  11.527   4.983   5.371
14458SOL    HW245214  11.489   4.836   5.365
14459SOL     OW45215  12.508  12.394  10.276
14459SOL    HW145216  12.535  12.337  10.203
14459SOL    HW245217  12.447  12.456  10.236
14460SOL     OW45218   3.945   9.481   5.716
14460SOL    HW145219   3.907   9.393   5.720
14460SOL    HW245220   3.925   9.520   5.801
14461SOL     OW45221   5.219   7.416   9.859
14461SOL    HW145222   5.234   7.487   9.920
14461SOL    HW245223   5.184   7.458   9.780
14462SOL     OW45224  14.801   5.121   4.346
14462SOL    HW145225  14.746   5.045   4.325
14462SOL    HW245226  14.845   5.097   4.428
14463SOL     OW45227   1.199  13.938   4.807
14463SOL    HW145228   1.217  14.031   4.793
14463SOL    HW245229   1.238  13.918   4.892
14464SOL     OW45230   8.419   1.042  10.565
14464SOL    HW145231   8.381   1.105  10.627
14464SOL    HW245232   8.494   1.088  10.528
14465SOL     OW45233   1.873   8.709   5.669
14465SOL    HW145234   1.925   8.773   5.620
14465SOL    HW245235   1.810   8.762   5.717
14466SOL     OW45236  13.875  13.366  13.794
14466SOL    HW145237  13.897  13.453  13.763
14466SOL    HW245238  13.875  13.311  13.715
14467SOL     OW45239   4.219   4.737   3.016
14467SOL    HW145240   4.310   4.739   3.044
14467SOL    HW245241   4.223   4.741   2.920
14468SOL     OW45242   2.736  11.974  13.620
14468SOL    HW145243   2.694  12.030  13.555
14468SOL    HW245244   2.703  11.886  13.600
14469SOL     OW45245  13.794   8.440  11.059
14469SOL    HW145246  13.831   8.351  11.056
14469SOL    HW245247  13.870   8.497  11.053
14470SOL     OW45248   4.900   9.384  12.365
14470SOL    HW145249   4.945   9.458  12.406
14470SOL    HW245250   4.840   9.423  12.303
14471SOL     OW45251   4.711   1.529  14.435
14471SOL    HW145252   4.767   1.603  14.415
14471SOL    HW245253   4.742   1.498  14.520
14472SOL     OW45254   0.963   7.139   5.618
14472SOL    HW145255   0.893   7.081   5.647
14472SOL    HW245256   0.924   7.226   5.620
14473SOL     OW45257  11.100   7.115   4.109
14473SOL    HW145258  11.089   7.097   4.202
14473SOL    HW245259  11.044   7.052   4.065
14474SOL     OW45260  10.497   0.269  14.026
14474SOL    HW145261  10.457   0.193  13.983
14474SOL    HW245262  10.503   0.335  13.957
14475SOL     OW45263   1.395   4.426  10.307
14475SOL    HW145264   1.307   4.461  10.313
14475SOL    HW245265   1.385   4.332  10.324
14476SOL     OW45266   6.138   8.833   9.306
14476SOL    HW145267   6.230   8.860   9.303
14476SOL    HW245268   6.126   8.780   9.227
14477SOL     OW45269   0.070   7.096   6.934
14477SOL    HW145270   0.009   7.157   6.893
14477SOL    HW245271   0.084   7.028   6.868
14478SOL     OW45272   4.953   7.149   8.716
14478SOL    HW145273   4.951   7.054   8.709
14478SOL    HW245274   4.870   7.172   8.759
14479SOL     OW45275   9.723   0.640   5.115
14479SOL    HW145276   9.681   0.557   5.138
14479SOL    HW245277   9.650   0.699   5.094
14480SOL     OW45278   5.616  10.424   1.835
14480SOL    HW145279   5.588  10.410   1.925
14480SOL    HW245280   5.648  10.514   1.833
14481SOL     OW45281   4.339  14.035   6.467
14481SOL    HW145282   4.293  13.972   6.523
14481SOL    HW245283   4.376  14.099   6.528
14482SOL     OW45284  10.613   4.809   9.867
14482SOL    HW145285  10.580   4.747   9.932
14482SOL    HW245286  10.658   4.754   9.803
14483SOL     OW45287   9.147   5.534   0.753
14483SOL    HW145288   9.182   5.451   0.784
14483SOL    HW245289   9.060   5.540   0.792
14484SOL     OW45290  11.125   5.068   4.267
14484SOL    HW145291  11.166   5.040   4.185
14484SOL    HW245292  11.174   5.021   4.335
14485SOL     OW45293   1.481   1.321   4.613
14485SOL    HW145294   1.524   1.330   4.698
14485SOL    HW245295   1.537   1.260   4.564
14486SOL     OW45296  11.485   9.251   9.076
14486SOL    HW145297  11.514   9.202   9.153
14486SOL    HW245298  11.409   9.203   9.045
14487SOL     OW45299  12.806   6.583  13.004
14487SOL    HW145300  12.844   6.495  13.005
14487SOL    HW245301  12.779   6.598  13.095
14488SOL     OW45302   4.021  13.150  14.719
14488SOL    HW145303   3.953  13.216  14.702
14488SOL    HW245304   4.064  13.181  14.799
14489SOL     OW45305   9.492   4.837  13.741
14489SOL    HW145306   9.543   4.792  13.674
14489SOL    HW245307   9.405   4.844  13.704
14490SOL     OW45308   1.813   5.948   2.270
14490SOL    HW145309   1.761   5.969   2.193
14490SOL    HW245310   1.763   5.880   2.315
14491SOL     OW45311   8.320  12.217   7.978
14491SOL    HW145312   8.322  12.127   7.945
14491SOL    HW245313   8.246  12.217   8.039
14492SOL     OW45314  11.257  10.798  13.782
14492SOL    HW145315  11.341  10.813  13.825
14492SOL    HW245316  11.192  10.816  13.851
14493SOL     OW45317   2.348  11.545  12.079
14493SOL    HW145318   2.300  11.577  12.155
14493SOL    HW245319   2.280  11.533  12.012
14494SOL     OW45320   5.437  12.570   1.183
14494SOL    HW145321   5.369  12.637   1.186
14494SOL    HW245322   5.514  12.615   1.148
14495SOL     OW45323  14.588   9.155   7.971
14495SOL    HW145324  14.587   9.063   7.998
14495SOL    HW245325  14.616   9.202   8.049
14496SOL     OW45326  12.458  10.523  14.310
14496SOL    HW145327  12.431  10.513  14.402
14496SOL    HW245328  12.436  10.439  14.270
14497SOL     OW45329  10.811   3.595   0.393
14497SOL    HW145330  10.843   3.659   0.329
14497SOL    HW245331  10.810   3.642   0.476
14498SOL     OW45332   4.796   1.690   5.337
14498SOL    HW145333   4.762   1.651   5.417
14498SOL    HW245334   4.771   1.782   5.343
14499SOL     OW45335  11.611  12.379   7.397
14499SOL    HW145336  11.651  12.440   7.460
14499SOL    HW245337  11.559  12.435   7.339
14500SOL     OW45338   5.885  11.149   3.607
14500SOL    HW145339   5.818  11.217   3.600
14500SOL    HW245340   5.901  11.122   3.516
14501SOL     OW45341   3.462  11.774   9.425
14501SOL    HW145342   3.493  11.749   9.338
14501SOL    HW245343   3.367  11.777   9.417
14502SOL     OW45344   3.250   2.055  13.968
14502SOL    HW145345   3.342   2.076  13.980
14502SOL    HW245346   3.250   1.962  13.944
14503SOL     OW45347  11.745  11.605  14.359
14503SOL    HW145348  11.728  11.520  14.319
14503SOL    HW245349  11.839  11.604  14.377
14504SOL     OW45350   1.159  10.888   4.125
14504SOL    HW145351   1.078  10.924   4.089
14504SOL    HW245352   1.199  10.842   4.052
14505SOL     OW45353   9.508   6.955  13.446
14505SOL    HW145354   9.579   7.007  13.408
14505SOL    HW245355   9.464   6.915  13.371
14506SOL     OW45356  13.228   5.071  12.638
14506SOL    HW145357  13.180   5.153  12.630
14506SOL    HW245358  13.210   5.024  12.556
14507SOL     OW45359   8.182  10.242   9.836
14507SOL    HW145360   8.106  10.299   9.847
14507SOL    HW245361   8.155  10.159   9.876
14508SOL     OW45362   0.704   8.450  13.983
14508SOL    HW145363   0.643   8.405  14.041
14508SOL    HW245364   0.729   8.383  13.920
14509SOL     OW45365  12.163   9.320   9.278
14509SOL    HW145366  12.127   9.279   9.357
14509SOL    HW245367  12.182   9.410   9.303
14510SOL     OW45368   1.821  10.979   3.947
14510SOL    HW145369   1.878  10.922   3.999
14510SOL    HW245370   1.738  10.932   3.942
14511SOL     OW45371   3.222  11.355   3.754
14511SOL    HW145372   3.163  11.283   3.777
14511SOL    HW245373   3.296  11.312   3.711
14512SOL     OW45374   1.054  12.542   5.358
14512SOL    HW145375   1.123  12.607   5.341
14512SOL    HW245376   0.972  12.590   5.345
14513SOL     OW45377   5.546   6.456  14.703
14513SOL    HW145378   5.501   6.374  14.725
14513SOL    HW245379   5.636   6.441  14.732
14514SOL     OW45380   1.051   9.289   6.235
14514SOL    HW145381   1.101   9.361   6.273
14514SOL    HW245382   1.012   9.325   6.156
14515SOL     OW45383   9.893   5.035   7.793
14515SOL    HW145384   9.953   5.077   7.731
14515SOL    HW245385   9.931   4.948   7.807
14516SOL     OW45386   2.295  13.848   5.233
14516SOL    HW145387   2.301  13.753   5.229
14516SOL    HW245388   2.204  13.865   5.258
14517SOL     OW45389  13.619  14.538   1.591
14517SOL    HW145390  13.682  14.593   1.545
14517SOL    HW245391  13.571  14.598   1.648
14518SOL     OW45392   7.247  11.178   4.473
14518SOL    HW145393   7.160  11.216   4.488
14518SOL    HW245394   7.234  11.116   4.402
14519SOL     OW45395   0.028   4.409   2.186
14519SOL    HW145396   0.053   4.449   2.269
14519SOL    HW245397   0.104   4.418   2.130
14520SOL     OW45398   3.035  14.275   5.325
14520SOL    HW145399   2.955  14.319   5.297
14520SOL    HW245400   3.006  14.188   5.353
14521SOL     OW45401   5.348   2.565   1.387
14521SOL    HW145402   5.260   2.587   1.356
14521SOL    HW245403   5.401   2.564   1.307
14522SOL     OW45404  13.800   0.811   2.671
14522SOL    HW145405  13.810   0.841   2.580
14522SOL    HW245406  13.727   0.749   2.668
14523SOL     OW45407   6.039  11.166   2.678
14523SOL    HW145408   6.025  11.255   2.647
14523SOL    HW245409   6.057  11.115   2.599
14524SOL     OW45410  13.498  10.197  13.327
14524SOL    HW145411  13.457  10.283  13.332
14524SOL    HW245412  13.554  10.201  13.250
14525SOL     OW45413  14.751  13.457   3.066
14525SOL    HW145414  14.754  13.504   2.983
14525SOL    HW245415  14.657  13.447   3.084
14526SOL     OW45416  10.972   8.046   6.716
14526SOL    HW145417  11.064   8.058   6.739
14526SOL    HW245418  10.973   7.990   6.639
14527SOL     OW45419  10.003   5.650   1.657
14527SOL    HW145420  10.062   5.709   1.611
14527SOL    HW245421   9.926   5.642   1.600
14528SOL     OW45422  10.467  13.081   8.833
14528SOL    HW145423  10.547  13.046   8.873
14528SOL    HW245424  10.451  13.023   8.758
14529SOL     OW45425  13.577   0.588   0.942
14529SOL    HW145426  13.555   0.496   0.951
14529SOL    HW245427  13.669   0.589   0.913
14530SOL     OW45428   9.966   1.541   0.802
14530SOL    HW145429  10.033   1.513   0.739
14530SOL    HW245430  10.015   1.562   0.882
14531SOL     OW45431   7.210   0.085   7.026
14531SOL    HW145432   7.281   0.093   7.090
14531SOL    HW245433   7.254   0.081   6.941
14532SOL     OW45434   0.066   7.043   4.634
14532SOL    HW145435   0.072   7.003   4.721
14532SOL    HW245436   0.009   6.984   4.584
14533SOL     OW45437   5.621  10.679   1.172
14533SOL    HW145438   5.657  10.660   1.085
14533SOL    HW245439   5.686  10.645   1.233
14534SOL     OW45440  11.933   7.315   8.330
14534SOL    HW145441  11.950   7.406   8.305
14534SOL    HW245442  11.945   7.314   8.425
14535SOL     OW45443  10.729   8.421   9.629
14535SOL    HW145444  10.652   8.392   9.580
14535SOL    HW245445  10.716   8.386   9.717
14536SOL     OW45446  11.090   9.904   6.151
14536SOL    HW145447  11.105   9.811   6.166
14536SOL    HW245448  11.038   9.907   6.071
14537SOL     OW45449   3.333  12.873   7.796
14537SOL    HW145450   3.377  12.798   7.756
14537SOL    HW245451   3.295  12.920   7.721
14538SOL     OW45452  12.645   5.949   2.861
14538SOL    HW145453  12.705   6.021   2.876
14538SOL    HW245454  12.558   5.984   2.880
14539SOL     OW45455   6.265   3.360   8.735
14539SOL    HW145456   6.218   3.339   8.655
14539SOL    HW245457   6.253   3.455   8.746
14540SOL     OW45458   6.163   2.090   4.953
14540SOL    HW145459   6.183   2.061   4.864
14540SOL    HW245460   6.163   2.010   5.005
14541SOL     OW45461   8.149  10.446   6.134
14541SOL    HW145462   8.238  10.473   6.111
14541SOL    HW245463   8.158  10.356   6.166
14542SOL     OW45464  10.602  11.100   1.817
14542SOL    HW145465  10.632  11.011   1.798
14542SOL    HW245466  10.522  11.109   1.765
14543SOL     OW45467   8.292   0.783   0.065
14543SOL    HW145468   8.385   0.773   0.045
14543SOL    HW245469   8.250   0.706   0.026
14544SOL     OW45470   2.069  12.059  13.286
14544SOL    HW145471   2.117  11.993  13.237
14544SOL    HW245472   2.090  12.041  13.378
14545SOL     OW45473   8.925  10.574  14.114
14545SOL    HW145474   9.015  10.608  14.106
14545SOL    HW245475   8.876  10.621  14.047
14546SOL     OW45476   4.266  12.282   0.477
14546SOL    HW145477   4.307  12.292   0.563
14546SOL    HW245478   4.173  12.296   0.493
14547SOL     OW45479   7.798   3.257   1.169
14547SOL    HW145480   7.842   3.214   1.242
14547SOL    HW245481   7.742   3.324   1.210
14548SOL     OW45482   7.982  10.803   9.925
14548SOL    HW145483   8.005  10.875   9.984
14548SOL    HW245484   8.039  10.814   9.849
14549SOL     OW45485  11.371  11.490   4.002
14549SOL    HW145486  11.378  11.550   4.075
14549SOL    HW245487  11.277  11.478   3.989
14550SOL     OW45488   2.309  14.271   1.102
14550SOL    HW145489   2.305  14.260   1.007
14550SOL    HW245490   2.217  14.284   1.128
14551SOL     OW45491  12.118   6.831  12.596
14551SOL    HW145492  12.107   6.842  12.690
14551SOL    HW245493  12.066   6.753  12.575
14552SOL     OW45494   3.291   4.880   4.382
14552SOL    HW145495   3.207   4.911   4.415
14552SOL    HW245496   3.297   4.916   4.293
14553SOL     OW45497  10.358   8.360   0.540
14553SOL    HW145498  10.339   8.359   0.446
14553SOL    HW245499  10.288   8.309   0.579
14554SOL     OW45500   6.217   2.644   3.869
14554SOL    HW145501   6.306   2.662   3.900
14554SOL    HW245502   6.180   2.730   3.850
14555SOL     OW45503   9.715   6.245   0.950
14555SOL    HW145504   9.680   6.246   0.861
14555SOL    HW245505   9.798   6.198   0.943
14556SOL     OW45506   5.722  13.429  13.748
14556SOL    HW145507   5.627  13.444  13.744
14556SOL    HW245508   5.754  13.493  13.811
14557SOL     OW45509   7.141  12.300  10.867
14557SOL    HW145510   7.224  12.306  10.819
14557SOL    HW245511   7.073  12.312  10.800
14558SOL     OW45512   5.522   6.977   0.672
14558SOL    HW145513   5.511   6.888   0.641
14558SOL    HW245514   5.439   6.999   0.714
14559SOL     OW45515  10.735  12.261   5.489
14559SOL    HW145516  10.760  12.170   5.472
14559SOL    HW245517  10.711  12.296   5.403
14560SOL     OW45518  13.901   1.366   6.314
14560SOL    HW145519  13.980   1.370   6.262
14560SOL    HW245520  13.921   1.304   6.385
14561SOL     OW45521  12.191   0.956   3.083
14561SOL    HW145522  12.109   1.002   3.066
14561SOL    HW245523  12.255   0.999   3.025
14562SOL     OW45524   8.227   4.392   4.906
14562SOL    HW145525   8.321   4.390   4.887
14562SOL    HW245526   8.198   4.301   4.896
14563SOL     OW45527   5.054  11.753  12.599
14563SOL    HW145528   4.978  11.758  12.657
14563SOL    HW245529   5.023  11.704  12.523
14564SOL     OW45530  10.615   8.876  10.557
14564SOL    HW145531  10.686   8.825  10.518
14564SOL    HW245532  10.651   8.907  10.641
14565SOL     OW45533  14.136  13.984  11.563
14565SOL    HW145534  14.072  13.950  11.625
14565SOL    HW245535  14.202  13.915  11.556
14566SOL     OW45536  13.112   6.893   6.522
14566SOL    HW145537  13.135   6.881   6.430
14566SOL    HW245538  13.025   6.855   6.531
14567SOL     OW45539   3.307   3.270   3.460
14567SOL    HW145540   3.343   3.320   3.387
14567SOL    HW245541   3.368   3.197   3.472
14568SOL     OW45542   9.518   6.622  10.652
14568SOL    HW145543   9.526   6.708  10.610
14568SOL    HW245544   9.425   6.599  10.641
14569SOL     OW45545   7.122   9.206   3.217
14569SOL    HW145546   7.188   9.138   3.232
14569SOL    HW245547   7.135   9.268   3.288
14570SOL     OW45548   1.815  12.861   3.526
14570SOL    HW145549   1.822  12.908   3.609
14570SOL    HW245550   1.881  12.901   3.470
14571SOL     OW45551   8.651   3.071  13.078
14571SOL    HW145552   8.674   3.128  13.151
14571SOL    HW245553   8.735   3.035  13.049
14572SOL     OW45554   9.925   9.468  13.367
14572SOL    HW145555   9.982   9.432  13.299
14572SOL    HW245556   9.984   9.492  13.439
14573SOL     OW45557   8.590  12.186   9.350
14573SOL    HW145558   8.675  12.225   9.373
14573SOL    HW245559   8.578  12.207   9.257
14574SOL     OW45560  10.357   8.399   5.109
14574SOL    HW145561  10.307   8.387   5.189
14574SOL    HW245562  10.300   8.367   5.039
14575SOL     OW45563  13.185  13.775   8.349
14575SOL    HW145564  13.156  13.705   8.408
14575SOL    HW245565  13.279  13.780   8.362
14576SOL     OW45566   9.338   8.190   7.849
14576SOL    HW145567   9.383   8.229   7.774
14576SOL    HW245568   9.408   8.148   7.899
14577SOL     OW45569   6.469  11.249   4.546
14577SOL    HW145570   6.477  11.328   4.492
14577SOL    HW245571   6.421  11.187   4.492
14578SOL     OW45572  13.988   3.761   5.006
14578SOL    HW145573  13.935   3.832   4.970
14578SOL    HW245574  14.063   3.755   4.947
14579SOL     OW45575  12.417   8.935   0.920
14579SOL    HW145576  12.367   9.016   0.931
14579SOL    HW245577  12.455   8.919   1.006
14580SOL     OW45578  11.857   4.798  13.014
14580SOL    HW145579  11.887   4.839  13.095
14580SOL    HW245580  11.770   4.834  12.999
14581SOL     OW45581   9.436   2.321  12.322
14581SOL    HW145582   9.403   2.329  12.412
14581SOL    HW245583   9.390   2.245  12.286
14582SOL     OW45584   5.187   0.873   8.746
14582SOL    HW145585   5.173   0.949   8.689
14582SOL    HW245586   5.104   0.863   8.793
14583SOL     OW45587   0.351   3.982   6.329
14583SOL    HW145588   0.356   4.057   6.387
14583SOL    HW245589   0.416   3.920   6.363
14584SOL     OW45590   6.519   4.810   6.664
14584SOL    HW145591   6.601   4.796   6.616
14584SOL    HW245592   6.544   4.869   6.736
14585SOL     OW45593   5.812  14.736  14.303
14585SOL    HW145594   5.896  14.775  14.282
14585SOL    HW245595   5.810  14.654  14.252
14586SOL     OW45596   8.268   7.033   9.248
14586SOL    HW145597   8.291   6.987   9.328
14586SOL    HW245598   8.294   6.974   9.178
14587SOL     OW45599   0.021  12.685   9.191
14587SOL    HW145600  14.815  12.714   9.235
14587SOL    HW245601   0.004  12.593   9.170
14588SOL     OW45602  14.645   6.549   2.504
14588SOL    HW145603  14.563   6.550   2.454
14588SOL    HW245604  14.649   6.461   2.541
14589SOL     OW45605   2.332   3.733  11.096
14589SOL    HW145606   2.424   3.747  11.118
14589SOL    HW245607   2.324   3.638  11.086
14590SOL     OW45608   5.286  12.465   4.336
14590SOL    HW145609   5.207  12.458   4.283
14590SOL    HW245610   5.302  12.376   4.367
14591SOL     OW45611   5.317   5.980   2.865
14591SOL    HW145612   5.307   6.062   2.913
14591SOL    HW245613   5.273   5.914   2.919
14592SOL     OW45614   2.726  11.004  11.418
14592SOL    HW145615   2.774  11.061  11.357
14592SOL    HW245616   2.651  10.973  11.367
14593SOL     OW45617   0.787   3.259  13.416
14593SOL    HW145618   0.856   3.286  13.476
14593SOL    HW245619   0.815   3.290  13.331
14594SOL     OW45620  12.898   9.678   9.620
14594SOL    HW145621  12.855   9.759   9.647
14594SOL    HW245622  12.987   9.685   9.654
14595SOL     OW45623   4.026   7.264  14.819
14595SOL    HW145624   3.980   7.302   0.020
14595SOL    HW245625   4.118   7.265  14.845
14596SOL     OW45626   4.088   0.298   9.162
14596SOL    HW145627   4.024   0.308   9.232
14596SOL    HW245628   4.164   0.258   9.203
14597SOL     OW45629   9.674  10.202  12.154
14597SOL    HW145630   9.626  10.121  12.168
14597SOL    HW245631   9.724  10.215  12.234
14598SOL     OW45632  14.874   1.368   7.152
14598SOL    HW145633   0.062   1.306   7.191
14598SOL    HW245634   0.050   1.412   7.083
14599SOL     OW45635   2.962   3.846   8.015
14599SOL    HW145636   2.970   3.778   8.082
14599SOL    HW245637   2.993   3.925   8.058
14600SOL     OW45638   5.648   1.652   1.027
14600SOL    HW145639   5.720   1.710   1.052
14600SOL    HW245640   5.666   1.629   0.936
14601SOL     OW45641   0.127   8.685  11.554
14601SOL    HW145642   0.058   8.622  11.575
14601SOL    HW245643   0.164   8.710  11.639
14602SOL     OW45644  11.584   5.767  13.361
14602SOL    HW145645  11.560   5.854  13.328
14602SOL    HW245646  11.535   5.758  13.442
14603SOL     OW45647  12.430  11.432   1.630
14603SOL    HW145648  12.338  11.410   1.645
14603SOL    HW245649  12.478  11.379   1.694
14604SOL     OW45650  14.553  13.083   6.493
14604SOL    HW145651  14.612  13.157   6.510
14604SOL    HW245652  14.482  13.094   6.556
14605SOL     OW45653   0.977   0.266   5.375
14605SOL    HW145654   0.894   0.226   5.403
14605SOL    HW245655   0.966   0.359   5.395
14606SOL     OW45656   7.314   8.462  12.285
14606SOL    HW145657   7.398   8.472  12.329
14606SOL    HW245658   7.296   8.368  12.287
14607SOL     OW45659   6.517  13.350   2.285
14607SOL    HW145660   6.590  13.409   2.267
14607SOL    HW245661   6.500  13.361   2.378
14608SOL     OW45662  14.411   5.444  12.649
14608SOL    HW145663  14.387   5.505  12.579
14608SOL    HW245664  14.332   5.392  12.664
14609SOL     OW45665  12.463   7.158   0.138
14609SOL    HW145666  12.556   7.154   0.161
14609SOL    HW245667  12.435   7.245   0.167
14610SOL     OW45668  11.620  13.070   4.445
14610SOL    HW145669  11.644  13.109   4.360
14610SOL    HW245670  11.532  13.102   4.462
14611SOL     OW45671   0.893   4.677   8.257
14611SOL    HW145672   0.852   4.736   8.321
14611SOL    HW245673   0.902   4.594   8.304
14612SOL     OW45674  14.553   9.048   1.023
14612SOL    HW145675  14.607   9.019   0.950
14612SOL    HW245676  14.489   9.108   0.983
14613SOL     OW45677  10.177   2.916  10.808
14613SOL    HW145678  10.190   2.999  10.854
14613SOL    HW245679  10.261   2.899  10.766
14614SOL     OW45680   4.218  10.439   5.736
14614SOL    HW145681   4.304  10.430   5.776
14614SOL    HW245682   4.221  10.525   5.693
14615SOL     OW45683   2.605   4.920   1.695
14615SOL    HW145684   2.605   4.827   1.672
14615SOL    HW245685   2.603   4.965   1.610
14616SOL     OW45686   9.535   2.850   4.610
14616SOL    HW145687   9.503   2.927   4.658
14616SOL    HW245688   9.501   2.862   4.522
14617SOL     OW45689   0.744  13.448  14.418
14617SOL    HW145690   0.669  13.399  14.453
14617SOL    HW245691   0.771  13.504  14.491
14618SOL     OW45692   3.297   3.271   2.984
14618SOL    HW145693   3.369   3.334   2.978
14618SOL    HW245694   3.225   3.321   3.022
14619SOL     OW45695  11.574  11.604  11.027
14619SOL    HW145696  11.520  11.641  11.096
14619SOL    HW245697  11.658  11.584  11.070
14620SOL     OW45698   1.008  13.994   4.595
14620SOL    HW145699   1.059  13.946   4.661
14620SOL    HW245700   1.070  14.058   4.559
14621SOL     OW45701  10.333   8.777  11.062
14621SOL    HW145702  10.343   8.682  11.063
14621SOL    HW245703  10.344   8.802  10.970
14622SOL     OW45704   8.498   0.695   6.422
14622SOL    HW145705   8.461   0.784   6.422
14622SOL    HW245706   8.580   0.704   6.373
14623SOL     OW45707  11.698  13.005   2.606
14623SOL    HW145708  11.789  13.009   2.574
14623SOL    HW245709  11.673  12.914   2.594
14624SOL     OW45710   9.052   5.829   5.568
14624SOL    HW145711   9.007   5.745   5.568
14624SOL    HW245712   9.067   5.849   5.476
14625SOL     OW45713   4.865   3.614   6.408
14625SOL    HW145714   4.792   3.598   6.468
14625SOL    HW245715   4.865   3.709   6.396
14626SOL     OW45716   4.659   5.318   7.795
14626SOL    HW145717   4.620   5.231   7.804
14626SOL    HW245718   4.589   5.373   7.760
14627SOL     OW45719  11.116   4.739   3.778
14627SOL    HW145720  11.196   4.714   3.825
14627SOL    HW245721  11.134   4.828   3.747
14628SOL     OW45722   7.120  11.832  14.376
14628SOL    HW145723   7.029  11.810  14.355
14628SOL    HW245724   7.144  11.771  14.446
14629SOL     OW45725   7.868  10.301   6.514
14629SOL    HW145726   7.925  10.348   6.454
14629SOL    HW245727   7.807  10.367   6.547
14630SOL     OW45728   5.982  10.710   4.094
14630SOL    HW145729   6.034  10.757   4.029
14630SOL    HW245730   6.047  10.677   4.157
14631SOL     OW45731  13.810  14.640   5.234
14631SOL    HW145732  13.842  14.566   5.183
14631SOL    HW245733  13.818  14.612   5.325
14632SOL     OW45734  10.491  14.792   1.782
14632SOL    HW145735  10.416  14.751   1.824
14632SOL    HW245736  10.454  14.849   1.715
14633SOL     OW45737  14.583   8.144  13.504
14633SOL    HW145738  14.601   8.204  13.432
14633SOL    HW245739  14.669   8.114  13.533
14634SOL     OW45740   8.502  13.334   6.148
14634SOL    HW145741   8.420  13.373   6.117
14634SOL    HW245742   8.509  13.363   6.239
14635SOL     OW45743  12.673   3.621  10.540
14635SOL    HW145744  12.609   3.646  10.474
14635SOL    HW245745  12.731   3.560  10.495
14636SOL     OW45746   0.260   5.197  12.807
14636SOL    HW145747   0.280   5.144  12.884
14636SOL    HW245748   0.222   5.135  12.744
14637SOL     OW45749   6.857   0.369  14.801
14637SOL    HW145750   6.861   0.447  14.746
14637SOL    HW245751   6.764   0.355  14.818
14638SOL     OW45752  12.813  14.743   1.534
14638SOL    HW145753  12.718  14.754   1.523
14638SOL    HW245754  12.837  14.808   1.600
14639SOL     OW45755  13.566  11.485  12.582
14639SOL    HW145756  13.610  11.400  12.569
14639SOL    HW245757  13.611  11.524  12.657
14640SOL     OW45758   5.922   2.982   8.994
14640SOL    HW145759   5.857   3.046   8.966
14640SOL    HW245760   5.976   2.966   8.916
14641SOL     OW45761   9.117   2.994   6.193
14641SOL    HW145762   9.208   2.994   6.161
14641SOL    HW245763   9.109   3.077   6.240
14642SOL     OW45764   4.437  11.950   7.867
14642SOL    HW145765   4.487  12.032   7.864
14642SOL    HW245766   4.348  11.977   7.890
14643SOL     OW45767  12.131   6.593  10.524
14643SOL    HW145768  12.061   6.552  10.576
14643SOL    HW245769  12.204   6.603  10.586
14644SOL     OW45770  14.512   9.763  10.671
14644SOL    HW145771  14.515   9.670  10.695
14644SOL    HW245772  14.472   9.806  10.747
14645SOL     OW45773   1.273   5.970  11.029
14645SOL    HW145774   1.233   5.917  10.961
14645SOL    HW245775   1.321   6.038  10.981
14646SOL     OW45776   4.903   9.301  14.190
14646SOL    HW145777   4.963   9.263  14.253
14646SOL    HW245778   4.927   9.261  14.106
14647SOL     OW45779   4.622  11.271  14.144
14647SOL    HW145780   4.709  11.274  14.182
14647SOL    HW245781   4.581  11.193  14.182
14648SOL     OW45782   5.675  11.574   5.207
14648SOL    HW145783   5.728  11.651   5.185
14648SOL    HW245784   5.634  11.549   5.124
14649SOL     OW45785   7.092   2.444  11.126
14649SOL    HW145786   7.128   2.524  11.087
14649SOL    HW245787   7.017   2.474  11.177
14650SOL     OW45788   3.613   3.931   9.391
14650SOL    HW145789   3.631   4.015   9.349
14650SOL    HW245790   3.616   3.868   9.319
14651SOL     OW45791   8.684   3.817   7.064
14651SOL    HW145792   8.624   3.849   6.996
14651SOL    HW245793   8.766   3.864   7.048
14652SOL     OW45794   8.282  12.456   7.581
14652SOL    HW145795   8.207  12.494   7.627
14652SOL    HW245796   8.334  12.415   7.650
14653SOL     OW45797   9.154  11.206  12.073
14653SOL    HW145798   9.155  11.302  12.070
14653SOL    HW245799   9.220  11.179  12.010
14654SOL     OW45800   7.134   7.312   1.345
14654SOL    HW145801   7.151   7.326   1.252
14654SOL    HW245802   7.189   7.239   1.370
14655SOL     OW45803  10.347   1.793   0.059
14655SOL    HW145804  10.329   1.815  14.841
14655SOL    HW245805  10.442   1.796   0.066
14656SOL     OW45806  13.298  13.238   5.148
14656SOL    HW145807  13.365  13.197   5.202
14656SOL    HW245808  13.338  13.246   5.062
14657SOL     OW45809   7.646  13.967   2.996
14657SOL    HW145810   7.652  13.872   2.986
14657SOL    HW245811   7.732  13.992   3.031
14658SOL     OW45812  10.845   7.961   9.936
14658SOL    HW145813  10.938   7.984   9.927
14658SOL    HW245814  10.835   7.936  10.028
14659SOL     OW45815   3.764   5.532  11.270
14659SOL    HW145816   3.718   5.554  11.351
14659SOL    HW245817   3.787   5.617  11.232
14660SOL     OW45818  11.962  12.687   7.444
14660SOL    HW145819  11.906  12.617   7.476
14660SOL    HW245820  12.003  12.651   7.365
14661SOL     OW45821   1.340   7.088   4.395
14661SOL    HW145822   1.357   7.173   4.435
14661SOL    HW245823   1.274   7.047   4.451
14662SOL     OW45824   6.920  12.987   0.555
14662SOL    HW145825   6.879  13.027   0.478
14662SOL    HW245826   6.935  13.061   0.615
14663SOL     OW45827   3.339   9.300   0.737
14663SOL    HW145828   3.402   9.361   0.776
14663SOL    HW245829   3.320   9.237   0.806
14664SOL     OW45830   0.963  14.561   6.923
14664SOL    HW145831   0.940  14.523   7.008
14664SOL    HW245832   0.961  14.655   6.937
14665SOL     OW45833  13.390   0.221   8.465
14665SOL    HW145834  13.436   0.240   8.547
14665SOL    HW245835  13.301   0.253   8.480
14666SOL     OW45836  10.450   4.318   9.031
14666SOL    HW145837  10.444   4.250   8.963
14666SOL    HW245838  10.507   4.385   8.993
14667SOL     OW45839   3.363  13.291   4.881
14667SOL    HW145840   3.450  13.311   4.845
14667SOL    HW245841   3.303  13.316   4.811
14668SOL     OW45842   8.399   6.652  12.564
14668SOL    HW145843   8.471   6.628  12.622
14668SOL    HW245844   8.409   6.594  12.489
14669SOL     OW45845   8.297  14.035   6.508
14669SOL    HW145846   8.304  14.115   6.456
14669SOL    HW245847   8.336  14.058   6.593
14670SOL     OW45848  10.496   2.965   3.375
14670SOL    HW145849  10.527   3.045   3.417
14670SOL    HW245850  10.418   2.991   3.327
14671SOL     OW45851  12.635   8.488  11.512
14671SOL    HW145852  12.729   8.485  11.528
14671SOL    HW245853  12.625   8.537  11.430
14672SOL     OW45854   0.348   7.137   2.843
14672SOL    HW145855   0.263   7.097   2.824
14672SOL    HW245856   0.350   7.217   2.790
14673SOL     OW45857   1.899  12.318   6.567
14673SOL    HW145858   1.909  12.369   6.648
14673SOL    HW245859   1.941  12.372   6.500
14674SOL     OW45860  12.712  14.021   5.539
14674SOL    HW145861  12.658  14.004   5.616
14674SOL    HW245862  12.788  14.069   5.573
14675SOL     OW45863   4.214   9.885   7.301
14675SOL    HW145864   4.141   9.828   7.325
14675SOL    HW245865   4.249   9.848   7.220
14676SOL     OW45866   8.643   1.097  12.359
14676SOL    HW145867   8.694   1.104  12.278
14676SOL    HW245868   8.597   1.013  12.352
14677SOL     OW45869   4.043   0.306  14.272
14677SOL    HW145870   4.026   0.226  14.223
14677SOL    HW245871   3.956   0.346  14.283
14678SOL     OW45872   2.304  14.065  10.958
14678SOL    HW145873   2.365  13.998  10.990
14678SOL    HW245874   2.229  14.015  10.925
14679SOL     OW45875  11.974   8.182  12.388
14679SOL    HW145876  11.915   8.141  12.325
14679SOL    HW245877  11.924   8.186  12.469
14680SOL     OW45878   1.722   1.591   6.979
14680SOL    HW145879   1.772   1.569   7.057
14680SOL    HW245880   1.636   1.552   6.993
14681SOL     OW45881   8.428  13.117   2.518
14681SOL    HW145882   8.448  13.068   2.438
14681SOL    HW245883   8.492  13.188   2.520
14682SOL     OW45884   6.321   4.118   5.886
14682SOL    HW145885   6.296   4.176   5.814
14682SOL    HW245886   6.392   4.065   5.849
14683SOL     OW45887   8.112   9.839  13.281
14683SOL    HW145888   8.182   9.792  13.236
14683SOL    HW245889   8.128   9.931  13.260
14684SOL     OW45890   7.415   9.905   7.726
14684SOL    HW145891   7.342   9.844   7.729
14684SOL    HW245892   7.374   9.991   7.722
14685SOL     OW45893  11.477   1.343  12.108
14685SOL    HW145894  11.515   1.401  12.174
14685SOL    HW245895  11.383   1.358  12.114
14686SOL     OW45896   2.945  13.534  10.498
14686SOL    HW145897   3.004  13.607  10.516
14686SOL    HW245898   2.978  13.496  10.417
14687SOL     OW45899   4.991   4.900   9.324
14687SOL    HW145900   4.909   4.945   9.305
14687SOL    HW245901   5.050   4.970   9.354
14688SOL     OW45902  12.166   4.147   9.462
14688SOL    HW145903  12.207   4.090   9.527
14688SOL    HW245904  12.236   4.206   9.435
14689SOL     OW45905  13.743  14.319  11.463
14689SOL    HW145906  13.730  14.225  11.450
14689SOL    HW245907  13.784  14.326  11.549
14690SOL     OW45908   3.252   1.699   2.265
14690SOL    HW145909   3.160   1.689   2.242
14690SOL    HW245910   3.290   1.612   2.251
14691SOL     OW45911  14.709  11.358   8.643
14691SOL    HW145912  14.786  11.373   8.588
14691SOL    HW245913  14.723  11.271   8.680
14692SOL     OW45914  14.441  14.667  12.424
14692SOL    HW145915  14.523  14.646  12.380
14692SOL    HW245916  14.393  14.722  12.361
14693SOL     OW45917  11.106   4.239   5.917
14693SOL    HW145918  11.106   4.199   6.003
14693SOL    HW245919  11.096   4.333   5.933
14694SOL     OW45920   7.055   8.403  12.427
14694SOL    HW145921   6.986   8.342  12.403
14694SOL    HW245922   7.063   8.462  12.353
14695SOL     OW45923   5.565   9.597   8.553
14695SOL    HW145924   5.601   9.608   8.465
14695SOL    HW245925   5.598   9.673   8.602
14696SOL     OW45926   5.993  13.893  12.857
14696SOL    HW145927   6.019  13.802  12.874
14696SOL    HW245928   5.916  13.906  12.913
14697SOL     OW45929   7.577   9.432   8.315
14697SOL    HW145930   7.554   9.399   8.402
14697SOL    HW245931   7.493   9.460   8.277
14698SOL     OW45932  12.350  14.699   7.275
14698SOL    HW145933  12.394  14.784   7.270
14698SOL    HW245934  12.279  14.713   7.338
14699SOL     OW45935   0.082   4.853   4.193
14699SOL    HW145936   0.102   4.870   4.285
14699SOL    HW245937   0.039   4.933   4.162
14700SOL     OW45938   1.937  14.051  12.336
14700SOL    HW145939   1.871  14.053  12.267
14700SOL    HW245940   1.908  14.117  12.399
14701SOL     OW45941   9.494  13.451  12.815
14701SOL    HW145942   9.448  13.525  12.855
14701SOL    HW245943   9.501  13.475  12.722
14702SOL     OW45944   5.431   8.273  13.140
14702SOL    HW145945   5.459   8.190  13.102
14702SOL    HW245946   5.357   8.250  13.196
14703SOL     OW45947   8.506   5.560  11.566
14703SOL    HW145948   8.420   5.560  11.525
14703SOL    HW245949   8.563   5.518  11.501
14704SOL     OW45950   6.754  12.443  14.536
14704SOL    HW145951   6.695  12.518  14.533
14704SOL    HW245952   6.759  12.420  14.629
14705SOL     OW45953   8.438   4.539   7.829
14705SOL    HW145954   8.425   4.631   7.851
14705SOL    HW245955   8.354   4.497   7.848
14706SOL     OW45956   4.061   7.408   9.734
14706SOL    HW145957   4.096   7.357   9.661
14706SOL    HW245958   4.024   7.343   9.793
14707SOL     OW45959   9.186   8.084   3.625
14707SOL    HW145960   9.209   8.046   3.710
14707SOL    HW245961   9.173   8.008   3.568
14708SOL     OW45962   6.159  12.783   0.066
14708SOL    HW145963   6.166  12.688   0.055
14708SOL    HW245964   6.208  12.819  14.866
14709SOL     OW45965  10.474  10.384   2.938
14709SOL    HW145966  10.521  10.307   2.906
14709SOL    HW245967  10.538  10.430   2.993
14710SOL     OW45968   1.149   2.995   8.168
14710SOL    HW145969   1.150   3.061   8.237
14710SOL    HW245970   1.069   3.011   8.119
14711SOL     OW45971   3.765  11.689  10.988
14711SOL    HW145972   3.777  11.737  11.070
14711SOL    HW245973   3.740  11.601  11.015
14712SOL     OW45974   8.953   4.522   6.476
14712SOL    HW145975   8.980   4.581   6.406
14712SOL    HW245976   8.858   4.513   6.465
14713SOL     OW45977   9.876   1.038  12.344
14713SOL    HW145978   9.849   1.054  12.434
14713SOL    HW245979   9.797   1.007  12.300
14714SOL     OW45980   3.934   4.683   0.873
14714SOL    HW145981   3.912   4.728   0.954
14714SOL    HW245982   3.903   4.593   0.886
14715SOL     OW45983  12.764  11.250  12.433
14715SOL    HW145984  12.679  11.213  12.456
14715SOL    HW245985  12.777  11.225  12.341
14716SOL     OW45986  10.043   3.850  13.480
14716SOL    HW145987  10.084   3.921  13.431
14716SOL    HW245988   9.960   3.834  13.435
14717SOL     OW45989   2.046  10.063  12.701
14717SOL    HW145990   2.067   9.975  12.672
14717SOL    HW245991   2.056  10.117  12.622
14718SOL     OW45992  11.816  13.344   4.593
14718SOL    HW145993  11.817  13.251   4.614
14718SOL    HW245994  11.846  13.387   4.673
14719SOL     OW45995   8.309   0.570   9.431
14719SOL    HW145996   8.402   0.587   9.413
14719SOL    HW245997   8.309   0.484   9.473
14720SOL     OW45998   9.857   1.210   6.019
14720SOL    HW145999   9.887   1.168   5.937
14720SOL    HW246000   9.937   1.220   6.070
14721SOL     OW46001   9.910   2.804  11.797
14721SOL    HW146002   9.983   2.747  11.821
14721SOL    HW246003   9.950   2.888  11.777
14722SOL     OW46004   2.713  13.873  14.001
14722SOL    HW146005   2.747  13.889  14.089
14722SOL    HW246006   2.780  13.910  13.943
14723SOL     OW46007  12.646   3.971   1.304
14723SOL    HW146008  12.618   3.929   1.385
14723SOL    HW246009  12.646   3.901   1.239
14724SOL     OW46010   9.546  14.325   0.018
14724SOL    HW146011   9.579  14.368  14.813
14724SOL    HW246012   9.505  14.245  14.860
14725SOL     OW46013  13.095   3.249   6.585
14725SOL    HW146014  13.071   3.260   6.493
14725SOL    HW246015  13.072   3.158   6.605
14726SOL     OW46016   2.495   2.674   7.817
14726SOL    HW146017   2.475   2.678   7.723
14726SOL    HW246018   2.514   2.765   7.841
14727SOL     OW46019  11.251   2.553   5.807
14727SOL    HW146020  11.193   2.548   5.731
14727SOL    HW246021  11.202   2.509   5.877
14728SOL     OW46022  10.869   0.368   6.692
14728SOL    HW146023  10.834   0.293   6.740
14728SOL    HW246024  10.795   0.428   6.685
14729SOL     OW46025  12.748   2.750  14.268
14729SOL    HW146026  12.735   2.829  14.215
14729SOL    HW246027  12.808   2.696  14.216
14730SOL     OW46028  13.812   7.346   2.971
14730SOL    HW146029  13.734   7.311   2.927
14730SOL    HW246030  13.824   7.432   2.932
14731SOL     OW46031   7.846   3.699   7.056
14731SOL    HW146032   7.932   3.664   7.080
14731SOL    HW246033   7.801   3.710   7.140
14732SOL     OW46034   3.592   0.626   7.560
14732SOL    HW146035   3.604   0.553   7.620
14732SOL    HW246036   3.500   0.650   7.570
14733SOL     OW46037   5.286   6.651   1.615
14733SOL    HW146038   5.276   6.628   1.522
14733SOL    HW246039   5.313   6.569   1.656
14734SOL     OW46040   5.815   8.391  10.631
14734SOL    HW146041   5.814   8.486  10.642
14734SOL    HW246042   5.725   8.364  10.651
14735SOL     OW46043  13.271   1.795  13.426
14735SOL    HW146044  13.295   1.845  13.348
14735SOL    HW246045  13.281   1.857  13.499
14736SOL     OW46046   2.070  13.017   2.391
14736SOL    HW146047   2.065  13.104   2.430
14736SOL    HW246048   1.979  12.989   2.381
14737SOL     OW46049   8.564   7.580  11.799
14737SOL    HW146050   8.578   7.660  11.749
14737SOL    HW246051   8.531   7.517  11.734
14738SOL     OW46052   8.142   7.835  11.767
14738SOL    HW146053   8.177   7.758  11.723
14738SOL    HW246054   8.057   7.807  11.801
14739SOL     OW46055  10.481   7.724   7.114
14739SOL    HW146056  10.531   7.752   7.037
14739SOL    HW246057  10.412   7.789   7.123
14740SOL     OW46058   4.694   1.053   0.757
14740SOL    HW146059   4.621   1.068   0.817
14740SOL    HW246060   4.718   1.140   0.726
14741SOL     OW46061   1.994   6.319   0.573
14741SOL    HW146062   2.023   6.338   0.484
14741SOL    HW246063   1.995   6.224   0.579
14742SOL     OW46064   6.086   2.838   2.066
14742SOL    HW146065   6.068   2.904   2.133
14742SOL    HW246066   6.126   2.765   2.114
14743SOL     OW46067   4.506   9.844  12.239
14743SOL    HW146068   4.572   9.800  12.293
14743SOL    HW246069   4.451   9.891  12.302
14744SOL     OW46070   1.125   0.592  11.375
14744SOL    HW146071   1.213   0.562  11.352
14744SOL    HW246072   1.077   0.512  11.396
14745SOL     OW46073  11.517   3.815   5.531
14745SOL    HW146074  11.601   3.769   5.535
14745SOL    HW246075  11.459   3.755   5.483
14746SOL     OW46076   6.516   4.521   5.034
14746SOL    HW146077   6.444   4.461   5.055
14746SOL    HW246078   6.583   4.464   4.995
14747SOL     OW46079   2.997   2.855   0.088
14747SOL    HW146080   3.052   2.889   0.158
14747SOL    HW246081   2.956   2.933   0.049
14748SOL     OW46082  12.361  11.626  14.277
14748SOL    HW146083  12.378  11.556  14.340
14748SOL    HW246084  12.431  11.689  14.291
14749SOL     OW46085   2.069   6.493   7.057
14749SOL    HW146086   2.136   6.544   7.012
14749SOL    HW246087   2.014   6.459   6.987
14750SOL     OW46088  12.780   5.870   3.337
14750SOL    HW146089  12.759   5.777   3.331
14750SOL    HW246090  12.864   5.878   3.291
14751SOL     OW46091   3.692   7.369   5.315
14751SOL    HW146092   3.608   7.411   5.298
14751SOL    HW246093   3.670   7.278   5.336
14752SOL     OW46094   8.320   7.084   6.837
14752SOL    HW146095   8.287   7.008   6.790
14752SOL    HW246096   8.250   7.109   6.897
14753SOL     OW46097   5.446   7.137   4.454
14753SOL    HW146098   5.485   7.165   4.537
14753SOL    HW246099   5.517   7.144   4.391
14754SOL     OW46100   5.688  10.522  13.499
14754SOL    HW146101   5.626  10.560  13.437
14754SOL    HW246102   5.663  10.430  13.504
14755SOL     OW46103   3.931   6.610   3.181
14755SOL    HW146104   3.835   6.610   3.187
14755SOL    HW246105   3.956   6.522   3.208
14756SOL     OW46106   4.557  10.633  11.205
14756SOL    HW146107   4.561  10.705  11.268
14756SOL    HW246108   4.615  10.566  11.242
14757SOL     OW46109   4.887   8.945  13.978
14757SOL    HW146110   4.971   8.992  13.981
14757SOL    HW246111   4.908   8.860  13.942
14758SOL     OW46112  10.026  13.067   8.952
14758SOL    HW146113  10.031  13.152   8.995
14758SOL    HW246114   9.958  13.077   8.885
14759SOL     OW46115  12.804   6.398   8.394
14759SOL    HW146116  12.745   6.419   8.321
14759SOL    HW246117  12.886   6.374   8.352
14760SOL     OW46118  13.004   8.073   6.762
14760SOL    HW146119  13.002   8.012   6.688
14760SOL    HW246120  12.953   8.030   6.830
14761SOL     OW46121   7.062  13.188   8.306
14761SOL    HW146122   6.971  13.177   8.277
14761SOL    HW246123   7.110  13.215   8.228
14762SOL     OW46124  11.145  14.395  13.398
14762SOL    HW146125  11.142  14.319  13.341
14762SOL    HW246126  11.073  14.381  13.461
14763SOL     OW46127   8.766   7.101   5.018
14763SOL    HW146128   8.850   7.054   5.015
14763SOL    HW246129   8.758   7.139   4.931
14764SOL     OW46130   6.766   1.150  13.378
14764SOL    HW146131   6.728   1.184  13.296
14764SOL    HW246132   6.695   1.155  13.441
14765SOL     OW46133  14.853  10.439   4.457
14765SOL    HW146134   0.069  10.450   4.490
14765SOL    HW246135  14.856  10.359   4.404
14766SOL     OW46136  14.852   0.682  10.669
14766SOL    HW146137  14.872   0.711  10.758
14766SOL    HW246138  14.778   0.737  10.643
14767SOL     OW46139   5.497  10.281   0.301
14767SOL    HW146140   5.433  10.210   0.291
14767SOL    HW246141   5.572  10.254   0.248
14768SOL     OW46142   7.594   0.372   8.337
14768SOL    HW146143   7.609   0.467   8.342
14768SOL    HW246144   7.557   0.358   8.250
14769SOL     OW46145   9.361   5.501  14.533
14769SOL    HW146146   9.286   5.548  14.570
14769SOL    HW246147   9.330   5.470  14.448
14770SOL     OW46148  14.767   1.641   4.870
14770SOL    HW146149  14.844   1.698   4.878
14770SOL    HW246150  14.736   1.630   4.960
14771SOL     OW46151   7.825   5.713   6.403
14771SOL    HW146152   7.821   5.744   6.313
14771SOL    HW246153   7.910   5.670   6.410
14772SOL     OW46154  10.801  14.160   6.925
14772SOL    HW146155  10.836  14.215   6.854
14772SOL    HW246156  10.876  14.106   6.952
14773SOL     OW46157  11.761   6.424   0.475
14773SOL    HW146158  11.718   6.339   0.492
14773SOL    HW246159  11.851   6.412   0.506
14774SOL     OW46160  10.014   9.086   4.979
14774SOL    HW146161   9.985   9.162   5.030
14774SOL    HW246162  10.074   9.040   5.037
14775SOL     OW46163  13.239  10.797  10.680
14775SOL    HW146164  13.312  10.854  10.702
14775SOL    HW246165  13.182  10.851  10.626
14776SOL     OW46166   0.331   0.915   7.790
14776SOL    HW146167   0.254   0.896   7.738
14776SOL    HW246168   0.398   0.855   7.757
14777SOL     OW46169   9.893   6.658  11.065
14777SOL    HW146170   9.826   6.710  11.021
14777SOL    HW246171   9.855   6.638  11.151
14778SOL     OW46172  11.292   0.871   7.671
14778SOL    HW146173  11.266   0.859   7.762
14778SOL    HW246174  11.372   0.819   7.662
14779SOL     OW46175  11.002  10.504   5.920
14779SOL    HW146176  10.967  10.586   5.887
14779SOL    HW246177  10.942  10.437   5.887
14780SOL     OW46178   4.864   6.207   3.239
14780SOL    HW146179   4.815   6.126   3.228
14780SOL    HW246180   4.919   6.192   3.316
14781SOL     OW46181   9.870   4.701   8.652
14781SOL    HW146182   9.961   4.730   8.665
14781SOL    HW246183   9.819   4.753   8.715
14782SOL     OW46184   1.705  14.076   0.704
14782SOL    HW146185   1.666  14.073   0.791
14782SOL    HW246186   1.638  14.115   0.649
14783SOL     OW46187   1.249   1.997  12.122
14783SOL    HW146188   1.338   2.023  12.101
14783SOL    HW246189   1.255   1.904  12.142
14784SOL     OW46190  13.048  11.719   5.021
14784SOL    HW146191  12.957  11.749   5.020
14784SOL    HW246192  13.052  11.654   4.951
14785SOL     OW46193   6.878   8.745   3.104
14785SOL    HW146194   6.789   8.725   3.132
14785SOL    HW246195   6.867   8.801   3.027
14786SOL     OW46196  13.527   5.823   9.458
14786SOL    HW146197  13.432   5.832   9.453
14786SOL    HW246198  13.544   5.731   9.439
14787SOL     OW46199   1.640   2.985  11.271
14787SOL    HW146200   1.629   3.079  11.286
14787SOL    HW246201   1.714   2.978  11.212
14788SOL     OW46202   4.910  13.930  10.599
14788SOL    HW146203   4.877  13.840  10.604
14788SOL    HW246204   4.997  13.921  10.561
14789SOL     OW46205  11.076  12.121  13.933
14789SOL    HW146206  11.007  12.117  14.000
14789SOL    HW246207  11.036  12.168  13.860
14790SOL     OW46208  12.143  13.808  13.126
14790SOL    HW146209  12.094  13.750  13.183
14790SOL    HW246210  12.091  13.811  13.045
14791SOL     OW46211  10.699   2.827   2.840
14791SOL    HW146212  10.685   2.867   2.925
14791SOL    HW246213  10.685   2.898   2.777
14792SOL     OW46214  13.167  12.735  10.726
14792SOL    HW146215  13.181  12.830  10.717
14792SOL    HW246216  13.130  12.724  10.813
14793SOL     OW46217  11.485   2.240   2.301
14793SOL    HW146218  11.489   2.190   2.220
14793SOL    HW246219  11.414   2.199   2.351
14794SOL     OW46220   0.984   6.529   7.844
14794SOL    HW146221   1.030   6.447   7.825
14794SOL    HW246222   1.013   6.553   7.932
14795SOL     OW46223   5.426   6.581   4.591
14795SOL    HW146224   5.460   6.670   4.598
14795SOL    HW246225   5.339   6.585   4.629
14796SOL     OW46226   9.107  12.306   0.816
14796SOL    HW146227   9.161  12.303   0.895
14796SOL    HW246228   9.135  12.231   0.764
14797SOL     OW46229   9.356  10.698   4.876
14797SOL    HW146230   9.435  10.751   4.887
14797SOL    HW246231   9.300  10.750   4.818
14798SOL     OW46232   9.442   0.375   1.371
14798SOL    HW146233   9.422   0.315   1.443
14798SOL    HW246234   9.363   0.428   1.362
14799SOL     OW46235  11.529   1.263   4.514
14799SOL    HW146236  11.473   1.185   4.523
14799SOL    HW246237  11.611   1.229   4.478
14800SOL     OW46238  12.885  10.313   4.321
14800SOL    HW146239  12.822  10.254   4.280
14800SOL    HW246240  12.885  10.391   4.265
14801SOL     OW46241   9.012   7.598   4.864
14801SOL    HW146242   8.999   7.525   4.924
14801SOL    HW246243   9.047   7.557   4.784
14802SOL     OW46244   6.452   2.326   6.344
14802SOL    HW146245   6.486   2.409   6.376
14802SOL    HW246246   6.503   2.309   6.265
14803SOL     OW46247   5.675   7.508   1.819
14803SOL    HW146248   5.616   7.492   1.745
14803SOL    HW246249   5.627   7.474   1.895
14804SOL     OW46250   1.765  13.473  13.865
14804SOL    HW146251   1.837  13.426  13.822
14804SOL    HW246252   1.698  13.482  13.798
14805SOL     OW46253   8.285  11.713  13.454
14805SOL    HW146254   8.338  11.761  13.390
14805SOL    HW246255   8.196  11.714  13.418
14806SOL     OW46256  12.780  12.782   1.489
14806SOL    HW146257  12.822  12.855   1.445
14806SOL    HW246258  12.802  12.793   1.582
14807SOL     OW46259   5.616  12.385  11.029
14807SOL    HW146260   5.572  12.468  11.047
14807SOL    HW246261   5.577  12.323  11.091
14808SOL     OW46262   3.551   1.195   7.477
14808SOL    HW146263   3.612   1.132   7.439
14808SOL    HW246264   3.587   1.280   7.454
14809SOL     OW46265   4.978  12.293   4.949
14809SOL    HW146266   5.056  12.347   4.933
14809SOL    HW246267   4.986  12.267   5.040
14810SOL     OW46268  14.842   9.703   4.721
14810SOL    HW146269  14.827   9.681   4.629
14810SOL    HW246270  14.775   9.768   4.741
14811SOL     OW46271   7.679   4.633  11.071
14811SOL    HW146272   7.677   4.552  11.121
14811SOL    HW246273   7.592   4.639  11.030
14812SOL     OW46274   0.239  13.532   4.171
14812SOL    HW146275   0.191  13.456   4.203
14812SOL    HW246276   0.240  13.521   4.076
14813SOL     OW46277  11.089   2.346  11.284
14813SOL    HW146278  11.091   2.345  11.189
14813SOL    HW246279  11.002   2.377  11.307
14814SOL     OW46280   4.421  10.079   2.265
14814SOL    HW146281   4.348  10.100   2.323
14814SOL    HW246282   4.384  10.021   2.199
14815SOL     OW46283   9.928   5.711   4.654
14815SOL    HW146284  10.020   5.735   4.662
14815SOL    HW246285   9.907   5.668   4.737
14816SOL     OW46286  11.743   7.486  14.399
14816SOL    HW146287  11.695   7.560  14.435
14816SOL    HW246288  11.781   7.518  14.318
14817SOL     OW46289   0.930  11.170   0.823
14817SOL    HW146290   0.992  11.196   0.755
14817SOL    HW246291   0.976  11.103   0.873
14818SOL     OW46292   5.531  13.080   7.878
14818SOL    HW146293   5.565  13.088   7.789
14818SOL    HW246294   5.460  13.016   7.871
14819SOL     OW46295   9.264  10.778   9.147
14819SOL    HW146296   9.301  10.855   9.104
14819SOL    HW246297   9.223  10.812   9.226
14820SOL     OW46298  10.561  13.685  11.657
14820SOL    HW146299  10.560  13.780  11.671
14820SOL    HW246300  10.481  13.668  11.607
14821SOL     OW46301   7.424   2.646   5.130
14821SOL    HW146302   7.399   2.595   5.053
14821SOL    HW246303   7.516   2.624   5.145
14822SOL     OW46304   9.528   3.542  13.836
14822SOL    HW146305   9.466   3.614  13.837
14822SOL    HW246306   9.481   3.470  13.795
14823SOL     OW46307   5.790  10.395   0.577
14823SOL    HW146308   5.816  10.335   0.507
14823SOL    HW246309   5.698  10.414   0.559
14824SOL     OW46310   4.690   9.993   1.770
14824SOL    HW146311   4.657   9.940   1.698
14824SOL    HW246312   4.778   9.961   1.785
14825SOL     OW46313   5.918   9.531   3.708
14825SOL    HW146314   5.938   9.544   3.801
14825SOL    HW246315   5.863   9.605   3.685
14826SOL     OW46316  13.013   8.381   4.505
14826SOL    HW146317  13.033   8.371   4.599
14826SOL    HW246318  13.071   8.451   4.476
14827SOL     OW46319   5.565   3.976  12.109
14827SOL    HW146320   5.541   4.059  12.151
14827SOL    HW246321   5.488   3.921  12.118
14828SOL     OW46322   3.430  11.328   7.676
14828SOL    HW146323   3.519  11.323   7.642
14828SOL    HW246324   3.383  11.260   7.628
14829SOL     OW46325   6.607   4.432   8.463
14829SOL    HW146326   6.667   4.504   8.482
14829SOL    HW246327   6.629   4.364   8.527
14830SOL     OW46328   1.120   1.962  14.361
14830SOL    HW146329   1.119   2.019  14.284
14830SOL    HW246330   1.028   1.943  14.378
14831SOL     OW46331   2.590  13.098   2.747
14831SOL    HW146332   2.608  13.009   2.718
14831SOL    HW246333   2.675  13.130   2.779
14832SOL     OW46334  14.254  13.183   4.514
14832SOL    HW146335  14.288  13.107   4.560
14832SOL    HW246336  14.280  13.171   4.423
14833SOL     OW46337  12.393   8.944   9.479
14833SOL    HW146338  12.350   8.861   9.459
14833SOL    HW246339  12.379   8.998   9.401
14834SOL     OW46340   4.453  11.581   3.434
14834SOL    HW146341   4.405  11.619   3.361
14834SOL    HW246342   4.389  11.526   3.479
14835SOL     OW46343   8.325   7.550  12.897
14835SOL    HW146344   8.304   7.611  12.968
14835SOL    HW246345   8.324   7.464  12.938
14836SOL     OW46346  11.668   2.597   5.993
14836SOL    HW146347  11.673   2.533   6.063
14836SOL    HW246348  11.751   2.645   5.997
14837SOL     OW46349   1.570   8.236  14.189
14837SOL    HW146350   1.508   8.303  14.162
14837SOL    HW246351   1.563   8.168  14.122
14838SOL     OW46352   9.912   6.377   6.772
14838SOL    HW146353   9.994   6.332   6.794
14838SOL    HW246354   9.877   6.405   6.856
14839SOL     OW46355   5.590  14.800   0.043
14839SOL    HW146356   5.602  14.705   0.045
14839SOL    HW246357   5.671  14.835   0.080
14840SOL     OW46358   7.664  13.810   6.476
14840SOL    HW146359   7.718  13.854   6.410
14840SOL    HW246360   7.579  13.797   6.433
14841SOL     OW46361  12.146   5.938   0.525
14841SOL    HW146362  12.103   5.915   0.442
14841SOL    HW246363  12.082   5.992   0.571
14842SOL     OW46364  12.980  14.621  12.768
14842SOL    HW146365  13.048  14.687  12.757
14842SOL    HW246366  12.898  14.668  12.750
14843SOL     OW46367   1.760  11.464   7.068
14843SOL    HW146368   1.792  11.375   7.084
14843SOL    HW246369   1.741  11.467   6.974
14844SOL     OW46370  10.254   5.742  11.822
14844SOL    HW146371  10.255   5.657  11.867
14844SOL    HW246372  10.347   5.762  11.809
14845SOL     OW46373   5.397  12.911   6.376
14845SOL    HW146374   5.432  12.886   6.290
14845SOL    HW246375   5.415  12.836   6.432
14846SOL     OW46376  11.958   2.436   2.805
14846SOL    HW146377  11.913   2.442   2.889
14846SOL    HW246378  11.953   2.343   2.781
14847SOL     OW46379  12.745  14.142   1.752
14847SOL    HW146380  12.749  14.123   1.658
14847SOL    HW246381  12.742  14.237   1.757
14848SOL     OW46382   7.467  13.983   6.606
14848SOL    HW146383   7.402  13.915   6.586
14848SOL    HW246384   7.550  13.947   6.572
14849SOL     OW46385   2.288   4.542   7.022
14849SOL    HW146386   2.270   4.552   6.929
14849SOL    HW246387   2.243   4.615   7.064
14850SOL     OW46388  10.585   7.283   7.901
14850SOL    HW146389  10.612   7.359   7.954
14850SOL    HW246390  10.529   7.320   7.833
14851SOL     OW46391   6.794   1.856   4.490
14851SOL    HW146392   6.744   1.888   4.415
14851SOL    HW246393   6.756   1.902   4.565
14852SOL     OW46394   4.191  12.575  14.611
14852SOL    HW146395   4.127  12.636  14.575
14852SOL    HW246396   4.185  12.587  14.705
14853SOL     OW46397  12.320   7.578   9.556
14853SOL    HW146398  12.307   7.609   9.646
14853SOL    HW246399  12.315   7.483   9.562
14854SOL     OW46400  10.170  10.693   5.913
14854SOL    HW146401  10.142  10.691   5.821
14854SOL    HW246402  10.106  10.750   5.956
14855SOL     OW46403   8.265   6.626  14.539
14855SOL    HW146404   8.216   6.571  14.478
14855SOL    HW246405   8.354   6.588  14.539
14856SOL     OW46406  12.815   3.273  14.641
14856SOL    HW146407  12.839   3.194  14.689
14856SOL    HW246408  12.896   3.323  14.635
14857SOL     OW46409   0.073   1.153  11.476
14857SOL    HW146410   0.115   1.079  11.432
14857SOL    HW246411  14.869   1.115  11.517
14858SOL     OW46412  14.003  11.258   8.041
14858SOL    HW146413  13.922  11.215   8.066
14858SOL    HW246414  14.072  11.197   8.068
14859SOL     OW46415   2.575   8.584   1.785
14859SOL    HW146416   2.514   8.525   1.739
14859SOL    HW246417   2.642   8.525   1.821
14860SOL     OW46418  14.058   3.070   4.791
14860SOL    HW146419  13.963   3.081   4.793
14860SOL    HW246420  14.073   3.001   4.726
14861SOL     OW46421   9.219   6.488   0.858
14861SOL    HW146422   9.243   6.525   0.943
14861SOL    HW246423   9.300   6.493   0.807
14862SOL     OW46424   6.320  12.746   8.262
14862SOL    HW146425   6.388  12.795   8.309
14862SOL    HW246426   6.251  12.732   8.326
14863SOL     OW46427   8.438   0.343   0.261
14863SOL    HW146428   8.351   0.315   0.288
14863SOL    HW246429   8.489   0.262   0.255
14864SOL     OW46430   5.522  12.030  10.234
14864SOL    HW146431   5.590  12.025  10.167
14864SOL    HW246432   5.442  12.003  10.189
14865SOL     OW46433  12.519  12.294   7.040
14865SOL    HW146434  12.427  12.306   7.019
14865SOL    HW246435  12.542  12.210   6.999
14866SOL     OW46436   5.356   8.077   2.957
14866SOL    HW146437   5.354   8.129   2.876
14866SOL    HW246438   5.438   8.104   3.000
14867SOL     OW46439   5.898   1.700  10.427
14867SOL    HW146440   5.816   1.678  10.382
14867SOL    HW246441   5.910   1.629  10.491
14868SOL     OW46442  13.886  10.186   5.089
14868SOL    HW146443  13.824  10.257   5.068
14868SOL    HW246444  13.971  10.219   5.059
14869SOL     OW46445   2.542   6.872   8.824
14869SOL    HW146446   2.623   6.921   8.837
14869SOL    HW246447   2.556   6.825   8.741
14870SOL     OW46448   5.977   6.240  10.911
14870SOL    HW146449   6.069   6.219  10.924
14870SOL    HW246450   5.978   6.313  10.848
14871SOL     OW46451  10.175   6.109  12.960
14871SOL    HW146452  10.169   6.196  13.000
14871SOL    HW246453  10.085   6.076  12.963
14872SOL     OW46454  12.392   6.521  11.189
14872SOL    HW146455  12.307   6.523  11.146
14872SOL    HW246456  12.427   6.609  11.175
14873SOL     OW46457   1.918   1.198  11.192
14873SOL    HW146458   1.986   1.220  11.256
14873SOL    HW246459   1.841   1.176  11.244
14874SOL     OW46460   0.381  13.955  13.670
14874SOL    HW146461   0.398  14.049  13.659
14874SOL    HW246462   0.368  13.944  13.765
14875SOL     OW46463  12.346  12.987   3.671
14875SOL    HW146464  12.350  13.065   3.727
14875SOL    HW246465  12.404  12.924   3.714
14876SOL     OW46466   5.721  11.323   7.022
14876SOL    HW146467   5.759  11.237   7.005
14876SOL    HW246468   5.777  11.362   7.088
14877SOL     OW46469   0.468   0.838   6.318
14877SOL    HW146470   0.463   0.779   6.394
14877SOL    HW246471   0.377   0.863   6.301
14878SOL     OW46472   4.587   0.523   5.839
14878SOL    HW146473   4.529   0.589   5.877
14878SOL    HW246474   4.608   0.464   5.911
14879SOL     OW46475   8.941   7.272   9.333
14879SOL    HW146476   8.849   7.268   9.361
14879SOL    HW246477   8.975   7.184   9.349
14880SOL     OW46478   2.220   4.200   5.353
14880SOL    HW146479   2.200   4.236   5.439
14880SOL    HW246480   2.211   4.273   5.293
14881SOL     OW46481   5.222   9.607  13.964
14881SOL    HW146482   5.264   9.687  13.933
14881SOL    HW246483   5.133   9.634  13.989
14882SOL     OW46484   9.906   8.300   1.873
14882SOL    HW146485   9.846   8.371   1.896
14882SOL    HW246486   9.854   8.220   1.887
14883SOL     OW46487   9.573   6.363   2.386
14883SOL    HW146488   9.533   6.380   2.472
14883SOL    HW246489   9.658   6.323   2.406
14884SOL     OW46490  11.357  11.642  12.252
14884SOL    HW146491  11.376  11.593  12.332
14884SOL    HW246492  11.300  11.713  12.280
14885SOL     OW46493   8.833   6.516   8.821
14885SOL    HW146494   8.777   6.523   8.898
14885SOL    HW246495   8.773   6.529   8.747
14886SOL     OW46496   2.805   0.033   0.891
14886SOL    HW146497   2.733   0.005   0.947
14886SOL    HW246498   2.884   0.007   0.939
14887SOL     OW46499   4.334  13.098   8.655
14887SOL    HW146500   4.289  13.177   8.624
14887SOL    HW246501   4.276  13.026   8.631
14888SOL     OW46502   7.154  10.058  12.797
14888SOL    HW146503   7.157  10.031  12.705
14888SOL    HW246504   7.181  10.150  12.795
14889SOL     OW46505   2.712   5.550   4.612
14889SOL    HW146506   2.802   5.581   4.619
14889SOL    HW246507   2.689   5.524   4.701
14890SOL     OW46508   3.011   7.941  11.596
14890SOL    HW146509   3.090   7.916  11.642
14890SOL    HW246510   3.041   7.994  11.522
14891SOL     OW46511   1.738  10.735   6.015
14891SOL    HW146512   1.686  10.731   6.096
14891SOL    HW246513   1.758  10.828   6.004
14892SOL     OW46514   0.998   8.392  10.996
14892SOL    HW146515   1.062   8.390  10.924
14892SOL    HW246516   1.034   8.332  11.061
14893SOL     OW46517  11.942   3.188   5.449
14893SOL    HW146518  11.951   3.257   5.384
14893SOL    HW246519  11.951   3.107   5.399
14894SOL     OW46520  11.256  12.010   6.146
14894SOL    HW146521  11.315  12.064   6.198
14894SOL    HW246522  11.169  12.050   6.160
14895SOL     OW46523   3.731   4.394   9.126
14895SOL    HW146524   3.792   4.361   9.060
14895SOL    HW246525   3.758   4.485   9.141
14896SOL     OW46526   6.857   8.531   3.933
14896SOL    HW146527   6.895   8.493   3.854
14896SOL    HW246528   6.764   8.508   3.928
14897SOL     OW46529   4.265  13.079   1.619
14897SOL    HW146530   4.360  13.088   1.625
14897SOL    HW246531   4.233  13.168   1.606
14898SOL     OW46532   4.353  13.948  13.912
14898SOL    HW146533   4.400  14.030  13.929
14898SOL    HW246534   4.360  13.900  13.995
14899SOL     OW46535  14.248   5.067   9.857
14899SOL    HW146536  14.198   5.131   9.806
14899SOL    HW246537  14.190   5.044   9.930
14900SOL     OW46538  12.702   3.487   4.911
14900SOL    HW146539  12.635   3.505   4.977
14900SOL    HW246540  12.709   3.392   4.908
14901SOL     OW46541  10.326  13.460  10.300
14901SOL    HW146542  10.282  13.516  10.236
14901SOL    HW246543  10.350  13.382  10.250
14902SOL     OW46544   4.737   3.383   8.120
14902SOL    HW146545   4.831   3.369   8.128
14902SOL    HW246546   4.697   3.315   8.174
14903SOL     OW46547   8.695   2.393   0.781
14903SOL    HW146548   8.757   2.350   0.840
14903SOL    HW246549   8.624   2.330   0.771
14904SOL     OW46550   9.283   5.778  11.234
14904SOL    HW146551   9.228   5.731  11.173
14904SOL    HW246552   9.363   5.725  11.241
14905SOL     OW46553   2.915  14.689  13.726
14905SOL    HW146554   2.953  14.639  13.654
14905SOL    HW246555   2.820  14.685  13.711
14906SOL     OW46556   2.276  10.117  10.704
14906SOL    HW146557   2.240  10.066  10.777
14906SOL    HW246558   2.364  10.082  10.691
14907SOL     OW46559  11.762  13.719   5.856
14907SOL    HW146560  11.769  13.732   5.951
14907SOL    HW246561  11.843  13.674   5.832
14908SOL     OW46562  10.630  13.211  13.965
14908SOL    HW146563  10.536  13.199  13.977
14908SOL    HW246564  10.658  13.137  13.910
14909SOL     OW46565   4.671   7.948  13.043
14909SOL    HW146566   4.667   7.968  13.137
14909SOL    HW246567   4.579   7.947  13.015
14910SOL     OW46568  11.319   3.815   4.173
14910SOL    HW146569  11.264   3.808   4.250
14910SOL    HW246570  11.305   3.904   4.141
14911SOL     OW46571   3.106   6.740   9.835
14911SOL    HW146572   3.057   6.777   9.762
14911SOL    HW246573   3.165   6.810   9.863
14912SOL     OW46574   7.997   7.256  12.448
14912SOL    HW146575   7.926   7.225  12.504
14912SOL    HW246576   8.071   7.201  12.472
14913SOL     OW46577   1.632   1.841   5.940
14913SOL    HW146578   1.583   1.860   5.860
14913SOL    HW246579   1.631   1.923   5.989
14914SOL     OW46580   1.108   0.470   3.377
14914SOL    HW146581   1.146   0.415   3.309
14914SOL    HW246582   1.165   0.457   3.453
14915SOL     OW46583   1.802   0.401  12.372
14915SOL    HW146584   1.726   0.435  12.419
14915SOL    HW246585   1.877   0.435  12.420
14916SOL     OW46586   8.973  10.296   5.550
14916SOL    HW146587   9.028  10.375   5.545
14916SOL    HW246588   8.974  10.260   5.462
14917SOL     OW46589   5.113   4.114  11.766
14917SOL    HW146590   5.101   4.201  11.728
14917SOL    HW246591   5.026   4.074  11.761
14918SOL     OW46592   9.203  10.197   0.901
14918SOL    HW146593   9.136  10.129   0.896
14918SOL    HW246594   9.284  10.150   0.917
14919SOL     OW46595   1.470  12.744   6.314
14919SOL    HW146596   1.542  12.784   6.267
14919SOL    HW246597   1.398  12.742   6.251
14920SOL     OW46598  11.697   2.243   0.656
14920SOL    HW146599  11.765   2.181   0.629
14920SOL    HW246600  11.711   2.256   0.749
14921SOL     OW46601   0.398   8.281  10.726
14921SOL    HW146602   0.354   8.360  10.758
14921SOL    HW246603   0.326   8.227  10.691
14922SOL     OW46604   9.355   7.401   1.948
14922SOL    HW146605   9.402   7.335   1.999
14922SOL    HW246606   9.278   7.356   1.915
14923SOL     OW46607  13.034  12.119  13.561
14923SOL    HW146608  12.993  12.194  13.604
14923SOL    HW246609  13.070  12.068  13.634
14924SOL     OW46610   3.838   7.404   6.186
14924SOL    HW146611   3.812   7.429   6.275
14924SOL    HW246612   3.764   7.352   6.154
14925SOL     OW46613  13.339  10.742   1.051
14925SOL    HW146614  13.425  10.731   1.011
14925SOL    HW246615  13.324  10.661   1.100
14926SOL     OW46616   8.187   4.949   0.606
14926SOL    HW146617   8.180   4.961   0.511
14926SOL    HW246618   8.277   4.975   0.627
14927SOL     OW46619   7.649   7.128   9.375
14927SOL    HW146620   7.590   7.180   9.320
14927SOL    HW246621   7.724   7.186   9.391
14928SOL     OW46622   3.845   1.322   0.116
14928SOL    HW146623   3.775   1.314   0.180
14928SOL    HW246624   3.840   1.412   0.085
14929SOL     OW46625  13.440   9.420  10.642
14929SOL    HW146626  13.383   9.345  10.623
14929SOL    HW246627  13.519   9.381  10.678
14930SOL     OW46628   7.200   8.630   2.466
14930SOL    HW146629   7.266   8.696   2.489
14930SOL    HW246630   7.117   8.677   2.468
14931SOL     OW46631   3.320   9.640   7.948
14931SOL    HW146632   3.279   9.725   7.966
14931SOL    HW246633   3.412   9.652   7.973
14932SOL     OW46634  12.943   7.579   5.828
14932SOL    HW146635  12.965   7.591   5.736
14932SOL    HW246636  12.860   7.626   5.839
14933SOL     OW46637   9.174   1.227  10.698
14933SOL    HW146638   9.167   1.157  10.633
14933SOL    HW246639   9.265   1.224  10.726
14934SOL     OW46640  14.138   3.964  10.946
14934SOL    HW146641  14.059   3.918  10.918
14934SOL    HW246642  14.106   4.048  10.980
14935SOL     OW46643  14.484   2.306  10.625
14935SOL    HW146644  14.538   2.235  10.591
14935SOL    HW246645  14.446   2.347  10.548
14936SOL     OW46646  12.546  10.913   2.832
14936SOL    HW146647  12.587  10.900   2.747
14936SOL    HW246648  12.573  10.837   2.883
14937SOL     OW46649   4.914   5.101  11.257
14937SOL    HW146650   4.837   5.138  11.213
14937SOL    HW246651   4.922   5.151  11.338
14938SOL     OW46652   7.320   7.146   1.803
14938SOL    HW146653   7.351   7.091   1.730
14938SOL    HW246654   7.240   7.103   1.832
14939SOL     OW46655   0.117  14.113   0.246
14939SOL    HW146656   0.148  14.133   0.334
14939SOL    HW246657   0.111  14.017   0.243
14940SOL     OW46658   7.279   2.154   3.214
14940SOL    HW146659   7.348   2.091   3.194
14940SOL    HW246660   7.324   2.238   3.219
14941SOL     OW46661  13.958   6.141   1.432
14941SOL    HW146662  14.031   6.114   1.488
14941SOL    HW246663  13.886   6.159   1.492
14942SOL     OW46664  10.625   7.521   0.657
14942SOL    HW146665  10.555   7.464   0.688
14942SOL    HW246666  10.584   7.572   0.587
14943SOL     OW46667   1.948  14.409   0.333
14943SOL    HW146668   2.018  14.465   0.299
14943SOL    HW246669   1.897  14.466   0.389
14944SOL     OW46670  14.610   6.673   9.442
14944SOL    HW146671  14.538   6.732   9.422
14944SOL    HW246672  14.646   6.706   9.524
14945SOL     OW46673   2.563  14.108  14.683
14945SOL    HW146674   2.553  14.198  14.716
14945SOL    HW246675   2.511  14.107  14.602
14946SOL     OW46676   0.522   2.009   0.051
14946SOL    HW146677   0.505   1.973  14.838
14946SOL    HW246678   0.555   1.935   0.101
14947SOL     OW46679   3.169  14.106  11.928
14947SOL    HW146680   3.179  14.140  11.839
14947SOL    HW246681   3.205  14.175  11.984
14948SOL     OW46682   4.471   3.914   0.302
14948SOL    HW146683   4.431   3.835   0.265
14948SOL    HW246684   4.523   3.882   0.376
14949SOL     OW46685  10.737   5.654   5.784
14949SOL    HW146686  10.675   5.662   5.857
14949SOL    HW246687  10.747   5.744   5.752
14950SOL     OW46688   0.760   1.291   1.631
14950SOL    HW146689   0.702   1.217   1.647
14950SOL    HW246690   0.832   1.280   1.694
14951SOL     OW46691   3.631   9.036  10.397
14951SOL    HW146692   3.642   8.968  10.463
14951SOL    HW246693   3.719   9.052  10.364
14952SOL     OW46694   6.297  12.343  14.233
14952SOL    HW146695   6.346  12.398  14.294
14952SOL    HW246696   6.352  12.339  14.155
14953SOL     OW46697  14.626   4.609   2.940
14953SOL    HW146698  14.674   4.601   2.858
14953SOL    HW246699  14.681   4.563   3.004
14954SOL     OW46700   3.100   0.686   7.216
14954SOL    HW146701   3.103   0.617   7.282
14954SOL    HW246702   3.188   0.724   7.218
14955SOL     OW46703   8.896  11.872   3.758
14955SOL    HW146704   8.845  11.792   3.749
14955SOL    HW246705   8.979  11.843   3.796
14956SOL     OW46706   4.408   8.805   3.025
14956SOL    HW146707   4.450   8.777   3.106
14956SOL    HW246708   4.333   8.746   3.015
14957SOL     OW46709   6.950   6.484   9.928
14957SOL    HW146710   7.002   6.540   9.985
14957SOL    HW246711   7.005   6.470   9.851
14958SOL     OW46712   5.762   4.848   2.302
14958SOL    HW146713   5.669   4.827   2.306
14958SOL    HW246714   5.805   4.766   2.281
14959SOL     OW46715   4.182   2.159   2.134
14959SOL    HW146716   4.088   2.164   2.119
14959SOL    HW246717   4.220   2.148   2.047
14960SOL     OW46718   0.783   8.750   5.494
14960SOL    HW146719   0.827   8.790   5.419
14960SOL    HW246720   0.718   8.692   5.456
14961SOL     OW46721   6.831  13.580  11.093
14961SOL    HW146722   6.775  13.509  11.125
14961SOL    HW246723   6.784  13.660  11.117
14962SOL     OW46724   1.978  11.780   7.449
14962SOL    HW146725   1.885  11.782   7.471
14962SOL    HW246726   1.981  11.734   7.365
14963SOL     OW46727   3.983   1.354   1.308
14963SOL    HW146728   3.948   1.434   1.270
14963SOL    HW246729   3.994   1.295   1.233
14964SOL     OW46730   3.356  12.443  14.714
14964SOL    HW146731   3.292  12.413  14.650
14964SOL    HW246732   3.319  12.525  14.748
14965SOL     OW46733   8.399   5.908   2.918
14965SOL    HW146734   8.421   5.854   2.994
14965SOL    HW246735   8.395   5.997   2.952
14966SOL     OW46736  14.364   4.276  12.994
14966SOL    HW146737  14.415   4.199  13.021
14966SOL    HW246738  14.426   4.349  13.001
14967SOL     OW46739  13.484  13.013   6.137
14967SOL    HW146740  13.470  12.980   6.225
14967SOL    HW246741  13.577  13.034   6.134
14968SOL     OW46742  13.107  13.903  10.017
14968SOL    HW146743  13.136  13.946   9.937
14968SOL    HW246744  13.014  13.925  10.025
14969SOL     OW46745   3.880   6.705  13.392
14969SOL    HW146746   3.893   6.695  13.486
14969SOL    HW246747   3.968   6.706  13.355
14970SOL     OW46748   3.701   0.876  12.184
14970SOL    HW146749   3.760   0.888  12.258
14970SOL    HW246750   3.648   0.956  12.182
14971SOL     OW46751   8.632   4.476  14.316
14971SOL    HW146752   8.660   4.568  14.311
14971SOL    HW246753   8.712   4.427  14.334
14972SOL     OW46754   0.554   3.897   3.141
14972SOL    HW146755   0.593   3.815   3.171
14972SOL    HW246756   0.460   3.882   3.146
14973SOL     OW46757  11.591  13.976  14.826
14973SOL    HW146758  11.643  13.911  14.872
14973SOL    HW246759  11.639  14.058  14.839
14974SOL     OW46760   2.845   6.575   0.033
14974SOL    HW146761   2.847   6.671   0.035
14974SOL    HW246762   2.935   6.550   0.012
14975SOL     OW46763  10.098  13.355   3.560
14975SOL    HW146764  10.006  13.327   3.556
14975SOL    HW246765  10.096  13.431   3.619
14976SOL     OW46766   0.050  11.367   9.994
14976SOL    HW146767   0.056  11.376  10.089
14976SOL    HW246768   0.011  11.450   9.965
14977SOL     OW46769   0.432   6.201   6.284
14977SOL    HW146770   0.518   6.244   6.283
14977SOL    HW246771   0.380   6.249   6.219
14978SOL     OW46772   0.884   2.404   9.434
14978SOL    HW146773   0.910   2.320   9.471
14978SOL    HW246774   0.857   2.383   9.344
14979SOL     OW46775   6.054   5.360   4.052
14979SOL    HW146776   6.137   5.316   4.031
14979SOL    HW246777   6.034   5.411   3.974
14980SOL     OW46778   5.101  12.164  12.516
14980SOL    HW146779   5.172  12.172  12.453
14980SOL    HW246780   5.021  12.164  12.463
14981SOL     OW46781   5.329   8.370   3.173
14981SOL    HW146782   5.290   8.284   3.186
14981SOL    HW246783   5.255   8.429   3.157
14982SOL     OW46784   9.668   6.715   8.250
14982SOL    HW146785   9.615   6.671   8.316
14982SOL    HW246786   9.754   6.726   8.291
14983SOL     OW46787   3.828  13.809  10.040
14983SOL    HW146788   3.779  13.889  10.056
14983SOL    HW246789   3.847  13.811   9.946
14984SOL     OW46790   2.790   5.143   1.147
14984SOL    HW146791   2.823   5.063   1.187
14984SOL    HW246792   2.702   5.121   1.118
14985SOL     OW46793  14.780   7.753   4.627
14985SOL    HW146794  14.757   7.785   4.540
14985SOL    HW246795  14.713   7.688   4.648
14986SOL     OW46796   2.405   2.748   6.892
14986SOL    HW146797   2.466   2.754   6.819
14986SOL    HW246798   2.460   2.752   6.970
14987SOL     OW46799   6.215   4.089   3.472
14987SOL    HW146800   6.161   4.118   3.399
14987SOL    HW246801   6.202   4.156   3.540
14988SOL     OW46802  13.137   6.850   2.857
14988SOL    HW146803  13.204   6.918   2.854
14988SOL    HW246804  13.098   6.858   2.944
14989SOL     OW46805   7.929   4.724  12.728
14989SOL    HW146806   7.931   4.677  12.644
14989SOL    HW246807   7.929   4.816  12.703
14990SOL     OW46808  10.581   8.052   7.098
14990SOL    HW146809  10.598   7.965   7.060
14990SOL    HW246810  10.663   8.074   7.143
14991SOL     OW46811   0.571   9.102   7.947
14991SOL    HW146812   0.508   9.052   7.999
14991SOL    HW246813   0.562   9.192   7.979
14992SOL     OW46814  12.017  10.900   3.484
14992SOL    HW146815  11.994  10.985   3.521
14992SOL    HW246816  11.983  10.837   3.548
14993SOL     OW46817   8.794   1.146   5.769
14993SOL    HW146818   8.812   1.210   5.839
14993SOL    HW246819   8.737   1.082   5.810
14994SOL     OW46820   3.692  14.695   4.180
14994SOL    HW146821   3.692  14.668   4.271
14994SOL    HW246822   3.649  14.780   4.179
14995SOL     OW46823  13.354   6.806   0.259
14995SOL    HW146824  13.423   6.871   0.277
14995SOL    HW246825  13.297   6.850   0.195
14996SOL     OW46826   0.472   5.212   6.751
14996SOL    HW146827   0.488   5.293   6.798
14996SOL    HW246828   0.558   5.170   6.747
14997SOL     OW46829  11.342   1.476  13.433
14997SOL    HW146830  11.373   1.552  13.383
14997SOL    HW246831  11.411   1.461  13.498
14998SOL     OW46832  10.463  11.752   0.527
14998SOL    HW146833  10.417  11.749   0.443
14998SOL    HW246834  10.410  11.699   0.586
14999SOL     OW46835  14.156   1.133   8.990
14999SOL    HW146836  14.159   1.176   9.075
14999SOL    HW246837  14.242   1.090   8.982
15000SOL     OW46838   1.535  10.536  13.840
15000SOL    HW146839   1.561  10.499  13.755
15000SOL    HW246840   1.450  10.577  13.824
15001SOL     OW46841   4.653  13.719  10.282
15001SOL    HW146842   4.704  13.657  10.229
15001SOL    HW246843   4.651  13.799  10.230
15002SOL     OW46844  11.392  10.461   0.469
15002SOL    HW146845  11.459  10.422   0.413
15002SOL    HW246846  11.399  10.555   0.454
15003SOL     OW46847  10.447  14.591   9.451
15003SOL    HW146848  10.473  14.650   9.380
15003SOL    HW246849  10.402  14.647   9.514
15004SOL     OW46850  11.057  12.711   6.249
15004SOL    HW146851  11.060  12.805   6.233
15004SOL    HW246852  10.964  12.689   6.246
15005SOL     OW46853   1.610   3.904   3.058
15005SOL    HW146854   1.555   3.954   2.998
15005SOL    HW246855   1.548   3.865   3.120
15006SOL     OW46856   5.423  12.081   8.769
15006SOL    HW146857   5.479  12.013   8.731
15006SOL    HW246858   5.359  12.100   8.701
15007SOL     OW46859   8.626  10.995  13.153
15007SOL    HW146860   8.687  11.064  13.126
15007SOL    HW246861   8.632  10.994  13.248
15008SOL     OW46862   8.956   4.067  11.215
15008SOL    HW146863   8.939   4.125  11.290
15008SOL    HW246864   8.874   4.019  11.203
15009SOL     OW46865   1.204   1.407   6.023
15009SOL    HW146866   1.154   1.459   5.960
15009SOL    HW246867   1.286   1.388   5.978
15010SOL     OW46868   0.525   3.963  12.716
15010SOL    HW146869   0.602   3.906  12.714
15010SOL    HW246870   0.452   3.905  12.698
15011SOL     OW46871  13.652  11.711   3.533
15011SOL    HW146872  13.662  11.622   3.501
15011SOL    HW246873  13.600  11.703   3.613
15012SOL     OW46874  11.953   0.670  12.154
15012SOL    HW146875  11.991   0.758  12.155
15012SOL    HW246876  11.947   0.648  12.061
15013SOL     OW46877   7.032   1.746   3.399
15013SOL    HW146878   7.124   1.722   3.410
15013SOL    HW246879   6.984   1.672   3.435
15014SOL     OW46880   7.935   9.115  11.775
15014SOL    HW146881   7.993   9.187  11.800
15014SOL    HW246882   7.853   9.158  11.750
15015SOL     OW46883  10.098   5.482  10.183
15015SOL    HW146884  10.064   5.404  10.227
15015SOL    HW246885  10.056   5.480  10.097
15016SOL     OW46886  14.367   3.634   1.845
15016SOL    HW146887  14.416   3.625   1.764
15016SOL    HW246888  14.312   3.711   1.833
15017SOL     OW46889   5.980   7.156   8.324
15017SOL    HW146890   5.981   7.086   8.389
15017SOL    HW246891   5.897   7.202   8.338
15018SOL     OW46892   0.242  10.495   1.972
15018SOL    HW146893   0.278  10.406   1.975
15018SOL    HW246894   0.149  10.483   1.953
15019SOL     OW46895   9.436   4.091  12.698
15019SOL    HW146896   9.481   4.143  12.632
15019SOL    HW246897   9.500   4.079  12.768
15020SOL     OW46898   6.838  12.295  11.134
15020SOL    HW146899   6.919  12.246  11.117
15020SOL    HW246900   6.839  12.364  11.068
15021SOL     OW46901   2.362  13.353   8.619
15021SOL    HW146902   2.319  13.336   8.536
15021SOL    HW246903   2.324  13.436   8.649
15022SOL     OW46904  10.584   2.772   3.177
15022SOL    HW146905  10.633   2.851   3.155
15022SOL    HW246906  10.520   2.801   3.242
15023SOL     OW46907  10.675  12.968   9.755
15023SOL    HW146908  10.723  13.049   9.733
15023SOL    HW246909  10.673  12.919   9.673
15024SOL     OW46910  12.063   9.345   4.599
15024SOL    HW146911  11.990   9.364   4.540
15024SOL    HW246912  12.126   9.416   4.582
15025SOL     OW46913  12.023   5.505   1.987
15025SOL    HW146914  12.031   5.546   2.073
15025SOL    HW246915  11.980   5.571   1.933
15026SOL     OW46916   9.532   2.749   9.696
15026SOL    HW146917   9.463   2.742   9.631
15026SOL    HW246918   9.497   2.707   9.775
15027SOL     OW46919   6.550   0.885   1.152
15027SOL    HW146920   6.489   0.894   1.226
15027SOL    HW246921   6.499   0.840   1.085
15028SOL     OW46922  13.181   4.705   4.722
15028SOL    HW146923  13.093   4.724   4.755
15028SOL    HW246924  13.193   4.767   4.650
15029SOL     OW46925   3.168   7.658  11.277
15029SOL    HW146926   3.238   7.652  11.211
15029SOL    HW246927   3.169   7.750  11.304
15030SOL     OW46928  11.930   8.352   8.217
15030SOL    HW146929  11.859   8.387   8.164
15030SOL    HW246930  11.984   8.428   8.238
15031SOL     OW46931   0.489  14.272   0.757
15031SOL    HW146932   0.518  14.350   0.710
15031SOL    HW246933   0.548  14.202   0.728
15032SOL     OW46934   9.760   7.868   6.905
15032SOL    HW146935   9.770   7.944   6.962
15032SOL    HW246936   9.801   7.895   6.822
15033SOL     OW46937  11.948   2.167   1.447
15033SOL    HW146938  11.908   2.209   1.523
15033SOL    HW246939  11.875   2.127   1.400
15034SOL     OW46940  12.029  14.340   4.745
15034SOL    HW146941  11.977  14.261   4.732
15034SOL    HW246942  12.065  14.330   4.834
15035SOL     OW46943   1.388   2.806   7.428
15035SOL    HW146944   1.448   2.865   7.475
15035SOL    HW246945   1.369   2.853   7.346
15036SOL     OW46946   6.634  14.657  11.443
15036SOL    HW146947   6.687  14.578  11.434
15036SOL    HW246948   6.697  14.729  11.443
15037SOL     OW46949   1.324  14.112   5.598
15037SOL    HW146950   1.302  14.021   5.582
15037SOL    HW246951   1.420  14.113   5.606
15038SOL     OW46952   0.698   6.194  12.215
15038SOL    HW146953   0.763   6.253  12.253
15038SOL    HW246954   0.645   6.164  12.289
15039SOL     OW46955  14.167   6.223   9.810
15039SOL    HW146956  14.237   6.252   9.869
15039SOL    HW246957  14.169   6.286   9.738
15040SOL     OW46958   4.724   3.071   3.620
15040SOL    HW146959   4.647   3.106   3.576
15040SOL    HW246960   4.694   3.048   3.708
15041SOL     OW46961  10.256   5.512   3.055
15041SOL    HW146962  10.303   5.568   3.116
15041SOL    HW246963  10.226   5.438   3.108
15042SOL     OW46964  11.418  11.441   8.404
15042SOL    HW146965  11.428  11.474   8.314
15042SOL    HW246966  11.339  11.389   8.401
15043SOL     OW46967   1.820  10.293  12.548
15043SOL    HW146968   1.846  10.246  12.469
15043SOL    HW246969   1.742  10.247  12.579
15044SOL     OW46970   6.242   3.448  11.230
15044SOL    HW146971   6.196   3.452  11.146
15044SOL    HW246972   6.208   3.370  11.272
15045SOL     OW46973  12.191  14.683  10.268
15045SOL    HW146974  12.136  14.672  10.346
15045SOL    HW246975  12.266  14.735  10.299
15046SOL     OW46976   8.190   6.064  13.552
15046SOL    HW146977   8.141   6.106  13.623
15046SOL    HW246978   8.258   6.014  13.597
15047SOL     OW46979   2.955  10.512   8.600
15047SOL    HW146980   2.936  10.605   8.609
15047SOL    HW246981   2.963  10.479   8.689
15048SOL     OW46982   7.028  10.715   0.605
15048SOL    HW146983   7.032  10.653   0.678
15048SOL    HW246984   7.079  10.790   0.635
15049SOL     OW46985   5.168   8.683   3.793
15049SOL    HW146986   5.129   8.606   3.833
15049SOL    HW246987   5.242   8.649   3.742
15050SOL     OW46988   4.817   8.051   1.245
15050SOL    HW146989   4.785   8.085   1.162
15050SOL    HW246990   4.912   8.042   1.233
15051SOL     OW46991   5.193  13.227  11.485
15051SOL    HW146992   5.171  13.308  11.438
15051SOL    HW246993   5.111  13.176  11.485
15052SOL     OW46994   4.346   6.118  13.460
15052SOL    HW146995   4.373   6.074  13.541
15052SOL    HW246996   4.330   6.209  13.486
15053SOL     OW46997  12.636  10.983   3.587
15053SOL    HW146998  12.681  10.947   3.664
15053SOL    HW246999  12.570  11.042   3.623
15054SOL     OW47000   3.495   0.491  14.487
15054SOL    HW147001   3.440   0.421  14.522
15054SOL    HW247002   3.434   0.562  14.468
15055SOL     OW47003  10.872  14.727  10.389
15055SOL    HW147004  10.840  14.741  10.478
15055SOL    HW247005  10.936  14.797  10.375
15056SOL     OW47006   2.122   2.069  13.657
15056SOL    HW147007   2.204   2.086  13.611
15056SOL    HW247008   2.076   2.153  13.658
15057SOL     OW47009   9.831   5.456  10.509
15057SOL    HW147010   9.912   5.507  10.506
15057SOL    HW247011   9.762   5.521  10.509
15058SOL     OW47012  12.600  13.448   4.821
15058SOL    HW147013  12.528  13.498   4.859
15058SOL    HW247014  12.673  13.460   4.883
15059SOL     OW47015   3.365   0.772  12.100
15059SOL    HW147016   3.417   0.694  12.079
15059SOL    HW247017   3.293   0.739  12.155
15060SOL     OW47018   1.066   8.004   3.365
15060SOL    HW147019   1.103   8.090   3.385
15060SOL    HW247020   0.972   8.020   3.357
15061SOL     OW47021  11.127   6.169   2.017
15061SOL    HW147022  11.181   6.248   2.019
15061SOL    HW247023  11.052   6.193   1.963
15062SOL     OW47024   1.934   8.601   1.154
15062SOL    HW147025   2.005   8.555   1.199
15062SOL    HW247026   1.901   8.663   1.219
15063SOL     OW47027   8.575   3.718  13.075
15063SOL    HW147028   8.622   3.709  12.991
15063SOL    HW247029   8.483   3.727  13.050
15064SOL     OW47030   7.852  13.902   6.786
15064SOL    HW147031   7.895  13.962   6.724
15064SOL    HW247032   7.868  13.815   6.749
15065SOL     OW47033   5.480   2.631   5.989
15065SOL    HW147034   5.430   2.615   6.069
15065SOL    HW247035   5.442   2.572   5.924
15066SOL     OW47036   0.926   8.521   0.112
15066SOL    HW147037   1.004   8.574   0.126
15066SOL    HW247038   0.888   8.554   0.030
15067SOL     OW47039   3.260   8.042   7.546
15067SOL    HW147040   3.241   7.999   7.630
15067SOL    HW247041   3.345   8.007   7.521
15068SOL     OW47042  11.242   7.345  10.531
15068SOL    HW147043  11.256   7.255  10.562
15068SOL    HW247044  11.329   7.374  10.505
15069SOL     OW47045   0.392  10.244   0.083
15069SOL    HW147046   0.478  10.279   0.057
15069SOL    HW247047   0.341  10.246   0.002
15070SOL     OW47048   5.715   5.119   2.297
15070SOL    HW147049   5.761   5.036   2.306
15070SOL    HW247050   5.782   5.185   2.316
15071SOL     OW47051   1.923  13.351   5.767
15071SOL    HW147052   1.926  13.278   5.828
15071SOL    HW247053   1.840  13.396   5.786
15072SOL     OW47054   9.265   9.492   4.666
15072SOL    HW147055   9.340   9.435   4.649
15072SOL    HW247056   9.193   9.433   4.686
15073SOL     OW47057   7.614   2.550  10.108
15073SOL    HW147058   7.583   2.564  10.018
15073SOL    HW247059   7.539   2.573  10.163
15074SOL     OW47060  12.098   3.965   3.999
15074SOL    HW147061  12.086   3.928   3.912
15074SOL    HW247062  12.085   3.892   4.059
15075SOL     OW47063  11.079   6.169   8.000
15075SOL    HW147064  11.022   6.224   8.053
15075SOL    HW247065  11.168   6.199   8.021
15076SOL     OW47066  12.666  12.923   0.238
15076SOL    HW147067  12.695  12.988   0.174
15076SOL    HW247068  12.644  12.974   0.316
15077SOL     OW47069  11.628  13.723   5.386
15077SOL    HW147070  11.579  13.662   5.441
15077SOL    HW247071  11.682  13.772   5.448
15078SOL     OW47072   7.765   1.658  12.816
15078SOL    HW147073   7.854   1.644  12.785
15078SOL    HW247074   7.728   1.722  12.755
15079SOL     OW47075   6.148  13.771   3.549
15079SOL    HW147076   6.062  13.814   3.553
15079SOL    HW247077   6.206  13.837   3.510
15080SOL     OW47078   2.843   1.885   5.570
15080SOL    HW147079   2.877   1.939   5.641
15080SOL    HW247080   2.834   1.945   5.496
15081SOL     OW47081  12.577  14.684   5.593
15081SOL    HW147082  12.564  14.621   5.522
15081SOL    HW247083  12.559  14.769   5.554
15082SOL     OW47084   4.386   4.815   0.364
15082SOL    HW147085   4.381   4.874   0.289
15082SOL    HW247086   4.469   4.837   0.406
15083SOL     OW47087   8.894  14.089  12.683
15083SOL    HW147088   8.956  14.160  12.665
15083SOL    HW247089   8.808  14.128  12.669
15084SOL     OW47090   7.153   5.685  12.623
15084SOL    HW147091   7.182   5.645  12.706
15084SOL    HW247092   7.191   5.772  12.624
15085SOL     OW47093  14.106   0.989  11.329
15085SOL    HW147094  14.189   0.944  11.319
15085SOL    HW247095  14.057   0.967  11.250
15086SOL     OW47096  11.002   5.932   5.660
15086SOL    HW147097  10.911   5.926   5.688
15086SOL    HW247098  11.023   6.025   5.665
15087SOL     OW47099   2.620   9.048   2.149
15087SOL    HW147100   2.548   9.011   2.201
15087SOL    HW247101   2.699   9.025   2.198
15088SOL     OW47102   1.401   2.957   5.507
15088SOL    HW147103   1.405   3.052   5.497
15088SOL    HW247104   1.404   2.942   5.601
15089SOL     OW47105   0.991   1.354   6.197
15089SOL    HW147106   1.003   1.441   6.236
15089SOL    HW247107   1.052   1.352   6.123
15090SOL     OW47108   6.784   0.273  14.495
15090SOL    HW147109   6.872   0.310  14.505
15090SOL    HW247110   6.726   0.343  14.526
15091SOL     OW47111   6.604   0.389   5.158
15091SOL    HW147112   6.624   0.360   5.247
15091SOL    HW247113   6.684   0.373   5.109
15092SOL     OW47114   8.123  14.262   2.795
15092SOL    HW147115   8.038  14.306   2.798
15092SOL    HW247116   8.175  14.314   2.734
15093SOL     OW47117   2.937  13.585   8.575
15093SOL    HW147118   3.021  13.629   8.560
15093SOL    HW247119   2.960  13.492   8.586
15094SOL     OW47120   7.196   9.781   2.721
15094SOL    HW147121   7.113   9.779   2.768
15094SOL    HW247122   7.202   9.695   2.678
15095SOL     OW47123   8.554   6.257   3.476
15095SOL    HW147124   8.579   6.290   3.562
15095SOL    HW247125   8.523   6.335   3.429
15096SOL     OW47126  12.890   6.339  13.237
15096SOL    HW147127  12.833   6.343  13.314
15096SOL    HW247128  12.926   6.251  13.238
15097SOL     OW47129  13.892   0.302  10.042
15097SOL    HW147130  13.848   0.336  10.120
15097SOL    HW247131  13.893   0.207  10.055
15098SOL     OW47132  12.908   3.177   6.093
15098SOL    HW147133  12.835   3.182   6.030
15098SOL    HW247134  12.982   3.145   6.041
15099SOL     OW47135   9.058   1.188   0.426
15099SOL    HW147136   8.994   1.121   0.398
15099SOL    HW247137   9.120   1.140   0.480
15100SOL     OW47138   2.695  11.532  10.112
15100SOL    HW147139   2.771  11.476  10.128
15100SOL    HW247140   2.659  11.502  10.029
15101SOL     OW47141  10.892  10.884   7.315
15101SOL    HW147142  10.890  10.810   7.255
15101SOL    HW247143  10.846  10.853   7.393
15102SOL     OW47144   2.071  13.038   0.098
15102SOL    HW147145   2.049  12.955   0.142
15102SOL    HW247146   2.112  13.091   0.167
15103SOL     OW47147   5.115  10.351   1.861
15103SOL    HW147148   5.155  10.272   1.900
15103SOL    HW247149   5.153  10.423   1.911
15104SOL     OW47150   0.818   1.931  13.134
15104SOL    HW147151   0.905   1.926  13.096
15104SOL    HW247152   0.763   1.878  13.076
15105SOL     OW47153   7.440  12.000   2.093
15105SOL    HW147154   7.523  12.043   2.074
15105SOL    HW247155   7.403  12.049   2.167
15106SOL     OW47156   6.476   9.193  13.143
15106SOL    HW147157   6.481   9.278  13.187
15106SOL    HW247158   6.556   9.148  13.169
15107SOL     OW47159  12.936  13.360   7.583
15107SOL    HW147160  12.938  13.307   7.663
15107SOL    HW247161  12.847  13.394   7.580
15108SOL     OW47162  12.679  14.812   7.942
15108SOL    HW147163  12.635  14.796   8.026
15108SOL    HW247164  12.769  14.782   7.957
15109SOL     OW47165   3.122  14.609   4.222
15109SOL    HW147166   3.203  14.613   4.273
15109SOL    HW247167   3.128  14.527   4.174
15110SOL     OW47168   8.847   5.401   0.690
15110SOL    HW147169   8.887   5.419   0.775
15110SOL    HW247170   8.761   5.442   0.695
15111SOL     OW47171   2.136   6.044   3.972
15111SOL    HW147172   2.092   5.981   3.916
15111SOL    HW247173   2.073   6.115   3.984
15112SOL     OW47174  10.921   1.999   2.815
15112SOL    HW147175  10.921   1.904   2.808
15112SOL    HW247176  10.860   2.028   2.747
15113SOL     OW47177  12.426   2.982  10.336
15113SOL    HW147178  12.404   2.907  10.392
15113SOL    HW247179  12.406   3.059  10.390
15114SOL     OW47180  14.537   1.047   0.264
15114SOL    HW147181  14.565   0.995   0.189
15114SOL    HW247182  14.445   1.067   0.247
15115SOL     OW47183  14.350  10.454  11.916
15115SOL    HW147184  14.428  10.445  11.970
15115SOL    HW247185  14.354  10.382  11.853
15116SOL     OW47186  13.672   9.997   8.953
15116SOL    HW147187  13.662   9.919   9.006
15116SOL    HW247188  13.588  10.041   8.958
15117SOL     OW47189  10.319  13.908   7.431
15117SOL    HW147190  10.348  13.932   7.519
15117SOL    HW247191  10.339  13.984   7.378
15118SOL     OW47192   9.822  11.018   4.583
15118SOL    HW147193   9.767  11.095   4.598
15118SOL    HW247194   9.765  10.944   4.603
15119SOL     OW47195   1.365   6.780   2.308
15119SOL    HW147196   1.400   6.774   2.397
15119SOL    HW247197   1.426   6.727   2.256
15120SOL     OW47198  10.672   3.689   8.619
15120SOL    HW147199  10.580   3.694   8.592
15120SOL    HW247200  10.671   3.715   8.711
15121SOL     OW47201   6.605  13.245   4.756
15121SOL    HW147202   6.625  13.317   4.816
15121SOL    HW247203   6.527  13.275   4.709
15122SOL     OW47204   0.913   8.743   7.911
15122SOL    HW147205   0.849   8.706   7.849
15122SOL    HW247206   0.859   8.791   7.975
15123SOL     OW47207   2.605  13.668  12.654
15123SOL    HW147208   2.700  13.656  12.651
15123SOL    HW247209   2.581  13.643  12.743
15124SOL     OW47210   0.229   1.740  12.024
15124SOL    HW147211   0.163   1.798  12.062
15124SOL    HW247212   0.180   1.662  11.998
15125SOL     OW47213   3.890  14.748   1.734
15125SOL    HW147214   3.971  14.697   1.742
15125SOL    HW247215   3.840  14.703   1.666
15126SOL     OW47216  13.830   2.528  12.462
15126SOL    HW147217  13.864   2.543  12.373
15126SOL    HW247218  13.807   2.436  12.464
15127SOL     OW47219   8.817  12.586   0.447
15127SOL    HW147220   8.764  12.666   0.446
15127SOL    HW247221   8.812  12.556   0.538
15128SOL     OW47222  12.557  14.348   6.196
15128SOL    HW147223  12.491  14.280   6.182
15128SOL    HW247224  12.585  14.372   6.107
15129SOL     OW47225   7.678   6.560   1.476
15129SOL    HW147226   7.704   6.559   1.568
15129SOL    HW247227   7.760   6.558   1.427
15130SOL     OW47228   7.988   9.642   2.886
15130SOL    HW147229   7.957   9.565   2.839
15130SOL    HW247230   7.920   9.708   2.871
15131SOL     OW47231  13.996  12.612   7.651
15131SOL    HW147232  13.982  12.575   7.564
15131SOL    HW247233  14.089  12.599   7.668
15132SOL     OW47234   4.616   4.776   4.263
15132SOL    HW147235   4.646   4.695   4.221
15132SOL    HW247236   4.682   4.841   4.240
15133SOL     OW47237   1.026   2.285   3.543
15133SOL    HW147238   0.995   2.261   3.455
15133SOL    HW247239   0.965   2.241   3.602
15134SOL     OW47240   4.661   6.532   6.691
15134SOL    HW147241   4.757   6.525   6.690
15134SOL    HW247242   4.634   6.501   6.605
15135SOL     OW47243  13.046  12.499   9.565
15135SOL    HW147244  13.091  12.580   9.586
15135SOL    HW247245  13.112  12.446   9.519
15136SOL     OW47246  13.845  14.432   3.373
15136SOL    HW147247  13.912  14.429   3.305
15136SOL    HW247248  13.888  14.394   3.450
15137SOL     OW47249  11.484   7.224  12.763
15137SOL    HW147250  11.436   7.146  12.791
15137SOL    HW247251  11.439   7.254  12.684
15138SOL     OW47252   7.074   0.494   4.734
15138SOL    HW147253   7.127   0.524   4.808
15138SOL    HW247254   7.019   0.425   4.771
15139SOL     OW47255   6.727   3.422   0.746
15139SOL    HW147256   6.657   3.479   0.776
15139SOL    HW247257   6.730   3.350   0.809
15140SOL     OW47258  12.089  14.224   8.459
15140SOL    HW147259  12.069  14.206   8.551
15140SOL    HW247260  12.019  14.182   8.410
15141SOL     OW47261  13.767   8.212   1.933
15141SOL    HW147262  13.791   8.131   1.979
15141SOL    HW247263  13.738   8.271   2.003
15142SOL     OW47264   7.018  12.125   8.062
15142SOL    HW147265   6.990  12.035   8.079
15142SOL    HW247266   7.056  12.122   7.974
15143SOL     OW47267   4.237   4.674  10.516
15143SOL    HW147268   4.245   4.765  10.546
15143SOL    HW247269   4.150   4.647  10.547
15144SOL     OW47270   0.389   7.851   4.108
15144SOL    HW147271   0.362   7.922   4.166
15144SOL    HW247272   0.369   7.771   4.157
15145SOL     OW47273   9.121   4.139   6.000
15145SOL    HW147274   9.066   4.077   6.048
15145SOL    HW247275   9.190   4.163   6.062
15146SOL     OW47276  11.458  13.470   5.495
15146SOL    HW147277  11.428  13.379   5.499
15146SOL    HW247278  11.547  13.465   5.462
15147SOL     OW47279   3.286   4.510   4.019
15147SOL    HW147280   3.307   4.563   3.942
15147SOL    HW247281   3.320   4.423   3.999
15148SOL     OW47282   5.417   6.409   0.167
15148SOL    HW147283   5.436   6.370   0.252
15148SOL    HW247284   5.479   6.482   0.160
15149SOL     OW47285   8.810   0.457  10.366
15149SOL    HW147286   8.857   0.538  10.349
15149SOL    HW247287   8.745   0.481  10.433
15150SOL     OW47288   0.133   7.968   7.742
15150SOL    HW147289   0.223   7.936   7.750
15150SOL    HW247290   0.124   8.033   7.811
15151SOL     OW47291   2.885   3.420  13.860
15151SOL    HW147292   2.977   3.430  13.885
15151SOL    HW247293   2.843   3.501  13.888
15152SOL     OW47294  10.067   0.432   5.306
15152SOL    HW147295  10.115   0.513   5.319
15152SOL    HW247296  10.046   0.430   5.213
15153SOL     OW47297   6.800  13.342   1.974
15153SOL    HW147298   6.805  13.246   1.974
15153SOL    HW247299   6.889  13.371   1.994
15154SOL     OW47300   1.907   7.405  11.441
15154SOL    HW147301   1.999   7.396  11.417
15154SOL    HW247302   1.896   7.499  11.459
15155SOL     OW47303   1.956  12.979  12.910
15155SOL    HW147304   2.044  13.010  12.886
15155SOL    HW247305   1.968  12.937  12.995
15156SOL     OW47306   9.517   1.938  13.969
15156SOL    HW147307   9.502   1.864  14.028
15156SOL    HW247308   9.430   1.970  13.947
15157SOL     OW47309  11.141   6.794   6.329
15157SOL    HW147310  11.152   6.887   6.312
15157SOL    HW247311  11.109   6.758   6.246
15158SOL     OW47312  13.679   8.637   8.351
15158SOL    HW147313  13.716   8.577   8.416
15158SOL    HW247314  13.702   8.597   8.267
15159SOL     OW47315   7.464   4.640   6.535
15159SOL    HW147316   7.376   4.627   6.570
15159SOL    HW247317   7.520   4.584   6.590
15160SOL     OW47318   5.276   1.473  11.968
15160SOL    HW147319   5.335   1.466  11.894
15160SOL    HW247320   5.331   1.455  12.045
15161SOL     OW47321   9.473  11.483  11.703
15161SOL    HW147322   9.468  11.543  11.628
15161SOL    HW247323   9.565  11.455  11.705
15162SOL     OW47324   8.219   9.311   3.789
15162SOL    HW147325   8.175   9.322   3.873
15162SOL    HW247326   8.308   9.343   3.803
15163SOL     OW47327   7.767   3.486   2.045
15163SOL    HW147328   7.759   3.573   2.007
15163SOL    HW247329   7.799   3.431   1.973
15164SOL     OW47330  12.519  10.630  13.348
15164SOL    HW147331  12.611  10.655  13.357
15164SOL    HW247332  12.471  10.696  13.399
15165SOL     OW47333   7.673   0.514  11.253
15165SOL    HW147334   7.637   0.474  11.332
15165SOL    HW247335   7.762   0.480  11.247
15166SOL     OW47336   2.692   4.876   3.316
15166SOL    HW147337   2.740   4.829   3.384
15166SOL    HW247338   2.600   4.868   3.341
15167SOL     OW47339   1.868   8.583   9.707
15167SOL    HW147340   1.883   8.557   9.617
15167SOL    HW247341   1.827   8.670   9.701
15168SOL     OW47342   7.597  13.871   0.698
15168SOL    HW147343   7.645  13.854   0.778
15168SOL    HW247344   7.561  13.786   0.672
15169SOL     OW47345  13.919  13.627  13.570
15169SOL    HW147346  13.939  13.721  13.571
15169SOL    HW247347  13.998  13.586  13.605
15170SOL     OW47348  13.579  11.685   7.156
15170SOL    HW147349  13.591  11.630   7.234
15170SOL    HW247350  13.554  11.623   7.088
15171SOL     OW47351   0.102   1.764  10.641
15171SOL    HW147352   0.024   1.709  10.628
15171SOL    HW247353   0.162   1.708  10.690
15172SOL     OW47354   2.500   8.508   7.095
15172SOL    HW147355   2.547   8.429   7.124
15172SOL    HW247356   2.569   8.573   7.082
15173SOL     OW47357   5.681   0.319   2.935
15173SOL    HW147358   5.607   0.270   2.972
15173SOL    HW247359   5.709   0.265   2.860
15174SOL     OW47360  10.455   4.176   7.806
15174SOL    HW147361  10.425   4.265   7.824
15174SOL    HW247362  10.382   4.135   7.761
15175SOL     OW47363  12.334  14.525  13.297
15175SOL    HW147364  12.309  14.580  13.371
15175SOL    HW247365  12.255  14.477  13.274
15176SOL     OW47366   9.014   9.715   9.702
15176SOL    HW147367   8.982   9.784   9.759
15176SOL    HW247368   9.099   9.690   9.738
15177SOL     OW47369   2.473  12.665   0.756
15177SOL    HW147370   2.436  12.667   0.668
15177SOL    HW247371   2.404  12.628   0.810
15178SOL     OW47372   4.293   7.205  14.851
15178SOL    HW147373   4.388   7.210  14.843
15178SOL    HW247374   4.271   7.116  14.823
15179SOL     OW47375  13.354   7.578  11.429
15179SOL    HW147376  13.282   7.588  11.366
15179SOL    HW247377  13.372   7.484  11.429
15180SOL     OW47378  12.400   5.015   7.298
15180SOL    HW147379  12.374   5.034   7.388
15180SOL    HW247380  12.445   4.931   7.304
15181SOL     OW47381   4.302   3.395   2.416
15181SOL    HW147382   4.279   3.436   2.500
15181SOL    HW247383   4.228   3.337   2.397
15182SOL     OW47384   0.296   7.851   2.565
15182SOL    HW147385   0.345   7.928   2.593
15182SOL    HW247386   0.292   7.795   2.643
15183SOL     OW47387  11.483  11.058  13.095
15183SOL    HW147388  11.494  11.125  13.163
15183SOL    HW247389  11.460  10.978  13.144
15184SOL     OW47390  11.361  11.841   8.361
15184SOL    HW147391  11.289  11.779   8.352
15184SOL    HW247392  11.391  11.830   8.451
15185SOL     OW47393  12.254  11.913   4.063
15185SOL    HW147394  12.238  11.996   4.018
15185SOL    HW247395  12.281  11.938   4.151
15186SOL     OW47396   0.747  14.004  14.223
15186SOL    HW147397   0.706  14.056  14.292
15186SOL    HW247398   0.836  13.990  14.253
15187SOL     OW47399  12.996  12.734   6.850
15187SOL    HW147400  12.907  12.744   6.817
15187SOL    HW247401  12.986  12.737   6.945
15188SOL     OW47402  11.376   0.190   4.016
15188SOL    HW147403  11.420   0.108   4.039
15188SOL    HW247404  11.383   0.196   3.921
15189SOL     OW47405  10.236   7.282   9.904
15189SOL    HW147406  10.269   7.344   9.969
15189SOL    HW247407  10.148   7.315   9.882
15190SOL     OW47408  11.590   6.395  11.164
15190SOL    HW147409  11.497   6.370  11.161
15190SOL    HW247410  11.614   6.412  11.073
15191SOL     OW47411  12.141  12.964   3.505
15191SOL    HW147412  12.105  12.876   3.518
15191SOL    HW247413  12.211  12.971   3.570
15192SOL     OW47414  13.970   5.454   4.197
15192SOL    HW147415  14.051   5.402   4.203
15192SOL    HW247416  13.933   5.430   4.112
15193SOL     OW47417   2.528   0.060  13.282
15193SOL    HW147418   2.444   0.041  13.241
15193SOL    HW247419   2.525   0.015  13.367
15194SOL     OW47420   9.198   3.803  11.446
15194SOL    HW147421   9.128   3.814  11.381
15194SOL    HW247422   9.179   3.868  11.514
15195SOL     OW47423   5.452   3.888   6.223
15195SOL    HW147424   5.397   3.875   6.300
15195SOL    HW247425   5.457   3.801   6.183
15196SOL     OW47426   5.604  13.377   1.211
15196SOL    HW147427   5.563  13.296   1.180
15196SOL    HW247428   5.633  13.356   1.300
15197SOL     OW47429   2.302  10.983   2.005
15197SOL    HW147430   2.246  10.949   1.935
15197SOL    HW247431   2.241  11.000   2.077
15198SOL     OW47432   2.108  13.934   6.693
15198SOL    HW147433   2.075  13.856   6.736
15198SOL    HW247434   2.178  13.965   6.750
15199SOL     OW47435  10.118  14.099  13.068
15199SOL    HW147436  10.052  14.031  13.079
15199SOL    HW247437  10.202  14.055  13.082
15200SOL     OW47438   2.018  10.386   7.272
15200SOL    HW147439   1.972  10.311   7.310
15200SOL    HW247440   2.062  10.351   7.195
15201SOL     OW47441   9.699  12.464   7.656
15201SOL    HW147442   9.630  12.399   7.651
15201SOL    HW247443   9.701  12.504   7.569
15202SOL     OW47444  13.461  12.501  13.481
15202SOL    HW147445  13.496  12.541  13.402
15202SOL    HW247446  13.427  12.574  13.532
15203SOL     OW47447   6.830  10.002   4.234
15203SOL    HW147448   6.816  10.052   4.153
15203SOL    HW247449   6.878   9.924   4.206
15204SOL     OW47450  10.062   0.888   0.434
15204SOL    HW147451  10.029   0.801   0.412
15204SOL    HW247452  10.101   0.920   0.352
15205SOL     OW47453   2.073   9.196   3.752
15205SOL    HW147454   2.016   9.206   3.675
15205SOL    HW247455   2.141   9.134   3.724
15206SOL     OW47456   0.466   7.442   8.555
15206SOL    HW147457   0.485   7.349   8.569
15206SOL    HW247458   0.375   7.444   8.525
15207SOL     OW47459   4.372  12.867   9.737
15207SOL    HW147460   4.324  12.861   9.654
15207SOL    HW247461   4.306  12.852   9.804
15208SOL     OW47462   6.819   5.180   4.392
15208SOL    HW147463   6.859   5.228   4.320
15208SOL    HW247464   6.725   5.185   4.375
15209SOL     OW47465   0.781   2.486   7.772
15209SOL    HW147466   0.812   2.569   7.736
15209SOL    HW247467   0.851   2.459   7.833
15210SOL     OW47468  11.782   5.398  10.845
15210SOL    HW147469  11.823   5.317  10.874
15210SOL    HW247470  11.690   5.374  10.829
15211SOL     OW47471   3.591   2.969   2.387
15211SOL    HW147472   3.521   2.954   2.450
15211SOL    HW247473   3.651   2.895   2.400
15212SOL     OW47474  12.713   6.596   7.123
15212SOL    HW147475  12.675   6.552   7.047
15212SOL    HW247476  12.798   6.629   7.092
15213SOL     OW47477   3.220   9.152   7.084
15213SOL    HW147478   3.296   9.178   7.137
15213SOL    HW247479   3.243   9.064   7.053
15214SOL     OW47480  11.590   8.904  10.687
15214SOL    HW147481  11.565   8.970  10.622
15214SOL    HW247482  11.543   8.930  10.766
15215SOL     OW47483   9.557   1.730   5.245
15215SOL    HW147484   9.649   1.724   5.220
15215SOL    HW247485   9.511   1.742   5.162
15216SOL     OW47486   6.780   7.844  14.818
15216SOL    HW147487   6.723   7.769  14.836
15216SOL    HW247488   6.826   7.820  14.737
15217SOL     OW47489   0.060  14.786   6.795
15217SOL    HW147490   0.103  14.863   6.832
15217SOL    HW247491   0.036  14.813   6.706
15218SOL     OW47492  14.562  11.465  13.599
15218SOL    HW147493  14.479  11.509  13.615
15218SOL    HW247494  14.602  11.514  13.527
15219SOL     OW47495  12.671  13.985   1.181
15219SOL    HW147496  12.640  14.061   1.229
15219SOL    HW247497  12.764  13.978   1.205
15220SOL     OW47498   9.176  12.536  11.210
15220SOL    HW147499   9.181  12.628  11.187
15220SOL    HW247500   9.153  12.536  11.303
15221SOL     OW47501   7.200   6.138   2.268
15221SOL    HW147502   7.240   6.053   2.248
15221SOL    HW247503   7.224   6.156   2.359
15222SOL     OW47504   6.368  10.641   8.869
15222SOL    HW147505   6.276  10.624   8.886
15222SOL    HW247506   6.415  10.576   8.922
15223SOL     OW47507   6.687   5.479   7.634
15223SOL    HW147508   6.694   5.568   7.600
15223SOL    HW247509   6.721   5.424   7.563
15224SOL     OW47510  10.304   7.501   0.139
15224SOL    HW147511  10.339   7.419   0.176
15224SOL    HW247512  10.381   7.551   0.114
15225SOL     OW47513  13.555   0.466   0.054
15225SOL    HW147514  13.465   0.488   0.076
15225SOL    HW247515  13.593   0.435   0.136
15226SOL     OW47516   8.094   9.622   3.303
15226SOL    HW147517   8.012   9.573   3.311
15226SOL    HW247518   8.161   9.555   3.291
15227SOL     OW47519  10.446   3.025   1.416
15227SOL    HW147520  10.409   3.008   1.329
15227SOL    HW247521  10.370   3.022   1.475
15228SOL     OW47522   5.781   8.474   5.068
15228SOL    HW147523   5.713   8.494   5.005
15228SOL    HW247524   5.784   8.378   5.073
15229SOL     OW47525   5.402  12.444  13.401
15229SOL    HW147526   5.405  12.527  13.353
15229SOL    HW247527   5.427  12.378  13.337
15230SOL     OW47528  13.538  14.125  13.404
15230SOL    HW147529  13.557  14.161  13.491
15230SOL    HW247530  13.560  14.196  13.343
15231SOL     OW47531   2.339  12.532   9.959
15231SOL    HW147532   2.414  12.476   9.938
15231SOL    HW247533   2.369  12.586  10.032
15232SOL     OW47534  13.838   3.217   2.493
15232SOL    HW147535  13.772   3.237   2.426
15232SOL    HW247536  13.921   3.215   2.445
15233SOL     OW47537   9.316  13.329   8.352
15233SOL    HW147538   9.354  13.400   8.404
15233SOL    HW247539   9.371  13.325   8.274
15234SOL     OW47540   0.316   0.551   7.792
15234SOL    HW147541   0.342   0.599   7.713
15234SOL    HW247542   0.354   0.464   7.780
15235SOL     OW47543   8.522  13.580  13.642
15235SOL    HW147544   8.534  13.489  13.615
15235SOL    HW247545   8.506  13.627  13.561
15236SOL     OW47546  12.503   5.601   4.052
15236SOL    HW147547  12.527   5.558   3.971
15236SOL    HW247548  12.408   5.586   4.060
15237SOL     OW47549   4.192   7.805   5.256
15237SOL    HW147550   4.123   7.828   5.318
15237SOL    HW247551   4.214   7.714   5.277
15238SOL     OW47552   1.944   8.704  13.648
15238SOL    HW147553   2.016   8.676  13.704
15238SOL    HW247554   1.985   8.718  13.562
15239SOL     OW47555  12.866   2.693  11.132
15239SOL    HW147556  12.834   2.778  11.103
15239SOL    HW247557  12.850   2.634  11.058
15240SOL     OW47558  14.007   3.425   1.209
15240SOL    HW147559  14.022   3.433   1.115
15240SOL    HW247560  14.092   3.444   1.249
15241SOL     OW47561   3.394   6.530   3.985
15241SOL    HW147562   3.328   6.497   3.923
15241SOL    HW247563   3.344   6.579   4.050
15242SOL     OW47564  10.584   5.441   8.313
15242SOL    HW147565  10.577   5.346   8.309
15242SOL    HW247566  10.507   5.473   8.267
15243SOL     OW47567   4.891   8.332  11.712
15243SOL    HW147568   4.940   8.414  11.710
15243SOL    HW247569   4.886   8.305  11.620
15244SOL     OW47570   1.065   9.394  14.065
15244SOL    HW147571   1.084   9.320  14.121
15244SOL    HW247572   1.008   9.451  14.117
15245SOL     OW47573   8.922   7.797   6.618
15245SOL    HW147574   8.844   7.796   6.673
15245SOL    HW247575   8.898   7.850   6.542
15246SOL     OW47576  11.615  10.414   3.787
15246SOL    HW147577  11.630  10.325   3.755
15246SOL    HW247578  11.643  10.470   3.715
15247SOL     OW47579   8.615  11.698   3.486
15247SOL    HW147580   8.556  11.624   3.471
15247SOL    HW247581   8.637  11.693   3.579
15248SOL     OW47582  12.322   4.616   7.017
15248SOL    HW147583  12.230   4.629   7.040
15248SOL    HW247584  12.320   4.549   6.948
15249SOL     OW47585   4.018  10.023  12.068
15249SOL    HW147586   4.097  10.074  12.050
15249SOL    HW247587   4.036   9.937  12.030
15250SOL     OW47588   1.484   3.972   9.440
15250SOL    HW147589   1.508   4.017   9.359
15250SOL    HW247590   1.486   4.041   9.507
15251SOL     OW47591   8.404  10.958  14.090
15251SOL    HW147592   8.395  11.013  14.168
15251SOL    HW247593   8.482  10.992  14.046
15252SOL     OW47594   0.971   3.237   0.404
15252SOL    HW147595   0.905   3.172   0.428
15252SOL    HW247596   1.053   3.187   0.398
15253SOL     OW47597   6.160  13.188  10.523
15253SOL    HW147598   6.224  13.119  10.544
15253SOL    HW247599   6.077  13.141  10.513
15254SOL     OW47600   0.982   2.683   4.686
15254SOL    HW147601   0.888   2.674   4.698
15254SOL    HW247602   1.015   2.707   4.773
15255SOL     OW47603   1.344   5.449   4.144
15255SOL    HW147604   1.361   5.360   4.174
15255SOL    HW247605   1.309   5.438   4.055
15256SOL     OW47606   2.259   3.669   2.178
15256SOL    HW147607   2.165   3.665   2.193
15256SOL    HW247608   2.269   3.658   2.084
15257SOL     OW47609   5.311   6.002   4.688
15257SOL    HW147610   5.341   5.941   4.755
15257SOL    HW247611   5.349   5.967   4.607
15258SOL     OW47612   9.644  10.165   3.933
15258SOL    HW147613   9.631  10.127   4.020
15258SOL    HW247614   9.558  10.200   3.909
15259SOL     OW47615   1.780   9.222   2.498
15259SOL    HW147616   1.837   9.198   2.425
15259SOL    HW247617   1.745   9.307   2.473
15260SOL     OW47618  11.603  11.405   9.064
15260SOL    HW147619  11.586  11.484   9.013
15260SOL    HW247620  11.600  11.435   9.155
15261SOL     OW47621   1.001   4.023   3.924
15261SOL    HW147622   1.045   4.017   4.008
15261SOL    HW247623   0.931   3.958   3.928
15262SOL     OW47624   5.177   2.590   2.808
15262SOL    HW147625   5.204   2.530   2.738
15262SOL    HW247626   5.110   2.645   2.768
15263SOL     OW47627   4.725   8.299   6.787
15263SOL    HW147628   4.796   8.236   6.775
15263SOL    HW247629   4.753   8.353   6.861
15264SOL     OW47630  12.829   6.196   9.549
15264SOL    HW147631  12.918   6.224   9.525
15264SOL    HW247632  12.818   6.112   9.505
15265SOL     OW47633  13.750  12.019  12.211
15265SOL    HW147634  13.802  11.939  12.209
15265SOL    HW247635  13.750  12.049  12.120
15266SOL     OW47636   2.679  10.150  10.003
15266SOL    HW147637   2.735  10.078   9.974
15266SOL    HW247638   2.738  10.224  10.011
15267SOL     OW47639  11.083   8.104   9.845
15267SOL    HW147640  11.081   8.037   9.776
15267SOL    HW247641  11.176   8.115   9.866
15268SOL     OW47642   9.862   9.491   1.134
15268SOL    HW147643   9.943   9.496   1.185
15268SOL    HW247644   9.842   9.581   1.111
15269SOL     OW47645   9.429   1.903   4.598
15269SOL    HW147646   9.383   1.941   4.673
15269SOL    HW247647   9.434   1.809   4.618
15270SOL     OW47648   7.675   2.886  10.682
15270SOL    HW147649   7.752   2.830  10.692
15270SOL    HW247650   7.608   2.844  10.736
15271SOL     OW47651   2.857  13.786   6.449
15271SOL    HW147652   2.781  13.816   6.499
15271SOL    HW247653   2.842  13.692   6.437
15272SOL     OW47654  10.579   5.567   4.033
15272SOL    HW147655  10.611   5.476   4.028
15272SOL    HW247656  10.584   5.599   3.943
15273SOL     OW47657   9.687   3.098  12.708
15273SOL    HW147658   9.738   3.086  12.629
15273SOL    HW247659   9.711   3.024  12.764
15274SOL     OW47660   5.300   2.910   2.552
15274SOL    HW147661   5.370   2.850   2.579
15274SOL    HW247662   5.255   2.863   2.482
15275SOL     OW47663   1.176  10.890   6.467
15275SOL    HW147664   1.210  10.939   6.392
15275SOL    HW247665   1.136  10.812   6.428
15276SOL     OW47666   1.441  12.017   6.913
15276SOL    HW147667   1.443  11.950   6.981
15276SOL    HW247668   1.510  11.990   6.851
15277SOL     OW47669   7.865   0.697  13.043
15277SOL    HW147670   7.949   0.730  13.010
15277SOL    HW247671   7.851   0.745  13.125
15278SOL     OW47672   3.192   7.222  12.142
15278SOL    HW147673   3.266   7.215  12.202
15278SOL    HW247674   3.213   7.296  12.085
15279SOL     OW47675   8.830   1.323   7.791
15279SOL    HW147676   8.894   1.356   7.728
15279SOL    HW247677   8.857   1.232   7.807
15280SOL     OW47678   5.783   9.233   3.246
15280SOL    HW147679   5.807   9.198   3.332
15280SOL    HW247680   5.762   9.155   3.194
15281SOL     OW47681   8.397   6.335  13.620
15281SOL    HW147682   8.365   6.297  13.539
15281SOL    HW247683   8.426   6.422  13.596
15282SOL     OW47684   4.592   3.984  10.912
15282SOL    HW147685   4.686   3.967  10.905
15282SOL    HW247686   4.563   3.928  10.984
15283SOL     OW47687  11.878  13.551  13.872
15283SOL    HW147688  11.854  13.557  13.780
15283SOL    HW247689  11.796  13.530  13.917
15284SOL     OW47690   9.582  12.387   5.339
15284SOL    HW147691   9.506  12.331   5.320
15284SOL    HW247692   9.657  12.335   5.312
15285SOL     OW47693   0.755   8.470   8.103
15285SOL    HW147694   0.778   8.498   8.191
15285SOL    HW247695   0.838   8.445   8.062
15286SOL     OW47696  14.749   6.306   2.574
15286SOL    HW147697  14.842   6.285   2.568
15286SOL    HW247698  14.714   6.242   2.636
15287SOL     OW47699   4.482   4.521   8.637
15287SOL    HW147700   4.474   4.532   8.732
15287SOL    HW247701   4.495   4.427   8.624
15288SOL     OW47702  13.861   1.756   0.790
15288SOL    HW147703  13.900   1.746   0.877
15288SOL    HW247704  13.937   1.770   0.732
15289SOL     OW47705   9.158   3.971   9.408
15289SOL    HW147706   9.131   3.947   9.497
15289SOL    HW247707   9.077   3.999   9.365
15290SOL     OW47708   0.868   3.160   0.929
15290SOL    HW147709   0.891   3.070   0.952
15290SOL    HW247710   0.949   3.198   0.894
15291SOL     OW47711   9.109   3.914   7.777
15291SOL    HW147712   9.163   3.848   7.820
15291SOL    HW247713   9.153   3.930   7.694
15292SOL     OW47714   8.449  12.741   3.768
15292SOL    HW147715   8.512  12.813   3.775
15292SOL    HW247716   8.403  12.741   3.851
15293SOL     OW47717  10.590  14.282   1.817
15293SOL    HW147718  10.553  14.317   1.898
15293SOL    HW247719  10.640  14.355   1.780
15294SOL     OW47720  12.532   1.593   8.243
15294SOL    HW147721  12.465   1.628   8.301
15294SOL    HW247722  12.611   1.587   8.297
15295SOL     OW47723   3.802   2.618  13.663
15295SOL    HW147724   3.881   2.646  13.617
15295SOL    HW247725   3.739   2.689  13.647
15296SOL     OW47726   8.777  11.390   9.780
15296SOL    HW147727   8.813  11.373   9.692
15296SOL    HW247728   8.771  11.485   9.786
15297SOL     OW47729   8.629  13.300  13.413
15297SOL    HW147730   8.719  13.295  13.444
15297SOL    HW247731   8.635  13.354  13.334
15298SOL     OW47732   3.032   9.149   9.596
15298SOL    HW147733   2.955   9.205   9.597
15298SOL    HW247734   3.079   9.171   9.677
15299SOL     OW47735   9.653   9.268   9.815
15299SOL    HW147736   9.715   9.324   9.769
15299SOL    HW247737   9.590   9.329   9.854
15300SOL     OW47738  12.819   7.478   7.486
15300SOL    HW147739  12.813   7.527   7.568
15300SOL    HW247740  12.773   7.533   7.422
15301SOL     OW47741   4.108   5.476  14.523
15301SOL    HW147742   4.146   5.516  14.445
15301SOL    HW247743   4.083   5.550  14.578
15302SOL     OW47744  10.535   5.769  13.468
15302SOL    HW147745  10.554   5.795  13.558
15302SOL    HW247746  10.596   5.697  13.451
15303SOL     OW47747   7.902   1.458   6.824
15303SOL    HW147748   7.977   1.424   6.873
15303SOL    HW247749   7.860   1.379   6.789
15304SOL     OW47750  13.744   4.453   2.058
15304SOL    HW147751  13.714   4.441   2.148
15304SOL    HW247752  13.729   4.369   2.016
15305SOL     OW47753   9.321   2.019   4.845
15305SOL    HW147754   9.337   2.109   4.874
15305SOL    HW247755   9.257   1.985   4.907
15306SOL     OW47756  14.662  12.316   5.337
15306SOL    HW147757  14.658  12.410   5.354
15306SOL    HW247758  14.591  12.278   5.389
15307SOL     OW47759  13.900  11.900   3.175
15307SOL    HW147760  13.906  11.833   3.106
15307SOL    HW247761  13.975  11.884   3.231
15308SOL     OW47762   8.381  13.553   5.205
15308SOL    HW147763   8.368  13.585   5.294
15308SOL    HW247764   8.440  13.477   5.216
15309SOL     OW47765   7.901  13.497   9.598
15309SOL    HW147766   7.953  13.417   9.607
15309SOL    HW247767   7.896  13.532   9.687
15310SOL     OW47768   7.760   0.648   8.331
15310SOL    HW147769   7.793   0.642   8.420
15310SOL    HW247770   7.807   0.580   8.282
15311SOL     OW47771   9.827   5.137   2.692
15311SOL    HW147772   9.762   5.207   2.698
15311SOL    HW247773   9.903   5.171   2.739
15312SOL     OW47774   9.349   3.288   1.123
15312SOL    HW147775   9.413   3.346   1.081
15312SOL    HW247776   9.275   3.345   1.143
15313SOL     OW47777   2.883   8.977  14.554
15313SOL    HW147778   2.794   9.006  14.573
15313SOL    HW247779   2.922   8.960  14.640
15314SOL     OW47780  13.774  12.320  14.379
15314SOL    HW147781  13.679  12.327  14.388
15314SOL    HW247782  13.790  12.227  14.362
15315SOL     OW47783   8.077   2.765   4.467
15315SOL    HW147784   8.081   2.820   4.546
15315SOL    HW247785   7.984   2.746   4.456
15316SOL     OW47786   2.916   2.914   1.512
15316SOL    HW147787   2.890   2.985   1.570
15316SOL    HW247788   2.866   2.838   1.542
15317SOL     OW47789   6.874   7.210   1.938
15317SOL    HW147790   6.800   7.207   1.998
15317SOL    HW247791   6.874   7.124   1.895
15318SOL     OW47792   1.526  14.614   5.822
15318SOL    HW147793   1.600  14.660   5.861
15318SOL    HW247794   1.475  14.684   5.780
15319SOL     OW47795   5.998   2.313   4.731
15319SOL    HW147796   6.019   2.221   4.747
15319SOL    HW247797   6.069   2.361   4.772
15320SOL     OW47798   6.493   8.969   2.558
15320SOL    HW147799   6.489   8.878   2.531
15320SOL    HW247800   6.444   9.016   2.490
15321SOL     OW47801   0.331   3.705   9.650
15321SOL    HW147802   0.392   3.775   9.673
15321SOL    HW247803   0.265   3.706   9.720
15322SOL     OW47804  12.248   1.448   1.323
15322SOL    HW147805  12.342   1.429   1.313
15322SOL    HW247806  12.240   1.488   1.409
15323SOL     OW47807   1.149   4.559  13.334
15323SOL    HW147808   1.099   4.637  13.308
15323SOL    HW247809   1.173   4.575  13.425
15324SOL     OW47810   0.508   1.852   3.946
15324SOL    HW147811   0.501   1.765   3.985
15324SOL    HW247812   0.510   1.911   4.022
15325SOL     OW47813   2.922   3.737   9.353
15325SOL    HW147814   2.864   3.685   9.407
15325SOL    HW247815   2.887   3.826   9.358
15326SOL     OW47816   2.651   4.476  11.900
15326SOL    HW147817   2.558   4.489  11.882
15326SOL    HW247818   2.665   4.382  11.894
15327SOL     OW47819   7.823   2.814   8.509
15327SOL    HW147820   7.789   2.809   8.598
15327SOL    HW247821   7.903   2.865   8.517
15328SOL     OW47822  13.153  12.370  13.334
15328SOL    HW147823  13.123  12.395  13.421
15328SOL    HW247824  13.244  12.401  13.330
15329SOL     OW47825  10.434   3.947   3.105
15329SOL    HW147826  10.398   3.930   3.018
15329SOL    HW247827  10.435   4.042   3.112
15330SOL     OW47828  12.467   8.128   2.585
15330SOL    HW147829  12.449   8.215   2.621
15330SOL    HW247830  12.538   8.094   2.639
15331SOL     OW47831   3.845   6.024   8.405
15331SOL    HW147832   3.787   6.100   8.409
15331SOL    HW247833   3.855   5.997   8.496
15332SOL     OW47834   3.833   0.474  11.587
15332SOL    HW147835   3.882   0.438  11.513
15332SOL    HW247836   3.872   0.560  11.602
15333SOL     OW47837   5.101   5.027   9.849
15333SOL    HW147838   5.082   4.933   9.840
15333SOL    HW247839   5.040   5.069   9.788
15334SOL     OW47840   0.432   6.228   8.302
15334SOL    HW147841   0.489   6.211   8.226
15334SOL    HW247842   0.382   6.306   8.277
15335SOL     OW47843  12.226  10.003   8.705
15335SOL    HW147844  12.315  10.036   8.718
15335SOL    HW247845  12.228   9.960   8.620
15336SOL     OW47846   6.563  13.337  14.145
15336SOL    HW147847   6.519  13.272  14.200
15336SOL    HW247848   6.561  13.418  14.197
15337SOL     OW47849  11.444   7.931   8.718
15337SOL    HW147850  11.449   8.017   8.678
15337SOL    HW247851  11.351   7.916   8.732
15338SOL     OW47852  11.549  13.901   6.152
15338SOL    HW147853  11.515  13.937   6.070
15338SOL    HW247854  11.601  13.825   6.126
15339SOL     OW47855   2.167  11.323   6.396
15339SOL    HW147856   2.100  11.280   6.342
15339SOL    HW247857   2.212  11.382   6.335
15340SOL     OW47858   2.061  10.249   3.157
15340SOL    HW147859   2.142  10.297   3.141
15340SOL    HW247860   2.073  10.211   3.244
15341SOL     OW47861   5.975   7.974   1.900
15341SOL    HW147862   5.961   8.066   1.920
15341SOL    HW247863   5.954   7.928   1.981
15342SOL     OW47864   8.442   8.599  13.213
15342SOL    HW147865   8.461   8.506  13.216
15342SOL    HW247866   8.381   8.609  13.140
15343SOL     OW47867   9.349  14.428   8.299
15343SOL    HW147868   9.389  14.481   8.230
15343SOL    HW247869   9.420  14.374   8.332
15344SOL     OW47870  13.326   0.804   9.050
15344SOL    HW147871  13.329   0.715   9.016
15344SOL    HW247872  13.417   0.828   9.065
15345SOL     OW47873  14.649   7.919   6.183
15345SOL    HW147874  14.697   8.001   6.193
15345SOL    HW247875  14.707   7.864   6.130
15346SOL     OW47876   6.719  12.913  12.731
15346SOL    HW147877   6.759  12.932  12.816
15346SOL    HW247878   6.746  12.824  12.711
15347SOL     OW47879   3.117  11.041   0.929
15347SOL    HW147880   3.205  11.021   0.959
15347SOL    HW247881   3.080  11.096   0.998
15348SOL     OW47882   5.315  13.234   2.811
15348SOL    HW147883   5.320  13.154   2.759
15348SOL    HW247884   5.221  13.251   2.821
15349SOL     OW47885  13.203   9.916   3.137
15349SOL    HW147886  13.128   9.975   3.135
15349SOL    HW247887  13.185   9.858   3.211
15350SOL     OW47888  11.950  11.524   2.486
15350SOL    HW147889  11.958  11.618   2.501
15350SOL    HW247890  11.934  11.516   2.392
15351SOL     OW47891   4.805   3.388  10.972
15351SOL    HW147892   4.721   3.399  11.015
15351SOL    HW247893   4.791   3.419  10.883
15352SOL     OW47894  12.248   8.270   0.477
15352SOL    HW147895  12.205   8.185   0.473
15352SOL    HW247896  12.234   8.300   0.567
15353SOL     OW47897   7.532   6.018  12.182
15353SOL    HW147898   7.483   5.940  12.157
15353SOL    HW247899   7.524   6.076  12.106
15354SOL     OW47900   3.748   7.786   7.949
15354SOL    HW147901   3.705   7.851   8.004
15354SOL    HW247902   3.840   7.790   7.974
15355SOL     OW47903  13.147   3.775   9.330
15355SOL    HW147904  13.205   3.700   9.339
15355SOL    HW247905  13.093   3.773   9.410
15356SOL     OW47906   3.760   9.977   0.913
15356SOL    HW147907   3.807  10.043   0.862
15356SOL    HW247908   3.795   9.893   0.883
15357SOL     OW47909   3.402   1.551   2.010
15357SOL    HW147910   3.441   1.575   1.926
15357SOL    HW247911   3.308   1.566   1.998
15358SOL     OW47912   1.251   7.399   6.595
15358SOL    HW147913   1.214   7.487   6.598
15358SOL    HW247914   1.330   7.404   6.649
15359SOL     OW47915  14.064   3.799   7.594
15359SOL    HW147916  14.138   3.751   7.631
15359SOL    HW247917  14.076   3.792   7.499
15360SOL     OW47918  13.186   4.005  11.870
15360SOL    HW147919  13.254   3.992  11.804
15360SOL    HW247920  13.108   3.964  11.833
15361SOL     OW47921   1.028  14.420   8.249
15361SOL    HW147922   1.056  14.507   8.220
15361SOL    HW247923   1.028  14.426   8.345
15362SOL     OW47924  13.944   9.314   8.724
15362SOL    HW147925  13.889   9.275   8.655
15362SOL    HW247926  14.032   9.312   8.687
15363SOL     OW47927   0.422   4.460  13.214
15363SOL    HW147928   0.506   4.440  13.255
15363SOL    HW247929   0.446   4.505  13.133
15364SOL     OW47930   3.664  11.675   3.372
15364SOL    HW147931   3.708  11.699   3.454
15364SOL    HW247932   3.571  11.672   3.394
15365SOL     OW47933   4.337   6.549   3.592
15365SOL    HW147934   4.363   6.508   3.510
15365SOL    HW247935   4.260   6.500   3.621
15366SOL     OW47936   4.030   4.566   2.628
15366SOL    HW147937   3.973   4.616   2.570
15366SOL    HW247938   3.972   4.504   2.672
15367SOL     OW47939   8.471   7.904   4.535
15367SOL    HW147940   8.487   7.955   4.614
15367SOL    HW247941   8.377   7.912   4.520
15368SOL     OW47942   8.290   9.720   3.832
15368SOL    HW147943   8.358   9.689   3.892
15368SOL    HW247944   8.304   9.670   3.752
15369SOL     OW47945   9.521   3.876   7.360
15369SOL    HW147946   9.579   3.818   7.411
15369SOL    HW247947   9.512   3.954   7.415
15370SOL     OW47948   4.652   4.346   1.209
15370SOL    HW147949   4.605   4.424   1.180
15370SOL    HW247950   4.677   4.365   1.299
15371SOL     OW47951   5.387  14.468   6.207
15371SOL    HW147952   5.477  14.468   6.174
15371SOL    HW247953   5.333  14.446   6.131
15372SOL     OW47954  13.789  11.445   3.820
15372SOL    HW147955  13.826  11.507   3.882
15372SOL    HW247956  13.853  11.442   3.748
15373SOL     OW47957   9.071   1.421  10.860
15373SOL    HW147958   9.138   1.434  10.927
15373SOL    HW247959   9.104   1.349  10.806
15374SOL     OW47960  14.021   3.359   1.668
15374SOL    HW147961  13.935   3.327   1.641
15374SOL    HW247962  14.080   3.285   1.654
15375SOL     OW47963   6.040   8.400  11.710
15375SOL    HW147964   6.083   8.314  11.707
15375SOL    HW247965   6.028   8.417  11.804
15376SOL     OW47966   2.760  11.095  10.879
15376SOL    HW147967   2.676  11.092  10.924
15376SOL    HW247968   2.812  11.025  10.919
15377SOL     OW47969   2.511  12.853   3.709
15377SOL    HW147970   2.556  12.857   3.625
15377SOL    HW247971   2.545  12.775   3.751
15378SOL     OW47972  13.153   2.511   9.065
15378SOL    HW147973  13.215   2.524   8.994
15378SOL    HW247974  13.144   2.597   9.106
15379SOL     OW47975   1.726   7.527   1.812
15379SOL    HW147976   1.766   7.590   1.872
15379SOL    HW247977   1.666   7.477   1.867
15380SOL     OW47978   0.010   9.120   7.425
15380SOL    HW147979  14.837   9.085   7.349
15380SOL    HW247980  14.837   9.201   7.446
15381SOL     OW47981   3.213   6.456   3.801
15381SOL    HW147982   3.186   6.485   3.714
15381SOL    HW247983   3.227   6.361   3.791
15382SOL     OW47984   2.287  11.040   0.313
15382SOL    HW147985   2.361  11.048   0.254
15382SOL    HW247986   2.238  10.964   0.281
15383SOL     OW47987   1.784   3.665   1.537
15383SOL    HW147988   1.721   3.734   1.559
15383SOL    HW247989   1.809   3.683   1.447
15384SOL     OW47990  13.119  12.744  10.423
15384SOL    HW147991  13.163  12.664  10.451
15384SOL    HW247992  13.143  12.809  10.489
15385SOL     OW47993   0.931   8.445   3.684
15385SOL    HW147994   0.969   8.533   3.682
15385SOL    HW247995   0.940   8.418   3.776
15386SOL     OW47996   9.080   1.392   3.941
15386SOL    HW147997   9.061   1.485   3.924
15386SOL    HW247998   9.093   1.387   4.035
15387SOL     OW47999  12.068  10.628   1.910
15387SOL    HW148000  12.103  10.712   1.881
15387SOL    HW248001  12.026  10.591   1.832
15388SOL     OW48002   4.713   1.862   0.055
15388SOL    HW148003   4.680   1.821  14.849
15388SOL    HW248004   4.770   1.932   0.025
15389SOL     OW48005   7.121   4.265   3.681
15389SOL    HW148006   7.119   4.181   3.727
15389SOL    HW248007   7.079   4.247   3.597
15390SOL     OW48008  12.634   4.003   0.556
15390SOL    HW148009  12.559   4.016   0.498
15390SOL    HW248010  12.693   3.948   0.505
15391SOL     OW48011  14.858  14.236   1.171
15391SOL    HW148012  14.763  14.243   1.168
15391SOL    HW248013   0.013  14.313   1.219
15392SOL     OW48014   1.488   0.608   6.406
15392SOL    HW148015   1.573   0.635   6.372
15392SOL    HW248016   1.488   0.635   6.497
15393SOL     OW48017   4.841   3.070   4.877
15393SOL    HW148018   4.808   3.154   4.844
15393SOL    HW248019   4.934   3.070   4.853
15394SOL     OW48020  13.788  10.216   3.476
15394SOL    HW148021  13.693  10.218   3.469
15394SOL    HW248022  13.818  10.178   3.393
15395SOL     OW48023   4.822  14.721   5.845
15395SOL    HW148024   4.902  14.669   5.846
15395SOL    HW248025   4.800  14.731   5.753
15396SOL     OW48026  14.111   9.138   3.716
15396SOL    HW148027  14.112   9.177   3.803
15396SOL    HW248028  14.025   9.160   3.680
15397SOL     OW48029   6.945  10.096   4.480
15397SOL    HW148030   6.905  10.180   4.501
15397SOL    HW248031   6.919  10.079   4.390
15398SOL     OW48032  12.525   0.157   1.380
15398SOL    HW148033  12.477   0.218   1.436
15398SOL    HW248034  12.589   0.116   1.438
15399SOL     OW48035   6.038  14.126   7.132
15399SOL    HW148036   6.001  14.179   7.061
15399SOL    HW248037   6.083  14.054   7.088
15400SOL     OW48038  11.801  13.096  13.645
15400SOL    HW148039  11.858  13.025  13.673
15400SOL    HW248040  11.775  13.072  13.556
15401SOL     OW48041   6.658   4.332   1.489
15401SOL    HW148042   6.644   4.427   1.489
15401SOL    HW248043   6.746   4.320   1.522
15402SOL     OW48044  14.385  10.951   4.218
15402SOL    HW148045  14.329  10.957   4.140
15402SOL    HW248046  14.382  10.859   4.243
15403SOL     OW48047  14.741   5.143   6.016
15403SOL    HW148048  14.774   5.086   5.947
15403SOL    HW248049  14.655   5.172   5.985
15404SOL     OW48050   4.138  14.752   8.816
15404SOL    HW148051   4.130  14.798   8.899
15404SOL    HW248052   4.225  14.712   8.818
15405SOL     OW48053   4.945   6.032   7.532
15405SOL    HW148054   4.857   6.011   7.500
15405SOL    HW248055   4.943   6.011   7.625
15406SOL     OW48056  11.955   7.478   1.812
15406SOL    HW148057  11.883   7.421   1.786
15406SOL    HW248058  11.925   7.566   1.792
15407SOL     OW48059   1.028   8.698   1.943
15407SOL    HW148060   0.933   8.713   1.937
15407SOL    HW248061   1.064   8.747   1.869
15408SOL     OW48062  14.768   2.665  14.533
15408SOL    HW148063  14.676   2.649  14.511
15408SOL    HW248064  14.816   2.635  14.456
15409SOL     OW48065   9.765  11.256  11.471
15409SOL    HW148066   9.734  11.167  11.483
15409SOL    HW248067   9.860  11.248  11.459
15410SOL     OW48068  14.112  10.077   6.821
15410SOL    HW148069  14.203  10.061   6.798
15410SOL    HW248070  14.062  10.033   6.753
15411SOL     OW48071   6.353   3.403   0.744
15411SOL    HW148072   6.427   3.450   0.783
15411SOL    HW248073   6.276   3.451   0.773
15412SOL     OW48074  10.175  12.262  13.559
15412SOL    HW148075  10.169  12.267  13.464
15412SOL    HW248076  10.200  12.171  13.576
15413SOL     OW48077  12.922  14.764   4.843
15413SOL    HW148078  12.829  14.774   4.823
15413SOL    HW248079  12.942  14.839   4.900
15414SOL     OW48080  13.348   5.653   4.379
15414SOL    HW148081  13.406   5.608   4.441
15414SOL    HW248082  13.404   5.674   4.304
15415SOL     OW48083  12.912   0.225  14.746
15415SOL    HW148084  12.941   0.308  14.707
15415SOL    HW248085  12.935   0.233  14.838
15416SOL     OW48086   6.900   5.145   9.713
15416SOL    HW148087   6.832   5.158   9.779
15416SOL    HW248088   6.908   5.050   9.705
15417SOL     OW48089   7.474   9.282   1.626
15417SOL    HW148090   7.422   9.202   1.617
15417SOL    HW248091   7.565   9.253   1.620
15418SOL     OW48092   8.846  11.160   7.134
15418SOL    HW148093   8.809  11.083   7.090
15418SOL    HW248094   8.808  11.159   7.222
15419SOL     OW48095   6.435  12.790  10.472
15419SOL    HW148096   6.392  12.838  10.542
15419SOL    HW248097   6.416  12.698  10.489
15420SOL     OW48098   0.804   9.941  14.244
15420SOL    HW148099   0.764   9.908  14.164
15420SOL    HW248100   0.768  10.030  14.253
15421SOL     OW48101  11.307   2.449   2.188
15421SOL    HW148102  11.385   2.395   2.196
15421SOL    HW248103  11.324   2.505   2.112
15422SOL     OW48104  14.460  14.336  14.254
15422SOL    HW148105  14.502  14.288  14.325
15422SOL    HW248106  14.387  14.382  14.295
15423SOL     OW48107   3.924   7.668   5.763
15423SOL    HW148108   3.961   7.756   5.750
15423SOL    HW248109   3.910   7.635   5.675
15424SOL     OW48110  12.210   5.288   4.148
15424SOL    HW148111  12.198   5.260   4.239
15424SOL    HW248112  12.139   5.244   4.100
15425SOL     OW48113   6.749   0.803  13.591
15425SOL    HW148114   6.753   0.841  13.679
15425SOL    HW248115   6.774   0.711  13.604
15426SOL     OW48116  11.986  12.207   9.107
15426SOL    HW148117  11.963  12.227   9.016
15426SOL    HW248118  11.928  12.136   9.131
15427SOL     OW48119   4.796   2.989  14.085
15427SOL    HW148120   4.815   3.026  14.171
15427SOL    HW248121   4.786   3.065  14.028
15428SOL     OW48122  11.140   2.372   5.991
15428SOL    HW148123  11.055   2.338   5.962
15428SOL    HW248124  11.143   2.351   6.084
15429SOL     OW48125   4.358  12.861  14.668
15429SOL    HW148126   4.424  12.915  14.712
15429SOL    HW248127   4.380  12.867  14.575
15430SOL     OW48128  11.394  13.190   8.966
15430SOL    HW148129  11.437  13.266   9.006
15430SOL    HW248130  11.331  13.228   8.905
15431SOL     OW48131  10.104  13.912   9.263
15431SOL    HW148132  10.057  13.994   9.276
15431SOL    HW248133  10.036  13.847   9.247
15432SOL     OW48134   0.010   1.535   7.837
15432SOL    HW148135   0.032   1.605   7.898
15432SOL    HW248136   0.012   1.456   7.890
15433SOL     OW48137  12.180   9.392   5.779
15433SOL    HW148138  12.097   9.357   5.746
15433SOL    HW248139  12.207   9.457   5.713
15434SOL     OW48140   0.498  14.161  10.967
15434SOL    HW148141   0.467  14.189  10.881
15434SOL    HW248142   0.441  14.207  11.029
15435SOL     OW48143   8.106  14.188   6.054
15435SOL    HW148144   8.151  14.144   5.982
15435SOL    HW248145   8.080  14.118   6.113
15436SOL     OW48146  10.673  14.858   8.661
15436SOL    HW148147  10.724   0.065   8.651
15436SOL    HW248148  10.735  14.788   8.642
15437SOL     OW48149   0.054  12.997  14.576
15437SOL    HW148150   0.102  12.984  14.658
15437SOL    HW248151  14.844  13.033  14.603
15438SOL     OW48152   4.464  10.158   2.868
15438SOL    HW148153   4.493  10.249   2.863
15438SOL    HW248154   4.471  10.136   2.961
15439SOL     OW48155  10.250   4.312   0.184
15439SOL    HW148156  10.310   4.242   0.158
15439SOL    HW248157  10.303   4.392   0.181
15440SOL     OW48158  12.996   8.779   5.037
15440SOL    HW148159  13.013   8.873   5.046
15440SOL    HW248160  13.014   8.744   5.125
15441SOL     OW48161  11.021   3.564   4.645
15441SOL    HW148162  11.095   3.614   4.679
15441SOL    HW248163  11.059   3.487   4.605
15442SOL     OW48164   7.542   3.326   3.825
15442SOL    HW148165   7.630   3.364   3.829
15442SOL    HW248166   7.540   3.278   3.743
15443SOL     OW48167   9.007  10.895   6.852
15443SOL    HW148168   8.914  10.876   6.851
15443SOL    HW248169   9.046  10.825   6.799
15444SOL     OW48170   1.778  14.830   8.783
15444SOL    HW148171   1.737  14.796   8.703
15444SOL    HW248172   1.827  14.756   8.818
15445SOL     OW48173   6.026  11.502  10.191
15445SOL    HW148174   5.967  11.501  10.267
15445SOL    HW248175   5.976  11.546  10.122
15446SOL     OW48176   9.074  10.546   0.872
15446SOL    HW148177   9.095  10.522   0.782
15446SOL    HW248178   8.988  10.508   0.888
15447SOL     OW48179  13.662   6.330   5.245
15447SOL    HW148180  13.698   6.319   5.157
15447SOL    HW248181  13.577   6.286   5.242
15448SOL     OW48182   7.550   8.476   3.543
15448SOL    HW148183   7.463   8.515   3.545
15448SOL    HW248184   7.602   8.528   3.605
15449SOL     OW48185   7.456   3.767   0.532
15449SOL    HW148186   7.436   3.841   0.589
15449SOL    HW248187   7.508   3.804   0.461
15450SOL     OW48188  12.519   8.241  12.837
15450SOL    HW148189  12.480   8.240  12.750
15450SOL    HW248190  12.610   8.270  12.823
15451SOL     OW48191   6.720  13.563   1.198
15451SOL    HW148192   6.706  13.471   1.223
15451SOL    HW248193   6.635  13.605   1.213
15452SOL     OW48194  11.366   4.078  10.939
15452SOL    HW148195  11.345   4.014  10.871
15452SOL    HW248196  11.425   4.032  10.998
15453SOL     OW48197   6.454   4.972   5.138
15453SOL    HW148198   6.480   4.973   5.046
15453SOL    HW248199   6.381   4.911   5.142
15454SOL     OW48200  13.268  10.614  14.169
15454SOL    HW148201  13.328  10.539  14.170
15454SOL    HW248202  13.326  10.690  14.173
15455SOL     OW48203   1.117   9.712   7.759
15455SOL    HW148204   1.156   9.795   7.730
15455SOL    HW248205   1.158   9.645   7.705
15456SOL     OW48206   4.388   6.602   1.191
15456SOL    HW148207   4.298   6.618   1.219
15456SOL    HW248208   4.427   6.689   1.184
15457SOL     OW48209   5.546   8.621   4.040
15457SOL    HW148210   5.509   8.534   4.047
15457SOL    HW248211   5.592   8.635   4.123
15458SOL     OW48212  12.274   4.644  13.585
15458SOL    HW148213  12.264   4.718  13.525
15458SOL    HW248214  12.300   4.571  13.529
15459SOL     OW48215   3.291   1.304   2.767
15459SOL    HW148216   3.354   1.232   2.768
15459SOL    HW248217   3.281   1.326   2.674
15460SOL     OW48218   0.613   9.334   2.967
15460SOL    HW148219   0.522   9.343   2.997
15460SOL    HW248220   0.665   9.372   3.037
15461SOL     OW48221   6.431   5.969   6.782
15461SOL    HW148222   6.510   6.013   6.815
15461SOL    HW248223   6.421   6.002   6.692
15462SOL     OW48224   0.902   8.021   1.943
15462SOL    HW148225   0.935   7.935   1.971
15462SOL    HW248226   0.978   8.079   1.949
15463SOL     OW48227   4.618  14.231   0.798
15463SOL    HW148228   4.666  14.181   0.863
15463SOL    HW248229   4.672  14.308   0.780
15464SOL     OW48230  14.782  12.624   0.857
15464SOL    HW148231  14.763  12.538   0.821
15464SOL    HW248232  14.832  12.606   0.937
15465SOL     OW48233  11.318  11.043   7.835
15465SOL    HW148234  11.396  11.097   7.845
15465SOL    HW248235  11.282  11.067   7.750
15466SOL     OW48236  11.882   2.094  13.681
15466SOL    HW148237  11.911   2.132  13.763
15466SOL    HW248238  11.959   2.051  13.645
15467SOL     OW48239   1.812   2.981   6.634
15467SOL    HW148240   1.857   2.971   6.718
15467SOL    HW248241   1.821   2.895   6.592
15468SOL     OW48242   1.188  11.661  13.041
15468SOL    HW148243   1.149  11.641  13.126
15468SOL    HW248244   1.227  11.748  13.052
15469SOL     OW48245   6.863  10.032   8.449
15469SOL    HW148246   6.828  10.107   8.497
15469SOL    HW248247   6.873   9.963   8.515
15470SOL     OW48248  14.438  13.343   8.889
15470SOL    HW148249  14.440  13.257   8.847
15470SOL    HW248250  14.364  13.388   8.848
15471SOL     OW48251   4.568   3.376  11.145
15471SOL    HW148252   4.481   3.356  11.109
15471SOL    HW248253   4.564   3.342  11.235
15472SOL     OW48254   4.861   0.948   9.906
15472SOL    HW148255   4.796   0.965   9.837
15472SOL    HW248256   4.936   1.002   9.882
15473SOL     OW48257  12.875   8.829   2.697
15473SOL    HW148258  12.838   8.864   2.616
15473SOL    HW248259  12.960   8.793   2.670
15474SOL     OW48260  12.153   5.462   6.600
15474SOL    HW148261  12.235   5.448   6.648
15474SOL    HW248262  12.141   5.382   6.550
15475SOL     OW48263  12.697   3.604  12.205
15475SOL    HW148264  12.653   3.535  12.155
15475SOL    HW248265  12.770   3.631  12.149
15476SOL     OW48266  12.723  14.711  13.334
15476SOL    HW148267  12.785  14.659  13.384
15476SOL    HW248268  12.771  14.791  13.311
15477SOL     OW48269   2.002  12.634   2.392
15477SOL    HW148270   1.966  12.559   2.345
15477SOL    HW248271   2.002  12.705   2.328
15478SOL     OW48272  14.640  12.792   9.290
15478SOL    HW148273  14.636  12.830   9.378
15478SOL    HW248274  14.562  12.825   9.247
15479SOL     OW48275  11.796   1.409   4.680
15479SOL    HW148276  11.740   1.340   4.714
15479SOL    HW248277  11.880   1.366   4.665
15480SOL     OW48278  13.313   4.568   6.735
15480SOL    HW148279  13.293   4.501   6.801
15480SOL    HW248280  13.409   4.572   6.734
15481SOL     OW48281   1.451   2.221  13.354
15481SOL    HW148282   1.501   2.302  13.350
15481SOL    HW248283   1.517   2.153  13.368
15482SOL     OW48284   8.813   8.535   4.194
15482SOL    HW148285   8.782   8.626   4.188
15482SOL    HW248286   8.797   8.499   4.107
15483SOL     OW48287   1.825  10.564   8.754
15483SOL    HW148288   1.827  10.567   8.850
15483SOL    HW248289   1.845  10.654   8.728
15484SOL     OW48290  14.082   3.219   8.911
15484SOL    HW148291  14.126   3.248   8.991
15484SOL    HW248292  14.095   3.125   8.909
15485SOL     OW48293   6.100   5.497   3.634
15485SOL    HW148294   6.093   5.443   3.554
15485SOL    HW248295   6.010   5.501   3.667
15486SOL     OW48296   4.429  11.828   5.679
15486SOL    HW148297   4.471  11.913   5.685
15486SOL    HW248298   4.342  11.841   5.717
15487SOL     OW48299   4.220   5.667   2.175
15487SOL    HW148300   4.177   5.637   2.254
15487SOL    HW248301   4.157   5.726   2.134
15488SOL     OW48302   9.266   7.235   1.369
15488SOL    HW148303   9.358   7.252   1.347
15488SOL    HW248304   9.219   7.312   1.339
15489SOL     OW48305   1.149   2.767  12.355
15489SOL    HW148306   1.117   2.844  12.401
15489SOL    HW248307   1.204   2.801  12.284
15490SOL     OW48308   7.459  12.098  10.491
15490SOL    HW148309   7.421  12.176  10.451
15490SOL    HW248310   7.553  12.110  10.481
15491SOL     OW48311   9.624  14.602   0.256
15491SOL    HW148312   9.591  14.534   0.313
15491SOL    HW248313   9.666  14.665   0.315
15492SOL     OW48314   4.950  11.213   3.675
15492SOL    HW148315   4.929  11.263   3.596
15492SOL    HW248316   5.041  11.237   3.695
15493SOL     OW48317  14.317   5.956   6.438
15493SOL    HW148318  14.235   6.003   6.455
15493SOL    HW248319  14.306   5.871   6.480
15494SOL     OW48320  13.311  11.789  11.979
15494SOL    HW148321  13.328  11.871  11.933
15494SOL    HW248322  13.398  11.751  11.994
15495SOL     OW48323   4.848  14.547  10.249
15495SOL    HW148324   4.787  14.541  10.322
15495SOL    HW248325   4.901  14.624  10.268
15496SOL     OW48326   0.187   4.371   1.530
15496SOL    HW148327   0.216   4.369   1.621
15496SOL    HW248328   0.268   4.367   1.479
15497SOL     OW48329   7.384   6.323   0.840
15497SOL    HW148330   7.340   6.381   0.777
15497SOL    HW248331   7.408   6.380   0.913
15498SOL     OW48332   9.646   4.042  12.844
15498SOL    HW148333   9.735   4.007  12.855
15498SOL    HW248334   9.596   4.003  12.915
15499SOL     OW48335  13.683  12.404  10.544
15499SOL    HW148336  13.616  12.375  10.482
15499SOL    HW248337  13.671  12.347  10.620
15500SOL     OW48338  14.310  10.210   4.534
15500SOL    HW148339  14.259  10.138   4.496
15500SOL    HW248340  14.398  10.173   4.546
15501SOL     OW48341   0.338  14.305  14.330
15501SOL    HW148342   0.428  14.311  14.364
15501SOL    HW248343   0.321  14.390  14.291
15502SOL     OW48344   3.243  13.955   8.479
15502SOL    HW148345   3.328  13.998   8.469
15502SOL    HW248346   3.196  14.010   8.542
15503SOL     OW48347  12.751  10.255   6.053
15503SOL    HW148348  12.792  10.237   5.969
15503SOL    HW248349  12.671  10.303   6.030
15504SOL     OW48350   7.859  12.571   5.991
15504SOL    HW148351   7.906  12.585   6.073
15504SOL    HW248352   7.928  12.555   5.927
15505SOL     OW48353  13.473   0.756   7.417
15505SOL    HW148354  13.450   0.847   7.434
15505SOL    HW248355  13.412   0.728   7.348
15506SOL     OW48356   5.218   7.681   5.349
15506SOL    HW148357   5.169   7.604   5.321
15506SOL    HW248358   5.279   7.648   5.415
15507SOL     OW48359   4.780   6.845   3.882
15507SOL    HW148360   4.788   6.850   3.787
15507SOL    HW248361   4.785   6.752   3.902
15508SOL     OW48362   4.354   8.527  14.237
15508SOL    HW148363   4.355   8.479  14.154
15508SOL    HW248364   4.445   8.525  14.266
15509SOL     OW48365  10.031  12.035   3.398
15509SOL    HW148366   9.953  12.090   3.389
15509SOL    HW248367  10.041  12.023   3.493
15510SOL     OW48368   5.622   5.580   6.645
15510SOL    HW148369   5.630   5.501   6.698
15510SOL    HW248370   5.687   5.569   6.576
15511SOL     OW48371   5.266   1.885   8.689
15511SOL    HW148372   5.325   1.860   8.760
15511SOL    HW248373   5.181   1.851   8.714
15512SOL     OW48374   4.967   2.401  10.256
15512SOL    HW148375   4.963   2.445  10.341
15512SOL    HW248376   5.052   2.356  10.257
15513SOL     OW48377   0.716   5.052   6.618
15513SOL    HW148378   0.710   4.977   6.677
15513SOL    HW248379   0.763   5.019   6.541
15514SOL     OW48380   3.677   4.283  11.420
15514SOL    HW148381   3.686   4.300  11.327
15514SOL    HW248382   3.731   4.349  11.463
15515SOL     OW48383   0.180   6.976  12.596
15515SOL    HW148384   0.211   7.061  12.628
15515SOL    HW248385   0.085   6.987  12.587
15516SOL     OW48386   6.946  10.474   1.387
15516SOL    HW148387   6.893  10.508   1.459
15516SOL    HW248388   7.021  10.533   1.382
15517SOL     OW48389  12.280  14.204   5.821
15517SOL    HW148390  12.188  14.202   5.848
15517SOL    HW248391  12.280  14.252   5.738
15518SOL     OW48392   4.970  13.617   3.223
15518SOL    HW148393   4.980  13.709   3.246
15518SOL    HW248394   4.967  13.616   3.128
15519SOL     OW48395  11.418   1.234  11.635
15519SOL    HW148396  11.337   1.283  11.621
15519SOL    HW248397  11.389   1.144  11.649
15520SOL     OW48398   3.141   3.864  11.780
15520SOL    HW148399   3.148   3.771  11.760
15520SOL    HW248400   3.096   3.868  11.864
15521SOL     OW48401   3.965  14.448   7.605
15521SOL    HW148402   4.037  14.436   7.543
15521SOL    HW248403   3.989  14.527   7.654
15522SOL     OW48404  14.713   6.472   7.128
15522SOL    HW148405  14.621   6.476   7.101
15522SOL    HW248406  14.758   6.531   7.068
15523SOL     OW48407  10.457   7.488  12.632
15523SOL    HW148408  10.475   7.405  12.676
15523SOL    HW248409  10.439   7.549  12.703
15524SOL     OW48410   0.042  11.084   9.970
15524SOL    HW148411   0.021  11.176   9.986
15524SOL    HW248412   0.024  11.040  10.053
15525SOL     OW48413  14.439  12.665  14.693
15525SOL    HW148414  14.410  12.633  14.779
15525SOL    HW248415  14.436  12.760  14.701
15526SOL     OW48416   9.295   2.453  10.669
15526SOL    HW148417   9.355   2.511  10.624
15526SOL    HW248418   9.224   2.439  10.606
15527SOL     OW48419  14.685  12.428   3.222
15527SOL    HW148420  14.695  12.356   3.284
15527SOL    HW248421  14.771  12.435   3.180
15528SOL     OW48422   5.918  14.570   5.524
15528SOL    HW148423   5.827  14.544   5.536
15528SOL    HW248424   5.966  14.488   5.513
15529SOL     OW48425   9.126   3.732  10.608
15529SOL    HW148426   9.080   3.668  10.553
15529SOL    HW248427   9.056   3.785  10.647
15530SOL     OW48428   1.956   1.674   8.016
15530SOL    HW148429   1.964   1.712   8.103
15530SOL    HW248430   2.016   1.725   7.961
15531SOL     OW48431  10.769   5.446   6.269
15531SOL    HW148432  10.839   5.429   6.205
15531SOL    HW248433  10.809   5.427   6.354
15532SOL     OW48434  12.648  14.152   7.002
15532SOL    HW148435  12.652  14.239   7.042
15532SOL    HW248436  12.734  14.114   7.018
15533SOL     OW48437  13.726  10.197   1.785
15533SOL    HW148438  13.753  10.175   1.696
15533SOL    HW248439  13.782  10.270   1.809
15534SOL     OW48440  11.531  10.123   5.644
15534SOL    HW148441  11.469  10.192   5.666
15534SOL    HW248442  11.617  10.161   5.663
15535SOL     OW48443  14.291   8.947  10.093
15535SOL    HW148444  14.338   8.893  10.157
15535SOL    HW248445  14.321   9.037  10.111
15536SOL     OW48446   9.138  12.008  11.426
15536SOL    HW148447   9.048  11.979  11.408
15536SOL    HW248448   9.168  11.949  11.496
15537SOL     OW48449   4.623   8.019   8.866
15537SOL    HW148450   4.582   8.027   8.952
15537SOL    HW248451   4.660   8.106   8.849
15538SOL     OW48452  14.430   6.723   4.290
15538SOL    HW148453  14.430   6.774   4.209
15538SOL    HW248454  14.495   6.654   4.274
15539SOL     OW48455  12.179   4.872   2.953
15539SOL    HW148456  12.186   4.846   3.045
15539SOL    HW248457  12.143   4.795   2.909
15540SOL     OW48458   6.241   8.255   5.130
15540SOL    HW148459   6.166   8.196   5.127
15540SOL    HW248460   6.294   8.223   5.203
15541SOL     OW48461  11.452  14.693   7.581
15541SOL    HW148462  11.475  14.603   7.557
15541SOL    HW248463  11.521  14.720   7.641
15542SOL     OW48464   8.735   2.120  11.057
15542SOL    HW148465   8.806   2.178  11.028
15542SOL    HW248466   8.690   2.096  10.976
15543SOL     OW48467   3.139   8.743   3.060
15543SOL    HW148468   3.045   8.724   3.057
15543SOL    HW248469   3.181   8.657   3.066
15544SOL     OW48470  11.185  13.020  11.707
15544SOL    HW148471  11.189  13.095  11.647
15544SOL    HW248472  11.118  12.963  11.670
15545SOL     OW48473  14.142   0.493   5.527
15545SOL    HW148474  14.115   0.416   5.576
15545SOL    HW248475  14.079   0.499   5.455
15546SOL     OW48476   7.816   1.216  14.343
15546SOL    HW148477   7.881   1.153  14.311
15546SOL    HW248478   7.765   1.166  14.407
15547SOL     OW48479   0.545   5.064  10.194
15547SOL    HW148480   0.568   4.995  10.257
15547SOL    HW248481   0.625   5.078  10.144
15548SOL     OW48482   5.385  12.226  12.368
15548SOL    HW148483   5.424  12.148  12.405
15548SOL    HW248484   5.458  12.285  12.351
15549SOL     OW48485  14.052   1.823  11.457
15549SOL    HW148486  14.017   1.831  11.368
15549SOL    HW248487  14.090   1.735  11.459
15550SOL     OW48488   5.330  14.742   6.894
15550SOL    HW148489   5.254  14.686   6.884
15550SOL    HW248490   5.402  14.692   6.856
15551SOL     OW48491  10.939  14.841   7.277
15551SOL    HW148492  10.961  14.849   7.370
15551SOL    HW248493  11.009  14.787   7.241
15552SOL     OW48494   1.290   0.991  14.301
15552SOL    HW148495   1.198   0.988  14.276
15552SOL    HW248496   1.336   0.955  14.225
15553SOL     OW48497  13.092   0.504   3.914
15553SOL    HW148498  13.162   0.444   3.937
15553SOL    HW248499  13.097   0.512   3.818
15554SOL     OW48500  11.325   5.696   1.801
15554SOL    HW148501  11.408   5.687   1.846
15554SOL    HW248502  11.286   5.775   1.838
15555SOL     OW48503   3.385  13.486   5.545
15555SOL    HW148504   3.388  13.523   5.633
15555SOL    HW248505   3.457  13.422   5.544
15556SOL     OW48506   7.982   2.346  13.906
15556SOL    HW148507   8.077   2.359  13.904
15556SOL    HW248508   7.951   2.409  13.970
15557SOL     OW48509   8.202   7.456  13.333
15557SOL    HW148510   8.147   7.470  13.410
15557SOL    HW248511   8.284   7.501  13.353
15558SOL     OW48512   5.802  10.596   2.204
15558SOL    HW148513   5.767  10.661   2.266
15558SOL    HW248514   5.736  10.592   2.134
15559SOL     OW48515   5.001  11.936   4.583
15559SOL    HW148516   4.968  12.015   4.626
15559SOL    HW248517   4.965  11.940   4.494
15560SOL     OW48518   4.521   8.942   3.762
15560SOL    HW148519   4.577   8.984   3.826
15560SOL    HW248520   4.462   9.012   3.732
15561SOL     OW48521  10.601  12.483   3.946
15561SOL    HW148522  10.561  12.407   3.902
15561SOL    HW248523  10.588  12.466   4.039
15562SOL     OW48524  13.556   7.064  14.242
15562SOL    HW148525  13.495   7.127  14.282
15562SOL    HW248526  13.549   7.080  14.148
15563SOL     OW48527  10.536   6.699  14.667
15563SOL    HW148528  10.565   6.649  14.591
15563SOL    HW248529  10.618   6.730  14.707
15564SOL     OW48530   6.337   3.690   6.314
15564SOL    HW148531   6.253   3.715   6.352
15564SOL    HW248532   6.332   3.719   6.223
15565SOL     OW48533   1.443   6.342   1.474
15565SOL    HW148534   1.528   6.386   1.466
15565SOL    HW248535   1.446   6.302   1.561
15566SOL     OW48536  13.155  11.533  13.007
15566SOL    HW148537  13.232  11.510  12.955
15566SOL    HW248538  13.191  11.586  13.079
15567SOL     OW48539   6.173   6.616   6.741
15567SOL    HW148540   6.148   6.708   6.740
15567SOL    HW248541   6.251   6.613   6.796
15568SOL     OW48542  11.706   6.498   8.743
15568SOL    HW148543  11.645   6.569   8.720
15568SOL    HW248544  11.684   6.475   8.833
15569SOL     OW48545  11.845   1.619   2.921
15569SOL    HW148546  11.781   1.673   2.876
15569SOL    HW248547  11.794   1.571   2.987
15570SOL     OW48548  14.364   4.938  14.176
15570SOL    HW148549  14.459   4.948  14.180
15570SOL    HW248550  14.336   4.949  14.267
15571SOL     OW48551  14.750  14.050  10.227
15571SOL    HW148552  14.655  14.047  10.219
15571SOL    HW248553  14.779  13.959  10.221
15572SOL     OW48554   7.778   3.118   1.753
15572SOL    HW148555   7.801   3.119   1.846
15572SOL    HW248556   7.784   3.025   1.729
15573SOL     OW48557   4.774   2.840   1.538
15573SOL    HW148558   4.732   2.906   1.482
15573SOL    HW248559   4.701   2.795   1.581
15574SOL     OW48560   4.775  10.356   7.240
15574SOL    HW148561   4.774  10.451   7.252
15574SOL    HW248562   4.683  10.330   7.250
15575SOL     OW48563   1.366   8.001   3.883
15575SOL    HW148564   1.320   8.022   3.964
15575SOL    HW248565   1.423   7.927   3.907
15576SOL     OW48566   2.612  11.319   9.826
15576SOL    HW148567   2.661  11.269   9.891
15576SOL    HW248568   2.566  11.252   9.774
15577SOL     OW48569   5.805  12.535   4.706
15577SOL    HW148570   5.884  12.482   4.711
15577SOL    HW248571   5.796  12.557   4.613
15578SOL     OW48572  12.626   5.945   9.021
15578SOL    HW148573  12.609   6.015   9.084
15578SOL    HW248574  12.573   5.969   8.944
15579SOL     OW48575  14.331   4.133   1.642
15579SOL    HW148576  14.417   4.158   1.608
15579SOL    HW248577  14.328   4.173   1.729
15580SOL     OW48578  10.578  11.759  11.661
15580SOL    HW148579  10.537  11.675  11.636
15580SOL    HW248580  10.504  11.813  11.690
15581SOL     OW48581   6.714  10.337  10.429
15581SOL    HW148582   6.679  10.335  10.518
15581SOL    HW248583   6.648  10.292  10.377
15582SOL     OW48584  14.343  12.588   1.897
15582SOL    HW148585  14.259  12.542   1.901
15582SOL    HW248586  14.320  12.678   1.873
15583SOL     OW48587  13.029  14.143  14.026
15583SOL    HW148588  13.061  14.178  13.943
15583SOL    HW248589  13.034  14.048  14.015
15584SOL     OW48590   8.682  11.109   2.612
15584SOL    HW148591   8.661  11.057   2.690
15584SOL    HW248592   8.756  11.163   2.639
15585SOL     OW48593  11.546  14.459  13.514
15585SOL    HW148594  11.540  14.436  13.421
15585SOL    HW248595  11.555  14.554  13.515
15586SOL     OW48596   9.565   5.453   7.419
15586SOL    HW148597   9.487   5.399   7.430
15586SOL    HW248598   9.542   5.514   7.350
15587SOL     OW48599   0.562  13.667   3.050
15587SOL    HW148600   0.609  13.583   3.047
15587SOL    HW248601   0.469  13.642   3.048
15588SOL     OW48602   8.620  11.888  10.302
15588SOL    HW148603   8.684  11.818  10.315
15588SOL    HW248604   8.653  11.937  10.226
15589SOL     OW48605   8.653   3.854   1.157
15589SOL    HW148606   8.703   3.908   1.218
15589SOL    HW248607   8.577   3.907   1.135
15590SOL     OW48608   9.798  12.843   5.646
15590SOL    HW148609   9.778  12.756   5.612
15590SOL    HW248610   9.886  12.862   5.615
15591SOL     OW48611   0.355   0.960  12.031
15591SOL    HW148612   0.429   1.020  12.021
15591SOL    HW248613   0.331   0.967  12.123
15592SOL     OW48614   5.487   4.104   8.346
15592SOL    HW148615   5.415   4.130   8.403
15592SOL    HW248616   5.562   4.156   8.377
15593SOL     OW48617  11.689   1.349   7.034
15593SOL    HW148618  11.662   1.386   7.118
15593SOL    HW248619  11.700   1.426   6.977
15594SOL     OW48620  12.442  13.592   8.727
15594SOL    HW148621  12.434  13.539   8.648
15594SOL    HW248622  12.475  13.531   8.793
15595SOL     OW48623   9.882   2.250   1.760
15595SOL    HW148624   9.802   2.303   1.750
15595SOL    HW248625   9.950   2.301   1.716
15596SOL     OW48626   1.299   0.918  12.893
15596SOL    HW148627   1.334   0.990  12.945
15596SOL    HW248628   1.294   0.845  12.955
15597SOL     OW48629  10.923  14.182   8.775
15597SOL    HW148630  10.864  14.257   8.769
15597SOL    HW248631  10.938  14.156   8.684
15598SOL     OW48632  13.738   7.090  13.715
15598SOL    HW148633  13.771   7.047  13.635
15598SOL    HW248634  13.767   7.181  13.706
15599SOL     OW48635  14.620   3.790  13.003
15599SOL    HW148636  14.599   3.701  13.029
15599SOL    HW248637  14.715   3.798  13.019
15600SOL     OW48638  13.007   8.542   7.475
15600SOL    HW148639  12.951   8.563   7.550
15600SOL    HW248640  13.001   8.447   7.467
15601SOL     OW48641   3.773   9.149   2.787
15601SOL    HW148642   3.740   9.062   2.768
15601SOL    HW248643   3.774   9.194   2.703
15602SOL     OW48644   7.673   2.002   9.482
15602SOL    HW148645   7.679   1.915   9.524
15602SOL    HW248646   7.717   1.991   9.398
15603SOL     OW48647  12.878   6.262  12.509
15603SOL    HW148648  12.863   6.357  12.510
15603SOL    HW248649  12.807   6.227  12.456
15604SOL     OW48650  14.689   4.869  10.598
15604SOL    HW148651  14.648   4.926  10.533
15604SOL    HW248652  14.662   4.905  10.682
15605SOL     OW48653   3.587   0.067  10.025
15605SOL    HW148654   3.585   0.161  10.039
15605SOL    HW248655   3.661   0.036  10.077
15606SOL     OW48656   4.655   5.421  14.060
15606SOL    HW148657   4.569   5.379  14.060
15606SOL    HW248658   4.650   5.485  14.131
15607SOL     OW48659   2.123   8.408   0.850
15607SOL    HW148660   2.219   8.410   0.849
15607SOL    HW248661   2.098   8.437   0.762
15608SOL     OW48662  13.691   3.590   6.966
15608SOL    HW148663  13.662   3.536   7.040
15608SOL    HW248664  13.645   3.553   6.890
15609SOL     OW48665   2.314   7.500  12.299
15609SOL    HW148666   2.366   7.422  12.316
15609SOL    HW248667   2.243   7.470  12.242
15610SOL     OW48668   6.245   6.908   3.624
15610SOL    HW148669   6.278   6.834   3.674
15610SOL    HW248670   6.169   6.940   3.675
15611SOL     OW48671  14.149   2.877   9.883
15611SOL    HW148672  14.242   2.884   9.864
15611SOL    HW248673  14.139   2.914   9.970
15612SOL     OW48674   6.436   7.037   1.048
15612SOL    HW148675   6.364   7.080   1.003
15612SOL    HW248676   6.428   7.066   1.139
15613SOL     OW48677  14.395   3.873   7.670
15613SOL    HW148678  14.395   3.846   7.578
15613SOL    HW248679  14.318   3.929   7.679
15614SOL     OW48680   4.521  13.426  13.707
15614SOL    HW148681   4.557  13.373  13.778
15614SOL    HW248682   4.502  13.510  13.747
15615SOL     OW48683  12.596   2.202   6.288
15615SOL    HW148684  12.616   2.114   6.319
15615SOL    HW248685  12.671   2.254   6.314
15616SOL     OW48686   5.233  11.631   2.928
15616SOL    HW148687   5.268  11.666   2.846
15616SOL    HW248688   5.280  11.677   2.997
15617SOL     OW48689   3.708   3.726   9.814
15617SOL    HW148690   3.734   3.818   9.811
15617SOL    HW248691   3.631   3.724   9.870
15618SOL     OW48692  11.282   7.583  10.841
15618SOL    HW148693  11.240   7.642  10.903
15618SOL    HW248694  11.231   7.502  10.846
15619SOL     OW48695  12.907   4.397  10.857
15619SOL    HW148696  12.855   4.390  10.777
15619SOL    HW248697  12.930   4.307  10.879
15620SOL     OW48698  10.883   6.282  14.852
15620SOL    HW148699  10.787   6.279  14.845
15620SOL    HW248700  10.914   6.254  14.765
15621SOL     OW48701   8.697   7.429   2.475
15621SOL    HW148702   8.701   7.358   2.411
15621SOL    HW248703   8.665   7.505   2.426
15622SOL     OW48704   2.687   4.012   9.984
15622SOL    HW148705   2.666   3.973  10.069
15622SOL    HW248706   2.646   4.099   9.988
15623SOL     OW48707   4.354  14.431   4.493
15623SOL    HW148708   4.435  14.481   4.496
15623SOL    HW248709   4.362  14.369   4.566
15624SOL     OW48710   8.964  10.842   5.896
15624SOL    HW148711   8.996  10.752   5.886
15624SOL    HW248712   9.029  10.895   5.850
15625SOL     OW48713   2.473   4.354   6.674
15625SOL    HW148714   2.461   4.448   6.691
15625SOL    HW248715   2.385   4.318   6.677
15626SOL     OW48716   6.969   7.803  12.422
15626SOL    HW148717   6.920   7.740  12.475
15626SOL    HW248718   6.980   7.760  12.337
15627SOL     OW48719  14.076  13.872   5.212
15627SOL    HW148720  14.073  13.826   5.295
15627SOL    HW248721  14.015  13.825   5.155
15628SOL     OW48722   9.046   5.760   6.647
15628SOL    HW148723   9.113   5.699   6.618
15628SOL    HW248724   9.095   5.830   6.691
15629SOL     OW48725  10.770   4.310   6.500
15629SOL    HW148726  10.756   4.223   6.464
15629SOL    HW248727  10.751   4.370   6.428
15630SOL     OW48728   6.106  11.669   5.435
15630SOL    HW148729   6.109  11.628   5.522
15630SOL    HW248730   6.193  11.707   5.423
15631SOL     OW48731   0.564  13.854   7.144
15631SOL    HW148732   0.478  13.854   7.101
15631SOL    HW248733   0.627  13.842   7.073
15632SOL     OW48734   4.422   7.695  12.835
15632SOL    HW148735   4.473   7.644  12.898
15632SOL    HW248736   4.438   7.786  12.858
15633SOL     OW48737   7.130  14.538  10.406
15633SOL    HW148738   7.124  14.449  10.371
15633SOL    HW248739   7.188  14.530  10.481
15634SOL     OW48740   5.901  10.925   7.286
15634SOL    HW148741   5.842  10.945   7.213
15634SOL    HW248742   5.849  10.869   7.344
15635SOL     OW48743   8.230   5.343  12.151
15635SOL    HW148744   8.185   5.389  12.221
15635SOL    HW248745   8.167   5.280  12.119
15636SOL     OW48746  12.991   1.418   5.066
15636SOL    HW148747  12.910   1.444   5.110
15636SOL    HW248748  13.018   1.496   5.018
15637SOL     OW48749  11.022   8.966  13.266
15637SOL    HW148750  11.064   8.998  13.345
15637SOL    HW248751  10.934   8.939  13.294
15638SOL     OW48752   4.728  14.548   1.436
15638SOL    HW148753   4.771  14.568   1.519
15638SOL    HW248754   4.731  14.452   1.430
15639SOL     OW48755  11.393  12.252   2.602
15639SOL    HW148756  11.406  12.186   2.671
15639SOL    HW248757  11.391  12.202   2.521
15640SOL     OW48758   3.919   9.842  14.142
15640SOL    HW148759   3.919   9.914  14.079
15640SOL    HW248760   3.828   9.812  14.143
15641SOL     OW48761  10.820  10.806   1.112
15641SOL    HW148762  10.855  10.835   1.028
15641SOL    HW248763  10.725  10.814   1.102
15642SOL     OW48764   8.781   9.529  10.663
15642SOL    HW148765   8.762   9.492  10.577
15642SOL    HW248766   8.831   9.608  10.645
15643SOL     OW48767   0.064   3.993   7.937
15643SOL    HW148768  14.852   4.006   7.977
15643SOL    HW248769   0.054   3.917   7.880
15644SOL     OW48770  11.695   9.464  12.517
15644SOL    HW148771  11.769   9.513  12.483
15644SOL    HW248772  11.624   9.528  12.521
15645SOL     OW48773   6.679   6.996   8.036
15645SOL    HW148774   6.638   7.079   8.013
15645SOL    HW248775   6.759   6.993   7.982
15646SOL     OW48776  13.294   3.186   9.657
15646SOL    HW148777  13.365   3.215   9.716
15646SOL    HW248778  13.214   3.219   9.698
15647SOL     OW48779   4.732   4.625  11.992
15647SOL    HW148780   4.686   4.659  12.069
15647SOL    HW248781   4.798   4.692  11.972
15648SOL     OW48782  10.515   1.962   7.134
15648SOL    HW148783  10.566   1.893   7.175
15648SOL    HW248784  10.463   2.000   7.206
15649SOL     OW48785   3.295   6.120   9.448
15649SOL    HW148786   3.226   6.156   9.504
15649SOL    HW248787   3.295   6.026   9.467
15650SOL     OW48788   4.360   9.290   6.264
15650SOL    HW148789   4.446   9.252   6.282
15650SOL    HW248790   4.375   9.355   6.196
15651SOL     OW48791  13.547   8.025   1.063
15651SOL    HW148792  13.571   8.082   1.136
15651SOL    HW248793  13.452   8.019   1.068
15652SOL     OW48794   8.609  13.999   1.943
15652SOL    HW148795   8.561  14.072   1.902
15652SOL    HW248796   8.563  13.921   1.913
15653SOL     OW48797   8.141   0.927  12.689
15653SOL    HW148798   8.136   0.833  12.672
15653SOL    HW248799   8.053   0.960  12.672
15654SOL     OW48800   6.832  13.191   7.574
15654SOL    HW148801   6.778  13.247   7.519
15654SOL    HW248802   6.896  13.152   7.515
15655SOL     OW48803   0.848   3.865   5.957
15655SOL    HW148804   0.940   3.852   5.934
15655SOL    HW248805   0.830   3.800   6.025
15656SOL     OW48806   5.426   7.721   3.844
15656SOL    HW148807   5.472   7.795   3.883
15656SOL    HW248808   5.436   7.650   3.907
15657SOL     OW48809   3.953  11.047   4.235
15657SOL    HW148810   3.941  11.001   4.151
15657SOL    HW248811   3.970  11.138   4.210
15658SOL     OW48812   7.885   6.895   5.845
15658SOL    HW148813   7.876   6.868   5.937
15658SOL    HW248814   7.865   6.816   5.795
15659SOL     OW48815  12.822   7.182   9.747
15659SOL    HW148816  12.740   7.177   9.698
15659SOL    HW248817  12.803   7.136   9.829
15660SOL     OW48818  10.056   8.433   3.958
15660SOL    HW148819  10.107   8.402   4.033
15660SOL    HW248820   9.977   8.379   3.960
15661SOL     OW48821   2.181   7.100   0.886
15661SOL    HW148822   2.224   7.089   0.801
15661SOL    HW248823   2.175   7.011   0.922
15662SOL     OW48824   6.226  11.332  11.109
15662SOL    HW148825   6.203  11.253  11.157
15662SOL    HW248826   6.247  11.397  11.176
15663SOL     OW48827   1.911   0.274   9.094
15663SOL    HW148828   1.876   0.309   9.176
15663SOL    HW248829   1.845   0.212   9.064
15664SOL     OW48830   8.224   2.359   5.970
15664SOL    HW148831   8.300   2.302   5.958
15664SOL    HW248832   8.158   2.303   6.010
15665SOL     OW48833   6.116  10.953  11.532
15665SOL    HW148834   6.061  11.030  11.520
15665SOL    HW248835   6.096  10.922  11.620
15666SOL     OW48836   4.803   8.479  10.104
15666SOL    HW148837   4.895   8.504  10.115
15666SOL    HW248838   4.755   8.538  10.162
15667SOL     OW48839  14.667   2.897   1.215
15667SOL    HW148840  14.699   2.926   1.300
15667SOL    HW248841  14.665   2.802   1.221
15668SOL     OW48842  13.919   7.708   3.330
15668SOL    HW148843  13.834   7.668   3.311
15668SOL    HW248844  13.935   7.688   3.422
15669SOL     OW48845  13.180   2.221   3.781
15669SOL    HW148846  13.271   2.244   3.802
15669SOL    HW248847  13.170   2.132   3.816
15670SOL     OW48848   8.441  11.733   5.684
15670SOL    HW148849   8.356  11.743   5.727
15670SOL    HW248850   8.421  11.733   5.590
15671SOL     OW48851   8.943   9.487  14.287
15671SOL    HW148852   9.016   9.543  14.262
15671SOL    HW248853   8.976   9.433  14.359
15672SOL     OW48854   8.849   1.801  11.060
15672SOL    HW148855   8.760   1.814  11.025
15672SOL    HW248856   8.906   1.843  10.996
15673SOL     OW48857   5.001   3.687   6.156
15673SOL    HW148858   4.940   3.691   6.229
15673SOL    HW248859   5.065   3.620   6.182
15674SOL     OW48860   9.416  14.017   7.340
15674SOL    HW148861   9.434  14.008   7.434
15674SOL    HW248862   9.325  14.045   7.336
15675SOL     OW48863   6.752  14.716  11.026
15675SOL    HW148864   6.666  14.711  11.067
15675SOL    HW248865   6.779  14.807  11.036
15676SOL     OW48866   1.203   2.719   8.032
15676SOL    HW148867   1.272   2.733   7.967
15676SOL    HW248868   1.192   2.804   8.074
15677SOL     OW48869   0.581   0.923   8.312
15677SOL    HW148870   0.603   0.998   8.368
15677SOL    HW248871   0.597   0.955   8.223
15678SOL     OW48872  12.072  11.896   6.236
15678SOL    HW148873  12.015  11.970   6.215
15678SOL    HW248874  12.160  11.934   6.238
15679SOL     OW48875   9.951   6.692   0.397
15679SOL    HW148876  10.022   6.751   0.422
15679SOL    HW248877   9.993   6.627   0.341
15680SOL     OW48878  13.536   6.783  11.748
15680SOL    HW148879  13.591   6.707  11.769
15680SOL    HW248880  13.461   6.746  11.701
15681SOL     OW48881   0.768   1.368  14.043
15681SOL    HW148882   0.864   1.370  14.049
15681SOL    HW248883   0.748   1.282  14.006
15682SOL     OW48884  12.162  12.089   3.635
15682SOL    HW148885  12.136  12.157   3.573
15682SOL    HW248886  12.113  12.012   3.607
15683SOL     OW48887  14.282  14.607   9.497
15683SOL    HW148888  14.374  14.629   9.479
15683SOL    HW248889  14.280  14.512   9.498
15684SOL     OW48890   4.572   8.703  11.695
15684SOL    HW148891   4.600   8.668  11.611
15684SOL    HW248892   4.479   8.723  11.684
15685SOL     OW48893   2.369  10.752   2.106
15685SOL    HW148894   2.379  10.712   2.020
15685SOL    HW248895   2.377  10.846   2.090
15686SOL     OW48896  13.925   6.532  12.430
15686SOL    HW148897  13.990   6.573  12.487
15686SOL    HW248898  13.844   6.580  12.447
15687SOL     OW48899  12.370   6.584   1.921
15687SOL    HW148900  12.313   6.653   1.888
15687SOL    HW248901  12.323   6.548   1.997
15688SOL     OW48902   1.610  11.859  10.974
15688SOL    HW148903   1.628  11.929  11.037
15688SOL    HW248904   1.515  11.861  10.963
15689SOL     OW48905   3.864  11.749  11.732
15689SOL    HW148906   3.919  11.820  11.699
15689SOL    HW248907   3.819  11.716  11.654
15690SOL     OW48908  14.766   7.609   0.421
15690SOL    HW148909  14.817   7.651   0.490
15690SOL    HW248910  14.693   7.568   0.468
15691SOL     OW48911   7.235   4.211   8.856
15691SOL    HW148912   7.158   4.263   8.881
15691SOL    HW248913   7.306   4.245   8.910
15692SOL     OW48914   4.570   2.729  13.377
15692SOL    HW148915   4.569   2.674  13.299
15692SOL    HW248916   4.479   2.730  13.407
15693SOL     OW48917  12.169   2.764   9.126
15693SOL    HW148918  12.117   2.845   9.134
15693SOL    HW248919  12.169   2.727   9.214
15694SOL     OW48920   7.441  11.112   5.825
15694SOL    HW148921   7.467  11.051   5.894
15694SOL    HW248922   7.514  11.113   5.764
15695SOL     OW48923   3.904   4.492  14.097
15695SOL    HW148924   3.980   4.442  14.125
15695SOL    HW248925   3.907   4.572  14.148
15696SOL     OW48926   1.230   0.728  12.345
15696SOL    HW148927   1.159   0.792  12.340
15696SOL    HW248928   1.186   0.644  12.356
15697SOL     OW48929  12.518   2.260  14.850
15697SOL    HW148930  12.562   2.241   0.059
15697SOL    HW248931  12.566   2.335  14.814
15698SOL     OW48932   5.118  10.501   1.626
15698SOL    HW148933   5.155  10.421   1.662
15698SOL    HW248934   5.106  10.559   1.702
15699SOL     OW48935   1.206   1.865   2.879
15699SOL    HW148936   1.147   1.879   2.806
15699SOL    HW248937   1.209   1.950   2.924
15700SOL     OW48938  11.529   0.304   1.029
15700SOL    HW148939  11.620   0.280   1.011
15700SOL    HW248940  11.526   0.398   1.013
15701SOL     OW48941  11.067  13.749  10.830
15701SOL    HW148942  11.110  13.834  10.825
15701SOL    HW248943  11.108  13.706  10.905
15702SOL     OW48944  13.199   2.386  10.602
15702SOL    HW148945  13.105   2.396  10.592
15702SOL    HW248946  13.223   2.446  10.673
15703SOL     OW48947  12.797  11.859   8.981
15703SOL    HW148948  12.833  11.771   8.972
15703SOL    HW248949  12.720  11.848   9.036
15704SOL     OW48950   1.594   4.020   2.501
15704SOL    HW148951   1.666   4.034   2.439
15704SOL    HW248952   1.517   4.005   2.446
15705SOL     OW48953  14.335   0.912   7.219
15705SOL    HW148954  14.290   0.917   7.304
15705SOL    HW248955  14.363   1.001   7.201
15706SOL     OW48956   1.764   3.897   5.528
15706SOL    HW148957   1.718   3.964   5.477
15706SOL    HW248958   1.835   3.869   5.471
15707SOL     OW48959   8.072  14.353   4.457
15707SOL    HW148960   8.060  14.378   4.548
15707SOL    HW248961   7.999  14.294   4.439
15708SOL     OW48962   9.595   9.819   8.065
15708SOL    HW148963   9.510   9.822   8.023
15708SOL    HW248964   9.587   9.878   8.140
15709SOL     OW48965   6.154   7.290   4.349
15709SOL    HW148966   6.205   7.209   4.340
15709SOL    HW248967   6.076   7.263   4.397
15710SOL     OW48968  14.493   7.192  11.479
15710SOL    HW148969  14.578   7.212  11.438
15710SOL    HW248970  14.499   7.230  11.566
15711SOL     OW48971  10.484   6.427  14.098
15711SOL    HW148972  10.437   6.401  14.019
15711SOL    HW248973  10.446   6.512  14.121
15712SOL     OW48974   3.433  14.760   9.901
15712SOL    HW148975   3.355  14.797   9.943
15712SOL    HW248976   3.504  14.818   9.926
15713SOL     OW48977  11.648   9.271   2.851
15713SOL    HW148978  11.735   9.291   2.816
15713SOL    HW248979  11.599   9.352   2.843
15714SOL     OW48980   1.547   8.303   5.954
15714SOL    HW148981   1.566   8.397   5.959
15714SOL    HW248982   1.594   8.273   5.876
15715SOL     OW48983  12.082   5.883   4.518
15715SOL    HW148984  12.111   5.792   4.532
15715SOL    HW248985  12.068   5.890   4.424
15716SOL     OW48986   2.031   7.907  14.468
15716SOL    HW148987   1.938   7.885  14.471
15716SOL    HW248988   2.068   7.847  14.403
15717SOL     OW48989   7.804  11.070  10.041
15717SOL    HW148990   7.856  11.022  10.105
15717SOL    HW248991   7.868  11.124   9.994
15718SOL     OW48992   4.637   9.836   5.254
15718SOL    HW148993   4.713   9.813   5.306
15718SOL    HW248994   4.657   9.802   5.166
15719SOL     OW48995   0.146   7.232   8.348
15719SOL    HW148996   0.166   7.311   8.399
15719SOL    HW248997   0.087   7.263   8.279
15720SOL     OW48998   1.207   2.824   8.399
15720SOL    HW148999   1.171   2.855   8.316
15720SOL    HW249000   1.266   2.894   8.428
15721SOL     OW49001  10.091  11.392   9.114
15721SOL    HW149002  10.076  11.374   9.206
15721SOL    HW249003  10.134  11.478   9.113
15722SOL     OW49004  14.309   5.432  10.050
15722SOL    HW149005  14.226   5.452  10.009
15722SOL    HW249006  14.366   5.505  10.026
15723SOL     OW49007   9.531   8.127   6.929
15723SOL    HW149008   9.440   8.113   6.957
15723SOL    HW249009   9.525   8.142   6.835
15724SOL     OW49010   9.690   8.837  11.857
15724SOL    HW149011   9.601   8.848  11.890
15724SOL    HW249012   9.723   8.926  11.848
15725SOL     OW49013   9.786   9.827   5.341
15725SOL    HW149014   9.866   9.879   5.346
15725SOL    HW249015   9.816   9.738   5.322
15726SOL     OW49016   7.121   4.824   8.838
15726SOL    HW149017   7.170   4.787   8.912
15726SOL    HW249018   7.153   4.914   8.831
15727SOL     OW49019   3.970   3.093  10.838
15727SOL    HW149020   4.049   3.074  10.788
15727SOL    HW249021   3.909   3.129  10.774
15728SOL     OW49022  14.167   9.468   3.403
15728SOL    HW149023  14.129   9.472   3.491
15728SOL    HW249024  14.197   9.557   3.385
15729SOL     OW49025   1.232   5.588   5.437
15729SOL    HW149026   1.319   5.623   5.456
15729SOL    HW249027   1.179   5.666   5.419
15730SOL     OW49028  14.029   9.636   1.044
15730SOL    HW149029  14.106   9.636   0.988
15730SOL    HW249030  14.002   9.544   1.047
15731SOL     OW49031   2.679   4.938  12.341
15731SOL    HW149032   2.687   4.889  12.259
15731SOL    HW249033   2.762   4.985  12.349
15732SOL     OW49034   3.960   1.265   8.136
15732SOL    HW149035   3.967   1.274   8.041
15732SOL    HW249036   3.873   1.298   8.157
15733SOL     OW49037  14.025   3.053   2.079
15733SOL    HW149038  13.969   3.130   2.091
15733SOL    HW249039  14.106   3.088   2.041
15734SOL     OW49040   4.756  14.200   9.922
15734SOL    HW149041   4.846  14.233   9.918
15734SOL    HW249042   4.708  14.267   9.970
15735SOL     OW49043   3.917   8.074   9.029
15735SOL    HW149044   3.888   8.034   9.110
15735SOL    HW249045   4.010   8.092   9.043
15736SOL     OW49046  11.781  11.701  14.097
15736SOL    HW149047  11.704  11.740  14.054
15736SOL    HW249048  11.748  11.671  14.182
15737SOL     OW49049   0.159  11.730   7.696
15737SOL    HW149050   0.071  11.760   7.673
15737SOL    HW249051   0.212  11.810   7.698
15738SOL     OW49052   1.427   3.373   7.309
15738SOL    HW149053   1.421   3.414   7.395
15738SOL    HW249054   1.342   3.330   7.297
15739SOL     OW49055   4.977  10.976   4.870
15739SOL    HW149056   4.926  10.897   4.858
15739SOL    HW249057   4.982  10.987   4.965
15740SOL     OW49058   6.928  10.798  12.493
15740SOL    HW149059   6.874  10.862  12.447
15740SOL    HW249060   6.865  10.743  12.540
15741SOL     OW49061  12.748  13.676   1.240
15741SOL    HW149062  12.672  13.690   1.185
15741SOL    HW249063  12.820  13.720   1.195
15742SOL     OW49064   5.326   2.701   4.081
15742SOL    HW149065   5.261   2.764   4.115
15742SOL    HW249066   5.359   2.657   4.159
15743SOL     OW49067   5.846   9.673   5.254
15743SOL    HW149068   5.802   9.646   5.173
15743SOL    HW249069   5.930   9.708   5.225
15744SOL     OW49070  10.555   5.978  12.712
15744SOL    HW149071  10.491   5.952  12.778
15744SOL    HW249072  10.514   5.952  12.629
15745SOL     OW49073   0.753   7.366  12.903
15745SOL    HW149074   0.791   7.283  12.931
15745SOL    HW249075   0.722   7.407  12.985
15746SOL     OW49076   1.390   8.547  12.607
15746SOL    HW149077   1.295   8.559  12.606
15746SOL    HW249078   1.405   8.466  12.559
15747SOL     OW49079  14.844   4.391   1.047
15747SOL    HW149080  14.762   4.341   1.048
15747SOL    HW249081  14.836   4.449   0.971
15748SOL     OW49082   3.305   1.857   2.809
15748SOL    HW149083   3.307   1.932   2.750
15748SOL    HW249084   3.239   1.881   2.875
15749SOL     OW49085   8.792   7.602  11.364
15749SOL    HW149086   8.877   7.637  11.391
15749SOL    HW249087   8.734   7.621  11.438
15750SOL     OW49088   0.551   9.501   6.936
15750SOL    HW149089   0.635   9.534   6.905
15750SOL    HW249090   0.512   9.459   6.860
15751SOL     OW49091   9.599   3.657   5.252
15751SOL    HW149092   9.631   3.571   5.277
15751SOL    HW249093   9.635   3.716   5.319
15752SOL     OW49094  11.976   7.060   7.292
15752SOL    HW149095  11.888   7.073   7.327
15752SOL    HW249096  11.963   7.000   7.218
15753SOL     OW49097   9.828   3.075  12.473
15753SOL    HW149098   9.866   3.050  12.389
15753SOL    HW249099   9.873   3.155  12.499
15754SOL     OW49100   4.658  14.155   5.219
15754SOL    HW149101   4.646  14.063   5.242
15754SOL    HW249102   4.725  14.155   5.151
15755SOL     OW49103   8.032   6.647   3.805
15755SOL    HW149104   8.067   6.612   3.723
15755SOL    HW249105   8.105   6.695   3.844
15756SOL     OW49106   2.043   6.614   0.920
15756SOL    HW149107   2.011   6.702   0.899
15756SOL    HW249108   2.123   6.605   0.868
15757SOL     OW49109  12.847  13.058   3.815
15757SOL    HW149110  12.855  12.973   3.770
15757SOL    HW249111  12.754  13.079   3.812
15758SOL     OW49112   7.366   3.271   0.680
15758SOL    HW149113   7.325   3.323   0.750
15758SOL    HW249114   7.303   3.202   0.662
15759SOL     OW49115  10.406   6.418  13.421
15759SOL    HW149116  10.401   6.371  13.338
15759SOL    HW249117  10.482   6.476  13.411
15760SOL     OW49118  14.358   1.802  13.090
15760SOL    HW149119  14.351   1.894  13.116
15760SOL    HW249120  14.391   1.804  13.000
15761SOL     OW49121  11.473   8.005  10.116
15761SOL    HW149122  11.452   7.913  10.127
15761SOL    HW249123  11.447   8.025  10.026
15762SOL     OW49124   9.661   2.370   0.767
15762SOL    HW149125   9.611   2.417   0.701
15762SOL    HW249126   9.595   2.318   0.814
15763SOL     OW49127   9.825   7.905  14.237
15763SOL    HW149128   9.820   7.933  14.146
15763SOL    HW249129   9.758   7.956  14.282
15764SOL     OW49130  10.832   0.814   5.142
15764SOL    HW149131  10.925   0.837   5.135
15764SOL    HW249132  10.828   0.725   5.108
15765SOL     OW49133   9.792   1.031   9.029
15765SOL    HW149134   9.865   0.978   9.062
15765SOL    HW249135   9.733   0.967   8.989
15766SOL     OW49136   0.915   6.379   7.141
15766SOL    HW149137   0.949   6.438   7.208
15766SOL    HW249138   0.820   6.388   7.147
15767SOL     OW49139  12.507   9.527  14.646
15767SOL    HW149140  12.418   9.559  14.661
15767SOL    HW249141  12.498   9.462  14.577
15768SOL     OW49142   5.307  13.898  12.778
15768SOL    HW149143   5.390  13.857  12.799
15768SOL    HW249144   5.296  13.887  12.684
15769SOL     OW49145  12.942   1.595   0.960
15769SOL    HW149146  12.996   1.600   1.038
15769SOL    HW249147  13.004   1.600   0.887
15770SOL     OW49148  11.411  14.197  10.950
15770SOL    HW149149  11.488  14.215  10.897
15770SOL    HW249150  11.441  14.134  11.015
15771SOL     OW49151   8.155   0.962   2.963
15771SOL    HW149152   8.175   0.933   2.874
15771SOL    HW249153   8.182   0.889   3.019
15772SOL     OW49154   9.233   6.820   2.059
15772SOL    HW149155   9.317   6.782   2.035
15772SOL    HW249156   9.215   6.884   1.990
15773SOL     OW49157  12.400  12.893   4.547
15773SOL    HW149158  12.488  12.906   4.510
15773SOL    HW249159  12.346  12.959   4.504
15774SOL     OW49160  11.938   3.543  11.019
15774SOL    HW149161  11.913   3.602  10.948
15774SOL    HW249162  11.934   3.598  11.098
15775SOL     OW49163   5.124   0.288   9.475
15775SOL    HW149164   5.108   0.376   9.443
15775SOL    HW249165   5.048   0.237   9.446
15776SOL     OW49166  10.345   9.203  12.083
15776SOL    HW149167  10.410   9.213  12.014
15776SOL    HW249168  10.375   9.261  12.153
15777SOL     OW49169   1.948   0.850   8.334
15777SOL    HW149170   1.938   0.934   8.290
15777SOL    HW249171   2.025   0.810   8.294
15778SOL     OW49172  13.464   0.184  10.265
15778SOL    HW149173  13.443   0.129  10.340
15778SOL    HW249174  13.382   0.230  10.245
15779SOL     OW49175   0.823   3.470   1.850
15779SOL    HW149176   0.744   3.421   1.825
15779SOL    HW249177   0.893   3.431   1.799
15780SOL     OW49178   6.442  11.261   9.176
15780SOL    HW149179   6.532  11.292   9.172
15780SOL    HW249180   6.404  11.304   9.252
15781SOL     OW49181   0.040   0.068   4.584
15781SOL    HW149182   0.069  14.851   4.583
15781SOL    HW249183   0.115   0.117   4.618
15782SOL     OW49184  12.196   6.810  13.230
15782SOL    HW149185  12.128   6.803  13.298
15782SOL    HW249186  12.274   6.838  13.277
15783SOL     OW49187   5.424   6.207  11.352
15783SOL    HW149188   5.429   6.188  11.258
15783SOL    HW249189   5.335   6.238  11.366
15784SOL     OW49190  11.992   3.949   8.683
15784SOL    HW149191  12.061   4.012   8.705
15784SOL    HW249192  12.010   3.874   8.740
15785SOL     OW49193  10.398   9.198   8.198
15785SOL    HW149194  10.350   9.139   8.139
15785SOL    HW249195  10.429   9.141   8.268
15786SOL     OW49196  11.311   5.166   2.396
15786SOL    HW149197  11.343   5.141   2.309
15786SOL    HW249198  11.385   5.148   2.454
15787SOL     OW49199   9.082  10.392   3.439
15787SOL    HW149200   9.088  10.305   3.478
15787SOL    HW249201   9.165  10.434   3.463
15788SOL     OW49202   0.269   3.257   6.628
15788SOL    HW149203   0.267   3.353   6.633
15788SOL    HW249204   0.284   3.228   6.718
15789SOL     OW49205   4.901   5.886   9.984
15789SOL    HW149206   4.943   5.912   9.902
15789SOL    HW249207   4.869   5.797   9.967
15790SOL     OW49208   3.745   5.246   9.647
15790SOL    HW149209   3.743   5.202   9.563
15790SOL    HW249210   3.828   5.293   9.648
15791SOL     OW49211  10.207  11.644   4.073
15791SOL    HW149212  10.142  11.620   4.007
15791SOL    HW249213  10.204  11.573   4.137
15792SOL     OW49214  10.367   1.053   7.144
15792SOL    HW149215  10.351   0.964   7.173
15792SOL    HW249216  10.441   1.083   7.196
15793SOL     OW49217   7.969  12.970  11.440
15793SOL    HW149218   7.982  12.963  11.345
15793SOL    HW249219   7.874  12.968  11.451
15794SOL     OW49220  11.805   6.782   2.604
15794SOL    HW149221  11.875   6.848   2.603
15794SOL    HW249222  11.821   6.729   2.525
15795SOL     OW49223   5.813   8.101   0.054
15795SOL    HW149224   5.779   8.034  14.869
15795SOL    HW249225   5.800   8.065   0.141
15796SOL     OW49226   3.829   9.575   6.779
15796SOL    HW149227   3.821   9.658   6.825
15796SOL    HW249228   3.825   9.509   6.848
15797SOL     OW49229  14.681   4.911  10.217
15797SOL    HW149230  14.614   4.965  10.259
15797SOL    HW249231  14.764   4.946  10.250
15798SOL     OW49232  11.516  12.666   3.848
15798SOL    HW149233  11.431  12.634   3.879
15798SOL    HW249234  11.576  12.592   3.860
15799SOL     OW49235   8.880  11.109  14.057
15799SOL    HW149236   8.958  11.153  14.023
15799SOL    HW249237   8.852  11.164  14.131
15800SOL     OW49238   8.449   5.126  10.443
15800SOL    HW149239   8.515   5.195  10.448
15800SOL    HW249240   8.451   5.098  10.351
15801SOL     OW49241   4.429   6.271   3.697
15801SOL    HW149242   4.471   6.192   3.663
15801SOL    HW249243   4.453   6.340   3.636
15802SOL     OW49244  10.823   7.009   0.679
15802SOL    HW149245  10.770   7.000   0.600
15802SOL    HW249246  10.879   7.085   0.663
15803SOL     OW49247  11.196   1.078   5.760
15803SOL    HW149248  11.130   1.010   5.743
15803SOL    HW249249  11.149   1.147   5.806
15804SOL     OW49250   0.943   4.638   1.207
15804SOL    HW149251   1.031   4.646   1.244
15804SOL    HW249252   0.911   4.554   1.241
15805SOL     OW49253   7.739  13.432   3.087
15805SOL    HW149254   7.736  13.470   3.175
15805SOL    HW249255   7.649  13.402   3.071
15806SOL     OW49256  12.887   5.438   4.659
15806SOL    HW149257  12.933   5.451   4.576
15806SOL    HW249258  12.870   5.343   4.662
15807SOL     OW49259  12.375   6.065   6.800
15807SOL    HW149260  12.435   6.132   6.833
15807SOL    HW249261  12.383   5.994   6.864
15808SOL     OW49262   4.265   4.477  14.051
15808SOL    HW149263   4.226   4.403  14.006
15808SOL    HW249264   4.234   4.554  14.002
15809SOL     OW49265   4.356   9.097  12.742
15809SOL    HW149266   4.326   9.148  12.817
15809SOL    HW249267   4.334   9.006  12.764
15810SOL     OW49268  11.617  10.580  14.574
15810SOL    HW149269  11.711  10.573  14.560
15810SOL    HW249270  11.580  10.580  14.485
15811SOL     OW49271  10.029   2.645   1.818
15811SOL    HW149272   9.975   2.724   1.811
15811SOL    HW249273   9.980   2.588   1.877
15812SOL     OW49274   7.322  11.323  13.927
15812SOL    HW149275   7.401  11.355  13.884
15812SOL    HW249276   7.253  11.383  13.898
15813SOL     OW49277   6.114   6.040   7.350
15813SOL    HW149278   6.194   6.077   7.310
15813SOL    HW249279   6.073   5.991   7.279
15814SOL     OW49280   7.555   8.378   3.259
15814SOL    HW149281   7.549   8.401   3.352
15814SOL    HW249282   7.637   8.418   3.230
15815SOL     OW49283   5.793   1.581  10.102
15815SOL    HW149284   5.740   1.510  10.063
15815SOL    HW249285   5.875   1.539  10.126
15816SOL     OW49286   5.210   9.027   7.655
15816SOL    HW149287   5.294   9.028   7.610
15816SOL    HW249288   5.207   8.942   7.698
15817SOL     OW49289  10.870   0.194   8.620
15817SOL    HW149290  10.942   0.130   8.613
15817SOL    HW249291  10.869   0.218   8.712
15818SOL     OW49292   0.951   3.532   4.103
15818SOL    HW149293   0.909   3.539   4.189
15818SOL    HW249294   1.013   3.604   4.100
15819SOL     OW49295   2.307   3.654  12.426
15819SOL    HW149296   2.278   3.741  12.399
15819SOL    HW249297   2.377   3.632  12.365
15820SOL     OW49298   0.847   8.312   2.565
15820SOL    HW149299   0.853   8.276   2.653
15820SOL    HW249300   0.851   8.407   2.577
15821SOL     OW49301   2.839   0.049  12.416
15821SOL    HW149302   2.791   0.104  12.478
15821SOL    HW249303   2.815  14.834  12.440
15822SOL     OW49304   8.034  11.828   7.530
15822SOL    HW149305   8.041  11.812   7.436
15822SOL    HW249306   7.998  11.747   7.565
15823SOL     OW49307   0.454   8.566  11.077
15823SOL    HW149308   0.521   8.633  11.090
15823SOL    HW249309   0.501   8.483  11.087
15824SOL     OW49310   4.450  14.806   6.249
15824SOL    HW149311   4.391  14.757   6.191
15824SOL    HW249312   4.434   0.024   6.228
15825SOL     OW49313  11.892   5.056   3.634
15825SOL    HW149314  11.824   5.093   3.577
15825SOL    HW249315  11.855   5.062   3.722
15826SOL     OW49316   7.141  11.637   3.389
15826SOL    HW149317   7.070  11.686   3.347
15826SOL    HW249318   7.192  11.602   3.316
15827SOL     OW49319   1.679   1.880  14.249
15827SOL    HW149320   1.625   1.839  14.182
15827SOL    HW249321   1.729   1.947  14.202
15828SOL     OW49322  14.130   6.133   7.287
15828SOL    HW149323  14.140   6.046   7.326
15828SOL    HW249324  14.210   6.146   7.237
15829SOL     OW49325   5.421  13.463   5.381
15829SOL    HW149326   5.416  13.368   5.365
15829SOL    HW249327   5.496  13.473   5.439
15830SOL     OW49328   2.931   6.079  10.519
15830SOL    HW149329   2.899   5.989  10.513
15830SOL    HW249330   2.883   6.117  10.592
15831SOL     OW49331   2.161   7.775   8.827
15831SOL    HW149332   2.090   7.807   8.883
15831SOL    HW249333   2.190   7.694   8.869
15832SOL     OW49334  12.981   0.666  10.134
15832SOL    HW149335  13.016   0.737  10.080
15832SOL    HW249336  13.018   0.586  10.097
15833SOL     OW49337   4.762  10.896   7.897
15833SOL    HW149338   4.853  10.926   7.901
15833SOL    HW249339   4.711  10.972   7.925
15834SOL     OW49340   1.684   4.180   1.157
15834SOL    HW149341   1.710   4.265   1.121
15834SOL    HW249342   1.682   4.194   1.252
15835SOL     OW49343   7.468   3.215  13.203
15835SOL    HW149344   7.511   3.217  13.288
15835SOL    HW249345   7.404   3.144  13.211
15836SOL     OW49346   9.690   8.117  10.959
15836SOL    HW149347   9.663   8.029  10.935
15836SOL    HW249348   9.784   8.119  10.941
15837SOL     OW49349   8.013  10.710   1.883
15837SOL    HW149350   7.994  10.801   1.859
15837SOL    HW249351   7.934  10.662   1.857
15838SOL     OW49352   7.215   4.674  10.615
15838SOL    HW149353   7.135   4.653  10.567
15838SOL    HW249354   7.225   4.603  10.677
15839SOL     OW49355   9.769   9.572   2.230
15839SOL    HW149356   9.674   9.582   2.217
15839SOL    HW249357   9.792   9.645   2.287
15840SOL     OW49358  13.031   3.674   7.134
15840SOL    HW149359  13.072   3.750   7.176
15840SOL    HW249360  12.977   3.711   7.065
15841SOL     OW49361   3.330   9.877  12.515
15841SOL    HW149362   3.351   9.892  12.422
15841SOL    HW249363   3.298   9.961  12.546
15842SOL     OW49364  11.398   5.316   5.898
15842SOL    HW149365  11.453   5.354   5.967
15842SOL    HW249366  11.459   5.263   5.846
15843SOL     OW49367   0.782   4.753   6.576
15843SOL    HW149368   0.781   4.793   6.663
15843SOL    HW249369   0.847   4.683   6.583
15844SOL     OW49370  14.286   5.064   9.101
15844SOL    HW149371  14.305   5.053   9.008
15844SOL    HW249372  14.368   5.094   9.139
15845SOL     OW49373  13.353   4.640  13.701
15845SOL    HW149374  13.290   4.707  13.675
15845SOL    HW249375  13.314   4.557  13.673
15846SOL     OW49376   9.512  11.747   9.947
15846SOL    HW149377   9.467  11.831   9.948
15846SOL    HW249378   9.512  11.718  10.038
15847SOL     OW49379  12.482  11.162  14.802
15847SOL    HW149380  12.532  11.090  14.842
15847SOL    HW249381  12.453  11.126  14.718
15848SOL     OW49382  12.000  14.581   1.764
15848SOL    HW149383  11.937  14.508   1.764
15848SOL    HW249384  12.034  14.583   1.853
15849SOL     OW49385   7.776   8.145  10.988
15849SOL    HW149386   7.770   8.066  10.935
15849SOL    HW249387   7.750   8.117  11.076
15850SOL     OW49388   7.797  14.806  12.148
15850SOL    HW149389   7.760  14.739  12.206
15850SOL    HW249390   7.747  14.797  12.067
15851SOL     OW49391  12.175   7.344   1.880
15851SOL    HW149392  12.241   7.406   1.911
15851SOL    HW249393  12.105   7.399   1.846
15852SOL     OW49394  11.668  13.092   8.327
15852SOL    HW149395  11.719  13.038   8.388
15852SOL    HW249396  11.591  13.039   8.308
15853SOL     OW49397  12.926   9.766   2.368
15853SOL    HW149398  12.887   9.829   2.308
15853SOL    HW249399  12.869   9.768   2.446
15854SOL     OW49400   3.747   6.186  12.143
15854SOL    HW149401   3.807   6.252  12.108
15854SOL    HW249402   3.673   6.236  12.177
15855SOL     OW49403   5.576  11.795   5.784
15855SOL    HW149404   5.540  11.759   5.703
15855SOL    HW249405   5.671  11.795   5.769
15856SOL     OW49406  13.831   3.924   3.883
15856SOL    HW149407  13.810   3.988   3.814
15856SOL    HW249408  13.748   3.882   3.903
15857SOL     OW49409   2.761  10.396   5.439
15857SOL    HW149410   2.838  10.377   5.385
15857SOL    HW249411   2.687  10.365   5.387
15858SOL     OW49412   5.391   3.208  13.594
15858SOL    HW149413   5.301   3.191  13.565
15858SOL    HW249414   5.429   3.262  13.525
15859SOL     OW49415   0.848   1.167   9.700
15859SOL    HW149416   0.812   1.101   9.641
15859SOL    HW249417   0.943   1.157   9.692
15860SOL     OW49418   5.845   6.941   4.221
15860SOL    HW149419   5.928   6.900   4.196
15860SOL    HW249420   5.810   6.976   4.139
15861SOL     OW49421  13.372   5.668   3.589
15861SOL    HW149422  13.409   5.681   3.501
15861SOL    HW249423  13.375   5.573   3.602
15862SOL     OW49424  11.769   4.899   0.067
15862SOL    HW149425  11.737   4.816   0.101
15862SOL    HW249426  11.747   4.963   0.135
15863SOL     OW49427   6.584   3.316   9.670
15863SOL    HW149428   6.532   3.281   9.742
15863SOL    HW249429   6.524   3.317   9.595
15864SOL     OW49430   1.937   5.077   4.459
15864SOL    HW149431   1.844   5.086   4.438
15864SOL    HW249432   1.982   5.130   4.393
15865SOL     OW49433  11.282  14.266   4.375
15865SOL    HW149434  11.211  14.213   4.414
15865SOL    HW249435  11.346  14.275   4.446
15866SOL     OW49436  14.188   6.198   0.471
15866SOL    HW149437  14.162   6.198   0.563
15866SOL    HW249438  14.192   6.290   0.447
15867SOL     OW49439   4.625   7.437   3.299
15867SOL    HW149440   4.676   7.411   3.375
15867SOL    HW249441   4.686   7.487   3.245
15868SOL     OW49442  12.711  14.652  10.757
15868SOL    HW149443  12.648  14.612  10.697
15868SOL    HW249444  12.661  14.721  10.802
15869SOL     OW49445  12.360  14.745  14.803
15869SOL    HW149446  12.453  14.767  14.808
15869SOL    HW249447  12.316  14.829  14.796
15870SOL     OW49448   8.021   1.502  14.315
15870SOL    HW149449   7.993   1.583  14.357
15870SOL    HW249450   8.028   1.439  14.387
15871SOL     OW49451  13.472   5.313   1.882
15871SOL    HW149452  13.509   5.350   1.801
15871SOL    HW249453  13.546   5.269   1.924
15872SOL     OW49454   8.269   3.520   3.260
15872SOL    HW149455   8.335   3.492   3.323
15872SOL    HW249456   8.218   3.587   3.306
15873SOL     OW49457  13.307   5.973  13.775
15873SOL    HW149458  13.341   5.888  13.745
15873SOL    HW249459  13.340   6.036  13.710
15874SOL     OW49460  13.402   4.731   9.129
15874SOL    HW149461  13.392   4.677   9.050
15874SOL    HW249462  13.489   4.770   9.119
15875SOL     OW49463   1.771   4.278  12.734
15875SOL    HW149464   1.709   4.348  12.712
15875SOL    HW249465   1.751   4.208  12.672
15876SOL     OW49466  11.380   8.258   5.374
15876SOL    HW149467  11.319   8.332   5.384
15876SOL    HW249468  11.344   8.190   5.431
15877SOL     OW49469   8.279  13.053   4.700
15877SOL    HW149470   8.247  13.141   4.685
15877SOL    HW249471   8.208  13.009   4.746
15878SOL     OW49472  10.306   1.786   6.147
15878SOL    HW149473  10.230   1.836   6.178
15878SOL    HW249474  10.290   1.697   6.178
15879SOL     OW49475   1.169   8.985   6.268
15879SOL    HW149476   1.170   9.080   6.260
15879SOL    HW249477   1.245   8.955   6.217
15880SOL     OW49478   8.359  11.712   8.938
15880SOL    HW149479   8.385  11.621   8.949
15880SOL    HW249480   8.265  11.707   8.918
15881SOL     OW49481  13.654   7.364   4.717
15881SOL    HW149482  13.647   7.382   4.811
15881SOL    HW249483  13.602   7.433   4.675
15882SOL     OW49484  10.391  11.889   8.414
15882SOL    HW149485  10.346  11.859   8.492
15882SOL    HW249486  10.356  11.835   8.343
15883SOL     OW49487   0.208   2.778  10.772
15883SOL    HW149488   0.235   2.762  10.863
15883SOL    HW249489   0.134   2.838  10.780
15884SOL     OW49490   1.490   8.302   7.366
15884SOL    HW149491   1.504   8.211   7.339
15884SOL    HW249492   1.572   8.327   7.409
15885SOL     OW49493   2.883   5.226  11.284
15885SOL    HW149494   2.796   5.231  11.324
15885SOL    HW249495   2.929   5.158  11.334
15886SOL     OW49496   9.457   1.177  11.838
15886SOL    HW149497   9.381   1.178  11.780
15886SOL    HW249498   9.511   1.251  11.809
15887SOL     OW49499   2.848   6.064   5.377
15887SOL    HW149500   2.914   6.127   5.406
15887SOL    HW249501   2.796   6.046   5.455
15888SOL     OW49502   4.973   4.724   2.754
15888SOL    HW149503   4.916   4.648   2.756
15888SOL    HW249504   4.968   4.756   2.664
15889SOL     OW49505   4.352   4.526   5.959
15889SOL    HW149506   4.295   4.603   5.959
15889SOL    HW249507   4.358   4.501   5.867
15890SOL     OW49508  13.909  14.175   6.891
15890SOL    HW149509  13.829  14.136   6.928
15890SOL    HW249510  13.932  14.117   6.818
15891SOL     OW49511  11.429   5.123  10.896
15891SOL    HW149512  11.491   5.070  10.946
15891SOL    HW249513  11.418   5.076  10.813
15892SOL     OW49514   2.744  10.937   4.045
15892SOL    HW149515   2.758  10.856   4.094
15892SOL    HW249516   2.648  10.947   4.043
15893SOL     OW49517   2.796   8.758   5.547
15893SOL    HW149518   2.864   8.693   5.565
15893SOL    HW249519   2.841   8.842   5.548
15894SOL     OW49520  10.544  10.134   2.068
15894SOL    HW149521  10.543  10.229   2.054
15894SOL    HW249522  10.636  10.113   2.080
15895SOL     OW49523   5.203   8.740   7.695
15895SOL    HW149524   5.260   8.716   7.768
15895SOL    HW249525   5.124   8.689   7.708
15896SOL     OW49526   2.208  13.160   6.697
15896SOL    HW149527   2.162  13.219   6.637
15896SOL    HW249528   2.272  13.215   6.741
15897SOL     OW49529   2.644   8.045   5.433
15897SOL    HW149530   2.605   8.018   5.516
15897SOL    HW249531   2.722   7.990   5.423
15898SOL     OW49532   8.281  10.847   7.191
15898SOL    HW149533   8.277  10.810   7.103
15898SOL    HW249534   8.278  10.771   7.250
15899SOL     OW49535   6.228   3.424  10.948
15899SOL    HW149536   6.287   3.349  10.937
15899SOL    HW249537   6.286   3.500  10.945
15900SOL     OW49538  11.885   9.333   2.752
15900SOL    HW149539  11.932   9.273   2.695
15900SOL    HW249540  11.941   9.411   2.757
15901SOL     OW49541   8.548   5.241  13.292
15901SOL    HW149542   8.611   5.215  13.359
15901SOL    HW249543   8.582   5.323  13.257
15902SOL     OW49544   2.405   2.845   1.014
15902SOL    HW149545   2.331   2.902   0.998
15902SOL    HW249546   2.440   2.825   0.927
15903SOL     OW49547   1.244  13.690   1.362
15903SOL    HW149548   1.203  13.741   1.292
15903SOL    HW249549   1.264  13.754   1.430
15904SOL     OW49550   5.641   7.529   4.230
15904SOL    HW149551   5.709   7.472   4.264
15904SOL    HW249552   5.568   7.520   4.291
15905SOL     OW49553   0.545   1.903   5.351
15905SOL    HW149554   0.513   1.912   5.440
15905SOL    HW249555   0.466   1.906   5.296
15906SOL     OW49556  10.866   4.174  12.441
15906SOL    HW149557  10.865   4.104  12.375
15906SOL    HW249558  10.945   4.158  12.492
15907SOL     OW49559  11.407  13.898   2.078
15907SOL    HW149560  11.315  13.921   2.077
15907SOL    HW249561  11.453  13.980   2.063
15908SOL     OW49562   2.800   0.202   9.856
15908SOL    HW149563   2.744   0.130   9.826
15908SOL    HW249564   2.762   0.229   9.939
15909SOL     OW49565   3.831   5.038   5.867
15909SOL    HW149566   3.830   5.125   5.828
15909SOL    HW249567   3.901   4.992   5.821
15910SOL     OW49568   1.396  12.391   2.057
15910SOL    HW149569   1.321  12.429   2.010
15910SOL    HW249570   1.377  12.298   2.060
15911SOL     OW49571  10.575  13.874   0.075
15911SOL    HW149572  10.553  13.825  14.870
15911SOL    HW249573  10.628  13.947   0.045
15912SOL     OW49574  10.977   9.731  12.633
15912SOL    HW149575  10.953   9.760  12.721
15912SOL    HW249576  10.900   9.685  12.601
15913SOL     OW49577   3.366  10.288   7.582
15913SOL    HW149578   3.361  10.247   7.495
15913SOL    HW249579   3.367  10.214   7.643
15914SOL     OW49580  13.753  13.003   6.170
15914SOL    HW149581  13.792  12.960   6.246
15914SOL    HW249582  13.821  12.998   6.102
15915SOL     OW49583  12.650   0.751   5.778
15915SOL    HW149584  12.648   0.657   5.764
15915SOL    HW249585  12.677   0.788   5.694
15916SOL     OW49586  13.655   5.856  13.505
15916SOL    HW149587  13.690   5.784  13.452
15916SOL    HW249588  13.603   5.813  13.573
15917SOL     OW49589  13.306   4.815  10.659
15917SOL    HW149590  13.374   4.749  10.672
15917SOL    HW249591  13.238   4.792  10.723
15918SOL     OW49592   3.837   6.026  12.462
15918SOL    HW149593   3.914   6.078  12.440
15918SOL    HW249594   3.763   6.087  12.457
15919SOL     OW49595   7.504   6.352  11.047
15919SOL    HW149596   7.541   6.424  11.098
15919SOL    HW249597   7.509   6.277  11.106
15920SOL     OW49598   6.237  13.615   5.021
15920SOL    HW149599   6.142  13.623   5.028
15920SOL    HW249600   6.266  13.604   5.112
15921SOL     OW49601   8.066  13.769   7.449
15921SOL    HW149602   8.097  13.705   7.384
15921SOL    HW249603   8.095  13.733   7.533
15922SOL     OW49604   4.102  11.163   4.004
15922SOL    HW149605   4.095  11.068   3.992
15922SOL    HW249606   4.080  11.200   3.919
15923SOL     OW49607  10.249  10.471   0.778
15923SOL    HW149608  10.175  10.445   0.833
15923SOL    HW249609  10.210  10.484   0.691
15924SOL     OW49610  10.674   8.350  12.714
15924SOL    HW149611  10.757   8.395  12.731
15924SOL    HW249612  10.607   8.414  12.741
15925SOL     OW49613   1.020  13.677   2.779
15925SOL    HW149614   1.011  13.765   2.742
15925SOL    HW249615   0.990  13.685   2.869
15926SOL     OW49616   9.875   9.869   7.404
15926SOL    HW149617   9.852   9.955   7.370
15926SOL    HW249618   9.935   9.833   7.339
15927SOL     OW49619   2.954   3.319   0.220
15927SOL    HW149620   2.956   3.403   0.266
15927SOL    HW249621   2.911   3.337   0.137
15928SOL     OW49622  10.312   3.580   6.908
15928SOL    HW149623  10.225   3.556   6.877
15928SOL    HW249624  10.370   3.515   6.868
15929SOL     OW49625   9.468   0.498  14.448
15929SOL    HW149626   9.411   0.462  14.517
15929SOL    HW249627   9.433   0.462  14.367
15930SOL     OW49628   1.111   2.311   4.785
15930SOL    HW149629   1.202   2.317   4.756
15930SOL    HW249630   1.114   2.334   4.878
15931SOL     OW49631  12.422  10.370   8.390
15931SOL    HW149632  12.475  10.435   8.343
15931SOL    HW249633  12.405  10.302   8.326
15932SOL     OW49634  14.155   7.000  11.410
15932SOL    HW149635  14.091   6.964  11.472
15932SOL    HW249636  14.156   6.937  11.338
15933SOL     OW49637   6.426   3.324  11.650
15933SOL    HW149638   6.421   3.417  11.625
15933SOL    HW249639   6.478   3.324  11.730
15934SOL     OW49640  12.009   0.538   0.459
15934SOL    HW149641  12.050   0.471   0.514
15934SOL    HW249642  11.993   0.495   0.376
15935SOL     OW49643   4.181   8.598  11.799
15935SOL    HW149644   4.115   8.639  11.855
15935SOL    HW249645   4.236   8.547  11.859
15936SOL     OW49646  11.734  11.856   9.306
15936SOL    HW149647  11.744  11.761   9.307
15936SOL    HW249648  11.808  11.888   9.254
15937SOL     OW49649   9.317  14.102   8.034
15937SOL    HW149650   9.245  14.146   8.078
15937SOL    HW249651   9.379  14.080   8.104
15938SOL     OW49652   6.534  10.394  10.677
15938SOL    HW149653   6.495  10.314  10.641
15938SOL    HW249654   6.489  10.465  10.632
15939SOL     OW49655   0.051  13.237   0.038
15939SOL    HW149656   0.080  13.321   0.005
15939SOL    HW249657   0.018  13.255   0.126
15940SOL     OW49658   2.878   4.128  11.352
15940SOL    HW149659   2.913   4.217  11.342
15940SOL    HW249660   2.814   4.119  11.281
15941SOL     OW49661   0.370  12.321  14.759
15941SOL    HW149662   0.423  12.261  14.812
15941SOL    HW249663   0.387  12.294  14.669
15942SOL     OW49664   3.331   6.569   8.358
15942SOL    HW149665   3.391   6.616   8.416
15942SOL    HW249666   3.251   6.560   8.410
15943SOL     OW49667   7.232   1.707  11.387
15943SOL    HW149668   7.298   1.679  11.450
15943SOL    HW249669   7.150   1.669  11.418
15944SOL     OW49670   9.411  13.954   5.531
15944SOL    HW149671   9.499  13.918   5.517
15944SOL    HW249672   9.379  13.973   5.444
15945SOL     OW49673   6.146   4.919   0.067
15945SOL    HW149674   6.206   4.846   0.082
15945SOL    HW249675   6.187   4.993   0.112
15946SOL     OW49676   5.099   1.472  13.283
15946SOL    HW149677   5.065   1.489  13.195
15946SOL    HW249678   5.078   1.381  13.300
15947SOL     OW49679   5.491   5.397   5.669
15947SOL    HW149680   5.476   5.401   5.575
15947SOL    HW249681   5.416   5.348   5.704
15948SOL     OW49682   7.992  11.636   6.389
15948SOL    HW149683   7.940  11.586   6.452
15948SOL    HW249684   8.054  11.685   6.442
15949SOL     OW49685   5.341   4.483  12.627
15949SOL    HW149686   5.341   4.569  12.585
15949SOL    HW249687   5.283   4.492  12.703
15950SOL     OW49688  14.173   6.390   5.482
15950SOL    HW149689  14.142   6.480   5.483
15950SOL    HW249690  14.156   6.358   5.571
15951SOL     OW49691  14.497  12.885   4.299
15951SOL    HW149692  14.560  12.844   4.239
15951SOL    HW249693  14.477  12.817   4.363
15952SOL     OW49694  12.740   3.628  13.478
15952SOL    HW149695  12.676   3.655  13.411
15952SOL    HW249696  12.817   3.682  13.460
15953SOL     OW49697  12.334   8.277   6.646
15953SOL    HW149698  12.429   8.264   6.653
15953SOL    HW249699  12.316   8.271   6.553
15954SOL     OW49700   3.027   8.840  12.025
15954SOL    HW149701   3.013   8.909  11.960
15954SOL    HW249702   3.044   8.761  11.973
15955SOL     OW49703   7.749   0.081   9.010
15955SOL    HW149704   7.775   0.059   9.100
15955SOL    HW249705   7.760   0.175   9.005
15956SOL     OW49706  10.174   7.301   1.514
15956SOL    HW149707  10.158   7.240   1.442
15956SOL    HW249708  10.251   7.264   1.559
15957SOL     OW49709   2.485   0.958   0.253
15957SOL    HW149710   2.484   0.962   0.157
15957SOL    HW249711   2.497   0.865   0.273
15958SOL     OW49712   9.115   1.799  13.660
15958SOL    HW149713   9.140   1.708  13.677
15958SOL    HW249714   9.023   1.794  13.635
15959SOL     OW49715   5.740  11.221   2.650
15959SOL    HW149716   5.834  11.208   2.642
15959SOL    HW249717   5.730  11.283   2.722
15960SOL     OW49718   9.721   7.906   4.370
15960SOL    HW149719   9.632   7.873   4.357
15960SOL    HW249720   9.708   7.991   4.413
15961SOL     OW49721  11.288  14.137  13.511
15961SOL    HW149722  11.322  14.226  13.517
15961SOL    HW249723  11.365  14.081  13.525
15962SOL     OW49724   8.336   7.012  11.972
15962SOL    HW149725   8.343   7.106  11.984
15962SOL    HW249726   8.420   6.977  12.003
15963SOL     OW49727   5.615   7.729   6.550
15963SOL    HW149728   5.549   7.698   6.611
15963SOL    HW249729   5.641   7.650   6.502
15964SOL     OW49730  11.683   7.089   0.224
15964SOL    HW149731  11.713   7.014   0.276
15964SOL    HW249732  11.725   7.079   0.139
15965SOL     OW49733  12.771   8.399   4.090
15965SOL    HW149734  12.691   8.448   4.072
15965SOL    HW249735  12.741   8.311   4.113
15966SOL     OW49736  13.615  14.175   4.148
15966SOL    HW149737  13.543  14.175   4.085
15966SOL    HW249738  13.573  14.161   4.232
15967SOL     OW49739   8.168  12.697  12.240
15967SOL    HW149740   8.238  12.720  12.179
15967SOL    HW249741   8.190  12.744  12.320
15968SOL     OW49742   9.331  10.603  10.445
15968SOL    HW149743   9.386  10.528  10.424
15968SOL    HW249744   9.391  10.677  10.451
15969SOL     OW49745   1.943   6.844   0.866
15969SOL    HW149746   1.939   6.910   0.935
15969SOL    HW249747   1.901   6.885   0.791
15970SOL     OW49748   0.448   1.204  10.487
15970SOL    HW149749   0.510   1.162  10.547
15970SOL    HW249750   0.385   1.136  10.465
15971SOL     OW49751  10.404   4.112   8.861
15971SOL    HW149752  10.376   4.027   8.826
15971SOL    HW249753  10.403   4.170   8.785
15972SOL     OW49754   7.001   1.032   0.439
15972SOL    HW149755   7.046   0.979   0.373
15972SOL    HW249756   7.072   1.077   0.485
15973SOL     OW49757   8.113  13.069   9.344
15973SOL    HW149758   8.037  13.030   9.388
15973SOL    HW249759   8.188  13.045   9.398
15974SOL     OW49760   3.530   4.662  12.655
15974SOL    HW149761   3.482   4.688  12.733
15974SOL    HW249762   3.484   4.585  12.623
15975SOL     OW49763  13.250   1.055   1.890
15975SOL    HW149764  13.255   1.137   1.840
15975SOL    HW249765  13.209   0.993   1.829
15976SOL     OW49766  12.869   4.465   7.534
15976SOL    HW149767  12.964   4.452   7.544
15976SOL    HW249768  12.838   4.474   7.624
15977SOL     OW49769   3.972   6.148   6.416
15977SOL    HW149770   3.904   6.159   6.482
15977SOL    HW249771   3.927   6.112   6.340
15978SOL     OW49772  12.324   4.490   7.990
15978SOL    HW149773  12.304   4.445   8.072
15978SOL    HW249774  12.408   4.532   8.006
15979SOL     OW49775   9.209  14.589   9.855
15979SOL    HW149776   9.160  14.573   9.774
15979SOL    HW249777   9.275  14.654   9.831
15980SOL     OW49778   5.724  13.786  14.291
15980SOL    HW149779   5.681  13.741  14.363
15980SOL    HW249780   5.791  13.725  14.260
15981SOL     OW49781   6.574   9.409   3.417
15981SOL    HW149782   6.597   9.323   3.452
15981SOL    HW249783   6.500   9.437   3.471
15982SOL     OW49784   3.818  12.829  14.128
15982SOL    HW149785   3.870  12.798  14.202
15982SOL    HW249786   3.837  12.768  14.057
15983SOL     OW49787   9.137   0.510  13.715
15983SOL    HW149788   9.090   0.518  13.798
15983SOL    HW249789   9.163   0.418  13.711
15984SOL     OW49790   3.233  11.157   2.779
15984SOL    HW149791   3.168  11.136   2.846
15984SOL    HW249792   3.307  11.195   2.827
15985SOL     OW49793   1.092   6.643   6.754
15985SOL    HW149794   1.170   6.687   6.720
15985SOL    HW249795   1.046   6.711   6.805
15986SOL     OW49796   7.177   1.597  12.610
15986SOL    HW149797   7.261   1.642  12.608
15986SOL    HW249798   7.174   1.555  12.696
15987SOL     OW49799   7.836  14.718   2.324
15987SOL    HW149800   7.747  14.736   2.354
15987SOL    HW249801   7.853  14.786   2.259
15988SOL     OW49802   7.430   2.221   4.683
15988SOL    HW149803   7.495   2.252   4.619
15988SOL    HW249804   7.361   2.182   4.629
15989SOL     OW49805   4.594  10.804   2.486
15989SOL    HW149806   4.515  10.858   2.489
15989SOL    HW249807   4.609  10.790   2.392
15990SOL     OW49808   1.743  12.668   7.351
15990SOL    HW149809   1.772  12.744   7.301
15990SOL    HW249810   1.648  12.668   7.341
15991SOL     OW49811   6.529  12.937   1.797
15991SOL    HW149812   6.566  12.985   1.723
15991SOL    HW249813   6.582  12.858   1.804
15992SOL     OW49814   1.086  12.371   9.833
15992SOL    HW149815   1.104  12.464   9.849
15992SOL    HW249816   1.172  12.331   9.824
15993SOL     OW49817   7.851   1.924   7.727
15993SOL    HW149818   7.814   1.863   7.791
15993SOL    HW249819   7.780   1.940   7.665
15994SOL     OW49820   0.762   3.558   7.306
15994SOL    HW149821   0.727   3.500   7.373
15994SOL    HW249822   0.693   3.563   7.239
15995SOL     OW49823   3.890   4.144   6.690
15995SOL    HW149824   3.917   4.075   6.750
15995SOL    HW249825   3.973   4.183   6.661
15996SOL     OW49826   6.450   9.801   1.091
15996SOL    HW149827   6.405   9.718   1.107
15996SOL    HW249828   6.400   9.843   1.021
15997SOL     OW49829   7.250  10.778  14.110
15997SOL    HW149830   7.161  10.804  14.090
15997SOL    HW249831   7.304  10.823  14.044
15998SOL     OW49832   6.610  11.881   8.529
15998SOL    HW149833   6.680  11.944   8.512
15998SOL    HW249834   6.633  11.805   8.476
15999SOL     OW49835   3.479   5.346   9.553
15999SOL    HW149836   3.561   5.315   9.589
15999SOL    HW249837   3.418   5.347   9.627
16000SOL     OW49838   0.067   0.829  11.881
16000SOL    HW149839   0.111   0.858  11.961
16000SOL    HW249840   0.072   0.734  11.884
16001SOL     OW49841  10.933   8.703   6.766
16001SOL    HW149842  11.022   8.712   6.730
16001SOL    HW249843  10.930   8.766   6.838
16002SOL     OW49844   1.828   2.194   9.507
16002SOL    HW149845   1.855   2.115   9.553
16002SOL    HW249846   1.907   2.249   9.504
16003SOL     OW49847   3.065   4.629  13.452
16003SOL    HW149848   3.031   4.542  13.474
16003SOL    HW249849   3.148   4.634  13.499
16004SOL     OW49850   3.953   5.071  12.854
16004SOL    HW149851   3.925   5.055  12.764
16004SOL    HW249852   3.898   5.014  12.907
16005SOL     OW49853   8.394   7.995   3.603
16005SOL    HW149854   8.400   8.069   3.663
16005SOL    HW249855   8.412   8.031   3.517
16006SOL     OW49856   6.096   7.048  14.031
16006SOL    HW149857   6.095   6.954  14.047
16006SOL    HW249858   6.117   7.087  14.115
16007SOL     OW49859   3.343   6.625   0.530
16007SOL    HW149860   3.390   6.560   0.479
16007SOL    HW249861   3.366   6.606   0.621
16008SOL     OW49862   2.113   6.328  10.833
16008SOL    HW149863   2.094   6.330  10.739
16008SOL    HW249864   2.079   6.412  10.866
16009SOL     OW49865   7.328  13.339   3.586
16009SOL    HW149866   7.287  13.344   3.672
16009SOL    HW249867   7.280  13.403   3.533
16010SOL     OW49868   1.160  12.148   0.477
16010SOL    HW149869   1.212  12.134   0.556
16010SOL    HW249870   1.207  12.101   0.408
16011SOL     OW49871   7.144  13.544  14.248
16011SOL    HW149872   7.065  13.586  14.213
16011SOL    HW249873   7.114  13.460  14.283
16012SOL     OW49874   5.310   6.409   2.002
16012SOL    HW149875   5.222   6.431   1.972
16012SOL    HW249876   5.297   6.335   2.062
16013SOL     OW49877  11.060   7.408   7.011
16013SOL    HW149878  11.035   7.497   7.034
16013SOL    HW249879  10.977   7.363   6.995
16014SOL     OW49880  13.208   3.272  10.290
16014SOL    HW149881  13.163   3.187  10.285
16014SOL    HW249882  13.165   3.318  10.361
16015SOL     OW49883   6.262  10.988   2.015
16015SOL    HW149884   6.305  10.944   2.089
16015SOL    HW249885   6.291  10.939   1.938
16016SOL     OW49886   3.177   0.296  12.374
16016SOL    HW149887   3.144   0.361  12.436
16016SOL    HW249888   3.100   0.245  12.350
16017SOL     OW49889   4.842   4.169   6.381
16017SOL    HW149890   4.930   4.197   6.407
16017SOL    HW249891   4.786   4.243   6.403
16018SOL     OW49892   7.957  10.375  12.871
16018SOL    HW149893   7.947  10.355  12.778
16018SOL    HW249894   7.939  10.292  12.915
16019SOL     OW49895   7.042   2.445   0.937
16019SOL    HW149896   7.126   2.439   0.891
16019SOL    HW249897   6.980   2.471   0.870
16020SOL     OW49898  10.056   6.305   6.402
16020SOL    HW149899  10.008   6.250   6.464
16020SOL    HW249900  10.038   6.266   6.316
16021SOL     OW49901   3.918   9.038   9.320
16021SOL    HW149902   3.917   8.943   9.334
16021SOL    HW249903   3.827   9.065   9.331
16022SOL     OW49904   2.141   0.934  14.797
16022SOL    HW149905   2.051   0.902  14.802
16022SOL    HW249906   2.194   0.866  14.839
16023SOL     OW49907   3.725  12.706   9.084
16023SOL    HW149908   3.720  12.778   9.148
16023SOL    HW249909   3.641  12.662   9.092
16024SOL     OW49910   2.087  14.058   3.523
16024SOL    HW149911   1.992  14.046   3.521
16024SOL    HW249912   2.108  14.056   3.616
16025SOL     OW49913  10.419   1.228   2.576
16025SOL    HW149914  10.428   1.303   2.517
16025SOL    HW249915  10.414   1.266   2.663
16026SOL     OW49916   3.163  11.971   4.660
16026SOL    HW149917   3.109  11.895   4.639
16026SOL    HW249918   3.101  12.043   4.670
16027SOL     OW49919  11.666  11.076   9.198
16027SOL    HW149920  11.670  11.155   9.251
16027SOL    HW249921  11.643  11.107   9.111
16028SOL     OW49922   5.000   1.369  14.761
16028SOL    HW149923   5.002   1.325  14.676
16028SOL    HW249924   5.086   1.351  14.799
16029SOL     OW49925   9.751   9.450  12.540
16029SOL    HW149926   9.823   9.495  12.495
16029SOL    HW249927   9.717   9.515  12.602
16030SOL     OW49928   3.326  14.734   0.339
16030SOL    HW149929   3.372  14.810   0.374
16030SOL    HW249930   3.391  14.689   0.285
16031SOL     OW49931  10.596   0.649  12.717
16031SOL    HW149932  10.535   0.601  12.775
16031SOL    HW249933  10.682   0.631  12.754
16032SOL     OW49934  13.508  14.690   0.887
16032SOL    HW149935  13.534  14.623   0.950
16032SOL    HW249936  13.541  14.772   0.924
16033SOL     OW49937   0.514   5.098   4.867
16033SOL    HW149938   0.551   5.012   4.846
16033SOL    HW249939   0.566   5.128   4.942
16034SOL     OW49940   4.909  12.949   0.231
16034SOL    HW149941   4.957  13.031   0.241
16034SOL    HW249942   4.862  12.938   0.314
16035SOL     OW49943   3.599  10.614   0.069
16035SOL    HW149944   3.614  10.675  14.871
16035SOL    HW249945   3.544  10.662   0.130
16036SOL     OW49946   7.989  14.140  12.465
16036SOL    HW149947   7.929  14.118  12.535
16036SOL    HW249948   7.957  14.224  12.431
16037SOL     OW49949   0.256   7.497   5.924
16037SOL    HW149950   0.221   7.415   5.890
16037SOL    HW249951   0.191   7.563   5.899
16038SOL     OW49952  14.574   7.829   2.048
16038SOL    HW149953  14.507   7.889   2.082
16038SOL    HW249954  14.656   7.877   2.057
16039SOL     OW49955   6.936   6.956  12.901
16039SOL    HW149956   6.896   6.981  12.984
16039SOL    HW249957   7.030   6.969  12.915
16040SOL     OW49958  11.066   5.853  14.703
16040SOL    HW149959  11.089   5.930  14.756
16040SOL    HW249960  11.072   5.885  14.613
16041SOL     OW49961   4.354  10.997  14.058
16041SOL    HW149962   4.411  11.027  13.987
16041SOL    HW249963   4.409  11.000  14.136
16042SOL     OW49964  10.773   4.371   7.326
16042SOL    HW149965  10.840   4.437   7.344
16042SOL    HW249966  10.696   4.402   7.373
16043SOL     OW49967  12.398  12.457   1.377
16043SOL    HW149968  12.338  12.453   1.302
16043SOL    HW249969  12.440  12.542   1.369
16044SOL     OW49970   4.129   5.642  12.009
16044SOL    HW149971   4.173   5.700  11.947
16044SOL    HW249972   4.133   5.687  12.093
16045SOL     OW49973  10.340  12.887   7.445
16045SOL    HW149974  10.429  12.921   7.447
16045SOL    HW249975  10.342  12.812   7.505
16046SOL     OW49976   5.027  12.679   9.925
16046SOL    HW149977   5.103  12.630   9.894
16046SOL    HW249978   4.969  12.613   9.962
16047SOL     OW49979   5.302   3.642   7.098
16047SOL    HW149980   5.265   3.602   7.177
16047SOL    HW249981   5.379   3.589   7.079
16048SOL     OW49982  11.763  10.234   3.260
16048SOL    HW149983  11.855  10.252   3.240
16048SOL    HW249984  11.714  10.283   3.194
16049SOL     OW49985  13.284  13.798  13.630
16049SOL    HW149986  13.245  13.885  13.620
16049SOL    HW249987  13.244  13.746  13.560
16050SOL     OW49988   5.619   3.809   5.886
16050SOL    HW149989   5.565   3.735   5.912
16050SOL    HW249990   5.695   3.805   5.944
16051SOL     OW49991  10.617   2.803   0.650
16051SOL    HW149992  10.696   2.830   0.604
16051SOL    HW249993  10.546   2.848   0.604
16052SOL     OW49994   2.966   9.493   3.963
16052SOL    HW149995   2.940   9.446   4.042
16052SOL    HW249996   2.896   9.558   3.951
16053SOL     OW49997  14.475   9.869   0.907
16053SOL    HW149998  14.447   9.941   0.963
16053SOL    HW249999  14.555   9.837   0.948
16054SOL     OW50000   3.919  13.093   2.940
16054SOL    HW150001   3.948  13.098   2.849
16054SOL    HW250002   3.968  13.019   2.977
16055SOL     OW50003  10.666   4.763   2.656
16055SOL    HW150004  10.660   4.820   2.732
16055SOL    HW250005  10.623   4.812   2.585
16056SOL     OW50006   4.313  12.993   3.805
16056SOL    HW150007   4.285  13.055   3.737
16056SOL    HW250008   4.255  13.011   3.879
16057SOL     OW50009   7.923   5.347  13.015
16057SOL    HW150010   7.916   5.296  13.096
16057SOL    HW250011   7.906   5.438  13.042
16058SOL     OW50012   3.180   4.115   4.854
16058SOL    HW150013   3.091   4.096   4.884
16058SOL    HW250014   3.170   4.136   4.762
16059SOL     OW50015   3.381  12.330   7.925
16059SOL    HW150016   3.389  12.336   8.020
16059SOL    HW250017   3.296  12.288   7.911
16060SOL     OW50018   1.144   7.670   7.808
16060SOL    HW150019   1.131   7.663   7.714
16060SOL    HW250020   1.180   7.585   7.833
16061SOL     OW50021   8.608  11.468   0.413
16061SOL    HW150022   8.678  11.530   0.437
16061SOL    HW250023   8.621  11.452   0.320
16062SOL     OW50024  10.678   5.636   8.476
16062SOL    HW150025  10.640   5.571   8.418
16062SOL    HW250026  10.713   5.704   8.418
16063SOL     OW50027   2.113   5.644   8.230
16063SOL    HW150028   2.151   5.668   8.314
16063SOL    HW250029   2.020   5.665   8.238
16064SOL     OW50030  14.581   3.338   7.138
16064SOL    HW150031  14.616   3.395   7.207
16064SOL    HW250032  14.486   3.348   7.144
16065SOL     OW50033  12.538   6.432   9.234
16065SOL    HW150034  12.532   6.407   9.141
16065SOL    HW250035  12.511   6.523   9.236
16066SOL     OW50036   7.168   7.403  11.034
16066SOL    HW150037   7.073   7.399  11.042
16066SOL    HW250038   7.197   7.455  11.110
16067SOL     OW50039   4.362  12.522   7.962
16067SOL    HW150040   4.456  12.535   7.974
16067SOL    HW250041   4.322  12.604   7.993
16068SOL     OW50042   7.653   1.152  13.264
16068SOL    HW150043   7.648   1.058  13.283
16068SOL    HW250044   7.563   1.183  13.271
16069SOL     OW50045  14.443  10.135   4.141
16069SOL    HW150046  14.455  10.160   4.050
16069SOL    HW250047  14.408  10.213   4.184
16070SOL     OW50048  14.573   2.623   6.185
16070SOL    HW150049  14.505   2.690   6.180
16070SOL    HW250050  14.546   2.557   6.121
16071SOL     OW50051   0.536   9.578   2.256
16071SOL    HW150052   0.526   9.616   2.169
16071SOL    HW250053   0.486   9.497   2.253
16072SOL     OW50054   0.810   9.686   8.726
16072SOL    HW150055   0.881   9.730   8.678
16072SOL    HW250056   0.734   9.693   8.668
16073SOL     OW50057   6.151  11.065   6.866
16073SOL    HW150058   6.127  10.995   6.806
16073SOL    HW250059   6.221  11.112   6.821
16074SOL     OW50060   0.527   7.651  11.349
16074SOL    HW150061   0.442   7.697  11.352
16074SOL    HW250062   0.554   7.646  11.441
16075SOL     OW50063   2.093   6.482   2.542
16075SOL    HW150064   2.123   6.558   2.492
16075SOL    HW250065   1.999   6.497   2.555
16076SOL     OW50066   0.953   0.566   3.011
16076SOL    HW150067   0.990   0.477   3.009
16076SOL    HW250068   1.003   0.614   2.945
16077SOL     OW50069  14.561   9.660  14.737
16077SOL    HW150070  14.597   9.592  14.680
16077SOL    HW250071  14.546   9.735  14.678
16078SOL     OW50072   3.192   5.253  12.043
16078SOL    HW150073   3.209   5.341  12.077
16078SOL    HW250074   3.139   5.267  11.965
16079SOL     OW50075  13.107   3.627  13.524
16079SOL    HW150076  13.121   3.533  13.513
16079SOL    HW250077  13.113   3.642  13.619
16080SOL     OW50078   5.614  14.479   1.705
16080SOL    HW150079   5.699  14.442   1.681
16080SOL    HW250080   5.566  14.484   1.623
16081SOL     OW50081   4.537  11.966   0.533
16081SOL    HW150082   4.560  11.878   0.562
16081SOL    HW250083   4.495  12.006   0.609
16082SOL     OW50084   7.523   6.889  14.509
16082SOL    HW150085   7.432   6.893  14.539
16082SOL    HW250086   7.575   6.916  14.585
16083SOL     OW50087   2.585  12.581  12.419
16083SOL    HW150088   2.673  12.552  12.442
16083SOL    HW250089   2.598  12.666  12.377
16084SOL     OW50090  14.443   9.391   1.671
16084SOL    HW150091  14.454   9.395   1.576
16084SOL    HW250092  14.364   9.443   1.688
16085SOL     OW50093   4.240   3.063  11.056
16085SOL    HW150094   4.274   3.106  11.134
16085SOL    HW250095   4.148   3.045  11.077
16086SOL     OW50096   6.761   3.227  11.590
16086SOL    HW150097   6.749   3.216  11.685
16086SOL    HW250098   6.690   3.176  11.551
16087SOL     OW50099   4.247   9.585   0.720
16087SOL    HW150100   4.166   9.603   0.671
16087SOL    HW250101   4.313   9.641   0.679
16088SOL     OW50102  14.747   3.603   7.394
16088SOL    HW150103  14.766   3.693   7.418
16088SOL    HW250104  14.828   3.571   7.355
16089SOL     OW50105  14.108  13.015  12.036
16089SOL    HW150106  14.164  12.951  12.080
16089SOL    HW250107  14.128  13.004  11.943
16090SOL     OW50108   8.738   6.001  12.927
16090SOL    HW150109   8.735   6.011  12.832
16090SOL    HW250110   8.687   6.075  12.961
16091SOL     OW50111   5.523  13.337   3.211
16091SOL    HW150112   5.470  13.263   3.239
16091SOL    HW250113   5.560  13.310   3.127
16092SOL     OW50114   7.396   7.520   5.891
16092SOL    HW150115   7.367   7.611   5.893
16092SOL    HW250116   7.390   7.495   5.799
16093SOL     OW50117  13.306   7.060   2.838
16093SOL    HW150118  13.285   7.153   2.840
16093SOL    HW250119  13.384   7.053   2.893
16094SOL     OW50120  12.496   8.459  14.121
16094SOL    HW150121  12.505   8.524  14.191
16094SOL    HW250122  12.413   8.415  14.140
16095SOL     OW50123  10.234  13.809  10.303
16095SOL    HW150124  10.308  13.776  10.251
16095SOL    HW250125  10.243  13.904  10.299
16096SOL     OW50126   6.132   8.152   4.185
16096SOL    HW150127   6.176   8.139   4.269
16096SOL    HW250128   6.122   8.063   4.150
16097SOL     OW50129   4.135  12.141  13.851
16097SOL    HW150130   4.056  12.131  13.903
16097SOL    HW250131   4.107  12.188  13.772
16098SOL     OW50132   8.027  11.168   0.121
16098SOL    HW150133   8.035  11.210   0.035
16098SOL    HW250134   8.042  11.240   0.184
16099SOL     OW50135  12.212   2.264  10.795
16099SOL    HW150136  12.143   2.301  10.740
16099SOL    HW250137  12.190   2.171  10.802
16100SOL     OW50138  11.197   2.880   7.737
16100SOL    HW150139  11.187   2.869   7.832
16100SOL    HW250140  11.288   2.908   7.726
16101SOL     OW50141   0.865   4.608  13.962
16101SOL    HW150142   0.868   4.634  13.870
16101SOL    HW250143   0.805   4.671  14.003
16102SOL     OW50144   9.928   5.901  10.868
16102SOL    HW150145   9.917   5.949  10.786
16102SOL    HW250146   9.859   5.934  10.926
16103SOL     OW50147  10.361   7.064  11.749
16103SOL    HW150148  10.351   7.116  11.829
16103SOL    HW250149  10.279   7.014  11.743
16104SOL     OW50150   3.200  11.361   2.371
16104SOL    HW150151   3.246  11.383   2.452
16104SOL    HW250152   3.207  11.440   2.317
16105SOL     OW50153   3.166   6.593  10.809
16105SOL    HW150154   3.142   6.555  10.894
16105SOL    HW250155   3.115   6.673  10.803
16106SOL     OW50156  11.755  13.568  11.649
16106SOL    HW150157  11.770  13.505  11.718
16106SOL    HW250158  11.801  13.533  11.573
16107SOL     OW50159   8.375   4.392  14.201
16107SOL    HW150160   8.296   4.354  14.240
16107SOL    HW250161   8.446   4.366  14.260
16108SOL     OW50162   5.978  13.282  11.869
16108SOL    HW150163   5.909  13.278  11.936
16108SOL    HW250164   5.937  13.244  11.791
16109SOL     OW50165  12.061   0.825   1.900
16109SOL    HW150166  11.967   0.832   1.881
16109SOL    HW250167  12.070   0.859   1.989
16110SOL     OW50168  11.863   7.593  12.706
16110SOL    HW150169  11.788   7.573  12.650
16110SOL    HW250170  11.868   7.689  12.706
16111SOL     OW50171   8.134  13.827  10.776
16111SOL    HW150172   8.166  13.750  10.729
16111SOL    HW250173   8.195  13.897  10.752
16112SOL     OW50174  11.038  11.574  12.795
16112SOL    HW150175  11.122  11.619  12.803
16112SOL    HW250176  11.044  11.502  12.857
16113SOL     OW50177   1.929   4.662   7.041
16113SOL    HW150178   2.008   4.693   7.085
16113SOL    HW250179   1.933   4.701   6.954
16114SOL     OW50180   2.810   2.507   7.884
16114SOL    HW150181   2.757   2.442   7.838
16114SOL    HW250182   2.772   2.510   7.972
16115SOL     OW50183  13.605   7.898   1.373
16115SOL    HW150184  13.682   7.846   1.350
16115SOL    HW250185  13.535   7.862   1.319
16116SOL     OW50186  13.528   3.831   4.118
16116SOL    HW150187  13.439   3.808   4.091
16116SOL    HW250188  13.552   3.904   4.061
16117SOL     OW50189   7.543   9.802  10.571
16117SOL    HW150190   7.554   9.710  10.546
16117SOL    HW250191   7.455   9.807  10.608
16118SOL     OW50192   5.257   3.049   7.346
16118SOL    HW150193   5.266   2.955   7.363
16118SOL    HW250194   5.166   3.059   7.317
16119SOL     OW50195   5.415  10.074  10.679
16119SOL    HW150196   5.491  10.123  10.709
16119SOL    HW250197   5.443   9.982  10.679
16120SOL     OW50198   6.067   4.822  11.758
16120SOL    HW150199   6.054   4.754  11.692
16120SOL    HW250200   6.019   4.791  11.834
16121SOL     OW50201   7.367  12.469   6.883
16121SOL    HW150202   7.365  12.520   6.803
16121SOL    HW250203   7.311  12.393   6.865
16122SOL     OW50204  12.589   3.912   3.969
16122SOL    HW150205  12.522   3.960   4.018
16122SOL    HW250206  12.543   3.878   3.892
16123SOL     OW50207   0.293  13.223  10.334
16123SOL    HW150208   0.314  13.148  10.390
16123SOL    HW250209   0.216  13.195  10.285
16124SOL     OW50210   4.437   9.024   2.360
16124SOL    HW150211   4.416   9.111   2.326
16124SOL    HW250212   4.444   9.035   2.454
16125SOL     OW50213   1.125  12.175   6.267
16125SOL    HW150214   1.161  12.140   6.186
16125SOL    HW250215   1.191  12.237   6.298
16126SOL     OW50216  11.095   8.450   8.126
16126SOL    HW150217  11.128   8.412   8.044
16126SOL    HW250218  11.131   8.538   8.127
16127SOL     OW50219  10.361  12.035   5.545
16127SOL    HW150220  10.347  12.010   5.454
16127SOL    HW250221  10.393  12.125   5.541
16128SOL     OW50222  10.764   4.828   0.854
16128SOL    HW150223  10.785   4.741   0.887
16128SOL    HW250224  10.715   4.812   0.774
16129SOL     OW50225   4.305   3.536   0.902
16129SOL    HW150226   4.382   3.582   0.935
16129SOL    HW250227   4.256   3.511   0.981
16130SOL     OW50228   7.461  11.470   6.993
16130SOL    HW150229   7.407  11.537   7.036
16130SOL    HW250230   7.424  11.387   7.021
16131SOL     OW50231   8.821   7.923   4.073
16131SOL    HW150232   8.797   7.886   3.988
16131SOL    HW250233   8.750   7.896   4.131
16132SOL     OW50234  13.556   8.423  10.316
16132SOL    HW150235  13.561   8.454  10.407
16132SOL    HW250236  13.535   8.330  10.323
16133SOL     OW50237   9.988   3.890   4.739
16133SOL    HW150238   9.979   3.888   4.834
16133SOL    HW250239   9.965   3.979   4.714
16134SOL     OW50240   1.781  14.264   4.534
16134SOL    HW150241   1.748  14.194   4.478
16134SOL    HW250242   1.742  14.344   4.498
16135SOL     OW50243   4.915  11.401   6.258
16135SOL    HW150244   4.969  11.478   6.239
16135SOL    HW250245   4.936  11.339   6.188
16136SOL     OW50246  12.230   5.532  11.071
16136SOL    HW150247  12.137   5.510  11.078
16136SOL    HW250248  12.244   5.600  11.136
16137SOL     OW50249   5.802   0.991   0.190
16137SOL    HW150250   5.789   0.912   0.138
16137SOL    HW250251   5.770   0.969   0.277
16138SOL     OW50252  14.742   9.937   0.040
16138SOL    HW150253  14.701  10.022   0.021
16138SOL    HW250254  14.769   9.944   0.132
16139SOL     OW50255   8.789  12.383  11.699
16139SOL    HW150256   8.772  12.429  11.782
16139SOL    HW250257   8.873  12.419  11.669
16140SOL     OW50258  11.460  13.695   9.646
16140SOL    HW150259  11.518  13.619   9.656
16140SOL    HW250260  11.516  13.763   9.608
16141SOL     OW50261  12.216   6.373   4.793
16141SOL    HW150262  12.289   6.314   4.812
16141SOL    HW250263  12.138   6.323   4.817
16142SOL     OW50264   5.053  12.964   1.608
16142SOL    HW150265   5.029  13.029   1.541
16142SOL    HW250266   5.104  12.899   1.560
16143SOL     OW50267   7.617   6.522   9.004
16143SOL    HW150268   7.589   6.556   8.919
16143SOL    HW250269   7.541   6.533   9.061
16144SOL     OW50270   3.822   4.937  14.723
16144SOL    HW150271   3.825   5.032  14.711
16144SOL    HW250272   3.845   4.902  14.637
16145SOL     OW50273   8.976   4.541  10.906
16145SOL    HW150274   8.895   4.569  10.948
16145SOL    HW250275   9.033   4.515  10.978
16146SOL     OW50276   9.789   9.803   1.339
16146SOL    HW150277   9.881   9.827   1.350
16146SOL    HW250278   9.751   9.876   1.291
16147SOL     OW50279   8.984   7.761  12.610
16147SOL    HW150280   9.010   7.693  12.673
16147SOL    HW250281   9.064   7.784  12.564
16148SOL     OW50282   3.004   0.082   3.707
16148SOL    HW150283   3.089   0.064   3.747
16148SOL    HW250284   2.965  14.870   3.696
16149SOL     OW50285   9.580  12.135  10.613
16149SOL    HW150286   9.644  12.067  10.594
16149SOL    HW250287   9.604  12.167  10.700
16150SOL     OW50288   5.336   9.101   0.308
16150SOL    HW150289   5.315   9.125   0.218
16150SOL    HW250290   5.338   9.184   0.356
16151SOL     OW50291  11.588   3.994  13.493
16151SOL    HW150292  11.553   3.943  13.420
16151SOL    HW250293  11.666   4.037  13.457
16152SOL     OW50294  12.322   9.727   6.040
16152SOL    HW150295  12.234   9.764   6.033
16152SOL    HW250296  12.381   9.803   6.039
16153SOL     OW50297  12.514  10.808  11.748
16153SOL    HW150298  12.443  10.862  11.712
16153SOL    HW250299  12.473  10.761  11.821
16154SOL     OW50300  13.871   8.043   1.713
16154SOL    HW150301  13.873   8.086   1.798
16154SOL    HW250302  13.953   7.994   1.709
16155SOL     OW50303   0.405   8.917   0.788
16155SOL    HW150304   0.317   8.897   0.756
16155SOL    HW250305   0.391   8.954   0.875
16156SOL     OW50306  13.529  13.014  10.095
16156SOL    HW150307  13.490  13.038  10.178
16156SOL    HW250308  13.528  12.918  10.094
16157SOL     OW50309   1.176   4.121   2.243
16157SOL    HW150310   1.162   4.087   2.155
16157SOL    HW250311   1.093   4.107   2.289
16158SOL     OW50312  13.454   8.563  11.994
16158SOL    HW150313  13.518   8.537  12.061
16158SOL    HW250314  13.386   8.608  12.043
16159SOL     OW50315   8.025   0.499  14.220
16159SOL    HW150316   8.120   0.500  14.232
16159SOL    HW250317   8.009   0.424  14.163
16160SOL     OW50318   9.232   3.651  12.170
16160SOL    HW150319   9.260   3.641  12.079
16160SOL    HW250320   9.147   3.607  12.174
16161SOL     OW50321   2.947  10.878  13.479
16161SOL    HW150322   3.012  10.849  13.543
16161SOL    HW250323   2.967  10.829  13.400
16162SOL     OW50324   7.470  12.621   2.523
16162SOL    HW150325   7.514  12.562   2.584
16162SOL    HW250326   7.388  12.577   2.502
16163SOL     OW50327   2.611  11.785   9.134
16163SOL    HW150328   2.690  11.833   9.109
16163SOL    HW250329   2.643  11.707   9.179
16164SOL     OW50330   6.357  12.053   7.940
16164SOL    HW150331   6.295  11.997   7.894
16164SOL    HW250332   6.356  12.020   8.030
16165SOL     OW50333  10.190   8.339   4.904
16165SOL    HW150334  10.099   8.312   4.917
16165SOL    HW250335  10.216   8.298   4.821
16166SOL     OW50336   3.931   4.708   3.840
16166SOL    HW150337   3.856   4.649   3.852
16166SOL    HW250338   4.007   4.650   3.845
16167SOL     OW50339   8.676   4.569   3.746
16167SOL    HW150340   8.729   4.494   3.718
16167SOL    HW250341   8.739   4.638   3.764
16168SOL     OW50342  13.541  13.938   2.491
16168SOL    HW150343  13.480  13.882   2.443
16168SOL    HW250344  13.620  13.885   2.500
16169SOL     OW50345   5.928   2.358  12.055
16169SOL    HW150346   5.931   2.314  11.971
16169SOL    HW250347   6.013   2.339  12.095
16170SOL     OW50348  12.615   2.578   6.375
16170SOL    HW150349  12.603   2.646   6.308
16170SOL    HW250350  12.708   2.556   6.371
16171SOL     OW50351   7.139  12.420   5.833
16171SOL    HW150352   7.206  12.409   5.901
16171SOL    HW250353   7.063  12.454   5.880
16172SOL     OW50354  10.794   7.419  14.786
16172SOL    HW150355  10.888   7.401  14.787
16172SOL    HW250356  10.787   7.513  14.806
16173SOL     OW50357   9.498   7.202   0.682
16173SOL    HW150358   9.475   7.285   0.638
16173SOL    HW250359   9.497   7.137   0.612
16174SOL     OW50360  10.393  13.944   9.217
16174SOL    HW150361  10.307  13.905   9.208
16174SOL    HW250362  10.379  14.023   9.270
16175SOL     OW50363   4.754   0.721   6.010
16175SOL    HW150364   4.820   0.714   6.079
16175SOL    HW250365   4.736   0.631   5.985
16176SOL     OW50366   9.632   5.832  11.961
16176SOL    HW150367   9.661   5.911  12.007
16176SOL    HW250368   9.567   5.863  11.899
16177SOL     OW50369   2.762   9.125   7.981
16177SOL    HW150370   2.674   9.108   8.014
16177SOL    HW250371   2.796   9.194   8.038
16178SOL     OW50372   5.378  12.753  10.355
16178SOL    HW150373   5.395  12.733  10.263
16178SOL    HW250374   5.448  12.814  10.379
16179SOL     OW50375   9.500   2.491   7.162
16179SOL    HW150376   9.463   2.442   7.088
16179SOL    HW250377   9.475   2.582   7.145
16180SOL     OW50378  12.429   2.279   7.392
16180SOL    HW150379  12.397   2.358   7.350
16180SOL    HW250380  12.356   2.217   7.387
16181SOL     OW50381   9.694  12.523   4.046
16181SOL    HW150382   9.719  12.476   4.125
16181SOL    HW250383   9.777  12.556   4.010
16182SOL     OW50384  13.228   6.316   7.643
16182SOL    HW150385  13.172   6.333   7.719
16182SOL    HW250386  13.166   6.298   7.571
16183SOL     OW50387   8.304   0.813   7.102
16183SOL    HW150388   8.344   0.886   7.054
16183SOL    HW250389   8.226   0.852   7.143
16184SOL     OW50390  11.015   4.195   0.570
16184SOL    HW150391  10.973   4.108   0.568
16184SOL    HW250392  11.101   4.179   0.607
16185SOL     OW50393   8.312   5.727   5.546
16185SOL    HW150394   8.306   5.716   5.641
16185SOL    HW250395   8.404   5.710   5.525
16186SOL     OW50396   1.925   5.971   9.467
16186SOL    HW150397   1.847   5.916   9.455
16186SOL    HW250398   1.998   5.915   9.439
16187SOL     OW50399   8.207   1.195  14.389
16187SOL    HW150400   8.172   1.111  14.361
16187SOL    HW250401   8.297   1.196  14.356
16188SOL     OW50402   8.831   6.726   4.976
16188SOL    HW150403   8.883   6.793   5.021
16188SOL    HW250404   8.893   6.683   4.916
16189SOL     OW50405   7.161  12.119  14.339
16189SOL    HW150406   7.149  12.120  14.434
16189SOL    HW250407   7.252  12.092  14.327
16190SOL     OW50408   5.485  13.745  10.446
16190SOL    HW150409   5.543  13.776  10.515
16190SOL    HW250410   5.422  13.816  10.432
16191SOL     OW50411  11.337  13.204   5.470
16191SOL    HW150412  11.321  13.233   5.380
16191SOL    HW250413  11.370  13.115   5.460
16192SOL     OW50414  13.998   4.006   1.140
16192SOL    HW150415  13.914   4.022   1.183
16192SOL    HW250416  14.032   3.928   1.183
16193SOL     OW50417   1.715   4.210   5.685
16193SOL    HW150418   1.773   4.151   5.732
16193SOL    HW250419   1.770   4.283   5.657
16194SOL     OW50420   7.793   3.936   6.487
16194SOL    HW150421   7.854   4.008   6.471
16194SOL    HW250422   7.850   3.863   6.512
16195SOL     OW50423  14.082   6.134   2.296
16195SOL    HW150424  14.067   6.042   2.320
16195SOL    HW250425  14.063   6.183   2.376
16196SOL     OW50426   5.797   4.073  13.455
16196SOL    HW150427   5.874   4.127  13.472
16196SOL    HW250428   5.765   4.102  13.370
16197SOL     OW50429   8.809   2.582   4.956
16197SOL    HW150430   8.817   2.526   4.879
16197SOL    HW250431   8.893   2.629   4.960
16198SOL     OW50432   5.574   7.452  11.225
16198SOL    HW150433   5.541   7.486  11.143
16198SOL    HW250434   5.521   7.374  11.242
16199SOL     OW50435  11.020   7.474  10.454
16199SOL    HW150436  11.097   7.430  10.491
16199SOL    HW250437  11.052   7.560  10.427
16200SOL     OW50438  10.057   5.356   9.704
16200SOL    HW150439  10.115   5.325   9.634
16200SOL    HW250440  10.117   5.384   9.773
16201SOL     OW50441   2.360   3.472  10.898
16201SOL    HW150442   2.447   3.469  10.859
16201SOL    HW250443   2.302   3.500  10.826
16202SOL     OW50444   5.554   7.921   7.935
16202SOL    HW150445   5.510   7.947   7.854
16202SOL    HW250446   5.491   7.863   7.978
16203SOL     OW50447   8.572  11.234   1.580
16203SOL    HW150448   8.615  11.245   1.665
16203SOL    HW250449   8.489  11.192   1.600
16204SOL     OW50450  14.619   1.756   8.032
16204SOL    HW150451  14.631   1.788   8.121
16204SOL    HW250452  14.616   1.836   7.978
16205SOL     OW50453  12.536  11.927   1.513
16205SOL    HW150454  12.623  11.938   1.552
16205SOL    HW250455  12.476  11.970   1.574
16206SOL     OW50456   1.455   9.576   1.885
16206SOL    HW150457   1.420   9.532   1.963
16206SOL    HW250458   1.526   9.631   1.918
16207SOL     OW50459  13.647   8.566   3.775
16207SOL    HW150460  13.649   8.535   3.684
16207SOL    HW250461  13.639   8.661   3.768
16208SOL     OW50462   1.249   5.993   7.409
16208SOL    HW150463   1.201   5.937   7.348
16208SOL    HW250464   1.186   6.013   7.479
16209SOL     OW50465   8.221   9.085   9.988
16209SOL    HW150466   8.145   9.134   9.957
16209SOL    HW250467   8.267   9.057   9.909
16210SOL     OW50468  13.293   2.786   1.228
16210SOL    HW150469  13.344   2.753   1.154
16210SOL    HW250470  13.275   2.877   1.205
16211SOL     OW50471  14.136  10.650   2.390
16211SOL    HW150472  14.042  10.669   2.390
16211SOL    HW250473  14.176  10.726   2.432
16212SOL     OW50474   1.206   2.577   4.516
16212SOL    HW150475   1.151   2.512   4.472
16212SOL    HW250476   1.154   2.605   4.591
16213SOL     OW50477   2.453   3.534   2.600
16213SOL    HW150478   2.468   3.626   2.624
16213SOL    HW250479   2.385   3.504   2.660
16214SOL     OW50480   6.844   3.482  14.441
16214SOL    HW150481   6.796   3.565  14.449
16214SOL    HW250482   6.934   3.509  14.421
16215SOL     OW50483   2.692   4.753  10.488
16215SOL    HW150484   2.762   4.818  10.498
16215SOL    HW250485   2.638   4.763  10.567
16216SOL     OW50486  10.450   6.683   9.512
16216SOL    HW150487  10.501   6.621   9.459
16216SOL    HW250488  10.502   6.764   9.509
16217SOL     OW50489   9.437  13.474   9.383
16217SOL    HW150490   9.386  13.459   9.304
16217SOL    HW250491   9.429  13.393   9.432
16218SOL     OW50492  13.116   1.575   2.458
16218SOL    HW150493  13.080   1.491   2.431
16218SOL    HW250494  13.050   1.639   2.430
16219SOL     OW50495  10.347   0.776   6.950
16219SOL    HW150496  10.393   0.790   7.032
16219SOL    HW250497  10.267   0.829   6.957
16220SOL     OW50498  13.665  13.992  14.808
16220SOL    HW150499  13.681  13.939   0.012
16220SOL    HW250500  13.750  13.998  14.765
16221SOL     OW50501   7.179  14.101   8.774
16221SOL    HW150502   7.210  14.016   8.805
16221SOL    HW250503   7.084  14.098   8.785
16222SOL     OW50504   3.957   6.698   2.893
16222SOL    HW150505   3.953   6.700   2.989
16222SOL    HW250506   3.866   6.683   2.865
16223SOL     OW50507   9.630   8.221  14.114
16223SOL    HW150508   9.594   8.133  14.124
16223SOL    HW250509   9.576   8.262  14.047
16224SOL     OW50510   9.386  12.382   0.655
16224SOL    HW150511   9.446  12.456   0.669
16224SOL    HW250512   9.410  12.319   0.723
16225SOL     OW50513   8.716   5.371   7.733
16225SOL    HW150514   8.697   5.278   7.739
16225SOL    HW250515   8.798   5.383   7.780
16226SOL     OW50516  10.304  13.417  14.243
16226SOL    HW150517  10.320  13.331  14.206
16226SOL    HW250518  10.288  13.401  14.336
16227SOL     OW50519  12.233   3.831  12.829
16227SOL    HW150520  12.231   3.879  12.746
16227SOL    HW250521  12.297   3.879  12.882
16228SOL     OW50522   2.319   2.444   1.897
16228SOL    HW150523   2.399   2.456   1.949
16228SOL    HW250524   2.249   2.434   1.962
16229SOL     OW50525   8.447   0.456  12.627
16229SOL    HW150526   8.405   0.442  12.542
16229SOL    HW250527   8.508   0.529  12.612
16230SOL     OW50528  13.832   2.788   8.833
16230SOL    HW150529  13.855   2.842   8.757
16230SOL    HW250530  13.773   2.842   8.885
16231SOL     OW50531  12.066  12.179  12.161
16231SOL    HW150532  12.036  12.108  12.105
16231SOL    HW250533  12.011  12.173  12.239
16232SOL     OW50534   7.839   4.804  14.216
16232SOL    HW150535   7.748   4.812  14.246
16232SOL    HW250536   7.867   4.719  14.249
16233SOL     OW50537   4.964   0.900   2.451
16233SOL    HW150538   4.904   0.893   2.525
16233SOL    HW250539   5.041   0.849   2.478
16234SOL     OW50540  13.099   0.753   7.583
16234SOL    HW150541  13.090   0.681   7.520
16234SOL    HW250542  13.078   0.831   7.533
16235SOL     OW50543   4.487   0.975  11.070
16235SOL    HW150544   4.487   0.905  11.004
16235SOL    HW250545   4.578   0.978  11.100
16236SOL     OW50546  12.289   1.442   2.362
16236SOL    HW150547  12.355   1.475   2.421
16236SOL    HW250548  12.268   1.515   2.304
16237SOL     OW50549   1.897   1.495  11.092
16237SOL    HW150550   1.920   1.411  11.053
16237SOL    HW250551   1.803   1.505  11.077
16238SOL     OW50552  13.419   6.212  12.408
16238SOL    HW150553  13.374   6.279  12.459
16238SOL    HW250554  13.456   6.152  12.473
16239SOL     OW50555  11.949  12.231   0.737
16239SOL    HW150556  11.870  12.279   0.764
16239SOL    HW250557  11.919  12.141   0.726
16240SOL     OW50558   6.906  11.535   9.905
16240SOL    HW150559   6.907  11.562   9.813
16240SOL    HW250560   6.903  11.617   9.954
16241SOL     OW50561  10.675   1.207  13.937
16241SOL    HW150562  10.633   1.276  13.886
16241SOL    HW250563  10.768   1.216  13.917
16242SOL     OW50564  14.317   3.295   3.404
16242SOL    HW150565  14.323   3.376   3.355
16242SOL    HW250566  14.317   3.322   3.496
16243SOL     OW50567   0.921  10.982   9.097
16243SOL    HW150568   0.850  10.918   9.085
16243SOL    HW250569   0.911  11.011   9.188
16244SOL     OW50570  11.633  14.768  10.591
16244SOL    HW150571  11.578  14.698  10.628
16244SOL    HW250572  11.676  14.727  10.516
16245SOL     OW50573  12.381   9.155   7.800
16245SOL    HW150574  12.316   9.086   7.813
16245SOL    HW250575  12.462   9.119   7.836
16246SOL     OW50576   2.397   4.917   9.007
16246SOL    HW150577   2.445   4.922   8.924
16246SOL    HW250578   2.460   4.879   9.068
16247SOL     OW50579   6.309   2.144   6.020
16247SOL    HW150580   6.297   2.120   6.112
16247SOL    HW250581   6.401   2.125   6.003
16248SOL     OW50582   7.709   1.522   4.850
16248SOL    HW150583   7.729   1.599   4.903
16248SOL    HW250584   7.787   1.467   4.859
16249SOL     OW50585  14.351   6.611   5.276
16249SOL    HW150586  14.340   6.537   5.216
16249SOL    HW250587  14.285   6.674   5.251
16250SOL     OW50588   4.122   6.333   1.215
16250SOL    HW150589   4.062   6.408   1.218
16250SOL    HW250590   4.178   6.351   1.139
16251SOL     OW50591   2.570   4.834   2.058
16251SOL    HW150592   2.615   4.851   2.140
16251SOL    HW250593   2.562   4.919   2.016
16252SOL     OW50594   7.405   6.749   8.830
16252SOL    HW150595   7.341   6.678   8.818
16252SOL    HW250596   7.406   6.764   8.925
16253SOL     OW50597   4.843   4.832   5.691
16253SOL    HW150598   4.903   4.822   5.617
16253SOL    HW250599   4.853   4.924   5.718
16254SOL     OW50600   3.435   5.774   4.103
16254SOL    HW150601   3.396   5.700   4.058
16254SOL    HW250602   3.523   5.745   4.127
16255SOL     OW50603   3.960   1.167   9.161
16255SOL    HW150604   4.026   1.098   9.168
16255SOL    HW250605   3.930   1.163   9.070
16256SOL     OW50606   4.358   8.902  14.419
16256SOL    HW150607   4.412   8.974  14.449
16256SOL    HW250608   4.276   8.943  14.391
16257SOL     OW50609  14.512   8.283  10.734
16257SOL    HW150610  14.604   8.262  10.747
16257SOL    HW250611  14.482   8.219  10.670
16258SOL     OW50612  14.140   7.660   6.371
16258SOL    HW150613  14.093   7.715   6.434
16258SOL    HW250614  14.137   7.710   6.290
16259SOL     OW50615   2.486   3.788  10.446
16259SOL    HW150616   2.486   3.693  10.454
16259SOL    HW250617   2.400   3.808  10.409
16260SOL     OW50618  12.120   2.819   1.665
16260SOL    HW150619  12.195   2.792   1.719
16260SOL    HW250620  12.045   2.776   1.705
16261SOL     OW50621   6.846   4.617   8.464
16261SOL    HW150622   6.924   4.612   8.519
16261SOL    HW250623   6.865   4.689   8.403
16262SOL     OW50624   3.847  14.132   1.327
16262SOL    HW150625   3.809  14.219   1.336
16262SOL    HW250626   3.865  14.104   1.417
16263SOL     OW50627   6.649   6.830   9.710
16263SOL    HW150628   6.723   6.888   9.691
16263SOL    HW250629   6.574   6.890   9.714
16264SOL     OW50630   4.241   7.323  10.142
16264SOL    HW150631   4.302   7.303  10.214
16264SOL    HW250632   4.167   7.367  10.184
16265SOL     OW50633   6.983  11.861   2.815
16265SOL    HW150634   6.898  11.900   2.797
16265SOL    HW250635   6.987  11.785   2.757
16266SOL     OW50636   6.352   7.999   7.289
16266SOL    HW150637   6.369   7.916   7.244
16266SOL    HW250638   6.437   8.026   7.322
16267SOL     OW50639   0.638   9.963   2.730
16267SOL    HW150640   0.596   9.960   2.816
16267SOL    HW250641   0.644   9.871   2.703
16268SOL     OW50642   4.744   0.344  13.963
16268SOL    HW150643   4.675   0.349  14.029
16268SOL    HW250644   4.729   0.420  13.906
16269SOL     OW50645   2.445  13.399   5.841
16269SOL    HW150646   2.350  13.408   5.841
16269SOL    HW250647   2.463  13.335   5.772
16270SOL     OW50648  14.239   7.086   5.006
16270SOL    HW150649  14.202   7.023   5.068
16270SOL    HW250650  14.286   7.032   4.942
16271SOL     OW50651   0.797  14.136   2.742
16271SOL    HW150652   0.882  14.156   2.704
16271SOL    HW250653   0.737  14.197   2.697
16272SOL     OW50654  11.297  10.799   1.383
16272SOL    HW150655  11.234  10.796   1.311
16272SOL    HW250656  11.349  10.719   1.373
16273SOL     OW50657  10.370  14.755   0.522
16273SOL    HW150658  10.450  14.763   0.469
16273SOL    HW250659  10.358  14.843   0.559
16274SOL     OW50660  12.875   2.438   9.999
16274SOL    HW150661  12.942   2.444  10.067
16274SOL    HW250662  12.913   2.378   9.934
16275SOL     OW50663   0.476  13.610  12.140
16275SOL    HW150664   0.553  13.575  12.095
16275SOL    HW250665   0.479  13.570  12.227
16276SOL     OW50666  13.840  11.343   6.208
16276SOL    HW150667  13.855  11.427   6.166
16276SOL    HW250668  13.817  11.365   6.298
16277SOL     OW50669  14.578  11.149   5.999
16277SOL    HW150670  14.627  11.129   5.919
16277SOL    HW250671  14.539  11.065   6.025
16278SOL     OW50672  11.158   6.881   6.594
16278SOL    HW150673  11.100   6.953   6.618
16278SOL    HW250674  11.124   6.851   6.509
16279SOL     OW50675   6.698   5.402   6.710
16279SOL    HW150676   6.769   5.410   6.647
16279SOL    HW250677   6.741   5.401   6.795
16280SOL     OW50678   0.893   5.797   9.530
16280SOL    HW150679   0.806   5.758   9.525
16280SOL    HW250680   0.945   5.733   9.578
16281SOL     OW50681  14.594   7.094   3.171
16281SOL    HW150682  14.522   7.067   3.228
16281SOL    HW250683  14.557   7.166   3.119
16282SOL     OW50684   7.327  12.820   8.887
16282SOL    HW150685   7.267  12.894   8.894
16282SOL    HW250686   7.345  12.812   8.794
16283SOL     OW50687   1.853  10.147   3.673
16283SOL    HW150688   1.849  10.053   3.687
16283SOL    HW250689   1.773  10.167   3.624
16284SOL     OW50690  10.096   9.243  13.707
16284SOL    HW150691  10.052   9.327  13.698
16284SOL    HW250692  10.085   9.201  13.621
16285SOL     OW50693   6.241   1.491  11.524
16285SOL    HW150694   6.313   1.553  11.519
16285SOL    HW250695   6.164   1.546  11.541
16286SOL     OW50696  11.992   3.140  11.665
16286SOL    HW150697  12.036   3.101  11.740
16286SOL    HW250698  11.906   3.098  11.662
16287SOL     OW50699   5.789   7.204   7.442
16287SOL    HW150700   5.834   7.142   7.499
16287SOL    HW250701   5.844   7.208   7.363
16288SOL     OW50702  14.696  10.399   4.673
16288SOL    HW150703  14.751  10.399   4.751
16288SOL    HW250704  14.756  10.416   4.601
16289SOL     OW50705   6.938  12.886  12.273
16289SOL    HW150706   7.009  12.948  12.289
16289SOL    HW250707   6.945  12.822  12.344
16290SOL     OW50708   8.007   9.624  13.969
16290SOL    HW150709   7.923   9.657  13.935
16290SOL    HW250710   8.072   9.657  13.908
16291SOL     OW50711   0.992  11.845  10.762
16291SOL    HW150712   0.911  11.896  10.763
16291SOL    HW250713   0.990  11.796  10.844
16292SOL     OW50714   0.903   5.679  13.949
16292SOL    HW150715   0.908   5.583  13.944
16292SOL    HW250716   0.972   5.709  13.890
16293SOL     OW50717  14.594  11.774   6.338
16293SOL    HW150718  14.522  11.837   6.339
16293SOL    HW250719  14.575  11.716   6.264
16294SOL     OW50720  10.221  11.403   1.733
16294SOL    HW150721  10.238  11.310   1.742
16294SOL    HW250722  10.130  11.414   1.760
16295SOL     OW50723  10.240  11.219   9.908
16295SOL    HW150724  10.221  11.126   9.900
16295SOL    HW250725  10.167  11.263   9.862
16296SOL     OW50726   0.875  13.172  12.922
16296SOL    HW150727   0.855  13.141  13.010
16296SOL    HW250728   0.898  13.264  12.933
16297SOL     OW50729   6.007   6.550   3.722
16297SOL    HW150730   5.934   6.582   3.669
16297SOL    HW250731   6.045   6.479   3.670
16298SOL     OW50732   6.616   3.705   9.188
16298SOL    HW150733   6.578   3.653   9.259
16298SOL    HW250734   6.710   3.707   9.208
16299SOL     OW50735   1.605   8.091   6.622
16299SOL    HW150736   1.638   8.148   6.692
16299SOL    HW250737   1.653   8.009   6.634
16300SOL     OW50738  11.289   2.619   2.823
16300SOL    HW150739  11.256   2.701   2.858
16300SOL    HW250740  11.325   2.573   2.899
16301SOL     OW50741   6.730   1.980   2.074
16301SOL    HW150742   6.779   1.999   2.154
16301SOL    HW250743   6.685   2.063   2.053
16302SOL     OW50744   5.068   5.890  12.765
16302SOL    HW150745   5.063   5.938  12.683
16302SOL    HW250746   4.979   5.890  12.799
16303SOL     OW50747   6.457  13.198  12.075
16303SOL    HW150748   6.419  13.198  12.163
16303SOL    HW250749   6.382  13.197  12.016
16304SOL     OW50750   2.958   5.275   7.348
16304SOL    HW150751   2.979   5.182   7.337
16304SOL    HW250752   3.016   5.305   7.418
16305SOL     OW50753   2.426  10.680  13.347
16305SOL    HW150754   2.376  10.712  13.272
16305SOL    HW250755   2.376  10.605  13.379
16306SOL     OW50756  14.102   5.073   3.956
16306SOL    HW150757  14.158   4.998   3.971
16306SOL    HW250758  14.061   5.056   3.871
16307SOL     OW50759   9.171   6.278   4.309
16307SOL    HW150760   9.120   6.359   4.311
16307SOL    HW250761   9.114   6.212   4.347
16308SOL     OW50762   4.232   2.205   8.154
16308SOL    HW150763   4.208   2.113   8.149
16308SOL    HW250764   4.320   2.205   8.193
16309SOL     OW50765   2.129   5.981   9.232
16309SOL    HW150766   2.180   5.968   9.312
16309SOL    HW250767   2.071   6.054   9.252
16310SOL     OW50768   5.405  13.824  12.522
16310SOL    HW150769   5.341  13.796  12.457
16310SOL    HW250770   5.487  13.784  12.493
16311SOL     OW50771   6.724   1.241   6.382
16311SOL    HW150772   6.679   1.180   6.441
16311SOL    HW250773   6.739   1.190   6.302
16312SOL     OW50774   2.417  14.800   8.848
16312SOL    HW150775   2.383  14.788   8.936
16312SOL    HW250776   2.402   0.019   8.829
16313SOL     OW50777   5.235  10.076   4.664
16313SOL    HW150778   5.316  10.078   4.612
16313SOL    HW250779   5.261  10.036   4.747
16314SOL     OW50780  13.962   5.606  12.279
16314SOL    HW150781  13.946   5.657  12.358
16314SOL    HW250782  13.911   5.526  12.291
16315SOL     OW50783   0.107   5.297  14.760
16315SOL    HW150784   0.180   5.270  14.816
16315SOL    HW250785   0.093   5.389  14.781
16316SOL     OW50786   7.914  10.535   4.140
16316SOL    HW150787   7.939  10.576   4.057
16316SOL    HW250788   7.970  10.577   4.205
16317SOL     OW50789  10.647   4.117  13.977
16317SOL    HW150790  10.729   4.150  13.941
16317SOL    HW250791  10.635   4.031  13.937
16318SOL     OW50792   2.087   1.478   9.684
16318SOL    HW150793   2.076   1.539   9.611
16318SOL    HW250794   2.045   1.397   9.654
16319SOL     OW50795   4.088   1.361   4.503
16319SOL    HW150796   4.054   1.341   4.416
16319SOL    HW250797   4.183   1.367   4.491
16320SOL     OW50798   7.742   3.289   0.038
16320SOL    HW150799   7.836   3.284   0.055
16320SOL    HW250800   7.735   3.334  14.828
16321SOL     OW50801  13.169   0.581   2.430
16321SOL    HW150802  13.074   0.583   2.424
16321SOL    HW250803  13.199   0.644   2.365
16322SOL     OW50804  12.492  14.243  10.484
16322SOL    HW150805  12.449  14.274  10.564
16322SOL    HW250806  12.581  14.278  10.491
16323SOL     OW50807  10.852   6.956   4.135
16323SOL    HW150808  10.806   7.035   4.109
16323SOL    HW250809  10.842   6.896   4.061
16324SOL     OW50810   4.475   5.620   0.882
16324SOL    HW150811   4.479   5.655   0.793
16324SOL    HW250812   4.396   5.657   0.919
16325SOL     OW50813   8.846  13.284  13.532
16325SOL    HW150814   8.884  13.241  13.455
16325SOL    HW250815   8.922  13.317  13.581
16326SOL     OW50816   3.169  14.441   3.162
16326SOL    HW150817   3.098  14.384   3.134
16326SOL    HW250818   3.205  14.399   3.240
16327SOL     OW50819   8.219  11.341   1.050
16327SOL    HW150820   8.261  11.276   1.106
16327SOL    HW250821   8.194  11.411   1.110
16328SOL     OW50822  11.646   0.264   3.239
16328SOL    HW150823  11.639   0.179   3.196
16328SOL    HW250824  11.725   0.258   3.293
16329SOL     OW50825   4.231   8.271   5.370
16329SOL    HW150826   4.298   8.230   5.315
16329SOL    HW250827   4.158   8.288   5.311
16330SOL     OW50828   7.789   8.846  13.318
16330SOL    HW150829   7.811   8.890  13.401
16330SOL    HW250830   7.851   8.774  13.313
16331SOL     OW50831   1.934   2.408  11.416
16331SOL    HW150832   1.858   2.444  11.369
16331SOL    HW250833   1.918   2.431  11.507
16332SOL     OW50834  14.002   0.821   5.776
16332SOL    HW150835  14.082   0.809   5.827
16332SOL    HW250836  13.942   0.866   5.836
16333SOL     OW50837   9.105   2.335   4.806
16333SOL    HW150838   9.019   2.371   4.828
16333SOL    HW250839   9.094   2.240   4.811
16334SOL     OW50840  13.531  14.168  12.579
16334SOL    HW150841  13.461  14.161  12.514
16334SOL    HW250842  13.518  14.092  12.636
16335SOL     OW50843  14.061   8.433  13.711
16335SOL    HW150844  14.047   8.480  13.628
16335SOL    HW250845  14.120   8.361  13.688
16336SOL     OW50846   2.346  12.418   1.651
16336SOL    HW150847   2.288  12.494   1.649
16336SOL    HW250848   2.373  12.411   1.743
16337SOL     OW50849   2.354   7.079   2.373
16337SOL    HW150850   2.277   7.045   2.328
16337SOL    HW250851   2.376   7.159   2.325
16338SOL     OW50852   6.798   2.049   0.644
16338SOL    HW150853   6.762   2.014   0.563
16338SOL    HW250854   6.834   1.973   0.689
16339SOL     OW50855   8.864  11.878   4.177
16339SOL    HW150856   8.896  11.790   4.198
16339SOL    HW250857   8.794  11.862   4.112
16340SOL     OW50858  13.943  11.949  14.864
16340SOL    HW150859  13.953  11.855  14.849
16340SOL    HW250860  13.911  11.957   0.079
16341SOL     OW50861  10.031  12.754   2.599
16341SOL    HW150862  10.114  12.712   2.575
16341SOL    HW250863  10.024  12.828   2.540
16342SOL     OW50864   4.182   9.708   0.289
16342SOL    HW150865   4.111   9.709   0.225
16342SOL    HW250866   4.245   9.645   0.253
16343SOL     OW50867   6.506   8.662   0.231
16343SOL    HW150868   6.456   8.741   0.214
16343SOL    HW250869   6.462   8.621   0.306
16344SOL     OW50870   6.673  14.063  12.928
16344SOL    HW150871   6.713  14.104  13.005
16344SOL    HW250872   6.579  14.069  12.944
16345SOL     OW50873   4.823   2.010  12.217
16345SOL    HW150874   4.837   2.003  12.312
16345SOL    HW250875   4.892   1.956  12.179
16346SOL     OW50876   0.329  10.221  11.860
16346SOL    HW150877   0.339  10.126  11.865
16346SOL    HW250878   0.261  10.234  11.794
16347SOL     OW50879  11.771  11.069  13.076
16347SOL    HW150880  11.676  11.072  13.066
16347SOL    HW250881  11.793  10.976  13.071
16348SOL     OW50882   5.745   9.670  13.479
16348SOL    HW150883   5.697   9.719  13.546
16348SOL    HW250884   5.802   9.735  13.438
16349SOL     OW50885   0.265  10.194   6.248
16349SOL    HW150886   0.174  10.200   6.220
16349SOL    HW250887   0.296  10.285   6.245
16350SOL     OW50888   9.558  11.052   2.331
16350SOL    HW150889   9.481  11.059   2.273
16350SOL    HW250890   9.522  11.031   2.417
16351SOL     OW50891  13.839  12.120  10.944
16351SOL    HW150892  13.906  12.054  10.961
16351SOL    HW250893  13.774  12.106  11.013
16352SOL     OW50894  12.240   9.940   0.651
16352SOL    HW150895  12.324   9.973   0.683
16352SOL    HW250896  12.182   9.945   0.727
16353SOL     OW50897   6.422   6.764   0.967
16353SOL    HW150898   6.421   6.856   0.995
16353SOL    HW250899   6.490   6.724   1.020
16354SOL     OW50900  10.856   8.132  10.819
16354SOL    HW150901  10.909   8.198  10.864
16354SOL    HW250902  10.915   8.059  10.805
16355SOL     OW50903   3.683   3.674   3.491
16355SOL    HW150904   3.681   3.650   3.584
16355SOL    HW250905   3.645   3.762   3.489
16356SOL     OW50906   3.225  10.069   7.055
16356SOL    HW150907   3.290  10.123   7.099
16356SOL    HW250908   3.270   9.986   7.040
16357SOL     OW50909  13.915   6.905   0.624
16357SOL    HW150910  13.919   6.866   0.712
16357SOL    HW250911  13.836   6.869   0.586
16358SOL     OW50912   9.923   0.317   0.848
16358SOL    HW150913   9.848   0.377   0.851
16358SOL    HW250914   9.898   0.246   0.907
16359SOL     OW50915   7.879   7.815   4.864
16359SOL    HW150916   7.820   7.854   4.801
16359SOL    HW250917   7.910   7.888   4.917
16360SOL     OW50918   6.903   9.075  14.469
16360SOL    HW150919   6.878   9.088  14.378
16360SOL    HW250920   6.920   9.164  14.501
16361SOL     OW50921  10.474  10.628   3.913
16361SOL    HW150922  10.452  10.536   3.927
16361SOL    HW250923  10.548  10.626   3.852
16362SOL     OW50924  10.210   8.520  14.078
16362SOL    HW150925  10.144   8.502  14.144
16362SOL    HW250926  10.185   8.465  14.003
16363SOL     OW50927  13.305  11.131   6.187
16363SOL    HW150928  13.282  11.218   6.154
16363SOL    HW250929  13.232  11.108   6.246
16364SOL     OW50930   1.613   8.282   1.653
16364SOL    HW150931   1.524   8.310   1.672
16364SOL    HW250932   1.610   8.187   1.659
16365SOL     OW50933   7.785  12.210   2.642
16365SOL    HW150934   7.749  12.228   2.729
16365SOL    HW250935   7.771  12.116   2.629
16366SOL     OW50936   1.159  14.127   6.650
16366SOL    HW150937   1.126  14.192   6.589
16366SOL    HW250938   1.203  14.062   6.594
16367SOL     OW50939  11.597  12.759   2.545
16367SOL    HW150940  11.507  12.774   2.518
16367SOL    HW250941  11.625  12.682   2.495
16368SOL     OW50942  10.674   8.855  11.143
16368SOL    HW150943  10.637   8.918  11.205
16368SOL    HW250944  10.630   8.773  11.164
16369SOL     OW50945   1.567   8.345   5.677
16369SOL    HW150946   1.500   8.411   5.694
16369SOL    HW250947   1.642   8.394   5.644
16370SOL     OW50948   9.327   5.096   5.345
16370SOL    HW150949   9.325   5.116   5.252
16370SOL    HW250950   9.343   5.002   5.349
16371SOL     OW50951   3.722  13.084   7.291
16371SOL    HW150952   3.756  13.106   7.378
16371SOL    HW250953   3.768  13.004   7.267
16372SOL     OW50954   4.433   7.814   9.482
16372SOL    HW150955   4.470   7.735   9.441
16372SOL    HW250956   4.412   7.786   9.571
16373SOL     OW50957   4.305   8.870   6.641
16373SOL    HW150958   4.313   8.922   6.721
16373SOL    HW250959   4.324   8.932   6.571
16374SOL     OW50960  10.405   9.154   0.917
16374SOL    HW150961  10.314   9.177   0.935
16374SOL    HW250962  10.431   9.211   0.845
16375SOL     OW50963   4.099   3.968   3.886
16375SOL    HW150964   4.053   3.986   3.804
16375SOL    HW250965   4.156   3.893   3.865
16376SOL     OW50966  10.367   6.399   3.536
16376SOL    HW150967  10.428   6.328   3.557
16376SOL    HW250968  10.318   6.367   3.461
16377SOL     OW50969   6.541  11.416  11.648
16377SOL    HW150970   6.629  11.454  11.639
16377SOL    HW250971   6.488  11.487  11.683
16378SOL     OW50972   1.651   4.567  12.965
16378SOL    HW150973   1.703   4.545  12.887
16378SOL    HW250974   1.583   4.500  12.969
16379SOL     OW50975   2.659   9.886  10.724
16379SOL    HW150976   2.665   9.920  10.814
16379SOL    HW250977   2.714   9.945  10.673
16380SOL     OW50978   1.367  12.505   7.522
16380SOL    HW150979   1.404  12.556   7.450
16380SOL    HW250980   1.282  12.546   7.538
16381SOL     OW50981  14.723  13.184   1.651
16381SOL    HW150982  14.739  13.132   1.572
16381SOL    HW250983  14.686  13.123   1.714
16382SOL     OW50984  12.811   7.905   4.494
16382SOL    HW150985  12.805   7.861   4.578
16382SOL    HW250986  12.870   7.978   4.509
16383SOL     OW50987   7.150  14.703   5.157
16383SOL    HW150988   7.187  14.783   5.195
16383SOL    HW250989   7.174  14.634   5.219
16384SOL     OW50990  13.301  13.864   3.573
16384SOL    HW150991  13.331  13.860   3.482
16384SOL    HW250992  13.212  13.829   3.569
16385SOL     OW50993   0.272  11.245   3.157
16385SOL    HW150994   0.268  11.168   3.101
16385SOL    HW250995   0.346  11.229   3.216
16386SOL     OW50996  12.129   3.048  13.599
16386SOL    HW150997  12.182   2.998  13.662
16386SOL    HW250998  12.141   3.139  13.625
16387SOL     OW50999  11.081  11.595  12.476
16387SOL    HW151000  11.145  11.663  12.457
16387SOL    HW251001  11.054  11.612  12.566
16388SOL     OW51002   8.266   9.202   4.375
16388SOL    HW151003   8.266   9.277   4.434
16388SOL    HW251004   8.173   9.181   4.363
16389SOL     OW51005   8.345   5.097  13.549
16389SOL    HW151006   8.271   5.040  13.532
16389SOL    HW251007   8.350   5.154  13.472
16390SOL     OW51008   0.363  14.485   6.537
16390SOL    HW151009   0.300  14.415   6.523
16390SOL    HW251010   0.446  14.451   6.502
16391SOL     OW51011   3.870  11.868   1.619
16391SOL    HW151012   3.811  11.803   1.658
16391SOL    HW251013   3.846  11.950   1.662
16392SOL     OW51014  12.364  12.053   0.797
16392SOL    HW151015  12.447  12.096   0.773
16392SOL    HW251016  12.373  11.964   0.763
16393SOL     OW51017   7.524   4.809  13.042
16393SOL    HW151018   7.588   4.875  13.016
16393SOL    HW251019   7.560   4.727  13.009
16394SOL     OW51020   5.474   8.150   4.899
16394SOL    HW151021   5.442   8.224   4.847
16394SOL    HW251022   5.492   8.081   4.834
16395SOL     OW51023   6.073   7.939   2.503
16395SOL    HW151024   6.084   7.964   2.595
16395SOL    HW251025   6.109   7.851   2.498
16396SOL     OW51026   4.014  10.198  10.168
16396SOL    HW151027   4.065  10.124  10.137
16396SOL    HW251028   3.927  10.162  10.185
16397SOL     OW51029  10.377  13.037  13.374
16397SOL    HW151030  10.305  13.037  13.311
16397SOL    HW251031  10.418  12.951  13.363
16398SOL     OW51032  10.029   4.140   4.615
16398SOL    HW151033  10.106   4.090   4.644
16398SOL    HW251034  10.066   4.208   4.558
16399SOL     OW51035   3.772  10.389   2.920
16399SOL    HW151036   3.818  10.426   2.996
16399SOL    HW251037   3.692  10.440   2.913
16400SOL     OW51038   2.312   0.320   4.611
16400SOL    HW151039   2.308   0.391   4.675
16400SOL    HW251040   2.405   0.310   4.591
16401SOL     OW51041  12.700   4.104   3.222
16401SOL    HW151042  12.794   4.116   3.239
16401SOL    HW251043  12.661   4.095   3.308
16402SOL     OW51044  11.562   8.545   0.295
16402SOL    HW151045  11.564   8.476   0.229
16402SOL    HW251046  11.618   8.512   0.366
16403SOL     OW51047  13.932   6.068   7.739
16403SOL    HW151048  13.915   6.163   7.737
16403SOL    HW251049  13.885   6.038   7.817
16404SOL     OW51050  12.737   3.427   1.684
16404SOL    HW151051  12.707   3.421   1.594
16404SOL    HW251052  12.666   3.472   1.730
16405SOL     OW51053  11.044   4.521   5.971
16405SOL    HW151054  10.964   4.559   5.936
16405SOL    HW251055  11.072   4.582   6.039
16406SOL     OW51056  11.040   8.551  13.602
16406SOL    HW151057  10.969   8.611  13.627
16406SOL    HW251058  11.117   8.607  13.594
16407SOL     OW51059   9.829   1.480   5.440
16407SOL    HW151060   9.922   1.487   5.418
16407SOL    HW251061   9.827   1.443   5.528
16408SOL     OW51062   5.738  10.597   4.040
16408SOL    HW151063   5.819  10.643   4.060
16408SOL    HW251064   5.741  10.580   3.946
16409SOL     OW51065   2.332   0.749  14.853
16409SOL    HW151066   2.421   0.720  14.836
16409SOL    HW251067   2.281   0.669  14.858
16410SOL     OW51068   4.483  11.464  11.051
16410SOL    HW151069   4.512  11.439  10.964
16410SOL    HW251070   4.523  11.549  11.067
16411SOL     OW51071  14.359   0.079   3.618
16411SOL    HW151072  14.421   0.027   3.566
16411SOL    HW251073  14.391   0.072   3.708
16412SOL     OW51074   5.660   0.529  13.752
16412SOL    HW151075   5.609   0.598  13.795
16412SOL    HW251076   5.596   0.480  13.700
16413SOL     OW51077   5.532  13.266  12.711
16413SOL    HW151078   5.449  13.225  12.687
16413SOL    HW251079   5.593  13.194  12.723
16414SOL     OW51080   8.393   9.535   8.473
16414SOL    HW151081   8.393   9.473   8.546
16414SOL    HW251082   8.313   9.586   8.485
16415SOL     OW51083  14.271  11.769   4.734
16415SOL    HW151084  14.223  11.687   4.716
16415SOL    HW251085  14.353  11.740   4.774
16416SOL     OW51086  11.723   8.440   0.506
16416SOL    HW151087  11.729   8.364   0.565
16416SOL    HW251088  11.797   8.496   0.531
16417SOL     OW51089  13.107   6.662   7.335
16417SOL    HW151090  13.159   6.670   7.415
16417SOL    HW251091  13.072   6.573   7.338
16418SOL     OW51092  12.299   1.258   4.131
16418SOL    HW151093  12.317   1.352   4.133
16418SOL    HW251094  12.375   1.220   4.087
16419SOL     OW51095   9.799   9.978   8.986
16419SOL    HW151096   9.778   9.902   9.041
16419SOL    HW251097   9.724   9.987   8.927
16420SOL     OW51098   8.914   9.054   9.868
16420SOL    HW151099   8.958   9.017   9.792
16420SOL    HW251100   8.858   9.123   9.833
16421SOL     OW51101  12.435  12.066   9.310
16421SOL    HW151102  12.392  12.106   9.234
16421SOL    HW251103  12.485  12.138   9.350
16422SOL     OW51104   9.563   4.197   2.087
16422SOL    HW151105   9.487   4.248   2.058
16422SOL    HW251106   9.568   4.213   2.182
16423SOL     OW51107   9.310  11.567  11.892
16423SOL    HW151108   9.254  11.595  11.819
16423SOL    HW251109   9.380  11.517  11.852
16424SOL     OW51110   1.121  14.822  11.849
16424SOL    HW151111   1.171  14.795  11.772
16424SOL    HW251112   1.185  14.819  11.921
16425SOL     OW51113  13.453  14.107   4.340
16425SOL    HW151114  13.520  14.051   4.379
16425SOL    HW251115  13.414  14.152   4.415
16426SOL     OW51116   1.465   7.885   1.715
16426SOL    HW151117   1.382   7.927   1.691
16426SOL    HW251118   1.467   7.806   1.662
16427SOL     OW51119   4.468  10.100   9.526
16427SOL    HW151120   4.467  10.004   9.520
16427SOL    HW251121   4.399  10.128   9.466
16428SOL     OW51122  14.719   9.892  12.279
16428SOL    HW151123  14.783   9.964  12.281
16428SOL    HW251124  14.773   9.814  12.264
16429SOL     OW51125   3.363  12.491   7.397
16429SOL    HW151126   3.366  12.399   7.423
16429SOL    HW251127   3.272  12.506   7.372
16430SOL     OW51128   0.632  13.329   2.730
16430SOL    HW151129   0.720  13.363   2.716
16430SOL    HW251130   0.574  13.393   2.689
16431SOL     OW51131   0.051   1.312   4.078
16431SOL    HW151132   0.027   1.390   4.027
16431SOL    HW251133  14.846   1.259   4.080
16432SOL     OW51134   2.155   4.072   6.319
16432SOL    HW151135   2.208   4.079   6.240
16432SOL    HW251136   2.086   4.009   6.296
16433SOL     OW51137  14.398   7.723  10.309
16433SOL    HW151138  14.353   7.789  10.257
16433SOL    HW251139  14.468   7.691  10.253
16434SOL     OW51140  13.671  14.586   4.736
16434SOL    HW151141  13.714  14.552   4.658
16434SOL    HW251142  13.691  14.680   4.736
16435SOL     OW51143  13.712   8.827   3.989
16435SOL    HW151144  13.650   8.785   4.048
16435SOL    HW251145  13.663   8.838   3.907
16436SOL     OW51146  11.218  12.997  10.571
16436SOL    HW151147  11.155  13.068  10.561
16436SOL    HW251148  11.185  12.927  10.515
16437SOL     OW51149  14.029  13.498   6.856
16437SOL    HW151150  14.090  13.518   6.785
16437SOL    HW251151  14.028  13.402   6.860
16438SOL     OW51152  12.086   1.840   6.994
16438SOL    HW151153  12.147   1.784   6.947
16438SOL    HW251154  12.092   1.812   7.086
16439SOL     OW51155   7.525   4.323   1.977
16439SOL    HW151156   7.590   4.301   2.043
16439SOL    HW251157   7.569   4.387   1.921
16440SOL     OW51158  10.333   6.388   1.200
16440SOL    HW151159  10.355   6.464   1.147
16440SOL    HW251160  10.394   6.391   1.274
16441SOL     OW51161   0.900  10.426   1.290
16441SOL    HW151162   0.890  10.415   1.196
16441SOL    HW251163   0.991  10.402   1.307
16442SOL     OW51164  12.550   5.352   9.374
16442SOL    HW151165  12.562   5.445   9.352
16442SOL    HW251166  12.610   5.306   9.315
16443SOL     OW51167   7.104  13.428  14.670
16443SOL    HW151168   7.017  13.464  14.690
16443SOL    HW251169   7.091  13.334  14.673
16444SOL     OW51170  12.461   1.958   0.213
16444SOL    HW151171  12.497   1.885   0.263
16444SOL    HW251172  12.393   1.918   0.158
16445SOL     OW51173  10.228   7.369  10.519
16445SOL    HW151174  10.281   7.298  10.484
16445SOL    HW251175  10.290   7.441  10.532
16446SOL     OW51176   4.909   3.498   4.477
16446SOL    HW151177   4.841   3.533   4.534
16446SOL    HW251178   4.969   3.453   4.535
16447SOL     OW51179   2.013  10.333   1.909
16447SOL    HW151180   2.007  10.357   1.817
16447SOL    HW251181   1.989  10.413   1.956
16448SOL     OW51182   9.088  10.642   3.727
16448SOL    HW151183   9.183  10.647   3.740
16448SOL    HW251184   9.050  10.691   3.799
16449SOL     OW51185   3.418   1.146   5.936
16449SOL    HW151186   3.433   1.064   5.982
16449SOL    HW251187   3.374   1.202   6.000
16450SOL     OW51188   9.203   6.006  11.858
16450SOL    HW151189   9.142   6.057  11.911
16450SOL    HW251190   9.182   6.029  11.768
16451SOL     OW51191   6.794   9.638   3.543
16451SOL    HW151192   6.789   9.582   3.620
16451SOL    HW251193   6.720   9.611   3.488
16452SOL     OW51194  10.249   1.883   8.408
16452SOL    HW151195  10.175   1.902   8.350
16452SOL    HW251196  10.326   1.904   8.355
16453SOL     OW51197   5.406   2.979   1.211
16453SOL    HW151198   5.449   3.000   1.129
16453SOL    HW251199   5.325   2.934   1.186
16454SOL     OW51200   4.553  10.566   2.610
16454SOL    HW151201   4.583  10.647   2.568
16454SOL    HW251202   4.544  10.504   2.538
16455SOL     OW51203  14.684   5.285   1.132
16455SOL    HW151204  14.773   5.254   1.148
16455SOL    HW251205  14.633   5.249   1.205
16456SOL     OW51206   0.454   1.613   5.293
16456SOL    HW151207   0.484   1.700   5.268
16456SOL    HW251208   0.472   1.559   5.216
16457SOL     OW51209   6.498  11.255  10.974
16457SOL    HW151210   6.582  11.242  11.018
16457SOL    HW251211   6.483  11.350  10.979
16458SOL     OW51212   1.048   8.537  13.980
16458SOL    HW151213   1.017   8.503  14.063
16458SOL    HW251214   0.989   8.498  13.914
16459SOL     OW51215  12.947   7.094   6.865
16459SOL    HW151216  12.862   7.073   6.827
16459SOL    HW251217  12.972   7.014   6.912
16460SOL     OW51218   6.811   8.665   5.242
16460SOL    HW151219   6.792   8.712   5.324
16460SOL    HW251220   6.838   8.734   5.181
16461SOL     OW51221   5.339  14.015  14.337
16461SOL    HW151222   5.389  14.006  14.255
16461SOL    HW251223   5.314  13.926  14.360
16462SOL     OW51224   8.797   7.570   6.467
16462SOL    HW151225   8.855   7.602   6.398
16462SOL    HW251226   8.818   7.624   6.543
16463SOL     OW51227  13.212   8.579   4.960
16463SOL    HW151228  13.164   8.550   5.037
16463SOL    HW251229  13.270   8.648   4.992
16464SOL     OW51230   7.326   9.982   8.724
16464SOL    HW151231   7.348   9.920   8.794
16464SOL    HW251232   7.402  10.041   8.720
16465SOL     OW51233   5.863  14.364  10.624
16465SOL    HW151234   5.810  14.295  10.586
16465SOL    HW251235   5.952  14.345  10.595
16466SOL     OW51236   0.933   3.991  10.439
16466SOL    HW151237   0.845   4.027  10.430
16466SOL    HW251238   0.955   4.002  10.532
16467SOL     OW51239   1.997   6.682   7.771
16467SOL    HW151240   1.910   6.646   7.758
16467SOL    HW251241   2.000   6.760   7.715
16468SOL     OW51242   4.675  12.555   6.123
16468SOL    HW151243   4.666  12.638   6.170
16468SOL    HW251244   4.751  12.567   6.066
16469SOL     OW51245   2.602  13.685   0.606
16469SOL    HW151246   2.658  13.748   0.559
16469SOL    HW251247   2.632  13.689   0.696
16470SOL     OW51248   6.590   4.234   5.768
16470SOL    HW151249   6.601   4.304   5.833
16470SOL    HW251250   6.499   4.206   5.778
16471SOL     OW51251   6.611  12.268   9.708
16471SOL    HW151252   6.624  12.210   9.783
16471SOL    HW251253   6.696  12.268   9.663
16472SOL     OW51254  14.450   8.260  11.219
16472SOL    HW151255  14.444   8.283  11.126
16472SOL    HW251256  14.541   8.235  11.232
16473SOL     OW51257  12.326  14.703  11.061
16473SOL    HW151258  12.236  14.692  11.091
16473SOL    HW251259  12.375  14.730  11.139
16474SOL     OW51260   8.216  12.617  13.862
16474SOL    HW151261   8.269  12.545  13.895
16474SOL    HW251262   8.161  12.642  13.936
16475SOL     OW51263  14.645   3.574   8.523
16475SOL    HW151264  14.620   3.640   8.587
16475SOL    HW251265  14.736   3.593   8.503
16476SOL     OW51266  13.716   5.250  11.850
16476SOL    HW151267  13.629   5.250  11.890
16476SOL    HW251268  13.750   5.338  11.867
16477SOL     OW51269   6.978  12.414  12.142
16477SOL    HW151270   7.011  12.447  12.058
16477SOL    HW251271   6.961  12.322  12.126
16478SOL     OW51272   5.237   6.724  12.924
16478SOL    HW151273   5.177   6.784  12.880
16478SOL    HW251274   5.310   6.714  12.863
16479SOL     OW51275   6.531  14.337   8.842
16479SOL    HW151276   6.477  14.350   8.919
16479SOL    HW251277   6.479  14.371   8.769
16480SOL     OW51278  12.888  12.803   3.688
16480SOL    HW151279  12.931  12.718   3.691
16480SOL    HW251280  12.921  12.844   3.608
16481SOL     OW51281   5.201   7.420   2.854
16481SOL    HW151282   5.170   7.448   2.768
16481SOL    HW251283   5.271   7.481   2.875
16482SOL     OW51284   1.221   2.665   1.735
16482SOL    HW151285   1.271   2.725   1.790
16482SOL    HW251286   1.151   2.719   1.699
16483SOL     OW51287   9.301   5.372   0.004
16483SOL    HW151288   9.272   5.292  14.835
16483SOL    HW251289   9.394   5.357   0.023
16484SOL     OW51290   4.197   8.119   0.994
16484SOL    HW151291   4.272   8.149   0.944
16484SOL    HW251292   4.193   8.178   1.070
16485SOL     OW51293  14.195   6.077   7.645
16485SOL    HW151294  14.110   6.076   7.690
16485SOL    HW251295  14.194   5.999   7.590
16486SOL     OW51296   8.204  12.050  14.310
16486SOL    HW151297   8.136  12.015  14.252
16486SOL    HW251298   8.252  11.974  14.340
16487SOL     OW51299   0.692   1.456  11.960
16487SOL    HW151300   0.710   1.362  11.965
16487SOL    HW251301   0.737   1.485  11.881
16488SOL     OW51302   9.256   7.578  14.304
16488SOL    HW151303   9.166   7.589  14.272
16488SOL    HW251304   9.310   7.622  14.239
16489SOL     OW51305  13.387  13.096  12.087
16489SOL    HW151306  13.479  13.069  12.087
16489SOL    HW251307  13.388  13.186  12.121
16490SOL     OW51308   2.841  11.743   1.424
16490SOL    HW151309   2.851  11.815   1.361
16490SOL    HW251310   2.889  11.670   1.385
16491SOL     OW51311  10.492   0.341   1.727
16491SOL    HW151312  10.494   0.437   1.737
16491SOL    HW251313  10.477   0.308   1.815
16492SOL     OW51314  12.211  13.336  11.517
16492SOL    HW151315  12.266  13.330  11.596
16492SOL    HW251316  12.173  13.424  11.522
16493SOL     OW51317  11.693   2.812   1.966
16493SOL    HW151318  11.742   2.740   1.926
16493SOL    HW251319  11.716   2.809   2.059
16494SOL     OW51320  11.667   1.689   3.356
16494SOL    HW151321  11.572   1.699   3.364
16494SOL    HW251322  11.691   1.629   3.427
16495SOL     OW51323   1.444   2.221   3.863
16495SOL    HW151324   1.360   2.181   3.844
16495SOL    HW251325   1.435   2.312   3.835
16496SOL     OW51326  14.815  12.433   9.144
16496SOL    HW151327  14.802  12.395   9.231
16496SOL    HW251328  14.766  12.376   9.085
16497SOL     OW51329   1.164   0.091   8.427
16497SOL    HW151330   1.243   0.090   8.372
16497SOL    HW251331   1.107   0.156   8.387
16498SOL     OW51332   8.979   2.864   2.355
16498SOL    HW151333   8.952   2.955   2.359
16498SOL    HW251334   9.044   2.861   2.286
16499SOL     OW51335   8.330   1.464  10.585
16499SOL    HW151336   8.253   1.522  10.586
16499SOL    HW251337   8.402   1.519  10.617
16500SOL     OW51338   4.733  12.000   5.085
16500SOL    HW151339   4.782  12.083   5.086
16500SOL    HW251340   4.652  12.019   5.132
16501SOL     OW51341   4.420   6.587   4.291
16501SOL    HW151342   4.478   6.660   4.268
16501SOL    HW251343   4.335   6.612   4.257
16502SOL     OW51344   0.840   3.276   1.365
16502SOL    HW151345   0.827   3.318   1.280
16502SOL    HW251346   0.849   3.183   1.344
16503SOL     OW51347  10.827  12.169   3.972
16503SOL    HW151348  10.879  12.188   4.050
16503SOL    HW251349  10.855  12.234   3.907
16504SOL     OW51350  13.925   3.791  10.833
16504SOL    HW151351  13.939   3.700  10.859
16504SOL    HW251352  13.831   3.799  10.820
16505SOL     OW51353   6.469   9.761  10.122
16505SOL    HW151354   6.375   9.781  10.132
16505SOL    HW251355   6.500   9.827  10.060
16506SOL     OW51356   5.021   1.245  14.139
16506SOL    HW151357   4.975   1.329  14.147
16506SOL    HW251358   5.111   1.265  14.163
16507SOL     OW51359   9.887   3.863   4.431
16507SOL    HW151360   9.843   3.925   4.489
16507SOL    HW251361   9.957   3.914   4.389
16508SOL     OW51362   3.806  13.754   8.000
16508SOL    HW151363   3.720  13.786   7.974
16508SOL    HW251364   3.806  13.661   7.978
16509SOL     OW51365   4.471  14.565   0.286
16509SOL    HW151366   4.534  14.554   0.357
16509SOL    HW251367   4.408  14.494   0.299
16510SOL     OW51368  10.625   7.193  14.807
16510SOL    HW151369  10.546   7.182  14.755
16510SOL    HW251370  10.657   7.280  14.784
16511SOL     OW51371   4.978   5.136  10.079
16511SOL    HW151372   5.053   5.086  10.046
16511SOL    HW251373   4.914   5.133  10.009
16512SOL     OW51374  14.518   5.239   9.562
16512SOL    HW151375  14.465   5.224   9.484
16512SOL    HW251376  14.608   5.243   9.530
16513SOL     OW51377   6.411   0.731   8.871
16513SOL    HW151378   6.449   0.789   8.806
16513SOL    HW251379   6.318   0.729   8.852
16514SOL     OW51380   6.661   9.047   7.582
16514SOL    HW151381   6.597   8.997   7.533
16514SOL    HW251382   6.649   9.020   7.673
16515SOL     OW51383   8.242   5.942   5.389
16515SOL    HW151384   8.261   5.878   5.458
16515SOL    HW251385   8.244   6.026   5.435
16516SOL     OW51386   2.336   1.722   8.108
16516SOL    HW151387   2.387   1.644   8.088
16516SOL    HW251388   2.351   1.737   8.202
16517SOL     OW51389   3.010  14.852   0.373
16517SOL    HW151390   2.982  14.838   0.464
16517SOL    HW251391   3.081  14.790   0.360
16518SOL     OW51392  12.437   9.204  14.623
16518SOL    HW151393  12.454   9.199  14.717
16518SOL    HW251394  12.372   9.135  14.608
16519SOL     OW51395   1.509   5.519   8.133
16519SOL    HW151396   1.490   5.477   8.049
16519SOL    HW251397   1.599   5.552   8.123
16520SOL     OW51398  13.876   1.229  11.646
16520SOL    HW151399  13.812   1.197  11.710
16520SOL    HW251400  13.924   1.297  11.693
16521SOL     OW51401   8.700   2.864  12.728
16521SOL    HW151402   8.747   2.809  12.791
16521SOL    HW251403   8.749   2.854  12.646
16522SOL     OW51404  12.289   2.649  12.474
16522SOL    HW151405  12.236   2.616  12.547
16522SOL    HW251406  12.379   2.632  12.500
16523SOL     OW51407   9.027  13.955  12.308
16523SOL    HW151408   9.027  13.970  12.214
16523SOL    HW251409   8.936  13.971  12.335
16524SOL     OW51410  12.236  10.488  10.148
16524SOL    HW151411  12.186  10.529  10.078
16524SOL    HW251412  12.178  10.421  10.184
16525SOL     OW51413   7.735   1.725  13.274
16525SOL    HW151414   7.735   1.781  13.351
16525SOL    HW251415   7.642   1.716  13.251
16526SOL     OW51416  12.364   7.064  11.322
16526SOL    HW151417  12.313   6.997  11.276
16526SOL    HW251418  12.393   7.124  11.253
16527SOL     OW51419   6.257   7.387   3.488
16527SOL    HW151420   6.302   7.390   3.573
16527SOL    HW251421   6.214   7.302   3.487
16528SOL     OW51422   8.923  13.997   2.799
16528SOL    HW151423   8.960  13.985   2.712
16528SOL    HW251424   8.939  13.913   2.844
16529SOL     OW51425   4.736   1.015   3.610
16529SOL    HW151426   4.647   1.045   3.625
16529SOL    HW251427   4.791   1.080   3.654
16530SOL     OW51428   6.513   8.408   5.227
16530SOL    HW151429   6.576   8.340   5.204
16530SOL    HW251430   6.490   8.448   5.144
16531SOL     OW51431   3.598  12.880   2.044
16531SOL    HW151432   3.668  12.903   1.983
16531SOL    HW251433   3.522  12.930   2.014
16532SOL     OW51434  11.075  13.622   4.351
16532SOL    HW151435  11.164  13.613   4.384
16532SOL    HW251436  11.023  13.562   4.406
16533SOL     OW51437   4.458   3.532   3.102
16533SOL    HW151438   4.399   3.605   3.087
16533SOL    HW251439   4.488   3.507   3.014
16534SOL     OW51440   7.448   3.652  10.866
16534SOL    HW151441   7.500   3.577  10.893
16534SOL    HW251442   7.497   3.691  10.794
16535SOL     OW51443  14.506  13.817   8.600
16535SOL    HW151444  14.444  13.816   8.673
16535SOL    HW251445  14.455  13.786   8.525
16536SOL     OW51446   2.360  11.824  13.803
16536SOL    HW151447   2.271  11.858  13.812
16536SOL    HW251448   2.351  11.730  13.820
16537SOL     OW51449   6.323   3.705  12.070
16537SOL    HW151450   6.305   3.779  12.128
16537SOL    HW251451   6.314   3.741  11.982
16538SOL     OW51452  13.962   8.172   7.914
16538SOL    HW151453  13.879   8.202   7.952
16538SOL    HW251454  13.948   8.080   7.894
16539SOL     OW51455   1.220   9.311   9.559
16539SOL    HW151456   1.311   9.338   9.565
16539SOL    HW251457   1.178   9.379   9.506
16540SOL     OW51458  10.237   2.224   8.037
16540SOL    HW151459  10.298   2.178   8.095
16540SOL    HW251460  10.290   2.245   7.959
16541SOL     OW51461   2.763  11.554   9.250
16541SOL    HW151462   2.761  11.578   9.343
16541SOL    HW251463   2.700  11.482   9.243
16542SOL     OW51464   1.041   0.092   7.274
16542SOL    HW151465   1.113   0.153   7.258
16542SOL    HW251466   0.966   0.131   7.228
16543SOL     OW51467  14.306   3.247   4.030
16543SOL    HW151468  14.308   3.166   4.081
16543SOL    HW251469  14.240   3.231   3.962
16544SOL     OW51470   0.468   0.842  10.713
16544SOL    HW151471   0.431   0.921  10.752
16544SOL    HW251472   0.514   0.873  10.635
16545SOL     OW51473   7.398   3.419   2.696
16545SOL    HW151474   7.483   3.463   2.692
16545SOL    HW251475   7.342   3.480   2.743
16546SOL     OW51476   8.928  10.751   9.149
16546SOL    HW151477   8.990  10.703   9.205
16546SOL    HW251478   8.854  10.692   9.139
16547SOL     OW51479   7.453  13.471   7.854
16547SOL    HW151480   7.420  13.413   7.786
16547SOL    HW251481   7.406  13.553   7.840
16548SOL     OW51482   0.241   9.661  12.190
16548SOL    HW151483   0.262   9.580  12.143
16548SOL    HW251484   0.218   9.632  12.278
16549SOL     OW51485   2.935   1.275  11.823
16549SOL    HW151486   2.942   1.317  11.909
16549SOL    HW251487   2.896   1.342  11.767
16550SOL     OW51488   6.929  10.016   3.150
16550SOL    HW151489   6.897  10.021   3.060
16550SOL    HW251490   7.004   9.957   3.146
16551SOL     OW51491   9.889   3.910   5.676
16551SOL    HW151492   9.800   3.944   5.687
16551SOL    HW251493   9.896   3.890   5.582
16552SOL     OW51494   7.840   9.597   8.435
16552SOL    HW151495   7.767   9.649   8.401
16552SOL    HW251496   7.820   9.507   8.409
16553SOL     OW51497  12.268  12.642   6.491
16553SOL    HW151498  12.176  12.656   6.469
16553SOL    HW251499  12.289  12.709   6.556
16554SOL     OW51500   4.319   1.259  11.405
16554SOL    HW151501   4.339   1.287  11.315
16554SOL    HW251502   4.241   1.309  11.428
16555SOL     OW51503   7.946  12.604  11.693
16555SOL    HW151504   7.919  12.584  11.603
16555SOL    HW251505   8.017  12.543  11.711
16556SOL     OW51506  10.726   9.453   7.461
16556SOL    HW151507  10.683   9.494   7.535
16556SOL    HW251508  10.686   9.493   7.384
16557SOL     OW51509   9.170   2.989  13.894
16557SOL    HW151510   9.131   3.074  13.875
16557SOL    HW251511   9.225   2.970  13.819
16558SOL     OW51512   7.373  11.382   6.127
16558SOL    HW151513   7.345  11.364   6.037
16558SOL    HW251514   7.446  11.444   6.118
16559SOL     OW51515   5.822   9.419   8.614
16559SOL    HW151516   5.842   9.327   8.627
16559SOL    HW251517   5.763   9.421   8.539
16560SOL     OW51518   3.136   6.551   1.030
16560SOL    HW151519   3.141   6.457   1.048
16560SOL    HW251520   3.054   6.579   1.072
16561SOL     OW51521   1.044   6.158  13.299
16561SOL    HW151522   1.016   6.238  13.344
16561SOL    HW251523   1.003   6.164  13.212
16562SOL     OW51524   2.402   6.089   7.572
16562SOL    HW151525   2.465   6.068   7.503
16562SOL    HW251526   2.451   6.147   7.632
16563SOL     OW51527  10.916   9.457   3.095
16563SOL    HW151528  10.967   9.455   3.014
16563SOL    HW251529  10.843   9.397   3.079
16564SOL     OW51530   1.608   3.159  13.240
16564SOL    HW151531   1.684   3.131  13.291
16564SOL    HW251532   1.572   3.233  13.289
16565SOL     OW51533  10.236  14.147   6.537
16565SOL    HW151534  10.267  14.157   6.627
16565SOL    HW251535  10.190  14.229   6.518
16566SOL     OW51536   1.173  13.792   7.203
16566SOL    HW151537   1.178  13.863   7.268
16566SOL    HW251538   1.158  13.836   7.120
16567SOL     OW51539   7.971  13.631   9.826
16567SOL    HW151540   7.917  13.640   9.904
16567SOL    HW251541   7.980  13.719   9.791
16568SOL     OW51542   9.137   6.266   9.738
16568SOL    HW151543   9.099   6.233   9.656
16568SOL    HW251544   9.084   6.226   9.807
16569SOL     OW51545   3.048  10.510   2.875
16569SOL    HW151546   3.129  10.546   2.837
16569SOL    HW251547   3.013  10.582   2.927
16570SOL     OW51548   7.692  13.142  11.891
16570SOL    HW151549   7.784  13.167  11.902
16570SOL    HW251550   7.645  13.225  11.880
16571SOL     OW51551  11.276   3.836  12.510
16571SOL    HW151552  11.321   3.869  12.432
16571SOL    HW251553  11.221   3.910  12.539
16572SOL     OW51554   3.033   2.239   1.490
16572SOL    HW151555   3.122   2.221   1.461
16572SOL    HW251556   3.037   2.326   1.529
16573SOL     OW51557  13.946   6.616   1.182
16573SOL    HW151558  14.038   6.626   1.157
16573SOL    HW251559  13.905   6.699   1.158
16574SOL     OW51560   1.255   6.406   2.378
16574SOL    HW151561   1.228   6.497   2.376
16574SOL    HW251562   1.240   6.377   2.468
16575SOL     OW51563   2.355  13.154   2.802
16575SOL    HW151564   2.441  13.127   2.770
16575SOL    HW251565   2.364  13.160   2.897
16576SOL     OW51566   0.843   1.367   2.675
16576SOL    HW151567   0.835   1.452   2.718
16576SOL    HW251568   0.897   1.385   2.598
16577SOL     OW51569   5.873   3.150   4.944
16577SOL    HW151570   5.844   3.141   4.853
16577SOL    HW251571   5.851   3.241   4.966
16578SOL     OW51572  13.364  14.872   4.210
16578SOL    HW151573  13.424  14.812   4.254
16578SOL    HW251574  13.410   0.081   4.209
16579SOL     OW51575   1.895   7.539  13.967
16579SOL    HW151576   1.978   7.570  13.932
16579SOL    HW251577   1.902   7.444  13.966
16580SOL     OW51578  11.482   9.328   3.493
16580SOL    HW151579  11.518   9.239   3.491
16580SOL    HW251580  11.547   9.381   3.447
16581SOL     OW51581  10.190  12.903   1.626
16581SOL    HW151582  10.201  12.993   1.596
16581SOL    HW251583  10.164  12.911   1.718
16582SOL     OW51584  12.402   8.975   1.764
16582SOL    HW151585  12.326   8.983   1.822
16582SOL    HW251586  12.400   9.054   1.710
16583SOL     OW51587  10.746  11.709  13.527
16583SOL    HW151588  10.775  11.768  13.596
16583SOL    HW251589  10.665  11.669  13.561
16584SOL     OW51590   8.863  13.726   5.912
16584SOL    HW151591   8.925  13.787   5.872
16584SOL    HW251592   8.917  13.649   5.933
16585SOL     OW51593   0.536  12.301   0.299
16585SOL    HW151594   0.485  12.380   0.282
16585SOL    HW251595   0.578  12.281   0.215
16586SOL     OW51596  13.775   0.559   4.796
16586SOL    HW151597  13.819   0.509   4.864
16586SOL    HW251598  13.763   0.646   4.835
16587SOL     OW51599   6.191  12.519   3.498
16587SOL    HW151600   6.107  12.562   3.512
16587SOL    HW251601   6.234  12.523   3.583
16588SOL     OW51602   3.245  10.495  12.913
16588SOL    HW151603   3.259  10.588  12.893
16588SOL    HW251604   3.201  10.460  12.836
16589SOL     OW51605   7.435   2.326   8.217
16589SOL    HW151606   7.436   2.353   8.125
16589SOL    HW251607   7.513   2.367   8.254
16590SOL     OW51608  13.201   9.140   2.231
16590SOL    HW151609  13.185   9.159   2.139
16590SOL    HW251610  13.293   9.161   2.245
16591SOL     OW51611   6.245   8.995   5.679
16591SOL    HW151612   6.255   8.952   5.595
16591SOL    HW251613   6.168   9.051   5.669
16592SOL     OW51614  14.673  14.447  14.099
16592SOL    HW151615  14.608  14.391  14.142
16592SOL    HW251616  14.628  14.479  14.021
16593SOL     OW51617   8.619  11.482   9.509
16593SOL    HW151618   8.670  11.510   9.433
16593SOL    HW251619   8.560  11.415   9.476
16594SOL     OW51620  13.219   5.386   0.771
16594SOL    HW151621  13.291   5.378   0.833
16594SOL    HW251622  13.218   5.479   0.747
16595SOL     OW51623  10.446  13.194   7.458
16595SOL    HW151624  10.484  13.108   7.441
16595SOL    HW251625  10.472  13.248   7.384
16596SOL     OW51626   0.491   9.525   6.495
16596SOL    HW151627   0.583   9.543   6.515
16596SOL    HW251628   0.447   9.609   6.510
16597SOL     OW51629   1.517   5.253  12.869
16597SOL    HW151630   1.473   5.206  12.940
16597SOL    HW251631   1.579   5.310  12.912
16598SOL     OW51632   8.512   8.189   1.410
16598SOL    HW151633   8.468   8.245   1.346
16598SOL    HW251634   8.601   8.223   1.415
16599SOL     OW51635  11.410   4.085   7.249
16599SOL    HW151636  11.453   4.033   7.317
16599SOL    HW251637  11.318   4.087   7.275
16600SOL     OW51638   1.962   6.426   2.193
16600SOL    HW151639   2.032   6.467   2.244
16600SOL    HW251640   1.936   6.349   2.245
16601SOL     OW51641   8.957   2.307  12.293
16601SOL    HW151642   8.913   2.365  12.231
16601SOL    HW251643   9.040   2.284  12.251
16602SOL     OW51644  12.484  12.520   7.903
16602SOL    HW151645  12.467  12.432   7.870
16602SOL    HW251646  12.515  12.569   7.827
16603SOL     OW51647   7.437  13.927   6.257
16603SOL    HW151648   7.389  13.859   6.303
16603SOL    HW251649   7.484  13.880   6.187
16604SOL     OW51650   4.109   9.433  13.283
16604SOL    HW151651   4.054   9.452  13.358
16604SOL    HW251652   4.169   9.507  13.278
16605SOL     OW51653  14.755  12.662   5.329
16605SOL    HW151654  14.828  12.618   5.286
16605SOL    HW251655  14.779  12.755   5.329
16606SOL     OW51656   5.684  11.245   2.227
16606SOL    HW151657   5.628  11.291   2.290
16606SOL    HW251658   5.671  11.293   2.145
16607SOL     OW51659   2.367  13.775   0.849
16607SOL    HW151660   2.310  13.787   0.924
16607SOL    HW251661   2.361  13.682   0.828
16608SOL     OW51662  14.325   6.911  13.762
16608SOL    HW151663  14.299   6.873  13.678
16608SOL    HW251664  14.391   6.977  13.738
16609SOL     OW51665   1.619   1.563   9.074
16609SOL    HW151666   1.581   1.550   8.987
16609SOL    HW251667   1.552   1.611   9.122
16610SOL     OW51668  10.984  13.344   1.432
16610SOL    HW151669  10.915  13.314   1.491
16610SOL    HW251670  11.035  13.406   1.484
16611SOL     OW51671  10.840   8.153  12.417
16611SOL    HW151672  10.813   8.167  12.508
16611SOL    HW251673  10.866   8.240  12.387
16612SOL     OW51674   0.187   4.348   2.456
16612SOL    HW151675   0.136   4.307   2.526
16612SOL    HW251676   0.208   4.276   2.397
16613SOL     OW51677  13.770  14.019  11.723
16613SOL    HW151678  13.729  13.973  11.651
16613SOL    HW251679  13.796  14.104  11.686
16614SOL     OW51680   4.559   6.454   1.001
16614SOL    HW151681   4.483   6.476   1.055
16614SOL    HW251682   4.581   6.364   1.026
16615SOL     OW51683   9.797   3.427  13.939
16615SOL    HW151684   9.805   3.365  13.867
16615SOL    HW251685   9.810   3.513  13.897
16616SOL     OW51686   5.541  12.941  11.840
16616SOL    HW151687   5.487  12.863  11.855
16616SOL    HW251688   5.532  12.959  11.746
16617SOL     OW51689   2.062   7.978  11.969
16617SOL    HW151690   2.088   8.015  11.885
16617SOL    HW251691   1.971   8.007  11.980
16618SOL     OW51692   7.024   0.896  10.510
16618SOL    HW151693   7.110   0.862  10.536
16618SOL    HW251694   7.028   0.899  10.414
16619SOL     OW51695   4.411   5.408   6.827
16619SOL    HW151696   4.372   5.457   6.755
16619SOL    HW251697   4.336   5.384   6.882
16620SOL     OW51698   7.311   0.608   2.674
16620SOL    HW151699   7.363   0.688   2.676
16620SOL    HW251700   7.368   0.541   2.712
16621SOL     OW51701   0.156   2.347   1.604
16621SOL    HW151702   0.228   2.350   1.667
16621SOL    HW251703   0.124   2.256   1.609
16622SOL     OW51704  12.599   7.021   8.309
16622SOL    HW151705  12.514   6.990   8.341
16622SOL    HW251706  12.582   7.044   8.217
16623SOL     OW51707   9.021  10.176   1.458
16623SOL    HW151708   9.012  10.207   1.368
16623SOL    HW251709   8.934  10.144   1.482
16624SOL     OW51710   6.818  10.135  14.530
16624SOL    HW151711   6.910  10.156  14.515
16624SOL    HW251712   6.816  10.092  14.616
16625SOL     OW51713   8.167   2.537   3.737
16625SOL    HW151714   8.249   2.531   3.687
16625SOL    HW251715   8.175   2.470   3.805
16626SOL     OW51716  13.017   7.803  13.449
16626SOL    HW151717  12.990   7.878  13.502
16626SOL    HW251718  12.936   7.774  13.406
16627SOL     OW51719   0.875   0.411   2.317
16627SOL    HW151720   0.891   0.488   2.371
16627SOL    HW251721   0.785   0.421   2.286
16628SOL     OW51722   6.757   2.251  11.020
16628SOL    HW151723   6.771   2.194  10.945
16628SOL    HW251724   6.776   2.339  10.988
16629SOL     OW51725   4.286   1.800   6.047
16629SOL    HW151726   4.198   1.762   6.040
16629SOL    HW251727   4.287   1.842   6.133
16630SOL     OW51728   0.843   9.121  11.690
16630SOL    HW151729   0.910   9.188  11.679
16630SOL    HW251730   0.848   9.097  11.782
16631SOL     OW51731   2.782  12.018   6.513
16631SOL    HW151732   2.700  12.010   6.562
16631SOL    HW251733   2.799  12.112   6.508
16632SOL     OW51734  13.819   0.527  13.715
16632SOL    HW151735  13.774   0.603  13.678
16632SOL    HW251736  13.749   0.475  13.756
16633SOL     OW51737   3.008   8.209  11.904
16633SOL    HW151738   3.020   8.222  11.999
16633SOL    HW251739   2.964   8.289  11.875
16634SOL     OW51740   6.387   4.463  10.359
16634SOL    HW151741   6.333   4.532  10.320
16634SOL    HW251742   6.340   4.437  10.437
16635SOL     OW51743  13.506   2.643   0.471
16635SOL    HW151744  13.570   2.653   0.541
16635SOL    HW251745  13.474   2.553   0.481
16636SOL     OW51746   9.796   3.278   1.039
16636SOL    HW151747   9.762   3.217   1.103
16636SOL    HW251748   9.816   3.225   0.962
16637SOL     OW51749  14.392   9.210   0.839
16637SOL    HW151750  14.391   9.175   0.750
16637SOL    HW251751  14.309   9.257   0.848
16638SOL     OW51752   6.838  13.667   1.647
16638SOL    HW151753   6.904  13.717   1.599
16638SOL    HW251754   6.852  13.576   1.618
16639SOL     OW51755   9.910   2.657   5.613
16639SOL    HW151756   9.961   2.719   5.561
16639SOL    HW251757   9.896   2.702   5.696
16640SOL     OW51758  12.665   2.853   9.167
16640SOL    HW151759  12.652   2.759   9.155
16640SOL    HW251760  12.689   2.862   9.259
16641SOL     OW51761  11.599  11.115   8.453
16641SOL    HW151762  11.518  11.065   8.455
16641SOL    HW251763  11.601  11.155   8.365
16642SOL     OW51764   7.635   5.004   8.088
16642SOL    HW151765   7.706   4.963   8.038
16642SOL    HW251766   7.613   5.082   8.037
16643SOL     OW51767   5.374  14.636   4.224
16643SOL    HW151768   5.400  14.592   4.143
16643SOL    HW251769   5.457  14.663   4.264
16644SOL     OW51770   8.310  10.351   5.426
16644SOL    HW151771   8.369  10.306   5.366
16644SOL    HW251772   8.238  10.382   5.370
16645SOL     OW51773   6.584  11.521   1.021
16645SOL    HW151774   6.524  11.458   1.062
16645SOL    HW251775   6.604  11.584   1.091
16646SOL     OW51776  14.682  10.066   0.328
16646SOL    HW151777  14.693  10.145   0.379
16646SOL    HW251778  14.589  10.063   0.307
16647SOL     OW51779   7.109   2.904  12.682
16647SOL    HW151780   7.072   2.919  12.769
16647SOL    HW251781   7.034   2.882  12.627
16648SOL     OW51782   6.075  12.854   5.244
16648SOL    HW151783   6.081  12.854   5.340
16648SOL    HW251784   6.120  12.773   5.218
16649SOL     OW51785   8.992   0.287  12.485
16649SOL    HW151786   9.002   0.367  12.536
16649SOL    HW251787   8.904   0.294  12.448
16650SOL     OW51788   0.215  11.908  13.820
16650SOL    HW151789   0.171  11.917  13.735
16650SOL    HW251790   0.284  11.974  13.819
16651SOL     OW51791   7.133  13.119   9.237
16651SOL    HW151792   7.167  13.032   9.258
16651SOL    HW251793   7.060  13.132   9.298
16652SOL     OW51794  11.300  13.762   3.549
16652SOL    HW151795  11.227  13.725   3.498
16652SOL    HW251796  11.359  13.799   3.483
16653SOL     OW51797   7.407   8.581   4.892
16653SOL    HW151798   7.482   8.567   4.950
16653SOL    HW251799   7.381   8.494   4.864
16654SOL     OW51800   1.820   5.211  10.686
16654SOL    HW151801   1.904   5.229  10.644
16654SOL    HW251802   1.840   5.149  10.756
16655SOL     OW51803  13.629  13.263   8.223
16655SOL    HW151804  13.602  13.347   8.259
16655SOL    HW251805  13.588  13.198   8.279
16656SOL     OW51806   9.776  10.399   3.920
16656SOL    HW151807   9.870  10.384   3.910
16656SOL    HW251808   9.737  10.312   3.921
16657SOL     OW51809   5.889  11.989   9.416
16657SOL    HW151810   5.812  11.935   9.399
16657SOL    HW251811   5.873  12.070   9.367
16658SOL     OW51812   2.818  11.506   3.417
16658SOL    HW151813   2.809  11.549   3.502
16658SOL    HW251814   2.822  11.412   3.437
16659SOL     OW51815   3.261   3.484  11.967
16659SOL    HW151816   3.279   3.524  12.053
16659SOL    HW251817   3.338   3.430  11.949
16660SOL     OW51818   0.767   3.479   0.893
16660SOL    HW151819   0.729   3.429   0.820
16660SOL    HW251820   0.849   3.434   0.913
16661SOL     OW51821   4.281   5.783   7.935
16661SOL    HW151822   4.372   5.762   7.918
16661SOL    HW251823   4.237   5.699   7.943
16662SOL     OW51824   9.061   2.623  11.682
16662SOL    HW151825   9.026   2.675  11.610
16662SOL    HW251826   9.059   2.683  11.757
16663SOL     OW51827  13.424  12.670  14.100
16663SOL    HW151828  13.358  12.736  14.122
16663SOL    HW251829  13.421  12.609  14.173
16664SOL     OW51830  11.280   0.559   2.758
16664SOL    HW151831  11.212   0.575   2.692
16664SOL    HW251832  11.346   0.627   2.742
16665SOL     OW51833  14.003  13.310  14.613
16665SOL    HW151834  13.944  13.259  14.669
16665SOL    HW251835  14.069  13.345  14.673
16666SOL     OW51836   6.384   3.789   3.827
16666SOL    HW151837   6.429   3.763   3.908
16666SOL    HW251838   6.293   3.763   3.841
16667SOL     OW51839   3.458  13.403   9.729
16667SOL    HW151840   3.547  13.425   9.699
16667SOL    HW251841   3.466  13.400   9.825
16668SOL     OW51842   6.031   2.833  11.383
16668SOL    HW151843   6.025   2.812  11.477
16668SOL    HW251844   6.116   2.875  11.372
16669SOL     OW51845  12.397   2.440   6.273
16669SOL    HW151846  12.435   2.354   6.255
16669SOL    HW251847  12.471   2.495   6.296
16670SOL     OW51848   2.848   7.441   6.662
16670SOL    HW151849   2.826   7.353   6.629
16670SOL    HW251850   2.881   7.426   6.750
16671SOL     OW51851   0.813  11.077   1.652
16671SOL    HW151852   0.833  11.112   1.739
16671SOL    HW251853   0.838  11.148   1.592
16672SOL     OW51854   3.575   1.824   6.650
16672SOL    HW151855   3.562   1.740   6.607
16672SOL    HW251856   3.654   1.812   6.703
16673SOL     OW51857  12.186   2.933   6.903
16673SOL    HW151858  12.137   2.866   6.855
16673SOL    HW251859  12.122   2.970   6.964
16674SOL     OW51860   1.997  11.497   7.873
16674SOL    HW151861   2.089  11.501   7.900
16674SOL    HW251862   1.959  11.427   7.926
16675SOL     OW51863   8.196   5.676   3.651
16675SOL    HW151864   8.272   5.719   3.613
16675SOL    HW251865   8.124   5.738   3.638
16676SOL     OW51866   9.165   6.477   7.424
16676SOL    HW151867   9.237   6.446   7.479
16676SOL    HW251868   9.105   6.519   7.486
16677SOL     OW51869   1.963   5.291   0.278
16677SOL    HW151870   2.021   5.282   0.202
16677SOL    HW251871   2.001   5.232   0.343
16678SOL     OW51872   4.925   7.459   4.923
16678SOL    HW151873   4.957   7.527   4.863
16678SOL    HW251874   4.831   7.476   4.930
16679SOL     OW51875   8.208   2.322   8.430
16679SOL    HW151876   8.167   2.392   8.380
16679SOL    HW251877   8.173   2.333   8.519
16680SOL     OW51878   1.842  12.386   2.379
16680SOL    HW151879   1.770  12.372   2.441
16680SOL    HW251880   1.855  12.300   2.339
16681SOL     OW51881  12.760   3.173  12.889
16681SOL    HW151882  12.792   3.263  12.893
16681SOL    HW251883  12.675   3.175  12.931
16682SOL     OW51884  10.116   0.425   9.859
16682SOL    HW151885  10.084   0.349   9.908
16682SOL    HW251886  10.209   0.428   9.878
16683SOL     OW51887  12.617   7.006   7.693
16683SOL    HW151888  12.620   6.955   7.612
16683SOL    HW251889  12.656   7.090   7.670
16684SOL     OW51890   1.497   3.848  10.282
16684SOL    HW151891   1.457   3.772  10.323
16684SOL    HW251892   1.485   3.834  10.188
16685SOL     OW51893  13.078   1.140   2.139
16685SOL    HW151894  13.132   1.113   2.065
16685SOL    HW251895  13.078   1.064   2.198
16686SOL     OW51896   2.585  12.046   7.125
16686SOL    HW151897   2.613  11.955   7.137
16686SOL    HW251898   2.489  12.041   7.127
16687SOL     OW51899  11.017   6.487  13.624
16687SOL    HW151900  10.978   6.416  13.675
16687SOL    HW251901  10.943   6.535  13.588
16688SOL     OW51902   0.348   3.526   2.039
16688SOL    HW151903   0.275   3.528   2.101
16688SOL    HW251904   0.401   3.452   2.067
16689SOL     OW51905  11.642   1.325   0.621
16689SOL    HW151906  11.702   1.257   0.589
16689SOL    HW251907  11.585   1.278   0.682
16690SOL     OW51908   1.111  13.520   5.169
16690SOL    HW151909   1.064  13.456   5.224
16690SOL    HW251910   1.192  13.475   5.145
16691SOL     OW51911  11.116   6.935   0.722
16691SOL    HW151912  11.134   7.025   0.694
16691SOL    HW251913  11.098   6.888   0.640
16692SOL     OW51914  12.115   0.257  11.319
16692SOL    HW151915  12.152   0.328  11.266
16692SOL    HW251916  12.048   0.218  11.263
16693SOL     OW51917  11.017   7.929   2.029
16693SOL    HW151918  11.067   7.850   2.049
16693SOL    HW251919  10.940   7.923   2.086
16694SOL     OW51920   0.953   4.519   1.902
16694SOL    HW151921   1.006   4.464   1.960
16694SOL    HW251922   1.003   4.600   1.893
16695SOL     OW51923   0.466  13.174  11.819
16695SOL    HW151924   0.545  13.228  11.818
16695SOL    HW251925   0.440  13.168  11.727
16696SOL     OW51926  12.922  12.455   7.850
16696SOL    HW151927  12.851  12.445   7.787
16696SOL    HW251928  12.973  12.374   7.842
16697SOL     OW51929   1.027   0.811   9.704
16697SOL    HW151930   0.941   0.795   9.743
16697SOL    HW251931   1.088   0.758   9.756
16698SOL     OW51932   2.229   6.606  12.097
16698SOL    HW151933   2.265   6.622  12.185
16698SOL    HW251934   2.181   6.686  12.076
16699SOL     OW51935  12.558   4.238   2.269
16699SOL    HW151936  12.574   4.265   2.179
16699SOL    HW251937  12.539   4.320   2.315
16700SOL     OW51938   2.242  12.188   3.203
16700SOL    HW151939   2.253  12.102   3.244
16700SOL    HW251940   2.244  12.170   3.109
16701SOL     OW51941   7.066  10.618  11.599
16701SOL    HW151942   7.146  10.603  11.548
16701SOL    HW251943   7.077  10.561  11.676
16702SOL     OW51944  14.187   8.699   0.518
16702SOL    HW151945  14.203   8.618   0.567
16702SOL    HW251946  14.123   8.674   0.452
16703SOL     OW51947   8.835   5.545   6.130
16703SOL    HW151948   8.812   5.580   6.216
16703SOL    HW251949   8.762   5.487   6.107
16704SOL     OW51950   1.693   5.155   8.263
16704SOL    HW151951   1.748   5.098   8.208
16704SOL    HW251952   1.733   5.150   8.350
16705SOL     OW51953   7.171  14.038   1.275
16705SOL    HW151954   7.199  14.051   1.184
16705SOL    HW251955   7.088  14.085   1.281
16706SOL     OW51956   1.444  11.614   8.785
16706SOL    HW151957   1.369  11.644   8.733
16706SOL    HW251958   1.496  11.694   8.798
16707SOL     OW51959   0.455   9.340   5.635
16707SOL    HW151960   0.453   9.416   5.576
16707SOL    HW251961   0.508   9.275   5.589
16708SOL     OW51962   3.263   2.313   8.232
16708SOL    HW151963   3.177   2.271   8.233
16708SOL    HW251964   3.312   2.272   8.303
16709SOL     OW51965   2.751   0.744   7.363
16709SOL    HW151966   2.770   0.696   7.443
16709SOL    HW251967   2.832   0.790   7.342
16710SOL     OW51968  14.344   8.742  14.814
16710SOL    HW151969  14.288   8.669  14.838
16710SOL    HW251970  14.415   8.740   0.005
16711SOL     OW51971   1.104   6.919  11.806
16711SOL    HW151972   1.175   6.877  11.758
16711SOL    HW251973   1.026   6.903  11.752
16712SOL     OW51974  13.521   6.267   1.402
16712SOL    HW151975  13.547   6.344   1.351
16712SOL    HW251976  13.584   6.200   1.378
16713SOL     OW51977   7.417   3.149   6.926
16713SOL    HW151978   7.451   3.138   7.015
16713SOL    HW251979   7.326   3.176   6.938
16714SOL     OW51980   9.346   7.541  13.424
16714SOL    HW151981   9.319   7.623  13.466
16714SOL    HW251982   9.397   7.568  13.348
16715SOL     OW51983  10.683  14.336  10.875
16715SOL    HW151984  10.683  14.309  10.783
16715SOL    HW251985  10.591  14.344  10.898
16716SOL     OW51986   1.748   1.162  12.256
16716SOL    HW151987   1.660   1.140  12.288
16716SOL    HW251988   1.779   1.081  12.215
16717SOL     OW51989  12.270   8.803   5.781
16717SOL    HW151990  12.284   8.802   5.686
16717SOL    HW251991  12.252   8.895   5.801
16718SOL     OW51992   7.401   5.267   6.378
16718SOL    HW151993   7.484   5.291   6.420
16718SOL    HW251994   7.423   5.254   6.286
16719SOL     OW51995  10.765   7.692  14.851
16719SOL    HW151996  10.836   7.699  14.788
16719SOL    HW251997  10.698   7.752  14.817
16720SOL     OW51998  11.987  13.301   5.581
16720SOL    HW151999  11.991  13.249   5.500
16720SOL    HW252000  12.019  13.242   5.649
16721SOL     OW52001   8.057  14.705   7.335
16721SOL    HW152002   8.066  14.713   7.240
16721SOL    HW252003   7.997  14.776   7.360
16722SOL     OW52004  14.383  10.451  12.263
16722SOL    HW152005  14.438  10.383  12.302
16722SOL    HW252006  14.299  10.407  12.247
16723SOL     OW52007   8.253  10.712  14.038
16723SOL    HW152008   8.311  10.788  14.026
16723SOL    HW252009   8.257  10.666  13.954
16724SOL     OW52010   3.630  13.810   0.814
16724SOL    HW152011   3.572  13.796   0.889
16724SOL    HW252012   3.708  13.758   0.835
16725SOL     OW52013  12.542  11.425   7.664
16725SOL    HW152014  12.446  11.427   7.657
16725SOL    HW252015  12.572  11.437   7.574
16726SOL     OW52016   8.126  14.380   3.860
16726SOL    HW152017   8.172  14.366   3.943
16726SOL    HW252018   8.113  14.292   3.825
16727SOL     OW52019   4.223   7.332   2.800
16727SOL    HW152020   4.192   7.378   2.878
16727SOL    HW252021   4.145   7.325   2.744
16728SOL     OW52022  11.583  10.443   7.984
16728SOL    HW152023  11.579  10.395   7.902
16728SOL    HW252024  11.513  10.508   7.978
16729SOL     OW52025   9.518   7.732   6.780
16729SOL    HW152026   9.515   7.717   6.685
16729SOL    HW252027   9.597   7.784   6.793
16730SOL     OW52028   4.964   9.727   0.743
16730SOL    HW152029   5.011   9.759   0.820
16730SOL    HW252030   4.934   9.640   0.768
16731SOL     OW52031   0.841  12.936   6.746
16731SOL    HW152032   0.889  12.942   6.829
16731SOL    HW252033   0.808  13.024   6.731
16732SOL     OW52034   9.706  11.059   8.557
16732SOL    HW152035   9.656  11.136   8.530
16732SOL    HW252036   9.691  10.995   8.487
16733SOL     OW52037   0.394   7.841   7.762
16733SOL    HW152038   0.421   7.755   7.731
16733SOL    HW252039   0.407   7.899   7.687
16734SOL     OW52040   5.437   9.634  10.949
16734SOL    HW152041   5.411   9.587  11.028
16734SOL    HW252042   5.435   9.568  10.880
16735SOL     OW52043   1.067   5.776   5.343
16735SOL    HW152044   1.086   5.859   5.387
16735SOL    HW252045   0.989   5.793   5.291
16736SOL     OW52046   4.896  10.271   9.535
16736SOL    HW152047   4.950  10.305   9.606
16736SOL    HW252048   4.954  10.276   9.458
16737SOL     OW52049   3.270   5.001   8.089
16737SOL    HW152050   3.331   5.020   8.160
16737SOL    HW252051   3.239   4.912   8.108
16738SOL     OW52052   7.076   4.506   1.099
16738SOL    HW152053   7.092   4.570   1.030
16738SOL    HW252054   7.162   4.466   1.115
16739SOL     OW52055   9.127   0.110   0.592
16739SOL    HW152056   9.078   0.167   0.651
16739SOL    HW252057   9.201   0.079   0.644
16740SOL     OW52058   4.998  11.934   6.625
16740SOL    HW152059   5.006  11.863   6.561
16740SOL    HW252060   5.019  11.892   6.709
16741SOL     OW52061   3.765   6.131   9.206
16741SOL    HW152062   3.808   6.087   9.132
16741SOL    HW252063   3.757   6.063   9.273
16742SOL     OW52064   2.195  10.882  12.646
16742SOL    HW152065   2.108  10.892  12.609
16742SOL    HW252066   2.251  10.936  12.590
16743SOL     OW52067   3.521   2.274  12.688
16743SOL    HW152068   3.472   2.336  12.634
16743SOL    HW252069   3.571   2.329  12.749
16744SOL     OW52070   0.916   0.534   9.572
16744SOL    HW152071   0.884   0.588   9.644
16744SOL    HW252072   0.838   0.517   9.519
16745SOL     OW52073   0.296   3.313   4.548
16745SOL    HW152074   0.363   3.381   4.557
16745SOL    HW252075   0.261   3.326   4.460
16746SOL     OW52076   9.061  11.931   3.401
16746SOL    HW152077   8.969  11.953   3.415
16746SOL    HW252078   9.102  12.015   3.380
16747SOL     OW52079   7.226   3.827   3.904
16747SOL    HW152080   7.231   3.779   3.821
16747SOL    HW252081   7.190   3.912   3.880
16748SOL     OW52082  12.620  13.473  14.634
16748SOL    HW152083  12.696  13.531  14.627
16748SOL    HW252084  12.595  13.455  14.543
16749SOL     OW52085   5.733   7.423  12.591
16749SOL    HW152086   5.674   7.457  12.523
16749SOL    HW252087   5.786   7.358  12.545
16750SOL     OW52088  12.228   5.520   5.065
16750SOL    HW152089  12.219   5.425   5.072
16750SOL    HW252090  12.234   5.550   5.156
16751SOL     OW52091  14.785  11.253  13.369
16751SOL    HW152092  14.710  11.277  13.314
16751SOL    HW252093  14.767  11.163  13.395
16752SOL     OW52094  10.623  12.122  10.133
16752SOL    HW152095  10.666  12.086  10.055
16752SOL    HW252096  10.693  12.130  10.197
16753SOL     OW52097  11.576   7.049   9.409
16753SOL    HW152098  11.572   7.145   9.410
16753SOL    HW252099  11.485   7.021   9.422
16754SOL     OW52100   4.476   2.338  11.802
16754SOL    HW152101   4.440   2.264  11.851
16754SOL    HW252102   4.471   2.412  11.863
16755SOL     OW52103   2.548   1.194   8.588
16755SOL    HW152104   2.582   1.162   8.672
16755SOL    HW252105   2.493   1.269   8.611
16756SOL     OW52106   7.123  12.813   2.193
16756SOL    HW152107   7.077  12.893   2.219
16756SOL    HW252108   7.058  12.744   2.204
16757SOL     OW52109   6.245  13.188   2.685
16757SOL    HW152110   6.265  13.133   2.761
16757SOL    HW252111   6.316  13.252   2.681
16758SOL     OW52112  11.252   7.681   9.326
16758SOL    HW152113  11.213   7.599   9.357
16758SOL    HW252114  11.311   7.656   9.256
16759SOL     OW52115  10.477  11.739  14.645
16759SOL    HW152116  10.430  11.708  14.723
16759SOL    HW252117  10.414  11.731  14.574
16760SOL     OW52118   1.125   1.446  14.325
16760SOL    HW152119   1.165   1.359  14.334
16760SOL    HW252120   1.080   1.459  14.408
16761SOL     OW52121   7.941   5.081   5.238
16761SOL    HW152122   7.997   5.125   5.175
16761SOL    HW252123   7.993   5.007   5.269
16762SOL     OW52124   0.060  13.548  12.477
16762SOL    HW152125   0.127  13.558  12.545
16762SOL    HW252126   0.097  13.484  12.416
16763SOL     OW52127  13.882  14.705  12.578
16763SOL    HW152128  13.909  14.645  12.509
16763SOL    HW252129  13.787  14.716  12.565
16764SOL     OW52130   1.782   1.336   5.393
16764SOL    HW152131   1.866   1.298   5.367
16764SOL    HW252132   1.726   1.324   5.316
16765SOL     OW52133   9.706  10.775   5.595
16765SOL    HW152134   9.640  10.726   5.644
16765SOL    HW252135   9.695  10.865   5.624
16766SOL     OW52136   3.435   7.710   2.143
16766SOL    HW152137   3.481   7.703   2.226
16766SOL    HW252138   3.504   7.724   2.078
16767SOL     OW52139   5.838  14.385  14.673
16767SOL    HW152140   5.759  14.438  14.670
16767SOL    HW252141   5.829  14.332  14.752
16768SOL     OW52142  14.086   6.729   2.319
16768SOL    HW152143  14.110   6.636   2.317
16768SOL    HW252144  14.092   6.753   2.411
16769SOL     OW52145  11.887   9.243  12.246
16769SOL    HW152146  11.880   9.333  12.214
16769SOL    HW252147  11.870   9.250  12.340
16770SOL     OW52148   4.568   6.132   9.821
16770SOL    HW152149   4.541   6.108   9.732
16770SOL    HW252150   4.498   6.097   9.877
16771SOL     OW52151  10.249   1.954  13.838
16771SOL    HW152152  10.338   1.920  13.836
16771SOL    HW252153  10.257   2.042  13.801
16772SOL     OW52154   8.384   8.980  12.801
16772SOL    HW152155   8.326   9.056  12.794
16772SOL    HW252156   8.469   9.018  12.824
16773SOL     OW52157   8.676   2.638   1.021
16773SOL    HW152158   8.728   2.581   1.077
16773SOL    HW252159   8.740   2.685   0.968
16774SOL     OW52160   7.144   2.299  11.912
16774SOL    HW152161   7.196   2.375  11.936
16774SOL    HW252162   7.055   2.332  11.900
16775SOL     OW52163   5.333  10.851   5.166
16775SOL    HW152164   5.426  10.830   5.175
16775SOL    HW252165   5.308  10.818   5.080
16776SOL     OW52166   7.858   4.967   6.400
16776SOL    HW152167   7.855   4.899   6.468
16776SOL    HW252168   7.889   4.921   6.322
16777SOL     OW52169  12.589   6.701   0.222
16777SOL    HW152170  12.587   6.756   0.144
16777SOL    HW252171  12.547   6.619   0.195
16778SOL     OW52172   9.616   4.499   1.896
16778SOL    HW152173   9.711   4.496   1.909
16778SOL    HW252174   9.602   4.456   1.811
16779SOL     OW52175   5.570   7.878   4.355
16779SOL    HW152176   5.493   7.852   4.304
16779SOL    HW252177   5.574   7.973   4.346
16780SOL     OW52178  12.391   7.146   2.772
16780SOL    HW152179  12.315   7.134   2.715
16780SOL    HW252180  12.440   7.064   2.765
16781SOL     OW52181   9.220   8.585   1.762
16781SOL    HW152182   9.241   8.648   1.831
16781SOL    HW252183   9.226   8.635   1.681
16782SOL     OW52184  12.861   0.106   2.045
16782SOL    HW152185  12.844   0.128   1.953
16782SOL    HW252186  12.782   0.059   2.073
16783SOL     OW52187   1.962  14.235  11.379
16783SOL    HW152188   1.965  14.252  11.285
16783SOL    HW252189   2.037  14.283  11.414
16784SOL     OW52190  10.738   7.212   3.007
16784SOL    HW152191  10.817   7.245   3.048
16784SOL    HW252192  10.738   7.250   2.919
16785SOL     OW52193   0.797   9.689  11.886
16785SOL    HW152194   0.811   9.688  11.791
16785SOL    HW252195   0.706   9.718  11.896
16786SOL     OW52196   4.820   4.202  13.428
16786SOL    HW152197   4.872   4.283  13.434
16786SOL    HW252198   4.776   4.209  13.343
16787SOL     OW52199   5.348   6.657  11.664
16787SOL    HW152200   5.268   6.677  11.712
16787SOL    HW252201   5.397   6.598  11.721
16788SOL     OW52202  11.802   7.796   8.502
16788SOL    HW152203  11.876   7.753   8.461
16788SOL    HW252204  11.725   7.761   8.457
16789SOL     OW52205   0.331  11.059   6.383
16789SOL    HW152206   0.393  10.988   6.366
16789SOL    HW252207   0.245  11.017   6.378
16790SOL     OW52208   2.007  13.900   6.033
16790SOL    HW152209   1.994  13.989   5.999
16790SOL    HW252210   2.098  13.898   6.061
16791SOL     OW52211   4.606   5.857  12.229
16791SOL    HW152212   4.660   5.873  12.306
16791SOL    HW252213   4.537   5.797  12.259
16792SOL     OW52214   8.428  12.353   7.774
16792SOL    HW152215   8.391  12.302   7.846
16792SOL    HW252216   8.523  12.349   7.788
16793SOL     OW52217   1.555   5.871   6.710
16793SOL    HW152218   1.524   5.945   6.659
16793SOL    HW252219   1.557   5.903   6.800
16794SOL     OW52220  11.454   2.080   5.573
16794SOL    HW152221  11.458   2.035   5.658
16794SOL    HW252222  11.546   2.097   5.552
16795SOL     OW52223   6.633   5.481  12.853
16795SOL    HW152224   6.621   5.569  12.818
16795SOL    HW252225   6.550   5.437  12.835
16796SOL     OW52226   5.863  10.538   2.839
16796SOL    HW152227   5.846  10.604   2.906
16796SOL    HW252228   5.898  10.463   2.888
16797SOL     OW52229   7.016  11.300   4.642
16797SOL    HW152230   7.015  11.296   4.738
16797SOL    HW252231   6.938  11.253   4.615
16798SOL     OW52232  11.689   6.927   5.474
16798SOL    HW152233  11.716   6.997   5.534
16798SOL    HW252234  11.595   6.916   5.491
16799SOL     OW52235   3.119   5.115   2.195
16799SOL    HW152236   3.028   5.106   2.166
16799SOL    HW252237   3.152   5.025   2.195
16800SOL     OW52238  13.969   1.905  12.534
16800SOL    HW152239  14.024   1.843  12.485
16800SOL    HW252240  13.991   1.991  12.499
16801SOL     OW52241   2.927   3.234   5.428
16801SOL    HW152242   2.987   3.196   5.493
16801SOL    HW252243   2.870   3.162   5.403
16802SOL     OW52244  11.809   9.538   3.853
16802SOL    HW152245  11.784   9.615   3.803
16802SOL    HW252246  11.888   9.505   3.809
16803SOL     OW52247  13.708   1.275   7.125
16803SOL    HW152248  13.693   1.197   7.071
16803SOL    HW252249  13.628   1.326   7.117
16804SOL     OW52250   6.245   6.384   7.101
16804SOL    HW152251   6.257   6.476   7.126
16804SOL    HW252252   6.170   6.385   7.042
16805SOL     OW52253   5.986   7.943   1.334
16805SOL    HW152254   5.968   7.880   1.264
16805SOL    HW252255   6.045   7.896   1.393
16806SOL     OW52256  10.795   2.115  12.111
16806SOL    HW152257  10.734   2.043  12.126
16806SOL    HW252258  10.743   2.194  12.125
16807SOL     OW52259   9.525   0.174   6.298
16807SOL    HW152260   9.493   0.107   6.358
16807SOL    HW252261   9.517   0.134   6.211
16808SOL     OW52262   4.823   4.320   7.540
16808SOL    HW152263   4.886   4.392   7.538
16808SOL    HW252264   4.802   4.309   7.633
16809SOL     OW52265   7.629   9.934  11.913
16809SOL    HW152266   7.582  10.011  11.944
16809SOL    HW252267   7.563   9.882  11.868
16810SOL     OW52268   6.099   6.768  12.284
16810SOL    HW152269   6.182   6.735  12.250
16810SOL    HW252270   6.103   6.750  12.378
16811SOL     OW52271   5.388   6.926  11.360
16811SOL    HW152272   5.432   6.995  11.311
16811SOL    HW252273   5.437   6.846  11.340
16812SOL     OW52274  10.646  10.186   1.721
16812SOL    HW152275  10.620  10.271   1.758
16812SOL    HW252276  10.564  10.148   1.690
16813SOL     OW52277  11.776  13.576  13.623
16813SOL    HW152278  11.833  13.554  13.550
16813SOL    HW252279  11.761  13.671  13.615
16814SOL     OW52280  14.618  11.462   1.801
16814SOL    HW152281  14.598  11.480   1.893
16814SOL    HW252282  14.710  11.433   1.802
16815SOL     OW52283  12.110   9.920   6.089
16815SOL    HW152284  12.141   9.968   6.166
16815SOL    HW252285  12.019   9.949   6.078
16816SOL     OW52286   4.124  12.219   8.244
16816SOL    HW152287   4.063  12.164   8.196
16816SOL    HW252288   4.074  12.297   8.267
16817SOL     OW52289   5.429   6.549  10.605
16817SOL    HW152290   5.352   6.518  10.559
16817SOL    HW252291   5.487   6.473  10.609
16818SOL     OW52292   8.085  10.330   1.982
16818SOL    HW152293   7.997  10.306   1.954
16818SOL    HW252294   8.071  10.389   2.056
16819SOL     OW52295   2.529   0.483   0.079
16819SOL    HW152296   2.571   0.406   0.041
16819SOL    HW252297   2.570   0.557   0.036
16820SOL     OW52298   5.476   8.149   5.486
16820SOL    HW152299   5.478   8.159   5.581
16820SOL    HW252300   5.427   8.068   5.471
16821SOL     OW52301   8.373  14.812   6.436
16821SOL    HW152302   8.412  14.872   6.373
16821SOL    HW252303   8.330  14.746   6.382
16822SOL     OW52304  14.193  14.766   2.079
16822SOL    HW152305  14.182  14.733   1.990
16822SOL    HW252306  14.184  14.861   2.071
16823SOL     OW52307  11.761  10.836  14.466
16823SOL    HW152308  11.783  10.746  14.442
16823SOL    HW252309  11.838  10.867  14.514
16824SOL     OW52310   8.799   4.658   8.921
16824SOL    HW152311   8.718   4.609   8.911
16824SOL    HW252312   8.863   4.594   8.952
16825SOL     OW52313   6.929   7.098  14.233
16825SOL    HW152314   6.963   7.010  14.219
16825SOL    HW252315   6.913   7.104  14.327
16826SOL     OW52316   7.001   0.751   1.951
16826SOL    HW152317   6.966   0.768   2.038
16826SOL    HW252318   7.032   0.836   1.920
16827SOL     OW52319   6.344   9.773  11.810
16827SOL    HW152320   6.360   9.843  11.873
16827SOL    HW252321   6.429   9.729  11.802
16828SOL     OW52322  13.863   4.645   6.249
16828SOL    HW152323  13.932   4.680   6.304
16828SOL    HW252324  13.864   4.551   6.266
16829SOL     OW52325  13.536   4.415   3.641
16829SOL    HW152326  13.624   4.415   3.603
16829SOL    HW252327  13.521   4.507   3.665
16830SOL     OW52328   8.668   5.669   9.258
16830SOL    HW152329   8.676   5.574   9.258
16830SOL    HW252330   8.754   5.700   9.286
16831SOL     OW52331  13.991   4.699   3.154
16831SOL    HW152332  14.085   4.687   3.160
16831SOL    HW252333  13.973   4.700   3.059
16832SOL     OW52334  10.607  11.462  14.706
16832SOL    HW152335  10.540  11.428  14.647
16832SOL    HW252336  10.576  11.549  14.731
16833SOL     OW52337   6.601   0.433   4.132
16833SOL    HW152338   6.627   0.359   4.186
16833SOL    HW252339   6.641   0.509   4.174
16834SOL     OW52340   2.162  12.085   2.298
16834SOL    HW152341   2.257  12.095   2.287
16834SOL    HW252342   2.144  12.119   2.385
16835SOL     OW52343   2.100   2.361  12.202
16835SOL    HW152344   2.082   2.396  12.290
16835SOL    HW252345   2.162   2.290  12.217
16836SOL     OW52346  12.080   8.754  14.635
16836SOL    HW152347  12.053   8.796  14.717
16836SOL    HW252348  12.020   8.680  14.625
16837SOL     OW52349   0.723  13.212   9.066
16837SOL    HW152350   0.759  13.168   9.143
16837SOL    HW252351   0.682  13.142   9.015
16838SOL     OW52352   2.734   3.718  10.238
16838SOL    HW152353   2.686   3.645  10.200
16838SOL    HW252354   2.672   3.761  10.296
16839SOL     OW52355  11.056   5.699   0.998
16839SOL    HW152356  11.151   5.689   1.008
16839SOL    HW252357  11.045   5.775   0.942
16840SOL     OW52358  13.505  12.400  11.683
16840SOL    HW152359  13.514  12.481  11.632
16840SOL    HW252360  13.583  12.398  11.738
16841SOL     OW52361  13.656  13.231   3.646
16841SOL    HW152362  13.627  13.315   3.611
16841SOL    HW252363  13.693  13.252   3.732
16842SOL     OW52364   7.605   9.233   6.967
16842SOL    HW152365   7.557   9.160   7.007
16842SOL    HW252366   7.562   9.246   6.883
16843SOL     OW52367   9.256  14.372  10.414
16843SOL    HW152368   9.337  14.415  10.443
16843SOL    HW252369   9.186  14.430  10.446
16844SOL     OW52370  14.632   2.336  14.651
16844SOL    HW152371  14.610   2.379  14.568
16844SOL    HW252372  14.548   2.311  14.688
16845SOL     OW52373  13.467  11.161  11.070
16845SOL    HW152374  13.508  11.171  11.156
16845SOL    HW252375  13.378  11.196  11.082
16846SOL     OW52376   0.269  12.651   1.444
16846SOL    HW152377   0.332  12.722   1.456
16846SOL    HW252378   0.318  12.571   1.462
16847SOL     OW52379   3.112   3.690  12.766
16847SOL    HW152380   3.160   3.623  12.717
16847SOL    HW252381   3.086   3.646  12.848
16848SOL     OW52382  10.683   2.505   1.872
16848SOL    HW152383  10.636   2.437   1.921
16848SOL    HW252384  10.718   2.459   1.796
16849SOL     OW52385   9.768   6.655   2.616
16849SOL    HW152386   9.733   6.702   2.540
16849SOL    HW252387   9.808   6.724   2.670
16850SOL     OW52388  11.630  14.633   8.719
16850SOL    HW152389  11.616  14.545   8.686
16850SOL    HW252390  11.714  14.629   8.764
16851SOL     OW52391  13.105   9.700   6.855
16851SOL    HW152392  13.104   9.610   6.888
16851SOL    HW252393  13.076   9.693   6.764
16852SOL     OW52394  10.743  10.627   9.666
16852SOL    HW152395  10.663  10.586   9.632
16852SOL    HW252396  10.730  10.721   9.651
16853SOL     OW52397   8.325   7.872   1.510
16853SOL    HW152398   8.281   7.940   1.458
16853SOL    HW252399   8.371   7.920   1.578
16854SOL     OW52400   9.575   6.708   8.003
16854SOL    HW152401   9.644   6.752   7.952
16854SOL    HW252402   9.610   6.704   8.092
16855SOL     OW52403   7.456   7.822   7.787
16855SOL    HW152404   7.483   7.861   7.871
16855SOL    HW252405   7.465   7.894   7.724
16856SOL     OW52406   6.358  14.657   3.687
16856SOL    HW152407   6.322  14.573   3.658
16856SOL    HW252408   6.445  14.661   3.646
16857SOL     OW52409  14.752   8.252  14.780
16857SOL    HW152410  14.725   8.219  14.866
16857SOL    HW252411  14.729   8.345  14.782
16858SOL     OW52412   1.769   2.916   1.475
16858SOL    HW152413   1.821   2.836   1.465
16858SOL    HW252414   1.833   2.984   1.495
16859SOL     OW52415   3.258  14.401   0.170
16859SOL    HW152416   3.177  14.453   0.170
16859SOL    HW252417   3.247  14.341   0.096
16860SOL     OW52418   9.810  11.768   8.177
16860SOL    HW152419   9.862  11.844   8.151
16860SOL    HW252420   9.763  11.742   8.098
16861SOL     OW52421   2.911  11.234  14.021
16861SOL    HW152422   2.939  11.247  14.112
16861SOL    HW252423   2.821  11.202  14.028
16862SOL     OW52424   3.028   1.188   0.617
16862SOL    HW152425   3.093   1.148   0.559
16862SOL    HW252426   2.944   1.152   0.589
16863SOL     OW52427   0.871   7.806   3.911
16863SOL    HW152428   0.899   7.716   3.895
16863SOL    HW252429   0.824   7.801   3.995
16864SOL     OW52430  12.258   3.253   1.376
16864SOL    HW152431  12.163   3.246   1.374
16864SOL    HW252432  12.283   3.209   1.458
16865SOL     OW52433   6.623  14.382  13.393
16865SOL    HW152434   6.659  14.451  13.449
16865SOL    HW252435   6.625  14.420  13.305
16866SOL     OW52436  13.472  13.322   1.639
16866SOL    HW152437  13.505  13.303   1.552
16866SOL    HW252438  13.511  13.255   1.695
16867SOL     OW52439  10.497  11.421  10.843
16867SOL    HW152440  10.479  11.396  10.753
16867SOL    HW252441  10.592  11.437  10.845
16868SOL     OW52442  10.621   6.543   9.269
16868SOL    HW152443  10.677   6.602   9.319
16868SOL    HW252444  10.553   6.598   9.233
16869SOL     OW52445   1.149   0.936   0.720
16869SOL    HW152446   1.233   0.914   0.761
16869SOL    HW252447   1.164   1.022   0.681
16870SOL     OW52448  10.606   4.238   6.755
16870SOL    HW152449  10.636   4.290   6.830
16870SOL    HW252450  10.679   4.239   6.694
16871SOL     OW52451  11.703  12.627   9.594
16871SOL    HW152452  11.663  12.617   9.680
16871SOL    HW252453  11.796  12.640   9.613
16872SOL     OW52454   8.730  13.867   8.370
16872SOL    HW152455   8.729  13.772   8.379
16872SOL    HW252456   8.742  13.882   8.277
16873SOL     OW52457  12.962   6.778   6.206
16873SOL    HW152458  13.048   6.756   6.242
16873SOL    HW252459  12.923   6.694   6.182
16874SOL     OW52460  10.275   2.539  12.976
16874SOL    HW152461  10.188   2.578  12.965
16874SOL    HW252462  10.281   2.521  13.070
16875SOL     OW52463   9.318  10.254   7.943
16875SOL    HW152464   9.313  10.177   7.999
16875SOL    HW252465   9.313  10.219   7.854
16876SOL     OW52466   7.457   0.099   2.995
16876SOL    HW152467   7.376   0.151   2.987
16876SOL    HW252468   7.430   0.022   3.046
16877SOL     OW52469   5.364   3.200   7.516
16877SOL    HW152470   5.328   3.169   7.433
16877SOL    HW252471   5.440   3.144   7.532
16878SOL     OW52472   0.597   3.834   7.323
16878SOL    HW152473   0.523   3.853   7.266
16878SOL    HW252474   0.670   3.882   7.284
16879SOL     OW52475   4.872  11.710   9.779
16879SOL    HW152476   4.883  11.779   9.713
16879SOL    HW252477   4.783  11.678   9.765
16880SOL     OW52478   7.525  11.166   7.306
16880SOL    HW152479   7.498  11.255   7.328
16880SOL    HW252480   7.495  11.153   7.216
16881SOL     OW52481  10.865   7.942   2.551
16881SOL    HW152482  10.775   7.957   2.579
16881SOL    HW252483  10.909   7.906   2.629
16882SOL     OW52484   7.224  14.038   3.953
16882SOL    HW152485   7.302  13.992   3.984
16882SOL    HW252486   7.188  14.079   4.032
16883SOL     OW52487   1.117   4.287  13.354
16883SOL    HW152488   1.118   4.383  13.346
16883SOL    HW252489   1.175   4.269  13.428
16884SOL     OW52490   4.944   2.685   7.139
16884SOL    HW152491   4.956   2.776   7.113
16884SOL    HW252492   4.949   2.687   7.235
16885SOL     OW52493   8.399   3.726   8.897
16885SOL    HW152494   8.356   3.801   8.854
16885SOL    HW252495   8.483   3.718   8.852
16886SOL     OW52496   3.876   9.694  12.893
16886SOL    HW152497   3.961   9.660  12.866
16886SOL    HW252498   3.866   9.777  12.846
16887SOL     OW52499   7.431  10.506   3.105
16887SOL    HW152500   7.366  10.571   3.133
16887SOL    HW252501   7.493  10.556   3.051
16888SOL     OW52502   8.014   9.861   2.059
16888SOL    HW152503   8.071   9.821   1.995
16888SOL    HW252504   7.925   9.844   2.027
16889SOL     OW52505   6.733   2.075  14.356
16889SOL    HW152506   6.654   2.070  14.301
16889SOL    HW252507   6.789   2.138  14.311
16890SOL     OW52508   8.213   5.358   9.773
16890SOL    HW152509   8.241   5.445   9.801
16890SOL    HW252510   8.200   5.309   9.854
16891SOL     OW52511   6.901   9.950  10.416
16891SOL    HW152512   6.958   9.887  10.372
16891SOL    HW252513   6.813   9.927  10.386
16892SOL     OW52514   0.891   9.244   1.037
16892SOL    HW152515   0.861   9.253   1.127
16892SOL    HW252516   0.810   9.232   0.986
16893SOL     OW52517  12.732   4.070   4.466
16893SOL    HW152518  12.672   4.130   4.511
16893SOL    HW252519  12.818   4.090   4.504
16894SOL     OW52520   3.122  12.739   3.063
16894SOL    HW152521   3.204  12.786   3.070
16894SOL    HW252522   3.134  12.682   2.986
16895SOL     OW52523   4.646   2.026  12.989
16895SOL    HW152524   4.576   2.090  12.983
16895SOL    HW252525   4.620   1.955  12.930
16896SOL     OW52526   2.040   6.885   4.333
16896SOL    HW152527   1.999   6.801   4.312
16896SOL    HW252528   1.985   6.951   4.290
16897SOL     OW52529   8.604   9.145   1.237
16897SOL    HW152530   8.518   9.181   1.214
16897SOL    HW252531   8.662   9.174   1.167
16898SOL     OW52532   8.575   1.195   5.421
16898SOL    HW152533   8.644   1.253   5.389
16898SOL    HW252534   8.530   1.246   5.488
16899SOL     OW52535   3.212   8.514   6.600
16899SOL    HW152536   3.167   8.551   6.524
16899SOL    HW252537   3.240   8.590   6.651
16900SOL     OW52538   9.946   1.780  14.798
16900SOL    HW152539   9.929   1.872  14.779
16900SOL    HW252540  10.015   1.755  14.737
16901SOL     OW52541   9.158  13.598  12.917
16901SOL    HW152542   9.254  13.599  12.913
16901SOL    HW252543   9.131  13.678  12.872
16902SOL     OW52544   4.605   3.519  11.584
16902SOL    HW152545   4.512   3.523  11.561
16902SOL    HW252546   4.650   3.497  11.502
16903SOL     OW52547   0.710  14.305  12.425
16903SOL    HW152548   0.757  14.310  12.508
16903SOL    HW252549   0.777  14.285  12.360
16904SOL     OW52550   9.580  10.023   4.166
16904SOL    HW152551   9.570   9.965   4.090
16904SOL    HW252552   9.532   9.979   4.236
16905SOL     OW52553   2.878   6.485  11.552
16905SOL    HW152554   2.811   6.530  11.603
16905SOL    HW252555   2.949   6.548  11.544
16906SOL     OW52556   4.861   2.216   2.700
16906SOL    HW152557   4.824   2.183   2.618
16906SOL    HW252558   4.930   2.153   2.722
16907SOL     OW52559   0.083  12.406   1.738
16907SOL    HW152560   0.085  12.499   1.717
16907SOL    HW252561   0.146  12.396   1.809
16908SOL     OW52562  11.616  14.622   4.620
16908SOL    HW152563  11.664  14.562   4.677
16908SOL    HW252564  11.598  14.570   4.541
16909SOL     OW52565   4.637  13.153   0.198
16909SOL    HW152566   4.566  13.089   0.196
16909SOL    HW252567   4.649  13.173   0.291
16910SOL     OW52568   6.337   4.334   6.710
16910SOL    HW152569   6.352   4.356   6.802
16910SOL    HW252570   6.287   4.409   6.675
16911SOL     OW52571  10.847  13.145  12.521
16911SOL    HW152572  10.840  13.064  12.471
16911SOL    HW252573  10.937  13.173  12.507
16912SOL     OW52574   3.625  12.120   4.443
16912SOL    HW152575   3.680  12.128   4.521
16912SOL    HW252576   3.540  12.090   4.476
16913SOL     OW52577  14.065   8.486   1.622
16913SOL    HW152578  14.080   8.392   1.623
16913SOL    HW252579  14.015   8.503   1.702
16914SOL     OW52580  10.358   7.089  10.755
16914SOL    HW152581  10.310   7.025  10.808
16914SOL    HW252582  10.335   7.174  10.794
16915SOL     OW52583   6.523   1.303   0.303
16915SOL    HW152584   6.583   1.377   0.298
16915SOL    HW252585   6.534   1.268   0.391
16916SOL     OW52586  11.249   7.324   8.540
16916SOL    HW152587  11.224   7.415   8.523
16916SOL    HW252588  11.255   7.284   8.453
16917SOL     OW52589   2.007   6.156   2.945
16917SOL    HW152590   2.041   6.122   2.862
16917SOL    HW252591   2.073   6.131   3.009
16918SOL     OW52592   7.224   4.122   8.017
16918SOL    HW152593   7.236   4.162   7.931
16918SOL    HW252594   7.201   4.195   8.074
16919SOL     OW52595   3.062   2.416   8.588
16919SOL    HW152596   2.999   2.345   8.596
16919SOL    HW252597   3.147   2.372   8.594
16920SOL     OW52598   3.356   3.624  13.756
16920SOL    HW152599   3.403   3.678  13.692
16920SOL    HW252600   3.383   3.659  13.841
16921SOL     OW52601   3.461   7.272  14.503
16921SOL    HW152602   3.436   7.193  14.456
16921SOL    HW252603   3.451   7.342  14.439
16922SOL     OW52604  12.097   5.391   4.679
16922SOL    HW152605  12.048   5.416   4.757
16922SOL    HW252606  12.179   5.354   4.713
16923SOL     OW52607   6.878  12.897   8.845
16923SOL    HW152608   6.921  12.831   8.899
16923SOL    HW252609   6.883  12.977   8.897
16924SOL     OW52610   6.309  12.239   8.888
16924SOL    HW152611   6.224  12.281   8.881
16924SOL    HW252612   6.324  12.199   8.803
16925SOL     OW52613   6.991   8.283   4.065
16925SOL    HW152614   7.051   8.241   4.127
16925SOL    HW252615   7.034   8.365   4.041
16926SOL     OW52616   3.156  14.375  10.729
16926SOL    HW152617   3.080  14.388  10.673
16926SOL    HW252618   3.122  14.382  10.818
16927SOL     OW52619   2.429   3.122  13.855
16927SOL    HW152620   2.420   3.053  13.789
16927SOL    HW252621   2.463   3.197  13.806
16928SOL     OW52622   2.990   7.190  12.883
16928SOL    HW152623   2.988   7.276  12.842
16928SOL    HW252624   2.929   7.197  12.957
16929SOL     OW52625  11.577   3.483   3.673
16929SOL    HW152626  11.630   3.546   3.721
16929SOL    HW252627  11.513   3.537   3.626
16930SOL     OW52628   8.605  11.929  14.260
16930SOL    HW152629   8.649  11.973  14.332
16930SOL    HW252630   8.519  11.905  14.296
16931SOL     OW52631   2.415   7.754   2.379
16931SOL    HW152632   2.384   7.677   2.427
16931SOL    HW252633   2.491   7.724   2.330
16932SOL     OW52634   6.091  14.678  10.746
16932SOL    HW152635   6.014  14.659  10.694
16932SOL    HW252636   6.088  14.614  10.818
16933SOL     OW52637   5.340   4.385   6.068
16933SOL    HW152638   5.357   4.291   6.063
16933SOL    HW252639   5.291   4.397   6.149
16934SOL     OW52640   1.827   7.582  14.661
16934SOL    HW152641   1.818   7.488  14.647
16934SOL    HW252642   1.738   7.612  14.681
16935SOL     OW52643   0.060   2.631   6.461
16935SOL    HW152644   0.048   2.634   6.366
16935SOL    HW252645   0.073   2.722   6.487
16936SOL     OW52646   4.185  10.937   2.788
16936SOL    HW152647   4.257  10.996   2.807
16936SOL    HW252648   4.224  10.849   2.790
16937SOL     OW52649   4.314  10.050   8.116
16937SOL    HW152650   4.259  10.049   8.195
16937SOL    HW252651   4.251  10.040   8.044
16938SOL     OW52652   6.036   5.747   8.551
16938SOL    HW152653   6.081   5.693   8.616
16938SOL    HW252654   6.039   5.695   8.471
16939SOL     OW52655   4.682   2.427   5.845
16939SOL    HW152656   4.715   2.342   5.816
16939SOL    HW252657   4.743   2.491   5.808
16940SOL     OW52658   3.438   9.457  14.269
16940SOL    HW152659   3.524   9.422  14.243
16940SOL    HW252660   3.375   9.397  14.229
16941SOL     OW52661   1.449   7.268   8.946
16941SOL    HW152662   1.543   7.271   8.965
16941SOL    HW252663   1.408   7.313   9.020
16942SOL     OW52664  11.405   5.071   0.940
16942SOL    HW152665  11.463   4.996   0.955
16942SOL    HW252666  11.464   5.142   0.914
16943SOL     OW52667  10.119   7.484  14.618
16943SOL    HW152668  10.108   7.463  14.525
16943SOL    HW252669  10.035   7.522  14.644
16944SOL     OW52670  11.818  11.586   7.981
16944SOL    HW152671  11.781  11.528   8.048
16944SOL    HW252672  11.743  11.637   7.950
16945SOL     OW52673   0.395  11.691   0.872
16945SOL    HW152674   0.338  11.634   0.924
16945SOL    HW252675   0.345  11.707   0.792
16946SOL     OW52676   7.680  14.518   3.705
16946SOL    HW152677   7.748  14.529   3.771
16946SOL    HW252678   7.601  14.498   3.755
16947SOL     OW52679   7.694   8.688   4.724
16947SOL    HW152680   7.674   8.751   4.655
16947SOL    HW252681   7.686   8.737   4.806
16948SOL     OW52682   0.800   0.965  12.588
16948SOL    HW152683   0.726   1.025  12.577
16948SOL    HW252684   0.877   1.023  12.588
16949SOL     OW52685   8.781   0.900   2.368
16949SOL    HW152686   8.785   0.806   2.353
16949SOL    HW252687   8.855   0.919   2.425
16950SOL     OW52688   7.923  12.164   8.892
16950SOL    HW152689   7.864  12.209   8.953
16950SOL    HW252690   7.964  12.095   8.944
16951SOL     OW52691   6.869   1.913   4.039
16951SOL    HW152692   6.895   1.999   4.006
16951SOL    HW252693   6.907   1.851   3.976
16952SOL     OW52694  12.202   9.059  14.309
16952SOL    HW152695  12.233   8.989  14.251
16952SOL    HW252696  12.230   9.031  14.396
16953SOL     OW52697  13.296  12.689   8.323
16953SOL    HW152698  13.314  12.735   8.405
16953SOL    HW252699  13.240  12.749   8.274
16954SOL     OW52700   1.450   1.774   8.373
16954SOL    HW152701   1.399   1.713   8.321
16954SOL    HW252702   1.447   1.856   8.324
16955SOL     OW52703   2.739   7.289   8.469
16955SOL    HW152704   2.648   7.314   8.454
16955SOL    HW252705   2.777   7.284   8.382
16956SOL     OW52706  14.427  10.540   0.554
16956SOL    HW152707  14.351  10.599   0.552
16956SOL    HW252708  14.400  10.469   0.612
16957SOL     OW52709   7.144   3.612   3.241
16957SOL    HW152710   7.103   3.533   3.205
16957SOL    HW252711   7.075   3.653   3.293
16958SOL     OW52712   6.277   2.796   6.592
16958SOL    HW152713   6.297   2.842   6.674
16958SOL    HW252714   6.348   2.733   6.583
16959SOL     OW52715  14.201   3.914   3.565
16959SOL    HW152716  14.215   3.934   3.472
16959SOL    HW252717  14.117   3.869   3.568
16960SOL     OW52718   4.807   3.175   8.990
16960SOL    HW152719   4.807   3.079   8.989
16960SOL    HW252720   4.790   3.197   9.082
16961SOL     OW52721   0.616   3.465   8.102
16961SOL    HW152722   0.578   3.542   8.145
16961SOL    HW252723   0.600   3.393   8.164
16962SOL     OW52724   1.572   7.641  14.715
16962SOL    HW152725   1.560   7.735  14.702
16962SOL    HW252726   1.482   7.607  14.723
16963SOL     OW52727   8.460   4.842   9.380
16963SOL    HW152728   8.450   4.937   9.380
16963SOL    HW252729   8.386   4.810   9.432
16964SOL     OW52730   5.890  12.400   3.697
16964SOL    HW152731   5.887  12.452   3.617
16964SOL    HW252732   5.848  12.455   3.763
16965SOL     OW52733  10.099  12.019  11.594
16965SOL    HW152734  10.013  11.989  11.565
16965SOL    HW252735  10.124  12.085  11.529
16966SOL     OW52736   7.184   2.006   6.040
16966SOL    HW152737   7.155   1.964   5.959
16966SOL    HW252738   7.147   2.094   6.036
16967SOL     OW52739   1.547  10.708  10.042
16967SOL    HW152740   1.588  10.631  10.080
16967SOL    HW252741   1.458  10.680  10.019
16968SOL     OW52742  14.550   6.405   9.651
16968SOL    HW152743  14.511   6.417   9.565
16968SOL    HW252744  14.613   6.476   9.660
16969SOL     OW52745  13.864   5.172   8.693
16969SOL    HW152746  13.879   5.173   8.598
16969SOL    HW252747  13.885   5.261   8.721
16970SOL     OW52748   6.526  14.001   9.193
16970SOL    HW152749   6.493  13.985   9.282
16970SOL    HW252750   6.452  13.981   9.136
16971SOL     OW52751   2.503   7.796   8.937
16971SOL    HW152752   2.546   7.715   8.907
16971SOL    HW252753   2.496   7.785   9.032
16972SOL     OW52754   6.800   9.035   0.646
16972SOL    HW152755   6.815   8.979   0.570
16972SOL    HW252756   6.887   9.056   0.678
16973SOL     OW52757   3.585   0.516   4.574
16973SOL    HW152758   3.561   0.608   4.567
16973SOL    HW252759   3.656   0.514   4.638
16974SOL     OW52760   6.163   2.079  10.564
16974SOL    HW152761   6.250   2.112  10.543
16974SOL    HW252762   6.141   2.020  10.492
16975SOL     OW52763   7.399  14.570   7.199
16975SOL    HW152764   7.448  14.639   7.243
16975SOL    HW252765   7.443  14.489   7.224
16976SOL     OW52766  14.729   3.372  11.096
16976SOL    HW152767  14.692   3.358  11.009
16976SOL    HW252768  14.763   3.286  11.122
16977SOL     OW52769   6.630  10.065   3.546
16977SOL    HW152770   6.669  10.019   3.620
16977SOL    HW252771   6.658  10.015   3.469
16978SOL     OW52772   5.247  13.345   5.093
16978SOL    HW152773   5.334  13.316   5.067
16978SOL    HW252774   5.206  13.269   5.133
16979SOL     OW52775   3.719  14.110   3.013
16979SOL    HW152776   3.693  14.168   2.941
16979SOL    HW252777   3.795  14.153   3.052
16980SOL     OW52778   5.736   4.086   6.077
16980SOL    HW152779   5.805   4.153   6.080
16980SOL    HW252780   5.783   4.003   6.088
16981SOL     OW52781  12.349   7.155   2.147
16981SOL    HW152782  12.280   7.220   2.158
16981SOL    HW252783  12.428   7.206   2.130
16982SOL     OW52784  13.548   1.447   3.694
16982SOL    HW152785  13.599   1.483   3.767
16982SOL    HW252786  13.547   1.517   3.629
16983SOL     OW52787  12.899   5.030   2.530
16983SOL    HW152788  12.960   5.002   2.463
16983SOL    HW252789  12.854   5.105   2.492
16984SOL     OW52790  11.240   0.778   3.063
16984SOL    HW152791  11.336   0.782   3.061
16984SOL    HW252792  11.213   0.795   2.973
16985SOL     OW52793   3.987   5.247  10.907
16985SOL    HW152794   3.941   5.273  10.986
16985SOL    HW252795   3.966   5.316  10.843
16986SOL     OW52796   0.790  12.864  14.558
16986SOL    HW152797   0.735  12.922  14.610
16986SOL    HW252798   0.856  12.832  14.620
16987SOL     OW52799   0.882  10.789   0.310
16987SOL    HW152800   0.952  10.727   0.331
16987SOL    HW252801   0.887  10.801   0.216
16988SOL     OW52802   0.564   0.399  11.048
16988SOL    HW152803   0.625   0.415  11.120
16988SOL    HW252804   0.480   0.387  11.091
16989SOL     OW52805   4.828   6.789   5.182
16989SOL    HW152806   4.758   6.750   5.129
16989SOL    HW252807   4.781   6.834   5.253
16990SOL     OW52808  12.474   0.269   9.557
16990SOL    HW152809  12.437   0.258   9.469
16990SOL    HW252810  12.536   0.197   9.566
16991SOL     OW52811   2.586  12.575   5.893
16991SOL    HW152812   2.670  12.577   5.848
16991SOL    HW252813   2.605  12.531   5.976
16992SOL     OW52814   4.739   8.427  10.696
16992SOL    HW152815   4.683   8.414  10.772
16992SOL    HW252816   4.679   8.445  10.624
16993SOL     OW52817   3.967   4.296  13.237
16993SOL    HW152818   3.945   4.345  13.158
16993SOL    HW252819   3.983   4.207  13.207
16994SOL     OW52820  12.222   3.925  12.527
16994SOL    HW152821  12.214   4.020  12.535
16994SOL    HW252822  12.137   3.896  12.494
16995SOL     OW52823  11.046  10.683   5.138
16995SOL    HW152824  11.122  10.701   5.084
16995SOL    HW252825  11.082  10.640   5.216
16996SOL     OW52826  11.740  13.969  12.620
16996SOL    HW152827  11.754  13.939  12.710
16996SOL    HW252828  11.817  13.939  12.572
16997SOL     OW52829  13.271   1.713   4.379
16997SOL    HW152830  13.305   1.794   4.417
16997SOL    HW252831  13.326   1.699   4.302
16998SOL     OW52832   8.030   4.673   5.878
16998SOL    HW152833   8.097   4.717   5.931
16998SOL    HW252834   7.987   4.744   5.830
16999SOL     OW52835  12.043   5.445   6.863
16999SOL    HW152836  12.073   5.476   6.777
16999SOL    HW252837  12.027   5.351   6.851
17000SOL     OW52838   0.039   3.245   8.255
17000SOL    HW152839   0.010   3.156   8.271
17000SOL    HW252840  14.864   3.273   8.177
17001SOL     OW52841   2.911  10.795   8.653
17001SOL    HW152842   2.819  10.781   8.633
17001SOL    HW252843   2.912  10.861   8.722
17002SOL     OW52844  14.169   5.094  10.984
17002SOL    HW152845  14.264   5.099  10.989
17002SOL    HW252846  14.145   5.017  11.035
17003SOL     OW52847   7.694  14.723   6.732
17003SOL    HW152848   7.658  14.648   6.779
17003SOL    HW252849   7.647  14.724   6.649
17004SOL     OW52850  10.956   2.612   4.131
17004SOL    HW152851  10.878   2.564   4.105
17004SOL    HW252852  10.924   2.683   4.187
17005SOL     OW52853   9.467   6.022   1.427
17005SOL    HW152854   9.493   6.103   1.471
17005SOL    HW252855   9.443   6.050   1.338
17006SOL     OW52856  12.522   3.404   8.675
17006SOL    HW152857  12.466   3.455   8.733
17006SOL    HW252858  12.554   3.332   8.730
17007SOL     OW52859   5.279   3.137  11.673
17007SOL    HW152860   5.358   3.114  11.723
17007SOL    HW252861   5.310   3.148  11.583
17008SOL     OW52862   2.120   2.260   4.807
17008SOL    HW152863   2.215   2.248   4.814
17008SOL    HW252864   2.087   2.236   4.894
17009SOL     OW52865   6.147  13.072   0.435
17009SOL    HW152866   6.139  12.986   0.475
17009SOL    HW252867   6.235  13.074   0.397
17010SOL     OW52868   7.598   2.125   7.916
17010SOL    HW152869   7.572   2.079   7.836
17010SOL    HW252870   7.565   2.214   7.905
17011SOL     OW52871   1.269   7.477  13.643
17011SOL    HW152872   1.229   7.412  13.585
17011SOL    HW252873   1.212   7.477  13.720
17012SOL     OW52874   1.240  11.553   3.229
17012SOL    HW152875   1.174  11.539   3.297
17012SOL    HW252876   1.301  11.616   3.266
17013SOL     OW52877   8.475   3.493   5.029
17013SOL    HW152878   8.441   3.466   5.114
17013SOL    HW252879   8.453   3.586   5.022
17014SOL     OW52880   9.071   9.412   7.932
17014SOL    HW152881   9.140   9.474   7.956
17014SOL    HW252882   9.115   9.345   7.881
17015SOL     OW52883  13.842   3.134  11.324
17015SOL    HW152884  13.793   3.088  11.256
17015SOL    HW252885  13.774   3.180  11.374
17016SOL     OW52886   3.915   3.454   5.348
17016SOL    HW152887   3.826   3.439   5.318
17016SOL    HW252888   3.949   3.367   5.368
17017SOL     OW52889  11.027   6.254   2.542
17017SOL    HW152890  11.041   6.159   2.546
17017SOL    HW252891  11.095   6.286   2.483
17018SOL     OW52892   3.020   0.590   5.247
17018SOL    HW152893   3.104   0.566   5.286
17018SOL    HW252894   3.034   0.679   5.214
17019SOL     OW52895   2.256   6.863   0.422
17019SOL    HW152896   2.296   6.860   0.335
17019SOL    HW252897   2.315   6.811   0.477
17020SOL     OW52898   6.496   8.507   7.478
17020SOL    HW152899   6.476   8.473   7.565
17020SOL    HW252900   6.550   8.439   7.437
17021SOL     OW52901   7.925  13.122   8.860
17021SOL    HW152902   7.943  13.132   8.954
17021SOL    HW252903   7.844  13.072   8.856
17022SOL     OW52904  14.874   0.829   2.131
17022SOL    HW152905  14.832   0.829   2.217
17022SOL    HW252906  14.860   0.741   2.098
17023SOL     OW52907   4.732  11.691   5.427
17023SOL    HW152908   4.807  11.719   5.375
17023SOL    HW252909   4.657  11.700   5.368
17024SOL     OW52910  13.215   4.132   4.052
17024SOL    HW152911  13.173   4.048   4.073
17024SOL    HW252912  13.155   4.174   3.990
17025SOL     OW52913  11.887  10.746   8.335
17025SOL    HW152914  11.926  10.737   8.248
17025SOL    HW252915  11.939  10.814   8.378
17026SOL     OW52916   2.969  10.034   1.895
17026SOL    HW152917   2.945   9.961   1.837
17026SOL    HW252918   2.990   9.992   1.978
17027SOL     OW52919   9.580   4.305   0.205
17027SOL    HW152920   9.611   4.366   0.271
17027SOL    HW252921   9.634   4.321   0.128
17028SOL     OW52922   5.149   0.838   6.320
17028SOL    HW152923   5.210   0.784   6.371
17028SOL    HW252924   5.120   0.905   6.381
17029SOL     OW52925  12.596  10.970   8.884
17029SOL    HW152926  12.618  10.886   8.844
17029SOL    HW252927  12.603  11.033   8.812
17030SOL     OW52928  10.021   2.287   8.234
17030SOL    HW152929  10.082   2.253   8.168
17030SOL    HW252930  10.074   2.296   8.313
17031SOL     OW52931   4.833   4.278   5.698
17031SOL    HW152932   4.892   4.254   5.627
17031SOL    HW252933   4.865   4.229   5.774
17032SOL     OW52934  10.857   8.831   6.529
17032SOL    HW152935  10.888   8.786   6.450
17032SOL    HW252936  10.886   8.776   6.601
17033SOL     OW52937  11.989  11.609   6.112
17033SOL    HW152938  11.947  11.694   6.113
17033SOL    HW252939  11.934  11.554   6.167
17034SOL     OW52940  11.069   9.648   5.614
17034SOL    HW152941  11.082   9.740   5.638
17034SOL    HW252942  10.979   9.644   5.582
17035SOL     OW52943   2.248  11.623   8.015
17035SOL    HW152944   2.188  11.668   8.076
17035SOL    HW252945   2.329  11.615   8.064
17036SOL     OW52946   2.444  14.685   1.988
17036SOL    HW152947   2.452  14.628   1.911
17036SOL    HW252948   2.359  14.665   2.025
17037SOL     OW52949   0.380   4.538   0.680
17037SOL    HW152950   0.408   4.610   0.737
17037SOL    HW252951   0.309   4.575   0.629
17038SOL     OW52952  10.107   7.621   4.878
17038SOL    HW152953  10.056   7.676   4.818
17038SOL    HW252954  10.193   7.614   4.837
17039SOL     OW52955  13.328  14.584  14.203
17039SOL    HW152956  13.385  14.511  14.179
17039SOL    HW252957  13.344  14.650  14.135
17040SOL     OW52958   7.407   1.639   5.002
17040SOL    HW152959   7.479   1.628   4.940
17040SOL    HW252960   7.331   1.600   4.959
17041SOL     OW52961   5.168  14.078   7.871
17041SOL    HW152962   5.148  14.165   7.837
17041SOL    HW252963   5.263  14.070   7.862
17042SOL     OW52964   2.179  10.277   5.850
17042SOL    HW152965   2.241  10.346   5.872
17042SOL    HW252966   2.097  10.323   5.831
17043SOL     OW52967   9.497   1.209   0.616
17043SOL    HW152968   9.504   1.304   0.609
17043SOL    HW252969   9.521   1.189   0.706
17044SOL     OW52970  10.994  10.730   9.562
17044SOL    HW152971  10.969  10.797   9.499
17044SOL    HW252972  10.924  10.665   9.557
17045SOL     OW52973  11.308   1.086   9.646
17045SOL    HW152974  11.398   1.070   9.674
17045SOL    HW252975  11.311   1.173   9.607
17046SOL     OW52976   2.317   1.135  12.218
17046SOL    HW152977   2.366   1.214  12.194
17046SOL    HW252978   2.246   1.131  12.155
17047SOL     OW52979   2.522   7.890  13.654
17047SOL    HW152980   2.553   7.977  13.680
17047SOL    HW252981   2.455   7.908  13.588
17048SOL     OW52982   5.713   0.389  12.216
17048SOL    HW152983   5.664   0.469  12.233
17048SOL    HW252984   5.797   0.418  12.182
17049SOL     OW52985   7.688   4.045   7.712
17049SOL    HW152986   7.612   3.994   7.683
17049SOL    HW252987   7.762   3.985   7.702
17050SOL     OW52988  12.189  13.970   4.603
17050SOL    HW152989  12.246  13.894   4.591
17050SOL    HW252990  12.243  14.032   4.653
17051SOL     OW52991   4.339  13.351   7.948
17051SOL    HW152992   4.339  13.260   7.918
17051SOL    HW252993   4.266  13.392   7.901
17052SOL     OW52994   7.020   8.774   7.822
17052SOL    HW152995   7.022   8.865   7.852
17052SOL    HW252996   7.081   8.773   7.748
17053SOL     OW52997   2.088  13.556   1.412
17053SOL    HW152998   2.078  13.647   1.386
17053SOL    HW252999   2.067  13.506   1.333
17054SOL     OW53000   7.987   2.436   5.799
17054SOL    HW153001   7.954   2.525   5.806
17054SOL    HW253002   8.072   2.438   5.842
17055SOL     OW53003   7.051   7.829   2.947
17055SOL    HW153004   7.107   7.774   3.002
17055SOL    HW253005   7.095   7.830   2.861
17056SOL     OW53006  11.269  13.832  11.505
17056SOL    HW153007  11.251  13.836  11.599
17056SOL    HW253008  11.364  13.821  11.500
17057SOL     OW53009   8.456   1.845   5.462
17057SOL    HW153010   8.535   1.899   5.460
17057SOL    HW253011   8.435   1.836   5.555
17058SOL     OW53012  10.058  11.302   3.475
17058SOL    HW153013  10.101  11.229   3.430
17058SOL    HW253014  10.004  11.343   3.407
17059SOL     OW53015   6.552   8.208   7.692
17059SOL    HW153016   6.561   8.302   7.703
17059SOL    HW253017   6.641   8.173   7.699
17060SOL     OW53018   6.678   2.360   0.008
17060SOL    HW153019   6.771   2.351  14.863
17060SOL    HW253020   6.671   2.349   0.102
17061SOL     OW53021  14.718   3.933   4.564
17061SOL    HW153022  14.728   3.969   4.652
17061SOL    HW253023  14.787   3.868   4.555
17062SOL     OW53024  12.184   4.074  13.943
17062SOL    HW153025  12.204   4.117  13.860
17062SOL    HW253026  12.115   4.011  13.921
17063SOL     OW53027  10.010  13.115   1.260
17063SOL    HW153028  10.038  13.122   1.351
17063SOL    HW253029  10.057  13.185   1.215
17064SOL     OW53030   0.444  12.846   6.543
17064SOL    HW153031   0.407  12.757   6.550
17064SOL    HW253032   0.482  12.849   6.455
17065SOL     OW53033  13.112  14.635  11.495
17065SOL    HW153034  13.193  14.628  11.546
17065SOL    HW253035  13.134  14.694  11.423
17066SOL     OW53036   2.523   8.303   0.393
17066SOL    HW153037   2.563   8.389   0.382
17066SOL    HW253038   2.575   8.244   0.338
17067SOL     OW53039   8.888   4.239  10.389
17067SOL    HW153040   8.809   4.230  10.443
17067SOL    HW253041   8.959   4.251  10.453
17068SOL     OW53042   4.993   3.719   1.889
17068SOL    HW153043   5.052   3.781   1.845
17068SOL    HW253044   5.013   3.634   1.850
17069SOL     OW53045   0.913  13.238   3.837
17069SOL    HW153046   0.946  13.161   3.883
17069SOL    HW253047   0.990  13.274   3.793
17070SOL     OW53048  11.091   6.673  13.143
17070SOL    HW153049  11.115   6.632  13.226
17070SOL    HW253050  10.995   6.669  13.141
17071SOL     OW53051  12.922   8.975   0.528
17071SOL    HW153052  12.987   8.929   0.581
17071SOL    HW253053  12.964   8.987   0.444
17072SOL     OW53054   5.313  11.830   6.431
17072SOL    HW153055   5.367  11.908   6.429
17072SOL    HW253056   5.350  11.776   6.501
17073SOL     OW53057  11.101  10.024  14.007
17073SOL    HW153058  11.170  10.083  14.038
17073SOL    HW253059  11.131   9.937  14.033
17074SOL     OW53060   2.296   6.581   4.649
17074SOL    HW153061   2.222   6.618   4.698
17074SOL    HW253062   2.301   6.635   4.569
17075SOL     OW53063  13.957  10.254   8.078
17075SOL    HW153064  14.019  10.322   8.051
17075SOL    HW253065  13.891  10.300   8.129
17076SOL     OW53066   8.103   8.077  11.106
17076SOL    HW153067   8.132   8.061  11.196
17076SOL    HW253068   8.096   8.172  11.100
17077SOL     OW53069   4.551   1.411   0.953
17077SOL    HW153070   4.621   1.390   0.891
17077SOL    HW253071   4.593   1.459   1.024
17078SOL     OW53072   9.008   0.528  10.022
17078SOL    HW153073   8.970   0.448   9.984
17078SOL    HW253074   9.057   0.567   9.949
17079SOL     OW53075  12.432   3.277  14.626
17079SOL    HW153076  12.472   3.196  14.596
17079SOL    HW253077  12.349   3.250  14.667
17080SOL     OW53078  10.563   1.875  10.800
17080SOL    HW153079  10.522   1.823  10.730
17080SOL    HW253080  10.594   1.809  10.862
17081SOL     OW53081   5.731   7.150   3.273
17081SOL    HW153082   5.653   7.095   3.280
17081SOL    HW253083   5.710   7.227   3.327
17082SOL     OW53084   6.809   3.718  14.736
17082SOL    HW153085   6.796   3.650  14.803
17082SOL    HW253086   6.760   3.687  14.660
17083SOL     OW53087   7.943   6.407   2.223
17083SOL    HW153088   7.917   6.331   2.171
17083SOL    HW253089   7.867   6.427   2.277
17084SOL     OW53090  14.559  11.375  13.029
17084SOL    HW153091  14.566  11.459  12.983
17084SOL    HW253092  14.578  11.310  12.962
17085SOL     OW53093   2.655  12.764  10.220
17085SOL    HW153094   2.727  12.826  10.232
17085SOL    HW253095   2.698  12.681  10.201
17086SOL     OW53096   2.563   7.232   4.517
17086SOL    HW153097   2.525   7.201   4.435
17086SOL    HW253098   2.566   7.327   4.508
17087SOL     OW53099   0.868  10.920  14.807
17087SOL    HW153100   0.880  10.950  14.717
17087SOL    HW253101   0.783  10.877  14.807
17088SOL     OW53102   1.171   3.886   5.642
17088SOL    HW153103   1.251   3.939   5.644
17088SOL    HW253104   1.100   3.950   5.652
17089SOL     OW53105   5.492   4.501  11.969
17089SOL    HW153106   5.457   4.421  11.930
17089SOL    HW253107   5.454   4.504  12.057
17090SOL     OW53108  10.220  12.390   1.237
17090SOL    HW153109  10.126  12.373   1.230
17090SOL    HW253110  10.254  12.318   1.290
17091SOL     OW53111   6.190   4.386  13.762
17091SOL    HW153112   6.095   4.388  13.751
17091SOL    HW253113   6.225   4.393  13.674
17092SOL     OW53114   9.461  12.826   5.873
17092SOL    HW153115   9.472  12.894   5.807
17092SOL    HW253116   9.366  12.815   5.881
17093SOL     OW53117   4.541   3.153  10.038
17093SOL    HW153118   4.502   3.200   9.965
17093SOL    HW253119   4.598   3.216  10.080
17094SOL     OW53120  13.788   4.656   5.862
17094SOL    HW153121  13.733   4.582   5.887
17094SOL    HW253122  13.793   4.652   5.767
17095SOL     OW53123   7.708   9.172   1.539
17095SOL    HW153124   7.766   9.101   1.566
17095SOL    HW253125   7.649   9.131   1.475
17096SOL     OW53126   4.222  10.894  11.497
17096SOL    HW153127   4.256  10.976  11.462
17096SOL    HW253128   4.199  10.914  11.587
17097SOL     OW53129  10.484  11.700   5.666
17097SOL    HW153130  10.514  11.641   5.734
17097SOL    HW253131  10.402  11.661   5.635
17098SOL     OW53132   4.413  12.727   1.534
17098SOL    HW153133   4.393  12.803   1.478
17098SOL    HW253134   4.334  12.712   1.585
17099SOL     OW53135  14.613   7.734   5.774
17099SOL    HW153136  14.664   7.670   5.824
17099SOL    HW253137  14.552   7.771   5.839
17100SOL     OW53138  13.620   8.526   0.550
17100SOL    HW153139  13.536   8.562   0.580
17100SOL    HW253140  13.685   8.588   0.584
17101SOL     OW53141   9.648  14.508   3.264
17101SOL    HW153142   9.724  14.454   3.286
17101SOL    HW253143   9.675  14.597   3.285
17102SOL     OW53144   0.866   7.675  11.240
17102SOL    HW153145   0.817   7.683  11.158
17102SOL    HW253146   0.883   7.581  11.248
17103SOL     OW53147   7.237   4.838   4.003
17103SOL    HW153148   7.242   4.762   4.061
17103SOL    HW253149   7.151   4.831   3.961
17104SOL     OW53150   9.983  12.537   1.469
17104SOL    HW153151  10.067  12.551   1.511
17104SOL    HW253152   9.994  12.573   1.381
17105SOL     OW53153   5.721   3.517  11.148
17105SOL    HW153154   5.804   3.522  11.101
17105SOL    HW253155   5.662   3.575  11.099
17106SOL     OW53156   5.706   7.089   0.498
17106SOL    HW153157   5.632   7.076   0.558
17106SOL    HW253158   5.783   7.093   0.555
17107SOL     OW53159   0.155  10.978   3.522
17107SOL    HW153160   0.117  10.981   3.434
17107SOL    HW253161   0.079  10.982   3.581
17108SOL     OW53162  12.004  10.481   4.206
17108SOL    HW153163  12.007  10.573   4.177
17108SOL    HW253164  11.987  10.486   4.300
17109SOL     OW53165  12.665  10.754   0.821
17109SOL    HW153166  12.618  10.788   0.745
17109SOL    HW253167  12.719  10.683   0.786
17110SOL     OW53168   8.563   8.043   5.155
17110SOL    HW153169   8.542   7.971   5.096
17110SOL    HW253170   8.625   8.005   5.218
17111SOL     OW53171   6.488   8.292  14.842
17111SOL    HW153172   6.393   8.302  14.851
17111SOL    HW253173   6.498   8.208  14.796
17112SOL     OW53174   3.108   0.491   7.409
17112SOL    HW153175   3.093   0.415   7.353
17112SOL    HW253176   3.148   0.456   7.488
17113SOL     OW53177  11.648   0.795  14.231
17113SOL    HW153178  11.618   0.705  14.242
17113SOL    HW253179  11.742   0.788  14.218
17114SOL     OW53180  11.404  14.086   8.775
17114SOL    HW153181  11.370  14.170   8.745
17114SOL    HW253182  11.332  14.049   8.827
17115SOL     OW53183   6.501   9.073  14.006
17115SOL    HW153184   6.524   9.158  13.970
17115SOL    HW253185   6.482   9.018  13.930
17116SOL     OW53186  11.660   5.086   7.701
17116SOL    HW153187  11.750   5.081   7.667
17116SOL    HW253188  11.668   5.137   7.781
17117SOL     OW53189   8.858  10.228   2.149
17117SOL    HW153190   8.827  10.223   2.239
17117SOL    HW253191   8.782  10.206   2.096
17118SOL     OW53192   3.903  11.462   5.631
17118SOL    HW153193   3.871  11.484   5.719
17118SOL    HW253194   3.985  11.417   5.646
17119SOL     OW53195  12.964   9.050   8.295
17119SOL    HW153196  13.007   9.086   8.373
17119SOL    HW253197  13.008   8.966   8.281
17120SOL     OW53198   7.762   1.889   8.387
17120SOL    HW153199   7.687   1.934   8.347
17120SOL    HW253200   7.782   1.942   8.465
17121SOL     OW53201   6.736   2.711   1.028
17121SOL    HW153202   6.805   2.766   1.065
17121SOL    HW253203   6.783   2.652   0.969
17122SOL     OW53204   6.676   0.928  10.419
17122SOL    HW153205   6.591   0.940  10.378
17122SOL    HW253206   6.658   0.881  10.501
17123SOL     OW53207   1.219   4.297   9.709
17123SOL    HW153208   1.234   4.346   9.629
17123SOL    HW253209   1.191   4.210   9.680
17124SOL     OW53210  13.098  12.041   8.777
17124SOL    HW153211  13.036  12.075   8.841
17124SOL    HW253212  13.169  12.106   8.774
17125SOL     OW53213   9.254   0.973  11.665
17125SOL    HW153214   9.324   0.909  11.654
17125SOL    HW253215   9.175   0.928  11.634
17126SOL     OW53216  11.288   8.944  10.233
17126SOL    HW153217  11.255   9.010  10.172
17126SOL    HW253218  11.269   8.979  10.320
17127SOL     OW53219  12.778   2.861   0.758
17127SOL    HW153220  12.867   2.866   0.725
17127SOL    HW253221  12.741   2.783   0.717
17128SOL     OW53222   1.968   1.199  13.823
17128SOL    HW153223   2.025   1.136  13.867
17128SOL    HW253224   1.921   1.147  13.758
17129SOL     OW53225   0.887   5.305   3.329
17129SOL    HW153226   0.845   5.271   3.249
17129SOL    HW253227   0.910   5.396   3.306
17130SOL     OW53228   9.078   3.283   6.272
17130SOL    HW153229   8.997   3.284   6.221
17130SOL    HW253230   9.050   3.303   6.361
17131SOL     OW53231  12.023   5.214   2.389
17131SOL    HW153232  12.007   5.286   2.450
17131SOL    HW253233  12.013   5.135   2.441
17132SOL     OW53234   6.670  10.031   6.412
17132SOL    HW153235   6.647  10.079   6.332
17132SOL    HW253236   6.757   9.995   6.394
17133SOL     OW53237   9.704   6.572   9.970
17133SOL    HW153238   9.787   6.595  10.012
17133SOL    HW253239   9.723   6.492   9.921
17134SOL     OW53240   2.297  14.779  14.455
17134SOL    HW153241   2.365  14.804  14.393
17134SOL    HW253242   2.287  14.855  14.513
17135SOL     OW53243   8.005  10.908  12.818
17135SOL    HW153244   8.058  10.987  12.821
17135SOL    HW253245   8.033  10.863  12.738
17136SOL     OW53246  11.548   9.767   7.276
17136SOL    HW153247  11.591   9.844   7.240
17136SOL    HW253248  11.619   9.708   7.299
17137SOL     OW53249  12.197   4.291   2.187
17137SOL    HW153250  12.178   4.230   2.258
17137SOL    HW253251  12.115   4.339   2.173
17138SOL     OW53252  11.622   0.126  13.503
17138SOL    HW153253  11.559   0.162  13.565
17138SOL    HW253254  11.586   0.148  13.417
17139SOL     OW53255  12.530   3.501   3.991
17139SOL    HW153256  12.600   3.476   4.052
17139SOL    HW253257  12.469   3.427   3.993
17140SOL     OW53258   4.202   2.041  14.415
17140SOL    HW153259   4.284   2.089  14.408
17140SOL    HW253260   4.158   2.080  14.491
17141SOL     OW53261   7.372   1.019   7.504
17141SOL    HW153262   7.312   1.065   7.562
17141SOL    HW253263   7.316   0.984   7.434
17142SOL     OW53264  13.234   6.743   8.783
17142SOL    HW153265  13.219   6.820   8.838
17142SOL    HW253266  13.301   6.693   8.829
17143SOL     OW53267  10.482   4.567   2.749
17143SOL    HW153268  10.520   4.638   2.697
17143SOL    HW253269  10.554   4.505   2.761
17144SOL     OW53270  10.625   0.857  10.224
17144SOL    HW153271  10.614   0.805  10.303
17144SOL    HW253272  10.720   0.861  10.211
17145SOL     OW53273   9.767  11.816   6.902
17145SOL    HW153274   9.777  11.888   6.840
17145SOL    HW253275   9.762  11.737   6.848
17146SOL     OW53276   6.397   7.885   9.036
17146SOL    HW153277   6.362   7.830   9.106
17146SOL    HW253278   6.404   7.972   9.075
17147SOL     OW53279   9.383   6.033   7.750
17147SOL    HW153280   9.388   6.003   7.841
17147SOL    HW253281   9.375   6.129   7.757
17148SOL     OW53282  13.324   5.076   7.473
17148SOL    HW153283  13.238   5.109   7.496
17148SOL    HW253284  13.312   4.982   7.463
17149SOL     OW53285  12.380   2.488   6.879
17149SOL    HW153286  12.400   2.481   6.785
17149SOL    HW253287  12.396   2.580   6.899
17150SOL     OW53288   3.410   7.631  13.394
17150SOL    HW153289   3.465   7.656  13.468
17150SOL    HW253290   3.463   7.652  13.317
17151SOL     OW53291   7.417  12.547   0.307
17151SOL    HW153292   7.374  12.471   0.346
17151SOL    HW253293   7.353  12.618   0.316
17152SOL     OW53294   4.920   8.583   8.749
17152SOL    HW153295   4.874   8.641   8.810
17152SOL    HW253296   4.959   8.641   8.684
17153SOL     OW53297   9.935   1.341  14.356
17153SOL    HW153298   9.877   1.265  14.348
17153SOL    HW253299   9.889   1.401  14.413
17154SOL     OW53300   2.331  12.172  11.832
17154SOL    HW153301   2.300  12.257  11.865
17154SOL    HW253302   2.252  12.131  11.796
17155SOL     OW53303   9.825   1.611  10.329
17155SOL    HW153304   9.847   1.581  10.417
17155SOL    HW253305   9.778   1.538  10.289
17156SOL     OW53306  13.414   1.769   8.753
17156SOL    HW153307  13.420   1.725   8.838
17156SOL    HW253308  13.396   1.861   8.775
17157SOL     OW53309   3.328   2.441   4.132
17157SOL    HW153310   3.394   2.385   4.173
17157SOL    HW253311   3.327   2.521   4.185
17158SOL     OW53312  12.700   7.617   7.283
17158SOL    HW153313  12.711   7.576   7.197
17158SOL    HW253314  12.608   7.644   7.284
17159SOL     OW53315  14.744   0.401   1.552
17159SOL    HW153316  14.824   0.349   1.556
17159SOL    HW253317  14.765   0.481   1.600
17160SOL     OW53318  14.638  12.445  11.267
17160SOL    HW153319  14.678  12.359  11.270
17160SOL    HW253320  14.711  12.505  11.253
17161SOL     OW53321   1.201   7.070   6.935
17161SOL    HW153322   1.177   7.163   6.931
17161SOL    HW253323   1.128   7.025   6.893
17162SOL     OW53324   5.080   7.331   9.078
17162SOL    HW153325   5.000   7.375   9.105
17162SOL    HW253326   5.149   7.368   9.134
17163SOL     OW53327   6.506  14.736   4.942
17163SOL    HW153328   6.470  14.654   4.907
17163SOL    HW253329   6.535  14.714   5.030
17164SOL     OW53330  11.943   4.152  12.346
17164SOL    HW153331  11.853   4.118  12.342
17164SOL    HW253332  11.932   4.247  12.345
17165SOL     OW53333   5.504   9.029   2.196
17165SOL    HW153334   5.537   9.118   2.182
17165SOL    HW253335   5.446   9.013   2.121
17166SOL     OW53336  11.016   8.429   6.592
17166SOL    HW153337  10.966   8.442   6.673
17166SOL    HW253338  11.098   8.475   6.608
17167SOL     OW53339   7.025   4.517   9.710
17167SOL    HW153340   6.983   4.545   9.792
17167SOL    HW253341   7.096   4.580   9.697
17168SOL     OW53342  10.390  13.893   9.561
17168SOL    HW153343  10.333  13.940   9.623
17168SOL    HW253344  10.467  13.950   9.552
17169SOL     OW53345   1.583  10.455  12.028
17169SOL    HW153346   1.545  10.371  12.054
17169SOL    HW253347   1.607  10.496  12.110
17170SOL     OW53348  14.744   3.587   7.819
17170SOL    HW153349  14.699   3.504   7.833
17170SOL    HW253350  14.679   3.654   7.838
17171SOL     OW53351  14.839   5.818  11.573
17171SOL    HW153352  14.757   5.867  11.579
17171SOL    HW253353   0.032   5.878  11.606
17172SOL     OW53354   7.495   1.737   7.059
17172SOL    HW153355   7.574   1.695   7.025
17172SOL    HW253356   7.431   1.666   7.063
17173SOL     OW53357  12.692   5.180   1.196
17173SOL    HW153358  12.733   5.128   1.126
17173SOL    HW253359  12.746   5.259   1.203
17174SOL     OW53360   7.586   0.339   9.281
17174SOL    HW153361   7.581   0.296   9.367
17174SOL    HW253362   7.536   0.282   9.223
17175SOL     OW53363   5.478  13.682  11.834
17175SOL    HW153364   5.510  13.615  11.893
17175SOL    HW253365   5.406  13.724  11.881
17176SOL     OW53366   8.562   7.106   3.731
17176SOL    HW153367   8.587   7.169   3.799
17176SOL    HW253368   8.566   7.156   3.649
17177SOL     OW53369   2.265   7.083   0.582
17177SOL    HW153370   2.170   7.092   0.594
17177SOL    HW253371   2.275   7.013   0.518
17178SOL     OW53372  12.593  14.562  12.349
17178SOL    HW153373  12.537  14.491  12.381
17178SOL    HW253374  12.608  14.541  12.257
17179SOL     OW53375   1.617   1.258   3.969
17179SOL    HW153376   1.539   1.310   3.952
17179SOL    HW253377   1.617   1.191   3.901
17180SOL     OW53378   4.842   9.030   0.251
17180SOL    HW153379   4.770   9.071   0.300
17180SOL    HW253380   4.803   9.008   0.166
17181SOL     OW53381  10.533   9.757   1.858
17181SOL    HW153382  10.480   9.710   1.922
17181SOL    HW253383  10.522   9.849   1.879
17182SOL     OW53384  14.415   8.585   4.818
17182SOL    HW153385  14.390   8.618   4.904
17182SOL    HW253386  14.401   8.490   4.825
17183SOL     OW53387   2.478  12.371   8.242
17183SOL    HW153388   2.486  12.356   8.147
17183SOL    HW253389   2.418  12.303   8.272
17184SOL     OW53390   6.973  11.411  12.155
17184SOL    HW153391   7.010  11.436  12.240
17184SOL    HW253392   7.015  11.328  12.133
17185SOL     OW53393  14.620   1.113   0.825
17185SOL    HW153394  14.544   1.159   0.862
17185SOL    HW253395  14.678   1.183   0.795
17186SOL     OW53396   4.126   6.417   7.458
17186SOL    HW153397   4.163   6.425   7.370
17186SOL    HW253398   4.088   6.502   7.476
17187SOL     OW53399   1.245   5.131   6.338
17187SOL    HW153400   1.321   5.187   6.354
17187SOL    HW253401   1.182   5.156   6.405
17188SOL     OW53402   4.279   7.902   9.265
17188SOL    HW153403   4.338   7.871   9.335
17188SOL    HW253404   4.244   7.822   9.227
17189SOL     OW53405   3.615   4.907  12.497
17189SOL    HW153406   3.631   4.968  12.425
17189SOL    HW253407   3.610   4.821  12.455
17190SOL     OW53408   1.129  13.243   7.060
17190SOL    HW153409   1.048  13.207   7.093
17190SOL    HW253410   1.124  13.337   7.080
17191SOL     OW53411   3.420   8.470  12.848
17191SOL    HW153412   3.380   8.383  12.846
17191SOL    HW253413   3.417   8.500  12.758
17192SOL     OW53414   8.138   2.253  14.232
17192SOL    HW153415   8.127   2.195  14.156
17192SOL    HW253416   8.225   2.231  14.266
17193SOL     OW53417   0.260  14.041  13.350
17193SOL    HW153418   0.284  14.134  13.351
17193SOL    HW253419   0.342  13.996  13.372
17194SOL     OW53420   3.993  12.746  11.324
17194SOL    HW153421   4.081  12.715  11.301
17194SOL    HW253422   3.992  12.838  11.297
17195SOL     OW53423   8.918   0.685  10.213
17195SOL    HW153424   8.857   0.741  10.165
17195SOL    HW253425   8.952   0.624  10.148
17196SOL     OW53426  10.116   4.848   0.087
17196SOL    HW153427  10.168   4.777   0.124
17196SOL    HW253428  10.048   4.804   0.036
17197SOL     OW53429   4.133   1.801   4.691
17197SOL    HW153430   4.181   1.850   4.624
17197SOL    HW253431   4.137   1.710   4.661
17198SOL     OW53432  11.545   4.869   3.599
17198SOL    HW153433  11.557   4.816   3.520
17198SOL    HW253434  11.565   4.958   3.571
17199SOL     OW53435   2.236  10.148   6.126
17199SOL    HW153436   2.224  10.089   6.051
17199SOL    HW253437   2.175  10.220   6.110
17200SOL     OW53438   0.310   8.318   8.938
17200SOL    HW153439   0.319   8.412   8.923
17200SOL    HW253440   0.217   8.306   8.960
17201SOL     OW53441   1.440  10.793   5.446
17201SOL    HW153442   1.450  10.708   5.404
17201SOL    HW253443   1.489  10.785   5.528
17202SOL     OW53444  11.832   6.320  13.420
17202SOL    HW153445  11.794   6.406  13.441
17202SOL    HW253446  11.846   6.323  13.325
17203SOL     OW53447   3.656   1.984  12.365
17203SOL    HW153448   3.729   1.923  12.352
17203SOL    HW253449   3.683   2.063  12.317
17204SOL     OW53450   5.961  12.666   3.529
17204SOL    HW153451   5.933  12.737   3.470
17204SOL    HW253452   5.973  12.709   3.613
17205SOL     OW53453  13.591   1.275   5.074
17205SOL    HW153454  13.516   1.297   5.019
17205SOL    HW253455  13.667   1.305   5.023
17206SOL     OW53456   4.982  14.306   1.736
17206SOL    HW153457   5.015  14.238   1.678
17206SOL    HW253458   4.983  14.266   1.823
17207SOL     OW53459  14.256  14.581   0.079
17207SOL    HW153460  14.223  14.649   0.138
17207SOL    HW253461  14.177  14.537   0.046
17208SOL     OW53462  10.404   8.036   7.715
17208SOL    HW153463  10.481   8.091   7.727
17208SOL    HW253464  10.341   8.092   7.669
17209SOL     OW53465   0.855  10.495   9.696
17209SOL    HW153466   0.769  10.521   9.728
17209SOL    HW253467   0.862  10.402   9.717
17210SOL     OW53468   9.603   6.039   8.674
17210SOL    HW153469   9.665   5.999   8.614
17210SOL    HW253470   9.519   5.997   8.655
17211SOL     OW53471   9.194   5.856   7.551
17211SOL    HW153472   9.254   5.904   7.608
17211SOL    HW253473   9.189   5.909   7.472
17212SOL     OW53474  12.394   9.436   8.646
17212SOL    HW153475  12.346   9.364   8.686
17212SOL    HW253476  12.363   9.514   8.691
17213SOL     OW53477   9.501   4.900   8.541
17213SOL    HW153478   9.458   4.971   8.494
17213SOL    HW253479   9.560   4.860   8.477
17214SOL     OW53480   6.669   9.960  10.776
17214SOL    HW153481   6.626   9.939  10.693
17214SOL    HW253482   6.606  10.014  10.823
17215SOL     OW53483   0.092   7.892   2.387
17215SOL    HW153484   0.166   7.887   2.448
17215SOL    HW253485   0.117   7.837   2.313
17216SOL     OW53486   0.309   9.626   2.849
17216SOL    HW153487   0.247   9.692   2.878
17216SOL    HW253488   0.311   9.562   2.921
17217SOL     OW53489   8.875   6.802   1.978
17217SOL    HW153490   8.892   6.778   1.887
17217SOL    HW253491   8.933   6.745   2.029
17218SOL     OW53492  13.657  10.339   5.087
17218SOL    HW153493  13.624  10.347   4.998
17218SOL    HW253494  13.617  10.413   5.134
17219SOL     OW53495   7.593  14.754   7.348
17219SOL    HW153496   7.582  14.825   7.285
17219SOL    HW253497   7.677  14.772   7.391
17220SOL     OW53498  12.553   1.277  13.548
17220SOL    HW153499  12.473   1.229  13.569
17220SOL    HW253500  12.538   1.310  13.459
17221SOL     OW53501   4.811   7.889   4.951
17221SOL    HW153502   4.803   7.838   5.032
17221SOL    HW253503   4.889   7.854   4.908
17222SOL     OW53504  14.047   5.819   3.103
17222SOL    HW153505  14.034   5.782   3.191
17222SOL    HW253506  13.959   5.841   3.074
17223SOL     OW53507   8.977  14.753   0.221
17223SOL    HW153508   8.892  14.716   0.248
17223SOL    HW253509   8.957  14.843   0.196
17224SOL     OW53510   5.431  12.600  11.346
17224SOL    HW153511   5.367  12.671  11.341
17224SOL    HW253512   5.473  12.600  11.260
17225SOL     OW53513   7.334   4.445  10.775
17225SOL    HW153514   7.312   4.364  10.729
17225SOL    HW253515   7.273   4.448  10.848
17226SOL     OW53516   1.506  11.220   0.199
17226SOL    HW153517   1.552  11.244   0.118
17226SOL    HW253518   1.569  11.239   0.269
17227SOL     OW53519   3.536  14.151   1.232
17227SOL    HW153520   3.539  14.187   1.143
17227SOL    HW253521   3.609  14.192   1.277
17228SOL     OW53522   9.365   6.615  13.874
17228SOL    HW153523   9.387   6.556  13.946
17228SOL    HW253524   9.430   6.596  13.806
17229SOL     OW53525   0.762  12.052   9.830
17229SOL    HW153526   0.737  12.023   9.918
17229SOL    HW253527   0.779  11.970   9.782
17230SOL     OW53528   0.738   6.412   1.134
17230SOL    HW153529   0.794   6.489   1.120
17230SOL    HW253530   0.756   6.355   1.060
17231SOL     OW53531   0.479   2.864  14.640
17231SOL    HW153532   0.413   2.805  14.676
17231SOL    HW253533   0.502   2.922  14.713
17232SOL     OW53534   0.460   1.119   0.159
17232SOL    HW153535   0.390   1.055   0.173
17232SOL    HW253536   0.439   1.159   0.075
17233SOL     OW53537   3.404   1.185   9.828
17233SOL    HW153538   3.475   1.196   9.766
17233SOL    HW253539   3.372   1.274   9.846
17234SOL     OW53540  11.571  12.433   1.311
17234SOL    HW153541  11.482  12.402   1.297
17234SOL    HW253542  11.600  12.386   1.390
17235SOL     OW53543   3.997   3.971  12.451
17235SOL    HW153544   4.063   4.022  12.404
17235SOL    HW253545   3.970   3.904  12.388
17236SOL     OW53546   1.386   5.861   6.184
17236SOL    HW153547   1.420   5.937   6.137
17236SOL    HW253548   1.422   5.869   6.272
17237SOL     OW53549  11.212   6.216  11.566
17237SOL    HW153550  11.265   6.271  11.508
17237SOL    HW253551  11.127   6.260  11.570
17238SOL     OW53552   2.504   4.751   8.210
17238SOL    HW153553   2.475   4.820   8.150
17238SOL    HW253554   2.472   4.670   8.171
17239SOL     OW53555   0.761  10.190   2.295
17239SOL    HW153556   0.796  10.231   2.374
17239SOL    HW253557   0.817  10.114   2.281
17240SOL     OW53558   2.448  12.781   2.867
17240SOL    HW153559   2.357  12.775   2.897
17240SOL    HW253560   2.441  12.799   2.774
17241SOL     OW53561   7.302   0.729   6.911
17241SOL    HW153562   7.239   0.735   6.983
17241SOL    HW253563   7.248   0.716   6.833
17242SOL     OW53564  14.307   1.505   7.455
17242SOL    HW153565  14.311   1.595   7.424
17242SOL    HW253566  14.385   1.494   7.510
17243SOL     OW53567   0.815  12.325  11.702
17243SOL    HW153568   0.869  12.258  11.742
17243SOL    HW253569   0.830  12.403  11.755
17244SOL     OW53570   9.953   0.217   2.550
17244SOL    HW153571   9.883   0.256   2.602
17244SOL    HW253572   9.923   0.129   2.531
17245SOL     OW53573   2.633   0.830   9.510
17245SOL    HW153574   2.712   0.852   9.560
17245SOL    HW253575   2.561   0.861   9.564
17246SOL     OW53576   0.972   0.721  13.290
17246SOL    HW153577   0.953   0.659  13.360
17246SOL    HW253578   0.891   0.724  13.238
17247SOL     OW53579   4.127   0.811   2.709
17247SOL    HW153580   4.187   0.881   2.735
17247SOL    HW253581   4.041   0.840   2.740
17248SOL     OW53582   2.187   6.369   6.403
17248SOL    HW153583   2.235   6.452   6.408
17248SOL    HW253584   2.100   6.393   6.371
17249SOL     OW53585   0.010   2.942   1.706
17249SOL    HW153586   0.007   2.858   1.753
17249SOL    HW253587   0.048   3.003   1.768
17250SOL     OW53588   6.565   9.337   0.280
17250SOL    HW153589   6.640   9.364   0.333
17250SOL    HW253590   6.508   9.414   0.280
17251SOL     OW53591  11.600   0.274   0.369
17251SOL    HW153592  11.519   0.224   0.376
17251SOL    HW253593  11.668   0.216   0.403
17252SOL     OW53594  10.160   2.517   5.914
17252SOL    HW153595  10.239   2.538   5.863
17252SOL    HW253596  10.191   2.514   6.004
17253SOL     OW53597  12.974  10.512  12.294
17253SOL    HW153598  12.918  10.493  12.218
17253SOL    HW253599  13.041  10.572  12.260
17254SOL     OW53600  10.575   5.046   2.199
17254SOL    HW153601  10.595   5.119   2.140
17254SOL    HW253602  10.516   4.990   2.148
17255SOL     OW53603   4.975   4.472   3.962
17255SOL    HW153604   4.985   4.554   3.913
17255SOL    HW253605   5.031   4.483   4.039
17256SOL     OW53606  12.979   3.047   4.596
17256SOL    HW153607  12.981   2.965   4.645
17256SOL    HW253608  12.921   3.029   4.522
17257SOL     OW53609   4.427  11.115   9.064
17257SOL    HW153610   4.518  11.110   9.093
17257SOL    HW253611   4.390  11.189   9.112
17258SOL     OW53612  13.771   8.830   4.969
17258SOL    HW153613  13.827   8.784   4.907
17258SOL    HW253614  13.772   8.921   4.939
17259SOL     OW53615   2.935   3.050   0.374
17259SOL    HW153616   2.981   3.054   0.291
17259SOL    HW253617   2.914   3.142   0.395
17260SOL     OW53618   1.146   7.602  10.007
17260SOL    HW153619   1.099   7.685  10.005
17260SOL    HW253620   1.231   7.623  10.047
17261SOL     OW53621   1.303   0.389   6.829
17261SOL    HW153622   1.284   0.478   6.860
17261SOL    HW253623   1.399   0.385   6.826
17262SOL     OW53624   2.057  10.113  14.488
17262SOL    HW153625   1.985  10.093  14.548
17262SOL    HW253626   2.072  10.207  14.499
17263SOL     OW53627   4.272   9.343   4.544
17263SOL    HW153628   4.311   9.420   4.586
17263SOL    HW253629   4.232   9.377   4.464
17264SOL     OW53630   9.006   1.673   9.370
17264SOL    HW153631   8.958   1.694   9.289
17264SOL    HW253632   9.092   1.713   9.357
17265SOL     OW53633   6.688   6.149   9.606
17265SOL    HW153634   6.622   6.167   9.674
17265SOL    HW253635   6.668   6.060   9.576
17266SOL     OW53636   6.962   3.528   2.902
17266SOL    HW153637   6.976   3.470   2.978
17266SOL    HW253638   6.892   3.587   2.930
17267SOL     OW53639   8.445   1.613  13.905
17267SOL    HW153640   8.416   1.531  13.864
17267SOL    HW253641   8.372   1.673  13.895
17268SOL     OW53642   0.584  12.463  14.385
17268SOL    HW153643   0.675  12.448  14.411
17268SOL    HW253644   0.565  12.552  14.417
17269SOL     OW53645   6.037   0.421   7.662
17269SOL    HW153646   6.050   0.473   7.742
17269SOL    HW253647   5.985   0.478   7.605
17270SOL     OW53648   6.196   7.242  10.538
17270SOL    HW153649   6.251   7.315  10.567
17270SOL    HW253650   6.225   7.167  10.590
17271SOL     OW53651   1.810  13.977  14.246
17271SOL    HW153652   1.817  13.999  14.153
17271SOL    HW253653   1.889  13.927  14.265
17272SOL     OW53654   5.112  10.862  11.349
17272SOL    HW153655   5.110  10.916  11.270
17272SOL    HW253656   5.142  10.776  11.319
17273SOL     OW53657   4.588   8.706  11.410
17273SOL    HW153658   4.503   8.741  11.385
17273SOL    HW253659   4.590   8.618  11.372
17274SOL     OW53660   3.343   0.487   8.879
17274SOL    HW153661   3.263   0.520   8.839
17274SOL    HW253662   3.383   0.433   8.811
17275SOL     OW53663   1.285   8.772   2.471
17275SOL    HW153664   1.218   8.840   2.462
17275SOL    HW253665   1.235   8.692   2.490
17276SOL     OW53666   2.539   4.504  14.662
17276SOL    HW153667   2.601   4.435  14.640
17276SOL    HW253668   2.565   4.533  14.749
17277SOL     OW53669  14.719   8.521   8.670
17277SOL    HW153670  14.707   8.603   8.621
17277SOL    HW253671  14.772   8.545   8.745
17278SOL     OW53672   8.244   3.844   6.050
17278SOL    HW153673   8.211   3.829   5.962
17278SOL    HW253674   8.316   3.906   6.038
17279SOL     OW53675   7.085  11.999   8.970
17279SOL    HW153676   7.127  11.979   9.053
17279SOL    HW253677   7.133  11.946   8.906
17280SOL     OW53678  10.087  12.638  12.337
17280SOL    HW153679  10.105  12.585  12.259
17280SOL    HW253680  10.007  12.599  12.374
17281SOL     OW53681   2.129   8.953   0.663
17281SOL    HW153682   2.044   8.986   0.634
17281SOL    HW253683   2.189   9.027   0.654
17282SOL     OW53684   7.012   2.733   4.254
17282SOL    HW153685   7.070   2.806   4.277
17282SOL    HW253686   7.015   2.675   4.330
17283SOL     OW53687  13.487   0.276   9.635
17283SOL    HW153688  13.455   0.225   9.560
17283SOL    HW253689  13.439   0.358   9.630
17284SOL     OW53690  13.885   2.441   8.577
17284SOL    HW153691  13.827   2.515   8.595
17284SOL    HW253692  13.870   2.381   8.651
17285SOL     OW53693   7.855   6.358   7.928
17285SOL    HW153694   7.839   6.264   7.930
17285SOL    HW253695   7.863   6.379   7.835
17286SOL     OW53696  13.368   3.876   9.762
17286SOL    HW153697  13.368   3.898   9.856
17286SOL    HW253698  13.400   3.786   9.758
17287SOL     OW53699   4.204   9.842  12.187
17287SOL    HW153700   4.294   9.809  12.197
17287SOL    HW253701   4.174   9.804  12.104
17288SOL     OW53702  14.669   3.041   9.332
17288SOL    HW153703  14.619   2.960   9.344
17288SOL    HW253704  14.637   3.100   9.400
17289SOL     OW53705  13.551   2.303  13.930
17289SOL    HW153706  13.461   2.300  13.899
17289SOL    HW253707  13.605   2.297  13.851
17290SOL     OW53708   8.515   4.933   2.065
17290SOL    HW153709   8.467   4.917   1.984
17290SOL    HW253710   8.448   4.929   2.133
17291SOL     OW53711   7.509   6.222  13.142
17291SOL    HW153712   7.427   6.212  13.093
17291SOL    HW253713   7.557   6.291  13.096
17292SOL     OW53714   7.594   8.471   2.127
17292SOL    HW153715   7.606   8.449   2.035
17292SOL    HW253716   7.602   8.387   2.173
17293SOL     OW53717  14.382  11.200   4.910
17293SOL    HW153718  14.301  11.150   4.921
17293SOL    HW253719  14.365  11.256   4.834
17294SOL     OW53720   7.418   4.077   9.782
17294SOL    HW153721   7.373   4.143   9.834
17294SOL    HW253722   7.348   4.029   9.737
17295SOL     OW53723   9.682   7.948   5.835
17295SOL    HW153724   9.733   8.004   5.893
17295SOL    HW253725   9.708   7.975   5.747
17296SOL     OW53726  10.687  12.392  13.515
17296SOL    HW153727  10.653  12.481  13.524
17296SOL    HW253728  10.774  12.404  13.476
17297SOL     OW53729   2.679   7.978  10.371
17297SOL    HW153730   2.616   7.911  10.398
17297SOL    HW253731   2.626   8.042  10.323
17298SOL     OW53732   2.033  12.765   9.319
17298SOL    HW153733   2.102  12.701   9.332
17298SOL    HW253734   2.056  12.810   9.238
17299SOL     OW53735   4.825   4.877  13.922
17299SOL    HW153736   4.815   4.941  13.992
17299SOL    HW253737   4.874   4.922  13.854
17300SOL     OW53738   5.174   2.334   3.991
17300SOL    HW153739   5.091   2.302   3.957
17300SOL    HW253740   5.172   2.428   3.973
17301SOL     OW53741   7.687  10.977   9.527
17301SOL    HW153742   7.640  10.902   9.490
17301SOL    HW253743   7.709  10.950   9.616
17302SOL     OW53744   4.029   9.577   9.572
17302SOL    HW153745   4.016   9.579   9.477
17302SOL    HW253746   3.963   9.638   9.606
17303SOL     OW53747   1.547   9.100   5.666
17303SOL    HW153748   1.526   9.090   5.573
17303SOL    HW253749   1.619   9.163   5.668
17304SOL     OW53750   7.432  14.789   4.819
17304SOL    HW153751   7.494  14.799   4.892
17304SOL    HW253752   7.370  14.722   4.849
17305SOL     OW53753   0.718   3.750   6.517
17305SOL    HW153754   0.799   3.800   6.519
17305SOL    HW253755   0.746   3.660   6.504
17306SOL     OW53756   7.334   4.741   0.594
17306SOL    HW153757   7.407   4.687   0.623
17306SOL    HW253758   7.375   4.818   0.555
17307SOL     OW53759  13.433   3.198  12.961
17307SOL    HW153760  13.491   3.269  12.987
17307SOL    HW253761  13.348   3.241  12.946
17308SOL     OW53762   3.550  10.234   0.763
17308SOL    HW153763   3.487  10.191   0.705
17308SOL    HW253764   3.632  10.185   0.750
17309SOL     OW53765   1.146  12.114   3.282
17309SOL    HW153766   1.231  12.157   3.278
17309SOL    HW253767   1.113  12.116   3.192
17310SOL     OW53768  11.450  10.839   3.797
17310SOL    HW153769  11.377  10.786   3.765
17310SOL    HW253770  11.421  10.929   3.783
17311SOL     OW53771  10.243   0.647   7.729
17311SOL    HW153772  10.245   0.703   7.807
17311SOL    HW253773  10.206   0.565   7.759
17312SOL     OW53774   7.841  11.705   3.338
17312SOL    HW153775   7.914  11.738   3.391
17312SOL    HW253776   7.791  11.650   3.398
17313SOL     OW53777   1.210  12.723   6.745
17313SOL    HW153778   1.222  12.768   6.829
17313SOL    HW253779   1.277  12.760   6.688
17314SOL     OW53780   2.692   1.427   1.484
17314SOL    HW153781   2.660   1.344   1.519
17314SOL    HW253782   2.707   1.481   1.561
17315SOL     OW53783   5.386   8.654  10.464
17315SOL    HW153784   5.456   8.655  10.530
17315SOL    HW253785   5.390   8.740  10.423
17316SOL     OW53786   7.563   4.533   1.729
17316SOL    HW153787   7.576   4.447   1.689
17316SOL    HW253788   7.602   4.595   1.667
17317SOL     OW53789  11.134   2.236   2.506
17317SOL    HW153790  11.130   2.269   2.416
17317SOL    HW253791  11.077   2.159   2.506
17318SOL     OW53792  10.429   4.038  10.377
17318SOL    HW153793  10.518   4.003  10.369
17318SOL    HW253794  10.407   4.066  10.288
17319SOL     OW53795  12.050   2.997   0.486
17319SOL    HW153796  12.106   3.070   0.512
17319SOL    HW253797  11.961   3.033   0.492
17320SOL     OW53798   3.373   8.331   1.761
17320SOL    HW153799   3.445   8.304   1.705
17320SOL    HW253800   3.342   8.249   1.801
17321SOL     OW53801   8.648  12.797   1.110
17321SOL    HW153802   8.655  12.879   1.159
17321SOL    HW253803   8.555  12.775   1.111
17322SOL     OW53804   4.850  12.103   6.155
17322SOL    HW153805   4.770  12.052   6.168
17322SOL    HW253806   4.916  12.060   6.209
17323SOL     OW53807   1.800   0.199   8.658
17323SOL    HW153808   1.825   0.129   8.719
17323SOL    HW253809   1.756   0.264   8.713
17324SOL     OW53810   5.229   2.908  13.893
17324SOL    HW153811   5.193   2.820  13.900
17324SOL    HW253812   5.282   2.919  13.972
17325SOL     OW53813   2.495  12.949  13.130
17325SOL    HW153814   2.518  12.856  13.129
17325SOL    HW253815   2.400  12.951  13.122
17326SOL     OW53816   7.823  11.255   1.648
17326SOL    HW153817   7.738  11.275   1.609
17326SOL    HW253818   7.882  11.247   1.574
17327SOL     OW53819  14.012  11.778  11.673
17327SOL    HW153820  14.077  11.849  11.672
17327SOL    HW253821  14.060  11.702  11.705
17328SOL     OW53822   6.884  10.486   4.090
17328SOL    HW153823   6.857  10.525   4.007
17328SOL    HW253824   6.915  10.399   4.067
17329SOL     OW53825  12.342  14.284   0.299
17329SOL    HW153826  12.347  14.191   0.275
17329SOL    HW253827  12.431  14.317   0.283
17330SOL     OW53828   8.185   6.904   9.709
17330SOL    HW153829   8.157   6.993   9.686
17330SOL    HW253830   8.188   6.904   9.804
17331SOL     OW53831   8.064   8.999   8.514
17331SOL    HW153832   8.040   8.906   8.509
17331SOL    HW253833   8.115   9.007   8.595
17332SOL     OW53834  10.358   9.685  13.614
17332SOL    HW153835  10.357   9.780  13.619
17332SOL    HW253836  10.421   9.658  13.681
17333SOL     OW53837   8.345  13.518   7.402
17333SOL    HW153838   8.306  13.465   7.471
17333SOL    HW253839   8.283  13.512   7.330
17334SOL     OW53840  12.440   3.741  11.517
17334SOL    HW153841  12.361   3.794  11.527
17334SOL    HW253842  12.414   3.654  11.547
17335SOL     OW53843   6.674   4.135  12.475
17335SOL    HW153844   6.646   4.090  12.395
17335SOL    HW253845   6.747   4.083  12.507
17336SOL     OW53846   3.046   5.816   2.205
17336SOL    HW153847   3.040   5.721   2.221
17336SOL    HW253848   3.045   5.824   2.110
17337SOL     OW53849   7.269   3.278  14.521
17337SOL    HW153850   7.352   3.319  14.544
17337SOL    HW253851   7.233   3.248  14.605
17338SOL     OW53852   1.263  11.327  12.550
17338SOL    HW153853   1.237  11.419  12.557
17338SOL    HW253854   1.350  11.330  12.509
17339SOL     OW53855  13.489   5.315   2.755
17339SOL    HW153856  13.406   5.270   2.773
17339SOL    HW253857  13.556   5.256   2.790
17340SOL     OW53858   2.317   8.013  12.475
17340SOL    HW153859   2.320   8.071  12.398
17340SOL    HW253860   2.312   7.925  12.438
17341SOL     OW53861   6.211   1.221   5.458
17341SOL    HW153862   6.265   1.149   5.425
17341SOL    HW253863   6.266   1.265   5.523
17342SOL     OW53864   0.185   6.473   3.790
17342SOL    HW153865   0.128   6.476   3.713
17342SOL    HW253866   0.170   6.556   3.835
17343SOL     OW53867   5.411   8.928   1.722
17343SOL    HW153868   5.330   8.957   1.765
17343SOL    HW253869   5.481   8.956   1.781
17344SOL     OW53870   1.014   6.762  10.508
17344SOL    HW153871   1.047   6.722  10.428
17344SOL    HW253872   1.021   6.693  10.574
17345SOL     OW53873  14.665   2.416  11.338
17345SOL    HW153874  14.599   2.359  11.297
17345SOL    HW253875  14.677   2.488  11.277
17346SOL     OW53876   4.992  11.918  14.627
17346SOL    HW153877   4.945  11.971  14.691
17346SOL    HW253878   5.005  11.975  14.552
17347SOL     OW53879   9.615   5.458  12.955
17347SOL    HW153880   9.544   5.495  13.008
17347SOL    HW253881   9.573   5.430  12.874
17348SOL     OW53882   0.578  10.190   7.677
17348SOL    HW153883   0.621  10.111   7.708
17348SOL    HW253884   0.641  10.229   7.617
17349SOL     OW53885   6.136   2.317   5.639
17349SOL    HW153886   6.191   2.243   5.666
17349SOL    HW253887   6.048   2.293   5.668
17350SOL     OW53888  11.362   6.885   0.051
17350SOL    HW153889  11.293   6.848   0.106
17350SOL    HW253890  11.440   6.833   0.071
17351SOL     OW53891  10.651   5.978  10.758
17351SOL    HW153892  10.722   5.914  10.752
17351SOL    HW253893  10.578   5.937  10.713
17352SOL     OW53894   6.281  13.969   3.388
17352SOL    HW153895   6.319  14.027   3.455
17352SOL    HW253896   6.353  13.950   3.329
17353SOL     OW53897   5.937   4.309   9.526
17353SOL    HW153898   5.917   4.262   9.444
17353SOL    HW253899   6.013   4.363   9.505
17354SOL     OW53900  12.742   3.305   9.975
17354SOL    HW153901  12.754   3.347   9.889
17354SOL    HW253902  12.820   3.330  10.024
17355SOL     OW53903   7.885   5.880   9.032
17355SOL    HW153904   7.809   5.935   9.011
17355SOL    HW253905   7.852   5.790   9.025
17356SOL     OW53906   1.895  11.148   3.725
17356SOL    HW153907   1.853  11.096   3.793
17356SOL    HW253908   1.875  11.102   3.644
17357SOL     OW53909  13.057   4.672  13.705
17357SOL    HW153910  13.039   4.621  13.784
17357SOL    HW253911  13.083   4.758  13.738
17358SOL     OW53912  11.911   1.394   5.141
17358SOL    HW153913  11.982   1.384   5.078
17358SOL    HW253914  11.852   1.321   5.123
17359SOL     OW53915  10.580   0.063   0.530
17359SOL    HW153916  10.584   0.033   0.621
17359SOL    HW253917  10.591   0.158   0.536
17360SOL     OW53918   8.783  11.869   1.478
17360SOL    HW153919   8.743  11.786   1.505
17360SOL    HW253920   8.842  11.845   1.407
17361SOL     OW53921   5.404  12.315   7.312
17361SOL    HW153922   5.325  12.263   7.305
17361SOL    HW253923   5.402  12.350   7.401
17362SOL     OW53924  11.423   2.624   1.981
17362SOL    HW153925  11.428   2.704   2.033
17362SOL    HW253926  11.511   2.612   1.947
17363SOL     OW53927   4.564   1.342  12.149
17363SOL    HW153928   4.493   1.338  12.086
17363SOL    HW253929   4.629   1.399  12.109
17364SOL     OW53930   1.846  12.878  12.707
17364SOL    HW153931   1.794  12.804  12.738
17364SOL    HW253932   1.883  12.916  12.787
17365SOL     OW53933   6.245   0.942   1.933
17365SOL    HW153934   6.221   1.019   1.882
17365SOL    HW253935   6.271   0.977   2.019
17366SOL     OW53936   4.470   8.555   1.480
17366SOL    HW153937   4.471   8.649   1.465
17366SOL    HW253938   4.463   8.546   1.575
17367SOL     OW53939   3.321   8.127   6.408
17367SOL    HW153940   3.250   8.071   6.438
17367SOL    HW253941   3.279   8.192   6.352
17368SOL     OW53942  14.515  11.446   0.333
17368SOL    HW153943  14.441  11.475   0.279
17368SOL    HW253944  14.491  11.357   0.360
17369SOL     OW53945   1.165   0.125   7.952
17369SOL    HW153946   1.177   0.044   8.002
17369SOL    HW253947   1.219   0.114   7.874
17370SOL     OW53948   6.494  11.744   0.882
17370SOL    HW153949   6.544  11.674   0.924
17370SOL    HW253950   6.403  11.717   0.892
17371SOL     OW53951   6.505  11.355   8.254
17371SOL    HW153952   6.562  11.375   8.180
17371SOL    HW253953   6.565  11.327   8.324
17372SOL     OW53954  11.491  14.410   0.537
17372SOL    HW153955  11.464  14.450   0.620
17372SOL    HW253956  11.564  14.464   0.506
17373SOL     OW53957  13.244   0.278  14.030
17373SOL    HW153958  13.255   0.308  14.120
17373SOL    HW253959  13.236   0.183  14.036
17374SOL     OW53960  12.554   8.936   8.878
17374SOL    HW153961  12.554   8.994   8.801
17374SOL    HW253962  12.634   8.885   8.869
17375SOL     OW53963   6.088   8.781   9.601
17375SOL    HW153964   6.081   8.839   9.525
17375SOL    HW253965   6.012   8.724   9.595
17376SOL     OW53966  10.395  12.081  12.491
17376SOL    HW153967  10.416  11.994  12.526
17376SOL    HW253968  10.468  12.101  12.431
17377SOL     OW53969   1.194   5.120   3.571
17377SOL    HW153970   1.251   5.123   3.648
17377SOL    HW253971   1.179   5.027   3.556
17378SOL     OW53972   3.572   4.257  14.619
17378SOL    HW153973   3.502   4.212  14.572
17378SOL    HW253974   3.527   4.306  14.688
17379SOL     OW53975   0.562  12.793   3.054
17379SOL    HW153976   0.656  12.806   3.052
17379SOL    HW253977   0.535  12.790   2.962
17380SOL     OW53978   5.976   7.203   4.868
17380SOL    HW153979   6.040   7.131   4.865
17380SOL    HW253980   5.919   7.181   4.942
17381SOL     OW53981  11.321   4.467   1.290
17381SOL    HW153982  11.307   4.523   1.366
17381SOL    HW253983  11.354   4.527   1.222
17382SOL     OW53984   0.257   6.399   8.191
17382SOL    HW153985   0.253   6.342   8.114
17382SOL    HW253986   0.257   6.487   8.156
17383SOL     OW53987   4.059   1.846   1.910
17383SOL    HW153988   4.107   1.805   1.983
17383SOL    HW253989   3.985   1.890   1.952
17384SOL     OW53990   5.808   0.912   2.270
17384SOL    HW153991   5.758   0.895   2.350
17384SOL    HW253992   5.742   0.937   2.205
17385SOL     OW53993   7.403  12.648   8.637
17385SOL    HW153994   7.473  12.691   8.588
17385SOL    HW253995   7.444  12.623   8.720
17386SOL     OW53996   0.665  14.410   3.560
17386SOL    HW153997   0.660  14.459   3.477
17386SOL    HW253998   0.758  14.412   3.583
17387SOL     OW53999   7.611   2.541   0.489
17387SOL    HW154000   7.541   2.604   0.505
17387SOL    HW254001   7.659   2.576   0.413
17388SOL     OW54002   0.030  11.822  12.075
17388SOL    HW154003  14.862  11.736  12.085
17388SOL    HW254004   0.072  11.837  12.159
17389SOL     OW54005   9.088   4.690   7.656
17389SOL    HW154006   9.086   4.727   7.567
17389SOL    HW254007   9.084   4.595   7.643
17390SOL     OW54008   6.487   5.117   0.900
17390SOL    HW154009   6.535   5.053   0.954
17390SOL    HW254010   6.551   5.146   0.835
17391SOL     OW54011   9.646  10.340   8.416
17391SOL    HW154012   9.589  10.299   8.350
17391SOL    HW254013   9.600  10.329   8.499
17392SOL     OW54014   1.805   2.797   2.056
17392SOL    HW154015   1.735   2.823   1.997
17392SOL    HW254016   1.807   2.702   2.051
17393SOL     OW54017  12.721  14.873   9.356
17393SOL    HW154018  12.665  14.798   9.376
17393SOL    HW254019  12.802  14.855   9.403
17394SOL     OW54020   3.895  13.018   8.465
17394SOL    HW154021   3.852  13.016   8.380
17394SOL    HW254022   3.931  13.107   8.471
17395SOL     OW54023   1.074   9.144   0.879
17395SOL    HW154024   1.014   9.203   0.925
17395SOL    HW254025   1.087   9.071   0.940
17396SOL     OW54026   9.411   7.233  10.087
17396SOL    HW154027   9.390   7.149  10.128
17396SOL    HW254028   9.329   7.282  10.089
17397SOL     OW54029  11.071   9.481   2.870
17397SOL    HW154030  11.062   9.447   2.781
17397SOL    HW254031  11.163   9.505   2.877
17398SOL     OW54032   7.452   9.050   8.485
17398SOL    HW154033   7.546   9.066   8.488
17398SOL    HW254034   7.444   8.956   8.502
17399SOL     OW54035  10.791   8.454   6.798
17399SOL    HW154036  10.702   8.462   6.762
17399SOL    HW254037  10.833   8.538   6.777
17400SOL     OW54038   4.584  10.787   1.277
17400SOL    HW154039   4.679  10.797   1.271
17400SOL    HW254040   4.557  10.850   1.343
17401SOL     OW54041   3.774  14.614   1.180
17401SOL    HW154042   3.704  14.622   1.245
17401SOL    HW254043   3.732  14.572   1.105
17402SOL     OW54044   1.261   0.863   5.011
17402SOL    HW154045   1.183   0.824   5.050
17402SOL    HW254046   1.325   0.791   5.010
17403SOL     OW54047  12.270   7.228   1.627
17403SOL    HW154048  12.264   7.239   1.722
17403SOL    HW254049  12.257   7.316   1.592
17404SOL     OW54050   1.133   4.004   5.393
17404SOL    HW154051   1.039   4.018   5.391
17404SOL    HW254052   1.146   3.940   5.464
17405SOL     OW54053   8.908  13.537   4.043
17405SOL    HW154054   8.962  13.504   4.114
17405SOL    HW254055   8.928  13.480   3.969
17406SOL     OW54056   0.632   2.823   9.785
17406SOL    HW154057   0.667   2.825   9.874
17406SOL    HW254058   0.554   2.769   9.791
17407SOL     OW54059   0.515  12.716   5.889
17407SOL    HW154060   0.465  12.646   5.931
17407SOL    HW254061   0.602  12.679   5.874
17408SOL     OW54062   3.190   2.676  14.079
17408SOL    HW154063   3.111   2.648  14.126
17408SOL    HW254064   3.164   2.673  13.987
17409SOL     OW54065   7.503  12.677   6.994
17409SOL    HW154066   7.451  12.600   6.971
17409SOL    HW254067   7.532  12.713   6.910
17410SOL     OW54068   8.001  14.036  14.668
17410SOL    HW154069   7.982  14.128  14.648
17410SOL    HW254070   7.936  14.012  14.735
17411SOL     OW54071  14.257  10.559   7.047
17411SOL    HW154072  14.268  10.622   7.118
17411SOL    HW254073  14.175  10.514   7.067
17412SOL     OW54074   9.986  10.451   9.789
17412SOL    HW154075   9.903  10.440   9.742
17412SOL    HW254076  10.027  10.364   9.787
17413SOL     OW54077   8.152  12.052   7.530
17413SOL    HW154078   8.105  11.970   7.515
17413SOL    HW254079   8.139  12.070   7.623
17414SOL     OW54080   3.181   3.931   9.579
17414SOL    HW154081   3.089   3.921   9.602
17414SOL    HW254082   3.219   3.844   9.594
17415SOL     OW54083  13.259   1.510  13.654
17415SOL    HW154084  13.256   1.421  13.621
17415SOL    HW254085  13.168   1.532  13.671
17416SOL     OW54086   3.050   5.381  10.847
17416SOL    HW154087   2.989   5.329  10.795
17416SOL    HW254088   3.027   5.363  10.938
17417SOL     OW54089  11.206   9.088  11.975
17417SOL    HW154090  11.172   9.176  11.987
17417SOL    HW254091  11.206   9.050  12.063
17418SOL     OW54092   6.633   4.904   8.427
17418SOL    HW154093   6.585   4.873   8.350
17418SOL    HW254094   6.622   4.834   8.492
17419SOL     OW54095   7.519   2.856  12.612
17419SOL    HW154096   7.538   2.888  12.524
17419SOL    HW254097   7.563   2.918  12.670
17420SOL     OW54098   7.531   6.295   2.828
17420SOL    HW154099   7.591   6.296   2.754
17420SOL    HW254100   7.580   6.252   2.898
17421SOL     OW54101   6.319   8.414   6.020
17421SOL    HW154102   6.224   8.431   6.025
17421SOL    HW254103   6.359   8.498   6.041
17422SOL     OW54104   4.787   2.159   8.012
17422SOL    HW154105   4.797   2.080   8.064
17422SOL    HW254106   4.871   2.204   8.019
17423SOL     OW54107   0.373  11.821  13.509
17423SOL    HW154108   0.434  11.857  13.574
17423SOL    HW254109   0.325  11.896  13.475
17424SOL     OW54110   5.876   8.855   9.202
17424SOL    HW154111   5.947   8.890   9.256
17424SOL    HW254112   5.799   8.904   9.231
17425SOL     OW54113   2.311   8.006   9.127
17425SOL    HW154114   2.370   7.972   9.194
17425SOL    HW254115   2.357   7.991   9.044
17426SOL     OW54116   8.428  13.183   7.401
17426SOL    HW154117   8.446  13.252   7.465
17426SOL    HW254118   8.475  13.107   7.434
17427SOL     OW54119   3.538   1.568   4.066
17427SOL    HW154120   3.499   1.559   4.153
17427SOL    HW254121   3.476   1.525   4.008
17428SOL     OW54122  12.762  13.849   3.159
17428SOL    HW154123  12.681  13.813   3.195
17428SOL    HW254124  12.799  13.778   3.107
17429SOL     OW54125   9.040   8.801   9.714
17429SOL    HW154126   8.975   8.811   9.644
17429SOL    HW254127   9.004   8.733   9.770
17430SOL     OW54128   5.030   1.365   3.598
17430SOL    HW154129   5.000   1.443   3.645
17430SOL    HW254130   5.105   1.396   3.547
17431SOL     OW54131   8.646   6.074   8.628
17431SOL    HW154132   8.706   6.148   8.633
17431SOL    HW254133   8.688   6.013   8.567
17432SOL     OW54134  13.408  13.942  11.404
17432SOL    HW154135  13.405  14.025  11.451
17432SOL    HW254136  13.489  13.900  11.434
17433SOL     OW54137   7.821  12.114   5.313
17433SOL    HW154138   7.737  12.159   5.320
17433SOL    HW254139   7.854  12.140   5.227
17434SOL     OW54140   0.629   4.804   9.443
17434SOL    HW154141   0.690   4.877   9.452
17434SOL    HW254142   0.580   4.803   9.526
17435SOL     OW54143   4.123   7.188   3.175
17435SOL    HW154144   4.209   7.171   3.214
17435SOL    HW254145   4.083   7.253   3.233
17436SOL     OW54146   0.141   2.732  13.370
17436SOL    HW154147   0.105   2.809  13.325
17436SOL    HW254148   0.196   2.769  13.439
17437SOL     OW54149   2.837  11.086   6.124
17437SOL    HW154150   2.752  11.128   6.142
17437SOL    HW254151   2.814  11.004   6.080
17438SOL     OW54152   0.261   4.112   7.421
17438SOL    HW154153   0.206   4.071   7.354
17438SOL    HW254154   0.201   4.129   7.493
17439SOL     OW54155   2.500   1.623  13.755
17439SOL    HW154156   2.517   1.708  13.796
17439SOL    HW254157   2.423   1.638  13.700
17440SOL     OW54158   9.435   6.072   8.926
17440SOL    HW154159   9.443   6.123   9.007
17440SOL    HW254160   9.519   6.087   8.881
17441SOL     OW54161  10.305   4.506   2.494
17441SOL    HW154162  10.387   4.456   2.490
17441SOL    HW254163  10.244   4.457   2.438
17442SOL     OW54164   0.319   1.286   9.802
17442SOL    HW154165   0.318   1.364   9.747
17442SOL    HW254166   0.408   1.282   9.837
17443SOL     OW54167   5.087   9.185   7.092
17443SOL    HW154168   5.085   9.249   7.021
17443SOL    HW254169   5.041   9.229   7.164
17444SOL     OW54170   5.374   1.393  13.923
17444SOL    HW154171   5.352   1.353  14.007
17444SOL    HW254172   5.463   1.363  13.905
17445SOL     OW54173   4.181   1.686   4.289
17445SOL    HW154174   4.093   1.653   4.270
17445SOL    HW254175   4.239   1.628   4.241
17446SOL     OW54176  10.979   9.567  13.021
17446SOL    HW154177  11.046   9.504  12.993
17446SOL    HW254178  11.029   9.639  13.058
17447SOL     OW54179  13.146   4.789   9.152
17447SOL    HW154180  13.101   4.718   9.197
17447SOL    HW254181  13.239   4.778   9.176
17448SOL     OW54182   0.427   5.978   7.114
17448SOL    HW154183   0.357   5.993   7.051
17448SOL    HW254184   0.420   6.051   7.176
17449SOL     OW54185  13.157  12.763  12.518
17449SOL    HW154186  13.193  12.846  12.550
17449SOL    HW254187  13.192  12.697  12.578
17450SOL     OW54188   2.715   0.772   4.816
17450SOL    HW154189   2.664   0.852   4.831
17450SOL    HW254190   2.652   0.709   4.781
17451SOL     OW54191   0.646   6.637   7.310
17451SOL    HW154192   0.643   6.570   7.242
17451SOL    HW254193   0.679   6.715   7.265
17452SOL     OW54194  11.440  10.231  14.411
17452SOL    HW154195  11.491  10.162  14.455
17452SOL    HW254196  11.398  10.278  14.483
17453SOL     OW54197   1.685  13.392   8.295
17453SOL    HW154198   1.726  13.389   8.381
17453SOL    HW254199   1.662  13.301   8.275
17454SOL     OW54200  12.906   6.594  11.297
17454SOL    HW154201  12.841   6.523  11.306
17454SOL    HW254202  12.900   6.620  11.205
17455SOL     OW54203   7.630  12.661   5.498
17455SOL    HW154204   7.535  12.662   5.502
17455SOL    HW254205   7.651  12.696   5.411
17456SOL     OW54206   2.045   3.205   9.931
17456SOL    HW154207   2.120   3.172   9.980
17456SOL    HW254208   2.042   3.298   9.952
17457SOL     OW54209  11.107   7.673   2.060
17457SOL    HW154210  11.026   7.655   2.012
17457SOL    HW254211  11.175   7.630   2.009
17458SOL     OW54212  13.972  12.140   4.323
17458SOL    HW154213  13.987  12.089   4.402
17458SOL    HW254214  13.934  12.222   4.354
17459SOL     OW54215  12.850  12.376  12.958
17459SOL    HW154216  12.834  12.464  12.924
17459SOL    HW254217  12.935  12.383  13.002
17460SOL     OW54218   0.709   9.703  12.302
17460SOL    HW154219   0.617   9.728  12.295
17460SOL    HW254220   0.744   9.760  12.370
17461SOL     OW54221  13.861  14.718   9.633
17461SOL    HW154222  13.809  14.798   9.644
17461SOL    HW254223  13.807  14.661   9.580
17462SOL     OW54224  14.384   8.678   8.369
17462SOL    HW154225  14.335   8.736   8.428
17462SOL    HW254226  14.354   8.702   8.282
17463SOL     OW54227   5.951   2.452   9.682
17463SOL    HW154228   5.964   2.473   9.775
17463SOL    HW254229   5.895   2.374   9.684
17464SOL     OW54230   3.277  11.558  12.445
17464SOL    HW154231   3.220  11.583  12.518
17464SOL    HW254232   3.219  11.518  12.381
17465SOL     OW54233   5.374   2.204   6.968
17465SOL    HW154234   5.374   2.130   6.908
17465SOL    HW254235   5.353   2.279   6.913
17466SOL     OW54236   2.513  11.787   4.087
17466SOL    HW154237   2.586  11.755   4.140
17466SOL    HW254238   2.474  11.708   4.049
17467SOL     OW54239   8.991   2.462   9.366
17467SOL    HW154240   8.896   2.458   9.375
17467SOL    HW254241   9.011   2.402   9.294
17468SOL     OW54242  11.945   5.890   7.801
17468SOL    HW154243  12.027   5.844   7.820
17468SOL    HW254244  11.900   5.833   7.739
17469SOL     OW54245   6.553   7.637   0.442
17469SOL    HW154246   6.596   7.622   0.358
17469SOL    HW254247   6.486   7.569   0.447
17470SOL     OW54248   7.694   4.473   6.631
17470SOL    HW154249   7.627   4.418   6.670
17470SOL    HW254250   7.717   4.536   6.699
17471SOL     OW54251   1.481  10.239  13.241
17471SOL    HW154252   1.562  10.244  13.190
17471SOL    HW254253   1.414  10.214  13.178
17472SOL     OW54254  12.296  12.235   8.791
17472SOL    HW154255  12.254  12.158   8.829
17472SOL    HW254256  12.387  12.209   8.776
17473SOL     OW54257   3.358  10.062   3.287
17473SOL    HW154258   3.301  10.129   3.326
17473SOL    HW254259   3.405  10.109   3.218
17474SOL     OW54260   5.767   6.711   9.255
17474SOL    HW154261   5.703   6.747   9.317
17474SOL    HW254262   5.852   6.736   9.290
17475SOL     OW54263   4.732   2.121   3.017
17475SOL    HW154264   4.708   2.175   2.941
17475SOL    HW254265   4.762   2.039   2.979
17476SOL     OW54266   4.928   7.820   2.013
17476SOL    HW154267   4.942   7.886   2.081
17476SOL    HW254268   4.981   7.850   1.939
17477SOL     OW54269   8.686  11.408  10.929
17477SOL    HW154270   8.623  11.412  10.857
17477SOL    HW254271   8.680  11.318  10.961
17478SOL     OW54272   8.753   4.404  14.659
17478SOL    HW154273   8.719   4.493  14.667
17478SOL    HW254274   8.830   4.413  14.603
17479SOL     OW54275   3.464   8.663   0.394
17479SOL    HW154276   3.538   8.723   0.389
17479SOL    HW254277   3.423   8.667   0.308
17480SOL     OW54278   8.493   4.316  12.064
17480SOL    HW154279   8.570   4.373  12.064
17480SOL    HW254280   8.420   4.375  12.082
17481SOL     OW54281   5.897   0.398   5.871
17481SOL    HW154282   5.876   0.328   5.809
17481SOL    HW254283   5.836   0.468   5.849
17482SOL     OW54284  11.133   4.350   3.803
17482SOL    HW154285  11.125   4.268   3.851
17482SOL    HW254286  11.214   4.389   3.835
17483SOL     OW54287   0.203   1.549   1.227
17483SOL    HW154288   0.125   1.557   1.281
17483SOL    HW254289   0.267   1.608   1.267
17484SOL     OW54290   8.516   2.181  11.575
17484SOL    HW154291   8.444   2.243  11.587
17484SOL    HW254292   8.585   2.232  11.533
17485SOL     OW54293  13.370   4.122   3.622
17485SOL    HW154294  13.385   4.216   3.609
17485SOL    HW254295  13.392   4.082   3.538
17486SOL     OW54296   5.259   8.071   1.737
17486SOL    HW154297   5.281   8.029   1.654
17486SOL    HW254298   5.183   8.126   1.718
17487SOL     OW54299   0.658   4.096   6.540
17487SOL    HW154300   0.659   4.108   6.445
17487SOL    HW254301   0.608   4.015   6.552
17488SOL     OW54302  14.808   6.300   1.787
17488SOL    HW154303  14.825   6.307   1.881
17488SOL    HW254304   0.016   6.268   1.750
17489SOL     OW54305   3.624   7.345   2.693
17489SOL    HW154306   3.560   7.413   2.715
17489SOL    HW254307   3.596   7.269   2.743
17490SOL     OW54308   2.289   5.552   7.318
17490SOL    HW154309   2.352   5.480   7.326
17490SOL    HW254310   2.303   5.585   7.229
17491SOL     OW54311  10.485   6.680   5.051
17491SOL    HW154312  10.473   6.616   4.981
17491SOL    HW254313  10.467   6.631   5.132
17492SOL     OW54314   2.924  11.488   6.116
17492SOL    HW154315   2.922  11.456   6.026
17492SOL    HW254316   3.009  11.462   6.150
17493SOL     OW54317  10.905   1.172   5.823
17493SOL    HW154318  10.871   1.164   5.734
17493SOL    HW254319  10.917   1.265   5.837
17494SOL     OW54320  14.872  12.427  10.407
17494SOL    HW154321  14.830  12.353  10.450
17494SOL    HW254322   0.049  12.388  10.336
17495SOL     OW54323   4.719  11.203   3.253
17495SOL    HW154324   4.623  11.203   3.260
17495SOL    HW254325   4.736  11.243   3.167
17496SOL     OW54326   7.279   1.155  14.630
17496SOL    HW154327   7.331   1.121  14.703
17496SOL    HW254328   7.256   1.077  14.579
17497SOL     OW54329  10.111  12.654   3.431
17497SOL    HW154330  10.202  12.624   3.427
17497SOL    HW254331  10.060  12.574   3.449
17498SOL     OW54332   3.089  14.289   7.675
17498SOL    HW154333   3.037  14.324   7.603
17498SOL    HW254334   3.027  14.279   7.747
17499SOL     OW54335   7.487   2.015  11.309
17499SOL    HW154336   7.497   2.004  11.403
17499SOL    HW254337   7.403   1.975  11.288
17500SOL     OW54338   9.189   2.077   2.332
17500SOL    HW154339   9.283   2.066   2.349
17500SOL    HW254340   9.158   2.130   2.405
17501SOL     OW54341  10.592  13.163   9.531
17501SOL    HW154342  10.680  13.152   9.566
17501SOL    HW254343  10.600  13.234   9.467
17502SOL     OW54344   5.574  10.049   9.675
17502SOL    HW154345   5.490  10.003   9.685
17502SOL    HW254346   5.595  10.081   9.762
17503SOL     OW54347   6.368   3.442   5.340
17503SOL    HW154348   6.447   3.476   5.299
17503SOL    HW254349   6.391   3.431   5.432
17504SOL     OW54350  10.183   8.056   2.309
17504SOL    HW154351  10.104   8.046   2.256
17504SOL    HW254352  10.250   8.084   2.247
17505SOL     OW54353   6.327   3.466   2.853
17505SOL    HW154354   6.255   3.431   2.906
17505SOL    HW254355   6.318   3.423   2.768
17506SOL     OW54356   7.124   7.963   5.805
17506SOL    HW154357   7.171   8.024   5.862
17506SOL    HW254358   7.094   8.017   5.732
17507SOL     OW54359   6.343  13.969   2.439
17507SOL    HW154360   6.293  13.887   2.435
17507SOL    HW254361   6.383  13.975   2.352
17508SOL     OW54362   3.294  10.669  13.429
17508SOL    HW154363   3.275  10.603  13.363
17508SOL    HW254364   3.335  10.740  13.381
17509SOL     OW54365   7.469   0.478   3.549
17509SOL    HW154366   7.401   0.508   3.609
17509SOL    HW254367   7.468   0.383   3.557
17510SOL     OW54368  13.945   3.293   4.342
17510SOL    HW154369  13.956   3.260   4.253
17510SOL    HW254370  13.955   3.217   4.398
17511SOL     OW54371   8.488   8.726   5.441
17511SOL    HW154372   8.451   8.640   5.423
17511SOL    HW254373   8.529   8.717   5.527
17512SOL     OW54374   8.233   3.489   4.235
17512SOL    HW154375   8.142   3.488   4.264
17512SOL    HW254376   8.259   3.397   4.233
17513SOL     OW54377  12.137   5.936  10.481
17513SOL    HW154378  12.117   5.846  10.508
17513SOL    HW254379  12.208   5.963  10.539
17514SOL     OW54380  12.493   0.064   8.549
17514SOL    HW154381  12.454  14.861   8.508
17514SOL    HW254382  12.420   0.123   8.566
17515SOL     OW54383   7.341   6.382   4.234
17515SOL    HW154384   7.294   6.448   4.286
17515SOL    HW254385   7.420   6.363   4.285
17516SOL     OW54386   4.328   0.754  12.040
17516SOL    HW154387   4.419   0.757  12.068
17516SOL    HW254388   4.330   0.707  11.956
17517SOL     OW54389   5.980   9.545   6.523
17517SOL    HW154390   5.902   9.496   6.497
17517SOL    HW254391   6.020   9.492   6.592
17518SOL     OW54392   3.949  13.808   7.177
17518SOL    HW154393   3.972  13.854   7.258
17518SOL    HW254394   3.985  13.863   7.107
17519SOL     OW54395  14.662   7.405   2.622
17519SOL    HW154396  14.708   7.363   2.550
17519SOL    HW254397  14.642   7.334   2.683
17520SOL     OW54398  12.343   8.425   1.717
17520SOL    HW154399  12.273   8.360   1.706
17520SOL    HW254400  12.341   8.476   1.636
17521SOL     OW54401   1.185   3.615  14.495
17521SOL    HW154402   1.111   3.629  14.553
17521SOL    HW254403   1.242   3.691  14.510
17522SOL     OW54404   4.546   1.217   9.368
17522SOL    HW154405   4.629   1.178   9.394
17522SOL    HW254406   4.524   1.176   9.285
17523SOL     OW54407   1.499   7.966   0.222
17523SOL    HW154408   1.435   7.907   0.181
17523SOL    HW254409   1.449   8.044   0.246
17524SOL     OW54410  12.987   9.631   4.003
17524SOL    HW154411  12.984   9.727   4.009
17524SOL    HW254412  12.937   9.611   3.924
17525SOL     OW54413   3.118   6.985   1.848
17525SOL    HW154414   3.081   7.066   1.813
17525SOL    HW254415   3.145   7.008   1.937
17526SOL     OW54416  10.903  13.105   4.826
17526SOL    HW154417  10.897  13.010   4.831
17526SOL    HW254418  10.855  13.136   4.903
17527SOL     OW54419  14.132   6.674   0.519
17527SOL    HW154420  14.216   6.631   0.506
17527SOL    HW254421  14.143   6.723   0.601
17528SOL     OW54422   1.601  11.810  13.425
17528SOL    HW154423   1.597  11.878  13.357
17528SOL    HW254424   1.517  11.816  13.469
17529SOL     OW54425   2.308   5.680  10.189
17529SOL    HW154426   2.348   5.694  10.103
17529SOL    HW254427   2.356   5.737  10.248
17530SOL     OW54428  13.463   7.118  14.699
17530SOL    HW154429  13.520   7.173  14.645
17530SOL    HW254430  13.463   7.161  14.785
17531SOL     OW54431  12.046   5.187   9.860
17531SOL    HW154432  12.039   5.165   9.953
17531SOL    HW254433  11.970   5.145   9.819
17532SOL     OW54434   9.616   3.217   4.494
17532SOL    HW154435   9.698   3.202   4.447
17532SOL    HW254436   9.580   3.296   4.454
17533SOL     OW54437   3.593  13.942   8.758
17533SOL    HW154438   3.525  13.991   8.805
17533SOL    HW254439   3.652  14.009   8.724
17534SOL     OW54440   1.334  10.746  12.161
17534SOL    HW154441   1.266  10.686  12.191
17534SOL    HW254442   1.350  10.804  12.236
17535SOL     OW54443  14.111  13.138   7.176
17535SOL    HW154444  14.185  13.192   7.147
17535SOL    HW254445  14.097  13.076   7.105
17536SOL     OW54446   2.094   8.659  10.847
17536SOL    HW154447   2.179   8.645  10.890
17536SOL    HW254448   2.091   8.592  10.779
17537SOL     OW54449   4.509   7.219  13.334
17537SOL    HW154450   4.538   7.261  13.254
17537SOL    HW254451   4.588   7.181  13.372
17538SOL     OW54452   5.747  10.695   0.669
17538SOL    HW154453   5.668  10.694   0.723
17538SOL    HW254454   5.783  10.607   0.677
17539SOL     OW54455   3.270   0.015  14.763
17539SOL    HW154456   3.333  14.847  14.821
17539SOL    HW254457   3.209   0.060  14.822
17540SOL     OW54458   1.236   0.099   6.946
17540SOL    HW154459   1.273   0.128   6.863
17540SOL    HW254460   1.162   0.043   6.921
17541SOL     OW54461  11.611  10.862   1.098
17541SOL    HW154462  11.580  10.906   1.177
17541SOL    HW254463  11.531  10.837   1.052
17542SOL     OW54464   2.634  13.128   1.981
17542SOL    HW154465   2.656  13.068   1.909
17542SOL    HW254466   2.651  13.215   1.946
17543SOL     OW54467   5.141   5.184   7.529
17543SOL    HW154468   5.159   5.215   7.440
17543SOL    HW254469   5.049   5.206   7.545
17544SOL     OW54470   8.010   8.769   4.181
17544SOL    HW154471   8.099   8.735   4.171
17544SOL    HW254472   7.962   8.729   4.108
17545SOL     OW54473   8.871   2.387  12.907
17545SOL    HW154474   8.886   2.463  12.963
17545SOL    HW254475   8.942   2.389  12.844
17546SOL     OW54476   2.010   1.814   4.830
17546SOL    HW154477   1.947   1.865   4.779
17546SOL    HW254478   1.957   1.769   4.896
17547SOL     OW54479   3.185   3.734  10.320
17547SOL    HW154480   3.266   3.784  10.324
17547SOL    HW254481   3.128   3.774  10.386
17548SOL     OW54482   5.690   7.439   2.941
17548SOL    HW154483   5.758   7.475   2.997
17548SOL    HW254484   5.733   7.422   2.857
17549SOL     OW54485   6.016   5.680  13.433
17549SOL    HW154486   5.934   5.652  13.475
17549SOL    HW254487   6.065   5.723  13.504
17550SOL     OW54488  14.284   4.352  11.198
17550SOL    HW154489  14.320   4.440  11.197
17550SOL    HW254490  14.194   4.363  11.230
17551SOL     OW54491   2.319  12.856   8.881
17551SOL    HW154492   2.249  12.811   8.835
17551SOL    HW254493   2.398  12.834   8.832
17552SOL     OW54494   1.427   1.292   2.120
17552SOL    HW154495   1.415   1.226   2.052
17552SOL    HW254496   1.343   1.337   2.125
17553SOL     OW54497  10.133   6.540   2.323
17553SOL    HW154498  10.197   6.476   2.293
17553SOL    HW254499  10.166   6.624   2.292
17554SOL     OW54500   4.759  12.266  11.639
17554SOL    HW154501   4.805  12.231  11.563
17554SOL    HW254502   4.733  12.355  11.612
17555SOL     OW54503   4.547   8.082  10.583
17555SOL    HW154504   4.483   8.135  10.630
17555SOL    HW254505   4.542   8.112  10.492
17556SOL     OW54506   7.248  14.506   6.983
17556SOL    HW154507   7.186  14.576   7.002
17556SOL    HW254508   7.296  14.494   7.065
17557SOL     OW54509  10.368   9.034   4.540
17557SOL    HW154510  10.314   9.110   4.562
17557SOL    HW254511  10.310   8.959   4.549
17558SOL     OW54512   7.647  12.829   4.022
17558SOL    HW154513   7.677  12.741   4.002
17558SOL    HW254514   7.727  12.879   4.039
17559SOL     OW54515  14.826   4.543  13.698
17559SOL    HW154516   0.003   4.620  13.671
17559SOL    HW254517  14.829   4.485  13.622
17560SOL     OW54518   1.895   1.554  13.442
17560SOL    HW154519   1.948   1.569  13.521
17560SOL    HW254520   1.819   1.610  13.453
17561SOL     OW54521   4.490  10.492   6.888
17561SOL    HW154522   4.471  10.557   6.820
17561SOL    HW254523   4.583  10.471   6.875
17562SOL     OW54524   4.164   9.152   1.320
17562SOL    HW154525   4.257   9.130   1.314
17562SOL    HW254526   4.146   9.155   1.414
17563SOL     OW54527   3.705   4.106   3.559
17563SOL    HW154528   3.726   4.156   3.479
17563SOL    HW254529   3.644   4.039   3.530
17564SOL     OW54530   2.767   9.075   4.314
17564SOL    HW154531   2.746   8.991   4.273
17564SOL    HW254532   2.839   9.055   4.374
17565SOL     OW54533   4.811   4.132   3.108
17565SOL    HW154534   4.771   4.045   3.103
17565SOL    HW254535   4.788   4.173   3.024
17566SOL     OW54536   5.726   3.191   8.945
17566SOL    HW154537   5.673   3.224   9.017
17566SOL    HW254538   5.711   3.253   8.873
17567SOL     OW54539   5.224   5.140   3.891
17567SOL    HW154540   5.256   5.050   3.888
17567SOL    HW254541   5.272   5.185   3.821
17568SOL     OW54542  11.324   4.548   8.615
17568SOL    HW154543  11.306   4.493   8.691
17568SOL    HW254544  11.245   4.599   8.602
17569SOL     OW54545   7.269   2.365   9.623
17569SOL    HW154546   7.351   2.364   9.674
17569SOL    HW254547   7.200   2.362   9.690
17570SOL     OW54548   7.694  12.986   8.861
17570SOL    HW154549   7.675  12.896   8.888
17570SOL    HW254550   7.620  13.037   8.893
17571SOL     OW54551  14.760   0.588   9.700
17571SOL    HW154552  14.819   0.663   9.705
17571SOL    HW254553  14.672   0.627   9.707
17572SOL     OW54554   6.846  13.329  13.565
17572SOL    HW154555   6.911  13.313  13.634
17572SOL    HW254556   6.881  13.405  13.517
17573SOL     OW54557   4.575   1.516   8.055
17573SOL    HW154558   4.595   1.609   8.038
17573SOL    HW254559   4.536   1.485   7.974
17574SOL     OW54560   7.586   1.061   1.192
17574SOL    HW154561   7.675   1.031   1.174
17574SOL    HW254562   7.568   1.124   1.122
17575SOL     OW54563  11.507  14.612  11.307
17575SOL    HW154564  11.420  14.575  11.293
17575SOL    HW254565  11.561  14.573  11.238
17576SOL     OW54566   9.712   1.812  13.429
17576SOL    HW154567   9.772   1.799  13.503
17576SOL    HW254568   9.765   1.789  13.352
17577SOL     OW54569  12.580   7.609  10.516
17577SOL    HW154570  12.645   7.544  10.545
17577SOL    HW254571  12.527   7.626  10.594
17578SOL     OW54572   2.292   1.760  14.798
17578SOL    HW154573   2.253   1.823  14.859
17578SOL    HW254574   2.384   1.757  14.821
17579SOL     OW54575   3.553   5.036   7.177
17579SOL    HW154576   3.629   4.981   7.195
17579SOL    HW254577   3.590   5.122   7.158
17580SOL     OW54578   0.188   9.178  11.081
17580SOL    HW154579   0.166   9.270  11.095
17580SOL    HW254580   0.137   9.131  11.148
17581SOL     OW54581   9.860   6.467   7.314
17581SOL    HW154582   9.897   6.378   7.309
17581SOL    HW254583   9.818   6.471   7.400
17582SOL     OW54584   2.643  14.547   0.043
17582SOL    HW154585   2.616  14.532  14.826
17582SOL    HW254586   2.683  14.464   0.070
17583SOL     OW54587  14.124   7.739  10.135
17583SOL    HW154588  14.042   7.697  10.161
17583SOL    HW254589  14.175   7.669  10.093
17584SOL     OW54590   3.084  11.777  13.285
17584SOL    HW154591   3.115  11.688  13.302
17584SOL    HW254592   3.113  11.796  13.196
17585SOL     OW54593   4.821  10.543   1.802
17585SOL    HW154594   4.846  10.470   1.746
17585SOL    HW254595   4.772  10.602   1.744
17586SOL     OW54596  12.617   1.552   2.741
17586SOL    HW154597  12.588   1.514   2.823
17586SOL    HW254598  12.633   1.644   2.761
17587SOL     OW54599  10.519   8.243   3.068
17587SOL    HW154600  10.512   8.285   3.154
17587SOL    HW254601  10.481   8.307   3.007
17588SOL     OW54602   9.047  10.545   2.993
17588SOL    HW154603   9.122  10.603   3.001
17588SOL    HW254604   9.003  10.552   3.078
17589SOL     OW54605   8.325   0.302   5.938
17589SOL    HW154606   8.308   0.346   5.855
17589SOL    HW254607   8.273   0.222   5.934
17590SOL     OW54608  13.873   3.103   6.424
17590SOL    HW154609  13.878   3.008   6.410
17590SOL    HW254610  13.885   3.141   6.337
17591SOL     OW54611  14.604   6.824   8.250
17591SOL    HW154612  14.606   6.876   8.169
17591SOL    HW254613  14.691   6.838   8.289
17592SOL     OW54614   7.277  12.676   0.882
17592SOL    HW154615   7.247  12.766   0.870
17592SOL    HW254616   7.277  12.639   0.794
17593SOL     OW54617  13.443   5.031   6.410
17593SOL    HW154618  13.423   5.097   6.476
17593SOL    HW254619  13.538   5.022   6.413
17594SOL     OW54620   4.712   2.122   6.451
17594SOL    HW154621   4.662   2.040   6.448
17594SOL    HW254622   4.671   2.177   6.384
17595SOL     OW54623  11.113   4.338   5.067
17595SOL    HW154624  11.072   4.396   5.003
17595SOL    HW254625  11.157   4.272   5.014
17596SOL     OW54626   7.375   0.932   2.425
17596SOL    HW154627   7.391   0.893   2.512
17596SOL    HW254628   7.373   0.856   2.366
17597SOL     OW54629   2.439   9.282  10.534
17597SOL    HW154630   2.530   9.300  10.509
17597SOL    HW254631   2.402   9.368  10.552
17598SOL     OW54632   7.434  13.215  11.713
17598SOL    HW154633   7.366  13.174  11.658
17598SOL    HW254634   7.418  13.179  11.801
17599SOL     OW54635   9.860   0.703   6.295
17599SOL    HW154636   9.938   0.748   6.262
17599SOL    HW254637   9.842   0.744   6.379
17600SOL     OW54638  10.051   3.200   1.367
17600SOL    HW154639   9.981   3.265   1.371
17600SOL    HW254640  10.110   3.232   1.299
17601SOL     OW54641   4.569  14.860   1.651
17601SOL    HW154642   4.504   0.004   1.719
17601SOL    HW254643   4.595   0.073   1.619
17602SOL     OW54644  12.752   8.014   4.018
17602SOL    HW154645  12.821   8.000   3.952
17602SOL    HW254646  12.684   8.062   3.971
17603SOL     OW54647  12.239   3.481   3.652
17603SOL    HW154648  12.266   3.395   3.621
17603SOL    HW254649  12.181   3.463   3.727
17604SOL     OW54650   4.741   0.841   0.547
17604SOL    HW154651   4.655   0.805   0.526
17604SOL    HW254652   4.725   0.935   0.558
17605SOL     OW54653   6.854   9.588   0.837
17605SOL    HW154654   6.921   9.584   0.905
17605SOL    HW254655   6.890   9.647   0.770
17606SOL     OW54656  10.655   6.564  11.276
17606SOL    HW154657  10.691   6.643  11.235
17606SOL    HW254658  10.573   6.593  11.317
17607SOL     OW54659   8.587   2.255  12.416
17607SOL    HW154660   8.653   2.318  12.446
17607SOL    HW254661   8.541   2.229  12.496
17608SOL     OW54662   8.640  12.936  11.932
17608SOL    HW154663   8.632  13.013  11.876
17608SOL    HW254664   8.724  12.897  11.906
17609SOL     OW54665   7.706  13.482   1.166
17609SOL    HW154666   7.678  13.452   1.079
17609SOL    HW254667   7.628  13.524   1.203
17610SOL     OW54668   0.972   7.346   1.726
17610SOL    HW154669   0.997   7.276   1.787
17610SOL    HW254670   1.055   7.387   1.702
17611SOL     OW54671   4.219   3.264   1.478
17611SOL    HW154672   4.164   3.342   1.485
17611SOL    HW254673   4.260   3.272   1.391
17612SOL     OW54674   0.561   3.597   2.984
17612SOL    HW154675   0.616   3.633   3.054
17612SOL    HW254676   0.587   3.505   2.978
17613SOL     OW54677   0.833   3.958   1.532
17613SOL    HW154678   0.788   3.882   1.570
17613SOL    HW254679   0.838   3.940   1.438
17614SOL     OW54680   5.469   8.381   5.334
17614SOL    HW154681   5.451   8.300   5.382
17614SOL    HW254682   5.472   8.354   5.242
17615SOL     OW54683  13.098   7.114  12.854
17615SOL    HW154684  13.052   7.188  12.813
17615SOL    HW254685  13.065   7.037  12.808
17616SOL     OW54686   4.426   0.764   1.531
17616SOL    HW154687   4.423   0.741   1.624
17616SOL    HW254688   4.357   0.712   1.490
17617SOL     OW54689  13.048   4.761   7.081
17617SOL    HW154690  13.140   4.738   7.071
17617SOL    HW254691  13.026   4.735   7.171
17618SOL     OW54692  12.455   1.289   6.924
17618SOL    HW154693  12.479   1.205   6.887
17618SOL    HW254694  12.432   1.344   6.849
17619SOL     OW54695  10.718   2.608   2.988
17619SOL    HW154696  10.655   2.624   3.059
17619SOL    HW254697  10.715   2.687   2.935
17620SOL     OW54698   3.831  14.167   6.918
17620SOL    HW154699   3.761  14.229   6.897
17620SOL    HW254700   3.833  14.165   7.014
17621SOL     OW54701   6.224   1.559   9.055
17621SOL    HW154702   6.249   1.549   8.963
17621SOL    HW254703   6.285   1.623   9.090
17622SOL     OW54704  11.930   1.732   9.539
17622SOL    HW154705  12.025   1.737   9.553
17622SOL    HW254706  11.896   1.689   9.617
17623SOL     OW54707   4.709   0.384   6.092
17623SOL    HW154708   4.638   0.426   6.140
17623SOL    HW254709   4.711   0.294   6.127
17624SOL     OW54710   2.502   1.512   8.147
17624SOL    HW154711   2.496   1.521   8.242
17624SOL    HW254712   2.536   1.424   8.133
17625SOL     OW54713  13.364   8.352   5.463
17625SOL    HW154714  13.402   8.436   5.489
17625SOL    HW254715  13.431   8.311   5.409
17626SOL     OW54716  14.040   0.685  11.247
17626SOL    HW154717  14.044   0.743  11.171
17626SOL    HW254718  14.037   0.597  11.210
17627SOL     OW54719   4.159   0.654   3.674
17627SOL    HW154720   4.207   0.608   3.606
17627SOL    HW254721   4.153   0.591   3.746
17628SOL     OW54722   0.241   2.400  13.264
17628SOL    HW154723   0.192   2.324  13.231
17628SOL    HW254724   0.204   2.416  13.350
17629SOL     OW54725  13.604   8.193   7.832
17629SOL    HW154726  13.662   8.171   7.759
17629SOL    HW254727  13.628   8.283   7.855
17630SOL     OW54728  13.327  13.438   5.973
17630SOL    HW154729  13.348  13.357   5.927
17630SOL    HW254730  13.403  13.456   6.029
17631SOL     OW54731   3.749   2.684   9.391
17631SOL    HW154732   3.680   2.624   9.421
17631SOL    HW254733   3.815   2.626   9.352
17632SOL     OW54734   2.590   2.142  11.947
17632SOL    HW154735   2.657   2.202  11.916
17632SOL    HW254736   2.630   2.098  12.022
17633SOL     OW54737   6.051   0.471  14.547
17633SOL    HW154738   6.119   0.464  14.480
17633SOL    HW254739   5.981   0.521  14.505
17634SOL     OW54740   3.145   4.943   8.883
17634SOL    HW154741   3.061   4.917   8.845
17634SOL    HW254742   3.129   5.031   8.917
17635SOL     OW54743  10.292   3.508   8.167
17635SOL    HW154744  10.247   3.460   8.098
17635SOL    HW254745  10.256   3.472   8.249
17636SOL     OW54746   7.717   6.999   0.740
17636SOL    HW154747   7.779   6.955   0.798
17636SOL    HW254748   7.770   7.057   0.686
17637SOL     OW54749  13.352   8.977  12.878
17637SOL    HW154750  13.438   9.018  12.874
17637SOL    HW254751  13.355   8.921  12.955
17638SOL     OW54752   9.276   7.536   3.939
17638SOL    HW154753   9.203   7.594   3.962
17638SOL    HW254754   9.236   7.449   3.938
17639SOL     OW54755   6.144   5.646   5.457
17639SOL    HW154756   6.076   5.652   5.390
17639SOL    HW254757   6.211   5.590   5.419
17640SOL     OW54758   9.380   6.402   1.404
17640SOL    HW154759   9.445   6.409   1.335
17640SOL    HW254760   9.429   6.374   1.481
17641SOL     OW54761   1.270   7.165   4.708
17641SOL    HW154762   1.314   7.130   4.786
17641SOL    HW254763   1.226   7.090   4.669
17642SOL     OW54764  11.335   7.090  10.597
17642SOL    HW154765  11.278   7.032  10.547
17642SOL    HW254766  11.424   7.063  10.572
17643SOL     OW54767   8.639   8.629  14.745
17643SOL    HW154768   8.564   8.684  14.766
17643SOL    HW254769   8.601   8.554  14.699
17644SOL     OW54770   1.114  11.482   5.215
17644SOL    HW154771   1.137  11.389   5.219
17644SOL    HW254772   1.142  11.510   5.128
17645SOL     OW54773  10.465   6.244  12.849
17645SOL    HW154774  10.444   6.328  12.890
17645SOL    HW254775  10.459   6.181  12.921
17646SOL     OW54776   5.481   7.998   6.408
17646SOL    HW154777   5.542   8.044   6.351
17646SOL    HW254778   5.532   7.925   6.444
17647SOL     OW54779   6.237   4.554   9.172
17647SOL    HW154780   6.262   4.568   9.263
17647SOL    HW254781   6.283   4.474   9.146
17648SOL     OW54782   6.951   4.284   9.924
17648SOL    HW154783   6.941   4.375   9.953
17648SOL    HW254784   6.904   4.232   9.989
17649SOL     OW54785   4.120   2.621   9.253
17649SOL    HW154786   4.206   2.615   9.295
17649SOL    HW254787   4.129   2.571   9.172
17650SOL     OW54788   1.123   8.419  12.672
17650SOL    HW154789   1.082   8.435  12.587
17650SOL    HW254790   1.173   8.339  12.661
17651SOL     OW54791   5.210   4.518  13.208
17651SOL    HW154792   5.272   4.520  13.135
17651SOL    HW254793   5.128   4.489  13.169
17652SOL     OW54794   5.694  10.492   3.284
17652SOL    HW154795   5.639  10.536   3.219
17652SOL    HW254796   5.634  10.440   3.337
17653SOL     OW54797   9.960   2.522  10.781
17653SOL    HW154798   9.927   2.432  10.780
17653SOL    HW254799   9.882   2.576  10.786
17654SOL     OW54800   6.025  11.461   2.075
17654SOL    HW154801   6.034  11.388   2.014
17654SOL    HW254802   5.979  11.529   2.025
17655SOL     OW54803  14.615   8.017  11.840
17655SOL    HW154804  14.579   7.984  11.923
17655SOL    HW254805  14.634   8.109  11.858
17656SOL     OW54806  13.614  11.288   8.595
17656SOL    HW154807  13.592  11.280   8.502
17656SOL    HW254808  13.683  11.354   8.598
17657SOL     OW54809   0.252   1.849  10.433
17657SOL    HW154810   0.191   1.824  10.502
17657SOL    HW254811   0.328   1.883  10.479
17658SOL     OW54812   7.190   2.534   3.074
17658SOL    HW154813   7.128   2.530   3.147
17658SOL    HW254814   7.135   2.548   2.996
17659SOL     OW54815   7.908   6.922   0.149
17659SOL    HW154816   7.925   7.002   0.099
17659SOL    HW254817   7.993   6.898   0.185
17660SOL     OW54818   4.598   4.664   4.850
17660SOL    HW154819   4.607   4.730   4.918
17660SOL    HW254820   4.582   4.714   4.770
17661SOL     OW54821   3.412   3.885   7.237
17661SOL    HW154822   3.427   3.944   7.164
17661SOL    HW254823   3.416   3.797   7.199
17662SOL     OW54824  12.331   7.897   1.406
17662SOL    HW154825  12.388   7.824   1.382
17662SOL    HW254826  12.248   7.877   1.362
17663SOL     OW54827   7.238   4.638   6.936
17663SOL    HW154828   7.167   4.617   6.997
17663SOL    HW254829   7.318   4.619   6.984
17664SOL     OW54830   7.976   2.302  12.215
17664SOL    HW154831   8.029   2.320  12.293
17664SOL    HW254832   7.924   2.382  12.203
17665SOL     OW54833   7.325  14.850  10.597
17665SOL    HW154834   7.290   0.044  10.655
17665SOL    HW254835   7.419  14.849  10.616
17666SOL     OW54836   3.311   9.536  11.106
17666SOL    HW154837   3.265   9.610  11.145
17666SOL    HW254838   3.399   9.569  11.088
17667SOL     OW54839  14.261  14.626   9.084
17667SOL    HW154840  14.183  14.666   9.123
17667SOL    HW254841  14.265  14.661   8.995
17668SOL     OW54842   3.340  11.539  13.628
17668SOL    HW154843   3.307  11.584  13.706
17668SOL    HW254844   3.264  11.492  13.593
17669SOL     OW54845   5.363   1.543   3.735
17669SOL    HW154846   5.397   1.623   3.695
17669SOL    HW254847   5.320   1.496   3.664
17670SOL     OW54848   3.972   4.095   7.459
17670SOL    HW154849   3.930   4.181   7.458
17670SOL    HW254850   3.908   4.037   7.501
17671SOL     OW54851   0.645   1.902   3.185
17671SOL    HW154852   0.565   1.890   3.237
17671SOL    HW254853   0.617   1.955   3.110
17672SOL     OW54854   0.811  12.688   2.555
17672SOL    HW154855   0.881  12.686   2.491
17672SOL    HW254856   0.734  12.717   2.506
17673SOL     OW54857   5.426   4.239  11.871
17673SOL    HW154858   5.443   4.152  11.837
17673SOL    HW254859   5.357   4.227  11.936
17674SOL     OW54860   1.132   8.351   7.218
17674SOL    HW154861   1.181   8.294   7.160
17674SOL    HW254862   1.051   8.370   7.171
17675SOL     OW54863   8.022   1.940   0.393
17675SOL    HW154864   7.948   1.974   0.443
17675SOL    HW254865   7.983   1.886   0.325
17676SOL     OW54866   7.850   3.503   3.025
17676SOL    HW154867   7.805   3.556   3.091
17676SOL    HW254868   7.780   3.453   2.983
17677SOL     OW54869  13.088   8.111   2.221
17677SOL    HW154870  13.063   8.186   2.275
17677SOL    HW254871  13.177   8.131   2.191
17678SOL     OW54872   4.429   3.841   6.551
17678SOL    HW154873   4.377   3.839   6.471
17678SOL    HW254874   4.474   3.925   6.550
17679SOL     OW54875   6.936   4.722   0.275
17679SOL    HW154876   7.007   4.671   0.314
17679SOL    HW254877   6.980   4.798   0.236
17680SOL     OW54878   8.405   5.800   3.543
17680SOL    HW154879   8.499   5.785   3.552
17680SOL    HW254880   8.399   5.887   3.503
17681SOL     OW54881  13.256   3.103  10.032
17681SOL    HW154882  13.304   3.023  10.010
17681SOL    HW254883  13.209   3.083  10.112
17682SOL     OW54884  10.575  12.451   7.485
17682SOL    HW154885  10.499  12.486   7.531
17682SOL    HW254886  10.623  12.402   7.552
17683SOL     OW54887   8.262   5.642   8.651
17683SOL    HW154888   8.335   5.590   8.618
17683SOL    HW254889   8.302   5.703   8.714
17684SOL     OW54890   4.508   9.196   0.775
17684SOL    HW154891   4.587   9.141   0.774
17684SOL    HW254892   4.533   9.274   0.727
17685SOL     OW54893  14.135   9.336  10.622
17685SOL    HW154894  14.123   9.431  10.631
17685SOL    HW254895  14.208   9.327  10.560
17686SOL     OW54896   2.890   2.676   5.181
17686SOL    HW154897   2.897   2.582   5.168
17686SOL    HW254898   2.797   2.691   5.199
17687SOL     OW54899   7.844  10.183   9.750
17687SOL    HW154900   7.759  10.219   9.777
17687SOL    HW254901   7.906  10.254   9.767
17688SOL     OW54902   3.996   3.188   5.418
17688SOL    HW154903   3.952   3.150   5.342
17688SOL    HW254904   3.967   3.136   5.492
17689SOL     OW54905  13.118   8.110   8.510
17689SOL    HW154906  13.093   8.034   8.457
17689SOL    HW254907  13.192   8.080   8.563
17690SOL     OW54908   6.899   9.349  11.096
17690SOL    HW154909   6.871   9.311  11.180
17690SOL    HW254910   6.888   9.443  11.108
17691SOL     OW54911  14.587  14.497   7.915
17691SOL    HW154912  14.636  14.564   7.868
17691SOL    HW254913  14.503  14.491   7.868
17692SOL     OW54914   9.188   5.642  12.394
17692SOL    HW154915   9.123   5.634  12.464
17692SOL    HW254916   9.159   5.718  12.343
17693SOL     OW54917  13.744  12.727   9.239
17693SOL    HW154918  13.806  12.791   9.203
17693SOL    HW254919  13.794  12.677   9.302
17694SOL     OW54920   2.755  13.683   6.816
17694SOL    HW154921   2.748  13.640   6.901
17694SOL    HW254922   2.668  13.719   6.800
17695SOL     OW54923   4.057   0.846   4.402
17695SOL    HW154924   4.047   0.939   4.423
17695SOL    HW254925   3.987   0.803   4.452
17696SOL     OW54926  14.030   2.352   6.507
17696SOL    HW154927  14.079   2.329   6.429
17696SOL    HW254928  14.095   2.355   6.577
17697SOL     OW54929   9.784   3.165   3.888
17697SOL    HW154930   9.871   3.131   3.910
17697SOL    HW254931   9.776   3.245   3.940
17698SOL     OW54932   9.710   1.754   6.555
17698SOL    HW154933   9.761   1.769   6.476
17698SOL    HW254934   9.619   1.748   6.524
17699SOL     OW54935   2.268   3.418  13.078
17699SOL    HW154936   2.210   3.357  13.124
17699SOL    HW254937   2.270   3.496  13.135
17700SOL     OW54938   3.860   1.701  14.349
17700SOL    HW154939   3.799   1.760  14.392
17700SOL    HW254940   3.919   1.672  14.418
17701SOL     OW54941   2.423   0.728   5.706
17701SOL    HW154942   2.404   0.820   5.685
17701SOL    HW254943   2.337   0.691   5.727
17702SOL     OW54944   4.311  10.853   0.317
17702SOL    HW154945   4.248  10.799   0.268
17702SOL    HW254946   4.306  10.821   0.407
17703SOL     OW54947  13.996  12.478   2.353
17703SOL    HW154948  13.941  12.528   2.412
17703SOL    HW254949  13.946  12.472   2.271
17704SOL     OW54950   6.826  10.259   0.408
17704SOL    HW154951   6.857  10.248   0.498
17704SOL    HW254952   6.903  10.245   0.354
17705SOL     OW54953   1.825   3.235  10.547
17705SOL    HW154954   1.785   3.160  10.501
17705SOL    HW254955   1.824   3.306  10.482
17706SOL     OW54956   0.235   4.579   9.586
17706SOL    HW154957   0.166   4.521   9.617
17706SOL    HW254958   0.196   4.627   9.514
17707SOL     OW54959   6.285   4.203   5.627
17707SOL    HW154960   6.318   4.209   5.538
17707SOL    HW254961   6.212   4.141   5.621
17708SOL     OW54962  10.548   2.052   6.454
17708SOL    HW154963  10.619   2.100   6.413
17708SOL    HW254964  10.546   2.085   6.544
17709SOL     OW54965  14.672   2.110   6.870
17709SOL    HW154966  14.716   2.157   6.799
17709SOL    HW254967  14.585   2.150   6.874
17710SOL     OW54968   7.479   5.294   2.318
17710SOL    HW154969   7.441   5.377   2.346
17710SOL    HW254970   7.572   5.302   2.337
17711SOL     OW54971   5.790   1.150  11.811
17711SOL    HW154972   5.790   1.246  11.815
17711SOL    HW254973   5.741   1.129  11.732
17712SOL     OW54974  13.800   5.391   3.574
17712SOL    HW154975  13.881   5.429   3.607
17712SOL    HW254976  13.827   5.310   3.530
17713SOL     OW54977  12.297  12.431   8.569
17713SOL    HW154978  12.316  12.396   8.656
17713SOL    HW254979  12.376  12.415   8.518
17714SOL     OW54980  10.003   7.591  13.385
17714SOL    HW154981  10.054   7.591  13.304
17714SOL    HW254982  10.000   7.499  13.412
17715SOL     OW54983  10.841   9.818   5.252
17715SOL    HW154984  10.832   9.723   5.242
17715SOL    HW254985  10.760   9.853   5.215
17716SOL     OW54986  13.391   3.833   5.575
17716SOL    HW154987  13.385   3.776   5.499
17716SOL    HW254988  13.423   3.916   5.541
17717SOL     OW54989  11.240  13.288   3.815
17717SOL    HW154990  11.176  13.218   3.831
17717SOL    HW254991  11.254  13.286   3.720
17718SOL     OW54992   9.604   5.821   2.556
17718SOL    HW154993   9.694   5.844   2.535
17718SOL    HW254994   9.558   5.823   2.472
17719SOL     OW54995   0.979   4.157   4.973
17719SOL    HW154996   0.956   4.132   4.883
17719SOL    HW254997   0.899   4.193   5.009
17720SOL     OW54998   0.965   0.838   1.738
17720SOL    HW154999   1.024   0.771   1.773
17720SOL    HW255000   0.962   0.821   1.644
17721SOL     OW55001   6.007   8.665  12.089
17721SOL    HW155002   6.041   8.583  12.053
17721SOL    HW255003   5.989   8.645  12.181
17722SOL     OW55004  14.088   3.659   0.994
17722SOL    HW155005  13.997   3.651   1.024
17722SOL    HW255006  14.094   3.601   0.919
17723SOL     OW55007   4.465   0.359  11.222
17723SOL    HW155008   4.555   0.371  11.251
17723SOL    HW255009   4.434   0.282  11.270
17724SOL     OW55010   2.052   8.988  13.807
17724SOL    HW155011   1.978   9.002  13.747
17724SOL    HW255012   2.014   8.997  13.894
17725SOL     OW55013  11.369  13.204  14.667
17725SOL    HW155014  11.352  13.294  14.637
17725SOL    HW255015  11.459  13.208  14.702
17726SOL     OW55016  10.106   4.509   9.602
17726SOL    HW155017  10.154   4.591   9.595
17726SOL    HW255018  10.072   4.493   9.514
17727SOL     OW55019   1.402  11.907   4.481
17727SOL    HW155020   1.397  12.002   4.472
17727SOL    HW255021   1.489  11.891   4.518
17728SOL     OW55022  14.494   4.141   5.269
17728SOL    HW155023  14.544   4.062   5.249
17728SOL    HW255024  14.561   4.208   5.282
17729SOL     OW55025   7.912  14.382  12.846
17729SOL    HW155026   7.859  14.424  12.914
17729SOL    HW255027   7.941  14.300  12.886
17730SOL     OW55028   4.401  12.164   6.682
17730SOL    HW155029   4.397  12.238   6.742
17730SOL    HW255030   4.397  12.202   6.595
17731SOL     OW55031   1.465  13.141   5.133
17731SOL    HW155032   1.398  13.082   5.167
17731SOL    HW255033   1.539  13.130   5.193
17732SOL     OW55034   9.163  10.446   6.236
17732SOL    HW155035   9.203  10.447   6.323
17732SOL    HW255036   9.210  10.514   6.187
17733SOL     OW55037   7.905  11.250  10.973
17733SOL    HW155038   7.924  11.265  11.065
17733SOL    HW255039   7.989  11.223  10.936
17734SOL     OW55040   0.350  13.926   4.130
17734SOL    HW155041   0.310  14.005   4.165
17734SOL    HW255042   0.396  13.955   4.051
17735SOL     OW55043   9.117  10.558  10.657
17735SOL    HW155044   9.158  10.472  10.664
17735SOL    HW255045   9.158  10.598  10.580
17736SOL     OW55046  10.679   8.013   4.439
17736SOL    HW155047  10.696   8.022   4.345
17736SOL    HW255048  10.753   7.962   4.472
17737SOL     OW55049   3.384   8.501   8.281
17737SOL    HW155050   3.430   8.521   8.200
17737SOL    HW255051   3.399   8.578   8.336
17738SOL     OW55052   5.585   4.142  12.510
17738SOL    HW155053   5.602   4.102  12.595
17738SOL    HW255054   5.569   4.235  12.530
17739SOL     OW55055   1.730   4.875   0.287
17739SOL    HW155056   1.691   4.949   0.241
17739SOL    HW255057   1.823   4.879   0.265
17740SOL     OW55058   1.754   2.878   7.009
17740SOL    HW155059   1.766   2.794   6.964
17740SOL    HW255060   1.814   2.938   6.965
17741SOL     OW55061   3.387   7.646   4.561
17741SOL    HW155062   3.330   7.688   4.626
17741SOL    HW255063   3.424   7.571   4.609
17742SOL     OW55064  13.286  11.926   9.455
17742SOL    HW155065  13.212  11.935   9.395
17742SOL    HW255066  13.269  11.991   9.524
17743SOL     OW55067   7.484   2.538  13.600
17743SOL    HW155068   7.476   2.588  13.519
17743SOL    HW255069   7.403   2.489  13.608
17744SOL     OW55070  11.232   3.544  14.256
17744SOL    HW155071  11.265   3.483  14.321
17744SOL    HW255072  11.186   3.490  14.193
17745SOL     OW55073   3.439   7.915   1.279
17745SOL    HW155074   3.430   8.004   1.244
17745SOL    HW255075   3.465   7.863   1.203
17746SOL     OW55076   1.978   7.511   6.376
17746SOL    HW155077   2.057   7.564   6.365
17746SOL    HW255078   1.923   7.562   6.435
17747SOL     OW55079   2.074  13.214  10.202
17747SOL    HW155080   2.144  13.279  10.200
17747SOL    HW255081   2.109  13.142  10.254
17748SOL     OW55082   8.384  12.089   7.275
17748SOL    HW155083   8.305  12.036   7.286
17748SOL    HW255084   8.421  12.097   7.362
17749SOL     OW55085   2.336   5.187  14.735
17749SOL    HW155086   2.370   5.108  14.692
17749SOL    HW255087   2.268   5.219  14.675
17750SOL     OW55088   7.538  14.516   1.986
17750SOL    HW155089   7.468  14.472   2.034
17750SOL    HW255090   7.619  14.475   2.018
17751SOL     OW55091   9.410   4.428  11.936
17751SOL    HW155092   9.411   4.523  11.939
17751SOL    HW255093   9.355   4.407  11.860
17752SOL     OW55094   6.603   7.938   2.725
17752SOL    HW155095   6.557   7.991   2.790
17752SOL    HW255096   6.695   7.945   2.749
17753SOL     OW55097   1.962   4.862   0.698
17753SOL    HW155098   1.871   4.850   0.672
17753SOL    HW255099   1.989   4.775   0.729
17754SOL     OW55100  13.639   1.211  10.741
17754SOL    HW155101  13.682   1.126  10.732
17754SOL    HW255102  13.694   1.259  10.803
17755SOL     OW55103   8.629   0.891   7.170
17755SOL    HW155104   8.668   0.826   7.112
17755SOL    HW255105   8.679   0.971   7.153
17756SOL     OW55106   9.263   8.714   6.141
17756SOL    HW155107   9.257   8.721   6.236
17756SOL    HW255108   9.343   8.664   6.125
17757SOL     OW55109   0.373   2.360  12.416
17757SOL    HW155110   0.313   2.396  12.350
17757SOL    HW255111   0.413   2.437  12.456
17758SOL     OW55112   1.842   1.916   4.621
17758SOL    HW155113   1.936   1.929   4.614
17758SOL    HW255114   1.806   1.964   4.546
17759SOL     OW55115  11.734   4.722   5.758
17759SOL    HW155116  11.828   4.721   5.742
17759SOL    HW255117  11.710   4.630   5.767
17760SOL     OW55118   5.155   2.265  13.590
17760SOL    HW155119   5.101   2.188  13.605
17760SOL    HW255120   5.235   2.231  13.551
17761SOL     OW55121   0.870   6.498   7.408
17761SOL    HW155122   0.866   6.482   7.502
17761SOL    HW255123   0.794   6.553   7.390
17762SOL     OW55124  13.383   3.457   7.553
17762SOL    HW155125  13.381   3.363   7.535
17762SOL    HW255126  13.461   3.469   7.608
17763SOL     OW55127   5.840  11.451  13.316
17763SOL    HW155128   5.884  11.376  13.355
17763SOL    HW255129   5.863  11.524  13.374
17764SOL     OW55130   0.616   5.185   7.622
17764SOL    HW155131   0.670   5.265   7.629
17764SOL    HW255132   0.633   5.153   7.533
17765SOL     OW55133   6.597   0.556   9.176
17765SOL    HW155134   6.599   0.464   9.204
17765SOL    HW255135   6.516   0.590   9.215
17766SOL     OW55136   4.421   5.885   0.375
17766SOL    HW155137   4.457   5.972   0.388
17766SOL    HW255138   4.370   5.868   0.454
17767SOL     OW55139   7.057   0.397   1.400
17767SOL    HW155140   7.062   0.336   1.327
17767SOL    HW255141   7.140   0.445   1.397
17768SOL     OW55142  10.326   9.921   4.082
17768SOL    HW155143  10.275   9.863   4.140
17768SOL    HW255144  10.412   9.880   4.077
17769SOL     OW55145  12.819   4.281   2.412
17769SOL    HW155146  12.775   4.261   2.494
17769SOL    HW255147  12.757   4.339   2.366
17770SOL     OW55148   8.055  13.711   0.724
17770SOL    HW155149   8.029  13.743   0.638
17770SOL    HW255150   7.996  13.638   0.741
17771SOL     OW55151  10.537   1.336   8.632
17771SOL    HW155152  10.508   1.338   8.541
17771SOL    HW255153  10.580   1.420   8.646
17772SOL     OW55154  10.773  11.858   9.040
17772SOL    HW155155  10.861  11.823   9.026
17772SOL    HW255156  10.773  11.942   8.994
17773SOL     OW55157   6.229  14.206  14.008
17773SOL    HW155158   6.170  14.133  13.986
17773SOL    HW255159   6.257  14.187  14.097
17774SOL     OW55160   3.855   1.835   2.757
17774SOL    HW155161   3.824   1.745   2.749
17774SOL    HW255162   3.896   1.854   2.673
17775SOL     OW55163   2.241   8.509   2.038
17775SOL    HW155164   2.252   8.419   2.069
17775SOL    HW255165   2.209   8.499   1.949
17776SOL     OW55166   3.706   1.492   9.326
17776SOL    HW155167   3.621   1.465   9.289
17776SOL    HW255168   3.686   1.514   9.416
17777SOL     OW55169   0.515   0.176   0.496
17777SOL    HW155170   0.511   0.186   0.401
17777SOL    HW255171   0.585   0.234   0.525
17778SOL     OW55172  13.897  13.883   2.748
17778SOL    HW155173  13.958  13.821   2.708
17778SOL    HW255174  13.848  13.830   2.812
17779SOL     OW55175   2.353  11.641   9.854
17779SOL    HW155176   2.349  11.710   9.787
17779SOL    HW255177   2.336  11.687   9.937
17780SOL     OW55178   9.743   4.660  14.353
17780SOL    HW155179   9.697   4.627  14.276
17780SOL    HW255180   9.758   4.753  14.334
17781SOL     OW55181   1.697   6.694  13.181
17781SOL    HW155182   1.774   6.740  13.214
17781SOL    HW255183   1.726   6.603  13.173
17782SOL     OW55184   5.306   8.439   6.491
17782SOL    HW155185   5.384   8.456   6.437
17782SOL    HW255186   5.308   8.345   6.507
17783SOL     OW55187   2.925  14.119  10.500
17783SOL    HW155188   2.902  14.091  10.588
17783SOL    HW255189   3.014  14.085  10.486
17784SOL     OW55190   1.763   7.014   4.429
17784SOL    HW155191   1.803   6.985   4.511
17784SOL    HW255192   1.749   6.933   4.379
17785SOL     OW55193  12.585   3.209   3.861
17785SOL    HW155194  12.566   3.291   3.814
17785SOL    HW255195  12.626   3.237   3.943
17786SOL     OW55196   0.573   5.149   5.823
17786SOL    HW155197   0.518   5.191   5.890
17786SOL    HW255198   0.657   5.134   5.867
17787SOL     OW55199   6.540   3.096  13.643
17787SOL    HW155200   6.489   3.021  13.674
17787SOL    HW255201   6.474   3.158  13.612
17788SOL     OW55202   2.348   6.922   8.313
17788SOL    HW155203   2.340   7.008   8.273
17788SOL    HW255204   2.416   6.878   8.262
17789SOL     OW55205   3.295   7.207   8.224
17789SOL    HW155206   3.347   7.191   8.145
17789SOL    HW255207   3.205   7.214   8.192
17790SOL     OW55208   0.679   5.720   3.238
17790SOL    HW155209   0.588   5.699   3.261
17790SOL    HW255210   0.681   5.716   3.142
17791SOL     OW55211   1.011  13.392  11.795
17791SOL    HW155212   1.005  13.381  11.890
17791SOL    HW255213   1.042  13.308  11.763
17792SOL     OW55214  13.069   0.609   1.507
17792SOL    HW155215  13.115   0.625   1.589
17792SOL    HW255216  13.115   0.662   1.442
17793SOL     OW55217   4.481  12.621   2.028
17793SOL    HW155218   4.542  12.684   2.067
17793SOL    HW255219   4.419  12.675   1.979
17794SOL     OW55220   4.147  13.585   0.457
17794SOL    HW155221   4.171  13.674   0.482
17794SOL    HW255222   4.054  13.578   0.479
17795SOL     OW55223   1.342   8.539   7.749
17795SOL    HW155224   1.286   8.493   7.686
17795SOL    HW255225   1.411   8.476   7.771
17796SOL     OW55226   4.498   6.149   7.770
17796SOL    HW155227   4.435   6.185   7.707
17796SOL    HW255228   4.518   6.061   7.738
17797SOL     OW55229   7.258   1.395   7.339
17797SOL    HW155230   7.267   1.303   7.362
17797SOL    HW255231   7.181   1.425   7.388
17798SOL     OW55232   2.011   4.092   4.692
17798SOL    HW155233   1.972   4.120   4.775
17798SOL    HW255234   2.094   4.140   4.688
17799SOL     OW55235  12.783   2.743  11.666
17799SOL    HW155236  12.805   2.666  11.614
17799SOL    HW255237  12.856   2.803  11.653
17800SOL     OW55238   6.854   1.655   1.778
17800SOL    HW155239   6.905   1.641   1.857
17800SOL    HW255240   6.864   1.574   1.728
17801SOL     OW55241   6.084  12.297   2.867
17801SOL    HW155242   6.080  12.392   2.862
17801SOL    HW255243   6.012  12.267   2.812
17802SOL     OW55244  11.172  11.304   7.866
17802SOL    HW155245  11.110  11.327   7.935
17802SOL    HW255246  11.119  11.264   7.797
17803SOL     OW55247   1.159   5.468  13.805
17803SOL    HW155248   1.208   5.389  13.830
17803SOL    HW255249   1.074   5.458  13.848
17804SOL     OW55250   2.307   2.758   8.124
17804SOL    HW155251   2.244   2.829   8.109
17804SOL    HW255252   2.281   2.719   8.207
17805SOL     OW55253   0.838  13.998   3.929
17805SOL    HW155254   0.770  13.947   3.885
17805SOL    HW255255   0.896  13.933   3.969
17806SOL     OW55256  10.907  11.471   0.199
17806SOL    HW155257  10.811  11.465   0.195
17806SOL    HW255258  10.936  11.380   0.195
17807SOL     OW55259  13.098   5.359  14.397
17807SOL    HW155260  13.180   5.319  14.427
17807SOL    HW255261  13.115   5.383  14.306
17808SOL     OW55262   7.702   9.217  12.096
17808SOL    HW155263   7.632   9.206  12.031
17808SOL    HW255264   7.781   9.186  12.051
17809SOL     OW55265   5.684   2.587   7.763
17809SOL    HW155266   5.679   2.505   7.813
17809SOL    HW255267   5.699   2.560   7.673
17810SOL     OW55268   1.279   0.672   7.188
17810SOL    HW155269   1.311   0.585   7.210
17810SOL    HW255270   1.338   0.732   7.234
17811SOL     OW55271  13.738   0.690  10.602
17811SOL    HW155272  13.671   0.622  10.607
17811SOL    HW255273  13.748   0.706  10.508
17812SOL     OW55274  14.611   3.712   6.252
17812SOL    HW155275  14.643   3.728   6.164
17812SOL    HW255276  14.689   3.694   6.304
17813SOL     OW55277   9.605  10.875  13.381
17813SOL    HW155278   9.696  10.897  13.362
17813SOL    HW255279   9.572  10.950  13.431
17814SOL     OW55280  13.158  10.270   0.074
17814SOL    HW155281  13.096  10.296   0.143
17814SOL    HW255282  13.105  10.268  14.868
17815SOL     OW55283  10.385  10.682  10.181
17815SOL    HW155284  10.361  10.619  10.249
17815SOL    HW255285  10.320  10.669  10.112
17816SOL     OW55286   1.313   8.323   5.517
17816SOL    HW155287   1.394   8.345   5.564
17816SOL    HW255288   1.247   8.381   5.554
17817SOL     OW55289  12.964   4.390  13.325
17817SOL    HW155290  12.913   4.465  13.293
17817SOL    HW255291  12.899   4.335  13.369
17818SOL     OW55292   8.481  11.315  11.293
17818SOL    HW155293   8.481  11.385  11.228
17818SOL    HW255294   8.502  11.236  11.244
17819SOL     OW55295  12.900   4.586   2.712
17819SOL    HW155296  12.891   4.680   2.724
17819SOL    HW255297  12.951   4.577   2.631
17820SOL     OW55298   6.366   1.594   5.273
17820SOL    HW155299   6.274   1.565   5.272
17820SOL    HW255300   6.382   1.625   5.184
17821SOL     OW55301  12.961  11.444  12.155
17821SOL    HW155302  12.877  11.487  12.135
17821SOL    HW255303  12.967  11.372  12.091
17822SOL     OW55304   6.683   1.066   9.186
17822SOL    HW155305   6.677   1.090   9.093
17822SOL    HW255306   6.599   1.094   9.223
17823SOL     OW55307   8.194  11.056   0.831
17823SOL    HW155308   8.179  11.151   0.825
17823SOL    HW255309   8.234  11.033   0.748
17824SOL     OW55310   4.165   3.302  13.391
17824SOL    HW155311   4.074   3.308  13.361
17824SOL    HW255312   4.186   3.209  13.387
17825SOL     OW55313  13.173   2.492   2.972
17825SOL    HW155314  13.197   2.554   2.903
17825SOL    HW255315  13.158   2.547   3.049
17826SOL     OW55316  14.521   2.542   9.523
17826SOL    HW155317  14.470   2.583   9.593
17826SOL    HW255318  14.552   2.460   9.562
17827SOL     OW55319   7.244   8.026   5.463
17827SOL    HW155320   7.292   7.947   5.489
17827SOL    HW255321   7.305   8.098   5.479
17828SOL     OW55322   9.407   2.920   0.407
17828SOL    HW155323   9.499   2.931   0.432
17828SOL    HW255324   9.369   2.867   0.477
17829SOL     OW55325  11.134   7.440   9.417
17829SOL    HW155326  11.136   7.360   9.470
17829SOL    HW255327  11.063   7.427   9.355
17830SOL     OW55328  13.824   0.868   6.455
17830SOL    HW155329  13.882   0.842   6.526
17830SOL    HW255330  13.881   0.914   6.393
17831SOL     OW55331  11.992   8.458   1.778
17831SOL    HW155332  12.053   8.397   1.736
17831SOL    HW255333  11.907   8.413   1.775
17832SOL     OW55334   6.211   3.434   1.888
17832SOL    HW155335   6.138   3.487   1.921
17832SOL    HW255336   6.224   3.366   1.954
17833SOL     OW55337  14.410   2.652   9.091
17833SOL    HW155338  14.370   2.694   9.015
17833SOL    HW255339  14.501   2.683   9.090
17834SOL     OW55340   0.201   8.845   6.171
17834SOL    HW155341   0.284   8.805   6.197
17834SOL    HW255342   0.153   8.775   6.128
17835SOL     OW55343   1.036   1.449  10.416
17835SOL    HW155344   1.024   1.379  10.480
17835SOL    HW255345   0.953   1.452  10.368
17836SOL     OW55346   7.056   1.035   5.836
17836SOL    HW155347   7.002   1.107   5.869
17836SOL    HW255348   7.144   1.071   5.829
17837SOL     OW55349   4.340   7.173   5.038
17837SOL    HW155350   4.266   7.148   4.983
17837SOL    HW255351   4.312   7.153   5.127
17838SOL     OW55352   8.618   8.794   5.229
17838SOL    HW155353   8.569   8.761   5.304
17838SOL    HW255354   8.618   8.889   5.241
17839SOL     OW55355  14.400   1.426   9.514
17839SOL    HW155356  14.455   1.403   9.589
17839SOL    HW255357  14.461   1.461   9.449
17840SOL     OW55358  13.259   0.992   6.614
17840SOL    HW155359  13.326   1.037   6.562
17840SOL    HW255360  13.299   0.906   6.633
17841SOL     OW55361   3.505  10.193   4.270
17841SOL    HW155362   3.590  10.205   4.226
17841SOL    HW255363   3.528  10.183   4.363
17842SOL     OW55364  13.810  10.325  10.811
17842SOL    HW155365  13.754  10.278  10.872
17842SOL    HW255366  13.749  10.369  10.751
17843SOL     OW55367  10.572   2.262  10.695
17843SOL    HW155368  10.539   2.252  10.785
17843SOL    HW255369  10.618   2.347  10.696
17844SOL     OW55370  12.782   0.924   0.425
17844SOL    HW155371  12.785   0.874   0.343
17844SOL    HW255372  12.704   0.890   0.470
17845SOL     OW55373   3.489   4.663  11.640
17845SOL    HW155374   3.575   4.622  11.638
17845SOL    HW255375   3.508   4.757  11.630
17846SOL     OW55376  13.928  14.399  13.835
17846SOL    HW155377  13.859  14.465  13.826
17846SOL    HW255378  13.933  14.357  13.749
17847SOL     OW55379   4.183   2.960   3.549
17847SOL    HW155380   4.129   2.885   3.570
17847SOL    HW255381   4.137   3.035   3.586
17848SOL     OW55382   4.430   5.051   4.811
17848SOL    HW155383   4.452   5.092   4.727
17848SOL    HW255384   4.514   5.035   4.853
17849SOL     OW55385  14.250   7.488  10.053
17849SOL    HW155386  14.271   7.417  10.115
17849SOL    HW255387  14.324   7.488   9.992
17850SOL     OW55388   7.212   0.776  10.200
17850SOL    HW155389   7.173   0.720  10.133
17850SOL    HW255390   7.257   0.715  10.259
17851SOL     OW55391  12.164   0.907   3.398
17851SOL    HW155392  12.207   0.932   3.315
17851SOL    HW255393  12.079   0.872   3.371
17852SOL     OW55394   7.822  12.816   2.414
17852SOL    HW155395   7.873  12.750   2.368
17852SOL    HW255396   7.775  12.767   2.482
17853SOL     OW55397   5.114   9.943  11.751
17853SOL    HW155398   5.136  10.031  11.783
17853SOL    HW255399   5.081   9.958  11.662
17854SOL     OW55400   0.631   1.219   6.598
17854SOL    HW155401   0.689   1.271   6.544
17854SOL    HW255402   0.659   1.237   6.688
17855SOL     OW55403   2.587  11.727  14.475
17855SOL    HW155404   2.495  11.746  14.488
17855SOL    HW255405   2.596  11.714  14.380
17856SOL     OW55406   5.685  11.760   9.999
17856SOL    HW155407   5.592  11.753  10.020
17856SOL    HW255408   5.710  11.848  10.028
17857SOL     OW55409   2.451   6.228  12.290
17857SOL    HW155410   2.459   6.157  12.227
17857SOL    HW255411   2.386   6.287  12.252
17858SOL     OW55412  11.794  13.035  13.380
17858SOL    HW155413  11.783  12.944  13.353
17858SOL    HW255414  11.707  13.073  13.372
17859SOL     OW55415   8.670   1.628   6.034
17859SOL    HW155416   8.632   1.715   6.033
17859SOL    HW255417   8.672   1.604   6.127
17860SOL     OW55418   8.253  12.921   9.835
17860SOL    HW155419   8.189  12.905   9.765
17860SOL    HW255420   8.333  12.946   9.789
17861SOL     OW55421  10.693   2.934   6.010
17861SOL    HW155422  10.640   2.970   5.940
17861SOL    HW255423  10.686   2.998   6.081
17862SOL     OW55424  12.889   9.197   5.839
17862SOL    HW155425  12.958   9.227   5.780
17862SOL    HW255426  12.892   9.258   5.912
17863SOL     OW55427  12.067  11.803   5.701
17863SOL    HW155428  11.985  11.851   5.688
17863SOL    HW255429  12.099  11.786   5.613
17864SOL     OW55430   8.714  14.320   2.314
17864SOL    HW155431   8.646  14.264   2.278
17864SOL    HW255432   8.668  14.399   2.344
17865SOL     OW55433  13.802  11.336   5.525
17865SOL    HW155434  13.710  11.323   5.500
17865SOL    HW255435  13.827  11.255   5.569
17866SOL     OW55436   4.643   3.703   5.160
17866SOL    HW155437   4.611   3.664   5.078
17866SOL    HW255438   4.635   3.797   5.145
17867SOL     OW55439   9.150  14.701   2.174
17867SOL    HW155440   9.235  14.717   2.134
17867SOL    HW255441   9.087  14.744   2.117
17868SOL     OW55442   8.464   0.397  14.559
17868SOL    HW155443   8.539   0.357  14.603
17868SOL    HW255444   8.494   0.485  14.537
17869SOL     OW55445   3.469  11.598  11.547
17869SOL    HW155446   3.458  11.693  11.551
17869SOL    HW255447   3.502  11.574  11.633
17870SOL     OW55448   5.118   3.925   9.823
17870SOL    HW155449   5.025   3.943   9.836
17870SOL    HW255450   5.159   4.012   9.822
17871SOL     OW55451   8.155  14.777   6.608
17871SOL    HW155452   8.198  14.693   6.625
17871SOL    HW255453   8.226  14.834   6.578
17872SOL     OW55454   6.510   9.790   2.911
17872SOL    HW155455   6.578   9.729   2.939
17872SOL    HW255456   6.523   9.868   2.965
17873SOL     OW55457   6.605   9.289  14.326
17873SOL    HW155458   6.679   9.235  14.298
17873SOL    HW255459   6.543   9.226  14.364
17874SOL     OW55460   7.614   6.897   7.905
17874SOL    HW155461   7.655   6.968   7.855
17874SOL    HW255462   7.530   6.934   7.934
17875SOL     OW55463  11.488  14.257   0.291
17875SOL    HW155464  11.410  14.231   0.243
17875SOL    HW255465  11.456  14.314   0.361
17876SOL     OW55466   8.891  12.271   5.343
17876SOL    HW155467   8.882  12.176   5.340
17876SOL    HW255468   8.969  12.286   5.397
17877SOL     OW55469   7.055   2.462   9.293
17877SOL    HW155470   6.971   2.429   9.324
17877SOL    HW255471   7.054   2.446   9.199
17878SOL     OW55472   1.738   7.645   0.778
17878SOL    HW155473   1.721   7.557   0.744
17878SOL    HW255474   1.664   7.697   0.748
17879SOL     OW55475   4.889  13.482   9.327
17879SOL    HW155476   4.824  13.545   9.296
17879SOL    HW255477   4.969  13.533   9.338
17880SOL     OW55478   1.932   8.282   0.517
17880SOL    HW155479   1.999   8.307   0.453
17880SOL    HW255480   1.886   8.209   0.478
17881SOL     OW55481   1.272   4.440   9.927
17881SOL    HW155482   1.366   4.450   9.943
17881SOL    HW255483   1.267   4.379   9.853
17882SOL     OW55484   0.427  11.102   4.659
17882SOL    HW155485   0.419  11.181   4.712
17882SOL    HW255486   0.471  11.039   4.716
17883SOL     OW55487   9.488   6.058  13.576
17883SOL    HW155488   9.462   6.144  13.608
17883SOL    HW255489   9.532   6.075  13.493
17884SOL     OW55490   6.575  13.920   2.233
17884SOL    HW155491   6.640  13.877   2.176
17884SOL    HW255492   6.627  13.972   2.293
17885SOL     OW55493  12.993   9.509   1.512
17885SOL    HW155494  13.067   9.558   1.545
17885SOL    HW255495  12.923   9.524   1.576
17886SOL     OW55496   8.114   2.009  12.035
17886SOL    HW155497   8.064   2.006  12.117
17886SOL    HW255498   8.204   1.990  12.062
17887SOL     OW55499  11.710   3.620   7.657
17887SOL    HW155500  11.688   3.700   7.704
17887SOL    HW255501  11.678   3.636   7.568
17888SOL     OW55502  12.833   8.206   8.523
17888SOL    HW155503  12.915   8.157   8.524
17888SOL    HW255504  12.808   8.212   8.615
17889SOL     OW55505   2.013  14.390   7.086
17889SOL    HW155506   1.918  14.396   7.080
17889SOL    HW255507   2.032  14.297   7.074
17890SOL     OW55508  12.155   5.187   6.033
17890SOL    HW155509  12.078   5.178   5.977
17890SOL    HW255510  12.139   5.127   6.106
17891SOL     OW55511   4.532  13.659   9.018
17891SOL    HW155512   4.589  13.623   8.950
17891SOL    HW255513   4.443  13.646   8.985
17892SOL     OW55514  11.462   6.078   4.568
17892SOL    HW155515  11.528   6.023   4.526
17892SOL    HW255516  11.384   6.024   4.571
17893SOL     OW55517   1.719  12.348   3.488
17893SOL    HW155518   1.657  12.283   3.522
17893SOL    HW255519   1.702  12.427   3.539
17894SOL     OW55520   0.124   1.708   9.776
17894SOL    HW155521   0.153   1.796   9.752
17894SOL    HW255522   0.107   1.714   9.870
17895SOL     OW55523   6.393   9.451   3.626
17895SOL    HW155524   6.309   9.497   3.617
17895SOL    HW255525   6.370   9.369   3.669
17896SOL     OW55526  10.834   0.767   9.785
17896SOL    HW155527  10.748   0.758   9.828
17896SOL    HW255528  10.895   0.782   9.857
17897SOL     OW55529  12.744  14.781  14.034
17897SOL    HW155530  12.839  14.771  14.045
17897SOL    HW255531  12.730  14.775  13.939
17898SOL     OW55532   2.746  10.132   3.556
17898SOL    HW155533   2.801  10.210   3.567
17898SOL    HW255534   2.739  10.120   3.461
17899SOL     OW55535   5.013   1.662  13.461
17899SOL    HW155536   4.932   1.667  13.411
17899SOL    HW255537   5.068   1.602  13.411
17900SOL     OW55538  10.421   3.017  11.812
17900SOL    HW155539  10.467   3.095  11.842
17900SOL    HW255540  10.491   2.958  11.783
17901SOL     OW55541  14.864   2.673   3.703
17901SOL    HW155542  14.779   2.634   3.725
17901SOL    HW255543  14.845   2.736   3.634
17902SOL     OW55544  11.387   5.011   8.045
17902SOL    HW155545  11.464   4.985   8.096
17902SOL    HW255546  11.328   4.936   8.050
17903SOL     OW55547  13.926   5.399   1.503
17903SOL    HW155548  13.886   5.485   1.514
17903SOL    HW255549  14.017   5.417   1.481
17904SOL     OW55550   8.135   5.391   5.675
17904SOL    HW155551   8.081   5.466   5.700
17904SOL    HW255552   8.120   5.327   5.744
17905SOL     OW55553   4.132   0.093  11.817
17905SOL    HW155554   4.100   0.086  11.907
17905SOL    HW255555   4.204   0.030  11.812
17906SOL     OW55556   5.265  11.489   1.719
17906SOL    HW155557   5.235  11.526   1.636
17906SOL    HW255558   5.184  11.466   1.765
17907SOL     OW55559  14.722  12.229   9.294
17907SOL    HW155560  14.801  12.181   9.318
17907SOL    HW255561  14.673  12.168   9.239
17908SOL     OW55562   4.154  12.455   4.376
17908SOL    HW155563   4.161  12.507   4.456
17908SOL    HW255564   4.098  12.381   4.401
17909SOL     OW55565   9.491   1.440   6.933
17909SOL    HW155566   9.428   1.455   7.004
17909SOL    HW255567   9.572   1.415   6.977
17910SOL     OW55568   2.301   4.276   9.617
17910SOL    HW155569   2.241   4.306   9.685
17910SOL    HW255570   2.254   4.204   9.574
17911SOL     OW55571   6.946   5.876   7.922
17911SOL    HW155572   6.868   5.927   7.899
17911SOL    HW255573   7.011   5.942   7.945
17912SOL     OW55574   2.658   1.287   8.096
17912SOL    HW155575   2.622   1.258   8.012
17912SOL    HW255576   2.632   1.218   8.158
17913SOL     OW55577  12.453  11.636   1.925
17913SOL    HW155578  12.392  11.616   1.854
17913SOL    HW255579  12.432  11.725   1.951
17914SOL     OW55580   3.956   8.714   4.508
17914SOL    HW155581   3.920   8.645   4.453
17914SOL    HW255582   3.893   8.786   4.502
17915SOL     OW55583   1.539  10.369  12.343
17915SOL    HW155584   1.444  10.367  12.355
17915SOL    HW255585   1.571  10.295  12.394
17916SOL     OW55586  11.197   7.425  11.963
17916SOL    HW155587  11.208   7.339  11.924
17916SOL    HW255588  11.133   7.469  11.908
17917SOL     OW55589  12.231   2.072   7.452
17917SOL    HW155590  12.245   2.017   7.529
17917SOL    HW255591  12.146   2.112   7.467
17918SOL     OW55592   6.669  13.803   4.320
17918SOL    HW155593   6.691  13.860   4.394
17918SOL    HW255594   6.642  13.721   4.361
17919SOL     OW55595   7.172   3.742   5.076
17919SOL    HW155596   7.214   3.658   5.096
17919SOL    HW255597   7.173   3.789   5.160
17920SOL     OW55598  13.450   9.519  13.123
17920SOL    HW155599  13.527   9.502  13.178
17920SOL    HW255600  13.485   9.532  13.035
17921SOL     OW55601   3.559  12.895   1.281
17921SOL    HW155602   3.560  12.881   1.376
17921SOL    HW255603   3.516  12.980   1.270
17922SOL     OW55604  13.177   0.892  10.869
17922SOL    HW155605  13.200   0.977  10.906
17922SOL    HW255606  13.173   0.833  10.944
17923SOL     OW55607   5.193   0.815  14.203
17923SOL    HW155608   5.137   0.774  14.269
17923SOL    HW255609   5.195   0.752  14.131
17924SOL     OW55610   3.463  14.000  10.731
17924SOL    HW155611   3.461  13.974  10.823
17924SOL    HW255612   3.481  13.918  10.684
17925SOL     OW55613   2.090   3.439   1.742
17925SOL    HW155614   2.013   3.491   1.765
17925SOL    HW255615   2.119   3.401   1.825
17926SOL     OW55616   3.570  10.175  12.128
17926SOL    HW155617   3.573  10.175  12.032
17926SOL    HW255618   3.660  10.197  12.155
17927SOL     OW55619   8.146   6.229   5.698
17927SOL    HW155620   8.168   6.264   5.785
17927SOL    HW255621   8.226   6.184   5.670
17928SOL     OW55622  13.982   8.765   8.998
17928SOL    HW155623  14.077   8.757   9.009
17928SOL    HW255624  13.971   8.844   8.944
17929SOL     OW55625   9.792   3.539   9.292
17929SOL    HW155626   9.850   3.520   9.366
17929SOL    HW255627   9.812   3.471   9.228
17930SOL     OW55628  10.972  10.226   7.588
17930SOL    HW155629  11.054  10.239   7.634
17930SOL    HW255630  10.911  10.193   7.654
17931SOL     OW55631   5.105   8.883   8.079
17931SOL    HW155632   5.067   8.796   8.067
17931SOL    HW255633   5.060   8.937   8.015
17932SOL     OW55634  12.224  11.704   3.149
17932SOL    HW155635  12.270  11.758   3.085
17932SOL    HW255636  12.290  11.642   3.181
17933SOL     OW55637   5.037  11.032   2.686
17933SOL    HW155638   4.946  11.002   2.685
17933SOL    HW255639   5.060  11.039   2.778
17934SOL     OW55640  12.196   3.738   7.791
17934SOL    HW155641  12.222   3.684   7.717
17934SOL    HW255642  12.115   3.698   7.823
17935SOL     OW55643  12.381   7.577  10.165
17935SOL    HW155644  12.409   7.665  10.191
17935SOL    HW255645  12.460   7.536  10.129
17936SOL     OW55646   5.571  13.783   4.602
17936SOL    HW155647   5.546  13.753   4.514
17936SOL    HW255648   5.522  13.864   4.614
17937SOL     OW55649   2.622   5.023   1.439
17937SOL    HW155650   2.576   4.961   1.382
17937SOL    HW255651   2.715   5.010   1.418
17938SOL     OW55652  10.593   2.519  13.997
17938SOL    HW155653  10.602   2.473  13.913
17938SOL    HW255654  10.674   2.568  14.007
17939SOL     OW55655   1.684   0.223   8.428
17939SOL    HW155656   1.639   0.307   8.419
17939SOL    HW255657   1.732   0.230   8.511
17940SOL     OW55658  10.977   1.254  13.866
17940SOL    HW155659  11.002   1.276  13.955
17940SOL    HW255660  11.046   1.291  13.811
17941SOL     OW55661  10.906   0.352  13.076
17941SOL    HW155662  10.993   0.326  13.045
17941SOL    HW255663  10.897   0.443  13.048
17942SOL     OW55664  11.355   3.168  10.304
17942SOL    HW155665  11.299   3.245  10.295
17942SOL    HW255666  11.376   3.165  10.398
17943SOL     OW55667   8.518  12.640  10.963
17943SOL    HW155668   8.579  12.632  10.890
17943SOL    HW255669   8.551  12.580  11.029
17944SOL     OW55670   5.876   2.301   7.136
17944SOL    HW155671   5.837   2.371   7.084
17944SOL    HW255672   5.944   2.265   7.079
17945SOL     OW55673   4.647  11.059   9.225
17945SOL    HW155674   4.662  10.980   9.277
17945SOL    HW255675   4.703  11.125   9.266
17946SOL     OW55676   2.708  13.140  14.233
17946SOL    HW155677   2.777  13.085  14.270
17946SOL    HW255678   2.750  13.223  14.215
17947SOL     OW55679   3.473   4.755   6.188
17947SOL    HW155680   3.494   4.766   6.095
17947SOL    HW255681   3.553   4.718   6.227
17948SOL     OW55682   5.745   0.648   3.877
17948SOL    HW155683   5.692   0.656   3.798
17948SOL    HW255684   5.684   0.620   3.945
17949SOL     OW55685   2.221   1.448   0.392
17949SOL    HW155686   2.135   1.415   0.416
17949SOL    HW255687   2.209   1.543   0.383
17950SOL     OW55688   5.540  14.093  11.795
17950SOL    HW155689   5.572  14.003  11.797
17950SOL    HW255690   5.510  14.106  11.705
17951SOL     OW55691   6.571   2.490   1.645
17951SOL    HW155692   6.541   2.581   1.648
17951SOL    HW255693   6.523   2.453   1.571
17952SOL     OW55694  11.905   5.297   6.231
17952SOL    HW155695  11.819   5.262   6.207
17952SOL    HW255696  11.960   5.276   6.156
17953SOL     OW55697   9.872   4.472   7.703
17953SOL    HW155698   9.799   4.463   7.764
17953SOL    HW255699   9.862   4.560   7.666
17954SOL     OW55700   8.133   6.999   2.919
17954SOL    HW155701   8.189   7.007   2.996
17954SOL    HW255702   8.045   6.990   2.956
17955SOL     OW55703  14.692   6.621  10.865
17955SOL    HW155704  14.611   6.600  10.912
17955SOL    HW255705  14.760   6.576  10.914
17956SOL     OW55706  10.960   5.996  14.066
17956SOL    HW155707  10.872   6.000  14.102
17956SOL    HW255708  10.950   6.023  13.975
17957SOL     OW55709   3.152   1.912   9.736
17957SOL    HW155710   3.060   1.926   9.759
17957SOL    HW255711   3.152   1.831   9.686
17958SOL     OW55712   1.178   1.756   9.404
17958SOL    HW155713   1.248   1.805   9.359
17958SOL    HW255714   1.099   1.774   9.353
17959SOL     OW55715  10.239   7.485   6.118
17959SOL    HW155716  10.181   7.528   6.181
17959SOL    HW255717  10.278   7.413   6.167
17960SOL     OW55718  13.034  11.710  11.910
17960SOL    HW155719  13.116  11.750  11.938
17960SOL    HW255720  13.041  11.703  11.815
17961SOL     OW55721  13.210   4.611   2.864
17961SOL    HW155722  13.206   4.675   2.935
17961SOL    HW255723  13.136   4.634   2.807
17962SOL     OW55724   5.962  11.043   5.603
17962SOL    HW155725   5.994  11.121   5.557
17962SOL    HW255726   5.890  11.075   5.658
17963SOL     OW55727   2.767   3.327  11.390
17963SOL    HW155728   2.754   3.369  11.475
17963SOL    HW255729   2.735   3.237  11.402
17964SOL     OW55730   9.018  14.227  10.987
17964SOL    HW155731   9.040  14.176  11.065
17964SOL    HW255732   8.932  14.194  10.961
17965SOL     OW55733  13.189  12.820  13.553
17965SOL    HW155734  13.209  12.802  13.461
17965SOL    HW255735  13.271  12.802  13.599
17966SOL     OW55736  10.662  10.928   2.472
17966SOL    HW155737  10.596  10.924   2.404
17966SOL    HW255738  10.722  10.997   2.444
17967SOL     OW55739  12.448   2.738   6.995
17967SOL    HW155740  12.450   2.826   6.957
17967SOL    HW255741  12.385   2.745   7.066
17968SOL     OW55742   7.135   5.298   8.336
17968SOL    HW155743   7.048   5.329   8.312
17968SOL    HW255744   7.189   5.315   8.259
17969SOL     OW55745  13.105   8.014  10.475
17969SOL    HW155746  13.125   8.048  10.387
17969SOL    HW255747  13.140   8.080  10.535
17970SOL     OW55748   6.029   4.107  12.453
17970SOL    HW155749   5.990   4.020  12.453
17970SOL    HW255750   5.957   4.166  12.473
17971SOL     OW55751  13.885   8.795   6.316
17971SOL    HW155752  13.885   8.866   6.253
17971SOL    HW255753  13.833   8.726   6.275
17972SOL     OW55754   7.467   2.351   8.671
17972SOL    HW155755   7.435   2.282   8.613
17972SOL    HW255756   7.455   2.432   8.621
17973SOL     OW55757   8.263   8.947   1.943
17973SOL    HW155758   8.219   8.944   1.858
17973SOL    HW255759   8.309   9.030   1.943
17974SOL     OW55760   8.672  10.689  10.826
17974SOL    HW155761   8.592  10.661  10.781
17974SOL    HW255762   8.648  10.770  10.870
17975SOL     OW55763  10.579  10.493   3.379
17975SOL    HW155764  10.627  10.567   3.415
17975SOL    HW255765  10.642  10.421   3.379
17976SOL     OW55766  12.054   3.269   6.686
17976SOL    HW155767  12.005   3.230   6.758
17976SOL    HW255768  12.025   3.221   6.608
17977SOL     OW55769  11.717   5.088  12.996
17977SOL    HW155770  11.745   5.062  13.084
17977SOL    HW255771  11.626   5.060  12.991
17978SOL     OW55772  12.412   8.978   3.616
17978SOL    HW155773  12.334   9.034   3.621
17978SOL    HW255774  12.382   8.892   3.645
17979SOL     OW55775   2.865   4.548   3.212
17979SOL    HW155776   2.924   4.601   3.159
17979SOL    HW255777   2.868   4.461   3.172
17980SOL     OW55778  10.310   0.251   6.410
17980SOL    HW155779  10.307   0.275   6.503
17980SOL    HW255780  10.237   0.190   6.399
17981SOL     OW55781   4.057   5.450   0.533
17981SOL    HW155782   3.975   5.500   0.529
17981SOL    HW255783   4.034   5.363   0.499
17982SOL     OW55784   3.213   1.819   4.388
17982SOL    HW155785   3.253   1.867   4.460
17982SOL    HW255786   3.159   1.885   4.343
17983SOL     OW55787   2.246   6.796  14.589
17983SOL    HW155788   2.233   6.838  14.503
17983SOL    HW255789   2.336   6.762  14.585
17984SOL     OW55790   7.338   4.635   7.996
17984SOL    HW155791   7.338   4.714   8.051
17984SOL    HW255792   7.400   4.654   7.926
17985SOL     OW55793   6.522   0.864   0.754
17985SOL    HW155794   6.523   0.772   0.729
17985SOL    HW255795   6.614   0.885   0.772
17986SOL     OW55796   7.212   0.559   1.987
17986SOL    HW155797   7.135   0.611   1.965
17986SOL    HW255798   7.273   0.622   2.025
17987SOL     OW55799  10.876   6.357   7.867
17987SOL    HW155800  10.817   6.424   7.902
17987SOL    HW255801  10.824   6.276   7.868
17988SOL     OW55802   8.139   0.723  13.948
17988SOL    HW155803   8.197   0.695  14.019
17988SOL    HW255804   8.080   0.649  13.935
17989SOL     OW55805   0.743  11.166   0.414
17989SOL    HW155806   0.681  11.149   0.343
17989SOL    HW255807   0.829  11.165   0.371
17990SOL     OW55808  14.811   7.469   6.613
17990SOL    HW155809  14.777   7.558   6.614
17990SOL    HW255810  14.746   7.419   6.564
17991SOL     OW55811  13.690  13.829   9.222
17991SOL    HW155812  13.614  13.887   9.215
17991SOL    HW255813  13.673  13.759   9.158
17992SOL     OW55814   0.079   2.259   0.792
17992SOL    HW155815   0.138   2.184   0.784
17992SOL    HW255816  14.866   2.221   0.797
17993SOL     OW55817   1.660  10.916   1.693
17993SOL    HW155818   1.605  10.926   1.771
17993SOL    HW255819   1.682  11.006   1.668
17994SOL     OW55820  14.097   9.386  10.256
17994SOL    HW155821  14.073   9.478  10.250
17994SOL    HW255822  14.173   9.384  10.313
17995SOL     OW55823   6.333   5.602   7.701
17995SOL    HW155824   6.261   5.553   7.740
17995SOL    HW255825   6.401   5.536   7.684
17996SOL     OW55826   9.380   8.701  10.810
17996SOL    HW155827   9.352   8.702  10.901
17996SOL    HW255828   9.418   8.787  10.796
17997SOL     OW55829   2.721   7.096   8.737
17997SOL    HW155830   2.789   7.054   8.685
17997SOL    HW255831   2.641   7.084   8.687
17998SOL     OW55832  11.463   8.751   1.611
17998SOL    HW155833  11.389   8.791   1.566
17998SOL    HW255834  11.498   8.821   1.667
17999SOL     OW55835   1.493   3.597  11.675
17999SOL    HW155836   1.442   3.538  11.729
17999SOL    HW255837   1.431   3.665  11.648
18000SOL     OW55838   5.377   9.241  10.685
18000SOL    HW155839   5.339   9.158  10.714
18000SOL    HW255840   5.308   9.305  10.701
18001SOL     OW55841   5.078  10.289   0.266
18001SOL    HW155842   5.031  10.224   0.213
18001SOL    HW255843   5.083  10.251   0.353
18002SOL     OW55844   1.614  11.166   9.894
18002SOL    HW155845   1.650  11.223   9.961
18002SOL    HW255846   1.639  11.207   9.811
18003SOL     OW55847  11.478   0.688  10.416
18003SOL    HW155848  11.494   0.606  10.462
18003SOL    HW255849  11.485   0.756  10.483
18004SOL     OW55850   8.096   7.995  12.957
18004SOL    HW155851   8.005   8.012  12.935
18004SOL    HW255852   8.131   8.080  12.984
18005SOL     OW55853  10.968   1.609   0.657
18005SOL    HW155854  10.942   1.533   0.710
18005SOL    HW255855  10.900   1.614   0.590
18006SOL     OW55856   7.802   6.334  10.769
18006SOL    HW155857   7.784   6.416  10.815
18006SOL    HW255858   7.878   6.297  10.814
18007SOL     OW55859   8.993  11.964   6.450
18007SOL    HW155860   9.053  12.032   6.481
18007SOL    HW255861   8.929  12.011   6.397
18008SOL     OW55862   5.554   3.010   8.863
18008SOL    HW155863   5.591   2.999   8.776
18008SOL    HW255864   5.614   3.070   8.908
18009SOL     OW55865   6.302   6.909  13.262
18009SOL    HW155866   6.389   6.902  13.303
18009SOL    HW255867   6.241   6.903  13.334
18010SOL     OW55868   1.390   3.613  13.972
18010SOL    HW155869   1.366   3.537  13.919
18010SOL    HW255870   1.343   3.686  13.932
18011SOL     OW55871   1.020  10.493  10.233
18011SOL    HW155872   0.940  10.482  10.285
18011SOL    HW255873   1.062  10.570  10.269
18012SOL     OW55874  12.386  10.704  11.966
18012SOL    HW155875  12.390  10.616  12.003
18012SOL    HW255876  12.306  10.742  12.003
18013SOL     OW55877  10.641   6.296  10.227
18013SOL    HW155878  10.597   6.323  10.146
18013SOL    HW255879  10.699   6.225  10.200
18014SOL     OW55880  12.439   3.668   0.860
18014SOL    HW155881  12.404   3.672   0.949
18014SOL    HW255882  12.368   3.699   0.804
18015SOL     OW55883  11.872   1.725  12.367
18015SOL    HW155884  11.951   1.724  12.313
18015SOL    HW255885  11.830   1.808  12.346
18016SOL     OW55886  12.398  11.825   9.001
18016SOL    HW155887  12.440  11.748   8.964
18016SOL    HW255888  12.435  11.833   9.089
18017SOL     OW55889   7.089   9.683  14.588
18017SOL    HW155890   7.083   9.620  14.516
18017SOL    HW255891   7.014   9.664  14.643
18018SOL     OW55892   5.263  12.218  13.544
18018SOL    HW155893   5.337  12.270  13.512
18018SOL    HW255894   5.210  12.281  13.592
18019SOL     OW55895   5.576   2.591   3.649
18019SOL    HW155896   5.493   2.610   3.605
18019SOL    HW255897   5.560   2.614   3.741
18020SOL     OW55898   6.738   8.107  14.445
18020SOL    HW155899   6.662   8.150  14.484
18020SOL    HW255900   6.702   8.052  14.376
18021SOL     OW55901   9.745   4.186  14.466
18021SOL    HW155902   9.730   4.169  14.559
18021SOL    HW255903   9.748   4.282  14.459
18022SOL     OW55904  10.857   6.719   8.910
18022SOL    HW155905  10.788   6.659   8.882
18022SOL    HW255906  10.812   6.791   8.953
18023SOL     OW55907   9.708   2.408  13.106
18023SOL    HW155908   9.778   2.453  13.058
18023SOL    HW255909   9.661   2.358  13.039
18024SOL     OW55910   4.751   7.743   0.133
18024SOL    HW155911   4.777   7.826   0.174
18024SOL    HW255912   4.765   7.757   0.040
18025SOL     OW55913  10.436  14.608  13.003
18025SOL    HW155914  10.429  14.671  13.076
18025SOL    HW255915  10.433  14.523  13.045
18026SOL     OW55916   1.307  10.348  12.733
18026SOL    HW155917   1.274  10.376  12.648
18026SOL    HW255918   1.336  10.429  12.775
18027SOL     OW55919  11.728   8.172   4.000
18027SOL    HW155920  11.794   8.107   4.025
18027SOL    HW255921  11.704   8.214   4.083
18028SOL     OW55922   1.382  11.969   8.575
18028SOL    HW155923   1.300  11.936   8.536
18028SOL    HW255924   1.436  11.890   8.585
18029SOL     OW55925   9.046   8.033   4.152
18029SOL    HW155926   9.076   7.997   4.235
18029SOL    HW255927   8.962   7.990   4.135
18030SOL     OW55928   3.532  12.484   3.612
18030SOL    HW155929   3.442  12.477   3.643
18030SOL    HW255930   3.580  12.526   3.683
18031SOL     OW55931   7.404  14.365   3.748
18031SOL    HW155932   7.426  14.293   3.807
18031SOL    HW255933   7.353  14.425   3.803
18032SOL     OW55934   0.249   0.095   1.868
18032SOL    HW155935   0.260   0.101   1.773
18032SOL    HW255936   0.290   0.012   1.893
18033SOL     OW55937   1.130   9.075   4.978
18033SOL    HW155938   1.167   9.071   4.890
18033SOL    HW255939   1.191   9.025   5.032
18034SOL     OW55940   2.291  12.635   0.082
18034SOL    HW155941   2.222  12.694   0.112
18034SOL    HW255942   2.373  12.679   0.105
18035SOL     OW55943  12.074   9.680   2.199
18035SOL    HW155944  12.010   9.665   2.269
18035SOL    HW255945  12.023   9.718   2.128
18036SOL     OW55946  12.420   6.437   6.711
18036SOL    HW155947  12.372   6.497   6.769
18036SOL    HW255948  12.369   6.436   6.630
18037SOL     OW55949   3.727  14.721   4.879
18037SOL    HW155950   3.807  14.683   4.914
18037SOL    HW255951   3.701  14.787   4.944
18038SOL     OW55952  10.859  14.597  12.531
18038SOL    HW155953  10.777  14.645  12.543
18038SOL    HW255954  10.899  14.596  12.618
18039SOL     OW55955   8.134   9.683   4.788
18039SOL    HW155956   8.125   9.734   4.708
18039SOL    HW255957   8.057   9.627   4.790
18040SOL     OW55958   2.335  10.421   2.309
18040SOL    HW155959   2.258  10.470   2.280
18040SOL    HW255960   2.304  10.370   2.383
18041SOL     OW55961  11.595   5.102  12.084
18041SOL    HW155962  11.631   5.187  12.110
18041SOL    HW255963  11.594   5.104  11.989
18042SOL     OW55964  10.686  11.632   1.557
18042SOL    HW155965  10.772  11.631   1.599
18042SOL    HW255966  10.628  11.590   1.621
18043SOL     OW55967  14.687   2.340   8.841
18043SOL    HW155968  14.610   2.319   8.894
18043SOL    HW255969  14.759   2.295   8.885
18044SOL     OW55970   9.515   4.621   3.753
18044SOL    HW155971   9.496   4.638   3.660
18044SOL    HW255972   9.482   4.698   3.799
18045SOL     OW55973  12.564   6.622   1.456
18045SOL    HW155974  12.642   6.567   1.449
18045SOL    HW255975  12.580   6.676   1.533
18046SOL     OW55976   4.515   9.960   1.984
18046SOL    HW155977   4.573   9.924   1.917
18046SOL    HW255978   4.537  10.053   1.987
18047SOL     OW55979   7.016   0.224  12.223
18047SOL    HW155980   7.032   0.298  12.282
18047SOL    HW255981   7.005   0.149  12.281
18048SOL     OW55982   6.939   9.913   0.369
18048SOL    HW155983   6.963  10.000   0.337
18048SOL    HW255984   6.878   9.930   0.440
18049SOL     OW55985   7.803   9.140   9.510
18049SOL    HW155986   7.713   9.107   9.509
18049SOL    HW255987   7.809   9.189   9.592
18050SOL     OW55988   0.536   7.954  12.936
18050SOL    HW155989   0.484   7.878  12.960
18050SOL    HW255990   0.611   7.951  12.996
18051SOL     OW55991   0.751  12.586  14.762
18051SOL    HW155992   0.749  12.511  14.703
18051SOL    HW255993   0.840  12.619  14.756
18052SOL     OW55994  10.052   4.506   0.900
18052SOL    HW155995  10.002   4.436   0.859
18052SOL    HW255996  10.098   4.464   0.972
18053SOL     OW55997   9.659   9.944   9.542
18053SOL    HW155998   9.631   9.900   9.462
18053SOL    HW255999   9.673  10.035   9.517
18054SOL     OW56000  10.178   3.919  14.172
18054SOL    HW156001  10.167   3.837  14.124
18054SOL    HW256002  10.121   3.981  14.126
18055SOL     OW56003  13.306   7.900  12.581
18055SOL    HW156004  13.246   7.957  12.630
18055SOL    HW256005  13.280   7.811  12.605
18056SOL     OW56006   3.078   4.080  14.547
18056SOL    HW156007   3.037   4.006  14.502
18056SOL    HW256008   3.048   4.073  14.637
18057SOL     OW56009   0.576   5.321  14.854
18057SOL    HW156010   0.582   5.316  14.758
18057SOL    HW256011   0.578   5.415  14.873
18058SOL     OW56012   5.059   8.161   6.067
18058SOL    HW156013   5.110   8.161   5.985
18058SOL    HW256014   5.125   8.175   6.135
18059SOL     OW56015  12.569   8.012   4.363
18059SOL    HW156016  12.574   7.973   4.450
18059SOL    HW256017  12.481   8.050   4.359
18060SOL     OW56018   6.460   7.232   0.737
18060SOL    HW156019   6.479   7.322   0.761
18060SOL    HW256020   6.545   7.195   0.712
18061SOL     OW56021   9.711   6.068   0.415
18061SOL    HW156022   9.794   6.089   0.456
18061SOL    HW256023   9.678   5.993   0.463
18062SOL     OW56024   9.969  12.262  10.655
18062SOL    HW156025  10.036  12.228  10.714
18062SOL    HW256026   9.935  12.185  10.609
18063SOL     OW56027  13.908  12.984   5.535
18063SOL    HW156028  13.932  13.016   5.448
18063SOL    HW256029  13.991  12.969   5.579
18064SOL     OW56030  10.533   2.998   9.880
18064SOL    HW156031  10.472   3.068   9.904
18064SOL    HW256032  10.606   3.043   9.839
18065SOL     OW56033   0.226  14.538   3.198
18065SOL    HW156034   0.137  14.543   3.162
18065SOL    HW256035   0.237  14.446   3.220
18066SOL     OW56036  13.940  13.109   9.349
18066SOL    HW156037  13.897  13.194   9.343
18066SOL    HW256038  13.966  13.102   9.441
18067SOL     OW56039  10.075  12.387   8.764
18067SOL    HW156040  10.147  12.372   8.703
18067SOL    HW256041  10.012  12.440   8.715
18068SOL     OW56042  13.639   6.938   8.795
18068SOL    HW156043  13.583   6.927   8.719
18068SOL    HW256044  13.726   6.957   8.759
18069SOL     OW56045  13.961  11.045   0.083
18069SOL    HW156046  13.897  11.062   0.152
18069SOL    HW256047  14.045  11.069   0.122
18070SOL     OW56048   6.767  11.439   2.933
18070SOL    HW156049   6.676  11.468   2.919
18070SOL    HW256050   6.814  11.468   2.855
18071SOL     OW56051   3.105   5.435   7.514
18071SOL    HW156052   3.195   5.413   7.535
18071SOL    HW256053   3.104   5.531   7.508
18072SOL     OW56054   7.914   9.117   4.802
18072SOL    HW156055   7.946   9.058   4.734
18072SOL    HW256056   7.946   9.203   4.777
18073SOL     OW56057   9.211  11.025  13.088
18073SOL    HW156058   9.256  10.949  13.053
18073SOL    HW256059   9.205  11.009  13.182
18074SOL     OW56060  11.171  12.158   7.584
18074SOL    HW156061  11.104  12.166   7.652
18074SOL    HW256062  11.217  12.077   7.605
18075SOL     OW56063   3.094   2.212  14.774
18075SOL    HW156064   3.055   2.184  14.856
18075SOL    HW256065   3.171   2.263  14.800
18076SOL     OW56066  12.149   0.508   1.050
18076SOL    HW156067  12.183   0.451   0.981
18076SOL    HW256068  12.149   0.595   1.012
18077SOL     OW56069  11.713   0.131   2.598
18077SOL    HW156070  11.799   0.147   2.559
18077SOL    HW256071  11.651   0.149   2.526
18078SOL     OW56072   3.787   0.641   0.513
18078SOL    HW156073   3.742   0.662   0.431
18078SOL    HW256074   3.729   0.577   0.556
18079SOL     OW56075  10.382   8.206   9.129
18079SOL    HW156076  10.368   8.201   9.034
18079SOL    HW256077  10.299   8.180   9.167
18080SOL     OW56078  12.183  11.827   4.539
18080SOL    HW156079  12.096  11.800   4.511
18080SOL    HW256080  12.205  11.766   4.610
18081SOL     OW56081   1.102   9.189  14.571
18081SOL    HW156082   1.095   9.233  14.656
18081SOL    HW256083   1.116   9.259  14.508
18082SOL     OW56084   0.019   8.005   0.665
18082SOL    HW156085   0.039   7.912   0.658
18082SOL    HW256086   0.099   8.044   0.701
18083SOL     OW56087   2.103   8.323  12.790
18083SOL    HW156088   2.176   8.381  12.771
18083SOL    HW256089   2.085   8.279  12.707
18084SOL     OW56090  11.510   1.382  12.675
18084SOL    HW156091  11.420   1.408  12.693
18084SOL    HW256092  11.554   1.462  12.647
18085SOL     OW56093  12.931   6.704  12.224
18085SOL    HW156094  12.936   6.682  12.131
18085SOL    HW256095  12.931   6.800  12.226
18086SOL     OW56096   6.731  13.472  13.029
18086SOL    HW156097   6.719  13.417  13.107
18086SOL    HW256098   6.702  13.559  13.057
18087SOL     OW56099   9.174   5.174  11.104
18087SOL    HW156100   9.252   5.138  11.146
18087SOL    HW256101   9.124   5.097  11.076
18088SOL     OW56102   9.368   1.645   7.485
18088SOL    HW156103   9.326   1.726   7.455
18088SOL    HW256104   9.462   1.663   7.480
18089SOL     OW56105   1.757   9.041  12.774
18089SOL    HW156106   1.741   8.983  12.848
18089SOL    HW256107   1.676   9.038  12.723
18090SOL     OW56108   2.025   5.308   8.091
18090SOL    HW156109   1.951   5.368   8.089
18090SOL    HW256110   1.986   5.223   8.114
18091SOL     OW56111   9.976   5.393  14.210
18091SOL    HW156112   9.920   5.366  14.137
18091SOL    HW256113   9.934   5.472  14.245
18092SOL     OW56114   4.686  12.341   9.215
18092SOL    HW156115   4.733  12.346   9.298
18092SOL    HW256116   4.727  12.408   9.160
18093SOL     OW56117  13.150  11.970  13.769
18093SOL    HW156118  13.141  12.060  13.800
18093SOL    HW256119  13.146  11.916  13.848
18094SOL     OW56120   5.915  13.221   0.509
18094SOL    HW156121   5.999  13.186   0.478
18094SOL    HW256122   5.849  13.171   0.460
18095SOL     OW56123  13.239   0.017  13.261
18095SOL    HW156124  13.333   0.022  13.277
18095SOL    HW256125  13.201   0.082  13.320
18096SOL     OW56126   3.858  12.661   2.088
18096SOL    HW156127   3.778  12.612   2.110
18096SOL    HW256128   3.826  12.738   2.041
18097SOL     OW56129   3.816  10.893  10.523
18097SOL    HW156130   3.868  10.914  10.445
18097SOL    HW256131   3.874  10.915  10.596
18098SOL     OW56132   4.381   9.591  10.954
18098SOL    HW156133   4.454   9.605  10.893
18098SOL    HW256134   4.378   9.671  11.006
18099SOL     OW56135   1.854   1.149   1.140
18099SOL    HW156136   1.917   1.167   1.209
18099SOL    HW256137   1.907   1.147   1.060
18100SOL     OW56138   2.695   5.564  10.187
18100SOL    HW156139   2.693   5.482  10.235
18100SOL    HW256140   2.608   5.572  10.149
18101SOL     OW56141   3.931   8.372   8.582
18101SOL    HW156142   3.871   8.380   8.508
18101SOL    HW256143   3.880   8.400   8.658
18102SOL     OW56144   3.183   2.800  12.791
18102SOL    HW156145   3.220   2.885  12.767
18102SOL    HW256146   3.107   2.789  12.735
18103SOL     OW56147  13.070   3.191  11.757
18103SOL    HW156148  13.047   3.098  11.757
18103SOL    HW256149  13.124   3.202  11.835
18104SOL     OW56150   9.358  13.431   2.800
18104SOL    HW156151   9.341  13.511   2.849
18104SOL    HW256152   9.424  13.385   2.851
18105SOL     OW56153   2.865  13.993  12.411
18105SOL    HW156154   2.771  13.987  12.426
18105SOL    HW256155   2.880  14.085  12.388
18106SOL     OW56156  14.856   9.008   7.739
18106SOL    HW156157  14.845   9.013   7.644
18106SOL    HW256158   0.072   8.980   7.751
18107SOL     OW56159  12.947   2.444   2.812
18107SOL    HW156160  12.980   2.391   2.740
18107SOL    HW256161  13.012   2.432   2.882
18108SOL     OW56162   9.424   5.582   5.795
18108SOL    HW156163   9.451   5.533   5.873
18108SOL    HW256164   9.330   5.564   5.787
18109SOL     OW56165  10.050   9.853  12.950
18109SOL    HW156166  10.137   9.893  12.943
18109SOL    HW256167  10.064   9.761  12.930
18110SOL     OW56168   1.873   3.892   4.231
18110SOL    HW156169   1.841   3.831   4.165
18110SOL    HW256170   1.916   3.837   4.296
18111SOL     OW56171   5.800   5.439   5.127
18111SOL    HW156172   5.863   5.493   5.174
18111SOL    HW256173   5.765   5.380   5.194
18112SOL     OW56174   1.534   7.173   0.771
18112SOL    HW156175   1.529   7.209   0.859
18112SOL    HW256176   1.613   7.210   0.733
18113SOL     OW56177  14.319  10.703   4.318
18113SOL    HW156178  14.274  10.744   4.392
18113SOL    HW256179  14.358  10.624   4.355
18114SOL     OW56180   5.251  11.156   1.340
18114SOL    HW156181   5.342  11.152   1.312
18114SOL    HW256182   5.257  11.174   1.434
18115SOL     OW56183   6.430  10.573   7.898
18115SOL    HW156184   6.456  10.524   7.820
18115SOL    HW256185   6.452  10.664   7.878
18116SOL     OW56186  12.282   8.842   0.422
18116SOL    HW156187  12.316   8.832   0.511
18116SOL    HW256188  12.189   8.862   0.434
18117SOL     OW56189   1.382   3.136  10.165
18117SOL    HW156190   1.385   3.104  10.255
18117SOL    HW256191   1.464   3.186  10.155
18118SOL     OW56192   4.673   5.089  13.235
18118SOL    HW156193   4.684   5.164  13.177
18118SOL    HW256194   4.610   5.033  13.189
18119SOL     OW56195   2.776  12.248  12.857
18119SOL    HW156196   2.817  12.164  12.838
18119SOL    HW256197   2.848  12.312  12.849
18120SOL     OW56198  10.168   6.622   1.781
18120SOL    HW156199  10.210   6.569   1.848
18120SOL    HW256200  10.214   6.599   1.700
18121SOL     OW56201  10.012   4.760   4.712
18121SOL    HW156202   9.997   4.716   4.628
18121SOL    HW256203   9.964   4.706   4.775
18122SOL     OW56204   2.180   3.289  14.527
18122SOL    HW156205   2.090   3.258  14.531
18122SOL    HW256206   2.232   3.209  14.520
18123SOL     OW56207   1.419  12.405   4.755
18123SOL    HW156208   1.395  12.321   4.793
18123SOL    HW256209   1.337  12.441   4.722
18124SOL     OW56210  12.043  13.489   9.752
18124SOL    HW156211  12.021  13.565   9.698
18124SOL    HW256212  12.138  13.491   9.759
18125SOL     OW56213   0.821   7.521  11.598
18125SOL    HW156214   0.772   7.442  11.575
18125SOL    HW256215   0.902   7.515  11.547
18126SOL     OW56216  14.231   0.377   9.027
18126SOL    HW156217  14.183   0.317   9.084
18126SOL    HW256218  14.318   0.338   9.019
18127SOL     OW56219   6.635  10.449   7.107
18127SOL    HW156220   6.633  10.544   7.094
18127SOL    HW256221   6.605  10.413   7.024
18128SOL     OW56222   5.729  12.932   0.524
18128SOL    HW156223   5.772  12.890   0.449
18128SOL    HW256224   5.728  12.864   0.592
18129SOL     OW56225   2.012  13.450   6.297
18129SOL    HW156226   2.080  13.460   6.230
18129SOL    HW256227   2.016  13.358   6.322
18130SOL     OW56228   6.879  13.530  14.760
18130SOL    HW156229   6.852  13.493  14.844
18130SOL    HW256230   6.816  13.600  14.743
18131SOL     OW56231  10.969   7.306   3.170
18131SOL    HW156232  10.993   7.285   3.261
18131SOL    HW256233  10.912   7.382   3.177
18132SOL     OW56234   4.219   0.707  10.174
18132SOL    HW156235   4.301   0.688  10.221
18132SOL    HW256236   4.183   0.782  10.221
18133SOL     OW56237  11.717   8.144  14.075
18133SOL    HW156238  11.658   8.219  14.066
18133SOL    HW256239  11.685   8.098  14.152
18134SOL     OW56240  14.213   6.891   9.619
18134SOL    HW156241  14.178   6.822   9.563
18134SOL    HW256242  14.188   6.865   9.708
18135SOL     OW56243  11.670   0.187   6.829
18135SOL    HW156244  11.749   0.137   6.850
18135SOL    HW256245  11.614   0.126   6.781
18136SOL     OW56246  12.868   4.595  12.209
18136SOL    HW156247  12.876   4.524  12.146
18136SOL    HW256248  12.774   4.611  12.216
18137SOL     OW56249   1.583   3.846   7.782
18137SOL    HW156250   1.673   3.866   7.756
18137SOL    HW256251   1.591   3.770   7.840
18138SOL     OW56252   4.292   1.630   6.628
18138SOL    HW156253   4.252   1.689   6.564
18138SOL    HW256254   4.231   1.631   6.702
18139SOL     OW56255   9.482   9.844   4.352
18139SOL    HW156256   9.520   9.882   4.432
18139SOL    HW256257   9.412   9.787   4.385
18140SOL     OW56258   9.885   7.441   3.474
18140SOL    HW156259   9.866   7.348   3.458
18140SOL    HW256260   9.838   7.461   3.555
18141SOL     OW56261   7.898   2.388   8.058
18141SOL    HW156262   7.994   2.389   8.051
18141SOL    HW256263   7.874   2.298   8.035
18142SOL     OW56264   8.301  14.409  11.898
18142SOL    HW156265   8.300  14.495  11.941
18142SOL    HW256266   8.392  14.380  11.905
18143SOL     OW56267   2.690   5.748  14.334
18143SOL    HW156268   2.730   5.799  14.263
18143SOL    HW256269   2.760   5.690  14.365
18144SOL     OW56270   5.989   5.079  12.807
18144SOL    HW156271   5.978   5.120  12.892
18144SOL    HW256272   5.900   5.073  12.772
18145SOL     OW56273   6.792  10.600   1.605
18145SOL    HW156274   6.725  10.656   1.567
18145SOL    HW256275   6.744  10.525   1.641
18146SOL     OW56276   5.207  12.872  12.575
18146SOL    HW156277   5.130  12.891  12.628
18146SOL    HW256278   5.189  12.911  12.490
18147SOL     OW56279  14.652   5.616   2.405
18147SOL    HW156280  14.615   5.605   2.493
18147SOL    HW256281  14.694   5.701   2.407
18148SOL     OW56282  14.497   7.278  11.724
18148SOL    HW156283  14.532   7.364  11.747
18148SOL    HW256284  14.436   7.257  11.795
18149SOL     OW56285  11.895   1.901   0.403
18149SOL    HW156286  11.947   1.981   0.396
18149SOL    HW256287  11.834   1.918   0.475
18150SOL     OW56288  13.523  12.473   2.312
18150SOL    HW156289  13.539  12.488   2.405
18150SOL    HW256290  13.479  12.388   2.309
18151SOL     OW56291   5.547  10.377   8.438
18151SOL    HW156292   5.476  10.319   8.467
18151SOL    HW256293   5.514  10.465   8.454
18152SOL     OW56294   2.269   1.027   3.544
18152SOL    HW156295   2.218   1.053   3.621
18152SOL    HW256296   2.308   0.943   3.569
18153SOL     OW56297   5.295  10.247   1.064
18153SOL    HW156298   5.254  10.283   0.986
18153SOL    HW256299   5.341  10.321   1.104
18154SOL     OW56300   7.139   9.515  14.354
18154SOL    HW156301   7.090   9.436  14.332
18154SOL    HW256302   7.164   9.551  14.269
18155SOL     OW56303   7.670   2.279   4.849
18155SOL    HW156304   7.586   2.274   4.804
18155SOL    HW256305   7.702   2.368   4.832
18156SOL     OW56306  12.582  12.023   4.588
18156SOL    HW156307  12.676  12.027   4.576
18156SOL    HW256308  12.554  11.946   4.538
18157SOL     OW56309  12.055  10.862   8.530
18157SOL    HW156310  12.026  10.820   8.611
18157SOL    HW256311  12.148  10.880   8.545
18158SOL     OW56312  11.655   1.825   0.804
18158SOL    HW156313  11.634   1.731   0.803
18158SOL    HW256314  11.747   1.829   0.779
18159SOL     OW56315   4.398   8.554   5.006
18159SOL    HW156316   4.406   8.612   5.082
18159SOL    HW256317   4.338   8.599   4.947
18160SOL     OW56318  14.312  14.169  11.673
18160SOL    HW156319  14.255  14.223  11.727
18160SOL    HW256320  14.251  14.111  11.626
18161SOL     OW56321   7.114   6.579  10.152
18161SOL    HW156322   7.193   6.631  10.139
18161SOL    HW256323   7.070   6.622  10.226
18162SOL     OW56324  13.171   1.553   9.783
18162SOL    HW156325  13.102   1.592   9.836
18162SOL    HW256326  13.208   1.626   9.734
18163SOL     OW56327   4.931  14.446   3.047
18163SOL    HW156328   5.018  14.442   3.086
18163SOL    HW256329   4.880  14.500   3.108
18164SOL     OW56330  10.280   4.528   2.908
18164SOL    HW156331  10.350   4.543   2.844
18164SOL    HW256332  10.207   4.581   2.877
18165SOL     OW56333   9.798   9.489   9.725
18165SOL    HW156334   9.789   9.558   9.792
18165SOL    HW256335   9.887   9.498   9.693
18166SOL     OW56336   2.298   0.604  13.065
18166SOL    HW156337   2.208   0.574  13.052
18166SOL    HW256338   2.291   0.668  13.136
18167SOL     OW56339  10.428   3.208   2.099
18167SOL    HW156340  10.361   3.270   2.072
18167SOL    HW256341  10.460   3.241   2.183
18168SOL     OW56342   0.435   7.810  13.965
18168SOL    HW156343   0.415   7.755  13.889
18168SOL    HW256344   0.492   7.756  14.019
18169SOL     OW56345   5.349   3.056   9.090
18169SOL    HW156346   5.375   3.131   9.143
18169SOL    HW256347   5.402   3.063   9.010
18170SOL     OW56348   7.543  12.079  13.080
18170SOL    HW156349   7.497  12.161  13.063
18170SOL    HW256350   7.486  12.012  13.044
18171SOL     OW56351  14.310   8.341   4.139
18171SOL    HW156352  14.241   8.399   4.171
18171SOL    HW256353  14.346   8.300   4.217
18172SOL     OW56354   7.279   8.739   1.091
18172SOL    HW156355   7.310   8.660   1.135
18172SOL    HW256356   7.190   8.753   1.125
18173SOL     OW56357  12.474   0.486  14.615
18173SOL    HW156358  12.432   0.432  14.549
18173SOL    HW256359  12.526   0.425  14.667
18174SOL     OW56360   7.164   1.027   0.858
18174SOL    HW156361   7.181   0.969   0.783
18174SOL    HW256362   7.069   1.034   0.862
18175SOL     OW56363   0.622   8.437   7.231
18175SOL    HW156364   0.628   8.374   7.159
18175SOL    HW256365   0.573   8.511   7.194
18176SOL     OW56366  13.384  12.455   7.281
18176SOL    HW156367  13.443  12.399   7.230
18176SOL    HW256368  13.320  12.395   7.318
18177SOL     OW56369   5.705   5.945   4.016
18177SOL    HW156370   5.759   5.947   3.937
18177SOL    HW256371   5.633   5.886   3.993
18178SOL     OW56372   8.176   7.857  12.362
18178SOL    HW156373   8.124   7.884  12.287
18178SOL    HW256374   8.118   7.871  12.437
18179SOL     OW56375   1.870  11.610  14.711
18179SOL    HW156376   1.885  11.517  14.729
18179SOL    HW256377   1.842  11.613  14.620
18180SOL     OW56378   2.769  14.502   5.544
18180SOL    HW156379   2.828  14.479   5.471
18180SOL    HW256380   2.714  14.424   5.555
18181SOL     OW56381   0.786   1.554  11.474
18181SOL    HW156382   0.862   1.503  11.446
18181SOL    HW256383   0.718   1.488  11.488
18182SOL     OW56384   1.540   9.626   8.752
18182SOL    HW156385   1.609   9.675   8.797
18182SOL    HW256386   1.576   9.607   8.665
18183SOL     OW56387   9.358   9.747  12.712
18183SOL    HW156388   9.337   9.685  12.642
18183SOL    HW256389   9.284   9.742  12.772
18184SOL     OW56390   4.559  13.930  10.125
18184SOL    HW156391   4.493  13.975  10.177
18184SOL    HW256392   4.510  13.866  10.074
18185SOL     OW56393   0.108   7.737   8.571
18185SOL    HW156394   0.115   7.717   8.478
18185SOL    HW256395   0.192   7.777   8.594
18186SOL     OW56396   2.545  13.458   6.535
18186SOL    HW156397   2.617  13.440   6.474
18186SOL    HW256398   2.466  13.449   6.482
18187SOL     OW56399   4.423   4.549   5.010
18187SOL    HW156400   4.487   4.556   4.940
18187SOL    HW256401   4.349   4.602   4.980
18188SOL     OW56402   4.241  14.684   0.020
18188SOL    HW156403   4.318  14.707   0.073
18188SOL    HW256404   4.180  14.757   0.035
18189SOL     OW56405  12.310  12.231  14.388
18189SOL    HW156406  12.244  12.162  14.383
18189SOL    HW256407  12.363  12.220  14.309
18190SOL     OW56408  13.680  14.566  14.098
18190SOL    HW156409  13.679  14.490  14.156
18190SOL    HW256410  13.674  14.642  14.157
18191SOL     OW56411  12.434   1.882   5.074
18191SOL    HW156412  12.441   1.977   5.083
18191SOL    HW256413  12.429   1.867   4.980
18192SOL     OW56414  14.690  11.054  10.633
18192SOL    HW156415  14.725  11.127  10.582
18192SOL    HW256416  14.600  11.044  10.601
18193SOL     OW56417  11.844   7.226   6.334
18193SOL    HW156418  11.853   7.218   6.239
18193SOL    HW256419  11.931   7.204   6.368
18194SOL     OW56420   8.185   6.866  10.283
18194SOL    HW156421   8.170   6.952  10.324
18194SOL    HW256422   8.129   6.806  10.332
18195SOL     OW56423   7.071   2.426  10.233
18195SOL    HW156424   7.084   2.438  10.327
18195SOL    HW256425   7.013   2.350  10.226
18196SOL     OW56426  11.578   8.747   2.462
18196SOL    HW156427  11.659   8.696   2.469
18196SOL    HW256428  11.602   8.822   2.407
18197SOL     OW56429   0.103   6.458   0.067
18197SOL    HW156430   0.142   6.371   0.063
18197SOL    HW256431   0.151   6.503   0.137
18198SOL     OW56432   3.671  10.328  14.199
18198SOL    HW156433   3.592  10.347  14.250
18198SOL    HW256434   3.656  10.372  14.115
18199SOL     OW56435   7.073  11.040   7.109
18199SOL    HW156436   7.040  10.974   7.047
18199SOL    HW256437   7.166  11.020   7.119
18200SOL     OW56438  13.487  11.592  13.788
18200SOL    HW156439  13.510  11.517  13.734
18200SOL    HW256440  13.402  11.571  13.825
18201SOL     OW56441   4.010   8.619   0.946
18201SOL    HW156442   4.073   8.689   0.960
18201SOL    HW256443   4.039   8.549   1.005
18202SOL     OW56444   4.291  12.890  11.963
18202SOL    HW156445   4.352  12.874  11.891
18202SOL    HW256446   4.333  12.960  12.014
18203SOL     OW56447  11.258   2.174  10.916
18203SOL    HW156448  11.254   2.171  10.821
18203SOL    HW256449  11.223   2.260  10.939
18204SOL     OW56450   6.738   6.744  13.905
18204SOL    HW156451   6.803   6.811  13.927
18204SOL    HW256452   6.670   6.753  13.972
18205SOL     OW56453   0.274   4.250   4.325
18205SOL    HW156454   0.219   4.178   4.355
18205SOL    HW256455   0.355   4.240   4.375
18206SOL     OW56456   5.803   7.526  11.356
18206SOL    HW156457   5.728   7.475  11.325
18206SOL    HW256458   5.768   7.613  11.373
18207SOL     OW56459   1.395  11.301   7.654
18207SOL    HW156460   1.433  11.213   7.660
18207SOL    HW256461   1.359  11.305   7.565
18208SOL     OW56462   0.173   8.868   4.404
18208SOL    HW156463   0.098   8.815   4.377
18208SOL    HW256464   0.203   8.910   4.323
18209SOL     OW56465   7.774   4.008  12.096
18209SOL    HW156466   7.729   4.044  12.020
18209SOL    HW256467   7.865   4.037  12.086
18210SOL     OW56468   1.397   0.683  14.219
18210SOL    HW156469   1.441   0.607  14.181
18210SOL    HW256470   1.443   0.758  14.182
18211SOL     OW56471  11.070   9.936   8.716
18211SOL    HW156472  11.093  10.022   8.681
18211SOL    HW256473  11.000   9.954   8.779
18212SOL     OW56474   5.451   1.798   1.167
18212SOL    HW156475   5.505   1.725   1.135
18212SOL    HW256476   5.390   1.815   1.095
18213SOL     OW56477   3.416   6.683   4.595
18213SOL    HW156478   3.427   6.613   4.532
18213SOL    HW256479   3.337   6.659   4.644
18214SOL     OW56480  12.797   2.662   6.694
18214SOL    HW156481  12.753   2.593   6.743
18214SOL    HW256482  12.803   2.628   6.604
18215SOL     OW56483   3.896  13.944  12.164
18215SOL    HW156484   3.841  13.886  12.112
18215SOL    HW256485   3.896  14.027  12.116
18216SOL     OW56486   1.139   1.737  14.537
18216SOL    HW156487   1.213   1.774  14.585
18216SOL    HW256488   1.141   1.781  14.452
18217SOL     OW56489   5.180  10.992  14.108
18217SOL    HW156490   5.101  10.988  14.054
18217SOL    HW256491   5.192  11.085  14.127
18218SOL     OW56492   1.668   5.789   7.166
18218SOL    HW156493   1.657   5.696   7.148
18218SOL    HW256494   1.582   5.818   7.198
18219SOL     OW56495   0.484  11.616  11.119
18219SOL    HW156496   0.443  11.703  11.120
18219SOL    HW256497   0.491  11.592  11.211
18220SOL     OW56498   1.275   1.240   7.904
18220SOL    HW156499   1.367   1.242   7.881
18220SOL    HW256500   1.262   1.153   7.943
18221SOL     OW56501   9.673   4.453   1.335
18221SOL    HW156502   9.683   4.522   1.400
18221SOL    HW256503   9.619   4.387   1.379
18222SOL     OW56504   6.359   9.553   0.242
18222SOL    HW156505   6.340   9.498   0.167
18222SOL    HW256506   6.388   9.636   0.205
18223SOL     OW56507   9.612  14.609   4.239
18223SOL    HW156508   9.683  14.658   4.279
18223SOL    HW256509   9.569  14.671   4.180
18224SOL     OW56510   6.267  12.630   8.982
18224SOL    HW156511   6.256  12.616   9.076
18224SOL    HW256512   6.185  12.670   8.954
18225SOL     OW56513  11.865   3.256  11.986
18225SOL    HW156514  11.926   3.317  12.028
18225SOL    HW256515  11.833   3.303  11.909
18226SOL     OW56516   8.730  11.326   3.784
18226SOL    HW156517   8.654  11.320   3.726
18226SOL    HW256518   8.802  11.352   3.727
18227SOL     OW56519   5.273  10.147   1.942
18227SOL    HW156520   5.319  10.148   2.026
18227SOL    HW256521   5.305  10.068   1.898
18228SOL     OW56522   1.444   3.201  14.679
18228SOL    HW156523   1.374   3.259  14.651
18228SOL    HW256524   1.523   3.237  14.640
18229SOL     OW56525  13.751  11.278   9.459
18229SOL    HW156526  13.751  11.302   9.551
18229SOL    HW256527  13.689  11.205   9.453
18230SOL     OW56528   3.523  12.442   6.049
18230SOL    HW156529   3.501  12.534   6.062
18230SOL    HW256530   3.505  12.401   6.134
18231SOL     OW56531   1.217   2.232   6.812
18231SOL    HW156532   1.285   2.275   6.863
18231SOL    HW256533   1.242   2.140   6.809
18232SOL     OW56534   0.071  13.311   1.754
18232SOL    HW156535   0.073  13.391   1.703
18232SOL    HW256536  14.857  13.275   1.740
18233SOL     OW56537   2.303  11.532   1.934
18233SOL    HW156538   2.261  11.584   1.865
18233SOL    HW256539   2.277  11.442   1.916
18234SOL     OW56540   0.732  12.008   4.972
18234SOL    HW156541   0.817  12.020   4.928
18234SOL    HW256542   0.741  11.925   5.019
18235SOL     OW56543   8.484   6.849   2.373
18235SOL    HW156544   8.501   6.862   2.280
18235SOL    HW256545   8.446   6.761   2.378
18236SOL     OW56546   2.432   6.924  11.670
18236SOL    HW156547   2.500   6.973  11.624
18236SOL    HW256548   2.443   6.950  11.762
18237SOL     OW56549   4.884   3.191   5.557
18237SOL    HW156550   4.891   3.284   5.575
18237SOL    HW256551   4.877   3.150   5.643
18238SOL     OW56552  13.855  12.552  12.072
18238SOL    HW156553  13.820  12.581  12.156
18238SOL    HW256554  13.788  12.492  12.039
18239SOL     OW56555  10.980   0.030   2.275
18239SOL    HW156556  10.928   0.053   2.199
18239SOL    HW256557  10.918  14.863   2.335
18240SOL     OW56558  13.409  14.723   6.717
18240SOL    HW156559  13.332  14.724   6.774
18240SOL    HW256560  13.477  14.680   6.768
18241SOL     OW56561   6.068  12.670   7.519
18241SOL    HW156562   6.018  12.698   7.442
18241SOL    HW256563   6.132  12.607   7.485
18242SOL     OW56564   1.677  13.322  10.779
18242SOL    HW156565   1.698  13.404  10.825
18242SOL    HW256566   1.655  13.349  10.690
18243SOL     OW56567   0.350   1.469   6.468
18243SOL    HW156568   0.394   1.385   6.458
18243SOL    HW256569   0.361   1.490   6.560
18244SOL     OW56570   9.625  10.196   3.065
18244SOL    HW156571   9.618  10.232   3.154
18244SOL    HW256572   9.704  10.236   3.029
18245SOL     OW56573   1.280   2.576  12.908
18245SOL    HW156574   1.328   2.605  12.831
18245SOL    HW256575   1.188   2.577  12.880
18246SOL     OW56576   0.385   7.765  13.044
18246SOL    HW156577   0.397   7.699  13.112
18246SOL    HW256578   0.292   7.787  13.048
18247SOL     OW56579   9.057   2.588   9.804
18247SOL    HW156580   8.989   2.521   9.797
18247SOL    HW256581   9.138   2.541   9.785
18248SOL     OW56582  10.112   5.071   0.305
18248SOL    HW156583  10.045   5.066   0.373
18248SOL    HW256584  10.101   4.990   0.255
18249SOL     OW56585   5.155  14.659   0.681
18249SOL    HW156586   5.107  14.578   0.669
18249SOL    HW256587   5.245  14.631   0.701
18250SOL     OW56588  10.264   5.508   4.035
18250SOL    HW156589  10.358   5.494   4.048
18250SOL    HW256590  10.235   5.431   3.987
18251SOL     OW56591   4.382   5.004  10.296
18251SOL    HW156592   4.401   4.916  10.263
18251SOL    HW256593   4.464   5.052  10.285
18252SOL     OW56594   8.544   7.525   6.435
18252SOL    HW156595   8.640   7.530   6.441
18252SOL    HW256596   8.523   7.568   6.352
18253SOL     OW56597   4.854   5.157   4.883
18253SOL    HW156598   4.947   5.135   4.875
18253SOL    HW256599   4.853   5.230   4.945
18254SOL     OW56600   3.087   6.599   6.142
18254SOL    HW156601   3.092   6.521   6.197
18254SOL    HW256602   3.112   6.671   6.200
18255SOL     OW56603   2.876  12.750  10.498
18255SOL    HW156604   2.902  12.722  10.586
18255SOL    HW256605   2.782  12.732  10.493
18256SOL     OW56606   6.886  13.972  12.247
18256SOL    HW156607   6.854  13.939  12.163
18256SOL    HW256608   6.825  14.042  12.269
18257SOL     OW56609   4.707  11.444   2.933
18257SOL    HW156610   4.683  11.526   2.888
18257SOL    HW256611   4.648  11.440   3.008
18258SOL     OW56612  10.163  12.769   7.245
18258SOL    HW156613  10.174  12.675   7.260
18258SOL    HW256614  10.211  12.810   7.317
18259SOL     OW56615  14.805   0.460   9.968
18259SOL    HW156616   0.027   0.458   9.977
18259SOL    HW256617  14.790   0.509   9.887
18260SOL     OW56618   0.881   4.194   6.728
18260SOL    HW156619   0.813   4.184   6.661
18260SOL    HW256620   0.850   4.140   6.801
18261SOL     OW56621  14.160   6.748   3.310
18261SOL    HW156622  14.193   6.794   3.233
18261SOL    HW256623  14.205   6.663   3.308
18262SOL     OW56624  13.542  12.903   3.935
18262SOL    HW156625  13.488  12.833   3.899
18262SOL    HW256626  13.520  12.980   3.883
18263SOL     OW56627  10.345   1.897   8.918
18263SOL    HW156628  10.297   1.827   8.875
18263SOL    HW256629  10.428   1.902   8.870
18264SOL     OW56630   9.678   2.137   6.697
18264SOL    HW156631   9.611   2.203   6.677
18264SOL    HW256632   9.759   2.175   6.662
18265SOL     OW56633   5.357   8.210   1.136
18265SOL    HW156634   5.357   8.123   1.176
18265SOL    HW256635   5.396   8.197   1.050
18266SOL     OW56636   2.604   8.008  12.835
18266SOL    HW156637   2.625   8.075  12.900
18266SOL    HW256638   2.573   8.057  12.759
18267SOL     OW56639  12.166   7.600   6.071
18267SOL    HW156640  12.252   7.561   6.057
18267SOL    HW256641  12.111   7.562   6.003
18268SOL     OW56642   9.990  12.797   8.670
18268SOL    HW156643  10.016  12.768   8.757
18268SOL    HW256644   9.988  12.717   8.618
18269SOL     OW56645   4.870  11.211  10.678
18269SOL    HW156646   4.815  11.140  10.712
18269SOL    HW256647   4.945  11.214  10.737
18270SOL     OW56648  14.201   7.322  14.660
18270SOL    HW156649  14.213   7.279  14.745
18270SOL    HW256650  14.125   7.277  14.621
18271SOL     OW56651  11.657   1.130   9.461
18271SOL    HW156652  11.621   1.213   9.430
18271SOL    HW256653  11.752   1.139   9.451
18272SOL     OW56654   4.535  12.055   5.270
18272SOL    HW156655   4.475  11.984   5.293
18272SOL    HW256656   4.481  12.118   5.223
18273SOL     OW56657   1.922   9.973   1.378
18273SOL    HW156658   1.907   9.879   1.384
18273SOL    HW256659   1.967   9.984   1.294
18274SOL     OW56660  12.016   2.522   5.994
18274SOL    HW156661  11.951   2.457   6.022
18274SOL    HW256662  12.087   2.470   5.956
18275SOL     OW56663   5.819  10.398  11.837
18275SOL    HW156664   5.825  10.448  11.756
18275SOL    HW256665   5.775  10.316  11.812
18276SOL     OW56666  13.314  11.845   6.692
18276SOL    HW156667  13.297  11.766   6.745
18276SOL    HW256668  13.296  11.918   6.752
18277SOL     OW56669  13.066  13.765   3.535
18277SOL    HW156670  13.032  13.804   3.455
18277SOL    HW256671  13.038  13.674   3.531
18278SOL     OW56672   0.819   7.016  13.371
18278SOL    HW156673   0.838   6.968  13.291
18278SOL    HW256674   0.859   7.102  13.357
18279SOL     OW56675  10.082   1.343  13.753
18279SOL    HW156676  10.059   1.254  13.725
18279SOL    HW256677  10.038   1.400  13.690
18280SOL     OW56678  10.112   0.026   5.630
18280SOL    HW156679  10.169   0.093   5.592
18280SOL    HW256680  10.172  14.834   5.663
18281SOL     OW56681   0.079  12.419   1.407
18281SOL    HW156682   0.117  12.361   1.341
18281SOL    HW256683   0.064  12.362   1.483
18282SOL     OW56684   8.299  11.182   0.364
18282SOL    HW156685   8.226  11.235   0.332
18282SOL    HW256686   8.366  11.190   0.296
18283SOL     OW56687   9.612  11.033  14.281
18283SOL    HW156688   9.550  10.961  14.268
18283SOL    HW256689   9.669  11.030  14.205
18284SOL     OW56690   6.151   7.155   3.084
18284SOL    HW156691   6.222   7.095   3.058
18284SOL    HW256692   6.167   7.172   3.177
18285SOL     OW56693   6.783   7.828   7.512
18285SOL    HW156694   6.875   7.808   7.498
18285SOL    HW256695   6.739   7.795   7.434
18286SOL     OW56696   7.550   9.414   8.649
18286SOL    HW156697   7.550   9.501   8.689
18286SOL    HW256698   7.576   9.355   8.720
18287SOL     OW56699  14.548   4.424  11.941
18287SOL    HW156700  14.619   4.363  11.962
18287SOL    HW256701  14.516   4.394  11.856
18288SOL     OW56702  14.349  10.941   1.276
18288SOL    HW156703  14.326  10.941   1.369
18288SOL    HW256704  14.398  11.022   1.263
18289SOL     OW56705   2.504  12.775   5.724
18289SOL    HW156706   2.495  12.729   5.641
18289SOL    HW256707   2.535  12.708   5.786
18290SOL     OW56708  10.714   4.307   7.659
18290SOL    HW156709  10.667   4.362   7.597
18290SOL    HW256710  10.646   4.256   7.703
18291SOL     OW56711  12.573  14.079   2.087
18291SOL    HW156712  12.545  14.035   2.167
18291SOL    HW256713  12.491  14.102   2.043
18292SOL     OW56714  14.581   0.930   7.490
18292SOL    HW156715  14.560   0.858   7.549
18292SOL    HW256716  14.525   1.002   7.520
18293SOL     OW56717   5.713  13.385   0.330
18293SOL    HW156718   5.726  13.403   0.237
18293SOL    HW256719   5.779  13.319   0.351
18294SOL     OW56720   7.951   4.007   2.647
18294SOL    HW156721   7.981   4.072   2.710
18294SOL    HW256722   8.023   3.944   2.640
18295SOL     OW56723   7.303  13.190   9.968
18295SOL    HW156724   7.244  13.202  10.042
18295SOL    HW256725   7.389  13.216  10.001
18296SOL     OW56726   1.039   8.873   2.166
18296SOL    HW156727   1.040   8.799   2.105
18296SOL    HW256728   0.973   8.932   2.130
18297SOL     OW56729   3.698   4.166   1.163
18297SOL    HW156730   3.608   4.133   1.161
18297SOL    HW256731   3.688   4.261   1.164
18298SOL     OW56732   0.412   7.998   9.443
18298SOL    HW156733   0.361   8.031   9.517
18298SOL    HW256734   0.428   7.906   9.463
18299SOL     OW56735  12.376  13.253   8.520
18299SOL    HW156736  12.356  13.196   8.446
18299SOL    HW256737  12.368  13.342   8.486
18300SOL     OW56738   2.961  12.018   9.790
18300SOL    HW156739   2.909  11.947   9.754
18300SOL    HW256740   3.030  12.032   9.725
18301SOL     OW56741   6.902   2.150   3.286
18301SOL    HW156742   6.940   2.164   3.373
18301SOL    HW256743   6.831   2.088   3.300
18302SOL     OW56744   2.939  13.651   3.694
18302SOL    HW156745   2.917  13.571   3.646
18302SOL    HW256746   2.861  13.706   3.685
18303SOL     OW56747   0.122   0.269   3.440
18303SOL    HW156748   0.212   0.288   3.414
18303SOL    HW256749   0.071   0.341   3.405
18304SOL     OW56750  13.064   0.988  12.957
18304SOL    HW156751  12.977   1.026  12.963
18304SOL    HW256752  13.065   0.944  12.872
18305SOL     OW56753   6.854   8.006   0.143
18305SOL    HW156754   6.814   7.941   0.086
18305SOL    HW256755   6.788   8.023   0.210
18306SOL     OW56756   2.803   1.519   8.407
18306SOL    HW156757   2.844   1.523   8.493
18306SOL    HW256758   2.821   1.605   8.367
18307SOL     OW56759   9.804   0.835   1.399
18307SOL    HW156760   9.822   0.867   1.487
18307SOL    HW256761   9.889   0.804   1.367
18308SOL     OW56762   9.653  11.422   9.740
18308SOL    HW156763   9.563  11.407   9.710
18308SOL    HW256764   9.683  11.497   9.688
18309SOL     OW56765   7.530  12.954   3.740
18309SOL    HW156766   7.604  12.902   3.707
18309SOL    HW256767   7.539  13.039   3.697
18310SOL     OW56768   5.035   5.414   9.979
18310SOL    HW156769   4.970   5.353  10.014
18310SOL    HW256770   5.079   5.449  10.056
18311SOL     OW56771   0.468   3.943   4.988
18311SOL    HW156772   0.483   4.030   5.025
18311SOL    HW256773   0.483   3.953   4.894
18312SOL     OW56774  10.388   4.006   8.478
18312SOL    HW156775  10.384   4.073   8.546
18312SOL    HW256776  10.304   4.011   8.433
18313SOL     OW56777  10.112   6.983   3.075
18313SOL    HW156778  10.173   6.981   3.148
18313SOL    HW256779  10.165   6.959   2.999
18314SOL     OW56780  12.504  14.045   5.772
18314SOL    HW156781  12.496  13.964   5.823
18314SOL    HW256782  12.414  14.078   5.766
18315SOL     OW56783   2.606   6.595  12.256
18315SOL    HW156784   2.519   6.565  12.284
18315SOL    HW256785   2.593   6.687  12.232
18316SOL     OW56786  13.266   7.963   1.070
18316SOL    HW156787  13.229   7.882   1.103
18316SOL    HW256788  13.248   7.962   0.976
18317SOL     OW56789   0.842   1.715   3.039
18317SOL    HW156790   0.795   1.786   3.084
18317SOL    HW256791   0.929   1.715   3.078
18318SOL     OW56792   6.174   8.034   8.117
18318SOL    HW156793   6.196   8.123   8.146
18318SOL    HW256794   6.206   7.977   8.187
18319SOL     OW56795   8.881   3.425   6.750
18319SOL    HW156796   8.939   3.400   6.822
18319SOL    HW256797   8.847   3.511   6.776
18320SOL     OW56798  11.702   9.708   1.235
18320SOL    HW156799  11.636   9.691   1.168
18320SOL    HW256800  11.733   9.621   1.261
18321SOL     OW56801   5.744   2.110   0.906
18321SOL    HW156802   5.667   2.157   0.939
18321SOL    HW256803   5.709   2.029   0.869
18322SOL     OW56804   4.939  14.008   3.908
18322SOL    HW156805   4.933  13.986   4.001
18322SOL    HW256806   5.019  14.060   3.901
18323SOL     OW56807   9.920   1.755   9.090
18323SOL    HW156808   9.894   1.665   9.107
18323SOL    HW256809  10.016   1.752   9.086
18324SOL     OW56810   8.339   5.105   7.040
18324SOL    HW156811   8.381   5.158   6.973
18324SOL    HW256812   8.371   5.140   7.122
18325SOL     OW56813   9.678  13.776   9.036
18325SOL    HW156814   9.672  13.864   9.001
18325SOL    HW256815   9.662  13.719   8.961
18326SOL     OW56816   8.580   1.774   1.673
18326SOL    HW156817   8.538   1.688   1.674
18326SOL    HW256818   8.527   1.829   1.730
18327SOL     OW56819   7.362  10.837   0.355
18327SOL    HW156820   7.391  10.882   0.276
18327SOL    HW256821   7.321  10.905   0.409
18328SOL     OW56822   9.844   0.961   3.367
18328SOL    HW156823   9.928   0.992   3.399
18328SOL    HW256824   9.861   0.873   3.334
18329SOL     OW56825   1.079   8.531   9.265
18329SOL    HW156826   1.129   8.483   9.199
18329SOL    HW256827   1.143   8.553   9.332
18330SOL     OW56828  10.124  10.307  10.497
18330SOL    HW156829  10.126  10.226  10.446
18330SOL    HW256830  10.137  10.278  10.588
18331SOL     OW56831   0.550  13.547   4.966
18331SOL    HW156832   0.491  13.619   4.942
18331SOL    HW256833   0.631  13.590   4.992
18332SOL     OW56834   0.973  12.910   3.499
18332SOL    HW156835   1.054  12.880   3.541
18332SOL    HW256836   0.996  12.996   3.464
18333SOL     OW56837   7.115   3.806  13.052
18333SOL    HW156838   7.171   3.840  12.982
18333SOL    HW256839   7.170   3.809  13.130
18334SOL     OW56840   0.539   8.026   1.223
18334SOL    HW156841   0.471   8.014   1.158
18334SOL    HW256842   0.613   7.975   1.190
18335SOL     OW56843   8.028   8.030   3.836
18335SOL    HW156844   7.992   7.960   3.780
18335SOL    HW256845   7.982   8.019   3.919
18336SOL     OW56846   1.418  14.327   4.350
18336SOL    HW156847   1.403  14.315   4.444
18336SOL    HW256848   1.501  14.374   4.346
18337SOL     OW56849   1.147   5.722  13.759
18337SOL    HW156850   1.176   5.716  13.668
18337SOL    HW256851   1.155   5.633  13.793
18338SOL     OW56852  11.232   9.710   8.168
18338SOL    HW156853  11.301   9.682   8.107
18338SOL    HW256854  11.171   9.635   8.170
18339SOL     OW56855  12.127   3.445   6.892
18339SOL    HW156856  12.160   3.391   6.963
18339SOL    HW256857  12.116   3.385   6.818
18340SOL     OW56858  13.149  13.492  11.150
18340SOL    HW156859  13.057  13.488  11.122
18340SOL    HW256860  13.197  13.447  11.081
18341SOL     OW56861   9.453  11.852  14.305
18341SOL    HW156862   9.529  11.903  14.277
18341SOL    HW256863   9.491  11.769  14.336
18342SOL     OW56864   9.347  10.994   1.496
18342SOL    HW156865   9.308  10.952   1.420
18342SOL    HW256866   9.403  10.927   1.535
18343SOL     OW56867   6.882   0.279   4.176
18343SOL    HW156868   6.901   0.190   4.149
18343SOL    HW256869   6.936   0.293   4.254
18344SOL     OW56870   3.108   2.512   5.942
18344SOL    HW156871   3.086   2.587   5.997
18344SOL    HW256872   3.073   2.436   5.989
18345SOL     OW56873   8.963   9.208   9.584
18345SOL    HW156874   9.006   9.139   9.533
18345SOL    HW256875   8.987   9.289   9.541
18346SOL     OW56876   2.676  13.024  14.566
18346SOL    HW156877   2.768  13.037  14.540
18346SOL    HW256878   2.682  12.983  14.652
18347SOL     OW56879   0.128  13.647   0.429
18347SOL    HW156880   0.168  13.561   0.440
18347SOL    HW256881   0.172  13.702   0.493
18348SOL     OW56882   1.504   1.869  11.510
18348SOL    HW156883   1.484   1.800  11.445
18348SOL    HW256884   1.418   1.904  11.534
18349SOL     OW56885  10.391  14.491   6.981
18349SOL    HW156886  10.430  14.553   7.043
18349SOL    HW256887  10.311  14.534   6.951
18350SOL     OW56888   4.775   1.115   6.664
18350SOL    HW156889   4.789   1.171   6.587
18350SOL    HW256890   4.803   1.028   6.636
18351SOL     OW56891   8.882  11.609  13.293
18351SOL    HW156892   8.864  11.533  13.349
18351SOL    HW256893   8.972  11.595  13.263
18352SOL     OW56894   0.017   5.659  14.494
18352SOL    HW156895  14.820   5.611  14.538
18352SOL    HW256896  14.853   5.688  14.411
18353SOL     OW56897  13.562  10.884   4.729
18353SOL    HW156898  13.513  10.903   4.809
18353SOL    HW256899  13.651  10.912   4.747
18354SOL     OW56900   3.793   1.548   0.307
18354SOL    HW156901   3.701   1.555   0.333
18354SOL    HW256902   3.836   1.505   0.381
18355SOL     OW56903   1.867   9.405  13.334
18355SOL    HW156904   1.935   9.455  13.290
18355SOL    HW256905   1.794   9.403  13.271
18356SOL     OW56906  11.383   5.434   6.459
18356SOL    HW156907  11.401   5.340   6.455
18356SOL    HW256908  11.328   5.451   6.383
18357SOL     OW56909  14.372   7.756   8.046
18357SOL    HW156910  14.467   7.759   8.050
18357SOL    HW256911  14.344   7.788   8.132
18358SOL     OW56912   0.043   7.457   3.872
18358SOL    HW156913   0.036   7.549   3.849
18358SOL    HW256914  14.872   7.450   3.956
18359SOL     OW56915   3.449   1.925   0.766
18359SOL    HW156916   3.455   1.958   0.856
18359SOL    HW256917   3.531   1.953   0.725
18360SOL     OW56918   6.138   7.523  14.157
18360SOL    HW156919   6.096   7.470  14.090
18360SOL    HW256920   6.209   7.468  14.191
18361SOL     OW56921  10.205   1.908   3.249
18361SOL    HW156922  10.280   1.938   3.301
18361SOL    HW256923  10.198   1.972   3.179
18362SOL     OW56924  12.080   6.803   9.923
18362SOL    HW156925  12.108   6.808  10.015
18362SOL    HW256926  12.113   6.719   9.892
18363SOL     OW56927   9.712   7.178  10.947
18363SOL    HW156928   9.704   7.181  10.852
18363SOL    HW256929   9.681   7.264  10.976
18364SOL     OW56930   6.307  11.462   9.343
18364SOL    HW156931   6.245  11.495   9.408
18364SOL    HW256932   6.300  11.523   9.269
18365SOL     OW56933  13.410   3.387   4.757
18365SOL    HW156934  13.455   3.314   4.799
18365SOL    HW256935  13.460   3.465   4.783
18366SOL     OW56936   3.612   5.932  12.876
18366SOL    HW156937   3.651   5.852  12.911
18366SOL    HW256938   3.549   5.902  12.810
18367SOL     OW56939   6.577  11.223  13.377
18367SOL    HW156940   6.634  11.213  13.453
18367SOL    HW256941   6.620  11.290  13.324
18368SOL     OW56942  14.644   8.891   2.546
18368SOL    HW156943  14.604   8.825   2.603
18368SOL    HW256944  14.597   8.883   2.463
18369SOL     OW56945   0.485   0.429  13.351
18369SOL    HW156946   0.420   0.490  13.316
18369SOL    HW256947   0.458   0.416  13.442
18370SOL     OW56948  11.170   9.562   5.163
18370SOL    HW156949  11.180   9.539   5.070
18370SOL    HW256950  11.084   9.604   5.168
18371SOL     OW56951  12.301   4.531  14.868
18371SOL    HW156952  12.278   4.455  14.814
18371SOL    HW256953  12.341   4.592  14.806
18372SOL     OW56954   3.644  12.466   4.084
18372SOL    HW156955   3.584  12.395   4.060
18372SOL    HW256956   3.598  12.511   4.155
18373SOL     OW56957   9.088   7.968   1.095
18373SOL    HW156958   9.164   7.933   1.048
18373SOL    HW256959   9.019   7.974   1.028
18374SOL     OW56960   9.629  11.971  12.289
18374SOL    HW156961   9.702  11.970  12.227
18374SOL    HW256962   9.659  11.918  12.362
18375SOL     OW56963   8.459   0.174  12.716
18375SOL    HW156964   8.537   0.143  12.671
18375SOL    HW256965   8.480   0.263  12.744
18376SOL     OW56966   3.335   6.644   7.926
18376SOL    HW156967   3.262   6.703   7.942
18376SOL    HW256968   3.394   6.694   7.870
18377SOL     OW56969   7.202   8.832  13.333
18377SOL    HW156970   7.283   8.838  13.384
18377SOL    HW256971   7.172   8.923  13.326
18378SOL     OW56972   5.475   6.520   2.234
18378SOL    HW156973   5.395   6.551   2.193
18378SOL    HW256974   5.449   6.439   2.279
18379SOL     OW56975   3.396   1.956   5.216
18379SOL    HW156976   3.386   1.883   5.154
18379SOL    HW256977   3.481   1.993   5.195
18380SOL     OW56978   9.151   0.663  14.357
18380SOL    HW156979   9.228   0.669  14.299
18380SOL    HW256980   9.082   0.708  14.309
18381SOL     OW56981   6.757   2.947   3.947
18381SOL    HW156982   6.725   2.857   3.952
18381SOL    HW256983   6.844   2.940   3.908
18382SOL     OW56984  12.296   8.750   5.519
18382SOL    HW156985  12.301   8.843   5.495
18382SOL    HW256986  12.376   8.711   5.482
18383SOL     OW56987   4.087  10.265   4.897
18383SOL    HW156988   4.072  10.359   4.892
18383SOL    HW256989   4.139  10.245   4.819
18384SOL     OW56990   3.209   3.461  10.239
18384SOL    HW156991   3.167   3.543  10.264
18384SOL    HW256992   3.296   3.486  10.208
18385SOL     OW56993  12.277   3.325   8.500
18385SOL    HW156994  12.296   3.273   8.421
18385SOL    HW256995  12.359   3.324   8.549
18386SOL     OW56996   3.915   7.951  11.110
18386SOL    HW156997   3.971   7.969  11.186
18386SOL    HW256998   3.968   7.892  11.055
18387SOL     OW56999  13.314  10.413   6.113
18387SOL    HW157000  13.307  10.327   6.072
18387SOL    HW257001  13.271  10.473   6.052
18388SOL     OW57002  11.082   7.724   7.487
18388SOL    HW157003  11.056   7.698   7.576
18388SOL    HW257004  11.088   7.641   7.439
18389SOL     OW57005   3.554   1.806   8.012
18389SOL    HW157006   3.576   1.831   7.922
18389SOL    HW257007   3.532   1.889   8.055
18390SOL     OW57008   0.983  10.920  14.288
18390SOL    HW157009   0.895  10.931  14.251
18390SOL    HW257010   0.968  10.921  14.383
18391SOL     OW57011   0.915   1.852   9.280
18391SOL    HW157012   0.868   1.933   9.264
18391SOL    HW257013   0.878   1.790   9.217
18392SOL     OW57014  13.469   9.203   2.232
18392SOL    HW157015  13.502   9.276   2.179
18392SOL    HW257016  13.525   9.202   2.309
18393SOL     OW57017   5.780  13.915   0.141
18393SOL    HW157018   5.806  13.872   0.060
18393SOL    HW257019   5.687  13.894   0.151
18394SOL     OW57020  13.920  14.429  11.282
18394SOL    HW157021  13.874  14.409  11.364
18394SOL    HW257022  13.885  14.365  11.220
18395SOL     OW57023   3.413   1.716  14.157
18395SOL    HW157024   3.423   1.637  14.209
18395SOL    HW257025   3.326   1.750  14.181
18396SOL     OW57026   1.015   5.396   7.118
18396SOL    HW157027   0.988   5.462   7.183
18396SOL    HW257028   1.089   5.351   7.160
18397SOL     OW57029   2.317   6.421   5.029
18397SOL    HW157030   2.280   6.384   5.109
18397SOL    HW257031   2.386   6.480   5.061
18398SOL     OW57032  13.820   4.281   0.815
18398SOL    HW157033  13.768   4.225   0.873
18398SOL    HW257034  13.907   4.281   0.853
18399SOL     OW57035  13.137  11.006   0.255
18399SOL    HW157036  13.051  11.000   0.213
18399SOL    HW257037  13.189  11.061   0.196
18400SOL     OW57038  11.889   2.676  13.873
18400SOL    HW157039  11.942   2.664  13.794
18400SOL    HW257040  11.919   2.759  13.910
18401SOL     OW57041   4.303   8.924   5.409
18401SOL    HW157042   4.270   8.940   5.498
18401SOL    HW257043   4.225   8.925   5.354
18402SOL     OW57044  12.883   3.478   6.034
18402SOL    HW157045  12.975   3.495   6.011
18402SOL    HW257046  12.871   3.385   6.015
18403SOL     OW57047  14.819   4.073   6.880
18403SOL    HW157048  14.841   4.163   6.856
18403SOL    HW257049  14.815   4.026   6.797
18404SOL     OW57050   6.546   6.193   0.823
18404SOL    HW157051   6.521   6.103   0.846
18404SOL    HW257052   6.493   6.249   0.880
18405SOL     OW57053   1.081   2.738   6.979
18405SOL    HW157054   1.063   2.831   6.997
18405SOL    HW257055   0.995   2.701   6.962
18406SOL     OW57056   5.175  14.161  14.774
18406SOL    HW157057   5.114  14.226  14.810
18406SOL    HW257058   5.199  14.196  14.688
18407SOL     OW57059  11.060   1.432   4.391
18407SOL    HW157060  11.059   1.528   4.383
18407SOL    HW257061  11.152   1.409   4.387
18408SOL     OW57062  13.077   7.777  12.739
18408SOL    HW157063  12.998   7.778  12.794
18408SOL    HW257064  13.126   7.702  12.769
18409SOL     OW57065   5.911   7.828  13.222
18409SOL    HW157066   5.830   7.790  13.189
18409SOL    HW257067   5.929   7.902  13.163
18410SOL     OW57068   3.279  11.630   2.418
18410SOL    HW157069   3.217  11.678   2.472
18410SOL    HW257070   3.298  11.689   2.345
18411SOL     OW57071  14.308  11.563   4.434
18411SOL    HW157072  14.337  11.522   4.352
18411SOL    HW257073  14.389  11.581   4.482
18412SOL     OW57074  12.252  12.434   6.685
18412SOL    HW157075  12.207  12.516   6.667
18412SOL    HW257076  12.183  12.368   6.690
18413SOL     OW57077   5.849  12.076   4.537
18413SOL    HW157078   5.870  12.084   4.630
18413SOL    HW257079   5.861  11.983   4.518
18414SOL     OW57080   4.260  12.671   3.550
18414SOL    HW157081   4.201  12.728   3.600
18414SOL    HW257082   4.323  12.638   3.614
18415SOL     OW57083   6.245  14.777  11.141
18415SOL    HW157084   6.200  14.745  11.220
18415SOL    HW257085   6.185  14.841  11.104
18416SOL     OW57086   8.227  12.745  11.208
18416SOL    HW157087   8.143  12.791  11.202
18416SOL    HW257088   8.284  12.793  11.148
18417SOL     OW57089  11.709  14.512   2.796
18417SOL    HW157090  11.620  14.482   2.814
18417SOL    HW257091  11.698  14.602   2.766
18418SOL     OW57092  10.736   6.996  11.773
18418SOL    HW157093  10.714   7.086  11.748
18418SOL    HW257094  10.652   6.950  11.772
18419SOL     OW57095   0.080   6.623   4.369
18419SOL    HW157096   0.108   6.642   4.459
18419SOL    HW257097   0.160   6.627   4.318
18420SOL     OW57098  14.757  11.800   0.639
18420SOL    HW157099  14.795  11.762   0.718
18420SOL    HW257100  14.750  11.727   0.578
18421SOL     OW57101   6.286   0.551  12.264
18421SOL    HW157102   6.222   0.609  12.307
18421SOL    HW257103   6.342   0.610  12.214
18422SOL     OW57104   2.180   4.233   7.588
18422SOL    HW157105   2.200   4.276   7.505
18422SOL    HW257106   2.263   4.198   7.618
18423SOL     OW57107   5.431   4.046   9.847
18423SOL    HW157108   5.499   4.114   9.843
18423SOL    HW257109   5.402   4.046   9.938
18424SOL     OW57110  12.642  13.265   9.801
18424SOL    HW157111  12.568  13.275   9.862
18424SOL    HW257112  12.605  13.287   9.715
18425SOL     OW57113   7.615   2.871   4.270
18425SOL    HW157114   7.551   2.849   4.203
18425SOL    HW257115   7.699   2.842   4.233
18426SOL     OW57116   0.733   1.036   9.253
18426SOL    HW157117   0.785   1.059   9.176
18426SOL    HW257118   0.782   1.072   9.327
18427SOL     OW57119   6.068   2.703   5.067
18427SOL    HW157120   6.047   2.682   4.976
18427SOL    HW257121   6.063   2.798   5.072
18428SOL     OW57122   8.009   6.872   0.599
18428SOL    HW157123   8.051   6.797   0.558
18428SOL    HW257124   8.081   6.931   0.622
18429SOL     OW57125  11.105   8.427   2.429
18429SOL    HW157126  11.188   8.473   2.440
18429SOL    HW257127  11.126   8.353   2.371
18430SOL     OW57128   5.118   7.659   6.370
18430SOL    HW157129   5.107   7.564   6.374
18430SOL    HW257130   5.073   7.686   6.290
18431SOL     OW57131   5.665   7.980  10.968
18431SOL    HW157132   5.743   8.020  10.930
18431SOL    HW257133   5.593   8.036  10.938
18432SOL     OW57134   3.248  11.607   3.882
18432SOL    HW157135   3.253  11.529   3.828
18432SOL    HW257136   3.186  11.664   3.836
18433SOL     OW57137   8.019   3.857   4.508
18433SOL    HW157138   8.046   3.947   4.496
18433SOL    HW257139   8.066   3.827   4.586
18434SOL     OW57140   1.552   9.919   9.085
18434SOL    HW157141   1.609   9.867   9.141
18434SOL    HW257142   1.528   9.994   9.138
18435SOL     OW57143  11.392   5.018   2.174
18435SOL    HW157144  11.414   5.014   2.080
18435SOL    HW257145  11.338   4.941   2.190
18436SOL     OW57146  14.820   3.596   6.416
18436SOL    HW157147   0.033   3.634   6.406
18436SOL    HW257148  14.792   3.622   6.503
18437SOL     OW57149   2.759  12.605   4.468
18437SOL    HW157150   2.779  12.516   4.439
18437SOL    HW257151   2.825  12.625   4.534
18438SOL     OW57152  10.073   6.004   9.883
18438SOL    HW157153  10.099   6.054   9.806
18438SOL    HW257154   9.997   5.954   9.856
18439SOL     OW57155  14.175  10.384   9.042
18439SOL    HW157156  14.127  10.391   8.960
18439SOL    HW257157  14.232  10.308   9.031
18440SOL     OW57158  12.305   3.761  13.259
18440SOL    HW157159  12.210   3.763  13.272
18440SOL    HW257160  12.322   3.677  13.217
18441SOL     OW57161  10.916   7.722   9.435
18441SOL    HW157162  10.911   7.736   9.530
18441SOL    HW257163  11.010   7.721   9.416
18442SOL     OW57164  11.807  11.199   7.940
18442SOL    HW157165  11.863  11.272   7.913
18442SOL    HW257166  11.868  11.136   7.980
18443SOL     OW57167   0.867   9.275  13.463
18443SOL    HW157168   0.929   9.232  13.521
18443SOL    HW257169   0.892   9.246  13.375
18444SOL     OW57170  13.533   7.992  13.233
18444SOL    HW157171  13.515   8.078  13.271
18444SOL    HW257172  13.447   7.957  13.210
18445SOL     OW57173   2.681  10.643   5.424
18445SOL    HW157174   2.715  10.557   5.448
18445SOL    HW257175   2.727  10.704   5.481
18446SOL     OW57176   1.619   1.583  14.658
18446SOL    HW157177   1.668   1.659  14.628
18446SOL    HW257178   1.565   1.558  14.582
18447SOL     OW57179   6.109  13.304   5.630
18447SOL    HW157180   6.202  13.327   5.629
18447SOL    HW257181   6.075  13.343   5.710
18448SOL     OW57182   3.324  14.756  12.627
18448SOL    HW157183   3.296  14.668  12.652
18448SOL    HW257184   3.280  14.814  12.690
18449SOL     OW57185   0.124   9.768   8.783
18449SOL    HW157186   0.121   9.795   8.691
18449SOL    HW257187   0.116   9.850   8.832
18450SOL     OW57188   4.441  14.018   4.796
18450SOL    HW157189   4.408  13.937   4.757
18450SOL    HW257190   4.530  13.997   4.822
18451SOL     OW57191   5.717  13.181  14.651
18451SOL    HW157192   5.784  13.222  14.705
18451SOL    HW257193   5.638  13.233  14.667
18452SOL     OW57194   4.998   2.162   9.417
18452SOL    HW157195   5.094   2.160   9.424
18452SOL    HW257196   4.968   2.118   9.497
18453SOL     OW57197   1.131  13.676   8.955
18453SOL    HW157198   1.084  13.655   8.874
18453SOL    HW257199   1.139  13.772   8.954
18454SOL     OW57200   1.089  10.626   0.371
18454SOL    HW157201   1.068  10.544   0.327
18454SOL    HW257202   1.153  10.602   0.438
18455SOL     OW57203   6.413  14.326   4.584
18455SOL    HW157204   6.340  14.282   4.540
18455SOL    HW257205   6.414  14.287   4.672
18456SOL     OW57206   0.640   7.420   4.795
18456SOL    HW157207   0.579   7.351   4.770
18456SOL    HW257208   0.707   7.419   4.726
18457SOL     OW57209   9.503   9.498   0.419
18457SOL    HW157210   9.441   9.569   0.435
18457SOL    HW257211   9.582   9.542   0.389
18458SOL     OW57212  12.274  11.687  10.596
18458SOL    HW157213  12.323  11.671  10.516
18458SOL    HW257214  12.250  11.599  10.627
18459SOL     OW57215   2.716   2.482  10.142
18459SOL    HW157216   2.797   2.509  10.185
18459SOL    HW257217   2.715   2.530  10.059
18460SOL     OW57218  11.753   8.103   7.825
18460SOL    HW157219  11.714   8.081   7.740
18460SOL    HW257220  11.753   8.020   7.873
18461SOL     OW57221   1.420  14.794   6.476
18461SOL    HW157222   1.395  14.871   6.527
18461SOL    HW257223   1.337  14.747   6.462
18462SOL     OW57224  12.087   9.832   4.875
18462SOL    HW157225  12.144   9.803   4.803
18462SOL    HW257226  12.131   9.801   4.954
18463SOL     OW57227  10.291  13.955   1.830
18463SOL    HW157228  10.324  14.036   1.792
18463SOL    HW257229  10.205  13.978   1.866
18464SOL     OW57230   2.350  13.699   2.717
18464SOL    HW157231   2.302  13.709   2.635
18464SOL    HW257232   2.282  13.683   2.783
18465SOL     OW57233   8.811  13.199   4.893
18465SOL    HW157234   8.881  13.153   4.846
18465SOL    HW257235   8.810  13.287   4.855
18466SOL     OW57236  14.518  14.638   2.567
18466SOL    HW157237  14.501  14.559   2.617
18466SOL    HW257238  14.472  14.625   2.484
18467SOL     OW57239   6.721   9.516   3.813
18467SOL    HW157240   6.804   9.467   3.810
18467SOL    HW257241   6.654   9.449   3.824
18468SOL     OW57242   3.190  13.800  11.691
18468SOL    HW157243   3.121  13.735  11.704
18468SOL    HW257244   3.146  13.884  11.707
18469SOL     OW57245   7.798  10.776   2.572
18469SOL    HW157246   7.790  10.859   2.525
18469SOL    HW257247   7.891  10.754   2.566
18470SOL     OW57248   2.585   5.545   0.277
18470SOL    HW157249   2.590   5.450   0.285
18470SOL    HW257250   2.534   5.573   0.353
18471SOL     OW57251   9.140   5.060   5.758
18471SOL    HW157252   9.095   5.115   5.693
18471SOL    HW257253   9.173   4.986   5.707
18472SOL     OW57254  10.943   8.718   8.310
18472SOL    HW157255  10.855   8.752   8.323
18472SOL    HW257256  10.939   8.669   8.228
18473SOL     OW57257   7.481  11.416   9.541
18473SOL    HW157258   7.456  11.343   9.597
18473SOL    HW257259   7.577  11.420   9.549
18474SOL     OW57260  13.628   7.052  12.244
18474SOL    HW157261  13.641   6.962  12.276
18474SOL    HW257262  13.710   7.096  12.265
18475SOL     OW57263   2.942  12.077   1.499
18475SOL    HW157264   3.017  12.018   1.508
18475SOL    HW257265   2.910  12.060   1.410
18476SOL     OW57266   8.723   5.997  12.270
18476SOL    HW157267   8.760   6.014  12.357
18476SOL    HW257268   8.712   6.084  12.231
18477SOL     OW57269   1.873   1.474   9.046
18477SOL    HW157270   1.909   1.521   8.971
18477SOL    HW257271   1.785   1.511   9.058
18478SOL     OW57272  14.513  13.316  12.512
18478SOL    HW157273  14.561  13.303  12.429
18478SOL    HW257274  14.422  13.297  12.490
18479SOL     OW57275   1.468  11.024  13.669
18479SOL    HW157276   1.529  11.042  13.741
18479SOL    HW257277   1.518  10.972  13.607
18480SOL     OW57278   8.240   8.497  12.485
18480SOL    HW157279   8.211   8.504  12.576
18480SOL    HW257280   8.198   8.418  12.452
18481SOL     OW57281   3.461  12.988   8.989
18481SOL    HW157282   3.533  12.958   9.045
18481SOL    HW257283   3.388  13.002   9.049
18482SOL     OW57284   5.450   4.124   6.086
18482SOL    HW157285   5.409   4.039   6.105
18482SOL    HW257286   5.542   4.103   6.073
18483SOL     OW57287   5.583   9.089   0.024
18483SOL    HW157288   5.591   9.059  14.807
18483SOL    HW257289   5.492   9.116   0.033
18484SOL     OW57290  10.439  14.777   6.308
18484SOL    HW157291  10.493  14.713   6.262
18484SOL    HW257292  10.384  14.816   6.239
18485SOL     OW57293   0.570   4.904   1.093
18485SOL    HW157294   0.495   4.963   1.085
18485SOL    HW257295   0.544   4.842   1.160
18486SOL     OW57296  12.232  14.564  14.490
18486SOL    HW157297  12.273  14.480  14.470
18486SOL    HW257298  12.304  14.628  14.482
18487SOL     OW57299  12.678  13.154   4.682
18487SOL    HW157300  12.723  13.104   4.750
18487SOL    HW257301  12.595  13.180   4.722
18488SOL     OW57302   7.910  14.388   5.558
18488SOL    HW157303   7.930  14.415   5.648
18488SOL    HW257304   7.976  14.322   5.538
18489SOL     OW57305  13.084   4.005   8.580
18489SOL    HW157306  13.036   4.081   8.614
18489SOL    HW257307  13.115   3.959   8.659
18490SOL     OW57308  11.111   6.601   1.120
18490SOL    HW157309  11.130   6.692   1.097
18490SOL    HW257310  11.187   6.552   1.088
18491SOL     OW57311   6.136   7.056   0.020
18491SOL    HW157312   6.162   6.965   0.007
18491SOL    HW257313   6.065   7.070  14.831
18492SOL     OW57314   0.819   9.215   8.255
18492SOL    HW157315   0.836   9.280   8.187
18492SOL    HW257316   0.821   9.265   8.337
18493SOL     OW57317   1.717   4.193   3.989
18493SOL    HW157318   1.690   4.281   4.013
18493SOL    HW257319   1.786   4.171   4.051
18494SOL     OW57320  14.292   1.733  10.568
18494SOL    HW157321  14.208   1.731  10.521
18494SOL    HW257322  14.321   1.824  10.561
18495SOL     OW57323  13.766   5.352  10.480
18495SOL    HW157324  13.843   5.295  10.480
18495SOL    HW257325  13.709   5.314  10.547
18496SOL     OW57326   6.056   9.574   7.349
18496SOL    HW157327   6.105   9.584   7.430
18496SOL    HW257328   6.118   9.535   7.287
18497SOL     OW57329   3.149   7.367   8.954
18497SOL    HW157330   3.131   7.351   8.862
18497SOL    HW257331   3.085   7.313   9.001
18498SOL     OW57332   3.105   4.346   0.199
18498SOL    HW157333   3.104   4.436   0.165
18498SOL    HW257334   3.198   4.325   0.206
18499SOL     OW57335   8.369   9.780   4.864
18499SOL    HW157336   8.294   9.743   4.818
18499SOL    HW257337   8.353   9.759   4.956
18500SOL     OW57338   4.711  10.129   9.374
18500SOL    HW157339   4.772  10.163   9.440
18500SOL    HW257340   4.631  10.110   9.423
18501SOL     OW57341   7.559  12.010   5.566
18501SOL    HW157342   7.548  11.945   5.496
18501SOL    HW257343   7.521  11.968   5.644
18502SOL     OW57344   0.709  11.817  14.377
18502SOL    HW157345   0.669  11.902  14.357
18502SOL    HW257346   0.635  11.758  14.388
18503SOL     OW57347  10.568  12.092   0.811
18503SOL    HW157348  10.534  12.182   0.807
18503SOL    HW257349  10.662  12.103   0.824
18504SOL     OW57350   8.032  11.539  10.046
18504SOL    HW157351   7.994  11.468  10.098
18504SOL    HW257352   8.022  11.617  10.100
18505SOL     OW57353  13.207   9.479  13.004
18505SOL    HW157354  13.158   9.459  13.084
18505SOL    HW257355  13.296   9.499  13.034
18506SOL     OW57356   7.014   1.066  11.682
18506SOL    HW157357   6.965   0.996  11.725
18506SOL    HW257358   6.949   1.109  11.626
18507SOL     OW57359  13.326   1.607  10.302
18507SOL    HW157360  13.399   1.656  10.341
18507SOL    HW257361  13.323   1.637  10.211
18508SOL     OW57362   6.429   0.625  10.432
18508SOL    HW157363   6.460   0.545  10.390
18508SOL    HW257364   6.356   0.654  10.378
18509SOL     OW57365   6.792   3.621   1.908
18509SOL    HW157366   6.753   3.684   1.847
18509SOL    HW257367   6.781   3.536   1.867
18510SOL     OW57368   8.792   2.966   3.881
18510SOL    HW157369   8.716   2.948   3.826
18510SOL    HW257370   8.767   3.045   3.930
18511SOL     OW57371   6.418   7.437  12.534
18511SOL    HW157372   6.393   7.486  12.455
18511SOL    HW257373   6.340   7.385  12.555
18512SOL     OW57374   2.343   2.136   4.519
18512SOL    HW157375   2.406   2.192   4.564
18512SOL    HW257376   2.344   2.054   4.568
18513SOL     OW57377   9.533  10.697   7.163
18513SOL    HW157378   9.510  10.655   7.246
18513SOL    HW257379   9.546  10.789   7.185
18514SOL     OW57380   2.983   1.019  11.732
18514SOL    HW157381   2.962   1.109  11.757
18514SOL    HW257382   3.078   1.016  11.729
18515SOL     OW57383  14.692   4.152  12.867
18515SOL    HW157384  14.639   4.123  12.941
18515SOL    HW257385  14.686   4.248  12.870
18516SOL     OW57386   0.965   6.159  11.287
18516SOL    HW157387   0.911   6.086  11.316
18516SOL    HW257388   0.906   6.214  11.236
18517SOL     OW57389   4.634   2.183   4.393
18517SOL    HW157390   4.722   2.220   4.396
18517SOL    HW257391   4.645   2.093   4.423
18518SOL     OW57392   1.704  12.988   7.765
18518SOL    HW157393   1.693  13.054   7.834
18518SOL    HW257394   1.703  12.904   7.811
18519SOL     OW57395  10.047   3.371   3.979
18519SOL    HW157396  10.128   3.320   3.971
18519SOL    HW257397  10.075   3.462   3.973
18520SOL     OW57398   1.778   6.222  12.341
18520SOL    HW157399   1.718   6.149  12.325
18520SOL    HW257400   1.784   6.227  12.437
18521SOL     OW57401  13.997  13.555   5.928
18521SOL    HW157402  14.092  13.543   5.929
18521SOL    HW257403  13.971  13.557   6.020
18522SOL     OW57404  14.857   3.448   3.188
18522SOL    HW157405   0.072   3.412   3.189
18522SOL    HW257406  14.848   3.493   3.273
18523SOL     OW57407  14.421  11.259   1.872
18523SOL    HW157408  14.489  11.194   1.887
18523SOL    HW257409  14.459  11.319   1.808
18524SOL     OW57410  10.763   6.790   1.840
18524SOL    HW157411  10.836   6.843   1.806
18524SOL    HW257412  10.696   6.798   1.772
18525SOL     OW57413   3.688   6.795   6.630
18525SOL    HW157414   3.637   6.797   6.711
18525SOL    HW257415   3.651   6.865   6.576
18526SOL     OW57416  13.299   6.531   9.006
18526SOL    HW157417  13.371   6.586   9.038
18526SOL    HW257418  13.274   6.477   9.081
18527SOL     OW57419   9.806   5.259  12.944
18527SOL    HW157420   9.778   5.347  12.969
18527SOL    HW257421   9.787   5.253  12.851
18528SOL     OW57422  10.563  10.904   7.140
18528SOL    HW157423  10.581  10.853   7.061
18528SOL    HW257424  10.586  10.845   7.212
18529SOL     OW57425  13.024   1.062  13.764
18529SOL    HW157426  13.021   1.008  13.843
18529SOL    HW257427  12.936   1.056  13.727
18530SOL     OW57428   1.275  13.241   7.319
18530SOL    HW157429   1.208  13.190   7.364
18530SOL    HW257430   1.250  13.236   7.226
18531SOL     OW57431   4.657   7.554   4.075
18531SOL    HW157432   4.652   7.636   4.025
18531SOL    HW257433   4.707   7.577   4.153
18532SOL     OW57434  12.255   8.111   0.890
18532SOL    HW157435  12.231   8.077   0.976
18532SOL    HW257436  12.317   8.046   0.856
18533SOL     OW57437   6.370   4.913   9.434
18533SOL    HW157438   6.429   4.841   9.414
18533SOL    HW257439   6.348   4.951   9.349
18534SOL     OW57440   3.286   5.145  10.384
18534SOL    HW157441   3.207   5.196  10.404
18534SOL    HW257442   3.271   5.113  10.296
18535SOL     OW57443   1.930   3.348  11.253
18535SOL    HW157444   2.014   3.343  11.300
18535SOL    HW257445   1.948   3.405  11.178
18536SOL     OW57446   9.925  14.039  11.006
18536SOL    HW157447   9.877  14.015  11.085
18536SOL    HW257448  10.006  13.990  11.011
18537SOL     OW57449   9.683  12.141   9.947
18537SOL    HW157450   9.601  12.186   9.967
18537SOL    HW257451   9.677  12.058   9.995
18538SOL     OW57452   5.396   1.371   7.312
18538SOL    HW157453   5.308   1.407   7.323
18538SOL    HW257454   5.388   1.313   7.237
18539SOL     OW57455   0.446   1.388   3.290
18539SOL    HW157456   0.532   1.352   3.269
18539SOL    HW257457   0.411   1.328   3.357
18540SOL     OW57458   0.634   4.113   4.074
18540SOL    HW157459   0.626   4.200   4.113
18540SOL    HW257460   0.696   4.124   4.003
18541SOL     OW57461   9.232   0.453   8.057
18541SOL    HW157462   9.228   0.369   8.103
18541SOL    HW257463   9.201   0.434   7.969
18542SOL     OW57464   0.988   3.837  11.653
18542SOL    HW157465   0.902   3.856  11.690
18542SOL    HW257466   0.973   3.834  11.558
18543SOL     OW57467  10.080   9.554  14.353
18543SOL    HW157468  10.053   9.519  14.438
18543SOL    HW257469  10.007   9.611  14.327
18544SOL     OW57470   0.674   6.789  14.460
18544SOL    HW157471   0.762   6.819  14.441
18544SOL    HW257472   0.673   6.775  14.555
18545SOL     OW57473   7.874  13.351   1.797
18545SOL    HW157474   7.948  13.356   1.857
18545SOL    HW257475   7.808  13.299   1.843
18546SOL     OW57476  10.311   2.689   4.807
18546SOL    HW157477  10.399   2.712   4.778
18546SOL    HW257478  10.324   2.630   4.880
18547SOL     OW57479   0.903   9.011   5.581
18547SOL    HW157480   0.841   8.940   5.565
18547SOL    HW257481   0.868   9.085   5.532
18548SOL     OW57482   5.822   0.607  11.813
18548SOL    HW157483   5.810   0.690  11.766
18548SOL    HW257484   5.817   0.540  11.744
18549SOL     OW57485  14.672   0.760   4.590
18549SOL    HW157486  14.654   0.689   4.652
18549SOL    HW257487  14.758   0.793   4.615
18550SOL     OW57488   1.678   1.692  13.499
18550SOL    HW157489   1.668   1.732  13.586
18550SOL    HW257490   1.589   1.692  13.463
18551SOL     OW57491  12.765  10.540   8.635
18551SOL    HW157492  12.840  10.500   8.678
18551SOL    HW257493  12.802  10.588   8.561
18552SOL     OW57494  13.391   1.203   2.988
18552SOL    HW157495  13.451   1.131   3.008
18552SOL    HW257496  13.412   1.226   2.898
18553SOL     OW57497   6.994   2.057  10.403
18553SOL    HW157498   7.086   2.033  10.407
18553SOL    HW257499   6.983   2.096  10.316
18554SOL     OW57500   3.384   2.471   4.512
18554SOL    HW157501   3.301   2.426   4.495
18554SOL    HW257502   3.378   2.496   4.605
18555SOL     OW57503   4.227   6.979   0.925
18555SOL    HW157504   4.219   6.977   0.829
18555SOL    HW257505   4.302   7.036   0.942
18556SOL     OW57506   8.860   8.377   2.566
18556SOL    HW157507   8.886   8.367   2.474
18556SOL    HW257508   8.766   8.362   2.566
18557SOL     OW57509   3.372   3.874   4.641
18557SOL    HW157510   3.305   3.814   4.672
18557SOL    HW257511   3.331   3.921   4.569
18558SOL     OW57512   4.733   9.085   3.936
18558SOL    HW157513   4.811   9.128   3.972
18558SOL    HW257514   4.659   9.128   3.981
18559SOL     OW57515   5.275  10.302   9.909
18559SOL    HW157516   5.227  10.274   9.987
18559SOL    HW257517   5.334  10.229   9.890
18560SOL     OW57518   4.060  10.937  14.051
18560SOL    HW157519   4.151  10.954  14.076
18560SOL    HW257520   4.013  10.930  14.135
18561SOL     OW57521  12.693   3.281   4.119
18561SOL    HW157522  12.784   3.290   4.093
18561SOL    HW257523  12.694   3.281   4.215
18562SOL     OW57524  11.877   7.090  10.382
18562SOL    HW157525  11.970   7.102  10.402
18562SOL    HW257526  11.858   7.159  10.318
18563SOL     OW57527  12.107  10.085   8.190
18563SOL    HW157528  12.080  10.105   8.101
18563SOL    HW257529  12.202  10.098   8.189
18564SOL     OW57530   3.228  12.743  12.988
18564SOL    HW157531   3.171  12.692  13.045
18564SOL    HW257532   3.279  12.677  12.941
18565SOL     OW57533   0.461   0.791  13.517
18565SOL    HW157534   0.386   0.737  13.542
18565SOL    HW257535   0.477   0.769  13.425
18566SOL     OW57536   5.901  14.516  11.396
18566SOL    HW157537   5.838  14.485  11.461
18566SOL    HW257538   5.867  14.483  11.312
18567SOL     OW57539  14.218   0.156   2.026
18567SOL    HW157540  14.275   0.212   1.974
18567SOL    HW257541  14.129   0.176   1.995
18568SOL     OW57542   9.008   6.705   1.562
18568SOL    HW157543   9.082   6.717   1.621
18568SOL    HW257544   9.009   6.612   1.541
18569SOL     OW57545   4.657   1.975  14.548
18569SOL    HW157546   4.719   1.935  14.487
18569SOL    HW257547   4.657   1.916  14.624
18570SOL     OW57548   1.762   3.548   8.817
18570SOL    HW157549   1.731   3.626   8.863
18570SOL    HW257550   1.690   3.486   8.822
18571SOL     OW57551  11.316   4.133  13.984
18571SOL    HW157552  11.266   4.060  13.950
18571SOL    HW257553  11.379   4.154  13.914
18572SOL     OW57554   6.608   3.428  14.098
18572SOL    HW157555   6.559   3.361  14.050
18572SOL    HW257556   6.663   3.378  14.158
18573SOL     OW57557   5.807   3.240   6.096
18573SOL    HW157558   5.851   3.211   6.016
18573SOL    HW257559   5.843   3.184   6.165
18574SOL     OW57560   4.594   3.243   3.110
18574SOL    HW157561   4.565   3.311   3.170
18574SOL    HW257562   4.683   3.222   3.138
18575SOL     OW57563   5.929   8.613   9.119
18575SOL    HW157564   5.913   8.699   9.160
18575SOL    HW257565   5.854   8.600   9.061
18576SOL     OW57566  12.575   7.730   9.179
18576SOL    HW157567  12.568   7.669   9.106
18576SOL    HW257568  12.669   7.743   9.192
18577SOL     OW57569   8.878   8.542   0.125
18577SOL    HW157570   8.924   8.463   0.152
18577SOL    HW257571   8.902   8.555   0.034
18578SOL     OW57572   7.005  12.713   0.752
18578SOL    HW157573   7.021  12.799   0.790
18578SOL    HW257574   7.035  12.650   0.817
18579SOL     OW57575   6.537   0.201  11.019
18579SOL    HW157576   6.484   0.205  11.099
18579SOL    HW257577   6.484   0.151  10.957
18580SOL     OW57578  13.743   5.675  13.777
18580SOL    HW157579  13.826   5.690  13.733
18580SOL    HW257580  13.727   5.581  13.769
18581SOL     OW57581   4.224   7.186   6.355
18581SOL    HW157582   4.271   7.114   6.395
18581SOL    HW257583   4.226   7.167   6.261
18582SOL     OW57584  10.229   8.423   2.549
18582SOL    HW157585  10.210   8.330   2.560
18582SOL    HW257586  10.171   8.467   2.611
18583SOL     OW57587  11.906  11.974   4.020
18583SOL    HW157588  11.980  12.031   4.044
18583SOL    HW257589  11.829  12.025   4.045
18584SOL     OW57590  11.201   7.618   0.767
18584SOL    HW157591  11.155   7.535   0.757
18584SOL    HW257592  11.163   7.675   0.701
18585SOL     OW57593   7.185   4.592   1.464
18585SOL    HW157594   7.214   4.506   1.495
18585SOL    HW257595   7.253   4.621   1.404
18586SOL     OW57596  11.426  12.670   1.418
18586SOL    HW157597  11.453  12.707   1.502
18586SOL    HW257598  11.485  12.595   1.405
18587SOL     OW57599   0.228   9.869   8.168
18587SOL    HW157600   0.323   9.879   8.165
18587SOL    HW257601   0.194   9.945   8.120
18588SOL     OW57602  11.963   2.810  11.431
18588SOL    HW157603  11.987   2.873  11.362
18588SOL    HW257604  11.870   2.828  11.448
18589SOL     OW57605   7.361   1.917   5.649
18589SOL    HW157606   7.289   1.924   5.712
18589SOL    HW257607   7.324   1.949   5.567
18590SOL     OW57608   3.574   1.919   3.065
18590SOL    HW157609   3.578   1.963   2.980
18590SOL    HW257610   3.662   1.929   3.101
18591SOL     OW57611   7.593   1.909   7.388
18591SOL    HW157612   7.617   1.821   7.360
18591SOL    HW257613   7.501   1.903   7.412
18592SOL     OW57614   2.021   3.516   5.562
18592SOL    HW157615   1.929   3.537   5.578
18592SOL    HW257616   2.040   3.557   5.478
18593SOL     OW57617  12.985   9.504  10.792
18593SOL    HW157618  13.010   9.413  10.779
18593SOL    HW257619  13.068   9.550  10.805
18594SOL     OW57620   8.628   1.417  13.657
18594SOL    HW157621   8.643   1.347  13.593
18594SOL    HW257622   8.546   1.394  13.699
18595SOL     OW57623   2.581   9.276   2.735
18595SOL    HW157624   2.630   9.226   2.670
18595SOL    HW257625   2.617   9.364   2.729
18596SOL     OW57626  14.538   8.818   0.169
18596SOL    HW157627  14.471   8.837   0.235
18596SOL    HW257628  14.579   8.902   0.151
18597SOL     OW57629   8.207   4.938   5.844
18597SOL    HW157630   8.213   4.920   5.750
18597SOL    HW257631   8.280   4.889   5.882
18598SOL     OW57632   3.118   4.880   2.602
18598SOL    HW157633   3.057   4.949   2.627
18598SOL    HW257634   3.172   4.866   2.680
18599SOL     OW57635   8.268   0.036   4.279
18599SOL    HW157636   8.192   0.024   4.221
18599SOL    HW257637   8.262  14.837   4.341
18600SOL     OW57638  10.700   0.238   9.466
18600SOL    HW157639  10.790   0.265   9.482
18600SOL    HW257640  10.707   0.147   9.437
18601SOL     OW57641  14.235   9.086   2.042
18601SOL    HW157642  14.218   9.170   2.000
18601SOL    HW257643  14.322   9.060   2.011
18602SOL     OW57644   0.054  11.309   0.911
18602SOL    HW157645   0.098  11.315   0.825
18602SOL    HW257646  14.849  11.259   0.893
18603SOL     OW57647   9.477   9.516   7.823
18603SOL    HW157648   9.408   9.495   7.886
18603SOL    HW257649   9.452   9.601   7.787
18604SOL     OW57650   0.699   4.071  13.915
18604SOL    HW157651   0.629   4.006  13.916
18604SOL    HW257652   0.774   4.025  13.879
18605SOL     OW57653   3.393  12.302   4.112
18605SOL    HW157654   3.376  12.397   4.117
18605SOL    HW257655   3.346  12.265   4.186
18606SOL     OW57656  11.627   9.297   6.726
18606SOL    HW157657  11.694   9.234   6.751
18606SOL    HW257658  11.623   9.291   6.630
18607SOL     OW57659   0.918   0.695  14.355
18607SOL    HW157660   0.880   0.769  14.402
18607SOL    HW257661   1.006   0.686  14.391
18608SOL     OW57662   7.068   2.844   8.257
18608SOL    HW157663   7.163   2.853   8.257
18608SOL    HW257664   7.050   2.787   8.182
18609SOL     OW57665   9.534   1.894   8.853
18609SOL    HW157666   9.573   1.819   8.897
18609SOL    HW257667   9.440   1.888   8.873
18610SOL     OW57668   1.926   9.475   6.374
18610SOL    HW157669   1.988   9.422   6.424
18610SOL    HW257670   1.879   9.412   6.319
18611SOL     OW57671   9.335   4.767   1.085
18611SOL    HW157672   9.408   4.805   1.037
18611SOL    HW257673   9.372   4.690   1.129
18612SOL     OW57674   7.788  14.471  13.509
18612SOL    HW157675   7.710  14.432  13.547
18612SOL    HW257676   7.789  14.561  13.544
18613SOL     OW57677   6.291   1.247   9.509
18613SOL    HW157678   6.333   1.163   9.489
18613SOL    HW257679   6.358   1.312   9.490
18614SOL     OW57680   8.623  12.724   5.487
18614SOL    HW157681   8.693  12.677   5.442
18614SOL    HW257682   8.543  12.698   5.441
18615SOL     OW57683   7.318   3.538  10.516
18615SOL    HW157684   7.332   3.622  10.559
18615SOL    HW257685   7.382   3.480  10.555
18616SOL     OW57686   3.626  10.063  12.414
18616SOL    HW157687   3.614  10.004  12.488
18616SOL    HW257688   3.543  10.059  12.366
18617SOL     OW57689   0.169   6.314   8.656
18617SOL    HW157690   0.078   6.311   8.686
18617SOL    HW257691   0.166   6.358   8.571
18618SOL     OW57692   9.868  12.177   7.806
18618SOL    HW157693   9.842  12.268   7.820
18618SOL    HW257694   9.788  12.133   7.778
18619SOL     OW57695   1.890   4.310   3.085
18619SOL    HW157696   1.956   4.324   3.152
18619SOL    HW257697   1.870   4.217   3.090
18620SOL     OW57698   6.050   2.808  11.046
18620SOL    HW157699   6.066   2.809  11.141
18620SOL    HW257700   6.103   2.735  11.014
18621SOL     OW57701   5.325   8.100  14.229
18621SOL    HW157702   5.248   8.068  14.183
18621SOL    HW257703   5.398   8.084  14.169
18622SOL     OW57704   9.886   5.563   9.002
18622SOL    HW157705   9.811   5.623   9.001
18622SOL    HW257706   9.939   5.592   8.928
18623SOL     OW57707   2.926  14.168   9.915
18623SOL    HW157708   2.843  14.190   9.872
18623SOL    HW257709   2.951  14.083   9.879
18624SOL     OW57710   8.335   0.211   5.407
18624SOL    HW157711   8.395   0.285   5.402
18624SOL    HW257712   8.309   0.195   5.316
18625SOL     OW57713   4.451   4.729   3.150
18625SOL    HW157714   4.542   4.760   3.149
18625SOL    HW257715   4.411   4.776   3.224
18626SOL     OW57716   5.576   0.817   4.717
18626SOL    HW157717   5.549   0.732   4.682
18626SOL    HW257718   5.638   0.796   4.787
18627SOL     OW57719   8.203  11.075   5.629
18627SOL    HW157720   8.149  11.143   5.589
18627SOL    HW257721   8.152  10.995   5.618
18628SOL     OW57722  13.447   3.854   2.998
18628SOL    HW157723  13.416   3.809   3.077
18628SOL    HW257724  13.432   3.791   2.928
18629SOL     OW57725   8.804  13.035   9.467
18629SOL    HW157726   8.801  12.942   9.491
18629SOL    HW257727   8.889  13.066   9.500
18630SOL     OW57728  10.552   4.268  14.733
18630SOL    HW157729  10.612   4.329  14.774
18630SOL    HW257730  10.604   4.224  14.666
18631SOL     OW57731   4.051  14.237   4.656
18631SOL    HW157732   4.118  14.272   4.597
18631SOL    HW257733   3.982  14.206   4.598
18632SOL     OW57734  10.884   9.382  14.741
18632SOL    HW157735  10.830   9.431  14.679
18632SOL    HW257736  10.959   9.352  14.689
18633SOL     OW57737  11.586  13.923   5.742
18633SOL    HW157738  11.660  13.867   5.766
18633SOL    HW257739  11.580  13.987   5.813
18634SOL     OW57740   9.571   1.107   7.762
18634SOL    HW157741   9.656   1.124   7.803
18634SOL    HW257742   9.561   1.012   7.765
18635SOL     OW57743   4.038  11.707   6.602
18635SOL    HW157744   3.967  11.726   6.662
18635SOL    HW257745   4.036  11.779   6.539
18636SOL     OW57746   9.811   1.387   7.407
18636SOL    HW157747   9.838   1.406   7.497
18636SOL    HW257748   9.846   1.300   7.389
18637SOL     OW57749   5.101   7.509   3.941
18637SOL    HW157750   5.190   7.541   3.930
18637SOL    HW257751   5.062   7.568   4.006
18638SOL     OW57752   7.697  13.862  11.850
18638SOL    HW157753   7.613  13.877  11.893
18638SOL    HW257754   7.705  13.767  11.848
18639SOL     OW57755  12.734  13.521  13.438
18639SOL    HW157756  12.728  13.612  13.466
18639SOL    HW257757  12.818  13.515  13.393
18640SOL     OW57758   3.148  12.377   6.885
18640SOL    HW157759   3.084  12.442   6.857
18640SOL    HW257760   3.100  12.295   6.887
18641SOL     OW57761   1.699   9.073   8.966
18641SOL    HW157762   1.744   9.108   9.043
18641SOL    HW257763   1.714   9.139   8.897
18642SOL     OW57764   5.019   1.836  10.454
18642SOL    HW157765   4.952   1.789  10.503
18642SOL    HW257766   5.007   1.927  10.477
18643SOL     OW57767   2.801   1.450   3.358
18643SOL    HW157768   2.769   1.401   3.434
18643SOL    HW257769   2.763   1.537   3.368
18644SOL     OW57770   7.818  14.088   8.065
18644SOL    HW157771   7.913  14.092   8.055
18644SOL    HW257772   7.784  14.118   7.980
18645SOL     OW57773   8.478  14.801  11.296
18645SOL    HW157774   8.394  14.835  11.326
18645SOL    HW257775   8.462  14.773  11.206
18646SOL     OW57776   9.754   3.526   0.939
18646SOL    HW157777   9.767   3.439   0.978
18646SOL    HW257778   9.816   3.582   0.985
18647SOL     OW57779  12.439   5.408   1.175
18647SOL    HW157780  12.413   5.373   1.260
18647SOL    HW257781  12.423   5.336   1.114
18648SOL     OW57782   2.402  14.798   2.409
18648SOL    HW157783   2.440  14.714   2.385
18648SOL    HW257784   2.463  14.834   2.473
18649SOL     OW57785   8.247  11.441   8.881
18649SOL    HW157786   8.201  11.361   8.908
18649SOL    HW257787   8.210  11.463   8.796
18650SOL     OW57788   4.762  12.293   2.928
18650SOL    HW157789   4.823  12.223   2.951
18650SOL    HW257790   4.738  12.333   3.011
18651SOL     OW57791   0.988   4.947  10.939
18651SOL    HW157792   0.996   4.856  10.912
18651SOL    HW257793   1.000   4.946  11.034
18652SOL     OW57794   0.710   3.181   3.539
18652SOL    HW157795   0.644   3.239   3.503
18652SOL    HW257796   0.765   3.238   3.594
18653SOL     OW57797   1.575   7.283  10.498
18653SOL    HW157798   1.587   7.377  10.484
18653SOL    HW257799   1.628   7.263  10.575
18654SOL     OW57800   6.948   3.253   8.918
18654SOL    HW157801   6.931   3.159   8.914
18654SOL    HW257802   6.911   3.288   8.838
18655SOL     OW57803  14.629   5.797   5.519
18655SOL    HW157804  14.675   5.876   5.550
18655SOL    HW257805  14.568   5.777   5.590
18656SOL     OW57806   9.194   5.466   5.203
18656SOL    HW157807   9.104   5.466   5.237
18656SOL    HW257808   9.227   5.554   5.224
18657SOL     OW57809   8.924   9.684  12.085
18657SOL    HW157810   8.987   9.749  12.115
18657SOL    HW257811   8.854   9.686  12.149
18658SOL     OW57812   9.885   2.889  13.393
18658SOL    HW157813   9.906   2.847  13.309
18658SOL    HW257814   9.969   2.899  13.437
18659SOL     OW57815  11.444   2.301   4.436
18659SOL    HW157816  11.457   2.386   4.395
18659SOL    HW257817  11.460   2.317   4.529
18660SOL     OW57818  10.324   9.707  11.924
18660SOL    HW157819  10.308   9.697  12.018
18660SOL    HW257820  10.388   9.638  11.904
18661SOL     OW57821  11.942   7.317  14.057
18661SOL    HW157822  11.983   7.253  14.115
18661SOL    HW257823  12.016   7.362  14.015
18662SOL     OW57824   5.978   7.469  10.542
18662SOL    HW157825   5.924   7.391  10.555
18662SOL    HW257826   6.067   7.440  10.564
18663SOL     OW57827  11.421   0.795   5.344
18663SOL    HW157828  11.402   0.888   5.343
18663SOL    HW257829  11.377   0.760   5.266
18664SOL     OW57830   0.117   3.914  11.373
18664SOL    HW157831   0.061   3.859  11.429
18664SOL    HW257832   0.061   3.938  11.299
18665SOL     OW57833  13.239   2.650  14.408
18665SOL    HW157834  13.210   2.603  14.330
18665SOL    HW257835  13.335   2.644  14.406
18666SOL     OW57836  11.327   6.226   8.075
18666SOL    HW157837  11.371   6.240   8.158
18666SOL    HW257838  11.350   6.137   8.049
18667SOL     OW57839   6.917  10.021  14.766
18667SOL    HW157840   7.007  10.004  14.738
18667SOL    HW257841   6.888   9.939  14.806
18668SOL     OW57842  12.471   8.083   1.181
18668SOL    HW157843  12.386   8.040   1.179
18668SOL    HW257844  12.534   8.012   1.190
18669SOL     OW57845  10.602   4.743  11.141
18669SOL    HW157846  10.663   4.711  11.074
18669SOL    HW257847  10.648   4.729  11.223
18670SOL     OW57848  12.055   1.430   8.878
18670SOL    HW157849  12.108   1.361   8.916
18670SOL    HW257850  12.012   1.389   8.803
18671SOL     OW57851  13.538   3.365   9.536
18671SOL    HW157852  13.622   3.411   9.545
18671SOL    HW257853  13.517   3.335   9.625
18672SOL     OW57854   0.584   4.549   2.249
18672SOL    HW157855   0.645   4.601   2.196
18672SOL    HW257856   0.641   4.494   2.303
18673SOL     OW57857  10.705   9.826   8.731
18673SOL    HW157858  10.636   9.879   8.693
18673SOL    HW257859  10.753   9.887   8.788
18674SOL     OW57860   5.379   6.019   6.513
18674SOL    HW157861   5.413   5.930   6.500
18674SOL    HW257862   5.351   6.020   6.604
18675SOL     OW57863  13.921  11.953   4.130
18675SOL    HW157864  13.942  12.009   4.204
18675SOL    HW257865  14.007  11.929   4.093
18676SOL     OW57866   3.202  10.164   9.892
18676SOL    HW157867   3.205  10.248   9.847
18676SOL    HW257868   3.122  10.167   9.944
18677SOL     OW57869  13.883  14.164   8.399
18677SOL    HW157870  13.903  14.167   8.493
18677SOL    HW257871  13.811  14.101   8.392
18678SOL     OW57872  11.779   7.052   1.314
18678SOL    HW157873  11.713   7.073   1.248
18678SOL    HW257874  11.862   7.073   1.271
18679SOL     OW57875  10.214   4.837  12.055
18679SOL    HW157876  10.246   4.828  11.965
18679SOL    HW257877  10.270   4.905  12.093
18680SOL     OW57878   1.137   8.681   8.083
18680SOL    HW157879   1.085   8.661   8.160
18680SOL    HW257880   1.072   8.698   8.014
18681SOL     OW57881  14.198   1.176   4.974
18681SOL    HW157882  14.147   1.171   5.055
18681SOL    HW257883  14.289   1.176   5.003
18682SOL     OW57884  12.878   8.502   1.664
18682SOL    HW157885  12.857   8.450   1.741
18682SOL    HW257886  12.795   8.542   1.638
18683SOL     OW57887   0.921   7.875   4.763
18683SOL    HW157888   1.012   7.853   4.786
18683SOL    HW257889   0.920   7.970   4.761
18684SOL     OW57890   4.354   0.644   5.970
18684SOL    HW157891   4.304   0.569   5.940
18684SOL    HW257892   4.295   0.719   5.959
18685SOL     OW57893  12.104   0.888  14.682
18685SOL    HW157894  12.165   0.829  14.639
18685SOL    HW257895  12.027   0.888  14.625
18686SOL     OW57896  13.393  12.721   6.236
18686SOL    HW157897  13.465  12.733   6.174
18686SOL    HW257898  13.434  12.730   6.322
18687SOL     OW57899   2.129  12.250   0.273
18687SOL    HW157900   2.095  12.313   0.336
18687SOL    HW257901   2.151  12.173   0.325
18688SOL     OW57902   6.687   4.864   5.009
18688SOL    HW157903   6.734   4.802   4.954
18688SOL    HW257904   6.756   4.915   5.052
18689SOL     OW57905   8.131   2.374  12.434
18689SOL    HW157906   8.124   2.430  12.511
18689SOL    HW257907   8.169   2.292  12.468
18690SOL     OW57908   4.981   1.206   2.641
18690SOL    HW157909   5.039   1.277   2.670
18690SOL    HW257910   4.981   1.213   2.545
18691SOL     OW57911   1.731  12.343   7.729
18691SOL    HW157912   1.744  12.437   7.743
18691SOL    HW257913   1.637  12.333   7.716
18692SOL     OW57914   1.778   5.386   3.368
18692SOL    HW157915   1.714   5.321   3.338
18692SOL    HW257916   1.737   5.428   3.443
18693SOL     OW57917   8.559   3.080  12.825
18693SOL    HW157918   8.603   3.082  12.909
18693SOL    HW257919   8.613   3.022  12.771
18694SOL     OW57920  14.479  14.843  13.007
18694SOL    HW157921  14.513   0.035  12.946
18694SOL    HW257922  14.516  14.761  12.976
18695SOL     OW57923  12.163  13.839   0.355
18695SOL    HW157924  12.155  13.744   0.343
18695SOL    HW257925  12.074  13.868   0.373
18696SOL     OW57926   6.843   2.021   6.113
18696SOL    HW157927   6.907   2.077   6.156
18696SOL    HW257928   6.868   1.932   6.139
18697SOL     OW57929   4.298  10.641   4.282
18697SOL    HW157930   4.243  10.698   4.336
18697SOL    HW257931   4.352  10.700   4.230
18698SOL     OW57932   5.524   5.306   2.135
18698SOL    HW157933   5.524   5.401   2.148
18698SOL    HW257934   5.578   5.272   2.206
18699SOL     OW57935   1.233   2.375   5.426
18699SOL    HW157936   1.147   2.369   5.384
18699SOL    HW257937   1.214   2.389   5.518
18700SOL     OW57938   8.792   4.649  11.266
18700SOL    HW157939   8.794   4.641  11.171
18700SOL    HW257940   8.875   4.691  11.288
18701SOL     OW57941  13.323  13.659   8.680
18701SOL    HW157942  13.331  13.575   8.636
18701SOL    HW257943  13.411  13.697   8.675
18702SOL     OW57944   2.276  14.831  11.453
18702SOL    HW157945   2.194  14.823  11.501
18702SOL    HW257946   2.277   0.048  11.421
18703SOL     OW57947   6.942   1.801   0.259
18703SOL    HW157948   6.855   1.794   0.220
18703SOL    HW257949   7.001   1.771   0.190
18704SOL     OW57950  12.777   2.903   4.191
18704SOL    HW157951  12.838   2.972   4.216
18704SOL    HW257952  12.696   2.950   4.169
18705SOL     OW57953   5.992   1.363  12.709
18705SOL    HW157954   6.080   1.329  12.721
18705SOL    HW257955   6.004   1.456  12.692
18706SOL     OW57956   8.484  11.387   0.817
18706SOL    HW157957   8.466  11.364   0.725
18706SOL    HW257958   8.398  11.380   0.860
18707SOL     OW57959   8.932  11.435  11.909
18707SOL    HW157960   8.867  11.384  11.957
18707SOL    HW257961   8.949  11.384  11.830
18708SOL     OW57962   0.807   2.575   6.640
18708SOL    HW157963   0.814   2.499   6.698
18708SOL    HW257964   0.835   2.543   6.554
18709SOL     OW57965  13.224   5.651   2.341
18709SOL    HW157966  13.185   5.624   2.259
18709SOL    HW257967  13.313   5.679   2.318
18710SOL     OW57968   3.755   1.707   6.062
18710SOL    HW157969   3.735   1.798   6.041
18710SOL    HW257970   3.702   1.656   6.001
18711SOL     OW57971  13.587   3.076  11.934
18711SOL    HW157972  13.569   3.156  11.884
18711SOL    HW257973  13.678   3.055  11.914
18712SOL     OW57974  13.621   8.895   5.181
18712SOL    HW157975  13.645   8.863   5.094
18712SOL    HW257976  13.669   8.977   5.190
18713SOL     OW57977   5.353   1.812   7.064
18713SOL    HW157978   5.351   1.860   6.981
18713SOL    HW257979   5.390   1.874   7.127
18714SOL     OW57980   3.291   7.753   8.562
18714SOL    HW157981   3.293   7.697   8.640
18714SOL    HW257982   3.384   7.766   8.540
18715SOL     OW57983  10.133   7.309   5.777
18715SOL    HW157984  10.132   7.332   5.684
18715SOL    HW257985  10.104   7.218   5.780
18716SOL     OW57986   4.939   2.764  14.182
18716SOL    HW157987   5.026   2.801  14.172
18716SOL    HW257988   4.880   2.828  14.142
18717SOL     OW57989   8.176   2.502   2.351
18717SOL    HW157990   8.131   2.518   2.268
18717SOL    HW257991   8.179   2.587   2.394
18718SOL     OW57992   7.871   0.200   0.889
18718SOL    HW157993   7.823   0.181   0.969
18718SOL    HW257994   7.932   0.127   0.878
18719SOL     OW57995   0.012   0.707   5.054
18719SOL    HW157996  14.814   0.668   5.006
18719SOL    HW257997  14.846   0.739   5.135
18720SOL     OW57998  10.235  12.102   3.990
18720SOL    HW157999  10.286  12.143   4.060
18720SOL    HW258000  10.188  12.030   4.033
18721SOL     OW58001  10.142   3.624  14.380
18721SOL    HW158002  10.060   3.576  14.392
18721SOL    HW258003  10.130   3.706  14.428
18722SOL     OW58004   1.146   7.149   6.571
18722SOL    HW158005   1.151   7.153   6.666
18722SOL    HW258006   1.206   7.217   6.540
18723SOL     OW58007   6.208   9.034  11.481
18723SOL    HW158008   6.236   8.953  11.439
18723SOL    HW258009   6.123   9.013  11.518
18724SOL     OW58010   0.241  10.329   0.825
18724SOL    HW158011   0.212  10.268   0.893
18724SOL    HW258012   0.190  10.307   0.748
18725SOL     OW58013   8.138   5.759   7.726
18725SOL    HW158014   8.179   5.746   7.641
18725SOL    HW258015   8.122   5.854   7.730
18726SOL     OW58016   6.216   1.748  13.258
18726SOL    HW158017   6.126   1.756  13.288
18726SOL    HW258018   6.269   1.775  13.333
18727SOL     OW58019   5.016  12.199   1.804
18727SOL    HW158020   5.050  12.112   1.781
18727SOL    HW258021   4.921  12.187   1.809
18728SOL     OW58022   2.296  12.513   3.398
18728SOL    HW158023   2.278  12.584   3.460
18728SOL    HW258024   2.392  12.515   3.388
18729SOL     OW58025   1.168  14.695   6.463
18729SOL    HW158026   1.110  14.745   6.521
18729SOL    HW258027   1.117  14.683   6.383
18730SOL     OW58028  14.016   8.609   6.093
18730SOL    HW158029  14.085   8.556   6.054
18730SOL    HW258030  14.052   8.638   6.177
18731SOL     OW58031   9.790   0.059  11.324
18731SOL    HW158032   9.837  14.850  11.315
18731SOL    HW258033   9.703   0.042  11.288
18732SOL     OW58034   9.226  10.986  14.421
18732SOL    HW158035   9.213  10.906  14.470
18732SOL    HW258036   9.166  10.980  14.347
18733SOL     OW58037   2.997  14.601   6.100
18733SOL    HW158038   3.006  14.676   6.041
18733SOL    HW258039   3.076  14.603   6.154
18734SOL     OW58040   1.924   8.534   8.018
18734SOL    HW158041   2.002   8.480   8.004
18734SOL    HW258042   1.956   8.624   8.015
18735SOL     OW58043   7.870   2.583   5.441
18735SOL    HW158044   7.842   2.674   5.436
18735SOL    HW258045   7.930   2.580   5.515
18736SOL     OW58046   3.358   3.153   4.160
18736SOL    HW158047   3.430   3.110   4.204
18736SOL    HW258048   3.396   3.189   4.080
18737SOL     OW58049   2.977   3.780   5.463
18737SOL    HW158050   2.959   3.713   5.397
18737SOL    HW258051   2.897   3.786   5.514
18738SOL     OW58052  12.228   8.787   8.239
18738SOL    HW158053  12.254   8.821   8.324
18738SOL    HW258054  12.160   8.723   8.258
18739SOL     OW58055   1.192   1.077   2.296
18739SOL    HW158056   1.104   1.107   2.274
18739SOL    HW258057   1.250   1.139   2.250
18740SOL     OW58058   1.834  11.107   0.167
18740SOL    HW158059   1.910  11.065   0.126
18740SOL    HW258060   1.847  11.093   0.261
18741SOL     OW58061   8.052   4.025  12.092
18741SOL    HW158062   8.045   3.993  12.182
18741SOL    HW258063   8.146   4.041  12.080
18742SOL     OW58064   8.352   0.905  14.610
18742SOL    HW158065   8.291   0.900  14.683
18742SOL    HW258066   8.314   0.969  14.551
18743SOL     OW58067   0.724   7.538  14.314
18743SOL    HW158068   0.810   7.578  14.331
18743SOL    HW258069   0.742   7.444  14.313
18744SOL     OW58070   8.474  12.918   3.081
18744SOL    HW158071   8.495  12.849   3.144
18744SOL    HW258072   8.465  12.872   2.997
18745SOL     OW58073   5.171   2.050   9.588
18745SOL    HW158074   5.168   1.982   9.521
18745SOL    HW258075   5.198   2.005   9.667
18746SOL     OW58076   6.734   6.921   3.874
18746SOL    HW158077   6.724   6.998   3.931
18746SOL    HW258078   6.646   6.903   3.841
18747SOL     OW58079  14.081  12.009  11.995
18747SOL    HW158080  14.097  12.052  12.079
18747SOL    HW258081  14.110  11.919  12.008
18748SOL     OW58082  14.686   0.721  13.870
18748SOL    HW158083  14.638   0.798  13.898
18748SOL    HW258084  14.725   0.745  13.786
18749SOL     OW58085  10.916   0.286   6.441
18749SOL    HW158086  10.914   0.339   6.520
18749SOL    HW258087  10.967   0.209   6.465
18750SOL     OW58088  14.246  11.380  13.834
18750SOL    HW158089  14.311  11.438  13.875
18750SOL    HW258090  14.251  11.401  13.741
18751SOL     OW58091   3.027   6.842  13.649
18751SOL    HW158092   3.121   6.832  13.638
18751SOL    HW258093   3.004   6.916  13.593
18752SOL     OW58094   2.212  12.111   0.960
18752SOL    HW158095   2.216  12.037   0.899
18752SOL    HW258096   2.302  12.143   0.966
18753SOL     OW58097   4.832   0.102   0.694
18753SOL    HW158098   4.869   0.176   0.647
18753SOL    HW258099   4.897   0.033   0.686
18754SOL     OW58100   7.726  11.259  14.034
18754SOL    HW158101   7.681  11.342  14.049
18754SOL    HW258102   7.697  11.203  14.106
18755SOL     OW58103   7.768  11.412   2.977
18755SOL    HW158104   7.688  11.422   3.028
18755SOL    HW258105   7.814  11.495   2.988
18756SOL     OW58106  14.405   8.625  13.000
18756SOL    HW158107  14.483   8.632  13.055
18756SOL    HW258108  14.396   8.531  12.984
18757SOL     OW58109   4.143  14.314  13.636
18757SOL    HW158110   4.238  14.306  13.624
18757SOL    HW258111   4.115  14.372  13.566
18758SOL     OW58112   8.110   7.310  14.026
18758SOL    HW158113   8.077   7.399  14.035
18758SOL    HW258114   8.164   7.312  13.946
18759SOL     OW58115   8.497  11.305  12.737
18759SOL    HW158116   8.523  11.320  12.645
18759SOL    HW258117   8.543  11.225  12.762
18760SOL     OW58118   9.115   7.464   1.282
18760SOL    HW158119   9.100   7.477   1.188
18760SOL    HW258120   9.140   7.550   1.315
18761SOL     OW58121  11.699  12.289   9.969
18761SOL    HW158122  11.789  12.321   9.962
18761SOL    HW258123  11.708  12.195   9.982
18762SOL     OW58124   4.863  10.570  12.441
18762SOL    HW158125   4.924  10.619  12.386
18762SOL    HW258126   4.812  10.637  12.486
18763SOL     OW58127  11.081  10.373   3.426
18763SOL    HW158128  11.153  10.394   3.485
18763SOL    HW258129  11.108  10.291   3.384
18764SOL     OW58130   0.828  14.259  13.103
18764SOL    HW158131   0.748  14.285  13.056
18764SOL    HW258132   0.842  14.329  13.167
18765SOL     OW58133   6.912   0.506   1.609
18765SOL    HW158134   6.955   0.437   1.558
18765SOL    HW258135   6.984   0.558   1.645
18766SOL     OW58136   4.996   9.257   8.760
18766SOL    HW158137   5.009   9.173   8.804
18766SOL    HW258138   4.984   9.319   8.831
18767SOL     OW58139   2.679   5.698   9.025
18767SOL    HW158140   2.612   5.760   8.997
18767SOL    HW258141   2.748   5.752   9.063
18768SOL     OW58142  14.496   7.466   0.814
18768SOL    HW158143  14.443   7.502   0.885
18768SOL    HW258144  14.586   7.480   0.843
18769SOL     OW58145   6.657   0.914  11.267
18769SOL    HW158146   6.724   0.909  11.335
18769SOL    HW258147   6.576   0.889  11.312
18770SOL     OW58148  11.228   6.110  12.378
18770SOL    HW158149  11.230   6.016  12.395
18770SOL    HW258150  11.224   6.151  12.464
18771SOL     OW58151  13.134   9.999  14.634
18771SOL    HW158152  13.067  10.063  14.612
18771SOL    HW258153  13.127   9.932  14.566
18772SOL     OW58154   4.357  11.275   6.965
18772SOL    HW158155   4.387  11.361   6.935
18772SOL    HW258156   4.390  11.214   6.899
18773SOL     OW58157   9.947   3.813   6.011
18773SOL    HW158158   9.939   3.765   5.929
18773SOL    HW258159   9.958   3.905   5.985
18774SOL     OW58160  14.055   6.211  11.304
18774SOL    HW158161  14.084   6.165  11.225
18774SOL    HW258162  14.095   6.298  11.297
18775SOL     OW58163  12.076   0.714   0.862
18775SOL    HW158164  12.150   0.700   0.803
18775SOL    HW258165  12.006   0.746   0.805
18776SOL     OW58166   2.250   3.780  10.327
18776SOL    HW158167   2.163   3.744  10.310
18776SOL    HW258168   2.234   3.859  10.378
18777SOL     OW58169   3.954  12.399  14.761
18777SOL    HW158170   3.983  12.411  14.671
18777SOL    HW258171   3.942  12.488  14.794
18778SOL     OW58172  13.795   9.446   2.528
18778SOL    HW158173  13.821   9.462   2.619
18778SOL    HW258174  13.844   9.366   2.504
18779SOL     OW58175   0.448   2.418   5.095
18779SOL    HW158176   0.410   2.451   5.177
18779SOL    HW258177   0.461   2.324   5.111
18780SOL     OW58178  12.404   9.172  10.971
18780SOL    HW158179  12.484   9.214  11.003
18780SOL    HW258180  12.339   9.189  11.039
18781SOL     OW58181  10.226   2.088   6.665
18781SOL    HW158182  10.226   2.108   6.571
18781SOL    HW258183  10.136   2.063   6.684
18782SOL     OW58184   3.025  12.238   4.696
18782SOL    HW158185   2.934  12.265   4.688
18782SOL    HW258186   3.064  12.258   4.611
18783SOL     OW58187   9.406   7.004   6.196
18783SOL    HW158188   9.352   6.931   6.166
18783SOL    HW258189   9.426   6.983   6.287
18784SOL     OW58190   7.843   2.481  12.607
18784SOL    HW158191   7.892   2.488  12.688
18784SOL    HW258192   7.815   2.389  12.604
18785SOL     OW58193   2.599  13.160   9.447
18785SOL    HW158194   2.513  13.135   9.483
18785SOL    HW258195   2.659  13.149   9.521
18786SOL     OW58196   9.735   3.771   2.249
18786SOL    HW158197   9.651   3.771   2.295
18786SOL    HW258198   9.760   3.679   2.245
18787SOL     OW58199   8.467  14.428   4.517
18787SOL    HW158200   8.375  14.441   4.541
18787SOL    HW258201   8.494  14.511   4.479
18788SOL     OW58202   9.463  14.673   0.041
18788SOL    HW158203   9.384  14.704   0.087
18788SOL    HW258204   9.523  14.648   0.111
18789SOL     OW58205   7.947   5.140   5.523
18789SOL    HW158206   8.018   5.172   5.467
18789SOL    HW258207   7.938   5.048   5.499
18790SOL     OW58208   5.395   1.122   6.511
18790SOL    HW158209   5.448   1.043   6.496
18790SOL    HW258210   5.399   1.170   6.428
18791SOL     OW58211  13.079  12.365   1.029
18791SOL    HW158212  13.003  12.324   1.070
18791SOL    HW258213  13.123  12.412   1.100
18792SOL     OW58214   5.533   1.961   2.695
18792SOL    HW158215   5.521   1.966   2.600
18792SOL    HW258216   5.602   2.025   2.713
18793SOL     OW58217   4.934  11.886  13.538
18793SOL    HW158218   5.027  11.900  13.553
18793SOL    HW258219   4.897  11.870  13.625
18794SOL     OW58220   2.737  11.794  11.364
18794SOL    HW158221   2.829  11.795  11.338
18794SOL    HW258222   2.690  11.832  11.290
18795SOL     OW58223   5.216   4.905   8.754
18795SOL    HW158224   5.275   4.908   8.679
18795SOL    HW258225   5.185   4.814   8.756
18796SOL     OW58226   7.261  13.192   0.472
18796SOL    HW158227   7.268  13.099   0.491
18796SOL    HW258228   7.317  13.205   0.395
18797SOL     OW58229   9.817  12.582   9.719
18797SOL    HW158230   9.740  12.574   9.663
18797SOL    HW258231   9.800  12.521   9.791
18798SOL     OW58232  12.107   3.352   0.743
18798SOL    HW158233  12.018   3.365   0.709
18798SOL    HW258234  12.119   3.258   0.743
18799SOL     OW58235   8.489   4.836   8.197
18799SOL    HW158236   8.415   4.884   8.233
18799SOL    HW258237   8.476   4.746   8.225
18800SOL     OW58238  14.652   6.022  11.826
18800SOL    HW158239  14.588   5.951  11.814
18800SOL    HW258240  14.735   5.983  11.801
18801SOL     OW58241   8.394  14.015   3.309
18801SOL    HW158242   8.432  14.057   3.232
18801SOL    HW258243   8.397  14.083   3.377
18802SOL     OW58244   2.955   3.584   0.300
18802SOL    HW158245   2.947   3.610   0.208
18802SOL    HW258246   2.865   3.569   0.329
18803SOL     OW58247   8.061   4.148   7.853
18803SOL    HW158248   8.027   4.106   7.932
18803SOL    HW258249   8.155   4.152   7.866
18804SOL     OW58250  12.804   6.856  11.949
18804SOL    HW158251  12.858   6.901  12.014
18804SOL    HW258252  12.715   6.887  11.966
18805SOL     OW58253  12.957   9.459  13.736
18805SOL    HW158254  12.914   9.543  13.752
18805SOL    HW258255  13.015   9.474  13.662
18806SOL     OW58256  13.280   0.271   0.345
18806SOL    HW158257  13.264   0.188   0.389
18806SOL    HW258258  13.200   0.322   0.360
18807SOL     OW58259   9.934   4.932   9.850
18807SOL    HW158260   9.896   5.013   9.816
18807SOL    HW258261  10.008   4.961   9.904
18808SOL     OW58262  11.445   5.434   3.295
18808SOL    HW158263  11.431   5.491   3.220
18808SOL    HW258264  11.364   5.439   3.345
18809SOL     OW58265   2.763  12.878  14.774
18809SOL    HW158266   2.802  12.802  14.732
18809SOL    HW258267   2.813  12.890  14.854
18810SOL     OW58268  13.352   0.085   8.208
18810SOL    HW158269  13.367   0.100   8.302
18810SOL    HW258270  13.435   0.049   8.176
18811SOL     OW58271  14.621   3.003  11.014
18811SOL    HW158272  14.645   3.021  11.105
18811SOL    HW258273  14.680   2.932  10.988
18812SOL     OW58274   4.010   7.104   5.258
18812SOL    HW158275   3.969   7.027   5.297
18812SOL    HW258276   3.964   7.116   5.175
18813SOL     OW58277  11.992  11.343   3.843
18813SOL    HW158278  11.992  11.289   3.923
18813SOL    HW258279  11.980  11.433   3.875
18814SOL     OW58280   6.142   7.635  10.383
18814SOL    HW158281   6.067   7.610  10.436
18814SOL    HW258282   6.164   7.723  10.413
18815SOL     OW58283   4.156   3.734   6.590
18815SOL    HW158284   4.227   3.746   6.653
18815SOL    HW258285   4.157   3.641   6.570
18816SOL     OW58286   2.057   1.859  12.733
18816SOL    HW158287   2.136   1.823  12.774
18816SOL    HW258288   2.044   1.807  12.654
18817SOL     OW58289  14.408   4.977  14.515
18817SOL    HW158290  14.430   4.891  14.480
18817SOL    HW258291  14.313   4.976  14.525
18818SOL     OW58292   8.661   7.502   5.739
18818SOL    HW158293   8.692   7.431   5.796
18818SOL    HW258294   8.702   7.484   5.654
18819SOL     OW58295   8.124   1.215   5.384
18819SOL    HW158296   8.037   1.237   5.417
18819SOL    HW258297   8.183   1.273   5.432
18820SOL     OW58298   0.507   7.913   1.470
18820SOL    HW158299   0.583   7.862   1.502
18820SOL    HW258300   0.539   7.956   1.391
18821SOL     OW58301   7.060   2.286   6.067
18821SOL    HW158302   6.990   2.306   6.129
18821SOL    HW258303   7.091   2.371   6.037
18822SOL     OW58304   4.426   0.258   9.699
18822SOL    HW158305   4.391   0.331   9.750
18822SOL    HW258306   4.499   0.296   9.649
18823SOL     OW58307   6.071   5.583   2.758
18823SOL    HW158308   6.006   5.557   2.823
18823SOL    HW258309   6.061   5.678   2.750
18824SOL     OW58310   6.051   4.638   0.353
18824SOL    HW158311   6.108   4.637   0.276
18824SOL    HW258312   5.998   4.717   0.343
18825SOL     OW58313  11.045   3.903   9.327
18825SOL    HW158314  10.992   3.982   9.320
18825SOL    HW258315  11.070   3.900   9.420
18826SOL     OW58316   7.911   5.932   1.943
18826SOL    HW158317   7.929   5.874   2.017
18826SOL    HW258318   7.951   5.888   1.868
18827SOL     OW58319  13.267   2.530  13.851
18827SOL    HW158320  13.191   2.510  13.796
18827SOL    HW258321  13.340   2.537  13.789
18828SOL     OW58322   5.287   9.601   2.786
18828SOL    HW158323   5.229   9.528   2.809
18828SOL    HW258324   5.297   9.650   2.868
18829SOL     OW58325   4.982   4.177  10.088
18829SOL    HW158326   4.959   4.203   9.999
18829SOL    HW258327   4.911   4.211  10.142
18830SOL     OW58328   5.573   8.214  13.444
18830SOL    HW158329   5.485   8.179  13.458
18830SOL    HW258330   5.612   8.155  13.381
18831SOL     OW58331   4.528   9.333  12.003
18831SOL    HW158332   4.537   9.302  11.914
18831SOL    HW258333   4.485   9.418  11.995
18832SOL     OW58334   1.114   2.012   7.660
18832SOL    HW158335   1.136   2.101   7.632
18832SOL    HW258336   1.147   2.007   7.750
18833SOL     OW58337  12.207   8.726   8.549
18833SOL    HW158338  12.142   8.725   8.619
18833SOL    HW258339  12.243   8.815   8.550
18834SOL     OW58340  13.906  14.539   3.996
18834SOL    HW158341  13.986  14.569   4.040
18834SOL    HW258342  13.935  14.516   3.907
18835SOL     OW58343   8.500   2.820  11.340
18835SOL    HW158344   8.575   2.800  11.395
18835SOL    HW258345   8.427   2.774  11.382
18836SOL     OW58346   9.615   7.255  13.630
18836SOL    HW158347   9.707   7.266  13.655
18836SOL    HW258348   9.618   7.200  13.552
18837SOL     OW58349   6.569   7.192   2.431
18837SOL    HW158350   6.583   7.103   2.397
18837SOL    HW258351   6.631   7.246   2.382
18838SOL     OW58352  10.685   0.904   5.425
18838SOL    HW158353  10.760   0.935   5.477
18838SOL    HW258354  10.708   0.925   5.335
18839SOL     OW58355  11.991  12.901  11.777
18839SOL    HW158356  11.917  12.952  11.745
18839SOL    HW258357  12.065  12.927  11.721
18840SOL     OW58358   3.151   9.556   7.186
18840SOL    HW158359   3.242   9.534   7.203
18840SOL    HW258360   3.129   9.505   7.108
18841SOL     OW58361  11.812   9.295   2.130
18841SOL    HW158362  11.908   9.287   2.134
18841SOL    HW258363  11.786   9.316   2.220
18842SOL     OW58364   1.038  13.652  12.475
18842SOL    HW158365   1.091  13.573  12.485
18842SOL    HW258366   1.097  13.724  12.498
18843SOL     OW58367   2.948  14.622   7.254
18843SOL    HW158368   2.897  14.619   7.173
18843SOL    HW258369   3.033  14.585   7.230
18844SOL     OW58370   2.568   1.943   6.418
18844SOL    HW158371   2.542   1.927   6.508
18844SOL    HW258372   2.485   1.955   6.371
18845SOL     OW58373   8.608  11.037   3.781
18845SOL    HW158374   8.611  11.131   3.797
18845SOL    HW258375   8.536  11.006   3.836
18846SOL     OW58376  13.126  10.261  10.693
18846SOL    HW158377  13.147  10.335  10.637
18846SOL    HW258378  13.135  10.294  10.782
18847SOL     OW58379   1.183   1.982  11.141
18847SOL    HW158380   1.157   1.981  11.049
18847SOL    HW258381   1.277   1.999  11.139
18848SOL     OW58382  13.140  14.706   3.700
18848SOL    HW158383  13.050  14.690   3.729
18848SOL    HW258384  13.193  14.690   3.778
18849SOL     OW58385  10.103   5.577  13.159
18849SOL    HW158386  10.105   5.560  13.253
18849SOL    HW258387  10.015   5.612  13.143
18850SOL     OW58388   0.063   4.410   8.513
18850SOL    HW158389   0.141   4.452   8.476
18850SOL    HW258390   0.045   4.337   8.454
18851SOL     OW58391   2.314  11.369  12.974
18851SOL    HW158392   2.246  11.373  13.041
18851SOL    HW258393   2.267  11.357  12.892
18852SOL     OW58394  10.512   3.964   7.159
18852SOL    HW158395  10.553   3.911   7.091
18852SOL    HW258396  10.476   4.040   7.113
18853SOL     OW58397   2.801   7.267  13.076
18853SOL    HW158398   2.741   7.340  13.062
18853SOL    HW258399   2.877   7.306  13.119
18854SOL     OW58400  10.625   9.356   0.402
18854SOL    HW158401  10.561   9.366   0.332
18854SOL    HW258402  10.676   9.437   0.399
18855SOL     OW58403   0.008  14.603   2.398
18855SOL    HW158404  14.834  14.647   2.468
18855SOL    HW258405  14.816  14.587   2.330
18856SOL     OW58406   9.436   5.708   7.237
18856SOL    HW158407   9.492   5.743   7.167
18856SOL    HW258408   9.390   5.784   7.272
18857SOL     OW58409  14.501  12.831   2.899
18857SOL    HW158410  14.461  12.826   2.813
18857SOL    HW258411  14.428  12.844   2.959
18858SOL     OW58412   7.563   0.386  11.964
18858SOL    HW158413   7.567   0.312  12.025
18858SOL    HW258414   7.591   0.461  12.016
18859SOL     OW58415  14.269   8.364   7.777
18859SOL    HW158416  14.334   8.390   7.711
18859SOL    HW258417  14.291   8.273   7.797
18860SOL     OW58418   5.776   8.329   6.438
18860SOL    HW158419   5.853   8.296   6.483
18860SOL    HW258420   5.805   8.410   6.396
18861SOL     OW58421   7.598   3.307   3.250
18861SOL    HW158422   7.544   3.261   3.185
18861SOL    HW258423   7.552   3.389   3.266
18862SOL     OW58424   4.685  11.257   0.879
18862SOL    HW158425   4.597  11.261   0.917
18862SOL    HW258426   4.735  11.322   0.929
18863SOL     OW58427   7.559   9.276   2.068
18863SOL    HW158428   7.514   9.207   2.116
18863SOL    HW258429   7.502   9.353   2.078
18864SOL     OW58430  14.676   3.700   2.918
18864SOL    HW158431  14.660   3.711   2.824
18864SOL    HW258432  14.769   3.678   2.924
18865SOL     OW58433   8.392   6.058   3.469
18865SOL    HW158434   8.319   6.095   3.519
18865SOL    HW258435   8.458   6.126   3.467
18866SOL     OW58436  14.786  10.161   5.428
18866SOL    HW158437  14.873  10.191   5.454
18866SOL    HW258438  14.737  10.156   5.510
18867SOL     OW58439   8.914   7.032  10.279
18867SOL    HW158440   8.822   7.012  10.294
18867SOL    HW258441   8.948   7.057  10.364
18868SOL     OW58442  10.860   6.801   7.547
18868SOL    HW158443  10.820   6.715   7.561
18868SOL    HW258444  10.910   6.818   7.627
18869SOL     OW58445  11.915  12.135   2.122
18869SOL    HW158446  11.829  12.159   2.157
18869SOL    HW258447  11.929  12.045   2.151
18870SOL     OW58448  12.452   6.345   5.200
18870SOL    HW158449  12.417   6.419   5.151
18870SOL    HW258450  12.543   6.338   5.170
18871SOL     OW58451   4.624  10.800   3.468
18871SOL    HW158452   4.674  10.854   3.407
18871SOL    HW258453   4.549  10.769   3.418
18872SOL     OW58454   0.156   3.045   1.445
18872SOL    HW158455   0.116   2.973   1.396
18872SOL    HW258456   0.151   3.017   1.537
18873SOL     OW58457   0.902   2.378   0.295
18873SOL    HW158458   0.838   2.439   0.329
18873SOL    HW258459   0.906   2.308   0.362
18874SOL     OW58460  10.759  10.615  10.470
18874SOL    HW158461  10.678  10.569  10.492
18874SOL    HW258462  10.731  10.688  10.414
18875SOL     OW58463  13.360   9.478   2.975
18875SOL    HW158464  13.366   9.502   2.882
18875SOL    HW258465  13.272   9.505   3.001
18876SOL     OW58466   8.306   0.390   3.253
18876SOL    HW158467   8.349   0.424   3.174
18876SOL    HW258468   8.213   0.386   3.231
18877SOL     OW58469   6.561  12.058  12.008
18877SOL    HW158470   6.646  12.043  11.965
18877SOL    HW258471   6.574  12.139  12.058
18878SOL     OW58472   1.382  13.384  12.204
18878SOL    HW158473   1.317  13.443  12.242
18878SOL    HW258474   1.367  13.301  12.249
18879SOL     OW58475   3.966  13.713   3.774
18879SOL    HW158476   4.036  13.655   3.804
18879SOL    HW258477   3.986  13.728   3.682
18880SOL     OW58478  13.094   5.810   1.527
18880SOL    HW158479  13.123   5.757   1.453
18880SOL    HW258480  12.998   5.801   1.527
18881SOL     OW58481   6.903   1.320  12.065
18881SOL    HW158482   6.930   1.395  12.119
18881SOL    HW258483   6.971   1.255  12.080
18882SOL     OW58484  13.883   6.999   8.680
18882SOL    HW158485  13.874   7.053   8.602
18882SOL    HW258486  13.976   7.004   8.702
18883SOL     OW58487   8.295   1.469  11.009
18883SOL    HW158488   8.333   1.470  11.097
18883SOL    HW258489   8.370   1.456  10.951
18884SOL     OW58490   0.688  10.302   6.217
18884SOL    HW158491   0.605  10.282   6.174
18884SOL    HW258492   0.754  10.253   6.166
18885SOL     OW58493   6.064   5.506   6.325
18885SOL    HW158494   6.047   5.564   6.251
18885SOL    HW258495   6.079   5.420   6.285
18886SOL     OW58496   0.731   9.839   9.180
18886SOL    HW158497   0.763   9.913   9.232
18886SOL    HW258498   0.758   9.859   9.091
18887SOL     OW58499   4.820   6.865  10.549
18887SOL    HW158500   4.834   6.922  10.624
18887SOL    HW258501   4.732   6.886  10.519
18888SOL     OW58502  12.322  11.064  12.709
18888SOL    HW158503  12.328  10.987  12.767
18888SOL    HW258504  12.311  11.138  12.769
18889SOL     OW58505   1.078   8.792   4.894
18889SOL    HW158506   1.127   8.860   4.940
18889SOL    HW258507   1.121   8.710   4.917
18890SOL     OW58508   4.099   8.406   1.068
18890SOL    HW158509   4.164   8.427   1.135
18890SOL    HW258510   4.026   8.368   1.117
18891SOL     OW58511   6.165  13.382  13.216
18891SOL    HW158512   6.260  13.389  13.227
18891SOL    HW258513   6.147  13.425  13.133
18892SOL     OW58514   2.663   9.795   8.601
18892SOL    HW158515   2.665   9.719   8.660
18892SOL    HW258516   2.600   9.772   8.534
18893SOL     OW58517   1.024  14.317   5.030
18893SOL    HW158518   1.097  14.378   5.021
18893SOL    HW258519   1.010  14.283   4.942
18894SOL     OW58520   5.141   5.590   1.381
18894SOL    HW158521   5.230   5.621   1.398
18894SOL    HW258522   5.152   5.502   1.346
18895SOL     OW58523   8.421   9.626  13.008
18895SOL    HW158524   8.369   9.678  13.070
18895SOL    HW258525   8.398   9.535  13.028
18896SOL     OW58526  10.103  11.563   7.141
18896SOL    HW158527  10.074  11.555   7.051
18896SOL    HW258528  10.191  11.601   7.135
18897SOL     OW58529  12.970   6.818   0.147
18897SOL    HW158530  13.012   6.734   0.165
18897SOL    HW258531  12.921   6.838   0.227
18898SOL     OW58532  10.285   1.476   8.439
18898SOL    HW158533  10.205   1.458   8.390
18898SOL    HW258534  10.311   1.392   8.476
18899SOL     OW58535   8.275   7.069   8.079
18899SOL    HW158536   8.343   7.016   8.039
18899SOL    HW258537   8.308   7.158   8.077
18900SOL     OW58538  10.691   6.379   1.220
18900SOL    HW158539  10.752   6.398   1.149
18900SOL    HW258540  10.700   6.285   1.236
18901SOL     OW58541   4.088   3.589   9.166
18901SOL    HW158542   4.134   3.640   9.098
18901SOL    HW258543   4.079   3.650   9.239
18902SOL     OW58544   7.643  10.680   5.954
18902SOL    HW158545   7.685  10.744   5.897
18902SOL    HW258546   7.689  10.598   5.937
18903SOL     OW58547  10.200   2.089   2.319
18903SOL    HW158548  10.295   2.077   2.319
18903SOL    HW258549  10.180   2.127   2.233
18904SOL     OW58550  14.749  14.410   5.061
18904SOL    HW158551  14.754  14.490   5.113
18904SOL    HW258552  14.657  14.405   5.033
18905SOL     OW58553  12.149   5.769   3.869
18905SOL    HW158554  12.082   5.833   3.895
18905SOL    HW258555  12.157   5.711   3.945
18906SOL     OW58556  11.762  11.077   6.355
18906SOL    HW158557  11.838  11.108   6.403
18906SOL    HW258558  11.687  11.109   6.404
18907SOL     OW58559   2.414   8.231   9.915
18907SOL    HW158560   2.336   8.202   9.963
18907SOL    HW258561   2.451   8.300   9.970
18908SOL     OW58562   9.197   6.852   3.621
18908SOL    HW158563   9.115   6.845   3.573
18908SOL    HW258564   9.265   6.837   3.555
18909SOL     OW58565   5.206   5.051  12.405
18909SOL    HW158566   5.142   5.088  12.466
18909SOL    HW258567   5.153   5.019  12.331
18910SOL     OW58568  12.118   6.791   7.318
18910SOL    HW158569  12.165   6.866   7.282
18910SOL    HW258570  12.123   6.724   7.250
18911SOL     OW58571  10.628   5.428   7.422
18911SOL    HW158572  10.691   5.413   7.351
18911SOL    HW258573  10.663   5.503   7.469
18912SOL     OW58574  13.264   7.103  14.326
18912SOL    HW158575  13.170   7.098  14.308
18912SOL    HW258576  13.274   7.060  14.411
18913SOL     OW58577   7.386  11.548   2.755
18913SOL    HW158578   7.302  11.567   2.796
18913SOL    HW258579   7.448  11.605   2.800
18914SOL     OW58580  12.079  11.454   8.100
18914SOL    HW158581  12.073  11.412   8.014
18914SOL    HW258582  11.998  11.504   8.108
18915SOL     OW58583   6.683  10.824   9.247
18915SOL    HW158584   6.658  10.879   9.321
18915SOL    HW258585   6.707  10.885   9.177
18916SOL     OW58586   2.401   1.286   7.516
18916SOL    HW158587   2.448   1.366   7.494
18916SOL    HW258588   2.450   1.216   7.473
18917SOL     OW58589   6.432  12.075   2.260
18917SOL    HW158590   6.363  12.009   2.255
18917SOL    HW258591   6.384  12.157   2.274
18918SOL     OW58592  10.337   0.524   6.214
18918SOL    HW158593  10.320   0.431   6.199
18918SOL    HW258594  10.432   0.533   6.205
18919SOL     OW58595  10.799  10.534  11.886
18919SOL    HW158596  10.813  10.468  11.819
18919SOL    HW258597  10.791  10.616  11.838
18920SOL     OW58598  11.415   9.500  12.703
18920SOL    HW158599  11.443   9.412  12.679
18920SOL    HW258600  11.494   9.542  12.737
18921SOL     OW58601   4.529   3.449   1.415
18921SOL    HW158602   4.621   3.421   1.418
18921SOL    HW258603   4.501   3.449   1.506
18922SOL     OW58604   0.150  12.291   5.462
18922SOL    HW158605   0.083  12.268   5.526
18922SOL    HW258606   0.167  12.209   5.416
18923SOL     OW58607   7.143  13.111  14.799
18923SOL    HW158608   7.152  13.130  14.706
18923SOL    HW258609   7.232  13.095  14.830
18924SOL     OW58610   4.022   9.378  12.799
18924SOL    HW158611   4.052   9.461  12.837
18924SOL    HW258612   4.071   9.311  12.846
18925SOL     OW58613   1.549   6.948   3.286
18925SOL    HW158614   1.525   6.871   3.337
18925SOL    HW258615   1.473   7.006   3.293
18926SOL     OW58616   7.933   7.433  11.707
18926SOL    HW158617   7.912   7.350  11.664
18926SOL    HW258618   7.849   7.479  11.712
18927SOL     OW58619   5.796   7.584   1.024
18927SOL    HW158620   5.768   7.598   1.115
18927SOL    HW258621   5.736   7.519   0.990
18928SOL     OW58622   2.065   8.057   9.268
18928SOL    HW158623   2.052   8.147   9.298
18928SOL    HW258624   2.155   8.056   9.236
18929SOL     OW58625   0.467  14.382   9.693
18929SOL    HW158626   0.465  14.474   9.721
18929SOL    HW258627   0.471  14.332   9.774
18930SOL     OW58628  14.235  10.744   6.170
18930SOL    HW158629  14.210  10.781   6.254
18930SOL    HW258630  14.154  10.706   6.135
18931SOL     OW58631   7.911   7.769   3.295
18931SOL    HW158632   7.945   7.773   3.206
18931SOL    HW258633   7.912   7.860   3.326
18932SOL     OW58634   3.692   2.883   0.255
18932SOL    HW158635   3.727   2.873   0.343
18932SOL    HW258636   3.720   2.970   0.227
18933SOL     OW58637  14.752   4.501  11.511
18933SOL    HW158638  14.816   4.556  11.465
18933SOL    HW258639  14.728   4.434  11.448
18934SOL     OW58640  13.344  12.094   9.686
18934SOL    HW158641  13.262  12.120   9.728
18934SOL    HW258642  13.403  12.167   9.701
18935SOL     OW58643  14.368   9.396   2.197
18935SOL    HW158644  14.405   9.309   2.183
18935SOL    HW258645  14.363   9.405   2.292
18936SOL     OW58646   3.460   1.888   9.754
18936SOL    HW158647   3.478   1.900   9.661
18936SOL    HW258648   3.365   1.897   9.761
18937SOL     OW58649  12.980  12.585   0.871
18937SOL    HW158650  13.030  12.506   0.893
18937SOL    HW258651  12.957  12.573   0.779
18938SOL     OW58652   7.694  11.676   8.775
18938SOL    HW158653   7.615  11.636   8.811
18938SOL    HW258654   7.706  11.634   8.690
18939SOL     OW58655   8.588   8.993   9.481
18939SOL    HW158656   8.548   8.906   9.489
18939SOL    HW258657   8.541   9.047   9.545
18940SOL     OW58658  12.130  13.961  14.056
18940SOL    HW158659  12.151  13.911  13.977
18940SOL    HW258660  12.119  14.051  14.025
18941SOL     OW58661  14.319  10.071   5.421
18941SOL    HW158662  14.278  10.120   5.493
18941SOL    HW258663  14.254  10.072   5.351
18942SOL     OW58664   3.513   6.335   6.273
18942SOL    HW158665   3.514   6.280   6.195
18942SOL    HW258666   3.555   6.281   6.341
18943SOL     OW58667   7.471  14.216  12.681
18943SOL    HW158668   7.436  14.135  12.645
18943SOL    HW258669   7.417  14.285  12.643
18944SOL     OW58670   1.298   1.861   0.553
18944SOL    HW158671   1.273   1.797   0.620
18944SOL    HW258672   1.307   1.809   0.473
18945SOL     OW58673   6.709  11.047  10.788
18945SOL    HW158674   6.661  11.006  10.860
18945SOL    HW258675   6.786  10.991  10.777
18946SOL     OW58676   6.011  10.953  11.034
18946SOL    HW158677   5.919  10.979  11.037
18946SOL    HW258678   6.059  11.032  11.058
18947SOL     OW58679   5.626  12.644  13.530
18947SOL    HW158680   5.541  12.680  13.503
18947SOL    HW258681   5.671  12.718  13.570
18948SOL     OW58682  11.561  11.162   7.790
18948SOL    HW158683  11.638  11.172   7.846
18948SOL    HW258684  11.558  11.242   7.738
18949SOL     OW58685   3.233   8.323   0.126
18949SOL    HW158686   3.291   8.398   0.144
18949SOL    HW258687   3.244   8.265   0.202
18950SOL     OW58688   1.360   1.782  13.830
18950SOL    HW158689   1.380   1.841  13.756
18950SOL    HW258690   1.297   1.719  13.794
18951SOL     OW58691  12.951   5.844  13.646
18951SOL    HW158692  12.944   5.928  13.602
18951SOL    HW258693  12.907   5.782  13.588
18952SOL     OW58694   5.876   1.041  12.239
18952SOL    HW158695   5.930   1.066  12.164
18952SOL    HW258696   5.883   0.945  12.242
18953SOL     OW58697   2.665   5.106  10.648
18953SOL    HW158698   2.630   5.075  10.564
18953SOL    HW258699   2.705   5.029  10.687
18954SOL     OW58700  14.404   0.912  11.328
18954SOL    HW158701  14.442   0.888  11.243
18954SOL    HW258702  14.466   0.975  11.364
18955SOL     OW58703  13.522   0.543  13.215
18955SOL    HW158704  13.579   0.467  13.207
18955SOL    HW258705  13.534   0.573  13.305
18956SOL     OW58706   4.314   8.658  14.506
18956SOL    HW158707   4.335   8.746  14.477
18956SOL    HW258708   4.290   8.612  14.425
18957SOL     OW58709   6.773   7.636   0.699
18957SOL    HW158710   6.718   7.586   0.638
18957SOL    HW258711   6.829   7.689   0.643
18958SOL     OW58712   4.658   0.189   0.063
18958SOL    HW158713   4.693   0.164  14.851
18958SOL    HW258714   4.734   0.223   0.110
18959SOL     OW58715  11.012   9.357   8.868
18959SOL    HW158716  10.976   9.382   8.953
18959SOL    HW258717  10.995   9.433   8.812
18960SOL     OW58718   0.340   8.786  10.480
18960SOL    HW158719   0.408   8.763  10.417
18960SOL    HW258720   0.263   8.805  10.427
18961SOL     OW58721   3.225   8.882   3.288
18961SOL    HW158722   3.282   8.827   3.342
18961SOL    HW258723   3.183   8.820   3.228
18962SOL     OW58724  13.750   4.405   6.736
18962SOL    HW158725  13.770   4.375   6.825
18962SOL    HW258726  13.826   4.381   6.685
18963SOL     OW58727   6.110   4.347  11.900
18963SOL    HW158728   6.147   4.344  11.988
18963SOL    HW258729   6.055   4.269  11.894
18964SOL     OW58730  12.790  11.945   3.270
18964SOL    HW158731  12.721  11.926   3.334
18964SOL    HW258732  12.849  11.870   3.277
18965SOL     OW58733   2.843   1.212   3.732
18965SOL    HW158734   2.842   1.254   3.818
18965SOL    HW258735   2.892   1.131   3.745
18966SOL     OW58736   4.872   7.534  14.798
18966SOL    HW158737   4.903   7.625  14.798
18966SOL    HW258738   4.803   7.533  14.731
18967SOL     OW58739   4.139  10.611   9.253
18967SOL    HW158740   4.161  10.704   9.240
18967SOL    HW258741   4.170  10.568   9.173
18968SOL     OW58742   3.904   8.743   7.626
18968SOL    HW158743   3.814   8.715   7.645
18968SOL    HW258744   3.958   8.695   7.688
18969SOL     OW58745   5.971   1.351  14.321
18969SOL    HW158746   5.959   1.377  14.412
18969SOL    HW258747   6.060   1.380  14.299
18970SOL     OW58748   4.749  11.620  12.815
18970SOL    HW158749   4.698  11.695  12.847
18970SOL    HW258750   4.800  11.592  12.891
18971SOL     OW58751   9.598   5.874  12.821
18971SOL    HW158752   9.572   5.926  12.745
18971SOL    HW258753   9.640   5.797  12.784
18972SOL     OW58754   8.637   2.635  12.473
18972SOL    HW158755   8.679   2.549  12.468
18972SOL    HW258756   8.623   2.660  12.382
18973SOL     OW58757   3.698  10.637   6.602
18973SOL    HW158758   3.743  10.555   6.583
18973SOL    HW258759   3.609  10.623   6.570
18974SOL     OW58760   7.847   3.841  13.138
18974SOL    HW158761   7.812   3.869  13.223
18974SOL    HW258762   7.823   3.749  13.131
18975SOL     OW58763   3.454   4.977  11.521
18975SOL    HW158764   3.380   5.017  11.477
18975SOL    HW258765   3.451   5.013  11.610
18976SOL     OW58766   1.836   4.875  13.148
18976SOL    HW158767   1.756   4.843  13.106
18976SOL    HW258768   1.849   4.816  13.222
18977SOL     OW58769   3.883  10.146   9.889
18977SOL    HW158770   3.914  10.097   9.966
18977SOL    HW258771   3.868  10.235   9.922
18978SOL     OW58772  12.753   5.958   6.253
18978SOL    HW158773  12.807   6.025   6.211
18978SOL    HW258774  12.663   5.987   6.239
18979SOL     OW58775   2.379  10.662   7.614
18979SOL    HW158776   2.411  10.580   7.650
18979SOL    HW258777   2.441  10.682   7.543
18980SOL     OW58778  13.333   4.885   5.021
18980SOL    HW158779  13.370   4.898   4.934
18980SOL    HW258780  13.403   4.912   5.081
18981SOL     OW58781   5.987   7.356  14.354
18981SOL    HW158782   5.926   7.395  14.417
18981SOL    HW258783   6.008   7.427  14.293
18982SOL     OW58784  11.755  12.014   0.850
18982SOL    HW158785  11.786  12.062   0.927
18982SOL    HW258786  11.680  12.064   0.819
18983SOL     OW58787   2.622  11.537   1.694
18983SOL    HW158788   2.655  11.627   1.693
18983SOL    HW258789   2.571  11.529   1.613
18984SOL     OW58790   7.013   0.995  14.718
18984SOL    HW158791   7.070   0.937  14.769
18984SOL    HW258792   7.050   0.993  14.630
18985SOL     OW58793  13.020   1.470   7.918
18985SOL    HW158794  13.032   1.452   8.011
18985SOL    HW258795  13.067   1.399   7.873
18986SOL     OW58796  14.520  14.819   8.900
18986SOL    HW158797  14.442  14.763   8.901
18986SOL    HW258798  14.529  14.847   8.809
18987SOL     OW58799   8.106  11.788   3.150
18987SOL    HW158800   8.148  11.783   3.236
18987SOL    HW258801   8.082  11.880   3.140
18988SOL     OW58802   7.173  10.954  13.796
18988SOL    HW158803   7.111  10.882  13.808
18988SOL    HW258804   7.134  11.009  13.728
18989SOL     OW58805   4.035  10.065  14.867
18989SOL    HW158806   4.048  10.133   0.059
18989SOL    HW258807   3.957  10.093  14.819
18990SOL     OW58808   6.137   0.290  12.991
18990SOL    HW158809   6.224   0.327  13.010
18990SOL    HW258810   6.145   0.252  12.904
18991SOL     OW58811  10.421   1.264   9.441
18991SOL    HW158812  10.458   1.177   9.454
18991SOL    HW258813  10.370   1.281   9.520
18992SOL     OW58814  12.267   5.595  12.606
18992SOL    HW158815  12.336   5.658  12.590
18992SOL    HW258816  12.249   5.557  12.520
18993SOL     OW58817   8.420   7.010   2.128
18993SOL    HW158818   8.438   7.089   2.077
18993SOL    HW258819   8.476   6.943   2.089
18994SOL     OW58820  10.451   7.831   4.479
18994SOL    HW158821  10.485   7.851   4.392
18994SOL    HW258822  10.529   7.808   4.530
18995SOL     OW58823   5.915   2.709  10.456
18995SOL    HW158824   5.993   2.671  10.414
18995SOL    HW258825   5.944   2.735  10.543
18996SOL     OW58826  13.570  10.451   5.855
18996SOL    HW158827  13.542  10.412   5.772
18996SOL    HW258828  13.666  10.449   5.852
18997SOL     OW58829   6.050  10.355   0.117
18997SOL    HW158830   6.118  10.420   0.099
18997SOL    HW258831   5.974  10.384   0.065
18998SOL     OW58832   1.022  12.923   7.294
18998SOL    HW158833   0.960  12.855   7.321
18998SOL    HW258834   1.102  12.905   7.343
18999SOL     OW58835   2.369   2.097   6.555
18999SOL    HW158836   2.283   2.081   6.517
18999SOL    HW258837   2.371   2.043   6.634
19000SOL     OW58838  12.681   1.627   0.874
19000SOL    HW158839  12.767   1.596   0.904
19000SOL    HW258840  12.634   1.547   0.851
19001SOL     OW58841   7.908   2.300  10.097
19001SOL    HW158842   7.862   2.243  10.158
19001SOL    HW258843   7.991   2.255  10.081
19002SOL     OW58844  10.473   1.056  14.074
19002SOL    HW158845  10.568   1.065  14.078
19002SOL    HW258846  10.443   1.139  14.037
19003SOL     OW58847   4.010   7.079   7.707
19003SOL    HW158848   4.018   7.017   7.634
19003SOL    HW258849   4.098   7.082   7.745
19004SOL     OW58850   5.694   0.662   1.061
19004SOL    HW158851   5.776   0.619   1.084
19004SOL    HW258852   5.657   0.689   1.145
19005SOL     OW58853   2.231  13.512   5.503
19005SOL    HW158854   2.257  13.580   5.565
19005SOL    HW258855   2.242  13.552   5.417
19006SOL     OW58856  11.704   9.979   7.190
19006SOL    HW158857  11.784   9.928   7.181
19006SOL    HW258858  11.699  10.000   7.283
19007SOL     OW58859  13.610  13.090  12.860
19007SOL    HW158860  13.639  13.033  12.931
19007SOL    HW258861  13.671  13.164  12.862
19008SOL     OW58862   6.774   8.311  10.264
19008SOL    HW158863   6.715   8.235  10.266
19008SOL    HW258864   6.857   8.278  10.300
19009SOL     OW58865  11.241  14.159   2.453
19009SOL    HW158866  11.219  14.134   2.542
19009SOL    HW258867  11.293  14.239   2.462
19010SOL     OW58868   8.757   2.773   2.100
19010SOL    HW158869   8.830   2.711   2.108
19010SOL    HW258870   8.714   2.770   2.185
19011SOL     OW58871   1.792   0.477   9.715
19011SOL    HW158872   1.759   0.425   9.788
19011SOL    HW258873   1.806   0.413   9.645
19012SOL     OW58874  13.567   3.158   5.713
19012SOL    HW158875  13.618   3.228   5.752
19012SOL    HW258876  13.615   3.133   5.634
19013SOL     OW58877   6.788  12.198   0.223
19013SOL    HW158878   6.735  12.136   0.173
19013SOL    HW258879   6.810  12.151   0.304
19014SOL     OW58880   7.938  13.880   5.720
19014SOL    HW158881   7.917  13.868   5.628
19014SOL    HW258882   7.945  13.975   5.732
19015SOL     OW58883   9.823   5.658  12.432
19015SOL    HW158884   9.815   5.739  12.382
19015SOL    HW258885   9.772   5.594  12.382
19016SOL     OW58886   7.420   7.490   0.781
19016SOL    HW158887   7.482   7.421   0.755
19016SOL    HW258888   7.334   7.453   0.760
19017SOL     OW58889   6.991   2.382   3.688
19017SOL    HW158890   7.020   2.350   3.603
19017SOL    HW258891   7.055   2.348   3.750
19018SOL     OW58892  13.641   8.460  12.971
19018SOL    HW158893  13.641   8.522  13.044
19018SOL    HW258894  13.679   8.380  13.006
19019SOL     OW58895   3.250   2.044   1.609
19019SOL    HW158896   3.289   2.094   1.537
19019SOL    HW258897   3.235   2.108   1.678
19020SOL     OW58898   3.221  12.094   5.299
19020SOL    HW158899   3.272  12.175   5.298
19020SOL    HW258900   3.134  12.121   5.271
19021SOL     OW58901   3.027   3.486   6.541
19021SOL    HW158902   3.105   3.459   6.588
19021SOL    HW258903   2.960   3.423   6.568
19022SOL     OW58904  14.540   7.960   0.331
19022SOL    HW158905  14.499   7.889   0.381
19022SOL    HW258906  14.594   7.915   0.266
19023SOL     OW58907   4.622   0.227  13.017
19023SOL    HW158908   4.654   0.256  12.931
19023SOL    HW258909   4.643   0.134  13.020
19024SOL     OW58910   3.801  10.791  13.963
19024SOL    HW158911   3.825  10.793  13.870
19024SOL    HW258912   3.884  10.807  14.009
19025SOL     OW58913   3.266  13.316   5.367
19025SOL    HW158914   3.288  13.380   5.434
19025SOL    HW258915   3.289  13.358   5.284
19026SOL     OW58916  12.692  12.090   4.852
19026SOL    HW158917  12.739  12.080   4.769
19026SOL    HW258918  12.757  12.071   4.919
19027SOL     OW58919   8.007   0.697   9.187
19027SOL    HW158920   7.915   0.691   9.159
19027SOL    HW258921   8.014   0.632   9.257
19028SOL     OW58922   8.854  13.499   5.624
19028SOL    HW158923   8.761  13.515   5.609
19028SOL    HW258924   8.895  13.585   5.614
19029SOL     OW58925   3.329   3.570   2.192
19029SOL    HW158926   3.287   3.537   2.271
19029SOL    HW258927   3.364   3.656   2.217
19030SOL     OW58928   9.256   9.573   8.028
19030SOL    HW158929   9.284   9.660   8.002
19030SOL    HW258930   9.286   9.563   8.119
19031SOL     OW58931  10.504   6.758  12.179
19031SOL    HW158932  10.559   6.835  12.196
19031SOL    HW258933  10.420   6.794  12.152
19032SOL     OW58934  11.436   2.951   8.390
19032SOL    HW158935  11.486   2.987   8.318
19032SOL    HW258936  11.473   2.993   8.468
19033SOL     OW58937   2.368  14.523   9.884
19033SOL    HW158938   2.418  14.595   9.923
19033SOL    HW258939   2.291  14.565   9.847
19034SOL     OW58940   0.202  11.911  13.012
19034SOL    HW158941   0.237  11.823  12.997
19034SOL    HW258942   0.107  11.901  12.997
19035SOL     OW58943   2.106   8.557  12.440
19035SOL    HW158944   2.164   8.566  12.516
19035SOL    HW258945   2.020   8.580  12.473
19036SOL     OW58946  11.799   4.073   7.088
19036SOL    HW158947  11.770   4.026   7.167
19036SOL    HW258948  11.759   4.024   7.016
19037SOL     OW58949   9.645   0.128   0.576
19037SOL    HW158950   9.605   0.141   0.490
19037SOL    HW258951   9.590   0.180   0.635
19038SOL     OW58952  12.163   3.610  11.276
19038SOL    HW158953  12.147   3.516  11.263
19038SOL    HW258954  12.253   3.623  11.245
19039SOL     OW58955  13.220   8.545  14.510
19039SOL    HW158956  13.228   8.484  14.437
19039SOL    HW258957  13.188   8.626  14.471
19040SOL     OW58958   3.842  14.565   9.429
19040SOL    HW158959   3.756  14.600   9.408
19040SOL    HW258960   3.889  14.565   9.346
19041SOL     OW58961  12.699  12.500   5.450
19041SOL    HW158962  12.732  12.559   5.518
19041SOL    HW258963  12.777  12.474   5.400
19042SOL     OW58964  10.844   2.508  11.555
19042SOL    HW158965  10.838   2.451  11.478
19042SOL    HW258966  10.924   2.480  11.599
19043SOL     OW58967  10.547   4.734  12.253
19043SOL    HW158968  10.600   4.782  12.317
19043SOL    HW258969  10.582   4.761  12.168
19044SOL     OW58970  10.725   2.424   2.670
19044SOL    HW158971  10.757   2.503   2.626
19044SOL    HW258972  10.630   2.435   2.672
19045SOL     OW58973   5.786   4.562   1.099
19045SOL    HW158974   5.802   4.548   1.006
19045SOL    HW258975   5.695   4.537   1.112
19046SOL     OW58976   3.100  11.287   4.733
19046SOL    HW158977   3.018  11.246   4.708
19046SOL    HW258978   3.109  11.361   4.672
19047SOL     OW58979   1.489  14.191  10.432
19047SOL    HW158980   1.428  14.253  10.392
19047SOL    HW258981   1.576  14.226  10.411
19048SOL     OW58982  13.629  13.752   4.803
19048SOL    HW158983  13.581  13.681   4.760
19048SOL    HW258984  13.594  13.755   4.892
19049SOL     OW58985   2.660   8.055   3.426
19049SOL    HW158986   2.635   8.140   3.390
19049SOL    HW258987   2.618   7.992   3.367
19050SOL     OW58988   0.993   1.132  13.177
19050SOL    HW158989   1.078   1.095  13.201
19050SOL    HW258990   0.974   1.096  13.090
19051SOL     OW58991  13.290   0.424   7.936
19051SOL    HW158992  13.283   0.329   7.926
19051SOL    HW258993  13.251   0.460   7.856
19052SOL     OW58994   3.258  13.478   8.843
19052SOL    HW158995   3.173  13.472   8.886
19052SOL    HW258996   3.260  13.565   8.804
19053SOL     OW58997   4.602  14.798   7.076
19053SOL    HW158998   4.522  14.823   7.122
19053SOL    HW258999   4.573  14.783   6.985
19054SOL     OW59000   0.401   2.571   9.426
19054SOL    HW159001   0.462   2.617   9.368
19054SOL    HW259002   0.390   2.485   9.386
19055SOL     OW59003   8.559  14.855   0.469
19055SOL    HW159004   8.599  14.772   0.496
19055SOL    HW259005   8.466  14.844   0.488
19056SOL     OW59006  10.001   1.404   4.582
19056SOL    HW159007  10.014   1.407   4.487
19056SOL    HW259008  10.016   1.312   4.605
19057SOL     OW59009   4.414   5.997  13.033
19057SOL    HW159010   4.497   5.978  13.077
19057SOL    HW259011   4.362   6.044  13.098
19058SOL     OW59012  14.821   5.608  10.710
19058SOL    HW159013  14.731   5.584  10.691
19058SOL    HW259014  14.824   5.617  10.806
19059SOL     OW59015   1.308   2.972   8.963
19059SOL    HW159016   1.305   2.880   8.990
19059SOL    HW259017   1.264   2.974   8.879
19060SOL     OW59018   0.702   6.205   6.786
19060SOL    HW159019   0.627   6.248   6.746
19060SOL    HW259020   0.664   6.139   6.844
19061SOL     OW59021   8.993   3.475  11.582
19061SOL    HW159022   8.928   3.432  11.637
19061SOL    HW259023   8.941   3.517  11.513
19062SOL     OW59024  12.645   9.479  12.631
19062SOL    HW159025  12.660   9.396  12.675
19062SOL    HW259026  12.732   9.510  12.606
19063SOL     OW59027   4.219   1.162   6.067
19063SOL    HW159028   4.165   1.161   6.146
19063SOL    HW259029   4.156   1.167   5.995
19064SOL     OW59030  11.953   0.909  13.696
19064SOL    HW159031  11.911   0.939  13.776
19064SOL    HW259032  11.887   0.921  13.628
19065SOL     OW59033   8.849  10.784  13.748
19065SOL    HW159034   8.799  10.753  13.824
19065SOL    HW259035   8.800  10.859  13.716
19066SOL     OW59036   0.907   2.050   4.158
19066SOL    HW159037   0.965   2.126   4.161
19066SOL    HW259038   0.913   2.010   4.245
19067SOL     OW59039  10.652  14.664  14.713
19067SOL    HW159040  10.696  14.688  14.794
19067SOL    HW259041  10.711  14.602  14.670
19068SOL     OW59042   4.296   3.236   8.354
19068SOL    HW159043   4.339   3.277   8.279
19068SOL    HW259044   4.306   3.142   8.339
19069SOL     OW59045   2.740   6.027   3.243
19069SOL    HW159046   2.749   6.078   3.323
19069SOL    HW259047   2.829   6.006   3.217
19070SOL     OW59048   7.283   7.244   7.389
19070SOL    HW159049   7.190   7.224   7.397
19070SOL    HW259050   7.297   7.318   7.449
19071SOL     OW59051  11.501   3.860   2.881
19071SOL    HW159052  11.465   3.878   2.794
19071SOL    HW259053  11.455   3.921   2.939
19072SOL     OW59054   6.212  11.100  11.239
19072SOL    HW159055   6.256  11.025  11.279
19072SOL    HW259056   6.144  11.125  11.302
19073SOL     OW59057   4.361   9.649   3.047
19073SOL    HW159058   4.306   9.664   2.970
19073SOL    HW259059   4.449   9.674   3.018
19074SOL     OW59060   1.554   4.445   1.853
19074SOL    HW159061   1.626   4.469   1.912
19074SOL    HW259062   1.598   4.417   1.772
19075SOL     OW59063   4.818  10.436   5.391
19075SOL    HW159064   4.733  10.433   5.434
19075SOL    HW259065   4.871  10.372   5.438
19076SOL     OW59066   4.740   9.110  13.775
19076SOL    HW159067   4.738   9.076  13.864
19076SOL    HW259068   4.824   9.080  13.740
19077SOL     OW59069   3.562   6.826  11.035
19077SOL    HW159070   3.476   6.862  11.060
19077SOL    HW259071   3.547   6.732  11.025
19078SOL     OW59072  11.781  12.667   6.388
19078SOL    HW159073  11.871  12.699   6.382
19078SOL    HW259074  11.776  12.599   6.321
19079SOL     OW59075   2.286   8.164  14.695
19079SOL    HW159076   2.252   8.075  14.682
19079SOL    HW259077   2.340   8.158  14.773
19080SOL     OW59078   8.036   3.438  12.231
19080SOL    HW159079   8.014   3.389  12.310
19080SOL    HW259080   7.959   3.428  12.174
19081SOL     OW59081  12.645   9.718   1.010
19081SOL    HW159082  12.681   9.744   1.095
19081SOL    HW259083  12.664   9.792   0.952
19082SOL     OW59084   0.138   1.626   5.694
19082SOL    HW159085   0.067   1.663   5.640
19082SOL    HW259086   0.193   1.580   5.632
19083SOL     OW59087  14.354   4.504   0.900
19083SOL    HW159088  14.272   4.553   0.902
19083SOL    HW259089  14.415   4.555   0.953
19084SOL     OW59090   7.934   6.225   9.153
19084SOL    HW159091   7.880   6.241   9.076
19084SOL    HW259092   8.015   6.273   9.136
19085SOL     OW59093  13.355  14.028   8.850
19085SOL    HW159094  13.430  14.067   8.805
19085SOL    HW259095  13.279  14.072   8.814
19086SOL     OW59096  11.406   9.032   5.869
19086SOL    HW159097  11.452   9.035   5.785
19086SOL    HW259098  11.375   8.942   5.876
19087SOL     OW59099  11.485  12.882  10.561
19087SOL    HW159100  11.467  12.800  10.515
19087SOL    HW259101  11.403  12.932  10.555
19088SOL     OW59102   4.606  13.987   7.942
19088SOL    HW159103   4.680  13.979   7.881
19088SOL    HW259104   4.533  13.946   7.896
19089SOL     OW59105   1.899  10.856   1.288
19089SOL    HW159106   1.846  10.925   1.247
19089SOL    HW259107   1.847  10.829   1.364
19090SOL     OW59108  10.272  13.039  11.299
19090SOL    HW159109  10.281  12.944  11.297
19090SOL    HW259110  10.185  13.054  11.335
19091SOL     OW59111   5.258   4.935  10.592
19091SOL    HW159112   5.200   4.997  10.637
19091SOL    HW259113   5.309   4.895  10.662
19092SOL     OW59114  14.788   1.595   3.578
19092SOL    HW159115  14.790   1.512   3.625
19092SOL    HW259116  14.726   1.649   3.628
19093SOL     OW59117   8.544  14.317  11.962
19093SOL    HW159118   8.620  14.372  11.979
19093SOL    HW259119   8.574  14.253  11.898
19094SOL     OW59120  13.732   1.245  10.194
19094SOL    HW159121  13.705   1.160  10.228
19094SOL    HW259122  13.821   1.230  10.162
19095SOL     OW59123  14.649   0.456   5.066
19095SOL    HW159124  14.704   0.413   5.001
19095SOL    HW259125  14.629   0.542   5.028
19096SOL     OW59126  12.965   8.931   8.887
19096SOL    HW159127  13.040   8.892   8.842
19096SOL    HW259128  12.892   8.873   8.868
19097SOL     OW59129  14.121   7.947   5.329
19097SOL    HW159130  14.072   7.910   5.403
19097SOL    HW259131  14.190   7.884   5.312
19098SOL     OW59132   8.120   5.936   5.920
19098SOL    HW159133   8.101   5.936   5.826
19098SOL    HW259134   8.094   5.849   5.950
19099SOL     OW59135  14.373  11.273   5.214
19099SOL    HW159136  14.378  11.256   5.120
19099SOL    HW259137  14.377  11.369   5.222
19100SOL     OW59138   0.187   1.806   0.658
19100SOL    HW159139   0.259   1.814   0.595
19100SOL    HW259140   0.227   1.829   0.742
19101SOL     OW59141   7.601   2.340  14.564
19101SOL    HW159142   7.590   2.412  14.501
19101SOL    HW259143   7.565   2.374  14.646
19102SOL     OW59144   9.792   3.741  10.567
19102SOL    HW159145   9.802   3.820  10.515
19102SOL    HW259146   9.717   3.695  10.529
19103SOL     OW59147   5.745   5.690   8.889
19103SOL    HW159148   5.669   5.739   8.859
19103SOL    HW259149   5.810   5.758   8.908
19104SOL     OW59150   0.249   4.287  13.534
19104SOL    HW159151   0.269   4.380  13.539
19104SOL    HW259152   0.239   4.260  13.626
19105SOL     OW59153   9.519   6.761  12.460
19105SOL    HW159154   9.475   6.738  12.378
19105SOL    HW259155   9.591   6.698  12.467
19106SOL     OW59156  14.357   3.889   5.133
19106SOL    HW159157  14.349   3.942   5.053
19106SOL    HW259158  14.444   3.910   5.166
19107SOL     OW59159  12.158   3.812  12.004
19107SOL    HW159160  12.253   3.829  12.007
19107SOL    HW259161  12.119   3.890  12.044
19108SOL     OW59162  13.194   3.004   8.272
19108SOL    HW159163  13.117   2.951   8.253
19108SOL    HW259164  13.208   2.993   8.367
19109SOL     OW59165   9.292   1.371   5.579
19109SOL    HW159166   9.387   1.382   5.573
19109SOL    HW259167   9.260   1.383   5.490
19110SOL     OW59168   4.505   8.934   6.273
19110SOL    HW159169   4.429   8.924   6.216
19110SOL    HW259170   4.519   8.847   6.310
19111SOL     OW59171   5.071   4.815  13.550
19111SOL    HW159172   5.144   4.791  13.491
19111SOL    HW259173   5.112   4.823  13.636
19112SOL     OW59174   0.080   2.274   3.574
19112SOL    HW159175   0.034   2.290   3.656
19112SOL    HW259176   0.140   2.348   3.565
19113SOL     OW59177   2.011   6.409   8.460
19113SOL    HW159178   2.094   6.405   8.507
19113SOL    HW259179   1.996   6.320   8.429
19114SOL     OW59180   0.087  10.291   4.752
19114SOL    HW159181   0.036  10.213   4.734
19114SOL    HW259182   0.160  10.288   4.690
19115SOL     OW59183   9.971   6.216   1.710
19115SOL    HW159184  10.042   6.206   1.647
19115SOL    HW259185   9.919   6.136   1.700
19116SOL     OW59186  12.568  14.098  11.426
19116SOL    HW159187  12.600  14.022  11.377
19116SOL    HW259188  12.606  14.173  11.381
19117SOL     OW59189   1.998  11.710   1.527
19117SOL    HW159190   1.927  11.712   1.591
19117SOL    HW259191   1.979  11.633   1.472
19118SOL     OW59192   3.826  13.377   0.522
19118SOL    HW159193   3.816  13.368   0.617
19118SOL    HW259194   3.790  13.463   0.502
19119SOL     OW59195  10.652   2.833   5.587
19119SOL    HW159196  10.651   2.857   5.494
19119SOL    HW259197  10.727   2.881   5.623
19120SOL     OW59198   0.533   2.541   7.080
19120SOL    HW159199   0.500   2.451   7.093
19120SOL    HW259200   0.626   2.536   7.101
19121SOL     OW59201   6.917   5.953   0.225
19121SOL    HW159202   6.981   5.999   0.170
19121SOL    HW259203   6.854   5.917   0.163
19122SOL     OW59204  13.067   6.362   6.402
19122SOL    HW159205  13.117   6.283   6.381
19122SOL    HW259206  12.988   6.355   6.348
19123SOL     OW59207   5.719   1.286   0.422
19123SOL    HW159208   5.698   1.310   0.332
19123SOL    HW259209   5.663   1.343   0.475
19124SOL     OW59210   2.926  11.212   6.404
19124SOL    HW159211   2.956  11.121   6.395
19124SOL    HW259212   2.978  11.261   6.341
19125SOL     OW59213  12.548   9.937   7.990
19125SOL    HW159214  12.633   9.968   8.022
19125SOL    HW259215  12.494  10.016   7.985
19126SOL     OW59216   3.795   1.895   7.405
19126SOL    HW159217   3.750   1.887   7.489
19126SOL    HW259218   3.764   1.979   7.370
19127SOL     OW59219   1.575   3.584   7.191
19127SOL    HW159220   1.542   3.503   7.230
19127SOL    HW259221   1.600   3.638   7.266
19128SOL     OW59222   7.907  10.368  13.699
19128SOL    HW159223   7.966  10.441  13.719
19128SOL    HW259224   7.855  10.357  13.779
19129SOL     OW59225  12.684   2.623   7.044
19129SOL    HW159226  12.645   2.536   7.033
19129SOL    HW259227  12.612   2.683   7.029
19130SOL     OW59228   4.457   4.177   1.233
19130SOL    HW159229   4.491   4.106   1.288
19130SOL    HW259230   4.536   4.222   1.202
19131SOL     OW59231   0.173  11.181  10.531
19131SOL    HW159232   0.183  11.098  10.578
19131SOL    HW259233   0.103  11.226  10.578
19132SOL     OW59234   9.525   1.513  13.897
19132SOL    HW159235   9.494   1.446  13.836
19132SOL    HW259236   9.523   1.594  13.847
19133SOL     OW59237  11.812   6.915  14.249
19133SOL    HW159238  11.795   6.905  14.342
19133SOL    HW259239  11.775   7.000  14.226
19134SOL     OW59240   1.502   7.628   6.406
19134SOL    HW159241   1.461   7.672   6.481
19134SOL    HW259242   1.589   7.605   6.437
19135SOL     OW59243   3.228   6.438  14.160
19135SOL    HW159244   3.235   6.506  14.093
19135SOL    HW259245   3.307   6.385  14.147
19136SOL     OW59246   5.478  14.755  14.122
19136SOL    HW159247   5.561  14.726  14.160
19136SOL    HW259248   5.417  14.757  14.196
19137SOL     OW59249   5.631  10.583   9.334
19137SOL    HW159250   5.667  10.505   9.375
19137SOL    HW259251   5.705  10.645   9.332
19138SOL     OW59252   0.834  14.740   7.953
19138SOL    HW159253   0.743  14.769   7.941
19138SOL    HW259254   0.857  14.771   8.041
19139SOL     OW59255   9.027   2.355   5.124
19139SOL    HW159256   9.034   2.270   5.167
19139SOL    HW259257   8.950   2.396   5.163
19140SOL     OW59258  12.547  14.452   5.037
19140SOL    HW159259  12.458  14.449   5.071
19140SOL    HW259260  12.583  14.365   5.053
19141SOL     OW59261   5.856  14.511   3.071
19141SOL    HW159262   5.914  14.585   3.084
19141SOL    HW259263   5.879  14.476   2.985
19142SOL     OW59264   4.702   8.881  10.697
19142SOL    HW159265   4.744   8.949  10.644
19142SOL    HW259266   4.657   8.825  10.633
19143SOL     OW59267   3.673  10.826  12.337
19143SOL    HW159268   3.670  10.731  12.340
19143SOL    HW259269   3.596  10.854  12.386
19144SOL     OW59270   5.335   2.150   6.128
19144SOL    HW159271   5.415   2.203   6.133
19144SOL    HW259272   5.363   2.067   6.091
19145SOL     OW59273   9.808  12.612  10.037
19145SOL    HW159274   9.875  12.643   9.976
19145SOL    HW259275   9.802  12.682  10.103
19146SOL     OW59276  10.354  10.324  11.675
19146SOL    HW159277  10.408  10.283  11.743
19146SOL    HW259278  10.267  10.287  11.687
19147SOL     OW59279   6.029   4.531  10.870
19147SOL    HW159280   5.983   4.602  10.914
19147SOL    HW259281   5.969   4.456  10.875
19148SOL     OW59282   0.204  14.699   2.223
19148SOL    HW159283   0.137  14.670   2.286
19148SOL    HW259284   0.285  14.702   2.274
19149SOL     OW59285  13.763   9.947   6.949
19149SOL    HW159286  13.781  10.031   6.991
19149SOL    HW259287  13.742   9.969   6.858
19150SOL     OW59288   8.026   8.886  14.673
19150SOL    HW159289   7.970   8.937  14.615
19150SOL    HW259290   7.994   8.906  14.761
19151SOL     OW59291   5.131   3.223  13.462
19151SOL    HW159292   5.104   3.132  13.469
19151SOL    HW259293   5.063   3.265  13.410
19152SOL     OW59294  12.592   0.873  11.768
19152SOL    HW159295  12.577   0.958  11.809
19152SOL    HW259296  12.561   0.809  11.833
19153SOL     OW59297   3.498   0.179   1.040
19153SOL    HW159298   3.467   0.222   1.120
19153SOL    HW259299   3.438   0.207   0.972
19154SOL     OW59300  14.247   7.490   9.549
19154SOL    HW159301  14.342   7.483   9.559
19154SOL    HW259302  14.217   7.524   9.634
19155SOL     OW59303   8.783  10.081   0.102
19155SOL    HW159304   8.858  10.096   0.160
19155SOL    HW259305   8.814  10.109   0.016
19156SOL     OW59306   1.603   8.739  12.720
19156SOL    HW159307   1.593   8.644  12.725
19156SOL    HW259308   1.598   8.759  12.626
19157SOL     OW59309  10.005  10.335  12.099
19157SOL    HW159310   9.953  10.415  12.100
19157SOL    HW259311   9.962  10.278  12.035
19158SOL     OW59312   8.150   2.493   4.405
19158SOL    HW159313   8.208   2.459   4.473
19158SOL    HW259314   8.183   2.581   4.387
19159SOL     OW59315   9.363   9.189   4.629
19159SOL    HW159316   9.323   9.157   4.710
19159SOL    HW259317   9.323   9.135   4.560
19160SOL     OW59318   8.939   0.994   0.629
19160SOL    HW159319   8.993   0.920   0.655
19160SOL    HW259320   8.916   0.977   0.538
19161SOL     OW59321   1.801   8.992  11.265
19161SOL    HW159322   1.720   8.952  11.235
19161SOL    HW259323   1.775   9.050  11.336
19162SOL     OW59324   0.537  11.480   1.083
19162SOL    HW159325   0.443  11.460   1.077
19162SOL    HW259326   0.558  11.522   1.000
19163SOL     OW59327   0.957  11.284   4.923
19163SOL    HW159328   0.961  11.306   4.830
19163SOL    HW259329   0.973  11.190   4.926
19164SOL     OW59330   6.985   0.790   9.104
19164SOL    HW159331   6.997   0.858   9.038
19164SOL    HW259332   7.073   0.755   9.118
19165SOL     OW59333   9.702   9.162  11.069
19165SOL    HW159334   9.620   9.186  11.110
19165SOL    HW259335   9.746   9.106  11.133
19166SOL     OW59336  13.645   5.091   5.269
19166SOL    HW159337  13.637   4.998   5.291
19166SOL    HW259338  13.555   5.119   5.252
19167SOL     OW59339   4.320  14.360   3.887
19167SOL    HW159340   4.303  14.400   3.972
19167SOL    HW259341   4.391  14.412   3.849
19168SOL     OW59342  12.720  13.438   4.089
19168SOL    HW159343  12.685  13.525   4.109
19168SOL    HW259344  12.731  13.397   4.174
19169SOL     OW59345   7.750   4.078   4.229
19169SOL    HW159346   7.716   4.011   4.288
19169SOL    HW259347   7.672   4.127   4.201
19170SOL     OW59348  10.828   9.187  10.199
19170SOL    HW159349  10.765   9.129  10.241
19170SOL    HW259350  10.805   9.275  10.231
19171SOL     OW59351   9.135  11.071   1.903
19171SOL    HW159352   9.081  10.992   1.904
19171SOL    HW259353   9.145  11.092   1.811
19172SOL     OW59354  10.698   0.314   4.612
19172SOL    HW159355  10.626   0.299   4.551
19172SOL    HW259356  10.658   0.361   4.685
19173SOL     OW59357   1.662  12.126   8.603
19173SOL    HW159358   1.607  12.126   8.681
19173SOL    HW259359   1.625  12.056   8.548
19174SOL     OW59360   3.029   7.464   7.482
19174SOL    HW159361   2.955   7.492   7.427
19174SOL    HW259362   3.035   7.369   7.468
19175SOL     OW59363  10.743   9.308  12.969
19175SOL    HW159364  10.836   9.330  12.976
19175SOL    HW259365  10.699   9.369  13.027
19176SOL     OW59366   4.482  11.052   4.976
19176SOL    HW159367   4.557  11.069   5.033
19176SOL    HW259368   4.519  11.005   4.901
19177SOL     OW59369   1.409   6.276   0.877
19177SOL    HW159370   1.346   6.217   0.836
19177SOL    HW259371   1.435   6.336   0.807
19178SOL     OW59372   7.966   4.017   1.661
19178SOL    HW159373   8.023   3.941   1.667
19178SOL    HW259374   7.971   4.044   1.570
19179SOL     OW59375  14.267   0.724   3.802
19179SOL    HW159376  14.245   0.727   3.895
19179SOL    HW259377  14.349   0.675   3.799
19180SOL     OW59378  13.722   3.505   3.006
19180SOL    HW159379  13.790   3.447   3.040
19180SOL    HW259380  13.680   3.455   2.936
19181SOL     OW59381   2.087  14.408   8.142
19181SOL    HW159382   2.109  14.359   8.062
19181SOL    HW259383   2.167  14.407   8.194
19182SOL     OW59384   6.245   1.623  11.884
19182SOL    HW159385   6.269   1.702  11.835
19182SOL    HW259386   6.310   1.558  11.856
19183SOL     OW59387   4.528  11.738   4.245
19183SOL    HW159388   4.539  11.832   4.231
19183SOL    HW259389   4.456  11.731   4.308
19184SOL     OW59390   1.849   1.057  10.967
19184SOL    HW159391   1.890   1.125  10.914
19184SOL    HW259392   1.868   1.082  11.057
19185SOL     OW59393   6.092   6.400   4.243
19185SOL    HW159394   6.124   6.315   4.274
19185SOL    HW259395   6.011   6.379   4.196
19186SOL     OW59396   9.873   8.617  11.277
19186SOL    HW159397   9.814   8.683  11.314
19186SOL    HW259398   9.894   8.651  11.190
19187SOL     OW59399   3.572  12.555   0.018
19187SOL    HW159400   3.565  12.544  14.797
19187SOL    HW259401   3.603  12.645   0.029
19188SOL     OW59402   4.869   7.096   5.644
19188SOL    HW159403   4.920   7.105   5.725
19188SOL    HW259404   4.877   7.003   5.622
19189SOL     OW59405   0.785   7.273   8.745
19189SOL    HW159406   0.866   7.323   8.738
19189SOL    HW259407   0.762   7.278   8.838
19190SOL     OW59408  12.232  12.301  12.957
19190SOL    HW159409  12.268  12.377  12.910
19190SOL    HW259410  12.278  12.301  13.041
19191SOL     OW59411  13.768  14.020  10.363
19191SOL    HW159412  13.793  13.928  10.357
19191SOL    HW259413  13.851  14.067  10.365
19192SOL     OW59414  14.197  10.619  13.231
19192SOL    HW159415  14.205  10.585  13.142
19192SOL    HW259416  14.183  10.541  13.285
19193SOL     OW59417   7.912  14.130  13.865
19193SOL    HW159418   7.932  14.177  13.784
19193SOL    HW259419   7.993  14.131  13.915
19194SOL     OW59420   3.359   4.916  14.376
19194SOL    HW159421   3.351   4.847  14.443
19194SOL    HW259422   3.270   4.949  14.365
19195SOL     OW59423  10.164  10.860   5.190
19195SOL    HW159424  10.195  10.869   5.100
19195SOL    HW259425  10.242  10.841   5.241
19196SOL     OW59426   0.128  10.906   8.404
19196SOL    HW159427   0.202  10.853   8.433
19196SOL    HW259428   0.168  10.977   8.353
19197SOL     OW59429  12.846   5.159   6.382
19197SOL    HW159430  12.826   5.077   6.338
19197SOL    HW259431  12.828   5.227   6.317
19198SOL     OW59432  11.260   3.741   2.689
19198SOL    HW159433  11.231   3.824   2.728
19198SOL    HW259434  11.354   3.752   2.677
19199SOL     OW59435   6.445   8.496   7.031
19199SOL    HW159436   6.416   8.521   7.119
19199SOL    HW259437   6.376   8.438   6.998
19200SOL     OW59438   7.968  10.395   0.382
19200SOL    HW159439   7.990  10.431   0.296
19200SOL    HW259440   7.982  10.467   0.443
19201SOL     OW59441  14.593  12.474   5.047
19201SOL    HW159442  14.663  12.428   5.000
19201SOL    HW259443  14.598  12.441   5.136
19202SOL     OW59444   1.083   6.254   9.619
19202SOL    HW159445   1.012   6.192   9.607
19202SOL    HW259446   1.050   6.336   9.583
19203SOL     OW59447   1.307  12.783   7.922
19203SOL    HW159448   1.317  12.859   7.866
19203SOL    HW259449   1.235  12.805   7.980
19204SOL     OW59450   8.288   9.087  13.755
19204SOL    HW159451   8.326   9.017  13.809
19204SOL    HW259452   8.300   9.057  13.665
19205SOL     OW59453  14.193   9.089   9.747
19205SOL    HW159454  14.210   9.022   9.681
19205SOL    HW259455  14.105   9.067   9.780
19206SOL     OW59456  13.855   5.941   7.204
19206SOL    HW159457  13.852   5.926   7.298
19206SOL    HW259458  13.887   5.858   7.167
19207SOL     OW59459   4.280   6.839   2.926
19207SOL    HW159460   4.284   6.931   2.901
19207SOL    HW259461   4.348   6.829   2.992
19208SOL     OW59462   7.668   7.961   3.873
19208SOL    HW159463   7.693   7.931   3.961
19208SOL    HW259464   7.717   8.042   3.860
19209SOL     OW59465   2.283   2.918   1.515
19209SOL    HW159466   2.338   2.904   1.437
19209SOL    HW259467   2.240   2.833   1.529
19210SOL     OW59468   2.632  10.981   8.528
19210SOL    HW159469   2.621  10.995   8.622
19210SOL    HW259470   2.650  10.887   8.519
19211SOL     OW59471  11.203  14.101   7.516
19211SOL    HW159472  11.286  14.101   7.469
19211SOL    HW259473  11.225  14.074   7.605
19212SOL     OW59474   8.336   3.520   4.560
19212SOL    HW159475   8.258   3.477   4.524
19212SOL    HW259476   8.409   3.468   4.527
19213SOL     OW59477  13.838   3.540  14.626
19213SOL    HW159478  13.784   3.507  14.554
19213SOL    HW259479  13.883   3.463  14.660
19214SOL     OW59480   9.799   8.732   9.451
19214SOL    HW159481   9.781   8.643   9.483
19214SOL    HW259482   9.715   8.762   9.417
19215SOL     OW59483  14.392   5.527   0.070
19215SOL    HW159484  14.327   5.564   0.129
19215SOL    HW259485  14.436   5.460   0.123
19216SOL     OW59486  14.282   5.105   7.032
19216SOL    HW159487  14.273   5.138   6.942
19216SOL    HW259488  14.337   5.170   7.076
19217SOL     OW59489   0.680   6.042   3.561
19217SOL    HW159490   0.598   6.048   3.512
19217SOL    HW259491   0.733   5.979   3.512
19218SOL     OW59492   7.917  11.101  12.050
19218SOL    HW159493   7.910  11.154  11.971
19218SOL    HW259494   8.007  11.067  12.049
19219SOL     OW59495   1.293   3.389   2.106
19219SOL    HW159496   1.296   3.482   2.084
19219SOL    HW259497   1.277   3.345   2.022
19220SOL     OW59498   2.155  10.550   2.603
19220SOL    HW159499   2.241  10.582   2.631
19220SOL    HW259500   2.095  10.581   2.672
19221SOL     OW59501   7.123   1.166  12.144
19221SOL    HW159502   7.086   1.120  12.219
19221SOL    HW259503   7.202   1.209  12.178
19222SOL     OW59504   8.440   5.974   2.668
19222SOL    HW159505   8.505   5.913   2.633
19222SOL    HW259506   8.435   5.953   2.761
19223SOL     OW59507   6.734   5.642   2.650
19223SOL    HW159508   6.685   5.619   2.729
19223SOL    HW259509   6.676   5.618   2.578
19224SOL     OW59510   1.490   4.488   5.582
19224SOL    HW159511   1.567   4.524   5.538
19224SOL    HW259512   1.497   4.393   5.569
19225SOL     OW59513   1.491  10.458   3.843
19225SOL    HW159514   1.404  10.441   3.808
19225SOL    HW259515   1.501  10.553   3.837
19226SOL     OW59516   9.200   0.756   9.161
19226SOL    HW159517   9.223   0.846   9.185
19226SOL    HW259518   9.126   0.766   9.101
19227SOL     OW59519   3.684  13.780  13.687
19227SOL    HW159520   3.606  13.759  13.635
19227SOL    HW259521   3.757  13.760  13.630
19228SOL     OW59522   5.509   6.769  10.875
19228SOL    HW159523   5.551   6.852  10.851
19228SOL    HW259524   5.462   6.789  10.956
19229SOL     OW59525  13.355   2.803  14.159
19229SOL    HW159526  13.445   2.774  14.143
19229SOL    HW259527  13.303   2.723  14.159
19230SOL     OW59528  11.123  12.947   2.446
19230SOL    HW159529  11.045  12.912   2.402
19230SOL    HW259530  11.090  13.022   2.496
19231SOL     OW59531  14.392   0.842   0.965
19231SOL    HW159532  14.433   0.856   1.050
19231SOL    HW259533  14.454   0.788   0.917
19232SOL     OW59534   6.509   8.984  10.920
19232SOL    HW159535   6.425   8.972  10.964
19232SOL    HW259536   6.541   8.895  10.905
19233SOL     OW59537   5.941  11.162   4.005
19233SOL    HW159538   5.875  11.093   4.007
19233SOL    HW259539   6.013  11.128   4.057
19234SOL     OW59540   9.622  12.265   7.098
19234SOL    HW159541   9.570  12.344   7.115
19234SOL    HW259542   9.695  12.295   7.044
19235SOL     OW59543   3.101  12.891   8.001
19235SOL    HW159544   3.170  12.952   7.974
19235SOL    HW259545   3.085  12.911   8.093
19236SOL     OW59546   6.177   4.825   5.039
19236SOL    HW159547   6.089   4.799   5.012
19236SOL    HW259548   6.165   4.860   5.128
19237SOL     OW59549   3.864   8.769   5.212
19237SOL    HW159550   3.860   8.864   5.203
19237SOL    HW259551   3.927   8.754   5.282
19238SOL     OW59552   2.680   5.677   2.860
19238SOL    HW159553   2.587   5.663   2.873
19238SOL    HW259554   2.699   5.758   2.908
19239SOL     OW59555   4.268   2.427   6.078
19239SOL    HW159556   4.262   2.339   6.042
19239SOL    HW259557   4.336   2.470   6.027
19240SOL     OW59558   5.978   8.065  13.075
19240SOL    HW159559   5.908   8.130  13.067
19240SOL    HW259560   6.011   8.054  12.986
19241SOL     OW59561   5.764   1.524   9.277
19241SOL    HW159562   5.814   1.454   9.234
19241SOL    HW259563   5.829   1.593   9.293
19242SOL     OW59564   3.712   9.959   1.951
19242SOL    HW159565   3.635   9.976   2.005
19242SOL    HW259566   3.731  10.042   1.908
19243SOL     OW59567  11.490  11.296   1.221
19243SOL    HW159568  11.427  11.312   1.151
19243SOL    HW259569  11.574  11.322   1.183
19244SOL     OW59570  12.799   2.361  13.957
19244SOL    HW159571  12.808   2.453  13.932
19244SOL    HW259572  12.723   2.359  14.015
19245SOL     OW59573  14.457   7.900   4.861
19245SOL    HW159574  14.467   7.928   4.952
19245SOL    HW259575  14.501   7.815   4.858
19246SOL     OW59576   4.389  11.234   9.424
19246SOL    HW159577   4.358  11.282   9.501
19246SOL    HW259578   4.399  11.301   9.356
19247SOL     OW59579   0.724   0.352  14.355
19247SOL    HW159580   0.815   0.366  14.332
19247SOL    HW259581   0.700   0.428  14.409
19248SOL     OW59582   2.300   1.309  12.476
19248SOL    HW159583   2.347   1.240  12.523
19248SOL    HW259584   2.328   1.390  12.518
19249SOL     OW59585  11.494   4.820   0.358
19249SOL    HW159586  11.442   4.856   0.286
19249SOL    HW259587  11.585   4.833   0.331
19250SOL     OW59588  12.259  10.726   9.671
19250SOL    HW159589  12.187  10.787   9.657
19250SOL    HW259590  12.240  10.653   9.612
19251SOL     OW59591   6.668  14.115   4.759
19251SOL    HW159592   6.661  14.070   4.844
19251SOL    HW259593   6.761  14.131   4.748
19252SOL     OW59594   0.785   7.399   9.350
19252SOL    HW159595   0.858   7.432   9.403
19252SOL    HW259596   0.826   7.363   9.272
19253SOL     OW59597   1.500   3.974   8.568
19253SOL    HW159598   1.577   3.962   8.625
19253SOL    HW259599   1.468   3.885   8.553
19254SOL     OW59600  12.230  14.652   3.110
19254SOL    HW159601  12.285  14.630   3.185
19254SOL    HW259602  12.200  14.568   3.076
19255SOL     OW59603  13.753  12.761  11.188
19255SOL    HW159604  13.839  12.719  11.197
19255SOL    HW259605  13.767  12.830  11.123
19256SOL     OW59606   7.576   5.369   2.816
19256SOL    HW159607   7.621   5.446   2.781
19256SOL    HW259608   7.645   5.316   2.854
19257SOL     OW59609   0.791   7.109   3.434
19257SOL    HW159610   0.700   7.108   3.465
19257SOL    HW259611   0.800   7.194   3.391
19258SOL     OW59612   4.782   7.862  10.363
19258SOL    HW159613   4.875   7.885  10.363
19258SOL    HW259614   4.736   7.944  10.382
19259SOL     OW59615   0.606   2.147  14.229
19259SOL    HW159616   0.663   2.195  14.168
19259SOL    HW259617   0.640   2.169  14.316
19260SOL     OW59618   1.500  10.411   5.010
19260SOL    HW159619   1.424  10.404   5.067
19260SOL    HW259620   1.570  10.366   5.056
19261SOL     OW59621   4.561  10.526  10.552
19261SOL    HW159622   4.508  10.473  10.492
19261SOL    HW259623   4.595  10.463  10.615
19262SOL     OW59624   6.410  13.495   4.405
19262SOL    HW159625   6.374  13.437   4.472
19262SOL    HW259626   6.485  13.537   4.448
19263SOL     OW59627   0.559   0.674   7.127
19263SOL    HW159628   0.485   0.719   7.086
19263SOL    HW259629   0.559   0.705   7.218
19264SOL     OW59630   6.729  14.264   4.495
19264SOL    HW159631   6.657  14.219   4.451
19264SOL    HW259632   6.707  14.260   4.588
19265SOL     OW59633  14.258   9.339   1.102
19265SOL    HW159634  14.191   9.356   1.168
19265SOL    HW259635  14.258   9.243   1.093
19266SOL     OW59636  13.355   0.507  11.089
19266SOL    HW159637  13.432   0.481  11.139
19266SOL    HW259638  13.292   0.535  11.155
19267SOL     OW59639   2.532   3.939   7.118
19267SOL    HW159640   2.561   3.937   7.027
19267SOL    HW259641   2.541   4.030   7.145
19268SOL     OW59642   2.914  12.350  13.181
19268SOL    HW159643   2.893  12.372  13.272
19268SOL    HW259644   2.860  12.273  13.163
19269SOL     OW59645   8.254   0.493  12.812
19269SOL    HW159646   8.281   0.584  12.825
19269SOL    HW259647   8.319   0.455  12.753
19270SOL     OW59648   3.573   0.797   4.474
19270SOL    HW159649   3.505   0.824   4.536
19270SOL    HW259650   3.654   0.834   4.509
19271SOL     OW59651  10.787  14.050   4.978
19271SOL    HW159652  10.824  13.968   5.011
19271SOL    HW259653  10.771  14.033   4.885
19272SOL     OW59654   1.965   5.433   6.148
19272SOL    HW159655   2.022   5.459   6.220
19272SOL    HW259656   1.972   5.504   6.085
19273SOL     OW59657  13.819   7.416   6.471
19273SOL    HW159658  13.745   7.443   6.415
19273SOL    HW259659  13.862   7.499   6.494
19274SOL     OW59660  10.056   5.422   7.736
19274SOL    HW159661  10.008   5.483   7.679
19274SOL    HW259662  10.033   5.335   7.703
19275SOL     OW59663   0.061  10.586   2.721
19275SOL    HW159664   0.129  10.519   2.731
19275SOL    HW259665   0.017  10.563   2.640
19276SOL     OW59666   6.256   4.801   9.661
19276SOL    HW159667   6.227   4.869   9.722
19276SOL    HW259668   6.290   4.850   9.586
19277SOL     OW59669   6.388   8.324   8.040
19277SOL    HW159670   6.438   8.295   8.116
19277SOL    HW259671   6.410   8.261   7.972
19278SOL     OW59672   9.162  13.582   0.933
19278SOL    HW159673   9.230  13.597   0.868
19278SOL    HW259674   9.166  13.488   0.951
19279SOL     OW59675  14.421   3.993  14.435
19279SOL    HW159676  14.492   4.010  14.373
19279SOL    HW259677  14.435   4.056  14.505
19280SOL     OW59678   0.219  12.216   0.553
19280SOL    HW159679   0.295  12.200   0.609
19280SOL    HW259680   0.238  12.300   0.511
19281SOL     OW59681  13.500   7.121   4.669
19281SOL    HW159682  13.567   7.170   4.621
19281SOL    HW259683  13.530   7.123   4.760
19282SOL     OW59684   1.361  14.568   6.654
19282SOL    HW159685   1.406  14.498   6.606
19282SOL    HW259686   1.371  14.645   6.597
19283SOL     OW59687   3.215   8.779   1.645
19283SOL    HW159688   3.145   8.799   1.707
19283SOL    HW259689   3.200   8.840   1.572
19284SOL     OW59690   8.087   8.537  11.985
19284SOL    HW159691   8.002   8.545  11.943
19284SOL    HW259692   8.114   8.447  11.970
19285SOL     OW59693  11.804   5.972   8.384
19285SOL    HW159694  11.781   6.061   8.358
19285SOL    HW259695  11.785   5.918   8.307
19286SOL     OW59696   6.663   2.299  11.756
19286SOL    HW159697   6.660   2.233  11.687
19286SOL    HW259698   6.607   2.264  11.825
19287SOL     OW59699   4.831  13.433   4.101
19287SOL    HW159700   4.836  13.523   4.070
19287SOL    HW259701   4.785  13.386   4.031
19288SOL     OW59702  13.954   3.277   7.210
19288SOL    HW159703  13.964   3.367   7.239
19288SOL    HW259704  13.921   3.284   7.120
19289SOL     OW59705   0.011   1.118   9.218
19289SOL    HW159706   0.080   1.146   9.279
19289SOL    HW259707  14.824   1.068   9.273
19290SOL     OW59708   2.704  10.909   4.436
19290SOL    HW159709   2.794  10.890   4.463
19290SOL    HW259710   2.701  10.883   4.344
19291SOL     OW59711   5.534   5.819   3.835
19291SOL    HW159712   5.610   5.767   3.810
19291SOL    HW259713   5.481   5.825   3.756
19292SOL     OW59714   7.259   0.390  13.150
19292SOL    HW159715   7.226   0.449  13.218
19292SOL    HW259716   7.205   0.410  13.074
19293SOL     OW59717  14.226  13.346  13.406
19293SOL    HW159718  14.320  13.327  13.412
19293SOL    HW259719  14.195  13.343  13.496
19294SOL     OW59720   3.281  14.725  14.072
19294SOL    HW159721   3.307  14.693  13.986
19294SOL    HW259722   3.361  14.759  14.111
19295SOL     OW59723  10.443   6.943  11.145
19295SOL    HW159724  10.426   6.947  11.239
19295SOL    HW259725  10.538   6.941  11.138
19296SOL     OW59726   5.381   8.939   2.768
19296SOL    HW159727   5.359   8.865   2.824
19296SOL    HW259728   5.407   9.009   2.828
19297SOL     OW59729  11.985   5.890   3.114
19297SOL    HW159730  11.890   5.901   3.107
19297SOL    HW259731  11.999   5.865   3.206
19298SOL     OW59732   1.546  10.621   4.609
19298SOL    HW159733   1.541  10.548   4.671
19298SOL    HW259734   1.495  10.592   4.534
19299SOL     OW59735   1.446  13.286   4.302
19299SOL    HW159736   1.513  13.220   4.317
19299SOL    HW259737   1.469  13.326   4.218
19300SOL     OW59738  12.682  10.225   2.880
19300SOL    HW159739  12.731  10.299   2.916
19300SOL    HW259740  12.633  10.262   2.807
19301SOL     OW59741   5.389   4.506  12.955
19301SOL    HW159742   5.454   4.533  12.889
19301SOL    HW259743   5.339   4.586  12.972
19302SOL     OW59744   6.422  10.759   2.678
19302SOL    HW159745   6.497  10.802   2.720
19302SOL    HW259746   6.356  10.753   2.747
19303SOL     OW59747   9.115  11.245   8.326
19303SOL    HW159748   9.043  11.201   8.371
19303SOL    HW259749   9.123  11.198   8.243
19304SOL     OW59750  14.545   9.098  13.298
19304SOL    HW159751  14.604   9.104  13.373
19304SOL    HW259752  14.586   9.033  13.240
19305SOL     OW59753  11.337   8.292   4.141
19305SOL    HW159754  11.391   8.343   4.081
19305SOL    HW259755  11.398   8.263   4.209
19306SOL     OW59756  10.961   9.745   0.607
19306SOL    HW159757  10.910   9.773   0.683
19306SOL    HW259758  11.037   9.700   0.644
19307SOL     OW59759   1.077   4.401  12.343
19307SOL    HW159760   1.011   4.456  12.300
19307SOL    HW259761   1.125   4.361  12.270
19308SOL     OW59762   9.631   4.623   7.559
19308SOL    HW159763   9.579   4.693   7.518
19308SOL    HW259764   9.717   4.663   7.575
19309SOL     OW59765  10.810   8.449   5.698
19309SOL    HW159766  10.771   8.529   5.732
19309SOL    HW259767  10.740   8.407   5.649
19310SOL     OW59768   5.274   1.236   6.254
19310SOL    HW159769   5.181   1.248   6.237
19310SOL    HW259770   5.313   1.219   6.169
19311SOL     OW59771  11.694   0.521   7.530
19311SOL    HW159772  11.602   0.543   7.545
19311SOL    HW259773  11.699   0.426   7.539
19312SOL     OW59774   6.999   4.692   1.299
19312SOL    HW159775   7.014   4.626   1.231
19312SOL    HW259776   7.055   4.665   1.371
19313SOL     OW59777  12.828  13.737   9.907
19313SOL    HW159778  12.756  13.679   9.934
19313SOL    HW259779  12.792  13.788   9.835
19314SOL     OW59780   5.894   1.404   0.714
19314SOL    HW159781   5.834   1.340   0.675
19314SOL    HW259782   5.981   1.369   0.698
19315SOL     OW59783  11.607   6.204  10.809
19315SOL    HW159784  11.618   6.147  10.886
19315SOL    HW259785  11.538   6.163  10.758
19316SOL     OW59786   0.162  14.794  11.002
19316SOL    HW159787   0.114  14.767  10.924
19316SOL    HW259788   0.095  14.804  11.069
19317SOL     OW59789  13.748   0.596  11.936
19317SOL    HW159790  13.698   0.537  11.881
19317SOL    HW259791  13.734   0.564  12.025
19318SOL     OW59792   8.040   0.443  10.046
19318SOL    HW159793   8.082   0.490   9.973
19318SOL    HW259794   7.947   0.456  10.032
19319SOL     OW59795   0.374   5.764   9.488
19319SOL    HW159796   0.461   5.803   9.494
19319SOL    HW259797   0.341   5.765   9.578
19320SOL     OW59798  10.796  11.108   2.334
19320SOL    HW159799  10.847  11.163   2.394
19320SOL    HW259800  10.729  11.167   2.299
19321SOL     OW59801   4.192   2.194   5.971
19321SOL    HW159802   4.206   2.131   5.901
19321SOL    HW259803   4.123   2.252   5.939
19322SOL     OW59804  10.753   4.539   3.238
19322SOL    HW159805  10.763   4.611   3.175
19322SOL    HW259806  10.842   4.507   3.252
19323SOL     OW59807  10.122   4.715  14.418
19323SOL    HW159808  10.202   4.761  14.443
19323SOL    HW259809  10.055   4.751  14.475
19324SOL     OW59810   4.363   7.376  11.079
19324SOL    HW159811   4.455   7.387  11.104
19324SOL    HW259812   4.348   7.282  11.087
19325SOL     OW59813   2.842   6.090   4.000
19325SOL    HW159814   2.757   6.113   4.038
19325SOL    HW259815   2.866   6.166   3.948
19326SOL     OW59816   9.468   2.727  13.604
19326SOL    HW159817   9.533   2.772  13.658
19326SOL    HW259818   9.506   2.725  13.516
19327SOL     OW59819   5.251  12.436  13.082
19327SOL    HW159820   5.178  12.429  13.021
19327SOL    HW259821   5.329  12.435  13.027
19328SOL     OW59822   2.349  11.307  14.822
19328SOL    HW159823   2.284  11.321  14.754
19328SOL    HW259824   2.392  11.392  14.832
19329SOL     OW59825   7.950   1.343  11.914
19329SOL    HW159826   7.946   1.433  11.881
19329SOL    HW259827   7.927   1.351  12.006
19330SOL     OW59828   1.177   1.512   4.199
19330SOL    HW159829   1.209   1.422   4.201
19330SOL    HW259830   1.103   1.510   4.138
19331SOL     OW59831  14.593   8.423  11.020
19331SOL    HW159832  14.659   8.414  11.089
19331SOL    HW259833  14.643   8.444  10.941
19332SOL     OW59834  10.440   6.726   9.179
19332SOL    HW159835  10.358   6.701   9.222
19332SOL    HW259836  10.450   6.819   9.199
19333SOL     OW59837   1.971   9.038  10.277
19333SOL    HW159838   1.992   9.095  10.203
19333SOL    HW259839   1.880   9.057  10.297
19334SOL     OW59840   3.667  14.557   2.890
19334SOL    HW159841   3.686  14.463   2.890
19334SOL    HW259842   3.578  14.563   2.925
19335SOL     OW59843  10.769  10.142   8.228
19335SOL    HW159844  10.753  10.113   8.318
19335SOL    HW259845  10.819  10.070   8.188
19336SOL     OW59846  11.951   9.799  14.557
19336SOL    HW159847  11.969   9.725  14.615
19336SOL    HW259848  11.899   9.859  14.610
19337SOL     OW59849   4.842   8.852   6.427
19337SOL    HW159850   4.772   8.841   6.491
19337SOL    HW259851   4.861   8.946   6.428
19338SOL     OW59852   5.707   4.213  12.005
19338SOL    HW159853   5.654   4.228  12.084
19338SOL    HW259854   5.644   4.185  11.939
19339SOL     OW59855   6.567  11.529   5.085
19339SOL    HW159856   6.571  11.618   5.049
19339SOL    HW259857   6.509  11.482   5.025
19340SOL     OW59858   0.494  13.848  13.432
19340SOL    HW159859   0.576  13.897  13.439
19340SOL    HW259860   0.450  13.864  13.516
19341SOL     OW59861   7.304   0.791   9.648
19341SOL    HW159862   7.374   0.855   9.657
19341SOL    HW259863   7.237   0.835   9.597
19342SOL     OW59864  10.889   0.514   1.407
19342SOL    HW159865  10.965   0.533   1.352
19342SOL    HW259866  10.923   0.517   1.496
19343SOL     OW59867  14.596   3.591   2.201
19343SOL    HW159868  14.503   3.568   2.201
19343SOL    HW259869  14.641   3.507   2.199
19344SOL     OW59870   2.668   3.289  12.358
19344SOL    HW159871   2.638   3.370  12.398
19344SOL    HW259872   2.606   3.222  12.386
19345SOL     OW59873   0.382   3.620   0.489
19345SOL    HW159874   0.444   3.564   0.443
19345SOL    HW259875   0.429   3.651   0.566
19346SOL     OW59876   4.993   3.357   0.729
19346SOL    HW159877   4.948   3.440   0.750
19346SOL    HW259878   5.080   3.367   0.768
19347SOL     OW59879  12.277  12.836  11.044
19347SOL    HW159880  12.341  12.806  10.980
19347SOL    HW259881  12.315  12.812  11.129
19348SOL     OW59882   0.293  12.280   6.182
19348SOL    HW159883   0.253  12.365   6.199
19348SOL    HW259884   0.292  12.272   6.086
19349SOL     OW59885   0.301   1.231   8.619
19349SOL    HW159886   0.226   1.229   8.679
19349SOL    HW259887   0.263   1.258   8.535
19350SOL     OW59888   4.678   4.995  11.377
19350SOL    HW159889   4.771   5.012  11.394
19350SOL    HW259890   4.679   4.926  11.310
19351SOL     OW59891   3.634   5.875   7.923
19351SOL    HW159892   3.694   5.835   7.860
19351SOL    HW259893   3.562   5.811   7.930
19352SOL     OW59894  11.802   4.776  10.806
19352SOL    HW159895  11.798   4.738  10.718
19352SOL    HW259896  11.848   4.710  10.858
19353SOL     OW59897   9.792   2.389   3.929
19353SOL    HW159898   9.727   2.342   3.877
19353SOL    HW259899   9.875   2.368   3.886
19354SOL     OW59900   5.297   9.762   9.433
19354SOL    HW159901   5.391   9.765   9.449
19354SOL    HW259902   5.285   9.688   9.373
19355SOL     OW59903   1.140   7.129   7.225
19355SOL    HW159904   1.138   7.204   7.165
19355SOL    HW259905   1.119   7.054   7.170
19356SOL     OW59906   8.859   2.740  12.900
19356SOL    HW159907   8.824   2.724  12.988
19356SOL    HW259908   8.938   2.685  12.896
19357SOL     OW59909  12.486  12.214   1.451
19357SOL    HW159910  12.449  12.299   1.427
19357SOL    HW259911  12.422  12.150   1.421
19358SOL     OW59912   5.934   1.826  10.075
19358SOL    HW159913   5.893   1.899  10.028
19358SOL    HW259914   5.867   1.758  10.078
19359SOL     OW59915   8.382   9.344   7.999
19359SOL    HW159916   8.375   9.319   8.091
19359SOL    HW259917   8.435   9.274   7.960
19360SOL     OW59918   4.059   1.669   8.076
19360SOL    HW159919   3.968   1.688   8.055
19360SOL    HW259920   4.056   1.592   8.133
19361SOL     OW59921   0.426   3.747   5.491
19361SOL    HW159922   0.345   3.718   5.448
19361SOL    HW259923   0.396   3.798   5.566
19362SOL     OW59924   8.935  14.274  14.764
19362SOL    HW159925   8.871  14.338  14.732
19362SOL    HW259926   8.932  14.281  14.859
19363SOL     OW59927  13.822   1.677   9.857
19363SOL    HW159928  13.907   1.644   9.826
19363SOL    HW259929  13.820   1.768   9.827
19364SOL     OW59930   1.617  10.493   2.199
19364SOL    HW159931   1.562  10.441   2.140
19364SOL    HW259932   1.555  10.538   2.256
19365SOL     OW59933   0.972  13.222   9.998
19365SOL    HW159934   0.964  13.284   9.926
19365SOL    HW259935   1.056  13.179   9.983
19366SOL     OW59936   6.050   4.146  12.897
19366SOL    HW159937   6.133   4.112  12.932
19366SOL    HW259938   5.986   4.127  12.966
19367SOL     OW59939   2.841   7.870   3.063
19367SOL    HW159940   2.921   7.818   3.051
19367SOL    HW259941   2.872   7.953   3.099
19368SOL     OW59942   2.296   6.486   1.374
19368SOL    HW159943   2.236   6.527   1.311
19368SOL    HW259944   2.319   6.556   1.435
19369SOL     OW59945  13.229  14.089   4.186
19369SOL    HW159946  13.201  14.176   4.159
19369SOL    HW259947  13.318  14.102   4.220
19370SOL     OW59948  12.161  10.478  14.719
19370SOL    HW159949  12.066  10.480  14.726
19370SOL    HW259950  12.192  10.466  14.809
19371SOL     OW59951   2.717   9.582   8.004
19371SOL    HW159952   2.664   9.658   7.983
19371SOL    HW259953   2.731   9.539   7.919
19372SOL     OW59954   8.692   4.764   7.399
19372SOL    HW159955   8.654   4.846   7.367
19372SOL    HW259956   8.617   4.711   7.426
19373SOL     OW59957   8.976  12.102   8.218
19373SOL    HW159958   9.023  12.123   8.137
19373SOL    HW259959   9.041  12.113   8.287
19374SOL     OW59960  10.934  11.868   7.772
19374SOL    HW159961  10.924  11.773   7.779
19374SOL    HW259962  10.980  11.893   7.852
19375SOL     OW59963  10.403   5.515   3.428
19375SOL    HW159964  10.479   5.555   3.470
19375SOL    HW259965  10.385   5.572   3.353
19376SOL     OW59966   8.191   2.192   4.295
19376SOL    HW159967   8.232   2.206   4.380
19376SOL    HW259968   8.107   2.152   4.314
19377SOL     OW59969  14.239  14.575   3.479
19377SOL    HW159970  14.196  14.658   3.501
19377SOL    HW259971  14.272  14.588   3.390
19378SOL     OW59972   9.651   4.249   8.283
19378SOL    HW159973   9.723   4.311   8.274
19378SOL    HW259974   9.578   4.301   8.316
19379SOL     OW59975  11.929   4.540   0.838
19379SOL    HW159976  11.934   4.456   0.791
19379SOL    HW259977  11.963   4.604   0.775
19380SOL     OW59978   7.131   9.780   9.859
19380SOL    HW159979   7.174   9.728   9.927
19380SOL    HW259980   7.195   9.783   9.787
19381SOL     OW59981  11.134   6.982  12.484
19381SOL    HW159982  11.057   7.013  12.532
19381SOL    HW259983  11.188   6.938  12.550
19382SOL     OW59984   9.747   5.834  13.641
19382SOL    HW159985   9.742   5.928  13.621
19382SOL    HW259986   9.837   5.810  13.620
19383SOL     OW59987   3.351  13.578   3.998
19383SOL    HW159988   3.440  13.611   3.984
19383SOL    HW259989   3.295  13.655   3.987
19384SOL     OW59990   8.112   1.893  10.044
19384SOL    HW159991   8.150   1.981  10.041
19384SOL    HW259992   8.074   1.886  10.131
19385SOL     OW59993  10.240   7.516   1.793
19385SOL    HW159994  10.182   7.572   1.845
19385SOL    HW259995  10.327   7.553   1.806
19386SOL     OW59996   6.863  10.502   2.231
19386SOL    HW159997   6.951  10.468   2.247
19386SOL    HW259998   6.810  10.469   2.304
19387SOL     OW59999   6.174  11.113   8.701
19387SOL    HW160000   6.166  11.029   8.745
19387SOL    HW260001   6.196  11.175   8.771
19388SOL     OW60002   3.883   6.845   5.296
19388SOL    HW160003   3.792   6.814   5.295
19388SOL    HW260004   3.915   6.824   5.384
19389SOL     OW60005   0.162  13.439   9.194
19389SOL    HW160006   0.118  13.358   9.222
19389SOL    HW260007   0.116  13.464   9.114
19390SOL     OW60008  14.577   2.996  14.155
19390SOL    HW160009  14.608   2.992  14.245
19390SOL    HW260010  14.547   2.907  14.136
19391SOL     OW60011   2.786   6.453  11.224
19391SOL    HW160012   2.795   6.374  11.277
19391SOL    HW260013   2.701   6.489  11.248
19392SOL     OW60014   4.246   3.993   0.560
19392SOL    HW160015   4.233   4.029   0.472
19392SOL    HW260016   4.271   3.902   0.545
19393SOL     OW60017  14.089   4.945  10.084
19393SOL    HW160018  14.051   4.927   9.998
19393SOL    HW260019  14.031   4.899  10.145
19394SOL     OW60020   5.983   7.490   0.320
19394SOL    HW160021   5.985   7.529   0.232
19394SOL    HW260022   5.910   7.428   0.317
19395SOL     OW60023  10.195  11.138   2.892
19395SOL    HW160024  10.185  11.217   2.945
19395SOL    HW260025  10.288  11.116   2.898
19396SOL     OW60026   7.039   4.913   3.579
19396SOL    HW160027   7.049   4.844   3.645
19396SOL    HW260028   6.952   4.949   3.596
19397SOL     OW60029   9.871   5.194   1.612
19397SOL    HW160030   9.893   5.152   1.696
19397SOL    HW260031   9.876   5.123   1.548
19398SOL     OW60032   9.493   1.217   6.586
19398SOL    HW160033   9.524   1.150   6.647
19398SOL    HW260034   9.542   1.296   6.610
19399SOL     OW60035  14.535  10.069   4.563
19399SOL    HW160036  14.593  10.073   4.486
19399SOL    HW260037  14.488   9.987   4.553
19400SOL     OW60038   4.809   4.273  10.253
19400SOL    HW160039   4.814   4.366  10.230
19400SOL    HW260040   4.828   4.270  10.347
19401SOL     OW60041   9.339  13.816   8.574
19401SOL    HW160042   9.278  13.882   8.539
19401SOL    HW260043   9.284  13.760   8.628
19402SOL     OW60044  10.349   6.597   2.603
19402SOL    HW160045  10.437   6.563   2.623
19402SOL    HW260046  10.298   6.520   2.579
19403SOL     OW60047  10.209   9.726   6.589
19403SOL    HW160048  10.171   9.656   6.642
19403SOL    HW260049  10.273   9.681   6.533
19404SOL     OW60050  10.131   0.343   3.326
19404SOL    HW160051  10.159   0.309   3.241
19404SOL    HW260052  10.109   0.434   3.310
19405SOL     OW60053   2.376   1.537   2.043
19405SOL    HW160054   2.461   1.502   2.071
19405SOL    HW260055   2.384   1.632   2.055
19406SOL     OW60056   9.456  14.231  10.788
19406SOL    HW160057   9.491  14.255  10.874
19406SOL    HW260058   9.365  14.263  10.789
19407SOL     OW60059   3.536   3.328   8.402
19407SOL    HW160060   3.467   3.295   8.459
19407SOL    HW260061   3.612   3.273   8.422
19408SOL     OW60062   3.140   4.788  14.783
19408SOL    HW160063   3.082   4.777  14.708
19408SOL    HW260064   3.224   4.751  14.755
19409SOL     OW60065   8.606   2.922   2.326
19409SOL    HW160066   8.675   2.982   2.354
19409SOL    HW260067   8.534   2.979   2.299
19410SOL     OW60068  14.169  10.485  14.556
19410SOL    HW160069  14.131  10.401  14.530
19410SOL    HW260070  14.131  10.502  14.642
19411SOL     OW60071  10.374  11.386  12.350
19411SOL    HW160072  10.393  11.346  12.265
19411SOL    HW260073  10.283  11.363  12.368
19412SOL     OW60074   7.563   1.190   8.441
19412SOL    HW160075   7.505   1.162   8.512
19412SOL    HW260076   7.518   1.162   8.361
19413SOL     OW60077   7.271   8.194  12.269
19413SOL    HW160078   7.299   8.102  12.270
19413SOL    HW260079   7.182   8.191  12.232
19414SOL     OW60080   3.376  13.053   4.625
19414SOL    HW160081   3.450  13.109   4.645
19414SOL    HW260082   3.312  13.111   4.583
19415SOL     OW60083   5.233   4.250   1.190
19415SOL    HW160084   5.170   4.210   1.131
19415SOL    HW260085   5.206   4.222   1.278
19416SOL     OW60086   2.194   6.026  10.125
19416SOL    HW160087   2.264   6.045  10.062
19416SOL    HW260088   2.158   5.942  10.097
19417SOL     OW60089  11.057  11.620   7.871
19417SOL    HW160090  11.041  11.700   7.921
19417SOL    HW260091  11.077  11.554   7.937
19418SOL     OW60092  10.747   2.670   8.615
19418SOL    HW160093  10.783   2.625   8.539
19418SOL    HW260094  10.751   2.605   8.685
19419SOL     OW60095   9.492  11.565   5.201
19419SOL    HW160096   9.430  11.515   5.148
19419SOL    HW260097   9.493  11.521   5.285
19420SOL     OW60098   3.770   0.556   7.335
19420SOL    HW160099   3.705   0.584   7.400
19420SOL    HW260100   3.746   0.606   7.256
19421SOL     OW60101  11.568   7.268  11.196
19421SOL    HW160102  11.484   7.296  11.160
19421SOL    HW260103  11.598   7.199  11.136
19422SOL     OW60104   1.361   5.514  11.493
19422SOL    HW160105   1.435   5.575  11.486
19422SOL    HW260106   1.301   5.540  11.423
19423SOL     OW60107   7.147   0.307  14.218
19423SOL    HW160108   7.223   0.359  14.193
19423SOL    HW260109   7.129   0.333  14.309
19424SOL     OW60110  13.725   4.908   9.596
19424SOL    HW160111  13.752   4.816   9.604
19424SOL    HW260112  13.630   4.905   9.603
19425SOL     OW60113  14.189   9.938  11.447
19425SOL    HW160114  14.238   9.856  11.441
19425SOL    HW260115  14.197   9.977  11.360
19426SOL     OW60116   5.878  10.261   0.344
19426SOL    HW160117   5.869  10.167   0.363
19426SOL    HW260118   5.947  10.265   0.278
19427SOL     OW60119   3.628   0.607   2.143
19427SOL    HW160120   3.620   0.646   2.056
19427SOL    HW260121   3.715   0.568   2.144
19428SOL     OW60122  13.878   0.638   7.873
19428SOL    HW160123  13.911   0.728   7.883
19428SOL    HW260124  13.905   0.594   7.953
19429SOL     OW60125  13.197   3.072  13.535
19429SOL    HW160126  13.126   3.105  13.590
19429SOL    HW260127  13.240   3.005  13.589
19430SOL     OW60128  12.047   7.295   6.154
19430SOL    HW160129  12.113   7.236   6.117
19430SOL    HW260130  12.084   7.322   6.238
19431SOL     OW60131   4.955  13.274  12.619
19431SOL    HW160132   4.950  13.355  12.669
19431SOL    HW260133   4.881  13.221  12.651
19432SOL     OW60134   7.024   3.731   4.851
19432SOL    HW160135   7.086   3.711   4.922
19432SOL    HW260136   7.067   3.801   4.802
19433SOL     OW60137   6.729   6.907   4.884
19433SOL    HW160138   6.688   6.821   4.892
19433SOL    HW260139   6.816   6.889   4.849
19434SOL     OW60140  14.359   6.363   6.154
19434SOL    HW160141  14.289   6.297   6.152
19434SOL    HW260142  14.317   6.442   6.120
19435SOL     OW60143   6.434   9.521   3.198
19435SOL    HW160144   6.478   9.459   3.255
19435SOL    HW260145   6.503   9.580   3.168
19436SOL     OW60146   0.177   0.754   6.318
19436SOL    HW160147   0.227   0.674   6.300
19436SOL    HW260148   0.102   0.750   6.259
19437SOL     OW60149   7.406  14.338   2.206
19437SOL    HW160150   7.416  14.425   2.246
19437SOL    HW260151   7.332  14.299   2.252
19438SOL     OW60152  12.158   2.256  13.506
19438SOL    HW160153  12.147   2.191  13.576
19438SOL    HW260154  12.251   2.279  13.509
19439SOL     OW60155   6.995   0.304   6.177
19439SOL    HW160156   6.928   0.269   6.117
19439SOL    HW260157   6.988   0.399   6.168
19440SOL     OW60158  14.435   8.311   5.587
19440SOL    HW160159  14.447   8.274   5.675
19440SOL    HW260160  14.455   8.239   5.528
19441SOL     OW60161   9.581   9.404  13.265
19441SOL    HW160162   9.519   9.476  13.277
19441SOL    HW260163   9.628   9.398  13.348
19442SOL     OW60164   3.383   0.752  12.668
19442SOL    HW160165   3.436   0.731  12.591
19442SOL    HW260166   3.430   0.825  12.710
19443SOL     OW60167   9.909  11.512   3.736
19443SOL    HW160168   9.910  11.551   3.649
19443SOL    HW260169   9.913  11.586   3.796
19444SOL     OW60170  11.444   7.484   0.801
19444SOL    HW160171  11.364   7.535   0.791
19444SOL    HW260172  11.435   7.439   0.885
19445SOL     OW60173  13.341   1.233   7.576
19445SOL    HW160174  13.369   1.276   7.495
19445SOL    HW260175  13.357   1.140   7.560
19446SOL     OW60176   6.734   9.024   1.295
19446SOL    HW160177   6.654   8.985   1.258
19446SOL    HW260178   6.722   9.017   1.389
19447SOL     OW60179  14.390   6.720   2.627
19447SOL    HW160180  14.308   6.769   2.616
19447SOL    HW260181  14.407   6.681   2.541
19448SOL     OW60182  10.688  14.256   5.819
19448SOL    HW160183  10.648  14.170   5.804
19448SOL    HW260184  10.653  14.285   5.903
19449SOL     OW60185   6.382  12.137   5.246
19449SOL    HW160186   6.462  12.088   5.267
19449SOL    HW260187   6.311  12.075   5.264
19450SOL     OW60188   1.269  13.882   6.051
19450SOL    HW160189   1.361  13.871   6.026
19450SOL    HW260190   1.244  13.967   6.014
19451SOL     OW60191   1.468  11.869   7.130
19451SOL    HW160192   1.492  11.923   7.206
19451SOL    HW260193   1.491  11.780   7.156
19452SOL     OW60194  14.465   2.519  10.983
19452SOL    HW160195  14.459   2.561  11.069
19452SOL    HW260196  14.501   2.587  10.926
19453SOL     OW60197   7.549  13.773  14.356
19453SOL    HW160198   7.563  13.760  14.450
19453SOL    HW260199   7.461  13.809  14.350
19454SOL     OW60200  12.134   5.632   3.630
19454SOL    HW160201  12.151   5.544   3.662
19454SOL    HW260202  12.156   5.690   3.703
19455SOL     OW60203   1.008  12.836   1.924
19455SOL    HW160204   1.056  12.764   1.881
19455SOL    HW260205   1.049  12.915   1.890
19456SOL     OW60206   0.084  12.130   5.888
19456SOL    HW160207   0.175  12.124   5.915
19456SOL    HW260208   0.036  12.145   5.969
19457SOL     OW60209   3.661   1.897   0.995
19457SOL    HW160210   3.610   1.817   1.005
19457SOL    HW260211   3.692   1.917   1.084
19458SOL     OW60212   8.787  13.104   6.041
19458SOL    HW160213   8.845  13.035   6.074
19458SOL    HW260214   8.835  13.141   5.966
19459SOL     OW60215   1.598  10.716   3.808
19459SOL    HW160216   1.603  10.689   3.717
19459SOL    HW260217   1.573  10.808   3.806
19460SOL     OW60218   4.063   2.186   1.336
19460SOL    HW160219   4.075   2.204   1.429
19460SOL    HW260220   3.998   2.250   1.307
19461SOL     OW60221   6.942   3.639   5.231
19461SOL    HW160222   7.015   3.670   5.286
19461SOL    HW260223   6.865   3.683   5.266
19462SOL     OW60224   1.779   6.158   8.116
19462SOL    HW160225   1.701   6.198   8.154
19462SOL    HW260226   1.814   6.225   8.057
19463SOL     OW60227   8.198   9.459   7.567
19463SOL    HW160228   8.253   9.389   7.532
19463SOL    HW260229   8.175   9.430   7.655
19464SOL     OW60230   8.950  11.547   2.740
19464SOL    HW160231   8.981  11.579   2.825
19464SOL    HW260232   8.951  11.452   2.748
19465SOL     OW60233   8.222  10.456  14.762
19465SOL    HW160234   8.207  10.534  14.708
19465SOL    HW260235   8.279  10.401  14.709
19466SOL     OW60236  13.012  14.454   6.212
19466SOL    HW160237  13.044  14.543   6.224
19466SOL    HW260238  12.923  14.455   6.244
19467SOL     OW60239   6.069   1.507   3.827
19467SOL    HW160240   6.005   1.563   3.783
19467SOL    HW260241   6.152   1.555   3.819
19468SOL     OW60242  12.465  11.549   2.668
19468SOL    HW160243  12.544  11.496   2.675
19468SOL    HW260244  12.400  11.491   2.629
19469SOL     OW60245  13.103   7.622  11.310
19469SOL    HW160246  13.049   7.699  11.293
19469SOL    HW260247  13.042   7.554  11.337
19470SOL     OW60248   3.803   5.911   9.883
19470SOL    HW160249   3.760   5.827   9.862
19470SOL    HW260250   3.746   5.952   9.948
19471SOL     OW60251   6.656   7.888  13.473
19471SOL    HW160252   6.651   7.802  13.432
19471SOL    HW260253   6.567   7.923  13.466
19472SOL     OW60254   2.433  10.100   0.601
19472SOL    HW160255   2.448  10.119   0.509
19472SOL    HW260256   2.397  10.181   0.637
19473SOL     OW60257  13.296   5.866   7.406
19473SOL    HW160258  13.351   5.935   7.368
19473SOL    HW260259  13.222   5.858   7.345
19474SOL     OW60260   8.616   1.870   2.261
19474SOL    HW160261   8.537   1.924   2.269
19474SOL    HW260262   8.598   1.811   2.188
19475SOL     OW60263   1.275   0.178   6.038
19475SOL    HW160264   1.241   0.235   6.107
19475SOL    HW260265   1.199   0.162   5.981
19476SOL     OW60266   5.466   7.808  10.068
19476SOL    HW160267   5.515   7.834   9.990
19476SOL    HW260268   5.529   7.818  10.139
19477SOL     OW60269  10.834  14.058  10.392
19477SOL    HW160270  10.903  14.070  10.457
19477SOL    HW260271  10.860  14.114  10.319
19478SOL     OW60272  12.643   9.472   7.475
19478SOL    HW160273  12.555   9.497   7.503
19478SOL    HW260274  12.637   9.378   7.462
19479SOL     OW60275   3.803   6.820   0.343
19479SOL    HW160276   3.723   6.780   0.376
19479SOL    HW260277   3.829   6.881   0.412
19480SOL     OW60278   3.644   3.876   4.417
19480SOL    HW160279   3.659   3.970   4.411
19480SOL    HW260280   3.575   3.868   4.483
19481SOL     OW60281   7.995   1.024  10.954
19481SOL    HW160282   7.980   1.111  10.919
19481SOL    HW260283   8.089   1.021  10.971
19482SOL     OW60284   5.865   5.946   6.864
19482SOL    HW160285   5.802   5.873   6.863
19482SOL    HW260286   5.924   5.927   6.792
19483SOL     OW60287   3.550   4.362  12.836
19483SOL    HW160288   3.456   4.377  12.823
19483SOL    HW260289   3.570   4.405  12.919
19484SOL     OW60290  12.616   9.669   9.535
19484SOL    HW160291  12.597   9.650   9.443
19484SOL    HW260292  12.712   9.667   9.540
19485SOL     OW60293   1.176   6.913   5.824
19485SOL    HW160294   1.222   6.930   5.741
19485SOL    HW260295   1.171   6.999   5.866
19486SOL     OW60296  13.511  14.257   8.317
19486SOL    HW160297  13.534  14.220   8.232
19486SOL    HW260298  13.583  14.316   8.338
19487SOL     OW60299   8.386  11.988   2.715
19487SOL    HW160300   8.363  11.911   2.768
19487SOL    HW260301   8.431  11.951   2.639
19488SOL     OW60302   8.463   3.743  10.837
19488SOL    HW160303   8.461   3.838  10.850
19488SOL    HW260304   8.506   3.709  10.915
19489SOL     OW60305  12.268   4.099   2.985
19489SOL    HW160306  12.351   4.141   3.005
19489SOL    HW260307  12.287   4.005   2.988
19490SOL     OW60308   2.327   8.330   3.803
19490SOL    HW160309   2.335   8.250   3.751
19490SOL    HW260310   2.233   8.350   3.803
19491SOL     OW60311   5.134  12.609   5.993
19491SOL    HW160312   5.223  12.590   6.023
19491SOL    HW260313   5.146  12.659   5.912
19492SOL     OW60314  12.678   6.041  14.034
19492SOL    HW160315  12.739   5.968  14.041
19492SOL    HW260316  12.696   6.079  13.948
19493SOL     OW60317   4.356  11.799  11.640
19493SOL    HW160318   4.355  11.725  11.579
19493SOL    HW260319   4.341  11.760  11.725
19494SOL     OW60320   5.458  11.733   6.691
19494SOL    HW160321   5.485  11.813   6.737
19494SOL    HW260322   5.529  11.716   6.629
19495SOL     OW60323   4.097   3.378  11.421
19495SOL    HW160324   4.055   3.357  11.337
19495SOL    HW260325   4.049   3.455  11.452
19496SOL     OW60326   6.176  12.794  11.097
19496SOL    HW160327   6.221  12.732  11.154
19496SOL    HW260328   6.238  12.866  11.085
19497SOL     OW60329   5.364  13.233   1.964
19497SOL    HW160330   5.421  13.158   1.985
19497SOL    HW260331   5.373  13.244   1.870
19498SOL     OW60332   9.346   2.332  12.563
19498SOL    HW160333   9.291   2.261  12.597
19498SOL    HW260334   9.315   2.410  12.609
19499SOL     OW60335   4.870   6.365   0.855
19499SOL    HW160336   4.821   6.306   0.912
19499SOL    HW260337   4.895   6.311   0.781
19500SOL     OW60338  12.671   4.205  12.236
19500SOL    HW160339  12.674   4.266  12.310
19500SOL    HW260340  12.591   4.228  12.189
19501SOL     OW60341   0.115   3.694  10.060
19501SOL    HW160342   0.179   3.751  10.019
19501SOL    HW260343   0.164   3.616  10.085
19502SOL     OW60344   2.519   0.103   4.537
19502SOL    HW160345   2.541   0.039   4.469
19502SOL    HW260346   2.536   0.188   4.496
19503SOL     OW60347   0.992   9.632   5.837
19503SOL    HW160348   0.918   9.574   5.852
19503SOL    HW260349   0.952   9.718   5.823
19504SOL     OW60350  10.880   1.611   0.112
19504SOL    HW160351  10.926   1.554   0.052
19504SOL    HW260352  10.835   1.674   0.056
19505SOL     OW60353   3.078   1.732  14.706
19505SOL    HW160354   2.990   1.767  14.721
19505SOL    HW260355   3.074   1.692  14.619
19506SOL     OW60356   1.023  10.604  10.664
19506SOL    HW160357   1.084  10.561  10.604
19506SOL    HW260358   1.054  10.579  10.752
19507SOL     OW60359   3.491   3.619   6.421
19507SOL    HW160360   3.431   3.673   6.369
19507SOL    HW260361   3.578   3.655   6.402
19508SOL     OW60362   0.930  10.827  10.388
19508SOL    HW160363   0.948  10.881  10.312
19508SOL    HW260364   0.837  10.841  10.407
19509SOL     OW60365   3.229   9.400  11.701
19509SOL    HW160366   3.313   9.390  11.655
19509SOL    HW260367   3.223   9.494  11.718
19510SOL     OW60368   0.437   8.873  11.234
19510SOL    HW160369   0.495   8.838  11.301
19510SOL    HW260370   0.485   8.860  11.152
19511SOL     OW60371   5.773  13.269   0.989
19511SOL    HW160372   5.856  13.291   1.031
19511SOL    HW260373   5.707  13.318   1.038
19512SOL     OW60374   6.283  12.397  11.899
19512SOL    HW160375   6.322  12.478  11.867
19512SOL    HW260376   6.352  12.354  11.949
19513SOL     OW60377   4.891   5.575   9.482
19513SOL    HW160378   4.936   5.598   9.563
19513SOL    HW260379   4.955   5.524   9.432
19514SOL     OW60380  12.561   7.268   3.386
19514SOL    HW160381  12.530   7.241   3.473
19514SOL    HW260382  12.609   7.349   3.402
19515SOL     OW60383   6.626   0.363   9.811
19515SOL    HW160384   6.698   0.316   9.769
19515SOL    HW260385   6.656   0.377   9.901
19516SOL     OW60386   3.110   7.282   3.116
19516SOL    HW160387   3.181   7.334   3.154
19516SOL    HW260388   3.032   7.337   3.124
19517SOL     OW60389  10.482   0.942  14.337
19517SOL    HW160390  10.490   0.948  14.242
19517SOL    HW260391  10.397   0.901  14.351
19518SOL     OW60392  12.994   3.647  10.238
19518SOL    HW160393  12.997   3.572  10.297
19518SOL    HW260394  13.065   3.704  10.268
19519SOL     OW60395   5.554   9.852   4.966
19519SOL    HW160396   5.510   9.780   4.922
19519SOL    HW260397   5.630   9.812   5.009
19520SOL     OW60398  12.027   4.920  11.694
19520SOL    HW160399  12.046   4.850  11.632
19520SOL    HW260400  12.053   4.885  11.779
19521SOL     OW60401   6.675  11.695   5.488
19521SOL    HW160402   6.601  11.675   5.431
19521SOL    HW260403   6.711  11.609   5.512
19522SOL     OW60404   6.325   8.197   4.597
19522SOL    HW160405   6.239   8.160   4.578
19522SOL    HW260406   6.327   8.204   4.693
19523SOL     OW60407   2.264  13.682   3.301
19523SOL    HW160408   2.341  13.738   3.311
19523SOL    HW260409   2.252  13.676   3.206
19524SOL     OW60410  10.926   3.166  12.459
19524SOL    HW160411  10.890   3.250  12.489
19524SOL    HW260412  10.947   3.180  12.367
19525SOL     OW60413   6.994   3.338   8.215
19525SOL    HW160414   7.006   3.305   8.126
19525SOL    HW260415   7.022   3.429   8.212
19526SOL     OW60416   2.649   4.284   7.430
19526SOL    HW160417   2.722   4.223   7.442
19526SOL    HW260418   2.572   4.228   7.421
19527SOL     OW60419   2.941   8.077   5.008
19527SOL    HW160420   2.935   8.115   4.920
19527SOL    HW260421   2.862   8.025   5.017
19528SOL     OW60422   6.833  12.171   4.879
19528SOL    HW160423   6.784  12.170   4.961
19528SOL    HW260424   6.842  12.079   4.855
19529SOL     OW60425   7.738   0.609  14.612
19529SOL    HW160426   7.720   0.543  14.544
19529SOL    HW260427   7.832   0.622  14.609
19530SOL     OW60428   5.448  12.983  12.632
19530SOL    HW160429   5.392  13.004  12.558
19530SOL    HW260430   5.402  12.912  12.678
19531SOL     OW60431   9.638   2.631   6.446
19531SOL    HW160432   9.581   2.574   6.395
19531SOL    HW260433   9.725   2.617   6.409
19532SOL     OW60434   2.279  10.392   0.390
19532SOL    HW160435   2.225  10.343   0.327
19532SOL    HW260436   2.336  10.446   0.335
19533SOL     OW60437  11.469   7.526   0.501
19533SOL    HW160438  11.466   7.478   0.418
19533SOL    HW260439  11.552   7.499   0.541
19534SOL     OW60440   8.829  14.595   1.398
19534SOL    HW160441   8.782  14.552   1.469
19534SOL    HW260442   8.800  14.551   1.319
19535SOL     OW60443   1.471  13.549   5.814
19535SOL    HW160444   1.472  13.536   5.719
19535SOL    HW260445   1.378  13.561   5.836
19536SOL     OW60446   1.380   9.967  10.542
19536SOL    HW160447   1.384   9.885  10.492
19536SOL    HW260448   1.286   9.982  10.555
19537SOL     OW60449  13.023   7.545  11.594
19537SOL    HW160450  13.089   7.608  11.569
19537SOL    HW260451  13.061   7.499  11.669
19538SOL     OW60452   0.015   7.643  13.952
19538SOL    HW160453  14.835   7.614  13.878
19538SOL    HW260454  14.851   7.726  13.979
19539SOL     OW60455   1.813   5.541   9.323
19539SOL    HW160456   1.860   5.491   9.256
19539SOL    HW260457   1.736   5.487   9.343
19540SOL     OW60458   4.731  12.458   5.066
19540SOL    HW160459   4.650  12.472   5.114
19540SOL    HW260460   4.707  12.399   4.995
19541SOL     OW60461  11.641   8.709   5.463
19541SOL    HW160462  11.616   8.787   5.513
19541SOL    HW260463  11.619   8.636   5.520
19542SOL     OW60464   9.789   8.529   3.202
19542SOL    HW160465   9.747   8.446   3.226
19542SOL    HW260466   9.725   8.596   3.225
19543SOL     OW60467   6.674   9.528   0.033
19543SOL    HW160468   6.581   9.553   0.037
19543SOL    HW260469   6.679   9.468  14.833
19544SOL     OW60470   3.020  12.673  12.637
19544SOL    HW160471   3.110  12.670  12.606
19544SOL    HW260472   2.967  12.673  12.558
19545SOL     OW60473  10.504   9.545   5.226
19545SOL    HW160474  10.538   9.459   5.252
19545SOL    HW260475  10.497   9.594   5.308
19546SOL     OW60476   5.511   2.937   1.925
19546SOL    HW160477   5.469   2.930   2.010
19546SOL    HW260478   5.557   3.021   1.928
19547SOL     OW60479  10.825   0.285  14.781
19547SOL    HW160480  10.838   0.192  14.761
19547SOL    HW260481  10.866   0.331  14.707
19548SOL     OW60482  11.477   3.208   9.032
19548SOL    HW160483  11.503   3.251   9.114
19548SOL    HW260484  11.387   3.236   9.017
19549SOL     OW60485   1.672   0.426  10.418
19549SOL    HW160486   1.682   0.480  10.341
19549SOL    HW260487   1.624   0.481  10.480
19550SOL     OW60488   8.747   8.483   1.036
19550SOL    HW160489   8.738   8.431   1.116
19550SOL    HW260490   8.795   8.426   0.976
19551SOL     OW60491   6.721   4.005   2.294
19551SOL    HW160492   6.681   3.929   2.335
19551SOL    HW260493   6.707   4.076   2.356
19552SOL     OW60494   3.689   9.697  13.837
19552SOL    HW160495   3.665   9.667  13.750
19552SOL    HW260496   3.651   9.785  13.844
19553SOL     OW60497  11.833   1.385  12.726
19553SOL    HW160498  11.861   1.450  12.791
19553SOL    HW260499  11.800   1.436  12.653
19554SOL     OW60500  11.928   7.643  14.631
19554SOL    HW160501  12.013   7.675  14.602
19554SOL    HW260502  11.898   7.587  14.560
19555SOL     OW60503   8.578   2.866   3.720
19555SOL    HW160504   8.496   2.870   3.769
19555SOL    HW260505   8.552   2.881   3.629
19556SOL     OW60506   1.498   6.616  14.295
19556SOL    HW160507   1.539   6.552  14.237
19556SOL    HW260508   1.477   6.690  14.238
19557SOL     OW60509  14.412   3.068  13.389
19557SOL    HW160510  14.464   3.001  13.434
19557SOL    HW260511  14.328   3.026  13.373
19558SOL     OW60512   0.999   1.776  11.936
19558SOL    HW160513   1.054   1.773  12.014
19558SOL    HW260514   1.032   1.849  11.885
19559SOL     OW60515   2.670   1.313  11.216
19559SOL    HW160516   2.721   1.246  11.171
19559SOL    HW260517   2.580   1.282  11.210
19560SOL     OW60518   7.115   6.722  12.802
19560SOL    HW160519   7.043   6.770  12.761
19560SOL    HW260520   7.124   6.643  12.750
19561SOL     OW60521  11.669  11.670  10.111
19561SOL    HW160522  11.739  11.632  10.163
19561SOL    HW260523  11.702  11.670  10.021
19562SOL     OW60524   1.404  11.028  11.045
19562SOL    HW160525   1.341  11.006  11.114
19562SOL    HW260526   1.453  11.102  11.080
19563SOL     OW60527  14.656   1.458   1.272
19563SOL    HW160528  14.716   1.509   1.217
19563SOL    HW260529  14.649   1.373   1.227
19564SOL     OW60530   5.511   4.703   5.982
19564SOL    HW160531   5.428   4.691   5.937
19564SOL    HW260532   5.488   4.715   6.074
19565SOL     OW60533   1.628   3.179   6.975
19565SOL    HW160534   1.664   3.090   6.978
19565SOL    HW260535   1.538   3.168   6.944
19566SOL     OW60536   0.414   4.088   5.268
19566SOL    HW160537   0.369   4.093   5.352
19566SOL    HW260538   0.381   4.007   5.228
19567SOL     OW60539  13.484  10.673   5.207
19567SOL    HW160540  13.571  10.700   5.177
19567SOL    HW260541  13.477  10.710   5.295
19568SOL     OW60542   3.585  10.056   9.451
19568SOL    HW160543   3.603   9.967   9.482
19568SOL    HW260544   3.633  10.112   9.512
19569SOL     OW60545   0.364   4.796   1.247
19569SOL    HW160546   0.277   4.767   1.275
19569SOL    HW260547   0.410   4.716   1.223
19570SOL     OW60548  12.377   4.539   8.924
19570SOL    HW160549  12.451   4.479   8.921
19570SOL    HW260550  12.300   4.483   8.924
19571SOL     OW60551   5.673   9.629   8.306
19571SOL    HW160552   5.737   9.699   8.311
19571SOL    HW260553   5.642   9.632   8.215
19572SOL     OW60554   4.841  13.142   5.582
19572SOL    HW160555   4.907  13.080   5.551
19572SOL    HW260556   4.818  13.112   5.669
19573SOL     OW60557  12.482   2.398  12.761
19573SOL    HW160558  12.561   2.369  12.715
19573SOL    HW260559  12.411   2.354  12.715
19574SOL     OW60560   3.542   5.850   2.309
19574SOL    HW160561   3.560   5.857   2.403
19574SOL    HW260562   3.455   5.810   2.304
19575SOL     OW60563  11.879  13.837   3.810
19575SOL    HW160564  11.840  13.893   3.743
19575SOL    HW260565  11.808  13.777   3.835
19576SOL     OW60566   3.894  11.303  10.072
19576SOL    HW160567   3.958  11.355  10.120
19576SOL    HW260568   3.943  11.227  10.042
19577SOL     OW60569   8.835  12.179   3.432
19577SOL    HW160570   8.801  12.234   3.503
19577SOL    HW260571   8.884  12.240   3.376
19578SOL     OW60572  10.389  11.016   7.852
19578SOL    HW160573  10.321  11.004   7.786
19578SOL    HW260574  10.344  11.005   7.935
19579SOL     OW60575  11.144   9.071   2.102
19579SOL    HW160576  11.071   9.095   2.044
19579SOL    HW260577  11.102   9.027   2.176
19580SOL     OW60578   3.602   5.652  10.444
19580SOL    HW160579   3.564   5.565  10.430
19580SOL    HW260580   3.579   5.674  10.534
19581SOL     OW60581   8.784   1.648  13.249
19581SOL    HW160582   8.811   1.738  13.266
19581SOL    HW260583   8.698   1.656  13.208
19582SOL     OW60584  13.129  11.727  10.023
19582SOL    HW160585  13.112  11.810   9.978
19582SOL    HW260586  13.098  11.742  10.113
19583SOL     OW60587  13.295  12.610   2.238
19583SOL    HW160588  13.386  12.582   2.243
19583SOL    HW260589  13.264  12.608   2.328
19584SOL     OW60590   0.028   8.783   7.452
19584SOL    HW160591   0.099   8.820   7.399
19584SOL    HW260592   0.072   8.745   7.528
19585SOL     OW60593  14.714   4.078   2.339
19585SOL    HW160594  14.769   4.098   2.415
19585SOL    HW260595  14.705   3.982   2.342
19586SOL     OW60596  10.429  10.971  10.195
19586SOL    HW160597  10.422  10.876  10.182
19586SOL    HW260598  10.522  10.987  10.206
19587SOL     OW60599   6.654  13.905   1.174
19587SOL    HW160600   6.565  13.907   1.140
19587SOL    HW260601   6.704  13.857   1.107
19588SOL     OW60602  13.361  13.399  11.746
19588SOL    HW160603  13.343  13.399  11.652
19588SOL    HW260604  13.456  13.411  11.752
19589SOL     OW60605   9.380  13.532  14.774
19589SOL    HW160606   9.401  13.455  14.721
19589SOL    HW260607   9.411  13.606  14.722
19590SOL     OW60608  11.038   5.661   7.150
19590SOL    HW160609  10.976   5.726   7.117
19590SOL    HW260610  11.119   5.711   7.164
19591SOL     OW60611   8.967   3.489   7.953
19591SOL    HW160612   8.891   3.497   7.896
19591SOL    HW260613   8.930   3.484   8.041
19592SOL     OW60614  10.414  12.638  12.234
19592SOL    HW160615  10.345  12.667  12.175
19592SOL    HW260616  10.371  12.626  12.318
19593SOL     OW60617   0.017   8.605  11.243
19593SOL    HW160618   0.068   8.529  11.213
19593SOL    HW260619   0.059   8.680  11.202
19594SOL     OW60620   0.913   4.550   9.621
19594SOL    HW160621   0.879   4.461   9.609
19594SOL    HW260622   0.835   4.606   9.619
19595SOL     OW60623  11.514   6.401   9.474
19595SOL    HW160624  11.604   6.384   9.499
19595SOL    HW260625  11.503   6.495   9.487
19596SOL     OW60626   5.537   0.190   9.179
19596SOL    HW160627   5.467   0.184   9.114
19596SOL    HW260628   5.491   0.193   9.263
19597SOL     OW60629   0.595  14.834  14.333
19597SOL    HW160630   0.631  14.806  14.248
19597SOL    HW260631   0.624  14.765  14.393
19598SOL     OW60632   7.902   7.786  14.490
19598SOL    HW160633   7.873   7.717  14.431
19598SOL    HW260634   7.833   7.791  14.556
19599SOL     OW60635  13.861   8.121   9.848
19599SOL    HW160636  13.852   8.199   9.903
19599SOL    HW260637  13.771   8.090   9.835
19600SOL     OW60638   3.136   2.662  14.826
19600SOL    HW160639   3.144   2.655  14.731
19600SOL    HW260640   3.090   2.744  14.840
19601SOL     OW60641  11.060   0.768  10.310
19601SOL    HW160642  11.144   0.724  10.299
19601SOL    HW260643  11.025   0.734  10.392
19602SOL     OW60644   4.223  14.300   7.795
19602SOL    HW160645   4.158  14.359   7.833
19602SOL    HW260646   4.177  14.216   7.786
19603SOL     OW60647   2.309   7.029   8.752
19603SOL    HW160648   2.228   7.012   8.799
19603SOL    HW260649   2.373   6.969   8.790
19604SOL     OW60650   9.978   0.787   9.521
19604SOL    HW160651  10.043   0.767   9.454
19604SOL    HW260652  10.030   0.813   9.598
19605SOL     OW60653   9.787   3.131   9.246
19605SOL    HW160654   9.782   3.207   9.189
19605SOL    HW260655   9.759   3.163   9.332
19606SOL     OW60656  14.671  10.996  11.850
19606SOL    HW160657  14.746  11.031  11.801
19606SOL    HW260658  14.615  10.957  11.783
19607SOL     OW60659  12.693  13.491   4.534
19607SOL    HW160660  12.688  13.399   4.509
19607SOL    HW260661  12.712  13.490   4.628
19608SOL     OW60662  11.833  10.972   1.762
19608SOL    HW160663  11.802  10.884   1.744
19608SOL    HW260664  11.880  10.965   1.845
19609SOL     OW60665   9.456  14.388   1.349
19609SOL    HW160666   9.383  14.408   1.291
19609SOL    HW260667   9.469  14.468   1.400
19610SOL     OW60668   2.302   5.018   1.054
19610SOL    HW160669   2.239   4.980   1.116
19610SOL    HW260670   2.296   5.112   1.069
19611SOL     OW60671   0.808   0.516   9.951
19611SOL    HW160672   0.880   0.468   9.992
19611SOL    HW260673   0.742   0.449   9.932
19612SOL     OW60674   5.722  12.757   2.503
19612SOL    HW160675   5.752  12.710   2.580
19612SOL    HW260676   5.649  12.704   2.470
19613SOL     OW60677  11.486   0.147   9.628
19613SOL    HW160678  11.486   0.152   9.532
19613SOL    HW260679  11.577   0.126   9.650
19614SOL     OW60680  11.259  13.583   8.411
19614SOL    HW160681  11.265  13.491   8.384
19614SOL    HW260682  11.340  13.599   8.459
19615SOL     OW60683   4.079  11.923   0.919
19615SOL    HW160684   4.039  11.845   0.956
19615SOL    HW260685   4.106  11.975   0.995
19616SOL     OW60686   2.996   8.790   1.810
19616SOL    HW160687   2.992   8.851   1.884
19616SOL    HW260688   2.906   8.782   1.780
19617SOL     OW60689   8.871   1.379  12.203
19617SOL    HW160690   8.913   1.293  12.194
19617SOL    HW260691   8.795   1.374  12.145
19618SOL     OW60692  14.345  12.668   1.116
19618SOL    HW160693  14.374  12.586   1.075
19618SOL    HW260694  14.249  12.660   1.118
19619SOL     OW60695  11.722  12.231   4.644
19619SOL    HW160696  11.656  12.301   4.653
19619SOL    HW260697  11.760  12.224   4.731
19620SOL     OW60698  11.170   1.793   5.488
19620SOL    HW160699  11.188   1.830   5.402
19620SOL    HW260700  11.254   1.797   5.534
19621SOL     OW60701   8.765   2.627  11.801
19621SOL    HW160702   8.720   2.603  11.882
19621SOL    HW260703   8.855   2.646  11.828
19622SOL     OW60704  12.883   4.450   8.099
19622SOL    HW160705  12.902   4.503   8.177
19622SOL    HW260706  12.804   4.402   8.123
19623SOL     OW60707  11.065   6.696   4.767
19623SOL    HW160708  11.060   6.650   4.684
19623SOL    HW260709  11.144   6.661   4.809
19624SOL     OW60710   9.630   9.439  13.534
19624SOL    HW160711   9.559   9.486  13.579
19624SOL    HW260712   9.709   9.470  13.577
19625SOL     OW60713   2.080   7.677  13.783
19625SOL    HW160714   2.126   7.761  13.788
19625SOL    HW260715   2.109   7.638  13.701
19626SOL     OW60716   9.256   5.314  12.630
19626SOL    HW160717   9.232   5.238  12.682
19626SOL    HW260718   9.237   5.288  12.540
19627SOL     OW60719   0.065  12.767  10.150
19627SOL    HW160720   0.059  12.697  10.086
19627SOL    HW260721   0.088  12.845  10.099
19628SOL     OW60722   3.811   7.119   9.472
19628SOL    HW160723   3.903   7.132   9.496
19628SOL    HW260724   3.815   7.070   9.390
19629SOL     OW60725   4.365   0.130   3.279
19629SOL    HW160726   4.408   0.066   3.337
19629SOL    HW260727   4.399   0.110   3.192
19630SOL     OW60728   2.064   5.077   1.426
19630SOL    HW160729   2.091   5.025   1.350
19630SOL    HW260730   2.138   5.069   1.486
19631SOL     OW60731   9.124   9.865   0.427
19631SOL    HW160732   9.069   9.789   0.449
19631SOL    HW260733   9.072   9.940   0.455
19632SOL     OW60734   7.927  11.810  13.913
19632SOL    HW160735   7.907  11.744  13.846
19632SOL    HW260736   7.891  11.891  13.877
19633SOL     OW60737   7.050   6.559  13.806
19633SOL    HW160738   7.060   6.526  13.716
19633SOL    HW260739   6.956   6.551  13.824
19634SOL     OW60740   6.626   2.124   0.396
19634SOL    HW160741   6.569   2.090   0.326
19634SOL    HW260742   6.566   2.147   0.467
19635SOL     OW60743   1.273  10.393   9.353
19635SOL    HW160744   1.305  10.306   9.378
19635SOL    HW260745   1.335  10.423   9.287
19636SOL     OW60746   4.001   6.720   9.130
19636SOL    HW160747   4.041   6.707   9.044
19636SOL    HW260748   4.075   6.739   9.188
19637SOL     OW60749   3.644   1.548   9.571
19637SOL    HW160750   3.610   1.475   9.621
19637SOL    HW260751   3.729   1.567   9.611
19638SOL     OW60752   2.120   7.250   4.300
19638SOL    HW160753   2.060   7.289   4.236
19638SOL    HW260754   2.154   7.172   4.257
19639SOL     OW60755   8.260  11.298  10.563
19639SOL    HW160756   8.281  11.376  10.513
19639SOL    HW260757   8.218  11.239  10.500
19640SOL     OW60758  13.209   6.646   0.849
19640SOL    HW160759  13.244   6.573   0.798
19640SOL    HW260760  13.268   6.652   0.925
19641SOL     OW60761   2.836   7.348   3.203
19641SOL    HW160762   2.755   7.326   3.248
19641SOL    HW260763   2.879   7.412   3.260
19642SOL     OW60764   6.821  11.995  11.891
19642SOL    HW160765   6.840  12.028  11.804
19642SOL    HW260766   6.869  11.912  11.896
19643SOL     OW60767  10.145   2.996   7.953
19643SOL    HW160768  10.076   2.959   8.007
19643SOL    HW260769  10.109   3.079   7.921
19644SOL     OW60770   2.326   0.952   7.341
19644SOL    HW160771   2.355   0.913   7.259
19644SOL    HW260772   2.249   1.003   7.318
19645SOL     OW60773   0.570   8.225   5.330
19645SOL    HW160774   0.655   8.263   5.351
19645SOL    HW260775   0.590   8.159   5.263
19646SOL     OW60776   0.015  11.594  14.341
19646SOL    HW160777   0.009  11.508  14.300
19646SOL    HW260778  14.804  11.606  14.384
19647SOL     OW60779   9.105  14.290   9.959
19647SOL    HW160780   9.135  14.253  10.042
19647SOL    HW260781   9.174  14.350   9.933
19648SOL     OW60782   9.000   0.194  13.476
19648SOL    HW160783   9.085   0.152  13.469
19648SOL    HW260784   8.951   0.162  13.400
19649SOL     OW60785   0.155   7.120   0.640
19649SOL    HW160786   0.090   7.054   0.613
19649SOL    HW260787   0.225   7.069   0.680
19650SOL     OW60788   7.472   9.012  11.456
19650SOL    HW160789   7.436   8.973  11.376
19650SOL    HW260790   7.526   9.085  11.425
19651SOL     OW60791   0.018   3.781   9.729
19651SOL    HW160792  14.859   3.698   9.694
19651SOL    HW260793  14.856   3.848   9.671
19652SOL     OW60794   8.366   5.675   8.339
19652SOL    HW160795   8.379   5.747   8.278
19652SOL    HW260796   8.443   5.677   8.396
19653SOL     OW60797   1.788  10.216   2.770
19653SOL    HW160798   1.794  10.121   2.763
19653SOL    HW260799   1.879  10.246   2.776
19654SOL     OW60800   3.521   8.780   2.476
19654SOL    HW160801   3.516   8.742   2.564
19654SOL    HW260802   3.615   8.782   2.457
19655SOL     OW60803   4.768   5.657   2.855
19655SOL    HW160804   4.766   5.734   2.799
19655SOL    HW260805   4.858   5.651   2.885
19656SOL     OW60806  14.447   4.605   9.157
19656SOL    HW160807  14.533   4.637   9.185
19656SOL    HW260808  14.464   4.564   9.073
19657SOL     OW60809   0.945   7.720  12.571
19657SOL    HW160810   0.868   7.692  12.522
19657SOL    HW260811   0.947   7.662  12.648
19658SOL     OW60812   4.565   4.020   6.768
19658SOL    HW160813   4.594   4.025   6.677
19658SOL    HW260814   4.549   3.927   6.783
19659SOL     OW60815   4.054  11.222   3.114
19659SOL    HW160816   4.074  11.272   3.035
19659SOL    HW260817   4.137  11.215   3.161
19660SOL     OW60818   4.615   9.134   9.297
19660SOL    HW160819   4.645   9.047   9.323
19660SOL    HW260820   4.570   9.168   9.375
19661SOL     OW60821   6.763   8.743  14.357
19661SOL    HW160822   6.695   8.679  14.376
19661SOL    HW260823   6.721   8.808  14.300
19662SOL     OW60824  10.441  10.853   9.458
19662SOL    HW160825  10.439  10.899   9.375
19662SOL    HW260826  10.528  10.812   9.461
19663SOL     OW60827   4.776  13.649   4.982
19663SOL    HW160828   4.782  13.592   5.059
19663SOL    HW260829   4.837  13.611   4.919
19664SOL     OW60830  11.799   3.584  11.558
19664SOL    HW160831  11.763   3.621  11.477
19664SOL    HW260832  11.891   3.609  11.557
19665SOL     OW60833   3.855  13.718  11.748
19665SOL    HW160834   3.856  13.689  11.656
19665SOL    HW260835   3.858  13.637  11.798
19666SOL     OW60836  11.224   9.654  14.676
19666SOL    HW160837  11.130   9.641  14.686
19666SOL    HW260838  11.258   9.663  14.765
19667SOL     OW60839   1.304   2.690  11.665
19667SOL    HW160840   1.347   2.772  11.643
19667SOL    HW260841   1.314   2.682  11.760
19668SOL     OW60842   4.265   8.612  12.612
19668SOL    HW160843   4.226   8.524  12.614
19668SOL    HW260844   4.205   8.666  12.663
19669SOL     OW60845   7.460   8.920   9.804
19669SOL    HW160846   7.437   8.993   9.747
19669SOL    HW260847   7.419   8.942   9.888
19670SOL     OW60848   8.221   2.042   7.452
19670SOL    HW160849   8.305   2.042   7.406
19670SOL    HW260850   8.220   2.125   7.500
19671SOL     OW60851   0.946  10.063   1.198
19671SOL    HW160852   0.855  10.051   1.227
19671SOL    HW260853   0.960  10.158   1.204
19672SOL     OW60854   0.892   0.759  13.829
19672SOL    HW160855   0.831   0.718  13.769
19672SOL    HW260856   0.974   0.766  13.780
19673SOL     OW60857  14.114   3.720  10.310
19673SOL    HW160858  14.140   3.770  10.388
19673SOL    HW260859  14.073   3.641  10.345
19674SOL     OW60860   6.959  10.998   4.900
19674SOL    HW160861   6.898  10.925   4.888
19674SOL    HW260862   7.012  10.997   4.820
19675SOL     OW60863   3.842   8.052   2.531
19675SOL    HW160864   3.779   7.986   2.502
19675SOL    HW260865   3.813   8.074   2.620
19676SOL     OW60866  13.804   1.449  14.500
19676SOL    HW160867  13.721   1.474  14.458
19676SOL    HW260868  13.870   1.468  14.434
19677SOL     OW60869   3.238   4.786   6.310
19677SOL    HW160870   3.245   4.881   6.318
19677SOL    HW260871   3.311   4.760   6.254
19678SOL     OW60872  14.388   3.880   7.390
19678SOL    HW160873  14.411   3.972   7.397
19678SOL    HW260874  14.448   3.844   7.325
19679SOL     OW60875  12.476   6.670   6.108
19679SOL    HW160876  12.523   6.742   6.151
19679SOL    HW260877  12.516   6.591   6.144
19680SOL     OW60878  11.251   4.570   7.683
19680SOL    HW160879  11.169   4.522   7.697
19680SOL    HW260880  11.250   4.592   7.590
19681SOL     OW60881  10.546   9.090   4.902
19681SOL    HW160882  10.608   9.067   4.972
19681SOL    HW260883  10.462   9.054   4.931
19682SOL     OW60884   3.764   9.753   2.397
19682SOL    HW160885   3.788   9.682   2.337
19682SOL    HW260886   3.847   9.799   2.413
19683SOL     OW60887   2.668  11.787   3.053
19683SOL    HW160888   2.658  11.742   3.137
19683SOL    HW260889   2.762  11.790   3.038
19684SOL     OW60890   6.130   4.836   6.735
19684SOL    HW160891   6.056   4.896   6.730
19684SOL    HW260892   6.090   4.751   6.755
19685SOL     OW60893   5.142   8.575  11.584
19685SOL    HW160894   5.215   8.555  11.526
19685SOL    HW260895   5.079   8.621  11.529
19686SOL     OW60896   6.327  12.086   6.078
19686SOL    HW160897   6.394  12.109   6.013
19686SOL    HW260898   6.244  12.096   6.031
19687SOL     OW60899   6.026  14.420   9.095
19687SOL    HW160900   5.966  14.364   9.144
19687SOL    HW260901   6.102  14.429   9.151
19688SOL     OW60902  14.060   2.628   6.093
19688SOL    HW160903  14.112   2.591   6.164
19688SOL    HW260904  14.105   2.710   6.071
19689SOL     OW60905  10.918   4.435  12.470
19689SOL    HW160906  10.905   4.341  12.461
19689SOL    HW260907  10.840   4.474  12.430
19690SOL     OW60908   7.214  14.259   5.088
19690SOL    HW160909   7.184  14.300   5.169
19690SOL    HW260910   7.141  14.202   5.062
19691SOL     OW60911   3.791   0.509   4.777
19691SOL    HW160912   3.739   0.450   4.830
19691SOL    HW260913   3.868   0.458   4.752
19692SOL     OW60914   8.589  10.528   0.548
19692SOL    HW160915   8.530  10.454   0.566
19692SOL    HW260916   8.536  10.591   0.500
19693SOL     OW60917  13.861   7.829  11.369
19693SOL    HW160918  13.876   7.871  11.285
19693SOL    HW260919  13.916   7.751  11.368
19694SOL     OW60920   4.423   4.755  10.222
19694SOL    HW160921   4.453   4.723  10.137
19694SOL    HW260922   4.462   4.694  10.285
19695SOL     OW60923   0.176   4.455   5.983
19695SOL    HW160924   0.145   4.545   5.975
19695SOL    HW260925   0.098   4.402   5.967
19696SOL     OW60926   3.608   0.461  11.790
19696SOL    HW160927   3.682   0.456  11.729
19696SOL    HW260928   3.625   0.541  11.840
19697SOL     OW60929  13.034   2.564   3.406
19697SOL    HW160930  13.102   2.632   3.410
19697SOL    HW260931  12.998   2.561   3.494
19698SOL     OW60932  14.380  11.176   6.413
19698SOL    HW160933  14.455  11.234   6.405
19698SOL    HW260934  14.336  11.181   6.328
19699SOL     OW60935   8.073   7.453  10.749
19699SOL    HW160936   8.023   7.425  10.673
19699SOL    HW260937   8.127   7.377  10.772
19700SOL     OW60938   8.410   0.321   8.371
19700SOL    HW160939   8.443   0.343   8.458
19700SOL    HW260940   8.472   0.363   8.311
19701SOL     OW60941   9.297   0.871   8.229
19701SOL    HW160942   9.202   0.876   8.243
19701SOL    HW260943   9.333   0.933   8.292
19702SOL     OW60944   1.153  10.482   1.568
19702SOL    HW160945   1.227  10.477   1.628
19702SOL    HW260946   1.085  10.528   1.617
19703SOL     OW60947   4.656   0.079   3.451
19703SOL    HW160948   4.736   0.100   3.500
19703SOL    HW260949   4.666   0.125   3.368
19704SOL     OW60950   9.393  11.570   2.066
19704SOL    HW160951   9.369  11.661   2.050
19704SOL    HW260952   9.449  11.573   2.143
19705SOL     OW60953   0.451  13.423   6.183
19705SOL    HW160954   0.477  13.513   6.205
19705SOL    HW260955   0.429  13.426   6.090
19706SOL     OW60956   4.159   0.611  14.544
19706SOL    HW160957   4.169   0.597  14.450
19706SOL    HW260958   4.240   0.655  14.570
19707SOL     OW60959   7.292   1.466   9.080
19707SOL    HW160960   7.282   1.525   9.154
19707SOL    HW260961   7.216   1.484   9.024
19708SOL     OW60962   1.905   2.256   1.709
19708SOL    HW160963   1.948   2.171   1.718
19708SOL    HW260964   1.978   2.318   1.698
19709SOL     OW60965   1.903   2.103  11.149
19709SOL    HW160966   1.982   2.048  11.149
19709SOL    HW260967   1.878   2.109  11.241
19710SOL     OW60968   9.746   9.462   9.128
19710SOL    HW160969   9.696   9.420   9.198
19710SOL    HW260970   9.799   9.391   9.091
19711SOL     OW60971   3.044   3.786   2.752
19711SOL    HW160972   3.016   3.700   2.724
19711SOL    HW260973   3.025   3.844   2.678
19712SOL     OW60974   3.006  11.474  13.888
19712SOL    HW160975   3.093  11.460  13.925
19712SOL    HW260976   2.954  11.400  13.918
19713SOL     OW60977  13.230  10.176   9.923
19713SOL    HW160978  13.245  10.259   9.968
19713SOL    HW260979  13.286  10.113   9.969
19714SOL     OW60980   5.884  12.780   8.559
19714SOL    HW160981   5.933  12.855   8.592
19714SOL    HW260982   5.861  12.730   8.637
19715SOL     OW60983  14.278  13.205   8.646
19715SOL    HW160984  14.339  13.142   8.684
19715SOL    HW260985  14.314  13.223   8.559
19716SOL     OW60986   1.820   1.818   9.360
19716SOL    HW160987   1.796   1.905   9.328
19716SOL    HW260988   1.906   1.801   9.321
19717SOL     OW60989   5.275  10.377   7.050
19717SOL    HW160990   5.349  10.380   6.988
19717SOL    HW260991   5.204  10.421   7.004
19718SOL     OW60992  14.819   3.572   3.472
19718SOL    HW160993  14.759   3.532   3.534
19718SOL    HW260994   0.027   3.580   3.520
19719SOL     OW60995  11.084   8.871   8.490
19719SOL    HW160996  11.039   8.832   8.415
19719SOL    HW260997  11.176   8.850   8.476
19720SOL     OW60998   8.619   5.516  13.156
19720SOL    HW160999   8.607   5.541  13.248
19720SOL    HW261000   8.592   5.593  13.106
19721SOL     OW61001   8.023   2.912   9.077
19721SOL    HW161002   8.090   2.924   9.010
19721SOL    HW261003   7.943   2.950   9.039
19722SOL     OW61004  12.280   8.387   9.901
19722SOL    HW161005  12.285   8.419   9.811
19722SOL    HW261006  12.239   8.459   9.949
19723SOL     OW61007   7.022   2.182   5.553
19723SOL    HW161008   7.004   2.199   5.646
19723SOL    HW261009   7.079   2.105   5.553
19724SOL     OW61010   8.027   3.990   9.149
19724SOL    HW161011   8.056   3.900   9.166
19724SOL    HW261012   8.094   4.045   9.190
19725SOL     OW61013   9.862   7.308   6.536
19725SOL    HW161014   9.872   7.237   6.599
19725SOL    HW261015   9.783   7.354   6.565
19726SOL     OW61016   2.446   3.662   6.729
19726SOL    HW161017   2.484   3.602   6.665
19726SOL    HW261018   2.510   3.666   6.800
19727SOL     OW61019   4.240  13.938   5.493
19727SOL    HW161020   4.304  13.963   5.426
19727SOL    HW261021   4.209  14.021   5.529
19728SOL     OW61022   3.266   0.106  11.855
19728SOL    HW161023   3.198   0.047  11.887
19728SOL    HW261024   3.348   0.063  11.878
19729SOL     OW61025   8.893   4.493  14.004
19729SOL    HW161026   8.837   4.449  14.068
19729SOL    HW261027   8.961   4.536  14.056
19730SOL     OW61028  10.843  13.001   7.561
19730SOL    HW161029  10.875  12.992   7.651
19730SOL    HW261030  10.883  12.928   7.514
19731SOL     OW61031   7.893   0.891   5.481
19731SOL    HW161032   7.803   0.884   5.513
19731SOL    HW261033   7.885   0.933   5.396
19732SOL     OW61034   2.063  11.471   7.421
19732SOL    HW161035   2.093  11.557   7.393
19732SOL    HW261036   2.052  11.421   7.340
19733SOL     OW61037   4.224   9.910   0.937
19733SOL    HW161038   4.148   9.947   0.893
19733SOL    HW261039   4.292   9.977   0.927
19734SOL     OW61040  13.656  14.729   0.094
19734SOL    HW161041  13.648  14.811   0.045
19734SOL    HW261042  13.730  14.684   0.052
19735SOL     OW61043   7.454   2.358   0.314
19735SOL    HW161044   7.370   2.364   0.270
19735SOL    HW261045   7.497   2.441   0.294
19736SOL     OW61046  11.182   4.051  11.304
19736SOL    HW161047  11.110   4.104  11.339
19736SOL    HW261048  11.214   4.002  11.379
19737SOL     OW61049   9.034   3.386   6.972
19737SOL    HW161050   8.951   3.364   7.015
19737SOL    HW261051   9.098   3.389   7.042
19738SOL     OW61052   4.569   1.189   8.426
19738SOL    HW161053   4.523   1.177   8.508
19738SOL    HW261054   4.521   1.259   8.381
19739SOL     OW61055   4.453   7.930   0.024
19739SOL    HW161056   4.388   7.884  14.845
19739SOL    HW261057   4.528   7.942  14.839
19740SOL     OW61058   2.728   9.981  14.703
19740SOL    HW161059   2.734   9.889  14.730
19740SOL    HW261060   2.637  10.006  14.722
19741SOL     OW61061   0.552  11.653   6.141
19741SOL    HW161062   0.545  11.669   6.235
19741SOL    HW261063   0.599  11.570   6.134
19742SOL     OW61064  10.924   8.291  14.483
19742SOL    HW161065  10.952   8.300  14.574
19742SOL    HW261066  10.839   8.336  14.480
19743SOL     OW61067  11.266   8.807   9.879
19743SOL    HW161068  11.243   8.853   9.798
19743SOL    HW261069  11.285   8.877   9.941
19744SOL     OW61070   5.564   4.110   4.873
19744SOL    HW161071   5.532   4.103   4.963
19744SOL    HW261072   5.495   4.070   4.820
19745SOL     OW61073  11.097   5.516   3.832
19745SOL    HW161074  11.099   5.528   3.927
19745SOL    HW261075  11.025   5.572   3.803
19746SOL     OW61076  10.053   9.068  10.823
19746SOL    HW161077   9.966   9.039  10.797
19746SOL    HW261078  10.039   9.116  10.904
19747SOL     OW61079   7.715   0.186   7.131
19747SOL    HW161080   7.773   0.235   7.189
19747SOL    HW261081   7.770   0.158   7.058
19748SOL     OW61082  10.253   7.304   3.146
19748SOL    HW161083  10.202   7.223   3.154
19748SOL    HW261084  10.227   7.355   3.223
19749SOL     OW61085   1.604   9.440   1.514
19749SOL    HW161086   1.513   9.465   1.526
19749SOL    HW261087   1.616   9.435   1.419
19750SOL     OW61088   1.557  13.905  14.716
19750SOL    HW161089   1.648  13.931  14.725
19750SOL    HW261090   1.509  13.963  14.775
19751SOL     OW61091   4.996   8.425  10.663
19751SOL    HW161092   5.030   8.504  10.705
19751SOL    HW261093   4.909   8.414  10.701
19752SOL     OW61094   1.351   8.730   4.319
19752SOL    HW161095   1.293   8.788   4.370
19752SOL    HW261096   1.323   8.743   4.229
19753SOL     OW61097   6.172   0.915   4.191
19753SOL    HW161098   6.121   0.909   4.271
19753SOL    HW261099   6.243   0.853   4.203
19754SOL     OW61100  12.774   7.697   3.121
19754SOL    HW161101  12.731   7.765   3.069
19754SOL    HW261102  12.846   7.666   3.066
19755SOL     OW61103   5.268   8.497   5.052
19755SOL    HW161104   5.237   8.494   5.143
19755SOL    HW261105   5.188   8.496   5.000
19756SOL     OW61106  12.038  12.879   2.871
19756SOL    HW161107  12.102  12.943   2.840
19756SOL    HW261108  11.966  12.883   2.808
19757SOL     OW61109  14.673   6.712   3.954
19757SOL    HW161110  14.605   6.650   3.929
19757SOL    HW261111  14.735   6.661   4.006
19758SOL     OW61112   7.679  11.996   5.074
19758SOL    HW161113   7.622  11.976   5.149
19758SOL    HW261114   7.765  11.962   5.100
19759SOL     OW61115   4.968   4.586   1.508
19759SOL    HW161116   4.981   4.517   1.443
19759SOL    HW261117   4.927   4.542   1.582
19760SOL     OW61118  13.803   9.919   0.258
19760SOL    HW161119  13.733   9.854   0.264
19760SOL    HW261120  13.787   9.964   0.175
19761SOL     OW61121   7.733   9.108   4.503
19761SOL    HW161122   7.765   9.172   4.567
19761SOL    HW261123   7.640   9.125   4.495
19762SOL     OW61124   0.213   0.484   6.780
19762SOL    HW161125   0.256   0.419   6.836
19762SOL    HW261126   0.245   0.466   6.692
19763SOL     OW61127  10.405   7.055   1.843
19763SOL    HW161128  10.386   7.069   1.750
19763SOL    HW261129  10.359   7.125   1.888
19764SOL     OW61130   7.771  10.898   0.128
19764SOL    HW161131   7.847  10.931   0.176
19764SOL    HW261132   7.728  10.839   0.189
19765SOL     OW61133   4.830   4.452   1.706
19765SOL    HW161134   4.868   4.398   1.775
19765SOL    HW261135   4.751   4.488   1.744
19766SOL     OW61136   2.800   8.384   9.862
19766SOL    HW161137   2.779   8.396   9.769
19766SOL    HW261138   2.894   8.369   9.864
19767SOL     OW61139   0.279   6.779   0.985
19767SOL    HW161140   0.274   6.801   1.078
19767SOL    HW261141   0.282   6.864   0.941
19768SOL     OW61142  13.997   6.388   6.202
19768SOL    HW161143  14.059   6.438   6.255
19768SOL    HW261144  13.918   6.442   6.201
19769SOL     OW61145  12.792  13.062   0.553
19769SOL    HW161146  12.699  13.062   0.532
19769SOL    HW261147  12.836  13.043   0.470
19770SOL     OW61148   9.818   6.659   6.105
19770SOL    HW161149   9.728   6.668   6.137
19770SOL    HW261150   9.838   6.566   6.115
19771SOL     OW61151   7.278   5.585   4.092
19771SOL    HW161152   7.370   5.557   4.087
19771SOL    HW261153   7.237   5.547   4.014
19772SOL     OW61154   5.681  13.770   6.583
19772SOL    HW161155   5.600  13.722   6.565
19772SOL    HW261156   5.674  13.794   6.676
19773SOL     OW61157  12.192   3.563  14.128
19773SOL    HW161158  12.205   3.598  14.216
19773SOL    HW261159  12.273   3.585  14.081
19774SOL     OW61160   6.853  13.194   5.101
19774SOL    HW161161   6.909  13.140   5.157
19774SOL    HW261162   6.774  13.142   5.087
19775SOL     OW61163   6.596  11.285   7.087
19775SOL    HW161164   6.690  11.280   7.069
19775SOL    HW261165   6.580  11.215   7.150
19776SOL     OW61166   9.737   7.527   3.679
19776SOL    HW161167   9.699   7.452   3.727
19776SOL    HW261168   9.682   7.601   3.705
19777SOL     OW61169  10.943  11.367   4.953
19777SOL    HW161170  10.953  11.461   4.934
19777SOL    HW261171  10.879  11.365   5.025
19778SOL     OW61172  14.741   9.953   7.650
19778SOL    HW161173  14.769   9.863   7.666
19778SOL    HW261174  14.645   9.948   7.649
19779SOL     OW61175  14.040   7.618  11.657
19779SOL    HW161176  14.100   7.659  11.719
19779SOL    HW261177  14.094   7.602  11.579
19780SOL     OW61178  10.718   8.187  11.181
19780SOL    HW161179  10.678   8.103  11.162
19780SOL    HW261180  10.751   8.179  11.270
19781SOL     OW61181   0.391  14.186  12.156
19781SOL    HW161182   0.320  14.245  12.183
19781SOL    HW261183   0.346  14.108  12.122
19782SOL     OW61184   7.713   4.924   4.686
19782SOL    HW161185   7.714   4.909   4.592
19782SOL    HW261186   7.695   5.018   4.696
19783SOL     OW61187   5.911   7.073   9.376
19783SOL    HW161188   5.935   7.118   9.295
19783SOL    HW261189   5.942   6.984   9.366
19784SOL     OW61190  13.919   4.452   8.943
19784SOL    HW161191  13.974   4.415   8.874
19784SOL    HW261192  13.853   4.503   8.896
19785SOL     OW61193  14.366   7.092   8.039
19785SOL    HW161194  14.345   7.093   7.945
19785SOL    HW261195  14.455   7.057   8.043
19786SOL     OW61196  14.719   3.929  10.678
19786SOL    HW161197  14.636   3.974  10.697
19786SOL    HW261198  14.718   3.918  10.583
19787SOL     OW61199   6.054   9.990  12.521
19787SOL    HW161200   5.977  10.047  12.513
19787SOL    HW261201   6.048   9.930  12.448
19788SOL     OW61202   9.163  10.293   8.894
19788SOL    HW161203   9.215  10.368   8.921
19788SOL    HW261204   9.072  10.321   8.903
19789SOL     OW61205   3.023   9.698  13.050
19789SOL    HW161206   2.984   9.697  12.962
19789SOL    HW261207   2.956   9.662  13.107
19790SOL     OW61208  12.138   6.137  13.102
19790SOL    HW161209  12.221   6.092  13.087
19790SOL    HW261210  12.074   6.081  13.057
19791SOL     OW61211  11.719   0.436  10.160
19791SOL    HW161212  11.635   0.397  10.135
19791SOL    HW261213  11.780   0.407  10.093
19792SOL     OW61214   5.903   7.087   2.974
19792SOL    HW161215   5.995   7.090   3.001
19792SOL    HW261216   5.865   7.167   3.008
19793SOL     OW61217   1.124  10.495   9.684
19793SOL    HW161218   1.129  10.473   9.591
19793SOL    HW261219   1.032  10.516   9.698
19794SOL     OW61220   3.165   1.763  10.689
19794SOL    HW161221   3.193   1.766  10.781
19794SOL    HW261222   3.073   1.787  10.691
19795SOL     OW61223  14.171   7.100  10.355
19795SOL    HW161224  14.256   7.068  10.324
19795SOL    HW261225  14.108   7.056  10.298
19796SOL     OW61226  12.606   1.601  14.568
19796SOL    HW161227  12.543   1.660  14.526
19796SOL    HW261228  12.605   1.522  14.513
19797SOL     OW61229   2.919   7.707   4.312
19797SOL    HW161230   2.952   7.761   4.241
19797SOL    HW261231   2.986   7.639   4.324
19798SOL     OW61232   3.574  11.770  12.937
19798SOL    HW161233   3.542  11.691  12.980
19798SOL    HW261234   3.563  11.753  12.844
19799SOL     OW61235   2.240   0.406   4.283
19799SOL    HW161236   2.271   0.368   4.365
19799SOL    HW261237   2.148   0.426   4.298
19800SOL     OW61238  11.756   5.335  11.510
19800SOL    HW161239  11.829   5.396  11.509
19800SOL    HW261240  11.797   5.248  11.512
19801SOL     OW61241   3.243   9.550   6.685
19801SOL    HW161242   3.222   9.585   6.598
19801SOL    HW261243   3.251   9.456   6.672
19802SOL     OW61244   1.948   1.574   4.694
19802SOL    HW161245   1.853   1.582   4.688
19802SOL    HW261246   1.972   1.627   4.770
19803SOL     OW61247  13.751  12.352   7.982
19803SOL    HW161248  13.821  12.363   7.917
19803SOL    HW261249  13.738  12.258   7.988
19804SOL     OW61250   3.842   4.887  14.469
19804SOL    HW161251   3.762   4.932  14.441
19804SOL    HW261252   3.871   4.838  14.392
19805SOL     OW61253   0.527  11.167   1.693
19805SOL    HW161254   0.516  11.219   1.613
19805SOL    HW261255   0.616  11.131   1.685
19806SOL     OW61256  11.731   9.282   6.297
19806SOL    HW161257  11.761   9.357   6.245
19806SOL    HW261258  11.794   9.277   6.369
19807SOL     OW61259   1.623  14.449  11.439
19807SOL    HW161260   1.534  14.415  11.423
19807SOL    HW261261   1.666  14.442  11.354
19808SOL     OW61262   4.689   9.418   6.878
19808SOL    HW161263   4.749   9.461   6.938
19808SOL    HW261264   4.674   9.332   6.916
19809SOL     OW61265   2.776   4.035  12.211
19809SOL    HW161266   2.860   4.059  12.172
19809SOL    HW261267   2.736   4.119  12.234
19810SOL     OW61268   9.360  14.685   8.430
19810SOL    HW161269   9.351  14.595   8.399
19810SOL    HW261270   9.272  14.721   8.423
19811SOL     OW61271   8.438   5.055  11.753
19811SOL    HW161272   8.485   5.102  11.685
19811SOL    HW261273   8.350   5.044  11.718
19812SOL     OW61274   1.008   6.091  11.624
19812SOL    HW161275   0.997   6.015  11.681
19812SOL    HW261276   0.949   6.074  11.550
19813SOL     OW61277   1.690  10.036   2.184
19813SOL    HW161278   1.754   9.969   2.159
19813SOL    HW261279   1.709  10.110   2.127
19814SOL     OW61280   6.961  14.086   5.580
19814SOL    HW161281   6.954  14.006   5.632
19814SOL    HW261282   6.982  14.154   5.643
19815SOL     OW61283   1.768   5.420   1.899
19815SOL    HW161284   1.782   5.328   1.922
19815SOL    HW261285   1.768   5.466   1.983
19816SOL     OW61286   4.206  10.697   2.470
19816SOL    HW161287   4.165  10.669   2.388
19816SOL    HW261288   4.218  10.791   2.460
19817SOL     OW61289   7.590  11.978  14.844
19817SOL    HW161290   7.626  12.046  14.787
19817SOL    HW261291   7.661  11.914  14.851
19818SOL     OW61292   2.259   4.637   0.694
19818SOL    HW161293   2.165   4.633   0.713
19818SOL    HW261294   2.297   4.681   0.770
19819SOL     OW61295   4.330  11.223   6.115
19819SOL    HW161296   4.422  11.218   6.141
19819SOL    HW261297   4.317  11.146   6.059
19820SOL     OW61298   0.192   9.463   2.451
19820SOL    HW161299   0.234   9.549   2.440
19820SOL    HW261300   0.139   9.472   2.530
19821SOL     OW61301   8.891   0.908   5.640
19821SOL    HW161302   8.886   0.993   5.683
19821SOL    HW261303   8.808   0.865   5.661
19822SOL     OW61304  11.097   9.294  12.728
19822SOL    HW161305  11.151   9.293  12.807
19822SOL    HW261306  11.158   9.317  12.658
19823SOL     OW61307  10.535   0.562   3.709
19823SOL    HW161308  10.513   0.561   3.616
19823SOL    HW261309  10.521   0.653   3.737
19824SOL     OW61310   6.203   2.441  12.794
19824SOL    HW161311   6.297   2.423  12.786
19824SOL    HW261312   6.197   2.521  12.846
19825SOL     OW61313   5.344  14.329  12.332
19825SOL    HW161314   5.355  14.236  12.349
19825SOL    HW261315   5.417  14.372  12.376
19826SOL     OW61316   9.789  10.385   1.616
19826SOL    HW161317   9.740  10.467   1.616
19826SOL    HW261318   9.740  10.327   1.558
19827SOL     OW61319   3.386  12.877  12.199
19827SOL    HW161320   3.460  12.845  12.251
19827SOL    HW261321   3.423  12.897  12.113
19828SOL     OW61322  14.092  11.683   4.491
19828SOL    HW161323  14.056  11.613   4.546
19828SOL    HW261324  14.178  11.649   4.464
19829SOL     OW61325   8.761   2.851   4.844
19829SOL    HW161326   8.723   2.765   4.860
19829SOL    HW261327   8.818   2.838   4.768
19830SOL     OW61328  10.695   4.450   6.928
19830SOL    HW161329  10.772   4.501   6.954
19830SOL    HW261330  10.656   4.500   6.856
19831SOL     OW61331   9.939   9.786   9.512
19831SOL    HW161332   9.925   9.712   9.571
19831SOL    HW261333   9.867   9.846   9.532
19832SOL     OW61334  10.036   1.865  10.949
19832SOL    HW161335   9.977   1.840  10.878
19832SOL    HW261336  10.113   1.809  10.938
19833SOL     OW61337   0.575   1.010   0.396
19833SOL    HW161338   0.502   1.017   0.457
19833SOL    HW261339   0.543   1.050   0.315
19834SOL     OW61340  14.162  10.082   5.104
19834SOL    HW161341  14.136   9.993   5.128
19834SOL    HW261342  14.184  10.075   5.011
19835SOL     OW61343   5.659   9.284   7.995
19835SOL    HW161344   5.589   9.244   7.945
19835SOL    HW261345   5.619   9.362   8.035
19836SOL     OW61346  12.014  10.876   3.852
19836SOL    HW161347  11.976  10.789   3.858
19836SOL    HW261348  12.108  10.862   3.862
19837SOL     OW61349   1.373   7.339  14.159
19837SOL    HW161350   1.364   7.272  14.092
19837SOL    HW261351   1.468   7.353  14.165
19838SOL     OW61352  14.042   0.961   2.030
19838SOL    HW161353  14.108   0.906   1.989
19838SOL    HW261354  14.086   0.999   2.107
19839SOL     OW61355   6.640   7.637   3.819
19839SOL    HW161356   6.677   7.674   3.899
19839SOL    HW261357   6.569   7.580   3.849
19840SOL     OW61358   0.503  12.989   6.775
19840SOL    HW161359   0.592  13.017   6.751
19840SOL    HW261360   0.490  12.909   6.723
19841SOL     OW61361   5.131  13.145   4.729
19841SOL    HW161362   5.054  13.088   4.729
19841SOL    HW261363   5.161  13.146   4.639
19842SOL     OW61364   1.504   5.367   0.199
19842SOL    HW161365   1.473   5.392   0.286
19842SOL    HW261366   1.591   5.407   0.192
19843SOL     OW61367  10.186  10.793  11.328
19843SOL    HW161368  10.099  10.834  11.328
19843SOL    HW261369  10.169  10.699  11.333
19844SOL     OW61370   3.635  11.659   1.325
19844SOL    HW161371   3.680  11.743   1.327
19844SOL    HW261372   3.694  11.601   1.277
19845SOL     OW61373  11.088   6.010  14.484
19845SOL    HW161374  11.058   5.945  14.421
19845SOL    HW261375  11.146   6.067  14.434
19846SOL     OW61376  11.709  10.222   1.452
19846SOL    HW161377  11.712  10.150   1.390
19846SOL    HW261378  11.775  10.284   1.420
19847SOL     OW61379   0.460   0.889   4.825
19847SOL    HW161380   0.435   0.841   4.904
19847SOL    HW261381   0.548   0.857   4.805
19848SOL     OW61382  12.870  14.218   8.565
19848SOL    HW161383  12.877  14.124   8.548
19848SOL    HW261384  12.911  14.259   8.488
19849SOL     OW61385  12.191  10.970   4.537
19849SOL    HW161386  12.168  10.981   4.445
19849SOL    HW261387  12.248  11.044   4.557
19850SOL     OW61388   0.200  12.355  12.145
19850SOL    HW161389   0.219  12.426  12.206
19850SOL    HW261390   0.253  12.374  12.068
19851SOL     OW61391  13.689  13.972   3.277
19851SOL    HW161392  13.736  13.917   3.214
19851SOL    HW261393  13.756  14.001   3.338
19852SOL     OW61394  14.801  14.022  14.831
19852SOL    HW161395  14.765  13.937  14.855
19852SOL    HW261396  14.832  14.010  14.741
19853SOL     OW61397   1.116   7.214  13.858
19853SOL    HW161398   1.056   7.150  13.898
19853SOL    HW261399   1.075   7.299  13.875
19854SOL     OW61400  12.989  12.707   2.390
19854SOL    HW161401  12.920  12.680   2.450
19854SOL    HW261402  12.958  12.681   2.303
19855SOL     OW61403   6.381   2.265  10.235
19855SOL    HW161404   6.374   2.315  10.316
19855SOL    HW261405   6.310   2.201  10.240
19856SOL     OW61406   5.338   6.515   6.342
19856SOL    HW161407   5.363   6.424   6.323
19856SOL    HW261408   5.416   6.566   6.318
19857SOL     OW61409   7.271   8.019   1.114
19857SOL    HW161410   7.260   7.927   1.090
19857SOL    HW261411   7.242   8.067   1.037
19858SOL     OW61412  12.374   0.468   5.090
19858SOL    HW161413  12.450   0.438   5.141
19858SOL    HW261414  12.337   0.539   5.142
19859SOL     OW61415   9.680   8.498   8.231
19859SOL    HW161416   9.620   8.494   8.305
19859SOL    HW261417   9.635   8.450   8.161
19860SOL     OW61418  14.385   7.222  10.809
19860SOL    HW161419  14.339   7.154  10.858
19860SOL    HW261420  14.418   7.281  10.877
19861SOL     OW61421  11.325   4.578  12.575
19861SOL    HW161422  11.385   4.624  12.518
19861SOL    HW261423  11.365   4.584  12.662
19862SOL     OW61424   3.571   5.829   2.579
19862SOL    HW161425   3.612   5.743   2.580
19862SOL    HW261426   3.587   5.864   2.667
19863SOL     OW61427   5.597   5.636   8.557
19863SOL    HW161428   5.683   5.639   8.515
19863SOL    HW261429   5.569   5.545   8.547
19864SOL     OW61430   9.169  12.559   3.044
19864SOL    HW161431   9.203  12.624   3.105
19864SOL    HW261432   9.194  12.474   3.081
19865SOL     OW61433  12.739   6.423  11.924
19865SOL    HW161434  12.702   6.456  11.842
19865SOL    HW261435  12.729   6.328  11.917
19866SOL     OW61436  13.311   2.494   3.557
19866SOL    HW161437  13.323   2.490   3.462
19866SOL    HW261438  13.275   2.581   3.573
19867SOL     OW61439   8.755   3.483  13.188
19867SOL    HW161440   8.783   3.508  13.100
19867SOL    HW261441   8.664   3.455  13.177
19868SOL     OW61442  12.813   4.260   4.776
19868SOL    HW161443  12.791   4.300   4.692
19868SOL    HW261444  12.733   4.268   4.829
19869SOL     OW61445   4.495   2.031  11.496
19869SOL    HW161446   4.414   2.081  11.486
19869SOL    HW261447   4.509   2.025  11.590
19870SOL     OW61448  14.159   1.433   4.475
19870SOL    HW161449  14.215   1.439   4.553
19870SOL    HW261450  14.220   1.423   4.402
19871SOL     OW61451   4.971   3.542   7.424
19871SOL    HW161452   5.018   3.570   7.503
19871SOL    HW261453   4.973   3.619   7.366
19872SOL     OW61454   8.516   8.537  13.941
19872SOL    HW161455   8.421   8.529  13.934
19872SOL    HW261456   8.534   8.527  14.034
19873SOL     OW61457   0.601  12.297   1.918
19873SOL    HW161458   0.517  12.311   1.873
19873SOL    HW261459   0.645  12.382   1.911
19874SOL     OW61460  12.964   1.299  13.023
19874SOL    HW161461  12.946   1.236  13.093
19874SOL    HW261462  12.968   1.384  13.067
19875SOL     OW61463  13.352  14.615  11.704
19875SOL    HW161464  13.419  14.556  11.670
19875SOL    HW261465  13.384  14.703  11.682
19876SOL     OW61466  13.170   6.537   5.612
19876SOL    HW161467  13.140   6.458   5.568
19876SOL    HW261468  13.143   6.608   5.553
19877SOL     OW61469   7.671   8.146  14.506
19877SOL    HW161470   7.626   8.095  14.573
19877SOL    HW261471   7.602   8.193  14.460
19878SOL     OW61472   7.989  12.741   8.882
19878SOL    HW161473   8.038  12.660   8.867
19878SOL    HW261474   7.898  12.713   8.886
19879SOL     OW61475   7.464   2.578   7.732
19879SOL    HW161476   7.382   2.578   7.780
19879SOL    HW261477   7.520   2.639   7.780
19880SOL     OW61478   9.165   2.847   9.869
19880SOL    HW161479   9.152   2.764   9.823
19880SOL    HW261480   9.076   2.879   9.885
19881SOL     OW61481  10.597  13.650   0.274
19881SOL    HW161482  10.692  13.644   0.267
19881SOL    HW261483  10.575  13.728   0.224
19882SOL     OW61484   0.404   6.427   2.869
19882SOL    HW161485   0.381   6.513   2.834
19882SOL    HW261486   0.322   6.393   2.905
19883SOL     OW61487  10.334   0.935   3.062
19883SOL    HW161488  10.336   0.862   3.125
19883SOL    HW261489  10.246   0.971   3.071
19884SOL     OW61490   5.615   6.367   8.943
19884SOL    HW161491   5.550   6.299   8.962
19884SOL    HW261492   5.637   6.353   8.851
19885SOL     OW61493  14.423  11.227  14.144
19885SOL    HW161494  14.438  11.215  14.050
19885SOL    HW261495  14.380  11.312  14.151
19886SOL     OW61496   1.902  14.762  13.783
19886SOL    HW161497   1.866  14.811  13.709
19886SOL    HW261498   1.903  14.825  13.856
19887SOL     OW61499   4.549   7.500  10.153
19887SOL    HW161500   4.462   7.529  10.127
19887SOL    HW261501   4.606   7.526  10.081
19888SOL     OW61502  13.401   0.553   8.983
19888SOL    HW161503  13.424   0.519   8.896
19888SOL    HW261504  13.355   0.481   9.026
19889SOL     OW61505   6.602   9.122  11.145
19889SOL    HW161506   6.613   9.079  11.061
19889SOL    HW261507   6.667   9.079  11.202
19890SOL     OW61508  10.962  10.297   8.503
19890SOL    HW161509  10.871  10.282   8.529
19890SOL    HW261510  10.960  10.296   8.408
19891SOL     OW61511   7.019   1.367   9.807
19891SOL    HW161512   6.935   1.381   9.850
19891SOL    HW261513   7.001   1.302   9.740
19892SOL     OW61514  14.750   2.692   9.625
19892SOL    HW161515  14.742   2.729   9.713
19892SOL    HW261516  14.687   2.741   9.572
19893SOL     OW61517   1.517   1.182  10.025
19893SOL    HW161518   1.557   1.141  10.102
19893SOL    HW261519   1.530   1.117   9.955
19894SOL     OW61520   6.016  14.872  14.234
19894SOL    HW161521   6.043   0.061  14.301
19894SOL    HW261522   6.096  14.851  14.186
19895SOL     OW61523  10.306   5.238   2.230
19895SOL    HW161524  10.383   5.281   2.266
19895SOL    HW261525  10.336   5.151   2.204
19896SOL     OW61526  12.655   8.954  12.912
19896SOL    HW161527  12.683   8.978  13.001
19896SOL    HW261528  12.656   9.037  12.864
19897SOL     OW61529   5.246  11.106   0.576
19897SOL    HW161530   5.200  11.047   0.517
19897SOL    HW261531   5.271  11.051   0.650
19898SOL     OW61532   2.975   6.840  10.516
19898SOL    HW161533   3.019   6.861  10.599
19898SOL    HW261534   3.047   6.815  10.457
19899SOL     OW61535  12.966  11.070  10.331
19899SOL    HW161536  12.872  11.088  10.326
19899SOL    HW261537  12.974  11.006  10.401
19900SOL     OW61538  12.862   1.995   9.966
19900SOL    HW161539  12.771   2.011   9.990
19900SOL    HW261540  12.902   1.959  10.045
19901SOL     OW61541   5.795   1.545   4.257
19901SOL    HW161542   5.764   1.629   4.222
19901SOL    HW261543   5.822   1.565   4.347
19902SOL     OW61544   5.346  10.844   8.145
19902SOL    HW161545   5.284  10.874   8.212
19902SOL    HW261546   5.299  10.776   8.098
19903SOL     OW61547   8.301   2.268  13.093
19903SOL    HW161548   8.391   2.270  13.060
19903SOL    HW261549   8.301   2.200  13.160
19904SOL     OW61550  13.609   0.903  12.379
19904SOL    HW161551  13.644   0.911  12.290
19904SOL    HW261552  13.545   0.974  12.385
19905SOL     OW61553  12.129  11.465  11.785
19905SOL    HW161554  12.090  11.378  11.781
19905SOL    HW261555  12.126  11.496  11.694
19906SOL     OW61556  11.242   2.610  10.446
19906SOL    HW161557  11.315   2.550  10.460
19906SOL    HW261558  11.212   2.591  10.357
19907SOL     OW61559  11.810   1.252  12.433
19907SOL    HW161560  11.743   1.209  12.485
19907SOL    HW261561  11.857   1.181  12.390
19908SOL     OW61562   9.825  11.121   7.603
19908SOL    HW161563   9.894  11.172   7.562
19908SOL    HW261564   9.759  11.185   7.628
19909SOL     OW61565   7.700   9.291   2.368
19909SOL    HW161566   7.731   9.349   2.299
19909SOL    HW261567   7.740   9.207   2.348
19910SOL     OW61568   1.715  11.123   2.941
19910SOL    HW161569   1.793  11.073   2.917
19910SOL    HW261570   1.666  11.065   3.000
19911SOL     OW61571   5.096   7.547  13.320
19911SOL    HW161572   5.129   7.471  13.369
19911SOL    HW261573   5.132   7.537  13.232
19912SOL     OW61574   3.513   9.955  12.837
19912SOL    HW161575   3.473  10.033  12.798
19912SOL    HW261576   3.449   9.886  12.823
19913SOL     OW61577   9.644   8.655   0.563
19913SOL    HW161578   9.620   8.747   0.576
19913SOL    HW261579   9.738   8.658   0.543
19914SOL     OW61580   6.020   3.860   6.503
19914SOL    HW161581   5.961   3.913   6.557
19914SOL    HW261582   6.096   3.844   6.560
19915SOL     OW61583   3.262   8.374   5.436
19915SOL    HW161584   3.202   8.327   5.494
19915SOL    HW261585   3.205   8.425   5.379
19916SOL     OW61586   7.647  13.530   4.984
19916SOL    HW161587   7.602  13.461   5.033
19916SOL    HW261588   7.732  13.538   5.027
19917SOL     OW61589   5.074  12.309   2.541
19917SOL    HW161590   5.158  12.276   2.509
19917SOL    HW261591   5.014  12.236   2.526
19918SOL     OW61592   6.880  11.004   7.290
19918SOL    HW161593   6.960  11.011   7.237
19918SOL    HW261594   6.854  10.913   7.283
19919SOL     OW61595  11.032   9.656   8.855
19919SOL    HW161596  10.972   9.723   8.889
19919SOL    HW261597  11.057   9.689   8.768
19920SOL     OW61598   1.673   0.206   5.492
19920SOL    HW161599   1.687   0.291   5.450
19920SOL    HW261600   1.672   0.143   5.420
19921SOL     OW61601   5.340   9.994   3.123
19921SOL    HW161602   5.298  10.010   3.208
19921SOL    HW261603   5.362  10.081   3.090
19922SOL     OW61604   1.541  14.133  13.726
19922SOL    HW161605   1.622  14.104  13.684
19922SOL    HW261606   1.539  14.228  13.712
19923SOL     OW61607   0.321  14.477  13.703
19923SOL    HW161608   0.296  14.565  13.674
19923SOL    HW261609   0.403  14.460  13.656
19924SOL     OW61610   1.185   3.411   6.084
19924SOL    HW161611   1.276   3.411   6.055
19924SOL    HW261612   1.148   3.330   6.049
19925SOL     OW61613   8.510   1.483   1.362
19925SOL    HW161614   8.430   1.527   1.334
19925SOL    HW261615   8.517   1.503   1.455
19926SOL     OW61616  10.069   8.845   7.927
19926SOL    HW161617   9.985   8.843   7.973
19926SOL    HW261618  10.078   8.935   7.896
19927SOL     OW61619   4.486   9.429   7.348
19927SOL    HW161620   4.487   9.393   7.437
19927SOL    HW261621   4.414   9.492   7.349
19928SOL     OW61622   5.444   1.649  14.219
19928SOL    HW161623   5.480   1.719  14.274
19928SOL    HW261624   5.448   1.684  14.130
19929SOL     OW61625  13.722   9.987  10.384
19929SOL    HW161626  13.814   9.998  10.362
19929SOL    HW261627  13.676  10.048  10.326
19930SOL     OW61628   9.096   1.232   1.177
19930SOL    HW161629   9.040   1.245   1.253
19930SOL    HW261630   9.066   1.297   1.114
19931SOL     OW61631   6.100  13.681  12.674
19931SOL    HW161632   6.194  13.692  12.659
19931SOL    HW261633   6.074  13.613  12.611
19932SOL     OW61634  10.777   1.950   5.984
19932SOL    HW161635  10.756   1.912   5.899
19932SOL    HW261636  10.837   1.887   6.024
19933SOL     OW61637   1.783   9.484   0.413
19933SOL    HW161638   1.747   9.515   0.495
19933SOL    HW261639   1.796   9.563   0.360
19934SOL     OW61640   4.479   9.870   9.719
19934SOL    HW161641   4.470   9.910   9.806
19934SOL    HW261642   4.391   9.839   9.697
19935SOL     OW61643  14.471   5.204   5.199
19935SOL    HW161644  14.483   5.268   5.269
19935SOL    HW261645  14.521   5.127   5.227
19936SOL     OW61646  14.042   4.749   5.010
19936SOL    HW161647  13.992   4.673   5.039
19936SOL    HW261648  13.990   4.824   5.037
19937SOL     OW61649  11.142   9.338   4.069
19937SOL    HW161650  11.212   9.297   4.018
19937SOL    HW261651  11.066   9.282   4.053
19938SOL     OW61652   4.947   6.769   5.588
19938SOL    HW161653   4.943   6.698   5.524
19938SOL    HW261654   4.865   6.763   5.636
19939SOL     OW61655   3.767  11.361   2.073
19939SOL    HW161656   3.835  11.378   2.009
19939SOL    HW261657   3.717  11.442   2.078
19940SOL     OW61658   4.763   1.017   0.263
19940SOL    HW161659   4.772   1.078   0.190
19940SOL    HW261660   4.733   1.071   0.336
19941SOL     OW61661   8.784   4.356   4.565
19941SOL    HW161662   8.695   4.390   4.553
19941SOL    HW261663   8.772   4.274   4.614
19942SOL     OW61664  14.637  14.442   2.952
19942SOL    HW161665  14.632  14.426   2.858
19942SOL    HW261666  14.623  14.356   2.992
19943SOL     OW61667  14.571  11.776  12.693
19943SOL    HW161668  14.600  11.799  12.604
19943SOL    HW261669  14.475  11.782  12.689
19944SOL     OW61670   0.132   5.790   7.402
19944SOL    HW161671   0.142   5.696   7.387
19944SOL    HW261672   0.220   5.821   7.421
19945SOL     OW61673   5.993   0.937   7.315
19945SOL    HW161674   6.038   1.013   7.279
19945SOL    HW261675   6.054   0.903   7.381
19946SOL     OW61676   5.119  14.350   2.653
19946SOL    HW161677   5.121  14.440   2.686
19946SOL    HW261678   5.061  14.304   2.713
19947SOL     OW61679  11.958   0.515   5.612
19947SOL    HW161680  11.923   0.561   5.688
19947SOL    HW261681  12.053   0.519   5.622
19948SOL     OW61682   5.623   0.254  10.845
19948SOL    HW161683   5.609   0.335  10.894
19948SOL    HW261684   5.708   0.223  10.875
19949SOL     OW61685  10.521   6.321   5.528
19949SOL    HW161686  10.458   6.381   5.568
19949SOL    HW261687  10.606   6.363   5.541
19950SOL     OW61688  11.892  13.495  12.864
19950SOL    HW161689  11.886  13.579  12.908
19950SOL    HW261690  11.925  13.435  12.931
19951SOL     OW61691   8.086   7.587  12.686
19951SOL    HW161692   8.156   7.535  12.725
19951SOL    HW261693   8.096   7.574  12.592
19952SOL     OW61694   3.842   1.283   2.299
19952SOL    HW161695   3.918   1.270   2.241
19952SOL    HW261696   3.877   1.333   2.373
19953SOL     OW61697   2.429  10.648   0.502
19953SOL    HW161698   2.433  10.555   0.525
19953SOL    HW261699   2.511  10.665   0.456
19954SOL     OW61700   4.852   3.145   9.953
19954SOL    HW161701   4.822   3.233   9.975
19954SOL    HW261702   4.947   3.154   9.944
19955SOL     OW61703  14.725   8.860  13.197
19955SOL    HW161704  14.799   8.813  13.235
19955SOL    HW261705  14.763   8.943  13.167
19956SOL     OW61706   5.905  14.014  14.322
19956SOL    HW161707   5.869  14.087  14.271
19956SOL    HW261708   5.856  13.938  14.291
19957SOL     OW61709   8.699   3.704   6.152
19957SOL    HW161710   8.616   3.661   6.132
19957SOL    HW261711   8.740   3.648   6.218
19958SOL     OW61712   8.430   2.165   6.090
19958SOL    HW161713   8.457   2.074   6.082
19958SOL    HW261714   8.345   2.161   6.133
19959SOL     OW61715  12.125   0.995   0.637
19959SOL    HW161716  12.167   0.910   0.648
19959SOL    HW261717  12.195   1.051   0.602
19960SOL     OW61718  14.416   7.561   1.261
19960SOL    HW161719  14.482   7.529   1.323
19960SOL    HW261720  14.388   7.645   1.297
19961SOL     OW61721  13.687   5.854   8.150
19961SOL    HW161722  13.736   5.839   8.230
19961SOL    HW261723  13.695   5.772   8.101
19962SOL     OW61724  13.239  10.834  11.326
19962SOL    HW161725  13.205  10.920  11.350
19962SOL    HW261726  13.219  10.778  11.401
19963SOL     OW61727   8.591   6.996  12.293
19963SOL    HW161728   8.517   6.957  12.339
19963SOL    HW261729   8.566   6.996  12.201
19964SOL     OW61730  14.091  10.478   1.323
19964SOL    HW161731  14.158  10.544   1.303
19964SOL    HW261732  14.022  10.493   1.258
19965SOL     OW61733   9.099   5.911   9.230
19965SOL    HW161734   9.091   5.893   9.137
19965SOL    HW261735   9.159   5.985   9.236
19966SOL     OW61736  12.623   9.579   6.094
19966SOL    HW161737  12.578   9.615   6.170
19966SOL    HW261738  12.687   9.518   6.131
19967SOL     OW61739   7.128   4.221  10.282
19967SOL    HW161740   7.117   4.134  10.244
19967SOL    HW261741   7.085   4.214  10.368
19968SOL     OW61742  14.519   9.138   2.166
19968SOL    HW161743  14.517   9.099   2.079
19968SOL    HW261744  14.609   9.124   2.197
19969SOL     OW61745   5.108  10.018  10.715
19969SOL    HW161746   5.195  10.051  10.692
19969SOL    HW261747   5.119   9.923  10.720
19970SOL     OW61748   9.857   3.687  13.337
19970SOL    HW161749   9.934   3.669  13.283
19970SOL    HW261750   9.842   3.606  13.386
19971SOL     OW61751   9.023   4.177   7.822
19971SOL    HW161752   9.082   4.102   7.815
19971SOL    HW261753   8.938   4.138   7.842
19972SOL     OW61754  12.238   3.918  14.153
19972SOL    HW161755  12.240   3.998  14.100
19972SOL    HW261756  12.277   3.851  14.097
19973SOL     OW61757   9.170   2.827   2.539
19973SOL    HW161758   9.109   2.848   2.469
19973SOL    HW261759   9.114   2.796   2.610
19974SOL     OW61760   9.748   9.471   0.001
19974SOL    HW161761   9.771   9.422  14.796
19974SOL    HW261762   9.704   9.407   0.057
19975SOL     OW61763   0.240   6.964   8.393
19975SOL    HW161764   0.178   6.974   8.465
19975SOL    HW261765   0.251   7.053   8.358
19976SOL     OW61766   8.588  11.179  14.653
19976SOL    HW161767   8.613  11.133  14.733
19976SOL    HW261768   8.507  11.225  14.675
19977SOL     OW61769  14.178  13.124  10.597
19977SOL    HW161770  14.260  13.126  10.646
19977SOL    HW261771  14.127  13.054  10.637
19978SOL     OW61772   9.511   1.380   2.197
19978SOL    HW161773   9.603   1.357   2.188
19978SOL    HW261774   9.495   1.379   2.291
19979SOL     OW61775   6.521   2.837   1.472
19979SOL    HW161776   6.593   2.878   1.424
19979SOL    HW261777   6.528   2.872   1.561
19980SOL     OW61778   0.355   0.150  10.735
19980SOL    HW161779   0.430   0.185  10.687
19980SOL    HW261780   0.293   0.123  10.667
19981SOL     OW61781   7.748   1.991  14.167
19981SOL    HW161782   7.671   1.963  14.216
19981SOL    HW261783   7.732   2.084  14.149
19982SOL     OW61784  11.108   2.873   5.430
19982SOL    HW161785  11.038   2.899   5.489
19982SOL    HW261786  11.132   2.785   5.457
19983SOL     OW61787   1.779   6.688   2.270
19983SOL    HW161788   1.860   6.701   2.221
19983SOL    HW261789   1.800   6.716   2.359
19984SOL     OW61790   3.464   6.801   3.187
19984SOL    HW161791   3.531   6.793   3.255
19984SOL    HW261792   3.391   6.748   3.219
19985SOL     OW61793   6.099   1.184   9.689
19985SOL    HW161794   6.059   1.244   9.752
19985SOL    HW261795   6.176   1.231   9.657
19986SOL     OW61796   2.956   2.339  11.484
19986SOL    HW161797   3.005   2.351  11.402
19986SOL    HW261798   2.864   2.342  11.457
19987SOL     OW61799  14.227  11.738   5.263
19987SOL    HW161800  14.144  11.706   5.226
19987SOL    HW261801  14.204  11.772   5.349
19988SOL     OW61802   5.487   3.729   0.127
19988SOL    HW161803   5.431   3.745   0.051
19988SOL    HW261804   5.555   3.796   0.122
19989SOL     OW61805   7.908   9.753  11.447
19989SOL    HW161806   7.838   9.806  11.486
19989SOL    HW261807   7.904   9.773  11.354
19990SOL     OW61808  12.701   1.842   3.945
19990SOL    HW161809  12.698   1.779   4.017
19990SOL    HW261810  12.745   1.796   3.874
19991SOL     OW61811   5.895   9.617   0.228
19991SOL    HW161812   5.958   9.570   0.282
19991SOL    HW261813   5.922   9.599   0.138
19992SOL     OW61814  11.201  10.400   2.909
19992SOL    HW161815  11.255  10.344   2.964
19992SOL    HW261816  11.200  10.485   2.954
19993SOL     OW61817  10.059   8.142  14.553
19993SOL    HW161818  10.077   8.220  14.499
19993SOL    HW261819   9.965   8.147  14.570
19994SOL     OW61820   8.115   2.393   6.357
19994SOL    HW161821   8.205   2.421   6.373
19994SOL    HW261822   8.112   2.371   6.264
19995SOL     OW61823  14.209   8.203  13.217
19995SOL    HW161824  14.160   8.128  13.252
19995SOL    HW261825  14.192   8.274  13.280
19996SOL     OW61826   5.210   4.971   3.523
19996SOL    HW161827   5.247   4.951   3.609
19996SOL    HW261828   5.138   5.032   3.541
19997SOL     OW61829   1.735   8.043  12.918
19997SOL    HW161830   1.685   8.089  12.850
19997SOL    HW261831   1.722   8.097  12.997
19998SOL     OW61832   9.255   7.352  14.614
19998SOL    HW161833   9.303   7.329  14.534
19998SOL    HW261834   9.165   7.367  14.584
19999SOL     OW61835   4.706   4.981  13.504
19999SOL    HW161836   4.699   5.038  13.427
19999SOL    HW261837   4.682   4.894  13.472
20000SOL     OW61838   0.871  10.394   7.474
20000SOL    HW161839   0.912  10.421   7.392
20000SOL    HW261840   0.845  10.303   7.460
20001SOL     OW61841  12.423   6.883   9.045
20001SOL    HW161842  12.483   6.829   8.993
20001SOL    HW261843  12.475   6.959   9.070
20002SOL     OW61844   1.516   4.517   6.260
20002SOL    HW161845   1.593   4.472   6.223
20002SOL    HW261846   1.459   4.532   6.185
20003SOL     OW61847  11.622  10.614   6.988
20003SOL    HW161848  11.556  10.544   6.993
20003SOL    HW261849  11.606  10.656   6.903
20004SOL     OW61850  11.293  12.623   0.581
20004SOL    HW161851  11.242  12.688   0.628
20004SOL    HW261852  11.383  12.636   0.611
20005SOL     OW61853   8.258   5.077   4.780
20005SOL    HW161854   8.343   5.099   4.743
20005SOL    HW261855   8.195   5.127   4.728
20006SOL     OW61856   3.780   4.142   0.767
20006SOL    HW161857   3.846   4.092   0.816
20006SOL    HW261858   3.827   4.179   0.693
20007SOL     OW61859  11.048  12.391   1.148
20007SOL    HW161860  10.973  12.400   1.207
20007SOL    HW261861  11.061  12.478   1.112
20008SOL     OW61862  11.937   3.664   1.051
20008SOL    HW161863  11.978   3.578   1.060
20008SOL    HW261864  11.950   3.706   1.137
20009SOL     OW61865   7.709   0.302  14.749
20009SOL    HW161866   7.791   0.316  14.795
20009SOL    HW261867   7.687   0.210  14.765
20010SOL     OW61868   4.953  10.892   9.000
20010SOL    HW161869   5.030  10.859   8.953
20010SOL    HW261870   4.946  10.984   8.975
20011SOL     OW61871  13.558   2.553   5.032
20011SOL    HW161872  13.548   2.648   5.044
20011SOL    HW261873  13.511   2.515   5.106
20012SOL     OW61874  14.046   0.935  11.071
20012SOL    HW161875  14.109   0.946  10.999
20012SOL    HW261876  13.967   0.979  11.040
20013SOL     OW61877   7.844   4.917   8.629
20013SOL    HW161878   7.769   4.857   8.627
20013SOL    HW261879   7.814   4.990   8.683
20014SOL     OW61880   9.343   4.493   5.350
20014SOL    HW161881   9.421   4.464   5.397
20014SOL    HW261882   9.369   4.495   5.258
20015SOL     OW61883   9.744   1.841   1.634
20015SOL    HW161884   9.819   1.784   1.654
20015SOL    HW261885   9.740   1.901   1.708
20016SOL     OW61886   1.963   6.718  11.456
20016SOL    HW161887   2.049   6.675  11.454
20016SOL    HW261888   1.951   6.749  11.366
20017SOL     OW61889   6.077   6.221   6.858
20017SOL    HW161890   5.983   6.214   6.843
20017SOL    HW261891   6.104   6.132   6.881
20018SOL     OW61892   1.481  10.832   7.200
20018SOL    HW161893   1.471  10.816   7.293
20018SOL    HW261894   1.489  10.927   7.192
20019SOL     OW61895  11.291   4.225   0.696
20019SOL    HW161896  11.277   4.187   0.782
20019SOL    HW261897  11.359   4.292   0.710
20020SOL     OW61898   6.493   6.385   8.468
20020SOL    HW161899   6.449   6.387   8.553
20020SOL    HW261900   6.422   6.391   8.404
20021SOL     OW61901   2.991  14.833  10.307
20021SOL    HW161902   3.041   0.039  10.291
20021SOL    HW261903   2.911  14.844  10.255
20022SOL     OW61904  13.540  13.919   3.900
20022SOL    HW161905  13.449  13.919   3.870
20022SOL    HW261906  13.535  13.895   3.992
20023SOL     OW61907  12.524   0.524  13.506
20023SOL    HW161908  12.468   0.600  13.516
20023SOL    HW261909  12.464   0.451  13.492
20024SOL     OW61910   3.549   1.575  14.788
20024SOL    HW161911   3.513   1.501  14.837
20024SOL    HW261912   3.570   1.540  14.702
20025SOL     OW61913  13.950   6.305   9.568
20025SOL    HW161914  13.949   6.395   9.599
20025SOL    HW261915  13.998   6.257   9.635
20026SOL     OW61916   5.309  11.835  14.170
20026SOL    HW161917   5.302  11.890  14.248
20026SOL    HW261918   5.381  11.873  14.120
20027SOL     OW61919   4.109  14.156   4.306
20027SOL    HW161920   4.180  14.113   4.258
20027SOL    HW261921   4.120  14.249   4.286
20028SOL     OW61922   4.175   5.365   1.495
20028SOL    HW161923   4.199   5.371   1.403
20028SOL    HW261924   4.251   5.324   1.537
20029SOL     OW61925  10.925   4.706   2.257
20029SOL    HW161926  10.923   4.697   2.352
20029SOL    HW261927  10.895   4.796   2.241
20030SOL     OW61928   1.926  11.757   7.924
20030SOL    HW161929   1.898  11.753   8.015
20030SOL    HW261930   1.944  11.666   7.900
20031SOL     OW61931   4.040   5.270   7.175
20031SOL    HW161932   4.129   5.271   7.209
20031SOL    HW261933   3.990   5.220   7.239
20032SOL     OW61934   9.718   1.066   7.407
20032SOL    HW161935   9.787   1.018   7.452
20032SOL    HW261936   9.636   1.031   7.443
20033SOL     OW61937   7.368   5.811   7.464
20033SOL    HW161938   7.427   5.877   7.427
20033SOL    HW261939   7.320   5.777   7.388
20034SOL     OW61940  11.796  14.805  12.815
20034SOL    HW161941  11.836  14.760  12.890
20034SOL    HW261942  11.846  14.776  12.739
20035SOL     OW61943   2.992   2.908  14.402
20035SOL    HW161944   2.977   3.003  14.395
20035SOL    HW261945   3.034   2.897  14.488
20036SOL     OW61946   2.922   1.308  10.780
20036SOL    HW161947   2.912   1.402  10.761
20036SOL    HW261948   2.833   1.277  10.794
20037SOL     OW61949   6.287   1.652   5.701
20037SOL    HW161950   6.307   1.683   5.790
20037SOL    HW261951   6.325   1.718   5.644
20038SOL     OW61952   5.123  12.712   9.418
20038SOL    HW161953   5.034  12.715   9.383
20038SOL    HW261954   5.155  12.625   9.393
20039SOL     OW61955   1.113  13.628  12.068
20039SOL    HW161956   1.109  13.682  11.989
20039SOL    HW261957   1.087  13.687  12.139
20040SOL     OW61958   6.928   0.156   0.100
20040SOL    HW161959   6.912   0.232   0.043
20040SOL    HW261960   6.923   0.081   0.042
20041SOL     OW61961   1.815  14.171   6.672
20041SOL    HW161962   1.872  14.095   6.686
20041SOL    HW261963   1.845  14.208   6.589
20042SOL     OW61964   2.296   0.754   2.868
20042SOL    HW161965   2.277   0.660   2.867
20042SOL    HW261966   2.218   0.795   2.830
20043SOL     OW61967   4.263  12.128   1.132
20043SOL    HW161968   4.285  12.057   1.192
20043SOL    HW261969   4.345  12.177   1.122
20044SOL     OW61970   7.261   9.367   8.020
20044SOL    HW161971   7.262   9.418   8.100
20044SOL    HW261972   7.238   9.278   8.048
20045SOL     OW61973   9.168  12.497   5.985
20045SOL    HW161974   9.141  12.413   6.021
20045SOL    HW261975   9.158  12.559   6.057
20046SOL     OW61976   9.446   3.291  13.729
20046SOL    HW161977   9.430   3.220  13.667
20046SOL    HW261978   9.490   3.249  13.803
20047SOL     OW61979   6.374   7.110  12.251
20047SOL    HW161980   6.404   7.201  12.262
20047SOL    HW261981   6.373   7.097  12.157
20048SOL     OW61982   9.320   0.149  11.421
20048SOL    HW161983   9.253   0.193  11.474
20048SOL    HW261984   9.361   0.087  11.482
20049SOL     OW61985  13.398   7.447   8.436
20049SOL    HW161986  13.480   7.403   8.457
20049SOL    HW261987  13.363   7.475   8.521
20050SOL     OW61988  14.441  13.420   8.133
20050SOL    HW161989  14.420  13.329   8.157
20050SOL    HW261990  14.535  13.428   8.150
20051SOL     OW61991  12.301   9.289   8.139
20051SOL    HW161992  12.249   9.217   8.175
20051SOL    HW261993  12.326   9.341   8.215
20052SOL     OW61994   1.848  11.315   6.502
20052SOL    HW161995   1.903  11.265   6.442
20052SOL    HW261996   1.759  11.306   6.468
20053SOL     OW61997  13.778  13.586  12.402
20053SOL    HW161998  13.828  13.657  12.362
20053SOL    HW261999  13.806  13.585  12.493
20054SOL     OW62000  14.811   5.213  10.092
20054SOL    HW162001  14.863   5.232  10.169
20054SOL    HW262002  14.720   5.217  10.123
20055SOL     OW62003   0.941   8.242   5.547
20055SOL    HW162004   0.876   8.285   5.492
20055SOL    HW262005   0.940   8.292   5.629
20056SOL     OW62006   7.082   9.076   5.853
20056SOL    HW162007   7.059   9.042   5.939
20056SOL    HW262008   7.166   9.121   5.867
20057SOL     OW62009  12.551  11.924   3.082
20057SOL    HW162010  12.545  11.877   3.165
20057SOL    HW262011  12.643  11.948   3.074
20058SOL     OW62012   5.422   5.668   6.060
20058SOL    HW162013   5.430   5.575   6.084
20058SOL    HW262014   5.393   5.668   5.969
20059SOL     OW62015  12.187   4.208   4.328
20059SOL    HW162016  12.252   4.266   4.290
20059SOL    HW262017  12.112   4.212   4.269
20060SOL     OW62018   1.406   3.749   6.503
20060SOL    HW162019   1.452   3.712   6.428
20060SOL    HW262020   1.314   3.750   6.476
20061SOL     OW62021  12.505   1.446   8.521
20061SOL    HW162022  12.468   1.465   8.607
20061SOL    HW262023  12.573   1.512   8.509
20062SOL     OW62024   6.372  10.496   7.434
20062SOL    HW162025   6.432  10.566   7.460
20062SOL    HW262026   6.307  10.539   7.378
20063SOL     OW62027   1.381  10.807   0.780
20063SOL    HW162028   1.334  10.737   0.824
20063SOL    HW262029   1.314  10.852   0.728
20064SOL     OW62030   2.233  14.665   5.689
20064SOL    HW162031   2.244  14.719   5.610
20064SOL    HW262032   2.151  14.695   5.728
20065SOL     OW62033   9.499   8.579   1.861
20065SOL    HW162034   9.483   8.593   1.767
20065SOL    HW262035   9.486   8.485   1.873
20066SOL     OW62036  11.131  14.682   4.337
20066SOL    HW162037  11.209  14.670   4.392
20066SOL    HW262038  11.147  14.765   4.292
20067SOL     OW62039   0.869   6.114  12.025
20067SOL    HW162040   0.811   6.126  12.101
20067SOL    HW262041   0.869   6.199  11.982
20068SOL     OW62042   9.971   9.643   4.293
20068SOL    HW162043   9.917   9.722   4.296
20068SOL    HW262044   9.931   9.584   4.358
20069SOL     OW62045   3.382   8.145  12.269
20069SOL    HW162046   3.379   8.103  12.355
20069SOL    HW262047   3.439   8.221  12.281
20070SOL     OW62048  13.278   1.694   9.213
20070SOL    HW162049  13.281   1.786   9.239
20070SOL    HW262050  13.186   1.677   9.195
20071SOL     OW62051   8.661   1.765   6.304
20071SOL    HW162052   8.595   1.834   6.296
20071SOL    HW262053   8.615   1.692   6.346
20072SOL     OW62054   0.404  12.269   2.476
20072SOL    HW162055   0.388  12.222   2.395
20072SOL    HW262056   0.485  12.317   2.461
20073SOL     OW62057  10.474  11.149   4.963
20073SOL    HW162058  10.508  11.229   4.925
20073SOL    HW262059  10.450  11.095   4.887
20074SOL     OW62060   2.090  11.375  11.595
20074SOL    HW162061   2.178  11.354  11.563
20074SOL    HW262062   2.065  11.298  11.647
20075SOL     OW62063   5.286   2.357  11.070
20075SOL    HW162064   5.276   2.444  11.108
20075SOL    HW262065   5.221   2.353  11.000
20076SOL     OW62066   9.408   2.774  10.157
20076SOL    HW162067   9.337   2.776  10.222
20076SOL    HW262068   9.417   2.864  10.129
20077SOL     OW62069   0.758  13.135   3.390
20077SOL    HW162070   0.774  13.205   3.453
20077SOL    HW262071   0.728  13.061   3.444
20078SOL     OW62072   1.261   4.629   2.566
20078SOL    HW162073   1.179   4.603   2.524
20078SOL    HW262074   1.287   4.709   2.520
20079SOL     OW62075   4.009  14.087  11.000
20079SOL    HW162076   4.054  14.003  10.996
20079SOL    HW262077   4.030  14.122  11.086
20080SOL     OW62078   5.132   2.457   9.574
20080SOL    HW162079   5.112   2.384   9.516
20080SOL    HW262080   5.054   2.513   9.571
20081SOL     OW62081   7.156   1.986  13.418
20081SOL    HW162082   7.199   1.923  13.476
20081SOL    HW262083   7.109   1.932  13.355
20082SOL     OW62084   0.887   3.653   8.434
20082SOL    HW162085   0.936   3.669   8.515
20082SOL    HW262086   0.890   3.737   8.388
20083SOL     OW62087   2.486   1.654  12.193
20083SOL    HW162088   2.464   1.709  12.268
20083SOL    HW262089   2.575   1.624  12.210
20084SOL     OW62090   7.077   6.343   2.116
20084SOL    HW162091   7.117   6.310   2.196
20084SOL    HW262092   7.058   6.265   2.064
20085SOL     OW62093   4.547   6.743   5.090
20085SOL    HW162094   4.548   6.794   5.009
20085SOL    HW262095   4.497   6.796   5.151
20086SOL     OW62096   5.608   6.207   3.900
20086SOL    HW162097   5.538   6.249   3.950
20086SOL    HW262098   5.668   6.175   3.967
20087SOL     OW62099  10.938   6.828   9.736
20087SOL    HW162100  10.904   6.741   9.713
20087SOL    HW262101  10.861   6.877   9.765
20088SOL     OW62102   8.022   9.706   0.771
20088SOL    HW162103   7.996   9.650   0.844
20088SOL    HW262104   7.939   9.743   0.739
20089SOL     OW62105  10.708  13.710   4.025
20089SOL    HW162106  10.733  13.708   3.933
20089SOL    HW262107  10.716  13.619   4.054
20090SOL     OW62108   9.144  11.066   7.784
20090SOL    HW162109   9.224  11.087   7.736
20090SOL    HW262110   9.164  11.091   7.875
20091SOL     OW62111   0.676   6.350  10.070
20091SOL    HW162112   0.660   6.436  10.109
20091SOL    HW262113   0.747   6.365  10.007
20092SOL     OW62114  10.829   7.248   8.982
20092SOL    HW162115  10.799   7.159   9.000
20092SOL    HW262116  10.753   7.292   8.943
20093SOL     OW62117   2.982   7.216   3.619
20093SOL    HW162118   2.934   7.298   3.623
20093SOL    HW262119   2.927   7.158   3.566
20094SOL     OW62120   2.564   5.676  12.236
20094SOL    HW162121   2.506   5.752  12.228
20094SOL    HW262122   2.550   5.645  12.325
20095SOL     OW62123   1.237  11.731  11.730
20095SOL    HW162124   1.251  11.660  11.667
20095SOL    HW262125   1.318  11.782  11.727
20096SOL     OW62126   0.671   1.947  12.697
20096SOL    HW162127   0.706   1.858  12.695
20096SOL    HW262128   0.715   1.992  12.625
20097SOL     OW62129   9.209   2.330   0.608
20097SOL    HW162130   9.241   2.276   0.536
20097SOL    HW262131   9.163   2.269   0.665
20098SOL     OW62132   6.201   9.337  14.368
20098SOL    HW162133   6.128   9.311  14.312
20098SOL    HW262134   6.166   9.407  14.423
20099SOL     OW62135   2.076   6.116   1.436
20099SOL    HW162136   2.065   6.161   1.352
20099SOL    HW262137   2.162   6.142   1.467
20100SOL     OW62138   8.229   1.391   2.470
20100SOL    HW162139   8.149   1.356   2.429
20100SOL    HW262140   8.201   1.415   2.558
20101SOL     OW62141   6.962   2.150   9.090
20101SOL    HW162142   7.007   2.235   9.097
20101SOL    HW262143   6.948   2.123   9.181
20102SOL     OW62144   8.158   5.430   6.621
20102SOL    HW162145   8.233   5.459   6.673
20102SOL    HW262146   8.086   5.423   6.684
20103SOL     OW62147   6.426  10.587   1.971
20103SOL    HW162148   6.434  10.670   2.019
20103SOL    HW262149   6.444  10.610   1.880
20104SOL     OW62150   8.478  13.949   7.842
20104SOL    HW162151   8.476  14.008   7.918
20104SOL    HW262152   8.450  13.864   7.876
20105SOL     OW62153   0.269  12.575  12.332
20105SOL    HW162154   0.189  12.623  12.308
20105SOL    HW262155   0.326  12.641  12.370
20106SOL     OW62156  13.160   3.488   3.677
20106SOL    HW162157  13.187   3.496   3.768
20106SOL    HW262158  13.091   3.422   3.678
20107SOL     OW62159   8.104   2.788  10.052
20107SOL    HW162160   8.107   2.855  10.120
20107SOL    HW262161   8.017   2.799  10.012
20108SOL     OW62162   1.308  10.102   5.412
20108SOL    HW162163   1.330  10.102   5.505
20108SOL    HW262164   1.386  10.067   5.368
20109SOL     OW62165   2.694   3.304   9.387
20109SOL    HW162166   2.621   3.367   9.385
20109SOL    HW262167   2.653   3.222   9.415
20110SOL     OW62168  10.743   8.610   4.954
20110SOL    HW162169  10.709   8.645   4.872
20110SOL    HW262170  10.837   8.599   4.939
20111SOL     OW62171  10.730  10.341  12.539
20111SOL    HW162172  10.672  10.387  12.600
20111SOL    HW262173  10.763  10.410  12.481
20112SOL     OW62174  13.726   8.308  10.702
20112SOL    HW162175  13.733   8.215  10.683
20112SOL    HW262176  13.816   8.337  10.716
20113SOL     OW62177   5.014  10.338   3.424
20113SOL    HW162178   5.029  10.347   3.330
20113SOL    HW262179   5.049  10.251   3.445
20114SOL     OW62180  11.476  12.382   9.672
20114SOL    HW162181  11.549  12.412   9.727
20114SOL    HW262182  11.398  12.410   9.719
20115SOL     OW62183   0.223  13.805   1.093
20115SOL    HW162184   0.256  13.721   1.124
20115SOL    HW262185   0.286  13.870   1.124
20116SOL     OW62186   5.261   0.548   1.157
20116SOL    HW162187   5.263   0.584   1.069
20116SOL    HW262188   5.253   0.454   1.145
20117SOL     OW62189  13.913  13.937   7.486
20117SOL    HW162190  13.985  13.920   7.426
20117SOL    HW262191  13.930  13.879   7.561
20118SOL     OW62192   4.748   3.851   2.713
20118SOL    HW162193   4.793   3.847   2.629
20118SOL    HW262194   4.656   3.834   2.692
20119SOL     OW62195   3.511  12.726   2.390
20119SOL    HW162196   3.561  12.722   2.472
20119SOL    HW262197   3.436  12.782   2.411
20120SOL     OW62198   5.002  13.961   2.420
20120SOL    HW162199   4.963  13.900   2.356
20120SOL    HW262200   5.077  13.913   2.455
20121SOL     OW62201   8.033  13.658  13.449
20121SOL    HW162202   7.993  13.654  13.536
20121SOL    HW262203   8.064  13.569  13.433
20122SOL     OW62204   4.987   4.499   6.436
20122SOL    HW162205   4.970   4.488   6.342
20122SOL    HW262206   5.078   4.472   6.448
20123SOL     OW62207   7.765   3.580   5.303
20123SOL    HW162208   7.791   3.560   5.213
20123SOL    HW262209   7.847   3.573   5.353
20124SOL     OW62210   8.799   7.064   7.375
20124SOL    HW162211   8.879   7.115   7.391
20124SOL    HW262212   8.796   7.054   7.280
20125SOL     OW62213   4.625   8.504   8.456
20125SOL    HW162214   4.544   8.452   8.454
20125SOL    HW262215   4.609   8.577   8.396
20126SOL     OW62216  12.036  12.998   6.206
20126SOL    HW162217  11.988  12.940   6.147
20126SOL    HW262218  12.033  13.084   6.163
20127SOL     OW62219  13.533  14.625   2.842
20127SOL    HW162220  13.573  14.556   2.789
20127SOL    HW262221  13.517  14.697   2.781
20128SOL     OW62222   1.984   7.048   1.299
20128SOL    HW162223   2.029   6.974   1.340
20128SOL    HW262224   1.898   7.050   1.341
20129SOL     OW62225   6.538  10.242   2.180
20129SOL    HW162226   6.459  10.281   2.218
20129SOL    HW262227   6.610  10.282   2.229
20130SOL     OW62228   7.085  11.266   1.501
20130SOL    HW162229   7.078  11.191   1.441
20130SOL    HW262230   6.995  11.291   1.519
20131SOL     OW62231   2.811   2.121  14.511
20131SOL    HW162232   2.859   2.134  14.592
20131SOL    HW262233   2.772   2.206  14.491
20132SOL     OW62234  13.346  12.059   1.981
20132SOL    HW162235  13.415  12.082   2.043
20132SOL    HW262236  13.390  12.058   1.896
20133SOL     OW62237   7.658   8.952  10.735
20133SOL    HW162238   7.721   8.919  10.671
20133SOL    HW262239   7.612   9.023  10.689
20134SOL     OW62240  14.362   4.595   2.442
20134SOL    HW162241  14.329   4.513   2.405
20134SOL    HW262242  14.294   4.624   2.503
20135SOL     OW62243   5.308   2.343  13.055
20135SOL    HW162244   5.239   2.281  13.035
20135SOL    HW262245   5.329   2.385  12.972
20136SOL     OW62246   7.291   6.510   9.596
20136SOL    HW162247   7.362   6.514   9.661
20136SOL    HW262248   7.212   6.530   9.645
20137SOL     OW62249  11.633  11.481   2.319
20137SOL    HW162250  11.724  11.470   2.294
20137SOL    HW262251  11.585  11.423   2.260
20138SOL     OW62252   6.709  11.362   9.287
20138SOL    HW162253   6.684  11.441   9.337
20138SOL    HW262254   6.790  11.334   9.328
20139SOL     OW62255  11.673  13.689   0.620
20139SOL    HW162256  11.644  13.777   0.644
20139SOL    HW262257  11.738  13.666   0.686
20140SOL     OW62258   0.940   5.590   2.847
20140SOL    HW162259   0.929   5.560   2.756
20140SOL    HW262260   0.988   5.520   2.890
20141SOL     OW62261   5.297   6.948   2.347
20141SOL    HW162262   5.383   6.991   2.339
20141SOL    HW262263   5.300   6.876   2.284
20142SOL     OW62264   4.169  13.114   0.365
20142SOL    HW162265   4.175  13.209   0.360
20142SOL    HW262266   4.076  13.096   0.369
20143SOL     OW62267   2.623   0.452   0.478
20143SOL    HW162268   2.645   0.360   0.487
20143SOL    HW262269   2.638   0.472   0.385
20144SOL     OW62270   3.438   3.005   3.504
20144SOL    HW162271   3.428   2.910   3.515
20144SOL    HW262272   3.475   3.035   3.587
20145SOL     OW62273  13.158   2.927   7.039
20145SOL    HW162274  13.092   2.898   6.976
20145SOL    HW262275  13.107   2.954   7.116
20146SOL     OW62276   9.953   8.387   9.604
20146SOL    HW162277   9.912   8.461   9.648
20146SOL    HW262278   9.931   8.398   9.512
20147SOL     OW62279   2.519   6.451   6.834
20147SOL    HW162280   2.594   6.426   6.780
20147SOL    HW262281   2.445   6.448   6.774
20148SOL     OW62282  11.159   6.809  10.756
20148SOL    HW162283  11.150   6.884  10.815
20148SOL    HW262284  11.069   6.788  10.732
20149SOL     OW62285  13.676   9.743   6.028
20149SOL    HW162286  13.606   9.714   5.970
20149SOL    HW262287  13.638   9.816   6.077
20150SOL     OW62288   7.404   5.835   1.606
20150SOL    HW162289   7.335   5.872   1.661
20150SOL    HW262290   7.366   5.756   1.569
20151SOL     OW62291  12.897  14.665   3.828
20151SOL    HW162292  12.808  14.642   3.854
20151SOL    HW262293  12.948  14.585   3.843
20152SOL     OW62294   5.206   0.877   3.073
20152SOL    HW162295   5.182   0.817   3.003
20152SOL    HW262296   5.125   0.926   3.091
20153SOL     OW62297   7.786   3.687  10.061
20153SOL    HW162298   7.853   3.667   9.996
20153SOL    HW262299   7.804   3.628  10.133
20154SOL     OW62300   8.412  13.033  14.321
20154SOL    HW162301   8.423  13.078  14.405
20154SOL    HW262302   8.493  13.051  14.273
20155SOL     OW62303   4.725   7.368   3.603
20155SOL    HW162304   4.782   7.294   3.580
20155SOL    HW262305   4.783   7.427   3.651
20156SOL     OW62306   3.949   9.609   8.826
20156SOL    HW162307   3.863   9.577   8.797
20156SOL    HW262308   4.009   9.538   8.805
20157SOL     OW62309   3.353  13.883  13.230
20157SOL    HW162310   3.288  13.865  13.163
20157SOL    HW262311   3.430  13.834  13.203
20158SOL     OW62312   2.703   3.729   9.513
20158SOL    HW162313   2.647   3.793   9.468
20158SOL    HW262314   2.725   3.772   9.596
20159SOL     OW62315   2.421   0.270  14.708
20159SOL    HW162316   2.471   0.302  14.633
20159SOL    HW262317   2.370   0.345  14.738
20160SOL     OW62318  10.797  14.765   0.075
20160SOL    HW162319  10.720  14.821   0.079
20160SOL    HW262320  10.825  14.758   0.166
20161SOL     OW62321  13.763   8.935  10.433
20161SOL    HW162322  13.853   8.953  10.459
20161SOL    HW262323  13.736   8.861  10.487
20162SOL     OW62324  11.203  11.297   8.664
20162SOL    HW162325  11.225  11.212   8.703
20162SOL    HW262326  11.285  11.328   8.625
20163SOL     OW62327   8.350   3.987  13.938
20163SOL    HW162328   8.349   3.999  13.843
20163SOL    HW262329   8.420   4.045  13.969
20164SOL     OW62330  11.108   1.680   7.840
20164SOL    HW162331  11.090   1.630   7.760
20164SOL    HW262332  11.133   1.614   7.904
20165SOL     OW62333   6.037   3.040   7.757
20165SOL    HW162334   5.942   3.050   7.770
20165SOL    HW262335   6.045   2.997   7.672
20166SOL     OW62336  12.623   7.679   6.851
20166SOL    HW162337  12.529   7.686   6.835
20166SOL    HW262338  12.663   7.693   6.765
20167SOL     OW62339   1.134  13.657  10.563
20167SOL    HW162340   1.156  13.713  10.488
20167SOL    HW262341   1.042  13.635  10.551
20168SOL     OW62342  11.783  10.069  14.469
20168SOL    HW162343  11.836  10.080  14.548
20168SOL    HW262344  11.782  10.155  14.429
20169SOL     OW62345  13.708  12.310   9.925
20169SOL    HW162346  13.749  12.231   9.958
20169SOL    HW262347  13.781  12.363   9.893
20170SOL     OW62348   5.764  12.364   8.119
20170SOL    HW162349   5.763  12.306   8.043
20170SOL    HW262350   5.734  12.448   8.086
20171SOL     OW62351   0.173   0.053   8.229
20171SOL    HW162352   0.252   0.105   8.240
20171SOL    HW262353   0.183  14.854   8.290
20172SOL     OW62354  14.570   1.884   2.445
20172SOL    HW162355  14.654   1.912   2.408
20172SOL    HW262356  14.592   1.805   2.495
20173SOL     OW62357   9.330   4.801   3.398
20173SOL    HW162358   9.368   4.722   3.438
20173SOL    HW262359   9.405   4.859   3.385
20174SOL     OW62360   5.734   9.740  10.454
20174SOL    HW162361   5.755   9.829  10.480
20174SOL    HW262362   5.700   9.749  10.364
20175SOL     OW62363  11.445   2.287  12.817
20175SOL    HW162364  11.482   2.213  12.864
20175SOL    HW262365  11.466   2.271  12.726
20176SOL     OW62366  11.591   0.463   3.035
20176SOL    HW162367  11.566   0.434   2.948
20176SOL    HW262368  11.581   0.385   3.090
20177SOL     OW62369  14.252   7.982   5.676
20177SOL    HW162370  14.276   8.004   5.766
20177SOL    HW262371  14.160   8.008   5.669
20178SOL     OW62372   0.176   8.178   2.406
20178SOL    HW162373   0.111   8.214   2.345
20178SOL    HW262374   0.152   8.086   2.415
20179SOL     OW62375   7.421   1.576   8.157
20179SOL    HW162376   7.456   1.654   8.116
20179SOL    HW262377   7.490   1.546   8.216
20180SOL     OW62378   2.209   9.035  13.508
20180SOL    HW162379   2.275   9.074  13.565
20180SOL    HW262380   2.144   8.999  13.568
20181SOL     OW62381  14.693   5.269  11.497
20181SOL    HW162382  14.670   5.361  11.505
20181SOL    HW262383  14.779   5.269  11.456
20182SOL     OW62384   4.677  13.639   4.523
20182SOL    HW162385   4.764  13.677   4.522
20182SOL    HW262386   4.679  13.570   4.457
20183SOL     OW62387   4.418   2.136  12.030
20183SOL    HW162388   4.513   2.150  12.028
20183SOL    HW262389   4.397   2.126  12.123
20184SOL     OW62390   1.715   4.678   2.241
20184SOL    HW162391   1.670   4.702   2.322
20184SOL    HW262392   1.736   4.762   2.200
20185SOL     OW62393   6.676  13.724   5.389
20185SOL    HW162394   6.683  13.697   5.480
20185SOL    HW262395   6.608  13.791   5.388
20186SOL     OW62396   7.615  13.158   4.729
20186SOL    HW162397   7.546  13.202   4.778
20186SOL    HW262398   7.577  13.141   4.643
20187SOL     OW62399   6.206  12.189  10.715
20187SOL    HW162400   6.280  12.248  10.701
20187SOL    HW262401   6.181  12.159  10.628
20188SOL     OW62402   7.126   8.982  10.658
20188SOL    HW162403   7.117   9.076  10.667
20188SOL    HW262404   7.147   8.968  10.566
20189SOL     OW62405   4.379   7.540  10.686
20189SOL    HW162406   4.331   7.563  10.606
20189SOL    HW262407   4.364   7.446  10.697
20190SOL     OW62408   8.419  10.366   7.431
20190SOL    HW162409   8.326  10.370   7.410
20190SOL    HW262410   8.453  10.452   7.409
20191SOL     OW62411   1.646   3.050   0.421
20191SOL    HW162412   1.604   3.101   0.490
20191SOL    HW262413   1.607   2.963   0.427
20192SOL     OW62414   0.972  11.951   6.682
20192SOL    HW162415   0.883  11.918   6.696
20192SOL    HW262416   1.025  11.872   6.674
20193SOL     OW62417  10.423   6.122   2.702
20193SOL    HW162418  10.452   6.031   2.694
20193SOL    HW262419  10.417   6.153   2.612
20194SOL     OW62420  12.196  13.412   8.334
20194SOL    HW162421  12.184  13.407   8.239
20194SOL    HW262422  12.151  13.334   8.367
20195SOL     OW62423  12.001   4.901   4.156
20195SOL    HW162424  12.085   4.914   4.112
20195SOL    HW262425  11.960   4.987   4.155
20196SOL     OW62426   2.666  12.596  14.599
20196SOL    HW162427   2.691  12.614  14.509
20196SOL    HW262428   2.571  12.586  14.597
20197SOL     OW62429  12.542   2.706   8.553
20197SOL    HW162430  12.488   2.654   8.612
20197SOL    HW262431  12.607   2.645   8.519
20198SOL     OW62432   4.742  13.138   5.847
20198SOL    HW162433   4.752  13.102   5.935
20198SOL    HW262434   4.651  13.165   5.843
20199SOL     OW62435   1.922  11.478  12.352
20199SOL    HW162436   1.836  11.494  12.313
20199SOL    HW262437   1.918  11.521  12.437
20200SOL     OW62438   2.433   9.065   2.482
20200SOL    HW162439   2.385   9.044   2.562
20200SOL    HW262440   2.371   9.116   2.429
20201SOL     OW62441   9.131   4.339   4.643
20201SOL    HW162442   9.197   4.277   4.614
20201SOL    HW262443   9.127   4.328   4.738
20202SOL     OW62444   5.003   1.071   3.112
20202SOL    HW162445   4.996   1.095   3.204
20202SOL    HW262446   5.009   1.155   3.066
20203SOL     OW62447   0.531   9.713   8.663
20203SOL    HW162448   0.513   9.624   8.634
20203SOL    HW262449   0.471   9.768   8.612
20204SOL     OW62450   2.006   2.964   7.177
20204SOL    HW162451   1.979   3.029   7.242
20204SOL    HW262452   1.954   2.886   7.198
20205SOL     OW62453  14.642  12.123   8.724
20205SOL    HW162454  14.637  12.105   8.630
20205SOL    HW262455  14.634  12.037   8.766
20206SOL     OW62456  12.646   8.910  10.339
20206SOL    HW162457  12.561   8.868  10.350
20206SOL    HW262458  12.709   8.846  10.375
20207SOL     OW62459   6.766   1.828  11.370
20207SOL    HW162460   6.808   1.809  11.454
20207SOL    HW262461   6.803   1.913  11.344
20208SOL     OW62462   1.622   7.159   1.309
20208SOL    HW162463   1.621   7.176   1.403
20208SOL    HW262464   1.645   7.243   1.269
20209SOL     OW62465   6.240   4.418   4.179
20209SOL    HW162466   6.260   4.487   4.116
20209SOL    HW262467   6.161   4.448   4.224
20210SOL     OW62468   6.058   3.697   2.778
20210SOL    HW162469   6.023   3.648   2.853
20210SOL    HW262470   6.129   3.643   2.745
20211SOL     OW62471  14.271  14.484  14.392
20211SOL    HW162472  14.256  14.574  14.363
20211SOL    HW262473  14.282  14.491  14.486
20212SOL     OW62474   0.555   3.047   1.175
20212SOL    HW162475   0.626   3.004   1.223
20212SOL    HW262476   0.490   2.978   1.161
20213SOL     OW62477   1.347  11.492  10.271
20213SOL    HW162478   1.251  11.501  10.277
20213SOL    HW262479   1.368  11.421  10.333
20214SOL     OW62480  13.548   7.806   2.357
20214SOL    HW162481  13.604   7.739   2.316
20214SOL    HW262482  13.530   7.772   2.444
20215SOL     OW62483   0.968   5.004   0.772
20215SOL    HW162484   0.957   4.934   0.836
20215SOL    HW262485   0.898   4.990   0.708
20216SOL     OW62486   8.474   1.333  12.333
20216SOL    HW162487   8.524   1.252  12.342
20216SOL    HW262488   8.532   1.401  12.367
20217SOL     OW62489   2.309  14.379  11.944
20217SOL    HW162490   2.277  14.455  11.993
20217SOL    HW262491   2.403  14.395  11.937
20218SOL     OW62492  13.804   5.289   1.842
20218SOL    HW162493  13.817   5.207   1.794
20218SOL    HW262494  13.758   5.346   1.780
20219SOL     OW62495  10.085  14.273  14.587
20219SOL    HW162496  10.012  14.309  14.637
20219SOL    HW262497  10.047  14.198  14.540
20220SOL     OW62498   5.100   6.776   4.388
20220SOL    HW162499   5.054   6.846   4.341
20220SOL    HW262500   5.177   6.820   4.426
20221SOL     OW62501   3.364   8.160   6.841
20221SOL    HW162502   3.399   8.180   6.928
20221SOL    HW262503   3.416   8.213   6.781
20222SOL     OW62504   4.079   1.550   6.347
20222SOL    HW162505   4.143   1.484   6.374
20222SOL    HW262506   4.101   1.627   6.400
20223SOL     OW62507   6.889  10.373  12.471
20223SOL    HW162508   6.876  10.387  12.565
20223SOL    HW262509   6.927  10.455  12.440
20224SOL     OW62510  13.506  11.309   7.589
20224SOL    HW162511  13.485  11.402   7.599
20224SOL    HW262512  13.574  11.307   7.522
20225SOL     OW62513   1.773   4.971   9.053
20225SOL    HW162514   1.706   4.964   8.985
20225SOL    HW262515   1.836   5.035   9.018
20226SOL     OW62516   1.939  14.493  10.829
20226SOL    HW162517   2.018  14.454  10.866
20226SOL    HW262518   1.929  14.576  10.876
20227SOL     OW62519   3.836  13.397   8.694
20227SOL    HW162520   3.756  13.432   8.655
20227SOL    HW262521   3.834  13.427   8.785
20228SOL     OW62522   0.391   1.894   6.399
20228SOL    HW162523   0.406   1.980   6.437
20228SOL    HW262524   0.450   1.836   6.447
20229SOL     OW62525  12.106  10.106  14.437
20229SOL    HW162526  12.056  10.095  14.518
20229SOL    HW262527  12.164  10.180  14.454
20230SOL     OW62528   7.743  14.378   2.363
20230SOL    HW162529   7.781  14.322   2.430
20230SOL    HW262530   7.673  14.426   2.407
20231SOL     OW62531   8.786   4.915   8.581
20231SOL    HW162532   8.789   5.009   8.601
20231SOL    HW262533   8.784   4.910   8.486
20232SOL     OW62534  13.029   1.413   7.340
20232SOL    HW162535  12.992   1.500   7.326
20232SOL    HW262536  12.989   1.383   7.422
20233SOL     OW62537   3.360   0.702   8.298
20233SOL    HW162538   3.397   0.772   8.246
20233SOL    HW262539   3.435   0.653   8.330
20234SOL     OW62540   1.378   4.871  13.183
20234SOL    HW162541   1.351   4.828  13.102
20234SOL    HW262542   1.473   4.858  13.186
20235SOL     OW62543  13.083   8.821  13.648
20235SOL    HW162544  13.007   8.764  13.636
20235SOL    HW262545  13.064   8.872  13.727
20236SOL     OW62546   4.678   9.764   0.074
20236SOL    HW162547   4.716   9.842   0.033
20236SOL    HW262548   4.703   9.693   0.015
20237SOL     OW62549  14.331  11.749   9.132
20237SOL    HW162550  14.347  11.771   9.041
20237SOL    HW262551  14.244  11.709   9.133
20238SOL     OW62552   3.255   2.410  12.271
20238SOL    HW162553   3.230   2.484  12.327
20238SOL    HW262554   3.325   2.367  12.320
20239SOL     OW62555   5.694   4.152   6.794
20239SOL    HW162556   5.789   4.142   6.805
20239SOL    HW262557   5.674   4.235   6.838
20240SOL     OW62558   7.802  11.930   2.007
20240SOL    HW162559   7.759  11.846   2.028
20240SOL    HW262560   7.743  11.996   2.043
20241SOL     OW62561   3.012   6.786   6.581
20241SOL    HW162562   2.924   6.756   6.602
20241SOL    HW262563   3.049   6.814   6.664
20242SOL     OW62564  11.106  12.058   2.758
20242SOL    HW162565  11.149  11.975   2.737
20242SOL    HW262566  11.177  12.122   2.765
20243SOL     OW62567  10.830   2.350   5.950
20243SOL    HW162568  10.829   2.435   5.993
20243SOL    HW262569  10.767   2.297   6.000
20244SOL     OW62570  12.382   8.920   4.052
20244SOL    HW162571  12.300   8.926   4.100
20244SOL    HW262572  12.381   8.998   3.995
20245SOL     OW62573   3.435  14.502   2.607
20245SOL    HW162574   3.498  14.475   2.541
20245SOL    HW262575   3.483  14.500   2.689
20246SOL     OW62576   4.530   5.039  12.729
20246SOL    HW162577   4.527   5.100  12.802
20246SOL    HW262578   4.544   4.954  12.769
20247SOL     OW62579   9.386   7.111   7.325
20247SOL    HW162580   9.477   7.083   7.338
20247SOL    HW262581   9.387   7.205   7.341
20248SOL     OW62582  10.361   4.965  12.760
20248SOL    HW162583  10.382   5.058  12.758
20248SOL    HW262584  10.266   4.962  12.750
20249SOL     OW62585  12.820   7.633   1.150
20249SOL    HW162586  12.807   7.549   1.195
20249SOL    HW262587  12.912   7.632   1.123
20250SOL     OW62588   2.214   8.179   5.575
20250SOL    HW162589   2.265   8.236   5.518
20250SOL    HW262590   2.181   8.237   5.644
20251SOL     OW62591  10.795  11.644   2.738
20251SOL    HW162592  10.836  11.693   2.810
20251SOL    HW262593  10.719  11.601   2.778
20252SOL     OW62594   1.943   8.645  12.652
20252SOL    HW162595   1.879   8.575  12.668
20252SOL    HW262596   1.945   8.694  12.734
20253SOL     OW62597  11.934   1.282   1.083
20253SOL    HW162598  11.844   1.275   1.115
20253SOL    HW262599  11.981   1.215   1.132
20254SOL     OW62600   9.544   3.570  14.636
20254SOL    HW162601   9.578   3.651  14.598
20254SOL    HW262602   9.453   3.591  14.657
20255SOL     OW62603   2.592   2.473   4.109
20255SOL    HW162604   2.602   2.493   4.017
20255SOL    HW262605   2.568   2.556   4.150
20256SOL     OW62606  14.380   1.200   2.164
20256SOL    HW162607  14.396   1.209   2.070
20256SOL    HW262608  14.365   1.290   2.194
20257SOL     OW62609   8.085   0.547   5.862
20257SOL    HW162610   8.095   0.453   5.848
20257SOL    HW262611   8.006   0.570   5.813
20258SOL     OW62612   0.146  10.805   2.522
20258SOL    HW162613   0.127  10.717   2.556
20258SOL    HW262614   0.171  10.791   2.431
20259SOL     OW62615   4.508   4.414   4.101
20259SOL    HW162616   4.456   4.368   4.167
20259SOL    HW262617   4.547   4.487   4.148
20260SOL     OW62618  12.913   2.493  11.608
20260SOL    HW162619  12.884   2.479  11.518
20260SOL    HW262620  12.992   2.546  11.600
20261SOL     OW62621   5.258  12.525   0.659
20261SOL    HW162622   5.352  12.526   0.674
20261SOL    HW262623   5.232  12.617   0.670
20262SOL     OW62624   2.699   5.947   8.279
20262SOL    HW162625   2.758   6.022   8.266
20262SOL    HW262626   2.613   5.987   8.294
20263SOL     OW62627   9.097   3.755  14.532
20263SOL    HW162628   9.033   3.815  14.571
20263SOL    HW262629   9.082   3.762  14.438
20264SOL     OW62630   2.205   4.756  10.379
20264SOL    HW162631   2.262   4.802  10.318
20264SOL    HW262632   2.135   4.818  10.400
20265SOL     OW62633   2.122  11.521   6.642
20265SOL    HW162634   2.115  11.436   6.599
20265SOL    HW262635   2.107  11.504   6.734
20266SOL     OW62636   1.360   6.996   1.945
20266SOL    HW162637   1.400   7.004   2.032
20266SOL    HW262638   1.434   6.999   1.884
20267SOL     OW62639   6.713   9.220   5.768
20267SOL    HW162640   6.618   9.207   5.758
20267SOL    HW262641   6.737   9.279   5.697
20268SOL     OW62642  10.125   9.601   1.529
20268SOL    HW162643  10.168   9.646   1.602
20268SOL    HW262644  10.040   9.575   1.564
20269SOL     OW62645   5.195  11.096  10.319
20269SOL    HW162646   5.155  11.125  10.402
20269SOL    HW262647   5.283  11.068  10.344
20270SOL     OW62648  13.314   9.751   5.598
20270SOL    HW162649  13.238   9.802   5.626
20270SOL    HW262650  13.282   9.700   5.524
20271SOL     OW62651  10.737   1.075   8.260
20271SOL    HW162652  10.735   0.980   8.264
20271SOL    HW262653  10.724   1.095   8.167
20272SOL     OW62654   7.852   6.933  11.326
20272SOL    HW162655   7.782   6.926  11.391
20272SOL    HW262656   7.808   6.927  11.242
20273SOL     OW62657   6.874   5.960   0.767
20273SOL    HW162658   6.943   5.995   0.710
20273SOL    HW262659   6.831   6.037   0.802
20274SOL     OW62660   8.728   0.099   9.598
20274SOL    HW162661   8.801   0.156   9.622
20274SOL    HW262662   8.769   0.027   9.549
20275SOL     OW62663  13.489   5.126  11.474
20275SOL    HW162664  13.461   5.213  11.502
20275SOL    HW262665  13.575   5.114  11.516
20276SOL     OW62666   5.770  12.148   2.037
20276SOL    HW162667   5.808  12.066   2.069
20276SOL    HW262668   5.721  12.182   2.112
20277SOL     OW62669  12.316  10.345   2.481
20277SOL    HW162670  12.252  10.280   2.510
20277SOL    HW262671  12.389  10.292   2.449
20278SOL     OW62672  11.608  11.040   6.701
20278SOL    HW162673  11.662  10.983   6.647
20278SOL    HW262674  11.591  11.116   6.645
20279SOL     OW62675   5.298   3.782  12.809
20279SOL    HW162676   5.253   3.867  12.815
20279SOL    HW262677   5.387   3.799  12.839
20280SOL     OW62678   3.783  12.085  11.815
20280SOL    HW162679   3.866  12.039  11.825
20280SOL    HW262680   3.719  12.028  11.857
20281SOL     OW62681   3.492  11.328   0.019
20281SOL    HW162682   3.450  11.374   0.091
20281SOL    HW262683   3.528  11.398  14.837
20282SOL     OW62684   5.663   3.271  14.204
20282SOL    HW162685   5.756   3.259  14.184
20282SOL    HW262686   5.639   3.350  14.156
20283SOL     OW62687   2.278   5.393  14.196
20283SOL    HW162688   2.208   5.458  14.191
20283SOL    HW262689   2.351   5.439  14.237
20284SOL     OW62690   6.052  14.738  12.565
20284SOL    HW162691   5.963  14.767  12.542
20284SOL    HW262692   6.040  14.649  12.598
20285SOL     OW62693  10.586  11.360   4.807
20285SOL    HW162694  10.624  11.295   4.748
20285SOL    HW262695  10.561  11.433   4.749
20286SOL     OW62696   3.296   4.166   5.790
20286SOL    HW162697   3.283   4.250   5.835
20286SOL    HW262698   3.269   4.100   5.854
20287SOL     OW62699   4.070   5.223   4.090
20287SOL    HW162700   4.090   5.150   4.149
20287SOL    HW262701   3.986   5.256   4.122
20288SOL     OW62702   3.230   3.106   1.526
20288SOL    HW162703   3.173   3.156   1.466
20288SOL    HW262704   3.169   3.056   1.580
20289SOL     OW62705  13.245   3.218  11.969
20289SOL    HW162706  13.299   3.272  12.026
20289SOL    HW262707  13.200   3.158  12.028
20290SOL     OW62708   8.312  11.800   2.913
20290SOL    HW162709   8.397  11.801   2.955
20290SOL    HW262710   8.263  11.871   2.956
20291SOL     OW62711   5.402   5.599   4.274
20291SOL    HW162712   5.483   5.636   4.309
20291SOL    HW262713   5.426   5.561   4.190
20292SOL     OW62714   7.302   3.880   1.102
20292SOL    HW162715   7.213   3.846   1.104
20292SOL    HW262716   7.320   3.908   1.193
20293SOL     OW62717   4.491   3.466   2.804
20293SOL    HW162718   4.462   3.374   2.807
20293SOL    HW262719   4.586   3.461   2.791
20294SOL     OW62720   5.584   0.555  11.545
20294SOL    HW162721   5.542   0.536  11.461
20294SOL    HW262722   5.587   0.471  11.590
20295SOL     OW62723   0.835  11.599  14.169
20295SOL    HW162724   0.833  11.695  14.175
20295SOL    HW262725   0.909  11.573  14.225
20296SOL     OW62726   2.809  14.330   0.076
20296SOL    HW162727   2.836  14.256   0.023
20296SOL    HW262728   2.837  14.308   0.165
20297SOL     OW62729   5.645   6.256   1.111
20297SOL    HW162730   5.728   6.276   1.068
20297SOL    HW262731   5.669   6.244   1.203
20298SOL     OW62732   8.153   0.748   3.961
20298SOL    HW162733   8.075   0.697   3.937
20298SOL    HW262734   8.216   0.682   3.990
20299SOL     OW62735   4.234  10.223   4.645
20299SOL    HW162736   4.211  10.287   4.578
20299SOL    HW262737   4.306  10.264   4.694
20300SOL     OW62738   6.397   4.283   9.322
20300SOL    HW162739   6.392   4.271   9.228
20300SOL    HW262740   6.488   4.265   9.345
20301SOL     OW62741  14.099   5.443  13.664
20301SOL    HW162742  14.097   5.496  13.584
20301SOL    HW262743  14.108   5.353  13.634
20302SOL     OW62744  14.058  10.094   3.075
20302SOL    HW162745  14.058  10.189   3.067
20302SOL    HW262746  13.969  10.068   3.050
20303SOL     OW62747   1.249   1.116   0.494
20303SOL    HW162748   1.272   1.082   0.408
20303SOL    HW262749   1.175   1.175   0.477
20304SOL     OW62750   6.366   3.844   3.238
20304SOL    HW162751   6.281   3.800   3.244
20304SOL    HW262752   6.386   3.870   3.328
20305SOL     OW62753   3.460   0.813  12.417
20305SOL    HW162754   3.539   0.765  12.390
20305SOL    HW262755   3.461   0.892  12.363
20306SOL     OW62756   6.739  12.986   1.133
20306SOL    HW162757   6.671  12.966   1.197
20306SOL    HW262758   6.781  12.902   1.114
20307SOL     OW62759   3.813   3.134   1.991
20307SOL    HW162760   3.794   3.225   1.965
20307SOL    HW262761   3.746   3.113   2.056
20308SOL     OW62762  12.560   3.537  11.788
20308SOL    HW162763  12.620   3.561  11.717
20308SOL    HW262764  12.474   3.537  11.748
20309SOL     OW62765   6.636   5.210  13.873
20309SOL    HW162766   6.720   5.164  13.877
20309SOL    HW262767   6.570   5.141  13.875
20310SOL     OW62768   8.972  13.971   8.724
20310SOL    HW162769   8.901  13.907   8.726
20310SOL    HW262770   8.985  13.995   8.816
20311SOL     OW62771  11.830  13.816   5.565
20311SOL    HW162772  11.900  13.755   5.541
20311SOL    HW262773  11.799  13.784   5.650
20312SOL     OW62774   3.204  10.753   8.696
20312SOL    HW162775   3.209  10.703   8.614
20312SOL    HW262776   3.112  10.777   8.703
20313SOL     OW62777   5.841  14.776   7.263
20313SOL    HW162778   5.780  14.758   7.192
20313SOL    HW262779   5.896  14.847   7.230
20314SOL     OW62780   0.828  13.969  11.212
20314SOL    HW162781   0.901  13.964  11.273
20314SOL    HW262782   0.856  13.917  11.137
20315SOL     OW62783   9.942   6.083   0.551
20315SOL    HW162784   9.967   6.148   0.616
20315SOL    HW262785   9.995   6.006   0.571
20316SOL     OW62786   7.924   7.762  13.364
20316SOL    HW162787   7.946   7.830  13.428
20316SOL    HW262788   7.969   7.790  13.284
20317SOL     OW62789   5.681  14.298   2.799
20317SOL    HW162790   5.720  14.385   2.793
20317SOL    HW262791   5.611  14.308   2.863
20318SOL     OW62792   4.726  11.366  12.705
20318SOL    HW162793   4.708  11.455  12.734
20318SOL    HW262794   4.821  11.360  12.699
20319SOL     OW62795   1.922   4.904   2.782
20319SOL    HW162796   1.920   4.908   2.878
20319SOL    HW262797   1.830   4.912   2.757
20320SOL     OW62798   3.516   1.473  10.133
20320SOL    HW162799   3.601   1.431  10.119
20320SOL    HW262800   3.470   1.464  10.049
20321SOL     OW62801  14.337   6.564   3.522
20321SOL    HW162802  14.326   6.489   3.580
20321SOL    HW262803  14.281   6.546   3.447
20322SOL     OW62804  10.308   8.327   1.077
20322SOL    HW162805  10.355   8.409   1.068
20322SOL    HW262806  10.232   8.336   1.019
20323SOL     OW62807   4.798   4.682  11.388
20323SOL    HW162808   4.866   4.702  11.324
20323SOL    HW262809   4.761   4.599  11.359
20324SOL     OW62810  11.671   7.552   2.023
20324SOL    HW162811  11.648   7.459   2.027
20324SOL    HW262812  11.619   7.592   2.093
20325SOL     OW62813   2.825   9.612   1.096
20325SOL    HW162814   2.830   9.708   1.100
20325SOL    HW262815   2.806   9.586   1.186
20326SOL     OW62816   4.935   2.291  12.107
20326SOL    HW162817   4.964   2.263  12.020
20326SOL    HW262818   5.013   2.278  12.163
20327SOL     OW62819   2.565   4.533   7.325
20327SOL    HW162820   2.643   4.481   7.306
20327SOL    HW262821   2.581   4.569   7.413
20328SOL     OW62822   6.455   8.416   0.928
20328SOL    HW162823   6.373   8.375   0.955
20328SOL    HW262824   6.516   8.343   0.919
20329SOL     OW62825  13.039  10.454  11.096
20329SOL    HW162826  12.993  10.485  11.175
20329SOL    HW262827  13.053  10.360  11.112
20330SOL     OW62828   2.958   1.338   2.942
20330SOL    HW162829   3.043   1.294   2.937
20330SOL    HW262830   2.976   1.428   2.915
20331SOL     OW62831   0.944   9.376   2.363
20331SOL    HW162832   0.987   9.450   2.406
20331SOL    HW262833   0.867   9.359   2.417
20332SOL     OW62834   1.175   9.352   4.155
20332SOL    HW162835   1.245   9.413   4.131
20332SOL    HW262836   1.096   9.391   4.120
20333SOL     OW62837  12.075   1.999   9.629
20333SOL    HW162838  12.046   2.088   9.607
20333SOL    HW262839  12.010   1.969   9.693
20334SOL     OW62840   4.254   9.646  13.173
20334SOL    HW162841   4.260   9.715  13.239
20334SOL    HW262842   4.345   9.630  13.147
20335SOL     OW62843  14.543   5.255  10.129
20335SOL    HW162844  14.458   5.290  10.156
20335SOL    HW262845  14.530   5.228  10.038
20336SOL     OW62846   6.549   1.227  13.522
20336SOL    HW162847   6.509   1.282  13.589
20336SOL    HW262848   6.550   1.140  13.560
20337SOL     OW62849   2.747   9.953   3.026
20337SOL    HW162850   2.782   9.869   2.995
20337SOL    HW262851   2.764  10.014   2.954
20338SOL     OW62852  14.645   2.425   9.286
20338SOL    HW162853  14.706   2.364   9.329
20338SOL    HW262854  14.611   2.479   9.357
20339SOL     OW62855   5.359   8.506   3.638
20339SOL    HW162856   5.296   8.461   3.582
20339SOL    HW262857   5.435   8.448   3.641
20340SOL     OW62858  14.840  13.450   3.930
20340SOL    HW162859  14.772  13.433   3.996
20340SOL    HW262860  14.828  13.382   3.865
20341SOL     OW62861   7.918  10.684  11.927
20341SOL    HW162862   7.984  10.652  11.988
20341SOL    HW262863   7.888  10.605  11.881
20342SOL     OW62864   9.524   1.483   1.660
20342SOL    HW162865   9.520   1.555   1.597
20342SOL    HW262866   9.446   1.431   1.642
20343SOL     OW62867   0.737   8.248   4.871
20343SOL    HW162868   0.725   8.156   4.845
20343SOL    HW262869   0.801   8.283   4.809
20344SOL     OW62870   6.842  10.368  11.875
20344SOL    HW162871   6.864  10.279  11.850
20344SOL    HW262872   6.763  10.359  11.929
20345SOL     OW62873  10.085   8.433   0.838
20345SOL    HW162874  10.168   8.385   0.833
20345SOL    HW262875  10.020   8.366   0.859
20346SOL     OW62876   8.380   7.550   0.883
20346SOL    HW162877   8.451   7.586   0.829
20346SOL    HW262878   8.425   7.501   0.952
20347SOL     OW62879   4.331   5.538   6.615
20347SOL    HW162880   4.265   5.603   6.591
20347SOL    HW262881   4.406   5.556   6.558
20348SOL     OW62882   9.700   2.798   5.448
20348SOL    HW162883   9.783   2.773   5.490
20348SOL    HW262884   9.634   2.744   5.493
20349SOL     OW62885  12.178   2.202   4.984
20349SOL    HW162886  12.122   2.166   4.915
20349SOL    HW262887  12.122   2.200   5.062
20350SOL     OW62888   9.612   7.873   4.861
20350SOL    HW162889   9.606   7.778   4.850
20350SOL    HW262890   9.564   7.909   4.786
20351SOL     OW62891   1.032  11.539  14.358
20351SOL    HW162892   1.026  11.482  14.434
20351SOL    HW262893   1.076  11.618  14.390
20352SOL     OW62894   2.563  11.145   7.293
20352SOL    HW162895   2.647  11.118   7.257
20352SOL    HW262896   2.506  11.069   7.279
20353SOL     OW62897  14.177  12.445   8.360
20353SOL    HW162898  14.225  12.363   8.376
20353SOL    HW262899  14.139  12.434   8.274
20354SOL     OW62900   3.234  11.306  11.732
20354SOL    HW162901   3.147  11.267  11.736
20354SOL    HW262902   3.275  11.282  11.815
20355SOL     OW62903  10.409  12.294   9.114
20355SOL    HW162904  10.471  12.246   9.168
20355SOL    HW262905  10.458  12.372   9.086
20356SOL     OW62906  11.268   8.073   0.032
20356SOL    HW162907  11.264   8.032   0.119
20356SOL    HW262908  11.177   8.088   0.008
20357SOL     OW62909  11.444  11.289  14.478
20357SOL    HW162910  11.357  11.254  14.457
20357SOL    HW262911  11.499  11.212  14.486
20358SOL     OW62912   7.200  13.167   6.770
20358SOL    HW162913   7.193  13.261   6.783
20358SOL    HW262914   7.133  13.146   6.705
20359SOL     OW62915   5.961   7.272   2.243
20359SOL    HW162916   5.987   7.330   2.315
20359SOL    HW262917   6.023   7.200   2.247
20360SOL     OW62918  12.703  11.501   6.959
20360SOL    HW162919  12.795  11.490   6.985
20360SOL    HW262920  12.687  11.431   6.897
20361SOL     OW62921   1.303   2.365   9.075
20361SOL    HW162922   1.231   2.307   9.102
20361SOL    HW262923   1.356   2.376   9.154
20362SOL     OW62924   2.069   9.846   0.351
20362SOL    HW162925   2.037   9.765   0.311
20362SOL    HW262926   1.990   9.894   0.377
20363SOL     OW62927  11.639   2.840   1.471
20363SOL    HW162928  11.548   2.831   1.442
20363SOL    HW262929  11.643   2.793   1.555
20364SOL     OW62930   3.033  13.573  14.787
20364SOL    HW162931   3.012  13.595   0.003
20364SOL    HW262932   3.106  13.511  14.794
20365SOL     OW62933   9.641   0.717  11.072
20365SOL    HW162934   9.689   0.740  10.992
20365SOL    HW262935   9.631   0.800  11.118
20366SOL     OW62936   7.461   9.505  11.463
20366SOL    HW162937   7.377   9.528  11.424
20366SOL    HW262938   7.522   9.571  11.431
20367SOL     OW62939   5.061   7.870   0.819
20367SOL    HW162940   5.013   7.935   0.767
20367SOL    HW262941   5.099   7.810   0.755
20368SOL     OW62942  14.571  13.553   4.857
20368SOL    HW162943  14.593  13.519   4.771
20368SOL    HW262944  14.476  13.566   4.854
20369SOL     OW62945   1.897   3.414   4.112
20369SOL    HW162946   1.853   3.490   4.150
20369SOL    HW262947   1.827   3.366   4.066
20370SOL     OW62948   8.102   7.110   3.345
20370SOL    HW162949   8.168   7.107   3.276
20370SOL    HW262950   8.076   7.019   3.358
20371SOL     OW62951   3.639   1.418  14.590
20371SOL    HW162952   3.720   1.379  14.557
20371SOL    HW262953   3.583   1.426  14.513
20372SOL     OW62954   6.924   5.229   0.145
20372SOL    HW162955   6.902   5.199   0.233
20372SOL    HW262956   6.842   5.221   0.096
20373SOL     OW62957   8.282   9.554   3.601
20373SOL    HW162958   8.226   9.478   3.586
20373SOL    HW262959   8.370   9.517   3.609
20374SOL     OW62960   0.393   3.764   4.557
20374SOL    HW162961   0.334   3.720   4.495
20374SOL    HW262962   0.440   3.692   4.599
20375SOL     OW62963   4.733   0.213   4.109
20375SOL    HW162964   4.770   0.282   4.164
20375SOL    HW262965   4.639   0.215   4.130
20376SOL     OW62966  13.782   1.325   3.463
20376SOL    HW162967  13.687   1.322   3.478
20376SOL    HW262968  13.795   1.275   3.382
20377SOL     OW62969   2.826   2.004   3.587
20377SOL    HW162970   2.768   1.948   3.639
20377SOL    HW262971   2.776   2.024   3.508
20378SOL     OW62972   9.402  11.034   7.669
20378SOL    HW162973   9.419  11.072   7.583
20378SOL    HW262974   9.397  10.940   7.653
20379SOL     OW62975   8.951  14.820   1.914
20379SOL    HW162976   8.866  14.776   1.918
20379SOL    HW262977   8.945   0.017   1.978
20380SOL     OW62978   5.898  10.901   7.694
20380SOL    HW162979   5.929  10.815   7.663
20380SOL    HW262980   5.803  10.898   7.683
20381SOL     OW62981   2.977  10.297   5.615
20381SOL    HW162982   2.972  10.201   5.623
20381SOL    HW262983   2.911  10.319   5.549
20382SOL     OW62984   7.637  12.984  10.827
20382SOL    HW162985   7.547  13.004  10.852
20382SOL    HW262986   7.685  13.064  10.847
20383SOL     OW62987   4.126   2.658   6.342
20383SOL    HW162988   4.143   2.578   6.392
20383SOL    HW262989   4.212   2.699   6.333
20384SOL     OW62990  14.260   1.198  13.726
20384SOL    HW162991  14.314   1.175  13.650
20384SOL    HW262992  14.279   1.291  13.741
20385SOL     OW62993  10.034   2.047   4.041
20385SOL    HW162994   9.942   2.028   4.059
20385SOL    HW262995  10.074   2.058   4.127
20386SOL     OW62996   7.250   0.569   0.731
20386SOL    HW162997   7.304   0.493   0.709
20386SOL    HW262998   7.160   0.536   0.728
20387SOL     OW62999   7.213  10.556   6.483
20387SOL    HW163000   7.124  10.554   6.520
20387SOL    HW263001   7.238  10.464   6.476
20388SOL     OW63002   1.259   8.498   7.431
20388SOL    HW163003   1.222   8.439   7.365
20388SOL    HW263004   1.347   8.465   7.446
20389SOL     OW63005   8.352   6.884  13.804
20389SOL    HW163006   8.317   6.821  13.868
20389SOL    HW263007   8.297   6.871  13.726
20390SOL     OW63008  11.311   5.281   4.087
20390SOL    HW163009  11.350   5.202   4.124
20390SOL    HW263010  11.278   5.253   4.001
20391SOL     OW63011   5.681  10.165  13.556
20391SOL    HW163012   5.632  10.210  13.625
20391SOL    HW263013   5.663  10.216  13.476
20392SOL     OW63014  10.831   5.778  10.650
20392SOL    HW163015  10.811   5.766  10.557
20392SOL    HW263016  10.918   5.816  10.652
20393SOL     OW63017   3.162   1.407   0.817
20393SOL    HW163018   3.168   1.436   0.726
20393SOL    HW263019   3.177   1.312   0.812
20394SOL     OW63020   1.873  14.102   2.225
20394SOL    HW163021   1.961  14.135   2.204
20394SOL    HW263022   1.863  14.120   2.319
20395SOL     OW63023   1.636  11.453   8.508
20395SOL    HW163024   1.601  11.479   8.594
20395SOL    HW263025   1.605  11.521   8.448
20396SOL     OW63026   0.173   4.541   3.734
20396SOL    HW163027   0.196   4.478   3.802
20396SOL    HW263028   0.242   4.532   3.669
20397SOL     OW63029  12.529  13.804   8.503
20397SOL    HW163030  12.495  13.826   8.590
20397SOL    HW263031  12.460  13.833   8.443
20398SOL     OW63032  10.610  11.173   7.162
20398SOL    HW163033  10.659  11.179   7.080
20398SOL    HW263034  10.571  11.085   7.161
20399SOL     OW63035   7.210   2.175   8.239
20399SOL    HW163036   7.204   2.169   8.144
20399SOL    HW263037   7.297   2.211   8.255
20400SOL     OW63038   5.271   3.864   5.394
20400SOL    HW163039   5.210   3.790   5.397
20400SOL    HW263040   5.357   3.824   5.383
20401SOL     OW63041  13.093   5.533   8.367
20401SOL    HW163042  13.169   5.586   8.391
20401SOL    HW263043  13.025   5.597   8.346
20402SOL     OW63044  14.345  14.830   3.088
20402SOL    HW163045  14.413   0.023   3.098
20402SOL    HW263046  14.355  14.798   2.999
20403SOL     OW63047   8.849   5.673   3.740
20403SOL    HW163048   8.930   5.711   3.772
20403SOL    HW263049   8.835   5.596   3.795
20404SOL     OW63050   5.738   9.343  11.721
20404SOL    HW163051   5.738   9.298  11.637
20404SOL    HW263052   5.653   9.321  11.760
20405SOL     OW63053   8.234  13.347  12.282
20405SOL    HW163054   8.272  13.297  12.354
20405SOL    HW263055   8.298  13.337  12.211
20406SOL     OW63056  11.030   9.547   9.877
20406SOL    HW163057  10.968   9.533   9.949
20406SOL    HW263058  11.008   9.634   9.844
20407SOL     OW63059   7.677   1.515  11.180
20407SOL    HW163060   7.612   1.452  11.212
20407SOL    HW263061   7.725   1.542  11.259
20408SOL     OW63062   6.384   8.827   1.908
20408SOL    HW163063   6.366   8.757   1.844
20408SOL    HW263064   6.336   8.799   1.986
20409SOL     OW63065  13.178   9.068  10.176
20409SOL    HW163066  13.221   9.120  10.109
20409SOL    HW263067  13.244   9.004  10.203
20410SOL     OW63068   3.673   1.486   6.555
20410SOL    HW163069   3.702   1.496   6.464
20410SOL    HW263070   3.592   1.437   6.549
20411SOL     OW63071  11.585   1.531  14.269
20411SOL    HW163072  11.554   1.621  14.274
20411SOL    HW263073  11.570   1.505  14.178
20412SOL     OW63074  11.502  10.389   4.668
20412SOL    HW163075  11.575  10.430   4.713
20412SOL    HW263076  11.543  10.333   4.602
20413SOL     OW63077   3.047   9.157  12.555
20413SOL    HW163078   3.093   9.074  12.570
20413SOL    HW263079   3.102   9.203  12.491
20414SOL     OW63080  13.984   8.382   9.870
20414SOL    HW163081  14.043   8.333   9.813
20414SOL    HW263082  14.012   8.473   9.862
20415SOL     OW63083   4.336   7.970  12.947
20415SOL    HW163084   4.349   8.059  12.915
20415SOL    HW263085   4.241   7.959  12.948
20416SOL     OW63086  11.635   1.187   6.699
20416SOL    HW163087  11.557   1.226   6.739
20416SOL    HW263088  11.675   1.136   6.769
20417SOL     OW63089   6.701   0.435  14.229
20417SOL    HW163090   6.794   0.418  14.239
20417SOL    HW263091   6.663   0.413  14.314
20418SOL     OW63092   5.802  12.188   5.785
20418SOL    HW163093   5.745  12.245   5.733
20418SOL    HW263094   5.751  12.108   5.796
20419SOL     OW63095   4.545  13.153   1.670
20419SOL    HW163096   4.599  13.145   1.591
20419SOL    HW263097   4.546  13.065   1.709
20420SOL     OW63098   6.827   2.727  12.835
20420SOL    HW163099   6.905   2.766  12.874
20420SOL    HW263100   6.776   2.802  12.804
20421SOL     OW63101   6.768   2.498   7.953
20421SOL    HW163102   6.683   2.453   7.954
20421SOL    HW263103   6.831   2.431   7.928
20422SOL     OW63104   5.058   8.668  10.777
20422SOL    HW163105   5.069   8.716  10.859
20422SOL    HW263106   5.038   8.736  10.713
20423SOL     OW63107   8.841   3.487  14.669
20423SOL    HW163108   8.913   3.423  14.671
20423SOL    HW263109   8.885   3.572  14.668
20424SOL     OW63110   6.274   1.905   0.246
20424SOL    HW163111   6.307   1.882   0.333
20424SOL    HW263112   6.182   1.928   0.261
20425SOL     OW63113   3.321   7.839   0.106
20425SOL    HW163114   3.347   7.764   0.159
20425SOL    HW263115   3.390   7.904   0.122
20426SOL     OW63116  11.058  13.124   3.053
20426SOL    HW163117  11.078  13.099   2.963
20426SOL    HW263118  11.136  13.171   3.083
20427SOL     OW63119   1.391   0.577   0.462
20427SOL    HW163120   1.471   0.629   0.451
20427SOL    HW263121   1.320   0.640   0.453
20428SOL     OW63122   2.414  13.033   9.238
20428SOL    HW163123   2.483  13.070   9.294
20428SOL    HW263124   2.333  13.070   9.273
20429SOL     OW63125   7.083   4.855  11.362
20429SOL    HW163126   7.037   4.772  11.350
20429SOL    HW263127   7.017   4.922  11.345
20430SOL     OW63128   6.670   2.020  14.623
20430SOL    HW163129   6.684   2.057  14.536
20430SOL    HW263130   6.636   1.932  14.606
20431SOL     OW63131   1.581   1.970   9.545
20431SOL    HW163132   1.540   1.952   9.629
20431SOL    HW263133   1.593   1.884   9.505
20432SOL     OW63134  13.057   3.363  10.508
20432SOL    HW163135  12.967   3.387  10.487
20432SOL    HW263136  13.072   3.400  10.595
20433SOL     OW63137   3.497   8.435   1.980
20433SOL    HW163138   3.452   8.437   2.064
20433SOL    HW263139   3.447   8.372   1.927
20434SOL     OW63140   1.783  14.036   7.088
20434SOL    HW163141   1.709  14.037   7.027
20434SOL    HW263142   1.770  13.956   7.138
20435SOL     OW63143  10.708  10.166  14.199
20435SOL    HW163144  10.751  10.174  14.114
20435SOL    HW263145  10.779  10.179  14.263
20436SOL     OW63146  10.516   2.735   2.252
20436SOL    HW163147  10.454   2.700   2.316
20436SOL    HW263148  10.598   2.689   2.271
20437SOL     OW63149  11.145  12.726   4.585
20437SOL    HW163150  11.233  12.751   4.557
20437SOL    HW263151  11.104  12.688   4.508
20438SOL     OW63152   9.964  14.429   9.840
20438SOL    HW163153   9.887  14.484   9.854
20438SOL    HW263154   9.954  14.357   9.901
20439SOL     OW63155   6.540  13.960  11.847
20439SOL    HW163156   6.493  14.015  11.910
20439SOL    HW263157   6.477  13.945  11.777
20440SOL     OW63158   2.098   8.716   5.207
20440SOL    HW163159   2.181   8.743   5.168
20440SOL    HW263160   2.078   8.785   5.270
20441SOL     OW63161   4.623   2.487   7.178
20441SOL    HW163162   4.681   2.462   7.106
20441SOL    HW263163   4.611   2.407   7.229
20442SOL     OW63164   0.767  10.239   6.872
20442SOL    HW163165   0.704  10.206   6.936
20442SOL    HW263166   0.848  10.252   6.921
20443SOL     OW63167  11.451  10.323  13.354
20443SOL    HW163168  11.506  10.245  13.340
20443SOL    HW263169  11.407  10.336  13.270
20444SOL     OW63170   6.716   9.323  13.289
20444SOL    HW163171   6.739   9.405  13.246
20444SOL    HW263172   6.680   9.350  13.374
20445SOL     OW63173   5.516  11.829   1.898
20445SOL    HW163174   5.570  11.756   1.929
20445SOL    HW263175   5.492  11.877   1.977
20446SOL     OW63176  13.670   4.807  12.438
20446SOL    HW163177  13.731   4.871  12.476
20446SOL    HW263178  13.588   4.823  12.484
20447SOL     OW63179   6.186   8.332  14.215
20447SOL    HW163180   6.166   8.401  14.151
20447SOL    HW263181   6.146   8.253  14.179
20448SOL     OW63182   3.448   2.736   3.541
20448SOL    HW163183   3.408   2.652   3.519
20448SOL    HW263184   3.506   2.715   3.614
20449SOL     OW63185  13.211   5.647   4.968
20449SOL    HW163186  13.229   5.703   5.043
20449SOL    HW263187  13.154   5.699   4.912
20450SOL     OW63188   7.713   0.151  13.876
20450SOL    HW163189   7.639   0.149  13.936
20450SOL    HW263190   7.716   0.242  13.846
20451SOL     OW63191  10.374   2.505   5.021
20451SOL    HW163192  10.445   2.489   5.083
20451SOL    HW263193  10.294   2.485   5.070
20452SOL     OW63194   8.497  13.771   9.953
20452SOL    HW163195   8.507  13.862   9.925
20452SOL    HW263196   8.453  13.777  10.038
20453SOL     OW63197   9.630   6.597   0.538
20453SOL    HW163198   9.707   6.570   0.589
20453SOL    HW263199   9.666   6.633   0.458
20454SOL     OW63200   3.364   7.835   7.111
20454SOL    HW163201   3.453   7.847   7.145
20454SOL    HW263202   3.335   7.924   7.089
20455SOL     OW63203  11.435   6.528   5.537
20455SOL    HW163204  11.434   6.593   5.607
20455SOL    HW263205  11.525   6.497   5.534
20456SOL     OW63206   8.889   6.469   5.485
20456SOL    HW163207   8.937   6.521   5.420
20456SOL    HW263208   8.797   6.480   5.461
20457SOL     OW63209   8.941   2.042   4.920
20457SOL    HW163210   8.894   1.963   4.892
20457SOL    HW263211   8.908   2.111   4.862
20458SOL     OW63212   7.508   0.256  13.143
20458SOL    HW163213   7.510   0.222  13.054
20458SOL    HW263214   7.428   0.308  13.147
20459SOL     OW63215   5.813  10.738   1.853
20459SOL    HW163216   5.852  10.672   1.795
20459SOL    HW263217   5.887  10.771   1.904
20460SOL     OW63218  14.705  12.679  12.754
20460SOL    HW163219  14.621  12.636  12.768
20460SOL    HW263220  14.726  12.662  12.662
20461SOL     OW63221   3.568   2.157   1.754
20461SOL    HW163222   3.571   2.062   1.753
20461SOL    HW263223   3.547   2.179   1.845
20462SOL     OW63224   2.791  13.999   5.542
20462SOL    HW163225   2.838  13.995   5.459
20462SOL    HW263226   2.859  13.986   5.609
20463SOL     OW63227  14.515   5.639  10.727
20463SOL    HW163228  14.421   5.621  10.727
20463SOL    HW263229  14.525   5.712  10.665
20464SOL     OW63230   2.105  13.499   3.999
20464SOL    HW163231   2.090  13.529   4.089
20464SOL    HW263232   2.053  13.419   3.992
20465SOL     OW63233  14.827   8.869   9.646
20465SOL    HW163234  14.867   8.876   9.560
20465SOL    HW263235  14.743   8.914   9.638
20466SOL     OW63236   5.326   6.516   3.285
20466SOL    HW163237   5.278   6.530   3.367
20466SOL    HW263238   5.319   6.598   3.238
20467SOL     OW63239  12.467   8.999   2.830
20467SOL    HW163240  12.383   9.040   2.851
20467SOL    HW263241  12.450   8.950   2.750
20468SOL     OW63242  10.580   6.816  12.651
20468SOL    HW163243  10.487   6.806  12.630
20468SOL    HW263244  10.594   6.759  12.726
20469SOL     OW63245  13.817  14.546   4.508
20469SOL    HW163246  13.897  14.495   4.524
20469SOL    HW263247  13.785  14.512   4.424
20470SOL     OW63248   7.265   9.809   5.219
20470SOL    HW163249   7.235   9.860   5.144
20470SOL    HW263250   7.210   9.839   5.291
20471SOL     OW63251   3.800   5.613  13.097
20471SOL    HW163252   3.814   5.518  13.095
20471SOL    HW263253   3.712   5.623  13.133
20472SOL     OW63254   2.165   1.417   7.368
20472SOL    HW163255   2.102   1.420   7.440
20472SOL    HW263256   2.250   1.406   7.411
20473SOL     OW63257   9.708  12.222  12.919
20473SOL    HW163258   9.795  12.259  12.901
20473SOL    HW263259   9.658  12.239  12.840
20474SOL     OW63260   5.909  14.226   2.061
20474SOL    HW163261   5.955  14.142   2.063
20474SOL    HW263262   5.961  14.282   2.118
20475SOL     OW63263  12.544   3.578   6.518
20475SOL    HW163264  12.499   3.542   6.595
20475SOL    HW263265  12.560   3.502   6.462
20476SOL     OW63266   0.988  10.174   0.196
20476SOL    HW163267   0.952  10.152   0.282
20476SOL    HW263268   1.027  10.260   0.208
20477SOL     OW63269  12.997  13.734   1.114
20477SOL    HW163270  12.970  13.729   1.022
20477SOL    HW263271  13.093  13.730   1.110
20478SOL     OW63272  11.078   7.925  11.619
20478SOL    HW163273  10.998   7.970  11.647
20478SOL    HW263274  11.134   7.925  11.696
20479SOL     OW63275  13.932   1.560   9.101
20479SOL    HW163276  13.907   1.500   9.171
20479SOL    HW263277  13.989   1.624   9.144
20480SOL     OW63278   5.232  11.745   9.116
20480SOL    HW163279   5.297  11.807   9.082
20480SOL    HW263280   5.180  11.720   9.040
20481SOL     OW63281  11.788   1.940   7.951
20481SOL    HW163282  11.717   1.876   7.943
20481SOL    HW263283  11.795   1.956   8.045
20482SOL     OW63284  14.620  14.833  13.658
20482SOL    HW163285  14.714  14.836  13.637
20482SOL    HW263286  14.616  14.852  13.751
20483SOL     OW63287  14.768  13.275   3.723
20483SOL    HW163288  14.812  13.239   3.646
20483SOL    HW263289  14.717  13.202   3.758
20484SOL     OW63290   0.987   3.845   7.016
20484SOL    HW163291   1.024   3.774   7.068
20484SOL    HW263292   1.053   3.864   6.950
20485SOL     OW63293   6.321   8.069   7.887
20485SOL    HW163294   6.244   8.111   7.849
20485SOL    HW263295   6.291   8.039   7.973
20486SOL     OW63296   8.256   1.057   9.268
20486SOL    HW163297   8.171   1.050   9.226
20486SOL    HW263298   8.282   0.966   9.285
20487SOL     OW63299   8.161   8.679   9.947
20487SOL    HW163300   8.121   8.692   9.861
20487SOL    HW263301   8.126   8.751  10.000
20488SOL     OW63302   4.972   5.385   6.003
20488SOL    HW163303   4.913   5.335   5.946
20488SOL    HW263304   4.962   5.345   6.089
20489SOL     OW63305   5.831   1.666   8.602
20489SOL    HW163306   5.797   1.755   8.612
20489SOL    HW263307   5.926   1.675   8.607
20490SOL     OW63308  14.334   4.600  11.264
20490SOL    HW163309  14.347   4.672  11.202
20490SOL    HW263310  14.397   4.617  11.334
20491SOL     OW63311   5.690   2.028   3.720
20491SOL    HW163312   5.667   1.937   3.738
20491SOL    HW263313   5.679   2.072   3.805
20492SOL     OW63314   8.211   2.316  14.678
20492SOL    HW163315   8.277   2.247  14.667
20492SOL    HW263316   8.253   2.395  14.643
20493SOL     OW63317   5.948   2.351   0.585
20493SOL    HW163318   5.936   2.379   0.675
20493SOL    HW263319   5.958   2.432   0.535
20494SOL     OW63320  11.220   8.676   4.253
20494SOL    HW163321  11.243   8.686   4.161
20494SOL    HW263322  11.304   8.675   4.299
20495SOL     OW63323   9.951   8.175  13.385
20495SOL    HW163324  10.045   8.186  13.398
20495SOL    HW263325   9.931   8.227  13.307
20496SOL     OW63326   3.655   9.728  12.518
20496SOL    HW163327   3.593   9.760  12.452
20496SOL    HW263328   3.697   9.652  12.478
20497SOL     OW63329   5.126  12.876  10.430
20497SOL    HW163330   5.197  12.817  10.406
20497SOL    HW263331   5.153  12.962  10.397
20498SOL     OW63332   6.851   0.022   7.660
20498SOL    HW163333   6.858   0.028   7.755
20498SOL    HW263334   6.904   0.094   7.627
20499SOL     OW63335   5.358   7.348   2.529
20499SOL    HW163336   5.402   7.283   2.584
20499SOL    HW263337   5.417   7.424   2.530
20500SOL     OW63338   2.053  13.907  12.595
20500SOL    HW163339   2.142  13.875  12.614
20500SOL    HW263340   2.051  13.919  12.500
20501SOL     OW63341   5.711  12.415   1.784
20501SOL    HW163342   5.623  12.380   1.794
20501SOL    HW263343   5.759  12.346   1.737
20502SOL     OW63344  11.606  13.340  12.243
20502SOL    HW163345  11.588  13.346  12.337
20502SOL    HW263346  11.666  13.413  12.226
20503SOL     OW63347  11.419   7.842   9.549
20503SOL    HW163348  11.384   7.859   9.461
20503SOL    HW263349  11.513   7.833   9.536
20504SOL     OW63350  12.440   6.851   8.672
20504SOL    HW163351  12.500   6.917   8.705
20504SOL    HW263352  12.353   6.888   8.686
20505SOL     OW63353   3.763   6.521  14.614
20505SOL    HW163354   3.775   6.525  14.520
20505SOL    HW263355   3.698   6.451  14.628
20506SOL     OW63356   0.246   8.503   9.779
20506SOL    HW163357   0.298   8.459   9.712
20506SOL    HW263358   0.205   8.577   9.733
20507SOL     OW63359  12.452   7.478  14.483
20507SOL    HW163360  12.414   7.424  14.553
20507SOL    HW263361  12.540   7.498  14.514
20508SOL     OW63362   4.183   5.281   9.295
20508SOL    HW163363   4.231   5.204   9.325
20508SOL    HW263364   4.234   5.314   9.221
20509SOL     OW63365   6.222   6.051  11.921
20509SOL    HW163366   6.190   6.109  11.851
20509SOL    HW263367   6.306   6.089  11.947
20510SOL     OW63368  13.535   4.195   4.677
20510SOL    HW163369  13.563   4.273   4.723
20510SOL    HW263370  13.550   4.123   4.739
20511SOL     OW63371  12.971   5.139   9.730
20511SOL    HW163372  12.967   5.118   9.636
20511SOL    HW263373  12.884   5.171   9.751
20512SOL     OW63374   6.793  12.594  11.450
20512SOL    HW163375   6.732  12.585  11.376
20512SOL    HW263376   6.859  12.527  11.434
20513SOL     OW63377  10.896  11.749   4.359
20513SOL    HW163378  10.878  11.704   4.442
20513SOL    HW263379  10.973  11.705   4.324
20514SOL     OW63380   2.098   2.836   7.755
20514SOL    HW163381   2.183   2.866   7.788
20514SOL    HW263382   2.044   2.823   7.833
20515SOL     OW63383  14.638  13.294   7.909
20515SOL    HW163384  14.689  13.375   7.917
20515SOL    HW263385  14.699  13.225   7.934
20516SOL     OW63386   3.295   8.760   6.658
20516SOL    HW163387   3.385   8.752   6.627
20516SOL    HW263388   3.296   8.836   6.716
20517SOL     OW63389   0.660  13.501  13.270
20517SOL    HW163390   0.582  13.511  13.324
20517SOL    HW263391   0.670  13.406  13.260
20518SOL     OW63392  14.319   3.497  11.140
20518SOL    HW163393  14.237   3.482  11.186
20518SOL    HW263394  14.295   3.552  11.065
20519SOL     OW63395   9.168  10.037   8.772
20519SOL    HW163396   9.114   9.980   8.828
20519SOL    HW263397   9.143  10.125   8.798
20520SOL     OW63398   0.172   7.876  13.220
20520SOL    HW163399   0.136   7.878  13.131
20520SOL    HW263400   0.118   7.812  13.266
20521SOL     OW63401   3.727   1.286  14.315
20521SOL    HW163402   3.776   1.206  14.293
20521SOL    HW263403   3.793   1.345  14.350
20522SOL     OW63404   5.283   8.409  10.633
20522SOL    HW163405   5.188   8.401  10.626
20522SOL    HW263406   5.309   8.459  10.556
20523SOL     OW63407  14.053   7.872   9.836
20523SOL    HW163408  13.987   7.898   9.901
20523SOL    HW263409  14.044   7.937   9.766
20524SOL     OW63410  10.150  14.467  12.588
20524SOL    HW163411  10.137  14.561  12.579
20524SOL    HW263412  10.237  14.458  12.626
20525SOL     OW63413   0.841   1.367   9.924
20525SOL    HW163414   0.920   1.365   9.978
20525SOL    HW263415   0.857   1.304   9.854
20526SOL     OW63416   1.820   6.438  13.151
20526SOL    HW163417   1.822   6.360  13.207
20526SOL    HW263418   1.912   6.467  13.148
20527SOL     OW63419  14.802   1.809  14.612
20527SOL    HW163420   0.016   1.826  14.580
20527SOL    HW263421  14.756   1.893  14.601
20528SOL     OW63422   5.979   9.211   2.417
20528SOL    HW163423   5.932   9.215   2.500
20528SOL    HW263424   5.918   9.169   2.356
20529SOL     OW63425  10.394   0.477   2.591
20529SOL    HW163426  10.421   0.543   2.526
20529SOL    HW263427  10.466   0.415   2.594
20530SOL     OW63428  10.355   2.964   5.229
20530SOL    HW163429  10.263   2.965   5.256
20530SOL    HW263430  10.356   2.908   5.151
20531SOL     OW63431  12.765   7.338   5.182
20531SOL    HW163432  12.855   7.311   5.201
20531SOL    HW263433  12.748   7.307   5.093
20532SOL     OW63434  11.853  13.394   1.191
20532SOL    HW163435  11.775  13.390   1.246
20532SOL    HW263436  11.926  13.385   1.254
20533SOL     OW63437   8.168  10.400  11.157
20533SOL    HW163438   8.222  10.354  11.092
20533SOL    HW263439   8.230  10.427  11.225
20534SOL     OW63440   7.068  12.301   5.347
20534SOL    HW163441   6.988  12.254   5.368
20534SOL    HW263442   7.136  12.255   5.397
20535SOL     OW63443   6.190   5.881   8.812
20535SOL    HW163444   6.283   5.901   8.821
20535SOL    HW263445   6.184   5.787   8.831
20536SOL     OW63446   7.095   4.836   2.372
20536SOL    HW163447   7.188   4.815   2.367
20536SOL    HW263448   7.086   4.887   2.453
20537SOL     OW63449   6.505   8.887   2.243
20537SOL    HW163450   6.491   8.974   2.281
20537SOL    HW263451   6.492   8.826   2.315
20538SOL     OW63452  11.880  12.627  11.776
20538SOL    HW163453  11.859  12.610  11.867
20538SOL    HW263454  11.889  12.723  11.771
20539SOL     OW63455  12.404   3.009   3.795
20539SOL    HW163456  12.452   3.067   3.854
20539SOL    HW263457  12.350   3.068   3.742
20540SOL     OW63458  13.487   0.917   0.792
20540SOL    HW163459  13.442   0.854   0.847
20540SOL    HW263460  13.484   0.999   0.841
20541SOL     OW63461   9.675   7.078  11.271
20541SOL    HW163462   9.739   7.011  11.250
20541SOL    HW263463   9.591   7.042  11.241
20542SOL     OW63464   8.777  12.689   6.542
20542SOL    HW163465   8.705  12.748   6.562
20542SOL    HW263466   8.737  12.602   6.538
20543SOL     OW63467   4.748  12.390   8.387
20543SOL    HW163468   4.682  12.363   8.451
20543SOL    HW263469   4.792  12.309   8.362
20544SOL     OW63470  13.413  10.020  10.095
20544SOL    HW163471  13.493  10.064  10.122
20544SOL    HW263472  13.358  10.019  10.173
20545SOL     OW63473  13.535  13.727   2.881
20545SOL    HW163474  13.450  13.684   2.892
20545SOL    HW263475  13.516  13.806   2.832
20546SOL     OW63476  12.527   2.548   9.443
20546SOL    HW163477  12.576   2.468   9.459
20546SOL    HW263478  12.571   2.588   9.368
20547SOL     OW63479   1.028  13.975   8.558
20547SOL    HW163480   1.040  13.965   8.464
20547SOL    HW263481   0.934  13.966   8.572
20548SOL     OW63482   8.138  14.017   8.074
20548SOL    HW163483   8.120  13.960   8.148
20548SOL    HW263484   8.168  14.099   8.114
20549SOL     OW63485   5.773   8.022   0.320
20549SOL    HW163486   5.767   8.076   0.399
20549SOL    HW263487   5.801   7.936   0.351
20550SOL     OW63488  11.107  10.221  10.814
20550SOL    HW163489  11.031  10.166  10.796
20550SOL    HW263490  11.071  10.300  10.853
20551SOL     OW63491   8.266   7.418   0.541
20551SOL    HW163492   8.328   7.346   0.555
20551SOL    HW263493   8.319   7.489   0.506
20552SOL     OW63494   7.915   4.411   0.500
20552SOL    HW163495   7.850   4.352   0.538
20552SOL    HW263496   7.916   4.486   0.560
20553SOL     OW63497   0.650  13.492  10.649
20553SOL    HW163498   0.628  13.402  10.674
20553SOL    HW263499   0.607  13.546  10.715
20554SOL     OW63500  12.561   4.575   1.457
20554SOL    HW163501  12.535   4.525   1.534
20554SOL    HW263502  12.643   4.618   1.484
20555SOL     OW63503   2.604   4.003  13.877
20555SOL    HW163504   2.591   4.097  13.892
20555SOL    HW263505   2.540   3.961  13.935
20556SOL     OW63506   7.603   9.143   7.396
20556SOL    HW163507   7.687   9.152   7.352
20556SOL    HW263508   7.595   9.222   7.450
20557SOL     OW63509   3.452  11.348   6.855
20557SOL    HW163510   3.365  11.359   6.815
20557SOL    HW263511   3.469  11.254   6.852
20558SOL     OW63512  14.122   1.583  13.542
20558SOL    HW163513  14.061   1.514  13.515
20558SOL    HW263514  14.098   1.659  13.490
20559SOL     OW63515  13.100  11.319  11.582
20559SOL    HW163516  13.132  11.352  11.498
20559SOL    HW263517  13.177  11.285  11.626
20560SOL     OW63518   6.644   1.544  10.687
20560SOL    HW163519   6.725   1.548  10.738
20560SOL    HW263520   6.659   1.603  10.614
20561SOL     OW63521   7.945  13.202  14.547
20561SOL    HW163522   8.020  13.186  14.605
20561SOL    HW263523   7.928  13.296  14.556
20562SOL     OW63524   5.316   8.722  11.198
20562SOL    HW163525   5.301   8.663  11.272
20562SOL    HW263526   5.401   8.695  11.163
20563SOL     OW63527  12.920  14.094   4.746
20563SOL    HW163528  12.952  14.173   4.702
20563SOL    HW263529  12.832  14.119   4.776
20564SOL     OW63530   0.941  11.666  13.236
20564SOL    HW163531   0.847  11.657  13.223
20564SOL    HW263532   0.979  11.598  13.179
20565SOL     OW63533   9.948  14.612   1.174
20565SOL    HW163534   9.954  14.641   1.083
20565SOL    HW263535   9.945  14.517   1.168
20566SOL     OW63536  10.048   0.330   8.587
20566SOL    HW163537  10.027   0.244   8.551
20566SOL    HW263538  10.092   0.376   8.516
20567SOL     OW63539  12.876   5.940  11.673
20567SOL    HW163540  12.860   5.868  11.734
20567SOL    HW263541  12.789   5.978  11.657
20568SOL     OW63542  10.724  12.355  14.337
20568SOL    HW163543  10.746  12.263  14.346
20568SOL    HW263544  10.753  12.396  14.418
20569SOL     OW63545   6.625   7.989   3.752
20569SOL    HW163546   6.701   7.975   3.696
20569SOL    HW263547   6.554   8.009   3.691
20570SOL     OW63548   9.610   4.268  13.834
20570SOL    HW163549   9.612   4.359  13.804
20570SOL    HW263550   9.530   4.232  13.795
20571SOL     OW63551   2.671   1.094   4.217
20571SOL    HW163552   2.602   1.158   4.236
20571SOL    HW263553   2.640   1.048   4.139
20572SOL     OW63554   6.669  10.164   1.484
20572SOL    HW163555   6.641  10.082   1.443
20572SOL    HW263556   6.685  10.223   1.411
20573SOL     OW63557  10.092   8.495   7.159
20573SOL    HW163558  10.112   8.442   7.082
20573SOL    HW263559  10.008   8.536   7.138
20574SOL     OW63560   2.886   3.544  12.591
20574SOL    HW163561   2.952   3.611  12.608
20574SOL    HW263562   2.922   3.465  12.630
20575SOL     OW63563  14.805  11.801  14.164
20575SOL    HW163564  14.805  11.754  14.247
20575SOL    HW263565   0.022  11.803  14.136
20576SOL     OW63566   3.717   7.532   9.809
20576SOL    HW163567   3.678   7.577   9.884
20576SOL    HW263568   3.742   7.446   9.844
20577SOL     OW63569  14.152   3.830  11.693
20577SOL    HW163570  14.202   3.894  11.744
20577SOL    HW263571  14.196   3.827  11.608
20578SOL     OW63572   5.497  13.183   5.565
20578SOL    HW163573   5.475  13.192   5.472
20578SOL    HW263574   5.557  13.108   5.567
20579SOL     OW63575   9.507   0.089  14.561
20579SOL    HW163576   9.437   0.147  14.592
20579SOL    HW263577   9.587   0.129  14.596
20580SOL     OW63578   4.109  14.554   3.364
20580SOL    HW163579   4.086  14.469   3.327
20580SOL    HW263580   4.197  14.542   3.400
20581SOL     OW63581  12.199   9.573   7.661
20581SOL    HW163582  12.157   9.569   7.575
20581SOL    HW263583  12.192   9.484   7.695
20582SOL     OW63584   4.280   1.950   3.260
20582SOL    HW163585   4.369   1.983   3.245
20582SOL    HW263586   4.234   2.024   3.300
20583SOL     OW63587  12.175  12.771   1.615
20583SOL    HW163588  12.164  12.729   1.530
20583SOL    HW263589  12.252  12.827   1.605
20584SOL     OW63590  11.417   7.575  11.872
20584SOL    HW163591  11.379   7.662  11.863
20584SOL    HW263592  11.353   7.526  11.924
20585SOL     OW63593   3.542   2.611  10.694
20585SOL    HW163594   3.576   2.621  10.783
20585SOL    HW263595   3.573   2.524  10.666
20586SOL     OW63596   2.873  12.049   0.992
20586SOL    HW163597   2.844  12.133   0.956
20586SOL    HW263598   2.944  12.021   0.934
20587SOL     OW63599   4.863  14.329   4.531
20587SOL    HW163600   4.880  14.421   4.549
20587SOL    HW263601   4.813  14.298   4.607
20588SOL     OW63602   1.771   6.214  13.270
20588SOL    HW163603   1.745   6.126  13.243
20588SOL    HW263604   1.830   6.200  13.344
20589SOL     OW63605   1.616  11.071   7.634
20589SOL    HW163606   1.667  11.134   7.583
20589SOL    HW263607   1.666  11.059   7.714
20590SOL     OW63608  12.774   7.929   5.169
20590SOL    HW163609  12.740   7.845   5.200
20590SOL    HW263610  12.702   7.967   5.119
20591SOL     OW63611   7.438   2.839   1.182
20591SOL    HW163612   7.383   2.776   1.228
20591SOL    HW263613   7.502   2.867   1.247
20592SOL     OW63614  11.826  10.041  11.685
20592SOL    HW163615  11.792  10.125  11.717
20592SOL    HW263616  11.920  10.045  11.704
20593SOL     OW63617   8.968   2.938   5.723
20593SOL    HW163618   9.045   2.935   5.780
20593SOL    HW263619   8.905   2.991   5.771
20594SOL     OW63620   9.292   5.958   7.299
20594SOL    HW163621   9.200   5.983   7.291
20594SOL    HW263622   9.340   6.040   7.298
20595SOL     OW63623   5.096   6.273   9.205
20595SOL    HW163624   5.107   6.332   9.280
20595SOL    HW263625   5.109   6.330   9.129
20596SOL     OW63626  14.475   5.156  14.849
20596SOL    HW163627  14.385   5.187  14.854
20596SOL    HW263628  14.524   5.231  14.816
20597SOL     OW63629   3.805  13.138   2.103
20597SOL    HW163630   3.724  13.187   2.097
20597SOL    HW263631   3.863  13.194   2.156
20598SOL     OW63632   2.080   8.167  12.575
20598SOL    HW163633   2.164   8.123  12.559
20598SOL    HW263634   2.020   8.096  12.597
20599SOL     OW63635   2.447  14.866   0.951
20599SOL    HW163636   2.510  14.823   1.008
20599SOL    HW263637   2.384   0.032   1.011
20600SOL     OW63638   9.066   2.079   5.283
20600SOL    HW163639   9.117   2.056   5.361
20600SOL    HW263640   8.992   2.129   5.316
20601SOL     OW63641  14.439  11.499  13.984
20601SOL    HW163642  14.531  11.480  13.965
20601SOL    HW263643  14.441  11.565  14.053
20602SOL     OW63644   5.816  11.046  13.749
20602SOL    HW163645   5.834  10.957  13.716
20602SOL    HW263646   5.800  11.033  13.842
20603SOL     OW63647   9.170   5.688  13.384
20603SOL    HW163648   9.212   5.774  13.383
20603SOL    HW263649   9.087   5.702  13.340
20604SOL     OW63650   8.160  14.096   2.502
20604SOL    HW163651   8.170  14.183   2.465
20604SOL    HW263652   8.093  14.054   2.448
20605SOL     OW63653   1.617   7.822   9.268
20605SOL    HW163654   1.524   7.807   9.251
20605SOL    HW263655   1.642   7.752   9.328
20606SOL     OW63656   0.994   1.684   1.711
20606SOL    HW163657   1.044   1.747   1.658
20606SOL    HW263658   0.959   1.621   1.647
20607SOL     OW63659  10.360   1.160   8.215
20607SOL    HW163660  10.427   1.201   8.270
20607SOL    HW263661  10.307   1.109   8.276
20608SOL     OW63662   6.938  11.165   2.627
20608SOL    HW163663   6.885  11.114   2.565
20608SOL    HW263664   6.881  11.179   2.702
20609SOL     OW63665  10.415   2.123   0.503
20609SOL    HW163666  10.422   2.163   0.590
20609SOL    HW263667  10.334   2.160   0.466
20610SOL     OW63668   8.563   1.194  11.201
20610SOL    HW163669   8.638   1.249  11.225
20610SOL    HW263670   8.554   1.208  11.106
20611SOL     OW63671   3.180   4.494  11.130
20611SOL    HW163672   3.238   4.429  11.090
20611SOL    HW263673   3.234   4.572  11.141
20612SOL     OW63674   6.883   8.993  11.940
20612SOL    HW163675   6.884   8.898  11.933
20612SOL    HW263676   6.912   9.024  11.854
20613SOL     OW63677  14.302  12.250   6.003
20613SOL    HW163678  14.238  12.194   6.047
20613SOL    HW263679  14.265  12.338   6.009
20614SOL     OW63680  11.066   2.863   0.093
20614SOL    HW163681  11.158   2.889   0.087
20614SOL    HW263682  11.017   2.944   0.086
20615SOL     OW63683   9.410   8.960  11.091
20615SOL    HW163684   9.435   8.940  11.181
20615SOL    HW263685   9.489   8.943  11.039
20616SOL     OW63686   5.857  14.393   4.958
20616SOL    HW163687   5.923  14.433   5.016
20616SOL    HW263688   5.890  14.409   4.870
20617SOL     OW63689   1.603  13.800   4.100
20617SOL    HW163690   1.697  13.788   4.086
20617SOL    HW263691   1.575  13.720   4.144
20618SOL     OW63692  11.472   3.033   5.735
20618SOL    HW163693  11.566   3.021   5.722
20618SOL    HW263694  11.447   2.966   5.799
20619SOL     OW63695   7.790   1.762  11.870
20619SOL    HW163696   7.871   1.808  11.848
20619SOL    HW263697   7.776   1.781  11.963
20620SOL     OW63698   5.979   0.318   4.582
20620SOL    HW163699   6.035   0.297   4.657
20620SOL    HW263700   5.931   0.396   4.609
20621SOL     OW63701   8.707   8.925   0.459
20621SOL    HW163702   8.787   8.883   0.489
20621SOL    HW263703   8.718   8.933   0.364
20622SOL     OW63704  12.797   6.666   0.689
20622SOL    HW163705  12.877   6.684   0.639
20622SOL    HW263706  12.824   6.602   0.755
20623SOL     OW63707  12.246  13.825   7.889
20623SOL    HW163708  12.186  13.828   7.815
20623SOL    HW263709  12.330  13.797   7.852
20624SOL     OW63710  14.148  13.769   5.509
20624SOL    HW163711  14.240  13.752   5.489
20624SOL    HW263712  14.148  13.854   5.553
20625SOL     OW63713  12.314   5.364   2.641
20625SOL    HW163714  12.307   5.351   2.735
20625SOL    HW263715  12.224   5.377   2.611
20626SOL     OW63716   6.003   8.825   2.892
20626SOL    HW163717   6.053   8.825   2.810
20626SOL    HW263718   6.028   8.743   2.935
20627SOL     OW63719   0.755   5.682  12.166
20627SOL    HW163720   0.783   5.724  12.084
20627SOL    HW263721   0.660   5.698  12.169
20628SOL     OW63722  11.242   3.752   7.490
20628SOL    HW163723  11.164   3.792   7.529
20628SOL    HW263724  11.239   3.779   7.398
20629SOL     OW63725   0.946   1.502  11.856
20629SOL    HW163726   0.964   1.593  11.881
20629SOL    HW263727   0.959   1.452  11.937
20630SOL     OW63728  13.250   7.001   9.555
20630SOL    HW163729  13.334   7.005   9.601
20630SOL    HW263730  13.188   6.971   9.621
20631SOL     OW63731   9.064  11.183   5.845
20631SOL    HW163732   9.066  11.105   5.790
20631SOL    HW263733   8.971  11.201   5.859
20632SOL     OW63734  12.728  10.569  12.359
20632SOL    HW163735  12.718  10.610  12.274
20632SOL    HW263736  12.815  10.597  12.389
20633SOL     OW63737   1.285   6.229   7.079
20633SOL    HW163738   1.258   6.310   7.034
20633SOL    HW263739   1.308   6.258   7.167
20634SOL     OW63740   4.530   2.650  12.885
20634SOL    HW163741   4.454   2.707  12.877
20634SOL    HW263742   4.569   2.648  12.797
20635SOL     OW63743   7.879   1.190   9.807
20635SOL    HW163744   7.954   1.180   9.749
20635SOL    HW263745   7.911   1.245   9.878
20636SOL     OW63746  14.326   7.488   7.189
20636SOL    HW163747  14.297   7.571   7.225
20636SOL    HW263748  14.395   7.459   7.248
20637SOL     OW63749   7.269   2.887  13.830
20637SOL    HW163750   7.196   2.872  13.890
20637SOL    HW263751   7.316   2.962  13.866
20638SOL     OW63752   8.297   6.133   2.497
20638SOL    HW163753   8.346   6.106   2.575
20638SOL    HW263754   8.244   6.057   2.475
20639SOL     OW63755   7.713   3.063  10.968
20639SOL    HW163756   7.700   2.971  10.988
20639SOL    HW263757   7.664   3.110  11.035
20640SOL     OW63758   9.609  14.191   3.411
20640SOL    HW163759   9.578  14.140   3.485
20640SOL    HW263760   9.558  14.272   3.414
20641SOL     OW63761   3.138   3.162   6.197
20641SOL    HW163762   3.102   3.093   6.252
20641SOL    HW263763   3.215   3.193   6.244
20642SOL     OW63764   7.114  12.208   4.621
20642SOL    HW163765   7.087  12.143   4.556
20642SOL    HW263766   7.139  12.284   4.569
20643SOL     OW63767  14.310   7.303   5.513
20643SOL    HW163768  14.270   7.298   5.426
20643SOL    HW263769  14.363   7.382   5.511
20644SOL     OW63770   6.265   9.056   9.967
20644SOL    HW163771   6.275   9.014   9.882
20644SOL    HW263772   6.171   9.053   9.985
20645SOL     OW63773   5.054  12.722   2.177
20645SOL    HW163774   5.061  12.755   2.267
20645SOL    HW263775   4.977  12.767   2.141
20646SOL     OW63776   8.152   5.838   7.133
20646SOL    HW163777   8.104   5.819   7.214
20646SOL    HW263778   8.127   5.927   7.111
20647SOL     OW63779  13.800   4.887   5.509
20647SOL    HW163780  13.734   4.955   5.494
20647SOL    HW263781  13.749   4.807   5.522
20648SOL     OW63782  14.072   4.591   6.919
20648SOL    HW163783  14.136   4.603   6.990
20648SOL    HW263784  14.053   4.498   6.920
20649SOL     OW63785   7.104  14.294   4.347
20649SOL    HW163786   7.098  14.199   4.355
20649SOL    HW263787   7.192  14.315   4.377
20650SOL     OW63788   2.545   2.525  11.783
20650SOL    HW163789   2.468   2.561  11.827
20650SOL    HW263790   2.532   2.547  11.691
20651SOL     OW63791   0.403   1.293   1.386
20651SOL    HW163792   0.334   1.227   1.385
20651SOL    HW263793   0.485   1.243   1.379
20652SOL     OW63794   0.855  11.758   3.223
20652SOL    HW163795   0.945  11.789   3.232
20652SOL    HW263796   0.808  11.798   3.297
20653SOL     OW63797   8.808  14.005  12.930
20653SOL    HW163798   8.753  13.928  12.914
20653SOL    HW263799   8.846  14.025  12.844
20654SOL     OW63800   6.029  12.078   8.868
20654SOL    HW163801   6.070  12.071   8.954
20654SOL    HW263802   5.971  12.002   8.863
20655SOL     OW63803   0.863   5.049   4.205
20655SOL    HW163804   0.958   5.047   4.216
20655SOL    HW263805   0.829   4.991   4.273
20656SOL     OW63806   7.287  14.181   0.950
20656SOL    HW163807   7.197  14.206   0.929
20656SOL    HW263808   7.322  14.145   0.868
20657SOL     OW63809   2.499  14.095   5.087
20657SOL    HW163810   2.526  14.028   5.024
20657SOL    HW263811   2.536  14.176   5.053
20658SOL     OW63812  12.615  12.646   7.418
20658SOL    HW163813  12.589  12.684   7.334
20658SOL    HW263814  12.532  12.628   7.463
20659SOL     OW63815   8.438  11.957   0.682
20659SOL    HW163816   8.521  11.991   0.714
20659SOL    HW263817   8.434  11.983   0.590
20660SOL     OW63818   0.702  11.205   3.205
20660SOL    HW163819   0.701  11.125   3.258
20660SOL    HW263820   0.792  11.236   3.212
20661SOL     OW63821   1.776  12.525   6.263
20661SOL    HW163822   1.850  12.504   6.320
20661SOL    HW263823   1.699  12.506   6.317
20662SOL     OW63824   7.302   8.534  11.086
20662SOL    HW163825   7.252   8.532  11.168
20662SOL    HW263826   7.373   8.472  11.100
20663SOL     OW63827   0.037   2.973   0.345
20663SOL    HW163828   0.027   2.971   0.249
20663SOL    HW263829   0.101   3.042   0.360
20664SOL     OW63830  11.501   1.265   3.585
20664SOL    HW163831  11.465   1.314   3.511
20664SOL    HW263832  11.595   1.261   3.567
20665SOL     OW63833  11.604   7.934   2.343
20665SOL    HW163834  11.556   7.882   2.279
20665SOL    HW263835  11.549   8.011   2.358
20666SOL     OW63836   4.056   4.340  11.967
20666SOL    HW163837   4.035   4.424  11.927
20666SOL    HW263838   4.142   4.317  11.931
20667SOL     OW63839   7.626   5.734   3.508
20667SOL    HW163840   7.565   5.681   3.559
20667SOL    HW263841   7.582   5.747   3.424
20668SOL     OW63842   6.181  11.561  12.881
20668SOL    HW163843   6.119  11.632  12.859
20668SOL    HW263844   6.146  11.525  12.962
20669SOL     OW63845   1.039   0.587   8.903
20669SOL    HW163846   1.039   0.506   8.955
20669SOL    HW263847   1.011   0.559   8.816
20670SOL     OW63848  10.235  13.641   7.136
20670SOL    HW163849  10.147  13.640   7.173
20670SOL    HW263850  10.293  13.637   7.211
20671SOL     OW63851  14.371   4.779   4.559
20671SOL    HW163852  14.433   4.831   4.610
20671SOL    HW263853  14.286   4.820   4.575
20672SOL     OW63854  12.992   5.564   6.062
20672SOL    HW163855  13.010   5.636   6.001
20672SOL    HW263856  12.913   5.591   6.109
20673SOL     OW63857  10.352  12.577  12.532
20673SOL    HW163858  10.271  12.542  12.568
20673SOL    HW263859  10.412  12.503  12.531
20674SOL     OW63860   3.620   0.322  10.109
20674SOL    HW163861   3.569   0.396  10.140
20674SOL    HW263862   3.655   0.281  10.189
20675SOL     OW63863  13.894   0.233   4.050
20675SOL    HW163864  13.989   0.229   4.054
20675SOL    HW263865  13.875   0.266   3.962
20676SOL     OW63866  13.626   5.807  14.521
20676SOL    HW163867  13.664   5.890  14.492
20676SOL    HW263868  13.699   5.745  14.520
20677SOL     OW63869   1.319   2.176   8.329
20677SOL    HW163870   1.289   2.240   8.264
20677SOL    HW263871   1.246   2.167   8.389
20678SOL     OW63872   4.791  10.030   2.478
20678SOL    HW163873   4.749  10.075   2.405
20678SOL    HW263874   4.720   9.984   2.523
20679SOL     OW63875  13.424   0.090   7.373
20679SOL    HW163876  13.379   0.170   7.400
20679SOL    HW263877  13.355   0.034   7.337
20680SOL     OW63878   7.072   9.637  10.616
20680SOL    HW163879   7.029   9.608  10.536
20680SOL    HW263880   7.007   9.692  10.659
20681SOL     OW63881   6.741   0.624  10.219
20681SOL    HW163882   6.679   0.683  10.176
20681SOL    HW263883   6.712   0.621  10.310
20682SOL     OW63884   7.430  11.652   3.845
20682SOL    HW163885   7.366  11.713   3.881
20682SOL    HW263886   7.513  11.678   3.884
20683SOL     OW63887  10.508   8.826  10.095
20683SOL    HW163888  10.596   8.791  10.083
20683SOL    HW263889  10.507   8.908  10.046
20684SOL     OW63890   6.143   2.306   1.684
20684SOL    HW163891   6.109   2.363   1.616
20684SOL    HW263892   6.086   2.229   1.682
20685SOL     OW63893  11.816   2.302   8.797
20685SOL    HW163894  11.894   2.336   8.840
20685SOL    HW263895  11.849   2.236   8.736
20686SOL     OW63896   3.960   5.794  11.338
20686SOL    HW163897   3.965   5.763  11.248
20686SOL    HW263898   3.967   5.890  11.331
20687SOL     OW63899   7.141   7.296   0.038
20687SOL    HW163900   7.221   7.345   0.058
20687SOL    HW263901   7.099   7.282   0.123
20688SOL     OW63902  12.165   0.963   5.998
20688SOL    HW163903  12.135   0.907   5.927
20688SOL    HW263904  12.228   0.909   6.046
20689SOL     OW63905  13.500   7.026   3.465
20689SOL    HW163906  13.497   6.931   3.453
20689SOL    HW263907  13.570   7.055   3.407
20690SOL     OW63908   9.381  11.979   0.449
20690SOL    HW163909   9.399  12.008   0.359
20690SOL    HW263910   9.403  11.886   0.449
20691SOL     OW63911  14.100  10.996   0.451
20691SOL    HW163912  14.172  10.958   0.500
20691SOL    HW263913  14.133  11.003   0.361
20692SOL     OW63914  13.696  10.826  13.584
20692SOL    HW163915  13.688  10.847  13.491
20692SOL    HW263916  13.788  10.843  13.605
20693SOL     OW63917   1.612   9.113   0.841
20693SOL    HW163918   1.624   9.036   0.896
20693SOL    HW263919   1.586   9.078   0.756
20694SOL     OW63920  12.936   3.396  12.003
20694SOL    HW163921  12.936   3.417  12.097
20694SOL    HW263922  13.018   3.433  11.970
20695SOL     OW63923   9.875   7.202   0.114
20695SOL    HW163924   9.944   7.269   0.118
20695SOL    HW263925   9.858   7.179   0.205
20696SOL     OW63926   5.400  12.616   1.891
20696SOL    HW163927   5.311  12.582   1.875
20696SOL    HW263928   5.434  12.635   1.803
20697SOL     OW63929   1.893   4.194   7.029
20697SOL    HW163930   1.862   4.276   7.067
20697SOL    HW263931   1.846   4.125   7.077
20698SOL     OW63932   7.372  10.837   1.029
20698SOL    HW163933   7.412  10.887   0.958
20698SOL    HW263934   7.315  10.899   1.073
20699SOL     OW63935  13.293   9.137  11.157
20699SOL    HW163936  13.284   9.152  11.251
20699SOL    HW263937  13.241   9.205  11.116
20700SOL     OW63938   8.605  11.162   4.628
20700SOL    HW163939   8.621  11.071   4.653
20700SOL    HW263940   8.627  11.213   4.706
20701SOL     OW63941  10.403   0.921  10.067
20701SOL    HW163942  10.460   0.890  10.137
20701SOL    HW263943  10.338   0.976  10.111
20702SOL     OW63944   3.880   9.575  12.361
20702SOL    HW163945   3.911   9.665  12.373
20702SOL    HW263946   3.944   9.521  12.407
20703SOL     OW63947   5.898   8.997  14.703
20703SOL    HW163948   5.948   9.075  14.679
20703SOL    HW263949   5.825   8.995  14.641
20704SOL     OW63950  12.759  10.118  11.934
20704SOL    HW163951  12.842  10.081  11.964
20704SOL    HW263952  12.720  10.049  11.880
20705SOL     OW63953   9.603   4.294   4.573
20705SOL    HW163954   9.585   4.340   4.492
20705SOL    HW263955   9.529   4.314   4.630
20706SOL     OW63956  14.507   6.410  14.341
20706SOL    HW163957  14.596   6.430  14.311
20706SOL    HW263958  14.452   6.472  14.293
20707SOL     OW63959   2.321   5.130   0.775
20707SOL    HW163960   2.319   5.062   0.843
20707SOL    HW263961   2.395   5.105   0.720
20708SOL     OW63962  12.019   2.197   7.558
20708SOL    HW163963  11.946   2.136   7.564
20708SOL    HW263964  12.051   2.205   7.648
20709SOL     OW63965   3.709   7.716   6.553
20709SOL    HW163966   3.726   7.807   6.528
20709SOL    HW263967   3.737   7.710   6.644
20710SOL     OW63968   8.434  12.122   7.535
20710SOL    HW163969   8.347  12.090   7.557
20710SOL    HW263970   8.436  12.212   7.570
20711SOL     OW63971   6.372  12.517   7.692
20711SOL    HW163972   6.369  12.541   7.599
20711SOL    HW263973   6.291  12.469   7.707
20712SOL     OW63974   1.441   6.042  11.351
20712SOL    HW163975   1.348   6.024  11.343
20712SOL    HW263976   1.454   6.059  11.445
20713SOL     OW63977   5.116   5.042  14.033
20713SOL    HW163978   5.108   5.136  14.050
20713SOL    HW263979   5.050   5.001  14.089
20714SOL     OW63980   8.436   7.185   5.899
20714SOL    HW163981   8.393   7.222   5.821
20714SOL    HW263982   8.529   7.205   5.886
20715SOL     OW63983   8.836   9.443  11.976
20715SOL    HW163984   8.864   9.524  12.019
20715SOL    HW263985   8.917   9.394  11.961
20716SOL     OW63986   6.078   5.199   5.821
20716SOL    HW163987   6.129   5.122   5.796
20716SOL    HW263988   6.050   5.181   5.911
20717SOL     OW63989   8.115   2.819   5.420
20717SOL    HW163990   8.141   2.730   5.396
20717SOL    HW263991   8.169   2.875   5.365
20718SOL     OW63992   4.119   9.841   8.754
20718SOL    HW163993   4.047   9.894   8.719
20718SOL    HW263994   4.078   9.758   8.778
20719SOL     OW63995  13.716   9.932   2.641
20719SOL    HW163996  13.696   9.944   2.549
20719SOL    HW263997  13.796   9.984   2.655
20720SOL     OW63998   7.740   2.488   2.413
20720SOL    HW163999   7.816   2.447   2.454
20720SOL    HW264000   7.774   2.524   2.331
20721SOL     OW64001   2.742  12.752   6.460
20721SOL    HW164002   2.801  12.827   6.464
20721SOL    HW264003   2.754  12.708   6.545
20722SOL     OW64004   9.040   2.598  12.435
20722SOL    HW164005   9.097   2.557  12.370
20722SOL    HW264006   9.005   2.675  12.391
20723SOL     OW64007   0.686  14.404   8.575
20723SOL    HW164008   0.703  14.484   8.626
20723SOL    HW264009   0.590  14.399   8.571
20724SOL     OW64010   6.487   1.333   5.340
20724SOL    HW164011   6.482   1.425   5.365
20724SOL    HW264012   6.483   1.334   5.244
20725SOL     OW64013  13.925  14.664   7.100
20725SOL    HW164014  13.888  14.657   7.188
20725SOL    HW264015  14.011  14.703   7.114
20726SOL     OW64016   9.387   6.691  12.966
20726SOL    HW164017   9.387   6.781  12.999
20726SOL    HW264018   9.298   6.678  12.933
20727SOL     OW64019  14.448  14.136   6.117
20727SOL    HW164020  14.361  14.175   6.104
20727SOL    HW264021  14.444  14.053   6.070
20728SOL     OW64022   0.464   1.879   7.582
20728SOL    HW164023   0.465   1.786   7.604
20728SOL    HW264024   0.373   1.907   7.597
20729SOL     OW64025   0.760  12.052  13.230
20729SOL    HW164026   0.785  11.984  13.292
20729SOL    HW264027   0.665  12.039  13.218
20730SOL     OW64028   5.695   2.979   0.840
20730SOL    HW164029   5.666   3.029   0.916
20730SOL    HW264030   5.751   3.040   0.792
20731SOL     OW64031   6.921  14.655   2.401
20731SOL    HW164032   6.853  14.618   2.458
20731SOL    HW264033   6.926  14.747   2.428
20732SOL     OW64034  13.877  10.757  10.786
20732SOL    HW164035  13.827  10.812  10.726
20732SOL    HW264036  13.908  10.817  10.854
20733SOL     OW64037   7.749  10.534  13.012
20733SOL    HW164038   7.669  10.559  12.966
20733SOL    HW264039   7.783  10.460  12.963
20734SOL     OW64040   1.972  11.675   3.046
20734SOL    HW164041   1.901  11.644   2.989
20734SOL    HW264042   1.967  11.771   3.040
20735SOL     OW64043  14.152  14.588   4.121
20735SOL    HW164044  14.232  14.583   4.173
20735SOL    HW264045  14.170  14.537   4.043
20736SOL     OW64046  11.439   9.633  10.145
20736SOL    HW164047  11.489   9.576  10.087
20736SOL    HW264048  11.497   9.706  10.164
20737SOL     OW64049  12.556   4.172  11.807
20737SOL    HW164050  12.646   4.149  11.827
20737SOL    HW264051  12.517   4.194  11.891
20738SOL     OW64052  14.033  12.541   1.901
20738SOL    HW164053  13.991  12.582   1.825
20738SOL    HW264054  13.959  12.517   1.958
20739SOL     OW64055  11.922   0.459   0.215
20739SOL    HW164056  11.956   0.371   0.196
20739SOL    HW264057  11.844   0.467   0.161
20740SOL     OW64058   2.256   8.839  12.048
20740SOL    HW164059   2.195   8.809  12.116
20740SOL    HW264060   2.325   8.884  12.096
20741SOL     OW64061  13.252   7.763   7.091
20741SOL    HW164062  13.173   7.814   7.072
20741SOL    HW264063  13.299   7.760   7.008
20742SOL     OW64064   8.451   4.877  12.220
20742SOL    HW164065   8.507   4.857  12.145
20742SOL    HW264066   8.383   4.935  12.185
20743SOL     OW64067  13.002   4.587   9.264
20743SOL    HW164068  12.919   4.606   9.307
20743SOL    HW264069  13.019   4.495   9.283
20744SOL     OW64070  13.681   7.628   4.565
20744SOL    HW164071  13.695   7.660   4.476
20744SOL    HW264072  13.757   7.658   4.614
20745SOL     OW64073   8.070   3.171   5.715
20745SOL    HW164074   8.050   3.264   5.723
20745SOL    HW264075   8.047   3.149   5.624
20746SOL     OW64076  12.702  10.000   6.941
20746SOL    HW164077  12.794   9.987   6.964
20746SOL    HW264078  12.659  10.018   7.025
20747SOL     OW64079   6.905  13.922   5.795
20747SOL    HW164080   6.909  13.833   5.759
20747SOL    HW264081   6.933  13.912   5.886
20748SOL     OW64082   0.355  14.075   3.839
20748SOL    HW164083   0.412  14.134   3.789
20748SOL    HW264084   0.287  14.132   3.874
20749SOL     OW64085   2.971  10.195   4.925
20749SOL    HW164086   2.979  10.101   4.942
20749SOL    HW264087   2.974  10.203   4.830
20750SOL     OW64088   8.035  10.601   8.308
20750SOL    HW164089   7.943  10.578   8.294
20750SOL    HW264090   8.084  10.523   8.281
20751SOL     OW64091   4.542   5.756  11.653
20751SOL    HW164092   4.593   5.814  11.596
20751SOL    HW264093   4.606   5.725  11.718
20752SOL     OW64094  13.007  11.570   7.675
20752SOL    HW164095  13.055  11.618   7.742
20752SOL    HW264096  12.916  11.570   7.707
20753SOL     OW64097   2.377   4.448   0.520
20753SOL    HW164098   2.319   4.431   0.446
20753SOL    HW264099   2.326   4.504   0.579
20754SOL     OW64100   4.932  11.288  12.495
20754SOL    HW164101   4.871  11.346  12.450
20754SOL    HW264102   5.012  11.292  12.443
20755SOL     OW64103   7.003   2.447   1.486
20755SOL    HW164104   6.945   2.436   1.411
20755SOL    HW264105   6.984   2.372   1.542
20756SOL     OW64106   7.445  10.953   8.709
20756SOL    HW164107   7.375  11.011   8.678
20756SOL    HW264108   7.523  11.008   8.708
20757SOL     OW64109   4.011   3.274  12.463
20757SOL    HW164110   4.107   3.276  12.469
20757SOL    HW264111   3.985   3.201  12.519
20758SOL     OW64112  13.413  12.254   2.643
20758SOL    HW164113  13.352  12.309   2.692
20758SOL    HW264114  13.446  12.191   2.708
20759SOL     OW64115   9.699  10.217   9.485
20759SOL    HW164116   9.731  10.271   9.412
20759SOL    HW264117   9.700  10.275   9.561
20760SOL     OW64118  10.050   6.425  11.084
20760SOL    HW164119  10.058   6.516  11.057
20760SOL    HW264120   9.971   6.423  11.138
20761SOL     OW64121   7.223  13.715   6.185
20761SOL    HW164122   7.248  13.726   6.093
20761SOL    HW264123   7.281  13.646   6.217
20762SOL     OW64124   4.096   3.037  10.576
20762SOL    HW164125   4.169   2.996  10.529
20762SOL    HW264126   4.035   3.062  10.507
20763SOL     OW64127   4.999   1.290  13.573
20763SOL    HW164128   4.998   1.217  13.636
20763SOL    HW264129   4.986   1.368  13.627
20764SOL     OW64130   8.204   3.908   1.007
20764SOL    HW164131   8.202   3.847   1.080
20764SOL    HW264132   8.137   3.973   1.028
20765SOL     OW64133   2.929  10.093   7.019
20765SOL    HW164134   2.942  10.181   7.055
20765SOL    HW264135   3.006  10.043   7.048
20766SOL     OW64136  14.470  13.265   1.392
20766SOL    HW164137  14.438  13.272   1.303
20766SOL    HW264138  14.557  13.306   1.390
20767SOL     OW64139   9.621  10.828   4.624
20767SOL    HW164140   9.531  10.842   4.594
20767SOL    HW264141   9.636  10.734   4.609
20768SOL     OW64142   8.961   6.179  12.450
20768SOL    HW164143   9.032   6.121  12.424
20768SOL    HW264144   8.950   6.239  12.375
20769SOL     OW64145   8.812   0.899   9.478
20769SOL    HW164146   8.747   0.831   9.460
20769SOL    HW264147   8.765   0.963   9.533
20770SOL     OW64148  10.665   3.441   3.251
20770SOL    HW164149  10.668   3.395   3.167
20770SOL    HW264150  10.595   3.506   3.240
20771SOL     OW64151  11.265  11.312  14.061
20771SOL    HW164152  11.323  11.237  14.077
20771SOL    HW264153  11.295  11.379  14.123
20772SOL     OW64154  13.041   6.988  13.096
20772SOL    HW164155  13.047   7.025  13.008
20772SOL    HW264156  13.132   6.981  13.124
20773SOL     OW64157   7.698  11.692   3.940
20773SOL    HW164158   7.770  11.701   4.001
20773SOL    HW264159   7.682  11.780   3.907
20774SOL     OW64160  14.041   2.426   2.957
20774SOL    HW164161  14.048   2.433   2.862
20774SOL    HW264162  14.072   2.511   2.990
20775SOL     OW64163   7.977   0.267  14.033
20775SOL    HW164164   7.952   0.208  13.961
20775SOL    HW264165   8.060   0.230  14.065
20776SOL     OW64166  10.462   1.446   2.878
20776SOL    HW164167  10.441   1.352   2.875
20776SOL    HW264168  10.377   1.490   2.870
20777SOL     OW64169   1.578   8.032   9.091
20777SOL    HW164170   1.598   7.940   9.106
20777SOL    HW264171   1.506   8.051   9.151
20778SOL     OW64172   8.890   1.184  10.284
20778SOL    HW164173   8.869   1.264  10.334
20778SOL    HW264174   8.897   1.214  10.194
20779SOL     OW64175  10.757  12.826  13.655
20779SOL    HW164176  10.751  12.745  13.705
20779SOL    HW264177  10.711  12.891  13.709
20780SOL     OW64178   5.008  14.301   8.398
20780SOL    HW164179   5.054  14.267   8.320
20780SOL    HW264180   5.038  14.391   8.406
20781SOL     OW64181   6.338  13.088   5.553
20781SOL    HW164182   6.347  13.164   5.611
20781SOL    HW264183   6.345  13.124   5.465
20782SOL     OW64184   2.629   1.702   6.952
20782SOL    HW164185   2.682   1.779   6.973
20782SOL    HW264186   2.615   1.707   6.858
20783SOL     OW64187  12.918   5.201   7.816
20783SOL    HW164188  12.827   5.176   7.799
20783SOL    HW264189  12.969   5.148   7.754
20784SOL     OW64190   4.246   8.757   3.680
20784SOL    HW164191   4.160   8.797   3.693
20784SOL    HW264192   4.237   8.705   3.600
20785SOL     OW64193   8.466  14.336   9.320
20785SOL    HW164194   8.540  14.395   9.333
20785SOL    HW264195   8.419  14.372   9.245
20786SOL     OW64196   4.447  14.360   2.097
20786SOL    HW164197   4.492  14.391   2.176
20786SOL    HW264198   4.496  14.399   2.025
20787SOL     OW64199   5.313   0.269  10.004
20787SOL    HW164200   5.292   0.334  10.072
20787SOL    HW264201   5.359   0.200  10.052
20788SOL     OW64202  14.677   6.901  12.808
20788SOL    HW164203  14.663   6.989  12.772
20788SOL    HW264204  14.704   6.917  12.898
20789SOL     OW64205   3.710   1.163  12.174
20789SOL    HW164206   3.759   1.244  12.183
20789SOL    HW264207   3.650   1.178  12.101
20790SOL     OW64208   0.264   5.111   8.733
20790SOL    HW164209   0.327   5.182   8.733
20790SOL    HW264210   0.219   5.118   8.648
20791SOL     OW64211  14.745   0.502  12.903
20791SOL    HW164212  14.708   0.585  12.873
20791SOL    HW264213  14.669   0.447  12.921
20792SOL     OW64214   0.657   2.874  14.114
20792SOL    HW164215   0.632   2.806  14.177
20792SOL    HW264216   0.741   2.907  14.147
20793SOL     OW64217  13.906   2.624   7.797
20793SOL    HW164218  13.884   2.663   7.712
20793SOL    HW264219  13.821   2.595   7.832
20794SOL     OW64220   9.643   8.928   0.528
20794SOL    HW164221   9.730   8.967   0.518
20794SOL    HW264222   9.587   9.002   0.553
20795SOL     OW64223   8.124   6.102   1.604
20795SOL    HW164224   8.149   6.184   1.563
20795SOL    HW264225   8.039   6.081   1.565
20796SOL     OW64226   4.284   6.986   7.791
20796SOL    HW164227   4.376   7.012   7.784
20796SOL    HW264228   4.279   6.902   7.747
20797SOL     OW64229   5.896  10.726  12.102
20797SOL    HW164230   5.987  10.701  12.089
20797SOL    HW264231   5.854  10.710  12.017
20798SOL     OW64232  12.127   8.282   4.603
20798SOL    HW164233  12.175   8.337   4.542
20798SOL    HW264234  12.104   8.341   4.675
20799SOL     OW64235   4.033   7.058   9.036
20799SOL    HW164236   3.985   7.074   8.954
20799SOL    HW264237   4.029   7.141   9.082
20800SOL     OW64238   3.616  12.684   5.217
20800SOL    HW164239   3.654  12.634   5.145
20800SOL    HW264240   3.557  12.623   5.261
20801SOL     OW64241   5.708  14.194   9.882
20801SOL    HW164242   5.692  14.286   9.903
20801SOL    HW264243   5.803  14.185   9.887
20802SOL     OW64244   6.257   4.594  11.754
20802SOL    HW164245   6.212   4.551  11.828
20802SOL    HW264246   6.255   4.687  11.775
20803SOL     OW64247   7.167  14.280  10.358
20803SOL    HW164248   7.249  14.239  10.386
20803SOL    HW264249   7.117  14.209  10.319
20804SOL     OW64250   0.348   9.063  12.500
20804SOL    HW164251   0.284   8.997  12.527
20804SOL    HW264252   0.332   9.138  12.558
20805SOL     OW64253   6.542   0.208   6.420
20805SOL    HW164254   6.599   0.140   6.383
20805SOL    HW264255   6.471   0.216   6.357
20806SOL     OW64256   6.455   3.739   9.538
20806SOL    HW164257   6.519   3.673   9.510
20806SOL    HW264258   6.481   3.761   9.627
20807SOL     OW64259   7.303  14.239   2.772
20807SOL    HW164260   7.310  14.161   2.828
20807SOL    HW264261   7.380  14.292   2.795
20808SOL     OW64262   8.336   0.227   7.138
20808SOL    HW164263   8.280   0.202   7.064
20808SOL    HW264264   8.420   0.186   7.118
20809SOL     OW64265   8.381  13.100  12.993
20809SOL    HW164266   8.452  13.164  12.992
20809SOL    HW264267   8.336  13.115  13.076
20810SOL     OW64268  11.204   8.957   9.652
20810SOL    HW164269  11.111   8.971   9.670
20810SOL    HW264270  11.210   8.951   9.557
20811SOL     OW64271   5.175  11.237   4.246
20811SOL    HW164272   5.149  11.325   4.222
20811SOL    HW264273   5.103  11.181   4.215
20812SOL     OW64274   9.095   5.391  14.615
20812SOL    HW164275   9.053   5.309  14.639
20812SOL    HW264276   9.064   5.454  14.680
20813SOL     OW64277   2.152  11.419   9.187
20813SOL    HW164278   2.070  11.377   9.214
20813SOL    HW264279   2.151  11.504   9.232
20814SOL     OW64280   0.772   2.053   5.294
20814SOL    HW164281   0.792   2.100   5.374
20814SOL    HW264282   0.692   2.004   5.314
20815SOL     OW64283   9.275  11.398   5.531
20815SOL    HW164284   9.256  11.402   5.625
20815SOL    HW264285   9.233  11.318   5.501
20816SOL     OW64286   7.430   3.200   4.987
20816SOL    HW164287   7.453   3.111   4.961
20816SOL    HW264288   7.442   3.201   5.082
20817SOL     OW64289  13.746   6.492   6.017
20817SOL    HW164290  13.665   6.487   6.069
20817SOL    HW264291  13.724   6.448   5.935
20818SOL     OW64292  14.189  13.919   3.130
20818SOL    HW164293  14.268  13.957   3.090
20818SOL    HW264294  14.175  13.837   3.082
20819SOL     OW64295   6.994   6.695   3.088
20819SOL    HW164296   6.946   6.678   3.007
20819SOL    HW264297   6.973   6.620   3.144
20820SOL     OW64298   1.297   4.851  12.205
20820SOL    HW164299   1.254   4.824  12.286
20820SOL    HW264300   1.290   4.774  12.147
20821SOL     OW64301   5.939   8.647  10.625
20821SOL    HW164302   5.997   8.661  10.551
20821SOL    HW264303   5.873   8.716  10.618
20822SOL     OW64304   8.682   2.295   4.226
20822SOL    HW164305   8.619   2.265   4.161
20822SOL    HW264306   8.671   2.390   4.229
20823SOL     OW64307   7.246   5.590   8.559
20823SOL    HW164308   7.242   5.612   8.466
20823SOL    HW264309   7.333   5.552   8.571
20824SOL     OW64310   8.016   4.518   2.034
20824SOL    HW164311   7.986   4.453   2.098
20824SOL    HW264312   8.055   4.466   1.964
20825SOL     OW64313  13.891   6.460   0.524
20825SOL    HW164314  13.971   6.511   0.537
20825SOL    HW264315  13.904   6.415   0.441
20826SOL     OW64316   4.578  11.096  11.411
20826SOL    HW164317   4.666  11.119  11.380
20826SOL    HW264318   4.520  11.124  11.341
20827SOL     OW64319   7.739   9.829  10.245
20827SOL    HW164320   7.718   9.758  10.306
20827SOL    HW264321   7.681   9.901  10.271
20828SOL     OW64322   4.489   8.498   3.168
20828SOL    HW164323   4.441   8.480   3.086
20828SOL    HW264324   4.555   8.430   3.173
20829SOL     OW64325   4.670   7.279  11.615
20829SOL    HW164326   4.628   7.365  11.615
20829SOL    HW264327   4.753   7.293  11.568
20830SOL     OW64328   4.567   8.114   6.018
20830SOL    HW164329   4.642   8.059   6.041
20830SOL    HW264330   4.509   8.057   5.968
20831SOL     OW64331  14.319   5.103   4.754
20831SOL    HW164332  14.259   5.042   4.796
20831SOL    HW264333  14.264   5.179   4.731
20832SOL     OW64334   9.641  11.319  14.674
20832SOL    HW164335   9.546  11.311  14.682
20832SOL    HW264336   9.660  11.411  14.696
20833SOL     OW64337   0.281   7.592   7.425
20833SOL    HW164338   0.256   7.501   7.405
20833SOL    HW264339   0.334   7.619   7.350
20834SOL     OW64340   8.014   7.937  11.473
20834SOL    HW164341   7.938   7.966  11.524
20834SOL    HW264342   8.060   8.018  11.450
20835SOL     OW64343  12.799   5.503   8.221
20835SOL    HW164344  12.870   5.517   8.157
20835SOL    HW264345  12.741   5.440   8.178
20836SOL     OW64346   3.978  12.772   8.492
20836SOL    HW164347   3.940  12.860   8.487
20836SOL    HW264348   4.064  12.780   8.451
20837SOL     OW64349   4.480  13.400  12.093
20837SOL    HW164350   4.441  13.436  12.013
20837SOL    HW264351   4.415  13.417  12.161
20838SOL     OW64352   7.695   0.848  12.848
20838SOL    HW164353   7.632   0.789  12.805
20838SOL    HW264354   7.748   0.790  12.902
20839SOL     OW64355   8.951   6.045   3.747
20839SOL    HW164356   8.909   6.060   3.662
20839SOL    HW264357   9.041   6.073   3.734
20840SOL     OW64358   9.662  14.691   5.019
20840SOL    HW164359   9.731  14.731   5.073
20840SOL    HW264360   9.594  14.667   5.081
20841SOL     OW64361   4.174   1.017   9.986
20841SOL    HW164362   4.151   0.925   9.968
20841SOL    HW264363   4.097   1.066   9.957
20842SOL     OW64364   4.693  13.503   6.653
20842SOL    HW164365   4.658  13.592   6.659
20842SOL    HW264366   4.634  13.458   6.592
20843SOL     OW64367   2.094   7.194   5.346
20843SOL    HW164368   2.134   7.280   5.351
20843SOL    HW264369   2.163   7.134   5.374
20844SOL     OW64370  12.275  14.596   9.498
20844SOL    HW164371  12.349  14.584   9.439
20844SOL    HW264372  12.230  14.512   9.498
20845SOL     OW64373   4.916   0.138   2.813
20845SOL    HW164374   4.987   0.191   2.776
20845SOL    HW264375   4.902   0.176   2.900
20846SOL     OW64376  12.185  13.680   0.020
20846SOL    HW164377  12.254  13.645  14.839
20846SOL    HW264378  12.182  13.621   0.096
20847SOL     OW64379  11.173   2.715   0.411
20847SOL    HW164380  11.120   2.674   0.479
20847SOL    HW264381  11.118   2.714   0.333
20848SOL     OW64382   6.323   6.829  12.016
20848SOL    HW164383   6.343   6.761  12.082
20848SOL    HW264384   6.286   6.780  11.943
20849SOL     OW64385  14.357  12.798   9.159
20849SOL    HW164386  14.379  12.788   9.066
20849SOL    HW264387  14.266  12.768   9.165
20850SOL     OW64388   4.418   3.530   3.593
20850SOL    HW164389   4.450   3.473   3.523
20850SOL    HW264390   4.367   3.597   3.548
20851SOL     OW64391   0.660   8.980   9.511
20851SOL    HW164392   0.629   8.890   9.519
20851SOL    HW264393   0.607   9.017   9.440
20852SOL     OW64394   1.007  14.253  12.388
20852SOL    HW164395   1.005  14.241  12.294
20852SOL    HW264396   0.974  14.342  12.402
20853SOL     OW64397  10.499   0.221   5.196
20853SOL    HW164398  10.411   0.201   5.228
20853SOL    HW264399  10.486   0.295   5.136
20854SOL     OW64400   9.104  10.477   9.237
20854SOL    HW164401   9.025  10.433   9.207
20854SOL    HW264402   9.165  10.471   9.163
20855SOL     OW64403   1.694  12.634  12.222
20855SOL    HW164404   1.677  12.626  12.316
20855SOL    HW264405   1.730  12.722  12.212
20856SOL     OW64406   1.287   6.132   9.513
20856SOL    HW164407   1.275   6.061   9.577
20856SOL    HW264408   1.214   6.191   9.530
20857SOL     OW64409   4.598  13.653   8.077
20857SOL    HW164410   4.594  13.744   8.108
20857SOL    HW264411   4.538  13.606   8.135
20858SOL     OW64412   1.559   8.998   4.938
20858SOL    HW164413   1.641   8.952   4.955
20858SOL    HW264414   1.561   9.015   4.844
20859SOL     OW64415  12.902   3.232   3.603
20859SOL    HW164416  12.823   3.184   3.578
20859SOL    HW264417  12.875   3.287   3.676
20860SOL     OW64418   1.161   7.621  13.145
20860SOL    HW164419   1.161   7.581  13.059
20860SOL    HW264420   1.169   7.548  13.206
20861SOL     OW64421   1.063  12.556  12.162
20861SOL    HW164422   1.116  12.481  12.135
20861SOL    HW264423   1.120  12.632  12.151
20862SOL     OW64424   1.444  12.356   7.730
20862SOL    HW164425   1.411  12.413   7.799
20862SOL    HW264426   1.426  12.404   7.649
20863SOL     OW64427   1.365   6.469  10.435
20863SOL    HW164428   1.431   6.450  10.501
20863SOL    HW264429   1.413   6.516  10.366
20864SOL     OW64430  11.944   7.970   1.624
20864SOL    HW164431  11.964   7.878   1.607
20864SOL    HW264432  11.886   7.995   1.552
20865SOL     OW64433   3.754   5.317  14.166
20865SOL    HW164434   3.685   5.366  14.212
20865SOL    HW264435   3.832   5.371  14.175
20866SOL     OW64436   2.361  10.637   1.853
20866SOL    HW164437   2.375  10.550   1.890
20866SOL    HW264438   2.413  10.637   1.772
20867SOL     OW64439  14.588   4.961   1.107
20867SOL    HW164440  14.519   4.971   1.041
20867SOL    HW264441  14.562   5.019   1.178
20868SOL     OW64442  12.863   0.423  12.972
20868SOL    HW164443  12.880   0.346  12.918
20868SOL    HW264444  12.779   0.406  13.014
20869SOL     OW64445  11.714  14.177   8.608
20869SOL    HW164446  11.808  14.169   8.594
20869SOL    HW264447  11.686  14.089   8.632
20870SOL     OW64448  10.016  13.161  14.024
20870SOL    HW164449   9.954  13.192  13.959
20870SOL    HW264450   9.962  13.135  14.098
20871SOL     OW64451   9.392   0.959   2.675
20871SOL    HW164452   9.434   0.898   2.735
20871SOL    HW264453   9.304   0.971   2.711
20872SOL     OW64454  12.673  10.217  11.169
20872SOL    HW164455  12.723  10.139  11.143
20872SOL    HW264456  12.636  10.250  11.087
20873SOL     OW64457   2.355  13.533   1.445
20873SOL    HW164458   2.376  13.627   1.452
20873SOL    HW264459   2.266  13.532   1.408
20874SOL     OW64460   0.188   8.849  12.333
20874SOL    HW164461   0.275   8.854  12.371
20874SOL    HW264462   0.155   8.763  12.360
20875SOL     OW64463   5.970  14.178   5.474
20875SOL    HW164464   5.885  14.188   5.432
20875SOL    HW264465   5.954  14.118   5.547
20876SOL     OW64466   1.749   4.153   3.376
20876SOL    HW164467   1.746   4.243   3.343
20876SOL    HW264468   1.785   4.160   3.464
20877SOL     OW64469   9.097   6.039   0.063
20877SOL    HW164470   9.081   5.959   0.113
20877SOL    HW264471   9.041   6.030  14.860
20878SOL     OW64472   7.272  10.673   1.680
20878SOL    HW164473   7.216  10.749   1.697
20878SOL    HW264474   7.234  10.603   1.734
20879SOL     OW64475   8.425   5.372   2.040
20879SOL    HW164476   8.393   5.453   2.001
20879SOL    HW264477   8.435   5.311   1.967
20880SOL     OW64478   7.968  10.772   6.361
20880SOL    HW164479   8.046  10.803   6.316
20880SOL    HW264480   7.900  10.771   6.294
20881SOL     OW64481   0.744  11.385  12.365
20881SOL    HW164482   0.689  11.432  12.302
20881SOL    HW264483   0.833  11.415  12.347
20882SOL     OW64484   3.747   1.981   6.041
20882SOL    HW164485   3.842   1.994   6.039
20882SOL    HW264486   3.716   2.019   5.959
20883SOL     OW64487  10.079  12.381  13.820
20883SOL    HW164488  10.048  12.472  13.815
20883SOL    HW264489  10.102  12.359  13.730
20884SOL     OW64490  13.655   6.301   8.214
20884SOL    HW164491  13.596   6.238   8.172
20884SOL    HW264492  13.623   6.308   8.304
20885SOL     OW64493   6.772  10.558   8.607
20885SOL    HW164494   6.806  10.505   8.680
20885SOL    HW264495   6.680  10.532   8.599
20886SOL     OW64496   0.724   4.047   4.563
20886SOL    HW164497   0.666   3.993   4.617
20886SOL    HW264498   0.735   3.997   4.482
20887SOL     OW64499   9.882  12.823   0.156
20887SOL    HW164500   9.853  12.844   0.245
20887SOL    HW264501   9.845  12.736   0.140
20888SOL     OW64502   4.390  14.612   9.170
20888SOL    HW164503   4.399  14.707   9.185
20888SOL    HW264504   4.403  14.573   9.256
20889SOL     OW64505  10.092   9.165   7.856
20889SOL    HW164506  10.002   9.182   7.830
20889SOL    HW264507  10.116   9.240   7.911
20890SOL     OW64508   8.398   6.194   8.675
20890SOL    HW164509   8.470   6.190   8.613
20890SOL    HW264510   8.422   6.133   8.745
20891SOL     OW64511   1.664   6.768   4.778
20891SOL    HW164512   1.687   6.675   4.779
20891SOL    HW264513   1.570   6.770   4.794
20892SOL     OW64514   1.611  14.113   6.879
20892SOL    HW164515   1.560  14.191   6.899
20892SOL    HW264516   1.639  14.125   6.789
20893SOL     OW64517   2.254  14.228  14.677
20893SOL    HW164518   2.332  14.174  14.687
20893SOL    HW264519   2.241  14.269  14.763
20894SOL     OW64520   3.093  11.077   3.241
20894SOL    HW164521   3.067  10.985   3.231
20894SOL    HW264522   3.084  11.114   3.153
20895SOL     OW64523   7.682   3.575  13.478
20895SOL    HW164524   7.587   3.569  13.466
20895SOL    HW264525   7.696   3.546  13.568
20896SOL     OW64526   3.241  12.885  12.423
20896SOL    HW164527   3.229  12.796  12.459
20896SOL    HW264528   3.285  12.871  12.339
20897SOL     OW64529   5.355  12.971  11.235
20897SOL    HW164530   5.437  12.986  11.187
20897SOL    HW264531   5.310  13.056  11.232
20898SOL     OW64532  13.097  13.134   4.465
20898SOL    HW164533  13.061  13.217   4.433
20898SOL    HW264534  13.104  13.147   4.560
20899SOL     OW64535   2.073   8.514   0.600
20899SOL    HW164536   1.995   8.489   0.551
20899SOL    HW264537   2.054   8.602   0.632
20900SOL     OW64538   3.246  12.416   8.835
20900SOL    HW164539   3.229  12.490   8.776
20900SOL    HW264540   3.239  12.339   8.779
20901SOL     OW64541  12.861   8.895   9.461
20901SOL    HW164542  12.919   8.926   9.391
20901SOL    HW264543  12.793   8.962   9.467
20902SOL     OW64544   6.075  14.849  10.354
20902SOL    HW164545   6.045   0.062  10.329
20902SOL    HW264546   5.996  14.795  10.353
20903SOL     OW64547  14.684  12.057   8.284
20903SOL    HW164548  14.751  12.103   8.334
20903SOL    HW264549  14.724  11.974   8.259
20904SOL     OW64550   0.219  12.913   3.923
20904SOL    HW164551   0.261  12.898   3.838
20904SOL    HW264552   0.241  12.836   3.974
20905SOL     OW64553   0.046   6.455   3.344
20905SOL    HW164554   0.002   6.371   3.354
20905SOL    HW264555   0.053   6.490   3.433
20906SOL     OW64556   7.673   7.806   8.250
20906SOL    HW164557   7.727   7.734   8.218
20906SOL    HW264558   7.734   7.867   8.290
20907SOL     OW64559   8.075  14.164   3.295
20907SOL    HW164560   8.144  14.191   3.234
20907SOL    HW264561   8.065  14.238   3.354
20908SOL     OW64562  11.853   6.918   9.802
20908SOL    HW164563  11.926   6.873   9.844
20908SOL    HW264564  11.840   6.997   9.855
20909SOL     OW64565   6.203  14.336   3.357
20909SOL    HW164566   6.145  14.329   3.281
20909SOL    HW264567   6.290  14.316   3.321
20910SOL     OW64568   0.413   6.595   7.051
20910SOL    HW164569   0.475   6.540   7.098
20910SOL    HW264570   0.467   6.650   6.994
20911SOL     OW64571   7.230   9.185  11.802
20911SOL    HW164572   7.282   9.192  11.721
20911SOL    HW264573   7.258   9.102  11.841
20912SOL     OW64574  14.564  14.782   3.526
20912SOL    HW164575  14.635  14.838   3.495
20912SOL    HW264576  14.607  14.698   3.546
20913SOL     OW64577   6.552   0.572  12.027
20913SOL    HW164578   6.533   0.495  11.973
20913SOL    HW264579   6.572   0.641  11.965
20914SOL     OW64580   2.860  11.044   5.308
20914SOL    HW164581   2.773  11.005   5.302
20914SOL    HW264582   2.921  10.972   5.294
20915SOL     OW64583   7.466   2.779   6.138
20915SOL    HW164584   7.444   2.865   6.173
20915SOL    HW264585   7.398   2.721   6.171
20916SOL     OW64586  11.479  14.021  14.356
20916SOL    HW164587  11.547  13.965  14.319
20916SOL    HW264588  11.409  14.020  14.291
20917SOL     OW64589   2.889  14.387  10.080
20917SOL    HW164590   2.827  14.433  10.023
20917SOL    HW264591   2.900  14.301  10.039
20918SOL     OW64592   0.641  11.850  11.397
20918SOL    HW164593   0.697  11.797  11.340
20918SOL    HW264594   0.698  11.873  11.471
20919SOL     OW64595   9.661   8.270   3.367
20919SOL    HW164596   9.728   8.246   3.432
20919SOL    HW264597   9.579   8.273   3.417
20920SOL     OW64598   2.812   0.756   8.356
20920SOL    HW164599   2.763   0.792   8.430
20920SOL    HW264600   2.779   0.803   8.280
20921SOL     OW64601   1.200   1.550  10.128
20921SOL    HW164602   1.187   1.642  10.106
20921SOL    HW264603   1.286   1.528  10.093
20922SOL     OW64604   0.075   8.336  10.029
20922SOL    HW164605   0.139   8.323   9.959
20922SOL    HW264606   0.128   8.355  10.107
20923SOL     OW64607  13.805   7.518   5.282
20923SOL    HW164608  13.787   7.584   5.349
20923SOL    HW264609  13.789   7.434   5.326
20924SOL     OW64610   7.910   2.052   7.273
20924SOL    HW164611   7.895   2.090   7.360
20924SOL    HW264612   7.889   1.959   7.284
20925SOL     OW64613   0.785   3.287   3.999
20925SOL    HW164614   0.846   3.347   3.956
20925SOL    HW264615   0.759   3.226   3.930
20926SOL     OW64616   3.975   6.284   9.451
20926SOL    HW164617   3.957   6.377   9.438
20926SOL    HW264618   3.889   6.244   9.463
20927SOL     OW64619   7.669   9.497  14.753
20927SOL    HW164620   7.687   9.431  14.686
20927SOL    HW264621   7.580   9.480  14.781
20928SOL     OW64622  11.431   9.574   9.655
20928SOL    HW164623  11.525   9.553   9.656
20928SOL    HW264624  11.422   9.639   9.586
20929SOL     OW64625  14.616  12.551   8.356
20929SOL    HW164626  14.696  12.503   8.381
20929SOL    HW264627  14.602  12.527   8.264
20930SOL     OW64628  10.426  14.346   5.062
20930SOL    HW164629  10.461  14.404   5.131
20930SOL    HW264630  10.476  14.265   5.071
20931SOL     OW64631  11.089  11.654   3.498
20931SOL    HW164632  11.072  11.700   3.580
20931SOL    HW264633  11.066  11.563   3.517
20932SOL     OW64634   9.008   5.116  14.703
20932SOL    HW164635   9.075   5.101  14.770
20932SOL    HW264636   8.925   5.094  14.746
20933SOL     OW64637   0.963   1.048  12.205
20933SOL    HW164638   0.919   1.074  12.124
20933SOL    HW264639   1.007   0.966  12.184
20934SOL     OW64640   3.418  12.051  10.055
20934SOL    HW164641   3.383  12.076   9.969
20934SOL    HW264642   3.431  11.957  10.049
20935SOL     OW64643   2.155   0.101   6.450
20935SOL    HW164644   2.090   0.167   6.472
20935SOL    HW264645   2.234   0.151   6.430
20936SOL     OW64646   1.735   1.523   2.721
20936SOL    HW164647   1.696   1.609   2.704
20936SOL    HW264648   1.744   1.520   2.816
20937SOL     OW64649  11.372  10.946  12.390
20937SOL    HW164650  11.393  10.894  12.467
20937SOL    HW264651  11.407  10.895  12.316
20938SOL     OW64652   4.272   3.805  14.063
20938SOL    HW164653   4.267   3.778  13.971
20938SOL    HW264654   4.347   3.864  14.066
20939SOL     OW64655   6.930   7.012  14.502
20939SOL    HW164656   6.864   6.943  14.493
20939SOL    HW264657   6.879   7.091  14.520
20940SOL     OW64658  10.510   9.543  11.452
20940SOL    HW164659  10.567   9.472  11.480
20940SOL    HW264660  10.541   9.566  11.365
20941SOL     OW64661  14.647   1.307   3.003
20941SOL    HW164662  14.733   1.271   2.984
20941SOL    HW264663  14.586   1.247   2.959
20942SOL     OW64664  13.820   3.359   3.603
20942SOL    HW164665  13.872   3.291   3.559
20942SOL    HW264666  13.799   3.321   3.688
20943SOL     OW64667   3.737   1.811   9.876
20943SOL    HW164668   3.706   1.808   9.967
20943SOL    HW264669   3.662   1.844   9.827
20944SOL     OW64670   9.461   3.088   1.277
20944SOL    HW164671   9.517   3.045   1.213
20944SOL    HW264672   9.416   3.156   1.227
20945SOL     OW64673   7.066   6.206  13.289
20945SOL    HW164674   7.044   6.121  13.251
20945SOL    HW264675   7.027   6.270  13.230
20946SOL     OW64676   4.285  10.436   7.571
20946SOL    HW164677   4.339  10.359   7.588
20946SOL    HW264678   4.210  10.403   7.522
20947SOL     OW64679  12.114   1.184  13.877
20947SOL    HW164680  12.044   1.119  13.875
20947SOL    HW264681  12.116   1.220  13.789
20948SOL     OW64682   1.539   0.194   0.994
20948SOL    HW164683   1.539   0.279   0.949
20948SOL    HW264684   1.514   0.132   0.925
20949SOL     OW64685   0.521  14.652   4.189
20949SOL    HW164686   0.569  14.727   4.224
20949SOL    HW264687   0.429  14.678   4.192
20950SOL     OW64688   1.772   2.266   0.951
20950SOL    HW164689   1.867   2.272   0.958
20950SOL    HW264690   1.755   2.270   0.857
20951SOL     OW64691   4.411   4.191   8.400
20951SOL    HW164692   4.337   4.139   8.369
20951SOL    HW264693   4.442   4.238   8.323
20952SOL     OW64694  12.457  14.744   4.797
20952SOL    HW164695  12.439  14.703   4.881
20952SOL    HW264696  12.381  14.722   4.743
20953SOL     OW64697  12.382   8.359  13.053
20953SOL    HW164698  12.292   8.375  13.024
20953SOL    HW264699  12.422   8.308  12.982
20954SOL     OW64700   6.576   4.944   7.167
20954SOL    HW164701   6.572   4.877   7.235
20954SOL    HW264702   6.618   5.019   7.209
20955SOL     OW64703   5.370  12.000  11.116
20955SOL    HW164704   5.384  11.957  11.032
20955SOL    HW264705   5.411  12.086  11.106
20956SOL     OW64706  12.772   6.772  10.017
20956SOL    HW164707  12.860   6.735  10.017
20956SOL    HW264708  12.717   6.704  10.055
20957SOL     OW64709   8.856   1.021   5.064
20957SOL    HW164710   8.921   1.057   5.003
20957SOL    HW264711   8.888   1.048   5.151
20958SOL     OW64712  12.928  14.616  10.923
20958SOL    HW164713  12.892  14.642  11.007
20958SOL    HW264714  12.868  14.653  10.858
20959SOL     OW64715  14.228   0.765   7.794
20959SOL    HW164716  14.208   0.819   7.871
20959SOL    HW264717  14.156   0.782   7.734
20960SOL     OW64718  10.062  12.208   4.659
20960SOL    HW164719  10.000  12.231   4.728
20960SOL    HW264720  10.130  12.158   4.705
20961SOL     OW64721   9.672   7.170   7.581
20961SOL    HW164722   9.639   7.259   7.585
20961SOL    HW264723   9.598   7.116   7.608
20962SOL     OW64724   3.294   7.378  12.414
20962SOL    HW164725   3.207   7.347  12.392
20962SOL    HW264726   3.308   7.453  12.356
20963SOL     OW64727   5.947   5.868  11.221
20963SOL    HW164728   6.029   5.873  11.173
20963SOL    HW264729   5.883   5.914  11.166
20964SOL     OW64730   4.080   9.166  10.862
20964SOL    HW164731   4.151   9.189  10.803
20964SOL    HW264732   4.107   9.201  10.947
20965SOL     OW64733   7.409  12.114  11.040
20965SOL    HW164734   7.494  12.082  11.072
20965SOL    HW264735   7.412  12.100  10.946
20966SOL     OW64736   8.506  11.572   6.491
20966SOL    HW164737   8.523  11.486   6.530
20966SOL    HW264738   8.432  11.558   6.432
20967SOL     OW64739  14.185  10.662   9.078
20967SOL    HW164740  14.126  10.587   9.074
20967SOL    HW264741  14.272  10.624   9.082
20968SOL     OW64742  12.919   4.842  12.313
20968SOL    HW164743  12.891   4.759  12.274
20968SOL    HW264744  12.973   4.884  12.246
20969SOL     OW64745   2.445   2.636   3.104
20969SOL    HW164746   2.496   2.566   3.062
20969SOL    HW264747   2.409   2.594   3.182
20970SOL     OW64748   0.435  10.738   9.835
20970SOL    HW164749   0.419  10.706   9.923
20970SOL    HW264750   0.531  10.746   9.830
20971SOL     OW64751   8.098  13.365   1.612
20971SOL    HW164752   8.076  13.422   1.538
20971SOL    HW264753   8.014  13.350   1.656
20972SOL     OW64754  13.968   8.918   8.589
20972SOL    HW164755  13.928   9.004   8.595
20972SOL    HW264756  13.919   8.863   8.650
20973SOL     OW64757   8.643   2.840   8.041
20973SOL    HW164758   8.597   2.839   7.957
20973SOL    HW264759   8.575   2.829   8.107
20974SOL     OW64760   7.363   0.050   6.297
20974SOL    HW164761   7.297   0.118   6.310
20974SOL    HW264762   7.320  14.842   6.321
20975SOL     OW64763  11.379   5.092   7.793
20975SOL    HW164764  11.385   5.056   7.882
20975SOL    HW264765  11.463   5.071   7.753
20976SOL     OW64766   3.635  11.931  13.160
20976SOL    HW164767   3.661  11.875  13.233
20976SOL    HW264768   3.609  11.869  13.092
20977SOL     OW64769   4.816   9.913   3.814
20977SOL    HW164770   4.735   9.870   3.787
20977SOL    HW264771   4.823   9.988   3.755
20978SOL     OW64772   5.482   4.621   8.698
20978SOL    HW164773   5.396   4.630   8.739
20978SOL    HW264774   5.543   4.621   8.772
20979SOL     OW64775   0.977   7.222   0.464
20979SOL    HW164776   0.944   7.172   0.389
20979SOL    HW264777   1.072   7.222   0.453
20980SOL     OW64778   4.219   4.338   4.549
20980SOL    HW164779   4.192   4.429   4.531
20980SOL    HW264780   4.257   4.342   4.637
20981SOL     OW64781   6.107  10.101   5.301
20981SOL    HW164782   6.174  10.033   5.295
20981SOL    HW264783   6.156  10.183   5.299
20982SOL     OW64784  11.546   8.533   5.659
20982SOL    HW164785  11.490   8.456   5.667
20982SOL    HW264786  11.596   8.535   5.740
20983SOL     OW64787  12.647  12.339   0.831
20983SOL    HW164788  12.568  12.365   0.784
20983SOL    HW264789  12.642  12.387   0.914
20984SOL     OW64790   6.264   9.155   1.929
20984SOL    HW164791   6.275   9.248   1.912
20984SOL    HW264792   6.231   9.150   2.019
20985SOL     OW64793   9.017   5.254   3.716
20985SOL    HW164794   8.971   5.213   3.790
20985SOL    HW264795   9.054   5.334   3.753
20986SOL     OW64796  14.341   5.791   3.634
20986SOL    HW164797  14.301   5.850   3.571
20986SOL    HW264798  14.362   5.713   3.583
20987SOL     OW64799   4.210   9.202   7.225
20987SOL    HW164800   4.300   9.227   7.205
20987SOL    HW264801   4.199   9.116   7.183
20988SOL     OW64802   5.414   0.701  14.862
20988SOL    HW164803   5.451   0.778   0.031
20988SOL    HW264804   5.463   0.693  14.780
20989SOL     OW64805   2.066   0.541   8.203
20989SOL    HW164806   2.087   0.562   8.294
20989SOL    HW264807   2.133   0.586   8.151
20990SOL     OW64808  11.341  10.376  11.112
20990SOL    HW164809  11.353  10.284  11.137
20990SOL    HW264810  11.284  10.372  11.035
20991SOL     OW64811   5.579  13.801   2.802
20991SOL    HW164812   5.496  13.760   2.830
20991SOL    HW264813   5.552  13.879   2.755
20992SOL     OW64814   7.929   2.986  12.612
20992SOL    HW164815   8.019   3.012  12.595
20992SOL    HW264816   7.899   2.946  12.530
20993SOL     OW64817   9.837   5.828   8.024
20993SOL    HW164818   9.911   5.767   8.020
20993SOL    HW264819   9.842   5.867   8.112
20994SOL     OW64820   0.368   3.670   8.525
20994SOL    HW164821   0.352   3.637   8.437
20994SOL    HW264822   0.461   3.693   8.526
20995SOL     OW64823   6.085   8.340   8.906
20995SOL    HW164824   6.108   8.350   8.998
20995SOL    HW264825   6.168   8.320   8.863
20996SOL     OW64826  11.112  10.369   4.576
20996SOL    HW164827  11.062  10.382   4.495
20996SOL    HW264828  11.151  10.454   4.594
20997SOL     OW64829  10.845   7.804  14.202
20997SOL    HW164830  10.795   7.885  14.213
20997SOL    HW264831  10.812   7.765  14.121
20998SOL     OW64832   8.606   0.774   9.621
20998SOL    HW164833   8.696   0.775   9.654
20998SOL    HW264834   8.564   0.848   9.665
20999SOL     OW64835  12.246   3.976   1.624
20999SOL    HW164836  12.154   3.965   1.651
20999SOL    HW264837  12.263   4.070   1.632
21000SOL     OW64838  14.689  13.003   0.193
21000SOL    HW164839  14.710  12.958   0.276
21000SOL    HW264840  14.696  12.934   0.127
21001SOL     OW64841   0.961   7.382   8.207
21001SOL    HW164842   0.952   7.436   8.129
21001SOL    HW264843   0.874   7.346   8.222
21002SOL     OW64844   0.007   5.737   3.996
21002SOL    HW164845  14.872   5.737   4.092
21002SOL    HW264846   0.075   5.803   3.979
21003SOL     OW64847   6.825   6.548   2.652
21003SOL    HW164848   6.744   6.530   2.603
21003SOL    HW264849   6.798   6.547   2.744
21004SOL     OW64850   2.859   9.209   7.408
21004SOL    HW164851   2.881   9.141   7.471
21004SOL    HW264852   2.763   9.210   7.406
21005SOL     OW64853   4.826  11.651   2.758
21005SOL    HW164854   4.889  11.681   2.823
21005SOL    HW264855   4.741  11.679   2.792
21006SOL     OW64856  10.627   8.201   8.206
21006SOL    HW164857  10.585   8.166   8.285
21006SOL    HW264858  10.558   8.251   8.163
21007SOL     OW64859  10.754   0.917   9.579
21007SOL    HW164860  10.801   0.877   9.506
21007SOL    HW264861  10.761   0.853   9.649
21008SOL     OW64862  12.767   1.000  10.308
21008SOL    HW164863  12.726   0.931  10.255
21008SOL    HW264864  12.858   0.971  10.319
21009SOL     OW64865  10.695   7.895   0.450
21009SOL    HW164866  10.739   7.895   0.365
21009SOL    HW264867  10.622   7.956   0.439
21010SOL     OW64868   7.852   4.121  14.261
21010SOL    HW164869   7.818   4.084  14.342
21010SOL    HW264870   7.788   4.097  14.194
21011SOL     OW64871   3.513   2.405   9.660
21011SOL    HW164872   3.564   2.357   9.595
21011SOL    HW264873   3.515   2.348   9.738
21012SOL     OW64874   1.570  10.194  10.179
21012SOL    HW164875   1.628  10.190  10.103
21012SOL    HW264876   1.483  10.179  10.144
21013SOL     OW64877   8.745   8.907   8.358
21013SOL    HW164878   8.671   8.867   8.404
21013SOL    HW264879   8.712   8.921   8.269
21014SOL     OW64880  13.217   7.705   2.260
21014SOL    HW164881  13.267   7.757   2.323
21014SOL    HW264882  13.159   7.768   2.217
21015SOL     OW64883  10.482  12.074   9.756
21015SOL    HW164884  10.407  12.073   9.697
21015SOL    HW264885  10.541  12.007   9.722
21016SOL     OW64886   4.706   8.661   5.149
21016SOL    HW164887   4.652   8.737   5.171
21016SOL    HW264888   4.646   8.598   5.111
21017SOL     OW64889   0.718   0.371   0.503
21017SOL    HW164890   0.740   0.343   0.414
21017SOL    HW264891   0.664   0.449   0.491
21018SOL     OW64892  14.821   0.578   4.014
21018SOL    HW164893  14.826   0.669   4.043
21018SOL    HW264894  14.850   0.527   4.089
21019SOL     OW64895   9.699  14.442   6.728
21019SOL    HW164896   9.786  14.476   6.746
21019SOL    HW264897   9.670  14.405   6.812
21020SOL     OW64898  13.759  10.015   9.623
21020SOL    HW164899  13.792   9.925   9.631
21020SOL    HW264900  13.745  10.027   9.529
21021SOL     OW64901   0.629   3.601  13.851
21021SOL    HW164902   0.540   3.588  13.819
21021SOL    HW264903   0.673   3.518  13.836
21022SOL     OW64904   9.221  10.514   7.785
21022SOL    HW164905   9.253  10.426   7.807
21022SOL    HW264906   9.292  10.554   7.735
21023SOL     OW64907   1.699   4.954   1.669
21023SOL    HW164908   1.656   5.037   1.647
21023SOL    HW264909   1.638   4.887   1.639
21024SOL     OW64910   3.982   8.049   0.436
21024SOL    HW164911   3.939   7.992   0.371
21024SOL    HW264912   4.072   8.056   0.406
21025SOL     OW64913   0.866   2.544   4.440
21025SOL    HW164914   0.785   2.498   4.460
21025SOL    HW264915   0.918   2.538   4.520
21026SOL     OW64916   0.901   8.064  14.302
21026SOL    HW164917   0.948   8.079  14.384
21026SOL    HW264918   0.863   8.148  14.280
21027SOL     OW64919   8.369   2.969  10.530
21027SOL    HW164920   8.380   3.060  10.502
21027SOL    HW264921   8.456   2.930  10.521
21028SOL     OW64922  14.721  10.198  13.271
21028SOL    HW164923  14.713  10.294  13.277
21028SOL    HW264924  14.768  10.184  13.188
21029SOL     OW64925  12.522  13.989  12.469
21029SOL    HW164926  12.518  13.894  12.484
21029SOL    HW264927  12.490  14.028  12.549
21030SOL     OW64928  11.236   1.583  14.597
21030SOL    HW164929  11.248   1.585  14.692
21030SOL    HW264930  11.147   1.612  14.583
21031SOL     OW64931   8.399  10.796  12.726
21031SOL    HW164932   8.397  10.891  12.718
21031SOL    HW264933   8.321  10.774  12.777
21032SOL     OW64934   3.838   3.493   6.553
21032SOL    HW164935   3.861   3.523   6.465
21032SOL    HW264936   3.922   3.478   6.596
21033SOL     OW64937  14.495   7.775  13.277
21033SOL    HW164938  14.543   7.858  13.273
21033SOL    HW264939  14.495   7.742  13.188
21034SOL     OW64940  13.309  14.425  12.721
21034SOL    HW164941  13.230  14.396  12.767
21034SOL    HW264942  13.277  14.480  12.650
21035SOL     OW64943  11.988   8.361  11.166
21035SOL    HW164944  12.028   8.394  11.247
21035SOL    HW264945  11.895   8.381  11.175
21036SOL     OW64946  13.088   3.165   5.329
21036SOL    HW164947  13.171   3.117   5.334
21036SOL    HW264948  13.064   3.160   5.236
21037SOL     OW64949  13.443   7.792  14.497
21037SOL    HW164950  13.375   7.728  14.475
21037SOL    HW264951  13.491   7.805  14.415
21038SOL     OW64952   5.575  10.600  12.798
21038SOL    HW164953   5.571  10.666  12.867
21038SOL    HW264954   5.554  10.647  12.718
21039SOL     OW64955  10.463   6.729   4.611
21039SOL    HW164956  10.519   6.799   4.644
21039SOL    HW264957  10.381   6.774   4.587
21040SOL     OW64958   9.048   8.604   3.867
21040SOL    HW164959   9.135   8.599   3.907
21040SOL    HW264960   9.013   8.688   3.896
21041SOL     OW64961   0.369  11.291   4.846
21041SOL    HW164962   0.414  11.301   4.930
21041SOL    HW264963   0.338  11.379   4.825
21042SOL     OW64964   6.743   3.378   4.271
21042SOL    HW164965   6.821   3.344   4.315
21042SOL    HW264966   6.724   3.313   4.204
21043SOL     OW64967  10.085  10.951   5.483
21043SOL    HW164968  10.117  10.895   5.413
21043SOL    HW264969  10.011  10.998   5.445
21044SOL     OW64970  12.524  14.534   1.263
21044SOL    HW164971  12.540  14.605   1.201
21044SOL    HW264972  12.431  14.540   1.283
21045SOL     OW64973  11.578  14.468  13.200
21045SOL    HW164974  11.673  14.460  13.212
21045SOL    HW264975  11.568  14.519  13.120
21046SOL     OW64976  13.741  14.662  12.309
21046SOL    HW164977  13.738  14.566  12.303
21046SOL    HW264978  13.661  14.686  12.355
21047SOL     OW64979  13.586   3.730  13.110
21047SOL    HW164980  13.664   3.689  13.147
21047SOL    HW264981  13.531   3.750  13.187
21048SOL     OW64982  14.056   2.662   8.961
21048SOL    HW164983  14.119   2.721   8.920
21048SOL    HW264984  13.977   2.671   8.908
21049SOL     OW64985  14.085  14.041   5.592
21049SOL    HW164986  14.076  14.093   5.672
21049SOL    HW264987  14.134  14.098   5.532
21050SOL     OW64988   1.532   4.474   2.491
21050SOL    HW164989   1.440   4.478   2.463
21050SOL    HW264990   1.530   4.498   2.584
21051SOL     OW64991   3.904   4.717   2.448
21051SOL    HW164992   3.865   4.803   2.432
21051SOL    HW264993   3.959   4.701   2.372
21052SOL     OW64994  11.832  12.199   7.379
21052SOL    HW164995  11.761  12.254   7.348
21052SOL    HW264996  11.905  12.220   7.321
21053SOL     OW64997  12.267   6.458   2.726
21053SOL    HW164998  12.215   6.471   2.647
21053SOL    HW264999  12.352   6.427   2.694
21054SOL     OW65000   7.172   1.680   4.631
21054SOL    HW165001   7.091   1.646   4.593
21054SOL    HW265002   7.233   1.684   4.558
21055SOL     OW65003   2.013   2.247  12.618
21055SOL    HW165004   2.015   2.328  12.568
21055SOL    HW265005   1.953   2.265  12.690
21056SOL     OW65006   5.509  11.665   3.717
21056SOL    HW165007   5.455  11.738   3.748
21056SOL    HW265008   5.584  11.707   3.674
21057SOL     OW65009  10.718  10.721   7.864
21057SOL    HW165010  10.661  10.738   7.789
21057SOL    HW265011  10.802  10.760   7.839
21058SOL     OW65012  11.190  13.902   7.152
21058SOL    HW165013  11.209  13.986   7.111
21058SOL    HW265014  11.276  13.859   7.159
21059SOL     OW65015   3.395   7.118   7.987
21059SOL    HW165016   3.354   7.054   7.928
21059SOL    HW265017   3.452   7.170   7.930
21060SOL     OW65018  10.013   0.279   0.570
21060SOL    HW165019  10.046   0.362   0.536
21060SOL    HW265020   9.965   0.304   0.649
21061SOL     OW65021   9.617  11.999   8.415
21061SOL    HW165022   9.684  11.946   8.372
21061SOL    HW265023   9.667  12.062   8.467
21062SOL     OW65024   8.910  11.153   7.641
21062SOL    HW165025   8.992  11.128   7.684
21062SOL    HW265026   8.850  11.170   7.714
21063SOL     OW65027  11.197   1.283  11.011
21063SOL    HW165028  11.276   1.272  11.064
21063SOL    HW265029  11.184   1.378  11.007
21064SOL     OW65030   5.924   0.593  13.653
21064SOL    HW165031   5.938   0.611  13.560
21064SOL    HW265032   5.829   0.591  13.662
21065SOL     OW65033   3.810   3.978   4.961
21065SOL    HW165034   3.862   3.906   4.924
21065SOL    HW265035   3.722   3.965   4.925
21066SOL     OW65036   1.330  10.469   2.860
21066SOL    HW165037   1.300  10.512   2.940
21066SOL    HW265038   1.368  10.386   2.889
21067SOL     OW65039  10.199   0.931  11.308
21067SOL    HW165040  10.263   0.897  11.370
21067SOL    HW265041  10.252   0.961  11.234
21068SOL     OW65042   1.163   3.134   4.472
21068SOL    HW165043   1.099   3.092   4.530
21068SOL    HW265044   1.155   3.228   4.491
21069SOL     OW65045   6.869   0.915   9.348
21069SOL    HW165046   6.809   0.975   9.303
21069SOL    HW265047   6.902   0.858   9.278
21070SOL     OW65048   1.546   8.740  12.459
21070SOL    HW165049   1.488   8.812  12.435
21070SOL    HW265050   1.489   8.663  12.458
21071SOL     OW65051  12.362  11.132   1.734
21071SOL    HW165052  12.290  11.169   1.785
21071SOL    HW265053  12.359  11.179   1.651
21072SOL     OW65054   4.139  14.330   2.232
21072SOL    HW165055   4.228  14.356   2.209
21072SOL    HW265056   4.115  14.387   2.305
21073SOL     OW65057   3.271  12.101  11.784
21073SOL    HW165058   3.303  12.077  11.697
21073SOL    HW265059   3.203  12.037  11.802
21074SOL     OW65060   1.183   0.020  14.364
21074SOL    HW165061   1.160   0.019  14.457
21074SOL    HW265062   1.270  14.853  14.361
21075SOL     OW65063  13.743  11.591   4.584
21075SOL    HW165064  13.674  11.610   4.520
21075SOL    HW265065  13.707  11.618   4.668
21076SOL     OW65066   7.702   4.168   8.274
21076SOL    HW165067   7.698   4.145   8.366
21076SOL    HW265068   7.792   4.151   8.248
21077SOL     OW65069   1.092  14.577  11.233
21077SOL    HW165070   1.171  14.631  11.240
21077SOL    HW265071   1.060  14.569  11.322
21078SOL     OW65072  12.734   5.747   0.011
21078SOL    HW165073  12.703   5.728   0.100
21078SOL    HW265074  12.749   5.661  14.847
21079SOL     OW65075  14.032  11.971   5.132
21079SOL    HW165076  14.058  11.962   5.224
21079SOL    HW265077  14.114  11.964   5.083
21080SOL     OW65078   8.392   6.739   5.370
21080SOL    HW165079   8.406   6.799   5.297
21080SOL    HW265080   8.334   6.786   5.429
21081SOL     OW65081   7.084   3.889   3.153
21081SOL    HW165082   7.047   3.891   3.065
21081SOL    HW265083   7.094   3.796   3.173
21082SOL     OW65084   3.730   7.833  10.163
21082SOL    HW165085   3.706   7.832  10.256
21082SOL    HW265086   3.683   7.758  10.126
21083SOL     OW65087   6.055   9.686  13.663
21083SOL    HW165088   5.989   9.714  13.727
21083SOL    HW265089   6.042   9.746  13.589
21084SOL     OW65090   8.057  13.189   4.033
21084SOL    HW165091   8.144  13.165   4.002
21084SOL    HW265092   8.011  13.105   4.041
21085SOL     OW65093   7.280  10.036   7.091
21085SOL    HW165094   7.234   9.974   7.034
21085SOL    HW265095   7.346  10.076   7.035
21086SOL     OW65096   8.524  10.997   4.206
21086SOL    HW165097   8.549  11.082   4.244
21086SOL    HW265098   8.436  11.012   4.171
21087SOL     OW65099  10.920   8.093   0.275
21087SOL    HW165100  10.941   8.014   0.324
21087SOL    HW265101  10.915   8.064   0.184
21088SOL     OW65102   8.901  10.316   6.235
21088SOL    HW165103   8.945  10.242   6.278
21088SOL    HW265104   8.968  10.384   6.230
21089SOL     OW65105   3.865   1.876  11.590
21089SOL    HW165106   3.898   1.866  11.679
21089SOL    HW265107   3.943   1.891  11.537
21090SOL     OW65108  11.852  10.678   9.337
21090SOL    HW165109  11.903  10.611   9.384
21090SOL    HW265110  11.809  10.630   9.266
21091SOL     OW65111  14.033   9.525   9.344
21091SOL    HW165112  14.020   9.453   9.282
21091SOL    HW265113  14.123   9.555   9.327
21092SOL     OW65114   5.987   0.795   5.943
21092SOL    HW165115   6.002   0.718   5.888
21092SOL    HW265116   5.922   0.847   5.896
21093SOL     OW65117   4.343  11.785   0.848
21093SOL    HW165118   4.368  11.868   0.808
21093SOL    HW265119   4.257  11.802   0.887
21094SOL     OW65120  11.178   6.125  11.841
21094SOL    HW165121  11.200   6.158  11.754
21094SOL    HW265122  11.259   6.132  11.890
21095SOL     OW65123  11.508   2.025   6.782
21095SOL    HW165124  11.564   2.102   6.785
21095SOL    HW265125  11.435   2.047   6.840
21096SOL     OW65126   9.371   4.989  12.563
21096SOL    HW165127   9.392   4.979  12.656
21096SOL    HW265128   9.413   4.914  12.521
21097SOL     OW65129   8.539  10.136  10.713
21097SOL    HW165130   8.445  10.154  10.720
21097SOL    HW265131   8.577  10.218  10.681
21098SOL     OW65132   2.657  13.487   9.604
21098SOL    HW165133   2.604  13.431   9.661
21098SOL    HW265134   2.745  13.450   9.610
21099SOL     OW65135   9.731   9.153   2.042
21099SOL    HW165136   9.658   9.208   2.071
21099SOL    HW265137   9.752   9.098   2.117
21100SOL     OW65138   4.936   3.131  12.975
21100SOL    HW165139   4.908   3.128  12.884
21100SOL    HW265140   5.021   3.175  12.972
21101SOL     OW65141   7.960   5.232   7.659
21101SOL    HW165142   7.889   5.171   7.679
21101SOL    HW265143   7.995   5.201   7.576
21102SOL     OW65144   8.275   6.961  14.354
21102SOL    HW165145   8.323   6.891  14.309
21102SOL    HW265146   8.280   7.035  14.294
21103SOL     OW65147   7.353   2.775  10.203
21103SOL    HW165148   7.336   2.706  10.266
21103SOL    HW265149   7.426   2.825  10.240
21104SOL     OW65150   1.360  14.563  12.531
21104SOL    HW165151   1.434  14.623  12.535
21104SOL    HW265152   1.308  14.594  12.457
21105SOL     OW65153   3.628   8.675  14.395
21105SOL    HW165154   3.540   8.636  14.401
21105SOL    HW265155   3.653   8.692  14.486
21106SOL     OW65156   3.813   7.827  14.527
21106SOL    HW165157   3.831   7.733  14.533
21106SOL    HW265158   3.822   7.848  14.434
21107SOL     OW65159   5.680  13.950   4.987
21107SOL    HW165160   5.591  13.940   5.022
21107SOL    HW265161   5.703  13.863   4.955
21108SOL     OW65162  13.208  10.930   5.295
21108SOL    HW165163  13.252  10.973   5.221
21108SOL    HW265164  13.247  10.842   5.298
21109SOL     OW65165   1.954   5.710  11.356
21109SOL    HW165166   2.021   5.688  11.421
21109SOL    HW265167   1.967   5.803  11.337
21110SOL     OW65168   4.052  11.921  12.160
21110SOL    HW165169   3.975  11.961  12.120
21110SOL    HW265170   4.104  11.995  12.192
21111SOL     OW65171   6.497   3.694   2.872
21111SOL    HW165172   6.453   3.610   2.860
21111SOL    HW265173   6.430   3.760   2.854
21112SOL     OW65174   2.408   4.263  12.158
21112SOL    HW165175   2.370   4.181  12.127
21112SOL    HW265176   2.407   4.320  12.081
21113SOL     OW65177   6.831   5.871   4.850
21113SOL    HW165178   6.820   5.946   4.908
21113SOL    HW265179   6.779   5.893   4.772
21114SOL     OW65180   8.264  12.740  14.495
21114SOL    HW165181   8.175  12.763  14.469
21114SOL    HW265182   8.317  12.816  14.470
21115SOL     OW65183   7.973  14.173   0.136
21115SOL    HW165184   7.979  14.085   0.173
21115SOL    HW265185   7.899  14.168   0.075
21116SOL     OW65186   4.316  11.905  10.054
21116SOL    HW165187   4.256  11.915  10.128
21116SOL    HW265188   4.308  11.988  10.006
21117SOL     OW65189   0.460   9.260   5.271
21117SOL    HW165190   0.554   9.244   5.276
21117SOL    HW265191   0.433   9.214   5.191
21118SOL     OW65192   3.665   9.450   5.829
21118SOL    HW165193   3.680   9.380   5.893
21118SOL    HW265194   3.680   9.407   5.744
21119SOL     OW65195   2.955   0.708   4.928
21119SOL    HW165196   2.865   0.723   4.898
21119SOL    HW265197   2.969   0.776   4.995
21120SOL     OW65198   7.464  12.012   5.276
21120SOL    HW165199   7.404  11.965   5.219
21120SOL    HW265200   7.432  12.102   5.275
21121SOL     OW65201   0.541   3.949   2.609
21121SOL    HW165202   0.612   4.014   2.612
21121SOL    HW265203   0.533   3.920   2.699
21122SOL     OW65204  12.403   0.136   5.728
21122SOL    HW165205  12.409   0.065   5.664
21122SOL    HW265206  12.330   0.111   5.785
21123SOL     OW65207   9.650   7.671  11.439
21123SOL    HW165208   9.588   7.736  11.404
21123SOL    HW265209   9.672   7.617  11.363
21124SOL     OW65210  13.841   3.098  10.847
21124SOL    HW165211  13.868   3.130  10.761
21124SOL    HW265212  13.922   3.063  10.886
21125SOL     OW65213  11.396  10.087  11.130
21125SOL    HW165214  11.326  10.022  11.141
21125SOL    HW265215  11.412  10.090  11.035
21126SOL     OW65216  14.269   8.055   4.699
21126SOL    HW165217  14.337   8.001   4.739
21126SOL    HW265218  14.275   8.036   4.605
21127SOL     OW65219   8.650   4.899   7.987
21127SOL    HW165220   8.608   4.838   7.925
21127SOL    HW265221   8.603   4.885   8.069
21128SOL     OW65222   0.179  10.475   7.181
21128SOL    HW165223   0.199  10.383   7.160
21128SOL    HW265224   0.174  10.518   7.095
21129SOL     OW65225  13.399  13.297   7.516
21129SOL    HW165226  13.389  13.346   7.598
21129SOL    HW265227  13.397  13.365   7.448
21130SOL     OW65228  11.197   9.904   2.929
21130SOL    HW165229  11.152   9.864   3.003
21130SOL    HW265230  11.135   9.968   2.894
21131SOL     OW65231  13.106   0.537  13.054
21131SOL    HW165232  13.042   0.599  13.018
21131SOL    HW265233  13.076   0.452  13.024
21132SOL     OW65234   3.261   5.566  12.629
21132SOL    HW165235   3.339   5.540  12.580
21132SOL    HW265236   3.195   5.583  12.562
21133SOL     OW65237   2.439   8.152  11.154
21133SOL    HW165238   2.516   8.204  11.129
21133SOL    HW265239   2.455   8.066  11.115
21134SOL     OW65240   3.748  11.194   6.674
21134SOL    HW165241   3.745  11.103   6.643
21134SOL    HW265242   3.687  11.240   6.616
21135SOL     OW65243  14.310   6.445  14.078
21135SOL    HW165244  14.285   6.536  14.060
21135SOL    HW265245  14.230   6.404  14.110
21136SOL     OW65246   6.936   9.456   8.362
21136SOL    HW165247   6.989   9.475   8.439
21136SOL    HW265248   6.987   9.390   8.314
21137SOL     OW65249  11.694   7.076  10.004
21137SOL    HW165250  11.650   7.078   9.919
21137SOL    HW265251  11.678   7.162  10.042
21138SOL     OW65252   4.620   0.799   4.553
21138SOL    HW165253   4.662   0.748   4.622
21138SOL    HW265254   4.655   0.763   4.472
21139SOL     OW65255   9.044  11.926  12.392
21139SOL    HW165256   9.120  11.949  12.338
21139SOL    HW265257   8.968  11.950  12.338
21140SOL     OW65258   7.960  12.836   5.254
21140SOL    HW165259   7.876  12.824   5.211
21140SOL    HW265260   7.971  12.758   5.309
21141SOL     OW65261   7.652  13.850   9.416
21141SOL    HW165262   7.628  13.764   9.380
21141SOL    HW265263   7.647  13.910   9.342
21142SOL     OW65264  10.161   1.259  12.769
21142SOL    HW165265  10.200   1.280  12.854
21142SOL    HW265266  10.212   1.310  12.706
21143SOL     OW65267  12.712   2.675  14.863
21143SOL    HW165268  12.619   2.683  14.842
21143SOL    HW265269  12.714   2.643   0.079
21144SOL     OW65270   5.851  10.220   3.324
21144SOL    HW165271   5.944  10.239   3.333
21144SOL    HW265272   5.814  10.297   3.280
21145SOL     OW65273   1.864  12.908   6.525
21145SOL    HW165274   1.943  12.855   6.533
21145SOL    HW265275   1.806  12.875   6.594
21146SOL     OW65276   5.485   2.775  14.613
21146SOL    HW165277   5.394   2.747  14.605
21146SOL    HW265278   5.521   2.766  14.525
21147SOL     OW65279   2.116   3.195   6.915
21147SOL    HW165280   2.130   3.178   7.008
21147SOL    HW265281   2.097   3.288   6.910
21148SOL     OW65282   5.465  10.965   2.568
21148SOL    HW165283   5.531  10.945   2.502
21148SOL    HW265284   5.511  11.019   2.633
21149SOL     OW65285   3.820   0.595   8.940
21149SOL    HW165286   3.849   0.662   9.001
21149SOL    HW265287   3.882   0.523   8.952
21150SOL     OW65288   6.520   4.596  13.972
21150SOL    HW165289   6.428   4.573  13.974
21150SOL    HW265290   6.533   4.651  14.049
21151SOL     OW65291  10.464  10.852  11.296
21151SOL    HW165292  10.375  10.829  11.323
21151SOL    HW265293  10.498  10.773  11.255
21152SOL     OW65294   1.148  11.782   0.511
21152SOL    HW165295   1.163  11.797   0.604
21152SOL    HW265296   1.055  11.798   0.498
21153SOL     OW65297   2.938  12.362   5.945
21153SOL    HW165298   2.855  12.328   5.912
21153SOL    HW265299   2.925  12.456   5.951
21154SOL     OW65300   5.683   2.588   5.645
21154SOL    HW165301   5.632   2.662   5.678
21154SOL    HW265302   5.624   2.513   5.652
21155SOL     OW65303   0.042   1.073   3.402
21155SOL    HW165304   0.025   1.009   3.471
21155SOL    HW265305  14.869   1.040   3.326
21156SOL     OW65306   5.335  14.572  10.079
21156SOL    HW165307   5.367  14.513  10.148
21156SOL    HW265308   5.240  14.560  10.079
21157SOL     OW65309  12.039  11.772  12.617
21157SOL    HW165310  12.113  11.712  12.627
21157SOL    HW265311  11.965  11.716  12.595
21158SOL     OW65312   7.862   2.110   7.991
21158SOL    HW165313   7.913   2.066   7.923
21158SOL    HW265314   7.771   2.105   7.960
21159SOL     OW65315   4.625  11.767  11.847
21159SOL    HW165316   4.595  11.692  11.795
21159SOL    HW265317   4.716  11.748  11.867
21160SOL     OW65318   1.773  14.268  10.988
21160SOL    HW165319   1.746  14.197  10.929
21160SOL    HW265320   1.865  14.251  11.005
21161SOL     OW65321  11.243   6.400   1.551
21161SOL    HW165322  11.297   6.480   1.550
21161SOL    HW265323  11.186   6.409   1.474
21162SOL     OW65324  10.280   1.548   7.802
21162SOL    HW165325  10.237   1.557   7.888
21162SOL    HW265326  10.210   1.563   7.739
21163SOL     OW65327   2.202   3.760   2.789
21163SOL    HW165328   2.232   3.824   2.853
21163SOL    HW265329   2.275   3.753   2.727
21164SOL     OW65330  12.182   2.098   0.739
21164SOL    HW165331  12.240   2.090   0.663
21164SOL    HW265332  12.192   2.015   0.786
21165SOL     OW65333   4.424   2.898   8.978
21165SOL    HW165334   4.448   2.808   9.002
21165SOL    HW265335   4.329   2.901   8.991
21166SOL     OW65336   4.156  14.469  10.892
21166SOL    HW165337   4.208  14.510  10.962
21166SOL    HW265338   4.189  14.379  10.888
21167SOL     OW65339   1.201   7.371   5.905
21167SOL    HW165340   1.223   7.419   5.985
21167SOL    HW265341   1.151   7.433   5.852
21168SOL     OW65342  14.463  12.544   2.196
21168SOL    HW165343  14.552  12.571   2.219
21168SOL    HW265344  14.462  12.547   2.100
21169SOL     OW65345   7.935   4.871   2.829
21169SOL    HW165346   7.920   4.781   2.798
21169SOL    HW265347   7.879   4.879   2.906
21170SOL     OW65348   5.379  10.679  11.570
21170SOL    HW165349   5.404  10.628  11.646
21170SOL    HW265350   5.459  10.685  11.518
21171SOL     OW65351  10.482   6.393   4.440
21171SOL    HW165352  10.440   6.419   4.358
21171SOL    HW265353  10.410   6.360   4.494
21172SOL     OW65354   6.554   9.507  12.656
21172SOL    HW165355   6.515   9.501  12.569
21172SOL    HW265356   6.575   9.416  12.678
21173SOL     OW65357  10.528  11.682   1.311
21173SOL    HW165358  10.558  11.642   1.392
21173SOL    HW265359  10.603  11.734   1.281
21174SOL     OW65360   0.975  13.387   9.785
21174SOL    HW165361   0.966  13.465   9.840
21174SOL    HW265362   1.005  13.421   9.700
21175SOL     OW65363   0.554   5.681   6.044
21175SOL    HW165364   0.459   5.675   6.041
21175SOL    HW265365   0.573   5.770   6.014
21176SOL     OW65366   5.675   0.462   9.957
21176SOL    HW165367   5.719   0.424   9.882
21176SOL    HW265368   5.599   0.507   9.921
21177SOL     OW65369   4.744  12.597  10.567
21177SOL    HW165370   4.735  12.529  10.633
21177SOL    HW265371   4.834  12.627  10.576
21178SOL     OW65372   0.325   9.684   3.649
21178SOL    HW165373   0.258   9.620   3.669
21178SOL    HW265374   0.362   9.708   3.735
21179SOL     OW65375   2.253   9.914   2.838
21179SOL    HW165376   2.320   9.901   2.770
21179SOL    HW265377   2.189   9.844   2.822
21180SOL     OW65378  12.286   0.116   0.514
21180SOL    HW165379  12.273   0.080   0.602
21180SOL    HW265380  12.201   0.107   0.472
21181SOL     OW65381  10.414   3.740  13.386
21181SOL    HW165382  10.389   3.679  13.317
21181SOL    HW265383  10.444   3.818  13.339
21182SOL     OW65384   4.570  14.358  11.185
21182SOL    HW165385   4.662  14.387  11.185
21182SOL    HW265386   4.525  14.421  11.128
21183SOL     OW65387   2.603  12.624  11.363
21183SOL    HW165388   2.514  12.625  11.397
21183SOL    HW265389   2.649  12.691  11.412
21184SOL     OW65390   5.858  11.630   2.560
21184SOL    HW165391   5.896  11.542   2.562
21184SOL    HW265392   5.763  11.615   2.551
21185SOL     OW65393   0.912  10.433   7.753
21185SOL    HW165394   1.007  10.447   7.747
21185SOL    HW265395   0.887  10.405   7.665
21186SOL     OW65396   7.027   2.991   3.676
21186SOL    HW165397   7.051   2.989   3.769
21186SOL    HW265398   7.075   2.918   3.637
21187SOL     OW65399  10.662  13.855  12.750
21187SOL    HW165400  10.628  13.781  12.700
21187SOL    HW265401  10.657  13.827  12.841
21188SOL     OW65402   7.046   4.631  12.886
21188SOL    HW165403   7.011   4.545  12.911
21188SOL    HW265404   7.037   4.633  12.791
21189SOL     OW65405   8.733   2.042   2.939
21189SOL    HW165406   8.802   2.106   2.959
21189SOL    HW265407   8.748   1.971   3.002
21190SOL     OW65408   6.551   0.091   1.773
21190SOL    HW165409   6.486   0.150   1.736
21190SOL    HW265410   6.515   0.003   1.758
21191SOL     OW65411   3.366  14.503   9.576
21191SOL    HW165412   3.365  14.596   9.551
21191SOL    HW265413   3.367  14.505   9.672
21192SOL     OW65414   4.420   6.917  11.799
21192SOL    HW165415   4.502   6.966  11.800
21192SOL    HW265416   4.422   6.866  11.880
21193SOL     OW65417   0.675  12.904   0.222
21193SOL    HW165418   0.597  12.879   0.173
21193SOL    HW265419   0.660  12.996   0.245
21194SOL     OW65420   9.391   3.400   8.379
21194SOL    HW165421   9.392   3.305   8.389
21194SOL    HW265422   9.334   3.432   8.450
21195SOL     OW65423  14.145   5.498  13.073
21195SOL    HW165424  14.194   5.526  13.151
21195SOL    HW265425  14.185   5.415  13.048
21196SOL     OW65426   3.553   9.111   1.384
21196SOL    HW165427   3.596   9.192   1.359
21196SOL    HW265428   3.624   9.048   1.394
21197SOL     OW65429   3.905   1.337  14.063
21197SOL    HW165430   3.809   1.342  14.064
21197SOL    HW265431   3.925   1.251  14.101
21198SOL     OW65432   3.604   0.505  13.178
21198SOL    HW165433   3.660   0.442  13.133
21198SOL    HW265434   3.610   0.584  13.125
21199SOL     OW65435  10.224  11.785   9.802
21199SOL    HW165436  10.278  11.802   9.879
21199SOL    HW265437  10.236  11.692   9.784
21200SOL     OW65438   0.765  12.503   3.251
21200SOL    HW165439   0.801  12.561   3.318
21200SOL    HW265440   0.722  12.433   3.301
21201SOL     OW65441   3.301  13.484  13.690
21201SOL    HW165442   3.361  13.414  13.666
21201SOL    HW265443   3.230  13.479  13.626
21202SOL     OW65444   9.385   6.081   2.392
21202SOL    HW165445   9.382   5.994   2.431
21202SOL    HW265446   9.334   6.136   2.451
21203SOL     OW65447   6.776  13.997  13.983
21203SOL    HW165448   6.815  14.069  13.933
21203SOL    HW265449   6.744  14.038  14.063
21204SOL     OW65450   1.811   9.238   4.840
21204SOL    HW165451   1.863   9.160   4.822
21204SOL    HW265452   1.828   9.259   4.931
21205SOL     OW65453  13.330   2.667   4.429
21205SOL    HW165454  13.397   2.610   4.391
21205SOL    HW265455  13.247   2.630   4.397
21206SOL     OW65456   3.150   4.979   6.569
21206SOL    HW165457   3.164   4.985   6.474
21206SOL    HW265458   3.114   5.064   6.593
21207SOL     OW65459  14.351   6.833   8.347
21207SOL    HW165460  14.437   6.848   8.309
21207SOL    HW265461  14.368   6.807   8.437
21208SOL     OW65462  11.661   3.698  14.419
21208SOL    HW165463  11.752   3.701  14.387
21208SOL    HW265464  11.619   3.773  14.376
21209SOL     OW65465  14.114  14.641   5.562
21209SOL    HW165466  14.086  14.550   5.557
21209SOL    HW265467  14.207  14.637   5.583
21210SOL     OW65468   9.333  14.151   6.844
21210SOL    HW165469   9.302  14.120   6.759
21210SOL    HW265470   9.299  14.087   6.907
21211SOL     OW65471   1.683   7.332  12.732
21211SOL    HW165472   1.690   7.336  12.637
21211SOL    HW265473   1.592   7.357  12.750
21212SOL     OW65474   6.456   5.852  12.597
21212SOL    HW165475   6.487   5.942  12.607
21212SOL    HW265476   6.360   5.859  12.599
21213SOL     OW65477   9.914  10.093  12.903
21213SOL    HW165478   9.971  10.017  12.917
21213SOL    HW265479   9.840  10.059  12.854
21214SOL     OW65480   8.493  14.113   9.539
21214SOL    HW165481   8.505  14.162   9.621
21214SOL    HW265482   8.498  14.180   9.471
21215SOL     OW65483  10.258  14.469   6.513
21215SOL    HW165484  10.165  14.448   6.515
21215SOL    HW265485  10.262  14.561   6.540
21216SOL     OW65486  14.148   6.316  10.969
21216SOL    HW165487  14.228   6.264  10.964
21216SOL    HW265488  14.178   6.404  10.994
21217SOL     OW65489   3.865  10.953  11.414
21217SOL    HW165490   3.937  10.899  11.383
21217SOL    HW265491   3.870  10.948  11.509
21218SOL     OW65492   8.133  12.701  10.818
21218SOL    HW165493   8.169  12.615  10.839
21218SOL    HW265494   8.079  12.687  10.740
21219SOL     OW65495  10.291   4.877   2.098
21219SOL    HW165496  10.283   4.783   2.113
21219SOL    HW265497  10.264   4.889   2.006
21220SOL     OW65498  12.155   7.076   8.893
21220SOL    HW165499  12.189   7.036   8.813
21220SOL    HW265500  12.071   7.032   8.907
21221SOL     OW65501  10.712  11.041  13.663
21221SOL    HW165502  10.785  11.063  13.605
21221SOL    HW265503  10.690  10.951  13.642
21222SOL     OW65504  12.534   7.276   4.022
21222SOL    HW165505  12.541   7.371   4.025
21222SOL    HW265506  12.473   7.255   4.093
21223SOL     OW65507   9.894  12.376   4.187
21223SOL    HW165508   9.948  12.365   4.265
21223SOL    HW265509   9.957  12.380   4.114
21224SOL     OW65510  10.074  12.957   1.860
21224SOL    HW165511  10.066  12.887   1.924
21224SOL    HW265512   9.989  12.959   1.816
21225SOL     OW65513  13.589   4.262  10.134
21225SOL    HW165514  13.622   4.245  10.222
21225SOL    HW265515  13.525   4.332  10.146
21226SOL     OW65516  14.424  11.690   7.576
21226SOL    HW165517  14.442  11.620   7.512
21226SOL    HW265518  14.405  11.643   7.657
21227SOL     OW65519  13.021  13.149   3.256
21227SOL    HW165520  13.070  13.213   3.307
21227SOL    HW265521  12.939  13.139   3.304
21228SOL     OW65522   7.464  10.287   5.281
21228SOL    HW165523   7.554  10.273   5.250
21228SOL    HW265524   7.438  10.370   5.240
21229SOL     OW65525  14.396  11.807   0.048
21229SOL    HW165526  14.399  11.730  14.866
21229SOL    HW265527  14.323  11.790   0.109
21230SOL     OW65528  14.308   8.291  14.482
21230SOL    HW165529  14.257   8.234  14.424
21230SOL    HW265530  14.381   8.236  14.511
21231SOL     OW65531  11.949   0.161   6.933
21231SOL    HW165532  12.012   0.191   6.867
21231SOL    HW265533  11.909   0.241   6.966
21232SOL     OW65534   2.312   1.511   0.851
21232SOL    HW165535   2.348   1.427   0.822
21232SOL    HW265536   2.377   1.576   0.824
21233SOL     OW65537   2.739   0.326   8.384
21233SOL    HW165538   2.812   0.370   8.339
21233SOL    HW265539   2.682   0.398   8.412
21234SOL     OW65540  13.441   9.026   1.880
21234SOL    HW165541  13.348   9.045   1.893
21234SOL    HW265542  13.462   8.961   1.947
21235SOL     OW65543   7.083   4.032  14.415
21235SOL    HW165544   7.119   3.958  14.465
21235SOL    HW265545   7.023   3.992  14.352
21236SOL     OW65546   6.729  13.739   6.444
21236SOL    HW165547   6.710  13.766   6.534
21236SOL    HW265548   6.822  13.756   6.433
21237SOL     OW65549   7.057   3.366   7.493
21237SOL    HW165550   6.982   3.358   7.434
21237SOL    HW265551   7.089   3.455   7.480
21238SOL     OW65552   5.213   9.129  11.914
21238SOL    HW165553   5.227   9.058  11.976
21238SOL    HW265554   5.202   9.207  11.969
21239SOL     OW65555   7.044   0.696  13.933
21239SOL    HW165556   7.053   0.791  13.935
21239SOL    HW265557   6.969   0.681  13.875
21240SOL     OW65558  12.217   4.994   2.395
21240SOL    HW165559  12.292   4.972   2.449
21240SOL    HW265560  12.236   5.081   2.361
21241SOL     OW65561  13.500   1.412   1.034
21241SOL    HW165562  13.584   1.437   1.071
21241SOL    HW265563  13.457   1.495   1.014
21242SOL     OW65564   9.062   3.782   9.881
21242SOL    HW165565   8.968   3.783   9.862
21242SOL    HW265566   9.068   3.749   9.971
21243SOL     OW65567   5.488   5.522  13.535
21243SOL    HW165568   5.405   5.570  13.527
21243SOL    HW265569   5.475   5.463  13.609
21244SOL     OW65570   5.265   9.775  11.886
21244SOL    HW165571   5.196   9.832  11.851
21244SOL    HW265572   5.333   9.835  11.916
21245SOL     OW65573   5.532   4.222  12.219
21245SOL    HW165574   5.570   4.202  12.305
21245SOL    HW265575   5.462   4.284  12.238
21246SOL     OW65576  10.558  12.313   9.482
21246SOL    HW165577  10.530  12.230   9.443
21246SOL    HW265578  10.477  12.354   9.511
21247SOL     OW65579   7.284   5.498   0.398
21247SOL    HW165580   7.348   5.467   0.462
21247SOL    HW265581   7.249   5.579   0.435
21248SOL     OW65582   5.629   1.750   4.162
21248SOL    HW165583   5.592   1.780   4.079
21248SOL    HW265584   5.578   1.796   4.229
21249SOL     OW65585  11.370  14.550   1.362
21249SOL    HW165586  11.432  14.607   1.409
21249SOL    HW265587  11.307  14.523   1.428
21250SOL     OW65588   4.064  14.858   8.034
21250SOL    HW165589   4.136  14.804   8.066
21250SOL    HW265590   4.059   0.057   8.097
21251SOL     OW65591   5.450   6.178   3.472
21251SOL    HW165592   5.486   6.224   3.396
21251SOL    HW265593   5.527   6.155   3.524
21252SOL     OW65594  12.893  11.728   0.565
21252SOL    HW165595  12.838  11.777   0.505
21252SOL    HW265596  12.941  11.667   0.510
21253SOL     OW65597   3.688  12.402   9.131
21253SOL    HW165598   3.757  12.442   9.078
21253SOL    HW265599   3.607  12.432   9.091
21254SOL     OW65600   6.761   4.794  10.637
21254SOL    HW165601   6.748   4.875  10.588
21254SOL    HW265602   6.697   4.733  10.599
21255SOL     OW65603   9.379   3.242   4.963
21255SOL    HW165604   9.460   3.201   4.994
21255SOL    HW265605   9.372   3.322   5.015
21256SOL     OW65606   8.939   3.065   1.536
21256SOL    HW165607   8.862   3.023   1.497
21256SOL    HW265608   8.903   3.120   1.606
21257SOL     OW65609  12.719  10.394   8.084
21257SOL    HW165610  12.806  10.421   8.113
21257SOL    HW265611  12.660  10.462   8.117
21258SOL     OW65612   6.472   0.052   9.010
21258SOL    HW165613   6.537   0.027   9.075
21258SOL    HW265614   6.461   0.147   9.022
21259SOL     OW65615   3.509  10.836   7.556
21259SOL    HW165616   3.544  10.758   7.600
21259SOL    HW265617   3.456  10.801   7.484
21260SOL     OW65618  12.912   7.964   0.399
21260SOL    HW165619  12.922   8.056   0.377
21260SOL    HW265620  12.995   7.924   0.375
21261SOL     OW65621   0.812  14.623   1.242
21261SOL    HW165622   0.876  14.590   1.305
21261SOL    HW265623   0.827  14.718   1.241
21262SOL     OW65624  14.770   5.725  12.423
21262SOL    HW165625  14.709   5.652  12.431
21262SOL    HW265626  14.845   5.689  12.377
21263SOL     OW65627  11.277   9.375   1.926
21263SOL    HW165628  11.222   9.452   1.939
21263SOL    HW265629  11.339   9.378   1.998
21264SOL     OW65630  12.568  11.858   6.149
21264SOL    HW165631  12.616  11.927   6.103
21264SOL    HW265632  12.618  11.778   6.130
21265SOL     OW65633  12.645   7.133   6.956
21265SOL    HW165634  12.623   7.176   7.038
21265SOL    HW265635  12.694   7.055   6.983
21266SOL     OW65636  14.606   2.085  10.564
21266SOL    HW165637  14.667   2.030  10.613
21266SOL    HW265638  14.642   2.085  10.475
21267SOL     OW65639  14.015   7.983   3.379
21267SOL    HW165640  14.035   7.911   3.320
21267SOL    HW265641  13.951   8.036   3.331
21268SOL     OW65642   4.713   2.775   6.378
21268SOL    HW165643   4.650   2.737   6.317
21268SOL    HW265644   4.729   2.863   6.344
21269SOL     OW65645   4.777  14.131   4.938
21269SOL    HW165646   4.864  14.152   4.906
21269SOL    HW265647   4.759  14.043   4.905
21270SOL     OW65648  14.082   9.633  14.214
21270SOL    HW165649  14.172   9.627  14.246
21270SOL    HW265650  14.089   9.615  14.120
21271SOL     OW65651   3.668   1.044   4.826
21271SOL    HW165652   3.696   0.967   4.778
21271SOL    HW265653   3.677   1.019   4.918
21272SOL     OW65654  14.006   4.157  11.189
21272SOL    HW165655  14.066   4.204  11.248
21272SOL    HW265656  13.986   4.075  11.235
21273SOL     OW65657   3.032   4.930   9.355
21273SOL    HW165658   3.088   4.877   9.297
21273SOL    HW265659   2.997   4.998   9.297
21274SOL     OW65660  11.836  12.863   9.665
21274SOL    HW165661  11.848  12.846   9.758
21274SOL    HW265662  11.754  12.820   9.643
21275SOL     OW65663   1.435   6.694   2.854
21275SOL    HW165664   1.512   6.673   2.907
21275SOL    HW265665   1.367   6.714   2.918
21276SOL     OW65666   9.504   1.757  10.660
21276SOL    HW165667   9.473   1.745  10.750
21276SOL    HW265668   9.437   1.812  10.619
21277SOL     OW65669   1.092  13.268   4.171
21277SOL    HW165670   1.049  13.295   4.253
21277SOL    HW265671   1.185  13.286   4.186
21278SOL     OW65672   7.483   8.918  14.807
21278SOL    HW165673   7.503   8.942   0.024
21278SOL    HW265674   7.435   8.993  14.773
21279SOL     OW65675   9.591   6.397   7.227
21279SOL    HW165676   9.618   6.345   7.303
21279SOL    HW265677   9.564   6.481   7.263
21280SOL     OW65678  13.174  12.245   9.850
21280SOL    HW165679  13.112  12.236   9.779
21280SOL    HW265680  13.207  12.335   9.842
21281SOL     OW65681   4.534   0.254  12.230
21281SOL    HW165682   4.463   0.208  12.187
21281SOL    HW265683   4.568   0.314  12.162
21282SOL     OW65684   4.690   9.780   1.036
21282SOL    HW165685   4.636   9.828   1.099
21282SOL    HW265686   4.651   9.799   0.951
21283SOL     OW65687   5.998   2.193   6.435
21283SOL    HW165688   5.930   2.134   6.467
21283SOL    HW265689   5.978   2.204   6.342
21284SOL     OW65690   2.121   1.843   5.744
21284SOL    HW165691   2.138   1.854   5.650
21284SOL    HW265692   2.038   1.887   5.759
21285SOL     OW65693   1.192   5.089  11.480
21285SOL    HW165694   1.239   5.126  11.406
21285SOL    HW265695   1.122   5.037  11.441
21286SOL     OW65696   5.693   5.278   4.180
21286SOL    HW165697   5.715   5.193   4.220
21286SOL    HW265698   5.773   5.329   4.187
21287SOL     OW65699  13.527   8.678   4.122
21287SOL    HW165700  13.556   8.620   4.051
21287SOL    HW265701  13.493   8.619   4.189
21288SOL     OW65702   2.089  10.319  10.695
21288SOL    HW165703   2.013  10.274  10.732
21288SOL    HW265704   2.144  10.248  10.661
21289SOL     OW65705   3.347   1.924  12.471
21289SOL    HW165706   3.384   1.980  12.403
21289SOL    HW265707   3.315   1.847  12.423
21290SOL     OW65708  11.423   3.821   5.797
21290SOL    HW165709  11.506   3.818   5.845
21290SOL    HW265710  11.445   3.860   5.713
21291SOL     OW65711   5.779   1.661  12.007
21291SOL    HW165712   5.819   1.685  12.090
21291SOL    HW265713   5.827   1.714  11.942
21292SOL     OW65714   5.018   8.066   2.958
21292SOL    HW165715   5.051   7.979   2.979
21292SOL    HW265716   5.054   8.085   2.871
21293SOL     OW65717   5.321   8.958  12.915
21293SOL    HW165718   5.341   9.026  12.850
21293SOL    HW265719   5.354   8.877  12.876
21294SOL     OW65720  11.152   6.341   0.150
21294SOL    HW165721  11.099   6.318   0.226
21294SOL    HW265722  11.140   6.435   0.140
21295SOL     OW65723   4.412   0.261  10.704
21295SOL    HW165724   4.480   0.328  10.712
21295SOL    HW265725   4.400   0.250  10.610
21296SOL     OW65726  13.626   9.389   2.113
21296SOL    HW165727  13.605   9.365   2.023
21296SOL    HW265728  13.701   9.334   2.136
21297SOL     OW65729  14.517   5.415   5.731
21297SOL    HW165730  14.558   5.498   5.706
21297SOL    HW265731  14.499   5.371   5.648
21298SOL     OW65732   6.902   2.703   3.145
21298SOL    HW165733   6.842   2.682   3.073
21298SOL    HW265734   6.900   2.799   3.151
21299SOL     OW65735   3.765   3.314   1.073
21299SOL    HW165736   3.715   3.299   0.993
21299SOL    HW265737   3.720   3.386   1.117
21300SOL     OW65738  13.628   1.445  10.369
21300SOL    HW165739  13.577   1.384  10.422
21300SOL    HW265740  13.651   1.395  10.290
21301SOL     OW65741   5.374   9.754   0.664
21301SOL    HW165742   5.309   9.706   0.613
21301SOL    HW265743   5.366   9.844   0.635
21302SOL     OW65744   2.767   6.308   9.864
21302SOL    HW165745   2.696   6.308   9.928
21302SOL    HW265746   2.842   6.345   9.910
21303SOL     OW65747   3.651   2.045   5.133
21303SOL    HW165748   3.657   2.057   5.038
21303SOL    HW265749   3.693   1.961   5.149
21304SOL     OW65750   7.232   0.304   1.674
21304SOL    HW165751   7.183   0.228   1.645
21304SOL    HW265752   7.212   0.372   1.610
21305SOL     OW65753   2.645   7.781   4.738
21305SOL    HW165754   2.677   7.811   4.653
21305SOL    HW265755   2.680   7.692   4.747
21306SOL     OW65756  12.287  14.745  13.960
21306SOL    HW165757  12.309  14.716  13.871
21306SOL    HW265758  12.365  14.794  13.988
21307SOL     OW65759   2.377  14.724  13.867
21307SOL    HW165760   2.413  14.699  13.782
21307SOL    HW265761   2.321  14.799  13.848
21308SOL     OW65762  10.160  13.798  12.197
21308SOL    HW165763  10.142  13.747  12.118
21308SOL    HW265764  10.093  13.770  12.259
21309SOL     OW65765  10.659   9.471   9.346
21309SOL    HW165766  10.632   9.380   9.334
21309SOL    HW265767  10.669   9.482   9.440
21310SOL     OW65768   8.446  11.835  13.187
21310SOL    HW165769   8.491  11.751  13.187
21310SOL    HW265770   8.515  11.899  13.169
21311SOL     OW65771   1.787   2.737   5.301
21311SOL    HW165772   1.758   2.653   5.266
21311SOL    HW265773   1.739   2.746   5.383
21312SOL     OW65774   9.008   8.249   8.355
21312SOL    HW165775   8.939   8.253   8.420
21312SOL    HW265776   8.964   8.265   8.272
21313SOL     OW65777   7.309   4.018  13.408
21313SOL    HW165778   7.372   3.983  13.472
21313SOL    HW265779   7.330   3.971  13.327
21314SOL     OW65780   8.899  13.535   3.040
21314SOL    HW165781   8.852  13.601   3.092
21314SOL    HW265782   8.831  13.487   2.994
21315SOL     OW65783  14.265  11.005   3.970
21315SOL    HW165784  14.338  11.056   3.934
21315SOL    HW265785  14.203  11.071   4.001
21316SOL     OW65786  12.418   6.101   2.886
21316SOL    HW165787  12.478   6.147   2.944
21316SOL    HW265788  12.430   6.144   2.801
21317SOL     OW65789   4.088   4.302  14.564
21317SOL    HW165790   4.042   4.302  14.648
21317SOL    HW265791   4.047   4.231  14.515
21318SOL     OW65792   6.478   5.252  13.192
21318SOL    HW165793   6.498   5.343  13.213
21318SOL    HW265794   6.499   5.204  13.272
21319SOL     OW65795  10.643  13.880   8.382
21319SOL    HW165796  10.627  13.917   8.295
21319SOL    HW265797  10.573  13.917   8.437
21320SOL     OW65798  12.561   6.074   8.224
21320SOL    HW165799  12.578   6.086   8.317
21320SOL    HW265800  12.484   6.127   8.206
21321SOL     OW65801  13.006   3.136   2.153
21321SOL    HW165802  13.076   3.202   2.152
21321SOL    HW265803  12.931   3.182   2.190
21322SOL     OW65804  14.593  10.890  14.501
21322SOL    HW165805  14.592  10.963  14.440
21322SOL    HW265806  14.532  10.826  14.463
21323SOL     OW65807   6.278   2.127   9.762
21323SOL    HW165808   6.329   2.068   9.819
21323SOL    HW265809   6.241   2.192   9.821
21324SOL     OW65810  11.711  10.331   2.458
21324SOL    HW165811  11.713  10.401   2.523
21324SOL    HW265812  11.733  10.375   2.376
21325SOL     OW65813   5.203   2.835   0.407
21325SOL    HW165814   5.176   2.760   0.354
21325SOL    HW265815   5.132   2.845   0.471
21326SOL     OW65816   9.749  10.724  14.761
21326SOL    HW165817   9.658  10.698  14.777
21326SOL    HW265818   9.795  10.697  14.840
21327SOL     OW65819   4.044   4.004  11.484
21327SOL    HW165820   4.095   3.928  11.456
21327SOL    HW265821   3.960   3.967  11.512
21328SOL     OW65822   4.763   2.387   6.965
21328SOL    HW165823   4.759   2.306   6.914
21328SOL    HW265824   4.856   2.397   6.986
21329SOL     OW65825  10.110   2.382  11.254
21329SOL    HW165826  10.149   2.455  11.301
21329SOL    HW265827  10.016   2.388  11.273
21330SOL     OW65828   9.376  12.743  12.564
21330SOL    HW165829   9.450  12.722  12.620
21330SOL    HW265830   9.339  12.658  12.541
21331SOL     OW65831   5.134   9.218   9.103
21331SOL    HW165832   5.186   9.159   9.048
21331SOL    HW265833   5.091   9.277   9.042
21332SOL     OW65834   4.636  12.136  14.047
21332SOL    HW165835   4.698  12.204  14.022
21332SOL    HW265836   4.550  12.176  14.031
21333SOL     OW65837   8.865   0.981   4.728
21333SOL    HW165838   8.808   1.049   4.763
21333SOL    HW265839   8.893   1.015   4.643
21334SOL     OW65840   5.085   7.775   2.912
21334SOL    HW165841   5.032   7.777   2.832
21334SOL    HW265842   5.175   7.768   2.881
21335SOL     OW65843   9.707   3.337  12.471
21335SOL    HW165844   9.787   3.359  12.520
21335SOL    HW265845   9.706   3.241  12.470
21336SOL     OW65846  12.074  11.685  13.782
21336SOL    HW165847  12.169  11.691  13.782
21336SOL    HW265848  12.047  11.721  13.698
21337SOL     OW65849  12.216   1.176   9.745
21337SOL    HW165850  12.197   1.083   9.735
21337SOL    HW265851  12.309   1.179   9.768
21338SOL     OW65852  11.390   8.748   7.761
21338SOL    HW165853  11.297   8.752   7.741
21338SOL    HW265854  11.410   8.833   7.801
21339SOL     OW65855   6.648   1.550   5.000
21339SOL    HW165856   6.652   1.542   4.905
21339SOL    HW265857   6.583   1.485   5.027
21340SOL     OW65858   9.323   7.942   0.426
21340SOL    HW165859   9.337   8.034   0.448
21340SOL    HW265860   9.288   7.943   0.337
21341SOL     OW65861   1.043   4.913   9.512
21341SOL    HW165862   1.030   4.845   9.578
21341SOL    HW265863   1.100   4.977   9.555
21342SOL     OW65864  10.603   8.362   4.463
21342SOL    HW165865  10.628   8.437   4.409
21342SOL    HW265866  10.540   8.313   4.410
21343SOL     OW65867   9.219   0.121   8.488
21343SOL    HW165868   9.241   0.054   8.423
21343SOL    HW265869   9.147   0.170   8.448
21344SOL     OW65870  10.268   6.749   9.800
21344SOL    HW165871  10.209   6.701   9.742
21344SOL    HW265872  10.209   6.798   9.858
21345SOL     OW65873  10.626  12.546   8.218
21345SOL    HW165874  10.687  12.563   8.147
21345SOL    HW265875  10.626  12.451   8.227
21346SOL     OW65876   2.192   3.969   0.323
21346SOL    HW165877   2.160   4.057   0.341
21346SOL    HW265878   2.147   3.914   0.386
21347SOL     OW65879  14.332   9.277  10.390
21347SOL    HW165880  14.280   9.198  10.376
21347SOL    HW265881  14.421   9.252  10.365
21348SOL     OW65882   6.785   9.761   2.308
21348SOL    HW165883   6.701   9.735   2.269
21348SOL    HW265884   6.760   9.826   2.375
21349SOL     OW65885   0.223   9.306  12.259
21349SOL    HW165886   0.279   9.252  12.204
21349SOL    HW265887   0.268   9.309  12.344
21350SOL     OW65888   4.279  10.701   6.893
21350SOL    HW165889   4.375  10.700   6.892
21350SOL    HW265890   4.255  10.758   6.820
21351SOL     OW65891   5.185   4.293   8.001
21351SOL    HW165892   5.140   4.254   7.927
21351SOL    HW265893   5.247   4.354   7.961
21352SOL     OW65894   5.757   0.896   0.469
21352SOL    HW165895   5.682   0.896   0.529
21352SOL    HW265896   5.791   0.807   0.473
21353SOL     OW65897   1.482   6.572  12.126
21353SOL    HW165898   1.517   6.579  12.215
21353SOL    HW265899   1.550   6.610  12.070
21354SOL     OW65900  13.589   8.708   6.214
21354SOL    HW165901  13.641   8.699   6.134
21354SOL    HW265902  13.542   8.791   6.202
21355SOL     OW65903   3.534  13.572   6.910
21355SOL    HW165904   3.478  13.549   6.984
21355SOL    HW265905   3.550  13.489   6.865
21356SOL     OW65906   6.343   1.451  14.732
21356SOL    HW165907   6.287   1.514  14.778
21356SOL    HW265908   6.368   1.388  14.800
21357SOL     OW65909   1.274  10.734   5.698
21357SOL    HW165910   1.278  10.640   5.682
21357SOL    HW265911   1.270  10.773   5.611
21358SOL     OW65912  11.993   3.739  10.568
21358SOL    HW165913  12.056   3.795  10.522
21358SOL    HW265914  11.927   3.719  10.502
21359SOL     OW65915   7.291  11.139  13.599
21359SOL    HW165916   7.331  11.224  13.619
21359SOL    HW265917   7.341  11.076  13.652
21360SOL     OW65918  10.485  14.048   4.846
21360SOL    HW165919  10.427  13.998   4.903
21360SOL    HW265920  10.436  14.128   4.827
21361SOL     OW65921   5.199  13.096  10.242
21361SOL    HW165922   5.291  13.121  10.233
21361SOL    HW265923   5.192  13.015  10.192
21362SOL     OW65924   2.297   4.535   3.744
21362SOL    HW165925   2.240   4.596   3.697
21362SOL    HW265926   2.382   4.579   3.749
21363SOL     OW65927   3.470   4.280  13.616
21363SOL    HW165928   3.383   4.289  13.578
21363SOL    HW265929   3.479   4.355  13.675
21364SOL     OW65930   1.105  12.467  11.730
21364SOL    HW165931   1.037  12.502  11.787
21364SOL    HW265932   1.057  12.417  11.664
21365SOL     OW65933   6.150   1.151   6.870
21365SOL    HW165934   6.245   1.147   6.883
21365SOL    HW265935   6.114   1.101   6.943
21366SOL     OW65936   2.057  10.975   3.140
21366SOL    HW165937   2.046  11.070   3.137
21366SOL    HW265938   2.062  10.954   3.234
21367SOL     OW65939  12.893  14.259   0.570
21367SOL    HW165940  12.871  14.323   0.502
21367SOL    HW265941  12.980  14.228   0.546
21368SOL     OW65942   3.918   3.388  13.305
21368SOL    HW165943   3.846   3.446  13.331
21368SOL    HW265944   3.885   3.341  13.228
21369SOL     OW65945  11.787   6.146   3.797
21369SOL    HW165946  11.840   6.115   3.724
21369SOL    HW265947  11.697   6.143   3.764
21370SOL     OW65948  12.629  13.735  13.538
21370SOL    HW165949  12.634  13.819  13.492
21370SOL    HW265950  12.549  13.742  13.591
21371SOL     OW65951   5.590   4.628   9.739
21371SOL    HW165952   5.618   4.539   9.758
21371SOL    HW265953   5.509   4.618   9.689
21372SOL     OW65954  10.167   8.222   9.408
21372SOL    HW165955  10.092   8.277   9.383
21372SOL    HW265956  10.137   8.132   9.394
21373SOL     OW65957   1.372   8.828   4.723
21373SOL    HW165958   1.365   8.893   4.793
21373SOL    HW265959   1.310   8.859   4.656
21374SOL     OW65960  11.645   7.186   3.035
21374SOL    HW165961  11.698   7.144   2.967
21374SOL    HW265962  11.651   7.126   3.109
21375SOL     OW65963   7.893   8.628   1.768
21375SOL    HW165964   7.963   8.682   1.730
21375SOL    HW265965   7.906   8.634   1.862
21376SOL     OW65966   8.739  13.710  13.410
21376SOL    HW165967   8.765  13.623  13.379
21376SOL    HW265968   8.805  13.769  13.373
21377SOL     OW65969  14.073   6.386   1.854
21377SOL    HW165970  14.112   6.464   1.815
21377SOL    HW265971  13.992   6.373   1.805
21378SOL     OW65972   8.204  13.677   1.353
21378SOL    HW165973   8.154  13.716   1.282
21378SOL    HW265974   8.220  13.587   1.324
21379SOL     OW65975   5.096   4.566   5.659
21379SOL    HW165976   5.103   4.471   5.648
21379SOL    HW265977   5.037   4.577   5.734
21380SOL     OW65978   5.320   2.269   5.432
21380SOL    HW165979   5.256   2.335   5.458
21380SOL    HW265980   5.364   2.307   5.356
21381SOL     OW65981   9.227   3.810   2.026
21381SOL    HW165982   9.205   3.810   2.119
21381SOL    HW265983   9.319   3.836   2.023
21382SOL     OW65984  11.363   5.333   4.675
21382SOL    HW165985  11.270   5.316   4.692
21382SOL    HW265986  11.409   5.270   4.731
21383SOL     OW65987  13.307   6.113   3.221
21383SOL    HW165988  13.347   6.073   3.298
21383SOL    HW265989  13.360   6.080   3.148
21384SOL     OW65990   8.370   1.910   1.019
21384SOL    HW165991   8.329   1.992   0.994
21384SOL    HW265992   8.399   1.872   0.936
21385SOL     OW65993   3.755   0.899   3.562
21385SOL    HW165994   3.804   0.911   3.644
21385SOL    HW265995   3.663   0.902   3.588
21386SOL     OW65996  10.898   1.378   0.801
21386SOL    HW165997  10.921   1.292   0.837
21386SOL    HW265998  10.811   1.396   0.837
21387SOL     OW65999   5.273  12.226  12.119
21387SOL    HW166000   5.314  12.226  12.206
21387SOL    HW266001   5.346  12.238  12.058
21388SOL     OW66002   7.862   7.002   9.539
21388SOL    HW166003   7.792   7.016   9.602
21388SOL    HW266004   7.830   7.042   9.458
21389SOL     OW66005  10.527   8.123   8.890
21389SOL    HW166006  10.618   8.093   8.889
21389SOL    HW266007  10.517   8.171   8.808
21390SOL     OW66008  11.643   9.671   2.895
21390SOL    HW166009  11.680   9.592   2.934
21390SOL    HW266010  11.625   9.646   2.804
21391SOL     OW66011   5.425   1.962   6.819
21391SOL    HW166012   5.519   1.954   6.833
21391SOL    HW266013   5.416   1.975   6.724
21392SOL     OW66014   3.193  10.367  14.822
21392SOL    HW166015   3.114  10.348  14.872
21392SOL    HW266016   3.173  10.449  14.777
21393SOL     OW66017   0.363  13.979   6.148
21393SOL    HW166018   0.358  13.985   6.244
21393SOL    HW266019   0.314  13.900   6.126
21394SOL     OW66020   2.059  14.358   2.732
21394SOL    HW166021   2.138  14.343   2.679
21394SOL    HW266022   2.086  14.334   2.821
21395SOL     OW66023   1.174  13.433  11.174
21395SOL    HW166024   1.267  13.425  11.156
21395SOL    HW266025   1.158  13.527  11.180
21396SOL     OW66026   8.987  14.405  10.516
21396SOL    HW166027   8.972  14.458  10.594
21396SOL    HW266028   8.931  14.444  10.449
21397SOL     OW66029   0.094  11.243   5.417
21397SOL    HW166030   0.091  11.327   5.464
21397SOL    HW266031   0.076  11.266   5.326
21398SOL     OW66032   2.783   0.451   5.530
21398SOL    HW166033   2.698   0.430   5.491
21398SOL    HW266034   2.847   0.412   5.471
21399SOL     OW66035  10.007   7.590   1.957
21399SOL    HW166036   9.950   7.660   1.988
21399SOL    HW266037   9.955   7.510   1.966
21400SOL     OW66038  14.054  10.233  10.738
21400SOL    HW166039  14.070  10.255  10.646
21400SOL    HW266040  13.971  10.277  10.759
21401SOL     OW66041  10.952   8.033  14.831
21401SOL    HW166042  10.994   8.112  14.796
21401SOL    HW266043  10.860   8.042  14.807
21402SOL     OW66044  13.100   7.144   6.622
21402SOL    HW166045  13.081   7.131   6.715
21402SOL    HW266046  13.122   7.057   6.589
21403SOL     OW66047  13.564   6.112   4.895
21403SOL    HW166048  13.484   6.155   4.926
21403SOL    HW266049  13.635   6.156   4.943
21404SOL     OW66050   9.795   3.955   9.280
21404SOL    HW166051   9.830   3.878   9.234
21404SOL    HW266052   9.841   4.029   9.241
21405SOL     OW66053   5.777  11.396   0.941
21405SOL    HW166054   5.809  11.433   1.023
21405SOL    HW266055   5.714  11.460   0.908
21406SOL     OW66056   1.028  11.829  13.939
21406SOL    HW166057   1.035  11.734  13.923
21406SOL    HW266058   0.967  11.836  14.013
21407SOL     OW66059  10.112   8.588  13.116
21407SOL    HW166060  10.079   8.567  13.028
21407SOL    HW266061  10.182   8.525  13.131
21408SOL     OW66062   0.296  12.087  12.235
21408SOL    HW166063   0.287  12.082  12.139
21408SOL    HW266064   0.260  12.173  12.258
21409SOL     OW66065  10.110   2.581   6.192
21409SOL    HW166066  10.151   2.510   6.242
21409SOL    HW266067  10.166   2.657   6.208
21410SOL     OW66068  11.828   1.591  14.097
21410SOL    HW166069  11.908   1.643  14.084
21410SOL    HW266070  11.857   1.500  14.092
21411SOL     OW66071  13.262  10.258   5.730
21411SOL    HW166072  13.276  10.225   5.818
21411SOL    HW266073  13.177  10.302   5.734
21412SOL     OW66074   3.603   5.907  10.060
21412SOL    HW166075   3.601   5.816  10.089
21412SOL    HW266076   3.612   5.958  10.141
21413SOL     OW66077   1.995  12.505   8.082
21413SOL    HW166078   1.953  12.432   8.037
21413SOL    HW266079   2.088  12.496   8.062
21414SOL     OW66080  12.923  12.983   1.381
21414SOL    HW166081  12.894  13.021   1.298
21414SOL    HW266082  13.012  12.952   1.363
21415SOL     OW66083  10.114  10.824  14.157
21415SOL    HW166084  10.191  10.827  14.213
21415SOL    HW266085  10.059  10.755  14.196
21416SOL     OW66086  10.920   4.677  12.164
21416SOL    HW166087  10.928   4.766  12.130
21416SOL    HW266088  10.925   4.621  12.087
21417SOL     OW66089   6.359   9.337  10.227
21417SOL    HW166090   6.424   9.407  10.235
21417SOL    HW266091   6.284   9.379  10.184
21418SOL     OW66092   4.697  11.541   6.796
21418SOL    HW166093   4.695  11.616   6.855
21418SOL    HW266094   4.746  11.572   6.720
21419SOL     OW66095   6.469  14.162  11.109
21419SOL    HW166096   6.393  14.202  11.068
21419SOL    HW266097   6.434  14.086  11.157
21420SOL     OW66098   8.462   0.741  10.367
21420SOL    HW166099   8.514   0.700  10.436
21420SOL    HW266100   8.372   0.715  10.386
21421SOL     OW66101   3.237  12.785   9.125
21421SOL    HW166102   3.172  12.805   9.193
21421SOL    HW266103   3.215  12.696   9.096
21422SOL     OW66104   3.610  11.840  11.919
21422SOL    HW166105   3.526  11.867  11.958
21422SOL    HW266106   3.594  11.751  11.888
21423SOL     OW66107   7.999   6.269   9.658
21423SOL    HW166108   7.954   6.264   9.742
21423SOL    HW266109   8.027   6.179   9.641
21424SOL     OW66110   9.524   2.604  10.584
21424SOL    HW166111   9.556   2.639  10.501
21424SOL    HW266112   9.513   2.680  10.640
21425SOL     OW66113   9.429  13.240   5.220
21425SOL    HW166114   9.504  13.214   5.274
21425SOL    HW266115   9.384  13.307   5.272
21426SOL     OW66116  13.800   3.542   6.402
21426SOL    HW166117  13.858   3.504   6.336
21426SOL    HW266118  13.857   3.561   6.477
21427SOL     OW66119   3.393   4.714   7.257
21427SOL    HW166120   3.478   4.700   7.300
21427SOL    HW266121   3.365   4.800   7.290
21428SOL     OW66122   4.891   9.780   2.509
21428SOL    HW166123   4.942   9.790   2.589
21428SOL    HW266124   4.880   9.869   2.475
21429SOL     OW66125   8.499  12.227   9.948
21429SOL    HW166126   8.506  12.167  10.023
21429SOL    HW266127   8.507  12.314   9.987
21430SOL     OW66128   0.963  12.090  13.504
21430SOL    HW166129   0.890  12.151  13.513
21430SOL    HW266130   0.922  12.006  13.485
21431SOL     OW66131   5.076   5.692   4.597
21431SOL    HW166132   5.052   5.699   4.690
21431SOL    HW266133   5.135   5.617   4.594
21432SOL     OW66134  11.586   0.559   0.327
21432SOL    HW166135  11.506   0.578   0.376
21432SOL    HW266136  11.588   0.464   0.320
21433SOL     OW66137   3.442   7.579   5.880
21433SOL    HW166138   3.405   7.600   5.794
21433SOL    HW266139   3.369   7.539   5.927
21434SOL     OW66140  10.957   8.390  14.228
21434SOL    HW166141  10.962   8.341  14.310
21434SOL    HW266142  10.972   8.325  14.159
21435SOL     OW66143   6.025   4.701  13.944
21435SOL    HW166144   5.959   4.633  13.950
21435SOL    HW266145   5.998   4.754  13.869
21436SOL     OW66146   7.744   5.097   4.427
21436SOL    HW166147   7.698   5.131   4.504
21436SOL    HW266148   7.829   5.139   4.429
21437SOL     OW66149   5.123   1.867   9.041
21437SOL    HW166150   5.092   1.905   9.123
21437SOL    HW266151   5.217   1.886   9.040
21438SOL     OW66152   5.268  13.604   5.882
21438SOL    HW166153   5.284  13.533   5.944
21438SOL    HW266154   5.325  13.675   5.911
21439SOL     OW66155   6.346   0.509   6.024
21439SOL    HW166156   6.346   0.532   5.931
21439SOL    HW266157   6.260   0.469   6.038
21440SOL     OW66158  14.252  12.826  12.152
21440SOL    HW166159  14.333  12.778  12.133
21440SOL    HW266160  14.208  12.773  12.218
21441SOL     OW66161   7.065   5.527   6.408
21441SOL    HW166162   7.127   5.557   6.341
21441SOL    HW266163   7.117   5.472   6.466
21442SOL     OW66164   9.941  10.569   5.619
21442SOL    HW166165  10.022  10.620   5.622
21442SOL    HW266166   9.873  10.635   5.603
21443SOL     OW66167   4.109   9.835   9.224
21443SOL    HW166168   4.123   9.743   9.247
21443SOL    HW266169   4.023   9.836   9.181
21444SOL     OW66170   3.420  14.312   9.354
21444SOL    HW166171   3.386  14.315   9.265
21444SOL    HW266172   3.372  14.381   9.400
21445SOL     OW66173   7.256   4.457   4.527
21445SOL    HW166174   7.181   4.482   4.472
21445SOL    HW266175   7.255   4.520   4.599
21446SOL     OW66176   6.757  13.895   4.951
21446SOL    HW166177   6.775  13.820   4.895
21446SOL    HW266178   6.843  13.926   4.979
21447SOL     OW66179  12.579  11.996   0.596
21447SOL    HW166180  12.633  11.996   0.517
21447SOL    HW266181  12.593  11.910   0.634
21448SOL     OW66182  13.982  10.954   6.731
21448SOL    HW166183  14.000  10.958   6.637
21448SOL    HW266184  14.018  10.870   6.759
21449SOL     OW66185   1.293  12.227   8.303
21449SOL    HW166186   1.210  12.264   8.275
21449SOL    HW266187   1.287  12.223   8.399
21450SOL     OW66188   5.543  10.970  12.482
21450SOL    HW166189   5.549  11.008  12.570
21450SOL    HW266190   5.474  11.020  12.439
21451SOL     OW66191   1.111   9.163  13.586
21451SOL    HW166192   1.108   9.216  13.665
21451SOL    HW266193   1.199   9.123  13.587
21452SOL     OW66194   9.229   6.335   3.050
21452SOL    HW166195   9.263   6.249   3.077
21452SOL    HW266196   9.137   6.320   3.032
21453SOL     OW66197  11.084   3.381   8.667
21453SOL    HW166198  11.044   3.452   8.616
21453SOL    HW266199  11.013   3.319   8.681
21454SOL     OW66200   9.947   4.257  13.217
21454SOL    HW166201   9.879   4.307  13.263
21454SOL    HW266202  10.029   4.300  13.241
21455SOL     OW66203  12.198  13.810   8.574
21455SOL    HW166204  12.108  13.787   8.552
21455SOL    HW266205  12.236  13.838   8.491
21456SOL     OW66206   0.234  10.464   5.941
21456SOL    HW166207   0.274  10.525   5.878
21456SOL    HW266208   0.155  10.509   5.971
21457SOL     OW66209   1.528   9.215   8.285
21457SOL    HW166210   1.533   9.174   8.371
21457SOL    HW266211   1.438   9.249   8.279
21458SOL     OW66212   3.747   3.018   8.816
21458SOL    HW166213   3.778   2.973   8.895
21458SOL    HW266214   3.731   3.108   8.845
21459SOL     OW66215   4.340   6.742   5.830
21459SOL    HW166216   4.334   6.830   5.867
21459SOL    HW266217   4.434   6.726   5.822
21460SOL     OW66218   4.542  13.536   7.798
21460SOL    HW166219   4.621  13.535   7.852
21460SOL    HW266220   4.480  13.481   7.846
21461SOL     OW66221   7.495   5.547   2.392
21461SOL    HW166222   7.440   5.598   2.333
21461SOL    HW266223   7.583   5.584   2.380
21462SOL     OW66224   3.742   0.850   9.830
21462SOL    HW166225   3.654   0.821   9.856
21462SOL    HW266226   3.800   0.813   9.896
21463SOL     OW66227   0.520   7.164   8.601
21463SOL    HW166228   0.557   7.107   8.668
21463SOL    HW266229   0.569   7.143   8.522
21464SOL     OW66230   2.538  14.823   7.975
21464SOL    HW166231   2.499  14.834   7.888
21464SOL    HW266232   2.616  14.771   7.960
21465SOL     OW66233   9.045   7.511  14.741
21465SOL    HW166234   9.068   7.554  14.659
21465SOL    HW266235   9.123   7.520  14.795
21466SOL     OW66236   0.302   3.899   1.681
21466SOL    HW166237   0.263   3.843   1.748
21466SOL    HW266238   0.255   3.875   1.600
21467SOL     OW66239   1.210  10.966   0.631
21467SOL    HW166240   1.221  10.967   0.536
21467SOL    HW266241   1.133  10.911   0.645
21468SOL     OW66242   7.856   3.671   9.004
21468SOL    HW166243   7.949   3.650   8.991
21468SOL    HW266244   7.847   3.758   8.964
21469SOL     OW66245   9.229   7.139   6.903
21469SOL    HW166246   9.279   7.070   6.946
21469SOL    HW266247   9.201   7.101   6.819
21470SOL     OW66248   5.460   4.329   3.800
21470SOL    HW166249   5.426   4.388   3.732
21470SOL    HW266250   5.383   4.282   3.831
21471SOL     OW66251  14.017  11.917  10.961
21471SOL    HW166252  14.104  11.888  10.933
21471SOL    HW266253  14.022  11.920  11.056
21472SOL     OW66254   1.004   6.780  14.457
21472SOL    HW166255   0.994   6.843  14.385
21472SOL    HW266256   1.078   6.726  14.430
21473SOL     OW66257  10.520   8.906   2.334
21473SOL    HW166258  10.593   8.968   2.339
21473SOL    HW266259  10.442   8.962   2.329
21474SOL     OW66260   1.662  11.176  14.626
21474SOL    HW166261   1.594  11.119  14.663
21474SOL    HW266262   1.615  11.255  14.598
21475SOL     OW66263   7.350  11.620   7.195
21475SOL    HW166264   7.340  11.715   7.206
21475SOL    HW266265   7.274  11.583   7.241
21476SOL     OW66266  11.279  11.567   5.645
21476SOL    HW166267  11.322  11.651   5.630
21476SOL    HW266268  11.228  11.552   5.566
21477SOL     OW66269   1.853  14.626   0.463
21477SOL    HW166270   1.769  14.639   0.419
21477SOL    HW266271   1.831  14.619   0.556
21478SOL     OW66272   6.436   8.658   5.452
21478SOL    HW166273   6.443   8.623   5.363
21478SOL    HW266274   6.456   8.751   5.444
21479SOL     OW66275   4.643   5.299   3.225
21479SOL    HW166276   4.602   5.360   3.164
21479SOL    HW266277   4.581   5.226   3.232
21480SOL     OW66278   4.329   0.640   6.830
21480SOL    HW166279   4.253   0.652   6.887
21480SOL    HW266280   4.404   0.636   6.890
21481SOL     OW66281  14.334   6.788   7.579
21481SOL    HW166282  14.375   6.757   7.659
21481SOL    HW266283  14.329   6.711   7.523
21482SOL     OW66284   4.776  11.957   7.383
21482SOL    HW166285   4.707  11.960   7.317
21482SOL    HW266286   4.838  11.891   7.352
21483SOL     OW66287  11.143  12.236  12.676
21483SOL    HW166288  11.090  12.237  12.597
21483SOL    HW266289  11.159  12.143  12.694
21484SOL     OW66290  13.516  14.133   6.820
21484SOL    HW166291  13.568  14.070   6.870
21484SOL    HW266292  13.437  14.146   6.873
21485SOL     OW66293   8.495   9.731  14.571
21485SOL    HW166294   8.569   9.792  14.576
21485SOL    HW266295   8.424   9.783  14.535
21486SOL     OW66296   3.363   7.180   5.945
21486SOL    HW166297   3.351   7.158   6.037
21486SOL    HW266298   3.428   7.118   5.914
21487SOL     OW66299   4.574  11.487   7.902
21487SOL    HW166300   4.551  11.579   7.914
21487SOL    HW266301   4.545  11.445   7.983
21488SOL     OW66302   8.244  14.630  10.275
21488SOL    HW166303   8.309  14.577  10.229
21488SOL    HW266304   8.286  14.715  10.288
21489SOL     OW66305  13.634   1.917  12.946
21489SOL    HW166306  13.614   1.933  13.038
21489SOL    HW266307  13.644   1.821  12.940
21490SOL     OW66308   5.080   0.935   7.678
21490SOL    HW166309   5.091   0.950   7.584
21490SOL    HW266310   5.145   0.869   7.700
21491SOL     OW66311  12.377  14.096   0.573
21491SOL    HW166312  12.297  14.146   0.555
21491SOL    HW266313  12.448  14.155   0.548
21492SOL     OW66314   4.279  14.204  10.891
21492SOL    HW166315   4.312  14.170  10.974
21492SOL    HW266316   4.256  14.126  10.840
21493SOL     OW66317   5.968  11.120   6.310
21493SOL    HW166318   6.018  11.039   6.314
21493SOL    HW266319   5.955  11.145   6.402
21494SOL     OW66320  10.627   5.397  14.874
21494SOL    HW166321  10.539   5.434  14.869
21494SOL    HW266322  10.684   5.473   0.017
21495SOL     OW66323   3.914   6.538   9.639
21495SOL    HW166324   3.895   6.531   9.546
21495SOL    HW266325   3.973   6.613   9.646
21496SOL     OW66326  12.329   7.664  14.038
21496SOL    HW166327  12.265   7.725  14.075
21496SOL    HW266328  12.362   7.616  14.114
21497SOL     OW66329  11.989   1.301   3.149
21497SOL    HW166330  12.083   1.315   3.136
21497SOL    HW266331  11.972   1.215   3.112
21498SOL     OW66332  13.795   9.514   0.954
21498SOL    HW166333  13.740   9.550   0.884
21498SOL    HW266334  13.833   9.590   0.998
21499SOL     OW66335   6.513  12.218  12.631
21499SOL    HW166336   6.535  12.229  12.724
21499SOL    HW266337   6.594  12.238  12.585
21500SOL     OW66338  10.728  12.619   3.721
21500SOL    HW166339  10.740  12.544   3.779
21500SOL    HW266340  10.808  12.621   3.669
21501SOL     OW66341  10.071   2.468   6.470
21501SOL    HW166342  10.093   2.537   6.532
21501SOL    HW266343   9.998   2.504   6.419
21502SOL     OW66344   2.279   6.840  10.322
21502SOL    HW166345   2.249   6.927  10.296
21502SOL    HW266346   2.314   6.852  10.410
21503SOL     OW66347   1.502   7.213   1.052
21503SOL    HW166348   1.499   7.307   1.038
21503SOL    HW266349   1.569   7.201   1.120
21504SOL     OW66350  12.214  13.059   2.787
21504SOL    HW166351  12.310  13.062   2.790
21504SOL    HW266352  12.193  13.061   2.693
21505SOL     OW66353  14.738   7.213   7.965
21505SOL    HW166354  14.695   7.296   7.943
21505SOL    HW266355  14.828   7.238   7.984
21506SOL     OW66356   2.618   2.287   1.657
21506SOL    HW166357   2.642   2.194   1.652
21506SOL    HW266358   2.615   2.316   1.565
21507SOL     OW66359   9.432   2.737  12.887
21507SOL    HW166360   9.390   2.734  12.973
21507SOL    HW266361   9.404   2.820  12.849
21508SOL     OW66362   5.357  11.670  11.882
21508SOL    HW166363   5.287  11.714  11.832
21508SOL    HW266364   5.406  11.742  11.922
21509SOL     OW66365   7.654  14.658   9.785
21509SOL    HW166366   7.611  14.726   9.734
21509SOL    HW266367   7.582  14.606   9.821
21510SOL     OW66368  13.482   1.668  14.692
21510SOL    HW166369  13.576   1.650  14.689
21510SOL    HW266370  13.458   1.660  14.784
21511SOL     OW66371   8.192   6.357  10.142
21511SOL    HW166372   8.118   6.395  10.189
21511SOL    HW266373   8.175   6.375  10.050
21512SOL     OW66374  11.287  13.970   8.071
21512SOL    HW166375  11.261  14.054   8.035
21512SOL    HW266376  11.206  13.933   8.107
21513SOL     OW66377   1.480   9.518  10.326
21513SOL    HW166378   1.449   9.505  10.237
21513SOL    HW266379   1.531   9.439  10.346
21514SOL     OW66380   2.044   2.150  13.079
21514SOL    HW166381   2.061   2.230  13.129
21514SOL    HW266382   2.121   2.096  13.093
21515SOL     OW66383   2.772   3.411  14.523
21515SOL    HW166384   2.860   3.448  14.532
21515SOL    HW266385   2.723   3.446  14.598
21516SOL     OW66386   5.713   5.711   1.900
21516SOL    HW166387   5.802   5.715   1.864
21516SOL    HW266388   5.693   5.617   1.904
21517SOL     OW66389   3.111   9.318   9.818
21517SOL    HW166390   3.122   9.296   9.911
21517SOL    HW266391   3.029   9.366   9.814
21518SOL     OW66392  12.048  13.103  14.328
21518SOL    HW166393  12.115  13.169  14.344
21518SOL    HW266394  12.097  13.023  14.311
21519SOL     OW66395   6.900  14.215  13.845
21519SOL    HW166396   6.878  14.221  13.752
21519SOL    HW266397   6.973  14.276  13.856
21520SOL     OW66398   6.352   4.700  13.276
21520SOL    HW166399   6.302   4.631  13.235
21520SOL    HW266400   6.436   4.700  13.230
21521SOL     OW66401  13.861  12.827   8.308
21521SOL    HW166402  13.946  12.866   8.290
21521SOL    HW266403  13.878  12.733   8.309
21522SOL     OW66404   2.673   8.912   5.274
21522SOL    HW166405   2.689   8.838   5.215
21522SOL    HW266406   2.738   8.901   5.344
21523SOL     OW66407   7.027  13.884   6.015
21523SOL    HW166408   7.079  13.948   6.062
21523SOL    HW266409   7.089  13.844   5.953
21524SOL     OW66410  14.121  13.216   8.337
21524SOL    HW166411  14.047  13.235   8.279
21524SOL    HW266412  14.094  13.249   8.422
21525SOL     OW66413   8.283   8.444   1.475
21525SOL    HW166414   8.238   8.447   1.559
21525SOL    HW266415   8.370   8.481   1.493
21526SOL     OW66416   7.858   4.571   3.216
21526SOL    HW166417   7.907   4.566   3.298
21526SOL    HW266418   7.775   4.612   3.239
21527SOL     OW66419   4.598   8.141   8.466
21527SOL    HW166420   4.602   8.236   8.483
21527SOL    HW266421   4.584   8.134   8.372
21528SOL     OW66422   7.830   2.342   9.826
21528SOL    HW166423   7.853   2.325   9.918
21528SOL    HW266424   7.848   2.259   9.781
21529SOL     OW66425   2.544   4.314   3.827
21529SOL    HW166426   2.463   4.297   3.780
21529SOL    HW266427   2.593   4.231   3.822
21530SOL     OW66428   1.357   1.878   6.328
21530SOL    HW166429   1.393   1.837   6.406
21530SOL    HW266430   1.405   1.961   6.320
21531SOL     OW66431   6.094   4.266   7.789
21531SOL    HW166432   6.044   4.185   7.800
21531SOL    HW266433   6.186   4.238   7.791
21532SOL     OW66434   1.313   2.167  14.706
21532SOL    HW166435   1.385   2.208  14.659
21532SOL    HW266436   1.235   2.187  14.653
21533SOL     OW66437   7.359   4.313   7.175
21533SOL    HW166438   7.295   4.380   7.197
21533SOL    HW266439   7.435   4.361   7.142
21534SOL     OW66440   2.147  10.649   8.441
21534SOL    HW166441   2.111  10.570   8.482
21534SOL    HW266442   2.071  10.695   8.406
21535SOL     OW66443  10.822  11.231   1.696
21535SOL    HW166444  10.742  11.213   1.746
21535SOL    HW266445  10.881  11.271   1.759
21536SOL     OW66446   0.526   1.829  12.936
21536SOL    HW166447   0.451   1.883  12.960
21536SOL    HW266448   0.570   1.878  12.867
21537SOL     OW66449   1.408  13.319  13.943
21537SOL    HW166450   1.396  13.414  13.951
21537SOL    HW266451   1.365  13.296  13.861
21538SOL     OW66452   6.980   7.990   9.531
21538SOL    HW166453   6.973   7.974   9.437
21538SOL    HW266454   6.946   8.079   9.543
21539SOL     OW66455  12.034   9.153   9.453
21539SOL    HW166456  12.002   9.071   9.415
21539SOL    HW266457  11.968   9.176   9.518
21540SOL     OW66458  13.451  13.116   3.771
21540SOL    HW166459  13.387  13.187   3.765
21540SOL    HW266460  13.523  13.144   3.715
21541SOL     OW66461   0.903   2.380   2.674
21541SOL    HW166462   0.875   2.457   2.624
21541SOL    HW266463   0.863   2.392   2.760
21542SOL     OW66464   3.624  12.759  12.316
21542SOL    HW166465   3.710  12.786  12.350
21542SOL    HW266466   3.640  12.674  12.275
21543SOL     OW66467   4.577  10.059  14.756
21543SOL    HW166468   4.667  10.031  14.769
21543SOL    HW266469   4.583  10.154  14.740
21544SOL     OW66470   2.649  13.747   9.666
21544SOL    HW166471   2.635  13.654   9.645
21544SOL    HW266472   2.735  13.767   9.629
21545SOL     OW66473   0.424   9.550   2.597
21545SOL    HW166474   0.390   9.605   2.526
21545SOL    HW266475   0.402   9.598   2.677
21546SOL     OW66476   3.879   7.339   7.725
21546SOL    HW166477   3.871   7.251   7.760
21546SOL    HW266478   3.815   7.343   7.654
21547SOL     OW66479  14.825  10.902   8.601
21547SOL    HW166480   0.009  10.894   8.526
21547SOL    HW266481  14.738  10.917   8.564
21548SOL     OW66482  14.490   5.517   3.908
21548SOL    HW166483  14.431   5.586   3.937
21548SOL    HW266484  14.574   5.538   3.949
21549SOL     OW66485   7.520  14.626  12.499
21549SOL    HW166486   7.591  14.607  12.560
21549SOL    HW266487   7.457  14.555  12.513
21550SOL     OW66488  11.622  10.696   8.424
21550SOL    HW166489  11.629  10.776   8.476
21550SOL    HW266490  11.701  10.697   8.369
21551SOL     OW66491   8.262  12.185   9.751
21551SOL    HW166492   8.316  12.204   9.674
21551SOL    HW266493   8.316  12.214   9.825
21552SOL     OW66494  11.375   4.183   7.613
21552SOL    HW166495  11.390   4.089   7.625
21552SOL    HW266496  11.358   4.215   7.702
21553SOL     OW66497   6.591   2.234   8.590
21553SOL    HW166498   6.666   2.182   8.563
21553SOL    HW266499   6.550   2.262   8.508
21554SOL     OW66500  13.751  14.799   2.739
21554SOL    HW166501  13.741  14.722   2.795
21554SOL    HW266502  13.724  14.872   2.794
21555SOL     OW66503  12.882   7.857   2.695
21555SOL    HW166504  12.960   7.912   2.702
21555SOL    HW266505  12.865   7.849   2.602
21556SOL     OW66506  12.172  10.739  12.106
21556SOL    HW166507  12.162  10.644  12.118
21556SOL    HW266508  12.086  10.768  12.077
21557SOL     OW66509  10.942  13.374   7.883
21557SOL    HW166510  10.904  13.340   7.964
21557SOL    HW266511  10.883  13.444   7.856
21558SOL     OW66512  14.157   5.857  10.899
21558SOL    HW166513  14.189   5.769  10.877
21558SOL    HW266514  14.162   5.905  10.817
21559SOL     OW66515   3.826   7.045  11.727
21559SOL    HW166516   3.863   6.958  11.712
21559SOL    HW266517   3.903   7.102  11.736
21560SOL     OW66518   2.615   6.665  10.984
21560SOL    HW166519   2.695   6.675  10.933
21560SOL    HW266520   2.644   6.646  11.073
21561SOL     OW66521  13.043  12.559   4.558
21561SOL    HW166522  12.981  12.542   4.628
21561SOL    HW266523  13.002  12.627   4.505
21562SOL     OW66524   4.151  10.127  13.785
21562SOL    HW166525   4.126  10.064  13.852
21562SOL    HW266526   4.109  10.209  13.812
21563SOL     OW66527   2.328   9.925   1.519
21563SOL    HW166528   2.351  10.016   1.536
21563SOL    HW266529   2.311   9.922   1.425
21564SOL     OW66530   8.827  13.255   5.821
21564SOL    HW166531   8.746  13.284   5.780
21564SOL    HW266532   8.890  13.250   5.749
21565SOL     OW66533   8.701   7.813   9.094
21565SOL    HW166534   8.774   7.758   9.064
21565SOL    HW266535   8.682   7.780   9.182
21566SOL     OW66536   7.530   0.500   1.994
21566SOL    HW166537   7.547   0.459   2.079
21566SOL    HW266538   7.435   0.506   1.989
21567SOL     OW66539   0.781   3.618   6.098
21567SOL    HW166540   0.708   3.680   6.096
21567SOL    HW266541   0.765   3.560   6.024
21568SOL     OW66542   7.976  13.534   6.237
21568SOL    HW166543   7.899  13.491   6.274
21568SOL    HW266544   7.963  13.528   6.142
21569SOL     OW66545   1.789   7.059   2.135
21569SOL    HW166546   1.737   7.000   2.190
21569SOL    HW266547   1.726   7.124   2.104
21570SOL     OW66548   3.282  14.299   5.005
21570SOL    HW166549   3.222  14.370   4.984
21570SOL    HW266550   3.369  14.337   4.991
21571SOL     OW66551   5.259   6.141   7.124
21571SOL    HW166552   5.330   6.158   7.063
21571SOL    HW266553   5.179   6.165   7.077
21572SOL     OW66554   1.348   7.845   2.005
21572SOL    HW166555   1.290   7.770   2.019
21572SOL    HW266556   1.412   7.814   1.941
21573SOL     OW66557   2.679   6.799  14.359
21573SOL    HW166558   2.690   6.894  14.358
21573SOL    HW266559   2.615   6.782  14.290
21574SOL     OW66560  10.880   3.588   3.288
21574SOL    HW166561  10.897   3.620   3.200
21574SOL    HW266562  10.801   3.534   3.279
21575SOL     OW66563   6.086   8.856  13.569
21575SOL    HW166564   6.029   8.928  13.594
21575SOL    HW266565   6.167   8.898  13.540
21576SOL     OW66566   8.657  14.253   0.156
21576SOL    HW166567   8.748  14.253   0.186
21576SOL    HW266568   8.608  14.213   0.227
21577SOL     OW66569   7.402   8.143  12.996
21577SOL    HW166570   7.350   8.205  12.946
21577SOL    HW266571   7.492   8.155  12.964
21578SOL     OW66572   6.319  10.180   8.537
21578SOL    HW166573   6.368  10.158   8.617
21578SOL    HW266574   6.333  10.105   8.480
21579SOL     OW66575   6.987  13.692   1.248
21579SOL    HW166576   6.908  13.638   1.253
21579SOL    HW266577   6.970  13.764   1.308
21580SOL     OW66578   4.414   2.550  14.077
21580SOL    HW166579   4.377   2.626  14.121
21580SOL    HW266580   4.434   2.580  13.989
21581SOL     OW66581   1.552   2.455   2.048
21581SOL    HW166582   1.527   2.539   2.086
21581SOL    HW266583   1.574   2.474   1.957
21582SOL     OW66584   9.809   7.331  14.754
21582SOL    HW166585   9.734   7.277  14.728
21582SOL    HW266586   9.861   7.274  14.811
21583SOL     OW66587   0.091   1.513  10.405
21583SOL    HW166588   0.040   1.562  10.341
21583SOL    HW266589   0.177   1.503  10.366
21584SOL     OW66590  10.143  10.859  12.979
21584SOL    HW166591  10.109  10.914  13.049
21584SOL    HW266592  10.141  10.915  12.901
21585SOL     OW66593   5.231   4.521   2.890
21585SOL    HW166594   5.154   4.578   2.882
21585SOL    HW266595   5.232   4.469   2.810
21586SOL     OW66596   2.093   7.389   9.674
21586SOL    HW166597   2.075   7.403   9.581
21586SOL    HW266598   2.176   7.434   9.689
21587SOL     OW66599  14.855   7.565   3.542
21587SOL    HW166600   0.053   7.512   3.575
21587SOL    HW266601  14.866   7.650   3.586
21588SOL     OW66602   2.893  11.395  12.604
21588SOL    HW166603   2.840  11.407  12.525
21588SOL    HW266604   2.948  11.473  12.608
21589SOL     OW66605   5.339   7.917   5.470
21589SOL    HW166606   5.264   7.863   5.447
21589SOL    HW266607   5.374   7.878   5.550
21590SOL     OW66608   1.275   0.126   5.039
21590SOL    HW166609   1.310   0.053   4.988
21590SOL    HW266610   1.348   0.152   5.095
21591SOL     OW66611   5.500  14.767  13.785
21591SOL    HW166612   5.505  14.833  13.855
21591SOL    HW266613   5.419  14.719  13.804
21592SOL     OW66614  11.876   6.863   1.060
21592SOL    HW166615  11.829   6.867   0.976
21592SOL    HW266616  11.961   6.902   1.041
21593SOL     OW66617   6.506   0.717   3.283
21593SOL    HW166618   6.549   0.802   3.280
21593SOL    HW266619   6.577   0.653   3.286
21594SOL     OW66620   2.022  11.959  11.331
21594SOL    HW166621   2.105  11.917  11.349
21594SOL    HW266622   1.973  11.954  11.414
21595SOL     OW66623  10.333   6.239   2.476
21595SOL    HW166624  10.316   6.232   2.382
21595SOL    HW266625  10.272   6.305   2.507
21596SOL     OW66626   8.910  12.078  10.509
21596SOL    HW166627   8.969  12.103  10.438
21596SOL    HW266628   8.941  11.991  10.536
21597SOL     OW66629   0.308  13.802   5.529
21597SOL    HW166630   0.259  13.883   5.545
21597SOL    HW266631   0.358  13.820   5.449
21598SOL     OW66632   3.666  11.295  14.201
21598SOL    HW166633   3.657  11.204  14.230
21598SOL    HW266634   3.757  11.318  14.224
21599SOL     OW66635  12.144   1.178  10.550
21599SOL    HW166636  12.066   1.211  10.596
21599SOL    HW266637  12.188   1.257  10.519
21600SOL     OW66638   9.610   7.832  14.642
21600SOL    HW166639   9.581   7.742  14.656
21600SOL    HW266640   9.687   7.841  14.698
21601SOL     OW66641   1.578   6.713  11.551
21601SOL    HW166642   1.644   6.690  11.616
21601SOL    HW266643   1.562   6.806  11.566
21602SOL     OW66644  12.777   8.274  12.771
21602SOL    HW166645  12.785   8.338  12.701
21602SOL    HW266646  12.840   8.206  12.749
21603SOL     OW66647  10.115   4.048   9.790
21603SOL    HW166648  10.086   4.139   9.777
21603SOL    HW266649  10.210   4.052   9.785
21604SOL     OW66650   4.548  11.962  12.857
21604SOL    HW166651   4.458  11.979  12.831
21604SOL    HW266652   4.599  11.973  12.776
21605SOL     OW66653   5.843  14.545   7.415
21605SOL    HW166654   5.910  14.536   7.483
21605SOL    HW266655   5.867  14.624   7.367
21606SOL     OW66656   3.560  14.697  10.260
21606SOL    HW166657   3.502  14.671  10.188
21606SOL    HW266658   3.517  14.662  10.339
21607SOL     OW66659   2.834   5.233  14.767
21607SOL    HW166660   2.830   5.141  14.739
21607SOL    HW266661   2.744   5.252  14.795
21608SOL     OW66662   0.366  14.722  10.406
21608SOL    HW166663   0.393  14.718  10.314
21608SOL    HW266664   0.428  14.666  10.453
21609SOL     OW66665  14.272   6.791   7.172
21609SOL    HW166666  14.260   6.876   7.214
21609SOL    HW266667  14.286   6.730   7.244
21610SOL     OW66668   0.626  14.399   6.380
21610SOL    HW166669   0.681  14.337   6.333
21610SOL    HW266670   0.557  14.422   6.318
21611SOL     OW66671   6.953  13.045   2.999
21611SOL    HW166672   7.014  13.095   3.053
21611SOL    HW266673   6.957  12.956   3.033
21612SOL     OW66674  11.592  14.299   4.250
21612SOL    HW166675  11.656  14.300   4.321
21612SOL    HW266676  11.607  14.215   4.206
21613SOL     OW66677  12.834  11.031   2.230
21613SOL    HW166678  12.801  10.941   2.236
21613SOL    HW266679  12.872  11.037   2.142
21614SOL     OW66680   9.892   0.312   5.515
21614SOL    HW166681   9.824   0.379   5.519
21614SOL    HW266682   9.934   0.325   5.430
21615SOL     OW66683   1.556   6.778   0.485
21615SOL    HW166684   1.567   6.702   0.427
21615SOL    HW266685   1.477   6.759   0.535
21616SOL     OW66686   7.676   8.631   6.084
21616SOL    HW166687   7.634   8.555   6.124
21616SOL    HW266688   7.768   8.622   6.108
21617SOL     OW66689  11.625   2.700   0.453
21617SOL    HW166690  11.564   2.647   0.503
21617SOL    HW266691  11.708   2.691   0.500
21618SOL     OW66692   0.815   0.944  14.052
21618SOL    HW166693   0.904   0.976  14.064
21618SOL    HW266694   0.822   0.879  13.982
21619SOL     OW66695   6.392  14.355   1.335
21619SOL    HW166696   6.420  14.274   1.291
21619SOL    HW266697   6.326  14.392   1.275
21620SOL     OW66698  12.272  14.634   0.633
21620SOL    HW166699  12.218  14.630   0.712
21620SOL    HW266700  12.218  14.594   0.565
21621SOL     OW66701   0.313   1.415   9.177
21621SOL    HW166702   0.219   1.425   9.194
21621SOL    HW266703   0.351   1.397   9.263
21622SOL     OW66704   7.302   5.186  11.879
21622SOL    HW166705   7.297   5.166  11.973
21622SOL    HW266706   7.213   5.210  11.855
21623SOL     OW66707  12.880   1.441  12.532
21623SOL    HW166708  12.851   1.435  12.623
21623SOL    HW266709  12.812   1.493  12.489
21624SOL     OW66710   8.827   2.696   7.729
21624SOL    HW166711   8.791   2.775   7.689
21624SOL    HW266712   8.902   2.673   7.674
21625SOL     OW66713   6.629   1.742   6.539
21625SOL    HW166714   6.622   1.681   6.465
21625SOL    HW266715   6.583   1.698   6.611
21626SOL     OW66716  14.671  12.707   5.664
21626SOL    HW166717  14.651  12.697   5.571
21626SOL    HW266718  14.602  12.659   5.709
21627SOL     OW66719  11.237  12.762   2.803
21627SOL    HW166720  11.144  12.742   2.798
21627SOL    HW266721  11.277  12.686   2.845
21628SOL     OW66722  11.566   9.378   8.134
21628SOL    HW166723  11.479   9.342   8.115
21628SOL    HW266724  11.550   9.447   8.198
21629SOL     OW66725  10.093  13.548   0.133
21629SOL    HW166726  10.092  13.453   0.145
21629SOL    HW266727  10.186  13.571   0.134
21630SOL     OW66728   9.389   7.571   4.194
21630SOL    HW166729   9.445   7.493   4.188
21630SOL    HW266730   9.350   7.580   4.107
21631SOL     OW66731   6.072   1.480  10.683
21631SOL    HW166732   6.078   1.557  10.739
21631SOL    HW266733   6.133   1.417  10.722
21632SOL     OW66734   0.209   8.222  13.275
21632SOL    HW166735   0.290   8.173  13.266
21632SOL    HW266736   0.142   8.166  13.235
21633SOL     OW66737  12.846  14.317   5.283
21633SOL    HW166738  12.922  14.307   5.226
21633SOL    HW266739  12.875  14.284   5.368
21634SOL     OW66740  11.128   1.733   4.109
21634SOL    HW166741  11.079   1.678   4.170
21634SOL    HW266742  11.164   1.672   4.045
21635SOL     OW66743   3.109   5.045   4.576
21635SOL    HW166744   3.088   5.085   4.660
21635SOL    HW266745   3.053   5.090   4.513
21636SOL     OW66746   4.439   4.767   1.927
21636SOL    HW166747   4.358   4.724   1.952
21636SOL    HW266748   4.413   4.857   1.907
21637SOL     OW66749  14.163  14.406  11.394
21637SOL    HW166750  14.184  14.493  11.428
21637SOL    HW266751  14.087  14.420  11.337
21638SOL     OW66752  14.025  11.648  14.764
21638SOL    HW166753  14.047  11.590  14.838
21638SOL    HW266754  14.102  11.704  14.755
21639SOL     OW66755  12.053  12.850   3.143
21639SOL    HW166756  12.116  12.778   3.154
21639SOL    HW266757  12.041  12.858   3.048
21640SOL     OW66758   1.081   6.551  13.935
21640SOL    HW166759   1.029   6.625  13.965
21640SOL    HW266760   1.020   6.498  13.884
21641SOL     OW66761   6.269   3.149   5.020
21641SOL    HW166762   6.284   3.241   4.996
21641SOL    HW266763   6.347   3.103   4.991
21642SOL     OW66764  12.609  12.046   5.970
21642SOL    HW166765  12.521  12.083   5.964
21642SOL    HW266766  12.613  11.981   5.900
21643SOL     OW66767   8.948  10.935   8.134
21643SOL    HW166768   8.915  10.862   8.082
21643SOL    HW266769   8.873  10.963   8.186
21644SOL     OW66770   8.157   4.677   3.667
21644SOL    HW166771   8.170   4.751   3.609
21644SOL    HW266772   8.244   4.638   3.677
21645SOL     OW66773   4.565   4.854   9.684
21645SOL    HW166774   4.569   4.949   9.686
21645SOL    HW266775   4.645   4.826   9.640
21646SOL     OW66776  13.549  14.418   9.715
21646SOL    HW166777  13.630  14.413   9.765
21646SOL    HW266778  13.483  14.377   9.773
21647SOL     OW66779  10.835  11.350   8.438
21647SOL    HW166780  10.740  11.354   8.427
21647SOL    HW266781  10.851  11.268   8.484
21648SOL     OW66782  10.459   1.207   3.772
21648SOL    HW166783  10.526   1.169   3.829
21648SOL    HW266784  10.501   1.283   3.732
21649SOL     OW66785  10.428   6.226  13.822
21649SOL    HW166786  10.468   6.313  13.816
21649SOL    HW266787  10.348   6.241  13.873
21650SOL     OW66788   7.413  11.962  12.225
21650SOL    HW166789   7.462  12.022  12.168
21650SOL    HW266790   7.456  11.877  12.213
21651SOL     OW66791   5.012   0.474   0.071
21651SOL    HW166792   5.057   0.402   0.026
21651SOL    HW266793   5.082   0.534   0.096
21652SOL     OW66794   7.750   4.664   6.792
21652SOL    HW166795   7.767   4.634   6.881
21652SOL    HW266796   7.696   4.743   6.804
21653SOL     OW66797   2.322   6.235   1.450
21653SOL    HW166798   2.373   6.238   1.531
21653SOL    HW266799   2.335   6.321   1.411
21654SOL     OW66800   6.167  13.212   2.401
21654SOL    HW166801   6.203  13.165   2.477
21654SOL    HW266802   6.221  13.184   2.328
21655SOL     OW66803   2.632   9.519  12.759
21655SOL    HW166804   2.630   9.608  12.724
21655SOL    HW266805   2.633   9.530  12.854
21656SOL     OW66806   9.699  13.273   8.567
21656SOL    HW166807   9.755  13.232   8.503
21656SOL    HW266808   9.759  13.319   8.627
21657SOL     OW66809  12.497   3.556   1.665
21657SOL    HW166810  12.471   3.643   1.694
21657SOL    HW266811  12.414   3.513   1.643
21658SOL     OW66812   8.111   3.570   0.119
21658SOL    HW166813   8.053   3.506   0.160
21658SOL    HW266814   8.193   3.522   0.104
21659SOL     OW66815   9.125   2.163   3.261
21659SOL    HW166816   9.164   2.223   3.325
21659SOL    HW266817   9.197   2.106   3.234
21660SOL     OW66818   2.291   0.685   9.589
21660SOL    HW166819   2.197   0.665   9.583
21660SOL    HW266820   2.295   0.778   9.611
21661SOL     OW66821  14.659  14.469  14.493
21661SOL    HW166822  14.592  14.537  14.495
21661SOL    HW266823  14.681  14.454  14.585
21662SOL     OW66824  12.258   0.921   9.041
21662SOL    HW166825  12.316   0.961   8.976
21662SOL    HW266826  12.226   0.994   9.094
21663SOL     OW66827   4.249   4.462   3.163
21663SOL    HW166828   4.280   4.552   3.156
21663SOL    HW266829   4.210   4.443   3.078
21664SOL     OW66830   2.975   2.674   8.592
21664SOL    HW166831   3.010   2.696   8.679
21664SOL    HW266832   2.988   2.580   8.584
21665SOL     OW66833   8.462  12.864   4.800
21665SOL    HW166834   8.491  12.811   4.726
21665SOL    HW266835   8.402  12.928   4.762
21666SOL     OW66836  10.884   0.898  12.542
21666SOL    HW166837  10.870   0.973  12.485
21666SOL    HW266838  10.818   0.834  12.515
21667SOL     OW66839  14.704   3.518   1.855
21667SOL    HW166840  14.775   3.474   1.902
21667SOL    HW266841  14.737   3.529   1.766
21668SOL     OW66842   3.005   0.374   6.377
21668SOL    HW166843   2.974   0.289   6.407
21668SOL    HW266844   3.017   0.364   6.283
21669SOL     OW66845  12.825   1.639  10.669
21669SOL    HW166846  12.751   1.592  10.708
21669SOL    HW266847  12.902   1.608  10.717
21670SOL     OW66848   4.889   9.006   5.230
21670SOL    HW166849   4.965   9.065   5.227
21670SOL    HW266850   4.924   8.921   5.202
21671SOL     OW66851   3.002  12.280   1.694
21671SOL    HW166852   2.943  12.237   1.633
21671SOL    HW266853   3.014  12.217   1.765
21672SOL     OW66854   8.727   7.246   5.864
21672SOL    HW166855   8.794   7.243   5.795
21672SOL    HW266856   8.776   7.244   5.946
21673SOL     OW66857   1.014  14.471   1.711
21673SOL    HW166858   0.962  14.397   1.743
21673SOL    HW266859   1.100  14.434   1.692
21674SOL     OW66860   8.427   0.932   2.683
21674SOL    HW166861   8.371   0.878   2.738
21674SOL    HW266862   8.378   1.013   2.671
21675SOL     OW66863   5.418  11.807   8.194
21675SOL    HW166864   5.386  11.859   8.120
21675SOL    HW266865   5.394  11.859   8.271
21676SOL     OW66866   3.153   5.807  10.639
21676SOL    HW166867   3.147   5.847  10.552
21676SOL    HW266868   3.176   5.879  10.697
21677SOL     OW66869  11.886   3.006   8.496
21677SOL    HW166870  11.899   2.913   8.514
21677SOL    HW266871  11.895   3.013   8.401
21678SOL     OW66872  13.861   7.620   0.429
21678SOL    HW166873  13.900   7.703   0.404
21678SOL    HW266874  13.923   7.581   0.491
21679SOL     OW66875   8.524   9.563  10.270
21679SOL    HW166876   8.551   9.650  10.298
21679SOL    HW266877   8.431   9.558  10.290
21680SOL     OW66878  14.062   5.061  12.055
21680SOL    HW166879  14.045   4.987  11.996
21680SOL    HW266880  13.979   5.074  12.102
21681SOL     OW66881  12.648   3.173   7.505
21681SOL    HW166882  12.651   3.088   7.550
21681SOL    HW266883  12.656   3.151   7.412
21682SOL     OW66884   0.183   2.144   1.248
21682SOL    HW166885   0.220   2.182   1.169
21682SOL    HW266886   0.257   2.133   1.307
21683SOL     OW66887   4.758  10.043   1.231
21683SOL    HW166888   4.837  10.084   1.196
21683SOL    HW266889   4.765  10.052   1.326
21684SOL     OW66890   2.766   5.628   7.112
21684SOL    HW166891   2.687   5.598   7.066
21684SOL    HW266892   2.761   5.723   7.108
21685SOL     OW66893   4.855   1.721   3.958
21685SOL    HW166894   4.849   1.731   4.053
21685SOL    HW266895   4.918   1.788   3.930
21686SOL     OW66896  12.635   7.285  10.429
21686SOL    HW166897  12.666   7.324  10.511
21686SOL    HW266898  12.667   7.194  10.432
21687SOL     OW66899   9.920  12.457  12.031
21687SOL    HW166900   9.980  12.392  12.068
21687SOL    HW266901   9.856  12.405  11.983
21688SOL     OW66902   6.493   3.186   5.574
21688SOL    HW166903   6.462   3.264   5.621
21688SOL    HW266904   6.413   3.138   5.552
21689SOL     OW66905   6.802   1.173  14.444
21689SOL    HW166906   6.710   1.168  14.421
21689SOL    HW266907   6.848   1.136  14.369
21690SOL     OW66908  13.818  10.428  14.033
21690SOL    HW166909  13.900  10.453  13.991
21690SOL    HW266910  13.794  10.504  14.086
21691SOL     OW66911   6.588   3.773   5.016
21691SOL    HW166912   6.624   3.700   4.966
21691SOL    HW266913   6.665   3.827   5.037
21692SOL     OW66914  14.172  13.553   6.635
21692SOL    HW166915  14.253  13.554   6.584
21692SOL    HW266916  14.106  13.591   6.577
21693SOL     OW66917   4.748   0.086   2.295
21693SOL    HW166918   4.758   0.110   2.387
21693SOL    HW266919   4.654   0.095   2.278
21694SOL     OW66920   3.922  12.675  14.849
21694SOL    HW166921   3.953  12.757  14.810
21694SOL    HW266922   3.835  12.696   0.009
21695SOL     OW66923   8.245  13.588  13.725
21695SOL    HW166924   8.222  13.499  13.699
21695SOL    HW266925   8.339  13.595  13.707
21696SOL     OW66926  14.438  13.293   7.739
21696SOL    HW166927  14.490  13.287   7.819
21696SOL    HW266928  14.417  13.203   7.717
21697SOL     OW66929   0.369   7.410  12.471
21697SOL    HW166930   0.378   7.487  12.414
21697SOL    HW266931   0.398   7.337  12.417
21698SOL     OW66932   2.753   5.859   4.761
21698SOL    HW166933   2.842   5.858   4.724
21698SOL    HW266934   2.732   5.951   4.771
21699SOL     OW66935   0.519   9.040   9.290
21699SOL    HW166936   0.430   9.074   9.281
21699SOL    HW266937   0.539   9.001   9.205
21700SOL     OW66938   1.363  13.504  10.906
21700SOL    HW166939   1.329  13.421  10.939
21700SOL    HW266940   1.346  13.501  10.812
21701SOL     OW66941   2.875   1.889   7.030
21701SOL    HW166942   2.959   1.925   7.002
21701SOL    HW266943   2.863   1.922   7.119
21702SOL     OW66944   7.701   0.552  14.060
21702SOL    HW166945   7.704   0.504  14.143
21702SOL    HW266946   7.607   0.568  14.046
21703SOL     OW66947  12.712  12.545  11.856
21703SOL    HW166948  12.625  12.505  11.862
21703SOL    HW266949  12.753  12.528  11.941
21704SOL     OW66950   1.710   0.678  14.059
21704SOL    HW166951   1.670   0.701  13.975
21704SOL    HW266952   1.689   0.586  14.072
21705SOL     OW66953  14.130   9.271  12.841
21705SOL    HW166954  14.091   9.326  12.773
21705SOL    HW266955  14.130   9.183  12.803
21706SOL     OW66956  12.574   1.172   6.533
21706SOL    HW166957  12.530   1.163   6.448
21706SOL    HW266958  12.632   1.247   6.521
21707SOL     OW66959   4.459   2.635   3.129
21707SOL    HW166960   4.502   2.690   3.194
21707SOL    HW266961   4.528   2.574   3.100
21708SOL     OW66962  13.072   8.941   3.849
21708SOL    HW166963  13.012   9.015   3.859
21708SOL    HW266964  13.017   8.868   3.822
21709SOL     OW66965   8.130   3.257   9.883
21709SOL    HW166966   8.123   3.179   9.829
21709SOL    HW266967   8.051   3.308   9.862
21710SOL     OW66968  10.309   7.528  14.128
21710SOL    HW166969  10.316   7.624  14.136
21710SOL    HW266970  10.337   7.510  14.039
21711SOL     OW66971   3.623  13.494  10.498
21711SOL    HW166972   3.718  13.485  10.498
21711SOL    HW266973   3.606  13.576  10.544
21712SOL     OW66974  13.661   3.819   8.154
21712SOL    HW166975  13.658   3.890   8.089
21712SOL    HW266976  13.681   3.863   8.237
21713SOL     OW66977   9.079   6.500   1.793
21713SOL    HW166978   9.103   6.592   1.799
21713SOL    HW266979   9.082   6.479   1.700
21714SOL     OW66980   0.248   6.199  10.946
21714SOL    HW166981   0.235   6.143  10.869
21714SOL    HW266982   0.222   6.144  11.020
21715SOL     OW66983  12.476   5.046  14.188
21715SOL    HW166984  12.546   5.026  14.250
21715SOL    HW266985  12.499   5.133  14.154
21716SOL     OW66986   0.910   9.382   3.748
21716SOL    HW166987   0.835   9.350   3.698
21716SOL    HW266988   0.954   9.443   3.689
21717SOL     OW66989  13.128  10.492  14.520
21717SOL    HW166990  13.221  10.508  14.539
21717SOL    HW266991  13.120  10.507  14.426
21718SOL     OW66992   3.334  10.632   6.779
21718SOL    HW166993   3.262  10.695   6.787
21718SOL    HW266994   3.390  10.650   6.855
21719SOL     OW66995   5.319   8.413   1.821
21719SOL    HW166996   5.368   8.354   1.880
21719SOL    HW266997   5.228   8.388   1.834
21720SOL     OW66998   4.162   6.083   1.098
21720SOL    HW166999   4.101   6.090   1.024
21720SOL    HW267000   4.159   6.169   1.140
21721SOL     OW67001   0.526   7.888   5.422
21721SOL    HW167002   0.614   7.900   5.458
21721SOL    HW267003   0.475   7.852   5.495
21722SOL     OW67004  11.748  14.438   1.541
21722SOL    HW167005  11.837  14.423   1.508
21722SOL    HW267006  11.752  14.410   1.633
21723SOL     OW67007  12.294  12.541   7.303
21723SOL    HW167008  12.363  12.552   7.238
21723SOL    HW267009  12.216  12.577   7.261
21724SOL     OW67010  14.636  13.168   2.149
21724SOL    HW167011  14.665  13.083   2.181
21724SOL    HW267012  14.541  13.160   2.140
21725SOL     OW67013  14.707   7.651  10.323
21725SOL    HW167014  14.755   7.734  10.321
21725SOL    HW267015  14.688   7.636  10.415
21726SOL     OW67016  12.947  11.783   3.004
21726SOL    HW167017  12.944  11.755   3.096
21726SOL    HW267018  12.859  11.764   2.971
21727SOL     OW67019  12.547   1.460  12.773
21727SOL    HW167020  12.562   1.553  12.791
21727SOL    HW267021  12.631   1.418  12.794
21728SOL     OW67022  13.512   1.827   5.395
21728SOL    HW167023  13.438   1.786   5.350
21728SOL    HW267024  13.580   1.835   5.327
21729SOL     OW67025  10.445  12.043  12.846
21729SOL    HW167026  10.522  12.080  12.802
21729SOL    HW267027  10.375  12.052  12.782
21730SOL     OW67028   5.033  12.031   9.955
21730SOL    HW167029   4.952  12.004   9.912
21730SOL    HW267030   5.044  12.123   9.932
21731SOL     OW67031  13.505   6.183   2.561
21731SOL    HW167032  13.456   6.247   2.510
21731SOL    HW267033  13.483   6.098   2.521
21732SOL     OW67034   9.453  12.392   5.860
21732SOL    HW167035   9.435  12.399   5.954
21732SOL    HW267036   9.391  12.452   5.819
21733SOL     OW67037   7.823  13.745   1.242
21733SOL    HW167038   7.792  13.663   1.204
21733SOL    HW267039   7.795  13.742   1.333
21734SOL     OW67040  14.313  13.540   1.022
21734SOL    HW167041  14.301  13.622   1.070
21734SOL    HW267042  14.383  13.559   0.959
21735SOL     OW67043   4.692  13.806  13.926
21735SOL    HW167044   4.749  13.884  13.927
21735SOL    HW267045   4.691  13.777  14.017
21736SOL     OW67046  11.135  11.675   2.177
21736SOL    HW167047  11.072  11.611   2.210
21736SOL    HW267048  11.082  11.743   2.135
21737SOL     OW67049   6.614  13.202   8.763
21737SOL    HW167050   6.692  13.146   8.759
21737SOL    HW267051   6.577  13.186   8.850
21738SOL     OW67052   1.041  12.937   3.129
21738SOL    HW167053   1.063  13.002   3.062
21738SOL    HW267054   1.069  12.978   3.211
21739SOL     OW67055  11.165   6.799   9.898
21739SOL    HW167056  11.088   6.805   9.841
21739SOL    HW267057  11.152   6.717   9.946
21740SOL     OW67058  13.166  13.402  14.664
21740SOL    HW167059  13.199  13.482  14.704
21740SOL    HW267060  13.115  13.359  14.733
21741SOL     OW67061   8.260   3.306   9.392
21741SOL    HW167062   8.187   3.269   9.343
21741SOL    HW267063   8.263   3.256   9.473
21742SOL     OW67064   0.728   7.930   2.662
21742SOL    HW167065   0.731   7.937   2.566
21742SOL    HW267066   0.813   7.961   2.691
21743SOL     OW67067  14.103   1.119   6.052
21743SOL    HW167068  14.023   1.149   6.008
21743SOL    HW267069  14.168   1.186   6.030
21744SOL     OW67070  12.113   0.066   2.091
21744SOL    HW167071  12.157   0.082   2.007
21744SOL    HW267072  12.182   0.071   2.156
21745SOL     OW67073   1.027   3.709   4.860
21745SOL    HW167074   1.075   3.676   4.785
21745SOL    HW267075   1.090   3.763   4.908
21746SOL     OW67076  12.555   8.109   2.099
21746SOL    HW167077  12.495   8.056   2.048
21746SOL    HW267078  12.503   8.143   2.172
21747SOL     OW67079   4.795   6.400   8.466
21747SOL    HW167080   4.704   6.416   8.492
21747SOL    HW267081   4.843   6.392   8.548
21748SOL     OW67082   9.111  14.151   3.430
21748SOL    HW167083   9.129  14.239   3.462
21748SOL    HW267084   9.172  14.138   3.358
21749SOL     OW67085   3.861   2.394   4.702
21749SOL    HW167086   3.954   2.408   4.718
21749SOL    HW267087   3.819   2.414   4.786
21750SOL     OW67088   3.075  10.317  13.825
21750SOL    HW167089   3.024  10.238  13.843
21750SOL    HW267090   3.117  10.299  13.740
21751SOL     OW67091   2.914  12.252  11.563
21751SOL    HW167092   2.884  12.265  11.473
21751SOL    HW267093   2.906  12.158  11.578
21752SOL     OW67094   7.821  11.874   8.899
21752SOL    HW167095   7.760  11.876   8.973
21752SOL    HW267096   7.782  11.811   8.838
21753SOL     OW67097   3.753   5.050   1.042
21753SOL    HW167098   3.669   5.008   1.022
21753SOL    HW267099   3.780   5.091   0.959
21754SOL     OW67100   8.090  12.189   7.323
21754SOL    HW167101   8.127  12.129   7.258
21754SOL    HW267102   8.098  12.141   7.406
21755SOL     OW67103   5.020  12.506   3.698
21755SOL    HW167104   4.952  12.490   3.633
21755SOL    HW267105   4.977  12.556   3.767
21756SOL     OW67106   8.349  10.554  12.622
21756SOL    HW167107   8.402  10.628  12.653
21756SOL    HW267108   8.264  10.567  12.663
21757SOL     OW67109   3.839   9.184  14.485
21757SOL    HW167110   3.774   9.252  14.468
21757SOL    HW267111   3.921   9.222  14.452
21758SOL     OW67112   6.881   4.735   2.278
21758SOL    HW167113   6.966   4.765   2.309
21758SOL    HW267114   6.866   4.781   2.196
21759SOL     OW67115  13.968   7.256   6.823
21759SOL    HW167116  14.041   7.245   6.884
21759SOL    HW267117  13.892   7.269   6.879
21760SOL     OW67118   7.340  14.830   5.561
21760SOL    HW167119   7.391  14.770   5.615
21760SOL    HW267120   7.260  14.782   5.540
21761SOL     OW67121   1.898   6.546  14.484
21761SOL    HW167122   1.820   6.576  14.531
21761SOL    HW267123   1.885   6.574  14.394
21762SOL     OW67124   4.833   6.498   0.575
21762SOL    HW167125   4.803   6.530   0.490
21762SOL    HW267126   4.753   6.473   0.621
21763SOL     OW67127   1.893   7.082   1.038
21763SOL    HW167128   1.913   7.078   1.132
21763SOL    HW267129   1.921   7.169   1.011
21764SOL     OW67130   1.209   8.202  14.728
21764SOL    HW167131   1.259   8.252  14.793
21764SOL    HW267132   1.248   8.227  14.645
21765SOL     OW67133  13.066   1.983   3.380
21765SOL    HW167134  13.094   2.024   3.298
21765SOL    HW267135  13.064   2.055   3.443
21766SOL     OW67136   5.921   0.529   4.933
21766SOL    HW167137   6.000   0.526   4.987
21766SOL    HW267138   5.886   0.439   4.937
21767SOL     OW67139   7.646   4.636  13.424
21767SOL    HW167140   7.557   4.648  13.458
21767SOL    HW267141   7.697   4.706  13.465
21768SOL     OW67142   8.701  13.572   9.258
21768SOL    HW167143   8.723  13.480   9.242
21768SOL    HW267144   8.608  13.579   9.236
21769SOL     OW67145   7.579   8.167   5.013
21769SOL    HW167146   7.675   8.168   5.017
21769SOL    HW267147   7.554   8.259   5.006
21770SOL     OW67148  13.258   6.699   4.095
21770SOL    HW167149  13.268   6.659   4.008
21770SOL    HW267150  13.225   6.628   4.150
21771SOL     OW67151  11.712   8.328   6.833
21771SOL    HW167152  11.689   8.237   6.815
21771SOL    HW267153  11.634   8.377   6.808
21772SOL     OW67154  11.982   4.294   0.676
21772SOL    HW167155  11.907   4.248   0.639
21772SOL    HW267156  12.043   4.304   0.603
21773SOL     OW67157   7.175   7.416   4.730
21773SOL    HW167158   7.169   7.427   4.635
21773SOL    HW267159   7.121   7.486   4.766
21774SOL     OW67160  13.349   4.916  11.965
21774SOL    HW167161  13.281   4.850  11.954
21774SOL    HW267162  13.401   4.911  11.885
21775SOL     OW67163   9.229   2.526  12.255
21775SOL    HW167164   9.317   2.492  12.267
21775SOL    HW267165   9.220   2.536  12.160
21776SOL     OW67166   4.001  12.326   3.018
21776SOL    HW167167   4.087  12.339   3.058
21776SOL    HW267168   4.017  12.327   2.924
21777SOL     OW67169  11.393   3.345   4.327
21777SOL    HW167170  11.399   3.249   4.322
21777SOL    HW267171  11.465   3.370   4.385
21778SOL     OW67172  10.925   9.106   6.573
21778SOL    HW167173  10.863   9.146   6.512
21778SOL    HW267174  10.901   9.014   6.576
21779SOL     OW67175  13.018   5.629   2.105
21779SOL    HW167176  13.059   5.543   2.105
21779SOL    HW267177  12.926   5.613   2.128
21780SOL     OW67178   7.808  10.794   2.874
21780SOL    HW167179   7.833  10.732   2.806
21780SOL    HW267180   7.832  10.880   2.838
21781SOL     OW67181  11.805   4.446   1.779
21781SOL    HW167182  11.866   4.443   1.706
21781SOL    HW267183  11.859   4.428   1.856
21782SOL     OW67184   2.931   3.091   7.491
21782SOL    HW167185   2.967   3.165   7.540
21782SOL    HW267186   2.913   3.025   7.557
21783SOL     OW67187   3.562   7.978   1.524
21783SOL    HW167188   3.536   7.945   1.439
21783SOL    HW267189   3.502   8.051   1.540
21784SOL     OW67190   6.197  12.916   5.727
21784SOL    HW167191   6.109  12.953   5.738
21784SOL    HW267192   6.231  12.959   5.649
21785SOL     OW67193   4.740   6.672  12.274
21785SOL    HW167194   4.744   6.673  12.179
21785SOL    HW267195   4.740   6.579  12.298
21786SOL     OW67196  12.383   6.602   4.541
21786SOL    HW167197  12.456   6.626   4.484
21786SOL    HW267198  12.310   6.658   4.512
21787SOL     OW67199  13.956   0.381   6.224
21787SOL    HW167200  13.866   0.381   6.192
21787SOL    HW267201  13.948   0.366   6.318
21788SOL     OW67202  12.397  10.604   5.071
21788SOL    HW167203  12.417  10.572   5.159
21788SOL    HW267204  12.360  10.691   5.084
21789SOL     OW67205   9.365  11.867  10.592
21789SOL    HW167206   9.382  11.915  10.511
21789SOL    HW267207   9.310  11.926  10.644
21790SOL     OW67208  12.441   5.409   8.299
21790SOL    HW167209  12.382   5.474   8.262
21790SOL    HW267210  12.494   5.380   8.225
21791SOL     OW67211  14.579  13.532   3.381
21791SOL    HW167212  14.573  13.506   3.473
21791SOL    HW267213  14.605  13.451   3.336
21792SOL     OW67214   9.864  13.413   5.317
21792SOL    HW167215   9.858  13.414   5.221
21792SOL    HW267216   9.777  13.386   5.346
21793SOL     OW67217   9.133  11.217  14.005
21793SOL    HW167218   9.186  11.295  13.988
21793SOL    HW267219   9.197  11.148  14.024
21794SOL     OW67220  14.696   7.907   3.691
21794SOL    HW167221  14.617   7.868   3.654
21794SOL    HW267222  14.681   8.001   3.684
21795SOL     OW67223   9.439   4.599   2.458
21795SOL    HW167224   9.490   4.539   2.513
21795SOL    HW267225   9.444   4.561   2.371
21796SOL     OW67226  14.039  12.733  13.283
21796SOL    HW167227  13.963  12.675  13.278
21796SOL    HW267228  14.027  12.794  13.210
21797SOL     OW67229   2.178  12.945  10.272
21797SOL    HW167230   2.263  12.940  10.228
21797SOL    HW267231   2.121  12.886  10.222
21798SOL     OW67232   9.862   3.866   3.818
21798SOL    HW167233   9.767   3.875   3.821
21798SOL    HW267234   9.879   3.813   3.739
21799SOL     OW67235   3.734  12.766  11.798
21799SOL    HW167236   3.802  12.782  11.733
21799SOL    HW267237   3.661  12.728  11.748
21800SOL     OW67238   6.979  12.555   8.149
21800SOL    HW167239   7.053  12.556   8.209
21800SOL    HW267240   7.001  12.619   8.081
21801SOL     OW67241  10.725  11.300  11.923
21801SOL    HW167242  10.644  11.334  11.886
21801SOL    HW267243  10.716  11.314  12.017
21802SOL     OW67244   2.326   6.478   1.747
21802SOL    HW167245   2.323   6.393   1.791
21802SOL    HW267246   2.240   6.486   1.705
21803SOL     OW67247  13.544  11.020  14.830
21803SOL    HW167248  13.606  11.044  14.761
21803SOL    HW267249  13.531  11.100   0.006
21804SOL     OW67250   1.545   9.686  14.267
21804SOL    HW167251   1.516   9.650  14.183
21804SOL    HW267252   1.515   9.777  14.266
21805SOL     OW67253  13.521   1.928   9.217
21805SOL    HW167254  13.440   1.962   9.255
21805SOL    HW267255  13.590   1.975   9.264
21806SOL     OW67256  13.664  13.969   6.974
21806SOL    HW167257  13.716  13.894   6.944
21806SOL    HW267258  13.703  13.993   7.058
21807SOL     OW67259   1.712   4.635   7.818
21807SOL    HW167260   1.678   4.558   7.865
21807SOL    HW267261   1.634   4.686   7.798
21808SOL     OW67262   2.277   6.548   9.101
21808SOL    HW167263   2.201   6.586   9.145
21808SOL    HW267264   2.298   6.609   9.031
21809SOL     OW67265  10.127  10.986   8.065
21809SOL    HW167266  10.068  10.911   8.055
21809SOL    HW267267  10.153  10.984   8.157
21810SOL     OW67268   8.699  10.706   8.453
21810SOL    HW167269   8.742  10.652   8.520
21810SOL    HW267270   8.729  10.668   8.370
21811SOL     OW67271  14.305   5.512   4.513
21811SOL    HW167272  14.303   5.502   4.418
21811SOL    HW267273  14.309   5.607   4.527
21812SOL     OW67274   0.217  11.410  11.008
21812SOL    HW167275   0.304  11.379  11.033
21812SOL    HW267276   0.208  11.385  10.916
21813SOL     OW67277  11.696   3.677   0.091
21813SOL    HW167278  11.740   3.726   0.161
21813SOL    HW267279  11.721   3.722   0.011
21814SOL     OW67280   7.615   2.363  12.291
21814SOL    HW167281   7.622   2.277  12.331
21814SOL    HW267282   7.543   2.354  12.228
21815SOL     OW67283   1.816  14.513   8.049
21815SOL    HW167284   1.739  14.475   8.091
21815SOL    HW267285   1.888  14.456   8.075
21816SOL     OW67286   2.929   8.886  11.748
21816SOL    HW167287   2.930   8.967  11.696
21816SOL    HW267288   2.836   8.867  11.761
21817SOL     OW67289   2.397  14.554   1.223
21817SOL    HW167290   2.415  14.542   1.130
21817SOL    HW267291   2.474  14.520   1.268
21818SOL     OW67292   3.312  12.321   5.928
21818SOL    HW167293   3.251  12.308   6.001
21818SOL    HW267294   3.390  12.358   5.968
21819SOL     OW67295   9.485  13.211  10.058
21819SOL    HW167296   9.525  13.126  10.073
21819SOL    HW267297   9.540  13.272  10.107
21820SOL     OW67298   6.209  10.233   5.667
21820SOL    HW167299   6.243  10.321   5.680
21820SOL    HW267300   6.287  10.177   5.669
21821SOL     OW67301  10.417   1.693  14.202
21821SOL    HW167302  10.494   1.750  14.201
21821SOL    HW267303  10.405   1.670  14.294
21822SOL     OW67304   3.740  10.334   7.430
21822SOL    HW167305   3.800  10.263   7.452
21822SOL    HW267306   3.700  10.306   7.347
21823SOL     OW67307   9.524   0.767   1.243
21823SOL    HW167308   9.535   0.758   1.338
21823SOL    HW267309   9.604   0.730   1.206
21824SOL     OW67310   0.144  10.104   8.362
21824SOL    HW167311   0.055  10.135   8.377
21824SOL    HW267312   0.154  10.108   8.266
21825SOL     OW67313   7.357   2.217   7.775
21825SOL    HW167314   7.277   2.253   7.735
21825SOL    HW267315   7.398   2.166   7.705
21826SOL     OW67316  13.863   2.053   9.874
21826SOL    HW167317  13.937   1.999   9.846
21826SOL    HW267318  13.887   2.085   9.961
21827SOL     OW67319  10.612   7.017   4.370
21827SOL    HW167320  10.553   7.006   4.444
21827SOL    HW267321  10.601   6.938   4.317
21828SOL     OW67322  10.583   4.089   5.097
21828SOL    HW167323  10.625   4.056   5.176
21828SOL    HW267324  10.634   4.165   5.072
21829SOL     OW67325   6.505   5.579  12.470
21829SOL    HW167326   6.472   5.645  12.530
21829SOL    HW267327   6.436   5.569  12.404
21830SOL     OW67328  13.639   5.060   0.621
21830SOL    HW167329  13.596   5.037   0.704
21830SOL    HW267330  13.567   5.074   0.559
21831SOL     OW67331   3.840   1.602   0.044
21831SOL    HW167332   3.754   1.645   0.034
21831SOL    HW267333   3.853   1.596   0.139
21832SOL     OW67334  11.495   7.445  13.270
21832SOL    HW167335  11.534   7.480  13.190
21832SOL    HW267336  11.466   7.522  13.318
21833SOL     OW67337   6.623   2.220   7.298
21833SOL    HW167338   6.614   2.297   7.243
21833SOL    HW267339   6.546   2.166   7.278
21834SOL     OW67340  14.016   6.301   2.491
21834SOL    HW167341  14.041   6.327   2.580
21834SOL    HW267342  13.927   6.269   2.499
21835SOL     OW67343   3.866   1.639   7.798
21835SOL    HW167344   3.835   1.567   7.853
21835SOL    HW267345   3.872   1.601   7.711
21836SOL     OW67346   9.375  12.025  10.979
21836SOL    HW167347   9.320  12.103  10.967
21836SOL    HW267348   9.314  11.951  10.967
21837SOL     OW67349  14.818   6.686   3.185
21837SOL    HW167350  14.840   6.657   3.097
21837SOL    HW267351  14.858   6.620   3.242
21838SOL     OW67352  11.998  14.211   8.727
21838SOL    HW167353  12.004  14.115   8.724
21838SOL    HW267354  11.989  14.232   8.820
21839SOL     OW67355  13.592   0.610   3.420
21839SOL    HW167356  13.621   0.526   3.457
21839SOL    HW267357  13.600   0.671   3.493
21840SOL     OW67358   4.052  12.875  13.749
21840SOL    HW167359   4.014  12.936  13.812
21840SOL    HW267360   4.104  12.931  13.691
21841SOL     OW67361   7.544   6.078   2.446
21841SOL    HW167362   7.558   6.056   2.353
21841SOL    HW267363   7.544   5.993   2.490
21842SOL     OW67364   8.455  11.852  12.846
21842SOL    HW167365   8.406  11.874  12.926
21842SOL    HW267366   8.542  11.890  12.860
21843SOL     OW67367   3.550   4.012   9.662
21843SOL    HW167368   3.638   4.036   9.692
21843SOL    HW267369   3.561   3.993   9.569
21844SOL     OW67370  11.556  11.399   4.546
21844SOL    HW167371  11.596  11.378   4.630
21844SOL    HW267372  11.550  11.315   4.501
21845SOL     OW67373   9.456   2.004  11.571
21845SOL    HW167374   9.505   2.048  11.641
21845SOL    HW267375   9.370   2.046  11.572
21846SOL     OW67376  12.743   3.256   5.874
21846SOL    HW167377  12.738   3.301   5.789
21846SOL    HW267378  12.724   3.165   5.855
21847SOL     OW67379  13.201   6.619   3.005
21847SOL    HW167380  13.152   6.537   2.996
21847SOL    HW267381  13.156   6.681   2.948
21848SOL     OW67382   0.813   7.095   4.613
21848SOL    HW167383   0.732   7.045   4.626
21848SOL    HW267384   0.849   7.061   4.531
21849SOL     OW67385   0.634   6.752   0.865
21849SOL    HW167386   0.593   6.828   0.907
21849SOL    HW267387   0.563   6.712   0.814
21850SOL     OW67388   9.079   4.617   9.570
21850SOL    HW167389   9.059   4.637   9.478
21850SOL    HW267390   9.174   4.619   9.575
21851SOL     OW67391  11.140   6.881  12.119
21851SOL    HW167392  11.085   6.957  12.100
21851SOL    HW267393  11.155   6.884  12.213
21852SOL     OW67394   4.999   8.375   2.239
21852SOL    HW167395   4.951   8.371   2.157
21852SOL    HW267396   5.041   8.461   2.238
21853SOL     OW67397   4.343   2.430   7.710
21853SOL    HW167398   4.261   2.398   7.747
21853SOL    HW267399   4.367   2.504   7.767
21854SOL     OW67400  12.535   4.531   7.182
21854SOL    HW167401  12.467   4.573   7.129
21854SOL    HW267402  12.615   4.539   7.130
21855SOL     OW67403  13.922   5.160   3.348
21855SOL    HW167404  13.993   5.199   3.399
21855SOL    HW267405  13.920   5.068   3.377
21856SOL     OW67406  14.838  14.169   6.371
21856SOL    HW167407   0.056  14.155   6.393
21856SOL    HW267408  14.832  14.144   6.279
21857SOL     OW67409   1.731   7.909   4.742
21857SOL    HW167410   1.733   8.005   4.738
21857SOL    HW267411   1.643   7.885   4.713
21858SOL     OW67412  13.335   5.849   7.663
21858SOL    HW167413  13.415   5.801   7.679
21858SOL    HW267414  13.327   5.851   7.568
21859SOL     OW67415  12.359   1.079   2.916
21859SOL    HW167416  12.435   1.137   2.912
21859SOL    HW267417  12.371   1.019   2.842
21860SOL     OW67418   1.630  10.886   9.857
21860SOL    HW167419   1.623  10.979   9.879
21860SOL    HW267420   1.597  10.841   9.934
21861SOL     OW67421   8.337   2.524  12.330
21861SOL    HW167422   8.340   2.432  12.305
21861SOL    HW267423   8.253   2.533  12.376
21862SOL     OW67424  14.014   8.602   8.549
21862SOL    HW167425  13.961   8.549   8.610
21862SOL    HW267426  13.981   8.692   8.562
21863SOL     OW67427   7.333   2.071   6.585
21863SOL    HW167428   7.399   2.083   6.517
21863SOL    HW267429   7.249   2.076   6.538
21864SOL     OW67430   6.250   0.524   8.499
21864SOL    HW167431   6.231   0.512   8.406
21864SOL    HW267432   6.184   0.472   8.543
21865SOL     OW67433   9.546   3.154  11.216
21865SOL    HW167434   9.554   3.215  11.143
21865SOL    HW267435   9.595   3.077  11.188
21866SOL     OW67436   2.851  12.034   0.236
21866SOL    HW167437   2.880  12.082   0.158
21866SOL    HW267438   2.842  11.944   0.206
21867SOL     OW67439   0.131   3.908  10.703
21867SOL    HW167440   0.148   3.872  10.790
21867SOL    HW267441   0.035   3.914  10.698
21868SOL     OW67442   3.206   1.881   2.020
21868SOL    HW167443   3.226   1.788   2.008
21868SOL    HW267444   3.134   1.898   1.959
21869SOL     OW67445  10.691   2.157  11.542
21869SOL    HW167446  10.779   2.196  11.541
21869SOL    HW267447  10.640   2.215  11.597
21870SOL     OW67448   1.158   9.477   1.095
21870SOL    HW167449   1.228   9.493   1.158
21870SOL    HW267450   1.186   9.398   1.048
21871SOL     OW67451  12.715  10.855   5.981
21871SOL    HW167452  12.747  10.941   6.007
21871SOL    HW267453  12.678  10.869   5.894
21872SOL     OW67454   4.930   9.595  14.278
21872SOL    HW167455   4.918   9.503  14.256
21872SOL    HW267456   4.877   9.642  14.214
21873SOL     OW67457  10.637   7.373   4.975
21873SOL    HW167458  10.580   7.420   4.915
21873SOL    HW267459  10.724   7.382   4.938
21874SOL     OW67460   4.642  13.206   0.485
21874SOL    HW167461   4.720  13.150   0.491
21874SOL    HW267462   4.584  13.173   0.554
21875SOL     OW67463  11.355  10.181   2.986
21875SOL    HW167464  11.342  10.189   3.080
21875SOL    HW267465  11.328  10.092   2.965
21876SOL     OW67466   4.673   6.133  14.657
21876SOL    HW167467   4.585   6.149  14.622
21876SOL    HW267468   4.732   6.158  14.585
21877SOL     OW67469   5.143  11.939   5.050
21877SOL    HW167470   5.225  11.898   5.023
21877SOL    HW267471   5.155  12.032   5.029
21878SOL     OW67472   9.751   2.559   9.400
21878SOL    HW167473   9.670   2.611   9.395
21878SOL    HW267474   9.772   2.540   9.308
21879SOL     OW67475   3.089   3.870  12.060
21879SOL    HW167476   3.082   3.966  12.056
21879SOL    HW267477   3.118   3.852  12.149
21880SOL     OW67478  14.252   4.616   7.113
21880SOL    HW167479  14.245   4.702   7.154
21880SOL    HW267480  14.243   4.554   7.185
21881SOL     OW67481   4.581  11.000   2.151
21881SOL    HW167482   4.674  11.019   2.159
21881SOL    HW267483   4.566  10.926   2.210
21882SOL     OW67484   4.876  13.556   1.186
21882SOL    HW167485   4.897  13.573   1.095
21882SOL    HW267486   4.817  13.628   1.211
21883SOL     OW67487   2.982   4.314   8.724
21883SOL    HW167488   2.928   4.258   8.668
21883SOL    HW267489   3.053   4.257   8.753
21884SOL     OW67490  13.885  11.317   7.243
21884SOL    HW167491  13.878  11.228   7.207
21884SOL    HW267492  13.940  11.306   7.321
21885SOL     OW67493   7.777  11.572   1.397
21885SOL    HW167494   7.785  11.617   1.313
21885SOL    HW267495   7.852  11.602   1.448
21886SOL     OW67496   7.715  11.722  13.189
21886SOL    HW167497   7.714  11.757  13.278
21886SOL    HW267498   7.677  11.634  13.197
21887SOL     OW67499  12.724   8.573   5.155
21887SOL    HW167500  12.773   8.495   5.128
21887SOL    HW267501  12.635   8.542   5.169
21888SOL     OW67502   3.444   6.388  11.633
21888SOL    HW167503   3.510   6.336  11.679
21888SOL    HW267504   3.484   6.474  11.621
21889SOL     OW67505   7.365   6.487   2.780
21889SOL    HW167506   7.432   6.420   2.791
21889SOL    HW267507   7.284   6.438   2.764
21890SOL     OW67508   3.043   1.739   5.782
21890SOL    HW167509   2.976   1.701   5.725
21890SOL    HW267510   2.993   1.790   5.846
21891SOL     OW67511   1.136   1.365   1.098
21891SOL    HW167512   1.163   1.398   1.184
21891SOL    HW267513   1.041   1.363   1.102
21892SOL     OW67514   6.674   8.999  12.567
21892SOL    HW167515   6.638   8.923  12.613
21892SOL    HW267516   6.624   9.003  12.485
21893SOL     OW67517   3.410   7.645   0.276
21893SOL    HW167518   3.479   7.582   0.257
21893SOL    HW267519   3.433   7.681   0.362
21894SOL     OW67520   4.761   7.645  11.161
21894SOL    HW167521   4.836   7.660  11.103
21894SOL    HW267522   4.798   7.604  11.239
21895SOL     OW67523   9.095   7.769  10.667
21895SOL    HW167524   9.186   7.742  10.658
21895SOL    HW267525   9.099   7.865  10.671
21896SOL     OW67526  14.328   9.632   2.536
21896SOL    HW167527  14.248   9.668   2.574
21896SOL    HW267528  14.302   9.544   2.506
21897SOL     OW67529   5.109   4.398   4.295
21897SOL    HW167530   5.048   4.472   4.295
21897SOL    HW267531   5.124   4.380   4.387
21898SOL     OW67532  10.154   2.031   5.249
21898SOL    HW167533  10.163   2.056   5.341
21898SOL    HW267534  10.067   1.991   5.243
21899SOL     OW67535   2.926   9.390  12.861
21899SOL    HW167536   2.926   9.467  12.804
21899SOL    HW267537   2.883   9.322  12.809
21900SOL     OW67538   2.723  12.165   6.129
21900SOL    HW167539   2.646  12.124   6.169
21900SOL    HW267540   2.794  12.104   6.146
21901SOL     OW67541   9.894   7.370   7.579
21901SOL    HW167542   9.829   7.408   7.520
21901SOL    HW267543   9.865   7.279   7.591
21902SOL     OW67544   4.725   9.141   5.397
21902SOL    HW167545   4.670   9.198   5.344
21902SOL    HW267546   4.780   9.095   5.333
21903SOL     OW67547   7.595   9.775   0.477
21903SOL    HW167548   7.546   9.856   0.464
21903SOL    HW267549   7.528   9.710   0.497
21904SOL     OW67550   3.629   6.862   8.189
21904SOL    HW167551   3.650   6.815   8.270
21904SOL    HW267552   3.538   6.890   8.200
21905SOL     OW67553   3.938  11.220   2.240
21905SOL    HW167554   3.906  11.288   2.181
21905SOL    HW267555   3.927  11.139   2.190
21906SOL     OW67556   2.622   6.526   7.449
21906SOL    HW167557   2.609   6.619   7.469
21906SOL    HW267558   2.538   6.485   7.468
21907SOL     OW67559   0.182   5.514   8.200
21907SOL    HW167560   0.277   5.526   8.204
21907SOL    HW267561   0.149   5.593   8.158
21908SOL     OW67562  12.572  11.895   0.083
21908SOL    HW167563  12.601  11.949   0.010
21908SOL    HW267564  12.554  11.809   0.044
21909SOL     OW67565   4.888   8.690   5.551
21909SOL    HW167566   4.866   8.775   5.511
21909SOL    HW267567   4.958   8.710   5.614
21910SOL     OW67568   8.160   9.110  11.268
21910SOL    HW167569   8.231   9.059  11.230
21910SOL    HW267570   8.204   9.172  11.326
21911SOL     OW67571  14.644   6.709  11.493
21911SOL    HW167572  14.573   6.769  11.471
21911SOL    HW267573  14.648   6.649  11.419
21912SOL     OW67574  12.018   1.350  10.300
21912SOL    HW167575  11.939   1.305  10.271
21912SOL    HW267576  11.998   1.377  10.390
21913SOL     OW67577  14.738  12.841  12.336
21913SOL    HW167578  14.677  12.910  12.364
21913SOL    HW267579  14.688  12.789  12.273
21914SOL     OW67580   6.323  12.689   2.792
21914SOL    HW167581   6.384  12.689   2.865
21914SOL    HW267582   6.378  12.689   2.714
21915SOL     OW67583  10.010  13.559   7.697
21915SOL    HW167584   9.982  13.536   7.608
21915SOL    HW267585   9.958  13.503   7.754
21916SOL     OW67586  14.733   5.011   8.586
21916SOL    HW167587  14.653   4.964   8.609
21916SOL    HW267588  14.800   4.973   8.642
21917SOL     OW67589   9.017   3.776   3.865
21917SOL    HW167590   9.106   3.750   3.844
21917SOL    HW267591   8.964   3.738   3.794
21918SOL     OW67592   7.735   2.623  11.271
21918SOL    HW167593   7.815   2.610  11.220
21918SOL    HW267594   7.671   2.564  11.232
21919SOL     OW67595  13.508   5.945   5.573
21919SOL    HW167596  13.487   5.852   5.587
21919SOL    HW267597  13.529   5.950   5.479
21920SOL     OW67598   8.563   2.001   2.730
21920SOL    HW167599   8.616   2.018   2.808
21920SOL    HW267600   8.610   1.932   2.684
21921SOL     OW67601   1.867   2.943  14.597
21921SOL    HW167602   1.785   2.901  14.620
21921SOL    HW267603   1.933   2.899  14.652
21922SOL     OW67604   8.376  11.742  12.213
21922SOL    HW167605   8.402  11.674  12.275
21922SOL    HW267606   8.430  11.727  12.136
21923SOL     OW67607   8.086   1.682   6.823
21923SOL    HW167608   8.037   1.756   6.858
21923SOL    HW267609   8.018   1.623   6.789
21924SOL     OW67610   9.599   6.619   6.265
21924SOL    HW167611   9.621   6.530   6.292
21924SOL    HW267612   9.584   6.666   6.347
21925SOL     OW67613   0.330   0.633   2.802
21925SOL    HW167614   0.359   0.580   2.876
21925SOL    HW267615   0.304   0.569   2.736
21926SOL     OW67616   5.421  14.607   3.728
21926SOL    HW167617   5.447  14.539   3.667
21926SOL    HW267618   5.469  14.685   3.699
21927SOL     OW67619   2.381   3.507   0.277
21927SOL    HW167620   2.322   3.447   0.321
21927SOL    HW267621   2.326   3.582   0.254
21928SOL     OW67622   9.488   5.754   3.313
21928SOL    HW167623   9.462   5.845   3.295
21928SOL    HW267624   9.573   5.744   3.270
21929SOL     OW67625   9.092  12.339  13.920
21929SOL    HW167626   9.102  12.427  13.956
21929SOL    HW267627   9.002  12.337  13.887
21930SOL     OW67628   4.541   3.727   5.634
21930SOL    HW167629   4.612   3.791   5.626
21930SOL    HW267630   4.530   3.692   5.546
21931SOL     OW67631   3.892   2.079   9.172
21931SOL    HW167632   3.873   2.125   9.090
21931SOL    HW267633   3.955   2.135   9.217
21932SOL     OW67634   0.054   9.416   6.227
21932SOL    HW167635   0.084   9.386   6.313
21932SOL    HW267636  14.872   9.345   6.195
21933SOL     OW67637   6.540   0.651   8.480
21933SOL    HW167638   6.463   0.704   8.502
21933SOL    HW267639   6.550   0.660   8.385
21934SOL     OW67640   8.375   2.638  11.841
21934SOL    HW167641   8.280   2.648  11.848
21934SOL    HW267642   8.403   2.716  11.792
21935SOL     OW67643   8.634   0.779   8.834
21935SOL    HW167644   8.670   0.784   8.923
21935SOL    HW267645   8.586   0.697   8.832
21936SOL     OW67646  13.148   5.665  13.770
21936SOL    HW167647  13.070   5.716  13.746
21936SOL    HW267648  13.114   5.593  13.822
21937SOL     OW67649   2.870   1.088  14.690
21937SOL    HW167650   2.911   1.131  14.765
21937SOL    HW267651   2.906   1.133  14.614
21938SOL     OW67652  10.456   9.248   0.657
21938SOL    HW167653  10.428   9.303   0.585
21938SOL    HW267654  10.476   9.163   0.617
21939SOL     OW67655   6.948  11.423  10.883
21939SOL    HW167656   6.880  11.372  10.839
21939SOL    HW267657   7.023  11.418  10.824
21940SOL     OW67658   3.520   8.182   3.805
21940SOL    HW167659   3.502   8.222   3.891
21940SOL    HW267660   3.610   8.208   3.786
21941SOL     OW67661  11.658   4.242   5.024
21941SOL    HW167662  11.642   4.298   4.948
21941SOL    HW267663  11.747   4.263   5.051
21942SOL     OW67664   3.853   3.124   0.334
21942SOL    HW167665   3.923   3.165   0.385
21942SOL    HW267666   3.886   3.037   0.312
21943SOL     OW67667   9.509  14.820   1.741
21943SOL    HW167668   9.592  14.858   1.771
21943SOL    HW267669   9.511  14.730   1.773
21944SOL     OW67670   3.773   0.959   8.811
21944SOL    HW167671   3.688   0.989   8.781
21944SOL    HW267672   3.795   0.887   8.752
21945SOL     OW67673   5.543   1.228   6.148
21945SOL    HW167674   5.604   1.204   6.218
21945SOL    HW267675   5.524   1.145   6.104
21946SOL     OW67676   2.084   2.581   3.420
21946SOL    HW167677   2.027   2.620   3.486
21946SOL    HW267678   2.160   2.638   3.417
21947SOL     OW67679   4.825   1.334  13.911
21947SOL    HW167680   4.773   1.381  13.845
21947SOL    HW267681   4.824   1.391  13.987
21948SOL     OW67682  13.001  13.525   2.613
21948SOL    HW167683  12.989  13.433   2.636
21948SOL    HW267684  13.040  13.524   2.526
21949SOL     OW67685   1.661   2.562   0.288
21949SOL    HW167686   1.600   2.513   0.233
21949SOL    HW267687   1.627   2.651   0.288
21950SOL     OW67688   9.722   0.665   7.147
21950SOL    HW167689   9.800   0.714   7.172
21950SOL    HW267690   9.655   0.731   7.130
21951SOL     OW67691  13.107   5.512   5.442
21951SOL    HW167692  13.167   5.572   5.397
21951SOL    HW267693  13.082   5.449   5.374
21952SOL     OW67694  14.343   3.700  14.644
21952SOL    HW167695  14.388   3.626  14.684
21952SOL    HW267696  14.278   3.727  14.709
21953SOL     OW67697  12.792   1.857   0.743
21953SOL    HW167698  12.750   1.781   0.784
21953SOL    HW267699  12.819   1.825   0.657
21954SOL     OW67700   1.371   3.981  13.432
21954SOL    HW167701   1.410   3.908  13.384
21954SOL    HW267702   1.446   4.030  13.466
21955SOL     OW67703   1.381   3.287  13.085
21955SOL    HW167704   1.464   3.239  13.089
21955SOL    HW267705   1.406   3.379  13.092
21956SOL     OW67706  14.766   3.036   3.888
21956SOL    HW167707  14.783   3.126   3.915
21956SOL    HW267708  14.847   2.989   3.909
21957SOL     OW67709   8.063   4.778   1.998
21957SOL    HW167710   8.048   4.691   2.034
21957SOL    HW267711   8.006   4.835   2.048
21958SOL     OW67712  14.480   7.686   3.509
21958SOL    HW167713  14.470   7.658   3.600
21958SOL    HW267714  14.495   7.605   3.461
21959SOL     OW67715   4.845  12.192   8.700
21959SOL    HW167716   4.834  12.287   8.706
21959SOL    HW267717   4.756  12.157   8.703
21960SOL     OW67718   8.424   2.877  10.793
21960SOL    HW167719   8.405   2.899  10.702
21960SOL    HW267720   8.505   2.924  10.813
21961SOL     OW67721   2.334   9.978  11.239
21961SOL    HW167722   2.400   9.978  11.308
21961SOL    HW267723   2.353  10.056  11.187
21962SOL     OW67724  10.774   5.569   9.968
21962SOL    HW167725  10.695   5.523   9.940
21962SOL    HW267726  10.741   5.649  10.010
21963SOL     OW67727   5.988   7.318  11.305
21963SOL    HW167728   6.074   7.334  11.344
21963SOL    HW267729   5.936   7.394  11.329
21964SOL     OW67730   4.926   7.754   5.459
21964SOL    HW167731   5.001   7.710   5.419
21964SOL    HW267732   4.936   7.846   5.434
21965SOL     OW67733   0.534   3.039  14.827
21965SOL    HW167734   0.566   3.121  14.863
21965SOL    HW267735   0.464   3.011   0.012
21966SOL     OW67736  14.201   2.114  12.875
21966SOL    HW167737  14.141   2.186  12.896
21966SOL    HW267738  14.265   2.115  12.947
21967SOL     OW67739  13.189   9.623   4.582
21967SOL    HW167740  13.278   9.629   4.549
21967SOL    HW267741  13.136   9.669   4.516
21968SOL     OW67742  12.722  11.521   5.284
21968SOL    HW167743  12.750  11.434   5.257
21968SOL    HW267744  12.769  11.537   5.365
21969SOL     OW67745   3.682   7.531   7.974
21969SOL    HW167746   3.754   7.491   7.925
21969SOL    HW267747   3.703   7.625   7.974
21970SOL     OW67748  10.005   4.281   2.829
21970SOL    HW167749   9.983   4.273   2.736
21970SOL    HW267750  10.085   4.229   2.838
21971SOL     OW67751   5.258  12.461   0.200
21971SOL    HW167752   5.165  12.441   0.194
21971SOL    HW267753   5.265  12.523   0.273
21972SOL     OW67754   3.067   4.595   0.091
21972SOL    HW167755   3.098   4.665   0.034
21972SOL    HW267756   3.072   4.632   0.179
21973SOL     OW67757  13.495   0.921  10.078
21973SOL    HW167758  13.457   1.009  10.075
21973SOL    HW267759  13.426   0.866  10.116
21974SOL     OW67760   8.290   8.175  14.174
21974SOL    HW167761   8.277   8.155  14.266
21974SOL    HW267762   8.380   8.205  14.168
21975SOL     OW67763   8.364   8.206   9.630
21975SOL    HW167764   8.284   8.206   9.577
21975SOL    HW267765   8.334   8.188   9.719
21976SOL     OW67766  13.971   1.050   6.295
21976SOL    HW167767  14.015   1.039   6.211
21976SOL    HW267768  13.880   1.069   6.272
21977SOL     OW67769   4.500  12.776   0.321
21977SOL    HW167770   4.574  12.729   0.360
21977SOL    HW267771   4.511  12.763   0.227
21978SOL     OW67772   7.839   6.927   7.062
21978SOL    HW167773   7.780   6.921   7.138
21978SOL    HW267774   7.924   6.951   7.099
21979SOL     OW67775  10.910   9.582   3.466
21979SOL    HW167776  10.994   9.609   3.502
21979SOL    HW267777  10.869   9.664   3.437
21980SOL     OW67778   6.211   0.368   9.593
21980SOL    HW167779   6.123   0.353   9.558
21980SOL    HW267780   6.229   0.291   9.646
21981SOL     OW67781  10.734   6.235   3.029
21981SOL    HW167782  10.668   6.242   2.960
21981SOL    HW267783  10.714   6.153   3.074
21982SOL     OW67784   5.531   6.531   4.903
21982SOL    HW167785   5.485   6.447   4.900
21982SOL    HW267786   5.469   6.593   4.865
21983SOL     OW67787  11.020  10.078   0.419
21983SOL    HW167788  11.065  10.033   0.491
21983SOL    HW267789  11.083  10.142   0.387
21984SOL     OW67790  11.355   3.697   9.947
21984SOL    HW167791  11.399   3.772   9.988
21984SOL    HW267792  11.410   3.622   9.969
21985SOL     OW67793   6.036   9.167   7.296
21985SOL    HW167794   6.057   9.132   7.209
21985SOL    HW267795   6.004   9.091   7.345
21986SOL     OW67796   8.741  10.196   8.095
21986SOL    HW167797   8.729  10.131   8.164
21986SOL    HW267798   8.668  10.257   8.107
21987SOL     OW67799   5.085   6.156   8.348
21987SOL    HW167800   5.009   6.193   8.304
21987SOL    HW267801   5.082   6.062   8.327
21988SOL     OW67802   8.708  13.020  11.389
21988SOL    HW167803   8.631  13.048  11.339
21988SOL    HW267804   8.782  13.056  11.342
21989SOL     OW67805   8.914   2.261  10.955
21989SOL    HW167806   8.888   2.334  10.899
21989SOL    HW267807   8.971   2.300  11.021
21990SOL     OW67808   1.765   0.881  10.099
21990SOL    HW167809   1.827   0.921  10.160
21990SOL    HW267810   1.799   0.793  10.085
21991SOL     OW67811   8.355   1.135   4.086
21991SOL    HW167812   8.300   1.210   4.061
21991SOL    HW267813   8.432   1.175   4.125
21992SOL     OW67814   4.553   2.157   0.649
21992SOL    HW167815   4.565   2.193   0.737
21992SOL    HW267816   4.471   2.197   0.618
21993SOL     OW67817  13.232   4.027   6.622
21993SOL    HW167818  13.250   4.111   6.664
21993SOL    HW267819  13.185   4.050   6.541
21994SOL     OW67820   5.535   2.693   7.180
21994SOL    HW167821   5.551   2.779   7.142
21994SOL    HW267822   5.479   2.711   7.256
21995SOL     OW67823  10.743   9.297   4.941
21995SOL    HW167824  10.682   9.270   4.872
21995SOL    HW267825  10.752   9.391   4.929
21996SOL     OW67826  14.267   4.213   5.157
21996SOL    HW167827  14.285   4.200   5.064
21996SOL    HW267828  14.345   4.180   5.202
21997SOL     OW67829   3.612   9.272   3.622
21997SOL    HW167830   3.622   9.360   3.584
21997SOL    HW267831   3.560   9.286   3.701
21998SOL     OW67832   8.755   9.647   8.694
21998SOL    HW167833   8.739   9.665   8.602
21998SOL    HW267834   8.845   9.675   8.709
21999SOL     OW67835  13.339   2.514   8.848
21999SOL    HW167836  13.412   2.571   8.873
21999SOL    HW267837  13.357   2.491   8.757
22000SOL     OW67838   3.759   0.869   0.746
22000SOL    HW167839   3.811   0.875   0.826
22000SOL    HW267840   3.813   0.816   0.687
22001SOL     OW67841   4.641   0.445  12.462
22001SOL    HW167842   4.563   0.449  12.406
22001SOL    HW267843   4.653   0.536  12.491
22002SOL     OW67844   1.960  12.202  11.842
22002SOL    HW167845   1.966  12.147  11.764
22002SOL    HW267846   1.952  12.291  11.808
22003SOL     OW67847  14.261   9.111   0.401
22003SOL    HW167848  14.308   9.029   0.387
22003SOL    HW267849  14.319   9.162   0.458
22004SOL     OW67850  13.028   1.160  14.623
22004SOL    HW167851  13.065   1.231  14.571
22004SOL    HW267852  13.001   1.201  14.705
22005SOL     OW67853  13.239   2.745   7.508
22005SOL    HW167854  13.247   2.829   7.552
22005SOL    HW267855  13.172   2.760   7.441
22006SOL     OW67856  13.396   6.230   5.142
22006SOL    HW167857  13.315   6.281   5.148
22006SOL    HW267858  13.366   6.139   5.141
22007SOL     OW67859   5.838  14.282   0.520
22007SOL    HW167860   5.819  14.324   0.604
22007SOL    HW267861   5.920  14.322   0.491
22008SOL     OW67862   7.093   4.583   8.651
22008SOL    HW167863   7.130   4.668   8.677
22008SOL    HW267864   7.141   4.560   8.572
22009SOL     OW67865  11.018   7.699   2.317
22009SOL    HW167866  10.929   7.693   2.282
22009SOL    HW267867  11.075   7.698   2.240
22010SOL     OW67868  13.203  14.733  14.716
22010SOL    HW167869  13.192  14.665  14.649
22010SOL    HW267870  13.258  14.799  14.674
22011SOL     OW67871   6.324   6.644  12.213
22011SOL    HW167872   6.377   6.677  12.286
22011SOL    HW267873   6.312   6.551  12.233
22012SOL     OW67874   0.165   2.004   6.702
22012SOL    HW167875   0.135   2.076   6.757
22012SOL    HW267876   0.132   2.025   6.614
22013SOL     OW67877  12.349   5.258  13.821
22013SOL    HW167878  12.263   5.222  13.800
22013SOL    HW267879  12.398   5.184  13.858
22014SOL     OW67880   5.321   7.054   6.663
22014SOL    HW167881   5.344   7.010   6.581
22014SOL    HW267882   5.401   7.098   6.690
22015SOL     OW67883   0.304  10.113   7.655
22015SOL    HW167884   0.392  10.143   7.678
22015SOL    HW267885   0.312  10.018   7.647
22016SOL     OW67886   6.436  14.694   1.448
22016SOL    HW167887   6.408  14.693   1.539
22016SOL    HW267888   6.485  14.776   1.439
22017SOL     OW67889  14.112   6.168   8.291
22017SOL    HW167890  14.169   6.244   8.307
22017SOL    HW267891  14.037   6.204   8.245
22018SOL     OW67892   2.902  12.673   6.242
22018SOL    HW167893   2.825  12.689   6.296
22018SOL    HW267894   2.878  12.598   6.187
22019SOL     OW67895   1.921   5.355  14.444
22019SOL    HW167896   1.916   5.293  14.517
22019SOL    HW267897   1.897   5.439  14.483
22020SOL     OW67898   9.897   2.164   1.111
22020SOL    HW167899   9.884   2.083   1.160
22020SOL    HW267900   9.809   2.197   1.094
22021SOL     OW67901  11.507   4.992   9.030
22021SOL    HW167902  11.530   5.085   9.025
22021SOL    HW267903  11.590   4.946   9.018
22022SOL     OW67904   0.491  12.554   0.506
22022SOL    HW167905   0.497  12.629   0.565
22022SOL    HW267906   0.579  12.545   0.469
22023SOL     OW67907   2.445  11.001   4.367
22023SOL    HW167908   2.458  11.053   4.447
22023SOL    HW267909   2.350  10.991   4.360
22024SOL     OW67910  14.230   4.916   1.575
22024SOL    HW167911  14.215   4.856   1.647
22024SOL    HW267912  14.238   5.002   1.617
22025SOL     OW67913   8.342   2.576  11.351
22025SOL    HW167914   8.361   2.533  11.267
22025SOL    HW267915   8.427   2.584  11.394
22026SOL     OW67916   7.070  13.953  12.430
22026SOL    HW167917   7.058  13.866  12.467
22026SOL    HW267918   6.990  13.970  12.380
22027SOL     OW67919   7.206  11.312   9.901
22027SOL    HW167920   7.146  11.384   9.881
22027SOL    HW267921   7.279  11.354   9.946
22028SOL     OW67922  14.038   5.200  11.233
22028SOL    HW167923  14.101   5.139  11.193
22028SOL    HW267924  13.977   5.221  11.163
22029SOL     OW67925  13.635   8.790  11.052
22029SOL    HW167926  13.599   8.790  10.964
22029SOL    HW267927  13.640   8.883  11.075
22030SOL     OW67928   7.824   7.481  11.198
22030SOL    HW167929   7.750   7.423  11.180
22030SOL    HW267930   7.802   7.563  11.153
22031SOL     OW67931   4.166   6.778  13.337
22031SOL    HW167932   4.168   6.747  13.247
22031SOL    HW267933   4.254   6.761  13.370
22032SOL     OW67934   6.290   9.320  14.734
22032SOL    HW167935   6.309   9.413  14.747
22032SOL    HW267936   6.305   9.280  14.820
22033SOL     OW67937   3.535  11.207   1.809
22033SOL    HW167938   3.510  11.116   1.797
22033SOL    HW267939   3.631  11.205   1.815
22034SOL     OW67940   4.861  11.229  10.318
22034SOL    HW167941   4.947  11.258  10.286
22034SOL    HW267942   4.881  11.159  10.379
22035SOL     OW67943  14.549  11.962  10.134
22035SOL    HW167944  14.492  11.886  10.146
22035SOL    HW267945  14.519  12.001  10.052
22036SOL     OW67946  14.488  14.042  10.274
22036SOL    HW167947  14.415  13.981  10.269
22036SOL    HW267948  14.466  14.100  10.347
22037SOL     OW67949  14.113  14.079   8.597
22037SOL    HW167950  14.032  14.062   8.644
22037SOL    HW267951  14.125  14.174   8.603
22038SOL     OW67952   6.346   4.231   7.739
22038SOL    HW167953   6.410   4.186   7.684
22038SOL    HW267954   6.388   4.315   7.759
22039SOL     OW67955   8.416   7.610   6.200
22039SOL    HW167956   8.412   7.686   6.143
22039SOL    HW267957   8.324   7.589   6.217
22040SOL     OW67958   0.642  13.386   5.503
22040SOL    HW167959   0.718  13.329   5.499
22040SOL    HW267960   0.630  13.419   5.414
22041SOL     OW67961   5.969  10.169   9.218
22041SOL    HW167962   5.980  10.177   9.123
22041SOL    HW267963   5.874  10.169   9.231
22042SOL     OW67964   2.077   9.067   8.329
22042SOL    HW167965   2.016   9.073   8.255
22042SOL    HW267966   2.125   9.150   8.327
22043SOL     OW67967  14.299   0.705   0.214
22043SOL    HW167968  14.264   0.712   0.125
22043SOL    HW267969  14.353   0.626   0.212
22044SOL     OW67970  11.383  12.963   8.624
22044SOL    HW167971  11.384  12.995   8.534
22044SOL    HW267972  11.321  12.890   8.622
22045SOL     OW67973   7.739  10.768   5.396
22045SOL    HW167974   7.704  10.847   5.438
22045SOL    HW267975   7.744  10.791   5.303
22046SOL     OW67976   1.908  14.638  11.058
22046SOL    HW167977   1.882  14.730  11.057
22046SOL    HW267978   1.862  14.602  11.135
22047SOL     OW67979   2.471   2.223   1.026
22047SOL    HW167980   2.550   2.203   1.077
22047SOL    HW267981   2.435   2.138   1.003
22048SOL     OW67982   7.364  12.878   2.880
22048SOL    HW167983   7.354  12.965   2.921
22048SOL    HW267984   7.316  12.885   2.797
22049SOL     OW67985   9.843   3.946   7.362
22049SOL    HW167986   9.828   3.962   7.269
22049SOL    HW267987   9.919   4.000   7.383
22050SOL     OW67988   0.580  12.296   5.941
22050SOL    HW167989   0.599  12.318   5.850
22050SOL    HW267990   0.664  12.305   5.986
22051SOL     OW67991   2.370   2.302  11.975
22051SOL    HW167992   2.311   2.282  11.902
22051SOL    HW267993   2.449   2.251  11.957
22052SOL     OW67994   3.078   6.617   9.280
22052SOL    HW167995   2.995   6.660   9.259
22052SOL    HW267996   3.090   6.554   9.209
22053SOL     OW67997   7.520   8.215   1.019
22053SOL    HW167998   7.482   8.163   0.949
22053SOL    HW267999   7.563   8.151   1.076
22054SOL     OW68000  14.109  11.423  11.451
22054SOL    HW168001  14.061  11.347  11.484
22054SOL    HW268002  14.145  11.465  11.529
22055SOL     OW68003  14.196  13.207   4.211
22055SOL    HW168004  14.144  13.135   4.245
22055SOL    HW268005  14.133  13.277   4.195
22056SOL     OW68006   6.315   7.009   7.791
22056SOL    HW168007   6.249   7.073   7.764
22056SOL    HW268008   6.309   7.008   7.887
22057SOL     OW68009   8.767   8.363  11.524
22057SOL    HW168010   8.726   8.419  11.458
22057SOL    HW268011   8.819   8.301  11.472
22058SOL     OW68012   9.091   7.941   5.039
22058SOL    HW168013   9.077   7.876   5.107
22058SOL    HW268014   9.181   7.925   5.008
22059SOL     OW68015  11.727  12.637   1.039
22059SOL    HW168016  11.710  12.543   1.035
22059SOL    HW268017  11.643  12.678   1.020
22060SOL     OW68018  12.040  10.528   8.422
22060SOL    HW168019  12.045  10.559   8.512
22060SOL    HW268020  11.964  10.574   8.385
22061SOL     OW68021  14.343  12.150  14.246
22061SOL    HW168022  14.422  12.110  14.212
22061SOL    HW268023  14.308  12.201  14.173
22062SOL     OW68024   5.847   9.870   8.662
22062SOL    HW168025   5.930   9.902   8.696
22062SOL    HW268026   5.871   9.798   8.604
22063SOL     OW68027  12.210   5.794   9.129
22063SOL    HW168028  12.216   5.888   9.113
22063SOL    HW268029  12.281   5.776   9.191
22064SOL     OW68030  11.758   5.386   6.749
22064SOL    HW168031  11.735   5.391   6.842
22064SOL    HW268032  11.834   5.328   6.746
22065SOL     OW68033   4.906   1.470   5.831
22065SOL    HW168034   4.856   1.520   5.896
22065SOL    HW268035   4.985   1.444   5.877
22066SOL     OW68036   5.818  14.387   4.324
22066SOL    HW168037   5.812  14.308   4.378
22066SOL    HW268038   5.797  14.358   4.236
22067SOL     OW68039   1.482   3.305   1.207
22067SOL    HW168040   1.528   3.225   1.234
22067SOL    HW268041   1.551   3.363   1.175
22068SOL     OW68042   3.539   6.730  10.276
22068SOL    HW168043   3.611   6.690  10.227
22068SOL    HW268044   3.471   6.663  10.277
22069SOL     OW68045   0.861   2.161   7.735
22069SOL    HW168046   0.819   2.080   7.706
22069SOL    HW268047   0.901   2.197   7.656
22070SOL     OW68048   0.246  13.575  10.994
22070SOL    HW168049   0.152  13.559  10.981
22070SOL    HW268050   0.250  13.660  11.038
22071SOL     OW68051   2.445  12.970  14.025
22071SOL    HW168052   2.355  12.994  14.047
22071SOL    HW268053   2.465  13.023  13.948
22072SOL     OW68054  13.253   1.845   6.741
22072SOL    HW168055  13.338   1.889   6.746
22072SOL    HW268056  13.255   1.784   6.815
22073SOL     OW68057  13.412  10.412   2.815
22073SOL    HW168058  13.411  10.496   2.770
22073SOL    HW268059  13.489  10.367   2.780
22074SOL     OW68060  10.044   1.133  14.680
22074SOL    HW168061  10.015   1.051  14.638
22074SOL    HW268062   9.976   1.154  14.743
22075SOL     OW68063   1.952  10.069   0.073
22075SOL    HW168064   1.869  10.026   0.095
22075SOL    HW268065   2.015   9.997   0.066
22076SOL     OW68066   2.145   1.595  12.063
22076SOL    HW168067   2.193   1.541  12.125
22076SOL    HW268068   2.053   1.580  12.083
22077SOL     OW68069   6.909  13.243   6.905
22077SOL    HW168070   6.967  13.267   6.977
22077SOL    HW268071   6.939  13.296   6.832
22078SOL     OW68072  13.193  13.148   8.513
22078SOL    HW168073  13.152  13.062   8.509
22078SOL    HW268074  13.120  13.209   8.526
22079SOL     OW68075   4.957   9.341  10.923
22079SOL    HW168076   4.968   9.285  11.000
22079SOL    HW268077   4.893   9.296  10.869
22080SOL     OW68078   2.792  14.764  11.658
22080SOL    HW168079   2.747  14.820  11.595
22080SOL    HW268080   2.885  14.774  11.637
22081SOL     OW68081   8.051  14.480   3.122
22081SOL    HW168082   8.053  14.459   3.215
22081SOL    HW268083   7.972  14.438   3.089
22082SOL     OW68084   3.337   0.647   2.433
22082SOL    HW168085   3.256   0.685   2.399
22082SOL    HW268086   3.399   0.720   2.433
22083SOL     OW68087   4.634  10.445   1.100
22083SOL    HW168088   4.631  10.354   1.070
22083SOL    HW268089   4.544  10.475   1.097
22084SOL     OW68090  10.640   5.871   0.948
22084SOL    HW168091  10.602   5.817   1.017
22084SOL    HW268092  10.569   5.930   0.923
22085SOL     OW68093   0.597  13.560   7.279
22085SOL    HW168094   0.612  13.640   7.330
22085SOL    HW268095   0.611  13.587   7.188
22086SOL     OW68096   0.583   5.975  10.694
22086SOL    HW168097   0.532   6.034  10.750
22086SOL    HW268098   0.649   5.938  10.752
22087SOL     OW68099   1.846   4.809  11.383
22087SOL    HW168100   1.825   4.716  11.385
22087SOL    HW268101   1.831   4.839  11.473
22088SOL     OW68102   4.780   9.555   1.179
22088SOL    HW168103   4.855   9.516   1.137
22088SOL    HW268104   4.755   9.628   1.122
22089SOL     OW68105   6.467   2.058   7.119
22089SOL    HW168106   6.496   1.968   7.134
22089SOL    HW268107   6.542   2.100   7.077
22090SOL     OW68108  11.895   1.555   0.985
22090SOL    HW168109  11.947   1.564   0.905
22090SOL    HW268110  11.914   1.466   1.015
22091SOL     OW68111   7.484   0.204  12.880
22091SOL    HW168112   7.473   0.256  12.801
22091SOL    HW268113   7.422   0.132  12.871
22092SOL     OW68114   3.433   8.040   5.630
22092SOL    HW168115   3.422   8.124   5.585
22092SOL    HW268116   3.509   8.000   5.587
22093SOL     OW68117   1.819   1.019   4.610
22093SOL    HW168118   1.843   0.933   4.644
22093SOL    HW268119   1.789   1.068   4.687
22094SOL     OW68120   8.021   1.141   7.740
22094SOL    HW168121   7.942   1.109   7.783
22094SOL    HW268122   8.005   1.127   7.647
22095SOL     OW68123  14.646  13.594  11.427
22095SOL    HW168124  14.653  13.508  11.387
22095SOL    HW268125  14.616  13.576  11.517
22096SOL     OW68126   9.988   8.622   5.113
22096SOL    HW168127   9.970   8.528   5.114
22096SOL    HW268128   9.901   8.663   5.117
22097SOL     OW68129   6.909  11.725   8.795
22097SOL    HW168130   6.970  11.745   8.724
22097SOL    HW268131   6.964  11.712   8.872
22098SOL     OW68132  13.466  14.607   8.264
22098SOL    HW168133  13.372  14.621   8.280
22098SOL    HW268134  13.484  14.657   8.184
22099SOL     OW68135  13.235   0.421   2.003
22099SOL    HW168136  13.324   0.405   1.969
22099SOL    HW268137  13.228   0.364   2.080
22100SOL     OW68138   3.238  11.125  12.124
22100SOL    HW168139   3.154  11.171  12.123
22100SOL    HW268140   3.291  11.173  12.060
22101SOL     OW68141  14.869   9.448   4.999
22101SOL    HW168142  14.804   9.436   5.068
22101SOL    HW268143  14.868   9.365   4.951
22102SOL     OW68144   6.197   6.481  13.282
22102SOL    HW168145   6.244   6.535  13.219
22102SOL    HW268146   6.140   6.425  13.229
22103SOL     OW68147  10.643   9.068   2.024
22103SOL    HW168148  10.608   9.110   2.102
22103SOL    HW268149  10.572   9.011   1.993
22104SOL     OW68150  13.419   8.037  10.532
22104SOL    HW168151  13.412   8.106  10.598
22104SOL    HW268152  13.406   7.956  10.580
22105SOL     OW68153   1.661  12.182   6.544
22105SOL    HW168154   1.745  12.228   6.545
22105SOL    HW268155   1.597  12.250   6.564
22106SOL     OW68156   5.291   1.391   4.916
22106SOL    HW168157   5.236   1.313   4.908
22106SOL    HW268158   5.380   1.357   4.923
22107SOL     OW68159   1.840   0.281   5.219
22107SOL    HW168160   1.925   0.320   5.198
22107SOL    HW268161   1.776   0.347   5.190
22108SOL     OW68162   7.653   7.612   7.494
22108SOL    HW168163   7.733   7.612   7.546
22108SOL    HW268164   7.650   7.525   7.454
22109SOL     OW68165  10.687   6.124   7.853
22109SOL    HW168166  10.694   6.063   7.779
22109SOL    HW268167  10.678   6.067   7.929
22110SOL     OW68168  11.907  12.250   1.847
22110SOL    HW168169  11.898  12.244   1.942
22110SOL    HW268170  11.981  12.310   1.834
22111SOL     OW68171   0.844   9.873   1.883
22111SOL    HW168172   0.906   9.804   1.861
22111SOL    HW268173   0.899   9.948   1.907
22112SOL     OW68174  11.454   2.934  11.149
22112SOL    HW168175  11.493   2.993  11.214
22112SOL    HW268176  11.419   2.862  11.201
22113SOL     OW68177   1.468   8.803   9.703
22113SOL    HW168178   1.423   8.742   9.761
22113SOL    HW268179   1.398   8.846   9.654
22114SOL     OW68180  11.834   7.762   7.322
22114SOL    HW168181  11.779   7.834   7.353
22114SOL    HW268182  11.773   7.699   7.284
22115SOL     OW68183  13.671   9.728   7.470
22115SOL    HW168184  13.740   9.792   7.483
22115SOL    HW268185  13.718   9.649   7.441
22116SOL     OW68186   5.641   0.990  14.703
22116SOL    HW168187   5.696   0.943  14.766
22116SOL    HW268188   5.657   0.948  14.619
22117SOL     OW68189   2.952  12.968   6.226
22117SOL    HW168190   2.920  12.885   6.191
22117SOL    HW268191   2.977  12.948   6.316
22118SOL     OW68192   3.889   0.055   7.601
22118SOL    HW168193   3.843   0.101   7.531
22118SOL    HW268194   3.885  14.837   7.577
22119SOL     OW68195  13.984  10.730   0.956
22119SOL    HW168196  13.990  10.740   1.051
22119SOL    HW268197  14.074  10.713   0.928
22120SOL     OW68198   6.592   7.527   4.330
22120SOL    HW168199   6.592   7.568   4.417
22120SOL    HW268200   6.506   7.485   4.323
22121SOL     OW68201   0.788   2.267  14.091
22121SOL    HW168202   0.840   2.335  14.134
22121SOL    HW268203   0.781   2.296  14.000
22122SOL     OW68204  13.772   8.028  13.755
22122SOL    HW168205  13.859   8.002  13.724
22122SOL    HW268206  13.768   8.122  13.737
22123SOL     OW68207   2.194  14.385   3.553
22123SOL    HW168208   2.131  14.432   3.499
22123SOL    HW268209   2.177  14.292   3.535
22124SOL     OW68210   4.142  10.058   7.908
22124SOL    HW168211   4.111  10.142   7.875
22124SOL    HW268212   4.175  10.012   7.830
22125SOL     OW68213   8.658   4.649   5.404
22125SOL    HW168214   8.597   4.723   5.416
22125SOL    HW268215   8.734   4.688   5.363
22126SOL     OW68216   4.603   2.799   8.051
22126SOL    HW168217   4.696   2.782   8.035
22126SOL    HW268218   4.561   2.714   8.042
22127SOL     OW68219  14.063   0.580   8.065
22127SOL    HW168220  14.088   0.489   8.085
22127SOL    HW268221  14.110   0.600   7.984
22128SOL     OW68222   0.581   5.638  10.632
22128SOL    HW168223   0.624   5.692  10.698
22128SOL    HW268224   0.542   5.700  10.571
22129SOL     OW68225   1.722   0.408   3.746
22129SOL    HW168226   1.754   0.380   3.832
22129SOL    HW268227   1.749   0.338   3.687
22130SOL     OW68228   0.159  11.953  14.735
22130SOL    HW168229   0.189  11.864  14.756
22130SOL    HW268230   0.115  11.944  14.651
22131SOL     OW68231   9.212   8.920   0.258
22131SOL    HW168232   9.173   8.867   0.189
22131SOL    HW268233   9.238   9.001   0.214
22132SOL     OW68234   5.699   4.424   7.418
22132SOL    HW168235   5.710   4.432   7.513
22132SOL    HW268236   5.784   4.395   7.386
22133SOL     OW68237   6.829   6.844   2.708
22133SOL    HW168238   6.758   6.907   2.693
22133SOL    HW268239   6.786   6.759   2.714
22134SOL     OW68240  10.485   0.695   1.187
22134SOL    HW168241  10.560   0.663   1.137
22134SOL    HW268242  10.507   0.786   1.208
22135SOL     OW68243  11.428   2.862  11.479
22135SOL    HW168244  11.350   2.851  11.424
22135SOL    HW268245  11.407   2.936  11.536
22136SOL     OW68246   5.951  10.839   0.809
22136SOL    HW168247   5.863  10.843   0.770
22136SOL    HW268248   5.997  10.774   0.756
22137SOL     OW68249  13.189   1.949   1.500
22137SOL    HW168250  13.108   1.971   1.453
22137SOL    HW268251  13.219   1.868   1.459
22138SOL     OW68252  12.542  13.342   0.111
22138SOL    HW168253  12.602  13.308   0.044
22138SOL    HW268254  12.464  13.287   0.104
22139SOL     OW68255   1.030  11.119   8.877
22139SOL    HW168256   0.950  11.147   8.833
22139SOL    HW268257   0.999  11.063   8.949
22140SOL     OW68258   9.231   7.743   6.625
22140SOL    HW168259   9.216   7.828   6.667
22140SOL    HW268260   9.186   7.750   6.540
22141SOL     OW68261   0.603   6.307  13.806
22141SOL    HW168262   0.541   6.336  13.873
22141SOL    HW268263   0.603   6.377  13.741
22142SOL     OW68264  11.487  12.917   6.434
22142SOL    HW168265  11.434  12.985   6.475
22142SOL    HW268266  11.461  12.919   6.341
22143SOL     OW68267  12.807   3.719   5.939
22143SOL    HW168268  12.833   3.628   5.953
22143SOL    HW268269  12.826   3.763   6.022
22144SOL     OW68270   3.362  10.097  12.271
22144SOL    HW168271   3.431  10.127  12.212
22144SOL    HW268272   3.316  10.177  12.297
22145SOL     OW68273   9.042   6.643   5.709
22145SOL    HW168274   9.056   6.561   5.757
22145SOL    HW268275   8.947   6.645   5.693
22146SOL     OW68276   6.605   9.201   1.863
22146SOL    HW168277   6.591   9.108   1.847
22146SOL    HW268278   6.627   9.237   1.777
22147SOL     OW68279  13.315   2.860   4.025
22147SOL    HW168280  13.244   2.801   4.000
22147SOL    HW268281  13.370   2.865   3.947
22148SOL     OW68282  12.713   8.514   8.722
22148SOL    HW168283  12.668   8.529   8.639
22148SOL    HW268284  12.652   8.461   8.773
22149SOL     OW68285   9.463   5.406   6.301
22149SOL    HW168286   9.474   5.411   6.206
22149SOL    HW268287   9.391   5.466   6.319
22150SOL     OW68288   6.723   5.874  12.973
22150SOL    HW168289   6.747   5.936  12.904
22150SOL    HW268290   6.709   5.928  13.050
22151SOL     OW68291   9.652   2.457   4.868
22151SOL    HW168292   9.598   2.529   4.834
22151SOL    HW268293   9.664   2.399   4.793
22152SOL     OW68294   1.238   9.104   6.982
22152SOL    HW168295   1.312   9.144   6.936
22152SOL    HW268296   1.275   9.026   7.023
22153SOL     OW68297  11.084   2.241   9.503
22153SOL    HW168298  11.010   2.200   9.548
22153SOL    HW268299  11.080   2.333   9.531
22154SOL     OW68300   5.252   2.334   8.043
22154SOL    HW168301   5.284   2.348   7.954
22154SOL    HW268302   5.327   2.297   8.090
22155SOL     OW68303   9.283   8.915   8.363
22155SOL    HW168304   9.189   8.905   8.373
22155SOL    HW268305   9.294   8.995   8.312
22156SOL     OW68306   0.999   4.998   6.118
22156SOL    HW168307   0.915   5.030   6.083
22156SOL    HW268308   0.976   4.964   6.205
22157SOL     OW68309   6.003  14.488   3.582
22157SOL    HW168310   6.081  14.464   3.632
22157SOL    HW268311   6.022  14.575   3.547
22158SOL     OW68312   4.286  12.256   8.020
22158SOL    HW168313   4.244  12.268   8.105
22158SOL    HW268314   4.322  12.342   7.998
22159SOL     OW68315  10.964   0.958  11.353
22159SOL    HW168316  10.938   1.015  11.425
22159SOL    HW268317  11.056   0.939  11.369
22160SOL     OW68318  13.988  10.382   4.903
22160SOL    HW168319  14.065  10.368   4.848
22160SOL    HW268320  13.917  10.334   4.859
22161SOL     OW68321   8.423   4.589   3.630
22161SOL    HW168322   8.504   4.592   3.682
22161SOL    HW268323   8.452   4.567   3.542
22162SOL     OW68324   6.855  13.946   2.113
22162SOL    HW168325   6.885  13.890   2.041
22162SOL    HW268326   6.934  13.963   2.164
22163SOL     OW68327   5.906   5.043   1.368
22163SOL    HW168328   5.884   4.978   1.301
22163SOL    HW268329   5.918   4.992   1.448
22164SOL     OW68330   9.873   7.249   8.079
22164SOL    HW168331   9.923   7.170   8.056
22164SOL    HW268332   9.786   7.234   8.043
22165SOL     OW68333  11.475  10.887   8.081
22165SOL    HW168334  11.570  10.887   8.074
22165SOL    HW268335  11.452  10.795   8.092
22166SOL     OW68336  14.760   2.518   0.094
22166SOL    HW168337  14.847   2.481   0.078
22166SOL    HW268338  14.766   2.559   0.180
22167SOL     OW68339  12.893  12.402   0.653
22167SOL    HW168340  12.816  12.396   0.709
22167SOL    HW268341  12.859  12.423   0.567
22168SOL     OW68342  14.003   8.746  12.896
22168SOL    HW168343  13.922   8.796  12.886
22168SOL    HW268344  14.071   8.805  12.864
22169SOL     OW68345  13.035   3.751   6.737
22169SOL    HW168346  13.016   3.767   6.644
22169SOL    HW268347  12.954   3.713   6.772
22170SOL     OW68348  11.657  12.889   3.972
22170SOL    HW168349  11.593  12.818   3.970
22170SOL    HW268350  11.739  12.848   3.944
22171SOL     OW68351   0.220   5.365   2.889
22171SOL    HW168352   0.141   5.415   2.871
22171SOL    HW268353   0.276   5.425   2.939
22172SOL     OW68354   8.741   7.044  11.476
22172SOL    HW168355   8.663   7.035  11.531
22172SOL    HW268356   8.740   7.135  11.447
22173SOL     OW68357   5.138   2.025   2.252
22173SOL    HW168358   5.228   2.033   2.219
22173SOL    HW268359   5.089   2.091   2.202
22174SOL     OW68360   4.573   1.298   5.817
22174SOL    HW168361   4.498   1.242   5.833
22174SOL    HW268362   4.535   1.385   5.800
22175SOL     OW68363   5.717   0.058   1.861
22175SOL    HW168364   5.748   0.072   1.951
22175SOL    HW268365   5.677  14.846   1.862
22176SOL     OW68366   5.859  13.827  11.576
22176SOL    HW168367   5.887  13.849  11.487
22176SOL    HW268368   5.869  13.732  11.582
22177SOL     OW68369   5.340  10.912   5.647
22177SOL    HW168370   5.312  10.924   5.556
22177SOL    HW268371   5.359  10.818   5.654
22178SOL     OW68372  12.097   5.938  11.994
22178SOL    HW168373  12.091   5.950  12.088
22178SOL    HW268374  12.184   5.902  11.979
22179SOL     OW68375   2.244   4.218   2.073
22179SOL    HW168376   2.277   4.307   2.059
22179SOL    HW268377   2.301   4.162   2.021
22180SOL     OW68378   9.773   7.250   8.980
22180SOL    HW168379   9.749   7.271   8.889
22180SOL    HW268380   9.788   7.155   8.979
22181SOL     OW68381   9.449  12.648   4.094
22181SOL    HW168382   9.414  12.601   4.171
22181SOL    HW268383   9.531  12.603   4.074
22182SOL     OW68384  11.090   8.028   1.399
22182SOL    HW168385  11.000   8.041   1.371
22182SOL    HW268386  11.100   8.084   1.476
22183SOL     OW68387   7.494   6.624   3.212
22183SOL    HW168388   7.456   6.704   3.174
22183SOL    HW268389   7.421   6.562   3.216
22184SOL     OW68390   1.694   0.392  11.871
22184SOL    HW168391   1.630   0.424  11.935
22184SOL    HW268392   1.700   0.298  11.888
22185SOL     OW68393   8.839   7.019   2.116
22185SOL    HW168394   8.848   7.090   2.052
22185SOL    HW268395   8.835   6.939   2.063
22186SOL     OW68396   8.825   1.200  13.145
22186SOL    HW168397   8.867   1.251  13.076
22186SOL    HW268398   8.732   1.203  13.124
22187SOL     OW68399   3.470   6.672   4.891
22187SOL    HW168400   3.419   6.600   4.854
22187SOL    HW268401   3.556   6.663   4.850
22188SOL     OW68402  12.685   5.650  10.445
22188SOL    HW168403  12.660   5.741  10.461
22188SOL    HW268404  12.685   5.641  10.350
22189SOL     OW68405   8.839   0.232   1.237
22189SOL    HW168406   8.782   0.308   1.243
22189SOL    HW268407   8.781   0.159   1.216
22190SOL     OW68408   2.903   0.808   9.985
22190SOL    HW168409   2.975   0.771  10.036
22190SOL    HW268410   2.846   0.733   9.967
22191SOL     OW68411   5.296   6.132   1.172
22191SOL    HW168412   5.311   6.090   1.256
22191SOL    HW268413   5.313   6.064   1.107
22192SOL     OW68414   1.557   6.422   2.527
22192SOL    HW168415   1.477   6.470   2.549
22192SOL    HW268416   1.533   6.366   2.453
22193SOL     OW68417   5.633   1.772   3.293
22193SOL    HW168418   5.589   1.853   3.268
22193SOL    HW268419   5.565   1.705   3.287
22194SOL     OW68420   0.267   7.360  12.893
22194SOL    HW168421   0.284   7.289  12.831
22194SOL    HW268422   0.261   7.439  12.839
22195SOL     OW68423   8.205   3.738   9.222
22195SOL    HW168424   8.201   3.681   9.146
22195SOL    HW268425   8.292   3.723   9.259
22196SOL     OW68426  11.906   3.859   6.220
22196SOL    HW168427  11.830   3.839   6.274
22196SOL    HW268428  11.893   3.808   6.140
22197SOL     OW68429  13.635  10.782   8.386
22197SOL    HW168430  13.672  10.870   8.390
22197SOL    HW268431  13.661  10.742   8.469
22198SOL     OW68432   3.604  12.762   6.533
22198SOL    HW168433   3.548  12.797   6.464
22198SOL    HW268434   3.568  12.675   6.551
22199SOL     OW68435   9.672  10.197   0.734
22199SOL    HW168436   9.660  10.254   0.658
22199SOL    HW268437   9.720  10.121   0.700
22200SOL     OW68438   1.585   2.405   0.481
22200SOL    HW168439   1.641   2.459   0.426
22200SOL    HW268440   1.524   2.466   0.521
22201SOL     OW68441   4.959   5.020   5.326
22201SOL    HW168442   4.867   5.041   5.344
22201SOL    HW268443   4.989   5.091   5.269
22202SOL     OW68444  10.043   5.038   4.716
22202SOL    HW168445  10.053   5.027   4.621
22202SOL    HW268446  10.005   4.955   4.745
22203SOL     OW68447  11.821  12.839   9.940
22203SOL    HW168448  11.736  12.881   9.950
22203SOL    HW268449  11.884  12.905   9.970
22204SOL     OW68450   7.527   1.473   3.437
22204SOL    HW168451   7.614   1.463   3.397
22204SOL    HW268452   7.491   1.385   3.438
22205SOL     OW68453   7.086   7.843  12.814
22205SOL    HW168454   7.000   7.828  12.853
22205SOL    HW268455   7.145   7.848  12.889
22206SOL     OW68456   3.686  11.350   8.198
22206SOL    HW168457   3.728  11.416   8.254
22206SOL    HW268458   3.752  11.283   8.186
22207SOL     OW68459   8.326  12.215   4.591
22207SOL    HW168460   8.342  12.309   4.575
22207SOL    HW268461   8.244  12.197   4.546
22208SOL     OW68462   5.990   9.333   0.053
22208SOL    HW168463   6.029   9.352   0.138
22208SOL    HW268464   5.896   9.344   0.068
22209SOL     OW68465  13.629  11.874   3.234
22209SOL    HW168466  13.724  11.890   3.233
22209SOL    HW268467  13.617  11.801   3.293
22210SOL     OW68468  10.380   3.145   0.483
22210SOL    HW168469  10.401   3.147   0.576
22210SOL    HW268470  10.433   3.214   0.444
22211SOL     OW68471  13.978   4.819  12.335
22211SOL    HW168472  13.946   4.900  12.374
22211SOL    HW268473  14.068   4.812  12.366
22212SOL     OW68474   0.405  14.159   9.507
22212SOL    HW168475   0.430  14.223   9.574
22212SOL    HW268476   0.403  14.075   9.554
22213SOL     OW68477   2.956   8.327   7.288
22213SOL    HW168478   2.889   8.363   7.347
22213SOL    HW268479   3.010   8.402   7.265
22214SOL     OW68480   7.600   1.505   5.726
22214SOL    HW168481   7.666   1.516   5.795
22214SOL    HW268482   7.538   1.442   5.762
22215SOL     OW68483   1.354   1.790   5.758
22215SOL    HW168484   1.312   1.803   5.843
22215SOL    HW268485   1.282   1.788   5.696
22216SOL     OW68486   6.093   6.390   7.772
22216SOL    HW168487   6.027   6.358   7.833
22216SOL    HW268488   6.043   6.431   7.701
22217SOL     OW68489   9.964   2.604  14.302
22217SOL    HW168490  10.007   2.528  14.262
22217SOL    HW268491  10.022   2.630  14.373
22218SOL     OW68492  10.237   6.394   9.898
22218SOL    HW168493  10.278   6.366   9.980
22218SOL    HW268494  10.151   6.425   9.925
22219SOL     OW68495   1.523   9.323  11.037
22219SOL    HW168496   1.594   9.305  11.098
22219SOL    HW268497   1.566   9.368  10.963
22220SOL     OW68498  12.123   3.017   5.834
22220SOL    HW168499  12.085   2.930   5.849
22220SOL    HW268500  12.173   3.007   5.752
22221SOL     OW68501   8.142   6.750  12.630
22221SOL    HW168502   8.214   6.709  12.580
22221SOL    HW268503   8.181   6.771  12.715
22222SOL     OW68504   6.627  12.713   2.289
22222SOL    HW168505   6.636  12.628   2.246
22222SOL    HW268506   6.594  12.771   2.221
22223SOL     OW68507  14.384  13.395   7.351
22223SOL    HW168508  14.404  13.446   7.430
22223SOL    HW268509  14.403  13.305   7.375
22224SOL     OW68510   8.269  10.240  10.713
22224SOL    HW168511   8.241  10.280  10.630
22224SOL    HW268512   8.205  10.169  10.727
22225SOL     OW68513   0.868   4.036   5.347
22225SOL    HW168514   0.887   4.129   5.362
22225SOL    HW268515   0.776   4.034   5.323
22226SOL     OW68516  11.013   1.794   9.321
22226SOL    HW168517  10.955   1.783   9.396
22226SOL    HW268518  10.954   1.807   9.247
22227SOL     OW68519  10.482  14.322   8.625
22227SOL    HW168520  10.421  14.358   8.690
22227SOL    HW268521  10.568  14.350   8.655
22228SOL     OW68522   4.245   5.282   8.730
22228SOL    HW168523   4.285   5.216   8.675
22228SOL    HW268524   4.304   5.358   8.723
22229SOL     OW68525  11.898   4.843   4.935
22229SOL    HW168526  11.973   4.885   4.894
22229SOL    HW268527  11.891   4.885   5.021
22230SOL     OW68528  12.787  13.756   5.910
22230SOL    HW168529  12.820  13.809   5.982
22230SOL    HW268530  12.866  13.731   5.861
22231SOL     OW68531  10.253   3.267   8.899
22231SOL    HW168532  10.346   3.261   8.878
22231SOL    HW268533  10.240   3.357   8.929
22232SOL     OW68534  14.170  10.730  14.212
22232SOL    HW168535  14.262  10.735  14.186
22232SOL    HW268536  14.159  10.802  14.274
22233SOL     OW68537  11.894   8.508  13.005
22233SOL    HW168538  11.924   8.511  13.095
22233SOL    HW268539  11.814   8.561  13.005
22234SOL     OW68540   9.648   3.169   5.070
22234SOL    HW168541   9.699   3.250   5.070
22234SOL    HW268542   9.660   3.133   5.158
22235SOL     OW68543   5.692   9.619  14.040
22235SOL    HW168544   5.696   9.707  14.076
22235SOL    HW268545   5.763   9.572  14.083
22236SOL     OW68546   3.669   2.168   6.266
22236SOL    HW168547   3.686   2.140   6.176
22236SOL    HW268548   3.738   2.232   6.285
22237SOL     OW68549   6.244   7.749   0.295
22237SOL    HW168550   6.285   7.680   0.348
22237SOL    HW268551   6.162   7.712   0.265
22238SOL     OW68552  13.895  14.619   0.035
22238SOL    HW168553  13.952  14.547   0.059
22238SOL    HW268554  13.898  14.679   0.109
22239SOL     OW68555   6.798   2.364   9.331
22239SOL    HW168556   6.708   2.389   9.313
22239SOL    HW268557   6.791   2.294   9.396
22240SOL     OW68558   6.519   6.332   9.979
22240SOL    HW168559   6.518   6.273  10.055
22240SOL    HW268560   6.496   6.418  10.016
22241SOL     OW68561   6.061   9.941   1.031
22241SOL    HW168562   6.149   9.929   0.995
22241SOL    HW268563   6.063  10.028   1.071
22242SOL     OW68564   0.116   7.583   7.667
22242SOL    HW168565   0.067   7.506   7.641
22242SOL    HW268566   0.180   7.596   7.597
22243SOL     OW68567   7.087   9.827  10.257
22243SOL    HW168568   7.178   9.805  10.239
22243SOL    HW268569   7.063   9.889  10.188
22244SOL     OW68570  11.925   6.724   5.403
22244SOL    HW168571  11.853   6.680   5.357
22244SOL    HW268572  11.881   6.789   5.458
22245SOL     OW68573   1.395  11.450   0.903
22245SOL    HW168574   1.340  11.390   0.953
22245SOL    HW268575   1.438  11.504   0.969
22246SOL     OW68576   5.069   3.057   9.048
22246SOL    HW168577   5.086   3.140   9.003
22246SOL    HW268578   5.156   3.025   9.073
22247SOL     OW68579   3.053   3.003   3.173
22247SOL    HW168580   3.043   3.059   3.250
22247SOL    HW268581   3.121   2.941   3.198
22248SOL     OW68582   5.336   2.660   2.279
22248SOL    HW168583   5.391   2.615   2.214
22248SOL    HW268584   5.249   2.624   2.265
22249SOL     OW68585  12.013   0.003   3.747
22249SOL    HW168586  12.065  14.800   3.770
22249SOL    HW268587  12.061   0.045   3.676
22250SOL     OW68588  13.191   1.385   5.640
22250SOL    HW168589  13.210   1.454   5.577
22250SOL    HW268590  13.252   1.315   5.619
22251SOL     OW68591   8.801  13.809  10.685
22251SOL    HW168592   8.802  13.830  10.778
22251SOL    HW268593   8.885  13.840  10.652
22252SOL     OW68594  11.848   5.957   2.457
22252SOL    HW168595  11.926   5.921   2.499
22252SOL    HW268596  11.878   6.038   2.415
22253SOL     OW68597   0.633   8.898  14.099
22253SOL    HW168598   0.684   8.947  14.035
22253SOL    HW268599   0.690   8.894  14.177
22254SOL     OW68600   7.021   8.035  14.762
22254SOL    HW168601   6.938   8.043  14.809
22254SOL    HW268602   6.998   8.049  14.670
22255SOL     OW68603   9.431  13.358   2.545
22255SOL    HW168604   9.518  13.395   2.535
22255SOL    HW268605   9.406  13.379   2.635
22256SOL     OW68606   1.943  11.531  11.974
22256SOL    HW168607   1.947  11.457  11.913
22256SOL    HW268608   2.026  11.528  12.021
22257SOL     OW68609   3.834   4.262   5.538
22257SOL    HW168610   3.922   4.296   5.554
22257SOL    HW268611   3.825   4.188   5.596
22258SOL     OW68612   2.208  10.114  12.913
22258SOL    HW168613   2.274  10.138  12.848
22258SOL    HW268614   2.126  10.111  12.864
22259SOL     OW68615  10.229   8.477   4.451
22259SOL    HW168616  10.157   8.418   4.475
22259SOL    HW268617  10.306   8.420   4.444
22260SOL     OW68618   3.936   6.553  12.852
22260SOL    HW168619   4.024   6.579  12.822
22260SOL    HW268620   3.916   6.616  12.922
22261SOL     OW68621   6.829  14.020   3.396
22261SOL    HW168622   6.769  13.962   3.444
22261SOL    HW268623   6.786  14.106   3.399
22262SOL     OW68624   5.139   1.031   5.733
22262SOL    HW168625   5.099   0.979   5.663
22262SOL    HW268626   5.180   0.966   5.790
22263SOL     OW68627   5.945   4.238   6.439
22263SOL    HW168628   5.928   4.154   6.483
22263SOL    HW268629   6.031   4.228   6.400
22264SOL     OW68630  13.003  13.104  14.264
22264SOL    HW168631  12.936  13.170  14.245
22264SOL    HW268632  13.001  13.094  14.359
22265SOL     OW68633   1.164   9.462  14.488
22265SOL    HW168634   1.166   9.523  14.562
22265SOL    HW268635   1.117   9.510  14.420
22266SOL     OW68636   7.910   6.343   6.774
22266SOL    HW168637   7.937   6.292   6.698
22266SOL    HW268638   7.972   6.416   6.778
22267SOL     OW68639   3.096   4.906   5.762
22267SOL    HW168640   3.019   4.854   5.782
22267SOL    HW268641   3.062   4.984   5.719
22268SOL     OW68642   7.524  12.321   9.795
22268SOL    HW168643   7.468  12.389   9.832
22268SOL    HW268644   7.471  12.279   9.728
22269SOL     OW68645  11.873   1.544   7.519
22269SOL    HW168646  11.888   1.486   7.444
22269SOL    HW268647  11.875   1.486   7.594
22270SOL     OW68648  11.123   2.435  12.182
22270SOL    HW168649  11.104   2.419  12.090
22270SOL    HW268650  11.216   2.458  12.183
22271SOL     OW68651  12.808   2.545   4.440
22271SOL    HW168652  12.805   2.454   4.410
22271SOL    HW268653  12.730   2.585   4.400
22272SOL     OW68654   1.623   1.541  12.185
22272SOL    HW168655   1.558   1.476  12.158
22272SOL    HW268656   1.617   1.542  12.281
22273SOL     OW68657  13.616   6.945  11.955
22273SOL    HW168658  13.593   6.886  12.027
22273SOL    HW268659  13.571   6.909  11.879
22274SOL     OW68660   7.486   8.559   4.511
22274SOL    HW168661   7.505   8.555   4.605
22274SOL    HW268662   7.541   8.630   4.478
22275SOL     OW68663   5.036  10.631  10.774
22275SOL    HW168664   5.071  10.708  10.819
22275SOL    HW268665   5.099  10.614  10.704
22276SOL     OW68666   0.487  13.520  12.388
22276SOL    HW168667   0.578  13.546  12.399
22276SOL    HW268668   0.449  13.527  12.476
22277SOL     OW68669   1.835  10.480   8.128
22277SOL    HW168670   1.764  10.500   8.189
22277SOL    HW268671   1.899  10.550   8.142
22278SOL     OW68672  10.512   8.639  11.289
22278SOL    HW168673  10.417   8.634  11.303
22278SOL    HW268674  10.545   8.684  11.367
22279SOL     OW68675   6.421   6.124   1.820
22279SOL    HW168676   6.346   6.169   1.860
22279SOL    HW268677   6.382   6.044   1.782
22280SOL     OW68678   7.939   6.342  13.010
22280SOL    HW168679   7.926   6.251  12.981
22280SOL    HW268680   7.993   6.381  12.942
22281SOL     OW68681  10.687   5.457  10.401
22281SOL    HW168682  10.733   5.410  10.470
22281SOL    HW268683  10.713   5.549  10.414
22282SOL     OW68684   1.515   8.497   4.473
22282SOL    HW168685   1.548   8.586   4.466
22282SOL    HW268686   1.429   8.500   4.429
22283SOL     OW68687   4.375  14.634   8.871
22283SOL    HW168688   4.390  14.540   8.877
22283SOL    HW268689   4.388  14.666   8.960
22284SOL     OW68690   8.134   6.053   4.691
22284SOL    HW168691   8.083   6.128   4.661
22284SOL    HW268692   8.221   6.066   4.652
22285SOL     OW68693   9.320   0.264   9.413
22285SOL    HW168694   9.364   0.261   9.498
22285SOL    HW268695   9.340   0.351   9.378
22286SOL     OW68696   7.312   1.750  14.551
22286SOL    HW168697   7.404   1.769  14.568
22286SOL    HW268698   7.264   1.812  14.605
22287SOL     OW68699   6.251   4.887   4.658
22287SOL    HW168700   6.205   4.806   4.640
22287SOL    HW268701   6.190   4.956   4.635
22288SOL     OW68702   1.206  14.124   0.233
22288SOL    HW168703   1.111  14.111   0.236
22288SOL    HW268704   1.217  14.210   0.192
22289SOL     OW68705   9.307   5.933   7.037
22289SOL    HW168706   9.267   5.847   7.022
22289SOL    HW268707   9.305   5.945   7.132
22290SOL     OW68708   0.253   3.770   0.313
22290SOL    HW168709   0.307   3.724   0.377
22290SOL    HW268710   0.227   3.851   0.357
22291SOL     OW68711   3.303   4.694   3.825
22291SOL    HW168712   3.263   4.675   3.741
22291SOL    HW268713   3.381   4.745   3.804
22292SOL     OW68714  11.783   4.133  11.903
22292SOL    HW168715  11.877   4.141  11.882
22292SOL    HW268716  11.773   4.182  11.985
22293SOL     OW68717   7.450   0.284  14.584
22293SOL    HW168718   7.481   0.215  14.642
22293SOL    HW268719   7.527   0.308  14.532
22294SOL     OW68720   4.387   7.863   1.666
22294SOL    HW168721   4.362   7.793   1.605
22294SOL    HW268722   4.334   7.938   1.639
22295SOL     OW68723  11.843   3.284  11.079
22295SOL    HW168724  11.865   3.375  11.057
22295SOL    HW268725  11.812   3.246  10.997
22296SOL     OW68726  10.441   5.736   1.503
22296SOL    HW168727  10.501   5.738   1.429
22296SOL    HW268728  10.498   5.746   1.580
22297SOL     OW68729   6.489   3.952   9.158
22297SOL    HW168730   6.405   3.911   9.136
22297SOL    HW268731   6.548   3.878   9.177
22298SOL     OW68732   9.149  13.546   4.939
22298SOL    HW168733   9.062  13.544   4.900
22298SOL    HW268734   9.178  13.455   4.937
22299SOL     OW68735   7.022   2.699   0.069
22299SOL    HW168736   6.998   2.650   0.148
22299SOL    HW268737   6.941   2.742   0.042
22300SOL     OW68738  13.295  10.899   5.662
22300SOL    HW168739  13.211  10.938   5.685
22300SOL    HW268740  13.325  10.856   5.742
22301SOL     OW68741   1.500  13.542   3.527
22301SOL    HW168742   1.440  13.598   3.478
22301SOL    HW268743   1.585  13.556   3.485
22302SOL     OW68744  10.163   8.815  10.818
22302SOL    HW168745  10.250   8.829  10.780
22302SOL    HW268746  10.121   8.901  10.815
22303SOL     OW68747   6.816  11.730   6.728
22303SOL    HW168748   6.747  11.682   6.774
22303SOL    HW268749   6.897  11.705   6.773
22304SOL     OW68750  13.833   5.753  14.791
22304SOL    HW168751  13.763   5.816  14.807
22304SOL    HW268752  13.816   5.719  14.703
22305SOL     OW68753  11.226   9.508  13.211
22305SOL    HW168754  11.234   9.509  13.115
22305SOL    HW268755  11.250   9.419  13.236
22306SOL     OW68756  13.551   0.401   4.406
22306SOL    HW168757  13.524   0.335   4.470
22306SOL    HW268758  13.624   0.446   4.448
22307SOL     OW68759  12.057  10.777   4.688
22307SOL    HW168760  11.967  10.773   4.657
22307SOL    HW268761  12.097  10.848   4.637
22308SOL     OW68762  14.385   6.186  10.009
22308SOL    HW168763  14.383   6.106   9.957
22308SOL    HW268764  14.466   6.230   9.982
22309SOL     OW68765   9.445   0.555   8.660
22309SOL    HW168766   9.490   0.480   8.620
22309SOL    HW268767   9.376   0.577   8.598
22310SOL     OW68768   9.246   2.275   9.907
22310SOL    HW168769   9.300   2.222   9.849
22310SOL    HW268770   9.227   2.218   9.982
22311SOL     OW68771  11.244   5.847  12.651
22311SOL    HW168772  11.266   5.793  12.575
22311SOL    HW268773  11.285   5.802  12.725
22312SOL     OW68774  13.127  11.503   1.202
22312SOL    HW168775  13.222  11.509   1.191
22312SOL    HW268776  13.109  11.410   1.213
22313SOL     OW68777   1.930   1.900   8.220
22313SOL    HW168778   2.022   1.922   8.205
22313SOL    HW268779   1.888   1.915   8.135
22314SOL     OW68780  12.628   8.760  11.045
22314SOL    HW168781  12.699   8.711  11.005
22314SOL    HW268782  12.668   8.840  11.078
22315SOL     OW68783  10.634   3.999   2.920
22315SOL    HW168784  10.705   4.040   2.969
22315SOL    HW268785  10.595   3.937   2.982
22316SOL     OW68786   7.480  12.208   7.033
22316SOL    HW168787   7.482  12.146   6.960
22316SOL    HW268788   7.564  12.254   7.028
22317SOL     OW68789   7.200   1.453   8.058
22317SOL    HW168790   7.272   1.501   8.100
22317SOL    HW268791   7.243   1.399   7.992
22318SOL     OW68792   2.881   8.545   0.743
22318SOL    HW168793   2.939   8.562   0.817
22318SOL    HW268794   2.826   8.472   0.772
22319SOL     OW68795   8.254  12.270   3.858
22319SOL    HW168796   8.205  12.225   3.789
22319SOL    HW268797   8.243  12.363   3.839
22320SOL     OW68798  11.266   9.818   1.377
22320SOL    HW168799  11.289   9.838   1.467
22320SOL    HW268800  11.187   9.869   1.361
22321SOL     OW68801  11.521   4.666   1.155
22321SOL    HW168802  11.570   4.696   1.232
22321SOL    HW268803  11.586   4.664   1.085
22322SOL     OW68804  12.821   7.668   9.160
22322SOL    HW168805  12.872   7.603   9.208
22322SOL    HW268806  12.773   7.618   9.094
22323SOL     OW68807  11.471   5.817   4.919
22323SOL    HW168808  11.538   5.830   4.853
22323SOL    HW268809  11.449   5.724   4.914
22324SOL     OW68810   6.143  12.458   2.568
22324SOL    HW168811   6.206  12.447   2.639
22324SOL    HW268812   6.068  12.501   2.609
22325SOL     OW68813  13.807   9.237   0.957
22325SOL    HW168814  13.807   9.323   1.000
22325SOL    HW268815  13.736   9.242   0.893
22326SOL     OW68816   6.768   9.918  13.962
22326SOL    HW168817   6.774   9.837  13.913
22326SOL    HW268818   6.858   9.934  13.992
22327SOL     OW68819  11.134  13.860   3.114
22327SOL    HW168820  11.120  13.943   3.159
22327SOL    HW268821  11.049  13.840   3.075
22328SOL     OW68822   9.034  12.645   0.258
22328SOL    HW168823   9.004  12.656   0.348
22328SOL    HW268824   8.973  12.581   0.221
22329SOL     OW68825   9.363   7.592   3.680
22329SOL    HW168826   9.392   7.501   3.678
22329SOL    HW268827   9.302   7.596   3.754
22330SOL     OW68828   7.324   6.383   5.081
22330SOL    HW168829   7.360   6.458   5.128
22330SOL    HW268830   7.327   6.409   4.988
22331SOL     OW68831   6.003   6.247   2.261
22331SOL    HW168832   5.988   6.339   2.241
22331SOL    HW268833   6.098   6.235   2.253
22332SOL     OW68834   3.343  14.766  12.969
22332SOL    HW168835   3.328  14.756  13.063
22332SOL    HW268836   3.378  14.681  12.941
22333SOL     OW68837   9.877   1.112   4.533
22333SOL    HW168838   9.969   1.109   4.561
22333SOL    HW268839   9.851   1.020   4.528
22334SOL     OW68840   9.165   5.596   3.595
22334SOL    HW168841   9.105   5.628   3.663
22334SOL    HW268842   9.225   5.669   3.581
22335SOL     OW68843  14.184   0.057  11.595
22335SOL    HW168844  14.225   0.109  11.664
22335SOL    HW268845  14.248  14.862  11.576
22336SOL     OW68846   7.603  11.488   8.249
22336SOL    HW168847   7.694  11.461   8.263
22336SOL    HW268848   7.571  11.431   8.179
22337SOL     OW68849  13.814  12.001   0.650
22337SOL    HW168850  13.794  12.069   0.715
22337SOL    HW268851  13.857  12.049   0.579
22338SOL     OW68852   2.019   2.782   6.635
22338SOL    HW168853   2.011   2.805   6.727
22338SOL    HW268854   2.113   2.768   6.621
22339SOL     OW68855   1.559  10.686  10.437
22339SOL    HW168856   1.595  10.742  10.506
22339SOL    HW268857   1.507  10.622  10.484
22340SOL     OW68858   1.908   7.484   5.210
22340SOL    HW168859   1.845   7.527   5.268
22340SOL    HW268860   1.989   7.479   5.260
22341SOL     OW68861   5.283   4.906   1.268
22341SOL    HW168862   5.192   4.877   1.272
22341SOL    HW268863   5.285   4.971   1.198
22342SOL     OW68864  13.232   2.440  11.055
22342SOL    HW168865  13.257   2.355  11.017
22342SOL    HW268866  13.137   2.444  11.044
22343SOL     OW68867   8.699   7.942   1.370
22343SOL    HW168868   8.626   8.004   1.363
22343SOL    HW268869   8.777   7.996   1.358
22344SOL     OW68870  14.096   7.667   3.524
22344SOL    HW168871  14.144   7.747   3.544
22344SOL    HW268872  14.044   7.649   3.603
22345SOL     OW68873   5.321   0.118   8.692
22345SOL    HW168874   5.275   0.062   8.754
22345SOL    HW268875   5.414   0.101   8.709
22346SOL     OW68876   1.475  11.464  11.193
22346SOL    HW168877   1.433  11.549  11.182
22346SOL    HW268878   1.561  11.484  11.230
22347SOL     OW68879   2.007   5.489   5.601
22347SOL    HW168880   2.023   5.423   5.669
22347SOL    HW268881   1.917   5.474   5.574
22348SOL     OW68882   6.171   4.124  10.935
22348SOL    HW168883   6.137   4.202  10.891
22348SOL    HW268884   6.190   4.063  10.864
22349SOL     OW68885  14.229   0.924   8.015
22349SOL    HW168886  14.323   0.933   8.007
22349SOL    HW268887  14.200   1.006   8.054
22350SOL     OW68888  13.812  11.707  10.922
22350SOL    HW168889  13.829  11.680  10.832
22350SOL    HW268890  13.882  11.767  10.944
22351SOL     OW68891   1.290   7.556  10.926
22351SOL    HW168892   1.309   7.605  10.846
22351SOL    HW268893   1.348   7.480  10.922
22352SOL     OW68894   1.139   9.529  12.156
22352SOL    HW168895   1.045   9.550  12.154
22352SOL    HW268896   1.144   9.448  12.206
22353SOL     OW68897   3.287   6.708   6.526
22353SOL    HW168898   3.194   6.730   6.536
22353SOL    HW268899   3.319   6.695   6.615
22354SOL     OW68900   0.393  12.200   6.493
22354SOL    HW168901   0.298  12.195   6.482
22354SOL    HW268902   0.428  12.162   6.413
22355SOL     OW68903   0.219  14.708  14.623
22355SOL    HW168904   0.249  14.761  14.549
22355SOL    HW268905   0.126  14.728  14.631
22356SOL     OW68906   9.600  11.260  12.480
22356SOL    HW168907   9.580  11.166  12.488
22356SOL    HW268908   9.521  11.299  12.444
22357SOL     OW68909   4.594   9.797   1.580
22357SOL    HW168910   4.637   9.714   1.560
22357SOL    HW268911   4.516   9.797   1.525
22358SOL     OW68912   3.957  14.045   8.796
22358SOL    HW168913   3.984  14.010   8.881
22358SOL    HW268914   3.942  14.138   8.813
22359SOL     OW68915   5.644  10.123   1.475
22359SOL    HW168916   5.642  10.029   1.456
22359SOL    HW268917   5.586  10.134   1.550
22360SOL     OW68918   8.530   7.507   3.969
22360SOL    HW168919   8.578   7.561   3.905
22360SOL    HW268920   8.481   7.445   3.915
22361SOL     OW68921  11.095   2.604   9.868
22361SOL    HW168922  11.148   2.537   9.910
22361SOL    HW268923  11.153   2.680   9.860
22362SOL     OW68924   1.776   7.689   5.376
22362SOL    HW168925   1.731   7.768   5.344
22362SOL    HW268926   1.750   7.681   5.467
22363SOL     OW68927   2.254   4.803  13.610
22363SOL    HW168928   2.193   4.870  13.639
22363SOL    HW268929   2.273   4.751  13.688
22364SOL     OW68930  11.720   2.228   0.927
22364SOL    HW168931  11.696   2.299   0.987
22364SOL    HW268932  11.677   2.150   0.964
22365SOL     OW68933   9.769   4.307   1.015
22365SOL    HW168934   9.686   4.301   1.061
22365SOL    HW268935   9.794   4.215   0.999
22366SOL     OW68936   9.159  12.168   3.819
22366SOL    HW168937   9.105  12.113   3.762
22366SOL    HW268938   9.121  12.157   3.906
22367SOL     OW68939   3.597  12.880   7.467
22367SOL    HW168940   3.603  12.831   7.549
22367SOL    HW268941   3.592  12.813   7.399
22368SOL     OW68942   7.806   3.807  11.816
22368SOL    HW168943   7.901   3.815  11.821
22368SOL    HW268944   7.775   3.897  11.803
22369SOL     OW68945   3.554   5.453   7.053
22369SOL    HW168946   3.563   5.399   7.132
22369SOL    HW268947   3.621   5.420   6.993
22370SOL     OW68948   9.974  12.852   9.938
22370SOL    HW168949   9.936  12.838  10.025
22370SOL    HW268950   9.915  12.914   9.895
22371SOL     OW68951   2.022   8.146   2.221
22371SOL    HW168952   2.004   8.053   2.236
22371SOL    HW268953   1.978   8.191   2.293
22372SOL     OW68954   7.536   9.758   5.276
22372SOL    HW168955   7.450   9.782   5.241
22372SOL    HW268956   7.550   9.668   5.247
22373SOL     OW68957   2.702  12.048  11.438
22373SOL    HW168958   2.764  11.976  11.430
22373SOL    HW268959   2.693  12.062  11.532
22374SOL     OW68960   7.761   1.183  13.930
22374SOL    HW168961   7.725   1.170  13.842
22374SOL    HW268962   7.707   1.252  13.968
22375SOL     OW68963   9.271   4.828   6.712
22375SOL    HW168964   9.351   4.833   6.658
22375SOL    HW268965   9.292   4.878   6.790
22376SOL     OW68966   9.702   4.910  14.267
22376SOL    HW168967   9.740   4.998  14.267
22376SOL    HW268968   9.676   4.895  14.176
22377SOL     OW68969   5.334   2.620   9.292
22377SOL    HW168970   5.316   2.526   9.282
22377SOL    HW268971   5.421   2.623   9.332
22378SOL     OW68972   0.563   9.507  12.183
22378SOL    HW168973   0.643   9.516  12.234
22378SOL    HW268974   0.574   9.425  12.135
22379SOL     OW68975  13.152   0.130   6.954
22379SOL    HW168976  13.192   0.193   6.893
22379SOL    HW268977  13.151   0.176   7.038
22380SOL     OW68978  10.737   1.163   2.094
22380SOL    HW168979  10.825   1.194   2.075
22380SOL    HW268980  10.732   1.160   2.190
22381SOL     OW68981   8.820   5.200   5.772
22381SOL    HW168982   8.888   5.262   5.798
22381SOL    HW268983   8.846   5.173   5.684
22382SOL     OW68984  11.404   9.498   6.217
22382SOL    HW168985  11.448   9.487   6.133
22382SOL    HW268986  11.358   9.415   6.231
22383SOL     OW68987  12.451   7.336   9.042
22383SOL    HW168988  12.394   7.400   9.084
22383SOL    HW268989  12.539   7.367   9.061
22384SOL     OW68990   0.298   1.307   4.660
22384SOL    HW168991   0.389   1.333   4.675
22384SOL    HW268992   0.247   1.385   4.682
22385SOL     OW68993  11.969   0.160   2.546
22385SOL    HW168994  12.019   0.235   2.516
22385SOL    HW268995  11.961   0.104   2.468
22386SOL     OW68996   1.507  10.412   3.447
22386SOL    HW168997   1.415  10.409   3.476
22386SOL    HW268998   1.502  10.440   3.356
22387SOL     OW68999   4.188   3.763   8.935
22387SOL    HW169000   4.242   3.823   8.884
22387SOL    HW269001   4.228   3.677   8.923
22388SOL     OW69002  14.466   6.776  11.256
22388SOL    HW169003  14.385   6.748  11.212
22388SOL    HW269004  14.436   6.819  11.336
22389SOL     OW69005   5.208  11.257   8.897
22389SOL    HW169006   5.253  11.257   8.812
22389SOL    HW269007   5.270  11.217   8.957
22390SOL     OW69008   2.526  12.515   2.571
22390SOL    HW169009   2.452  12.455   2.576
22390SOL    HW269010   2.541  12.543   2.661
22391SOL     OW69011  14.714   9.440   5.217
22391SOL    HW169012  14.751   9.397   5.294
22391SOL    HW269013  14.672   9.519   5.252
22392SOL     OW69014   7.019   5.341   6.174
22392SOL    HW169015   7.031   5.426   6.216
22392SOL    HW269016   7.053   5.278   6.237
22393SOL     OW69017   1.737  12.891  11.128
22393SOL    HW169018   1.681  12.817  11.103
22393SOL    HW269019   1.767  12.927  11.045
22394SOL     OW69020   2.331   8.098   3.631
22394SOL    HW169021   2.316   8.125   3.540
22394SOL    HW269022   2.420   8.063   3.632
22395SOL     OW69023  12.876   7.457  13.705
22395SOL    HW169024  12.831   7.407  13.636
22395SOL    HW269025  12.962   7.476  13.668
22396SOL     OW69026   9.772   0.144   3.277
22396SOL    HW169027   9.854   0.114   3.316
22396SOL    HW269028   9.798   0.176   3.190
22397SOL     OW69029   9.753  10.410  10.965
22397SOL    HW169030   9.675  10.426  11.018
22397SOL    HW269031   9.749  10.477  10.897
22398SOL     OW69032   0.403  12.192   8.912
22398SOL    HW169033   0.455  12.253   8.861
22398SOL    HW269034   0.325  12.242   8.937
22399SOL     OW69035  14.399   3.835   5.500
22399SOL    HW169036  14.320   3.780   5.493
22399SOL    HW269037  14.371   3.920   5.466
22400SOL     OW69038  12.477   9.271   9.956
22400SOL    HW169039  12.533   9.240  10.027
22400SOL    HW269040  12.441   9.353   9.988
22401SOL     OW69041  12.062   5.568  12.008
22401SOL    HW169042  12.033   5.598  12.094
22401SOL    HW269043  12.043   5.474  12.008
22402SOL     OW69044   8.161   0.752  11.779
22402SOL    HW169045   8.246   0.775  11.744
22402SOL    HW269046   8.162   0.656  11.784
22403SOL     OW69047   9.320   8.203   1.014
22403SOL    HW169048   9.311   8.111   0.991
22403SOL    HW269049   9.266   8.215   1.092
22404SOL     OW69050   8.509  10.152   0.973
22404SOL    HW169051   8.574  10.084   0.955
22404SOL    HW269052   8.431  10.125   0.925
22405SOL     OW69053   8.550   0.544   0.606
22405SOL    HW169054   8.545   0.450   0.591
22405SOL    HW269055   8.465   0.577   0.577
22406SOL     OW69056  11.495  12.494  13.110
22406SOL    HW169057  11.415  12.492  13.163
22406SOL    HW269058  11.535  12.408  13.124
22407SOL     OW69059   6.316   9.956   0.919
22407SOL    HW169060   6.387  10.020   0.918
22407SOL    HW269061   6.317   9.918   0.831
22408SOL     OW69062  12.417   7.038  12.231
22408SOL    HW169063  12.341   7.009  12.180
22408SOL    HW269064  12.388   7.031  12.322
22409SOL     OW69065   4.026   1.687   6.103
22409SOL    HW169066   4.048   1.628   6.175
22409SOL    HW269067   3.937   1.663   6.079
22410SOL     OW69068   2.479   5.700  10.963
22410SOL    HW169069   2.439   5.785  10.985
22410SOL    HW269070   2.437   5.673  10.882
22411SOL     OW69071   7.234   3.603   6.212
22411SOL    HW169072   7.222   3.515   6.177
22411SOL    HW269073   7.262   3.656   6.138
22412SOL     OW69074   6.393  10.879  13.121
22412SOL    HW169075   6.434  10.880  13.208
22412SOL    HW269076   6.368  10.970  13.106
22413SOL     OW69077   8.954  13.207  13.301
22413SOL    HW169078   9.026  13.242  13.248
22413SOL    HW269079   8.986  13.122  13.330
22414SOL     OW69080   8.822   0.544   0.427
22414SOL    HW169081   8.752   0.525   0.489
22414SOL    HW269082   8.784   0.606   0.365
22415SOL     OW69083   5.859  13.929   1.199
22415SOL    HW169084   5.827  13.898   1.283
22415SOL    HW269085   5.947  13.892   1.192
22416SOL     OW69086  12.505   5.306   6.567
22416SOL    HW169087  12.435   5.293   6.503
22416SOL    HW269088  12.460   5.339   6.645
22417SOL     OW69089   2.370   8.625  10.905
22417SOL    HW169090   2.462   8.630  10.931
22417SOL    HW269091   2.348   8.715  10.880
22418SOL     OW69092   3.175   9.994   7.756
22418SOL    HW169093   3.234  10.045   7.813
22418SOL    HW269094   3.234   9.944   7.700
22419SOL     OW69095   2.843   0.850   6.613
22419SOL    HW169096   2.771   0.867   6.674
22419SOL    HW269097   2.801   0.847   6.527
22420SOL     OW69098   9.046   2.571   3.103
22420SOL    HW169099   9.055   2.638   3.171
22420SOL    HW269100   8.963   2.528   3.124
22421SOL     OW69101  13.569  11.994  10.185
22421SOL    HW169102  13.556  11.931  10.256
22421SOL    HW269103  13.506  11.968  10.118
22422SOL     OW69104  11.694  10.656   2.119
22422SOL    HW169105  11.712  10.574   2.165
22422SOL    HW269106  11.644  10.631   2.042
22423SOL     OW69107   3.633  14.375   4.998
22423SOL    HW169108   3.612  14.282   4.990
22423SOL    HW269109   3.663  14.400   4.911
22424SOL     OW69110  11.410   7.265   8.062
22424SOL    HW169111  11.494   7.307   8.079
22424SOL    HW269112  11.398   7.274   7.967
22425SOL     OW69113   8.507   0.982   1.061
22425SOL    HW169114   8.467   1.003   1.145
22425SOL    HW269115   8.433   0.977   1.000
22426SOL     OW69116   8.974  10.188  13.543
22426SOL    HW169117   9.048  10.147  13.589
22426SOL    HW269118   9.010  10.213  13.458
22427SOL     OW69119  10.879   8.549   2.389
22427SOL    HW169120  10.828   8.532   2.469
22427SOL    HW269121  10.963   8.506   2.405
22428SOL     OW69122   9.198   5.944   5.777
22428SOL    HW169123   9.176   5.891   5.700
22428SOL    HW269124   9.273   5.898   5.816
22429SOL     OW69125  13.715  10.065  10.940
22429SOL    HW169126  13.673  10.006  10.877
22429SOL    HW269127  13.802  10.029  10.953
22430SOL     OW69128   3.136  10.051  12.888
22430SOL    HW169129   3.112   9.978  12.831
22430SOL    HW269130   3.157  10.010  12.972
22431SOL     OW69131   5.293  12.210   8.560
22431SOL    HW169132   5.325  12.267   8.630
22431SOL    HW269133   5.313  12.258   8.479
22432SOL     OW69134   0.547   3.866   2.191
22432SOL    HW169135   0.471   3.886   2.245
22432SOL    HW269136   0.525   3.902   2.105
22433SOL     OW69137   2.879   7.742  10.192
22433SOL    HW169138   2.792   7.710  10.167
22433SOL    HW269139   2.919   7.668  10.238
22434SOL     OW69140   5.359   8.579   0.853
22434SOL    HW169141   5.386   8.558   0.943
22434SOL    HW269142   5.309   8.502   0.825
22435SOL     OW69143   9.833   0.829   2.892
22435SOL    HW169144   9.922   0.862   2.876
22435SOL    HW269145   9.778   0.907   2.895
22436SOL     OW69146   1.455  11.661   1.573
22436SOL    HW169147   1.523  11.680   1.638
22436SOL    HW269148   1.467  11.728   1.505
22437SOL     OW69149  14.102  11.223   3.983
22437SOL    HW169150  14.122  11.304   4.031
22437SOL    HW269151  14.016  11.197   4.016
22438SOL     OW69152  14.752  14.717   8.614
22438SOL    HW169153  14.710  14.634   8.591
22438SOL    HW269154  14.680  14.775   8.638
22439SOL     OW69155   5.799  14.577   0.280
22439SOL    HW169156   5.727  14.525   0.244
22439SOL    HW269157   5.878  14.539   0.242
22440SOL     OW69158   8.082  10.324  11.502
22440SOL    HW169159   8.170  10.313  11.467
22440SOL    HW269160   8.086  10.288  11.590
22441SOL     OW69161  13.922   9.209   1.922
22441SOL    HW169162  13.916   9.159   1.841
22441SOL    HW269163  14.002   9.261   1.912
22442SOL     OW69164  10.076  10.109   4.835
22442SOL    HW169165  10.076  10.084   4.928
22442SOL    HW269166  10.041  10.032   4.790
22443SOL     OW69167  10.832   5.522   0.910
22443SOL    HW169168  10.886   5.601   0.912
22443SOL    HW269169  10.831   5.496   0.818
22444SOL     OW69170   8.406   8.088   5.911
22444SOL    HW169171   8.355   8.017   5.949
22444SOL    HW269172   8.490   8.085   5.958
22445SOL     OW69173   6.570   0.679  13.007
22445SOL    HW169174   6.597   0.618  12.938
22445SOL    HW269175   6.478   0.659  13.021
22446SOL     OW69176  12.254  12.680   3.209
22446SOL    HW169177  12.294  12.710   3.290
22446SOL    HW269178  12.271  12.586   3.206
22447SOL     OW69179  13.639   1.397   2.591
22447SOL    HW169180  13.702   1.468   2.580
22447SOL    HW269181  13.558   1.431   2.551
22448SOL     OW69182   9.155   7.840  10.131
22448SOL    HW169183   9.130   7.886  10.050
22448SOL    HW269184   9.078   7.787  10.153
22449SOL     OW69185   1.011  11.350   1.625
22449SOL    HW169186   1.097  11.308   1.626
22449SOL    HW269187   0.987  11.355   1.532
22450SOL     OW69188   4.786  12.235   7.400
22450SOL    HW169189   4.781  12.139   7.398
22450SOL    HW269190   4.848  12.257   7.331
22451SOL     OW69191   4.584  10.662   5.852
22451SOL    HW169192   4.572  10.733   5.914
22451SOL    HW269193   4.679  10.649   5.850
22452SOL     OW69194   5.023  14.504  13.783
22452SOL    HW169195   5.009  14.595  13.758
22452SOL    HW269196   5.118  14.493  13.783
22453SOL     OW69197   9.679   9.291  10.301
22453SOL    HW169198   9.666   9.260  10.212
22453SOL    HW269199   9.603   9.346  10.319
22454SOL     OW69200   2.109  11.939  13.821
22454SOL    HW169201   2.101  12.034  13.820
22454SOL    HW269202   2.061  11.910  13.744
22455SOL     OW69203   5.864   6.296  11.831
22455SOL    HW169204   5.870   6.371  11.890
22455SOL    HW269205   5.786   6.249  11.862
22456SOL     OW69206   6.355   3.715   4.893
22456SOL    HW169207   6.442   3.751   4.913
22456SOL    HW269208   6.295   3.766   4.948
22457SOL     OW69209   1.078   8.220   4.824
22457SOL    HW169210   1.090   8.185   4.912
22457SOL    HW269211   1.167   8.230   4.789
22458SOL     OW69212  11.640   8.261  12.028
22458SOL    HW169213  11.629   8.172  11.994
22458SOL    HW269214  11.734   8.268  12.046
22459SOL     OW69215  10.425   9.280   9.620
22459SOL    HW169216  10.352   9.342   9.629
22459SOL    HW269217  10.397   9.202   9.669
22460SOL     OW69218   0.093   6.200   4.782
22460SOL    HW169219   0.092   6.234   4.693
22460SOL    HW269220   0.103   6.277   4.837
22461SOL     OW69221   0.003   5.414  13.767
22461SOL    HW169222   0.002   5.450  13.855
22461SOL    HW269223  14.817   5.339  13.771
22462SOL     OW69224   7.458  12.306  14.090
22462SOL    HW169225   7.456  12.210  14.082
22462SOL    HW269226   7.367  12.330  14.106
22463SOL     OW69227   2.507   9.877   0.395
22463SOL    HW169228   2.511   9.802   0.454
22463SOL    HW269229   2.492   9.952   0.453
22464SOL     OW69230   3.302  11.799  12.825
22464SOL    HW169231   3.360  11.730  12.792
22464SOL    HW269232   3.335  11.879  12.783
22465SOL     OW69233   5.926   9.113   9.478
22465SOL    HW169234   5.912   9.182   9.413
22465SOL    HW269235   5.904   9.032   9.432
22466SOL     OW69236   4.561   7.148   5.974
22466SOL    HW169237   4.634   7.131   5.915
22466SOL    HW269238   4.509   7.216   5.930
22467SOL     OW69239   4.991  12.855  13.727
22467SOL    HW169240   5.020  12.850  13.636
22467SOL    HW269241   5.071  12.847  13.778
22468SOL     OW69242  10.475   1.459   2.415
22468SOL    HW169243  10.448   1.550   2.425
22468SOL    HW269244  10.565   1.464   2.381
22469SOL     OW69245   9.591  13.014   1.949
22469SOL    HW169246   9.604  12.976   2.036
22469SOL    HW269247   9.567  13.105   1.965
22470SOL     OW69248  10.909   3.932   4.637
22470SOL    HW169249  10.965   3.966   4.568
22470SOL    HW269250  10.823   3.972   4.619
22471SOL     OW69251  10.246   2.637   2.392
22471SOL    HW169252  10.204   2.647   2.477
22471SOL    HW269253  10.195   2.692   2.333
22472SOL     OW69254  11.094   7.600   5.159
22472SOL    HW169255  11.017   7.558   5.119
22472SOL    HW269256  11.064   7.625   5.246
22473SOL     OW69257   5.183   8.752  13.527
22473SOL    HW169258   5.146   8.707  13.603
22473SOL    HW269259   5.130   8.831  13.517
22474SOL     OW69260   2.048   1.167   6.261
22474SOL    HW169261   2.132   1.213   6.258
22474SOL    HW269262   1.983   1.237   6.270
22475SOL     OW69263  11.318  10.702  14.415
22475SOL    HW169264  11.246  10.680  14.357
22475SOL    HW269265  11.277  10.714  14.501
22476SOL     OW69266  13.040  11.565  10.573
22476SOL    HW169267  12.969  11.504  10.551
22476SOL    HW269268  13.029  11.582  10.666
22477SOL     OW69269  10.269   8.666   1.319
22477SOL    HW169270  10.344   8.640   1.265
22477SOL    HW269271  10.279   8.761   1.328
22478SOL     OW69272  10.629   8.337   9.049
22478SOL    HW169273  10.558   8.278   9.075
22478SOL    HW269274  10.615   8.353   8.956
22479SOL     OW69275  13.602   5.936  12.503
22479SOL    HW169276  13.561   5.877  12.440
22479SOL    HW269277  13.568   5.909  12.588
22480SOL     OW69278   3.451   7.897   2.617
22480SOL    HW169279   3.471   7.806   2.637
22480SOL    HW269280   3.358   7.897   2.594
22481SOL     OW69281   2.408   1.266  10.857
22481SOL    HW169282   2.335   1.252  10.797
22481SOL    HW269283   2.398   1.357  10.886
22482SOL     OW69284  14.121  12.897   2.660
22482SOL    HW169285  14.057  12.856   2.603
22482SOL    HW269286  14.076  12.974   2.695
22483SOL     OW69287   2.677  12.685   2.411
22483SOL    HW169288   2.703  12.766   2.454
22483SOL    HW269289   2.611  12.647   2.470
22484SOL     OW69290   4.587   5.150  10.232
22484SOL    HW169291   4.569   5.155  10.139
22484SOL    HW269292   4.657   5.214  10.247
22485SOL     OW69293   0.348   6.952  11.130
22485SOL    HW169294   0.302   6.870  11.117
22485SOL    HW269295   0.321   7.007  11.057
22486SOL     OW69296   1.786   7.760   3.355
22486SOL    HW169297   1.788   7.841   3.304
22486SOL    HW269298   1.697   7.726   3.344
22487SOL     OW69299  13.838  10.542  10.975
22487SOL    HW169300  13.840  10.466  10.916
22487SOL    HW269301  13.844  10.618  10.917
22488SOL     OW69302   2.176  11.091   0.737
22488SOL    HW169303   2.181  11.067   0.829
22488SOL    HW269304   2.082  11.091   0.718
22489SOL     OW69305   8.872   7.127   8.412
22489SOL    HW169306   8.913   7.205   8.451
22489SOL    HW269307   8.943   7.086   8.363
22490SOL     OW69308   0.508  11.398   8.179
22490SOL    HW169309   0.539  11.316   8.141
22490SOL    HW269310   0.540  11.397   8.269
22491SOL     OW69311   4.505  13.124   3.993
22491SOL    HW169312   4.454  13.072   3.931
22491SOL    HW269313   4.596  13.112   3.965
22492SOL     OW69314  12.177  13.333   8.727
22492SOL    HW169315  12.240  13.303   8.662
22492SOL    HW269316  12.231  13.374   8.795
22493SOL     OW69317   3.597   8.066   2.171
22493SOL    HW169318   3.617   8.013   2.093
22493SOL    HW269319   3.666   8.132   2.173
22494SOL     OW69320   1.527   9.795  11.179
22494SOL    HW169321   1.494   9.764  11.095
22494SOL    HW269322   1.473   9.871  11.200
22495SOL     OW69323   3.420   8.140   6.104
22495SOL    HW169324   3.500   8.187   6.079
22495SOL    HW269325   3.389   8.187   6.181
22496SOL     OW69326  11.841  12.574   8.578
22496SOL    HW169327  11.932  12.589   8.551
22496SOL    HW269328  11.815  12.494   8.532
22497SOL     OW69329   3.639   5.614   4.153
22497SOL    HW169330   3.613   5.522   4.164
22497SOL    HW269331   3.731   5.610   4.129
22498SOL     OW69332  11.641  11.386   7.615
22498SOL    HW169333  11.633  11.399   7.521
22498SOL    HW269334  11.720  11.434   7.640
22499SOL     OW69335   4.338   6.001   9.964
22499SOL    HW169336   4.258   5.992   9.913
22499SOL    HW269337   4.317   5.961  10.049
22500SOL     OW69338   7.610  11.348   1.510
22500SOL    HW169339   7.678  11.404   1.472
22500SOL    HW269340   7.537  11.352   1.448
22501SOL     OW69341   0.706   6.157   4.152
22501SOL    HW169342   0.695   6.168   4.246
22501SOL    HW269343   0.775   6.091   4.143
22502SOL     OW69344   5.848   6.824   1.336
22502SOL    HW169345   5.805   6.766   1.273
22502SOL    HW269346   5.780   6.887   1.361
22503SOL     OW69347   2.560  12.269   5.359
22503SOL    HW169348   2.576  12.190   5.308
22503SOL    HW269349   2.469  12.291   5.343
22504SOL     OW69350  10.623   9.613   7.697
22504SOL    HW169351  10.534   9.620   7.662
22504SOL    HW269352  10.612   9.593   7.789
22505SOL     OW69353   7.463  13.272   6.450
22505SOL    HW169354   7.435  13.211   6.382
22505SOL    HW269355   7.467  13.219   6.530
22506SOL     OW69356   9.113   4.428  11.141
22506SOL    HW169357   9.102   4.481  11.220
22506SOL    HW269358   9.203   4.397  11.144
22507SOL     OW69359   8.003   2.219   2.778
22507SOL    HW169360   8.006   2.271   2.858
22507SOL    HW269361   7.987   2.130   2.807
22508SOL     OW69362  11.086   3.172   5.078
22508SOL    HW169363  10.993   3.189   5.071
22508SOL    HW269364  11.097   3.125   5.160
22509SOL     OW69365   7.165  12.165  13.648
22509SOL    HW169366   7.161  12.198  13.737
22509SOL    HW269367   7.258  12.146  13.634
22510SOL     OW69368   9.016   8.559   6.394
22510SOL    HW169369   9.038   8.491   6.458
22510SOL    HW269370   8.958   8.516   6.332
22511SOL     OW69371   6.497   9.539  12.384
22511SOL    HW169372   6.478   9.502  12.297
22511SOL    HW269373   6.530   9.626  12.366
22512SOL     OW69374   6.026   7.664  14.340
22512SOL    HW169375   6.072   7.748  14.341
22512SOL    HW269376   6.063   7.618  14.264
22513SOL     OW69377  12.019   0.516  10.276
22513SOL    HW169378  12.020   0.421  10.264
22513SOL    HW269379  12.017   0.528  10.371
22514SOL     OW69380   9.231   8.033  11.261
22514SOL    HW169381   9.196   8.041  11.172
22514SOL    HW269382   9.253   8.123  11.286
22515SOL     OW69383   0.602   6.203  10.308
22515SOL    HW169384   0.650   6.244  10.236
22515SOL    HW269385   0.657   6.130  10.335
22516SOL     OW69386  11.275  13.953   3.765
22516SOL    HW169387  11.282  14.030   3.709
22516SOL    HW269388  11.255  13.881   3.705
22517SOL     OW69389  13.950   3.146  12.850
22517SOL    HW169390  13.867   3.192  12.860
22517SOL    HW269391  14.007   3.209  12.805
22518SOL     OW69392   2.719   4.965   0.449
22518SOL    HW169393   2.790   4.915   0.409
22518SOL    HW269394   2.665   4.992   0.374
22519SOL     OW69395   1.590  10.223   9.094
22519SOL    HW169396   1.639  10.235   9.013
22519SOL    HW269397   1.503  10.194   9.066
22520SOL     OW69398   2.599   3.668   4.069
22520SOL    HW169399   2.540   3.594   4.077
22520SOL    HW269400   2.555   3.727   4.008
22521SOL     OW69401  14.609   3.600   3.190
22521SOL    HW169402  14.696   3.569   3.212
22521SOL    HW269403  14.619   3.642   3.104
22522SOL     OW69404   3.721  10.438   4.988
22522SOL    HW169405   3.721  10.343   4.996
22522SOL    HW269406   3.631  10.459   4.962
22523SOL     OW69407   9.434   8.565   4.887
22523SOL    HW169408   9.359   8.563   4.946
22523SOL    HW269409   9.417   8.494   4.825
22524SOL     OW69410   8.504   1.275   9.569
22524SOL    HW169411   8.570   1.341   9.547
22524SOL    HW269412   8.443   1.277   9.495
22525SOL     OW69413   8.368   3.344   5.313
22525SOL    HW169414   8.432   3.285   5.352
22525SOL    HW269415   8.284   3.302   5.331
22526SOL     OW69416   0.405   8.769  12.529
22526SOL    HW169417   0.493   8.796  12.554
22526SOL    HW269418   0.419   8.707  12.457
22527SOL     OW69419   4.320   9.866   9.373
22527SOL    HW169420   4.233   9.877   9.334
22527SOL    HW269421   4.303   9.842   9.464
22528SOL     OW69422  13.295  14.440   2.328
22528SOL    HW169423  13.375  14.395   2.302
22528SOL    HW269424  13.274  14.497   2.254
22529SOL     OW69425   5.634  13.521   8.028
22529SOL    HW169426   5.664  13.430   8.031
22529SOL    HW269427   5.592  13.529   7.942
22530SOL     OW69428   5.859   7.231  12.425
22530SOL    HW169429   5.931   7.244  12.363
22530SOL    HW269430   5.874   7.144  12.462
22531SOL     OW69431   5.223   0.162   0.364
22531SOL    HW169432   5.220   0.245   0.317
22531SOL    HW269433   5.301   0.118   0.331
22532SOL     OW69434   5.126   1.445  13.863
22532SOL    HW169435   5.065   1.390  13.913
22532SOL    HW269436   5.213   1.409  13.884
22533SOL     OW69437  11.395   6.751  13.491
22533SOL    HW169438  11.314   6.741  13.542
22533SOL    HW269439  11.464   6.751  13.557
22534SOL     OW69440   9.201   8.780   4.650
22534SOL    HW169441   9.220   8.781   4.744
22534SOL    HW269442   9.277   8.821   4.609
22535SOL     OW69443   4.052   3.941   3.002
22535SOL    HW169444   4.052   4.035   3.023
22535SOL    HW269445   3.966   3.911   3.031
22536SOL     OW69446   7.711  10.284   5.584
22536SOL    HW169447   7.727  10.369   5.542
22536SOL    HW269448   7.766  10.223   5.536
22537SOL     OW69449   2.866   3.736  12.331
22537SOL    HW169450   2.832   3.745  12.242
22537SOL    HW269451   2.930   3.807  12.339
22538SOL     OW69452  12.340  11.898  11.212
22538SOL    HW169453  12.320  11.883  11.120
22538SOL    HW269454  12.265  11.860  11.259
22539SOL     OW69455   6.676  11.017  12.139
22539SOL    HW169456   6.706  11.066  12.063
22539SOL    HW269457   6.589  11.052  12.158
22540SOL     OW69458  14.368  13.171   6.055
22540SOL    HW169459  14.422  13.105   6.098
22540SOL    HW269460  14.348  13.135   5.969
22541SOL     OW69461   4.848  11.026   2.184
22541SOL    HW169462   4.901  11.009   2.106
22541SOL    HW269463   4.875  10.957   2.246
22542SOL     OW69464   8.398   4.685  11.655
22542SOL    HW169465   8.427   4.706  11.566
22542SOL    HW269466   8.316   4.734  11.666
22543SOL     OW69467   5.836  13.864  12.111
22543SOL    HW169468   5.896  13.926  12.154
22543SOL    HW269469   5.855  13.873  12.018
22544SOL     OW69470   2.934   4.758  10.188
22544SOL    HW169471   2.882   4.683  10.218
22544SOL    HW269472   3.016   4.719  10.158
22545SOL     OW69473  14.872   7.748  12.129
22545SOL    HW169474  14.800   7.796  12.170
22545SOL    HW269475   0.071   7.759  12.189
22546SOL     OW69476  14.435   2.588  14.384
22546SOL    HW169477  14.486   2.661  14.350
22546SOL    HW269478  14.344   2.611  14.364
22547SOL     OW69479  13.398   1.222   7.828
22547SOL    HW169480  13.303   1.232   7.833
22547SOL    HW269481  13.420   1.237   7.736
22548SOL     OW69482   4.517   4.517  12.447
22548SOL    HW169483   4.448   4.482  12.503
22548SOL    HW269484   4.536   4.604  12.483
22549SOL     OW69485   8.435   1.067   2.989
22549SOL    HW169486   8.468   1.157   2.984
22549SOL    HW269487   8.340   1.075   2.977
22550SOL     OW69488  12.232   5.760   0.017
22550SOL    HW169489  12.299   5.822  14.863
22550SOL    HW269490  12.270   5.674   0.001
22551SOL     OW69491  10.928  12.988  10.775
22551SOL    HW169492  10.889  12.921  10.719
22551SOL    HW269493  10.966  13.051  10.714
22552SOL     OW69494   7.077   2.576   7.136
22552SOL    HW169495   7.086   2.636   7.210
22552SOL    HW269496   7.055   2.492   7.177
22553SOL     OW69497   1.874  11.868   9.153
22553SOL    HW169498   1.913  11.930   9.092
22553SOL    HW269499   1.817  11.921   9.209
22554SOL     OW69500   5.490  14.555   5.506
22554SOL    HW169501   5.410  14.527   5.461
22554SOL    HW269502   5.506  14.644   5.473
22555SOL     OW69503   2.177  14.533   4.566
22555SOL    HW169504   2.149  14.610   4.615
22555SOL    HW269505   2.096  14.497   4.529
22556SOL     OW69506  10.265   8.408   9.627
22556SOL    HW169507  10.197   8.472   9.648
22556SOL    HW269508  10.255   8.391   9.533
22557SOL     OW69509   3.247  14.077   0.723
22557SOL    HW169510   3.292  14.038   0.798
22557SOL    HW269511   3.300  14.152   0.698
22558SOL     OW69512   9.835   9.680  14.289
22558SOL    HW169513   9.816   9.649  14.201
22558SOL    HW269514   9.804   9.609  14.346
22559SOL     OW69515  12.398   0.233  13.792
22559SOL    HW169516  12.399   0.151  13.841
22559SOL    HW269517  12.354   0.295  13.851
22560SOL     OW69518   0.750   4.771   6.016
22560SOL    HW169519   0.732   4.863   5.994
22560SOL    HW269520   0.693   4.753   6.090
22561SOL     OW69521   4.599   6.655  10.810
22561SOL    HW169522   4.586   6.733  10.864
22561SOL    HW269523   4.563   6.679  10.724
22562SOL     OW69524  13.041   3.091   8.736
22562SOL    HW169525  13.120   3.138   8.710
22562SOL    HW269526  12.971   3.157   8.729
22563SOL     OW69527  13.380  12.327   2.916
22563SOL    HW169528  13.311  12.299   2.976
22563SOL    HW269529  13.459  12.284   2.949
22564SOL     OW69530  14.188   4.273   7.509
22564SOL    HW169531  14.200   4.245   7.418
22564SOL    HW269532  14.203   4.194   7.561
22565SOL     OW69533  12.032   4.724   7.787
22565SOL    HW169534  11.943   4.728   7.752
22565SOL    HW269535  12.023   4.749   7.879
22566SOL     OW69536  12.435   1.998  10.720
22566SOL    HW169537  12.441   1.917  10.772
22566SOL    HW269538  12.341   2.016  10.715
22567SOL     OW69539   4.531  14.352   2.640
22567SOL    HW169540   4.595  14.287   2.668
22567SOL    HW269541   4.583  14.421   2.599
22568SOL     OW69542   3.237   6.010   4.011
22568SOL    HW169543   3.272   5.921   4.004
22568SOL    HW269544   3.165   6.003   4.073
22569SOL     OW69545   6.371  10.088   7.895
22569SOL    HW169546   6.350  10.055   7.807
22569SOL    HW269547   6.294  10.140   7.919
22570SOL     OW69548   7.187   3.444   1.646
22570SOL    HW169549   7.229   3.387   1.711
22570SOL    HW269550   7.239   3.524   1.648
22571SOL     OW69551  10.246  11.230  13.188
22571SOL    HW169552  10.267  11.173  13.262
22571SOL    HW269553  10.249  11.172  13.111
22572SOL     OW69554  12.039  13.800  10.322
22572SOL    HW169555  12.129  13.766  10.318
22572SOL    HW269556  12.048  13.886  10.364
22573SOL     OW69557   7.540   6.694   7.684
22573SOL    HW169558   7.510   6.611   7.722
22573SOL    HW269559   7.563   6.748   7.760
22574SOL     OW69560   9.291  11.295  13.122
22574SOL    HW169561   9.382  11.283  13.095
22574SOL    HW269562   9.247  11.214  13.093
22575SOL     OW69563   3.498   8.169   9.650
22575SOL    HW169564   3.460   8.151   9.736
22575SOL    HW269565   3.549   8.091   9.629
22576SOL     OW69566   6.974   4.979   4.196
22576SOL    HW169567   7.009   4.980   4.285
22576SOL    HW269568   7.031   5.039   4.147
22577SOL     OW69569  12.289  14.516   7.722
22577SOL    HW169570  12.228  14.503   7.795
22577SOL    HW269571  12.233  14.527   7.646
22578SOL     OW69572  12.062   0.856   4.836
22578SOL    HW169573  11.994   0.792   4.817
22578SOL    HW269574  12.144   0.806   4.832
22579SOL     OW69575   7.995   4.249  11.424
22579SOL    HW169576   7.911   4.204  11.439
22579SOL    HW269577   8.015   4.291  11.508
22580SOL     OW69578   3.755   8.330   5.414
22580SOL    HW169579   3.803   8.251   5.390
22580SOL    HW269580   3.790   8.398   5.357
22581SOL     OW69581  14.255   9.201  14.721
22581SOL    HW169582  14.237   9.109  14.704
22581SOL    HW269583  14.253   9.209  14.816
22582SOL     OW69584   5.103  10.682   0.325
22582SOL    HW169585   5.024  10.653   0.279
22582SOL    HW269586   5.164  10.705   0.255
22583SOL     OW69587   7.951  10.488  12.337
22583SOL    HW169588   7.965  10.505  12.430
22583SOL    HW269589   7.959  10.393  12.329
22584SOL     OW69590  14.175   1.555  11.084
22584SOL    HW169591  14.142   1.482  11.031
22584SOL    HW269592  14.231   1.604  11.024
22585SOL     OW69593   1.126   8.189   1.988
22585SOL    HW169594   1.212   8.181   1.946
22585SOL    HW269595   1.136   8.146   2.073
22586SOL     OW69596   6.861   3.663  10.967
22586SOL    HW169597   6.783   3.608  10.974
22586SOL    HW269598   6.925   3.608  10.922
22587SOL     OW69599   8.990  13.505   7.025
22587SOL    HW169600   8.950  13.437   6.970
22587SOL    HW269601   8.992  13.466   7.112
22588SOL     OW69602  11.265  14.180   5.508
22588SOL    HW169603  11.289  14.098   5.552
22588SOL    HW269604  11.297  14.169   5.418
22589SOL     OW69605   8.966   3.707  14.781
22589SOL    HW169606   8.993   3.634  14.837
22589SOL    HW269607   9.000   3.785  14.824
22590SOL     OW69608   7.895  11.047   3.188
22590SOL    HW169609   7.850  11.037   3.272
22590SOL    HW269610   7.918  10.958   3.162
22591SOL     OW69611   9.091  13.660  10.598
22591SOL    HW169612   9.073  13.649  10.692
22591SOL    HW269613   9.019  13.614  10.555
22592SOL     OW69614   7.226   1.303   4.276
22592SOL    HW169615   7.268   1.345   4.351
22592SOL    HW269616   7.213   1.373   4.213
22593SOL     OW69617  10.184   7.700   9.463
22593SOL    HW169618  10.195   7.667   9.552
22593SOL    HW269619  10.090   7.701   9.449
22594SOL     OW69620   8.877   1.268   1.354
22594SOL    HW169621   8.815   1.243   1.422
22594SOL    HW269622   8.822   1.288   1.278
22595SOL     OW69623   4.500   8.674   2.123
22595SOL    HW169624   4.577   8.617   2.124
22595SOL    HW269625   4.435   8.626   2.071
22596SOL     OW69626   8.423  12.858  13.048
22596SOL    HW169627   8.416  12.953  13.036
22596SOL    HW269628   8.517  12.840  13.045
22597SOL     OW69629   5.267   5.233  14.284
22597SOL    HW169630   5.224   5.297  14.227
22597SOL    HW269631   5.203   5.214  14.352
22598SOL     OW69632  13.449  10.722   3.000
22598SOL    HW169633  13.517  10.721   2.934
22598SOL    HW269634  13.440  10.631   3.028
22599SOL     OW69635   9.913   4.512   4.827
22599SOL    HW169636   9.897   4.508   4.733
22599SOL    HW269637   9.999   4.471   4.839
22600SOL     OW69638   6.458   3.593  11.558
22600SOL    HW169639   6.367   3.589  11.527
22600SOL    HW269640   6.474   3.687  11.571
22601SOL     OW69641   0.449   6.829   2.399
22601SOL    HW169642   0.389   6.803   2.329
22601SOL    HW269643   0.469   6.747   2.444
22602SOL     OW69644  10.390   2.286  11.412
22602SOL    HW169645  10.359   2.282  11.322
22602SOL    HW269646  10.410   2.195  11.435
22603SOL     OW69647   0.317   9.448  10.964
22603SOL    HW169648   0.374   9.522  10.986
22603SOL    HW269649   0.238   9.461  11.016
22604SOL     OW69650  10.333   7.172  12.080
22604SOL    HW169651  10.367   7.260  12.093
22604SOL    HW269652  10.411   7.115  12.081
22605SOL     OW69653   1.722   9.696  10.397
22605SOL    HW169654   1.655   9.642  10.438
22605SOL    HW269655   1.679   9.732  10.320
22606SOL     OW69656   4.606   7.535   9.642
22606SOL    HW169657   4.532   7.592   9.663
22606SOL    HW269658   4.607   7.533   9.546
22607SOL     OW69659   0.723   9.327   4.159
22607SOL    HW169660   0.797   9.387   4.146
22607SOL    HW269661   0.753   9.266   4.226
22608SOL     OW69662   0.631   8.130   0.943
22608SOL    HW169663   0.709   8.110   0.994
22608SOL    HW269664   0.591   8.045   0.924
22609SOL     OW69665   9.151  12.960  11.933
22609SOL    HW169666   9.195  12.979  12.016
22609SOL    HW269667   9.091  13.033  11.920
22610SOL     OW69668   9.271   5.940  12.642
22610SOL    HW169669   9.194   5.941  12.698
22610SOL    HW269670   9.309   5.853  12.654
22611SOL     OW69671  13.047   6.509  13.763
22611SOL    HW169672  12.964   6.553  13.783
22611SOL    HW269673  13.114   6.569  13.794
22612SOL     OW69674   3.765  14.746  14.525
22612SOL    HW169675   3.692  14.747  14.464
22612SOL    HW269676   3.749  14.671  14.581
22613SOL     OW69677   7.630   0.901  12.261
22613SOL    HW169678   7.541   0.895  12.225
22613SOL    HW269679   7.680   0.945  12.193
22614SOL     OW69680   8.427   7.590  10.952
22614SOL    HW169681   8.518   7.610  10.975
22614SOL    HW269682   8.377   7.663  10.988
22615SOL     OW69683   8.663  14.478  13.607
22615SOL    HW169684   8.723  14.408  13.580
22615SOL    HW269685   8.577  14.436  13.608
22616SOL     OW69686   3.572  14.668  14.779
22616SOL    HW169687   3.616  14.583  14.773
22616SOL    HW269688   3.500  14.652  14.841
22617SOL     OW69689  12.974   2.999   8.467
22617SOL    HW169690  12.946   3.056   8.395
22617SOL    HW269691  12.970   3.054   8.545
22618SOL     OW69692   5.613   4.517  10.500
22618SOL    HW169693   5.592   4.527  10.407
22618SOL    HW269694   5.575   4.594  10.542
22619SOL     OW69695   7.663   8.465   1.850
22619SOL    HW169696   7.729   8.533   1.867
22619SOL    HW269697   7.703   8.409   1.783
22620SOL     OW69698   9.729   4.644   5.316
22620SOL    HW169699   9.822   4.621   5.319
22620SOL    HW269700   9.693   4.608   5.397
22621SOL     OW69701  11.289   8.673   4.776
22621SOL    HW169702  11.342   8.689   4.698
22621SOL    HW269703  11.261   8.582   4.767
22622SOL     OW69704  14.288   8.970   7.680
22622SOL    HW169705  14.367   9.001   7.635
22622SOL    HW269706  14.223   9.038   7.664
22623SOL     OW69707  13.078   6.424   2.000
22623SOL    HW169708  13.049   6.508   1.964
22623SOL    HW269709  13.037   6.358   1.944
22624SOL     OW69710   8.476   7.590  13.705
22624SOL    HW169711   8.439   7.569  13.619
22624SOL    HW269712   8.559   7.543  13.708
22625SOL     OW69713  14.844   5.891   6.469
22625SOL    HW169714   0.064   5.890   6.449
22625SOL    HW269715  14.835   5.954   6.540
22626SOL     OW69716  13.983  13.133   3.206
22626SOL    HW169717  14.015  13.048   3.235
22626SOL    HW269718  14.002  13.192   3.279
22627SOL     OW69719   9.841   0.407   7.029
22627SOL    HW169720   9.758   0.375   6.995
22627SOL    HW269721   9.820   0.491   7.069
22628SOL     OW69722   6.298   0.130   2.483
22628SOL    HW169723   6.339   0.162   2.563
22628SOL    HW269724   6.346   0.175   2.413
22629SOL     OW69725   3.989   4.844  11.998
22629SOL    HW169726   3.909   4.895  11.983
22629SOL    HW269727   3.994   4.836  12.093
22630SOL     OW69728  11.830   1.526   1.715
22630SOL    HW169729  11.908   1.473   1.696
22630SOL    HW269730  11.757   1.468   1.696
22631SOL     OW69731   9.269   3.035   4.103
22631SOL    HW169732   9.230   3.056   4.018
22631SOL    HW269733   9.297   3.119   4.139
22632SOL     OW69734  13.281  11.872   2.680
22632SOL    HW169735  13.223  11.894   2.753
22632SOL    HW269736  13.221  11.857   2.607
22633SOL     OW69737  12.233  11.676   3.460
22633SOL    HW169738  12.181  11.755   3.472
22633SOL    HW269739  12.305  11.685   3.522
22634SOL     OW69740   8.689   7.852  10.296
22634SOL    HW169741   8.762   7.838  10.357
22634SOL    HW269742   8.702   7.941  10.264
22635SOL     OW69743   1.775   5.784  11.767
22635SOL    HW169744   1.806   5.711  11.712
22635SOL    HW269745   1.683   5.794  11.742
22636SOL     OW69746   2.429   4.885   2.449
22636SOL    HW169747   2.417   4.792   2.468
22636SOL    HW269748   2.506   4.889   2.392
22637SOL     OW69749   2.332   0.580   2.247
22637SOL    HW169750   2.347   0.675   2.242
22637SOL    HW269751   2.251   0.567   2.197
22638SOL     OW69752   5.308   8.705  12.685
22638SOL    HW169753   5.332   8.636  12.623
22638SOL    HW269754   5.359   8.781  12.658
22639SOL     OW69755  12.477   3.744   4.205
22639SOL    HW169756  12.521   3.743   4.121
22639SOL    HW269757  12.471   3.837   4.229
22640SOL     OW69758   1.220   7.136  13.636
22640SOL    HW169759   1.178   7.052  13.623
22640SOL    HW269760   1.189   7.167  13.720
22641SOL     OW69761   3.230  14.544  12.740
22641SOL    HW169762   3.206  14.453  12.757
22641SOL    HW269763   3.175  14.595  12.799
22642SOL     OW69764  10.292   2.285  12.710
22642SOL    HW169765  10.250   2.205  12.740
22642SOL    HW269766  10.301   2.338  12.790
22643SOL     OW69767  12.545  11.331   4.999
22643SOL    HW169768  12.514  11.284   5.077
22643SOL    HW269769  12.558  11.421   5.029
22644SOL     OW69770   8.844  11.663   9.755
22644SOL    HW169771   8.869  11.653   9.847
22644SOL    HW269772   8.764  11.716   9.758
22645SOL     OW69773   8.750   7.251  12.220
22645SOL    HW169774   8.726   7.202  12.299
22645SOL    HW269775   8.710   7.337  12.232
22646SOL     OW69776   3.045   1.038   5.238
22646SOL    HW169777   3.084   0.955   5.211
22646SOL    HW269778   2.950   1.022   5.234
22647SOL     OW69779   8.448  14.385   1.117
22647SOL    HW169780   8.501  14.355   1.190
22647SOL    HW269781   8.505  14.378   1.041
22648SOL     OW69782   4.748  10.382  10.737
22648SOL    HW169783   4.692  10.351  10.808
22648SOL    HW269784   4.834  10.395  10.777
22649SOL     OW69785  12.513  13.751   5.330
22649SOL    HW169786  12.419  13.764   5.340
22649SOL    HW269787  12.521  13.686   5.259
22650SOL     OW69788   9.919   6.800  13.296
22650SOL    HW169789   9.837   6.812  13.249
22650SOL    HW269790   9.933   6.705  13.296
22651SOL     OW69791   2.212  14.021   8.839
22651SOL    HW169792   2.200  13.935   8.798
22651SOL    HW269793   2.300  14.017   8.877
22652SOL     OW69794  11.363  12.806   7.290
22652SOL    HW169795  11.318  12.761   7.218
22652SOL    HW269796  11.410  12.878   7.248
22653SOL     OW69797  14.834   6.597   2.925
22653SOL    HW169798  14.870   6.622   2.839
22653SOL    HW269799  14.739   6.595   2.911
22654SOL     OW69800   8.526   9.584  11.597
22654SOL    HW169801   8.570   9.616  11.518
22654SOL    HW269802   8.593   9.537  11.646
22655SOL     OW69803   0.376   6.032   3.770
22655SOL    HW169804   0.288   6.016   3.736
22655SOL    HW269805   0.398   6.120   3.739
22656SOL     OW69806   1.536   0.955  11.766
22656SOL    HW169807   1.442   0.959  11.747
22656SOL    HW269808   1.542   0.969  11.861
22657SOL     OW69809   7.524   3.872   2.306
22657SOL    HW169810   7.464   3.923   2.251
22657SOL    HW269811   7.584   3.936   2.343
22658SOL     OW69812   7.627   3.738   7.776
22658SOL    HW169813   7.621   3.803   7.847
22658SOL    HW269814   7.713   3.753   7.737
22659SOL     OW69815  14.603  14.812   2.339
22659SOL    HW169816  14.558  14.759   2.404
22659SOL    HW269817  14.568  14.781   2.255
22660SOL     OW69818  12.866   1.918  13.074
22660SOL    HW169819  12.866   1.884  13.163
22660SOL    HW269820  12.886   2.011  13.084
22661SOL     OW69821  12.522   0.711   3.909
22661SOL    HW169822  12.518   0.663   3.827
22661SOL    HW269823  12.432   0.736   3.927
22662SOL     OW69824   5.344   4.018  11.574
22662SOL    HW169825   5.262   4.047  11.613
22662SOL    HW269826   5.410   4.035  11.641
22663SOL     OW69827   9.653  12.013   7.792
22663SOL    HW169828   9.670  11.921   7.814
22663SOL    HW269829   9.603  12.009   7.710
22664SOL     OW69830   2.554   1.963   2.965
22664SOL    HW169831   2.570   1.906   2.890
22664SOL    HW269832   2.577   1.910   3.041
22665SOL     OW69833  12.599  12.389   9.064
22665SOL    HW169834  12.599  12.303   9.023
22665SOL    HW269835  12.685  12.397   9.105
22666SOL     OW69836  14.749   9.600   0.067
22666SOL    HW169837  14.819   9.665   0.075
22666SOL    HW269838  14.676   9.648   0.028
22667SOL     OW69839   8.252   7.513   3.548
22667SOL    HW169840   8.243   7.542   3.458
22667SOL    HW269841   8.308   7.578   3.590
22668SOL     OW69842   1.739   5.331   7.938
22668SOL    HW169843   1.761   5.388   8.012
22668SOL    HW269844   1.723   5.245   7.978
22669SOL     OW69845   2.165  10.814  12.130
22669SOL    HW169846   2.110  10.881  12.087
22669SOL    HW269847   2.126  10.804  12.217
22670SOL     OW69848   9.071   0.531   1.726
22670SOL    HW169849   9.035   0.444   1.707
22670SOL    HW269850   8.996   0.590   1.714
22671SOL     OW69851  11.442  12.852   6.161
22671SOL    HW169852  11.478  12.764   6.170
22671SOL    HW269853  11.393  12.850   6.079
22672SOL     OW69854  10.755   2.136   2.620
22672SOL    HW169855  10.783   2.224   2.643
22672SOL    HW269856  10.796   2.118   2.536
22673SOL     OW69857  14.205   6.452   9.655
22673SOL    HW169858  14.267   6.429   9.586
22673SOL    HW269859  14.162   6.531   9.623
22674SOL     OW69860   8.035   3.221   2.261
22674SOL    HW169861   7.976   3.290   2.289
22674SOL    HW269862   8.042   3.162   2.337
22675SOL     OW69863   1.985  12.236   8.900
22675SOL    HW169864   1.925  12.256   8.972
22675SOL    HW269865   2.057  12.298   8.910
22676SOL     OW69866  11.006   2.855  11.584
22676SOL    HW169867  11.018   2.938  11.631
22676SOL    HW269868  11.038   2.788  11.644
22677SOL     OW69869   1.760   3.375   0.876
22677SOL    HW169870   1.818   3.300   0.858
22677SOL    HW269871   1.798   3.447   0.827
22678SOL     OW69872   4.161   9.216  10.225
22678SOL    HW169873   4.088   9.271  10.255
22678SOL    HW269874   4.185   9.253  10.141
22679SOL     OW69875   8.261   6.610  10.810
22679SOL    HW169876   8.231   6.551  10.879
22679SOL    HW269877   8.328   6.560  10.763
22680SOL     OW69878   2.006   7.509   6.796
22680SOL    HW169879   2.035   7.493   6.885
22680SOL    HW269880   1.935   7.447   6.782
22681SOL     OW69881   4.817   1.429   8.153
22681SOL    HW169882   4.726   1.457   8.144
22681SOL    HW269883   4.829   1.364   8.084
22682SOL     OW69884   2.679  11.975   4.597
22682SOL    HW169885   2.699  11.989   4.504
22682SOL    HW269886   2.744  11.911   4.626
22683SOL     OW69887  13.850   0.018  10.026
22683SOL    HW169888  13.891  14.831   9.965
22683SOL    HW269889  13.862  14.852  10.112
22684SOL     OW69890  10.302  10.149   8.836
22684SOL    HW169891  10.257  10.101   8.766
22684SOL    HW269892  10.238  10.155   8.907
22685SOL     OW69893   5.907   7.882   7.265
22685SOL    HW169894   5.942   7.969   7.285
22685SOL    HW269895   5.967   7.846   7.199
22686SOL     OW69896   9.560  11.571   2.287
22686SOL    HW169897   9.514  11.510   2.345
22686SOL    HW269898   9.567  11.652   2.339
22687SOL     OW69899  12.272   1.734  12.485
22687SOL    HW169900  12.233   1.651  12.511
22687SOL    HW269901  12.314   1.767  12.564
22688SOL     OW69902   3.481   7.329   6.991
22688SOL    HW169903   3.536   7.403   6.963
22688SOL    HW269904   3.392   7.358   6.972
22689SOL     OW69905  12.476   2.654   0.327
22689SOL    HW169906  12.428   2.672   0.246
22689SOL    HW269907  12.496   2.741   0.362
22690SOL     OW69908   7.653  11.477   7.706
22690SOL    HW169909   7.709  11.423   7.761
22690SOL    HW269910   7.565  11.443   7.720
22691SOL     OW69911   6.235   5.685  11.491
22691SOL    HW169912   6.218   5.776  11.517
22691SOL    HW269913   6.153   5.655  11.453
22692SOL     OW69914  14.416   1.460   2.814
22692SOL    HW169915  14.474   1.520   2.861
22692SOL    HW269916  14.357   1.426   2.882
22693SOL     OW69917   5.453  14.152   3.412
22693SOL    HW169918   5.543  14.186   3.409
22693SOL    HW269919   5.465  14.057   3.424
22694SOL     OW69920   0.630   1.165  14.315
22694SOL    HW169921   0.645   1.247  14.361
22694SOL    HW269922   0.717   1.127  14.303
22695SOL     OW69923   7.000  10.510   1.776
22695SOL    HW169924   6.936  10.549   1.717
22695SOL    HW269925   6.952  10.491   1.856
22696SOL     OW69926  14.771   3.954   9.205
22696SOL    HW169927  14.736   3.922   9.122
22696SOL    HW269928  14.786   3.874   9.256
22697SOL     OW69929  11.740   1.954   2.421
22697SOL    HW169930  11.751   1.998   2.337
22697SOL    HW269931  11.805   1.994   2.479
22698SOL     OW69932   6.281  12.309   2.333
22698SOL    HW169933   6.274  12.321   2.428
22698SOL    HW269934   6.194  12.331   2.300
22699SOL     OW69935   2.631   5.271   0.296
22699SOL    HW169936   2.671   5.292   0.211
22699SOL    HW269937   2.612   5.177   0.291
22700SOL     OW69938   4.079   3.883  14.601
22700SOL    HW169939   4.127   3.806  14.571
22700SOL    HW269940   3.995   3.850  14.631
22701SOL     OW69941  14.123   7.656   5.821
22701SOL    HW169942  14.091   7.742   5.848
22701SOL    HW269943  14.168   7.673   5.737
22702SOL     OW69944   7.838   1.738   1.742
22702SOL    HW169945   7.802   1.827   1.735
22702SOL    HW269946   7.853   1.712   1.651
22703SOL     OW69947   1.207  13.354   1.495
22703SOL    HW169948   1.222  13.386   1.406
22703SOL    HW269949   1.220  13.431   1.551
22704SOL     OW69950  11.177   8.394   1.859
22704SOL    HW169951  11.143   8.330   1.922
22704SOL    HW269952  11.117   8.469   1.866
22705SOL     OW69953  12.099   3.116   7.340
22705SOL    HW169954  12.179   3.089   7.386
22705SOL    HW269955  12.057   3.177   7.401
22706SOL     OW69956  10.472   0.318   2.047
22706SOL    HW169957  10.540   0.261   2.012
22706SOL    HW269958  10.391   0.270   2.032
22707SOL     OW69959   1.263   5.611   8.510
22707SOL    HW169960   1.257   5.522   8.544
22707SOL    HW269961   1.177   5.628   8.473
22708SOL     OW69962   1.406   0.113   1.896
22708SOL    HW169963   1.424   0.119   1.803
22708SOL    HW269964   1.477   0.058   1.931
22709SOL     OW69965  13.653   6.742  12.242
22709SOL    HW169966  13.653   6.680  12.169
22709SOL    HW269967  13.566   6.783  12.237
22710SOL     OW69968  11.060   8.877  11.252
22710SOL    HW169969  11.018   8.826  11.183
22710SOL    HW269970  11.142   8.907  11.213
22711SOL     OW69971   6.675  10.207  13.915
22711SOL    HW169972   6.699  10.224  14.006
22711SOL    HW269973   6.689  10.113  13.904
22712SOL     OW69974  13.034  13.716   3.178
22712SOL    HW169975  13.127  13.738   3.187
22712SOL    HW269976  12.988  13.797   3.201
22713SOL     OW69977  11.329   0.202   0.903
22713SOL    HW169978  11.403   0.213   0.963
22713SOL    HW269979  11.344   0.116   0.863
22714SOL     OW69980   9.986   8.020   2.139
22714SOL    HW169981   9.969   8.065   2.056
22714SOL    HW269982   9.922   7.949   2.142
22715SOL     OW69983  11.936   3.531   3.134
22715SOL    HW169984  11.917   3.601   3.072
22715SOL    HW269985  11.980   3.575   3.207
22716SOL     OW69986  11.526  14.497  10.386
22716SOL    HW169987  11.586  14.437  10.342
22716SOL    HW269988  11.562  14.508  10.474
22717SOL     OW69989   4.037   9.584   6.589
22717SOL    HW169990   4.082   9.500   6.597
22717SOL    HW269991   3.968   9.580   6.655
22718SOL     OW69992  14.342   0.930  14.207
22718SOL    HW169993  14.291   0.931  14.126
22718SOL    HW269994  14.413   0.868  14.189
22719SOL     OW69995   2.368  12.933  13.390
22719SOL    HW169996   2.284  12.891  13.374
22719SOL    HW269997   2.347  13.026  13.398
22720SOL     OW69998   1.484   8.041   7.681
22720SOL    HW169999   1.579   8.035   7.672
22720SOL    HW270000   1.466   8.000   7.766
22721SOL     OW70001  11.968   7.426  12.897
22721SOL    HW170002  11.945   7.488  12.827
22721SOL    HW270003  11.893   7.367  12.903
22722SOL     OW70004   4.048  14.063   2.055
22722SOL    HW170005   4.028  14.093   2.143
22722SOL    HW270006   4.124  14.115   2.028
22723SOL     OW70007   2.952   6.222  10.255
22723SOL    HW170008   2.957   6.148  10.195
22723SOL    HW270009   2.923   6.183  10.338
22724SOL     OW70010   8.763   0.968  12.566
22724SOL    HW170011   8.846   0.930  12.537
22724SOL    HW270012   8.727   1.010  12.487
22725SOL     OW70013  12.892  10.626   1.549
22725SOL    HW170014  12.803  10.660   1.540
22725SOL    HW270015  12.915  10.594   1.462
22726SOL     OW70016  13.484   6.193   9.259
22726SOL    HW170017  13.545   6.221   9.191
22726SOL    HW270018  13.518   6.230   9.340
22727SOL     OW70019   3.228   6.651   8.900
22727SOL    HW170020   3.200   6.588   8.966
22727SOL    HW270021   3.257   6.596   8.826
22728SOL     OW70022   6.709   8.305  13.242
22728SOL    HW170023   6.633   8.270  13.196
22728SOL    HW270024   6.769   8.332  13.172
22729SOL     OW70025   0.270   9.830   5.379
22729SOL    HW170026   0.252   9.912   5.333
22729SOL    HW270027   0.232   9.762   5.324
22730SOL     OW70028   3.739   2.041  11.296
22730SOL    HW170029   3.827   2.075  11.310
22730SOL    HW270030   3.712   2.006  11.381
22731SOL     OW70031   0.364  10.070   8.752
22731SOL    HW170032   0.300  10.020   8.802
22731SOL    HW270033   0.357  10.036   8.663
22732SOL     OW70034  10.808  11.673  11.322
22732SOL    HW170035  10.762  11.723  11.390
22732SOL    HW270036  10.755  11.683  11.244
22733SOL     OW70037   7.205  10.040   6.052
22733SOL    HW170038   7.179  10.129   6.029
22733SOL    HW270039   7.252  10.007   5.975
22734SOL     OW70040   5.631   4.280   2.015
22734SOL    HW170041   5.624   4.206   2.075
22734SOL    HW270042   5.659   4.241   1.932
22735SOL     OW70043   7.914  13.805   5.422
22735SOL    HW170044   7.965  13.724   5.433
22735SOL    HW270045   7.973  13.863   5.373
22736SOL     OW70046   8.423   4.035   1.075
22736SOL    HW170047   8.373   3.967   1.031
22736SOL    HW270048   8.461   4.087   1.004
22737SOL     OW70049  10.710  10.902  11.463
22737SOL    HW170050  10.640  10.906  11.399
22737SOL    HW270051  10.691  10.823  11.515
22738SOL     OW70052   7.377   5.979   2.115
22738SOL    HW170053   7.445   5.974   2.049
22738SOL    HW270054   7.316   6.046   2.083
22739SOL     OW70055   0.424   8.095  14.618
22739SOL    HW170056   0.473   8.040  14.680
22739SOL    HW270057   0.332   8.082  14.642
22740SOL     OW70058   8.087   3.727   0.527
22740SOL    HW170059   8.166   3.756   0.481
22740SOL    HW270060   8.099   3.759   0.617
22741SOL     OW70061   2.860   4.833   7.863
22741SOL    HW170062   2.809   4.842   7.782
22741SOL    HW270063   2.888   4.923   7.883
22742SOL     OW70064   8.783  10.259   7.426
22742SOL    HW170065   8.746  10.209   7.498
22742SOL    HW270066   8.775  10.200   7.350
22743SOL     OW70067  12.822   4.860   8.277
22743SOL    HW170068  12.742   4.911   8.292
22743SOL    HW270069  12.888   4.902   8.332
22744SOL     OW70070  14.723  13.122  10.447
22744SOL    HW170071  14.705  13.029  10.435
22744SOL    HW270072  14.783  13.125  10.522
22745SOL     OW70073   5.977   3.718   8.894
22745SOL    HW170074   5.963   3.750   8.982
22745SOL    HW270075   5.990   3.623   8.905
22746SOL     OW70076  11.036  13.096   9.987
22746SOL    HW170077  11.002  13.130  10.069
22746SOL    HW270078  11.053  13.174   9.934
22747SOL     OW70079   3.512   6.337   4.866
22747SOL    HW170080   3.590   6.309   4.817
22747SOL    HW270081   3.439   6.295   4.821
22748SOL     OW70082  12.675   2.043   9.593
22748SOL    HW170083  12.619   1.998   9.655
22748SOL    HW270084  12.759   2.053   9.638
22749SOL     OW70085   2.443   9.346   4.564
22749SOL    HW170086   2.424   9.292   4.488
22749SOL    HW270087   2.538   9.339   4.575
22750SOL     OW70088   0.896   6.600   3.847
22750SOL    HW170089   0.941   6.515   3.850
22750SOL    HW270090   0.813   6.582   3.803
22751SOL     OW70091  14.802   0.680   7.185
22751SOL    HW170092   0.005   0.623   7.195
22751SOL    HW270093  14.749   0.663   7.263
22752SOL     OW70094   8.328   8.790   8.674
22752SOL    HW170095   8.316   8.741   8.755
22752SOL    HW270096   8.280   8.739   8.608
22753SOL     OW70097   3.149   8.796  10.830
22753SOL    HW170098   3.148   8.811  10.925
22753SOL    HW270099   3.076   8.848  10.797
22754SOL     OW70100   5.093   3.189   8.473
22754SOL    HW170101   5.127   3.225   8.555
22754SOL    HW270102   5.108   3.095   8.480
22755SOL     OW70103   3.208   2.638   8.183
22755SOL    HW170104   3.232   2.681   8.264
22755SOL    HW270105   3.179   2.551   8.209
22756SOL     OW70106   8.286  12.673  12.924
22756SOL    HW170107   8.326  12.750  12.966
22756SOL    HW270108   8.329  12.668  12.839
22757SOL     OW70109   0.733  11.150  11.070
22757SOL    HW170110   0.825  11.167  11.090
22757SOL    HW270111   0.735  11.111  10.982
22758SOL     OW70112   2.699   8.496   8.277
22758SOL    HW170113   2.656   8.575   8.309
22758SOL    HW270114   2.657   8.424   8.325
22759SOL     OW70115   4.885  10.629   6.814
22759SOL    HW170116   4.854  10.660   6.729
22759SOL    HW270117   4.847  10.541   6.822
22760SOL     OW70118   3.100  11.888   5.106
22760SOL    HW170119   3.149  11.903   5.186
22760SOL    HW270120   3.167  11.873   5.039
22761SOL     OW70121  10.017   8.131  14.124
22761SOL    HW170122   9.981   8.194  14.062
22761SOL    HW270123   9.987   8.046  14.092
22762SOL     OW70124   0.893   9.854  13.301
22762SOL    HW170125   0.984   9.871  13.325
22762SOL    HW270126   0.856   9.811  13.378
22763SOL     OW70127   4.177   0.877   6.147
22763SOL    HW170128   4.210   0.862   6.235
22763SOL    HW270129   4.245   0.929   6.104
22764SOL     OW70130  11.524   4.006  11.981
22764SOL    HW170131  11.509   4.101  11.987
22764SOL    HW270132  11.608   3.998  11.937
22765SOL     OW70133   5.275  12.719   9.661
22765SOL    HW170134   5.220  12.726   9.583
22765SOL    HW270135   5.254  12.633   9.697
22766SOL     OW70136   4.277   2.398  12.131
22766SOL    HW170137   4.274   2.470  12.194
22766SOL    HW270138   4.365   2.401  12.095
22767SOL     OW70139  11.699   8.111  13.293
22767SOL    HW170140  11.701   8.021  13.325
22767SOL    HW270141  11.786   8.145  13.314
22768SOL     OW70142  14.023   0.128   5.374
22768SOL    HW170143  14.069   0.194   5.322
22768SOL    HW270144  14.053   0.044   5.338
22769SOL     OW70145   8.774   4.995   2.137
22769SOL    HW170146   8.809   5.077   2.104
22769SOL    HW270147   8.680   5.002   2.125
22770SOL     OW70148  13.679   4.427  12.201
22770SOL    HW170149  13.641   4.447  12.115
22770SOL    HW270150  13.773   4.440  12.189
22771SOL     OW70151   6.673  11.448   1.393
22771SOL    HW170152   6.739  11.494   1.445
22771SOL    HW270153   6.712  11.362   1.375
22772SOL     OW70154   4.368  11.405   5.164
22772SOL    HW170155   4.403  11.371   5.082
22772SOL    HW270156   4.274  11.413   5.148
22773SOL     OW70157   5.495  13.888   0.445
22773SOL    HW170158   5.545  13.967   0.466
22773SOL    HW270159   5.562  13.824   0.420
22774SOL     OW70160   6.854   3.715   3.252
22774SOL    HW170161   6.819   3.669   3.175
22774SOL    HW270162   6.852   3.807   3.228
22775SOL     OW70163   8.835   8.821   3.586
22775SOL    HW170164   8.887   8.791   3.512
22775SOL    HW270165   8.784   8.745   3.612
22776SOL     OW70166   0.846  10.884   3.717
22776SOL    HW170167   0.809  10.842   3.639
22776SOL    HW270168   0.940  10.868   3.710
22777SOL     OW70169   4.206   8.959   8.573
22777SOL    HW170170   4.260   8.977   8.650
22777SOL    HW270171   4.121   8.935   8.608
22778SOL     OW70172   2.950   2.518   0.204
22778SOL    HW170173   2.993   2.592   0.161
22778SOL    HW270174   2.899   2.476   0.135
22779SOL     OW70175   6.835   3.794   7.483
22779SOL    HW170176   6.838   3.800   7.387
22779SOL    HW270177   6.835   3.700   7.502
22780SOL     OW70178  12.566  14.319   2.302
22780SOL    HW170179  12.493  14.275   2.257
22780SOL    HW270180  12.644  14.274   2.271
22781SOL     OW70181  12.845   5.965  11.072
22781SOL    HW170182  12.880   6.053  11.054
22781SOL    HW270183  12.824   5.930  10.985
22782SOL     OW70184   1.257   3.843  11.452
22782SOL    HW170185   1.268   3.764  11.399
22782SOL    HW270186   1.221   3.812  11.535
22783SOL     OW70187   0.308  11.655   7.999
22783SOL    HW170188   0.310  11.744   8.034
22783SOL    HW270189   0.319  11.667   7.905
22784SOL     OW70190   8.515  14.119  11.552
22784SOL    HW170191   8.491  14.211  11.565
22784SOL    HW270192   8.462  14.091  11.477
22785SOL     OW70193   2.890   1.799  11.100
22785SOL    HW170194   2.812   1.771  11.053
22785SOL    HW270195   2.905   1.731  11.166
22786SOL     OW70196   6.491   7.625   5.109
22786SOL    HW170197   6.455   7.536   5.108
22786SOL    HW270198   6.422   7.679   5.071
22787SOL     OW70199   2.448   3.318   1.448
22787SOL    HW170200   2.399   3.295   1.526
22787SOL    HW270201   2.503   3.392   1.475
22788SOL     OW70202  14.418   4.508   4.571
22788SOL    HW170203  14.382   4.594   4.547
22788SOL    HW270204  14.348   4.465   4.620
22789SOL     OW70205   0.637  10.995  14.599
22789SOL    HW170206   0.714  11.026  14.551
22789SOL    HW270207   0.568  11.056  14.576
22790SOL     OW70208   9.661   1.312   9.328
22790SOL    HW170209   9.584   1.308   9.271
22790SOL    HW270210   9.627   1.292   9.415
22791SOL     OW70211   5.386  10.485   7.718
22791SOL    HW170212   5.378  10.454   7.808
22791SOL    HW270213   5.478  10.510   7.709
22792SOL     OW70214   4.533   9.677  13.543
22792SOL    HW170215   4.468   9.739  13.575
22792SOL    HW270216   4.553   9.622  13.619
22793SOL     OW70217  10.630  11.238   0.219
22793SOL    HW170218  10.606  11.329   0.235
22793SOL    HW270219  10.578  11.188   0.282
22794SOL     OW70220   2.018   5.168   9.246
22794SOL    HW170221   2.090   5.154   9.184
22794SOL    HW270222   2.015   5.087   9.297
22795SOL     OW70223   2.998   7.202   0.388
22795SOL    HW170224   3.088   7.224   0.365
22795SOL    HW270225   2.945   7.259   0.332
22796SOL     OW70226   1.167   4.287   4.330
22796SOL    HW170227   1.258   4.300   4.355
22796SOL    HW270228   1.141   4.206   4.375
22797SOL     OW70229   6.269  13.780   8.107
22797SOL    HW170230   6.262  13.868   8.071
22797SOL    HW270231   6.330  13.735   8.049
22798SOL     OW70232  14.582  12.474   4.223
22798SOL    HW170233  14.597  12.566   4.201
22798SOL    HW270234  14.515  12.445   4.161
22799SOL     OW70235   1.418   2.245   4.971
22799SOL    HW170236   1.363   2.168   4.954
22799SOL    HW270237   1.406   2.300   4.893
22800SOL     OW70238   1.794  10.295   2.064
22800SOL    HW170239   1.713  10.314   2.017
22800SOL    HW270240   1.858  10.275   1.995
22801SOL     OW70241  10.685  10.222   8.572
22801SOL    HW170242  10.644  10.221   8.659
22801SOL    HW270243  10.628  10.279   8.520
22802SOL     OW70244   2.309   8.750  10.015
22802SOL    HW170245   2.384   8.759  10.074
22802SOL    HW270246   2.261   8.832  10.025
22803SOL     OW70247   4.532   5.630   1.210
22803SOL    HW170248   4.597   5.627   1.140
22803SOL    HW270249   4.459   5.578   1.177
22804SOL     OW70250   5.373   7.783   3.375
22804SOL    HW170251   5.335   7.697   3.361
22804SOL    HW270252   5.298   7.841   3.390
22805SOL     OW70253   9.521   7.533   8.112
22805SOL    HW170254   9.432   7.515   8.082
22805SOL    HW270255   9.559   7.585   8.041
22806SOL     OW70256   5.100   6.701   6.853
22806SOL    HW170257   5.039   6.713   6.926
22806SOL    HW270258   5.169   6.766   6.868
22807SOL     OW70259  13.047   5.427   4.425
22807SOL    HW170260  13.037   5.434   4.330
22807SOL    HW270261  13.095   5.345   4.438
22808SOL     OW70262   9.188   7.807   3.558
22808SOL    HW170263   9.201   7.808   3.463
22808SOL    HW270264   9.255   7.747   3.590
22809SOL     OW70265   5.936   9.398  10.734
22809SOL    HW170266   6.024   9.370  10.761
22809SOL    HW270267   5.879   9.327  10.762
22810SOL     OW70268   0.171   3.446   9.596
22810SOL    HW170269   0.227   3.380   9.556
22810SOL    HW270270   0.182   3.524   9.541
22811SOL     OW70271  11.709   9.491   9.652
22811SOL    HW170272  11.740   9.548   9.722
22811SOL    HW270273  11.788   9.464   9.606
22812SOL     OW70274   3.917   0.849   9.035
22812SOL    HW170275   3.881   0.902   8.965
22812SOL    HW270276   4.003   0.888   9.053
22813SOL     OW70277   2.853   2.877   7.671
22813SOL    HW170278   2.881   2.786   7.659
22813SOL    HW270279   2.869   2.896   7.763
22814SOL     OW70280  10.668  10.446   7.790
22814SOL    HW170281  10.694  10.515   7.851
22814SOL    HW270282  10.716  10.368   7.820
22815SOL     OW70283   8.293   5.738   4.951
22815SOL    HW170284   8.308   5.655   4.996
22815SOL    HW270285   8.208   5.768   4.984
22816SOL     OW70286  14.074   4.332  10.687
22816SOL    HW170287  14.115   4.418  10.676
22816SOL    HW270288  13.986   4.351  10.719
22817SOL     OW70289   7.167  10.498   5.322
22817SOL    HW170290   7.245  10.503   5.266
22817SOL    HW270291   7.176  10.416   5.369
22818SOL     OW70292  11.242   3.134  11.090
22818SOL    HW170293  11.163   3.143  11.144
22818SOL    HW270294  11.283   3.054  11.121
22819SOL     OW70295   7.575   9.583   1.335
22819SOL    HW170296   7.573   9.679   1.330
22819SOL    HW270297   7.660   9.562   1.372
22820SOL     OW70298   5.516   5.772   2.090
22820SOL    HW170299   5.555   5.767   2.003
22820SOL    HW270300   5.440   5.829   2.080
22821SOL     OW70301  12.149   8.631   1.322
22821SOL    HW170302  12.120   8.648   1.411
22821SOL    HW270303  12.128   8.711   1.274
22822SOL     OW70304  11.744   1.751  11.345
22822SOL    HW170305  11.691   1.678  11.314
22822SOL    HW270306  11.741   1.744  11.441
22823SOL     OW70307   2.332   1.981   0.964
22823SOL    HW170308   2.292   1.895   0.972
22823SOL    HW270309   2.384   1.977   0.884
22824SOL     OW70310  14.157  14.358  10.184
22824SOL    HW170311  14.093  14.359  10.113
22824SOL    HW270312  14.240  14.334  10.142
22825SOL     OW70313   2.077   8.884  12.585
22825SOL    HW170314   2.024   8.945  12.534
22825SOL    HW270315   2.031   8.800  12.577
22826SOL     OW70316  13.727   8.785  10.661
22826SOL    HW170317  13.806   8.788  10.714
22826SOL    HW270318  13.673   8.858  10.692
22827SOL     OW70319  11.894   5.978   4.931
22827SOL    HW170320  11.841   6.055   4.954
22827SOL    HW270321  11.879   5.967   4.837
22828SOL     OW70322   8.080   7.689   6.749
22828SOL    HW170323   8.032   7.613   6.716
22828SOL    HW270324   8.157   7.651   6.791
22829SOL     OW70325   4.280   3.282   7.492
22829SOL    HW170326   4.205   3.287   7.432
22829SOL    HW270327   4.316   3.370   7.492
22830SOL     OW70328   3.667  14.523  11.168
22830SOL    HW170329   3.725  14.566  11.106
22830SOL    HW270330   3.677  14.573  11.250
22831SOL     OW70331  11.965   7.811   4.788
22831SOL    HW170332  12.016   7.874   4.737
22831SOL    HW270333  12.018   7.731   4.787
22832SOL     OW70334  12.602   3.646   7.047
22832SOL    HW170335  12.662   3.586   7.091
22832SOL    HW270336  12.647   3.731   7.050
22833SOL     OW70337  11.180   7.040  13.623
22833SOL    HW170338  11.113   6.978  13.594
22833SOL    HW270339  11.213   7.079  13.541
22834SOL     OW70340  11.558  12.223   9.428
22834SOL    HW170341  11.525  12.254   9.513
22834SOL    HW270342  11.653  12.238   9.433
22835SOL     OW70343   5.178  13.757  13.000
22835SOL    HW170344   5.213  13.687  12.945
22835SOL    HW270345   5.200  13.837  12.953
22836SOL     OW70346  14.201  10.083   8.256
22836SOL    HW170347  14.249  10.140   8.197
22836SOL    HW270348  14.196   9.999   8.209
22837SOL     OW70349   5.309   5.210   6.454
22837SOL    HW170350   5.313   5.295   6.411
22837SOL    HW270351   5.223   5.209   6.495
22838SOL     OW70352   8.675   8.001   7.229
22838SOL    HW170353   8.589   7.989   7.188
22838SOL    HW270354   8.692   8.095   7.224
22839SOL     OW70355   2.677   1.707  14.482
22839SOL    HW170356   2.582   1.708  14.483
22839SOL    HW270357   2.701   1.677  14.395
22840SOL     OW70358   8.287   3.111  12.802
22840SOL    HW170359   8.382   3.110  12.796
22840SOL    HW270360   8.268   3.096  12.895
22841SOL     OW70361   0.348  13.176   4.352
22841SOL    HW170362   0.368  13.082   4.351
22841SOL    HW270363   0.371  13.205   4.440
22842SOL     OW70364   2.867   3.493   5.478
22842SOL    HW170365   2.919   3.492   5.558
22842SOL    HW270366   2.853   3.400   5.457
22843SOL     OW70367  11.810   5.730   8.507
22843SOL    HW170368  11.888   5.725   8.563
22843SOL    HW270369  11.808   5.821   8.477
22844SOL     OW70370   5.748   4.082   8.978
22844SOL    HW170371   5.711   4.147   9.038
22844SOL    HW270372   5.804   4.027   9.033
22845SOL     OW70373   9.382   9.124   0.572
22845SOL    HW170374   9.299   9.163   0.547
22845SOL    HW270375   9.388   9.140   0.667
22846SOL     OW70376   4.246   4.168   7.583
22846SOL    HW170377   4.150   4.172   7.594
22846SOL    HW270378   4.270   4.082   7.619
22847SOL     OW70379   6.632  14.787   2.173
22847SOL    HW170380   6.654  14.826   2.257
22847SOL    HW270381   6.645  14.857   2.109
22848SOL     OW70382  14.223  11.793   3.922
22848SOL    HW170383  14.239  11.887   3.912
22848SOL    HW270384  14.242  11.775   4.014
22849SOL     OW70385   0.773   7.711   3.280
22849SOL    HW170386   0.805   7.653   3.211
22849SOL    HW270387   0.678   7.706   3.273
22850SOL     OW70388   6.326  14.727   5.468
22850SOL    HW170389   6.287  14.712   5.555
22850SOL    HW270390   6.253  14.715   5.407
22851SOL     OW70391   4.484   0.832  13.082
22851SOL    HW170392   4.557   0.810  13.023
22851SOL    HW270393   4.482   0.761  13.145
22852SOL     OW70394   3.312   2.523  10.547
22852SOL    HW170395   3.389   2.541  10.602
22852SOL    HW270396   3.295   2.605  10.501
22853SOL     OW70397   7.293  12.480   3.837
22853SOL    HW170398   7.214  12.528   3.865
22853SOL    HW270399   7.358  12.548   3.822
22854SOL     OW70400  12.361  10.667   7.165
22854SOL    HW170401  12.408  10.615   7.231
22854SOL    HW270402  12.292  10.609   7.133
22855SOL     OW70403   1.223   6.845   3.412
22855SOL    HW170404   1.143   6.804   3.379
22855SOL    HW270405   1.211   6.939   3.395
22856SOL     OW70406  11.297   2.104  13.558
22856SOL    HW170407  11.318   2.196  13.575
22856SOL    HW270408  11.367   2.074  13.501
22857SOL     OW70409   0.405   3.473   7.591
22857SOL    HW170410   0.369   3.516   7.669
22857SOL    HW270411   0.488   3.518   7.575
22858SOL     OW70412   5.011   7.786  14.760
22858SOL    HW170413   5.010   7.875  14.726
22858SOL    HW270414   5.017   7.796  14.855
22859SOL     OW70415   3.824   0.356   0.862
22859SOL    HW170416   3.805   0.268   0.892
22859SOL    HW270417   3.771   0.367   0.783
22860SOL     OW70418  12.616   9.249   1.793
22860SOL    HW170419  12.644   9.327   1.841
22860SOL    HW270420  12.532   9.274   1.754
22861SOL     OW70421   5.475   7.877   4.811
22861SOL    HW170422   5.525   7.865   4.892
22861SOL    HW270423   5.515   7.817   4.748
22862SOL     OW70424  11.541   8.289  14.299
22862SOL    HW170425  11.480   8.350  14.340
22862SOL    HW270426  11.625   8.335  14.299
22863SOL     OW70427   1.059   8.025   0.290
22863SOL    HW170428   0.967   8.007   0.270
22863SOL    HW270429   1.074   8.113   0.254
22864SOL     OW70430  13.794   3.965   7.222
22864SOL    HW170431  13.735   4.036   7.196
22864SOL    HW270432  13.817   3.986   7.313
22865SOL     OW70433  14.777  10.866  11.233
22865SOL    HW170434  14.816  10.940  11.185
22865SOL    HW270435  14.747  10.904  11.315
22866SOL     OW70436  10.029   6.176   4.808
22866SOL    HW170437  10.101   6.157   4.867
22866SOL    HW270438   9.965   6.106   4.823
22867SOL     OW70439  10.903  14.246   6.310
22867SOL    HW170440  10.858  14.207   6.235
22867SOL    HW270441  10.980  14.190   6.323
22868SOL     OW70442  14.556   8.850   2.308
22868SOL    HW170443  14.481   8.908   2.294
22868SOL    HW270444  14.610   8.861   2.230
22869SOL     OW70445   0.727  14.579   5.914
22869SOL    HW170446   0.659  14.513   5.901
22869SOL    HW270447   0.739  14.619   5.827
22870SOL     OW70448   1.568  11.023  13.943
22870SOL    HW170449   1.614  10.942  13.967
22870SOL    HW270450   1.480  11.011  13.978
22871SOL     OW70451  13.362  12.199   4.896
22871SOL    HW170452  13.427  12.224   4.962
22871SOL    HW270453  13.283  12.248   4.920
22872SOL     OW70454   8.505   5.895   5.045
22872SOL    HW170455   8.561   5.848   5.107
22872SOL    HW270456   8.429   5.837   5.032
22873SOL     OW70457   1.157  12.497   5.609
22873SOL    HW170458   1.126  12.408   5.628
22873SOL    HW270459   1.115  12.519   5.526
22874SOL     OW70460   1.818   8.407   8.242
22874SOL    HW170461   1.855   8.452   8.318
22874SOL    HW270462   1.853   8.455   8.167
22875SOL     OW70463  12.191  12.674  13.587
22875SOL    HW170464  12.238  12.593  13.607
22875SOL    HW270465  12.244  12.743  13.626
22876SOL     OW70466   8.033   0.332  12.141
22876SOL    HW170467   8.047   0.245  12.105
22876SOL    HW270468   8.010   0.387  12.066
22877SOL     OW70469   8.636  14.339  10.262
22877SOL    HW170470   8.686  14.267  10.223
22877SOL    HW270471   8.573  14.295  10.319
22878SOL     OW70472   4.399   1.241   1.146
22878SOL    HW170473   4.468   1.263   1.209
22878SOL    HW270474   4.425   1.288   1.066
22879SOL     OW70475  10.859  14.135  10.906
22879SOL    HW170476  10.800  14.210  10.897
22879SOL    HW270477  10.885  14.136  10.998
22880SOL     OW70478  13.031   4.568  11.046
22880SOL    HW170479  12.961   4.530  10.993
22880SOL    HW270480  13.043   4.505  11.117
22881SOL     OW70481  12.843   4.810   0.205
22881SOL    HW170482  12.814   4.878   0.145
22881SOL    HW270483  12.762   4.764   0.229
22882SOL     OW70484   5.320  14.059   0.348
22882SOL    HW170485   5.276  14.024   0.271
22882SOL    HW270486   5.333  13.982   0.405
22883SOL     OW70487   4.188  12.922  10.506
22883SOL    HW170488   4.211  12.948  10.416
22883SOL    HW270489   4.272  12.914  10.551
22884SOL     OW70490  12.880   4.678   6.352
22884SOL    HW170491  12.824   4.601   6.353
22884SOL    HW270492  12.895   4.699   6.444
22885SOL     OW70493   0.100   8.222   5.660
22885SOL    HW170494   0.021   8.209   5.713
22885SOL    HW270495   0.159   8.152   5.687
22886SOL     OW70496   1.138  12.204  11.145
22886SOL    HW170497   1.212  12.161  11.102
22886SOL    HW270498   1.154  12.298  11.132
22887SOL     OW70499   2.854   0.211   2.399
22887SOL    HW170500   2.920   0.280   2.404
22887SOL    HW270501   2.779   0.246   2.448
22888SOL     OW70502  11.640  11.766   1.599
22888SOL    HW170503  11.662  11.676   1.577
22888SOL    HW270504  11.624  11.766   1.693
22889SOL     OW70505   5.588   8.602   2.555
22889SOL    HW170506   5.644   8.671   2.591
22889SOL    HW270507   5.569   8.631   2.466
22890SOL     OW70508   3.908   1.400  14.467
22890SOL    HW170509   3.909   1.489  14.501
22890SOL    HW270510   4.000   1.381  14.448
22891SOL     OW70511   6.419  13.648   2.224
22891SOL    HW170512   6.504  13.612   2.196
22891SOL    HW270513   6.442  13.720   2.283
22892SOL     OW70514   0.731  10.424  14.227
22892SOL    HW170515   0.782  10.459  14.154
22892SOL    HW270516   0.703  10.338  14.197
22893SOL     OW70517   8.229   4.911  10.082
22893SOL    HW170518   8.237   4.890   9.989
22893SOL    HW270519   8.171   4.843  10.118
22894SOL     OW70520   3.816   2.572   0.666
22894SOL    HW170521   3.897   2.539   0.704
22894SOL    HW270522   3.747   2.521   0.707
22895SOL     OW70523   6.867  13.688  14.283
22895SOL    HW170524   6.889  13.713  14.193
22895SOL    HW270525   6.771  13.683  14.283
22896SOL     OW70526   2.181   9.253   5.225
22896SOL    HW170527   2.124   9.203   5.166
22896SOL    HW270528   2.143   9.341   5.227
22897SOL     OW70529   2.545  11.398  11.039
22897SOL    HW170530   2.634  11.433  11.028
22897SOL    HW270531   2.521  11.367  10.952
22898SOL     OW70532  10.619  14.439   9.271
22898SOL    HW170533  10.616  14.535   9.271
22898SOL    HW270534  10.691  14.418   9.330
22899SOL     OW70535   5.419   1.643  12.257
22899SOL    HW170536   5.453   1.695  12.330
22899SOL    HW270537   5.425   1.552  12.288
22900SOL     OW70538   1.484   0.083   9.688
22900SOL    HW170539   1.443   0.169   9.686
22900SOL    HW270540   1.529   0.080   9.772
22901SOL     OW70541  10.000  12.241  14.635
22901SOL    HW170542  10.052  12.202  14.706
22901SOL    HW270543  10.017  12.335  14.643
22902SOL     OW70544   8.170   9.332   9.141
22902SOL    HW170545   8.078   9.355   9.155
22902SOL    HW270546   8.182   9.251   9.191
22903SOL     OW70547  14.457  11.649   1.207
22903SOL    HW170548  14.468  11.558   1.234
22903SOL    HW270549  14.465  11.648   1.112
22904SOL     OW70550  12.796   3.970   7.922
22904SOL    HW170551  12.835   3.941   7.840
22904SOL    HW270552  12.732   3.902   7.943
22905SOL     OW70553   7.978  13.723   3.325
22905SOL    HW170554   8.054  13.767   3.362
22905SOL    HW270555   8.012  13.641   3.290
22906SOL     OW70556  11.292   9.902   9.828
22906SOL    HW170557  11.317   9.967   9.893
22906SOL    HW270558  11.344   9.825   9.851
22907SOL     OW70559   1.156   0.453   5.672
22907SOL    HW170560   1.077   0.430   5.720
22907SOL    HW270561   1.212   0.496   5.737
22908SOL     OW70562  12.479   1.390   8.926
22908SOL    HW170563  12.443   1.470   8.886
22908SOL    HW270564  12.568   1.415   8.952
22909SOL     OW70565  11.552   4.491  14.404
22909SOL    HW170566  11.608   4.448  14.469
22909SOL    HW270567  11.463   4.466  14.429
22910SOL     OW70568   7.510   1.829  13.452
22910SOL    HW170569   7.487   1.799  13.364
22910SOL    HW270570   7.451   1.904  13.467
22911SOL     OW70571  10.181   9.350  12.838
22911SOL    HW170572  10.089   9.328  12.849
22911SOL    HW270573  10.206   9.390  12.921
22912SOL     OW70574   7.413   3.177   2.877
22912SOL    HW170575   7.386   3.256   2.924
22912SOL    HW270576   7.452   3.121   2.945
22913SOL     OW70577  14.035   9.725   6.563
22913SOL    HW170578  14.122   9.745   6.599
22913SOL    HW270579  14.045   9.739   6.469
22914SOL     OW70580   1.673  10.030   6.698
22914SOL    HW170581   1.651   9.945   6.735
22914SOL    HW270582   1.625  10.033   6.615
22915SOL     OW70583   8.479   9.976  10.159
22915SOL    HW170584   8.552   9.913  10.155
22915SOL    HW270585   8.497  10.029  10.236
22916SOL     OW70586  13.448   5.949   2.407
22916SOL    HW170587  13.506   5.948   2.331
22916SOL    HW270588  13.414   5.860   2.413
22917SOL     OW70589   8.300   6.243  13.388
22917SOL    HW170590   8.345   6.214  13.309
22917SOL    HW270591   8.268   6.163  13.429
22918SOL     OW70592   8.109   4.962  11.341
22918SOL    HW170593   8.061   5.008  11.271
22918SOL    HW270594   8.128   4.876  11.304
22919SOL     OW70595   0.268   7.479   2.993
22919SOL    HW170596   0.232   7.498   2.907
22919SOL    HW270597   0.215   7.406   3.025
22920SOL     OW70598  12.248  11.335  13.846
22920SOL    HW170599  12.240  11.396  13.919
22920SOL    HW270600  12.343  11.321  13.837
22921SOL     OW70601   5.480   2.801   9.144
22921SOL    HW170602   5.408   2.767   9.197
22921SOL    HW270603   5.441   2.872   9.093
22922SOL     OW70604   7.528   5.379   4.488
22922SOL    HW170605   7.623   5.388   4.490
22922SOL    HW270606   7.511   5.328   4.409
22923SOL     OW70607   8.862   0.199   9.062
22923SOL    HW170608   8.936   0.258   9.050
22923SOL    HW270609   8.847   0.162   8.975
22924SOL     OW70610  10.999  14.621   0.654
22924SOL    HW170611  11.067  14.591   0.713
22924SOL    HW270612  11.007  14.564   0.577
22925SOL     OW70613  13.247   0.646   4.665
22925SOL    HW170614  13.288   0.635   4.580
22925SOL    HW270615  13.250   0.558   4.704
22926SOL     OW70616   4.654  14.767   0.635
22926SOL    HW170617   4.559  14.774   0.623
22926SOL    HW270618   4.675  14.833   0.700
22927SOL     OW70619  10.346   7.903   0.668
22927SOL    HW170620  10.430   7.921   0.626
22927SOL    HW270621  10.365   7.832   0.729
22928SOL     OW70622   7.264   7.294   6.282
22928SOL    HW170623   7.256   7.340   6.365
22928SOL    HW270624   7.276   7.364   6.217
22929SOL     OW70625  12.843   2.624   5.220
22929SOL    HW170626  12.877   2.562   5.155
22929SOL    HW270627  12.913   2.688   5.231
22930SOL     OW70628   6.587   4.971  11.121
22930SOL    HW170629   6.515   5.024  11.155
22930SOL    HW270630   6.545   4.908  11.062
22931SOL     OW70631   5.867   9.397   4.321
22931SOL    HW170632   5.896   9.342   4.248
22931SOL    HW270633   5.851   9.336   4.393
22932SOL     OW70634   7.649  11.822   6.385
22932SOL    HW170635   7.558  11.850   6.391
22932SOL    HW270636   7.670  11.789   6.472
22933SOL     OW70637   2.939  12.225  14.412
22933SOL    HW170638   2.951  12.287  14.341
22933SOL    HW270639   2.859  12.177  14.390
22934SOL     OW70640   1.030   9.771   4.779
22934SOL    HW170641   0.993   9.694   4.735
22934SOL    HW270642   1.107   9.794   4.727
22935SOL     OW70643   8.021   4.116  10.570
22935SOL    HW170644   8.035   4.085  10.481
22935SOL    HW270645   7.962   4.191  10.562
22936SOL     OW70646  13.899   4.827  10.263
22936SOL    HW170647  13.961   4.861  10.327
22936SOL    HW270648  13.839   4.772  10.314
22937SOL     OW70649   6.699  12.448  11.897
22937SOL    HW170650   6.680  12.511  11.828
22937SOL    HW270651   6.769  12.394  11.861
22938SOL     OW70652  12.613   5.844   0.784
22938SOL    HW170653  12.662   5.915   0.743
22938SOL    HW270654  12.578   5.793   0.710
22939SOL     OW70655   0.958   6.517   4.498
22939SOL    HW170656   0.895   6.520   4.426
22939SOL    HW270657   0.979   6.424   4.507
22940SOL     OW70658   9.515   4.411   2.858
22940SOL    HW170659   9.500   4.505   2.867
22940SOL    HW270660   9.596   4.395   2.907
22941SOL     OW70661  12.912   1.987  14.033
22941SOL    HW170662  12.890   1.902  14.071
22941SOL    HW270663  13.001   2.005  14.064
22942SOL     OW70664   5.987  13.530   9.306
22942SOL    HW170665   6.021  13.595   9.368
22942SOL    HW270666   6.044  13.537   9.230
22943SOL     OW70667   0.588   2.524   4.498
22943SOL    HW170668   0.521   2.533   4.430
22943SOL    HW270669   0.540   2.492   4.574
22944SOL     OW70670   2.788   1.391   0.613
22944SOL    HW170671   2.822   1.307   0.582
22944SOL    HW270672   2.768   1.440   0.534
22945SOL     OW70673  10.669  14.593   4.981
22945SOL    HW170674  10.649  14.541   5.058
22945SOL    HW270675  10.729  14.539   4.929
22946SOL     OW70676  13.233  11.674   0.459
22946SOL    HW170677  13.220  11.588   0.499
22946SOL    HW270678  13.239  11.734   0.534
22947SOL     OW70679  13.091  11.862  14.502
22947SOL    HW170680  13.177  11.821  14.507
22947SOL    HW270681  13.029  11.789  14.493
22948SOL     OW70682   9.697   5.947   5.901
22948SOL    HW170683   9.683   6.031   5.857
22948SOL    HW270684   9.707   5.970   5.993
22949SOL     OW70685   2.192   8.910   8.049
22949SOL    HW170686   2.203   9.004   8.041
22949SOL    HW270687   2.281   8.875   8.045
22950SOL     OW70688  14.220   6.357  12.589
22950SOL    HW170689  14.171   6.393  12.663
22950SOL    HW270690  14.151   6.328  12.528
22951SOL     OW70691  12.850   1.153   1.142
22951SOL    HW170692  12.897   1.205   1.207
22951SOL    HW270693  12.783   1.107   1.193
22952SOL     OW70694   1.516   8.698   6.747
22952SOL    HW170695   1.560   8.760   6.804
22952SOL    HW270696   1.564   8.704   6.664
22953SOL     OW70697  13.111  13.882   8.711
22953SOL    HW170698  13.194  13.841   8.737
22953SOL    HW270699  13.129  13.976   8.713
22954SOL     OW70700  13.389   0.393   2.276
22954SOL    HW170701  13.460   0.332   2.254
22954SOL    HW270702  13.339   0.349   2.344
22955SOL     OW70703  10.794   3.523   4.772
22955SOL    HW170704  10.746   3.552   4.695
22955SOL    HW270705  10.886   3.532   4.749
22956SOL     OW70706   9.113  14.057   1.201
22956SOL    HW170707   9.137  14.129   1.142
22956SOL    HW270708   9.184  14.053   1.265
22957SOL     OW70709   5.724  14.472   1.001
22957SOL    HW170710   5.676  14.536   1.053
22957SOL    HW270711   5.722  14.392   1.054
22958SOL     OW70712  12.159   6.535   5.448
22958SOL    HW170713  12.092   6.561   5.511
22958SOL    HW270714  12.195   6.618   5.415
22959SOL     OW70715   1.944  12.437   1.525
22959SOL    HW170716   2.025  12.400   1.490
22959SOL    HW270717   1.928  12.389   1.606
22960SOL     OW70718   2.688   9.198   3.719
22960SOL    HW170719   2.647   9.124   3.763
22960SOL    HW270720   2.698   9.264   3.788
22961SOL     OW70721   0.748  10.155   7.437
22961SOL    HW170722   0.669  10.101   7.446
22961SOL    HW270723   0.819  10.092   7.425
22962SOL     OW70724   4.713  10.132  11.685
22962SOL    HW170725   4.807  10.142  11.697
22962SOL    HW270726   4.693  10.187  11.609
22963SOL     OW70727   2.576   2.776   6.427
22963SOL    HW170728   2.582   2.869   6.448
22963SOL    HW270729   2.623   2.732   6.498
22964SOL     OW70730   4.524  14.840  11.773
22964SOL    HW170731   4.449  14.791  11.808
22964SOL    HW270732   4.600  14.803  11.819
22965SOL     OW70733  12.780   7.747  13.287
22965SOL    HW170734  12.711   7.812  13.275
22965SOL    HW270735  12.733   7.663  13.285
22966SOL     OW70736   8.509   6.116  13.745
22966SOL    HW170737   8.476   6.121  13.835
22966SOL    HW270738   8.482   6.198  13.705
22967SOL     OW70739   1.794   4.592   1.225
22967SOL    HW170740   1.748   4.674   1.241
22967SOL    HW270741   1.817   4.560   1.312
22968SOL     OW70742  13.015   8.083   4.602
22968SOL    HW170743  13.046   8.162   4.558
22968SOL    HW270744  12.994   8.111   4.691
22969SOL     OW70745   1.103   2.960  11.459
22969SOL    HW170746   1.070   3.005  11.537
22969SOL    HW270747   1.046   2.991  11.388
22970SOL     OW70748   6.490   8.760  12.580
22970SOL    HW170749   6.511   8.669  12.558
22970SOL    HW270750   6.394   8.763  12.576
22971SOL     OW70751   4.877   9.095   8.547
22971SOL    HW170752   4.945   9.067   8.485
22971SOL    HW270753   4.923   9.152   8.609
22972SOL     OW70754   5.973  11.465  13.818
22972SOL    HW170755   5.979  11.555  13.850
22972SOL    HW270756   5.885  11.436  13.843
22973SOL     OW70757   8.118   0.692   6.083
22973SOL    HW170758   8.042   0.670   6.137
22973SOL    HW270759   8.117   0.626   6.013
22974SOL     OW70760  13.870   2.005   0.538
22974SOL    HW170761  13.854   2.047   0.453
22974SOL    HW270762  13.872   2.077   0.600
22975SOL     OW70763  13.633   1.906  11.458
22975SOL    HW170764  13.538   1.898  11.468
22975SOL    HW270765  13.657   1.980  11.513
22976SOL     OW70766  11.904  11.862   7.279
22976SOL    HW170767  11.984  11.837   7.232
22976SOL    HW270768  11.926  11.850   7.371
22977SOL     OW70769   7.115  12.791  11.673
22977SOL    HW170770   7.155  12.831  11.750
22977SOL    HW270771   7.185  12.739  11.634
22978SOL     OW70772   4.135  10.127   3.880
22978SOL    HW170773   4.130  10.120   3.785
22978SOL    HW270774   4.215  10.177   3.896
22979SOL     OW70775  11.724  12.855  13.022
22979SOL    HW170776  11.737  12.818  13.109
22979SOL    HW270777  11.679  12.786  12.973
22980SOL     OW70778  12.956   6.128   6.964
22980SOL    HW170779  12.912   6.085   6.890
22980SOL    HW270780  12.897   6.115   7.038
22981SOL     OW70781  14.379  13.305   1.141
22981SOL    HW170782  14.365  13.384   1.090
22981SOL    HW270783  14.326  13.238   1.096
22982SOL     OW70784   9.261   6.606   1.129
22982SOL    HW170785   9.252   6.557   1.211
22982SOL    HW270786   9.355   6.612   1.115
22983SOL     OW70787   0.754   9.294  14.294
22983SOL    HW170788   0.764   9.375  14.344
22983SOL    HW270789   0.804   9.228  14.343
22984SOL     OW70790  14.774   8.311  13.791
22984SOL    HW170791  14.784   8.257  13.713
22984SOL    HW270792  14.858   8.305  13.836
22985SOL     OW70793   5.919   7.153   4.470
22985SOL    HW170794   5.932   7.061   4.493
22985SOL    HW270795   5.895   7.196   4.552
22986SOL     OW70796  10.813  10.851  14.459
22986SOL    HW170797  10.769  10.811  14.384
22986SOL    HW270798  10.743  10.896  14.506
22987SOL     OW70799  12.615   0.605   3.548
22987SOL    HW170800  12.676   0.541   3.585
22987SOL    HW270801  12.539   0.602   3.606
22988SOL     OW70802   3.426   6.860   2.877
22988SOL    HW170803   3.345   6.869   2.827
22988SOL    HW270804   3.408   6.791   2.940
22989SOL     OW70805   3.641   0.729  14.470
22989SOL    HW170806   3.621   0.636  14.478
22989SOL    HW270807   3.696   0.736  14.392
22990SOL     OW70808   4.526   1.669   6.103
22990SOL    HW170809   4.505   1.666   6.196
22990SOL    HW270810   4.444   1.691   6.060
22991SOL     OW70811   0.095  12.690  10.405
22991SOL    HW170812   0.084  12.713  10.313
22991SOL    HW270813   0.046  12.608  10.415
22992SOL     OW70814   0.763  13.949   4.231
22992SOL    HW170815   0.841  13.920   4.184
22992SOL    HW270816   0.720  14.011   4.171
22993SOL     OW70817   4.149   9.297   0.248
22993SOL    HW170818   4.086   9.316   0.318
22993SOL    HW270819   4.099   9.307   0.167
22994SOL     OW70820   9.855  13.062   8.736
22994SOL    HW170821   9.854  12.970   8.712
22994SOL    HW270822   9.763  13.083   8.754
22995SOL     OW70823  11.431   0.369  11.623
22995SOL    HW170824  11.407   0.447  11.673
22995SOL    HW270825  11.348   0.329  11.598
22996SOL     OW70826   9.944  12.693   0.878
22996SOL    HW170827  10.019  12.657   0.831
22996SOL    HW270828   9.870  12.642   0.847
22997SOL     OW70829   8.554  10.325  13.900
22997SOL    HW170830   8.475  10.370  13.871
22997SOL    HW270831   8.606  10.313  13.821
22998SOL     OW70832   9.877   6.469   2.420
22998SOL    HW170833   9.848   6.511   2.501
22998SOL    HW270834   9.959   6.512   2.398
22999SOL     OW70835  10.476  11.578  11.987
22999SOL    HW170836  10.409  11.638  11.954
22999SOL    HW270837  10.441  11.491  11.966
23000SOL     OW70838   9.616  14.807   7.034
23000SOL    HW170839   9.631  14.723   7.076
23000SOL    HW270840   9.666  14.870   7.086
23001SOL     OW70841   7.725   8.495  11.088
23001SOL    HW170842   7.671   8.518  11.164
23001SOL    HW270843   7.669   8.441  11.034
23002SOL     OW70844   5.192  14.542  12.409
23002SOL    HW170845   5.209  14.454  12.377
23002SOL    HW270846   5.237  14.547  12.493
23003SOL     OW70847  14.769   4.172  11.637
23003SOL    HW170848  14.826   4.112  11.685
23003SOL    HW270849  14.809   4.180  11.550
23004SOL     OW70850   8.621  10.353   6.264
23004SOL    HW170851   8.713  10.333   6.283
23004SOL    HW270852   8.577  10.268   6.267
23005SOL     OW70853  10.947   9.385   1.333
23005SOL    HW170854  10.935   9.480   1.327
23005SOL    HW270855  10.944   9.366   1.427
23006SOL     OW70856   3.173   6.321  11.590
23006SOL    HW170857   3.266   6.305  11.600
23006SOL    HW270858   3.164   6.365  11.506
23007SOL     OW70859  14.662   2.821  10.458
23007SOL    HW170860  14.672   2.849  10.367
23007SOL    HW270861  14.599   2.883  10.495
23008SOL     OW70862  13.189   4.335   4.690
23008SOL    HW170863  13.269   4.301   4.730
23008SOL    HW270864  13.220   4.383   4.613
23009SOL     OW70865   3.654   4.627   5.584
23009SOL    HW170866   3.655   4.713   5.543
23009SOL    HW270867   3.566   4.617   5.619
23010SOL     OW70868   9.440   1.641   9.245
23010SOL    HW170869   9.399   1.583   9.180
23010SOL    HW270870   9.523   1.666   9.205
23011SOL     OW70871   4.820   8.588  14.026
23011SOL    HW170872   4.853   8.585  13.936
23011SOL    HW270873   4.778   8.502  14.038
23012SOL     OW70874  14.136   2.300   8.675
23012SOL    HW170875  14.120   2.278   8.583
23012SOL    HW270876  14.049   2.317   8.712
23013SOL     OW70877   2.698   6.629  10.116
23013SOL    HW170878   2.722   6.581  10.037
23013SOL    HW270879   2.704   6.721  10.090
23014SOL     OW70880   6.643  13.826   3.023
23014SOL    HW170881   6.652  13.812   2.929
23014SOL    HW270882   6.608  13.744   3.057
23015SOL     OW70883   7.899   5.493   0.448
23015SOL    HW170884   7.905   5.499   0.544
23015SOL    HW270885   7.826   5.433   0.433
23016SOL     OW70886  11.583   6.051  13.559
23016SOL    HW170887  11.492   6.077  13.542
23016SOL    HW270888  11.618   6.031  13.472
23017SOL     OW70889  11.578   5.612   7.857
23017SOL    HW170890  11.567   5.559   7.779
23017SOL    HW270891  11.570   5.550   7.930
23018SOL     OW70892   6.297  13.463   6.453
23018SOL    HW170893   6.278  13.539   6.507
23018SOL    HW270894   6.339  13.499   6.375
23019SOL     OW70895   9.399   4.756  13.118
23019SOL    HW170896   9.363   4.747  13.206
23019SOL    HW270897   9.339   4.815  13.073
23020SOL     OW70898  12.521  12.111  12.345
23020SOL    HW170899  12.450  12.168  12.314
23020SOL    HW270900  12.475  12.037  12.385
23021SOL     OW70901  13.903  13.314   8.211
23021SOL    HW170902  13.818  13.272   8.223
23021SOL    HW270903  13.909  13.331   8.117
23022SOL     OW70904   9.222   7.776   2.638
23022SOL    HW170905   9.188   7.687   2.650
23022SOL    HW270906   9.223   7.813   2.727
23023SOL     OW70907  13.166  10.808   2.416
23023SOL    HW170908  13.176  10.866   2.341
23023SOL    HW270909  13.133  10.863   2.487
23024SOL     OW70910   2.243   7.439   1.847
23024SOL    HW170911   2.194   7.480   1.918
23024SOL    HW270912   2.212   7.482   1.768
23025SOL     OW70913   7.737   0.054   4.446
23025SOL    HW170914   7.714  14.835   4.444
23025SOL    HW270915   7.825   0.056   4.485
23026SOL     OW70916   7.314   9.414   5.161
23026SOL    HW170917   7.286   9.503   5.186
23026SOL    HW270918   7.408   9.413   5.178
23027SOL     OW70919  13.590   4.731  10.075
23027SOL    HW170920  13.666   4.711  10.129
23027SOL    HW270921  13.556   4.645  10.048
23028SOL     OW70922  11.492   1.426  11.816
23028SOL    HW170923  11.502   1.376  11.896
23028SOL    HW270924  11.453   1.364  11.754
23029SOL     OW70925  12.316   0.359   8.038
23029SOL    HW170926  12.341   0.446   8.006
23029SOL    HW270927  12.396   0.307   8.031
23030SOL     OW70928   9.521   0.477   1.138
23030SOL    HW170929   9.521   0.456   1.231
23030SOL    HW270930   9.612   0.500   1.119
23031SOL     OW70931  12.632   8.803   4.125
23031SOL    HW170932  12.692   8.866   4.165
23031SOL    HW270933  12.558   8.855   4.095
23032SOL     OW70934   7.390   8.491  11.547
23032SOL    HW170935   7.400   8.433  11.471
23032SOL    HW270936   7.335   8.562  11.515
23033SOL     OW70937   9.078  14.478   4.083
23033SOL    HW170938   9.121  14.422   4.148
23033SOL    HW270939   8.985  14.470   4.102
23034SOL     OW70940   1.525   0.406  13.615
23034SOL    HW170941   1.545   0.314  13.595
23034SOL    HW270942   1.429   0.412  13.607
23035SOL     OW70943  11.395   5.098   8.447
23035SOL    HW170944  11.438   5.069   8.528
23035SOL    HW270945  11.441   5.179   8.423
23036SOL     OW70946   8.831   1.077  14.182
23036SOL    HW170947   8.895   1.006  14.180
23036SOL    HW270948   8.807   1.090  14.090
23037SOL     OW70949   4.597  13.715  12.778
23037SOL    HW170950   4.573  13.644  12.838
23037SOL    HW270951   4.571  13.683  12.692
23038SOL     OW70952   9.255   0.404   1.091
23038SOL    HW170953   9.207   0.469   1.141
23038SOL    HW270954   9.338   0.447   1.069
23039SOL     OW70955  11.146   1.496   9.090
23039SOL    HW170956  11.172   1.588   9.086
23039SOL    HW270957  11.051   1.498   9.081
23040SOL     OW70958   9.999   5.993   6.561
23040SOL    HW170959  10.038   5.954   6.483
23040SOL    HW270960  10.034   5.942   6.634
23041SOL     OW70961  10.878   1.987   6.982
23041SOL    HW170962  10.963   2.006   7.023
23041SOL    HW270963  10.892   1.906   6.934
23042SOL     OW70964   2.466   2.606  13.684
23042SOL    HW170965   2.435   2.532  13.632
23042SOL    HW270966   2.420   2.599  13.767
23043SOL     OW70967   7.505  11.899   5.815
23043SOL    HW170968   7.465  11.891   5.902
23043SOL    HW270969   7.585  11.846   5.821
23044SOL     OW70970  12.638  14.658  11.424
23044SOL    HW170971  12.719  14.703  11.401
23044SOL    HW270972  12.614  14.693  11.510
23045SOL     OW70973   9.408   5.440   4.739
23045SOL    HW170974   9.339   5.506   4.743
23045SOL    HW270975   9.409   5.412   4.648
23046SOL     OW70976   7.194   7.713  14.173
23046SOL    HW170977   7.222   7.689  14.085
23046SOL    HW270978   7.209   7.808  14.178
23047SOL     OW70979   5.382   0.998   5.224
23047SOL    HW170980   5.314   1.040   5.276
23047SOL    HW270981   5.410   1.065   5.162
23048SOL     OW70982   1.373   8.726   9.171
23048SOL    HW170983   1.362   8.819   9.190
23048SOL    HW270984   1.368   8.683   9.257
23049SOL     OW70985   9.772   4.144   3.527
23049SOL    HW170986   9.695   4.093   3.503
23049SOL    HW270987   9.806   4.176   3.443
23050SOL     OW70988  11.366   0.454   6.136
23050SOL    HW170989  11.376   0.378   6.192
23050SOL    HW270990  11.343   0.525   6.196
23051SOL     OW70991  10.671   4.281   1.926
23051SOL    HW170992  10.756   4.319   1.902
23051SOL    HW270993  10.670   4.195   1.884
23052SOL     OW70994  12.783   7.571  10.905
23052SOL    HW170995  12.875   7.595  10.892
23052SOL    HW270996  12.751   7.633  10.971
23053SOL     OW70997  12.227   1.923   4.305
23053SOL    HW170998  12.242   1.883   4.219
23053SOL    HW270999  12.243   2.017   4.291
23054SOL     OW71000  11.916   5.378  11.207
23054SOL    HW171001  11.824   5.354  11.204
23054SOL    HW271002  11.927   5.440  11.135
23055SOL     OW71003   0.130  13.784   7.646
23055SOL    HW171004   0.178  13.775   7.564
23055SOL    HW271005   0.154  13.706   7.696
23056SOL     OW71006   9.547   2.596   5.588
23056SOL    HW171007   9.571   2.561   5.674
23056SOL    HW271008   9.454   2.619   5.597
23057SOL     OW71009   5.463  12.665   8.532
23057SOL    HW171010   5.486  12.750   8.495
23057SOL    HW271011   5.538  12.609   8.513
23058SOL     OW71012   5.521  12.147   3.023
23058SOL    HW171013   5.492  12.180   3.109
23058SOL    HW271014   5.608  12.185   3.011
23059SOL     OW71015   5.775   0.232   6.674
23059SOL    HW171016   5.818   0.226   6.759
23059SOL    HW271017   5.832   0.184   6.614
23060SOL     OW71018  14.051  10.521   5.347
23060SOL    HW171019  14.014  10.564   5.271
23060SOL    HW271020  14.109  10.453   5.310
23061SOL     OW71021  14.264  13.449   4.625
23061SOL    HW171022  14.238  13.357   4.613
23061SOL    HW271023  14.246  13.490   4.540
23062SOL     OW71024  11.020   4.863   9.777
23062SOL    HW171025  10.982   4.863   9.865
23062SOL    HW271026  11.023   4.771   9.752
23063SOL     OW71027   1.895   9.105   2.291
23063SOL    HW171028   1.872   9.127   2.201
23063SOL    HW271029   1.949   9.026   2.284
23064SOL     OW71030  14.123   0.783   5.354
23064SOL    HW171031  14.180   0.789   5.430
23064SOL    HW271032  14.048   0.839   5.376
23065SOL     OW71033   5.395   9.847   7.668
23065SOL    HW171034   5.389   9.892   7.753
23065SOL    HW271035   5.471   9.790   7.677
23066SOL     OW71036  11.393   2.479   8.547
23066SOL    HW171037  11.349   2.403   8.584
23066SOL    HW271038  11.330   2.551   8.558
23067SOL     OW71039  12.550   3.268   6.902
23067SOL    HW171040  12.602   3.272   6.822
23067SOL    HW271041  12.524   3.177   6.909
23068SOL     OW71042   0.655  11.280  12.643
23068SOL    HW171043   0.709  11.324  12.577
23068SOL    HW271044   0.565  11.291  12.612
23069SOL     OW71045  10.534   6.833  11.788
23069SOL    HW171046  10.493   6.787  11.861
23069SOL    HW271047  10.468   6.898  11.761
23070SOL     OW71048   0.504   8.429  13.360
23070SOL    HW171049   0.518   8.396  13.449
23070SOL    HW271050   0.532   8.357  13.304
23071SOL     OW71051  12.395   6.301  12.471
23071SOL    HW171052  12.419   6.381  12.518
23071SOL    HW271053  12.477   6.253  12.463
23072SOL     OW71054  11.503   0.153  13.266
23072SOL    HW171055  11.551   0.088  13.214
23072SOL    HW271056  11.507   0.233  13.214
23073SOL     OW71057  14.147   5.185   3.511
23073SOL    HW171058  14.181   5.264   3.551
23073SOL    HW271059  14.220   5.150   3.460
23074SOL     OW71060  11.668   7.060  14.777
23074SOL    HW171061  11.574   7.076  14.786
23074SOL    HW271062  11.693   7.112  14.701
23075SOL     OW71063  10.388   2.356   6.487
23075SOL    HW171064  10.430   2.296   6.549
23075SOL    HW271065  10.325   2.301   6.440
23076SOL     OW71066   3.460  14.377  11.628
23076SOL    HW171067   3.469  14.370  11.533
23076SOL    HW271068   3.413  14.297  11.654
23077SOL     OW71069  11.961   3.400   9.863
23077SOL    HW171070  11.977   3.483   9.909
23077SOL    HW271071  11.933   3.340   9.932
23078SOL     OW71072   2.564  13.388   3.025
23078SOL    HW171073   2.482  13.438   3.032
23078SOL    HW271074   2.536  13.301   2.997
23079SOL     OW71075   9.354  11.904  13.488
23079SOL    HW171076   9.425  11.939  13.542
23079SOL    HW271077   9.394  11.832  13.440
23080SOL     OW71078   7.426   1.922   1.929
23080SOL    HW171079   7.515   1.887   1.925
23080SOL    HW271080   7.438   2.013   1.958
23081SOL     OW71081   4.709   2.009  11.170
23081SOL    HW171082   4.694   2.051  11.254
23081SOL    HW271083   4.778   1.946  11.187
23082SOL     OW71084   5.687   9.050   8.507
23082SOL    HW171085   5.726   8.966   8.482
23082SOL    HW271086   5.613   9.026   8.562
23083SOL     OW71087   7.634   3.013  12.097
23083SOL    HW171088   7.591   3.036  12.178
23083SOL    HW271089   7.573   2.955  12.052
23084SOL     OW71090   2.999  12.624   2.676
23084SOL    HW171091   2.959  12.701   2.718
23084SOL    HW271092   2.941  12.605   2.602
23085SOL     OW71093   1.130   1.065  11.440
23085SOL    HW171094   1.149   1.008  11.365
23085SOL    HW271095   1.038   1.049  11.461
23086SOL     OW71096   5.362   6.380   5.940
23086SOL    HW171097   5.343   6.358   5.849
23086SOL    HW271098   5.297   6.332   5.991
23087SOL     OW71099   3.464  11.172  12.746
23087SOL    HW171100   3.507  11.212  12.822
23087SOL    HW271101   3.485  11.229  12.673
23088SOL     OW71102   3.944   0.022  14.669
23088SOL    HW171103   3.986   0.091  14.617
23088SOL    HW271104   3.904  14.838  14.604
23089SOL     OW71105   4.601   2.936  13.151
23089SOL    HW171106   4.527   2.996  13.137
23089SOL    HW271107   4.597   2.915  13.245
23090SOL     OW71108  12.604   0.580   6.602
23090SOL    HW171109  12.606   0.532   6.685
23090SOL    HW271110  12.621   0.671   6.627
23091SOL     OW71111   2.096  11.875   3.753
23091SOL    HW171112   2.188  11.862   3.730
23091SOL    HW271113   2.065  11.942   3.691
23092SOL     OW71114   9.867   8.187   8.815
23092SOL    HW171115   9.895   8.096   8.807
23092SOL    HW271116   9.944   8.239   8.790
23093SOL     OW71117   3.165   5.433   0.980
23093SOL    HW171118   3.136   5.476   0.900
23093SOL    HW271119   3.238   5.377   0.953
23094SOL     OW71120   3.188   1.183  11.552
23094SOL    HW171121   3.225   1.120  11.614
23094SOL    HW271122   3.256   1.192  11.485
23095SOL     OW71123   0.780  13.278   8.674
23095SOL    HW171124   0.805  13.323   8.754
23095SOL    HW271125   0.840  13.204   8.668
23096SOL     OW71126  10.943   8.459  12.937
23096SOL    HW171127  10.874   8.393  12.943
23096SOL    HW271128  10.992   8.435  12.858
23097SOL     OW71129  13.048   0.006   3.206
23097SOL    HW171130  13.067   0.099   3.211
23097SOL    HW271131  13.018  14.866   3.116
23098SOL     OW71132  13.719   8.945   5.679
23098SOL    HW171133  13.801   8.925   5.634
23098SOL    HW271134  13.689   9.027   5.640
23099SOL     OW71135   2.569   8.807   1.452
23099SOL    HW171136   2.637   8.856   1.405
23099SOL    HW271137   2.609   8.783   1.535
23100SOL     OW71138   9.958   4.064  14.133
23100SOL    HW171139   9.929   4.124  14.064
23100SOL    HW271140   9.969   4.120  14.210
23101SOL     OW71141  11.604   7.135   1.136
23101SOL    HW171142  11.594   7.205   1.200
23101SOL    HW271143  11.623   7.179   1.054
23102SOL     OW71144   0.040   8.231   4.146
23102SOL    HW171145   0.099   8.211   4.074
23102SOL    HW271146  14.827   8.236   4.106
23103SOL     OW71147   3.927  12.302   7.357
23103SOL    HW171148   3.939  12.253   7.275
23103SOL    HW271149   4.016  12.312   7.392
23104SOL     OW71150  13.371   6.308   3.423
23104SOL    HW171151  13.332   6.302   3.511
23104SOL    HW271152  13.328   6.239   3.373
23105SOL     OW71153   7.423   1.438  10.396
23105SOL    HW171154   7.489   1.504  10.375
23105SOL    HW271155   7.415   1.385  10.316
23106SOL     OW71156   4.291  11.967  14.722
23106SOL    HW171157   4.369  11.912  14.712
23106SOL    HW271158   4.326  12.054  14.744
23107SOL     OW71159   4.097   7.168   3.804
23107SOL    HW171160   4.071   7.177   3.712
23107SOL    HW271161   4.016   7.180   3.852
23108SOL     OW71162   6.337  11.990   0.301
23108SOL    HW171163   6.321  11.967   0.209
23108SOL    HW271164   6.378  12.076   0.297
23109SOL     OW71165  10.901   0.102  10.774
23109SOL    HW171166  10.822   0.124  10.824
23109SOL    HW271167  10.969   0.156  10.814
23110SOL     OW71168   3.114  13.959  12.353
23110SOL    HW171169   3.157  14.038  12.388
23110SOL    HW271170   3.022  13.970  12.376
23111SOL     OW71171  14.504  14.346   0.260
23111SOL    HW171172  14.445  14.277   0.228
23111SOL    HW271173  14.589  14.324   0.222
23112SOL     OW71174   7.051   3.935   8.171
23112SOL    HW171175   7.062   3.993   8.096
23112SOL    HW271176   6.964   3.897   8.160
23113SOL     OW71177  13.965   9.301   9.183
23113SOL    HW171178  14.057   9.277   9.172
23113SOL    HW271179  13.916   9.230   9.140
23114SOL     OW71180   3.916   5.743   0.428
23114SOL    HW171181   3.859   5.820   0.433
23114SOL    HW271182   3.860   5.670   0.454
23115SOL     OW71183  10.581   2.159   7.686
23115SOL    HW171184  10.584   2.064   7.690
23115SOL    HW271185  10.566   2.179   7.594
23116SOL     OW71186   8.836   2.999  12.410
23116SOL    HW171187   8.748   2.970  12.385
23116SOL    HW271188   8.823   3.087  12.444
23117SOL     OW71189   4.732   0.476   3.896
23117SOL    HW171190   4.690   0.420   3.831
23117SOL    HW271191   4.660   0.512   3.947
23118SOL     OW71192  12.811  12.505  14.258
23118SOL    HW171193  12.760  12.574  14.215
23118SOL    HW271194  12.899  12.515  14.222
23119SOL     OW71195   3.344  14.123  14.063
23119SOL    HW171196   3.311  14.197  14.013
23119SOL    HW271197   3.437  14.118  14.040
23120SOL     OW71198   8.288   3.581   6.871
23120SOL    HW171199   8.351   3.512   6.891
23120SOL    HW271200   8.335   3.641   6.813
23121SOL     OW71201  10.217   2.621   7.658
23121SOL    HW171202  10.212   2.535   7.700
23121SOL    HW271203  10.249   2.679   7.727
23122SOL     OW71204   2.809  11.687  13.265
23122SOL    HW171205   2.804  11.677  13.170
23122SOL    HW271206   2.888  11.738  13.279
23123SOL     OW71207   4.967   8.001  11.700
23123SOL    HW171208   4.979   8.001  11.605
23123SOL    HW271209   4.879   7.964  11.713
23124SOL     OW71210   7.761   8.617   1.103
23124SOL    HW171211   7.830   8.594   1.166
23124SOL    HW271212   7.680   8.608   1.153
23125SOL     OW71213   8.438   7.211   1.872
23125SOL    HW171214   8.380   7.254   1.934
23125SOL    HW271215   8.508   7.274   1.857
23126SOL     OW71216   3.556  13.766  10.538
23126SOL    HW171217   3.631  13.807  10.495
23126SOL    HW271218   3.480  13.813  10.505
23127SOL     OW71219   0.245  13.804   4.630
23127SOL    HW171220   0.316  13.744   4.610
23127SOL    HW271221   0.288  13.889   4.642
23128SOL     OW71222   9.836  11.537   7.229
23128SOL    HW171223   9.928  11.552   7.206
23128SOL    HW271224   9.791  11.617   7.198
23129SOL     OW71225   5.467  11.232   0.449
23129SOL    HW171226   5.429  11.218   0.362
23129SOL    HW271227   5.404  11.192   0.509
23130SOL     OW71228   0.709  12.477  10.236
23130SOL    HW171229   0.763  12.554  10.217
23130SOL    HW271230   0.755  12.431  10.306
23131SOL     OW71231  10.378   1.695   8.596
23131SOL    HW171232  10.347   1.764   8.538
23131SOL    HW271233  10.371   1.615   8.544
23132SOL     OW71234   6.987   4.011  13.989
23132SOL    HW171235   7.024   3.954  13.922
23132SOL    HW271236   6.938   4.077  13.940
23133SOL     OW71237   4.511   8.759  10.100
23133SOL    HW171238   4.602   8.781  10.124
23133SOL    HW271239   4.506   8.775  10.006
23134SOL     OW71240   4.036   5.388  11.986
23134SOL    HW171241   4.029   5.367  11.893
23134SOL    HW271242   4.052   5.483  11.987
23135SOL     OW71243   0.903   3.987   7.591
23135SOL    HW171244   0.809   3.970   7.587
23135SOL    HW271245   0.923   4.031   7.509
23136SOL     OW71246  13.373   5.257   7.722
23136SOL    HW171247  13.371   5.196   7.648
23136SOL    HW271248  13.447   5.315   7.702
23137SOL     OW71249   5.558   9.768  12.105
23137SOL    HW171250   5.471   9.808  12.113
23137SOL    HW271251   5.543   9.675  12.121
23138SOL     OW71252  10.466   4.178   4.361
23138SOL    HW171253  10.509   4.096   4.338
23138SOL    HW271254  10.383   4.177   4.314
23139SOL     OW71255   1.738  11.475  10.302
23139SOL    HW171256   1.746  11.384  10.273
23139SOL    HW271257   1.706  11.522  10.225
23140SOL     OW71258  13.018   5.741  13.307
23140SOL    HW171259  12.951   5.673  13.315
23140SOL    HW271260  12.973   5.815  13.265
23141SOL     OW71261   3.119   2.273   8.944
23141SOL    HW171262   3.048   2.211   8.926
23141SOL    HW271263   3.074   2.355   8.964
23142SOL     OW71264   2.138   7.530   5.976
23142SOL    HW171265   2.137   7.582   5.896
23142SOL    HW271266   2.086   7.452   5.955
23143SOL     OW71267   3.302   7.558   9.081
23143SOL    HW171268   3.250   7.632   9.111
23143SOL    HW271269   3.238   7.489   9.062
23144SOL     OW71270   4.201  12.563   5.625
23144SOL    HW171271   4.271  12.557   5.690
23144SOL    HW271272   4.195  12.656   5.605
23145SOL     OW71273   8.814   3.383  10.327
23145SOL    HW171274   8.766   3.353  10.250
23145SOL    HW271275   8.889   3.323  10.333
23146SOL     OW71276   0.542   2.688   1.994
23146SOL    HW171277   0.511   2.764   2.042
23146SOL    HW271278   0.499   2.613   2.036
23147SOL     OW71279  12.539   3.781   5.895
23147SOL    HW171280  12.555   3.852   5.832
23147SOL    HW271281  12.627   3.756   5.924
23148SOL     OW71282   1.503   6.489   8.259
23148SOL    HW171283   1.464   6.526   8.179
23148SOL    HW271284   1.469   6.544   8.329
23149SOL     OW71285  10.361  11.220   5.612
23149SOL    HW171286  10.415  11.268   5.675
23149SOL    HW271287  10.271  11.234   5.641
23150SOL     OW71288   0.031  11.611   1.735
23150SOL    HW171289   0.081  11.530   1.737
23150SOL    HW271290  14.865  11.612   1.647
23151SOL     OW71291   1.225   0.626   0.788
23151SOL    HW171292   1.321   0.628   0.787
23151SOL    HW271293   1.200   0.683   0.860
23152SOL     OW71294  14.585   5.474   7.567
23152SOL    HW171295  14.560   5.382   7.561
23152SOL    HW271296  14.555   5.513   7.485
23153SOL     OW71297   5.014   8.232  12.831
23153SOL    HW171298   4.920   8.215  12.828
23153SOL    HW271299   5.029   8.303  12.769
23154SOL     OW71300   3.785  11.438   4.347
23154SOL    HW171301   3.731  11.398   4.279
23154SOL    HW271302   3.792  11.530   4.321
23155SOL     OW71303   2.420  11.721   3.217
23155SOL    HW171304   2.372  11.704   3.136
23155SOL    HW271305   2.470  11.641   3.233
23156SOL     OW71306  11.999  14.391   5.687
23156SOL    HW171307  11.916  14.439   5.695
23156SOL    HW271308  12.030  14.383   5.778
23157SOL     OW71309   1.183   3.195  11.698
23157SOL    HW171310   1.197   3.169  11.789
23157SOL    HW271311   1.088   3.206  11.691
23158SOL     OW71312   6.178   4.961  14.592
23158SOL    HW171313   6.253   5.015  14.569
23158SOL    HW271314   6.180   4.889  14.530
23159SOL     OW71315  13.000  10.308   6.515
23159SOL    HW171316  12.928  10.271   6.465
23159SOL    HW271317  13.077  10.258   6.487
23160SOL     OW71318  10.303   1.809   3.558
23160SOL    HW171319  10.362   1.734   3.548
23160SOL    HW271320  10.215   1.772   3.550
23161SOL     OW71321   4.407   6.040   6.255
23161SOL    HW171322   4.325   6.070   6.214
23161SOL    HW271323   4.441   5.976   6.193
23162SOL     OW71324   3.230   1.291   3.543
23162SOL    HW171325   3.156   1.349   3.562
23162SOL    HW271326   3.192   1.219   3.492
23163SOL     OW71327   9.840   3.211   2.802
23163SOL    HW171328   9.907   3.271   2.834
23163SOL    HW271329   9.890   3.141   2.758
23164SOL     OW71330   5.864  14.695   5.228
23164SOL    HW171331   5.792  14.636   5.251
23164SOL    HW271332   5.943  14.647   5.254
23165SOL     OW71333   3.797   2.143  14.581
23165SOL    HW171334   3.868   2.082  14.598
23165SOL    HW271335   3.807   2.167  14.489
23166SOL     OW71336   4.998   5.880   8.583
23166SOL    HW171337   5.032   5.874   8.494
23166SOL    HW271338   5.004   5.791   8.618
23167SOL     OW71339   7.897  13.385   7.125
23167SOL    HW171340   7.935  13.457   7.074
23167SOL    HW271341   7.802  13.395   7.113
23168SOL     OW71342  14.626   3.394   0.366
23168SOL    HW171343  14.678   3.387   0.286
23168SOL    HW271344  14.621   3.305   0.400
23169SOL     OW71345  11.967  10.822   7.139
23169SOL    HW171346  11.917  10.762   7.195
23169SOL    HW271347  11.975  10.902   7.190
23170SOL     OW71348   1.208  12.118   6.640
23170SOL    HW171349   1.200  12.098   6.733
23170SOL    HW271350   1.132  12.075   6.600
23171SOL     OW71351   9.783   2.845   5.176
23171SOL    HW171352   9.723   2.828   5.249
23171SOL    HW271353   9.854   2.896   5.215
23172SOL     OW71354   0.146   9.370   0.393
23172SOL    HW171355   0.234   9.375   0.430
23172SOL    HW271356   0.101   9.448   0.426
23173SOL     OW71357  13.999  14.306   4.091
23173SOL    HW171358  14.012  14.247   4.017
23173SOL    HW271359  13.957  14.384   4.053
23174SOL     OW71360   0.780  13.735   1.868
23174SOL    HW171361   0.862  13.698   1.902
23174SOL    HW271362   0.766  13.690   1.785
23175SOL     OW71363   0.396   8.332   9.262
23175SOL    HW171364   0.329   8.317   9.196
23175SOL    HW271365   0.469   8.275   9.235
23176SOL     OW71366   9.247   9.708   4.504
23176SOL    HW171367   9.249   9.632   4.562
23176SOL    HW271368   9.155   9.733   4.500
23177SOL     OW71369   4.313   4.247   3.516
23177SOL    HW171370   4.278   4.165   3.483
23177SOL    HW271371   4.335   4.229   3.608
23178SOL     OW71372   5.008   8.973  10.863
23178SOL    HW171373   4.914   8.980  10.875
23178SOL    HW271374   5.038   8.916  10.934
23179SOL     OW71375  10.761  14.057   9.739
23179SOL    HW171376  10.757  14.028   9.830
23179SOL    HW271377  10.811  14.139   9.742
23180SOL     OW71378  13.771  11.071   9.122
23180SOL    HW171379  13.783  11.006   9.191
23180SOL    HW271380  13.701  11.128   9.153
23181SOL     OW71381   5.091   4.239   2.251
23181SOL    HW171382   5.039   4.247   2.171
23181SOL    HW271383   5.062   4.156   2.290
23182SOL     OW71384   4.539   6.846  10.502
23182SOL    HW171385   4.553   6.762  10.460
23182SOL    HW271386   4.504   6.902  10.433
23183SOL     OW71387   0.345  13.640   6.558
23183SOL    HW171388   0.416  13.583   6.589
23183SOL    HW271389   0.281  13.639   6.629
23184SOL     OW71390   3.408   6.258   4.239
23184SOL    HW171391   3.444   6.216   4.161
23184SOL    HW271392   3.317   6.226   4.244
23185SOL     OW71393   3.653   6.464   2.092
23185SOL    HW171394   3.698   6.381   2.076
23185SOL    HW271395   3.715   6.531   2.064
23186SOL     OW71396   2.007  12.806  12.293
23186SOL    HW171397   2.084  12.847  12.253
23186SOL    HW271398   2.042  12.729  12.338
23187SOL     OW71399  11.936   6.595  10.317
23187SOL    HW171400  11.861   6.609  10.260
23187SOL    HW271401  11.928   6.662  10.385
23188SOL     OW71402   9.574   0.045   3.769
23188SOL    HW171403   9.605   0.073   3.855
23188SOL    HW271404   9.651   0.011   3.725
23189SOL     OW71405   6.329  11.949   1.355
23189SOL    HW171406   6.242  11.986   1.371
23189SOL    HW271407   6.389  12.014   1.391
23190SOL     OW71408   8.858   0.913   0.934
23190SOL    HW171409   8.927   0.978   0.940
23190SOL    HW271410   8.848   0.897   0.840
23191SOL     OW71411   3.972   6.856  12.720
23191SOL    HW171412   4.032   6.799  12.673
23191SOL    HW271413   3.886   6.838  12.683
23192SOL     OW71414   0.677   1.677   8.492
23192SOL    HW171415   0.692   1.614   8.422
23192SOL    HW271416   0.740   1.653   8.560
23193SOL     OW71417  13.071  13.703   2.326
23193SOL    HW171418  12.981  13.720   2.298
23193SOL    HW271419  13.085  13.763   2.399
23194SOL     OW71420   7.305  14.818   6.655
23194SOL    HW171421   7.313  14.729   6.620
23194SOL    HW271422   7.363  14.870   6.600
23195SOL     OW71423   4.874   2.700   8.713
23195SOL    HW171424   4.801   2.711   8.773
23195SOL    HW271425   4.944   2.754   8.750
23196SOL     OW71426  11.696   1.332  11.155
23196SOL    HW171427  11.686   1.275  11.231
23196SOL    HW271428  11.667   1.418  11.186
23197SOL     OW71429  14.746   2.081   6.387
23197SOL    HW171430  14.832   2.047   6.363
23197SOL    HW271431  14.701   2.093   6.303
23198SOL     OW71432   1.708   7.742   4.303
23198SOL    HW171433   1.718   7.707   4.215
23198SOL    HW271434   1.739   7.672   4.361
23199SOL     OW71435  14.604   7.972  10.780
23199SOL    HW171436  14.522   7.967  10.731
23199SOL    HW271437  14.620   7.883  10.809
23200SOL     OW71438   6.652  10.392   1.684
23200SOL    HW171439   6.632  10.327   1.616
23200SOL    HW271440   6.664  10.340   1.764
23201SOL     OW71441  13.401   1.172   4.163
23201SOL    HW171442  13.377   1.088   4.201
23201SOL    HW271443  13.322   1.200   4.116
23202SOL     OW71444   1.960   3.601   2.822
23202SOL    HW171445   2.026   3.663   2.790
23202SOL    HW271446   1.996   3.568   2.904
23203SOL     OW71447   4.324  11.149  10.895
23203SOL    HW171448   4.290  11.102  10.971
23203SOL    HW271449   4.277  11.233  10.897
23204SOL     OW71450   5.972   0.449  12.177
23204SOL    HW171451   6.034   0.480  12.111
23204SOL    HW271452   6.018   0.378  12.221
23205SOL     OW71453   4.019   4.536  12.732
23205SOL    HW171454   3.954   4.606  12.736
23205SOL    HW271455   4.043   4.532  12.639
23206SOL     OW71456   5.304  13.744   6.430
23206SOL    HW171457   5.278  13.807   6.363
23206SOL    HW271458   5.285  13.659   6.392
23207SOL     OW71459   5.067   3.246   9.348
23207SOL    HW171460   5.158   3.238   9.377
23207SOL    HW271461   5.045   3.338   9.363
23208SOL     OW71462  13.078   0.220   4.726
23208SOL    HW171463  13.102   0.146   4.782
23208SOL    HW271464  13.151   0.281   4.734
23209SOL     OW71465   5.373  11.625  13.043
23209SOL    HW171466   5.453  11.582  13.015
23209SOL    HW271467   5.313  11.616  12.969
23210SOL     OW71468  10.614  10.286   7.469
23210SOL    HW171469  10.519  10.288   7.470
23210SOL    HW271470  10.641  10.373   7.498
23211SOL     OW71471   1.624   9.316  14.172
23211SOL    HW171472   1.687   9.316  14.244
23211SOL    HW271473   1.541   9.341  14.213
23212SOL     OW71474   1.615   4.393  14.778
23212SOL    HW171475   1.687   4.339  14.810
23212SOL    HW271476   1.620   4.474  14.829
23213SOL     OW71477   5.405   1.152   7.132
23213SOL    HW171478   5.414   1.070   7.182
23213SOL    HW271479   5.325   1.140   7.080
23214SOL     OW71480   8.704   8.122  10.165
23214SOL    HW171481   8.656   8.199  10.197
23214SOL    HW271482   8.661   8.101  10.082
23215SOL     OW71483   9.365   7.077   0.171
23215SOL    HW171484   9.299   7.137   0.137
23215SOL    HW271485   9.421   7.056   0.096
23216SOL     OW71486   7.619   5.191   1.981
23216SOL    HW171487   7.524   5.181   1.985
23216SOL    HW271488   7.649   5.121   1.923
23217SOL     OW71489   3.505   2.773   9.092
23217SOL    HW171490   3.437   2.787   9.158
23217SOL    HW271491   3.562   2.849   9.100
23218SOL     OW71492   0.726   9.596   8.223
23218SOL    HW171493   0.650   9.567   8.274
23218SOL    HW271494   0.741   9.686   8.252
23219SOL     OW71495   1.433   7.800   8.935
23219SOL    HW171496   1.462   7.732   8.875
23219SOL    HW271497   1.480   7.879   8.907
23220SOL     OW71498   7.486   1.488  12.519
23220SOL    HW171499   7.580   1.503  12.510
23220SOL    HW271500   7.477   1.443  12.603
23221SOL     OW71501   3.023  13.435   3.255
23221SOL    HW171502   2.943  13.415   3.304
23221SOL    HW271503   3.094  13.416   3.318
23222SOL     OW71504   5.836  12.180   2.744
23222SOL    HW171505   5.855  12.116   2.675
23222SOL    HW271506   5.770  12.238   2.706
23223SOL     OW71507   9.226   9.125  12.563
23223SOL    HW171508   9.277   9.168  12.494
23223SOL    HW271509   9.247   9.032  12.555
23224SOL     OW71510   0.883   1.116   8.196
23224SOL    HW171511   0.803   1.141   8.243
23224SOL    HW271512   0.851   1.084   8.112
23225SOL     OW71513  14.755   7.176   1.217
23225SOL    HW171514  14.735   7.269   1.202
23225SOL    HW271515  14.772   7.141   1.130
23226SOL     OW71516  11.346   6.640   6.832
23226SOL    HW171517  11.377   6.710   6.774
23226SOL    HW271518  11.266   6.675   6.871
23227SOL     OW71519   4.688   7.048   0.422
23227SOL    HW171520   4.769   7.098   0.423
23227SOL    HW271521   4.714   6.959   0.445
23228SOL     OW71522   9.743   2.003  13.095
23228SOL    HW171523   9.674   2.033  13.154
23228SOL    HW271524   9.781   1.927  13.140
23229SOL     OW71525  12.153  13.117   5.154
23229SOL    HW171526  12.225  13.095   5.212
23229SOL    HW271527  12.141  13.039   5.099
23230SOL     OW71528   2.043  12.239   4.067
23230SOL    HW171529   2.021  12.146   4.067
23230SOL    HW271530   2.012  12.271   3.982
23231SOL     OW71531   5.323   9.843  13.867
23231SOL    HW171532   5.341   9.839  13.961
23231SOL    HW271533   5.284   9.929  13.854
23232SOL     OW71534   2.934  12.538   0.461
23232SOL    HW171535   2.987  12.567   0.386
23232SOL    HW271536   2.844  12.538   0.428
23233SOL     OW71537   6.423   1.742   1.923
23233SOL    HW171538   6.388   1.780   2.005
23233SOL    HW271539   6.404   1.809   1.857
23234SOL     OW71540   2.024  14.273   9.036
23234SOL    HW171541   1.989  14.194   8.995
23234SOL    HW271542   2.102  14.293   8.984
23235SOL     OW71543   7.800  10.168   7.465
23235SOL    HW171544   7.757  10.114   7.530
23235SOL    HW271545   7.811  10.111   7.389
23236SOL     OW71546   9.485  11.951   2.331
23236SOL    HW171547   9.471  11.990   2.417
23236SOL    HW271548   9.397  11.933   2.297
23237SOL     OW71549   3.688   2.573  12.351
23237SOL    HW171550   3.704   2.578  12.445
23237SOL    HW271551   3.672   2.663  12.324
23238SOL     OW71552   7.549  11.060   2.965
23238SOL    HW171553   7.565  11.016   2.882
23238SOL    HW271554   7.497  11.137   2.941
23239SOL     OW71555   2.242  14.847   1.509
23239SOL    HW171556   2.187   0.050   1.490
23239SOL    HW271557   2.179  14.776   1.521
23240SOL     OW71558  10.273   2.425  11.699
23240SOL    HW171559  10.205   2.405  11.764
23240SOL    HW271560  10.347   2.370  11.724
23241SOL     OW71561   3.788   3.583  12.504
23241SOL    HW171562   3.797   3.567  12.410
23241SOL    HW271563   3.850   3.523  12.544
23242SOL     OW71564   6.773   1.351  14.822
23242SOL    HW171565   6.740   1.263  14.806
23242SOL    HW271566   6.867   1.345  14.807
23243SOL     OW71567   2.184   7.882   4.011
23243SOL    HW171568   2.125   7.807   4.001
23243SOL    HW271569   2.233   7.885   3.929
23244SOL     OW71570   5.585   7.900   9.850
23244SOL    HW171571   5.549   7.880   9.764
23244SOL    HW271572   5.675   7.869   9.847
23245SOL     OW71573   4.985  10.921   2.413
23245SOL    HW171574   5.049  10.986   2.441
23245SOL    HW271575   5.034  10.865   2.352
23246SOL     OW71576   4.758   0.695  11.057
23246SOL    HW171577   4.757   0.787  11.084
23246SOL    HW271578   4.668   0.665  11.072
23247SOL     OW71579   9.695   3.750   7.514
23247SOL    HW171580   9.739   3.715   7.591
23247SOL    HW271581   9.761   3.805   7.472
23248SOL     OW71582   2.017   3.756   3.670
23248SOL    HW171583   1.928   3.774   3.701
23248SOL    HW271584   2.071   3.761   3.749
23249SOL     OW71585   3.525   9.786  10.665
23249SOL    HW171586   3.464   9.810  10.595
23249SOL    HW271587   3.610   9.815  10.632
23250SOL     OW71588   7.954  13.170  10.210
23250SOL    HW171589   8.018  13.202  10.274
23250SOL    HW271590   8.000  13.176  10.126
23251SOL     OW71591   7.958   8.902   4.594
23251SOL    HW171592   7.923   8.949   4.519
23251SOL    HW271593   8.038   8.861   4.562
23252SOL     OW71594   0.687  13.648   0.633
23252SOL    HW171595   0.625  13.577   0.621
23252SOL    HW271596   0.681  13.699   0.552
23253SOL     OW71597   4.838   0.564  10.822
23253SOL    HW171598   4.808   0.606  10.903
23253SOL    HW271599   4.928   0.538  10.841
23254SOL     OW71600   9.417   3.563  12.845
23254SOL    HW171601   9.427   3.565  12.749
23254SOL    HW271602   9.407   3.654  12.870
23255SOL     OW71603   2.127   2.882   6.290
23255SOL    HW171604   2.174   2.935   6.226
23255SOL    HW271605   2.194   2.821   6.324
23256SOL     OW71606   0.661   0.568   4.919
23256SOL    HW171607   0.671   0.555   4.825
23256SOL    HW271608   0.751   0.570   4.952
23257SOL     OW71609  11.784  13.081   0.824
23257SOL    HW171610  11.834  13.153   0.785
23257SOL    HW271611  11.846  13.008   0.829
23258SOL     OW71612   0.828   8.375   9.305
23258SOL    HW171613   0.902   8.332   9.347
23258SOL    HW271614   0.867   8.442   9.250
23259SOL     OW71615   9.946   7.791   6.080
23259SOL    HW171616   9.964   7.700   6.053
23259SOL    HW271617   9.916   7.783   6.171
23260SOL     OW71618   5.267  14.004   8.203
23260SOL    HW171619   5.304  13.938   8.145
23260SOL    HW271620   5.275  13.967   8.291
23261SOL     OW71621   6.034  12.573   2.826
23261SOL    HW171622   6.117  12.618   2.838
23261SOL    HW271623   5.971  12.643   2.808
23262SOL     OW71624   2.443  12.830  10.927
23262SOL    HW171625   2.467  12.811  11.018
23262SOL    HW271626   2.483  12.914  10.908
23263SOL     OW71627   7.120   0.925   4.833
23263SOL    HW171628   7.079   0.978   4.902
23263SOL    HW271629   7.058   0.929   4.760
23264SOL     OW71630  13.844   7.242   7.559
23264SOL    HW171631  13.834   7.309   7.626
23264SOL    HW271632  13.842   7.291   7.476
23265SOL     OW71633  14.206   6.352  13.760
23265SOL    HW171634  14.252   6.355  13.844
23265SOL    HW271635  14.132   6.412  13.770
23266SOL     OW71636   1.101   5.658   3.095
23266SOL    HW171637   1.181   5.614   3.065
23266SOL    HW271638   1.045   5.663   3.018
23267SOL     OW71639  13.919   4.749  13.267
23267SOL    HW171640  13.836   4.731  13.224
23267SOL    HW271641  13.985   4.705  13.212
23268SOL     OW71642  10.206  14.554  10.461
23268SOL    HW171643  10.134  14.496  10.436
23268SOL    HW271644  10.285  14.507  10.435
23269SOL     OW71645  11.617  12.259   6.399
23269SOL    HW171646  11.544  12.198   6.390
23269SOL    HW271647  11.580  12.344   6.374
23270SOL     OW71648   4.637  14.456  13.642
23270SOL    HW171649   4.687  14.407  13.707
23270SOL    HW271650   4.702  14.508  13.595
23271SOL     OW71651   7.683   3.367   5.640
23271SOL    HW171652   7.634   3.365   5.723
23271SOL    HW271653   7.638   3.433   5.587
23272SOL     OW71654   9.619   1.482   4.302
23272SOL    HW171655   9.652   1.404   4.257
23272SOL    HW271656   9.646   1.554   4.246
23273SOL     OW71657  13.170  12.212   4.032
23273SOL    HW171658  13.247  12.223   4.088
23273SOL    HW271659  13.109  12.279   4.061
23274SOL     OW71660   2.336  10.990   7.205
23274SOL    HW171661   2.255  11.039   7.190
23274SOL    HW271662   2.307  10.904   7.235
23275SOL     OW71663   4.013   3.010   1.573
23275SOL    HW171664   3.980   2.964   1.650
23275SOL    HW271665   3.994   3.103   1.591
23276SOL     OW71666  10.542  10.804   1.088
23276SOL    HW171667  10.523  10.783   0.997
23276SOL    HW271668  10.474  10.760   1.138
23277SOL     OW71669   9.588   9.075  12.962
23277SOL    HW171670   9.534   9.123  13.026
23277SOL    HW271671   9.550   9.099  12.877
23278SOL     OW71672   9.504  13.065  13.354
23278SOL    HW171673   9.593  13.031  13.345
23278SOL    HW271674   9.461  13.043  13.271
23279SOL     OW71675  10.901   0.386   9.091
23279SOL    HW171676  10.884   0.472   9.129
23279SOL    HW271677  10.994   0.372   9.105
23280SOL     OW71678   9.617   9.619  13.848
23280SOL    HW171679   9.542   9.592  13.796
23280SOL    HW271680   9.584   9.693  13.899
23281SOL     OW71681   7.064   0.879   3.693
23281SOL    HW171682   7.000   0.868   3.624
23281SOL    HW271683   7.139   0.920   3.650
23282SOL     OW71684   2.737   7.763   3.721
23282SOL    HW171685   2.745   7.680   3.674
23282SOL    HW271686   2.796   7.754   3.796
23283SOL     OW71687  10.260   6.104   1.301
23283SOL    HW171688  10.350   6.076   1.283
23283SOL    HW271689  10.258   6.196   1.275
23284SOL     OW71690   3.113   9.189   4.835
23284SOL    HW171691   3.155   9.142   4.908
23284SOL    HW271692   3.166   9.165   4.759
23285SOL     OW71693  11.189   6.485   1.959
23285SOL    HW171694  11.119   6.464   1.897
23285SOL    HW271695  11.269   6.451   1.916
23286SOL     OW71696  14.352   3.600   2.601
23286SOL    HW171697  14.263   3.608   2.568
23286SOL    HW271698  14.366   3.506   2.609
23287SOL     OW71699   2.867  13.325   1.004
23287SOL    HW171700   2.928  13.398   1.015
23287SOL    HW271701   2.923  13.248   1.001
23288SOL     OW71702   8.308   7.813  14.158
23288SOL    HW171703   8.257   7.884  14.119
23288SOL    HW271704   8.246   7.767  14.214
23289SOL     OW71705   9.912  14.830   3.811
23289SOL    HW171706   9.882  14.805   3.724
23289SOL    HW271707   9.974  14.760   3.836
23290SOL     OW71708   1.416  14.317   3.271
23290SOL    HW171709   1.400  14.238   3.323
23290SOL    HW271710   1.418  14.287   3.180
23291SOL     OW71711   2.861  11.522  12.096
23291SOL    HW171712   2.777  11.553  12.062
23291SOL    HW271713   2.857  11.540  12.190
23292SOL     OW71714   6.099   0.234  11.839
23292SOL    HW171715   6.080   0.294  11.911
23292SOL    HW271716   6.188   0.203  11.856
23293SOL     OW71717   6.322   9.052  13.643
23293SOL    HW171718   6.328   9.098  13.559
23293SOL    HW271719   6.284   9.116  13.703
23294SOL     OW71720   7.488   7.442   7.299
23294SOL    HW171721   7.502   7.508   7.231
23294SOL    HW271722   7.568   7.389   7.298
23295SOL     OW71723  11.635  13.489   9.655
23295SOL    HW171724  11.653  13.425   9.586
23295SOL    HW271725  11.579  13.442   9.717
23296SOL     OW71726   4.919   2.008  12.534
23296SOL    HW171727   4.875   2.003  12.619
23296SOL    HW271728   5.008   2.038  12.556
23297SOL     OW71729   5.182  10.885   1.791
23297SOL    HW171730   5.117  10.897   1.722
23297SOL    HW271731   5.133  10.899   1.872
23298SOL     OW71732   3.119   1.723   8.620
23298SOL    HW171733   3.175   1.762   8.687
23298SOL    HW271734   3.178   1.704   8.547
23299SOL     OW71735   2.210  11.256   3.924
23299SOL    HW171736   2.184  11.229   4.012
23299SOL    HW271737   2.259  11.181   3.890
23300SOL     OW71738   0.947   4.583   6.280
23300SOL    HW171739   0.967   4.521   6.210
23300SOL    HW271740   0.854   4.602   6.268
23301SOL     OW71741  10.911  12.454  11.248
23301SOL    HW171742  10.913  12.481  11.340
23301SOL    HW271743  10.991  12.404  11.236
23302SOL     OW71744   5.151  12.273  11.231
23302SOL    HW171745   5.137  12.362  11.197
23302SOL    HW271746   5.179  12.286  11.321
23303SOL     OW71747  13.405   3.069   0.732
23303SOL    HW171748  13.446   3.068   0.645
23303SOL    HW271749  13.442   3.147   0.774
23304SOL     OW71750   6.594  14.047  14.670
23304SOL    HW171751   6.647  13.974  14.703
23304SOL    HW271752   6.657  14.114  14.647
23305SOL     OW71753   3.725  11.765   3.132
23305SOL    HW171754   3.720  11.692   3.070
23305SOL    HW271755   3.713  11.724   3.218
23306SOL     OW71756   4.880   2.950  14.484
23306SOL    HW171757   4.928   2.925  14.563
23306SOL    HW271758   4.910   2.889  14.417
23307SOL     OW71759   2.961   4.458   6.620
23307SOL    HW171760   2.892   4.518   6.648
23307SOL    HW271761   3.024   4.513   6.574
23308SOL     OW71762   2.193  11.505   0.703
23308SOL    HW171763   2.184  11.569   0.773
23308SOL    HW271764   2.195  11.557   0.623
23309SOL     OW71765   9.032  10.120   7.133
23309SOL    HW171766   9.027  10.045   7.192
23309SOL    HW271767   8.941  10.147   7.121
23310SOL     OW71768   2.347  14.481  13.126
23310SOL    HW171769   2.275  14.442  13.077
23310SOL    HW271770   2.395  14.407  13.162
23311SOL     OW71771  10.764   9.824  13.232
23311SOL    HW171772  10.777   9.818  13.327
23311SOL    HW271773  10.739   9.914  13.216
23312SOL     OW71774   6.983   8.072   1.001
23312SOL    HW171775   6.991   8.166   0.984
23312SOL    HW271776   6.977   8.064   1.096
23313SOL     OW71777   9.662  14.867  13.041
23313SOL    HW171778   9.696  14.819  12.966
23313SOL    HW271779   9.740   0.018  13.091
23314SOL     OW71780   9.925  11.408   8.323
23314SOL    HW171781   9.925  11.314   8.305
23314SOL    HW271782   9.899  11.415   8.415
23315SOL     OW71783   2.806   4.381   5.318
23315SOL    HW171784   2.853   4.310   5.362
23315SOL    HW271785   2.868   4.414   5.253
23316SOL     OW71786  13.809   9.700   2.326
23316SOL    HW171787  13.819   9.634   2.395
23316SOL    HW271788  13.889   9.753   2.332
23317SOL     OW71789  13.670   2.907  14.233
23317SOL    HW171790  13.753   2.950  14.213
23317SOL    HW271791  13.657   2.846  14.161
23318SOL     OW71792  12.127   5.864   4.252
23318SOL    HW171793  12.186   5.930   4.288
23318SOL    HW271794  12.078   5.911   4.184
23319SOL     OW71795  13.815  12.687   7.057
23319SOL    HW171796  13.890  12.722   7.105
23319SOL    HW271797  13.739  12.712   7.110
23320SOL     OW71798   2.753   4.438   9.611
23320SOL    HW171799   2.763   4.346   9.634
23320SOL    HW271800   2.660   4.447   9.589
23321SOL     OW71801  14.446   0.581  13.914
23321SOL    HW171802  14.458   0.526  13.837
23321SOL    HW271803  14.498   0.659  13.896
23322SOL     OW71804   5.903   7.175   7.708
23322SOL    HW171805   5.825   7.140   7.751
23322SOL    HW271806   5.894   7.270   7.715
23323SOL     OW71807  10.092   6.899  13.041
23323SOL    HW171808  10.036   6.958  13.092
23323SOL    HW271809  10.035   6.825  13.019
23324SOL     OW71810   9.357   2.449   8.600
23324SOL    HW171811   9.287   2.503   8.563
23324SOL    HW271812   9.325   2.423   8.686
23325SOL     OW71813   5.755   9.301  13.176
23325SOL    HW171814   5.778   9.375  13.233
23325SOL    HW271815   5.660   9.308  13.166
23326SOL     OW71816  13.047   7.109  12.464
23326SOL    HW171817  13.097   7.050  12.521
23326SOL    HW271818  13.091   7.103  12.380
23327SOL     OW71819   4.133   3.618   7.693
23327SOL    HW171820   4.101   3.596   7.780
23327SOL    HW271821   4.221   3.580   7.689
23328SOL     OW71822   9.163  10.322   3.748
23328SOL    HW171823   9.195  10.407   3.716
23328SOL    HW271824   9.143  10.273   3.669
23329SOL     OW71825   4.270  13.028   4.370
23329SOL    HW171826   4.324  13.086   4.423
23329SOL    HW271827   4.184  13.030   4.412
23330SOL     OW71828   3.430  12.999  11.267
23330SOL    HW171829   3.497  12.939  11.235
23330SOL    HW271830   3.457  13.085  11.234
23331SOL     OW71831  14.039   0.633   8.965
23331SOL    HW171832  14.050   0.724   8.938
23331SOL    HW271833  14.120   0.590   8.937
23332SOL     OW71834   8.877  10.591  10.294
23332SOL    HW171835   8.822  10.563  10.221
23332SOL    HW271836   8.966  10.584  10.260
23333SOL     OW71837  14.481   1.750  14.688
23333SOL    HW171838  14.490   1.845  14.693
23333SOL    HW271839  14.521   1.718  14.769
23334SOL     OW71840  14.509  13.008   7.786
23334SOL    HW171841  14.602  12.986   7.799
23334SOL    HW271842  14.480  12.948   7.717
23335SOL     OW71843   1.437   6.141  10.841
23335SOL    HW171844   1.520   6.173  10.875
23335SOL    HW271845   1.462   6.068  10.784
23336SOL     OW71846   4.449   9.338   2.070
23336SOL    HW171847   4.364   9.365   2.036
23336SOL    HW271848   4.434   9.321   2.163
23337SOL     OW71849   0.997   8.011   5.409
23337SOL    HW171850   0.971   8.092   5.453
23337SOL    HW271851   1.084   7.991   5.446
23338SOL     OW71852   4.525   0.777  11.719
23338SOL    HW171853   4.584   0.705  11.742
23338SOL    HW271854   4.438   0.744  11.742
23339SOL     OW71855   5.549  14.086   8.808
23339SOL    HW171856   5.576  14.122   8.724
23339SOL    HW271857   5.596  14.139   8.873
23340SOL     OW71858   3.424   7.629  12.923
23340SOL    HW171859   3.488   7.624  12.853
23340SOL    HW271860   3.444   7.554  12.980
23341SOL     OW71861  13.378   4.229   1.671
23341SOL    HW171862  13.442   4.290   1.633
23341SOL    HW271863  13.355   4.170   1.600
23342SOL     OW71864   0.758   8.235  13.804
23342SOL    HW171865   0.851   8.212  13.805
23342SOL    HW271866   0.713   8.156  13.835
23343SOL     OW71867  12.907  13.595  11.066
23343SOL    HW171868  12.938  13.635  11.147
23343SOL    HW271869  12.851  13.660  11.026
23344SOL     OW71870   7.049  10.554   0.812
23344SOL    HW171871   6.987  10.571   0.883
23344SOL    HW271872   7.134  10.551   0.854
23345SOL     OW71873   5.391   9.448  11.536
23345SOL    HW171874   5.467   9.403  11.499
23345SOL    HW271875   5.321   9.383  11.532
23346SOL     OW71876  14.710   2.206   5.515
23346SOL    HW171877  14.692   2.175   5.426
23346SOL    HW271878  14.645   2.274   5.530
23347SOL     OW71879  11.792   1.928   6.479
23347SOL    HW171880  11.738   1.996   6.518
23347SOL    HW271881  11.730   1.867   6.440
23348SOL     OW71882  10.570   8.664   7.302
23348SOL    HW171883  10.507   8.608   7.256
23348SOL    HW271884  10.637   8.603   7.333
23349SOL     OW71885   1.569  11.689   1.842
23349SOL    HW171886   1.573  11.633   1.919
23349SOL    HW271887   1.582  11.778   1.875
23350SOL     OW71888  10.731   3.106   0.540
23350SOL    HW171889  10.790   3.181   0.552
23350SOL    HW271890  10.657   3.124   0.599
23351SOL     OW71891   5.855  11.228  11.872
23351SOL    HW171892   5.865  11.298  11.808
23351SOL    HW271893   5.887  11.265  11.954
23352SOL     OW71894  12.890   8.209   5.916
23352SOL    HW171895  12.913   8.279   5.977
23352SOL    HW271896  12.864   8.253   5.836
23353SOL     OW71897   2.183   2.588   9.696
23353SOL    HW171898   2.224   2.637   9.768
23353SOL    HW271899   2.210   2.497   9.711
23354SOL     OW71900   4.134  13.520  11.595
23354SOL    HW171901   4.145  13.446  11.654
23354SOL    HW271902   4.194  13.587  11.628
23355SOL     OW71903   5.615   8.670  14.365
23355SOL    HW171904   5.671   8.605  14.408
23355SOL    HW271905   5.675   8.720  14.309
23356SOL     OW71906   1.928   1.246   5.892
23356SOL    HW171907   1.849   1.284   5.928
23356SOL    HW271908   1.904   1.156   5.869
23357SOL     OW71909   9.337  10.971   6.596
23357SOL    HW171910   9.365  10.940   6.683
23357SOL    HW271911   9.267  10.911   6.571
23358SOL     OW71912  12.134   0.452  11.662
23358SOL    HW171913  12.043   0.450  11.634
23358SOL    HW271914  12.175   0.521  11.609
23359SOL     OW71915  12.715   4.917   9.276
23359SOL    HW171916  12.691   4.829   9.247
23359SOL    HW271917  12.711   4.913   9.371
23360SOL     OW71918  13.013  14.140  12.531
23360SOL    HW171919  12.968  14.126  12.448
23360SOL    HW271920  12.943  14.143  12.597
23361SOL     OW71921   6.111  13.256   8.254
23361SOL    HW171922   6.024  13.242   8.292
23361SOL    HW271923   6.125  13.351   8.260
23362SOL     OW71924   8.530   6.462   3.314
23362SOL    HW171925   8.543   6.553   3.342
23362SOL    HW271926   8.555   6.461   3.222
23363SOL     OW71927   1.279  14.688  14.070
23363SOL    HW171928   1.270  14.670  13.976
23363SOL    HW271929   1.320  14.774  14.074
23364SOL     OW71930   6.891  13.786  11.555
23364SOL    HW171931   6.885  13.839  11.634
23364SOL    HW271932   6.962  13.725  11.573
23365SOL     OW71933   5.176   5.929  14.070
23365SOL    HW171934   5.250   5.981  14.040
23365SOL    HW271935   5.111   5.935  13.999
23366SOL     OW71936   5.072   8.834  12.026
23366SOL    HW171937   5.074   8.832  12.121
23366SOL    HW271938   5.010   8.766  12.001
23367SOL     OW71939   3.199   5.771   1.033
23367SOL    HW171940   3.136   5.741   0.968
23367SOL    HW271941   3.152   5.840   1.081
23368SOL     OW71942   9.140   3.107   3.107
23368SOL    HW171943   9.228   3.133   3.132
23368SOL    HW271944   9.133   3.016   3.135
23369SOL     OW71945   0.632   7.790   6.690
23369SOL    HW171946   0.626   7.886   6.688
23369SOL    HW271947   0.585   7.762   6.611
23370SOL     OW71948  10.518   3.444   0.709
23370SOL    HW171949  10.450   3.469   0.647
23370SOL    HW271950  10.550   3.527   0.745
23371SOL     OW71951   8.101   3.582   7.095
23371SOL    HW171952   8.184   3.587   7.047
23371SOL    HW271953   8.123   3.532   7.174
23372SOL     OW71954   6.531  10.004   0.723
23372SOL    HW171955   6.526  10.054   0.642
23372SOL    HW271956   6.478   9.926   0.707
23373SOL     OW71957   3.309   1.108  11.161
23373SOL    HW171958   3.370   1.154  11.218
23373SOL    HW271959   3.321   1.148  11.075
23374SOL     OW71960   2.302   5.898   6.038
23374SOL    HW171961   2.224   5.893   6.094
23374SOL    HW271962   2.296   5.983   5.996
23375SOL     OW71963  14.663   7.421  12.267
23375SOL    HW171964  14.577   7.456  12.289
23375SOL    HW271965  14.655   7.393  12.176
23376SOL     OW71966   7.313  12.990  11.590
23376SOL    HW171967   7.379  12.950  11.533
23376SOL    HW271968   7.233  12.940  11.574
23377SOL     OW71969   1.346   8.749  10.146
23377SOL    HW171970   1.396   8.708  10.216
23377SOL    HW271971   1.304   8.824  10.187
23378SOL     OW71972  12.861  10.071   7.654
23378SOL    HW171973  12.937  10.082   7.710
23378SOL    HW271974  12.890  10.102   7.568
23379SOL     OW71975  11.477  13.735   6.377
23379SOL    HW171976  11.444  13.813   6.422
23379SOL    HW271977  11.516  13.769   6.296
23380SOL     OW71978   5.478   6.246   4.952
23380SOL    HW171979   5.452   6.252   4.860
23380SOL    HW271980   5.570   6.218   4.949
23381SOL     OW71981   2.872  13.442   2.808
23381SOL    HW171982   2.837  13.527   2.836
23381SOL    HW271983   2.877  13.391   2.889
23382SOL     OW71984  14.389  10.256  10.421
23382SOL    HW171985  14.383  10.218  10.509
23382SOL    HW271986  14.322  10.325  10.420
23383SOL     OW71987   2.585  13.168   5.975
23383SOL    HW171988   2.528  13.239   5.945
23383SOL    HW271989   2.642  13.151   5.900
23384SOL     OW71990  12.325   0.702   9.848
23384SOL    HW171991  12.337   0.665   9.761
23384SOL    HW271992  12.336   0.627   9.907
23385SOL     OW71993  11.597   6.012   6.335
23385SOL    HW171994  11.560   6.050   6.414
23385SOL    HW271995  11.590   5.917   6.347
23386SOL     OW71996   4.957   3.595   2.319
23386SOL    HW171997   4.871   3.553   2.323
23386SOL    HW271998   5.019   3.523   2.326
23387SOL     OW71999  14.846   9.746  10.331
23387SOL    HW172000  14.774   9.802  10.358
23387SOL    HW272001   0.037   9.755  10.400
23388SOL     OW72002   3.371   2.739  11.021
23388SOL    HW172003   3.360   2.747  11.116
23388SOL    HW272004   3.309   2.671  10.996
23389SOL     OW72005   4.257   0.230   7.109
23389SOL    HW172006   4.225   0.280   7.184
23389SOL    HW272007   4.306   0.294   7.057
23390SOL     OW72008   7.159  14.007  10.771
23390SOL    HW172009   7.186  14.009  10.863
23390SOL    HW272010   7.215  14.072  10.729
23391SOL     OW72011   9.498   1.902   5.725
23391SOL    HW172012   9.479   1.834   5.660
23391SOL    HW272013   9.419   1.956   5.727
23392SOL     OW72014   1.776  10.683   4.017
23392SOL    HW172015   1.705  10.701   3.956
23392SOL    HW272016   1.807  10.596   3.992
23393SOL     OW72017   5.530   6.905   1.470
23393SOL    HW172018   5.584   6.831   1.497
23393SOL    HW272019   5.501   6.882   1.382
23394SOL     OW72020  13.590  13.513  10.862
23394SOL    HW172021  13.547  13.599  10.855
23394SOL    HW272022  13.678  13.533  10.892
23395SOL     OW72023   8.727   4.243   9.668
23395SOL    HW172024   8.662   4.274   9.732
23395SOL    HW272025   8.751   4.320   9.618
23396SOL     OW72026   2.084   2.778   6.919
23396SOL    HW172027   2.030   2.747   6.992
23396SOL    HW272028   2.173   2.754   6.943
23397SOL     OW72029   2.034   7.174  12.049
23397SOL    HW172030   2.125   7.143  12.053
23397SOL    HW272031   1.996   7.126  11.976
23398SOL     OW72032   5.110  14.780   1.735
23398SOL    HW172033   5.137  14.753   1.648
23398SOL    HW272034   5.108  14.699   1.786
23399SOL     OW72035   2.488  10.622   4.642
23399SOL    HW172036   2.526  10.621   4.730
23399SOL    HW272037   2.409  10.675   4.651
23400SOL     OW72038   0.545   9.218  12.181
23400SOL    HW172039   0.629   9.200  12.138
23400SOL    HW272040   0.479   9.189  12.118
23401SOL     OW72041  14.857   1.514   6.477
23401SOL    HW172042   0.048   1.565   6.525
23401SOL    HW272043   0.009   1.522   6.385
23402SOL     OW72044   0.278   4.878   2.664
23402SOL    HW172045   0.347   4.941   2.642
23402SOL    HW272046   0.277   4.817   2.591
23403SOL     OW72047   9.718  10.120   9.931
23403SOL    HW172048   9.800  10.080   9.902
23403SOL    HW272049   9.649  10.064   9.895
23404SOL     OW72050  10.109   9.610   1.808
23404SOL    HW172051  10.139   9.523   1.834
23404SOL    HW272052  10.014   9.606   1.817
23405SOL     OW72053  12.650   8.035  10.563
23405SOL    HW172054  12.715   7.972  10.594
23405SOL    HW272055  12.608   7.992  10.488
23406SOL     OW72056  12.523  11.772  13.500
23406SOL    HW172057  12.482  11.775  13.413
23406SOL    HW272058  12.562  11.685  13.504
23407SOL     OW72059   3.516   5.203  13.844
23407SOL    HW172060   3.605   5.236  13.843
23407SOL    HW272061   3.511   5.149  13.923
23408SOL     OW72062  11.597   7.869  12.646
23408SOL    HW172063  11.591   7.910  12.559
23408SOL    HW272064  11.594   7.775  12.628
23409SOL     OW72065  11.016  11.006   6.628
23409SOL    HW172066  11.032  11.080   6.569
23409SOL    HW272067  11.031  11.042   6.715
23410SOL     OW72068   1.299   5.993  13.093
23410SOL    HW172069   1.307   6.087  13.105
23410SOL    HW272070   1.249   5.983  13.012
23411SOL     OW72071   4.423   9.509   1.708
23411SOL    HW172072   4.515   9.530   1.725
23411SOL    HW272073   4.426   9.444   1.639
23412SOL     OW72074   1.865   5.898   3.733
23412SOL    HW172075   1.842   5.943   3.652
23412SOL    HW272076   1.830   5.954   3.802
23413SOL     OW72077  14.151   9.549   0.402
23413SOL    HW172078  14.115   9.475   0.353
23413SOL    HW272079  14.076   9.583   0.451
23414SOL     OW72080   1.599   5.915   5.981
23414SOL    HW172081   1.675   5.891   5.929
23414SOL    HW272082   1.552   5.832   5.995
23415SOL     OW72083   0.110   2.166   6.940
23415SOL    HW172084   0.033   2.120   6.974
23415SOL    HW272085   0.183   2.132   6.993
23416SOL     OW72086  14.509  14.170   4.464
23416SOL    HW172087  14.566  14.231   4.511
23416SOL    HW272088  14.562  14.091   4.452
23417SOL     OW72089   5.687   9.552  11.320
23417SOL    HW172090   5.641   9.482  11.365
23417SOL    HW272091   5.676   9.531  11.227
23418SOL     OW72092  13.553   5.022   3.343
23418SOL    HW172093  13.547   5.019   3.247
23418SOL    HW272094  13.596   5.105   3.361
23419SOL     OW72095   9.735   8.535   4.824
23419SOL    HW172096   9.641   8.533   4.808
23419SOL    HW272097   9.749   8.615   4.876
23420SOL     OW72098   7.262   5.875  13.554
23420SOL    HW172099   7.240   5.806  13.491
23420SOL    HW272100   7.228   5.955  13.514
23421SOL     OW72101   5.802   0.482   0.164
23421SOL    HW172102   5.893   0.454   0.176
23421SOL    HW272103   5.750   0.404   0.183
23422SOL     OW72104  14.170   0.377  10.026
23422SOL    HW172105  14.157   0.462   9.985
23422SOL    HW272106  14.095   0.366  10.084
23423SOL     OW72107  10.909  13.525   5.828
23423SOL    HW172108  10.885  13.435   5.851
23423SOL    HW272109  10.829  13.561   5.789
23424SOL     OW72110   9.536   8.162   5.456
23424SOL    HW172111   9.494   8.244   5.480
23424SOL    HW272112   9.597   8.186   5.386
23425SOL     OW72113   1.695   5.687   3.150
23425SOL    HW172114   1.743   5.690   3.232
23425SOL    HW272115   1.759   5.709   3.083
23426SOL     OW72116   9.975   6.140   4.289
23426SOL    HW172117   9.981   6.127   4.384
23426SOL    HW272118  10.065   6.152   4.260
23427SOL     OW72119   3.467   5.864   1.153
23427SOL    HW172120   3.395   5.809   1.124
23427SOL    HW272121   3.501   5.904   1.073
23428SOL     OW72122   3.205   9.316   0.157
23428SOL    HW172123   3.187   9.267   0.076
23428SOL    HW272124   3.123   9.360   0.178
23429SOL     OW72125   3.381   0.657  13.389
23429SOL    HW172126   3.398   0.682  13.299
23429SOL    HW272127   3.343   0.735  13.430
23430SOL     OW72128   2.584   1.604  10.206
23430SOL    HW172129   2.608   1.547  10.278
23430SOL    HW272130   2.562   1.688  10.247
23431SOL     OW72131   3.303  11.900  12.028
23431SOL    HW172132   3.321  11.822  11.977
23431SOL    HW272133   3.208  11.908  12.027
23432SOL     OW72134   1.694   5.284   3.695
23432SOL    HW172135   1.659   5.217   3.635
23432SOL    HW272136   1.654   5.366   3.665
23433SOL     OW72137   7.246   3.824   8.013
23433SOL    HW172138   7.193   3.840   8.091
23433SOL    HW272139   7.250   3.909   7.969
23434SOL     OW72140   4.922   1.105   4.536
23434SOL    HW172141   4.838   1.138   4.568
23434SOL    HW272142   4.965   1.181   4.498
23435SOL     OW72143  10.887   9.958  14.666
23435SOL    HW172144  10.844   9.890  14.718
23435SOL    HW272145  10.941   9.910  14.603
23436SOL     OW72146   3.894  10.057   6.063
23436SOL    HW172147   3.842  10.121   6.014
23436SOL    HW272148   3.830   9.996   6.099
23437SOL     OW72149  11.356  10.767   9.190
23437SOL    HW172150  11.394  10.848   9.158
23437SOL    HW272151  11.399  10.698   9.139
23438SOL     OW72152  13.617   1.085   2.352
23438SOL    HW172153  13.658   1.073   2.266
23438SOL    HW272154  13.594   0.996   2.380
23439SOL     OW72155   2.835  14.745   3.235
23439SOL    HW172156   2.929  14.729   3.228
23439SOL    HW272157   2.828  14.840   3.247
23440SOL     OW72158   0.530   6.460   1.546
23440SOL    HW172159   0.556   6.524   1.612
23440SOL    HW272160   0.439   6.438   1.568
23441SOL     OW72161  13.214   8.899   6.664
23441SOL    HW172162  13.207   8.819   6.716
23441SOL    HW272163  13.296   8.938   6.692
23442SOL     OW72164  13.549  14.099  12.935
23442SOL    HW172165  13.502  14.181  12.924
23442SOL    HW272166  13.506  14.038  12.875
23443SOL     OW72167  13.557   1.294   9.421
23443SOL    HW172168  13.523   1.335   9.342
23443SOL    HW272169  13.481   1.252   9.461
23444SOL     OW72170   1.192   0.373  14.053
23444SOL    HW172171   1.122   0.435  14.075
23444SOL    HW272172   1.181   0.302  14.115
23445SOL     OW72173  11.512   2.445   0.969
23445SOL    HW172174  11.549   2.498   1.040
23445SOL    HW272175  11.426   2.484   0.953
23446SOL     OW72176   3.186  10.259  10.294
23446SOL    HW172177   3.277  10.281  10.277
23446SOL    HW272178   3.167  10.298  10.379
23447SOL     OW72179   1.244   7.200   0.816
23447SOL    HW172180   1.226   7.194   0.722
23447SOL    HW272181   1.335   7.173   0.825
23448SOL     OW72182   5.949   0.151   0.139
23448SOL    HW172183   5.899   0.109   0.209
23448SOL    HW272184   5.949   0.086   0.068
23449SOL     OW72185   3.298   7.727  14.090
23449SOL    HW172186   3.277   7.807  14.138
23449SOL    HW272187   3.229   7.720  14.024
23450SOL     OW72188   5.682  12.675  10.733
23450SOL    HW172189   5.681  12.718  10.647
23450SOL    HW272190   5.666  12.583  10.714
23451SOL     OW72191   5.169   8.347   5.551
23451SOL    HW172192   5.218   8.288   5.608
23451SOL    HW272193   5.077   8.337   5.578
23452SOL     OW72194   0.076   9.733  12.583
23452SOL    HW172195   0.085   9.666  12.515
23452SOL    HW272196   0.158   9.781  12.581
23453SOL     OW72197   4.146   7.369   4.799
23453SOL    HW172198   4.145   7.288   4.850
23453SOL    HW272199   4.238   7.394   4.795
23454SOL     OW72200   5.504   7.592  10.733
23454SOL    HW172201   5.581   7.537  10.748
23454SOL    HW272202   5.518   7.669  10.788
23455SOL     OW72203   1.385  13.659  10.363
23455SOL    HW172204   1.294  13.683  10.344
23455SOL    HW272205   1.419  13.733  10.413
23456SOL     OW72206   1.194   1.415   2.084
23456SOL    HW172207   1.111   1.375   2.110
23456SOL    HW272208   1.182   1.508   2.101
23457SOL     OW72209   2.026   2.625  10.604
23457SOL    HW172210   2.049   2.668  10.686
23457SOL    HW272211   2.048   2.533  10.618
23458SOL     OW72212  12.475  12.636   2.367
23458SOL    HW172213  12.508  12.705   2.310
23458SOL    HW272214  12.443  12.569   2.307
23459SOL     OW72215   8.535   7.197   9.355
23459SOL    HW172216   8.569   7.244   9.432
23459SOL    HW272217   8.563   7.250   9.281
23460SOL     OW72218   2.276   3.867  13.761
23460SOL    HW172219   2.183   3.842  13.765
23460SOL    HW272220   2.309   3.850  13.850
23461SOL     OW72221  10.849  10.464   7.487
23461SOL    HW172222  10.895  10.382   7.505
23461SOL    HW272223  10.893  10.500   7.410
23462SOL     OW72224   7.639   0.596   4.674
23462SOL    HW172225   7.560   0.547   4.696
23462SOL    HW272226   7.654   0.577   4.582
23463SOL     OW72227  13.493   6.512  12.568
23463SOL    HW172228  13.429   6.468  12.625
23463SOL    HW272229  13.455   6.506  12.480
23464SOL     OW72230   5.838   3.672   4.926
23464SOL    HW172231   5.868   3.756   4.961
23464SOL    HW272232   5.880   3.667   4.840
23465SOL     OW72233  13.449   2.359   6.563
23465SOL    HW172234  13.455   2.327   6.653
23465SOL    HW272235  13.439   2.280   6.510
23466SOL     OW72236   4.908   8.548   8.357
23466SOL    HW172237   4.929   8.455   8.346
23466SOL    HW272238   4.813   8.552   8.354
23467SOL     OW72239   5.113  14.816   9.559
23467SOL    HW172240   5.071  14.757   9.622
23467SOL    HW272241   5.096   0.030   9.592
23468SOL     OW72242   5.339   6.149   0.694
23468SOL    HW172243   5.256   6.107   0.717
23468SOL    HW272244   5.326   6.241   0.717
23469SOL     OW72245   7.258  11.395   9.072
23469SOL    HW172246   7.289  11.306   9.058
23469SOL    HW272247   7.290  11.419   9.159
23470SOL     OW72248   1.368   7.807  12.380
23470SOL    HW172249   1.309   7.743  12.341
23470SOL    HW272250   1.415   7.846  12.306
23471SOL     OW72251   6.521  13.636   3.665
23471SOL    HW172252   6.527  13.555   3.614
23471SOL    HW272253   6.585  13.695   3.625
23472SOL     OW72254   1.843   1.671   7.767
23472SOL    HW172255   1.880   1.691   7.853
23472SOL    HW272256   1.755   1.709   7.769
23473SOL     OW72257   5.024   8.014   5.396
23473SOL    HW172258   4.945   8.068   5.398
23473SOL    HW272259   5.084   8.061   5.337
23474SOL     OW72260   4.004   0.523   1.461
23474SOL    HW172261   3.945   0.591   1.429
23474SOL    HW272262   3.977   0.444   1.413
23475SOL     OW72263   5.528   8.792  12.223
23475SOL    HW172264   5.456   8.733  12.245
23475SOL    HW272265   5.579   8.799  12.303
23476SOL     OW72266  13.993   3.118   0.389
23476SOL    HW172267  13.976   3.144   0.299
23476SOL    HW272268  13.970   3.025   0.393
23477SOL     OW72269   9.268  10.647  13.885
23477SOL    HW172270   9.254  10.560  13.848
23477SOL    HW272271   9.275  10.632  13.980
23478SOL     OW72272  14.135   4.194  12.489
23478SOL    HW172273  14.137   4.214  12.583
23478SOL    HW272274  14.227   4.185  12.465
23479SOL     OW72275   8.837  13.825  10.959
23479SOL    HW172276   8.911  13.765  10.951
23479SOL    HW272277   8.809  13.817  11.050
23480SOL     OW72278   7.982  12.671   9.799
23480SOL    HW172279   7.920  12.599   9.788
23480SOL    HW272280   8.049  12.637   9.857
23481SOL     OW72281  12.443   1.184  10.674
23481SOL    HW172282  12.506   1.175  10.603
23481SOL    HW272283  12.379   1.247  10.642
23482SOL     OW72284   9.141   8.013   3.901
23482SOL    HW172285   9.137   8.108   3.890
23482SOL    HW272286   9.084   7.995   3.976
23483SOL     OW72287   9.034  10.190  14.619
23483SOL    HW172288   9.126  10.165  14.619
23483SOL    HW272289   8.986  10.107  14.615
23484SOL     OW72290   0.070   2.591   1.574
23484SOL    HW172291   0.135   2.653   1.606
23484SOL    HW272292   0.108   2.505   1.590
23485SOL     OW72293   3.199   4.610   9.607
23485SOL    HW172294   3.277   4.665   9.595
23485SOL    HW272295   3.128   4.673   9.619
23486SOL     OW72296   0.788  11.806   9.689
23486SOL    HW172297   0.850  11.853   9.634
23486SOL    HW272298   0.702  11.839   9.662
23487SOL     OW72299   9.869   5.398   3.459
23487SOL    HW172300   9.783   5.356   3.457
23487SOL    HW272301   9.855   5.480   3.506
23488SOL     OW72302   0.480   3.391  14.854
23488SOL    HW172303   0.502   3.358  14.767
23488SOL    HW272304   0.460   3.483  14.841
23489SOL     OW72305   6.705  14.516  10.827
23489SOL    HW172306   6.714  14.538  10.734
23489SOL    HW272307   6.709  14.600  10.872
23490SOL     OW72308   2.929  10.818  13.952
23490SOL    HW172309   2.882  10.839  13.871
23490SOL    HW272310   2.934  10.722  13.952
23491SOL     OW72311   3.724   4.854   5.174
23491SOL    HW172312   3.686   4.766   5.165
23491SOL    HW272313   3.723   4.889   5.085
23492SOL     OW72314   3.348  13.655  11.506
23492SOL    HW172315   3.293  13.580  11.485
23492SOL    HW272316   3.286  13.722  11.536
23493SOL     OW72317   3.055  12.063   1.897
23493SOL    HW172318   3.019  11.975   1.890
23493SOL    HW272319   3.067  12.076   1.991
23494SOL     OW72320  13.947   1.469   0.432
23494SOL    HW172321  14.026   1.435   0.389
23494SOL    HW272322  13.980   1.535   0.494
23495SOL     OW72323  13.980   1.049  12.687
23495SOL    HW172324  14.073   1.032  12.701
23495SOL    HW272325  13.960   1.007  12.603
23496SOL     OW72326  12.818  12.454   1.829
23496SOL    HW172327  12.847  12.372   1.869
23496SOL    HW272328  12.777  12.428   1.747
23497SOL     OW72329   2.770   6.219   1.502
23497SOL    HW172330   2.735   6.184   1.584
23497SOL    HW272331   2.705   6.194   1.436
23498SOL     OW72332  13.085   9.897  10.182
23498SOL    HW172333  13.110   9.831  10.247
23498SOL    HW272334  13.034   9.849  10.117
23499SOL     OW72335  10.312   0.826  11.561
23499SOL    HW172336  10.391   0.823  11.615
23499SOL    HW272337  10.240   0.838  11.624
23500SOL     OW72338  10.523   9.977   7.780
23500SOL    HW172339  10.433   9.946   7.794
23500SOL    HW272340  10.546  10.020   7.862
23501SOL     OW72341   0.012   1.632  12.378
23501SOL    HW172342   0.038   1.690  12.307
23501SOL    HW272343   0.020   1.685  12.457
23502SOL     OW72344  13.437   3.402  11.512
23502SOL    HW172345  13.381   3.476  11.535
23502SOL    HW272346  13.376   3.328  11.502
23503SOL     OW72347  10.848   4.718  12.432
23503SOL    HW172348  10.922   4.671  12.393
23503SOL    HW272349  10.823   4.783  12.366
23504SOL     OW72350   5.395  13.609  12.850
23504SOL    HW172351   5.371  13.585  12.761
23504SOL    HW272352   5.479  13.652  12.841
23505SOL     OW72353  10.390   3.033   6.214
23505SOL    HW172354  10.361   3.081   6.137
23505SOL    HW272355  10.482   3.056   6.224
23506SOL     OW72356  11.098   4.028  12.949
23506SOL    HW172357  11.007   4.000  12.948
23506SOL    HW272358  11.095   4.121  12.927
23507SOL     OW72359   7.472   9.625   5.883
23507SOL    HW172360   7.381   9.632   5.910
23507SOL    HW272361   7.486   9.531   5.867
23508SOL     OW72362   3.785  10.265   1.850
23508SOL    HW172363   3.834  10.209   1.790
23508SOL    HW272364   3.783  10.351   1.808
23509SOL     OW72365   3.566  11.996   5.835
23509SOL    HW172366   3.581  12.015   5.928
23509SOL    HW272367   3.606  12.070   5.789
23510SOL     OW72368   5.403  12.615   5.633
23510SOL    HW172369   5.324  12.569   5.605
23510SOL    HW272370   5.457  12.548   5.674
23511SOL     OW72371   6.091   7.370  12.723
23511SOL    HW172372   6.114   7.330  12.639
23511SOL    HW272373   6.067   7.296  12.779
23512SOL     OW72374   2.328   2.174  11.255
23512SOL    HW172375   2.396   2.108  11.269
23512SOL    HW272376   2.246   2.125  11.252
23513SOL     OW72377   3.940   7.727   1.994
23513SOL    HW172378   3.997   7.777   1.935
23513SOL    HW272379   3.915   7.649   1.944
23514SOL     OW72380   9.787  10.076   8.384
23514SOL    HW172381   9.771  10.112   8.296
23514SOL    HW272382   9.779  10.152   8.442
23515SOL     OW72383   4.276   1.007   2.243
23515SOL    HW172384   4.327   1.088   2.242
23515SOL    HW272385   4.188   1.034   2.217
23516SOL     OW72386  13.188   1.380   0.747
23516SOL    HW172387  13.200   1.450   0.811
23516SOL    HW272388  13.113   1.409   0.694
23517SOL     OW72389   1.958  11.861   6.102
23517SOL    HW172390   2.027  11.817   6.151
23517SOL    HW272391   1.952  11.812   6.020
23518SOL     OW72392  10.437   6.542  12.874
23518SOL    HW172393  10.378   6.510  12.806
23518SOL    HW272394  10.381   6.587  12.937
23519SOL     OW72395   6.940   7.267   8.481
23519SOL    HW172396   6.852   7.302   8.467
23519SOL    HW272397   6.947   7.194   8.420
23520SOL     OW72398  11.998   9.652   0.725
23520SOL    HW172399  11.924   9.620   0.674
23520SOL    HW272400  12.074   9.640   0.669
23521SOL     OW72401  13.747  12.393   5.878
23521SOL    HW172402  13.654  12.371   5.888
23521SOL    HW272403  13.791  12.340   5.944
23522SOL     OW72404   0.423   3.236   5.469
23522SOL    HW172405   0.515   3.257   5.453
23522SOL    HW272406   0.390   3.207   5.384
23523SOL     OW72407   4.574  14.470   2.325
23523SOL    HW172408   4.505  14.516   2.372
23523SOL    HW272409   4.604  14.402   2.386
23524SOL     OW72410   0.234  13.879  12.826
23524SOL    HW172411   0.285  13.941  12.773
23524SOL    HW272412   0.148  13.878  12.785
23525SOL     OW72413   4.657   2.311   9.267
23525SOL    HW172414   4.716   2.380   9.296
23525SOL    HW272415   4.685   2.293   9.177
23526SOL     OW72416   4.137  14.864   0.591
23526SOL    HW172417   4.176  14.855   0.678
23526SOL    HW272418   4.206  14.838   0.530
23527SOL     OW72419   9.655  11.686   6.451
23527SOL    HW172420   9.676  11.690   6.544
23527SOL    HW272421   9.590  11.756   6.438
23528SOL     OW72422   3.885   8.035  14.763
23528SOL    HW172423   3.886   7.950  14.719
23528SOL    HW272424   3.806   8.079  14.730
23529SOL     OW72425   4.771   1.976   0.612
23529SOL    HW172426   4.780   1.950   0.521
23529SOL    HW272427   4.690   2.027   0.615
23530SOL     OW72428   3.241   2.697  13.033
23530SOL    HW172429   3.214   2.607  13.050
23530SOL    HW272430   3.229   2.709  12.939
23531SOL     OW72431  14.437  11.132   9.828
23531SOL    HW172432  14.501  11.110   9.760
23531SOL    HW272433  14.394  11.049   9.848
23532SOL     OW72434   9.697   1.504   6.127
23532SOL    HW172435   9.666   1.581   6.078
23532SOL    HW272436   9.685   1.431   6.067
23533SOL     OW72437  12.398  12.707   9.684
23533SOL    HW172438  12.367  12.638   9.626
23533SOL    HW272439  12.366  12.788   9.644
23534SOL     OW72440   1.415   6.431   7.576
23534SOL    HW172441   1.461   6.481   7.508
23534SOL    HW272442   1.480   6.369   7.608
23535SOL     OW72443   0.803   3.715   6.832
23535SOL    HW172444   0.877   3.746   6.884
23535SOL    HW272445   0.829   3.730   6.741
23536SOL     OW72446   1.991   7.265  13.946
23536SOL    HW172447   2.029   7.249  13.860
23536SOL    HW272448   1.954   7.181  13.972
23537SOL     OW72449   6.328   0.762   5.627
23537SOL    HW172450   6.375   0.739   5.547
23537SOL    HW272451   6.327   0.858   5.626
23538SOL     OW72452  14.504   5.620   7.109
23538SOL    HW172453  14.410   5.629   7.093
23538SOL    HW272454  14.543   5.625   7.021
23539SOL     OW72455   3.610   3.598  11.873
23539SOL    HW172456   3.535   3.656  11.858
23539SOL    HW272457   3.594   3.561  11.960
23540SOL     OW72458   4.463   6.897   5.278
23540SOL    HW172459   4.437   6.989   5.268
23540SOL    HW272460   4.384   6.853   5.310
23541SOL     OW72461   0.030  13.791   8.872
23541SOL    HW172462  14.848  13.758   8.942
23541SOL    HW272463   0.105  13.830   8.917
23542SOL     OW72464   6.659  11.940   7.843
23542SOL    HW172465   6.596  11.880   7.804
23542SOL    HW272466   6.609  12.020   7.859
23543SOL     OW72467   3.205   3.017  13.672
23543SOL    HW172468   3.236   3.047  13.758
23543SOL    HW272469   3.175   3.096  13.628
23544SOL     OW72470   2.092   5.036  14.461
23544SOL    HW172471   2.141   5.116  14.481
23544SOL    HW272472   2.063   5.047  14.371
23545SOL     OW72473   6.374  11.846  11.920
23545SOL    HW172474   6.399  11.917  11.979
23545SOL    HW272475   6.325  11.889  11.850
23546SOL     OW72476  14.348  13.879   0.523
23546SOL    HW172477  14.406  13.817   0.479
23546SOL    HW272478  14.329  13.838   0.608
23547SOL     OW72479   4.545   6.492   1.383
23547SOL    HW172480   4.480   6.529   1.323
23547SOL    HW272481   4.534   6.397   1.375
23548SOL     OW72482   7.845   8.928  10.965
23548SOL    HW172483   7.773   8.964  10.913
23548SOL    HW272484   7.840   8.833  10.950
23549SOL     OW72485   1.089  12.796   8.097
23549SOL    HW172486   1.060  12.887   8.109
23549SOL    HW272487   1.015  12.753   8.054
23550SOL     OW72488   6.253   8.727   5.233
23550SOL    HW172489   6.274   8.745   5.141
23550SOL    HW272490   6.197   8.649   5.230
23551SOL     OW72491   1.829   3.756  10.568
23551SOL    HW172492   1.847   3.819  10.638
23551SOL    HW272493   1.860   3.672  10.603
23552SOL     OW72494   4.782  14.629   1.686
23552SOL    HW172495   4.730  14.708   1.694
23552SOL    HW272496   4.839  14.628   1.763
23553SOL     OW72497   0.634   8.786   1.138
23553SOL    HW172498   0.603   8.820   1.223
23553SOL    HW272499   0.620   8.692   1.144
23554SOL     OW72500   3.736  11.525   1.050
23554SOL    HW172501   3.774  11.445   1.015
23554SOL    HW272502   3.645  11.503   1.070
23555SOL     OW72503  11.916   8.040   0.442
23555SOL    HW172504  11.848   7.977   0.418
23555SOL    HW272505  11.894   8.119   0.393
23556SOL     OW72506  14.502   4.848   2.881
23556SOL    HW172507  14.528   4.829   2.791
23556SOL    HW272508  14.539   4.775   2.932
23557SOL     OW72509   3.694   5.638   5.779
23557SOL    HW172510   3.750   5.704   5.818
23557SOL    HW272511   3.741   5.610   5.700
23558SOL     OW72512   1.259   4.243   5.468
23558SOL    HW172513   1.198   4.177   5.436
23558SOL    HW272514   1.334   4.192   5.500
23559SOL     OW72515   7.712  11.985   6.699
23559SOL    HW172516   7.672  11.899   6.690
23559SOL    HW272517   7.773  11.991   6.625
23560SOL     OW72518  12.768   1.302   4.885
23560SOL    HW172519  12.817   1.354   4.948
23560SOL    HW272520  12.714   1.366   4.837
23561SOL     OW72521  11.031   0.342   4.427
23561SOL    HW172522  11.007   0.345   4.519
23561SOL    HW272523  11.126   0.353   4.427
23562SOL     OW72524   5.577   2.631   9.435
23562SOL    HW172525   5.589   2.632   9.530
23562SOL    HW272526   5.632   2.702   9.403
23563SOL     OW72527   5.766   5.417  14.181
23563SOL    HW172528   5.695   5.389  14.124
23563SOL    HW272529   5.767   5.352  14.252
23564SOL     OW72530   6.652   0.294   6.725
23564SOL    HW172531   6.733   0.344   6.724
23564SOL    HW272532   6.631   0.281   6.633
23565SOL     OW72533   2.413  13.995   2.718
23565SOL    HW172534   2.453  13.926   2.664
23565SOL    HW272535   2.371  13.947   2.790
23566SOL     OW72536   2.108  10.129  13.217
23566SOL    HW172537   2.112  10.089  13.130
23566SOL    HW272538   2.071  10.216  13.201
23567SOL     OW72539   6.515   4.112   5.128
23567SOL    HW172540   6.492   4.044   5.065
23567SOL    HW272541   6.608   4.129   5.112
23568SOL     OW72542  11.346  12.306   1.223
23568SOL    HW172543  11.253  12.321   1.235
23568SOL    HW272544  11.354  12.277   1.132
23569SOL     OW72545   8.545   4.300   1.396
23569SOL    HW172546   8.611   4.299   1.327
23569SOL    HW272547   8.462   4.292   1.350
23570SOL     OW72548   1.023   5.052   8.837
23570SOL    HW172549   0.952   5.094   8.789
23570SOL    HW272550   1.081   5.124   8.861
23571SOL     OW72551  13.520   4.092   9.504
23571SOL    HW172552  13.600   4.122   9.461
23571SOL    HW272553  13.546   4.072   9.594
23572SOL     OW72554   7.073   2.075   7.017
23572SOL    HW172555   7.096   2.133   7.090
23572SOL    HW272556   7.153   2.072   6.964
23573SOL     OW72557  12.504  12.167   2.810
23573SOL    HW172558  12.471  12.178   2.899
23573SOL    HW272559  12.437  12.116   2.765
23574SOL     OW72560  14.607   9.229  11.376
23574SOL    HW172561  14.516   9.203  11.368
23574SOL    HW272562  14.640   9.178  11.450
23575SOL     OW72563   9.789   0.858   4.522
23575SOL    HW172564   9.802   0.843   4.429
23575SOL    HW272565   9.712   0.807   4.545
23576SOL     OW72566   4.747  10.696   0.634
23576SOL    HW172567   4.760  10.667   0.724
23576SOL    HW272568   4.832  10.732   0.608
23577SOL     OW72569   1.351   4.563  10.689
23577SOL    HW172570   1.345   4.468  10.703
23577SOL    HW272571   1.389   4.596  10.770
23578SOL     OW72572  14.416  13.797   1.159
23578SOL    HW172573  14.386  13.843   1.081
23578SOL    HW272574  14.448  13.866   1.216
23579SOL     OW72575  14.589  12.388   0.061
23579SOL    HW172576  14.639  12.338   0.125
23579SOL    HW272577  14.559  12.323  14.871
23580SOL     OW72578   6.563  10.139   0.486
23580SOL    HW172579   6.489  10.143   0.426
23580SOL    HW272580   6.625  10.204   0.452
23581SOL     OW72581   4.295   8.183   2.493
23581SOL    HW172582   4.298   8.094   2.457
23581SOL    HW272583   4.205   8.212   2.477
23582SOL     OW72584  12.772   3.196  13.419
23582SOL    HW172585  12.690   3.156  13.447
23582SOL    HW272586  12.798   3.251  13.493
23583SOL     OW72587   1.704   0.690   7.970
23583SOL    HW172588   1.747   0.775   7.965
23583SOL    HW272589   1.731   0.654   8.054
23584SOL     OW72590   6.896   2.057   9.337
23584SOL    HW172591   6.929   2.127   9.394
23584SOL    HW272592   6.836   2.008   9.392
23585SOL     OW72593   7.185  10.239   5.426
23585SOL    HW172594   7.212  10.202   5.510
23585SOL    HW272595   7.236  10.191   5.361
23586SOL     OW72596   0.758   0.743   6.668
23586SOL    HW172597   0.824   0.758   6.601
23586SOL    HW272598   0.743   0.828   6.708
23587SOL     OW72599   9.647   0.135   9.283
23587SOL    HW172600   9.616   0.094   9.364
23587SOL    HW272601   9.567   0.158   9.235
23588SOL     OW72602   9.461   9.738  10.018
23588SOL    HW172603   9.423   9.789  10.089
23588SOL    HW272604   9.482   9.803   9.951
23589SOL     OW72605  12.432   5.003   0.506
23589SOL    HW172606  12.510   5.037   0.461
23589SOL    HW272607  12.424   4.913   0.475
23590SOL     OW72608   5.370   4.019   2.277
23590SOL    HW172609   5.294   4.071   2.253
23590SOL    HW272610   5.336   3.954   2.339
23591SOL     OW72611   1.485   9.838   4.903
23591SOL    HW172612   1.434   9.888   4.840
23591SOL    HW272613   1.485   9.749   4.867
23592SOL     OW72614   5.307   3.539   3.884
23592SOL    HW172615   5.269   3.587   3.957
23592SOL    HW272616   5.281   3.590   3.807
23593SOL     OW72617  13.334   4.711   2.556
23593SOL    HW172618  13.332   4.623   2.594
23593SOL    HW272619  13.305   4.769   2.627
23594SOL     OW72620  13.246   3.362  13.446
23594SOL    HW172621  13.187   3.286  13.448
23594SOL    HW272622  13.294   3.353  13.364
23595SOL     OW72623  13.407  12.124   7.831
23595SOL    HW172624  13.448  12.130   7.744
23595SOL    HW272625  13.441  12.042   7.867
23596SOL     OW72626   3.236   0.550   1.491
23596SOL    HW172627   3.145   0.551   1.519
23596SOL    HW272628   3.284   0.515   1.566
23597SOL     OW72629  14.808   0.743   1.063
23597SOL    HW172630  14.725   0.745   1.111
23597SOL    HW272631  14.809   0.825   1.014
23598SOL     OW72632   2.807   7.301   7.085
23598SOL    HW172633   2.827   7.211   7.110
23598SOL    HW272634   2.791   7.346   7.168
23599SOL     OW72635  14.142   2.157   2.404
23599SOL    HW172636  14.180   2.076   2.438
23599SOL    HW272637  14.094   2.130   2.325
23600SOL     OW72638  10.812   4.231   7.090
23600SOL    HW172639  10.797   4.262   7.179
23600SOL    HW272640  10.768   4.295   7.035
23601SOL     OW72641   2.343   4.035   2.582
23601SOL    HW172642   2.363   4.120   2.543
23601SOL    HW272643   2.259   4.010   2.543
23602SOL     OW72644   5.928   0.254   5.275
23602SOL    HW172645   5.881   0.180   5.236
23602SOL    HW272646   5.859   0.309   5.312
23603SOL     OW72647  13.337   6.231  14.247
23603SOL    HW172648  13.365   6.163  14.186
23603SOL    HW272649  13.242   6.226  14.247
23604SOL     OW72650  14.007   3.347   8.683
23604SOL    HW172651  14.020   3.301   8.766
23604SOL    HW272652  14.019   3.280   8.616
23605SOL     OW72653   4.139  13.952  11.697
23605SOL    HW172654   4.083  14.030  11.689
23605SOL    HW272655   4.112  13.913  11.780
23606SOL     OW72656   8.887  13.315   0.763
23606SOL    HW172657   8.839  13.396   0.776
23606SOL    HW272658   8.822  13.246   0.779
23607SOL     OW72659   9.381   3.175   5.328
23607SOL    HW172660   9.473   3.168   5.351
23607SOL    HW272661   9.365   3.269   5.317
23608SOL     OW72662  13.324  12.086  14.532
23608SOL    HW172663  13.274  12.106  14.612
23608SOL    HW272664  13.371  12.005  14.553
23609SOL     OW72665   2.883   4.517  11.040
23609SOL    HW172666   2.812   4.490  11.098
23609SOL    HW272667   2.958   4.465  11.068
23610SOL     OW72668  11.931   8.521  14.565
23610SOL    HW172669  11.998   8.461  14.598
23610SOL    HW272670  11.851   8.470  14.564
23611SOL     OW72671   7.761  10.451  13.961
23611SOL    HW172672   7.671  10.429  13.937
23611SOL    HW272673   7.801  10.366  13.982
23612SOL     OW72674   0.584  13.948   2.668
23612SOL    HW172675   0.655  14.008   2.689
23612SOL    HW272676   0.606  13.867   2.713
23613SOL     OW72677  13.848  12.039   7.015
23613SOL    HW172678  13.832  12.003   7.102
23613SOL    HW272679  13.807  11.977   6.955
23614SOL     OW72680   7.010  11.446   1.824
23614SOL    HW172681   7.086  11.446   1.766
23614SOL    HW272682   7.025  11.372   1.883
23615SOL     OW72683  11.347   9.923   5.049
23615SOL    HW172684  11.360   9.874   5.130
23615SOL    HW272685  11.372   9.862   4.979
23616SOL     OW72686   7.700   5.642  12.242
23616SOL    HW172687   7.737   5.722  12.279
23616SOL    HW272688   7.713   5.651  12.148
23617SOL     OW72689  12.052   7.789   4.198
23617SOL    HW172690  12.109   7.863   4.177
23617SOL    HW272691  12.112   7.717   4.217
23618SOL     OW72692   1.695   0.356   2.548
23618SOL    HW172693   1.681   0.370   2.454
23618SOL    HW272694   1.751   0.428   2.575
23619SOL     OW72695   2.677   9.552   2.253
23619SOL    HW172696   2.632   9.587   2.177
23619SOL    HW272697   2.607   9.515   2.307
23620SOL     OW72698   6.930   2.615   6.329
23620SOL    HW172699   6.945   2.634   6.421
23620SOL    HW272700   7.014   2.635   6.287
23621SOL     OW72701  14.213  13.416   3.089
23621SOL    HW172702  14.207  13.339   3.033
23621SOL    HW272703  14.233  13.381   3.176
23622SOL     OW72704   9.504   2.677   4.816
23622SOL    HW172705   9.519   2.728   4.736
23622SOL    HW272706   9.506   2.742   4.886
23623SOL     OW72707   0.887  13.414   2.691
23623SOL    HW172708   0.925  13.475   2.754
23623SOL    HW272709   0.947  13.340   2.691
23624SOL     OW72710   7.424  12.850   4.273
23624SOL    HW172711   7.404  12.940   4.301
23624SOL    HW272712   7.487  12.861   4.202
23625SOL     OW72713  14.618  13.925   9.218
23625SOL    HW172714  14.654  13.950   9.133
23625SOL    HW272715  14.554  13.857   9.198
23626SOL     OW72716  13.064   8.399  12.558
23626SOL    HW172717  13.096   8.487  12.537
23626SOL    HW272718  12.969   8.405  12.550
23627SOL     OW72719   4.147   4.027   5.163
23627SOL    HW172720   4.220   4.057   5.217
23627SOL    HW272721   4.164   3.933   5.150
23628SOL     OW72722   0.815   9.768  13.614
23628SOL    HW172723   0.749   9.784  13.682
23628SOL    HW272724   0.813   9.673  13.601
23629SOL     OW72725   3.818   3.445   4.480
23629SOL    HW172726   3.906   3.412   4.460
23629SOL    HW272727   3.822   3.538   4.457
23630SOL     OW72728  11.029   4.363   6.539
23630SOL    HW172729  10.942   4.322   6.536
23630SOL    HW272730  11.038   4.390   6.630
23631SOL     OW72731  13.485   5.729   4.934
23631SOL    HW172732  13.525   5.643   4.918
23631SOL    HW272733  13.392   5.710   4.947
23632SOL     OW72734   3.445   7.260   9.652
23632SOL    HW172735   3.469   7.304   9.570
23632SOL    HW272736   3.352   7.240   9.642
23633SOL     OW72737   4.114   3.297   7.273
23633SOL    HW172738   4.025   3.277   7.244
23633SOL    HW272739   4.139   3.373   7.220
23634SOL     OW72740   4.941   4.969   9.619
23634SOL    HW172741   4.912   4.877   9.619
23634SOL    HW272742   4.859   5.019   9.616
23635SOL     OW72743   7.048   8.227  10.380
23635SOL    HW172744   7.059   8.132  10.382
23635SOL    HW272745   7.138   8.261  10.385
23636SOL     OW72746  12.742   1.703   3.490
23636SOL    HW172747  12.773   1.748   3.412
23636SOL    HW272748  12.655   1.671   3.467
23637SOL     OW72749  12.798   0.891   4.238
23637SOL    HW172750  12.827   0.801   4.255
23637SOL    HW272751  12.858   0.946   4.288
23638SOL     OW72752   4.675   9.475  11.666
23638SOL    HW172753   4.607   9.415  11.696
23638SOL    HW272754   4.751   9.418  11.648
23639SOL     OW72755   0.012   2.199  13.337
23639SOL    HW172756  14.855   2.124  13.388
23639SOL    HW272757   0.059   2.161  13.263
23640SOL     OW72758   2.753  13.132  10.835
23640SOL    HW172759   2.775  13.106  10.745
23640SOL    HW272760   2.838  13.147  10.877
23641SOL     OW72761   7.467   6.916   4.495
23641SOL    HW172762   7.422   6.988   4.451
23641SOL    HW272763   7.426   6.912   4.582
23642SOL     OW72764   0.490   8.601   8.867
23642SOL    HW172765   0.546   8.576   8.941
23642SOL    HW272766   0.527   8.555   8.792
23643SOL     OW72767   6.139  10.179   1.127
23643SOL    HW172768   6.224  10.222   1.115
23643SOL    HW272769   6.146  10.138   1.213
23644SOL     OW72770  14.769   9.529  13.871
23644SOL    HW172771  14.746   9.578  13.950
23644SOL    HW272772  14.745   9.438  13.892
23645SOL     OW72773  13.372   6.879   6.731
23645SOL    HW172774  13.339   6.794   6.760
23645SOL    HW272775  13.302   6.916   6.678
23646SOL     OW72776   7.257  12.899   6.617
23646SOL    HW172777   7.348  12.885   6.590
23646SOL    HW272778   7.218  12.947   6.544
23647SOL     OW72779   6.359  10.809   3.162
23647SOL    HW172780   6.421  10.781   3.095
23647SOL    HW272781   6.386  10.764   3.242
23648SOL     OW72782   5.882  12.722   5.822
23648SOL    HW172783   5.932  12.719   5.904
23648SOL    HW272784   5.811  12.659   5.835
23649SOL     OW72785   2.235   7.193   1.368
23649SOL    HW172786   2.175   7.125   1.338
23649SOL    HW272787   2.181   7.250   1.423
23650SOL     OW72788  12.604  12.552   9.424
23650SOL    HW172789  12.696  12.575   9.433
23650SOL    HW272790  12.569  12.616   9.362
23651SOL     OW72791   7.213  10.552   2.817
23651SOL    HW172792   7.236  10.603   2.895
23651SOL    HW272793   7.119  10.570   2.805
23652SOL     OW72794   0.319   2.689  14.752
23652SOL    HW172795   0.239   2.713  14.798
23652SOL    HW272796   0.334   2.597  14.775
23653SOL     OW72797   9.917   6.572   3.504
23653SOL    HW172798   9.859   6.634   3.459
23653SOL    HW272799   9.872   6.553   3.587
23654SOL     OW72800   9.687   7.889   1.069
23654SOL    HW172801   9.723   7.809   1.108
23654SOL    HW272802   9.671   7.947   1.143
23655SOL     OW72803   2.998   7.394   5.342
23655SOL    HW172804   3.078   7.407   5.393
23655SOL    HW272805   2.972   7.304   5.360
23656SOL     OW72806   1.521   4.096   7.116
23656SOL    HW172807   1.425   4.091   7.126
23656SOL    HW272808   1.535   4.176   7.065
23657SOL     OW72809   2.165   3.317   0.692
23657SOL    HW172810   2.241   3.260   0.686
23657SOL    HW272811   2.201   3.405   0.704
23658SOL     OW72812   3.885  14.746   0.178
23658SOL    HW172813   3.814  14.697   0.137
23658SOL    HW272814   3.903  14.818   0.116
23659SOL     OW72815  13.038   8.117  11.780
23659SOL    HW172816  13.066   8.198  11.822
23659SOL    HW272817  13.116   8.061  11.782
23660SOL     OW72818  14.363   5.777   4.575
23660SOL    HW172819  14.335   5.863   4.544
23660SOL    HW272820  14.397   5.792   4.663
23661SOL     OW72821   9.861   8.261   0.915
23661SOL    HW172822   9.767   8.258   0.936
23661SOL    HW272823   9.897   8.182   0.955
23662SOL     OW72824  14.221   4.284   4.252
23662SOL    HW172825  14.148   4.236   4.213
23662SOL    HW272826  14.217   4.264   4.345
23663SOL     OW72827  10.975  10.715   3.385
23663SOL    HW172828  10.948  10.713   3.476
23663SOL    HW272829  11.051  10.773   3.384
23664SOL     OW72830   2.510   6.520   8.454
23664SOL    HW172831   2.532   6.448   8.513
23664SOL    HW272832   2.417   6.507   8.435
23665SOL     OW72833   3.053  13.889  12.041
23665SOL    HW172834   3.094  13.961  11.993
23665SOL    HW272835   3.091  13.892  12.128
23666SOL     OW72836   7.200   0.430   6.618
23666SOL    HW172837   7.248   0.444   6.699
23666SOL    HW272838   7.129   0.369   6.642
23667SOL     OW72839   3.533  11.687   3.871
23667SOL    HW172840   3.476  11.615   3.899
23667SOL    HW272841   3.483  11.730   3.801
23668SOL     OW72842   0.775   0.692   2.046
23668SOL    HW172843   0.714   0.657   1.981
23668SOL    HW272844   0.719   0.727   2.115
23669SOL     OW72845  13.525  11.668   4.431
23669SOL    HW172846  13.502  11.755   4.398
23669SOL    HW272847  13.446  11.638   4.476
23670SOL     OW72848  14.356   1.994  10.519
23670SOL    HW172849  14.294   2.038  10.576
23670SOL    HW272850  14.441   2.031  10.541
23671SOL     OW72851  13.718   0.072   9.706
23671SOL    HW172852  13.643   0.125   9.734
23671SOL    HW272853  13.794   0.117   9.742
23672SOL     OW72854   3.260   4.623  13.668
23672SOL    HW172855   3.231   4.704  13.711
23672SOL    HW272856   3.355   4.627  13.670
23673SOL     OW72857  13.925   7.416  11.851
23673SOL    HW172858  13.830   7.424  11.853
23673SOL    HW272859  13.954   7.484  11.791
23674SOL     OW72860  14.742  13.652   9.074
23674SOL    HW172861  14.722  13.603   9.153
23674SOL    HW272862  14.686  13.614   9.007
23675SOL     OW72863   5.297   1.934  11.950
23675SOL    HW172864   5.372   1.881  11.978
23675SOL    HW272865   5.241   1.873  11.902
23676SOL     OW72866   5.530  11.679   9.106
23676SOL    HW172867   5.462  11.737   9.141
23676SOL    HW272868   5.482  11.609   9.062
23677SOL     OW72869   0.778  14.119   6.936
23677SOL    HW172870   0.722  14.186   6.975
23677SOL    HW272871   0.847  14.169   6.891
23678SOL     OW72872   7.528   8.911   6.870
23678SOL    HW172873   7.443   8.891   6.830
23678SOL    HW272874   7.590   8.856   6.824
23679SOL     OW72875   4.470  11.356   8.103
23679SOL    HW172876   4.398  11.295   8.090
23679SOL    HW272877   4.465  11.381   8.195
23680SOL     OW72878  10.936   8.376   0.080
23680SOL    HW172879  10.858   8.410   0.124
23680SOL    HW272880  11.003   8.374   0.148
23681SOL     OW72881  10.862   5.058   6.833
23681SOL    HW172882  10.851   5.137   6.781
23681SOL    HW272883  10.814   4.990   6.785
23682SOL     OW72884   6.604  14.688   3.570
23682SOL    HW172885   6.630  14.767   3.523
23682SOL    HW272886   6.684  14.636   3.574
23683SOL     OW72887   7.676   7.127   1.101
23683SOL    HW172888   7.659   7.142   1.194
23683SOL    HW272889   7.721   7.043   1.098
23684SOL     OW72890   4.647  12.864  14.019
23684SOL    HW172891   4.558  12.899  14.032
23684SOL    HW272892   4.680  12.909  13.941
23685SOL     OW72893   5.800  13.102   0.284
23685SOL    HW172894   5.798  13.016   0.327
23685SOL    HW272895   5.866  13.093   0.216
23686SOL     OW72896   4.108  14.864   9.051
23686SOL    HW172897   4.077  14.850   9.141
23686SOL    HW272898   4.084   0.081   9.032
23687SOL     OW72899   8.567   0.418   2.788
23687SOL    HW172900   8.660   0.423   2.769
23687SOL    HW272901   8.525   0.419   2.702
23688SOL     OW72902  10.945  13.298   0.381
23688SOL    HW172903  10.979  13.298   0.470
23688SOL    HW272904  10.985  13.222   0.339
23689SOL     OW72905  10.524   8.534  10.780
23689SOL    HW172906  10.476   8.483  10.845
23689SOL    HW272907  10.614   8.536  10.813
23690SOL     OW72908  10.039  12.865  13.977
23690SOL    HW172909  10.134  12.869  13.991
23690SOL    HW272910  10.008  12.953  14.001
23691SOL     OW72911   6.422   4.067   3.791
23691SOL    HW172912   6.432   3.981   3.830
23691SOL    HW272913   6.361   4.113   3.849
23692SOL     OW72914  14.601   9.724   6.235
23692SOL    HW172915  14.518   9.772   6.247
23692SOL    HW272916  14.575   9.631   6.237
23693SOL     OW72917   2.730   1.675   5.698
23693SOL    HW172918   2.767   1.618   5.631
23693SOL    HW272919   2.747   1.764   5.665
23694SOL     OW72920  13.749   1.835   3.180
23694SOL    HW172921  13.683   1.769   3.201
23694SOL    HW272922  13.703   1.918   3.189
23695SOL     OW72923   3.886   2.349   0.417
23695SOL    HW172924   3.843   2.404   0.483
23695SOL    HW272925   3.903   2.408   0.344
23696SOL     OW72926   6.578   4.004  13.454
23696SOL    HW172927   6.502   4.062  13.455
23696SOL    HW272928   6.546   3.922  13.490
23697SOL     OW72929   6.113   0.402   1.797
23697SOL    HW172930   6.048   0.455   1.842
23697SOL    HW272931   6.065   0.359   1.726
23698SOL     OW72932  12.391  12.087  14.792
23698SOL    HW172933  12.426  12.150  14.729
23698SOL    HW272934  12.339  12.027  14.739
23699SOL     OW72935   2.482   1.770  11.504
23699SOL    HW172936   2.472   1.678  11.480
23699SOL    HW272937   2.570   1.774  11.543
23700SOL     OW72938   9.420   0.797   2.460
23700SOL    HW172939   9.427   0.858   2.533
23700SOL    HW272940   9.330   0.765   2.464
23701SOL     OW72941   8.316   9.567  11.782
23701SOL    HW172942   8.392   9.587  11.728
23701SOL    HW272943   8.349   9.575  11.872
23702SOL     OW72944  10.387   2.690  14.303
23702SOL    HW172945  10.343   2.773  14.321
23702SOL    HW272946  10.341   2.626  14.357
23703SOL     OW72947  13.430   4.352  12.759
23703SOL    HW172948  13.358   4.321  12.814
23703SOL    HW272949  13.411   4.444  12.744
23704SOL     OW72950  10.477  14.525   3.113
23704SOL    HW172951  10.570  14.509   3.132
23704SOL    HW272952  10.454  14.599   3.169
23705SOL     OW72953   5.979  11.132  11.373
23705SOL    HW172954   5.940  11.220  11.380
23705SOL    HW272955   5.910  11.079  11.334
23706SOL     OW72956  12.466   5.483   0.690
23706SOL    HW172957  12.523   5.549   0.650
23706SOL    HW272958  12.428   5.527   0.767
23707SOL     OW72959   3.344   4.138   8.248
23707SOL    HW172960   3.274   4.126   8.184
23707SOL    HW272961   3.323   4.076   8.318
23708SOL     OW72962  10.313  10.704   7.263
23708SOL    HW172963  10.404  10.680   7.245
23708SOL    HW272964  10.298  10.781   7.207
23709SOL     OW72965  14.314  13.790  14.250
23709SOL    HW172966  14.279  13.877  14.264
23709SOL    HW272967  14.294  13.769  14.159
23710SOL     OW72968   4.947  14.149   0.602
23710SOL    HW172969   5.025  14.154   0.546
23710SOL    HW272970   4.877  14.121   0.544
23711SOL     OW72971   0.620   5.455  11.336
23711SOL    HW172972   0.677   5.525  11.368
23711SOL    HW272973   0.645   5.378  11.388
23712SOL     OW72974   4.435  12.038  13.733
23712SOL    HW172975   4.406  12.015  13.821
23712SOL    HW272976   4.531  12.031  13.737
23713SOL     OW72977   9.307   7.288   2.566
23713SOL    HW172978   9.261   7.262   2.646
23713SOL    HW272979   9.242   7.336   2.516
23714SOL     OW72980   1.852   7.516   2.236
23714SOL    HW172981   1.918   7.485   2.299
23714SOL    HW272982   1.769   7.484   2.273
23715SOL     OW72983   5.186   2.795   9.625
23715SOL    HW172984   5.226   2.720   9.583
23715SOL    HW272985   5.112   2.759   9.674
23716SOL     OW72986   9.327   0.307   1.931
23716SOL    HW172987   9.247   0.357   1.947
23716SOL    HW272988   9.310   0.263   1.847
23717SOL     OW72989   0.542   4.537   6.697
23717SOL    HW172990   0.605   4.572   6.633
23717SOL    HW272991   0.492   4.613   6.726
23718SOL     OW72992  12.375   4.330   4.175
23718SOL    HW172993  12.436   4.263   4.146
23718SOL    HW272994  12.415   4.412   4.148
23719SOL     OW72995   5.166   3.253  12.971
23719SOL    HW172996   5.209   3.272  13.055
23719SOL    HW272997   5.202   3.318  12.911
23720SOL     OW72998   0.294  11.081   8.594
23720SOL    HW172999   0.276  11.044   8.680
23720SOL    HW273000   0.226  11.045   8.537
23721SOL     OW73001   6.566   5.167   2.194
23721SOL    HW173002   6.638   5.182   2.255
23721SOL    HW273003   6.594   5.211   2.114
23722SOL     OW73004  11.020   0.478  10.435
23722SOL    HW173005  11.102   0.525  10.422
23722SOL    HW273006  11.029   0.438  10.521
23723SOL     OW73007   5.749  12.220   6.256
23723SOL    HW173008   5.735  12.250   6.346
23723SOL    HW273009   5.844  12.224   6.244
23724SOL     OW73010   2.778  13.608   1.195
23724SOL    HW173011   2.721  13.546   1.239
23724SOL    HW273012   2.761  13.595   1.102
23725SOL     OW73013  11.726   3.900   8.667
23725SOL    HW173014  11.683   3.943   8.594
23725SOL    HW273015  11.819   3.919   8.654
23726SOL     OW73016   8.629  14.169   0.975
23726SOL    HW173017   8.721  14.145   0.970
23726SOL    HW273018   8.623  14.255   0.934
23727SOL     OW73019   4.111   1.800   8.448
23727SOL    HW173020   4.154   1.715   8.454
23727SOL    HW273021   4.163   1.849   8.385
23728SOL     OW73022   6.241   0.301   3.824
23728SOL    HW173023   6.161   0.256   3.852
23728SOL    HW273024   6.282   0.329   3.906
23729SOL     OW73025   5.222   8.964   3.878
23729SOL    HW173026   5.294   9.006   3.831
23729SOL    HW273027   5.234   8.870   3.861
23730SOL     OW73028   9.330   3.522  10.128
23730SOL    HW173029   9.405   3.568  10.089
23730SOL    HW273030   9.370   3.450  10.176
23731SOL     OW73031   5.857   2.050   5.490
23731SOL    HW173032   5.801   2.013   5.558
23731SOL    HW273033   5.888   2.133   5.527
23732SOL     OW73034   6.651   5.510   2.877
23732SOL    HW173035   6.623   5.422   2.850
23732SOL    HW273036   6.578   5.543   2.929
23733SOL     OW73037   0.679   5.795   8.998
23733SOL    HW173038   0.678   5.833   9.086
23733SOL    HW273039   0.718   5.708   9.009
23734SOL     OW73040  13.376   2.407   0.940
23734SOL    HW173041  13.457   2.356   0.942
23734SOL    HW273042  13.307   2.343   0.926
23735SOL     OW73043   6.718  12.301  12.477
23735SOL    HW173044   6.788  12.239  12.497
23735SOL    HW273045   6.751  12.352  12.404
23736SOL     OW73046   5.121   7.858   3.867
23736SOL    HW173047   5.203   7.812   3.849
23736SOL    HW273048   5.143   7.918   3.939
23737SOL     OW73049   7.089  14.204   9.052
23737SOL    HW173050   7.094  14.161   8.966
23737SOL    HW273051   7.024  14.273   9.040
23738SOL     OW73052   5.992   7.323   9.177
23738SOL    HW173053   6.067   7.382   9.171
23738SOL    HW273054   5.922   7.367   9.129
23739SOL     OW73055  14.160   0.347  12.963
23739SOL    HW173056  14.141   0.423  12.909
23739SOL    HW273057  14.139   0.272  12.907
23740SOL     OW73058   5.768   7.055   8.508
23740SOL    HW173059   5.674   7.068   8.521
23740SOL    HW273060   5.795   6.996   8.579
23741SOL     OW73061   5.904  12.120   3.718
23741SOL    HW173062   5.818  12.077   3.717
23741SOL    HW273063   5.884  12.213   3.712
23742SOL     OW73064  11.017   5.588   6.488
23742SOL    HW173065  11.043   5.607   6.398
23742SOL    HW273066  10.945   5.648   6.506
23743SOL     OW73067   3.234  14.615  10.489
23743SOL    HW173068   3.151  14.573  10.467
23743SOL    HW273069   3.261  14.658  10.407
23744SOL     OW73070   1.692   2.014  10.997
23744SOL    HW173071   1.676   2.084  10.934
23744SOL    HW273072   1.773   2.040  11.042
23745SOL     OW73073  11.419   2.369  13.576
23745SOL    HW173074  11.457   2.335  13.657
23745SOL    HW273075  11.492   2.372  13.515
23746SOL     OW73076   2.946   2.471   3.197
23746SOL    HW173077   2.974   2.465   3.288
23746SOL    HW273078   2.922   2.563   3.185
23747SOL     OW73079   6.765   1.938   1.784
23747SOL    HW173080   6.734   1.938   1.874
23747SOL    HW273081   6.812   1.854   1.775
23748SOL     OW73082   9.120   8.624  13.468
23748SOL    HW173083   9.032   8.614  13.432
23748SOL    HW273084   9.165   8.680  13.405
23749SOL     OW73085   3.788   7.856  11.907
23749SOL    HW173086   3.786   7.824  11.997
23749SOL    HW273087   3.756   7.783  11.854
23750SOL     OW73088   6.232   2.742   5.882
23750SOL    HW173089   6.196   2.831   5.877
23750SOL    HW273090   6.177   2.691   5.823
23751SOL     OW73091   6.858   6.795   8.074
23751SOL    HW173092   6.843   6.768   8.164
23751SOL    HW273093   6.787   6.857   8.055
23752SOL     OW73094   5.895   8.694   8.665
23752SOL    HW173095   5.856   8.611   8.692
23752SOL    HW273096   5.988   8.686   8.690
23753SOL     OW73097   8.898   5.061   2.543
23753SOL    HW173098   8.964   5.110   2.494
23753SOL    HW273099   8.851   5.128   2.593
23754SOL     OW73100  12.815   5.778   3.898
23754SOL    HW173101  12.726   5.743   3.894
23754SOL    HW273102  12.815   5.851   3.836
23755SOL     OW73103   6.961   9.184  12.463
23755SOL    HW173104   6.992   9.121  12.528
23755SOL    HW273105   7.000   9.155  12.381
23756SOL     OW73106   9.451   5.783  13.693
23756SOL    HW173107   9.507   5.741  13.627
23756SOL    HW273108   9.443   5.874  13.663
23757SOL     OW73109  11.190  10.127   4.764
23757SOL    HW173110  11.149  10.177   4.693
23757SOL    HW273111  11.125  10.129   4.834
23758SOL     OW73112   7.532  13.153   2.281
23758SOL    HW173113   7.596  13.201   2.229
23758SOL    HW273114   7.491  13.092   2.220
23759SOL     OW73115   4.323   3.174   3.968
23759SOL    HW173116   4.365   3.260   3.961
23759SOL    HW273117   4.252   3.187   4.031
23760SOL     OW73118   1.849   8.142   8.747
23760SOL    HW173119   1.808   8.182   8.823
23760SOL    HW273120   1.793   8.067   8.727
23761SOL     OW73121  11.593   7.736  11.096
23761SOL    HW173122  11.687   7.720  11.092
23761SOL    HW273123  11.568   7.761  11.007
23762SOL     OW73124   7.079  10.984   4.666
23762SOL    HW173125   7.005  11.044   4.666
23762SOL    HW273126   7.090  10.961   4.574
23763SOL     OW73127  10.362   2.893  13.112
23763SOL    HW173128  10.383   2.978  13.150
23763SOL    HW273129  10.395   2.829  13.175
23764SOL     OW73130  11.114   4.337   7.148
23764SOL    HW173131  11.023   4.360   7.163
23764SOL    HW273132  11.144   4.302   7.232
23765SOL     OW73133  13.977  14.257  13.602
23765SOL    HW173134  13.899  14.303  13.572
23765SOL    HW273135  14.047  14.286  13.543
23766SOL     OW73136   3.130  11.200   7.035
23766SOL    HW173137   3.126  11.207   7.130
23766SOL    HW273138   3.163  11.285   7.006
23767SOL     OW73139   7.675  10.421   5.820
23767SOL    HW173140   7.744  10.395   5.881
23767SOL    HW273141   7.697  10.375   5.739
23768SOL     OW73142   0.086   6.408  11.507
23768SOL    HW173143   0.073   6.313  11.514
23768SOL    HW273144   0.181   6.419  11.507
23769SOL     OW73145  10.346   2.582   3.921
23769SOL    HW173146  10.324   2.495   3.957
23769SOL    HW273147  10.282   2.595   3.851
23770SOL     OW73148  13.950   3.089   9.791
23770SOL    HW173149  13.915   3.080   9.702
23770SOL    HW273150  13.932   3.005   9.833
23771SOL     OW73151  10.514   3.158  12.249
23771SOL    HW173152  10.420   3.170  12.235
23771SOL    HW273153  10.554   3.235  12.207
23772SOL     OW73154   3.992   9.000   8.367
23772SOL    HW173155   4.068   9.027   8.418
23772SOL    HW273156   3.968   8.915   8.404
23773SOL     OW73157  12.403   8.212   8.298
23773SOL    HW173158  12.328   8.224   8.240
23773SOL    HW273159  12.479   8.218   8.240
23774SOL     OW73160   0.978   3.538   5.225
23774SOL    HW173161   0.884   3.550   5.240
23774SOL    HW273162   0.997   3.449   5.256
23775SOL     OW73163   7.099  12.637   3.927
23775SOL    HW173164   7.006  12.654   3.915
23775SOL    HW273165   7.139  12.723   3.936
23776SOL     OW73166   8.640   8.001  14.704
23776SOL    HW173167   8.579   8.038  14.640
23776SOL    HW273168   8.622   7.907  14.701
23777SOL     OW73169   4.979  10.303  11.321
23777SOL    HW173170   5.037  10.360  11.371
23777SOL    HW273171   5.027  10.288  11.239
23778SOL     OW73172   5.424  11.801   1.642
23778SOL    HW173173   5.455  11.712   1.624
23778SOL    HW273174   5.458  11.821   1.729
23779SOL     OW73175   8.141   5.952   9.068
23779SOL    HW173176   8.152   6.039   9.031
23779SOL    HW273177   8.046   5.943   9.079
23780SOL     OW73178   0.683   0.409   7.820
23780SOL    HW173179   0.665   0.459   7.741
23780SOL    HW273180   0.773   0.378   7.809
23781SOL     OW73181  11.905  13.400   9.284
23781SOL    HW173182  11.949  13.356   9.356
23781SOL    HW273183  11.929  13.349   9.207
23782SOL     OW73184  11.825   4.151  13.429
23782SOL    HW173185  11.893   4.129  13.365
23782SOL    HW273186  11.867   4.214  13.487
23783SOL     OW73187  11.152  12.307   6.252
23783SOL    HW173188  11.065  12.291   6.215
23783SOL    HW273189  11.209  12.314   6.176
23784SOL     OW73190  14.385   8.983   8.721
23784SOL    HW173191  14.388   9.079   8.727
23784SOL    HW273192  14.444   8.953   8.790
23785SOL     OW73193   0.193   2.436  12.215
23785SOL    HW173194   0.145   2.517  12.200
23785SOL    HW273195   0.257   2.433  12.143
23786SOL     OW73196  10.331   9.001  13.712
23786SOL    HW173197  10.376   9.075  13.671
23786SOL    HW273198  10.317   9.030  13.803
23787SOL     OW73199  12.873   1.672  14.623
23787SOL    HW173200  12.782   1.667  14.594
23787SOL    HW273201  12.911   1.743  14.573
23788SOL     OW73202   7.837   9.779   9.536
23788SOL    HW173203   7.879   9.810   9.617
23788SOL    HW273204   7.842   9.683   9.543
23789SOL     OW73205  13.832   5.813  11.035
23789SOL    HW173206  13.910   5.783  11.081
23789SOL    HW273207  13.766   5.824  11.104
23790SOL     OW73208   7.958   2.498   9.642
23790SOL    HW173209   7.895   2.439   9.684
23790SOL    HW273210   7.959   2.470   9.551
23791SOL     OW73211   6.055  14.762   9.815
23791SOL    HW173212   6.054  14.667   9.825
23791SOL    HW273213   5.980  14.793   9.865
23792SOL     OW73214   3.591  13.858   2.796
23792SOL    HW173215   3.635  13.788   2.747
23792SOL    HW273216   3.612  13.839   2.887
23793SOL     OW73217  12.862   2.652   2.265
23793SOL    HW173218  12.878   2.745   2.276
23793SOL    HW273219  12.773   2.647   2.230
23794SOL     OW73220   6.584   7.969  13.052
23794SOL    HW173221   6.506   7.945  13.002
23794SOL    HW273222   6.581   8.064  13.059
23795SOL     OW73223  14.741   4.414   3.118
23795SOL    HW173224  14.810   4.374   3.170
23795SOL    HW273225  14.680   4.343   3.099
23796SOL     OW73226   0.265  13.344   6.694
23796SOL    HW173227   0.311  13.261   6.700
23796SOL    HW273228   0.252  13.357   6.600
23797SOL     OW73229   7.896  11.403   4.540
23797SOL    HW173230   7.981  11.363   4.521
23797SOL    HW273231   7.882  11.387   4.634
23798SOL     OW73232   6.322  11.584  10.174
23798SOL    HW173233   6.317  11.509  10.114
23798SOL    HW273234   6.232  11.596  10.204
23799SOL     OW73235   1.659   5.997   0.257
23799SOL    HW173236   1.572   6.033   0.274
23799SOL    HW273237   1.711   6.072   0.230
23800SOL     OW73238  13.589  10.963  12.908
23800SOL    HW173239  13.652  10.911  12.858
23800SOL    HW273240  13.515  10.974  12.848
23801SOL     OW73241   0.247   2.086   5.616
23801SOL    HW173242   0.323   2.111   5.564
23801SOL    HW273243   0.172   2.116   5.566
23802SOL     OW73244  13.401   0.758  13.085
23802SOL    HW173245  13.408   0.836  13.140
23802SOL    HW273246  13.431   0.687  13.141
23803SOL     OW73247  14.470   4.516  10.824
23803SOL    HW173248  14.517   4.445  10.867
23803SOL    HW273249  14.481   4.591  10.881
23804SOL     OW73250  12.201   7.272  12.558
23804SOL    HW173251  12.208   7.362  12.590
23804SOL    HW273252  12.138   7.231  12.618
23805SOL     OW73253  14.587   3.771   4.383
23805SOL    HW173254  14.637   3.847   4.413
23805SOL    HW273255  14.495   3.799   4.392
23806SOL     OW73256   8.986   0.828   8.126
23806SOL    HW173257   9.005   0.902   8.183
23806SOL    HW273258   8.900   0.848   8.088
23807SOL     OW73259   1.743  14.494   1.020
23807SOL    HW173260   1.816  14.555   1.007
23807SOL    HW273261   1.772  14.413   0.978
23808SOL     OW73262   0.204   8.992   2.304
23808SOL    HW173263   0.145   8.947   2.365
23808SOL    HW273264   0.184   9.085   2.316
23809SOL     OW73265   5.358  11.628  10.869
23809SOL    HW173266   5.418  11.659  10.937
23809SOL    HW273267   5.416  11.588  10.803
23810SOL     OW73268  10.739  11.834  12.623
23810SOL    HW173269  10.659  11.792  12.594
23810SOL    HW273270  10.726  11.848  12.717
23811SOL     OW73271  11.992   9.025   3.688
23811SOL    HW173272  12.032   8.992   3.769
23811SOL    HW273273  11.932   8.955   3.661
23812SOL     OW73274   9.652  11.146   9.241
23812SOL    HW173275   9.627  11.238   9.231
23812SOL    HW273276   9.658  11.134   9.336
23813SOL     OW73277   6.616   9.343   3.012
23813SOL    HW173278   6.664   9.285   3.072
23813SOL    HW273279   6.589   9.285   2.941
23814SOL     OW73280   4.740  11.095   1.214
23814SOL    HW173281   4.723  11.132   1.301
23814SOL    HW273282   4.779  11.009   1.233
23815SOL     OW73283   4.203   4.431   6.804
23815SOL    HW173284   4.131   4.370   6.821
23815SOL    HW273285   4.260   4.383   6.744
23816SOL     OW73286   5.119   2.507  11.898
23816SOL    HW173287   5.131   2.575  11.832
23816SOL    HW273288   5.170   2.536  11.973
23817SOL     OW73289   4.630   5.652   5.856
23817SOL    HW173290   4.639   5.564   5.821
23817SOL    HW273291   4.669   5.708   5.789
23818SOL     OW73292  12.804   0.924  13.961
23818SOL    HW173293  12.785   0.947  13.870
23818SOL    HW273294  12.727   0.875  13.990
23819SOL     OW73295   1.548  14.091  12.540
23819SOL    HW173296   1.545  14.185  12.525
23819SOL    HW273297   1.594  14.056  12.464
23820SOL     OW73298  12.391   9.059  11.615
23820SOL    HW173299  12.433   8.994  11.560
23820SOL    HW273300  12.408   9.029  11.705
23821SOL     OW73301  12.240   5.316  13.139
23821SOL    HW173302  12.208   5.318  13.229
23821SOL    HW273303  12.162   5.322  13.085
23822SOL     OW73304   4.948   2.561   5.760
23822SOL    HW173305   4.955   2.488   5.698
23822SOL    HW273306   4.998   2.632   5.719
23823SOL     OW73307  10.315   6.495   8.451
23823SOL    HW173308  10.325   6.562   8.518
23823SOL    HW273309  10.393   6.504   8.396
23824SOL     OW73310  12.779   2.587   8.512
23824SOL    HW173311  12.782   2.510   8.568
23824SOL    HW273312  12.843   2.647   8.551
23825SOL     OW73313   0.523   1.003  13.155
23825SOL    HW173314   0.532   1.051  13.238
23825SOL    HW273315   0.588   1.043  13.097
23826SOL     OW73316   5.760   8.772  14.136
23826SOL    HW173317   5.753   8.750  14.043
23826SOL    HW273318   5.854   8.782  14.151
23827SOL     OW73319   6.514   4.445   4.264
23827SOL    HW173320   6.570   4.389   4.318
23827SOL    HW273321   6.434   4.393   4.252
23828SOL     OW73322   9.851  11.998   0.039
23828SOL    HW173323   9.856  12.033  14.824
23828SOL    HW273324   9.889  12.067   0.093
23829SOL     OW73325   4.428  13.003  14.024
23829SOL    HW173326   4.365  12.931  14.021
23829SOL    HW273327   4.381  13.074  14.067
23830SOL     OW73328  11.156   7.992   6.070
23830SOL    HW173329  11.080   8.004   6.127
23830SOL    HW273330  11.136   7.912   6.021
23831SOL     OW73331  11.214   8.707  12.757
23831SOL    HW173332  11.200   8.797  12.729
23831SOL    HW273333  11.126   8.672  12.770
23832SOL     OW73334   7.899   1.930   3.271
23832SOL    HW173335   7.943   1.846   3.275
23832SOL    HW273336   7.830   1.919   3.206
23833SOL     OW73337  10.612  11.057   6.400
23833SOL    HW173338  10.636  11.127   6.339
23833SOL    HW273339  10.628  11.094   6.487
23834SOL     OW73340   4.476  11.353   4.246
23834SOL    HW173341   4.557  11.394   4.216
23834SOL    HW273342   4.498  11.260   4.254
23835SOL     OW73343  10.998   7.300   8.116
23835SOL    HW173344  10.927   7.248   8.077
23835SOL    HW273345  11.050   7.330   8.042
23836SOL     OW73346   4.173   7.873   6.928
23836SOL    HW173347   4.133   7.786   6.926
23836SOL    HW273348   4.103   7.930   6.959
23837SOL     OW73349  10.416   5.698   1.012
23837SOL    HW173350  10.363   5.637   1.063
23837SOL    HW273351  10.499   5.652   1.000
23838SOL     OW73352  10.944  12.690   4.383
23838SOL    HW173353  11.022  12.698   4.328
23838SOL    HW273354  10.908  12.779   4.387
23839SOL     OW73355  11.665   2.414   0.301
23839SOL    HW173356  11.741   2.463   0.270
23839SOL    HW273357  11.699   2.327   0.321
23840SOL     OW73358  11.556   9.192  10.543
23840SOL    HW173359  11.639   9.148  10.523
23840SOL    HW273360  11.581   9.283  10.558
23841SOL     OW73361   8.429  12.265   0.078
23841SOL    HW173362   8.367  12.330   0.112
23841SOL    HW273363   8.504  12.269   0.137
23842SOL     OW73364  11.402   5.364  11.046
23842SOL    HW173365  11.386   5.372  11.140
23842SOL    HW273366  11.407   5.270  11.030
23843SOL     OW73367   6.031  14.277   3.155
23843SOL    HW173368   5.956  14.331   3.130
23843SOL    HW273369   6.098  14.297   3.090
23844SOL     OW73370  12.183  11.122   6.260
23844SOL    HW173371  12.153  11.037   6.292
23844SOL    HW273372  12.233  11.158   6.333
23845SOL     OW73373   0.197  13.266   1.988
23845SOL    HW173374   0.160  13.302   1.907
23845SOL    HW273375   0.283  13.307   1.996
23846SOL     OW73376   6.538  11.365  10.309
23846SOL    HW173377   6.560  11.448  10.267
23846SOL    HW273378   6.500  11.389  10.394
23847SOL     OW73379   7.972   9.065  14.482
23847SOL    HW173380   7.920   8.997  14.440
23847SOL    HW273381   7.948   9.145  14.435
23848SOL     OW73382  10.172   4.606   0.225
23848SOL    HW173383  10.101   4.554   0.261
23848SOL    HW273384  10.190   4.672   0.293
23849SOL     OW73385   8.389   8.856   7.216
23849SOL    HW173386   8.465   8.887   7.165
23849SOL    HW273387   8.399   8.760   7.216
23850SOL     OW73388  13.941  13.144   5.308
23850SOL    HW173389  14.014  13.140   5.247
23850SOL    HW273390  13.866  13.114   5.257
23851SOL     OW73391   3.899   6.711  13.086
23851SOL    HW173392   3.866   6.712  13.175
23851SOL    HW273393   3.880   6.799  13.052
23852SOL     OW73394   3.136   9.273  10.099
23852SOL    HW173395   3.186   9.342  10.144
23852SOL    HW273396   3.129   9.202  10.162
23853SOL     OW73397   9.536  12.904  10.113
23853SOL    HW173398   9.527  12.868  10.025
23853SOL    HW273399   9.512  12.831  10.171
23854SOL     OW73400   2.511   2.907  12.116
23854SOL    HW173401   2.434   2.959  12.136
23854SOL    HW273402   2.531   2.927  12.024
23855SOL     OW73403  12.426   3.572  11.172
23855SOL    HW173404  12.498   3.538  11.118
23855SOL    HW273405  12.409   3.659  11.139
23856SOL     OW73406   0.508  13.642   5.864
23856SOL    HW173407   0.424  13.622   5.823
23856SOL    HW273408   0.487  13.663   5.955
23857SOL     OW73409   6.835   9.226   1.143
23857SOL    HW173410   6.806   9.158   1.203
23857SOL    HW273411   6.845   9.182   1.059
23858SOL     OW73412   0.888  13.175   7.230
23858SOL    HW173413   0.846  13.156   7.146
23858SOL    HW273414   0.914  13.090   7.263
23859SOL     OW73415  10.755   6.316  14.132
23859SOL    HW173416  10.742   6.226  14.161
23859SOL    HW273417  10.666   6.350  14.120
23860SOL     OW73418   7.696  11.324   0.776
23860SOL    HW173419   7.641  11.257   0.817
23860SOL    HW273420   7.769  11.276   0.738
23861SOL     OW73421   4.122   0.478  12.605
23861SOL    HW173422   4.043   0.424  12.616
23861SOL    HW273423   4.161   0.446  12.524
23862SOL     OW73424   3.452   4.696  13.040
23862SOL    HW173425   3.540   4.673  13.009
23862SOL    HW273426   3.399   4.697  12.961
23863SOL     OW73427   7.263   3.327   9.710
23863SOL    HW173428   7.185   3.358   9.664
23863SOL    HW273429   7.325   3.400   9.706
23864SOL     OW73430  12.707   8.775  12.439
23864SOL    HW173431  12.657   8.707  12.484
23864SOL    HW273432  12.688   8.761  12.346
23865SOL     OW73433   7.575  10.763   7.429
23865SOL    HW173434   7.528  10.706   7.489
23865SOL    HW273435   7.531  10.751   7.345
23866SOL     OW73436  12.323  14.215   1.709
23866SOL    HW173437  12.274  14.288   1.671
23866SOL    HW273438  12.408  14.218   1.666
23867SOL     OW73439   3.786  10.518   1.727
23867SOL    HW173440   3.790  10.584   1.796
23867SOL    HW273441   3.876  10.484   1.721
23868SOL     OW73442  12.149   6.478   0.450
23868SOL    HW173443  12.134   6.400   0.396
23868SOL    HW273444  12.099   6.547   0.407
23869SOL     OW73445  14.407   0.412   2.143
23869SOL    HW173446  14.338   0.380   2.085
23869SOL    HW273447  14.378   0.499   2.170
23870SOL     OW73448   9.416  11.864   5.066
23870SOL    HW173449   9.322  11.882   5.056
23870SOL    HW273450   9.426  11.773   5.040
23871SOL     OW73451   6.813  10.636  14.579
23871SOL    HW173452   6.826  10.563  14.639
23871SOL    HW273453   6.898  10.681  14.577
23872SOL     OW73454   4.409   1.161   0.631
23872SOL    HW173455   4.404   1.074   0.669
23872SOL    HW273456   4.382   1.220   0.702
23873SOL     OW73457   8.870  12.111  13.189
23873SOL    HW173458   8.830  12.149  13.267
23873SOL    HW273459   8.957  12.083  13.218
23874SOL     OW73460   5.713  11.072  13.169
23874SOL    HW173461   5.645  11.113  13.223
23874SOL    HW273462   5.722  10.984  13.203
23875SOL     OW73463  14.277   5.042  12.196
23875SOL    HW173464  14.199   5.047  12.140
23875SOL    HW273465  14.350   5.063  12.137
23876SOL     OW73466  13.710  13.927  10.742
23876SOL    HW173467  13.785  13.986  10.751
23876SOL    HW273468  13.737  13.865  10.674
23877SOL     OW73469   8.828   2.349   6.295
23877SOL    HW173470   8.826   2.309   6.383
23877SOL    HW273471   8.812   2.276   6.236
23878SOL     OW73472  11.340   9.555   3.203
23878SOL    HW173473  11.259   9.546   3.253
23878SOL    HW273474  11.405   9.508   3.255
23879SOL     OW73475   4.950  11.090   6.305
23879SOL    HW173476   5.000  11.014   6.333
23879SOL    HW273477   5.009  11.164   6.319
23880SOL     OW73478  14.543  14.600   9.752
23880SOL    HW173479  14.572  14.537   9.685
23880SOL    HW273480  14.592  14.679   9.732
23881SOL     OW73481   2.378   7.985  13.142
23881SOL    HW173482   2.338   8.072  13.146
23881SOL    HW273483   2.314   7.928  13.184
23882SOL     OW73484   0.011   0.614   2.481
23882SOL    HW173485   0.002   0.581   2.391
23882SOL    HW273486   0.068   0.551   2.524
23883SOL     OW73487   6.767   5.979   6.194
23883SOL    HW173488   6.719   6.029   6.128
23883SOL    HW273489   6.710   5.905   6.215
23884SOL     OW73490   4.129  12.299  14.475
23884SOL    HW173491   4.215  12.273  14.509
23884SOL    HW273492   4.145  12.382  14.429
23885SOL     OW73493   9.491  13.554   3.729
23885SOL    HW173494   9.450  13.547   3.643
23885SOL    HW273495   9.500  13.648   3.744
23886SOL     OW73496   8.934  14.273   8.505
23886SOL    HW173497   8.858  14.299   8.557
23886SOL    HW273498   8.980  14.355   8.487
23887SOL     OW73499   6.945   1.312  14.105
23887SOL    HW173500   6.889   1.234  14.114
23887SOL    HW273501   6.938   1.356  14.190
23888SOL     OW73502   2.063   7.263   8.135
23888SOL    HW173503   2.133   7.198   8.131
23888SOL    HW273504   1.994   7.222   8.188
23889SOL     OW73505   7.704   1.908   7.101
23889SOL    HW173506   7.767   1.842   7.130
23889SOL    HW273507   7.619   1.869   7.117
23890SOL     OW73508   3.851   0.964   1.111
23890SOL    HW173509   3.926   0.917   1.075
23890SOL    HW273510   3.782   0.898   1.117
23891SOL     OW73511  10.046  11.650  10.922
23891SOL    HW173512  10.137  11.641  10.894
23891SOL    HW273513  10.043  11.735  10.965
23892SOL     OW73514  14.274   0.984  10.080
23892SOL    HW173515  14.281   0.959   9.988
23892SOL    HW273516  14.339   1.053  10.091
23893SOL     OW73517  13.244  10.131   2.534
23893SOL    HW173518  13.174  10.090   2.483
23893SOL    HW273519  13.245  10.222   2.504
23894SOL     OW73520   3.656   7.008   1.225
23894SOL    HW173521   3.643   6.925   1.179
23894SOL    HW273522   3.568   7.032   1.256
23895SOL     OW73523   2.382  10.374   6.462
23895SOL    HW173524   2.378  10.281   6.440
23895SOL    HW273525   2.334  10.381   6.545
23896SOL     OW73526   8.279   8.313   9.183
23896SOL    HW173527   8.233   8.234   9.210
23896SOL    HW273528   8.245   8.382   9.240
23897SOL     OW73529   0.734   1.670  14.503
23897SOL    HW173530   0.710   1.638  14.416
23897SOL    HW273531   0.673   1.627  14.562
23898SOL     OW73532   9.860   9.189  13.472
23898SOL    HW173533   9.837   9.274  13.435
23898SOL    HW273534   9.790   9.131  13.445
23899SOL     OW73535   8.726   7.713  13.932
23899SOL    HW173536   8.763   7.742  14.015
23899SOL    HW273537   8.637   7.748  13.932
23900SOL     OW73538   9.945  14.238   3.623
23900SOL    HW173539   9.921  14.185   3.547
23900SOL    HW273540   9.965  14.174   3.691
23901SOL     OW73541   6.707  13.863   7.072
23901SOL    HW173542   6.755  13.784   7.095
23901SOL    HW273543   6.615  13.842   7.091
23902SOL     OW73544  11.394  10.333   0.754
23902SOL    HW173545  11.446  10.366   0.680
23902SOL    HW273546  11.403  10.238   0.749
23903SOL     OW73547   7.008   5.572   5.903
23903SOL    HW173548   7.030   5.645   5.959
23903SOL    HW273549   6.959   5.611   5.830
23904SOL     OW73550   2.474  14.064   5.949
23904SOL    HW173551   2.424  14.013   5.885
23904SOL    HW273552   2.560  14.075   5.909
23905SOL     OW73553   1.883   7.274   6.918
23905SOL    HW173554   1.918   7.311   7.000
23905SOL    HW273555   1.790   7.259   6.936
23906SOL     OW73556   4.094   7.593   8.604
23906SOL    HW173557   4.130   7.610   8.691
23906SOL    HW273558   4.017   7.649   8.600
23907SOL     OW73559   3.278   6.948   9.870
23907SOL    HW173560   3.360   6.899   9.865
23907SOL    HW273561   3.306   7.038   9.887
23908SOL     OW73562  13.175   3.483   1.246
23908SOL    HW173563  13.182   3.478   1.151
23908SOL    HW273564  13.193   3.575   1.266
23909SOL     OW73565   8.324  11.064   6.972
23909SOL    HW173566   8.299  10.978   7.006
23909SOL    HW273567   8.404  11.087   7.019
23910SOL     OW73568   5.803   6.319   6.767
23910SOL    HW173569   5.840   6.406   6.758
23910SOL    HW273570   5.743   6.311   6.693
23911SOL     OW73571   5.732   7.459   5.815
23911SOL    HW173572   5.744   7.539   5.867
23911SOL    HW273573   5.643   7.430   5.837
23912SOL     OW73574  12.500  13.372   8.897
23912SOL    HW173575  12.433  13.307   8.919
23912SOL    HW273576  12.583  13.326   8.907
23913SOL     OW73577   2.974   6.544  13.913
23913SOL    HW173578   2.977   6.601  13.989
23913SOL    HW273579   3.066   6.532  13.888
23914SOL     OW73580  12.604   9.586   3.476
23914SOL    HW173581  12.692   9.550   3.468
23914SOL    HW273582  12.547   9.517   3.444
23915SOL     OW73583   4.138   7.552   3.523
23915SOL    HW173584   4.232   7.569   3.532
23915SOL    HW273585   4.111   7.522   3.610
23916SOL     OW73586   2.547   4.625  10.268
23916SOL    HW173587   2.591   4.669  10.340
23916SOL    HW273588   2.606   4.636  10.193
23917SOL     OW73589   4.740  11.486   4.453
23917SOL    HW173590   4.655  11.525   4.474
23917SOL    HW273591   4.735  11.396   4.486
23918SOL     OW73592   9.419   2.749   7.091
23918SOL    HW173593   9.469   2.716   7.017
23918SOL    HW273594   9.329   2.750   7.060
23919SOL     OW73595   3.133   1.229   7.471
23919SOL    HW173596   3.055   1.177   7.453
23919SOL    HW273597   3.202   1.188   7.418
23920SOL     OW73598   6.896   9.317   3.844
23920SOL    HW173599   6.946   9.269   3.910
23920SOL    HW273600   6.947   9.309   3.764
23921SOL     OW73601  10.303   6.929   2.874
23921SOL    HW173602  10.358   6.856   2.905
23921SOL    HW273603  10.366   6.999   2.853
23922SOL     OW73604   4.733   3.915   5.579
23922SOL    HW173605   4.828   3.906   5.586
23922SOL    HW273606   4.719   3.952   5.492
23923SOL     OW73607   1.394  10.317   7.234
23923SOL    HW173608   1.369  10.409   7.224
23923SOL    HW273609   1.466  10.319   7.297
23924SOL     OW73610   3.227  11.313  12.879
23924SOL    HW173611   3.270  11.274  12.804
23924SOL    HW273612   3.133  11.304  12.861
23925SOL     OW73613   3.774  13.122   5.404
23925SOL    HW173614   3.698  13.174   5.378
23925SOL    HW273615   3.740  13.061   5.470
23926SOL     OW73616  13.914  12.118   4.762
23926SOL    HW173617  13.960  12.039   4.734
23926SOL    HW273618  13.823  12.104   4.734
23927SOL     OW73619   2.359   7.574   3.302
23927SOL    HW173620   2.320   7.510   3.242
23927SOL    HW273621   2.442   7.598   3.261
23928SOL     OW73622   8.126   4.009   0.077
23928SOL    HW173623   8.132   3.990  14.857
23928SOL    HW273624   8.107   4.103   0.081
23929SOL     OW73625  11.737  12.877   7.503
23929SOL    HW173626  11.647  12.906   7.486
23929SOL    HW273627  11.788  12.913   7.430
23930SOL     OW73628  11.784  13.415   5.932
23930SOL    HW173629  11.801  13.403   6.026
23930SOL    HW273630  11.693  13.442   5.927
23931SOL     OW73631   6.561   5.046   5.786
23931SOL    HW173632   6.562   5.142   5.796
23931SOL    HW273633   6.631   5.028   5.723
23932SOL     OW73634   4.883   6.441   0.272
23932SOL    HW173635   4.976   6.423   0.258
23932SOL    HW273636   4.875   6.536   0.264
23933SOL     OW73637   2.631   0.886   7.139
23933SOL    HW173638   2.654   0.854   7.226
23933SOL    HW273639   2.716   0.902   7.097
23934SOL     OW73640   6.478  13.183  10.641
23934SOL    HW173641   6.461  13.256  10.581
23934SOL    HW273642   6.573  13.182  10.651
23935SOL     OW73643  10.548   7.542   4.086
23935SOL    HW173644  10.627   7.519   4.037
23935SOL    HW273645  10.477   7.526   4.024
23936SOL     OW73646  11.826  10.417   2.212
23936SOL    HW173647  11.826  10.345   2.150
23936SOL    HW273648  11.914  10.455   2.205
23937SOL     OW73649  10.658  10.403   6.812
23937SOL    HW173650  10.640  10.373   6.723
23937SOL    HW273651  10.753  10.409   6.816
23938SOL     OW73652   1.492   0.171   0.363
23938SOL    HW173653   1.579   0.191   0.399
23938SOL    HW273654   1.497   0.078   0.340
23939SOL     OW73655   9.696  14.086   6.090
23939SOL    HW173656   9.697  14.095   6.185
23939SOL    HW273657   9.662  14.169   6.058
23940SOL     OW73658   7.731  12.335   7.052
23940SOL    HW173659   7.821  12.333   7.085
23940SOL    HW273660   7.740  12.323   6.957
23941SOL     OW73661   5.591   0.581  12.817
23941SOL    HW173662   5.527   0.646  12.847
23941SOL    HW273663   5.570   0.502  12.867
23942SOL     OW73664   3.427  13.741  13.601
23942SOL    HW173665   3.405  13.755  13.509
23942SOL    HW273666   3.376  13.663  13.626
23943SOL     OW73667   4.987   9.583   4.907
23943SOL    HW173668   5.032   9.528   4.844
23943SOL    HW273669   4.915   9.622   4.859
23944SOL     OW73670   4.040   3.956   6.232
23944SOL    HW173671   3.960   4.001   6.203
23944SOL    HW273672   4.015   3.914   6.314
23945SOL     OW73673   0.396   1.055   5.826
23945SOL    HW173674   0.430   1.095   5.906
23945SOL    HW273675   0.313   1.100   5.810
23946SOL     OW73676   6.220  13.671   5.746
23946SOL    HW173677   6.224  13.652   5.840
23946SOL    HW273678   6.128  13.657   5.724
23947SOL     OW73679  14.573   3.194   0.962
23947SOL    HW173680  14.591   3.143   1.041
23947SOL    HW273681  14.622   3.275   0.974
23948SOL     OW73682  13.718   0.165  14.454
23948SOL    HW173683  13.717   0.218  14.533
23948SOL    HW273684  13.802   0.186  14.412
23949SOL     OW73685  11.306  12.293   9.366
23949SOL    HW173686  11.389  12.251   9.388
23949SOL    HW273687  11.300  12.286   9.270
23950SOL     OW73688   6.759  10.819   4.185
23950SOL    HW173689   6.850  10.844   4.166
23950SOL    HW273690   6.708  10.866   4.119
23951SOL     OW73691   5.185   0.729  13.235
23951SOL    HW173692   5.209   0.819  13.258
23951SOL    HW273693   5.163   0.734  13.142
23952SOL     OW73694  10.664   2.542   8.164
23952SOL    HW173695  10.712   2.471   8.122
23952SOL    HW273696  10.590   2.498   8.207
23953SOL     OW73697   1.916   2.745  12.643
23953SOL    HW173698   1.889   2.763  12.732
23953SOL    HW273699   2.006   2.712  12.651
23954SOL     OW73700   9.028  13.075   4.808
23954SOL    HW173701   9.070  12.998   4.848
23954SOL    HW273702   9.022  13.053   4.715
23955SOL     OW73703  12.162  13.470   2.919
23955SOL    HW173704  12.123  13.546   2.963
23955SOL    HW273705  12.226  13.436   2.981
23956SOL     OW73706   5.505   1.067  12.742
23956SOL    HW173707   5.509   1.139  12.804
23956SOL    HW273708   5.412   1.051  12.730
23957SOL     OW73709   7.638   5.961   1.932
23957SOL    HW173710   7.730   5.940   1.947
23957SOL    HW273711   7.641   6.033   1.868
23958SOL     OW73712  13.078   0.988   7.393
23958SOL    HW173713  13.061   1.073   7.353
23958SOL    HW273714  13.048   0.925   7.328
23959SOL     OW73715   6.661   6.213  12.057
23959SOL    HW173716   6.755   6.195  12.060
23959SOL    HW273717   6.623   6.135  12.016
23960SOL     OW73718   9.094   2.552   0.534
23960SOL    HW173719   9.146   2.477   0.562
23960SOL    HW273720   9.003   2.526   0.551
23961SOL     OW73721   6.952   2.848  11.681
23961SOL    HW173722   6.975   2.776  11.739
23961SOL    HW273723   6.872   2.820  11.638
23962SOL     OW73724  12.071   5.727   6.582
23962SOL    HW173725  12.021   5.738   6.501
23962SOL    HW273726  12.096   5.635   6.583
23963SOL     OW73727   3.817   4.851   8.097
23963SOL    HW173728   3.776   4.897   8.024
23963SOL    HW273729   3.883   4.912   8.129
23964SOL     OW73730  12.319   0.637   2.401
23964SOL    HW173731  12.316   0.631   2.496
23964SOL    HW273732  12.343   0.728   2.383
23965SOL     OW73733  10.365   6.584  14.864
23965SOL    HW173734  10.445   6.616  14.821
23965SOL    HW273735  10.298   6.588  14.796
23966SOL     OW73736   8.105  11.944  14.079
23966SOL    HW173737   8.051  11.886  14.025
23966SOL    HW273738   8.191  11.940  14.038
23967SOL     OW73739  14.210   0.157   4.797
23967SOL    HW173740  14.270   0.144   4.724
23967SOL    HW273741  14.266   0.157   4.875
23968SOL     OW73742  10.304   7.365   7.508
23968SOL    HW173743  10.310   7.271   7.489
23968SOL    HW273744  10.300   7.407   7.422
23969SOL     OW73745  12.208  11.182  10.265
23969SOL    HW173746  12.254  11.103  10.294
23969SOL    HW273747  12.189  11.229  10.346
23970SOL     OW73748   8.313   7.216   4.681
23970SOL    HW173749   8.235   7.162   4.675
23970SOL    HW273750   8.288   7.287   4.741
23971SOL     OW73751   8.978   1.366  12.660
23971SOL    HW173752   9.013   1.446  12.700
23971SOL    HW273753   9.018   1.363  12.573
23972SOL     OW73754   6.358   7.589  12.329
23972SOL    HW173755   6.329   7.678  12.351
23972SOL    HW273756   6.452   7.598  12.314
23973SOL     OW73757   9.614   2.595  12.228
23973SOL    HW173758   9.591   2.594  12.321
23973SOL    HW273759   9.634   2.504  12.207
23974SOL     OW73760   4.905  12.860  12.308
23974SOL    HW173761   4.929  12.779  12.352
23974SOL    HW273762   4.961  12.927  12.349
23975SOL     OW73763   0.710  12.753  11.398
23975SOL    HW173764   0.697  12.847  11.411
23975SOL    HW273765   0.685  12.714  11.482
23976SOL     OW73766   7.250   3.339   4.808
23976SOL    HW173767   7.194   3.340   4.886
23976SOL    HW273768   7.321   3.278   4.831
23977SOL     OW73769  14.292  11.577   1.474
23977SOL    HW173770  14.232  11.650   1.491
23977SOL    HW273771  14.362  11.588   1.538
23978SOL     OW73772   5.532   8.879   4.346
23978SOL    HW173773   5.615   8.897   4.303
23978SOL    HW273774   5.497   8.803   4.299
23979SOL     OW73775   9.689  14.486  12.242
23979SOL    HW173776   9.626  14.556  12.260
23979SOL    HW273777   9.668  14.456  12.154
23980SOL     OW73778   6.426   1.300   1.642
23980SOL    HW173779   6.341   1.272   1.608
23980SOL    HW273780   6.426   1.395   1.633
23981SOL     OW73781   2.561   3.334   8.437
23981SOL    HW173782   2.512   3.255   8.412
23981SOL    HW273783   2.619   3.350   8.362
23982SOL     OW73784   9.390  11.967  11.345
23982SOL    HW173785   9.390  11.879  11.306
23982SOL    HW273786   9.304  11.974  11.388
23983SOL     OW73787   3.381  11.202  13.902
23983SOL    HW173788   3.396  11.119  13.947
23983SOL    HW273789   3.467  11.243  13.897
23984SOL     OW73790   0.371   6.564   0.845
23984SOL    HW173791   0.391   6.489   0.902
23984SOL    HW273792   0.346   6.634   0.906
23985SOL     OW73793   4.121   3.608  13.235
23985SOL    HW173794   4.094   3.662  13.161
23985SOL    HW273795   4.062   3.533  13.232
23986SOL     OW73796  12.049   1.957   1.980
23986SOL    HW173797  12.065   2.032   1.922
23986SOL    HW273798  12.024   1.886   1.921
23987SOL     OW73799   5.862   7.704  11.015
23987SOL    HW173800   5.817   7.758  11.081
23987SOL    HW273801   5.792   7.670  10.960
23988SOL     OW73802   8.761   1.993   3.975
23988SOL    HW173803   8.754   1.942   4.055
23988SOL    HW273804   8.832   2.054   3.991
23989SOL     OW73805  10.841  11.070  12.866
23989SOL    HW173806  10.862  11.041  12.777
23989SOL    HW273807  10.925  11.070  12.911
23990SOL     OW73808   8.696  11.706   2.743
23990SOL    HW173809   8.635  11.650   2.791
23990SOL    HW273810   8.781  11.664   2.754
23991SOL     OW73811  12.435  12.512   1.709
23991SOL    HW173812  12.457  12.515   1.616
23991SOL    HW273813  12.369  12.442   1.716
23992SOL     OW73814  11.615  10.153   2.920
23992SOL    HW173815  11.639  10.239   2.955
23992SOL    HW273816  11.519  10.153   2.922
23993SOL     OW73817   5.044  11.821   8.455
23993SOL    HW173818   4.989  11.750   8.487
23993SOL    HW273819   5.045  11.885   8.526
23994SOL     OW73820  13.269   7.349  13.525
23994SOL    HW173821  13.210   7.423  13.512
23994SOL    HW273822  13.244   7.313  13.610
23995SOL     OW73823   2.717   3.059   6.134
23995SOL    HW173824   2.762   2.977   6.113
23995SOL    HW273825   2.625   3.036   6.139
23996SOL     OW73826  13.787  10.693   7.898
23996SOL    HW173827  13.862  10.669   7.843
23996SOL    HW273828  13.713  10.699   7.838
23997SOL     OW73829   8.283  14.330   4.083
23997SOL    HW173830   8.323  14.414   4.105
23997SOL    HW273831   8.323  14.268   4.145
23998SOL     OW73832  14.266  11.610  11.956
23998SOL    HW173833  14.348  11.651  11.928
23998SOL    HW273834  14.286  11.516  11.958
23999SOL     OW73835   3.894   3.754   9.585
23999SOL    HW173836   3.847   3.707   9.653
23999SOL    HW273837   3.950   3.815   9.632
24000SOL     OW73838   8.541  13.697  13.054
24000SOL    HW173839   8.446  13.687  13.048
24000SOL    HW273840   8.571  13.696  12.963
24001SOL     OW73841  12.362   9.922  10.361
24001SOL    HW173842  12.439   9.963  10.399
24001SOL    HW273843  12.395   9.875  10.285
24002SOL     OW73844   5.391  12.962  12.938
24002SOL    HW173845   5.419  12.882  12.896
24002SOL    HW273846   5.452  12.975  13.010
24003SOL     OW73847   1.517   1.647  10.125
24003SOL    HW173848   1.565   1.564  10.127
24003SOL    HW273849   1.577   1.707  10.081
24004SOL     OW73850   5.706  12.364   2.583
24004SOL    HW173851   5.759  12.398   2.510
24004SOL    HW273852   5.692  12.440   2.639
24005SOL     OW73853  12.783   4.600  10.011
24005SOL    HW173854  12.851   4.658  10.044
24005SOL    HW273855  12.706   4.656  10.002
24006SOL     OW73856   1.795   0.266   4.282
24006SOL    HW173857   1.846   0.343   4.257
24006SOL    HW273858   1.848   0.222   4.349
24007SOL     OW73859   5.062   5.454   7.888
24007SOL    HW173860   5.119   5.526   7.917
24007SOL    HW273861   5.112   5.412   7.817
24008SOL     OW73862   0.756  12.598   9.796
24008SOL    HW173863   0.833  12.547   9.821
24008SOL    HW273864   0.693  12.532   9.765
24009SOL     OW73865   1.643   5.552  13.386
24009SOL    HW173866   1.700   5.541  13.463
24009SOL    HW273867   1.702   5.579  13.316
24010SOL     OW73868  13.335   9.159  10.761
24010SOL    HW173869  13.335   9.152  10.666
24010SOL    HW273870  13.291   9.080  10.791
24011SOL     OW73871   9.123   9.185   5.554
24011SOL    HW173872   9.209   9.157   5.525
24011SOL    HW273873   9.109   9.139   5.637
24012SOL     OW73874  12.897  11.973   6.106
24012SOL    HW173875  12.955  11.984   6.030
24012SOL    HW273876  12.907  12.054   6.155
24013SOL     OW73877   1.803   0.208  13.783
24013SOL    HW173878   1.768   0.177  13.866
24013SOL    HW273879   1.810   0.303  13.794
24014SOL     OW73880  14.039   1.029  13.323
24014SOL    HW173881  13.957   1.007  13.278
24014SOL    HW273882  14.101   1.046  13.252
24015SOL     OW73883   4.460   9.726   3.279
24015SOL    HW173884   4.395   9.756   3.343
24015SOL    HW273885   4.408   9.698   3.203
24016SOL     OW73886   2.657   1.411  10.434
24016SOL    HW173887   2.580   1.359  10.412
24016SOL    HW273888   2.705   1.357  10.496
24017SOL     OW73889   5.277   4.154   3.979
24017SOL    HW173890   5.306   4.064   3.965
24017SOL    HW273891   5.214   4.147   4.051
24018SOL     OW73892   2.256   3.039   3.499
24018SOL    HW173893   2.189   3.089   3.544
24018SOL    HW273894   2.243   3.060   3.406
24019SOL     OW73895  11.864   5.037   7.556
24019SOL    HW173896  11.893   4.953   7.522
24019SOL    HW273897  11.910   5.102   7.502
24020SOL     OW73898   6.235   9.319   7.536
24020SOL    HW173899   6.174   9.252   7.505
24020SOL    HW273900   6.179   9.389   7.569
24021SOL     OW73901   8.122  12.064   6.235
24021SOL    HW173902   8.127  12.155   6.264
24021SOL    HW273903   8.028  12.044   6.231
24022SOL     OW73904   6.876   3.042   1.648
24022SOL    HW173905   6.809   3.046   1.716
24022SOL    HW273906   6.934   2.971   1.675
24023SOL     OW73907   2.925  14.139   4.827
24023SOL    HW173908   2.843  14.138   4.777
24023SOL    HW273909   2.991  14.167   4.764
24024SOL     OW73910   5.463   9.466   0.138
24024SOL    HW173911   5.511   9.418   0.205
24024SOL    HW273912   5.526   9.473   0.065
24025SOL     OW73913  13.106   4.599  10.393
24025SOL    HW173914  13.109   4.504  10.406
24025SOL    HW273915  13.174   4.633  10.451
24026SOL     OW73916   0.505  12.830   2.787
24026SOL    HW173917   0.545  12.899   2.734
24026SOL    HW273918   0.445  12.877   2.845
24027SOL     OW73919   3.739  13.534  12.621
24027SOL    HW173920   3.762  13.615  12.575
24027SOL    HW273921   3.724  13.471  12.551
24028SOL     OW73922  10.230  10.850   6.311
24028SOL    HW173923  10.239  10.945   6.320
24028SOL    HW273924  10.283  10.827   6.235
24029SOL     OW73925   5.950  13.268  14.815
24029SOL    HW173926   5.969  13.213   0.017
24029SOL    HW273927   5.943  13.357  14.850
24030SOL     OW73928   0.499  11.713   6.961
24030SOL    HW173929   0.530  11.801   6.982
24030SOL    HW273930   0.572  11.656   6.986
24031SOL     OW73931  14.271   8.292   7.329
24031SOL    HW173932  14.349   8.297   7.274
24031SOL    HW273933  14.266   8.377   7.372
24032SOL     OW73934  12.599  11.559   9.470
24032SOL    HW173935  12.522  11.502   9.459
24032SOL    HW273936  12.563  11.648   9.464
24033SOL     OW73937   1.965   3.120   1.503
24033SOL    HW173938   2.035   3.105   1.567
24033SOL    HW273939   2.011   3.154   1.426
24034SOL     OW73940  10.169   7.306   1.968
24034SOL    HW173941  10.145   7.359   1.892
24034SOL    HW273942  10.094   7.248   1.981
24035SOL     OW73943   1.572   0.098  10.990
24035SOL    HW173944   1.528   0.176  10.958
24035SOL    HW273945   1.640   0.080  10.924
24036SOL     OW73946  10.310   0.220  12.301
24036SOL    HW173947  10.233   0.209  12.356
24036SOL    HW273948  10.327   0.133  12.266
24037SOL     OW73949   9.204  12.209   6.703
24037SOL    HW173950   9.249  12.269   6.763
24037SOL    HW273951   9.272  12.181   6.642
24038SOL     OW73952  10.612   3.990   4.623
24038SOL    HW173953  10.560   3.996   4.703
24038SOL    HW273954  10.573   4.054   4.564
24039SOL     OW73955   7.000   1.187   0.095
24039SOL    HW173956   7.004   1.132   0.017
24039SOL    HW273957   7.052   1.264   0.073
24040SOL     OW73958   2.187   9.941   3.095
24040SOL    HW173959   2.217   9.926   3.005
24040SOL    HW273960   2.099   9.979   3.085
24041SOL     OW73961   8.636   9.206   8.296
24041SOL    HW173962   8.650   9.144   8.224
24041SOL    HW273963   8.571   9.162   8.352
24042SOL     OW73964   6.956   9.816   0.087
24042SOL    HW173965   6.963   9.846   0.178
24042SOL    HW273966   6.943   9.722   0.094
24043SOL     OW73967  10.666   3.995  11.030
24043SOL    HW173968  10.690   3.905  11.008
24043SOL    HW273969  10.728   4.019  11.099
24044SOL     OW73970   5.630   0.546   8.436
24044SOL    HW173971   5.552   0.556   8.380
24044SOL    HW273972   5.596   0.512   8.519
24045SOL     OW73973   5.201   4.130  14.622
24045SOL    HW173974   5.175   4.217  14.593
24045SOL    HW273975   5.148   4.070  14.568
24046SOL     OW73976   5.669  10.174  12.204
24046SOL    HW173977   5.655  10.080  12.218
24046SOL    HW273978   5.613  10.216  12.269
24047SOL     OW73979   5.740   7.448  14.837
24047SOL    HW173980   5.697   7.522   0.007
24047SOL    HW273981   5.671   7.383  14.825
24048SOL     OW73982   7.138  11.147   1.722
24048SOL    HW173983   7.122  11.193   1.639
24048SOL    HW273984   7.229  11.169   1.744
24049SOL     OW73985  11.148   5.217   0.949
24049SOL    HW173986  11.092   5.139   0.955
24049SOL    HW273987  11.237   5.184   0.963
24050SOL     OW73988  14.581  12.797   7.507
24050SOL    HW173989  14.618  12.752   7.582
24050SOL    HW273990  14.491  12.815   7.531
24051SOL     OW73991   1.827   5.369  10.006
24051SOL    HW173992   1.838   5.328  10.091
24051SOL    HW273993   1.913   5.408   9.987
24052SOL     OW73994   5.503   1.131   2.776
24052SOL    HW173995   5.464   1.137   2.688
24052SOL    HW273996   5.467   1.207   2.823
24053SOL     OW73997   9.710  11.715   0.391
24053SOL    HW173998   9.760  11.787   0.428
24053SOL    HW273999   9.620  11.748   0.388
24054SOL     OW74000  13.436   5.415   1.036
24054SOL    HW174001  13.452   5.354   0.965
24054SOL    HW274002  13.455   5.502   1.000
24055SOL     OW74003   7.652   5.049  11.947
24055SOL    HW174004   7.611   5.133  11.924
24055SOL    HW274005   7.615   4.987  11.884
24056SOL     OW74006   5.219  11.801  10.368
24056SOL    HW174007   5.129  11.776  10.348
24056SOL    HW274008   5.272  11.741  10.315
24057SOL     OW74009   4.664  10.203   8.102
24057SOL    HW174010   4.604  10.239   8.036
24057SOL    HW274011   4.646  10.109   8.101
24058SOL     OW74012  12.550   5.520   7.300
24058SOL    HW174013  12.521   5.429   7.298
24058SOL    HW274014  12.557   5.541   7.393
24059SOL     OW74015  14.443  10.796   2.371
24059SOL    HW174016  14.391  10.810   2.292
24059SOL    HW274017  14.496  10.876   2.379
24060SOL     OW74018   8.980   1.335  12.978
24060SOL    HW174019   8.943   1.398  12.916
24060SOL    HW274020   9.056   1.298  12.933
24061SOL     OW74021  10.386  13.349  10.874
24061SOL    HW174022  10.359  13.440  10.860
24061SOL    HW274023  10.358  13.330  10.964
24062SOL     OW74024  14.311   9.470  11.372
24062SOL    HW174025  14.276   9.455  11.284
24062SOL    HW274026  14.346   9.559  11.369
24063SOL     OW74027   2.255   9.325   5.550
24063SOL    HW174028   2.309   9.257   5.509
24063SOL    HW274029   2.167   9.289   5.550
24064SOL     OW74030   0.234   5.816  12.160
24064SOL    HW174031   0.258   5.902  12.194
24064SOL    HW274032   0.140   5.821  12.144
24065SOL     OW74033   1.608  11.126   2.515
24065SOL    HW174034   1.595  11.215   2.483
24065SOL    HW274035   1.535  11.076   2.480
24066SOL     OW74036   6.991   6.391  11.495
24066SOL    HW174037   7.029   6.306  11.519
24066SOL    HW274038   7.022   6.406  11.406
24067SOL     OW74039  13.545  11.222   5.525
24067SOL    HW174040  13.534  11.141   5.576
24067SOL    HW274041  13.506  11.290   5.580
24068SOL     OW74042   4.838  13.701   3.986
24068SOL    HW174043   4.878  13.787   3.978
24068SOL    HW274044   4.759  13.716   4.037
24069SOL     OW74045  12.760   5.955   7.354
24069SOL    HW174046  12.671   5.981   7.378
24069SOL    HW274047  12.771   5.869   7.394
24070SOL     OW74048  10.399   7.558  12.905
24070SOL    HW174049  10.411   7.479  12.957
24070SOL    HW274050  10.334   7.610  12.953
24071SOL     OW74051  14.015   4.664   7.518
24071SOL    HW174052  14.032   4.597   7.452
24071SOL    HW274053  14.074   4.736   7.495
24072SOL     OW74054   5.471   9.233  11.003
24072SOL    HW174055   5.387   9.189  11.013
24072SOL    HW274056   5.501   9.207  10.916
24073SOL     OW74057   2.440   3.191   2.341
24073SOL    HW174058   2.529   3.189   2.376
24073SOL    HW274059   2.384   3.168   2.416
24074SOL     OW74060   0.591   1.761   6.522
24074SOL    HW174061   0.666   1.814   6.495
24074SOL    HW274062   0.624   1.706   6.593
24075SOL     OW74063   2.577   9.290   2.058
24075SOL    HW174064   2.574   9.201   2.095
24075SOL    HW274065   2.650   9.332   2.103
24076SOL     OW74066  10.504  10.489   9.624
24076SOL    HW174067  10.436  10.504   9.689
24076SOL    HW274068  10.459  10.495   9.540
24077SOL     OW74069   4.979   2.723   2.619
24077SOL    HW174070   5.010   2.763   2.538
24077SOL    HW274071   4.936   2.794   2.667
24078SOL     OW74072  10.756   5.761   4.479
24078SOL    HW174073  10.827   5.773   4.542
24078SOL    HW274074  10.694   5.832   4.500
24079SOL     OW74075   2.290   3.147  10.031
24079SOL    HW174076   2.321   3.116  10.115
24079SOL    HW274077   2.346   3.103   9.967
24080SOL     OW74078   1.605   3.199   4.411
24080SOL    HW174079   1.599   3.294   4.404
24080SOL    HW274080   1.659   3.173   4.336
24081SOL     OW74081   2.734   3.948   6.915
24081SOL    HW174082   2.808   3.969   6.971
24081SOL    HW274083   2.709   4.032   6.877
24082SOL     OW74084   7.875   1.382   2.876
24082SOL    HW174085   7.861   1.299   2.921
24082SOL    HW274086   7.834   1.370   2.790
24083SOL     OW74087   5.832   9.629   5.526
24083SOL    HW174088   5.837   9.634   5.430
24083SOL    HW274089   5.847   9.719   5.555
24084SOL     OW74090  10.900   7.588   1.199
24084SOL    HW174091  10.814   7.565   1.164
24084SOL    HW274092  10.901   7.684   1.199
24085SOL     OW74093  11.197   1.857  14.871
24085SOL    HW174094  11.189   1.924   0.065
24085SOL    HW274095  11.204   1.775   0.046
24086SOL     OW74096   1.142  12.024   4.492
24086SOL    HW174097   1.047  12.021   4.480
24086SOL    HW274098   1.172  11.938   4.463
24087SOL     OW74099   7.658   1.726   2.917
24087SOL    HW174100   7.585   1.751   2.861
24087SOL    HW274101   7.620   1.663   2.978
24088SOL     OW74102   6.534  13.147   1.049
24088SOL    HW174103   6.579  13.198   0.982
24088SOL    HW274104   6.604  13.101   1.096
24089SOL     OW74105   1.009   6.383  13.441
24089SOL    HW174106   0.992   6.467  13.398
24089SOL    HW274107   1.083   6.401  13.500
24090SOL     OW74108   5.947   7.708   0.687
24090SOL    HW174109   5.963   7.699   0.781
24090SOL    HW274110   5.981   7.794   0.665
24091SOL     OW74111   6.643  11.563  10.789
24091SOL    HW174112   6.671  11.472  10.773
24091SOL    HW274113   6.547  11.558  10.789
24092SOL     OW74114   5.372   7.414  13.711
24092SOL    HW174115   5.288   7.450  13.682
24092SOL    HW274116   5.399   7.470  13.784
24093SOL     OW74117   7.215   3.627  13.661
24093SOL    HW174118   7.259   3.702  13.702
24093SOL    HW274119   7.163   3.589  13.732
24094SOL     OW74120  13.321   0.561   0.139
24094SOL    HW174121  13.323   0.600   0.226
24094SOL    HW274122  13.231   0.531   0.128
24095SOL     OW74123   2.624   3.420   3.612
24095SOL    HW174124   2.547   3.392   3.661
24095SOL    HW274125   2.688   3.443   3.678
24096SOL     OW74126   0.936  13.324   4.364
24096SOL    HW174127   0.841  13.322   4.351
24096SOL    HW274128   0.956  13.415   4.384
24097SOL     OW74129   8.488  10.249   7.680
24097SOL    HW174130   8.451  10.290   7.602
24097SOL    HW274131   8.413  10.214   7.727
24098SOL     OW74132  13.924   1.872   9.127
24098SOL    HW174133  13.852   1.920   9.085
24098SOL    HW274134  13.947   1.925   9.203
24099SOL     OW74135   2.283   4.625   2.372
24099SOL    HW174136   2.274   4.675   2.290
24099SOL    HW274137   2.200   4.578   2.380
24100SOL     OW74138  11.855   4.722   9.571
24100SOL    HW174139  11.917   4.793   9.554
24100SOL    HW274140  11.769   4.763   9.568
24101SOL     OW74141   5.644  14.360   5.788
24101SOL    HW174142   5.653  14.345   5.694
24101SOL    HW274143   5.551  14.379   5.801
24102SOL     OW74144   4.539   6.616   6.939
24102SOL    HW174145   4.601   6.603   6.868
24102SOL    HW274146   4.469   6.669   6.901
24103SOL     OW74147   2.523   1.023  11.389
24103SOL    HW174148   2.454   1.052  11.449
24103SOL    HW274149   2.603   1.028  11.441
24104SOL     OW74150   3.831   9.738   8.430
24104SOL    HW174151   3.835   9.678   8.356
24104SOL    HW274152   3.919   9.773   8.438
24105SOL     OW74153   1.283   1.880  13.304
24105SOL    HW174154   1.336   1.851  13.229
24105SOL    HW274155   1.291   1.975  13.304
24106SOL     OW74156   2.127   4.307   8.839
24106SOL    HW174157   2.188   4.329   8.910
24106SOL    HW274158   2.043   4.341   8.868
24107SOL     OW74159   4.381   2.963   1.135
24107SOL    HW174160   4.388   3.038   1.194
24107SOL    HW274161   4.298   2.921   1.160
24108SOL     OW74162   7.801   1.554   5.899
24108SOL    HW174163   7.783   1.582   5.989
24108SOL    HW274164   7.867   1.616   5.867
24109SOL     OW74165  13.655  11.327   2.923
24109SOL    HW174166  13.617  11.411   2.945
24109SOL    HW274167  13.585  11.280   2.878
24110SOL     OW74168  10.225   7.810  11.564
24110SOL    HW174169  10.186   7.778  11.483
24110SOL    HW274170  10.318   7.789  11.557
24111SOL     OW74171  11.573  13.284  11.440
24111SOL    HW174172  11.606  13.196  11.456
24111SOL    HW274173  11.603  13.305  11.351
24112SOL     OW74174  13.950   0.548  14.465
24112SOL    HW174175  13.873   0.541  14.408
24112SOL    HW274176  14.023   0.562  14.405
24113SOL     OW74177   3.749   8.907   4.491
24113SOL    HW174178   3.794   8.948   4.566
24113SOL    HW274179   3.660   8.893   4.522
24114SOL     OW74180  12.432  12.609   0.069
24114SOL    HW174181  12.373  12.560   0.012
24114SOL    HW274182  12.428  12.564   0.153
24115SOL     OW74183   2.976   2.319   2.596
24115SOL    HW174184   3.031   2.332   2.518
24115SOL    HW274185   3.010   2.383   2.659
24116SOL     OW74186   2.204  14.277  13.865
24116SOL    HW174187   2.228  14.361  13.903
24116SOL    HW274188   2.278  14.220  13.884
24117SOL     OW74189  14.504   6.923  12.008
24117SOL    HW174190  14.533   7.000  11.959
24117SOL    HW274191  14.506   6.851  11.944
24118SOL     OW74192  12.156   7.731   1.251
24118SOL    HW174193  12.118   7.690   1.329
24118SOL    HW274194  12.126   7.677   1.178
24119SOL     OW74195   9.944   4.653  13.115
24119SOL    HW174196   9.894   4.615  13.042
24119SOL    HW274197   9.949   4.584  13.180
24120SOL     OW74198  11.482   7.927   3.132
24120SOL    HW174199  11.388   7.942   3.144
24120SOL    HW274200  11.493   7.834   3.148
24121SOL     OW74201  14.333   9.239  11.524
24121SOL    HW174202  14.392   9.265  11.595
24121SOL    HW274203  14.332   9.314  11.465
24122SOL     OW74204   9.236   0.808   4.774
24122SOL    HW174205   9.283   0.726   4.788
24122SOL    HW274206   9.220   0.843   4.861
24123SOL     OW74207  14.835   9.542   6.851
24123SOL    HW174208  14.860   9.626   6.890
24123SOL    HW274209  14.756   9.516   6.898
24124SOL     OW74210   9.561   6.269   0.680
24124SOL    HW174211   9.467   6.264   0.665
24124SOL    HW274212   9.600   6.277   0.593
24125SOL     OW74213   5.442  11.850   3.223
24125SOL    HW174214   5.457  11.874   3.314
24125SOL    HW274215   5.522  11.806   3.196
24126SOL     OW74216   0.691   6.511  10.634
24126SOL    HW174217   0.760   6.447  10.653
24126SOL    HW274218   0.644   6.519  10.717
24127SOL     OW74219   6.647   9.235   4.490
24127SOL    HW174220   6.729   9.192   4.512
24127SOL    HW274221   6.584   9.163   4.478
24128SOL     OW74222   4.652  11.997   6.682
24128SOL    HW174223   4.726  12.051   6.711
24128SOL    HW274224   4.579  12.058   6.674
24129SOL     OW74225   2.437   8.121   8.012
24129SOL    HW174226   2.356   8.090   7.971
24129SOL    HW274227   2.460   8.200   7.963
24130SOL     OW74228  10.340  10.394   8.591
24130SOL    HW174229  10.269  10.452   8.565
24130SOL    HW274230  10.312  10.357   8.674
24131SOL     OW74231   2.596   0.136  10.092
24131SOL    HW174232   2.541   0.143  10.170
24131SOL    HW274233   2.574   0.214  10.040
24132SOL     OW74234   7.598   4.895  13.848
24132SOL    HW174235   7.613   4.801  13.857
24132SOL    HW274236   7.685   4.933  13.846
24133SOL     OW74237   1.639   3.079   2.254
24133SOL    HW174238   1.725   3.053   2.222
24133SOL    HW274239   1.655   3.159   2.304
24134SOL     OW74240   3.169   0.016   6.430
24134SOL    HW174241   3.239   0.009   6.365
24134SOL    HW274242   3.090  14.862   6.383
24135SOL     OW74243  11.699   0.508   5.990
24135SOL    HW174244  11.633   0.451   5.949
24135SOL    HW274245  11.655   0.593   5.997
24136SOL     OW74246   3.545   6.849   9.832
24136SOL    HW174247   3.588   6.764   9.821
24136SOL    HW274248   3.590   6.889   9.906
24137SOL     OW74249   4.115   2.694   6.036
24137SOL    HW174250   4.148   2.604   6.042
24137SOL    HW274251   4.041   2.697   6.097
24138SOL     OW74252   9.637   9.219   2.350
24138SOL    HW174253   9.702   9.266   2.402
24138SOL    HW274254   9.605   9.283   2.287
24139SOL     OW74255   7.139  12.659   9.981
24139SOL    HW174256   7.227  12.694   9.994
24139SOL    HW274257   7.091  12.730   9.939
24140SOL     OW74258  10.872  14.055   3.814
24140SOL    HW174259  10.934  14.112   3.769
24140SOL    HW274260  10.927  14.002   3.873
24141SOL     OW74261   5.550  12.683  14.809
24141SOL    HW174262   5.517  12.606  14.764
24141SOL    HW274263   5.609  12.648   0.002
24142SOL     OW74264   3.322   9.416   5.657
24142SOL    HW174265   3.335   9.328   5.620
24142SOL    HW274266   3.340   9.406   5.750
24143SOL     OW74267  11.868   8.294  14.711
24143SOL    HW174268  11.907   8.208  14.700
24143SOL    HW274269  11.916   8.333  14.785
24144SOL     OW74270   7.539   8.333   6.105
24144SOL    HW174271   7.601   8.375   6.164
24144SOL    HW274272   7.547   8.240   6.125
24145SOL     OW74273   4.342   1.614   7.874
24145SOL    HW174274   4.304   1.545   7.820
24145SOL    HW274275   4.299   1.605   7.958
24146SOL     OW74276  13.458   0.091   5.368
24146SOL    HW174277  13.501   0.044   5.297
24146SOL    HW274278  13.520   0.158   5.395
24147SOL     OW74279  10.471   8.767  12.209
24147SOL    HW174280  10.565   8.757  12.225
24147SOL    HW274281  10.444   8.684  12.171
24148SOL     OW74282   8.059   4.574   8.656
24148SOL    HW174283   8.131   4.511   8.651
24148SOL    HW274284   8.018   4.570   8.569
24149SOL     OW74285   8.028   9.887   8.426
24149SOL    HW174286   7.958   9.928   8.376
24149SOL    HW274287   7.997   9.886   8.516
24150SOL     OW74288   9.078   9.884  14.585
24150SOL    HW174289   9.054   9.925  14.668
24150SOL    HW274290   9.026   9.803  14.583
24151SOL     OW74291  11.628  11.693  13.689
24151SOL    HW174292  11.640  11.665  13.598
24151SOL    HW274293  11.696  11.760  13.702
24152SOL     OW74294   6.677  12.499   3.052
24152SOL    HW174295   6.768  12.515   3.023
24152SOL    HW274296   6.653  12.417   3.010
24153SOL     OW74297   4.535   4.162   7.125
24153SOL    HW174298   4.605   4.192   7.067
24153SOL    HW274299   4.552   4.205   7.208
24154SOL     OW74300   3.148  14.119   8.863
24154SOL    HW174301   3.125  14.036   8.906
24154SOL    HW274302   3.071  14.140   8.810
24155SOL     OW74303   1.280  10.667   8.720
24155SOL    HW174304   1.352  10.684   8.659
24155SOL    HW274305   1.321  10.669   8.806
24156SOL     OW74306  12.365   6.885  13.473
24156SOL    HW174307  12.409   6.801  13.459
24156SOL    HW274308  12.330   6.879  13.562
24157SOL     OW74309   7.021  11.796  11.876
24157SOL    HW174310   7.092  11.786  11.812
24157SOL    HW274311   7.064  11.831  11.954
24158SOL     OW74312  10.368   6.794   8.474
24158SOL    HW174313  10.367   6.786   8.379
24158SOL    HW274314  10.290   6.845   8.495
24159SOL     OW74315   6.489   5.210  11.925
24159SOL    HW174316   6.436   5.213  12.005
24159SOL    HW274317   6.472   5.122  11.889
24160SOL     OW74318   4.484   6.711   3.369
24160SOL    HW174319   4.413   6.740   3.426
24160SOL    HW274320   4.515   6.629   3.409
24161SOL     OW74321   3.971  14.663   5.140
24161SOL    HW174322   3.998  14.622   5.058
24161SOL    HW274323   3.912  14.599   5.180
24162SOL     OW74324   1.031   0.131   0.373
24162SOL    HW174325   0.954   0.092   0.330
24162SOL    HW274326   1.052   0.207   0.320
24163SOL     OW74327   1.260   1.016  13.753
24163SOL    HW174328   1.190   1.069  13.717
24163SOL    HW274329   1.276   1.053  13.840
24164SOL     OW74330   2.490   1.552   2.367
24164SOL    HW174331   2.514   1.498   2.291
24164SOL    HW274332   2.570   1.598   2.391
24165SOL     OW74333   9.549  13.903  10.401
24165SOL    HW174334   9.523  13.933  10.314
24165SOL    HW274335   9.468  13.900  10.451
24166SOL     OW74336   0.566   3.738   6.956
24166SOL    HW174337   0.552   3.673   7.025
24166SOL    HW274338   0.660   3.734   6.938
24167SOL     OW74339   1.019   9.115   3.255
24167SOL    HW174340   0.979   9.034   3.221
24167SOL    HW274341   1.069   9.086   3.332
24168SOL     OW74342   9.340  14.094   8.463
24168SOL    HW174343   9.348  14.190   8.456
24168SOL    HW274344   9.251  14.076   8.432
24169SOL     OW74345   6.096   6.287  13.024
24169SOL    HW174346   6.135   6.334  12.950
24169SOL    HW274347   6.134   6.199  13.019
24170SOL     OW74348   8.075   3.600  14.687
24170SOL    HW174349   8.137   3.594  14.759
24170SOL    HW274350   8.100   3.528  14.628
24171SOL     OW74351   9.140   8.438   8.526
24171SOL    HW174352   9.135   8.477   8.438
24171SOL    HW274353   9.142   8.344   8.510
24172SOL     OW74354   9.882   0.191  11.735
24172SOL    HW174355   9.795   0.169  11.703
24172SOL    HW274356   9.902   0.122  11.799
24173SOL     OW74357   0.322  13.761   7.451
24173SOL    HW174358   0.315  13.842   7.400
24173SOL    HW274359   0.417  13.748   7.460
24174SOL     OW74360   2.116   7.659  12.855
24174SOL    HW174361   2.169   7.732  12.887
24174SOL    HW274362   2.074   7.692  12.776
24175SOL     OW74363   1.233  10.803   4.670
24175SOL    HW174364   1.202  10.868   4.606
24175SOL    HW274365   1.269  10.856   4.741
24176SOL     OW74366   2.527   5.015   8.500
24176SOL    HW174367   2.455   4.972   8.454
24176SOL    HW274368   2.514   5.108   8.484
24177SOL     OW74369   3.041   0.272   7.264
24177SOL    HW174370   3.120   0.243   7.219
24177SOL    HW274371   2.978   0.201   7.250
24178SOL     OW74372   1.843  10.491  13.715
24178SOL    HW174373   1.888  10.411  13.743
24178SOL    HW274374   1.873  10.558  13.776
24179SOL     OW74375   0.725   1.378  14.450
24179SOL    HW174376   0.817   1.392  14.472
24179SOL    HW274377   0.677   1.404  14.528
24180SOL     OW74378  11.212   2.333   2.960
24180SOL    HW174379  11.161   2.256   2.935
24180SOL    HW274380  11.157   2.407   2.934
24181SOL     OW74381   8.635   2.163   7.971
24181SOL    HW174382   8.730   2.167   7.975
24181SOL    HW274383   8.615   2.081   7.928
24182SOL     OW74384  11.763   4.110   8.872
24182SOL    HW174385  11.735   4.070   8.789
24182SOL    HW274386  11.779   4.035   8.930
24183SOL     OW74387   4.726   6.982   8.305
24183SOL    HW174388   4.679   6.912   8.350
24183SOL    HW274389   4.814   6.948   8.292
24184SOL     OW74390   3.167   0.230  13.104
24184SOL    HW174391   3.121   0.154  13.068
24184SOL    HW274392   3.236   0.192  13.159
24185SOL     OW74393   3.734   7.266  10.705
24185SOL    HW174394   3.726   7.359  10.688
24185SOL    HW274395   3.729   7.258  10.800
24186SOL     OW74396  12.640  14.495   8.038
24186SOL    HW174397  12.659  14.588   8.033
24186SOL    HW274398  12.722  14.452   8.012
24187SOL     OW74399   2.005   3.721   4.401
24187SOL    HW174400   1.975   3.781   4.469
24187SOL    HW274401   2.011   3.636   4.444
24188SOL     OW74402   7.228  13.566  12.532
24188SOL    HW174403   7.145  13.599  12.497
24188SOL    HW274404   7.253  13.496  12.472
24189SOL     OW74405   2.831  14.235   8.194
24189SOL    HW174406   2.757  14.294   8.209
24189SOL    HW274407   2.907  14.293   8.188
24190SOL     OW74408  12.098   6.553  12.176
24190SOL    HW174409  12.181   6.512  12.150
24190SOL    HW274410  12.045   6.481  12.210
24191SOL     OW74411   5.608  13.886  11.350
24191SOL    HW174412   5.704  13.890  11.348
24191SOL    HW274413   5.580  13.944  11.280
24192SOL     OW74414   6.778   5.235  12.254
24192SOL    HW174415   6.722   5.259  12.328
24192SOL    HW274416   6.757   5.143  12.238
24193SOL     OW74417  13.764   6.316  13.566
24193SOL    HW174418  13.847   6.311  13.519
24193SOL    HW274419  13.703   6.266  13.511
24194SOL     OW74420  14.244  12.611  13.372
24194SOL    HW174421  14.165  12.656  13.343
24194SOL    HW274422  14.310  12.679  13.379
24195SOL     OW74423   3.809   8.512   5.232
24195SOL    HW174424   3.721   8.495   5.197
24195SOL    HW274425   3.813   8.608   5.239
24196SOL     OW74426   8.650   5.075   7.782
24196SOL    HW174427   8.563   5.058   7.744
24196SOL    HW274428   8.653   5.022   7.861
24197SOL     OW74429  11.500   8.351   7.427
24197SOL    HW174430  11.445   8.322   7.500
24197SOL    HW274431  11.466   8.438   7.405
24198SOL     OW74432   0.610  10.079   9.563
24198SOL    HW174433   0.533  10.133   9.577
24198SOL    HW274434   0.580  10.007   9.508
24199SOL     OW74435   8.147  10.819   6.726
24199SOL    HW174436   8.226  10.828   6.672
24199SOL    HW274437   8.100  10.902   6.713
24200SOL     OW74438   8.135   2.318   7.763
24200SOL    HW174439   8.174   2.334   7.849
24200SOL    HW274440   8.101   2.229   7.768
24201SOL     OW74441   8.461   2.232   0.342
24201SOL    HW174442   8.403   2.273   0.278
24201SOL    HW274443   8.475   2.144   0.308
24202SOL     OW74444   0.640  11.369   4.719
24202SOL    HW174445   0.597  11.299   4.767
24202SOL    HW274446   0.618  11.449   4.768
24203SOL     OW74447  14.549  13.450   6.686
24203SOL    HW174448  14.530  13.532   6.642
24203SOL    HW274449  14.601  13.400   6.623
24204SOL     OW74450  13.909   8.854   0.125
24204SOL    HW174451  13.971   8.925   0.141
24204SOL    HW274452  13.823   8.896   0.129
24205SOL     OW74453   5.155  10.475   5.491
24205SOL    HW174454   5.162  10.497   5.398
24205SOL    HW274455   5.198  10.390   5.499
24206SOL     OW74456   1.472   8.261   0.578
24206SOL    HW174457   1.397   8.310   0.611
24206SOL    HW274458   1.547   8.320   0.591
24207SOL     OW74459   8.227   1.897   6.220
24207SOL    HW174460   8.309   1.915   6.266
24207SOL    HW274461   8.173   1.851   6.284
24208SOL     OW74462  10.829   4.937   9.990
24208SOL    HW174463  10.798   4.866  10.046
24208SOL    HW274464  10.780   4.927   9.908
24209SOL     OW74465   3.030   2.854   9.120
24209SOL    HW174466   2.945   2.844   9.163
24209SOL    HW274467   3.083   2.783   9.157
24210SOL     OW74468  10.667   2.644  11.724
24210SOL    HW174469  10.611   2.704  11.675
24210SOL    HW274470  10.725   2.606  11.658
24211SOL     OW74471   4.646  12.840  13.471
24211SOL    HW174472   4.640  12.933  13.491
24211SOL    HW274473   4.624  12.797  13.554
24212SOL     OW74474   8.802   5.259   4.710
24212SOL    HW174475   8.719   5.307   4.702
24212SOL    HW274476   8.807   5.206   4.630
24213SOL     OW74477   1.562   4.914   7.396
24213SOL    HW174478   1.586   4.912   7.489
24213SOL    HW274479   1.605   4.837   7.359
24214SOL     OW74480   1.203   3.408   0.205
24214SOL    HW174481   1.115   3.444   0.198
24214SOL    HW274482   1.243   3.426   0.120
24215SOL     OW74483   0.602   8.040   5.086
24215SOL    HW174484   0.676   7.989   5.118
24215SOL    HW274485   0.628   8.068   4.999
24216SOL     OW74486   6.432   3.946   1.654
24216SOL    HW174487   6.468   3.990   1.578
24216SOL    HW274488   6.366   3.887   1.618
24217SOL     OW74489  11.288   9.865   4.779
24217SOL    HW174490  11.273   9.954   4.810
24217SOL    HW274491  11.237   9.859   4.698
24218SOL     OW74492   0.488   8.120   1.647
24218SOL    HW174493   0.549   8.111   1.720
24218SOL    HW274494   0.479   8.031   1.613
24219SOL     OW74495   1.129   1.958   2.427
24219SOL    HW174496   1.073   2.032   2.406
24219SOL    HW274497   1.212   1.997   2.453
24220SOL     OW74498   3.725   9.319   1.328
24220SOL    HW174499   3.723   9.406   1.288
24220SOL    HW274500   3.733   9.335   1.422
24221SOL     OW74501  12.727  12.075  10.544
24221SOL    HW174502  12.660  12.133  10.507
24221SOL    HW274503  12.770  12.128  10.611
24222SOL     OW74504  12.671   3.309   5.600
24222SOL    HW174505  12.609   3.249   5.559
24222SOL    HW274506  12.690   3.374   5.532
24223SOL     OW74507   7.701  12.677   1.527
24223SOL    HW174508   7.719  12.697   1.619
24223SOL    HW274509   7.606  12.667   1.523
24224SOL     OW74510   5.496  11.216   1.266
24224SOL    HW174511   5.578  11.241   1.307
24224SOL    HW274512   5.517  11.135   1.219
24225SOL     OW74513   5.053   6.642  14.286
24225SOL    HW174514   5.000   6.563  14.298
24225SOL    HW274515   5.045   6.662  14.192
24226SOL     OW74516  10.512   5.114   7.558
24226SOL    HW174517  10.494   5.109   7.652
24226SOL    HW274518  10.561   5.196   7.548
24227SOL     OW74519   1.541   9.193   4.748
24227SOL    HW174520   1.626   9.197   4.794
24227SOL    HW274521   1.544   9.266   4.686
24228SOL     OW74522   6.125   3.270   9.740
24228SOL    HW174523   6.066   3.345   9.749
24228SOL    HW274524   6.069   3.193   9.747
24229SOL     OW74525  13.901  12.634   9.468
24229SOL    HW174526  13.971  12.605   9.526
24229SOL    HW274527  13.880  12.723   9.498
24230SOL     OW74528   2.976  10.639   6.070
24230SOL    HW174529   2.951  10.710   6.011
24230SOL    HW274530   2.905  10.635   6.134
24231SOL     OW74531   9.113  11.435   8.999
24231SOL    HW174532   9.037  11.448   9.055
24231SOL    HW274533   9.188  11.448   9.057
24232SOL     OW74534  13.137  13.072   3.633
24232SOL    HW174535  13.071  13.127   3.675
24232SOL    HW274536  13.159  13.007   3.700
24233SOL     OW74537   2.941  13.917   4.483
24233SOL    HW174538   2.909  13.915   4.573
24233SOL    HW274539   2.995  13.839   4.474
24234SOL     OW74540  11.252   8.304  10.060
24234SOL    HW174541  11.298   8.305  10.144
24234SOL    HW274542  11.239   8.396  10.039
24235SOL     OW74543   1.814   7.633   8.213
24235SOL    HW174544   1.901   7.594   8.214
24235SOL    HW274545   1.817   7.700   8.281
24236SOL     OW74546  11.911  14.098   2.063
24236SOL    HW174547  11.878  14.060   1.983
24236SOL    HW274548  11.889  14.035   2.131
24237SOL     OW74549   5.833   6.632   0.545
24237SOL    HW174550   5.887   6.664   0.617
24237SOL    HW274551   5.750   6.678   0.555
24238SOL     OW74552  14.208   3.237   9.156
24238SOL    HW174553  14.168   3.187   9.227
24238SOL    HW274554  14.301   3.238   9.177
24239SOL     OW74555  10.375   6.560   5.621
24239SOL    HW174556  10.307   6.598   5.565
24239SOL    HW274557  10.329   6.533   5.700
24240SOL     OW74558   0.495   8.993   4.069
24240SOL    HW174559   0.538   8.964   4.149
24240SOL    HW274560   0.503   8.918   4.009
24241SOL     OW74561   6.959   3.533   8.974
24241SOL    HW174562   6.870   3.512   8.946
24241SOL    HW274563   7.011   3.457   8.946
24242SOL     OW74564   0.535   3.515   4.573
24242SOL    HW174565   0.603   3.540   4.635
24242SOL    HW274566   0.569   3.437   4.529
24243SOL     OW74567   6.508   0.263  11.957
24243SOL    HW174568   6.530   0.185  12.009
24243SOL    HW274569   6.544   0.244  11.870
24244SOL     OW74570   7.871   5.072   6.917
24244SOL    HW174571   7.793   5.050   6.866
24244SOL    HW274572   7.853   5.160   6.951
24245SOL     OW74573   1.701  13.686   8.319
24245SOL    HW174574   1.716  13.690   8.225
24245SOL    HW274575   1.639  13.614   8.331
24246SOL     OW74576   5.417   9.286   2.509
24246SOL    HW174577   5.457   9.312   2.592
24246SOL    HW274578   5.351   9.222   2.535
24247SOL     OW74579  13.693   2.671  14.374
24247SOL    HW174580  13.654   2.755  14.352
24247SOL    HW274581  13.649   2.644  14.455
24248SOL     OW74582  14.403  13.959   7.402
24248SOL    HW174583  14.464  13.892   7.372
24248SOL    HW274584  14.327  13.910   7.435
24249SOL     OW74585  12.299   4.046   9.824
24249SOL    HW174586  12.393   4.054   9.814
24249SOL    HW274587  12.288   3.990   9.901
24250SOL     OW74588   3.202  13.036   5.644
24250SOL    HW174589   3.273  13.093   5.614
24250SOL    HW274590   3.132  13.049   5.580
24251SOL     OW74591  11.500   2.838   1.755
24251SOL    HW174592  11.418   2.793   1.775
24251SOL    HW274593  11.552   2.831   1.835
24252SOL     OW74594  12.091   3.692   2.833
24252SOL    HW174595  12.121   3.728   2.916
24252SOL    HW274596  12.170   3.689   2.778
24253SOL     OW74597  14.330  10.164   9.056
24253SOL    HW174598  14.366  10.154   9.144
24253SOL    HW274599  14.405  10.191   9.003
24254SOL     OW74600  14.610   5.956  11.136
24254SOL    HW174601  14.568   6.014  11.199
24254SOL    HW274602  14.543   5.939  11.070
24255SOL     OW74603   6.358  13.796  12.622
24255SOL    HW174604   6.367  13.874  12.567
24255SOL    HW274605   6.432  13.801  12.683
24256SOL     OW74606   1.167   9.520  11.368
24256SOL    HW174607   1.205   9.528  11.455
24256SOL    HW274608   1.236   9.479  11.315
24257SOL     OW74609  14.066   1.245   7.947
24257SOL    HW174610  14.059   1.158   7.908
24257SOL    HW274611  14.087   1.229   8.039
24258SOL     OW74612   6.139   4.118  11.515
24258SOL    HW174613   6.073   4.051  11.497
24258SOL    HW274614   6.170   4.146  11.429
24259SOL     OW74615   7.897   5.435   3.806
24259SOL    HW174616   7.832   5.375   3.770
24259SOL    HW274617   7.955   5.455   3.733
24260SOL     OW74618   4.809   2.545  12.003
24260SOL    HW174619   4.869   2.475  12.029
24260SOL    HW274620   4.841   2.622  12.050
24261SOL     OW74621  12.399  10.547  11.114
24261SOL    HW174622  12.385  10.639  11.138
24261SOL    HW274623  12.344  10.498  11.174
24262SOL     OW74624   3.555  12.598   9.914
24262SOL    HW174625   3.640  12.626   9.951
24262SOL    HW274626   3.562  12.503   9.909
24263SOL     OW74627   0.206  12.547  14.734
24263SOL    HW174628   0.290  12.502  14.740
24263SOL    HW274629   0.222  12.634  14.771
24264SOL     OW74630   1.508  12.982  10.193
24264SOL    HW174631   1.465  13.067  10.186
24264SOL    HW274632   1.525  12.970  10.286
24265SOL     OW74633   3.634   8.155  10.067
24265SOL    HW174634   3.587   8.154  10.150
24265SOL    HW274635   3.582   8.101  10.008
24266SOL     OW74636  10.005   0.138   4.797
24266SOL    HW174637   9.947   0.166   4.868
24266SOL    HW274638   9.972   0.184   4.720
24267SOL     OW74639   4.052  11.145   5.199
24267SOL    HW174640   4.081  11.217   5.254
24267SOL    HW274641   4.128  11.124   5.145
24268SOL     OW74642   1.597   6.863   7.309
24268SOL    HW174643   1.524   6.874   7.248
24268SOL    HW274644   1.598   6.769   7.328
24269SOL     OW74645   6.770   4.304  14.293
24269SOL    HW174646   6.820   4.281  14.371
24269SOL    HW274647   6.835   4.337  14.231
24270SOL     OW74648   1.164   9.452   3.079
24270SOL    HW174649   1.169   9.360   3.055
24270SOL    HW274650   1.199   9.498   3.002
24271SOL     OW74651   3.101   7.477   2.745
24271SOL    HW174652   3.172   7.531   2.710
24271SOL    HW274653   3.138   7.389   2.750
24272SOL     OW74654   0.783   4.462   0.892
24272SOL    HW174655   0.807   4.469   0.984
24272SOL    HW274656   0.804   4.372   0.869
24273SOL     OW74657   9.543   4.201  14.283
24273SOL    HW174658   9.607   4.188  14.353
24273SOL    HW274659   9.585   4.165  14.205
24274SOL     OW74660   5.441  10.885  13.361
24274SOL    HW174661   5.502  10.859  13.430
24274SOL    HW274662   5.440  10.980  13.364
24275SOL     OW74663   5.506   9.695   5.886
24275SOL    HW174664   5.596   9.671   5.906
24275SOL    HW274665   5.471   9.621   5.837
24276SOL     OW74666  11.338   7.359   1.039
24276SOL    HW174667  11.419   7.357   1.090
24276SOL    HW274668  11.313   7.267   1.031
24277SOL     OW74669   9.581   7.730   5.982
24277SOL    HW174670   9.552   7.660   5.924
24277SOL    HW274671   9.603   7.802   5.924
24278SOL     OW74672   5.046   3.912  12.259
24278SOL    HW174673   5.028   3.864  12.340
24278SOL    HW274674   4.960   3.923  12.218
24279SOL     OW74675  12.294   7.313   8.130
24279SOL    HW174676  12.242   7.394   8.127
24279SOL    HW274677  12.229   7.244   8.147
24280SOL     OW74678   5.816   3.163   2.151
24280SOL    HW174679   5.812   3.080   2.105
24280SOL    HW274680   5.795   3.228   2.084
24281SOL     OW74681   0.218   2.986  11.041
24281SOL    HW174682   0.295   3.022  10.997
24281SOL    HW274683   0.226   3.017  11.131
24282SOL     OW74684  12.776   8.773   6.655
24282SOL    HW174685  12.813   8.686   6.641
24282SOL    HW274686  12.701   8.758   6.713
24283SOL     OW74687  14.496  10.829  11.692
24283SOL    HW174688  14.557  10.755  11.686
24283SOL    HW274689  14.417  10.792  11.732
24284SOL     OW74690   5.622   8.588  13.720
24284SOL    HW174691   5.670   8.524  13.667
24284SOL    HW274692   5.550   8.617  13.664
24285SOL     OW74693   1.754   3.822  10.201
24285SOL    HW174694   1.761   3.866  10.117
24285SOL    HW274695   1.670   3.851  10.236
24286SOL     OW74696   0.588   2.831   4.395
24286SOL    HW174697   0.502   2.802   4.428
24286SOL    HW274698   0.644   2.829   4.472
24287SOL     OW74699   2.236   7.723   1.720
24287SOL    HW174700   2.215   7.805   1.674
24287SOL    HW274701   2.327   7.706   1.697
24288SOL     OW74702  11.450   2.949   9.818
24288SOL    HW174703  11.545   2.959   9.824
24288SOL    HW274704  11.436   2.907   9.733
24289SOL     OW74705   8.175   2.838   0.382
24289SOL    HW174706   8.267   2.838   0.410
24289SOL    HW274707   8.133   2.771   0.436
24290SOL     OW74708   5.836  14.842  12.087
24290SOL    HW174709   5.871  14.769  12.139
24290SOL    HW274710   5.778   0.014  12.147
24291SOL     OW74711   7.648  13.021   2.508
24291SOL    HW174712   7.712  12.953   2.488
24291SOL    HW274713   7.599  13.032   2.426
24292SOL     OW74714  13.653  10.745   2.839
24292SOL    HW174715  13.618  10.791   2.762
24292SOL    HW274716  13.704  10.811   2.886
24293SOL     OW74717   9.668   1.520   3.787
24293SOL    HW174718   9.699   1.469   3.712
24293SOL    HW274719   9.601   1.465   3.828
24294SOL     OW74720   8.071   5.468   9.008
24294SOL    HW174721   8.166   5.460   9.002
24294SOL    HW274722   8.041   5.474   8.918
24295SOL     OW74723  12.018  14.688   9.508
24295SOL    HW174724  12.109  14.672   9.532
24295SOL    HW274725  12.020  14.705   9.414
24296SOL     OW74726   7.331   9.265  14.282
24296SOL    HW174727   7.327   9.249  14.188
24296SOL    HW274728   7.262   9.210  14.319
24297SOL     OW74729  13.383   6.595   1.048
24297SOL    HW174730  13.423   6.668   1.097
24297SOL    HW274731  13.454   6.533   1.036
24298SOL     OW74732  12.857  10.977  14.277
24298SOL    HW174733  12.921  10.907  14.273
24298SOL    HW274734  12.843  11.003  14.186
24299SOL     OW74735   0.655   9.118   6.098
24299SOL    HW174736   0.697   9.087   6.018
24299SOL    HW274737   0.564   9.136   6.072
24300SOL     OW74738  10.600   3.967   6.844
24300SOL    HW174739  10.516   3.940   6.882
24300SOL    HW274740  10.589   4.061   6.827
24301SOL     OW74741   3.477   2.663   7.226
24301SOL    HW174742   3.530   2.742   7.212
24301SOL    HW274743   3.404   2.692   7.281
24302SOL     OW74744   9.249  11.783   7.244
24302SOL    HW174745   9.156  11.800   7.251
24302SOL    HW274746   9.259  11.738   7.159
24303SOL     OW74747   6.685  10.993   8.829
24303SOL    HW174748   6.717  10.929   8.892
24303SOL    HW274749   6.743  10.983   8.753
24304SOL     OW74750   9.509   5.351  12.731
24304SOL    HW174751   9.419   5.348  12.699
24304SOL    HW274752   9.556   5.287  12.676
24305SOL     OW74753   1.215   5.619   6.969
24305SOL    HW174754   1.230   5.707   7.003
24305SOL    HW274755   1.120   5.610   6.967
24306SOL     OW74756   7.475   0.993  10.516
24306SOL    HW174757   7.517   1.057  10.574
24306SOL    HW274758   7.402   0.959  10.568
24307SOL     OW74759   8.252  12.591  14.739
24307SOL    HW174760   8.171  12.541  14.745
24307SOL    HW274761   8.252  12.627  14.650
24308SOL     OW74762  14.170   2.152   7.467
24308SOL    HW174763  14.135   2.183   7.383
24308SOL    HW274764  14.130   2.209   7.532
24309SOL     OW74765   4.645   7.705   8.355
24309SOL    HW174766   4.681   7.793   8.343
24309SOL    HW274767   4.559   7.719   8.395
24310SOL     OW74768   3.463   8.737   5.085
24310SOL    HW174769   3.508   8.672   5.140
24310SOL    HW274770   3.463   8.816   5.138
24311SOL     OW74771   0.090   2.784   1.028
24311SOL    HW174772   0.012   2.820   0.986
24311SOL    HW274773   0.091   2.691   1.002
24312SOL     OW74774  11.198   2.862  11.351
24312SOL    HW174775  11.177   2.954  11.339
24312SOL    HW274776  11.113   2.817  11.350
24313SOL     OW74777   2.158   0.032   7.893
24313SOL    HW174778   2.218  14.835   7.914
24313SOL    HW274779   2.098   0.036   7.967
24314SOL     OW74780  13.344   8.315  13.658
24314SOL    HW174781  13.258   8.356  13.649
24314SOL    HW274782  13.405   8.382  13.627
24315SOL     OW74783   9.595  12.601   7.425
24315SOL    HW174784   9.520  12.561   7.380
24315SOL    HW274785   9.668  12.591   7.365
24316SOL     OW74786   7.446   7.278   2.690
24316SOL    HW174787   7.356   7.282   2.724
24316SOL    HW274788   7.481   7.196   2.723
24317SOL     OW74789   2.930  12.807  12.887
24317SOL    HW174790   2.953  12.772  12.801
24317SOL    HW274791   2.871  12.741  12.924
24318SOL     OW74792   8.005   6.001  14.676
24318SOL    HW174793   8.005   6.039  14.588
24318SOL    HW274794   7.983   6.075  14.733
24319SOL     OW74795   0.325   3.930   7.703
24319SOL    HW174796   0.263   4.003   7.703
24319SOL    HW274797   0.356   3.925   7.793
24320SOL     OW74798   4.558   6.859   0.733
24320SOL    HW174799   4.629   6.922   0.719
24320SOL    HW274800   4.592   6.800   0.800
24321SOL     OW74801   1.013  13.313   5.370
24321SOL    HW174802   0.967  13.272   5.443
24321SOL    HW274803   0.977  13.271   5.292
24322SOL     OW74804   7.636   6.056   0.058
24322SOL    HW174805   7.593   6.140   0.044
24322SOL    HW274806   7.579   6.010   0.120
24323SOL     OW74807  13.300   7.685  12.326
24323SOL    HW174808  13.314   7.611  12.267
24323SOL    HW274809  13.205   7.687  12.338
24324SOL     OW74810   6.019   6.467   6.992
24324SOL    HW174811   6.041   6.526   6.920
24324SOL    HW274812   5.978   6.391   6.950
24325SOL     OW74813  10.685   7.012  12.799
24325SOL    HW174814  10.639   6.986  12.719
24325SOL    HW274815  10.771   6.971  12.791
24326SOL     OW74816  11.100  12.394  12.279
24326SOL    HW174817  11.093  12.473  12.333
24326SOL    HW274818  11.016  12.391  12.232
24327SOL     OW74819  10.094  11.724   2.709
24327SOL    HW174820  10.070  11.758   2.623
24327SOL    HW274821  10.122  11.801   2.759
24328SOL     OW74822   5.838  12.184  11.492
24328SOL    HW174823   5.773  12.255  11.492
24328SOL    HW274824   5.853  12.165  11.399
24329SOL     OW74825   8.443  12.801  11.696
24329SOL    HW174826   8.531  12.838  11.704
24329SOL    HW274827   8.417  12.820  11.606
24330SOL     OW74828   7.733  11.184  14.498
24330SOL    HW174829   7.741  11.168  14.592
24330SOL    HW274830   7.641  11.205  14.485
24331SOL     OW74831  10.412  10.369   3.827
24331SOL    HW174832  10.412  10.413   3.742
24331SOL    HW274833  10.481  10.303   3.819
24332SOL     OW74834   9.449   5.143  14.306
24332SOL    HW174835   9.409   5.134  14.393
24332SOL    HW274836   9.543   5.139  14.323
24333SOL     OW74837   9.347   4.819   4.606
24333SOL    HW174838   9.417   4.867   4.651
24333SOL    HW274839   9.279   4.808   4.673
24334SOL     OW74840   8.459  10.097   1.368
24334SOL    HW174841   8.509  10.132   1.294
24334SOL    HW274842   8.368  10.108   1.343
24335SOL     OW74843   2.151   4.270  10.571
24335SOL    HW174844   2.073   4.262  10.627
24335SOL    HW274845   2.132   4.342  10.512
24336SOL     OW74846  11.367  10.957  14.305
24336SOL    HW174847  11.272  10.972  14.310
24336SOL    HW274848  11.380  10.873  14.347
24337SOL     OW74849   2.217   1.983   0.620
24337SOL    HW174850   2.292   1.951   0.569
24337SOL    HW274851   2.202   2.072   0.586
24338SOL     OW74852   1.192  13.063   3.748
24338SOL    HW174853   1.254  13.080   3.819
24338SOL    HW274854   1.152  13.149   3.731
24339SOL     OW74855   8.104  12.400   4.267
24339SOL    HW174856   8.074  12.480   4.223
24339SOL    HW274857   8.112  12.335   4.198
24340SOL     OW74858   9.247  12.910   7.636
24340SOL    HW174859   9.176  12.847   7.646
24340SOL    HW274860   9.305  12.894   7.711
24341SOL     OW74861   9.715  12.565   0.467
24341SOL    HW174862   9.725  12.653   0.430
24341SOL    HW274863   9.803  12.542   0.497
24342SOL     OW74864  10.685   2.158   9.274
24342SOL    HW174865  10.673   2.102   9.350
24342SOL    HW274866  10.774   2.141   9.244
24343SOL     OW74867   1.453   9.526   7.519
24343SOL    HW174868   1.488   9.603   7.565
24343SOL    HW274869   1.480   9.538   7.428
24344SOL     OW74870   5.543   3.525   6.896
24344SOL    HW174871   5.476   3.530   6.828
24344SOL    HW274872   5.610   3.466   6.859
24345SOL     OW74873  11.614  13.323   3.354
24345SOL    HW174874  11.584  13.233   3.345
24345SOL    HW274875  11.707  13.320   3.332
24346SOL     OW74876   0.868  13.596   0.841
24346SOL    HW174877   0.821  13.621   0.761
24346SOL    HW274878   0.823  13.643   0.911
24347SOL     OW74879   1.763   3.822   2.194
24347SOL    HW174880   1.709   3.778   2.260
24347SOL    HW274881   1.765   3.913   2.221
24348SOL     OW74882   5.193  11.170  10.016
24348SOL    HW174883   5.218  11.109  10.085
24348SOL    HW274884   5.097  11.165  10.014
24349SOL     OW74885   6.751  14.233   5.693
24349SOL    HW174886   6.698  14.180   5.752
24349SOL    HW274887   6.791  14.170   5.633
24350SOL     OW74888   2.976   1.618   6.095
24350SOL    HW174889   2.925   1.554   6.045
24350SOL    HW274890   2.912   1.664   6.148
24351SOL     OW74891  14.334   8.130   8.538
24351SOL    HW174892  14.411   8.074   8.529
24351SOL    HW274893  14.354   8.206   8.484
24352SOL     OW74894   8.387   9.596   9.466
24352SOL    HW174895   8.297   9.576   9.494
24352SOL    HW274896   8.392   9.562   9.377
24353SOL     OW74897   7.497   3.027   1.667
24353SOL    HW174898   7.474   3.080   1.591
24353SOL    HW274899   7.589   3.048   1.683
24354SOL     OW74900   3.965  11.524   8.948
24354SOL    HW174901   3.901  11.501   9.014
24354SOL    HW274902   3.913  11.556   8.874
24355SOL     OW74903   6.434   1.402  11.026
24355SOL    HW174904   6.484   1.323  11.045
24355SOL    HW274905   6.477   1.471  11.076
24356SOL     OW74906   1.831   8.797   1.345
24356SOL    HW174907   1.737   8.782   1.355
24356SOL    HW274908   1.864   8.797   1.435
24357SOL     OW74909   1.233   7.976  11.811
24357SOL    HW174910   1.207   7.928  11.733
24357SOL    HW274911   1.190   8.061  11.802
24358SOL     OW74912  11.060   0.007  12.607
24358SOL    HW174913  11.091   0.092  12.577
24358SOL    HW274914  11.132  14.821  12.588
24359SOL     OW74915  13.305   3.083   4.158
24359SOL    HW174916  13.291   3.003   4.108
24359SOL    HW274917  13.329   3.052   4.246
24360SOL     OW74918   2.138   2.425   1.660
24360SOL    HW174919   2.209   2.417   1.723
24360SOL    HW274920   2.179   2.409   1.575
24361SOL     OW74921   6.247   2.535  13.075
24361SOL    HW174922   6.219   2.444  13.083
24361SOL    HW274923   6.341   2.533  13.095
24362SOL     OW74924  13.285   1.602   0.424
24362SOL    HW174925  13.368   1.561   0.400
24362SOL    HW274926  13.219   1.554   0.374
24363SOL     OW74927   8.958   7.081   4.007
24363SOL    HW174928   8.984   6.999   3.966
24363SOL    HW274929   8.926   7.056   4.093
24364SOL     OW74930   5.972   1.667   9.109
24364SOL    HW174931   6.028   1.732   9.151
24364SOL    HW274932   6.032   1.599   9.079
24365SOL     OW74933   0.019  12.141  11.880
24365SOL    HW174934  14.812  12.105  11.915
24365SOL    HW274935   0.010  12.236  11.893
24366SOL     OW74936   4.714   6.805   9.683
24366SOL    HW174937   4.702   6.863   9.758
24366SOL    HW274938   4.782   6.743   9.712
24367SOL     OW74939   1.412  12.013  14.685
24367SOL    HW174940   1.372  12.026  14.771
24367SOL    HW274941   1.504  12.035  14.698
24368SOL     OW74942  12.867   6.558   5.081
24368SOL    HW174943  12.857   6.464   5.065
24368SOL    HW274944  12.936   6.585   5.020
24369SOL     OW74945   8.226   4.448   2.199
24369SOL    HW174946   8.297   4.424   2.140
24369SOL    HW274947   8.174   4.511   2.150
24370SOL     OW74948   4.719  13.881   4.784
24370SOL    HW174949   4.786  13.869   4.717
24370SOL    HW274950   4.728  13.805   4.841
24371SOL     OW74951   7.776   1.433   3.321
24371SOL    HW174952   7.863   1.470   3.338
24371SOL    HW274953   7.794   1.345   3.286
24372SOL     OW74954  13.049  13.951   8.021
24372SOL    HW174955  13.056  14.045   8.041
24372SOL    HW274956  12.972  13.922   8.070
24373SOL     OW74957   1.646  13.276   2.607
24373SOL    HW174958   1.659  13.181   2.606
24373SOL    HW274959   1.626  13.297   2.699
24374SOL     OW74960   7.189   9.496   0.766
24374SOL    HW174961   7.181   9.589   0.786
24374SOL    HW274962   7.207   9.454   0.850
24375SOL     OW74963   0.806   9.258   8.548
24375SOL    HW174964   0.840   9.283   8.634
24375SOL    HW274965   0.712   9.274   8.554
24376SOL     OW74966   0.797   7.727  13.605
24376SOL    HW174967   0.869   7.780  13.570
24376SOL    HW274968   0.827   7.637  13.593
24377SOL     OW74969   0.391   1.628   8.423
24377SOL    HW174970   0.364   1.592   8.338
24377SOL    HW274971   0.412   1.719   8.404
24378SOL     OW74972  14.454   7.864   5.966
24378SOL    HW174973  14.419   7.949   5.942
24378SOL    HW274974  14.513   7.882   6.039
24379SOL     OW74975   6.958  13.417   1.536
24379SOL    HW174976   7.012  13.401   1.459
24379SOL    HW274977   6.956  13.333   1.583
24380SOL     OW74978   8.756  13.362   1.062
24380SOL    HW174979   8.661  13.372   1.068
24380SOL    HW274980   8.784  13.433   1.005
24381SOL     OW74981   0.396   2.619  12.565
24381SOL    HW174982   0.357   2.655  12.645
24381SOL    HW274983   0.359   2.672  12.494
24382SOL     OW74984  12.026   5.169   0.394
24382SOL    HW174985  12.039   5.211   0.479
24382SOL    HW274986  12.093   5.207   0.338
24383SOL     OW74987  11.161   0.473   9.842
24383SOL    HW174988  11.237   0.459   9.785
24383SOL    HW274989  11.125   0.558   9.815
24384SOL     OW74990  10.902   3.774   9.882
24384SOL    HW174991  10.992   3.754   9.857
24384SOL    HW274992  10.853   3.768   9.800
24385SOL     OW74993  12.781  12.525  14.754
24385SOL    HW174994  12.851  12.512  14.819
24385SOL    HW274995  12.820  12.497  14.672
24386SOL     OW74996   3.670   3.348   0.743
24386SOL    HW174997   3.685   3.322   0.652
24386SOL    HW274998   3.701   3.438   0.748
24387SOL     OW74999  13.360  12.715   3.819
24387SOL    HW175000  13.373  12.620   3.827
24387SOL    HW275001  13.375  12.733   3.726
24388SOL     OW75002  12.315   1.727  14.250
24388SOL    HW175003  12.343   1.645  14.208
24388SOL    HW275004  12.220   1.727  14.242
24389SOL     OW75005   1.211   3.664  10.233
24389SOL    HW175006   1.213   3.661  10.328
24389SOL    HW275007   1.157   3.588  10.208
24390SOL     OW75008  10.075  13.746  14.461
24390SOL    HW175009   9.985  13.718  14.474
24390SOL    HW275010  10.100  13.709  14.377
24391SOL     OW75011  12.696   3.749   5.582
24391SOL    HW175012  12.726   3.690   5.652
24391SOL    HW275013  12.748   3.828   5.595
24392SOL     OW75014  14.521  11.583   4.047
24392SOL    HW175015  14.476  11.499   4.040
24392SOL    HW275016  14.480  11.638   3.981
24393SOL     OW75017   3.183   8.604   7.782
24393SOL    HW175018   3.222   8.536   7.837
24393SOL    HW275019   3.225   8.594   7.697
24394SOL     OW75020  13.755  11.225  11.068
24394SOL    HW175021  13.773  11.186  11.153
24394SOL    HW275022  13.835  11.212  11.018
24395SOL     OW75023   4.920  12.953   8.878
24395SOL    HW175024   4.955  12.876   8.922
24395SOL    HW275025   4.980  12.969   8.805
24396SOL     OW75026   2.844  10.529  12.624
24396SOL    HW175027   2.780  10.496  12.561
24396SOL    HW275028   2.791  10.559  12.698
24397SOL     OW75029   4.958   2.534  13.059
24397SOL    HW175030   4.890   2.554  12.994
24397SOL    HW275031   4.920   2.464  13.112
24398SOL     OW75032   4.557   3.596  13.657
24398SOL    HW175033   4.648   3.622  13.650
24398SOL    HW275034   4.507   3.677  13.648
24399SOL     OW75035   1.457  12.706   9.803
24399SOL    HW175036   1.470  12.762   9.726
24399SOL    HW275037   1.532  12.724   9.859
24400SOL     OW75038   7.614  14.663   2.833
24400SOL    HW175039   7.625  14.749   2.793
24400SOL    HW275040   7.533  14.629   2.796
24401SOL     OW75041  11.229   2.436  10.057
24401SOL    HW175042  11.323   2.422  10.070
24401SOL    HW275043  11.188   2.394  10.133
24402SOL     OW75044   4.975   9.783  10.258
24402SOL    HW175045   4.976   9.864  10.311
24402SOL    HW275046   4.920   9.723  10.308
24403SOL     OW75047   5.494  14.310   3.027
24403SOL    HW175048   5.532  14.364   3.096
24403SOL    HW275049   5.410  14.281   3.063
24404SOL     OW75050   4.327   4.950  12.160
24404SOL    HW175051   4.375   5.014  12.107
24404SOL    HW275052   4.290   5.003  12.232
24405SOL     OW75053   4.448  10.387   9.256
24405SOL    HW175054   4.531  10.342   9.238
24405SOL    HW275055   4.447  10.399   9.351
24406SOL     OW75056   7.971   4.907  12.320
24406SOL    HW175057   8.059   4.879  12.346
24406SOL    HW275058   7.936   4.833  12.270
24407SOL     OW75059  10.101   8.453  12.101
24407SOL    HW175060  10.183   8.443  12.149
24407SOL    HW275061  10.032   8.440  12.166
24408SOL     OW75062  12.024   6.583   5.710
24408SOL    HW175063  12.086   6.561   5.779
24408SOL    HW275064  11.968   6.650   5.749
24409SOL     OW75065   7.842  11.609   1.107
24409SOL    HW175066   7.841  11.702   1.129
24409SOL    HW275067   7.800  11.603   1.021
24410SOL     OW75068   3.014   2.644   2.489
24410SOL    HW175069   2.976   2.642   2.576
24410SOL    HW275070   2.940   2.664   2.431
24411SOL     OW75071  14.555  13.693  14.380
24411SOL    HW175072  14.596  13.753  14.443
24411SOL    HW275073  14.463  13.720  14.379
24412SOL     OW75074   4.294   5.975   8.969
24412SOL    HW175075   4.357   5.959   8.898
24412SOL    HW275076   4.251   6.057   8.945
24413SOL     OW75077  13.203  11.447   0.593
24413SOL    HW175078  13.227  11.369   0.643
24413SOL    HW275079  13.123  11.421   0.546
24414SOL     OW75080   5.264  12.984  14.475
24414SOL    HW175081   5.195  12.960  14.413
24414SOL    HW275082   5.223  12.975  14.561
24415SOL     OW75083   3.468   3.999   7.868
24415SOL    HW175084   3.560   3.986   7.890
24415SOL    HW275085   3.468   4.028   7.777
24416SOL     OW75086   1.369  13.571  14.000
24416SOL    HW175087   1.330  13.592  14.085
24416SOL    HW275088   1.460  13.601  14.007
24417SOL     OW75089   4.978   0.252  12.125
24417SOL    HW175090   4.924   0.275  12.050
24417SOL    HW275091   5.003   0.161  12.109
24418SOL     OW75092   0.156  14.871   0.818
24418SOL    HW175093   0.210  14.792   0.823
24418SOL    HW275094   0.216   0.065   0.788
24419SOL     OW75095   9.732  13.167   3.106
24419SOL    HW175096   9.750  13.105   3.176
24419SOL    HW275097   9.810  13.223   3.103
24420SOL     OW75098  14.117   1.632   0.619
24420SOL    HW175099  14.204   1.632   0.577
24420SOL    HW275100  14.131   1.588   0.702
24421SOL     OW75101   5.581  10.738   7.257
24421SOL    HW175102   5.617  10.714   7.171
24421SOL    HW275103   5.650  10.715   7.319
24422SOL     OW75104   1.785   6.507  11.163
24422SOL    HW175105   1.718   6.571  11.183
24422SOL    HW275106   1.750   6.458  11.088
24423SOL     OW75107   9.253   0.872   5.067
24423SOL    HW175108   9.257   0.964   5.041
24423SOL    HW275109   9.185   0.870   5.135
24424SOL     OW75110   5.625  13.725   3.258
24424SOL    HW175111   5.642  13.631   3.256
24424SOL    HW275112   5.710  13.765   3.243
24425SOL     OW75113   4.355   9.735   2.000
24425SOL    HW175114   4.430   9.686   2.034
24425SOL    HW275115   4.391   9.820   1.974
24426SOL     OW75116   3.917   5.343  13.397
24426SOL    HW175117   3.829   5.365  13.427
24426SOL    HW275118   3.964   5.426  13.397
24427SOL     OW75119  14.451   2.818   3.160
24427SOL    HW175120  14.474   2.814   3.067
24427SOL    HW275121  14.459   2.910   3.183
24428SOL     OW75122  11.788  11.333   8.471
24428SOL    HW175123  11.867  11.300   8.514
24428SOL    HW275124  11.733  11.255   8.460
24429SOL     OW75125   9.665  10.889   8.349
24429SOL    HW175126   9.587  10.833   8.347
24429SOL    HW275127   9.734  10.835   8.309
24430SOL     OW75128  14.685   6.560   4.544
24430SOL    HW175129  14.629   6.515   4.480
24430SOL    HW275130  14.650   6.649   4.548
24431SOL     OW75131   0.804   4.621   0.000
24431SOL    HW175132   0.836   4.579   0.080
24431SOL    HW275133   0.874   4.682  14.850
24432SOL     OW75134   4.252   3.172   0.614
24432SOL    HW175135   4.300   3.109   0.560
24432SOL    HW275136   4.249   3.130   0.701
24433SOL     OW75137  13.116   0.301   7.197
24433SOL    HW175138  13.083   0.311   7.287
24433SOL    HW275139  13.209   0.320   7.204
24434SOL     OW75140  12.742   5.894   3.606
24434SOL    HW175141  12.651   5.919   3.591
24434SOL    HW275142  12.781   5.890   3.519
24435SOL     OW75143   7.976   1.972   4.754
24435SOL    HW175144   8.057   1.943   4.796
24435SOL    HW275145   7.933   2.027   4.820
24436SOL     OW75146  11.902   0.716   0.031
24436SOL    HW175147  11.808   0.701   0.043
24436SOL    HW275148  11.910   0.741  14.813
24437SOL     OW75149   4.214   5.827  13.989
24437SOL    HW175150   4.131   5.853  13.949
24437SOL    HW275151   4.248   5.760  13.930
24438SOL     OW75152   7.681   5.009   7.651
24438SOL    HW175153   7.679   4.933   7.709
24438SOL    HW275154   7.711   4.975   7.567
24439SOL     OW75155   6.454   5.152   9.034
24439SOL    HW175156   6.464   5.198   9.117
24439SOL    HW275157   6.488   5.212   8.969
24440SOL     OW75158  10.889   5.006   2.198
24440SOL    HW175159  10.797   5.015   2.223
24440SOL    HW275160  10.894   5.045   2.111
24441SOL     OW75161   8.130   4.926  13.436
24441SOL    HW175162   8.068   4.916  13.364
24441SOL    HW275163   8.180   4.844  13.436
24442SOL     OW75164   0.636  10.238  10.363
24442SOL    HW175165   0.651  10.208  10.274
24442SOL    HW275166   0.604  10.161  10.410
24443SOL     OW75167   2.637   1.428   4.179
24443SOL    HW175168   2.550   1.466   4.193
24443SOL    HW275169   2.654   1.440   4.086
24444SOL     OW75170   0.781   8.486  12.117
24444SOL    HW175171   0.853   8.468  12.056
24444SOL    HW275172   0.703   8.487  12.061
24445SOL     OW75173   5.657   0.318   1.761
24445SOL    HW175174   5.594   0.289   1.694
24445SOL    HW275175   5.690   0.237   1.800
24446SOL     OW75176  11.650  13.497   2.143
24446SOL    HW175177  11.589  13.428   2.169
24446SOL    HW275178  11.736  13.454   2.147
24447SOL     OW75179   9.209  13.116   6.901
24447SOL    HW175180   9.113  13.125   6.902
24447SOL    HW275181   9.224  13.027   6.869
24448SOL     OW75182   0.993   4.376  10.597
24448SOL    HW175183   0.910   4.420  10.581
24448SOL    HW275184   1.059   4.445  10.588
24449SOL     OW75185  13.478   1.700   2.315
24449SOL    HW175186  13.524   1.668   2.238
24449SOL    HW275187  13.530   1.773   2.347
24450SOL     OW75188   2.673   2.065   3.357
24450SOL    HW175189   2.602   2.116   3.318
24450SOL    HW275190   2.635   1.979   3.374
24451SOL     OW75191   5.888  12.573   9.697
24451SOL    HW175192   5.969  12.523   9.710
24451SOL    HW275193   5.898  12.650   9.752
24452SOL     OW75194   7.214   1.511   3.012
24452SOL    HW175195   7.261   1.553   2.940
24452SOL    HW275196   7.140   1.467   2.971
24453SOL     OW75197   6.680   8.607   5.017
24453SOL    HW175198   6.722   8.607   5.104
24453SOL    HW275199   6.751   8.627   4.956
24454SOL     OW75200   8.398   5.989  12.813
24454SOL    HW175201   8.411   5.899  12.786
24454SOL    HW275202   8.441   6.041  12.746
24455SOL     OW75203   0.172   9.689  14.810
24455SOL    HW175204   0.251   9.691  14.755
24455SOL    HW275205   0.126   9.610  14.782
24456SOL     OW75206   1.964   7.123  13.355
24456SOL    HW175207   2.045   7.073  13.344
24456SOL    HW275208   1.993   7.211  13.378
24457SOL     OW75209  12.183   0.709  12.650
24457SOL    HW175210  12.131   0.648  12.598
24457SOL    HW275211  12.179   0.674  12.740
24458SOL     OW75212   8.276   7.657  13.140
24458SOL    HW175213   8.371   7.649  13.146
24458SOL    HW275214   8.243   7.577  13.181
24459SOL     OW75215   1.376  14.559   9.449
24459SOL    HW175216   1.430  14.632   9.481
24459SOL    HW275217   1.438  14.505   9.399
24460SOL     OW75218   7.310  10.746   3.019
24460SOL    HW175219   7.377  10.752   2.951
24460SOL    HW275220   7.293  10.837   3.043
24461SOL     OW75221  12.604  10.185   3.177
24461SOL    HW175222  12.644  10.195   3.090
24461SOL    HW275223  12.516  10.153   3.159
24462SOL     OW75224   2.645  11.086   1.029
24462SOL    HW175225   2.625  11.160   1.086
24462SOL    HW275226   2.562  11.063   0.988
24463SOL     OW75227   4.825   9.471   2.662
24463SOL    HW175228   4.899   9.498   2.716
24463SOL    HW275229   4.753   9.527   2.691
24464SOL     OW75230  12.092   3.310   7.588
24464SOL    HW175231  12.085   3.394   7.634
24464SOL    HW275232  12.131   3.251   7.651
24465SOL     OW75233   1.292  13.639   7.780
24465SOL    HW175234   1.264  13.728   7.759
24465SOL    HW275235   1.360  13.650   7.847
24466SOL     OW75236   6.282   9.400  12.469
24466SOL    HW175237   6.318   9.316  12.443
24466SOL    HW275238   6.351   9.463  12.448
24467SOL     OW75239  13.105   1.226   6.380
24467SOL    HW175240  13.038   1.171   6.421
24467SOL    HW275241  13.187   1.199   6.419
24468SOL     OW75242  13.155   8.431  10.483
24468SOL    HW175243  13.221   8.482  10.528
24468SOL    HW275244  13.130   8.363  10.546
24469SOL     OW75245   3.496   1.695  10.482
24469SOL    HW175246   3.530   1.608  10.501
24469SOL    HW275247   3.573   1.745  10.454
24470SOL     OW75248   9.922   1.136   4.922
24470SOL    HW175249   9.870   1.056   4.919
24470SOL    HW275250   9.886   1.191   4.853
24471SOL     OW75251   6.146  12.020   2.530
24471SOL    HW175252   6.087  12.096   2.530
24471SOL    HW275253   6.206  12.037   2.603
24472SOL     OW75254   5.293  10.928   3.169
24472SOL    HW175255   5.276  10.985   3.245
24472SOL    HW275256   5.372  10.879   3.194
24473SOL     OW75257   1.779   0.433   0.753
24473SOL    HW175258   1.754   0.363   0.692
24473SOL    HW275259   1.717   0.504   0.734
24474SOL     OW75260  12.278   8.952   9.916
24474SOL    HW175261  12.228   9.029   9.944
24474SOL    HW275262  12.236   8.924   9.835
24475SOL     OW75263  12.895   9.389   8.797
24475SOL    HW175264  12.898   9.296   8.774
24475SOL    HW275265  12.908   9.434   8.714
24476SOL     OW75266  14.478   0.917   1.440
24476SOL    HW175267  14.405   0.956   1.393
24476SOL    HW275268  14.491   0.973   1.516
24477SOL     OW75269   6.330   3.708  10.618
24477SOL    HW175270   6.340   3.800  10.644
24477SOL    HW275271   6.242   3.684  10.649
24478SOL     OW75272   6.978  13.686   1.961
24478SOL    HW175273   6.954  13.768   1.918
24478SOL    HW275274   7.031  13.640   1.895
24479SOL     OW75275   8.248  14.068   5.807
24479SOL    HW175276   8.322  14.025   5.766
24479SOL    HW275277   8.197  14.104   5.734
24480SOL     OW75278  12.622  13.352  11.369
24480SOL    HW175279  12.705  13.334  11.413
24480SOL    HW275280  12.565  13.387  11.438
24481SOL     OW75281   0.417  10.683  12.563
24481SOL    HW175282   0.409  10.767  12.608
24481SOL    HW275283   0.449  10.705  12.476
24482SOL     OW75284   1.152   4.394   4.697
24482SOL    HW175285   1.072   4.440   4.725
24482SOL    HW275286   1.129   4.301   4.702
24483SOL     OW75287   2.803  12.561  13.008
24483SOL    HW175288   2.800  12.507  13.087
24483SOL    HW275289   2.719  12.608  13.008
24484SOL     OW75290  12.699   3.936  13.042
24484SOL    HW175291  12.714   3.842  13.026
24484SOL    HW275292  12.782   3.977  13.020
24485SOL     OW75293   1.731  13.360  12.484
24485SOL    HW175294   1.715  13.325  12.571
24485SOL    HW275295   1.737  13.454  12.496
24486SOL     OW75296   5.695   1.201   9.155
24486SOL    HW175297   5.664   1.288   9.132
24486SOL    HW275298   5.633   1.169   9.221
24487SOL     OW75299   2.059  11.971   4.860
24487SOL    HW175300   2.106  11.996   4.780
24487SOL    HW275301   2.079  12.041   4.922
24488SOL     OW75302   7.173  10.427  11.861
24488SOL    HW175303   7.203  10.337  11.849
24488SOL    HW275304   7.100  10.419  11.923
24489SOL     OW75305   8.947  11.456   2.145
24489SOL    HW175306   8.949  11.550   2.163
24489SOL    HW275307   9.027  11.422   2.185
24490SOL     OW75308   0.460   7.699   7.249
24490SOL    HW175309   0.469   7.789   7.281
24490SOL    HW275310   0.433   7.708   7.158
24491SOL     OW75311  14.440   1.075  10.443
24491SOL    HW175312  14.367   1.031  10.400
24491SOL    HW275313  14.399   1.139  10.501
24492SOL     OW75314  13.284  11.887   7.611
24492SOL    HW175315  13.238  11.968   7.586
24492SOL    HW275316  13.250  11.821   7.549
24493SOL     OW75317  14.599   2.090   8.443
24493SOL    HW175318  14.564   2.118   8.358
24493SOL    HW275319  14.613   2.171   8.491
24494SOL     OW75320   1.429   7.237   7.548
24494SOL    HW175321   1.493   7.166   7.547
24494SOL    HW275322   1.399   7.244   7.458
24495SOL     OW75323   6.688   6.267   1.223
24495SOL    HW175324   6.760   6.318   1.185
24495SOL    HW275325   6.629   6.334   1.259
24496SOL     OW75326  10.452  13.653   5.173
24496SOL    HW175327  10.458  13.663   5.078
24496SOL    HW275328  10.359  13.643   5.191
24497SOL     OW75329  10.449   9.650   0.542
24497SOL    HW175330  10.515   9.599   0.589
24497SOL    HW275331  10.492   9.732   0.520
24498SOL     OW75332   8.950   5.956  14.437
24498SOL    HW175333   8.864   5.956  14.480
24498SOL    HW275334   8.977   6.048  14.437
24499SOL     OW75335   0.906  14.151  10.495
24499SOL    HW175336   0.993  14.163  10.459
24499SOL    HW275337   0.863  14.235  10.484
24500SOL     OW75338   9.823  10.949   0.848
24500SOL    HW175339   9.804  10.932   0.941
24500SOL    HW275340   9.747  10.913   0.802
24501SOL     OW75341  13.984   6.637   7.110
24501SOL    HW175342  14.057   6.679   7.155
24501SOL    HW275343  13.916   6.629   7.177
24502SOL     OW75344  12.705   7.505   8.990
24502SOL    HW175345  12.665   7.569   8.931
24502SOL    HW275346  12.778   7.469   8.940
24503SOL     OW75347   6.841  10.472  10.742
24503SOL    HW175348   6.905  10.518  10.797
24503SOL    HW275349   6.793  10.541  10.697
24504SOL     OW75350  12.788   8.093  14.388
24504SOL    HW175351  12.840   8.167  14.357
24504SOL    HW275352  12.697   8.121  14.377
24505SOL     OW75353  12.392  13.796   4.610
24505SOL    HW175354  12.442  13.822   4.687
24505SOL    HW275355  12.453  13.806   4.537
24506SOL     OW75356   2.461   1.696   5.781
24506SOL    HW175357   2.481   1.722   5.872
24506SOL    HW275358   2.545   1.669   5.745
24507SOL     OW75359   9.220  14.684   4.439
24507SOL    HW175360   9.257  14.754   4.493
24507SOL    HW275361   9.223  14.718   4.350
24508SOL     OW75362  13.528  11.047   6.320
24508SOL    HW175363  13.449  11.066   6.268
24508SOL    HW275364  13.494  11.005   6.399
24509SOL     OW75365   8.535   0.631   4.741
24509SOL    HW175366   8.467   0.637   4.807
24509SOL    HW275367   8.524   0.544   4.703
24510SOL     OW75368  10.166   8.344   6.420
24510SOL    HW175369  10.167   8.359   6.325
24510SOL    HW275370  10.109   8.414   6.454
24511SOL     OW75371  13.146   4.612   7.549
24511SOL    HW175372  13.059   4.652   7.553
24511SOL    HW275373  13.203   4.683   7.520
24512SOL     OW75374  12.549   8.401   7.338
24512SOL    HW175375  12.529   8.312   7.309
24512SOL    HW275376  12.487   8.456   7.291
24513SOL     OW75377   8.210  10.164  12.695
24513SOL    HW175378   8.204  10.101  12.766
24513SOL    HW275379   8.281  10.223  12.721
24514SOL     OW75380  14.754  14.303   7.997
24514SOL    HW175381  14.698  14.276   8.070
24514SOL    HW275382  14.716  14.384   7.965
24515SOL     OW75383   8.545  13.715   4.008
24515SOL    HW175384   8.622  13.737   4.060
24515SOL    HW275385   8.550  13.774   3.933
24516SOL     OW75386  10.174   9.074   7.317
24516SOL    HW175387  10.236   9.002   7.303
24516SOL    HW275388  10.111   9.039   7.379
24517SOL     OW75389   2.552  13.683   6.332
24517SOL    HW175390   2.543  13.709   6.240
24517SOL    HW275391   2.515  13.757   6.381
24518SOL     OW75392   0.718  11.861   3.455
24518SOL    HW175393   0.672  11.874   3.372
24518SOL    HW275394   0.654  11.887   3.522
24519SOL     OW75395   2.037  12.037  12.040
24519SOL    HW175396   2.008  12.083  11.962
24519SOL    HW275397   2.080  12.103  12.093
24520SOL     OW75398  13.556   9.942  12.343
24520SOL    HW175399  13.628   9.879  12.337
24520SOL    HW275400  13.587  10.007  12.406
24521SOL     OW75401   9.480  11.964   7.568
24521SOL    HW175402   9.427  11.991   7.493
24521SOL    HW275403   9.466  11.869   7.575
24522SOL     OW75404   0.248   5.441   6.275
24522SOL    HW175405   0.183   5.382   6.236
24522SOL    HW275406   0.297   5.386   6.337
24523SOL     OW75407   6.727   7.623   8.548
24523SOL    HW175408   6.715   7.613   8.643
24523SOL    HW275409   6.822   7.629   8.536
24524SOL     OW75410  12.980   8.584   8.145
24524SOL    HW175411  12.932   8.663   8.168
24524SOL    HW275412  12.912   8.517   8.137
24525SOL     OW75413   5.822   0.295  10.561
24525SOL    HW175414   5.780   0.209  10.563
24525SOL    HW275415   5.890   0.290  10.629
24526SOL     OW75416  10.607   8.768   4.063
24526SOL    HW175417  10.583   8.801   4.149
24526SOL    HW275418  10.523   8.748   4.020
24527SOL     OW75419   2.412  10.397   7.204
24527SOL    HW175420   2.406  10.302   7.198
24527SOL    HW275421   2.442  10.414   7.294
24528SOL     OW75422   5.725   0.456   6.439
24528SOL    HW175423   5.747   0.385   6.379
24528SOL    HW275424   5.722   0.415   6.526
24529SOL     OW75425   2.204  10.772   3.933
24529SOL    HW175426   2.119  10.789   3.892
24529SOL    HW275427   2.185  10.774   4.027
24530SOL     OW75428  12.254  14.444   1.591
24530SOL    HW175429  12.169  14.484   1.611
24530SOL    HW275430  12.269  14.466   1.499
24531SOL     OW75431   6.145   9.481   3.311
24531SOL    HW175432   6.229   9.510   3.275
24531SOL    HW275433   6.147   9.385   3.301
24532SOL     OW75434  11.103  10.107  14.471
24532SOL    HW175435  11.136  10.058  14.546
24532SOL    HW275436  11.142  10.062  14.395
24533SOL     OW75437   8.149   3.606  11.075
24533SOL    HW175438   8.244   3.609  11.062
24533SOL    HW275439   8.137   3.632  11.167
24534SOL     OW75440   2.267   6.320   9.872
24534SOL    HW175441   2.295   6.317   9.964
24534SOL    HW275442   2.309   6.245   9.832
24535SOL     OW75443   0.914  12.843   4.006
24535SOL    HW175444   0.853  12.875   3.941
24535SOL    HW275445   0.986  12.906   4.006
24536SOL     OW75446  13.933  11.630   6.700
24536SOL    HW175447  14.017  11.586   6.688
24536SOL    HW275448  13.954  11.709   6.749
24537SOL     OW75449   9.068  10.635  10.912
24537SOL    HW175450   8.982  10.607  10.944
24537SOL    HW275451   9.081  10.584  10.831
24538SOL     OW75452   0.350  12.962   8.753
24538SOL    HW175453   0.377  12.927   8.668
24538SOL    HW275454   0.327  13.053   8.735
24539SOL     OW75455   2.432   2.976   3.709
24539SOL    HW175456   2.493   3.049   3.707
24539SOL    HW275457   2.371   2.994   3.638
24540SOL     OW75458   9.561   8.160   3.701
24540SOL    HW175459   9.585   8.233   3.758
24540SOL    HW275460   9.488   8.192   3.649
24541SOL     OW75461   9.166   7.323   4.188
24541SOL    HW175462   9.121   7.401   4.155
24541SOL    HW275463   9.177   7.340   4.282
24542SOL     OW75464   4.795   1.501   1.195
24542SOL    HW175465   4.811   1.473   1.285
24542SOL    HW275466   4.720   1.559   1.201
24543SOL     OW75467   4.129   9.861   3.950
24543SOL    HW175468   4.121   9.865   4.046
24543SOL    HW275469   4.121   9.953   3.922
24544SOL     OW75470   9.431   7.074   0.423
24544SOL    HW175471   9.408   7.082   0.331
24544SOL    HW275472   9.365   7.013   0.458
24545SOL     OW75473   3.943   0.440  13.046
24545SOL    HW175474   3.929   0.480  13.132
24545SOL    HW275475   3.929   0.511  12.984
24546SOL     OW75476  11.265   8.301  11.624
24546SOL    HW175477  11.280   8.395  11.630
24546SOL    HW275478  11.351   8.264  11.608
24547SOL     OW75479   3.244   3.642   9.565
24547SOL    HW175480   3.206   3.562   9.531
24547SOL    HW275481   3.334   3.642   9.534
24548SOL     OW75482   1.053   7.636   4.196
24548SOL    HW175483   1.052   7.549   4.156
24548SOL    HW275484   0.967   7.645   4.236
24549SOL     OW75485   4.249  10.801  14.831
24549SOL    HW175486   4.189  10.802   0.031
24549SOL    HW275487   4.231  10.719  14.786
24550SOL     OW75488   2.867   6.013   7.394
24550SOL    HW175489   2.932   6.083   7.386
24550SOL    HW275490   2.907   5.938   7.352
24551SOL     OW75491   5.448  11.007  14.168
24551SOL    HW175492   5.394  11.086  14.168
24551SOL    HW275493   5.396  10.943  14.118
24552SOL     OW75494   3.752   8.161   6.979
24552SOL    HW175495   3.811   8.234   6.996
24552SOL    HW275496   3.732   8.168   6.886
24553SOL     OW75497   8.362   0.449  11.932
24553SOL    HW175498   8.396   0.381  11.990
24553SOL    HW275499   8.311   0.507  11.990
24554SOL     OW75500   4.516   9.275   9.918
24554SOL    HW175501   4.517   9.298  10.011
24554SOL    HW275502   4.600   9.233   9.902
24555SOL     OW75503   3.194   8.794   7.207
24555SOL    HW175504   3.140   8.865   7.242
24555SOL    HW275505   3.282   8.813   7.240
24556SOL     OW75506   1.263   7.595   1.676
24556SOL    HW175507   1.269   7.502   1.698
24556SOL    HW275508   1.352   7.618   1.647
24557SOL     OW75509   8.641   7.269   7.483
24557SOL    HW175510   8.600   7.229   7.560
24557SOL    HW275511   8.655   7.196   7.423
24558SOL     OW75512   2.062  13.221   7.980
24558SOL    HW175513   2.003  13.291   8.007
24558SOL    HW275514   2.004  13.148   7.960
24559SOL     OW75515   2.012   5.157   6.489
24559SOL    HW175516   1.997   5.149   6.395
24559SOL    HW275517   1.931   5.124   6.529
24560SOL     OW75518   8.950  12.167  14.423
24560SOL    HW175519   8.882  12.178  14.357
24560SOL    HW275520   8.920  12.221  14.497
24561SOL     OW75521   2.628   3.277  12.658
24561SOL    HW175522   2.562   3.344  12.675
24561SOL    HW275523   2.691   3.286  12.729
24562SOL     OW75524  13.870  10.631   9.098
24562SOL    HW175525  13.891  10.714   9.056
24562SOL    HW275526  13.878  10.650   9.192
24563SOL     OW75527  14.190   5.336   4.701
24563SOL    HW175528  14.184   5.384   4.784
24563SOL    HW275529  14.214   5.403   4.637
24564SOL     OW75530   4.793   1.862   1.773
24564SOL    HW175531   4.814   1.853   1.866
24564SOL    HW275532   4.698   1.865   1.770
24565SOL     OW75533   7.944   9.269   0.229
24565SOL    HW175534   7.998   9.193   0.207
24565SOL    HW275535   8.004   9.344   0.220
24566SOL     OW75536   9.731   2.980   1.488
24566SOL    HW175537   9.730   3.075   1.500
24566SOL    HW275538   9.646   2.960   1.448
24567SOL     OW75539   3.236   1.103  13.708
24567SOL    HW175540   3.280   1.152  13.639
24567SOL    HW275541   3.232   1.164  13.782
24568SOL     OW75542   9.740  14.402   7.831
24568SOL    HW175543   9.786  14.326   7.795
24568SOL    HW275544   9.656  14.403   7.786
24569SOL     OW75545   0.021   7.570  11.916
24569SOL    HW175546   0.002   7.619  11.996
24569SOL    HW275547   0.079   7.627  11.866
24570SOL     OW75548   1.877  12.139  13.605
24570SOL    HW175549   1.966  12.129  13.640
24570SOL    HW275550   1.835  12.055  13.624
24571SOL     OW75551  13.742  13.099   4.906
24571SOL    HW175552  13.786  13.178   4.938
24571SOL    HW275553  13.775  13.087   4.817
24572SOL     OW75554  14.604  13.621  12.338
24572SOL    HW175555  14.531  13.650  12.283
24572SOL    HW275556  14.601  13.525  12.332
24573SOL     OW75557  12.657   5.671  12.760
24573SOL    HW175558  12.686   5.581  12.746
24573SOL    HW275559  12.726   5.710  12.813
24574SOL     OW75560  11.171  14.635  10.427
24574SOL    HW175561  11.197  14.598  10.343
24574SOL    HW275562  11.101  14.697  10.405
24575SOL     OW75563   4.935  12.200   5.213
24575SOL    HW175564   5.020  12.206   5.258
24575SOL    HW275565   4.878  12.158   5.277
24576SOL     OW75566  13.033   4.891  14.807
24576SOL    HW175567  13.076   4.846   0.006
24576SOL    HW275568  13.052   4.837  14.731
24577SOL     OW75569   4.838   5.714   0.833
24577SOL    HW175570   4.765   5.714   0.772
24577SOL    HW275571   4.905   5.661   0.790
24578SOL     OW75572  11.933  10.864   8.876
24578SOL    HW175573  12.022  10.862   8.912
24578SOL    HW275574  11.922  10.778   8.835
24579SOL     OW75575   3.424  12.823   8.073
24579SOL    HW175576   3.362  12.776   8.129
24579SOL    HW275577   3.377  12.839   7.992
24580SOL     OW75578   8.519   1.711  11.935
24580SOL    HW175579   8.613   1.700  11.918
24580SOL    HW275580   8.513   1.718  12.030
24581SOL     OW75581   4.609  12.996   2.847
24581SOL    HW175582   4.663  13.002   2.925
24581SOL    HW275583   4.661  13.037   2.778
24582SOL     OW75584  13.550   6.562   6.841
24582SOL    HW175585  13.645   6.558   6.850
24582SOL    HW275586  13.535   6.562   6.746
24583SOL     OW75587   4.276   9.613   7.402
24583SOL    HW175588   4.289   9.616   7.497
24583SOL    HW275589   4.263   9.705   7.377
24584SOL     OW75590  11.983   4.557   0.338
24584SOL    HW175591  12.010   4.565   0.246
24584SOL    HW275592  12.033   4.482   0.371
24585SOL     OW75593  12.819   7.430   2.886
24585SOL    HW175594  12.808   7.461   2.796
24585SOL    HW275595  12.763   7.352   2.891
24586SOL     OW75596   7.946   6.095   0.640
24586SOL    HW175597   7.859   6.058   0.653
24586SOL    HW275598   8.003   6.018   0.628
24587SOL     OW75599   9.748   6.304   4.569
24587SOL    HW175600   9.674   6.249   4.596
24587SOL    HW275601   9.791   6.328   4.650
24588SOL     OW75602  11.189   0.075   1.489
24588SOL    HW175603  11.265   0.042   1.441
24588SOL    HW275604  11.122   0.088   1.421
24589SOL     OW75605   8.174  14.419  12.239
24589SOL    HW175606   8.166  14.491  12.301
24589SOL    HW275607   8.140  14.455  12.156
24590SOL     OW75608   9.318   5.394  14.283
24590SOL    HW175609   9.255   5.386  14.211
24590SOL    HW275610   9.365   5.310  14.283
24591SOL     OW75611  11.454  12.977   1.416
24591SOL    HW175612  11.463  12.904   1.354
24591SOL    HW275613  11.443  12.935   1.501
24592SOL     OW75614   5.181  13.325   7.263
24592SOL    HW175615   5.194  13.329   7.357
24592SOL    HW275616   5.123  13.250   7.250
24593SOL     OW75617  12.146  11.482  12.646
24593SOL    HW175618  12.227  11.437  12.622
24593SOL    HW275619  12.077  11.418  12.628
24594SOL     OW75620  10.822   4.006  12.244
24594SOL    HW175621  10.837   4.023  12.151
24594SOL    HW275622  10.873   3.927  12.263
24595SOL     OW75623   9.756  10.628   3.176
24595SOL    HW175624   9.725  10.650   3.088
24595SOL    HW275625   9.677  10.625   3.230
24596SOL     OW75626  12.734   8.333   4.501
24596SOL    HW175627  12.751   8.301   4.412
24596SOL    HW275628  12.821   8.346   4.538
24597SOL     OW75629   1.910  10.124   9.802
24597SOL    HW175630   1.955  10.200   9.766
24597SOL    HW275631   1.863  10.157   9.878
24598SOL     OW75632   3.778   7.609  10.947
24598SOL    HW175633   3.782   7.535  11.008
24598SOL    HW275634   3.689   7.644  10.959
24599SOL     OW75635  11.851   6.517   3.777
24599SOL    HW175636  11.811   6.520   3.864
24599SOL    HW275637  11.934   6.565   3.786
24600SOL     OW75638  11.568   8.224   7.220
24600SOL    HW175639  11.526   8.249   7.303
24600SOL    HW275640  11.644   8.281   7.214
24601SOL     OW75641   6.779   3.393  12.874
24601SOL    HW175642   6.817   3.475  12.905
24601SOL    HW275643   6.818   3.380  12.788
24602SOL     OW75644   0.254   7.773  14.699
24602SOL    HW175645   0.217   7.807  14.618
24602SOL    HW275646   0.186   7.787  14.764
24603SOL     OW75647   9.091   3.230   8.906
24603SOL    HW175648   9.071   3.171   8.834
24603SOL    HW275649   9.176   3.201   8.938
24604SOL     OW75650  10.788   6.410   5.140
24604SOL    HW175651  10.806   6.502   5.160
24604SOL    HW275652  10.847   6.361   5.197
24605SOL     OW75653   2.908  13.383   1.350
24605SOL    HW175654   2.992  13.348   1.322
24605SOL    HW275655   2.844  13.342   1.293
24606SOL     OW75656   9.866   6.120  12.625
24606SOL    HW175657   9.867   6.031  12.659
24606SOL    HW275658   9.958   6.144  12.614
24607SOL     OW75659  11.869   3.458   1.724
24607SOL    HW175660  11.917   3.379   1.749
24607SOL    HW275661  11.936   3.524   1.711
24608SOL     OW75662  11.111   3.627   1.078
24608SOL    HW175663  11.180   3.613   1.013
24608SOL    HW275664  11.146   3.589   1.158
24609SOL     OW75665  11.282   5.921  10.854
24609SOL    HW175666  11.245   5.843  10.813
24609SOL    HW275667  11.336   5.887  10.925
24610SOL     OW75668   8.825   6.005   2.999
24610SOL    HW175669   8.733   6.028   3.005
24610SOL    HW275670   8.834   5.926   3.053
24611SOL     OW75671  12.121  14.215   0.546
24611SOL    HW175672  12.083  14.136   0.584
24611SOL    HW275673  12.047  14.275   0.535
24612SOL     OW75674   7.360   7.683   2.615
24612SOL    HW175675   7.353   7.594   2.581
24612SOL    HW275676   7.433   7.721   2.567
24613SOL     OW75677  14.088  10.447  11.986
24613SOL    HW175678  14.105  10.404  12.070
24613SOL    HW275679  14.174  10.470  11.953
24614SOL     OW75680  12.755   9.466   2.764
24614SOL    HW175681  12.670   9.502   2.737
24614SOL    HW275682  12.752   9.374   2.736
24615SOL     OW75683  12.341   3.130   2.034
24615SOL    HW175684  12.347   3.221   2.005
24615SOL    HW275685  12.431   3.099   2.035
24616SOL     OW75686  10.535   9.105  10.015
24616SOL    HW175687  10.590   9.079   9.941
24616SOL    HW275688  10.534   9.201  10.012
24617SOL     OW75689   1.957   0.651   9.045
24617SOL    HW175690   1.874   0.668   9.001
24617SOL    HW275691   2.005   0.594   8.984
24618SOL     OW75692   2.828   7.929   6.441
24618SOL    HW175693   2.814   8.021   6.466
24618SOL    HW275694   2.893   7.934   6.371
24619SOL     OW75695  10.350  10.265   6.108
24619SOL    HW175696  10.278  10.204   6.092
24619SOL    HW275697  10.307  10.348   6.129
24620SOL     OW75698   8.147   7.808   9.219
24620SOL    HW175699   8.136   7.794   9.314
24620SOL    HW275700   8.118   7.726   9.179
24621SOL     OW75701   9.288  12.498  12.529
24621SOL    HW175702   9.224  12.428  12.515
24621SOL    HW275703   9.365  12.470  12.480
24622SOL     OW75704   8.660   8.709  10.481
24622SOL    HW175705   8.577   8.674  10.448
24622SOL    HW275706   8.727   8.661  10.432
24623SOL     OW75707   3.633   8.099  14.648
24623SOL    HW175708   3.595   8.024  14.603
24623SOL    HW275709   3.566   8.127  14.710
24624SOL     OW75710   5.255   3.554   5.008
24624SOL    HW175711   5.311   3.477   4.996
24624SOL    HW275712   5.172   3.532   4.966
24625SOL     OW75713   2.269   1.553   4.374
24625SOL    HW175714   2.215   1.475   4.362
24625SOL    HW275715   2.340   1.525   4.432
24626SOL     OW75716   1.257  12.724   5.361
24626SOL    HW175717   1.317  12.772   5.418
24626SOL    HW275718   1.245  12.781   5.286
24627SOL     OW75719   2.334  11.821   3.654
24627SOL    HW175720   2.343  11.729   3.628
24627SOL    HW275721   2.315  11.867   3.573
24628SOL     OW75722   1.941   0.013   9.948
24628SOL    HW175723   1.968   0.081  10.009
24628SOL    HW275724   1.940   0.056   9.863
24629SOL     OW75725   4.133   3.689   9.431
24629SOL    HW175726   4.048   3.717   9.464
24629SOL    HW275727   4.129   3.593   9.432
24630SOL     OW75728   4.822   3.897  12.766
24630SOL    HW175729   4.892   3.845  12.727
24630SOL    HW275730   4.803   3.855  12.849
24631SOL     OW75731  11.173   1.707   7.159
24631SOL    HW175732  11.247   1.649   7.142
24631SOL    HW275733  11.213   1.792   7.180
24632SOL     OW75734  11.984   4.342   4.822
24632SOL    HW175735  11.956   4.328   4.913
24632SOL    HW275736  12.002   4.436   4.816
24633SOL     OW75737   7.855  12.194  14.841
24633SOL    HW175738   7.798  12.263   0.001
24633SOL    HW275739   7.890  12.151   0.045
24634SOL     OW75740  11.022   7.661   5.396
24634SOL    HW175741  11.038   7.733   5.457
24634SOL    HW275742  10.927   7.661   5.382
24635SOL     OW75743   6.715   5.833   4.500
24635SOL    HW175744   6.789   5.839   4.440
24635SOL    HW275745   6.671   5.918   4.493
24636SOL     OW75746   9.899  11.423   3.058
24636SOL    HW175747   9.956  11.489   3.017
24636SOL    HW275748   9.811  11.455   3.043
24637SOL     OW75749  13.306   8.994   9.825
24637SOL    HW175750  13.332   9.023   9.737
24637SOL    HW275751  13.334   8.902   9.828
24638SOL     OW75752   1.316   5.881   4.861
24638SOL    HW175753   1.286   5.969   4.886
24638SOL    HW275754   1.396   5.896   4.811
24639SOL     OW75755   2.589   0.239   9.182
24639SOL    HW175756   2.520   0.190   9.227
24639SOL    HW275757   2.611   0.310   9.242
24640SOL     OW75758  12.276  13.103   4.419
24640SOL    HW175759  12.214  13.172   4.445
24640SOL    HW275760  12.321  13.139   4.343
24641SOL     OW75761   3.685  14.032   7.110
24641SOL    HW175762   3.746  13.964   7.081
24641SOL    HW275763   3.602  14.010   7.067
24642SOL     OW75764   3.618   7.651   2.802
24642SOL    HW175765   3.662   7.567   2.807
24642SOL    HW275766   3.677   7.712   2.845
24643SOL     OW75767   4.550   3.293   2.499
24643SOL    HW175768   4.510   3.251   2.575
24643SOL    HW275769   4.476   3.328   2.449
24644SOL     OW75770   3.871  12.783   5.793
24644SOL    HW175771   3.946  12.813   5.844
24644SOL    HW275772   3.861  12.849   5.724
24645SOL     OW75773   4.168   2.715   8.714
24645SOL    HW175774   4.075   2.693   8.715
24645SOL    HW275775   4.207   2.656   8.650
24646SOL     OW75776  10.413   4.137   1.976
24646SOL    HW175777  10.395   4.142   2.070
24646SOL    HW275778  10.394   4.224   1.943
24647SOL     OW75779  14.553  12.199  13.247
24647SOL    HW175780  14.478  12.160  13.201
24647SOL    HW275781  14.516  12.275  13.292
24648SOL     OW75782  11.303  11.928   9.977
24648SOL    HW175783  11.294  11.927   9.882
24648SOL    HW275784  11.398  11.922   9.992
24649SOL     OW75785   1.992  12.139   5.825
24649SOL    HW175786   2.081  12.172   5.837
24649SOL    HW275787   1.955  12.137   5.913
24650SOL     OW75788   0.685  12.788   6.368
24650SOL    HW175789   0.680  12.729   6.293
24650SOL    HW275790   0.739  12.742   6.432
24651SOL     OW75791  12.828   4.839   3.146
24651SOL    HW175792  12.793   4.854   3.059
24651SOL    HW275793  12.891   4.767   3.135
24652SOL     OW75794  10.599   0.933   4.946
24652SOL    HW175795  10.620   0.870   4.877
24652SOL    HW275796  10.639   0.896   5.025
24653SOL     OW75797   1.428   8.606  14.793
24653SOL    HW175798   1.391   8.607  14.704
24653SOL    HW275799   1.376   8.540  14.839
24654SOL     OW75800   6.366   8.068   6.809
24654SOL    HW175801   6.440   8.093   6.754
24654SOL    HW275802   6.369   7.973   6.812
24655SOL     OW75803   1.846   9.321   9.543
24655SOL    HW175804   1.770   9.277   9.505
24655SOL    HW275805   1.814   9.407   9.569
24656SOL     OW75806   2.984   5.882   3.535
24656SOL    HW175807   3.001   5.972   3.506
24656SOL    HW275808   3.012   5.881   3.627
24657SOL     OW75809   7.894   0.918   8.735
24657SOL    HW175810   7.965   0.971   8.771
24657SOL    HW275811   7.937   0.846   8.689
24658SOL     OW75812  10.366   2.593   8.643
24658SOL    HW175813  10.303   2.521   8.652
24658SOL    HW275814  10.370   2.632   8.730
24659SOL     OW75815  12.566  10.460   2.244
24659SOL    HW175816  12.540  10.431   2.331
24659SOL    HW275817  12.570  10.556   2.251
24660SOL     OW75818   0.372   7.619  10.542
24660SOL    HW175819   0.392   7.538  10.588
24660SOL    HW275820   0.376   7.687  10.609
24661SOL     OW75821   8.956   5.073   3.456
24661SOL    HW175822   9.026   5.026   3.411
24661SOL    HW275823   9.001   5.129   3.519
24662SOL     OW75824   6.987   1.586   8.737
24662SOL    HW175825   6.977   1.503   8.690
24662SOL    HW275826   6.988   1.652   8.668
24663SOL     OW75827   8.873  13.574   9.872
24663SOL    HW175828   8.794  13.519   9.869
24663SOL    HW275829   8.916  13.558   9.788
24664SOL     OW75830  14.529   0.400  10.635
24664SOL    HW175831  14.514   0.495  10.640
24664SOL    HW275832  14.548   0.384  10.542
24665SOL     OW75833   2.230   9.419   4.933
24665SOL    HW175834   2.222   9.419   4.838
24665SOL    HW275835   2.151   9.463   4.964
24666SOL     OW75836  10.603   0.814   4.416
24666SOL    HW175837  10.510   0.832   4.406
24666SOL    HW275838  10.617   0.733   4.366
24667SOL     OW75839  14.721  13.300   6.466
24667SOL    HW175840  14.691  13.274   6.379
24667SOL    HW275841  14.793  13.241   6.485
24668SOL     OW75842   4.811  11.693   2.284
24668SOL    HW175843   4.842  11.784   2.278
24668SOL    HW275844   4.736  11.690   2.225
24669SOL     OW75845   8.793  11.576   7.783
24669SOL    HW175846   8.724  11.591   7.719
24669SOL    HW275847   8.746  11.562   7.866
24670SOL     OW75848  13.617   5.180  14.507
24670SOL    HW175849  13.707   5.163  14.533
24670SOL    HW275850  13.612   5.153  14.415
24671SOL     OW75851   9.419  10.828  14.180
24671SOL    HW175852   9.340  10.774  14.184
24671SOL    HW275853   9.491  10.765  14.170
24672SOL     OW75854   7.984  13.944  12.682
24672SOL    HW175855   7.941  13.920  12.764
24672SOL    HW275856   8.035  14.022  12.704
24673SOL     OW75857   8.701   5.731  12.090
24673SOL    HW175858   8.687   5.643  12.123
24673SOL    HW275859   8.715   5.785  12.168
24674SOL     OW75860  12.246  13.732   9.548
24674SOL    HW175861  12.276  13.671   9.615
24674SOL    HW275862  12.157  13.705   9.528
24675SOL     OW75863   6.699   7.931   3.248
24675SOL    HW175864   6.644   7.958   3.175
24675SOL    HW275865   6.648   7.951   3.327
24676SOL     OW75866  11.245   8.175   8.964
24676SOL    HW175867  11.233   8.269   8.948
24676SOL    HW275868  11.319   8.171   9.026
24677SOL     OW75869   6.297   0.175   6.571
24677SOL    HW175870   6.256   0.196   6.488
24677SOL    HW275871   6.387   0.207   6.563
24678SOL     OW75872  11.537   3.223   5.119
24678SOL    HW175873  11.447   3.256   5.123
24678SOL    HW275874  11.590   3.293   5.158
24679SOL     OW75875   8.804  12.288  13.923
24679SOL    HW175876   8.710  12.291  13.941
24679SOL    HW275877   8.836  12.375  13.948
24680SOL     OW75878  14.103   7.107   9.503
24680SOL    HW175879  14.151   7.043   9.556
24680SOL    HW275880  14.017   7.067   9.489
24681SOL     OW75881   9.620   2.832  13.407
24681SOL    HW175882   9.715   2.838  13.398
24681SOL    HW275883   9.587   2.884  13.333
24682SOL     OW75884   0.981   3.200   0.053
24682SOL    HW175885   0.957   3.267   0.117
24682SOL    HW275886   0.906   3.195  14.868
24683SOL     OW75887   0.189   2.425  13.804
24683SOL    HW175888   0.184   2.350  13.864
24683SOL    HW275889   0.196   2.385  13.717
24684SOL     OW75890  12.101   6.328   6.710
24684SOL    HW175891  12.102   6.290   6.798
24684SOL    HW275892  12.008   6.343   6.691
24685SOL     OW75893   0.540   3.029  10.133
24685SOL    HW175894   0.449   3.024  10.162
24685SOL    HW275895   0.582   3.088  10.195
24686SOL     OW75896   5.845   9.920   5.540
24686SOL    HW175897   5.902   9.996   5.554
24686SOL    HW275898   5.767   9.956   5.497
24687SOL     OW75899   8.850   0.461  13.023
24687SOL    HW175900   8.923   0.522  13.013
24687SOL    HW275901   8.852   0.434  13.115
24688SOL     OW75902   6.540  13.110   0.271
24688SOL    HW175903   6.495  13.180   0.318
24688SOL    HW275904   6.472  13.068   0.218
24689SOL     OW75905  14.099  12.352   1.508
24689SOL    HW175906  14.135  12.441   1.516
24689SOL    HW275907  14.033  12.348   1.577
24690SOL     OW75908   6.117   8.473  10.743
24690SOL    HW175909   6.050   8.516  10.689
24690SOL    HW275910   6.111   8.517  10.827
24691SOL     OW75911   5.751   5.307   3.376
24691SOL    HW175912   5.668   5.328   3.420
24691SOL    HW275913   5.790   5.239   3.430
24692SOL     OW75914  12.397   9.112   1.449
24692SOL    HW175915  12.365   9.134   1.536
24692SOL    HW275916  12.491   9.131   1.453
24693SOL     OW75917  14.067   6.672  10.807
24693SOL    HW175918  14.065   6.642  10.716
24693SOL    HW275919  14.005   6.615  10.852
24694SOL     OW75920   9.225   9.498  11.806
24694SOL    HW175921   9.175   9.419  11.828
24694SOL    HW275922   9.178   9.569  11.850
24695SOL     OW75923   2.209  11.400   8.659
24695SOL    HW175924   2.206  11.313   8.618
24695SOL    HW275925   2.299  11.429   8.646
24696SOL     OW75926  11.437   4.714  10.757
24696SOL    HW175927  11.412   4.683  10.844
24696SOL    HW275928  11.434   4.810  10.764
24697SOL     OW75929  14.180  13.547   7.260
24697SOL    HW175930  14.204  13.606   7.189
24697SOL    HW275931  14.260  13.497   7.278
24698SOL     OW75932   6.292   5.127   4.312
24698SOL    HW175933   6.273   5.206   4.363
24698SOL    HW275934   6.301   5.159   4.222
24699SOL     OW75935   9.144  13.301   2.333
24699SOL    HW175936   9.090  13.244   2.279
24699SOL    HW275937   9.082  13.358   2.378
24700SOL     OW75938  12.212   0.289   6.463
24700SOL    HW175939  12.277   0.331   6.520
24700SOL    HW275940  12.150   0.359   6.442
24701SOL     OW75941   0.138  13.365   3.179
24701SOL    HW175942   0.180  13.317   3.108
24701SOL    HW275943   0.047  13.378   3.149
24702SOL     OW75944   9.312   4.250   7.667
24702SOL    HW175945   9.258   4.328   7.680
24702SOL    HW275946   9.288   4.217   7.581
24703SOL     OW75947   9.764   9.900   1.625
24703SOL    HW175948   9.808   9.845   1.560
24703SOL    HW275949   9.810   9.984   1.620
24704SOL     OW75950  10.802  13.606   3.100
24704SOL    HW175951  10.864  13.546   3.059
24704SOL    HW275952  10.716  13.570   3.078
24705SOL     OW75953   6.565   6.049   4.502
24705SOL    HW175954   6.493   6.077   4.558
24705SOL    HW275955   6.541   6.080   4.415
24706SOL     OW75956   4.956   5.593  14.198
24706SOL    HW175957   4.941   5.688  14.200
24706SOL    HW275958   4.877   5.556  14.238
24707SOL     OW75959   7.565  12.633  10.817
24707SOL    HW175960   7.615  12.592  10.887
24707SOL    HW275961   7.492  12.675  10.861
24708SOL     OW75962   5.167   5.429  12.140
24708SOL    HW175963   5.201   5.518  12.131
24708SOL    HW275964   5.218   5.391  12.211
24709SOL     OW75965   6.552  10.831   5.087
24709SOL    HW175966   6.512  10.850   5.172
24709SOL    HW275967   6.477  10.823   5.027
24710SOL     OW75968   3.252   9.624   4.819
24710SOL    HW175969   3.298   9.550   4.779
24710SOL    HW275970   3.170   9.587   4.851
24711SOL     OW75971   5.756   4.240   2.843
24711SOL    HW175972   5.752   4.302   2.916
24711SOL    HW275973   5.682   4.263   2.787
24712SOL     OW75974  12.203   0.559  12.217
24712SOL    HW175975  12.114   0.579  12.243
24712SOL    HW275976  12.227   0.481  12.268
24713SOL     OW75977   6.567  10.637   8.121
24713SOL    HW175978   6.625  10.565   8.146
24713SOL    HW275979   6.521  10.605   8.044
24714SOL     OW75980  12.130   7.688  10.224
24714SOL    HW175981  12.163   7.606  10.187
24714SOL    HW275982  12.133   7.750  10.151
24715SOL     OW75983  12.879  10.299   7.458
24715SOL    HW175984  12.883  10.390   7.429
24715SOL    HW275985  12.970  10.269   7.458
24716SOL     OW75986   5.690   1.055  10.813
24716SOL    HW175987   5.736   1.072  10.731
24716SOL    HW275988   5.738   1.105  10.879
24717SOL     OW75989   0.376   7.924  13.582
24717SOL    HW175990   0.408   7.865  13.651
24717SOL    HW275991   0.447   7.927  13.518
24718SOL     OW75992   1.392   9.718   8.974
24718SOL    HW175993   1.456   9.674   8.919
24718SOL    HW275994   1.441   9.791   9.013
24719SOL     OW75995   7.141  14.615   7.633
24719SOL    HW175996   7.228  14.620   7.593
24719SOL    HW275997   7.132  14.697   7.682
24720SOL     OW75998  11.272   7.566   5.472
24720SOL    HW175999  11.247   7.520   5.551
24720SOL    HW276000  11.189   7.596   5.435
24721SOL     OW76001   9.988   5.929  13.063
24721SOL    HW176002   9.895   5.949  13.064
24721SOL    HW276003  10.012   5.923  13.156
24722SOL     OW76004   4.726  11.072  12.357
24722SOL    HW176005   4.678  11.132  12.415
24722SOL    HW276006   4.660  11.008  12.329
24723SOL     OW76007  12.072   3.990   6.766
24723SOL    HW176008  12.143   3.933   6.797
24723SOL    HW276009  12.002   3.929   6.742
24724SOL     OW76010  13.221   5.059  12.169
24724SOL    HW176011  13.138   5.067  12.123
24724SOL    HW276012  13.267   4.988  12.124
24725SOL     OW76013  11.754   0.700   2.346
24725SOL    HW176014  11.712   0.614   2.355
24725SOL    HW276015  11.841   0.681   2.310
24726SOL     OW76016   1.178   4.517   8.827
24726SOL    HW176017   1.139   4.563   8.902
24726SOL    HW276018   1.175   4.425   8.852
24727SOL     OW76019   6.234   5.559  11.791
24727SOL    HW176020   6.290   5.599  11.725
24727SOL    HW276021   6.168   5.626  11.809
24728SOL     OW76022   8.235  13.212  13.509
24728SOL    HW176023   8.267  13.235  13.422
24728SOL    HW276024   8.211  13.120  13.502
24729SOL     OW76025   7.174   4.196  12.449
24729SOL    HW176026   7.211   4.261  12.389
24729SOL    HW276027   7.249   4.147  12.482
24730SOL     OW76028   2.043  10.129   5.408
24730SOL    HW176029   2.006  10.217   5.401
24730SOL    HW276030   1.982  10.074   5.358
24731SOL     OW76031   4.477   8.618   6.283
24731SOL    HW176032   4.490   8.523   6.280
24731SOL    HW276033   4.404   8.630   6.344
24732SOL     OW76034   6.997   8.634  12.175
24732SOL    HW176035   6.924   8.662  12.120
24732SOL    HW276036   7.075   8.649  12.122
24733SOL     OW76037   7.775  10.733   0.591
24733SOL    HW176038   7.869  10.744   0.601
24733SOL    HW276039   7.753  10.661   0.650
24734SOL     OW76040  10.544  11.302  11.511
24734SOL    HW176041  10.511  11.386  11.543
24734SOL    HW276042  10.467  11.258  11.475
24735SOL     OW76043  11.977   2.991   7.115
24735SOL    HW176044  11.903   2.963   7.168
24735SOL    HW276045  12.044   3.016   7.179
24736SOL     OW76046   5.652  10.713  12.272
24736SOL    HW176047   5.722  10.732  12.209
24736SOL    HW276048   5.699  10.696  12.354
24737SOL     OW76049  10.600   5.163   8.296
24737SOL    HW176050  10.591   5.109   8.375
24737SOL    HW276051  10.678   5.129   8.253
24738SOL     OW76052  14.236   7.755   1.346
24738SOL    HW176053  14.242   7.729   1.438
24738SOL    HW276054  14.192   7.840   1.347
24739SOL     OW76055   6.733  10.672   4.454
24739SOL    HW176056   6.727  10.717   4.370
24739SOL    HW276057   6.711  10.739   4.519
24740SOL     OW76058   7.499  13.509  11.928
24740SOL    HW176059   7.480  13.515  12.021
24740SOL    HW276060   7.593  13.528  11.922
24741SOL     OW76061  12.289  10.346   5.237
24741SOL    HW176062  12.248  10.391   5.164
24741SOL    HW276063  12.219  10.290   5.272
24742SOL     OW76064  13.629   2.986   9.766
24742SOL    HW176065  13.652   2.954   9.853
24742SOL    HW276066  13.534   2.980   9.762
24743SOL     OW76067  13.815  14.442   8.023
24743SOL    HW176068  13.779  14.433   7.935
24743SOL    HW276069  13.851  14.356   8.043
24744SOL     OW76070  10.005   8.060   8.450
24744SOL    HW176071  10.012   8.091   8.360
24744SOL    HW276072  10.020   7.966   8.445
24745SOL     OW76073  14.743   2.604  13.894
24745SOL    HW176074  14.834   2.628  13.913
24745SOL    HW276075  14.700   2.688  13.877
24746SOL     OW76076   0.315   3.495  12.110
24746SOL    HW176077   0.266   3.508  12.191
24746SOL    HW276078   0.261   3.436  12.058
24747SOL     OW76079   2.074   3.526  13.527
24747SOL    HW176080   2.053   3.567  13.444
24747SOL    HW276081   2.169   3.531  13.533
24748SOL     OW76082  14.490  11.453   8.746
24748SOL    HW176083  14.439  11.375   8.765
24748SOL    HW276084  14.577  11.421   8.725
24749SOL     OW76085   1.117  12.495   2.008
24749SOL    HW176086   1.138  12.568   1.950
24749SOL    HW276087   1.029  12.514   2.040
24750SOL     OW76088   9.594   2.707   8.631
24750SOL    HW176089   9.623   2.630   8.679
24750SOL    HW276090   9.589   2.776   8.697
24751SOL     OW76091  12.341   6.454   8.004
24751SOL    HW176092  12.364   6.500   8.084
24751SOL    HW276093  12.253   6.485   7.982
24752SOL     OW76094   6.852   7.195  12.750
24752SOL    HW176095   6.766   7.207  12.791
24752SOL    HW276096   6.908   7.162  12.821
24753SOL     OW76097  12.559  10.135   2.452
24753SOL    HW176098  12.627  10.192   2.488
24753SOL    HW276099  12.585  10.120   2.362
24754SOL     OW76100   7.402   0.009   3.881
24754SOL    HW176101   7.312   0.002   3.915
24754SOL    HW276102   7.395  14.858   3.789
24755SOL     OW76103   4.961   1.522   0.990
24755SOL    HW176104   4.946   1.431   0.965
24755SOL    HW276105   4.884   1.545   1.043
24756SOL     OW76106  10.764   9.682  10.536
24756SOL    HW176107  10.780   9.588  10.539
24756SOL    HW276108  10.797   9.714  10.620
24757SOL     OW76109   5.103   3.876  14.092
24757SOL    HW176110   5.060   3.958  14.068
24757SOL    HW276111   5.109   3.828  14.010
24758SOL     OW76112  12.503   8.579   2.775
24758SOL    HW176113  12.595   8.583   2.749
24758SOL    HW276114  12.499   8.511   2.842
24759SOL     OW76115  11.954   7.176   0.333
24759SOL    HW176116  11.898   7.240   0.288
24759SOL    HW276117  11.980   7.115   0.264
24760SOL     OW76118   3.808  14.081   5.699
24760SOL    HW176119   3.778  14.172   5.695
24760SOL    HW276120   3.738  14.034   5.744
24761SOL     OW76121   0.373   1.517   7.146
24761SOL    HW176122   0.445   1.524   7.084
24761SOL    HW276123   0.294   1.525   7.092
24762SOL     OW76124   2.096   6.195   7.982
24762SOL    HW176125   2.107   6.269   8.041
24762SOL    HW276126   2.127   6.120   8.033
24763SOL     OW76127   6.371  14.449  10.324
24763SOL    HW176128   6.339  14.532  10.288
24763SOL    HW276129   6.439  14.474  10.386
24764SOL     OW76130  11.285  14.698   1.090
24764SOL    HW176131  11.337  14.679   1.168
24764SOL    HW276132  11.230  14.620   1.079
24765SOL     OW76133   7.419   9.915   1.620
24765SOL    HW176134   7.337   9.927   1.668
24765SOL    HW276135   7.400   9.947   1.532
24766SOL     OW76136  13.328  10.905   8.976
24766SOL    HW176137  13.252  10.952   8.941
24766SOL    HW276138  13.300  10.813   8.978
24767SOL     OW76139   8.367  10.632  13.257
24767SOL    HW176140   8.305  10.703  13.271
24767SOL    HW276141   8.407  10.652  13.172
24768SOL     OW76142  13.203  13.136   9.393
24768SOL    HW176143  13.211  13.158   9.300
24768SOL    HW276144  13.251  13.054   9.403
24769SOL     OW76145   5.029  11.000   9.276
24769SOL    HW176146   5.027  11.091   9.247
24769SOL    HW276147   4.978  11.000   9.358
24770SOL     OW76148  11.999   7.811   9.040
24770SOL    HW176149  11.989   7.848   8.953
24770SOL    HW276150  12.033   7.883   9.093
24771SOL     OW76151   8.624   7.886   9.429
24771SOL    HW176152   8.632   7.976   9.399
24771SOL    HW276153   8.713   7.861   9.454
24772SOL     OW76154   8.492  11.734  11.422
24772SOL    HW176155   8.495  11.795  11.496
24772SOL    HW276156   8.422  11.673  11.444
24773SOL     OW76157   6.266   3.823   3.547
24773SOL    HW176158   6.338   3.794   3.603
24773SOL    HW276159   6.274   3.918   3.544
24774SOL     OW76160   2.582  10.351  13.174
24774SOL    HW176161   2.567  10.335  13.081
24774SOL    HW276162   2.656  10.294  13.196
24775SOL     OW76163  12.562   8.381   5.327
24775SOL    HW176164  12.581   8.311   5.265
24775SOL    HW276165  12.599   8.352   5.410
24776SOL     OW76166  12.797  14.675  11.155
24776SOL    HW176167  12.753  14.744  11.106
24776SOL    HW276168  12.730  14.608  11.169
24777SOL     OW76169   5.458  14.851   2.652
24777SOL    HW176170   5.460   0.034   2.574
24777SOL    HW276171   5.459  14.762   2.616
24778SOL     OW76172  13.160   1.130   8.714
24778SOL    HW176173  13.182   1.205   8.659
24778SOL    HW276174  13.064   1.126   8.711
24779SOL     OW76175   0.147  12.992   7.411
24779SOL    HW176176   0.107  13.061   7.464
24779SOL    HW276177   0.180  13.037   7.333
24780SOL     OW76178   3.532   2.993  13.746
24780SOL    HW176179   3.441   2.985  13.774
24780SOL    HW276180   3.580   3.016  13.826
24781SOL     OW76181   1.654   8.332   1.264
24781SOL    HW176182   1.697   8.389   1.328
24781SOL    HW276183   1.725   8.279   1.228
24782SOL     OW76184   0.385   2.925   6.598
24782SOL    HW176185   0.455   2.863   6.581
24782SOL    HW276186   0.417   2.979   6.670
24783SOL     OW76187   9.312   8.843   9.119
24783SOL    HW176188   9.373   8.783   9.076
24783SOL    HW276189   9.233   8.790   9.132
24784SOL     OW76190   1.643   9.980   5.906
24784SOL    HW176191   1.603   9.962   5.821
24784SOL    HW276192   1.613   9.908   5.962
24785SOL     OW76193   1.814  11.552  10.546
24785SOL    HW176194   1.803  11.471  10.595
24785SOL    HW276195   1.803  11.527  10.455
24786SOL     OW76196  11.830   5.566  12.992
24786SOL    HW176197  11.879   5.637  12.950
24786SOL    HW276198  11.813   5.598  13.080
24787SOL     OW76199   7.839   9.484   9.522
24787SOL    HW176200   7.882   9.415   9.472
24787SOL    HW276201   7.752   9.450   9.541
24788SOL     OW76202   6.772  11.277   9.973
24788SOL    HW176203   6.682  11.293  10.003
24788SOL    HW276204   6.819  11.358   9.991
24789SOL     OW76205   1.946   5.702   8.910
24789SOL    HW176206   1.927   5.796   8.906
24789SOL    HW276207   2.018   5.695   8.973
24790SOL     OW76208   4.801  10.514   7.547
24790SOL    HW176209   4.893  10.528   7.525
24790SOL    HW276210   4.796  10.526   7.641
24791SOL     OW76211   7.739   7.469   5.136
24791SOL    HW176212   7.681   7.394   5.126
24791SOL    HW276213   7.750   7.504   5.048
24792SOL     OW76214  14.620   9.086   0.120
24792SOL    HW176215  14.693   9.054   0.067
24792SOL    HW276216  14.655   9.163   0.165
24793SOL     OW76217  13.564   2.765   8.011
24793SOL    HW176218  13.514   2.830   8.061
24793SOL    HW276219  13.594   2.813   7.934
24794SOL     OW76220  11.647   8.770   1.139
24794SOL    HW176221  11.644   8.829   1.214
24794SOL    HW276222  11.641   8.682   1.178
24795SOL     OW76223  13.767   2.871  10.337
24795SOL    HW176224  13.828   2.868  10.411
24795SOL    HW276225  13.719   2.953  10.349
24796SOL     OW76226   6.369   5.996  13.595
24796SOL    HW176227   6.294   6.045  13.628
24796SOL    HW276228   6.359   5.998  13.500
24797SOL     OW76229   9.180   5.387   1.930
24797SOL    HW176230   9.148   5.308   1.887
24797SOL    HW276231   9.250   5.357   1.988
24798SOL     OW76232   3.284  10.497   2.336
24798SOL    HW176233   3.290  10.444   2.416
24798SOL    HW276234   3.223  10.449   2.280
24799SOL     OW76235  14.508   2.050   3.987
24799SOL    HW176236  14.475   1.997   4.060
24799SOL    HW276237  14.586   2.003   3.957
24800SOL     OW76238  14.022   1.564   0.043
24800SOL    HW176239  13.998   1.546  14.827
24800SOL    HW276240  13.947   1.533   0.095
24801SOL     OW76241   3.069   6.243   8.949
24801SOL    HW176242   3.148   6.195   8.924
24801SOL    HW276243   3.028   6.267   8.866
24802SOL     OW76244   4.288   8.694   1.059
24802SOL    HW176245   4.257   8.772   1.014
24802SOL    HW276246   4.305   8.723   1.149
24803SOL     OW76247   1.155   1.952   0.331
24803SOL    HW176248   1.194   1.985   0.412
24803SOL    HW276249   1.209   1.877   0.306
24804SOL     OW76250   6.759  12.694  14.770
24804SOL    HW176251   6.845  12.732  14.754
24804SOL    HW276252   6.773  12.631  14.840
24805SOL     OW76253   0.430   9.245   6.541
24805SOL    HW176254   0.474   9.329   6.526
24805SOL    HW276255   0.501   9.181   6.541
24806SOL     OW76256   3.240   6.130   8.774
24806SOL    HW176257   3.299   6.057   8.789
24806SOL    HW276258   3.228   6.133   8.679
24807SOL     OW76259  11.065   8.986   6.190
24807SOL    HW176260  10.998   8.920   6.207
24807SOL    HW276261  11.090   9.018   6.277
24808SOL     OW76262  10.005  12.394   3.506
24808SOL    HW176263   9.922  12.354   3.480
24808SOL    HW276264   9.983  12.449   3.581
24809SOL     OW76265   7.411   1.526  10.852
24809SOL    HW176266   7.493   1.576  10.851
24809SOL    HW276267   7.425   1.457  10.916
24810SOL     OW76268   9.346  12.297  10.246
24810SOL    HW176269   9.322  12.389  10.254
24810SOL    HW276270   9.347  12.265  10.337
24811SOL     OW76271   6.997   3.608   7.709
24811SOL    HW176272   6.977   3.541   7.643
24811SOL    HW276273   7.025   3.684   7.658
24812SOL     OW76274   0.653   5.112  11.439
24812SOL    HW176275   0.565   5.102  11.476
24812SOL    HW276276   0.697   5.174  11.497
24813SOL     OW76277   1.830   2.506   4.609
24813SOL    HW176278   1.888   2.430   4.602
24813SOL    HW276279   1.879   2.578   4.570
24814SOL     OW76280   8.868  13.153   3.560
24814SOL    HW176281   8.786  13.163   3.608
24814SOL    HW276282   8.872  13.231   3.504
24815SOL     OW76283   0.854   9.236   2.141
24815SOL    HW176284   0.899   9.274   2.066
24815SOL    HW276285   0.883   9.288   2.215
24816SOL     OW76286   5.648   9.058  13.786
24816SOL    HW176287   5.572   9.116  13.788
24816SOL    HW276288   5.648   9.021  13.698
24817SOL     OW76289   9.657   6.128   9.662
24817SOL    HW176290   9.690   6.152   9.749
24817SOL    HW276291   9.597   6.199   9.638
24818SOL     OW76292   0.163   7.992  10.116
24818SOL    HW176293   0.090   7.971  10.174
24818SOL    HW276294   0.241   7.977  10.170
24819SOL     OW76295  13.877  14.538   4.940
24819SOL    HW176296  13.783  14.525   4.924
24819SOL    HW276297  13.898  14.476   5.010
24820SOL     OW76298   4.620  12.404   4.274
24820SOL    HW176299   4.556  12.389   4.204
24820SOL    HW276300   4.621  12.499   4.285
24821SOL     OW76301  14.821  10.774   5.119
24821SOL    HW176302  14.807  10.682   5.141
24821SOL    HW276303  14.797  10.780   5.027
24822SOL     OW76304   3.038   5.583   7.962
24822SOL    HW176305   3.115   5.526   7.956
24822SOL    HW276306   3.018   5.604   7.870
24823SOL     OW76307  14.240   7.440   6.486
24823SOL    HW176308  14.293   7.395   6.420
24823SOL    HW276309  14.194   7.508   6.437
24824SOL     OW76310   1.749  14.579   7.812
24824SOL    HW176311   1.829  14.619   7.777
24824SOL    HW276312   1.775  14.542   7.896
24825SOL     OW76313   5.669   1.329   7.395
24825SOL    HW176314   5.689   1.236   7.391
24825SOL    HW276315   5.592   1.340   7.339
24826SOL     OW76316  10.340   5.111   9.656
24826SOL    HW176317  10.359   5.074   9.570
24826SOL    HW276318  10.309   5.200   9.638
24827SOL     OW76319   1.802   1.356  12.460
24827SOL    HW176320   1.868   1.328  12.523
24827SOL    HW276321   1.804   1.289  12.392
24828SOL     OW76322   5.729   3.311  13.538
24828SOL    HW176323   5.771   3.337  13.456
24828SOL    HW276324   5.636   3.328  13.524
24829SOL     OW76325  14.784  10.437  14.060
24829SOL    HW176326  14.834  10.356  14.048
24829SOL    HW276327  14.692  10.409  14.057
24830SOL     OW76328   2.741  12.433   5.490
24830SOL    HW176329   2.832  12.405   5.484
24830SOL    HW276330   2.696  12.385   5.421
24831SOL     OW76331  14.477   7.968   0.740
24831SOL    HW176332  14.418   7.919   0.683
24831SOL    HW276333  14.481   7.918   0.821
24832SOL     OW76334   6.400  10.719  14.122
24832SOL    HW176335   6.457  10.777  14.172
24832SOL    HW276336   6.457  10.647  14.094
24833SOL     OW76337   5.735  14.626   8.242
24833SOL    HW176338   5.811  14.656   8.192
24833SOL    HW276339   5.660  14.662   8.196
24834SOL     OW76340   4.533   3.417   3.342
24834SOL    HW176341   4.498   3.477   3.276
24834SOL    HW276342   4.628   3.429   3.337
24835SOL     OW76343  12.247   3.033   4.542
24835SOL    HW176344  12.315   3.047   4.476
24835SOL    HW276345  12.173   2.997   4.492
24836SOL     OW76346   5.690  11.372   6.490
24836SOL    HW176347   5.687  11.322   6.572
24836SOL    HW276348   5.598  11.397   6.474
24837SOL     OW76349   1.021   4.909   5.024
24837SOL    HW176350   1.039   5.003   5.021
24837SOL    HW276351   1.081   4.875   5.092
24838SOL     OW76352   6.471   1.197  11.525
24838SOL    HW176353   6.517   1.279  11.542
24838SOL    HW276354   6.530   1.129  11.561
24839SOL     OW76355  13.914   2.626  10.732
24839SOL    HW176356  13.851   2.587  10.671
24839SOL    HW276357  13.899   2.720  10.726
24840SOL     OW76358   5.236  10.523   7.291
24840SOL    HW176359   5.246  10.485   7.203
24840SOL    HW276360   5.289  10.466   7.348
24841SOL     OW76361  10.922   6.678  13.996
24841SOL    HW176362  10.938   6.583  14.001
24841SOL    HW276363  10.828   6.686  13.981
24842SOL     OW76364  11.072   1.857   9.722
24842SOL    HW176365  11.123   1.825   9.648
24842SOL    HW276366  11.134   1.857   9.795
24843SOL     OW76367  10.872   3.530   4.427
24843SOL    HW176368  10.820   3.609   4.411
24843SOL    HW276369  10.898   3.536   4.519
24844SOL     OW76370   1.716   2.426   5.983
24844SOL    HW176371   1.799   2.423   6.032
24844SOL    HW276372   1.679   2.511   6.004
24845SOL     OW76373  14.360  11.264  12.586
24845SOL    HW176374  14.367  11.175  12.619
24845SOL    HW276375  14.372  11.256  12.492
24846SOL     OW76376   9.380   1.868   7.306
24846SOL    HW176377   9.335   1.824   7.233
24846SOL    HW276378   9.434   1.935   7.265
24847SOL     OW76379  10.152   4.993  10.507
24847SOL    HW176380  10.151   5.086  10.530
24847SOL    HW276381  10.065   4.961  10.531
24848SOL     OW76382   7.373   8.333   3.001
24848SOL    HW176383   7.372   8.241   2.974
24848SOL    HW276384   7.455   8.343   3.049
24849SOL     OW76385   7.795   0.151   9.941
24849SOL    HW176386   7.711   0.146   9.987
24849SOL    HW276387   7.813   0.245   9.935
24850SOL     OW76388   1.146  10.769  12.816
24850SOL    HW176389   1.074  10.708  12.801
24850SOL    HW276390   1.104  10.850  12.846
24851SOL     OW76391  14.551   1.115  11.409
24851SOL    HW176392  14.595   1.156  11.483
24851SOL    HW276393  14.495   1.183  11.373
24852SOL     OW76394   7.809  13.261   8.064
24852SOL    HW176395   7.756  13.185   8.042
24852SOL    HW276396   7.898  13.236   8.041
24853SOL     OW76397   5.289   3.723   9.984
24853SOL    HW176398   5.218   3.730  10.048
24853SOL    HW276399   5.281   3.802   9.931
24854SOL     OW76400  12.591  13.283  12.361
24854SOL    HW176401  12.557  13.368  12.389
24854SOL    HW276402  12.521  13.246  12.307
24855SOL     OW76403   2.523   0.402   3.477
24855SOL    HW176404   2.561   0.436   3.558
24855SOL    HW276405   2.483   0.479   3.435
24856SOL     OW76406   3.355  12.256   1.788
24856SOL    HW176407   3.352  12.248   1.884
24856SOL    HW276408   3.273  12.298   1.765
24857SOL     OW76409   6.962   5.255   4.607
24857SOL    HW176410   6.964   5.350   4.600
24857SOL    HW276411   6.915   5.225   4.530
24858SOL     OW76412   1.714   8.306   0.878
24858SOL    HW176413   1.738   8.396   0.897
24858SOL    HW276414   1.794   8.266   0.845
24859SOL     OW76415  12.491   4.941   7.607
24859SOL    HW176416  12.404   4.920   7.640
24859SOL    HW276417  12.531   4.856   7.589
24860SOL     OW76418  11.223  14.061   6.217
24860SOL    HW176419  11.135  14.051   6.180
24860SOL    HW276420  11.280  14.072   6.142
24861SOL     OW76421   4.472   2.564   7.987
24861SOL    HW176422   4.381   2.560   8.016
24861SOL    HW276423   4.508   2.477   8.007
24862SOL     OW76424  14.002  11.050  13.413
24862SOL    HW176425  14.017  10.976  13.471
24862SOL    HW276426  14.024  11.016  13.326
24863SOL     OW76427  13.100   0.222   7.759
24863SOL    HW176428  13.060   0.136   7.751
24863SOL    HW276429  13.164   0.212   7.830
24864SOL     OW76430  12.784  14.339   7.826
24864SOL    HW176431  12.814  14.327   7.736
24864SOL    HW276432  12.863  14.353   7.877
24865SOL     OW76433   2.275   8.180   0.154
24865SOL    HW176434   2.266   8.085   0.163
24865SOL    HW276435   2.355   8.201   0.202
24866SOL     OW76436   4.042   8.611   0.220
24866SOL    HW176437   3.989   8.664   0.161
24866SOL    HW276438   3.988   8.534   0.238
24867SOL     OW76439  12.800  11.207   0.454
24867SOL    HW176440  12.750  11.288   0.446
24867SOL    HW276441  12.864  11.225   0.523
24868SOL     OW76442  11.643   5.527   6.556
24868SOL    HW176443  11.598   5.459   6.507
24868SOL    HW276444  11.691   5.480   6.625
24869SOL     OW76445  12.233  13.093   8.999
24869SOL    HW176446  12.185  13.014   8.975
24869SOL    HW276447  12.303  13.100   8.934
24870SOL     OW76448   3.171   2.425   5.228
24870SOL    HW176449   3.080   2.395   5.221
24870SOL    HW276450   3.223   2.346   5.214
24871SOL     OW76451   6.168   3.478   8.122
24871SOL    HW176452   6.222   3.430   8.059
24871SOL    HW276453   6.089   3.425   8.132
24872SOL     OW76454   8.395  11.778  12.587
24872SOL    HW176455   8.300  11.778  12.588
24872SOL    HW276456   8.421  11.808  12.674
24873SOL     OW76457  12.249  11.752  10.932
24873SOL    HW176458  12.330  11.805  10.929
24873SOL    HW276459  12.280  11.662  10.940
24874SOL     OW76460  12.777   1.496  14.196
24874SOL    HW176461  12.815   1.584  14.203
24874SOL    HW276462  12.842   1.446  14.146
24875SOL     OW76463   7.379   2.945  11.947
24875SOL    HW176464   7.293   2.903  11.945
24875SOL    HW276465   7.426   2.906  11.873
24876SOL     OW76466   3.820   4.726  13.384
24876SOL    HW176467   3.853   4.640  13.358
24876SOL    HW276468   3.780   4.711  13.470
24877SOL     OW76469  10.427   8.286  13.789
24877SOL    HW176470  10.345   8.312  13.830
24877SOL    HW276471  10.423   8.190  13.784
24878SOL     OW76472   3.317   8.854   9.924
24878SOL    HW176473   3.358   8.864   9.838
24878SOL    HW276474   3.278   8.939   9.942
24879SOL     OW76475   0.690  11.504   2.152
24879SOL    HW176476   0.605  11.459   2.153
24879SOL    HW276477   0.669  11.593   2.123
24880SOL     OW76478   0.026   7.494   2.786
24880SOL    HW176479  14.834   7.484   2.717
24880SOL    HW276480   0.033   7.589   2.798
24881SOL     OW76481  12.431   9.862   9.468
24881SOL    HW176482  12.481   9.796   9.514
24881SOL    HW276483  12.492   9.899   9.404
24882SOL     OW76484   8.168  11.455   2.991
24882SOL    HW176485   8.094  11.428   3.045
24882SOL    HW276486   8.134  11.526   2.936
24883SOL     OW76487   7.402   7.560   2.858
24883SOL    HW176488   7.493   7.587   2.868
24883SOL    HW276489   7.373   7.606   2.779
24884SOL     OW76490  10.565   1.059  12.641
24884SOL    HW176491  10.483   1.038  12.596
24884SOL    HW276492  10.541   1.065  12.733
24885SOL     OW76493  11.501   6.265   8.596
24885SOL    HW176494  11.565   6.208   8.639
24885SOL    HW276495  11.534   6.354   8.612
24886SOL     OW76496  12.617   6.681  10.497
24886SOL    HW176497  12.690   6.670  10.558
24886SOL    HW276498  12.602   6.776  10.495
24887SOL     OW76499  14.869   0.793   6.932
24887SOL    HW176500   0.057   0.789   7.005
24887SOL    HW276501  14.784   0.804   6.973
24888SOL     OW76502  10.594  11.358   7.758
24888SOL    HW176503  10.592  11.296   7.831
24888SOL    HW276504  10.586  11.444   7.800
24889SOL     OW76505   3.059   4.749   0.717
24889SOL    HW176506   3.002   4.672   0.716
24889SOL    HW276507   3.034   4.799   0.640
24890SOL     OW76508   6.479   3.760  14.311
24890SOL    HW176509   6.540   3.688  14.323
24890SOL    HW276510   6.534   3.836  14.295
24891SOL     OW76511   7.500   4.980  11.612
24891SOL    HW176512   7.467   4.894  11.637
24891SOL    HW276513   7.427   5.040  11.629
24892SOL     OW76514   6.962   0.051   2.487
24892SOL    HW176515   6.964   0.132   2.537
24892SOL    HW276516   6.976   0.077   2.396
24893SOL     OW76517  11.331   6.516   8.479
24893SOL    HW176518  11.329   6.421   8.485
24893SOL    HW276519  11.299   6.546   8.565
24894SOL     OW76520   8.718   1.622   8.536
24894SOL    HW176521   8.625   1.640   8.531
24894SOL    HW276522   8.760   1.709   8.534
24895SOL     OW76523   3.546   3.400   2.178
24895SOL    HW176524   3.467   3.454   2.181
24895SOL    HW276525   3.599   3.437   2.108
24896SOL     OW76526  13.878   8.013  12.217
24896SOL    HW176527  13.790   8.042  12.239
24896SOL    HW276528  13.926   8.018  12.300
24897SOL     OW76529  14.584  12.471   6.788
24897SOL    HW176530  14.511  12.424   6.828
24897SOL    HW276531  14.551  12.496   6.701
24898SOL     OW76532   4.856  13.275  14.226
24898SOL    HW176533   4.923  13.328  14.269
24898SOL    HW276534   4.795  13.340  14.190
24899SOL     OW76535   8.334   1.004   4.836
24899SOL    HW176536   8.348   0.974   4.746
24899SOL    HW276537   8.417   0.985   4.880
24900SOL     OW76538   2.424  12.227  10.205
24900SOL    HW176539   2.434  12.226  10.109
24900SOL    HW276540   2.499  12.176  10.237
24901SOL     OW76541  10.472   2.473   3.559
24901SOL    HW176542  10.544   2.491   3.498
24901SOL    HW276543  10.512   2.425   3.631
24902SOL     OW76544  14.650   6.740   3.545
24902SOL    HW176545  14.640   6.806   3.614
24902SOL    HW276546  14.639   6.657   3.590
24903SOL     OW76547  14.847   3.240   2.806
24903SOL    HW176548  14.761   3.201   2.820
24903SOL    HW276549   0.028   3.204   2.875
24904SOL     OW76550  14.624  10.583  11.064
24904SOL    HW176551  14.649  10.519  11.131
24904SOL    HW276552  14.706  10.608  11.023
24905SOL     OW76553   9.404   3.199   5.857
24905SOL    HW176554   9.486   3.175   5.901
24905SOL    HW276555   9.388   3.128   5.795
24906SOL     OW76556   3.056   4.798   6.787
24906SOL    HW176557   2.999   4.871   6.810
24906SOL    HW276558   3.094   4.823   6.703
24907SOL     OW76559   8.257  11.864   1.569
24907SOL    HW176560   8.190  11.925   1.537
24907SOL    HW276561   8.210  11.808   1.632
24908SOL     OW76562  11.783  14.367   5.529
24908SOL    HW176563  11.761  14.276   5.508
24908SOL    HW276564  11.745  14.417   5.457
24909SOL     OW76565   7.854  10.975  10.516
24909SOL    HW176566   7.799  10.902  10.485
24909SOL    HW276567   7.797  11.051  10.511
24910SOL     OW76568  10.972  10.273   6.180
24910SOL    HW176569  11.062  10.256   6.152
24910SOL    HW276570  10.967  10.239   6.269
24911SOL     OW76571  11.145   7.981  10.850
24911SOL    HW176572  11.095   7.927  10.789
24911SOL    HW276573  11.108   7.961  10.936
24912SOL     OW76574   0.663   3.985   9.472
24912SOL    HW176575   0.667   3.895   9.505
24912SOL    HW276576   0.570   4.006   9.473
24913SOL     OW76577  11.269   0.016   0.614
24913SOL    HW176578  11.306  14.870   0.700
24913SOL    HW276579  11.297  14.817   0.559
24914SOL     OW76580   4.034   6.402   6.986
24914SOL    HW176581   4.091   6.402   7.063
24914SOL    HW276582   3.946   6.412   7.022
24915SOL     OW76583  10.695  11.210   2.046
24915SOL    HW176584  10.646  11.194   1.966
24915SOL    HW276585  10.775  11.157   2.037
24916SOL     OW76586  10.369   3.533  14.426
24916SOL    HW176587  10.421   3.613  14.432
24916SOL    HW276588  10.279   3.563  14.414
24917SOL     OW76589   6.846  12.131   2.142
24917SOL    HW176590   6.818  12.192   2.211
24917SOL    HW276591   6.930  12.167   2.112
24918SOL     OW76592  14.482   5.367   6.179
24918SOL    HW176593  14.512   5.456   6.158
24918SOL    HW276594  14.498   5.317   6.099
24919SOL     OW76595  14.239   0.910  12.839
24919SOL    HW176596  14.189   0.854  12.899
24919SOL    HW276597  14.248   0.859  12.759
24920SOL     OW76598   6.525  11.055   9.654
24920SOL    HW176599   6.541  10.975   9.603
24920SOL    HW276600   6.465  11.106   9.599
24921SOL     OW76601  11.444   5.242  12.758
24921SOL    HW176602  11.443   5.217  12.666
24921SOL    HW276603  11.417   5.163  12.805
24922SOL     OW76604   3.176  11.562  11.647
24922SOL    HW176605   3.094  11.543  11.691
24922SOL    HW276606   3.213  11.475  11.628
24923SOL     OW76607  11.687  12.380  14.448
24923SOL    HW176608  11.747  12.348  14.516
24923SOL    HW276609  11.703  12.324  14.373
24924SOL     OW76610   5.406   4.726   6.225
24924SOL    HW176611   5.401   4.805   6.279
24924SOL    HW276612   5.316   4.712   6.195
24925SOL     OW76613   9.799   3.346  10.949
24925SOL    HW176614   9.713   3.367  10.987
24925SOL    HW276615   9.800   3.392  10.866
24926SOL     OW76616   8.729   1.803   8.899
24926SOL    HW176617   8.791   1.855   8.848
24926SOL    HW276618   8.643   1.827   8.863
24927SOL     OW76619  13.149   6.732  13.539
24927SOL    HW176620  13.124   6.639  13.537
24927SOL    HW276621  13.203   6.744  13.461
24928SOL     OW76622  10.590   8.099   1.499
24928SOL    HW176623  10.630   8.055   1.574
24928SOL    HW276624  10.530   8.163   1.537
24929SOL     OW76625  12.139   6.321   7.268
24929SOL    HW176626  12.160   6.413   7.254
24929SOL    HW276627  12.218   6.284   7.308
24930SOL     OW76628   7.156   0.576  11.899
24930SOL    HW176629   7.186   0.503  11.953
24930SOL    HW276630   7.172   0.546  11.809
24931SOL     OW76631   8.274   2.397  13.847
24931SOL    HW176632   8.344   2.462  13.854
24931SOL    HW276633   8.312   2.316  13.882
24932SOL     OW76634   2.143   4.642   8.984
24932SOL    HW176635   2.157   4.736   8.970
24932SOL    HW276636   2.112   4.610   8.900
24933SOL     OW76637   3.134  14.707   8.142
24933SOL    HW176638   3.199  14.746   8.199
24933SOL    HW276639   3.109  14.777   8.082
24934SOL     OW76640  13.589  13.468   3.482
24934SOL    HW176641  13.657  13.533   3.497
24934SOL    HW276642  13.621  13.416   3.408
24935SOL     OW76643   7.943   2.713   6.143
24935SOL    HW176644   7.880   2.719   6.071
24935SOL    HW276645   7.976   2.802   6.154
24936SOL     OW76646  11.076  14.300  13.970
24936SOL    HW176647  11.054  14.234  13.903
24936SOL    HW276648  11.011  14.287  14.039
24937SOL     OW76649   4.557   2.891  13.979
24937SOL    HW176650   4.623   2.851  13.922
24937SOL    HW276651   4.608   2.941  14.043
24938SOL     OW76652   1.433  11.242  13.874
24938SOL    HW176653   1.489  11.316  13.851
24938SOL    HW276654   1.494  11.171  13.894
24939SOL     OW76655   0.361  13.038  12.867
24939SOL    HW176656   0.435  12.981  12.848
24939SOL    HW276657   0.318  13.051  12.782
24940SOL     OW76658  14.702  11.052  12.415
24940SOL    HW176659  14.614  11.078  12.444
24940SOL    HW276660  14.750  11.135  12.407
24941SOL     OW76661   4.683  14.396  10.085
24941SOL    HW176662   4.603  14.442  10.107
24941SOL    HW276663   4.753  14.448  10.126
24942SOL     OW76664  13.155   7.082   3.348
24942SOL    HW176665  13.221   7.148   3.328
24942SOL    HW276666  13.074   7.132   3.361
24943SOL     OW76667   1.578   7.874  11.366
24943SOL    HW176668   1.509   7.810  11.381
24943SOL    HW276669   1.615   7.850  11.281
24944SOL     OW76670   6.188   2.521   8.200
24944SOL    HW176671   6.257   2.564   8.150
24944SOL    HW276672   6.107   2.543   8.154
24945SOL     OW76673   2.497  11.036   3.218
24945SOL    HW176674   2.426  11.075   3.268
24945SOL    HW276675   2.534  10.970   3.276
24946SOL     OW76676   6.415   7.665   0.847
24946SOL    HW176677   6.341   7.625   0.801
24946SOL    HW276678   6.468   7.591   0.876
24947SOL     OW76679   2.885  12.862   2.910
24947SOL    HW176680   2.966  12.848   2.958
24947SOL    HW276681   2.817  12.823   2.966
24948SOL     OW76682   5.982  14.128   3.421
24948SOL    HW176683   6.062  14.170   3.453
24948SOL    HW276684   5.965  14.170   3.337
24949SOL     OW76685  12.353   2.643   2.179
24949SOL    HW176686  12.275   2.588   2.177
24949SOL    HW276687  12.338   2.708   2.110
24950SOL     OW76688   3.102  11.129  10.325
24950SOL    HW176689   3.075  11.181  10.250
24950SOL    HW276690   3.198  11.126  10.320
24951SOL     OW76691  10.214  14.768  13.575
24951SOL    HW176692  10.298  14.745  13.535
24951SOL    HW276693  10.201  14.860  13.552
24952SOL     OW76694  10.275   7.106   4.410
24952SOL    HW176695  10.198   7.104   4.354
24952SOL    HW276696  10.276   7.020   4.453
24953SOL     OW76697   3.454  10.542  11.005
24953SOL    HW176698   3.476  10.534  11.098
24953SOL    HW276699   3.535  10.572  10.964
24954SOL     OW76700   2.696  10.278  11.704
24954SOL    HW176701   2.763  10.300  11.639
24954SOL    HW276702   2.727  10.196  11.743
24955SOL     OW76703  11.008   0.628   6.611
24955SOL    HW176704  10.920   0.616   6.646
24955SOL    HW276705  11.051   0.544   6.623
24956SOL     OW76706   8.832   5.554   1.417
24956SOL    HW176707   8.882   5.480   1.450
24956SOL    HW276708   8.795   5.522   1.334
24957SOL     OW76709   0.314   6.064  12.263
24957SOL    HW176710   0.243   6.090  12.322
24957SOL    HW276711   0.299   6.115  12.183
24958SOL     OW76712   8.891   9.688   6.687
24958SOL    HW176713   8.832   9.641   6.747
24958SOL    HW276714   8.910   9.770   6.732
24959SOL     OW76715   3.673  10.123  13.356
24959SOL    HW176716   3.662  10.061  13.428
24959SOL    HW276717   3.635  10.079  13.280
24960SOL     OW76718   4.068   9.369   8.795
24960SOL    HW176719   3.987   9.320   8.805
24960SOL    HW276720   4.111   9.331   8.718
24961SOL     OW76721  13.035  13.360   9.335
24961SOL    HW176722  13.001  13.365   9.425
24961SOL    HW276723  13.088  13.281   9.334
24962SOL     OW76724  12.332  13.789   6.955
24962SOL    HW176725  12.310  13.809   6.864
24962SOL    HW276726  12.404  13.726   6.948
24963SOL     OW76727   7.568  11.934  12.738
24963SOL    HW176728   7.595  11.871  12.671
24963SOL    HW276729   7.548  11.881  12.815
24964SOL     OW76730   5.311   6.317  10.430
24964SOL    HW176731   5.263   6.243  10.467
24964SOL    HW276732   5.242   6.381  10.408
24965SOL     OW76733   7.118   3.436  14.371
24965SOL    HW176734   7.162   3.376  14.432
24965SOL    HW276735   7.165   3.424  14.288
24966SOL     OW76736   5.974  13.303  11.512
24966SOL    HW176737   6.002  13.219  11.474
24966SOL    HW276738   5.908  13.279  11.576
24967SOL     OW76739   7.282   7.412  13.071
24967SOL    HW176740   7.234   7.392  13.151
24967SOL    HW276741   7.297   7.507  13.075
24968SOL     OW76742   2.880  11.835   9.404
24968SOL    HW176743   2.888  11.859   9.312
24968SOL    HW276744   2.836  11.910   9.445
24969SOL     OW76745  14.371   7.784   2.358
24969SOL    HW176746  14.359   7.841   2.433
24969SOL    HW276747  14.465   7.769   2.353
24970SOL     OW76748   8.566  10.591  11.493
24970SOL    HW176749   8.640  10.530  11.501
24970SOL    HW276750   8.531  10.597  11.582
24971SOL     OW76751  12.755   8.981   7.246
24971SOL    HW176752  12.718   8.893   7.252
24971SOL    HW276753  12.836   8.969   7.197
24972SOL     OW76754   1.328   8.239  10.611
24972SOL    HW176755   1.357   8.218  10.700
24972SOL    HW276756   1.234   8.256  10.620
24973SOL     OW76757   8.662   5.795  11.593
24973SOL    HW176758   8.710   5.783  11.511
24973SOL    HW276759   8.630   5.707  11.615
24974SOL     OW76760   3.961   9.680   5.097
24974SOL    HW176761   3.942   9.738   5.024
24974SOL    HW276762   3.903   9.708   5.167
24975SOL     OW76763   2.225   3.285   0.353
24975SOL    HW176764   2.189   3.247   0.274
24975SOL    HW276765   2.154   3.280   0.417
24976SOL     OW76766   4.982   2.779   5.601
24976SOL    HW176767   4.903   2.777   5.547
24976SOL    HW276768   4.964   2.844   5.669
24977SOL     OW76769   0.158   6.236  13.426
24977SOL    HW176770   0.133   6.160  13.479
24977SOL    HW276771   0.080   6.256  13.375
24978SOL     OW76772   1.926   4.131   7.549
24978SOL    HW176773   2.015   4.155   7.575
24978SOL    HW276774   1.936   4.088   7.464
24979SOL     OW76775   3.307  11.931   7.020
24979SOL    HW176776   3.349  11.847   7.004
24979SOL    HW276777   3.371  11.995   6.988
24980SOL     OW76778   6.805  10.753   9.613
24980SOL    HW176779   6.733  10.691   9.601
24980SOL    HW276780   6.862  10.712   9.677
24981SOL     OW76781   6.633  14.143  10.492
24981SOL    HW176782   6.617  14.049  10.499
24981SOL    HW276783   6.547  14.181  10.475
24982SOL     OW76784  11.227   1.120   1.692
24982SOL    HW176785  11.187   1.105   1.607
24982SOL    HW276786  11.160   1.092   1.755
24983SOL     OW76787   4.414   1.040   4.023
24983SOL    HW176788   4.396   0.994   3.941
24983SOL    HW276789   4.462   0.976   4.076
24984SOL     OW76790   8.358   6.437  12.410
24984SOL    HW176791   8.428   6.379  12.440
24984SOL    HW276792   8.288   6.378  12.380
24985SOL     OW76793   1.447   9.384   5.086
24985SOL    HW176794   1.473   9.456   5.028
24985SOL    HW276795   1.354   9.372   5.069
24986SOL     OW76796   1.876   6.698   5.350
24986SOL    HW176797   1.901   6.649   5.428
24986SOL    HW276798   1.783   6.718   5.362
24987SOL     OW76799   8.550   3.046   1.152
24987SOL    HW176800   8.586   3.076   1.069
24987SOL    HW276801   8.537   3.125   1.204
24988SOL     OW76802   8.218   4.803  12.352
24988SOL    HW176803   8.209   4.710  12.377
24988SOL    HW276804   8.290   4.804  12.290
24989SOL     OW76805  10.277  12.391   0.549
24989SOL    HW176806  10.346  12.441   0.506
24989SOL    HW276807  10.200  12.404   0.493
24990SOL     OW76808  13.998   9.701   5.473
24990SOL    HW176809  14.066   9.657   5.523
24990SOL    HW276810  13.988   9.787   5.515
24991SOL     OW76811   1.244  10.640   5.156
24991SOL    HW176812   1.190  10.567   5.185
24991SOL    HW276813   1.332  10.621   5.191
24992SOL     OW76814   2.098   5.987   0.715
24992SOL    HW176815   2.033   5.932   0.758
24992SOL    HW276816   2.129   6.046   0.784
24993SOL     OW76817   7.752   1.615  14.576
24993SOL    HW176818   7.819   1.662  14.526
24993SOL    HW276819   7.699   1.571  14.510
24994SOL     OW76820  11.202   3.853   9.570
24994SOL    HW176821  11.171   3.829   9.657
24994SOL    HW276822  11.295   3.828   9.570
24995SOL     OW76823   0.866  12.203   6.355
24995SOL    HW176824   0.877  12.253   6.436
24995SOL    HW276825   0.955  12.194   6.321
24996SOL     OW76826   9.184   1.259   6.192
24996SOL    HW176827   9.248   1.278   6.261
24996SOL    HW276828   9.202   1.169   6.166
24997SOL     OW76829   5.185  10.518  11.741
24997SOL    HW176830   5.219  10.575  11.672
24997SOL    HW276831   5.227  10.550  11.821
24998SOL     OW76832  12.165   3.965  10.791
24998SOL    HW176833  12.248   3.978  10.745
24998SOL    HW276834  12.107   3.925  10.726
24999SOL     OW76835  12.359  13.411   2.064
24999SOL    HW176836  12.389  13.326   2.031
24999SOL    HW276837  12.283  13.432   2.010
25000SOL     OW76838   7.164   0.077   0.297
25000SOL    HW176839   7.154   0.089   0.202
25000SOL    HW276840   7.251   0.040   0.307
25001SOL     OW76841  13.693  11.749   5.427
25001SOL    HW176842  13.755  11.808   5.470
25001SOL    HW276843  13.741  11.668   5.415
25002SOL     OW76844  13.687   4.248  12.804
25002SOL    HW176845  13.728   4.231  12.719
25002SOL    HW276846  13.597   4.272  12.782
25003SOL     OW76847   4.403  13.579  10.847
25003SOL    HW176848   4.426  13.559  10.938
25003SOL    HW276849   4.343  13.509  10.821
25004SOL     OW76850   3.693   6.344   5.897
25004SOL    HW176851   3.656   6.425   5.931
25004SOL    HW276852   3.668   6.277   5.961
25005SOL     OW76853   5.277   6.898   7.873
25005SOL    HW176854   5.277   6.803   7.859
25005SOL    HW276855   5.195   6.916   7.919
25006SOL     OW76856   7.522  13.401  12.860
25006SOL    HW176857   7.616  13.381  12.863
25006SOL    HW276858   7.515  13.466  12.789
25007SOL     OW76859   0.633   4.485  12.063
25007SOL    HW176860   0.626   4.566  12.014
25007SOL    HW276861   0.634   4.416  11.996
25008SOL     OW76862   0.593   8.649   8.396
25008SOL    HW176863   0.605   8.584   8.465
25008SOL    HW276864   0.617   8.732   8.437
25009SOL     OW76865  13.717   2.270  13.717
25009SOL    HW176866  13.715   2.201  13.651
25009SOL    HW276867  13.779   2.334  13.683
25010SOL     OW76868  12.941  12.616   3.179
25010SOL    HW176869  13.016  12.675   3.181
25010SOL    HW276870  12.964  12.551   3.112
25011SOL     OW76871   0.204  14.245   6.980
25011SOL    HW176872   0.274  14.291   6.934
25011SOL    HW276873   0.225  14.152   6.968
25012SOL     OW76874  12.949  13.020   3.040
25012SOL    HW176875  13.016  12.957   3.016
25012SOL    HW276876  12.984  13.065   3.117
25013SOL     OW76877  10.685   7.221   9.527
25013SOL    HW176878  10.600   7.209   9.485
25013SOL    HW276879  10.689   7.315   9.547
25014SOL     OW76880  12.882  11.938  13.451
25014SOL    HW176881  12.955  11.984  13.491
25014SOL    HW276882  12.832  12.006  13.407
25015SOL     OW76883  13.194   6.924  11.793
25015SOL    HW176884  13.101   6.945  11.782
25015SOL    HW276885  13.194   6.837  11.832
25016SOL     OW76886   0.381  12.536   6.062
25016SOL    HW176887   0.452  12.527   6.125
25016SOL    HW276888   0.302  12.525   6.114
25017SOL     OW76889  11.711  10.997   2.402
25017SOL    HW176890  11.669  10.989   2.316
25017SOL    HW276891  11.638  11.006   2.463
25018SOL     OW76892   1.076   8.279   9.460
25018SOL    HW176893   1.097   8.370   9.441
25018SOL    HW276894   1.093   8.269   9.553
25019SOL     OW76895   2.497   0.477   4.802
25019SOL    HW176896   2.588   0.462   4.775
25019SOL    HW276897   2.466   0.545   4.743
25020SOL     OW76898   4.581   2.059   7.058
25020SOL    HW176899   4.597   1.992   7.124
25020SOL    HW276900   4.528   2.016   6.991
25021SOL     OW76901   6.219  13.420   8.473
25021SOL    HW176902   6.262  13.439   8.390
25021SOL    HW276903   6.150  13.486   8.480
25022SOL     OW76904   8.777  14.149   6.422
25022SOL    HW176905   8.869  14.125   6.415
25022SOL    HW276906   8.759  14.197   6.341
25023SOL     OW76907   8.231   9.295   3.524
25023SOL    HW176908   8.260   9.210   3.492
25023SOL    HW276909   8.242   9.290   3.619
25024SOL     OW76910   8.112   5.244   4.209
25024SOL    HW176911   8.101   5.306   4.137
25024SOL    HW276912   8.155   5.168   4.170
25025SOL     OW76913  14.265   7.204   4.042
25025SOL    HW176914  14.184   7.230   3.997
25025SOL    HW276915  14.304   7.286   4.070
25026SOL     OW76916   7.557   1.213   7.971
25026SOL    HW176917   7.612   1.138   7.950
25026SOL    HW276918   7.619   1.281   7.999
25027SOL     OW76919  11.629   6.640   3.364
25027SOL    HW176920  11.653   6.617   3.274
25027SOL    HW276921  11.557   6.702   3.354
25028SOL     OW76922   7.724  10.964   3.404
25028SOL    HW176923   7.638  10.973   3.444
25028SOL    HW276924   7.783  10.950   3.478
25029SOL     OW76925   6.988  14.738   6.677
25029SOL    HW176926   7.038  14.661   6.703
25029SOL    HW276927   6.926  14.705   6.612
25030SOL     OW76928  14.603   9.227   5.606
25030SOL    HW176929  14.529   9.242   5.548
25030SOL    HW276930  14.680   9.247   5.553
25031SOL     OW76931   6.853   5.402   7.899
25031SOL    HW176932   6.865   5.325   7.843
25031SOL    HW276933   6.860   5.477   7.840
25032SOL     OW76934  11.683  10.306  14.756
25032SOL    HW176935  11.648  10.393  14.737
25032SOL    HW276936  11.613  10.246  14.734
25033SOL     OW76937   7.861   3.702   4.301
25033SOL    HW176938   7.904   3.758   4.365
25033SOL    HW276939   7.844   3.620   4.347
25034SOL     OW76940   8.627   9.885  10.793
25034SOL    HW176941   8.560   9.818  10.809
25034SOL    HW276942   8.578   9.962  10.766
25035SOL     OW76943   7.464  13.623   9.469
25035SOL    HW176944   7.406  13.621   9.545
25035SOL    HW276945   7.428  13.556   9.410
25036SOL     OW76946   7.140  14.259   1.882
25036SOL    HW176947   7.199  14.193   1.846
25036SOL    HW276948   7.178  14.343   1.856
25037SOL     OW76949   6.725   1.786   0.604
25037SOL    HW176950   6.819   1.781   0.587
25037SOL    HW276951   6.685   1.747   0.526
25038SOL     OW76952   9.128   7.299   0.101
25038SOL    HW176953   9.118   7.393   0.110
25038SOL    HW276954   9.158   7.287   0.011
25039SOL     OW76955   7.655  10.046  14.348
25039SOL    HW176956   7.671  10.108  14.277
25039SOL    HW276957   7.591   9.985  14.313
25040SOL     OW76958  13.402   3.967  13.806
25040SOL    HW176959  13.496   3.965  13.823
25040SOL    HW276960  13.362   3.965  13.893
25041SOL     OW76961   1.899  11.268  13.247
25041SOL    HW176962   1.839  11.226  13.309
25041SOL    HW276963   1.891  11.216  13.167
25042SOL     OW76964   5.326   6.609   0.377
25042SOL    HW176965   5.333   6.515   0.395
25042SOL    HW276966   5.249   6.637   0.427
25043SOL     OW76967   6.934  14.705   7.306
25043SOL    HW176968   7.004  14.761   7.338
25043SOL    HW276969   6.913  14.648   7.380
25044SOL     OW76970  13.101   6.029   6.513
25044SOL    HW176971  13.012   5.999   6.497
25044SOL    HW276972  13.136   5.968   6.578
25045SOL     OW76973   4.861   0.509   7.593
25045SOL    HW176974   4.921   0.512   7.667
25045SOL    HW276975   4.851   0.415   7.574
25046SOL     OW76976  13.067  12.095  12.768
25046SOL    HW176977  13.020  12.058  12.842
25046SOL    HW276978  13.124  12.024  12.738
25047SOL     OW76979  13.528  11.962  11.480
25047SOL    HW176980  13.497  11.906  11.551
25047SOL    HW276981  13.497  12.050  11.504
25048SOL     OW76982   2.505   2.215  12.547
25048SOL    HW176983   2.542   2.127  12.539
25048SOL    HW276984   2.546   2.251  12.626
25049SOL     OW76985  12.197   1.092   6.855
25049SOL    HW176986  12.218   1.185   6.861
25049SOL    HW276987  12.225   1.056   6.939
25050SOL     OW76988   4.400  12.812  13.194
25050SOL    HW176989   4.437  12.735  13.149
25050SOL    HW276990   4.463  12.882  13.178
25051SOL     OW76991  11.826   1.127   5.184
25051SOL    HW176992  11.780   1.148   5.265
25051SOL    HW276993  11.777   1.055   5.146
25052SOL     OW76994   4.962   2.053   6.678
25052SOL    HW176995   4.965   1.979   6.739
25052SOL    HW276996   4.871   2.083   6.681
25053SOL     OW76997   6.148   2.234   2.725
25053SOL    HW176998   6.065   2.188   2.718
25053SOL    HW276999   6.193   2.193   2.799
25054SOL     OW77000   1.144  12.542  14.301
25054SOL    HW177001   1.086  12.526  14.227
25054SOL    HW277002   1.167  12.634  14.294
25055SOL     OW77003   5.669  13.137   6.066
25055SOL    HW177004   5.624  13.204   6.116
25055SOL    HW277005   5.653  13.161   5.975
25056SOL     OW77006  11.938   3.666   7.827
25056SOL    HW177007  11.915   3.748   7.785
25056SOL    HW277008  11.885   3.600   7.781
25057SOL     OW77009  14.374   8.800   9.874
25057SOL    HW177010  14.340   8.844   9.952
25057SOL    HW277011  14.353   8.708   9.887
25058SOL     OW77012  13.401   1.062  11.631
25058SOL    HW177013  13.446   0.978  11.637
25058SOL    HW277014  13.421   1.093  11.542
25059SOL     OW77015   0.087  13.933  13.530
25059SOL    HW177016   0.144  13.972  13.463
25059SOL    HW277017   0.148  13.899  13.596
25060SOL     OW77018   8.174   4.988   9.208
25060SOL    HW177019   8.199   5.052   9.142
25060SOL    HW277020   8.257   4.961   9.248
25061SOL     OW77021   6.379   1.559   4.761
25061SOL    HW177022   6.322   1.497   4.807
25061SOL    HW277023   6.464   1.515   4.758
25062SOL     OW77024   3.011   7.296   2.048
25062SOL    HW177025   3.074   7.312   2.118
25062SOL    HW277026   2.928   7.282   2.094
25063SOL     OW77027  13.277   0.880   8.180
25063SOL    HW177028  13.296   0.826   8.257
25063SOL    HW277029  13.349   0.862   8.119
25064SOL     OW77030   2.583   8.851   4.881
25064SOL    HW177031   2.668   8.866   4.923
25064SOL    HW277032   2.593   8.886   4.793
25065SOL     OW77033   6.495  14.288   2.539
25065SOL    HW177034   6.402  14.265   2.527
25065SOL    HW277035   6.502  14.377   2.505
25066SOL     OW77036   1.564   3.954  12.781
25066SOL    HW177037   1.537   3.883  12.723
25066SOL    HW277038   1.641   3.919  12.827
25067SOL     OW77039  12.070   9.166   2.635
25067SOL    HW177040  12.140   9.101   2.623
25067SOL    HW277041  11.991   9.114   2.651
25068SOL     OW77042   2.779   7.243   4.926
25068SOL    HW177043   2.724   7.196   4.864
25068SOL    HW277044   2.767   7.197   5.009
25069SOL     OW77045   3.731  10.133   4.755
25069SOL    HW177046   3.674  10.060   4.729
25069SOL    HW277047   3.711  10.147   4.847
25070SOL     OW77048   3.422   5.030   5.333
25070SOL    HW177049   3.405   5.071   5.419
25070SOL    HW277050   3.339   4.990   5.309
25071SOL     OW77051   0.889   5.945   6.869
25071SOL    HW177052   0.802   5.982   6.888
25071SOL    HW277053   0.944   6.022   6.855
25072SOL     OW77054  10.528   6.993   6.530
25072SOL    HW177055  10.622   6.975   6.525
25072SOL    HW277056  10.487   6.909   6.509
25073SOL     OW77057  14.496   8.240   0.868
25073SOL    HW177058  14.446   8.246   0.949
25073SOL    HW277059  14.455   8.168   0.819
25074SOL     OW77060   4.055   3.217   6.942
25074SOL    HW177061   3.961   3.200   6.945
25074SOL    HW277062   4.063   3.297   6.890
25075SOL     OW77063   0.098   8.237   2.949
25075SOL    HW177064   0.047   8.233   3.030
25075SOL    HW277065   0.056   8.305   2.897
25076SOL     OW77066   8.342   9.900   8.436
25076SOL    HW177067   8.366   9.860   8.353
25076SOL    HW277068   8.252   9.871   8.452
25077SOL     OW77069   6.486  12.172   6.950
25077SOL    HW177070   6.548  12.116   6.903
25077SOL    HW277071   6.504  12.260   6.917
25078SOL     OW77072   3.897   5.198  14.757
25078SOL    HW177073   3.987   5.224  14.775
25078SOL    HW277074   3.853   5.278  14.731
25079SOL     OW77075   6.991   1.357   2.976
25079SOL    HW177076   7.008   1.348   3.070
25079SOL    HW277077   7.012   1.271   2.940
25080SOL     OW77078   4.807   1.495   1.461
25080SOL    HW177079   4.739   1.477   1.525
25080SOL    HW277080   4.884   1.448   1.493
25081SOL     OW77081   4.226  10.679   5.316
25081SOL    HW177082   4.271  10.597   5.297
25081SOL    HW277083   4.160  10.688   5.248
25082SOL     OW77084   8.308   1.213  10.736
25082SOL    HW177085   8.269   1.204  10.824
25082SOL    HW277086   8.289   1.303  10.711
25083SOL     OW77087  11.210  14.474  13.748
25083SOL    HW177088  11.185  14.565  13.735
25083SOL    HW277089  11.129  14.424  13.734
25084SOL     OW77090   2.214   7.685   4.979
25084SOL    HW177091   2.265   7.700   4.899
25084SOL    HW277092   2.271   7.630   5.033
25085SOL     OW77093   1.619  12.337  12.406
25085SOL    HW177094   1.591  12.323  12.316
25085SOL    HW277095   1.710  12.366  12.399
25086SOL     OW77096   2.494  10.934   9.267
25086SOL    HW177097   2.484  10.984   9.348
25086SOL    HW277098   2.417  10.877   9.265
25087SOL     OW77099   4.079   0.429   8.915
25087SOL    HW177100   4.075   0.385   9.000
25087SOL    HW277101   4.101   0.360   8.853
25088SOL     OW77102  10.349   9.673   8.735
25088SOL    HW177103  10.414   9.604   8.718
25088SOL    HW277104  10.376   9.712   8.818
25089SOL     OW77105   1.532   7.168  11.380
25089SOL    HW177106   1.626   7.164  11.361
25089SOL    HW277107   1.515   7.261  11.395
25090SOL     OW77108   7.208   1.822   7.947
25090SOL    HW177109   7.183   1.828   7.855
25090SOL    HW277110   7.249   1.736   7.955
25091SOL     OW77111  14.132  11.594   0.679
25091SOL    HW177112  14.183  11.522   0.642
25091SOL    HW277113  14.055  11.552   0.716
25092SOL     OW77114  14.573   8.268   5.311
25092SOL    HW177115  14.564   8.355   5.350
25092SOL    HW277116  14.493   8.222   5.336
25093SOL     OW77117  14.406  12.260  12.896
25093SOL    HW177118  14.418  12.200  12.970
25093SOL    HW277119  14.343  12.216  12.840
25094SOL     OW77120   3.123   1.386   8.219
25094SOL    HW177121   3.151   1.347   8.136
25094SOL    HW277122   3.045   1.437   8.197
25095SOL     OW77123   3.691  14.081   6.331
25095SOL    HW177124   3.603  14.114   6.349
25095SOL    HW277125   3.745  14.118   6.401
25096SOL     OW77126  12.608   2.510  11.425
25096SOL    HW177127  12.529   2.463  11.401
25096SOL    HW277128  12.584   2.560  11.503
25097SOL     OW77129   7.289   2.175   8.885
25097SOL    HW177130   7.331   2.249   8.842
25097SOL    HW277131   7.240   2.131   8.815
25098SOL     OW77132   3.737   4.330  14.403
25098SOL    HW177133   3.688   4.302  14.480
25098SOL    HW277134   3.745   4.425  14.412
25099SOL     OW77135   3.462   4.143   4.952
25099SOL    HW177136   3.491   4.085   4.881
25099SOL    HW277137   3.366   4.142   4.946
25100SOL     OW77138   1.722   5.602   4.513
25100SOL    HW177139   1.726   5.698   4.521
25100SOL    HW277140   1.629   5.582   4.513
25101SOL     OW77141  12.277   0.643  11.878
25101SOL    HW177142  12.264   0.721  11.931
25101SOL    HW277143  12.192   0.599  11.878
25102SOL     OW77144   6.185  11.243   7.061
25102SOL    HW177145   6.144  11.217   7.143
25102SOL    HW277146   6.174  11.167   7.004
25103SOL     OW77147  11.220  10.427   7.544
25103SOL    HW177148  11.180  10.511   7.565
25103SOL    HW277149  11.178  10.400   7.463
25104SOL     OW77150   9.244   6.180   9.347
25104SOL    HW177151   9.203   6.239   9.284
25104SOL    HW277152   9.177   6.166   9.414
25105SOL     OW77153   6.757   4.772   3.163
25105SOL    HW177154   6.712   4.701   3.208
25105SOL    HW277155   6.716   4.776   3.077
25106SOL     OW77156   9.966  11.097   1.135
25106SOL    HW177157   9.897  11.040   1.101
25106SOL    HW277158  10.038  11.037   1.155
25107SOL     OW77159  12.733  11.036  12.812
25107SOL    HW177160  12.665  11.048  12.879
25107SOL    HW277161  12.736  10.942  12.797
25108SOL     OW77162   6.505   8.633  14.412
25108SOL    HW177163   6.530   8.610  14.502
25108SOL    HW277164   6.462   8.554  14.378
25109SOL     OW77165   1.911  10.878   9.710
25109SOL    HW177166   1.938  10.970   9.705
25109SOL    HW277167   1.820  10.881   9.740
25110SOL     OW77168   9.918   0.918   7.559
25110SOL    HW177169   9.926   0.862   7.636
25110SOL    HW277170   9.961   1.000   7.584
25111SOL     OW77171   3.877   5.718   8.356
25111SOL    HW177172   3.898   5.811   8.360
25111SOL    HW277173   3.913   5.682   8.437
25112SOL     OW77174  11.488   9.674  12.494
25112SOL    HW177175  11.394   9.682  12.479
25112SOL    HW277176  11.513   9.757  12.536
25113SOL     OW77177   0.120   3.331   2.545
25113SOL    HW177178   0.149   3.278   2.470
25113SOL    HW277179   0.039   3.289   2.574
25114SOL     OW77180   8.422   3.128   2.890
25114SOL    HW177181   8.340   3.103   2.932
25114SOL    HW277182   8.422   3.082   2.807
25115SOL     OW77183   2.433   5.210  13.943
25115SOL    HW177184   2.487   5.286  13.968
25115SOL    HW277185   2.461   5.141  14.003
25116SOL     OW77186   9.848   2.629   7.570
25116SOL    HW177187   9.884   2.711   7.536
25116SOL    HW277188   9.879   2.626   7.661
25117SOL     OW77189  12.890   1.016   5.557
25117SOL    HW177190  12.820   0.955   5.538
25117SOL    HW277191  12.896   1.071   5.479
25118SOL     OW77192   0.249  11.169   8.909
25118SOL    HW177193   0.343  11.159   8.898
25118SOL    HW277194   0.215  11.079   8.913
25119SOL     OW77195  14.028  12.602  13.743
25119SOL    HW177196  13.937  12.579  13.725
25119SOL    HW277197  14.037  12.595  13.838
25120SOL     OW77198   2.165  10.231  12.484
25120SOL    HW177199   2.122  10.173  12.421
25120SOL    HW277200   2.258  10.219  12.469
25121SOL     OW77201  11.108   5.683   0.513
25121SOL    HW177202  11.057   5.676   0.432
25121SOL    HW277203  11.054   5.639   0.579
25122SOL     OW77204   9.461   6.541  14.351
25122SOL    HW177205   9.394   6.525  14.284
25122SOL    HW277206   9.531   6.479  14.330
25123SOL     OW77207   8.979  11.769  11.096
25123SOL    HW177208   8.897  11.738  11.133
25123SOL    HW277209   8.955  11.847  11.046
25124SOL     OW77210   9.609   3.528   6.456
25124SOL    HW177211   9.550   3.543   6.382
25124SOL    HW277212   9.553   3.538   6.534
25125SOL     OW77213   0.016   9.399   4.641
25125SOL    HW177214   0.007   9.487   4.678
25125SOL    HW277215   0.084   9.357   4.694
25126SOL     OW77216   0.817   8.025   1.658
25126SOL    HW177217   0.840   8.033   1.751
25126SOL    HW277218   0.804   8.116   1.629
25127SOL     OW77219  11.674  11.995   0.405
25127SOL    HW177220  11.623  12.054   0.349
25127SOL    HW277221  11.646  11.907   0.380
25128SOL     OW77222   0.776  12.507   8.261
25128SOL    HW177223   0.846  12.539   8.319
25128SOL    HW277224   0.718  12.458   8.318
25129SOL     OW77225  14.824  14.564   1.700
25129SOL    HW177226  14.728  14.561   1.704
25129SOL    HW277227  14.852  14.533   1.786
25130SOL     OW77228   0.141   4.332  13.802
25130SOL    HW177229   0.094   4.413  13.781
25130SOL    HW277230   0.072   4.272  13.830
25131SOL     OW77231   5.924   4.333  13.739
25131SOL    HW177232   5.873   4.397  13.787
25131SOL    HW277233   5.915   4.359  13.647
25132SOL     OW77234   0.126   2.907   6.496
25132SOL    HW177235   0.207   2.918   6.546
25132SOL    HW277236   0.135   2.967   6.422
25133SOL     OW77237   2.845   9.428   1.635
25133SOL    HW177238   2.769   9.372   1.621
25133SOL    HW277239   2.876   9.405   1.722
25134SOL     OW77240  14.341  12.076  14.503
25134SOL    HW177241  14.357  12.124  14.422
25134SOL    HW277242  14.245  12.072  14.510
25135SOL     OW77243   2.880   9.697   0.386
25135SOL    HW177244   2.807   9.636   0.374
25135SOL    HW277245   2.864   9.766   0.321
25136SOL     OW77246   6.734   4.802   6.211
25136SOL    HW177247   6.692   4.732   6.260
25136SOL    HW277248   6.823   4.771   6.195
25137SOL     OW77249  10.644   6.691   7.347
25137SOL    HW177250  10.697   6.769   7.336
25137SOL    HW277251  10.567   6.706   7.291
25138SOL     OW77252   1.855   0.101  10.819
25138SOL    HW177253   1.901   0.084  10.901
25138SOL    HW277254   1.871   0.194  10.802
25139SOL     OW77255   8.366  11.071   1.728
25139SOL    HW177256   8.387  10.981   1.703
25139SOL    HW277257   8.402  11.080   1.816
25140SOL     OW77258   3.607   9.191   4.406
25140SOL    HW177259   3.674   9.243   4.362
25140SOL    HW277260   3.655   9.114   4.439
25141SOL     OW77261   5.578  14.478  14.659
25141SOL    HW177262   5.520  14.409  14.627
25141SOL    HW277263   5.561  14.553  14.601
25142SOL     OW77264   4.122   4.135  13.678
25142SOL    HW177265   4.052   4.160  13.617
25142SOL    HW277266   4.190   4.201  13.665
25143SOL     OW77267  12.659   3.690   7.443
25143SOL    HW177268  12.603   3.702   7.520
25143SOL    HW277269  12.682   3.597   7.444
25144SOL     OW77270   3.468   3.151  13.295
25144SOL    HW177271   3.499   3.191  13.376
25144SOL    HW277272   3.376   3.130  13.312
25145SOL     OW77273   0.147   2.032   9.382
25145SOL    HW177274   0.196   1.953   9.360
25145SOL    HW277275   0.210   2.103   9.371
25146SOL     OW77276   9.110  10.700   4.189
25146SOL    HW177277   9.168  10.625   4.173
25146SOL    HW277278   9.154  10.773   4.147
25147SOL     OW77279   0.592  13.444   8.212
25147SOL    HW177280   0.514  13.406   8.172
25147SOL    HW277281   0.576  13.438   8.306
25148SOL     OW77282   2.694   4.181  11.150
25148SOL    HW177283   2.683   4.274  11.167
25148SOL    HW277284   2.605   4.146  11.147
25149SOL     OW77285   7.661   0.229  12.158
25149SOL    HW177286   7.636   0.286  12.231
25149SOL    HW277287   7.707   0.156  12.200
25150SOL     OW77288   5.476  14.150   9.227
25150SOL    HW177289   5.383  14.172   9.228
25150SOL    HW277290   5.520  14.233   9.206
25151SOL     OW77291  11.916   8.494   8.697
25151SOL    HW177292  11.822   8.495   8.719
25151SOL    HW277293  11.918   8.471   8.604
25152SOL     OW77294   8.809   8.244  10.484
25152SOL    HW177295   8.876   8.267  10.548
25152SOL    HW277296   8.816   8.149  10.474
25153SOL     OW77297   0.125   4.681   9.854
25153SOL    HW177298   0.031   4.670   9.869
25153SOL    HW277299   0.133   4.692   9.759
25154SOL     OW77300  13.086  10.124   7.781
25154SOL    HW177301  13.166  10.076   7.757
25154SOL    HW277302  13.110  10.216   7.771
25155SOL     OW77303  10.866   7.025   5.106
25155SOL    HW177304  10.942   7.031   5.164
25155SOL    HW277305  10.901   6.995   5.023
25156SOL     OW77306   1.143   7.013  14.717
25156SOL    HW177307   1.218   6.955  14.726
25156SOL    HW277308   1.067   6.957  14.736
25157SOL     OW77309  13.017   3.886  14.127
25157SOL    HW177310  12.935   3.926  14.154
25157SOL    HW277311  13.031   3.814  14.190
25158SOL     OW77312   6.555   2.185  11.183
25158SOL    HW177313   6.625   2.214  11.126
25158SOL    HW277314   6.554   2.090  11.175
25159SOL     OW77315  11.309   3.073   9.307
25159SOL    HW177316  11.356   3.031   9.235
25159SOL    HW277317  11.236   3.014   9.325
25160SOL     OW77318  11.371   3.776   0.640
25160SOL    HW177319  11.311   3.782   0.715
25160SOL    HW277320  11.440   3.716   0.670
25161SOL     OW77321   2.733   5.412   4.303
25161SOL    HW177322   2.700   5.493   4.264
25161SOL    HW277323   2.655   5.371   4.341
25162SOL     OW77324   2.295   5.333   4.392
25162SOL    HW177325   2.269   5.307   4.303
25162SOL    HW277326   2.213   5.361   4.433
25163SOL     OW77327  13.525  11.786   2.205
25163SOL    HW177328  13.517  11.877   2.175
25163SOL    HW277329  13.444  11.771   2.255
25164SOL     OW77330  11.936   7.332   9.677
25164SOL    HW177331  11.972   7.380   9.602
25164SOL    HW277332  12.007   7.272   9.703
25165SOL     OW77333   1.453   1.909   2.413
25165SOL    HW177334   1.397   1.833   2.431
25165SOL    HW277335   1.477   1.899   2.320
25166SOL     OW77336  11.798   2.215   2.540
25166SOL    HW177337  11.751   2.197   2.621
25166SOL    HW277338  11.890   2.212   2.565
25167SOL     OW77339   3.637   1.038  11.052
25167SOL    HW177340   3.682   0.961  11.020
25167SOL    HW277341   3.546   1.027  11.023
25168SOL     OW77342   3.719  11.757   0.667
25168SOL    HW177343   3.651  11.733   0.604
25168SOL    HW277344   3.742  11.847   0.644
25169SOL     OW77345  14.857  11.034   9.707
25169SOL    HW177346  14.867  11.045   9.802
25169SOL    HW277347   0.055  11.086   9.670
25170SOL     OW77348  11.215   1.350  12.734
25170SOL    HW177349  11.124   1.329  12.712
25170SOL    HW277350  11.224   1.323  12.825
25171SOL     OW77351   4.039   5.048   3.024
25171SOL    HW177352   4.103   5.007   2.965
25171SOL    HW277353   4.078   5.041   3.111
25172SOL     OW77354   5.730   5.699   6.875
25172SOL    HW177355   5.677   5.670   6.800
25172SOL    HW277356   5.804   5.639   6.877
25173SOL     OW77357   7.912   7.043  12.945
25173SOL    HW177358   7.843   6.983  12.972
25173SOL    HW277359   7.975   7.043  13.018
25174SOL     OW77360   5.480   9.902   2.432
25174SOL    HW177361   5.528   9.940   2.505
25174SOL    HW277362   5.392   9.887   2.466
25175SOL     OW77363   3.172  14.392  13.635
25175SOL    HW177364   3.131  14.334  13.699
25175SOL    HW277365   3.194  14.335  13.562
25176SOL     OW77366   5.589   7.405   1.012
25176SOL    HW177367   5.500   7.437   0.998
25176SOL    HW277368   5.580   7.337   1.079
25177SOL     OW77369  12.230   0.059  10.927
25177SOL    HW177370  12.274  14.866  10.980
25177SOL    HW277371  12.152   0.081  10.977
25178SOL     OW77372  14.791   2.346  11.827
25178SOL    HW177373  14.778   2.377  11.737
25178SOL    HW277374  14.833   2.261  11.817
25179SOL     OW77375   6.474   9.315   4.690
25179SOL    HW177376   6.529   9.286   4.763
25179SOL    HW277377   6.533   9.315   4.614
25180SOL     OW77378   2.898   8.133  13.127
25180SOL    HW177379   2.900   8.039  13.105
25180SOL    HW277380   2.981   8.148  13.172
25181SOL     OW77381   8.680  12.446  10.748
25181SOL    HW177382   8.614  12.376  10.749
25181SOL    HW277383   8.763  12.401  10.760
25182SOL     OW77384  12.513   8.112   7.940
25182SOL    HW177385  12.425   8.145   7.927
25182SOL    HW277386  12.570   8.179   7.903
25183SOL     OW77387   2.190   1.959   4.977
25183SOL    HW177388   2.165   1.902   4.904
25183SOL    HW277389   2.108   1.999   5.006
25184SOL     OW77390  10.923  12.291   8.653
25184SOL    HW177391  10.852  12.323   8.598
25184SOL    HW277392  10.931  12.356   8.723
25185SOL     OW77393   5.613   2.642  13.097
25185SOL    HW177394   5.653   2.660  13.183
25185SOL    HW277395   5.560   2.719  13.078
25186SOL     OW77396  12.544   8.306   8.526
25186SOL    HW177397  12.611   8.279   8.463
25186SOL    HW277398  12.466   8.323   8.474
25187SOL     OW77399   9.608   5.897   7.106
25187SOL    HW177400   9.612   5.968   7.041
25187SOL    HW277401   9.667   5.830   7.073
25188SOL     OW77402   0.415   9.167   8.854
25188SOL    HW177403   0.326   9.165   8.817
25188SOL    HW277404   0.406   9.209   8.939
25189SOL     OW77405   9.529  14.298   5.981
25189SOL    HW177406   9.457  14.331   6.034
25189SOL    HW277407   9.490  14.231   5.925
25190SOL     OW77408  11.902  12.773  14.395
25190SOL    HW177409  11.898  12.706  14.328
25190SOL    HW277410  11.982  12.822  14.376
25191SOL     OW77411  12.315  14.414   1.974
25191SOL    HW177412  12.224  14.431   1.999
25191SOL    HW277413  12.325  14.320   1.982
25192SOL     OW77414   8.362   8.981   1.553
25192SOL    HW177415   8.295   8.959   1.618
25192SOL    HW277416   8.336   8.932   1.475
25193SOL     OW77417   4.956  11.816   5.270
25193SOL    HW177418   5.043  11.779   5.284
25193SOL    HW277419   4.967  11.875   5.195
25194SOL     OW77420   6.501   7.842   1.048
25194SOL    HW177421   6.445   7.782   0.998
25194SOL    HW277422   6.487   7.927   1.006
25195SOL     OW77423   0.562   2.060   2.697
25195SOL    HW177424   0.545   2.058   2.603
25195SOL    HW277425   0.657   2.059   2.704
25196SOL     OW77426  12.127   8.534  13.556
25196SOL    HW177427  12.169   8.471  13.613
25196SOL    HW277428  12.092   8.601  13.615
25197SOL     OW77429   6.115   4.961  13.595
25197SOL    HW177430   6.117   5.031  13.530
25197SOL    HW277431   6.182   4.899  13.566
25198SOL     OW77432   2.391   0.317  12.354
25198SOL    HW177433   2.398   0.244  12.293
25198SOL    HW277434   2.432   0.391  12.308
25199SOL     OW77435   2.924   2.812   9.776
25199SOL    HW177436   2.942   2.794   9.684
25199SOL    HW277437   2.940   2.905   9.786
25200SOL     OW77438  10.495   3.706   7.602
25200SOL    HW177439  10.488   3.729   7.509
25200SOL    HW277440  10.587   3.681   7.614
25201SOL     OW77441  10.629   1.019   6.432
25201SOL    HW177442  10.674   0.938   6.457
25201SOL    HW277443  10.666   1.086   6.489
25202SOL     OW77444  11.360   7.714  13.190
25202SOL    HW177445  11.300   7.729  13.117
25202SOL    HW277446  11.434   7.666  13.151
25203SOL     OW77447   5.767   4.477   8.492
25203SOL    HW177448   5.730   4.392   8.467
25203SOL    HW277449   5.694   4.538   8.484
25204SOL     OW77450   6.711   9.318   9.302
25204SOL    HW177451   6.629   9.354   9.335
25204SOL    HW277452   6.701   9.223   9.309
25205SOL     OW77453   5.014   2.899  10.113
25205SOL    HW177454   5.010   2.804  10.118
25205SOL    HW277455   4.930   2.929  10.147
25206SOL     OW77456   4.717   6.848   3.385
25206SOL    HW177457   4.758   6.843   3.299
25206SOL    HW277458   4.640   6.791   3.378
25207SOL     OW77459   1.544   6.938  11.909
25207SOL    HW177460   1.466   6.896  11.945
25207SOL    HW277461   1.532   6.934  11.814
25208SOL     OW77462   6.237   2.255  13.141
25208SOL    HW177463   6.147   2.285  13.151
25208SOL    HW277464   6.229   2.167  13.103
25209SOL     OW77465   4.999   9.785   3.567
25209SOL    HW177466   5.077   9.733   3.549
25209SOL    HW277467   5.014   9.821   3.655
25210SOL     OW77468   2.010  14.043   0.940
25210SOL    HW177469   1.985  13.950   0.944
25210SOL    HW277470   2.027  14.067   1.031
25211SOL     OW77471  10.393  14.030  12.994
25211SOL    HW177472  10.486  14.038  13.013
25211SOL    HW277473  10.382  14.070  12.908
25212SOL     OW77474   2.479  13.898  11.643
25212SOL    HW177475   2.461  13.863  11.730
25212SOL    HW277476   2.504  13.821  11.591
25213SOL     OW77477   5.374   9.987   0.293
25213SOL    HW177478   5.375   9.897   0.325
25213SOL    HW277479   5.298   9.992   0.235
25214SOL     OW77480   5.039   0.225   6.961
25214SOL    HW177481   4.989   0.148   6.988
25214SOL    HW277482   5.129   0.193   6.953
25215SOL     OW77483   1.699   1.798   2.697
25215SOL    HW177484   1.625   1.858   2.708
25215SOL    HW277485   1.757   1.818   2.770
25216SOL     OW77486  14.034  11.804  12.823
25216SOL    HW177487  14.003  11.877  12.877
25216SOL    HW277488  13.978  11.730  12.849
25217SOL     OW77489   7.825   9.681   8.066
25217SOL    HW177490   7.784   9.712   8.146
25217SOL    HW277491   7.769   9.713   7.996
25218SOL     OW77492   7.267   8.367   0.801
25218SOL    HW177493   7.223   8.396   0.721
25218SOL    HW277494   7.361   8.375   0.781
25219SOL     OW77495   5.897   2.111   2.724
25219SOL    HW177496   5.842   2.139   2.651
25219SOL    HW277497   5.890   2.015   2.724
25220SOL     OW77498  12.220   3.316   9.823
25220SOL    HW177499  12.125   3.310   9.835
25220SOL    HW277500  12.245   3.230   9.789
25221SOL     OW77501   2.161   5.595  13.643
25221SOL    HW177502   2.097   5.632  13.703
25221SOL    HW277503   2.233   5.566  13.699
25222SOL     OW77504   3.789   9.641   4.077
25222SOL    HW177505   3.779   9.736   4.070
25222SOL    HW277506   3.704   9.605   4.050
25223SOL     OW77507   4.885   8.341   9.747
25223SOL    HW177508   4.922   8.341   9.659
25223SOL    HW277509   4.876   8.248   9.769
25224SOL     OW77510   4.905   1.876  13.806
25224SOL    HW177511   4.838   1.808  13.794
25224SOL    HW277512   4.988   1.832  13.786
25225SOL     OW77513   3.480  12.712   6.101
25225SOL    HW177514   3.387  12.709   6.080
25225SOL    HW277515   3.486  12.765   6.181
25226SOL     OW77516   8.636  13.163  10.620
25226SOL    HW177517   8.606  13.163  10.529
25226SOL    HW277518   8.728  13.136  10.615
25227SOL     OW77519  12.273  10.269  12.816
25227SOL    HW177520  12.330  10.301  12.745
25227SOL    HW277521  12.331  10.215  12.870
25228SOL     OW77522   6.806   2.565   3.747
25228SOL    HW177523   6.824   2.583   3.840
25228SOL    HW277524   6.858   2.487   3.728
25229SOL     OW77525   6.082   2.743   1.447
25229SOL    HW177526   6.089   2.740   1.352
25229SOL    HW277527   5.988   2.732   1.464
25230SOL     OW77528   3.993   3.348   0.923
25230SOL    HW177529   3.909   3.335   0.967
25230SOL    HW277530   4.049   3.387   0.990
25231SOL     OW77531  14.833  10.462  10.664
25231SOL    HW177532   0.026  10.403  10.700
25231SOL    HW277533  14.845  10.457  10.569
25232SOL     OW77534   3.906  11.951   5.068
25232SOL    HW177535   3.860  12.014   5.124
25232SOL    HW277536   3.985  11.996   5.040
25233SOL     OW77537  12.063   4.599  12.460
25233SOL    HW177538  12.005   4.547  12.515
25233SOL    HW277539  12.151   4.575  12.489
25234SOL     OW77540  11.169  14.859  14.656
25234SOL    HW177541  11.258  14.852  14.689
25234SOL    HW277542  11.179   0.002  14.562
25235SOL     OW77543   4.509   9.344   7.621
25235SOL    HW177544   4.506   9.350   7.716
25235SOL    HW277545   4.480   9.254   7.601
25236SOL     OW77546   6.060   2.906  10.182
25236SOL    HW177547   6.049   2.993  10.142
25236SOL    HW277548   6.118   2.859  10.122
25237SOL     OW77549   5.004  11.453   0.708
25237SOL    HW177550   5.046  11.412   0.783
25237SOL    HW277551   4.991  11.544   0.734
25238SOL     OW77552   6.837   6.783   9.955
25238SOL    HW177553   6.753   6.795   9.999
25238SOL    HW277554   6.840   6.690   9.932
25239SOL     OW77555   0.022   3.456  11.339
25239SOL    HW177556  14.843   3.456  11.259
25239SOL    HW277557  14.834   3.438  11.409
25240SOL     OW77558  10.697   6.055   7.177
25240SOL    HW177559  10.705   6.134   7.125
25240SOL    HW277560  10.605   6.030   7.169
25241SOL     OW77561   4.101   1.485  11.495
25241SOL    HW177562   4.092   1.480  11.400
25241SOL    HW277563   4.014   1.465  11.529
25242SOL     OW77564   0.381  10.429  14.135
25242SOL    HW177565   0.378  10.429  14.231
25242SOL    HW277566   0.295  10.460  14.109
25243SOL     OW77567   9.494   2.182   5.824
25243SOL    HW177568   9.415   2.148   5.867
25243SOL    HW277569   9.492   2.145   5.736
25244SOL     OW77570   0.350   3.268   3.894
25244SOL    HW177571   0.392   3.187   3.867
25244SOL    HW277572   0.421   3.332   3.894
25245SOL     OW77573  12.774   8.970   2.454
25245SOL    HW177574  12.698   8.912   2.441
25245SOL    HW277575  12.762   9.039   2.389
25246SOL     OW77576   2.787   2.067   0.769
25246SOL    HW177577   2.827   2.024   0.845
25246SOL    HW277578   2.842   2.041   0.695
25247SOL     OW77579   5.987   0.231   0.948
25247SOL    HW177580   5.894   0.211   0.944
25247SOL    HW277581   6.015   0.196   1.032
25248SOL     OW77582   7.981  11.225   9.914
25248SOL    HW177583   8.074  11.202   9.916
25248SOL    HW277584   7.959  11.226   9.821
25249SOL     OW77585  10.064   3.500   6.793
25249SOL    HW177586  10.111   3.433   6.743
25249SOL    HW277587   9.973   3.492   6.764
25250SOL     OW77588   5.612   3.443   7.881
25250SOL    HW177589   5.658   3.407   7.957
25250SOL    HW277590   5.583   3.366   7.832
25251SOL     OW77591  14.663  14.159   0.583
25251SOL    HW177592  14.623  14.245   0.594
25251SOL    HW277593  14.662  14.121   0.671
25252SOL     OW77594   3.873  14.075   1.043
25252SOL    HW177595   3.852  14.110   1.130
25252SOL    HW277596   3.896  13.983   1.060
25253SOL     OW77597   5.948  12.722   3.173
25253SOL    HW177598   6.032  12.708   3.217
25253SOL    HW277599   5.895  12.770   3.236
25254SOL     OW77600   3.386   2.726   7.859
25254SOL    HW177601   3.301   2.740   7.901
25254SOL    HW277602   3.422   2.649   7.903
25255SOL     OW77603   8.875   9.588   5.559
25255SOL    HW177604   8.926   9.624   5.632
25255SOL    HW277605   8.790   9.631   5.566
25256SOL     OW77606  13.394   7.732   6.149
25256SOL    HW177607  13.334   7.735   6.224
25256SOL    HW277608  13.433   7.819   6.146
25257SOL     OW77609   9.802   1.334   3.997
25257SOL    HW177610   9.769   1.250   4.030
25257SOL    HW277611   9.783   1.332   3.903
25258SOL     OW77612   5.728   0.981   5.433
25258SOL    HW177613   5.732   1.056   5.492
25258SOL    HW277614   5.785   1.004   5.359
25259SOL     OW77615  13.260   5.850   9.437
25259SOL    HW177616  13.218   5.926   9.477
25259SOL    HW277617  13.188   5.805   9.391
25260SOL     OW77618  13.334   1.059   3.502
25260SOL    HW177619  13.328   1.051   3.597
25260SOL    HW277620  13.386   1.138   3.488
25261SOL     OW77621  10.091   2.912  13.113
25261SOL    HW177622  10.186   2.914  13.107
25261SOL    HW277623  10.064   3.003  13.101
25262SOL     OW77624   7.161  14.764   9.289
25262SOL    HW177625   7.079  14.735   9.250
25262SOL    HW277626   7.226  14.756   9.219
25263SOL     OW77627  12.904   6.371  10.549
25263SOL    HW177628  12.953   6.318  10.610
25263SOL    HW277629  12.963   6.442  10.525
25264SOL     OW77630   8.685   2.834   1.742
25264SOL    HW177631   8.780   2.842   1.751
25264SOL    HW277632   8.664   2.755   1.793
25265SOL     OW77633   8.701   2.786  14.540
25265SOL    HW177634   8.705   2.881  14.556
25265SOL    HW277635   8.678   2.778  14.448
25266SOL     OW77636   9.889  14.693  10.372
25266SOL    HW177637   9.844  14.775  10.354
25266SOL    HW277638   9.922  14.665  10.287
25267SOL     OW77639   4.595  10.944   9.656
25267SOL    HW177640   4.538  10.936   9.579
25267SOL    HW277641   4.658  10.872   9.647
25268SOL     OW77642   7.222   6.649  14.317
25268SOL    HW177643   7.204   6.555  14.317
25268SOL    HW277644   7.303   6.658  14.267
25269SOL     OW77645  12.838   3.826   4.014
25269SOL    HW177646  12.851   3.775   3.934
25269SOL    HW277647  12.755   3.870   4.001
25270SOL     OW77648   6.813  10.840   3.818
25270SOL    HW177649   6.879  10.867   3.882
25270SOL    HW277650   6.730  10.849   3.864
25271SOL     OW77651   5.549   7.303   7.543
25271SOL    HW177652   5.630   7.276   7.498
25271SOL    HW277653   5.569   7.389   7.579
25272SOL     OW77654   3.878   9.957  13.868
25272SOL    HW177655   3.946   9.891  13.856
25272SOL    HW277656   3.834   9.962  13.783
25273SOL     OW77657   2.614   0.737   4.178
25273SOL    HW177658   2.654   0.696   4.101
25273SOL    HW277659   2.528   0.695   4.186
25274SOL     OW77660   9.341  12.028   7.325
25274SOL    HW177661   9.277  12.099   7.315
25274SOL    HW277662   9.290  11.948   7.315
25275SOL     OW77663   7.730  13.823  11.285
25275SOL    HW177664   7.655  13.785  11.330
25275SOL    HW277665   7.767  13.885  11.348
25276SOL     OW77666   3.030   8.834  11.349
25276SOL    HW177667   3.019   8.762  11.411
25276SOL    HW277668   3.056   8.909  11.403
25277SOL     OW77669   1.058   3.985   1.987
25277SOL    HW177670   0.988   3.933   1.948
25277SOL    HW277671   1.097   4.032   1.912
25278SOL     OW77672   8.809  14.013  13.214
25278SOL    HW177673   8.828  14.015  13.120
25278SOL    HW277674   8.723  13.970  13.220
25279SOL     OW77675   9.987  11.131  11.368
25279SOL    HW177676  10.018  11.166  11.284
25279SOL    HW277677   9.942  11.050  11.344
25280SOL     OW77678  14.810   2.845   6.067
25280SOL    HW177679  14.721   2.844   6.032
25280SOL    HW277680  14.807   2.910   6.137
25281SOL     OW77681   9.530   9.003  12.052
25281SOL    HW177682   9.564   8.996  12.141
25281SOL    HW277683   9.598   9.050  12.003
25282SOL     OW77684  11.889  12.619  13.726
25282SOL    HW177685  11.912  12.537  13.771
25282SOL    HW277686  11.908  12.602  13.634
25283SOL     OW77687   1.139  10.864   9.527
25283SOL    HW177688   1.137  10.779   9.483
25283SOL    HW277689   1.212  10.858   9.589
25284SOL     OW77690  10.850   9.573   7.020
25284SOL    HW177691  10.874   9.666   7.015
25284SOL    HW277692  10.910   9.530   6.960
25285SOL     OW77693   9.424   9.869   1.558
25285SOL    HW177694   9.420   9.906   1.646
25285SOL    HW277695   9.340   9.894   1.518
25286SOL     OW77696   5.150  11.102   8.260
25286SOL    HW177697   5.193  11.152   8.329
25286SOL    HW277698   5.100  11.167   8.210
25287SOL     OW77699  11.202   4.911  13.167
25287SOL    HW177700  11.108   4.931  13.163
25287SOL    HW277701  11.222   4.910  13.260
25288SOL     OW77702   9.416   0.337  11.616
25288SOL    HW177703   9.323   0.318  11.603
25288SOL    HW277704   9.419   0.391  11.695
25289SOL     OW77705  12.038   9.858   0.212
25289SOL    HW177706  12.058   9.795   0.281
25289SOL    HW277707  12.124   9.891   0.185
25290SOL     OW77708  12.091   9.632  12.243
25290SOL    HW177709  12.162   9.581  12.282
25290SOL    HW277710  12.107   9.722  12.274
25291SOL     OW77711   0.116  12.787   7.055
25291SOL    HW177712   0.047  12.848   7.078
25291SOL    HW277713   0.159  12.827   6.979
25292SOL     OW77714   0.136   1.212   6.309
25292SOL    HW177715   0.230   1.212   6.329
25292SOL    HW277716   0.094   1.181   6.390
25293SOL     OW77717   2.421   3.445   2.177
25293SOL    HW177718   2.435   3.380   2.246
25293SOL    HW277719   2.353   3.502   2.211
25294SOL     OW77720   1.108   9.950  12.375
25294SOL    HW177721   1.091  10.006  12.451
25294SOL    HW277722   1.027   9.899  12.365
25295SOL     OW77723   5.372  11.494   0.716
25295SOL    HW177724   5.338  11.452   0.637
25295SOL    HW277725   5.434  11.559   0.685
25296SOL     OW77726  14.439  13.240  13.659
25296SOL    HW177727  14.506  13.286  13.709
25296SOL    HW277728  14.470  13.243  13.568
25297SOL     OW77729  10.524  14.847   1.257
25297SOL    HW177730  10.595   0.018   1.211
25297SOL    HW277731  10.518  14.762   1.213
25298SOL     OW77732   5.279   2.552   5.541
25298SOL    HW177733   5.194   2.547   5.497
25298SOL    HW277734   5.329   2.616   5.490
25299SOL     OW77735   8.388  14.582  12.466
25299SOL    HW177736   8.451  14.645  12.431
25299SOL    HW277737   8.307  14.599  12.418
25300SOL     OW77738   5.300   8.147   9.386
25300SOL    HW177739   5.350   8.219   9.425
25300SOL    HW277740   5.320   8.151   9.293
25301SOL     OW77741   3.505  11.526   3.628
25301SOL    HW177742   3.477  11.445   3.585
25301SOL    HW277743   3.462  11.596   3.579
25302SOL     OW77744   7.041   4.814   9.917
25302SOL    HW177745   7.013   4.825   9.826
25302SOL    HW277746   6.978   4.864   9.968
25303SOL     OW77747   6.007   1.555   4.713
25303SOL    HW177748   6.066   1.484   4.689
25303SOL    HW277749   5.948   1.563   4.638
25304SOL     OW77750  11.760  14.456  10.656
25304SOL    HW177751  11.783  14.411  10.574
25304SOL    HW277752  11.844  14.489  10.689
25305SOL     OW77753  11.009  11.489   7.643
25305SOL    HW177754  11.027  11.548   7.716
25305SOL    HW277755  10.990  11.547   7.569
25306SOL     OW77756   4.096   8.131  10.524
25306SOL    HW177757   4.058   8.197  10.466
25306SOL    HW277758   4.041   8.134  10.602
25307SOL     OW77759   7.983   7.403   8.663
25307SOL    HW177760   7.900   7.448   8.677
25307SOL    HW277761   8.044   7.472   8.637
25308SOL     OW77762  11.639   1.906  13.619
25308SOL    HW177763  11.613   1.904  13.527
25308SOL    HW277764  11.710   1.970  13.622
25309SOL     OW77765   3.720   3.550   1.740
25309SOL    HW177766   3.750   3.637   1.766
25309SOL    HW277767   3.757   3.538   1.652
25310SOL     OW77768   8.683   5.278  10.400
25310SOL    HW177769   8.707   5.365  10.435
25310SOL    HW277770   8.761   5.248  10.355
25311SOL     OW77771   4.241   6.486  12.906
25311SOL    HW177772   4.178   6.423  12.941
25311SOL    HW277773   4.296   6.434  12.847
25312SOL     OW77774  11.005  14.387   8.231
25312SOL    HW177775  11.028  14.341   8.311
25312SOL    HW277776  10.957  14.323   8.179
25313SOL     OW77777   6.233  10.665  13.860
25313SOL    HW177778   6.315  10.711  13.841
25313SOL    HW277779   6.224  10.602  13.789
25314SOL     OW77780  14.871   2.755   3.974
25314SOL    HW177781   0.017   2.756   3.881
25314SOL    HW277782  14.855   2.663   3.995
25315SOL     OW77783   7.650   4.157  13.150
25315SOL    HW177784   7.665   4.096  13.222
25315SOL    HW277785   7.605   4.231  13.191
25316SOL     OW77786  12.444   0.227   6.211
25316SOL    HW177787  12.365   0.250   6.260
25316SOL    HW277788  12.453   0.298   6.147
25317SOL     OW77789   9.994   3.816   2.441
25317SOL    HW177790   9.975   3.725   2.417
25317SOL    HW277791  10.026   3.812   2.531
25318SOL     OW77792   9.384   1.000   3.499
25318SOL    HW177793   9.476   0.982   3.483
25318SOL    HW277794   9.382   1.092   3.527
25319SOL     OW77795   5.014   4.650  10.776
25319SOL    HW177796   5.037   4.717  10.840
25319SOL    HW277797   5.006   4.697  10.693
25320SOL     OW77798  13.976  11.752   3.752
25320SOL    HW177799  14.070  11.762   3.767
25320SOL    HW277800  13.968  11.671   3.702
25321SOL     OW77801   7.162   7.522   3.742
25321SOL    HW177802   7.252   7.539   3.770
25321SOL    HW277803   7.170   7.498   3.650
25322SOL     OW77804   0.902   5.746  10.583
25322SOL    HW177805   0.936   5.722  10.669
25322SOL    HW277806   0.894   5.663  10.536
25323SOL     OW77807   0.159   5.728   0.581
25323SOL    HW177808   0.183   5.682   0.500
25323SOL    HW277809   0.184   5.668   0.651
25324SOL     OW77810   7.689   0.611   4.381
25324SOL    HW177811   7.645   0.692   4.355
25324SOL    HW277812   7.678   0.553   4.306
25325SOL     OW77813   8.445   7.206   8.612
25325SOL    HW177814   8.425   7.299   8.608
25325SOL    HW277815   8.452   7.179   8.520
25326SOL     OW77816  11.500   0.616   1.782
25326SOL    HW177817  11.435   0.635   1.714
25326SOL    HW277818  11.485   0.524   1.803
25327SOL     OW77819   8.420   5.757   9.179
25327SOL    HW177820   8.496   5.701   9.194
25327SOL    HW277821   8.455   5.846   9.173
25328SOL     OW77822  10.417  12.552   8.461
25328SOL    HW177823  10.376  12.475   8.421
25328SOL    HW277824  10.446  12.604   8.387
25329SOL     OW77825   1.152   8.972   8.049
25329SOL    HW177826   1.194   8.886   8.051
25329SOL    HW277827   1.155   9.003   8.139
25330SOL     OW77828  13.503   1.263   8.635
25330SOL    HW177829  13.479   1.228   8.549
25330SOL    HW277830  13.540   1.188   8.682
25331SOL     OW77831   6.311  12.938  10.651
25331SOL    HW177832   6.384  12.989  10.686
25331SOL    HW277833   6.286  12.879  10.722
25332SOL     OW77834   1.550   0.750  13.234
25332SOL    HW177835   1.491   0.700  13.291
25332SOL    HW277836   1.494   0.817  13.195
25333SOL     OW77837   2.319  13.190   7.398
25333SOL    HW177838   2.235  13.150   7.377
25333SOL    HW277839   2.375  13.117   7.425
25334SOL     OW77840   5.274   7.404   1.888
25334SOL    HW177841   5.360   7.362   1.889
25334SOL    HW277842   5.236   7.379   1.803
25335SOL     OW77843   7.573   5.712   9.847
25335SOL    HW177844   7.661   5.703   9.883
25335SOL    HW277845   7.526   5.764   9.913
25336SOL     OW77846   6.413   6.654   6.901
25336SOL    HW177847   6.388   6.627   6.990
25336SOL    HW277848   6.504   6.627   6.892
25337SOL     OW77849   6.237  12.271   3.361
25337SOL    HW177850   6.281  12.347   3.400
25337SOL    HW277851   6.284  12.257   3.279
25338SOL     OW77852  13.008   6.091   1.383
25338SOL    HW177853  13.102   6.070   1.385
25338SOL    HW277854  12.986   6.112   1.473
25339SOL     OW77855   2.781   9.083   0.854
25339SOL    HW177856   2.776   9.168   0.898
25339SOL    HW277857   2.742   9.021   0.915
25340SOL     OW77858   4.233   4.652   8.645
25340SOL    HW177859   4.199   4.631   8.732
25340SOL    HW277860   4.312   4.599   8.637
25341SOL     OW77861   4.537  13.359  10.568
25341SOL    HW177862   4.534  13.269  10.600
25341SOL    HW277863   4.597  13.357  10.493
25342SOL     OW77864   4.686   9.037  10.282
25342SOL    HW177865   4.713   9.115  10.235
25342SOL    HW277866   4.663   9.068  10.370
25343SOL     OW77867   0.716   2.284   2.435
25343SOL    HW177868   0.696   2.343   2.508
25343SOL    HW277869   0.637   2.232   2.424
25344SOL     OW77870   8.568   8.609   0.465
25344SOL    HW177871   8.505   8.554   0.419
25344SOL    HW277872   8.648   8.557   0.467
25345SOL     OW77873  14.836  10.456  10.364
25345SOL    HW177874  14.785  10.484  10.288
25345SOL    HW277875   0.029  10.399  10.328
25346SOL     OW77876  12.895   8.177   9.920
25346SOL    HW177877  12.847   8.126   9.854
25346SOL    HW277878  12.914   8.115   9.990
25347SOL     OW77879  11.269  12.667   1.759
25347SOL    HW177880  11.266  12.572   1.745
25347SOL    HW277881  11.347  12.696   1.712
25348SOL     OW77882   3.556   8.849  10.894
25348SOL    HW177883   3.606   8.767  10.885
25348SOL    HW277884   3.606   8.901  10.956
25349SOL     OW77885  11.526   5.292   5.229
25349SOL    HW177886  11.595   5.241   5.187
25349SOL    HW277887  11.448   5.236   5.224
25350SOL     OW77888  14.142  14.847   3.842
25350SOL    HW177889  14.117  14.838   3.750
25350SOL    HW277890  14.183  14.763   3.864
25351SOL     OW77891   1.843   0.472  13.867
25351SOL    HW177892   1.799   0.553  13.840
25351SOL    HW277893   1.814   0.459  13.958
25352SOL     OW77894  11.936   0.594   5.889
25352SOL    HW177895  11.865   0.566   5.946
25352SOL    HW277896  12.008   0.615   5.949
25353SOL     OW77897   7.576  14.444   6.814
25353SOL    HW177898   7.611  14.367   6.771
25353SOL    HW277899   7.579  14.423   6.908
25354SOL     OW77900  14.003   5.634   5.256
25354SOL    HW177901  14.080   5.577   5.254
25354SOL    HW277902  13.938   5.588   5.202
25355SOL     OW77903   5.534   6.328   3.251
25355SOL    HW177904   5.473   6.402   3.257
25355SOL    HW277905   5.617   6.368   3.227
25356SOL     OW77906  11.386   2.959   9.059
25356SOL    HW177907  11.342   2.946   8.975
25356SOL    HW277908  11.429   3.044   9.049
25357SOL     OW77909  12.307  13.263  13.878
25357SOL    HW177910  12.300  13.256  13.783
25357SOL    HW277911  12.254  13.339  13.901
25358SOL     OW77912   4.285  11.387   3.549
25358SOL    HW177913   4.240  11.365   3.631
25358SOL    HW277914   4.215  11.390   3.484
25359SOL     OW77915   9.991   7.775   4.407
25359SOL    HW177916  10.045   7.797   4.331
25359SOL    HW277917   9.902   7.767   4.372
25360SOL     OW77918  10.545   6.763   8.659
25360SOL    HW177919  10.479   6.762   8.590
25360SOL    HW277920  10.496   6.790   8.737
25361SOL     OW77921  13.760   8.462   2.360
25361SOL    HW177922  13.745   8.387   2.416
25361SOL    HW277923  13.833   8.509   2.401
25362SOL     OW77924  11.232   2.293  14.103
25362SOL    HW177925  11.322   2.326  14.102
25362SOL    HW277926  11.240   2.203  14.136
25363SOL     OW77927   9.188   9.494   3.093
25363SOL    HW177928   9.166   9.534   3.009
25363SOL    HW277929   9.283   9.486   3.092
25364SOL     OW77930  11.396  12.185   7.403
25364SOL    HW177931  11.325  12.184   7.468
25364SOL    HW277932  11.452  12.258   7.431
25365SOL     OW77933   6.609  10.125   2.645
25365SOL    HW177934   6.594  10.059   2.577
25365SOL    HW277935   6.533  10.118   2.702
25366SOL     OW77936  11.341   7.045  14.318
25366SOL    HW177937  11.299   7.128  14.342
25366SOL    HW277938  11.269   6.987  14.293
25367SOL     OW77939  14.124   4.238   2.862
25367SOL    HW177940  14.042   4.208   2.900
25367SOL    HW277941  14.184   4.164   2.872
25368SOL     OW77942   3.215   7.400   5.515
25368SOL    HW177943   3.254   7.472   5.465
25368SOL    HW277944   3.274   7.386   5.588
25369SOL     OW77945  10.219  14.265   4.637
25369SOL    HW177946  10.127  14.244   4.620
25369SOL    HW277947  10.217  14.318   4.717
25370SOL     OW77948  10.520   1.394   6.090
25370SOL    HW177949  10.586   1.336   6.128
25370SOL    HW277950  10.478   1.436   6.165
25371SOL     OW77951   9.651   8.421   4.485
25371SOL    HW177952   9.714   8.489   4.508
25371SOL    HW277953   9.664   8.409   4.391
25372SOL     OW77954   9.330  11.638   1.063
25372SOL    HW177955   9.407  11.634   1.006
25372SOL    HW277956   9.264  11.588   1.016
25373SOL     OW77957   1.623   5.306   9.298
25373SOL    HW177958   1.545   5.285   9.247
25373SOL    HW277959   1.693   5.309   9.233
25374SOL     OW77960  14.410   8.984  14.318
25374SOL    HW177961  14.373   9.003  14.232
25374SOL    HW277962  14.346   8.925  14.359
25375SOL     OW77963   8.852  11.901   6.940
25375SOL    HW177964   8.856  11.984   6.988
25375SOL    HW277965   8.876  11.835   7.004
25376SOL     OW77966  12.529   2.803   3.641
25376SOL    HW177967  12.475   2.791   3.563
25376SOL    HW277968  12.514   2.894   3.667
25377SOL     OW77969  11.342   1.049   4.458
25377SOL    HW177970  11.403   0.982   4.430
25377SOL    HW277971  11.283   1.060   4.383
25378SOL     OW77972   9.839   2.903   8.525
25378SOL    HW177973   9.885   2.905   8.441
25378SOL    HW277974   9.789   2.822   8.523
25379SOL     OW77975   0.581   3.700   3.793
25379SOL    HW177976   0.528   3.670   3.719
25379SOL    HW277977   0.524   3.762   3.838
25380SOL     OW77978   0.948   4.173   7.368
25380SOL    HW177979   1.033   4.161   7.410
25380SOL    HW277980   0.953   4.260   7.328
25381SOL     OW77981   2.606  10.834  10.198
25381SOL    HW177982   2.669  10.825  10.270
25381SOL    HW277983   2.523  10.803  10.234
25382SOL     OW77984  14.027   3.530   8.007
25382SOL    HW177985  13.953   3.515   8.065
25382SOL    HW277986  14.103   3.536   8.065
25383SOL     OW77987  10.492   9.952   9.569
25383SOL    HW177988  10.524   9.969   9.480
25383SOL    HW277989  10.510  10.033   9.617
25384SOL     OW77990   5.350  13.132   3.315
25384SOL    HW177991   5.282  13.165   3.373
25384SOL    HW277992   5.396  13.065   3.367
25385SOL     OW77993  11.804  13.622   7.667
25385SOL    HW177994  11.766  13.563   7.603
25385SOL    HW277995  11.798  13.574   7.750
25386SOL     OW77996  10.959   1.670  13.208
25386SOL    HW177997  10.941   1.763  13.199
25386SOL    HW277998  11.054   1.664  13.218
25387SOL     OW77999  13.698   1.654  11.387
25387SOL    HW178000  13.640   1.650  11.311
25387SOL    HW278001  13.686   1.742  11.421
25388SOL     OW78002   6.878   0.426   3.058
25388SOL    HW178003   6.965   0.464   3.068
25388SOL    HW278004   6.889   0.334   3.083
25389SOL     OW78005   1.947  14.684   2.275
25389SOL    HW178006   1.866  14.673   2.325
25389SOL    HW278007   2.011  14.629   2.321
25390SOL     OW78008  10.185  12.345   3.282
25390SOL    HW178009  10.259  12.397   3.313
25390SOL    HW278010  10.123  12.345   3.355
25391SOL     OW78011   5.095   8.393   9.049
25391SOL    HW178012   5.150   8.326   9.090
25391SOL    HW278013   5.109   8.382   8.955
25392SOL     OW78014   9.814   3.856  11.947
25392SOL    HW178015   9.837   3.907  12.025
25392SOL    HW278016   9.719   3.852  11.948
25393SOL     OW78017  10.350  12.453   6.614
25393SOL    HW178018  10.394  12.499   6.685
25393SOL    HW278019  10.349  12.361   6.642
25394SOL     OW78020   7.763   3.050  13.272
25394SOL    HW178021   7.835   2.990  13.252
25394SOL    HW278022   7.746   3.096  13.190
25395SOL     OW78023   9.466   0.932  10.436
25395SOL    HW178024   9.434   0.942  10.346
25395SOL    HW278025   9.517   0.852  10.435
25396SOL     OW78026  11.831  12.950   9.121
25396SOL    HW178027  11.873  12.972   9.038
25396SOL    HW278028  11.902  12.918   9.177
25397SOL     OW78029   7.730   5.227   7.366
25397SOL    HW178030   7.698   5.282   7.437
25397SOL    HW278031   7.825   5.233   7.371
25398SOL     OW78032  10.942  12.424   0.767
25398SOL    HW178033  10.873  12.487   0.788
25398SOL    HW278034  10.984  12.460   0.689
25399SOL     OW78035   0.337  14.648   3.439
25399SOL    HW178036   0.300  14.625   3.354
25399SOL    HW278037   0.431  14.632   3.430
25400SOL     OW78038  11.919   7.669   6.824
25400SOL    HW178039  11.985   7.720   6.870
25400SOL    HW278040  11.963   7.637   6.745
25401SOL     OW78041   0.805  10.463   8.132
25401SOL    HW178042   0.720  10.440   8.168
25401SOL    HW278043   0.865  10.462   8.207
25402SOL     OW78044   0.151   8.760   1.366
25402SOL    HW178045   0.093   8.711   1.424
25402SOL    HW278046   0.093   8.799   1.301
25403SOL     OW78047  14.605  14.687   7.690
25403SOL    HW178048  14.621  14.779   7.712
25403SOL    HW278049  14.535  14.691   7.624
25404SOL     OW78050   1.016   2.484  12.857
25404SOL    HW178051   1.059   2.460  12.940
25404SOL    HW278052   0.957   2.411  12.839
25405SOL     OW78053   9.447   6.677  14.596
25405SOL    HW178054   9.446   6.628  14.514
25405SOL    HW278055   9.456   6.610  14.664
25406SOL     OW78056   8.206  12.738   0.885
25406SOL    HW178057   8.263  12.763   0.813
25406SOL    HW278058   8.140  12.682   0.845
25407SOL     OW78059   1.002   8.508   1.507
25407SOL    HW178060   0.908   8.490   1.510
25407SOL    HW278061   1.022   8.517   1.414
25408SOL     OW78062  12.195  13.314   3.582
25408SOL    HW178063  12.111  13.279   3.551
25408SOL    HW278064  12.178  13.334   3.675
25409SOL     OW78065  13.291   6.559   2.568
25409SOL    HW178066  13.361   6.537   2.629
25409SOL    HW278067  13.293   6.490   2.502
25410SOL     OW78068  14.548  14.328   3.457
25410SOL    HW178069  14.454  14.341   3.467
25410SOL    HW278070  14.586  14.415   3.469
25411SOL     OW78071   5.665   1.631   9.035
25411SOL    HW178072   5.699   1.598   8.952
25411SOL    HW278073   5.742   1.635   9.093
25412SOL     OW78074  14.062   7.599   6.659
25412SOL    HW178075  13.975   7.574   6.688
25412SOL    HW278076  14.108   7.516   6.648
25413SOL     OW78077  11.297  14.408   2.685
25413SOL    HW178078  11.362  14.431   2.752
25413SOL    HW278079  11.272  14.318   2.705
25414SOL     OW78080  14.821   9.369   1.811
25414SOL    HW178081  14.735   9.400   1.840
25414SOL    HW278082   0.008   9.434   1.847
25415SOL     OW78083  11.410   5.031   4.166
25415SOL    HW178084  11.374   4.970   4.231
25415SOL    HW278085  11.501   5.005   4.157
25416SOL     OW78086   0.483  11.905  12.633
25416SOL    HW178087   0.484  11.966  12.559
25416SOL    HW278088   0.499  11.961  12.710
25417SOL     OW78089  14.254  11.978  13.390
25417SOL    HW178090  14.349  11.979  13.391
25417SOL    HW278091  14.229  12.067  13.365
25418SOL     OW78092   2.089   2.551  14.686
25418SOL    HW178093   2.061   2.480  14.743
25418SOL    HW278094   2.172   2.522  14.649
25419SOL     OW78095   1.220  12.268  14.080
25419SOL    HW178096   1.254  12.295  14.165
25419SOL    HW278097   1.134  12.231  14.099
25420SOL     OW78098   5.503  14.530   2.146
25420SOL    HW178099   5.473  14.458   2.090
25420SOL    HW278100   5.526  14.600   2.085
25421SOL     OW78101  14.540  11.465  10.578
25421SOL    HW178102  14.498  11.528  10.519
25421SOL    HW278103  14.507  11.488  10.665
25422SOL     OW78104   8.773   4.437   5.537
25422SOL    HW178105   8.756   4.499   5.467
25422SOL    HW278106   8.756   4.487   5.617
25423SOL     OW78107  10.167   3.191   4.308
25423SOL    HW178108  10.180   3.192   4.402
25423SOL    HW278109  10.094   3.132   4.294
25424SOL     OW78110  11.052   0.932  14.468
25424SOL    HW178111  11.083   1.016  14.433
25424SOL    HW278112  11.003   0.892  14.396
25425SOL     OW78113  13.647  11.819   7.738
25425SOL    HW178114  13.582  11.769   7.787
25425SOL    HW278115  13.608  11.831   7.652
25426SOL     OW78116   8.878  13.131   2.959
25426SOL    HW178117   8.889  13.179   3.041
25426SOL    HW278118   8.913  13.044   2.977
25427SOL     OW78119   5.631   8.978   7.234
25427SOL    HW178120   5.614   8.991   7.141
25427SOL    HW278121   5.607   9.061   7.275
25428SOL     OW78122  11.890  10.178   0.958
25428SOL    HW178123  11.912  10.215   1.043
25428SOL    HW278124  11.959  10.113   0.941
25429SOL     OW78125   3.107   2.557   9.077
25429SOL    HW178126   3.127   2.603   8.996
25429SOL    HW278127   3.026   2.510   9.059
25430SOL     OW78128   9.892   4.481   1.938
25430SOL    HW178129   9.972   4.458   1.984
25430SOL    HW278130   9.875   4.407   1.880
25431SOL     OW78131   3.212   0.403   9.802
25431SOL    HW178132   3.297   0.367   9.826
25431SOL    HW278133   3.230   0.457   9.725
25432SOL     OW78134  13.016   4.687   2.315
25432SOL    HW178135  13.084   4.650   2.259
25432SOL    HW278136  13.023   4.638   2.397
25433SOL     OW78137  11.751   1.881   6.834
25433SOL    HW178138  11.683   1.946   6.819
25433SOL    HW278139  11.766   1.842   6.748
25434SOL     OW78140   6.381   1.845  13.474
25434SOL    HW178141   6.446   1.801  13.529
25434SOL    HW278142   6.433   1.904  13.420
25435SOL     OW78143  10.135  14.547  12.116
25435SOL    HW178144  10.196  14.473  12.116
25435SOL    HW278145  10.121  14.565  12.209
25436SOL     OW78146   9.765   7.105   5.841
25436SOL    HW178147   9.734   7.059   5.919
25436SOL    HW278148   9.753   7.198   5.861
25437SOL     OW78149  13.323   5.694   1.696
25437SOL    HW178150  13.248   5.696   1.755
25437SOL    HW278151  13.293   5.741   1.618
25438SOL     OW78152  10.707   8.402  14.671
25438SOL    HW178153  10.729   8.310  14.684
25438SOL    HW278154  10.754   8.449  14.740
25439SOL     OW78155  14.722   8.010  14.678
25439SOL    HW178156  14.629   8.014  14.698
25439SOL    HW278157  14.759   8.089  14.716
25440SOL     OW78158   8.366   4.164   4.564
25440SOL    HW178159   8.404   4.209   4.639
25440SOL    HW278160   8.272   4.161   4.583
25441SOL     OW78161   2.824   7.757   0.834
25441SOL    HW178162   2.732   7.745   0.855
25441SOL    HW278163   2.826   7.761   0.738
25442SOL     OW78164   2.208   4.169   1.230
25442SOL    HW178165   2.185   4.213   1.148
25442SOL    HW278166   2.238   4.082   1.203
25443SOL     OW78167   2.681   7.709  13.088
25443SOL    HW178168   2.673   7.786  13.145
25443SOL    HW278169   2.605   7.714  13.030
25444SOL     OW78170  10.922   8.758  10.099
25444SOL    HW178171  10.854   8.724  10.041
25444SOL    HW278172  10.924   8.852  10.079
25445SOL     OW78173   1.725   4.039   6.361
25445SOL    HW178174   1.669   3.971   6.325
25445SOL    HW278175   1.669   4.087   6.421
25446SOL     OW78176  10.322   6.259  14.232
25446SOL    HW178177  10.327   6.179  14.179
25446SOL    HW278178  10.388   6.317  14.194
25447SOL     OW78179   0.132  10.437   3.675
25447SOL    HW178180   0.181  10.517   3.695
25447SOL    HW278181   0.173  10.403   3.596
25448SOL     OW78182  14.772  14.468   7.589
25448SOL    HW178183  14.724  14.393   7.625
25448SOL    HW278184  14.754  14.540   7.649
25449SOL     OW78185   8.948  13.483  13.993
25449SOL    HW178186   8.966  13.406  14.047
25449SOL    HW278187   8.950  13.451  13.903
25450SOL     OW78188   5.842  14.741   2.615
25450SOL    HW178189   5.833  14.837   2.615
25450SOL    HW278190   5.769  14.710   2.667
25451SOL     OW78191  11.060  10.071   6.849
25451SOL    HW178192  11.030  10.118   6.927
25451SOL    HW278193  11.019  10.116   6.776
25452SOL     OW78194   9.060   1.132   4.926
25452SOL    HW178195   9.140   1.136   4.978
25452SOL    HW278196   9.089   1.101   4.840
25453SOL     OW78197   6.908  12.757   3.448
25453SOL    HW178198   6.980  12.819   3.434
25453SOL    HW278199   6.948  12.671   3.436
25454SOL     OW78200   6.295   0.341   2.116
25454SOL    HW178201   6.263   0.430   2.104
25454SOL    HW278202   6.374   0.351   2.169
25455SOL     OW78203   3.589   0.381  10.907
25455SOL    HW178204   3.662   0.395  10.967
25455SOL    HW278205   3.521   0.341  10.962
25456SOL     OW78206   1.784  12.587   4.901
25456SOL    HW178207   1.731  12.532   4.959
25456SOL    HW278208   1.785  12.673   4.942
25457SOL     OW78209  10.808   4.179   3.104
25457SOL    HW178210  10.778   4.247   3.044
25457SOL    HW278211  10.879   4.221   3.154
25458SOL     OW78212  10.914   6.067   5.977
25458SOL    HW178213  10.954   5.980   5.984
25458SOL    HW278214  10.922   6.104   6.065
25459SOL     OW78215  14.655   5.104   1.907
25459SOL    HW178216  14.626   5.043   1.975
25459SOL    HW278217  14.639   5.191   1.945
25460SOL     OW78218   2.030   6.726   6.536
25460SOL    HW178219   1.950   6.675   6.538
25460SOL    HW278220   2.003   6.814   6.561
25461SOL     OW78221   9.757   1.651   8.022
25461SOL    HW178222   9.694   1.665   7.952
25461SOL    HW278223   9.806   1.733   8.028
25462SOL     OW78224  13.975   1.670   3.210
25462SOL    HW178225  13.914   1.744   3.206
25462SOL    HW278226  14.060   1.711   3.226
25463SOL     OW78227   4.290   7.455   5.068
25463SOL    HW178228   4.246   7.478   5.150
25463SOL    HW278229   4.291   7.360   5.067
25464SOL     OW78230   5.619   1.714   4.708
25464SOL    HW178231   5.649   1.780   4.770
25464SOL    HW278232   5.554   1.758   4.654
25465SOL     OW78233  14.063  11.880  10.553
25465SOL    HW178234  13.997  11.838  10.608
25465SOL    HW278235  14.111  11.807  10.513
25466SOL     OW78236  12.374   3.699  13.998
25466SOL    HW178237  12.305   3.697  13.932
25466SOL    HW278238  12.454   3.721  13.950
25467SOL     OW78239   5.831   6.018   1.619
25467SOL    HW178240   5.864   5.958   1.687
25467SOL    HW278241   5.892   6.007   1.546
25468SOL     OW78242  11.521   8.335   6.031
25468SOL    HW178243  11.516   8.430   6.018
25468SOL    HW278244  11.445   8.301   5.984
25469SOL     OW78245   2.601   0.916   5.542
25469SOL    HW178246   2.578   0.863   5.466
25469SOL    HW278247   2.517   0.940   5.581
25470SOL     OW78248  14.749   3.641  10.902
25470SOL    HW178249  14.743   3.681  10.989
25470SOL    HW278250  14.835   3.668  10.869
25471SOL     OW78251  12.529   8.743   7.972
25471SOL    HW178252  12.483   8.688   7.909
25471SOL    HW278253  12.608   8.772   7.926
25472SOL     OW78254   7.630  10.938   3.941
25472SOL    HW178255   7.606  10.848   3.964
25472SOL    HW278256   7.691  10.965   4.009
25473SOL     OW78257   5.514  14.766   1.274
25473SOL    HW178258   5.495  14.831   1.342
25473SOL    HW278259   5.450  14.784   1.205
25474SOL     OW78260   8.788  11.652   9.004
25474SOL    HW178261   8.793  11.605   8.921
25474SOL    HW278262   8.879  11.675   9.024
25475SOL     OW78263   1.381   3.978   9.088
25475SOL    HW178264   1.403   3.887   9.071
25475SOL    HW278265   1.461   4.016   9.124
25476SOL     OW78266  11.657  12.915   2.330
25476SOL    HW178267  11.576  12.967   2.334
25476SOL    HW278268  11.699  12.930   2.415
25477SOL     OW78269   4.177   2.495   1.848
25477SOL    HW178270   4.226   2.554   1.904
25477SOL    HW278271   4.224   2.412   1.853
25478SOL     OW78272  11.977   8.785   6.568
25478SOL    HW178273  11.981   8.872   6.529
25478SOL    HW278274  11.986   8.725   6.494
25479SOL     OW78275   9.783   8.456  11.054
25479SOL    HW178276   9.786   8.402  11.133
25479SOL    HW278277   9.723   8.527  11.076
25480SOL     OW78278   1.700   6.771   3.144
25480SOL    HW178279   1.781   6.781   3.193
25480SOL    HW278280   1.642   6.838   3.179
25481SOL     OW78281   6.364   4.913   8.904
25481SOL    HW178282   6.413   4.989   8.934
25481SOL    HW278283   6.366   4.852   8.978
25482SOL     OW78284  10.077   8.550  12.658
25482SOL    HW178285  10.148   8.587  12.606
25482SOL    HW278286  10.016   8.623  12.670
25483SOL     OW78287   6.157   4.879   3.997
25483SOL    HW178288   6.165   4.784   3.986
25483SOL    HW278289   6.237   4.905   4.041
25484SOL     OW78290   9.570   6.847  13.987
25484SOL    HW178291   9.536   6.891  13.909
25484SOL    HW278292   9.636   6.787  13.955
25485SOL     OW78293   7.890   1.634   0.363
25485SOL    HW178294   7.979   1.638   0.397
25485SOL    HW278295   7.897   1.588   0.280
25486SOL     OW78296  10.852  11.418  10.496
25486SOL    HW178297  10.904  11.455  10.424
25486SOL    HW278298  10.839  11.491  10.556
25487SOL     OW78299   4.821   7.091   7.345
25487SOL    HW178300   4.813   7.168   7.402
25487SOL    HW278301   4.806   7.017   7.403
25488SOL     OW78302   7.617   9.946   5.005
25488SOL    HW178303   7.626   9.962   5.099
25488SOL    HW278304   7.608   9.851   4.998
25489SOL     OW78305   9.952   8.836   1.540
25489SOL    HW178306  10.046   8.819   1.545
25489SOL    HW278307   9.944   8.931   1.545
25490SOL     OW78308   1.812  13.887   8.473
25490SOL    HW178309   1.838  13.918   8.387
25490SOL    HW278310   1.757  13.810   8.455
25491SOL     OW78311   3.879  11.353   5.941
25491SOL    HW178312   3.814  11.286   5.922
25491SOL    HW278313   3.933  11.315   6.011
25492SOL     OW78314   5.877   9.827   3.191
25492SOL    HW178315   5.799   9.867   3.151
25492SOL    HW278316   5.885   9.869   3.276
25493SOL     OW78317  10.339   2.171  13.727
25493SOL    HW178318  10.320   2.166  13.633
25493SOL    HW278319  10.432   2.194  13.731
25494SOL     OW78320  11.644  11.971   5.381
25494SOL    HW178321  11.555  11.950   5.353
25494SOL    HW278322  11.695  11.968   5.301
25495SOL     OW78323   2.721   8.277  11.692
25495SOL    HW178324   2.729   8.303  11.601
25495SOL    HW278325   2.753   8.187  11.695
25496SOL     OW78326  13.434  14.337   0.526
25496SOL    HW178327  13.438  14.415   0.581
25496SOL    HW278328  13.438  14.370   0.436
25497SOL     OW78329  13.585  14.479  14.527
25497SOL    HW178330  13.515  14.539  14.502
25497SOL    HW278331  13.565  14.456  14.618
25498SOL     OW78332   5.333   3.289   0.034
25498SOL    HW178333   5.408   3.344   0.055
25498SOL    HW278334   5.270   3.348  14.868
25499SOL     OW78335  11.960  12.925   2.000
25499SOL    HW178336  11.907  12.969   2.067
25499SOL    HW278337  12.047  12.962   2.010
25500SOL     OW78338  10.737  11.766   9.320
25500SOL    HW178339  10.764  11.785   9.230
25500SOL    HW278340  10.819  11.767   9.370
25501SOL     OW78341  13.879  13.232   0.210
25501SOL    HW178342  13.912  13.316   0.176
25501SOL    HW278343  13.785  13.244   0.216
25502SOL     OW78344  12.473   3.900  14.697
25502SOL    HW178345  12.499   3.867  14.611
25502SOL    HW278346  12.504   3.833  14.758
25503SOL     OW78347   1.560   7.503  12.086
25503SOL    HW178348   1.616   7.429  12.067
25503SOL    HW278349   1.473   7.478  12.053
25504SOL     OW78350   2.918   5.013   6.840
25504SOL    HW178351   2.943   5.103   6.822
25504SOL    HW278352   2.871   5.017   6.923
25505SOL     OW78353   8.708   3.290   2.422
25505SOL    HW178354   8.762   3.367   2.406
25505SOL    HW278355   8.628   3.306   2.372
25506SOL     OW78356   6.053   3.512  13.910
25506SOL    HW178357   5.986   3.490  13.846
25506SOL    HW278358   6.066   3.606  13.899
25507SOL     OW78359   8.181  14.668  10.916
25507SOL    HW178360   8.244  14.612  10.871
25507SOL    HW278361   8.235  14.724  10.972
25508SOL     OW78362   9.130   1.692   4.873
25508SOL    HW178363   9.140   1.735   4.788
25508SOL    HW278364   9.096   1.760   4.931
25509SOL     OW78365   2.408  12.017  10.711
25509SOL    HW178366   2.323  11.990  10.677
25509SOL    HW278367   2.389  12.092  10.767
25510SOL     OW78368   8.641   9.016  12.889
25510SOL    HW178369   8.659   8.922  12.880
25510SOL    HW278370   8.721   9.058  12.856
25511SOL     OW78371   7.473   6.799   5.699
25511SOL    HW178372   7.388   6.842   5.709
25511SOL    HW278373   7.452   6.709   5.677
25512SOL     OW78374   7.936   2.851  13.179
25512SOL    HW178375   7.860   2.815  13.134
25512SOL    HW278376   8.006   2.849  13.113
25513SOL     OW78377   8.494   8.318   4.615
25513SOL    HW178378   8.510   8.282   4.702
25513SOL    HW278379   8.457   8.405   4.631
25514SOL     OW78380  11.821   4.671  13.352
25514SOL    HW178381  11.878   4.748  13.351
25514SOL    HW278382  11.836   4.629  13.267
25515SOL     OW78383   0.665   2.606   3.179
25515SOL    HW178384   0.712   2.689   3.175
25515SOL    HW278385   0.732   2.541   3.202
25516SOL     OW78386   7.499   3.972   9.484
25516SOL    HW178387   7.493   3.961   9.579
25516SOL    HW278388   7.427   3.920   9.448
25517SOL     OW78389   2.184  10.451  12.734
25517SOL    HW178390   2.244  10.525  12.724
25517SOL    HW278391   2.107  10.476  12.682
25518SOL     OW78392   1.595   1.436  11.637
25518SOL    HW178393   1.615   1.524  11.669
25518SOL    HW278394   1.503   1.422  11.660
25519SOL     OW78395  10.187   3.157   9.958
25519SOL    HW178396  10.212   3.082   9.905
25519SOL    HW278397  10.209   3.233   9.904
25520SOL     OW78398   5.959  13.979   8.615
25520SOL    HW178399   6.034  14.028   8.582
25520SOL    HW278400   5.885  14.013   8.564
25521SOL     OW78401  13.205   5.292   3.119
25521SOL    HW178402  13.139   5.353   3.086
25521SOL    HW278403  13.157   5.210   3.131
25522SOL     OW78404   5.942   2.737  12.228
25522SOL    HW178405   6.017   2.786  12.195
25522SOL    HW278406   5.866   2.778  12.186
25523SOL     OW78407  12.097   1.990  13.987
25523SOL    HW178408  12.180   2.025  14.019
25523SOL    HW278409  12.059   2.062  13.935
25524SOL     OW78410  10.031   1.448   8.296
25524SOL    HW178411   9.940   1.472   8.315
25524SOL    HW278412  10.026   1.357   8.266
25525SOL     OW78413   7.289  12.073   6.237
25525SOL    HW178414   7.342  12.055   6.315
25525SOL    HW278415   7.212  12.018   6.247
25526SOL     OW78416  13.941   7.030   3.583
25526SOL    HW178417  13.942   7.119   3.548
25526SOL    HW278418  13.942   7.042   3.678
25527SOL     OW78419  11.631   2.665  14.434
25527SOL    HW178420  11.713   2.711  14.416
25527SOL    HW278421  11.598   2.639  14.348
25528SOL     OW78422   4.490   9.662   6.445
25528SOL    HW178423   4.559   9.597   6.436
25528SOL    HW278424   4.468   9.662   6.538
25529SOL     OW78425   8.509   1.924   3.591
25529SOL    HW178426   8.478   1.958   3.675
25529SOL    HW278427   8.471   1.836   3.584
25530SOL     OW78428   4.112   8.145   4.379
25530SOL    HW178429   4.193   8.094   4.380
25530SOL    HW278430   4.141   8.234   4.356
25531SOL     OW78431   6.919   8.375  12.757
25531SOL    HW178432   6.892   8.452  12.707
25531SOL    HW278433   6.908   8.302  12.697
25532SOL     OW78434  10.029  11.882   0.250
25532SOL    HW178435   9.958  11.909   0.192
25532SOL    HW278436  10.107  11.884   0.195
25533SOL     OW78437   6.128   1.916   9.174
25533SOL    HW178438   6.048   1.948   9.132
25533SOL    HW278439   6.198   1.971   9.138
25534SOL     OW78440  11.931   8.054   1.073
25534SOL    HW178441  11.912   8.130   1.128
25534SOL    HW278442  11.883   8.071   0.991
25535SOL     OW78443   1.377   2.603   4.085
25535SOL    HW178444   1.461   2.573   4.052
25535SOL    HW278445   1.396   2.686   4.128
25536SOL     OW78446   7.925   8.877   1.934
25536SOL    HW178447   7.972   8.853   2.014
25536SOL    HW278448   7.833   8.884   1.961
25537SOL     OW78449   5.103   2.821   2.375
25537SOL    HW178450   5.136   2.888   2.315
25537SOL    HW278451   5.096   2.742   2.322
25538SOL     OW78452   7.877  10.246   1.713
25538SOL    HW178453   7.795  10.205   1.741
25538SOL    HW278454   7.849  10.325   1.668
25539SOL     OW78455  11.912   0.288   2.809
25539SOL    HW178456  11.956   0.218   2.762
25539SOL    HW278457  11.846   0.242   2.862
25540SOL     OW78458  13.886  14.730  13.518
25540SOL    HW178459  13.954  14.737  13.451
25540SOL    HW278460  13.811  14.692  13.471
25541SOL     OW78461   4.757   5.761   5.663
25541SOL    HW178462   4.807   5.700   5.608
25541SOL    HW278463   4.743   5.838   5.607
25542SOL     OW78464   2.587   5.185   9.008
25542SOL    HW178465   2.653   5.253   9.020
25542SOL    HW278466   2.628   5.124   8.946
25543SOL     OW78467  14.529   7.559   2.382
25543SOL    HW178468  14.434   7.570   2.390
25543SOL    HW278469  14.546   7.475   2.424
25544SOL     OW78470  11.861   4.724  11.967
25544SOL    HW178471  11.817   4.651  12.011
25544SOL    HW278472  11.925   4.683  11.909
25545SOL     OW78473  10.087  13.241   8.161
25545SOL    HW178474  10.050  13.309   8.217
25545SOL    HW278475  10.137  13.289   8.095
25546SOL     OW78476   5.323   1.962   0.141
25546SOL    HW178477   5.385   1.901   0.100
25546SOL    HW278478   5.253   1.906   0.174
25547SOL     OW78479   8.781   1.715   5.787
25547SOL    HW178480   8.760   1.684   5.875
25547SOL    HW278481   8.856   1.774   5.800
25548SOL     OW78482   7.309   5.413   5.018
25548SOL    HW178483   7.277   5.488   4.967
25548SOL    HW278484   7.234   5.388   5.073
25549SOL     OW78485   9.505   9.886   3.856
25549SOL    HW178486   9.590   9.919   3.827
25549SOL    HW278487   9.517   9.791   3.860
25550SOL     OW78488  10.107   7.744   6.630
25550SOL    HW178489  10.039   7.810   6.644
25550SOL    HW278490  10.059   7.662   6.621
25551SOL     OW78491   6.582   7.411  13.776
25551SOL    HW178492   6.664   7.376  13.741
25551SOL    HW278493   6.609   7.483  13.833
25552SOL     OW78494   1.872  10.442   5.162
25552SOL    HW178495   1.965  10.455   5.178
25552SOL    HW278496   1.829  10.490   5.232
25553SOL     OW78497   8.294  10.436   4.383
25553SOL    HW178498   8.293  10.480   4.298
25553SOL    HW278499   8.279  10.343   4.362
25554SOL     OW78500   9.473   4.071   2.735
25554SOL    HW178501   9.538   4.076   2.805
25554SOL    HW278502   9.390   4.060   2.780
25555SOL     OW78503   8.695  11.828  12.437
25555SOL    HW178504   8.640  11.891  12.483
25555SOL    HW278505   8.741  11.879  12.370
25556SOL     OW78506  14.111   1.541   2.946
25556SOL    HW178507  14.064   1.565   3.026
25556SOL    HW278508  14.095   1.447   2.937
25557SOL     OW78509   4.534   9.099  10.527
25557SOL    HW178510   4.458   9.111  10.584
25557SOL    HW278511   4.514   9.150  10.449
25558SOL     OW78512  12.479   9.594  12.887
25558SOL    HW178513  12.516   9.577  12.801
25558SOL    HW278514  12.547   9.644  12.933
25559SOL     OW78515   4.791   2.793  13.482
25559SOL    HW178516   4.858   2.733  13.451
25559SOL    HW278517   4.710   2.760  13.444
25560SOL     OW78518   8.333  11.905   3.427
25560SOL    HW178519   8.428  11.915   3.414
25560SOL    HW278520   8.324  11.820   3.469
25561SOL     OW78521  12.838   1.241   6.684
25561SOL    HW178522  12.837   1.266   6.777
25561SOL    HW278523  12.777   1.302   6.642
25562SOL     OW78524   7.013  13.791   6.387
25562SOL    HW178525   7.091  13.779   6.333
25562SOL    HW278526   6.955  13.846   6.333
25563SOL     OW78527   9.576   0.756   9.369
25563SOL    HW178528   9.574   0.850   9.388
25563SOL    HW278529   9.484   0.729   9.371
25564SOL     OW78530  10.859   5.323  14.482
25564SOL    HW178531  10.926   5.291  14.421
25564SOL    HW278532  10.909   5.356  14.557
25565SOL     OW78533   3.427   7.185   3.529
25565SOL    HW178534   3.359   7.214   3.589
25565SOL    HW278535   3.380   7.138   3.460
25566SOL     OW78536  11.285  12.797   9.784
25566SOL    HW178537  11.232  12.828   9.858
25566SOL    HW278538  11.367  12.846   9.792
25567SOL     OW78539  14.352   5.067   6.203
25567SOL    HW178540  14.267   5.104   6.223
25567SOL    HW278541  14.391   5.127   6.139
25568SOL     OW78542   9.255  13.129   9.266
25568SOL    HW178543   9.290  13.218   9.260
25568SOL    HW278544   9.165  13.137   9.236
25569SOL     OW78545   8.051  14.026   6.632
25569SOL    HW178546   8.139  14.034   6.595
25569SOL    HW278547   8.010  14.111   6.615
25570SOL     OW78548   9.029   1.132  12.263
25570SOL    HW178549   9.053   1.086  12.182
25570SOL    HW278550   9.076   1.086  12.332
25571SOL     OW78551   7.021  12.039   4.432
25571SOL    HW178552   7.014  11.946   4.451
25571SOL    HW278553   6.953  12.056   4.367
25572SOL     OW78554   1.083   1.732  13.437
25572SOL    HW178555   1.126   1.659  13.393
25572SOL    HW278556   1.126   1.810  13.402
25573SOL     OW78557   0.485   4.858   5.893
25573SOL    HW178558   0.538   4.880   5.816
25573SOL    HW278559   0.395   4.863   5.861
25574SOL     OW78560   8.598  10.243  11.686
25574SOL    HW178561   8.619  10.175  11.622
25574SOL    HW278562   8.640  10.214  11.767
25575SOL     OW78563   7.639   4.910   6.819
25575SOL    HW178564   7.558   4.910   6.871
25575SOL    HW278565   7.609   4.909   6.728
25576SOL     OW78566  11.451   2.584  14.616
25576SOL    HW178567  11.500   2.515  14.661
25576SOL    HW278568  11.516   2.629  14.562
25577SOL     OW78569   1.702   6.924   6.661
25577SOL    HW178570   1.673   6.963   6.744
25577SOL    HW278571   1.796   6.938   6.659
25578SOL     OW78572   8.701   3.704   4.264
25578SOL    HW178573   8.712   3.798   4.257
25578SOL    HW278574   8.615   3.687   4.225
25579SOL     OW78575   4.025   0.908   0.883
25579SOL    HW178576   4.064   0.940   0.801
25579SOL    HW278577   4.091   0.848   0.919
25580SOL     OW78578  12.716   2.115   8.052
25580SOL    HW178579  12.629   2.116   8.011
25580SOL    HW278580  12.772   2.160   7.989
25581SOL     OW78581  13.319  13.148  14.003
25581SOL    HW178582  13.366  13.096  13.937
25581SOL    HW278583  13.302  13.232  13.959
25582SOL     OW78584  13.759   7.880   8.595
25582SOL    HW178585  13.818   7.836   8.656
25582SOL    HW278586  13.790   7.970   8.592
25583SOL     OW78587   7.811   4.603   4.376
25583SOL    HW178588   7.775   4.691   4.386
25583SOL    HW278589   7.737   4.545   4.391
25584SOL     OW78590  12.424   3.936  13.030
25584SOL    HW178591  12.415   3.893  13.115
25584SOL    HW278592  12.519   3.936  13.013
25585SOL     OW78593   5.828   5.691  13.209
25585SOL    HW178594   5.837   5.766  13.149
25585SOL    HW278595   5.833   5.729  13.296
25586SOL     OW78596   8.607  11.523   7.969
25586SOL    HW178597   8.648  11.471   8.038
25586SOL    HW278598   8.545  11.463   7.927
25587SOL     OW78599   4.841   5.104  14.709
25587SOL    HW178600   4.756   5.068  14.732
25587SOL    HW278601   4.901   5.068  14.775
25588SOL     OW78602   2.418   2.993  13.379
25588SOL    HW178603   2.389   2.908  13.414
25588SOL    HW278604   2.475   3.028  13.446
25589SOL     OW78605   9.118   3.028   9.631
25589SOL    HW178606   9.060   3.074   9.569
25589SOL    HW278607   9.106   3.075   9.713
25590SOL     OW78608   8.579   6.647  12.159
25590SOL    HW178609   8.501   6.598  12.183
25590SOL    HW278610   8.590   6.630  12.065
25591SOL     OW78611   5.366  14.407   5.879
25591SOL    HW178612   5.302  14.396   5.809
25591SOL    HW278613   5.349  14.334   5.938
25592SOL     OW78614   1.578   4.537  13.237
25592SOL    HW178615   1.612   4.556  13.149
25592SOL    HW278616   1.498   4.486  13.221
25593SOL     OW78617   6.559   1.920  11.206
25593SOL    HW178618   6.633   1.865  11.232
25593SOL    HW278619   6.531   1.884  11.122
25594SOL     OW78620   0.704   0.628   2.920
25594SOL    HW178621   0.754   0.671   2.851
25594SOL    HW278622   0.771   0.593   2.979
25595SOL     OW78623   1.348  13.093   2.028
25595SOL    HW178624   1.385  13.154   2.091
25595SOL    HW278625   1.409  13.095   1.954
25596SOL     OW78626   3.395  12.386   9.066
25596SOL    HW178627   3.347  12.400   8.984
25596SOL    HW278628   3.419  12.293   9.063
25597SOL     OW78629   1.547  13.265   5.444
25597SOL    HW178630   1.592  13.309   5.372
25597SOL    HW278631   1.591  13.180   5.452
25598SOL     OW78632  10.784  14.799   9.620
25598SOL    HW178633  10.765  14.745   9.696
25598SOL    HW278634  10.840  14.869   9.654
25599SOL     OW78635   9.081  13.904   4.308
25599SOL    HW178636   9.109  13.889   4.398
25599SOL    HW278637   8.990  13.934   4.316
25600SOL     OW78638   5.956   5.332   8.990
25600SOL    HW178639   5.953   5.238   9.012
25600SOL    HW278640   5.871   5.349   8.949
25601SOL     OW78641  13.205   3.035  13.267
25601SOL    HW178642  13.196   3.129  13.255
25601SOL    HW278643  13.214   3.024  13.362
25602SOL     OW78644   3.684   7.501   7.575
25602SOL    HW178645   3.710   7.533   7.662
25602SOL    HW278646   3.595   7.534   7.563
25603SOL     OW78647  14.700   1.664   6.688
25603SOL    HW178648  14.785   1.681   6.727
25603SOL    HW278649  14.719   1.650   6.595
25604SOL     OW78650  11.746  11.689  13.211
25604SOL    HW178651  11.789  11.647  13.136
25604SOL    HW278652  11.795  11.771  13.224
25605SOL     OW78653  11.215   9.115   1.218
25605SOL    HW178654  11.182   9.128   1.307
25605SOL    HW278655  11.169   9.181   1.166
25606SOL     OW78656   2.740  14.167   7.692
25606SOL    HW178657   2.650  14.199   7.695
25606SOL    HW278658   2.778  14.193   7.776
25607SOL     OW78659   5.178   7.106   6.241
25607SOL    HW178660   5.117   7.039   6.208
25607SOL    HW278661   5.124   7.163   6.295
25608SOL     OW78662   3.727   5.998   4.976
25608SOL    HW178663   3.656   5.933   4.978
25608SOL    HW278664   3.712   6.051   5.054
25609SOL     OW78665  11.649   2.809  13.538
25609SOL    HW178666  11.656   2.892  13.585
25609SOL    HW278667  11.606   2.750  13.600
25610SOL     OW78668   5.510   5.495   4.767
25610SOL    HW178669   5.528   5.510   4.859
25610SOL    HW278670   5.533   5.403   4.752
25611SOL     OW78671   0.192   6.543   1.566
25611SOL    HW178672   0.141   6.465   1.544
25611SOL    HW278673   0.193   6.595   1.485
25612SOL     OW78674   3.350   3.600   5.550
25612SOL    HW178675   3.342   3.519   5.500
25612SOL    HW278676   3.330   3.669   5.487
25613SOL     OW78677   5.865  12.107  10.262
25613SOL    HW178678   5.851  12.196  10.229
25613SOL    HW278679   5.960  12.098  10.269
25614SOL     OW78680   4.455  10.084   9.058
25614SOL    HW178681   4.393  10.014   9.037
25614SOL    HW278682   4.416  10.163   9.021
25615SOL     OW78683   6.643   0.508  14.569
25615SOL    HW178684   6.554   0.529  14.599
25615SOL    HW278685   6.698   0.574  14.610
25616SOL     OW78686   3.964  13.095   4.299
25616SOL    HW178687   4.010  13.158   4.243
25616SOL    HW278688   3.980  13.011   4.257
25617SOL     OW78689   6.810   1.213   5.843
25617SOL    HW178690   6.795   1.291   5.788
25617SOL    HW278691   6.726   1.166   5.841
25618SOL     OW78692   7.613  10.540   2.908
25618SOL    HW178693   7.611  10.489   2.827
25618SOL    HW278694   7.696  10.588   2.904
25619SOL     OW78695   5.341   9.801   1.005
25619SOL    HW178696   5.399   9.760   0.941
25619SOL    HW278697   5.385   9.884   1.028
25620SOL     OW78698  12.538   5.158   4.670
25620SOL    HW178699  12.455   5.124   4.704
25620SOL    HW278700  12.538   5.251   4.692
25621SOL     OW78701   9.209  12.837  12.329
25621SOL    HW178702   9.253  12.883  12.258
25621SOL    HW278703   9.279  12.789  12.373
25622SOL     OW78704   1.201  12.889   6.968
25622SOL    HW178705   1.117  12.931   6.949
25622SOL    HW278706   1.261  12.961   6.985
25623SOL     OW78707   2.587  10.715   8.913
25623SOL    HW178708   2.626  10.640   8.957
25623SOL    HW278709   2.614  10.790   8.966
25624SOL     OW78710   2.605   8.938   9.606
25624SOL    HW178711   2.650   8.910   9.685
25624SOL    HW278712   2.584   8.856   9.560
25625SOL     OW78713  14.460   2.345   0.812
25625SOL    HW178714  14.453   2.358   0.907
25625SOL    HW278715  14.466   2.433   0.776
25626SOL     OW78716   4.404   8.950   7.370
25626SOL    HW178717   4.316   8.958   7.333
25626SOL    HW278718   4.391   8.959   7.464
25627SOL     OW78719   8.102   1.567  12.938
25627SOL    HW178720   8.058   1.488  12.907
25627SOL    HW278721   8.082   1.571  13.031
25628SOL     OW78722   8.032   8.482  14.699
25628SOL    HW178723   7.955   8.426  14.688
25628SOL    HW278724   8.001   8.557  14.750
25629SOL     OW78725   4.209  11.293   5.493
25629SOL    HW178726   4.289  11.281   5.545
25629SOL    HW278727   4.240  11.331   5.411
25630SOL     OW78728  14.830   5.737  12.714
25630SOL    HW178729  14.802   5.773  12.630
25630SOL    HW278730  14.809   5.644  12.708
25631SOL     OW78731  14.328   2.163   4.436
25631SOL    HW178732  14.286   2.206   4.361
25631SOL    HW278733  14.256   2.131   4.489
25632SOL     OW78734   1.339   2.396   4.743
25632SOL    HW178735   1.350   2.357   4.656
25632SOL    HW278736   1.361   2.488   4.730
25633SOL     OW78737  12.490   1.360   7.199
25633SOL    HW178738  12.509   1.323   7.113
25633SOL    HW278739  12.527   1.449   7.195
25634SOL     OW78740   8.865   8.820   5.986
25634SOL    HW178741   8.840   8.888   6.049
25634SOL    HW278742   8.832   8.851   5.902
25635SOL     OW78743   2.502   0.545   8.800
25635SOL    HW178744   2.479   0.606   8.870
25635SOL    HW278745   2.498   0.459   8.840
25636SOL     OW78746  13.337  11.537   0.023
25636SOL    HW178747  13.390  11.599  14.847
25636SOL    HW278748  13.364  11.551   0.114
25637SOL     OW78749   9.901   2.959   0.579
25637SOL    HW178750   9.913   2.912   0.497
25637SOL    HW278751   9.896   2.891   0.645
25638SOL     OW78752   7.874   1.875  13.531
25638SOL    HW178753   7.799   1.824  13.562
25638SOL    HW278754   7.835   1.947  13.481
25639SOL     OW78755   7.470  14.397   1.029
25639SOL    HW178756   7.422  14.329   0.982
25639SOL    HW278757   7.486  14.465   0.963
25640SOL     OW78758  13.387  11.526   1.256
25640SOL    HW178759  13.435  11.523   1.339
25640SOL    HW278760  13.447  11.570   1.196
25641SOL     OW78761  13.979   3.437  13.203
25641SOL    HW178762  13.965   3.362  13.261
25641SOL    HW278763  14.073   3.440  13.189
25642SOL     OW78764  12.145   3.399  13.829
25642SOL    HW178765  12.145   3.488  13.864
25642SOL    HW278766  12.121   3.344  13.904
25643SOL     OW78767  14.181  10.634   5.823
25643SOL    HW178768  14.188  10.695   5.750
25643SOL    HW278769  14.253  10.657   5.881
25644SOL     OW78770   1.471   9.673   5.861
25644SOL    HW178771   1.533   9.638   5.925
25644SOL    HW278772   1.425   9.742   5.908
25645SOL     OW78773   3.191   1.296   4.587
25645SOL    HW178774   3.268   1.342   4.620
25645SOL    HW278775   3.177   1.224   4.648
25646SOL     OW78776   9.571   1.769   7.059
25646SOL    HW178777   9.580   1.845   7.001
25646SOL    HW278778   9.524   1.704   7.006
25647SOL     OW78779   5.196   0.879   5.009
25647SOL    HW178780   5.204   0.911   4.919
25647SOL    HW278781   5.119   0.924   5.043
25648SOL     OW78782  11.830  10.228  12.322
25648SOL    HW178783  11.837  10.135  12.299
25648SOL    HW278784  11.768  10.229  12.396
25649SOL     OW78785   4.777   7.008  14.790
25649SOL    HW178786   4.694   7.042  14.823
25649SOL    HW278787   4.771   6.913  14.803
25650SOL     OW78788   7.897   0.265   6.042
25650SOL    HW178789   7.941   0.283   5.959
25650SOL    HW278790   7.816   0.317   6.038
25651SOL     OW78791   5.384   4.923   4.045
25651SOL    HW178792   5.387   5.004   4.095
25651SOL    HW278793   5.394   4.853   4.110
25652SOL     OW78794  13.412   9.927  13.245
25652SOL    HW178795  13.317   9.930  13.250
25652SOL    HW278796  13.440  10.014  13.276
25653SOL     OW78797   0.250   9.493   9.926
25653SOL    HW178798   0.181   9.485   9.860
25653SOL    HW278799   0.256   9.406   9.966
25654SOL     OW78800   9.519   4.408   8.644
25654SOL    HW178801   9.465   4.355   8.585
25654SOL    HW278802   9.568   4.466   8.586
25655SOL     OW78803   9.624   2.353   1.771
25655SOL    HW178804   9.613   2.352   1.866
25655SOL    HW278805   9.535   2.343   1.737
25656SOL     OW78806  12.734   1.418   5.179
25656SOL    HW178807  12.712   1.442   5.269
25656SOL    HW278808  12.673   1.347   5.157
25657SOL     OW78809   1.799   7.277  13.570
25657SOL    HW178810   1.880   7.258  13.617
25657SOL    HW278811   1.818   7.357  13.521
25658SOL     OW78812   3.460  10.982   7.224
25658SOL    HW178813   3.534  10.956   7.170
25658SOL    HW278814   3.383  10.964   7.170
25659SOL     OW78815   4.624  11.634   7.109
25659SOL    HW178816   4.592  11.679   7.030
25659SOL    HW278817   4.717  11.621   7.093
25660SOL     OW78818  14.692   2.301   2.359
25660SOL    HW178819  14.710   2.372   2.420
25660SOL    HW278820  14.777   2.280   2.320
25661SOL     OW78821   0.524   3.692   8.221
25661SOL    HW178822   0.540   3.786   8.221
25661SOL    HW278823   0.439   3.682   8.178
25662SOL     OW78824  10.287   9.370   1.294
25662SOL    HW178825  10.377   9.347   1.318
25662SOL    HW278826  10.248   9.287   1.268
25663SOL     OW78827   1.216   6.816   9.690
25663SOL    HW178828   1.170   6.860   9.761
25663SOL    HW278829   1.304   6.801   9.725
25664SOL     OW78830   3.606   4.200   7.686
25664SOL    HW178831   3.647   4.151   7.615
25664SOL    HW278832   3.540   4.254   7.644
25665SOL     OW78833   1.708   6.690   8.697
25665SOL    HW178834   1.629   6.697   8.750
25665SOL    HW278835   1.716   6.597   8.678
25666SOL     OW78836   6.274   2.805   8.146
25666SOL    HW178837   6.192   2.793   8.194
25666SOL    HW278838   6.252   2.867   8.076
25667SOL     OW78839  13.469  14.093  14.652
25667SOL    HW178840  13.522  14.060  14.724
25667SOL    HW278841  13.512  14.058  14.573
25668SOL     OW78842  14.682  14.567   7.295
25668SOL    HW178843  14.750  14.524   7.347
25668SOL    HW278844  14.601  14.553   7.344
25669SOL     OW78845   6.615   9.622   9.601
25669SOL    HW178846   6.617   9.715   9.576
25669SOL    HW278847   6.685   9.614   9.666
25670SOL     OW78848   1.047   6.332   6.446
25670SOL    HW178849   0.991   6.275   6.498
25670SOL    HW278850   1.115   6.274   6.411
25671SOL     OW78851   6.901   2.150  10.171
25671SOL    HW178852   6.942   2.144  10.085
25671SOL    HW278853   6.820   2.199  10.156
25672SOL     OW78854  11.487   5.745  13.048
25672SOL    HW178855  11.477   5.836  13.077
25672SOL    HW278856  11.466   5.693  13.125
25673SOL     OW78857   5.866   7.820  10.058
25673SOL    HW178858   5.872   7.799   9.965
25673SOL    HW278859   5.797   7.762  10.091
25674SOL     OW78860   0.928   7.190  11.737
25674SOL    HW178861   0.933   7.098  11.711
25674SOL    HW278862   0.859   7.227  11.682
25675SOL     OW78863   7.248   0.664   8.403
25675SOL    HW178864   7.304   0.680   8.479
25675SOL    HW278865   7.230   0.751   8.367
25676SOL     OW78866   8.295   2.300   7.554
25676SOL    HW178867   8.232   2.328   7.621
25676SOL    HW278868   8.320   2.381   7.510
25677SOL     OW78869   5.263   7.869  12.880
25677SOL    HW178870   5.208   7.908  12.948
25677SOL    HW278871   5.271   7.936  12.813
25678SOL     OW78872   3.526   4.160   1.861
25678SOL    HW178873   3.481   4.194   1.938
25678SOL    HW278874   3.456   4.125   1.806
25679SOL     OW78875  13.926   6.207  10.189
25679SOL    HW178876  13.847   6.259  10.177
25679SOL    HW278877  13.906   6.123  10.149
25680SOL     OW78878  13.415   9.972  14.465
25680SOL    HW178879  13.477   9.920  14.516
25680SOL    HW278880  13.349   9.909  14.435
25681SOL     OW78881  10.748   5.157   7.057
25681SOL    HW178882  10.800   5.111   6.991
25681SOL    HW278883  10.658   5.153   7.024
25682SOL     OW78884   4.541   8.016   5.604
25682SOL    HW178885   4.455   8.030   5.563
25682SOL    HW278886   4.589   8.097   5.588
25683SOL     OW78887   9.720  11.762   7.603
25683SOL    HW178888   9.655  11.694   7.620
25683SOL    HW278889   9.801  11.728   7.641
25684SOL     OW78890  14.594   7.428   3.363
25684SOL    HW178891  14.608   7.361   3.429
25684SOL    HW278892  14.681   7.446   3.328
25685SOL     OW78893   7.462   7.798   7.337
25685SOL    HW178894   7.516   7.752   7.401
25685SOL    HW278895   7.475   7.751   7.255
25686SOL     OW78896   2.723  13.193   2.364
25686SOL    HW178897   2.724  13.252   2.289
25686SOL    HW278898   2.639  13.209   2.406
25687SOL     OW78899   2.935  14.771   2.155
25687SOL    HW178900   2.848  14.782   2.115
25687SOL    HW278901   2.920  14.785   2.249
25688SOL     OW78902  10.257   1.116  14.480
25688SOL    HW178903  10.278   1.023  14.476
25688SOL    HW278904  10.184   1.121  14.542
25689SOL     OW78905  14.575  13.667  12.970
25689SOL    HW178906  14.577  13.572  12.964
25689SOL    HW278907  14.518  13.686  13.045
25690SOL     OW78908   6.791   5.508   3.841
25690SOL    HW178909   6.869   5.502   3.785
25690SOL    HW278910   6.722   5.539   3.783
25691SOL     OW78911   9.164   6.090  11.610
25691SOL    HW178912   9.137   6.052  11.526
25691SOL    HW278913   9.089   6.142  11.638
25692SOL     OW78914   3.150  11.113   5.945
25692SOL    HW178915   3.086  11.180   5.920
25692SOL    HW278916   3.227  11.131   5.892
25693SOL     OW78917   4.754   6.745   3.634
25693SOL    HW178918   4.844   6.712   3.636
25693SOL    HW278919   4.745   6.785   3.548
25694SOL     OW78920   9.844   1.703   9.687
25694SOL    HW178921   9.877   1.617   9.713
25694SOL    HW278922   9.871   1.761   9.758
25695SOL     OW78923  11.358   4.472   6.153
25695SOL    HW178924  11.287   4.536   6.162
25695SOL    HW278925  11.388   4.458   6.243
25696SOL     OW78926   5.743   2.324   5.939
25696SOL    HW178927   5.830   2.365   5.943
25696SOL    HW278928   5.715   2.320   6.031
25697SOL     OW78929   8.484   2.336  14.120
25697SOL    HW178930   8.580   2.339  14.127
25697SOL    HW278931   8.465   2.247  14.089
25698SOL     OW78932   4.573  13.844  13.228
25698SOL    HW178933   4.608  13.855  13.140
25698SOL    HW278934   4.576  13.749  13.242
25699SOL     OW78935   6.808   2.006  11.831
25699SOL    HW178936   6.883   2.032  11.779
25699SOL    HW278937   6.748   1.965  11.769
25700SOL     OW78938  10.615   8.188  12.177
25700SOL    HW178939  10.541   8.216  12.123
25700SOL    HW278940  10.693   8.208  12.123
25701SOL     OW78941   2.855   9.960   9.913
25701SOL    HW178942   2.872   9.918   9.829
25701SOL    HW278943   2.911   9.913   9.975
25702SOL     OW78944   3.732  13.595  11.219
25702SOL    HW178945   3.800  13.528  11.227
25702SOL    HW278946   3.654  13.546  11.190
25703SOL     OW78947   4.318   8.357  13.170
25703SOL    HW178948   4.285   8.431  13.220
25703SOL    HW278949   4.275   8.281  13.208
25704SOL     OW78950   1.619  14.670   1.252
25704SOL    HW178951   1.658  14.601   1.199
25704SOL    HW278952   1.683  14.741   1.252
25705SOL     OW78953  11.325  11.486   6.567
25705SOL    HW178954  11.280  11.548   6.624
25705SOL    HW278955  11.350  11.413   6.625
25706SOL     OW78956   8.319   2.027   4.669
25706SOL    HW178957   8.303   1.973   4.746
25706SOL    HW278958   8.392   1.984   4.624
25707SOL     OW78959   4.226  10.929   7.549
25707SOL    HW178960   4.209  10.859   7.486
25707SOL    HW278961   4.237  11.008   7.496
25708SOL     OW78962   1.381   9.411   8.809
25708SOL    HW178963   1.441   9.485   8.795
25708SOL    HW278964   1.297   9.453   8.828
25709SOL     OW78965  11.374  11.437  14.262
25709SOL    HW178966  11.391  11.531  14.273
25709SOL    HW278967  11.412  11.397  14.340
25710SOL     OW78968   3.047  14.861  14.152
25710SOL    HW178969   3.019   0.061  14.098
25710SOL    HW278970   3.134  14.839  14.119
25711SOL     OW78971   8.969   0.035  11.857
25711SOL    HW178972   8.961   0.069  11.946
25711SOL    HW278973   8.942   0.107  11.801
25712SOL     OW78974   7.583   2.460   5.865
25712SOL    HW178975   7.664   2.419   5.834
25712SOL    HW278976   7.549   2.398   5.930
25713SOL     OW78977   1.096   1.379  13.062
25713SOL    HW178978   1.052   1.309  13.111
25713SOL    HW278979   1.068   1.367  12.972
25714SOL     OW78980   7.098  14.587   5.766
25714SOL    HW178981   7.036  14.562   5.834
25714SOL    HW278982   7.183  14.590   5.810
25715SOL     OW78983  11.966  10.505   1.675
25715SOL    HW178984  11.945  10.431   1.618
25715SOL    HW278985  11.920  10.579   1.637
25716SOL     OW78986   7.865   2.526   0.074
25716SOL    HW178987   7.946   2.576   0.070
25716SOL    HW278988   7.879   2.451   0.015
25717SOL     OW78989  12.791   7.401  14.203
25717SOL    HW178990  12.700   7.415  14.229
25717SOL    HW278991  12.796   7.432  14.113
25718SOL     OW78992   3.747   5.167   3.630
25718SOL    HW178993   3.742   5.077   3.662
25718SOL    HW278994   3.826   5.170   3.577
25719SOL     OW78995   1.954  13.183   6.823
25719SOL    HW178996   2.035  13.143   6.792
25719SOL    HW278997   1.889  13.159   6.757
25720SOL     OW78998  14.577  13.627   3.890
25720SOL    HW178999  14.566  13.661   3.979
25720SOL    HW279000  14.663  13.584   3.891
25721SOL     OW79001  12.487  13.912   3.562
25721SOL    HW179002  12.494  13.841   3.498
25721SOL    HW279003  12.558  13.894   3.624
25722SOL     OW79004  12.621   1.601   7.087
25722SOL    HW179005  12.643   1.656   7.012
25722SOL    HW279006  12.618   1.662   7.161
25723SOL     OW79007   3.953   6.554  11.296
25723SOL    HW179008   4.002   6.622  11.342
25723SOL    HW279009   3.911   6.503  11.366
25724SOL     OW79010   2.261   2.781  13.124
25724SOL    HW179011   2.329   2.828  13.173
25724SOL    HW279012   2.268   2.814  13.035
25725SOL     OW79013   5.902   6.118  13.180
25725SOL    HW179014   5.831   6.159  13.230
25725SOL    HW279015   5.943   6.190  13.133
25726SOL     OW79016  12.059   4.253   1.420
25726SOL    HW179017  12.099   4.270   1.335
25726SOL    HW279018  12.133   4.250   1.481
25727SOL     OW79019   3.010  12.780   5.653
25727SOL    HW179020   3.039  12.828   5.730
25727SOL    HW279021   3.076  12.801   5.586
25728SOL     OW79022   6.925   1.062  12.299
25728SOL    HW179023   6.884   1.146  12.314
25728SOL    HW279024   6.861   0.998  12.329
25729SOL     OW79025  12.583  13.696   4.075
25729SOL    HW179026  12.528  13.718   4.150
25729SOL    HW279027  12.533  13.725   3.999
25730SOL     OW79028   9.915   3.763   3.130
25730SOL    HW179029   9.971   3.839   3.115
25730SOL    HW279030   9.910   3.720   3.045
25731SOL     OW79031  11.653   6.753  13.622
25731SOL    HW179032  11.584   6.782  13.681
25731SOL    HW279033  11.731   6.802  13.650
25732SOL     OW79034   4.389  12.497   8.690
25732SOL    HW179035   4.406  12.488   8.784
25732SOL    HW279036   4.443  12.570   8.662
25733SOL     OW79037   8.142   7.597  11.636
25733SOL    HW179038   8.112   7.634  11.553
25733SOL    HW279039   8.077   7.529  11.657
25734SOL     OW79040   8.454  13.830   1.070
25734SOL    HW179041   8.380  13.888   1.085
25734SOL    HW279042   8.461  13.823   0.975
25735SOL     OW79043   3.221   8.226   4.007
25735SOL    HW179044   3.315   8.231   4.022
25735SOL    HW279045   3.204   8.287   3.935
25736SOL     OW79046  10.059   0.396   1.829
25736SOL    HW179047  10.031   0.381   1.739
25736SOL    HW279048   9.984   0.369   1.882
25737SOL     OW79049   6.509   5.144   9.607
25737SOL    HW179050   6.567   5.083   9.652
25737SOL    HW279051   6.450   5.088   9.556
25738SOL     OW79052   1.100   0.807  10.346
25738SOL    HW179053   1.039   0.875  10.376
25738SOL    HW279054   1.182   0.854  10.331
25739SOL     OW79055   9.553   9.932  14.714
25739SOL    HW179056   9.490   9.860  14.715
25739SOL    HW279057   9.637   9.890  14.728
25740SOL     OW79058  11.660   3.437  14.127
25740SOL    HW179059  11.702   3.507  14.178
25740SOL    HW279060  11.603   3.393  14.189
25741SOL     OW79061   6.334   3.946   9.403
25741SOL    HW179062   6.383   3.882   9.454
25741SOL    HW279063   6.396   3.979   9.339
25742SOL     OW79064  10.350  12.188   6.687
25742SOL    HW179065  10.426  12.162   6.739
25742SOL    HW279066  10.361  12.141   6.604
25743SOL     OW79067   3.982   3.439   6.008
25743SOL    HW179068   3.913   3.406   5.950
25743SOL    HW279069   4.057   3.382   5.991
25744SOL     OW79070   9.072   5.764   0.191
25744SOL    HW179071   9.163   5.793   0.187
25744SOL    HW279072   9.077   5.668   0.196
25745SOL     OW79073   5.730  14.094   5.898
25745SOL    HW179074   5.694  14.034   5.831
25745SOL    HW279075   5.708  14.181   5.866
25746SOL     OW79076  11.261   7.225   2.161
25746SOL    HW179077  11.354   7.245   2.162
25746SOL    HW279078  11.254   7.137   2.198
25747SOL     OW79079   7.758   2.688  11.554
25747SOL    HW179080   7.749   2.686  11.458
25747SOL    HW279081   7.805   2.769  11.572
25748SOL     OW79082   0.613   9.638   0.129
25748SOL    HW179083   0.637   9.584   0.054
25748SOL    HW279084   0.643   9.589   0.205
25749SOL     OW79085  13.961  13.601  13.306
25749SOL    HW179086  13.942  13.604  13.400
25749SOL    HW279087  13.980  13.691  13.282
25750SOL     OW79088  12.185  12.129  11.502
25750SOL    HW179089  12.189  12.037  11.477
25750SOL    HW279090  12.106  12.162  11.459
25751SOL     OW79091   8.337   8.446  12.895
25751SOL    HW179092   8.414   8.397  12.867
25751SOL    HW279093   8.274   8.435  12.823
25752SOL     OW79094  13.972  11.410   3.020
25752SOL    HW179095  13.934  11.364   2.945
25752SOL    HW279096  14.063  11.380   3.023
25753SOL     OW79097   1.420   6.492  12.777
25753SOL    HW179098   1.328   6.484  12.800
25753SOL    HW279099   1.427   6.457  12.689
25754SOL     OW79100   1.141   2.898   2.938
25754SOL    HW179101   1.233   2.923   2.954
25754SOL    HW279102   1.142   2.859   2.850
25755SOL     OW79103  13.134  13.655  10.431
25755SOL    HW179104  13.190  13.725  10.464
25755SOL    HW279105  13.159  13.645  10.339
25756SOL     OW79106   5.954  12.651   3.868
25756SOL    HW179107   6.001  12.732   3.849
25756SOL    HW279108   6.003  12.611   3.940
25757SOL     OW79109  14.584  13.735   9.595
25757SOL    HW179110  14.576  13.693   9.509
25757SOL    HW279111  14.675  13.765   9.598
25758SOL     OW79112   5.599  11.408   7.570
25758SOL    HW179113   5.542  11.384   7.642
25758SOL    HW279114   5.656  11.477   7.606
25759SOL     OW79115  12.467   1.125   2.200
25759SOL    HW179116  12.521   1.195   2.237
25759SOL    HW279117  12.378   1.159   2.200
25760SOL     OW79118   6.559   7.223   3.754
25760SOL    HW179119   6.611   7.239   3.675
25760SOL    HW279120   6.623   7.222   3.825
25761SOL     OW79121  13.618   2.312  10.201
25761SOL    HW179122  13.545   2.373  10.186
25761SOL    HW279123  13.646   2.285  10.114
25762SOL     OW79124   6.603   4.745   7.382
25762SOL    HW179125   6.536   4.779   7.442
25762SOL    HW279126   6.685   4.782   7.414
25763SOL     OW79127   0.914   1.508   5.437
25763SOL    HW179128   0.876   1.425   5.407
25763SOL    HW279129   0.873   1.574   5.381
25764SOL     OW79130   0.234   6.971   8.844
25764SOL    HW179131   0.210   6.886   8.806
25764SOL    HW279132   0.280   6.948   8.924
25765SOL     OW79133  13.506  14.636  10.444
25765SOL    HW179134  13.537  14.614  10.356
25765SOL    HW279135  13.487  14.730  10.440
25766SOL     OW79136   7.347   8.315  10.796
25766SOL    HW179137   7.423   8.323  10.739
25766SOL    HW279138   7.382   8.330  10.884
25767SOL     OW79139   7.991  13.821  12.943
25767SOL    HW179140   7.923  13.754  12.937
25767SOL    HW279141   8.011  13.828  13.036
25768SOL     OW79142   3.209   1.215   3.021
25768SOL    HW179143   3.243   1.128   2.998
25768SOL    HW279144   3.234   1.271   2.948
25769SOL     OW79145   0.464  13.578  10.131
25769SOL    HW179146   0.475  13.600  10.224
25769SOL    HW279147   0.418  13.495  10.131
25770SOL     OW79148  14.467   8.434  11.690
25770SOL    HW179149  14.471   8.381  11.611
25770SOL    HW279150  14.393   8.397  11.739
25771SOL     OW79151   5.018  11.999   1.358
25771SOL    HW179152   5.100  12.044   1.338
25771SOL    HW279153   5.001  11.946   1.281
25772SOL     OW79154   3.715   9.425  14.217
25772SOL    HW179155   3.746   9.508  14.181
25772SOL    HW279156   3.758   9.358  14.163
25773SOL     OW79157  14.234   5.548   1.869
25773SOL    HW179158  14.260   5.619   1.928
25773SOL    HW279159  14.158   5.509   1.911
25774SOL     OW79160  11.262   3.971   4.664
25774SOL    HW179161  11.212   4.050   4.686
25774SOL    HW279162  11.234   3.948   4.576
25775SOL     OW79163   3.544   4.520   8.846
25775SOL    HW179164   3.472   4.491   8.790
25775SOL    HW279165   3.552   4.451   8.912
25776SOL     OW79166   6.824   0.275   6.449
25776SOL    HW179167   6.769   0.197   6.444
25776SOL    HW279168   6.781   0.339   6.392
25777SOL     OW79169  10.993   5.964   2.535
25777SOL    HW179170  10.979   5.968   2.440
25777SOL    HW279171  11.034   5.878   2.548
25778SOL     OW79172   4.956   4.429  10.471
25778SOL    HW179173   5.009   4.508  10.472
25778SOL    HW279174   4.951   4.401  10.562
25779SOL     OW79175   5.780   2.925   7.210
25779SOL    HW179176   5.727   2.999   7.241
25779SOL    HW279177   5.739   2.900   7.127
25780SOL     OW79178   7.975  13.785   8.878
25780SOL    HW179179   7.946  13.863   8.925
25780SOL    HW279180   7.927  13.713   8.919
25781SOL     OW79181   1.141  14.102   2.806
25781SOL    HW179182   1.081  14.055   2.748
25781SOL    HW279183   1.092  14.177   2.837
25782SOL     OW79184  10.162   9.545   5.134
25782SOL    HW179185  10.108   9.567   5.058
25782SOL    HW279186  10.220   9.475   5.104
25783SOL     OW79187   1.533   4.804  10.024
25783SOL    HW179188   1.471   4.799   9.952
25783SOL    HW279189   1.588   4.880  10.004
25784SOL     OW79190  14.212  14.776   0.340
25784SOL    HW179191  14.170  14.716   0.402
25784SOL    HW279192  14.140  14.817   0.293
25785SOL     OW79193   9.631   2.778   8.148
25785SOL    HW179194   9.616   2.702   8.092
25785SOL    HW279195   9.580   2.760   8.227
25786SOL     OW79196   7.245   8.378  13.119
25786SOL    HW179197   7.254   8.416  13.206
25786SOL    HW279198   7.244   8.453  13.059
25787SOL     OW79199   0.280  11.373   9.360
25787SOL    HW179200   0.349  11.403   9.302
25787SOL    HW279201   0.205  11.358   9.303
25788SOL     OW79202   4.663  11.314  10.155
25788SOL    HW179203   4.596  11.250  10.181
25788SOL    HW279204   4.746  11.275  10.184
25789SOL     OW79205   6.229   6.510  11.286
25789SOL    HW179206   6.215   6.415  11.287
25789SOL    HW279207   6.315   6.521  11.245
25790SOL     OW79208   6.352  14.816   2.841
25790SOL    HW179209   6.285  14.810   2.773
25790SOL    HW279210   6.331  14.744   2.901
25791SOL     OW79211   8.968   8.196   4.780
25791SOL    HW179212   9.022   8.273   4.798
25791SOL    HW279213   9.030   8.129   4.753
25792SOL     OW79214   3.441  14.278   8.656
25792SOL    HW179215   3.432  14.211   8.588
25792SOL    HW279216   3.431  14.361   8.609
25793SOL     OW79217   8.285   4.038   8.233
25793SOL    HW179218   8.360   4.028   8.175
25793SOL    HW279219   8.314   4.099   8.301
25794SOL     OW79220   2.762   5.510   1.991
25794SOL    HW179221   2.857   5.499   1.995
25794SOL    HW279222   2.735   5.518   2.083
25795SOL     OW79223   6.593   3.915   5.423
25795SOL    HW179224   6.517   3.923   5.365
25795SOL    HW279225   6.567   3.961   5.503
25796SOL     OW79226   4.879   3.361   8.804
25796SOL    HW179227   4.849   3.298   8.870
25796SOL    HW279228   4.800   3.407   8.778
25797SOL     OW79229  12.231  12.809  12.501
25797SOL    HW179230  12.142  12.784  12.525
25797SOL    HW279231  12.246  12.892  12.546
25798SOL     OW79232   1.147   9.820  14.095
25798SOL    HW179233   1.071   9.860  14.054
25798SOL    HW279234   1.210   9.809  14.023
25799SOL     OW79235  13.257  14.622   9.999
25799SOL    HW179236  13.300  14.579   9.925
25799SOL    HW279237  13.248  14.713   9.972
25800SOL     OW79238   5.270  12.092   0.557
25800SOL    HW179239   5.282  12.135   0.642
25800SOL    HW279240   5.358  12.068   0.530
25801SOL     OW79241  14.428   6.327   5.382
25801SOL    HW179242  14.455   6.280   5.461
25801SOL    HW279243  14.353   6.379   5.410
25802SOL     OW79244   3.562  10.206  11.201
25802SOL    HW179245   3.507  10.133  11.175
25802SOL    HW279246   3.510  10.252  11.268
25803SOL     OW79247  13.231   6.271   6.034
25803SOL    HW179248  13.212   6.221   5.955
25803SOL    HW279249  13.299   6.221   6.080
25804SOL     OW79250   6.956  14.547   3.330
25804SOL    HW179251   6.969  14.463   3.285
25804SOL    HW279252   7.041  14.566   3.370
25805SOL     OW79253   0.490   4.522  14.340
25805SOL    HW179254   0.581   4.501  14.321
25805SOL    HW279255   0.455   4.551  14.255
25806SOL     OW79256  13.990  11.922   9.069
25806SOL    HW179257  14.030  11.911   8.983
25806SOL    HW279258  14.052  11.976   9.118
25807SOL     OW79259   4.804   8.135  13.772
25807SOL    HW179260   4.712   8.123  13.797
25807SOL    HW279261   4.805   8.118  13.678
25808SOL     OW79262   2.948  12.206   0.018
25808SOL    HW179263   2.990  12.213  14.806
25808SOL    HW279264   2.952  12.295   0.054
25809SOL     OW79265  10.730  10.803   9.946
25809SOL    HW179266  10.745  10.887   9.904
25809SOL    HW279267  10.748  10.738   9.877
25810SOL     OW79268   0.504   8.217   5.623
25810SOL    HW179269   0.418   8.176   5.630
25810SOL    HW279270   0.517   8.231   5.530
25811SOL     OW79271   3.734   9.551   5.485
25811SOL    HW179272   3.644   9.574   5.509
25811SOL    HW279273   3.779   9.541   5.569
25812SOL     OW79274   2.404  10.326   6.915
25812SOL    HW179275   2.397  10.377   6.996
25812SOL    HW279276   2.358  10.379   6.849
25813SOL     OW79277  14.731  14.166   8.521
25813SOL    HW179278  14.741  14.093   8.582
25813SOL    HW279279  14.799  14.151   8.454
25814SOL     OW79280  13.957  12.306   7.234
25814SOL    HW179281  14.021  12.340   7.171
25814SOL    HW279282  13.978  12.213   7.241
25815SOL     OW79283   4.102   9.872  10.321
25815SOL    HW179284   4.188   9.833  10.339
25815SOL    HW279285   4.085   9.929  10.396
25816SOL     OW79286   4.784   4.501   0.688
25816SOL    HW179287   4.690   4.515   0.690
25816SOL    HW279288   4.804   4.487   0.595
25817SOL     OW79289   4.744   3.090   4.567
25817SOL    HW179290   4.738   3.160   4.632
25817SOL    HW279291   4.669   3.105   4.509
25818SOL     OW79292   9.715   9.815   4.739
25818SOL    HW179293   9.747   9.728   4.714
25818SOL    HW279294   9.700   9.809   4.833
25819SOL     OW79295   5.968   1.552   1.840
25819SOL    HW179296   5.990   1.495   1.766
25819SOL    HW279297   6.053   1.572   1.880
25820SOL     OW79298   4.180   8.574   3.458
25820SOL    HW179299   4.117   8.537   3.396
25820SOL    HW279300   4.156   8.537   3.543
25821SOL     OW79301   8.747  11.047  14.839
25821SOL    HW179302   8.701  10.978   0.012
25821SOL    HW279303   8.789  11.100   0.033
25822SOL     OW79304   2.289  12.798  14.600
25822SOL    HW179305   2.254  12.885  14.615
25822SOL    HW279306   2.356  12.809  14.533
25823SOL     OW79307   6.911   9.524   0.143
25823SOL    HW179308   6.822   9.537   0.111
25823SOL    HW279309   6.907   9.546   0.236
25824SOL     OW79310   5.163  10.117   6.304
25824SOL    HW179311   5.104  10.042   6.309
25824SOL    HW279312   5.105  10.192   6.289
25825SOL     OW79313   0.285   5.068  11.305
25825SOL    HW179314   0.363   5.019  11.331
25825SOL    HW279315   0.214   5.028  11.355
25826SOL     OW79316  14.101   1.037   8.440
25826SOL    HW179317  14.012   1.041   8.474
25826SOL    HW279318  14.145   1.114   8.477
25827SOL     OW79319   1.877  10.864   5.372
25827SOL    HW179320   1.874  10.960   5.377
25827SOL    HW279321   1.909  10.847   5.283
25828SOL     OW79322   6.462  13.795   9.388
25828SOL    HW179323   6.427  13.707   9.370
25828SOL    HW279324   6.548  13.794   9.347
25829SOL     OW79325  14.114  14.535   8.168
25829SOL    HW179326  14.085  14.511   8.256
25829SOL    HW279327  14.033  14.552   8.120
25830SOL     OW79328  11.986   0.805  10.893
25830SOL    HW179329  12.022   0.893  10.891
25830SOL    HW279330  12.025   0.765  10.971
25831SOL     OW79331   2.823  11.380   4.536
25831SOL    HW179332   2.840  11.363   4.443
25831SOL    HW279333   2.840  11.297   4.579
25832SOL     OW79334  12.246   2.709   9.373
25832SOL    HW179335  12.339   2.707   9.398
25832SOL    HW279336  12.219   2.800   9.385
25833SOL     OW79337   5.214  10.222   8.882
25833SOL    HW179338   5.130  10.249   8.846
25833SOL    HW279339   5.224  10.273   8.962
25834SOL     OW79340   0.191   2.677  10.008
25834SOL    HW179341   0.188   2.658   9.915
25834SOL    HW279342   0.284   2.691  10.026
25835SOL     OW79343   4.692   5.414   3.473
25835SOL    HW179344   4.644   5.373   3.401
25835SOL    HW279345   4.658   5.372   3.552
25836SOL     OW79346   1.982   8.498   5.300
25836SOL    HW179347   1.916   8.464   5.239
25836SOL    HW279348   2.020   8.573   5.254
25837SOL     OW79349   2.927   9.119   6.118
25837SOL    HW179350   3.000   9.105   6.058
25837SOL    HW279351   2.918   9.214   6.124
25838SOL     OW79352  10.459   4.509  11.415
25838SOL    HW179353  10.472   4.414  11.415
25838SOL    HW279354  10.376   4.521  11.367
25839SOL     OW79355   6.520   0.040   5.467
25839SOL    HW179356   6.442  14.867   5.497
25839SOL    HW279357   6.593  14.867   5.510
25840SOL     OW79358   6.080  13.246  12.307
25840SOL    HW179359   6.136  13.322  12.291
25840SOL    HW279360   6.006  13.280  12.356
25841SOL     OW79361  11.171   9.920  11.131
25841SOL    HW179362  11.158   9.875  11.214
25841SOL    HW279363  11.082   9.943  11.102
25842SOL     OW79364   2.867  10.107  13.837
25842SOL    HW179365   2.822  10.025  13.816
25842SOL    HW279366   2.847  10.122  13.929
25843SOL     OW79367   9.055  10.154  11.214
25843SOL    HW179368   9.012  10.134  11.130
25843SOL    HW279369   9.148  10.154  11.193
25844SOL     OW79370   5.796   3.183  10.932
25844SOL    HW179371   5.799   3.237  10.852
25844SOL    HW279372   5.825   3.242  11.001
25845SOL     OW79373   0.937   9.121   5.265
25845SOL    HW179374   1.021   9.164   5.282
25845SOL    HW279375   0.962   9.034   5.232
25846SOL     OW79376   7.084   3.079   3.314
25846SOL    HW179377   7.034   3.146   3.361
25846SOL    HW279378   7.155   3.056   3.374
25847SOL     OW79379   2.689   9.288  13.241
25847SOL    HW179380   2.713   9.196  13.229
25847SOL    HW279381   2.624   9.287  13.311
25848SOL     OW79382   3.256   6.498   9.465
25848SOL    HW179383   3.192   6.477   9.533
25848SOL    HW279384   3.210   6.559   9.407
25849SOL     OW79385   8.289   6.668   4.277
25849SOL    HW179386   8.200   6.655   4.308
25849SOL    HW279387   8.284   6.746   4.221
25850SOL     OW79388   6.668   8.529   8.192
25850SOL    HW179389   6.717   8.449   8.178
25850SOL    HW279390   6.685   8.552   8.284
25851SOL     OW79391   9.401   4.692   8.771
25851SOL    HW179392   9.459   4.640   8.715
25851SOL    HW279393   9.314   4.679   8.734
25852SOL     OW79394  13.235   5.254   0.211
25852SOL    HW179395  13.268   5.176   0.167
25852SOL    HW279396  13.313   5.294   0.250
25853SOL     OW79397   2.898   2.661  11.646
25853SOL    HW179398   2.842   2.590  11.678
25853SOL    HW279399   2.987   2.625  11.647
25854SOL     OW79400  12.324   5.202   6.405
25854SOL    HW179401  12.355   5.115   6.430
25854SOL    HW279402  12.231   5.202   6.427
25855SOL     OW79403   5.715   4.822  13.929
25855SOL    HW179404   5.746   4.891  13.987
25855SOL    HW279405   5.762   4.836  13.846
25856SOL     OW79406  13.485   8.946   7.582
25856SOL    HW179407  13.541   8.870   7.567
25856SOL    HW279408  13.539   9.021   7.557
25857SOL     OW79409   4.300   7.962   2.998
25857SOL    HW179410   4.322   7.934   2.909
25857SOL    HW279411   4.227   7.905   3.023
25858SOL     OW79412   5.697  10.011   7.549
25858SOL    HW179413   5.748  10.012   7.629
25858SOL    HW279414   5.700   9.921   7.519
25859SOL     OW79415   0.706   9.238   5.129
25859SOL    HW179416   0.781   9.185   5.157
25859SOL    HW279417   0.645   9.174   5.092
25860SOL     OW79418   7.698   0.793  12.532
25860SOL    HW179419   7.692   0.824  12.441
25860SOL    HW279420   7.773   0.840  12.569
25861SOL     OW79421  11.272   8.312   2.973
25861SOL    HW179422  11.289   8.235   2.918
25861SOL    HW279423  11.267   8.384   2.911
25862SOL     OW79424  12.583   7.331   2.605
25862SOL    HW179425  12.593   7.236   2.614
25862SOL    HW279426  12.539   7.358   2.685
25863SOL     OW79427   1.204   7.165  11.803
25863SOL    HW179428   1.111   7.188  11.796
25863SOL    HW279429   1.205   7.070  11.818
25864SOL     OW79430  11.266   6.223  13.193
25864SOL    HW179431  11.268   6.318  13.183
25864SOL    HW279432  11.339   6.191  13.139
25865SOL     OW79433   0.254   5.968   9.124
25865SOL    HW179434   0.229   6.031   9.192
25865SOL    HW279435   0.242   5.882   9.166
25866SOL     OW79436  12.108   1.717   6.080
25866SOL    HW179437  12.061   1.657   6.137
25866SOL    HW279438  12.198   1.717   6.113
25867SOL     OW79439   2.115   2.458   5.364
25867SOL    HW179440   2.027   2.420   5.364
25867SOL    HW279441   2.168   2.396   5.414
25868SOL     OW79442   8.900   5.585   4.440
25868SOL    HW179443   8.808   5.600   4.415
25868SOL    HW279444   8.896   5.566   4.534
25869SOL     OW79445   1.417   1.476   9.593
25869SOL    HW179446   1.468   1.424   9.655
25869SOL    HW279447   1.469   1.555   9.578
25870SOL     OW79448   1.330  12.925   0.681
25870SOL    HW179449   1.275  12.908   0.605
25870SOL    HW279450   1.414  12.953   0.644
25871SOL     OW79451   3.553   5.242   8.391
25871SOL    HW179452   3.480   5.292   8.353
25871SOL    HW279453   3.532   5.236   8.484
25872SOL     OW79454  13.192   0.309   4.397
25872SOL    HW179455  13.277   0.291   4.436
25872SOL    HW279456  13.140   0.231   4.416
25873SOL     OW79457  11.622   1.103  12.049
25873SOL    HW179458  11.588   1.192  12.058
25873SOL    HW279459  11.544   1.049  12.036
25874SOL     OW79460   3.072  13.654   5.916
25874SOL    HW179461   3.098  13.574   5.962
25874SOL    HW279462   3.054  13.717   5.986
25875SOL     OW79463   7.216   5.885   4.461
25875SOL    HW179464   7.291   5.924   4.415
25875SOL    HW279465   7.206   5.798   4.422
25876SOL     OW79466  11.910   2.167  11.774
25876SOL    HW179467  11.984   2.181  11.715
25876SOL    HW279468  11.949   2.160  11.861
25877SOL     OW79469   1.467  10.618   6.479
25877SOL    HW179470   1.447  10.654   6.392
25877SOL    HW279471   1.409  10.542   6.487
25878SOL     OW79472  14.311   3.100  11.350
25878SOL    HW179473  14.237   3.146  11.310
25878SOL    HW279474  14.334   3.153  11.427
25879SOL     OW79475   9.850   1.680   5.881
25879SOL    HW179476   9.850   1.679   5.785
25879SOL    HW279477   9.934   1.640   5.905
25880SOL     OW79478  10.861   1.206   9.540
25880SOL    HW179479  10.808   1.143   9.490
25880SOL    HW279480  10.877   1.278   9.478
25881SOL     OW79481   7.613   7.368   0.149
25881SOL    HW179482   7.588   7.453   0.112
25881SOL    HW279483   7.639   7.316   0.073
25882SOL     OW79484   9.653   6.163   5.740
25882SOL    HW179485   9.592   6.122   5.678
25882SOL    HW279486   9.672   6.248   5.701
25883SOL     OW79487  12.913  11.422  12.900
25883SOL    HW179488  12.921  11.415  12.805
25883SOL    HW279489  12.997  11.458  12.929
25884SOL     OW79490   5.137  11.722  13.713
25884SOL    HW179491   5.074  11.745  13.782
25884SOL    HW279492   5.186  11.803  13.698
25885SOL     OW79493   6.705   6.506  14.224
25885SOL    HW179494   6.719   6.456  14.143
25885SOL    HW279495   6.693   6.596  14.195
25886SOL     OW79496  11.400   6.793  10.626
25886SOL    HW179497  11.316   6.792  10.672
25886SOL    HW279498  11.378   6.768  10.536
25887SOL     OW79499   6.347   7.690   6.353
25887SOL    HW179500   6.434   7.682   6.391
25887SOL    HW279501   6.308   7.765   6.398
25888SOL     OW79502  11.247   6.968   3.158
25888SOL    HW179503  11.239   6.970   3.063
25888SOL    HW279504  11.160   6.991   3.190
25889SOL     OW79505   4.546   2.906   0.548
25889SOL    HW179506   4.566   2.996   0.523
25889SOL    HW279507   4.514   2.866   0.467
25890SOL     OW79508   4.141  13.322   1.528
25890SOL    HW179509   4.190  13.318   1.446
25890SOL    HW279510   4.075  13.390   1.513
25891SOL     OW79511  14.286  14.242   3.184
25891SOL    HW179512  14.281  14.175   3.116
25891SOL    HW279513  14.315  14.321   3.138
25892SOL     OW79514   1.569  13.412   1.543
25892SOL    HW179515   1.552  13.396   1.636
25892SOL    HW279516   1.648  13.362   1.524
25893SOL     OW79517   0.120   2.171   8.007
25893SOL    HW179518   0.142   2.105   7.941
25893SOL    HW279519   0.057   2.127   8.064
25894SOL     OW79520   5.763   5.300  13.849
25894SOL    HW179521   5.761   5.396  13.845
25894SOL    HW279522   5.831   5.281  13.913
25895SOL     OW79523   7.112  12.219   2.471
25895SOL    HW179524   7.148  12.297   2.515
25895SOL    HW279525   7.081  12.252   2.387
25896SOL     OW79526   1.849   8.955   8.188
25896SOL    HW179527   1.811   8.878   8.231
25896SOL    HW279528   1.896   8.920   8.113
25897SOL     OW79529   4.238   6.092  14.362
25897SOL    HW179530   4.323   6.057  14.336
25897SOL    HW279531   4.179   6.068  14.291
25898SOL     OW79532  12.298   8.392   7.915
25898SOL    HW179533  12.296   8.331   7.841
25898SOL    HW279534  12.250   8.346   7.984
25899SOL     OW79535   4.229   4.690  11.044
25899SOL    HW179536   4.283   4.612  11.029
25899SOL    HW279537   4.241   4.743  10.965
25900SOL     OW79538   9.037   5.866   8.412
25900SOL    HW179539   9.040   5.816   8.494
25900SOL    HW279540   9.062   5.955   8.437
25901SOL     OW79541  11.616   0.696   8.347
25901SOL    HW179542  11.585   0.784   8.365
25901SOL    HW279543  11.616   0.690   8.251
25902SOL     OW79544  10.205  12.094   1.067
25902SOL    HW179545  10.112  12.116   1.079
25902SOL    HW279546  10.245  12.112   1.153
25903SOL     OW79547   3.238   8.459  14.678
25903SOL    HW179548   3.234   8.363  14.669
25903SOL    HW279549   3.149   8.489  14.662
25904SOL     OW79550   6.838  12.743   8.414
25904SOL    HW179551   6.902  12.774   8.477
25904SOL    HW279552   6.850  12.648   8.413
25905SOL     OW79553   1.340   1.556   0.021
25905SOL    HW179554   1.259   1.599   0.047
25905SOL    HW279555   1.381   1.618  14.834
25906SOL     OW79556  10.947  11.782   6.125
25906SOL    HW179557  11.026  11.753   6.079
25906SOL    HW279558  10.906  11.844   6.065
25907SOL     OW79559   2.794   9.980   7.572
25907SOL    HW179560   2.847   9.924   7.629
25907SOL    HW279561   2.721  10.009   7.627
25908SOL     OW79562   9.118   4.371  12.712
25908SOL    HW179563   9.072   4.386  12.795
25908SOL    HW279564   9.149   4.280  12.718
25909SOL     OW79565   2.712   5.589   5.632
25909SOL    HW179566   2.617   5.597   5.638
25909SOL    HW279567   2.731   5.500   5.663
25910SOL     OW79568   0.946  12.993  12.075
25910SOL    HW179569   0.947  12.916  12.131
25910SOL    HW279570   1.033  13.031  12.084
25911SOL     OW79571   0.481   1.003  13.673
25911SOL    HW179572   0.479   0.929  13.613
25911SOL    HW279573   0.565   1.046  13.656
25912SOL     OW79574   4.953   2.411  11.145
25912SOL    HW179575   4.898   2.453  11.079
25912SOL    HW279576   5.023   2.474  11.162
25913SOL     OW79577   4.224   1.988   3.961
25913SOL    HW179578   4.260   1.902   3.939
25913SOL    HW279579   4.136   1.970   3.993
25914SOL     OW79580   8.431   5.802   4.689
25914SOL    HW179581   8.355   5.805   4.748
25914SOL    HW279582   8.407   5.738   4.623
25915SOL     OW79583  10.061   5.901   8.980
25915SOL    HW179584  10.121   5.883   8.908
25915SOL    HW279585   9.982   5.851   8.958
25916SOL     OW79586   6.540  12.837  10.169
25916SOL    HW179587   6.522  12.925  10.200
25916SOL    HW279588   6.536  12.783  10.248
25917SOL     OW79589   3.128   3.822   2.091
25917SOL    HW179590   3.039   3.856   2.079
25917SOL    HW279591   3.133   3.745   2.035
25918SOL     OW79592  10.978   3.940  10.834
25918SOL    HW179593  10.927   3.860  10.827
25918SOL    HW279594  10.970   3.966  10.926
25919SOL     OW79595  14.684   5.982  12.507
25919SOL    HW179596  14.721   5.992  12.595
25919SOL    HW279597  14.706   5.892  12.483
25920SOL     OW79598   0.704  11.760   5.638
25920SOL    HW179599   0.715  11.855   5.640
25920SOL    HW279600   0.730  11.731   5.725
25921SOL     OW79601   0.671   0.027  11.585
25921SOL    HW179602   0.729   0.070  11.522
25921SOL    HW279603   0.716   0.035  11.669
25922SOL     OW79604   6.162   4.127   6.084
25922SOL    HW179605   6.236   4.124   6.023
25922SOL    HW279606   6.091   4.083   6.038
25923SOL     OW79607   9.172  12.693   3.788
25923SOL    HW179608   9.249  12.718   3.839
25923SOL    HW279609   9.160  12.600   3.807
25924SOL     OW79610   2.579   7.509   4.554
25924SOL    HW179611   2.585   7.563   4.475
25924SOL    HW279612   2.670   7.495   4.580
25925SOL     OW79613  12.689   5.775   5.164
25925SOL    HW179614  12.612   5.748   5.114
25925SOL    HW279615  12.755   5.709   5.144
25926SOL     OW79616  13.576   7.708   0.380
25926SOL    HW179617  13.597   7.801   0.384
25926SOL    HW279618  13.651   7.664   0.419
25927SOL     OW79619   7.440   7.582   7.658
25927SOL    HW179620   7.440   7.662   7.710
25927SOL    HW279621   7.502   7.599   7.588
25928SOL     OW79622  11.746   9.611   4.125
25928SOL    HW179623  11.799   9.597   4.047
25928SOL    HW279624  11.684   9.538   4.125
25929SOL     OW79625   7.733  11.458  11.194
25929SOL    HW179626   7.821  11.496  11.198
25929SOL    HW279627   7.734  11.387  11.258
25930SOL     OW79628   0.310   7.730  12.090
25930SOL    HW179629   0.274   7.658  12.038
25930SOL    HW279630   0.278   7.809  12.047
25931SOL     OW79631   6.440  11.621   6.484
25931SOL    HW179632   6.381  11.611   6.410
25931SOL    HW279633   6.385  11.656   6.554
25932SOL     OW79634   5.737   1.660  14.063
25932SOL    HW179635   5.653   1.705  14.056
25932SOL    HW279636   5.720   1.587  14.123
25933SOL     OW79637   2.154   3.044   1.708
25933SOL    HW179638   2.215   3.014   1.641
25933SOL    HW279639   2.151   2.972   1.771
25934SOL     OW79640   8.042   1.105   8.840
25934SOL    HW179641   7.960   1.146   8.813
25934SOL    HW279642   8.110   1.163   8.805
25935SOL     OW79643   5.375  14.494   0.940
25935SOL    HW179644   5.371  14.586   0.915
25935SOL    HW279645   5.363  14.446   0.859
25936SOL     OW79646   7.298   0.741   7.664
25936SOL    HW179647   7.299   0.764   7.571
25936SOL    HW279648   7.382   0.698   7.678
25937SOL     OW79649   9.449  12.410  12.334
25937SOL    HW179650   9.489  12.463  12.264
25937SOL    HW279651   9.387  12.353  12.288
25938SOL     OW79652   3.489   1.401   8.013
25938SOL    HW179653   3.444   1.478   8.048
25938SOL    HW279654   3.418   1.341   7.989
25939SOL     OW79655   1.970   3.271   1.155
25939SOL    HW179656   1.978   3.245   1.063
25939SOL    HW279657   1.878   3.252   1.177
25940SOL     OW79658  13.648  14.119   3.627
25940SOL    HW179659  13.555  14.123   3.652
25940SOL    HW279660  13.672  14.027   3.636
25941SOL     OW79661  14.654  11.399   1.391
25941SOL    HW179662  14.606  11.464   1.442
25941SOL    HW279663  14.636  11.316   1.436
25942SOL     OW79664   7.871   4.111  13.770
25942SOL    HW179665   7.937   4.168  13.810
25942SOL    HW279666   7.792   4.166  13.765
25943SOL     OW79667  12.861  11.298   5.242
25943SOL    HW179668  12.929  11.316   5.176
25943SOL    HW279669  12.819  11.218   5.211
25944SOL     OW79670  10.683  11.093   3.182
25944SOL    HW179671  10.701  10.999   3.180
25944SOL    HW279672  10.716  11.122   3.267
25945SOL     OW79673  12.557   4.767  11.416
25945SOL    HW179674  12.487   4.787  11.478
25945SOL    HW279675  12.598   4.852  11.399
25946SOL     OW79676  12.578   1.093  14.771
25946SOL    HW179677  12.546   1.183  14.768
25946SOL    HW279678  12.500   1.040  14.785
25947SOL     OW79679   0.833  13.761   5.883
25947SOL    HW179680   0.890  13.780   5.808
25947SOL    HW279681   0.797  13.674   5.864
25948SOL     OW79682  14.136  14.041   8.991
25948SOL    HW179683  14.062  13.981   8.993
25948SOL    HW279684  14.131  14.089   9.073
25949SOL     OW79685   5.414   0.238  14.296
25949SOL    HW179686   5.500   0.197  14.304
25949SOL    HW279687   5.424   0.299  14.222
25950SOL     OW79688  14.411   8.900   7.192
25950SOL    HW179689  14.466   8.907   7.270
25950SOL    HW279690  14.452   8.958   7.128
25951SOL     OW79691   8.198   5.882  13.061
25951SOL    HW179692   8.249   5.953  13.021
25951SOL    HW279693   8.154   5.923  13.136
25952SOL     OW79694   9.318   6.917   7.098
25952SOL    HW179695   9.412   6.902   7.101
25952SOL    HW279696   9.301   6.979   7.169
25953SOL     OW79697  11.502   0.192  10.542
25953SOL    HW179698  11.537   0.142  10.467
25953SOL    HW279699  11.533   0.144  10.618
25954SOL     OW79700   5.994   9.162  14.244
25954SOL    HW179701   6.030   9.085  14.288
25954SOL    HW279702   5.984   9.134  14.153
25955SOL     OW79703   9.960  13.303  11.677
25955SOL    HW179704   9.931  13.320  11.587
25955SOL    HW279705  10.055  13.300  11.671
25956SOL     OW79706   5.316   8.836   7.397
25956SOL    HW179707   5.284   8.844   7.307
25956SOL    HW279708   5.254   8.777   7.440
25957SOL     OW79709   5.561   5.675   9.568
25957SOL    HW179710   5.470   5.651   9.551
25957SOL    HW279711   5.605   5.666   9.484
25958SOL     OW79712  13.834  10.796   1.952
25958SOL    HW179713  13.879  10.825   1.872
25958SOL    HW279714  13.893  10.821   2.023
25959SOL     OW79715   1.967  14.190  13.206
25959SOL    HW179716   2.011  14.269  13.175
25959SOL    HW279717   1.914  14.161  13.131
25960SOL     OW79718   5.465  11.864  12.048
25960SOL    HW179719   5.507  11.941  12.010
25960SOL    HW279720   5.510  11.851  12.131
25961SOL     OW79721   6.413   9.207  14.530
25961SOL    HW179722   6.363   9.253  14.463
25961SOL    HW279723   6.386   9.249  14.612
25962SOL     OW79724   6.500   2.689  10.150
25962SOL    HW179725   6.423   2.669  10.202
25962SOL    HW279726   6.469   2.748  10.081
25963SOL     OW79727  12.841   8.891   1.000
25963SOL    HW179728  12.892   8.834   1.057
25963SOL    HW279729  12.779   8.934   1.058
25964SOL     OW79730   6.357  11.302  13.104
25964SOL    HW179731   6.439  11.269  13.069
25964SOL    HW279732   6.318  11.228  13.151
25965SOL     OW79733   6.838   2.571   6.012
25965SOL    HW179734   6.931   2.568   6.030
25965SOL    HW279735   6.829   2.539   5.922
25966SOL     OW79736   7.403  13.098  13.823
25966SOL    HW179737   7.333  13.042  13.788
25966SOL    HW279738   7.471  13.098  13.756
25967SOL     OW79739   7.569  10.489  10.943
25967SOL    HW179740   7.649  10.463  10.990
25967SOL    HW279741   7.541  10.570  10.986
25968SOL     OW79742   7.243   0.734   2.282
25968SOL    HW179743   7.248   0.644   2.312
25968SOL    HW279744   7.167   0.771   2.328
25969SOL     OW79745   3.520   4.422   4.956
25969SOL    HW179746   3.528   4.327   4.944
25969SOL    HW279747   3.498   4.456   4.869
25970SOL     OW79748   8.572   2.648   2.322
25970SOL    HW179749   8.646   2.639   2.382
25970SOL    HW279750   8.562   2.742   2.310
25971SOL     OW79751   0.931   7.176   6.423
25971SOL    HW179752   1.011   7.154   6.471
25971SOL    HW279753   0.907   7.263   6.457
25972SOL     OW79754   0.289  11.589  12.292
25972SOL    HW179755   0.364  11.618  12.343
25972SOL    HW279756   0.315  11.502  12.259
25973SOL     OW79757   1.427  12.515   4.227
25973SOL    HW179758   1.406  12.466   4.147
25973SOL    HW279759   1.342  12.530   4.269
25974SOL     OW79760   6.169   2.088   5.770
25974SOL    HW179761   6.086   2.043   5.788
25974SOL    HW279762   6.197   2.121   5.855
25975SOL     OW79763  13.311   5.413   0.489
25975SOL    HW179764  13.254   5.366   0.550
25975SOL    HW279765  13.286   5.505   0.499
25976SOL     OW79766   5.316  11.654   3.505
25976SOL    HW179767   5.402  11.637   3.543
25976SOL    HW279768   5.275  11.568   3.499
25977SOL     OW79769   7.741  14.009   8.312
25977SOL    HW179770   7.773  14.069   8.379
25977SOL    HW279771   7.767  14.049   8.229
25978SOL     OW79772   4.583   9.546   4.915
25978SOL    HW179773   4.528   9.520   4.989
25978SOL    HW279774   4.630   9.623   4.946
25979SOL     OW79775   4.425  14.383   1.428
25979SOL    HW179776   4.409  14.477   1.420
25979SOL    HW279777   4.366  14.343   1.363
25980SOL     OW79778  12.089  12.136   8.583
25980SOL    HW179779  12.128  12.191   8.651
25980SOL    HW279780  12.159  12.123   8.519
25981SOL     OW79781  11.195   1.518  12.050
25981SOL    HW179782  11.107   1.490  12.074
25981SOL    HW279783  11.190   1.533  11.955
25982SOL     OW79784   4.751   6.091   7.884
25982SOL    HW179785   4.725   6.050   7.967
25982SOL    HW279786   4.674   6.081   7.828
25983SOL     OW79787   3.269  14.219  12.956
25983SOL    HW179788   3.209  14.230  12.882
25983SOL    HW279789   3.211  14.211  13.032
25984SOL     OW79790  12.916   3.459  12.310
25984SOL    HW179791  12.911   3.461  12.405
25984SOL    HW279792  12.831   3.494  12.281
25985SOL     OW79793   9.443   5.662  12.483
25985SOL    HW179794   9.491   5.579  12.474
25985SOL    HW279795   9.353   5.640  12.459
25986SOL     OW79796   9.693   5.048   6.049
25986SOL    HW179797   9.664   5.123   6.101
25986SOL    HW279798   9.738   4.991   6.112
25987SOL     OW79799  13.133   6.511   8.625
25987SOL    HW179800  13.048   6.483   8.658
25987SOL    HW279801  13.164   6.574   8.690
25988SOL     OW79802   2.859  10.439   0.321
25988SOL    HW179803   2.861  10.493   0.242
25988SOL    HW279804   2.936  10.467   0.371
25989SOL     OW79805   0.209   6.720  12.483
25989SOL    HW179806   0.197   6.804  12.527
25989SOL    HW279807   0.303   6.703  12.488
25990SOL     OW79808   4.975   0.904  11.512
25990SOL    HW179809   5.008   0.956  11.585
25990SOL    HW279810   4.881   0.922  11.510
25991SOL     OW79811   6.658   1.247   6.723
25991SOL    HW179812   6.644   1.185   6.651
25991SOL    HW279813   6.583   1.235   6.781
25992SOL     OW79814   8.951  13.212   4.300
25992SOL    HW179815   8.910  13.161   4.230
25992SOL    HW279816   8.961  13.299   4.263
25993SOL     OW79817   6.107   4.805  12.699
25993SOL    HW179818   6.046   4.733  12.683
25993SOL    HW279819   6.059   4.884  12.675
25994SOL     OW79820   3.148   8.165  13.270
25994SOL    HW179821   3.197   8.093  13.230
25994SOL    HW279822   3.215   8.220  13.310
25995SOL     OW79823   2.990   6.585   7.728
25995SOL    HW179824   3.020   6.521   7.793
25995SOL    HW279825   2.975   6.534   7.649
25996SOL     OW79826  11.107   8.463   6.043
25996SOL    HW179827  11.093   8.545   5.995
25996SOL    HW279828  11.023   8.446   6.085
25997SOL     OW79829   0.940   6.286   5.913
25997SOL    HW179830   0.859   6.288   5.964
25997SOL    HW279831   0.933   6.360   5.853
25998SOL     OW79832  10.771   7.304   0.564
25998SOL    HW179833  10.689   7.258   0.543
25998SOL    HW279834  10.743   7.386   0.602
25999SOL     OW79835   0.560  12.031  12.879
25999SOL    HW179836   0.517  12.052  12.962
25999SOL    HW279837   0.650  12.007  12.904
26000SOL     OW79838  14.789   7.299   6.823
26000SOL    HW179839  14.701   7.300   6.859
26000SOL    HW279840  14.793   7.376   6.767
26001SOL     OW79841   9.889   6.190   2.372
26001SOL    HW179842   9.910   6.283   2.382
26001SOL    HW279843   9.974   6.146   2.372
26002SOL     OW79844   2.391  13.088  13.641
26002SOL    HW179845   2.481  13.062  13.663
26002SOL    HW279846   2.401  13.149  13.568
26003SOL     OW79847   6.886   4.989  10.053
26003SOL    HW179848   6.971   5.011  10.090
26003SOL    HW279849   6.825   5.049  10.096
26004SOL     OW79850  11.642   0.283   5.617
26004SOL    HW179851  11.588   0.344   5.666
26004SOL    HW279852  11.687   0.337   5.552
26005SOL     OW79853   8.936  10.656   5.602
26005SOL    HW179854   8.841  10.658   5.596
26005SOL    HW279855   8.955  10.671   5.695
26006SOL     OW79856  11.056   0.629   2.586
26006SOL    HW179857  10.967   0.636   2.620
26006SOL    HW279858  11.051   0.666   2.497
26007SOL     OW79859   5.161   0.458   6.246
26007SOL    HW179860   5.087   0.400   6.264
26007SOL    HW279861   5.130   0.545   6.270
26008SOL     OW79862   2.797   1.909   7.438
26008SOL    HW179863   2.869   1.943   7.384
26008SOL    HW279864   2.814   1.815   7.445
26009SOL     OW79865   3.591   9.482   9.276
26009SOL    HW179866   3.596   9.577   9.283
26009SOL    HW279867   3.626   9.449   9.359
26010SOL     OW79868  13.638   8.147   3.040
26010SOL    HW179869  13.614   8.058   3.064
26010SOL    HW279870  13.695   8.177   3.110
26011SOL     OW79871   9.434   0.787  11.638
26011SOL    HW179872   9.441   0.745  11.552
26011SOL    HW279873   9.492   0.737  11.695
26012SOL     OW79874  12.114   6.443   1.132
26012SOL    HW179875  12.128   6.440   1.226
26012SOL    HW279876  12.021   6.423   1.120
26013SOL     OW79877   0.818  13.836  12.689
26013SOL    HW179878   0.864  13.843  12.606
26013SOL    HW279879   0.785  13.924  12.706
26014SOL     OW79880   5.904  13.691   5.415
26014SOL    HW179881   5.946  13.611   5.385
26014SOL    HW279882   5.896  13.679   5.510
26015SOL     OW79883  11.319  10.405   1.961
26015SOL    HW179884  11.309  10.369   2.050
26015SOL    HW279885  11.230  10.430   1.936
26016SOL     OW79886   2.987   0.307  11.859
26016SOL    HW179887   3.040   0.228  11.856
26016SOL    HW279888   3.025   0.365  11.792
26017SOL     OW79889  12.486   7.796  10.316
26017SOL    HW179890  12.404   7.826  10.355
26017SOL    HW279891  12.527   7.742  10.383
26018SOL     OW79892  14.016   3.527   3.706
26018SOL    HW179893  13.945   3.482   3.658
26018SOL    HW279894  13.978   3.546   3.792
26019SOL     OW79895  13.209   9.441  11.519
26019SOL    HW179896  13.190   9.487  11.601
26019SOL    HW279897  13.301   9.461  11.501
26020SOL     OW79898   0.034   4.880   8.764
26020SOL    HW179899   0.056   4.789   8.784
26020SOL    HW279900   0.105   4.910   8.706
26021SOL     OW79901   4.561   5.071   7.023
26021SOL    HW179902   4.537   5.140   7.084
26021SOL    HW279903   4.611   5.116   6.955
26022SOL     OW79904  11.695   5.909   1.889
26022SOL    HW179905  11.779   5.918   1.934
26022SOL    HW279906  11.712   5.845   1.820
26023SOL     OW79907   1.083  12.954   1.415
26023SOL    HW179908   1.146  12.887   1.389
26023SOL    HW279909   1.133  13.016   1.467
26024SOL     OW79910  11.439   3.897   3.631
26024SOL    HW179911  11.401   3.812   3.611
26024SOL    HW279912  11.366   3.959   3.624
26025SOL     OW79913  12.409   0.111   4.055
26025SOL    HW179914  12.459   0.116   4.136
26025SOL    HW279915  12.408   0.201   4.022
26026SOL     OW79916   8.855  12.042   1.145
26026SOL    HW179917   8.891  12.130   1.142
26026SOL    HW279918   8.764  12.052   1.118
26027SOL     OW79919   9.981   9.986   9.823
26027SOL    HW179920  10.063  10.018   9.784
26027SOL    HW279921  10.008   9.914   9.879
26028SOL     OW79922  12.682   4.942   3.690
26028SOL    HW179923  12.608   4.893   3.725
26028SOL    HW279924  12.755   4.917   3.746
26029SOL     OW79925   1.734  14.108   1.080
26029SOL    HW179926   1.667  14.044   1.106
26029SOL    HW279927   1.815  14.075   1.120
26030SOL     OW79928   1.559  10.030  12.185
26030SOL    HW179929   1.590  10.019  12.275
26030SOL    HW279930   1.619  10.093  12.146
26031SOL     OW79931  14.212   7.584   3.889
26031SOL    HW179932  14.237   7.587   3.981
26031SOL    HW279933  14.289   7.550   3.844
26032SOL     OW79934  13.820   9.929  13.932
26032SOL    HW179935  13.772  10.006  13.905
26032SOL    HW279936  13.823   9.935  14.028
26033SOL     OW79937   1.025   6.023   8.398
26033SOL    HW179938   1.099   6.000   8.342
26033SOL    HW279939   1.051   5.992   8.485
26034SOL     OW79940  10.235  13.779  12.593
26034SOL    HW179941  10.298  13.800  12.523
26034SOL    HW279942  10.288  13.773  12.672
26035SOL     OW79943   5.140  14.230   9.491
26035SOL    HW179944   5.197  14.168   9.534
26035SOL    HW279945   5.165  14.226   9.398
26036SOL     OW79946  11.133   1.170   7.456
26036SOL    HW179947  11.217   1.182   7.500
26036SOL    HW279948  11.100   1.087   7.489
26037SOL     OW79949   9.318  14.588   6.891
26037SOL    HW179950   9.245  14.650   6.896
26037SOL    HW279951   9.389  14.638   6.851
26038SOL     OW79952   9.865   2.936   8.062
26038SOL    HW179953   9.771   2.931   8.083
26038SOL    HW279954   9.903   2.984   8.135
26039SOL     OW79955   9.595   2.041   4.123
26039SOL    HW179956   9.519   2.059   4.178
26039SOL    HW279957   9.567   2.064   4.034
26040SOL     OW79958  13.974  10.794  10.383
26040SOL    HW179959  14.042  10.832  10.440
26040SOL    HW279960  14.019  10.726  10.333
26041SOL     OW79961   3.941   0.646   7.969
26041SOL    HW179962   4.006   0.590   7.926
26041SOL    HW279963   3.920   0.712   7.903
26042SOL     OW79964   0.070   3.994   3.408
26042SOL    HW179965   0.145   3.962   3.357
26042SOL    HW279966  14.871   3.939   3.380
26043SOL     OW79967   0.692   9.324   3.586
26043SOL    HW179968   0.606   9.309   3.626
26043SOL    HW279969   0.693   9.417   3.565
26044SOL     OW79970  11.412  14.623  12.115
26044SOL    HW179971  11.348  14.577  12.060
26044SOL    HW279972  11.477  14.556  12.135
26045SOL     OW79973   8.297  11.658   7.571
26045SOL    HW179974   8.248  11.585   7.609
26045SOL    HW279975   8.240  11.734   7.582
26046SOL     OW79976   1.417  12.883   5.499
26046SOL    HW179977   1.377  12.970   5.507
26046SOL    HW279978   1.489  12.885   5.563
26047SOL     OW79979   8.749   0.553   8.579
26047SOL    HW179980   8.694   0.624   8.613
26047SOL    HW279981   8.804   0.595   8.513
26048SOL     OW79982   9.093   7.388   4.703
26048SOL    HW179983   9.172   7.361   4.750
26048SOL    HW279984   9.117   7.382   4.610
26049SOL     OW79985   6.460   0.349   8.491
26049SOL    HW179986   6.422   0.437   8.497
26049SOL    HW279987   6.397   0.300   8.437
26050SOL     OW79988  13.035   7.847   5.292
26050SOL    HW179989  13.087   7.894   5.227
26050SOL    HW279990  12.945   7.876   5.276
26051SOL     OW79991   0.819   9.563   6.251
26051SOL    HW179992   0.724   9.555   6.242
26051SOL    HW279993   0.854   9.508   6.180
26052SOL     OW79994   4.100  13.094   8.846
26052SOL    HW179995   4.006  13.100   8.829
26052SOL    HW279996   4.117  13.000   8.853
26053SOL     OW79997  13.227  10.949   6.008
26053SOL    HW179998  13.271  11.026   6.045
26053SOL    HW279999  13.295  10.881   6.007
26054SOL     OW80000   6.448   4.958   2.553
26054SOL    HW180001   6.422   4.913   2.473
26054SOL    HW280002   6.523   4.908   2.586
26055SOL     OW80003  10.514   5.162   2.872
26055SOL    HW180004  10.582   5.149   2.805
26055SOL    HW280005  10.456   5.228   2.834
26056SOL     OW80006   0.881   0.785   3.214
26056SOL    HW180007   0.919   0.713   3.163
26056SOL    HW280008   0.936   0.792   3.291
26057SOL     OW80009   6.935   9.107   7.761
26057SOL    HW180010   6.863   9.053   7.795
26057SOL    HW280011   7.014   9.068   7.799
26058SOL     OW80012  10.671   2.227  11.276
26058SOL    HW180013  10.649   2.219  11.369
26058SOL    HW280014  10.699   2.139  11.251
26059SOL     OW80015   9.212  12.457  14.249
26059SOL    HW180016   9.117  12.452  14.254
26059SOL    HW280017   9.243  12.375  14.289
26060SOL     OW80018  11.053   5.841   5.924
26060SOL    HW180019  11.039   5.752   5.958
26060SOL    HW280020  11.066   5.829   5.830
26061SOL     OW80021  12.970  11.944  14.152
26061SOL    HW180022  12.967  12.001  14.229
26061SOL    HW280023  12.887  11.896  14.156
26062SOL     OW80024   3.295   1.533   0.578
26062SOL    HW180025   3.368   1.482   0.613
26062SOL    HW280026   3.268   1.590   0.650
26063SOL     OW80027   8.173   7.601   8.584
26063SOL    HW180028   8.134   7.629   8.501
26063SOL    HW280029   8.239   7.667   8.603
26064SOL     OW80030   8.082   8.359   1.924
26064SOL    HW180031   8.139   8.289   1.893
26064SOL    HW280032   8.064   8.336   2.015
26065SOL     OW80033   8.462   7.632  13.408
26065SOL    HW180034   8.487   7.671  13.324
26065SOL    HW280035   8.517   7.676  13.472
26066SOL     OW80036   5.980   8.302  12.746
26066SOL    HW180037   6.009   8.342  12.664
26066SOL    HW280038   5.885   8.317  12.747
26067SOL     OW80039   7.278   2.987   2.718
26067SOL    HW180040   7.361   3.011   2.759
26067SOL    HW280041   7.256   3.061   2.662
26068SOL     OW80042  10.905   8.550   1.696
26068SOL    HW180043  10.998   8.572   1.695
26068SOL    HW280044  10.861   8.633   1.677
26069SOL     OW80045  12.270   5.398   9.395
26069SOL    HW180046  12.257   5.418   9.487
26069SOL    HW280047  12.359   5.364   9.390
26070SOL     OW80048   8.332   5.346   9.003
26070SOL    HW180049   8.417   5.351   8.958
26070SOL    HW280050   8.355   5.336   9.096
26071SOL     OW80051   3.885   3.697  11.827
26071SOL    HW180052   3.891   3.777  11.774
26071SOL    HW280053   3.792   3.675  11.828
26072SOL     OW80054   7.231   9.371   7.341
26072SOL    HW180055   7.246   9.279   7.363
26072SOL    HW280056   7.244   9.418   7.424
26073SOL     OW80057   6.510   9.559   7.268
26073SOL    HW180058   6.479   9.469   7.275
26073SOL    HW280059   6.604   9.552   7.258
26074SOL     OW80060  13.514   9.708   8.667
26074SOL    HW180061  13.502   9.615   8.648
26074SOL    HW280062  13.455   9.725   8.741
26075SOL     OW80063   0.575   3.436   3.896
26075SOL    HW180064   0.617   3.426   3.981
26075SOL    HW280065   0.581   3.529   3.876
26076SOL     OW80066   7.806   6.378   7.496
26076SOL    HW180067   7.740   6.345   7.557
26076SOL    HW280068   7.786   6.471   7.486
26077SOL     OW80069   1.962   3.112  11.431
26077SOL    HW180070   2.020   3.119  11.507
26077SOL    HW280071   1.952   3.202  11.400
26078SOL     OW80072  10.398  10.485   5.852
26078SOL    HW180073  10.376  10.555   5.791
26078SOL    HW280074  10.377  10.521   5.938
26079SOL     OW80075  12.821   5.556  13.297
26079SOL    HW180076  12.740   5.593  13.332
26079SOL    HW280077  12.834   5.474  13.345
26080SOL     OW80078   1.011  10.256  13.395
26080SOL    HW180079   1.096  10.284  13.362
26080SOL    HW280080   1.031  10.202  13.471
26081SOL     OW80081  10.218  10.463  14.429
26081SOL    HW180082  10.306  10.426  14.423
26081SOL    HW280083  10.167  10.396  14.475
26082SOL     OW80084  12.998   8.746   1.925
26082SOL    HW180085  13.077   8.698   1.899
26082SOL    HW280086  12.951   8.686   1.982
26083SOL     OW80087   4.731   1.946   5.315
26083SOL    HW180088   4.722   2.029   5.361
26083SOL    HW280089   4.686   1.960   5.231
26084SOL     OW80090  13.727   5.407   9.023
26084SOL    HW180091  13.757   5.322   9.054
26084SOL    HW280092  13.780   5.424   8.945
26085SOL     OW80093   3.280   1.176   9.197
26085SOL    HW180094   3.199   1.139   9.231
26085SOL    HW280095   3.350   1.134   9.247
26086SOL     OW80096   9.899   3.359   8.801
26086SOL    HW180097   9.869   3.282   8.753
26086SOL    HW280098   9.834   3.426   8.780
26087SOL     OW80099   4.728  13.394   3.211
26087SOL    HW180100   4.817  13.428   3.221
26087SOL    HW280101   4.724  13.364   3.120
26088SOL     OW80102   3.950   4.201  12.770
26088SOL    HW180103   4.016   4.147  12.813
26088SOL    HW280104   3.992   4.230  12.689
26089SOL     OW80105   1.052   0.860  12.727
26089SOL    HW180106   1.138   0.900  12.742
26089SOL    HW280107   1.054   0.835  12.635
26090SOL     OW80108  11.820   4.609  12.666
26090SOL    HW180109  11.751   4.670  12.694
26090SOL    HW280110  11.864   4.584  12.747
26091SOL     OW80111   0.069   6.632   5.355
26091SOL    HW180112   0.020   6.700   5.401
26091SOL    HW280113   0.022   6.621   5.272
26092SOL     OW80114  10.991  11.602   0.560
26092SOL    HW180115  11.002  11.543   0.486
26092SOL    HW280116  11.080  11.627   0.585
26093SOL     OW80117   4.882   5.509   8.425
26093SOL    HW180118   4.861   5.602   8.434
26093SOL    HW280119   4.860   5.471   8.510
26094SOL     OW80120  11.595   6.707  14.493
26094SOL    HW180121  11.679   6.750  14.481
26094SOL    HW280122  11.556   6.752  14.568
26095SOL     OW80123   3.609   8.374  14.249
26095SOL    HW180124   3.651   8.370  14.335
26095SOL    HW280125   3.656   8.309  14.196
26096SOL     OW80126  13.978   9.391   1.215
26096SOL    HW180127  14.021   9.389   1.300
26096SOL    HW280128  13.897   9.342   1.228
26097SOL     OW80129   7.133  14.418  11.265
26097SOL    HW180130   7.071  14.489  11.247
26097SOL    HW280131   7.097  14.342  11.220
26098SOL     OW80132   2.353   3.270  14.247
26098SOL    HW180133   2.366   3.295  14.338
26098SOL    HW280134   2.410   3.194  14.235
26099SOL     OW80135  12.356   7.024  12.835
26099SOL    HW180136  12.364   6.938  12.876
26099SOL    HW280137  12.263   7.033  12.817
26100SOL     OW80138   4.305  11.419  11.502
26100SOL    HW180139   4.357  11.470  11.440
26100SOL    HW280140   4.298  11.332  11.461
26101SOL     OW80141   0.037  10.212   4.322
26101SOL    HW180142  14.836  10.154   4.308
26101SOL    HW280143   0.113  10.155   4.314
26102SOL     OW80144   9.368   1.490   5.199
26102SOL    HW180145   9.421   1.440   5.261
26102SOL    HW280146   9.429   1.552   5.160
26103SOL     OW80147   4.150   6.692   1.314
26103SOL    HW180148   4.086   6.665   1.380
26103SOL    HW280149   4.100   6.742   1.250
26104SOL     OW80150   8.935   3.061  14.198
26104SOL    HW180151   8.936   3.099  14.110
26104SOL    HW280152   9.006   3.107  14.244
26105SOL     OW80153  12.994  12.717  13.924
26105SOL    HW180154  12.950  12.769  13.858
26105SOL    HW280155  12.981  12.765  14.006
26106SOL     OW80156   7.235  13.277   0.857
26106SOL    HW180157   7.309  13.239   0.810
26106SOL    HW280158   7.251  13.255   0.949
26107SOL     OW80159   8.215   2.736   2.451
26107SOL    HW180160   8.153   2.749   2.523
26107SOL    HW280161   8.299   2.766   2.485
26108SOL     OW80162   7.674   4.758   7.781
26108SOL    HW180163   7.749   4.755   7.840
26108SOL    HW280164   7.693   4.693   7.714
26109SOL     OW80165   0.269   9.777   1.182
26109SOL    HW180166   0.259   9.866   1.214
26109SOL    HW280167   0.180   9.741   1.182
26110SOL     OW80168   8.818  10.860   6.470
26110SOL    HW180169   8.802  10.767   6.459
26110SOL    HW280170   8.841  10.891   6.382
26111SOL     OW80171   5.808  10.389  12.109
26111SOL    HW180172   5.733  10.335  12.135
26111SOL    HW280173   5.809  10.384  12.014
26112SOL     OW80174   0.215   4.851   0.044
26112SOL    HW180175   0.148   4.919   0.052
26112SOL    HW280176   0.297   4.899   0.033
26113SOL     OW80177   6.039   1.749  13.680
26113SOL    HW180178   6.116   1.806  13.672
26113SOL    HW280179   5.994   1.758  13.596
26114SOL     OW80180  13.021   8.535   9.166
26114SOL    HW180181  13.016   8.506   9.075
26114SOL    HW280182  12.985   8.624   9.164
26115SOL     OW80183   7.886   7.603   5.344
26115SOL    HW180184   7.866   7.575   5.255
26115SOL    HW280185   7.941   7.680   5.333
26116SOL     OW80186   5.182  10.874  12.804
26116SOL    HW180187   5.231  10.914  12.876
26116SOL    HW280188   5.128  10.945  12.770
26117SOL     OW80189   2.987  10.799   0.173
26117SOL    HW180190   3.017  10.805   0.264
26117SOL    HW280191   2.975  10.890   0.146
26118SOL     OW80192   7.427  12.224   9.580
26118SOL    HW180193   7.433  12.129   9.571
26118SOL    HW280194   7.491  12.259   9.518
26119SOL     OW80195   9.182   8.978  10.063
26119SOL    HW180196   9.124   9.054  10.073
26119SOL    HW280197   9.166   8.925  10.141
26120SOL     OW80198   0.947  12.463  13.268
26120SOL    HW180199   1.035  12.483  13.299
26120SOL    HW280200   0.899  12.545  13.277
26121SOL     OW80201  10.020   8.612   5.827
26121SOL    HW180202   9.957   8.647   5.765
26121SOL    HW280203  10.071   8.548   5.777
26122SOL     OW80204   5.613   2.396  14.029
26122SOL    HW180205   5.631   2.344  13.950
26122SOL    HW280206   5.563   2.471  13.997
26123SOL     OW80207  14.135   2.911   7.628
26123SOL    HW180208  14.153   2.993   7.582
26123SOL    HW280209  14.059   2.931   7.683
26124SOL     OW80210   6.153  11.762   7.678
26124SOL    HW180211   6.069  11.775   7.634
26124SOL    HW280212   6.153  11.824   7.751
26125SOL     OW80213  13.833   9.994  14.203
26125SOL    HW180214  13.818   9.996  14.297
26125SOL    HW280215  13.878  10.076  14.183
26126SOL     OW80216   2.032  13.888  10.348
26126SOL    HW180217   1.982  13.873  10.268
26126SOL    HW280218   2.087  13.964  10.328
26127SOL     OW80219   1.602   0.986   6.574
26127SOL    HW180220   1.630   0.934   6.648
26127SOL    HW280221   1.514   1.015   6.596
26128SOL     OW80222   3.254   6.617   5.679
26128SOL    HW180223   3.170   6.656   5.655
26128SOL    HW280224   3.241   6.587   5.769
26129SOL     OW80225   9.110   3.502   7.694
26129SOL    HW180226   9.021   3.475   7.716
26129SOL    HW280227   9.145   3.429   7.642
26130SOL     OW80228   7.289   0.413   8.998
26130SOL    HW180229   7.247   0.447   8.918
26130SOL    HW280230   7.307   0.491   9.051
26131SOL     OW80231   9.056  12.713   9.791
26131SOL    HW180232   9.011  12.685   9.712
26131SOL    HW280233   9.044  12.808   9.794
26132SOL     OW80234   2.608   2.172   8.785
26132SOL    HW180235   2.668   2.107   8.823
26132SOL    HW280236   2.539   2.181   8.851
26133SOL     OW80237   1.342  13.186   0.087
26133SOL    HW180238   1.398  13.256   0.120
26133SOL    HW280239   1.402  13.123   0.048
26134SOL     OW80240   3.769   8.314  13.779
26134SOL    HW180241   3.770   8.329  13.874
26134SOL    HW280242   3.691   8.362  13.749
26135SOL     OW80243   4.918   4.383   5.206
26135SOL    HW180244   4.970   4.348   5.134
26135SOL    HW280245   4.829   4.390   5.171
26136SOL     OW80246  13.179   9.849   2.438
26136SOL    HW180247  13.108   9.846   2.374
26136SOL    HW280248  13.140   9.815   2.518
26137SOL     OW80249   0.196   6.904  12.261
26137SOL    HW180250   0.139   6.867  12.193
26137SOL    HW280251   0.198   6.837  12.330
26138SOL     OW80252  11.251   4.517   4.199
26138SOL    HW180253  11.273   4.463   4.123
26138SOL    HW280254  11.198   4.589   4.163
26139SOL     OW80255  10.651   3.499  13.596
26139SOL    HW180256  10.597   3.421  13.606
26139SOL    HW280257  10.590   3.572  13.603
26140SOL     OW80258  12.470   4.845  10.438
26140SOL    HW180259  12.558   4.820  10.466
26140SOL    HW280260  12.480   4.870  10.346
26141SOL     OW80261  10.972   7.230   5.295
26141SOL    HW180262  10.934   7.313   5.266
26141SOL    HW280263  10.936   7.216   5.383
26142SOL     OW80264  10.358  13.760  12.883
26142SOL    HW180265  10.362  13.667  12.864
26142SOL    HW280266  10.438  13.778  12.933
26143SOL     OW80267   3.293   9.923   0.873
26143SOL    HW180268   3.365   9.954   0.929
26143SOL    HW280269   3.286   9.830   0.894
26144SOL     OW80270  13.542  12.833   8.066
26144SOL    HW180271  13.631  12.832   8.032
26144SOL    HW280272  13.508  12.745   8.048
26145SOL     OW80273  10.767   3.232   7.811
26145SOL    HW180274  10.826   3.301   7.782
26145SOL    HW280275  10.825   3.160   7.837
26146SOL     OW80276  13.559   1.001   7.601
26146SOL    HW180277  13.551   1.050   7.520
26146SOL    HW280278  13.472   0.964   7.616
26147SOL     OW80279   0.544   9.088   5.496
26147SOL    HW180280   0.614   9.146   5.468
26147SOL    HW280281   0.531   9.030   5.421
26148SOL     OW80282   0.293   2.852  12.121
26148SOL    HW180283   0.259   2.941  12.128
26148SOL    HW280284   0.329   2.833  12.208
26149SOL     OW80285  11.278  12.377   5.197
26149SOL    HW180286  11.183  12.386   5.195
26149SOL    HW280287  11.306  12.401   5.109
26150SOL     OW80288   6.780  11.219  11.634
26150SOL    HW180289   6.715  11.250  11.697
26150SOL    HW280290   6.730  11.167  11.572
26151SOL     OW80291   9.681  13.673  14.869
26151SOL    HW180292   9.660  13.756   0.036
26151SOL    HW280293   9.774  13.679  14.849
26152SOL     OW80294   9.810   3.058   3.232
26152SOL    HW180295   9.865   2.979   3.236
26152SOL    HW280296   9.866   3.127   3.267
26153SOL     OW80297   0.378  14.445   8.286
26153SOL    HW180298   0.401  14.522   8.234
26153SOL    HW280299   0.415  14.371   8.238
26154SOL     OW80300   0.186  10.891   0.616
26154SOL    HW180301   0.187  10.796   0.604
26154SOL    HW280302   0.276  10.919   0.599
26155SOL     OW80303   2.905  11.732   4.356
26155SOL    HW180304   2.990  11.692   4.374
26155SOL    HW280305   2.858  11.724   4.439
26156SOL     OW80306   9.817   2.188   2.811
26156SOL    HW180307   9.725   2.199   2.790
26156SOL    HW280308   9.822   2.201   2.905
26157SOL     OW80309  13.188   1.438   4.335
26157SOL    HW180310  13.228   1.396   4.411
26157SOL    HW280311  13.233   1.523   4.328
26158SOL     OW80312  11.675   8.098   6.244
26158SOL    HW180313  11.647   8.013   6.279
26158SOL    HW280314  11.769   8.101   6.261
26159SOL     OW80315   6.644  11.915  10.277
26159SOL    HW180316   6.634  11.828  10.317
26159SOL    HW280317   6.614  11.904  10.187
26160SOL     OW80318  10.402   3.008  13.927
26160SOL    HW180319  10.388   2.915  13.909
26160SOL    HW280320  10.430   3.010  14.019
26161SOL     OW80321   6.768   2.519   1.830
26161SOL    HW180322   6.709   2.493   1.758
26161SOL    HW280323   6.811   2.438   1.856
26162SOL     OW80324  14.111  12.895   3.293
26162SOL    HW180325  14.146  12.831   3.232
26162SOL    HW280326  14.069  12.843   3.362
26163SOL     OW80327   6.228   7.181   0.976
26163SOL    HW180328   6.204   7.199   0.885
26163SOL    HW280329   6.223   7.267   1.019
26164SOL     OW80330  10.154   8.601  14.644
26164SOL    HW180331  10.239   8.644  14.636
26164SOL    HW280332  10.130   8.610  14.736
26165SOL     OW80333   4.317   9.508   3.830
26165SOL    HW180334   4.235   9.540   3.793
26165SOL    HW280335   4.375   9.498   3.754
26166SOL     OW80336  11.605   4.954   9.967
26166SOL    HW180337  11.662   5.026   9.942
26166SOL    HW280338  11.610   4.893   9.892
26167SOL     OW80339   4.704  10.318  11.268
26167SOL    HW180340   4.705  10.356  11.355
26167SOL    HW280341   4.764  10.243  11.273
26168SOL     OW80342   8.693   3.304   6.488
26168SOL    HW180343   8.728   3.393   6.481
26168SOL    HW280344   8.599   3.315   6.495
26169SOL     OW80345   8.073  14.124   6.939
26169SOL    HW180346   8.104  14.067   6.869
26169SOL    HW280347   8.048  14.065   7.010
26170SOL     OW80348   1.978   4.573   9.181
26170SOL    HW180349   1.941   4.650   9.223
26170SOL    HW280350   2.033   4.609   9.111
26171SOL     OW80351  13.994   7.261  12.531
26171SOL    HW180352  13.987   7.238  12.438
26171SOL    HW280353  13.932   7.202  12.575
26172SOL     OW80354  10.774   2.282   0.485
26172SOL    HW180355  10.741   2.372   0.491
26172SOL    HW280356  10.785   2.254   0.575
26173SOL     OW80357   8.380   0.777   6.072
26173SOL    HW180358   8.296   0.751   6.111
26173SOL    HW280359   8.366   0.764   5.978
26174SOL     OW80360   8.312   6.806  12.843
26174SOL    HW180361   8.391   6.769  12.803
26174SOL    HW280362   8.293   6.749  12.916
26175SOL     OW80363  14.115   0.457  11.145
26175SOL    HW180364  14.148   0.433  11.059
26175SOL    HW280365  14.135   0.381  11.200
26176SOL     OW80366  10.064  13.472  12.778
26176SOL    HW180367  10.060  13.378  12.793
26176SOL    HW280368  10.002  13.487  12.706
26177SOL     OW80369   7.220   4.719   9.063
26177SOL    HW180370   7.207   4.637   9.017
26177SOL    HW280371   7.311   4.718   9.091
26178SOL     OW80372   9.912  11.049   6.554
26178SOL    HW180373  10.004  11.063   6.577
26178SOL    HW280374   9.875  11.137   6.548
26179SOL     OW80375  13.263   0.043   3.947
26179SOL    HW180376  13.303   0.030   4.033
26179SOL    HW280377  13.334   0.027   3.885
26180SOL     OW80378   0.342   0.045  12.029
26180SOL    HW180379   0.258   0.026  12.071
26180SOL    HW280380   0.401  14.850  12.060
26181SOL     OW80381   0.337   4.418   3.921
26181SOL    HW180382   0.431   4.426   3.938
26181SOL    HW280383   0.296   4.428   4.007
26182SOL     OW80384  11.074   1.699   4.423
26182SOL    HW180385  11.068   1.794   4.419
26182SOL    HW280386  11.137   1.681   4.493
26183SOL     OW80387   3.142   7.380   9.857
26183SOL    HW180388   3.166   7.371   9.949
26183SOL    HW280389   3.090   7.301   9.838
26184SOL     OW80390   0.456   5.438   8.915
26184SOL    HW180391   0.375   5.480   8.887
26184SOL    HW280392   0.444   5.421   9.008
26185SOL     OW80393   0.600   7.362   7.682
26185SOL    HW180394   0.695   7.359   7.689
26185SOL    HW280395   0.579   7.454   7.669
26186SOL     OW80396   7.477   1.204   5.160
26186SOL    HW180397   7.552   1.263   5.164
26186SOL    HW280398   7.403   1.259   5.137
26187SOL     OW80399   0.509   0.723   8.872
26187SOL    HW180400   0.504   0.789   8.941
26187SOL    HW280401   0.447   0.754   8.805
26188SOL     OW80402  11.198   3.923   5.506
26188SOL    HW180403  11.132   3.974   5.459
26188SOL    HW280404  11.180   3.940   5.598
26189SOL     OW80405   9.495  14.080   1.045
26189SOL    HW180406   9.482  13.995   1.004
26189SOL    HW280407   9.584  14.106   1.018
26190SOL     OW80408   3.331  14.581   4.407
26190SOL    HW180409   3.284  14.507   4.446
26190SOL    HW280410   3.423  14.553   4.407
26191SOL     OW80411   9.479  12.087   9.161
26191SOL    HW180412   9.569  12.109   9.139
26191SOL    HW280413   9.436  12.171   9.176
26192SOL     OW80414  10.986   2.785   5.170
26192SOL    HW180415  10.985   2.863   5.226
26192SOL    HW280416  11.075   2.750   5.179
26193SOL     OW80417   3.042  10.898   5.661
26193SOL    HW180418   3.134  10.924   5.657
26193SOL    HW280419   2.995  10.976   5.631
26194SOL     OW80420   1.957  11.800   2.577
26194SOL    HW180421   1.997  11.882   2.607
26194SOL    HW280422   1.887  11.828   2.518
26195SOL     OW80423  10.965   2.586   1.025
26195SOL    HW180424  10.886   2.533   1.040
26195SOL    HW280425  11.019   2.571   1.103
26196SOL     OW80426  13.567   1.872   0.505
26196SOL    HW180427  13.532   1.883   0.416
26196SOL    HW280428  13.548   1.781   0.527
26197SOL     OW80429   9.105   6.946   7.909
26197SOL    HW180430   9.196   6.937   7.938
26197SOL    HW280431   9.071   7.021   7.957
26198SOL     OW80432   7.068   9.244  10.597
26198SOL    HW180433   6.994   9.233  10.537
26198SOL    HW280434   7.030   9.277  10.678
26199SOL     OW80435  11.804  10.927  11.786
26199SOL    HW180436  11.747  10.852  11.769
26199SOL    HW280437  11.765  10.970  11.862
26200SOL     OW80438   6.791   2.095  11.509
26200SOL    HW180439   6.810   2.022  11.568
26200SOL    HW280440   6.858   2.089  11.441
26201SOL     OW80441   3.459   1.764   7.554
26201SOL    HW180442   3.470   1.752   7.459
26201SOL    HW280443   3.549   1.770   7.587
26202SOL     OW80444   8.564   5.911   1.449
26202SOL    HW180445   8.568   5.832   1.503
26202SOL    HW280446   8.489   5.960   1.482
26203SOL     OW80447   1.844  12.301  12.086
26203SOL    HW180448   1.925  12.332  12.046
26203SOL    HW280449   1.799  12.253  12.016
26204SOL     OW80450  12.156   7.167   3.330
26204SOL    HW180451  12.179   7.076   3.314
26204SOL    HW280452  12.221   7.218   3.281
26205SOL     OW80453   6.320  12.185   9.142
26205SOL    HW180454   6.328  12.199   9.047
26205SOL    HW280455   6.253  12.117   9.150
26206SOL     OW80456   8.656   7.464   0.131
26206SOL    HW180457   8.708   7.499   0.204
26206SOL    HW280458   8.721   7.438   0.066
26207SOL     OW80459   2.077   3.190   3.644
26207SOL    HW180460   2.096   3.284   3.643
26207SOL    HW280461   2.030   3.176   3.727
26208SOL     OW80462   0.501  13.637  10.418
26208SOL    HW180463   0.508  13.732  10.421
26208SOL    HW280464   0.577  13.606  10.467
26209SOL     OW80465   5.023   7.354  10.562
26209SOL    HW180466   4.985   7.389  10.642
26209SOL    HW280467   5.111   7.391  10.559
26210SOL     OW80468  11.842   5.896   2.766
26210SOL    HW180469  11.806   5.961   2.706
26210SOL    HW280470  11.810   5.812   2.733
26211SOL     OW80471   6.217  10.058   0.069
26211SOL    HW180472   6.151   9.989   0.069
26211SOL    HW280473   6.217  10.092  14.854
26212SOL     OW80474   7.101   1.678   8.232
26212SOL    HW180475   7.114   1.771   8.250
26212SOL    HW280476   7.060   1.675   8.145
26213SOL     OW80477   0.210  12.998  11.912
26213SOL    HW180478   0.194  13.006  11.818
26213SOL    HW280479   0.289  13.049  11.927
26214SOL     OW80480  12.648  11.261  10.169
26214SOL    HW180481  12.712  11.330  10.153
26214SOL    HW280482  12.700  11.180  10.170
26215SOL     OW80483   9.991  14.518   6.773
26215SOL    HW180484   9.999  14.536   6.680
26215SOL    HW280485  10.012  14.425   6.782
26216SOL     OW80486   6.447   8.689   5.790
26216SOL    HW180487   6.362   8.657   5.759
26216SOL    HW280488   6.427   8.774   5.829
26217SOL     OW80489   9.496   5.594  11.235
26217SOL    HW180490   9.478   5.544  11.155
26217SOL    HW280491   9.588   5.621  11.226
26218SOL     OW80492   0.236   4.947   6.316
26218SOL    HW180493   0.196   5.016   6.368
26218SOL    HW280494   0.163   4.890   6.291
26219SOL     OW80495   9.976  12.795  11.821
26219SOL    HW180496   9.994  12.884  11.790
26219SOL    HW280497  10.033  12.785  11.898
26220SOL     OW80498   7.387   3.355   8.707
26220SOL    HW180499   7.325   3.428   8.712
26220SOL    HW280500   7.372   3.306   8.788
26221SOL     OW80501  10.701   0.778  13.634
26221SOL    HW180502  10.632   0.750  13.574
26221SOL    HW280503  10.658   0.843  13.690
26222SOL     OW80504  12.009   0.224   3.927
26222SOL    HW180505  11.963   0.288   3.872
26222SOL    HW280506  12.046   0.162   3.864
26223SOL     OW80507  12.970  13.377   4.385
26223SOL    HW180508  12.921  13.400   4.463
26223SOL    HW280509  12.993  13.460   4.344
26224SOL     OW80510   0.515   7.539   2.202
26224SOL    HW180511   0.529   7.460   2.150
26224SOL    HW280512   0.459   7.594   2.147
26225SOL     OW80513   8.698   8.736   1.089
26225SOL    HW180514   8.722   8.656   1.043
26225SOL    HW280515   8.619   8.713   1.138
26226SOL     OW80516  11.771   5.333   1.533
26226SOL    HW180517  11.773   5.366   1.443
26226SOL    HW280518  11.810   5.246   1.528
26227SOL     OW80519   3.469   3.054   6.287
26227SOL    HW180520   3.538   3.101   6.240
26227SOL    HW280521   3.481   2.962   6.261
26228SOL     OW80522   4.617   5.365  12.369
26228SOL    HW180523   4.594   5.272  12.373
26228SOL    HW280524   4.628   5.391  12.460
26229SOL     OW80525  12.480  13.261   7.193
26229SOL    HW180526  12.565  13.283   7.232
26229SOL    HW280527  12.426  13.234   7.267
26230SOL     OW80528  12.487   0.300  14.200
26230SOL    HW180529  12.400   0.314  14.162
26230SOL    HW280530  12.532   0.384  14.189
26231SOL     OW80531   8.916   9.136   1.373
26231SOL    HW180532   8.959   9.064   1.418
26231SOL    HW280533   8.842   9.095   1.328
26232SOL     OW80534   3.174   8.201   5.967
26232SOL    HW180535   3.268   8.181   5.971
26232SOL    HW280536   3.137   8.129   5.916
26233SOL     OW80537   9.112  11.743   4.455
26233SOL    HW180538   9.128  11.658   4.414
26233SOL    HW280539   9.194  11.792   4.442
26234SOL     OW80540   1.498  14.024   3.287
26234SOL    HW180541   1.587  14.027   3.252
26234SOL    HW280542   1.442  14.039   3.210
26235SOL     OW80543   0.251   5.276   7.018
26235SOL    HW180544   0.158   5.254   7.023
26235SOL    HW280545   0.263   5.342   7.087
26236SOL     OW80546   5.589   5.231   2.855
26236SOL    HW180547   5.505   5.222   2.809
26236SOL    HW280548   5.643   5.161   2.819
26237SOL     OW80549   1.257   5.585   7.680
26237SOL    HW180550   1.251   5.537   7.763
26237SOL    HW280551   1.334   5.641   7.690
26238SOL     OW80552   5.408   2.337   9.677
26238SOL    HW180553   5.460   2.412   9.646
26238SOL    HW280554   5.320   2.352   9.642
26239SOL     OW80555   3.725  13.694   1.554
26239SOL    HW180556   3.687  13.634   1.617
26239SOL    HW280557   3.659  13.763   1.544
26240SOL     OW80558  14.037   0.369   9.497
26240SOL    HW180559  13.955   0.331   9.528
26240SOL    HW280560  14.024   0.464   9.507
26241SOL     OW80561   2.691  10.240  13.658
26241SOL    HW180562   2.754  10.190  13.711
26241SOL    HW280563   2.729  10.328  13.655
26242SOL     OW80564  11.788   9.202   7.384
26242SOL    HW180565  11.859   9.218   7.447
26242SOL    HW280566  11.719   9.263   7.410
26243SOL     OW80567  13.307   7.274   0.918
26243SOL    HW180568  13.301   7.345   0.855
26243SOL    HW280569  13.226   7.279   0.969
26244SOL     OW80570   6.195   7.931   4.821
26244SOL    HW180571   6.104   7.956   4.806
26244SOL    HW280572   6.212   7.863   4.756
26245SOL     OW80573   0.144   9.786   7.886
26245SOL    HW180574   0.207   9.786   7.814
26245SOL    HW280575   0.198   9.782   7.965
26246SOL     OW80576   4.492  14.379   8.495
26246SOL    HW180577   4.419  14.422   8.539
26246SOL    HW280578   4.570  14.425   8.527
26247SOL     OW80579  11.913   4.324   5.090
26247SOL    HW180580  11.918   4.406   5.140
26247SOL    HW280581  11.977   4.267   5.133
26248SOL     OW80582   1.416   6.055  14.722
26248SOL    HW180583   1.427   5.972  14.768
26248SOL    HW280584   1.505   6.090  14.713
26249SOL     OW80585  11.124   0.083   7.536
26249SOL    HW180586  11.146   0.112   7.625
26249SOL    HW280587  11.122  14.862   7.541
26250SOL     OW80588   7.649   9.650   2.561
26250SOL    HW180589   7.617   9.617   2.645
26250SOL    HW280590   7.737   9.614   2.553
26251SOL     OW80591   9.224  12.140   8.313
26251SOL    HW180592   9.293  12.198   8.347
26251SOL    HW280593   9.260  12.052   8.324
26252SOL     OW80594   8.175   2.122   2.579
26252SOL    HW180595   8.112   2.161   2.639
26252SOL    HW280596   8.182   2.031   2.608
26253SOL     OW80597  14.068   2.063   5.604
26253SOL    HW180598  13.992   2.111   5.574
26253SOL    HW280599  14.070   2.077   5.699
26254SOL     OW80600   0.038   0.115   8.980
26254SOL    HW180601   0.007   0.205   8.975
26254SOL    HW280602   0.071   0.096   8.892
26255SOL     OW80603   6.712   8.897   6.613
26255SOL    HW180604   6.732   8.812   6.652
26255SOL    HW280605   6.796   8.932   6.584
26256SOL     OW80606   8.568  10.339  12.502
26256SOL    HW180607   8.492  10.302  12.458
26256SOL    HW280608   8.543  10.428  12.525
26257SOL     OW80609   3.525   4.288   9.631
26257SOL    HW180610   3.530   4.196   9.658
26257SOL    HW280611   3.438   4.298   9.594
26258SOL     OW80612   4.373   5.417   3.255
26258SOL    HW180613   4.386   5.493   3.311
26258SOL    HW280614   4.323   5.355   3.309
26259SOL     OW80615   6.587   1.521   8.573
26259SOL    HW180616   6.589   1.587   8.505
26259SOL    HW280617   6.494   1.497   8.580
26260SOL     OW80618  11.819   5.719   4.950
26260SOL    HW180619  11.746   5.728   4.889
26260SOL    HW280620  11.856   5.807   4.956
26261SOL     OW80621   7.532   6.321   4.468
26261SOL    HW180622   7.539   6.395   4.529
26261SOL    HW280623   7.579   6.250   4.510
26262SOL     OW80624   8.266   8.156   4.247
26262SOL    HW180625   8.264   8.133   4.340
26262SOL    HW280626   8.355   8.137   4.220
26263SOL     OW80627  13.962   9.131  10.568
26263SOL    HW180628  13.986   9.041  10.589
26263SOL    HW280629  14.040   9.182  10.587
26264SOL     OW80630   3.506  13.676  13.110
26264SOL    HW180631   3.597  13.695  13.088
26264SOL    HW280632   3.478  13.610  13.047
26265SOL     OW80633  12.267   7.187  13.460
26265SOL    HW180634  12.189   7.194  13.515
26265SOL    HW280635  12.293   7.095  13.467
26266SOL     OW80636   8.343   7.982  13.463
26266SOL    HW180637   8.314   7.895  13.438
26266SOL    HW280638   8.436   7.972  13.483
26267SOL     OW80639   0.356   5.621  13.900
26267SOL    HW180640   0.299   5.676  13.847
26267SOL    HW280641   0.422   5.680  13.934
26268SOL     OW80642  10.304  11.010  10.482
26268SOL    HW180643  10.217  11.046  10.467
26268SOL    HW280644  10.363  11.085  10.472
26269SOL     OW80645   7.026   1.260   6.016
26269SOL    HW180646   6.957   1.242   5.952
26269SOL    HW280647   7.074   1.334   5.980
26270SOL     OW80648   1.129   9.043   2.629
26270SOL    HW180649   1.088   8.987   2.563
26270SOL    HW280650   1.065   9.111   2.647
26271SOL     OW80651  10.572  13.566   2.458
26271SOL    HW180652  10.619  13.500   2.509
26271SOL    HW280653  10.597  13.549   2.367
26272SOL     OW80654   9.052   2.679   0.302
26272SOL    HW180655   8.961   2.705   0.297
26272SOL    HW280656   9.058   2.624   0.380
26273SOL     OW80657  11.626  13.603  14.612
26273SOL    HW180658  11.705  13.551  14.628
26273SOL    HW280659  11.636  13.635  14.523
26274SOL     OW80660  13.662  12.094  13.745
26274SOL    HW180661  13.604  12.018  13.734
26274SOL    HW280662  13.741  12.058  13.784
26275SOL     OW80663   4.485  10.265   9.757
26275SOL    HW180664   4.481  10.246   9.663
26275SOL    HW280665   4.395  10.290   9.780
26276SOL     OW80666  12.391   5.260   1.425
26276SOL    HW180667  12.389   5.356   1.427
26276SOL    HW280668  12.301   5.234   1.442
26277SOL     OW80669  11.688   5.720   5.480
26277SOL    HW180670  11.691   5.697   5.387
26277SOL    HW280671  11.654   5.809   5.481
26278SOL     OW80672  12.517  13.003  11.279
26278SOL    HW180673  12.585  13.069  11.270
26278SOL    HW280674  12.535  12.940  11.209
26279SOL     OW80675   1.931   1.837   2.543
26279SOL    HW180676   1.889   1.844   2.629
26279SOL    HW280677   1.877   1.776   2.494
26280SOL     OW80678  10.746  14.823   3.150
26280SOL    HW180679  10.700  14.831   3.066
26280SOL    HW280680  10.743  14.730   3.170
26281SOL     OW80681   8.813  12.116  13.482
26281SOL    HW180682   8.790  12.037  13.433
26281SOL    HW280683   8.864  12.085  13.556
26282SOL     OW80684   8.406   0.442  10.706
26282SOL    HW180685   8.343   0.475  10.642
26282SOL    HW280686   8.434   0.520  10.754
26283SOL     OW80687   5.712   3.625   4.523
26283SOL    HW180688   5.648   3.674   4.472
26283SOL    HW280689   5.676   3.536   4.527
26284SOL     OW80690   6.785   6.297  14.695
26284SOL    HW180691   6.843   6.314  14.769
26284SOL    HW280692   6.823   6.220  14.652
26285SOL     OW80693   4.672   7.102   1.499
26285SOL    HW180694   4.715   7.021   1.528
26285SOL    HW280695   4.630   7.136   1.578
26286SOL     OW80696   7.059   6.073  11.080
26286SOL    HW180697   7.042   6.127  11.002
26286SOL    HW280698   6.973   6.065  11.122
26287SOL     OW80699   7.031  13.061   2.275
26287SOL    HW180700   7.077  13.066   2.359
26287SOL    HW280701   6.939  13.075   2.298
26288SOL     OW80702   1.746   8.724   3.813
26288SOL    HW180703   1.834   8.703   3.844
26288SOL    HW280704   1.731   8.664   3.740
26289SOL     OW80705   5.338   3.634   1.731
26289SOL    HW180706   5.283   3.680   1.668
26289SOL    HW280707   5.304   3.544   1.731
26290SOL     OW80708   0.469   9.295  14.335
26290SOL    HW180709   0.563   9.297  14.318
26290SOL    HW280710   0.429   9.333  14.257
26291SOL     OW80711   7.076  11.209  12.871
26291SOL    HW180712   7.035  11.199  12.785
26291SOL    HW280713   7.135  11.135  12.879
26292SOL     OW80714   9.831   3.654   1.429
26292SOL    HW180715   9.920   3.667   1.464
26292SOL    HW280716   9.781   3.728   1.463
26293SOL     OW80717   7.984  12.537   0.012
26293SOL    HW180718   7.901  12.523   0.058
26293SOL    HW280719   8.012  12.449  14.861
26294SOL     OW80720   7.894   5.092   9.652
26294SOL    HW180721   7.851   5.177   9.667
26294SOL    HW280722   7.987   5.108   9.668
26295SOL     OW80723   3.040  11.144  12.547
26295SOL    HW180724   3.097  11.181  12.480
26295SOL    HW280725   2.984  11.217  12.574
26296SOL     OW80726   2.415   2.459  14.818
26296SOL    HW180727   2.384   2.401  14.749
26296SOL    HW280728   2.447   2.401   0.013
26297SOL     OW80729   7.647   3.413   7.279
26297SOL    HW180730   7.680   3.376   7.197
26297SOL    HW280731   7.552   3.409   7.271
26298SOL     OW80732  12.812  10.385   7.727
26298SOL    HW180733  12.826  10.355   7.638
26298SOL    HW280734  12.775  10.309   7.773
26299SOL     OW80735  13.111   1.922  11.843
26299SOL    HW180736  13.206   1.916  11.826
26299SOL    HW280737  13.094   1.852  11.906
26300SOL     OW80738   6.778  12.442   3.732
26300SOL    HW180739   6.831  12.511   3.772
26300SOL    HW280740   6.841  12.383   3.691
26301SOL     OW80741  10.561  10.988   5.547
26301SOL    HW180742  10.494  11.056   5.546
26301SOL    HW280743  10.636  11.028   5.501
26302SOL     OW80744  11.741   6.498   0.204
26302SOL    HW180745  11.734   6.490   0.299
26302SOL    HW280746  11.685   6.428   0.170
26303SOL     OW80747   5.320   3.253   6.299
26303SOL    HW180748   5.286   3.340   6.318
26303SOL    HW280749   5.278   3.196   6.363
26304SOL     OW80750  11.647   9.785  11.859
26304SOL    HW180751  11.682   9.852  11.919
26304SOL    HW280752  11.676   9.702  11.897
26305SOL     OW80753   7.946  13.184   6.426
26305SOL    HW180754   7.865  13.232   6.413
26305SOL    HW280755   8.015  13.251   6.428
26306SOL     OW80756   6.710   3.279  13.121
26306SOL    HW180757   6.739   3.306  13.034
26306SOL    HW280758   6.758   3.336  13.181
26307SOL     OW80759  13.364   6.498  11.781
26307SOL    HW180760  13.454   6.495  11.748
26307SOL    HW280761  13.316   6.437  11.724
26308SOL     OW80762   0.041   1.462   2.078
26308SOL    HW180763   0.037   1.436   2.170
26308SOL    HW280764  14.826   1.489   2.056
26309SOL     OW80765   0.435   0.434   7.410
26309SOL    HW180766   0.388   0.504   7.365
26309SOL    HW280767   0.377   0.358   7.403
26310SOL     OW80768   9.830   5.374  14.708
26310SOL    HW180769   9.851   5.411  14.794
26310SOL    HW280770   9.746   5.413  14.684
26311SOL     OW80771  12.887   7.888  10.631
26311SOL    HW180772  12.926   7.849  10.709
26311SOL    HW280773  12.962   7.909  10.575
26312SOL     OW80774   3.567   0.267   7.431
26312SOL    HW180775   3.526   0.347   7.399
26312SOL    HW280776   3.652   0.265   7.388
26313SOL     OW80777  14.259   3.042   5.163
26313SOL    HW180778  14.224   3.036   5.074
26313SOL    HW280779  14.234   3.129   5.193
26314SOL     OW80780   5.007   0.787   8.494
26314SOL    HW180781   4.954   0.825   8.564
26314SOL    HW280782   5.079   0.849   8.481
26315SOL     OW80783   2.314   7.445  10.592
26315SOL    HW180784   2.406   7.439  10.565
26315SOL    HW280785   2.292   7.537  10.583
26316SOL     OW80786   4.119  11.789   5.438
26316SOL    HW180787   4.055  11.728   5.476
26316SOL    HW280788   4.079  11.875   5.448
26317SOL     OW80789   4.034   2.934   6.633
26317SOL    HW180790   3.943   2.902   6.633
26317SOL    HW280791   4.058   2.935   6.726
26318SOL     OW80792   7.470   0.045  12.533
26318SOL    HW180793   7.480  14.825  12.551
26318SOL    HW280794   7.537   0.087  12.587
26319SOL     OW80795   0.076  12.456   7.779
26319SOL    HW180796   0.045  12.519   7.713
26319SOL    HW280797   0.146  12.503   7.825
26320SOL     OW80798  10.599   0.415  13.788
26320SOL    HW180799  10.620   0.335  13.739
26320SOL    HW280800  10.600   0.484  13.721
26321SOL     OW80801  12.793   5.893  10.305
26321SOL    HW180802  12.808   5.831  10.234
26321SOL    HW280803  12.810   5.979  10.267
26322SOL     OW80804   0.384  10.995   0.183
26322SOL    HW180805   0.360  10.967   0.095
26322SOL    HW280806   0.470  10.957   0.198
26323SOL     OW80807  10.429   0.103   6.060
26323SOL    HW180808  10.347   0.140   6.030
26323SOL    HW280809  10.467   0.169   6.118
26324SOL     OW80810  11.780  11.904   4.662
26324SOL    HW180811  11.745  11.841   4.724
26324SOL    HW280812  11.744  11.988   4.689
26325SOL     OW80813   2.049   1.369  10.024
26325SOL    HW180814   1.964   1.410  10.041
26325SOL    HW280815   2.110   1.443  10.021
26326SOL     OW80816   4.774  12.933   2.184
26326SOL    HW180817   4.852  12.983   2.165
26326SOL    HW280818   4.735  12.977   2.260
26327SOL     OW80819   5.603   2.378  11.469
26327SOL    HW180820   5.511   2.357  11.456
26327SOL    HW280821   5.631   2.418  11.387
26328SOL     OW80822   2.821   6.841   4.632
26328SOL    HW180823   2.868   6.870   4.711
26328SOL    HW280824   2.879   6.774   4.594
26329SOL     OW80825  10.825   5.964   0.465
26329SOL    HW180826  10.918   5.965   0.441
26329SOL    HW280827  10.814   5.883   0.515
26330SOL     OW80828   1.939   5.452   6.776
26330SOL    HW180829   2.001   5.486   6.841
26330SOL    HW280830   1.893   5.382   6.821
26331SOL     OW80831   0.593   1.814   3.550
26331SOL    HW180832   0.583   1.854   3.637
26331SOL    HW280833   0.652   1.874   3.504
26332SOL     OW80834   2.682   4.405   1.560
26332SOL    HW180835   2.715   4.369   1.478
26332SOL    HW280836   2.754   4.391   1.622
26333SOL     OW80837   3.262   4.960   6.930
26333SOL    HW180838   3.200   4.932   6.864
26333SOL    HW280839   3.283   5.050   6.907
26334SOL     OW80840   0.834   1.864  13.461
26334SOL    HW180841   0.910   1.806  13.464
26334SOL    HW280842   0.795   1.847  13.375
26335SOL     OW80843   7.168  12.034  13.363
26335SOL    HW180844   7.203  11.950  13.391
26335SOL    HW280845   7.246  12.086  13.342
26336SOL     OW80846   1.136   6.230   2.597
26336SOL    HW180847   1.073   6.269   2.536
26336SOL    HW280848   1.090   6.154   2.633
26337SOL     OW80849  10.353   0.595   7.474
26337SOL    HW180850  10.277   0.602   7.416
26337SOL    HW280851  10.316   0.597   7.563
26338SOL     OW80852  10.243   6.355   9.156
26338SOL    HW180853  10.176   6.403   9.204
26338SOL    HW280854  10.230   6.263   9.180
26339SOL     OW80855   4.964  10.229   5.512
26339SOL    HW180856   5.060  10.234   5.512
26339SOL    HW280857   4.942  10.188   5.596
26340SOL     OW80858   3.232  11.392   5.653
26340SOL    HW180859   3.138  11.380   5.643
26340SOL    HW280860   3.242  11.483   5.683
26341SOL     OW80861  12.758   9.657  13.684
26341SOL    HW180862  12.739   9.712  13.760
26341SOL    HW280863  12.689   9.590  13.686
26342SOL     OW80864   6.561   5.910  11.227
26342SOL    HW180865   6.494   5.842  11.215
26342SOL    HW280866   6.604   5.916  11.142
26343SOL     OW80867   9.297   2.225  14.112
26343SOL    HW180868   9.286   2.130  14.110
26343SOL    HW280869   9.232   2.259  14.051
26344SOL     OW80870   9.251  11.736  10.978
26344SOL    HW180871   9.227  11.668  10.914
26344SOL    HW280872   9.167  11.765  11.015
26345SOL     OW80873   6.206   6.388   9.433
26345SOL    HW180874   6.292   6.349   9.448
26345SOL    HW280875   6.161   6.379   9.517
26346SOL     OW80876   1.511   8.994   7.645
26346SOL    HW180877   1.416   8.981   7.640
26346SOL    HW280878   1.530   9.062   7.581
26347SOL     OW80879   4.810   6.344  14.765
26347SOL    HW180880   4.813   6.405  14.691
26347SOL    HW280881   4.795   6.258  14.725
26348SOL     OW80882   5.651  11.727  14.511
26348SOL    HW180883   5.560  11.711  14.536
26348SOL    HW280884   5.697  11.647  14.536
26349SOL     OW80885  12.596   3.583   1.384
26349SOL    HW180886  12.654   3.515   1.417
26349SOL    HW280887  12.603   3.577   1.289
26350SOL     OW80888   1.504   2.860  12.216
26350SOL    HW180889   1.412   2.865  12.191
26350SOL    HW280890   1.549   2.828  12.138
26351SOL     OW80891   0.330  13.672   1.310
26351SOL    HW180892   0.300  13.618   1.383
26351SOL    HW280893   0.308  13.762   1.335
26352SOL     OW80894  12.145   6.114   3.398
26352SOL    HW180895  12.177   6.024   3.391
26352SOL    HW280896  12.203   6.155   3.462
26353SOL     OW80897  12.038   7.522  13.707
26353SOL    HW180898  12.082   7.581  13.646
26353SOL    HW280899  11.945   7.534  13.688
26354SOL     OW80900   7.774  11.312   0.427
26354SOL    HW180901   7.746  11.263   0.350
26354SOL    HW280902   7.694  11.351   0.462
26355SOL     OW80903  13.608  11.002   8.651
26355SOL    HW180904  13.604  11.098   8.646
26355SOL    HW280905  13.523  10.974   8.618
26356SOL     OW80906  11.052   8.829   7.230
26356SOL    HW180907  11.072   8.911   7.276
26356SOL    HW280908  11.132   8.777   7.236
26357SOL     OW80909   5.363   9.131   8.861
26357SOL    HW180910   5.418   9.151   8.937
26357SOL    HW280911   5.352   9.215   8.816
26358SOL     OW80912   1.519   1.566   1.225
26358SOL    HW180913   1.512   1.534   1.315
26358SOL    HW280914   1.600   1.617   1.224
26359SOL     OW80915   0.964  14.768  13.654
26359SOL    HW180916   0.871  14.777  13.672
26359SOL    HW280917   0.994  14.856  13.632
26360SOL     OW80918   4.084   1.100   5.595
26360SOL    HW180919   4.178   1.115   5.581
26360SOL    HW280920   4.043   1.132   5.515
26361SOL     OW80921  13.786   3.892   0.417
26361SOL    HW180922  13.795   3.912   0.510
26361SOL    HW280923  13.828   3.966   0.372
26362SOL     OW80924  10.169   7.580   4.456
26362SOL    HW180925  10.129   7.661   4.489
26362SOL    HW280926  10.213   7.605   4.375
26363SOL     OW80927   3.136   1.148   5.489
26363SOL    HW180928   3.142   1.095   5.409
26363SOL    HW280929   3.159   1.236   5.460
26364SOL     OW80930   5.476  14.698  13.095
26364SOL    HW180931   5.551  14.642  13.074
26364SOL    HW280932   5.400  14.641  13.090
26365SOL     OW80933  11.092   6.367  12.700
26365SOL    HW180934  11.153   6.294  12.688
26365SOL    HW280935  11.069   6.394  12.611
26366SOL     OW80936  13.012  10.400   5.660
26366SOL    HW180937  12.989  10.492   5.673
26366SOL    HW280938  12.986  10.381   5.570
26367SOL     OW80939   2.379  14.612   4.145
26367SOL    HW180940   2.420  14.558   4.077
26367SOL    HW280941   2.311  14.661   4.099
26368SOL     OW80942  10.796   8.532   9.174
26368SOL    HW180943  10.742   8.476   9.117
26368SOL    HW280944  10.849   8.471   9.225
26369SOL     OW80945  11.211  12.488   0.140
26369SOL    HW180946  11.307  12.494   0.148
26369SOL    HW280947  11.194  12.499   0.047
26370SOL     OW80948  11.679   8.771   9.960
26370SOL    HW180949  11.651   8.710  10.029
26370SOL    HW280950  11.717   8.715   9.893
26371SOL     OW80951   3.642   9.777   9.163
26371SOL    HW180952   3.645   9.790   9.068
26371SOL    HW280953   3.550   9.792   9.186
26372SOL     OW80954   2.135   6.657  13.515
26372SOL    HW180955   2.206   6.605  13.479
26372SOL    HW280956   2.059   6.635  13.461
26373SOL     OW80957   7.064   5.696   7.020
26373SOL    HW180958   7.048   5.780   6.976
26373SOL    HW280959   7.065   5.631   6.950
26374SOL     OW80960   5.236   5.286  11.404
26374SOL    HW180961   5.267   5.196  11.416
26374SOL    HW280962   5.240   5.300  11.309
26375SOL     OW80963   1.777  11.284  13.774
26375SOL    HW180964   1.709  11.349  13.794
26375SOL    HW280965   1.859  11.332  13.781
26376SOL     OW80966   6.900  13.594   6.180
26376SOL    HW180967   6.977  13.649   6.166
26376SOL    HW280968   6.843  13.646   6.237
26377SOL     OW80969   7.511   2.601   2.691
26377SOL    HW180970   7.419   2.578   2.677
26377SOL    HW280971   7.559   2.521   2.666
26378SOL     OW80972   8.450   4.513   2.591
26378SOL    HW180973   8.461   4.447   2.659
26378SOL    HW280974   8.416   4.465   2.515
26379SOL     OW80975   3.913   5.323   5.793
26379SOL    HW180976   3.817   5.325   5.786
26379SOL    HW280977   3.930   5.279   5.877
26380SOL     OW80978  10.557   6.733  13.154
26380SOL    HW180979  10.611   6.812  13.146
26380SOL    HW280980  10.476   6.756  13.108
26381SOL     OW80981   9.895   7.985  13.549
26381SOL    HW180982   9.932   8.055  13.495
26381SOL    HW280983   9.800   7.996  13.540
26382SOL     OW80984   8.867   1.594  14.450
26382SOL    HW180985   8.919   1.583  14.529
26382SOL    HW280986   8.915   1.547  14.383
26383SOL     OW80987   3.863  13.488   1.957
26383SOL    HW180988   3.796  13.457   1.896
26383SOL    HW280989   3.819  13.555   2.009
26384SOL     OW80990   9.471  10.375   6.438
26384SOL    HW180991   9.449  10.339   6.352
26384SOL    HW280992   9.545  10.323   6.467
26385SOL     OW80993   3.987   0.093  14.114
26385SOL    HW180994   3.935   0.014  14.134
26385SOL    HW280995   3.987   0.096  14.018
26386SOL     OW80996   6.741   6.270   2.562
26386SOL    HW180997   6.648   6.271   2.539
26386SOL    HW280998   6.743   6.235   2.651
26387SOL     OW80999   0.931   0.229   2.519
26387SOL    HW181000   0.900   0.162   2.458
26387SOL    HW281001   0.905   0.312   2.479
26388SOL     OW81002   5.305  14.285  14.075
26388SOL    HW181003   5.249  14.346  14.123
26388SOL    HW281004   5.308  14.207  14.130
26389SOL     OW81005  14.388  11.663   8.320
26389SOL    HW181006  14.463  11.657   8.379
26389SOL    HW281007  14.324  11.715   8.367
26390SOL     OW81008   8.911   0.328   6.107
26390SOL    HW181009   8.868   0.282   6.179
26390SOL    HW281010   8.905   0.421   6.131
26391SOL     OW81011  11.284  11.312  12.954
26391SOL    HW181012  11.216  11.379  12.964
26391SOL    HW281013  11.239  11.230  12.972
26392SOL     OW81014   4.943   4.518   1.174
26392SOL    HW181015   4.900   4.602   1.154
26392SOL    HW281016   4.943   4.471   1.090
26393SOL     OW81017   4.690   4.991   9.102
26393SOL    HW181018   4.672   4.900   9.121
26393SOL    HW281019   4.747   4.989   9.025
26394SOL     OW81020   2.474   7.245  14.731
26394SOL    HW181021   2.548   7.186  14.716
26394SOL    HW281022   2.515   7.328  14.756
26395SOL     OW81023  13.826  10.575   5.520
26395SOL    HW181024  13.910  10.554   5.478
26395SOL    HW281025  13.768  10.504   5.494
26396SOL     OW81026  11.175   6.423  14.261
26396SOL    HW181027  11.115   6.417  14.336
26396SOL    HW281028  11.124   6.467  14.193
26397SOL     OW81029   0.537  14.634   0.273
26397SOL    HW181030   0.487  14.689   0.333
26397SOL    HW281031   0.500  14.653   0.187
26398SOL     OW81032   1.739   0.695  12.737
26398SOL    HW181033   1.727   0.637  12.812
26398SOL    HW281034   1.815   0.749  12.761
26399SOL     OW81035   1.326   0.953   1.684
26399SOL    HW181036   1.419   0.975   1.678
26399SOL    HW281037   1.324   0.875   1.739
26400SOL     OW81038   5.402   0.040   9.669
26400SOL    HW181039   5.397  14.818   9.669
26400SOL    HW281040   5.337   0.067   9.733
26401SOL     OW81041  14.666   3.861   3.659
26401SOL    HW181042  14.624   3.777   3.638
26401SOL    HW281043  14.597   3.912   3.702
26402SOL     OW81044   7.578   4.642  10.561
26402SOL    HW181045   7.623   4.606  10.637
26402SOL    HW281046   7.530   4.568  10.524
26403SOL     OW81047  12.441   1.349  14.707
26403SOL    HW181048  12.457   1.405  14.631
26403SOL    HW281049  12.352   1.370  14.735
26404SOL     OW81050   7.505   4.492   4.440
26404SOL    HW181051   7.478   4.583   4.427
26404SOL    HW281052   7.425   4.446   4.466
26405SOL     OW81053   9.157   9.434   8.873
26405SOL    HW181054   9.156   9.373   8.800
26405SOL    HW281055   9.208   9.509   8.842
26406SOL     OW81056   6.950   0.173   3.155
26406SOL    HW181057   6.894   0.106   3.195
26406SOL    HW281058   7.016   0.192   3.222
26407SOL     OW81059   1.531   5.769  13.555
26407SOL    HW181060   1.527   5.725  13.470
26407SOL    HW281061   1.458   5.831  13.553
26408SOL     OW81062  14.052   1.617   2.271
26408SOL    HW181063  13.995   1.692   2.255
26408SOL    HW281064  14.117   1.649   2.333
26409SOL     OW81065  13.654   2.670   8.259
26409SOL    HW181066  13.602   2.692   8.181
26409SOL    HW281067  13.631   2.579   8.277
26410SOL     OW81068   0.843  14.185   8.199
26410SOL    HW181069   0.872  14.275   8.187
26410SOL    HW281070   0.847  14.170   8.293
26411SOL     OW81071  13.225   7.986   0.815
26411SOL    HW181072  13.179   8.034   0.746
26411SOL    HW281073  13.276   7.919   0.768
26412SOL     OW81074  12.911  10.715  10.197
26412SOL    HW181075  12.833  10.771  10.191
26412SOL    HW281076  12.877  10.626  10.196
26413SOL     OW81077  10.305   5.781   2.835
26413SOL    HW181078  10.316   5.765   2.928
26413SOL    HW281079  10.390   5.757   2.796
26414SOL     OW81080  13.343   6.132  11.028
26414SOL    HW181081  13.434   6.104  11.024
26414SOL    HW281082  13.316   6.111  11.118
26415SOL     OW81083  13.033   4.782   0.796
26415SOL    HW181084  12.994   4.863   0.763
26415SOL    HW281085  13.081   4.809   0.875
26416SOL     OW81086  11.981   8.421   3.394
26416SOL    HW181087  12.009   8.512   3.383
26416SOL    HW281088  12.002   8.400   3.485
26417SOL     OW81089   7.530   4.355   2.670
26417SOL    HW181090   7.501   4.265   2.656
26417SOL    HW281091   7.576   4.352   2.755
26418SOL     OW81092   2.877  10.810  13.011
26418SOL    HW181093   2.787  10.841  13.026
26418SOL    HW281094   2.868  10.716  12.996
26419SOL     OW81095   9.127   2.417   0.168
26419SOL    HW181096   9.143   2.510   0.148
26419SOL    HW281097   9.063   2.390   0.103
26420SOL     OW81098   6.908   3.456   4.779
26420SOL    HW181099   6.948   3.537   4.811
26420SOL    HW281100   6.891   3.472   4.686
26421SOL     OW81101   9.532   1.153   5.611
26421SOL    HW181102   9.557   1.061   5.605
26421SOL    HW281103   9.489   1.161   5.697
26422SOL     OW81104  12.770   8.109  11.177
26422SOL    HW181105  12.774   8.014  11.183
26422SOL    HW281106  12.681   8.128  11.149
26423SOL     OW81107  10.923   4.913   8.911
26423SOL    HW181108  11.010   4.941   8.938
26423SOL    HW281109  10.872   4.995   8.907
26424SOL     OW81110   8.070  12.164  12.515
26424SOL    HW181111   8.069  12.074  12.483
26424SOL    HW281112   8.137  12.165  12.584
26425SOL     OW81113   1.420   5.794   1.282
26425SOL    HW181114   1.437   5.700   1.282
26425SOL    HW281115   1.470   5.828   1.357
26426SOL     OW81116  13.502   8.626   5.471
26426SOL    HW181117  13.581   8.606   5.421
26426SOL    HW281118  13.534   8.662   5.553
26427SOL     OW81119   5.947   6.617   8.380
26427SOL    HW181120   5.907   6.692   8.336
26427SOL    HW281121   5.975   6.559   8.309
26428SOL     OW81122   6.277   5.630  14.133
26428SOL    HW181123   6.256   5.540  14.157
26428SOL    HW281124   6.328   5.623  14.052
26429SOL     OW81125  11.555   9.408  13.021
26429SOL    HW181126  11.467   9.371  13.026
26429SOL    HW281127  11.595   9.385  13.105
26430SOL     OW81128   6.738   4.158  11.412
26430SOL    HW181129   6.778   4.240  11.384
26430SOL    HW281130   6.672   4.185  11.476
26431SOL     OW81131  12.262   1.827   6.412
26431SOL    HW181132  12.184   1.854   6.462
26431SOL    HW281133  12.281   1.901   6.355
26432SOL     OW81134   4.620   6.345   6.113
26432SOL    HW181135   4.701   6.366   6.160
26432SOL    HW281136   4.638   6.262   6.070
26433SOL     OW81137  11.862   1.524   7.211
26433SOL    HW181138  11.771   1.512   7.237
26433SOL    HW281139  11.858   1.541   7.116
26434SOL     OW81140   2.327   7.178   8.201
26434SOL    HW181141   2.382   7.207   8.129
26434SOL    HW281142   2.333   7.249   8.265
26435SOL     OW81143   2.365   5.002  11.355
26435SOL    HW181144   2.338   5.047  11.274
26435SOL    HW281145   2.284   4.996  11.406
26436SOL     OW81146   2.737   8.562   6.594
26436SOL    HW181147   2.821   8.586   6.633
26436SOL    HW281148   2.695   8.645   6.572
26437SOL     OW81149   9.564   3.421  14.103
26437SOL    HW181150   9.543   3.420  14.009
26437SOL    HW281151   9.660   3.427  14.106
26438SOL     OW81152   3.952   1.265   7.799
26438SOL    HW181153   3.873   1.317   7.815
26438SOL    HW281154   3.946   1.239   7.707
26439SOL     OW81155  10.049  13.419   8.392
26439SOL    HW181156   9.999  13.341   8.416
26439SOL    HW281157  10.097  13.442   8.472
26440SOL     OW81158   1.604   2.104  12.216
26440SOL    HW181159   1.658   2.149  12.281
26440SOL    HW281160   1.649   2.021  12.201
26441SOL     OW81161  10.464   9.751   9.011
26441SOL    HW181162  10.542   9.711   9.047
26441SOL    HW281163  10.485   9.844   9.003
26442SOL     OW81164   8.485   3.885   3.753
26442SOL    HW181165   8.409   3.868   3.698
26442SOL    HW281166   8.520   3.969   3.721
26443SOL     OW81167  14.179   2.758  12.023
26443SOL    HW181168  14.213   2.818  12.089
26443SOL    HW281169  14.247   2.691  12.015
26444SOL     OW81170   1.871   4.297  11.523
26444SOL    HW181171   1.867   4.294  11.428
26444SOL    HW281172   1.954   4.256  11.546
26445SOL     OW81173  11.373   4.160   9.217
26445SOL    HW181174  11.315   4.209   9.275
26445SOL    HW281175  11.447   4.134   9.272
26446SOL     OW81176   8.033   4.290   3.568
26446SOL    HW181177   7.949   4.300   3.614
26446SOL    HW281178   8.028   4.351   3.495
26447SOL     OW81179   5.733  11.982   8.952
26447SOL    HW181180   5.710  11.949   8.865
26447SOL    HW281181   5.745  11.904   9.005
26448SOL     OW81182   5.001  10.295   4.310
26448SOL    HW181183   5.017  10.344   4.229
26448SOL    HW281184   5.087  10.260   4.335
26449SOL     OW81185  11.322   6.453  12.167
26449SOL    HW181186  11.349   6.541  12.141
26449SOL    HW281187  11.244   6.435  12.114
26450SOL     OW81188  11.048   1.322  13.441
26450SOL    HW181189  11.058   1.338  13.535
26450SOL    HW281190  11.096   1.394  13.399
26451SOL     OW81191   4.896   5.960   3.727
26451SOL    HW181192   4.965   6.006   3.775
26451SOL    HW281193   4.901   5.996   3.638
26452SOL     OW81194   9.119  11.687   0.106
26452SOL    HW181195   9.213  11.669   0.103
26452SOL    HW281196   9.113  11.778   0.136
26453SOL     OW81197   1.316   7.643  11.403
26453SOL    HW181198   1.286   7.610  11.318
26453SOL    HW281199   1.296   7.737  11.400
26454SOL     OW81200  13.512   4.855   1.739
26454SOL    HW181201  13.503   4.832   1.831
26454SOL    HW281202  13.558   4.781   1.700
26455SOL     OW81203  12.771   1.932   1.226
26455SOL    HW181204  12.776   2.023   1.257
26455SOL    HW281205  12.699   1.932   1.164
26456SOL     OW81206   5.912   3.167  14.129
26456SOL    HW181207   5.862   3.105  14.076
26456SOL    HW281208   5.970   3.112  14.182
26457SOL     OW81209  14.274  12.624   3.208
26457SOL    HW181210  14.187  12.584   3.210
26457SOL    HW281211  14.333  12.553   3.186
26458SOL     OW81212   0.544  10.664   4.204
26458SOL    HW181213   0.556  10.586   4.150
26458SOL    HW281214   0.609  10.726   4.171
26459SOL     OW81215  12.592   3.177   7.987
26459SOL    HW181216  12.517   3.228   7.957
26459SOL    HW281217  12.609   3.210   8.076
26460SOL     OW81218   1.191  10.767   3.454
26460SOL    HW181219   1.168  10.687   3.407
26460SOL    HW281220   1.173  10.838   3.393
26461SOL     OW81221   4.640   5.518   6.739
26461SOL    HW181222   4.609   5.605   6.712
26461SOL    HW281223   4.560   5.468   6.754
26462SOL     OW81224   8.863   6.594   9.381
26462SOL    HW181225   8.838   6.622   9.469
26462SOL    HW281226   8.841   6.669   9.325
26463SOL     OW81227   4.915   1.773  12.359
26463SOL    HW181228   4.987   1.770  12.297
26463SOL    HW281229   4.943   1.835  12.426
26464SOL     OW81230   8.632   4.306  12.654
26464SOL    HW181231   8.674   4.378  12.702
26464SOL    HW281232   8.660   4.319  12.563
26465SOL     OW81233   5.073  12.333  14.041
26465SOL    HW181234   5.112  12.390  13.975
26465SOL    HW281235   5.132  12.339  14.116
26466SOL     OW81236  12.441  11.384   0.765
26466SOL    HW181237  12.514  11.429   0.722
26466SOL    HW281238  12.453  11.292   0.742
26467SOL     OW81239   9.082  13.847   9.869
26467SOL    HW181240   9.117  13.790   9.800
26467SOL    HW281241   9.116  13.809   9.950
26468SOL     OW81242   2.351   6.139  10.777
26468SOL    HW181243   2.367   6.210  10.714
26468SOL    HW281244   2.265   6.159  10.814
26469SOL     OW81245   3.795   0.588   0.053
26469SOL    HW181246   3.813   0.532  14.852
26469SOL    HW281247   3.759   0.668   0.015
26470SOL     OW81248   2.948   3.395   4.991
26470SOL    HW181249   2.969   3.339   4.916
26470SOL    HW281250   2.900   3.468   4.953
26471SOL     OW81251   2.542   7.724   8.043
26471SOL    HW181252   2.557   7.776   7.964
26471SOL    HW281253   2.446   7.721   8.051
26472SOL     OW81254   0.838  11.171   3.756
26472SOL    HW181255   0.866  11.082   3.733
26472SOL    HW281256   0.764  11.189   3.698
26473SOL     OW81257   9.189  10.750  11.152
26473SOL    HW181258   9.132  10.718  11.082
26473SOL    HW281259   9.216  10.837  11.123
26474SOL     OW81260   4.346   6.454   9.547
26474SOL    HW181261   4.378   6.422   9.632
26474SOL    HW281262   4.392   6.536   9.533
26475SOL     OW81263   6.283   5.548   6.789
26475SOL    HW181264   6.355   5.604   6.816
26475SOL    HW281265   6.325   5.478   6.738
26476SOL     OW81266   6.787  12.942   6.178
26476SOL    HW181267   6.839  12.978   6.106
26476SOL    HW281268   6.729  12.878   6.136
26477SOL     OW81269  12.814   8.591  10.861
26477SOL    HW181270  12.867   8.665  10.831
26477SOL    HW281271  12.860   8.558  10.938
26478SOL     OW81272   0.602   7.207   0.812
26478SOL    HW181273   0.561   7.291   0.831
26478SOL    HW281274   0.585   7.192   0.719
26479SOL     OW81275   7.941  13.984  10.426
26479SOL    HW181276   7.903  14.031  10.352
26479SOL    HW281277   7.892  14.016  10.502
26480SOL     OW81278   0.917   8.689   9.416
26480SOL    HW181279   0.929   8.620   9.482
26480SOL    HW281280   0.971   8.662   9.342
26481SOL     OW81281  14.025  10.728  12.789
26481SOL    HW181282  14.021  10.699  12.698
26481SOL    HW281283  14.118  10.731  12.809
26482SOL     OW81284  12.751  13.727  13.191
26482SOL    HW181285  12.710  13.647  13.224
26482SOL    HW281286  12.814  13.696  13.126
26483SOL     OW81287  12.610  12.914   3.460
26483SOL    HW181288  12.615  12.998   3.506
26483SOL    HW281289  12.560  12.933   3.380
26484SOL     OW81290   5.343   4.498   7.922
26484SOL    HW181291   5.414   4.507   7.859
26484SOL    HW281292   5.308   4.587   7.932
26485SOL     OW81293   4.881  11.182  14.791
26485SOL    HW181294   4.805  11.184  14.849
26485SOL    HW281295   4.940  11.249  14.826
26486SOL     OW81296   9.780  13.078   6.808
26486SOL    HW181297   9.835  13.152   6.833
26486SOL    HW281298   9.726  13.061   6.886
26487SOL     OW81299  11.970   3.934  14.159
26487SOL    HW181300  12.048   3.892  14.123
26487SOL    HW281301  11.973   3.915  14.252
26488SOL     OW81302  13.718  13.184   8.916
26488SOL    HW181303  13.680  13.133   8.987
26488SOL    HW281304  13.812  13.180   8.932
26489SOL     OW81305   8.697   7.149   2.345
26489SOL    HW181306   8.741   7.090   2.284
26489SOL    HW281307   8.612   7.166   2.304
26490SOL     OW81308   7.249  12.414  14.838
26490SOL    HW181309   7.157  12.398  14.817
26490SOL    HW281310   7.290  12.434  14.754
26491SOL     OW81311   2.507   1.400   3.253
26491SOL    HW181312   2.489   1.313   3.217
26491SOL    HW281313   2.490   1.391   3.346
26492SOL     OW81314  13.863  10.866   6.327
26492SOL    HW181315  13.832  10.947   6.367
26492SOL    HW281316  13.912  10.894   6.249
26493SOL     OW81317   4.161   8.013   5.815
26493SOL    HW181318   4.189   8.104   5.803
26493SOL    HW281319   4.086   8.003   5.756
26494SOL     OW81320  13.786  11.506   0.535
26494SOL    HW181321  13.699  11.480   0.565
26494SOL    HW281322  13.773  11.594   0.499
26495SOL     OW81323   0.932   1.895  12.414
26495SOL    HW181324   0.883   1.886  12.332
26495SOL    HW281325   0.911   1.983  12.444
26496SOL     OW81326  11.846   0.680   1.519
26496SOL    HW181327  11.803   0.762   1.544
26496SOL    HW281328  11.851   0.629   1.600
26497SOL     OW81329   4.079   8.375   9.549
26497SOL    HW181330   4.168   8.382   9.586
26497SOL    HW281331   4.070   8.283   9.525
26498SOL     OW81332   5.728   5.736   2.593
26498SOL    HW181333   5.727   5.665   2.658
26498SOL    HW281334   5.636   5.763   2.586
26499SOL     OW81335   0.011  10.618   6.036
26499SOL    HW181336  14.802  10.610   6.083
26499SOL    HW281337  14.860  10.650   5.949
26500SOL     OW81338   8.085   0.635  11.435
26500SOL    HW181339   8.050   0.563  11.486
26500SOL    HW281340   8.024   0.646  11.362
26501SOL     OW81341   9.829  12.332  10.278
26501SOL    HW181342   9.788  12.282  10.207
26501SOL    HW281343   9.761  12.339  10.345
26502SOL     OW81344   4.811  11.776  10.051
26502SOL    HW181345   4.832  11.696  10.003
26502SOL    HW281346   4.807  11.749  10.143
26503SOL     OW81347   1.946  14.346   9.290
26503SOL    HW181348   1.938  14.342   9.195
26503SOL    HW281349   1.972  14.258   9.316
26504SOL     OW81350   3.661  10.291   6.264
26504SOL    HW181351   3.603  10.284   6.189
26504SOL    HW281352   3.735  10.342   6.232
26505SOL     OW81353  13.068   4.037   6.399
26505SOL    HW181354  13.012   4.023   6.475
26505SOL    HW281355  13.043   4.123   6.365
26506SOL     OW81356   4.352   1.994   5.856
26506SOL    HW181357   4.337   1.917   5.910
26506SOL    HW281358   4.410   2.050   5.908
26507SOL     OW81359   7.282   0.777   4.305
26507SOL    HW181360   7.294   0.737   4.392
26507SOL    HW281361   7.212   0.840   4.318
26508SOL     OW81362  11.260   2.594   3.746
26508SOL    HW181363  11.354   2.596   3.763
26508SOL    HW281364  11.222   2.560   3.827
26509SOL     OW81365   9.295   3.289  14.148
26509SOL    HW181366   9.237   3.349  14.196
26509SOL    HW281367   9.381   3.330  14.153
26510SOL     OW81368   1.483  11.232  10.328
26510SOL    HW181369   1.490  11.144  10.367
26510SOL    HW281370   1.479  11.216  10.234
26511SOL     OW81371   4.445  13.642   1.879
26511SOL    HW181372   4.481  13.567   1.831
26511SOL    HW281373   4.442  13.713   1.814
26512SOL     OW81374   3.523   9.948   4.679
26512SOL    HW181375   3.469   9.893   4.736
26512SOL    HW281376   3.543   9.892   4.604
26513SOL     OW81377   5.082   5.484  13.242
26513SOL    HW181378   5.100   5.403  13.290
26513SOL    HW281379   5.011   5.461  13.182
26514SOL     OW81380   6.219   7.109   3.369
26514SOL    HW181381   6.290   7.047   3.386
26514SOL    HW281382   6.140   7.064   3.398
26515SOL     OW81383   2.889   3.775  13.203
26515SOL    HW181384   2.825   3.739  13.264
26515SOL    HW281385   2.838   3.835  13.148
26516SOL     OW81386   0.107   4.852  13.607
26516SOL    HW181387   0.043   4.893  13.549
26516SOL    HW281388   0.191   4.865  13.563
26517SOL     OW81389   3.380   9.592   3.277
26517SOL    HW181390   3.416   9.509   3.243
26517SOL    HW281391   3.292   9.568   3.308
26518SOL     OW81392   3.641   5.151  10.642
26518SOL    HW181393   3.572   5.214  10.664
26518SOL    HW281394   3.719   5.205  10.628
26519SOL     OW81395  13.610  12.922   8.337
26519SOL    HW181396  13.701  12.890   8.339
26519SOL    HW281397  13.586  12.920   8.245
26520SOL     OW81398  11.865   8.097   7.501
26520SOL    HW181399  11.773   8.074   7.511
26520SOL    HW281400  11.870   8.139   7.415
26521SOL     OW81401  14.549   5.412   3.230
26521SOL    HW181402  14.619   5.363   3.272
26521SOL    HW281403  14.524   5.479   3.294
26522SOL     OW81404   0.854   8.384   6.475
26522SOL    HW181405   0.774   8.436   6.467
26522SOL    HW281406   0.913   8.438   6.528
26523SOL     OW81407   4.557  13.592  12.546
26523SOL    HW181408   4.639  13.564  12.507
26523SOL    HW281409   4.516  13.648  12.480
26524SOL     OW81410  11.018  14.537   1.809
26524SOL    HW181411  11.072  14.593   1.753
26524SOL    HW281412  10.961  14.490   1.748
26525SOL     OW81413  13.779  14.699   8.599
26525SOL    HW181414  13.823  14.709   8.515
26525SOL    HW281415  13.795  14.607   8.623
26526SOL     OW81416   5.787  11.344   0.315
26526SOL    HW181417   5.705  11.384   0.344
26526SOL    HW281418   5.821  11.301   0.394
26527SOL     OW81419   3.887   4.015   8.633
26527SOL    HW181420   3.840   3.934   8.611
26527SOL    HW281421   3.967   4.011   8.581
26528SOL     OW81422  10.001   5.927  11.988
26528SOL    HW181423   9.929   5.869  12.009
26528SOL    HW281424  10.032   5.959  12.073
26529SOL     OW81425  14.715  12.040   4.220
26529SOL    HW181426  14.683  12.123   4.258
26529SOL    HW281427  14.774  12.005   4.286
26530SOL     OW81428   8.415  12.373  14.721
26530SOL    HW181429   8.434  12.319  14.798
26530SOL    HW281430   8.375  12.452  14.756
26531SOL     OW81431   3.614   3.606   4.817
26531SOL    HW181432   3.565   3.617   4.899
26531SOL    HW281433   3.703   3.636   4.838
26532SOL     OW81434   1.701  11.655   9.087
26532SOL    HW181435   1.776  11.711   9.106
26532SOL    HW281436   1.722  11.571   9.128
26533SOL     OW81437   1.108   0.350   0.693
26533SOL    HW181438   1.180   0.288   0.701
26533SOL    HW281439   1.130   0.421   0.753
26534SOL     OW81440  10.465   3.372  10.541
26534SOL    HW181441  10.466   3.344  10.633
26534SOL    HW281442  10.555   3.398  10.523
26535SOL     OW81443  12.316   4.830   0.946
26535SOL    HW181444  12.255   4.834   0.873
26535SOL    HW281445  12.355   4.743   0.941
26536SOL     OW81446   2.622   5.041  10.388
26536SOL    HW181447   2.699   4.989  10.410
26536SOL    HW281448   2.589   5.001  10.308
26537SOL     OW81449   6.400   7.502   6.018
26537SOL    HW181450   6.428   7.412   6.035
26537SOL    HW281451   6.480   7.554   6.023
26538SOL     OW81452   2.209   9.038   8.634
26538SOL    HW181453   2.118   9.034   8.661
26538SOL    HW281454   2.242   9.120   8.672
26539SOL     OW81455  10.370   0.188  11.311
26539SOL    HW181456  10.276   0.188  11.296
26539SOL    HW281457  10.383   0.250  11.383
26540SOL     OW81458   5.703  14.369   7.730
26540SOL    HW181459   5.769  14.310   7.692
26540SOL    HW281460   5.620  14.324   7.719
26541SOL     OW81461   0.795   9.865   8.234
26541SOL    HW181462   0.869   9.882   8.176
26541SOL    HW281463   0.819   9.907   8.316
26542SOL     OW81464   8.268   0.932  11.506
26542SOL    HW181465   8.201   0.940  11.437
26542SOL    HW281466   8.351   0.942  11.460
26543SOL     OW81467   8.875   3.033  11.863
26543SOL    HW181468   8.803   3.035  11.925
26543SOL    HW281469   8.954   3.038  11.916
26544SOL     OW81470   1.153   3.813   0.850
26544SOL    HW181471   1.184   3.804   0.940
26544SOL    HW281472   1.229   3.843   0.801
26545SOL     OW81473  11.851   2.719   7.490
26545SOL    HW181474  11.942   2.708   7.462
26545SOL    HW281475  11.806   2.640   7.458
26546SOL     OW81476   8.590  10.567   4.030
26546SOL    HW181477   8.602  10.551   4.124
26546SOL    HW281478   8.679  10.566   3.994
26547SOL     OW81479   0.257   7.383   4.268
26547SOL    HW181480   0.289   7.305   4.314
26547SOL    HW281481   0.304   7.382   4.184
26548SOL     OW81482  12.031   5.797   1.474
26548SOL    HW181483  12.017   5.715   1.521
26548SOL    HW281484  12.067   5.857   1.539
26549SOL     OW81485  10.405   1.333   4.629
26549SOL    HW181486  10.461   1.307   4.703
26549SOL    HW281487  10.369   1.418   4.656
26550SOL     OW81488   3.278  12.583   5.816
26550SOL    HW181489   3.265  12.656   5.877
26550SOL    HW281490   3.290  12.507   5.872
26551SOL     OW81491  11.839   8.507   2.096
26551SOL    HW181492  11.785   8.460   2.160
26551SOL    HW281493  11.855   8.443   2.027
26552SOL     OW81494   4.743   7.540   2.882
26552SOL    HW181495   4.656   7.571   2.909
26552SOL    HW281496   4.787   7.619   2.850
26553SOL     OW81497   3.078  11.580   7.838
26553SOL    HW181498   3.025  11.546   7.766
26553SOL    HW281499   3.169  11.562   7.812
26554SOL     OW81500   9.462   5.253   2.442
26554SOL    HW181501   9.408   5.242   2.520
26554SOL    HW281502   9.526   5.319   2.466
26555SOL     OW81503   1.378   1.058   6.305
26555SOL    HW181504   1.293   1.094   6.331
26555SOL    HW281505   1.408   1.008   6.382
26556SOL     OW81506   3.463   3.604   5.046
26556SOL    HW181507   3.389   3.556   5.085
26556SOL    HW281508   3.469   3.684   5.099
26557SOL     OW81509   1.312   5.640  10.252
26557SOL    HW181510   1.379   5.627  10.318
26557SOL    HW281511   1.241   5.685  10.298
26558SOL     OW81512   6.558   9.983   5.635
26558SOL    HW181513   6.650   9.979   5.609
26558SOL    HW281514   6.533  10.075   5.623
26559SOL     OW81515   7.752   5.965   9.593
26559SOL    HW181516   7.774   5.954   9.500
26559SOL    HW281517   7.712   6.052   9.598
26560SOL     OW81518   2.238  13.036   3.144
26560SOL    HW181519   2.319  13.073   3.110
26560SOL    HW281520   2.264  12.993   3.226
26561SOL     OW81521   0.622  12.740   9.566
26561SOL    HW181522   0.695  12.748   9.627
26561SOL    HW281523   0.555  12.798   9.600
26562SOL     OW81524   2.708  12.753   4.241
26562SOL    HW181525   2.791  12.732   4.198
26562SOL    HW281526   2.708  12.700   4.320
26563SOL     OW81527   1.168   9.417  12.763
26563SOL    HW181528   1.254   9.461  12.760
26563SOL    HW281529   1.105   9.488  12.774
26564SOL     OW81530  14.737  13.008  11.464
26564SOL    HW181531  14.662  12.950  11.452
26564SOL    HW281532  14.708  13.071  11.530
26565SOL     OW81533   5.910  12.463   3.103
26565SOL    HW181534   5.988  12.470   3.049
26565SOL    HW281535   5.893  12.552   3.134
26566SOL     OW81536   7.678   4.388   1.194
26566SOL    HW181537   7.703   4.377   1.103
26566SOL    HW281538   7.699   4.303   1.235
26567SOL     OW81539   0.989  13.529   4.091
26567SOL    HW181540   1.022  13.447   4.127
26567SOL    HW281541   0.899  13.509   4.064
26568SOL     OW81542   4.320  12.267  13.108
26568SOL    HW181543   4.335  12.312  13.191
26568SOL    HW281544   4.389  12.201  13.104
26569SOL     OW81545   3.688   1.223   3.288
26569SOL    HW181546   3.593   1.224   3.283
26569SOL    HW281547   3.715   1.312   3.265
26570SOL     OW81548   2.577   8.201   3.810
26570SOL    HW181549   2.602   8.121   3.857
26570SOL    HW281550   2.485   8.189   3.790
26571SOL     OW81551   1.395   7.145  13.987
26571SOL    HW181552   1.430   7.067  13.945
26571SOL    HW281553   1.404   7.214  13.921
26572SOL     OW81554   4.290  13.338   5.561
26572SOL    HW181555   4.246  13.419   5.587
26572SOL    HW281556   4.279  13.333   5.466
26573SOL     OW81557   5.632   2.469   0.828
26573SOL    HW181558   5.608   2.561   0.826
26573SOL    HW281559   5.605   2.434   0.743
26574SOL     OW81560   4.200  14.251   9.386
26574SOL    HW181561   4.118  14.258   9.435
26574SOL    HW281562   4.208  14.158   9.366
26575SOL     OW81563  14.155   3.010   8.306
26575SOL    HW181564  14.195   2.970   8.229
26575SOL    HW281565  14.062   2.992   8.297
26576SOL     OW81566  12.976   0.269   8.583
26576SOL    HW181567  13.040   0.258   8.513
26576SOL    HW281568  12.905   0.208   8.560
26577SOL     OW81569   4.957   8.518   1.517
26577SOL    HW181570   4.923   8.446   1.463
26577SOL    HW281571   4.881   8.572   1.535
26578SOL     OW81572   4.157   4.787   2.749
26578SOL    HW181573   4.194   4.839   2.677
26578SOL    HW281574   4.143   4.700   2.711
26579SOL     OW81575   7.504   6.253   8.581
26579SOL    HW181576   7.514   6.344   8.556
26579SOL    HW281577   7.591   6.225   8.609
26580SOL     OW81578   0.501  10.407   3.107
26580SOL    HW181579   0.448  10.403   3.027
26580SOL    HW281580   0.585  10.367   3.082
26581SOL     OW81581   3.456   4.296   3.674
26581SOL    HW181582   3.443   4.353   3.598
26581SOL    HW281583   3.514   4.227   3.641
26582SOL     OW81584  11.639   4.923   1.569
26582SOL    HW181585  11.636   4.915   1.664
26582SOL    HW281586  11.548   4.938   1.543
26583SOL     OW81587  14.588  11.122  12.702
26583SOL    HW181588  14.606  11.201  12.651
26583SOL    HW281589  14.670  11.104  12.748
26584SOL     OW81590  13.214   0.927   4.192
26584SOL    HW181591  13.305   0.916   4.166
26584SOL    HW281592  13.183   1.002   4.140
26585SOL     OW81593   1.601   0.630   0.757
26585SOL    HW181594   1.621   0.704   0.815
26585SOL    HW281595   1.606   0.667   0.669
26586SOL     OW81596  10.150   1.733  13.158
26586SOL    HW181597  10.199   1.706  13.236
26586SOL    HW281598  10.212   1.724  13.086
26587SOL     OW81599   5.804  13.162   3.996
26587SOL    HW181600   5.722  13.209   3.982
26587SOL    HW281601   5.836  13.143   3.908
26588SOL     OW81602   8.619  12.248   8.992
26588SOL    HW181603   8.684  12.305   8.950
26588SOL    HW281604   8.599  12.182   8.926
26589SOL     OW81605   5.560   0.619  12.129
26589SOL    HW181606   5.512   0.698  12.157
26589SOL    HW281607   5.561   0.624  12.034
26590SOL     OW81608   5.019   4.181   6.880
26590SOL    HW181609   5.094   4.122   6.873
26590SOL    HW281610   5.036   4.233   6.958
26591SOL     OW81611   9.454  13.547   8.438
26591SOL    HW181612   9.463  13.642   8.429
26591SOL    HW281613   9.535  13.511   8.402
26592SOL     OW81614   8.660  13.324   2.528
26592SOL    HW181615   8.690  13.268   2.599
26592SOL    HW281616   8.626  13.402   2.573
26593SOL     OW81617   1.442   4.786   6.699
26593SOL    HW181618   1.426   4.715   6.637
26593SOL    HW281619   1.377   4.772   6.768
26594SOL     OW81620   1.034   7.999   3.707
26594SOL    HW181621   0.967   8.027   3.645
26594SOL    HW281622   0.998   7.921   3.749
26595SOL     OW81623  14.228   5.350  10.666
26595SOL    HW181624  14.273   5.320  10.587
26595SOL    HW281625  14.180   5.274  10.698
26596SOL     OW81626   4.869   7.588   2.199
26596SOL    HW181627   4.894   7.664   2.147
26596SOL    HW281628   4.785   7.612   2.239
26597SOL     OW81629  12.803  10.949  13.181
26597SOL    HW181630  12.718  10.920  13.216
26597SOL    HW281631  12.786  11.038  13.148
26598SOL     OW81632   5.849   5.362  10.858
26598SOL    HW181633   5.883   5.372  10.769
26598SOL    HW281634   5.756   5.342  10.846
26599SOL     OW81635  13.232   2.347  12.933
26599SOL    HW181636  13.160   2.285  12.926
26599SOL    HW281637  13.191   2.429  12.962
26600SOL     OW81638   1.638  13.925  12.761
26600SOL    HW181639   1.557  13.906  12.809
26600SOL    HW281640   1.608  13.943  12.672
26601SOL     OW81641  10.234  12.420   7.811
26601SOL    HW181642  10.310  12.400   7.866
26601SOL    HW281643  10.216  12.340   7.763
26602SOL     OW81644   5.078   1.040  12.395
26602SOL    HW181645   5.109   0.953  12.371
26602SOL    HW281646   5.132   1.100  12.343
26603SOL     OW81647  12.485   8.541   7.769
26603SOL    HW181648  12.421   8.495   7.823
26603SOL    HW281649  12.565   8.489   7.778
26604SOL     OW81650   6.306   3.433  14.239
26604SOL    HW181651   6.270   3.356  14.283
26604SOL    HW281652   6.398   3.411  14.224
26605SOL     OW81653   9.698  11.759   7.143
26605SOL    HW181654   9.633  11.829   7.153
26605SOL    HW281655   9.729  11.768   7.053
26606SOL     OW81656   0.222   6.565   6.733
26606SOL    HW181657   0.190   6.570   6.823
26606SOL    HW281658   0.149   6.595   6.680
26607SOL     OW81659  13.761   9.660   8.922
26607SOL    HW181660  13.847   9.621   8.906
26607SOL    HW281661  13.759   9.737   8.865
26608SOL     OW81662  13.816  13.642   3.536
26608SOL    HW181663  13.885  13.605   3.590
26608SOL    HW281664  13.861  13.677   3.459
26609SOL     OW81665   0.747   6.278   5.525
26609SOL    HW181666   0.678   6.342   5.542
26609SOL    HW281667   0.708   6.216   5.464
26610SOL     OW81668  13.061  14.192  13.703
26610SOL    HW181669  13.079  14.112  13.654
26610SOL    HW281670  13.148  14.226  13.725
26611SOL     OW81671   4.654  10.146  10.316
26611SOL    HW181672   4.712  10.214  10.281
26611SOL    HW281673   4.644  10.168  10.409
26612SOL     OW81674   5.294   8.153   7.075
26612SOL    HW181675   5.369   8.117   7.122
26612SOL    HW281676   5.321   8.241   7.049
26613SOL     OW81677  10.233  11.963   9.137
26613SOL    HW181678  10.328  11.966   9.148
26613SOL    HW281679  10.207  11.878   9.172
26614SOL     OW81680   5.834   9.930   7.755
26614SOL    HW181681   5.910   9.880   7.783
26614SOL    HW281682   5.762   9.900   7.811
26615SOL     OW81683   0.856   5.135   2.498
26615SOL    HW181684   0.796   5.203   2.527
26615SOL    HW281685   0.943   5.172   2.511
26616SOL     OW81686   3.766  14.867   9.016
26616SOL    HW181687   3.708   0.068   9.024
26616SOL    HW281688   3.825  14.874   9.092
26617SOL     OW81689  10.911  13.962   8.317
26617SOL    HW181690  10.824  13.928   8.338
26617SOL    HW281691  10.936  14.015   8.393
26618SOL     OW81692  12.686   7.145  12.197
26618SOL    HW181693  12.696   7.240  12.191
26618SOL    HW281694  12.598   7.132  12.232
26619SOL     OW81695   6.713   8.457  12.119
26619SOL    HW181696   6.768   8.450  12.041
26619SOL    HW281697   6.628   8.487  12.085
26620SOL     OW81698  13.406   4.525   2.096
26620SOL    HW181699  13.382   4.433   2.111
26620SOL    HW281700  13.442   4.554   2.180
26621SOL     OW81701  14.155   3.793  14.857
26621SOL    HW181702  14.077   3.780  14.802
26621SOL    HW281703  14.163   3.888  14.865
26622SOL     OW81704   8.110  14.744   1.779
26622SOL    HW181705   8.150  14.761   1.694
26622SOL    HW281706   8.149  14.661   1.807
26623SOL     OW81707   3.674   3.161  12.603
26623SOL    HW181708   3.601   3.146  12.662
26623SOL    HW281709   3.747   3.186  12.661
26624SOL     OW81710   7.819   6.807  11.694
26624SOL    HW181711   7.842   6.895  11.664
26624SOL    HW281712   7.768   6.770  11.622
26625SOL     OW81713   0.550   3.159  14.242
26625SOL    HW181714   0.521   3.249  14.228
26625SOL    HW281715   0.501   3.129  14.318
26626SOL     OW81716  12.667  10.676   5.205
26626SOL    HW181717  12.611  10.610   5.246
26626SOL    HW281718  12.748  10.673   5.255
26627SOL     OW81719   4.525   0.833   4.171
26627SOL    HW181720   4.600   0.850   4.114
26627SOL    HW281721   4.538   0.743   4.200
26628SOL     OW81722   5.289  10.587  12.443
26628SOL    HW181723   5.328  10.639  12.373
26628SOL    HW281724   5.342  10.607  12.521
26629SOL     OW81725   1.204  12.528  12.938
26629SOL    HW181726   1.282  12.567  12.897
26629SOL    HW281727   1.134  12.546  12.875
26630SOL     OW81728   6.586   9.787  13.353
26630SOL    HW181729   6.563   9.701  13.387
26630SOL    HW281730   6.662   9.813  13.405
26631SOL     OW81731   8.704   4.232   7.199
26631SOL    HW181732   8.660   4.154   7.234
26631SOL    HW281733   8.796   4.218   7.218
26632SOL     OW81734   7.109   2.463  10.479
26632SOL    HW181735   7.059   2.493  10.555
26632SOL    HW281736   7.190   2.513  10.482
26633SOL     OW81737  11.436   1.364  10.210
26633SOL    HW181738  11.463   1.371  10.301
26633SOL    HW281739  11.340   1.360  10.213
26634SOL     OW81740  10.891  10.667  14.641
26634SOL    HW181741  10.857  10.723  14.571
26634SOL    HW281742  10.935  10.727  14.700
26635SOL     OW81743   1.567  11.998   1.695
26635SOL    HW181744   1.527  11.981   1.780
26635SOL    HW281745   1.501  11.970   1.632
26636SOL     OW81746   9.682  11.932   5.829
26636SOL    HW181747   9.743  11.876   5.876
26636SOL    HW281748   9.604  11.877   5.816
26637SOL     OW81749   9.082   3.713   7.530
26637SOL    HW181750   9.149   3.775   7.558
26637SOL    HW281751   9.094   3.636   7.586
26638SOL     OW81752  10.341   9.682   3.671
26638SOL    HW181753  10.410   9.682   3.605
26638SOL    HW281754  10.267   9.637   3.629
26639SOL     OW81755   8.041  11.370  12.753
26639SOL    HW181756   8.087  11.290  12.780
26639SOL    HW281757   7.996  11.399  12.832
26640SOL     OW81758  11.276   0.607   0.091
26640SOL    HW181759  11.287   0.639   0.002
26640SOL    HW281760  11.291   0.684   0.146
26641SOL     OW81761   5.152  10.522   1.349
26641SOL    HW181762   5.142  10.547   1.441
26641SOL    HW281763   5.064  10.500   1.319
26642SOL     OW81764   8.325  13.439  11.727
26642SOL    HW181765   8.232  13.426  11.708
26642SOL    HW281766   8.326  13.472  11.817
26643SOL     OW81767   1.522  11.059   6.269
26643SOL    HW181768   1.431  11.035   6.251
26643SOL    HW281769   1.569  10.976   6.272
26644SOL     OW81770   1.873   0.803   3.937
26644SOL    HW181771   1.915   0.886   3.916
26644SOL    HW281772   1.862   0.759   3.852
26645SOL     OW81773   8.879  11.760  11.536
26645SOL    HW181774   8.834  11.839  11.506
26645SOL    HW281775   8.863  11.696  11.466
26646SOL     OW81776   6.442   5.591  14.853
26646SOL    HW181777   6.464   5.633   0.062
26646SOL    HW281778   6.367   5.535  14.873
26647SOL     OW81779  12.376   0.934   2.694
26647SOL    HW181780  12.454   0.954   2.642
26647SOL    HW281781  12.357   0.842   2.674
26648SOL     OW81782   6.380   2.692  10.876
26648SOL    HW181783   6.322   2.762  10.847
26648SOL    HW281784   6.460   2.704  10.824
26649SOL     OW81785  13.310   7.555   1.067
26649SOL    HW181786  13.337   7.579   0.979
26649SOL    HW281787  13.242   7.489   1.054
26650SOL     OW81788   9.479   6.441   8.029
26650SOL    HW181789   9.525   6.522   8.005
26650SOL    HW281790   9.481   6.439   8.124
26651SOL     OW81791  13.590   6.291   8.878
26651SOL    HW181792  13.496   6.273   8.875
26651SOL    HW281793  13.624   6.261   8.794
26652SOL     OW81794   3.518   0.842  10.469
26652SOL    HW181795   3.599   0.805  10.504
26652SOL    HW281796   3.524   0.935  10.488
26653SOL     OW81797   1.625   0.885   6.309
26653SOL    HW181798   1.639   0.978   6.291
26653SOL    HW281799   1.648   0.874   6.401
26654SOL     OW81800  10.095  12.681  13.556
26654SOL    HW181801  10.051  12.663  13.639
26654SOL    HW281802  10.061  12.614  13.496
26655SOL     OW81803   2.717   7.489   2.323
26655SOL    HW181804   2.653   7.427   2.359
26655SOL    HW281805   2.767   7.517   2.399
26656SOL     OW81806   0.785  12.504   0.171
26656SOL    HW181807   0.820  12.416   0.159
26656SOL    HW281808   0.802  12.549   0.089
26657SOL     OW81809   4.041   9.069   3.067
26657SOL    HW181810   3.958   9.113   3.087
26657SOL    HW281811   4.098   9.091   3.141
26658SOL     OW81812  14.702   0.285   9.248
26658SOL    HW181813  14.707   0.229   9.325
26658SOL    HW281814  14.625   0.339   9.263
26659SOL     OW81815   3.814   7.827   2.876
26659SOL    HW181816   3.834   7.877   2.956
26659SOL    HW281817   3.896   7.824   2.828
26660SOL     OW81818   1.883  10.115  12.346
26660SOL    HW181819   1.828  10.101  12.270
26660SOL    HW281820   1.959  10.059  12.332
26661SOL     OW81821   0.477   3.268   3.182
26661SOL    HW181822   0.412   3.234   3.121
26661SOL    HW281823   0.552   3.289   3.128
26662SOL     OW81824  13.953   4.374   9.909
26662SOL    HW181825  13.943   4.461   9.949
26662SOL    HW281826  13.963   4.314   9.983
26663SOL     OW81827   0.347   0.485   4.845
26663SOL    HW181828   0.284   0.543   4.888
26663SOL    HW281829   0.392   0.442   4.917
26664SOL     OW81830   9.674  11.181   0.106
26664SOL    HW181831   9.613  11.131   0.052
26664SOL    HW281832   9.745  11.205   0.047
26665SOL     OW81833  13.898   6.707   7.734
26665SOL    HW181834  13.979   6.683   7.779
26665SOL    HW281835  13.914   6.796   7.702
26666SOL     OW81836   8.163   4.033  11.327
26666SOL    HW181837   8.087   4.076  11.367
26666SOL    HW281838   8.182   3.959  11.385
26667SOL     OW81839  13.770  13.098   2.552
26667SOL    HW181840  13.705  13.167   2.566
26667SOL    HW281841  13.721  13.024   2.517
26668SOL     OW81842   5.882   1.887   6.317
26668SOL    HW181843   5.838   1.886   6.402
26668SOL    HW281844   5.858   1.971   6.278
26669SOL     OW81845  11.636   8.626   6.986
26669SOL    HW181846  11.672   8.675   6.912
26669SOL    HW281847  11.576   8.563   6.946
26670SOL     OW81848  10.782   5.352  10.152
26670SOL    HW181849  10.751   5.383  10.237
26670SOL    HW281850  10.749   5.416  10.089
26671SOL     OW81851   5.819   4.009  14.253
26671SOL    HW181852   5.897   3.954  14.254
26671SOL    HW281853   5.799   4.021  14.160
26672SOL     OW81854   2.113   0.473   0.367
26672SOL    HW181855   2.190   0.431   0.329
26672SOL    HW281856   2.146   0.555   0.404
26673SOL     OW81857  11.407   4.003   8.274
26673SOL    HW181858  11.363   4.074   8.318
26673SOL    HW281859  11.496   4.003   8.310
26674SOL     OW81860   5.703   3.614  14.061
26674SOL    HW181861   5.717   3.661  13.979
26674SOL    HW281862   5.788   3.578  14.083
26675SOL     OW81863   1.838  12.185  14.020
26675SOL    HW181864   1.757  12.141  13.995
26675SOL    HW281865   1.856  12.245  13.948
26676SOL     OW81866   5.952   1.670  12.982
26676SOL    HW181867   5.972   1.690  12.891
26676SOL    HW281868   5.962   1.754  13.027
26677SOL     OW81869   1.684   0.127  11.945
26677SOL    HW181870   1.764   0.147  11.993
26677SOL    HW281871   1.713   0.111  11.855
26678SOL     OW81872   5.739  12.806  12.415
26678SOL    HW181873   5.805  12.809  12.345
26678SOL    HW281874   5.788  12.779  12.493
26679SOL     OW81875   4.172   0.163  12.419
26679SOL    HW181876   4.203   0.149  12.508
26679SOL    HW281877   4.115   0.088  12.401
26680SOL     OW81878   8.739  12.590   1.525
26680SOL    HW181879   8.813  12.651   1.523
26680SOL    HW281880   8.730  12.561   1.435
26681SOL     OW81881  10.922   4.207  13.176
26681SOL    HW181882  10.865   4.255  13.116
26681SOL    HW281883  10.870   4.132  13.205
26682SOL     OW81884   4.397   7.706  11.435
26682SOL    HW181885   4.483   7.670  11.458
26682SOL    HW281886   4.335   7.648  11.478
26683SOL     OW81887   1.317  10.955  14.022
26683SOL    HW181888   1.268  10.903  14.085
26683SOL    HW281889   1.265  11.034  14.010
26684SOL     OW81890  14.515   7.133   9.087
26684SOL    HW181891  14.471   7.066   9.036
26684SOL    HW281892  14.456   7.150   9.161
26685SOL     OW81893   3.799  12.031   7.652
26685SOL    HW181894   3.823  11.946   7.616
26685SOL    HW281895   3.776  12.012   7.743
26686SOL     OW81896   0.065  12.150  13.269
26686SOL    HW181897   0.048  12.173  13.178
26686SOL    HW281898   0.017  12.217  13.319
26687SOL     OW81899  12.274   5.424   0.511
26687SOL    HW181900  12.216   5.499   0.526
26687SOL    HW281901  12.352   5.444   0.564
26688SOL     OW81902  14.210  14.040   2.218
26688SOL    HW181903  14.200  14.009   2.128
26688SOL    HW281904  14.141  14.106   2.228
26689SOL     OW81905   6.436   2.081   7.990
26689SOL    HW181906   6.523   2.097   8.026
26689SOL    HW281907   6.440   1.993   7.954
26690SOL     OW81908  13.573   1.522   9.568
26690SOL    HW181909  13.628   1.506   9.644
26690SOL    HW281910  13.576   1.440   9.519
26691SOL     OW81911  11.692   5.617   9.386
26691SOL    HW181912  11.766   5.672   9.359
26691SOL    HW281913  11.626   5.680   9.418
26692SOL     OW81914  12.058   5.507   8.355
26692SOL    HW181915  11.975   5.483   8.397
26692SOL    HW281916  12.125   5.487   8.420
26693SOL     OW81917   5.155  13.580  10.632
26693SOL    HW181918   5.097  13.573  10.556
26693SOL    HW281919   5.243  13.573  10.594
26694SOL     OW81920  13.739  11.028   8.351
26694SOL    HW181921  13.803  11.093   8.322
26694SOL    HW281922  13.659  11.052   8.305
26695SOL     OW81923   7.631   4.299  14.735
26695SOL    HW181924   7.648   4.389  14.707
26695SOL    HW281925   7.717   4.261  14.749
26696SOL     OW81926   2.706   0.959   7.807
26696SOL    HW181927   2.711   1.022   7.735
26696SOL    HW281928   2.635   0.899   7.782
26697SOL     OW81929  11.087   9.279  13.998
26697SOL    HW181930  11.090   9.244  14.087
26697SOL    HW281931  11.169   9.251  13.958
26698SOL     OW81932  11.460  12.006   4.715
26698SOL    HW181933  11.499  12.066   4.778
26698SOL    HW281934  11.366  12.026   4.718
26699SOL     OW81935   9.527   2.914   3.699
26699SOL    HW181936   9.586   2.982   3.665
26699SOL    HW281937   9.564   2.890   3.784
26700SOL     OW81938   5.299  10.335   4.410
26700SOL    HW181939   5.338  10.371   4.490
26700SOL    HW281940   5.342  10.383   4.339
26701SOL     OW81941   5.052   8.428   4.687
26701SOL    HW181942   4.988   8.483   4.731
26701SOL    HW281943   5.099   8.489   4.629
26702SOL     OW81944   8.946  13.192   8.648
26702SOL    HW181945   8.894  13.272   8.654
26702SOL    HW281946   8.999  13.204   8.569
26703SOL     OW81947   2.652  14.421  11.163
26703SOL    HW181948   2.614  14.392  11.080
26703SOL    HW281949   2.701  14.345  11.195
26704SOL     OW81950  14.222   8.492   0.665
26704SOL    HW181951  14.307   8.448   0.658
26704SOL    HW281952  14.159   8.426   0.634
26705SOL     OW81953   2.774   7.107   8.999
26705SOL    HW181954   2.768   7.121   8.905
26705SOL    HW281955   2.856   7.150   9.025
26706SOL     OW81956   5.154   2.243   6.290
26706SOL    HW181957   5.220   2.263   6.356
26706SOL    HW281958   5.204   2.235   6.208
26707SOL     OW81959   8.896   4.730   3.749
26707SOL    HW181960   8.853   4.811   3.723
26707SOL    HW281961   8.988   4.754   3.761
26708SOL     OW81962   9.890   5.261   4.721
26708SOL    HW181963   9.809   5.228   4.683
26708SOL    HW281964   9.947   5.185   4.725
26709SOL     OW81965   6.468   1.895   1.680
26709SOL    HW181966   6.498   1.896   1.589
26709SOL    HW281967   6.548   1.905   1.732
26710SOL     OW81968   9.617  13.208   9.364
26710SOL    HW181969   9.682  13.252   9.418
26710SOL    HW281970   9.533  13.230   9.404
26711SOL     OW81971   4.100  13.429   2.899
26711SOL    HW181972   4.133  13.390   2.980
26711SOL    HW281973   4.031  13.488   2.928
26712SOL     OW81974   7.062  12.525   2.217
26712SOL    HW181975   7.080  12.436   2.187
26712SOL    HW281976   7.051  12.577   2.137
26713SOL     OW81977  13.545   8.629   8.725
26713SOL    HW181978  13.592   8.596   8.648
26713SOL    HW281979  13.477   8.564   8.741
26714SOL     OW81980   1.718  14.606  14.572
26714SOL    HW181981   1.662  14.682  14.557
26714SOL    HW281982   1.657  14.532  14.571
26715SOL     OW81983   7.152  12.970  10.069
26715SOL    HW181984   7.063  12.954  10.100
26715SOL    HW281985   7.142  13.035   9.999
26716SOL     OW81986  14.284   1.482   0.000
26716SOL    HW181987  14.207   1.500   0.053
26716SOL    HW281988  14.266   1.522  14.789
26717SOL     OW81989  14.446   4.134   2.372
26717SOL    HW181990  14.426   4.202   2.307
26717SOL    HW281991  14.532   4.101   2.347
26718SOL     OW81992   7.147   1.435   1.955
26718SOL    HW181993   7.186   1.483   1.881
26718SOL    HW281994   7.087   1.498   1.996
26719SOL     OW81995   9.750   5.647   2.807
26719SOL    HW181996   9.842   5.655   2.830
26719SOL    HW281997   9.742   5.690   2.722
26720SOL     OW81998   1.190  10.827  10.941
26720SOL    HW181999   1.210  10.875  11.021
26720SOL    HW282000   1.224  10.883  10.871
26721SOL     OW82001   8.209   8.671  10.729
26721SOL    HW182002   8.146   8.599  10.724
26721SOL    HW282003   8.177   8.726  10.801
26722SOL     OW82004   3.700   7.930   5.304
26722SOL    HW182005   3.650   8.006   5.276
26722SOL    HW282006   3.671   7.859   5.247
26723SOL     OW82007  13.878   0.717   0.687
26723SOL    HW182008  13.959   0.750   0.648
26723SOL    HW282009  13.871   0.765   0.770
26724SOL     OW82010   8.258   0.998   1.915
26724SOL    HW182011   8.313   1.014   1.992
26724SOL    HW282012   8.302   0.927   1.869
26725SOL     OW82013   8.526   5.361   9.932
26725SOL    HW182014   8.601   5.416   9.957
26725SOL    HW282015   8.489   5.333  10.016
26726SOL     OW82016   1.129   1.159   9.708
26726SOL    HW182017   1.163   1.152   9.797
26726SOL    HW282018   1.131   1.253   9.689
26727SOL     OW82019  13.589   8.265   8.327
26727SOL    HW182020  13.594   8.230   8.416
26727SOL    HW282021  13.543   8.349   8.337
26728SOL     OW82022  12.506   1.202   2.644
26728SOL    HW182023  12.507   1.294   2.672
26728SOL    HW282024  12.422   1.192   2.598
26729SOL     OW82025  12.798   0.227  12.783
26729SOL    HW182026  12.825   0.285  12.711
26729SOL    HW282027  12.702   0.236  12.785
26730SOL     OW82028   3.902  13.996   1.601
26730SOL    HW182029   3.913  13.920   1.658
26730SOL    HW282030   3.820  14.036   1.629
26731SOL     OW82031   5.164  13.784   4.000
26731SOL    HW182032   5.096  13.824   4.054
26731SOL    HW282033   5.232  13.851   3.993
26732SOL     OW82034   4.502  10.351   7.915
26732SOL    HW182035   4.452  10.427   7.884
26732SOL    HW282036   4.507  10.292   7.840
26733SOL     OW82037   5.416  14.091   7.430
26733SOL    HW182038   5.346  14.117   7.370
26733SOL    HW282039   5.414  13.995   7.430
26734SOL     OW82040  14.718   0.135  10.588
26734SOL    HW182041  14.730   0.216  10.637
26734SOL    HW282042  14.797   0.084  10.607
26735SOL     OW82043  10.230   9.864  10.113
26735SOL    HW182044  10.208   9.815  10.193
26735SOL    HW282045  10.319   9.834  10.091
26736SOL     OW82046   8.209   8.833  12.437
26736SOL    HW182047   8.275   8.894  12.403
26736SOL    HW282048   8.183   8.781  12.362
26737SOL     OW82049   7.309   8.026   6.217
26737SOL    HW182050   7.321   8.000   6.308
26737SOL    HW282051   7.237   8.090   6.219
26738SOL     OW82052   0.793   4.460  10.410
26738SOL    HW182053   0.747   4.392  10.460
26738SOL    HW282054   0.826   4.415  10.332
26739SOL     OW82055  10.603  11.077   6.696
26739SOL    HW182056  10.654  11.098   6.775
26739SOL    HW282057  10.620  10.984   6.682
26740SOL     OW82058  12.851   1.213  13.265
26740SOL    HW182059  12.773   1.160  13.248
26740SOL    HW282060  12.924   1.152  13.255
26741SOL     OW82061   7.584   2.441  11.157
26741SOL    HW182062   7.513   2.379  11.171
26741SOL    HW282063   7.604   2.435  11.064
26742SOL     OW82064   7.863   9.524  12.962
26742SOL    HW182065   7.955   9.496  12.968
26742SOL    HW282066   7.813   9.443  12.969
26743SOL     OW82067  13.091   1.768  11.474
26743SOL    HW182068  13.029   1.809  11.534
26743SOL    HW282069  13.039   1.742  11.398
26744SOL     OW82070   4.677   9.223  13.162
26744SOL    HW182071   4.592   9.217  13.206
26744SOL    HW282072   4.658   9.212  13.069
26745SOL     OW82073  14.488  11.807   7.171
26745SOL    HW182074  14.548  11.732   7.172
26745SOL    HW282075  14.428  11.789   7.099
26746SOL     OW82076   7.777   4.967   3.258
26746SOL    HW182077   7.770   4.994   3.350
26746SOL    HW282078   7.810   5.045   3.213
26747SOL     OW82079   3.514  14.853  11.335
26747SOL    HW182080   3.562   0.062  11.330
26747SOL    HW282081   3.579  14.791  11.369
26748SOL     OW82082   0.008   3.427   2.055
26748SOL    HW182083   0.064   3.486   2.105
26748SOL    HW282084  14.817   3.397   2.119
26749SOL     OW82085   1.267  11.150   8.388
26749SOL    HW182086   1.289  11.086   8.455
26749SOL    HW282087   1.234  11.099   8.315
26750SOL     OW82088  12.992   7.884   8.446
26750SOL    HW182089  12.918   7.823   8.450
26750SOL    HW282090  13.046   7.860   8.521
26751SOL     OW82091  10.985   5.196   7.374
26751SOL    HW182092  10.938   5.216   7.455
26751SOL    HW282093  10.938   5.244   7.306
26752SOL     OW82094   2.581   1.884   2.046
26752SOL    HW182095   2.517   1.917   2.110
26752SOL    HW282096   2.596   1.959   1.988
26753SOL     OW82097  11.909   6.757   6.339
26753SOL    HW182098  11.864   6.768   6.255
26753SOL    HW282099  12.000   6.742   6.315
26754SOL     OW82100   7.977   5.553   1.407
26754SOL    HW182101   7.992   5.504   1.327
26754SOL    HW282102   8.019   5.501   1.476
26755SOL     OW82103   6.166   7.046   8.545
26755SOL    HW182104   6.213   7.115   8.591
26755SOL    HW282105   6.220   6.967   8.558
26756SOL     OW82106  13.589  12.801   2.590
26756SOL    HW182107  13.662  12.792   2.651
26756SOL    HW282108  13.511  12.803   2.646
26757SOL     OW82109  10.430   3.433   3.603
26757SOL    HW182110  10.365   3.371   3.636
26757SOL    HW282111  10.412   3.439   3.509
26758SOL     OW82112  13.653   3.627  14.288
26758SOL    HW182113  13.631   3.551  14.341
26758SOL    HW282114  13.720   3.595  14.227
26759SOL     OW82115  12.764   6.154   3.748
26759SOL    HW182116  12.770   6.066   3.711
26759SOL    HW282117  12.784   6.143   3.841
26760SOL     OW82118   3.532   0.909   2.184
26760SOL    HW182119   3.609   0.952   2.147
26760SOL    HW282120   3.566   0.829   2.224
26761SOL     OW82121   7.292   0.985   0.402
26761SOL    HW182122   7.342   0.998   0.321
26761SOL    HW282123   7.258   0.896   0.395
26762SOL     OW82124   8.908   3.232   7.330
26762SOL    HW182125   8.925   3.138   7.344
26762SOL    HW282126   8.870   3.237   7.242
26763SOL     OW82127   0.326  13.491  12.636
26763SOL    HW182128   0.364  13.556  12.696
26763SOL    HW282129   0.361  13.408  12.666
26764SOL     OW82130   4.452   8.341   4.750
26764SOL    HW182131   4.530   8.361   4.802
26764SOL    HW282132   4.380   8.375   4.803
26765SOL     OW82133   0.485   5.843   1.609
26765SOL    HW182134   0.552   5.775   1.603
26765SOL    HW282135   0.430   5.830   1.531
26766SOL     OW82136  13.038   3.434  14.648
26766SOL    HW182137  13.040   3.530  14.653
26766SOL    HW282138  13.090   3.413  14.569
26767SOL     OW82139   9.198   7.937  10.394
26767SOL    HW182140   9.173   7.875  10.326
26767SOL    HW282141   9.226   8.015  10.347
26768SOL     OW82142   8.065   9.542   5.997
26768SOL    HW182143   8.134   9.608   6.008
26768SOL    HW282144   8.109   9.459   6.016
26769SOL     OW82145   6.531   0.301  12.625
26769SOL    HW182146   6.504   0.212  12.649
26769SOL    HW282147   6.452   0.353  12.634
26770SOL     OW82148   2.209   5.160  13.027
26770SOL    HW182149   2.183   5.071  13.001
26770SOL    HW282150   2.133   5.195  13.073
26771SOL     OW82151  14.765   8.777  11.883
26771SOL    HW182152  14.682   8.737  11.856
26771SOL    HW282153  14.763   8.865  11.845
26772SOL     OW82154   6.701  11.491   6.544
26772SOL    HW182155   6.632  11.556   6.554
26772SOL    HW282156   6.755  11.523   6.472
26773SOL     OW82157   9.133  11.433   4.432
26773SOL    HW182158   9.228  11.429   4.436
26773SOL    HW282159   9.108  11.366   4.369
26774SOL     OW82160   9.234   6.235   1.004
26774SOL    HW182161   9.212   6.171   0.936
26774SOL    HW282162   9.222   6.320   0.962
26775SOL     OW82163   9.374  10.925  10.241
26775SOL    HW182164   9.454  10.928  10.294
26775SOL    HW282165   9.358  11.015  10.215
26776SOL     OW82166  13.549  11.284   6.435
26776SOL    HW182167  13.526  11.207   6.383
26776SOL    HW282168  13.517  11.264   6.523
26777SOL     OW82169   2.362   5.138  12.483
26777SOL    HW182170   2.401   5.104  12.563
26777SOL    HW282171   2.344   5.230  12.502
26778SOL     OW82172   1.667   5.036  12.031
26778SOL    HW182173   1.586   5.042  12.082
26778SOL    HW282174   1.734   5.012  12.096
26779SOL     OW82175   6.186   3.196   3.346
26779SOL    HW182176   6.130   3.218   3.272
26779SOL    HW282177   6.163   3.105   3.367
26780SOL     OW82178   4.621   0.886   1.767
26780SOL    HW182179   4.542   0.918   1.811
26780SOL    HW282180   4.646   0.957   1.708
26781SOL     OW82181   8.505   2.838  13.180
26781SOL    HW182182   8.510   2.780  13.104
26781SOL    HW282183   8.543   2.920  13.150
26782SOL     OW82184  13.159  10.056   4.724
26782SOL    HW182185  13.234  10.076   4.667
26782SOL    HW282186  13.086  10.044   4.664
26783SOL     OW82187  10.827  14.552  14.549
26783SOL    HW182188  10.838  14.617  14.480
26783SOL    HW282189  10.913  14.550  14.593
26784SOL     OW82190   3.144   1.122   3.343
26784SOL    HW182191   3.091   1.182   3.290
26784SOL    HW282192   3.084   1.052   3.367
26785SOL     OW82193  10.458   7.805   9.042
26785SOL    HW182194  10.519   7.866   9.082
26785SOL    HW282195  10.453   7.832   8.950
26786SOL     OW82196   0.847   3.001   8.403
26786SOL    HW182197   0.754   3.008   8.425
26786SOL    HW282198   0.850   3.021   8.309
26787SOL     OW82199   2.221   4.314   7.231
26787SOL    HW182200   2.234   4.386   7.293
26787SOL    HW282201   2.223   4.356   7.145
26788SOL     OW82202   2.766   6.136   9.654
26788SOL    HW182203   2.765   6.197   9.727
26788SOL    HW282204   2.855   6.101   9.653
26789SOL     OW82205  11.233   3.538   6.345
26789SOL    HW182206  11.258   3.591   6.269
26789SOL    HW282207  11.300   3.470   6.349
26790SOL     OW82208   0.674  13.173   0.297
26790SOL    HW182209   0.667  13.159   0.391
26790SOL    HW282210   0.596  13.224   0.274
26791SOL     OW82211   3.741   4.498  10.837
26791SOL    HW182212   3.761   4.588  10.863
26791SOL    HW282213   3.684   4.507  10.761
26792SOL     OW82214  11.565   3.569   5.925
26792SOL    HW182215  11.638   3.629   5.943
26792SOL    HW282216  11.607   3.492   5.886
26793SOL     OW82217  14.326   1.410  12.135
26793SOL    HW182218  14.379   1.331  12.124
26793SOL    HW282219  14.360   1.471  12.070
26794SOL     OW82220   9.383  13.405   2.288
26794SOL    HW182221   9.397  13.410   2.383
26794SOL    HW282222   9.300  13.359   2.278
26795SOL     OW82223  13.069   1.795   3.784
26795SOL    HW182224  13.150   1.842   3.765
26795SOL    HW282225  13.070   1.782   3.879
26796SOL     OW82226   2.533   0.533   7.863
26796SOL    HW182227   2.587   0.502   7.790
26796SOL    HW282228   2.523   0.457   7.919
26797SOL     OW82229  14.660  10.619  11.631
26797SOL    HW182230  14.704  10.556  11.689
26797SOL    HW282231  14.635  10.568  11.555
26798SOL     OW82232  11.447   2.639   8.060
26798SOL    HW182233  11.405   2.588   8.130
26798SOL    HW282234  11.479   2.572   7.999
26799SOL     OW82235   0.755   0.806   8.797
26799SOL    HW182236   0.768   0.892   8.836
26799SOL    HW282237   0.669   0.778   8.827
26800SOL     OW82238   6.210   3.879   7.156
26800SOL    HW182239   6.127   3.921   7.180
26800SOL    HW282240   6.254   3.942   7.099
26801SOL     OW82241   8.110  10.738   2.857
26801SOL    HW182242   8.047  10.770   2.921
26801SOL    HW282243   8.058  10.682   2.799
26802SOL     OW82244   0.664   2.904   7.863
26802SOL    HW182245   0.580   2.939   7.832
26802SOL    HW282246   0.727   2.932   7.797
26803SOL     OW82247   2.602  14.009  13.083
26803SOL    HW182248   2.635  14.034  12.997
26803SOL    HW282249   2.509  14.031  13.081
26804SOL     OW82250  12.300   7.649   3.894
26804SOL    HW182251  12.382   7.693   3.870
26804SOL    HW282252  12.300   7.569   3.842
26805SOL     OW82253   5.831   9.735  13.185
26805SOL    HW182254   5.743   9.731  13.148
26805SOL    HW282255   5.846   9.828  13.202
26806SOL     OW82256   3.590  11.144   0.948
26806SOL    HW182257   3.515  11.097   0.984
26806SOL    HW282258   3.575  11.235   0.972
26807SOL     OW82259   2.629   1.257  11.956
26807SOL    HW182260   2.670   1.171  11.967
26807SOL    HW282261   2.661   1.308  12.030
26808SOL     OW82262   3.520   4.237   2.567
26808SOL    HW182263   3.477   4.285   2.638
26808SOL    HW282264   3.508   4.293   2.490
26809SOL     OW82265   7.830  11.424   5.781
26809SOL    HW182266   7.904  11.449   5.726
26809SOL    HW282267   7.858  11.445   5.870
26810SOL     OW82268   6.609   5.873   1.925
26810SOL    HW182269   6.519   5.844   1.939
26810SOL    HW282270   6.624   5.860   1.831
26811SOL     OW82271   7.281   9.311   9.973
26811SOL    HW182272   7.294   9.406   9.972
26811SOL    HW282273   7.191   9.299   9.946
26812SOL     OW82274  14.018   9.695   1.542
26812SOL    HW182275  13.984   9.702   1.453
26812SOL    HW282276  13.945   9.659   1.592
26813SOL     OW82277  13.178   5.658  11.014
26813SOL    HW182278  13.143   5.571  10.994
26813SOL    HW282279  13.125   5.718  10.962
26814SOL     OW82280   8.080  10.941   7.352
26814SOL    HW182281   8.155  10.917   7.299
26814SOL    HW282282   8.046  11.021   7.311
26815SOL     OW82283   2.794   0.532   0.707
26815SOL    HW182284   2.730   0.513   0.774
26815SOL    HW282285   2.746   0.525   0.624
26816SOL     OW82286   6.087  14.039   1.362
26816SOL    HW182287   6.024  14.100   1.323
26816SOL    HW282288   6.080  13.960   1.308
26817SOL     OW82289  11.075   3.146   2.968
26817SOL    HW182290  11.029   3.199   3.034
26817SOL    HW282291  11.136   3.092   3.019
26818SOL     OW82292   2.069   6.775   9.597
26818SOL    HW182293   2.163   6.788   9.588
26818SOL    HW282294   2.058   6.681   9.611
26819SOL     OW82295   1.716   9.976   9.602
26819SOL    HW182296   1.782   9.916   9.568
26819SOL    HW282297   1.765  10.052   9.633
26820SOL     OW82298   5.829   0.166  13.200
26820SOL    HW182299   5.875   0.089  13.166
26820SOL    HW282300   5.791   0.208  13.122
26821SOL     OW82301  12.479  10.771   6.654
26821SOL    HW182302  12.476  10.685   6.696
26821SOL    HW282303  12.451  10.832   6.722
26822SOL     OW82304   0.962  14.733   7.495
26822SOL    HW182305   1.017  14.733   7.417
26822SOL    HW282306   0.929  14.823   7.501
26823SOL     OW82307   2.020   4.576   0.751
26823SOL    HW182308   1.967   4.520   0.694
26823SOL    HW282309   1.991   4.555   0.839
26824SOL     OW82310   5.528  11.535   9.885
26824SOL    HW182311   5.468  11.503   9.953
26824SOL    HW282312   5.492  11.619   9.859
26825SOL     OW82313  10.848   7.764  11.413
26825SOL    HW182314  10.896   7.750  11.494
26825SOL    HW282315  10.907   7.733  11.344
26826SOL     OW82316   7.132   1.064   2.470
26826SOL    HW182317   7.139   1.125   2.396
26826SOL    HW282318   7.213   1.012   2.466
26827SOL     OW82319  13.659   5.746   2.583
26827SOL    HW182320  13.633   5.660   2.549
26827SOL    HW282321  13.611   5.755   2.664
26828SOL     OW82322   3.472  11.027   4.382
26828SOL    HW182323   3.533  10.966   4.425
26828SOL    HW282324   3.467  11.101   4.442
26829SOL     OW82325  14.113  12.844   6.302
26829SOL    HW182326  14.018  12.839   6.290
26829SOL    HW282327  14.149  12.802   6.223
26830SOL     OW82328  13.514  12.668  13.212
26830SOL    HW182329  13.575  12.724  13.260
26830SOL    HW282330  13.521  12.697  13.121
26831SOL     OW82331   0.272  12.893   3.285
26831SOL    HW182332   0.195  12.850   3.246
26831SOL    HW282333   0.236  12.947   3.355
26832SOL     OW82334  14.858  13.064   0.611
26832SOL    HW182335  14.796  12.992   0.625
26832SOL    HW282336  14.823  13.136   0.662
26833SOL     OW82337   6.830   1.610   2.386
26833SOL    HW182338   6.800   1.640   2.300
26833SOL    HW282339   6.817   1.516   2.384
26834SOL     OW82340   6.409   1.908   8.831
26834SOL    HW182341   6.486   1.911   8.888
26834SOL    HW282342   6.344   1.963   8.876
26835SOL     OW82343  10.114   3.538   7.445
26835SOL    HW182344  10.045   3.479   7.477
26835SOL    HW282345  10.171   3.481   7.393
26836SOL     OW82346   3.550  14.448   9.061
26836SOL    HW182347   3.577  14.359   9.084
26836SOL    HW282348   3.621  14.480   9.005
26837SOL     OW82349   2.043   4.280  11.154
26837SOL    HW182350   2.138   4.286  11.154
26837SOL    HW282351   2.022   4.237  11.071
26838SOL     OW82352   8.797   6.439   1.911
26838SOL    HW182353   8.885   6.466   1.883
26838SOL    HW282354   8.785   6.353   1.870
26839SOL     OW82355  12.952   0.559   8.498
26839SOL    HW182356  12.934   0.472   8.533
26839SOL    HW282357  12.947   0.549   8.403
26840SOL     OW82358  14.326   0.071   8.459
26840SOL    HW182359  14.332   0.058   8.554
26840SOL    HW282360  14.292   0.160   8.449
26841SOL     OW82361   0.337   2.229   4.419
26841SOL    HW182362   0.328   2.300   4.482
26841SOL    HW282363   0.311   2.151   4.468
26842SOL     OW82364   0.632   6.644  13.941
26842SOL    HW182365   0.624   6.737  13.961
26842SOL    HW282366   0.569   6.602  14.000
26843SOL     OW82367   1.122   5.836  14.741
26843SOL    HW182368   1.155   5.926  14.750
26843SOL    HW282369   1.136   5.815  14.648
26844SOL     OW82370   8.034  11.078   5.304
26844SOL    HW182371   8.002  11.022   5.233
26844SOL    HW282372   7.955  11.108   5.349
26845SOL     OW82373   4.727  14.179   6.797
26845SOL    HW182374   4.656  14.118   6.817
26845SOL    HW282375   4.751  14.159   6.707
26846SOL     OW82376  12.423  12.832   8.555
26846SOL    HW182377  12.381  12.761   8.505
26846SOL    HW282378  12.350  12.877   8.598
26847SOL     OW82379  10.140  11.908   8.871
26847SOL    HW182380  10.149  11.992   8.825
26847SOL    HW282381  10.188  11.920   8.953
26848SOL     OW82382   2.194  12.685  12.061
26848SOL    HW182383   2.209  12.767  12.013
26848SOL    HW282384   2.230  12.702  12.148
26849SOL     OW82385   6.164   4.104   4.812
26849SOL    HW182386   6.113   4.182   4.789
26849SOL    HW282387   6.239   4.138   4.860
26850SOL     OW82388   5.227   4.590   1.159
26850SOL    HW182389   5.133   4.606   1.164
26850SOL    HW282390   5.238   4.503   1.198
26851SOL     OW82391  12.923   5.565   0.646
26851SOL    HW182392  12.861   5.620   0.599
26851SOL    HW282393  13.004   5.569   0.594
26852SOL     OW82394  10.024   9.078   0.722
26852SOL    HW182395  10.083   9.049   0.791
26852SOL    HW282396   9.938   9.046   0.749
26853SOL     OW82397   8.929   3.311   3.402
26853SOL    HW182398   8.887   3.395   3.388
26853SOL    HW282399   8.972   3.320   3.487
26854SOL     OW82400   4.468   4.182   1.625
26854SOL    HW182401   4.389   4.130   1.637
26854SOL    HW282402   4.461   4.252   1.689
26855SOL     OW82403   9.254   2.306  13.763
26855SOL    HW182404   9.261   2.224  13.715
26855SOL    HW282405   9.321   2.362  13.724
26856SOL     OW82406   0.896   3.097  13.119
26856SOL    HW182407   0.947   3.083  13.199
26856SOL    HW282408   0.893   3.192  13.108
26857SOL     OW82409   1.376   0.370  13.051
26857SOL    HW182410   1.426   0.348  13.130
26857SOL    HW282411   1.285   0.348  13.074
26858SOL     OW82412   2.923   1.453   8.062
26858SOL    HW182413   2.857   1.521   8.046
26858SOL    HW282414   2.884   1.373   8.029
26859SOL     OW82415  13.593  11.946   5.944
26859SOL    HW182416  13.687  11.940   5.963
26859SOL    HW282417  13.588  12.004   5.868
26860SOL     OW82418   9.352  10.447   2.113
26860SOL    HW182419   9.371  10.536   2.084
26860SOL    HW282420   9.351  10.453   2.209
26861SOL     OW82421   4.284   2.764  12.822
26861SOL    HW182422   4.227   2.833  12.855
26861SOL    HW282423   4.284   2.776  12.727
26862SOL     OW82424  12.130   7.578   0.301
26862SOL    HW182425  12.039   7.566   0.274
26862SOL    HW282426  12.133   7.667   0.337
26863SOL     OW82427   5.462  14.747   6.023
26863SOL    HW182428   5.440  14.743   5.930
26863SOL    HW282429   5.488  14.658   6.045
26864SOL     OW82430   6.244   0.056   1.336
26864SOL    HW182431   6.328   0.072   1.378
26864SOL    HW282432   6.205  14.858   1.386
26865SOL     OW82433   0.068   1.817   6.151
26865SOL    HW182434  14.858   1.849   6.118
26865SOL    HW282435   0.050   1.727   6.177
26866SOL     OW82436   2.405  14.327   9.499
26866SOL    HW182437   2.452  14.244   9.506
26866SOL    HW282438   2.436  14.366   9.418
26867SOL     OW82439   1.448  11.718   3.277
26867SOL    HW182440   1.476  11.732   3.187
26867SOL    HW282441   1.490  11.788   3.326
26868SOL     OW82442   8.505   2.033   3.893
26868SOL    HW182443   8.596   2.018   3.922
26868SOL    HW282444   8.484   2.121   3.924
26869SOL     OW82445   2.923  10.083  11.883
26869SOL    HW182446   2.912  10.024  11.957
26869SOL    HW282447   2.962  10.162  11.921
26870SOL     OW82448  10.134   9.005   1.810
26870SOL    HW182449  10.168   8.948   1.741
26870SOL    HW282450  10.139   9.093   1.773
26871SOL     OW82451   2.031   5.481   5.060
26871SOL    HW182452   2.006   5.415   5.125
26871SOL    HW282453   2.102   5.530   5.101
26872SOL     OW82454   5.415   0.009   2.122
26872SOL    HW182455   5.339  14.832   2.093
26872SOL    HW282456   5.379   0.095   2.144
26873SOL     OW82457   2.788   8.557   9.351
26873SOL    HW182458   2.867   8.602   9.382
26873SOL    HW282459   2.821   8.483   9.300
26874SOL     OW82460  12.658  10.547  12.644
26874SOL    HW182461  12.681  10.639  12.660
26874SOL    HW282462  12.662  10.538  12.549
26875SOL     OW82463   3.389   6.073   0.338
26875SOL    HW182464   3.422   6.036   0.256
26875SOL    HW282465   3.297   6.090   0.321
26876SOL     OW82466  10.777   4.842  12.895
26876SOL    HW182467  10.832   4.777  12.850
26876SOL    HW282468  10.745   4.796  12.972
26877SOL     OW82469  11.633   0.959   8.190
26877SOL    HW182470  11.549   1.004   8.200
26877SOL    HW282471  11.660   0.977   8.100
26878SOL     OW82472  14.561   7.783   5.438
26878SOL    HW182473  14.606   7.759   5.357
26878SOL    HW282474  14.619   7.845   5.481
26879SOL     OW82475  14.610  10.590   1.891
26879SOL    HW182476  14.564  10.605   1.808
26879SOL    HW282477  14.546  10.614   1.958
26880SOL     OW82478   3.732   7.908  13.431
26880SOL    HW182479   3.735   7.972  13.502
26880SOL    HW282480   3.726   7.824  13.476
26881SOL     OW82481   8.100  14.713  14.145
26881SOL    HW182482   8.026  14.654  14.133
26881SOL    HW282483   8.102  14.766  14.066
26882SOL     OW82484  13.386   9.363   9.498
26882SOL    HW182485  13.450   9.429   9.471
26882SOL    HW282486  13.363   9.317   9.417
26883SOL     OW82487   1.813   3.357   3.642
26883SOL    HW182488   1.734   3.317   3.606
26883SOL    HW282489   1.883   3.326   3.585
26884SOL     OW82490  12.620   5.033   6.074
26884SOL    HW182491  12.549   4.984   6.114
26884SOL    HW282492  12.699   5.001   6.118
26885SOL     OW82493  11.538  12.803   0.904
26885SOL    HW182494  11.566  12.863   0.835
26885SOL    HW282495  11.464  12.756   0.867
26886SOL     OW82496   6.734   9.970   5.882
26886SOL    HW182497   6.651   9.945   5.841
26886SOL    HW282498   6.774   9.887   5.907
26887SOL     OW82499  10.046  13.201   7.766
26887SOL    HW182500  10.068  13.108   7.768
26887SOL    HW282501  10.122  13.244   7.805
26888SOL     OW82502  13.499  14.290   7.173
26888SOL    HW182503  13.469  14.353   7.107
26888SOL    HW282504  13.593  14.308   7.182
26889SOL     OW82505  14.842   5.936   1.548
26889SOL    HW182506  14.759   5.928   1.499
26889SOL    HW282507   0.020   5.996   1.495
26890SOL     OW82508   1.236  13.464  13.430
26890SOL    HW182509   1.289  13.464  13.350
26890SOL    HW282510   1.197  13.551  13.433
26891SOL     OW82511  13.748  11.508  11.692
26891SOL    HW182512  13.832  11.508  11.645
26891SOL    HW282513  13.725  11.600  11.700
26892SOL     OW82514  10.705  13.227   7.633
26892SOL    HW182515  10.779  13.167   7.628
26892SOL    HW282516  10.652  13.206   7.557
26893SOL     OW82517   4.935   9.539  12.739
26893SOL    HW182518   4.911   9.514  12.828
26893SOL    HW282519   4.853   9.534  12.689
26894SOL     OW82520   7.568   3.475   7.860
26894SOL    HW182521   7.511   3.494   7.934
26894SOL    HW282522   7.594   3.561   7.827
26895SOL     OW82523  10.388   2.818  12.643
26895SOL    HW182524  10.393   2.791  12.551
26895SOL    HW282525  10.420   2.743  12.692
26896SOL     OW82526   6.314   1.202   8.947
26896SOL    HW182527   6.405   1.184   8.923
26896SOL    HW282528   6.274   1.231   8.865
26897SOL     OW82529   0.822  14.807   5.136
26897SOL    HW182530   0.849  14.773   5.221
26897SOL    HW282531   0.875   0.012   5.124
26898SOL     OW82532   4.859   4.668   7.143
26898SOL    HW182533   4.845   4.746   7.089
26898SOL    HW282534   4.793   4.606   7.114
26899SOL     OW82535   7.942   1.626   4.347
26899SOL    HW182536   7.851   1.635   4.378
26899SOL    HW282537   7.992   1.686   4.402
26900SOL     OW82538  10.109   7.151  12.401
26900SOL    HW182539  10.203   7.164  12.395
26900SOL    HW282540  10.077   7.226  12.452
26901SOL     OW82541  13.705   7.310   5.994
26901SOL    HW182542  13.629   7.368   5.983
26901SOL    HW282543  13.672   7.237   6.047
26902SOL     OW82544   7.247  10.852  10.067
26902SOL    HW182545   7.227  10.926  10.010
26902SOL    HW282546   7.162  10.827  10.104
26903SOL     OW82547  14.809   5.803   0.910
26903SOL    HW182548   0.017   5.824   0.955
26903SOL    HW282549  14.811   5.855   0.830
26904SOL     OW82550  13.788   5.664   3.484
26904SOL    HW182551  13.877   5.687   3.457
26904SOL    HW282552  13.795   5.573   3.514
26905SOL     OW82553  11.000   6.027   9.424
26905SOL    HW182554  11.064   6.074   9.371
26905SOL    HW282555  10.956   6.095   9.476
26906SOL     OW82556   5.898   0.520   6.728
26906SOL    HW182557   5.929   0.456   6.791
26906SOL    HW282558   5.804   0.507   6.724
26907SOL     OW82559   1.383  11.066   4.747
26907SOL    HW182560   1.352  11.106   4.666
26907SOL    HW282561   1.355  11.126   4.816
26908SOL     OW82562   1.889  12.813   2.610
26908SOL    HW182563   1.918  12.754   2.540
26908SOL    HW282564   1.968  12.859   2.637
26909SOL     OW82565   9.671   6.911  10.142
26909SOL    HW182566   9.593   6.967  10.150
26909SOL    HW282567   9.639   6.823  10.163
26910SOL     OW82568  12.027   8.909   2.208
26910SOL    HW182569  12.062   8.820   2.206
26910SOL    HW282570  11.975   8.916   2.128
26911SOL     OW82571   3.339   0.785   7.841
26911SOL    HW182572   3.389   0.709   7.872
26911SOL    HW282573   3.311   0.829   7.922
26912SOL     OW82574  14.757   4.385   4.852
26912SOL    HW182575  14.797   4.417   4.932
26912SOL    HW282576  14.743   4.291   4.867
26913SOL     OW82577   3.038   9.138   8.603
26913SOL    HW182578   3.044   9.143   8.698
26913SOL    HW282579   3.047   9.229   8.574
26914SOL     OW82580   4.942  14.459  11.819
26914SOL    HW182581   4.920  14.370  11.791
26914SOL    HW282582   5.031  14.473  11.786
26915SOL     OW82583  12.241   9.118   9.630
26915SOL    HW182584  12.178   9.137   9.560
26915SOL    HW282585  12.259   9.024   9.620
26916SOL     OW82586  13.356  13.075   4.389
26916SOL    HW182587  13.265  13.104   4.389
26916SOL    HW282588  13.365  13.022   4.310
26917SOL     OW82589  14.497   4.585   0.369
26917SOL    HW182590  14.462   4.526   0.436
26917SOL    HW282591  14.452   4.668   0.386
26918SOL     OW82592   5.171   0.400   1.955
26918SOL    HW182593   5.100   0.338   1.971
26918SOL    HW282594   5.237   0.379   2.021
26919SOL     OW82595  10.214   7.861   3.377
26919SOL    HW182596  10.235   7.943   3.333
26919SOL    HW282597  10.128   7.876   3.417
26920SOL     OW82598   4.942   2.224   3.848
26920SOL    HW182599   4.875   2.251   3.912
26920SOL    HW282600   4.919   2.272   3.768
26921SOL     OW82601   3.987  12.499  11.846
26921SOL    HW182602   3.908  12.485  11.793
26921SOL    HW282603   4.047  12.545  11.787
26922SOL     OW82604   6.087   6.973   1.384
26922SOL    HW182605   6.014   6.920   1.353
26922SOL    HW282606   6.089   6.959   1.479
26923SOL     OW82607  12.557  10.316   4.717
26923SOL    HW182608  12.550  10.279   4.629
26923SOL    HW282609  12.511  10.253   4.773
26924SOL     OW82610   9.924   3.389   5.823
26924SOL    HW182611   9.838   3.419   5.853
26924SOL    HW282612   9.982   3.404   5.897
26925SOL     OW82613  14.730   0.330   0.982
26925SOL    HW182614  14.748   0.419   0.953
26925SOL    HW282615  14.637   0.316   0.961
26926SOL     OW82616   5.128   9.288  13.474
26926SOL    HW182617   5.034   9.275  13.483
26926SOL    HW282618   5.138   9.377  13.441
26927SOL     OW82619  14.807   3.075   6.680
26927SOL    HW182620  14.830   3.109   6.593
26927SOL    HW282621  14.791   2.982   6.665
26928SOL     OW82622   5.499   8.480   0.215
26928SOL    HW182623   5.463   8.400   0.176
26928SOL    HW282624   5.585   8.454   0.249
26929SOL     OW82625  12.955   6.250   1.164
26929SOL    HW182626  12.969   6.210   1.249
26929SOL    HW282627  13.043   6.272   1.132
26930SOL     OW82628  12.278   4.472  12.082
26930SOL    HW182629  12.243   4.532  12.016
26930SOL    HW282630  12.302   4.529  12.155
26931SOL     OW82631  11.988  12.292   2.495
26931SOL    HW182632  12.013  12.384   2.506
26931SOL    HW282633  11.975  12.283   2.400
26932SOL     OW82634   3.374   2.473   3.493
26932SOL    HW182635   3.392   2.423   3.572
26932SOL    HW282636   3.354   2.407   3.426
26933SOL     OW82637  10.909   1.862  14.117
26933SOL    HW182638  10.969   1.826  14.182
26933SOL    HW282639  10.910   1.957  14.133
26934SOL     OW82640   0.938  14.521  14.456
26934SOL    HW182641   0.956  14.559  14.369
26934SOL    HW282642   0.852  14.555  14.479
26935SOL     OW82643   3.620  11.440   4.620
26935SOL    HW182644   3.653  11.510   4.677
26935SOL    HW282645   3.697  11.387   4.601
26936SOL     OW82646   4.243   1.220  13.230
26936SOL    HW182647   4.196   1.182  13.156
26936SOL    HW282648   4.330   1.180  13.227
26937SOL     OW82649  12.000   9.939   2.884
26937SOL    HW182650  11.915   9.919   2.924
26937SOL    HW282651  11.978   9.991   2.807
26938SOL     OW82652   9.640   3.348  13.500
26938SOL    HW182653   9.726   3.385  13.480
26938SOL    HW282654   9.613   3.391  13.581
26939SOL     OW82655   5.883   4.293  10.858
26939SOL    HW182656   5.809   4.241  10.890
26939SOL    HW282657   5.884   4.277  10.764
26940SOL     OW82658  14.296   5.577   1.605
26940SOL    HW182659  14.293   5.575   1.700
26940SOL    HW282660  14.284   5.486   1.578
26941SOL     OW82661  13.262  12.875   7.587
26941SOL    HW182662  13.260  12.942   7.655
26941SOL    HW282663  13.350  12.837   7.593
26942SOL     OW82664  12.872   6.076  12.714
26942SOL    HW182665  12.885   6.150  12.656
26942SOL    HW282666  12.779   6.079  12.738
26943SOL     OW82667   3.833  11.484  13.037
26943SOL    HW182668   3.901  11.418  13.052
26943SOL    HW282669   3.806  11.511  13.124
26944SOL     OW82670  13.390   2.977   4.396
26944SOL    HW182671  13.399   2.944   4.486
26944SOL    HW282672  13.435   2.912   4.342
26945SOL     OW82673   4.484   9.381  10.656
26945SOL    HW182674   4.579   9.385  10.664
26945SOL    HW282675   4.453   9.468  10.682
26946SOL     OW82676   8.766  11.753   0.735
26946SOL    HW182677   8.675  11.728   0.751
26946SOL    HW282678   8.766  11.848   0.740
26947SOL     OW82679   7.644   9.240   7.647
26947SOL    HW182680   7.714   9.254   7.710
26947SOL    HW282681   7.564   9.266   7.693
26948SOL     OW82682   6.802  13.142  12.315
26948SOL    HW182683   6.773  13.146  12.406
26948SOL    HW282684   6.832  13.052  12.302
26949SOL     OW82685   3.416   1.696   9.451
26949SOL    HW182686   3.415   1.789   9.472
26949SOL    HW282687   3.499   1.664   9.487
26950SOL     OW82688   4.206  11.104  10.453
26950SOL    HW182689   4.185  11.197  10.450
26950SOL    HW282690   4.293  11.100  10.492
26951SOL     OW82691   8.963  12.399   7.842
26951SOL    HW182692   9.009  12.322   7.876
26951SOL    HW282693   9.031  12.456   7.808
26952SOL     OW82694  12.268   7.637   1.835
26952SOL    HW182695  12.347   7.667   1.879
26952SOL    HW282696  12.196   7.664   1.893
26953SOL     OW82697  12.185   5.140   7.486
26953SOL    HW182698  12.162   5.059   7.532
26953SOL    HW282699  12.134   5.138   7.405
26954SOL     OW82700   1.797   2.450   6.595
26954SOL    HW182701   1.845   2.450   6.678
26954SOL    HW282702   1.864   2.441   6.528
26955SOL     OW82703   5.929   1.654   7.646
26955SOL    HW182704   5.916   1.571   7.692
26955SOL    HW282705   5.930   1.631   7.554
26956SOL     OW82706   2.463   9.528   8.223
26956SOL    HW182707   2.548   9.572   8.223
26956SOL    HW282708   2.418   9.561   8.145
26957SOL     OW82709  12.382  11.418   9.536
26957SOL    HW182710  12.425  11.438   9.619
26957SOL    HW282711  12.304  11.369   9.561
26958SOL     OW82712   4.846  13.210   8.485
26958SOL    HW182713   4.866  13.271   8.414
26958SOL    HW282714   4.920  13.149   8.486
26959SOL     OW82715   4.091  11.479   5.154
26959SOL    HW182716   4.078  11.564   5.196
26959SOL    HW282717   4.003  11.443   5.145
26960SOL     OW82718   4.053   2.596   5.157
26960SOL    HW182719   4.020   2.507   5.149
26960SOL    HW282720   4.008   2.631   5.234
26961SOL     OW82721  10.065  11.046   0.369
26961SOL    HW182722  10.075  11.100   0.448
26961SOL    HW282723   9.971  11.040   0.356
26962SOL     OW82724   7.996  11.135   1.185
26962SOL    HW182725   8.027  11.046   1.169
26962SOL    HW282726   7.983  11.172   1.097
26963SOL     OW82727   0.006  10.228  10.073
26963SOL    HW182728   0.090  10.190  10.099
26963SOL    HW282729  14.818  10.156  10.080
26964SOL     OW82730   0.926   1.410   7.665
26964SOL    HW182731   0.988   1.338   7.671
26964SOL    HW282732   0.915   1.440   7.755
26965SOL     OW82733   9.063   9.735  12.440
26965SOL    HW182734   9.141   9.707  12.487
26965SOL    HW282735   9.085   9.722  12.348
26966SOL     OW82736   5.629   4.508  10.207
26966SOL    HW182737   5.720   4.494  10.233
26966SOL    HW282738   5.616   4.602  10.215
26967SOL     OW82739  12.383   3.491   5.539
26967SOL    HW182740  12.406   3.577   5.505
26967SOL    HW282741  12.288   3.495   5.551
26968SOL     OW82742   0.309   2.671   5.225
26968SOL    HW182743   0.344   2.742   5.279
26968SOL    HW282744   0.216   2.691   5.217
26969SOL     OW82745   4.982   2.410   8.821
26969SOL    HW182746   4.966   2.415   8.727
26969SOL    HW282747   5.002   2.501   8.847
26970SOL     OW82748   9.221   8.187   5.887
26970SOL    HW182749   9.309   8.158   5.913
26970SOL    HW282750   9.178   8.211   5.969
26971SOL     OW82751  13.252   7.904   6.760
26971SOL    HW182752  13.188   7.848   6.716
26971SOL    HW282753  13.335   7.856   6.752
26972SOL     OW82754  14.637   8.185   4.057
26972SOL    HW182755  14.564   8.247   4.062
26972SOL    HW282756  14.597   8.104   4.023
26973SOL     OW82757   3.222  14.270  11.357
26973SOL    HW182758   3.288  14.339  11.355
26973SOL    HW282759   3.140  14.316  11.378
26974SOL     OW82760   1.042   9.071   7.826
26974SOL    HW182761   1.092   9.053   7.747
26974SOL    HW282762   1.087   9.020   7.895
26975SOL     OW82763   6.402   2.019   9.547
26975SOL    HW182764   6.383   2.074   9.471
26975SOL    HW282765   6.369   2.068   9.622
26976SOL     OW82766   6.478   5.004  12.801
26976SOL    HW182767   6.436   5.035  12.881
26976SOL    HW282768   6.558   5.055  12.795
26977SOL     OW82769   2.882   5.112   2.075
26977SOL    HW182770   2.809   5.117   2.137
26977SOL    HW282771   2.841   5.087   1.992
26978SOL     OW82772   0.103   2.452  10.598
26978SOL    HW182773   0.106   2.361  10.570
26978SOL    HW282774   0.192   2.484  10.585
26979SOL     OW82775  11.276  11.035   0.559
26979SOL    HW182776  11.367  11.012   0.578
26979SOL    HW282777  11.266  11.018   0.465
26980SOL     OW82778  13.001  10.942   4.751
26980SOL    HW182779  12.982  11.003   4.822
26980SOL    HW282780  12.930  10.957   4.688
26981SOL     OW82781   4.069   7.333  10.905
26981SOL    HW182782   4.107   7.321  10.818
26981SOL    HW282783   4.144   7.329  10.964
26982SOL     OW82784   5.911  13.593   6.577
26982SOL    HW182785   5.925  13.628   6.488
26982SOL    HW282786   5.838  13.644   6.611
26983SOL     OW82787   7.319  14.394  13.670
26983SOL    HW182788   7.343  14.366  13.758
26983SOL    HW282789   7.315  14.489  13.675
26984SOL     OW82790  13.261   9.266   1.709
26984SOL    HW182791  13.239   9.216   1.630
26984SOL    HW282792  13.251   9.203   1.781
26985SOL     OW82793   4.740   3.217  13.948
26985SOL    HW182794   4.735   3.229  13.854
26985SOL    HW282795   4.662   3.261  13.982
26986SOL     OW82796  13.095  10.152   2.286
26986SOL    HW182797  13.070  10.121   2.200
26986SOL    HW282798  13.042  10.230   2.300
26987SOL     OW82799  12.179   1.758   2.782
26987SOL    HW182800  12.187   1.706   2.703
26987SOL    HW282801  12.171   1.693   2.853
26988SOL     OW82802   3.210  11.083   6.695
26988SOL    HW182803   3.202  11.050   6.605
26988SOL    HW282804   3.126  11.064   6.736
26989SOL     OW82805   3.961   2.820   9.282
26989SOL    HW182806   3.893   2.801   9.346
26989SOL    HW282807   4.016   2.741   9.281
26990SOL     OW82808  13.383  10.156   1.049
26990SOL    HW182809  13.306  10.209   1.026
26990SOL    HW282810  13.362  10.069   1.014
26991SOL     OW82811   6.903   4.938   5.149
26991SOL    HW182812   6.959   4.870   5.187
26991SOL    HW282813   6.957   5.017   5.151
26992SOL     OW82814   7.146   0.700   5.133
26992SOL    HW182815   7.174   0.745   5.213
26992SOL    HW282816   7.065   0.655   5.157
26993SOL     OW82817   6.608   6.018   8.404
26993SOL    HW182818   6.521   5.991   8.373
26993SOL    HW282819   6.669   5.965   8.354
26994SOL     OW82820   6.691   6.840  12.445
26994SOL    HW182821   6.597   6.850  12.430
26994SOL    HW282822   6.700   6.842  12.541
26995SOL     OW82823  13.626  12.058   6.398
26995SOL    HW182824  13.587  11.975   6.424
26995SOL    HW282825  13.616  12.114   6.475
26996SOL     OW82826  14.287  13.024   3.489
26996SOL    HW182827  14.216  13.002   3.429
26996SOL    HW282828  14.297  12.946   3.544
26997SOL     OW82829  12.576   7.255   7.203
26997SOL    HW182830  12.504   7.262   7.266
26997SOL    HW282831  12.624   7.337   7.213
26998SOL     OW82832  10.525   6.927   7.128
26998SOL    HW182833  10.462   6.986   7.088
26998SOL    HW282834  10.484   6.841   7.122
26999SOL     OW82835   0.152  12.622  13.883
26999SOL    HW182836   0.194  12.685  13.823
26999SOL    HW282837   0.122  12.676  13.956
27000SOL     OW82838   9.278   4.743   7.090
27000SOL    HW182839   9.319   4.801   7.025
27000SOL    HW282840   9.232   4.677   7.039
27001SOL     OW82841   2.048   2.161  11.429
27001SOL    HW182842   1.992   2.238  11.416
27001SOL    HW282843   1.988   2.093  11.460
27002SOL     OW82844   0.013  12.313  11.257
27002SOL    HW182845   0.009  12.232  11.208
27002SOL    HW282846   0.065  12.372  11.202
27003SOL     OW82847   1.150   1.296   0.815
27003SOL    HW182848   1.175   1.291   0.907
27003SOL    HW282849   1.056   1.310   0.816
27004SOL     OW82850   9.990   7.693  11.038
27004SOL    HW182851  10.070   7.743  11.053
27004SOL    HW282852   9.982   7.687  10.943
27005SOL     OW82853   0.946  11.707   9.866
27005SOL    HW182854   0.868  11.724   9.813
27005SOL    HW282855   1.009  11.773   9.838
27006SOL     OW82856   6.129  12.576   7.111
27006SOL    HW182857   6.069  12.548   7.042
27006SOL    HW282858   6.084  12.553   7.192
27007SOL     OW82859   7.047   9.506  12.246
27007SOL    HW182860   6.964   9.478  12.285
27007SOL    HW282861   7.081   9.428  12.203
27008SOL     OW82862   8.251   1.400   3.226
27008SOL    HW182863   8.271   1.469   3.289
27008SOL    HW282864   8.329   1.396   3.171
27009SOL     OW82865   8.627   3.982   7.294
27009SOL    HW182866   8.635   3.928   7.215
27009SOL    HW282867   8.686   3.940   7.357
27010SOL     OW82868   9.753   1.286  10.783
27010SOL    HW182869   9.671   1.320  10.818
27010SOL    HW282870   9.804   1.263  10.860
27011SOL     OW82871   3.427   0.197   1.635
27011SOL    HW182872   3.344   0.153   1.657
27011SOL    HW282873   3.435   0.267   1.700
27012SOL     OW82874   7.157   6.364   4.784
27012SOL    HW182875   7.196   6.338   4.701
27012SOL    HW282876   7.098   6.292   4.807
27013SOL     OW82877   2.073   0.971   9.662
27013SOL    HW182878   2.097   0.916   9.737
27013SOL    HW282879   1.981   0.950   9.646
27014SOL     OW82880   1.956   6.716  12.282
27014SOL    HW182881   1.932   6.774  12.354
27014SOL    HW282882   1.973   6.631  12.324
27015SOL     OW82883   0.473  12.360   0.740
27015SOL    HW182884   0.536  12.291   0.717
27015SOL    HW282885   0.476  12.421   0.667
27016SOL     OW82886   0.074   9.183  12.832
27016SOL    HW182887   0.123   9.103  12.812
27016SOL    HW282888   0.040   9.212  12.747
27017SOL     OW82889  13.678   9.642  12.212
27017SOL    HW182890  13.741   9.714  12.205
27017SOL    HW282891  13.725   9.574  12.261
27018SOL     OW82892   3.014   3.056   5.844
27018SOL    HW182893   2.986   3.131   5.897
27018SOL    HW282894   3.058   3.095   5.769
27019SOL     OW82895   7.753  14.057  14.398
27019SOL    HW182896   7.798  14.030  14.318
27019SOL    HW282897   7.778  13.992  14.463
27020SOL     OW82898   1.006   8.738   3.926
27020SOL    HW182899   1.008   8.674   3.997
27020SOL    HW282900   0.927   8.789   3.942
27021SOL     OW82901   1.728   3.128   2.799
27021SOL    HW182902   1.741   3.135   2.894
27021SOL    HW282903   1.644   3.083   2.790
27022SOL     OW82904   7.533   6.151   5.266
27022SOL    HW182905   7.597   6.104   5.319
27022SOL    HW282906   7.453   6.100   5.274
27023SOL     OW82907   4.224   3.520   6.289
27023SOL    HW182908   4.263   3.590   6.342
27023SOL    HW282909   4.221   3.557   6.200
27024SOL     OW82910  11.157   1.843  13.269
27024SOL    HW182911  11.128   1.909  13.332
27024SOL    HW282912  11.148   1.886  13.184
27025SOL     OW82913  12.970   0.429   9.247
27025SOL    HW182914  12.905   0.363   9.222
27025SOL    HW282915  12.936   0.466   9.329
27026SOL     OW82916  14.586   1.704   2.969
27026SOL    HW182917  14.613   1.790   3.000
27026SOL    HW282918  14.583   1.650   3.048
27027SOL     OW82919  10.539   4.696   4.306
27027SOL    HW182920  10.581   4.706   4.221
27027SOL    HW282921  10.605   4.725   4.370
27028SOL     OW82922   5.317   4.447   4.083
27028SOL    HW182923   5.286   4.360   4.056
27028SOL    HW282924   5.259   4.471   4.156
27029SOL     OW82925   7.566   2.216   6.773
27029SOL    HW182926   7.616   2.262   6.840
27029SOL    HW282927   7.541   2.285   6.711
27030SOL     OW82928   9.133   1.083   5.474
27030SOL    HW182929   9.134   1.171   5.436
27030SOL    HW282930   9.123   1.097   5.568
27031SOL     OW82931  13.072   2.748  12.335
27031SOL    HW182932  13.156   2.784  12.362
27031SOL    HW282933  13.034   2.713  12.416
27032SOL     OW82934   4.183   1.013  13.054
27032SOL    HW182935   4.134   0.932  13.068
27032SOL    HW282936   4.273   0.985  13.037
27033SOL     OW82937   0.075   3.206   3.514
27033SOL    HW182938   0.069   3.236   3.604
27033SOL    HW282939   0.079   3.110   3.521
27034SOL     OW82940   0.245   8.384   7.174
27034SOL    HW182941   0.227   8.296   7.143
27034SOL    HW282942   0.275   8.373   7.264
27035SOL     OW82943   1.267  14.432  12.749
27035SOL    HW182944   1.290  14.497  12.683
27035SOL    HW282945   1.351  14.409  12.789
27036SOL     OW82946   5.581   2.913   7.002
27036SOL    HW182947   5.627   2.884   6.924
27036SOL    HW282948   5.528   2.988   6.974
27037SOL     OW82949   2.658   7.515  13.268
27037SOL    HW182950   2.670   7.589  13.209
27037SOL    HW282951   2.656   7.553  13.356
27038SOL     OW82952   5.037   8.718  12.560
27038SOL    HW182953   5.084   8.776  12.621
27038SOL    HW282954   4.949   8.711  12.596
27039SOL     OW82955   1.591  10.374   1.452
27039SOL    HW182956   1.673  10.326   1.467
27039SOL    HW282957   1.586  10.436   1.525
27040SOL     OW82958  12.315  14.144   1.962
27040SOL    HW182959  12.303  14.152   1.867
27040SOL    HW282960  12.307  14.050   1.980
27041SOL     OW82961  11.787   6.040   4.589
27041SOL    HW182962  11.756   6.119   4.546
27041SOL    HW282963  11.872   6.023   4.550
27042SOL     OW82964   8.454   7.788  13.917
27042SOL    HW182965   8.419   7.701  13.898
27042SOL    HW282966   8.394   7.824  13.982
27043SOL     OW82967   7.274   6.161   9.934
27043SOL    HW182968   7.337   6.098   9.969
27043SOL    HW282969   7.188   6.128   9.961
27044SOL     OW82970   2.925  12.268   9.923
27044SOL    HW182971   2.831  12.251   9.934
27044SOL    HW282972   2.951  12.212   9.850
27045SOL     OW82973  12.064   6.646  11.441
27045SOL    HW182974  12.144   6.659  11.492
27045SOL    HW282975  12.023   6.732  11.438
27046SOL     OW82976  13.992  12.784   0.633
27046SOL    HW182977  13.914  12.773   0.577
27046SOL    HW282978  14.065  12.779   0.572
27047SOL     OW82979   0.811  12.534  12.284
27047SOL    HW182980   0.899  12.517  12.250
27047SOL    HW282981   0.790  12.457  12.336
27048SOL     OW82982   3.183   7.554   0.169
27048SOL    HW182983   3.236   7.561   0.089
27048SOL    HW282984   3.245   7.573   0.240
27049SOL     OW82985  13.340   6.685   0.502
27049SOL    HW182986  13.318   6.743   0.575
27049SOL    HW282987  13.330   6.739   0.424
27050SOL     OW82988   5.162   4.987   2.185
27050SOL    HW182989   5.074   5.018   2.164
27050SOL    HW282990   5.220   5.036   2.126
27051SOL     OW82991  14.309   9.407  12.991
27051SOL    HW182992  14.246   9.340  12.966
27051SOL    HW282993  14.282   9.485  12.944
27052SOL     OW82994   3.895  13.755   5.366
27052SOL    HW182995   3.822  13.698   5.391
27052SOL    HW282996   3.872  13.841   5.400
27053SOL     OW82997   1.523  10.654   9.431
27053SOL    HW182998   1.465  10.596   9.382
27053SOL    HW282999   1.516  10.738   9.385
27054SOL     OW83000  10.453  11.048   2.987
27054SOL    HW183001  10.399  10.970   2.982
27054SOL    HW283002  10.478  11.054   3.079
27055SOL     OW83003   4.776   1.927   6.233
27055SOL    HW183004   4.823   1.847   6.256
27055SOL    HW283005   4.844   1.994   6.225
27056SOL     OW83006   4.913  12.624  14.346
27056SOL    HW183007   4.967  12.560  14.392
27056SOL    HW283008   4.856  12.572  14.289
27057SOL     OW83009   6.291   3.236   6.933
27057SOL    HW183010   6.374   3.193   6.957
27057SOL    HW283011   6.304   3.327   6.959
27058SOL     OW83012   9.425  10.021  12.904
27058SOL    HW183013   9.344   9.972  12.896
27058SOL    HW283014   9.398  10.112  12.920
27059SOL     OW83015  14.027  10.276  14.436
27059SOL    HW183016  13.987  10.244  14.355
27059SOL    HW283017  13.975  10.237  14.506
27060SOL     OW83018   2.223   1.066   1.405
27060SOL    HW183019   2.199   0.983   1.447
27060SOL    HW283020   2.318   1.063   1.399
27061SOL     OW83021   3.384   7.526   5.326
27061SOL    HW183022   3.312   7.571   5.281
27061SOL    HW283023   3.399   7.447   5.274
27062SOL     OW83024   5.224   7.741   7.324
27062SOL    HW183025   5.187   7.775   7.405
27062SOL    HW283026   5.176   7.787   7.255
27063SOL     OW83027   3.807   7.611   5.231
27063SOL    HW183028   3.765   7.537   5.275
27063SOL    HW283029   3.880   7.572   5.183
27064SOL     OW83030   9.222   2.231   0.354
27064SOL    HW183031   9.317   2.230   0.339
27064SOL    HW283032   9.188   2.292   0.289
27065SOL     OW83033   0.670  10.111   5.785
27065SOL    HW183034   0.606  10.047   5.814
27065SOL    HW283035   0.632  10.150   5.706
27066SOL     OW83036  14.271   3.425  13.187
27066SOL    HW183037  14.313   3.510  13.201
27066SOL    HW283038  14.309   3.392  13.105
27067SOL     OW83039  12.382  11.282   6.427
27067SOL    HW183040  12.440  11.244   6.493
27067SOL    HW283041  12.329  11.345   6.477
27068SOL     OW83042   4.083   4.666  14.638
27068SOL    HW183043   4.142   4.603  14.597
27068SOL    HW283044   3.995   4.637  14.612
27069SOL     OW83045  11.232   1.884  11.207
27069SOL    HW183046  11.297   1.942  11.169
27069SOL    HW283047  11.181   1.940  11.266
27070SOL     OW83048   7.887  13.270   1.170
27070SOL    HW183049   7.887  13.242   1.078
27070SOL    HW283050   7.854  13.359   1.168
27071SOL     OW83051   9.757   3.997   8.153
27071SOL    HW183052   9.745   4.068   8.216
27071SOL    HW283053   9.754   3.917   8.205
27072SOL     OW83054   0.202   5.882   1.767
27072SOL    HW183055   0.187   5.957   1.824
27072SOL    HW283056   0.145   5.896   1.692
27073SOL     OW83057   8.795  13.398   8.578
27073SOL    HW183058   8.842  13.475   8.546
27073SOL    HW283059   8.710  13.402   8.534
27074SOL     OW83060   1.867   7.476   8.533
27074SOL    HW183061   1.950   7.471   8.580
27074SOL    HW283062   1.892   7.482   8.440
27075SOL     OW83063  13.385  10.653  12.675
27075SOL    HW183064  13.337  10.601  12.740
27075SOL    HW283065  13.389  10.740  12.713
27076SOL     OW83066  10.111   8.986  10.359
27076SOL    HW183067  10.177   8.953  10.298
27076SOL    HW283068  10.088   9.072  10.325
27077SOL     OW83069   1.824  11.139  11.607
27077SOL    HW183070   1.794  11.206  11.545
27077SOL    HW283071   1.790  11.168  11.692
27078SOL     OW83072   7.287  12.857   1.662
27078SOL    HW183073   7.315  12.789   1.723
27078SOL    HW283074   7.220  12.816   1.608
27079SOL     OW83075   0.535   4.345   0.771
27079SOL    HW183076   0.475   4.417   0.752
27079SOL    HW283077   0.614   4.388   0.804
27080SOL     OW83078   6.729  10.046   8.190
27080SOL    HW183079   6.676  10.124   8.175
27080SOL    HW283080   6.786  10.069   8.264
27081SOL     OW83081  11.280   8.372   0.046
27081SOL    HW183082  11.237   8.372   0.132
27081SOL    HW283083  11.283   8.280   0.020
27082SOL     OW83084   2.119   1.123   7.301
27082SOL    HW183085   2.076   1.179   7.237
27082SOL    HW283086   2.184   1.180   7.343
27083SOL     OW83087   6.154  14.606  14.806
27083SOL    HW183088   6.212  14.544  14.850
27083SOL    HW283089   6.129  14.562  14.724
27084SOL     OW83090   9.106   2.524   7.634
27084SOL    HW183091   9.151   2.447   7.599
27084SOL    HW283092   9.041   2.489   7.694
27085SOL     OW83093   1.338  14.804   9.086
27085SOL    HW183094   1.273  14.803   9.157
27085SOL    HW283095   1.285  14.806   9.006
27086SOL     OW83096   7.588   3.855   7.062
27086SOL    HW183097   7.629   3.933   7.099
27086SOL    HW283098   7.619   3.783   7.116
27087SOL     OW83099  14.059   4.750   6.428
27087SOL    HW183100  14.094   4.832   6.462
27087SOL    HW283101  14.103   4.682   6.479
27088SOL     OW83102  10.743  11.128   1.276
27088SOL    HW183103  10.760  11.161   1.188
27088SOL    HW283104  10.768  11.200   1.334
27089SOL     OW83105   1.934   9.828  10.958
27089SOL    HW183106   1.877   9.898  10.988
27089SOL    HW283107   1.933   9.763  11.028
27090SOL     OW83108  12.142  13.299  11.104
27090SOL    HW183109  12.161  13.207  11.085
27090SOL    HW283110  12.060  13.316  11.057
27091SOL     OW83111   1.285   7.070  10.116
27091SOL    HW183112   1.370   7.061  10.158
27091SOL    HW283113   1.261   7.161  10.129
27092SOL     OW83114   1.658   8.472   2.526
27092SOL    HW183115   1.589   8.413   2.495
27092SOL    HW283116   1.611   8.548   2.560
27093SOL     OW83117   5.007   9.038  11.297
27093SOL    HW183118   4.964   8.993  11.370
27093SOL    HW283119   5.093   8.997  11.291
27094SOL     OW83120  10.528   6.034   1.219
27094SOL    HW183121  10.547   5.949   1.260
27094SOL    HW283122  10.614   6.069   1.195
27095SOL     OW83123   4.507  14.446   7.250
27095SOL    HW183124   4.412  14.456   7.253
27095SOL    HW283125   4.525  14.368   7.302
27096SOL     OW83126   0.047  13.695  14.225
27096SOL    HW183127   0.138  13.681  14.250
27096SOL    HW283128   0.031  13.788  14.243
27097SOL     OW83129  12.067   5.433  12.732
27097SOL    HW183130  12.130   5.506  12.734
27097SOL    HW283131  12.067   5.399  12.822
27098SOL     OW83132   7.904  14.400  12.429
27098SOL    HW183133   7.948  14.468  12.380
27098SOL    HW283134   7.854  14.447  12.496
27099SOL     OW83135   5.142  13.405   4.832
27099SOL    HW183136   5.118  13.315   4.812
27099SOL    HW283137   5.200  13.399   4.907
27100SOL     OW83138   2.331   6.792  13.620
27100SOL    HW183139   2.237   6.778  13.607
27100SOL    HW283140   2.371   6.708  13.601
27101SOL     OW83141   6.084  13.227   6.074
27101SOL    HW183142   6.040  13.151   6.034
27101SOL    HW283143   6.027  13.253   6.146
27102SOL     OW83144   3.413   1.732  12.156
27102SOL    HW183145   3.378   1.721  12.244
27102SOL    HW283146   3.339   1.767  12.105
27103SOL     OW83147   5.484  13.886   1.284
27103SOL    HW183148   5.487  13.884   1.188
27103SOL    HW283149   5.411  13.829   1.307
27104SOL     OW83150   6.477  12.981  13.700
27104SOL    HW183151   6.394  12.934  13.702
27104SOL    HW283152   6.474  13.037  13.778
27105SOL     OW83153   6.464   6.218  12.948
27105SOL    HW183154   6.506   6.166  12.880
27105SOL    HW283155   6.394   6.265  12.903
27106SOL     OW83156   2.775   0.360  13.157
27106SOL    HW183157   2.732   0.346  13.241
27106SOL    HW283158   2.745   0.287  13.103
27107SOL     OW83159   6.028  11.978   0.329
27107SOL    HW183160   6.057  11.888   0.343
27107SOL    HW283161   5.964  11.994   0.399
27108SOL     OW83162   4.742   7.877  11.667
27108SOL    HW183163   4.691   7.915  11.738
27108SOL    HW283164   4.701   7.909  11.587
27109SOL     OW83165  10.275   6.338   2.238
27109SOL    HW183166  10.345   6.307   2.180
27109SOL    HW283167  10.204   6.275   2.226
27110SOL     OW83168   7.152  12.899  12.961
27110SOL    HW183169   7.140  12.848  13.041
27110SOL    HW283170   7.246  12.899  12.946
27111SOL     OW83171   7.702  14.168   1.560
27111SOL    HW183172   7.726  14.088   1.607
27111SOL    HW283173   7.630  14.205   1.611
27112SOL     OW83174  13.611   9.654   5.579
27112SOL    HW183175  13.688   9.643   5.635
27112SOL    HW283176  13.644   9.705   5.504
27113SOL     OW83177  13.741   7.903   8.286
27113SOL    HW183178  13.785   7.977   8.245
27113SOL    HW283179  13.703   7.939   8.366
27114SOL     OW83180   9.292   1.030   6.727
27114SOL    HW183181   9.387   1.033   6.726
27114SOL    HW283182   9.265   1.111   6.771
27115SOL     OW83183   0.904  14.840   0.153
27115SOL    HW183184   0.820  14.817   0.113
27115SOL    HW283185   0.930  14.762   0.202
27116SOL     OW83186  12.913  13.108  10.734
27116SOL    HW183187  12.846  13.157  10.782
27116SOL    HW283188  12.867  13.032  10.699
27117SOL     OW83189   6.174   1.944  11.292
27117SOL    HW183190   6.136   1.986  11.369
27117SOL    HW283191   6.259   1.911  11.321
27118SOL     OW83192  10.232   5.705  13.486
27118SOL    HW183193  10.326   5.705  13.501
27118SOL    HW283194  10.209   5.613  13.471
27119SOL     OW83195  11.775  10.634  11.969
27119SOL    HW183196  11.814  10.586  11.896
27119SOL    HW283197  11.719  10.569  12.013
27120SOL     OW83198   5.274   1.642  12.845
27120SOL    HW183199   5.333   1.571  12.870
27120SOL    HW283200   5.262   1.693  12.925
27121SOL     OW83201  10.134  11.495   0.452
27121SOL    HW183202  10.090  11.411   0.467
27121SOL    HW283203  10.203  11.498   0.519
27122SOL     OW83204   0.444   8.121   4.307
27122SOL    HW183205   0.508   8.099   4.374
27122SOL    HW283206   0.364   8.076   4.333
27123SOL     OW83207   7.925   6.846   0.859
27123SOL    HW183208   7.942   6.882   0.772
27123SOL    HW283209   7.984   6.771   0.866
27124SOL     OW83210   0.371   3.697   0.803
27124SOL    HW183211   0.379   3.603   0.823
27124SOL    HW283212   0.414   3.740   0.877
27125SOL     OW83213   9.844   2.318   7.749
27125SOL    HW183214   9.840   2.232   7.790
27125SOL    HW283215   9.754   2.352   7.756
27126SOL     OW83216   7.658   6.792   1.273
27126SOL    HW183217   7.690   6.702   1.280
27126SOL    HW283218   7.726   6.839   1.226
27127SOL     OW83219   5.085   0.183   6.539
27127SOL    HW183220   5.039   0.108   6.501
27127SOL    HW283221   5.051   0.189   6.628
27128SOL     OW83222   9.798   4.912   3.407
27128SOL    HW183223   9.796   4.817   3.397
27128SOL    HW283224   9.865   4.928   3.473
27129SOL     OW83225   5.367   7.776   2.076
27129SOL    HW183226   5.295   7.712   2.073
27129SOL    HW283227   5.323   7.861   2.076
27130SOL     OW83228  13.197   1.931   1.086
27130SOL    HW183229  13.106   1.903   1.080
27130SOL    HW283230  13.232   1.918   0.998
27131SOL     OW83231   3.266   3.142  12.440
27131SOL    HW183232   3.248   3.236  12.432
27131SOL    HW283233   3.202   3.100  12.383
27132SOL     OW83234   1.347   6.978   7.994
27132SOL    HW183235   1.367   7.046   7.930
27132SOL    HW283236   1.255   6.956   7.978
27133SOL     OW83237   8.590   2.158   9.990
27133SOL    HW183238   8.534   2.109  10.050
27133SOL    HW283239   8.535   2.230   9.958
27134SOL     OW83240   5.274   8.068   9.113
27134SOL    HW183241   5.316   7.992   9.153
27134SOL    HW283242   5.212   8.030   9.050
27135SOL     OW83243   7.912   1.771   8.889
27135SOL    HW183244   7.862   1.848   8.914
27135SOL    HW283245   7.987   1.805   8.840
27136SOL     OW83246   4.709   3.264  10.228
27136SOL    HW183247   4.699   3.357  10.205
27136SOL    HW283248   4.767   3.264  10.304
27137SOL     OW83249   3.698  13.037   0.205
27137SOL    HW183250   3.744  13.050   0.288
27137SOL    HW283251   3.667  13.124   0.180
27138SOL     OW83252  14.829   8.218  11.550
27138SOL    HW183253  14.830   8.179  11.638
27138SOL    HW283254   0.045   8.211  11.520
27139SOL     OW83255   7.700  10.016   1.737
27139SOL    HW183256   7.614   9.980   1.716
27139SOL    HW283257   7.745  10.020   1.653
27140SOL     OW83258  12.971   4.200   6.786
27140SOL    HW183259  12.949   4.275   6.730
27140SOL    HW283260  13.065   4.208   6.802
27141SOL     OW83261   6.967  13.333   4.703
27141SOL    HW183262   6.939  13.246   4.734
27141SOL    HW283263   6.990  13.380   4.783
27142SOL     OW83264   7.955   5.512   0.723
27142SOL    HW183265   7.929   5.510   0.816
27142SOL    HW283266   8.037   5.561   0.722
27143SOL     OW83267   7.808   6.610   1.975
27143SOL    HW183268   7.903   6.610   1.983
27143SOL    HW283269   7.777   6.548   2.041
27144SOL     OW83270   8.350  12.778   7.597
27144SOL    HW183271   8.371  12.702   7.652
27144SOL    HW283272   8.258  12.767   7.575
27145SOL     OW83273   5.390   5.619   2.530
27145SOL    HW183274   5.396   5.642   2.623
27145SOL    HW283275   5.302   5.646   2.505
27146SOL     OW83276  14.034  12.180   1.163
27146SOL    HW183277  13.997  12.092   1.163
27146SOL    HW283278  14.010  12.217   1.078
27147SOL     OW83279  13.385  10.822  14.422
27147SOL    HW183280  13.355  10.909  14.393
27147SOL    HW283281  13.480  10.832  14.431
27148SOL     OW83282  13.304  10.658  14.833
27148SOL    HW183283  13.381  10.619  14.874
27148SOL    HW283284  13.317  10.644  14.739
27149SOL     OW83285  11.704  12.837   6.571
27149SOL    HW183286  11.613  12.853   6.547
27149SOL    HW283287  11.735  12.771   6.509
27150SOL     OW83288   7.283   5.077  14.406
27150SOL    HW183289   7.378   5.083  14.400
27150SOL    HW283290   7.253   5.168  14.404
27151SOL     OW83291   0.600   6.810   2.880
27151SOL    HW183292   0.531   6.768   2.828
27151SOL    HW283293   0.603   6.900   2.849
27152SOL     OW83294  13.767   8.120   6.027
27152SOL    HW183295  13.731   8.107   6.115
27152SOL    HW283296  13.828   8.193   6.037
27153SOL     OW83297  11.176   6.532  13.357
27153SOL    HW183298  11.264   6.555  13.386
27153SOL    HW283299  11.132   6.501  13.436
27154SOL     OW83300   8.507  13.844   0.391
27154SOL    HW183301   8.467  13.760   0.370
27154SOL    HW283302   8.598  13.823   0.411
27155SOL     OW83303   1.920   4.371   0.373
27155SOL    HW183304   1.828   4.377   0.347
27155SOL    HW283305   1.939   4.455   0.413
27156SOL     OW83306  14.350  14.124   4.228
27156SOL    HW183307  14.258  14.138   4.249
27156SOL    HW283308  14.394  14.126   4.313
27157SOL     OW83309   6.081  14.189   8.948
27157SOL    HW183310   6.092  14.278   8.980
27157SOL    HW283311   6.091  14.134   9.025
27158SOL     OW83312  14.497  10.234  14.566
27158SOL    HW183313  14.478  10.229  14.472
27158SOL    HW283314  14.585  10.197  14.574
27159SOL     OW83315   9.581  10.709  12.533
27159SOL    HW183316   9.650  10.658  12.491
27159SOL    HW283317   9.583  10.680  12.625
27160SOL     OW83318   8.903  14.050  14.594
27160SOL    HW183319   8.938  14.129  14.636
27160SOL    HW283320   8.906  13.984  14.663
27161SOL     OW83321   7.737  11.533   3.513
27161SOL    HW183322   7.737  11.441   3.537
27161SOL    HW283323   7.648  11.551   3.484
27162SOL     OW83324  14.459   0.353  10.019
27162SOL    HW183325  14.487   0.301   9.943
27162SOL    HW283326  14.364   0.343  10.022
27163SOL     OW83327  10.167  11.424   4.254
27163SOL    HW183328  10.245  11.401   4.305
27163SOL    HW283329  10.103  11.357   4.276
27164SOL     OW83330  11.263   6.049   3.829
27164SOL    HW183331  11.334   6.045   3.766
27164SOL    HW283332  11.184   6.057   3.775
27165SOL     OW83333   8.518   9.300   1.618
27165SOL    HW183334   8.556   9.307   1.706
27165SOL    HW283335   8.558   9.222   1.580
27166SOL     OW83336  14.052   2.057  13.292
27166SOL    HW183337  14.082   2.057  13.202
27166SOL    HW283338  13.991   2.130  13.297
27167SOL     OW83339   3.684   5.347   9.246
27167SOL    HW183340   3.724   5.429   9.216
27167SOL    HW283341   3.593   5.353   9.216
27168SOL     OW83342   1.878  12.861   7.183
27168SOL    HW183343   1.864  12.948   7.146
27168SOL    HW283344   1.973  12.851   7.186
27169SOL     OW83345  13.805  10.772   3.767
27169SOL    HW183346  13.843  10.779   3.679
27169SOL    HW283347  13.732  10.711   3.757
27170SOL     OW83348   3.977   2.109   2.451
27170SOL    HW183349   3.921   2.033   2.439
27170SOL    HW283350   3.928   2.167   2.510
27171SOL     OW83351   0.811  14.122   5.248
27171SOL    HW183352   0.874  14.066   5.293
27171SOL    HW283353   0.742  14.136   5.313
27172SOL     OW83354   5.624   1.717   6.179
27172SOL    HW183355   5.659   1.747   6.263
27172SOL    HW283356   5.575   1.638   6.200
27173SOL     OW83357  10.907  10.026   7.393
27173SOL    HW183358  10.947  10.084   7.458
27173SOL    HW283359  10.820  10.006   7.429
27174SOL     OW83360   7.214   7.525   0.390
27174SOL    HW183361   7.189   7.617   0.396
27174SOL    HW283362   7.218   7.507   0.296
27175SOL     OW83363   3.696  10.361   1.203
27175SOL    HW183364   3.744  10.284   1.171
27175SOL    HW283365   3.763  10.430   1.207
27176SOL     OW83366   2.064   2.285   7.698
27176SOL    HW183367   1.992   2.333   7.657
27176SOL    HW283368   2.137   2.347   7.699
27177SOL     OW83369   0.012   7.745   1.857
27177SOL    HW183370  14.862   7.789   1.776
27177SOL    HW283371   0.106   7.760   1.866
27178SOL     OW83372  11.765   5.781   6.417
27178SOL    HW183373  11.790   5.823   6.499
27178SOL    HW283374  11.787   5.689   6.430
27179SOL     OW83375   0.958   7.332   0.053
27179SOL    HW183376   1.032   7.316   0.113
27179SOL    HW283377   0.899   7.389   0.102
27180SOL     OW83378  14.777  12.609  13.560
27180SOL    HW183379  14.802  12.534  13.506
27180SOL    HW283380  14.715  12.659  13.507
27181SOL     OW83381   6.130   7.024  13.650
27181SOL    HW183382   6.124   6.933  13.678
27181SOL    HW283383   6.123   7.021  13.555
27182SOL     OW83384  12.426  12.683   5.773
27182SOL    HW183385  12.405  12.771   5.804
27182SOL    HW283386  12.437  12.693   5.678
27183SOL     OW83387  10.486  13.479   7.572
27183SOL    HW183388  10.400  13.470   7.612
27183SOL    HW283389  10.516  13.389   7.559
27184SOL     OW83390  14.852  11.694   8.857
27184SOL    HW183391   0.022  11.622   8.901
27184SOL    HW283392   0.043  11.729   8.796
27185SOL     OW83393   6.494  11.620   0.316
27185SOL    HW183394   6.473  11.658   0.401
27185SOL    HW283395   6.434  11.546   0.307
27186SOL     OW83396  11.477  11.425  12.770
27186SOL    HW183397  11.562  11.445  12.808
27186SOL    HW283398  11.436  11.364  12.832
27187SOL     OW83399   7.284   5.667   5.914
27187SOL    HW183400   7.294   5.762   5.908
27187SOL    HW283401   7.319   5.634   5.831
27188SOL     OW83402   0.504   0.410  14.000
27188SOL    HW183403   0.590   0.370  13.990
27188SOL    HW283404   0.501   0.478  13.933
27189SOL     OW83405  14.506   0.035   3.832
27189SOL    HW183406  14.597   0.042   3.804
27189SOL    HW283407  14.489  14.815   3.837
27190SOL     OW83408  11.496  12.441  13.582
27190SOL    HW183409  11.492  12.372  13.648
27190SOL    HW283410  11.431  12.505  13.609
27191SOL     OW83411   2.060   5.315  13.684
27191SOL    HW183412   2.082   5.394  13.635
27191SOL    HW283413   2.097   5.330  13.771
27192SOL     OW83414   8.476   5.451   7.058
27192SOL    HW183415   8.420   5.525   7.035
27192SOL    HW283416   8.545   5.489   7.113
27193SOL     OW83417   5.607   2.908   0.181
27193SOL    HW183418   5.573   2.935   0.096
27193SOL    HW283419   5.701   2.923   0.175
27194SOL     OW83420   8.388   2.619   4.265
27194SOL    HW183421   8.395   2.591   4.356
27194SOL    HW283422   8.475   2.656   4.245
27195SOL     OW83423   0.421   8.726  14.414
27195SOL    HW183424   0.376   8.718  14.498
27195SOL    HW283425   0.488   8.792  14.430
27196SOL     OW83426  13.213  12.347   9.389
27196SOL    HW183427  13.213  12.268   9.335
27196SOL    HW283428  13.239  12.417   9.329
27197SOL     OW83429   3.540   6.521   8.541
27197SOL    HW183430   3.531   6.446   8.482
27197SOL    HW283431   3.602   6.491   8.607
27198SOL     OW83432   3.218  11.409   6.691
27198SOL    HW183433   3.147  11.467   6.717
27198SOL    HW283434   3.175  11.336   6.648
27199SOL     OW83435   1.540  14.392  14.652
27199SOL    HW183436   1.491  14.341  14.587
27199SOL    HW283437   1.474  14.445  14.696
27200SOL     OW83438   5.134   6.130  11.717
27200SOL    HW183439   5.085   6.203  11.755
27200SOL    HW283440   5.072   6.088  11.657
27201SOL     OW83441  12.976   0.472   1.974
27201SOL    HW183442  12.931   0.420   2.041
27201SOL    HW283443  13.067   0.445   1.980
27202SOL     OW83444   3.195  10.671  10.491
27202SOL    HW183445   3.102  10.663  10.516
27202SOL    HW283446   3.225  10.750  10.536
27203SOL     OW83447   8.184  10.799  14.371
27203SOL    HW183448   8.159  10.720  14.418
27203SOL    HW283449   8.181  10.773  14.279
27204SOL     OW83450   1.479   4.147  13.003
27204SOL    HW183451   1.494   4.071  12.947
27204SOL    HW283452   1.411   4.118  13.064
27205SOL     OW83453   3.498   9.196  13.327
27205SOL    HW183454   3.403   9.202  13.319
27205SOL    HW283455   3.529   9.286  13.323
27206SOL     OW83456   4.699   0.740  12.945
27206SOL    HW183457   4.680   0.710  12.856
27206SOL    HW283458   4.756   0.816  12.933
27207SOL     OW83459   8.469   4.187   8.652
27207SOL    HW183460   8.423   4.262   8.690
27207SOL    HW283461   8.431   4.179   8.564
27208SOL     OW83462  10.322   2.307  11.114
27208SOL    HW183463  10.300   2.218  11.085
27208SOL    HW283464  10.246   2.335  11.165
27209SOL     OW83465  14.754   0.291   5.826
27209SOL    HW183466  14.744   0.238   5.746
27209SOL    HW283467  14.781   0.377   5.795
27210SOL     OW83468   9.739  10.830   1.361
27210SOL    HW183469   9.724  10.922   1.382
27210SOL    HW283470   9.652  10.794   1.345
27211SOL     OW83471  12.249   8.366  11.368
27211SOL    HW183472  12.229   8.452  11.405
27211SOL    HW283473  12.240   8.378  11.273
27212SOL     OW83474   8.115   1.581   0.508
27212SOL    HW183475   8.203   1.570   0.546
27212SOL    HW283476   8.062   1.513   0.550
27213SOL     OW83477   5.963   5.970   6.609
27213SOL    HW183478   5.893   6.035   6.595
27213SOL    HW283479   6.042   6.014   6.578
27214SOL     OW83480   7.411   6.185  14.012
27214SOL    HW183481   7.482   6.216  14.068
27214SOL    HW283482   7.393   6.258  13.953
27215SOL     OW83483   5.684  13.002   9.709
27215SOL    HW183484   5.670  12.909   9.725
27215SOL    HW283485   5.670  13.014   9.615
27216SOL     OW83486   5.648   4.427   5.202
27216SOL    HW183487   5.670   4.411   5.110
27216SOL    HW283488   5.699   4.504   5.226
27217SOL     OW83489   9.846   1.962  12.667
27217SOL    HW183490   9.898   1.899  12.716
27217SOL    HW283491   9.791   1.908  12.609
27218SOL     OW83492   9.848   9.338  10.503
27218SOL    HW183493   9.801   9.334  10.419
27218SOL    HW283494   9.789   9.297  10.566
27219SOL     OW83495   2.280   6.588  12.811
27219SOL    HW183496   2.300   6.555  12.723
27219SOL    HW283497   2.303   6.516  12.869
27220SOL     OW83498   2.364   6.419  14.447
27220SOL    HW183499   2.384   6.326  14.448
27220SOL    HW283500   2.408   6.455  14.524
27221SOL     OW83501  12.824   2.965  11.083
27221SOL    HW183502  12.783   2.999  11.004
27221SOL    HW283503  12.917   2.984  11.071
27222SOL     OW83504   9.641  12.016  13.354
27222SOL    HW183505   9.716  11.966  13.322
27222SOL    HW283506   9.613  12.068  13.279
27223SOL     OW83507   5.297   2.165  14.071
27223SOL    HW183508   5.203   2.153  14.087
27223SOL    HW283509   5.338   2.144  14.155
27224SOL     OW83510   2.939   8.811   4.277
27224SOL    HW183511   2.892   8.852   4.204
27224SOL    HW283512   3.009   8.761   4.235
27225SOL     OW83513   6.059   3.235   9.361
27225SOL    HW183514   6.142   3.282   9.365
27225SOL    HW283515   6.075   3.162   9.301
27226SOL     OW83516   9.759   6.054   4.144
27226SOL    HW183517   9.799   5.967   4.152
27226SOL    HW283518   9.823   6.114   4.180
27227SOL     OW83519   6.690   8.849  13.013
27227SOL    HW183520   6.631   8.893  12.953
27227SOL    HW283521   6.689   8.903  13.092
27228SOL     OW83522   7.875   2.844   9.764
27228SOL    HW183523   7.802   2.895   9.797
27228SOL    HW283524   7.942   2.909   9.741
27229SOL     OW83525  12.235  12.379   9.646
27229SOL    HW183526  12.244  12.378   9.551
27229SOL    HW283527  12.298  12.313   9.677
27230SOL     OW83528   8.370  11.438  14.346
27230SOL    HW183529   8.452  11.487  14.341
27230SOL    HW283530   8.304  11.497  14.311
27231SOL     OW83531   3.029  10.361   9.256
27231SOL    HW183532   2.986  10.414   9.188
27231SOL    HW283533   3.122  10.377   9.243
27232SOL     OW83534   8.571  11.443  12.985
27232SOL    HW183535   8.660  11.475  12.973
27232SOL    HW283536   8.544  11.416  12.897
27233SOL     OW83537  14.654   8.786   7.840
27233SOL    HW183538  14.691   8.717   7.786
27233SOL    HW283539  14.686   8.868   7.801
27234SOL     OW83540   2.491   7.777  12.876
27234SOL    HW183541   2.408   7.816  12.904
27234SOL    HW283542   2.545   7.853  12.851
27235SOL     OW83543   4.899  12.487   2.599
27235SOL    HW183544   4.954  12.558   2.633
27235SOL    HW283545   4.958  12.412   2.594
27236SOL     OW83546   9.479   2.021   1.517
27236SOL    HW183547   9.523   2.106   1.523
27236SOL    HW283548   9.511   1.983   1.435
27237SOL     OW83549  10.314   0.460   7.110
27237SOL    HW183550  10.240   0.417   7.153
27237SOL    HW283551  10.286   0.552   7.102
27238SOL     OW83552  11.629   7.398   7.419
27238SOL    HW183553  11.582   7.459   7.476
27238SOL    HW283554  11.568   7.380   7.347
27239SOL     OW83555   1.964   4.920   1.942
27239SOL    HW183556   1.906   4.873   1.882
27239SOL    HW283557   2.052   4.905   1.908
27240SOL     OW83558   5.289   8.871   9.818
27240SOL    HW183559   5.299   8.796   9.876
27240SOL    HW283560   5.207   8.856   9.772
27241SOL     OW83561  13.423   6.831  13.610
27241SOL    HW183562  13.387   6.817  13.523
27241SOL    HW283563  13.346   6.842  13.666
27242SOL     OW83564  14.076   2.194  13.718
27242SOL    HW183565  14.171   2.183  13.712
27242SOL    HW283566  14.051   2.141  13.793
27243SOL     OW83567  12.600  12.651  14.533
27243SOL    HW183568  12.510  12.619  14.530
27243SOL    HW283569  12.639  12.606  14.608
27244SOL     OW83570  13.278   1.148  12.935
27244SOL    HW183571  13.191   1.111  12.921
27244SOL    HW283572  13.271   1.198  13.017
27245SOL     OW83573   9.713   1.562   9.941
27245SOL    HW183574   9.622   1.570   9.912
27245SOL    HW283575   9.753   1.502   9.878
27246SOL     OW83576  10.211   0.726   6.366
27246SOL    HW183577  10.256   0.659   6.316
27246SOL    HW283578  10.269   0.802   6.362
27247SOL     OW83579   4.266   5.335   0.945
27247SOL    HW183580   4.351   5.351   0.903
27247SOL    HW283581   4.250   5.242   0.933
27248SOL     OW83582  11.181   8.242   8.287
27248SOL    HW183583  11.174   8.199   8.202
27248SOL    HW283584  11.137   8.326   8.276
27249SOL     OW83585   7.416   3.271   0.036
27249SOL    HW183586   7.469   3.207  14.862
27249SOL    HW283587   7.412   3.236   0.126
27250SOL     OW83588   1.953   4.554   2.829
27250SOL    HW183589   2.041   4.543   2.865
27250SOL    HW283590   1.960   4.625   2.766
27251SOL     OW83591   5.663  10.391   0.970
27251SOL    HW183592   5.615  10.336   0.908
27251SOL    HW283593   5.679  10.333   1.045
27252SOL     OW83594   5.453   0.093  10.212
27252SOL    HW183595   5.507   0.171  10.202
27252SOL    HW283596   5.407   0.106  10.295
27253SOL     OW83597   5.938  13.421   9.749
27253SOL    HW183598   5.950  13.417   9.654
27253SOL    HW283599   5.915  13.332   9.775
27254SOL     OW83600   8.189  12.338   5.226
27254SOL    HW183601   8.181  12.258   5.278
27254SOL    HW283602   8.245  12.312   5.152
27255SOL     OW83603   7.180   8.004   7.122
27255SOL    HW183604   7.191   7.913   7.095
27255SOL    HW283605   7.201   8.004   7.215
27256SOL     OW83606  12.809   9.513   2.469
27256SOL    HW183607  12.847   9.559   2.544
27256SOL    HW283608  12.724   9.556   2.456
27257SOL     OW83609   9.659   6.895   7.357
27257SOL    HW183610   9.668   6.988   7.377
27257SOL    HW283611   9.732   6.876   7.298
27258SOL     OW83612  14.208   2.912   1.286
27258SOL    HW183613  14.197   2.934   1.194
27258SOL    HW283614  14.242   2.822   1.286
27259SOL     OW83615   1.804   1.528   5.588
27259SOL    HW183616   1.727   1.557   5.638
27259SOL    HW283617   1.773   1.451   5.541
27260SOL     OW83618   5.226  11.854  14.776
27260SOL    HW183619   5.133  11.833  14.774
27260SOL    HW283620   5.230  11.941  14.816
27261SOL     OW83621   3.699   0.334   8.454
27261SOL    HW183622   3.789   0.350   8.482
27261SOL    HW283623   3.665   0.271   8.517
27262SOL     OW83624  11.509  11.310   5.991
27262SOL    HW183625  11.589  11.280   5.948
27262SOL    HW283626  11.449  11.329   5.919
27263SOL     OW83627   2.073   2.262  14.750
27263SOL    HW183628   2.006   2.196  14.729
27263SOL    HW283629   2.050   2.293  14.838
27264SOL     OW83630   8.291   7.264  12.110
27264SOL    HW183631   8.237   7.219  12.175
27264SOL    HW283632   8.298   7.353  12.143
27265SOL     OW83633   7.217   1.926   3.981
27265SOL    HW183634   7.183   1.886   3.901
27265SOL    HW283635   7.186   1.869   4.052
27266SOL     OW83636   9.993   0.856   9.121
27266SOL    HW183637  10.034   0.778   9.081
27266SOL    HW283638   9.919   0.821   9.171
27267SOL     OW83639  10.726   5.245  11.070
27267SOL    HW183640  10.805   5.196  11.047
27267SOL    HW283641  10.690   5.200  11.146
27268SOL     OW83642   2.852   7.172  10.766
27268SOL    HW183643   2.830   7.173  10.859
27268SOL    HW283644   2.877   7.262  10.746
27269SOL     OW83645   1.741   0.407  12.932
27269SOL    HW183646   1.667   0.400  12.871
27269SOL    HW283647   1.752   0.318  12.967
27270SOL     OW83648   3.560  14.447   7.617
27270SOL    HW183649   3.492  14.462   7.551
27270SOL    HW283650   3.537  14.507   7.688
27271SOL     OW83651   4.901   4.819   8.494
27271SOL    HW183652   4.987   4.826   8.453
27271SOL    HW283653   4.840   4.811   8.421
27272SOL     OW83654   0.350  10.910   2.192
27272SOL    HW183655   0.441  10.901   2.217
27272SOL    HW283656   0.351  10.907   2.096
27273SOL     OW83657  10.862   5.650  13.742
27273SOL    HW183658  10.809   5.638  13.821
27273SOL    HW283659  10.863   5.564  13.701
27274SOL     OW83660  11.259   7.888   3.666
27274SOL    HW183661  11.271   7.819   3.731
27274SOL    HW283662  11.264   7.843   3.582
27275SOL     OW83663  11.152   9.491   6.426
27275SOL    HW183664  11.221   9.424   6.433
27275SOL    HW283665  11.154   9.537   6.510
27276SOL     OW83666   5.344  14.532   9.343
27276SOL    HW183667   5.376  14.620   9.323
27276SOL    HW283668   5.277  14.515   9.276
27277SOL     OW83669   0.350   3.118   8.332
27277SOL    HW183670   0.260   3.090   8.350
27277SOL    HW283671   0.348   3.148   8.241
27278SOL     OW83672   5.076  10.042   6.560
27278SOL    HW183673   5.075  10.102   6.635
27278SOL    HW283674   5.137  10.082   6.498
27279SOL     OW83675   6.609  11.852  11.140
27279SOL    HW183676   6.552  11.806  11.078
27279SOL    HW283677   6.668  11.784  11.173
27280SOL     OW83678  11.220   0.225  12.562
27280SOL    HW183679  11.193   0.313  12.586
27280SOL    HW283680  11.279   0.237  12.487
27281SOL     OW83681   1.942  14.373  12.860
27281SOL    HW183682   1.910  14.442  12.802
27281SOL    HW283683   1.884  14.299  12.843
27282SOL     OW83684  11.527   8.469   4.827
27282SOL    HW183685  11.569   8.464   4.741
27282SOL    HW283686  11.506   8.378   4.848
27283SOL     OW83687   7.337  13.231   6.121
27283SOL    HW183688   7.247  13.260   6.106
27283SOL    HW283689   7.351  13.162   6.056
27284SOL     OW83690  12.182  12.440  10.906
27284SOL    HW183691  12.216  12.458  10.994
27284SOL    HW283692  12.216  12.353  10.885
27285SOL     OW83693   6.388  13.942  10.783
27285SOL    HW183694   6.352  13.894  10.709
27285SOL    HW283695   6.390  14.033  10.753
27286SOL     OW83696   7.709   4.775   2.226
27286SOL    HW183697   7.701   4.870   2.224
27286SOL    HW283698   7.723   4.753   2.318
27287SOL     OW83699  10.917  10.871   0.878
27287SOL    HW183700  10.854  10.938   0.853
27287SOL    HW283701  11.000  10.900   0.840
27288SOL     OW83702   2.331   8.555   3.431
27288SOL    HW183703   2.383   8.526   3.506
27288SOL    HW283704   2.391   8.551   3.357
27289SOL     OW83705   3.163   0.654   3.029
27289SOL    HW183706   3.150   0.749   3.025
27289SOL    HW283707   3.075   0.617   3.018
27290SOL     OW83708   8.682  12.087   4.267
27290SOL    HW183709   8.599  12.046   4.241
27290SOL    HW283710   8.748  12.020   4.248
27291SOL     OW83711   8.888  13.528   0.442
27291SOL    HW183712   8.799  13.522   0.407
27291SOL    HW283713   8.923  13.439   0.432
27292SOL     OW83714   5.204   2.119   7.345
27292SOL    HW183715   5.276   2.102   7.285
27292SOL    HW283716   5.168   2.202   7.316
27293SOL     OW83717   1.760   5.629   2.717
27293SOL    HW183718   1.818   5.701   2.692
27293SOL    HW283719   1.779   5.614   2.810
27294SOL     OW83720   1.892   9.600   5.402
27294SOL    HW183721   1.831   9.655   5.354
27294SOL    HW283722   1.842   9.571   5.479
27295SOL     OW83723   4.789  12.854   6.928
27295SOL    HW183724   4.720  12.881   6.866
27295SOL    HW283725   4.868  12.851   6.875
27296SOL     OW83726   0.686   5.197   0.884
27296SOL    HW183727   0.752   5.246   0.835
27296SOL    HW283728   0.659   5.257   0.954
27297SOL     OW83729   6.093   5.381  11.309
27297SOL    HW183730   6.172   5.359  11.258
27297SOL    HW283731   6.083   5.476  11.298
27298SOL     OW83732  10.268  14.474   4.854
27298SOL    HW183733  10.303  14.410   4.916
27298SOL    HW283734  10.346  14.518   4.819
27299SOL     OW83735  11.783  11.620   2.995
27299SOL    HW183736  11.839  11.654   3.065
27299SOL    HW283737  11.737  11.696   2.961
27300SOL     OW83738  12.445   7.923   6.199
27300SOL    HW183739  12.526   7.956   6.237
27300SOL    HW283740  12.467   7.836   6.166
27301SOL     OW83741   0.568   2.001   0.453
27301SOL    HW183742   0.622   2.056   0.510
27301SOL    HW283743   0.532   2.061   0.388
27302SOL     OW83744   6.972   4.302   8.210
27302SOL    HW183745   6.902   4.354   8.169
27302SOL    HW283746   7.053   4.343   8.181
27303SOL     OW83747   1.497  12.048   3.228
27303SOL    HW183748   1.501  12.001   3.311
27303SOL    HW283749   1.486  11.980   3.162
27304SOL     OW83750  12.359   2.989   8.733
27304SOL    HW183751  12.433   3.022   8.784
27304SOL    HW283752  12.288   3.050   8.752
27305SOL     OW83753   6.377  12.404   5.736
27305SOL    HW183754   6.349  12.491   5.763
27305SOL    HW283755   6.298  12.361   5.703
27306SOL     OW83756  13.101  14.049   4.922
27306SOL    HW183757  13.116  13.957   4.947
27306SOL    HW283758  13.031  14.045   4.857
27307SOL     OW83759   3.592   8.185  12.810
27307SOL    HW183760   3.527   8.229  12.866
27307SOL    HW283761   3.549   8.177  12.725
27308SOL     OW83762   5.989  12.039   7.393
27308SOL    HW183763   5.941  12.039   7.310
27308SOL    HW283764   5.960  12.119   7.437
27309SOL     OW83765   4.140  13.828   2.871
27309SOL    HW183766   4.091  13.905   2.898
27309SOL    HW283767   4.178  13.852   2.786
27310SOL     OW83768  12.926  11.609  13.880
27310SOL    HW183769  12.845  11.557  13.876
27310SOL    HW283770  12.984  11.567  13.816
27311SOL     OW83771   9.919   7.770   9.810
27311SOL    HW183772   9.951   7.816   9.888
27311SOL    HW283773   9.962   7.814   9.737
27312SOL     OW83774   9.864   3.228  11.822
27312SOL    HW183775   9.941   3.258  11.774
27312SOL    HW283776   9.835   3.150  11.774
27313SOL     OW83777   4.402   4.155  10.485
27313SOL    HW183778   4.411   4.098  10.561
27313SOL    HW283779   4.351   4.229  10.516
27314SOL     OW83780   7.703   3.309   7.036
27314SOL    HW183781   7.695   3.364   6.958
27314SOL    HW283782   7.787   3.265   7.026
27315SOL     OW83783   5.617  11.646   3.056
27315SOL    HW183784   5.618  11.595   2.975
27315SOL    HW283785   5.623  11.737   3.027
27316SOL     OW83786   8.234   9.590   0.432
27316SOL    HW183787   8.159   9.549   0.388
27316SOL    HW283788   8.296   9.608   0.362
27317SOL     OW83789   9.925  13.977   1.158
27317SOL    HW183790   9.998  13.935   1.112
27317SOL    HW283791   9.957  13.987   1.248
27318SOL     OW83792  12.606  10.441   8.927
27318SOL    HW183793  12.516  10.422   8.905
27318SOL    HW283794  12.639  10.361   8.968
27319SOL     OW83795   9.505  14.016   8.215
27319SOL    HW183796   9.470  13.928   8.233
27319SOL    HW283797   9.478  14.068   8.290
27320SOL     OW83798   2.473  11.287  13.367
27320SOL    HW183799   2.553  11.338  13.355
27320SOL    HW283800   2.504  11.204  13.404
27321SOL     OW83801  10.779   9.964   1.861
27321SOL    HW183802  10.734   9.903   1.802
27321SOL    HW283803  10.746  10.050   1.837
27322SOL     OW83804   9.103  11.957   0.166
27322SOL    HW183805   9.158  12.020   0.213
27322SOL    HW283806   9.032  12.010   0.130
27323SOL     OW83807   3.315  11.318   1.621
27323SOL    HW183808   3.381  11.373   1.579
27323SOL    HW283809   3.282  11.372   1.693
27324SOL     OW83810  14.542  10.539   9.903
27324SOL    HW183811  14.483  10.532   9.828
27324SOL    HW283812  14.524  10.461   9.955
27325SOL     OW83813   4.872  13.761   0.245
27325SOL    HW183814   4.960  13.732   0.221
27325SOL    HW283815   4.838  13.802   0.165
27326SOL     OW83816  12.374   4.671  10.162
27326SOL    HW183817  12.292   4.621  10.171
27326SOL    HW283818  12.437   4.625  10.217
27327SOL     OW83819   7.220  13.843   8.821
27327SOL    HW183820   7.285  13.819   8.887
27327SOL    HW283821   7.146  13.785   8.839
27328SOL     OW83822  12.336   1.938  11.110
27328SOL    HW183823  12.382   1.860  11.141
27328SOL    HW283824  12.260   1.945  11.168
27329SOL     OW83825   4.456  13.121   5.636
27329SOL    HW183826   4.407  13.203   5.645
27329SOL    HW283827   4.519  13.137   5.566
27330SOL     OW83828  11.663  11.433   5.213
27330SOL    HW183829  11.679  11.364   5.149
27330SOL    HW283830  11.737  11.426   5.274
27331SOL     OW83831  12.270  11.382   5.151
27331SOL    HW183832  12.303  11.453   5.206
27331SOL    HW283833  12.321  11.305   5.178
27332SOL     OW83834   4.944   6.046   0.220
27332SOL    HW183835   4.920   5.953   0.215
27332SOL    HW283836   4.992   6.063   0.139
27333SOL     OW83837   1.659   0.702   8.894
27333SOL    HW183838   1.641   0.766   8.962
27333SOL    HW283839   1.667   0.753   8.814
27334SOL     OW83840   1.493  10.135   7.062
27334SOL    HW183841   1.447  10.190   7.126
27334SOL    HW283842   1.585  10.142   7.087
27335SOL     OW83843   9.318   6.814  12.084
27335SOL    HW183844   9.257   6.863  12.028
27335SOL    HW283845   9.271   6.735  12.108
27336SOL     OW83846   3.556   5.562   8.591
27336SOL    HW183847   3.503   5.610   8.527
27336SOL    HW283848   3.493   5.511   8.642
27337SOL     OW83849   1.524   0.417   5.731
27337SOL    HW183850   1.481   0.360   5.667
27337SOL    HW283851   1.560   0.488   5.679
27338SOL     OW83852   8.864   4.419   9.252
27338SOL    HW183853   8.869   4.500   9.303
27338SOL    HW283854   8.796   4.368   9.296
27339SOL     OW83855  11.898  14.729  13.056
27339SOL    HW183856  11.895  14.686  13.142
27339SOL    HW283857  11.948  14.809  13.070
27340SOL     OW83858  11.960   9.525   5.889
27340SOL    HW183859  12.028   9.478   5.937
27340SOL    HW283860  12.007   9.581   5.828
27341SOL     OW83861   2.233   5.111   9.064
27341SOL    HW183862   2.275   5.184   9.018
27341SOL    HW283863   2.293   5.037   9.051
27342SOL     OW83864   0.533  10.659   7.364
27342SOL    HW183865   0.568  10.570   7.364
27342SOL    HW283866   0.450  10.653   7.412
27343SOL     OW83867   5.578  10.746  10.607
27343SOL    HW183868   5.577  10.731  10.702
27343SOL    HW283869   5.582  10.842  10.598
27344SOL     OW83870   3.026   5.811  14.443
27344SOL    HW183871   3.084   5.789  14.515
27344SOL    HW283872   2.962   5.872  14.480
27345SOL     OW83873  10.283   9.323   7.348
27345SOL    HW183874  10.225   9.256   7.313
27345SOL    HW283875  10.328   9.281   7.421
27346SOL     OW83876   4.445   7.897   3.566
27346SOL    HW183877   4.489   7.859   3.490
27346SOL    HW283878   4.488   7.981   3.580
27347SOL     OW83879  14.734   9.961  10.042
27347SOL    HW183880  14.715   9.991   9.954
27347SOL    HW283881  14.657   9.910  10.068
27348SOL     OW83882   7.083  13.758   3.971
27348SOL    HW183883   7.078  13.747   4.065
27348SOL    HW283884   7.132  13.839   3.958
27349SOL     OW83885   8.282   0.725   3.129
27349SOL    HW183886   8.204   0.674   3.106
27349SOL    HW283887   8.352   0.687   3.075
27350SOL     OW83888   1.896  10.953   2.851
27350SOL    HW183889   1.991  10.948   2.856
27350SOL    HW283890   1.869  10.867   2.818
27351SOL     OW83891   5.790   7.978  13.514
27351SOL    HW183892   5.702   7.975  13.551
27351SOL    HW283893   5.779   8.011  13.425
27352SOL     OW83894   6.738   5.936  10.193
27352SOL    HW183895   6.724   5.890  10.110
27352SOL    HW283896   6.811   5.994  10.176
27353SOL     OW83897  10.317  14.329   2.817
27353SOL    HW183898  10.287  14.414   2.787
27353SOL    HW283899  10.240  14.272   2.812
27354SOL     OW83900   5.626  12.702  14.032
27354SOL    HW183901   5.631  12.724  14.125
27354SOL    HW283902   5.582  12.777  13.992
27355SOL     OW83903   3.737  12.432   6.437
27355SOL    HW183904   3.686  12.465   6.511
27355SOL    HW283905   3.806  12.497   6.425
27356SOL     OW83906   4.705   3.637   6.659
27356SOL    HW183907   4.677   3.547   6.675
27356SOL    HW283908   4.661   3.689   6.727
27357SOL     OW83909  11.364   1.077   4.745
27357SOL    HW183910  11.287   1.052   4.796
27357SOL    HW283911  11.343   1.053   4.655
27358SOL     OW83912  13.231   1.182  12.056
27358SOL    HW183913  13.253   1.215  11.969
27358SOL    HW283914  13.135   1.191  12.061
27359SOL     OW83915   0.465  10.909  11.176
27359SOL    HW183916   0.466  10.931  11.083
27359SOL    HW283917   0.462  10.993  11.221
27360SOL     OW83918   3.962   6.900   8.060
27360SOL    HW183919   4.046   6.945   8.069
27360SOL    HW283920   3.930   6.890   8.150
27361SOL     OW83921   8.018   2.995   3.575
27361SOL    HW183922   7.929   2.970   3.601
27361SOL    HW283923   8.068   2.914   3.584
27362SOL     OW83924   7.315  13.688   8.448
27362SOL    HW183925   7.344  13.760   8.505
27362SOL    HW283926   7.237  13.722   8.404
27363SOL     OW83927  10.164  10.390  10.078
27363SOL    HW183928  10.127  10.454  10.016
27363SOL    HW283929  10.088  10.352  10.121
27364SOL     OW83930  13.335   0.488   9.857
27364SOL    HW183931  13.332   0.497   9.762
27364SOL    HW283932  13.428   0.497   9.879
27365SOL     OW83933   3.606   6.867   8.847
27365SOL    HW183934   3.667   6.811   8.895
27365SOL    HW283935   3.584   6.937   8.908
27366SOL     OW83936   3.843   6.891   3.278
27366SOL    HW183937   3.933   6.869   3.256
27366SOL    HW283938   3.802   6.913   3.195
27367SOL     OW83939  10.272   5.293   0.356
27367SOL    HW183940  10.221   5.216   0.331
27367SOL    HW283941  10.209   5.365   0.353
27368SOL     OW83942   7.160  11.028   9.598
27368SOL    HW183943   7.140  10.997   9.687
27368SOL    HW283944   7.076  11.025   9.553
27369SOL     OW83945  10.249   1.065   2.008
27369SOL    HW183946  10.204   1.032   1.931
27369SOL    HW283947  10.324   1.114   1.974
27370SOL     OW83948  10.110   7.115   6.225
27370SOL    HW183949  10.158   7.129   6.307
27370SOL    HW283950  10.170   7.145   6.157
27371SOL     OW83951  14.063  11.176   4.835
27371SOL    HW183952  14.091  11.087   4.857
27371SOL    HW283953  14.085  11.186   4.742
27372SOL     OW83954   4.068   2.195   0.595
27372SOL    HW183955   3.980   2.231   0.581
27372SOL    HW283956   4.059   2.102   0.578
27373SOL     OW83957   5.561   2.751   2.808
27373SOL    HW183958   5.656   2.746   2.822
27373SOL    HW283959   5.548   2.716   2.720
27374SOL     OW83960   2.504  12.028  13.077
27374SOL    HW183961   2.551  12.104  13.112
27374SOL    HW283962   2.568  11.983  13.022
27375SOL     OW83963   8.591   9.911  14.821
27375SOL    HW183964   8.574   9.915   0.041
27375SOL    HW283965   8.538   9.981  14.783
27376SOL     OW83966  11.216   4.171   7.943
27376SOL    HW183967  11.206   4.196   8.035
27376SOL    HW283968  11.289   4.223   7.911
27377SOL     OW83969  12.094   3.246   4.219
27377SOL    HW183970  12.020   3.295   4.183
27377SOL    HW283971  12.095   3.164   4.171
27378SOL     OW83972   7.460   6.696  13.588
27378SOL    HW183973   7.524   6.736  13.528
27378SOL    HW283974   7.399   6.650  13.530
27379SOL     OW83975   8.393   9.904   4.307
27379SOL    HW183976   8.319   9.859   4.265
27379SOL    HW283977   8.381   9.886   4.400
27380SOL     OW83978   7.972  10.183  10.378
27380SOL    HW183979   7.974  10.093  10.344
27380SOL    HW283980   7.982  10.238  10.301
27381SOL     OW83981   7.702  14.486   8.365
27381SOL    HW183982   7.610  14.480   8.390
27381SOL    HW283983   7.744  14.416   8.414
27382SOL     OW83984  12.982   3.630   0.100
27382SOL    HW183985  12.943   3.581   0.027
27382SOL    HW283986  12.942   3.593   0.178
27383SOL     OW83987  10.867  13.018   0.101
27383SOL    HW183988  10.930  12.999   0.031
27383SOL    HW283989  10.917  13.006   0.181
27384SOL     OW83990   8.200  14.186   3.054
27384SOL    HW183991   8.275  14.245   3.054
27384SOL    HW283992   8.172  14.182   2.962
27385SOL     OW83993   9.975   4.192   8.087
27385SOL    HW183994   9.956   4.124   8.022
27385SOL    HW283995   9.946   4.155   8.170
27386SOL     OW83996   3.515   7.077   0.660
27386SOL    HW183997   3.535   7.156   0.609
27386SOL    HW283998   3.517   7.006   0.596
27387SOL     OW83999   1.705   7.299   0.353
27387SOL    HW184000   1.714   7.318   0.260
27387SOL    HW284001   1.791   7.264   0.379
27388SOL     OW84002   2.570   9.975   9.409
27388SOL    HW184003   2.572  10.061   9.367
27388SOL    HW284004   2.556   9.995   9.502
27389SOL     OW84005   2.788   1.946  13.552
27389SOL    HW184006   2.803   1.860  13.513
27389SOL    HW284007   2.867   1.995  13.532
27390SOL     OW84008   7.569   7.999   4.495
27390SOL    HW184009   7.560   7.905   4.479
27390SOL    HW284010   7.479   8.032   4.491
27391SOL     OW84011  10.857   3.707   9.316
27391SOL    HW184012  10.928   3.771   9.308
27391SOL    HW284013  10.883   3.652   9.390
27392SOL     OW84014   5.724   5.492   0.515
27392SOL    HW184015   5.776   5.467   0.438
27392SOL    HW284016   5.634   5.474   0.490
27393SOL     OW84017  12.069   1.869   5.804
27393SOL    HW184018  12.081   1.809   5.877
27393SOL    HW284019  11.977   1.860   5.780
27394SOL     OW84020   5.633   4.993   1.172
27394SOL    HW184021   5.694   4.920   1.174
27394SOL    HW284022   5.605   4.999   1.081
27395SOL     OW84023  11.676  13.269  11.186
27395SOL    HW184024  11.725  13.327  11.127
27395SOL    HW284025  11.735  13.196  11.203
27396SOL     OW84026   5.285   5.043   8.002
27396SOL    HW184027   5.236   5.051   8.085
27396SOL    HW284028   5.342   5.120   8.001
27397SOL     OW84029   1.914   9.854   1.870
27397SOL    HW184030   1.882   9.770   1.839
27397SOL    HW284031   1.965   9.889   1.798
27398SOL     OW84032  11.793   6.515   4.569
27398SOL    HW184033  11.770   6.540   4.480
27398SOL    HW284034  11.888   6.518   4.572
27399SOL     OW84035   9.589   1.958  12.848
27399SOL    HW184036   9.635   1.948  12.932
27399SOL    HW284037   9.634   1.896  12.790
27400SOL     OW84038  11.223   7.688   3.140
27400SOL    HW184039  11.310   7.648   3.143
27400SOL    HW284040  11.209   7.709   3.048
27401SOL     OW84041  14.374   8.569   1.390
27401SOL    HW184042  14.447   8.515   1.360
27401SOL    HW284043  14.302   8.547   1.331
27402SOL     OW84044   2.368   4.939   4.665
27402SOL    HW184045   2.377   5.031   4.643
27402SOL    HW284046   2.439   4.895   4.619
27403SOL     OW84047   3.954   6.845   3.860
27403SOL    HW184048   4.048   6.839   3.844
27403SOL    HW284049   3.946   6.844   3.956
27404SOL     OW84050   6.795   8.878  11.607
27404SOL    HW184051   6.864   8.943  11.618
27404SOL    HW284052   6.842   8.794  11.606
27405SOL     OW84053   8.838  13.674   4.395
27405SOL    HW184054   8.754  13.637   4.424
27405SOL    HW284055   8.825  13.693   4.302
27406SOL     OW84056   7.758  14.520  13.042
27406SOL    HW184057   7.790  14.475  13.121
27406SOL    HW284058   7.696  14.585  13.075
27407SOL     OW84059  14.416   0.443   6.711
27407SOL    HW184060  14.436   0.447   6.805
27407SOL    HW284061  14.497   0.467   6.668
27408SOL     OW84062   7.399  13.786  11.698
27408SOL    HW184063   7.388  13.781  11.792
27408SOL    HW284064   7.313  13.766  11.662
27409SOL     OW84065  11.637  12.086   7.593
27409SOL    HW184066  11.592  12.016   7.547
27409SOL    HW284067  11.690  12.129   7.526
27410SOL     OW84068  12.495  13.035  11.564
27410SOL    HW184069  12.571  13.080  11.602
27410SOL    HW284070  12.515  13.030  11.470
27411SOL     OW84071  11.338   5.120  12.214
27411SOL    HW184072  11.431   5.136  12.195
27411SOL    HW284073  11.296   5.121  12.128
27412SOL     OW84074  13.325   8.941  13.257
27412SOL    HW184075  13.315   9.028  13.219
27412SOL    HW284076  13.249   8.931  13.315
27413SOL     OW84077  14.671  14.723   2.884
27413SOL    HW184078  14.640  14.633   2.891
27413SOL    HW284079  14.646  14.765   2.966
27414SOL     OW84080   0.913   5.504   7.381
27414SOL    HW184081   0.906   5.410   7.398
27414SOL    HW284082   0.854   5.544   7.445
27415SOL     OW84083   6.779   4.816  14.481
27415SOL    HW184084   6.777   4.786  14.572
27415SOL    HW284085   6.820   4.745  14.432
27416SOL     OW84086  13.037   1.676   8.408
27416SOL    HW184087  13.115   1.644   8.453
27416SOL    HW284088  13.048   1.770   8.403
27417SOL     OW84089  14.742   9.282   2.561
27417SOL    HW184090  14.797   9.355   2.590
27417SOL    HW284091  14.654   9.318   2.557
27418SOL     OW84092   5.935   1.578  13.906
27418SOL    HW184093   5.940   1.651  13.845
27418SOL    HW284094   5.860   1.599  13.962
27419SOL     OW84095  10.218  10.388   1.768
27419SOL    HW184096  10.133  10.432   1.766
27419SOL    HW284097  10.227  10.358   1.858
27420SOL     OW84098   6.610  12.104  11.050
27420SOL    HW184099   6.678  12.155  11.094
27420SOL    HW284100   6.620  12.016  11.086
27421SOL     OW84101   9.281  14.577   0.572
27421SOL    HW184102   9.320  14.654   0.529
27421SOL    HW284103   9.345  14.554   0.640
27422SOL     OW84104   0.911   1.616   8.638
27422SOL    HW184105   0.975   1.597   8.708
27422SOL    HW284106   0.870   1.531   8.620
27423SOL     OW84107   2.081  13.222  10.935
27423SOL    HW184108   2.094  13.242  10.843
27423SOL    HW284109   2.078  13.127  10.940
27424SOL     OW84110   8.732   6.705   7.083
27424SOL    HW184111   8.688   6.779   7.125
27424SOL    HW284112   8.801   6.680   7.145
27425SOL     OW84113  12.604  10.081   7.189
27425SOL    HW184114  12.642  10.147   7.246
27425SOL    HW284115  12.562  10.019   7.249
27426SOL     OW84116   7.048   1.939   8.311
27426SOL    HW184117   6.967   1.983   8.285
27426SOL    HW284118   7.115   2.007   8.302
27427SOL     OW84119   5.360  13.519   1.684
27427SOL    HW184120   5.353  13.424   1.684
27427SOL    HW284121   5.297  13.548   1.618
27428SOL     OW84122  10.870  14.538  14.158
27428SOL    HW184123  10.849  14.449  14.187
27428SOL    HW284124  10.862  14.535  14.063
27429SOL     OW84125   7.246   3.858  11.288
27429SOL    HW184126   7.302   3.781  11.287
27429SOL    HW284127   7.195   3.850  11.369
27430SOL     OW84128  13.761   7.398   0.968
27430SOL    HW184129  13.737   7.459   0.898
27430SOL    HW284130  13.770   7.453   1.046
27431SOL     OW84131   1.916  13.834   6.338
27431SOL    HW184132   1.958  13.835   6.252
27431SOL    HW284133   1.934  13.920   6.375
27432SOL     OW84134   7.567   7.119  10.730
27432SOL    HW184135   7.475   7.140  10.713
27432SOL    HW284136   7.614   7.155  10.655
27433SOL     OW84137  13.293   6.900   4.538
27433SOL    HW184138  13.286   6.970   4.473
27433SOL    HW284139  13.339   6.940   4.611
27434SOL     OW84140   8.384   6.757  14.214
27434SOL    HW184141   8.363   6.719  14.129
27434SOL    HW284142   8.433   6.689  14.260
27435SOL     OW84143   6.959   9.321  10.330
27435SOL    HW184144   6.873   9.292  10.360
27435SOL    HW284145   6.961   9.415  10.347
27436SOL     OW84146   6.670   8.139   5.172
27436SOL    HW184147   6.746   8.082   5.176
27436SOL    HW284148   6.620   8.118   5.251
27437SOL     OW84149   7.991   1.352   9.979
27437SOL    HW184150   7.970   1.445   9.984
27437SOL    HW284151   8.086   1.349   9.990
27438SOL     OW84152   4.569   0.197   7.409
27438SOL    HW184153   4.650   0.154   7.435
27438SOL    HW284154   4.519   0.128   7.365
27439SOL     OW84155   0.119  12.731   8.425
27439SOL    HW184156   0.130  12.734   8.330
27439SOL    HW284157   0.103  12.639   8.445
27440SOL     OW84158   2.553   1.194  12.791
27440SOL    HW184159   2.637   1.153  12.813
27440SOL    HW284160   2.492   1.121  12.780
27441SOL     OW84161   0.399  12.462   1.119
27441SOL    HW184162   0.328  12.446   1.057
27441SOL    HW284163   0.388  12.554   1.144
27442SOL     OW84164  14.532   3.537   7.556
27442SOL    HW184165  14.554   3.568   7.468
27442SOL    HW284166  14.611   3.553   7.607
27443SOL     OW84167  10.704   7.579  12.531
27443SOL    HW184168  10.634   7.522  12.500
27443SOL    HW284169  10.665   7.627  12.605
27444SOL     OW84170  10.117   5.090   2.863
27444SOL    HW184171  10.211   5.079   2.878
27444SOL    HW284172  10.079   5.008   2.893
27445SOL     OW84173   2.931  11.551  11.796
27445SOL    HW184174   2.854  11.606  11.778
27445SOL    HW284175   2.937  11.549  11.891
27446SOL     OW84176   5.261   0.423  10.213
27446SOL    HW184177   5.206   0.497  10.237
27446SOL    HW284178   5.345   0.440  10.255
27447SOL     OW84179   2.853   7.768   3.427
27447SOL    HW184180   2.810   7.796   3.508
27447SOL    HW284181   2.899   7.846   3.397
27448SOL     OW84182   9.259  10.319  12.515
27448SOL    HW184183   9.226  10.261  12.584
27448SOL    HW284184   9.215  10.402  12.532
27449SOL     OW84185   9.465  13.879   6.817
27449SOL    HW184186   9.560  13.885   6.824
27449SOL    HW284187   9.432  13.912   6.900
27450SOL     OW84188   3.133  10.374   7.744
27450SOL    HW184189   3.062  10.337   7.692
27450SOL    HW284190   3.182  10.428   7.682
27451SOL     OW84191  13.864   6.948   6.873
27451SOL    HW184192  13.852   6.962   6.967
27451SOL    HW284193  13.859   7.036   6.835
27452SOL     OW84194  13.933   7.275  14.529
27452SOL    HW184195  13.913   7.349  14.585
27452SOL    HW284196  13.860   7.215  14.541
27453SOL     OW84197   5.981  12.676   9.468
27453SOL    HW184198   5.916  12.655   9.534
27453SOL    HW284199   5.935  12.732   9.405
27454SOL     OW84200   4.499   2.041   7.707
27454SOL    HW184201   4.431   2.068   7.645
27454SOL    HW284202   4.451   2.018   7.787
27455SOL     OW84203   1.448   5.520   1.354
27455SOL    HW184204   1.521   5.463   1.376
27455SOL    HW284205   1.387   5.464   1.306
27456SOL     OW84206  10.224   5.133   1.827
27456SOL    HW184207  10.308   5.101   1.792
27456SOL    HW284208  10.160   5.069   1.798
27457SOL     OW84209  12.816  10.246   1.145
27457SOL    HW184210  12.886  10.198   1.100
27457SOL    HW284211  12.823  10.217   1.236
27458SOL     OW84212   2.770   6.894  13.308
27458SOL    HW184213   2.732   6.889  13.396
27458SOL    HW284214   2.820   6.813  13.299
27459SOL     OW84215  12.012   4.664   5.709
27459SOL    HW184216  12.086   4.658   5.648
27459SOL    HW284217  12.053   4.689   5.793
27460SOL     OW84218   7.313  12.407   1.270
27460SOL    HW184219   7.349  12.494   1.253
27460SOL    HW284220   7.389  12.349   1.268
27461SOL     OW84221  10.218  10.503   6.117
27461SOL    HW184222  10.183  10.563   6.051
27461SOL    HW284223  10.270  10.559   6.175
27462SOL     OW84224  14.649   5.504  12.501
27462SOL    HW184225  14.593   5.460  12.565
27462SOL    HW284226  14.737   5.499  12.539
27463SOL     OW84227  11.870   6.484   7.463
27463SOL    HW184228  11.821   6.512   7.386
27463SOL    HW284229  11.884   6.565   7.512
27464SOL     OW84230   4.416   2.434   0.288
27464SOL    HW184231   4.401   2.399   0.376
27464SOL    HW284232   4.329   2.437   0.249
27465SOL     OW84233   6.071   2.735  13.134
27465SOL    HW184234   6.124   2.665  13.095
27465SOL    HW284235   6.055   2.796  13.062
27466SOL     OW84236   7.787   7.572   8.729
27466SOL    HW184237   7.778   7.600   8.638
27466SOL    HW284238   7.746   7.642   8.780
27467SOL     OW84239  14.528   4.857   5.440
27467SOL    HW184240  14.438   4.838   5.466
27467SOL    HW284241  14.525   4.945   5.404
27468SOL     OW84242   2.797   4.924   3.767
27468SOL    HW184243   2.713   4.935   3.722
27468SOL    HW284244   2.845   4.861   3.714
27469SOL     OW84245   5.064   7.461  11.072
27469SOL    HW184246   5.027   7.448  11.159
27469SOL    HW284247   5.036   7.549  11.047
27470SOL     OW84248   5.602   5.350   6.782
27470SOL    HW184249   5.631   5.283   6.720
27470SOL    HW284250   5.507   5.352   6.772
27471SOL     OW84251  12.035   0.794   0.269
27471SOL    HW184252  11.997   0.772   0.184
27471SOL    HW284253  12.016   0.718   0.324
27472SOL     OW84254  12.715  13.235   9.461
27472SOL    HW184255  12.763  13.216   9.381
27472SOL    HW284256  12.782  13.242   9.528
27473SOL     OW84257   9.722  11.086   1.434
27473SOL    HW184258   9.795  11.142   1.463
27473SOL    HW284259   9.669  11.142   1.379
27474SOL     OW84260   4.665   8.645  14.543
27474SOL    HW184261   4.591   8.705  14.554
27474SOL    HW284262   4.678   8.640  14.448
27475SOL     OW84263  11.679   6.552   5.859
27475SOL    HW184264  11.755   6.497   5.883
27475SOL    HW284265  11.715   6.640   5.852
27476SOL     OW84266  14.464  13.606  12.709
27476SOL    HW184267  14.405  13.546  12.754
27476SOL    HW284268  14.547  13.559  12.703
27477SOL     OW84269   1.791  11.041   3.517
27477SOL    HW184270   1.717  11.015   3.572
27477SOL    HW284271   1.751  11.090   3.445
27478SOL     OW84272   1.814   8.479   1.760
27478SOL    HW184273   1.805   8.515   1.848
27478SOL    HW284274   1.759   8.534   1.705
27479SOL     OW84275   8.863   2.067  10.623
27479SOL    HW184276   8.904   1.982  10.636
27479SOL    HW284277   8.937   2.129  10.620
27480SOL     OW84278   5.094  13.072   0.579
27480SOL    HW184279   5.053  13.139   0.524
27480SOL    HW284280   5.020  13.025   0.618
27481SOL     OW84281  11.811  10.826  10.870
27481SOL    HW184282  11.845  10.770  10.939
27481SOL    HW284283  11.738  10.776  10.833
27482SOL     OW84284   2.460  11.981   3.817
27482SOL    HW184285   2.414  12.064   3.804
27482SOL    HW284286   2.414  11.918   3.762
27483SOL     OW84287   7.643   7.980  14.734
27483SOL    HW184288   7.738   7.978  14.747
27483SOL    HW284289   7.608   8.009  14.819
27484SOL     OW84290  13.817   0.417   3.741
27484SOL    HW184291  13.879   0.345   3.730
27484SOL    HW284292  13.772   0.424   3.657
27485SOL     OW84293   3.633  14.858  10.518
27485SOL    HW184294   3.667  14.814  10.596
27485SOL    HW284295   3.600  14.787  10.463
27486SOL     OW84296  13.497  10.012   9.641
27486SOL    HW184297  13.465  10.102   9.650
27486SOL    HW284298  13.591  10.018   9.657
27487SOL     OW84299   5.393   2.912   4.828
27487SOL    HW184300   5.419   3.004   4.817
27487SOL    HW284301   5.310   2.905   4.782
27488SOL     OW84302   3.633  10.782  11.499
27488SOL    HW184303   3.690  10.858  11.487
27488SOL    HW284304   3.579  10.803  11.575
27489SOL     OW84305   5.493   2.966  14.824
27489SOL    HW184306   5.398   2.977  14.820
27489SOL    HW284307   5.512   2.894  14.763
27490SOL     OW84308  14.610   0.310  14.611
27490SOL    HW184309  14.678   0.360  14.566
27490SOL    HW284310  14.559   0.377  14.658
27491SOL     OW84311   6.388   1.951   4.419
27491SOL    HW184312   6.347   1.881   4.469
27491SOL    HW284313   6.440   1.906   4.352
27492SOL     OW84314   7.941   0.480  13.572
27492SOL    HW184315   7.942   0.490  13.667
27492SOL    HW284316   7.915   0.389  13.557
27493SOL     OW84317   7.088   0.025   6.363
27493SOL    HW184318   7.094   0.120   6.373
27493SOL    HW284319   7.032  14.871   6.436
27494SOL     OW84320   6.438   3.878   0.277
27494SOL    HW184321   6.421   3.855   0.186
27494SOL    HW284322   6.488   3.804   0.312
27495SOL     OW84323   0.887   9.434   8.852
27495SOL    HW184324   0.809   9.378   8.854
27495SOL    HW284325   0.853   9.522   8.835
27496SOL     OW84326  14.346  13.160  12.230
27496SOL    HW184327  14.270  13.213  12.206
27496SOL    HW284328  14.399  13.155  12.151
27497SOL     OW84329   5.641   0.342   4.406
27497SOL    HW184330   5.610   0.395   4.480
27497SOL    HW284331   5.582   0.267   4.404
27498SOL     OW84332   0.567  13.956   4.798
27498SOL    HW184333   0.631  13.918   4.857
27498SOL    HW284334   0.617  13.981   4.721
27499SOL     OW84335   5.033  11.004   5.138
27499SOL    HW184336   5.001  10.994   5.227
27499SOL    HW284337   5.119  10.963   5.139
27500SOL     OW84338   9.558  11.435  13.617
27500SOL    HW184339   9.561  11.505  13.552
27500SOL    HW284340   9.536  11.479  13.699
27501SOL     OW84341   3.522   1.074  11.695
27501SOL    HW184342   3.479   1.061  11.610
27501SOL    HW284343   3.603   1.024  11.687
27502SOL     OW84344   0.040  11.513   0.610
27502SOL    HW184345  14.845  11.512   0.544
27502SOL    HW284346   0.089  11.432   0.594
27503SOL     OW84347   0.390  10.785   9.225
27503SOL    HW184348   0.461  10.848   9.242
27503SOL    HW284349   0.310  10.837   9.233
27504SOL     OW84350   3.193   4.635   5.973
27504SOL    HW184351   3.287   4.640   5.956
27504SOL    HW284352   3.170   4.721   6.008
27505SOL     OW84353   3.083   8.533  13.256
27505SOL    HW184354   3.113   8.554  13.167
27505SOL    HW284355   3.044   8.615  13.288
27506SOL     OW84356  10.438   1.450  10.473
27506SOL    HW184357  10.350   1.482  10.451
27506SOL    HW284358  10.495   1.489  10.406
27507SOL     OW84359   4.759  11.702   0.971
27507SOL    HW184360   4.669  11.683   0.945
27507SOL    HW284361   4.806  11.716   0.888
27508SOL     OW84362  12.417  14.579  12.099
27508SOL    HW184363  12.349  14.543  12.042
27508SOL    HW284364  12.370  14.611  12.175
27509SOL     OW84365   5.499   6.265   4.142
27509SOL    HW184366   5.548   6.348   4.150
27509SOL    HW284367   5.471   6.245   4.231
27510SOL     OW84368   0.209   4.246   7.954
27510SOL    HW184369   0.144   4.177   7.966
27510SOL    HW284370   0.219   4.285   8.041
27511SOL     OW84371  13.735   6.177  12.605
27511SOL    HW184372  13.703   6.100  12.559
27511SOL    HW284373  13.666   6.199  12.667
27512SOL     OW84374   1.881   2.697   2.773
27512SOL    HW184375   1.886   2.671   2.681
27512SOL    HW284376   1.850   2.618   2.818
27513SOL     OW84377   6.857   4.436  11.491
27513SOL    HW184378   6.783   4.496  11.484
27513SOL    HW284379   6.873   4.427  11.585
27514SOL     OW84380   6.990  13.252  13.779
27514SOL    HW184381   7.017  13.161  13.784
27514SOL    HW284382   7.023  13.291  13.860
27515SOL     OW84383   0.654  11.023  13.867
27515SOL    HW184384   0.625  11.111  13.842
27515SOL    HW284385   0.646  10.971  13.787
27516SOL     OW84386   1.673   3.017   3.918
27516SOL    HW184387   1.579   2.997   3.919
27516SOL    HW284388   1.706   2.981   4.000
27517SOL     OW84389  11.462   5.978   7.430
27517SOL    HW184390  11.549   6.013   7.450
27517SOL    HW284391  11.413   6.053   7.397
27518SOL     OW84392   0.468   6.900   6.501
27518SOL    HW184393   0.401   6.949   6.455
27518SOL    HW284394   0.511   6.964   6.558
27519SOL     OW84395  11.246   8.408   4.734
27519SOL    HW184396  11.295   8.343   4.785
27519SOL    HW284397  11.160   8.368   4.721
27520SOL     OW84398  12.855  12.616  10.047
27520SOL    HW184399  12.889  12.530  10.071
27520SOL    HW284400  12.897  12.637   9.964
27521SOL     OW84401  13.647   9.173  13.979
27521SOL    HW184402  13.739   9.192  13.995
27521SOL    HW284403  13.632   9.087  14.020
27522SOL     OW84404   0.797  12.684   4.174
27522SOL    HW184405   0.850  12.742   4.120
27522SOL    HW284406   0.773  12.737   4.250
27523SOL     OW84407   7.105   4.758  11.056
27523SOL    HW184408   7.017   4.789  11.076
27523SOL    HW284409   7.091   4.672  11.017
27524SOL     OW84410   9.891   4.999   3.086
27524SOL    HW184411   9.864   5.051   3.161
27524SOL    HW284412   9.977   4.965   3.110
27525SOL     OW84413   1.812  10.022   3.222
27525SOL    HW184414   1.809  10.101   3.276
27525SOL    HW284415   1.749  10.039   3.152
27526SOL     OW84416   5.479   2.067   5.588
27526SOL    HW184417   5.565   2.034   5.560
27526SOL    HW284418   5.431   2.081   5.506
27527SOL     OW84419   0.749   8.298  14.296
27527SOL    HW184420   0.659   8.281  14.268
27527SOL    HW284421   0.743   8.371  14.357
27528SOL     OW84422  10.941   8.231   6.439
27528SOL    HW184423  10.970   8.294   6.505
27528SOL    HW284424  10.846   8.227   6.449
27529SOL     OW84425   3.480   5.460   0.430
27529SOL    HW184426   3.463   5.437   0.521
27529SOL    HW284427   3.437   5.544   0.418
27530SOL     OW84428   4.528   2.851   4.609
27530SOL    HW184429   4.547   2.917   4.676
27530SOL    HW284430   4.447   2.810   4.638
27531SOL     OW84431  11.682  14.399   5.771
27531SOL    HW184432  11.723  14.371   5.689
27531SOL    HW284433  11.673  14.494   5.762
27532SOL     OW84434   3.922  12.615   3.917
27532SOL    HW184435   3.932  12.539   3.974
27532SOL    HW284436   3.845  12.661   3.951
27533SOL     OW84437   3.661  12.198   0.710
27533SOL    HW184438   3.674  12.193   0.805
27533SOL    HW284439   3.568  12.183   0.698
27534SOL     OW84440   8.866   9.575   9.250
27534SOL    HW184441   8.792   9.520   9.222
27534SOL    HW284442   8.825   9.657   9.278
27535SOL     OW84443   2.498   4.805  12.964
27535SOL    HW184444   2.469   4.793  12.873
27535SOL    HW284445   2.417   4.800  13.015
27536SOL     OW84446   0.638  12.198  14.813
27536SOL    HW184447   0.726  12.175  14.844
27536SOL    HW284448   0.622  12.136  14.741
27537SOL     OW84449   3.113   0.297   2.966
27537SOL    HW184450   3.022   0.325   2.966
27537SOL    HW284451   3.117   0.227   2.901
27538SOL     OW84452   2.413   4.771  13.393
27538SOL    HW184453   2.345   4.797  13.454
27538SOL    HW284454   2.368   4.759  13.309
27539SOL     OW84455   0.141   2.172   3.289
27539SOL    HW184456   0.226   2.151   3.329
27539SOL    HW284457   0.098   2.229   3.352
27540SOL     OW84458   5.103  12.644   5.699
27540SOL    HW184459   5.113  12.550   5.687
27540SOL    HW284460   5.012  12.661   5.675
27541SOL     OW84461   8.309   6.362   3.842
27541SOL    HW184462   8.361   6.439   3.864
27541SOL    HW284463   8.296   6.367   3.747
27542SOL     OW84464   2.030   6.011   7.787
27542SOL    HW184465   2.065   6.085   7.837
27542SOL    HW284466   2.075   6.014   7.703
27543SOL     OW84467   6.622   7.016  11.463
27543SOL    HW184468   6.548   7.076  11.467
27543SOL    HW284469   6.623   6.985  11.372
27544SOL     OW84470   8.800   6.871  14.013
27544SOL    HW184471   8.748   6.949  14.033
27544SOL    HW284472   8.891   6.898  14.027
27545SOL     OW84473   0.327  10.623   6.958
27545SOL    HW184474   0.357  10.546   6.909
27545SOL    HW284475   0.275  10.673   6.895
27546SOL     OW84476  11.100   1.223   5.122
27546SOL    HW184477  11.179   1.258   5.163
27546SOL    HW284478  11.077   1.288   5.055
27547SOL     OW84479  11.739  10.967   6.103
27547SOL    HW184480  11.742  11.000   6.193
27547SOL    HW284481  11.671  11.019   6.060
27548SOL     OW84482  12.071  14.247  14.014
27548SOL    HW184483  12.150  14.280  14.057
27548SOL    HW284484  12.005  14.314  14.031
27549SOL     OW84485   1.050   8.120   6.543
27549SOL    HW184486   0.990   8.133   6.616
27549SOL    HW284487   1.045   8.201   6.493
27550SOL     OW84488   9.054  10.535   5.209
27550SOL    HW184489   8.994  10.607   5.190
27550SOL    HW284490   9.125  10.547   5.146
27551SOL     OW84491   7.987   1.516   8.930
27551SOL    HW184492   8.015   1.531   9.020
27551SOL    HW284493   7.935   1.592   8.907
27552SOL     OW84494   0.273   7.832   8.006
27552SOL    HW184495   0.216   7.908   8.020
27552SOL    HW284496   0.296   7.836   7.913
27553SOL     OW84497  14.256  14.012   4.946
27553SOL    HW184498  14.257  14.103   4.915
27553SOL    HW284499  14.164  13.986   4.942
27554SOL     OW84500   9.854   6.759  10.381
27554SOL    HW184501   9.763   6.774  10.357
27554SOL    HW284502   9.853   6.676  10.430
27555SOL     OW84503  12.140   8.410   7.007
27555SOL    HW184504  12.069   8.460   6.967
27555SOL    HW284505  12.104   8.322   7.019
27556SOL     OW84506   2.468   2.875  10.483
27556SOL    HW184507   2.487   2.851  10.574
27556SOL    HW284508   2.529   2.822  10.431
27557SOL     OW84509   3.572  10.542   0.544
27557SOL    HW184510   3.657  10.570   0.511
27557SOL    HW284511   3.552  10.462   0.495
27558SOL     OW84512   5.116   1.818   1.950
27558SOL    HW184513   5.036   1.804   1.899
27558SOL    HW284514   5.085   1.833   2.039
27559SOL     OW84515   5.233   2.366   4.278
27559SOL    HW184516   5.220   2.385   4.185
27559SOL    HW284517   5.326   2.379   4.293
27560SOL     OW84518   9.248  13.178  10.781
27560SOL    HW184519   9.165  13.169  10.735
27560SOL    HW284520   9.224  13.202  10.870
27561SOL     OW84521   6.675   1.440   4.756
27561SOL    HW184522   6.749   1.385   4.784
27561SOL    HW284523   6.686   1.448   4.661
27562SOL     OW84524   5.282   8.560   4.556
27562SOL    HW184525   5.321   8.594   4.475
27562SOL    HW284526   5.202   8.611   4.568
27563SOL     OW84527   9.216   4.880  12.134
27563SOL    HW184528   9.195   4.789  12.156
27563SOL    HW284529   9.141   4.930  12.164
27564SOL     OW84530  10.803   4.410  11.756
27564SOL    HW184531  10.850   4.455  11.826
27564SOL    HW284532  10.746   4.477  11.718
27565SOL     OW84533  11.148   7.428  13.732
27565SOL    HW184534  11.175   7.481  13.656
27565SOL    HW284535  11.152   7.488  13.806
27566SOL     OW84536   0.578   4.565  13.695
27566SOL    HW184537   0.611   4.625  13.627
27566SOL    HW284538   0.501   4.609  13.730
27567SOL     OW84539  10.586   1.892  13.225
27567SOL    HW184540  10.681   1.901  13.224
27567SOL    HW284541  10.554   1.974  13.190
27568SOL     OW84542  12.702  12.801   8.049
27568SOL    HW184543  12.744  12.753   7.977
27568SOL    HW284544  12.698  12.891   8.019
27569SOL     OW84545   5.964   2.464  10.645
27569SOL    HW184546   5.886   2.448  10.592
27569SOL    HW284547   5.946   2.546  10.691
27570SOL     OW84548   8.177   7.232  14.492
27570SOL    HW184549   8.111   7.300  14.482
27570SOL    HW284550   8.207   7.215  14.402
27571SOL     OW84551  11.198   9.352   1.022
27571SOL    HW184552  11.139   9.308   0.961
27571SOL    HW284553  11.285   9.319   0.999
27572SOL     OW84554   0.694  10.424   2.831
27572SOL    HW184555   0.732  10.400   2.746
27572SOL    HW284556   0.635  10.496   2.812
27573SOL     OW84557  10.275  10.518  13.767
27573SOL    HW184558  10.308  10.587  13.710
27573SOL    HW284559  10.293  10.549  13.856
27574SOL     OW84560   5.211   6.661   8.865
27574SOL    HW184561   5.278   6.622   8.809
27574SOL    HW284562   5.257   6.731   8.912
27575SOL     OW84563   1.387  11.260  12.105
27575SOL    HW184564   1.430  11.190  12.055
27575SOL    HW284565   1.301  11.225  12.127
27576SOL     OW84566   0.250   9.062  11.355
27576SOL    HW184567   0.326   9.017  11.318
27576SOL    HW284568   0.185   8.993  11.367
27577SOL     OW84569  13.089   8.466   5.929
27577SOL    HW184570  13.137   8.403   5.876
27577SOL    HW284571  13.087   8.546   5.876
27578SOL     OW84572   3.219  11.491   7.030
27578SOL    HW184573   3.240  11.482   7.123
27578SOL    HW284574   3.301  11.516   6.989
27579SOL     OW84575  11.537  11.368  14.030
27579SOL    HW184576  11.470  11.399  13.969
27579SOL    HW284577  11.495  11.374  14.116
27580SOL     OW84578  12.354   9.941   2.789
27580SOL    HW184579  12.275   9.890   2.807
27580SOL    HW284580  12.343   9.971   2.699
27581SOL     OW84581   8.513   5.030   2.454
27581SOL    HW184582   8.486   5.048   2.364
27581SOL    HW284583   8.503   4.936   2.464
27582SOL     OW84584  13.164  14.261  11.696
27582SOL    HW184585  13.085  14.255  11.641
27582SOL    HW284586  13.146  14.202  11.769
27583SOL     OW84587   5.865  12.671   6.905
27583SOL    HW184588   5.882  12.578   6.888
27583SOL    HW284589   5.810  12.699   6.832
27584SOL     OW84590   1.399   3.357  11.770
27584SOL    HW184591   1.469   3.318  11.718
27584SOL    HW284592   1.319   3.320  11.733
27585SOL     OW84593   9.197   0.406   4.995
27585SOL    HW184594   9.140   0.483   5.001
27585SOL    HW284595   9.150   0.337   5.041
27586SOL     OW84596  12.198  10.041   3.441
27586SOL    HW184597  12.155  10.032   3.356
27586SOL    HW284598  12.284   9.999   3.429
27587SOL     OW84599   1.685   6.466   1.503
27587SOL    HW184600   1.721   6.459   1.592
27587SOL    HW284601   1.749   6.520   1.456
27588SOL     OW84602   0.381   9.001   8.130
27588SOL    HW184603   0.381   8.905   8.125
27588SOL    HW284604   0.441   9.021   8.201
27589SOL     OW84605   8.144  11.541   7.806
27589SOL    HW184606   8.060  11.533   7.760
27589SOL    HW284607   8.132  11.617   7.863
27590SOL     OW84608   0.158   9.915  10.207
27590SOL    HW184609   0.210   9.835  10.212
27590SOL    HW284610   0.071   9.890  10.238
27591SOL     OW84611   8.980   9.116   7.196
27591SOL    HW184612   8.941   9.050   7.253
27591SOL    HW284613   9.016   9.182   7.256
27592SOL     OW84614   8.035  12.494   6.862
27592SOL    HW184615   8.100  12.506   6.931
27592SOL    HW284616   7.951  12.508   6.905
27593SOL     OW84617  13.449   0.806   7.983
27593SOL    HW184618  13.488   0.721   8.001
27593SOL    HW284619  13.386   0.789   7.912
27594SOL     OW84620  14.112  13.678   3.036
27594SOL    HW184621  14.158  13.595   3.053
27594SOL    HW284622  14.056  13.659   2.961
27595SOL     OW84623   9.377   3.768  11.180
27595SOL    HW184624   9.356   3.855  11.213
27595SOL    HW284625   9.303   3.744  11.125
27596SOL     OW84626   9.313  10.163  11.564
27596SOL    HW184627   9.375  10.156  11.637
27596SOL    HW284628   9.296  10.073  11.538
27597SOL     OW84629   8.752   7.815  12.745
27597SOL    HW184630   8.706   7.730  12.748
27597SOL    HW284631   8.821   7.803  12.681
27598SOL     OW84632   3.949   4.750   0.014
27598SOL    HW184633   3.885   4.801  14.838
27598SOL    HW284634   3.990   4.692  14.823
27599SOL     OW84635   2.112   0.006   8.744
27599SOL    HW184636   2.138  14.788   8.750
27599SOL    HW284637   2.098   0.021   8.651
27600SOL     OW84638  11.190   9.966   4.485
27600SOL    HW184639  11.219   9.893   4.430
27600SOL    HW284640  11.172  10.037   4.423
27601SOL     OW84641   8.029  14.685  14.760
27601SOL    HW184642   8.074  14.650  14.683
27601SOL    HW284643   7.961  14.621  14.780
27602SOL     OW84644   2.871   4.361   5.653
27602SOL    HW184645   2.854   4.282   5.705
27602SOL    HW284646   2.788   4.408   5.652
27603SOL     OW84647   2.645   7.963  13.192
27603SOL    HW184648   2.668   8.003  13.276
27603SOL    HW284649   2.550   7.974  13.185
27604SOL     OW84650   8.342   8.972  11.098
27604SOL    HW184651   8.368   8.894  11.048
27604SOL    HW284652   8.403   8.975  11.172
27605SOL     OW84653  13.901   5.821   0.368
27605SOL    HW184654  13.927   5.879   0.440
27605SOL    HW284655  13.806   5.813   0.377
27606SOL     OW84656   5.821   5.587  13.874
27606SOL    HW184657   5.751   5.629  13.924
27606SOL    HW284658   5.891   5.574  13.938
27607SOL     OW84659   7.020  12.532  13.050
27607SOL    HW184660   6.953  12.488  12.999
27607SOL    HW284661   7.067  12.461  13.095
27608SOL     OW84662  12.452   2.233   6.039
27608SOL    HW184663  12.507   2.229   6.117
27608SOL    HW284664  12.497   2.294   5.980
27609SOL     OW84665  12.691  14.836  12.955
27609SOL    HW184666  12.629   0.034  12.968
27609SOL    HW284667  12.655  14.765  13.009
27610SOL     OW84668  14.185   9.336   6.831
27610SOL    HW184669  14.110   9.384   6.796
27610SOL    HW284670  14.152   9.248   6.847
27611SOL     OW84671   0.487   2.849  10.724
27611SOL    HW184672   0.422   2.866  10.655
27611SOL    HW284673   0.537   2.775  10.691
27612SOL     OW84674   8.746  12.860  12.357
27612SOL    HW184675   8.827  12.910  12.361
27612SOL    HW284676   8.760  12.787  12.417
27613SOL     OW84677  13.111  13.375  10.855
27613SOL    HW184678  13.199  13.395  10.888
27613SOL    HW284679  13.091  13.449  10.797
27614SOL     OW84680  12.756  10.426   3.343
27614SOL    HW184681  12.849  10.442   3.353
27614SOL    HW284682  12.747  10.331   3.343
27615SOL     OW84683   9.324   9.239   6.971
27615SOL    HW184684   9.417   9.219   6.955
27615SOL    HW284685   9.280   9.154   6.966
27616SOL     OW84686   8.369  10.892  11.701
27616SOL    HW184687   8.283  10.935  11.698
27616SOL    HW284688   8.421  10.946  11.760
27617SOL     OW84689   3.905  12.390  13.604
27617SOL    HW184690   3.816  12.421  13.622
27617SOL    HW284691   3.953  12.468  13.578
27618SOL     OW84692   5.442   8.261   5.743
27618SOL    HW184693   5.436   8.345   5.698
27618SOL    HW284694   5.374   8.264   5.810
27619SOL     OW84695   4.865   8.323   1.364
27619SOL    HW184696   4.832   8.240   1.397
27619SOL    HW284697   4.789   8.366   1.326
27620SOL     OW84698   1.569  12.119  12.805
27620SOL    HW184699   1.651  12.163  12.827
27620SOL    HW284700   1.514  12.131  12.882
27621SOL     OW84701   1.001  13.955   2.594
27621SOL    HW184702   1.085  13.980   2.555
27621SOL    HW284703   0.936  14.004   2.544
27622SOL     OW84704  12.494   9.221   8.922
27622SOL    HW184705  12.564   9.272   8.962
27622SOL    HW284706  12.521   9.130   8.934
27623SOL     OW84707   4.880   9.983   3.442
27623SOL    HW184708   4.906   9.892   3.456
27623SOL    HW284709   4.922  10.007   3.359
27624SOL     OW84710   9.820   3.740  11.040
27624SOL    HW184711   9.759   3.668  11.056
27624SOL    HW284712   9.792   3.777  10.956
27625SOL     OW84713  11.298  12.670  10.905
27625SOL    HW184714  11.259  12.692  10.990
27625SOL    HW284715  11.333  12.582  10.916
27626SOL     OW84716   3.876   7.707   1.325
27626SOL    HW184717   3.947   7.674   1.380
27626SOL    HW284718   3.807   7.642   1.335
27627SOL     OW84719  10.171  12.632   6.034
27627SOL    HW184720  10.092  12.591   6.071
27627SOL    HW284721  10.149  12.725   6.030
27628SOL     OW84722  13.797   0.609  14.709
27628SOL    HW184723  13.749   0.686  14.676
27628SOL    HW284724  13.863   0.592  14.642
27629SOL     OW84725   2.738   6.499   1.371
27629SOL    HW184726   2.688   6.429   1.413
27629SOL    HW284727   2.676   6.542   1.312
27630SOL     OW84728   3.657   0.776  11.515
27630SOL    HW184729   3.745   0.782  11.552
27630SOL    HW284730   3.629   0.686  11.533
27631SOL     OW84731   0.481  11.202   9.464
27631SOL    HW184732   0.401  11.212   9.412
27631SOL    HW284733   0.538  11.274   9.434
27632SOL     OW84734  12.794   7.010   3.225
27632SOL    HW184735  12.757   7.058   3.298
27632SOL    HW284736  12.752   6.924   3.228
27633SOL     OW84737   3.849   8.305  10.426
27633SOL    HW184738   3.907   8.319  10.352
27633SOL    HW284739   3.844   8.390  10.470
27634SOL     OW84740  10.534  11.243  13.566
27634SOL    HW184741  10.614  11.205  13.603
27634SOL    HW284742  10.508  11.181  13.498
27635SOL     OW84743   3.637   3.527  13.270
27635SOL    HW184744   3.646   3.587  13.197
27635SOL    HW284745   3.668   3.577  13.346
27636SOL     OW84746   8.071  11.755   7.000
27636SOL    HW184747   8.116  11.813   6.939
27636SOL    HW284748   8.134  11.685   7.018
27637SOL     OW84749   1.077   1.326   8.582
27637SOL    HW184750   1.005   1.373   8.539
27637SOL    HW284751   1.086   1.245   8.532
27638SOL     OW84752   8.613   9.066   2.689
27638SOL    HW184753   8.685   9.059   2.626
27638SOL    HW284754   8.582   9.156   2.680
27639SOL     OW84755   7.558   1.895   6.208
27639SOL    HW184756   7.584   1.908   6.299
27639SOL    HW284757   7.584   1.976   6.164
27640SOL     OW84758  12.054   3.708   1.855
27640SOL    HW184759  12.045   3.675   1.945
27640SOL    HW284760  12.134   3.759   1.856
27641SOL     OW84761   2.065   8.268   1.469
27641SOL    HW184762   2.138   8.211   1.446
27641SOL    HW284763   2.053   8.255   1.564
27642SOL     OW84764   2.478  11.952   8.119
27642SOL    HW184765   2.509  11.933   8.031
27642SOL    HW284766   2.519  11.886   8.174
27643SOL     OW84767  12.225   9.865  10.857
27643SOL    HW184768  12.152   9.832  10.805
27643SOL    HW284769  12.286   9.901  10.793
27644SOL     OW84770   8.145   5.200   5.881
27644SOL    HW184771   8.065   5.194   5.935
27644SOL    HW284772   8.166   5.109   5.860
27645SOL     OW84773   9.447   4.601   7.897
27645SOL    HW184774   9.497   4.522   7.875
27645SOL    HW284775   9.496   4.641   7.969
27646SOL     OW84776   1.614   5.079   7.987
27646SOL    HW184777   1.599   5.083   8.082
27646SOL    HW284778   1.526   5.077   7.950
27647SOL     OW84779   5.780  14.752  11.023
27647SOL    HW184780   5.730  14.795  11.092
27647SOL    HW284781   5.814  14.672  11.064
27648SOL     OW84782   7.773   3.782   5.739
27648SOL    HW184783   7.850   3.839   5.742
27648SOL    HW284784   7.758   3.765   5.646
27649SOL     OW84785  11.164   6.002   6.183
27649SOL    HW184786  11.226   6.036   6.118
27649SOL    HW284787  11.199   5.916   6.206
27650SOL     OW84788   2.847  11.968   5.084
27650SOL    HW184789   2.925  11.914   5.070
27650SOL    HW284790   2.862  12.011   5.168
27651SOL     OW84791  12.095   2.210  13.016
27651SOL    HW184792  12.135   2.252  13.093
27651SOL    HW284793  12.157   2.143  12.990
27652SOL     OW84794   5.961  10.872  10.756
27652SOL    HW184795   5.980  10.894  10.847
27652SOL    HW284796   6.043  10.833  10.724
27653SOL     OW84797   8.409  13.136   0.981
27653SOL    HW184798   8.384  13.083   1.057
27653SOL    HW284799   8.445  13.074   0.918
27654SOL     OW84800   2.193  10.907   6.472
27654SOL    HW184801   2.271  10.852   6.472
27654SOL    HW284802   2.226  10.996   6.455
27655SOL     OW84803   9.472  12.584   9.101
27655SOL    HW184804   9.564  12.610   9.097
27655SOL    HW284805   9.451  12.587   9.194
27656SOL     OW84806   1.930   3.957  12.135
27656SOL    HW184807   1.926   4.005  12.053
27656SOL    HW284808   1.982   3.879  12.114
27657SOL     OW84809   9.073   5.343   1.237
27657SOL    HW184810   9.013   5.361   1.309
27657SOL    HW284811   9.093   5.429   1.200
27658SOL     OW84812   1.595  11.778   8.558
27658SOL    HW184813   1.683  11.815   8.560
27658SOL    HW284814   1.585  11.744   8.469
27659SOL     OW84815  11.191  13.612  11.349
27659SOL    HW184816  11.198  13.705  11.370
27659SOL    HW284817  11.277  13.576  11.368
27660SOL     OW84818   1.800   3.289  14.129
27660SOL    HW184819   1.726   3.349  14.122
27660SOL    HW284820   1.804   3.246  14.044
27661SOL     OW84821   6.967   3.165   2.626
27661SOL    HW184822   7.058   3.189   2.611
27661SOL    HW284823   6.953   3.087   2.572
27662SOL     OW84824   9.922  13.994   7.703
27662SOL    HW184825   9.840  13.953   7.730
27662SOL    HW284826   9.976  13.993   7.783
27663SOL     OW84827   7.147  10.063  12.289
27663SOL    HW184828   7.190  10.009  12.222
27663SOL    HW284829   7.076  10.107  12.242
27664SOL     OW84830  12.935  13.287  13.772
27664SOL    HW184831  12.849  13.259  13.742
27664SOL    HW284832  12.947  13.242  13.856
27665SOL     OW84833  13.946   0.753  11.876
27665SOL    HW184834  13.872   0.698  11.900
27665SOL    HW284835  14.021   0.693  11.871
27666SOL     OW84836   0.296   9.826   0.541
27666SOL    HW184837   0.268   9.891   0.476
27666SOL    HW284838   0.381   9.795   0.509
27667SOL     OW84839   4.415  10.964   9.436
27667SOL    HW184840   4.460  10.943   9.353
27667SOL    HW284841   4.420  11.059   9.442
27668SOL     OW84842   0.930  12.071  13.835
27668SOL    HW184843   0.963  11.988  13.870
27668SOL    HW284844   0.984  12.087  13.757
27669SOL     OW84845  10.554  13.640  12.640
27669SOL    HW184846  10.596  13.561  12.607
27669SOL    HW284847  10.486  13.608  12.700
27670SOL     OW84848   7.398   3.539   0.052
27670SOL    HW184849   7.478   3.589   0.068
27670SOL    HW284850   7.422   3.449   0.072
27671SOL     OW84851  13.993   8.932   8.304
27671SOL    HW184852  14.010   8.931   8.398
27671SOL    HW284853  13.897   8.932   8.297
27672SOL     OW84854   6.200  14.024  11.977
27672SOL    HW184855   6.258  14.011  11.902
27672SOL    HW284856   6.127  13.964  11.962
27673SOL     OW84857   5.182   5.961   0.359
27673SOL    HW184858   5.265   5.989   0.399
27673SOL    HW284859   5.153   6.037   0.309
27674SOL     OW84860   3.239   1.700   7.357
27674SOL    HW184861   3.247   1.654   7.273
27674SOL    HW284862   3.272   1.637   7.421
27675SOL     OW84863   7.110  11.637  10.567
27675SOL    HW184864   7.135  11.546  10.584
27675SOL    HW284865   7.016  11.633  10.548
27676SOL     OW84866  12.033   5.633  13.391
27676SOL    HW184867  12.013   5.723  13.417
27676SOL    HW284868  11.949   5.587  13.396
27677SOL     OW84869  11.967   1.140   6.109
27677SOL    HW184870  12.012   1.224   6.115
27677SOL    HW284871  12.024   1.086   6.055
27678SOL     OW84872   7.174  12.180   8.510
27678SOL    HW184873   7.214  12.249   8.563
27678SOL    HW284874   7.244  12.118   8.494
27679SOL     OW84875   9.246   9.646   9.840
27679SOL    HW184876   9.281   9.670   9.926
27679SOL    HW284877   9.297   9.569   9.814
27680SOL     OW84878  10.971   4.403   3.181
27680SOL    HW184879  11.018   4.430   3.102
27680SOL    HW284880  11.037   4.361   3.236
27681SOL     OW84881   8.713   4.153   4.824
27681SOL    HW184882   8.793   4.124   4.781
27681SOL    HW284883   8.675   4.072   4.859
27682SOL     OW84884   9.212  12.049  10.718
27682SOL    HW184885   9.230  12.109  10.790
27682SOL    HW284886   9.134  12.001  10.745
27683SOL     OW84887   2.156   7.169   3.108
27683SOL    HW184888   2.081   7.229   3.110
27683SOL    HW284889   2.232   7.225   3.119
27684SOL     OW84890   6.453   0.355   6.901
27684SOL    HW184891   6.492   0.294   6.963
27684SOL    HW284892   6.515   0.358   6.828
27685SOL     OW84893   6.524   5.783   5.931
27685SOL    HW184894   6.571   5.848   5.983
27685SOL    HW284895   6.448   5.760   5.983
27686SOL     OW84896  14.098   1.304   9.170
27686SOL    HW184897  14.005   1.314   9.151
27686SOL    HW284898  14.100   1.270   9.260
27687SOL     OW84899   8.228   8.475   3.661
27687SOL    HW184900   8.204   8.390   3.624
27687SOL    HW284901   8.203   8.469   3.753
27688SOL     OW84902   4.188  10.274   1.063
27688SOL    HW184903   4.251  10.229   1.006
27688SOL    HW284904   4.187  10.223   1.144
27689SOL     OW84905   4.762   6.640   6.342
27689SOL    HW184906   4.674   6.607   6.360
27689SOL    HW284907   4.810   6.563   6.311
27690SOL     OW84908  11.423   4.521  12.833
27690SOL    HW184909  11.460   4.433  12.844
27690SOL    HW284910  11.346   4.520  12.890
27691SOL     OW84911   3.959   5.395   9.618
27691SOL    HW184912   3.977   5.454   9.691
27691SOL    HW284913   4.012   5.430   9.546
27692SOL     OW84914   3.936   5.541   5.627
27692SOL    HW184915   3.956   5.497   5.545
27692SOL    HW284916   3.959   5.478   5.695
27693SOL     OW84917   2.469   8.927   0.836
27693SOL    HW184918   2.436   8.996   0.895
27693SOL    HW284919   2.561   8.917   0.859
27694SOL     OW84920   5.586  14.761  12.197
27694SOL    HW184921   5.494  14.733  12.201
27694SOL    HW284922   5.581  14.857  12.198
27695SOL     OW84923   4.501   2.937   7.840
27695SOL    HW184924   4.529   2.893   7.921
27695SOL    HW284925   4.434   2.880   7.803
27696SOL     OW84926  13.625  13.930   0.342
27696SOL    HW184927  13.590  14.011   0.305
27696SOL    HW284928  13.673  13.889   0.270
27697SOL     OW84929   1.926   8.130   9.819
27697SOL    HW184930   1.900   8.111   9.729
27697SOL    HW284931   1.984   8.205   9.813
27698SOL     OW84932   5.756   8.658   4.267
27698SOL    HW184933   5.784   8.743   4.231
27698SOL    HW284934   5.836   8.617   4.298
27699SOL     OW84935   3.663   8.156   6.726
27699SOL    HW184936   3.741   8.155   6.669
27699SOL    HW284937   3.594   8.119   6.671
27700SOL     OW84938   4.938   3.151   6.406
27700SOL    HW184939   4.953   3.063   6.440
27700SOL    HW284940   4.913   3.203   6.482
27701SOL     OW84941   1.872   9.962   7.873
27701SOL    HW184942   1.813   9.963   7.949
27701SOL    HW284943   1.948  10.012   7.902
27702SOL     OW84944   3.761   3.227   6.266
27702SOL    HW184945   3.832   3.190   6.212
27702SOL    HW284946   3.741   3.311   6.226
27703SOL     OW84947   4.031   9.162   7.483
27703SOL    HW184948   4.060   9.160   7.392
27703SOL    HW284949   4.013   9.254   7.500
27704SOL     OW84950   4.894  14.102   7.721
27704SOL    HW184951   4.928  14.093   7.810
27704SOL    HW284952   4.945  14.174   7.684
27705SOL     OW84953   9.490   0.095   8.315
27705SOL    HW184954   9.493   0.059   8.404
27705SOL    HW284955   9.572   0.143   8.306
27706SOL     OW84956  10.458   0.367   8.880
27706SOL    HW184957  10.380   0.339   8.927
27706SOL    HW284958  10.521   0.296   8.894
27707SOL     OW84959   1.184   9.203   1.862
27707SOL    HW184960   1.268   9.239   1.834
27707SOL    HW284961   1.122   9.276   1.854
27708SOL     OW84962   6.051   2.867   4.039
27708SOL    HW184963   6.015   2.780   4.055
27708SOL    HW284964   6.032   2.916   4.119
27709SOL     OW84965   5.829   8.371  14.852
27709SOL    HW184966   5.839   8.284   0.018
27709SOL    HW284967   5.850   8.432   0.049
27710SOL     OW84968   0.894   2.800   2.704
27710SOL    HW184969   0.831   2.760   2.764
27710SOL    HW284970   0.910   2.732   2.638
27711SOL     OW84971   4.998  10.904   3.584
27711SOL    HW184972   5.021  10.982   3.633
27711SOL    HW284973   4.913  10.925   3.544
27712SOL     OW84974  11.660   4.454   6.105
27712SOL    HW184975  11.619   4.434   6.189
27712SOL    HW284976  11.586   4.475   6.047
27713SOL     OW84977   7.175   5.359   5.942
27713SOL    HW184978   7.137   5.439   5.906
27713SOL    HW284979   7.104   5.320   5.993
27714SOL     OW84980   1.613   3.056  14.345
27714SOL    HW184981   1.631   3.128  14.284
27714SOL    HW284982   1.651   3.085  14.428
27715SOL     OW84983  10.527  13.321   0.954
27715SOL    HW184984  10.603  13.263   0.956
27715SOL    HW284985  10.452  13.262   0.965
27716SOL     OW84986   4.824  12.277   0.498
27716SOL    HW184987   4.883  12.295   0.572
27716SOL    HW284988   4.832  12.182   0.485
27717SOL     OW84989   2.969   3.290   5.999
27717SOL    HW184990   3.028   3.260   6.068
27717SOL    HW284991   2.898   3.335   6.044
27718SOL     OW84992   9.880  12.209  13.943
27718SOL    HW184993   9.958  12.255  13.912
27718SOL    HW284994   9.807  12.264  13.914
27719SOL     OW84995   6.712   8.019   0.781
27719SOL    HW184996   6.771   7.990   0.851
27719SOL    HW284997   6.643   7.953   0.779
27720SOL     OW84998   2.923   1.456  12.839
27720SOL    HW184999   2.990   1.456  12.770
27720SOL    HW285000   2.889   1.367  12.839
27721SOL     OW85001   8.682   2.984   0.392
27721SOL    HW185002   8.709   3.031   0.471
27721SOL    HW285003   8.713   2.895   0.405
27722SOL     OW85004   4.390   3.286   2.032
27722SOL    HW185005   4.437   3.226   2.089
27722SOL    HW285006   4.454   3.354   2.009
27723SOL     OW85007  13.061   3.429   7.535
27723SOL    HW185008  13.155   3.423   7.550
27723SOL    HW285009  13.046   3.520   7.509
27724SOL     OW85010   4.563   0.508   0.733
27724SOL    HW185011   4.492   0.566   0.704
27724SOL    HW285012   4.639   0.566   0.742
27725SOL     OW85013   4.011  14.799  12.816
27725SOL    HW185014   3.937  14.745  12.786
27725SOL    HW285015   3.971  14.867  12.869
27726SOL     OW85016  12.682   7.700   2.548
27726SOL    HW185017  12.665   7.733   2.636
27726SOL    HW285018  12.680   7.778   2.492
27727SOL     OW85019   3.281   3.536   4.342
27727SOL    HW185020   3.287   3.617   4.291
27727SOL    HW285021   3.338   3.550   4.418
27728SOL     OW85022  11.281   9.721   4.385
27728SOL    HW185023  11.372   9.692   4.379
27728SOL    HW285024  11.237   9.678   4.311
27729SOL     OW85025   7.617  13.616   7.460
27729SOL    HW185026   7.546  13.679   7.468
27729SOL    HW285027   7.682  13.660   7.404
27730SOL     OW85028   1.618   7.529   2.979
27730SOL    HW185029   1.593   7.620   2.967
27730SOL    HW285030   1.563   7.498   3.051
27731SOL     OW85031  13.797  12.558   2.548
27731SOL    HW185032  13.843  12.641   2.559
27731SOL    HW285033  13.704  12.582   2.549
27732SOL     OW85034   6.171  10.843   9.734
27732SOL    HW185035   6.228  10.787   9.787
27732SOL    HW285036   6.104  10.784   9.700
27733SOL     OW85037   7.110   6.798   1.860
27733SOL    HW185038   7.084   6.708   1.878
27733SOL    HW285039   7.203   6.792   1.837
27734SOL     OW85040   5.533  12.875  14.590
27734SOL    HW185041   5.450  12.924  14.586
27734SOL    HW285042   5.512  12.794  14.636
27735SOL     OW85043   8.422   7.356   3.787
27735SOL    HW185044   8.468   7.391   3.710
27735SOL    HW285045   8.336   7.398   3.785
27736SOL     OW85046   9.078   5.386   6.174
27736SOL    HW185047   9.118   5.446   6.238
27736SOL    HW285048   8.997   5.430   6.148
27737SOL     OW85049   5.003  11.427   5.524
27737SOL    HW185050   5.001  11.420   5.428
27737SOL    HW285051   4.981  11.519   5.541
27738SOL     OW85052  13.480  10.124   5.046
27738SOL    HW185053  13.522  10.080   4.972
27738SOL    HW285054  13.539  10.196   5.068
27739SOL     OW85055  11.813   7.989  10.809
27739SOL    HW185056  11.755   8.065  10.812
27739SOL    HW285057  11.876   8.009  10.739
27740SOL     OW85058   3.331   7.252   1.701
27740SOL    HW185059   3.330   7.273   1.794
27740SOL    HW285060   3.247   7.209   1.686
27741SOL     OW85061   0.162  10.857   6.274
27741SOL    HW185062   0.206  10.817   6.199
27741SOL    HW285063   0.069  10.840   6.258
27742SOL     OW85064  13.339   8.224  13.904
27742SOL    HW185065  13.431   8.245  13.914
27742SOL    HW285066  13.320   8.241  13.812
27743SOL     OW85067   4.660  12.545  12.840
27743SOL    HW185068   4.734  12.600  12.812
27743SOL    HW285069   4.624  12.510  12.758
27744SOL     OW85070  13.064  10.024  14.060
27744SOL    HW185071  13.086   9.942  14.106
27744SOL    HW285072  13.104  10.092  14.114
27745SOL     OW85073  14.710  12.882   0.777
27745SOL    HW185074  14.747  12.919   0.858
27745SOL    HW285075  14.739  12.791   0.777
27746SOL     OW85076  12.162   2.580   9.707
27746SOL    HW185077  12.100   2.623   9.648
27746SOL    HW285078  12.109   2.513   9.751
27747SOL     OW85079   5.356  12.441   4.046
27747SOL    HW185080   5.275  12.459   4.094
27747SOL    HW285081   5.335  12.462   3.955
27748SOL     OW85082   0.747   9.692   4.087
27748SOL    HW185083   0.790   9.756   4.030
27748SOL    HW285084   0.787   9.707   4.173
27749SOL     OW85085  11.264  11.024   7.286
27749SOL    HW185086  11.334  11.080   7.320
27749SOL    HW285087  11.251  10.958   7.354
27750SOL     OW85088  14.095   6.433  11.567
27750SOL    HW185089  14.187   6.412  11.556
27750SOL    HW285090  14.061   6.363  11.623
27751SOL     OW85091   0.465  12.602  13.598
27751SOL    HW185092   0.527  12.674  13.604
27751SOL    HW285093   0.413  12.608  13.678
27752SOL     OW85094  11.359   3.244   9.503
27752SOL    HW185095  11.354   3.190   9.424
27752SOL    HW285096  11.298   3.203   9.564
27753SOL     OW85097  12.615  14.575   2.207
27753SOL    HW185098  12.615  14.576   2.112
27753SOL    HW285099  12.593  14.485   2.231
27754SOL     OW85100   2.714  11.438  11.293
27754SOL    HW185101   2.754  11.499  11.231
27754SOL    HW285102   2.786  11.412  11.350
27755SOL     OW85103   1.508   2.956   9.760
27755SOL    HW185104   1.587   3.003   9.786
27755SOL    HW285105   1.439   3.022   9.762
27756SOL     OW85106  12.624  10.515   4.921
27756SOL    HW185107  12.562  10.522   4.994
27756SOL    HW285108  12.602  10.431   4.880
27757SOL     OW85109   6.139   1.968   2.519
27757SOL    HW185110   6.062   2.023   2.504
27757SOL    HW285111   6.194   1.983   2.442
27758SOL     OW85112  11.013   3.576   3.761
27758SOL    HW185113  11.106   3.598   3.763
27758SOL    HW285114  11.002   3.526   3.679
27759SOL     OW85115   4.209   0.440   5.853
27759SOL    HW185116   4.115   0.456   5.848
27759SOL    HW285117   4.218   0.345   5.859
27760SOL     OW85118   5.299   1.309   8.125
27760SOL    HW185119   5.330   1.253   8.197
27760SOL    HW285120   5.376   1.360   8.101
27761SOL     OW85121  10.059   3.299  11.121
27761SOL    HW185122  10.013   3.326  11.041
27761SOL    HW285123   9.992   3.254  11.173
27762SOL     OW85124   1.296  10.391   8.550
27762SOL    HW185125   1.278  10.453   8.622
27762SOL    HW285126   1.316  10.309   8.594
27763SOL     OW85127   3.783  13.831   1.158
27763SOL    HW185128   3.744  13.743   1.167
27763SOL    HW285129   3.708  13.890   1.161
27764SOL     OW85130  13.963  13.986   3.667
27764SOL    HW185131  13.875  13.949   3.679
27764SOL    HW285132  14.022  13.911   3.676
27765SOL     OW85133  14.758   1.385  14.265
27765SOL    HW185134  14.776   1.433  14.184
27765SOL    HW285135  14.844   1.356  14.295
27766SOL     OW85136   1.082   4.263  11.276
27766SOL    HW185137   1.122   4.206  11.342
27766SOL    HW285138   1.136   4.249  11.198
27767SOL     OW85139   4.834  13.907   5.256
27767SOL    HW185140   4.870  13.849   5.323
27767SOL    HW285141   4.751  13.867   5.231
27768SOL     OW85142   2.674   4.536  13.772
27768SOL    HW185143   2.715   4.614  13.734
27768SOL    HW285144   2.596   4.521  13.719
27769SOL     OW85145   7.222   6.237   5.971
27769SOL    HW185146   7.207   6.315   6.024
27769SOL    HW285147   7.136   6.197   5.961
27770SOL     OW85148   8.298   4.821   9.824
27770SOL    HW185149   8.307   4.725   9.828
27770SOL    HW285150   8.388   4.853   9.830
27771SOL     OW85151  12.593  13.224   4.434
27771SOL    HW185152  12.656  13.196   4.367
27771SOL    HW285153  12.603  13.160   4.504
27772SOL     OW85154   3.117   3.185  10.278
27772SOL    HW185155   3.119   3.197  10.373
27772SOL    HW285156   3.132   3.273  10.243
27773SOL     OW85157   4.832  12.669   8.816
27773SOL    HW185158   4.881  12.722   8.753
27773SOL    HW285159   4.873  12.688   8.900
27774SOL     OW85160   0.284   5.245  14.538
27774SOL    HW185161   0.209   5.233  14.596
27774SOL    HW285162   0.299   5.159  14.499
27775SOL     OW85163   3.622   7.912   6.301
27775SOL    HW185164   3.659   7.986   6.253
27775SOL    HW285165   3.575   7.861   6.235
27776SOL     OW85166   0.282   6.711   9.632
27776SOL    HW185167   0.258   6.625   9.667
27776SOL    HW285168   0.348   6.692   9.566
27777SOL     OW85169   5.534  10.668   0.848
27777SOL    HW185170   5.444  10.689   0.871
27777SOL    HW285171   5.546  10.578   0.878
27778SOL     OW85172   1.691   4.459   2.843
27778SOL    HW185173   1.780   4.494   2.837
27778SOL    HW285174   1.692   4.381   2.788
27779SOL     OW85175   1.575  14.609   0.351
27779SOL    HW185176   1.625  14.545   0.299
27779SOL    HW285177   1.499  14.630   0.296
27780SOL     OW85178   9.065   8.918   7.015
27780SOL    HW185179   9.024   8.859   7.078
27780SOL    HW285180   9.034   9.005   7.040
27781SOL     OW85181  11.499  12.466   1.981
27781SOL    HW185182  11.468  12.546   2.022
27781SOL    HW285183  11.588  12.486   1.951
27782SOL     OW85184  11.528   6.305  13.189
27782SOL    HW185185  11.622   6.325  13.196
27782SOL    HW285186  11.499   6.294  13.279
27783SOL     OW85187  13.153  13.334  10.411
27783SOL    HW185188  13.203  13.409  10.444
27783SOL    HW285189  13.148  13.274  10.486
27784SOL     OW85190  11.898   7.002   6.129
27784SOL    HW185191  11.864   7.085   6.094
27784SOL    HW285192  11.819   6.954   6.156
27785SOL     OW85193   1.187   1.507   2.462
27785SOL    HW185194   1.209   1.531   2.552
27785SOL    HW285195   1.243   1.431   2.443
27786SOL     OW85196   2.833   3.645   7.799
27786SOL    HW185197   2.843   3.640   7.704
27786SOL    HW285198   2.815   3.554   7.825
27787SOL     OW85199   3.597  12.516   5.759
27787SOL    HW185200   3.635  12.521   5.847
27787SOL    HW285201   3.672  12.519   5.700
27788SOL     OW85202   6.238   0.635  11.715
27788SOL    HW185203   6.194   0.684  11.646
27788SOL    HW285204   6.327   0.670  11.717
27789SOL     OW85205   0.267  10.042   9.011
27789SOL    HW185206   0.306   9.954   9.003
27789SOL    HW285207   0.175  10.030   8.987
27790SOL     OW85208  14.014  11.199  10.957
27790SOL    HW185209  14.054  11.194  10.870
27790SOL    HW285210  14.088  11.194  11.018
27791SOL     OW85211   4.653   4.765   7.529
27791SOL    HW185212   4.735   4.727   7.560
27791SOL    HW285213   4.647   4.850   7.572
27792SOL     OW85214   7.193  14.658  11.041
27792SOL    HW185215   7.166  14.674  10.951
27792SOL    HW285216   7.110  14.651  11.089
27793SOL     OW85217   2.079   2.810   1.836
27793SOL    HW185218   2.038   2.784   1.754
27793SOL    HW285219   2.008   2.811   1.900
27794SOL     OW85220  11.341   1.007   1.264
27794SOL    HW185221  11.431   1.028   1.241
27794SOL    HW285222  11.319   1.069   1.335
27795SOL     OW85223   9.005   5.268  13.796
27795SOL    HW185224   8.916   5.276  13.830
27795SOL    HW285225   9.050   5.347  13.825
27796SOL     OW85226  13.717  10.711   5.903
27796SOL    HW185227  13.727  10.689   5.811
27796SOL    HW285228  13.661  10.642   5.939
27797SOL     OW85229   7.560   3.894   5.303
27797SOL    HW185230   7.604   3.975   5.326
27797SOL    HW285231   7.623   3.847   5.248
27798SOL     OW85232  13.657   3.445  12.576
27798SOL    HW185233  13.584   3.492  12.614
27798SOL    HW285234  13.726   3.511  12.565
27799SOL     OW85235  13.549  10.816   1.701
27799SOL    HW185236  13.558  10.898   1.653
27799SOL    HW285237  13.457  10.792   1.690
27800SOL     OW85238  14.864   6.311   6.722
27800SOL    HW185239   0.028   6.296   6.635
27800SOL    HW285240   0.061   6.350   6.773
27801SOL     OW85241   1.516   6.305   4.261
27801SOL    HW185242   1.516   6.247   4.337
27801SOL    HW285243   1.432   6.351   4.267
27802SOL     OW85244   5.454  14.124   1.526
27802SOL    HW185245   5.531  14.090   1.572
27802SOL    HW285246   5.472  14.107   1.434
27803SOL     OW85247  12.203  12.069   0.535
27803SOL    HW185248  12.280  12.114   0.570
27803SOL    HW285249  12.166  12.022   0.610
27804SOL     OW85250  12.528  13.739   2.649
27804SOL    HW185251  12.455  13.748   2.588
27804SOL    HW285252  12.543  13.827   2.682
27805SOL     OW85253  14.061  12.674  14.690
27805SOL    HW185254  13.979  12.628  14.710
27805SOL    HW285255  14.124  12.604  14.672
27806SOL     OW85256   7.939   7.054   4.086
27806SOL    HW185257   7.894   6.970   4.097
27806SOL    HW285258   7.868   7.118   4.079
27807SOL     OW85259   1.168   4.686   9.069
27807SOL    HW185260   1.181   4.758   9.007
27807SOL    HW285261   1.159   4.730   9.154
27808SOL     OW85262  11.373   0.969   8.796
27808SOL    HW185263  11.355   1.062   8.787
27808SOL    HW285264  11.292   0.932   8.833
27809SOL     OW85265  10.584  14.565   2.253
27809SOL    HW185266  10.610  14.600   2.338
27809SOL    HW285267  10.568  14.643   2.199
27810SOL     OW85268  13.256  12.389   6.625
27810SOL    HW185269  13.200  12.336   6.681
27810SOL    HW285270  13.214  12.475   6.622
27811SOL     OW85271   7.813   6.541   3.870
27811SOL    HW185272   7.897   6.575   3.839
27811SOL    HW285273   7.822   6.446   3.861
27812SOL     OW85274   9.698   9.933  12.506
27812SOL    HW185275   9.739  10.010  12.466
27812SOL    HW285276   9.610   9.932  12.469
27813SOL     OW85277  14.863  12.455  13.797
27813SOL    HW185278   0.054  12.499  13.851
27813SOL    HW285279  14.844  12.518  13.727
27814SOL     OW85280  10.362  12.744  14.322
27814SOL    HW185281  10.330  12.763  14.234
27814SOL    HW285282  10.392  12.653  14.318
27815SOL     OW85283   7.778   8.555   3.680
27815SOL    HW185284   7.819   8.641   3.672
27815SOL    HW285285   7.833   8.509   3.743
27816SOL     OW85286   6.741  10.436  14.766
27816SOL    HW185287   6.680  10.481  14.824
27816SOL    HW285288   6.801  10.391  14.824
27817SOL     OW85289   7.109  11.456   4.026
27817SOL    HW185290   7.063  11.430   4.106
27817SOL    HW285291   7.194  11.487   4.056
27818SOL     OW85292   4.963  13.900   4.161
27818SOL    HW185293   4.874  13.929   4.179
27818SOL    HW285294   4.977  13.827   4.220
27819SOL     OW85295  10.426   1.554   6.281
27819SOL    HW185296  10.398   1.491   6.349
27819SOL    HW285297  10.465   1.626   6.330
27820SOL     OW85298   2.851   5.039  11.653
27820SOL    HW185299   2.840   5.132  11.632
27820SOL    HW285300   2.850   4.995  11.568
27821SOL     OW85301  13.849   2.639   2.575
27821SOL    HW185302  13.841   2.733   2.593
27821SOL    HW285303  13.859   2.634   2.479
27822SOL     OW85304  13.138   1.272  14.180
27822SOL    HW185305  13.062   1.287  14.124
27822SOL    HW285306  13.125   1.183  14.214
27823SOL     OW85307  12.133   7.309   9.163
27823SOL    HW185308  12.202   7.374   9.167
27823SOL    HW285309  12.178   7.226   9.147
27824SOL     OW85310   7.533  11.281   4.120
27824SOL    HW185311   7.600  11.318   4.063
27824SOL    HW285312   7.580  11.220   4.177
27825SOL     OW85313  14.198   2.128   1.405
27825SOL    HW185314  14.140   2.175   1.464
27825SOL    HW285315  14.150   2.048   1.382
27826SOL     OW85316  12.897   5.897   2.099
27826SOL    HW185317  12.911   5.804   2.113
27826SOL    HW285318  12.811   5.903   2.057
27827SOL     OW85319  13.532  12.674   8.920
27827SOL    HW185320  13.526  12.627   9.004
27827SOL    HW285321  13.591  12.747   8.937
27828SOL     OW85322  14.533   6.627  14.174
27828SOL    HW185323  14.615   6.661  14.209
27828SOL    HW285324  14.551   6.613  14.081
27829SOL     OW85325   3.010   3.511  14.557
27829SOL    HW185326   2.981   3.600  14.535
27829SOL    HW285327   3.098   3.505  14.518
27830SOL     OW85328  13.713   1.871   4.031
27830SOL    HW185329  13.687   1.787   4.068
27830SOL    HW285330  13.780   1.849   3.966
27831SOL     OW85331   6.225  10.312   7.807
27831SOL    HW185332   6.187  10.400   7.802
27831SOL    HW285333   6.277  10.304   7.727
27832SOL     OW85334   7.254   5.036   9.952
27832SOL    HW185335   7.198   5.093  10.005
27832SOL    HW285336   7.205   4.954   9.945
27833SOL     OW85337   1.730   9.117  11.499
27833SOL    HW185338   1.735   9.021  11.503
27833SOL    HW285339   1.817   9.147  11.527
27834SOL     OW85340   2.615   1.799  13.973
27834SOL    HW185341   2.547   1.843  14.023
27834SOL    HW285342   2.641   1.862  13.906
27835SOL     OW85343   4.593  14.504   0.554
27835SOL    HW185344   4.624  14.588   0.586
27835SOL    HW285345   4.504  14.497   0.590
27836SOL     OW85346   8.945   7.964   3.183
27836SOL    HW185347   8.864   7.929   3.219
27836SOL    HW285348   9.015   7.917   3.228
27837SOL     OW85349   8.718   7.830   8.697
27837SOL    HW185350   8.660   7.868   8.762
27837SOL    HW285351   8.674   7.847   8.613
27838SOL     OW85352   6.355   1.438  10.735
27838SOL    HW185353   6.433   1.491  10.721
27838SOL    HW285354   6.352   1.423  10.829
27839SOL     OW85355  12.426  10.743   7.758
27839SOL    HW185356  12.393  10.676   7.698
27839SOL    HW285357  12.521  10.741   7.746
27840SOL     OW85358   0.677   1.753  11.799
27840SOL    HW185359   0.714   1.782  11.715
27840SOL    HW285360   0.743   1.694  11.835
27841SOL     OW85361   7.039   9.083  13.392
27841SOL    HW185362   6.985   9.015  13.431
27841SOL    HW285363   6.990   9.164  13.405
27842SOL     OW85364  14.138   7.824   0.746
27842SOL    HW185365  14.074   7.865   0.688
27842SOL    HW285366  14.173   7.897   0.799
27843SOL     OW85367   8.893  13.066   0.459
27843SOL    HW185368   8.951  13.137   0.488
27843SOL    HW285369   8.909  12.996   0.522
27844SOL     OW85370  13.547  10.017   7.678
27844SOL    HW185371  13.606  10.001   7.752
27844SOL    HW285372  13.604  10.049   7.609
27845SOL     OW85373  10.382   5.860   6.332
27845SOL    HW185374  10.426   5.858   6.248
27845SOL    HW285375  10.453   5.865   6.397
27846SOL     OW85376   0.136  12.704  12.959
27846SOL    HW185377   0.163  12.685  13.049
27846SOL    HW285378   0.041  12.697  12.961
27847SOL     OW85379   6.764   4.077   7.395
27847SOL    HW185380   6.856   4.102   7.381
27847SOL    HW285381   6.768   3.997   7.447
27848SOL     OW85382   7.761   4.060  11.677
27848SOL    HW185383   7.668   4.040  11.683
27848SOL    HW285384   7.776   4.083  11.586
27849SOL     OW85385   2.830   6.600   1.050
27849SOL    HW185386   2.804   6.670   1.109
27849SOL    HW285387   2.850   6.645   0.967
27850SOL     OW85388  12.065  14.760  11.451
27850SOL    HW185389  12.096  14.835  11.502
27850SOL    HW285390  11.981  14.738  11.490
27851SOL     OW85391   4.455  10.879  12.588
27851SOL    HW185392   4.429  10.941  12.656
27851SOL    HW285393   4.432  10.922  12.506
27852SOL     OW85394   3.923   3.446   3.111
27852SOL    HW185395   3.876   3.373   3.070
27852SOL    HW285396   4.016   3.421   3.106
27853SOL     OW85397   6.824   6.196  14.256
27853SOL    HW185398   6.753   6.172  14.316
27853SOL    HW285399   6.883   6.121  14.258
27854SOL     OW85400   4.424   5.280  14.018
27854SOL    HW185401   4.461   5.192  14.024
27854SOL    HW285402   4.355   5.272  13.952
27855SOL     OW85403   4.328  11.034   7.786
27855SOL    HW185404   4.285  11.004   7.705
27855SOL    HW285405   4.419  11.005   7.776
27856SOL     OW85406   5.588   5.928  11.392
27856SOL    HW185407   5.504   5.924  11.437
27856SOL    HW285408   5.644   5.979  11.450
27857SOL     OW85409   5.572   5.243   7.161
27857SOL    HW185410   5.623   5.187   7.220
27857SOL    HW285411   5.487   5.200   7.154
27858SOL     OW85412  12.317   5.277  11.202
27858SOL    HW185413  12.260   5.311  11.272
27858SOL    HW285414  12.300   5.335  11.128
27859SOL     OW85415  11.058   3.097  10.818
27859SOL    HW185416  11.119   3.118  10.888
27859SOL    HW285417  11.100   3.130  10.738
27860SOL     OW85418   9.711   7.405   5.835
27860SOL    HW185419   9.656   7.473   5.797
27860SOL    HW285420   9.796   7.447   5.847
27861SOL     OW85421   3.744  12.228   6.260
27861SOL    HW185422   3.752  12.305   6.317
27861SOL    HW285423   3.833  12.196   6.250
27862SOL     OW85424  11.677   8.631  10.639
27862SOL    HW185425  11.641   8.698  10.697
27862SOL    HW285426  11.765   8.615  10.674
27863SOL     OW85427  11.097   6.158   9.808
27863SOL    HW185428  11.160   6.207   9.756
27863SOL    HW285429  11.111   6.067   9.783
27864SOL     OW85430   8.111  12.425   5.911
27864SOL    HW185431   8.168  12.356   5.945
27864SOL    HW285432   8.128  12.501   5.968
27865SOL     OW85433   7.641   5.588  11.329
27865SOL    HW185434   7.718   5.572  11.385
27865SOL    HW285435   7.665   5.664  11.277
27866SOL     OW85436   6.082  11.481   4.493
27866SOL    HW185437   6.050  11.504   4.406
27866SOL    HW285438   6.007  11.496   4.550
27867SOL     OW85439   8.207   1.285   9.041
27867SOL    HW185440   8.234   1.298   8.950
27867SOL    HW285441   8.131   1.228   9.035
27868SOL     OW85442   1.060   4.110   8.722
27868SOL    HW185443   1.105   4.101   8.638
27868SOL    HW285444   0.983   4.163   8.702
27869SOL     OW85445  13.107   5.881  12.982
27869SOL    HW185446  13.027   5.863  12.933
27869SOL    HW285447  13.161   5.933  12.923
27870SOL     OW85448  10.814  12.648   6.698
27870SOL    HW185449  10.785  12.624   6.786
27870SOL    HW285450  10.796  12.570   6.645
27871SOL     OW85451   2.588  10.104   5.444
27871SOL    HW185452   2.511  10.081   5.495
27871SOL    HW285453   2.570  10.192   5.412
27872SOL     OW85454   7.190   0.011   8.742
27872SOL    HW185455   7.218  14.818   8.804
27872SOL    HW285456   7.272   0.053   8.714
27873SOL     OW85457   8.149   6.915   3.956
27873SOL    HW185458   8.067   6.952   3.987
27873SOL    HW285459   8.180   6.977   3.890
27874SOL     OW85460  11.402   6.280   7.754
27874SOL    HW185461  11.419   6.361   7.706
27874SOL    HW285462  11.336   6.303   7.819
27875SOL     OW85463   2.206  10.523  11.716
27875SOL    HW185464   2.167  10.559  11.795
27875SOL    HW285465   2.198  10.428  11.725
27876SOL     OW85466   3.644   5.308  12.349
27876SOL    HW185467   3.645   5.238  12.284
27876SOL    HW285468   3.701   5.376  12.313
27877SOL     OW85469  12.924  10.689   9.348
27877SOL    HW185470  12.916  10.680   9.443
27877SOL    HW285471  12.839  10.660   9.314
27878SOL     OW85472   2.012  11.084   8.921
27878SOL    HW185473   1.941  11.136   8.883
27878SOL    HW285474   1.983  11.066   9.010
27879SOL     OW85475  13.976   1.962   1.752
27879SOL    HW185476  13.981   2.050   1.788
27879SOL    HW285477  13.954   1.906   1.826
27880SOL     OW85478   0.445   3.613   9.235
27880SOL    HW185479   0.538   3.594   9.222
27880SOL    HW285480   0.404   3.527   9.244
27881SOL     OW85481   1.218  11.985  10.034
27881SOL    HW185482   1.169  11.944   9.963
27881SOL    HW285483   1.296  12.022   9.991
27882SOL     OW85484  12.379  12.884   0.211
27882SOL    HW185485  12.471  12.885   0.237
27882SOL    HW285486  12.376  12.831   0.132
27883SOL     OW85487  10.173   4.525  11.710
27883SOL    HW185488  10.217   4.485  11.634
27883SOL    HW285489  10.205   4.615  11.711
27884SOL     OW85490   2.358   7.828  11.470
27884SOL    HW185491   2.387   7.918  11.488
27884SOL    HW285492   2.433   7.787  11.427
27885SOL     OW85493   4.046   6.142   1.407
27885SOL    HW185494   4.080   6.202   1.341
27885SOL    HW285495   4.038   6.196   1.486
27886SOL     OW85496  13.183   5.939  12.113
27886SOL    HW185497  13.221   5.873  12.056
27886SOL    HW285498  13.128   5.992  12.056
27887SOL     OW85499   9.298  10.532   9.619
27887SOL    HW185500   9.363  10.595   9.649
27887SOL    HW285501   9.350  10.456   9.592
27888SOL     OW85502  12.087   0.026   0.042
27888SOL    HW185503  12.021   0.095   0.053
27888SOL    HW285504  12.052  14.844  14.847
27889SOL     OW85505  10.327  14.715  12.600
27889SOL    HW185506  10.296  14.789  12.653
27889SOL    HW285507  10.397  14.753  12.546
27890SOL     OW85508   0.964   8.859  10.920
27890SOL    HW185509   0.937   8.857  10.828
27890SOL    HW285510   0.961   8.951  10.944
27891SOL     OW85511  11.440   7.727   5.935
27891SOL    HW185512  11.461   7.696   6.022
27891SOL    HW285513  11.371   7.669   5.904
27892SOL     OW85514  14.871   5.940   0.439
27892SOL    HW185515  14.795   5.927   0.495
27892SOL    HW285516   0.038   5.854   0.433
27893SOL     OW85517   1.452   9.645  13.269
27893SOL    HW185518   1.444   9.686  13.182
27893SOL    HW285519   1.517   9.576  13.256
27894SOL     OW85520   4.450  12.257   6.417
27894SOL    HW185521   4.396  12.336   6.425
27894SOL    HW285522   4.501  12.270   6.337
27895SOL     OW85523   5.346   9.108   1.032
27895SOL    HW185524   5.332   9.019   1.063
27895SOL    HW285525   5.379   9.097   0.943
27896SOL     OW85526   7.972  10.660   6.098
27896SOL    HW185527   8.038  10.595   6.123
27896SOL    HW285528   7.889  10.613   6.105
27897SOL     OW85529   9.091   6.760  12.946
27897SOL    HW185530   9.072   6.831  12.885
27897SOL    HW285531   9.054   6.682  12.904
27898SOL     OW85532  12.921   9.089   1.971
27898SOL    HW185533  12.865   9.018   1.939
27898SOL    HW285534  12.861   9.162   1.987
27899SOL     OW85535   4.298   2.645   2.027
27899SOL    HW185536   4.375   2.702   2.035
27899SOL    HW285537   4.226   2.705   2.008
27900SOL     OW85538   6.066   3.895  14.146
27900SOL    HW185539   6.111   3.979  14.146
27900SOL    HW285540   6.134   3.830  14.164
27901SOL     OW85541   9.783   9.946   2.673
27901SOL    HW185542   9.833   9.984   2.600
27901SOL    HW285543   9.718  10.013   2.695
27902SOL     OW85544   9.908   4.751   1.993
27902SOL    HW185545   9.896   4.787   2.081
27902SOL    HW285546   9.900   4.656   2.005
27903SOL     OW85547  10.799   3.869   1.913
27903SOL    HW185548  10.712   3.889   1.946
27903SOL    HW285549  10.827   3.947   1.866
27904SOL     OW85550  13.525  14.133   0.154
27904SOL    HW185551  13.492  14.223   0.154
27904SOL    HW285552  13.574  14.125   0.072
27905SOL     OW85553   0.679  12.969  10.837
27905SOL    HW185554   0.620  12.953  10.911
27905SOL    HW285555   0.749  13.023  10.874
27906SOL     OW85556  10.287   4.198  12.854
27906SOL    HW185557  10.245   4.170  12.772
27906SOL    HW285558  10.234   4.271  12.884
27907SOL     OW85559   7.205  11.275   6.828
27907SOL    HW185560   7.182  11.206   6.765
27907SOL    HW285561   7.287  11.311   6.795
27908SOL     OW85562   7.524   5.507   1.913
27908SOL    HW185563   7.591   5.537   1.975
27908SOL    HW285564   7.492   5.587   1.871
27909SOL     OW85565   4.760  10.736  10.675
27909SOL    HW185566   4.678  10.687  10.664
27909SOL    HW285567   4.824  10.671  10.703
27910SOL     OW85568   5.761   3.864  11.448
27910SOL    HW185569   5.839   3.915  11.425
27910SOL    HW285570   5.688   3.923  11.434
27911SOL     OW85571  13.564   4.607   7.800
27911SOL    HW185572  13.626   4.644   7.737
27911SOL    HW285573  13.527   4.532   7.755
27912SOL     OW85574   2.892   6.975   8.241
27912SOL    HW185575   2.899   6.925   8.160
27912SOL    HW285576   2.947   7.052   8.226
27913SOL     OW85577   8.037  11.708   5.222
27913SOL    HW185578   8.109  11.764   5.250
27913SOL    HW285579   7.993  11.683   5.303
27914SOL     OW85580  10.630  14.286   0.166
27914SOL    HW185581  10.581  14.246   0.239
27914SOL    HW285582  10.577  14.362   0.142
27915SOL     OW85583  11.061   9.192   4.760
27915SOL    HW185584  11.086   9.100   4.750
27915SOL    HW285585  10.986   9.202   4.702
27916SOL     OW85586   7.072   0.724   6.719
27916SOL    HW185587   7.040   0.635   6.704
27916SOL    HW285588   7.036   0.774   6.646
27917SOL     OW85589  11.033   3.121   0.365
27917SOL    HW185590  10.942   3.118   0.335
27917SOL    HW285591  11.070   3.197   0.320
27918SOL     OW85592   8.188   5.138  14.194
27918SOL    HW185593   8.140   5.221  14.195
27918SOL    HW285594   8.278   5.162  14.217
27919SOL     OW85595   1.735  13.029  13.647
27919SOL    HW185596   1.670  13.087  13.686
27919SOL    HW285597   1.685  12.955  13.613
27920SOL     OW85598  11.243   1.346   6.636
27920SOL    HW185599  11.239   1.305   6.549
27920SOL    HW285600  11.216   1.437   6.621
27921SOL     OW85601   7.958   6.562   4.597
27921SOL    HW185602   7.932   6.599   4.681
27921SOL    HW285603   7.875   6.551   4.550
27922SOL     OW85604  12.319   4.478  10.603
27922SOL    HW185605  12.312   4.555  10.547
27922SOL    HW285606  12.277   4.505  10.685
27923SOL     OW85607   6.649  12.232   2.905
27923SOL    HW185608   6.704  12.187   2.841
27923SOL    HW285609   6.561  12.229   2.867
27924SOL     OW85610   3.191  10.905   4.074
27924SOL    HW185611   3.255  10.841   4.105
27924SOL    HW285612   3.157  10.945   4.153
27925SOL     OW85613  12.633   9.928   2.772
27925SOL    HW185614  12.543   9.897   2.787
27925SOL    HW285615  12.627  10.023   2.780
27926SOL     OW85616   2.422   0.676   9.056
27926SOL    HW185617   2.354   0.636   9.111
27926SOL    HW285618   2.486   0.710   9.118
27927SOL     OW85619   0.234  13.336   3.732
27927SOL    HW185620   0.284  13.332   3.650
27927SOL    HW285621   0.144  13.353   3.704
27928SOL     OW85622   4.017  10.340  13.908
27928SOL    HW185623   3.930  10.360  13.874
27928SOL    HW285624   4.072  10.413  13.878
27929SOL     OW85625  13.528  11.005   0.375
27929SOL    HW185626  13.587  11.071   0.338
27929SOL    HW285627  13.491  11.048   0.452
27930SOL     OW85628   2.802  10.541   8.351
27930SOL    HW185629   2.821  10.533   8.444
27930SOL    HW285630   2.724  10.487   8.337
27931SOL     OW85631   0.426   6.051  14.656
27931SOL    HW185632   0.496   6.087  14.601
27931SOL    HW285633   0.372   5.999  14.596
27932SOL     OW85634   9.500   6.888  10.888
27932SOL    HW185635   9.519   6.857  10.977
27932SOL    HW285636   9.575   6.858  10.836
27933SOL     OW85637   1.755   5.619   6.248
27933SOL    HW185638   1.664   5.589   6.252
27933SOL    HW285639   1.802   5.548   6.206
27934SOL     OW85640   8.963   1.488   6.968
27934SOL    HW185641   8.921   1.457   6.888
27934SOL    HW285642   8.893   1.493   7.032
27935SOL     OW85643  13.298   8.425   2.601
27935SOL    HW185644  13.281   8.425   2.507
27935SOL    HW285645  13.275   8.337   2.629
27936SOL     OW85646   7.612   0.905   5.539
27936SOL    HW185647   7.567   0.956   5.472
27936SOL    HW285648   7.603   0.814   5.511
27937SOL     OW85649   1.847   2.750   7.612
27937SOL    HW185650   1.936   2.760   7.643
27937SOL    HW285651   1.793   2.795   7.677
27938SOL     OW85652   8.110   7.123   7.014
27938SOL    HW185653   8.093   7.066   7.089
27938SOL    HW285654   8.140   7.205   7.053
27939SOL     OW85655   6.438   8.300   2.168
27939SOL    HW185656   6.348   8.325   2.148
27939SOL    HW285657   6.455   8.224   2.113
27940SOL     OW85658   6.377   9.113   2.349
27940SOL    HW185659   6.374   9.157   2.434
27940SOL    HW285660   6.312   9.160   2.296
27941SOL     OW85661  13.372  13.375  10.967
27941SOL    HW185662  13.409  13.329  11.042
27941SOL    HW285663  13.448  13.406  10.918
27942SOL     OW85664   1.416   5.824   1.002
27942SOL    HW185665   1.412   5.788   1.091
27942SOL    HW285666   1.480   5.895   1.009
27943SOL     OW85667  13.075   9.396   9.037
27943SOL    HW185668  13.023   9.436   8.967
27943SOL    HW285669  13.026   9.319   9.063
27944SOL     OW85670   0.992  11.280   3.259
27944SOL    HW185671   1.058  11.337   3.219
27944SOL    HW285672   1.021  11.271   3.350
27945SOL     OW85673   5.140   0.647   4.552
27945SOL    HW185674   5.217   0.651   4.496
27945SOL    HW285675   5.176   0.639   4.641
27946SOL     OW85676  12.797   3.656   3.802
27946SOL    HW185677  12.813   3.662   3.708
27946SOL    HW285678  12.702   3.648   3.809
27947SOL     OW85679   0.369  11.482   5.972
27947SOL    HW185680   0.428  11.554   5.995
27947SOL    HW285681   0.416  11.434   5.903
27948SOL     OW85682   0.818  10.948   0.548
27948SOL    HW185683   0.847  10.899   0.471
27948SOL    HW285684   0.781  11.029   0.513
27949SOL     OW85685   7.695  12.296   3.982
27949SOL    HW185686   7.707  12.338   4.067
27949SOL    HW285687   7.605  12.262   3.984
27950SOL     OW85688   8.996   5.810   1.102
27950SOL    HW185689   8.935   5.858   1.159
27950SOL    HW285690   9.001   5.863   1.023
27951SOL     OW85691   7.712   1.108  14.581
27951SOL    HW185692   7.735   1.193  14.620
27951SOL    HW285693   7.679   1.056  14.654
27952SOL     OW85694  14.289  14.411  12.478
27952SOL    HW185695  14.263  14.360  12.401
27952SOL    HW285696  14.331  14.489  12.442
27953SOL     OW85697  13.317  13.588  11.342
27953SOL    HW185698  13.266  13.663  11.373
27953SOL    HW285699  13.262  13.547  11.276
27954SOL     OW85700  13.713  11.071   2.404
27954SOL    HW185701  13.618  11.057   2.406
27954SOL    HW285702  13.730  11.130   2.477
27955SOL     OW85703   5.916  10.080  13.685
27955SOL    HW185704   5.988  10.135  13.714
27955SOL    HW285705   5.852  10.141  13.649
27956SOL     OW85706   5.149   0.464  13.261
27956SOL    HW185707   5.164   0.556  13.282
27956SOL    HW285708   5.139   0.462  13.166
27957SOL     OW85709   8.254   9.397   3.254
27957SOL    HW185710   8.234   9.370   3.343
27957SOL    HW285711   8.324   9.339   3.226
27958SOL     OW85712   7.590  14.649   9.383
27958SOL    HW185713   7.636  14.728   9.355
27958SOL    HW285714   7.533  14.678   9.454
27959SOL     OW85715  10.424   3.394  14.749
27959SOL    HW185716  10.346   3.340  14.762
27959SOL    HW285717  10.399   3.480  14.780
27960SOL     OW85718  14.083   2.101   8.129
27960SOL    HW185719  14.099   2.193   8.108
27960SOL    HW285720  13.987   2.093   8.130
27961SOL     OW85721  11.485  11.755  14.718
27961SOL    HW185722  11.399  11.764  14.758
27961SOL    HW285723  11.479  11.677  14.663
27962SOL     OW85724  14.007   8.023   8.889
27962SOL    HW185725  14.023   8.077   8.811
27962SOL    HW285726  14.049   8.071   8.960
27963SOL     OW85727   7.901  12.373   0.989
27963SOL    HW185728   7.926  12.305   1.052
27963SOL    HW285729   7.820  12.410   1.024
27964SOL     OW85730   0.987   3.205  10.313
27964SOL    HW185731   0.977   3.199  10.218
27964SOL    HW285732   0.935   3.132  10.347
27965SOL     OW85733   5.946  14.820   4.353
27965SOL    HW185734   5.999  14.843   4.277
27965SOL    HW285735   6.000  14.843   4.429
27966SOL     OW85736  12.333   4.590  12.534
27966SOL    HW185737  12.382   4.668  12.509
27966SOL    HW285738  12.344   4.584  12.629
27967SOL     OW85739   9.803   6.818   1.641
27967SOL    HW185740   9.717   6.786   1.670
27967SOL    HW285741   9.843   6.743   1.598
27968SOL     OW85742  10.258   2.915   4.978
27968SOL    HW185743  10.178   2.962   5.004
27968SOL    HW285744  10.225   2.839   4.930
27969SOL     OW85745   5.680   4.582   3.792
27969SOL    HW185746   5.657   4.521   3.723
27969SOL    HW285747   5.754   4.541   3.838
27970SOL     OW85748   8.787  12.124   2.542
27970SOL    HW185749   8.795  12.151   2.634
27970SOL    HW285750   8.873  12.088   2.520
27971SOL     OW85751   6.258   1.182  11.883
27971SOL    HW185752   6.338   1.228  11.909
27971SOL    HW285753   6.252   1.197  11.789
27972SOL     OW85754   8.473   4.593  11.190
27972SOL    HW185755   8.480   4.656  11.263
27972SOL    HW285756   8.547   4.534  11.202
27973SOL     OW85757  13.544   1.427   1.495
27973SOL    HW185758  13.561   1.448   1.403
27973SOL    HW285759  13.546   1.331   1.498
27974SOL     OW85760  13.021  11.340   5.029
27974SOL    HW185761  13.012  11.430   4.998
27974SOL    HW285762  13.112  11.318   5.013
27975SOL     OW85763   3.410   0.893   4.656
27975SOL    HW185764   3.435   0.873   4.746
27975SOL    HW285765   3.318   0.869   4.651
27976SOL     OW85766   2.507   3.709   6.276
27976SOL    HW185767   2.424   3.692   6.232
27976SOL    HW285768   2.565   3.742   6.207
27977SOL     OW85769  13.090   8.111   1.465
27977SOL    HW185770  13.062   8.191   1.511
27977SOL    HW285771  13.185   8.109   1.478
27978SOL     OW85772   5.983   2.595   0.478
27978SOL    HW185773   6.077   2.594   0.461
27978SOL    HW285774   5.971   2.661   0.546
27979SOL     OW85775  11.534  10.415   9.322
27979SOL    HW185776  11.461  10.417   9.384
27979SOL    HW285777  11.529  10.498   9.276
27980SOL     OW85778   1.507   1.338  10.690
27980SOL    HW185779   1.592   1.311  10.656
27980SOL    HW285780   1.518   1.430  10.714
27981SOL     OW85781   2.406  10.717   6.773
27981SOL    HW185782   2.365  10.801   6.793
27981SOL    HW285783   2.452  10.694   6.853
27982SOL     OW85784  10.560   5.150   1.790
27982SOL    HW185785  10.634   5.095   1.764
27982SOL    HW285786  10.513   5.167   1.708
27983SOL     OW85787   7.493   3.250  13.465
27983SOL    HW185788   7.568   3.255  13.524
27983SOL    HW285789   7.419   3.229  13.522
27984SOL     OW85790   8.738  14.674   5.185
27984SOL    HW185791   8.808  14.668   5.120
27984SOL    HW285792   8.776  14.637   5.265
27985SOL     OW85793   2.284   3.192   3.078
27985SOL    HW185794   2.203   3.243   3.071
27985SOL    HW285795   2.269   3.132   3.150
27986SOL     OW85796   2.943   0.836   5.761
27986SOL    HW185797   2.941   0.856   5.855
27986SOL    HW285798   2.854   0.852   5.731
27987SOL     OW85799   1.711  11.761   7.483
27987SOL    HW185800   1.702  11.753   7.578
27987SOL    HW285801   1.628  11.729   7.448
27988SOL     OW85802   2.876   1.506  13.299
27988SOL    HW185803   2.945   1.525  13.236
27988SOL    HW285804   2.884   1.412  13.316
27989SOL     OW85805  13.574  14.454   3.653
27989SOL    HW185806  13.596  14.510   3.579
27989SOL    HW285807  13.586  14.365   3.620
27990SOL     OW85808  14.803  10.901   8.909
27990SOL    HW185809  14.817  10.893   8.815
27990SOL    HW285810  14.726  10.848   8.927
27991SOL     OW85811  12.282  10.441   3.178
27991SOL    HW185812  12.271  10.531   3.207
27991SOL    HW285813  12.368  10.415   3.212
27992SOL     OW85814   6.067  11.572  14.639
27992SOL    HW185815   5.991  11.594  14.694
27992SOL    HW285816   6.035  11.584  14.549
27993SOL     OW85817   6.230   6.660  11.793
27993SOL    HW185818   6.221   6.634  11.702
27993SOL    HW285819   6.240   6.578  11.841
27994SOL     OW85820   4.135   0.286   5.429
27994SOL    HW185821   4.055   0.246   5.393
27994SOL    HW285822   4.112   0.378   5.442
27995SOL     OW85823   1.553   7.090   1.585
27995SOL    HW185824   1.462   7.094   1.556
27995SOL    HW285825   1.579   6.999   1.572
27996SOL     OW85826   6.170   5.462   2.524
27996SOL    HW185827   6.187   5.527   2.456
27996SOL    HW285828   6.142   5.513   2.600
27997SOL     OW85829   2.666   0.647  10.990
27997SOL    HW185830   2.651   0.554  10.973
27997SOL    HW285831   2.580   0.680  11.018
27998SOL     OW85832   6.422   5.679   4.975
27998SOL    HW185833   6.515   5.688   4.992
27998SOL    HW285834   6.417   5.628   4.894
27999SOL     OW85835   4.479   7.643   0.135
27999SOL    HW185836   4.446   7.732   0.121
27999SOL    HW285837   4.574   7.651   0.128
28000SOL     OW85838  12.973   7.015  14.556
28000SOL    HW185839  12.932   7.057  14.632
28000SOL    HW285840  13.067   7.018  14.575
28001SOL     OW85841  13.437   4.189   4.272
28001SOL    HW185842  13.400   4.261   4.221
28001SOL    HW285843  13.465   4.125   4.207
28002SOL     OW85844  11.663   4.555  13.542
28002SOL    HW185845  11.731   4.582  13.479
28002SOL    HW285846  11.642   4.465  13.517
28003SOL     OW85847   3.824  11.871  14.150
28003SOL    HW185848   3.869  11.871  14.234
28003SOL    HW285849   3.733  11.849  14.171
28004SOL     OW85850   1.215  13.836   9.558
28004SOL    HW185851   1.232  13.926   9.531
28004SOL    HW285852   1.213  13.786   9.477
28005SOL     OW85853   9.692   6.393   3.934
28005SOL    HW185854   9.784   6.419   3.931
28005SOL    HW285855   9.665   6.406   4.025
28006SOL     OW85856  10.264  14.021   2.548
28006SOL    HW185857  10.294  14.076   2.475
28006SOL    HW285858  10.323  13.945   2.547
28007SOL     OW85859   2.510   5.171   3.184
28007SOL    HW185860   2.588   5.226   3.187
28007SOL    HW285861   2.438   5.234   3.169
28008SOL     OW85862   6.379   2.069   5.586
28008SOL    HW185863   6.321   2.072   5.661
28008SOL    HW285864   6.394   1.975   5.572
28009SOL     OW85865   1.484   5.267   6.400
28009SOL    HW185866   1.511   5.225   6.482
28009SOL    HW285867   1.474   5.359   6.422
28010SOL     OW85868   6.509   2.309  12.352
28010SOL    HW185869   6.496   2.349  12.266
28010SOL    HW285870   6.551   2.378  12.404
28011SOL     OW85871   5.881   2.968  11.885
28011SOL    HW185872   5.865   3.029  11.812
28011SOL    HW285873   5.897   3.025  11.960
28012SOL     OW85874   8.072  12.225   8.136
28012SOL    HW185875   8.005  12.252   8.073
28012SOL    HW285876   8.070  12.293   8.204
28013SOL     OW85877   2.221   2.239  13.382
28013SOL    HW185878   2.241   2.172  13.317
28013SOL    HW285879   2.190   2.314  13.330
28014SOL     OW85880   3.395  12.718  12.723
28014SOL    HW185881   3.447  12.734  12.645
28014SOL    HW285882   3.456  12.679  12.785
28015SOL     OW85883   4.850   9.258  10.247
28015SOL    HW185884   4.875   9.275  10.156
28015SOL    HW285885   4.920   9.204  10.282
28016SOL     OW85886   6.372   7.683   8.072
28016SOL    HW185887   6.379   7.691   7.976
28016SOL    HW285888   6.311   7.752   8.097
28017SOL     OW85889   2.007  14.696  11.349
28017SOL    HW185890   2.051  14.624  11.304
28017SOL    HW285891   1.978  14.754  11.278
28018SOL     OW85892   6.904  11.684   1.843
28018SOL    HW185893   6.946  11.598   1.850
28018SOL    HW285894   6.816  11.670   1.878
28019SOL     OW85895   7.594   5.473   1.180
28019SOL    HW185896   7.544   5.421   1.243
28019SOL    HW285897   7.645   5.533   1.235
28020SOL     OW85898  13.316   3.266   0.190
28020SOL    HW185899  13.363   3.335   0.144
28020SOL    HW285900  13.223   3.287   0.177
28021SOL     OW85901  13.609   6.829   6.577
28021SOL    HW185902  13.548   6.837   6.650
28021SOL    HW285903  13.685   6.881   6.603
28022SOL     OW85904  12.882  14.177   3.397
28022SOL    HW185905  12.845  14.256   3.359
28022SOL    HW285906  12.973  14.199   3.414
28023SOL     OW85907   2.667   6.666   3.567
28023SOL    HW185908   2.728   6.597   3.541
28023SOL    HW285909   2.622   6.690   3.486
28024SOL     OW85910  11.208   5.010   9.289
28024SOL    HW185911  11.291   5.057   9.292
28024SOL    HW285912  11.196   4.989   9.196
28025SOL     OW85913   1.762   6.745  12.063
28025SOL    HW185914   1.849   6.747  12.102
28025SOL    HW285915   1.711   6.808  12.114
28026SOL     OW85916   9.594   6.881   4.858
28026SOL    HW185917   9.540   6.900   4.781
28026SOL    HW285918   9.627   6.793   4.843
28027SOL     OW85919   0.176   6.354  11.796
28027SOL    HW185920   0.083   6.377  11.805
28027SOL    HW285921   0.184   6.326  11.704
28028SOL     OW85922  13.530   2.522   3.952
28028SOL    HW185923  13.508   2.608   3.917
28028SOL    HW285924  13.624   2.526   3.970
28029SOL     OW85925   4.795  13.689   3.516
28029SOL    HW185926   4.807  13.594   3.512
28029SOL    HW285927   4.868  13.719   3.570
28030SOL     OW85928   3.943   4.579   1.528
28030SOL    HW185929   3.894   4.509   1.571
28030SOL    HW285930   3.876   4.632   1.484
28031SOL     OW85931   3.803   4.951   3.805
28031SOL    HW185932   3.810   4.999   3.888
28031SOL    HW285933   3.843   4.866   3.824
28032SOL     OW85934   4.798   9.036   9.090
28032SOL    HW185935   4.718   9.082   9.115
28032SOL    HW285936   4.785   9.012   8.998
28033SOL     OW85937   0.864  12.323   6.622
28033SOL    HW185938   0.947  12.356   6.655
28033SOL    HW285939   0.838  12.256   6.684
28034SOL     OW85940  10.678  11.388  12.196
28034SOL    HW185941  10.667  11.381  12.291
28034SOL    HW285942  10.636  11.470  12.173
28035SOL     OW85943  13.828  11.673   5.714
28035SOL    HW185944  13.881  11.637   5.643
28035SOL    HW285945  13.783  11.748   5.674
28036SOL     OW85946  10.241  12.074   4.815
28036SOL    HW185947  10.319  12.125   4.792
28036SOL    HW285948  10.273  11.988   4.839
28037SOL     OW85949  11.810  13.791   7.987
28037SOL    HW185950  11.785  13.760   8.074
28037SOL    HW285951  11.728  13.795   7.939
28038SOL     OW85952   5.545   4.482   7.728
28038SOL    HW185953   5.639   4.494   7.716
28038SOL    HW285954   5.505   4.536   7.660
28039SOL     OW85955   9.656   7.140  14.605
28039SOL    HW185956   9.668   7.207  14.537
28039SOL    HW285957   9.644   7.059  14.556
28040SOL     OW85958   7.942   1.800   5.813
28040SOL    HW185959   7.937   1.873   5.875
28040SOL    HW285960   7.889   1.827   5.739
28041SOL     OW85961   9.038   6.408   3.327
28041SOL    HW185962   9.063   6.318   3.307
28041SOL    HW285963   9.088   6.430   3.405
28042SOL     OW85964   0.694  10.773  12.746
28042SOL    HW185965   0.727  10.860  12.724
28042SOL    HW285966   0.610  10.768  12.701
28043SOL     OW85967   5.696   7.675  13.145
28043SOL    HW185968   5.732   7.592  13.116
28043SOL    HW285969   5.618   7.688  13.090
28044SOL     OW85970   1.102   5.166   1.866
28044SOL    HW185971   1.034   5.233   1.859
28044SOL    HW285972   1.177   5.212   1.905
28045SOL     OW85973   7.083   6.895   6.799
28045SOL    HW185974   6.990   6.918   6.796
28045SOL    HW285975   7.085   6.804   6.829
28046SOL     OW85976   0.368   2.156   3.483
28046SOL    HW185977   0.415   2.238   3.470
28046SOL    HW285978   0.322   2.167   3.566
28047SOL     OW85979  13.884  14.697   8.336
28047SOL    HW185980  13.800  14.683   8.292
28047SOL    HW285981  13.917  14.608   8.352
28048SOL     OW85982  11.389   2.181  14.857
28048SOL    HW185983  11.423   2.094  14.837
28048SOL    HW285984  11.363   2.176   0.075
28049SOL     OW85985   2.868   1.685   7.214
28049SOL    HW185986   2.942   1.631   7.187
28049SOL    HW285987   2.857   1.748   7.143
28050SOL     OW85988   4.864   1.816   3.413
28050SOL    HW185989   4.783   1.865   3.396
28050SOL    HW285990   4.933   1.883   3.409
28051SOL     OW85991   9.669   9.338   5.928
28051SOL    HW185992   9.712   9.268   5.878
28051SOL    HW285993   9.713   9.418   5.900
28052SOL     OW85994   8.855   1.012   6.099
28052SOL    HW185995   8.942   0.997   6.137
28052SOL    HW285996   8.846   0.946   6.031
28053SOL     OW85997   0.339   5.942  10.006
28053SOL    HW185998   0.282   5.905  10.074
28053SOL    HW285999   0.428   5.923  10.035
28054SOL     OW86000   4.689  13.999   4.181
28054SOL    HW186001   4.646  14.055   4.246
28054SOL    HW286002   4.623  13.933   4.159
28055SOL     OW86003  10.399  10.959  11.719
28055SOL    HW186004  10.486  10.984  11.750
28055SOL    HW286005  10.407  10.865  11.701
28056SOL     OW86006  11.213   7.194   6.037
28056SOL    HW186007  11.249   7.264   5.982
28056SOL    HW286008  11.168   7.136   5.977
28057SOL     OW86009   8.031   8.553  14.403
28057SOL    HW186010   8.097   8.541  14.470
28057SOL    HW286011   7.997   8.466  14.386
28058SOL     OW86012   8.300  12.278   4.980
28058SOL    HW186013   8.349  12.219   4.923
28058SOL    HW286014   8.321  12.366   4.948
28059SOL     OW86015  14.173  11.345   6.540
28059SOL    HW186016  14.142  11.314   6.625
28059SOL    HW286017  14.239  11.281   6.513
28060SOL     OW86018   3.912   0.310  14.868
28060SOL    HW186019   3.838   0.267  14.826
28060SOL    HW286020   3.886   0.320   0.086
28061SOL     OW86021   0.705   2.183  14.491
28061SOL    HW186022   0.755   2.146  14.564
28061SOL    HW286023   0.696   2.276  14.513
28062SOL     OW86024  12.222  11.139   3.954
28062SOL    HW186025  12.203  11.233   3.952
28062SOL    HW286026  12.236  11.119   4.047
28063SOL     OW86027  14.240   0.044  10.541
28063SOL    HW186028  14.217  14.862  10.467
28063SOL    HW286029  14.311  14.872  10.585
28064SOL     OW86030   6.915  10.233   4.005
28064SOL    HW186031   6.969  10.191   3.937
28064SOL    HW286032   6.847  10.169   4.024
28065SOL     OW86033   8.875   5.917   9.607
28065SOL    HW186034   8.885   5.853   9.536
28065SOL    HW286035   8.876   5.865   9.687
28066SOL     OW86036   0.041  10.414   5.177
28066SOL    HW186037   0.036  10.319   5.185
28066SOL    HW286038  14.825  10.444   5.193
28067SOL     OW86039  14.155  13.760   1.243
28067SOL    HW186040  14.249  13.755   1.228
28067SOL    HW286041  14.116  13.756   1.155
28068SOL     OW86042   5.795   6.118  12.831
28068SOL    HW186043   5.711   6.094  12.871
28068SOL    HW286044   5.848   6.039  12.837
28069SOL     OW86045   7.416   6.973  11.699
28069SOL    HW186046   7.368   6.893  11.678
28069SOL    HW286047   7.348   7.041  11.704
28070SOL     OW86048   5.167  14.653   2.660
28070SOL    HW186049   5.148  14.701   2.579
28070SOL    HW286050   5.175  14.721   2.727
28071SOL     OW86051  13.905   5.380   2.885
28071SOL    HW186052  13.940   5.462   2.849
28071SOL    HW286053  13.893   5.398   2.978
28072SOL     OW86054   8.074   9.763   1.814
28072SOL    HW186055   8.164   9.756   1.781
28072SOL    HW286056   8.034   9.829   1.758
28073SOL     OW86057  11.351  13.483  14.653
28073SOL    HW186058  11.321  13.555  14.709
28073SOL    HW286059  11.408  13.526  14.588
28074SOL     OW86060   7.335   7.145  13.967
28074SOL    HW186061   7.420   7.103  13.951
28074SOL    HW286062   7.335   7.220  13.907
28075SOL     OW86063  14.224   3.508   8.198
28075SOL    HW186064  14.146   3.483   8.248
28075SOL    HW286065  14.289   3.533   8.264
28076SOL     OW86066  14.495  13.984   4.026
28076SOL    HW186067  14.443  13.998   4.105
28076SOL    HW286068  14.493  14.069   3.980
28077SOL     OW86069  12.273   1.199   5.990
28077SOL    HW186070  12.229   1.114   5.997
28077SOL    HW286071  12.315   1.197   5.904
28078SOL     OW86072   8.737   3.955  12.205
28078SOL    HW186073   8.690   3.879  12.240
28078SOL    HW286074   8.676   4.028  12.217
28079SOL     OW86075   1.516   4.397  10.063
28079SOL    HW186076   1.585   4.457  10.093
28079SOL    HW286077   1.463   4.381  10.141
28080SOL     OW86078   2.166   5.345   9.414
28080SOL    HW186079   2.098   5.300   9.363
28080SOL    HW286080   2.246   5.298   9.391
28081SOL     OW86081   7.238   9.099   4.169
28081SOL    HW186082   7.306   9.037   4.193
28081SOL    HW286083   7.253   9.175   4.225
28082SOL     OW86084   6.296   5.392  14.287
28082SOL    HW186085   6.209   5.352  14.285
28082SOL    HW286086   6.351   5.328  14.332
28083SOL     OW86087   4.717   0.519   2.563
28083SOL    HW186088   4.622   0.524   2.563
28083SOL    HW286089   4.740   0.493   2.473
28084SOL     OW86090   3.906   7.281   0.713
28084SOL    HW186091   3.960   7.312   0.786
28084SOL    HW286092   3.823   7.328   0.724
28085SOL     OW86093   9.881   6.489  12.710
28085SOL    HW186094   9.896   6.487  12.616
28085SOL    HW286095   9.795   6.446  12.721
28086SOL     OW86096   2.368   7.304   2.793
28086SOL    HW186097   2.276   7.332   2.800
28086SOL    HW286098   2.374   7.229   2.851
28087SOL     OW86099  11.803   2.349   4.621
28087SOL    HW186100  11.839   2.417   4.565
28087SOL    HW286101  11.717   2.381   4.647
28088SOL     OW86102   1.094   4.727   2.209
28088SOL    HW186103   1.073   4.756   2.120
28088SOL    HW286104   1.186   4.751   2.221
28089SOL     OW86105   4.931   5.938   7.795
28089SOL    HW186106   4.908   5.860   7.846
28089SOL    HW286107   4.884   6.009   7.838
28090SOL     OW86108   9.648   0.430   4.758
28090SOL    HW186109   9.678   0.344   4.728
28090SOL    HW286110   9.568   0.413   4.807
28091SOL     OW86111   0.687  10.669   6.394
28091SOL    HW186112   0.729  10.586   6.372
28091SOL    HW286113   0.740  10.704   6.467
28092SOL     OW86114   0.154  13.983   3.531
28092SOL    HW186115   0.059  13.989   3.536
28092SOL    HW286116   0.179  13.927   3.604
28093SOL     OW86117  10.017   4.046  10.055
28093SOL    HW186118  10.059   4.036   9.969
28093SOL    HW286119   9.924   4.032  10.037
28094SOL     OW86120   8.054   7.255   0.842
28094SOL    HW186121   8.034   7.326   0.782
28094SOL    HW286122   8.137   7.219   0.810
28095SOL     OW86123   0.662   2.516  12.614
28095SOL    HW186124   0.695   2.502  12.525
28095SOL    HW286125   0.572   2.546  12.601
28096SOL     OW86126   0.565   5.051  10.684
28096SOL    HW186127   0.576   5.052  10.589
28096SOL    HW286128   0.583   5.141  10.711
28097SOL     OW86129   0.641   1.197   0.798
28097SOL    HW186130   0.660   1.165   0.710
28097SOL    HW286131   0.669   1.289   0.798
28098SOL     OW86132   6.582   9.601   4.456
28098SOL    HW186133   6.648   9.614   4.524
28098SOL    HW286134   6.595   9.674   4.395
28099SOL     OW86135  14.278   3.101   0.336
28099SOL    HW186136  14.183   3.102   0.352
28099SOL    HW286137  14.313   3.161   0.402
28100SOL     OW86138  11.635  10.393   3.066
28100SOL    HW186139  11.552  10.425   3.032
28100SOL    HW286140  11.688  10.472   3.078
28101SOL     OW86141   8.836  14.411   0.407
28101SOL    HW186142   8.912  14.431   0.462
28101SOL    HW286143   8.874  14.365   0.332
28102SOL     OW86144  11.900   9.677  10.966
28102SOL    HW186145  11.896   9.760  11.014
28102SOL    HW286146  11.954   9.620  11.021
28103SOL     OW86147  11.349  10.421   8.203
28103SOL    HW186148  11.401  10.343   8.183
28103SOL    HW286149  11.314  10.448   8.118
28104SOL     OW86150  12.180   4.919  12.882
28104SOL    HW186151  12.101   4.908  12.829
28104SOL    HW286152  12.177   5.010  12.910
28105SOL     OW86153  14.144  12.788  11.060
28105SOL    HW186154  14.133  12.721  11.127
28105SOL    HW286155  14.073  12.772  10.998
28106SOL     OW86156  11.905   0.246  13.428
28106SOL    HW186157  11.852   0.322  13.403
28106SOL    HW286158  11.848   0.195  13.485
28107SOL     OW86159  14.874   8.750  10.069
28107SOL    HW186160   0.031   8.697   9.996
28107SOL    HW286161   0.007   8.840  10.038
28108SOL     OW86162  10.790   7.607   3.654
28108SOL    HW186163  10.784   7.517   3.622
28108SOL    HW286164  10.868   7.643   3.611
28109SOL     OW86165   1.211   0.579   2.156
28109SOL    HW186166   1.247   0.535   2.080
28109SOL    HW286167   1.159   0.651   2.120
28110SOL     OW86168   5.825  14.146   5.092
28110SOL    HW186169   5.761  14.093   5.045
28110SOL    HW286170   5.834  14.225   5.040
28111SOL     OW86171   9.982   2.086  10.483
28111SOL    HW186172   9.974   1.990  10.477
28111SOL    HW286173   9.909   2.119  10.430
28112SOL     OW86174  11.481  13.802  12.298
28112SOL    HW186175  11.530  13.884  12.294
28112SOL    HW286176  11.459  13.790  12.390
28113SOL     OW86177   1.220  11.866  10.274
28113SOL    HW186178   1.232  11.890  10.182
28113SOL    HW286179   1.140  11.814  10.275
28114SOL     OW86180  10.894  10.815   4.854
28114SOL    HW186181  10.888  10.879   4.924
28114SOL    HW286182  10.909  10.731   4.898
28115SOL     OW86183   0.997   6.922   6.823
28115SOL    HW186184   0.934   6.869   6.871
28115SOL    HW286185   0.946   6.962   6.753
28116SOL     OW86186  13.376  10.548  10.372
28116SOL    HW186187  13.303  10.551  10.310
28116SOL    HW286188  13.454  10.549  10.317
28117SOL     OW86189  12.773  14.341   2.967
28117SOL    HW186190  12.868  14.345   2.979
28117SOL    HW286191  12.741  14.425   3.001
28118SOL     OW86192   9.881  14.514   6.182
28118SOL    HW186193   9.837  14.464   6.252
28118SOL    HW286194   9.821  14.585   6.162
28119SOL     OW86195  11.063   0.919   7.519
28119SOL    HW186196  11.134   0.897   7.580
28119SOL    HW286197  11.038   0.836   7.480
28120SOL     OW86198   6.120  10.080   1.877
28120SOL    HW186199   6.049  10.074   1.941
28120SOL    HW286200   6.160  10.166   1.894
28121SOL     OW86201  10.048   6.037   4.551
28121SOL    HW186202  10.066   6.101   4.619
28121SOL    HW286203  10.126   6.037   4.496
28122SOL     OW86204   6.114   7.840   7.090
28122SOL    HW186205   6.121   7.847   6.995
28122SOL    HW286206   6.203   7.821   7.120
28123SOL     OW86207   9.087   6.155  14.217
28123SOL    HW186208   9.005   6.204  14.218
28123SOL    HW286209   9.137   6.189  14.291
28124SOL     OW86210   4.501  11.346   3.778
28124SOL    HW186211   4.446  11.398   3.719
28124SOL    HW286212   4.527  11.408   3.847
28125SOL     OW86213   7.823  11.301   2.429
28125SOL    HW186214   7.848  11.333   2.342
28125SOL    HW286215   7.852  11.370   2.489
28126SOL     OW86216   8.131   5.225   0.595
28126SOL    HW186217   8.154   5.200   0.685
28126SOL    HW286218   8.059   5.167   0.572
28127SOL     OW86219  12.746  12.933   4.890
28127SOL    HW186220  12.669  12.888   4.855
28127SOL    HW286221  12.813  12.866   4.897
28128SOL     OW86222  11.012   2.048  11.041
28128SOL    HW186223  10.967   2.065  10.958
28128SOL    HW286224  11.097   2.093  11.032
28129SOL     OW86225   6.856   7.968   2.800
28129SOL    HW186226   6.918   7.899   2.822
28129SOL    HW286227   6.890   8.046   2.844
28130SOL     OW86228  12.523   7.528   5.788
28130SOL    HW186229  12.472   7.528   5.708
28130SOL    HW286230  12.578   7.607   5.781
28131SOL     OW86231   8.172   8.866   1.378
28131SOL    HW186232   8.141   8.946   1.335
28131SOL    HW286233   8.180   8.802   1.308
28132SOL     OW86234  14.596   9.187   1.279
28132SOL    HW186235  14.637   9.112   1.323
28132SOL    HW286236  14.594   9.162   1.187
28133SOL     OW86237   2.622  13.192  11.098
28133SOL    HW186238   2.576  13.266  11.058
28133SOL    HW286239   2.646  13.136  11.024
28134SOL     OW86240   9.545  12.567  10.038
28134SOL    HW186241   9.500  12.647  10.010
28134SOL    HW286242   9.636  12.580  10.012
28135SOL     OW86243  12.669   2.558   3.534
28135SOL    HW186244  12.642   2.503   3.607
28135SOL    HW286245  12.677   2.646   3.572
28136SOL     OW86246  10.790   9.154  12.184
28136SOL    HW186247  10.736   9.138  12.262
28136SOL    HW286248  10.758   9.090  12.120
28137SOL     OW86249   7.065  10.903   2.717
28137SOL    HW186250   7.149  10.944   2.735
28137SOL    HW286251   7.008  10.974   2.687
28138SOL     OW86252   8.123   2.692   9.256
28138SOL    HW186253   8.193   2.756   9.246
28138SOL    HW286254   8.153   2.614   9.210
28139SOL     OW86255   5.967   7.068   6.939
28139SOL    HW186256   5.896   7.057   7.002
28139SOL    HW286257   5.923   7.082   6.856
28140SOL     OW86258   7.834  10.875  14.416
28140SOL    HW186259   7.815  10.788  14.452
28140SOL    HW286260   7.783  10.878  14.335
28141SOL     OW86261   4.652   2.641   7.449
28141SOL    HW186262   4.635   2.568   7.509
28141SOL    HW286263   4.627   2.607   7.363
28142SOL     OW86264   1.521   6.448   0.689
28142SOL    HW186265   1.605   6.446   0.644
28142SOL    HW286266   1.456   6.436   0.620
28143SOL     OW86267   0.167   6.648   6.982
28143SOL    HW186268   0.119   6.709   7.038
28143SOL    HW286269   0.246   6.626   7.032
28144SOL     OW86270   7.988   7.514   1.093
28144SOL    HW186271   8.031   7.525   1.008
28144SOL    HW286272   7.896   7.535   1.076
28145SOL     OW86273   7.739  14.667   4.476
28145SOL    HW186274   7.774  14.654   4.565
28145SOL    HW286275   7.676  14.596   4.465
28146SOL     OW86276  11.421   1.970   0.723
28146SOL    HW186277  11.433   1.975   0.628
28146SOL    HW286278  11.500   1.926   0.755
28147SOL     OW86279   0.278  11.999   2.006
28147SOL    HW186280   0.282  11.935   1.935
28147SOL    HW286281   0.370  12.016   2.028
28148SOL     OW86282   2.714  11.662  10.561
28148SOL    HW186283   2.728  11.684  10.469
28148SOL    HW286284   2.619  11.648  10.567
28149SOL     OW86285   4.243   3.123   3.068
28149SOL    HW186286   4.241   3.052   3.132
28149SOL    HW286287   4.299   3.091   2.998
28150SOL     OW86288  12.884   7.588  12.109
28150SOL    HW186289  12.888   7.618  12.018
28150SOL    HW286290  12.911   7.663  12.161
28151SOL     OW86291   1.645   1.756   1.536
28151SOL    HW186292   1.717   1.773   1.597
28151SOL    HW286293   1.601   1.840   1.525
28152SOL     OW86294   5.762   1.126   3.595
28152SOL    HW186295   5.792   1.108   3.684
28152SOL    HW286296   5.821   1.075   3.539
28153SOL     OW86297  10.099   3.773   9.784
28153SOL    HW186298  10.090   3.863   9.751
28153SOL    HW286299  10.010   3.748   9.809
28154SOL     OW86300  10.501  14.622  12.232
28154SOL    HW186301  10.596  14.617  12.224
28154SOL    HW286302  10.475  14.537  12.268
28155SOL     OW86303   5.834   8.082   1.490
28155SOL    HW186304   5.755   8.073   1.437
28155SOL    HW286305   5.898   8.024   1.449
28156SOL     OW86306   9.148   4.546   8.728
28156SOL    HW186307   9.079   4.611   8.714
28156SOL    HW286308   9.109   4.463   8.700
28157SOL     OW86309   7.922   2.048  12.274
28157SOL    HW186310   7.996   2.042  12.334
28157SOL    HW286311   7.928   2.137  12.239
28158SOL     OW86312   4.159  10.178  11.255
28158SOL    HW186313   4.100  10.251  11.275
28158SOL    HW286314   4.127  10.106  11.310
28159SOL     OW86315  11.245   9.298   7.781
28159SOL    HW186316  11.171   9.243   7.755
28159SOL    HW286317  11.276   9.337   7.700
28160SOL     OW86318   6.135   1.618  14.807
28160SOL    HW186319   6.078   1.557  14.855
28160SOL    HW286320   6.091   1.703  14.815
28161SOL     OW86321   6.060   1.472  10.139
28161SOL    HW186322   6.063   1.465  10.235
28161SOL    HW286323   6.117   1.545  10.118
28162SOL     OW86324   7.014  14.162   1.485
28162SOL    HW186325   6.958  14.153   1.407
28162SOL    HW286326   6.952  14.159   1.559
28163SOL     OW86327   5.021   8.733   5.156
28163SOL    HW186328   4.930   8.765   5.162
28163SOL    HW286329   5.013   8.650   5.110
28164SOL     OW86330   5.803   2.928  10.197
28164SOL    HW186331   5.790   3.007  10.249
28164SOL    HW286332   5.898   2.920  10.190
28165SOL     OW86333  11.499   9.925   8.940
28165SOL    HW186334  11.412   9.956   8.962
28165SOL    HW286335  11.487   9.872   8.861
28166SOL     OW86336   6.938   7.965  14.230
28166SOL    HW186337   6.977   8.036  14.178
28166SOL    HW286338   6.982   7.972  14.315
28167SOL     OW86339   7.326   1.180   2.801
28167SOL    HW186340   7.408   1.134   2.785
28167SOL    HW286341   7.340   1.267   2.765
28168SOL     OW86342   3.447   0.936   8.174
28168SOL    HW186343   3.531   0.944   8.129
28168SOL    HW286344   3.383   0.966   8.110
28169SOL     OW86345   6.695  11.198  11.143
28169SOL    HW186346   6.691  11.113  11.187
28169SOL    HW286347   6.715  11.260  11.213
28170SOL     OW86348  10.269  10.460  13.212
28170SOL    HW186349  10.310  10.546  13.221
28170SOL    HW286350  10.177  10.474  13.235
28171SOL     OW86351   9.090  10.673   4.564
28171SOL    HW186352   9.040  10.744   4.523
28171SOL    HW286353   9.165  10.659   4.506
28172SOL     OW86354   8.626   0.454  13.973
28172SOL    HW186355   8.661   0.463  14.062
28172SOL    HW286356   8.682   0.509  13.919
28173SOL     OW86357   8.026   7.603   8.340
28173SOL    HW186358   7.944   7.578   8.383
28173SOL    HW286359   8.000   7.668   8.275
28174SOL     OW86360   1.208   0.434  10.261
28174SOL    HW186361   1.260   0.490  10.319
28174SOL    HW286362   1.166   0.372  10.320
28175SOL     OW86363   0.269   6.639   6.042
28175SOL    HW186364   0.247   6.636   5.949
28175SOL    HW286365   0.188   6.666   6.085
28176SOL     OW86366   4.167  11.947   5.741
28176SOL    HW186367   4.097  11.885   5.764
28176SOL    HW286368   4.130  12.000   5.670
28177SOL     OW86369   8.990  10.357   4.077
28177SOL    HW186370   8.956  10.435   4.122
28177SOL    HW286371   8.956  10.283   4.128
28178SOL     OW86372   0.273  14.300   9.104
28178SOL    HW186373   0.297  14.282   9.013
28178SOL    HW286374   0.247  14.392   9.104
28179SOL     OW86375  11.822   7.877   6.551
28179SOL    HW186376  11.879   7.808   6.584
28179SOL    HW286377  11.877   7.955   6.551
28180SOL     OW86378  10.631   4.582   7.845
28180SOL    HW186379  10.564   4.516   7.828
28180SOL    HW286380  10.663   4.562   7.933
28181SOL     OW86381   5.659   6.040   1.863
28181SOL    HW186382   5.644   6.068   1.954
28181SOL    HW286383   5.654   5.945   1.867
28182SOL     OW86384   6.472  13.420  12.771
28182SOL    HW186385   6.526  13.458  12.702
28182SOL    HW286386   6.528  13.356  12.814
28183SOL     OW86387   1.059   7.370   5.015
28183SOL    HW186388   1.130   7.387   4.953
28183SOL    HW286389   0.990   7.432   4.989
28184SOL     OW86390   9.965   7.290  13.433
28184SOL    HW186391  10.010   7.297  13.516
28184SOL    HW286392  10.004   7.213  13.391
28185SOL     OW86393   6.896   9.621   5.707
28185SOL    HW186394   6.978   9.601   5.662
28185SOL    HW286395   6.919   9.688   5.771
28186SOL     OW86396  13.922  13.799  11.376
28186SOL    HW186397  13.874  13.717  11.375
28186SOL    HW286398  14.009  13.776  11.410
28187SOL     OW86399   7.225   3.279  10.458
28187SOL    HW186400   7.135   3.274  10.490
28187SOL    HW286401   7.251   3.370  10.473
28188SOL     OW86402   3.004  14.541   0.109
28188SOL    HW186403   2.991  14.586   0.025
28188SOL    HW286404   2.943  14.467   0.106
28189SOL     OW86405   8.324   2.970  12.387
28189SOL    HW186406   8.338   3.012  12.302
28189SOL    HW286407   8.303   2.879  12.365
28190SOL     OW86408   3.226   3.519   8.796
28190SOL    HW186409   3.286   3.590   8.817
28190SOL    HW286410   3.193   3.540   8.709
28191SOL     OW86411  10.300  14.812  12.206
28191SOL    HW186412  10.378  14.764  12.230
28191SOL    HW286413  10.228  14.762  12.244
28192SOL     OW86414  11.964   2.114   8.664
28192SOL    HW186415  12.033   2.166   8.622
28192SOL    HW286416  12.010   2.038   8.699
28193SOL     OW86417   1.392   2.865  11.278
28193SOL    HW186418   1.404   2.902  11.365
28193SOL    HW286419   1.478   2.868  11.238
28194SOL     OW86420   4.670  12.659   7.565
28194SOL    HW186421   4.581  12.629   7.548
28194SOL    HW286422   4.663  12.707   7.648
28195SOL     OW86423  11.491   2.098  14.429
28195SOL    HW186424  11.437   2.113  14.507
28195SOL    HW286425  11.537   2.016  14.447
28196SOL     OW86426   7.622   7.390   9.025
28196SOL    HW186427   7.571   7.373   9.105
28196SOL    HW286428   7.556   7.403   8.957
28197SOL     OW86429   7.228  11.834   0.247
28197SOL    HW186430   7.158  11.792   0.197
28197SOL    HW286431   7.243  11.917   0.201
28198SOL     OW86432   5.120   0.415  14.467
28198SOL    HW186433   5.153   0.459  14.545
28198SOL    HW286434   5.032   0.385  14.491
28199SOL     OW86435  13.101   5.894  10.531
28199SOL    HW186436  13.169   5.927  10.590
28199SOL    HW286437  13.064   5.973  10.492
28200SOL     OW86438   5.556   0.975   8.147
28200SOL    HW186439   5.587   1.035   8.215
28200SOL    HW286440   5.528   1.032   8.076
28201SOL     OW86441   2.331  11.486  10.770
28201SOL    HW186442   2.306  11.520  10.684
28201SOL    HW286443   2.288  11.545  10.832
28202SOL     OW86444  12.817  12.787   4.622
28202SOL    HW186445  12.875  12.758   4.691
28202SOL    HW286446  12.729  12.777   4.658
28203SOL     OW86447   0.176  14.263   3.939
28203SOL    HW186448   0.190  14.338   3.882
28203SOL    HW286449   0.080  14.258   3.949
28204SOL     OW86450   7.942   1.879  13.834
28204SOL    HW186451   7.892   1.957  13.812
28204SOL    HW286452   7.953   1.832  13.751
28205SOL     OW86453   5.624   2.927  11.264
28205SOL    HW186454   5.569   2.970  11.199
28205SOL    HW286455   5.608   2.834  11.251
28206SOL     OW86456  10.481   6.958   9.301
28206SOL    HW186457  10.462   7.040   9.347
28206SOL    HW286458  10.527   6.904   9.365
28207SOL     OW86459   1.305   6.841   0.612
28207SOL    HW186460   1.266   6.812   0.695
28207SOL    HW286461   1.327   6.933   0.626
28208SOL     OW86462   7.176   3.803  12.444
28208SOL    HW186463   7.179   3.707  12.451
28208SOL    HW286464   7.267   3.829  12.433
28209SOL     OW86465   0.899   0.563   8.412
28209SOL    HW186466   0.958   0.562   8.337
28209SOL    HW286467   0.939   0.623   8.474
28210SOL     OW86468  12.923   1.021  11.189
28210SOL    HW186469  13.007   1.001  11.231
28210SOL    HW286470  12.901   1.109  11.220
28211SOL     OW86471   9.625   2.682   0.674
28211SOL    HW186472   9.662   2.685   0.586
28211SOL    HW286473   9.540   2.638   0.662
28212SOL     OW86474   3.575   1.088   0.124
28212SOL    HW186475   3.529   1.004   0.123
28212SOL    HW286476   3.562   1.123   0.036
28213SOL     OW86477   0.922  10.360   1.006
28213SOL    HW186478   0.838  10.315   1.004
28213SOL    HW286479   0.970  10.325   0.930
28214SOL     OW86480   0.872   7.646  10.315
28214SOL    HW186481   0.799   7.664  10.374
28214SOL    HW286482   0.831   7.634  10.229
28215SOL     OW86483   7.379  10.121   9.646
28215SOL    HW186484   7.321  10.121   9.722
28215SOL    HW286485   7.416  10.033   9.644
28216SOL     OW86486  10.279  13.021  12.043
28216SOL    HW186487  10.310  13.062  12.124
28216SOL    HW286488  10.221  13.087  12.004
28217SOL     OW86489   1.062  11.149  14.155
28217SOL    HW186490   1.058  11.200  14.236
28217SOL    HW286491   1.037  11.060  14.181
28218SOL     OW86492   7.411   1.555  13.673
28218SOL    HW186493   7.378   1.476  13.629
28218SOL    HW286494   7.446   1.523  13.756
28219SOL     OW86495  11.855  10.060   4.022
28219SOL    HW186496  11.894  10.037   4.106
28219SOL    HW286497  11.767  10.090   4.044
28220SOL     OW86498  10.481   8.515  12.071
28220SOL    HW186499  10.460   8.479  11.985
28220SOL    HW286500  10.574   8.537  12.065
28221SOL     OW86501   0.476   7.008   5.018
28221SOL    HW186502   0.491   6.992   5.111
28221SOL    HW286503   0.382   7.001   5.007
28222SOL     OW86504   2.922   0.823  11.318
28222SOL    HW186505   2.951   0.911  11.339
28222SOL    HW286506   2.828   0.824  11.336
28223SOL     OW86507  11.213   1.982   3.155
28223SOL    HW186508  11.244   1.955   3.069
28223SOL    HW286509  11.282   2.039   3.189
28224SOL     OW86510   9.409  10.386   2.454
28224SOL    HW186511   9.410  10.482   2.459
28224SOL    HW286512   9.317  10.362   2.456
28225SOL     OW86513   9.455  10.508   3.205
28225SOL    HW186514   9.384  10.448   3.179
28225SOL    HW286515   9.524  10.450   3.239
28226SOL     OW86516   5.149   1.930   4.309
28226SOL    HW186517   5.112   1.967   4.229
28226SOL    HW286518   5.143   1.836   4.297
28227SOL     OW86519   3.760   0.442   9.429
28227SOL    HW186520   3.714   0.525   9.440
28227SOL    HW286521   3.704   0.392   9.369
28228SOL     OW86522   4.187   8.846   1.942
28228SOL    HW186523   4.261   8.899   1.973
28228SOL    HW286524   4.112   8.905   1.949
28229SOL     OW86525   2.243  11.577   3.044
28229SOL    HW186526   2.262  11.545   2.956
28229SOL    HW286527   2.156  11.616   3.037
28230SOL     OW86528  12.228   0.903   7.470
28230SOL    HW186529  12.300   0.965   7.480
28230SOL    HW286530  12.156   0.941   7.520
28231SOL     OW86531   0.479   6.154   9.062
28231SOL    HW186532   0.411   6.100   9.102
28231SOL    HW286533   0.433   6.229   9.027
28232SOL     OW86534   3.526  10.439  12.669
28232SOL    HW186535   3.557  10.479  12.750
28232SOL    HW286536   3.468  10.504  12.630
28233SOL     OW86537   6.665   0.426   0.703
28233SOL    HW186538   6.608   0.359   0.741
28233SOL    HW286539   6.736   0.436   0.767
28234SOL     OW86540  11.619  10.166   9.243
28234SOL    HW186541  11.548  10.107   9.268
28234SOL    HW286542  11.584  10.254   9.259
28235SOL     OW86543   4.003  11.186   5.705
28235SOL    HW186544   3.911  11.166   5.721
28235SOL    HW286545   4.016  11.166   5.612
28236SOL     OW86546   1.476   4.359  11.084
28236SOL    HW186547   1.524   4.349  11.003
28236SOL    HW286548   1.496   4.279  11.134
28237SOL     OW86549  12.364   7.473   0.391
28237SOL    HW186550  12.286   7.518   0.357
28237SOL    HW286551  12.350   7.381   0.371
28238SOL     OW86552  12.715   5.416  14.758
28238SOL    HW186553  12.769   5.391  14.684
28238SOL    HW286554  12.646   5.470  14.720
28239SOL     OW86555   1.208   9.428   3.712
28239SOL    HW186556   1.273   9.448   3.645
28239SOL    HW286557   1.159   9.510   3.723
28240SOL     OW86558  13.777  11.082   3.371
28240SOL    HW186559  13.766  11.117   3.282
28240SOL    HW286560  13.869  11.056   3.376
28241SOL     OW86561   9.375   7.906  14.790
28241SOL    HW186562   9.350   7.998  14.797
28241SOL    HW286563   9.448   7.905  14.728
28242SOL     OW86564  12.263   3.186  10.850
28242SOL    HW186565  12.358   3.182  10.836
28242SOL    HW286566  12.253   3.251  10.920
28243SOL     OW86567  13.282   0.754   5.148
28243SOL    HW186568  13.297   0.849   5.140
28243SOL    HW286569  13.293   0.736   5.241
28244SOL     OW86570   7.713   2.854  10.356
28244SOL    HW186571   7.765   2.857  10.436
28244SOL    HW286572   7.623   2.869  10.386
28245SOL     OW86573  14.311   7.341   6.736
28245SOL    HW186574  14.356   7.263   6.703
28245SOL    HW286575  14.276   7.383   6.658
28246SOL     OW86576   4.434   3.059   6.657
28246SOL    HW186577   4.391   3.101   6.731
28246SOL    HW286578   4.525   3.046   6.686
28247SOL     OW86579  10.797  13.293  10.420
28247SOL    HW186580  10.719  13.267  10.469
28247SOL    HW286581  10.766  13.306  10.330
28248SOL     OW86582   6.863   2.825   7.208
28248SOL    HW186583   6.946   2.825   7.160
28248SOL    HW286584   6.878   2.886   7.281
28249SOL     OW86585   5.539  12.343   4.818
28249SOL    HW186586   5.614  12.367   4.763
28249SOL    HW286587   5.578  12.320   4.902
28250SOL     OW86588  12.262   3.185   0.521
28250SOL    HW186589  12.296   3.198   0.609
28250SOL    HW286590  12.322   3.232   0.464
28251SOL     OW86591   1.133   2.269   8.537
28251SOL    HW186592   1.047   2.235   8.561
28251SOL    HW286593   1.141   2.352   8.585
28252SOL     OW86594   8.591  11.972   3.397
28252SOL    HW186595   8.622  11.886   3.426
28252SOL    HW286596   8.659  12.033   3.426
28253SOL     OW86597  13.217   4.374   5.616
28253SOL    HW186598  13.189   4.293   5.573
28253SOL    HW286599  13.138   4.410   5.654
28254SOL     OW86600   7.024   1.276  11.014
28254SOL    HW186601   7.063   1.324  10.941
28254SOL    HW286602   6.940   1.246  10.980
28255SOL     OW86603   5.207   0.945  11.972
28255SOL    HW186604   5.184   0.902  12.054
28255SOL    HW286605   5.282   1.000  11.994
28256SOL     OW86606   2.549   3.387   3.039
28256SOL    HW186607   2.498   3.307   3.028
28256SOL    HW286608   2.618   3.363   3.100
28257SOL     OW86609  12.066   9.969   3.657
28257SOL    HW186610  12.118   9.986   3.579
28257SOL    HW286611  12.121   9.998   3.730
28258SOL     OW86612   2.501   0.153   3.386
28258SOL    HW186613   2.409   0.149   3.360
28258SOL    HW286614   2.512   0.240   3.425
28259SOL     OW86615  12.440   0.870  13.736
28259SOL    HW186616  12.501   0.802  13.710
28259SOL    HW286617  12.493   0.950  13.737
28260SOL     OW86618  10.902   6.892   9.202
28260SOL    HW186619  10.983   6.940   9.183
28260SOL    HW286620  10.841   6.922   9.134
28261SOL     OW86621  10.351   1.746  11.515
28261SOL    HW186622  10.411   1.677  11.544
28261SOL    HW286623  10.297   1.764  11.592
28262SOL     OW86624   3.012   4.708  13.193
28262SOL    HW186625   3.007   4.803  13.205
28262SOL    HW286626   3.015   4.672  13.281
28263SOL     OW86627   0.924   4.067  13.279
28263SOL    HW186628   0.984   4.136  13.308
28263SOL    HW286629   0.845   4.080  13.331
28264SOL     OW86630  10.198  10.548  14.783
28264SOL    HW186631  10.128  10.575  14.842
28264SOL    HW286632  10.213  10.624  14.727
28265SOL     OW86633  13.008  11.883   6.918
28265SOL    HW186634  13.033  11.801   6.877
28265SOL    HW286635  12.928  11.862   6.967
28266SOL     OW86636   8.476   4.338   9.777
28266SOL    HW186637   8.468   4.261   9.833
28266SOL    HW286638   8.441   4.410   9.830
28267SOL     OW86639  10.250   3.575  11.741
28267SOL    HW186640  10.295   3.634  11.681
28267SOL    HW286641  10.191   3.631  11.791
28268SOL     OW86642   5.274  11.544   7.172
28268SOL    HW186643   5.348  11.514   7.225
28268SOL    HW286644   5.197  11.518   7.221
28269SOL     OW86645  10.015   3.016  13.818
28269SOL    HW186646  10.063   2.984  13.741
28269SOL    HW286647  10.014   2.942  13.878
28270SOL     OW86648   7.905   6.306  14.092
28270SOL    HW186649   7.859   6.247  14.151
28270SOL    HW286650   7.846   6.318  14.018
28271SOL     OW86651   5.908   0.657   2.204
28271SOL    HW186652   5.995   0.673   2.170
28271SOL    HW286653   5.875   0.744   2.228
28272SOL     OW86654   7.914   5.505  11.169
28272SOL    HW186655   7.910   5.565  11.243
28272SOL    HW286656   7.843   5.443  11.184
28273SOL     OW86657   4.280  14.718  12.720
28273SOL    HW186658   4.354  14.756  12.768
28273SOL    HW286659   4.207  14.777  12.738
28274SOL     OW86660  11.406  13.645   3.771
28274SOL    HW186661  11.366  13.691   3.698
28274SOL    HW286662  11.437  13.563   3.734
28275SOL     OW86663  11.710  12.133   4.159
28275SOL    HW186664  11.698  12.228   4.155
28275SOL    HW286665  11.714  12.114   4.252
28276SOL     OW86666  14.461   8.676  14.408
28276SOL    HW186667  14.468   8.758  14.458
28276SOL    HW286668  14.444   8.609  14.475
28277SOL     OW86669   7.437  11.132   9.963
28277SOL    HW186670   7.352  11.117   9.921
28277SOL    HW286671   7.492  11.060   9.930
28278SOL     OW86672   3.149   4.422   2.682
28278SOL    HW186673   3.173   4.479   2.609
28278SOL    HW286674   3.149   4.480   2.758
28279SOL     OW86675  10.806   4.741  10.180
28279SOL    HW186676  10.887   4.720  10.226
28279SOL    HW286677  10.769   4.656  10.155
28280SOL     OW86678   6.575  11.816   2.995
28280SOL    HW186679   6.668  11.828   3.014
28280SOL    HW286680   6.531  11.882   3.049
28281SOL     OW86681   4.534  11.164   9.781
28281SOL    HW186682   4.558  11.084   9.734
28281SOL    HW286683   4.617  11.204   9.804
28282SOL     OW86684   6.158   0.290  10.004
28282SOL    HW186685   6.175   0.206  10.046
28282SOL    HW286686   6.195   0.355  10.065
28283SOL     OW86687   2.160  14.756  11.826
28283SOL    HW186688   2.177  14.674  11.873
28283SOL    HW286689   2.107  14.730  11.750
28284SOL     OW86690   5.940   0.358   9.831
28284SOL    HW186691   5.900   0.272   9.819
28284SOL    HW286692   6.025   0.340   9.870
28285SOL     OW86693  11.063   6.580   2.161
28285SOL    HW186694  11.113   6.527   2.099
28285SOL    HW286695  10.982   6.602   2.115
28286SOL     OW86696   3.913   6.420  10.811
28286SOL    HW186697   3.880   6.331  10.806
28286SOL    HW286698   3.879   6.454  10.894
28287SOL     OW86699  11.362   3.067  10.552
28287SOL    HW186700  11.424   3.086  10.622
28287SOL    HW286701  11.409   3.009  10.492
28288SOL     OW86702   8.728   4.314   9.028
28288SOL    HW186703   8.807   4.277   8.989
28288SOL    HW286704   8.760   4.359   9.107
28289SOL     OW86705  13.195  13.185  11.260
28289SOL    HW186706  13.191  13.163  11.167
28289SOL    HW286707  13.111  13.156  11.295
28290SOL     OW86708   1.962  11.503   1.912
28290SOL    HW186709   2.047  11.525   1.874
28290SOL    HW286710   1.976  11.509   2.007
28291SOL     OW86711  10.992   7.107  12.088
28291SOL    HW186712  10.975   7.100  11.994
28291SOL    HW286713  10.930   7.173  12.119
28292SOL     OW86714   2.505  11.588   3.690
28292SOL    HW186715   2.494  11.547   3.604
28292SOL    HW286716   2.479  11.520   3.752
28293SOL     OW86717  14.305  12.204   4.854
28293SOL    HW186718  14.394  12.191   4.820
28293SOL    HW286719  14.314  12.271   4.921
28294SOL     OW86720  10.824   0.508   0.656
28294SOL    HW186721  10.877   0.480   0.582
28294SOL    HW286722  10.733   0.497   0.627
28295SOL     OW86723   1.046  13.173   4.710
28295SOL    HW186724   0.954  13.175   4.682
28295SOL    HW286725   1.072  13.265   4.711
28296SOL     OW86726  11.753   2.332   5.818
28296SOL    HW186727  11.817   2.363   5.753
28296SOL    HW286728  11.805   2.310   5.895
28297SOL     OW86729   1.854   5.356   9.140
28297SOL    HW186730   1.917   5.288   9.165
28297SOL    HW286731   1.865   5.367   9.046
28298SOL     OW86732   6.037   9.357   6.715
28298SOL    HW186733   5.963   9.380   6.772
28298SOL    HW286734   6.114   9.365   6.771
28299SOL     OW86735  13.415   3.217  10.901
28299SOL    HW186736  13.445   3.127  10.885
28299SOL    HW286737  13.472   3.271  10.847
28300SOL     OW86738  10.191   2.086   0.813
28300SOL    HW186739  10.152   2.001   0.835
28300SOL    HW286740  10.285   2.067   0.805
28301SOL     OW86741   8.686   2.058  14.219
28301SOL    HW186742   8.641   2.004  14.155
28301SOL    HW286743   8.737   2.120  14.167
28302SOL     OW86744   9.000  11.801  10.586
28302SOL    HW186745   9.021  11.721  10.634
28302SOL    HW286746   9.081  11.825  10.541
28303SOL     OW86747   8.679   3.959  11.388
28303SOL    HW186748   8.674   3.980  11.481
28303SOL    HW286749   8.637   4.034  11.344
28304SOL     OW86750   2.165  14.285   4.054
28304SOL    HW186751   2.073  14.283   4.026
28304SOL    HW286752   2.206  14.348   3.995
28305SOL     OW86753   1.694   9.529  10.074
28305SOL    HW186754   1.699   9.600  10.138
28305SOL    HW286755   1.601   9.503  10.076
28306SOL     OW86756  10.301  11.773   7.174
28306SOL    HW186757  10.383  11.786   7.127
28306SOL    HW286758  10.241  11.837   7.135
28307SOL     OW86759   9.555   6.696   1.518
28307SOL    HW186760   9.506   6.714   1.438
28307SOL    HW286761   9.587   6.607   1.507
28308SOL     OW86762  12.813   6.706   2.938
28308SOL    HW186763  12.868   6.633   2.910
28308SOL    HW286764  12.731   6.694   2.889
28309SOL     OW86765  12.691   7.490   3.352
28309SOL    HW186766  12.750   7.453   3.287
28309SOL    HW286767  12.679   7.581   3.326
28310SOL     OW86768  13.200  11.233   1.433
28310SOL    HW186769  13.193  11.202   1.342
28310SOL    HW286770  13.110  11.240   1.463
28311SOL     OW86771   0.716   3.347   7.775
28311SOL    HW186772   0.681   3.436   7.777
28311SOL    HW286773   0.704   3.314   7.864
28312SOL     OW86774   3.231   0.725   9.735
28312SOL    HW186775   3.256   0.652   9.679
28312SOL    HW286776   3.177   0.781   9.679
28313SOL     OW86777  10.936  14.549   6.142
28313SOL    HW186778  10.967  14.597   6.219
28313SOL    HW286779  10.846  14.523   6.165
28314SOL     OW86780   5.506   6.631   5.609
28314SOL    HW186781   5.453   6.709   5.591
28314SOL    HW286782   5.449   6.557   5.588
28315SOL     OW86783   0.174  13.379   1.070
28315SOL    HW186784   0.236  13.445   1.102
28315SOL    HW286785   0.165  13.318   1.144
28316SOL     OW86786   1.509   0.606   1.567
28316SOL    HW186787   1.421   0.643   1.576
28316SOL    HW286788   1.518   0.547   1.641
28317SOL     OW86789   1.131   7.012   9.886
28317SOL    HW186790   1.207   7.020   9.943
28317SOL    HW286791   1.056   7.024   9.944
28318SOL     OW86792  11.110   0.563   3.745
28318SOL    HW186793  11.138   0.482   3.703
28318SOL    HW286794  11.100   0.541   3.838
28319SOL     OW86795   9.961   0.654   5.844
28319SOL    HW186796   9.988   0.616   5.760
28319SOL    HW286797  10.036   0.639   5.902
28320SOL     OW86798   8.687   1.871   9.963
28320SOL    HW186799   8.630   1.886  10.038
28320SOL    HW286800   8.627   1.864   9.888
28321SOL     OW86801  13.547   8.315   5.271
28321SOL    HW186802  13.615   8.257   5.237
28321SOL    HW286803  13.559   8.397   5.222
28322SOL     OW86804  10.761  10.396   3.906
28322SOL    HW186805  10.855  10.408   3.892
28322SOL    HW286806  10.750  10.398   4.001
28323SOL     OW86807  12.684   4.923   1.366
28323SOL    HW186808  12.724   5.010   1.359
28323SOL    HW286809  12.652   4.904   1.278
28324SOL     OW86810   2.871   9.956   6.116
28324SOL    HW186811   2.871  10.038   6.164
28324SOL    HW286812   2.963   9.930   6.112
28325SOL     OW86813   6.349   0.052   0.756
28325SOL    HW186814   6.290   0.094   0.693
28325SOL    HW286815   6.336  14.832   0.741
28326SOL     OW86816   4.725   9.245   9.768
28326SOL    HW186817   4.793   9.259   9.835
28326SOL    HW286818   4.755   9.168   9.720
28327SOL     OW86819  12.602  12.354  13.948
28327SOL    HW186820  12.689  12.390  13.935
28327SOL    HW286821  12.617  12.262  13.972
28328SOL     OW86822   2.062  10.598   4.893
28328SOL    HW186823   2.102  10.579   4.808
28328SOL    HW286824   2.092  10.686   4.915
28329SOL     OW86825   4.817  11.229   8.232
28329SOL    HW186826   4.751  11.161   8.245
28329SOL    HW286827   4.785  11.304   8.284
28330SOL     OW86828   8.732   6.615  13.050
28330SOL    HW186829   8.776   6.564  12.982
28330SOL    HW286830   8.803   6.659  13.097
28331SOL     OW86831  11.410   6.782   9.314
28331SOL    HW186832  11.432   6.755   9.225
28331SOL    HW286833  11.350   6.856   9.303
28332SOL     OW86834   2.232   8.370   2.806
28332SOL    HW186835   2.179   8.418   2.870
28332SOL    HW286836   2.240   8.430   2.732
28333SOL     OW86837  12.289   1.871   9.926
28333SOL    HW186838  12.316   1.962   9.941
28333SOL    HW286839  12.203   1.865   9.967
28334SOL     OW86840  13.019   8.729  14.108
28334SOL    HW186841  12.927   8.711  14.127
28334SOL    HW286842  13.046   8.790  14.176
28335SOL     OW86843  10.960   6.516  10.950
28335SOL    HW186844  10.977   6.509  11.044
28335SOL    HW286845  10.962   6.610  10.931
28336SOL     OW86846   7.671   4.506   2.272
28336SOL    HW186847   7.576   4.500   2.281
28336SOL    HW286848   7.685   4.587   2.224
28337SOL     OW86849   9.819  10.910   3.328
28337SOL    HW186850   9.833  10.943   3.417
28337SOL    HW286851   9.750  10.966   3.292
28338SOL     OW86852   5.914   4.818   6.048
28338SOL    HW186853   6.000   4.791   6.081
28338SOL    HW286854   5.880   4.739   6.005
28339SOL     OW86855   1.141  12.328   1.779
28339SOL    HW186856   1.053  12.290   1.786
28339SOL    HW286857   1.149  12.382   1.858
28340SOL     OW86858   3.549   5.938  14.719
28340SOL    HW186859   3.626   5.971  14.674
28340SOL    HW286860   3.554   5.976  14.807
28341SOL     OW86861   3.125   4.629   6.974
28341SOL    HW186862   3.087   4.693   6.915
28341SOL    HW286863   3.214   4.614   6.941
28342SOL     OW86864   2.585   0.034  13.623
28342SOL    HW186865   2.574   0.079  13.707
28342SOL    HW286866   2.621  14.823  13.646
28343SOL     OW86867   5.546   3.972  14.241
28343SOL    HW186868   5.532   3.884  14.204
28343SOL    HW286869   5.640   3.977  14.256
28344SOL     OW86870   0.438   5.149   2.981
28344SOL    HW186871   0.342   5.142   2.980
28344SOL    HW286872   0.455   5.242   2.991
28345SOL     OW86873   1.840   1.518  10.071
28345SOL    HW186874   1.856   1.590  10.131
28345SOL    HW286875   1.764   1.473  10.107
28346SOL     OW86876  12.606  14.684   8.438
28346SOL    HW186877  12.622  14.746   8.510
28346SOL    HW286878  12.691  14.645   8.421
28347SOL     OW86879  12.320   6.744  10.745
28347SOL    HW186880  12.258   6.679  10.777
28347SOL    HW286881  12.404   6.717  10.783
28348SOL     OW86882   8.727   4.856   6.687
28348SOL    HW186883   8.699   4.764   6.692
28348SOL    HW286884   8.822   4.852   6.673
28349SOL     OW86885  10.490   7.482  13.523
28349SOL    HW186886  10.461   7.400  13.564
28349SOL    HW286887  10.435   7.550  13.563
28350SOL     OW86888   8.579   8.776   1.572
28350SOL    HW186889   8.665   8.742   1.597
28350SOL    HW286890   8.548   8.823   1.650
28351SOL     OW86891   6.323  13.920  14.559
28351SOL    HW186892   6.270  13.995  14.532
28351SOL    HW286893   6.413  13.952  14.557
28352SOL     OW86894   9.579  13.526  11.196
28352SOL    HW186895   9.662  13.564  11.166
28352SOL    HW286896   9.513  13.591  11.171
28353SOL     OW86897  12.050  10.421   5.552
28353SOL    HW186898  12.118  10.376   5.602
28353SOL    HW286899  11.986  10.449   5.617
28354SOL     OW86900   4.531   4.841   6.565
28354SOL    HW186901   4.532   4.791   6.483
28354SOL    HW286902   4.615   4.887   6.566
28355SOL     OW86903   3.062   3.259  11.069
28355SOL    HW186904   3.154   3.242  11.046
28355SOL    HW286905   3.066   3.297  11.157
28356SOL     OW86906  14.001  14.228   2.511
28356SOL    HW186907  13.910  14.201   2.520
28356SOL    HW286908  14.050  14.146   2.513
28357SOL     OW86909  14.017  11.533   9.146
28357SOL    HW186910  13.994  11.464   9.083
28357SOL    HW286911  14.003  11.493   9.232
28358SOL     OW86912   2.140   0.140  10.935
28358SOL    HW186913   2.158   0.226  10.973
28358SOL    HW286914   2.210   0.126  10.872
28359SOL     OW86915  13.394  13.939   4.965
28359SOL    HW186916  13.311  13.950   5.012
28359SOL    HW286917  13.368  13.931   4.873
28360SOL     OW86918  12.213  12.870   7.266
28360SOL    HW186919  12.301  12.858   7.229
28360SOL    HW286920  12.170  12.786   7.255
28361SOL     OW86921   3.016  13.176   0.202
28361SOL    HW186922   2.981  13.128   0.277
28361SOL    HW286923   3.013  13.268   0.227
28362SOL     OW86924   8.736   1.414   3.417
28362SOL    HW186925   8.688   1.337   3.388
28362SOL    HW286926   8.724   1.415   3.512
28363SOL     OW86927  13.068  13.560  10.696
28363SOL    HW186928  13.072  13.579  10.602
28363SOL    HW286929  13.004  13.621  10.730
28364SOL     OW86930  13.414   5.486   1.525
28364SOL    HW186931  13.389   5.548   1.593
28364SOL    HW286932  13.335   5.473   1.473
28365SOL     OW86933   5.026   6.753  14.036
28365SOL    HW186934   4.939   6.792  14.033
28365SOL    HW286935   5.079   6.808  13.978
28366SOL     OW86936   9.911  10.561  11.214
28366SOL    HW186937   9.942  10.476  11.242
28366SOL    HW286938   9.910  10.556  11.118
28367SOL     OW86939   4.973   1.592   7.867
28367SOL    HW186940   4.900   1.555   7.818
28367SOL    HW286941   5.047   1.589   7.807
28368SOL     OW86942   4.929   8.241   5.006
28368SOL    HW186943   4.991   8.177   4.971
28368SOL    HW286944   4.882   8.192   5.075
28369SOL     OW86945  12.129  10.204  12.375
28369SOL    HW186946  12.159  10.210  12.465
28369SOL    HW286947  12.039  10.236  12.377
28370SOL     OW86948   3.338   5.265   0.040
28370SOL    HW186949   3.340   5.230   0.130
28370SOL    HW286950   3.417   5.319   0.034
28371SOL     OW86951   5.301   2.790   8.523
28371SOL    HW186952   5.396   2.781   8.536
28371SOL    HW286953   5.269   2.699   8.518
28372SOL     OW86954   6.139  14.508  11.945
28372SOL    HW186955   6.110  14.539  11.860
28372SOL    HW286956   6.157  14.588  11.995
28373SOL     OW86957   9.715  14.408  12.487
28373SOL    HW186958   9.713  14.443  12.398
28373SOL    HW286959   9.623  14.400  12.512
28374SOL     OW86960   8.391   3.325   7.198
28374SOL    HW186961   8.452   3.294   7.265
28374SOL    HW286962   8.316   3.359   7.247
28375SOL     OW86963   3.714   7.154   8.152
28375SOL    HW186964   3.732   7.072   8.198
28375SOL    HW286965   3.668   7.126   8.072
28376SOL     OW86966  11.127  11.464  13.677
28376SOL    HW186967  11.205  11.493  13.723
28376SOL    HW286968  11.065  11.536  13.688
28377SOL     OW86969   1.161   3.225  12.813
28377SOL    HW186970   1.073   3.188  12.824
28377SOL    HW286971   1.203   3.214  12.899
28378SOL     OW86972   1.404   5.648   6.494
28378SOL    HW186973   1.353   5.722   6.525
28378SOL    HW286974   1.339   5.584   6.465
28379SOL     OW86975  11.393  12.961   2.315
28379SOL    HW186976  11.305  12.951   2.351
28379SOL    HW286977  11.382  13.015   2.237
28380SOL     OW86978  11.707   1.221   7.577
28380SOL    HW186979  11.706   1.298   7.635
28380SOL    HW286980  11.795   1.186   7.586
28381SOL     OW86981   1.917  14.832  12.429
28381SOL    HW186982   1.948  14.770  12.362
28381SOL    HW286983   1.991   0.017  12.442
28382SOL     OW86984   4.272   2.289   1.097
28382SOL    HW186985   4.213   2.284   1.172
28382SOL    HW286986   4.360   2.277   1.135
28383SOL     OW86987   8.657  13.036   5.652
28383SOL    HW186988   8.752  13.037   5.663
28383SOL    HW286989   8.632  12.946   5.673
28384SOL     OW86990   3.871   4.704  10.532
28384SOL    HW186991   3.819   4.771  10.576
28384SOL    HW286992   3.879   4.736  10.442
28385SOL     OW86993   0.908  10.271   3.552
28385SOL    HW186994   0.853  10.205   3.509
28385SOL    HW286995   0.982  10.221   3.587
28386SOL     OW86996   1.611  14.192  14.027
28386SOL    HW186997   1.618  14.137  13.950
28386SOL    HW286998   1.701  14.198  14.061
28387SOL     OW86999   4.169   8.379   6.019
28387SOL    HW187000   4.197   8.402   6.108
28387SOL    HW287001   4.114   8.302   6.030
28388SOL     OW87002   7.809  12.234   9.688
28388SOL    HW187003   7.749  12.258   9.617
28388SOL    HW287004   7.895  12.232   9.647
28389SOL     OW87005   7.211   2.108   7.966
28389SOL    HW187006   7.216   2.013   7.977
28389SOL    HW287007   7.271   2.127   7.894
28390SOL     OW87008   4.285   0.389   0.219
28390SOL    HW187009   4.316   0.408   0.308
28390SOL    HW287010   4.191   0.411   0.221
28391SOL     OW87011   9.609   7.683   7.306
28391SOL    HW187012   9.701   7.705   7.321
28391SOL    HW287013   9.573   7.760   7.262
28392SOL     OW87014   6.351   7.406   2.692
28392SOL    HW187015   6.411   7.468   2.734
28392SOL    HW287016   6.275   7.460   2.668
28393SOL     OW87017   3.476   8.483   4.218
28393SOL    HW187018   3.462   8.539   4.142
28393SOL    HW287019   3.476   8.543   4.293
28394SOL     OW87020   7.360   7.825   1.866
28394SOL    HW187021   7.433   7.887   1.876
28394SOL    HW287022   7.282   7.878   1.881
28395SOL     OW87023   0.246   7.345   0.947
28395SOL    HW187024   0.279   7.318   1.033
28395SOL    HW287025   0.315   7.400   0.911
28396SOL     OW87026   2.141  14.804   0.783
28396SOL    HW187027   2.090  14.770   0.709
28396SOL    HW287028   2.209  14.857   0.743
28397SOL     OW87029   9.004   6.956   4.982
28397SOL    HW187030   9.061   6.960   5.059
28397SOL    HW287031   9.064   6.970   4.908
28398SOL     OW87032   6.834  11.607   0.403
28398SOL    HW187033   6.889  11.554   0.345
28398SOL    HW287034   6.745  11.581   0.381
28399SOL     OW87035   6.573   7.059   1.907
28399SOL    HW187036   6.621   7.002   1.967
28399SOL    HW287037   6.487   7.018   1.898
28400SOL     OW87038   1.365   2.901   6.456
28400SOL    HW187039   1.313   2.867   6.383
28400SOL    HW287040   1.455   2.899   6.424
28401SOL     OW87041   8.472  12.963   5.391
28401SOL    HW187042   8.469  13.045   5.441
28401SOL    HW287043   8.527  12.905   5.444
28402SOL     OW87044  13.148   1.174  10.864
28402SOL    HW187045  13.114   1.163  10.775
28402SOL    HW287046  13.073   1.203  10.915
28403SOL     OW87047   3.472  14.870   5.304
28403SOL    HW187048   3.451  14.874   5.398
28403SOL    HW287049   3.387  14.860   5.261
28404SOL     OW87050   7.017   2.679   8.636
28404SOL    HW187051   7.050   2.768   8.625
28404SOL    HW287052   6.968   2.682   8.718
28405SOL     OW87053   7.084  12.308   0.605
28405SOL    HW187054   7.086  12.230   0.549
28405SOL    HW287055   7.028  12.283   0.678
28406SOL     OW87056  10.963   7.523   5.674
28406SOL    HW187057  10.905   7.459   5.633
28406SOL    HW287058  11.050   7.483   5.672
28407SOL     OW87059   2.985   5.514   6.958
28407SOL    HW187060   3.027   5.498   7.043
28407SOL    HW287061   2.978   5.609   6.953
28408SOL     OW87062  10.930   9.873  12.197
28408SOL    HW187063  10.867   9.884  12.268
28408SOL    HW287064  11.002   9.932  12.220
28409SOL     OW87065  14.371   9.570  10.473
28409SOL    HW187066  14.405   9.641  10.419
28409SOL    HW287067  14.390   9.490  10.424
28410SOL     OW87068   9.454   7.308  14.811
28410SOL    HW187069   9.396   7.327  14.737
28410SOL    HW287070   9.478   7.216  14.801
28411SOL     OW87071   0.021   5.407   6.539
28411SOL    HW187072  14.827   5.352   6.500
28411SOL    HW287073   0.015   5.489   6.491
28412SOL     OW87074  12.254  13.370   4.848
28412SOL    HW187075  12.159  13.378   4.846
28412SOL    HW287076  12.285  13.431   4.782
28413SOL     OW87077   6.688  13.957  10.856
28413SOL    HW187078   6.673  13.963  10.950
28413SOL    HW287079   6.602  13.972  10.817
28414SOL     OW87080  11.452   4.215   6.574
28414SOL    HW187081  11.471   4.164   6.495
28414SOL    HW287082  11.397   4.157   6.627
28415SOL     OW87083  11.170   3.734  10.765
28415SOL    HW187084  11.117   3.809  10.792
28415SOL    HW287085  11.217   3.707  10.844
28416SOL     OW87086   7.497  12.753   7.562
28416SOL    HW187087   7.509  12.670   7.609
28416SOL    HW287088   7.570  12.756   7.500
28417SOL     OW87089  13.761  11.957   9.763
28417SOL    HW187090  13.675  11.919   9.743
28417SOL    HW287091  13.770  12.031   9.703
28418SOL     OW87092   6.735   7.617   5.576
28418SOL    HW187093   6.743   7.682   5.506
28418SOL    HW287094   6.796   7.646   5.644
28419SOL     OW87095   6.352   3.663  10.963
28419SOL    HW187096   6.397   3.644  11.045
28419SOL    HW287097   6.373   3.755  10.945
28420SOL     OW87098  12.870   1.168   3.201
28420SOL    HW187099  12.832   1.253   3.182
28420SOL    HW287100  12.963   1.178   3.183
28421SOL     OW87101   1.511   8.073   5.001
28421SOL    HW187102   1.463   8.068   4.918
28421SOL    HW287103   1.595   8.111   4.977
28422SOL     OW87104   6.907   0.109   5.444
28422SOL    HW187105   6.877   0.042   5.382
28422SOL    HW287106   6.900   0.066   5.530
28423SOL     OW87107   3.483   7.901   4.883
28423SOL    HW187108   3.402   7.855   4.861
28423SOL    HW287109   3.516   7.857   4.961
28424SOL     OW87110   9.056  13.504   5.916
28424SOL    HW187111   9.055  13.474   6.007
28424SOL    HW287112   9.019  13.432   5.866
28425SOL     OW87113   8.061   3.481   6.619
28425SOL    HW187114   8.065   3.456   6.711
28425SOL    HW287115   8.147   3.518   6.600
28426SOL     OW87116  10.383  13.269   5.430
28426SOL    HW187117  10.303  13.299   5.386
28426SOL    HW287118  10.400  13.183   5.393
28427SOL     OW87119   5.248  13.121   7.891
28427SOL    HW187120   5.154  13.104   7.889
28427SOL    HW287121   5.255  13.216   7.890
28428SOL     OW87122  11.987   7.705   3.410
28428SOL    HW187123  11.916   7.663   3.361
28428SOL    HW287124  12.037   7.751   3.343
28429SOL     OW87125   7.133  12.966  12.496
28429SOL    HW187126   7.108  12.883  12.536
28429SOL    HW287127   7.155  13.023  12.570
28430SOL     OW87128   9.726   9.439   5.073
28430SOL    HW187129   9.774   9.514   5.109
28430SOL    HW287130   9.667   9.412   5.143
28431SOL     OW87131  14.464   1.412   3.480
28431SOL    HW187132  14.406   1.387   3.552
28431SOL    HW287133  14.518   1.334   3.465
28432SOL     OW87134  12.473  10.203   5.388
28432SOL    HW187135  12.401  10.234   5.333
28432SOL    HW287136  12.549  10.201   5.330
28433SOL     OW87137   8.657   4.678  14.702
28433SOL    HW187138   8.583   4.716  14.750
28433SOL    HW287139   8.733   4.726  14.733
28434SOL     OW87140   1.213   2.915   4.340
28434SOL    HW187141   1.203   3.004   4.374
28434SOL    HW287142   1.132   2.871   4.364
28435SOL     OW87143  10.433   6.384   7.981
28435SOL    HW187144  10.341   6.385   8.007
28435SOL    HW287145  10.473   6.321   8.041
28436SOL     OW87146   3.307   8.731  12.874
28436SOL    HW187147   3.332   8.641  12.892
28436SOL    HW287148   3.386   8.782  12.891
28437SOL     OW87149   7.668   9.814  10.978
28437SOL    HW187150   7.608   9.740  10.986
28437SOL    HW287151   7.611   9.890  10.973
28438SOL     OW87152   1.405   5.861  14.076
28438SOL    HW187153   1.429   5.866  14.168
28438SOL    HW287154   1.310   5.875  14.074
28439SOL     OW87155   3.489  10.723   9.245
28439SOL    HW187156   3.552  10.699   9.313
28439SOL    HW287157   3.541  10.769   9.180
28440SOL     OW87158  14.628   8.446   6.319
28440SOL    HW187159  14.669   8.527   6.349
28440SOL    HW287160  14.696   8.380   6.329
28441SOL     OW87161   4.718   0.063  12.130
28441SOL    HW187162   4.689   0.100  12.214
28441SOL    HW287163   4.684   0.123  12.064
28442SOL     OW87164   6.959  12.756   3.087
28442SOL    HW187165   6.954  12.684   3.023
28442SOL    HW287166   7.015  12.722   3.156
28443SOL     OW87167   9.371   7.086  11.018
28443SOL    HW187168   9.441   7.027  10.990
28443SOL    HW287169   9.360   7.146  10.944
28444SOL     OW87170   0.218   2.722   9.116
28444SOL    HW187171   0.298   2.741   9.165
28444SOL    HW287172   0.150   2.773   9.161
28445SOL     OW87173  13.600   7.928   6.619
28445SOL    HW187174  13.571   8.017   6.599
28445SOL    HW287175  13.663   7.938   6.690
28446SOL     OW87176  14.631  12.766   1.605
28446SOL    HW187177  14.657  12.742   1.693
28446SOL    HW287178  14.710  12.756   1.553
28447SOL     OW87179   8.338  12.402   2.851
28447SOL    HW187180   8.412  12.405   2.912
28447SOL    HW287181   8.376  12.369   2.769
28448SOL     OW87182  13.071   0.776   8.560
28448SOL    HW187183  13.137   0.729   8.612
28448SOL    HW287184  13.008   0.709   8.534
28449SOL     OW87185   2.409   0.719   1.704
28449SOL    HW187186   2.475   0.682   1.644
28449SOL    HW287187   2.422   0.814   1.696
28450SOL     OW87188  12.420  11.991   8.143
28450SOL    HW187189  12.368  12.071   8.133
28450SOL    HW287190  12.355  11.921   8.152
28451SOL     OW87191   7.300  11.821   0.538
28451SOL    HW187192   7.383  11.785   0.505
28451SOL    HW287193   7.251  11.842   0.458
28452SOL     OW87194   5.917   5.991  11.845
28452SOL    HW187195   6.004   6.013  11.877
28452SOL    HW287196   5.858   6.017  11.915
28453SOL     OW87197  13.661  10.686  14.410
28453SOL    HW187198  13.617  10.601  14.405
28453SOL    HW287199  13.731  10.680  14.345
28454SOL     OW87200   0.704   2.709   8.300
28454SOL    HW187201   0.753   2.771   8.353
28454SOL    HW287202   0.684   2.637   8.359
28455SOL     OW87203  12.164   1.676   8.926
28455SOL    HW187204  12.107   1.599   8.917
28455SOL    HW287205  12.181   1.683   9.020
28456SOL     OW87206   7.158  13.093  14.196
28456SOL    HW187207   7.104  13.163  14.232
28456SOL    HW287208   7.236  13.137  14.162
28457SOL     OW87209   8.615   6.251   0.015
28457SOL    HW187210   8.601   6.187  14.819
28457SOL    HW287211   8.618   6.198   0.095
28458SOL     OW87212   3.995  14.436   0.625
28458SOL    HW187213   4.084  14.403   0.609
28458SOL    HW287214   3.968  14.393   0.707
28459SOL     OW87215   2.231  12.634   3.110
28459SOL    HW187216   2.234  12.610   3.203
28459SOL    HW287217   2.277  12.563   3.065
28460SOL     OW87218   7.391   9.051  12.280
28460SOL    HW187219   7.429   9.025  12.364
28460SOL    HW287220   7.321   8.988  12.265
28461SOL     OW87221   6.966   8.431   9.108
28461SOL    HW187222   7.035   8.477   9.157
28461SOL    HW287223   7.014   8.379   9.044
28462SOL     OW87224   7.118  12.425  11.874
28462SOL    HW187225   7.204  12.384  11.889
28462SOL    HW287226   7.125  12.511  11.916
28463SOL     OW87227   1.875   0.864  10.763
28463SOL    HW187228   1.905   0.910  10.685
28463SOL    HW287229   1.875   0.931  10.832
28464SOL     OW87230   9.585  11.677  12.025
28464SOL    HW187231   9.536  11.717  12.097
28464SOL    HW287232   9.544  11.591  12.013
28465SOL     OW87233   1.440   0.147  10.506
28465SOL    HW187234   1.400   0.203  10.572
28465SOL    HW287235   1.520   0.114  10.548
28466SOL     OW87236  11.469  14.074   9.884
28466SOL    HW187237  11.508  14.025   9.812
28466SOL    HW287238  11.470  14.013   9.958
28467SOL     OW87239   1.722  14.512  12.351
28467SOL    HW187240   1.719  14.475  12.439
28467SOL    HW287241   1.676  14.448  12.297
28468SOL     OW87242   4.000  13.726   3.507
28468SOL    HW187243   3.943  13.666   3.459
28468SOL    HW287244   4.048  13.773   3.439
28469SOL     OW87245   6.041   5.409   0.874
28469SOL    HW187246   5.985   5.479   0.908
28469SOL    HW287247   5.985   5.360   0.814
28470SOL     OW87248  11.194   3.458  12.595
28470SOL    HW187249  11.252   3.533  12.612
28470SOL    HW287250  11.254   3.387  12.572
28471SOL     OW87251  14.614  13.462   2.178
28471SOL    HW187252  14.638  13.370   2.191
28471SOL    HW287253  14.606  13.498   2.266
28472SOL     OW87254  11.063   2.309   4.513
28472SOL    HW187255  10.978   2.337   4.547
28472SOL    HW287256  11.098   2.386   4.469
28473SOL     OW87257   0.395   5.783   0.200
28473SOL    HW187258   0.401   5.879   0.202
28473SOL    HW287259   0.415   5.759   0.110
28474SOL     OW87260   6.918   7.767   5.756
28474SOL    HW187261   6.987   7.819   5.797
28474SOL    HW287262   6.837   7.809   5.784
28475SOL     OW87263   3.541   1.496   7.659
28475SOL    HW187264   3.504   1.574   7.616
28475SOL    HW287265   3.592   1.453   7.590
28476SOL     OW87266  13.394   5.291  10.831
28476SOL    HW187267  13.443   5.274  10.912
28476SOL    HW287268  13.356   5.206  10.809
28477SOL     OW87269  11.996   0.325  13.992
28477SOL    HW187270  11.930   0.256  13.986
28477SOL    HW287271  11.991   0.370  13.908
28478SOL     OW87272   3.957  11.323   1.287
28478SOL    HW187273   3.939  11.330   1.194
28478SOL    HW287274   4.039  11.371   1.299
28479SOL     OW87275   0.243  12.909  12.291
28479SOL    HW187276   0.178  12.849  12.255
28479SOL    HW287277   0.263  12.874  12.378
28480SOL     OW87278  14.319   7.222   3.098
28480SOL    HW187279  14.268   7.182   3.168
28480SOL    HW287280  14.321   7.315   3.120
28481SOL     OW87281   4.548   0.511   4.140
28481SOL    HW187282   4.639   0.510   4.167
28481SOL    HW287283   4.511   0.431   4.177
28482SOL     OW87284   8.806  12.695  10.937
28482SOL    HW187285   8.828  12.654  11.020
28482SOL    HW287286   8.778  12.784  10.959
28483SOL     OW87287   1.107   8.751  13.495
28483SOL    HW187288   1.044   8.819  13.472
28483SOL    HW287289   1.193   8.791  13.480
28484SOL     OW87290   9.773   7.533   1.617
28484SOL    HW187291   9.713   7.459   1.611
28484SOL    HW287292   9.852   7.497   1.657
28485SOL     OW87293   1.418  14.051   1.334
28485SOL    HW187294   1.472  14.072   1.257
28485SOL    HW287295   1.378  13.967   1.313
28486SOL     OW87296   9.761   1.995   1.874
28486SOL    HW187297   9.748   2.089   1.857
28486SOL    HW287298   9.708   1.977   1.952
28487SOL     OW87299  13.792   1.509   0.198
28487SOL    HW187300  13.762   1.593   0.164
28487SOL    HW287301  13.835   1.529   0.281
28488SOL     OW87302   2.227   4.643  11.669
28488SOL    HW187303   2.151   4.684  11.708
28488SOL    HW287304   2.297   4.707  11.680
28489SOL     OW87305   7.162  12.246  11.286
28489SOL    HW187306   7.203  12.161  11.302
28489SOL    HW287307   7.154  12.252  11.190
28490SOL     OW87308  11.632  13.590   7.121
28490SOL    HW187309  11.698  13.654   7.146
28490SOL    HW287310  11.677  13.528   7.064
28491SOL     OW87311  12.507  12.615   8.909
28491SOL    HW187312  12.534  12.540   8.961
28491SOL    HW287313  12.424  12.643   8.949
28492SOL     OW87314   9.518   6.356   8.319
28492SOL    HW187315   9.588   6.326   8.377
28492SOL    HW287316   9.454   6.286   8.320
28493SOL     OW87317   5.513  11.427  13.722
28493SOL    HW187318   5.442  11.447  13.783
28493SOL    HW287319   5.474  11.438  13.636
28494SOL     OW87320   0.411   8.601   7.473
28494SOL    HW187321   0.455   8.679   7.440
28494SOL    HW287322   0.436   8.531   7.412
28495SOL     OW87323   9.554  13.820  11.306
28495SOL    HW187324   9.559  13.755  11.376
28495SOL    HW287325   9.514  13.772  11.233
28496SOL     OW87326   7.308   4.514   1.764
28496SOL    HW187327   7.404   4.515   1.757
28496SOL    HW287328   7.278   4.500   1.674
28497SOL     OW87329  12.317   8.799   8.922
28497SOL    HW187330  12.393   8.846   8.888
28497SOL    HW287331  12.249   8.812   8.856
28498SOL     OW87332   9.148  11.490  12.105
28498SOL    HW187333   9.069  11.525  12.064
28498SOL    HW287334   9.217  11.508  12.041
28499SOL     OW87335   8.653   9.533   9.081
28499SOL    HW187336   8.667   9.626   9.101
28499SOL    HW287337   8.726   9.509   9.025
28500SOL     OW87338   7.538   7.142   8.721
28500SOL    HW187339   7.560   7.053   8.693
28500SOL    HW287340   7.578   7.149   8.809
28501SOL     OW87341  11.508   2.338  10.744
28501SOL    HW187342  11.566   2.265  10.725
28501SOL    HW287343  11.514   2.349  10.839
28502SOL     OW87344   8.471  13.866   8.978
28502SOL    HW187345   8.539  13.811   9.018
28502SOL    HW287346   8.402  13.870   9.044
28503SOL     OW87347   8.633  13.073   1.593
28503SOL    HW187348   8.596  12.991   1.562
28503SOL    HW287349   8.594  13.086   1.680
28504SOL     OW87350   0.442   4.261   9.473
28504SOL    HW187351   0.490   4.283   9.393
28504SOL    HW287352   0.444   4.165   9.476
28505SOL     OW87353   0.428   7.960   3.852
28505SOL    HW187354   0.407   7.880   3.900
28505SOL    HW287355   0.519   7.978   3.873
28506SOL     OW87356   8.914   3.133   5.015
28506SOL    HW187357   8.934   3.205   5.075
28506SOL    HW287358   8.991   3.128   4.958
28507SOL     OW87359   6.043   1.402   5.342
28507SOL    HW187360   6.042   1.489   5.382
28507SOL    HW287361   6.097   1.349   5.401
28508SOL     OW87362  12.194   0.915  10.635
28508SOL    HW187363  12.207   1.004  10.602
28508SOL    HW287364  12.118   0.922  10.694
28509SOL     OW87365  12.872  11.036   0.225
28509SOL    HW187366  12.862  11.130   0.243
28509SOL    HW287367  12.848  10.993   0.307
28510SOL     OW87368   4.639   4.205  12.277
28510SOL    HW187369   4.645   4.229  12.370
28510SOL    HW287370   4.668   4.283  12.230
28511SOL     OW87371   2.274   4.273   3.774
28511SOL    HW187372   2.247   4.239   3.689
28511SOL    HW287373   2.285   4.367   3.759
28512SOL     OW87374   0.985  14.609   1.439
28512SOL    HW187375   1.060  14.668   1.436
28512SOL    HW287376   1.005  14.548   1.510
28513SOL     OW87377  12.966   5.280   0.247
28513SOL    HW187378  12.941   5.198   0.289
28513SOL    HW287379  13.058   5.292   0.269
28514SOL     OW87380   5.041   3.735   7.240
28514SOL    HW187381   5.109   3.767   7.299
28514SOL    HW287382   5.025   3.808   7.180
28515SOL     OW87383  11.492  14.548   2.524
28515SOL    HW187384  11.468  14.521   2.435
28515SOL    HW287385  11.419  14.520   2.578
28516SOL     OW87386   5.937  13.663   0.787
28516SOL    HW187387   5.851  13.693   0.760
28516SOL    HW287388   5.987  13.744   0.803
28517SOL     OW87389   6.707   4.847  11.316
28517SOL    HW187390   6.730   4.916  11.379
28517SOL    HW287391   6.638   4.887  11.262
28518SOL     OW87392   4.336   8.561  13.747
28518SOL    HW187393   4.323   8.509  13.668
28518SOL    HW287394   4.270   8.630  13.741
28519SOL     OW87395   8.824  12.549   3.036
28519SOL    HW187396   8.853  12.548   2.945
28519SOL    HW287397   8.873  12.621   3.076
28520SOL     OW87398   8.782  10.228  12.283
28520SOL    HW187399   8.708  10.168  12.273
28520SOL    HW287400   8.837  10.187  12.350
28521SOL     OW87401   4.005  10.878   7.728
28521SOL    HW187402   4.073  10.887   7.661
28521SOL    HW287403   4.041  10.817   7.791
28522SOL     OW87404   7.757   2.076  11.266
28522SOL    HW187405   7.666   2.056  11.287
28522SOL    HW287406   7.796   1.990  11.246
28523SOL     OW87407   6.842  14.859   8.028
28523SOL    HW187408   6.882   0.054   7.976
28523SOL    HW287409   6.776   0.029   8.081
28524SOL     OW87410   0.780  10.824   9.360
28524SOL    HW187411   0.858  10.868   9.394
28524SOL    HW287412   0.706  10.870   9.398
28525SOL     OW87413   8.839   4.780  11.913
28525SOL    HW187414   8.830   4.871  11.940
28525SOL    HW287415   8.756   4.739  11.939
28526SOL     OW87416   1.624   3.307   5.729
28526SOL    HW187417   1.633   3.335   5.638
28526SOL    HW287418   1.656   3.217   5.730
28527SOL     OW87419  14.853  14.441   3.677
28527SOL    HW187420  14.771  14.491   3.685
28527SOL    HW287421  14.826  14.350   3.667
28528SOL     OW87422   0.072   8.911   3.915
28528SOL    HW187423   0.078   8.819   3.941
28528SOL    HW287424   0.138   8.921   3.847
28529SOL     OW87425   2.415  11.578   7.147
28529SOL    HW187426   2.405  11.622   7.231
28529SOL    HW287427   2.475  11.634   7.097
28530SOL     OW87428   9.153   4.891   8.481
28530SOL    HW187429   9.120   4.810   8.442
28530SOL    HW287430   9.097   4.906   8.558
28531SOL     OW87431  12.292  10.882   3.910
28531SOL    HW187432  12.292  10.978   3.903
28531SOL    HW287433  12.296  10.865   4.004
28532SOL     OW87434   9.970   3.340  12.552
28532SOL    HW187435  10.031   3.295  12.610
28532SOL    HW287436  10.023   3.367  12.477
28533SOL     OW87437  10.974   2.743  12.419
28533SOL    HW187438  10.981   2.809  12.488
28533SOL    HW287439  11.063   2.707  12.412
28534SOL     OW87440   7.084  10.673   4.910
28534SOL    HW187441   7.136  10.744   4.946
28534SOL    HW287442   6.994  10.708   4.909
28535SOL     OW87443   7.311   4.224   1.236
28535SOL    HW187444   7.303   4.181   1.150
28535SOL    HW287445   7.341   4.312   1.216
28536SOL     OW87446  13.204   7.814   1.512
28536SOL    HW187447  13.295   7.790   1.497
28536SOL    HW287448  13.153   7.751   1.462
28537SOL     OW87449  12.638   4.681   4.697
28537SOL    HW187450  12.698   4.627   4.749
28537SOL    HW287451  12.694   4.723   4.631
28538SOL     OW87452   2.762   4.536   2.196
28538SOL    HW187453   2.761   4.631   2.180
28538SOL    HW287454   2.758   4.497   2.109
28539SOL     OW87455   8.827   3.422   2.104
28539SOL    HW187456   8.808   3.497   2.160
28539SOL    HW287457   8.903   3.380   2.145
28540SOL     OW87458   2.015   7.504   1.986
28540SOL    HW187459   1.942   7.485   2.046
28540SOL    HW287460   1.972   7.526   1.903
28541SOL     OW87461   4.792  11.556  10.251
28541SOL    HW187462   4.715  11.499  10.247
28541SOL    HW287463   4.866  11.497  10.238
28542SOL     OW87464   7.126   1.529   4.114
28542SOL    HW187465   7.096   1.596   4.175
28542SOL    HW287466   7.046   1.498   4.070
28543SOL     OW87467   8.345   4.787  14.267
28543SOL    HW187468   8.267   4.842  14.266
28543SOL    HW287469   8.327   4.720  14.333
28544SOL     OW87470  10.710   3.416   8.860
28544SOL    HW187471  10.621   3.451   8.850
28544SOL    HW287472  10.735   3.441   8.949
28545SOL     OW87473   5.547  10.748  10.876
28545SOL    HW187474   5.506  10.661  10.879
28545SOL    HW287475   5.518  10.791  10.956
28546SOL     OW87476   2.716  12.702   7.418
28546SOL    HW187477   2.808  12.683   7.399
28546SOL    HW287478   2.712  12.709   7.514
28547SOL     OW87479   4.766   8.288   4.476
28547SOL    HW187480   4.696   8.232   4.508
28547SOL    HW287481   4.735   8.377   4.491
28548SOL     OW87482  12.985   7.521  10.658
28548SOL    HW187483  13.063   7.477  10.692
28548SOL    HW287484  13.019   7.596  10.609
28549SOL     OW87485   9.407   8.992  14.484
28549SOL    HW187486   9.411   9.000  14.388
28549SOL    HW287487   9.464   8.918  14.504
28550SOL     OW87488   0.592   6.853  10.118
28550SOL    HW187489   0.647   6.893  10.050
28550SOL    HW287490   0.539   6.926  10.150
28551SOL     OW87491  12.342   7.559  12.930
28551SOL    HW187492  12.375   7.472  12.908
28551SOL    HW287493  12.316   7.553  13.022
28552SOL     OW87494  11.529   4.267   7.031
28552SOL    HW187495  11.491   4.200   7.088
28552SOL    HW287496  11.564   4.218   6.956
28553SOL     OW87497  14.168   6.787  11.232
28553SOL    HW187498  14.106   6.741  11.290
28553SOL    HW287499  14.112   6.831  11.168
28554SOL     OW87500  11.875  11.029  11.520
28554SOL    HW187501  11.957  10.981  11.528
28554SOL    HW287502  11.823  10.999  11.595
28555SOL     OW87503   2.738  13.793   4.119
28555SOL    HW187504   2.701  13.833   4.198
28555SOL    HW287505   2.685  13.827   4.048
28556SOL     OW87506  11.939   4.921   8.278
28556SOL    HW187507  11.858   4.889   8.317
28556SOL    HW287508  11.945   4.876   8.194
28557SOL     OW87509  10.989  11.023   9.321
28557SOL    HW187510  10.932  11.098   9.302
28557SOL    HW287511  10.975  10.962   9.248
28558SOL     OW87512  10.919  13.632  10.193
28558SOL    HW187513  10.861  13.559  10.217
28558SOL    HW287514  10.862  13.709  10.193
28559SOL     OW87515   9.023  13.980  12.022
28559SOL    HW187516   9.059  14.069  12.029
28559SOL    HW287517   8.935  13.993  11.988
28560SOL     OW87518   2.280   4.575  14.643
28560SOL    HW187519   2.373   4.555  14.654
28560SOL    HW287520   2.274   4.605  14.552
28561SOL     OW87521   5.774   9.493   2.788
28561SOL    HW187522   5.770   9.585   2.764
28561SOL    HW287523   5.859   9.482   2.831
28562SOL     OW87524  13.734   4.634   8.835
28562SOL    HW187525  13.675   4.601   8.767
28562SOL    HW287526  13.707   4.725   8.848
28563SOL     OW87527   5.483  10.094   9.211
28563SOL    HW187528   5.551  10.160   9.206
28563SOL    HW287529   5.403  10.143   9.229
28564SOL     OW87530  10.146   6.100   2.213
28564SOL    HW187531  10.154   6.005   2.199
28564SOL    HW287532  10.086   6.129   2.145
28565SOL     OW87533   7.311   8.673   5.439
28565SOL    HW187534   7.256   8.710   5.370
28565SOL    HW287535   7.341   8.749   5.489
28566SOL     OW87536   1.112  14.442   9.436
28566SOL    HW187537   1.201  14.477   9.429
28566SOL    HW287538   1.055  14.516   9.414
28567SOL     OW87539   3.018   0.819   4.386
28567SOL    HW187540   2.989   0.904   4.420
28567SOL    HW287541   2.992   0.757   4.454
28568SOL     OW87542   6.401  12.725   3.699
28568SOL    HW187543   6.465  12.782   3.742
28568SOL    HW287544   6.453  12.668   3.643
28569SOL     OW87545   1.689   8.188   4.738
28569SOL    HW187546   1.677   8.223   4.649
28569SOL    HW287547   1.668   8.262   4.795
28570SOL     OW87548   7.519  12.936   4.589
28570SOL    HW187549   7.455  12.888   4.640
28570SOL    HW287550   7.468  12.997   4.536
28571SOL     OW87551   2.340   4.638   5.977
28571SOL    HW187552   2.405   4.602   6.037
28571SOL    HW287553   2.299   4.561   5.937
28572SOL     OW87554   8.770  11.852   6.688
28572SOL    HW187555   8.787  11.876   6.779
28572SOL    HW287556   8.688  11.804   6.690
28573SOL     OW87557   9.603   3.429   0.458
28573SOL    HW187558   9.512   3.439   0.433
28573SOL    HW287559   9.607   3.457   0.549
28574SOL     OW87560   3.469  13.317  12.233
28574SOL    HW187561   3.382  13.357  12.244
28574SOL    HW287562   3.464  13.236  12.284
28575SOL     OW87563  13.071   9.977   0.714
28575SOL    HW187564  12.985  10.015   0.691
28575SOL    HW287565  13.132  10.050   0.702
28576SOL     OW87566   9.941   5.395  12.703
28576SOL    HW187567  10.007   5.349  12.755
28576SOL    HW287568   9.990   5.438  12.634
28577SOL     OW87569  12.871  10.417   1.887
28577SOL    HW187570  12.826  10.501   1.898
28577SOL    HW287571  12.939  10.435   1.822
28578SOL     OW87572  11.483   0.758   6.903
28578SOL    HW187573  11.490   0.846   6.866
28578SOL    HW287574  11.392   0.732   6.885
28579SOL     OW87575  10.206  14.713   2.189
28579SOL    HW187576  10.223  14.632   2.237
28579SOL    HW287577  10.198  14.685   2.098
28580SOL     OW87578   9.298   7.362   8.878
28580SOL    HW187579   9.203   7.362   8.895
28580SOL    HW287580   9.306   7.394   8.788
28581SOL     OW87581   9.941   1.009   2.175
28581SOL    HW187582   9.911   1.084   2.124
28581SOL    HW287583  10.037   1.012   2.166
28582SOL     OW87584   0.444   8.414   2.443
28582SOL    HW187585   0.472   8.327   2.413
28582SOL    HW287586   0.452   8.470   2.366
28583SOL     OW87587   3.918  13.158  12.987
28583SOL    HW187588   3.971  13.080  13.006
28583SOL    HW287589   3.962  13.199  12.912
28584SOL     OW87590   9.619  13.489  14.225
28584SOL    HW187591   9.648  13.476  14.316
28584SOL    HW287592   9.553  13.557  14.230
28585SOL     OW87593  10.418   7.198   9.444
28585SOL    HW187594  10.339   7.201   9.390
28585SOL    HW287595  10.393   7.239   9.526
28586SOL     OW87596   1.744  12.526   1.744
28586SOL    HW187597   1.795  12.596   1.703
28586SOL    HW287598   1.727  12.558   1.833
28587SOL     OW87599   1.407   7.185   8.435
28587SOL    HW187600   1.473   7.203   8.368
28587SOL    HW287601   1.326   7.171   8.386
28588SOL     OW87602  13.071   5.849   0.394
28588SOL    HW187603  13.068   5.935   0.352
28588SOL    HW287604  13.090   5.788   0.322
28589SOL     OW87605  11.058   4.312  11.125
28589SOL    HW187606  11.005   4.333  11.049
28589SOL    HW287607  11.027   4.372  11.193
28590SOL     OW87608   2.285   2.351  14.611
28590SOL    HW187609   2.204   2.335  14.659
28590SOL    HW287610   2.323   2.264  14.599
28591SOL     OW87611   3.244   7.741  13.674
28591SOL    HW187612   3.223   7.762  13.583
28591SOL    HW287613   3.339   7.741  13.677
28592SOL     OW87614  13.192   9.664  10.658
28592SOL    HW187615  13.125   9.711  10.610
28592SOL    HW287616  13.273   9.681  10.610
28593SOL     OW87617   6.078   2.855   8.431
28593SOL    HW187618   6.064   2.780   8.373
28593SOL    HW287619   6.132   2.820   8.502
28594SOL     OW87620  11.229  10.949   3.037
28594SOL    HW187621  11.259  10.984   3.121
28594SOL    HW287622  11.272  11.002   2.971
28595SOL     OW87623   0.414   6.508   3.563
28595SOL    HW187624   0.323   6.499   3.534
28595SOL    HW287625   0.444   6.590   3.522
28596SOL     OW87626   7.896   2.987  11.153
28596SOL    HW187627   7.880   2.892  11.151
28596SOL    HW287628   7.825   3.025  11.101
28597SOL     OW87629   8.936   9.312   7.629
28597SOL    HW187630   8.948   9.227   7.671
28597SOL    HW287631   8.869   9.356   7.682
28598SOL     OW87632  14.170   9.609   3.966
28598SOL    HW187633  14.138   9.688   4.009
28598SOL    HW287634  14.173   9.632   3.873
28599SOL     OW87635  13.304   6.449   4.451
28599SOL    HW187636  13.261   6.512   4.510
28599SOL    HW287637  13.273   6.474   4.364
28600SOL     OW87638   0.321  13.360   8.132
28600SOL    HW187639   0.240  13.312   8.115
28600SOL    HW287640   0.364  13.311   8.201
28601SOL     OW87641   6.063  13.179  10.217
28601SOL    HW187642   6.127  13.109  10.208
28601SOL    HW287643   5.991  13.153  10.159
28602SOL     OW87644   0.264   3.372  11.752
28602SOL    HW187645   0.267   3.293  11.699
28602SOL    HW287646   0.225   3.344  11.835
28603SOL     OW87647   4.298   4.443  14.667
28603SOL    HW187648   4.373   4.386  14.653
28603SOL    HW287649   4.226   4.399  14.623
28604SOL     OW87650  12.759   9.872   3.458
28604SOL    HW187651  12.731   9.781   3.446
28604SOL    HW287652  12.831   9.867   3.521
28605SOL     OW87653   3.739  13.616  14.730
28605SOL    HW187654   3.747  13.692  14.786
28605SOL    HW287655   3.763  13.647  14.643
28606SOL     OW87656  14.527   0.693  14.180
28606SOL    HW187657  14.603   0.742  14.149
28606SOL    HW287658  14.501   0.640  14.105
28607SOL     OW87659  10.673  10.616   2.428
28607SOL    HW187660  10.758  10.654   2.451
28607SOL    HW287661  10.614  10.651   2.494
28608SOL     OW87662   2.807   3.564   4.814
28608SOL    HW187663   2.823   3.578   4.720
28608SOL    HW287664   2.748   3.636   4.838
28609SOL     OW87665  12.352  12.323   4.089
28609SOL    HW187666  12.343  12.250   4.028
28609SOL    HW287667  12.301  12.393   4.050
28610SOL     OW87668   9.390   6.065   8.069
28610SOL    HW187669   9.295   6.066   8.057
28610SOL    HW287670   9.405   6.116   8.149
28611SOL     OW87671  10.142   0.235   4.164
28611SOL    HW187672  10.093   0.308   4.201
28611SOL    HW287673  10.160   0.261   4.073
28612SOL     OW87674  12.043   9.675   6.759
28612SOL    HW187675  12.059   9.629   6.677
28612SOL    HW287676  11.955   9.649   6.785
28613SOL     OW87677   0.138  11.933   3.920
28613SOL    HW187678   0.090  11.947   3.838
28613SOL    HW287679   0.153  12.020   3.955
28614SOL     OW87680  12.425   1.096   4.392
28614SOL    HW187681  12.467   1.044   4.323
28614SOL    HW287682  12.356   1.145   4.346
28615SOL     OW87683   8.687   1.985   5.889
28615SOL    HW187684   8.619   1.994   5.823
28615SOL    HW287685   8.713   2.076   5.908
28616SOL     OW87686   8.455   3.861  12.734
28616SOL    HW187687   8.492   3.949  12.743
28616SOL    HW287688   8.363   3.875  12.711
28617SOL     OW87689   6.145  12.843   7.951
28617SOL    HW187690   6.163  12.909   8.018
28617SOL    HW287691   6.117  12.894   7.875
28618SOL     OW87692  13.979   1.427   3.621
28618SOL    HW187693  13.915   1.389   3.560
28618SOL    HW287694  14.055   1.370   3.614
28619SOL     OW87695   3.002  13.275   3.022
28619SOL    HW187696   3.094  13.274   2.993
28619SOL    HW287697   3.005  13.319   3.107
28620SOL     OW87698   1.708   2.560   3.035
28620SOL    HW187699   1.771   2.522   3.097
28620SOL    HW287700   1.673   2.485   2.987
28621SOL     OW87701   1.790   0.547   8.214
28621SOL    HW187702   1.875   0.546   8.257
28621SOL    HW287703   1.730   0.510   8.278
28622SOL     OW87704   1.402  13.751   2.938
28622SOL    HW187705   1.392  13.823   2.876
28622SOL    HW287706   1.495  13.754   2.963
28623SOL     OW87707   9.958  14.825   8.801
28623SOL    HW187708   9.975   0.037   8.837
28623SOL    HW287709   9.915  14.777   8.872
28624SOL     OW87710   9.360   7.506  12.122
28624SOL    HW187711   9.296   7.529  12.055
28624SOL    HW287712   9.358   7.579  12.184
28625SOL     OW87713   8.569   0.697   1.632
28625SOL    HW187714   8.560   0.684   1.726
28625SOL    HW287715   8.491   0.745   1.606
28626SOL     OW87716   4.542   5.799   4.168
28626SOL    HW187717   4.632   5.769   4.152
28626SOL    HW287718   4.544   5.893   4.149
28627SOL     OW87719   0.494   9.605  13.054
28627SOL    HW187720   0.480   9.692  13.092
28627SOL    HW287721   0.589   9.599  13.044
28628SOL     OW87722   9.760   9.703  11.202
28628SOL    HW187723   9.786   9.611  11.193
28628SOL    HW287724   9.666   9.703  11.185
28629SOL     OW87725  13.314  11.268   6.953
28629SOL    HW187726  13.347  11.180   6.974
28629SOL    HW287727  13.375  11.327   6.996
28630SOL     OW87728  12.098   1.281  10.047
28630SOL    HW187729  12.079   1.295  10.139
28630SOL    HW287730  12.191   1.255  10.045
28631SOL     OW87731  13.585   2.453   7.084
28631SOL    HW187732  13.548   2.491   7.163
28631SOL    HW287733  13.519   2.469   7.016
28632SOL     OW87734  10.153   7.215   2.532
28632SOL    HW187735  10.173   7.140   2.587
28632SOL    HW287736  10.119   7.177   2.451
28633SOL     OW87737   6.608  11.038   5.634
28633SOL    HW187738   6.642  11.095   5.703
28633SOL    HW287739   6.541  10.985   5.678
28634SOL     OW87740   6.785   1.648  12.741
28634SOL    HW187741   6.771   1.724  12.798
28634SOL    HW287742   6.698   1.608  12.732
28635SOL     OW87743  11.263   8.135   5.156
28635SOL    HW187744  11.329   8.180   5.209
28635SOL    HW287745  11.199   8.104   5.220
28636SOL     OW87746   3.435   9.546   7.199
28636SOL    HW187747   3.411   9.545   7.292
28636SOL    HW287748   3.529   9.565   7.199
28637SOL     OW87749   3.246   2.991  14.201
28637SOL    HW187750   3.161   2.968  14.238
28637SOL    HW287751   3.296   2.909  14.204
28638SOL     OW87752  10.353   9.685   9.722
28638SOL    HW187753  10.349   9.681   9.626
28638SOL    HW287754  10.447   9.690   9.742
28639SOL     OW87755   9.642   1.786  10.264
28639SOL    HW187756   9.692   1.717  10.308
28639SOL    HW287757   9.698   1.815  10.193
28640SOL     OW87758   7.484   4.991   8.557
28640SOL    HW187759   7.507   4.917   8.613
28640SOL    HW287760   7.557   4.999   8.496
28641SOL     OW87761   7.825   0.398   9.859
28641SOL    HW187762   7.882   0.398   9.781
28641SOL    HW287763   7.741   0.431   9.826
28642SOL     OW87764   5.963   1.381  13.070
28642SOL    HW187765   5.963   1.471  13.038
28642SOL    HW287766   5.905   1.382  13.146
28643SOL     OW87767   1.662   1.876   9.987
28643SOL    HW187768   1.708   1.950  10.027
28643SOL    HW287769   1.599   1.917   9.928
28644SOL     OW87770  11.802   8.868  14.603
28644SOL    HW187771  11.823   8.926  14.677
28644SOL    HW287772  11.827   8.918  14.525
28645SOL     OW87773   2.934   3.653  14.250
28645SOL    HW187774   2.897   3.584  14.196
28645SOL    HW287775   2.871   3.725  14.244
28646SOL     OW87776   7.499  11.609   3.329
28646SOL    HW187777   7.547  11.542   3.281
28646SOL    HW287778   7.462  11.563   3.404
28647SOL     OW87779   0.009   4.172   1.481
28647SOL    HW187780   0.065   4.248   1.488
28647SOL    HW287781   0.018   4.142   1.391
28648SOL     OW87782   3.826  10.110   1.422
28648SOL    HW187783   3.745  10.160   1.429
28648SOL    HW287784   3.806  10.039   1.362
28649SOL     OW87785   6.821   0.050  10.521
28649SOL    HW187786   6.826   0.118  10.455
28649SOL    HW287787   6.873   0.083  10.595
28650SOL     OW87788  11.916   9.863   8.801
28650SOL    HW187789  11.994   9.903   8.762
28650SOL    HW287790  11.850   9.932   8.798
28651SOL     OW87791  12.685   2.718   1.047
28651SOL    HW187792  12.719   2.687   0.963
28651SOL    HW287793  12.657   2.808   1.030
28652SOL     OW87794  13.870   5.696  12.019
28652SOL    HW187795  13.939   5.681  12.083
28652SOL    HW287796  13.809   5.755  12.063
28653SOL     OW87797   9.063  14.541  13.290
28653SOL    HW187798   9.131  14.476  13.309
28653SOL    HW287799   9.069  14.604  13.362
28654SOL     OW87800   0.641   7.584   6.257
28654SOL    HW187801   0.601   7.498   6.249
28654SOL    HW287802   0.626   7.626   6.172
28655SOL     OW87803   2.042   1.765  11.419
28655SOL    HW187804   2.107   1.728  11.479
28655SOL    HW287805   1.970   1.792  11.475
28656SOL     OW87806   7.328  12.678  13.188
28656SOL    HW187807   7.344  12.676  13.282
28656SOL    HW287808   7.250  12.732  13.178
28657SOL     OW87809   8.508  10.824   4.576
28657SOL    HW187810   8.438  10.760   4.570
28657SOL    HW287811   8.545  10.812   4.663
28658SOL     OW87812   5.300  12.487   3.734
28658SOL    HW187813   5.210  12.519   3.736
28658SOL    HW287814   5.353  12.565   3.717
28659SOL     OW87815   3.526  13.366   8.484
28659SOL    HW187816   3.525  13.317   8.567
28659SOL    HW287817   3.614  13.402   8.478
28660SOL     OW87818   7.993   5.195   6.305
28660SOL    HW187819   7.946   5.115   6.326
28660SOL    HW287820   8.061   5.202   6.373
28661SOL     OW87821   7.320   3.271  11.745
28661SOL    HW187822   7.229   3.284  11.769
28661SOL    HW287823   7.340   3.344  11.686
28662SOL     OW87824  12.624   9.081   8.637
28662SOL    HW187825  12.697   9.142   8.649
28662SOL    HW287826  12.623   9.065   8.542
28663SOL     OW87827   0.148   4.250  12.148
28663SOL    HW187828   0.220   4.289  12.196
28663SOL    HW287829   0.175   4.160  12.131
28664SOL     OW87830  12.181  13.891  13.787
28664SOL    HW187831  12.123  13.821  13.757
28664SOL    HW287832  12.266  13.871  13.748
28665SOL     OW87833  14.353  10.618   4.003
28665SOL    HW187834  14.367  10.708   4.034
28665SOL    HW287835  14.328  10.629   3.911
28666SOL     OW87836   2.648   8.981  10.163
28666SOL    HW187837   2.664   8.891  10.191
28666SOL    HW287838   2.566   9.005  10.206
28667SOL     OW87839  13.691   0.728  13.563
28667SOL    HW187840  13.732   0.745  13.478
28667SOL    HW287841  13.621   0.666  13.544
28668SOL     OW87842   3.957   6.797   7.230
28668SOL    HW187843   3.903   6.727   7.195
28668SOL    HW287844   4.038   6.754   7.259
28669SOL     OW87845   4.590   7.498   6.075
28669SOL    HW187846   4.549   7.522   6.158
28669SOL    HW287847   4.596   7.402   6.079
28670SOL     OW87848  11.151   2.506   4.347
28670SOL    HW187849  11.170   2.592   4.385
28670SOL    HW287850  11.070   2.518   4.298
28671SOL     OW87851  10.899   9.495  13.347
28671SOL    HW187852  10.960   9.425  13.366
28671SOL    HW287853  10.862   9.473  13.261
28672SOL     OW87854   7.549   4.157   6.111
28672SOL    HW187855   7.600   4.221   6.061
28672SOL    HW287856   7.538   4.197   6.197
28673SOL     OW87857   5.506   4.669   1.131
28673SOL    HW187858   5.412   4.653   1.142
28673SOL    HW287859   5.512   4.726   1.054
28674SOL     OW87860  14.785  14.089  12.201
28674SOL    HW187861  14.844  14.084  12.277
28674SOL    HW287862  14.831  14.146  12.140
28675SOL     OW87863   3.022   7.795   1.056
28675SOL    HW187864   2.983   7.753   0.980
28675SOL    HW287865   2.955   7.789   1.124
28676SOL     OW87866  13.824   8.487   4.312
28676SOL    HW187867  13.845   8.503   4.220
28676SOL    HW287868  13.756   8.551   4.333
28677SOL     OW87869   9.542   3.962   1.029
28677SOL    HW187870   9.592   3.913   0.964
28677SOL    HW287871   9.566   3.923   1.112
28678SOL     OW87872   8.813   9.103   5.820
28678SOL    HW187873   8.722   9.129   5.803
28678SOL    HW287874   8.838   9.155   5.896
28679SOL     OW87875   1.173  13.284   3.182
28679SOL    HW187876   1.251  13.325   3.220
28679SOL    HW287877   1.194  13.276   3.089
28680SOL     OW87878   0.274   8.485   1.987
28680SOL    HW187879   0.342   8.461   1.924
28680SOL    HW287880   0.205   8.526   1.934
28681SOL     OW87881  10.305   9.991   6.421
28681SOL    HW187882  10.291   9.910   6.372
28681SOL    HW287883  10.332   9.961   6.508
28682SOL     OW87884  13.949   7.579  11.341
28682SOL    HW187885  14.031   7.553  11.384
28682SOL    HW287886  13.881   7.535  11.392
28683SOL     OW87887  10.060  10.735   8.457
28683SOL    HW187888  10.084  10.794   8.529
28683SOL    HW287889  10.142  10.721   8.410
28684SOL     OW87890  13.343   3.709  11.354
28684SOL    HW187891  13.283   3.666  11.294
28684SOL    HW287892  13.429   3.677  11.329
28685SOL     OW87893   5.171   1.919   9.828
28685SOL    HW187894   5.223   1.918   9.909
28685SOL    HW287895   5.110   1.991   9.840
28686SOL     OW87896  14.769   3.729   9.377
28686SOL    HW187897  14.803   3.770   9.457
28686SOL    HW287898  14.847   3.709   9.326
28687SOL     OW87899  13.564   9.404   7.149
28687SOL    HW187900  13.503   9.370   7.214
28687SOL    HW287901  13.512   9.464   7.096
28688SOL     OW87902  14.133  12.508   8.810
28688SOL    HW187903  14.095  12.477   8.728
28688SOL    HW287904  14.213  12.457   8.821
28689SOL     OW87905   9.126   7.501   2.398
28689SOL    HW187906   9.097   7.536   2.482
28689SOL    HW287907   9.072   7.546   2.334
28690SOL     OW87908   5.072   7.022  10.860
28690SOL    HW187909   5.148   6.998  10.912
28690SOL    HW287910   5.033   7.096  10.907
28691SOL     OW87911   3.240  13.130   3.844
28691SOL    HW187912   3.280  13.082   3.917
28691SOL    HW287913   3.291  13.211   3.838
28692SOL     OW87914  10.366   2.004   5.675
28692SOL    HW187915  10.453   2.039   5.699
28692SOL    HW287916  10.356   1.926   5.729
28693SOL     OW87917   1.307   3.012   3.229
28693SOL    HW187918   1.312   2.966   3.313
28693SOL    HW287919   1.213   3.020   3.212
28694SOL     OW87920  12.123   1.913   8.777
28694SOL    HW187921  12.201   1.966   8.791
28694SOL    HW287922  12.140   1.832   8.826
28695SOL     OW87923   5.632   0.163  13.954
28695SOL    HW187924   5.673   0.249  13.959
28695SOL    HW287925   5.696   0.103  13.992
28696SOL     OW87926  13.344   3.776   6.629
28696SOL    HW187927  13.318   3.866   6.607
28696SOL    HW287928  13.362   3.735   6.544
28697SOL     OW87929   1.082   7.383   9.449
28697SOL    HW187930   1.032   7.447   9.499
28697SOL    HW287931   1.120   7.432   9.376
28698SOL     OW87932  14.724   3.330   2.266
28698SOL    HW187933  14.798   3.278   2.295
28698SOL    HW287934  14.647   3.281   2.294
28699SOL     OW87935   2.312   9.067  13.253
28699SOL    HW187936   2.228   9.103  13.228
28699SOL    HW287937   2.294   9.013  13.330
28700SOL     OW87938   6.586   2.995   5.761
28700SOL    HW187939   6.620   2.906   5.751
28700SOL    HW287940   6.617   3.041   5.683
28701SOL     OW87941   1.161   2.486   9.463
28701SOL    HW187942   1.211   2.408   9.489
28701SOL    HW287943   1.070   2.455   9.460
28702SOL     OW87944   7.736   8.102  11.262
28702SOL    HW187945   7.748   8.009  11.243
28702SOL    HW287946   7.669   8.105  11.330
28703SOL     OW87947   8.205   9.970   5.036
28703SOL    HW187948   8.141   9.910   4.999
28703SOL    HW287949   8.265   9.914   5.086
28704SOL     OW87950   7.937   8.509   2.508
28704SOL    HW187951   7.862   8.563   2.533
28704SOL    HW287952   7.953   8.531   2.416
28705SOL     OW87953   4.083  14.006   3.748
28705SOL    HW187954   3.998  14.033   3.713
28705SOL    HW287955   4.138  13.993   3.671
28706SOL     OW87956   6.453   0.820   9.215
28706SOL    HW187957   6.499   0.795   9.296
28706SOL    HW287958   6.520   0.862   9.162
28707SOL     OW87959  12.244  11.044   9.434
28707SOL    HW187960  12.318  11.096   9.465
28707SOL    HW287961  12.285  10.972   9.385
28708SOL     OW87962   8.551  12.455   8.743
28708SOL    HW187963   8.493  12.529   8.721
28708SOL    HW287964   8.491  12.384   8.764
28709SOL     OW87965  10.069  10.902   7.466
28709SOL    HW187966  10.125  10.847   7.411
28709SOL    HW287967  10.013  10.949   7.403
28710SOL     OW87968   6.367   8.062   4.361
28710SOL    HW187969   6.368   8.128   4.431
28710SOL    HW287970   6.394   7.981   4.403
28711SOL     OW87971  13.977  14.553  10.530
28711SOL    HW187972  13.913  14.570  10.599
28711SOL    HW287973  13.924  14.536  10.452
28712SOL     OW87974  11.624   0.906   4.661
28712SOL    HW187975  11.698   0.849   4.680
28712SOL    HW287976  11.589   0.928   4.748
28713SOL     OW87977   6.807   9.962   5.534
28713SOL    HW187978   6.891   9.968   5.579
28713SOL    HW287979   6.808  10.034   5.472
28714SOL     OW87980  10.000   6.319   3.534
28714SOL    HW187981   9.956   6.397   3.501
28714SOL    HW287982   9.930   6.266   3.571
28715SOL     OW87983  13.695  14.744   3.991
28715SOL    HW187984  13.621  14.689   3.963
28715SOL    HW287985  13.771  14.687   3.981
28716SOL     OW87986  11.053   8.009   3.782
28716SOL    HW187987  10.983   8.000   3.718
28716SOL    HW287988  11.130   7.970   3.740
28717SOL     OW87989   6.563   2.559   8.221
28717SOL    HW187990   6.552   2.644   8.262
28717SOL    HW287991   6.656   2.552   8.202
28718SOL     OW87992   1.394  13.456   3.232
28718SOL    HW187993   1.354  13.530   3.278
28718SOL    HW287994   1.481  13.448   3.271
28719SOL     OW87995   8.043  14.362  10.089
28719SOL    HW187996   8.037  14.457  10.081
28719SOL    HW287997   8.068  14.348  10.180
28720SOL     OW87998  14.173   5.665  12.119
28720SOL    HW187999  14.102   5.654  12.182
28720SOL    HW288000  14.199   5.576  12.095
28721SOL     OW88001   6.438   9.691  12.968
28721SOL    HW188002   6.349   9.708  12.937
28721SOL    HW288003   6.454   9.599  12.947
28722SOL     OW88004   2.785   1.650  13.483
28722SOL    HW188005   2.786   1.606  13.398
28722SOL    HW288006   2.735   1.591  13.540
28723SOL     OW88007  13.162   4.469   8.301
28723SOL    HW188008  13.141   4.445   8.211
28723SOL    HW288009  13.181   4.386   8.344
28724SOL     OW88010   4.266   4.960   2.565
28724SOL    HW188011   4.185   4.991   2.523
28724SOL    HW288012   4.277   5.018   2.640
28725SOL     OW88013  11.652  13.966   4.946
28725SOL    HW188014  11.642  13.901   4.876
28725SOL    HW288015  11.569  14.013   4.948
28726SOL     OW88016   8.252   5.084   8.740
28726SOL    HW188017   8.295   5.001   8.764
28726SOL    HW288018   8.193   5.102   8.813
28727SOL     OW88019   0.216   6.648   8.047
28727SOL    HW188020   0.277   6.695   7.989
28727SOL    HW288021   0.167   6.717   8.091
28728SOL     OW88022   8.993   8.942   0.817
28728SOL    HW188023   9.070   8.986   0.853
28728SOL    HW288024   8.927   8.950   0.886
28729SOL     OW88025  10.323   8.130  13.137
28729SOL    HW188026  10.248   8.161  13.086
28729SOL    HW288027  10.356   8.055  13.087
28730SOL     OW88028  10.142   6.411  14.342
28730SOL    HW188029  10.216   6.367  14.301
28730SOL    HW288030  10.102   6.343  14.398
28731SOL     OW88031  13.131   3.764   3.632
28731SOL    HW188032  13.121   3.673   3.661
28731SOL    HW288033  13.168   3.809   3.709
28732SOL     OW88034   5.162  13.475  11.345
28732SOL    HW188035   5.178  13.559  11.387
28732SOL    HW288036   5.070  13.455  11.364
28733SOL     OW88037   8.813  12.160   7.085
28733SOL    HW188038   8.728  12.119   7.098
28733SOL    HW288039   8.834  12.198   7.170
28734SOL     OW88040   8.569  13.914  13.212
28734SOL    HW188041   8.545  13.838  13.159
28734SOL    HW288042   8.511  13.909  13.288
28735SOL     OW88043  13.339   6.418   8.144
28735SOL    HW188044  13.286   6.480   8.193
28735SOL    HW288045  13.373   6.358   8.211
28736SOL     OW88046   0.789   1.596   4.375
28736SOL    HW188047   0.864   1.549   4.410
28736SOL    HW288048   0.804   1.599   4.280
28737SOL     OW88049   3.773   5.251   2.252
28737SOL    HW188050   3.852   5.257   2.306
28737SOL    HW288051   3.782   5.322   2.188
28738SOL     OW88052   1.137  11.711   4.111
28738SOL    HW188053   1.188  11.792   4.106
28738SOL    HW288054   1.071  11.720   4.042
28739SOL     OW88055  11.341  10.312   5.622
28739SOL    HW188056  11.325  10.375   5.692
28739SOL    HW288057  11.253  10.285   5.594
28740SOL     OW88058  11.600   0.412  12.339
28740SOL    HW188059  11.579   0.468  12.414
28740SOL    HW288060  11.536   0.341  12.344
28741SOL     OW88061  13.774   2.081   2.590
28741SOL    HW188062  13.737   2.166   2.565
28741SOL    HW288063  13.820   2.099   2.672
28742SOL     OW88064   7.622   6.038  10.256
28742SOL    HW188065   7.642   6.127  10.228
28742SOL    HW288066   7.687   5.984  10.212
28743SOL     OW88067   0.259  10.974   1.477
28743SOL    HW188068   0.202  11.029   1.530
28743SOL    HW288069   0.221  10.977   1.389
28744SOL     OW88070  13.415  12.068  11.065
28744SOL    HW188071  13.455  12.130  11.126
28744SOL    HW288072  13.334  12.041  11.108
28745SOL     OW88073  10.232  11.900   4.177
28745SOL    HW188074  10.223  11.811   4.143
28745SOL    HW288075  10.326  11.920   4.168
28746SOL     OW88076  12.345   6.527   1.005
28746SOL    HW188077  12.386   6.461   0.949
28746SOL    HW288078  12.278   6.480   1.054
28747SOL     OW88079   1.435   7.272  11.703
28747SOL    HW188080   1.475   7.252  11.788
28747SOL    HW288081   1.342   7.250  11.715
28748SOL     OW88082   4.047   8.751  12.974
28748SOL    HW188083   3.966   8.759  13.025
28748SOL    HW288084   4.071   8.658  12.981
28749SOL     OW88085  10.047   1.756   2.161
28749SOL    HW188086  10.038   1.801   2.245
28749SOL    HW288087  10.124   1.700   2.172
28750SOL     OW88088  14.360   0.303   1.827
28750SOL    HW188089  14.377   0.224   1.776
28750SOL    HW288090  14.425   0.367   1.796
28751SOL     OW88091  10.370   0.490   9.899
28751SOL    HW188092  10.422   0.524   9.826
28751SOL    HW288093  10.332   0.568   9.940
28752SOL     OW88094   2.686   3.557   2.878
28752SOL    HW188095   2.764   3.537   2.930
28752SOL    HW288096   2.624   3.487   2.901
28753SOL     OW88097  14.416   4.650  12.276
28753SOL    HW188098  14.448   4.707  12.205
28753SOL    HW288099  14.368   4.710  12.334
28754SOL     OW88100   3.656  13.564  10.134
28754SOL    HW188101   3.705  13.550  10.215
28754SOL    HW288102   3.696  13.642  10.095
28755SOL     OW88103  12.631   6.176  10.423
28755SOL    HW188104  12.594   6.264  10.417
28755SOL    HW288105  12.723   6.190  10.445
28756SOL     OW88106   4.308  10.925   6.065
28756SOL    HW188107   4.248  10.935   5.991
28756SOL    HW288108   4.275  10.847   6.111
28757SOL     OW88109   2.555   9.453   4.831
28757SOL    HW188110   2.522   9.365   4.847
28757SOL    HW288111   2.600   9.447   4.746
28758SOL     OW88112   2.258   9.795   1.021
28758SOL    HW188113   2.263   9.851   0.944
28758SOL    HW288114   2.223   9.712   0.988
28759SOL     OW88115   5.726   6.892   5.270
28759SOL    HW188116   5.789   6.826   5.298
28759SOL    HW288117   5.656   6.843   5.228
28760SOL     OW88118  12.202   4.567   7.663
28760SOL    HW188119  12.184   4.517   7.743
28760SOL    HW288120  12.155   4.650   7.676
28761SOL     OW88121   4.083   2.623   2.467
28761SOL    HW188122   4.081   2.717   2.487
28761SOL    HW288123   4.163   2.612   2.415
28762SOL     OW88124   5.138   0.312  11.753
28762SOL    HW188125   5.076   0.376  11.786
28762SOL    HW288126   5.199   0.297  11.826
28763SOL     OW88127   6.850   6.541   9.243
28763SOL    HW188128   6.832   6.481   9.316
28763SOL    HW288129   6.928   6.589   9.271
28764SOL     OW88130   9.672   3.092   5.384
28764SOL    HW188131   9.719   3.130   5.459
28764SOL    HW288132   9.668   2.998   5.403
28765SOL     OW88133  13.274  12.503   9.905
28765SOL    HW188134  13.283  12.528   9.997
28765SOL    HW288135  13.355  12.458   9.884
28766SOL     OW88136   6.130  12.700   4.390
28766SOL    HW188137   6.191  12.704   4.316
28766SOL    HW288138   6.072  12.627   4.370
28767SOL     OW88139   0.566   8.182  11.920
28767SOL    HW188140   0.474   8.189  11.893
28767SOL    HW288141   0.598   8.272  11.917
28768SOL     OW88142   9.125   5.662  13.689
28768SOL    HW188143   9.112   5.719  13.613
28768SOL    HW288144   9.197   5.604  13.664
28769SOL     OW88145   3.104   4.323  10.321
28769SOL    HW188146   3.190   4.343  10.359
28769SOL    HW288147   3.066   4.409  10.301
28770SOL     OW88148   0.236   5.845  14.577
28770SOL    HW188149   0.166   5.783  14.557
28770SOL    HW288150   0.201   5.899  14.648
28771SOL     OW88151  10.494   8.218   3.554
28771SOL    HW188152  10.522   8.149   3.615
28771SOL    HW288153  10.430   8.270   3.604
28772SOL     OW88154  14.110  12.080   6.188
28772SOL    HW188155  14.067  11.996   6.202
28772SOL    HW288156  14.109  12.123   6.274
28773SOL     OW88157  10.319   0.532   9.392
28773SOL    HW188158  10.399   0.581   9.411
28773SOL    HW288159  10.270   0.589   9.332
28774SOL     OW88160   2.343   7.576   8.437
28774SOL    HW188161   2.351   7.671   8.425
28774SOL    HW288162   2.353   7.563   8.532
28775SOL     OW88163   0.643   6.555  11.663
28775SOL    HW188164   0.577   6.506  11.711
28775SOL    HW288165   0.617   6.646  11.673
28776SOL     OW88166   0.792   8.913  11.262
28776SOL    HW188167   0.750   8.853  11.201
28776SOL    HW288168   0.840   8.974  11.206
28777SOL     OW88169   4.205   6.467   9.087
28777SOL    HW188170   4.129   6.420   9.122
28777SOL    HW288171   4.244   6.509   9.163
28778SOL     OW88172   1.288   8.345  11.898
28778SOL    HW188173   1.353   8.377  11.836
28778SOL    HW288174   1.250   8.268  11.856
28779SOL     OW88175   8.612   1.587   7.757
28779SOL    HW188176   8.638   1.672   7.724
28779SOL    HW288177   8.694   1.541   7.772
28780SOL     OW88178   9.039   5.971   2.774
28780SOL    HW188179   8.959   5.974   2.827
28780SOL    HW288180   9.010   5.994   2.686
28781SOL     OW88181  11.036  11.770   6.922
28781SOL    HW188182  10.984  11.783   6.843
28781SOL    HW288183  11.124  11.796   6.897
28782SOL     OW88184   9.152   2.519   1.126
28782SOL    HW188185   9.240   2.479   1.132
28782SOL    HW288186   9.115   2.507   1.213
28783SOL     OW88187   5.158   7.793   4.318
28783SOL    HW188188   5.233   7.836   4.275
28783SOL    HW288189   5.113   7.864   4.363
28784SOL     OW88190   9.949   2.191  13.064
28784SOL    HW188191   9.875   2.132  13.076
28784SOL    HW288192   9.912   2.268  13.022
28785SOL     OW88193   3.465   3.975   7.500
28785SOL    HW188194   3.421   4.056   7.472
28785SOL    HW288195   3.477   3.925   7.420
28786SOL     OW88196  11.654   8.365  12.804
28786SOL    HW188197  11.656   8.321  12.889
28786SOL    HW288198  11.577   8.422  12.808
28787SOL     OW88199   0.149   7.514   9.564
28787SOL    HW188200   0.223   7.524   9.504
28787SOL    HW288201   0.108   7.431   9.539
28788SOL     OW88202   6.805  10.248   0.972
28788SOL    HW188203   6.720  10.252   0.928
28788SOL    HW288204   6.858  10.192   0.916
28789SOL     OW88205   1.935   6.721   1.921
28789SOL    HW188206   1.956   6.635   1.884
28789SOL    HW288207   1.980   6.723   2.005
28790SOL     OW88208  10.113  14.691   3.911
28790SOL    HW188209  10.101  14.657   4.000
28790SOL    HW288210  10.171  14.627   3.870
28791SOL     OW88211  11.941   1.671   5.611
28791SOL    HW188212  12.008   1.691   5.545
28791SOL    HW288213  11.883   1.747   5.611
28792SOL     OW88214  12.095  12.910   1.013
28792SOL    HW188215  12.072  13.003   1.010
28792SOL    HW288216  12.155  12.902   1.087
28793SOL     OW88217   5.790   4.914   6.740
28793SOL    HW188218   5.870   4.965   6.725
28793SOL    HW288219   5.792   4.846   6.673
28794SOL     OW88220  11.604   0.694   0.101
28794SOL    HW188221  11.585   0.654   0.186
28794SOL    HW288222  11.582   0.786   0.113
28795SOL     OW88223  14.126  10.133   9.514
28795SOL    HW188224  14.145  10.043   9.541
28795SOL    HW288225  14.043  10.126   9.466
28796SOL     OW88226  10.518  11.690   4.718
28796SOL    HW188227  10.431  11.663   4.749
28796SOL    HW288228  10.501  11.730   4.633
28797SOL     OW88229   4.538   3.492  14.228
28797SOL    HW188230   4.545   3.583  14.201
28797SOL    HW288231   4.620   3.475  14.276
28798SOL     OW88232  14.336   1.252   0.567
28798SOL    HW188233  14.309   1.343   0.581
28798SOL    HW288234  14.256   1.209   0.536
28799SOL     OW88235   9.695   8.946   6.285
28799SOL    HW188236   9.617   9.002   6.285
28799SOL    HW288237   9.726   8.949   6.194
28800SOL     OW88238  13.226   8.036  14.240
28800SOL    HW188239  13.234   8.096  14.314
28800SOL    HW288240  13.313   8.037  14.199
28801SOL     OW88241   8.665   2.558   9.151
28801SOL    HW188242   8.647   2.471   9.117
28801SOL    HW288243   8.592   2.612   9.120
28802SOL     OW88244  12.416   8.642   0.261
28802SOL    HW188245  12.362   8.715   0.291
28802SOL    HW288246  12.506   8.676   0.265
28803SOL     OW88247   4.216  11.670   4.277
28803SOL    HW188248   4.233  11.729   4.350
28803SOL    HW288249   4.172  11.723   4.212
28804SOL     OW88250  11.226   6.922  14.710
28804SOL    HW188251  11.146   6.932  14.761
28804SOL    HW288252  11.285   6.873  14.767
28805SOL     OW88253  12.452  14.513  10.103
28805SOL    HW188254  12.491  14.444  10.048
28805SOL    HW288255  12.359  14.513  10.078
28806SOL     OW88256   5.980  13.196   8.611
28806SOL    HW188257   5.958  13.200   8.518
28806SOL    HW288258   6.067  13.157   8.613
28807SOL     OW88259  14.621   3.424   6.342
28807SOL    HW188260  14.673   3.494   6.380
28807SOL    HW288261  14.683   3.353   6.327
28808SOL     OW88262   3.756   4.527  12.500
28808SOL    HW188263   3.697   4.570  12.561
28808SOL    HW288264   3.748   4.434  12.520
28809SOL     OW88265  13.444   5.753  10.540
28809SOL    HW188266  13.448   5.660  10.519
28809SOL    HW288267  13.507   5.764  10.612
28810SOL     OW88268   5.979  13.540  14.504
28810SOL    HW188269   5.884  13.538  14.497
28810SOL    HW288270   6.010  13.562  14.416
28811SOL     OW88271   2.586  12.733  12.113
28811SOL    HW188272   2.666  12.759  12.157
28811SOL    HW288273   2.607  12.736  12.020
28812SOL     OW88274   8.350   5.478   3.584
28812SOL    HW188275   8.435   5.507   3.619
28812SOL    HW288276   8.292   5.553   3.597
28813SOL     OW88277  13.040   8.014  12.418
28813SOL    HW188278  13.094   8.064  12.479
28813SOL    HW288279  13.065   8.045  12.331
28814SOL     OW88280   8.350  10.554   6.689
28814SOL    HW188281   8.325  10.546   6.597
28814SOL    HW288282   8.442  10.525   6.692
28815SOL     OW88283   3.310  11.100  14.552
28815SOL    HW188284   3.390  11.151  14.539
28815SOL    HW288285   3.248  11.162  14.591
28816SOL     OW88286  10.169   9.361   2.535
28816SOL    HW188287  10.106   9.389   2.469
28816SOL    HW288288  10.251   9.352   2.488
28817SOL     OW88289  12.466  10.807   5.626
28817SOL    HW188290  12.436  10.892   5.659
28817SOL    HW288291  12.484  10.756   5.705
28818SOL     OW88292   7.515   7.675  13.714
28818SOL    HW188293   7.605   7.682  13.680
28818SOL    HW288294   7.467   7.630  13.644
28819SOL     OW88295   0.454  12.870   9.748
28819SOL    HW188296   0.509  12.861   9.827
28819SOL    HW288297   0.410  12.954   9.760
28820SOL     OW88298   0.408   6.966   0.426
28820SOL    HW188299   0.438   6.894   0.482
28820SOL    HW288300   0.320   6.940   0.399
28821SOL     OW88301   6.507   3.023   7.820
28821SOL    HW188302   6.540   2.947   7.868
28821SOL    HW288303   6.525   3.097   7.878
28822SOL     OW88304   7.979   0.324  14.844
28822SOL    HW188305   8.068   0.320  14.808
28822SOL    HW288306   7.976   0.254   0.035
28823SOL     OW88307  10.553   6.933  14.410
28823SOL    HW188308  10.597   7.018  14.405
28823SOL    HW288309  10.518   6.929  14.499
28824SOL     OW88310   6.018  11.788  12.810
28824SOL    HW188311   6.091  11.813  12.755
28824SOL    HW288312   5.983  11.872  12.842
28825SOL     OW88313   2.276  10.333  14.276
28825SOL    HW188314   2.245  10.250  14.238
28825SOL    HW288315   2.354  10.309  14.326
28826SOL     OW88316   6.979   0.565   4.333
28826SOL    HW188317   6.992   0.471   4.345
28826SOL    HW288318   6.982   0.601   4.422
28827SOL     OW88319   6.011   2.727   4.777
28827SOL    HW188320   6.067   2.775   4.715
28827SOL    HW288321   5.947   2.792   4.805
28828SOL     OW88322   2.702  10.644  13.408
28828SOL    HW188323   2.617  10.679  13.382
28828SOL    HW288324   2.765  10.695  13.357
28829SOL     OW88325   6.671  10.516  10.978
28829SOL    HW188326   6.702  10.455  10.911
28829SOL    HW288327   6.625  10.584  10.929
28830SOL     OW88328   8.334  13.495   2.556
28830SOL    HW188329   8.309  13.585   2.573
28830SOL    HW288330   8.407  13.478   2.616
28831SOL     OW88331   9.193   5.107   2.484
28831SOL    HW188332   9.144   5.039   2.437
28831SOL    HW288333   9.266   5.060   2.524
28832SOL     OW88334   8.774  10.063   3.242
28832SOL    HW188335   8.681  10.041   3.234
28832SOL    HW288336   8.810   9.990   3.293
28833SOL     OW88337   6.312   7.373   7.781
28833SOL    HW188338   6.280   7.460   7.803
28833SOL    HW288339   6.323   7.374   7.686
28834SOL     OW88340   4.085  10.700   7.920
28834SOL    HW188341   4.157  10.638   7.906
28834SOL    HW288342   4.043  10.670   8.001
28835SOL     OW88343   2.718   3.053  14.613
28835SOL    HW188344   2.648   3.045  14.548
28835SOL    HW288345   2.792   3.088  14.564
28836SOL     OW88346  13.842   4.864  12.812
28836SOL    HW188347  13.864   4.897  12.898
28836SOL    HW288348  13.848   4.769  12.820
28837SOL     OW88349  11.951  13.867  14.803
28837SOL    HW188350  11.990  13.950  14.830
28837SOL    HW288351  12.006  13.836  14.731
28838SOL     OW88352   6.944  13.666   5.679
28838SOL    HW188353   7.012  13.645   5.743
28838SOL    HW288354   6.964  13.608   5.605
28839SOL     OW88355   8.091  10.959   1.816
28839SOL    HW188356   8.059  10.955   1.726
28839SOL    HW288357   8.181  10.990   1.807
28840SOL     OW88358  12.071   2.302   5.583
28840SOL    HW188359  12.101   2.333   5.668
28840SOL    HW288360  12.143   2.321   5.523
28841SOL     OW88361   5.686   4.359   6.252
28841SOL    HW188362   5.615   4.334   6.192
28841SOL    HW288363   5.680   4.296   6.323
28842SOL     OW88364   9.160   4.831   7.884
28842SOL    HW188365   9.255   4.828   7.873
28842SOL    HW288366   9.125   4.786   7.808
28843SOL     OW88367   7.314   9.747  14.408
28843SOL    HW188368   7.279   9.792  14.332
28843SOL    HW288369   7.242   9.691  14.438
28844SOL     OW88370   4.134   4.260  11.369
28844SOL    HW188371   4.205   4.222  11.420
28844SOL    HW288372   4.067   4.192  11.365
28845SOL     OW88373   7.759   3.172   2.770
28845SOL    HW188374   7.679   3.174   2.718
28845SOL    HW288375   7.746   3.238   2.837
28846SOL     OW88376   8.978  14.854   3.903
28846SOL    HW188377   9.055  14.797   3.905
28846SOL    HW288378   8.909  14.803   3.946
28847SOL     OW88379   4.621  12.312  13.768
28847SOL    HW188380   4.656  12.363  13.842
28847SOL    HW288381   4.694  12.257  13.741
28848SOL     OW88382   1.282  14.026   3.114
28848SOL    HW188383   1.217  13.976   3.065
28848SOL    HW288384   1.307  14.098   3.055
28849SOL     OW88385   6.762  13.056  11.632
28849SOL    HW188386   6.811  12.985  11.592
28849SOL    HW288387   6.727  13.019  11.713
28850SOL     OW88388  13.448   5.296   3.981
28850SOL    HW188389  13.463   5.232   3.911
28850SOL    HW288390  13.526   5.350   3.982
28851SOL     OW88391   8.285   1.616   2.028
28851SOL    HW188392   8.308   1.527   2.002
28851SOL    HW288393   8.213   1.640   1.971
28852SOL     OW88394  10.260  14.084   5.508
28852SOL    HW188395  10.204  14.037   5.570
28852SOL    HW288396  10.199  14.135   5.455
28853SOL     OW88397  13.771  11.227  10.047
28853SOL    HW188398  13.845  11.168  10.037
28853SOL    HW288399  13.723  11.221   9.964
28854SOL     OW88400   7.087  10.053  10.603
28854SOL    HW188401   7.009  10.025  10.556
28854SOL    HW288402   7.056  10.123  10.660
28855SOL     OW88403  11.978   3.248   4.464
28855SOL    HW188404  12.022   3.170   4.430
28855SOL    HW288405  12.049   3.311   4.477
28856SOL     OW88406   6.533  12.456   9.980
28856SOL    HW188407   6.613  12.478  10.027
28856SOL    HW288408   6.548  12.368   9.947
28857SOL     OW88409   8.431   7.826   9.867
28857SOL    HW188410   8.372   7.892   9.903
28857SOL    HW288411   8.433   7.844   9.773
28858SOL     OW88412   0.112  11.528  13.231
28858SOL    HW188413   0.192  11.479  13.251
28858SOL    HW288414   0.041  11.476  13.270
28859SOL     OW88415  10.878  14.464  10.089
28859SOL    HW188416  10.958  14.508  10.062
28859SOL    HW288417  10.816  14.483  10.018
28860SOL     OW88418   9.586   9.895   3.351
28860SOL    HW188419   9.664   9.877   3.404
28860SOL    HW288420   9.545   9.970   3.394
28861SOL     OW88421  14.003   6.148   5.081
28861SOL    HW188422  14.075   6.096   5.047
28861SOL    HW288423  14.031   6.173   5.170
28862SOL     OW88424   0.280   8.147   4.032
28862SOL    HW188425   0.308   8.131   4.123
28862SOL    HW288426   0.340   8.095   3.979
28863SOL     OW88427   6.697  12.855   3.133
28863SOL    HW188428   6.787  12.822   3.122
28863SOL    HW288429   6.671  12.882   3.045
28864SOL     OW88430   0.843  10.061  10.246
28864SOL    HW188431   0.906  10.094  10.311
28864SOL    HW288432   0.799   9.988  10.290
28865SOL     OW88433   7.645  11.116   6.725
28865SOL    HW188434   7.651  11.207   6.754
28865SOL    HW288435   7.688  11.115   6.639
28866SOL     OW88436  13.900  10.499   2.619
28866SOL    HW188437  13.976  10.556   2.629
28866SOL    HW288438  13.881  10.469   2.708
28867SOL     OW88439   1.807   4.610   5.080
28867SOL    HW188440   1.748   4.667   5.030
28867SOL    HW288441   1.835   4.664   5.154
28868SOL     OW88442  11.781   5.230   7.169
28868SOL    HW188443  11.718   5.227   7.241
28868SOL    HW288444  11.771   5.317   7.131
28869SOL     OW88445   7.973   8.006  14.373
28869SOL    HW188446   7.964   7.925  14.424
28869SOL    HW288447   7.883   8.039  14.365
28870SOL     OW88448   7.515  13.307   5.567
28870SOL    HW188449   7.530  13.214   5.587
28870SOL    HW288450   7.436  13.329   5.616
28871SOL     OW88451   2.549  10.191   0.364
28871SOL    HW188452   2.490  10.163   0.294
28871SOL    HW288453   2.634  10.199   0.321
28872SOL     OW88454   5.866  14.643  10.597
28872SOL    HW188455   5.898  14.665  10.509
28872SOL    HW288456   5.840  14.552  10.591
28873SOL     OW88457   1.300   7.090  10.827
28873SOL    HW188458   1.375   7.051  10.871
28873SOL    HW288459   1.312   7.184  10.838
28874SOL     OW88460   8.487   9.842  12.556
28874SOL    HW188461   8.484   9.766  12.614
28874SOL    HW288462   8.435   9.818  12.480
28875SOL     OW88463  11.294  12.847   8.002
28875SOL    HW188464  11.209  12.809   8.023
28875SOL    HW288465  11.349  12.772   7.980
28876SOL     OW88466   5.776   4.184  14.761
28876SOL    HW188467   5.843   4.223  14.704
28876SOL    HW288468   5.727   4.125  14.704
28877SOL     OW88469   7.377  10.560   3.784
28877SOL    HW188470   7.465  10.528   3.802
28877SOL    HW288471   7.378  10.652   3.813
28878SOL     OW88472   3.990   5.817  13.567
28878SOL    HW188473   4.029   5.900  13.593
28878SOL    HW288474   4.014   5.806  13.475
28879SOL     OW88475   1.846   8.815   3.131
28879SOL    HW188476   1.882   8.799   3.219
28879SOL    HW288477   1.752   8.829   3.146
28880SOL     OW88478   2.750   3.843  14.232
28880SOL    HW188479   2.763   3.911  14.297
28880SOL    HW288480   2.655   3.829  14.231
28881SOL     OW88481   0.417  10.925  12.706
28881SOL    HW188482   0.446  10.963  12.623
28881SOL    HW288483   0.399  11.002  12.761
28882SOL     OW88484   7.807  11.834   0.094
28882SOL    HW188485   7.834  11.900   0.158
28882SOL    HW288486   7.846  11.753   0.124
28883SOL     OW88487   3.446   4.510   1.436
28883SOL    HW188488   3.399   4.431   1.462
28883SOL    HW288489   3.488   4.540   1.517
28884SOL     OW88490   0.954  13.793   6.750
28884SOL    HW188491   0.872  13.823   6.789
28884SOL    HW288492   1.014  13.785   6.825
28885SOL     OW88493  14.127  11.897  13.100
28885SOL    HW188494  14.076  11.885  13.181
28885SOL    HW288495  14.108  11.818  13.049
28886SOL     OW88496  14.520   5.210   3.650
28886SOL    HW188497  14.553   5.180   3.734
28886SOL    HW288498  14.598   5.234   3.600
28887SOL     OW88499   3.575   0.523  13.526
28887SOL    HW188500   3.529   0.576  13.461
28887SOL    HW288501   3.506   0.492  13.585
28888SOL     OW88502   7.010   6.097   4.615
28888SOL    HW188503   7.078   6.164   4.609
28888SOL    HW288504   7.058   6.015   4.621
28889SOL     OW88505   6.199   6.380  11.533
28889SOL    HW188506   6.149   6.459  11.513
28889SOL    HW288507   6.288   6.412  11.550
28890SOL     OW88508   3.669   0.324   7.154
28890SOL    HW188509   3.592   0.381   7.164
28890SOL    HW288510   3.737   0.366   7.207
28891SOL     OW88511  11.748   1.388   2.399
28891SOL    HW188512  11.761   1.476   2.365
28891SOL    HW288513  11.706   1.401   2.484
28892SOL     OW88514   4.803   4.707   9.652
28892SOL    HW188515   4.802   4.640   9.584
28892SOL    HW288516   4.762   4.665   9.727
28893SOL     OW88517  11.345  13.091  13.126
28893SOL    HW188518  11.374  13.000  13.125
28893SOL    HW288519  11.389  13.131  13.051
28894SOL     OW88520   5.726   8.959  14.414
28894SOL    HW188521   5.669   9.003  14.351
28894SOL    HW288522   5.814   8.977  14.382
28895SOL     OW88523  10.085  10.138   6.836
28895SOL    HW188524  10.152  10.206   6.841
28895SOL    HW288525  10.119  10.067   6.891
28896SOL     OW88526   0.126  13.678   0.855
28896SOL    HW188527   0.181  13.717   0.923
28896SOL    HW288528   0.183  13.615   0.812
28897SOL     OW88529   9.599  14.570   3.694
28897SOL    HW188530   9.627  14.574   3.785
28897SOL    HW288531   9.674  14.606   3.645
28898SOL     OW88532   1.803   8.525   6.390
28898SOL    HW188533   1.816   8.554   6.300
28898SOL    HW288534   1.775   8.434   6.383
28899SOL     OW88535   3.076   5.154   4.857
28899SOL    HW188536   3.144   5.120   4.915
28899SOL    HW288537   3.014   5.198   4.916
28900SOL     OW88538   4.189  11.258   7.199
28900SOL    HW188539   4.122  11.197   7.228
28900SOL    HW288540   4.214  11.228   7.111
28901SOL     OW88541  10.025   8.748  13.987
28901SOL    HW188542   9.957   8.701  13.939
28901SOL    HW288543  10.107   8.721  13.945
28902SOL     OW88544  13.102   1.746   8.961
28902SOL    HW188545  13.099   1.654   8.936
28902SOL    HW288546  13.099   1.794   8.878
28903SOL     OW88547   9.849  12.954   0.890
28903SOL    HW188548   9.767  12.910   0.913
28903SOL    HW288549   9.906  12.883   0.860
28904SOL     OW88550  12.432  10.705   3.734
28904SOL    HW188551  12.373  10.632   3.713
28904SOL    HW288552  12.390  10.749   3.808
28905SOL     OW88553  12.405   5.114   9.140
28905SOL    HW188554  12.356   5.195   9.145
28905SOL    HW288555  12.493   5.137   9.170
28906SOL     OW88556   8.322  14.290   2.354
28906SOL    HW188557   8.288  14.360   2.298
28906SOL    HW288558   8.329  14.214   2.296
28907SOL     OW88559  13.187   2.825   2.845
28907SOL    HW188560  13.263   2.772   2.872
28907SOL    HW288561  13.203   2.842   2.752
28908SOL     OW88562   1.831  11.890   8.479
28908SOL    HW188563   1.883  11.900   8.559
28908SOL    HW288564   1.895  11.869   8.411
28909SOL     OW88565   6.761   0.812   2.653
28909SOL    HW188566   6.712   0.881   2.697
28909SOL    HW288567   6.703   0.736   2.654
28910SOL     OW88568  10.805   6.961   1.261
28910SOL    HW188569  10.836   6.875   1.233
28910SOL    HW288570  10.799   7.012   1.181
28911SOL     OW88571   6.487   5.482   5.379
28911SOL    HW188572   6.549   5.471   5.307
28911SOL    HW288573   6.402   5.494   5.336
28912SOL     OW88574   1.814   9.931   3.963
28912SOL    HW188575   1.815   9.884   3.880
28912SOL    HW288576   1.906   9.937   3.989
28913SOL     OW88577   0.136   7.933  13.988
28913SOL    HW188578   0.209   7.938  14.050
28913SOL    HW288579   0.060   7.913  14.042
28914SOL     OW88580   9.410   3.279  11.681
28914SOL    HW188581   9.430   3.373  11.686
28914SOL    HW288582   9.345   3.273  11.611
28915SOL     OW88583   4.616   3.504   0.402
28915SOL    HW188584   4.697   3.532   0.359
28915SOL    HW288585   4.628   3.527   0.494
28916SOL     OW88586   4.398   3.858  11.506
28916SOL    HW188587   4.408   3.788  11.570
28916SOL    HW288588   4.454   3.833  11.433
28917SOL     OW88589   1.935   1.839  13.246
28917SOL    HW188590   2.027   1.816  13.232
28917SOL    HW288591   1.936   1.898  13.322
28918SOL     OW88592   4.954  10.024   0.196
28918SOL    HW188593   5.046  10.041   0.174
28918SOL    HW288594   4.957   9.948   0.255
28919SOL     OW88595   5.268  10.723   1.217
28919SOL    HW188596   5.264  10.716   1.122
28919SOL    HW288597   5.225  10.643   1.249
28920SOL     OW88598  14.569   9.965   2.473
28920SOL    HW188599  14.642   9.976   2.413
28920SOL    HW288600  14.530  10.052   2.480
28921SOL     OW88601   7.652  12.721   0.436
28921SOL    HW188602   7.726  12.701   0.493
28921SOL    HW288603   7.575  12.706   0.491
28922SOL     OW88604  10.082  10.709   0.373
28922SOL    HW188605  10.080  10.740   0.282
28922SOL    HW288606   9.990  10.705   0.399
28923SOL     OW88607   1.777  10.562   2.465
28923SOL    HW188608   1.866  10.529   2.451
28923SOL    HW288609   1.780  10.653   2.436
28924SOL     OW88610  10.488   1.444   4.076
28924SOL    HW188611  10.492   1.455   3.981
28924SOL    HW288612  10.535   1.362   4.092
28925SOL     OW88613   7.002  12.453  10.696
28925SOL    HW188614   7.015  12.425  10.606
28925SOL    HW288615   7.063  12.526  10.707
28926SOL     OW88616   8.800  12.758   6.830
28926SOL    HW188617   8.774  12.740   6.740
28926SOL    HW288618   8.744  12.700   6.883
28927SOL     OW88619  13.082   5.477  13.993
28927SOL    HW188620  13.158   5.511  14.040
28927SOL    HW288621  13.010   5.534  14.021
28928SOL     OW88622  10.537  14.323   0.563
28928SOL    HW188623  10.611  14.382   0.569
28928SOL    HW288624  10.460  14.380   0.566
28929SOL     OW88625   1.177   9.459   3.350
28929SOL    HW188626   1.172   9.460   3.255
28929SOL    HW288627   1.227   9.380   3.371
28930SOL     OW88628  11.788  13.811  11.245
28930SOL    HW188629  11.714  13.768  11.202
28930SOL    HW288630  11.854  13.742  11.252
28931SOL     OW88631   6.155  11.290   3.333
28931SOL    HW188632   6.169  11.355   3.264
28931SOL    HW288633   6.240  11.247   3.342
28932SOL     OW88634   6.056   7.340  12.248
28932SOL    HW188635   6.031   7.423  12.288
28932SOL    HW288636   6.111   7.364  12.174
28933SOL     OW88637   4.018   9.415   7.556
28933SOL    HW188638   4.106   9.453   7.550
28933SOL    HW288639   3.969   9.455   7.484
28934SOL     OW88640  11.814   9.827   5.717
28934SOL    HW188641  11.776   9.833   5.804
28934SOL    HW288642  11.743   9.848   5.657
28935SOL     OW88643  12.128   2.616  13.289
28935SOL    HW188644  12.199   2.623  13.225
28935SOL    HW288645  12.048   2.618  13.236
28936SOL     OW88646   2.378   8.961  12.696
28936SOL    HW188647   2.360   8.876  12.655
28936SOL    HW288648   2.293   8.989  12.730
28937SOL     OW88649   9.786   7.612  12.330
28937SOL    HW188650   9.821   7.696  12.300
28937SOL    HW288651   9.836   7.593  12.410
28938SOL     OW88652  11.447   0.317  13.941
28938SOL    HW188653  11.518   0.379  13.956
28938SOL    HW288654  11.452   0.297  13.847
28939SOL     OW88655  13.629  14.412   7.427
28939SOL    HW188656  13.695  14.343   7.435
28939SOL    HW288657  13.652  14.457   7.346
28940SOL     OW88658  11.594   1.772  12.832
28940SOL    HW188659  11.661   1.826  12.790
28940SOL    HW288660  11.530   1.754  12.763
28941SOL     OW88661   0.065   7.224  12.056
28941SOL    HW188662   0.098   7.255  12.141
28941SOL    HW288663  14.844   7.223  12.067
28942SOL     OW88664  14.270   4.949   5.355
28942SOL    HW188665  14.279   4.909   5.269
28942SOL    HW288666  14.175   4.956   5.368
28943SOL     OW88667   3.258   4.282   1.477
28943SOL    HW188668   3.198   4.208   1.473
28943SOL    HW288669   3.271   4.297   1.571
28944SOL     OW88670   6.331  10.268   2.465
28944SOL    HW188671   6.279  10.305   2.393
28944SOL    HW288672   6.408  10.325   2.469
28945SOL     OW88673  14.855  13.043   0.970
28945SOL    HW188674  14.845  13.120   0.914
28945SOL    HW288675   0.074  13.042   0.993
28946SOL     OW88676   1.618   4.846  12.991
28946SOL    HW188677   1.588   4.761  12.958
28946SOL    HW288678   1.588   4.909  12.927
28947SOL     OW88679   9.167   0.055   7.674
28947SOL    HW188680   9.136   0.136   7.633
28947SOL    HW288681   9.184   0.080   7.765
28948SOL     OW88682  12.807   0.112  14.240
28948SOL    HW188683  12.773   0.028  14.209
28948SOL    HW288684  12.890   0.090  14.282
28949SOL     OW88685   0.125   5.959   6.103
28949SOL    HW188686   0.101   6.035   6.156
28949SOL    HW288687   0.214   5.977   6.074
28950SOL     OW88688  14.007  12.846   7.185
28950SOL    HW188689  13.972  12.927   7.224
28950SOL    HW288690  14.099  12.844   7.212
28951SOL     OW88691   2.564   5.151  14.240
28951SOL    HW188692   2.581   5.108  14.324
28951SOL    HW288693   2.643   5.137  14.189
28952SOL     OW88694   1.118  13.962   8.837
28952SOL    HW188695   1.031  13.972   8.876
28952SOL    HW288696   1.101  13.962   8.742
28953SOL     OW88697  10.746   3.263   3.034
28953SOL    HW188698  10.715   3.285   2.946
28953SOL    HW288699  10.827   3.313   3.043
28954SOL     OW88700   2.905   5.692  11.234
28954SOL    HW188701   2.850   5.638  11.177
28954SOL    HW288702   2.916   5.640  11.313
28955SOL     OW88703  12.190  13.405  11.975
28955SOL    HW188704  12.145  13.329  11.939
28955SOL    HW288705  12.238  13.442  11.901
28956SOL     OW88706   0.091   5.422  10.567
28956SOL    HW188707   0.050   5.484  10.626
28956SOL    HW288708   0.177   5.460  10.548
28957SOL     OW88709  11.311  10.432  12.426
28957SOL    HW188710  11.366  10.448  12.349
28957SOL    HW288711  11.370  10.394  12.491
28958SOL     OW88712   2.149   6.833  14.242
28958SOL    HW188713   2.133   6.856  14.150
28958SOL    HW288714   2.177   6.741  14.239
28959SOL     OW88715   4.503   8.490  10.492
28959SOL    HW188716   4.422   8.530  10.524
28959SOL    HW288717   4.477   8.440  10.415
28960SOL     OW88718   5.874   7.679   8.686
28960SOL    HW188719   5.874   7.584   8.695
28960SOL    HW288720   5.967   7.702   8.682
28961SOL     OW88721   2.830   0.010   4.199
28961SOL    HW188722   2.765  14.856   4.262
28961SOL    HW288723   2.851  14.805   4.149
28962SOL     OW88724  10.178  14.459   2.362
28962SOL    HW188725  10.168  14.504   2.446
28962SOL    HW288726  10.088  14.445   2.332
28963SOL     OW88727   2.464  13.681   0.162
28963SOL    HW188728   2.486  13.762   0.117
28963SOL    HW288729   2.444  13.619   0.092
28964SOL     OW88730   1.227   2.002  13.986
28964SOL    HW188731   1.247   1.917  13.947
28964SOL    HW288732   1.309   2.030  14.026
28965SOL     OW88733   6.880   6.295   1.860
28965SOL    HW188734   6.799   6.248   1.883
28965SOL    HW288735   6.852   6.386   1.848
28966SOL     OW88736   9.773   1.819  10.028
28966SOL    HW188737   9.801   1.872   9.953
28966SOL    HW288738   9.757   1.732   9.992
28967SOL     OW88739  14.342  14.458  12.175
28967SOL    HW188740  14.313  14.368  12.156
28967SOL    HW288741  14.429  14.448  12.214
28968SOL     OW88742   2.829   1.229   5.018
28968SOL    HW188743   2.893   1.235   5.089
28968SOL    HW288744   2.855   1.298   4.957
28969SOL     OW88745   5.775   5.987  12.495
28969SOL    HW188746   5.854   6.033  12.525
28969SOL    HW288747   5.719   5.983  12.572
28970SOL     OW88748   9.071   0.930   6.270
28970SOL    HW188749   9.106   0.979   6.344
28970SOL    HW288750   9.143   0.924   6.208
28971SOL     OW88751   3.033  14.173   6.245
28971SOL    HW188752   2.981  14.093   6.239
28971SOL    HW288753   2.974  14.236   6.285
28972SOL     OW88754  12.730   3.620   2.458
28972SOL    HW188755  12.681   3.697   2.429
28972SOL    HW288756  12.676   3.582   2.527
28973SOL     OW88757   7.474   0.158   4.161
28973SOL    HW188758   7.396   0.171   4.106
28973SOL    HW288759   7.453   0.201   4.243
28974SOL     OW88760  10.781   1.290  13.281
28974SOL    HW188761  10.824   1.298  13.366
28974SOL    HW288762  10.689   1.313  13.299
28975SOL     OW88763  13.001  14.613   2.953
28975SOL    HW188764  13.029  14.525   2.929
28975SOL    HW288765  13.082  14.664   2.959
28976SOL     OW88766   8.226  10.021   3.880
28976SOL    HW188767   8.132  10.018   3.901
28976SOL    HW288768   8.246   9.932   3.851
28977SOL     OW88769   5.174   6.688  11.243
28977SOL    HW188770   5.177   6.758  11.308
28977SOL    HW288771   5.125   6.617  11.286
28978SOL     OW88772  14.759  13.127   4.269
28978SOL    HW188773  14.716  13.110   4.353
28978SOL    HW288774  14.698  13.183   4.221
28979SOL     OW88775   4.229  11.630   0.307
28979SOL    HW188776   4.151  11.602   0.258
28979SOL    HW288777   4.196  11.679   0.381
28980SOL     OW88778  12.282  14.181  10.043
28980SOL    HW188779  12.236  14.192  10.126
28980SOL    HW288780  12.373  14.201  10.063
28981SOL     OW88781   9.529   1.412   7.795
28981SOL    HW188782   9.525   1.329   7.747
28981SOL    HW288783   9.581   1.393   7.873
28982SOL     OW88784  12.248   5.359   9.113
28982SOL    HW188785  12.242   5.441   9.064
28982SOL    HW288786  12.241   5.385   9.205
28983SOL     OW88787  11.789  12.282   8.899
28983SOL    HW188788  11.835  12.239   8.827
28983SOL    HW288789  11.786  12.374   8.874
28984SOL     OW88790   1.111   6.584   3.246
28984SOL    HW188791   1.033   6.580   3.190
28984SOL    HW288792   1.079   6.563   3.334
28985SOL     OW88793  14.479  14.216   3.765
28985SOL    HW188794  14.458  14.141   3.708
28985SOL    HW288795  14.409  14.279   3.749
28986SOL     OW88796   1.211  11.467  13.413
28986SOL    HW188797   1.284  11.526  13.396
28986SOL    HW288798   1.184  11.437  13.327
28987SOL     OW88799   0.219  12.423  13.575
28987SOL    HW188800   0.311  12.450  13.588
28987SOL    HW288801   0.169  12.504  13.585
28988SOL     OW88802  11.510   7.063   0.815
28988SOL    HW188803  11.425   7.051   0.772
28988SOL    HW288804  11.557   7.123   0.757
28989SOL     OW88805   6.800  14.776  12.806
28989SOL    HW188806   6.825  14.811  12.720
28989SOL    HW288807   6.873  14.800  12.863
28990SOL     OW88808   8.195  14.107  10.235
28990SOL    HW188809   8.168  14.180  10.290
28990SOL    HW288810   8.115  14.079  10.190
28991SOL     OW88811   8.590   0.606   6.702
28991SOL    HW188812   8.678   0.612   6.665
28991SOL    HW288813   8.537   0.569   6.631
28992SOL     OW88814   5.464   3.446  13.515
28992SOL    HW188815   5.479   3.522  13.459
28992SOL    HW288816   5.418   3.482  13.591
28993SOL     OW88817  11.408   3.175   7.849
28993SOL    HW188818  11.436   3.126   7.772
28993SOL    HW288819  11.483   3.232   7.870
28994SOL     OW88820  14.767   6.837   4.618
28994SOL    HW188821  14.690   6.832   4.562
28994SOL    HW288822  14.745   6.902   4.684
28995SOL     OW88823   3.375  13.804   0.003
28995SOL    HW188824   3.323  13.802   0.084
28995SOL    HW288825   3.310  13.805  14.807
28996SOL     OW88826  14.087  14.325   6.793
28996SOL    HW188827  14.035  14.342   6.714
28996SOL    HW288828  14.024  14.289   6.855
28997SOL     OW88829   6.132   2.988   1.595
28997SOL    HW188830   6.164   2.937   1.670
28997SOL    HW288831   6.103   2.922   1.532
28998SOL     OW88832   7.897   3.870   8.504
28998SOL    HW188833   7.837   3.941   8.525
28998SOL    HW288834   7.841   3.793   8.495
28999SOL     OW88835   0.778   5.651   4.592
28999SOL    HW188836   0.683   5.650   4.599
28999SOL    HW288837   0.795   5.642   4.498
29000SOL     OW88838  13.236  12.172   3.771
29000SOL    HW188839  13.212  12.167   3.863
29000SOL    HW288840  13.332  12.174   3.772
29001SOL     OW88841  10.222  13.772   9.887
29001SOL    HW188842  10.133  13.782   9.855
29001SOL    HW288843  10.221  13.688   9.933
29002SOL     OW88844   1.019   1.990  13.669
29002SOL    HW188845   0.944   1.978  13.611
29002SOL    HW288846   1.086   2.030  13.614
29003SOL     OW88847  12.741  11.256  10.839
29003SOL    HW188848  12.712  11.259  10.748
29003SOL    HW288849  12.697  11.181  10.877
29004SOL     OW88850   6.581  11.143   2.054
29004SOL    HW188851   6.648  11.211   2.056
29004SOL    HW288852   6.601  11.092   1.976
29005SOL     OW88853   4.415   8.242   7.544
29005SOL    HW188854   4.425   8.171   7.606
29005SOL    HW288855   4.344   8.215   7.486
29006SOL     OW88856   9.126   6.989   9.051
29006SOL    HW188857   9.154   6.968   8.961
29006SOL    HW288858   9.031   6.991   9.046
29007SOL     OW88859   9.679   3.371   0.118
29007SOL    HW188860   9.656   3.455   0.157
29007SOL    HW288861   9.689   3.312   0.192
29008SOL     OW88862  10.323   5.790   5.947
29008SOL    HW188863  10.259   5.770   6.014
29008SOL    HW288864  10.274   5.838   5.880
29009SOL     OW88865  13.879   2.669  13.127
29009SOL    HW188866  13.862   2.590  13.075
29009SOL    HW288867  13.863   2.642  13.218
29010SOL     OW88868   1.271   2.545  12.508
29010SOL    HW188869   1.365   2.540  12.524
29010SOL    HW288870   1.257   2.632  12.471
29011SOL     OW88871   1.315   2.464   8.729
29011SOL    HW188872   1.393   2.409   8.734
29011SOL    HW288873   1.308   2.487   8.636
29012SOL     OW88874  12.792   6.624   1.758
29012SOL    HW188875  12.873   6.627   1.808
29012SOL    HW288876  12.765   6.716   1.750
29013SOL     OW88877   5.151  13.806   8.852
29013SOL    HW188878   5.079  13.781   8.794
29013SOL    HW288879   5.178  13.724   8.893
29014SOL     OW88880  14.655   5.451   8.281
29014SOL    HW188881  14.604   5.371   8.269
29014SOL    HW288882  14.732   5.424   8.331
29015SOL     OW88883   0.539  13.374   8.923
29015SOL    HW188884   0.617  13.326   8.951
29015SOL    HW288885   0.496  13.400   9.005
29016SOL     OW88886   4.899  10.865  13.385
29016SOL    HW188887   4.848  10.945  13.372
29016SOL    HW288888   4.954  10.858  13.308
29017SOL     OW88889   3.042   8.701   8.691
29017SOL    HW188890   2.955   8.723   8.656
29017SOL    HW288891   3.094   8.779   8.675
29018SOL     OW88892   2.457   8.096   6.261
29018SOL    HW188893   2.474   8.111   6.354
29018SOL    HW288894   2.438   8.184   6.227
29019SOL     OW88895   7.233   1.644   6.855
29019SOL    HW188896   7.316   1.681   6.824
29019SOL    HW288897   7.255   1.604   6.939
29020SOL     OW88898   8.127   2.683  13.883
29020SOL    HW188899   8.197   2.640  13.834
29020SOL    HW288900   8.050   2.675  13.826
29021SOL     OW88901  11.155   8.316   0.894
29021SOL    HW188902  11.224   8.254   0.872
29021SOL    HW288903  11.077   8.281   0.851
29022SOL     OW88904  14.477   5.397  12.312
29022SOL    HW188905  14.508   5.317  12.356
29022SOL    HW288906  14.524   5.468  12.355
29023SOL     OW88907   1.401   9.196   9.050
29023SOL    HW188908   1.413   9.232   8.962
29023SOL    HW288909   1.445   9.259   9.108
29024SOL     OW88910   7.937   3.451  11.677
29024SOL    HW188911   7.902   3.424  11.762
29024SOL    HW288912   7.998   3.522  11.697
29025SOL     OW88913   9.420   7.016  11.293
29025SOL    HW188914   9.438   6.930  11.255
29025SOL    HW288915   9.371   7.062  11.225
29026SOL     OW88916   2.725   9.037   6.906
29026SOL    HW188917   2.778   8.964   6.874
29026SOL    HW288918   2.756   9.113   6.856
29027SOL     OW88919   8.445   0.848   0.660
29027SOL    HW188920   8.511   0.853   0.591
29027SOL    HW288921   8.432   0.939   0.686
29028SOL     OW88922   3.068   7.921   5.923
29028SOL    HW188923   3.129   7.875   5.979
29028SOL    HW288924   2.983   7.879   5.939
29029SOL     OW88925  10.774  10.530  13.871
29029SOL    HW188926  10.732  10.509  13.954
29029SOL    HW288927  10.702  10.537  13.809
29030SOL     OW88928   1.906   1.287  10.385
29030SOL    HW188929   1.903   1.340  10.306
29030SOL    HW288930   1.990   1.240  10.379
29031SOL     OW88931  10.761   4.308   5.647
29031SOL    HW188932  10.819   4.294   5.573
29031SOL    HW288933  10.704   4.231   5.648
29032SOL     OW88934   0.865   7.325   7.889
29032SOL    HW188935   0.931   7.311   7.821
29032SOL    HW288936   0.888   7.408   7.930
29033SOL     OW88937   4.319   3.670  12.370
29033SOL    HW188938   4.258   3.642  12.303
29033SOL    HW288939   4.294   3.620  12.448
29034SOL     OW88940  13.049   7.666  14.417
29034SOL    HW188941  12.965   7.622  14.428
29034SOL    HW288942  13.027   7.756  14.392
29035SOL     OW88943  11.138   4.922   7.230
29035SOL    HW188944  11.080   4.898   7.158
29035SOL    HW288945  11.196   4.989   7.192
29036SOL     OW88946   1.666   9.722   6.098
29036SOL    HW188947   1.750   9.688   6.067
29036SOL    HW288948   1.690   9.779   6.172
29037SOL     OW88949   0.472   7.004   4.115
29037SOL    HW188950   0.474   6.909   4.101
29037SOL    HW288951   0.391   7.019   4.163
29038SOL     OW88952   5.267   8.807  14.400
29038SOL    HW188953   5.323   8.779  14.472
29038SOL    HW288954   5.208   8.733  14.384
29039SOL     OW88955   1.742   0.359   2.251
29039SOL    HW188956   1.647   0.355   2.238
29039SOL    HW288957   1.779   0.322   2.171
29040SOL     OW88958   4.136   1.152  14.525
29040SOL    HW188959   4.051   1.112  14.508
29040SOL    HW288960   4.136   1.232  14.472
29041SOL     OW88961  10.028  14.681   6.532
29041SOL    HW188962  10.069  14.751   6.582
29041SOL    HW288963   9.963  14.726   6.477
29042SOL     OW88964   7.245   5.648  13.384
29042SOL    HW188965   7.209   5.564  13.356
29042SOL    HW288966   7.321   5.662  13.329
29043SOL     OW88967   2.130   0.392  11.026
29043SOL    HW188968   2.218   0.425  11.008
29043SOL    HW288969   2.098   0.447  11.098
29044SOL     OW88970   7.371  13.937   4.456
29044SOL    HW188971   7.386  13.849   4.421
29044SOL    HW288972   7.280  13.956   4.436
29045SOL     OW88973  10.266   3.178   7.578
29045SOL    HW188974  10.184   3.133   7.556
29045SOL    HW288975  10.293   3.137   7.661
29046SOL     OW88976   3.650  13.019   7.886
29046SOL    HW188977   3.583  13.081   7.914
29046SOL    HW288978   3.732  13.057   7.918
29047SOL     OW88979  11.203  10.752   4.848
29047SOL    HW188980  11.233  10.830   4.801
29047SOL    HW288981  11.267  10.740   4.918
29048SOL     OW88982  13.980  12.215   9.472
29048SOL    HW188983  13.918  12.286   9.486
29048SOL    HW288984  13.927  12.135   9.476
29049SOL     OW88985   4.614   6.066  10.453
29049SOL    HW188986   4.632   6.156  10.480
29049SOL    HW288987   4.645   6.061  10.363
29050SOL     OW88988   9.306   0.288   7.012
29050SOL    HW188989   9.219   0.306   7.047
29050SOL    HW288990   9.293   0.209   6.958
29051SOL     OW88991   2.682   0.585   6.628
29051SOL    HW188992   2.720   0.516   6.683
29051SOL    HW288993   2.741   0.591   6.553
29052SOL     OW88994   8.831  11.034   4.771
29052SOL    HW188995   8.899  10.968   4.754
29052SOL    HW288996   8.879  11.116   4.779
29053SOL     OW88997   4.693   7.263   5.509
29053SOL    HW188998   4.724   7.181   5.548
29053SOL    HW288999   4.608   7.240   5.470
29054SOL     OW89000   0.287  14.411   0.347
29054SOL    HW189001   0.197  14.431   0.371
29054SOL    HW289002   0.340  14.463   0.408
29055SOL     OW89003   0.866   8.475  11.223
29055SOL    HW189004   0.929   8.468  11.150
29055SOL    HW289005   0.784   8.441  11.187
29056SOL     OW89006   3.610  10.092  10.799
29056SOL    HW189007   3.522  10.060  10.823
29056SOL    HW289008   3.630  10.156  10.867
29057SOL     OW89009   4.251   0.158   9.339
29057SOL    HW189010   4.298   0.075   9.329
29057SOL    HW289011   4.318   0.221   9.364
29058SOL     OW89012   3.989  13.553   4.104
29058SOL    HW189013   3.919  13.597   4.154
29058SOL    HW289014   3.945  13.517   4.028
29059SOL     OW89015  11.405   2.259   1.300
29059SOL    HW189016  11.413   2.301   1.386
29059SOL    HW289017  11.451   2.319   1.241
29060SOL     OW89018   6.260   2.879   0.938
29060SOL    HW189019   6.351   2.908   0.942
29060SOL    HW289020   6.217   2.941   0.879
29061SOL     OW89021   5.744   3.383   6.747
29061SOL    HW189022   5.812   3.330   6.787
29061SOL    HW289023   5.674   3.322   6.726
29062SOL     OW89024   1.778   0.422   3.191
29062SOL    HW189025   1.711   0.367   3.231
29062SOL    HW289026   1.854   0.364   3.180
29063SOL     OW89027   0.826   7.536  12.079
29063SOL    HW189028   0.885   7.473  12.037
29063SOL    HW289029   0.744   7.527  12.031
29064SOL     OW89030   3.634   5.390   5.999
29064SOL    HW189031   3.606   5.306   6.034
29064SOL    HW289032   3.552   5.436   5.980
29065SOL     OW89033   2.161   9.551   2.928
29065SOL    HW189034   2.234   9.569   2.987
29065SOL    HW289035   2.173   9.460   2.901
29066SOL     OW89036   1.370  11.774   6.735
29066SOL    HW189037   1.331  11.859   6.757
29066SOL    HW289038   1.443  11.796   6.677
29067SOL     OW89039   6.219   6.853  11.439
29067SOL    HW189040   6.314   6.850  11.423
29067SOL    HW289041   6.210   6.906  11.518
29068SOL     OW89042   7.800  14.698  10.786
29068SOL    HW189043   7.877  14.676  10.732
29068SOL    HW289044   7.836  14.747  10.860
29069SOL     OW89045   7.498   3.639   5.766
29069SOL    HW189046   7.593   3.633   5.774
29069SOL    HW289047   7.483   3.711   5.706
29070SOL     OW89048   2.685   6.821   4.345
29070SOL    HW189049   2.697   6.882   4.418
29070SOL    HW289050   2.753   6.845   4.282
29071SOL     OW89051   2.355   2.489   6.104
29071SOL    HW189052   2.349   2.477   6.199
29071SOL    HW289053   2.308   2.571   6.087
29072SOL     OW89054  12.071   1.597   4.417
29072SOL    HW189055  12.039   1.565   4.333
29072SOL    HW289056  12.117   1.522   4.455
29073SOL     OW89057   0.483  14.551   5.638
29073SOL    HW189058   0.445  14.593   5.715
29073SOL    HW289059   0.412  14.500   5.600
29074SOL     OW89060   5.890  11.564  10.436
29074SOL    HW189061   5.877  11.652  10.470
29074SOL    HW289062   5.813  11.515  10.463
29075SOL     OW89063   5.233  14.091   5.851
29075SOL    HW189064   5.204  14.013   5.898
29075SOL    HW289065   5.248  14.061   5.762
29076SOL     OW89066   9.725  11.899   3.403
29076SOL    HW189067   9.713  11.952   3.482
29076SOL    HW289068   9.766  11.959   3.340
29077SOL     OW89069  13.953   7.676   3.790
29077SOL    HW189070  13.922   7.733   3.861
29077SOL    HW289071  14.038   7.644   3.822
29078SOL     OW89072   9.563   0.609   6.273
29078SOL    HW189073   9.655   0.589   6.259
29078SOL    HW289074   9.516   0.547   6.217
29079SOL     OW89075  12.207  13.826   1.220
29079SOL    HW189076  12.212  13.910   1.265
29079SOL    HW289077  12.245  13.843   1.134
29080SOL     OW89078  13.727  13.125   1.159
29080SOL    HW189079  13.669  13.200   1.141
29080SOL    HW289080  13.815  13.160   1.151
29081SOL     OW89081   6.161   9.801  10.172
29081SOL    HW189082   6.153   9.831  10.082
29081SOL    HW289083   6.088   9.740  10.184
29082SOL     OW89084  14.818   6.687  10.221
29082SOL    HW189085  14.861   6.623  10.164
29082SOL    HW289086  14.840   6.659  10.310
29083SOL     OW89087  14.513  11.817  12.172
29083SOL    HW189088  14.448  11.835  12.239
29083SOL    HW289089  14.597  11.832  12.215
29084SOL     OW89090  13.343   9.702  14.425
29084SOL    HW189091  13.280   9.644  14.465
29084SOL    HW289092  13.422   9.692  14.477
29085SOL     OW89093   2.389   5.339   5.794
29085SOL    HW189094   2.462   5.358   5.854
29085SOL    HW289095   2.345   5.264   5.833
29086SOL     OW89096   3.237  10.323  12.400
29086SOL    HW189097   3.311  10.378  12.375
29086SOL    HW289098   3.160  10.369  12.365
29087SOL     OW89099   6.773   1.888   3.405
29087SOL    HW189100   6.867   1.876   3.390
29087SOL    HW289101   6.750   1.821   3.469
29088SOL     OW89102   1.633  13.430  11.071
29088SOL    HW189103   1.617  13.518  11.106
29088SOL    HW289104   1.561  13.415  11.010
29089SOL     OW89105  13.051  11.504  11.092
29089SOL    HW189106  12.956  11.493  11.085
29089SOL    HW289107  13.085  11.484  11.005
29090SOL     OW89108   9.468   6.137   0.346
29090SOL    HW189109   9.428   6.092   0.420
29090SOL    HW289110   9.563   6.125   0.359
29091SOL     OW89111   5.646   0.197  12.977
29091SOL    HW189112   5.669   0.154  12.895
29091SOL    HW289113   5.578   0.140  13.015
29092SOL     OW89114  14.774   8.549   0.569
29092SOL    HW189115  14.796   8.461   0.540
29092SOL    HW289116  14.756   8.597   0.487
29093SOL     OW89117  12.689  11.052   5.512
29093SOL    HW189118  12.617  11.114   5.512
29093SOL    HW289119  12.751  11.087   5.576
29094SOL     OW89120   7.731   5.148  13.753
29094SOL    HW189121   7.749   5.206  13.827
29094SOL    HW289122   7.814   5.143  13.706
29095SOL     OW89123  13.801  12.677   0.823
29095SOL    HW189124  13.894  12.662   0.837
29095SOL    HW289125  13.786  12.767   0.854
29096SOL     OW89126  11.008   8.256   5.796
29096SOL    HW189127  11.072   8.280   5.863
29096SOL    HW289128  10.971   8.339   5.767
29097SOL     OW89129   6.855  12.177   9.003
29097SOL    HW189130   6.771  12.144   8.971
29097SOL    HW289131   6.919  12.114   8.969
29098SOL     OW89132   6.978   0.941   1.198
29098SOL    HW189133   6.917   0.897   1.139
29098SOL    HW289134   7.008   1.017   1.150
29099SOL     OW89135   8.044  13.689   5.043
29099SOL    HW189136   7.959  13.731   5.045
29099SOL    HW289137   8.107  13.761   5.047
29100SOL     OW89138   9.299   1.149   5.046
29100SOL    HW189139   9.304   1.183   5.135
29100SOL    HW289140   9.390   1.144   5.016
29101SOL     OW89141   0.363  14.674   8.087
29101SOL    HW189142   0.353  14.769   8.098
29101SOL    HW289143   0.326  14.657   8.000
29102SOL     OW89144   4.305   3.462   0.120
29102SOL    HW189145   4.310   3.516   0.041
29102SOL    HW289146   4.245   3.391   0.097
29103SOL     OW89147  13.162  12.424  13.651
29103SOL    HW189148  13.247  12.391  13.623
29103SOL    HW289149  13.182  12.503  13.701
29104SOL     OW89150   7.342   8.540  13.731
29104SOL    HW189151   7.394   8.596  13.674
29104SOL    HW289152   7.289   8.600  13.783
29105SOL     OW89153   7.976   7.923   4.354
29105SOL    HW189154   7.996   7.837   4.390
29105SOL    HW289155   7.923   7.965   4.422
29106SOL     OW89156  10.079   6.583   3.131
29106SOL    HW189157  10.037   6.634   3.062
29106SOL    HW289158  10.155   6.634   3.157
29107SOL     OW89159  12.329  11.778  13.704
29107SOL    HW189160  12.357  11.870  13.700
29107SOL    HW289161  12.391  11.732  13.647
29108SOL     OW89162   5.772   2.400  11.210
29108SOL    HW189163   5.823   2.394  11.130
29108SOL    HW289164   5.807   2.477  11.255
29109SOL     OW89165   3.174  12.158   4.906
29109SOL    HW189166   3.192  12.072   4.869
29109SOL    HW289167   3.110  12.198   4.845
29110SOL     OW89168  13.284   4.365   1.299
29110SOL    HW189169  13.290   4.459   1.284
29110SOL    HW289170  13.268   4.357   1.394
29111SOL     OW89171  11.733  12.261   7.080
29111SOL    HW189172  11.708  12.175   7.113
29111SOL    HW289173  11.653  12.314   7.088
29112SOL     OW89174   3.456   9.549  14.801
29112SOL    HW189175   3.393   9.589  14.861
29112SOL    HW289176   3.427   9.577  14.714
29113SOL     OW89177  13.378   9.659  10.884
29113SOL    HW189178  13.353   9.620  10.801
29113SOL    HW289179  13.300   9.653  10.939
29114SOL     OW89180  12.999   6.257  13.911
29114SOL    HW189181  13.020   6.342  13.872
29114SOL    HW289182  13.044   6.194  13.855
29115SOL     OW89183  10.392   8.394   2.327
29115SOL    HW189184  10.321   8.415   2.389
29115SOL    HW289185  10.396   8.469   2.269
29116SOL     OW89186  11.159  14.871   5.351
29116SOL    HW189187  11.097   0.070   5.347
29116SOL    HW289188  11.182  14.863   5.443
29117SOL     OW89189   1.770   6.824  10.133
29117SOL    HW189190   1.826   6.832  10.056
29117SOL    HW289191   1.734   6.735  10.127
29118SOL     OW89192  13.338   1.517  11.857
29118SOL    HW189193  13.319   1.425  11.839
29118SOL    HW289194  13.419   1.535  11.809
29119SOL     OW89195  11.038   0.436   0.481
29119SOL    HW189196  11.107   0.429   0.547
29119SOL    HW289197  11.049   0.523   0.444
29120SOL     OW89198   2.778   8.717  12.054
29120SOL    HW189199   2.865   8.757  12.054
29120SOL    HW289200   2.739   8.748  12.136
29121SOL     OW89201  13.452   7.250  12.773
29121SOL    HW189202  13.484   7.163  12.751
29121SOL    HW289203  13.387   7.235  12.841
29122SOL     OW89204   0.190  13.798   6.072
29122SOL    HW189205   0.157  13.878   6.032
29122SOL    HW289206   0.155  13.727   6.017
29123SOL     OW89207   3.993   7.530   8.076
29123SOL    HW189208   4.022   7.616   8.107
29123SOL    HW289209   3.938   7.497   8.147
29124SOL     OW89210  14.378   5.627  11.631
29124SOL    HW189211  14.324   5.548  11.639
29124SOL    HW289212  14.422   5.618  11.547
29125SOL     OW89213   0.844   2.122   3.740
29125SOL    HW189214   0.869   2.038   3.779
29125SOL    HW289215   0.755   2.108   3.708
29126SOL     OW89216   5.091  14.804  12.335
29126SOL    HW189217   5.138  14.720  12.332
29126SOL    HW289218   4.999  14.779  12.346
29127SOL     OW89219   4.168  14.427   4.269
29127SOL    HW189220   4.200  14.493   4.207
29127SOL    HW289221   4.237  14.421   4.335
29128SOL     OW89222   5.338   7.920   4.150
29128SOL    HW189223   5.415   7.931   4.095
29128SOL    HW289224   5.302   8.009   4.159
29129SOL     OW89225  10.285   0.642  12.003
29129SOL    HW189226  10.255   0.604  12.085
29129SOL    HW289227  10.213   0.701  11.977
29130SOL     OW89228   8.017   3.925  10.781
29130SOL    HW189229   7.998   4.001  10.726
29130SOL    HW289230   8.009   3.958  10.871
29131SOL     OW89231  11.418   8.264   5.764
29131SOL    HW189232  11.370   8.236   5.842
29131SOL    HW289233  11.358   8.324   5.720
29132SOL     OW89234  14.303   3.249   8.129
29132SOL    HW189235  14.286   3.342   8.145
29132SOL    HW289236  14.262   3.204   8.203
29133SOL     OW89237   6.857  10.636  11.826
29133SOL    HW189238   6.782  10.648  11.768
29133SOL    HW289239   6.862  10.541  11.840
29134SOL     OW89240  12.259   8.487  13.861
29134SOL    HW189241  12.175   8.504  13.902
29134SOL    HW289242  12.312   8.445  13.930
29135SOL     OW89243   9.467   7.566   9.468
29135SOL    HW189244   9.416   7.639   9.433
29135SOL    HW289245   9.408   7.491   9.462
29136SOL     OW89246   5.066   3.397   7.202
29136SOL    HW189247   5.061   3.455   7.126
29136SOL    HW289248   5.015   3.442   7.270
29137SOL     OW89249   5.877  14.100  11.752
29137SOL    HW189250   5.808  14.035  11.759
29137SOL    HW289251   5.857  14.163  11.821
29138SOL     OW89252  14.812  11.501   2.033
29138SOL    HW189253  14.812  11.593   2.007
29138SOL    HW289254   0.029  11.474   2.025
29139SOL     OW89255   2.902   2.081   3.183
29139SOL    HW189256   2.845   2.054   3.255
29139SOL    HW289257   2.842   2.117   3.117
29140SOL     OW89258   9.551  12.616  12.195
29140SOL    HW189259   9.586  12.651  12.277
29140SOL    HW289260   9.627  12.595  12.143
29141SOL     OW89261  10.388   5.366  11.466
29141SOL    HW189262  10.301   5.328  11.457
29141SOL    HW289263  10.372   5.460  11.476
29142SOL     OW89264   6.084  10.390   3.601
29142SOL    HW189265   6.162  10.431   3.640
29142SOL    HW289266   6.013  10.414   3.660
29143SOL     OW89267  13.301  13.426   0.526
29143SOL    HW189268  13.245  13.502   0.541
29143SOL    HW289269  13.390  13.462   0.527
29144SOL     OW89270   7.696  13.354  12.423
29144SOL    HW189271   7.771  13.301  12.451
29144SOL    HW289272   7.635  13.349  12.496
29145SOL     OW89273  13.874   7.028   9.743
29145SOL    HW189274  13.851   7.059   9.655
29145SOL    HW289275  13.910   7.106   9.786
29146SOL     OW89276   6.634  14.873  13.608
29146SOL    HW189277   6.601  14.801  13.661
29146SOL    HW289278   6.726   0.007  13.633
29147SOL     OW89279   1.253   9.937   6.596
29147SOL    HW189280   1.248   9.967   6.687
29147SOL    HW289281   1.308  10.002   6.553
29148SOL     OW89282   8.423   2.731   9.474
29148SOL    HW189283   8.347   2.677   9.497
29148SOL    HW289284   8.398   2.774   9.392
29149SOL     OW89285   5.884   8.287   9.907
29149SOL    HW189286   5.947   8.220   9.934
29149SOL    HW289287   5.918   8.368   9.947
29150SOL     OW89288  14.347  11.500   6.385
29150SOL    HW189289  14.280  11.446   6.427
29150SOL    HW289290  14.401  11.437   6.336
29151SOL     OW89291  14.338   9.464  13.947
29151SOL    HW189292  14.350   9.438  13.855
29151SOL    HW289293  14.416   9.430  13.991
29152SOL     OW89294   8.834   9.878   1.165
29152SOL    HW189295   8.811   9.966   1.134
29152SOL    HW289296   8.847   9.827   1.085
29153SOL     OW89297   3.524   3.994   5.490
29153SOL    HW189298   3.441   4.032   5.519
29153SOL    HW289299   3.541   4.035   5.406
29154SOL     OW89300  10.098  10.011   9.032
29154SOL    HW189301  10.131  10.065   9.104
29154SOL    HW289302  10.003  10.013   9.042
29155SOL     OW89303   0.966  11.336   6.384
29155SOL    HW189304   1.033  11.332   6.452
29155SOL    HW289305   0.915  11.415   6.405
29156SOL     OW89306   7.216  11.551  13.781
29156SOL    HW189307   7.175  11.479  13.733
29156SOL    HW289308   7.252  11.608  13.713
29157SOL     OW89309  12.565   4.429   8.444
29157SOL    HW189310  12.618   4.482   8.385
29157SOL    HW289311  12.516   4.492   8.496
29158SOL     OW89312   7.346  14.541   5.926
29158SOL    HW189313   7.430  14.513   5.888
29158SOL    HW289314   7.289  14.465   5.916
29159SOL     OW89315   2.533   3.188   2.723
29159SOL    HW189316   2.588   3.258   2.687
29159SOL    HW289317   2.447   3.230   2.733
29160SOL     OW89318   5.500   5.776   6.460
29160SOL    HW189319   5.592   5.800   6.447
29160SOL    HW289320   5.503   5.701   6.519
29161SOL     OW89321   1.329   5.989  12.275
29161SOL    HW189322   1.307   5.919  12.336
29161SOL    HW289323   1.246   6.010  12.231
29162SOL     OW89324   2.896   5.585  14.397
29162SOL    HW189325   2.950   5.514  14.430
29162SOL    HW289326   2.953   5.662  14.400
29163SOL     OW89327   1.026   7.849   9.974
29163SOL    HW189328   0.934   7.858   9.998
29163SOL    HW289329   1.032   7.889   9.887
29164SOL     OW89330   5.648   2.746  10.436
29164SOL    HW189331   5.743   2.749  10.426
29164SOL    HW289332   5.622   2.836  10.456
29165SOL     OW89333   9.930   9.988   3.008
29165SOL    HW189334   9.896   9.910   2.964
29165SOL    HW289335  10.019   9.998   2.973
29166SOL     OW89336   0.120   0.842   5.920
29166SOL    HW189337   0.128   0.917   5.978
29166SOL    HW289338   0.079   0.774   5.974
29167SOL     OW89339   6.433  11.695  12.978
29167SOL    HW189340   6.474  11.650  13.052
29167SOL    HW289341   6.370  11.632  12.943
29168SOL     OW89342  14.012   3.416   3.069
29168SOL    HW189343  14.011   3.437   3.163
29168SOL    HW289344  14.085   3.466   3.034
29169SOL     OW89345   8.521   0.989  11.397
29169SOL    HW189346   8.548   0.915  11.343
29169SOL    HW289347   8.526   1.064  11.338
29170SOL     OW89348   2.736   7.533   9.204
29170SOL    HW189349   2.788   7.612   9.207
29170SOL    HW289350   2.798   7.462   9.221
29171SOL     OW89351   9.385   6.891   6.446
29171SOL    HW189352   9.306   6.837   6.448
29171SOL    HW289353   9.453   6.835   6.485
29172SOL     OW89354  14.230   6.997   6.095
29172SOL    HW189355  14.144   7.032   6.070
29172SOL    HW289356  14.230   7.001   6.191
29173SOL     OW89357   5.423   5.877   6.221
29173SOL    HW189358   5.433   5.803   6.160
29173SOL    HW289359   5.432   5.837   6.308
29174SOL     OW89360   7.582   8.032   2.532
29174SOL    HW189361   7.490   8.056   2.545
29174SOL    HW289362   7.618   8.028   2.620
29175SOL     OW89363   3.061   4.111   5.587
29175SOL    HW189364   3.108   4.072   5.661
29175SOL    HW289365   2.996   4.168   5.627
29176SOL     OW89366   8.666   9.116   4.671
29176SOL    HW189367   8.588   9.114   4.615
29176SOL    HW289368   8.631   9.106   4.760
29177SOL     OW89369   5.781   2.367   3.400
29177SOL    HW189370   5.736   2.378   3.317
29177SOL    HW289371   5.727   2.306   3.450
29178SOL     OW89372   5.337   0.491   0.160
29178SOL    HW189373   5.328   0.540   0.241
29178SOL    HW289374   5.365   0.556   0.096
29179SOL     OW89375   6.375   9.275   2.616
29179SOL    HW189376   6.408   9.357   2.581
29179SOL    HW289377   6.452   9.219   2.624
29180SOL     OW89378  14.262   6.383  11.984
29180SOL    HW189379  14.289   6.292  11.994
29180SOL    HW289380  14.168   6.383  12.004
29181SOL     OW89381   4.690   7.315   1.051
29181SOL    HW189382   4.749   7.353   1.115
29181SOL    HW289383   4.623   7.382   1.038
29182SOL     OW89384   3.294   0.180   5.777
29182SOL    HW189385   3.295   0.126   5.857
29182SOL    HW289386   3.201   0.192   5.758
29183SOL     OW89387   6.302   5.618   2.968
29183SOL    HW189388   6.273   5.612   2.877
29183SOL    HW289389   6.242   5.561   3.017
29184SOL     OW89390   6.224   7.915   6.416
29184SOL    HW189391   6.136   7.918   6.451
29184SOL    HW289392   6.218   7.958   6.331
29185SOL     OW89393  11.908  14.163  12.324
29185SOL    HW189394  11.916  14.153  12.230
29185SOL    HW289395  11.884  14.255  12.337
29186SOL     OW89396   5.137   6.474   7.309
29186SOL    HW189397   5.046   6.503   7.305
29186SOL    HW289398   5.131   6.381   7.330
29187SOL     OW89399  12.407   8.688  11.589
29187SOL    HW189400  12.474   8.757  11.587
29187SOL    HW289401  12.427   8.633  11.514
29188SOL     OW89402  12.760   9.886   8.315
29188SOL    HW189403  12.678   9.854   8.352
29188SOL    HW289404  12.794   9.811   8.265
29189SOL     OW89405  13.574   2.191   6.056
29189SOL    HW189406  13.645   2.233   6.105
29189SOL    HW289407  13.610   2.178   5.968
29190SOL     OW89408   8.765  12.299  14.598
29190SOL    HW189409   8.735  12.369  14.656
29190SOL    HW289410   8.847  12.269  14.638
29191SOL     OW89411   0.512   5.288   7.226
29191SOL    HW189412   0.569   5.321   7.156
29191SOL    HW289413   0.443   5.353   7.234
29192SOL     OW89414  10.753   9.019  11.914
29192SOL    HW189415  10.753   9.044  11.821
29192SOL    HW289416  10.665   9.041  11.944
29193SOL     OW89417  11.757  14.738  13.920
29193SOL    HW189418  11.678  14.792  13.929
29193SOL    HW289419  11.725  14.654  13.887
29194SOL     OW89420   6.614   8.600   1.011
29194SOL    HW189421   6.550   8.533   0.988
29194SOL    HW289422   6.564   8.664   1.062
29195SOL     OW89423  11.409   0.075   5.919
29195SOL    HW189424  11.322   0.083   5.880
29195SOL    HW289425  11.397   0.012   5.990
29196SOL     OW89426   6.800  10.017   9.800
29196SOL    HW189427   6.857  10.093   9.814
29196SOL    HW289428   6.767  10.028   9.711
29197SOL     OW89429   0.617  10.285   1.911
29197SOL    HW189430   0.711  10.297   1.900
29197SOL    HW289431   0.581  10.292   1.823
29198SOL     OW89432   1.927   3.815   5.328
29198SOL    HW189433   1.867   3.807   5.254
29198SOL    HW289434   1.957   3.906   5.325
29199SOL     OW89435   1.689   5.327  12.575
29199SOL    HW189436   1.684   5.421  12.559
29199SOL    HW289437   1.732   5.320  12.661
29200SOL     OW89438   6.280   4.384   1.490
29200SOL    HW189439   6.329   4.401   1.570
29200SOL    HW289440   6.209   4.326   1.517
29201SOL     OW89441  14.597  11.579   4.560
29201SOL    HW189442  14.614  11.524   4.484
29201SOL    HW289443  14.683  11.599   4.595
29202SOL     OW89444   4.040  12.664   5.167
29202SOL    HW189445   3.977  12.609   5.214
29202SOL    HW289446   3.994  12.694   5.089
29203SOL     OW89447   6.385   4.895   3.362
29203SOL    HW189448   6.375   4.892   3.457
29203SOL    HW289449   6.330   4.823   3.330
29204SOL     OW89450   4.554  11.775  10.408
29204SOL    HW189451   4.482  11.819  10.453
29204SOL    HW289452   4.577  11.834  10.337
29205SOL     OW89453  10.160   9.740   0.032
29205SOL    HW189454  10.130   9.779  14.824
29205SOL    HW289455  10.094   9.674   0.053
29206SOL     OW89456   9.188   4.141   0.840
29206SOL    HW189457   9.105   4.100   0.864
29206SOL    HW289458   9.251   4.069   0.842
29207SOL     OW89459   6.754  14.623   2.967
29207SOL    HW189460   6.699  14.637   2.890
29207SOL    HW289461   6.743  14.530   2.988
29208SOL     OW89462   7.740   1.569  12.500
29208SOL    HW189463   7.780   1.624  12.432
29208SOL    HW289464   7.805   1.501  12.517
29209SOL     OW89465   6.909   7.395   6.762
29209SOL    HW189466   6.924   7.359   6.849
29209SOL    HW289467   6.996   7.404   6.724
29210SOL     OW89468  14.783   0.298   7.606
29210SOL    HW189469  14.843   0.327   7.675
29210SOL    HW289470  14.806   0.353   7.530
29211SOL     OW89471   1.078  10.847   2.284
29211SOL    HW189472   0.984  10.839   2.269
29211SOL    HW289473   1.098  10.939   2.264
29212SOL     OW89474   1.443  12.482   6.604
29212SOL    HW189475   1.448  12.577   6.606
29212SOL    HW289476   1.402  12.458   6.687
29213SOL     OW89477   0.249   4.198   0.251
29213SOL    HW189478   0.228   4.234   0.337
29213SOL    HW289479   0.331   4.150   0.264
29214SOL     OW89480  13.600   3.123   5.199
29214SOL    HW189481  13.677   3.169   5.164
29214SOL    HW289482  13.528   3.152   5.144
29215SOL     OW89483   2.489   2.906  11.164
29215SOL    HW189484   2.405   2.892  11.120
29215SOL    HW289485   2.555   2.880  11.099
29216SOL     OW89486  12.548   9.995  11.335
29216SOL    HW189487  12.525  10.050  11.410
29216SOL    HW289488  12.592  10.054  11.274
29217SOL     OW89489   1.941   9.309   0.160
29217SOL    HW189490   1.903   9.263   0.234
29217SOL    HW289491   1.868   9.324   0.099
29218SOL     OW89492  10.965  14.428   1.550
29218SOL    HW189493  10.901  14.381   1.496
29218SOL    HW289494  10.950  14.521   1.529
29219SOL     OW89495  12.333  12.278   7.442
29219SOL    HW189496  12.416  12.262   7.397
29219SOL    HW289497  12.304  12.363   7.409
29220SOL     OW89498   7.865   4.948  12.585
29220SOL    HW189499   7.837   5.036  12.608
29220SOL    HW289500   7.849   4.942  12.491
29221SOL     OW89501   1.222   5.865  10.782
29221SOL    HW189502   1.216   5.787  10.726
29221SOL    HW289503   1.312   5.896  10.770
29222SOL     OW89504  13.048  13.584   1.532
29222SOL    HW189505  13.096  13.502   1.522
29222SOL    HW289506  12.958  13.563   1.509
29223SOL     OW89507   9.535   1.564   9.509
29223SOL    HW189508   9.630   1.563   9.497
29223SOL    HW289509   9.501   1.586   9.422
29224SOL     OW89510   9.704   2.750  11.136
29224SOL    HW189511   9.755   2.810  11.082
29224SOL    HW289512   9.647   2.705  11.074
29225SOL     OW89513   6.178   0.164   6.279
29225SOL    HW189514   6.161   0.082   6.234
29225SOL    HW289515   6.134   0.231   6.226
29226SOL     OW89516   1.181   4.810   4.731
29226SOL    HW189517   1.166   4.871   4.659
29226SOL    HW289518   1.094   4.792   4.766
29227SOL     OW89519  13.945   3.951  10.200
29227SOL    HW189520  14.032   3.978  10.227
29227SOL    HW289521  13.936   3.862  10.234
29228SOL     OW89522   5.764  12.585  11.305
29228SOL    HW189523   5.693  12.591  11.241
29228SOL    HW289524   5.781  12.675  11.331
29229SOL     OW89525   0.507   9.774  13.833
29229SOL    HW189526   0.515   9.679  13.831
29229SOL    HW289527   0.441   9.794  13.767
29230SOL     OW89528   6.198   4.513  11.110
29230SOL    HW189529   6.139   4.547  11.177
29230SOL    HW289530   6.149   4.521  11.028
29231SOL     OW89531  11.519  11.161   0.152
29231SOL    HW189532  11.598  11.162   0.098
29231SOL    HW289533  11.535  11.094   0.218
29232SOL     OW89534   5.340   6.323  12.437
29232SOL    HW189535   5.415   6.268  12.416
29232SOL    HW289536   5.365   6.411  12.407
29233SOL     OW89537   5.231   3.045  14.831
29233SOL    HW189538   5.185   3.046   0.041
29233SOL    HW289539   5.264   3.134  14.822
29234SOL     OW89540   5.282   5.208   6.172
29234SOL    HW189541   5.200   5.164   6.148
29234SOL    HW289542   5.322   5.149   6.236
29235SOL     OW89543  11.613   5.133  11.810
29235SOL    HW189544  11.671   5.076  11.760
29235SOL    HW289545  11.615   5.217  11.764
29236SOL     OW89546   9.928   5.178  13.891
29236SOL    HW189547   9.982   5.257  13.879
29236SOL    HW289548   9.840   5.206  13.865
29237SOL     OW89549   2.314   9.432   9.681
29237SOL    HW189550   2.375   9.462   9.613
29237SOL    HW289551   2.363   9.367   9.731
29238SOL     OW89552   5.273   0.128   6.869
29238SOL    HW189553   5.294   0.035   6.864
29238SOL    HW289554   5.335   0.170   6.808
29239SOL     OW89555   2.683   7.108   2.047
29239SOL    HW189556   2.724   7.129   2.131
29239SOL    HW289557   2.644   7.191   2.018
29240SOL     OW89558   4.634   9.635   2.793
29240SOL    HW189559   4.632   9.723   2.757
29240SOL    HW289560   4.664   9.646   2.883
29241SOL     OW89561   4.262   1.476  11.718
29241SOL    HW189562   4.280   1.566  11.742
29241SOL    HW289563   4.218   1.482  11.633
29242SOL     OW89564   1.195   3.713  10.512
29242SOL    HW189565   1.214   3.806  10.515
29242SOL    HW289566   1.239   3.677  10.589
29243SOL     OW89567  12.552   5.082  12.083
29243SOL    HW189568  12.463   5.117  12.090
29243SOL    HW289569  12.574   5.092  11.990
29244SOL     OW89570   0.893  12.022   7.438
29244SOL    HW189571   0.874  11.997   7.348
29244SOL    HW289572   0.936  12.107   7.432
29245SOL     OW89573   3.318   2.266   5.910
29245SOL    HW189574   3.356   2.321   5.841
29245SOL    HW289575   3.230   2.301   5.924
29246SOL     OW89576   1.158   2.673  14.458
29246SOL    HW189577   1.094   2.670  14.530
29246SOL    HW289578   1.242   2.689  14.501
29247SOL     OW89579  11.806   3.383   3.487
29247SOL    HW189580  11.812   3.291   3.460
29247SOL    HW289581  11.732   3.385   3.548
29248SOL     OW89582  14.756   8.170   0.846
29248SOL    HW189583  14.775   8.131   0.760
29248SOL    HW289584  14.669   8.208   0.837
29249SOL     OW89585   9.718   7.170  10.663
29249SOL    HW189586   9.632   7.183  10.624
29249SOL    HW289587   9.780   7.198  10.595
29250SOL     OW89588  13.016   2.314   2.579
29250SOL    HW189589  13.068   2.243   2.542
29250SOL    HW289590  12.955   2.338   2.509
29251SOL     OW89591  14.247   6.414  10.466
29251SOL    HW189592  14.318   6.470  10.434
29251SOL    HW289593  14.238   6.347  10.398
29252SOL     OW89594   1.248   5.333   0.443
29252SOL    HW189595   1.234   5.259   0.503
29252SOL    HW289596   1.329   5.373   0.473
29253SOL     OW89597   0.269   0.177   1.011
29253SOL    HW189598   0.306   0.184   0.923
29253SOL    HW289599   0.207   0.104   1.005
29254SOL     OW89600   5.366  13.772   9.094
29254SOL    HW189601   5.322  13.843   9.046
29254SOL    HW289602   5.449  13.810   9.123
29255SOL     OW89603   6.036  12.322  13.634
29255SOL    HW189604   6.059  12.359  13.549
29255SOL    HW289605   5.943  12.342  13.643
29256SOL     OW89606   8.810   8.602  12.784
29256SOL    HW189607   8.728   8.603  12.832
29256SOL    HW289608   8.877   8.584  12.851
29257SOL     OW89609  11.409   9.753   5.935
29257SOL    HW189610  11.374   9.669   5.904
29257SOL    HW289611  11.393   9.751   6.030
29258SOL     OW89612   8.331  13.540   3.014
29258SOL    HW189613   8.371  13.539   2.927
29258SOL    HW289614   8.237  13.550   2.997
29259SOL     OW89615   9.254   0.762   7.053
29259SOL    HW189616   9.176   0.739   7.103
29259SOL    HW289617   9.242   0.854   7.030
29260SOL     OW89618   2.131  13.608   8.475
29260SOL    HW189619   2.123  13.654   8.392
29260SOL    HW289620   2.169  13.523   8.452
29261SOL     OW89621  10.075  12.406   2.444
29261SOL    HW189622   9.986  12.395   2.478
29261SOL    HW289623  10.080  12.346   2.370
29262SOL     OW89624   2.844   5.492  12.666
29262SOL    HW189625   2.778   5.447  12.719
29262SOL    HW289626   2.893   5.545  12.729
29263SOL     OW89627  13.888   9.731   1.292
29263SOL    HW189628  13.822   9.789   1.255
29263SOL    HW289629  13.948   9.712   1.219
29264SOL     OW89630   1.808  10.759   5.147
29264SOL    HW189631   1.782  10.703   5.074
29264SOL    HW289632   1.740  10.746   5.213
29265SOL     OW89633  14.439   1.767  12.817
29265SOL    HW189634  14.467   1.680  12.844
29265SOL    HW289635  14.364   1.752  12.759
29266SOL     OW89636   0.961   5.630   3.845
29266SOL    HW189637   1.033   5.682   3.879
29266SOL    HW289638   0.923   5.684   3.775
29267SOL     OW89639  13.342   4.742  13.947
29267SOL    HW189640  13.367   4.702  13.863
29267SOL    HW289641  13.385   4.827  13.947
29268SOL     OW89642   2.537  10.916  13.470
29268SOL    HW189643   2.614  10.913  13.414
29268SOL    HW289644   2.489  10.835  13.450
29269SOL     OW89645   2.999   3.352   8.909
29269SOL    HW189646   3.068   3.336   8.844
29269SOL    HW289647   3.037   3.324   8.992
29270SOL     OW89648   2.488   2.148   2.507
29270SOL    HW189649   2.544   2.177   2.579
29270SOL    HW289650   2.518   2.059   2.487
29271SOL     OW89651   8.972   8.520   4.414
29271SOL    HW189652   8.904   8.529   4.481
29271SOL    HW289653   8.924   8.501   4.334
29272SOL     OW89654  12.565  12.097   8.839
29272SOL    HW189655  12.619  12.115   8.762
29272SOL    HW289656  12.559  12.001   8.842
29273SOL     OW89657   1.251   7.731   9.126
29273SOL    HW189658   1.311   7.758   9.057
29273SOL    HW289659   1.306   7.730   9.205
29274SOL     OW89660   0.617  10.687   1.648
29274SOL    HW189661   0.645  10.715   1.735
29274SOL    HW289662   0.698  10.657   1.606
29275SOL     OW89663  13.688   9.028   0.108
29275SOL    HW189664  13.669   9.102   0.051
29275SOL    HW289665  13.693   9.066   0.196
29276SOL     OW89666   9.247   8.068   8.194
29276SOL    HW189667   9.266   8.081   8.101
29276SOL    HW289668   9.166   8.116   8.210
29277SOL     OW89669   2.937  10.184  14.786
29277SOL    HW189670   2.887  10.103  14.780
29277SOL    HW289671   2.870  10.253  14.789
29278SOL     OW89672   8.230   2.898   5.923
29278SOL    HW189673   8.281   2.971   5.888
29278SOL    HW289674   8.198   2.851   5.846
29279SOL     OW89675  14.584   1.362   6.261
29279SOL    HW189676  14.536   1.287   6.296
29279SOL    HW289677  14.639   1.325   6.192
29280SOL     OW89678  14.666   9.184  12.115
29280SOL    HW189679  14.635   9.104  12.159
29280SOL    HW289680  14.600   9.250  12.137
29281SOL     OW89681   4.539  14.413   6.739
29281SOL    HW189682   4.594  14.339   6.717
29281SOL    HW289683   4.571  14.443   6.824
29282SOL     OW89684   0.968  10.310   3.201
29282SOL    HW189685   0.997  10.233   3.250
29282SOL    HW289686   0.883  10.285   3.165
29283SOL     OW89687   6.075   2.071  14.661
29283SOL    HW189688   6.150   2.078  14.602
29283SOL    HW289689   6.058   2.160  14.690
29284SOL     OW89690  11.884  14.226  11.744
29284SOL    HW189691  11.976  14.253  11.735
29284SOL    HW289692  11.864  14.240  11.836
29285SOL     OW89693   8.468   9.941  12.888
29285SOL    HW189694   8.547   9.981  12.924
29285SOL    HW289695   8.485   9.936  12.794
29286SOL     OW89696  14.727   2.440   0.553
29286SOL    HW189697  14.693   2.504   0.616
29286SOL    HW289698  14.820   2.436   0.572
29287SOL     OW89699  11.885   0.427   1.058
29287SOL    HW189700  11.978   0.446   1.068
29287SOL    HW289701  11.846   0.448   1.144
29288SOL     OW89702   0.893   5.913  12.518
29288SOL    HW189703   0.897   6.009  12.514
29288SOL    HW289704   0.939   5.884  12.439
29289SOL     OW89705  14.290  13.011  13.402
29289SOL    HW189706  14.329  13.098  13.392
29289SOL    HW289707  14.197  13.027  13.418
29290SOL     OW89708  11.556   6.129   1.772
29290SOL    HW189709  11.610   6.090   1.703
29290SOL    HW289710  11.565   6.068   1.846
29291SOL     OW89711   6.020   6.137  10.132
29291SOL    HW189712   6.093   6.103  10.079
29291SOL    HW289713   6.011   6.073  10.203
29292SOL     OW89714  13.493   1.477   6.876
29292SOL    HW189715  13.422   1.413   6.883
29292SOL    HW289716  13.472   1.528   6.798
29293SOL     OW89717  13.163  11.379  11.315
29293SOL    HW189718  13.132  11.445  11.253
29293SOL    HW289719  13.256  11.368  11.294
29294SOL     OW89720   8.385  10.840  11.442
29294SOL    HW189721   8.420  10.751  11.444
29294SOL    HW289722   8.379  10.865  11.534
29295SOL     OW89723  11.013   6.364   3.116
29295SOL    HW189724  10.945   6.365   3.184
29295SOL    HW289725  11.075   6.297   3.145
29296SOL     OW89726   4.996   2.141   9.878
29296SOL    HW189727   5.038   2.225   9.899
29296SOL    HW289728   4.906   2.165   9.853
29297SOL     OW89729   1.940   4.702  11.988
29297SOL    HW189730   2.030   4.669  11.997
29297SOL    HW289731   1.885   4.626  12.004
29298SOL     OW89732   2.863   3.954   0.817
29298SOL    HW189733   2.899   4.042   0.812
29298SOL    HW289734   2.939   3.897   0.828
29299SOL     OW89735   7.647   2.073  10.519
29299SOL    HW189736   7.581   2.004  10.522
29299SOL    HW289737   7.599   2.153  10.538
29300SOL     OW89738  11.359   4.116  13.185
29300SOL    HW189739  11.395   4.035  13.222
29300SOL    HW289740  11.435   4.172  13.172
29301SOL     OW89741   0.160  14.445  10.705
29301SOL    HW189742   0.193  14.478  10.788
29301SOL    HW289743   0.069  14.420  10.723
29302SOL     OW89744   6.853   3.928  12.132
29302SOL    HW189745   6.903   3.850  12.112
29302SOL    HW289746   6.812   3.909  12.217
29303SOL     OW89747   4.720   8.598  12.671
29303SOL    HW189748   4.673   8.519  12.644
29303SOL    HW289749   4.667   8.670  12.637
29304SOL     OW89750   4.416  10.307   8.893
29304SOL    HW189751   4.378  10.327   8.807
29304SOL    HW289752   4.505  10.341   8.889
29305SOL     OW89753   9.530   6.548   9.596
29305SOL    HW189754   9.537   6.582   9.685
29305SOL    HW289755   9.463   6.603   9.555
29306SOL     OW89756  14.204   6.252   3.043
29306SOL    HW189757  14.220   6.335   2.999
29306SOL    HW289758  14.117   6.226   3.013
29307SOL     OW89759  10.098   5.251  11.897
29307SOL    HW189760  10.152   5.330  11.909
29307SOL    HW289761  10.069   5.229  11.986
29308SOL     OW89762   8.579   1.363   9.211
29308SOL    HW189763   8.499   1.382   9.260
29308SOL    HW289764   8.567   1.274   9.177
29309SOL     OW89765   2.596   3.030   7.592
29309SOL    HW189766   2.686   2.999   7.596
29309SOL    HW289767   2.568   3.010   7.502
29310SOL     OW89768  12.845   6.498   8.641
29310SOL    HW189769  12.786   6.571   8.622
29310SOL    HW289770  12.850   6.449   8.559
29311SOL     OW89771   5.391   9.441  10.218
29311SOL    HW189772   5.296   9.441  10.233
29311SOL    HW289773   5.429   9.472  10.300
29312SOL     OW89774  13.822   1.267   1.664
29312SOL    HW189775  13.847   1.213   1.739
29312SOL    HW289776  13.809   1.205   1.593
29313SOL     OW89777   8.880   6.983  12.804
29313SOL    HW189778   8.874   6.924  12.879
29313SOL    HW289779   8.789   7.007  12.785
29314SOL     OW89780   8.331   9.277  11.432
29314SOL    HW189781   8.339   9.226  11.512
29314SOL    HW289782   8.420   9.305  11.412
29315SOL     OW89783   8.511   5.228   9.662
29315SOL    HW189784   8.592   5.277   9.648
29315SOL    HW289785   8.483   5.252   9.751
29316SOL     OW89786  10.517   9.119  13.252
29316SOL    HW189787  10.601   9.165  13.259
29316SOL    HW289788  10.520   9.077  13.166
29317SOL     OW89789   3.743   4.606   7.795
29317SOL    HW189790   3.747   4.673   7.862
29317SOL    HW289791   3.735   4.524   7.844
29318SOL     OW89792   0.498   0.808   9.810
29318SOL    HW189793   0.479   0.901   9.826
29318SOL    HW289794   0.472   0.765   9.891
29319SOL     OW89795   0.681   5.253   4.234
29319SOL    HW189796   0.747   5.269   4.301
29319SOL    HW289797   0.708   5.171   4.192
29320SOL     OW89798   4.996   4.212   0.612
29320SOL    HW189799   5.063   4.280   0.613
29320SOL    HW289800   5.020   4.156   0.538
29321SOL     OW89801  11.426   9.977   9.293
29321SOL    HW189802  11.393   9.903   9.344
29321SOL    HW289803  11.371   9.980   9.215
29322SOL     OW89804   7.434   9.253  11.581
29322SOL    HW189805   7.423   9.344  11.555
29322SOL    HW289806   7.388   9.203  11.513
29323SOL     OW89807   6.239   9.575   7.151
29323SOL    HW189808   6.238   9.580   7.055
29323SOL    HW289809   6.314   9.520   7.172
29324SOL     OW89810  14.768   7.490   1.911
29324SOL    HW189811  14.848   7.457   1.952
29324SOL    HW289812  14.776   7.585   1.916
29325SOL     OW89813   7.120   9.205   2.043
29325SOL    HW189814   7.029   9.231   2.062
29325SOL    HW289815   7.173   9.275   2.081
29326SOL     OW89816  10.020   7.059  13.323
29326SOL    HW189817   9.967   6.980  13.312
29326SOL    HW289818  10.106   7.027  13.348
29327SOL     OW89819  10.598   7.568   5.757
29327SOL    HW189820  10.521   7.606   5.798
29327SOL    HW289821  10.567   7.484   5.722
29328SOL     OW89822  11.215   8.452  14.588
29328SOL    HW189823  11.205   8.391  14.515
29328SOL    HW289824  11.310   8.458  14.601
29329SOL     OW89825  10.905   5.802   6.616
29329SOL    HW189826  10.983   5.765   6.657
29329SOL    HW289827  10.839   5.801   6.685
29330SOL     OW89828  10.731   8.944   3.064
29330SOL    HW189829  10.797   8.960   3.132
29330SOL    HW289830  10.661   9.006   3.084
29331SOL     OW89831   5.086   6.985   1.412
29331SOL    HW189832   4.996   6.957   1.424
29331SOL    HW289833   5.134   6.946   1.485
29332SOL     OW89834   2.113   6.088  11.418
29332SOL    HW189835   2.192   6.034  11.408
29332SOL    HW289836   2.144   6.178  11.406
29333SOL     OW89837   3.919  10.495   5.571
29333SOL    HW189838   3.838  10.528   5.610
29333SOL    HW289839   3.909  10.512   5.477
29334SOL     OW89840   9.595   5.550  13.542
29334SOL    HW189841   9.563   5.481  13.483
29334SOL    HW289842   9.647   5.503  13.606
29335SOL     OW89843   4.943  14.282   7.451
29335SOL    HW189844   4.968  14.305   7.361
29335SOL    HW289845   4.878  14.213   7.440
29336SOL     OW89846   7.789  10.933   3.689
29336SOL    HW189847   7.858  10.991   3.722
29336SOL    HW289848   7.729  10.923   3.763
29337SOL     OW89849   5.009   7.536   5.201
29337SOL    HW189850   4.937   7.478   5.225
29337SOL    HW289851   5.030   7.512   5.111
29338SOL     OW89852   7.266   5.349   1.194
29338SOL    HW189853   7.325   5.299   1.138
29338SOL    HW289854   7.179   5.323   1.166
29339SOL     OW89855   5.042   2.017   3.345
29339SOL    HW189856   5.080   2.040   3.260
29339SOL    HW289857   5.049   2.098   3.396
29340SOL     OW89858  12.930  11.636   9.130
29340SOL    HW189859  12.884  11.595   9.057
29340SOL    HW289860  12.885  11.604   9.208
29341SOL     OW89861   5.022  13.617  12.447
29341SOL    HW189862   5.021  13.596  12.540
29341SOL    HW289863   5.012  13.712  12.444
29342SOL     OW89864  10.224  10.008   5.781
29342SOL    HW189865  10.291  10.036   5.718
29342SOL    HW289866  10.202   9.919   5.756
29343SOL     OW89867  12.282   2.138   9.844
29343SOL    HW189868  12.194   2.109   9.822
29343SOL    HW289869  12.333   2.124   9.765
29344SOL     OW89870  14.528  10.714  13.335
29344SOL    HW189871  14.561  10.695  13.247
29344SOL    HW289872  14.543  10.807  13.347
29345SOL     OW89873  12.372   6.676   2.992
29345SOL    HW189874  12.277   6.665   2.992
29345SOL    HW289875  12.395   6.675   3.085
29346SOL     OW89876   8.203  11.288   2.190
29346SOL    HW189877   8.201  11.220   2.257
29346SOL    HW289878   8.296  11.297   2.167
29347SOL     OW89879   7.870   0.606   6.953
29347SOL    HW189880   7.886   0.663   6.878
29347SOL    HW289881   7.796   0.552   6.927
29348SOL     OW89882  11.094  13.805  13.777
29348SOL    HW189883  11.169  13.863  13.791
29348SOL    HW289884  11.119  13.722  13.817
29349SOL     OW89885   1.222   8.600   4.997
29349SOL    HW189886   1.190   8.629   5.083
29349SOL    HW289887   1.294   8.541   5.016
29350SOL     OW89888   6.941   1.853   9.015
29350SOL    HW189889   6.998   1.827   8.943
29350SOL    HW289890   6.979   1.935   9.047
29351SOL     OW89891   0.689  11.628   0.262
29351SOL    HW189892   0.667  11.562   0.328
29351SOL    HW289893   0.776  11.602   0.231
29352SOL     OW89894  11.536   7.445  11.428
29352SOL    HW189895  11.551   7.434  11.522
29352SOL    HW289896  11.529   7.355  11.394
29353SOL     OW89897  10.904   9.910   1.308
29353SOL    HW189898  10.976   9.951   1.260
29353SOL    HW289899  10.910   9.945   1.396
29354SOL     OW89900   1.189  11.149   7.247
29354SOL    HW189901   1.124  11.082   7.269
29354SOL    HW289902   1.177  11.166   7.154
29355SOL     OW89903  11.367   1.615  10.105
29355SOL    HW189904  11.397   1.616  10.015
29355SOL    HW289905  11.362   1.522  10.128
29356SOL     OW89906   4.835   6.180  11.966
29356SOL    HW189907   4.866   6.242  11.900
29356SOL    HW289908   4.795   6.110  11.915
29357SOL     OW89909   8.975  11.983  10.859
29357SOL    HW189910   8.963  12.027  10.942
29357SOL    HW289911   8.886  11.965  10.828
29358SOL     OW89912  11.597  12.557   9.854
29358SOL    HW189913  11.605  12.622   9.923
29358SOL    HW289914  11.635  12.477   9.891
29359SOL     OW89915  13.247   6.679   3.806
29359SOL    HW189916  13.273   6.719   3.722
29359SOL    HW289917  13.152   6.684   3.806
29360SOL     OW89918   8.314   3.791   8.360
29360SOL    HW189919   8.301   3.869   8.307
29360SOL    HW289920   8.228   3.750   8.364
29361SOL     OW89921  13.609  13.623   4.310
29361SOL    HW189922  13.540  13.617   4.377
29361SOL    HW289923  13.691  13.623   4.359
29362SOL     OW89924   4.422   3.206  13.635
29362SOL    HW189925   4.416   3.144  13.708
29362SOL    HW289926   4.357   3.174  13.572
29363SOL     OW89927  10.835  13.838   5.492
29363SOL    HW189928  10.776  13.764   5.476
29363SOL    HW289929  10.887  13.811   5.568
29364SOL     OW89930  12.863  12.327   2.869
29364SOL    HW189931  12.792  12.332   2.806
29364SOL    HW289932  12.934  12.378   2.830
29365SOL     OW89933  14.573   2.654   3.964
29365SOL    HW189934  14.581   2.629   3.871
29365SOL    HW289935  14.618   2.584   4.011
29366SOL     OW89936   5.221  13.236  10.528
29366SOL    HW189937   5.239  13.301  10.595
29366SOL    HW289938   5.216  13.286  10.446
29367SOL     OW89939  11.712   3.644   8.765
29367SOL    HW189940  11.704   3.664   8.858
29367SOL    HW289941  11.712   3.730   8.722
29368SOL     OW89942   3.532  11.083   5.980
29368SOL    HW189943   3.565  11.158   6.029
29368SOL    HW289944   3.491  11.122   5.903
29369SOL     OW89945   8.738   3.242   9.258
29369SOL    HW189946   8.753   3.285   9.174
29369SOL    HW289947   8.650   3.206   9.251
29370SOL     OW89948   2.874   8.590   0.482
29370SOL    HW189949   2.898   8.568   0.572
29370SOL    HW289950   2.827   8.673   0.488
29371SOL     OW89951  13.204   2.506   2.459
29371SOL    HW189952  13.129   2.470   2.506
29371SOL    HW289953  13.169   2.533   2.374
29372SOL     OW89954  11.888   8.021   9.599
29372SOL    HW189955  11.798   7.991   9.582
29372SOL    HW289956  11.878   8.090   9.664
29373SOL     OW89957   9.694  14.155  14.027
29373SOL    HW189958   9.707  14.154  14.122
29373SOL    HW289959   9.668  14.244  14.007
29374SOL     OW89960  10.483  13.586   1.043
29374SOL    HW189961  10.409  13.611   0.988
29374SOL    HW289962  10.481  13.490   1.042
29375SOL     OW89963   2.982   4.899   0.985
29375SOL    HW189964   3.031   4.915   0.905
29375SOL    HW289965   3.007   4.971   1.043
29376SOL     OW89966   3.797   8.941  12.108
29376SOL    HW189967   3.868   8.927  12.170
29376SOL    HW289968   3.769   8.853  12.082
29377SOL     OW89969   5.367   0.616  13.841
29377SOL    HW189970   5.379   0.663  13.759
29377SOL    HW289971   5.276   0.588  13.841
29378SOL     OW89972   7.639  11.041   4.286
29378SOL    HW189973   7.579  10.969   4.306
29378SOL    HW289974   7.698  11.006   4.220
29379SOL     OW89975  11.290  13.556  12.185
29379SOL    HW189976  11.383  13.578  12.174
29379SOL    HW289977  11.280  13.471  12.142
29380SOL     OW89978  13.640   8.604   1.271
29380SOL    HW189979  13.643   8.556   1.188
29380SOL    HW289980  13.629   8.535   1.337
29381SOL     OW89981   1.683   5.740  14.182
29381SOL    HW189982   1.614   5.701  14.129
29381SOL    HW289983   1.670   5.835  14.172
29382SOL     OW89984   2.869   1.040   2.256
29382SOL    HW189985   2.814   1.053   2.333
29382SOL    HW289986   2.808   1.022   2.185
29383SOL     OW89987  12.475   4.595   0.971
29383SOL    HW189988  12.530   4.518   0.956
29383SOL    HW289989  12.434   4.578   1.056
29384SOL     OW89990   0.862   4.186   1.704
29384SOL    HW189991   0.819   4.157   1.784
29384SOL    HW289992   0.832   4.125   1.637
29385SOL     OW89993  14.585   0.665   1.528
29385SOL    HW189994  14.680   0.670   1.541
29385SOL    HW289995  14.560   0.752   1.497
29386SOL     OW89996  13.566   6.869  14.645
29386SOL    HW189997  13.648   6.876  14.692
29386SOL    HW289998  13.522   6.953  14.659
29387SOL     OW89999   0.728  13.801   2.860
29387SOL    HW190000   0.652  13.765   2.906
29387SOL    HW290001   0.803  13.773   2.913
29388SOL     OW90002  13.557  14.141   2.770
29388SOL    HW190003  13.612  14.166   2.844
29388SOL    HW290004  13.486  14.090   2.808
29389SOL     OW90005   5.623   4.486   0.756
29389SOL    HW190006   5.594   4.575   0.775
29389SOL    HW290007   5.542   4.437   0.741
29390SOL     OW90008  12.166   2.928  12.446
29390SOL    HW190009  12.235   2.863  12.461
29390SOL    HW290010  12.164   2.980  12.526
29391SOL     OW90011   4.935   4.188   5.927
29391SOL    HW190012   4.897   4.107   5.961
29391SOL    HW290013   5.029   4.178   5.940
29392SOL     OW90014   4.969   8.923  13.454
29392SOL    HW190015   4.944   8.841  13.412
29392SOL    HW290016   5.008   8.975  13.384
29393SOL     OW90017   8.526   2.226   6.476
29393SOL    HW190018   8.488   2.208   6.563
29393SOL    HW290019   8.530   2.321   6.472
29394SOL     OW90020   1.276   3.224   1.570
29394SOL    HW190021   1.307   3.313   1.587
29394SOL    HW290022   1.356   3.172   1.565
29395SOL     OW90023   8.718   3.061  12.116
29395SOL    HW190024   8.686   3.129  12.175
29395SOL    HW290025   8.640   3.012  12.091
29396SOL     OW90026   6.255   5.612  12.302
29396SOL    HW190027   6.234   5.678  12.368
29396SOL    HW290028   6.171   5.583  12.269
29397SOL     OW90029  11.835  13.079  11.625
29397SOL    HW190030  11.766  13.041  11.571
29397SOL    HW290031  11.904  13.101  11.563
29398SOL     OW90032   2.629   7.053  13.149
29398SOL    HW190033   2.694   7.000  13.196
29398SOL    HW290034   2.671   7.138  13.137
29399SOL     OW90035   4.643   2.264   3.526
29399SOL    HW190036   4.595   2.334   3.482
29399SOL    HW290037   4.688   2.218   3.455
29400SOL     OW90038  13.835  10.609   4.917
29400SOL    HW190039  13.894  10.539   4.947
29400SOL    HW290040  13.822  10.591   4.824
29401SOL     OW90041  11.281   4.471   5.247
29401SOL    HW190042  11.205   4.431   5.206
29401SOL    HW290043  11.356   4.424   5.210
29402SOL     OW90044   5.718  10.490   1.363
29402SOL    HW190045   5.762  10.420   1.315
29402SOL    HW290046   5.647  10.446   1.410
29403SOL     OW90047   3.442   2.307   7.770
29403SOL    HW190048   3.404   2.265   7.848
29403SOL    HW290049   3.467   2.234   7.714
29404SOL     OW90050   6.124  11.830   1.737
29404SOL    HW190051   6.076  11.853   1.816
29404SOL    HW290052   6.104  11.901   1.676
29405SOL     OW90053  11.447  11.453  12.463
29405SOL    HW190054  11.453  11.460  12.558
29405SOL    HW290055  11.391  11.378  12.447
29406SOL     OW90056   7.233  12.232   4.884
29406SOL    HW190057   7.205  12.203   4.797
29406SOL    HW290058   7.154  12.229   4.937
29407SOL     OW90059   5.898  13.889   5.967
29407SOL    HW190060   5.821  13.834   5.951
29407SOL    HW290061   5.866  13.979   5.955
29408SOL     OW90062   5.465  10.905   0.567
29408SOL    HW190063   5.446  10.823   0.522
29408SOL    HW290064   5.475  10.880   0.659
29409SOL     OW90065   2.120   3.945   2.450
29409SOL    HW190066   2.084   3.857   2.453
29409SOL    HW290067   2.106   3.975   2.360
29410SOL     OW90068   0.317   2.592   3.094
29410SOL    HW190069   0.347   2.653   3.026
29410SOL    HW290070   0.250   2.641   3.142
29411SOL     OW90071   4.245   7.473  11.545
29411SOL    HW190072   4.186   7.494  11.617
29411SOL    HW290073   4.331   7.464  11.586
29412SOL     OW90074   2.684   5.316  11.995
29412SOL    HW190075   2.698   5.393  11.939
29412SOL    HW290076   2.758   5.317  12.055
29413SOL     OW90077   4.145   1.354  14.355
29413SOL    HW190078   4.134   1.407  14.276
29413SOL    HW290079   4.235   1.373  14.384
29414SOL     OW90080  13.594   4.333   6.412
29414SOL    HW190081  13.672   4.342   6.356
29414SOL    HW290082  13.589   4.416   6.459
29415SOL     OW90083   0.715  14.700  13.722
29415SOL    HW190084   0.627  14.732  13.702
29415SOL    HW290085   0.703  14.637  13.793
29416SOL     OW90086  11.284  12.792  10.213
29416SOL    HW190087  11.243  12.837  10.287
29416SOL    HW290088  11.211  12.769  10.156
29417SOL     OW90089   3.367   0.613  10.552
29417SOL    HW190090   3.375   0.590  10.644
29417SOL    HW290091   3.434   0.679  10.537
29418SOL     OW90092  10.264  14.820   4.226
29418SOL    HW190093  10.194  14.870   4.185
29418SOL    HW290094  10.343  14.846   4.179
29419SOL     OW90095   8.851   5.070   8.073
29419SOL    HW190096   8.792   5.016   8.020
29419SOL    HW290097   8.926   5.086   8.015
29420SOL     OW90098   6.603   4.908   2.131
29420SOL    HW190099   6.558   4.991   2.147
29420SOL    HW290100   6.696   4.931   2.135
29421SOL     OW90101  14.226   3.669   4.248
29421SOL    HW190102  14.263   3.731   4.185
29421SOL    HW290103  14.284   3.593   4.245
29422SOL     OW90104   5.597   9.847  10.872
29422SOL    HW190105   5.526   9.796  10.911
29422SOL    HW290106   5.669   9.784  10.862
29423SOL     OW90107   2.817   0.031   9.297
29423SOL    HW190108   2.803   0.017   9.204
29423SOL    HW290109   2.836   0.125   9.305
29424SOL     OW90110   4.857   6.601  11.419
29424SOL    HW190111   4.830   6.614  11.328
29424SOL    HW290112   4.842   6.686  11.461
29425SOL     OW90113   4.473  13.585   1.053
29425SOL    HW190114   4.501  13.657   0.997
29425SOL    HW290115   4.480  13.618   1.142
29426SOL     OW90116  12.237   8.236  11.098
29426SOL    HW190117  12.143   8.244  11.114
29426SOL    HW290118  12.248   8.262  11.007
29427SOL     OW90119   1.535  14.436   2.619
29427SOL    HW190120   1.451  14.421   2.662
29427SOL    HW290121   1.512  14.453   2.528
29428SOL     OW90122  12.452   2.294   8.883
29428SOL    HW190123  12.482   2.374   8.841
29428SOL    HW290124  12.485   2.300   8.973
29429SOL     OW90125   5.346   9.529   5.659
29429SOL    HW190126   5.376   9.481   5.582
29429SOL    HW290127   5.370   9.473   5.733
29430SOL     OW90128  10.132   6.678  10.939
29430SOL    HW190129  10.040   6.696  10.956
29430SOL    HW290130  10.178   6.758  10.967
29431SOL     OW90131  12.052   3.949  11.067
29431SOL    HW190132  12.014   4.036  11.051
29431SOL    HW290133  12.059   3.909  10.980
29432SOL     OW90134   8.758   5.804  10.900
29432SOL    HW190135   8.791   5.861  10.970
29432SOL    HW290136   8.811   5.724  10.909
29433SOL     OW90137  12.640  11.293   4.407
29433SOL    HW190138  12.568  11.304   4.344
29433SOL    HW290139  12.719  11.311   4.356
29434SOL     OW90140   8.626   5.826   2.573
29434SOL    HW190141   8.672   5.788   2.647
29434SOL    HW290142   8.661   5.780   2.497
29435SOL     OW90143   8.801   4.484   7.715
29435SOL    HW190144   8.755   4.512   7.794
29435SOL    HW290145   8.731   4.458   7.655
29436SOL     OW90146   5.028  10.217  10.550
29436SOL    HW190147   5.064  10.163  10.621
29436SOL    HW290148   5.052  10.307  10.573
29437SOL     OW90149   8.928   3.059   1.046
29437SOL    HW190150   9.007   3.101   1.011
29437SOL    HW290151   8.957   3.020   1.129
29438SOL     OW90152   0.613   8.349  11.201
29438SOL    HW190153   0.537   8.341  11.259
29438SOL    HW290154   0.663   8.269  11.215
29439SOL     OW90155   0.724   1.053  13.585
29439SOL    HW190156   0.777   1.019  13.512
29439SOL    HW290157   0.752   1.144  13.595
29440SOL     OW90158   2.895   4.957  10.430
29440SOL    HW190159   2.963   5.002  10.480
29440SOL    HW290160   2.942   4.891  10.380
29441SOL     OW90161  10.169   6.789   2.676
29441SOL    HW190162  10.235   6.722   2.654
29441SOL    HW290163  10.211   6.841   2.745
29442SOL     OW90164   6.453   8.310  11.895
29442SOL    HW190165   6.516   8.280  11.830
29442SOL    HW290166   6.368   8.303  11.851
29443SOL     OW90167   0.043   1.954   4.464
29443SOL    HW190168  14.872   1.893   4.405
29443SOL    HW290169  14.861   1.959   4.541
29444SOL     OW90170   3.595  11.641  13.528
29444SOL    HW190171   3.673  11.618  13.578
29444SOL    HW290172   3.527  11.583  13.562
29445SOL     OW90173   4.976   8.212  10.195
29445SOL    HW190174   4.943   8.184  10.110
29445SOL    HW290175   4.910   8.181  10.258
29446SOL     OW90176   2.422   4.124   7.382
29446SOL    HW190177   2.359   4.179   7.335
29446SOL    HW290178   2.370   4.052   7.418
29447SOL     OW90179   3.003   1.509   1.618
29447SOL    HW190180   2.930   1.571   1.623
29447SOL    HW290181   3.036   1.519   1.529
29448SOL     OW90182  14.387  12.092   7.017
29448SOL    HW190183  14.448  12.138   7.075
29448SOL    HW290184  14.335  12.037   7.077
29449SOL     OW90185   2.159   6.461   1.107
29449SOL    HW190186   2.247   6.481   1.075
29449SOL    HW290187   2.101   6.504   1.045
29450SOL     OW90188  12.157  12.812   9.819
29450SOL    HW190189  12.158  12.747   9.889
29450SOL    HW290190  12.166  12.896   9.865
29451SOL     OW90191  10.522   0.309  10.503
29451SOL    HW190192  10.461   0.354  10.444
29451SOL    HW290193  10.502   0.345  10.589
29452SOL     OW90194  13.497   6.564   0.208
29452SOL    HW190195  13.427   6.621   0.240
29452SOL    HW290196  13.470   6.476   0.232
29453SOL     OW90197   3.111   8.837   4.634
29453SOL    HW190198   3.052   8.767   4.660
29453SOL    HW290199   3.190   8.824   4.686
29454SOL     OW90200  10.375  13.298  12.568
29454SOL    HW190201  10.468  13.298  12.550
29454SOL    HW290202  10.361  13.218  12.620
29455SOL     OW90203   0.567   4.207   0.505
29455SOL    HW190204   0.523   4.263   0.441
29455SOL    HW290205   0.557   4.253   0.588
29456SOL     OW90206   6.196   9.177   9.643
29456SOL    HW190207   6.106   9.185   9.613
29456SOL    HW290208   6.209   9.083   9.655
29457SOL     OW90209   7.404   9.795  10.919
29457SOL    HW190210   7.360   9.799  10.834
29457SOL    HW290211   7.340   9.756  10.978
29458SOL     OW90212  11.442  10.808  12.854
29458SOL    HW190213  11.467  10.874  12.919
29458SOL    HW290214  11.444  10.725  12.902
29459SOL     OW90215  11.610   1.733   8.801
29459SOL    HW190216  11.591   1.667   8.867
29459SOL    HW290217  11.684   1.782   8.837
29460SOL     OW90218   9.514  10.984  12.451
29460SOL    HW190219   9.555  10.898  12.456
29460SOL    HW290220   9.467  10.993  12.534
29461SOL     OW90221  10.659  10.769   3.459
29461SOL    HW190222  10.708  10.771   3.376
29461SOL    HW290223  10.683  10.851   3.502
29462SOL     OW90224  12.235   8.361  10.431
29462SOL    HW190225  12.310   8.413  10.463
29462SOL    HW290226  12.273   8.303  10.366
29463SOL     OW90227   7.371   7.476  13.569
29463SOL    HW190228   7.303   7.524  13.522
29463SOL    HW290229   7.432   7.448  13.501
29464SOL     OW90230   3.973  10.797  14.599
29464SOL    HW190231   3.894  10.756  14.633
29464SOL    HW290232   4.011  10.842  14.675
29465SOL     OW90233   0.656  14.371   9.186
29465SOL    HW190234   0.703  14.364   9.103
29465SOL    HW290235   0.595  14.297   9.185
29466SOL     OW90236   2.412   5.591   5.678
29466SOL    HW190237   2.367   5.661   5.727
29466SOL    HW290238   2.393   5.512   5.727
29467SOL     OW90239  14.422   3.402  13.746
29467SOL    HW190240  14.418   3.395  13.650
29467SOL    HW290241  14.332   3.386  13.775
29468SOL     OW90242  10.489   4.637  10.008
29468SOL    HW190243  10.535   4.553  10.016
29468SOL    HW290244  10.405   4.622  10.052
29469SOL     OW90245   3.298   7.897  10.316
29469SOL    HW190246   3.284   7.833  10.246
29469SOL    HW290247   3.348   7.848  10.382
29470SOL     OW90248  10.312   7.841  14.443
29470SOL    HW190249  10.313   7.867  14.535
29470SOL    HW290250  10.220   7.848  14.418
29471SOL     OW90251   0.181  11.910   2.691
29471SOL    HW190252   0.188  12.001   2.721
29471SOL    HW290253   0.218  11.911   2.603
29472SOL     OW90254  10.792  11.814   6.357
29472SOL    HW190255  10.815  11.835   6.266
29472SOL    HW290256  10.787  11.899   6.401
29473SOL     OW90257   6.542   0.118  12.926
29473SOL    HW190258   6.635   0.098  12.936
29473SOL    HW290259   6.512   0.136  13.015
29474SOL     OW90260   4.793   1.001  10.189
29474SOL    HW190261   4.806   0.940  10.261
29474SOL    HW290262   4.813   0.950  10.110
29475SOL     OW90263   2.968  10.128   6.577
29475SOL    HW190264   2.985  10.055   6.638
29475SOL    HW290265   2.875  10.148   6.590
29476SOL     OW90266  11.328   5.802   6.961
29476SOL    HW190267  11.301   5.799   7.053
29476SOL    HW290268  11.361   5.891   6.949
29477SOL     OW90269   5.851  12.898   4.188
29477SOL    HW190270   5.832  12.947   4.108
29477SOL    HW290271   5.941  12.868   4.176
29478SOL     OW90272  10.382  13.778   7.834
29478SOL    HW190273  10.465  13.776   7.786
29478SOL    HW290274  10.314  13.770   7.767
29479SOL     OW90275   4.133  13.401  13.760
29479SOL    HW190276   4.191  13.462  13.806
29479SOL    HW290277   4.076  13.457  13.707
29480SOL     OW90278   3.523   7.457   1.418
29480SOL    HW190279   3.505   7.366   1.438
29480SOL    HW290280   3.515   7.463   1.323
29481SOL     OW90281  11.907   6.950   8.093
29481SOL    HW190282  12.001   6.962   8.112
29481SOL    HW290283  11.863   6.985   8.170
29482SOL     OW90284   6.619   5.387  11.761
29482SOL    HW190285   6.553   5.346  11.816
29482SOL    HW290286   6.698   5.388  11.814
29483SOL     OW90287   2.471   6.964   1.665
29483SOL    HW190288   2.560   6.995   1.682
29483SOL    HW290289   2.419   7.044   1.656
29484SOL     OW90290   4.341  11.980   9.540
29484SOL    HW190291   4.260  11.978   9.590
29484SOL    HW290292   4.343  12.066   9.498
29485SOL     OW90293   0.123  10.790   8.123
29485SOL    HW190294   0.093  10.750   8.205
29485SOL    HW290295   0.185  10.858   8.152
29486SOL     OW90296   2.418   5.371  12.146
29486SOL    HW190297   2.497   5.385  12.199
29486SOL    HW290298   2.436   5.416  12.064
29487SOL     OW90299   9.924   3.071   9.769
29487SOL    HW190300   9.831   3.095   9.770
29487SOL    HW290301   9.933   3.005   9.837
29488SOL     OW90302   3.601  13.236  10.591
29488SOL    HW190303   3.592  13.317  10.540
29488SOL    HW290304   3.573  13.260  10.679
29489SOL     OW90305   5.950  12.432   7.255
29489SOL    HW190306   5.966  12.338   7.247
29489SOL    HW290307   5.875  12.449   7.198
29490SOL     OW90308  12.353   0.049  12.717
29490SOL    HW190309  12.340   0.038  12.811
29490SOL    HW290310  12.429  14.868  12.697
29491SOL     OW90311   8.881   9.790   2.981
29491SOL    HW190312   8.910   9.808   3.070
29491SOL    HW290313   8.946   9.729   2.945
29492SOL     OW90314  11.599   2.468  11.920
29492SOL    HW190315  11.647   2.460  12.002
29492SOL    HW290316  11.666   2.466  11.852
29493SOL     OW90317   3.491   9.922   3.487
29493SOL    HW190318   3.574   9.919   3.441
29493SOL    HW290319   3.435   9.979   3.433
29494SOL     OW90320   5.544  11.948  10.549
29494SOL    HW190321   5.495  11.964  10.468
29494SOL    HW290322   5.476  11.928  10.614
29495SOL     OW90323   2.352   6.019   9.899
29495SOL    HW190324   2.353   5.961   9.822
29495SOL    HW290325   2.443   6.026   9.925
29496SOL     OW90326  10.820  12.418   5.676
29496SOL    HW190327  10.779  12.359   5.612
29496SOL    HW290328  10.844  12.495   5.625
29497SOL     OW90329  10.434   3.255   9.806
29497SOL    HW190330  10.478   3.340   9.807
29497SOL    HW290331  10.459   3.216   9.723
29498SOL     OW90332  12.407   4.443   6.801
29498SOL    HW190333  12.363   4.454   6.716
29498SOL    HW290334  12.349   4.385   6.850
29499SOL     OW90335   4.791   5.696   5.333
29499SOL    HW190336   4.786   5.702   5.238
29499SOL    HW290337   4.849   5.768   5.359
29500SOL     OW90338   5.616   4.798   8.323
29500SOL    HW190339   5.565   4.716   8.325
29500SOL    HW290340   5.590   4.840   8.241
29501SOL     OW90341   5.486   6.387   5.203
29501SOL    HW190342   5.401   6.432   5.206
29501SOL    HW290343   5.484   6.339   5.120
29502SOL     OW90344   3.937   7.483   4.965
29502SOL    HW190345   3.886   7.564   4.966
29502SOL    HW290346   4.000   7.495   4.894
29503SOL     OW90347  10.246  11.561   5.515
29503SOL    HW190348  10.279  11.563   5.425
29503SOL    HW290349  10.151  11.573   5.506
29504SOL     OW90350   6.415   8.891   9.318
29504SOL    HW190351   6.398   8.878   9.411
29504SOL    HW290352   6.510   8.900   9.312
29505SOL     OW90353  10.423  10.814   3.554
29505SOL    HW190354  10.509  10.804   3.515
29505SOL    HW290355  10.376  10.734   3.531
29506SOL     OW90356  11.553   4.138   0.840
29506SOL    HW190357  11.507   4.097   0.913
29506SOL    HW290358  11.625   4.186   0.881
29507SOL     OW90359   1.709  11.648   5.988
29507SOL    HW190360   1.695  11.575   6.047
29507SOL    HW290361   1.804  11.658   5.982
29508SOL     OW90362   1.401  11.632   4.494
29508SOL    HW190363   1.412  11.726   4.484
29508SOL    HW290364   1.379  11.600   4.407
29509SOL     OW90365   3.596   6.751   5.864
29509SOL    HW190366   3.562   6.698   5.935
29509SOL    HW290367   3.691   6.750   5.877
29510SOL     OW90368   1.934  13.767   0.970
29510SOL    HW190369   1.880  13.727   1.039
29510SOL    HW290370   1.882  13.757   0.890
29511SOL     OW90371  11.390   0.360   5.348
29511SOL    HW190372  11.331   0.296   5.387
29511SOL    HW290373  11.333   0.419   5.299
29512SOL     OW90374   4.568   4.008   3.425
29512SOL    HW190375   4.599   4.087   3.382
29512SOL    HW290376   4.474   4.005   3.407
29513SOL     OW90377  11.621   1.717   1.742
29513SOL    HW190378  11.687   1.652   1.717
29513SOL    HW290379  11.567   1.672   1.807
29514SOL     OW90380  12.604   5.232   0.101
29514SOL    HW190381  12.513   5.255   0.081
29514SOL    HW290382  12.651   5.244   0.019
29515SOL     OW90383  11.375   6.142  10.691
29515SOL    HW190384  11.337   6.223  10.726
29515SOL    HW290385  11.325   6.072  10.733
29516SOL     OW90386  11.484   8.744  14.734
29516SOL    HW190387  11.573   8.721  14.705
29516SOL    HW290388  11.490   8.836  14.760
29517SOL     OW90389  11.529   3.803   2.538
29517SOL    HW190390  11.586   3.726   2.527
29517SOL    HW290391  11.570   3.871   2.484
29518SOL     OW90392  11.869   5.253  10.091
29518SOL    HW190393  11.897   5.168  10.127
29518SOL    HW290394  11.866   5.311  10.167
29519SOL     OW90395   5.720  13.516  14.493
29519SOL    HW190396   5.641  13.551  14.535
29519SOL    HW290397   5.696  13.426  14.469
29520SOL     OW90398  12.208   3.411   3.067
29520SOL    HW190399  12.215   3.417   3.162
29520SOL    HW290400  12.138   3.472   3.044
29521SOL     OW90401  13.696   1.819   6.577
29521SOL    HW190402  13.651   1.750   6.528
29521SOL    HW290403  13.760   1.772   6.631
29522SOL     OW90404   2.966   2.840   0.557
29522SOL    HW190405   3.024   2.786   0.503
29522SOL    HW290406   2.929   2.904   0.496
29523SOL     OW90407   9.113   3.976  11.651
29523SOL    HW190408   9.123   4.067  11.622
29523SOL    HW290409   9.023   3.973  11.685
29524SOL     OW90410   3.424  11.532  12.760
29524SOL    HW190411   3.462  11.463  12.706
29524SOL    HW290412   3.358  11.488  12.813
29525SOL     OW90413  12.004  10.240   7.233
29525SOL    HW190414  12.034  10.149   7.235
29525SOL    HW290415  12.055  10.284   7.301
29526SOL     OW90416   4.121  12.703  12.348
29526SOL    HW190417   4.163  12.786  12.372
29526SOL    HW290418   4.145  12.690  12.256
29527SOL     OW90419   7.160  13.715  10.403
29527SOL    HW190420   7.123  13.798  10.435
29527SOL    HW290421   7.193  13.672  10.482
29528SOL     OW90422   4.978   8.069   3.509
29528SOL    HW190423   4.909   8.112   3.460
29528SOL    HW290424   4.984   8.118   3.591
29529SOL     OW90425   2.570  11.994   7.602
29529SOL    HW190426   2.476  11.981   7.590
29529SOL    HW290427   2.610  11.929   7.544
29530SOL     OW90428   2.742   1.080   2.533
29530SOL    HW190429   2.671   1.036   2.580
29530SOL    HW290430   2.785   1.134   2.599
29531SOL     OW90431  11.532   3.813   6.220
29531SOL    HW190432  11.547   3.775   6.307
29531SOL    HW290433  11.460   3.760   6.184
29532SOL     OW90434   1.836   3.982   8.270
29532SOL    HW190435   1.870   3.912   8.215
29532SOL    HW290436   1.912   4.038   8.288
29533SOL     OW90437  10.546   8.656   6.203
29533SOL    HW190438  10.470   8.702   6.237
29533SOL    HW290439  10.530   8.649   6.109
29534SOL     OW90440   2.422   8.290   0.861
29534SOL    HW190441   2.427   8.350   0.935
29534SOL    HW290442   2.439   8.346   0.784
29535SOL     OW90443   2.671  13.896   4.401
29535SOL    HW190444   2.753  13.879   4.447
29535SOL    HW290445   2.657  13.990   4.412
29536SOL     OW90446   3.713  12.663   1.745
29536SOL    HW190447   3.682  12.612   1.820
29536SOL    HW290448   3.640  12.662   1.683
29537SOL     OW90449   7.258   1.990  12.452
29537SOL    HW190450   7.272   2.042  12.531
29537SOL    HW290451   7.294   1.904  12.473
29538SOL     OW90452   0.980   2.586   0.561
29538SOL    HW190453   1.020   2.655   0.508
29538SOL    HW290454   1.022   2.505   0.532
29539SOL     OW90455   2.021   8.531  12.994
29539SOL    HW190456   2.024   8.459  12.931
29539SOL    HW290457   2.071   8.499  13.069
29540SOL     OW90458   6.138  14.379   5.409
29540SOL    HW190459   6.190  14.348   5.335
29540SOL    HW290460   6.074  14.310   5.424
29541SOL     OW90461   5.366  12.146   6.913
29541SOL    HW190462   5.366  12.208   6.987
29541SOL    HW290463   5.287  12.168   6.864
29542SOL     OW90464   6.998   9.087  12.183
29542SOL    HW190465   6.943   9.065  12.107
29542SOL    HW290466   7.046   9.006  12.201
29543SOL     OW90467   9.096   7.991  11.956
29543SOL    HW190468   9.005   7.964  11.965
29543SOL    HW290469   9.098   8.044  11.877
29544SOL     OW90470  13.501   8.270   8.596
29544SOL    HW190471  13.465   8.319   8.670
29544SOL    HW290472  13.463   8.182   8.604
29545SOL     OW90473  14.333  12.044   8.704
29545SOL    HW190474  14.261  12.065   8.645
29545SOL    HW290475  14.406  12.020   8.646
29546SOL     OW90476   2.020  12.697   8.279
29546SOL    HW190477   1.941  12.704   8.334
29546SOL    HW290478   1.991  12.650   8.201
29547SOL     OW90479   5.374   7.925   6.913
29547SOL    HW190480   5.429   7.968   6.848
29547SOL    HW290481   5.323   7.997   6.951
29548SOL     OW90482   9.271   8.114  10.010
29548SOL    HW190483   9.309   8.064   9.937
29548SOL    HW290484   9.177   8.110   9.996
29549SOL     OW90485   3.610   1.516   1.221
29549SOL    HW190486   3.699   1.519   1.256
29549SOL    HW290487   3.569   1.440   1.265
29550SOL     OW90488   7.538   4.030  14.802
29550SOL    HW190489   7.536   4.117  14.763
29550SOL    HW290490   7.448   3.998  14.794
29551SOL     OW90491   7.194   5.909   2.470
29551SOL    HW190492   7.260   5.945   2.529
29551SOL    HW290493   7.111   5.940   2.506
29552SOL     OW90494  13.684   5.267   6.343
29552SOL    HW190495  13.773   5.238   6.363
29552SOL    HW290496  13.674   5.351   6.389
29553SOL     OW90497  12.639   2.035   1.797
29553SOL    HW190498  12.719   1.995   1.831
29553SOL    HW290499  12.570   1.971   1.815
29554SOL     OW90500   6.803  11.990   8.353
29554SOL    HW190501   6.873  11.925   8.357
29554SOL    HW290502   6.849  12.074   8.346
29555SOL     OW90503   5.484   9.298   1.390
29555SOL    HW190504   5.468   9.205   1.399
29555SOL    HW290505   5.405   9.333   1.349
29556SOL     OW90506   6.243   4.094   6.590
29556SOL    HW190507   6.208   4.132   6.510
29556SOL    HW290508   6.249   4.167   6.651
29557SOL     OW90509   0.870   6.424   4.802
29557SOL    HW190510   0.860   6.402   4.709
29557SOL    HW290511   0.782   6.416   4.838
29558SOL     OW90512   8.413   7.815  12.466
29558SOL    HW190513   8.390   7.815  12.559
29558SOL    HW290514   8.333   7.842  12.421
29559SOL     OW90515  12.010   1.832   7.785
29559SOL    HW190516  11.968   1.854   7.702
29559SOL    HW290517  11.954   1.874   7.851
29560SOL     OW90518   9.586   4.706   1.566
29560SOL    HW190519   9.521   4.766   1.529
29560SOL    HW290520   9.547   4.619   1.555
29561SOL     OW90521   7.021   2.309   7.940
29561SOL    HW190522   7.089   2.248   7.968
29561SOL    HW290523   6.992   2.276   7.856
29562SOL     OW90524  10.256   9.438  11.659
29562SOL    HW190525  10.253   9.364  11.599
29562SOL    HW290526  10.349   9.460  11.665
29563SOL     OW90527   5.078   6.881   5.063
29563SOL    HW190528   4.995   6.870   5.109
29563SOL    HW290529   5.096   6.795   5.025
29564SOL     OW90530  14.851   7.927  10.633
29564SOL    HW190531  14.779   7.963  10.684
29564SOL    HW290532   0.023   7.869  10.693
29565SOL     OW90533   6.686   1.110   5.439
29565SOL    HW190534   6.756   1.173   5.455
29565SOL    HW290535   6.613   1.164   5.408
29566SOL     OW90536   5.295   3.063   3.735
29566SOL    HW190537   5.333   3.054   3.822
29566SOL    HW290538   5.254   3.150   3.735
29567SOL     OW90539  12.800   6.027   5.042
29567SOL    HW190540  12.744   5.949   5.043
29567SOL    HW290541  12.874   6.002   4.987
29568SOL     OW90542   3.695   6.604  10.122
29568SOL    HW190543   3.684   6.584  10.029
29568SOL    HW290544   3.777   6.653  10.126
29569SOL     OW90545   5.067   0.440  13.780
29569SOL    HW190546   5.053   0.443  13.686
29569SOL    HW290547   5.140   0.380  13.792
29570SOL     OW90548   4.910   2.970   5.786
29570SOL    HW190549   4.973   3.034   5.820
29570SOL    HW290550   4.890   2.913   5.860
29571SOL     OW90551  11.163   4.242  13.630
29571SOL    HW190552  11.211   4.159  13.639
29571SOL    HW290553  11.120   4.236  13.545
29572SOL     OW90554   6.964   2.424  14.087
29572SOL    HW190555   6.955   2.497  14.148
29572SOL    HW290556   6.894   2.436  14.024
29573SOL     OW90557   7.791   0.146   3.290
29573SOL    HW190558   7.887   0.139   3.289
29573SOL    HW290559   7.769   0.158   3.382
29574SOL     OW90560  11.098   7.889   8.333
29574SOL    HW190561  11.026   7.840   8.294
29574SOL    HW290562  11.055   7.950   8.394
29575SOL     OW90563   4.509   9.562  13.125
29575SOL    HW190564   4.523   9.523  13.212
29575SOL    HW290565   4.553   9.501  13.065
29576SOL     OW90566   7.126   2.225   7.233
29576SOL    HW190567   7.069   2.250   7.305
29576SOL    HW290568   7.212   2.261   7.257
29577SOL     OW90569  11.720   9.010   5.012
29577SOL    HW190570  11.777   8.935   4.997
29577SOL    HW290571  11.710   9.050   4.925
29578SOL     OW90572  10.219  11.644   3.389
29578SOL    HW190573  10.295  11.700   3.375
29578SOL    HW290574  10.228  11.613   3.480
29579SOL     OW90575   2.104  13.674   7.430
29579SOL    HW190576   2.092  13.685   7.524
29579SOL    HW290577   2.015  13.663   7.396
29580SOL     OW90578  10.478   1.041   0.958
29580SOL    HW190579  10.494   1.084   0.874
29580SOL    HW290580  10.414   0.973   0.938
29581SOL     OW90581   4.038   2.572   0.850
29581SOL    HW190582   4.130   2.556   0.875
29581SOL    HW290583   4.026   2.666   0.867
29582SOL     OW90584   5.272   0.406   3.643
29582SOL    HW190585   5.357   0.425   3.683
29582SOL    HW290586   5.223   0.488   3.648
29583SOL     OW90587  14.367  13.992   0.926
29583SOL    HW190588  14.298  13.968   0.864
29583SOL    HW290589  14.439  13.932   0.905
29584SOL     OW90590   0.195  11.866   9.357
29584SOL    HW190591   0.186  11.950   9.403
29584SOL    HW290592   0.112  11.855   9.311
29585SOL     OW90593   9.314  10.804  14.858
29585SOL    HW190594   9.273  10.863  14.794
29585SOL    HW290595   9.253  10.730  14.864
29586SOL     OW90596   9.150   1.434   5.335
29586SOL    HW190597   9.221   1.449   5.273
29586SOL    HW290598   9.073   1.472   5.292
29587SOL     OW90599  10.778   1.280   2.594
29587SOL    HW190600  10.763   1.219   2.521
29587SOL    HW290601  10.818   1.356   2.554
29588SOL     OW90602  12.567   3.566   5.124
29588SOL    HW190603  12.627   3.625   5.170
29588SOL    HW290604  12.561   3.489   5.181
29589SOL     OW90605   0.051  10.928   1.853
29589SOL    HW190606   0.115  10.892   1.915
29589SOL    HW290607  14.842  10.925   1.901
29590SOL     OW90608   8.780   3.585   6.394
29590SOL    HW190609   8.846   3.641   6.435
29590SOL    HW290610   8.717   3.568   6.464
29591SOL     OW90611   9.485   3.858   1.288
29591SOL    HW190612   9.552   3.847   1.355
29591SOL    HW290613   9.455   3.769   1.269
29592SOL     OW90614  14.457   4.145  11.119
29592SOL    HW190615  14.395   4.215  11.138
29592SOL    HW290616  14.501   4.173  11.039
29593SOL     OW90617   2.826   9.666   1.835
29593SOL    HW190618   2.866   9.687   1.751
29593SOL    HW290619   2.816   9.571   1.834
29594SOL     OW90620   0.324   5.333  11.353
29594SOL    HW190621   0.406   5.341  11.305
29594SOL    HW290622   0.304   5.239  11.351
29595SOL     OW90623   3.168  12.933   0.598
29595SOL    HW190624   3.246  12.882   0.576
29595SOL    HW290625   3.172  12.943   0.694
29596SOL     OW90626  14.051  11.393   4.986
29596SOL    HW190627  13.969  11.381   5.034
29596SOL    HW290628  14.061  11.313   4.934
29597SOL     OW90629  13.684   9.875   1.184
29597SOL    HW190630  13.670   9.944   1.119
29597SOL    HW290631  13.603   9.824   1.182
29598SOL     OW90632  11.618   1.405   6.323
29598SOL    HW190633  11.611   1.479   6.263
29598SOL    HW290634  11.637   1.330   6.267
29599SOL     OW90635   4.764  14.033   6.260
29599SOL    HW190636   4.708  13.956   6.267
29599SOL    HW290637   4.828  14.009   6.192
29600SOL     OW90638   9.762   6.355   1.643
29600SOL    HW190639   9.780   6.436   1.691
29600SOL    HW290640   9.818   6.290   1.684
29601SOL     OW90641   3.190   7.813   9.166
29601SOL    HW190642   3.214   7.866   9.242
29601SOL    HW290643   3.157   7.876   9.102
29602SOL     OW90644   8.118   2.275   8.676
29602SOL    HW190645   8.068   2.203   8.638
29602SOL    HW290646   8.086   2.281   8.766
29603SOL     OW90647   4.194   5.560   7.261
29603SOL    HW190648   4.119   5.578   7.318
29603SOL    HW290649   4.156   5.528   7.180
29604SOL     OW90650   4.474  12.030   1.406
29604SOL    HW190651   4.493  11.940   1.380
29604SOL    HW290652   4.529  12.084   1.349
29605SOL     OW90653   4.319  14.588   4.106
29605SOL    HW190654   4.395  14.638   4.136
29605SOL    HW290655   4.272  14.648   4.048
29606SOL     OW90656  12.400   3.272  13.553
29606SOL    HW190657  12.422   3.332  13.624
29606SOL    HW290658  12.461   3.199  13.563
29607SOL     OW90659   7.308  10.409   5.953
29607SOL    HW190660   7.344  10.323   5.929
29607SOL    HW290661   7.380  10.454   5.996
29608SOL     OW90662   3.181   2.608  12.449
29608SOL    HW190663   3.236   2.639  12.377
29608SOL    HW290664   3.112   2.673  12.456
29609SOL     OW90665  12.826   2.244   5.997
29609SOL    HW190666  12.746   2.252   5.945
29609SOL    HW290667  12.855   2.154   5.983
29610SOL     OW90668  13.045  14.241  11.434
29610SOL    HW190669  13.094  14.206  11.359
29610SOL    HW290670  13.002  14.320  11.400
29611SOL     OW90671  14.636   6.273   6.550
29611SOL    HW190672  14.620   6.362   6.518
29611SOL    HW290673  14.707   6.282   6.613
29612SOL     OW90674   4.330  11.727   9.409
29612SOL    HW190675   4.237  11.747   9.416
29612SOL    HW290676   4.374  11.807   9.437
29613SOL     OW90677  12.883   6.521   6.172
29613SOL    HW190678  12.818   6.527   6.102
29613SOL    HW290679  12.837   6.479   6.244
29614SOL     OW90680   3.704   8.307   6.408
29614SOL    HW190681   3.627   8.354   6.440
29614SOL    HW290682   3.778   8.350   6.451
29615SOL     OW90683   4.886   6.308   2.498
29615SOL    HW190684   4.958   6.367   2.474
29615SOL    HW290685   4.871   6.325   2.591
29616SOL     OW90686   0.172   6.853   5.124
29616SOL    HW190687   0.192   6.781   5.064
29616SOL    HW290688   0.198   6.820   5.210
29617SOL     OW90689   2.729   2.966   0.746
29617SOL    HW190690   2.656   2.991   0.689
29617SOL    HW290691   2.799   3.027   0.723
29618SOL     OW90692  12.567  11.669   1.011
29618SOL    HW190693  12.524  11.628   1.086
29618SOL    HW290694  12.505  11.656   0.938
29619SOL     OW90695   3.238   5.207  14.223
29619SOL    HW190696   3.221   5.211  14.317
29619SOL    HW290697   3.270   5.294  14.201
29620SOL     OW90698   9.114   2.824   8.716
29620SOL    HW190699   9.104   2.756   8.649
29620SOL    HW290700   9.204   2.812   8.748
29621SOL     OW90701  11.732  13.678   9.886
29621SOL    HW190702  11.786  13.740   9.838
29621SOL    HW290703  11.685  13.629   9.818
29622SOL     OW90704  11.346  13.184  10.890
29622SOL    HW190705  11.322  13.212  10.802
29622SOL    HW290706  11.291  13.107  10.907
29623SOL     OW90707   2.443  12.338   7.156
29623SOL    HW190708   2.511  12.327   7.090
29623SOL    HW290709   2.425  12.250   7.187
29624SOL     OW90710   8.676  13.017   7.887
29624SOL    HW190711   8.761  13.043   7.852
29624SOL    HW290712   8.664  13.072   7.965
29625SOL     OW90713  12.727   5.257  12.208
29625SOL    HW190714  12.668   5.187  12.180
29625SOL    HW290715  12.710   5.329  12.148
29626SOL     OW90716   3.279   4.751  14.100
29626SOL    HW190717   3.244   4.812  14.164
29626SOL    HW290718   3.205   4.731  14.042
29627SOL     OW90719   5.352   9.972  11.442
29627SOL    HW190720   5.429   9.916  11.437
29627SOL    HW290721   5.284   9.925  11.394
29628SOL     OW90722  13.751   2.724   7.537
29628SOL    HW190723  13.756   2.780   7.460
29628SOL    HW290724  13.657   2.714   7.553
29629SOL     OW90725  10.942   3.386   4.213
29629SOL    HW190726  10.927   3.430   4.297
29629SOL    HW290727  10.961   3.295   4.236
29630SOL     OW90728   0.717  14.620   0.637
29630SOL    HW190729   0.726  14.714   0.626
29630SOL    HW290730   0.777  14.598   0.708
29631SOL     OW90731   5.672   2.648   9.667
29631SOL    HW190732   5.612   2.637   9.740
29631SOL    HW290733   5.754   2.610   9.697
29632SOL     OW90734   2.380  11.095   0.988
29632SOL    HW190735   2.348  11.179   0.956
29632SOL    HW290736   2.305  11.036   0.981
29633SOL     OW90737  10.239  11.631   9.134
29633SOL    HW190738  10.308  11.626   9.067
29633SOL    HW290739  10.283  11.605   9.215
29634SOL     OW90740   5.141   2.552   0.609
29634SOL    HW190741   5.208   2.515   0.552
29634SOL    HW290742   5.182   2.555   0.695
29635SOL     OW90743   7.673   8.003  13.975
29635SOL    HW190744   7.724   8.082  13.961
29635SOL    HW290745   7.632   8.015  14.061
29636SOL     OW90746   4.640  12.842   0.778
29636SOL    HW190747   4.577  12.911   0.796
29636SOL    HW290748   4.587  12.767   0.751
29637SOL     OW90749   1.294   1.276  11.373
29637SOL    HW190750   1.325   1.286  11.463
29637SOL    HW290751   1.246   1.193  11.374
29638SOL     OW90752   8.275   7.177   7.642
29638SOL    HW190753   8.273   7.216   7.554
29638SOL    HW290754   8.368   7.162   7.660
29639SOL     OW90755  12.399  10.042   3.051
29639SOL    HW190756  12.395  10.047   2.955
29639SOL    HW290757  12.307  10.042   3.078
29640SOL     OW90758   3.531  11.125   6.343
29640SOL    HW190759   3.492  11.184   6.407
29640SOL    HW290760   3.497  11.038   6.367
29641SOL     OW90761   7.430   9.640   8.059
29641SOL    HW190762   7.353   9.667   8.010
29641SOL    HW290763   7.398   9.572   8.119
29642SOL     OW90764  10.299   5.821   9.348
29642SOL    HW190765  10.297   5.877   9.426
29642SOL    HW290766  10.350   5.871   9.284
29643SOL     OW90767  13.370   9.272   0.878
29643SOL    HW190768  13.459   9.269   0.844
29643SOL    HW290769  13.333   9.186   0.857
29644SOL     OW90770  12.873   8.047  10.218
29644SOL    HW190771  12.812   7.978  10.191
29644SOL    HW290772  12.823   8.100  10.280
29645SOL     OW90773   7.210   1.143   1.614
29645SOL    HW190774   7.258   1.223   1.638
29645SOL    HW290775   7.201   1.149   1.519
29646SOL     OW90776   7.568   2.809   9.686
29646SOL    HW190777   7.626   2.743   9.723
29646SOL    HW290778   7.499   2.821   9.751
29647SOL     OW90779   2.843  12.037  10.668
29647SOL    HW190780   2.929  11.996  10.657
29647SOL    HW290781   2.803  12.033  10.582
29648SOL     OW90782   4.663   0.730   1.039
29648SOL    HW190783   4.702   0.802   1.087
29648SOL    HW290784   4.673   0.654   1.096
29649SOL     OW90785   3.207   6.156   0.623
29649SOL    HW190786   3.171   6.227   0.676
29649SOL    HW290787   3.300   6.179   0.613
29650SOL     OW90788  13.926  12.113  12.775
29650SOL    HW190789  13.873  12.040  12.745
29650SOL    HW290790  13.883  12.190  12.740
29651SOL     OW90791   7.266   0.384   4.371
29651SOL    HW190792   7.244   0.319   4.437
29651SOL    HW290793   7.304   0.457   4.420
29652SOL     OW90794  13.884   1.780   7.392
29652SOL    HW190795  13.974   1.810   7.394
29652SOL    HW290796  13.884   1.707   7.330
29653SOL     OW90797   9.068   4.052   4.347
29653SOL    HW190798   9.066   3.958   4.365
29653SOL    HW290799   9.157   4.079   4.368
29654SOL     OW90800   4.539   9.435   9.223
29654SOL    HW190801   4.534   9.339   9.214
29654SOL    HW290802   4.481   9.468   9.155
29655SOL     OW90803  14.554   9.134   1.684
29655SOL    HW190804  14.648   9.135   1.664
29655SOL    HW290805  14.526   9.224   1.671
29656SOL     OW90806   9.222   7.227  13.796
29656SOL    HW190807   9.225   7.198  13.705
29656SOL    HW290808   9.289   7.295  13.802
29657SOL     OW90809   6.275  10.011  13.958
29657SOL    HW190810   6.316   9.926  13.944
29657SOL    HW290811   6.184   9.991  13.980
29658SOL     OW90812   2.242   2.266   1.187
29658SOL    HW190813   2.173   2.314   1.140
29658SOL    HW290814   2.323   2.287   1.139
29659SOL     OW90815   0.525  10.080  12.255
29659SOL    HW190816   0.604  10.109  12.210
29659SOL    HW290817   0.480  10.024  12.192
29660SOL     OW90818  11.568   9.253   1.142
29660SOL    HW190819  11.532   9.167   1.164
29660SOL    HW290820  11.553   9.262   1.048
29661SOL     OW90821   2.548   8.548   0.004
29661SOL    HW190822   2.516   8.524  14.791
29661SOL    HW290823   2.470   8.578   0.051
29662SOL     OW90824   7.875  13.837   3.932
29662SOL    HW190825   7.942  13.777   3.899
29662SOL    HW290826   7.913  13.875   4.011
29663SOL     OW90827  10.305  10.909   9.018
29663SOL    HW190828  10.383  10.944   8.975
29663SOL    HW290829  10.236  10.915   8.952
29664SOL     OW90830  13.559   4.287   6.079
29664SOL    HW190831  13.499   4.303   6.005
29664SOL    HW290832  13.640   4.331   6.053
29665SOL     OW90833  14.320   5.359   2.329
29665SOL    HW190834  14.267   5.422   2.377
29665SOL    HW290835  14.386   5.330   2.393
29666SOL     OW90836   1.042   7.155  12.802
29666SOL    HW190837   1.061   7.213  12.728
29666SOL    HW290838   1.112   7.170  12.864
29667SOL     OW90839   8.821   6.443  13.953
29667SOL    HW190840   8.741   6.491  13.930
29667SOL    HW290841   8.842   6.392  13.875
29668SOL     OW90842  14.683  12.666   4.611
29668SOL    HW190843  14.746  12.605   4.573
29668SOL    HW290844  14.734  12.745   4.629
29669SOL     OW90845   3.428  14.390   1.987
29669SOL    HW190846   3.374  14.463   1.955
29669SOL    HW290847   3.416  14.392   2.082
29670SOL     OW90848  12.176  13.382  12.973
29670SOL    HW190849  12.183  13.433  12.892
29670SOL    HW290850  12.261  13.395  13.016
29671SOL     OW90851   1.496   6.922  13.605
29671SOL    HW190852   1.507   6.897  13.514
29671SOL    HW290853   1.435   6.995  13.603
29672SOL     OW90854   4.727   2.906  10.748
29672SOL    HW190855   4.751   2.997  10.730
29672SOL    HW290856   4.674   2.880  10.672
29673SOL     OW90857   3.995   2.767   8.159
29673SOL    HW190858   3.900   2.775   8.149
29673SOL    HW290859   4.031   2.840   8.108
29674SOL     OW90860  12.378   6.909  12.470
29674SOL    HW190861  12.440   6.968  12.511
29674SOL    HW290862  12.309   6.897  12.535
29675SOL     OW90863  12.485   7.667  12.071
29675SOL    HW190864  12.452   7.736  12.014
29675SOL    HW290865  12.408   7.629  12.111
29676SOL     OW90866   9.480   2.088   7.881
29676SOL    HW190867   9.463   2.173   7.923
29676SOL    HW290868   9.426   2.089   7.802
29677SOL     OW90869   7.125  13.169   4.398
29677SOL    HW190870   7.073  13.173   4.318
29677SOL    HW290871   7.135  13.260   4.424
29678SOL     OW90872   0.150  12.250   2.553
29678SOL    HW190873   0.241  12.264   2.526
29678SOL    HW290874   0.112  12.197   2.483
29679SOL     OW90875   6.476   6.746   0.692
29679SOL    HW190876   6.463   6.748   0.787
29679SOL    HW290877   6.444   6.660   0.665
29680SOL     OW90878   2.408  10.730   0.112
29680SOL    HW190879   2.356  10.727   0.192
29680SOL    HW290880   2.498  10.745   0.141
29681SOL     OW90881   6.790   9.330   0.818
29681SOL    HW190882   6.868   9.281   0.792
29681SOL    HW290883   6.824   9.416   0.845
29682SOL     OW90884  11.001   3.873  12.667
29682SOL    HW190885  10.922   3.840  12.710
29682SOL    HW290886  11.000   3.831  12.580
29683SOL     OW90887   9.845   3.170   0.758
29683SOL    HW190888   9.865   3.207   0.673
29683SOL    HW290889   9.753   3.143   0.752
29684SOL     OW90890   2.497   6.232  14.788
29684SOL    HW190891   2.430   6.170  14.759
29684SOL    HW290892   2.504   6.217   0.008
29685SOL     OW90893   0.254   9.705   5.814
29685SOL    HW190894   0.211   9.619   5.816
29685SOL    HW290895   0.210   9.756   5.882
29686SOL     OW90896  12.291   0.487  10.452
29686SOL    HW190897  12.301   0.542  10.530
29686SOL    HW290898  12.309   0.545  10.378
29687SOL     OW90899   9.621  12.997  10.501
29687SOL    HW190900   9.562  13.033  10.568
29687SOL    HW290901   9.694  12.960  10.550
29688SOL     OW90902   0.048  14.301   0.017
29688SOL    HW190903   0.054  14.251  14.809
29688SOL    HW290904   0.040  14.235   0.085
29689SOL     OW90905   3.033   6.610  10.105
29689SOL    HW190906   2.969   6.654  10.161
29689SOL    HW290907   3.043   6.669  10.030
29690SOL     OW90908  10.944  11.805   3.800
29690SOL    HW190909  10.853  11.801   3.770
29690SOL    HW290910  10.977  11.887   3.764
29691SOL     OW90911   5.850   8.373   1.762
29691SOL    HW190912   5.765   8.333   1.746
29691SOL    HW290913   5.908   8.332   1.697
29692SOL     OW90914   2.805   0.545   1.222
29692SOL    HW190915   2.876   0.602   1.194
29692SOL    HW290916   2.755   0.527   1.142
29693SOL     OW90917   6.433  13.808  10.997
29693SOL    HW190918   6.411  13.859  10.919
29693SOL    HW290919   6.477  13.731  10.963
29694SOL     OW90920  10.508   5.842  14.038
29694SOL    HW190921  10.548   5.821  14.123
29694SOL    HW290922  10.438   5.777  14.029
29695SOL     OW90923  11.489   5.752   6.451
29695SOL    HW190924  11.584   5.743   6.444
29695SOL    HW290925  11.461   5.670   6.491
29696SOL     OW90926   5.813   2.919  14.058
29696SOL    HW190927   5.742   2.906  13.996
29696SOL    HW290928   5.857   2.834  14.063
29697SOL     OW90929  10.908   9.520   6.061
29697SOL    HW190930  10.986   9.574   6.079
29697SOL    HW290931  10.926   9.481   5.975
29698SOL     OW90932   2.147  12.328  14.199
29698SOL    HW190933   2.232  12.285  14.207
29698SOL    HW290934   2.168  12.417  14.171
29699SOL     OW90935  13.680   0.509  12.182
29699SOL    HW190936  13.610   0.495  12.247
29699SOL    HW290937  13.736   0.576  12.221
29700SOL     OW90938   5.283  12.628  10.952
29700SOL    HW190939   5.273  12.686  10.876
29700SOL    HW290940   5.225  12.667  11.018
29701SOL     OW90941   5.918   2.084   2.401
29701SOL    HW190942   5.944   2.127   2.319
29701SOL    HW290943   5.869   2.151   2.449
29702SOL     OW90944   7.976  11.938  13.512
29702SOL    HW190945   7.973  11.862  13.453
29702SOL    HW290946   8.024  12.004  13.463
29703SOL     OW90947   2.111  12.715  10.118
29703SOL    HW190948   2.075  12.642  10.169
29703SOL    HW290949   2.190  12.679  10.077
29704SOL     OW90950   9.259   0.523   9.341
29704SOL    HW190951   9.249   0.593   9.276
29704SOL    HW290952   9.191   0.542   9.406
29705SOL     OW90953   4.034  13.419   1.190
29705SOL    HW190954   3.982  13.427   1.270
29705SOL    HW290955   4.020  13.501   1.144
29706SOL     OW90956  10.499  11.963   7.073
29706SOL    HW190957  10.406  11.986   7.071
29706SOL    HW290958  10.538  12.027   7.132
29707SOL     OW90959   3.891   6.783   8.374
29707SOL    HW190960   3.797   6.779   8.386
29707SOL    HW290961   3.921   6.693   8.386
29708SOL     OW90962  11.665  11.526   7.303
29708SOL    HW190963  11.614  11.457   7.261
29708SOL    HW290964  11.675  11.593   7.235
29709SOL     OW90965   1.985   3.751  10.331
29709SOL    HW190966   1.921   3.770  10.262
29709SOL    HW290967   1.936   3.764  10.413
29710SOL     OW90968   9.934  10.979   9.833
29710SOL    HW190969   9.941  10.896   9.786
29710SOL    HW290970  10.019  10.989   9.876
29711SOL     OW90971  13.062   5.986   1.028
29711SOL    HW190972  13.137   6.046   1.037
29711SOL    HW290973  13.012   6.022   0.954
29712SOL     OW90974   8.606   6.187  14.365
29712SOL    HW190975   8.682   6.241  14.343
29712SOL    HW290976   8.538   6.217  14.303
29713SOL     OW90977   9.079   2.330   8.926
29713SOL    HW190978   9.170   2.335   8.897
29713SOL    HW290979   9.057   2.420   8.950
29714SOL     OW90980  12.134  14.693   9.782
29714SOL    HW190981  12.144  14.787   9.770
29714SOL    HW290982  12.040  14.678   9.771
29715SOL     OW90983   9.031   8.276   3.194
29715SOL    HW190984   8.997   8.192   3.227
29715SOL    HW290985   8.954   8.319   3.155
29716SOL     OW90986   2.798   4.550  11.374
29716SOL    HW190987   2.807   4.600  11.455
29716SOL    HW290988   2.787   4.617  11.306
29717SOL     OW90989   9.436  12.315   4.995
29717SOL    HW190990   9.479  12.395   4.965
29717SOL    HW290991   9.447  12.253   4.922
29718SOL     OW90992   5.935  14.535   6.166
29718SOL    HW190993   6.006  14.598   6.151
29718SOL    HW290994   5.928  14.486   6.084
29719SOL     OW90995   5.415   0.616  13.585
29719SOL    HW190996   5.388   0.671  13.511
29719SOL    HW290997   5.404   0.526  13.553
29720SOL     OW90998  11.252   7.571   6.521
29720SOL    HW190999  11.300   7.629   6.581
29720SOL    HW291000  11.231   7.627   6.446
29721SOL     OW91001  12.296   0.044   7.647
29721SOL    HW191002  12.235   0.109   7.681
29721SOL    HW291003  12.250   0.004   7.574
29722SOL     OW91004   8.501  12.677  14.800
29722SOL    HW191005   8.422  12.634  14.767
29722SOL    HW291006   8.469  12.736  14.868
29723SOL     OW91007   4.305   4.222  14.384
29723SOL    HW191008   4.271   4.156  14.323
29723SOL    HW291009   4.228   4.251  14.432
29724SOL     OW91010   9.588   7.941   6.180
29724SOL    HW191011   9.519   7.997   6.145
29724SOL    HW291012   9.587   7.863   6.124
29725SOL     OW91013  13.027   5.899   5.410
29725SOL    HW191014  13.048   5.923   5.500
29725SOL    HW291015  12.933   5.916   5.402
29726SOL     OW91016  12.461   5.971   6.222
29726SOL    HW191017  12.440   5.916   6.147
29726SOL    HW291018  12.399   6.043   6.217
29727SOL     OW91019  10.688  14.828   3.978
29727SOL    HW191020  10.615  14.866   4.027
29727SOL    HW291021  10.684  14.735   3.998
29728SOL     OW91022   1.735   8.058  14.422
29728SOL    HW191023   1.677   8.120  14.378
29728SOL    HW291024   1.734   7.980  14.367
29729SOL     OW91025  14.340   4.099  13.446
29729SOL    HW191026  14.320   4.007  13.462
29729SOL    HW291027  14.358   4.135  13.533
29730SOL     OW91028  13.088  11.234   2.186
29730SOL    HW191029  13.103  11.297   2.257
29730SOL    HW291030  13.064  11.288   2.111
29731SOL     OW91031  10.345  10.645   0.157
29731SOL    HW191032  10.251  10.664   0.161
29731SOL    HW291033  10.353  10.581   0.086
29732SOL     OW91034   4.351   0.855  14.517
29732SOL    HW191035   4.442   0.883  14.511
29732SOL    HW291036   4.330   0.860  14.610
29733SOL     OW91037   8.807   7.496   9.949
29733SOL    HW191038   8.735   7.444   9.982
29733SOL    HW291039   8.777   7.587   9.956
29734SOL     OW91040   0.108  11.611   9.500
29734SOL    HW191041   0.098  11.560   9.420
29734SOL    HW291042   0.140  11.696   9.471
29735SOL     OW91043  12.842  11.485   2.510
29735SOL    HW191044  12.777  11.445   2.567
29735SOL    HW291045  12.796  11.500   2.428
29736SOL     OW91046   8.260   5.734  13.630
29736SOL    HW191047   8.195   5.737  13.560
29736SOL    HW291048   8.212   5.761  13.709
29737SOL     OW91049   0.659   9.497  10.679
29737SOL    HW191050   0.644   9.462  10.767
29737SOL    HW291051   0.738   9.453  10.649
29738SOL     OW91052  10.137   8.876   3.975
29738SOL    HW191053  10.154   8.929   4.053
29738SOL    HW291054  10.089   8.800   4.008
29739SOL     OW91055   2.967   8.970   2.029
29739SOL    HW191056   2.943   8.923   2.108
29739SOL    HW291057   3.021   9.043   2.059
29740SOL     OW91058   9.736   2.305   5.087
29740SOL    HW191059   9.713   2.220   5.052
29740SOL    HW291060   9.711   2.367   5.019
29741SOL     OW91061   3.441  13.037   4.012
29741SOL    HW191062   3.510  13.060   3.950
29741SOL    HW291063   3.483  13.041   4.098
29742SOL     OW91064   4.619   7.585   2.297
29742SOL    HW191065   4.620   7.585   2.393
29742SOL    HW291066   4.561   7.513   2.273
29743SOL     OW91067   2.065   1.482   3.239
29743SOL    HW191068   2.136   1.430   3.200
29743SOL    HW291069   2.096   1.502   3.327
29744SOL     OW91070  10.798   0.473  10.281
29744SOL    HW191071  10.806   0.379  10.268
29744SOL    HW291072  10.881   0.499  10.323
29745SOL     OW91073   4.898  12.805  13.106
29745SOL    HW191074   4.888  12.710  13.103
29745SOL    HW291075   4.978  12.820  13.157
29746SOL     OW91076  12.237  11.004  13.130
29746SOL    HW191077  12.183  11.007  13.209
29746SOL    HW291078  12.232  11.093  13.094
29747SOL     OW91079   9.700  13.222   0.311
29747SOL    HW191080   9.652  13.284   0.256
29747SOL    HW291081   9.763  13.181   0.251
29748SOL     OW91082   7.532   7.066  11.967
29748SOL    HW191083   7.608   7.008  11.975
29748SOL    HW291084   7.499   7.050  11.879
29749SOL     OW91085   5.840  10.439   8.275
29749SOL    HW191086   5.906  10.369   8.279
29749SOL    HW291087   5.857  10.493   8.352
29750SOL     OW91088  11.163  12.027   8.260
29750SOL    HW191089  11.240  12.083   8.253
29750SOL    HW291090  11.197  11.942   8.288
29751SOL     OW91091   7.273   0.360  10.968
29751SOL    HW191092   7.347   0.421  10.968
29751SOL    HW291093   7.209   0.400  11.027
29752SOL     OW91094   0.104   9.508  10.361
29752SOL    HW191095   0.188   9.551  10.344
29752SOL    HW291096   0.038   9.575  10.344
29753SOL     OW91097  14.549   4.323   9.995
29753SOL    HW191098  14.501   4.330  10.077
29753SOL    HW291099  14.483   4.335   9.927
29754SOL     OW91100  14.090   3.324   5.086
29754SOL    HW191101  14.159   3.343   5.022
29754SOL    HW291102  14.086   3.402   5.141
29755SOL     OW91103   3.484  12.409  11.820
29755SOL    HW191104   3.512  12.488  11.867
29755SOL    HW291105   3.464  12.346  11.890
29756SOL     OW91106   0.207   7.129  11.856
29756SOL    HW191107   0.166   7.170  11.932
29756SOL    HW291108   0.156   7.050  11.841
29757SOL     OW91109  10.598  10.364  10.817
29757SOL    HW191110  10.519  10.370  10.764
29757SOL    HW291111  10.670  10.373  10.754
29758SOL     OW91112   2.061  12.818  11.616
29758SOL    HW191113   1.985  12.856  11.659
29758SOL    HW291114   2.026  12.745  11.564
29759SOL     OW91115   0.160  12.004   3.433
29759SOL    HW191116   0.206  11.924   3.407
29759SOL    HW291117   0.135  12.046   3.350
29760SOL     OW91118  14.441   8.398   7.562
29760SOL    HW191119  14.506   8.329   7.579
29760SOL    HW291120  14.493   8.476   7.546
29761SOL     OW91121  10.939   9.492  14.491
29761SOL    HW191122  10.994   9.452  14.423
29761SOL    HW291123  10.850   9.479  14.460
29762SOL     OW91124   6.417  11.495   5.546
29762SOL    HW191125   6.417  11.530   5.457
29762SOL    HW291126   6.427  11.400   5.535
29763SOL     OW91127  14.232   0.417  10.453
29763SOL    HW191128  14.275   0.417  10.538
29763SOL    HW291129  14.140   0.403  10.472
29764SOL     OW91130   1.281  11.541   0.448
29764SOL    HW191131   1.219  11.608   0.475
29764SOL    HW291132   1.266  11.469   0.510
29765SOL     OW91133   5.589   4.956   0.904
29765SOL    HW191134   5.561   4.867   0.885
29765SOL    HW291135   5.653   4.976   0.836
29766SOL     OW91136   3.402   9.671  13.077
29766SOL    HW191137   3.390   9.620  12.996
29766SOL    HW291138   3.495   9.693  13.077
29767SOL     OW91139   4.414   4.905  13.150
29767SOL    HW191140   4.367   4.835  13.197
29767SOL    HW291141   4.348   4.944  13.093
29768SOL     OW91142   1.285  13.611   7.498
29768SOL    HW191143   1.193  13.631   7.485
29768SOL    HW291144   1.288  13.566   7.583
29769SOL     OW91145   6.346  13.533   9.412
29769SOL    HW191146   6.288  13.603   9.442
29769SOL    HW291147   6.361  13.479   9.490
29770SOL     OW91148   4.993  10.717   9.226
29770SOL    HW191149   5.021  10.808   9.240
29770SOL    HW291150   4.996  10.706   9.131
29771SOL     OW91151   5.807   0.095  11.556
29771SOL    HW191152   5.855   0.116  11.636
29771SOL    HW291153   5.723   0.062  11.586
29772SOL     OW91154  11.226   5.962   6.653
29772SOL    HW191155  11.318   5.947   6.675
29772SOL    HW291156  11.185   5.876   6.662
29773SOL     OW91157   0.102   3.973   0.145
29773SOL    HW191158   0.155   4.047   0.176
29773SOL    HW291159   0.152   3.935   0.073
29774SOL     OW91160  13.820   9.712   4.641
29774SOL    HW191161  13.895   9.689   4.695
29774SOL    HW291162  13.833   9.663   4.560
29775SOL     OW91163   9.151   0.333   7.315
29775SOL    HW191164   9.163   0.239   7.303
29775SOL    HW291165   9.095   0.361   7.242
29776SOL     OW91166   7.907  10.484   3.468
29776SOL    HW191167   7.970  10.450   3.405
29776SOL    HW291168   7.822  10.477   3.424
29777SOL     OW91169   1.025  11.414  13.168
29777SOL    HW191170   1.074  11.352  13.113
29777SOL    HW291171   0.963  11.359  13.216
29778SOL     OW91172   7.478   1.763   6.682
29778SOL    HW191173   7.537   1.690   6.664
29778SOL    HW291174   7.535   1.838   6.696
29779SOL     OW91175  12.591  12.938   4.332
29779SOL    HW191176  12.555  12.881   4.264
29779SOL    HW291177  12.684  12.943   4.314
29780SOL     OW91178   8.777   8.248  14.641
29780SOL    HW191179   8.698   8.222  14.594
29780SOL    HW291180   8.797   8.335  14.608
29781SOL     OW91181   1.378   2.417   5.821
29781SOL    HW191182   1.443   2.435   5.889
29781SOL    HW291183   1.425   2.428   5.739
29782SOL     OW91184  13.058   4.397   3.698
29782SOL    HW191185  13.065   4.358   3.611
29782SOL    HW291186  13.140   4.446   3.710
29783SOL     OW91187   0.909   2.656   4.151
29783SOL    HW191188   0.992   2.610   4.147
29783SOL    HW291189   0.898   2.679   4.243
29784SOL     OW91190  10.131   6.626   6.605
29784SOL    HW191191  10.154   6.534   6.607
29784SOL    HW291192  10.128   6.649   6.512
29785SOL     OW91193   6.382   2.220   4.456
29785SOL    HW191194   6.294   2.227   4.418
29785SOL    HW291195   6.397   2.125   4.462
29786SOL     OW91196   4.651   3.033   0.868
29786SOL    HW191197   4.667   3.027   0.962
29786SOL    HW291198   4.579   2.971   0.852
29787SOL     OW91199   2.356   2.565  11.080
29787SOL    HW191200   2.431   2.624  11.086
29787SOL    HW291201   2.378   2.490  11.135
29788SOL     OW91202   3.019   2.951   4.479
29788SOL    HW191203   3.051   2.909   4.399
29788SOL    HW291204   2.976   3.031   4.448
29789SOL     OW91205   4.047   6.790  14.452
29789SOL    HW191206   4.124   6.799  14.396
29789SOL    HW291207   3.992   6.866  14.430
29790SOL     OW91208   1.891  13.714   3.973
29790SOL    HW191209   1.866  13.691   3.884
29790SOL    HW291210   1.952  13.645   4.000
29791SOL     OW91211   9.258  14.463   1.118
29791SOL    HW191212   9.202  14.417   1.181
29791SOL    HW291213   9.280  14.396   1.053
29792SOL     OW91214   1.947   2.447   6.839
29792SOL    HW191215   1.954   2.369   6.894
29792SOL    HW291216   2.021   2.441   6.779
29793SOL     OW91217  13.286   4.613   4.946
29793SOL    HW191218  13.254   4.627   4.857
29793SOL    HW291219  13.262   4.693   4.993
29794SOL     OW91220   9.427  13.536   1.332
29794SOL    HW191221   9.355  13.583   1.290
29794SOL    HW291222   9.427  13.568   1.422
29795SOL     OW91223   8.596  13.718   6.880
29795SOL    HW191224   8.627  13.647   6.823
29795SOL    HW291225   8.672  13.740   6.933
29796SOL     OW91226  11.422   8.177   2.660
29796SOL    HW191227  11.413   8.106   2.725
29796SOL    HW291228  11.333   8.188   2.626
29797SOL     OW91229  14.070   0.158  12.798
29797SOL    HW191230  14.076   0.088  12.864
29797SOL    HW291231  14.093   0.115  12.716
29798SOL     OW91232   3.449  13.143   3.008
29798SOL    HW191233   3.374  13.187   3.049
29798SOL    HW291234   3.461  13.189   2.925
29799SOL     OW91235  14.055  10.603   7.741
29799SOL    HW191236  14.128  10.658   7.712
29799SOL    HW291237  14.021  10.564   7.661
29800SOL     OW91238  14.533  14.414  12.602
29800SOL    HW191239  14.532  14.408  12.506
29800SOL    HW291240  14.449  14.454  12.624
29801SOL     OW91241   1.736   0.930  13.386
29801SOL    HW191242   1.670   0.885  13.333
29801SOL    HW291243   1.750   0.871  13.460
29802SOL     OW91244  11.779   0.502   5.070
29802SOL    HW191245  11.754   0.591   5.044
29802SOL    HW291246  11.792   0.508   5.165
29803SOL     OW91247   6.488   0.417   7.355
29803SOL    HW191248   6.522   0.350   7.296
29803SOL    HW291249   6.566   0.455   7.396
29804SOL     OW91250   6.865   5.387  11.127
29804SOL    HW191251   6.813   5.309  11.105
29804SOL    HW291252   6.955   5.362  11.106
29805SOL     OW91253   5.876   8.709   3.835
29805SOL    HW191254   5.838   8.728   3.921
29805SOL    HW291255   5.970   8.704   3.851
29806SOL     OW91256   5.345   5.880  14.472
29806SOL    HW191257   5.323   5.965  14.433
29806SOL    HW291258   5.413   5.900  14.536
29807SOL     OW91259   3.684  10.651  10.926
29807SOL    HW191260   3.670  10.678  10.835
29807SOL    HW291261   3.765  10.600  10.923
29808SOL     OW91262   7.916  10.863   8.259
29808SOL    HW191263   7.952  10.774   8.253
29808SOL    HW291264   7.978  10.916   8.209
29809SOL     OW91265   0.887   0.089   4.141
29809SOL    HW191266   0.964   0.110   4.194
29809SOL    HW291267   0.923   0.068   4.055
29810SOL     OW91268  11.929  11.433  10.580
29810SOL    HW191269  11.920  11.528  10.588
29810SOL    HW291270  11.848  11.405  10.539
29811SOL     OW91271   8.658  13.992  10.327
29811SOL    HW191272   8.716  14.025  10.258
29811SOL    HW291273   8.580  14.048  10.322
29812SOL     OW91274   0.167  10.152   8.099
29812SOL    HW191275   0.150  10.123   8.009
29812SOL    HW291276   0.178  10.246   8.092
29813SOL     OW91277   8.111   3.234   5.372
29813SOL    HW191278   8.139   3.144   5.387
29813SOL    HW291279   8.018   3.234   5.397
29814SOL     OW91280   2.934   9.436   0.168
29814SOL    HW191281   2.912   9.365   0.229
29814SOL    HW291282   2.852   9.457   0.124
29815SOL     OW91283  11.799  11.624  12.541
29815SOL    HW191284  11.744  11.620  12.619
29815SOL    HW291285  11.742  11.664  12.474
29816SOL     OW91286  10.900   3.201   8.837
29816SOL    HW191287  10.848   3.278   8.858
29816SOL    HW291288  10.944   3.179   8.919
29817SOL     OW91289   5.173   7.710   8.723
29817SOL    HW191290   5.099   7.751   8.678
29817SOL    HW291291   5.195   7.634   8.669
29818SOL     OW91292  12.335   0.121   2.229
29818SOL    HW191293  12.291   0.205   2.239
29818SOL    HW291294  12.400   0.120   2.299
29819SOL     OW91295   8.758   6.699   3.702
29819SOL    HW191296   8.817   6.647   3.757
29819SOL    HW291297   8.698   6.741   3.764
29820SOL     OW91298  13.593  13.185  13.260
29820SOL    HW191299  13.674  13.140  13.234
29820SOL    HW291300  13.623  13.264  13.305
29821SOL     OW91301   7.623   4.316  12.908
29821SOL    HW191302   7.637   4.239  12.963
29821SOL    HW291303   7.528   4.322  12.899
29822SOL     OW91304   8.987   3.285  10.882
29822SOL    HW191305   8.966   3.371  10.845
29822SOL    HW291306   9.054   3.249  10.824
29823SOL     OW91307  13.597   1.349   2.033
29823SOL    HW191308  13.527   1.284   2.037
29823SOL    HW291309  13.591   1.385   1.945
29824SOL     OW91310   3.743   3.171   5.011
29824SOL    HW191311   3.683   3.108   4.970
29824SOL    HW291312   3.686   3.235   5.053
29825SOL     OW91313   8.797   7.309   2.009
29825SOL    HW191314   8.759   7.384   2.056
29825SOL    HW291315   8.751   7.307   1.926
29826SOL     OW91316   5.253  13.151   8.271
29826SOL    HW191317   5.297  13.075   8.309
29826SOL    HW291318   5.272  13.145   8.177
29827SOL     OW91319  14.283   5.574   2.508
29827SOL    HW191320  14.277   5.598   2.600
29827SOL    HW291321  14.369   5.533   2.499
29828SOL     OW91322  13.472   8.543   9.178
29828SOL    HW191323  13.431   8.457   9.171
29828SOL    HW291324  13.545   8.540   9.117
29829SOL     OW91325   1.441  14.685  11.473
29829SOL    HW191326   1.408  14.647  11.392
29829SOL    HW291327   1.530  14.713  11.452
29830SOL     OW91328   2.762  14.030   0.979
29830SOL    HW191329   2.697  13.985   0.926
29830SOL    HW291330   2.760  14.121   0.949
29831SOL     OW91331   0.138   8.489   8.736
29831SOL    HW191332   0.086   8.478   8.656
29831SOL    HW291333   0.161   8.581   8.737
29832SOL     OW91334   3.437   3.919  14.719
29832SOL    HW191335   3.523   3.890  14.749
29832SOL    HW291336   3.418   3.997  14.772
29833SOL     OW91337   2.027   8.582  10.433
29833SOL    HW191338   2.106   8.608  10.482
29833SOL    HW291339   2.021   8.645  10.362
29834SOL     OW91340   6.272   2.386   4.657
29834SOL    HW191341   6.215   2.378   4.580
29834SOL    HW291342   6.360   2.379   4.622
29835SOL     OW91343   5.504   9.751  14.538
29835SOL    HW191344   5.571   9.686  14.558
29835SOL    HW291345   5.474   9.729  14.449
29836SOL     OW91346   1.212   5.545   9.834
29836SOL    HW191347   1.167   5.489   9.897
29836SOL    HW291348   1.256   5.611   9.888
29837SOL     OW91349   2.831  13.666  13.817
29837SOL    HW191350   2.883  13.737  13.780
29837SOL    HW291351   2.799  13.701  13.900
29838SOL     OW91352   9.707   4.529  10.385
29838SOL    HW191353   9.789   4.485  10.406
29838SOL    HW291354   9.639   4.470  10.415
29839SOL     OW91355  12.494   1.273   8.088
29839SOL    HW191356  12.544   1.330   8.030
29839SOL    HW291357  12.461   1.331   8.157
29840SOL     OW91358   9.111   8.080   2.991
29840SOL    HW191359   9.029   8.073   3.041
29840SOL    HW291360   9.133   8.173   2.995
29841SOL     OW91361  14.806   1.991   2.399
29841SOL    HW191362  14.822   2.022   2.488
29841SOL    HW291363  14.866   2.042   2.345
29842SOL     OW91364   3.962   4.905   0.601
29842SOL    HW191365   3.982   4.926   0.510
29842SOL    HW291366   4.022   4.833   0.622
29843SOL     OW91367   1.658  14.514   4.340
29843SOL    HW191368   1.747  14.549   4.342
29843SOL    HW291369   1.660  14.447   4.271
29844SOL     OW91370  14.726   3.298   3.937
29844SOL    HW191371  14.739   3.313   4.031
29844SOL    HW291372  14.643   3.341   3.918
29845SOL     OW91373  14.316  11.861  12.759
29845SOL    HW191374  14.230  11.825  12.778
29845SOL    HW291375  14.302  11.955  12.750
29846SOL     OW91376  11.827  10.486  10.742
29846SOL    HW191377  11.898  10.435  10.782
29846SOL    HW291378  11.747  10.443  10.771
29847SOL     OW91379   4.976  11.496  11.662
29847SOL    HW191380   5.019  11.551  11.596
29847SOL    HW291381   4.921  11.437  11.611
29848SOL     OW91382   7.133   1.993   3.454
29848SOL    HW191383   7.095   1.914   3.417
29848SOL    HW291384   7.196   2.022   3.388
29849SOL     OW91385  13.695   0.835  12.624
29849SOL    HW191386  13.669   0.830  12.531
29849SOL    HW291387  13.618   0.872  12.668
29850SOL     OW91388   1.915   0.133  13.072
29850SOL    HW191389   1.888   0.041  13.076
29850SOL    HW291390   1.935   0.156  13.163
29851SOL     OW91391   2.002   0.097  11.878
29851SOL    HW191392   2.082   0.054  11.847
29851SOL    HW291393   1.939   0.084  11.808
29852SOL     OW91394  13.249   3.178  14.740
29852SOL    HW191395  13.271   3.237  14.813
29852SOL    HW291396  13.280   3.225  14.662
29853SOL     OW91397  14.516   8.778   4.694
29853SOL    HW191398  14.493   8.699   4.743
29853SOL    HW291399  14.600   8.757   4.653
29854SOL     OW91400   3.557   7.587   9.243
29854SOL    HW191401   3.523   7.674   9.262
29854SOL    HW291402   3.501   7.554   9.173
29855SOL     OW91403   3.040   8.330   9.480
29855SOL    HW191404   3.037   8.425   9.476
29855SOL    HW291405   3.129   8.307   9.454
29856SOL     OW91406   8.470   0.891  10.154
29856SOL    HW191407   8.380   0.885  10.120
29856SOL    HW291408   8.468   0.840  10.235
29857SOL     OW91409   7.345   7.003   3.924
29857SOL    HW191410   7.367   7.035   4.012
29857SOL    HW291411   7.254   7.027   3.912
29858SOL     OW91412   1.318   0.357   0.255
29858SOL    HW191413   1.368   0.286   0.294
29858SOL    HW291414   1.322   0.427   0.320
29859SOL     OW91415  14.226   3.420  10.796
29859SOL    HW191416  14.228   3.338  10.748
29859SOL    HW291417  14.306   3.418  10.849
29860SOL     OW91418   4.890   0.947  14.245
29860SOL    HW191419   4.853   0.866  14.278
29860SOL    HW291420   4.916   0.996  14.323
29861SOL     OW91421  10.040   7.957  13.186
29861SOL    HW191422   9.965   7.905  13.157
29861SOL    HW291423  10.001   8.030  13.235
29862SOL     OW91424  11.022  10.733  12.629
29862SOL    HW191425  11.071  10.674  12.686
29862SOL    HW291426  11.013  10.685  12.546
29863SOL     OW91427   8.153   3.869   4.739
29863SOL    HW191428   8.197   3.941   4.785
29863SOL    HW291429   8.150   3.798   4.804
29864SOL     OW91430   2.172  10.424   7.924
29864SOL    HW191431   2.216  10.506   7.947
29864SOL    HW291432   2.082  10.450   7.904
29865SOL     OW91433  10.377  11.639  11.256
29865SOL    HW191434  10.433  11.703  11.212
29865SOL    HW291435  10.319  11.607  11.188
29866SOL     OW91436   6.614   3.664  14.532
29866SOL    HW191437   6.570   3.579  14.535
29866SOL    HW291438   6.574   3.715  14.602
29867SOL     OW91439   0.952   6.127   5.650
29867SOL    HW191440   0.885   6.196   5.658
29867SOL    HW291441   1.014   6.146   5.720
29868SOL     OW91442   2.251  12.668   1.667
29868SOL    HW191443   2.324  12.728   1.654
29868SOL    HW291444   2.222  12.686   1.757
29869SOL     OW91445  10.754  11.552  13.989
29869SOL    HW191446  10.782  11.519  14.075
29869SOL    HW291447  10.745  11.647  14.002
29870SOL     OW91448   4.980   1.726   7.173
29870SOL    HW191449   4.891   1.724   7.138
29870SOL    HW291450   5.036   1.715   7.097
29871SOL     OW91451   2.663   3.009   9.565
29871SOL    HW191452   2.656   3.038   9.657
29871SOL    HW291453   2.755   2.987   9.554
29872SOL     OW91454   2.037  10.524   9.369
29872SOL    HW191455   1.942  10.513   9.364
29872SOL    HW291456   2.051  10.581   9.444
29873SOL     OW91457  11.329   7.701   7.193
29873SOL    HW191458  11.359   7.668   7.109
29873SOL    HW291459  11.296   7.789   7.174
29874SOL     OW91460   2.727   3.325  13.147
29874SOL    HW191461   2.802   3.315  13.206
29874SOL    HW291462   2.654   3.342  13.206
29875SOL     OW91463   1.164   6.221  12.692
29875SOL    HW191464   1.172   6.163  12.767
29875SOL    HW291465   1.105   6.291  12.721
29876SOL     OW91466  11.455   4.231   3.903
29876SOL    HW191467  11.440   4.236   3.809
29876SOL    HW291468  11.478   4.320   3.928
29877SOL     OW91469   5.321   6.550  14.821
29877SOL    HW191470   5.405   6.551  14.774
29877SOL    HW291471   5.338   6.496   0.024
29878SOL     OW91472  13.220   7.281   9.042
29878SOL    HW191473  13.296   7.240   9.084
29878SOL    HW291474  13.146   7.257   9.098
29879SOL     OW91475   5.017   8.347  13.291
29879SOL    HW191476   5.065   8.412  13.343
29879SOL    HW291477   5.078   8.322  13.222
29880SOL     OW91478   3.473   7.848  12.235
29880SOL    HW191479   3.561   7.810  12.239
29880SOL    HW291480   3.477   7.910  12.163
29881SOL     OW91481  12.099   2.966  13.281
29881SOL    HW191482  12.134   3.009  13.360
29881SOL    HW291483  12.019   2.922  13.312
29882SOL     OW91484   6.305   8.330   3.290
29882SOL    HW191485   6.259   8.250   3.264
29882SOL    HW291486   6.298   8.387   3.213
29883SOL     OW91487  10.311  12.115   7.968
29883SOL    HW191488  10.250  12.127   8.041
29883SOL    HW291489  10.256  12.092   7.894
29884SOL     OW91490   6.814  13.396   0.200
29884SOL    HW191491   6.719  13.391   0.205
29884SOL    HW291492   6.838  13.333   0.131
29885SOL     OW91493   1.134   0.452   9.426
29885SOL    HW191494   1.186   0.527   9.399
29885SOL    HW291495   1.059   0.490   9.472
29886SOL     OW91496   6.229  12.429   0.791
29886SOL    HW191497   6.204  12.353   0.738
29886SOL    HW291498   6.320  12.444   0.768
29887SOL     OW91499  10.173   4.115  12.636
29887SOL    HW191500  10.228   4.109  12.557
29887SOL    HW291501  10.090   4.151  12.605
29888SOL     OW91502   0.994  10.066   2.005
29888SOL    HW191503   1.004  10.021   2.089
29888SOL    HW291504   1.034  10.152   2.018
29889SOL     OW91505  14.168  11.880  14.749
29889SOL    HW191506  14.250  11.912  14.787
29889SOL    HW291507  14.099  11.930  14.793
29890SOL     OW91508   2.414   7.516   7.455
29890SOL    HW191509   2.403   7.438   7.401
29890SOL    HW291510   2.357   7.581   7.414
29891SOL     OW91511   5.375   6.424   1.745
29891SOL    HW191512   5.361   6.415   1.839
29891SOL    HW291513   5.410   6.339   1.718
29892SOL     OW91514   4.219  11.179   4.521
29892SOL    HW191515   4.209  11.267   4.484
29892SOL    HW291516   4.286  11.189   4.588
29893SOL     OW91517   5.214  10.187   7.706
29893SOL    HW191518   5.168  10.270   7.700
29893SOL    HW291519   5.288  10.196   7.646
29894SOL     OW91520   2.332  12.116  11.504
29894SOL    HW191521   2.378  12.033  11.515
29894SOL    HW291522   2.376  12.158  11.430
29895SOL     OW91523   7.119  13.188   3.166
29895SOL    HW191524   7.083  13.177   3.254
29895SOL    HW291525   7.182  13.259   3.175
29896SOL     OW91526   4.139   0.469   1.098
29896SOL    HW191527   4.182   0.385   1.089
29896SOL    HW291528   4.188   0.528   1.041
29897SOL     OW91529   2.297   7.718  10.582
29897SOL    HW191530   2.383   7.709  10.540
29897SOL    HW291531   2.282   7.813  10.585
29898SOL     OW91532   7.415   4.573   3.843
29898SOL    HW191533   7.394   4.629   3.768
29898SOL    HW291534   7.428   4.486   3.805
29899SOL     OW91535   8.816   6.723  13.649
29899SOL    HW191536   8.728   6.719  13.686
29899SOL    HW291537   8.867   6.772  13.714
29900SOL     OW91538  12.022   4.514   6.479
29900SOL    HW191539  12.001   4.421   6.492
29900SOL    HW291540  11.986   4.557   6.556
29901SOL     OW91541   8.115   4.557   4.375
29901SOL    HW191542   8.024   4.586   4.365
29901SOL    HW291543   8.109   4.479   4.429
29902SOL     OW91544  14.285  14.394  10.919
29902SOL    HW191545  14.207  14.364  10.966
29902SOL    HW291546  14.254  14.467  10.865
29903SOL     OW91547   0.572   6.546   7.749
29903SOL    HW191548   0.524   6.490   7.811
29903SOL    HW291549   0.504   6.581   7.691
29904SOL     OW91550  14.181   4.962   0.495
29904SOL    HW191551  14.264   4.948   0.448
29904SOL    HW291552  14.116   4.916   0.443
29905SOL     OW91553   6.805  12.187  10.160
29905SOL    HW191554   6.863  12.262  10.147
29905SOL    HW291555   6.863  12.112  10.167
29906SOL     OW91556  12.740   9.525   8.957
29906SOL    HW191557  12.702   9.458   9.012
29906SOL    HW291558  12.782   9.477   8.885
29907SOL     OW91559   6.645  13.571   5.162
29907SOL    HW191560   6.572  13.626   5.135
29907SOL    HW291561   6.701  13.629   5.214
29908SOL     OW91562   4.308  10.336  12.396
29908SOL    HW191563   4.338  10.245  12.393
29908SOL    HW291564   4.332  10.372  12.311
29909SOL     OW91565   6.448   7.826   5.650
29909SOL    HW191566   6.375   7.888   5.656
29909SOL    HW291567   6.451   7.802   5.558
29910SOL     OW91568  14.419   6.475   7.062
29910SOL    HW191569  14.427   6.383   7.086
29910SOL    HW291570  14.337   6.481   7.014
29911SOL     OW91571   1.079   9.711  12.804
29911SOL    HW191572   1.162   9.729  12.849
29911SOL    HW291573   1.039   9.797  12.794
29912SOL     OW91574   8.035   5.881   3.624
29912SOL    HW191575   8.018   5.886   3.530
29912SOL    HW291576   8.060   5.970   3.649
29913SOL     OW91577  14.209   6.438   0.366
29913SOL    HW191578  14.247   6.435   0.278
29913SOL    HW291579  14.153   6.516   0.364
29914SOL     OW91580   8.980   1.601  14.682
29914SOL    HW191581   9.060   1.553  14.702
29914SOL    HW291582   8.990   1.684  14.729
29915SOL     OW91583  11.591   0.754  12.132
29915SOL    HW191584  11.630   0.668  12.118
29915SOL    HW291585  11.665   0.812  12.148
29916SOL     OW91586  14.488   6.784   0.279
29916SOL    HW191587  14.506   6.854   0.217
29916SOL    HW291588  14.539   6.710   0.246
29917SOL     OW91589  14.553  12.963  13.104
29917SOL    HW191590  14.482  12.907  13.135
29917SOL    HW291591  14.522  13.052  13.119
29918SOL     OW91592   3.511   4.359   7.419
29918SOL    HW191593   3.457   4.288   7.384
29918SOL    HW291594   3.449   4.431   7.432
29919SOL     OW91595  14.132   7.658   4.569
29919SOL    HW191596  14.088   7.594   4.624
29919SOL    HW291597  14.091   7.742   4.592
29920SOL     OW91598  11.223  10.733  10.995
29920SOL    HW191599  11.165  10.730  10.919
29920SOL    HW291600  11.172  10.695  11.066
29921SOL     OW91601   6.676  11.750   2.571
29921SOL    HW191602   6.659  11.731   2.479
29921SOL    HW291603   6.590  11.764   2.610
29922SOL     OW91604  13.076   4.194   1.201
29922SOL    HW191605  13.082   4.241   1.118
29922SOL    HW291606  13.135   4.241   1.260
29923SOL     OW91607   1.094   0.324  11.520
29923SOL    HW191608   1.103   0.234  11.487
29923SOL    HW291609   1.169   0.335  11.579
29924SOL     OW91610  12.235   9.492  13.907
29924SOL    HW191611  12.172   9.565  13.908
29924SOL    HW291612  12.242   9.466  13.999
29925SOL     OW91613   8.367   6.034   7.847
29925SOL    HW191614   8.281   5.997   7.828
29925SOL    HW291615   8.350   6.101   7.914
29926SOL     OW91616   5.165  10.559  10.515
29926SOL    HW191617   5.082  10.534  10.476
29926SOL    HW291618   5.202  10.623  10.453
29927SOL     OW91619  12.889   6.791  13.576
29927SOL    HW191620  12.903   6.810  13.669
29927SOL    HW291621  12.973   6.759  13.545
29928SOL     OW91622  10.127  11.795  11.365
29928SOL    HW191623  10.083  11.824  11.445
29928SOL    HW291624  10.186  11.725  11.393
29929SOL     OW91625   5.199   4.137  14.304
29929SOL    HW191626   5.107   4.117  14.320
29929SOL    HW291627   5.243   4.052  14.309
29930SOL     OW91628   3.149   9.284  12.947
29930SOL    HW191629   3.067   9.332  12.938
29930SOL    HW291630   3.182   9.276  12.858
29931SOL     OW91631  12.826  13.453  12.337
29931SOL    HW191632  12.761  13.393  12.302
29931SOL    HW291633  12.897  13.452  12.272
29932SOL     OW91634  11.547  10.302  13.691
29932SOL    HW191635  11.571  10.297  13.599
29932SOL    HW291636  11.474  10.241  13.701
29933SOL     OW91637   2.519  13.024   7.457
29933SOL    HW191638   2.572  13.103   7.462
29933SOL    HW291639   2.525  12.996   7.365
29934SOL     OW91640   1.035   7.508  11.450
29934SOL    HW191641   1.125   7.536  11.432
29934SOL    HW291642   1.018   7.439  11.385
29935SOL     OW91643   3.507   5.977   9.661
29935SOL    HW191644   3.471   5.888   9.657
29935SOL    HW291645   3.596   5.969   9.629
29936SOL     OW91646  12.452  10.726   0.370
29936SOL    HW191647  12.500  10.672   0.307
29936SOL    HW291648  12.361  10.697   0.361
29937SOL     OW91649   0.061  13.812   4.059
29937SOL    HW191650   0.134  13.755   4.034
29937SOL    HW291651   0.085  13.845   4.145
29938SOL     OW91652  14.769   4.851  14.501
29938SOL    HW191653  14.765   4.942  14.531
29938SOL    HW291654  14.845   4.814  14.546
29939SOL     OW91655   0.611   7.917  12.591
29939SOL    HW191656   0.530   7.915  12.540
29939SOL    HW291657   0.593   7.860  12.666
29940SOL     OW91658   7.329   3.591  11.518
29940SOL    HW191659   7.408   3.586  11.572
29940SOL    HW291660   7.258   3.606  11.581
29941SOL     OW91661   1.573   4.418  13.506
29941SOL    HW191662   1.604   4.487  13.565
29941SOL    HW291663   1.619   4.435  13.423
29942SOL     OW91664  11.308   0.234   0.412
29942SOL    HW191665  11.253   0.225   0.334
29942SOL    HW291666  11.275   0.168   0.473
29943SOL     OW91667   0.532   6.442   5.596
29943SOL    HW191668   0.588   6.513   5.629
29943SOL    HW291669   0.468   6.487   5.540
29944SOL     OW91670   1.065  13.701   3.550
29944SOL    HW191671   1.122  13.773   3.575
29944SOL    HW291672   1.029  13.668   3.633
29945SOL     OW91673  11.828  14.387   7.943
29945SOL    HW191674  11.846  14.341   8.025
29945SOL    HW291675  11.880  14.466   7.948
29946SOL     OW91676  10.313   7.393   6.555
29946SOL    HW191677  10.383   7.456   6.538
29946SOL    HW291678  10.261   7.434   6.624
29947SOL     OW91679   0.735   9.527  14.796
29947SOL    HW191680   0.764   9.617  14.776
29947SOL    HW291681   0.815   9.481  14.821
29948SOL     OW91682   8.452   3.290  11.799
29948SOL    HW191683   8.519   3.317  11.862
29948SOL    HW291684   8.402   3.370  11.781
29949SOL     OW91685   7.552   4.612   2.596
29949SOL    HW191686   7.549   4.517   2.607
29949SOL    HW291687   7.568   4.645   2.685
29950SOL     OW91688   7.624   7.681   5.426
29950SOL    HW191689   7.588   7.724   5.348
29950SOL    HW291690   7.710   7.650   5.398
29951SOL     OW91691  11.482  11.004   5.667
29951SOL    HW191692  11.450  11.063   5.598
29951SOL    HW291693  11.573  11.030   5.679
29952SOL     OW91694  14.061   2.642   8.025
29952SOL    HW191695  14.109   2.559   8.017
29952SOL    HW291696  14.004   2.644   7.948
29953SOL     OW91697   0.315   8.705   9.114
29953SOL    HW191698   0.280   8.777   9.167
29953SOL    HW291699   0.243   8.642   9.109
29954SOL     OW91700   9.915   1.264  12.901
29954SOL    HW191701   9.954   1.329  12.959
29954SOL    HW291702   9.984   1.243  12.838
29955SOL     OW91703   3.982   3.468   8.124
29955SOL    HW191704   3.962   3.377   8.101
29955SOL    HW291705   3.906   3.498   8.173
29956SOL     OW91706   3.417   3.894   0.653
29956SOL    HW191707   3.379   3.810   0.680
29956SOL    HW291708   3.459   3.927   0.732
29957SOL     OW91709   1.957   7.231   7.237
29957SOL    HW191710   1.874   7.194   7.266
29957SOL    HW291711   2.006   7.157   7.202
29958SOL     OW91712   4.430  14.216  14.717
29958SOL    HW191713   4.425  14.228  14.812
29958SOL    HW291714   4.424  14.121  14.705
29959SOL     OW91715   6.821   7.051   4.277
29959SOL    HW191716   6.905   7.085   4.245
29959SOL    HW291717   6.838   7.026   4.367
29960SOL     OW91718   3.354   2.634   5.171
29960SOL    HW191719   3.294   2.559   5.178
29960SOL    HW291720   3.440   2.594   5.162
29961SOL     OW91721  14.785   5.318   3.039
29961SOL    HW191722  14.722   5.388   3.054
29961SOL    HW291723  14.748   5.269   2.966
29962SOL     OW91724   9.130   7.012   6.405
29962SOL    HW191725   9.123   7.020   6.501
29962SOL    HW291726   9.213   7.055   6.384
29963SOL     OW91727  10.702   2.943   8.690
29963SOL    HW191728  10.687   2.863   8.640
29963SOL    HW291729  10.733   3.006   8.625
29964SOL     OW91730   2.891   8.384   5.070
29964SOL    HW191731   2.818   8.420   5.020
29964SOL    HW291732   2.858   8.302   5.106
29965SOL     OW91733   8.364   3.172  13.047
29965SOL    HW191734   8.456   3.151  13.032
29965SOL    HW291735   8.365   3.233  13.121
29966SOL     OW91736   4.627  14.100   4.482
29966SOL    HW191737   4.656  14.139   4.564
29966SOL    HW291738   4.603  14.011   4.505
29967SOL     OW91739   0.220  12.972   5.454
29967SOL    HW191740   0.291  12.920   5.416
29967SOL    HW291741   0.211  12.939   5.543
29968SOL     OW91742  12.292   3.891   6.116
29968SOL    HW191743  12.282   3.796   6.128
29968SOL    HW291744  12.342   3.919   6.193
29969SOL     OW91745   6.260   8.740  10.161
29969SOL    HW191746   6.296   8.664  10.115
29969SOL    HW291747   6.332   8.769  10.218
29970SOL     OW91748   2.758   7.522  12.256
29970SOL    HW191749   2.852   7.535  12.245
29970SOL    HW291750   2.719   7.566  12.180
29971SOL     OW91751  13.920  13.954   9.347
29971SOL    HW191752  13.850  13.894   9.324
29971SOL    HW291753  13.926  14.014   9.272
29972SOL     OW91754   9.642   3.978   6.182
29972SOL    HW191755   9.635   3.936   6.268
29972SOL    HW291756   9.704   4.049   6.196
29973SOL     OW91757  11.387   3.061   2.937
29973SOL    HW191758  11.478   3.079   2.913
29973SOL    HW291759  11.392   3.024   3.025
29974SOL     OW91760   9.723  14.800   2.813
29974SOL    HW191761   9.634  14.831   2.799
29974SOL    HW291762   9.778   0.003   2.798
29975SOL     OW91763   9.441  10.780   5.957
29975SOL    HW191764   9.435  10.820   5.870
29975SOL    HW291765   9.417  10.851   6.017
29976SOL     OW91766   4.965   8.427   4.263
29976SOL    HW191767   4.907   8.354   4.284
29976SOL    HW291768   4.908   8.504   4.265
29977SOL     OW91769  13.937   5.237   6.744
29977SOL    HW191770  13.920   5.148   6.777
29977SOL    HW291771  13.851   5.278   6.741
29978SOL     OW91772   2.297  10.980   8.576
29978SOL    HW191773   2.377  11.014   8.616
29978SOL    HW291774   2.324  10.899   8.533
29979SOL     OW91775   8.696  12.411   3.506
29979SOL    HW191776   8.632  12.470   3.545
29979SOL    HW291777   8.739  12.462   3.438
29980SOL     OW91778   3.857  13.099   0.423
29980SOL    HW191779   3.848  13.194   0.421
29980SOL    HW291780   3.858  13.076   0.516
29981SOL     OW91781  12.205  11.115   6.875
29981SOL    HW191782  12.210  11.095   6.969
29981SOL    HW291783  12.111  11.118   6.857
29982SOL     OW91784  10.561   3.115   1.817
29982SOL    HW191785  10.534   3.143   1.905
29982SOL    HW291786  10.575   3.196   1.769
29983SOL     OW91787   1.420  12.486   2.505
29983SOL    HW191788   1.356  12.440   2.560
29983SOL    HW291789   1.366  12.537   2.444
29984SOL     OW91790   5.052   5.639   2.656
29984SOL    HW191791   5.058   5.544   2.660
29984SOL    HW291792   5.097   5.663   2.575
29985SOL     OW91793   0.867  13.877  10.937
29985SOL    HW191794   0.909  13.946  10.886
29985SOL    HW291795   0.776  13.878  10.908
29986SOL     OW91796   6.837   0.520   2.781
29986SOL    HW191797   6.748   0.552   2.764
29986SOL    HW291798   6.832   0.483   2.869
29987SOL     OW91799   7.970   1.131  10.586
29987SOL    HW191800   7.933   1.198  10.528
29987SOL    HW291801   7.952   1.163  10.674
29988SOL     OW91802  12.694   7.626  14.505
29988SOL    HW191803  12.702   7.683  14.428
29988SOL    HW291804  12.719   7.682  14.578
29989SOL     OW91805  13.972  11.021   2.383
29989SOL    HW191806  14.017  11.090   2.432
29989SOL    HW291807  13.880  11.047   2.384
29990SOL     OW91808   3.780   9.501   9.944
29990SOL    HW191809   3.722   9.523   9.871
29990SOL    HW291810   3.723   9.456  10.007
29991SOL     OW91811   9.098   3.739   3.529
29991SOL    HW191812   9.016   3.751   3.576
29991SOL    HW291813   9.140   3.825   3.531
29992SOL     OW91814  10.943  13.430   0.871
29992SOL    HW191815  10.980  13.448   0.785
29992SOL    HW291816  11.006  13.371   0.913
29993SOL     OW91817   6.393   2.981  14.248
29993SOL    HW191818   6.423   2.912  14.189
29993SOL    HW291819   6.472   3.032  14.266
29994SOL     OW91820   9.530   4.069   9.251
29994SOL    HW191821   9.607   4.013   9.262
29994SOL    HW291822   9.546   4.116   9.169
29995SOL     OW91823   1.527   9.389   9.181
29995SOL    HW191824   1.613   9.411   9.144
29995SOL    HW291825   1.546   9.335   9.257
29996SOL     OW91826   7.405   8.223   3.799
29996SOL    HW191827   7.495   8.245   3.777
29996SOL    HW291828   7.408   8.131   3.824
29997SOL     OW91829   2.944  11.107   4.069
29997SOL    HW191830   2.865  11.057   4.048
29997SOL    HW291831   2.966  11.081   4.158
29998SOL     OW91832  14.149   4.003   8.772
29998SOL    HW191833  14.076   4.022   8.713
29998SOL    HW291834  14.227   4.023   8.720
29999SOL     OW91835   6.541   2.906   0.948
29999SOL    HW191836   6.592   2.827   0.967
29999SOL    HW291837   6.548   2.958   1.028
30000SOL     OW91838   6.225   6.749   8.580
30000SOL    HW191839   6.260   6.728   8.494
30000SOL    HW291840   6.220   6.665   8.625
30001SOL     OW91841  12.527   8.372   6.245
30001SOL    HW191842  12.443   8.339   6.278
30001SOL    HW291843  12.534   8.333   6.157
30002SOL     OW91844   2.239   7.753   2.811
30002SOL    HW191845   2.231   7.658   2.800
30002SOL    HW291846   2.151   7.783   2.831
30003SOL     OW91847   7.799  14.297   7.539
30003SOL    HW191848   7.837  14.209   7.538
30003SOL    HW291849   7.872  14.355   7.519
30004SOL     OW91850  10.944   5.257   4.980
30004SOL    HW191851  10.906   5.187   4.927
30004SOL    HW291852  10.932   5.228   5.070
30005SOL     OW91853  14.762   6.594   4.198
30005SOL    HW191854  14.713   6.528   4.246
30005SOL    HW291855  14.830   6.623   4.258
30006SOL     OW91856   2.267  10.129  11.996
30006SOL    HW191857   2.327  10.056  11.988
30006SOL    HW291858   2.314  10.194  12.049
30007SOL     OW91859   0.605   8.230  13.185
30007SOL    HW191860   0.569   8.142  13.196
30007SOL    HW291861   0.699   8.220  13.199
30008SOL     OW91862   7.655  12.175  14.668
30008SOL    HW191863   7.748  12.189  14.686
30008SOL    HW291864   7.623  12.260  14.641
30009SOL     OW91865   8.702  10.092  11.933
30009SOL    HW191866   8.760  10.097  12.009
30009SOL    HW291867   8.635  10.028  11.958
30010SOL     OW91868  11.363   9.018   7.878
30010SOL    HW191869  11.365   9.016   7.974
30010SOL    HW291870  11.392   9.106   7.856
30011SOL     OW91871   4.867  13.250   0.847
30011SOL    HW191872   4.852  13.325   0.789
30011SOL    HW291873   4.791  13.251   0.906
30012SOL     OW91874  11.562   6.570  11.439
30012SOL    HW191875  11.603   6.536  11.360
30012SOL    HW291876  11.628   6.627  11.478
30013SOL     OW91877  13.679  12.362  11.969
30013SOL    HW191878  13.697  12.282  12.019
30013SOL    HW291879  13.583  12.366  11.965
30014SOL     OW91880   5.739   0.761   8.151
30014SOL    HW191881   5.822   0.801   8.179
30014SOL    HW291882   5.677   0.833   8.148
30015SOL     OW91883  13.879   8.052   2.938
30015SOL    HW191884  13.964   8.089   2.963
30015SOL    HW291885  13.818   8.085   3.003
30016SOL     OW91886   8.695   1.453   9.543
30016SOL    HW191887   8.747   1.391   9.593
30016SOL    HW291888   8.737   1.538   9.559
30017SOL     OW91889  14.720  14.109   0.855
30017SOL    HW191890  14.803  14.138   0.891
30017SOL    HW291891  14.724  14.013   0.859
30018SOL     OW91892   3.543   3.181  13.544
30018SOL    HW191893   3.498   3.247  13.597
30018SOL    HW291894   3.549   3.104  13.601
30019SOL     OW91895   8.615   9.880   4.927
30019SOL    HW191896   8.534   9.839   4.898
30019SOL    HW291897   8.683   9.815   4.906
30020SOL     OW91898   0.151   8.864  13.898
30020SOL    HW191899   0.118   8.801  13.962
30020SOL    HW291900   0.240   8.835  13.879
30021SOL     OW91901   9.481  14.200   5.542
30021SOL    HW191902   9.437  14.115   5.540
30021SOL    HW291903   9.561  14.186   5.491
30022SOL     OW91904   9.199   2.070   6.886
30022SOL    HW191905   9.141   2.107   6.821
30022SOL    HW291906   9.246   2.000   6.840
30023SOL     OW91907  12.435  12.264   7.771
30023SOL    HW191908  12.380  12.316   7.713
30023SOL    HW291909  12.387  12.182   7.783
30024SOL     OW91910   2.657  13.111   1.298
30024SOL    HW191911   2.619  13.093   1.212
30024SOL    HW291912   2.719  13.040   1.313
30025SOL     OW91913  11.778   0.745  10.524
30025SOL    HW191914  11.780   0.764  10.430
30025SOL    HW291915  11.788   0.830  10.566
30026SOL     OW91916   6.323   1.857   3.267
30026SOL    HW191917   6.336   1.917   3.341
30026SOL    HW291918   6.339   1.770   3.304
30027SOL     OW91919   8.138  11.835   8.252
30027SOL    HW191920   8.122  11.915   8.303
30027SOL    HW291921   8.234  11.829   8.247
30028SOL     OW91922  12.143   4.250   6.656
30028SOL    HW191923  12.160   4.252   6.750
30028SOL    HW291924  12.131   4.158   6.635
30029SOL     OW91925   6.216   8.642   3.767
30029SOL    HW191926   6.177   8.667   3.851
30029SOL    HW291927   6.254   8.556   3.784
30030SOL     OW91928   2.535  10.978   7.005
30030SOL    HW191929   2.521  10.883   6.996
30030SOL    HW291930   2.450  11.012   7.034
30031SOL     OW91931   5.140   7.439   4.394
30031SOL    HW191932   5.117   7.394   4.312
30031SOL    HW291933   5.106   7.382   4.463
30032SOL     OW91934  13.559   8.097   4.235
30032SOL    HW191935  13.636   8.113   4.180
30032SOL    HW291936  13.488   8.146   4.193
30033SOL     OW91937   3.360   4.552   0.231
30033SOL    HW191938   3.432   4.562   0.292
30033SOL    HW291939   3.281   4.557   0.285
30034SOL     OW91940   3.885  11.058   4.544
30034SOL    HW191941   3.900  11.081   4.453
30034SOL    HW291942   3.863  11.141   4.587
30035SOL     OW91943   6.081  13.547   6.771
30035SOL    HW191944   6.024  13.568   6.697
30035SOL    HW291945   6.022  13.546   6.846
30036SOL     OW91946   9.695   6.715  14.304
30036SOL    HW191947   9.608   6.677  14.315
30036SOL    HW291948   9.744   6.650  14.254
30037SOL     OW91949  11.425   1.865  14.212
30037SOL    HW191950  11.378   1.791  14.250
30037SOL    HW291951  11.406   1.938  14.271
30038SOL     OW91952   3.789  10.703   8.034
30038SOL    HW191953   3.803  10.731   7.943
30038SOL    HW291954   3.695  10.713   8.048
30039SOL     OW91955  13.806   0.975  13.188
30039SOL    HW191956  13.800   0.987  13.094
30039SOL    HW291957  13.727   1.015  13.223
30040SOL     OW91958   2.877   8.649   4.489
30040SOL    HW191959   2.883   8.722   4.428
30040SOL    HW291960   2.821   8.682   4.560
30041SOL     OW91961   0.470   4.414   2.581
30041SOL    HW191962   0.526   4.461   2.519
30041SOL    HW291963   0.403   4.374   2.526
30042SOL     OW91964  13.243   6.085   6.907
30042SOL    HW191965  13.258   5.998   6.942
30042SOL    HW291966  13.151   6.104   6.928
30043SOL     OW91967  10.624   1.453   9.442
30043SOL    HW191968  10.567   1.495   9.506
30043SOL    HW291969  10.570   1.384   9.403
30044SOL     OW91970   8.690   4.219   7.921
30044SOL    HW191971   8.701   4.313   7.912
30044SOL    HW291972   8.690   4.185   7.832
30045SOL     OW91973   6.098   7.839   7.914
30045SOL    HW191974   6.111   7.883   7.830
30045SOL    HW291975   6.107   7.908   7.979
30046SOL     OW91976   6.095   5.605   8.290
30046SOL    HW191977   6.116   5.519   8.326
30046SOL    HW291978   6.117   5.598   8.197
30047SOL     OW91979  11.105   9.420   7.144
30047SOL    HW191980  11.093   9.438   7.051
30047SOL    HW291981  11.133   9.328   7.147
30048SOL     OW91982  13.092   8.830  11.893
30048SOL    HW191983  13.143   8.772  11.837
30048SOL    HW291984  13.041   8.884  11.833
30049SOL     OW91985   8.963   2.533   5.491
30049SOL    HW191986   8.992   2.603   5.432
30049SOL    HW291987   8.985   2.565   5.578
30050SOL     OW91988   3.630   2.408   7.544
30050SOL    HW191989   3.558   2.424   7.605
30050SOL    HW291990   3.597   2.340   7.485
30051SOL     OW91991   7.356   7.457   2.494
30051SOL    HW191992   7.392   7.425   2.577
30051SOL    HW291993   7.313   7.380   2.456
30052SOL     OW91994   8.163  10.662   7.394
30052SOL    HW191995   8.155  10.732   7.459
30052SOL    HW291996   8.091  10.603   7.414
30053SOL     OW91997   5.677   3.548   9.310
30053SOL    HW191998   5.715   3.570   9.395
30053SOL    HW291999   5.753   3.528   9.254
30054SOL     OW92000   5.588   9.598  13.078
30054SOL    HW192001   5.542   9.586  13.161
30054SOL    HW292002   5.560   9.684  13.048
30055SOL     OW92003   7.897   5.542  13.981
30055SOL    HW192004   7.828   5.580  13.927
30055SOL    HW292005   7.935   5.617  14.028
30056SOL     OW92006   4.326   8.275  10.653
30056SOL    HW192007   4.302   8.364  10.628
30056SOL    HW292008   4.246   8.239  10.693
30057SOL     OW92009   4.588   0.131   8.507
30057SOL    HW192010   4.563   0.073   8.436
30057SOL    HW292011   4.567   0.219   8.476
30058SOL     OW92012   5.737  12.574  10.236
30058SOL    HW192013   5.676  12.500  10.234
30058SOL    HW292014   5.722  12.619  10.153
30059SOL     OW92015   3.607   6.431  10.893
30059SOL    HW192016   3.582   6.341  10.875
30059SOL    HW292017   3.664   6.425  10.970
30060SOL     OW92018   1.658   0.767   0.987
30060SOL    HW192019   1.705   0.828   1.043
30060SOL    HW292020   1.620   0.703   1.047
30061SOL     OW92021   9.280   2.685   5.600
30061SOL    HW192022   9.221   2.725   5.536
30061SOL    HW292023   9.225   2.667   5.676
30062SOL     OW92024  14.337  10.748  13.916
30062SOL    HW192025  14.276  10.821  13.929
30062SOL    HW292026  14.392  10.748  13.994
30063SOL     OW92027   5.464   7.179   4.921
30063SOL    HW192028   5.401   7.244   4.953
30063SOL    HW292029   5.455   7.106   4.982
30064SOL     OW92030   2.248   4.528   4.688
30064SOL    HW192031   2.336   4.554   4.714
30064SOL    HW292032   2.198   4.610   4.685
30065SOL     OW92033  11.608   6.346  14.835
30065SOL    HW192034  11.526   6.360  14.788
30065SOL    HW292035  11.674   6.395  14.785
30066SOL     OW92036  14.441  12.735   7.939
30066SOL    HW192037  14.399  12.821   7.932
30066SOL    HW292038  14.534  12.755   7.947
30067SOL     OW92039  10.884  14.156  14.438
30067SOL    HW192040  10.882  14.200  14.523
30067SOL    HW292041  10.841  14.071  14.453
30068SOL     OW92042   7.024  11.330  11.684
30068SOL    HW192043   6.934  11.305  11.666
30068SOL    HW292044   7.048  11.280  11.762
30069SOL     OW92045   7.859  14.844   9.755
30069SOL    HW192046   7.820  14.768   9.797
30069SOL    HW292047   7.829   0.045   9.807
30070SOL     OW92048   1.601  10.952   4.283
30070SOL    HW192049   1.612  10.916   4.371
30070SOL    HW292050   1.677  11.008   4.269
30071SOL     OW92051  13.260   7.821  12.086
30071SOL    HW192052  13.265   7.805  12.180
30071SOL    HW292053  13.321   7.894  12.071
30072SOL     OW92054   3.721  14.200   2.214
30072SOL    HW192055   3.757  14.177   2.300
30072SOL    HW292056   3.660  14.129   2.194
30073SOL     OW92057   8.508   1.783  13.412
30073SOL    HW192058   8.574   1.743  13.470
30073SOL    HW292059   8.544   1.869  13.391
30074SOL     OW92060  14.457  10.251  12.687
30074SOL    HW192061  14.534  10.297  12.719
30074SOL    HW292062  14.385  10.312  12.703
30075SOL     OW92063   8.752   4.613   2.332
30075SOL    HW192064   8.829   4.575   2.374
30075SOL    HW292065   8.770   4.706   2.326
30076SOL     OW92066   4.169   3.593   7.979
30076SOL    HW192067   4.123   3.676   7.985
30076SOL    HW292068   4.113   3.530   8.025
30077SOL     OW92069  14.288  11.111  13.122
30077SOL    HW192070  14.264  11.175  13.055
30077SOL    HW292071  14.216  11.048  13.122
30078SOL     OW92072  12.326   1.044  10.335
30078SOL    HW192073  12.294   0.954  10.341
30078SOL    HW292074  12.279   1.090  10.403
30079SOL     OW92075  12.093   3.254  11.409
30079SOL    HW192076  12.089   3.225  11.500
30079SOL    HW292077  12.187   3.252  11.387
30080SOL     OW92078   1.702   4.610   3.894
30080SOL    HW192079   1.678   4.562   3.973
30080SOL    HW292080   1.757   4.549   3.844
30081SOL     OW92081   8.449   4.653  12.699
30081SOL    HW192082   8.360   4.621  12.686
30081SOL    HW292083   8.448   4.693  12.785
30082SOL     OW92084  14.066   4.889  11.128
30082SOL    HW192085  14.110   4.817  11.082
30082SOL    HW292086  13.991   4.848  11.170
30083SOL     OW92087   3.797   1.395  10.699
30083SOL    HW192088   3.781   1.489  10.693
30083SOL    HW292089   3.864   1.386  10.766
30084SOL     OW92090   0.553   5.379   4.704
30084SOL    HW192091   0.637   5.360   4.745
30084SOL    HW292092   0.560   5.471   4.676
30085SOL     OW92093   0.874  10.781   5.763
30085SOL    HW192094   0.809  10.731   5.811
30085SOL    HW292095   0.922  10.829   5.830
30086SOL     OW92096  13.320   3.834   9.109
30086SOL    HW192097  13.275   3.808   9.190
30086SOL    HW292098  13.260   3.897   9.068
30087SOL     OW92099  11.591   1.685  14.851
30087SOL    HW192100  11.563   1.758  14.796
30087SOL    HW292101  11.598   1.611  14.791
30088SOL     OW92102  11.718   3.352   6.194
30088SOL    HW192103  11.751   3.361   6.104
30088SOL    HW292104  11.732   3.259   6.215
30089SOL     OW92105   7.215   9.385   9.381
30089SOL    HW192106   7.256   9.301   9.359
30089SOL    HW292107   7.138   9.391   9.324
30090SOL     OW92108   1.838   3.132   5.348
30090SOL    HW192109   1.900   3.163   5.283
30090SOL    HW292110   1.888   3.073   5.404
30091SOL     OW92111   9.627  12.928   2.672
30091SOL    HW192112   9.538  12.962   2.664
30091SOL    HW292113   9.668  12.981   2.740
30092SOL     OW92114   1.303  11.325   7.427
30092SOL    HW192115   1.267  11.246   7.387
30092SOL    HW292116   1.248  11.396   7.394
30093SOL     OW92117   9.008   6.885   8.812
30093SOL    HW192118   9.096   6.887   8.774
30093SOL    HW292119   8.950   6.907   8.740
30094SOL     OW92120  13.017   9.114   0.957
30094SOL    HW192121  12.998   9.203   0.986
30094SOL    HW292122  12.933   9.069   0.959
30095SOL     OW92123   5.761   1.557  12.292
30095SOL    HW192124   5.685   1.615  12.302
30095SOL    HW292125   5.766   1.509  12.375
30096SOL     OW92126  12.562   4.297  11.510
30096SOL    HW192127  12.547   4.257  11.596
30096SOL    HW292128  12.655   4.317  11.509
30097SOL     OW92129   7.470   6.608  14.153
30097SOL    HW192130   7.483   6.703  14.161
30097SOL    HW292131   7.549   6.570  14.191
30098SOL     OW92132  12.668   6.300   5.041
30098SOL    HW192133  12.694   6.335   4.956
30098SOL    HW292134  12.721   6.220   5.050
30099SOL     OW92135   8.925   2.175   3.732
30099SOL    HW192136   8.866   2.230   3.680
30099SOL    HW292137   8.953   2.231   3.804
30100SOL     OW92138   1.329   5.045   3.231
30100SOL    HW192139   1.295   5.107   3.295
30100SOL    HW292140   1.385   5.098   3.174
30101SOL     OW92141  10.504  10.802   4.140
30101SOL    HW192142  10.561  10.759   4.203
30101SOL    HW292143  10.491  10.737   4.071
30102SOL     OW92144   1.139   7.515   7.285
30102SOL    HW192145   1.183   7.557   7.358
30102SOL    HW292146   1.091   7.585   7.241
30103SOL     OW92147  12.054   4.202   8.204
30103SOL    HW192148  12.045   4.138   8.275
30103SOL    HW292149  12.149   4.212   8.194
30104SOL     OW92150   1.004   1.089   8.451
30104SOL    HW192151   0.931   1.063   8.507
30104SOL    HW292152   0.967   1.090   8.363
30105SOL     OW92153  10.699   4.337  13.056
30105SOL    HW192154  10.633   4.276  13.023
30105SOL    HW292155  10.726   4.387  12.979
30106SOL     OW92156   0.155   1.467  12.773
30106SOL    HW192157   0.220   1.490  12.839
30106SOL    HW292158   0.205   1.457  12.692
30107SOL     OW92159   2.041   3.516  10.950
30107SOL    HW192160   2.115   3.573  10.928
30107SOL    HW292161   2.075   3.427  10.936
30108SOL     OW92162  12.569   4.458  12.780
30108SOL    HW192163  12.530   4.375  12.754
30108SOL    HW292164  12.496   4.509  12.817
30109SOL     OW92165   8.096   3.399  14.217
30109SOL    HW192166   8.099   3.416  14.123
30109SOL    HW292167   8.187   3.380  14.241
30110SOL     OW92168   6.391   2.664   2.951
30110SOL    HW192169   6.352   2.579   2.936
30110SOL    HW292170   6.348   2.697   3.030
30111SOL     OW92171  12.589   2.045  12.416
30111SOL    HW192172  12.544   2.128  12.404
30111SOL    HW292173  12.538   1.982  12.366
30112SOL     OW92174  12.185  14.623   4.179
30112SOL    HW192175  12.092  14.602   4.182
30112SOL    HW292176  12.201  14.671   4.260
30113SOL     OW92177  13.446   3.624   9.721
30113SOL    HW192178  13.423   3.547   9.670
30113SOL    HW292179  13.536   3.607   9.750
30114SOL     OW92180   2.402  10.036  14.752
30114SOL    HW192181   2.350   9.968  14.793
30114SOL    HW292182   2.458  10.069  14.822
30115SOL     OW92183   0.475   0.917   1.936
30115SOL    HW192184   0.529   0.874   2.002
30115SOL    HW292185   0.406   0.961   1.987
30116SOL     OW92186   1.677   0.810   7.270
30116SOL    HW192187   1.699   0.789   7.361
30116SOL    HW292188   1.709   0.735   7.220
30117SOL     OW92189   1.897   1.970   7.561
30117SOL    HW192190   1.837   1.943   7.491
30117SOL    HW292191   1.841   1.982   7.637
30118SOL     OW92192  14.294   5.955   3.072
30118SOL    HW192193  14.211   5.912   3.050
30118SOL    HW292194  14.276   6.049   3.061
30119SOL     OW92195   5.507   0.522  10.386
30119SOL    HW192196   5.536   0.519  10.477
30119SOL    HW292197   5.507   0.615  10.363
30120SOL     OW92198   6.209   3.183  11.572
30120SOL    HW192199   6.253   3.265  11.595
30120SOL    HW292200   6.266   3.115  11.607
30121SOL     OW92201   1.771  14.365   8.546
30121SOL    HW192202   1.818  14.320   8.476
30121SOL    HW292203   1.830  14.360   8.622
30122SOL     OW92204  10.764   9.215   1.742
30122SOL    HW192205  10.701   9.154   1.704
30122SOL    HW292206  10.714   9.263   1.808
30123SOL     OW92207   4.904  12.832   8.592
30123SOL    HW192208   4.846  12.870   8.526
30123SOL    HW292209   4.992  12.856   8.562
30124SOL     OW92210  10.222   0.625   1.118
30124SOL    HW192211  10.318   0.627   1.123
30124SOL    HW292212  10.202   0.545   1.070
30125SOL     OW92213   2.092   7.104   6.836
30125SOL    HW192214   2.047   7.164   6.895
30125SOL    HW292215   2.180   7.141   6.827
30126SOL     OW92216  12.809   5.642   6.620
30126SOL    HW192217  12.742   5.668   6.682
30126SOL    HW292218  12.828   5.551   6.641
30127SOL     OW92219   9.032  13.856   0.996
30127SOL    HW192220   9.051  13.769   1.030
30127SOL    HW292221   9.032  13.913   1.073
30128SOL     OW92222   7.006   0.690  10.867
30128SOL    HW192223   6.939   0.752  10.835
30128SOL    HW292224   7.055   0.740  10.932
30129SOL     OW92225   0.281   9.507   1.867
30129SOL    HW192226   0.259   9.554   1.786
30129SOL    HW292227   0.373   9.486   1.858
30130SOL     OW92228   5.467   8.973  14.077
30130SOL    HW192229   5.490   9.054  14.030
30130SOL    HW292230   5.550   8.946  14.118
30131SOL     OW92231   5.113   3.500   8.837
30131SOL    HW192232   5.027   3.460   8.825
30131SOL    HW292233   5.113   3.577   8.780
30132SOL     OW92234  14.571   8.476  13.813
30132SOL    HW192235  14.647   8.421  13.796
30132SOL    HW292236  14.592   8.520  13.895
30133SOL     OW92237   0.797   9.150  12.590
30133SOL    HW192238   0.749   9.107  12.519
30133SOL    HW292239   0.760   9.238  12.593
30134SOL     OW92240  11.135   5.169   8.120
30134SOL    HW192241  11.141   5.242   8.057
30134SOL    HW292242  11.224   5.135   8.125
30135SOL     OW92243   5.924   3.995   7.881
30135SOL    HW192244   5.907   3.903   7.862
30135SOL    HW292245   5.838   4.032   7.902
30136SOL     OW92246   7.682   4.927   8.938
30136SOL    HW192247   7.747   4.998   8.930
30136SOL    HW292248   7.701   4.888   9.024
30137SOL     OW92249   7.120   1.850  11.855
30137SOL    HW192250   7.212   1.828  11.843
30137SOL    HW292251   7.122   1.932  11.905
30138SOL     OW92252  12.040  14.781   2.716
30138SOL    HW192253  12.038  14.829   2.633
30138SOL    HW292254  12.074  14.694   2.693
30139SOL     OW92255  12.810   5.944   8.185
30139SOL    HW192256  12.730   5.996   8.192
30139SOL    HW292257  12.857   5.984   8.111
30140SOL     OW92258   7.018  11.479  11.460
30140SOL    HW192259   7.019  11.406  11.522
30140SOL    HW292260   7.110  11.502  11.448
30141SOL     OW92261   0.849   5.942   7.360
30141SOL    HW192262   0.871   6.009   7.295
30141SOL    HW292263   0.918   5.948   7.426
30142SOL     OW92264   0.233   7.615  11.273
30142SOL    HW192265   0.309   7.557  11.267
30142SOL    HW292266   0.185   7.584  11.349
30143SOL     OW92267   6.145   5.881   4.211
30143SOL    HW192268   6.113   5.952   4.268
30143SOL    HW292269   6.161   5.924   4.127
30144SOL     OW92270   0.484   2.342  13.164
30144SOL    HW192271   0.393   2.372  13.160
30144SOL    HW292272   0.512   2.362  13.254
30145SOL     OW92273   1.396   3.964  12.263
30145SOL    HW192274   1.460   3.893  12.265
30145SOL    HW292275   1.338   3.942  12.190
30146SOL     OW92276  13.187  11.548   9.821
30146SOL    HW192277  13.276  11.534   9.852
30146SOL    HW292278  13.153  11.619   9.877
30147SOL     OW92279  11.084   6.175  10.698
30147SOL    HW192280  11.128   6.230  10.633
30147SOL    HW292281  10.993   6.204  10.696
30148SOL     OW92282   1.258   5.304   7.555
30148SOL    HW192283   1.224   5.378   7.605
30148SOL    HW292284   1.206   5.304   7.474
30149SOL     OW92285  13.886   9.952   7.323
30149SOL    HW192286  13.817   9.905   7.278
30149SOL    HW292287  13.948   9.884   7.350
30150SOL     OW92288   8.724   1.658   5.516
30150SOL    HW192289   8.807   1.609   5.520
30150SOL    HW292290   8.704   1.677   5.608
30151SOL     OW92291   0.875   9.518   4.767
30151SOL    HW192292   0.815   9.576   4.814
30151SOL    HW292293   0.849   9.430   4.794
30152SOL     OW92294  11.969   9.667   9.009
30152SOL    HW192295  11.941   9.700   8.924
30152SOL    HW292296  11.959   9.740   9.069
30153SOL     OW92297   9.996  12.195   0.212
30153SOL    HW192298  10.068  12.259   0.217
30153SOL    HW292299   9.955  12.197   0.298
30154SOL     OW92300  10.570   2.393   4.429
30154SOL    HW192301  10.538   2.369   4.343
30154SOL    HW292302  10.536   2.326   4.488
30155SOL     OW92303   0.170   4.398   0.094
30155SOL    HW192304   0.215   4.327   0.139
30155SOL    HW292305   0.137   4.359   0.014
30156SOL     OW92306   6.254  11.558   1.566
30156SOL    HW192307   6.247  11.649   1.594
30156SOL    HW292308   6.346  11.536   1.579
30157SOL     OW92309   8.195   2.305   3.893
30157SOL    HW192310   8.240   2.223   3.872
30157SOL    HW292311   8.226   2.327   3.981
30158SOL     OW92312   6.305  10.867   9.470
30158SOL    HW192313   6.339  10.782   9.444
30158SOL    HW292314   6.280  10.856   9.562
30159SOL     OW92315  13.192   4.141   5.399
30159SOL    HW192316  13.281   4.108   5.390
30159SOL    HW292317  13.173   4.183   5.315
30160SOL     OW92318   5.288   3.835   2.447
30160SOL    HW192319   5.274   3.781   2.370
30160SOL    HW292320   5.375   3.810   2.478
30161SOL     OW92321   8.930  13.104  11.261
30161SOL    HW192322   8.982  13.126  11.184
30161SOL    HW292323   8.941  13.179  11.319
30162SOL     OW92324   7.528   3.364  14.561
30162SOL    HW192325   7.565   3.278  14.577
30162SOL    HW292326   7.571   3.421  14.625
30163SOL     OW92327  11.258  13.476  13.372
30163SOL    HW192328  11.230  13.394  13.331
30163SOL    HW292329  11.188  13.498  13.433
30164SOL     OW92330   4.509  14.027  12.180
30164SOL    HW192331   4.432  14.007  12.126
30164SOL    HW292332   4.576  13.965  12.150
30165SOL     OW92333  14.872   4.868  11.914
30165SOL    HW192334  14.787   4.830  11.937
30165SOL    HW292335   0.031   4.813  11.843
30166SOL     OW92336   2.051  14.350   1.114
30166SOL    HW192337   2.017  14.325   1.028
30166SOL    HW292338   1.982  14.323   1.175
30167SOL     OW92339   9.700  12.778   9.076
30167SOL    HW192340   9.641  12.852   9.057
30167SOL    HW292341   9.758  12.811   9.145
30168SOL     OW92342   8.028  11.987   3.865
30168SOL    HW192343   7.980  11.931   3.803
30168SOL    HW292344   7.962  12.016   3.927
30169SOL     OW92345  10.496  13.440   8.117
30169SOL    HW192346  10.591  13.455   8.120
30169SOL    HW292347  10.481  13.367   8.177
30170SOL     OW92348   7.417   4.382   7.841
30170SOL    HW192349   7.486   4.352   7.900
30170SOL    HW292350   7.396   4.305   7.788
30171SOL     OW92351   0.607  10.471   8.559
30171SOL    HW192352   0.594  10.412   8.633
30171SOL    HW292353   0.656  10.545   8.596
30172SOL     OW92354  14.425   8.070   5.455
30172SOL    HW192355  14.354   8.059   5.519
30172SOL    HW292356  14.459   7.982   5.442
30173SOL     OW92357   3.999   2.067   6.138
30173SOL    HW192358   3.967   2.158   6.135
30173SOL    HW292359   4.094   2.076   6.143
30174SOL     OW92360  13.583   6.896  10.010
30174SOL    HW192361  13.510   6.927  10.065
30174SOL    HW292362  13.659   6.898  10.069
30175SOL     OW92363   8.420   9.791  10.446
30175SOL    HW192364   8.368   9.826  10.519
30175SOL    HW292365   8.496   9.849  10.441
30176SOL     OW92366   9.602   3.187   0.642
30176SOL    HW192367   9.541   3.119   0.614
30176SOL    HW292368   9.549   3.249   0.692
30177SOL     OW92369  12.972  12.230  11.867
30177SOL    HW192370  13.009  12.313  11.837
30177SOL    HW292371  13.026  12.163  11.825
30178SOL     OW92372   6.332   5.240   8.617
30178SOL    HW192373   6.403   5.178   8.633
30178SOL    HW292374   6.276   5.234   8.695
30179SOL     OW92375   7.136   5.269   9.503
30179SOL    HW192376   7.120   5.176   9.484
30179SOL    HW292377   7.050   5.310   9.498
30180SOL     OW92378   1.807   4.338  10.586
30180SOL    HW192379   1.729   4.284  10.581
30180SOL    HW292380   1.774   4.427  10.599
30181SOL     OW92381   4.113   8.985   9.899
30181SOL    HW192382   4.136   8.933   9.822
30181SOL    HW292383   4.037   8.940   9.936
30182SOL     OW92384   2.671  14.410   9.257
30182SOL    HW192385   2.669  14.492   9.207
30182SOL    HW292386   2.629  14.346   9.199
30183SOL     OW92387   8.528   4.487   6.661
30183SOL    HW192388   8.449   4.528   6.626
30183SOL    HW292389   8.545   4.535   6.742
30184SOL     OW92390   7.392  11.267   1.717
30184SOL    HW192391   7.458  11.268   1.647
30184SOL    HW292392   7.441  11.244   1.796
30185SOL     OW92393   3.019   6.005  13.176
30185SOL    HW192394   2.957   5.953  13.125
30185SOL    HW292395   3.101   5.998  13.128
30186SOL     OW92396   2.437  11.626   4.421
30186SOL    HW192397   2.490  11.651   4.497
30186SOL    HW292398   2.361  11.582   4.458
30187SOL     OW92399   2.318  13.636   5.724
30187SOL    HW192400   2.390  13.596   5.773
30187SOL    HW292401   2.301  13.718   5.770
30188SOL     OW92402   4.357   3.390  13.215
30188SOL    HW192403   4.294   3.416  13.148
30188SOL    HW292404   4.305   3.383  13.295
30189SOL     OW92405  11.205  10.852   3.398
30189SOL    HW192406  11.241  10.765   3.379
30189SOL    HW292407  11.248  10.910   3.334
30190SOL     OW92408  13.750   1.183   6.456
30190SOL    HW192409  13.739   1.091   6.435
30190SOL    HW292410  13.680   1.228   6.408
30191SOL     OW92411  14.314   6.355   6.605
30191SOL    HW192412  14.247   6.303   6.561
30191SOL    HW292413  14.377   6.376   6.537
30192SOL     OW92414   7.856   8.684  12.183
30192SOL    HW192415   7.939   8.669  12.228
30192SOL    HW292416   7.862   8.774  12.151
30193SOL     OW92417   9.985   7.018   7.942
30193SOL    HW192418  10.036   7.033   7.863
30193SOL    HW292419  10.048   7.025   8.014
30194SOL     OW92420  12.583  10.181  12.105
30194SOL    HW192421  12.651  10.176  12.037
30194SOL    HW292422  12.576  10.092  12.138
30195SOL     OW92423   6.820  14.664   6.453
30195SOL    HW192424   6.764  14.588   6.469
30195SOL    HW292425   6.868  14.641   6.373
30196SOL     OW92426   7.060  11.593   5.166
30196SOL    HW192427   7.076  11.597   5.260
30196SOL    HW292428   7.141  11.557   5.129
30197SOL     OW92429  11.369  10.865   2.324
30197SOL    HW192430  11.344  10.838   2.413
30197SOL    HW292431  11.299  10.831   2.269
30198SOL     OW92432  11.942   2.155   4.483
30198SOL    HW192433  11.976   2.230   4.434
30198SOL    HW292434  11.864   2.188   4.527
30199SOL     OW92435  11.941   3.637   8.627
30199SOL    HW192436  11.999   3.645   8.702
30199SOL    HW292437  11.855   3.616   8.665
30200SOL     OW92438   1.985  14.039   9.842
30200SOL    HW192439   2.075  14.007   9.851
30200SOL    HW292440   1.960  14.017   9.753
30201SOL     OW92441   2.573   6.862  13.491
30201SOL    HW192442   2.553   6.818  13.408
30201SOL    HW292443   2.491   6.861  13.539
30202SOL     OW92444   4.442   7.761   5.168
30202SOL    HW192445   4.357   7.794   5.197
30202SOL    HW292446   4.466   7.696   5.235
30203SOL     OW92447   6.600   2.321  10.711
30203SOL    HW192448   6.640   2.407  10.721
30203SOL    HW292449   6.654   2.277  10.646
30204SOL     OW92450   1.152   5.519   1.139
30204SOL    HW192451   1.145   5.589   1.204
30204SOL    HW292452   1.062   5.485   1.132
30205SOL     OW92453   5.657   0.334  13.352
30205SOL    HW192454   5.671   0.416  13.305
30205SOL    HW292455   5.696   0.267  13.296
30206SOL     OW92456  14.125   6.648   5.531
30206SOL    HW192457  14.071   6.666   5.608
30206SOL    HW292458  14.207   6.694   5.547
30207SOL     OW92459  14.492  13.497   3.043
30207SOL    HW192460  14.408  13.451   3.037
30207SOL    HW292461  14.469  13.585   3.074
30208SOL     OW92462   7.239   6.742  12.035
30208SOL    HW192463   7.179   6.757  11.963
30208SOL    HW292464   7.182   6.726  12.111
30209SOL     OW92465   0.688  13.438  12.077
30209SOL    HW192466   0.676  13.347  12.102
30209SOL    HW292467   0.778  13.459  12.102
30210SOL     OW92468   9.612   3.316   7.530
30210SOL    HW192469   9.549   3.354   7.592
30210SOL    HW292470   9.592   3.359   7.447
30211SOL     OW92471   3.242   6.191   6.714
30211SOL    HW192472   3.251   6.266   6.655
30211SOL    HW292473   3.240   6.230   6.801
30212SOL     OW92474   0.615  10.126  10.096
30212SOL    HW192475   0.671  10.063  10.142
30212SOL    HW292476   0.646  10.125  10.006
30213SOL     OW92477   3.590  10.544   8.192
30213SOL    HW192478   3.600  10.482   8.119
30213SOL    HW292479   3.556  10.623   8.151
30214SOL     OW92480   0.798  10.166  12.367
30214SOL    HW192481   0.820  10.201  12.453
30214SOL    HW292482   0.750  10.237  12.324
30215SOL     OW92483   3.898   2.649  12.961
30215SOL    HW192484   3.812   2.691  12.951
30215SOL    HW292485   3.940   2.660  12.876
30216SOL     OW92486  11.871  13.329   2.139
30216SOL    HW192487  11.882  13.324   2.045
30216SOL    HW292488  11.844  13.241   2.165
30217SOL     OW92489  10.545  12.163   0.052
30217SOL    HW192490  10.605  12.106   0.004
30217SOL    HW292491  10.524  12.114   0.131
30218SOL     OW92492   8.869   2.330   8.097
30218SOL    HW192493   8.876   2.275   8.175
30218SOL    HW292494   8.820   2.407   8.127
30219SOL     OW92495   0.784   3.703   2.750
30219SOL    HW192496   0.757   3.667   2.834
30219SOL    HW292497   0.856   3.646   2.722
30220SOL     OW92498  10.791   7.265  12.861
30220SOL    HW192499  10.751   7.178  12.859
30220SOL    HW292500  10.815   7.282  12.770
30221SOL     OW92501   0.719   9.165   9.754
30221SOL    HW192502   0.698   9.259   9.762
30221SOL    HW292503   0.672   9.136   9.676
30222SOL     OW92504  12.169  13.068  10.718
30222SOL    HW192505  12.199  13.112  10.798
30222SOL    HW292506  12.081  13.038  10.739
30223SOL     OW92507   3.606  11.931   8.927
30223SOL    HW192508   3.536  11.995   8.916
30223SOL    HW292509   3.628  11.903   8.838
30224SOL     OW92510   6.161   1.321   3.294
30224SOL    HW192511   6.224   1.392   3.306
30224SOL    HW292512   6.169   1.297   3.202
30225SOL     OW92513   7.033  11.921   1.786
30225SOL    HW192514   6.980  11.847   1.814
30225SOL    HW292515   7.123  11.890   1.792
30226SOL     OW92516  11.735   0.132   4.283
30226SOL    HW192517  11.759   0.222   4.305
30226SOL    HW292518  11.756   0.124   4.189
30227SOL     OW92519  12.883   8.442   6.114
30227SOL    HW192520  12.888   8.516   6.174
30227SOL    HW292521  12.953   8.458   6.050
30228SOL     OW92522  10.455  12.016   6.121
30228SOL    HW192523  10.367  12.018   6.083
30228SOL    HW292524  10.493  12.101   6.099
30229SOL     OW92525   6.067   1.427  10.401
30229SOL    HW192526   6.157   1.457  10.414
30229SOL    HW292527   6.027   1.432  10.488
30230SOL     OW92528   9.377   3.319   9.107
30230SOL    HW192529   9.304   3.374   9.134
30230SOL    HW292530   9.452   3.355   9.155
30231SOL     OW92531   5.280   4.342   3.117
30231SOL    HW192532   5.251   4.391   3.039
30231SOL    HW292533   5.199   4.327   3.166
30232SOL     OW92534   1.953  11.664   5.017
30232SOL    HW192535   2.010  11.691   4.945
30232SOL    HW292536   1.917  11.746   5.050
30233SOL     OW92537  13.789   8.492   2.684
30233SOL    HW192538  13.695   8.511   2.684
30233SOL    HW292539  13.827   8.559   2.739
30234SOL     OW92540   7.241   6.355  11.714
30234SOL    HW192541   7.256   6.431  11.658
30234SOL    HW292542   7.213   6.392  11.798
30235SOL     OW92543  14.320   5.767   2.004
30235SOL    HW192544  14.321   5.853   1.962
30235SOL    HW292545  14.317   5.785   2.097
30236SOL     OW92546  13.847   7.040   5.150
30236SOL    HW192547  13.889   6.999   5.226
30236SOL    HW292548  13.859   6.977   5.079
30237SOL     OW92549   9.661   3.178   5.955
30237SOL    HW192550   9.652   3.149   6.046
30237SOL    HW292551   9.750   3.152   5.931
30238SOL     OW92552   8.041   8.265   4.933
30238SOL    HW192553   8.066   8.266   4.840
30238SOL    HW292554   8.013   8.355   4.951
30239SOL     OW92555  11.777   3.051   5.713
30239SOL    HW192556  11.832   3.129   5.714
30239SOL    HW292557  11.806   3.003   5.635
30240SOL     OW92558   6.953   3.989   2.684
30240SOL    HW192559   6.943   3.941   2.602
30240SOL    HW292560   6.884   3.953   2.741
30241SOL     OW92561   2.413  13.041  11.503
30241SOL    HW192562   2.321  13.040  11.528
30241SOL    HW292563   2.413  13.075  11.414
30242SOL     OW92564   0.469  12.301  13.322
30242SOL    HW192565   0.420  12.229  13.360
30242SOL    HW292566   0.473  12.280  13.228
30243SOL     OW92567   2.909   2.319   5.473
30243SOL    HW192568   2.827   2.300   5.428
30243SOL    HW292569   2.971   2.254   5.439
30244SOL     OW92570  10.624   1.957   8.385
30244SOL    HW192571  10.561   1.896   8.346
30244SOL    HW292572  10.672   1.993   8.310
30245SOL     OW92573   8.877  13.589   0.929
30245SOL    HW192574   8.885  13.679   0.961
30245SOL    HW292575   8.967  13.558   0.921
30246SOL     OW92576  12.657   3.615   0.267
30246SOL    HW192577  12.622   3.556   0.200
30246SOL    HW292578  12.715   3.559   0.319
30247SOL     OW92579   6.714  11.403   0.803
30247SOL    HW192580   6.692  11.432   0.892
30247SOL    HW292581   6.634  11.360   0.772
30248SOL     OW92582   6.188  10.497   6.304
30248SOL    HW192583   6.230  10.580   6.279
30248SOL    HW292584   6.253  10.430   6.284
30249SOL     OW92585  13.694   0.946  14.838
30249SOL    HW192586  13.607   0.958   0.002
30249SOL    HW292587  13.746   1.017   0.001
30250SOL     OW92588   3.560   3.111  11.298
30250SOL    HW192589   3.514   3.193  11.278
30250SOL    HW292590   3.567   3.066  11.213
30251SOL     OW92591   2.852   6.699  10.850
30251SOL    HW192592   2.839   6.791  10.871
30251SOL    HW292593   2.913   6.667  10.917
30252SOL     OW92594  10.459   2.773   3.580
30252SOL    HW192595  10.422   2.691   3.549
30252SOL    HW292596  10.464   2.828   3.502
30253SOL     OW92597  10.590   0.750   4.672
30253SOL    HW192598  10.612   0.796   4.591
30253SOL    HW292599  10.667   0.696   4.689
30254SOL     OW92600   0.965   9.134   7.087
30254SOL    HW192601   0.972   9.087   7.171
30254SOL    HW292602   1.052   9.171   7.073
30255SOL     OW92603   1.447  13.511   5.549
30255SOL    HW192604   1.352  13.505   5.548
30255SOL    HW292605   1.476  13.436   5.496
30256SOL     OW92606  13.365   0.337   6.881
30256SOL    HW192607  13.428   0.408   6.869
30256SOL    HW292608  13.280   0.376   6.861
30257SOL     OW92609   1.664   9.693   4.395
30257SOL    HW192610   1.731   9.671   4.459
30257SOL    HW292611   1.702   9.765   4.345
30258SOL     OW92612   3.336   9.791   1.963
30258SOL    HW192613   3.346   9.699   1.987
30258SOL    HW292614   3.242   9.804   1.956
30259SOL     OW92615   6.665  10.879   0.081
30259SOL    HW192616   6.665  10.966   0.041
30259SOL    HW292617   6.576  10.866   0.112
30260SOL     OW92618  14.669   3.953   7.562
30260SOL    HW192619  14.718   3.952   7.644
30260SOL    HW292620  14.588   3.906   7.581
30261SOL     OW92621  13.737   1.828   4.919
30261SOL    HW192622  13.772   1.893   4.980
30261SOL    HW292623  13.703   1.879   4.845
30262SOL     OW92624   1.591   6.675   6.705
30262SOL    HW192625   1.628   6.762   6.692
30262SOL    HW292626   1.615   6.651   6.794
30263SOL     OW92627   4.267   7.167   4.159
30263SOL    HW192628   4.296   7.207   4.077
30263SOL    HW292629   4.340   7.181   4.219
30264SOL     OW92630  14.281   5.263   5.547
30264SOL    HW192631  14.244   5.267   5.459
30264SOL    HW292632  14.266   5.172   5.575
30265SOL     OW92633  11.550   5.944  10.273
30265SOL    HW192634  11.546   5.926  10.367
30265SOL    HW292635  11.632   5.904  10.244
30266SOL     OW92636   7.653   9.752  12.146
30266SOL    HW192637   7.657   9.740  12.051
30266SOL    HW292638   7.665   9.846  12.159
30267SOL     OW92639   9.393  11.211   0.965
30267SOL    HW192640   9.336  11.286   0.948
30267SOL    HW292641   9.344  11.135   0.934
30268SOL     OW92642  10.760  11.264   1.039
30268SOL    HW192643  10.705  11.305   1.106
30268SOL    HW292644  10.704  11.259   0.962
30269SOL     OW92645   9.616   0.077   1.991
30269SOL    HW192646   9.662   0.160   1.976
30269SOL    HW292647   9.551   0.098   2.058
30270SOL     OW92648  10.988   7.668  11.196
30270SOL    HW192649  10.927   7.662  11.122
30270SOL    HW292650  11.070   7.699  11.158
30271SOL     OW92651  12.108   0.125   4.183
30271SOL    HW192652  12.197   0.090   4.172
30271SOL    HW292653  12.082   0.152   4.095
30272SOL     OW92654   6.578  10.048  13.029
30272SOL    HW192655   6.624  10.120  12.986
30272SOL    HW292656   6.505  10.029  12.971
30273SOL     OW92657   8.341   5.324  12.415
30273SOL    HW192658   8.332   5.313  12.321
30273SOL    HW292659   8.260   5.290  12.452
30274SOL     OW92660   2.493   9.219   9.249
30274SOL    HW192661   2.480   9.135   9.205
30274SOL    HW292662   2.404   9.254   9.259
30275SOL     OW92663  14.029  13.369  11.556
30275SOL    HW192664  14.084  13.292  11.548
30275SOL    HW292665  13.980  13.372  11.474
30276SOL     OW92666   6.765   8.101   7.244
30276SOL    HW192667   6.714   8.105   7.163
30276SOL    HW292668   6.700   8.102   7.314
30277SOL     OW92669   0.200  12.967  13.154
30277SOL    HW192670   0.221  12.983  13.062
30277SOL    HW292671   0.129  12.904  13.152
30278SOL     OW92672   2.410   3.764  10.715
30278SOL    HW192673   2.470   3.832  10.686
30278SOL    HW292674   2.467   3.691  10.741
30279SOL     OW92675   4.458   3.046   6.374
30279SOL    HW192676   4.428   3.042   6.465
30279SOL    HW292677   4.409   3.119   6.337
30280SOL     OW92678   3.599   2.491   9.078
30280SOL    HW192679   3.548   2.568   9.101
30280SOL    HW292680   3.533   2.427   9.049
30281SOL     OW92681   9.577  11.767   8.904
30281SOL    HW192682   9.651  11.827   8.915
30281SOL    HW292683   9.603  11.688   8.952
30282SOL     OW92684  13.691  10.907  13.327
30282SOL    HW192685  13.744  10.967  13.274
30282SOL    HW292686  13.601  10.922  13.296
30283SOL     OW92687   6.846   0.343  11.806
30283SOL    HW192688   6.882   0.398  11.737
30283SOL    HW292689   6.752   0.338  11.787
30284SOL     OW92690  14.412   7.648   7.472
30284SOL    HW192691  14.370   7.674   7.554
30284SOL    HW292692  14.358   7.686   7.403
30285SOL     OW92693   3.633   7.819   7.229
30285SOL    HW192694   3.655   7.728   7.210
30285SOL    HW292695   3.701   7.869   7.184
30286SOL     OW92696  12.307   5.012  11.164
30286SOL    HW192697  12.314   5.103  11.191
30286SOL    HW292698  12.296   5.015  11.069
30287SOL     OW92699   5.835   2.535  12.968
30287SOL    HW192700   5.823   2.445  12.936
30287SOL    HW292701   5.754   2.555  13.014
30288SOL     OW92702   1.884   7.121   8.272
30288SOL    HW192703   1.876   7.133   8.367
30288SOL    HW292704   1.914   7.030   8.262
30289SOL     OW92705   3.762   3.945   7.973
30289SOL    HW192706   3.793   4.032   7.947
30289SOL    HW292707   3.803   3.930   8.058
30290SOL     OW92708  10.321   5.980  12.452
30290SOL    HW192709  10.366   6.056  12.488
30290SOL    HW292710  10.359   5.969  12.365
30291SOL     OW92711   1.072   5.031   1.208
30291SOL    HW192712   1.113   5.055   1.125
30291SOL    HW292713   0.981   5.061   1.199
30292SOL     OW92714   7.920   3.676   9.816
30292SOL    HW192715   7.832   3.712   9.803
30292SOL    HW292716   7.924   3.602   9.756
30293SOL     OW92717  13.873   9.861  12.811
30293SOL    HW192718  13.938   9.866  12.742
30293SOL    HW292719  13.807   9.800  12.777
30294SOL     OW92720  10.248   9.342   1.779
30294SOL    HW192721  10.339   9.350   1.749
30294SOL    HW292722  10.256   9.318   1.871
30295SOL     OW92723   4.987  14.582   4.621
30295SOL    HW192724   5.042  14.568   4.698
30295SOL    HW292725   5.041  14.554   4.548
30296SOL     OW92726  10.462   7.397   9.192
30296SOL    HW192727  10.397   7.467   9.185
30296SOL    HW292728  10.500   7.408   9.280
30297SOL     OW92729   0.957  10.497   8.353
30297SOL    HW192730   0.922  10.437   8.419
30297SOL    HW292731   0.932  10.584   8.383
30298SOL     OW92732   0.104   3.311  13.622
30298SOL    HW192733   0.061   3.238  13.577
30298SOL    HW292734   0.126   3.276  13.708
30299SOL     OW92735   7.392  11.807  11.386
30299SOL    HW192736   7.344  11.728  11.362
30299SOL    HW292737   7.474  11.775  11.423
30300SOL     OW92738   1.523  11.620  14.403
30300SOL    HW192739   1.506  11.582  14.317
30300SOL    HW292740   1.444  11.670  14.423
30301SOL     OW92741  14.665  13.522  11.989
30301SOL    HW192742  14.641  13.558  12.074
30301SOL    HW292743  14.606  13.566  11.927
30302SOL     OW92744   2.349   1.629   3.861
30302SOL    HW192745   2.269   1.605   3.907
30302SOL    HW292746   2.372   1.715   3.896
30303SOL     OW92747   8.898   2.120   8.283
30303SOL    HW192748   8.981   2.079   8.259
30303SOL    HW292749   8.842   2.048   8.310
30304SOL     OW92750  14.316   4.440  13.628
30304SOL    HW192751  14.232   4.429  13.583
30304SOL    HW292752  14.340   4.532  13.612
30305SOL     OW92753   7.577   7.174  13.180
30305SOL    HW192754   7.512   7.104  13.185
30305SOL    HW292755   7.556   7.220  13.098
30306SOL     OW92756   3.657   3.104   7.447
30306SOL    HW192757   3.692   3.188   7.477
30306SOL    HW292758   3.641   3.054   7.527
30307SOL     OW92759   7.732  13.310   9.806
30307SOL    HW192760   7.663  13.341   9.865
30307SOL    HW292761   7.813  13.344   9.844
30308SOL     OW92762  13.517  12.731  12.275
30308SOL    HW192763  13.466  12.652  12.287
30308SOL    HW292764  13.453  12.802  12.272
30309SOL     OW92765   2.120  13.746   9.731
30309SOL    HW192766   2.177  13.674   9.703
30309SOL    HW292767   2.069  13.768   9.654
30310SOL     OW92768  13.561   0.096  14.813
30310SOL    HW192769  13.555   0.105   0.034
30310SOL    HW292770  13.530   0.180  14.778
30311SOL     OW92771   1.513   5.794  13.030
30311SOL    HW192772   1.586   5.813  12.972
30311SOL    HW292773   1.465   5.877  13.036
30312SOL     OW92774   1.141   2.699   5.191
30312SOL    HW192775   1.089   2.621   5.213
30312SOL    HW292776   1.141   2.751   5.271
30313SOL     OW92777   7.040   0.707   5.501
30313SOL    HW192778   6.957   0.664   5.522
30313SOL    HW292779   7.017   0.799   5.487
30314SOL     OW92780   5.631  12.909   3.196
30314SOL    HW192781   5.668  12.997   3.192
30314SOL    HW292782   5.602  12.891   3.107
30315SOL     OW92783   2.607  14.634   5.206
30315SOL    HW192784   2.593  14.715   5.254
30315SOL    HW292785   2.563  14.649   5.122
30316SOL     OW92786   9.509   1.490   6.473
30316SOL    HW192787   9.594   1.460   6.505
30316SOL    HW292788   9.529   1.566   6.419
30317SOL     OW92789   2.666   6.379   4.307
30317SOL    HW192790   2.596   6.442   4.324
30317SOL    HW292791   2.735   6.430   4.265
30318SOL     OW92792   8.469   4.046   9.290
30318SOL    HW192793   8.420   4.018   9.368
30318SOL    HW292794   8.469   3.969   9.233
30319SOL     OW92795  13.646   2.712  14.033
30319SOL    HW192796  13.728   2.712  13.983
30319SOL    HW292797  13.639   2.622  14.067
30320SOL     OW92798  14.105   3.093   5.757
30320SOL    HW192799  14.087   3.161   5.822
30320SOL    HW292800  14.197   3.106   5.733
30321SOL     OW92801  11.658   7.849  13.341
30321SOL    HW192802  11.724   7.824  13.406
30321SOL    HW292803  11.681   7.799  13.263
30322SOL     OW92804   5.680   3.907   0.030
30322SOL    HW192805   5.640   3.919  14.818
30322SOL    HW292806   5.698   3.996   0.060
30323SOL     OW92807   9.766  12.820  11.284
30323SOL    HW192808   9.849  12.782  11.311
30323SOL    HW292809   9.779  12.845  11.193
30324SOL     OW92810   9.497  10.433   8.054
30324SOL    HW192811   9.436  10.370   8.014
30324SOL    HW292812   9.584  10.399   8.032
30325SOL     OW92813   6.271   3.723  11.792
30325SOL    HW192814   6.326   3.649  11.817
30325SOL    HW292815   6.328   3.779  11.740
30326SOL     OW92816  14.562   8.514  10.061
30326SOL    HW192817  14.607   8.535  10.142
30326SOL    HW292818  14.482   8.470  10.089
30327SOL     OW92819  11.993   6.229   3.962
30327SOL    HW192820  12.062   6.200   3.902
30327SOL    HW292821  11.914   6.231   3.908
30328SOL     OW92822   2.111   9.436   9.493
30328SOL    HW192823   2.162   9.417   9.572
30328SOL    HW292824   2.032   9.381   9.502
30329SOL     OW92825   4.963   9.783  13.987
30329SOL    HW192826   4.997   9.810  13.902
30329SOL    HW292827   4.869   9.794  13.981
30330SOL     OW92828  11.629  10.535   2.762
30330SOL    HW192829  11.582  10.548   2.844
30330SOL    HW292830  11.620  10.619   2.716
30331SOL     OW92831   4.236  10.725   4.741
30331SOL    HW192832   4.153  10.751   4.701
30331SOL    HW292833   4.301  10.778   4.695
30332SOL     OW92834   6.787  14.523   5.719
30332SOL    HW192835   6.800  14.429   5.704
30332SOL    HW292836   6.841  14.542   5.796
30333SOL     OW92837  12.402  12.894   0.624
30333SOL    HW192838  12.419  12.813   0.672
30333SOL    HW292839  12.326  12.873   0.569
30334SOL     OW92840   6.957   8.484  13.860
30334SOL    HW192841   6.909   8.508  13.939
30334SOL    HW292842   7.035   8.539  13.862
30335SOL     OW92843   7.577  12.649   8.370
30335SOL    HW192844   7.613  12.722   8.420
30335SOL    HW292845   7.590  12.674   8.278
30336SOL     OW92846  14.189   2.439   4.317
30336SOL    HW192847  14.147   2.397   4.242
30336SOL    HW292848  14.119   2.445   4.383
30337SOL     OW92849   1.538   7.924  12.188
30337SOL    HW192850   1.491   7.970  12.119
30337SOL    HW292851   1.600   7.868  12.141
30338SOL     OW92852   8.618  12.432  11.439
30338SOL    HW192853   8.564  12.354  11.424
30338SOL    HW292854   8.617  12.444  11.534
30339SOL     OW92855   2.577   9.990   4.578
30339SOL    HW192856   2.622  10.065   4.616
30339SOL    HW292857   2.568  10.013   4.485
30340SOL     OW92858   5.161  13.207   3.497
30340SOL    HW192859   5.141  13.250   3.580
30340SOL    HW292860   5.199  13.276   3.443
30341SOL     OW92861  14.796   6.700   7.733
30341SOL    HW192862   0.001   6.749   7.707
30341SOL    HW292863  14.822   6.653   7.812
30342SOL     OW92864  10.874   8.970   3.296
30342SOL    HW192865  10.882   8.881   3.330
30342SOL    HW292866  10.843   9.022   3.370
30343SOL     OW92867  10.660   1.984  14.679
30343SOL    HW192868  10.716   2.042  14.627
30343SOL    HW292869  10.645   2.032  14.761
30344SOL     OW92870   3.462  11.983   1.777
30344SOL    HW192871   3.517  12.054   1.809
30344SOL    HW292872   3.375  12.022   1.770
30345SOL     OW92873   1.963   7.659  10.194
30345SOL    HW192874   2.027   7.686  10.260
30345SOL    HW292875   1.982   7.713  10.118
30346SOL     OW92876   0.474  10.178   8.210
30346SOL    HW192877   0.481  10.186   8.115
30346SOL    HW292878   0.556  10.216   8.243
30347SOL     OW92879  13.400   6.049   9.729
30347SOL    HW192880  13.474   6.102   9.699
30347SOL    HW292881  13.437   5.962   9.742
30348SOL     OW92882  12.705   1.412   6.493
30348SOL    HW192883  12.783   1.424   6.440
30348SOL    HW292884  12.672   1.501   6.508
30349SOL     OW92885   9.915  14.745   4.550
30349SOL    HW192886  10.001  14.704   4.538
30349SOL    HW292887   9.899  14.740   4.644
30350SOL     OW92888  10.424   0.188   5.789
30350SOL    HW192889  10.334   0.207   5.813
30350SOL    HW292890  10.475   0.219   5.864
30351SOL     OW92891   1.564   2.638   6.024
30351SOL    HW192892   1.572   2.692   6.102
30351SOL    HW292893   1.490   2.676   5.976
30352SOL     OW92894   7.823   3.329   7.665
30352SOL    HW192895   7.870   3.411   7.653
30352SOL    HW292896   7.859   3.270   7.598
30353SOL     OW92897   5.050   3.510   9.465
30353SOL    HW192898   5.004   3.585   9.502
30353SOL    HW292899   5.129   3.502   9.518
30354SOL     OW92900   4.624   7.651   3.760
30354SOL    HW192901   4.654   7.598   3.835
30354SOL    HW292902   4.591   7.731   3.800
30355SOL     OW92903  12.807  11.617   8.302
30355SOL    HW192904  12.767  11.642   8.218
30355SOL    HW292905  12.901  11.626   8.287
30356SOL     OW92906   0.326  13.636  14.236
30356SOL    HW192907   0.292  13.589  14.160
30356SOL    HW292908   0.412  13.667  14.209
30357SOL     OW92909   7.547   0.326   3.808
30357SOL    HW192910   7.587   0.412   3.821
30357SOL    HW292911   7.464   0.331   3.855
30358SOL     OW92912   5.075   6.374   1.388
30358SOL    HW192913   5.066   6.407   1.477
30358SOL    HW292914   4.997   6.321   1.374
30359SOL     OW92915   8.517   0.653   0.849
30359SOL    HW192916   8.546   0.597   0.777
30359SOL    HW292917   8.504   0.739   0.809
30360SOL     OW92918   0.025   9.936  11.290
30360SOL    HW192919   0.121   9.944  11.286
30360SOL    HW292920   0.008   9.900  11.377
30361SOL     OW92921   8.241   1.725   7.126
30361SOL    HW192922   8.257   1.644   7.174
30361SOL    HW292923   8.198   1.782   7.189
30362SOL     OW92924  10.657  13.933  13.767
30362SOL    HW192925  10.687  13.912  13.679
30362SOL    HW292926  10.568  13.898  13.771
30363SOL     OW92927  10.349   1.043  13.587
30363SOL    HW192928  10.374   1.036  13.680
30363SOL    HW292929  10.432   1.036  13.540
30364SOL     OW92930   6.335   8.558   2.568
30364SOL    HW192931   6.291   8.516   2.493
30364SOL    HW292932   6.376   8.485   2.615
30365SOL     OW92933  10.128   9.804   5.419
30365SOL    HW192934  10.049   9.857   5.422
30365SOL    HW292935  10.166   9.812   5.506
30366SOL     OW92936   6.232   4.855   0.689
30366SOL    HW192937   6.232   4.782   0.752
30366SOL    HW292938   6.324   4.873   0.673
30367SOL     OW92939  13.498   7.720   6.413
30367SOL    HW192940  13.403   7.712   6.414
30367SOL    HW292941  13.517   7.793   6.473
30368SOL     OW92942   5.513  10.522   0.022
30368SOL    HW192943   5.505  10.577   0.100
30368SOL    HW292944   5.424  10.492   0.005
30369SOL     OW92945   5.242  14.459   2.354
30369SOL    HW192946   5.267  14.466   2.446
30369SOL    HW292947   5.301  14.393   2.318
30370SOL     OW92948   1.160   6.481   8.745
30370SOL    HW192949   1.073   6.521   8.745
30370SOL    HW292950   1.143   6.387   8.750
30371SOL     OW92951   6.260  11.362  10.038
30371SOL    HW192952   6.182  11.389  10.087
30371SOL    HW292953   6.292  11.285  10.085
30372SOL     OW92954  14.761  12.932   7.726
30372SOL    HW192955  14.791  12.977   7.647
30372SOL    HW292956  14.837  12.880   7.754
30373SOL     OW92957   2.806   2.352  13.853
30373SOL    HW192958   2.720   2.383  13.824
30373SOL    HW292959   2.853   2.333  13.771
30374SOL     OW92960  11.276   9.185   9.793
30374SOL    HW192961  11.231   9.268   9.776
30374SOL    HW292962  11.231   9.122   9.737
30375SOL     OW92963   3.021  11.973  11.944
30375SOL    HW192964   2.934  11.972  11.905
30375SOL    HW292965   3.045  12.065  11.948
30376SOL     OW92966  11.330   9.912   6.471
30376SOL    HW192967  11.417   9.948   6.456
30376SOL    HW292968  11.316   9.922   6.565
30377SOL     OW92969   0.473   8.651   4.338
30377SOL    HW192970   0.419   8.674   4.263
30377SOL    HW292971   0.521   8.572   4.312
30378SOL     OW92972   1.657  10.435   2.701
30378SOL    HW192973   1.699  10.458   2.618
30378SOL    HW292974   1.699  10.353   2.727
30379SOL     OW92975  12.798   5.712   6.147
30379SOL    HW192976  12.706   5.691   6.132
30379SOL    HW292977  12.796   5.798   6.189
30380SOL     OW92978  10.222   8.842   1.577
30380SOL    HW192979  10.245   8.892   1.499
30380SOL    HW292980  10.305   8.833   1.624
30381SOL     OW92981   0.039  14.870   1.100
30381SOL    HW192982  14.839  14.810   1.096
30381SOL    HW292983   0.090  14.851   1.022
30382SOL     OW92984  11.344   8.256   4.931
30382SOL    HW192985  11.341   8.191   5.002
30382SOL    HW292986  11.358   8.339   4.975
30383SOL     OW92987  13.223   5.521  11.407
30383SOL    HW192988  13.272   5.555  11.331
30383SOL    HW292989  13.284   5.460  11.449
30384SOL     OW92990   3.059  14.848   2.741
30384SOL    HW192991   2.978   0.002   2.700
30384SOL    HW292992   3.123   0.041   2.716
30385SOL     OW92993   7.031  13.963   2.559
30385SOL    HW192994   6.957  13.988   2.614
30385SOL    HW292995   7.091  13.918   2.619
30386SOL     OW92996  12.693  10.888  10.112
30386SOL    HW192997  12.663  10.928  10.030
30386SOL    HW292998  12.644  10.805  10.116
30387SOL     OW92999  14.154   4.011   4.714
30387SOL    HW193000  14.158   4.097   4.672
30387SOL    HW293001  14.074   3.971   4.681
30388SOL     OW93002   7.744  12.748  11.363
30388SOL    HW193003   7.650  12.751  11.382
30388SOL    HW293004   7.786  12.752  11.449
30389SOL     OW93005   5.340   5.706  14.126
30389SOL    HW193006   5.258   5.745  14.096
30389SOL    HW293007   5.401   5.779  14.133
30390SOL     OW93008   6.522   0.201  10.049
30390SOL    HW193009   6.555   0.137   9.986
30390SOL    HW293010   6.593   0.264  10.059
30391SOL     OW93011   2.865   1.904   4.065
30391SOL    HW193012   2.896   1.895   3.975
30391SOL    HW293013   2.795   1.840   4.073
30392SOL     OW93014  14.184   2.856   5.353
30392SOL    HW193015  14.214   2.919   5.287
30392SOL    HW293016  14.119   2.905   5.404
30393SOL     OW93017  10.634  10.161   1.033
30393SOL    HW193018  10.657  10.251   1.009
30393SOL    HW293019  10.564  10.137   0.972
30394SOL     OW93020   4.546   5.338   8.304
30394SOL    HW193021   4.630   5.293   8.313
30394SOL    HW293022   4.483   5.268   8.290
30395SOL     OW93023   4.901   8.564   9.134
30395SOL    HW193024   4.966   8.516   9.083
30395SOL    HW293025   4.952   8.603   9.205
30396SOL     OW93026   0.820   7.300  13.359
30396SOL    HW193027   0.753   7.291  13.427
30396SOL    HW293028   0.777   7.351  13.290
30397SOL     OW93029  10.122  13.601   1.675
30397SOL    HW193030  10.108  13.635   1.587
30397SOL    HW293031  10.201  13.548   1.669
30398SOL     OW93032   4.446   2.977   6.973
30398SOL    HW193033   4.495   2.999   7.052
30398SOL    HW293034   4.400   3.058   6.951
30399SOL     OW93035   6.101  11.483   5.213
30399SOL    HW193036   6.108  11.539   5.291
30399SOL    HW293037   6.175  11.508   5.158
30400SOL     OW93038  12.884   1.659   6.707
30400SOL    HW193039  12.952   1.609   6.661
30400SOL    HW293040  12.870   1.736   6.652
30401SOL     OW93041   9.436   5.993   9.320
30401SOL    HW193042   9.364   5.996   9.258
30401SOL    HW293043   9.412   6.056   9.388
30402SOL     OW93044   4.622   5.113   9.332
30402SOL    HW193045   4.630   5.055   9.256
30402SOL    HW293046   4.530   5.140   9.332
30403SOL     OW93047   7.272  13.122   2.958
30403SOL    HW193048   7.214  13.154   3.027
30403SOL    HW293049   7.240  13.163   2.878
30404SOL     OW93050   4.612  10.617   4.428
30404SOL    HW193051   4.643  10.527   4.439
30404SOL    HW293052   4.621  10.634   4.334
30405SOL     OW93053   4.127   2.315  14.310
30405SOL    HW193054   4.108   2.399  14.352
30405SOL    HW293055   4.048   2.263  14.325
30406SOL     OW93056   9.316  12.672  14.389
30406SOL    HW193057   9.410  12.686  14.373
30406SOL    HW293058   9.293  12.598  14.332
30407SOL     OW93059   6.460   4.774   9.115
30407SOL    HW193060   6.490   4.754   9.204
30407SOL    HW293061   6.467   4.691   9.068
30408SOL     OW93062   3.303  11.762   5.266
30408SOL    HW193063   3.268  11.691   5.212
30408SOL    HW293064   3.354  11.718   5.334
30409SOL     OW93065   2.428  13.180  11.885
30409SOL    HW193066   2.501  13.145  11.833
30409SOL    HW293067   2.360  13.200  11.820
30410SOL     OW93068   3.695   9.736   4.918
30410SOL    HW193069   3.767   9.795   4.893
30410SOL    HW293070   3.737   9.651   4.933
30411SOL     OW93071   1.071   8.750  11.953
30411SOL    HW193072   1.057   8.702  11.872
30411SOL    HW293073   1.166   8.746  11.967
30412SOL     OW93074  11.628  14.432  11.077
30412SOL    HW193075  11.701  14.458  11.022
30412SOL    HW293076  11.637  14.337  11.086
30413SOL     OW93077   4.724   3.608   5.820
30413SOL    HW193078   4.640   3.619   5.775
30413SOL    HW293079   4.767   3.693   5.811
30414SOL     OW93080  14.403  13.934   5.900
30414SOL    HW193081  14.401  13.950   5.806
30414SOL    HW293082  14.323  13.886   5.918
30415SOL     OW93083   7.999   4.490  10.673
30415SOL    HW193084   8.014   4.422  10.739
30415SOL    HW293085   7.935   4.549  10.714
30416SOL     OW93086  14.118   4.477   5.412
30416SOL    HW193087  14.102   4.496   5.505
30416SOL    HW293088  14.212   4.489   5.401
30417SOL     OW93089   6.808  10.275   3.238
30417SOL    HW193090   6.794  10.188   3.201
30417SOL    HW293091   6.893  10.268   3.283
30418SOL     OW93092  11.217  10.238   7.282
30418SOL    HW193093  11.250  10.181   7.351
30418SOL    HW293094  11.293  10.258   7.228
30419SOL     OW93095   7.858   8.403  10.272
30419SOL    HW193096   7.919   8.436  10.338
30419SOL    HW293097   7.904   8.412  10.189
30420SOL     OW93098   1.964   5.642   5.966
30420SOL    HW193099   1.892   5.629   5.905
30420SOL    HW293100   2.042   5.613   5.917
30421SOL     OW93101   8.234  13.354   1.016
30421SOL    HW193102   8.168  13.374   0.948
30421SOL    HW293103   8.236  13.258   1.018
30422SOL     OW93104   9.505   4.997  13.257
30422SOL    HW193105   9.501   4.932  13.186
30422SOL    HW293106   9.422   4.988  13.303
30423SOL     OW93107   8.733   7.136  14.123
30423SOL    HW193108   8.770   7.145  14.211
30423SOL    HW293109   8.646   7.177  14.129
30424SOL     OW93110   7.922   6.615   1.340
30424SOL    HW193111   7.956   6.704   1.341
30424SOL    HW293112   7.951   6.579   1.256
30425SOL     OW93113   3.256  12.770   5.123
30425SOL    HW193114   3.295  12.812   5.046
30425SOL    HW293115   3.195  12.706   5.086
30426SOL     OW93116  12.178   8.300   2.263
30426SOL    HW193117  12.141   8.274   2.178
30426SOL    HW293118  12.116   8.266   2.327
30427SOL     OW93119   6.194   0.700   2.361
30427SOL    HW193120   6.151   0.677   2.444
30427SOL    HW293121   6.168   0.791   2.345
30428SOL     OW93122   8.785   9.248  14.642
30428SOL    HW193123   8.709   9.236  14.584
30428SOL    HW293124   8.760   9.320  14.700
30429SOL     OW93125  10.468   1.145  10.306
30429SOL    HW193126  10.556   1.165  10.339
30429SOL    HW293127  10.458   1.201  10.229
30430SOL     OW93128   3.167   3.854   7.381
30430SOL    HW193129   3.243   3.878   7.327
30430SOL    HW293130   3.176   3.906   7.460
30431SOL     OW93131  13.718   8.076   9.220
30431SOL    HW193132  13.762   7.991   9.210
30431SOL    HW293133  13.738   8.123   9.139
30432SOL     OW93134   2.588  10.015   8.351
30432SOL    HW193135   2.608  10.045   8.440
30432SOL    HW293136   2.511  10.065   8.326
30433SOL     OW93137  12.485   9.032   2.256
30433SOL    HW193138  12.509   9.013   2.166
30433SOL    HW293139  12.482   8.947   2.299
30434SOL     OW93140  14.601   1.866  10.878
30434SOL    HW193141  14.693   1.880  10.856
30434SOL    HW293142  14.600   1.859  10.974
30435SOL     OW93143  11.465   8.151  14.566
30435SOL    HW193144  11.527   8.139  14.494
30435SOL    HW293145  11.388   8.190  14.524
30436SOL     OW93146   2.745   2.165   2.982
30436SOL    HW193147   2.659   2.124   2.987
30436SOL    HW293148   2.783   2.132   2.901
30437SOL     OW93149   8.597   3.797   0.775
30437SOL    HW193150   8.532   3.841   0.720
30437SOL    HW293151   8.552   3.719   0.809
30438SOL     OW93152  10.031   7.916  14.407
30438SOL    HW193153   9.960   7.907  14.343
30438SOL    HW293154  10.037   8.011  14.423
30439SOL     OW93155   3.591   1.556   8.961
30439SOL    HW193156   3.603   1.634   9.015
30439SOL    HW293157   3.571   1.486   9.023
30440SOL     OW93158  14.664   3.877  14.862
30440SOL    HW193159  14.665   3.904   0.080
30440SOL    HW293160  14.731   3.930  14.820
30441SOL     OW93161   9.627  11.282   6.212
30441SOL    HW193162   9.692  11.349   6.232
30441SOL    HW293163   9.677  11.201   6.208
30442SOL     OW93164   9.546   1.922   8.429
30442SOL    HW193165   9.564   1.933   8.335
30442SOL    HW293166   9.563   1.829   8.445
30443SOL     OW93167   4.031   4.128   1.921
30443SOL    HW193168   3.954   4.115   1.976
30443SOL    HW293169   3.997   4.131   1.831
30444SOL     OW93170  11.990   7.093   0.924
30444SOL    HW193171  12.059   7.070   0.861
30444SOL    HW293172  11.909   7.090   0.874
30445SOL     OW93173  10.352   0.908   6.221
30445SOL    HW193174  10.431   0.930   6.271
30445SOL    HW293175  10.333   0.987   6.170
30446SOL     OW93176   5.137   0.162  11.004
30446SOL    HW193177   5.227   0.140  10.979
30446SOL    HW293178   5.134   0.147  11.099
30447SOL     OW93179   2.967   5.174   2.520
30447SOL    HW193180   2.953   5.269   2.517
30447SOL    HW293181   3.058   5.162   2.493
30448SOL     OW93182  14.346  11.178   3.180
30448SOL    HW193183  14.310  11.255   3.137
30448SOL    HW293184  14.439  11.199   3.191
30449SOL     OW93185   9.427   9.080   1.168
30449SOL    HW193186   9.456   9.032   1.090
30449SOL    HW293187   9.503   9.077   1.227
30450SOL     OW93188   0.703   7.613  12.331
30450SOL    HW193189   0.735   7.612  12.241
30450SOL    HW293190   0.608   7.616  12.322
30451SOL     OW93191  12.199  10.912   1.977
30451SOL    HW193192  12.202  10.882   1.886
30451SOL    HW293193  12.122  10.969   1.981
30452SOL     OW93194  12.255   9.291   8.854
30452SOL    HW193195  12.338   9.267   8.895
30452SOL    HW293196  12.225   9.367   8.903
30453SOL     OW93197  11.118  12.684   6.546
30453SOL    HW193198  11.044  12.653   6.598
30453SOL    HW293199  11.090  12.673   6.455
30454SOL     OW93200   8.961   1.636   0.365
30454SOL    HW193201   9.027   1.693   0.325
30454SOL    HW293202   8.930   1.685   0.442
30455SOL     OW93203  14.299   9.886   2.365
30455SOL    HW193204  14.378   9.890   2.420
30455SOL    HW293205  14.275   9.977   2.351
30456SOL     OW93206   2.177   1.578   7.166
30456SOL    HW193207   2.183   1.513   7.236
30456SOL    HW293208   2.264   1.619   7.165
30457SOL     OW93209   9.421  13.963  10.160
30457SOL    HW193210   9.488  13.971  10.091
30457SOL    HW293211   9.376  14.048  10.159
30458SOL     OW93212   0.660  14.587  14.504
30458SOL    HW193213   0.596  14.516  14.495
30458SOL    HW293214   0.664  14.605  14.598
30459SOL     OW93215   0.726   8.790   0.253
30459SOL    HW193216   0.715   8.753   0.341
30459SOL    HW293217   0.758   8.717   0.200
30460SOL     OW93218   6.466   0.313   2.334
30460SOL    HW193219   6.551   0.278   2.307
30460SOL    HW293220   6.488   0.383   2.396
30461SOL     OW93221  13.996  10.870  13.620
30461SOL    HW193222  14.074  10.831  13.578
30461SOL    HW293223  14.020  10.879  13.712
30462SOL     OW93224   5.261   7.524   3.335
30462SOL    HW193225   5.234   7.520   3.243
30462SOL    HW293226   5.179   7.517   3.384
30463SOL     OW93227   1.510   6.546  10.219
30463SOL    HW193228   1.594   6.546  10.174
30463SOL    HW293229   1.446   6.522  10.152
30464SOL     OW93230   9.729   6.554  11.803
30464SOL    HW193231   9.761   6.634  11.844
30464SOL    HW293232   9.644   6.579  11.765
30465SOL     OW93233   7.895   3.176   4.090
30465SOL    HW193234   7.846   3.147   4.013
30465SOL    HW293235   7.976   3.124   4.088
30466SOL     OW93236   6.500  10.688   0.739
30466SOL    HW193237   6.565  10.744   0.780
30466SOL    HW293238   6.419  10.707   0.787
30467SOL     OW93239  12.157   2.555  14.777
30467SOL    HW193240  12.118   2.550  14.690
30467SOL    HW293241  12.121   2.635  14.816
30468SOL     OW93242  12.066   9.566   6.348
30468SOL    HW193243  12.072   9.650   6.301
30468SOL    HW293244  11.993   9.577   6.408
30469SOL     OW93245  14.812  14.720   5.596
30469SOL    HW193246  14.795  14.815   5.600
30469SOL    HW293247  14.754  14.683   5.663
30470SOL     OW93248   5.384   4.378   0.722
30470SOL    HW193249   5.293   4.381   0.751
30470SOL    HW293250   5.383   4.319   0.647
30471SOL     OW93251   7.686   3.015  12.758
30471SOL    HW193252   7.714   3.054  12.840
30471SOL    HW293253   7.763   3.020  12.701
30472SOL     OW93254   6.165   1.537   6.898
30472SOL    HW193255   6.207   1.458   6.863
30472SOL    HW293256   6.123   1.509   6.979
30473SOL     OW93257   8.769   6.692   4.240
30473SOL    HW193258   8.736   6.764   4.186
30473SOL    HW293259   8.773   6.729   4.329
30474SOL     OW93260  14.804   9.976   6.895
30474SOL    HW193261  14.742  10.016   6.957
30474SOL    HW293262  14.839  10.050   6.845
30475SOL     OW93263   6.413   5.881  13.024
30475SOL    HW193264   6.486   5.942  13.013
30475SOL    HW293265   6.442   5.800  12.984
30476SOL     OW93266  13.822  13.502   6.656
30476SOL    HW193267  13.867  13.461   6.730
30476SOL    HW293268  13.890  13.514   6.590
30477SOL     OW93269   1.462   3.686   0.523
30477SOL    HW193270   1.516   3.697   0.445
30477SOL    HW293271   1.399   3.617   0.499
30478SOL     OW93272   9.887   2.693   8.294
30478SOL    HW193273   9.851   2.658   8.376
30478SOL    HW293274   9.812   2.736   8.252
30479SOL     OW93275   2.483   3.654  12.635
30479SOL    HW193276   2.428   3.683  12.562
30479SOL    HW293277   2.422   3.613  12.697
30480SOL     OW93278  12.677   9.080  14.255
30480SOL    HW193279  12.610   9.110  14.193
30480SOL    HW293280  12.756   9.130  14.231
30481SOL     OW93281   0.556  13.686   3.496
30481SOL    HW193282   0.578  13.750   3.428
30481SOL    HW293283   0.473  13.717   3.531
30482SOL     OW93284   6.405   0.756   4.251
30482SOL    HW193285   6.380   0.718   4.335
30482SOL    HW293286   6.501   0.761   4.255
30483SOL     OW93287  13.279  10.394  10.910
30483SOL    HW193288  13.345  10.450  10.869
30483SOL    HW293289  13.329  10.337  10.968
30484SOL     OW93290   5.863  14.037  11.056
30484SOL    HW193291   5.934  13.991  11.012
30484SOL    HW293292   5.868  14.127  11.024
30485SOL     OW93293   5.545   9.394   0.606
30485SOL    HW193294   5.511   9.475   0.644
30485SOL    HW293295   5.559   9.336   0.681
30486SOL     OW93296  12.949  11.298   1.527
30486SOL    HW193297  12.882  11.364   1.547
30486SOL    HW293298  12.907  11.239   1.464
30487SOL     OW93299   7.151   8.382   1.484
30487SOL    HW193300   7.158   8.344   1.396
30487SOL    HW293301   7.069   8.348   1.518
30488SOL     OW93302   3.130   4.656   0.972
30488SOL    HW193303   3.090   4.652   0.885
30488SOL    HW293304   3.094   4.736   1.011
30489SOL     OW93305  14.804   7.724   6.360
30489SOL    HW193306  14.746   7.653   6.333
30489SOL    HW293307  14.755   7.804   6.341
30490SOL     OW93308  14.348   1.476   8.194
30490SOL    HW193309  14.253   1.464   8.205
30490SOL    HW293310  14.362   1.569   8.206
30491SOL     OW93311   5.109  12.538  11.200
30491SOL    HW193312   5.023  12.576  11.217
30491SOL    HW293313   5.171  12.600  11.240
30492SOL     OW93314   1.935   8.297   7.846
30492SOL    HW193315   1.865   8.323   7.907
30492SOL    HW293316   2.015   8.306   7.897
30493SOL     OW93317  12.746   1.373   1.021
30493SOL    HW193318  12.777   1.288   1.053
30493SOL    HW293319  12.812   1.435   1.051
30494SOL     OW93320  11.057  14.587  12.746
30494SOL    HW193321  11.148  14.598  12.720
30494SOL    HW293322  11.041  14.659  12.808
30495SOL     OW93323  12.260   4.849  13.298
30495SOL    HW193324  12.321   4.902  13.348
30495SOL    HW293325  12.307   4.827  13.217
30496SOL     OW93326   9.712   9.725   9.091
30496SOL    HW193327   9.630   9.723   9.041
30496SOL    HW293328   9.741   9.634   9.092
30497SOL     OW93329  13.075   2.762   8.210
30497SOL    HW193330  12.989   2.721   8.214
30497SOL    HW293331  13.105   2.746   8.120
30498SOL     OW93332   4.604   2.993   4.825
30498SOL    HW193333   4.696   3.017   4.818
30498SOL    HW293334   4.602   2.922   4.889
30499SOL     OW93335   5.077   2.248  14.390
30499SOL    HW193336   5.144   2.313  14.370
30499SOL    HW293337   5.085   2.234  14.484
30500SOL     OW93338   5.217   5.609   2.175
30500SOL    HW193339   5.220   5.585   2.082
30500SOL    HW293340   5.307   5.633   2.196
30501SOL     OW93341   8.940  14.706   1.153
30501SOL    HW193342   8.965  14.628   1.104
30501SOL    HW293343   8.987  14.777   1.109
30502SOL     OW93344   1.747  12.597  13.800
30502SOL    HW193345   1.664  12.639  13.822
30502SOL    HW293346   1.813  12.647  13.847
30503SOL     OW93347   6.288  13.788   7.438
30503SOL    HW193348   6.296  13.873   7.481
30503SOL    HW293349   6.366  13.740   7.466
30504SOL     OW93350   6.249  13.488   4.775
30504SOL    HW193351   6.273  13.520   4.862
30504SOL    HW293352   6.204  13.561   4.733
30505SOL     OW93353  13.449  13.759   8.404
30505SOL    HW193354  13.499  13.840   8.398
30505SOL    HW293355  13.493  13.709   8.473
30506SOL     OW93356   7.197  12.769   3.238
30506SOL    HW193357   7.185  12.693   3.296
30506SOL    HW293358   7.279  12.751   3.192
30507SOL     OW93359   0.880  10.519   9.342
30507SOL    HW193360   0.810  10.455   9.357
30507SOL    HW293361   0.840  10.603   9.364
30508SOL     OW93362  12.028  11.174   8.930
30508SOL    HW193363  12.111  11.133   8.904
30508SOL    HW293364  12.039  11.193   9.023
30509SOL     OW93365   5.829  13.092   9.181
30509SOL    HW193366   5.758  13.154   9.164
30509SOL    HW293367   5.827  13.033   9.106
30510SOL     OW93368   0.351   4.962   2.017
30510SOL    HW193369   0.321   5.039   2.066
30510SOL    HW293370   0.445   4.975   2.007
30511SOL     OW93371   6.654   1.631   4.224
30511SOL    HW193372   6.696   1.695   4.167
30511SOL    HW293373   6.593   1.584   4.167
30512SOL     OW93374   3.096  10.872   7.195
30512SOL    HW193375   3.084  10.778   7.214
30512SOL    HW293376   3.161  10.874   7.125
30513SOL     OW93377   2.762   0.353   7.092
30513SOL    HW193378   2.708   0.409   7.147
30513SOL    HW293379   2.831   0.410   7.060
30514SOL     OW93380  14.066   4.738   4.069
30514SOL    HW193381  14.078   4.769   4.159
30514SOL    HW293382  14.031   4.650   4.078
30515SOL     OW93383  10.444   2.015   3.360
30515SOL    HW193384  10.482   1.928   3.369
30515SOL    HW293385  10.519   2.074   3.363
30516SOL     OW93386   4.707  10.299   5.872
30516SOL    HW193387   4.663  10.272   5.952
30516SOL    HW293388   4.775  10.360   5.901
30517SOL     OW93389   7.775  10.547   9.056
30517SOL    HW193390   7.709  10.609   9.025
30517SOL    HW293391   7.792  10.491   8.980
30518SOL     OW93392   9.984  10.524   8.943
30518SOL    HW193393   9.973  10.476   9.024
30518SOL    HW293394   9.962  10.615   8.965
30519SOL     OW93395   9.316   0.941   3.771
30519SOL    HW193396   9.267   1.006   3.821
30519SOL    HW293397   9.317   0.975   3.682
30520SOL     OW93398  14.364   2.824   6.221
30520SOL    HW193399  14.305   2.753   6.246
30520SOL    HW293400  14.339   2.845   6.131
30521SOL     OW93401  10.344   4.281   5.027
30521SOL    HW193402  10.359   4.204   4.973
30521SOL    HW293403  10.417   4.282   5.089
30522SOL     OW93404  10.406   8.677   2.221
30522SOL    HW193405  10.323   8.714   2.251
30522SOL    HW293406  10.472   8.742   2.244
30523SOL     OW93407  13.914   6.887   4.615
30523SOL    HW193408  13.850   6.886   4.543
30523SOL    HW293409  13.939   6.979   4.623
30524SOL     OW93410   0.067   6.839   2.110
30524SOL    HW193411   0.050   6.904   2.042
30524SOL    HW293412  14.859   6.790   2.116
30525SOL     OW93413   3.581  12.134  13.526
30525SOL    HW193414   3.620  12.139  13.613
30525SOL    HW293415   3.617  12.053  13.488
30526SOL     OW93416   4.858   6.224   5.538
30526SOL    HW193417   4.909   6.185   5.467
30526SOL    HW293418   4.773   6.244   5.498
30527SOL     OW93419   5.779   4.529   0.103
30527SOL    HW193420   5.777   4.583   0.182
30527SOL    HW293421   5.734   4.448   0.128
30528SOL     OW93422   7.697  10.697   9.810
30528SOL    HW193423   7.621  10.644   9.836
30528SOL    HW293424   7.736  10.648   9.738
30529SOL     OW93425  11.952   5.320   8.875
30529SOL    HW193426  11.862   5.317   8.844
30529SOL    HW293427  11.971   5.414   8.884
30530SOL     OW93428  10.854  11.611   5.678
30530SOL    HW193429  10.911  11.653   5.743
30530SOL    HW293430  10.857  11.669   5.602
30531SOL     OW93431  13.928   1.802   1.941
30531SOL    HW193432  13.931   1.707   1.943
30531SOL    HW293433  13.875   1.827   2.017
30532SOL     OW93434  10.832   8.144   1.354
30532SOL    HW193435  10.864   8.231   1.380
30532SOL    HW293436  10.754   8.130   1.408
30533SOL     OW93437   6.512   7.484   1.015
30533SOL    HW193438   6.453   7.426   1.064
30533SOL    HW293439   6.577   7.424   0.977
30534SOL     OW93440   8.632   5.360  12.809
30534SOL    HW193441   8.655   5.350  12.716
30534SOL    HW293442   8.541   5.388  12.809
30535SOL     OW93443  11.333  13.739  14.302
30535SOL    HW193444  11.244  13.716  14.330
30535SOL    HW293445  11.370  13.783  14.379
30536SOL     OW93446   3.830   7.834   0.327
30536SOL    HW193447   3.899   7.777   0.361
30536SOL    HW293448   3.797   7.787   0.250
30537SOL     OW93449   6.382  10.246   5.038
30537SOL    HW193450   6.453  10.262   4.975
30537SOL    HW293451   6.341  10.165   5.008
30538SOL     OW93452   8.642   2.389   1.680
30538SOL    HW193453   8.726   2.433   1.692
30538SOL    HW293454   8.656   2.332   1.605
30539SOL     OW93455   6.704   6.572   5.115
30539SOL    HW193456   6.643   6.613   5.053
30539SOL    HW293457   6.785   6.621   5.105
30540SOL     OW93458  12.947   0.278   5.727
30540SOL    HW193459  12.979   0.198   5.769
30540SOL    HW293460  13.001   0.348   5.764
30541SOL     OW93461   3.690  11.356  11.360
30541SOL    HW193462   3.745  11.278  11.357
30541SOL    HW293463   3.635  11.344  11.437
30542SOL     OW93464  14.428  11.988   3.577
30542SOL    HW193465  14.469  11.966   3.494
30542SOL    HW293466  14.489  11.957   3.643
30543SOL     OW93467  10.218   5.556  14.273
30543SOL    HW193468  10.157   5.485  14.256
30543SOL    HW293469  10.264   5.530  14.353
30544SOL     OW93470   2.608  14.374  11.879
30544SOL    HW193471   2.614  14.299  11.820
30544SOL    HW293472   2.611  14.450  11.820
30545SOL     OW93473   6.187   0.634   9.648
30545SOL    HW193474   6.147   0.679   9.573
30545SOL    HW293475   6.194   0.543   9.620
30546SOL     OW93476  14.773  12.836   6.511
30546SOL    HW193477  14.772  12.821   6.606
30546SOL    HW293478  14.789  12.930   6.502
30547SOL     OW93479  14.737   6.971   4.870
30547SOL    HW193480  14.711   6.888   4.910
30547SOL    HW293481  14.671   7.034   4.900
30548SOL     OW93482  10.309   3.531   0.097
30548SOL    HW193483  10.255   3.584   0.156
30548SOL    HW293484  10.247   3.497   0.032
30549SOL     OW93485   6.588   6.496   7.747
30549SOL    HW193486   6.493   6.502   7.736
30549SOL    HW293487   6.600   6.465   7.836
30550SOL     OW93488   0.449   3.483   5.900
30550SOL    HW193489   0.417   3.430   5.827
30550SOL    HW293490   0.418   3.572   5.882
30551SOL     OW93491   8.945  13.500  12.369
30551SOL    HW193492   8.866  13.554  12.377
30551SOL    HW293493   9.009  13.544  12.425
30552SOL     OW93494   8.916   2.767   1.511
30552SOL    HW193495   8.939   2.829   1.580
30552SOL    HW293496   8.868   2.819   1.447
30553SOL     OW93497   9.121  12.956   3.076
30553SOL    HW193498   9.130  12.957   3.171
30553SOL    HW293499   9.210  12.942   3.044
30554SOL     OW93500   3.416   1.141   1.834
30554SOL    HW193501   3.359   1.066   1.847
30554SOL    HW293502   3.478   1.113   1.766
30555SOL     OW93503   0.231  10.621   9.993
30555SOL    HW193504   0.149  10.665   9.969
30555SOL    HW293505   0.210  10.527   9.985
30556SOL     OW93506   8.742   5.624   0.419
30556SOL    HW193507   8.751   5.703   0.365
30556SOL    HW293508   8.651   5.625   0.448
30557SOL     OW93509  13.976   5.907   4.100
30557SOL    HW193510  13.940   5.943   4.181
30557SOL    HW293511  14.071   5.920   4.109
30558SOL     OW93512  13.081   9.055  12.550
30558SOL    HW193513  13.167   9.022  12.574
30558SOL    HW293514  13.042   8.984  12.498
30559SOL     OW93515  11.208   0.833  11.064
30559SOL    HW193516  11.170   0.826  10.976
30559SOL    HW293517  11.286   0.777  11.061
30560SOL     OW93518  10.843   7.714   5.871
30560SOL    HW193519  10.887   7.672   5.797
30560SOL    HW293520  10.750   7.702   5.852
30561SOL     OW93521   5.607   2.261   2.186
30561SOL    HW193522   5.652   2.257   2.102
30561SOL    HW293523   5.522   2.220   2.170
30562SOL     OW93524  10.680   0.125   1.097
30562SOL    HW193525  10.694   0.134   1.003
30562SOL    HW293526  10.759   0.159   1.138
30563SOL     OW93527   8.636   2.323  13.517
30563SOL    HW193528   8.686   2.341  13.437
30563SOL    HW293529   8.547   2.350  13.496
30564SOL     OW93530   0.507  11.383  12.889
30564SOL    HW193531   0.569  11.353  12.823
30564SOL    HW293532   0.536  11.471  12.912
30565SOL     OW93533   0.803   2.277   3.955
30565SOL    HW193534   0.824   2.251   3.865
30565SOL    HW293535   0.859   2.222   4.010
30566SOL     OW93536   8.623  14.610  11.448
30566SOL    HW193537   8.572  14.674  11.399
30566SOL    HW293538   8.698  14.590  11.392
30567SOL     OW93539  12.569  10.215  12.363
30567SOL    HW193540  12.556  10.247  12.274
30567SOL    HW293541  12.647  10.160  12.358
30568SOL     OW93542   1.534   7.487  12.353
30568SOL    HW193543   1.619   7.444  12.354
30568SOL    HW293544   1.522   7.513  12.261
30569SOL     OW93545   6.679  10.741   7.055
30569SOL    HW193546   6.638  10.828   7.057
30569SOL    HW293547   6.733  10.738   7.135
30570SOL     OW93548   2.059  10.937  10.058
30570SOL    HW193549   2.133  10.899  10.011
30570SOL    HW293550   2.059  10.891  10.142
30571SOL     OW93551  11.032  14.510   9.552
30571SOL    HW193552  11.121  14.545   9.560
30571SOL    HW293553  10.999  14.508   9.642
30572SOL     OW93554   0.966   7.295  12.004
30572SOL    HW193555   0.947   7.284  11.911
30572SOL    HW293556   0.917   7.225  12.047
30573SOL     OW93557  10.633   2.077   4.274
30573SOL    HW193558  10.724   2.052   4.293
30573SOL    HW293559  10.594   2.092   4.360
30574SOL     OW93560  12.583  14.809  10.945
30574SOL    HW193561  12.578  14.850  11.031
30574SOL    HW293562  12.492  14.788  10.923
30575SOL     OW93563  14.021   7.857   6.555
30575SOL    HW193564  14.025   7.929   6.618
30575SOL    HW293565  14.031   7.778   6.609
30576SOL     OW93566   2.148   4.277   4.903
30576SOL    HW193567   2.180   4.266   4.814
30576SOL    HW293568   2.121   4.369   4.908
30577SOL     OW93569   9.942  10.629  11.510
30577SOL    HW193570   9.920  10.659  11.422
30577SOL    HW293571   9.945  10.534  11.502
30578SOL     OW93572   4.769   3.957  12.209
30578SOL    HW193573   4.714   3.884  12.183
30578SOL    HW293574   4.708   4.030  12.222
30579SOL     OW93575  11.499   2.667   2.664
30579SOL    HW193576  11.522   2.602   2.597
30579SOL    HW293577  11.411   2.641   2.693
30580SOL     OW93578   2.939   8.443   6.109
30580SOL    HW193579   2.991   8.479   6.038
30580SOL    HW293580   2.901   8.519   6.153
30581SOL     OW93581   3.956   0.791   5.713
30581SOL    HW193582   3.938   0.738   5.635
30581SOL    HW293583   3.879   0.780   5.768
30582SOL     OW93584  14.029  13.545   5.188
30582SOL    HW193585  13.971  13.591   5.249
30582SOL    HW293586  14.012  13.586   5.103
30583SOL     OW93587   7.233   0.486  13.434
30583SOL    HW193588   7.230   0.407  13.488
30583SOL    HW293589   7.144   0.521  13.438
30584SOL     OW93590   4.057   8.945  11.957
30584SOL    HW193591   4.125   8.941  12.023
30584SOL    HW293592   4.000   8.870  11.976
30585SOL     OW93593  10.781   2.429   7.055
30585SOL    HW193594  10.733   2.446   7.136
30585SOL    HW293595  10.741   2.350   7.019
30586SOL     OW93596   6.332   4.779  10.658
30586SOL    HW193597   6.282   4.856  10.686
30586SOL    HW293598   6.277   4.704  10.682
30587SOL     OW93599  14.237   0.094   5.521
30587SOL    HW193600  14.294   0.025   5.487
30587SOL    HW293601  14.162   0.095   5.462
30588SOL     OW93602  14.775   1.566  10.587
30588SOL    HW193603  14.693   1.597  10.548
30588SOL    HW293604  14.824   1.530  10.513
30589SOL     OW93605   7.095  11.913   5.910
30589SOL    HW193606   7.130  11.983   5.855
30589SOL    HW293607   7.008  11.944   5.936
30590SOL     OW93608  11.449   2.716   3.486
30590SOL    HW193609  11.404   2.781   3.540
30590SOL    HW293610  11.486   2.654   3.549
30591SOL     OW93611   1.475   7.282  13.119
30591SOL    HW193612   1.521   7.363  13.101
30591SOL    HW293613   1.544   7.220  13.144
30592SOL     OW93614   3.563  13.893  14.407
30592SOL    HW193615   3.563  13.915  14.500
30592SOL    HW293616   3.489  13.942  14.371
30593SOL     OW93617  12.223  10.308   6.895
30593SOL    HW193618  12.272  10.236   6.855
30593SOL    HW293619  12.131  10.285   6.879
30594SOL     OW93620  12.612   5.837  14.526
30594SOL    HW193621  12.706   5.856  14.528
30594SOL    HW293622  12.577   5.879  14.604
30595SOL     OW93623   2.745   7.364  11.222
30595SOL    HW193624   2.685   7.374  11.295
30595SOL    HW293625   2.814   7.429  11.238
30596SOL     OW93626   9.361   5.620   2.594
30596SOL    HW193627   9.354   5.665   2.510
30596SOL    HW293628   9.305   5.543   2.586
30597SOL     OW93629   5.381   8.669   1.863
30597SOL    HW193630   5.356   8.581   1.835
30597SOL    HW293631   5.435   8.703   1.792
30598SOL     OW93632   8.791  12.672   1.987
30598SOL    HW193633   8.860  12.646   1.925
30598SOL    HW293634   8.783  12.767   1.975
30599SOL     OW93635  14.214   6.013  11.579
30599SOL    HW193636  14.290   6.068  11.562
30599SOL    HW293637  14.235   5.966  11.660
30600SOL     OW93638  11.912   1.628   6.617
30600SOL    HW193639  11.896   1.540   6.583
30600SOL    HW293640  11.910   1.684   6.540
30601SOL     OW93641   6.869   5.933   6.550
30601SOL    HW193642   6.839   6.023   6.558
30601SOL    HW293643   6.795   5.880   6.579
30602SOL     OW93644  11.986   4.256  14.080
30602SOL    HW193645  11.918   4.271  14.146
30602SOL    HW293646  11.993   4.161  14.074
30603SOL     OW93647  12.740   8.269  13.807
30603SOL    HW193648  12.806   8.209  13.772
30603SOL    HW293649  12.766   8.283  13.898
30604SOL     OW93650   5.195  14.736   2.057
30604SOL    HW193651   5.172  14.643   2.058
30604SOL    HW293652   5.113  14.780   2.080
30605SOL     OW93653  10.782   7.100  13.393
30605SOL    HW193654  10.820   7.159  13.458
30605SOL    HW293655  10.808   7.012  13.422
30606SOL     OW93656  12.186  14.297   9.833
30606SOL    HW193657  12.228  14.238   9.896
30606SOL    HW293658  12.141  14.362   9.887
30607SOL     OW93659   1.074   6.791   9.428
30607SOL    HW193660   1.115   6.773   9.512
30607SOL    HW293661   1.126   6.742   9.364
30608SOL     OW93662   1.240   1.072  10.974
30608SOL    HW193663   1.242   1.140  10.907
30608SOL    HW293664   1.329   1.070  11.009
30609SOL     OW93665   8.948   2.378   1.986
30609SOL    HW193666   8.952   2.446   2.054
30609SOL    HW293667   8.860   2.341   1.994
30610SOL     OW93668   4.108   8.320  13.957
30610SOL    HW193669   4.074   8.354  13.874
30610SOL    HW293670   4.159   8.243  13.933
30611SOL     OW93671   5.022   1.836  14.713
30611SOL    HW193672   5.093   1.793  14.759
30611SOL    HW293673   5.002   1.914  14.766
30612SOL     OW93674   4.792   0.728   4.299
30612SOL    HW193675   4.793   0.749   4.205
30612SOL    HW293676   4.876   0.761   4.331
30613SOL     OW93677   6.271  12.393   0.224
30613SOL    HW193678   6.318  12.442   0.156
30613SOL    HW293679   6.291  12.439   0.305
30614SOL     OW93680   0.885   3.011   7.220
30614SOL    HW193681   0.830   2.949   7.269
30614SOL    HW293682   0.822   3.062   7.168
30615SOL     OW93683   9.717   6.734   1.195
30615SOL    HW193684   9.750   6.689   1.117
30615SOL    HW293685   9.769   6.699   1.267
30616SOL     OW93686   6.065  11.546  12.340
30616SOL    HW193687   6.068  11.456  12.373
30616SOL    HW293688   6.012  11.593  12.404
30617SOL     OW93689  12.660   9.777   6.746
30617SOL    HW193690  12.676   9.851   6.805
30617SOL    HW293691  12.705   9.703   6.786
30618SOL     OW93692   3.102   5.797   3.094
30618SOL    HW193693   3.042   5.869   3.076
30618SOL    HW293694   3.184   5.823   3.051
30619SOL     OW93695   8.063  14.186   8.408
30619SOL    HW193696   7.988  14.195   8.467
30619SOL    HW293697   8.093  14.096   8.421
30620SOL     OW93698  11.726   5.582   0.586
30620SOL    HW193699  11.790   5.605   0.519
30620SOL    HW293700  11.677   5.663   0.601
30621SOL     OW93701  13.881   8.807  12.174
30621SOL    HW193702  13.964   8.810  12.222
30621SOL    HW293703  13.840   8.724  12.201
30622SOL     OW93704  11.437  14.844   9.822
30622SOL    HW193705  11.451   0.030   9.749
30622SOL    HW293706  11.408  14.763   9.781
30623SOL     OW93707   4.692   3.040  14.824
30623SOL    HW193708   4.734   3.015   0.033
30623SOL    HW293709   4.735   2.984  14.759
30624SOL     OW93710   8.967   5.262  11.468
30624SOL    HW193711   8.927   5.194  11.414
30624SOL    HW293712   9.058   5.234  11.477
30625SOL     OW93713   0.313   1.536   9.671
30625SOL    HW193714   0.242   1.590   9.706
30625SOL    HW293715   0.379   1.599   9.642
30626SOL     OW93716  10.882   3.630   3.043
30626SOL    HW193717  10.824   3.635   2.967
30626SOL    HW293718  10.969   3.618   3.005
30627SOL     OW93719   0.578   4.034  14.447
30627SOL    HW193720   0.588   4.129  14.459
30627SOL    HW293721   0.665   4.005  14.420
30628SOL     OW93722  10.714   3.662   7.912
30628SOL    HW193723  10.762   3.744   7.915
30628SOL    HW293724  10.750   3.616   7.836
30629SOL     OW93725   4.221   6.763   5.036
30629SOL    HW193726   4.289   6.809   4.987
30629SOL    HW293727   4.163   6.727   4.969
30630SOL     OW93728   3.054   2.798  10.954
30630SOL    HW193729   3.093   2.712  10.938
30630SOL    HW293730   3.090   2.827  11.038
30631SOL     OW93731   8.425  13.353   4.487
30631SOL    HW193732   8.426  13.257   4.480
30631SOL    HW293733   8.419  13.370   4.581
30632SOL     OW93734  12.063   1.005   5.634
30632SOL    HW193735  12.072   0.971   5.723
30632SOL    HW293736  12.087   0.931   5.578
30633SOL     OW93737   0.257   2.864   2.452
30633SOL    HW193738   0.258   2.924   2.528
30633SOL    HW293739   0.167   2.831   2.449
30634SOL     OW93740  12.519  12.790   5.483
30634SOL    HW193741  12.576  12.776   5.407
30634SOL    HW293742  12.433  12.806   5.445
30635SOL     OW93743  11.876  14.451  10.973
30635SOL    HW193744  11.918  14.504  10.905
30635SOL    HW293745  11.949  14.412  11.021
30636SOL     OW93746  14.521   3.694   9.267
30636SOL    HW193747  14.602   3.705   9.318
30636SOL    HW293748  14.548   3.713   9.177
30637SOL     OW93749  10.593   9.845  11.543
30637SOL    HW193750  10.622   9.860  11.453
30637SOL    HW293751  10.542   9.765  11.539
30638SOL     OW93752   4.648  10.349  10.998
30638SOL    HW193753   4.561  10.375  11.028
30638SOL    HW293754   4.700  10.341  11.078
30639SOL     OW93755  11.525   1.805  14.490
30639SOL    HW193756  11.609   1.766  14.467
30639SOL    HW293757  11.459   1.741  14.461
30640SOL     OW93758   2.774  10.893  13.725
30640SOL    HW193759   2.835  10.958  13.690
30640SOL    HW293760   2.770  10.824  13.659
30641SOL     OW93761   7.176   9.658  14.136
30641SOL    HW193762   7.229   9.712  14.077
30641SOL    HW293763   7.093   9.705  14.144
30642SOL     OW93764   5.600   9.467  13.807
30642SOL    HW193765   5.576   9.548  13.761
30642SOL    HW293766   5.635   9.498  13.891
30643SOL     OW93767   9.601   2.903   4.961
30643SOL    HW193768   9.641   2.851   5.031
30643SOL    HW293769   9.615   2.994   4.988
30644SOL     OW93770  11.174   5.875   1.970
30644SOL    HW193771  11.181   5.970   1.979
30644SOL    HW293772  11.150   5.844   2.058
30645SOL     OW93773   3.229   3.527   1.338
30645SOL    HW193774   3.304   3.474   1.310
30645SOL    HW293775   3.162   3.462   1.359
30646SOL     OW93776  10.802  12.175  10.335
30646SOL    HW193777  10.756  12.255  10.364
30646SOL    HW293778  10.841  12.140  10.415
30647SOL     OW93779   6.877   7.520  13.310
30647SOL    HW193780   6.862   7.611  13.284
30647SOL    HW293781   6.852   7.469  13.232
30648SOL     OW93782   2.204  10.262   2.500
30648SOL    HW193783   2.166  10.347   2.522
30648SOL    HW293784   2.213  10.217   2.584
30649SOL     OW93785  14.780   7.102  10.073
30649SOL    HW193786  14.773   7.188  10.032
30649SOL    HW293787  14.742   7.113  10.160
30650SOL     OW93788   5.763  10.641   5.052
30650SOL    HW193789   5.856  10.629   5.071
30650SOL    HW293790   5.753  10.613   4.961
30651SOL     OW93791   2.897   8.972   3.676
30651SOL    HW193792   2.959   9.020   3.621
30651SOL    HW293793   2.838   9.038   3.711
30652SOL     OW93794   8.241  14.199   9.970
30652SOL    HW193795   8.198  14.283   9.984
30652SOL    HW293796   8.263  14.168  10.058
30653SOL     OW93797  10.434   0.226   7.139
30653SOL    HW193798  10.395   0.307   7.107
30653SOL    HW293799  10.437   0.237   7.234
30654SOL     OW93800   1.764   1.606   9.793
30654SOL    HW193801   1.782   1.661   9.869
30654SOL    HW293802   1.850   1.587   9.756
30655SOL     OW93803   4.995   4.702   8.760
30655SOL    HW193804   4.930   4.693   8.830
30655SOL    HW293805   4.949   4.747   8.690
30656SOL     OW93806  14.611  11.650  14.389
30656SOL    HW193807  14.561  11.665  14.308
30656SOL    HW293808  14.576  11.714  14.451
30657SOL     OW93809   1.131  10.285   2.030
30657SOL    HW193810   1.079  10.356   2.067
30657SOL    HW293811   1.188  10.327   1.965
30658SOL     OW93812   4.861   9.670   9.817
30658SOL    HW193813   4.887   9.732   9.885
30658SOL    HW293814   4.821   9.725   9.750
30659SOL     OW93815  13.993   6.046   3.539
30659SOL    HW193816  14.042   5.974   3.579
30659SOL    HW293817  14.020   6.046   3.447
30660SOL     OW93818   0.010   7.121   6.531
30660SOL    HW193819  14.796   7.159   6.529
30660SOL    HW293820   0.061   7.178   6.473
30661SOL     OW93821   6.418  13.641   8.439
30661SOL    HW193822   6.442  13.686   8.519
30661SOL    HW293823   6.383  13.557   8.468
30662SOL     OW93824   7.556   7.026  12.410
30662SOL    HW193825   7.479   7.058  12.456
30662SOL    HW293826   7.524   6.996  12.325
30663SOL     OW93827   2.677   8.726   0.824
30663SOL    HW193828   2.692   8.770   0.908
30663SOL    HW293829   2.740   8.655   0.823
30664SOL     OW93830   0.245   8.466   0.041
30664SOL    HW193831   0.317   8.418  14.874
30664SOL    HW293832   0.254   8.446   0.134
30665SOL     OW93833  14.240   2.632   6.564
30665SOL    HW193834  14.158   2.601   6.602
30665SOL    HW293835  14.264   2.708   6.617
30666SOL     OW93836  14.553   2.032   5.020
30666SOL    HW193837  14.556   2.081   4.938
30666SOL    HW293838  14.460   2.024   5.040
30667SOL     OW93839  10.044  14.364  13.044
30667SOL    HW193840  10.068  14.277  13.076
30667SOL    HW293841  10.019  14.350  12.953
30668SOL     OW93842   4.661   2.827   4.215
30668SOL    HW193843   4.704   2.913   4.218
30668SOL    HW293844   4.581   2.842   4.164
30669SOL     OW93845  12.118  13.101  12.908
30669SOL    HW193846  12.126  13.188  12.947
30669SOL    HW293847  12.205  13.083  12.873
30670SOL     OW93848   3.803   2.845   7.122
30670SOL    HW193849   3.876   2.886   7.169
30670SOL    HW293850   3.726   2.868   7.174
30671SOL     OW93851   5.079  10.595   3.529
30671SOL    HW193852   5.070  10.502   3.510
30671SOL    HW293853   5.081  10.637   3.443
30672SOL     OW93854   3.332  12.727   1.136
30672SOL    HW193855   3.372  12.741   1.050
30672SOL    HW293856   3.403  12.741   1.198
30673SOL     OW93857   0.150   6.629   4.946
30673SOL    HW193858   0.078   6.565   4.956
30673SOL    HW293859   0.228   6.581   4.972
30674SOL     OW93860   7.564  10.081  10.308
30674SOL    HW193861   7.503  10.050  10.375
30674SOL    HW293862   7.570  10.175  10.323
30675SOL     OW93863   9.750   6.417   5.706
30675SOL    HW193864   9.795   6.387   5.626
30675SOL    HW293865   9.803   6.490   5.738
30676SOL     OW93866   2.281  13.444  12.309
30676SOL    HW193867   2.323  13.515  12.358
30676SOL    HW293868   2.195  13.479  12.285
30677SOL     OW93869  13.245   6.544   5.972
30677SOL    HW193870  13.242   6.450   5.988
30677SOL    HW293871  13.337   6.567   5.980
30678SOL     OW93872   1.591  14.437   7.646
30678SOL    HW193873   1.517  14.487   7.612
30678SOL    HW293874   1.632  14.495   7.710
30679SOL     OW93875   8.238   1.299   6.511
30679SOL    HW193876   8.235   1.262   6.423
30679SOL    HW293877   8.163   1.357   6.516
30680SOL     OW93878   7.953   7.210   1.274
30680SOL    HW193879   8.004   7.155   1.214
30680SOL    HW293880   7.906   7.147   1.329
30681SOL     OW93881   7.906  11.199   0.642
30681SOL    HW193882   7.851  11.230   0.570
30681SOL    HW293883   7.917  11.105   0.626
30682SOL     OW93884  11.399   5.965   1.582
30682SOL    HW193885  11.384   5.875   1.612
30682SOL    HW293886  11.488   5.963   1.547
30683SOL     OW93887   6.290   3.119   8.519
30683SOL    HW193888   6.305   3.209   8.491
30683SOL    HW293889   6.211   3.092   8.472
30684SOL     OW93890  13.193  11.146   5.474
30684SOL    HW193891  13.253  11.125   5.545
30684SOL    HW293892  13.200  11.072   5.413
30685SOL     OW93893   5.427  14.079  10.012
30685SOL    HW193894   5.473  14.157   9.981
30685SOL    HW293895   5.493  14.010  10.010
30686SOL     OW93896   6.825   3.514  10.712
30686SOL    HW193897   6.764   3.478  10.776
30686SOL    HW293898   6.812   3.462  10.633
30687SOL     OW93899  13.247  13.779   1.072
30687SOL    HW193900  13.264  13.809   0.982
30687SOL    HW293901  13.258  13.858   1.125
30688SOL     OW93902  11.115  10.169   9.795
30688SOL    HW193903  11.136  10.087   9.840
30688SOL    HW293904  11.068  10.220   9.861
30689SOL     OW93905   0.060   6.754   3.883
30689SOL    HW193906  14.847   6.753   3.922
30689SOL    HW293907   0.054   6.817   3.812
30690SOL     OW93908   4.808   6.621   9.201
30690SOL    HW193909   4.780   6.711   9.216
30690SOL    HW293910   4.859   6.599   9.279
30691SOL     OW93911  10.693   8.578   7.069
30691SOL    HW193912  10.684   8.589   6.974
30691SOL    HW293913  10.610   8.540   7.097
30692SOL     OW93914  10.918   0.149   9.718
30692SOL    HW193915  10.924   0.227   9.663
30692SOL    HW293916  10.897   0.184   9.805
30693SOL     OW93917   0.489   1.266  11.657
30693SOL    HW193918   0.519   1.319  11.583
30693SOL    HW293919   0.445   1.191  11.617
30694SOL     OW93920  13.806   8.734   8.726
30694SOL    HW193921  13.841   8.725   8.815
30694SOL    HW293922  13.711   8.722   8.737
30695SOL     OW93923   0.897  12.779   9.934
30695SOL    HW193924   0.929  12.835   9.864
30695SOL    HW293925   0.832  12.723   9.892
30696SOL     OW93926   9.969   5.195  12.195
30696SOL    HW193927  10.034   5.192  12.264
30696SOL    HW293928   9.942   5.287  12.192
30697SOL     OW93929  13.320   4.549   1.719
30697SOL    HW193930  13.268   4.487   1.771
30697SOL    HW293931  13.388   4.579   1.779
30698SOL     OW93932  14.685   2.255   7.271
30698SOL    HW193933  14.699   2.349   7.279
30698SOL    HW293934  14.632   2.231   7.347
30699SOL     OW93935  11.494  11.446   9.352
30699SOL    HW193936  11.545  11.379   9.396
30699SOL    HW293937  11.417  11.459   9.408
30700SOL     OW93938   3.435  11.250   3.637
30700SOL    HW193939   3.505  11.198   3.678
30700SOL    HW293940   3.428  11.214   3.549
30701SOL     OW93941  10.841  10.827  13.793
30701SOL    HW193942  10.878  10.801  13.877
30701SOL    HW293943  10.862  10.920  13.786
30702SOL     OW93944  11.401   9.466  14.560
30702SOL    HW193945  11.363   9.545  14.599
30702SOL    HW293946  11.400   9.483  14.466
30703SOL     OW93947   7.634   3.426   8.558
30703SOL    HW193948   7.545   3.390   8.550
30703SOL    HW293949   7.641   3.452   8.649
30704SOL     OW93950   3.370   5.469   1.275
30704SOL    HW193951   3.355   5.548   1.327
30704SOL    HW293952   3.286   5.452   1.233
30705SOL     OW93953  10.044   8.574   7.887
30705SOL    HW193954  10.092   8.655   7.901
30705SOL    HW293955  10.022   8.544   7.975
30706SOL     OW93956   2.658   7.779  14.727
30706SOL    HW193957   2.593   7.848  14.740
30706SOL    HW293958   2.658   7.729  14.809
30707SOL     OW93959   4.056  12.823   3.778
30707SOL    HW193960   4.010  12.901   3.810
30707SOL    HW293961   4.003  12.749   3.809
30708SOL     OW93962   1.710  12.988  13.254
30708SOL    HW193963   1.770  13.046  13.301
30708SOL    HW293964   1.624  13.028  13.266
30709SOL     OW93965  13.542  11.474   6.983
30709SOL    HW193966  13.580  11.411   7.044
30709SOL    HW293967  13.609  11.484   6.915
30710SOL     OW93968   3.767   8.539  12.080
30710SOL    HW193969   3.814   8.457  12.072
30710SOL    HW293970   3.676   8.518  12.059
30711SOL     OW93971  14.094  14.623  13.649
30711SOL    HW193972  14.146  14.699  13.621
30711SOL    HW293973  14.003  14.649  13.631
30712SOL     OW93974  10.489  10.001   3.406
30712SOL    HW193975  10.520   9.988   3.317
30712SOL    HW293976  10.435   9.924   3.425
30713SOL     OW93977   8.591   0.166  13.777
30713SOL    HW193978   8.547   0.197  13.856
30713SOL    HW293979   8.683   0.188  13.791
30714SOL     OW93980  13.467   5.901  10.101
30714SOL    HW193981  13.477   5.821  10.151
30714SOL    HW293982  13.550   5.947  10.112
30715SOL     OW93983  14.055   2.958  14.005
30715SOL    HW193984  14.138   2.993  14.036
30715SOL    HW293985  14.052   2.982  13.912
30716SOL     OW93986   0.308   4.842   7.612
30716SOL    HW193987   0.256   4.921   7.603
30716SOL    HW293988   0.309   4.803   7.525
30717SOL     OW93989   9.689   1.804   0.497
30717SOL    HW193990   9.732   1.776   0.578
30717SOL    HW293991   9.646   1.886   0.520
30718SOL     OW93992   0.259  10.864   9.660
30718SOL    HW193993   0.283  10.951   9.692
30718SOL    HW293994   0.328  10.806   9.694
30719SOL     OW93995   6.283  10.305   8.918
30719SOL    HW193996   6.317  10.348   8.997
30719SOL    HW293997   6.356  10.254   8.885
30720SOL     OW93998  14.747  14.144  14.125
30720SOL    HW193999  14.830  14.111  14.093
30720SOL    HW294000  14.725  14.216  14.066
30721SOL     OW94001   8.675  11.649  11.712
30721SOL    HW194002   8.756  11.676  11.667
30721SOL    HW294003   8.654  11.565  11.673
30722SOL     OW94004   8.761   8.467   5.408
30722SOL    HW194005   8.698   8.445   5.477
30722SOL    HW294006   8.706   8.491   5.333
30723SOL     OW94007   4.761  10.125   1.508
30723SOL    HW194008   4.686  10.184   1.507
30723SOL    HW294009   4.775  10.104   1.600
30724SOL     OW94010   5.362   6.044   9.189
30724SOL    HW194011   5.291   5.982   9.174
30724SOL    HW294012   5.436   5.990   9.215
30725SOL     OW94013   6.602  12.427   4.790
30725SOL    HW194014   6.585  12.399   4.879
30725SOL    HW294015   6.688  12.470   4.794
30726SOL     OW94016  11.902   6.534  11.053
30726SOL    HW194017  11.907   6.447  11.013
30726SOL    HW294018  11.829   6.577  11.008
30727SOL     OW94019   0.286   8.170  13.643
30727SOL    HW194020   0.332   8.089  13.618
30727SOL    HW294021   0.243   8.199  13.563
30728SOL     OW94022   7.359  12.714   5.417
30728SOL    HW194023   7.351  12.670   5.333
30728SOL    HW294024   7.289  12.678   5.471
30729SOL     OW94025  12.609   4.308  11.080
30729SOL    HW194026  12.600   4.389  11.029
30729SOL    HW294027  12.693   4.318  11.125
30730SOL     OW94028  13.172   3.566   9.899
30730SOL    HW194029  13.178   3.534   9.808
30730SOL    HW294030  13.233   3.511   9.948
30731SOL     OW94031   3.320   4.469  10.733
30731SOL    HW194032   3.329   4.554  10.689
30731SOL    HW294033   3.229   4.444  10.718
30732SOL     OW94034   9.783  12.955  12.204
30732SOL    HW194035   9.797  12.874  12.154
30732SOL    HW294036   9.806  13.025  12.143
30733SOL     OW94037   9.160   3.118   4.887
30733SOL    HW194038   9.245   3.160   4.900
30733SOL    HW294039   9.178   3.044   4.829
30734SOL     OW94040   8.030   6.744   2.306
30734SOL    HW194041   8.124   6.737   2.287
30734SOL    HW294042   7.988   6.691   2.238
30735SOL     OW94043   3.768   4.094  12.330
30735SOL    HW194044   3.744   4.003  12.310
30735SOL    HW294045   3.846   4.086  12.385
30736SOL     OW94046   3.092   3.288   2.287
30736SOL    HW194047   3.011   3.246   2.257
30736SOL    HW294048   3.063   3.362   2.340
30737SOL     OW94049   7.948  10.297  14.404
30737SOL    HW194050   7.927  10.206  14.383
30737SOL    HW294051   8.043  10.298  14.414
30738SOL     OW94052  11.327  12.462   4.942
30738SOL    HW194053  11.275  12.541   4.934
30738SOL    HW294054  11.306  12.410   4.864
30739SOL     OW94055   4.701   5.469  11.901
30739SOL    HW194056   4.630   5.523  11.869
30739SOL    HW294057   4.729   5.511  11.982
30740SOL     OW94058  13.097  12.768   7.879
30740SOL    HW194059  13.080  12.796   7.969
30740SOL    HW294060  13.191  12.782   7.867
30741SOL     OW94061   0.126  11.223  13.778
30741SOL    HW194062   0.114  11.259  13.691
30741SOL    HW294063   0.171  11.139  13.765
30742SOL     OW94064   1.114  11.503   3.466
30742SOL    HW194065   1.143  11.594   3.477
30742SOL    HW294066   1.019  11.506   3.475
30743SOL     OW94067   9.839   2.229  12.687
30743SOL    HW194068   9.747   2.252  12.699
30743SOL    HW294069   9.839   2.133  12.680
30744SOL     OW94070  12.734  14.018   4.978
30744SOL    HW194071  12.747  13.934   5.022
30744SOL    HW294072  12.701  14.076   5.047
30745SOL     OW94073   8.649   8.913  10.649
30745SOL    HW194074   8.555   8.924  10.663
30745SOL    HW294075   8.655   8.844  10.584
30746SOL     OW94076  10.432   7.261   0.228
30746SOL    HW194077  10.524   7.287   0.234
30746SOL    HW294078  10.434   7.177   0.183
30747SOL     OW94079   8.909   5.559  12.345
30747SOL    HW194080   8.985   5.559  12.288
30747SOL    HW294081   8.915   5.476  12.394
30748SOL     OW94082   1.418  14.238   3.012
30748SOL    HW194083   1.505  14.216   2.978
30748SOL    HW294084   1.392  14.315   2.962
30749SOL     OW94085   6.796   1.022  11.854
30749SOL    HW194086   6.826   1.112  11.862
30749SOL    HW294087   6.751   1.003  11.936
30750SOL     OW94088   3.188  12.199   1.045
30750SOL    HW194089   3.172  12.282   0.999
30750SOL    HW294090   3.269  12.214   1.093
30751SOL     OW94091  13.851   0.751   1.447
30751SOL    HW194092  13.819   0.675   1.399
30751SOL    HW294093  13.945   0.736   1.457
30752SOL     OW94094   1.750  13.493   2.895
30752SOL    HW194095   1.676  13.441   2.927
30752SOL    HW294096   1.828  13.446   2.926
30753SOL     OW94097   7.272  11.736  11.752
30753SOL    HW194098   7.343  11.673  11.746
30753SOL    HW294099   7.303  11.802  11.813
30754SOL     OW94100   1.963  10.540  12.539
30754SOL    HW194101   1.899  10.575  12.601
30754SOL    HW294102   1.949  10.445  12.541
30755SOL     OW94103  11.578   9.603   0.628
30755SOL    HW194104  11.670   9.583   0.611
30755SOL    HW294105  11.542   9.523   0.665
30756SOL     OW94106   9.080   1.797   8.533
30756SOL    HW194107   9.140   1.872   8.530
30756SOL    HW294108   8.993   1.837   8.539
30757SOL     OW94109  10.727  14.522   3.941
30757SOL    HW194110  10.691  14.479   4.019
30757SOL    HW294111  10.821  14.504   3.946
30758SOL     OW94112   5.642  13.599   5.114
30758SOL    HW194113   5.642  13.576   5.021
30758SOL    HW294114   5.581  13.536   5.153
30759SOL     OW94115   3.940  10.567   0.022
30759SOL    HW194116   3.903  10.479   0.029
30759SOL    HW294117   3.871  10.619  14.855
30760SOL     OW94118   2.504  12.572   5.516
30760SOL    HW194119   2.579  12.514   5.527
30760SOL    HW294120   2.512  12.604   5.427
30761SOL     OW94121   5.246  11.529  11.271
30761SOL    HW194122   5.294  11.610  11.289
30761SOL    HW294123   5.276  11.468  11.338
30762SOL     OW94124  13.119   9.674  11.043
30762SOL    HW194125  13.122   9.689  11.138
30762SOL    HW294126  13.077   9.588  11.033
30763SOL     OW94127   2.537   3.666  13.144
30763SOL    HW194128   2.594   3.676  13.067
30763SOL    HW294129   2.466   3.729  13.129
30764SOL     OW94130   0.141   6.372   2.949
30764SOL    HW194131   0.066   6.427   2.927
30764SOL    HW294132   0.107   6.283   2.948
30765SOL     OW94133  10.942   5.274   3.113
30765SOL    HW194134  10.885   5.316   3.177
30765SOL    HW294135  10.936   5.331   3.036
30766SOL     OW94136  13.706   6.824   7.383
30766SOL    HW194137  13.648   6.750   7.367
30766SOL    HW294138  13.658   6.879   7.446
30767SOL     OW94139   5.212   3.178   0.784
30767SOL    HW194140   5.296   3.161   0.741
30767SOL    HW294141   5.236   3.203   0.873
30768SOL     OW94142   2.070  13.682   2.837
30768SOL    HW194143   2.048  13.773   2.819
30768SOL    HW294144   1.985  13.639   2.849
30769SOL     OW94145   7.015   5.197   5.156
30769SOL    HW194146   7.080   5.176   5.223
30769SOL    HW294147   6.988   5.287   5.176
30770SOL     OW94148   1.455   0.938   8.309
30770SOL    HW194149   1.450   0.842   8.318
30770SOL    HW294150   1.477   0.953   8.217
30771SOL     OW94151   6.198   3.756   2.485
30771SOL    HW194152   6.128   3.727   2.426
30771SOL    HW294153   6.176   3.847   2.505
30772SOL     OW94154  10.643   4.867   7.511
30772SOL    HW194155  10.621   4.953   7.548
30772SOL    HW294156  10.737   4.871   7.495
30773SOL     OW94157   3.497  13.885   4.846
30773SOL    HW194158   3.470  13.803   4.887
30773SOL    HW294159   3.538  13.858   4.764
30774SOL     OW94160   3.131   9.378   2.692
30774SOL    HW194161   3.205   9.328   2.659
30774SOL    HW294162   3.125   9.454   2.634
30775SOL     OW94163   5.076   6.878   9.299
30775SOL    HW194164   5.016   6.810   9.330
30775SOL    HW294165   5.162   6.835   9.299
30776SOL     OW94166   9.230  13.809  13.457
30776SOL    HW194167   9.139  13.839  13.460
30776SOL    HW294168   9.273  13.857  13.527
30777SOL     OW94169   0.861   4.221   0.896
30777SOL    HW194170   0.818   4.153   0.843
30777SOL    HW294171   0.919   4.172   0.955
30778SOL     OW94172   1.801  11.304   8.343
30778SOL    HW194173   1.764  11.309   8.255
30778SOL    HW294174   1.743  11.357   8.397
30779SOL     OW94175   1.726   6.762   5.079
30779SOL    HW194176   1.765   6.824   5.016
30779SOL    HW294177   1.792   6.693   5.087
30780SOL     OW94178   0.761   3.478   5.876
30780SOL    HW194179   0.771   3.398   5.825
30780SOL    HW294180   0.709   3.536   5.821
30781SOL     OW94181  11.083   3.891   8.532
30781SOL    HW194182  11.017   3.930   8.474
30781SOL    HW294183  11.154   3.955   8.534
30782SOL     OW94184   6.400  10.531   1.690
30782SOL    HW194185   6.463  10.462   1.666
30782SOL    HW294186   6.339  10.534   1.616
30783SOL     OW94187  11.270  11.126   5.120
30783SOL    HW194188  11.251  11.040   5.080
30783SOL    HW294189  11.285  11.184   5.045
30784SOL     OW94190   5.086   5.114  11.639
30784SOL    HW194191   5.009   5.156  11.600
30784SOL    HW294192   5.148   5.186  11.652
30785SOL     OW94193   0.822   6.339  11.143
30785SOL    HW194194   0.746   6.384  11.105
30785SOL    HW294195   0.890   6.345  11.077
30786SOL     OW94196   9.384  12.600  13.616
30786SOL    HW194197   9.307  12.620  13.669
30786SOL    HW294198   9.429  12.531  13.664
30787SOL     OW94199   8.118   9.601  11.203
30787SOL    HW194200   8.099   9.690  11.230
30787SOL    HW294201   8.125   9.551  11.284
30788SOL     OW94202   4.187  13.510   3.765
30788SOL    HW194203   4.189  13.414   3.758
30788SOL    HW294204   4.213  13.541   3.679
30789SOL     OW94205   7.096   0.227   4.834
30789SOL    HW194206   7.066   0.169   4.904
30789SOL    HW294207   7.141   0.298   4.880
30790SOL     OW94208   2.678   6.058   0.874
30790SOL    HW194209   2.726   6.040   0.955
30790SOL    HW294210   2.670   5.973   0.831
30791SOL     OW94211   4.323  12.625   9.282
30791SOL    HW194212   4.393  12.679   9.245
30791SOL    HW294213   4.278  12.589   9.206
30792SOL     OW94214  13.624   1.849   0.910
30792SOL    HW194215  13.692   1.797   0.868
30792SOL    HW294216  13.593   1.908   0.842
30793SOL     OW94217   3.515   1.800   2.164
30793SOL    HW194218   3.421   1.787   2.177
30793SOL    HW294219   3.556   1.762   2.243
30794SOL     OW94220   1.797   5.092  14.838
30794SOL    HW194221   1.719   5.129  14.796
30794SOL    HW294222   1.794   4.999  14.816
30795SOL     OW94223   8.790  11.157   6.104
30795SOL    HW194224   8.698  11.129   6.112
30795SOL    HW294225   8.804  11.165   6.010
30796SOL     OW94226   7.879   1.343  11.270
30796SOL    HW194227   7.845   1.341  11.360
30796SOL    HW294228   7.812   1.299  11.218
30797SOL     OW94229  12.697   3.522  14.373
30797SOL    HW194230  12.616   3.558  14.338
30797SOL    HW294231  12.718   3.578  14.447
30798SOL     OW94232  12.302   7.863   0.496
30798SOL    HW194233  12.251   7.931   0.540
30798SOL    HW294234  12.283   7.876   0.403
30799SOL     OW94235   7.145   5.422   1.899
30799SOL    HW194236   7.141   5.516   1.916
30799SOL    HW294237   7.065   5.388   1.941
30800SOL     OW94238  12.942   8.266   7.875
30800SOL    HW194239  13.032   8.289   7.852
30800SOL    HW294240  12.951   8.184   7.924
30801SOL     OW94241   8.731   9.847  10.119
30801SOL    HW194242   8.789   9.835  10.194
30801SOL    HW294243   8.744   9.769  10.066
30802SOL     OW94244   2.400   7.986  10.612
30802SOL    HW194245   2.318   7.991  10.562
30802SOL    HW294246   2.464   8.030  10.557
30803SOL     OW94247   7.948   5.254   7.982
30803SOL    HW194248   7.952   5.324   8.048
30803SOL    HW294249   8.005   5.185   8.017
30804SOL     OW94250  12.803   7.043   9.962
30804SOL    HW194251  12.758   7.066  10.043
30804SOL    HW294252  12.787   6.950   9.951
30805SOL     OW94253   6.189   2.976   6.340
30805SOL    HW194254   6.149   2.989   6.426
30805SOL    HW294255   6.116   2.959   6.282
30806SOL     OW94256   1.307   5.871  11.614
30806SOL    HW194257   1.373   5.822  11.664
30806SOL    HW294258   1.344   5.959  11.605
30807SOL     OW94259   6.423   5.089   7.558
30807SOL    HW194260   6.337   5.056   7.532
30807SOL    HW294261   6.415   5.184   7.549
30808SOL     OW94262   5.040  10.831  13.132
30808SOL    HW194263   5.012  10.741  13.113
30808SOL    HW294264   4.990  10.885  13.070
30809SOL     OW94265   9.257  13.977   2.774
30809SOL    HW194266   9.248  13.976   2.678
30809SOL    HW294267   9.211  13.898   2.803
30810SOL     OW94268   1.531   3.115   1.601
30810SOL    HW194269   1.602   3.130   1.538
30810SOL    HW294270   1.556   3.168   1.677
30811SOL     OW94271   3.636   7.884   3.205
30811SOL    HW194272   3.652   7.881   3.300
30811SOL    HW294273   3.646   7.793   3.177
30812SOL     OW94274  10.065   1.523   2.913
30812SOL    HW194275  10.126   1.582   2.958
30812SOL    HW294276  10.117   1.485   2.842
30813SOL     OW94277   1.345   3.175  12.070
30813SOL    HW194278   1.430   3.164  12.026
30813SOL    HW294279   1.368   3.198  12.160
30814SOL     OW94280   3.808  11.006  14.506
30814SOL    HW194281   3.850  11.066  14.567
30814SOL    HW294282   3.856  10.924  14.515
30815SOL     OW94283   9.780   2.872  10.024
30815SOL    HW194284   9.815   2.953  10.060
30815SOL    HW294285   9.688   2.891  10.006
30816SOL     OW94286  13.805   7.084   3.352
30816SOL    HW194287  13.795   7.170   3.310
30816SOL    HW294288  13.798   7.102   3.446
30817SOL     OW94289   9.954   1.515   2.062
30817SOL    HW194290  10.047   1.505   2.040
30817SOL    HW294291   9.944   1.608   2.080
30818SOL     OW94292   0.271   7.733  11.033
30818SOL    HW194293   0.356   7.773  11.052
30818SOL    HW294294   0.245   7.691  11.115
30819SOL     OW94295   9.700   9.686   4.197
30819SOL    HW194296   9.635   9.708   4.263
30819SOL    HW294297   9.688   9.592   4.181
30820SOL     OW94298   3.567   8.505   8.717
30820SOL    HW194299   3.478   8.531   8.743
30820SOL    HW294300   3.587   8.431   8.775
30821SOL     OW94301   1.552  13.083  11.250
30821SOL    HW194302   1.624  13.031  11.212
30821SOL    HW294303   1.530  13.037  11.331
30822SOL     OW94304  13.358  12.656   4.543
30822SOL    HW194305  13.441  12.609   4.543
30822SOL    HW294306  13.292  12.588   4.555
30823SOL     OW94307  10.462  13.081  10.958
30823SOL    HW194308  10.403  13.135  10.906
30823SOL    HW294309  10.480  13.133  11.036
30824SOL     OW94310   8.627   3.641   6.617
30824SOL    HW194311   8.658   3.600   6.698
30824SOL    HW294312   8.660   3.731   6.622
30825SOL     OW94313  12.894   3.762   1.997
30825SOL    HW194314  12.892   3.841   1.942
30825SOL    HW294315  12.951   3.786   2.070
30826SOL     OW94316  11.662   6.804   1.688
30826SOL    HW194317  11.638   6.735   1.627
30826SOL    HW294318  11.757   6.796   1.697
30827SOL     OW94319   4.066  13.914   6.306
30827SOL    HW194320   4.055  13.907   6.401
30827SOL    HW294321   4.115  13.995   6.294
30828SOL     OW94322   5.465   1.016   1.034
30828SOL    HW194323   5.555   0.999   1.007
30828SOL    HW294324   5.464   0.995   1.128
30829SOL     OW94325   3.186   9.119   9.347
30829SOL    HW194326   3.254   9.184   9.364
30829SOL    HW294327   3.117   9.140   9.410
30830SOL     OW94328  14.143   5.432   9.025
30830SOL    HW194329  14.084   5.502   8.997
30830SOL    HW294330  14.160   5.382   8.945
30831SOL     OW94331   9.612  12.356   2.779
30831SOL    HW194332   9.551  12.406   2.833
30831SOL    HW294333   9.578  12.266   2.781
30832SOL     OW94334   3.349   8.983   8.136
30832SOL    HW194335   3.289   9.041   8.184
30832SOL    HW294336   3.386   9.038   8.067
30833SOL     OW94337  12.624   6.478  11.362
30833SOL    HW194338  12.597   6.503  11.451
30833SOL    HW294339  12.548   6.499  11.308
30834SOL     OW94340   2.324  10.014  14.494
30834SOL    HW194341   2.355  10.017  14.584
30834SOL    HW294342   2.239  10.058  14.496
30835SOL     OW94343   6.958   9.411   6.523
30835SOL    HW194344   6.894   9.441   6.589
30835SOL    HW294345   7.043   9.423   6.566
30836SOL     OW94346  13.580   1.110   7.357
30836SOL    HW194347  13.655   1.154   7.397
30836SOL    HW294348  13.553   1.168   7.286
30837SOL     OW94349   7.245  13.545   3.950
30837SOL    HW194350   7.337  13.565   3.936
30837SOL    HW294351   7.201  13.630   3.947
30838SOL     OW94352  13.364  12.296   3.457
30838SOL    HW194353  13.409  12.214   3.438
30838SOL    HW294354  13.274  12.270   3.477
30839SOL     OW94355   5.434  14.193   1.200
30839SOL    HW194356   5.527  14.199   1.177
30839SOL    HW294357   5.405  14.284   1.203
30840SOL     OW94358   5.778   7.010   7.113
30840SOL    HW194359   5.711   7.073   7.086
30840SOL    HW294360   5.737   6.962   7.185
30841SOL     OW94361  14.789   1.823   4.182
30841SOL    HW194362  14.799   1.918   4.172
30841SOL    HW294363  14.778   1.791   4.092
30842SOL     OW94364   2.593  11.431  12.115
30842SOL    HW194365   2.562  11.343  12.092
30842SOL    HW294366   2.529  11.490  12.075
30843SOL     OW94367   0.806   2.899   4.987
30843SOL    HW194368   0.715   2.900   4.958
30843SOL    HW294369   0.829   2.991   5.000
30844SOL     OW94370  14.374   0.130   5.002
30844SOL    HW194371  14.424   0.052   5.023
30844SOL    HW294372  14.417   0.200   5.051
30845SOL     OW94373  11.774   3.036   3.037
30845SOL    HW194374  11.805   3.116   3.079
30845SOL    HW294375  11.755   2.977   3.110
30846SOL     OW94376   0.103  11.160   4.855
30846SOL    HW194377   0.176  11.217   4.831
30846SOL    HW294378   0.145  11.086   4.899
30847SOL     OW94379   9.665   6.073   3.874
30847SOL    HW194380   9.684   6.100   3.963
30847SOL    HW294381   9.592   6.129   3.846
30848SOL     OW94382   5.680   2.340  13.769
30848SOL    HW194383   5.622   2.264  13.763
30848SOL    HW294384   5.766   2.306  13.748
30849SOL     OW94385  11.242  10.537   7.141
30849SOL    HW194386  11.320  10.539   7.196
30849SOL    HW294387  11.267  10.583   7.061
30850SOL     OW94388   9.941  10.866   5.780
30850SOL    HW194389   9.897  10.928   5.839
30850SOL    HW294390   9.871  10.812   5.745
30851SOL     OW94391   9.938   6.047   2.957
30851SOL    HW194392   9.989   6.047   2.877
30851SOL    HW294393   9.941   6.138   2.988
30852SOL     OW94394   5.863   8.910   4.819
30852SOL    HW194395   5.814   8.827   4.816
30852SOL    HW294396   5.847   8.950   4.733
30853SOL     OW94397   6.643   4.959   7.557
30853SOL    HW194398   6.713   5.012   7.519
30853SOL    HW294399   6.566   5.015   7.552
30854SOL     OW94400   6.971  12.393  10.423
30854SOL    HW194401   6.879  12.416  10.441
30854SOL    HW294402   6.988  12.428  10.336
30855SOL     OW94403   7.457   4.328   8.305
30855SOL    HW194404   7.540   4.285   8.286
30855SOL    HW294405   7.480   4.421   8.312
30856SOL     OW94406   2.572  10.515   9.415
30856SOL    HW194407   2.539  10.544   9.500
30856SOL    HW294408   2.525  10.433   9.399
30857SOL     OW94409  11.752   3.464   2.771
30857SOL    HW194410  11.762   3.559   2.765
30857SOL    HW294411  11.839   3.431   2.792
30858SOL     OW94412   0.093   0.931   6.527
30858SOL    HW194413   0.090   0.870   6.601
30858SOL    HW294414   0.127   0.878   6.454
30859SOL     OW94415  11.873  11.471   7.709
30859SOL    HW194416  11.934  11.409   7.749
30859SOL    HW294417  11.866  11.542   7.772
30860SOL     OW94418  11.975   0.034   4.856
30860SOL    HW194419  12.066   0.006   4.849
30860SOL    HW294420  11.974   0.091   4.933
30861SOL     OW94421   6.956  11.585   2.441
30861SOL    HW194422   6.984  11.653   2.380
30861SOL    HW294423   7.031  11.525   2.446
30862SOL     OW94424   6.866   8.570   0.682
30862SOL    HW194425   6.814   8.635   0.633
30862SOL    HW294426   6.873   8.607   0.770
30863SOL     OW94427   8.747   4.321   3.305
30863SOL    HW194428   8.705   4.394   3.350
30863SOL    HW294429   8.834   4.353   3.282
30864SOL     OW94430   6.887   1.381   0.897
30864SOL    HW194431   6.855   1.392   0.987
30864SOL    HW294432   6.861   1.460   0.851
30865SOL     OW94433   0.724   3.367   3.037
30865SOL    HW194434   0.806   3.412   3.016
30865SOL    HW294435   0.725   3.357   3.132
30866SOL     OW94436   9.843   1.784   4.618
30866SOL    HW194437   9.791   1.704   4.616
30866SOL    HW294438   9.932   1.755   4.636
30867SOL     OW94439   7.315  13.687  12.923
30867SOL    HW194440   7.240  13.643  12.883
30867SOL    HW294441   7.379  13.694  12.853
30868SOL     OW94442   7.960  12.285   9.947
30868SOL    HW194443   8.028  12.351   9.933
30868SOL    HW294444   7.916  12.278   9.862
30869SOL     OW94445   5.401   7.523  14.680
30869SOL    HW194446   5.347   7.561  14.749
30869SOL    HW294447   5.350   7.535  14.600
30870SOL     OW94448   8.182   9.948   1.284
30870SOL    HW194449   8.258   9.890   1.275
30870SOL    HW294450   8.120   9.899   1.337
30871SOL     OW94451   0.971   5.668  10.823
30871SOL    HW194452   0.959   5.588  10.875
30871SOL    HW294453   1.055   5.703  10.853
30872SOL     OW94454   2.384  13.606   4.980
30872SOL    HW194455   2.373  13.681   4.921
30872SOL    HW294456   2.340  13.533   4.936
30873SOL     OW94457   0.040   4.082   0.932
30873SOL    HW194458   0.038   4.054   0.840
30873SOL    HW294459   0.083   4.168   0.929
30874SOL     OW94460   3.211   5.705  14.087
30874SOL    HW194461   3.181   5.744  14.005
30874SOL    HW294462   3.149   5.738  14.153
30875SOL     OW94463  14.138   4.522   4.737
30875SOL    HW194464  14.185   4.596   4.774
30875SOL    HW294465  14.055   4.520   4.784
30876SOL     OW94466   2.471   3.668   1.290
30876SOL    HW194467   2.492   3.642   1.380
30876SOL    HW294468   2.420   3.594   1.255
30877SOL     OW94469  12.132   2.322   6.874
30877SOL    HW194470  12.129   2.228   6.860
30877SOL    HW294471  12.226   2.344   6.875
30878SOL     OW94472  13.519  10.999   3.450
30878SOL    HW194473  13.614  11.011   3.448
30878SOL    HW294474  13.498  10.989   3.543
30879SOL     OW94475   4.753   8.373  13.367
30879SOL    HW194476   4.706   8.410  13.293
30879SOL    HW294477   4.845   8.377  13.342
30880SOL     OW94478  14.184   1.211   9.746
30880SOL    HW194479  14.236   1.218   9.666
30880SOL    HW294480  14.210   1.288   9.798
30881SOL     OW94481   6.745   8.228   6.345
30881SOL    HW194482   6.678   8.164   6.369
30881SOL    HW294483   6.821   8.204   6.399
30882SOL     OW94484  12.980  14.603   9.586
30882SOL    HW194485  12.915  14.600   9.516
30882SOL    HW294486  12.993  14.511   9.610
30883SOL     OW94487  13.327   0.216  11.513
30883SOL    HW194488  13.418   0.188  11.528
30883SOL    HW294489  13.277   0.171  11.581
30884SOL     OW94490  11.496  13.574   8.513
30884SOL    HW194491  11.467  13.521   8.588
30884SOL    HW294492  11.591  13.582   8.526
30885SOL     OW94493   1.249  10.166  14.080
30885SOL    HW194494   1.317  10.121  14.031
30885SOL    HW294495   1.183  10.189  14.015
30886SOL     OW94496   7.771   5.276   2.207
30886SOL    HW194497   7.830   5.201   2.205
30886SOL    HW294498   7.727   5.274   2.122
30887SOL     OW94499   2.658   1.313  14.682
30887SOL    HW194500   2.708   1.234  14.660
30887SOL    HW294501   2.642   1.306  14.776
30888SOL     OW94502  10.801  12.159   6.576
30888SOL    HW194503  10.725  12.182   6.523
30888SOL    HW294504  10.791  12.066   6.596
30889SOL     OW94505   1.675  10.367  11.026
30889SOL    HW194506   1.756  10.318  11.034
30889SOL    HW294507   1.610  10.314  11.072
30890SOL     OW94508   7.734   7.315  14.319
30890SOL    HW194509   7.774   7.248  14.264
30890SOL    HW294510   7.640   7.306  14.304
30891SOL     OW94511   5.453   6.808  10.492
30891SOL    HW194512   5.458   6.745  10.563
30891SOL    HW294513   5.397   6.878  10.526
30892SOL     OW94514   7.533   1.928   1.553
30892SOL    HW194515   7.578   1.979   1.620
30892SOL    HW294516   7.460   1.984   1.525
30893SOL     OW94517   7.916   7.005  12.353
30893SOL    HW194518   7.910   7.090  12.311
30893SOL    HW294519   7.894   7.022  12.445
30894SOL     OW94520   6.414   4.695   5.371
30894SOL    HW194521   6.355   4.632   5.329
30894SOL    HW294522   6.489   4.701   5.312
30895SOL     OW94523   4.877   6.912  11.041
30895SOL    HW194524   4.898   6.941  11.129
30895SOL    HW294525   4.956   6.933  10.990
30896SOL     OW94526   4.568  13.959   0.097
30896SOL    HW194527   4.479  13.935   0.124
30896SOL    HW294528   4.583  14.043   0.140
30897SOL     OW94529   3.729  10.121   0.548
30897SOL    HW194530   3.654  10.073   0.515
30897SOL    HW294531   3.805  10.070   0.520
30898SOL     OW94532   5.991   0.751   5.521
30898SOL    HW194533   6.070   0.778   5.473
30898SOL    HW294534   6.023   0.723   5.606
30899SOL     OW94535   7.464   2.716   7.106
30899SOL    HW194536   7.539   2.666   7.138
30899SOL    HW294537   7.494   2.807   7.107
30900SOL     OW94538   6.223   8.907   8.986
30900SOL    HW194539   6.273   8.910   8.904
30900SOL    HW294540   6.231   8.816   9.016
30901SOL     OW94541   5.963   6.552   7.259
30901SOL    HW194542   6.011   6.518   7.184
30901SOL    HW294543   5.992   6.642   7.269
30902SOL     OW94544   7.113   5.318  12.274
30902SOL    HW194545   7.023   5.294  12.297
30902SOL    HW294546   7.155   5.235  12.252
30903SOL     OW94547   8.924   7.543   8.654
30903SOL    HW194548   8.961   7.613   8.708
30903SOL    HW294549   8.889   7.588   8.577
30904SOL     OW94550   8.963  12.535   0.713
30904SOL    HW194551   8.971  12.588   0.791
30904SOL    HW294552   9.027  12.464   0.725
30905SOL     OW94553  10.260   8.278  14.668
30905SOL    HW194554  10.186   8.228  14.634
30905SOL    HW294555  10.246   8.279  14.763
30906SOL     OW94556  10.680   7.000  11.385
30906SOL    HW194557  10.586   6.998  11.401
30906SOL    HW294558  10.695   7.085  11.343
30907SOL     OW94559   2.414  14.579   2.915
30907SOL    HW194560   2.372  14.650   2.866
30907SOL    HW294561   2.507  14.586   2.892
30908SOL     OW94562  12.581  10.219  13.842
30908SOL    HW194563  12.560  10.251  13.754
30908SOL    HW294564  12.669  10.182  13.834
30909SOL     OW94565  14.414   0.945   8.603
30909SOL    HW194566  14.349   0.890   8.647
30909SOL    HW294567  14.498   0.919   8.642
30910SOL     OW94568   0.171   2.148  10.806
30910SOL    HW194569   0.173   2.244  10.807
30910SOL    HW294570   0.239   2.122  10.869
30911SOL     OW94571   3.944   8.241   7.970
30911SOL    HW194572   3.917   8.199   7.888
30911SOL    HW294573   3.862   8.274   8.008
30912SOL     OW94574   4.405   1.858   5.225
30912SOL    HW194575   4.460   1.927   5.188
30912SOL    HW294576   4.462   1.813   5.288
30913SOL     OW94577  10.753   5.034   2.726
30913SOL    HW194578  10.794   5.005   2.645
30913SOL    HW294579  10.792   5.119   2.744
30914SOL     OW94580   5.818   7.792  14.477
30914SOL    HW194581   5.884   7.733  14.440
30914SOL    HW294582   5.800   7.855  14.407
30915SOL     OW94583   5.092   2.850   8.760
30915SOL    HW194584   5.178   2.891   8.752
30915SOL    HW294585   5.031   2.923   8.772
30916SOL     OW94586   9.008   7.308   8.917
30916SOL    HW194587   8.915   7.292   8.902
30916SOL    HW294588   9.031   7.254   8.993
30917SOL     OW94589  14.096  10.715   6.757
30917SOL    HW194590  14.078  10.699   6.665
30917SOL    HW294591  14.185  10.680   6.770
30918SOL     OW94592   5.482   3.436  13.141
30918SOL    HW194593   5.402   3.399  13.178
30918SOL    HW294594   5.463   3.530  13.133
30919SOL     OW94595   3.131   5.263   1.405
30919SOL    HW194596   3.127   5.345   1.356
30919SOL    HW294597   3.161   5.288   1.492
30920SOL     OW94598   5.031   6.049  12.547
30920SOL    HW194599   5.073   6.125  12.588
30920SOL    HW294600   5.071   6.044  12.460
30921SOL     OW94601   4.459   8.763   5.645
30921SOL    HW194602   4.471   8.818   5.723
30921SOL    HW294603   4.370   8.781   5.617
30922SOL     OW94604   8.797   2.334   1.290
30922SOL    HW194605   8.881   2.380   1.282
30922SOL    HW294606   8.736   2.401   1.319
30923SOL     OW94607  12.326   8.281  10.176
30923SOL    HW194608  12.417   8.311  10.165
30923SOL    HW294609  12.278   8.324  10.105
30924SOL     OW94610  11.450   3.035  11.703
30924SOL    HW194611  11.491   3.022  11.789
30924SOL    HW294612  11.408   3.121  11.709
30925SOL     OW94613   3.870   5.157   4.887
30925SOL    HW194614   3.947   5.111   4.923
30925SOL    HW294615   3.864   5.125   4.797
30926SOL     OW94616   3.383   5.986   3.466
30926SOL    HW194617   3.405   5.912   3.523
30926SOL    HW294618   3.423   6.062   3.508
30927SOL     OW94619  14.092   8.809   3.744
30927SOL    HW194620  14.109   8.903   3.747
30927SOL    HW294621  14.104   8.778   3.834
30928SOL     OW94622  10.128   5.321   2.638
30928SOL    HW194623  10.196   5.334   2.705
30928SOL    HW294624  10.132   5.228   2.619
30929SOL     OW94625  14.171   1.395   1.411
30929SOL    HW194626  14.129   1.322   1.457
30929SOL    HW294627  14.209   1.356   1.332
30930SOL     OW94628  14.590   4.663   0.973
30930SOL    HW194629  14.665   4.702   1.018
30930SOL    HW294630  14.616   4.660   0.881
30931SOL     OW94631  11.070   0.562   8.654
30931SOL    HW194632  11.064   0.630   8.587
30931SOL    HW294633  10.979   0.538   8.672
30932SOL     OW94634   5.842   3.131  13.736
30932SOL    HW194635   5.807   3.195  13.673
30932SOL    HW294636   5.793   3.148  13.816
30933SOL     OW94637   4.615   2.621  11.563
30933SOL    HW194638   4.598   2.644  11.654
30933SOL    HW294639   4.667   2.693  11.528
30934SOL     OW94640  10.950  10.151  10.374
30934SOL    HW194641  11.021  10.150  10.310
30934SOL    HW294642  10.993  10.142  10.459
30935SOL     OW94643   0.542  10.617   7.915
30935SOL    HW194644   0.568  10.526   7.906
30935SOL    HW294645   0.484  10.619   7.991
30936SOL     OW94646   9.897   7.021   7.531
30936SOL    HW194647   9.961   7.054   7.594
30936SOL    HW294648   9.815   7.064   7.556
30937SOL     OW94649   1.922   1.239   3.278
30937SOL    HW194650   1.938   1.330   3.303
30937SOL    HW294651   2.009   1.202   3.265
30938SOL     OW94652  10.467   1.924  13.543
30938SOL    HW194653  10.529   1.972  13.597
30938SOL    HW294654  10.512   1.843  13.520
30939SOL     OW94655  12.620  13.682  12.242
30939SOL    HW194656  12.665  13.642  12.167
30939SOL    HW294657  12.690  13.725  12.291
30940SOL     OW94658   7.721   7.898   6.304
30940SOL    HW194659   7.774   7.821   6.281
30940SOL    HW294660   7.785   7.968   6.318
30941SOL     OW94661   0.275  14.149   5.917
30941SOL    HW194662   0.181  14.137   5.928
30941SOL    HW294663   0.310  14.153   6.006
30942SOL     OW94664  10.094   0.022  12.818
30942SOL    HW194665  10.070  14.815  12.862
30942SOL    HW294666  10.185   0.036  12.843
30943SOL     OW94667   9.324  13.680   6.508
30943SOL    HW194668   9.264  13.695   6.435
30943SOL    HW294669   9.267  13.678   6.585
30944SOL     OW94670   1.160  11.412   4.054
30944SOL    HW194671   1.105  11.399   3.977
30944SOL    HW294672   1.135  11.499   4.086
30945SOL     OW94673   5.590  13.357   4.641
30945SOL    HW194674   5.510  13.334   4.594
30945SOL    HW294675   5.661  13.338   4.578
30946SOL     OW94676   9.064   9.845   1.747
30946SOL    HW194677   9.117   9.882   1.677
30946SOL    HW294678   9.037   9.922   1.799
30947SOL     OW94679  14.434  12.411   5.511
30947SOL    HW194680  14.444  12.441   5.420
30947SOL    HW294681  14.350  12.448   5.539
30948SOL     OW94682   1.269   4.074   7.204
30948SOL    HW194683   1.273   4.098   7.296
30948SOL    HW294684   1.288   3.980   7.203
30949SOL     OW94685  10.394  12.143  11.528
30949SOL    HW194686  10.372  12.064  11.577
30949SOL    HW294687  10.360  12.215  11.583
30950SOL     OW94688  10.186   8.167   8.937
30950SOL    HW194689  10.193   8.166   8.842
30950SOL    HW294690  10.132   8.244   8.957
30951SOL     OW94691   2.137  12.059   0.472
30951SOL    HW194692   2.057  12.014   0.500
30951SOL    HW294693   2.180  11.996   0.414
30952SOL     OW94694  13.952   5.828   6.525
30952SOL    HW194695  13.945   5.865   6.437
30952SOL    HW294696  13.928   5.899   6.583
30953SOL     OW94697   4.685   9.467   6.397
30953SOL    HW194698   4.765   9.486   6.445
30953SOL    HW294699   4.651   9.387   6.438
30954SOL     OW94700  13.528  10.364  13.813
30954SOL    HW194701  13.488  10.442  13.852
30954SOL    HW294702  13.533  10.384  13.720
30955SOL     OW94703   2.095  14.588  10.600
30955SOL    HW194704   2.053  14.557  10.680
30955SOL    HW294705   2.127  14.675  10.621
30956SOL     OW94706   7.075  11.204   7.778
30956SOL    HW194707   6.993  11.157   7.795
30956SOL    HW294708   7.136  11.168   7.843
30957SOL     OW94709   1.136   0.638   9.891
30957SOL    HW194710   1.122   0.641   9.986
30957SOL    HW294711   1.105   0.550   9.866
30958SOL     OW94712   9.403   2.023   5.212
30958SOL    HW194713   9.371   1.982   5.292
30958SOL    HW294714   9.381   1.961   5.143
30959SOL     OW94715   2.608   0.590   2.586
30959SOL    HW194716   2.518   0.568   2.561
30959SOL    HW294717   2.624   0.676   2.546
30960SOL     OW94718   1.041   0.243   7.505
30960SOL    HW194719   1.059   0.206   7.419
30960SOL    HW294720   0.954   0.208   7.528
30961SOL     OW94721   7.021  14.611   2.688
30961SOL    HW194722   6.948  14.550   2.690
30961SOL    HW294723   7.006  14.670   2.762
30962SOL     OW94724   6.341   0.490   9.355
30962SOL    HW194725   6.287   0.569   9.355
30962SOL    HW294726   6.299   0.432   9.418
30963SOL     OW94727  10.727   1.224   0.577
30963SOL    HW194728  10.713   1.211   0.483
30963SOL    HW294729  10.821   1.238   0.586
30964SOL     OW94730  14.725  11.642   4.211
30964SOL    HW194731  14.807  11.616   4.170
30964SOL    HW294732  14.659  11.630   4.143
30965SOL     OW94733   7.693   6.305   0.300
30965SOL    HW194734   7.631   6.236   0.323
30965SOL    HW294735   7.681   6.371   0.368
30966SOL     OW94736   7.146   6.036   7.042
30966SOL    HW194737   7.089   6.110   7.021
30966SOL    HW294738   7.222   6.047   6.986
30967SOL     OW94739  12.428   9.427   0.240
30967SOL    HW194740  12.456   9.463   0.324
30967SOL    HW294741  12.447   9.496   0.176
30968SOL     OW94742   5.448   9.132  11.577
30968SOL    HW194743   5.364   9.173  11.555
30968SOL    HW294744   5.435   9.039  11.557
30969SOL     OW94745  13.405  13.244   5.575
30969SOL    HW194746  13.352  13.303   5.629
30969SOL    HW294747  13.341  13.182   5.539
30970SOL     OW94748   7.165   4.868  10.208
30970SOL    HW194749   7.110   4.812  10.262
30970SOL    HW294750   7.225   4.910  10.270
30971SOL     OW94751  10.486  11.021   1.356
30971SOL    HW194752  10.552  11.082   1.324
30971SOL    HW294753  10.497  10.943   1.303
30972SOL     OW94754  13.692   4.560   9.608
30972SOL    HW194755  13.623   4.515   9.658
30972SOL    HW294756  13.667   4.548   9.516
30973SOL     OW94757   7.464   2.825   9.953
30973SOL    HW194758   7.418   2.751   9.914
30973SOL    HW294759   7.420   2.840  10.037
30974SOL     OW94760   0.342   3.876   9.167
30974SOL    HW194761   0.391   3.794   9.158
30974SOL    HW294762   0.407   3.945   9.151
30975SOL     OW94763   2.367  11.062  14.315
30975SOL    HW194764   2.332  10.979  14.346
30975SOL    HW294765   2.407  11.101  14.393
30976SOL     OW94766   3.654   8.459  10.643
30976SOL    HW194767   3.689   8.508  10.568
30976SOL    HW294768   3.584   8.406  10.606
30977SOL     OW94769   9.115   7.957   7.424
30977SOL    HW194770   9.080   7.929   7.340
30977SOL    HW294771   9.146   8.046   7.409
30978SOL     OW94772  12.646   1.605  13.798
30978SOL    HW194773  12.650   1.525  13.851
30978SOL    HW294774  12.580   1.586  13.732
30979SOL     OW94775   4.786   5.233   6.565
30979SOL    HW194776   4.707   5.216   6.617
30979SOL    HW294777   4.754   5.248   6.476
30980SOL     OW94778   6.451  14.749   8.147
30980SOL    HW194779   6.485  14.664   8.177
30980SOL    HW294780   6.502  14.813   8.195
30981SOL     OW94781   7.890  10.364   2.927
30981SOL    HW194782   7.897  10.269   2.924
30981SOL    HW294783   7.800  10.381   2.954
30982SOL     OW94784   1.545   5.039   6.675
30982SOL    HW194785   1.521   4.947   6.682
30982SOL    HW294786   1.633   5.043   6.712
30983SOL     OW94787   0.648   8.692   3.337
30983SOL    HW194788   0.662   8.716   3.245
30983SOL    HW294789   0.579   8.752   3.368
30984SOL     OW94790  11.825  13.637   6.415
30984SOL    HW194791  11.906  13.681   6.391
30984SOL    HW294792  11.758  13.706   6.415
30985SOL     OW94793   4.845  11.309   6.492
30985SOL    HW194794   4.865  11.330   6.400
30985SOL    HW294795   4.931  11.291   6.531
30986SOL     OW94796  12.834  10.271   9.660
30986SOL    HW194797  12.920  10.298   9.691
30986SOL    HW294798  12.780  10.268   9.739
30987SOL     OW94799   5.057  13.410  12.940
30987SOL    HW194800   4.994  13.367  12.998
30987SOL    HW294801   5.143  13.383  12.973
30988SOL     OW94802   3.305  12.097   9.816
30988SOL    HW194803   3.250  12.046   9.757
30988SOL    HW294804   3.394  12.069   9.798
30989SOL     OW94805   9.642   9.975   4.533
30989SOL    HW194806   9.620   9.944   4.621
30989SOL    HW294807   9.631  10.070   4.537
30990SOL     OW94808   1.367   8.801  12.866
30990SOL    HW194809   1.457   8.798  12.833
30990SOL    HW294810   1.316   8.749  12.803
30991SOL     OW94811   0.222  12.867   5.707
30991SOL    HW194812   0.261  12.789   5.745
30991SOL    HW294813   0.134  12.871   5.745
30992SOL     OW94814   7.199   6.726  11.317
30992SOL    HW194815   7.144   6.771  11.381
30992SOL    HW294816   7.159   6.744  11.232
30993SOL     OW94817   8.188   4.011   3.795
30993SOL    HW194818   8.140   3.935   3.828
30993SOL    HW294819   8.223   4.053   3.874
30994SOL     OW94820   2.212   1.199  13.611
30994SOL    HW194821   2.146   1.233  13.671
30994SOL    HW294822   2.200   1.104  13.613
30995SOL     OW94823   7.221  11.584   9.832
30995SOL    HW194824   7.290  11.635   9.874
30995SOL    HW294825   7.140  11.615   9.873
30996SOL     OW94826  10.307  10.659  13.525
30996SOL    HW194827  10.335  10.677  13.436
30996SOL    HW294828  10.216  10.687  13.529
30997SOL     OW94829  14.278   6.985   1.499
30997SOL    HW194830  14.373   6.975   1.497
30997SOL    HW294831  14.259   7.055   1.437
30998SOL     OW94832   2.864  14.290   0.351
30998SOL    HW194833   2.917  14.257   0.424
30998SOL    HW294834   2.871  14.385   0.356
30999SOL     OW94835   8.791   8.687   6.626
30999SOL    HW194836   8.826   8.618   6.570
30999SOL    HW294837   8.710   8.713   6.583
31000SOL     OW94838  10.168  12.585  13.192
31000SOL    HW194839  10.103  12.567  13.260
31000SOL    HW294840  10.136  12.663  13.148
31001SOL     OW94841   6.575   9.873   0.322
31001SOL    HW194842   6.578   9.801   0.384
31001SOL    HW294843   6.567   9.952   0.376
31002SOL     OW94844   5.087   5.977   4.506
31002SOL    HW194845   5.158   5.986   4.571
31002SOL    HW294846   5.017   5.932   4.553
31003SOL     OW94847   9.559   7.759   3.810
31003SOL    HW194848   9.489   7.705   3.772
31003SOL    HW294849   9.514   7.833   3.849
31004SOL     OW94850   7.731  13.738  14.149
31004SOL    HW194851   7.647  13.746  14.193
31004SOL    HW294852   7.770  13.826  14.155
31005SOL     OW94853   0.974   9.927  13.918
31005SOL    HW194854   1.003  10.018  13.917
31005SOL    HW294855   0.879   9.931  13.913
31006SOL     OW94856   6.005  14.336  14.104
31006SOL    HW194857   6.098  14.316  14.098
31006SOL    HW294858   5.971  14.319  14.016
31007SOL     OW94859   1.545   3.586  10.449
31007SOL    HW194860   1.492   3.506  10.443
31007SOL    HW294861   1.626   3.564  10.402
31008SOL     OW94862  11.736   7.152   7.433
31008SOL    HW194863  11.741   7.139   7.528
31008SOL    HW294864  11.705   7.242   7.423
31009SOL     OW94865  10.057   2.566   7.038
31009SOL    HW194866   9.968   2.556   7.006
31009SOL    HW294867  10.093   2.638   6.987
31010SOL     OW94868   4.962  13.496  13.788
31010SOL    HW194869   4.977  13.586  13.758
31010SOL    HW294870   4.900  13.460  13.725
31011SOL     OW94871   2.008   3.390   6.022
31011SOL    HW194872   2.032   3.404   6.114
31011SOL    HW294873   1.914   3.406   6.020
31012SOL     OW94874   4.847  12.655   5.648
31012SOL    HW194875   4.771  12.704   5.619
31012SOL    HW294876   4.822  12.563   5.639
31013SOL     OW94877  14.262   7.995   2.539
31013SOL    HW194878  14.187   8.029   2.491
31013SOL    HW294879  14.313   8.072   2.563
31014SOL     OW94880   7.425   9.880   6.342
31014SOL    HW194881   7.425   9.806   6.282
31014SOL    HW294882   7.494   9.860   6.406
31015SOL     OW94883   5.517   0.449   8.709
31015SOL    HW194884   5.584   0.470   8.775
31015SOL    HW294885   5.435   0.482   8.747
31016SOL     OW94886  10.464  11.532  13.779
31016SOL    HW194887  10.369  11.527  13.765
31016SOL    HW294888  10.502  11.512  13.694
31017SOL     OW94889   6.489   2.417  12.780
31017SOL    HW194890   6.582   2.415  12.759
31017SOL    HW294891   6.486   2.430  12.875
31018SOL     OW94892   7.185   3.999   0.473
31018SOL    HW194893   7.118   3.941   0.437
31018SOL    HW294894   7.229   4.036   0.397
31019SOL     OW94895   8.371  12.714   1.093
31019SOL    HW194896   8.398  12.624   1.112
31019SOL    HW294897   8.317  12.707   1.015
31020SOL     OW94898   4.720   4.392   6.470
31020SOL    HW194899   4.653   4.441   6.423
31020SOL    HW294900   4.803   4.433   6.446
31021SOL     OW94901   5.379   3.593  13.751
31021SOL    HW194902   5.347   3.647  13.824
31021SOL    HW294903   5.431   3.653  13.698
31022SOL     OW94904   3.327   2.580  10.263
31022SOL    HW194905   3.260   2.602  10.197
31022SOL    HW294906   3.296   2.499  10.302
31023SOL     OW94907  10.253   5.979   1.868
31023SOL    HW194908  10.159   5.961   1.870
31023SOL    HW294909  10.293   5.898   1.838
31024SOL     OW94910  10.374   5.045  12.386
31024SOL    HW194911  10.423   5.044  12.304
31024SOL    HW294912  10.434   5.083  12.450
31025SOL     OW94913  13.022   3.802   9.013
31025SOL    HW194914  12.938   3.846   9.025
31025SOL    HW294915  13.025   3.737   9.083
31026SOL     OW94916  13.715   6.053   3.566
31026SOL    HW194917  13.802   6.038   3.529
31026SOL    HW294918  13.732   6.084   3.655
31027SOL     OW94919   6.430   8.866   7.556
31027SOL    HW194920   6.453   8.830   7.470
31027SOL    HW294921   6.334   8.858   7.559
31028SOL     OW94922   6.723   5.379  10.783
31028SOL    HW194923   6.720   5.394  10.878
31028SOL    HW294924   6.660   5.440  10.747
31029SOL     OW94925   9.441   2.584   8.006
31029SOL    HW194926   9.425   2.509   8.064
31029SOL    HW294927   9.392   2.656   8.045
31030SOL     OW94928   7.404   2.704   0.928
31030SOL    HW194929   7.403   2.754   1.010
31030SOL    HW294930   7.491   2.663   0.926
31031SOL     OW94931   9.300   3.877   7.529
31031SOL    HW194932   9.301   3.971   7.512
31031SOL    HW294933   9.325   3.837   7.446
31032SOL     OW94934  10.366  11.115  11.367
31032SOL    HW194935  10.394  11.026  11.347
31032SOL    HW294936  10.272  11.116  11.349
31033SOL     OW94937   9.616  14.479   9.452
31033SOL    HW194938   9.579  14.436   9.376
31033SOL    HW294939   9.700  14.435   9.466
31034SOL     OW94940  12.839   8.131   5.373
31034SOL    HW194941  12.814   8.068   5.306
31034SOL    HW294942  12.777   8.116   5.444
31035SOL     OW94943  11.429  13.104   5.919
31035SOL    HW194944  11.424  13.009   5.928
31035SOL    HW294945  11.339  13.134   5.924
31036SOL     OW94946  10.134  10.599   7.436
31036SOL    HW194947  10.048  10.631   7.408
31036SOL    HW294948  10.191  10.612   7.360
31037SOL     OW94949   3.835   3.509   7.875
31037SOL    HW194950   3.822   3.423   7.836
31037SOL    HW294951   3.906   3.496   7.938
31038SOL     OW94952   8.696   8.338  12.221
31038SOL    HW194953   8.739   8.316  12.139
31038SOL    HW294954   8.766   8.337  12.286
31039SOL     OW94955   2.452   8.965  12.211
31039SOL    HW194956   2.497   8.969  12.295
31039SOL    HW294957   2.425   9.055  12.194
31040SOL     OW94958   8.961  10.941   8.447
31040SOL    HW194959   9.018  10.886   8.394
31040SOL    HW294960   8.885  10.958   8.391
31041SOL     OW94961   1.979   6.145   9.912
31041SOL    HW194962   2.070   6.160   9.886
31041SOL    HW294963   1.977   6.055   9.945
31042SOL     OW94964   1.699  12.059   3.036
31042SOL    HW194965   1.665  12.083   3.122
31042SOL    HW294966   1.650  12.113   2.974
31043SOL     OW94967   1.919   9.539  14.035
31043SOL    HW194968   1.981   9.565  13.967
31043SOL    HW294969   1.970   9.483  14.094
31044SOL     OW94970  11.665   6.122   4.052
31044SOL    HW194971  11.691   6.105   3.961
31044SOL    HW294972  11.614   6.202   4.048
31045SOL     OW94973   0.247   0.771  12.796
31045SOL    HW194974   0.310   0.711  12.835
31045SOL    HW294975   0.232   0.837  12.863
31046SOL     OW94976   8.663   4.120   6.556
31046SOL    HW194977   8.606   4.044   6.571
31046SOL    HW294978   8.606   4.185   6.515
31047SOL     OW94979  14.145  11.785   2.487
31047SOL    HW194980  14.138  11.879   2.473
31047SOL    HW294981  14.230  11.773   2.529
31048SOL     OW94982  14.131   5.681  13.454
31048SOL    HW194983  14.139   5.775  13.441
31048SOL    HW294984  14.196   5.643  13.395
31049SOL     OW94985   1.549   2.775   1.131
31049SOL    HW194986   1.568   2.719   1.207
31049SOL    HW294987   1.566   2.719   1.055
31050SOL     OW94988  12.901   3.500   8.468
31050SOL    HW194989  12.935   3.582   8.431
31050SOL    HW294990  12.810   3.497   8.440
31051SOL     OW94991   3.993   9.080   6.729
31051SOL    HW194992   3.920   9.044   6.779
31051SOL    HW294993   4.028   9.149   6.784
31052SOL     OW94994   4.431   5.467  13.158
31052SOL    HW194995   4.464   5.551  13.127
31052SOL    HW294996   4.474   5.454  13.242
31053SOL     OW94997   6.412   5.204   0.632
31053SOL    HW194998   6.501   5.235   0.616
31053SOL    HW294999   6.406   5.197   0.727
31054SOL     OW95000   1.362  12.757  10.233
31054SOL    HW195001   1.421  12.825  10.201
31054SOL    HW295002   1.316  12.726  10.155
31055SOL     OW95003   6.326   1.961  12.617
31055SOL    HW195004   6.342   1.894  12.551
31055SOL    HW295005   6.410   2.006  12.626
31056SOL     OW95006   9.248   7.205  12.296
31056SOL    HW195007   9.329   7.242  12.258
31056SOL    HW295008   9.182   7.272  12.279
31057SOL     OW95009  10.355  13.573  11.107
31057SOL    HW195010  10.320  13.589  11.019
31057SOL    HW295011  10.340  13.479  11.122
31058SOL     OW95012  13.809   9.997   2.979
31058SOL    HW195013  13.757  10.053   2.921
31058SOL    HW295014  13.803   9.910   2.940
31059SOL     OW95015   1.096   8.403   8.234
31059SOL    HW195016   1.175   8.402   8.288
31059SOL    HW295017   1.122   8.359   8.153
31060SOL     OW95018   9.158   1.235  14.852
31060SOL    HW195019   9.119   1.307   0.027
31060SOL    HW295020   9.204   1.183   0.043
31061SOL     OW95021  12.750   0.264   3.288
31061SOL    HW195022  12.741   0.340   3.346
31061SOL    HW295023  12.781   0.301   3.206
31062SOL     OW95024  10.643   1.083   2.774
31062SOL    HW195025  10.690   1.122   2.700
31062SOL    HW295026  10.708   1.028   2.817
31063SOL     OW95027  12.224  12.464  11.212
31063SOL    HW195028  12.201  12.426  11.297
31063SOL    HW295029  12.146  12.512  11.185
31064SOL     OW95030   2.087   5.242  10.920
31064SOL    HW195031   2.049   5.154  10.921
31064SOL    HW295032   2.154   5.239  10.988
31065SOL     OW95033   2.005  11.719  12.554
31065SOL    HW195034   2.071  11.687  12.615
31065SOL    HW295035   1.947  11.774  12.607
31066SOL     OW95036   5.411   0.596   2.982
31066SOL    HW195037   5.436   0.676   2.936
31066SOL    HW295038   5.378   0.538   2.914
31067SOL     OW95039   8.364   9.084   2.495
31067SOL    HW195040   8.419   9.146   2.544
31067SOL    HW295041   8.368   9.116   2.405
31068SOL     OW95042  10.613   0.992   1.630
31068SOL    HW195043  10.526   1.007   1.593
31068SOL    HW295044  10.629   0.899   1.619
31069SOL     OW95045   7.395   2.065  12.228
31069SOL    HW195046   7.337   2.054  12.303
31069SOL    HW295047   7.479   2.091  12.267
31070SOL     OW95048   1.230  10.861   9.168
31070SOL    HW195049   1.257  10.924   9.101
31070SOL    HW295050   1.137  10.846   9.151
31071SOL     OW95051  10.357  14.126   7.247
31071SOL    HW195052  10.289  14.085   7.193
31071SOL    HW295053  10.334  14.219   7.247
31072SOL     OW95054  14.465  10.257   0.411
31072SOL    HW195055  14.440  10.316   0.340
31072SOL    HW295056  14.382  10.231   0.451
31073SOL     OW95057   6.070   3.434   0.453
31073SOL    HW195058   6.021   3.507   0.416
31073SOL    HW295059   6.160   3.467   0.462
31074SOL     OW95060  14.092   5.920   6.933
31074SOL    HW195061  14.058   6.004   6.961
31074SOL    HW295062  14.140   5.887   7.010
31075SOL     OW95063  14.738   4.751  10.889
31075SOL    HW195064  14.820   4.800  10.893
31075SOL    HW295065  14.764   4.665  10.855
31076SOL     OW95066  13.925  12.480   7.426
31076SOL    HW195067  13.930  12.414   7.358
31076SOL    HW295068  13.833  12.506   7.430
31077SOL     OW95069  13.668   7.361  10.442
31077SOL    HW195070  13.629   7.321  10.364
31077SOL    HW295071  13.649   7.455  10.432
31078SOL     OW95072   2.292   9.159   3.117
31078SOL    HW195073   2.359   9.185   3.179
31078SOL    HW295074   2.313   9.068   3.096
31079SOL     OW95075   8.049  11.731   1.713
31079SOL    HW195076   7.990  11.805   1.727
31079SOL    HW295077   8.004  11.657   1.754
31080SOL     OW95078   3.459   8.967   9.310
31080SOL    HW195079   3.505   9.051   9.310
31080SOL    HW295080   3.527   8.902   9.326
31081SOL     OW95081   2.637   9.566   5.066
31081SOL    HW195082   2.603   9.562   4.977
31081SOL    HW295083   2.561   9.546   5.121
31082SOL     OW95084   3.230  12.516  11.035
31082SOL    HW195085   3.200  12.520  11.126
31082SOL    HW295086   3.176  12.448  10.995
31083SOL     OW95087  12.229   1.279   0.667
31083SOL    HW195088  12.257   1.370   0.655
31083SOL    HW295089  12.168   1.263   0.595
31084SOL     OW95090   4.937   9.235   6.265
31084SOL    HW195091   4.875   9.265   6.331
31084SOL    HW295092   4.960   9.313   6.215
31085SOL     OW95093   3.954  10.117   5.077
31085SOL    HW195094   3.990  10.174   5.010
31085SOL    HW295095   4.029  10.088   5.128
31086SOL     OW95096   5.905  11.325   1.682
31086SOL    HW195097   5.892  11.230   1.679
31086SOL    HW295098   5.997  11.337   1.658
31087SOL     OW95099   7.163   7.583   1.218
31087SOL    HW195100   7.072   7.607   1.238
31087SOL    HW295101   7.196   7.658   1.168
31088SOL     OW95102   1.733  14.200  11.533
31088SOL    HW195103   1.798  14.214  11.464
31088SOL    HW295104   1.684  14.282  11.538
31089SOL     OW95105  12.428   3.431   7.059
31089SOL    HW195106  12.485   3.504   7.081
31089SOL    HW295107  12.481   3.376   7.000
31090SOL     OW95108   9.962  14.503  10.982
31090SOL    HW195109   9.951  14.597  10.998
31090SOL    HW295110  10.052  14.484  11.007
31091SOL     OW95111   0.372  12.093   5.911
31091SOL    HW195112   0.432  12.167   5.901
31091SOL    HW295113   0.424  12.026   5.956
31092SOL     OW95114   0.041   1.173   5.309
31092SOL    HW195115   0.036   1.250   5.252
31092SOL    HW295116   0.132   1.144   5.303
31093SOL     OW95117  11.785   3.284  14.445
31093SOL    HW195118  11.808   3.372  14.413
31093SOL    HW295119  11.691   3.291  14.466
31094SOL     OW95120   1.293  12.595  11.334
31094SOL    HW195121   1.279  12.660  11.402
31094SOL    HW295122   1.204  12.571  11.305
31095SOL     OW95123   0.213   4.320   0.750
31095SOL    HW195124   0.306   4.341   0.740
31095SOL    HW295125   0.184   4.298   0.662
31096SOL     OW95126   7.852   6.390   8.190
31096SOL    HW195127   7.914   6.463   8.199
31096SOL    HW295128   7.856   6.365   8.098
31097SOL     OW95129   8.195  13.219   2.963
31097SOL    HW195130   8.172  13.303   2.923
31097SOL    HW295131   8.195  13.157   2.889
31098SOL     OW95132   1.611   2.899   1.892
31098SOL    HW195133   1.626   2.881   1.800
31098SOL    HW295134   1.516   2.904   1.901
31099SOL     OW95135   5.454  13.646   3.889
31099SOL    HW195136   5.502  13.576   3.844
31099SOL    HW295137   5.469  13.629   3.982
31100SOL     OW95138   9.539   0.326   8.944
31100SOL    HW195139   9.610   0.384   8.971
31100SOL    HW295140   9.498   0.298   9.026
31101SOL     OW95141   7.091   6.274   2.827
31101SOL    HW195142   7.073   6.213   2.755
31101SOL    HW295143   7.063   6.359   2.794
31102SOL     OW95144   2.878   0.794   9.688
31102SOL    HW195145   2.901   0.710   9.649
31102SOL    HW295146   2.863   0.775   9.780
31103SOL     OW95147   6.668   3.882   7.684
31103SOL    HW195148   6.606   3.809   7.684
31103SOL    HW295149   6.733   3.859   7.618
31104SOL     OW95150  10.665   7.973   3.693
31104SOL    HW195151  10.625   8.052   3.730
31104SOL    HW295152  10.626   7.901   3.742
31105SOL     OW95153   3.170  12.719   1.493
31105SOL    HW195154   3.168  12.722   1.397
31105SOL    HW295155   3.126  12.638   1.516
31106SOL     OW95156   9.944  12.090   2.052
31106SOL    HW195157   9.861  12.062   2.092
31106SOL    HW295158   9.946  12.044   1.968
31107SOL     OW95159   2.135  13.110   4.811
31107SOL    HW195160   2.054  13.061   4.796
31107SOL    HW295161   2.180  13.061   4.880
31108SOL     OW95162  11.667  14.123  11.982
31108SOL    HW195163  11.691  14.033  11.960
31108SOL    HW295164  11.645  14.164  11.898
31109SOL     OW95165   5.329   0.070  13.486
31109SOL    HW195166   5.349   0.158  13.518
31109SOL    HW295167   5.414   0.032  13.465
31110SOL     OW95168  11.908   9.960   7.573
31110SOL    HW195169  11.947   9.981   7.488
31110SOL    HW295170  11.914  10.042   7.622
31111SOL     OW95171   8.945   2.058  12.364
31111SOL    HW195172   8.895   2.028  12.288
31111SOL    HW295173   8.942   2.153  12.359
31112SOL     OW95174   8.463   2.502   2.133
31112SOL    HW195175   8.390   2.560   2.111
31112SOL    HW295176   8.498   2.536   2.215
31113SOL     OW95177   5.851   9.986   1.252
31113SOL    HW195178   5.779   9.923   1.252
31113SOL    HW295179   5.898   9.968   1.333
31114SOL     OW95180  11.842   8.593   3.057
31114SOL    HW195181  11.910   8.635   3.004
31114SOL    HW295182  11.841   8.502   3.026
31115SOL     OW95183  13.555   0.871  13.995
31115SOL    HW195184  13.485   0.927  14.029
31115SOL    HW295185  13.534   0.860  13.903
31116SOL     OW95186   7.681  11.831   9.141
31116SOL    HW195187   7.711  11.890   9.211
31116SOL    HW295188   7.732  11.751   9.153
31117SOL     OW95189   2.779   1.242   8.420
31117SOL    HW195190   2.693   1.233   8.462
31117SOL    HW295191   2.779   1.330   8.383
31118SOL     OW95192   0.783   0.017  14.735
31118SOL    HW195193   0.761  14.800  14.716
31118SOL    HW295194   0.709   0.067  14.700
31119SOL     OW95195   9.994   9.311  14.222
31119SOL    HW195196   9.978   9.368  14.297
31119SOL    HW295197  10.007   9.224  14.260
31120SOL     OW95198   3.173  12.178   7.714
31120SOL    HW195199   3.107  12.199   7.780
31120SOL    HW295200   3.210  12.095   7.742
31121SOL     OW95201   0.588   7.516  11.937
31121SOL    HW195202   0.603   7.427  11.905
31121SOL    HW295203   0.493   7.520  11.951
31122SOL     OW95204   5.687  10.750  10.220
31122SOL    HW195205   5.663  10.728  10.130
31122SOL    HW295206   5.781  10.769  10.215
31123SOL     OW95207  12.337   3.145   0.138
31123SOL    HW195208  12.292   3.205   0.078
31123SOL    HW295209  12.279   3.068   0.142
31124SOL     OW95210  12.601   9.429   0.480
31124SOL    HW195211  12.648   9.349   0.500
31124SOL    HW295212  12.641   9.496   0.535
31125SOL     OW95213  12.073   5.380   3.742
31125SOL    HW195214  12.116   5.331   3.812
31125SOL    HW295215  12.038   5.312   3.684
31126SOL     OW95216  11.405   7.335   4.079
31126SOL    HW195217  11.397   7.246   4.046
31126SOL    HW295218  11.315   7.362   4.100
31127SOL     OW95219   9.569  14.539   8.131
31127SOL    HW195220   9.600  14.627   8.149
31127SOL    HW295221   9.648  14.487   8.118
31128SOL     OW95222  12.814   4.009  10.290
31128SOL    HW195223  12.813   3.980  10.381
31128SOL    HW295224  12.842   3.932  10.241
31129SOL     OW95225  13.800  13.506   2.398
31129SOL    HW195226  13.758  13.420   2.389
31129SOL    HW295227  13.737  13.568   2.361
31130SOL     OW95228   1.174   5.418  13.063
31130SOL    HW195229   1.260   5.456  13.082
31130SOL    HW295230   1.192   5.330  13.032
31131SOL     OW95231   4.190   0.572  12.213
31131SOL    HW195232   4.252   0.520  12.264
31131SOL    HW295233   4.243   0.642  12.175
31132SOL     OW95234  13.213   2.157   2.408
31132SOL    HW195235  13.269   2.090   2.447
31132SOL    HW295236  13.274   2.220   2.369
31133SOL     OW95237  12.002  13.678   1.354
31133SOL    HW195238  12.079  13.725   1.323
31133SOL    HW295239  12.024  13.586   1.341
31134SOL     OW95240  10.921   6.704  11.840
31134SOL    HW195241  10.866   6.676  11.767
31134SOL    HW295242  10.877   6.782  11.875
31135SOL     OW95243   5.649  13.733  12.788
31135SOL    HW195244   5.678  13.742  12.697
31135SOL    HW295245   5.717  13.680  12.829
31136SOL     OW95246   4.055  12.571  13.451
31136SOL    HW195247   4.074  12.488  13.407
31136SOL    HW295248   4.125  12.630  13.421
31137SOL     OW95249   8.803  13.868   4.790
31137SOL    HW195250   8.713  13.895   4.770
31137SOL    HW295251   8.799  13.836   4.880
31138SOL     OW95252  12.076  10.242   8.426
31138SOL    HW195253  12.080  10.208   8.337
31138SOL    HW295254  12.076  10.337   8.416
31139SOL     OW95255   9.141   7.649   5.198
31139SOL    HW195256   9.236   7.639   5.206
31139SOL    HW295257   9.123   7.734   5.239
31140SOL     OW95258   6.483   8.111   2.405
31140SOL    HW195259   6.403   8.070   2.372
31140SOL    HW295260   6.546   8.039   2.411
31141SOL     OW95261   1.331   7.361   9.171
31141SOL    HW195262   1.247   7.405   9.177
31141SOL    HW295263   1.326   7.291   9.237
31142SOL     OW95264   3.911  10.706   6.111
31142SOL    HW195265   3.837  10.765   6.096
31142SOL    HW295266   3.946  10.689   6.024
31143SOL     OW95267   8.296   7.601   8.286
31143SOL    HW195268   8.202   7.597   8.301
31143SOL    HW295269   8.305   7.612   8.192
31144SOL     OW95270   2.654   5.894  12.692
31144SOL    HW195271   2.719   5.847  12.639
31144SOL    HW295272   2.588   5.922  12.630
31145SOL     OW95273   8.185   9.264  10.527
31145SOL    HW195274   8.158   9.181  10.486
31145SOL    HW295275   8.237   9.237  10.603
31146SOL     OW95276   7.441   9.197  13.303
31146SOL    HW195277   7.386   9.249  13.362
31146SOL    HW295278   7.416   9.226  13.215
31147SOL     OW95279   2.369   4.897  13.982
31147SOL    HW195280   2.340   4.894  14.073
31147SOL    HW295281   2.307   4.842  13.935
31148SOL     OW95282   9.783   6.768  14.584
31148SOL    HW195283   9.742   6.762  14.498
31148SOL    HW295284   9.828   6.853  14.583
31149SOL     OW95285   7.786   0.423   0.225
31149SOL    HW195286   7.752   0.336   0.245
31149SOL    HW295287   7.881   0.416   0.239
31150SOL     OW95288   6.313  11.488   1.894
31150SOL    HW195289   6.228  11.479   1.850
31150SOL    HW295290   6.310  11.423   1.965
31151SOL     OW95291  14.239   7.681   5.588
31151SOL    HW195292  14.229   7.626   5.511
31151SOL    HW295293  14.309   7.743   5.565
31152SOL     OW95294   9.732   2.148   3.496
31152SOL    HW195295   9.740   2.076   3.433
31152SOL    HW295296   9.749   2.107   3.581
31153SOL     OW95297  10.675   1.747   3.349
31153SOL    HW195298  10.714   1.661   3.362
31153SOL    HW295299  10.744   1.808   3.374
31154SOL     OW95300  13.253   9.772   7.821
31154SOL    HW195301  13.267   9.823   7.741
31154SOL    HW295302  13.165   9.737   7.812
31155SOL     OW95303   2.995   1.450   4.162
31155SOL    HW195304   3.058   1.488   4.101
31155SOL    HW295305   3.018   1.489   4.247
31156SOL     OW95306  10.611  12.661   4.837
31156SOL    HW195307  10.656  12.722   4.778
31156SOL    HW295308  10.571  12.597   4.779
31157SOL     OW95309   3.038  10.186  11.116
31157SOL    HW195310   3.057  10.279  11.122
31157SOL    HW295311   2.979  10.179  11.040
31158SOL     OW95312   1.605  13.749   5.439
31158SOL    HW195313   1.566  13.675   5.486
31158SOL    HW295314   1.663  13.790   5.504
31159SOL     OW95315  12.328   7.804   8.296
31159SOL    HW195316  12.267   7.846   8.357
31159SOL    HW295317  12.368   7.733   8.346
31160SOL     OW95318  12.494   9.737   2.275
31160SOL    HW195319  12.405   9.772   2.272
31160SOL    HW295320  12.534   9.781   2.350
31161SOL     OW95321  13.735   5.945  11.664
31161SOL    HW195322  13.719   5.870  11.606
31161SOL    HW295323  13.802   5.997  11.618
31162SOL     OW95324   1.985   0.842  12.128
31162SOL    HW195325   1.908   0.869  12.078
31162SOL    HW295326   1.960   0.857  12.219
31163SOL     OW95327   7.000   0.914   7.717
31163SOL    HW195328   7.046   0.846   7.767
31163SOL    HW295329   7.031   0.903   7.628
31164SOL     OW95330  13.000  12.388   4.149
31164SOL    HW195331  13.009  12.481   4.126
31164SOL    HW295332  12.978  12.389   4.242
31165SOL     OW95333  13.690   2.265  10.450
31165SOL    HW195334  13.681   2.299  10.361
31165SOL    HW295335  13.606   2.221  10.468
31166SOL     OW95336   2.988   3.488   2.942
31166SOL    HW195337   3.018   3.434   3.015
31166SOL    HW295338   3.039   3.457   2.867
31167SOL     OW95339   4.587   1.889  12.224
31167SOL    HW195340   4.677   1.923  12.221
31167SOL    HW295341   4.595   1.804  12.267
31168SOL     OW95342   8.432   9.360   0.496
31168SOL    HW195343   8.439   9.355   0.591
31168SOL    HW295344   8.344   9.327   0.477
31169SOL     OW95345  14.065  14.538   0.450
31169SOL    HW195346  14.075  14.508   0.541
31169SOL    HW295347  13.978  14.578   0.448
31170SOL     OW95348   9.889   5.465  12.175
31170SOL    HW195349   9.795   5.449  12.166
31170SOL    HW295350   9.902   5.553  12.137
31171SOL     OW95351   8.210  11.145  11.644
31171SOL    HW195352   8.295  11.153  11.686
31171SOL    HW295353   8.228  11.155  11.550
31172SOL     OW95354   6.417   7.867   9.368
31172SOL    HW195355   6.373   7.884   9.451
31172SOL    HW295356   6.368   7.794   9.329
31173SOL     OW95357   8.426  10.052   2.301
31173SOL    HW195358   8.368  10.077   2.373
31173SOL    HW295359   8.396  10.104   2.227
31174SOL     OW95360  14.500   2.001   2.906
31174SOL    HW195361  14.585   2.036   2.878
31174SOL    HW295362  14.451   1.991   2.824
31175SOL     OW95363  12.413   6.313  13.990
31175SOL    HW195364  12.379   6.274  13.909
31175SOL    HW295365  12.395   6.248  14.058
31176SOL     OW95366  10.614  13.433   2.216
31176SOL    HW195367  10.658  13.370   2.159
31176SOL    HW295368  10.525  13.398   2.226
31177SOL     OW95369  12.844  13.748  14.076
31177SOL    HW195370  12.783  13.788  14.013
31177SOL    HW295371  12.821  13.787  14.160
31178SOL     OW95372   9.571   7.339  11.189
31178SOL    HW195373   9.588   7.255  11.230
31178SOL    HW295374   9.656   7.383  11.186
31179SOL     OW95375  14.429   2.629  12.360
31179SOL    HW195376  14.348   2.618  12.410
31179SOL    HW295377  14.468   2.542  12.358
31180SOL     OW95378   0.074  10.569   4.752
31180SOL    HW195379   0.083  10.475   4.735
31180SOL    HW295380   0.107  10.611   4.672
31181SOL     OW95381  10.768   1.459   4.362
31181SOL    HW195382  10.792   1.511   4.286
31181SOL    HW295383  10.678   1.432   4.346
31182SOL     OW95384   5.412   6.328   9.267
31182SOL    HW195385   5.375   6.244   9.240
31182SOL    HW295386   5.389   6.337   9.359
31183SOL     OW95387   1.432   9.083   6.701
31183SOL    HW195388   1.460   9.022   6.633
31183SOL    HW295389   1.347   9.117   6.671
31184SOL     OW95390  13.453   2.193   8.393
31184SOL    HW195391  13.540   2.187   8.433
31184SOL    HW295392  13.429   2.102   8.374
31185SOL     OW95393   3.808   5.933   1.850
31185SOL    HW195394   3.724   5.914   1.808
31185SOL    HW295395   3.848   5.846   1.864
31186SOL     OW95396   5.851   1.965  10.356
31186SOL    HW195397   5.756   1.953  10.356
31186SOL    HW295398   5.885   1.883  10.394
31187SOL     OW95399  13.174  11.316  12.346
31187SOL    HW195400  13.237  11.352  12.283
31187SOL    HW295401  13.089  11.325  12.302
31188SOL     OW95402   2.780  11.147  10.057
31188SOL    HW195403   2.872  11.163  10.037
31188SOL    HW295404   2.777  11.132  10.151
31189SOL     OW95405   2.853   5.110   0.716
31189SOL    HW195406   2.902   5.174   0.665
31189SOL    HW295407   2.888   5.118   0.805
31190SOL     OW95408   0.633   8.566   6.210
31190SOL    HW195409   0.679   8.535   6.132
31190SOL    HW295410   0.618   8.488   6.263
31191SOL     OW95411   5.949  12.802   4.588
31191SOL    HW195412   6.013  12.758   4.532
31191SOL    HW295413   5.871  12.809   4.534
31192SOL     OW95414  14.459   0.160   9.707
31192SOL    HW195415  14.515   0.225   9.666
31192SOL    HW295416  14.419   0.113   9.634
31193SOL     OW95417   0.339  13.752   2.586
31193SOL    HW195418   0.266  13.795   2.541
31193SOL    HW295419   0.411  13.814   2.581
31194SOL     OW95420   7.665   0.926   1.993
31194SOL    HW195421   7.681   0.848   1.939
31194SOL    HW295422   7.571   0.942   1.984
31195SOL     OW95423   2.582  11.415  14.212
31195SOL    HW195424   2.660  11.470  14.217
31195SOL    HW295425   2.515  11.473  14.173
31196SOL     OW95426   8.844   2.719  14.149
31196SOL    HW195427   8.770   2.768  14.182
31196SOL    HW295428   8.837   2.633  14.192
31197SOL     OW95429  11.556  14.021   1.668
31197SOL    HW195430  11.548  13.931   1.635
31197SOL    HW295431  11.633  14.019   1.725
31198SOL     OW95432   2.167   8.355  12.036
31198SOL    HW195433   2.169   8.342  12.131
31198SOL    HW295434   2.108   8.429  12.024
31199SOL     OW95435   3.056  13.589  10.944
31199SOL    HW195436   3.054  13.540  10.861
31199SOL    HW295437   2.964  13.603  10.966
31200SOL     OW95438   7.558   1.735   0.560
31200SOL    HW195439   7.545   1.765   0.470
31200SOL    HW295440   7.492   1.783   0.611
31201SOL     OW95441   3.119   9.623  12.388
31201SOL    HW195442   3.143   9.651  12.476
31201SOL    HW295443   3.200   9.589  12.351
31202SOL     OW95444   7.973  14.190  11.717
31202SOL    HW195445   7.986  14.138  11.796
31202SOL    HW295446   8.061  14.208  11.686
31203SOL     OW95447   7.037   8.578   5.954
31203SOL    HW195448   7.045   8.673   5.967
31203SOL    HW295449   7.043   8.567   5.859
31204SOL     OW95450   7.964   4.470  13.632
31204SOL    HW195451   7.935   4.515  13.711
31204SOL    HW295452   8.005   4.389  13.665
31205SOL     OW95453   8.960   4.761   8.714
31205SOL    HW195454   8.907   4.831   8.676
31205SOL    HW295455   8.909   4.731   8.789
31206SOL     OW95456  11.369  14.810   4.681
31206SOL    HW195457  11.430  14.754   4.633
31206SOL    HW295458  11.320  14.856   4.613
31207SOL     OW95459   0.600  14.853   7.893
31207SOL    HW195460   0.588   0.005   7.802
31207SOL    HW295461   0.539   0.035   7.942
31208SOL     OW95462  10.916  14.078   8.061
31208SOL    HW195463  10.827  14.098   8.031
31208SOL    HW295464  10.904  14.028   8.142
31209SOL     OW95465   4.490   8.284  14.313
31209SOL    HW195466   4.451   8.210  14.266
31209SOL    HW295467   4.416   8.344  14.328
31210SOL     OW95468   8.937  13.688   0.204
31210SOL    HW195469   9.014  13.710   0.150
31210SOL    HW295470   8.966  13.616   0.259
31211SOL     OW95471   4.744   2.667   0.469
31211SOL    HW195472   4.800   2.745   0.472
31211SOL    HW295473   4.719   2.653   0.561
31212SOL     OW95474  12.639  14.485   5.409
31212SOL    HW195475  12.597  14.415   5.460
31212SOL    HW295476  12.719  14.446   5.376
31213SOL     OW95477   9.282  12.987   8.508
31213SOL    HW195478   9.264  12.913   8.450
31213SOL    HW295479   9.223  13.056   8.478
31214SOL     OW95480  10.440  14.328   4.120
31214SOL    HW195481  10.521  14.309   4.168
31214SOL    HW295482  10.444  14.422   4.103
31215SOL     OW95483   9.864   2.988   1.260
31215SOL    HW195484   9.917   3.067   1.252
31215SOL    HW295485   9.819   2.997   1.345
31216SOL     OW95486   6.316   8.800  14.333
31216SOL    HW195487   6.375   8.735  14.372
31216SOL    HW295488   6.314   8.778  14.240
31217SOL     OW95489   2.059   6.413   3.031
31217SOL    HW195490   1.990   6.479   3.022
31217SOL    HW295491   2.016   6.330   3.013
31218SOL     OW95492   4.216  11.086   4.987
31218SOL    HW195493   4.187  11.096   4.897
31218SOL    HW295494   4.311  11.089   4.983
31219SOL     OW95495   1.989   6.184   3.328
31219SOL    HW195496   2.071   6.163   3.284
31219SOL    HW295497   2.003   6.270   3.367
31220SOL     OW95498  10.282   8.500   5.461
31220SOL    HW195499  10.253   8.562   5.393
31220SOL    HW295500  10.230   8.421   5.446
31221SOL     OW95501   4.040  11.720  14.636
31221SOL    HW195502   4.073  11.713  14.725
31221SOL    HW295503   4.073  11.804  14.604
31222SOL     OW95504  12.186   5.243   8.723
31222SOL    HW195505  12.269   5.210   8.757
31222SOL    HW295506  12.131   5.257   8.801
31223SOL     OW95507   4.615   6.284   6.784
31223SOL    HW195508   4.604   6.249   6.696
31223SOL    HW295509   4.608   6.379   6.773
31224SOL     OW95510  12.927   1.881   4.286
31224SOL    HW195511  12.943   1.806   4.343
31224SOL    HW295512  12.832   1.884   4.278
31225SOL     OW95513   9.015   6.229  11.066
31225SOL    HW195514   8.931   6.192  11.092
31225SOL    HW295515   9.022   6.311  11.116
31226SOL     OW95516  12.984   1.849  11.071
31226SOL    HW195517  12.999   1.915  11.004
31226SOL    HW295518  12.915   1.886  11.127
31227SOL     OW95519  12.966   0.933  14.480
31227SOL    HW195520  13.006   0.998  14.537
31227SOL    HW295521  12.896   0.895  14.533
31228SOL     OW95522   7.318   4.465   9.813
31228SOL    HW195523   7.229   4.429   9.808
31228SOL    HW295524   7.329   4.511   9.730
31229SOL     OW95525   2.497   5.022   6.485
31229SOL    HW195526   2.521   4.939   6.445
31229SOL    HW295527   2.578   5.055   6.523
31230SOL     OW95528   4.777   2.817  12.978
31230SOL    HW195529   4.711   2.752  12.954
31230SOL    HW295530   4.730   2.879  13.034
31231SOL     OW95531   7.068   7.381   6.476
31231SOL    HW195532   7.072   7.477   6.473
31231SOL    HW295533   7.127   7.358   6.548
31232SOL     OW95534   7.057   9.992  13.332
31232SOL    HW195535   7.026   9.914  13.377
31232SOL    HW295536   7.105   9.959  13.256
31233SOL     OW95537   1.453   1.405   6.980
31233SOL    HW195538   1.491   1.374   7.062
31233SOL    HW295539   1.506   1.365   6.912
31234SOL     OW95540   6.097   4.234   3.680
31234SOL    HW195541   6.140   4.226   3.765
31234SOL    HW295542   6.028   4.299   3.694
31235SOL     OW95543   5.543  11.823   5.175
31235SOL    HW195544   5.500  11.738   5.180
31235SOL    HW295545   5.576  11.839   5.263
31236SOL     OW95546   3.264   9.553   9.781
31236SOL    HW195547   3.241   9.463   9.804
31236SOL    HW295548   3.249   9.558   9.686
31237SOL     OW95549  13.580  12.261   1.286
31237SOL    HW195550  13.545  12.286   1.371
31237SOL    HW295551  13.672  12.289   1.288
31238SOL     OW95552   5.062   3.636  12.979
31238SOL    HW195553   5.108   3.664  13.057
31238SOL    HW295554   5.128   3.588  12.928
31239SOL     OW95555  11.621  14.420   6.048
31239SOL    HW195556  11.705  14.417   6.093
31239SOL    HW295557  11.640  14.392   5.959
31240SOL     OW95558  13.211  12.938   6.712
31240SOL    HW195559  13.117  12.934   6.691
31240SOL    HW295560  13.218  12.898   6.799
31241SOL     OW95561   1.764   8.845   0.542
31241SOL    HW195562   1.826   8.916   0.556
31241SOL    HW295563   1.795   8.774   0.598
31242SOL     OW95564  13.528   4.520   4.851
31242SOL    HW195565  13.521   4.588   4.784
31242SOL    HW295566  13.444   4.521   4.896
31243SOL     OW95567   5.316   9.359  14.035
31243SOL    HW195568   5.299   9.448  14.005
31243SOL    HW295569   5.233   9.313  14.023
31244SOL     OW95570   1.531   1.901   3.108
31244SOL    HW195571   1.513   1.991   3.078
31244SOL    HW295572   1.588   1.912   3.184
31245SOL     OW95573   3.151   5.157   9.462
31245SOL    HW195574   3.157   5.181   9.554
31245SOL    HW295575   3.122   5.066   9.462
31246SOL     OW95576   8.554   1.084  13.714
31246SOL    HW195577   8.516   1.008  13.758
31246SOL    HW295578   8.611   1.046  13.647
31247SOL     OW95579   0.775  12.372  10.505
31247SOL    HW195580   0.699  12.384  10.562
31247SOL    HW295581   0.848  12.409  10.554
31248SOL     OW95582   5.435  10.625  10.282
31248SOL    HW195583   5.512  10.682  10.273
31248SOL    HW295584   5.468  10.546  10.325
31249SOL     OW95585  14.027  14.380   9.943
31249SOL    HW195586  13.942  14.348   9.912
31249SOL    HW295587  14.077  14.398   9.863
31250SOL     OW95588   4.392  11.271   0.740
31250SOL    HW195589   4.334  11.342   0.713
31250SOL    HW295590   4.441  11.307   0.815
31251SOL     OW95591  14.789  13.242  13.306
31251SOL    HW195592   0.001  13.267  13.274
31251SOL    HW295593  14.750  13.323  13.337
31252SOL     OW95594  10.691   8.780   8.500
31252SOL    HW195595  10.696   8.876   8.505
31252SOL    HW295596  10.763   8.750   8.554
31253SOL     OW95597   3.038   7.132   4.552
31253SOL    HW195598   2.978   7.187   4.501
31253SOL    HW295599   3.092   7.088   4.487
31254SOL     OW95600   2.012   2.903  13.138
31254SOL    HW195601   2.023   2.966  13.066
31254SOL    HW295602   2.099   2.867  13.151
31255SOL     OW95603   3.438   5.767   8.276
31255SOL    HW195604   3.409   5.772   8.368
31255SOL    HW295605   3.497   5.692   8.273
31256SOL     OW95606   5.184   3.551  14.483
31256SOL    HW195607   5.139   3.574  14.401
31256SOL    HW295608   5.273   3.530  14.456
31257SOL     OW95609   8.155   1.932  10.544
31257SOL    HW195610   8.078   1.988  10.546
31257SOL    HW295611   8.198   1.944  10.628
31258SOL     OW95612   5.649   2.559   1.846
31258SOL    HW195613   5.731   2.574   1.800
31258SOL    HW295614   5.581   2.569   1.779
31259SOL     OW95615  13.319  12.579   4.238
31259SOL    HW195616  13.242  12.600   4.186
31259SOL    HW295617  13.294  12.603   4.328
31260SOL     OW95618  11.782   9.562   6.820
31260SOL    HW195619  11.767   9.563   6.915
31260SOL    HW295620  11.716   9.502   6.787
31261SOL     OW95621  13.607   9.016   6.420
31261SOL    HW195622  13.542   9.079   6.453
31261SOL    HW295623  13.555   8.952   6.372
31262SOL     OW95624  12.656  12.037   8.285
31262SOL    HW195625  12.671  11.958   8.337
31262SOL    HW295626  12.575  12.019   8.237
31263SOL     OW95627   4.309   5.283   0.428
31263SOL    HW195628   4.298   5.188   0.417
31263SOL    HW295629   4.228   5.320   0.393
31264SOL     OW95630  14.486   6.716   1.721
31264SOL    HW195631  14.427   6.672   1.659
31264SOL    HW295632  14.533   6.645   1.764
31265SOL     OW95633  14.046   9.746   7.403
31265SOL    HW195634  14.121   9.755   7.463
31265SOL    HW295635  13.995   9.674   7.440
31266SOL     OW95636   4.859  14.266  10.459
31266SOL    HW195637   4.903  14.215  10.527
31266SOL    HW295638   4.835  14.201  10.392
31267SOL     OW95639  12.793   0.534  14.420
31267SOL    HW195640  12.778   0.442  14.444
31267SOL    HW295641  12.880   0.535  14.382
31268SOL     OW95642  14.100   6.443   4.906
31268SOL    HW195643  14.113   6.349   4.919
31268SOL    HW295644  14.187   6.476   4.883
31269SOL     OW95645   8.866   6.536   4.593
31269SOL    HW195646   8.894   6.515   4.504
31269SOL    HW295647   8.885   6.457   4.643
31270SOL     OW95648   5.494   7.337   1.332
31270SOL    HW195649   5.565   7.282   1.297
31270SOL    HW295650   5.419   7.279   1.336
31271SOL     OW95651  13.162  13.813   1.464
31271SOL    HW195652  13.224  13.832   1.534
31271SOL    HW295653  13.125  13.728   1.488
31272SOL     OW95654   4.103  13.024   1.825
31272SOL    HW195655   4.070  13.110   1.849
31272SOL    HW295656   4.145  13.036   1.740
31273SOL     OW95657  12.056   7.386   2.925
31273SOL    HW195658  12.103   7.333   2.861
31273SOL    HW295659  11.965   7.387   2.893
31274SOL     OW95660   5.669   0.342  14.521
31274SOL    HW195661   5.725   0.413  14.487
31274SOL    HW295662   5.714   0.313  14.600
31275SOL     OW95663  10.911   4.241   3.644
31275SOL    HW195664  10.857   4.175   3.686
31275SOL    HW295665  10.968   4.273   3.713
31276SOL     OW95666  11.076  12.157   9.501
31276SOL    HW195667  11.161  12.178   9.464
31276SOL    HW295668  11.058  12.229   9.562
31277SOL     OW95669  11.788   6.235   1.451
31277SOL    HW195670  11.700   6.257   1.479
31277SOL    HW295671  11.844   6.259   1.525
31278SOL     OW95672   9.725  11.970  13.948
31278SOL    HW195673   9.756  12.060  13.952
31278SOL    HW295674   9.632  11.977  13.927
31279SOL     OW95675  14.662  12.241  10.498
31279SOL    HW195676  14.598  12.185  10.452
31279SOL    HW295677  14.624  12.328  10.495
31280SOL     OW95678  13.676  11.929  12.474
31280SOL    HW195679  13.626  11.996  12.427
31280SOL    HW295680  13.765  11.936  12.439
31281SOL     OW95681  14.319   7.958  10.157
31281SOL    HW195682  14.236   7.912  10.144
31281SOL    HW295683  14.337   8.001  10.074
31282SOL     OW95684  12.193  11.278   3.608
31282SOL    HW195685  12.127  11.284   3.677
31282SOL    HW295686  12.174  11.194   3.566
31283SOL     OW95687  10.130   2.484   8.899
31283SOL    HW195688  10.055   2.435   8.934
31283SOL    HW295689  10.201   2.464   8.960
31284SOL     OW95690   0.683   1.761  11.294
31284SOL    HW195691   0.704   1.709  11.371
31284SOL    HW295692   0.768   1.775  11.251
31285SOL     OW95693  12.593  12.319   4.909
31285SOL    HW195694  12.610  12.231   4.876
31285SOL    HW295695  12.579  12.308   5.003
31286SOL     OW95696   9.426   8.065   5.192
31286SOL    HW195697   9.344   8.047   5.238
31286SOL    HW295698   9.478   8.116   5.254
31287SOL     OW95699   5.556   8.343   3.608
31287SOL    HW195700   5.570   8.313   3.518
31287SOL    HW295701   5.643   8.347   3.646
31288SOL     OW95702   0.252   1.085  13.419
31288SOL    HW195703   0.347   1.084  13.408
31288SOL    HW295704   0.239   1.113  13.510
31289SOL     OW95705  10.648   1.675   5.844
31289SOL    HW195706  10.654   1.721   5.759
31289SOL    HW295707  10.617   1.588   5.821
31290SOL     OW95708  10.282   3.859  12.723
31290SOL    HW195709  10.377   3.858  12.714
31290SOL    HW295710  10.254   3.931  12.666
31291SOL     OW95711   7.165   4.333   9.129
31291SOL    HW195712   7.202   4.396   9.067
31291SOL    HW295713   7.219   4.342   9.207
31292SOL     OW95714   9.390  12.820  11.034
31292SOL    HW195715   9.308  12.794  10.992
31292SOL    HW295716   9.456  12.816  10.964
31293SOL     OW95717  12.639   0.290  11.600
31293SOL    HW195718  12.554   0.303  11.642
31293SOL    HW295719  12.683   0.226  11.656
31294SOL     OW95720   6.725   3.311   6.237
31294SOL    HW195721   6.816   3.299   6.211
31294SOL    HW295722   6.682   3.229   6.213
31295SOL     OW95723   4.362  13.990  10.316
31295SOL    HW195724   4.405  13.927  10.374
31295SOL    HW295725   4.309  14.044  10.374
31296SOL     OW95726   4.237   0.911   8.005
31296SOL    HW195727   4.287   0.869   7.935
31296SOL    HW295728   4.146   0.906   7.976
31297SOL     OW95729   6.880   1.911   7.672
31297SOL    HW195730   6.867   1.999   7.708
31297SOL    HW295731   6.975   1.902   7.667
31298SOL     OW95732  10.381   0.793   7.245
31298SOL    HW195733  10.454   0.748   7.287
31298SOL    HW295734  10.318   0.809   7.316
31299SOL     OW95735   0.121   5.524  11.615
31299SOL    HW195736   0.070   5.444  11.624
31299SOL    HW295737   0.056   5.593  11.601
31300SOL     OW95738   8.470   5.011  11.006
31300SOL    HW195739   8.419   5.007  10.925
31300SOL    HW295740   8.410   5.051  11.070
31301SOL     OW95741   4.406   4.796   1.639
31301SOL    HW195742   4.475   4.862   1.639
31301SOL    HW295743   4.429   4.736   1.710
31302SOL     OW95744   5.400   5.534   7.493
31302SOL    HW195745   5.360   5.499   7.413
31302SOL    HW295746   5.417   5.626   7.473
31303SOL     OW95747   9.191   9.340   0.544
31303SOL    HW195748   9.180   9.404   0.614
31303SOL    HW295749   9.120   9.358   0.483
31304SOL     OW95750   1.040   8.428   6.022
31304SOL    HW195751   1.123   8.381   6.029
31304SOL    HW295752   1.037   8.483   6.100
31305SOL     OW95753   4.967  10.127   5.807
31305SOL    HW195754   4.937  10.208   5.849
31305SOL    HW295755   4.887  10.080   5.786
31306SOL     OW95756  11.970   4.900  12.716
31306SOL    HW195757  11.911   4.835  12.752
31306SOL    HW295758  11.929   4.984  12.736
31307SOL     OW95759   0.166   6.240   5.486
31307SOL    HW195760   0.072   6.247   5.503
31307SOL    HW295761   0.186   6.147   5.498
31308SOL     OW95762   3.621  12.477  13.670
31308SOL    HW195763   3.580  12.407  13.722
31308SOL    HW295764   3.585  12.558  13.706
31309SOL     OW95765   0.611   4.945   5.627
31309SOL    HW195766   0.576   5.024   5.668
31309SOL    HW295767   0.704   4.962   5.618
31310SOL     OW95768  10.624   5.868   6.466
31310SOL    HW195769  10.656   5.801   6.526
31310SOL    HW295770  10.702   5.897   6.418
31311SOL     OW95771  12.426  11.727  13.227
31311SOL    HW195772  12.456  11.810  13.189
31311SOL    HW295773  12.333  11.740  13.243
31312SOL     OW95774   8.474   4.356   0.732
31312SOL    HW195775   8.553   4.399   0.697
31312SOL    HW295776   8.420   4.427   0.766
31313SOL     OW95777   8.564  13.236   5.507
31313SOL    HW195778   8.605  13.159   5.545
31313SOL    HW295779   8.589  13.308   5.565
31314SOL     OW95780  13.625   5.643   5.274
31314SOL    HW195781  13.619   5.570   5.336
31314SOL    HW295782  13.677   5.609   5.201
31315SOL     OW95783   8.476   0.388   2.489
31315SOL    HW195784   8.541   0.449   2.454
31315SOL    HW295785   8.391   0.427   2.465
31316SOL     OW95786   3.946   9.939  13.331
31316SOL    HW195787   3.981   9.940  13.420
31316SOL    HW295788   3.869   9.883  13.336
31317SOL     OW95789   9.702  13.113   9.108
31317SOL    HW195790   9.738  13.186   9.058
31317SOL    HW295791   9.679  13.151   9.193
31318SOL     OW95792   6.915  10.234  12.226
31318SOL    HW195793   6.888  10.303  12.286
31318SOL    HW295794   6.840  10.174  12.221
31319SOL     OW95795   1.353   8.807   4.044
31319SOL    HW195796   1.291   8.878   4.025
31319SOL    HW295797   1.439   8.843   4.020
31320SOL     OW95798   1.190  10.471   6.861
31320SOL    HW195799   1.172  10.531   6.789
31320SOL    HW295800   1.269  10.424   6.833
31321SOL     OW95801   6.635  14.091   3.125
31321SOL    HW195802   6.675  14.164   3.078
31321SOL    HW295803   6.672  14.013   3.084
31322SOL     OW95804   4.559   9.921   0.822
31322SOL    HW195805   4.511   9.855   0.772
31322SOL    HW295806   4.566   9.996   0.763
31323SOL     OW95807   1.599   2.192   4.650
31323SOL    HW195808   1.658   2.149   4.587
31323SOL    HW295809   1.529   2.228   4.596
31324SOL     OW95810  12.015   3.149   5.127
31324SOL    HW195811  11.951   3.208   5.167
31324SOL    HW295812  12.086   3.206   5.098
31325SOL     OW95813   3.271  11.136  11.168
31325SOL    HW195814   3.206  11.143  11.238
31325SOL    HW295815   3.320  11.218  11.173
31326SOL     OW95816   1.191  12.132   6.942
31326SOL    HW195817   1.208  12.176   7.025
31326SOL    HW295818   1.265  12.072   6.932
31327SOL     OW95819   0.212  11.058  11.272
31327SOL    HW195820   0.155  11.067  11.195
31327SOL    HW295821   0.266  11.137  11.271
31328SOL     OW95822   1.284  10.233  13.665
31328SOL    HW195823   1.308  10.237  13.573
31328SOL    HW295824   1.355  10.183  13.706
31329SOL     OW95825   7.111   0.687   8.012
31329SOL    HW195826   7.079   0.702   8.101
31329SOL    HW295827   7.140   0.773   7.982
31330SOL     OW95828   6.440  12.751   8.736
31330SOL    HW195829   6.414  12.659   8.735
31330SOL    HW295830   6.504  12.760   8.666
31331SOL     OW95831   2.496   9.318  12.993
31331SOL    HW195832   2.557   9.353  13.059
31331SOL    HW295833   2.410   9.345  13.024
31332SOL     OW95834   8.313  14.375   7.070
31332SOL    HW195835   8.382  14.325   7.027
31332SOL    HW295836   8.257  14.406   6.999
31333SOL     OW95837   4.103   6.928   4.675
31333SOL    HW195838   4.029   6.925   4.614
31333SOL    HW295839   4.158   6.999   4.642
31334SOL     OW95840   4.300  10.789  13.562
31334SOL    HW195841   4.325  10.872  13.521
31334SOL    HW295842   4.262  10.813  13.646
31335SOL     OW95843  13.395  12.567   0.746
31335SOL    HW195844  13.430  12.655   0.739
31335SOL    HW295845  13.385  12.552   0.840
31336SOL     OW95846   9.659   8.110  12.024
31336SOL    HW195847   9.699   8.190  12.058
31336SOL    HW295848   9.706   8.092  11.943
31337SOL     OW95849  11.879   3.149   8.232
31337SOL    HW195850  11.910   3.239   8.226
31337SOL    HW295851  11.876   3.118   8.142
31338SOL     OW95852  11.620  13.485   7.522
31338SOL    HW195853  11.585  13.434   7.450
31338SOL    HW295854  11.576  13.451   7.600
31339SOL     OW95855   3.473  11.071   8.605
31339SOL    HW195856   3.543  11.130   8.634
31339SOL    HW295857   3.461  11.093   8.513
31340SOL     OW95858  13.635  12.270   5.029
31340SOL    HW195859  13.713  12.219   5.052
31340SOL    HW295860  13.600  12.300   5.112
31341SOL     OW95861   4.362  10.433  10.375
31341SOL    HW195862   4.267  10.442  10.375
31341SOL    HW295863   4.380  10.374  10.302
31342SOL     OW95864   2.898   3.375   9.225
31342SOL    HW195865   2.949   3.295   9.234
31342SOL    HW295866   2.814   3.355   9.267
31343SOL     OW95867   4.716   3.039   1.150
31343SOL    HW195868   4.631   3.058   1.190
31343SOL    HW295869   4.778   3.093   1.199
31344SOL     OW95870   4.137   7.921  10.228
31344SOL    HW195871   4.085   7.997  10.203
31344SOL    HW295872   4.175   7.944  10.313
31345SOL     OW95873  10.737   5.654   4.809
31345SOL    HW195874  10.774   5.741   4.823
31345SOL    HW295875  10.678   5.640   4.883
31346SOL     OW95876   5.499   3.422  11.573
31346SOL    HW195877   5.569   3.373  11.615
31346SOL    HW295878   5.525   3.427  11.481
31347SOL     OW95879   9.177   4.724   7.358
31347SOL    HW195880   9.086   4.747   7.336
31347SOL    HW295881   9.224   4.734   7.275
31348SOL     OW95882   1.996  14.127   1.743
31348SOL    HW195883   1.969  14.154   1.830
31348SOL    HW295884   1.938  14.174   1.683
31349SOL     OW95885   5.922   2.961   5.621
31349SOL    HW195886   5.960   2.928   5.540
31349SOL    HW295887   5.828   2.968   5.602
31350SOL     OW95888   7.574   0.054  13.302
31350SOL    HW195889   7.498   0.054  13.361
31350SOL    HW295890   7.561   0.130  13.245
31351SOL     OW95891   7.036  11.757  13.410
31351SOL    HW195892   6.970  11.698  13.374
31351SOL    HW295893   6.985  11.827  13.450
31352SOL     OW95894   8.547  14.317   6.895
31352SOL    HW195895   8.639  14.327   6.920
31352SOL    HW295896   8.532  14.388   6.832
31353SOL     OW95897   9.443   4.518   6.687
31353SOL    HW195898   9.363   4.571   6.695
31353SOL    HW295899   9.448   4.470   6.769
31354SOL     OW95900   7.499   8.706  13.606
31354SOL    HW195901   7.490   8.757  13.525
31354SOL    HW295902   7.562   8.755  13.658
31355SOL     OW95903   4.203   0.239   3.994
31355SOL    HW195904   4.293   0.219   3.969
31355SOL    HW295905   4.202   0.230   4.089
31356SOL     OW95906   8.826   9.385  12.429
31356SOL    HW195907   8.838   9.301  12.473
31356SOL    HW295908   8.826   9.364  12.336
31357SOL     OW95909   1.038  11.944   2.945
31357SOL    HW195910   0.993  11.979   2.868
31357SOL    HW295911   0.989  11.978   3.019
31358SOL     OW95912   9.439  14.817   4.133
31358SOL    HW195913   9.403  14.864   4.058
31358SOL    HW295914   9.405  14.865   4.209
31359SOL     OW95915  13.186  12.857   5.120
31359SOL    HW195916  13.238  12.883   5.043
31359SOL    HW295917  13.249  12.853   5.191
31360SOL     OW95918  13.848   5.390   1.204
31360SOL    HW195919  13.866   5.484   1.207
31360SOL    HW295920  13.753   5.384   1.216
31361SOL     OW95921   9.833   9.717   6.027
31361SOL    HW195922   9.850   9.629   5.992
31361SOL    HW295923   9.809   9.769   5.950
31362SOL     OW95924  12.274   1.522   6.505
31362SOL    HW195925  12.335   1.497   6.435
31362SOL    HW295926  12.187   1.504   6.469
31363SOL     OW95927  13.262   9.021  11.686
31363SOL    HW195928  13.185   9.052  11.734
31363SOL    HW295929  13.333   9.024  11.749
31364SOL     OW95930  13.331  13.208   9.672
31364SOL    HW195931  13.294  13.199   9.584
31364SOL    HW295932  13.372  13.294   9.672
31365SOL     OW95933   2.093   3.118  13.006
31365SOL    HW195934   2.121   3.186  12.945
31365SOL    HW295935   2.170   3.102  13.061
31366SOL     OW95936  13.977  13.690   1.450
31366SOL    HW195937  14.023  13.697   1.366
31366SOL    HW295938  13.926  13.609   1.443
31367SOL     OW95939  13.753  10.927  14.562
31367SOL    HW195940  13.723  10.879  14.485
31367SOL    HW295941  13.825  10.982  14.530
31368SOL     OW95942   7.522   9.736   3.260
31368SOL    HW195943   7.596   9.712   3.204
31368SOL    HW295944   7.503   9.658   3.311
31369SOL     OW95945  11.892   0.996  12.406
31369SOL    HW195946  11.986   1.015  12.408
31369SOL    HW295947  11.879   0.931  12.475
31370SOL     OW95948   0.616  14.299  14.357
31370SOL    HW195949   0.623  14.231  14.423
31370SOL    HW295950   0.704  14.308  14.321
31371SOL     OW95951   0.562   9.292   1.209
31371SOL    HW195952   0.580   9.380   1.178
31371SOL    HW295953   0.648   9.251   1.218
31372SOL     OW95954   8.432   9.167   9.249
31372SOL    HW195955   8.433   9.236   9.316
31372SOL    HW295956   8.342   9.133   9.251
31373SOL     OW95957   2.263   0.790  13.269
31373SOL    HW195958   2.215   0.872  13.279
31373SOL    HW295959   2.301   0.774  13.355
31374SOL     OW95960  10.365   8.185   2.132
31374SOL    HW195961  10.382   8.255   2.194
31374SOL    HW295962  10.342   8.229   2.051
31375SOL     OW95963   3.974   0.280   0.550
31375SOL    HW195964   4.038   0.261   0.618
31375SOL    HW295965   3.974   0.202   0.495
31376SOL     OW95966   6.756   6.094  12.823
31376SOL    HW195967   6.746   6.091  12.728
31376SOL    HW295968   6.721   6.179  12.849
31377SOL     OW95969  12.088   3.492  12.467
31377SOL    HW195970  12.049   3.435  12.401
31377SOL    HW295971  12.129   3.562  12.416
31378SOL     OW95972   5.739  13.831   1.439
31378SOL    HW195973   5.754  13.906   1.498
31378SOL    HW295974   5.647  13.838   1.415
31379SOL     OW95975   5.424   7.685   6.074
31379SOL    HW195976   5.431   7.638   6.157
31379SOL    HW295977   5.341   7.733   6.080
31380SOL     OW95978  13.772   2.525  10.531
31380SOL    HW195979  13.866   2.515  10.514
31380SOL    HW295980  13.734   2.440  10.508
31381SOL     OW95981  14.098   2.326  12.506
31381SOL    HW195982  14.119   2.415  12.479
31381SOL    HW295983  14.012   2.333  12.547
31382SOL     OW95984   2.764   1.363   7.793
31382SOL    HW195985   2.728   1.328   7.711
31382SOL    HW295986   2.814   1.291   7.830
31383SOL     OW95987  11.814  14.120   4.717
31383SOL    HW195988  11.754  14.083   4.782
31383SOL    HW295989  11.867  14.045   4.688
31384SOL     OW95990   1.625   3.855   4.811
31384SOL    HW195991   1.557   3.916   4.842
31384SOL    HW295992   1.594   3.829   4.724
31385SOL     OW95993  14.631   7.097  10.299
31385SOL    HW195994  14.638   7.187  10.332
31385SOL    HW295995  14.618   7.043  10.378
31386SOL     OW95996   3.069  13.032  11.809
31386SOL    HW195997   3.054  12.990  11.894
31386SOL    HW295998   3.080  12.958  11.748
31387SOL     OW95999  11.975   5.274  12.018
31387SOL    HW196000  11.940   5.219  12.088
31387SOL    HW296001  12.035   5.217  11.971
31388SOL     OW96002   2.221   3.795   3.279
31388SOL    HW196003   2.140   3.781   3.230
31388SOL    HW296004   2.291   3.773   3.216
31389SOL     OW96005  11.017   9.120   0.440
31389SOL    HW196006  11.025   9.100   0.534
31389SOL    HW296007  10.927   9.097   0.419
31390SOL     OW96008  11.422  13.836   7.313
31390SOL    HW196009  11.371  13.825   7.394
31390SOL    HW296010  11.500  13.782   7.327
31391SOL     OW96011  11.414   7.600  11.235
31391SOL    HW196012  11.465   7.667  11.190
31391SOL    HW296013  11.478   7.551  11.286
31392SOL     OW96014   8.801   2.219   6.533
31392SOL    HW196015   8.834   2.191   6.618
31392SOL    HW296016   8.706   2.216   6.542
31393SOL     OW96017  14.359   8.449   8.735
31393SOL    HW196018  14.344   8.427   8.643
31393SOL    HW296019  14.419   8.523   8.732
31394SOL     OW96020  11.309  14.091  11.244
31394SOL    HW196021  11.287  14.001  11.219
31394SOL    HW296022  11.404  14.097  11.232
31395SOL     OW96023   5.700   5.770   4.980
31395SOL    HW196024   5.704   5.796   5.072
31395SOL    HW296025   5.791   5.777   4.949
31396SOL     OW96026   9.488  14.200   3.169
31396SOL    HW196027   9.534  14.210   3.252
31396SOL    HW296028   9.557  14.207   3.102
31397SOL     OW96029  11.681  14.474   4.066
31397SOL    HW196030  11.775  14.474   4.083
31397SOL    HW296031  11.644  14.414   4.131
31398SOL     OW96032   1.208  13.306   2.912
31398SOL    HW196033   1.229  13.391   2.873
31398SOL    HW296034   1.133  13.274   2.861
31399SOL     OW96035  13.073   5.021   6.963
31399SOL    HW196036  13.068   4.959   7.036
31399SOL    HW296037  13.112   4.971   6.891
31400SOL     OW96038   8.691   2.362  10.307
31400SOL    HW196039   8.768   2.419  10.318
31400SOL    HW296040   8.622   2.406  10.356
31401SOL     OW96041   7.210   9.157   5.328
31401SOL    HW196042   7.120   9.157   5.363
31401SOL    HW296043   7.206   9.216   5.252
31402SOL     OW96044   6.879   4.393   8.740
31402SOL    HW196045   6.820   4.447   8.793
31402SOL    HW296046   6.945   4.454   8.708
31403SOL     OW96047   0.180   6.582   5.765
31403SOL    HW196048   0.085   6.595   5.757
31403SOL    HW296049   0.218   6.661   5.726
31404SOL     OW96050  10.397   9.569   2.033
31404SOL    HW196051  10.313   9.577   2.077
31404SOL    HW296052  10.462   9.577   2.103
31405SOL     OW96053   8.537  12.953   7.493
31405SOL    HW196054   8.614  12.898   7.509
31405SOL    HW296055   8.463  12.893   7.501
31406SOL     OW96056   8.149  13.908  12.421
31406SOL    HW196057   8.098  13.987  12.436
31406SOL    HW296058   8.173  13.878  12.509
31407SOL     OW96059   9.669   7.628  13.467
31407SOL    HW196060   9.755   7.611  13.506
31407SOL    HW296061   9.613   7.653  13.540
31408SOL     OW96062   4.002  10.291   5.724
31408SOL    HW196063   4.097  10.303   5.727
31408SOL    HW296064   3.971  10.358   5.664
31409SOL     OW96065   4.656   4.748   2.631
31409SOL    HW196066   4.724   4.814   2.619
31409SOL    HW296067   4.659   4.696   2.550
31410SOL     OW96068  14.731   5.200  12.168
31410SOL    HW196069  14.759   5.286  12.201
31410SOL    HW296070  14.806   5.167  12.119
31411SOL     OW96071   0.672   0.353   9.075
31411SOL    HW196072   0.766   0.370   9.063
31411SOL    HW296073   0.640   0.332   8.988
31412SOL     OW96074   9.258   6.420  10.793
31412SOL    HW196075   9.289   6.459  10.712
31412SOL    HW296076   9.249   6.494  10.853
31413SOL     OW96077   4.885   2.337  10.672
31413SOL    HW196078   4.824   2.392  10.721
31413SOL    HW296079   4.912   2.269  10.734
31414SOL     OW96080   6.988   5.015  14.723
31414SOL    HW196081   6.912   4.985  14.673
31414SOL    HW296082   6.952   5.069  14.793
31415SOL     OW96083  14.468   2.968   9.073
31415SOL    HW196084  14.417   2.982   9.152
31415SOL    HW296085  14.541   3.030   9.080
31416SOL     OW96086  13.613   5.272   8.408
31416SOL    HW196087  13.615   5.212   8.482
31416SOL    HW296088  13.701   5.268   8.371
31417SOL     OW96089   5.384   6.288   7.355
31417SOL    HW196090   5.400   6.345   7.280
31417SOL    HW296091   5.314   6.229   7.327
31418SOL     OW96092   0.676   9.948   7.804
31418SOL    HW196093   0.768   9.975   7.813
31418SOL    HW296094   0.667   9.875   7.865
31419SOL     OW96095   5.150   6.628   4.671
31419SOL    HW196096   5.065   6.609   4.631
31419SOL    HW296097   5.133   6.700   4.731
31420SOL     OW96098   1.111   0.782   0.279
31420SOL    HW196099   1.184   0.843   0.266
31420SOL    HW296100   1.108   0.768   0.373
31421SOL     OW96101   4.115   9.564  14.139
31421SOL    HW196102   4.078   9.640  14.094
31421SOL    HW296103   4.130   9.500  14.070
31422SOL     OW96104   5.691   8.688   0.360
31422SOL    HW196105   5.619   8.744   0.331
31422SOL    HW296106   5.709   8.631   0.285
31423SOL     OW96107   1.156   5.524  14.526
31423SOL    HW196108   1.082   5.562  14.479
31423SOL    HW296109   1.143   5.429  14.519
31424SOL     OW96110   2.791  10.128  14.102
31424SOL    HW196111   2.771  10.210  14.146
31424SOL    HW296112   2.842  10.078  14.166
31425SOL     OW96113  10.300   5.421   6.688
31425SOL    HW196114  10.236   5.434   6.617
31425SOL    HW296115  10.269   5.478   6.758
31426SOL     OW96116   8.068  12.990   0.947
31426SOL    HW196117   8.060  13.016   1.039
31426SOL    HW296118   8.085  12.896   0.951
31427SOL     OW96119   8.192   3.116  12.143
31427SOL    HW196120   8.186   3.156  12.056
31427SOL    HW296121   8.164   3.025  12.130
31428SOL     OW96122  14.239   4.760   3.825
31428SOL    HW196123  14.264   4.679   3.780
31428SOL    HW296124  14.171   4.733   3.886
31429SOL     OW96125   9.225   3.504   1.965
31429SOL    HW196126   9.219   3.600   1.960
31429SOL    HW296127   9.313   3.484   1.932
31430SOL     OW96128   2.634  14.099   1.828
31430SOL    HW196129   2.694  14.106   1.902
31430SOL    HW296130   2.655  14.015   1.788
31431SOL     OW96131   3.326   7.949   0.495
31431SOL    HW196132   3.409   7.965   0.449
31431SOL    HW296133   3.297   8.036   0.524
31432SOL     OW96134   3.463  12.641   9.104
31432SOL    HW196135   3.420  12.556   9.108
31432SOL    HW296136   3.392  12.704   9.117
31433SOL     OW96137  11.500   8.550   7.911
31433SOL    HW196138  11.483   8.570   8.003
31433SOL    HW296139  11.458   8.621   7.863
31434SOL     OW96140   0.617   5.010   1.996
31434SOL    HW196141   0.614   5.103   2.018
31434SOL    HW296142   0.687   4.974   2.049
31435SOL     OW96143  10.690   4.139  10.795
31435SOL    HW196144  10.660   4.110  10.880
31435SOL    HW296145  10.702   4.059  10.744
31436SOL     OW96146   2.878   0.579   7.586
31436SOL    HW196147   2.969   0.567   7.561
31436SOL    HW296148   2.882   0.615   7.675
31437SOL     OW96149   3.960  12.848  13.241
31437SOL    HW196150   3.972  12.756  13.217
31437SOL    HW296151   4.026  12.895  13.190
31438SOL     OW96152  13.656  11.209   1.842
31438SOL    HW196153  13.566  11.235   1.825
31438SOL    HW296154  13.657  11.184   1.935
31439SOL     OW96155   1.127   0.149   3.465
31439SOL    HW196156   1.137   0.146   3.370
31439SOL    HW296157   1.032   0.148   3.479
31440SOL     OW96158   2.220   6.360  12.232
31440SOL    HW196159   2.139   6.309  12.228
31440SOL    HW296160   2.202   6.438  12.180
31441SOL     OW96161   1.091   9.547  10.439
31441SOL    HW196162   1.119   9.477  10.380
31441SOL    HW296163   1.038   9.605  10.385
31442SOL     OW96164   9.048   9.478  11.580
31442SOL    HW196165   9.005   9.563  11.590
31442SOL    HW296166   9.092   9.463  11.663
31443SOL     OW96167   7.958  13.654   9.354
31443SOL    HW196168   7.959  13.748   9.371
31443SOL    HW296169   7.935  13.615   9.438
31444SOL     OW96170   2.495   1.085  12.442
31444SOL    HW196171   2.430   1.130  12.389
31444SOL    HW296172   2.528   1.015  12.385
31445SOL     OW96173   0.094   3.512   7.245
31445SOL    HW196174   0.180   3.523   7.285
31445SOL    HW296175   0.111   3.504   7.152
31446SOL     OW96176   3.847   0.914   3.817
31446SOL    HW196177   3.831   0.998   3.860
31446SOL    HW296178   3.840   0.850   3.888
31447SOL     OW96179   4.066  10.475   1.373
31447SOL    HW196180   3.970  10.480   1.369
31447SOL    HW296181   4.085  10.381   1.378
31448SOL     OW96182   7.567   6.809   2.447
31448SOL    HW196183   7.535   6.743   2.386
31448SOL    HW296184   7.509   6.800   2.523
31449SOL     OW96185   1.940  10.971  10.684
31449SOL    HW196186   1.904  11.041  10.630
31449SOL    HW296187   1.871  10.904  10.686
31450SOL     OW96188  10.399   4.977   9.911
31450SOL    HW196189  10.401   5.032   9.833
31450SOL    HW296190  10.474   4.917   9.900
31451SOL     OW96191  12.564   0.459   4.344
31451SOL    HW196192  12.587   0.370   4.318
31451SOL    HW296193  12.469   0.459   4.352
31452SOL     OW96194   4.089   3.883  12.122
31452SOL    HW196195   4.010   3.843  12.158
31452SOL    HW296196   4.057   3.953  12.065
31453SOL     OW96197  12.033   0.615   2.268
31453SOL    HW196198  12.081   0.641   2.346
31453SOL    HW296199  12.100   0.605   2.200
31454SOL     OW96200   6.671  10.926  11.219
31454SOL    HW196201   6.599  10.926  11.156
31454SOL    HW296202   6.710  10.839  11.212
31455SOL     OW96203  12.336  10.002   2.518
31455SOL    HW196204  12.281  10.004   2.440
31455SOL    HW296205  12.417  10.045   2.492
31456SOL     OW96206  14.655  11.853   0.082
31456SOL    HW196207  14.683  11.806   0.003
31456SOL    HW296208  14.559  11.847   0.080
31457SOL     OW96209  13.037   9.459   2.835
31457SOL    HW196210  12.942   9.456   2.848
31457SOL    HW296211  13.070   9.507   2.911
31458SOL     OW96212   0.316   5.619   8.570
31458SOL    HW196213   0.312   5.525   8.557
31458SOL    HW296214   0.365   5.631   8.651
31459SOL     OW96215  13.115   3.393   1.922
31459SOL    HW196216  13.081   3.445   1.849
31459SOL    HW296217  13.095   3.302   1.897
31460SOL     OW96218   7.573   9.656   7.660
31460SOL    HW196219   7.508   9.705   7.711
31460SOL    HW296220   7.656   9.673   7.705
31461SOL     OW96221  10.030  12.482  10.320
31461SOL    HW196222   9.976  12.403  10.315
31461SOL    HW296223  10.049  12.503  10.228
31462SOL     OW96224   0.799  13.475   3.195
31462SOL    HW196225   0.798  13.467   3.291
31462SOL    HW296226   0.734  13.411   3.165
31463SOL     OW96227   7.622  10.441   8.085
31463SOL    HW196228   7.567  10.477   8.016
31463SOL    HW296229   7.710  10.472   8.065
31464SOL     OW96230  11.706  11.204  10.070
31464SOL    HW196231  11.704  11.263   9.995
31464SOL    HW296232  11.798  11.180  10.079
31465SOL     OW96233   1.252  11.993   4.205
31465SOL    HW196234   1.164  12.029   4.189
31465SOL    HW296235   1.304  12.070   4.227
31466SOL     OW96236   7.577   2.514   4.667
31466SOL    HW196237   7.591   2.437   4.612
31466SOL    HW296238   7.636   2.580   4.633
31467SOL     OW96239  11.726   1.243   3.939
31467SOL    HW196240  11.776   1.165   3.915
31467SOL    HW296241  11.760   1.268   4.025
31468SOL     OW96242   6.643   6.370   0.600
31468SOL    HW196243   6.612   6.286   0.634
31468SOL    HW296244   6.566   6.426   0.600
31469SOL     OW96245   7.899   7.680   6.254
31469SOL    HW196246   7.972   7.693   6.194
31469SOL    HW296247   7.834   7.632   6.203
31470SOL     OW96248   5.660   6.176   6.100
31470SOL    HW196249   5.705   6.154   6.019
31470SOL    HW296250   5.678   6.101   6.158
31471SOL     OW96251   3.413   4.373  12.130
31471SOL    HW196252   3.328   4.397  12.168
31471SOL    HW296253   3.449   4.456  12.099
31472SOL     OW96254   4.216   4.946   9.810
31472SOL    HW196255   4.223   4.893   9.730
31472SOL    HW296256   4.167   5.023   9.783
31473SOL     OW96257   7.546   1.345   4.703
31473SOL    HW196258   7.596   1.407   4.757
31473SOL    HW296259   7.529   1.271   4.762
31474SOL     OW96260   9.721  10.482   0.703
31474SOL    HW196261   9.661  10.442   0.641
31474SOL    HW296262   9.667  10.545   0.751
31475SOL     OW96263   2.451   9.773  14.416
31475SOL    HW196264   2.379   9.722  14.379
31475SOL    HW296265   2.415   9.860  14.430
31476SOL     OW96266  12.706   6.824   9.536
31476SOL    HW196267  12.754   6.861   9.462
31476SOL    HW296268  12.617   6.857   9.526
31477SOL     OW96269   0.938   6.352   2.209
31477SOL    HW196270   0.973   6.410   2.142
31477SOL    HW296271   0.848   6.336   2.182
31478SOL     OW96272  14.158   8.760  12.166
31478SOL    HW196273  14.162   8.793  12.076
31478SOL    HW296274  14.234   8.702  12.174
31479SOL     OW96275  14.587   4.908  11.780
31479SOL    HW196276  14.560   4.953  11.699
31479SOL    HW296277  14.565   4.969  11.850
31480SOL     OW96278   1.406   0.897   0.854
31480SOL    HW196279   1.340   0.858   0.911
31480SOL    HW296280   1.488   0.887   0.902
31481SOL     OW96281   4.520   3.759   1.585
31481SOL    HW196282   4.462   3.830   1.612
31481SOL    HW296283   4.561   3.790   1.505
31482SOL     OW96284   0.314  10.432   8.014
31482SOL    HW196285   0.389  10.373   8.001
31482SOL    HW296286   0.278  10.444   7.927
31483SOL     OW96287   2.242   9.423   3.740
31483SOL    HW196288   2.149   9.401   3.745
31483SOL    HW296289   2.271   9.387   3.655
31484SOL     OW96290   4.209   9.767   6.811
31484SOL    HW196291   4.180   9.801   6.726
31484SOL    HW296292   4.200   9.672   6.803
31485SOL     OW96293  13.697   3.224   9.352
31485SOL    HW196294  13.626   3.217   9.288
31485SOL    HW296295  13.672   3.298   9.408
31486SOL     OW96296   7.222  13.647   0.396
31486SOL    HW196297   7.260  13.564   0.424
31486SOL    HW296298   7.137  13.623   0.359
31487SOL     OW96299   0.582  10.854   5.755
31487SOL    HW196300   0.642  10.845   5.681
31487SOL    HW296301   0.539  10.938   5.741
31488SOL     OW96302   3.343  10.825   3.484
31488SOL    HW196303   3.366  10.839   3.576
31488SOL    HW296304   3.346  10.731   3.472
31489SOL     OW96305   6.196  12.685   3.294
31489SOL    HW196306   6.277  12.736   3.299
31489SOL    HW296307   6.201  12.624   3.367
31490SOL     OW96308   8.009   9.212  12.319
31490SOL    HW196309   7.981   9.158  12.245
31490SOL    HW296310   7.964   9.295  12.306
31491SOL     OW96311   2.210   2.487  12.917
31491SOL    HW196312   2.278   2.494  12.984
31491SOL    HW296313   2.226   2.403  12.875
31492SOL     OW96314   5.845   9.232   5.232
31492SOL    HW196315   5.876   9.220   5.142
31492SOL    HW296316   5.798   9.152   5.252
31493SOL     OW96317   1.353   1.349  12.111
31493SOL    HW196318   1.268   1.310  12.133
31493SOL    HW296319   1.401   1.279  12.066
31494SOL     OW96320   6.949   9.141   3.007
31494SOL    HW196321   6.867   9.173   3.046
31494SOL    HW296322   7.018   9.185   3.057
31495SOL     OW96323  10.762  13.440  13.881
31495SOL    HW196324  10.789  13.475  13.966
31495SOL    HW296325  10.718  13.357  13.902
31496SOL     OW96326   4.268   1.471   5.546
31496SOL    HW196327   4.233   1.406   5.486
31496SOL    HW296328   4.282   1.549   5.492
31497SOL     OW96329  13.396  14.628   1.382
31497SOL    HW196330  13.366  14.695   1.321
31497SOL    HW296331  13.383  14.666   1.468
31498SOL     OW96332  13.138   8.085  10.214
31498SOL    HW196333  13.043   8.080  10.214
31498SOL    HW296334  13.157   8.179  10.209
31499SOL     OW96335   1.017   6.952  10.750
31499SOL    HW196336   1.097   6.991  10.787
31499SOL    HW296337   1.048   6.899  10.677
31500SOL     OW96338   0.745   4.706   8.506
31500SOL    HW196339   0.786   4.666   8.583
31500SOL    HW296340   0.775   4.796   8.507
31501SOL     OW96341   9.441   0.952   8.840
31501SOL    HW196342   9.424   0.865   8.877
31501SOL    HW296343   9.490   0.935   8.760
31502SOL     OW96344   5.932   1.741   3.691
31502SOL    HW196345   5.848   1.779   3.715
31502SOL    HW296346   5.925   1.728   3.596
31503SOL     OW96347   4.800   1.546  10.137
31503SOL    HW196348   4.877   1.550  10.193
31503SOL    HW296349   4.806   1.461  10.094
31504SOL     OW96350   2.788   5.269   4.916
31504SOL    HW196351   2.818   5.333   4.981
31504SOL    HW296352   2.704   5.239   4.949
31505SOL     OW96353   7.866   4.641   0.773
31505SOL    HW196354   7.951   4.603   0.796
31505SOL    HW296355   7.882   4.690   0.693
31506SOL     OW96356   7.638  12.454   1.109
31506SOL    HW196357   7.550  12.490   1.122
31506SOL    HW296358   7.687  12.483   1.186
31507SOL     OW96359   0.698   1.948   7.662
31507SOL    HW196360   0.610   1.923   7.637
31507SOL    HW296361   0.736   1.869   7.699
31508SOL     OW96362  10.195   6.674   7.729
31508SOL    HW196363  10.100   6.657   7.733
31508SOL    HW296364  10.235   6.588   7.739
31509SOL     OW96365  14.045   4.111   6.294
31509SOL    HW196366  14.108   4.148   6.356
31509SOL    HW296367  14.032   4.021   6.324
31510SOL     OW96368   4.397  12.588   1.204
31510SOL    HW196369   4.383  12.680   1.180
31510SOL    HW296370   4.313  12.546   1.188
31511SOL     OW96371   4.803  13.228   9.293
31511SOL    HW196372   4.843  13.315   9.299
31511SOL    HW296373   4.816  13.202   9.202
31512SOL     OW96374  11.114  12.384   7.149
31512SOL    HW196375  11.071  12.357   7.231
31512SOL    HW296376  11.191  12.328   7.144
31513SOL     OW96377  13.531  12.383  12.385
31513SOL    HW196378  13.449  12.406  12.342
31513SOL    HW296379  13.549  12.293  12.358
31514SOL     OW96380   5.933   9.159  10.533
31514SOL    HW196381   5.990   9.235  10.520
31514SOL    HW296382   5.907   9.163  10.625
31515SOL     OW96383   8.700  13.479  12.049
31515SOL    HW196384   8.760  13.466  12.122
31515SOL    HW296385   8.747  13.444  11.973
31516SOL     OW96386  10.276   7.178   6.012
31516SOL    HW196387  10.371   7.182   6.027
31516SOL    HW296388  10.261   7.237   5.939
31517SOL     OW96389   5.943   1.722   5.704
31517SOL    HW196390   5.999   1.671   5.763
31517SOL    HW296391   5.963   1.813   5.724
31518SOL     OW96392  12.027   2.447   8.884
31518SOL    HW196393  12.035   2.542   8.893
31518SOL    HW296394  12.104   2.421   8.833
31519SOL     OW96395  14.274   2.639   1.725
31519SOL    HW196396  14.336   2.660   1.655
31519SOL    HW296397  14.236   2.555   1.700
31520SOL     OW96398   9.745   9.404  14.382
31520SOL    HW196399   9.714   9.432  14.467
31520SOL    HW296400   9.785   9.318  14.398
31521SOL     OW96401  12.217  10.672   8.194
31521SOL    HW196402  12.231  10.634   8.280
31521SOL    HW296403  12.281  10.628   8.138
31522SOL     OW96404   5.466   6.172   1.699
31522SOL    HW196405   5.538   6.123   1.738
31522SOL    HW296406   5.392   6.111   1.702
31523SOL     OW96407  12.265   2.837  14.147
31523SOL    HW196408  12.282   2.771  14.215
31523SOL    HW296409  12.287   2.920  14.188
31524SOL     OW96410   2.873  11.148   4.647
31524SOL    HW196411   2.880  11.068   4.595
31524SOL    HW296412   2.849  11.118   4.734
31525SOL     OW96413   4.773  14.801   0.375
31525SOL    HW196414   4.775  14.710   0.344
31525SOL    HW296415   4.723  14.798   0.456
31526SOL     OW96416   0.186   8.461   0.328
31526SOL    HW196417   0.188   8.552   0.296
31526SOL    HW296418   0.117   8.461   0.394
31527SOL     OW96419   0.295  14.675   7.820
31527SOL    HW196420   0.224  14.734   7.846
31527SOL    HW296421   0.252  14.606   7.770
31528SOL     OW96422   1.159   1.338   1.700
31528SOL    HW196423   1.134   1.247   1.718
31528SOL    HW296424   1.076   1.384   1.692
31529SOL     OW96425   6.810  11.798   6.478
31529SOL    HW196426   6.813  11.776   6.571
31529SOL    HW296427   6.894  11.770   6.443
31530SOL     OW96428   8.446  12.459   1.255
31530SOL    HW196429   8.468  12.369   1.277
31530SOL    HW296430   8.352  12.458   1.239
31531SOL     OW96431   6.181   7.068   5.086
31531SOL    HW196432   6.275   7.050   5.088
31531SOL    HW296433   6.140   6.985   5.106
31532SOL     OW96434   5.938   5.371   2.286
31532SOL    HW196435   6.025   5.332   2.300
31532SOL    HW296436   5.911   5.401   2.373
31533SOL     OW96437   9.024   0.872   2.086
31533SOL    HW196438   8.976   0.955   2.088
31533SOL    HW296439   9.063   0.870   1.999
31534SOL     OW96440  11.615   1.392   1.647
31534SOL    HW196441  11.635   1.306   1.684
31534SOL    HW296442  11.524   1.385   1.618
31535SOL     OW96443   1.934   8.856  13.314
31535SOL    HW196444   1.944   8.942  13.357
31535SOL    HW296445   1.949   8.874  13.222
31536SOL     OW96446   5.547   3.558   2.988
31536SOL    HW196447   5.592   3.518   3.063
31536SOL    HW296448   5.602   3.536   2.913
31537SOL     OW96449  10.091  13.181   4.712
31537SOL    HW196450  10.101  13.264   4.666
31537SOL    HW296451  10.048  13.123   4.649
31538SOL     OW96452  11.320  12.379   6.035
31538SOL    HW196453  11.271  12.405   5.957
31538SOL    HW296454  11.390  12.323   6.002
31539SOL     OW96455   4.513   0.546  14.160
31539SOL    HW196456   4.505   0.490  14.083
31539SOL    HW296457   4.422   0.568  14.184
31540SOL     OW96458   4.355   8.082   9.490
31540SOL    HW196459   4.398   8.031   9.421
31540SOL    HW296460   4.408   8.065   9.569
31541SOL     OW96461  12.831  12.130   0.907
31541SOL    HW196462  12.783  12.062   0.954
31541SOL    HW296463  12.763  12.191   0.877
31542SOL     OW96464   9.347   9.212   3.061
31542SOL    HW196465   9.252   9.206   3.054
31542SOL    HW296466   9.364   9.304   3.084
31543SOL     OW96467  11.142  14.289   8.444
31543SOL    HW196468  11.232  14.318   8.433
31543SOL    HW296469  11.145  14.195   8.429
31544SOL     OW96470   9.004   0.255   7.597
31544SOL    HW196471   9.046   0.267   7.512
31544SOL    HW296472   8.910   0.253   7.578
31545SOL     OW96473  14.754   1.052   1.192
31545SOL    HW196474  14.812   1.126   1.171
31545SOL    HW296475  14.791   0.978   1.144
31546SOL     OW96476   6.713   5.393   8.583
31546SOL    HW196477   6.750   5.316   8.540
31546SOL    HW296478   6.788   5.449   8.603
31547SOL     OW96479  14.411  10.298   1.969
31547SOL    HW196480  14.318  10.293   1.989
31547SOL    HW296481  14.438  10.384   2.000
31548SOL     OW96482   7.255   7.002   6.973
31548SOL    HW196483   7.341   6.983   6.936
31548SOL    HW296484   7.194   6.980   6.902
31549SOL     OW96485   2.989   2.539   6.283
31549SOL    HW196486   3.050   2.466   6.289
31549SOL    HW296487   2.903   2.499   6.299
31550SOL     OW96488   6.387  12.025   0.020
31550SOL    HW196489   6.376  11.954  14.831
31550SOL    HW296490   6.325  12.092  14.866
31551SOL     OW96491   7.460   7.663   8.134
31551SOL    HW196492   7.520   7.716   8.187
31551SOL    HW296493   7.505   7.655   8.050
31552SOL     OW96494  13.710   7.164   2.681
31552SOL    HW196495  13.723   7.204   2.595
31552SOL    HW296496  13.642   7.217   2.723
31553SOL     OW96497  10.042  14.665  12.942
31553SOL    HW196498  10.011  14.647  13.031
31553SOL    HW296499  10.007  14.594  12.889
31554SOL     OW96500  11.913   8.109  10.470
31554SOL    HW196501  11.956   8.029  10.437
31554SOL    HW296502  11.820   8.090  10.462
31555SOL     OW96503   0.937  10.705   4.082
31555SOL    HW196504   1.033  10.711   4.079
31555SOL    HW296505   0.919  10.645   4.155
31556SOL     OW96506  11.699   0.010   1.226
31556SOL    HW196507  11.760   0.012   1.300
31556SOL    HW296508  11.738   0.068   1.161
31557SOL     OW96509   2.385   4.540   5.395
31557SOL    HW196510   2.363   4.631   5.376
31557SOL    HW296511   2.383   4.533   5.490
31558SOL     OW96512   5.011   1.048  10.582
31558SOL    HW196513   4.941   1.111  10.567
31558SOL    HW296514   5.075   1.066  10.514
31559SOL     OW96515   6.696   6.057  10.990
31559SOL    HW196516   6.693   6.042  10.896
31559SOL    HW296517   6.705   6.152  10.999
31560SOL     OW96518  10.650   2.281  10.184
31560SOL    HW196519  10.655   2.374  10.160
31560SOL    HW296520  10.590   2.279  10.259
31561SOL     OW96521  11.631   3.700   8.272
31561SOL    HW196522  11.702   3.687   8.209
31561SOL    HW296523  11.552   3.711   8.218
31562SOL     OW96524   7.772  13.226   8.335
31562SOL    HW196525   7.800  13.239   8.244
31562SOL    HW296526   7.680  13.203   8.328
31563SOL     OW96527   4.965   1.335  10.035
31563SOL    HW196528   4.996   1.415   9.994
31563SOL    HW296529   4.991   1.265   9.975
31564SOL     OW96530   4.637   1.076   4.287
31564SOL    HW196531   4.598   0.991   4.267
31564SOL    HW296532   4.673   1.106   4.203
31565SOL     OW96533  13.517   3.515  10.262
31565SOL    HW196534  13.581   3.529  10.332
31565SOL    HW296535  13.464   3.594  10.261
31566SOL     OW96536   3.091  14.328   2.396
31566SOL    HW196537   3.072  14.362   2.483
31566SOL    HW296538   3.042  14.246   2.390
31567SOL     OW96539   4.181   6.505   0.668
31567SOL    HW196540   4.260   6.556   0.688
31567SOL    HW296541   4.135   6.557   0.601
31568SOL     OW96542   8.777   1.257   3.138
31568SOL    HW196543   8.835   1.254   3.213
31568SOL    HW296544   8.833   1.281   3.064
31569SOL     OW96545   7.444  13.962  10.400
31569SOL    HW196546   7.375  13.936  10.339
31569SOL    HW296547   7.474  13.879  10.438
31570SOL     OW96548   1.576   6.638   4.500
31570SOL    HW196549   1.489   6.609   4.475
31570SOL    HW296550   1.562   6.720   4.547
31571SOL     OW96551   6.950  13.891   7.259
31571SOL    HW196552   6.979  13.949   7.189
31571SOL    HW296553   6.874  13.845   7.222
31572SOL     OW96554  10.280   6.022   3.744
31572SOL    HW196555  10.242   5.935   3.743
31572SOL    HW296556  10.334   6.024   3.823
31573SOL     OW96557  12.671   7.238   1.212
31573SOL    HW196558  12.715   7.262   1.294
31573SOL    HW296559  12.737   7.188   1.163
31574SOL     OW96560   2.775  13.456   7.042
31574SOL    HW196561   2.788  13.469   7.136
31574SOL    HW296562   2.705  13.391   7.035
31575SOL     OW96563   8.805   0.009   5.814
31575SOL    HW196564   8.824  14.798   5.854
31575SOL    HW296565   8.879   0.064   5.839
31576SOL     OW96566  10.889   6.012   3.961
31576SOL    HW196567  10.928   5.972   4.039
31576SOL    HW296568  10.883   6.106   3.983
31577SOL     OW96569  10.253  13.108  13.091
31577SOL    HW196570  10.173  13.087  13.139
31577SOL    HW296571  10.263  13.037  13.027
31578SOL     OW96572   8.570   5.484  11.838
31578SOL    HW196573   8.503   5.512  11.775
31578SOL    HW296574   8.646   5.460  11.784
31579SOL     OW96575  12.584   4.402   7.406
31579SOL    HW196576  12.563   4.440   7.321
31579SOL    HW296577  12.680   4.396   7.406
31580SOL     OW96578  14.754  13.784   5.380
31580SOL    HW196579  14.747  13.872   5.343
31580SOL    HW296580  14.771  13.728   5.304
31581SOL     OW96581   1.156   5.556   4.327
31581SOL    HW196582   1.170   5.625   4.392
31581SOL    HW296583   1.229   5.564   4.266
31582SOL     OW96584  11.803   8.790  12.221
31582SOL    HW196585  11.768   8.774  12.308
31582SOL    HW296586  11.887   8.833  12.237
31583SOL     OW96587   6.006   6.536   5.858
31583SOL    HW196588   6.059   6.539   5.778
31583SOL    HW296589   5.916   6.525   5.826
31584SOL     OW96590   5.812   6.468   4.146
31584SOL    HW196591   5.733   6.448   4.097
31584SOL    HW296592   5.881   6.474   4.079
31585SOL     OW96593  12.578  13.351   2.846
31585SOL    HW196594  12.552  13.441   2.867
31585SOL    HW296595  12.608  13.355   2.755
31586SOL     OW96596   7.737  12.511  11.019
31586SOL    HW196597   7.686  12.471  11.089
31586SOL    HW296598   7.798  12.442  10.992
31587SOL     OW96599   9.553   1.244  13.291
31587SOL    HW196600   9.512   1.213  13.372
31587SOL    HW296601   9.620   1.306  13.320
31588SOL     OW96602  12.035   8.298  10.620
31588SOL    HW196603  12.107   8.314  10.559
31588SOL    HW296604  12.010   8.207  10.604
31589SOL     OW96605   7.480   3.914   4.569
31589SOL    HW196606   7.401   3.889   4.522
31589SOL    HW296607   7.546   3.927   4.501
31590SOL     OW96608   1.907   1.202   7.575
31590SOL    HW196609   1.998   1.212   7.601
31590SOL    HW296610   1.857   1.220   7.655
31591SOL     OW96611  10.017   4.299  12.476
31591SOL    HW196612  10.085   4.290  12.409
31591SOL    HW296613  10.032   4.386  12.514
31592SOL     OW96614  11.767   0.890  13.411
31592SOL    HW196615  11.783   0.879  13.317
31592SOL    HW296616  11.727   0.976  13.419
31593SOL     OW96617   6.420   3.630   2.045
31593SOL    HW196618   6.488   3.696   2.055
31593SOL    HW296619   6.350   3.675   1.997
31594SOL     OW96620   2.593   9.635   6.409
31594SOL    HW196621   2.538   9.573   6.361
31594SOL    HW296622   2.620   9.699   6.344
31595SOL     OW96623   3.012   1.217   4.406
31595SOL    HW196624   3.081   1.241   4.467
31595SOL    HW296625   3.053   1.156   4.346
31596SOL     OW96626   2.377  13.829  13.423
31596SOL    HW196627   2.469  13.820  13.447
31596SOL    HW296628   2.376  13.903  13.361
31597SOL     OW96629   9.341   7.323  13.173
31597SOL    HW196630   9.405   7.316  13.102
31597SOL    HW296631   9.394   7.315  13.253
31598SOL     OW96632  13.163  12.548   5.810
31598SOL    HW196633  13.253  12.580   5.809
31598SOL    HW296634  13.130  12.574   5.897
31599SOL     OW96635   0.579  13.740  11.380
31599SOL    HW196636   0.644  13.674  11.358
31599SOL    HW296637   0.568  13.733  11.475
31600SOL     OW96638   3.844  14.436  13.302
31600SOL    HW196639   3.897  14.361  13.330
31600SOL    HW296640   3.780  14.399  13.241
31601SOL     OW96641   5.597   9.712   2.674
31601SOL    HW196642   5.616   9.802   2.701
31601SOL    HW296643   5.522   9.720   2.616
31602SOL     OW96644   9.360   3.307   0.727
31602SOL    HW196645   9.282   3.267   0.689
31602SOL    HW296646   9.332   3.395   0.752
31603SOL     OW96647  12.809   3.523   7.186
31603SOL    HW196648  12.897   3.559   7.184
31603SOL    HW296649  12.796   3.495   7.277
31604SOL     OW96650  13.498   0.228   3.598
31604SOL    HW196651  13.411   0.218   3.559
31604SOL    HW296652  13.488   0.201   3.689
31605SOL     OW96653  10.378   4.922   1.435
31605SOL    HW196654  10.362   4.828   1.425
31605SOL    HW296655  10.337   4.945   1.519
31606SOL     OW96656  12.071   6.048  11.372
31606SOL    HW196657  12.091   6.136  11.338
31606SOL    HW296658  12.126   6.039  11.450
31607SOL     OW96659  10.783   7.193   6.630
31607SOL    HW196660  10.700   7.151   6.652
31607SOL    HW296661  10.783   7.200   6.535
31608SOL     OW96662   6.196   9.963  12.766
31608SOL    HW196663   6.154   9.988  12.685
31608SOL    HW296664   6.290   9.967  12.747
31609SOL     OW96665   6.022   6.031   2.930
31609SOL    HW196666   6.059   6.097   2.871
31609SOL    HW296667   5.986   5.964   2.871
31610SOL     OW96668   3.656  11.129   9.652
31610SOL    HW196669   3.697  11.141   9.567
31610SOL    HW296670   3.579  11.074   9.635
31611SOL     OW96671   6.356  11.805  13.916
31611SOL    HW196672   6.349  11.877  13.978
31611SOL    HW296673   6.428  11.751  13.951
31612SOL     OW96674   9.413  13.908   2.511
31612SOL    HW196675   9.385  13.851   2.440
31612SOL    HW296676   9.478  13.966   2.471
31613SOL     OW96677   7.898   1.342  10.309
31613SOL    HW196678   7.899   1.376  10.220
31613SOL    HW296679   7.831   1.274  10.309
31614SOL     OW96680  14.050   8.837  10.036
31614SOL    HW196681  13.989   8.907  10.060
31614SOL    HW296682  14.136   8.878  10.036
31615SOL     OW96683   2.404   0.461  10.082
31615SOL    HW196684   2.404   0.552  10.053
31615SOL    HW296685   2.422   0.410  10.003
31616SOL     OW96686   8.771   2.531  10.570
31616SOL    HW196687   8.680   2.546  10.544
31616SOL    HW296688   8.822   2.559  10.494
31617SOL     OW96689   8.757   3.836   8.196
31617SOL    HW196690   8.847   3.833   8.162
31617SOL    HW296691   8.724   3.746   8.185
31618SOL     OW96692  10.285   5.505   6.427
31618SOL    HW196693  10.228   5.457   6.367
31618SOL    HW296694  10.372   5.497   6.387
31619SOL     OW96695   8.094   5.633  10.986
31619SOL    HW196696   8.045   5.570  11.038
31619SOL    HW296697   8.029   5.696  10.955
31620SOL     OW96698   3.957   8.288  12.808
31620SOL    HW196699   3.979   8.322  12.721
31620SOL    HW296700   3.861   8.286  12.809
31621SOL     OW96701   5.290   9.371   9.668
31621SOL    HW196702   5.264   9.280   9.679
31621SOL    HW296703   5.209   9.421   9.678
31622SOL     OW96704   0.869   8.017   1.076
31622SOL    HW196705   0.940   8.057   1.127
31622SOL    HW296706   0.914   7.980   0.999
31623SOL     OW96707   5.280   3.910  13.505
31623SOL    HW196708   5.199   3.865  13.530
31623SOL    HW296709   5.254   3.973  13.438
31624SOL     OW96710   6.588   8.876   9.567
31624SOL    HW196711   6.546   8.962   9.576
31624SOL    HW296712   6.678   8.895   9.543
31625SOL     OW96713   8.525   1.487   5.804
31625SOL    HW196714   8.458   1.422   5.826
31625SOL    HW296715   8.553   1.522   5.889
31626SOL     OW96716   9.250   7.976   1.398
31626SOL    HW196717   9.281   8.030   1.470
31626SOL    HW296718   9.331   7.949   1.353
31627SOL     OW96719   0.635   3.443   4.312
31627SOL    HW196720   0.659   3.535   4.297
31627SOL    HW296721   0.700   3.411   4.374
31628SOL     OW96722   9.863  12.258  11.017
31628SOL    HW196723   9.790  12.289  11.072
31628SOL    HW296724   9.911  12.198  11.074
31629SOL     OW96725  13.425  12.907  11.489
31629SOL    HW196726  13.455  12.892  11.579
31629SOL    HW296727  13.427  13.002  11.478
31630SOL     OW96728   5.142  11.555   1.474
31630SOL    HW196729   5.195  11.591   1.403
31630SOL    HW296730   5.063  11.609   1.475
31631SOL     OW96731   6.685   0.273   8.366
31631SOL    HW196732   6.620   0.319   8.419
31631SOL    HW296733   6.739   0.226   8.429
31632SOL     OW96734   9.016  12.724   0.922
31632SOL    HW196735   9.053  12.802   0.963
31632SOL    HW296736   8.931  12.752   0.887
31633SOL     OW96737  13.628  10.641   1.900
31633SOL    HW196738  13.712  10.686   1.886
31633SOL    HW296739  13.568  10.685   1.840
31634SOL     OW96740   7.467   5.348   1.698
31634SOL    HW196741   7.445   5.388   1.782
31634SOL    HW296742   7.385   5.351   1.647
31635SOL     OW96743   3.853   0.386   4.454
31635SOL    HW196744   3.948   0.378   4.446
31635SOL    HW296745   3.818   0.345   4.375
31636SOL     OW96746  11.899  11.278   1.457
31636SOL    HW196747  11.831  11.346   1.459
31636SOL    HW296748  11.856  11.201   1.494
31637SOL     OW96749   3.706  14.691  10.729
31637SOL    HW196750   3.722  14.597  10.734
31637SOL    HW296751   3.791  14.731  10.746
31638SOL     OW96752   2.990  14.142   5.932
31638SOL    HW196753   2.936  14.111   6.005
31638SOL    HW296754   2.963  14.232   5.917
31639SOL     OW96755  12.009  13.517  10.253
31639SOL    HW196756  12.036  13.482  10.337
31639SOL    HW296757  11.998  13.611  10.269
31640SOL     OW96758   8.706   7.759   9.938
31640SOL    HW196759   8.767   7.813   9.887
31640SOL    HW296760   8.619   7.790   9.912
31641SOL     OW96761  10.023   7.879   2.678
31641SOL    HW196762   9.958   7.808   2.681
31641SOL    HW296763  10.042   7.896   2.771
31642SOL     OW96764   7.355  12.534   3.457
31642SOL    HW196765   7.388  12.610   3.506
31642SOL    HW296766   7.379  12.459   3.510
31643SOL     OW96767  10.862  12.140   0.777
31643SOL    HW196768  10.903  12.227   0.770
31643SOL    HW296769  10.924  12.081   0.733
31644SOL     OW96770  11.935  10.240   7.656
31644SOL    HW196771  12.006  10.255   7.719
31644SOL    HW296772  11.959  10.293   7.580
31645SOL     OW96773  12.013   7.371   4.252
31645SOL    HW196774  12.046   7.435   4.315
31645SOL    HW296775  11.972   7.424   4.184
31646SOL     OW96776   7.793   8.671  10.894
31646SOL    HW196777   7.705   8.663  10.857
31646SOL    HW296778   7.792   8.613  10.970
31647SOL     OW96779   7.600   0.761   0.987
31647SOL    HW196780   7.524   0.718   1.025
31647SOL    HW296781   7.570   0.850   0.968
31648SOL     OW96782  11.425   8.158  12.207
31648SOL    HW196783  11.419   8.231  12.268
31648SOL    HW296784  11.474   8.192  12.133
31649SOL     OW96785   8.423   7.328   5.449
31649SOL    HW196786   8.503   7.281   5.424
31649SOL    HW296787   8.358   7.300   5.385
31650SOL     OW96788  14.502  13.657  13.915
31650SOL    HW196789  14.409  13.675  13.929
31650SOL    HW296790  14.544  13.744  13.918
31651SOL     OW96791   3.011   5.742  13.813
31651SOL    HW196792   2.953   5.712  13.744
31651SOL    HW296793   3.083   5.786  13.767
31652SOL     OW96794   9.913   3.175   2.160
31652SOL    HW196795   9.874   3.090   2.142
31652SOL    HW296796   9.980   3.185   2.093
31653SOL     OW96797   9.294   1.637   6.582
31653SOL    HW196798   9.280   1.688   6.502
31653SOL    HW296799   9.361   1.573   6.558
31654SOL     OW96800   7.439   7.720   0.473
31654SOL    HW196801   7.447   7.701   0.566
31654SOL    HW296802   7.449   7.636   0.430
31655SOL     OW96803  10.303  14.016   9.808
31655SOL    HW196804  10.353  14.044   9.884
31655SOL    HW296805  10.276  13.926   9.828
31656SOL     OW96806   3.931  12.449   4.108
31656SOL    HW196807   3.836  12.459   4.116
31656SOL    HW296808   3.966  12.488   4.188
31657SOL     OW96809  13.630   6.984  11.529
31657SOL    HW196810  13.629   6.915  11.596
31657SOL    HW296811  13.538   7.007  11.516
31658SOL     OW96812  14.478  11.890   1.790
31658SOL    HW196813  14.485  11.829   1.716
31658SOL    HW296814  14.425  11.962   1.758
31659SOL     OW96815   3.379   3.822   3.684
31659SOL    HW196816   3.330   3.894   3.722
31659SOL    HW296817   3.468   3.832   3.719
31660SOL     OW96818   7.516   9.631  13.052
31660SOL    HW196819   7.482   9.588  12.973
31660SOL    HW296820   7.447   9.620  13.117
31661SOL     OW96821   4.469   8.971   8.343
31661SOL    HW196822   4.521   8.995   8.420
31661SOL    HW296823   4.396   8.920   8.379
31662SOL     OW96824   7.129   5.159   4.370
31662SOL    HW196825   7.079   5.221   4.318
31662SOL    HW296826   7.185   5.214   4.425
31663SOL     OW96827   2.076  10.678  14.226
31663SOL    HW196828   2.167  10.681  14.256
31663SOL    HW296829   2.036  10.755  14.265
31664SOL     OW96830   7.294   9.844  10.661
31664SOL    HW196831   7.229   9.914  10.670
31664SOL    HW296832   7.245   9.770  10.627
31665SOL     OW96833   0.608   0.449   2.170
31665SOL    HW196834   0.642   0.461   2.082
31665SOL    HW296835   0.548   0.375   2.163
31666SOL     OW96836   9.478  12.922  14.470
31666SOL    HW196837   9.494  13.009  14.431
31666SOL    HW296838   9.480  12.862  14.395
31667SOL     OW96839   3.047   3.266   1.403
31667SOL    HW196840   3.062   3.210   1.327
31667SOL    HW296841   2.954   3.289   1.398
31668SOL     OW96842  14.506   9.870   1.866
31668SOL    HW196843  14.430   9.830   1.824
31668SOL    HW296844  14.525   9.814   1.941
31669SOL     OW96845  13.214   8.178   3.002
31669SOL    HW196846  13.292   8.179   3.056
31669SOL    HW296847  13.155   8.116   3.045
31670SOL     OW96848  10.015   1.037  10.547
31670SOL    HW196849  10.101   1.023  10.507
31670SOL    HW296850  10.013   1.130  10.567
31671SOL     OW96851  11.571   3.017  11.946
31671SOL    HW196852  11.575   3.099  11.995
31671SOL    HW296853  11.568   2.949  12.014
31672SOL     OW96854   3.411   0.557  10.826
31672SOL    HW196855   3.402   0.612  10.904
31672SOL    HW296856   3.494   0.510  10.840
31673SOL     OW96857   4.633   7.548  11.513
31673SOL    HW196858   4.682   7.569  11.593
31673SOL    HW296859   4.686   7.480  11.470
31674SOL     OW96860  11.407   9.316  13.313
31674SOL    HW196861  11.410   9.309  13.408
31674SOL    HW296862  11.498   9.306  13.284
31675SOL     OW96863   4.756  14.751   4.624
31675SOL    HW196864   4.778  14.838   4.589
31675SOL    HW296865   4.837  14.701   4.615
31676SOL     OW96866   1.825   0.063   6.687
31676SOL    HW196867   1.743   0.051   6.734
31676SOL    HW296868   1.814   0.014   6.606
31677SOL     OW96869   8.662  10.960  13.693
31677SOL    HW196870   8.615  10.968  13.610
31677SOL    HW296871   8.606  10.902  13.746
31678SOL     OW96872   4.908  12.588   3.920
31678SOL    HW196873   4.958  12.647   3.976
31678SOL    HW296874   4.880  12.517   3.978
31679SOL     OW96875   1.931  11.439   0.125
31679SOL    HW196876   1.859  11.379   0.106
31679SOL    HW296877   2.010  11.390   0.102
31680SOL     OW96878   3.939  13.480  13.573
31680SOL    HW196879   3.850  13.462  13.603
31680SOL    HW296880   3.947  13.431  13.491
31681SOL     OW96881   1.372   0.290  10.841
31681SOL    HW196882   1.367   0.334  10.756
31681SOL    HW296883   1.282   0.289  10.873
31682SOL     OW96884   2.981   0.828   2.110
31682SOL    HW196885   2.960   0.904   2.164
31682SOL    HW296886   3.076   0.819   2.118
31683SOL     OW96887   8.857   5.131  11.248
31683SOL    HW196888   8.828   5.042  11.270
31683SOL    HW296889   8.944   5.118  11.210
31684SOL     OW96890   0.093   0.399   1.064
31684SOL    HW196891   0.012   0.364   1.027
31684SOL    HW296892   0.159   0.331   1.045
31685SOL     OW96893   0.178  13.223   5.592
31685SOL    HW196894   0.209  13.177   5.670
31685SOL    HW296895   0.167  13.154   5.526
31686SOL     OW96896   3.439   1.822  13.666
31686SOL    HW196897   3.468   1.731  13.656
31686SOL    HW296898   3.520   1.872  13.682
31687SOL     OW96899   8.409   8.350   4.041
31687SOL    HW196900   8.436   8.393   4.122
31687SOL    HW296901   8.396   8.258   4.066
31688SOL     OW96902  11.604   8.384   8.238
31688SOL    HW196903  11.568   8.468   8.209
31688SOL    HW296904  11.602   8.329   8.160
31689SOL     OW96905   0.749   1.984  12.207
31689SOL    HW196906   0.691   2.039  12.259
31689SOL    HW296907   0.789   2.044  12.144
31690SOL     OW96908  14.201  12.505   6.039
31690SOL    HW196909  14.250  12.587   6.045
31690SOL    HW296910  14.110  12.531   6.055
31691SOL     OW96911  12.633   5.792   1.468
31691SOL    HW196912  12.571   5.791   1.395
31691SOL    HW296913  12.583   5.759   1.542
31692SOL     OW96914  14.493   5.189   7.165
31692SOL    HW196915  14.522   5.274   7.198
31692SOL    HW296916  14.567   5.130   7.181
31693SOL     OW96917   5.718   1.448  12.726
31693SOL    HW196918   5.748   1.511  12.661
31693SOL    HW296919   5.795   1.396  12.747
31694SOL     OW96920   7.920   2.063   6.025
31694SOL    HW196921   7.885   1.994   6.081
31694SOL    HW296922   7.850   2.128   6.019
31695SOL     OW96923   9.345   0.100  13.997
31695SOL    HW196924   9.419   0.153  13.965
31695SOL    HW296925   9.371   0.073  14.085
31696SOL     OW96926   1.895   0.303  10.473
31696SOL    HW196927   1.828   0.362  10.439
31696SOL    HW296928   1.872   0.291  10.565
31697SOL     OW96929   9.882   3.554   0.402
31697SOL    HW196930   9.794   3.517   0.390
31697SOL    HW296931   9.925   3.495   0.464
31698SOL     OW96932   0.114   9.917   5.957
31698SOL    HW196933   0.037   9.867   5.982
31698SOL    HW296934   0.100  10.004   5.994
31699SOL     OW96935  11.052  10.047  10.067
31699SOL    HW196936  11.056  10.142  10.075
31699SOL    HW296937  10.962  10.024  10.090
31700SOL     OW96938   3.293   4.505  14.249
31700SOL    HW196939   3.335   4.576  14.201
31700SOL    HW296940   3.224   4.474  14.192
31701SOL     OW96941   4.112   4.909   6.324
31701SOL    HW196942   4.093   4.899   6.230
31701SOL    HW296943   4.026   4.919   6.365
31702SOL     OW96944  10.980   0.768  13.338
31702SOL    HW196945  11.071   0.736  13.342
31702SOL    HW296946  10.983   0.853  13.382
31703SOL     OW96947   9.901  14.240  13.290
31703SOL    HW196948   9.806  14.245  13.286
31703SOL    HW296949   9.928  14.320  13.335
31704SOL     OW96950   9.009  12.901   6.740
31704SOL    HW196951   8.942  12.841   6.773
31704SOL    HW296952   8.981  12.987   6.771
31705SOL     OW96953   7.502   3.805   6.793
31705SOL    HW196954   7.511   3.817   6.888
31705SOL    HW296955   7.426   3.859   6.769
31706SOL     OW96956   6.045   1.695  11.339
31706SOL    HW196957   6.075   1.772  11.290
31706SOL    HW296958   5.982   1.652  11.280
31707SOL     OW96959  10.094  13.828  12.885
31707SOL    HW196960  10.081  13.787  12.799
31707SOL    HW296961  10.188  13.841  12.891
31708SOL     OW96962   8.145   5.642  12.062
31708SOL    HW196963   8.238   5.661  12.076
31708SOL    HW296964   8.101   5.684  12.136
31709SOL     OW96965  13.596  10.286   6.583
31709SOL    HW196966  13.564  10.361   6.633
31709SOL    HW296967  13.535  10.277   6.510
31710SOL     OW96968  10.089   1.957  13.587
31710SOL    HW196969  10.072   2.027  13.650
31710SOL    HW296970  10.169   1.914  13.618
31711SOL     OW96971   6.503   0.917   3.013
31711SOL    HW196972   6.484   0.960   2.929
31711SOL    HW296973   6.557   0.842   2.989
31712SOL     OW96974   8.314   5.745   6.396
31712SOL    HW196975   8.248   5.810   6.371
31712SOL    HW296976   8.263   5.670   6.428
31713SOL     OW96977  13.575   8.584   3.086
31713SOL    HW196978  13.565   8.679   3.078
31713SOL    HW296979  13.647   8.562   3.027
31714SOL     OW96980   9.496  13.221  13.894
31714SOL    HW196981   9.557  13.170  13.840
31714SOL    HW296982   9.536  13.308  13.900
31715SOL     OW96983   8.083   6.622   9.366
31715SOL    HW196984   8.040   6.666   9.439
31715SOL    HW296985   8.073   6.529   9.385
31716SOL     OW96986   8.269   5.722   2.721
31716SOL    HW196987   8.177   5.748   2.734
31716SOL    HW296988   8.320   5.791   2.763
31717SOL     OW96989   9.492   8.392   0.446
31717SOL    HW196990   9.574   8.439   0.428
31717SOL    HW296991   9.432   8.460   0.478
31718SOL     OW96992   0.777  12.306   8.081
31718SOL    HW196993   0.766  12.388   8.129
31718SOL    HW296994   0.820  12.330   7.999
31719SOL     OW96995  13.132   9.717  11.310
31719SOL    HW196996  13.204   9.669  11.348
31719SOL    HW296997  13.152   9.809  11.327
31720SOL     OW96998   7.072  14.314   3.213
31720SOL    HW196999   7.064  14.222   3.240
31720SOL    HW297000   7.069  14.311   3.117
31721SOL     OW97001  10.960   0.600   9.572
31721SOL    HW197002  11.037   0.653   9.594
31721SOL    HW297003  10.904   0.606   9.650
31722SOL     OW97004   8.078   0.955   8.069
31722SOL    HW197005   8.152   1.011   8.048
31722SOL    HW297006   8.006   1.016   8.087
31723SOL     OW97007  14.604  11.236   3.220
31723SOL    HW197008  14.616  11.317   3.269
31723SOL    HW297009  14.692  11.202   3.206
31724SOL     OW97010  14.619  10.040   3.139
31724SOL    HW197011  14.526  10.064   3.140
31724SOL    HW297012  14.632  10.001   3.052
31725SOL     OW97013   4.990   8.504  12.730
31725SOL    HW197014   4.901   8.531  12.706
31725SOL    HW297015   5.046   8.573  12.694
31726SOL     OW97016   2.428   8.811   7.984
31726SOL    HW197017   2.474   8.887   8.018
31726SOL    HW297018   2.458   8.803   7.893
31727SOL     OW97019   6.699  13.375   3.254
31727SOL    HW197020   6.774  13.383   3.195
31727SOL    HW297021   6.697  13.282   3.277
31728SOL     OW97022   4.286   7.624   8.175
31728SOL    HW197023   4.333   7.690   8.226
31728SOL    HW297024   4.261   7.558   8.239
31729SOL     OW97025   2.436  13.622  12.452
31729SOL    HW197026   2.402  13.707  12.423
31729SOL    HW297027   2.487  13.642  12.531
31730SOL     OW97028   1.076  13.909   7.698
31730SOL    HW197029   1.120  13.979   7.746
31730SOL    HW297030   1.105  13.921   7.607
31731SOL     OW97031   0.092   9.247  14.781
31731SOL    HW197032   0.102   9.190  14.705
31731SOL    HW297033   0.180   9.278  14.800
31732SOL     OW97034   3.111   6.278  13.010
31732SOL    HW197035   3.078   6.323  13.088
31732SOL    HW297036   3.190   6.327  12.987
31733SOL     OW97037   1.443   2.733  13.557
31733SOL    HW197038   1.465   2.746  13.650
31733SOL    HW297039   1.401   2.814  13.531
31734SOL     OW97040  10.193   3.529   8.974
31734SOL    HW197041  10.140   3.597   8.932
31734SOL    HW297042  10.218   3.566   9.058
31735SOL     OW97043  10.436  12.164  14.253
31735SOL    HW197044  10.481  12.247  14.269
31735SOL    HW297045  10.344  12.184  14.267
31736SOL     OW97046  11.213   3.033   3.217
31736SOL    HW197047  11.282   2.968   3.206
31736SOL    HW297048  11.134   2.982   3.231
31737SOL     OW97049   0.817   4.961   0.543
31737SOL    HW197050   0.736   4.925   0.579
31737SOL    HW297051   0.857   4.888   0.496
31738SOL     OW97052   7.859  11.379  12.178
31738SOL    HW197053   7.911  11.305  12.147
31738SOL    HW297054   7.917  11.454  12.171
31739SOL     OW97055   9.337   3.887  10.490
31739SOL    HW197056   9.401   3.845  10.547
31739SOL    HW297057   9.253   3.851  10.518
31740SOL     OW97058  12.872  14.804   3.401
31740SOL    HW197059  12.898  14.872   3.463
31740SOL    HW297060  12.926  14.822   3.323
31741SOL     OW97061  13.438   3.200  10.446
31741SOL    HW197062  13.381   3.182  10.521
31741SOL    HW297063  13.386   3.256  10.388
31742SOL     OW97064   4.445   9.952   7.673
31742SOL    HW197065   4.505   9.907   7.731
31742SOL    HW297066   4.481   9.939   7.586
31743SOL     OW97067  14.327   8.840  10.480
31743SOL    HW197068  14.264   8.777  10.516
31743SOL    HW297069  14.356   8.800  10.398
31744SOL     OW97070   7.185   3.418   5.773
31744SOL    HW197071   7.118   3.350   5.766
31744SOL    HW297072   7.231   3.416   5.689
31745SOL     OW97073   6.314  12.099  10.978
31745SOL    HW197074   6.409  12.115  10.976
31745SOL    HW297075   6.277  12.177  11.017
31746SOL     OW97076  11.496  11.315   2.181
31746SOL    HW197077  11.486  11.288   2.089
31746SOL    HW297078  11.411  11.353   2.203
31747SOL     OW97079   4.581   1.802   7.196
31747SOL    HW197080   4.622   1.762   7.273
31747SOL    HW297081   4.497   1.835   7.228
31748SOL     OW97082  10.106   2.891   3.320
31748SOL    HW197083  10.069   2.818   3.270
31748SOL    HW297084  10.115   2.857   3.409
31749SOL     OW97085   9.334   0.871   5.886
31749SOL    HW197086   9.323   0.816   5.808
31749SOL    HW297087   9.423   0.850   5.917
31750SOL     OW97088  13.329   8.026   3.890
31750SOL    HW197089  13.398   8.048   3.828
31750SOL    HW297090  13.331   8.096   3.955
31751SOL     OW97091  13.438  12.038   1.347
31751SOL    HW197092  13.431  12.128   1.314
31751SOL    HW297093  13.508  11.998   1.296
31752SOL     OW97094   1.211   2.905   8.709
31752SOL    HW197095   1.150   2.975   8.686
31752SOL    HW297096   1.155   2.834   8.740
31753SOL     OW97097  11.145   8.098   5.640
31753SOL    HW197098  11.084   8.041   5.593
31753SOL    HW297099  11.089   8.148   5.701
31754SOL     OW97100  13.774  11.918   1.927
31754SOL    HW197101  13.825  11.948   2.002
31754SOL    HW297102  13.832  11.929   1.852
31755SOL     OW97103   6.113   8.406   4.479
31755SOL    HW197104   6.107   8.319   4.518
31755SOL    HW297105   6.179   8.452   4.530
31756SOL     OW97106   0.193   4.382  11.509
31756SOL    HW197107   0.195   4.458  11.451
31756SOL    HW297108   0.141   4.317  11.462
31757SOL     OW97109   4.907   3.056   8.735
31757SOL    HW197110   4.909   3.127   8.799
31757SOL    HW297111   4.830   3.073   8.681
31758SOL     OW97112  10.912   4.566   1.577
31758SOL    HW197113  10.958   4.488   1.546
31758SOL    HW297114  10.819   4.544   1.567
31759SOL     OW97115  12.781   1.974  10.807
31759SOL    HW197116  12.690   1.976  10.779
31759SOL    HW297117  12.803   1.880  10.808
31760SOL     OW97118   2.159   0.541   8.881
31760SOL    HW197119   2.214   0.503   8.950
31760SOL    HW297120   2.192   0.502   8.800
31761SOL     OW97121  10.984   1.750   0.335
31761SOL    HW197122  11.057   1.798   0.296
31761SOL    HW297123  10.966   1.679   0.273
31762SOL     OW97124  10.769  10.306  13.068
31762SOL    HW197125  10.828  10.314  12.992
31762SOL    HW297126  10.702  10.373  13.053
31763SOL     OW97127   0.831   3.546   4.986
31763SOL    HW197128   0.876   3.526   5.068
31763SOL    HW297129   0.892   3.602   4.938
31764SOL     OW97130   4.468   1.430   2.336
31764SOL    HW197131   4.475   1.349   2.286
31764SOL    HW297132   4.541   1.427   2.398
31765SOL     OW97133   0.087   2.666  12.080
31765SOL    HW197134   0.023   2.700  12.143
31765SOL    HW297135   0.162   2.725  12.088
31766SOL     OW97136  11.170   1.548   3.215
31766SOL    HW197137  11.098   1.494   3.183
31766SOL    HW297138  11.129   1.632   3.237
31767SOL     OW97139   2.582  14.650  13.415
31767SOL    HW197140   2.595  14.557  13.396
31767SOL    HW297141   2.639  14.695  13.352
31768SOL     OW97142  14.269   2.381   5.724
31768SOL    HW197143  14.316   2.344   5.649
31768SOL    HW297144  14.176   2.369   5.702
31769SOL     OW97145   5.556   8.212   7.957
31769SOL    HW197146   5.591   8.123   7.967
31769SOL    HW297147   5.602   8.262   8.025
31770SOL     OW97148   8.824   2.853   0.907
31770SOL    HW197149   8.857   2.920   0.967
31770SOL    HW297150   8.898   2.830   0.852
31771SOL     OW97151   7.412  14.105   5.217
31771SOL    HW197152   7.354  14.058   5.276
31771SOL    HW297153   7.354  14.143   5.151
31772SOL     OW97154   8.069   4.834   5.275
31772SOL    HW197155   8.036   4.784   5.200
31772SOL    HW297156   8.155   4.795   5.294
31773SOL     OW97157   2.423   2.887   2.869
31773SOL    HW197158   2.358   2.953   2.844
31773SOL    HW297159   2.373   2.806   2.879
31774SOL     OW97160  14.515   7.187   6.667
31774SOL    HW197161  14.505   7.096   6.638
31774SOL    HW297162  14.534   7.180   6.761
31775SOL     OW97163  10.624   3.899   9.299
31775SOL    HW197164  10.601   3.895   9.392
31775SOL    HW297165  10.676   3.980   9.291
31776SOL     OW97166   7.278   2.190   4.986
31776SOL    HW197167   7.318   2.105   4.967
31776SOL    HW297168   7.281   2.237   4.903
31777SOL     OW97169   0.618   8.772   6.887
31777SOL    HW197170   0.699   8.781   6.936
31777SOL    HW297171   0.567   8.850   6.909
31778SOL     OW97172   5.880   7.050  11.332
31778SOL    HW197173   5.949   6.992  11.299
31778SOL    HW297174   5.916   7.138  11.321
31779SOL     OW97175   3.538   1.598   7.245
31779SOL    HW197176   3.579   1.670   7.197
31779SOL    HW297177   3.529   1.528   7.180
31780SOL     OW97178   8.220  11.161  12.756
31780SOL    HW197179   8.309  11.198  12.753
31780SOL    HW297180   8.218  11.097  12.685
31781SOL     OW97181   0.648   5.362  12.803
31781SOL    HW197182   0.647   5.326  12.714
31781SOL    HW297183   0.558   5.390  12.818
31782SOL     OW97184   9.807  13.784  12.519
31782SOL    HW197185   9.724  13.823  12.491
31782SOL    HW297186   9.866  13.858  12.529
31783SOL     OW97187   2.446   0.563   5.973
31783SOL    HW197188   2.504   0.574   5.898
31783SOL    HW297189   2.361   0.541   5.935
31784SOL     OW97190   7.160  11.413  12.394
31784SOL    HW197191   7.211  11.491  12.415
31784SOL    HW297192   7.216  11.339  12.419
31785SOL     OW97193   9.406   7.273   6.604
31785SOL    HW197194   9.408   7.288   6.509
31785SOL    HW297195   9.326   7.318   6.633
31786SOL     OW97196  13.082  10.447  14.270
31786SOL    HW197197  13.028  10.403  14.204
31786SOL    HW297198  13.135  10.509  14.219
31787SOL     OW97199   6.240   8.266  10.011
31787SOL    HW197200   6.280   8.263   9.924
31787SOL    HW297201   6.220   8.175  10.031
31788SOL     OW97202  12.361   3.707   2.745
31788SOL    HW197203  12.381   3.743   2.832
31788SOL    HW297204  12.440   3.721   2.694
31789SOL     OW97205   1.536   6.255  10.062
31789SOL    HW197206   1.594   6.279   9.990
31789SOL    HW297207   1.462   6.314  10.053
31790SOL     OW97208   0.944  14.831   6.966
31790SOL    HW197209   0.855  14.821   6.932
31790SOL    HW297210   0.939   0.029   7.028
31791SOL     OW97211  13.873   7.653  10.818
31791SOL    HW197212  13.794   7.613  10.781
31791SOL    HW297213  13.917   7.693  10.743
31792SOL     OW97214   9.200   4.327   8.194
31792SOL    HW197215   9.156   4.388   8.135
31792SOL    HW297216   9.130   4.271   8.227
31793SOL     OW97217   8.065   0.587   7.146
31793SOL    HW197218   8.139   0.554   7.094
31793SOL    HW297219   7.997   0.604   7.082
31794SOL     OW97220   5.735   0.167   1.491
31794SOL    HW197221   5.687   0.091   1.523
31794SOL    HW297222   5.668   0.220   1.447
31795SOL     OW97223   0.082   8.478   7.833
31795SOL    HW197224   0.122   8.551   7.787
31795SOL    HW297225   0.007   8.517   7.879
31796SOL     OW97226  14.050   6.538  14.829
31796SOL    HW197227  14.109   6.490   0.014
31796SOL    HW297228  13.987   6.580   0.014
31797SOL     OW97229   1.609   9.755   0.791
31797SOL    HW197230   1.680   9.766   0.853
31797SOL    HW297231   1.553   9.831   0.804
31798SOL     OW97232   4.505   3.886  11.140
31798SOL    HW197233   4.536   3.819  11.200
31798SOL    HW297234   4.533   3.969  11.179
31799SOL     OW97235   0.717   6.043   2.961
31799SOL    HW197236   0.776   5.967   2.959
31799SOL    HW297237   0.635   6.010   2.924
31800SOL     OW97238  13.942  11.494   3.535
31800SOL    HW197239  14.007  11.445   3.586
31800SOL    HW297240  13.954  11.463   3.445
31801SOL     OW97241  10.011   1.091   5.821
31801SOL    HW197242  10.054   1.032   5.759
31801SOL    HW297243  10.072   1.164   5.832
31802SOL     OW97244  11.448   3.508   3.394
31802SOL    HW197245  11.392   3.435   3.367
31802SOL    HW297246  11.531   3.493   3.348
31803SOL     OW97247   9.882  11.391   0.650
31803SOL    HW197248   9.838  11.426   0.573
31803SOL    HW297249   9.811  11.371   0.711
31804SOL     OW97250   3.828   5.060  13.850
31804SOL    HW197251   3.920   5.040  13.830
31804SOL    HW297252   3.820   5.154  13.831
31805SOL     OW97253   6.091   3.088  13.361
31805SOL    HW197254   5.997   3.071  13.352
31805SOL    HW297255   6.129   3.058  13.278
31806SOL     OW97256  14.074   9.263  14.380
31806SOL    HW197257  14.041   9.274  14.469
31806SOL    HW297258  13.997   9.279  14.325
31807SOL     OW97259  12.881  12.436  12.524
31807SOL    HW197260  12.883  12.530  12.543
31807SOL    HW297261  12.962  12.402  12.562
31808SOL     OW97262   1.168   7.589  12.443
31808SOL    HW197263   1.091   7.642  12.460
31808SOL    HW297264   1.145   7.536  12.366
31809SOL     OW97265  11.862  14.675   8.011
31809SOL    HW197266  11.790  14.675   8.074
31809SOL    HW297267  11.874  14.767   7.988
31810SOL     OW97268   6.263   6.968  10.600
31810SOL    HW197269   6.344   6.936  10.561
31810SOL    HW297270   6.194   6.924  10.551
31811SOL     OW97271  12.128   3.017   1.918
31811SOL    HW197272  12.204   3.060   1.958
31811SOL    HW297273  12.164   2.938   1.877
31812SOL     OW97274  10.958   8.839  10.756
31812SOL    HW197275  11.007   8.759  10.735
31812SOL    HW297276  11.023   8.897  10.797
31813SOL     OW97277   1.232   3.185  10.424
31813SOL    HW197278   1.155   3.211  10.375
31813SOL    HW297279   1.203   3.111  10.478
31814SOL     OW97280   0.642  14.868  11.136
31814SOL    HW197281   0.656  14.774  11.153
31814SOL    HW297282   0.549   0.001  11.115
31815SOL     OW97283   5.005  13.746  13.734
31815SOL    HW197284   5.030  13.784  13.818
31815SOL    HW297285   4.944  13.809  13.696
31816SOL     OW97286  10.947   1.286  12.740
31816SOL    HW197287  10.992   1.220  12.793
31816SOL    HW297288  10.932   1.359  12.800
31817SOL     OW97289   7.049   3.722   1.090
31817SOL    HW197290   7.085   3.687   1.171
31817SOL    HW297291   6.956   3.699   1.094
31818SOL     OW97292   2.416   8.270   3.118
31818SOL    HW197293   2.384   8.204   3.179
31818SOL    HW297294   2.343   8.286   3.059
31819SOL     OW97295   5.655   1.933  13.254
31819SOL    HW197296   5.632   1.932  13.346
31819SOL    HW297297   5.575   1.907  13.208
31820SOL     OW97298   8.200   9.203  10.837
31820SOL    HW197299   8.139   9.173  10.903
31820SOL    HW297300   8.269   9.248  10.886
31821SOL     OW97301  13.129   7.157   7.196
31821SOL    HW197302  13.173   7.215   7.133
31821SOL    HW297303  13.200   7.117   7.245
31822SOL     OW97304   9.781   5.121   4.206
31822SOL    HW197305   9.839   5.191   4.177
31822SOL    HW297306   9.827   5.041   4.184
31823SOL     OW97307   3.033  11.384   0.444
31823SOL    HW197308   3.107  11.339   0.485
31823SOL    HW297309   2.956  11.340   0.480
31824SOL     OW97310   1.153   9.907  13.376
31824SOL    HW197311   1.243   9.909  13.408
31824SOL    HW297312   1.111   9.983  13.417
31825SOL     OW97313   7.849   5.680   8.848
31825SOL    HW197314   7.908   5.755   8.857
31825SOL    HW297315   7.865   5.647   8.760
31826SOL     OW97316   9.404   5.797   6.281
31826SOL    HW197317   9.370   5.837   6.201
31826SOL    HW297318   9.399   5.866   6.347
31827SOL     OW97319   5.499  10.259  13.745
31827SOL    HW197320   5.573  10.318  13.762
31827SOL    HW297321   5.422  10.310  13.768
31828SOL     OW97322  12.615  11.263   6.587
31828SOL    HW197323  12.696  11.311   6.570
31828SOL    HW297324  12.625  11.180   6.540
31829SOL     OW97325   5.916   9.865   9.010
31829SOL    HW197326   5.916   9.771   9.029
31829SOL    HW297327   5.823   9.890   9.013
31830SOL     OW97328  13.036   2.422  13.190
31830SOL    HW197329  12.971   2.419  13.119
31830SOL    HW297330  13.098   2.489  13.163
31831SOL     OW97331   6.449  10.167  10.554
31831SOL    HW197332   6.403  10.094  10.595
31831SOL    HW297333   6.416  10.171  10.465
31832SOL     OW97334   4.322  13.242  13.611
31832SOL    HW197335   4.399  13.297  13.627
31832SOL    HW297336   4.248  13.299  13.633
31833SOL     OW97337   1.397   3.050   6.058
31833SOL    HW197338   1.343   3.093   6.125
31833SOL    HW297339   1.451   2.988   6.107
31834SOL     OW97340  13.154   6.539   6.698
31834SOL    HW197341  13.163   6.560   6.605
31834SOL    HW297342  13.103   6.458   6.699
31835SOL     OW97343  11.452   9.712   2.364
31835SOL    HW197344  11.446   9.794   2.414
31835SOL    HW297345  11.397   9.727   2.287
31836SOL     OW97346   5.131   4.593  12.783
31836SOL    HW197347   5.139   4.645  12.703
31836SOL    HW297348   5.133   4.658  12.854
31837SOL     OW97349   4.502   6.426   3.395
31837SOL    HW197350   4.593   6.433   3.369
31837SOL    HW297351   4.470   6.349   3.349
31838SOL     OW97352  13.770   4.292   1.603
31838SOL    HW197353  13.749   4.384   1.587
31838SOL    HW297354  13.813   4.263   1.523
31839SOL     OW97355   4.564  14.563   0.028
31839SOL    HW197356   4.515  14.587   0.107
31839SOL    HW297357   4.548  14.469   0.018
31840SOL     OW97358  14.449  13.986   9.529
31840SOL    HW197359  14.365  13.955   9.497
31840SOL    HW297360  14.496  13.907   9.553
31841SOL     OW97361   2.171   6.520   5.732
31841SOL    HW197362   2.238   6.513   5.800
31841SOL    HW297363   2.148   6.429   5.711
31842SOL     OW97364   3.744   4.313  12.129
31842SOL    HW197365   3.723   4.255  12.202
31842SOL    HW297366   3.838   4.303  12.116
31843SOL     OW97367   2.957   0.709  14.694
31843SOL    HW197368   3.027   0.752  14.644
31843SOL    HW297369   2.877   0.729  14.646
31844SOL     OW97370   9.542  10.646  12.845
31844SOL    HW197371   9.471  10.583  12.833
31844SOL    HW297372   9.499  10.724  12.882
31845SOL     OW97373   0.096   2.823   1.299
31845SOL    HW197374   0.107   2.826   1.204
31845SOL    HW297375   0.051   2.740   1.315
31846SOL     OW97376   9.732   8.815   8.788
31846SOL    HW197377   9.744   8.861   8.705
31846SOL    HW297378   9.754   8.880   8.855
31847SOL     OW97379  14.741  14.803   9.739
31847SOL    HW197380  14.795  14.769   9.668
31847SOL    HW297381  14.803  14.851   9.795
31848SOL     OW97382  11.971   8.518   0.625
31848SOL    HW197383  12.006   8.565   0.700
31848SOL    HW297384  12.041   8.522   0.560
31849SOL     OW97385   7.914  11.437  14.226
31849SOL    HW197386   7.850  11.375  14.261
31849SOL    HW297387   7.862  11.496  14.171
31850SOL     OW97388   6.708   0.741   7.171
31850SOL    HW197389   6.655   0.738   7.251
31850SOL    HW297390   6.758   0.822   7.178
31851SOL     OW97391   9.804   5.076   8.278
31851SOL    HW197392   9.861   5.034   8.213
31851SOL    HW297393   9.758   5.144   8.229
31852SOL     OW97394   2.306   9.313   3.518
31852SOL    HW197395   2.237   9.330   3.453
31852SOL    HW297396   2.377   9.273   3.468
31853SOL     OW97397  14.092   8.033   2.188
31853SOL    HW197398  14.079   8.068   2.276
31853SOL    HW297399  14.066   8.105   2.130
31854SOL     OW97400   4.652  10.188  10.579
31854SOL    HW197401   4.705  10.242  10.638
31854SOL    HW297402   4.612  10.123  10.637
31855SOL     OW97403   6.558   3.348   1.187
31855SOL    HW197404   6.487   3.405   1.159
31855SOL    HW297405   6.546   3.337   1.281
31856SOL     OW97406   1.217   4.278   6.998
31856SOL    HW197407   1.263   4.253   6.918
31856SOL    HW297408   1.233   4.205   7.058
31857SOL     OW97409  14.267   8.461   6.028
31857SOL    HW197410  14.351   8.420   6.049
31857SOL    HW297411  14.219   8.393   5.981
31858SOL     OW97412   2.454   0.641   4.610
31858SOL    HW197413   2.538   0.640   4.565
31858SOL    HW297414   2.390   0.659   4.541
31859SOL     OW97415   8.439   8.684   1.202
31859SOL    HW197416   8.443   8.675   1.297
31859SOL    HW297417   8.346   8.671   1.181
31860SOL     OW97418   6.694  13.296  11.196
31860SOL    HW197419   6.633  13.339  11.256
31860SOL    HW297420   6.667  13.204  11.196
31861SOL     OW97421   4.596  14.486  13.941
31861SOL    HW197422   4.551  14.570  13.930
31861SOL    HW297423   4.689  14.509  13.949
31862SOL     OW97424   0.167   2.668   8.129
31862SOL    HW197425   0.253   2.687   8.167
31862SOL    HW297426   0.141   2.585   8.170
31863SOL     OW97427  11.419   2.482  13.962
31863SOL    HW197428  11.344   2.527  13.922
31863SOL    HW297429  11.434   2.407  13.905
31864SOL     OW97430   9.976  13.519   7.409
31864SOL    HW197431  10.054  13.483   7.368
31864SOL    HW297432   9.988  13.614   7.404
31865SOL     OW97433   0.714   3.185   5.447
31865SOL    HW197434   0.693   3.243   5.374
31865SOL    HW297435   0.779   3.124   5.411
31866SOL     OW97436  12.973  12.235   8.959
31866SOL    HW197437  13.031  12.310   8.971
31866SOL    HW297438  12.910  12.263   8.893
31867SOL     OW97439   8.103   5.899   5.172
31867SOL    HW197440   8.147   5.911   5.256
31867SOL    HW297441   8.159   5.945   5.109
31868SOL     OW97442   5.406   8.418   8.663
31868SOL    HW197443   5.465   8.471   8.610
31868SOL    HW297444   5.414   8.329   8.628
31869SOL     OW97445  13.505   0.541   8.050
31869SOL    HW197446  13.512   0.515   8.141
31869SOL    HW297447  13.422   0.503   8.020
31870SOL     OW97448   6.813   3.640   0.327
31870SOL    HW197449   6.782   3.618   0.239
31870SOL    HW297450   6.844   3.557   0.363
31871SOL     OW97451  13.578  10.355  10.628
31871SOL    HW197452  13.521  10.287  10.593
31871SOL    HW297453  13.519  10.410  10.681
31872SOL     OW97454   8.542  11.415   3.178
31872SOL    HW197455   8.521  11.437   3.087
31872SOL    HW297456   8.537  11.320   3.181
31873SOL     OW97457   6.818   2.178  12.952
31873SOL    HW197458   6.754   2.128  12.902
31873SOL    HW297459   6.787   2.269  12.946
31874SOL     OW97460  13.198  13.993   3.932
31874SOL    HW197461  13.191  14.027   4.021
31874SOL    HW297462  13.221  14.069   3.879
31875SOL     OW97463   8.527   2.985   6.182
31875SOL    HW197464   8.592   2.983   6.252
31875SOL    HW297465   8.506   2.893   6.165
31876SOL     OW97466  12.705   4.958   1.712
31876SOL    HW197467  12.634   4.978   1.651
31876SOL    HW297468  12.681   4.873   1.750
31877SOL     OW97469   9.334   0.881  12.161
31877SOL    HW197470   9.266   0.841  12.107
31877SOL    HW297471   9.294   0.891  12.247
31878SOL     OW97472  14.303  13.937   2.454
31878SOL    HW197473  14.304  13.843   2.470
31878SOL    HW297474  14.244  13.949   2.381
31879SOL     OW97475  11.850  11.826   3.799
31879SOL    HW197476  11.938  11.817   3.762
31879SOL    HW297477  11.862  11.877   3.879
31880SOL     OW97478   3.038   6.517  14.691
31880SOL    HW197479   3.030   6.490  14.600
31880SOL    HW297480   3.066   6.609  14.686
31881SOL     OW97481   7.670   9.788   8.280
31881SOL    HW197482   7.580   9.766   8.260
31881SOL    HW297483   7.667   9.881   8.303
31882SOL     OW97484   8.858  11.669   4.466
31882SOL    HW197485   8.947  11.698   4.486
31882SOL    HW297486   8.807  11.750   4.464
31883SOL     OW97487   5.687   5.589   2.997
31883SOL    HW197488   5.753   5.564   3.060
31883SOL    HW297489   5.647   5.668   3.033
31884SOL     OW97490   5.997  10.474   1.480
31884SOL    HW197491   5.922  10.501   1.427
31884SOL    HW297492   5.988  10.378   1.485
31885SOL     OW97493  10.112   1.198   2.975
31885SOL    HW197494  10.187   1.225   2.923
31885SOL    HW297495  10.046   1.172   2.910
31886SOL     OW97496  13.333   9.946   6.392
31886SOL    HW197497  13.308  10.031   6.355
31886SOL    HW297498  13.251   9.911   6.428
31887SOL     OW97499   3.506  12.144  10.287
31887SOL    HW197500   3.453  12.223  10.301
31887SOL    HW297501   3.476  12.110  10.203
31888SOL     OW97502   5.813  12.181   1.582
31888SOL    HW197503   5.810  12.194   1.487
31888SOL    HW297504   5.738  12.126   1.602
31889SOL     OW97505   6.494   0.631   0.259
31889SOL    HW197506   6.572   0.577   0.274
31889SOL    HW297507   6.499   0.699   0.326
31890SOL     OW97508   7.891   2.497  14.484
31890SOL    HW197509   7.902   2.448  14.565
31890SOL    HW297510   7.826   2.563  14.504
31891SOL     OW97511   3.758  13.032  11.408
31891SOL    HW197512   3.718  13.109  11.366
31891SOL    HW297513   3.694  12.962  11.396
31892SOL     OW97514   2.617   2.758  13.979
31892SOL    HW197515   2.642   2.796  14.064
31892SOL    HW297516   2.538   2.806  13.954
31893SOL     OW97517   0.933   7.951   6.208
31893SOL    HW197518   0.952   8.036   6.247
31893SOL    HW297519   0.990   7.946   6.131
31894SOL     OW97520   9.782  14.234  10.157
31894SOL    HW197521   9.699  14.222  10.112
31894SOL    HW297522   9.848  14.212  10.092
31895SOL     OW97523   1.239   1.743   2.277
31895SOL    HW197524   1.199   1.670   2.326
31895SOL    HW297525   1.212   1.821   2.324
31896SOL     OW97526   5.823   3.802   2.328
31896SOL    HW197527   5.797   3.795   2.420
31896SOL    HW297528   5.741   3.820   2.282
31897SOL     OW97529   8.811   7.186   9.978
31897SOL    HW197530   8.770   7.100   9.991
31897SOL    HW297531   8.828   7.191   9.884
31898SOL     OW97532   6.768   8.829   0.010
31898SOL    HW197533   6.773   8.822  14.789
31898SOL    HW297534   6.727   8.914   0.026
31899SOL     OW97535   6.732   3.830  12.356
31899SOL    HW197536   6.775   3.774  12.420
31899SOL    HW297537   6.641   3.800  12.356
31900SOL     OW97538   5.004   0.640  11.548
31900SOL    HW197539   4.974   0.726  11.519
31900SOL    HW297540   5.097   0.651  11.565
31901SOL     OW97541  10.480   8.516   3.545
31901SOL    HW197542  10.401   8.560   3.512
31901SOL    HW297543  10.462   8.503   3.638
31902SOL     OW97544   9.217  14.149   9.207
31902SOL    HW197545   9.150  14.110   9.263
31902SOL    HW297546   9.221  14.240   9.234
31903SOL     OW97547   2.147   0.032   8.473
31903SOL    HW197548   2.099   0.093   8.417
31903SOL    HW297549   2.239   0.048   8.453
31904SOL     OW97550  12.015  11.125   1.057
31904SOL    HW197551  11.963  11.159   0.983
31904SOL    HW297552  12.105  11.126   1.025
31905SOL     OW97553   4.950   7.150   4.862
31905SOL    HW197554   4.992   7.154   4.947
31905SOL    HW297555   4.930   7.241   4.840
31906SOL     OW97556   6.176   1.918   3.716
31906SOL    HW197557   6.093   1.874   3.705
31906SOL    HW297558   6.182   1.977   3.640
31907SOL     OW97559   1.554   6.999   7.557
31907SOL    HW197560   1.540   6.960   7.470
31907SOL    HW297561   1.477   6.972   7.607
31908SOL     OW97562  13.503   0.720  10.940
31908SOL    HW197563  13.580   0.717  10.996
31908SOL    HW297564  13.439   0.663  10.983
31909SOL     OW97565   0.645   5.980   7.564
31909SOL    HW197566   0.636   6.075   7.574
31909SOL    HW297567   0.699   5.970   7.485
31910SOL     OW97568  14.420   4.230   8.855
31910SOL    HW197569  14.378   4.150   8.821
31910SOL    HW297570  14.469   4.265   8.780
31911SOL     OW97571   0.211   9.459   8.504
31911SOL    HW197572   0.178   9.477   8.592
31911SOL    HW297573   0.181   9.534   8.452
31912SOL     OW97574   0.850   3.645  13.689
31912SOL    HW197575   0.775   3.649  13.749
31912SOL    HW297576   0.817   3.597  13.613
31913SOL     OW97577   8.234   9.263   1.541
31913SOL    HW197578   8.300   9.210   1.585
31913SOL    HW297579   8.159   9.204   1.531
31914SOL     OW97580   4.465  10.031   5.151
31914SOL    HW197581   4.509   9.963   5.202
31914SOL    HW297582   4.519  10.039   5.072
31915SOL     OW97583  12.825  14.089   1.998
31915SOL    HW197584  12.840  14.118   1.908
31915SOL    HW297585  12.730  14.094   2.010
31916SOL     OW97586   7.695   2.742   4.558
31916SOL    HW197587   7.636   2.790   4.500
31916SOL    HW297588   7.764   2.709   4.501
31917SOL     OW97589   2.817   2.859  14.192
31917SOL    HW197590   2.881   2.851  14.263
31917SOL    HW297591   2.851   2.931  14.138
31918SOL     OW97592   4.466   7.823   1.925
31918SOL    HW197593   4.556   7.855   1.912
31918SOL    HW297594   4.427   7.827   1.838
31919SOL     OW97595   4.581   9.933   2.757
31919SOL    HW197596   4.580   9.941   2.662
31919SOL    HW297597   4.538  10.012   2.789
31920SOL     OW97598   8.375  13.109  11.016
31920SOL    HW197599   8.353  13.019  10.992
31920SOL    HW297600   8.399  13.151  10.933
31921SOL     OW97601  14.180   5.119   9.508
31921SOL    HW197602  14.121   5.193   9.520
31921SOL    HW297603  14.140   5.068   9.437
31922SOL     OW97604  14.157   3.980  14.555
31922SOL    HW197605  14.237   3.943  14.519
31922SOL    HW297606  14.105   3.905  14.583
31923SOL     OW97607   7.505   5.952   7.071
31923SOL    HW197608   7.477   5.862   7.054
31923SOL    HW297609   7.459   6.004   7.005
31924SOL     OW97610  10.436   8.190  11.970
31924SOL    HW197611  10.387   8.246  11.910
31924SOL    HW297612  10.415   8.101  11.943
31925SOL     OW97613   0.563   6.625   0.348
31925SOL    HW197614   0.551   6.619   0.443
31925SOL    HW297615   0.611   6.545   0.325
31926SOL     OW97616   4.280   2.276   6.314
31926SOL    HW197617   4.251   2.334   6.244
31926SOL    HW297618   4.356   2.320   6.352
31927SOL     OW97619   4.913   0.889   1.280
31927SOL    HW197620   4.911   0.808   1.229
31927SOL    HW297621   4.822   0.918   1.283
31928SOL     OW97622   5.470   4.007   5.708
31928SOL    HW197623   5.507   3.955   5.779
31928SOL    HW297624   5.546   4.038   5.659
31929SOL     OW97625   1.299   5.322  11.991
31929SOL    HW197626   1.236   5.352  11.926
31929SOL    HW297627   1.246   5.277  12.057
31930SOL     OW97628  13.880  12.191   8.487
31930SOL    HW197629  13.856  12.138   8.411
31930SOL    HW297630  13.804  12.187   8.544
31931SOL     OW97631   5.982  11.117   8.967
31931SOL    HW197632   6.002  11.049   9.032
31931SOL    HW297633   6.067  11.159   8.950
31932SOL     OW97634  11.361   2.487   9.595
31932SOL    HW197635  11.400   2.476   9.681
31932SOL    HW297636  11.267   2.480   9.609
31933SOL     OW97637  10.642   2.887   8.403
31933SOL    HW197638  10.622   2.970   8.358
31933SOL    HW297639  10.557   2.848   8.421
31934SOL     OW97640  10.401  11.242   9.225
31934SOL    HW197641  10.422  11.253   9.317
31934SOL    HW297642  10.329  11.179   9.224
31935SOL     OW97643  14.021  10.434   7.181
31935SOL    HW197644  13.935  10.473   7.193
31935SOL    HW297645  14.058  10.429   7.269
31936SOL     OW97646  12.077   4.055  12.113
31936SOL    HW197647  12.036   4.069  12.198
31936SOL    HW297648  12.087   4.143  12.076
31937SOL     OW97649  10.084  11.260   7.579
31937SOL    HW197650  10.076  11.305   7.496
31937SOL    HW297651  10.156  11.304   7.624
31938SOL     OW97652   8.059  10.091   6.468
31938SOL    HW197653   8.007  10.024   6.422
31938SOL    HW297654   7.994  10.145   6.514
31939SOL     OW97655  12.070   2.126   0.304
31939SOL    HW197656  11.984   2.167   0.298
31939SOL    HW297657  12.077   2.074   0.224
31940SOL     OW97658   7.961   3.709   9.412
31940SOL    HW197659   7.912   3.629   9.391
31940SOL    HW297660   8.042   3.701   9.361
31941SOL     OW97661  13.711   9.029   3.472
31941SOL    HW197662  13.792   9.069   3.440
31941SOL    HW297663  13.721   8.936   3.450
31942SOL     OW97664  14.808  10.384   0.922
31942SOL    HW197665  14.767  10.302   0.952
31942SOL    HW297666   0.025  10.377   0.951
31943SOL     OW97667  11.595   4.529  13.940
31943SOL    HW197668  11.614   4.470  13.868
31943SOL    HW297669  11.570   4.472  14.012
31944SOL     OW97670  10.857   0.856   3.987
31944SOL    HW197671  10.811   0.859   4.071
31944SOL    HW297672  10.862   0.763   3.966
31945SOL     OW97673   1.698  11.995   4.945
31945SOL    HW197674   1.649  11.912   4.949
31945SOL    HW297675   1.745  11.991   4.862
31946SOL     OW97676   8.759   3.866   6.622
31946SOL    HW197677   8.795   3.952   6.645
31946SOL    HW297678   8.828   3.824   6.571
31947SOL     OW97679  14.353  12.618   0.079
31947SOL    HW197680  14.427  12.610   0.140
31947SOL    HW297681  14.323  12.528   0.067
31948SOL     OW97682   1.872   1.519  11.394
31948SOL    HW197683   1.815   1.565  11.455
31948SOL    HW297684   1.856   1.562  11.310
31949SOL     OW97685   2.110  10.653   7.710
31949SOL    HW197686   2.058  10.589   7.660
31949SOL    HW297687   2.196  10.653   7.667
31950SOL     OW97688  11.744   9.230  10.990
31950SOL    HW197689  11.731   9.135  10.988
31950SOL    HW297690  11.781   9.251  10.905
31951SOL     OW97691   9.857   1.795   6.331
31951SOL    HW197692   9.822   1.831   6.249
31951SOL    HW297693   9.907   1.719   6.304
31952SOL     OW97694   3.439  13.316  13.500
31952SOL    HW197695   3.404  13.227  13.495
31952SOL    HW297696   3.491  13.327  13.420
31953SOL     OW97697   3.133   9.474  10.366
31953SOL    HW197698   3.050   9.522  10.368
31953SOL    HW297699   3.108   9.382  10.363
31954SOL     OW97700   9.895   2.228  11.066
31954SOL    HW197701   9.975   2.271  11.097
31954SOL    HW297702   9.889   2.256  10.974
31955SOL     OW97703  11.712  11.882  11.428
31955SOL    HW197704  11.682  11.849  11.513
31955SOL    HW297705  11.697  11.977  11.434
31956SOL     OW97706   4.035   7.617   9.011
31956SOL    HW197707   4.090   7.588   9.084
31956SOL    HW297708   3.950   7.634   9.050
31957SOL     OW97709   5.821   3.411   0.939
31957SOL    HW197710   5.851   3.428   0.850
31957SOL    HW297711   5.726   3.423   0.935
31958SOL     OW97712  10.673   0.239  11.423
31958SOL    HW197713  10.640   0.162  11.378
31958SOL    HW297714  10.635   0.313  11.376
31959SOL     OW97715   7.080   9.018   4.953
31959SOL    HW197716   7.171   8.993   4.966
31959SOL    HW297717   7.082   9.113   4.940
31960SOL     OW97718   0.133   4.839   0.350
31960SOL    HW197719   0.162   4.832   0.259
31960SOL    HW297720   0.210   4.872   0.397
31961SOL     OW97721  13.864   7.772   4.736
31961SOL    HW197722  13.931   7.835   4.711
31961SOL    HW297723  13.782   7.822   4.731
31962SOL     OW97724  13.506   6.708   5.930
31962SOL    HW197725  13.490   6.776   5.865
31962SOL    HW297726  13.596   6.723   5.958
31963SOL     OW97727  13.370   0.341   7.176
31963SOL    HW197728  13.459   0.310   7.190
31963SOL    HW297729  13.356   0.330   7.082
31964SOL     OW97730   1.127  13.031   1.770
31964SOL    HW197731   1.096  13.108   1.721
31964SOL    HW297732   1.214  13.015   1.735
31965SOL     OW97733   0.478  12.249  11.165
31965SOL    HW197734   0.460  12.188  11.236
31965SOL    HW297735   0.557  12.296  11.193
31966SOL     OW97736   1.189   8.599   1.723
31966SOL    HW197737   1.136   8.524   1.695
31966SOL    HW297738   1.241   8.567   1.796
31967SOL     OW97739  13.809   1.016   1.488
31967SOL    HW197740  13.830   0.923   1.481
31967SOL    HW297741  13.891   1.061   1.464
31968SOL     OW97742   5.051  11.551   9.291
31968SOL    HW197743   5.110  11.610   9.244
31968SOL    HW297744   5.093  11.466   9.288
31969SOL     OW97745   2.110   7.440   0.093
31969SOL    HW197746   2.059   7.387   0.155
31969SOL    HW297747   2.050   7.508   0.064
31970SOL     OW97748   5.331   0.910   3.511
31970SOL    HW197749   5.242   0.944   3.500
31970SOL    HW297750   5.381   0.984   3.545
31971SOL     OW97751  14.234  11.550   2.783
31971SOL    HW197752  14.262  11.618   2.722
31971SOL    HW297753  14.262  11.581   2.869
31972SOL     OW97754   3.787  10.641  13.412
31972SOL    HW197755   3.725  10.702  13.453
31972SOL    HW297756   3.869  10.690  13.407
31973SOL     OW97757   6.436   5.568  11.619
31973SOL    HW197758   6.366   5.580  11.556
31973SOL    HW297759   6.502   5.633  11.595
31974SOL     OW97760  11.379   8.237   3.758
31974SOL    HW197761  11.454   8.177   3.761
31974SOL    HW297762  11.331   8.211   3.679
31975SOL     OW97763   5.016   8.546   7.663
31975SOL    HW197764   5.062   8.468   7.692
31975SOL    HW297765   4.936   8.548   7.715
31976SOL     OW97766   6.057   1.801  12.425
31976SOL    HW197767   6.091   1.717  12.456
31976SOL    HW297768   6.038   1.850  12.505
31977SOL     OW97769   5.461   9.370   8.681
31977SOL    HW197770   5.537   9.314   8.667
31977SOL    HW297771   5.488   9.456   8.646
31978SOL     OW97772  14.317   9.310   9.637
31978SOL    HW197773  14.338   9.282   9.548
31978SOL    HW297774  14.276   9.233   9.677
31979SOL     OW97775  14.026   5.086   2.931
31979SOL    HW197776  14.029   5.135   2.849
31979SOL    HW297777  14.076   5.006   2.913
31980SOL     OW97778  12.073   0.955   3.645
31980SOL    HW197779  11.978   0.941   3.644
31980SOL    HW297780  12.096   0.971   3.554
31981SOL     OW97781   5.198   9.231  11.228
31981SOL    HW197782   5.252   9.153  11.236
31981SOL    HW297783   5.110   9.202  11.251
31982SOL     OW97784   4.849   4.878   0.939
31982SOL    HW197785   4.816   4.802   0.988
31982SOL    HW297786   4.876   4.842   0.855
31983SOL     OW97787  10.738   4.416  10.712
31983SOL    HW197788  10.708   4.325  10.714
31983SOL    HW297789  10.668   4.464  10.755
31984SOL     OW97790   4.728  12.141   1.775
31984SOL    HW197791   4.763  12.109   1.692
31984SOL    HW297792   4.644  12.180   1.753
31985SOL     OW97793   7.154  10.365   7.671
31985SOL    HW197794   7.114  10.316   7.743
31985SOL    HW297795   7.095  10.353   7.597
31986SOL     OW97796   6.912  10.628   9.163
31986SOL    HW197797   6.925  10.544   9.207
31986SOL    HW297798   6.865  10.682   9.226
31987SOL     OW97799  13.804  11.712  12.007
31987SOL    HW197800  13.824  11.732  12.099
31987SOL    HW297801  13.853  11.631  11.989
31988SOL     OW97802   9.480  11.020  14.530
31988SOL    HW197803   9.390  11.036  14.500
31988SOL    HW297804   9.535  11.056  14.461
31989SOL     OW97805   1.070  10.589  10.936
31989SOL    HW197806   1.107  10.675  10.958
31989SOL    HW297807   1.143  10.528  10.947
31990SOL     OW97808   0.909   4.430  11.137
31990SOL    HW197809   0.842   4.412  11.203
31990SOL    HW297810   0.981   4.370  11.159
31991SOL     OW97811  11.350  13.097   9.230
31991SOL    HW197812  11.423  13.039   9.208
31991SOL    HW297813  11.343  13.156   9.154
31992SOL     OW97814   5.822   1.966  11.423
31992SOL    HW197815   5.916   1.954  11.438
31992SOL    HW297816   5.817   2.012  11.340
31993SOL     OW97817   8.113  10.080  11.675
31993SOL    HW197818   8.085  10.011  11.736
31993SOL    HW297819   8.138  10.032  11.595
31994SOL     OW97820   9.660   6.314  12.604
31994SOL    HW197821   9.582   6.260  12.616
31994SOL    HW297822   9.733   6.253  12.607
31995SOL     OW97823  11.512   7.919  11.682
31995SOL    HW197824  11.538   7.851  11.620
31995SOL    HW297825  11.524   8.001  11.635
31996SOL     OW97826   5.167  13.791  10.333
31996SOL    HW197827   5.158  13.845  10.412
31996SOL    HW297828   5.087  13.806  10.284
31997SOL     OW97829  12.395   5.498  14.252
31997SOL    HW197830  12.414   5.539  14.336
31997SOL    HW297831  12.308   5.459  14.262
31998SOL     OW97832   8.930   2.842  13.902
31998SOL    HW197833   8.899   2.784  13.972
31998SOL    HW297834   9.013   2.878  13.935
31999SOL     OW97835  13.251   9.422  11.905
31999SOL    HW197836  13.283   9.364  11.973
31999SOL    HW297837  13.315   9.413  11.834
32000SOL     OW97838   5.936  10.085   6.880
32000SOL    HW197839   6.018  10.037   6.870
32000SOL    HW297840   5.889  10.070   6.797
32001SOL     OW97841   4.940   4.410   6.194
32001SOL    HW197842   4.859   4.360   6.194
32001SOL    HW297843   4.963   4.420   6.102
32002SOL     OW97844   9.011   0.411   6.637
32002SOL    HW197845   9.009   0.475   6.708
32002SOL    HW297846   9.056   0.335   6.674
32003SOL     OW97847   2.641   9.579   0.355
32003SOL    HW197848   2.566   9.569   0.414
32003SOL    HW297849   2.616   9.530   0.277
32004SOL     OW97850   4.037   2.646  14.338
32004SOL    HW197851   4.028   2.650  14.243
32004SOL    HW297852   3.962   2.696  14.371
32005SOL     OW97853   6.515   9.335  13.889
32005SOL    HW197854   6.524   9.406  13.952
32005SOL    HW297855   6.462   9.371  13.818
32006SOL     OW97856   4.949   7.497   6.191
32006SOL    HW197857   4.855   7.513   6.192
32006SOL    HW297858   4.969   7.479   6.099
32007SOL     OW97859   8.273   0.583   0.994
32007SOL    HW197860   8.347   0.538   0.953
32007SOL    HW297861   8.229   0.628   0.922
32008SOL     OW97862   6.076   4.346  12.698
32008SOL    HW197863   6.011   4.312  12.636
32008SOL    HW297864   6.083   4.278  12.765
32009SOL     OW97865   2.402   3.597  14.835
32009SOL    HW197866   2.417   3.531  14.766
32009SOL    HW297867   2.404   3.547   0.042
32010SOL     OW97868   3.489   8.959   4.619
32010SOL    HW197869   3.539   9.010   4.683
32010SOL    HW297870   3.469   8.877   4.664
32011SOL     OW97871   9.957  13.922  11.374
32011SOL    HW197872  10.010  13.975  11.314
32011SOL    HW297873   9.870  13.960  11.369
32012SOL     OW97874   2.390   8.469  13.772
32012SOL    HW197875   2.330   8.543  13.770
32012SOL    HW297876   2.404   8.446  13.680
32013SOL     OW97877  12.600   7.494  13.741
32013SOL    HW197878  12.593   7.408  13.701
32013SOL    HW297879  12.693   7.501  13.764
32014SOL     OW97880   6.693   5.148   1.404
32014SOL    HW197881   6.773   5.130   1.453
32014SOL    HW297882   6.714   5.225   1.351
32015SOL     OW97883   2.284   5.113   2.429
32015SOL    HW197884   2.345   5.187   2.432
32015SOL    HW297885   2.340   5.035   2.436
32016SOL     OW97886   7.288   5.009   5.043
32016SOL    HW197887   7.331   4.927   5.066
32016SOL    HW297888   7.209   4.982   4.996
32017SOL     OW97889   6.979   9.761   1.447
32017SOL    HW197890   6.930   9.777   1.366
32017SOL    HW297891   6.922   9.795   1.516
32018SOL     OW97892  14.099   8.159   6.115
32018SOL    HW197893  14.037   8.202   6.056
32018SOL    HW297894  14.069   8.183   6.203
32019SOL     OW97895   6.345   3.156   2.892
32019SOL    HW197896   6.420   3.214   2.884
32019SOL    HW297897   6.269   3.214   2.890
32020SOL     OW97898   4.158   9.775  12.601
32020SOL    HW197899   4.240   9.768  12.552
32020SOL    HW297900   4.181   9.822  12.681
32021SOL     OW97901   1.250  13.486   4.333
32021SOL    HW197902   1.311  13.415   4.314
32021SOL    HW297903   1.278  13.558   4.275
32022SOL     OW97904   5.635   7.701   8.860
32022SOL    HW197905   5.720   7.744   8.869
32022SOL    HW297906   5.645   7.641   8.786
32023SOL     OW97907  12.716  10.895   9.277
32023SOL    HW197908  12.646  10.842   9.239
32023SOL    HW297909  12.777  10.910   9.205
32024SOL     OW97910   3.487   0.931   4.238
32024SOL    HW197911   3.569   0.924   4.189
32024SOL    HW297912   3.495   0.866   4.308
32025SOL     OW97913  13.492  12.709   7.637
32025SOL    HW197914  13.569  12.750   7.678
32025SOL    HW297915  13.527  12.661   7.563
32026SOL     OW97916  11.257   4.799   2.171
32026SOL    HW197917  11.198   4.777   2.099
32026SOL    HW297918  11.248   4.725   2.232
32027SOL     OW97919  11.117  13.282   4.112
32027SOL    HW197920  11.075  13.262   4.195
32027SOL    HW297921  11.076  13.223   4.048
32028SOL     OW97922   0.356   7.434   4.978
32028SOL    HW197923   0.364   7.530   4.980
32028SOL    HW297924   0.413   7.407   4.907
32029SOL     OW97925  14.666   7.182   5.537
32029SOL    HW197926  14.695   7.171   5.447
32029SOL    HW297927  14.639   7.094   5.565
32030SOL     OW97928   3.873   8.308   9.286
32030SOL    HW197929   3.869   8.234   9.226
32030SOL    HW297930   3.834   8.381   9.238
32031SOL     OW97931   3.055   4.027   8.423
32031SOL    HW197932   3.093   3.942   8.401
32031SOL    HW297933   3.041   4.070   8.338
32032SOL     OW97934   4.062   5.416  11.718
32032SOL    HW197935   4.119   5.342  11.696
32032SOL    HW297936   4.081   5.482  11.652
32033SOL     OW97937   9.723  13.100   7.893
32033SOL    HW197938   9.784  13.026   7.894
32033SOL    HW297939   9.764  13.164   7.834
32034SOL     OW97940  12.716   4.079   0.169
32034SOL    HW197941  12.720   4.165   0.211
32034SOL    HW297942  12.734   4.017   0.240
32035SOL     OW97943   5.004   7.700   4.102
32035SOL    HW197944   5.030   7.772   4.045
32035SOL    HW297945   5.061   7.709   4.179
32036SOL     OW97946  10.885   2.453  12.663
32036SOL    HW197947  10.924   2.450  12.575
32036SOL    HW297948  10.920   2.533  12.702
32037SOL     OW97949   2.305   9.784   0.232
32037SOL    HW197950   2.382   9.796   0.287
32037SOL    HW297951   2.237   9.835   0.276
32038SOL     OW97952   9.022   3.318   6.537
32038SOL    HW197953   9.094   3.302   6.597
32038SOL    HW297954   8.962   3.374   6.586
32039SOL     OW97955   1.961   8.075   6.765
32039SOL    HW197956   2.046   8.031   6.762
32039SOL    HW297957   1.910   8.033   6.695
32040SOL     OW97958   0.894  11.929   2.210
32040SOL    HW197959   0.841  11.922   2.131
32040SOL    HW297960   0.972  11.877   2.192
32041SOL     OW97961  13.206   6.914   0.059
32041SOL    HW197962  13.123   6.904   0.107
32041SOL    HW297963  13.193   6.993   0.006
32042SOL     OW97964   7.314  10.854  13.297
32042SOL    HW197965   7.393  10.883  13.343
32042SOL    HW297966   7.246  10.916  13.324
32043SOL     OW97967  12.128  14.280  11.657
32043SOL    HW197968  12.215  14.264  11.694
32043SOL    HW297969  12.135  14.368  11.619
32044SOL     OW97970   8.536  10.558  11.029
32044SOL    HW197971   8.493  10.475  11.052
32044SOL    HW297972   8.597  10.535  10.960
32045SOL     OW97973  13.256   5.050  14.368
32045SOL    HW197974  13.286   5.129  14.414
32045SOL    HW297975  13.233   5.080  14.280
32046SOL     OW97976  12.585  14.302   9.483
32046SOL    HW197977  12.496  14.289   9.516
32046SOL    HW297978  12.580  14.277   9.391
32047SOL     OW97979  14.179  12.850   3.665
32047SOL    HW197980  14.121  12.916   3.702
32047SOL    HW297981  14.121  12.779   3.639
32048SOL     OW97982   9.934   4.875  10.620
32048SOL    HW197983   9.923   4.785  10.650
32048SOL    HW297984   9.969   4.921  10.697
32049SOL     OW97985   0.120   6.891   8.129
32049SOL    HW197986   0.179   6.927   8.194
32049SOL    HW297987   0.141   6.937   8.048
32050SOL     OW97988   0.878   4.525   8.694
32050SOL    HW197989   0.889   4.528   8.789
32050SOL    HW297990   0.954   4.571   8.660
32051SOL     OW97991  10.018   8.700   4.224
32051SOL    HW197992   9.939   8.752   4.237
32051SOL    HW297993   9.986   8.617   4.187
32052SOL     OW97994   0.116   8.614   6.466
32052SOL    HW197995   0.032   8.659   6.477
32052SOL    HW297996   0.181   8.685   6.464
32053SOL     OW97997   9.241   8.258   0.425
32053SOL    HW197998   9.324   8.305   0.422
32053SOL    HW297999   9.239   8.218   0.512
32054SOL     OW98000   6.481  10.148   4.287
32054SOL    HW198001   6.470  10.146   4.192
32054SOL    HW298002   6.540  10.222   4.302
32055SOL     OW98003   8.195   6.100  12.026
32055SOL    HW198004   8.276   6.054  12.005
32055SOL    HW298005   8.199   6.181  11.975
32056SOL     OW98006   3.733   4.443  11.189
32056SOL    HW198007   3.804   4.498  11.221
32056SOL    HW298008   3.754   4.428  11.097
32057SOL     OW98009   6.832   9.579   0.484
32057SOL    HW198010   6.900   9.611   0.426
32057SOL    HW298011   6.864   9.600   0.572
32058SOL     OW98012   3.230  14.501   7.205
32058SOL    HW198013   3.243  14.435   7.137
32058SOL    HW298014   3.255  14.456   7.286
32059SOL     OW98015  10.752   4.682   9.660
32059SOL    HW198016  10.726   4.639   9.578
32059SOL    HW298017  10.835   4.641   9.684
32060SOL     OW98018   9.742   2.024   0.193
32060SOL    HW198019   9.819   1.967   0.202
32060SOL    HW298020   9.682   1.975   0.137
32061SOL     OW98021   8.721   9.397  12.952
32061SOL    HW198022   8.694   9.325  13.008
32061SOL    HW298023   8.751   9.465  13.012
32062SOL     OW98024   1.108   3.620  13.017
32062SOL    HW198025   1.031   3.662  13.055
32062SOL    HW298026   1.160   3.693  12.983
32063SOL     OW98027  13.006  10.306  11.445
32063SOL    HW198028  13.026  10.272  11.532
32063SOL    HW298029  12.943  10.377  11.460
32064SOL     OW98030   0.885  13.886  10.333
32064SOL    HW198031   0.935  13.965  10.351
32064SOL    HW298032   0.818  13.883  10.401
32065SOL     OW98033   3.472  10.007   2.068
32065SOL    HW198034   3.417   9.933   2.042
32065SOL    HW298035   3.433  10.039   2.149
32066SOL     OW98036  13.621  14.678   9.909
32066SOL    HW198037  13.660  14.706   9.827
32066SOL    HW298038  13.607  14.759   9.958
32067SOL     OW98039   0.298   3.803  13.072
32067SOL    HW198040   0.274   3.731  13.131
32067SOL    HW298041   0.355   3.859  13.125
32068SOL     OW98042  10.966   9.738   4.049
32068SOL    HW198043  10.949   9.770   3.960
32068SOL    HW298044  10.880   9.712   4.082
32069SOL     OW98045   8.295  13.721   9.777
32069SOL    HW198046   8.380  13.731   9.819
32069SOL    HW298047   8.232  13.751   9.844
32070SOL     OW98048   6.251  14.130   9.746
32070SOL    HW198049   6.323  14.121   9.683
32070SOL    HW298050   6.293  14.138   9.831
32071SOL     OW98051   9.875   9.858   8.015
32071SOL    HW198052   9.783   9.843   7.993
32071SOL    HW298053   9.897   9.790   8.078
32072SOL     OW98054   2.800  13.461   7.323
32072SOL    HW198055   2.713  13.490   7.297
32072SOL    HW298056   2.833  13.530   7.381
32073SOL     OW98057  11.792   9.262   3.749
32073SOL    HW198058  11.886   9.274   3.754
32073SOL    HW298059  11.779   9.213   3.667
32074SOL     OW98060  14.073   9.597   4.525
32074SOL    HW198061  14.113   9.556   4.448
32074SOL    HW298062  14.057   9.525   4.586
32075SOL     OW98063   0.500  10.189  14.548
32075SOL    HW198064   0.527  10.108  14.505
32075SOL    HW298065   0.576  10.214  14.602
32076SOL     OW98066  13.397   1.373   4.882
32076SOL    HW198067  13.383   1.467   4.871
32076SOL    HW298068  13.318   1.332   4.847
32077SOL     OW98069  11.408  11.738  14.059
32077SOL    HW198070  11.433  11.738  14.152
32077SOL    HW298071  11.323  11.783  14.058
32078SOL     OW98072   2.579   0.185   1.512
32078SOL    HW198073   2.590   0.163   1.605
32078SOL    HW298074   2.639   0.257   1.498
32079SOL     OW98075   0.119   7.751   0.291
32079SOL    HW198076   0.166   7.719   0.368
32079SOL    HW298077   0.070   7.674   0.261
32080SOL     OW98078   9.019  10.811   4.785
32080SOL    HW198079   9.047  10.749   4.718
32080SOL    HW298080   8.951  10.764   4.834
32081SOL     OW98081   2.672  11.255   1.266
32081SOL    HW198082   2.741  11.318   1.242
32081SOL    HW298083   2.645  11.282   1.354
32082SOL     OW98084   8.046   6.106  11.216
32082SOL    HW198085   7.954   6.124  11.193
32082SOL    HW298086   8.071   6.034  11.158
32083SOL     OW98087   5.886   4.734  11.061
32083SOL    HW198088   5.810   4.679  11.083
32083SOL    HW298089   5.882   4.806  11.123
32084SOL     OW98090   9.898  11.137   3.083
32084SOL    HW198091   9.990  11.119   3.099
32084SOL    HW298092   9.894  11.232   3.071
32085SOL     OW98093   5.774   6.903  11.027
32085SOL    HW198094   5.869   6.906  11.037
32085SOL    HW298095   5.740   6.927  11.113
32086SOL     OW98096   0.209   8.984   4.172
32086SOL    HW198097   0.154   9.014   4.100
32086SOL    HW298098   0.276   9.052   4.181
32087SOL     OW98099   3.503   9.793   5.098
32087SOL    HW198100   3.572   9.770   5.035
32087SOL    HW298101   3.548   9.845   5.164
32088SOL     OW98102   4.397  14.810   8.602
32088SOL    HW198103   4.428  14.762   8.678
32088SOL    HW298104   4.461   0.005   8.588
32089SOL     OW98105   5.814   8.466   8.404
32089SOL    HW198106   5.802   8.526   8.331
32089SOL    HW298107   5.909   8.454   8.410
32090SOL     OW98108   8.155  10.216   1.365
32090SOL    HW198109   8.153  10.192   1.458
32090SOL    HW298110   8.178  10.135   1.320
32091SOL     OW98111   8.048  12.650   4.826
32091SOL    HW198112   8.140  12.667   4.847
32091SOL    HW298113   8.051  12.576   4.765
32092SOL     OW98114  13.898   6.872  12.953
32092SOL    HW198115  13.951   6.796  12.930
32092SOL    HW298116  13.811   6.837  12.969
32093SOL     OW98117   2.183   8.338   4.158
32093SOL    HW198118   2.167   8.348   4.252
32093SOL    HW298119   2.230   8.255   4.150
32094SOL     OW98120   8.061  10.742   0.434
32094SOL    HW198121   8.102  10.716   0.516
32094SOL    HW298122   8.121  10.807   0.397
32095SOL     OW98123   1.264  13.846   5.056
32095SOL    HW198124   1.314  13.770   5.087
32095SOL    HW298125   1.298  13.919   5.107
32096SOL     OW98126  14.783  11.915   1.593
32096SOL    HW198127  14.792  11.936   1.686
32096SOL    HW298128  14.730  11.985   1.557
32097SOL     OW98129   2.448   9.511   6.222
32097SOL    HW198130   2.477   9.421   6.235
32097SOL    HW298131   2.458   9.526   6.127
32098SOL     OW98132   4.541  14.593  10.971
32098SOL    HW198133   4.516  14.553  10.887
32098SOL    HW298134   4.635  14.610  10.962
32099SOL     OW98135  13.747   0.432   9.695
32099SOL    HW198136  13.814   0.372   9.728
32099SOL    HW298137  13.666   0.380   9.696
32100SOL     OW98138  14.457   6.561   3.919
32100SOL    HW198139  14.430   6.537   4.007
32100SOL    HW298140  14.389   6.621   3.889
32101SOL     OW98141   0.562  12.067  14.248
32101SOL    HW198142   0.513  12.062  14.330
32101SOL    HW298143   0.495  12.071  14.180
32102SOL     OW98144   1.916   9.757   0.782
32102SOL    HW198145   1.886   9.743   0.692
32102SOL    HW298146   1.925   9.852   0.789
32103SOL     OW98147  14.861  11.446   3.662
32103SOL    HW198148  14.864  11.540   3.645
32103SOL    HW298149   0.057  11.409   3.608
32104SOL     OW98150   1.842   0.280  12.123
32104SOL    HW198151   1.833   0.301  12.216
32104SOL    HW298152   1.935   0.289  12.104
32105SOL     OW98153   0.501   1.669   9.862
32105SOL    HW198154   0.464   1.713   9.786
32105SOL    HW298155   0.588   1.640   9.833
32106SOL     OW98156  12.717  10.916   3.155
32106SOL    HW198157  12.685  10.829   3.181
32106SOL    HW298158  12.805  10.921   3.193
32107SOL     OW98159   6.344  14.413   1.984
32107SOL    HW198160   6.334  14.350   2.056
32107SOL    HW298161   6.405  14.370   1.924
32108SOL     OW98162   5.826  14.806  13.993
32108SOL    HW198163   5.863  14.826  14.079
32108SOL    HW298164   5.901  14.779  13.940
32109SOL     OW98165   7.611  11.174  14.776
32109SOL    HW198166   7.585  11.086  14.748
32109SOL    HW298167   7.530  11.224  14.778
32110SOL     OW98168   0.571  12.501   4.468
32110SOL    HW198169   0.516  12.459   4.534
32110SOL    HW298170   0.579  12.436   4.398
32111SOL     OW98171  12.877  13.867   8.610
32111SOL    HW198172  12.967  13.865   8.642
32111SOL    HW298173  12.825  13.831   8.683
32112SOL     OW98174   5.803   4.798   6.495
32112SOL    HW198175   5.798   4.886   6.458
32112SOL    HW298176   5.809   4.740   6.419
32113SOL     OW98177   5.649   2.051  11.857
32113SOL    HW198178   5.651   2.145  11.840
32113SOL    HW298179   5.633   2.012  11.771
32114SOL     OW98180  10.129   5.713   4.170
32114SOL    HW198181  10.161   5.640   4.117
32114SOL    HW298182  10.170   5.700   4.256
32115SOL     OW98183  13.183   6.540   8.363
32115SOL    HW198184  13.154   6.624   8.327
32115SOL    HW298185  13.159   6.544   8.456
32116SOL     OW98186   0.808   7.085   0.297
32116SOL    HW198187   0.718   7.104   0.270
32116SOL    HW298188   0.853   7.061   0.216
32117SOL     OW98189   5.509  14.521   1.467
32117SOL    HW198190   5.498  14.466   1.389
32117SOL    HW298191   5.421  14.552   1.487
32118SOL     OW98192  13.815   3.870  12.506
32118SOL    HW198193  13.847   3.937  12.445
32118SOL    HW298194  13.767   3.920  12.572
32119SOL     OW98195  12.200   8.532  14.717
32119SOL    HW198196  12.292   8.542  14.742
32119SOL    HW298197  12.174   8.618  14.686
32120SOL     OW98198  11.235   5.005   4.968
32120SOL    HW198199  11.150   4.972   4.997
32120SOL    HW298200  11.213   5.075   4.906
32121SOL     OW98201  14.794   8.622   1.475
32121SOL    HW198202  14.756   8.582   1.397
32121SOL    HW298203  14.751   8.707   1.482
32122SOL     OW98204   3.922   9.218   7.125
32122SOL    HW198205   3.908   9.126   7.150
32122SOL    HW298206   3.883   9.268   7.196
32123SOL     OW98207  12.105  10.607   9.926
32123SOL    HW198208  12.180  10.635   9.874
32123SOL    HW298209  12.076  10.525   9.886
32124SOL     OW98210   2.223   0.478   5.817
32124SOL    HW198211   2.277   0.428   5.757
32124SOL    HW298212   2.144   0.426   5.828
32125SOL     OW98213   2.750   9.985   9.182
32125SOL    HW198214   2.814  10.053   9.200
32125SOL    HW298215   2.728   9.948   9.268
32126SOL     OW98216  14.584  12.924   3.906
32126SOL    HW198217  14.547  12.876   3.832
32126SOL    HW298218  14.510  12.974   3.941
32127SOL     OW98219  14.700   3.687   4.938
32127SOL    HW198220  14.695   3.676   5.033
32127SOL    HW298221  14.794   3.694   4.919
32128SOL     OW98222   5.154   8.094  10.740
32128SOL    HW198223   5.131   8.165  10.680
32128SOL    HW298224   5.187   8.139  10.818
32129SOL     OW98225   3.808  13.558   7.827
32129SOL    HW198226   3.770  13.471   7.841
32129SOL    HW298227   3.776  13.586   7.742
32130SOL     OW98228   4.162   3.019  12.920
32130SOL    HW198229   4.236   3.071  12.889
32130SOL    HW298230   4.172   3.018  13.016
32131SOL     OW98231   2.321   6.303   8.320
32131SOL    HW198232   2.262   6.364   8.276
32131SOL    HW298233   2.296   6.307   8.412
32132SOL     OW98234  14.547   4.418   7.238
32132SOL    HW198235  14.578   4.339   7.282
32132SOL    HW298236  14.561   4.488   7.302
32133SOL     OW98237   4.952  11.778   6.395
32133SOL    HW198238   4.875  11.829   6.371
32133SOL    HW298239   4.970  11.724   6.319
32134SOL     OW98240   2.570  14.110   9.479
32134SOL    HW198241   2.618  14.027   9.484
32134SOL    HW298242   2.635  14.176   9.502
32135SOL     OW98243   8.045   4.333  10.133
32135SOL    HW198244   8.083   4.253  10.097
32135SOL    HW298245   7.952   4.313  10.143
32136SOL     OW98246   8.628   1.398  12.048
32136SOL    HW198247   8.596   1.479  12.086
32136SOL    HW298248   8.549   1.348  12.026
32137SOL     OW98249   1.494  13.451  10.236
32137SOL    HW198250   1.426  13.516  10.256
32137SOL    HW298251   1.528  13.477  10.151
32138SOL     OW98252  12.067   0.791  11.632
32138SOL    HW198253  11.978   0.796  11.598
32138SOL    HW298254  12.067   0.851  11.707
32139SOL     OW98255   5.620   1.028   7.856
32139SOL    HW198256   5.543   1.072   7.820
32139SOL    HW298257   5.648   0.967   7.787
32140SOL     OW98258  12.190  14.199  10.718
32140SOL    HW198259  12.163  14.201  10.810
32140SOL    HW298260  12.259  14.264  10.712
32141SOL     OW98261   9.068   2.653   4.958
32141SOL    HW198262   9.087   2.574   4.906
32141SOL    HW298263   9.154   2.693   4.973
32142SOL     OW98264  14.544  14.642   1.464
32142SOL    HW198265  14.548  14.581   1.538
32142SOL    HW298266  14.593  14.718   1.493
32143SOL     OW98267  12.853   6.789   6.548
32143SOL    HW198268  12.857   6.828   6.635
32143SOL    HW298269  12.850   6.694   6.565
32144SOL     OW98270   1.625   7.241  14.412
32144SOL    HW198271   1.537   7.206  14.397
32144SOL    HW298272   1.634   7.313  14.349
32145SOL     OW98273  11.134  12.165   3.909
32145SOL    HW198274  11.111  12.084   3.956
32145SOL    HW298275  11.094  12.154   3.822
32146SOL     OW98276   6.421  11.575   3.084
32146SOL    HW198277   6.440  11.527   3.003
32146SOL    HW298278   6.467  11.658   3.074
32147SOL     OW98279  10.258  10.501  10.347
32147SOL    HW198280  10.194  10.436  10.376
32147SOL    HW298281  10.232  10.582  10.391
32148SOL     OW98282   8.232  10.805   7.935
32148SOL    HW198283   8.207  10.873   7.998
32148SOL    HW298284   8.156  10.747   7.930
32149SOL     OW98285   8.792   7.131   2.589
32149SOL    HW198286   8.862   7.066   2.601
32149SOL    HW298287   8.789   7.146   2.495
32150SOL     OW98288  13.412   9.259  12.717
32150SOL    HW198289  13.488   9.223  12.764
32150SOL    HW298290  13.358   9.182  12.698
32151SOL     OW98291   0.891   4.404   2.177
32151SOL    HW198292   0.978   4.439   2.158
32151SOL    HW298293   0.900   4.310   2.166
32152SOL     OW98294  11.767   5.889   8.118
32152SOL    HW198295  11.679   5.860   8.093
32152SOL    HW298296  11.778   5.972   8.072
32153SOL     OW98297  13.976   1.837  10.483
32153SOL    HW198298  13.930   1.921  10.485
32153SOL    HW298299  13.977   1.808  10.574
32154SOL     OW98300   5.541   8.030   1.363
32154SOL    HW198301   5.563   7.985   1.281
32154SOL    HW298302   5.561   8.122   1.346
32155SOL     OW98303  13.564  13.759  11.233
32155SOL    HW198304  13.527  13.727  11.315
32155SOL    HW298305  13.490  13.802  11.189
32156SOL     OW98306  14.131  11.825   7.622
32156SOL    HW198307  14.036  11.840   7.624
32156SOL    HW298308  14.142  11.754   7.558
32157SOL     OW98309  10.704  11.778   8.036
32157SOL    HW198310  10.791  11.812   8.016
32157SOL    HW298311  10.658  11.851   8.077
32158SOL     OW98312   0.857   0.102  11.410
32158SOL    HW198313   0.859   0.123  11.316
32158SOL    HW298314   0.943   0.065  11.428
32159SOL     OW98315   9.263  14.491   9.103
32159SOL    HW198316   9.170  14.497   9.123
32159SOL    HW298317   9.269  14.496   9.008
32160SOL     OW98318  14.259   1.023   1.297
32160SOL    HW198319  14.216   0.963   1.237
32160SOL    HW298320  14.284   1.098   1.243
32161SOL     OW98321  10.247  14.427  13.981
32161SOL    HW198322  10.191  14.424  14.058
32161SOL    HW298323  10.189  14.409  13.907
32162SOL     OW98324   8.970   0.049   2.404
32162SOL    HW198325   8.943   0.027   2.315
32162SOL    HW298326   8.889   0.062   2.453
32163SOL     OW98327  13.704   4.029   3.398
32163SOL    HW198328  13.728   3.940   3.425
32163SOL    HW298329  13.732   4.084   3.471
32164SOL     OW98330   3.638   3.806   3.778
32164SOL    HW198331   3.638   3.761   3.862
32164SOL    HW298332   3.678   3.891   3.797
32165SOL     OW98333   3.357   0.515   9.607
32165SOL    HW198334   3.420   0.510   9.680
32165SOL    HW298335   3.401   0.472   9.534
32166SOL     OW98336   3.378   2.895   5.116
32166SOL    HW198337   3.361   2.806   5.145
32166SOL    HW298338   3.398   2.887   5.022
32167SOL     OW98339  12.050  10.308   3.158
32167SOL    HW198340  12.136  10.348   3.145
32167SOL    HW298341  12.003  10.368   3.215
32168SOL     OW98342   4.617  12.818   7.775
32168SOL    HW198343   4.669  12.897   7.758
32168SOL    HW298344   4.528  12.840   7.747
32169SOL     OW98345   9.480  12.969   7.957
32169SOL    HW198346   9.530  13.031   7.905
32169SOL    HW298347   9.541  12.938   8.024
32170SOL     OW98348   0.358   1.267   7.570
32170SOL    HW198349   0.404   1.297   7.492
32170SOL    HW298350   0.267   1.295   7.557
32171SOL     OW98351   1.501   6.815  14.488
32171SOL    HW198352   1.477   6.733  14.445
32171SOL    HW298353   1.596   6.810  14.497
32172SOL     OW98354   5.006   6.539   3.330
32172SOL    HW198355   5.023   6.630   3.354
32172SOL    HW298356   5.060   6.488   3.390
32173SOL     OW98357   5.106  12.438   8.813
32173SOL    HW198358   5.180  12.454   8.755
32173SOL    HW298359   5.031  12.431   8.754
32174SOL     OW98360   3.436   3.737   6.674
32174SOL    HW198361   3.441   3.800   6.602
32174SOL    HW298362   3.405   3.656   6.634
32175SOL     OW98363   8.436   5.191  14.336
32175SOL    HW198364   8.497   5.117  14.334
32175SOL    HW298365   8.486   5.265  14.302
32176SOL     OW98366  13.603  11.834  13.696
32176SOL    HW198367  13.552  11.755  13.714
32176SOL    HW298368  13.687  11.818  13.738
32177SOL     OW98369   7.856   4.579   0.008
32177SOL    HW198370   7.807   4.520  14.825
32177SOL    HW298371   7.871   4.528   0.087
32178SOL     OW98372   4.581   5.822   9.016
32178SOL    HW198373   4.674   5.843   9.019
32178SOL    HW298374   4.539   5.891   9.067
32179SOL     OW98375   8.530   0.218   3.216
32179SOL    HW198376   8.574   0.273   3.151
32179SOL    HW298377   8.475   0.279   3.265
32180SOL     OW98378   3.632   1.144  14.745
32180SOL    HW198379   3.648   1.224  14.694
32180SOL    HW298380   3.603   1.081  14.680
32181SOL     OW98381  12.621   9.960   1.790
32181SOL    HW198382  12.686  10.026   1.810
32181SOL    HW298383  12.624   9.899   1.864
32182SOL     OW98384  12.387   6.206  12.106
32182SOL    HW198385  12.339   6.161  12.175
32182SOL    HW298386  12.439   6.272  12.152
32183SOL     OW98387  12.152   5.851   1.888
32183SOL    HW198388  12.200   5.774   1.859
32183SOL    HW298389  12.196   5.878   1.968
32184SOL     OW98390  10.121  11.509  10.080
32184SOL    HW198391  10.099  11.439  10.141
32184SOL    HW298392  10.192  11.558  10.122
32185SOL     OW98393   4.093   8.479   5.532
32185SOL    HW198394   4.126   8.509   5.616
32185SOL    HW298395   4.143   8.400   5.512
32186SOL     OW98396   4.325   8.215   3.364
32186SOL    HW198397   4.315   8.176   3.277
32186SOL    HW298398   4.334   8.309   3.347
32187SOL     OW98399  10.410  13.960  11.646
32187SOL    HW198400  10.338  14.022  11.638
32187SOL    HW298401  10.371  13.875  11.627
32188SOL     OW98402   5.684   6.343  11.557
32188SOL    HW198403   5.766   6.308  11.523
32188SOL    HW298404   5.617   6.307  11.499
32189SOL     OW98405   4.086   8.216  13.182
32189SOL    HW198406   4.061   8.163  13.257
32189SOL    HW298407   4.089   8.154  13.109
32190SOL     OW98408  11.053  10.674  10.443
32190SOL    HW198409  11.020  10.700  10.358
32190SOL    HW298410  10.976  10.671  10.499
32191SOL     OW98411  14.820  14.579   6.310
32191SOL    HW198412  14.828  14.546   6.399
32191SOL    HW298413  14.777  14.509   6.262
32192SOL     OW98414   2.978   6.367  13.575
32192SOL    HW198415   2.993   6.293  13.633
32192SOL    HW298416   3.045   6.431  13.601
32193SOL     OW98417   6.650  13.359   3.883
32193SOL    HW198418   6.688  13.402   3.807
32193SOL    HW298419   6.716  13.295   3.910
32194SOL     OW98420   9.976   2.215   8.891
32194SOL    HW198421   9.947   2.125   8.876
32194SOL    HW298422  10.070   2.208   8.908
32195SOL     OW98423   0.856  12.812  12.262
32195SOL    HW198424   0.833  12.720  12.273
32195SOL    HW298425   0.772  12.858  12.261
32196SOL     OW98426   9.827   7.680   0.699
32196SOL    HW198427   9.847   7.650   0.788
32196SOL    HW298428   9.836   7.775   0.703
32197SOL     OW98429   9.882   4.845   2.234
32197SOL    HW198430   9.914   4.921   2.283
32197SOL    HW298431   9.792   4.869   2.210
32198SOL     OW98432   9.935   3.090  12.227
32198SOL    HW198433   9.991   3.022  12.189
32198SOL    HW298434   9.915   3.148  12.154
32199SOL     OW98435   1.410  11.932  11.861
32199SOL    HW198436   1.354  11.950  11.937
32199SOL    HW298437   1.460  12.012  11.849
32200SOL     OW98438   0.967  14.443   3.533
32200SOL    HW198439   0.980  14.537   3.533
32200SOL    HW298440   0.923  14.424   3.450
32201SOL     OW98441  12.505   0.468   4.737
32201SOL    HW198442  12.577   0.418   4.697
32201SOL    HW298443  12.470   0.409   4.803
32202SOL     OW98444  10.914  11.325   9.193
32202SOL    HW198445  10.839  11.297   9.246
32202SOL    HW298446  10.875  11.359   9.113
32203SOL     OW98447  14.283  12.211   1.206
32203SOL    HW198448  14.305  12.161   1.284
32203SOL    HW298449  14.193  12.187   1.186
32204SOL     OW98450  12.208   7.421   3.793
32204SOL    HW198451  12.245   7.372   3.719
32204SOL    HW298452  12.175   7.353   3.852
32205SOL     OW98453   3.689  11.390   6.500
32205SOL    HW198454   3.736  11.441   6.565
32205SOL    HW298455   3.716  11.427   6.416
32206SOL     OW98456   9.404   6.141  12.004
32206SOL    HW198457   9.486   6.184  11.980
32206SOL    HW298458   9.380   6.091  11.926
32207SOL     OW98459   0.602  12.990  10.076
32207SOL    HW198460   0.598  12.902  10.040
32207SOL    HW298461   0.649  12.980  10.159
32208SOL     OW98462   2.519  11.755   0.662
32208SOL    HW198463   2.546  11.699   0.735
32208SOL    HW298464   2.574  11.833   0.670
32209SOL     OW98465   9.470  13.582  11.859
32209SOL    HW198466   9.476  13.543  11.946
32209SOL    HW298467   9.378  13.608  11.851
32210SOL     OW98468  11.297  14.687   8.288
32210SOL    HW198469  11.329  14.742   8.360
32210SOL    HW298470  11.278  14.748   8.218
32211SOL     OW98471  12.696  11.505   3.364
32211SOL    HW198472  12.725  11.477   3.451
32211SOL    HW298473  12.660  11.425   3.324
32212SOL     OW98474   3.532   7.722  13.174
32212SOL    HW198475   3.613   7.771  13.158
32212SOL    HW298476   3.488   7.719  13.089
32213SOL     OW98477   7.282  12.875  13.700
32213SOL    HW198478   7.192  12.903  13.720
32213SOL    HW298479   7.277  12.780  13.700
32214SOL     OW98480  13.738   9.528   0.410
32214SOL    HW198481  13.792   9.514   0.487
32214SOL    HW298482  13.652   9.492   0.434
32215SOL     OW98483  10.653   7.809   6.917
32215SOL    HW198484  10.675   7.717   6.907
32215SOL    HW298485  10.738   7.854   6.922
32216SOL     OW98486   8.744   7.741   1.561
32216SOL    HW198487   8.799   7.677   1.515
32216SOL    HW298488   8.734   7.812   1.499
32217SOL     OW98489   9.845  11.746   3.044
32217SOL    HW198490   9.889  11.748   3.128
32217SOL    HW298491   9.913  11.720   2.981
32218SOL     OW98492   8.608   8.663   9.785
32218SOL    HW198493   8.610   8.748   9.829
32218SOL    HW298494   8.587   8.683   9.694
32219SOL     OW98495   1.307   2.330  13.571
32219SOL    HW198496   1.384   2.333  13.515
32219SOL    HW298497   1.336   2.368  13.654
32220SOL     OW98498  14.223  12.172   4.216
32220SOL    HW198499  14.283  12.158   4.289
32220SOL    HW298500  14.154  12.107   4.228
32221SOL     OW98501  10.923   8.720   7.950
32221SOL    HW198502  10.869   8.641   7.944
32221SOL    HW298503  10.938   8.746   7.859
32222SOL     OW98504   6.511  10.723   8.635
32222SOL    HW198505   6.570  10.779   8.685
32222SOL    HW298506   6.452  10.686   8.700
32223SOL     OW98507   3.980   8.840   3.692
32223SOL    HW198508   3.894   8.861   3.728
32223SOL    HW298509   3.965   8.830   3.598
32224SOL     OW98510   4.743  11.971  11.032
32224SOL    HW198511   4.804  11.897  11.036
32224SOL    HW298512   4.752  12.004  10.943
32225SOL     OW98513  13.632  10.424   0.261
32225SOL    HW198514  13.541  10.400   0.239
32225SOL    HW298515  13.634  10.423   0.357
32226SOL     OW98516   6.969   1.696   0.866
32226SOL    HW198517   6.882   1.675   0.831
32226SOL    HW298518   6.965   1.669   0.957
32227SOL     OW98519   9.708   1.749  10.984
32227SOL    HW198520   9.705   1.842  10.963
32227SOL    HW298521   9.751   1.745  11.070
32228SOL     OW98522   0.040  14.332   3.361
32228SOL    HW198523  14.854  14.260   3.381
32228SOL    HW298524   0.117  14.315   3.414
32229SOL     OW98525   5.710   9.015   0.409
32229SOL    HW198526   5.653   8.949   0.368
32229SOL    HW298527   5.790   9.014   0.355
32230SOL     OW98528  11.395  10.749   0.466
32230SOL    HW198529  11.417  10.834   0.428
32230SOL    HW298530  11.316  10.765   0.518
32231SOL     OW98531   2.744   9.573   6.042
32231SOL    HW198532   2.742   9.640   6.110
32231SOL    HW298533   2.653   9.566   6.012
32232SOL     OW98534  12.661  14.285   0.276
32232SOL    HW198535  12.675  14.219   0.208
32232SOL    HW298536  12.672  14.368   0.230
32233SOL     OW98537  10.209  14.857  14.585
32233SOL    HW198538  10.302  14.863  14.563
32233SOL    HW298539  10.188  14.764  14.571
32234SOL     OW98540   9.687  14.527   8.658
32234SOL    HW198541   9.751  14.519   8.729
32234SOL    HW298542   9.739  14.549   8.581
32235SOL     OW98543   7.794   6.097  13.581
32235SOL    HW198544   7.721   6.036  13.571
32235SOL    HW298545   7.836   6.072  13.663
32236SOL     OW98546  13.116   3.854   0.495
32236SOL    HW198547  13.136   3.913   0.568
32236SOL    HW298548  13.142   3.904   0.417
32237SOL     OW98549   4.960   4.464   6.722
32237SOL    HW198550   4.971   4.487   6.629
32237SOL    HW298551   4.886   4.518   6.751
32238SOL     OW98552  11.554   0.826   6.595
32238SOL    HW198553  11.555   0.730   6.596
32238SOL    HW298554  11.640   0.851   6.629
32239SOL     OW98555   2.672  11.713   5.795
32239SOL    HW198556   2.760  11.691   5.764
32239SOL    HW298557   2.682  11.724   5.889
32240SOL     OW98558   9.448  11.262  14.062
32240SOL    HW198559   9.539  11.247  14.087
32240SOL    HW298560   9.412  11.174  14.048
32241SOL     OW98561   5.810   6.085  13.920
32241SOL    HW198562   5.884   6.135  13.953
32241SOL    HW298563   5.814   6.095  13.825
32242SOL     OW98564  13.455   1.241   0.329
32242SOL    HW198565  13.485   1.329   0.351
32242SOL    HW298566  13.474   1.189   0.407
32243SOL     OW98567  10.359   0.343   3.893
32243SOL    HW198568  10.430   0.405   3.908
32243SOL    HW298569  10.313   0.376   3.817
32244SOL     OW98570  13.828   3.271   5.082
32244SOL    HW198571  13.920   3.277   5.057
32244SOL    HW298572  13.797   3.361   5.086
32245SOL     OW98573   0.950  13.241   6.167
32245SOL    HW198574   0.896  13.167   6.198
32245SOL    HW298575   0.919  13.315   6.219
32246SOL     OW98576   9.805   5.998   4.914
32246SOL    HW198577   9.744   5.938   4.871
32246SOL    HW298578   9.847   5.945   4.981
32247SOL     OW98579   7.759   6.862   4.423
32247SOL    HW198580   7.665   6.871   4.440
32247SOL    HW298581   7.772   6.768   4.408
32248SOL     OW98582   0.234  13.585  12.037
32248SOL    HW198583   0.196  13.646  12.100
32248SOL    HW298584   0.326  13.579  12.062
32249SOL     OW98585   6.979   9.806  13.061
32249SOL    HW198586   6.967   9.780  12.969
32249SOL    HW298587   6.890   9.810  13.096
32250SOL     OW98588   8.252   1.283   8.761
32250SOL    HW198589   8.266   1.377   8.779
32250SOL    HW298590   8.330   1.256   8.713
32251SOL     OW98591   3.826  10.322   4.576
32251SOL    HW198592   3.830  10.230   4.601
32251SOL    HW298593   3.878  10.367   4.643
32252SOL     OW98594   4.051   4.994   2.360
32252SOL    HW198595   4.061   5.083   2.325
32252SOL    HW298596   4.107   4.940   2.305
32253SOL     OW98597   7.987   6.058  10.275
32253SOL    HW198598   8.081   6.046  10.266
32253SOL    HW298599   7.975   6.153  10.279
32254SOL     OW98600   3.072  14.153   3.479
32254SOL    HW198601   3.087  14.243   3.449
32254SOL    HW298602   3.154  14.128   3.523
32255SOL     OW98603   9.255  12.545  10.654
32255SOL    HW198604   9.175  12.530  10.705
32255SOL    HW298605   9.326  12.515  10.710
32256SOL     OW98606   1.630   1.681  11.730
32256SOL    HW198607   1.622   1.741  11.803
32256SOL    HW298608   1.629   1.737  11.652
32257SOL     OW98609  12.324   8.234  13.303
32257SOL    HW198610  12.325   8.277  13.217
32257SOL    HW298611  12.390   8.165  13.295
32258SOL     OW98612   0.672  12.562   6.235
32258SOL    HW198613   0.691  12.546   6.327
32258SOL    HW298614   0.693  12.479   6.191
32259SOL     OW98615   7.193   9.925  14.655
32259SOL    HW198616   7.253   9.885  14.718
32259SOL    HW298617   7.141   9.852  14.621
32260SOL     OW98618  11.654   5.940  10.896
32260SOL    HW198619  11.709   5.884  10.951
32260SOL    HW298620  11.661   5.901  10.809
32261SOL     OW98621  14.151   0.517  12.707
32261SOL    HW198622  14.186   0.603  12.684
32261SOL    HW298623  14.107   0.487  12.628
32262SOL     OW98624  14.289  10.353   8.178
32262SOL    HW198625  14.272  10.335   8.270
32262SOL    HW298626  14.371  10.403   8.178
32263SOL     OW98627   3.745   8.528   6.883
32263SOL    HW198628   3.819   8.493   6.833
32263SOL    HW298629   3.670   8.478   6.853
32264SOL     OW98630   8.589  11.107   0.748
32264SOL    HW198631   8.685  11.114   0.741
32264SOL    HW298632   8.555  11.166   0.681
32265SOL     OW98633   8.622   6.353   1.008
32265SOL    HW198634   8.569   6.285   0.966
32265SOL    HW298635   8.694   6.367   0.946
32266SOL     OW98636   8.121  12.640  14.142
32266SOL    HW198637   8.147  12.554  14.177
32266SOL    HW298638   8.200  12.694  14.151
32267SOL     OW98639  10.336   5.533   8.165
32267SOL    HW198640  10.272   5.522   8.094
32267SOL    HW298641  10.309   5.613   8.211
32268SOL     OW98642   3.574  12.259  14.455
32268SOL    HW198643   3.623  12.180  14.433
32268SOL    HW298644   3.627  12.331  14.420
32269SOL     OW98645   4.385   4.391   1.791
32269SOL    HW198646   4.364   4.365   1.881
32269SOL    HW298647   4.303   4.426   1.756
32270SOL     OW98648   9.383  10.760  12.102
32270SOL    HW198649   9.421  10.699  12.039
32270SOL    HW298650   9.309  10.713  12.140
32271SOL     OW98651   3.205  12.704   6.057
32271SOL    HW198652   3.113  12.704   6.031
32271SOL    HW298653   3.204  12.739   6.146
32272SOL     OW98654  10.970   4.765  14.394
32272SOL    HW198655  10.891   4.730  14.434
32272SOL    HW298656  10.996   4.837  14.451
32273SOL     OW98657   8.015   6.076  14.430
32273SOL    HW198658   7.927   6.114  14.421
32273SOL    HW298659   8.046   6.065  14.340
32274SOL     OW98660   3.759   4.867   7.317
32274SOL    HW198661   3.715   4.785   7.294
32274SOL    HW298662   3.852   4.844   7.320
32275SOL     OW98663  14.718   9.916  13.392
32275SOL    HW198664  14.794   9.882  13.346
32275SOL    HW298665  14.708  10.005  13.359
32276SOL     OW98666   6.948   8.184   5.696
32276SOL    HW198667   6.854   8.185   5.712
32276SOL    HW298668   6.986   8.232   5.770
32277SOL     OW98669   0.770   8.532   4.255
32277SOL    HW198670   0.731   8.583   4.184
32277SOL    HW298671   0.793   8.449   4.215
32278SOL     OW98672   4.524   5.085   4.066
32278SOL    HW198673   4.479   5.153   4.017
32278SOL    HW298674   4.466   5.009   4.060
32279SOL     OW98675   0.592   2.650   3.961
32279SOL    HW198676   0.585   2.733   4.008
32279SOL    HW298677   0.604   2.584   4.029
32280SOL     OW98678   1.783   2.882  13.758
32280SOL    HW198679   1.806   2.847  13.672
32280SOL    HW298680   1.757   2.972  13.742
32281SOL     OW98681   6.356   9.037   5.195
32281SOL    HW198682   6.388   8.961   5.146
32281SOL    HW298683   6.293   9.079   5.136
32282SOL     OW98684   2.670  10.091  12.484
32282SOL    HW198685   2.756  10.110  12.521
32282SOL    HW298686   2.687  10.028  12.414
32283SOL     OW98687   0.314  11.744   5.456
32283SOL    HW198688   0.397  11.791   5.452
32283SOL    HW298689   0.286  11.751   5.547
32284SOL     OW98690   1.503   9.012   6.183
32284SOL    HW198691   1.548   9.095   6.165
32284SOL    HW298692   1.431   9.010   6.119
32285SOL     OW98693  13.263   6.981  14.589
32285SOL    HW198694  13.336   7.026  14.631
32285SOL    HW298695  13.283   6.888  14.600
32286SOL     OW98696   3.018  11.293  12.017
32286SOL    HW198697   3.091  11.352  12.000
32286SOL    HW298698   2.941  11.350  12.021
32287SOL     OW98699  12.363   7.813   6.937
32287SOL    HW198700  12.367   7.903   6.904
32287SOL    HW298701  12.326   7.762   6.865
32288SOL     OW98702   3.109   1.918   7.417
32288SOL    HW198703   3.172   1.850   7.392
32288SOL    HW298704   3.127   1.935   7.509
32289SOL     OW98705  10.256   1.404   1.063
32289SOL    HW198706  10.191   1.360   1.009
32289SOL    HW298707  10.291   1.474   1.007
32290SOL     OW98708  13.041  13.402   6.019
32290SOL    HW198709  13.123  13.389   6.067
32290SOL    HW298710  12.993  13.466   6.071
32291SOL     OW98711   3.720  12.388   2.418
32291SOL    HW198712   3.642  12.420   2.372
32291SOL    HW298713   3.791  12.399   2.355
32292SOL     OW98714  14.184  13.238  11.303
32292SOL    HW198715  14.226  13.229  11.217
32292SOL    HW298716  14.182  13.148  11.337
32293SOL     OW98717   6.834   6.276   6.335
32293SOL    HW198718   6.748   6.303   6.303
32293SOL    HW298719   6.894   6.345   6.305
32294SOL     OW98720  10.114  12.965   1.029
32294SOL    HW198721  10.046  12.991   1.090
32294SOL    HW298722  10.066  12.937   0.951
32295SOL     OW98723   2.418   2.615   2.303
32295SOL    HW198724   2.470   2.628   2.224
32295SOL    HW298725   2.374   2.699   2.316
32296SOL     OW98726  12.273   8.745  14.378
32296SOL    HW198727  12.233   8.797  14.448
32296SOL    HW298728  12.200   8.722  14.320
32297SOL     OW98729  12.660   9.554   8.614
32297SOL    HW198730  12.698   9.535   8.700
32297SOL    HW298731  12.571   9.521   8.619
32298SOL     OW98732  10.282   0.631   8.596
32298SOL    HW198733  10.367   0.665   8.621
32298SOL    HW298734  10.290   0.612   8.502
32299SOL     OW98735  10.137   9.064   2.434
32299SOL    HW198736  10.184   9.033   2.511
32299SOL    HW298737  10.097   9.147   2.461
32300SOL     OW98738   3.479   1.915   3.653
32300SOL    HW198739   3.396   1.927   3.606
32300SOL    HW298740   3.500   1.822   3.640
32301SOL     OW98741   5.226   6.576  10.783
32301SOL    HW198742   5.304   6.567  10.728
32301SOL    HW298743   5.195   6.665  10.768
32302SOL     OW98744  12.131  13.539   4.443
32302SOL    HW198745  12.101  13.452   4.416
32302SOL    HW298746  12.180  13.524   4.524
32303SOL     OW98747  10.140   5.564   0.057
32303SOL    HW198748  10.102   5.557  14.844
32303SOL    HW298749  10.132   5.476   0.094
32304SOL     OW98750   8.331   9.756   3.357
32304SOL    HW198751   8.337   9.692   3.428
32304SOL    HW298752   8.250   9.734   3.311
32305SOL     OW98753   6.320   2.661   4.700
32305SOL    HW198754   6.391   2.668   4.763
32305SOL    HW298755   6.297   2.568   4.700
32306SOL     OW98756   7.054   2.907   3.950
32306SOL    HW198757   6.998   2.899   4.028
32306SOL    HW298758   7.133   2.949   3.982
32307SOL     OW98759  10.466  13.314   7.158
32307SOL    HW198760  10.385  13.362   7.140
32307SOL    HW298761  10.497  13.287   7.071
32308SOL     OW98762   5.122   6.114   5.644
32308SOL    HW198763   5.026   6.119   5.637
32308SOL    HW298764   5.138   6.102   5.737
32309SOL     OW98765  14.799   3.808  11.543
32309SOL    HW198766  14.718   3.766  11.515
32309SOL    HW298767  14.773   3.865  11.615
32310SOL     OW98768   0.458  12.980   4.668
32310SOL    HW198769   0.373  12.974   4.624
32310SOL    HW298770   0.518  13.010   4.600
32311SOL     OW98771   0.920  11.645   1.852
32311SOL    HW198772   0.981  11.680   1.787
32311SOL    HW298773   0.974  11.589   1.908
32312SOL     OW98774   7.353  11.579   7.898
32312SOL    HW198775   7.364  11.673   7.881
32312SOL    HW298776   7.282  11.552   7.840
32313SOL     OW98777   3.010   9.657  12.749
32313SOL    HW198778   2.965   9.722  12.696
32313SOL    HW298779   3.096   9.648  12.708
32314SOL     OW98780   6.722   1.115  12.822
32314SOL    HW198781   6.745   1.034  12.778
32314SOL    HW298782   6.683   1.170  12.754
32315SOL     OW98783  10.395   2.772   8.450
32315SOL    HW198784  10.314   2.742   8.408
32315SOL    HW298785  10.410   2.708   8.520
32316SOL     OW98786  13.969  13.820   0.352
32316SOL    HW198787  13.923  13.848   0.430
32316SOL    HW298788  14.035  13.757   0.383
32317SOL     OW98789  10.841   5.071   4.801
32317SOL    HW198790  10.760   5.039   4.840
32317SOL    HW298791  10.893   4.992   4.786
32318SOL     OW98792   3.820   2.813  10.365
32318SOL    HW198793   3.755   2.835  10.432
32318SOL    HW298794   3.873   2.892  10.355
32319SOL     OW98795   4.197  10.813   7.280
32319SOL    HW198796   4.193  10.840   7.188
32319SOL    HW298797   4.288  10.787   7.294
32320SOL     OW98798  13.540  10.772  10.547
32320SOL    HW198799  13.523  10.699  10.487
32320SOL    HW298800  13.497  10.847  10.506
32321SOL     OW98801  12.209   7.838   4.435
32321SOL    HW198802  12.207   7.888   4.353
32321SOL    HW298803  12.180   7.900   4.502
32322SOL     OW98804  11.909   5.081   3.138
32322SOL    HW198805  11.999   5.100   3.167
32322SOL    HW298806  11.882   5.160   3.092
32323SOL     OW98807   5.956   4.983   7.058
32323SOL    HW198808   6.022   4.986   7.127
32323SOL    HW298809   5.963   5.067   7.014
32324SOL     OW98810   2.396   1.588   2.820
32324SOL    HW198811   2.350   1.555   2.742
32324SOL    HW298812   2.371   1.680   2.826
32325SOL     OW98813  11.407   8.994  10.886
32325SOL    HW198814  11.398   9.056  10.959
32325SOL    HW298815  11.370   8.913  10.920
32326SOL     OW98816  14.064  10.592   8.825
32326SOL    HW198817  14.035  10.622   8.739
32326SOL    HW298818  14.003  10.632   8.887
32327SOL     OW98819   1.843   2.025   1.976
32327SOL    HW198820   1.838   2.106   2.026
32327SOL    HW298821   1.910   2.042   1.909
32328SOL     OW98822   0.157   4.485   9.105
32328SOL    HW198823   0.137   4.436   9.025
32328SOL    HW298824   0.071   4.503   9.143
32329SOL     OW98825   8.611   8.173   0.045
32329SOL    HW198826   8.642   8.108  14.855
32329SOL    HW298827   8.689   8.195   0.096
32330SOL     OW98828   4.868   4.676   7.657
32330SOL    HW198829   4.870   4.749   7.719
32330SOL    HW298830   4.837   4.602   7.709
32331SOL     OW98831   3.197  12.114  14.140
32331SOL    HW198832   3.117  12.062  14.138
32331SOL    HW298833   3.246  12.080  14.215
32332SOL     OW98834   6.067   0.589   5.757
32332SOL    HW198835   6.162   0.599   5.748
32332SOL    HW298836   6.057   0.507   5.806
32333SOL     OW98837   7.083   5.475  12.885
32333SOL    HW198838   7.174   5.478  12.915
32333SOL    HW298839   7.047   5.559  12.910
32334SOL     OW98840   0.940  10.302  10.654
32334SOL    HW198841   0.903  10.333  10.572
32334SOL    HW298842   0.887  10.344  10.722
32335SOL     OW98843   7.497   6.659  11.853
32335SOL    HW198844   7.403   6.662  11.869
32335SOL    HW298845   7.508   6.706  11.770
32336SOL     OW98846  10.865  12.242  14.821
32336SOL    HW198847  10.880  12.279   0.034
32336SOL    HW298848  10.909  12.157  14.824
32337SOL     OW98849   2.934   6.957  12.766
32337SOL    HW198850   2.924   6.871  12.808
32337SOL    HW298851   2.938   7.019  12.840
32338SOL     OW98852   8.304   1.574   8.515
32338SOL    HW198853   8.251   1.508   8.560
32338SOL    HW298854   8.356   1.614   8.584
32339SOL     OW98855   3.828   5.582   1.116
32339SOL    HW198856   3.852   5.623   1.032
32339SOL    HW298857   3.732   5.574   1.112
32340SOL     OW98858   5.936   2.013   5.898
32340SOL    HW198859   5.848   2.011   5.935
32340SOL    HW298860   5.976   1.931   5.926
32341SOL     OW98861   6.963  12.645   7.010
32341SOL    HW198862   7.055  12.623   6.992
32341SOL    HW298863   6.962  12.670   7.102
32342SOL     OW98864   3.786   6.430  13.763
32342SOL    HW198865   3.820   6.519  13.758
32342SOL    HW298866   3.721   6.433  13.834
32343SOL     OW98867   3.546  13.828   5.325
32343SOL    HW198868   3.543  13.919   5.355
32343SOL    HW298869   3.561  13.777   5.405
32344SOL     OW98870   3.643   9.791  14.174
32344SOL    HW198871   3.572   9.780  14.111
32344SOL    HW298872   3.620   9.732  14.246
32345SOL     OW98873  10.935  11.868  14.483
32345SOL    HW198874  10.955  11.841  14.394
32345SOL    HW298875  10.852  11.824  14.503
32346SOL     OW98876   7.054  11.539   4.496
32346SOL    HW198877   7.026  11.468   4.554
32346SOL    HW298878   7.145  11.519   4.477
32347SOL     OW98879   7.984   4.748   4.604
32347SOL    HW198880   7.986   4.655   4.582
32347SOL    HW298881   7.903   4.759   4.655
32348SOL     OW98882   1.744   3.028   6.144
32348SOL    HW198883   1.683   3.080   6.196
32348SOL    HW298884   1.778   3.088   6.078
32349SOL     OW98885   5.318   9.501  11.146
32349SOL    HW198886   5.234   9.513  11.190
32349SOL    HW298887   5.356   9.424  11.189
32350SOL     OW98888  13.463  10.329   3.696
32350SOL    HW198889  13.400  10.315   3.767
32350SOL    HW298890  13.485  10.242   3.665
32351SOL     OW98891   2.482   6.891   2.514
32351SOL    HW198892   2.444   6.955   2.454
32351SOL    HW298893   2.476   6.932   2.600
32352SOL     OW98894   4.294   3.254  12.401
32352SOL    HW198895   4.350   3.274  12.326
32352SOL    HW298896   4.327   3.309  12.471
32353SOL     OW98897  13.695   9.860   8.038
32353SOL    HW198898  13.601   9.856   8.019
32353SOL    HW298899  13.702   9.925   8.108
32354SOL     OW98900   1.148   3.694   1.738
32354SOL    HW198901   1.165   3.707   1.832
32354SOL    HW298902   1.135   3.782   1.704
32355SOL     OW98903   2.957   6.195   4.505
32355SOL    HW198904   2.946   6.103   4.479
32355SOL    HW298905   2.868   6.225   4.526
32356SOL     OW98906   4.342  11.057   0.115
32356SOL    HW198907   4.297  11.111   0.180
32356SOL    HW298908   4.344  10.969   0.154
32357SOL     OW98909   1.419   5.136   5.972
32357SOL    HW198910   1.466   5.081   5.909
32357SOL    HW298911   1.365   5.075   6.022
32358SOL     OW98912   8.198   6.895   5.484
32358SOL    HW198913   8.175   6.986   5.500
32358SOL    HW298914   8.157   6.847   5.556
32359SOL     OW98915  10.559  13.500   0.725
32359SOL    HW198916  10.467  13.526   0.718
32359SOL    HW298917  10.557  13.417   0.774
32360SOL     OW98918   2.041   4.501   6.200
32360SOL    HW198919   2.010   4.578   6.247
32360SOL    HW298920   1.994   4.428   6.240
32361SOL     OW98921  12.100   1.085   0.229
32361SOL    HW198922  12.067   0.998   0.250
32361SOL    HW298923  12.084   1.094   0.135
32362SOL     OW98924   7.979  14.811   2.919
32362SOL    HW198925   7.887  14.838   2.923
32362SOL    HW298926   7.977  14.716   2.914
32363SOL     OW98927  13.163   1.610   6.611
32363SOL    HW198928  13.205   1.681   6.660
32363SOL    HW298929  13.169   1.637   6.519
32364SOL     OW98930   3.626  10.254  14.774
32364SOL    HW198931   3.545  10.237  14.822
32364SOL    HW298932   3.598  10.291  14.690
32365SOL     OW98933   1.000   7.899   2.343
32365SOL    HW198934   0.919   7.912   2.294
32365SOL    HW298935   1.033   7.987   2.359
32366SOL     OW98936   6.721   1.152   9.991
32366SOL    HW198937   6.636   1.110   9.983
32366SOL    HW298938   6.783   1.087   9.958
32367SOL     OW98939  14.265  10.921   0.991
32367SOL    HW198940  14.298  10.890   1.076
32367SOL    HW298941  14.241  10.842   0.944
32368SOL     OW98942   3.150  11.907   1.535
32368SOL    HW198943   3.177  11.816   1.522
32368SOL    HW298944   3.230  11.958   1.523
32369SOL     OW98945  12.795  10.684  13.391
32369SOL    HW198946  12.871  10.684  13.334
32369SOL    HW298947  12.830  10.663  13.478
32370SOL     OW98948  11.268  10.018  10.236
32370SOL    HW198949  11.237  10.079  10.303
32370SOL    HW298950  11.195  10.012  10.174
32371SOL     OW98951   1.260  10.979   6.205
32371SOL    HW198952   1.239  10.912   6.140
32371SOL    HW298953   1.208  11.055   6.178
32372SOL     OW98954  10.007  10.805   2.823
32372SOL    HW198955   9.960  10.797   2.905
32372SOL    HW298956   9.992  10.722   2.778
32373SOL     OW98957   8.455   3.409  13.179
32373SOL    HW198958   8.374   3.456  13.201
32373SOL    HW298959   8.469   3.426  13.086
32374SOL     OW98960  11.165   7.983  14.377
32374SOL    HW198961  11.198   8.073  14.379
32374SOL    HW298962  11.196   7.949  14.293
32375SOL     OW98963   7.792  14.075   9.779
32375SOL    HW198964   7.708  14.110   9.749
32375SOL    HW298965   7.839  14.152   9.810
32376SOL     OW98966   7.412   8.894   4.198
32376SOL    HW198967   7.503   8.867   4.210
32376SOL    HW298968   7.372   8.825   4.146
32377SOL     OW98969   3.772   6.170  10.760
32377SOL    HW198970   3.810   6.154  10.846
32377SOL    HW298971   3.697   6.111  10.756
32378SOL     OW98972   2.452   6.615   2.427
32378SOL    HW198973   2.482   6.699   2.462
32378SOL    HW298974   2.499   6.549   2.477
32379SOL     OW98975  13.134   4.794   5.496
32379SOL    HW198976  13.042   4.781   5.475
32379SOL    HW298977  13.135   4.814   5.590
32380SOL     OW98978   9.180   0.880  13.497
32380SOL    HW198979   9.223   0.798  13.522
32380SOL    HW298980   9.149   0.917  13.580
32381SOL     OW98981   7.457   3.813  12.417
32381SOL    HW198982   7.448   3.718  12.413
32381SOL    HW298983   7.543   3.831  12.380
32382SOL     OW98984   4.459   5.471   7.404
32382SOL    HW198985   4.465   5.394   7.347
32382SOL    HW298986   4.384   5.520   7.371
32383SOL     OW98987  14.151  11.790   8.444
32383SOL    HW198988  14.158  11.885   8.455
32383SOL    HW298989  14.104  11.779   8.362
32384SOL     OW98990   1.081   2.639   3.342
32384SOL    HW198991   1.012   2.573   3.349
32384SOL    HW298992   1.050   2.699   3.274
32385SOL     OW98993  13.687  12.502  11.332
32385SOL    HW198994  13.678  12.559  11.409
32385SOL    HW298995  13.665  12.558  11.258
32386SOL     OW98996   0.240  10.134   9.751
32386SOL    HW198997   0.180  10.080   9.700
32386SOL    HW298998   0.183  10.194   9.800
32387SOL     OW98999   6.548   7.849   0.657
32387SOL    HW199000   6.601   7.800   0.593
32387SOL    HW299001   6.515   7.781   0.716
32388SOL     OW99002   4.945   0.428   3.337
32388SOL    HW199003   4.919   0.499   3.396
32388SOL    HW299004   5.012   0.467   3.281
32389SOL     OW99005  12.439   4.191   8.566
32389SOL    HW199006  12.388   4.142   8.502
32389SOL    HW299007  12.496   4.248   8.514
32390SOL     OW99008   1.175  11.195  10.671
32390SOL    HW199009   1.119  11.188  10.594
32390SOL    HW299010   1.115  11.217  10.742
32391SOL     OW99011   2.160  13.513  14.530
32391SOL    HW199012   2.186  13.443  14.469
32391SOL    HW299013   2.124  13.466  14.605
32392SOL     OW99014   0.495   7.594  14.463
32392SOL    HW199015   0.465   7.679  14.431
32392SOL    HW299016   0.563   7.568  14.402
32393SOL     OW99017  10.539   9.982   3.148
32393SOL    HW199018  10.505  10.011   3.064
32393SOL    HW299019  10.599   9.911   3.127
32394SOL     OW99020   5.345   7.119   8.023
32394SOL    HW199021   5.338   7.024   8.014
32394SOL    HW299022   5.382   7.148   7.939
32395SOL     OW99023  11.035   7.597   8.898
32395SOL    HW199024  11.016   7.513   8.854
32395SOL    HW299025  10.975   7.599   8.972
32396SOL     OW99026  14.386   7.940   3.081
32396SOL    HW199027  14.330   7.878   3.034
32396SOL    HW299028  14.456   7.960   3.018
32397SOL     OW99029   9.989   4.506   1.655
32397SOL    HW199030   9.955   4.592   1.681
32397SOL    HW299031  10.006   4.515   1.562
32398SOL     OW99032  11.444  11.550   4.285
32398SOL    HW199033  11.508  11.620   4.272
32398SOL    HW299034  11.492  11.481   4.330
32399SOL     OW99035  11.176   0.408   7.535
32399SOL    HW199036  11.153   0.361   7.616
32399SOL    HW299037  11.094   0.410   7.485
32400SOL     OW99038  10.194   8.040  11.713
32400SOL    HW199039  10.168   7.952  11.684
32400SOL    HW299040  10.115   8.093  11.700
32401SOL     OW99041   4.404  10.119  11.141
32401SOL    HW199042   4.327  10.128  11.197
32401SOL    HW299043   4.432  10.209  11.123
32402SOL     OW99044   3.721   8.937  14.240
32402SOL    HW199045   3.647   8.997  14.230
32402SOL    HW299046   3.687   8.865  14.293
32403SOL     OW99047   1.061  10.387  13.073
32403SOL    HW199048   1.118  10.462  13.056
32403SOL    HW299049   0.976  10.426  13.092
32404SOL     OW99050  13.464  12.368   8.491
32404SOL    HW199051  13.509  12.284   8.483
32404SOL    HW299052  13.514  12.417   8.556
32405SOL     OW99053  13.435   5.368   6.201
32405SOL    HW199054  13.496   5.332   6.264
32405SOL    HW299055  13.349   5.357   6.241
32406SOL     OW99056   2.288   1.756   0.354
32406SOL    HW199057   2.363   1.769   0.413
32406SOL    HW299058   2.325   1.713   0.277
32407SOL     OW99059  11.521   2.936   2.620
32407SOL    HW199060  11.557   2.927   2.532
32407SOL    HW299061  11.525   2.848   2.657
32408SOL     OW99062  13.764   9.492   7.745
32408SOL    HW199063  13.676   9.521   7.720
32408SOL    HW299064  13.805   9.465   7.662
32409SOL     OW99065   9.932   6.312   3.006
32409SOL    HW199066  10.026   6.327   3.014
32409SOL    HW299067   9.896   6.341   3.090
32410SOL     OW99068  10.122   4.495   9.868
32410SOL    HW199069  10.063   4.569   9.885
32410SOL    HW299070  10.138   4.498   9.774
32411SOL     OW99071  11.211  12.765   3.328
32411SOL    HW199072  11.118  12.757   3.346
32411SOL    HW299073  11.216  12.777   3.233
32412SOL     OW99074   8.296   9.604   0.895
32412SOL    HW199075   8.247   9.522   0.892
32412SOL    HW299076   8.232   9.669   0.924
32413SOL     OW99077  10.789   4.723   6.292
32413SOL    HW199078  10.804   4.817   6.297
32413SOL    HW299079  10.870   4.684   6.325
32414SOL     OW99080   4.109   8.060  14.132
32414SOL    HW199081   4.134   8.152  14.141
32414SOL    HW299082   4.192   8.013  14.130
32415SOL     OW99083   4.084   8.163   3.556
32415SOL    HW199084   4.140   8.183   3.481
32415SOL    HW299085   4.009   8.116   3.519
32416SOL     OW99086   7.795   7.293   0.930
32416SOL    HW199087   7.764   7.257   1.013
32416SOL    HW299088   7.888   7.270   0.928
32417SOL     OW99089  14.602  13.873  10.472
32417SOL    HW199090  14.666  13.807  10.444
32417SOL    HW299091  14.620  13.949  10.416
32418SOL     OW99092   4.857  11.638  11.893
32418SOL    HW199093   4.905  11.616  11.813
32418SOL    HW299094   4.816  11.556  11.920
32419SOL     OW99095   4.127   1.821   4.997
32419SOL    HW199096   4.138   1.813   4.902
32419SOL    HW299097   4.166   1.907   5.017
32420SOL     OW99098   8.626  12.769   8.023
32420SOL    HW199099   8.701  12.770   8.083
32420SOL    HW299100   8.651  12.829   7.953
32421SOL     OW99101  11.848  11.644  11.382
32421SOL    HW199102  11.836  11.576  11.448
32421SOL    HW299103  11.816  11.724  11.424
32422SOL     OW99104  11.482   9.313   0.435
32422SOL    HW199105  11.474   9.243   0.370
32422SOL    HW299106  11.536   9.275   0.504
32423SOL     OW99107   5.967   8.920   4.165
32423SOL    HW199108   5.929   9.006   4.185
32423SOL    HW299109   6.028   8.904   4.238
32424SOL     OW99110   2.459   7.898  11.004
32424SOL    HW199111   2.500   7.812  11.008
32424SOL    HW299112   2.515   7.949  10.945
32425SOL     OW99113  11.735  12.333   5.697
32425SOL    HW199114  11.683  12.270   5.646
32425SOL    HW299115  11.825  12.303   5.687
32426SOL     OW99116   9.248   8.309   2.996
32426SOL    HW199117   9.202   8.356   3.065
32426SOL    HW299118   9.340   8.312   3.021
32427SOL     OW99119   7.095   7.651   5.586
32427SOL    HW199120   7.034   7.705   5.635
32427SOL    HW299121   7.094   7.688   5.498
32428SOL     OW99122   9.539  14.605   2.162
32428SOL    HW199123   9.500  14.650   2.086
32428SOL    HW299124   9.480  14.532   2.179
32429SOL     OW99125   8.243  14.537   7.569
32429SOL    HW199126   8.289  14.464   7.526
32429SOL    HW299127   8.158  14.501   7.592
32430SOL     OW99128   8.984   4.195   7.439
32430SOL    HW199129   8.983   4.267   7.502
32430SOL    HW299130   9.070   4.203   7.397
32431SOL     OW99131   3.591   3.451   5.493
32431SOL    HW199132   3.675   3.469   5.535
32431SOL    HW299133   3.563   3.535   5.457
32432SOL     OW99134  11.362   9.205  12.939
32432SOL    HW199135  11.435   9.146  12.921
32432SOL    HW299136  11.286   9.148  12.943
32433SOL     OW99137   6.796   8.341  12.336
32433SOL    HW199138   6.724   8.280  12.353
32433SOL    HW299139   6.761   8.400  12.270
32434SOL     OW99140   1.720   6.033  14.702
32434SOL    HW199141   1.713   6.075  14.616
32434SOL    HW299142   1.793   5.972  14.693
32435SOL     OW99143   4.470  14.301   9.313
32435SOL    HW199144   4.377  14.303   9.337
32435SOL    HW299145   4.513  14.260   9.388
32436SOL     OW99146   1.879   2.003   6.175
32436SOL    HW199147   1.824   2.046   6.110
32436SOL    HW299148   1.832   2.015   6.258
32437SOL     OW99149   3.149   9.254  13.852
32437SOL    HW199150   3.155   9.220  13.763
32437SOL    HW299151   3.141   9.176  13.907
32438SOL     OW99152   6.772   7.624   1.438
32438SOL    HW199153   6.850   7.663   1.476
32438SOL    HW299154   6.802   7.583   1.357
32439SOL     OW99155  14.782   3.723   5.198
32439SOL    HW199156  14.823   3.796   5.245
32439SOL    HW299157  14.855   3.670   5.167
32440SOL     OW99158  10.740   5.373   1.426
32440SOL    HW199159  10.779   5.442   1.480
32440SOL    HW299160  10.789   5.294   1.450
32441SOL     OW99161   3.355   5.320   9.833
32441SOL    HW199162   3.450   5.328   9.839
32441SOL    HW299163   3.324   5.409   9.816
32442SOL     OW99164   6.089  13.817  13.272
32442SOL    HW199165   6.061  13.774  13.352
32442SOL    HW299166   6.174  13.777  13.252
32443SOL     OW99167  11.958   7.964  14.249
32443SOL    HW199168  11.953   7.935  14.340
32443SOL    HW299169  11.978   8.058  14.255
32444SOL     OW99170   7.856  11.881   1.217
32444SOL    HW199171   7.890  11.925   1.295
32444SOL    HW299172   7.803  11.948   1.172
32445SOL     OW99173   5.577   6.666   2.886
32445SOL    HW199174   5.582   6.649   2.792
32445SOL    HW299175   5.668   6.671   2.915
32446SOL     OW99176   7.953   8.865  12.950
32446SOL    HW199177   8.038   8.893  12.918
32446SOL    HW299178   7.913   8.819  12.876
32447SOL     OW99179  12.410   7.968  12.806
32447SOL    HW199180  12.421   8.063  12.799
32447SOL    HW299181  12.456   7.933  12.730
32448SOL     OW99182   0.009  13.666   3.759
32448SOL    HW199183  14.873  13.604   3.831
32448SOL    HW299184   0.096  13.704   3.771
32449SOL     OW99185   9.325   2.567   0.351
32449SOL    HW199186   9.266   2.492   0.353
32449SOL    HW299187   9.270   2.640   0.321
32450SOL     OW99188  11.229   0.619   1.717
32450SOL    HW199189  11.245   0.581   1.631
32450SOL    HW299190  11.152   0.674   1.705
32451SOL     OW99191  14.676   7.140  13.863
32451SOL    HW199192  14.633   7.221  13.838
32451SOL    HW299193  14.663   7.082  13.788
32452SOL     OW99194  12.040  14.075  14.555
32452SOL    HW199195  12.093  14.117  14.623
32452SOL    HW299196  12.062  13.983  14.559
32453SOL     OW99197  14.860   4.115   6.387
32453SOL    HW199198   0.077   4.100   6.364
32453SOL    HW299199  14.815   4.125   6.303
32454SOL     OW99200   3.618   4.543   3.429
32454SOL    HW199201   3.699   4.496   3.449
32454SOL    HW299202   3.641   4.635   3.439
32455SOL     OW99203   5.656   9.335  13.571
32455SOL    HW199204   5.589   9.268  13.554
32455SOL    HW299205   5.633   9.369  13.658
32456SOL     OW99206  12.885  13.080  12.321
32456SOL    HW199207  12.915  13.118  12.404
32456SOL    HW299208  12.822  13.013  12.347
32457SOL     OW99209  13.111  10.761   7.464
32457SOL    HW199210  13.136  10.842   7.509
32457SOL    HW299211  13.194  10.720   7.441
32458SOL     OW99212   2.882   9.753   6.589
32458SOL    HW199213   2.914   9.811   6.658
32458SOL    HW299214   2.802   9.795   6.558
32459SOL     OW99215  10.434   0.533  14.519
32459SOL    HW199216  10.479   0.493  14.594
32459SOL    HW299217  10.451   0.472  14.447
32460SOL     OW99218  11.476   3.587   1.412
32460SOL    HW199219  11.501   3.598   1.504
32460SOL    HW299220  11.537   3.644   1.365
32461SOL     OW99221   9.688   9.312  12.010
32461SOL    HW199222   9.596   9.335  12.028
32461SOL    HW299223   9.739   9.380  12.054
32462SOL     OW99224   2.114   1.872  11.987
32462SOL    HW199225   2.198   1.906  11.956
32462SOL    HW299226   2.133   1.783  12.016
32463SOL     OW99227   4.477   0.393  10.309
32463SOL    HW199228   4.472   0.429  10.220
32463SOL    HW299229   4.499   0.468  10.364
32464SOL     OW99230  13.171   5.960   6.268
32464SOL    HW199231  13.158   6.005   6.352
32464SOL    HW299232  13.175   5.867   6.291
32465SOL     OW99233  10.072   9.882   1.399
32465SOL    HW199234  10.097   9.883   1.491
32465SOL    HW299235  10.152   9.908   1.353
32466SOL     OW99236   9.228  12.613   9.993
32466SOL    HW199237   9.170  12.658   9.931
32466SOL    HW299238   9.240  12.676  10.065
32467SOL     OW99239  13.645  12.904  14.436
32467SOL    HW199240  13.710  12.956  14.484
32467SOL    HW299241  13.561  12.931  14.473
32468SOL     OW99242   7.389   9.468  14.724
32468SOL    HW199243   7.296   9.454  14.742
32468SOL    HW299244   7.393   9.487  14.631
32469SOL     OW99245   4.545   5.024  14.009
32469SOL    HW199246   4.609   5.045  14.077
32469SOL    HW299247   4.505   4.942  14.039
32470SOL     OW99248  10.815   1.339   5.432
32470SOL    HW199249  10.726   1.345   5.466
32470SOL    HW299250  10.831   1.423   5.390
32471SOL     OW99251   6.050  11.085   9.730
32471SOL    HW199252   5.968  11.075   9.681
32471SOL    HW299253   6.087  10.997   9.734
32472SOL     OW99254   3.463  12.723  13.722
32472SOL    HW199255   3.407  12.740  13.647
32472SOL    HW299256   3.478  12.810  13.761
32473SOL     OW99257   6.821   8.243   9.293
32473SOL    HW199258   6.766   8.300   9.347
32473SOL    HW299259   6.861   8.302   9.230
32474SOL     OW99260   6.934  11.090  10.379
32474SOL    HW199261   7.012  11.091  10.435
32474SOL    HW299262   6.899  11.179  10.386
32475SOL     OW99263   6.075   9.647  11.059
32475SOL    HW199264   6.080   9.638  11.155
32475SOL    HW299265   6.089   9.558  11.026
32476SOL     OW99266   0.223   1.883  13.446
32476SOL    HW199267   0.143   1.836  13.469
32476SOL    HW299268   0.220   1.889  13.350
32477SOL     OW99269   2.296   6.085  14.437
32477SOL    HW199270   2.235   6.103  14.509
32477SOL    HW299271   2.331   5.999  14.456
32478SOL     OW99272  11.929   9.754   8.434
32478SOL    HW199273  12.004   9.733   8.379
32478SOL    HW299274  11.943   9.703   8.514
32479SOL     OW99275  13.919   5.746  12.524
32479SOL    HW199276  13.974   5.795  12.585
32479SOL    HW299277  13.837   5.732  12.573
32480SOL     OW99278  14.464   3.329   9.181
32480SOL    HW199279  14.522   3.361   9.250
32480SOL    HW299280  14.521   3.283   9.120
32481SOL     OW99281   6.317   0.016  13.288
32481SOL    HW199282   6.379  14.818  13.295
32481SOL    HW299283   6.274   0.003  13.204
32482SOL     OW99284  12.189  11.473   6.574
32482SOL    HW199285  12.156  11.561   6.554
32482SOL    HW299286  12.247  11.486   6.649
32483SOL     OW99287  10.516   7.659   8.421
32483SOL    HW199288  10.530   7.670   8.327
32483SOL    HW299289  10.494   7.566   8.431
32484SOL     OW99290   7.017   6.135   1.020
32484SOL    HW199291   6.954   6.166   0.954
32484SOL    HW299292   6.964   6.085   1.082
32485SOL     OW99293   9.419   9.162   2.546
32485SOL    HW199294   9.404   9.241   2.598
32485SOL    HW299295   9.468   9.193   2.469
32486SOL     OW99296  14.736  14.792   3.214
32486SOL    HW199297  14.781  14.732   3.274
32486SOL    HW299298  14.643  14.775   3.229
32487SOL     OW99299   0.529  11.138   7.035
32487SOL    HW199300   0.520  11.212   6.974
32487SOL    HW299301   0.619  11.107   7.022
32488SOL     OW99302   2.119  12.794   1.003
32488SOL    HW199303   2.060  12.816   0.930
32488SOL    HW299304   2.065  12.741   1.061
32489SOL     OW99305   0.616   6.842  11.650
32489SOL    HW199306   0.549   6.841  11.581
32489SOL    HW299307   0.568   6.870  11.728
32490SOL     OW99308   5.590  13.462   6.936
32490SOL    HW199309   5.569  13.515   7.013
32490SOL    HW299310   5.558  13.374   6.958
32491SOL     OW99311   7.000  13.410   4.995
32491SOL    HW199312   7.088  13.387   5.023
32491SOL    HW299313   6.944  13.342   5.032
32492SOL     OW99314  14.096   6.349   7.957
32492SOL    HW199315  14.084   6.391   7.872
32492SOL    HW299316  14.085   6.419   8.020
32493SOL     OW99317  10.005  14.228   8.453
32493SOL    HW199318  10.038  14.262   8.536
32493SOL    HW299319   9.972  14.305   8.407
32494SOL     OW99320   2.873  11.132  13.136
32494SOL    HW199321   2.877  11.170  13.224
32494SOL    HW299322   2.795  11.169  13.097
32495SOL     OW99323   6.712   0.021   6.362
32495SOL    HW199324   6.748  14.817   6.403
32495SOL    HW299325   6.700  14.871   6.270
32496SOL     OW99326   9.346  11.785   5.494
32496SOL    HW199327   9.297  11.847   5.440
32496SOL    HW299328   9.296  11.703   5.486
32497SOL     OW99329  12.981   0.522   0.152
32497SOL    HW199330  12.997   0.513   0.058
32497SOL    HW299331  12.890   0.495   0.163
32498SOL     OW99332  13.981  14.426   4.345
32498SOL    HW199333  13.982  14.373   4.266
32498SOL    HW299334  13.998  14.515   4.315
32499SOL     OW99335  12.526   4.090   7.205
32499SOL    HW199336  12.560   4.163   7.153
32499SOL    HW299337  12.605   4.045   7.238
32500SOL     OW99338   9.863  10.160  13.440
32500SOL    HW199339   9.863  10.165  13.345
32500SOL    HW299340   9.954  10.143  13.464
32501SOL     OW99341  11.344  13.664   9.909
32501SOL    HW199342  11.361  13.716   9.830
32501SOL    HW299343  11.401  13.702   9.976
32502SOL     OW99344   8.328  12.757   4.014
32502SOL    HW199345   8.336  12.847   4.046
32502SOL    HW299346   8.304  12.706   4.091
32503SOL     OW99347  14.268  13.565   5.852
32503SOL    HW199348  14.269  13.530   5.763
32503SOL    HW299349  14.248  13.658   5.841
32504SOL     OW99350  13.234   4.271   2.471
32504SOL    HW199351  13.206   4.230   2.553
32504SOL    HW299352  13.238   4.199   2.408
32505SOL     OW99353   8.075   5.511   7.819
32505SOL    HW199354   8.106   5.569   7.750
32505SOL    HW299355   8.003   5.462   7.778
32506SOL     OW99356  11.247  10.571   5.476
32506SOL    HW199357  11.195  10.494   5.454
32506SOL    HW299358  11.333  10.536   5.501
32507SOL     OW99359   6.275   6.247   2.211
32507SOL    HW199360   6.353   6.197   2.186
32507SOL    HW299361   6.309   6.333   2.237
32508SOL     OW99362   2.362   0.824   4.801
32508SOL    HW199363   2.406   0.907   4.781
32508SOL    HW299364   2.407   0.760   4.746
32509SOL     OW99365  12.369  11.677   5.591
32509SOL    HW199366  12.307  11.607   5.613
32509SOL    HW299367  12.439  11.669   5.656
32510SOL     OW99368  14.709   5.570   5.075
32510SOL    HW199369  14.737   5.568   5.167
32510SOL    HW299370  14.688   5.479   5.054
32511SOL     OW99371  12.663   9.040   3.535
32511SOL    HW199372  12.571   9.020   3.554
32511SOL    HW299373  12.665   9.135   3.525
32512SOL     OW99374   1.093   5.536  12.489
32512SOL    HW199375   1.113   5.596  12.560
32512SOL    HW299376   1.001   5.553  12.468
32513SOL     OW99377   0.152   2.199  10.512
32513SOL    HW199378   0.246   2.188  10.492
32513SOL    HW299379   0.135   2.133  10.580
32514SOL     OW99380   1.254   3.879  13.020
32514SOL    HW199381   1.220   3.963  13.051
32514SOL    HW299382   1.214   3.867  12.934
32515SOL     OW99383   6.343  12.484   8.429
32515SOL    HW199384   6.431  12.496   8.394
32515SOL    HW299385   6.356  12.477   8.524
32516SOL     OW99386   2.975  12.506   5.324
32516SOL    HW199387   3.064  12.471   5.311
32516SOL    HW299388   2.919  12.448   5.272
32517SOL     OW99389   9.078   2.484   6.925
32517SOL    HW199390   9.007   2.420   6.928
32517SOL    HW299391   9.043   2.555   6.871
32518SOL     OW99392   7.394   7.952   3.854
32518SOL    HW199393   7.345   7.869   3.854
32518SOL    HW299394   7.484   7.926   3.836
32519SOL     OW99395  14.691  13.875  12.855
32519SOL    HW199396  14.742  13.901  12.931
32519SOL    HW299397  14.642  13.798  12.884
32520SOL     OW99398   4.302   5.241   3.941
32520SOL    HW199399   4.282   5.220   3.850
32520SOL    HW299400   4.230   5.203   3.991
32521SOL     OW99401   2.767   1.593   0.796
32521SOL    HW199402   2.771   1.519   0.735
32521SOL    HW299403   2.845   1.644   0.776
32522SOL     OW99404   9.777  14.151  13.766
32522SOL    HW199405   9.759  14.133  13.858
32522SOL    HW299406   9.714  14.096  13.718
32523SOL     OW99407   5.581   2.192   4.236
32523SOL    HW199408   5.530   2.272   4.247
32523SOL    HW299409   5.527   2.124   4.278
32524SOL     OW99410  13.004  11.222   0.617
32524SOL    HW199411  13.035  11.244   0.705
32524SOL    HW299412  13.049  11.140   0.596
32525SOL     OW99413  13.559   3.487  12.904
32525SOL    HW199414  13.499   3.496  12.831
32525SOL    HW299415  13.613   3.566  12.901
32526SOL     OW99416  10.874   3.503   5.352
32526SOL    HW199417  10.780   3.513   5.334
32526SOL    HW299418  10.885   3.537   5.441
32527SOL     OW99419   9.782   2.534   6.006
32527SOL    HW199420   9.870   2.571   6.011
32527SOL    HW299421   9.787   2.469   5.936
32528SOL     OW99422  13.876  13.313   2.157
32528SOL    HW199423  13.892  13.267   2.075
32528SOL    HW299424  13.941  13.277   2.218
32529SOL     OW99425   3.973  14.371   5.329
32529SOL    HW199426   4.023  14.419   5.395
32529SOL    HW299427   4.036  14.356   5.258
32530SOL     OW99428   1.243   6.099   6.737
32530SOL    HW199429   1.226   6.183   6.779
32530SOL    HW299430   1.333   6.105   6.707
32531SOL     OW99431   0.576   5.740  11.731
32531SOL    HW199432   0.609   5.703  11.813
32531SOL    HW299433   0.509   5.678  11.701
32532SOL     OW99434   8.155  10.209   1.646
32532SOL    HW199435   8.185  10.137   1.701
32532SOL    HW299436   8.062  10.218   1.667
32533SOL     OW99437  13.979  10.352  12.503
32533SOL    HW199438  13.934  10.270  12.523
32533SOL    HW299439  13.987  10.395  12.588
32534SOL     OW99440   3.708   7.876  11.256
32534SOL    HW199441   3.751   7.842  11.334
32534SOL    HW299442   3.778   7.911  11.202
32535SOL     OW99443   4.776  14.068   8.768
32535SOL    HW199444   4.755  14.140   8.828
32535SOL    HW299445   4.754  14.102   8.681
32536SOL     OW99446  14.439   1.144   7.607
32536SOL    HW199447  14.469   1.191   7.685
32536SOL    HW299448  14.344   1.148   7.611
32537SOL     OW99449   5.098   7.581   5.718
32537SOL    HW199450   5.162   7.575   5.790
32537SOL    HW299451   5.059   7.494   5.714
32538SOL     OW99452  12.313   5.673   3.141
32538SOL    HW199453  12.276   5.614   3.207
32538SOL    HW299454  12.251   5.668   3.068
32539SOL     OW99455   5.771   2.306  10.529
32539SOL    HW199456   5.683   2.293  10.494
32539SOL    HW299457   5.786   2.229  10.584
32540SOL     OW99458  12.201   5.331  12.520
32540SOL    HW199459  12.287   5.348  12.557
32540SOL    HW299460  12.140   5.351  12.592
32541SOL     OW99461  12.777  13.885   8.378
32541SOL    HW199462  12.684  13.871   8.396
32541SOL    HW299463  12.820  13.876   8.464
32542SOL     OW99464   8.272   1.102   3.493
32542SOL    HW199465   8.312   1.075   3.410
32542SOL    HW299466   8.190   1.143   3.468
32543SOL     OW99467  13.549   7.771   9.540
32543SOL    HW199468  13.484   7.809   9.600
32543SOL    HW299469  13.510   7.688   9.513
32544SOL     OW99470   9.380   8.567  11.814
32544SOL    HW199471   9.396   8.622  11.891
32544SOL    HW299472   9.303   8.515  11.837
32545SOL     OW99473   2.908  10.926  10.341
32545SOL    HW199474   2.973  10.995  10.346
32545SOL    HW299475   2.850  10.941  10.416
32546SOL     OW99476   3.275  13.199   2.125
32546SOL    HW199477   3.247  13.258   2.055
32546SOL    HW299478   3.195  13.152   2.149
32547SOL     OW99479   9.943  12.685   9.510
32547SOL    HW199480   9.988  12.601   9.501
32547SOL    HW299481   9.878  12.669   9.579
32548SOL     OW99482   6.005   2.931   9.580
32548SOL    HW199483   5.989   3.025   9.571
32548SOL    HW299484   6.090   2.925   9.624
32549SOL     OW99485   9.964  14.775  11.060
32549SOL    HW199486   9.942  14.727  11.141
32549SOL    HW299487   9.881  14.811  11.030
32550SOL     OW99488  14.301  11.353  11.967
32550SOL    HW199489  14.367  11.312  12.022
32550SOL    HW299490  14.325  11.327  11.878
32551SOL     OW99491   6.942  10.244  13.175
32551SOL    HW199492   6.970  10.181  13.240
32551SOL    HW299493   6.978  10.328  13.205
32552SOL     OW99494  14.290   8.077   0.310
32552SOL    HW199495  14.382   8.056   0.326
32552SOL    HW299496  14.246   7.992   0.315
32553SOL     OW99497  12.671   6.554   8.898
32553SOL    HW199498  12.757   6.545   8.855
32553SOL    HW299499  12.650   6.647   8.892
32554SOL     OW99500   6.962  12.495   6.053
32554SOL    HW199501   6.957  12.420   6.112
32554SOL    HW299502   7.003  12.564   6.105
32555SOL     OW99503   8.310  10.866   8.828
32555SOL    HW199504   8.318  10.782   8.873
32555SOL    HW299505   8.377  10.862   8.759
32556SOL     OW99506  11.684  12.357   2.649
32556SOL    HW199507  11.604  12.380   2.602
32556SOL    HW299508  11.737  12.436   2.646
32557SOL     OW99509   3.965   0.759   3.251
32557SOL    HW199510   4.031   0.790   3.313
32557SOL    HW299511   3.896   0.825   3.254
32558SOL     OW99512  13.096   6.514  12.357
32558SOL    HW199513  13.038   6.438  12.348
32558SOL    HW299514  13.039   6.589  12.339
32559SOL     OW99515   7.730   4.987   7.189
32559SOL    HW199516   7.737   5.074   7.229
32559SOL    HW299517   7.668   4.999   7.117
32560SOL     OW99518   5.462   0.535  14.415
32560SOL    HW199519   5.379   0.498  14.444
32560SOL    HW299520   5.513   0.460  14.383
32561SOL     OW99521   9.344   3.928   8.933
32561SOL    HW199522   9.386   3.842   8.930
32561SOL    HW299523   9.416   3.990   8.928
32562SOL     OW99524   2.961  13.709  12.308
32562SOL    HW199525   2.955  13.793  12.353
32562SOL    HW299526   2.916  13.723  12.224
32563SOL     OW99527  13.966   3.710   1.393
32563SOL    HW199528  13.969   3.791   1.443
32563SOL    HW299529  14.057   3.680   1.388
32564SOL     OW99530  14.167   6.918   6.960
32564SOL    HW199531  14.123   6.981   7.018
32564SOL    HW299532  14.212   6.858   7.020
32565SOL     OW99533   5.274   0.309  11.998
32565SOL    HW199534   5.315   0.224  11.981
32565SOL    HW299535   5.247   0.304  12.090
32566SOL     OW99536   9.150  13.578  11.840
32566SOL    HW199537   9.101  13.499  11.818
32566SOL    HW299538   9.125  13.597  11.931
32567SOL     OW99539   1.465   9.879  11.988
32567SOL    HW199540   1.502   9.933  12.059
32567SOL    HW299541   1.373   9.870  12.009
32568SOL     OW99542   0.643   9.676   6.689
32568SOL    HW199543   0.556   9.714   6.704
32568SOL    HW299544   0.686   9.739   6.631
32569SOL     OW99545   1.210   8.563   4.666
32569SOL    HW199546   1.122   8.599   4.672
32569SOL    HW299547   1.264   8.622   4.719
32570SOL     OW99548   9.581   1.356   4.957
32570SOL    HW199549   9.531   1.356   4.875
32570SOL    HW299550   9.575   1.266   4.988
32571SOL     OW99551  12.211   6.057   9.021
32571SOL    HW199552  12.181   6.147   9.032
32571SOL    HW299553  12.257   6.057   8.936
32572SOL     OW99554   1.581   9.997   8.821
32572SOL    HW199555   1.490  10.006   8.791
32572SOL    HW299556   1.573   9.973   8.913
32573SOL     OW99557   7.675  12.233   6.813
32573SOL    HW199558   7.689  12.152   6.765
32573SOL    HW299559   7.659  12.299   6.745
32574SOL     OW99560  14.714   8.952   4.469
32574SOL    HW199561  14.682   8.870   4.507
32574SOL    HW299562  14.765   8.992   4.540
32575SOL     OW99563   2.850  12.996  13.370
32575SOL    HW199564   2.848  13.039  13.285
32575SOL    HW299565   2.774  12.937  13.368
32576SOL     OW99566   2.760   2.878  11.560
32576SOL    HW199567   2.684   2.836  11.600
32576SOL    HW299568   2.828   2.810  11.561
32577SOL     OW99569  13.582   6.527   5.742
32577SOL    HW199570  13.545   6.577   5.669
32577SOL    HW299571  13.625   6.592   5.797
32578SOL     OW99572  10.096   3.692   0.246
32578SOL    HW199573  10.164   3.704   0.312
32578SOL    HW299574  10.014   3.691   0.295
32579SOL     OW99575   5.799   8.946   6.278
32579SOL    HW199576   5.880   8.897   6.292
32579SOL    HW299577   5.819   9.034   6.308
32580SOL     OW99578   6.493  10.383   7.671
32580SOL    HW199579   6.562  10.319   7.656
32580SOL    HW299580   6.440  10.380   7.591
32581SOL     OW99581   4.305  12.146   9.921
32581SOL    HW199582   4.352  12.175  10.000
32581SOL    HW299583   4.272  12.227   9.882
32582SOL     OW99584   7.723   6.312  13.883
32582SOL    HW199585   7.646   6.364  13.907
32582SOL    HW299586   7.739   6.334  13.791
32583SOL     OW99587   4.021  13.183  11.411
32583SOL    HW199588   3.941  13.178  11.463
32583SOL    HW299589   4.020  13.102  11.359
32584SOL     OW99590  14.257   8.902   6.220
32584SOL    HW199591  14.296   8.969   6.164
32584SOL    HW299592  14.332   8.865   6.267
32585SOL     OW99593  10.307  14.317  12.100
32585SOL    HW199594  10.282  14.231  12.134
32585SOL    HW299595  10.403  14.318  12.103
32586SOL     OW99596  10.671   4.364   5.955
32586SOL    HW199597  10.678   4.370   5.860
32586SOL    HW299598  10.661   4.271   5.973
32587SOL     OW99599   7.404   1.240   3.439
32587SOL    HW199600   7.438   1.189   3.512
32587SOL    HW299601   7.323   1.196   3.414
32588SOL     OW99602   6.039   9.906   8.354
32588SOL    HW199603   6.028   9.811   8.358
32588SOL    HW299604   5.950   9.941   8.352
32589SOL     OW99605  14.245   5.861  14.673
32589SOL    HW199606  14.286   5.932  14.624
32589SOL    HW299607  14.217   5.799  14.605
32590SOL     OW99608   0.053   7.805   7.344
32590SOL    HW199609   0.055   7.714   7.374
32590SOL    HW299610   0.002   7.851   7.411
32591SOL     OW99611   4.906  11.304   3.055
32591SOL    HW199612   4.989  11.326   3.013
32591SOL    HW299613   4.843  11.363   3.015
32592SOL     OW99614   4.085   7.001  14.720
32592SOL    HW199615   4.015   6.948  14.758
32592SOL    HW299616   4.049   7.090  14.718
32593SOL     OW99617   6.031  10.254   8.331
32593SOL    HW199618   6.055  10.211   8.413
32593SOL    HW299619   6.115  10.279   8.292
32594SOL     OW99620   7.552  12.336  12.113
32594SOL    HW199621   7.642  12.363  12.096
32594SOL    HW299622   7.544  12.339  12.209
32595SOL     OW99623   6.365  11.392   7.184
32595SOL    HW199624   6.301  11.351   7.126
32595SOL    HW299625   6.449  11.381   7.139
32596SOL     OW99626  13.690   0.119   2.263
32596SOL    HW199627  13.715   0.127   2.355
32596SOL    HW299628  13.724   0.033   2.237
32597SOL     OW99629  12.708   4.869  12.092
32597SOL    HW199630  12.669   4.957  12.096
32597SOL    HW299631  12.633   4.810  12.092
32598SOL     OW99632   3.080   3.515   6.267
32598SOL    HW199633   3.066   3.542   6.358
32598SOL    HW299634   3.085   3.419   6.271
32599SOL     OW99635   0.031  14.585   1.202
32599SOL    HW199636  14.824  14.625   1.234
32599SOL    HW299637   0.098  14.613   1.265
32600SOL     OW99638   5.577  10.232   6.282
32600SOL    HW199639   5.522  10.206   6.356
32600SOL    HW299640   5.609  10.150   6.245
32601SOL     OW99641   3.974  11.262  13.043
32601SOL    HW199642   4.067  11.270  13.064
32601SOL    HW299643   3.964  11.170  13.016
32602SOL     OW99644  11.681   9.246  13.977
32602SOL    HW199645  11.660   9.154  13.956
32602SOL    HW299646  11.647   9.296  13.903
32603SOL     OW99647   4.206   8.561   1.934
32603SOL    HW199648   4.205   8.654   1.957
32603SOL    HW299649   4.174   8.516   2.012
32604SOL     OW99650  10.695   2.255   6.327
32604SOL    HW199651  10.639   2.333   6.334
32604SOL    HW299652  10.687   2.228   6.236
32605SOL     OW99653   3.582   7.451   2.011
32605SOL    HW199654   3.597   7.516   2.079
32605SOL    HW299655   3.493   7.469   1.980
32606SOL     OW99656   1.917  11.235   4.960
32606SOL    HW199657   1.834  11.189   4.953
32606SOL    HW299658   1.903  11.316   4.911
32607SOL     OW99659   8.464  11.288   0.565
32607SOL    HW199660   8.509  11.346   0.503
32607SOL    HW299661   8.387  11.257   0.518
32608SOL     OW99662   8.286   1.795   9.571
32608SOL    HW199663   8.364   1.851   9.569
32608SOL    HW299664   8.226   1.840   9.631
32609SOL     OW99665  13.075  12.912   1.096
32609SOL    HW199666  12.985  12.890   1.072
32609SOL    HW299667  13.090  12.998   1.058
32610SOL     OW99668   9.238  10.372   5.850
32610SOL    HW199669   9.254  10.308   5.919
32610SOL    HW299670   9.240  10.321   5.769
32611SOL     OW99671   5.731   7.701  13.487
32611SOL    HW199672   5.672   7.668  13.419
32611SOL    HW299673   5.789   7.761  13.441
32612SOL     OW99674  10.640  11.314  13.226
32612SOL    HW199675  10.705  11.343  13.290
32612SOL    HW299676  10.561  11.365  13.246
32613SOL     OW99677   0.421   1.576   7.728
32613SOL    HW199678   0.515   1.559   7.715
32613SOL    HW299679   0.379   1.492   7.711
32614SOL     OW99680   3.923  11.098   6.951
32614SOL    HW199681   3.910  11.163   6.882
32614SOL    HW299682   3.957  11.148   7.025
32615SOL     OW99683   4.442   2.730   1.061
32615SOL    HW199684   4.484   2.756   0.979
32615SOL    HW299685   4.410   2.811   1.099
32616SOL     OW99686   0.537   6.321  12.029
32616SOL    HW199687   0.605   6.339  12.094
32616SOL    HW299688   0.542   6.227  12.013
32617SOL     OW99689   5.566  14.545   7.404
32617SOL    HW199690   5.655  14.511   7.390
32617SOL    HW299691   5.575  14.640   7.391
32618SOL     OW99692  10.625   3.902  10.637
32618SOL    HW199693  10.538   3.865  10.646
32618SOL    HW299694  10.627   3.936  10.547
32619SOL     OW99695  10.932  11.276   9.945
32619SOL    HW199696  10.842  11.309   9.940
32619SOL    HW299697  10.979  11.323   9.876
32620SOL     OW99698   4.500   2.665  13.769
32620SOL    HW199699   4.559   2.736  13.744
32620SOL    HW299700   4.550   2.585  13.748
32621SOL     OW99701   4.021   6.217   7.620
32621SOL    HW199702   4.069   6.254   7.545
32621SOL    HW299703   3.933   6.254   7.613
32622SOL     OW99704   5.361  12.232   3.648
32622SOL    HW199705   5.362  12.317   3.692
32622SOL    HW299706   5.291  12.183   3.691
32623SOL     OW99707  14.116  10.948   3.022
32623SOL    HW199708  14.192  11.005   3.031
32623SOL    HW299709  14.085  10.964   2.932
32624SOL     OW99710   1.102   4.744   1.902
32624SOL    HW199711   1.071   4.791   1.825
32624SOL    HW299712   1.189   4.779   1.919
32625SOL     OW99713   8.934   2.845  11.142
32625SOL    HW199714   8.998   2.869  11.209
32625SOL    HW299715   8.896   2.928  11.114
32626SOL     OW99716   5.953   4.587  12.601
32626SOL    HW199717   5.976   4.517  12.662
32626SOL    HW299718   5.989   4.559  12.517
32627SOL     OW99719   7.449   7.725  11.586
32627SOL    HW199720   7.381   7.787  11.562
32627SOL    HW299721   7.501   7.713  11.506
32628SOL     OW99722  14.367   9.461   3.705
32628SOL    HW199723  14.289   9.406   3.697
32628SOL    HW299724  14.413   9.425   3.781
32629SOL     OW99725   9.053  12.644   7.691
32629SOL    HW199726   9.034  12.659   7.598
32629SOL    HW299727   9.115  12.571   7.691
32630SOL     OW99728   8.379   2.337   1.632
32630SOL    HW199729   8.455   2.371   1.680
32630SOL    HW299730   8.381   2.383   1.548
32631SOL     OW99731   1.199   3.662  12.331
32631SOL    HW199732   1.163   3.705  12.254
32631SOL    HW299733   1.292   3.684  12.330
32632SOL     OW99734   1.574   6.439   3.437
32632SOL    HW199735   1.593   6.373   3.370
32632SOL    HW299736   1.652   6.441   3.491
32633SOL     OW99737   5.192  13.869   4.767
32633SOL    HW199738   5.198  13.774   4.753
32633SOL    HW299739   5.104  13.892   4.737
32634SOL     OW99740  12.155   9.156  10.419
32634SOL    HW199741  12.210   9.141  10.496
32634SOL    HW299742  12.213   9.139  10.345
32635SOL     OW99743  13.684  11.258   5.803
32635SOL    HW199744  13.758  11.213   5.763
32635SOL    HW299745  13.721  11.339   5.839
32636SOL     OW99746  12.813   4.920   6.994
32636SOL    HW199747  12.895   4.968   6.986
32636SOL    HW299748  12.816   4.881   7.081
32637SOL     OW99749   7.961   4.796  13.260
32637SOL    HW199750   7.933   4.767  13.173
32637SOL    HW299751   7.931   4.726  13.319
32638SOL     OW99752   3.185   5.888  13.629
32638SOL    HW199753   3.272   5.902  13.665
32638SOL    HW299754   3.199   5.830  13.554
32639SOL     OW99755   4.914   8.385   5.648
32639SOL    HW199756   4.904   8.471   5.608
32639SOL    HW299757   4.858   8.387   5.725
32640SOL     OW99758   8.314   5.919   4.024
32640SOL    HW199759   8.245   5.951   4.082
32640SOL    HW299760   8.395   5.934   4.072
32641SOL     OW99761   5.473   0.087   0.293
32641SOL    HW199762   5.490   0.168   0.245
32641SOL    HW299763   5.478   0.018   0.227
32642SOL     OW99764   1.993  14.852   3.243
32642SOL    HW199765   1.966   0.065   3.216
32642SOL    HW299766   1.912  14.808   3.269
32643SOL     OW99767  13.255  12.894  14.122
32643SOL    HW199768  13.285  12.968  14.070
32643SOL    HW299769  13.166  12.917  14.148
32644SOL     OW99770   0.757   8.702   6.460
32644SOL    HW199771   0.759   8.645   6.384
32644SOL    HW299772   0.841   8.749   6.456
32645SOL     OW99773   2.254  12.324   4.701
32645SOL    HW199774   2.345  12.347   4.681
32645SOL    HW299775   2.255  12.229   4.710
32646SOL     OW99776   1.027  10.459   5.240
32646SOL    HW199777   0.956  10.523   5.233
32646SOL    HW299778   1.045  10.454   5.333
32647SOL     OW99779   6.097   8.184   1.272
32647SOL    HW199780   6.191   8.168   1.267
32647SOL    HW299781   6.064   8.111   1.325
32648SOL     OW99782   1.950  12.909   1.406
32648SOL    HW199783   1.877  12.927   1.347
32648SOL    HW299784   1.997  12.992   1.413
32649SOL     OW99785   9.404   9.602  13.246
32649SOL    HW199786   9.388   9.623  13.154
32649SOL    HW299787   9.318   9.603  13.286
32650SOL     OW99788   5.302   3.454  12.486
32650SOL    HW199789   5.299   3.543  12.451
32650SOL    HW299790   5.395   3.431  12.482
32651SOL     OW99791  14.595  13.259   5.569
32651SOL    HW199792  14.627  13.173   5.538
32651SOL    HW299793  14.563  13.242   5.657
32652SOL     OW99794  13.578  14.740  13.393
32652SOL    HW199795  13.550  14.814  13.340
32652SOL    HW299796  13.607  14.674  13.330
32653SOL     OW99797   1.396  14.132  12.221
32653SOL    HW199798   1.358  14.125  12.134
32653SOL    HW299799   1.330  14.180  12.272
32654SOL     OW99800  12.886   0.364  14.113
32654SOL    HW199801  12.933   0.405  14.186
32654SOL    HW299802  12.848   0.285  14.151
32655SOL     OW99803   7.892  11.197   4.749
32655SOL    HW199804   7.959  11.132   4.728
32655SOL    HW299805   7.867  11.178   4.839
32656SOL     OW99806   4.699   7.074  14.396
32656SOL    HW199807   4.772   7.028  14.355
32656SOL    HW299808   4.623   7.018  14.380
32657SOL     OW99809   6.948  12.722  12.496
32657SOL    HW199810   6.872  12.664  12.499
32657SOL    HW299811   7.007  12.689  12.564
32658SOL     OW99812  11.946  12.563   5.616
32658SOL    HW199813  11.991  12.621   5.678
32658SOL    HW299814  11.856  12.560   5.647
32659SOL     OW99815  11.837  10.526  12.440
32659SOL    HW199816  11.907  10.591  12.448
32659SOL    HW299817  11.870  10.449  12.487
32660SOL     OW99818   6.549   5.060  13.398
32660SOL    HW199819   6.485   5.022  13.459
32660SOL    HW299820   6.613   4.990  13.385
32661SOL     OW99821   5.469   9.551   7.809
32661SOL    HW199822   5.555   9.559   7.768
32661SOL    HW299823   5.413   9.518   7.739
32662SOL     OW99824   9.906   1.957  11.178
32662SOL    HW199825   9.963   1.918  11.111
32662SOL    HW299826   9.897   2.049  11.151
32663SOL     OW99827  14.738   2.610  11.117
32663SOL    HW199828  14.730   2.609  11.021
32663SOL    HW299829  14.820   2.656  11.134
32664SOL     OW99830   2.059   8.652   8.665
32664SOL    HW199831   2.006   8.581   8.628
32664SOL    HW299832   2.094   8.698   8.589
32665SOL     OW99833   7.897   4.310  12.818
32665SOL    HW199834   7.943   4.229  12.799
32665SOL    HW299835   7.813   4.282  12.854
32666SOL     OW99836  13.170  10.961   1.248
32666SOL    HW199837  13.225  10.898   1.296
32666SOL    HW299838  13.086  10.916   1.239
32667SOL     OW99839  11.457   9.570   7.080
32667SOL    HW199840  11.440   9.507   7.150
32667SOL    HW299841  11.490   9.648   7.126
32668SOL     OW99842   5.909   8.075  10.837
32668SOL    HW199843   5.991   8.083  10.884
32668SOL    HW299844   5.860   8.154  10.860
32669SOL     OW99845  13.694  13.650   3.843
32669SOL    HW199846  13.629  13.715   3.869
32669SOL    HW299847  13.684  13.578   3.906
32670SOL     OW99848   6.702  12.604   8.145
32670SOL    HW199849   6.762  12.658   8.196
32670SOL    HW299850   6.759  12.551   8.089
32671SOL     OW99851  10.723   3.624  13.056
32671SOL    HW199852  10.817   3.610  13.069
32671SOL    HW299853  10.684   3.608  13.142
32672SOL     OW99854   6.651   3.557   4.782
32672SOL    HW199855   6.571   3.509   4.765
32672SOL    HW299856   6.717   3.490   4.799
32673SOL     OW99857   2.934   6.801   8.030
32673SOL    HW199858   2.939   6.714   8.069
32673SOL    HW299859   2.842   6.813   8.010
32674SOL     OW99860   2.347   8.855   8.315
32674SOL    HW199861   2.343   8.824   8.406
32674SOL    HW299862   2.256   8.877   8.294
32675SOL     OW99863   9.837   7.176   0.364
32675SOL    HW199864   9.760   7.127   0.391
32675SOL    HW299865   9.910   7.134   0.409
32676SOL     OW99866   6.326  12.402   7.099
32676SOL    HW199867   6.255  12.467   7.093
32676SOL    HW299868   6.286  12.327   7.143
32677SOL     OW99869  12.346   0.550  11.255
32677SOL    HW199870  12.318   0.574  11.344
32677SOL    HW299871  12.441   0.562  11.256
32678SOL     OW99872   8.521   0.874   7.688
32678SOL    HW199873   8.453   0.824   7.643
32678SOL    HW299874   8.603   0.839   7.654
32679SOL     OW99875  14.339  10.782  14.652
32679SOL    HW199876  14.293  10.859  14.618
32679SOL    HW299877  14.272  10.734  14.702
32680SOL     OW99878   0.210  11.507   5.076
32680SOL    HW199879   0.155  11.428   5.083
32680SOL    HW299880   0.147  11.578   5.064
32681SOL     OW99881   2.986  11.693   4.981
32681SOL    HW199882   3.037  11.756   5.033
32681SOL    HW299883   2.982  11.615   5.035
32682SOL     OW99884  11.589  11.678   8.970
32682SOL    HW199885  11.600  11.773   8.979
32682SOL    HW299886  11.666  11.649   8.922
32683SOL     OW99887  10.837   7.773  12.363
32683SOL    HW199888  10.830   7.702  12.426
32683SOL    HW299889  10.757   7.824  12.375
32684SOL     OW99890  12.024   0.490  14.627
32684SOL    HW199891  11.965   0.442  14.685
32684SOL    HW299892  11.967   0.526  14.559
32685SOL     OW99893   8.933   5.528   0.936
32685SOL    HW199894   9.016   5.563   0.967
32685SOL    HW299895   8.879   5.605   0.920
32686SOL     OW99896   1.347  11.828  10.790
32686SOL    HW199897   1.333  11.850  10.698
32686SOL    HW299898   1.336  11.733  10.793
32687SOL     OW99899  11.939  14.099   6.930
32687SOL    HW199900  12.015  14.069   6.979
32687SOL    HW299901  11.878  14.026   6.932
32688SOL     OW99902   0.700   9.406  12.637
32688SOL    HW199903   0.625   9.376  12.689
32688SOL    HW299904   0.733   9.482  12.685
32689SOL     OW99905   4.067   3.259   8.842
32689SOL    HW199906   4.090   3.177   8.798
32689SOL    HW299907   4.112   3.254   8.927
32690SOL     OW99908   4.717   5.610   8.786
32690SOL    HW199909   4.777   5.671   8.829
32690SOL    HW299910   4.636   5.660   8.776
32691SOL     OW99911   9.250   1.102   0.579
32691SOL    HW199912   9.267   1.060   0.663
32691SOL    HW299913   9.331   1.150   0.560
32692SOL     OW99914   7.299  14.505   4.008
32692SOL    HW199915   7.222  14.535   4.056
32692SOL    HW299916   7.366  14.570   4.028
32693SOL     OW99917  14.089  12.719   9.044
32693SOL    HW199918  14.067  12.668   8.966
32693SOL    HW299919  14.063  12.662   9.117
32694SOL     OW99920  10.723   2.342   3.046
32694SOL    HW199921  10.706   2.430   3.013
32694SOL    HW299922  10.748   2.356   3.138
32695SOL     OW99923   5.513  11.480  12.458
32695SOL    HW199924   5.427  11.494  12.497
32695SOL    HW299925   5.539  11.566  12.424
32696SOL     OW99926   2.525   2.449   0.869
32696SOL    HW199927   2.575   2.396   0.807
32696SOL    HW299928   2.500   2.387   0.938
32697SOL     OW99929   3.396  11.674   2.900
32697SOL    HW199930   3.364  11.760   2.873
32697SOL    HW299931   3.463  11.652   2.836
32698SOL     OW99932   8.389  10.752   2.884
32698SOL    HW199933   8.395  10.719   2.974
32698SOL    HW299934   8.295  10.751   2.865
32699SOL     OW99935  10.681   4.509   1.412
32699SOL    HW199936  10.692   4.566   1.336
32699SOL    HW299937  10.695   4.421   1.379
32700SOL     OW99938   6.608  13.493  10.247
32700SOL    HW199939   6.536  13.431  10.241
32700SOL    HW299940   6.612  13.515  10.340
32701SOL     OW99941   3.779   5.093   8.800
32701SOL    HW199942   3.709   5.058   8.744
32701SOL    HW299943   3.845   5.125   8.738
32702SOL     OW99944   7.688   8.823   4.199
32702SOL    HW199945   7.692   8.743   4.147
32702SOL    HW299946   7.762   8.876   4.169
32703SOL     OW99947   3.257   8.724   2.681
32703SOL    HW199948   3.322   8.768   2.626
32703SOL    HW299949   3.258   8.772   2.764
32704SOL     OW99950   7.404   2.537  12.469
32704SOL    HW199951   7.356   2.606  12.424
32704SOL    HW299952   7.483   2.524  12.416
32705SOL     OW99953   8.713   9.270   9.466
32705SOL    HW199954   8.796   9.242   9.503
32705SOL    HW299955   8.669   9.316   9.537
32706SOL     OW99956   3.368   0.402  13.652
32706SOL    HW199957   3.418   0.340  13.705
32706SOL    HW299958   3.280   0.402  13.690
32707SOL     OW99959  14.677   0.447  11.602
32707SOL    HW199960  14.633   0.515  11.550
32707SOL    HW299961  14.677   0.370  11.546
32708SOL     OW99962  11.511   9.729   0.223
32708SOL    HW199963  11.569   9.707   0.296
32708SOL    HW299964  11.512   9.825   0.219
32709SOL     OW99965  11.099   6.443   7.499
32709SOL    HW199966  11.084   6.351   7.476
32709SOL    HW299967  11.014   6.485   7.491
32710SOL     OW99968   2.302  12.454   5.652
32710SOL    HW199969   2.376  12.493   5.606
32710SOL    HW299970   2.240  12.433   5.583
32711SOL     OW99971  11.014  10.686  13.492
32711SOL    HW199972  10.957  10.763  13.490
32711SOL    HW299973  11.102  10.722  13.506
32712SOL     OW99974  10.439   5.818   6.792
32712SOL    HW199975  10.369   5.803   6.729
32712SOL    HW299976  10.449   5.734   6.837
32713SOL     OW99977   3.510   6.117  10.701
32713SOL    HW199978   3.440   6.076  10.649
32713SOL    HW299979   3.543   6.187  10.646
32714SOL     OW99980   6.625  10.205  12.799
32714SOL    HW199981   6.719  10.212  12.817
32714SOL    HW299982   6.620  10.158  12.716
32715SOL     OW99983   8.536   4.505   8.583
32715SOL    HW199984   8.554   4.597   8.603
32715SOL    HW299985   8.580   4.456   8.653
32716SOL     OW99986  11.901  13.146  11.289
32716SOL    HW199987  11.982  13.106  11.319
32716SOL    HW299988  11.905  13.236  11.322
32717SOL     OW99989   1.436   5.115   2.470
32717SOL    HW199990   1.340   5.113   2.463
32717SOL    HW299991   1.465   5.153   2.388
32718SOL     OW99992   5.247   1.434   3.468
32718SOL    HW199993   5.280   1.506   3.414
32718SOL    HW299994   5.297   1.357   3.441
32719SOL     OW99995   5.671   5.906   5.516
32719SOL    HW199996   5.581   5.929   5.492
32719SOL    HW299997   5.725   5.972   5.473
32720SOL     OW99998   1.838   5.476   9.615
32720SOL    HW199999   1.759   5.530   9.609
32720SOL    HW2    0   1.851   5.443   9.526
32721SOL     OW    1  11.466   2.876  14.278
32721SOL    HW1    2  11.400   2.830  14.330
32721SOL    HW2    3  11.419   2.949  14.238
32722SOL     OW    4  10.037   1.863   0.844
32722SOL    HW1    5   9.943   1.880   0.843
32722SOL    HW2    6  10.049   1.796   0.912
32723SOL     OW    7   4.072   3.778   4.074
32723SOL    HW1    8   4.017   3.849   4.041
32723SOL    HW2    9   4.069   3.788   4.170
32724SOL     OW   10   5.507   2.412   5.665
32724SOL    HW1   11   5.446   2.465   5.715
32724SOL    HW2   12   5.457   2.383   5.589
32725SOL     OW   13  14.715   3.557   4.483
32725SOL    HW1   14  14.677   3.631   4.436
32725SOL    HW2   15  14.640   3.512   4.523
32726SOL     OW   16   7.706   4.844   4.349
32726SOL    HW1   17   7.753   4.838   4.265
32726SOL    HW2   18   7.709   4.937   4.372
32727SOL     OW   19   4.062  11.435   9.798
32727SOL    HW1   20   3.984  11.489   9.812
32727SOL    HW2   21   4.109  11.439   9.881
32728SOL     OW   22  12.117   8.558   5.487
32728SOL    HW1   23  12.166   8.638   5.509
32728SOL    HW2   24  12.039   8.562   5.542
32729SOL     OW   25   3.763   4.701   2.980
32729SOL    HW1   26   3.696   4.646   2.941
32729SOL    HW2   27   3.797   4.753   2.907
32730SOL     OW   28   3.947  11.334  12.118
32730SOL    HW1   29   3.944  11.404  12.053
32730SOL    HW2   30   3.919  11.376  12.199
32731SOL     OW   31   0.694  13.300   6.472
32731SOL    HW1   32   0.694  13.218   6.423
32731SOL    HW2   33   0.764  13.352   6.432
32732SOL     OW   34  11.004   5.094   9.459
32732SOL    HW1   35  11.072   5.051   9.407
32732SOL    HW2   36  11.033   5.186   9.463
32733SOL     OW   37   8.449   9.470   8.904
32733SOL    HW1   38   8.520   9.473   8.967
32733SOL    HW2   39   8.470   9.540   8.841
32734SOL     OW   40   2.124   0.927   8.068
32734SOL    HW1   41   2.183   0.915   7.993
32734SOL    HW2   42   2.171   0.888   8.142
32735SOL     OW   43   9.676   2.700   7.358
32735SOL    HW1   44   9.588   2.680   7.390
32735SOL    HW2   45   9.734   2.649   7.413
32736SOL     OW   46  14.207   8.905  14.643
32736SOL    HW1   47  14.213   8.872  14.553
32736SOL    HW2   48  14.272   8.854  14.691
32737SOL     OW   49  11.900   6.612   6.719
32737SOL    HW1   50  11.968   6.654   6.666
32737SOL    HW2   51  11.843   6.569   6.656
32738SOL     OW   52  12.985  12.092   0.686
32738SOL    HW1   53  12.907  12.088   0.741
32738SOL    HW2   54  13.058  12.078   0.747
32739SOL     OW   55   2.842   4.559   7.874
32739SOL    HW1   56   2.860   4.527   7.786
32739SOL    HW2   57   2.855   4.654   7.868
32740SOL     OW   58  12.947   8.646   8.619
32740SOL    HW1   59  13.005   8.598   8.561
32740SOL    HW2   60  12.890   8.579   8.657
32741SOL     OW   61  10.369   1.498  12.366
32741SOL    HW1   62  10.412   1.533  12.444
32741SOL    HW2   63  10.378   1.566  12.300
32742SOL     OW   64   7.862   2.424   7.611
32742SOL    HW1   65   7.827   2.500   7.565
32742SOL    HW2   66   7.953   2.447   7.629
32743SOL     OW   67  10.477   1.530   7.235
32743SOL    HW1   68  10.388   1.551   7.265
32743SOL    HW2   69  10.463   1.480   7.154
32744SOL     OW   70  14.725   5.783   3.640
32744SOL    HW1   71  14.664   5.810   3.709
32744SOL    HW2   72  14.788   5.726   3.685
32745SOL     OW   73   3.208  13.912  13.944
32745SOL    HW1   74   3.296  13.889  13.916
32745SOL    HW2   75   3.219  13.992  13.996
32746SOL     OW   76   9.556   0.099  12.383
32746SOL    HW1   77   9.581   0.166  12.447
32746SOL    HW2   78   9.572   0.140  12.298
32747SOL     OW   79   2.931   2.970   2.910
32747SOL    HW1   80   2.836   2.985   2.911
32747SOL    HW2   81   2.955   2.965   3.002
32748SOL     OW   82  13.831  11.041   0.865
32748SOL    HW1   83  13.752  11.037   0.920
32748SOL    HW2   84  13.810  10.986   0.790
32749SOL     OW   85   7.361   0.208   5.715
32749SOL    HW1   86   7.358   0.229   5.808
32749SOL    HW2   87   7.415   0.129   5.710
32750SOL     OW   88  12.051  14.802   8.244
32750SOL    HW1   89  12.035  14.846   8.161
32750SOL    HW2   90  11.981  14.738   8.251
32751SOL     OW   91   1.841   7.532  10.934
32751SOL    HW1   92   1.854   7.589  11.010
32751SOL    HW2   93   1.926   7.527  10.892
32752SOL     OW   94  14.382   8.552  11.322
32752SOL    HW1   95  14.469   8.586  11.342
32752SOL    HW2   96  14.396   8.459  11.306
32753SOL     OW   97  14.321   4.715   1.770
32753SOL    HW1   98  14.406   4.747   1.742
32753SOL    HW2   99  14.307   4.756   1.855
32754SOL     OW  100  13.043   3.585  13.046
32754SOL    HW1  101  13.097   3.526  13.098
32754SOL    HW2  102  13.106   3.633  12.992
32755SOL     OW  103   0.457   3.302   0.260
32755SOL    HW1  104   0.454   3.329   0.168
32755SOL    HW2  105   0.458   3.206   0.257
32756SOL     OW  106   9.896   5.042   0.993
32756SOL    HW1  107   9.863   5.132   0.985
32756SOL    HW2  108   9.948   5.029   0.914
32757SOL     OW  109  11.221  12.834   0.285
32757SOL    HW1  110  11.226  12.760   0.345
32757SOL    HW2  111  11.280  12.811   0.213
32758SOL     OW  112   1.902  13.860   1.669
32758SOL    HW1  113   1.990  13.839   1.637
32758SOL    HW2  114   1.911  13.947   1.709
32759SOL     OW  115   2.156  10.461  13.462
32759SOL    HW1  116   2.221  10.416  13.408
32759SOL    HW2  117   2.145  10.405  13.539
32760SOL     OW  118   3.592   4.154   8.362
32760SOL    HW1  119   3.639   4.228   8.401
32760SOL    HW2  120   3.507   4.190   8.335
32761SOL     OW  121   6.075  11.029  12.674
32761SOL    HW1  122   6.118  11.069  12.749
32761SOL    HW2  123   6.052  10.941  12.703
32762SOL     OW  124   0.964   2.520  11.645
32762SOL    HW1  125   0.954   2.569  11.727
32762SOL    HW2  126   1.022   2.575  11.592
32763SOL     OW  127   0.356   5.016  12.042
32763SOL    HW1  128   0.428   5.066  12.080
32763SOL    HW2  129   0.337   4.948  12.106
32764SOL     OW  130   6.688  12.124  13.364
32764SOL    HW1  131   6.677  12.045  13.312
32764SOL    HW2  132   6.640  12.106  13.445
32765SOL     OW  133   3.573   7.239   4.995
32765SOL    HW1  134   3.533   7.153   4.990
32765SOL    HW2  135   3.533   7.281   5.071
32766SOL     OW  136   5.418   8.971   4.613
32766SOL    HW1  137   5.458   8.927   4.537
32766SOL    HW2  138   5.328   8.987   4.586
32767SOL     OW  139   6.453   8.098  13.527
32767SOL    HW1  140   6.525   8.098  13.591
32767SOL    HW2  141   6.386   8.043  13.567
32768SOL     OW  142   8.563   1.405  10.825
32768SOL    HW1  143   8.533   1.475  10.767
32768SOL    HW2  144   8.655   1.425  10.842
32769SOL     OW  145   2.474   4.704   2.698
32769SOL    HW1  146   2.503   4.689   2.788
32769SOL    HW2  147   2.496   4.795   2.680
32770SOL     OW  148  11.121   9.336   0.291
32770SOL    HW1  149  11.040   9.354   0.245
32770SOL    HW2  150  11.096   9.278   0.363
32771SOL     OW  151   2.940  11.990   5.785
32771SOL    HW1  152   2.879  12.053   5.746
32771SOL    HW2  153   3.027  12.025   5.763
32772SOL     OW  154  10.378   4.874  14.070
32772SOL    HW1  155  10.290   4.883  14.108
32772SOL    HW2  156  10.430   4.939  14.117
32773SOL     OW  157  14.030   4.509   0.869
32773SOL    HW1  158  13.951   4.542   0.826
32773SOL    HW2  159  13.999   4.478   0.955
32774SOL     OW  160   6.324  14.256   9.433
32774SOL    HW1  161   6.397  14.196   9.451
32774SOL    HW2  162   6.275  14.258   9.515
32775SOL     OW  163   3.220   5.319   3.810
32775SOL    HW1  164   3.195   5.379   3.740
32775SOL    HW2  165   3.224   5.233   3.768
32776SOL     OW  166  12.120   5.213   3.520
32776SOL    HW1  167  12.035   5.171   3.535
32776SOL    HW2  168  12.147   5.183   3.433
32777SOL     OW  169  13.543   7.245   9.466
32777SOL    HW1  170  13.612   7.311   9.463
32777SOL    HW2  171  13.522   7.237   9.560
32778SOL     OW  172   1.224   8.126  13.016
32778SOL    HW1  173   1.169   8.062  12.972
32778SOL    HW2  174   1.184   8.210  12.995
32779SOL     OW  175   7.948   5.939   6.588
32779SOL    HW1  176   7.922   5.896   6.507
32779SOL    HW2  177   8.035   5.905   6.608
32780SOL     OW  178  14.420  14.109   5.666
32780SOL    HW1  179  14.502  14.148   5.696
32780SOL    HW2  180  14.443  14.064   5.584
32781SOL     OW  181   3.146  13.045  10.192
32781SOL    HW1  182   3.197  13.065  10.271
32781SOL    HW2  183   3.184  12.964  10.159
32782SOL     OW  184   1.788   5.306  13.312
32782SOL    HW1  185   1.766   5.398  13.328
32782SOL    HW2  186   1.717   5.257  13.353
32783SOL     OW  187  12.062   6.921   7.776
32783SOL    HW1  188  12.110   6.978   7.718
32783SOL    HW2  189  12.099   6.937   7.863
32784SOL     OW  190  14.267   2.585   6.300
32784SOL    HW1  191  14.341   2.525   6.290
32784SOL    HW2  192  14.257   2.595   6.395
32785SOL     OW  193   7.863  14.833   5.462
32785SOL    HW1  194   7.949  14.874   5.468
32785SOL    HW2  195   7.800   0.030   5.476
32786SOL     OW  196   0.186   1.021  10.521
32786SOL    HW1  197   0.185   0.925  10.522
32786SOL    HW2  198   0.100   1.046  10.555
32787SOL     OW  199   0.685   1.684   7.812
32787SOL    HW1  200   0.765   1.728   7.840
32787SOL    HW2  201   0.618   1.715   7.872
32788SOL     OW  202   7.294   8.732  10.643
32788SOL    HW1  203   7.331   8.819  10.633
32788SOL    HW2  204   7.298   8.694  10.555
32789SOL     OW  205   9.416   4.105   5.517
32789SOL    HW1  206   9.333   4.057   5.523
32789SOL    HW2  207   9.480   4.047   5.558
32790SOL     OW  208  11.693   8.041   3.258
32790SOL    HW1  209  11.657   8.128   3.277
32790SOL    HW2  210  11.621   7.995   3.215
32791SOL     OW  211  14.029   0.348  14.110
32791SOL    HW1  212  14.122   0.363  14.128
32791SOL    HW2  213  13.991   0.436  14.102
32792SOL     OW  214  10.257  13.861   4.131
32792SOL    HW1  215  10.277  13.851   4.225
32792SOL    HW2  216  10.315  13.798   4.088
32793SOL     OW  217  10.113   8.887  11.168
32793SOL    HW1  218  10.044   8.828  11.139
32793SOL    HW2  219  10.194   8.846  11.136
32794SOL     OW  220  13.483  12.287   7.082
32794SOL    HW1  221  13.561  12.278   7.137
32794SOL    HW2  222  13.440  12.201   7.087
32795SOL     OW  223   5.320  10.173   2.577
32795SOL    HW1  224   5.405  10.210   2.602
32795SOL    HW2  225   5.256  10.230   2.619
32796SOL     OW  226   6.748   3.501  11.593
32796SOL    HW1  227   6.657   3.513  11.621
32796SOL    HW2  228   6.759   3.406  11.588
32797SOL     OW  229   4.705   2.383  13.031
32797SOL    HW1  230   4.723   2.420  12.944
32797SOL    HW2  231   4.646   2.309  13.014
32798SOL     OW  232  10.303   3.800   4.209
32798SOL    HW1  233  10.351   3.859   4.151
32798SOL    HW2  234  10.322   3.712   4.175
32799SOL     OW  235   6.082   7.357   2.018
32799SOL    HW1  236   6.077   7.452   2.005
32799SOL    HW2  237   6.025   7.340   2.092
32800SOL     OW  238  12.468  13.712   3.808
32800SOL    HW1  239  12.553  13.749   3.785
32800SOL    HW2  240  12.446  13.655   3.735
32801SOL     OW  241   8.022   2.585   1.370
32801SOL    HW1  242   8.014   2.551   1.281
32801SOL    HW2  243   7.979   2.519   1.424
32802SOL     OW  244  14.770   6.628   0.600
32802SOL    HW1  245  14.809   6.610   0.514
32802SOL    HW2  246  14.830   6.587   0.662
32803SOL     OW  247  11.464   2.194   7.735
32803SOL    HW1  248  11.471   2.141   7.655
32803SOL    HW2  249  11.370   2.194   7.755
32804SOL     OW  250  12.388   7.700  13.757
32804SOL    HW1  251  12.369   7.669  13.846
32804SOL    HW2  252  12.440   7.630  13.718
32805SOL     OW  253  10.960   2.221  11.531
32805SOL    HW1  254  11.040   2.195  11.576
32805SOL    HW2  255  10.962   2.172  11.449
32806SOL     OW  256   3.096   8.764  10.509
32806SOL    HW1  257   3.120   8.699  10.575
32806SOL    HW2  258   3.045   8.830  10.557
32807SOL     OW  259   2.514   8.903   7.276
32807SOL    HW1  260   2.532   8.888   7.184
32807SOL    HW2  261   2.448   8.838   7.299
32808SOL     OW  262   7.993   2.582   0.501
32808SOL    HW1  263   7.986   2.523   0.576
32808SOL    HW2  264   7.967   2.668   0.536
32809SOL     OW  265   9.439   7.899   1.817
32809SOL    HW1  266   9.344   7.892   1.824
32809SOL    HW2  267   9.473   7.841   1.885
32810SOL     OW  268   8.566   6.271  11.110
32810SOL    HW1  269   8.611   6.351  11.137
32810SOL    HW2  270   8.608   6.202  11.160
32811SOL     OW  271   9.211   7.943  11.507
32811SOL    HW1  272   9.237   7.974  11.421
32811SOL    HW2  273   9.262   7.864  11.521
32812SOL     OW  274  13.953   6.656   7.421
32812SOL    HW1  275  13.859   6.668   7.407
32812SOL    HW2  276  13.966   6.561   7.416
32813SOL     OW  277  11.265  13.956   4.613
32813SOL    HW1  278  11.315  13.987   4.689
32813SOL    HW2  279  11.331  13.920   4.554
32814SOL     OW  280   3.065  13.586   9.248
32814SOL    HW1  281   3.158  13.604   9.235
32814SOL    HW2  282   3.021  13.666   9.220
32815SOL     OW  283   9.798   5.600   4.949
32815SOL    HW1  284   9.739   5.592   4.874
32815SOL    HW2  285   9.817   5.510   4.974
32816SOL     OW  286  11.209  13.233   5.949
32816SOL    HW1  287  11.185  13.256   5.859
32816SOL    HW2  288  11.127  13.240   5.998
32817SOL     OW  289   9.194  13.756   9.648
32817SOL    HW1  290   9.103  13.782   9.633
32817SOL    HW2  291   9.197  13.663   9.623
32818SOL     OW  292   2.501   1.160  13.765
32818SOL    HW1  293   2.554   1.155  13.685
32818SOL    HW2  294   2.447   1.080  13.762
32819SOL     OW  295   4.013  10.502   3.506
32819SOL    HW1  296   4.080  10.463   3.562
32819SOL    HW2  297   4.064  10.543   3.435
32820SOL     OW  298  14.138  14.232  12.085
32820SOL    HW1  299  14.051  14.232  12.126
32820SOL    HW2  300  14.191  14.179  12.145
32821SOL     OW  301   0.880   7.403  11.217
32821SOL    HW1  302   0.851   7.317  11.247
32821SOL    HW2  303   0.816   7.428  11.150
32822SOL     OW  304  14.241   0.112   4.298
32822SOL    HW1  305  14.240   0.152   4.211
32822SOL    HW2  306  14.158   0.140   4.337
32823SOL     OW  307   9.631   5.217  10.624
32823SOL    HW1  308   9.651   5.139  10.573
32823SOL    HW2  309   9.632   5.288  10.560
32824SOL     OW  310   0.465  10.640  11.889
32824SOL    HW1  311   0.441  10.576  11.822
32824SOL    HW2  312   0.413  10.617  11.965
32825SOL     OW  313   0.231   3.838   6.794
32825SOL    HW1  314   0.291   3.906   6.824
32825SOL    HW2  315   0.147   3.883   6.784
32826SOL     OW  316   5.671   6.212   9.274
32826SOL    HW1  317   5.586   6.252   9.255
32826SOL    HW2  318   5.697   6.249   9.358
32827SOL     OW  319   0.765   9.539   0.652
32827SOL    HW1  320   0.803   9.517   0.736
32827SOL    HW2  321   0.776   9.634   0.645
32828SOL     OW  322   9.575   7.246   9.535
32828SOL    HW1  323   9.503   7.187   9.513
32828SOL    HW2  324   9.589   7.297   9.455
32829SOL     OW  325  12.151  12.583  12.832
32829SOL    HW1  326  12.059  12.569  12.855
32829SOL    HW2  327  12.148  12.611  12.740
32830SOL     OW  328   2.959   4.036   9.947
32830SOL    HW1  329   2.987   3.964  10.004
32830SOL    HW2  330   2.864   4.032   9.949
32831SOL     OW  331  13.261   4.395  11.090
32831SOL    HW1  332  13.357   4.399  11.081
32831SOL    HW2  333  13.228   4.434  11.009
32832SOL     OW  334   9.754   2.250   4.163
32832SOL    HW1  335   9.702   2.173   4.139
32832SOL    HW2  336   9.769   2.296   4.081
32833SOL     OW  337   2.951  13.276  13.603
32833SOL    HW1  338   2.858  13.279  13.578
32833SOL    HW2  339   2.992  13.343  13.548
32834SOL     OW  340   1.826  12.538  14.353
32834SOL    HW1  341   1.903  12.575  14.310
32834SOL    HW2  342   1.839  12.443  14.349
32835SOL     OW  343  13.367   3.185   1.924
32835SOL    HW1  344  13.364   3.090   1.937
32835SOL    HW2  345  13.317   3.220   1.999
32836SOL     OW  346   8.075   2.957   6.156
32836SOL    HW1  347   8.115   2.917   6.079
32836SOL    HW2  348   8.085   3.051   6.144
32837SOL     OW  349   1.423   9.926   0.958
32837SOL    HW1  350   1.328   9.922   0.964
32837SOL    HW2  351   1.448   9.993   1.022
32838SOL     OW  352  10.652  12.730  11.182
32838SOL    HW1  353  10.690  12.657  11.132
32838SOL    HW2  354  10.578  12.759  11.129
32839SOL     OW  355   2.274   1.137   9.527
32839SOL    HW1  356   2.254   1.057   9.576
32839SOL    HW2  357   2.361   1.122   9.491
32840SOL     OW  358  14.123   4.993   2.270
32840SOL    HW1  359  14.090   4.932   2.204
32840SOL    HW2  360  14.159   5.066   2.221
32841SOL     OW  361   7.159   5.690   7.282
32841SOL    HW1  362   7.100   5.766   7.281
32841SOL    HW2  363   7.162   5.661   7.191
32842SOL     OW  364  12.081  11.828   5.384
32842SOL    HW1  365  12.145  11.875   5.438
32842SOL    HW2  366  12.128  11.807   5.303
32843SOL     OW  367  13.615   2.793   2.050
32843SOL    HW1  368  13.628   2.879   2.091
32843SOL    HW2  369  13.574   2.812   1.966
32844SOL     OW  370   9.066   9.852   3.185
32844SOL    HW1  371   9.007   9.853   3.261
32844SOL    HW2  372   9.102   9.941   3.182
32845SOL     OW  373   8.136   5.207   3.113
32845SOL    HW1  374   8.136   5.112   3.104
32845SOL    HW2  375   8.222   5.234   3.082
32846SOL     OW  376   3.002  12.262   9.463
32846SOL    HW1  377   2.984  12.333   9.524
32846SOL    HW2  378   3.049  12.303   9.391
32847SOL     OW  379   5.695  11.347   6.097
32847SOL    HW1  380   5.677  11.342   6.003
32847SOL    HW2  381   5.714  11.256   6.122
32848SOL     OW  382  13.590  12.501   3.564
32848SOL    HW1  383  13.504  12.484   3.526
32848SOL    HW2  384  13.613  12.421   3.610
32849SOL     OW  385   1.768   7.307  14.661
32849SOL    HW1  386   1.727   7.284  14.578
32849SOL    HW2  387   1.809   7.226  14.691
32850SOL     OW  388   1.417   2.360  10.608
32850SOL    HW1  389   1.508   2.347  10.636
32850SOL    HW2  390   1.424   2.412  10.527
32851SOL     OW  391   3.648   0.235   9.280
32851SOL    HW1  392   3.617   0.157   9.327
32851SOL    HW2  393   3.636   0.214   9.188
32852SOL     OW  394   3.341   2.031   7.568
32852SOL    HW1  395   3.402   2.083   7.516
32852SOL    HW2  396   3.384   1.946   7.578
32853SOL     OW  397   2.906   2.081  10.748
32853SOL    HW1  398   2.882   2.081  10.841
32853SOL    HW2  399   2.998   2.105  10.746
32854SOL     OW  400   7.138   9.402   0.513
32854SOL    HW1  401   7.122   9.474   0.451
32854SOL    HW2  402   7.161   9.446   0.595
32855SOL     OW  403   5.678   7.503   9.344
32855SOL    HW1  404   5.672   7.453   9.262
32855SOL    HW2  405   5.688   7.436   9.412
32856SOL     OW  406   3.091   2.131   8.303
32856SOL    HW1  407   3.075   2.043   8.339
32856SOL    HW2  408   3.036   2.135   8.225
32857SOL     OW  409   2.324   7.513  13.169
32857SOL    HW1  410   2.401   7.458  13.186
32857SOL    HW2  411   2.304   7.497  13.077
32858SOL     OW  412   1.596   4.752   6.362
32858SOL    HW1  413   1.530   4.821   6.361
32858SOL    HW2  414   1.551   4.675   6.327
32859SOL     OW  415   9.414   8.312  11.697
32859SOL    HW1  416   9.499   8.300  11.655
32859SOL    HW2  417   9.406   8.407  11.708
32860SOL     OW  418   1.941   5.729   1.627
32860SOL    HW1  419   1.886   5.733   1.705
32860SOL    HW2  420   1.985   5.644   1.633
32861SOL     OW  421  12.878  12.195   3.253
32861SOL    HW1  422  12.798  12.245   3.236
32861SOL    HW2  423  12.848  12.104   3.255
32862SOL     OW  424   1.481   7.111   4.906
32862SOL    HW1  425   1.475   7.023   4.869
32862SOL    HW2  426   1.566   7.113   4.950
32863SOL     OW  427   9.710   8.498   9.552
32863SOL    HW1  428   9.682   8.542   9.632
32863SOL    HW2  429   9.644   8.430   9.537
32864SOL     OW  430  14.673  10.817  14.143
32864SOL    HW1  431  14.586  10.785  14.168
32864SOL    HW2  432  14.733  10.776  14.206
32865SOL     OW  433  12.547   5.350   7.779
32865SOL    HW1  434  12.551   5.255   7.796
32865SOL    HW2  435  12.472   5.361   7.721
32866SOL     OW  436   3.309   7.365   1.973
32866SOL    HW1  437   3.253   7.298   2.012
32866SOL    HW2  438   3.248   7.428   1.934
32867SOL     OW  439  10.047   4.828   6.022
32867SOL    HW1  440   9.989   4.860   5.953
32867SOL    HW2  441  10.127   4.880   6.012
32868SOL     OW  442  12.030   8.990   8.465
32868SOL    HW1  443  11.993   9.079   8.458
32868SOL    HW2  444  12.050   8.981   8.558
32869SOL     OW  445   4.614   8.257   5.126
32869SOL    HW1  446   4.552   8.315   5.171
32869SOL    HW2  447   4.658   8.209   5.196
32870SOL     OW  448   4.371  10.282   3.863
32870SOL    HW1  449   4.406  10.362   3.903
32870SOL    HW2  450   4.429  10.212   3.894
32871SOL     OW  451   1.429  11.505  13.055
32871SOL    HW1  452   1.409  11.418  13.020
32871SOL    HW2  453   1.345  11.551  13.055
32872SOL     OW  454   0.862   1.590   2.797
32872SOL    HW1  455   0.829   1.663   2.745
32872SOL    HW2  456   0.851   1.618   2.888
32873SOL     OW  457   6.052  13.680   0.169
32873SOL    HW1  458   6.002  13.647   0.095
32873SOL    HW2  459   6.075  13.770   0.145
32874SOL     OW  460  13.753   5.578   0.986
32874SOL    HW1  461  13.691   5.645   0.957
32874SOL    HW2  462  13.802   5.555   0.907
32875SOL     OW  463   8.819   8.801   9.561
32875SOL    HW1  464   8.770   8.719   9.549
32875SOL    HW2  465   8.762   8.867   9.521
32876SOL     OW  466   5.720   4.776   8.807
32876SOL    HW1  467   5.672   4.852   8.840
32876SOL    HW2  468   5.718   4.785   8.712
32877SOL     OW  469   0.118  10.963   5.452
32877SOL    HW1  470   0.136  10.958   5.358
32877SOL    HW2  471   0.093  11.054   5.467
32878SOL     OW  472  14.668   7.695   3.868
32878SOL    HW1  473  14.698   7.783   3.847
32878SOL    HW2  474  14.720   7.669   3.944
32879SOL     OW  475   8.865  14.291   2.550
32879SOL    HW1  476   8.822  14.324   2.471
32879SOL    HW2  477   8.851  14.197   2.548
32880SOL     OW  478  12.077   9.914  11.088
32880SOL    HW1  479  12.152   9.948  11.136
32880SOL    HW2  480  12.115   9.874  11.010
32881SOL     OW  481  10.467  12.789   1.521
32881SOL    HW1  482  10.501  12.792   1.611
32881SOL    HW2  483  10.528  12.844   1.471
32882SOL     OW  484  13.496   3.276   9.822
32882SOL    HW1  485  13.588   3.256   9.842
32882SOL    HW2  486  13.453   3.276   9.908
32883SOL     OW  487   9.948  14.038   6.479
32883SOL    HW1  488   9.947  13.978   6.405
32883SOL    HW2  489  10.024  14.013   6.530
32884SOL     OW  490   8.041  14.167   4.128
32884SOL    HW1  491   8.121  14.220   4.124
32884SOL    HW2  492   7.990  14.196   4.052
32885SOL     OW  493   1.194  10.020   5.899
32885SOL    HW1  494   1.106   9.992   5.872
32885SOL    HW2  495   1.233   9.941   5.936
32886SOL     OW  496  13.846   7.509  14.672
32886SOL    HW1  497  13.818   7.486  14.760
32886SOL    HW2  498  13.774   7.561  14.636
32887SOL     OW  499  13.814   4.600   1.375
32887SOL    HW1  500  13.866   4.591   1.455
32887SOL    HW2  501  13.878   4.616   1.306
32888SOL     OW  502   9.769   8.606  14.481
32888SOL    HW1  503   9.731   8.542  14.422
32888SOL    HW2  504   9.784   8.558  14.563
32889SOL     OW  505  10.936  14.509   5.487
32889SOL    HW1  506  11.004  14.545   5.544
32889SOL    HW2  507  10.858  14.561   5.506
32890SOL     OW  508   2.216   2.998  14.283
32890SOL    HW1  509   2.276   3.017  14.356
32890SOL    HW2  510   2.148   3.065  14.290
32891SOL     OW  511  10.495   0.547  12.496
32891SOL    HW1  512  10.530   0.612  12.556
32891SOL    HW2  513  10.458   0.479  12.552
32892SOL     OW  514   9.328   2.335  11.684
32892SOL    HW1  515   9.344   2.289  11.766
32892SOL    HW2  516   9.415   2.341  11.643
32893SOL     OW  517  12.911   0.130   4.167
32893SOL    HW1  518  12.932   0.131   4.260
32893SOL    HW2  519  12.856   0.207   4.153
32894SOL     OW  520   1.555  14.724  13.566
32894SOL    HW1  521   1.483  14.672  13.533
32894SOL    HW2  522   1.633  14.685  13.528
32895SOL     OW  523  10.043   2.648  12.091
32895SOL    HW1  524  10.039   2.742  12.074
32895SOL    HW2  525   9.971   2.611  12.040
32896SOL     OW  526  10.138   7.103   9.041
32896SOL    HW1  527  10.115   7.124   9.131
32896SOL    HW2  528  10.211   7.163   9.021
32897SOL     OW  529   8.504  13.024  12.636
32897SOL    HW1  530   8.552  13.092  12.684
32897SOL    HW2  531   8.457  12.976  12.703
32898SOL     OW  532  11.361  14.475  11.097
32898SOL    HW1  533  11.327  14.396  11.056
32898SOL    HW2  534  11.456  14.466  11.091
32899SOL     OW  535  13.267  10.544   4.323
32899SOL    HW1  536  13.318  10.488   4.264
32899SOL    HW2  537  13.263  10.628   4.278
32900SOL     OW  538  13.513   3.078   7.246
32900SOL    HW1  539  13.483   3.125   7.168
32900SOL    HW2  540  13.460   3.114   7.317
32901SOL     OW  541   6.495  11.992   7.195
32901SOL    HW1  542   6.413  11.952   7.224
32901SOL    HW2  543   6.468  12.054   7.127
32902SOL     OW  544   6.534  14.653  13.767
32902SOL    HW1  545   6.450  14.660  13.723
32902SOL    HW2  546   6.521  14.586  13.834
32903SOL     OW  547   7.700   4.298   1.659
32903SOL    HW1  548   7.727   4.226   1.602
32903SOL    HW2  549   7.766   4.299   1.728
32904SOL     OW  550   0.786  13.520   3.500
32904SOL    HW1  551   0.879  13.538   3.491
32904SOL    HW2  552   0.748  13.602   3.532
32905SOL     OW  553   0.052   8.049  14.421
32905SOL    HW1  554   0.092   8.049  14.508
32905SOL    HW2  555  14.832   8.049  14.437
32906SOL     OW  556   4.260   3.840  11.928
32906SOL    HW1  557   4.207   3.860  12.005
32906SOL    HW2  558   4.348   3.868  11.951
32907SOL     OW  559   4.172   0.483   1.855
32907SOL    HW1  560   4.109   0.555   1.850
32907SOL    HW2  561   4.257   0.523   1.834
32908SOL     OW  562  14.229   1.877   1.596
32908SOL    HW1  563  14.261   1.816   1.663
32908SOL    HW2  564  14.138   1.893   1.620
32909SOL     OW  565   6.803   1.745  13.473
32909SOL    HW1  566   6.882   1.692  13.484
32909SOL    HW2  567   6.736   1.683  13.444
32910SOL     OW  568   3.250   9.518   8.793
32910SOL    HW1  569   3.319   9.515   8.727
32910SOL    HW2  570   3.169   9.531   8.744
32911SOL     OW  571   2.828   6.441   9.180
32911SOL    HW1  572   2.798   6.451   9.271
32911SOL    HW2  573   2.858   6.350   9.175
32912SOL     OW  574  13.070   3.912   4.135
32912SOL    HW1  575  12.979   3.896   4.112
32912SOL    HW2  576  13.070   3.918   4.231
32913SOL     OW  577   9.459   5.311   4.477
32913SOL    HW1  578   9.367   5.334   4.465
32913SOL    HW2  579   9.466   5.221   4.443
32914SOL     OW  580  10.534   1.934  11.896
32914SOL    HW1  581  10.463   1.870  11.908
32914SOL    HW2  582  10.510   2.008  11.951
32915SOL     OW  583  10.046   5.691  13.927
32915SOL    HW1  584  10.071   5.783  13.931
32915SOL    HW2  585   9.972   5.684  13.986
32916SOL     OW  586  12.923   1.036  14.167
32916SOL    HW1  587  12.854   1.095  14.195
32916SOL    HW2  588  12.879   0.974  14.108
32917SOL     OW  589  10.883   0.788   6.998
32917SOL    HW1  590  10.920   0.871   6.966
32917SOL    HW2  591  10.956   0.726   6.992
32918SOL     OW  592   3.143   1.219   0.159
32918SOL    HW1  593   3.055   1.191   0.136
32918SOL    HW2  594   3.185   1.236   0.074
32919SOL     OW  595  12.922  10.595   5.355
32919SOL    HW1  596  12.953  10.664   5.413
32919SOL    HW2  597  12.890  10.527   5.415
32920SOL     OW  598   6.843  10.135   9.537
32920SOL    HW1  599   6.914  10.071   9.528
32920SOL    HW2  600   6.887  10.218   9.556
32921SOL     OW  601   4.191   0.950   9.627
32921SOL    HW1  602   4.103   0.984   9.641
32921SOL    HW2  603   4.246   1.028   9.621
32922SOL     OW  604   2.041   5.043   2.577
32922SOL    HW1  605   2.135   5.058   2.572
32922SOL    HW2  606   2.027   5.006   2.664
32923SOL     OW  607   9.481   6.333   6.985
32923SOL    HW1  608   9.538   6.348   7.060
32923SOL    HW2  609   9.542   6.321   6.912
32924SOL     OW  610   0.750   9.767   1.338
32924SOL    HW1  611   0.731   9.698   1.275
32924SOL    HW2  612   0.818   9.731   1.395
32925SOL     OW  613  11.731   7.058   2.814
32925SOL    HW1  614  11.776   6.975   2.831
32925SOL    HW2  615  11.720   7.060   2.719
32926SOL     OW  616  12.684   4.349   9.201
32926SOL    HW1  617  12.702   4.387   9.288
32926SOL    HW2  618  12.768   4.314   9.173
32927SOL     OW  619  13.235  11.166  10.372
32927SOL    HW1  620  13.150  11.135  10.342
32927SOL    HW2  621  13.228  11.262  10.371
32928SOL     OW  622   9.810  11.311   2.109
32928SOL    HW1  623   9.728  11.328   2.062
32928SOL    HW2  624   9.783  11.277   2.194
32929SOL     OW  625   5.279   2.438  12.390
32929SOL    HW1  626   5.255   2.513  12.444
32929SOL    HW2  627   5.373   2.427  12.404
32930SOL     OW  628   5.851  14.583   3.866
32930SOL    HW1  629   5.925  14.522   3.867
32930SOL    HW2  630   5.784  14.537   3.815
32931SOL     OW  631  12.696   6.941   0.027
32931SOL    HW1  632  12.778   6.897   0.047
32931SOL    HW2  633  12.722   7.027  14.867
32932SOL     OW  634  10.608  13.079   8.488
32932SOL    HW1  635  10.561  13.149   8.443
32932SOL    HW2  636  10.540  13.031   8.535
32933SOL     OW  637  13.939  12.971   0.282
32933SOL    HW1  638  13.909  13.058   0.256
32933SOL    HW2  639  13.910  12.962   0.373
32934SOL     OW  640   5.798   4.260  11.249
32934SOL    HW1  641   5.833   4.327  11.308
32934SOL    HW2  642   5.873   4.203  11.232
32935SOL     OW  643   8.722  12.360   6.276
32935SOL    HW1  644   8.649  12.351   6.215
32935SOL    HW2  645   8.685  12.340   6.362
32936SOL     OW  646  11.555  11.955   2.574
32936SOL    HW1  647  11.531  11.999   2.492
32936SOL    HW2  648  11.594  12.024   2.628
32937SOL     OW  649  10.346  11.162   7.483
32937SOL    HW1  650  10.260  11.146   7.520
32937SOL    HW2  651  10.349  11.257   7.469
32938SOL     OW  652   6.156  14.217   0.626
32938SOL    HW1  653   6.238  14.248   0.590
32938SOL    HW2  654   6.108  14.296   0.651
32939SOL     OW  655  14.156   0.162   2.932
32939SOL    HW1  656  14.211   0.240   2.932
32939SOL    HW2  657  14.184   0.113   3.009
32940SOL     OW  658   3.027  13.715   0.472
32940SOL    HW1  659   3.120  13.706   0.453
32940SOL    HW2  660   3.016  13.672   0.557
32941SOL     OW  661   1.803  12.866   0.080
32941SOL    HW1  662   1.866  12.916   0.028
32941SOL    HW2  663   1.767  12.929   0.142
32942SOL     OW  664   0.842   2.715   5.480
32942SOL    HW1  665   0.825   2.662   5.557
32942SOL    HW2  666   0.938   2.722   5.476
32943SOL     OW  667  11.095   4.737   8.582
32943SOL    HW1  668  11.053   4.711   8.664
32943SOL    HW2  669  11.123   4.827   8.596
32944SOL     OW  670  11.829   6.147   0.822
32944SOL    HW1  671  11.862   6.072   0.773
32944SOL    HW2  672  11.887   6.219   0.797
32945SOL     OW  673   1.683   6.210   0.915
32945SOL    HW1  674   1.589   6.224   0.925
32945SOL    HW2  675   1.719   6.296   0.894
32946SOL     OW  676   3.841  14.760  14.216
32946SOL    HW1  677   3.907  14.773  14.284
32946SOL    HW2  678   3.796  14.680  14.242
32947SOL     OW  679   8.932   4.037   4.691
32947SOL    HW1  680   9.025   4.054   4.706
32947SOL    HW2  681   8.930   3.971   4.622
32948SOL     OW  682  14.841  11.818  10.941
32948SOL    HW1  683  14.747  11.824  10.924
32948SOL    HW2  684  14.863  11.898  10.988
32949SOL     OW  685   2.634   5.466   7.464
32949SOL    HW1  686   2.655   5.387   7.413
32949SOL    HW2  687   2.709   5.477   7.523
32950SOL     OW  688   6.024  14.085  10.736
32950SOL    HW1  689   6.019  14.030  10.814
32950SOL    HW2  690   6.104  14.136  10.748
32951SOL     OW  691   5.480   3.465   4.736
32951SOL    HW1  692   5.400   3.517   4.722
32951SOL    HW2  693   5.515   3.452   4.648
32952SOL     OW  694  13.329   3.903  12.629
32952SOL    HW1  695  13.351   3.963  12.558
32952SOL    HW2  696  13.385   3.931  12.702
32953SOL     OW  697   3.897  14.141  12.901
32953SOL    HW1  698   3.939  14.057  12.884
32953SOL    HW2  699   3.878  14.140  12.994
32954SOL     OW  700   5.240   7.823  10.738
32954SOL    HW1  701   5.216   7.915  10.724
32954SOL    HW2  702   5.331   7.817  10.709
32955SOL     OW  703   8.635   7.765  11.554
32955SOL    HW1  704   8.715   7.812  11.530
32955SOL    HW2  705   8.578   7.831  11.591
32956SOL     OW  706   6.571   3.679   0.525
32956SOL    HW1  707   6.661   3.688   0.494
32956SOL    HW2  708   6.566   3.737   0.601
32957SOL     OW  709   6.794  11.739   9.736
32957SOL    HW1  710   6.852  11.811   9.762
32957SOL    HW2  711   6.816  11.724   9.644
32958SOL     OW  712  11.530   4.625   7.971
32958SOL    HW1  713  11.523   4.709   7.925
32958SOL    HW2  714  11.588   4.572   7.916
32959SOL     OW  715   5.704   5.321   5.361
32959SOL    HW1  716   5.734   5.230   5.360
32959SOL    HW2  717   5.751   5.361   5.434
32960SOL     OW  718   5.160   5.527   6.735
32960SOL    HW1  719   5.179   5.606   6.683
32960SOL    HW2  720   5.074   5.498   6.702
32961SOL     OW  721  10.035   9.302   9.172
32961SOL    HW1  722  10.105   9.257   9.220
32961SOL    HW2  723  10.042   9.393   9.200
32962SOL     OW  724   6.591   2.231   3.429
32962SOL    HW1  725   6.682   2.260   3.430
32962SOL    HW2  726   6.543   2.305   3.390
32963SOL     OW  727   7.634   5.518  10.248
32963SOL    HW1  728   7.594   5.502  10.163
32963SOL    HW2  729   7.715   5.468  10.247
32964SOL     OW  730   6.244   5.942  12.215
32964SOL    HW1  731   6.187   5.936  12.138
32964SOL    HW2  732   6.230   6.031  12.248
32965SOL     OW  733  10.798  11.376  13.432
32965SOL    HW1  734  10.805  11.427  13.513
32965SOL    HW2  735  10.888  11.348  13.414
32966SOL     OW  736   9.670   0.436   0.354
32966SOL    HW1  737   9.607   0.368   0.377
32966SOL    HW2  738   9.686   0.483   0.436
32967SOL     OW  739   1.260  10.366   5.133
32967SOL    HW1  740   1.273  10.273   5.118
32967SOL    HW2  741   1.169  10.374   5.160
32968SOL     OW  742   1.991   5.175   4.702
32968SOL    HW1  743   1.978   5.109   4.633
32968SOL    HW2  744   2.076   5.214   4.681
32969SOL     OW  745  10.610   7.546   8.031
32969SOL    HW1  746  10.635   7.490   8.104
32969SOL    HW2  747  10.562   7.619   8.072
32970SOL     OW  748   9.178   6.008  13.703
32970SOL    HW1  749   9.200   5.942  13.769
32970SOL    HW2  750   9.112   5.966  13.649
32971SOL     OW  751  12.406   1.651  11.102
32971SOL    HW1  752  12.359   1.600  11.036
32971SOL    HW2  753  12.398   1.600  11.182
32972SOL     OW  754   1.032   3.095   8.592
32972SOL    HW1  755   0.943   3.092   8.555
32972SOL    HW2  756   1.085   3.135   8.523
32973SOL     OW  757   6.707   6.558  12.686
32973SOL    HW1  758   6.727   6.651  12.700
32973SOL    HW2  759   6.680   6.554  12.594
32974SOL     OW  760  13.569  13.496   0.563
32974SOL    HW1  761  13.588  13.569   0.504
32974SOL    HW2  762  13.651  13.445   0.565
32975SOL     OW  763  13.018  10.267   8.200
32975SOL    HW1  764  13.031  10.190   8.254
32975SOL    HW2  765  12.944  10.245   8.143
32976SOL     OW  766  10.249   3.044   2.320
32976SOL    HW1  767  10.232   3.047   2.226
32976SOL    HW2  768  10.344   3.050   2.328
32977SOL     OW  769  14.851   0.832   4.163
32977SOL    HW1  770   0.016   0.911   4.124
32977SOL    HW2  771  14.847   0.851   4.257
32978SOL     OW  772   3.527   8.067  10.937
32978SOL    HW1  773   3.612   8.108  10.959
32978SOL    HW2  774   3.466   8.141  10.932
32979SOL     OW  775   0.588   1.364  10.791
32979SOL    HW1  776   0.581   1.269  10.785
32979SOL    HW2  777   0.654   1.379  10.858
32980SOL     OW  778   0.468   2.113   1.993
32980SOL    HW1  779   0.562   2.130   1.991
32980SOL    HW2  780   0.460   2.018   1.986
32981SOL     OW  781   8.570  12.541  13.711
32981SOL    HW1  782   8.510  12.609  13.742
32981SOL    HW2  783   8.541  12.522  13.622
32982SOL     OW  784   3.395  12.817   3.144
32982SOL    HW1  785   3.478  12.774   3.167
32982SOL    HW2  786   3.361  12.849   3.227
32983SOL     OW  787   9.077   0.887   9.478
32983SOL    HW1  788   8.982   0.890   9.484
32983SOL    HW2  789   9.099   0.955   9.415
32984SOL     OW  790   3.763   6.949  10.927
32984SOL    HW1  791   3.772   6.900  10.845
32984SOL    HW2  792   3.679   6.920  10.963
32985SOL     OW  793  11.747   7.341   1.712
32985SOL    HW1  794  11.698   7.381   1.784
32985SOL    HW2  795  11.695   7.266   1.686
32986SOL     OW  796  13.208   5.095   6.249
32986SOL    HW1  797  13.294   5.088   6.291
32986SOL    HW2  798  13.149   5.047   6.307
32987SOL     OW  799  11.594   8.364  14.734
32987SOL    HW1  800  11.543   8.289  14.705
32987SOL    HW2  801  11.685   8.337  14.721
32988SOL     OW  802  10.174   7.439   6.796
32988SOL    HW1  803  10.118   7.503   6.840
32988SOL    HW2  804  10.198   7.377   6.864
32989SOL     OW  805  10.186   8.337  11.500
32989SOL    HW1  806  10.155   8.301  11.416
32989SOL    HW2  807  10.206   8.428  11.480
32990SOL     OW  808   1.637   9.389   5.794
32990SOL    HW1  809   1.720   9.423   5.827
32990SOL    HW2  810   1.644   9.397   5.699
32991SOL     OW  811  12.738  10.041   4.987
32991SOL    HW1  812  12.783   9.964   4.954
32991SOL    HW2  813  12.675  10.064   4.918
32992SOL     OW  814  11.810   6.318   6.632
32992SOL    HW1  815  11.802   6.238   6.579
32992SOL    HW2  816  11.804   6.389   6.569
32993SOL     OW  817  11.923  12.548   6.154
32993SOL    HW1  818  11.871  12.489   6.099
32993SOL    HW2  819  11.925  12.504   6.239
32994SOL     OW  820   9.123   4.497  10.675
32994SOL    HW1  821   9.085   4.555  10.610
32994SOL    HW2  822   9.062   4.499  10.749
32995SOL     OW  823  13.969  12.235   6.871
32995SOL    HW1  824  13.896  12.296   6.877
32995SOL    HW2  825  13.949  12.167   6.935
32996SOL     OW  826   9.312   6.351   8.589
32996SOL    HW1  827   9.233   6.305   8.618
32996SOL    HW2  828   9.339   6.305   8.510
32997SOL     OW  829  14.668   9.115   3.051
32997SOL    HW1  830  14.663   9.178   2.979
32997SOL    HW2  831  14.588   9.062   3.041
32998SOL     OW  832   1.838   2.373   5.109
32998SOL    HW1  833   1.798   2.337   5.031
32998SOL    HW2  834   1.769   2.424   5.151
32999SOL     OW  835  11.310  10.272   4.425
32999SOL    HW1  836  11.329  10.353   4.376
32999SOL    HW2  837  11.231  10.293   4.474
33000SOL     OW  838   9.491   3.127   2.162
33000SOL    HW1  839   9.519   3.217   2.177
33000SOL    HW2  840   9.496   3.085   2.248
33001SOL     OW  841   8.099   8.511  12.716
33001SOL    HW1  842   8.004   8.514  12.726
33001SOL    HW2  843   8.128   8.599  12.740
33002SOL     OW  844   5.150   1.171   9.593
33002SOL    HW1  845   5.243   1.190   9.595
33002SOL    HW2  846   5.137   1.122   9.512
33003SOL     OW  847   9.244   2.107  12.662
33003SOL    HW1  848   9.149   2.101  12.669
33003SOL    HW2  849   9.266   2.059  12.582
33004SOL     OW  850  12.617  11.518  12.843
33004SOL    HW1  851  12.639  11.610  12.858
33004SOL    HW2  852  12.701  11.477  12.819
33005SOL     OW  853   8.100   2.992   0.968
33005SOL    HW1  854   8.072   3.078   0.936
33005SOL    HW2  855   8.195   2.993   0.961
33006SOL     OW  856   2.438   2.966   9.427
33006SOL    HW1  857   2.525   2.978   9.465
33006SOL    HW2  858   2.412   2.877   9.454
33007SOL     OW  859   5.107   4.927   9.007
33007SOL    HW1  860   5.151   4.898   8.927
33007SOL    HW2  861   5.093   4.847   9.057
33008SOL     OW  862  12.989   6.660   7.077
33008SOL    HW1  863  13.008   6.693   7.165
33008SOL    HW2  864  13.049   6.587   7.064
33009SOL     OW  865  13.816   7.132  12.887
33009SOL    HW1  866  13.752   7.164  12.950
33009SOL    HW2  867  13.813   7.036  12.896
33010SOL     OW  868   6.481  13.094   8.194
33010SOL    HW1  869   6.532  13.098   8.275
33010SOL    HW2  870   6.482  13.001   8.170
33011SOL     OW  871  10.395  13.734   1.564
33011SOL    HW1  872  10.318  13.779   1.598
33011SOL    HW2  873  10.389  13.645   1.599
33012SOL     OW  874   7.680   9.103  14.531
33012SOL    HW1  875   7.653   9.012  14.520
33012SOL    HW2  876   7.700   9.111  14.624
33013SOL     OW  877   9.317   8.609   4.031
33013SOL    HW1  878   9.355   8.587   3.946
33013SOL    HW2  879   9.351   8.542   4.091
33014SOL     OW  880   6.068   3.878   2.211
33014SOL    HW1  881   5.980   3.861   2.244
33014SOL    HW2  882   6.098   3.954   2.261
33015SOL     OW  883   2.266  10.591   3.440
33015SOL    HW1  884   2.175  10.622   3.430
33015SOL    HW2  885   2.305  10.652   3.502
33016SOL     OW  886   8.418  13.085   8.365
33016SOL    HW1  887   8.371  13.001   8.363
33016SOL    HW2  888   8.472  13.080   8.443
33017SOL     OW  889  14.020   6.432   5.157
33017SOL    HW1  890  14.113   6.414   5.170
33017SOL    HW2  891  14.011   6.451   5.063
33018SOL     OW  892   1.799  10.237   5.532
33018SOL    HW1  893   1.731  10.241   5.465
33018SOL    HW2  894   1.796  10.323   5.574
33019SOL     OW  895  13.603   3.202   0.237
33019SOL    HW1  896  13.606   3.147   0.159
33019SOL    HW2  897  13.623   3.290   0.206
33020SOL     OW  898  13.330   1.297  14.684
33020SOL    HW1  899  13.308   1.274  14.774
33020SOL    HW2  900  13.425   1.310  14.685
33021SOL     OW  901  11.251   5.655  11.420
33021SOL    HW1  902  11.181   5.706  11.379
33021SOL    HW2  903  11.276   5.707  11.497
33022SOL     OW  904   6.797  10.522   1.971
33022SOL    HW1  905   6.723  10.462   1.970
33022SOL    HW2  906   6.834  10.512   2.059
33023SOL     OW  907   5.452  10.411   1.462
33023SOL    HW1  908   5.376  10.470   1.464
33023SOL    HW2  909   5.437  10.351   1.534
33024SOL     OW  910   8.166  11.172  10.844
33024SOL    HW1  911   8.148  11.126  10.762
33024SOL    HW2  912   8.180  11.102  10.907
33025SOL     OW  913   9.363   0.316  11.046
33025SOL    HW1  914   9.332   0.374  11.115
33025SOL    HW2  915   9.287   0.261  11.025
33026SOL     OW  916   4.166   4.881   1.836
33026SOL    HW1  917   4.219   4.960   1.834
33026SOL    HW2  918   4.213   4.819   1.779
33027SOL     OW  919   0.270   4.400   5.019
33027SOL    HW1  920   0.283   4.369   4.929
33027SOL    HW2  921   0.288   4.494   5.014
33028SOL     OW  922  10.540   5.691   3.800
33028SOL    HW1  923  10.612   5.751   3.817
33028SOL    HW2  924  10.549   5.668   3.707
33029SOL     OW  925  11.418  11.290   3.357
33029SOL    HW1  926  11.503  11.329   3.337
33029SOL    HW2  927  11.429  11.254   3.445
33030SOL     OW  928   6.722   0.038   9.196
33030SOL    HW1  929   6.787  14.843   9.210
33030SOL    HW2  930   6.769   0.119   9.214
33031SOL     OW  931  13.532   1.080   8.006
33031SOL    HW1  932  13.488   1.130   7.938
33031SOL    HW2  933  13.482   0.999   8.013
33032SOL     OW  934  10.204   9.379  13.163
33032SOL    HW1  935  10.263   9.431  13.218
33032SOL    HW2  936  10.242   9.291  13.163
33033SOL     OW  937   9.068   7.723  11.404
33033SOL    HW1  938   9.063   7.747  11.311
33033SOL    HW2  939   9.083   7.806  11.449
33034SOL     OW  940   5.621   7.867   3.238
33034SOL    HW1  941   5.684   7.809   3.281
33034SOL    HW2  942   5.537   7.847   3.281
33035SOL     OW  943  14.465   4.208   9.517
33035SOL    HW1  944  14.547   4.167   9.491
33035SOL    HW2  945  14.401   4.176   9.454
33036SOL     OW  946  10.606   9.356  12.625
33036SOL    HW1  947  10.525   9.318  12.661
33036SOL    HW2  948  10.675   9.325  12.683
33037SOL     OW  949   0.049  13.750  12.237
33037SOL    HW1  950   0.029  13.669  12.285
33037SOL    HW2  951   0.046  13.818  12.303
33038SOL     OW  952   5.866  13.827   3.156
33038SOL    HW1  953   5.818  13.868   3.083
33038SOL    HW2  954   5.943  13.882   3.167
33039SOL     OW  955  11.367   6.977   4.225
33039SOL    HW1  956  11.412   7.031   4.290
33039SOL    HW2  957  11.410   6.892   4.232
33040SOL     OW  958  14.650   7.309   6.452
33040SOL    HW1  959  14.652   7.254   6.375
33040SOL    HW2  960  14.585   7.268   6.509
33041SOL     OW  961   6.185   6.018  13.005
33041SOL    HW1  962   6.140   5.963  13.069
33041SOL    HW2  963   6.277   5.991  13.011
33042SOL     OW  964   0.107  10.101   7.845
33042SOL    HW1  965   0.169  10.132   7.779
33042SOL    HW2  966   0.049  10.043   7.797
33043SOL     OW  967   6.465  12.841  13.405
33043SOL    HW1  968   6.544  12.786  13.405
33043SOL    HW2  969   6.468  12.886  13.490
33044SOL     OW  970   2.592   0.335   4.428
33044SOL    HW1  971   2.599   0.302   4.339
33044SOL    HW2  972   2.667   0.393   4.439
33045SOL     OW  973   0.555   0.179   9.229
33045SOL    HW1  974   0.631   0.149   9.279
33045SOL    HW2  975   0.584   0.261   9.189
33046SOL     OW  976   2.124   5.323   8.716
33046SOL    HW1  977   2.158   5.291   8.632
33046SOL    HW2  978   2.203   5.338   8.768
33047SOL     OW  979   3.126   0.799  10.477
33047SOL    HW1  980   3.155   0.890  10.475
33047SOL    HW2  981   3.207   0.749  10.482
33048SOL     OW  982   6.178   5.630  10.651
33048SOL    HW1  983   6.243   5.623  10.721
33048SOL    HW2  984   6.224   5.676  10.581
33049SOL     OW  985   3.052   8.871   2.469
33049SOL    HW1  986   3.137   8.886   2.426
33049SOL    HW2  987   3.037   8.951   2.520
33050SOL     OW  988  13.722   6.365  10.633
33050SOL    HW1  989  13.794   6.303  10.641
33050SOL    HW2  990  13.674   6.338  10.555
33051SOL     OW  991   9.883   7.869  12.231
33051SOL    HW1  992   9.862   7.925  12.156
33051SOL    HW2  993   9.978   7.878  12.241
33052SOL     OW  994   7.425  13.530  14.360
33052SOL    HW1  995   7.333  13.513  14.339
33052SOL    HW2  996   7.440  13.619  14.329
33053SOL     OW  997   3.159   2.181   9.694
33053SOL    HW1  998   3.183   2.099   9.736
33053SOL    HW2  999   3.227   2.196   9.629
33054SOL     OW 1000   7.264  13.358  13.317
33054SOL    HW1 1001   7.301  13.383  13.232
33054SOL    HW2 1002   7.188  13.416  13.327
33055SOL     OW 1003   2.202   3.202   4.459
33055SOL    HW1 1004   2.239   3.182   4.373
33055SOL    HW2 1005   2.223   3.295   4.473
33056SOL     OW 1006  11.998  12.050   8.073
33056SOL    HW1 1007  11.929  12.076   8.012
33056SOL    HW2 1008  11.951  12.032   8.155
33057SOL     OW 1009   9.417   3.596   1.242
33057SOL    HW1 1010   9.433   3.561   1.154
33057SOL    HW2 1011   9.436   3.522   1.301
33058SOL     OW 1012  13.384   9.861   3.618
33058SOL    HW1 1013  13.389   9.765   3.609
33058SOL    HW2 1014  13.304   9.876   3.668
33059SOL     OW 1015  14.307   6.455   7.765
33059SOL    HW1 1016  14.264   6.420   7.687
33059SOL    HW2 1017  14.388   6.404   7.772
33060SOL     OW 1018   3.986   9.390   2.881
33060SOL    HW1 1019   3.979   9.295   2.866
33060SOL    HW2 1020   3.947   9.429   2.803
33061SOL     OW 1021   0.184  14.599   7.053
33061SOL    HW1 1022   0.097  14.587   7.013
33061SOL    HW2 1023   0.245  14.582   6.982
33062SOL     OW 1024  10.051   2.692  12.952
33062SOL    HW1 1025   9.961   2.724  12.952
33062SOL    HW2 1026  10.094   2.742  13.021
33063SOL     OW 1027   7.706   2.364   1.499
33063SOL    HW1 1028   7.687   2.378   1.592
33063SOL    HW2 1029   7.797   2.389   1.489
33064SOL     OW 1030   4.628  13.604   9.292
33064SOL    HW1 1031   4.587  13.677   9.247
33064SOL    HW2 1032   4.555  13.553   9.326
33065SOL     OW 1033   2.056   4.050  11.008
33065SOL    HW1 1034   2.019   3.992  11.075
33065SOL    HW2 1035   2.142   4.013  10.990
33066SOL     OW 1036  11.839   0.900   6.680
33066SOL    HW1 1037  11.865   0.808   6.694
33066SOL    HW2 1038  11.875   0.946   6.756
33067SOL     OW 1039  14.622   4.675  13.284
33067SOL    HW1 1040  14.619   4.600  13.344
33067SOL    HW2 1041  14.531   4.691  13.261
33068SOL     OW 1042  11.929   4.885   2.647
33068SOL    HW1 1043  11.849   4.832   2.645
33068SOL    HW2 1044  11.965   4.876   2.559
33069SOL     OW 1045   9.151  13.956  10.820
33069SOL    HW1 1046   9.100  13.876  10.836
33069SOL    HW2 1047   9.093  14.010  10.766
33070SOL     OW 1048   1.933   8.738   0.745
33070SOL    HW1 1049   1.981   8.813   0.780
33070SOL    HW2 1050   1.914   8.684   0.821
33071SOL     OW 1051   9.365   6.780   9.554
33071SOL    HW1 1052   9.342   6.863   9.595
33071SOL    HW2 1053   9.288   6.725   9.565
33072SOL     OW 1054   8.456   6.240  10.878
33072SOL    HW1 1055   8.412   6.155  10.887
33072SOL    HW2 1056   8.484   6.262  10.967
33073SOL     OW 1057   0.278   7.579   2.466
33073SOL    HW1 1058   0.357   7.528   2.484
33073SOL    HW2 1059   0.300   7.667   2.495
33074SOL     OW 1060  12.377   6.250   1.400
33074SOL    HW1 1061  12.297   6.298   1.380
33074SOL    HW2 1062  12.414   6.295   1.476
33075SOL     OW 1063   7.231   5.696   4.980
33075SOL    HW1 1064   7.317   5.703   4.937
33075SOL    HW2 1065   7.251   5.708   5.073
33076SOL     OW 1066  10.511   6.305   2.877
33076SOL    HW1 1067  10.484   6.241   2.812
33076SOL    HW2 1068  10.437   6.365   2.885
33077SOL     OW 1069  13.927   0.341  10.369
33077SOL    HW1 1070  13.953   0.352  10.461
33077SOL    HW2 1071  13.851   0.283  10.372
33078SOL     OW 1072   2.481  13.445  14.389
33078SOL    HW1 1073   2.515  13.509  14.452
33078SOL    HW2 1074   2.415  13.395  14.438
33079SOL     OW 1075   8.805   1.949   0.196
33079SOL    HW1 1076   8.745   2.023   0.207
33079SOL    HW2 1077   8.882   1.987   0.154
33080SOL     OW 1078   3.763   4.454   5.760
33080SOL    HW1 1079   3.724   4.517   5.700
33080SOL    HW2 1080   3.709   4.375   5.750
33081SOL     OW 1081  13.657   0.290   7.943
33081SOL    HW1 1082  13.686   0.268   8.031
33081SOL    HW2 1083  13.604   0.369   7.954
33082SOL     OW 1084   3.851  12.669   9.672
33082SOL    HW1 1085   3.785  12.600   9.676
33082SOL    HW2 1086   3.806  12.747   9.705
33083SOL     OW 1087   2.429  14.329   0.293
33083SOL    HW1 1088   2.371  14.336   0.369
33083SOL    HW2 1089   2.494  14.398   0.306
33084SOL     OW 1090   9.182   7.608   1.637
33084SOL    HW1 1091   9.270   7.578   1.657
33084SOL    HW2 1092   9.132   7.528   1.622
33085SOL     OW 1093  13.419   2.950  13.089
33085SOL    HW1 1094  13.343   2.992  13.129
33085SOL    HW2 1095  13.459   3.019  13.036
33086SOL     OW 1096   4.040   1.340  10.057
33086SOL    HW1 1097   3.998   1.310   9.975
33086SOL    HW2 1098   4.127   1.369  10.030
33087SOL     OW 1099  10.674  14.154  12.418
33087SOL    HW1 1100  10.612  14.100  12.370
33087SOL    HW2 1101  10.659  14.133  12.510
33088SOL     OW 1102   5.350   6.889   8.960
33088SOL    HW1 1103   5.358   6.947   9.035
33088SOL    HW2 1104   5.332   6.947   8.886
33089SOL     OW 1105   0.652   7.063   8.374
33089SOL    HW1 1106   0.598   6.984   8.368
33089SOL    HW2 1107   0.723   7.039   8.434
33090SOL     OW 1108   6.470  10.557  11.902
33090SOL    HW1 1109   6.469  10.608  11.983
33090SOL    HW2 1110   6.426  10.612  11.838
33091SOL     OW 1111  13.458   5.935  13.206
33091SOL    HW1 1112  13.428   6.026  13.204
33091SOL    HW2 1113  13.553   5.941  13.197
33092SOL     OW 1114   1.569   1.716   6.201
33092SOL    HW1 1115   1.479   1.745   6.210
33092SOL    HW2 1116   1.590   1.732   6.109
33093SOL     OW 1117  11.876  11.519  13.868
33093SOL    HW1 1118  11.945  11.572  13.826
33093SOL    HW2 1119  11.830  11.582  13.924
33094SOL     OW 1120   6.727   4.846   0.540
33094SOL    HW1 1121   6.720   4.906   0.465
33094SOL    HW2 1122   6.814   4.863   0.575
33095SOL     OW 1123  12.406   5.204   2.115
33095SOL    HW1 1124  12.398   5.171   2.026
33095SOL    HW2 1125  12.320   5.242   2.134
33096SOL     OW 1126  11.580  11.000   0.405
33096SOL    HW1 1127  11.637  11.076   0.409
33096SOL    HW2 1128  11.526  11.006   0.484
33097SOL     OW 1129  13.270   6.729   7.563
33097SOL    HW1 1130  13.239   6.819   7.575
33097SOL    HW2 1131  13.303   6.703   7.649
33098SOL     OW 1132   4.530  12.897   2.041
33098SOL    HW1 1133   4.464  12.880   2.108
33098SOL    HW2 1134   4.606  12.927   2.089
33099SOL     OW 1135   7.163   6.628   4.670
33099SOL    HW1 1136   7.151   6.549   4.723
33099SOL    HW2 1137   7.230   6.678   4.717
33100SOL     OW 1138   3.055   0.637  10.145
33100SOL    HW1 1139   3.100   0.617  10.227
33100SOL    HW2 1140   3.067   0.559  10.091
33101SOL     OW 1141  10.657  13.566  10.995
33101SOL    HW1 1142  10.661  13.535  10.904
33101SOL    HW2 1143  10.591  13.510  11.036
33102SOL     OW 1144   3.542  13.867   7.847
33102SOL    HW1 1145   3.553  13.832   7.759
33102SOL    HW2 1146   3.489  13.802   7.893
33103SOL     OW 1147   1.041   8.166   2.414
33103SOL    HW1 1148   0.977   8.216   2.464
33103SOL    HW2 1149   1.116   8.225   2.405
33104SOL     OW 1150  12.513   9.554  12.061
33104SOL    HW1 1151  12.561   9.538  12.142
33104SOL    HW2 1152  12.535   9.479  12.005
33105SOL     OW 1153  11.683   1.078   6.999
33105SOL    HW1 1154  11.692   1.172   7.018
33105SOL    HW2 1155  11.767   1.052   6.962
33106SOL     OW 1156   9.912   1.527   3.242
33106SOL    HW1 1157   9.857   1.592   3.198
33106SOL    HW2 1158   9.979   1.578   3.288
33107SOL     OW 1159   9.840  11.236   3.723
33107SOL    HW1 1160   9.852  11.197   3.637
33107SOL    HW2 1161   9.880  11.323   3.716
33108SOL     OW 1162  10.229   9.640   6.011
33108SOL    HW1 1163  10.319   9.616   6.033
33108SOL    HW2 1164  10.225   9.735   6.022
33109SOL     OW 1165   2.093   8.272   7.603
33109SOL    HW1 1166   2.035   8.248   7.675
33109SOL    HW2 1167   2.067   8.361   7.580
33110SOL     OW 1168  12.524   2.595   7.731
33110SOL    HW1 1169  12.578   2.656   7.782
33110SOL    HW2 1170  12.586   2.555   7.670
33111SOL     OW 1171   9.053   7.814  11.158
33111SOL    HW1 1172   8.973   7.780  11.117
33111SOL    HW2 1173   9.083   7.883  11.100
33112SOL     OW 1174   0.556   3.295   2.541
33112SOL    HW1 1175   0.570   3.386   2.516
33112SOL    HW2 1176   0.598   3.287   2.627
33113SOL     OW 1177  13.430   2.392   8.197
33113SOL    HW1 1178  13.451   2.325   8.262
33113SOL    HW2 1179  13.376   2.455   8.244
33114SOL     OW 1180   5.108  11.841  11.787
33114SOL    HW1 1181   5.119  11.936  11.792
33114SOL    HW2 1182   5.046  11.820  11.857
33115SOL     OW 1183   1.189   2.823   6.213
33115SOL    HW1 1184   1.251   2.750   6.218
33115SOL    HW2 1185   1.124   2.802   6.280
33116SOL     OW 1186   1.313   8.266   3.998
33116SOL    HW1 1187   1.273   8.299   3.918
33116SOL    HW2 1188   1.297   8.334   4.064
33117SOL     OW 1189   1.902   8.474  14.486
33117SOL    HW1 1190   1.867   8.551  14.531
33117SOL    HW2 1191   1.937   8.419  14.556
33118SOL     OW 1192  14.278   9.216  12.266
33118SOL    HW1 1193  14.303   9.246  12.354
33118SOL    HW2 1194  14.329   9.272  12.207
33119SOL     OW 1195   8.076   1.216   1.496
33119SOL    HW1 1196   8.155   1.164   1.511
33119SOL    HW2 1197   8.005   1.161   1.528
33120SOL     OW 1198   7.498   9.848  14.099
33120SOL    HW1 1199   7.462   9.808  14.020
33120SOL    HW2 1200   7.483   9.942  14.088
33121SOL     OW 1201   5.161  12.706  12.300
33121SOL    HW1 1202   5.255  12.721  12.303
33121SOL    HW2 1203   5.134  12.744  12.216
33122SOL     OW 1204   3.606  13.132   3.814
33122SOL    HW1 1205   3.672  13.109   3.749
33122SOL    HW2 1206   3.581  13.222   3.793
33123SOL     OW 1207   9.062  13.496   4.283
33123SOL    HW1 1208   9.134  13.558   4.275
33123SOL    HW2 1209   9.000  13.538   4.343
33124SOL     OW 1210   3.229   5.396   7.919
33124SOL    HW1 1211   3.195   5.332   7.856
33124SOL    HW2 1212   3.209   5.358   8.004
33125SOL     OW 1213  12.291  10.601   2.100
33125SOL    HW1 1214  12.218  10.618   2.041
33125SOL    HW2 1215  12.360  10.661   2.071
33126SOL     OW 1216  11.890   2.268  10.817
33126SOL    HW1 1217  11.945   2.199  10.854
33126SOL    HW2 1218  11.838   2.299  10.892
33127SOL     OW 1219  10.231   9.724  14.208
33127SOL    HW1 1220  10.257   9.765  14.291
33127SOL    HW2 1221  10.184   9.645  14.234
33128SOL     OW 1222   2.068   7.336  12.507
33128SOL    HW1 1223   1.972   7.328  12.505
33128SOL    HW2 1224   2.085   7.430  12.501
33129SOL     OW 1225  13.765  13.192   4.568
33129SOL    HW1 1226  13.846  13.159   4.607
33129SOL    HW2 1227  13.794  13.243   4.492
33130SOL     OW 1228  13.190   4.290   6.059
33130SOL    HW1 1229  13.142   4.213   6.027
33130SOL    HW2 1230  13.129   4.334   6.117
33131SOL     OW 1231  10.792  13.271   0.032
33131SOL    HW1 1232  10.874  13.322   0.034
33131SOL    HW2 1233  10.817  13.184   0.063
33132SOL     OW 1234  11.649  10.619   1.223
33132SOL    HW1 1235  11.676  10.696   1.172
33132SOL    HW2 1236  11.686  10.545   1.176
33133SOL     OW 1237   8.902  13.130   7.778
33133SOL    HW1 1238   8.969  13.080   7.825
33133SOL    HW2 1239   8.932  13.221   7.783
33134SOL     OW 1240  12.926  11.965   6.660
33134SOL    HW1 1241  12.970  11.937   6.740
33134SOL    HW2 1242  12.843  12.003   6.690
33135SOL     OW 1243   9.202   8.693  13.054
33135SOL    HW1 1244   9.221   8.624  13.118
33135SOL    HW2 1245   9.286   8.738  13.043
33136SOL     OW 1246   3.230   8.886  13.558
33136SOL    HW1 1247   3.283   8.912  13.633
33136SOL    HW2 1248   3.284   8.821  13.512
33137SOL     OW 1249   2.818   7.616   8.692
33137SOL    HW1 1250   2.884   7.656   8.636
33137SOL    HW2 1251   2.841   7.644   8.780
33138SOL     OW 1252   6.574   1.657   2.813
33138SOL    HW1 1253   6.552   1.687   2.902
33138SOL    HW2 1254   6.510   1.589   2.794
33139SOL     OW 1255   6.343  14.036  12.455
33139SOL    HW1 1256   6.319  14.128  12.441
33139SOL    HW2 1257   6.338  13.996  12.368
33140SOL     OW 1258   5.250   3.499  12.793
33140SOL    HW1 1259   5.232   3.444  12.717
33140SOL    HW2 1260   5.259   3.587  12.758
33141SOL     OW 1261   8.523   9.473  13.599
33141SOL    HW1 1262   8.549   9.565  13.596
33141SOL    HW2 1263   8.454   9.470  13.666
33142SOL     OW 1264  13.808   0.664   0.132
33142SOL    HW1 1265  13.747   0.595   0.159
33142SOL    HW2 1266  13.796   0.673   0.038
33143SOL     OW 1267   2.209   1.329   1.975
33143SOL    HW1 1268   2.125   1.369   1.955
33143SOL    HW2 1269   2.268   1.402   1.992
33144SOL     OW 1270   3.917   0.213   3.161
33144SOL    HW1 1271   3.856   0.276   3.201
33144SOL    HW2 1272   3.970   0.181   3.233
33145SOL     OW 1273  13.515   4.563   0.012
33145SOL    HW1 1274  13.436   4.513   0.033
33145SOL    HW2 1275  13.582   4.528   0.070
33146SOL     OW 1276  13.791   0.167   3.334
33146SOL    HW1 1277  13.860   0.148   3.270
33146SOL    HW2 1278  13.823   0.127   3.415
33147SOL     OW 1279   0.344  13.840  12.488
33147SOL    HW1 1280   0.252  13.866  12.485
33147SOL    HW2 1281   0.369  13.830  12.396
33148SOL     OW 1282   2.826   1.643   6.737
33148SOL    HW1 1283   2.876   1.694   6.674
33148SOL    HW2 1284   2.767   1.707   6.778
33149SOL     OW 1285  11.776   6.651  11.564
33149SOL    HW1 1286  11.865   6.620  11.550
33149SOL    HW2 1287  11.785   6.745  11.580
33150SOL     OW 1288   7.627  12.912  10.255
33150SOL    HW1 1289   7.532  12.912  10.267
33150SOL    HW2 1290   7.641  12.969  10.179
33151SOL     OW 1291   5.990  13.855  11.882
33151SOL    HW1 1292   6.006  13.764  11.857
33151SOL    HW2 1293   5.988  13.903  11.799
33152SOL     OW 1294  10.222  14.679   5.168
33152SOL    HW1 1295  10.287  14.710   5.232
33152SOL    HW2 1296  10.264  14.694   5.083
33153SOL     OW 1297  13.495  14.751  11.524
33153SOL    HW1 1298  13.540  14.835  11.522
33153SOL    HW2 1299  13.558  14.691  11.565
33154SOL     OW 1300   8.584   7.562   3.465
33154SOL    HW1 1301   8.631   7.542   3.384
33154SOL    HW2 1302   8.517   7.626   3.440
33155SOL     OW 1303   1.966   7.817   0.520
33155SOL    HW1 1304   1.893   7.874   0.497
33155SOL    HW2 1305   1.975   7.827   0.615
33156SOL     OW 1306  13.240  12.890   6.987
33156SOL    HW1 1307  13.162  12.839   7.012
33156SOL    HW2 1308  13.244  12.960   7.052
33157SOL     OW 1309   9.228   9.676  12.147
33157SOL    HW1 1310   9.201   9.755  12.100
33157SOL    HW2 1311   9.313   9.699  12.185
33158SOL     OW 1312  10.727   0.098   9.212
33158SOL    HW1 1313  10.721   0.116   9.119
33158SOL    HW2 1314  10.815   0.126   9.236
33159SOL     OW 1315   7.736  10.080  13.571
33159SOL    HW1 1316   7.811  10.048  13.622
33159SOL    HW2 1317   7.675  10.007  13.571
33160SOL     OW 1318  13.270   5.610  12.722
33160SOL    HW1 1319  13.273   5.696  12.680
33160SOL    HW2 1320  13.346   5.610  12.781
33161SOL     OW 1321   6.669   8.241   1.467
33161SOL    HW1 1322   6.682   8.160   1.516
33161SOL    HW2 1323   6.578   8.236   1.437
33162SOL     OW 1324   7.052   9.792  13.763
33162SOL    HW1 1325   7.052   9.878  13.806
33162SOL    HW2 1326   6.970   9.752  13.792
33163SOL     OW 1327  11.773  14.123  10.169
33163SOL    HW1 1328  11.789  14.034  10.138
33163SOL    HW2 1329  11.838  14.176  10.123
33164SOL     OW 1330   9.271   4.673  11.325
33164SOL    HW1 1331   9.318   4.737  11.379
33164SOL    HW2 1332   9.325   4.662  11.247
33165SOL     OW 1333  14.539  10.406   8.126
33165SOL    HW1 1334  14.634  10.399   8.124
33165SOL    HW2 1335  14.514  10.412   8.033
33166SOL     OW 1336   1.426   5.219   9.483
33166SOL    HW1 1337   1.509   5.261   9.461
33166SOL    HW2 1338   1.399   5.261   9.565
33167SOL     OW 1339   4.493  13.219   1.131
33167SOL    HW1 1340   4.431  13.258   1.193
33167SOL    HW2 1341   4.542  13.155   1.184
33168SOL     OW 1342   0.868   0.860  11.760
33168SOL    HW1 1343   0.794   0.831  11.708
33168SOL    HW2 1344   0.943   0.814  11.724
33169SOL     OW 1345  14.372   1.494  12.385
33169SOL    HW1 1346  14.440   1.557  12.360
33169SOL    HW2 1347  14.339   1.460  12.302
33170SOL     OW 1348   9.031  13.638  14.741
33170SOL    HW1 1349   9.000  13.558  14.698
33170SOL    HW2 1350   9.078  13.607  14.818
33171SOL     OW 1351  12.603   5.743  13.273
33171SOL    HW1 1352  12.573   5.705  13.190
33171SOL    HW2 1353  12.530   5.798  13.301
33172SOL     OW 1354  11.276   1.247   6.375
33172SOL    HW1 1355  11.238   1.227   6.289
33172SOL    HW2 1356  11.360   1.200   6.375
33173SOL     OW 1357  10.795  13.946  14.199
33173SOL    HW1 1358  10.867  13.905  14.247
33173SOL    HW2 1359  10.821  13.938  14.107
33174SOL     OW 1360   5.134   3.292   3.756
33174SOL    HW1 1361   5.044   3.271   3.731
33174SOL    HW2 1362   5.126   3.369   3.812
33175SOL     OW 1363   5.236  10.809   8.856
33175SOL    HW1 1364   5.256  10.871   8.786
33175SOL    HW2 1365   5.276  10.847   8.934
33176SOL     OW 1366   8.256  13.489   3.971
33176SOL    HW1 1367   8.310  13.410   3.968
33176SOL    HW2 1368   8.225  13.493   4.062
33177SOL     OW 1369  14.548   7.508  11.189
33177SOL    HW1 1370  14.472   7.473  11.142
33177SOL    HW2 1371  14.621   7.453  11.161
33178SOL     OW 1372   8.344   1.561   8.251
33178SOL    HW1 1373   8.333   1.651   8.222
33178SOL    HW2 1374   8.338   1.566   8.347
33179SOL     OW 1375   7.323   9.711   8.545
33179SOL    HW1 1376   7.303   9.738   8.455
33179SOL    HW2 1377   7.396   9.766   8.571
33180SOL     OW 1378   0.043   7.682   8.019
33180SOL    HW1 1379   0.132   7.707   8.043
33180SOL    HW2 1380   0.044   7.678   7.923
33181SOL     OW 1381  10.960   2.117   9.257
33181SOL    HW1 1382  11.012   2.153   9.329
33181SOL    HW2 1383  11.024   2.074   9.201
33182SOL     OW 1384   5.471   8.140   5.158
33182SOL    HW1 1385   5.478   8.138   5.063
33182SOL    HW2 1386   5.377   8.135   5.175
33183SOL     OW 1387   2.011   0.609  13.443
33183SOL    HW1 1388   2.067   0.576  13.513
33183SOL    HW2 1389   2.072   0.628  13.371
33184SOL     OW 1390   5.577   2.525   3.184
33184SOL    HW1 1391   5.515   2.554   3.117
33184SOL    HW2 1392   5.614   2.606   3.220
33185SOL     OW 1393   7.919  12.846   1.466
33185SOL    HW1 1394   7.972  12.842   1.546
33185SOL    HW2 1395   7.854  12.777   1.478
33186SOL     OW 1396   9.361   6.436   9.819
33186SOL    HW1 1397   9.425   6.367   9.834
33186SOL    HW2 1398   9.285   6.391   9.782
33187SOL     OW 1399   9.629  11.334   2.926
33187SOL    HW1 1400   9.696  11.336   2.858
33187SOL    HW2 1401   9.600  11.243   2.928
33188SOL     OW 1402   3.725  12.445   2.789
33188SOL    HW1 1403   3.717  12.417   2.880
33188SOL    HW2 1404   3.751  12.365   2.742
33189SOL     OW 1405   6.251   2.742   5.506
33189SOL    HW1 1406   6.166   2.774   5.476
33189SOL    HW2 1407   6.247   2.647   5.492
33190SOL     OW 1408   0.533   8.807  10.269
33190SOL    HW1 1409   0.611   8.849  10.305
33190SOL    HW2 1410   0.548   8.806  10.175
33191SOL     OW 1411   9.379   9.903   8.892
33191SOL    HW1 1412   9.462   9.951   8.891
33191SOL    HW2 1413   9.317   9.963   8.851
33192SOL     OW 1414  11.488  14.128   5.161
33192SOL    HW1 1415  11.551  14.078   5.213
33192SOL    HW2 1416  11.430  14.062   5.123
33193SOL     OW 1417  12.478  11.470  12.612
33193SOL    HW1 1418  12.510  11.534  12.548
33193SOL    HW2 1419  12.532  11.484  12.689
33194SOL     OW 1420   6.108  12.613   1.435
33194SOL    HW1 1421   6.019  12.628   1.465
33194SOL    HW2 1422   6.141  12.543   1.491
33195SOL     OW 1423  11.091  11.481  13.054
33195SOL    HW1 1424  11.140  11.558  13.084
33195SOL    HW2 1425  10.999  11.504  13.067
33196SOL     OW 1426  12.009   4.732   1.348
33196SOL    HW1 1427  11.977   4.701   1.263
33196SOL    HW2 1428  12.094   4.771   1.328
33197SOL     OW 1429   5.039   1.475   3.985
33197SOL    HW1 1430   4.950   1.508   3.976
33197SOL    HW2 1431   5.094   1.546   3.951
33198SOL     OW 1432   7.377   2.668  13.058
33198SOL    HW1 1433   7.381   2.752  13.012
33198SOL    HW2 1434   7.454   2.621  13.028
33199SOL     OW 1435   4.358   7.282  10.749
33199SOL    HW1 1436   4.395   7.292  10.837
33199SOL    HW2 1437   4.357   7.187  10.734
33200SOL     OW 1438   1.631   0.951  12.410
33200SOL    HW1 1439   1.604   1.004  12.485
33200SOL    HW2 1440   1.600   0.863  12.430
33201SOL     OW 1441   7.452   5.249  10.900
33201SOL    HW1 1442   7.367   5.287  10.875
33201SOL    HW2 1443   7.454   5.164  10.856
33202SOL     OW 1444   6.024   0.687  14.062
33202SOL    HW1 1445   6.004   0.757  14.124
33202SOL    HW2 1446   5.990   0.718  13.979
33203SOL     OW 1447  14.816   2.588  12.479
33203SOL    HW1 1448  14.827   2.571  12.572
33203SOL    HW2 1449  14.728   2.556  12.458
33204SOL     OW 1450   2.267   9.191   0.639
33204SOL    HW1 1451   2.273   9.259   0.572
33204SOL    HW2 1452   2.311   9.229   0.715
33205SOL     OW 1453   1.095   3.449  14.292
33205SOL    HW1 1454   1.021   3.413  14.341
33205SOL    HW2 1455   1.120   3.527  14.340
33206SOL     OW 1456   3.787  13.692   6.915
33206SOL    HW1 1457   3.705  13.647   6.933
33206SOL    HW2 1458   3.813  13.729   6.999
33207SOL     OW 1459   2.660   9.499   4.165
33207SOL    HW1 1460   2.683   9.502   4.258
33207SOL    HW2 1461   2.731   9.448   4.125
33208SOL     OW 1462   3.268  12.456   0.750
33208SOL    HW1 1463   3.260  12.497   0.664
33208SOL    HW2 1464   3.178  12.456   0.785
33209SOL     OW 1465  10.884  12.362   3.760
33209SOL    HW1 1466  10.823  12.349   3.687
33209SOL    HW2 1467  10.971  12.361   3.720
33210SOL     OW 1468   7.359  12.340  12.325
33210SOL    HW1 1469   7.296  12.272  12.303
33210SOL    HW2 1470   7.333  12.369  12.413
33211SOL     OW 1471   1.338  12.177   4.873
33211SOL    HW1 1472   1.365  12.154   4.962
33211SOL    HW2 1473   1.294  12.099   4.840
33212SOL     OW 1474   2.285   5.316   2.126
33212SOL    HW1 1475   2.301   5.383   2.193
33212SOL    HW2 1476   2.365   5.317   2.073
33213SOL     OW 1477   3.526  12.687  11.648
33213SOL    HW1 1478   3.447  12.636  11.668
33213SOL    HW2 1479   3.493  12.772  11.620
33214SOL     OW 1480   7.301   6.519  11.488
33214SOL    HW1 1481   7.262   6.553  11.407
33214SOL    HW2 1482   7.342   6.437  11.462
33215SOL     OW 1483   6.933   8.087  12.402
33215SOL    HW1 1484   6.952   7.995  12.421
33215SOL    HW2 1485   6.867   8.112  12.468
33216SOL     OW 1486   5.535  12.936   2.936
33216SOL    HW1 1487   5.576  12.932   2.849
33216SOL    HW2 1488   5.508  12.846   2.954
33217SOL     OW 1489   4.982   6.178   5.324
33217SOL    HW1 1490   5.048   6.248   5.326
33217SOL    HW2 1491   4.974   6.156   5.231
33218SOL     OW 1492  10.560   4.644   2.126
33218SOL    HW1 1493  10.538   4.678   2.213
33218SOL    HW2 1494  10.574   4.550   2.140
33219SOL     OW 1495  13.792  13.401  14.037
33219SOL    HW1 1496  13.758  13.316  14.063
33219SOL    HW2 1497  13.836  13.385  13.953
33220SOL     OW 1498   8.648   0.362  14.829
33220SOL    HW1 1499   8.712   0.401   0.014
33220SOL    HW2 1500   8.598   0.302   0.010
33221SOL     OW 1501   4.515   2.095   3.219
33221SOL    HW1 1502   4.466   2.175   3.198
33221SOL    HW2 1503   4.590   2.097   3.160
33222SOL     OW 1504   8.941   6.321   4.053
33222SOL    HW1 1505   8.965   6.242   4.100
33222SOL    HW2 1506   8.872   6.361   4.105
33223SOL     OW 1507  12.625  10.941   0.010
33223SOL    HW1 1508  12.709  10.967   0.046
33223SOL    HW2 1509  12.646  10.886  14.810
33224SOL     OW 1510  14.175   2.659   0.784
33224SOL    HW1 1511  14.103   2.715   0.813
33224SOL    HW2 1512  14.202   2.613   0.863
33225SOL     OW 1513   7.324   0.531   3.338
33225SOL    HW1 1514   7.339   0.621   3.310
33225SOL    HW2 1515   7.372   0.523   3.420
33226SOL     OW 1516  13.524   8.389  12.691
33226SOL    HW1 1517  13.429   8.396  12.702
33226SOL    HW2 1518  13.542   8.296  12.702
33227SOL     OW 1519   7.808  10.389   4.845
33227SOL    HW1 1520   7.753  10.422   4.774
33227SOL    HW2 1521   7.757  10.318   4.883
33228SOL     OW 1522  14.769   7.078   7.395
33228SOL    HW1 1523  14.853   7.121   7.383
33228SOL    HW2 1524  14.792   6.986   7.408
33229SOL     OW 1525   5.729   8.979   5.274
33229SOL    HW1 1526   5.649   8.946   5.234
33229SOL    HW2 1527   5.799   8.929   5.233
33230SOL     OW 1528   5.948   5.341   5.497
33230SOL    HW1 1529   6.029   5.350   5.447
33230SOL    HW2 1530   5.953   5.412   5.562
33231SOL     OW 1531   3.707  10.563  12.334
33231SOL    HW1 1532   3.645  10.492  12.352
33231SOL    HW2 1533   3.783  10.542  12.389
33232SOL     OW 1534  14.547   8.341   2.053
33232SOL    HW1 1535  14.509   8.349   2.140
33232SOL    HW2 1536  14.478   8.372   1.994
33233SOL     OW 1537   0.698  10.866   6.934
33233SOL    HW1 1538   0.650  10.850   6.853
33233SOL    HW2 1539   0.675  10.793   6.991
33234SOL     OW 1540   9.332   8.638  11.116
33234SOL    HW1 1541   9.355   8.545  11.115
33234SOL    HW2 1542   9.236   8.639  11.109
33235SOL     OW 1543   5.082  10.077  12.123
33235SOL    HW1 1544   5.009  10.128  12.087
33235SOL    HW2 1545   5.160  10.115  12.083
33236SOL     OW 1546   8.657   4.288  13.493
33236SOL    HW1 1547   8.638   4.227  13.422
33236SOL    HW2 1548   8.750   4.308  13.484
33237SOL     OW 1549  13.191   7.782   2.677
33237SOL    HW1 1550  13.146   7.715   2.626
33237SOL    HW2 1551  13.223   7.736   2.755
33238SOL     OW 1552   3.747  10.358   2.632
33238SOL    HW1 1553   3.838  10.373   2.658
33238SOL    HW2 1554   3.751  10.342   2.538
33239SOL     OW 1555   3.478  10.539   4.319
33239SOL    HW1 1556   3.546  10.485   4.279
33239SOL    HW2 1557   3.468  10.504   4.407
33240SOL     OW 1558   2.749  13.948   3.081
33240SOL    HW1 1559   2.743  14.037   3.115
33240SOL    HW2 1560   2.813  13.954   3.010
33241SOL     OW 1561   8.594  14.189  13.423
33241SOL    HW1 1562   8.625  14.139  13.499
33241SOL    HW2 1563   8.564  14.122  13.362
33242SOL     OW 1564  14.441  14.610  10.608
33242SOL    HW1 1565  14.461  14.701  10.629
33242SOL    HW2 1566  14.506  14.586  10.542
33243SOL     OW 1567   7.888  10.560  10.039
33243SOL    HW1 1568   7.825  10.589  10.105
33243SOL    HW2 1569   7.905  10.638   9.986
33244SOL     OW 1570   6.603  12.884   3.833
33244SOL    HW1 1571   6.579  12.892   3.925
33244SOL    HW2 1572   6.564  12.961   3.792
33245SOL     OW 1573   2.727   2.761   5.538
33245SOL    HW1 1574   2.788   2.700   5.579
33245SOL    HW2 1575   2.641   2.726   5.558
33246SOL     OW 1576   5.058   3.971  10.259
33246SOL    HW1 1577   5.081   3.999  10.347
33246SOL    HW2 1578   5.039   4.052  10.211
33247SOL     OW 1579   7.915   0.379   5.106
33247SOL    HW1 1580   7.846   0.437   5.074
33247SOL    HW2 1581   7.929   0.317   5.034
33248SOL     OW 1582   7.634  10.449  14.324
33248SOL    HW1 1583   7.547  10.472  14.291
33248SOL    HW2 1584   7.620  10.427  14.416
33249SOL     OW 1585  10.770   1.738   9.501
33249SOL    HW1 1586  10.816   1.655   9.512
33249SOL    HW2 1587  10.679   1.717   9.518
33250SOL     OW 1588   3.063  10.200   4.429
33250SOL    HW1 1589   3.130  10.256   4.390
33250SOL    HW2 1590   3.022  10.156   4.355
33251SOL     OW 1591   9.839  14.071  14.341
33251SOL    HW1 1592   9.815  13.978  14.348
33251SOL    HW2 1593   9.801  14.112  14.418
33252SOL     OW 1594   5.942   5.114   6.055
33252SOL    HW1 1595   5.927   5.021   6.036
33252SOL    HW2 1596   5.862   5.142   6.099
33253SOL     OW 1597   3.360   0.283   4.594
33253SOL    HW1 1598   3.425   0.227   4.638
33253SOL    HW2 1599   3.406   0.365   4.577
33254SOL     OW 1600  14.146   2.714   0.275
33254SOL    HW1 1601  14.235   2.678   0.272
33254SOL    HW2 1602  14.148   2.788   0.214
33255SOL     OW 1603  12.079  14.681  11.173
33255SOL    HW1 1604  11.992  14.700  11.139
33255SOL    HW2 1605  12.077  14.712  11.263
33256SOL     OW 1606  10.939   7.405  11.860
33256SOL    HW1 1607  10.916   7.408  11.953
33256SOL    HW2 1608  10.935   7.312  11.837
33257SOL     OW 1609   8.271  11.457   6.623
33257SOL    HW1 1610   8.228  11.465   6.708
33257SOL    HW2 1611   8.226  11.519   6.567
33258SOL     OW 1612   0.995   4.674  10.775
33258SOL    HW1 1613   0.909   4.714  10.786
33258SOL    HW2 1614   1.023   4.701  10.687
33259SOL     OW 1615   5.974   9.701   4.771
33259SOL    HW1 1616   5.923   9.770   4.813
33259SOL    HW2 1617   6.061   9.708   4.810
33260SOL     OW 1618   7.464   9.188   3.916
33260SOL    HW1 1619   7.385   9.135   3.916
33260SOL    HW2 1620   7.507   9.167   3.998
33261SOL     OW 1621   3.677   2.177  12.050
33261SOL    HW1 1622   3.628   2.254  12.022
33261SOL    HW2 1623   3.627   2.103  12.016
33262SOL     OW 1624  12.991   5.284  13.110
33262SOL    HW1 1625  13.056   5.263  13.177
33262SOL    HW2 1626  13.028   5.358  13.063
33263SOL     OW 1627   2.317  13.146  14.830
33263SOL    HW1 1628   2.358  13.182   0.035
33263SOL    HW2 1629   2.232  13.113  14.860
33264SOL     OW 1630   3.296  13.462   8.376
33264SOL    HW1 1631   3.386  13.438   8.398
33264SOL    HW2 1632   3.304  13.547   8.331
33265SOL     OW 1633   1.218   6.246  11.635
33265SOL    HW1 1634   1.204   6.330  11.679
33265SOL    HW2 1635   1.130   6.212  11.618
33266SOL     OW 1636  12.138   6.761   6.697
33266SOL    HW1 1637  12.187   6.809   6.629
33266SOL    HW2 1638  12.077   6.826   6.732
33267SOL     OW 1639  10.268   6.131   7.587
33267SOL    HW1 1640  10.340   6.163   7.641
33267SOL    HW2 1641  10.236   6.209   7.542
33268SOL     OW 1642  10.644   0.314   1.493
33268SOL    HW1 1643  10.734   0.331   1.519
33268SOL    HW2 1644  10.599   0.291   1.575
33269SOL     OW 1645  11.769   7.402  10.569
33269SOL    HW1 1646  11.790   7.346  10.494
33269SOL    HW2 1647  11.679   7.378  10.592
33270SOL     OW 1648   5.930   7.547   4.231
33270SOL    HW1 1649   5.879   7.471   4.260
33270SOL    HW2 1650   5.978   7.576   4.308
33271SOL     OW 1651   7.062   6.850   4.059
33271SOL    HW1 1652   7.057   6.859   3.964
33271SOL    HW2 1653   7.102   6.764   4.073
33272SOL     OW 1654  10.704   6.490   3.111
33272SOL    HW1 1655  10.738   6.413   3.067
33272SOL    HW2 1656  10.618   6.463   3.143
33273SOL     OW 1657  11.325   0.985  14.035
33273SOL    HW1 1658  11.274   0.990  13.954
33273SOL    HW2 1659  11.284   1.049  14.094
33274SOL     OW 1660   8.899  14.160   0.992
33274SOL    HW1 1661   8.950  14.080   1.001
33274SOL    HW2 1662   8.918  14.190   0.903
33275SOL     OW 1663   6.674   8.307   2.455
33275SOL    HW1 1664   6.676   8.322   2.550
33275SOL    HW2 1665   6.609   8.238   2.443
33276SOL     OW 1666   4.284   4.310   6.141
33276SOL    HW1 1667   4.230   4.276   6.070
33276SOL    HW2 1668   4.311   4.397   6.111
33277SOL     OW 1669   6.777  11.061   2.391
33277SOL    HW1 1670   6.707  11.001   2.364
33277SOL    HW2 1671   6.811  11.096   2.309
33278SOL     OW 1672   4.160   1.355   8.285
33278SOL    HW1 1673   4.111   1.361   8.367
33278SOL    HW2 1674   4.104   1.304   8.227
33279SOL     OW 1675   3.766  11.373   7.887
33279SOL    HW1 1676   3.702  11.320   7.935
33279SOL    HW2 1677   3.768  11.335   7.799
33280SOL     OW 1678  14.668  14.266  12.780
33280SOL    HW1 1679  14.683  14.188  12.728
33280SOL    HW2 1680  14.628  14.328  12.719
33281SOL     OW 1681   6.158  12.005  11.383
33281SOL    HW1 1682   6.242  12.049  11.394
33281SOL    HW2 1683   6.176  11.913  11.403
33282SOL     OW 1684   0.438   6.460   0.039
33282SOL    HW1 1685   0.470   6.485  14.826
33282SOL    HW2 1686   0.400   6.541   0.074
33283SOL     OW 1687   4.080   7.137   3.521
33283SOL    HW1 1688   4.091   7.063   3.462
33283SOL    HW2 1689   4.051   7.209   3.465
33284SOL     OW 1690   1.534  10.396   4.746
33284SOL    HW1 1691   1.538  10.379   4.840
33284SOL    HW2 1692   1.524  10.310   4.706
33285SOL     OW 1693   0.007   6.066   7.660
33285SOL    HW1 1694   0.090   6.040   7.700
33285SOL    HW2 1695  14.824   5.990   7.671
33286SOL     OW 1696  13.293   9.274  14.539
33286SOL    HW1 1697  13.375   9.245  14.499
33286SOL    HW2 1698  13.319   9.311  14.623
33287SOL     OW 1699   4.387  10.502   0.556
33287SOL    HW1 1700   4.327  10.576   0.559
33287SOL    HW2 1701   4.466  10.537   0.515
33288SOL     OW 1702   3.141  13.248   1.220
33288SOL    HW1 1703   3.108  13.175   1.167
33288SOL    HW2 1704   3.208  13.289   1.166
33289SOL     OW 1705   5.107   2.422   9.851
33289SOL    HW1 1706   5.113   2.466   9.766
33289SOL    HW2 1707   5.033   2.464   9.894
33290SOL     OW 1708  12.914  11.352   4.252
33290SOL    HW1 1709  12.988  11.308   4.210
33290SOL    HW2 1710  12.857  11.377   4.180
33291SOL     OW 1711  10.960  14.369   4.601
33291SOL    HW1 1712  11.027  14.434   4.625
33291SOL    HW2 1713  11.009  14.288   4.588
33292SOL     OW 1714  10.721   2.441   1.053
33292SOL    HW1 1715  10.659   2.467   0.986
33292SOL    HW2 1716  10.684   2.475   1.135
33293SOL     OW 1717   9.971   5.056   6.781
33293SOL    HW1 1718   9.962   4.982   6.840
33293SOL    HW2 1719   9.952   5.020   6.694
33294SOL     OW 1720   4.759  11.272   9.346
33294SOL    HW1 1721   4.724  11.357   9.320
33294SOL    HW2 1722   4.731  11.261   9.437
33295SOL     OW 1723   0.488   8.388   8.260
33295SOL    HW1 1724   0.551   8.458   8.274
33295SOL    HW2 1725   0.531   8.329   8.198
33296SOL     OW 1726  14.729   1.951  13.438
33296SOL    HW1 1727  14.650   1.966  13.491
33296SOL    HW2 1728  14.704   1.881  13.377
33297SOL     OW 1729  12.348   7.720   2.507
33297SOL    HW1 1730  12.253   7.734   2.501
33297SOL    HW2 1731  12.386   7.789   2.453
33298SOL     OW 1732   6.474  12.933   2.090
33298SOL    HW1 1733   6.456  12.982   2.009
33298SOL    HW2 1734   6.401  12.956   2.148
33299SOL     OW 1735  10.011  13.218   0.353
33299SOL    HW1 1736   9.959  13.150   0.396
33299SOL    HW2 1737  10.096  13.215   0.398
33300SOL     OW 1738   2.800  10.490  13.102
33300SOL    HW1 1739   2.726  10.448  13.147
33300SOL    HW2 1740   2.866  10.501  13.171
33301SOL     OW 1741   7.803  10.785   8.499
33301SOL    HW1 1742   7.860  10.806   8.424
33301SOL    HW2 1743   7.827  10.849   8.566
33302SOL     OW 1744   1.112   2.189   5.077
33302SOL    HW1 1745   1.022   2.206   5.049
33302SOL    HW2 1746   1.103   2.152   5.165
33303SOL     OW 1747   5.401   2.228   0.201
33303SOL    HW1 1748   5.416   2.172   0.277
33303SOL    HW2 1749   5.375   2.168   0.131
33304SOL     OW 1750  12.059   8.757   7.553
33304SOL    HW1 1751  12.015   8.839   7.575
33304SOL    HW2 1752  12.047   8.702   7.631
33305SOL     OW 1753  11.696   8.549   9.737
33305SOL    HW1 1754  11.601   8.537   9.742
33305SOL    HW2 1755  11.721   8.506   9.654
33306SOL     OW 1756  14.220  11.307   2.096
33306SOL    HW1 1757  14.172  11.385   2.066
33306SOL    HW2 1758  14.296  11.302   2.038
33307SOL     OW 1759   8.307   7.629   4.303
33307SOL    HW1 1760   8.336   7.538   4.299
33307SOL    HW2 1761   8.308   7.651   4.396
33308SOL     OW 1762   1.694   0.649  12.466
33308SOL    HW1 1763   1.729   0.676  12.551
33308SOL    HW2 1764   1.772   0.633  12.412
33309SOL     OW 1765   7.070   0.306  13.563
33309SOL    HW1 1766   7.059   0.258  13.645
33309SOL    HW2 1767   6.991   0.287  13.513
33310SOL     OW 1768  14.802   1.834  12.111
33310SOL    HW1 1769  14.762   1.920  12.125
33310SOL    HW2 1770  14.729   1.779  12.083
33311SOL     OW 1771  10.605  10.238  10.084
33311SOL    HW1 1772  10.668  10.295  10.128
33311SOL    HW2 1773  10.521  10.259  10.125
33312SOL     OW 1774  11.656   8.593  10.183
33312SOL    HW1 1775  11.703   8.525  10.231
33312SOL    HW2 1776  11.670   8.673  10.234
33313SOL     OW 1777   5.971   5.195   3.635
33313SOL    HW1 1778   6.038   5.149   3.686
33313SOL    HW2 1779   5.983   5.163   3.546
33314SOL     OW 1780   1.557   8.415  10.553
33314SOL    HW1 1781   1.609   8.337  10.577
33314SOL    HW2 1782   1.466   8.385  10.558
33315SOL     OW 1783   2.186   0.919   8.608
33315SOL    HW1 1784   2.128   0.995   8.606
33315SOL    HW2 1785   2.182   0.887   8.697
33316SOL     OW 1786   7.246  11.832   1.052
33316SOL    HW1 1787   7.317  11.852   0.991
33316SOL    HW2 1788   7.169  11.818   0.996
33317SOL     OW 1789   7.725  12.066   1.102
33317SOL    HW1 1790   7.643  12.107   1.077
33317SOL    HW2 1791   7.765  12.128   1.164
33318SOL     OW 1792   9.520  14.068   6.622
33318SOL    HW1 1793   9.437  14.116   6.613
33318SOL    HW2 1794   9.497  13.994   6.678
33319SOL     OW 1795   0.401  13.778   8.308
33319SOL    HW1 1796   0.342  13.702   8.305
33319SOL    HW2 1797   0.346  13.849   8.341
33320SOL     OW 1798   0.286   0.985  13.871
33320SOL    HW1 1799   0.331   0.994  13.955
33320SOL    HW2 1800   0.349   1.018  13.807
33321SOL     OW 1801   6.877  11.780   2.179
33321SOL    HW1 1802   6.932  11.858   2.171
33321SOL    HW2 1803   6.815  11.800   2.249
33322SOL     OW 1804   3.072   6.400   0.709
33322SOL    HW1 1805   3.014   6.412   0.634
33322SOL    HW2 1806   3.020   6.349   0.771
33323SOL     OW 1807  11.559   6.548   4.704
33323SOL    HW1 1808  11.646   6.536   4.665
33323SOL    HW2 1809  11.501   6.561   4.629
33324SOL     OW 1810  12.616   5.569   6.415
33324SOL    HW1 1811  12.603   5.485   6.459
33324SOL    HW2 1812  12.690   5.609   6.460
33325SOL     OW 1813   9.882   8.972  10.498
33325SOL    HW1 1814   9.824   8.941  10.429
33325SOL    HW2 1815   9.967   8.982  10.455
33326SOL     OW 1816   6.092  12.436   9.468
33326SOL    HW1 1817   6.168  12.428   9.526
33326SOL    HW2 1818   6.055  12.522   9.488
33327SOL     OW 1819  12.711  10.745   4.731
33327SOL    HW1 1820  12.806  10.753   4.725
33327SOL    HW2 1821  12.696  10.678   4.798
33328SOL     OW 1822   9.478   9.386  12.751
33328SOL    HW1 1823   9.528   9.422  12.824
33328SOL    HW2 1824   9.393   9.431  12.755
33329SOL     OW 1825   6.160   9.199   4.083
33329SOL    HW1 1826   6.211   9.190   4.164
33329SOL    HW2 1827   6.194   9.279   4.043
33330SOL     OW 1828  10.190  14.212   1.294
33330SOL    HW1 1829  10.240  14.271   1.350
33330SOL    HW2 1830  10.255  14.150   1.261
33331SOL     OW 1831  12.067   6.482   5.115
33331SOL    HW1 1832  12.157   6.513   5.108
33331SOL    HW2 1833  12.053   6.473   5.210
33332SOL     OW 1834   5.487   1.202   5.009
33332SOL    HW1 1835   5.569   1.243   5.039
33332SOL    HW2 1836   5.505   1.176   4.919
33333SOL     OW 1837  14.549   2.658   6.490
33333SOL    HW1 1838  14.455   2.674   6.491
33333SOL    HW2 1839  14.560   2.578   6.438
33334SOL     OW 1840   4.056   1.959  10.806
33334SOL    HW1 1841   4.124   1.892  10.800
33334SOL    HW2 1842   4.058   1.988  10.898
33335SOL     OW 1843   7.954   9.749  12.072
33335SOL    HW1 1844   7.906   9.680  12.026
33335SOL    HW2 1845   7.923   9.744  12.162
33336SOL     OW 1846  12.109  14.252   3.000
33336SOL    HW1 1847  12.100  14.331   2.948
33336SOL    HW2 1848  12.065  14.184   2.948
33337SOL     OW 1849   0.667  10.150   5.482
33337SOL    HW1 1850   0.662  10.058   5.456
33337SOL    HW2 1851   0.730  10.189   5.422
33338SOL     OW 1852   7.614   4.718   3.289
33338SOL    HW1 1853   7.539   4.720   3.229
33338SOL    HW2 1854   7.647   4.808   3.288
33339SOL     OW 1855   7.118   0.363   9.892
33339SOL    HW1 1856   7.143   0.454   9.873
33339SOL    HW2 1857   7.098   0.326   9.806
33340SOL     OW 1858   8.111   6.621   6.208
33340SOL    HW1 1859   8.059   6.645   6.132
33340SOL    HW2 1860   8.170   6.696   6.221
33341SOL     OW 1861   9.987   4.976   8.113
33341SOL    HW1 1862  10.043   4.936   8.179
33341SOL    HW2 1863  10.018   4.940   8.029
33342SOL     OW 1864   5.664  14.155  10.760
33342SOL    HW1 1865   5.664  14.102  10.680
33342SOL    HW2 1866   5.571  14.172  10.778
33343SOL     OW 1867  14.595   7.410   4.615
33343SOL    HW1 1868  14.677   7.367   4.593
33343SOL    HW2 1869  14.611   7.450   4.700
33344SOL     OW 1870   1.371  10.081   5.687
33344SOL    HW1 1871   1.415  10.165   5.704
33344SOL    HW2 1872   1.286  10.089   5.730
33345SOL     OW 1873   3.412   9.029  12.184
33345SOL    HW1 1874   3.482   9.022  12.119
33345SOL    HW2 1875   3.372   9.115  12.167
33346SOL     OW 1876   1.420  12.947   9.256
33346SOL    HW1 1877   1.509  12.982   9.254
33346SOL    HW2 1878   1.401  12.924   9.164
33347SOL     OW 1879  13.480   5.270   0.803
33347SOL    HW1 1880  13.532   5.285   0.724
33347SOL    HW2 1881  13.484   5.175   0.817
33348SOL     OW 1882   6.384   8.642  12.301
33348SOL    HW1 1883   6.455   8.610  12.356
33348SOL    HW2 1884   6.418   8.633  12.212
33349SOL     OW 1885   9.980   2.480   0.002
33349SOL    HW1 1886  10.059   2.515  14.835
33349SOL    HW2 1887   9.982   2.514   0.091
33350SOL     OW 1888   2.705   4.770   7.173
33350SOL    HW1 1889   2.755   4.812   7.243
33350SOL    HW2 1890   2.764   4.703   7.137
33351SOL     OW 1891  14.429  11.177   8.837
33351SOL    HW1 1892  14.391  11.186   8.749
33351SOL    HW2 1893  14.355  11.193   8.896
33352SOL     OW 1894  11.375   7.388   5.882
33352SOL    HW1 1895  11.453   7.407   5.829
33352SOL    HW2 1896  11.409   7.349   5.962
33353SOL     OW 1897   0.455   7.965   7.272
33353SOL    HW1 1898   0.539   8.011   7.278
33353SOL    HW2 1899   0.406   8.013   7.205
33354SOL     OW 1900   4.797   8.078   9.942
33354SOL    HW1 1901   4.730   8.109  10.003
33354SOL    HW2 1902   4.752   8.015   9.886
33355SOL     OW 1903   1.996   9.317  13.856
33355SOL    HW1 1904   1.906   9.289  13.837
33355SOL    HW2 1905   2.000   9.407  13.824
33356SOL     OW 1906   6.711   9.531  10.436
33356SOL    HW1 1907   6.647   9.508  10.368
33356SOL    HW2 1908   6.785   9.567  10.387
33357SOL     OW 1909   1.414   2.653   6.249
33357SOL    HW1 1910   1.490   2.625   6.300
33357SOL    HW2 1911   1.342   2.601   6.284
33358SOL     OW 1912   0.914  12.112  11.850
33358SOL    HW1 1913   0.868  12.118  11.934
33358SOL    HW2 1914   0.948  12.023  11.847
33359SOL     OW 1915   0.453  11.939   3.712
33359SOL    HW1 1916   0.511  12.015   3.704
33359SOL    HW2 1917   0.428  11.938   3.805
33360SOL     OW 1918  14.581   7.532  14.723
33360SOL    HW1 1919  14.629   7.604  14.684
33360SOL    HW2 1920  14.649   7.474  14.758
33361SOL     OW 1921   5.575  13.859   7.926
33361SOL    HW1 1922   5.556  13.869   7.833
33361SOL    HW2 1923   5.670  13.864   7.932
33362SOL     OW 1924  13.875   0.614   3.017
33362SOL    HW1 1925  13.924   0.665   3.081
33362SOL    HW2 1926  13.784   0.645   3.026
33363SOL     OW 1927   3.948   3.474   6.299
33363SOL    HW1 1928   3.931   3.437   6.212
33363SOL    HW2 1929   4.041   3.495   6.298
33364SOL     OW 1930  12.488  12.795   7.200
33364SOL    HW1 1931  12.551  12.867   7.195
33364SOL    HW2 1932  12.520  12.732   7.135
33365SOL     OW 1933  13.804   3.567   1.976
33365SOL    HW1 1934  13.736   3.598   2.036
33365SOL    HW2 1935  13.767   3.580   1.889
33366SOL     OW 1936  10.325  10.687   8.385
33366SOL    HW1 1937  10.384  10.750   8.426
33366SOL    HW2 1938  10.379  10.640   8.323
33367SOL     OW 1939   3.897  11.782   8.111
33367SOL    HW1 1940   3.900  11.704   8.056
33367SOL    HW2 1941   3.890  11.749   8.201
33368SOL     OW 1942  10.147   0.915   1.827
33368SOL    HW1 1943  10.151   0.885   1.736
33368SOL    HW2 1944  10.054   0.915   1.848
33369SOL     OW 1945   8.139  13.722   6.797
33369SOL    HW1 1946   8.168  13.807   6.832
33369SOL    HW2 1947   8.118  13.741   6.705
33370SOL     OW 1948  10.534  14.282  12.859
33370SOL    HW1 1949  10.502  14.355  12.807
33370SOL    HW2 1950  10.588  14.322  12.927
33371SOL     OW 1951   0.493   0.144   0.218
33371SOL    HW1 1952   0.408   0.146   0.174
33371SOL    HW2 1953   0.535   0.064   0.184
33372SOL     OW 1954  10.567   8.424  10.496
33372SOL    HW1 1955  10.523   8.426  10.581
33372SOL    HW2 1956  10.634   8.492  10.502
33373SOL     OW 1957   6.901  14.434   6.705
33373SOL    HW1 1958   6.827  14.385   6.668
33373SOL    HW2 1959   6.899  14.413   6.798
33374SOL     OW 1960  13.265   2.006   9.321
33374SOL    HW1 1961  13.220   2.088   9.299
33374SOL    HW2 1962  13.241   1.990   9.412
33375SOL     OW 1963   9.477   6.575   9.035
33375SOL    HW1 1964   9.570   6.562   9.012
33375SOL    HW2 1965   9.444   6.630   8.964
33376SOL     OW 1966   9.630   5.262   3.420
33376SOL    HW1 1967   9.601   5.265   3.511
33376SOL    HW2 1968   9.559   5.301   3.371
33377SOL     OW 1969   3.679   0.447   7.739
33377SOL    HW1 1970   3.771   0.432   7.764
33377SOL    HW2 1971   3.642   0.359   7.735
33378SOL     OW 1972   2.866  10.498   5.770
33378SOL    HW1 1973   2.805  10.439   5.813
33378SOL    HW2 1974   2.915  10.441   5.710
33379SOL     OW 1975  14.555   3.875  10.361
33379SOL    HW1 1976  14.488   3.850  10.425
33379SOL    HW2 1977  14.537   3.967  10.342
33380SOL     OW 1978   3.209   4.447  14.531
33380SOL    HW1 1979   3.244   4.419  14.447
33380SOL    HW2 1980   3.115   4.460  14.515
33381SOL     OW 1981   6.109  11.961  13.390
33381SOL    HW1 1982   6.136  11.871  13.372
33381SOL    HW2 1983   6.189  12.013  13.378
33382SOL     OW 1984   3.581   8.666   7.075
33382SOL    HW1 1985   3.651   8.641   7.135
33382SOL    HW2 1986   3.590   8.607   7.001
33383SOL     OW 1987  10.360   3.137  13.301
33383SOL    HW1 1988  10.328   3.213  13.350
33383SOL    HW2 1989  10.367   3.168  13.210
33384SOL     OW 1990  12.075   7.573   2.709
33384SOL    HW1 1991  12.095   7.649   2.653
33384SOL    HW2 1992  12.065   7.610   2.796
33385SOL     OW 1993  10.932   5.638  13.192
33385SOL    HW1 1994  10.902   5.723  13.159
33385SOL    HW2 1995  10.923   5.579  13.117
33386SOL     OW 1996  12.924  10.315  14.116
33386SOL    HW1 1997  12.962  10.357  14.038
33386SOL    HW2 1998  12.901  10.227  14.087
33387SOL     OW 1999   6.355   3.414   6.319
33387SOL    HW1 2000   6.348   3.379   6.230
33387SOL    HW2 2001   6.376   3.507   6.306
33388SOL     OW 2002   0.003  14.508   0.359
33388SOL    HW1 2003  14.814  14.446   0.323
33388SOL    HW2 2004  14.864  14.588   0.309
33389SOL     OW 2005  14.259   7.416   2.469
33389SOL    HW1 2006  14.174   7.442   2.503
33389SOL    HW2 2007  14.240   7.376   2.385
33390SOL     OW 2008   0.741  11.791   6.717
33390SOL    HW1 2009   0.669  11.760   6.771
33390SOL    HW2 2010   0.783  11.711   6.684
33391SOL     OW 2011   0.244   6.552  13.687
33391SOL    HW1 2012   0.263   6.542  13.781
33391SOL    HW2 2013   0.311   6.612  13.655
33392SOL     OW 2014   6.068   8.418   8.152
33392SOL    HW1 2015   6.009   8.352   8.116
33392SOL    HW2 2016   6.079   8.393   8.244
33393SOL     OW 2017  10.847  14.623   8.679
33393SOL    HW1 2018  10.892  14.683   8.739
33393SOL    HW2 2019  10.917  14.567   8.646
33394SOL     OW 2020  11.653  13.052   6.066
33394SOL    HW1 2021  11.573  13.075   6.018
33394SOL    HW2 2022  11.667  12.960   6.047
33395SOL     OW 2023  12.062   7.641   9.252
33395SOL    HW1 2024  12.012   7.656   9.332
33395SOL    HW2 2025  12.056   7.723   9.204
33396SOL     OW 2026  10.406   5.767   7.284
33396SOL    HW1 2027  10.475   5.721   7.237
33396SOL    HW2 2028  10.392   5.848   7.234
33397SOL     OW 2029   0.893   6.574   8.720
33397SOL    HW1 2030   0.870   6.600   8.631
33397SOL    HW2 2031   0.842   6.495   8.736
33398SOL     OW 2032   8.885   1.059   5.349
33398SOL    HW1 2033   8.892   1.154   5.351
33398SOL    HW2 2034   8.961   1.029   5.399
33399SOL     OW 2035   1.513   0.212  14.306
33399SOL    HW1 2036   1.501   0.118  14.324
33399SOL    HW2 2037   1.597   0.233  14.346
33400SOL     OW 2038   8.128   1.272  11.104
33400SOL    HW1 2039   8.055   1.301  11.157
33400SOL    HW2 2040   8.177   1.351  11.084
33401SOL     OW 2041  11.917   7.506   7.111
33401SOL    HW1 2042  11.940   7.531   7.022
33401SOL    HW2 2043  11.826   7.535   7.121
33402SOL     OW 2044  14.429   2.534  12.042
33402SOL    HW1 2045  14.505   2.590  12.026
33402SOL    HW2 2046  14.460   2.472  12.109
33403SOL     OW 2047   0.508   3.680  14.326
33403SOL    HW1 2048   0.493   3.619  14.398
33403SOL    HW2 2049   0.601   3.702  14.332
33404SOL     OW 2050   4.481  13.917  11.213
33404SOL    HW1 2051   4.427  13.854  11.261
33404SOL    HW2 2052   4.538  13.955  11.280
33405SOL     OW 2053   2.008  14.639   2.622
33405SOL    HW1 2054   2.036  14.642   2.530
33405SOL    HW2 2055   2.016  14.547   2.646
33406SOL     OW 2056   8.041   1.928  11.261
33406SOL    HW1 2057   7.980   1.912  11.190
33406SOL    HW2 2058   7.991   1.912  11.341
33407SOL     OW 2059  12.945   2.676   7.624
33407SOL    HW1 2060  12.861   2.649   7.588
33407SOL    HW2 2061  13.005   2.675   7.550
33408SOL     OW 2062   8.981   5.799  10.033
33408SOL    HW1 2063   8.924   5.808  10.109
33408SOL    HW2 2064   9.062   5.762  10.068
33409SOL     OW 2065   4.568   6.571  10.495
33409SOL    HW1 2066   4.564   6.503  10.562
33409SOL    HW2 2067   4.653   6.557  10.452
33410SOL     OW 2068   4.672  14.144  12.530
33410SOL    HW1 2069   4.667  14.226  12.578
33410SOL    HW2 2070   4.763  14.138  12.502
33411SOL     OW 2071  13.613   7.189  13.094
33411SOL    HW1 2072  13.636   7.242  13.170
33411SOL    HW2 2073  13.533   7.229  13.061
33412SOL     OW 2074   0.310  11.729  14.776
33412SOL    HW1 2075   0.380  11.736  14.712
33412SOL    HW2 2076   0.286  11.636  14.775
33413SOL     OW 2077   3.942   8.264   3.997
33413SOL    HW1 2078   4.030   8.288   4.027
33413SOL    HW2 2079   3.917   8.190   4.053
33414SOL     OW 2080   5.667   7.966  14.306
33414SOL    HW1 2081   5.712   8.007  14.232
33414SOL    HW2 2082   5.613   7.898  14.266
33415SOL     OW 2083   5.605  14.702  14.477
33415SOL    HW1 2084   5.689  14.683  14.434
33415SOL    HW2 2085   5.625  14.776  14.535
33416SOL     OW 2086   9.993  11.298   9.776
33416SOL    HW1 2087   9.918  11.307   9.835
33416SOL    HW2 2088   9.961  11.243   9.705
33417SOL     OW 2089  10.483  12.723  14.786
33417SOL    HW1 2090  10.549  12.716  14.855
33417SOL    HW2 2091  10.399  12.716  14.832
33418SOL     OW 2092   1.612   5.014  12.763
33418SOL    HW1 2093   1.567   5.008  12.678
33418SOL    HW2 2094   1.592   5.102  12.794
33419SOL     OW 2095   8.256   9.833  14.452
33419SOL    HW1 2096   8.232   9.843  14.360
33419SOL    HW2 2097   8.174   9.811  14.496
33420SOL     OW 2098   1.697   2.368  13.954
33420SOL    HW1 2099   1.601   2.376  13.947
33420SOL    HW2 2100   1.721   2.433  14.020
33421SOL     OW 2101  11.764   0.652  13.537
33421SOL    HW1 2102  11.782   0.732  13.488
33421SOL    HW2 2103  11.781   0.675  13.628
33422SOL     OW 2104   1.931   4.580  12.754
33422SOL    HW1 2105   1.952   4.555  12.664
33422SOL    HW2 2106   1.953   4.673  12.759
33423SOL     OW 2107   3.019  11.818   0.536
33423SOL    HW1 2108   2.992  11.739   0.488
33423SOL    HW2 2109   3.037  11.882   0.467
33424SOL     OW 2110   1.191   9.199  14.245
33424SOL    HW1 2111   1.120   9.136  14.259
33424SOL    HW2 2112   1.270   9.146  14.243
33425SOL     OW 2113  10.343   7.829   2.083
33425SOL    HW1 2114  10.258   7.868   2.065
33425SOL    HW2 2115  10.324   7.737   2.101
33426SOL     OW 2116   1.349   9.467  14.063
33426SOL    HW1 2117   1.344   9.441  14.155
33426SOL    HW2 2118   1.258   9.471  14.034
33427SOL     OW 2119   7.953  12.365  10.900
33427SOL    HW1 2120   8.031  12.346  10.953
33427SOL    HW2 2121   7.923  12.280  10.868
33428SOL     OW 2122  12.247   4.712  10.485
33428SOL    HW1 2123  12.322   4.768  10.465
33428SOL    HW2 2124  12.183   4.734  10.417
33429SOL     OW 2125   2.543   8.270   8.912
33429SOL    HW1 2126   2.629   8.309   8.898
33429SOL    HW2 2127   2.498   8.282   8.828
33430SOL     OW 2128   7.619   1.426   1.791
33430SOL    HW1 2129   7.613   1.509   1.838
33430SOL    HW2 2130   7.662   1.367   1.853
33431SOL     OW 2131   1.366   6.494   3.580
33431SOL    HW1 2132   1.343   6.411   3.621
33431SOL    HW2 2133   1.424   6.469   3.508
33432SOL     OW 2134   5.279  12.611   4.763
33432SOL    HW1 2135   5.373  12.624   4.768
33432SOL    HW2 2136   5.241  12.695   4.789
33433SOL     OW 2137   6.318   9.931   2.468
33433SOL    HW1 2138   6.265   9.883   2.532
33433SOL    HW2 2139   6.407   9.928   2.503
33434SOL     OW 2140  11.534   5.987   0.431
33434SOL    HW1 2141  11.538   5.993   0.335
33434SOL    HW2 2142  11.465   5.922   0.448
33435SOL     OW 2143  14.611   0.384   3.981
33435SOL    HW1 2144  14.654   0.436   3.913
33435SOL    HW2 2145  14.608   0.443   4.056
33436SOL     OW 2146  12.717  10.529   4.073
33436SOL    HW1 2147  12.755  10.447   4.039
33436SOL    HW2 2148  12.681  10.505   4.158
33437SOL     OW 2149   9.796   9.655   6.614
33437SOL    HW1 2150   9.809   9.612   6.529
33437SOL    HW2 2151   9.701   9.657   6.625
33438SOL     OW 2152   8.867  11.064   0.729
33438SOL    HW1 2153   8.880  10.970   0.746
33438SOL    HW2 2154   8.912  11.108   0.801
33439SOL     OW 2155   1.370  14.338   7.159
33439SOL    HW1 2156   1.278  14.365   7.162
33439SOL    HW2 2157   1.397  14.355   7.069
33440SOL     OW 2158   8.026  11.394   3.268
33440SOL    HW1 2159   8.079  11.435   3.336
33440SOL    HW2 2160   7.983  11.467   3.223
33441SOL     OW 2161   7.059   8.449   6.803
33441SOL    HW1 2162   7.060   8.354   6.813
33441SOL    HW2 2163   7.016   8.463   6.719
33442SOL     OW 2164   0.621   4.977   8.882
33442SOL    HW1 2165   0.573   4.984   8.964
33442SOL    HW2 2166   0.558   4.943   8.819
33443SOL     OW 2167  11.800   3.723  12.547
33443SOL    HW1 2168  11.726   3.677  12.508
33443SOL    HW2 2169  11.831   3.663  12.615
33444SOL     OW 2170   7.716  11.940  10.703
33444SOL    HW1 2171   7.620  11.939  10.697
33444SOL    HW2 2172   7.735  11.887  10.780
33445SOL     OW 2173   6.662   9.417  13.531
33445SOL    HW1 2174   6.575   9.444  13.559
33445SOL    HW2 2175   6.717   9.429  13.609
33446SOL     OW 2176  10.078   0.740   1.307
33446SOL    HW1 2177  10.101   0.674   1.373
33446SOL    HW2 2178  10.120   0.710   1.227
33447SOL     OW 2179   4.483   0.315  14.028
33447SOL    HW1 2180   4.449   0.263  13.955
33447SOL    HW2 2181   4.457   0.266  14.106
33448SOL     OW 2182  11.937   2.559   0.266
33448SOL    HW1 2183  11.987   2.621   0.318
33448SOL    HW2 2184  11.924   2.603   0.182
33449SOL     OW 2185  10.747   5.154   4.302
33449SOL    HW1 2186  10.821   5.112   4.344
33449SOL    HW2 2187  10.723   5.226   4.362
33450SOL     OW 2188   0.099   5.165   0.579
33450SOL    HW1 2189   0.055   5.088   0.545
33450SOL    HW2 2190   0.140   5.206   0.503
33451SOL     OW 2191   6.324   1.670   8.756
33451SOL    HW1 2192   6.359   1.661   8.667
33451SOL    HW2 2193   6.360   1.753   8.787
33452SOL     OW 2194  10.135   4.576   2.696
33452SOL    HW1 2195  10.098   4.490   2.719
33452SOL    HW2 2196  10.175   4.563   2.610
33453SOL     OW 2197  13.553   0.812  10.361
33453SOL    HW1 2198  13.497   0.761  10.303
33453SOL    HW2 2199  13.508   0.811  10.445
33454SOL     OW 2200   2.293   0.711   3.931
33454SOL    HW1 2201   2.314   0.797   3.967
33454SOL    HW2 2202   2.317   0.717   3.839
33455SOL     OW 2203   3.046   5.604   0.058
33455SOL    HW1 2204   3.031   5.683   0.005
33455SOL    HW2 2205   3.031   5.632   0.148
33456SOL     OW 2206   4.028   1.067  11.502
33456SOL    HW1 2207   3.978   1.120  11.564
33456SOL    HW2 2208   4.005   1.102  11.416
33457SOL     OW 2209   2.830  10.972   8.837
33457SOL    HW1 2210   2.769  10.938   8.902
33457SOL    HW2 2211   2.907  10.998   8.888
33458SOL     OW 2212   0.188  11.227   5.702
33458SOL    HW1 2213   0.092  11.233   5.700
33458SOL    HW2 2214   0.218  11.315   5.679
33459SOL     OW 2215   2.737  14.158  11.266
33459SOL    HW1 2216   2.656  14.109  11.278
33459SOL    HW2 2217   2.803  14.092  11.246
33460SOL     OW 2218   8.058   7.585   1.779
33460SOL    HW1 2219   8.051   7.591   1.684
33460SOL    HW2 2220   8.153   7.580   1.795
33461SOL     OW 2221   7.052  14.392   8.160
33461SOL    HW1 2222   7.001  14.466   8.127
33461SOL    HW2 2223   7.014  14.373   8.246
33462SOL     OW 2224   3.056   9.166   8.971
33462SOL    HW1 2225   3.031   9.104   9.040
33462SOL    HW2 2226   3.133   9.126   8.930
33463SOL     OW 2227   6.130   1.615   2.316
33463SOL    HW1 2228   6.076   1.679   2.268
33463SOL    HW2 2229   6.163   1.556   2.249
33464SOL     OW 2230  13.359   4.035   5.148
33464SOL    HW1 2231  13.284   4.085   5.116
33464SOL    HW2 2232  13.419   4.032   5.073
33465SOL     OW 2233  12.595   0.321   1.089
33465SOL    HW1 2234  12.590   0.293   1.180
33465SOL    HW2 2235  12.617   0.414   1.093
33466SOL     OW 2236   1.523   6.963  10.245
33466SOL    HW1 2237   1.615   6.979  10.223
33466SOL    HW2 2238   1.504   7.027  10.314
33467SOL     OW 2239  13.917   2.955   8.157
33467SOL    HW1 2240  13.911   2.876   8.209
33467SOL    HW2 2241  13.934   2.925   8.068
33468SOL     OW 2242   6.635  10.176  13.373
33468SOL    HW1 2243   6.725  10.150  13.359
33468SOL    HW2 2244   6.584  10.116  13.319
33469SOL     OW 2245   9.733   2.663  10.822
33469SOL    HW1 2246   9.701   2.735  10.766
33469SOL    HW2 2247   9.656   2.637  10.872
33470SOL     OW 2248   0.267   6.337   7.390
33470SOL    HW1 2249   0.261   6.432   7.389
33470SOL    HW2 2250   0.248   6.312   7.480
33471SOL     OW 2251  14.025  11.394  10.685
33471SOL    HW1 2252  13.979  11.363  10.763
33471SOL    HW2 2253  14.095  11.331  10.671
33472SOL     OW 2254  13.863  13.753   2.150
33472SOL    HW1 2255  13.888  13.823   2.089
33472SOL    HW2 2256  13.826  13.685   2.094
33473SOL     OW 2257  13.618   9.227   0.749
33473SOL    HW1 2258  13.652   9.147   0.709
33473SOL    HW2 2259  13.587   9.279   0.675
33474SOL     OW 2260   5.534  12.554   0.630
33474SOL    HW1 2261   5.518  12.592   0.544
33474SOL    HW2 2262   5.608  12.494   0.617
33475SOL     OW 2263   4.913   9.261   0.649
33475SOL    HW1 2264   4.870   9.277   0.564
33475SOL    HW2 2265   5.003   9.237   0.626
33476SOL     OW 2266   8.372   6.639   6.463
33476SOL    HW1 2267   8.416   6.589   6.395
33476SOL    HW2 2268   8.421   6.619   6.543
33477SOL     OW 2269  14.244  11.794   5.564
33477SOL    HW1 2270  14.319  11.734   5.568
33477SOL    HW2 2271  14.252  11.847   5.643
33478SOL     OW 2272  10.019   0.682   9.918
33478SOL    HW1 2273  10.015   0.597   9.873
33478SOL    HW2 2274   9.978   0.666  10.003
33479SOL     OW 2275   0.421   1.706  13.538
33479SOL    HW1 2276   0.370   1.778  13.501
33479SOL    HW2 2277   0.382   1.691  13.624
33480SOL     OW 2278  11.082  11.442   8.380
33480SOL    HW1 2279  11.128  11.370   8.422
33480SOL    HW2 2280  10.994  11.440   8.419
33481SOL     OW 2281   6.501   4.235  14.481
33481SOL    HW1 2282   6.452   4.189  14.549
33481SOL    HW2 2283   6.582   4.262  14.525
33482SOL     OW 2284  12.957   3.665  10.635
33482SOL    HW1 2285  12.874   3.650  10.680
33482SOL    HW2 2286  13.023   3.627  10.693
33483SOL     OW 2287   4.180  14.365   6.841
33483SOL    HW1 2288   4.160  14.442   6.894
33483SOL    HW2 2289   4.124  14.296   6.876
33484SOL     OW 2290   9.459  11.568   2.917
33484SOL    HW1 2291   9.413  11.484   2.919
33484SOL    HW2 2292   9.552  11.544   2.927
33485SOL     OW 2293   6.899   5.014   7.482
33485SOL    HW1 2294   6.889   4.919   7.478
33485SOL    HW2 2295   6.982   5.028   7.528
33486SOL     OW 2296  13.846  12.512   3.731
33486SOL    HW1 2297  13.905  12.440   3.709
33486SOL    HW2 2298  13.765  12.492   3.683
33487SOL     OW 2299  11.383  10.945  11.682
33487SOL    HW1 2300  11.371  10.867  11.628
33487SOL    HW2 2301  11.295  10.972  11.706
33488SOL     OW 2302   3.503   0.364   1.829
33488SOL    HW1 2303   3.535   0.313   1.903
33488SOL    HW2 2304   3.582   0.399   1.788
33489SOL     OW 2305  14.819  13.258  12.586
33489SOL    HW1 2306  14.845  13.326  12.524
33489SOL    HW2 2307  14.874  13.182  12.564
33490SOL     OW 2308  10.888   9.443  14.140
33490SOL    HW1 2309  10.940   9.365  14.123
33490SOL    HW2 2310  10.873   9.482  14.054
33491SOL     OW 2311   1.988   6.454   6.794
33491SOL    HW1 2312   1.942   6.513   6.735
33491SOL    HW2 2313   1.974   6.367   6.756
33492SOL     OW 2314  10.465   4.867   0.726
33492SOL    HW1 2315  10.409   4.902   0.796
33492SOL    HW2 2316  10.448   4.925   0.651
33493SOL     OW 2317   7.176   5.556  12.365
33493SOL    HW1 2318   7.145   5.554  12.455
33493SOL    HW2 2319   7.138   5.478  12.325
33494SOL     OW 2320  14.526  13.267   6.862
33494SOL    HW1 2321  14.489  13.206   6.798
33494SOL    HW2 2322  14.551  13.343   6.811
33495SOL     OW 2323   8.306   5.842   9.914
33495SOL    HW1 2324   8.385   5.794   9.938
33495SOL    HW2 2325   8.253   5.778   9.866
33496SOL     OW 2326   9.441  12.770  11.586
33496SOL    HW1 2327   9.451  12.802  11.496
33496SOL    HW2 2328   9.382  12.833  11.628
33497SOL     OW 2329  13.044  11.248   1.885
33497SOL    HW1 2330  12.988  11.218   1.814
33497SOL    HW2 2331  13.125  11.197   1.874
33498SOL     OW 2332   9.131  10.174   9.547
33498SOL    HW1 2333   9.131  10.096   9.602
33498SOL    HW2 2334   9.089  10.146   9.466
33499SOL     OW 2335  11.627   9.552   2.541
33499SOL    HW1 2336  11.564   9.602   2.490
33499SOL    HW2 2337  11.581   9.531   2.622
33500SOL     OW 2338   7.749   3.383  11.021
33500SOL    HW1 2339   7.814   3.318  11.049
33500SOL    HW2 2340   7.729   3.359  10.930
33501SOL     OW 2341  13.813   9.585   1.691
33501SOL    HW1 2342  13.727   9.618   1.716
33501SOL    HW2 2343  13.798   9.493   1.669
33502SOL     OW 2344   3.464   5.571   5.869
33502SOL    HW1 2345   3.549   5.599   5.834
33502SOL    HW2 2346   3.401   5.596   5.802
33503SOL     OW 2347   4.933  13.582   5.704
33503SOL    HW1 2348   4.886  13.567   5.786
33503SOL    HW2 2349   4.929  13.498   5.659
33504SOL     OW 2350   5.971   3.976  11.310
33504SOL    HW1 2351   6.056   3.934  11.295
33504SOL    HW2 2352   5.922   3.961  11.229
33505SOL     OW 2353  12.596   4.818   6.460
33505SOL    HW1 2354  12.611   4.871   6.538
33505SOL    HW2 2355  12.593   4.728   6.493
33506SOL     OW 2356   4.449  11.964   1.719
33506SOL    HW1 2357   4.451  12.059   1.729
33506SOL    HW2 2358   4.466  11.949   1.626
33507SOL     OW 2359   7.042   6.318   4.143
33507SOL    HW1 2360   7.019   6.404   4.179
33507SOL    HW2 2361   7.137   6.313   4.153
33508SOL     OW 2362   8.255  14.044   1.860
33508SOL    HW1 2363   8.189  13.975   1.856
33508SOL    HW2 2364   8.208  14.124   1.837
33509SOL     OW 2365   0.145   9.604   5.272
33509SOL    HW1 2366   0.109   9.607   5.360
33509SOL    HW2 2367   0.086   9.546   5.223
33510SOL     OW 2368   2.111  13.363  12.771
33510SOL    HW1 2369   2.041  13.299  12.784
33510SOL    HW2 2370   2.090  13.404  12.687
33511SOL     OW 2371  11.496  12.077  14.210
33511SOL    HW1 2372  11.475  12.114  14.296
33511SOL    HW2 2373  11.430  12.116  14.151
33512SOL     OW 2374   5.548   2.701  14.359
33512SOL    HW1 2375   5.600   2.626  14.329
33512SOL    HW2 2376   5.504   2.732  14.279
33513SOL     OW 2377   9.881  14.205   5.576
33513SOL    HW1 2378   9.823  14.223   5.650
33513SOL    HW2 2379   9.822  14.175   5.506
33514SOL     OW 2380   2.583   7.839   2.175
33514SOL    HW1 2381   2.639   7.838   2.253
33514SOL    HW2 2382   2.536   7.923   2.180
33515SOL     OW 2383   1.752   5.635   0.392
33515SOL    HW1 2384   1.690   5.649   0.463
33515SOL    HW2 2385   1.837   5.626   0.436
33516SOL     OW 2386  12.908   8.740  14.353
33516SOL    HW1 2387  12.999   8.759  14.378
33516SOL    HW2 2388  12.857   8.813  14.387
33517SOL     OW 2389   7.671  11.579  11.910
33517SOL    HW1 2390   7.629  11.511  11.962
33517SOL    HW2 2391   7.653  11.661  11.956
33518SOL     OW 2392   4.320  14.131   5.212
33518SOL    HW1 2393   4.247  14.073   5.236
33518SOL    HW2 2394   4.394  14.098   5.263
33519SOL     OW 2395  14.574   4.395   9.025
33519SOL    HW1 2396  14.572   4.359   9.114
33519SOL    HW2 2397  14.520   4.335   8.973
33520SOL     OW 2398   5.743   7.472  10.778
33520SOL    HW1 2399   5.777   7.425  10.855
33520SOL    HW2 2400   5.769   7.418  10.704
33521SOL     OW 2401  11.740   8.999   6.153
33521SOL    HW1 2402  11.663   8.983   6.099
33521SOL    HW2 2403  11.705   9.041   6.232
33522SOL     OW 2404   7.067   7.513  13.649
33522SOL    HW1 2405   7.092   7.528  13.558
33522SOL    HW2 2406   7.088   7.421  13.666
33523SOL     OW 2407   7.995   1.822   9.297
33523SOL    HW1 2408   7.999   1.833   9.392
33523SOL    HW2 2409   8.004   1.728   9.283
33524SOL     OW 2410  10.751   1.400  13.548
33524SOL    HW1 2411  10.724   1.459  13.477
33524SOL    HW2 2412  10.771   1.458  13.621
33525SOL     OW 2413   1.544  11.725  11.383
33525SOL    HW1 2414   1.616  11.678  11.342
33525SOL    HW2 2415   1.583  11.766  11.460
33526SOL     OW 2416  11.134  13.663   0.194
33526SOL    HW1 2417  11.046  13.636   0.221
33526SOL    HW2 2418  11.126  13.679   0.100
33527SOL     OW 2419   1.180  11.092   1.396
33527SOL    HW1 2420   1.274  11.099   1.414
33527SOL    HW2 2421   1.153  11.011   1.441
33528SOL     OW 2422  12.171   7.986   2.630
33528SOL    HW1 2423  12.162   8.063   2.573
33528SOL    HW2 2424  12.175   8.022   2.718
33529SOL     OW 2425  10.297   3.643  10.141
33529SOL    HW1 2426  10.392   3.648  10.140
33529SOL    HW2 2427  10.268   3.728  10.175
33530SOL     OW 2428  11.908   2.792  14.596
33530SOL    HW1 2429  11.857   2.872  14.607
33530SOL    HW2 2430  11.998   2.823  14.583
33531SOL     OW 2431   0.723  11.432   4.045
33531SOL    HW1 2432   0.771  11.413   3.964
33531SOL    HW2 2433   0.634  11.402   4.027
33532SOL     OW 2434   2.716  11.814   7.430
33532SOL    HW1 2435   2.696  11.723   7.455
33532SOL    HW2 2436   2.700  11.817   7.336
33533SOL     OW 2437   1.362  11.494   2.334
33533SOL    HW1 2438   1.433  11.548   2.368
33533SOL    HW2 2439   1.353  11.423   2.398
33534SOL     OW 2440  10.034   6.829   6.166
33534SOL    HW1 2441   9.999   6.917   6.182
33534SOL    HW2 2442   9.966   6.785   6.115
33535SOL     OW 2443  10.890   6.748   5.774
33535SOL    HW1 2444  10.923   6.710   5.855
33535SOL    HW2 2445  10.801   6.714   5.766
33536SOL     OW 2446   4.870   6.711   8.459
33536SOL    HW1 2447   4.796   6.760   8.495
33536SOL    HW2 2448   4.831   6.633   8.419
33537SOL     OW 2449   2.048   6.408   4.235
33537SOL    HW1 2450   2.028   6.502   4.232
33537SOL    HW2 2451   2.024   6.381   4.323
33538SOL     OW 2452   4.542   9.492  11.431
33538SOL    HW1 2453   4.584   9.515  11.514
33538SOL    HW2 2454   4.449   9.485  11.451
33539SOL     OW 2455   4.357  14.235   6.648
33539SOL    HW1 2456   4.429  14.298   6.646
33539SOL    HW2 2457   4.294  14.273   6.709
33540SOL     OW 2458   0.968   0.174  12.972
33540SOL    HW1 2459   0.998   0.194  12.883
33540SOL    HW2 2460   0.907   0.245  12.993
33541SOL     OW 2461   9.441   6.616   2.366
33541SOL    HW1 2462   9.355   6.599   2.404
33541SOL    HW2 2463   9.486   6.532   2.368
33542SOL     OW 2464   1.615   0.212  10.258
33542SOL    HW1 2465   1.556   0.171  10.322
33542SOL    HW2 2466   1.665   0.276  10.309
33543SOL     OW 2467  11.010   4.014  10.572
33543SOL    HW1 2468  11.086   4.060  10.538
33543SOL    HW2 2469  11.028   4.002  10.665
33544SOL     OW 2470   9.679  14.120   6.406
33544SOL    HW1 2471   9.768  14.111   6.439
33544SOL    HW2 2472   9.623  14.098   6.480
33545SOL     OW 2473  11.482   2.745   7.573
33545SOL    HW1 2474  11.507   2.724   7.483
33545SOL    HW2 2475  11.388   2.725   7.577
33546SOL     OW 2476  10.487  12.337  12.585
33546SOL    HW1 2477  10.544  12.303  12.655
33546SOL    HW2 2478  10.439  12.260  12.554
33547SOL     OW 2479   0.862  12.725  10.201
33547SOL    HW1 2480   0.945  12.750  10.242
33547SOL    HW2 2481   0.867  12.761  10.113
33548SOL     OW 2482   5.002   9.199  12.943
33548SOL    HW1 2483   5.032   9.202  12.852
33548SOL    HW2 2484   4.982   9.106  12.958
33549SOL     OW 2485   9.707  10.027   3.689
33549SOL    HW1 2486   9.690  10.086   3.763
33549SOL    HW2 2487   9.799  10.003   3.698
33550SOL     OW 2488  14.493   3.668   1.615
33550SOL    HW1 2489  14.559   3.735   1.635
33550SOL    HW2 2490  14.544   3.592   1.585
33551SOL     OW 2491  14.579   5.100   9.165
33551SOL    HW1 2492  14.635   5.162   9.213
33551SOL    HW2 2493  14.637   5.057   9.103
33552SOL     OW 2494   3.355  10.398   4.543
33552SOL    HW1 2495   3.309  10.396   4.459
33552SOL    HW2 2496   3.399  10.313   4.548
33553SOL     OW 2497   0.183   1.368  10.638
33553SOL    HW1 2498   0.253   1.431  10.656
33553SOL    HW2 2499   0.200   1.337  10.549
33554SOL     OW 2500   2.775   9.880   5.778
33554SOL    HW1 2501   2.756   9.899   5.870
33554SOL    HW2 2502   2.697   9.835   5.747
33555SOL     OW 2503  12.186  10.594   0.308
33555SOL    HW1 2504  12.107  10.647   0.326
33555SOL    HW2 2505  12.163  10.506   0.338
33556SOL     OW 2506   6.718  11.966   8.801
33556SOL    HW1 2507   6.774  11.905   8.753
33556SOL    HW2 2508   6.725  11.938   8.892
33557SOL     OW 2509   4.015   4.934   6.778
33557SOL    HW1 2510   3.944   4.981   6.733
33557SOL    HW2 2511   4.003   4.843   6.753
33558SOL     OW 2512  13.948   3.532  11.792
33558SOL    HW1 2513  14.005   3.487  11.853
33558SOL    HW2 2514  13.927   3.615  11.835
33559SOL     OW 2515   8.770  11.289   7.814
33559SOL    HW1 2516   8.857  11.302   7.852
33559SOL    HW2 2517   8.762  11.356   7.747
33560SOL     OW 2518  12.720  11.693   2.076
33560SOL    HW1 2519  12.796  11.713   2.020
33560SOL    HW2 2520  12.650  11.672   2.014
33561SOL     OW 2521   0.393   1.164   9.028
33561SOL    HW1 2522   0.341   1.187   8.950
33561SOL    HW2 2523   0.358   1.220   9.097
33562SOL     OW 2524  14.822  12.962  11.942
33562SOL    HW1 2525   0.043  12.955  11.953
33562SOL    HW2 2526  14.807  12.940  11.850
33563SOL     OW 2527  11.142   2.471   7.663
33563SOL    HW1 2528  11.155   2.541   7.600
33563SOL    HW2 2529  11.116   2.515   7.743
33564SOL     OW 2530   0.197  11.336   2.241
33564SOL    HW1 2531   0.197  11.420   2.195
33564SOL    HW2 2532   0.141  11.349   2.317
33565SOL     OW 2533   1.533  13.509   9.292
33565SOL    HW1 2534   1.515  13.468   9.207
33565SOL    HW2 2535   1.617  13.553   9.280
33566SOL     OW 2536  13.152   5.354  12.109
33566SOL    HW1 2537  13.083   5.337  12.173
33566SOL    HW2 2538  13.224   5.392  12.160
33567SOL     OW 2539  10.082  11.930  14.033
33567SOL    HW1 2540  10.092  11.899  13.943
33567SOL    HW2 2541  10.171  11.939  14.065
33568SOL     OW 2542   0.028   0.847   8.784
33568SOL    HW1 2543   0.077   0.831   8.865
33568SOL    HW2 2544   0.087   0.817   8.714
33569SOL     OW 2545   7.513   4.453  11.736
33569SOL    HW1 2546   7.474   4.371  11.766
33569SOL    HW2 2547   7.594   4.426  11.691
33570SOL     OW 2548   6.988   0.709  14.481
33570SOL    HW1 2549   7.058   0.646  14.495
33570SOL    HW2 2550   6.977   0.712  14.386
33571SOL     OW 2551   7.829   9.410   4.881
33571SOL    HW1 2552   7.778   9.365   4.949
33571SOL    HW2 2553   7.847   9.496   4.919
33572SOL     OW 2554  11.242   0.108   6.786
33572SOL    HW1 2555  11.184   0.071   6.853
33572SOL    HW2 2556  11.319   0.136   6.834
33573SOL     OW 2557   4.638   6.960   2.544
33573SOL    HW1 2558   4.704   6.904   2.503
33573SOL    HW2 2559   4.625   7.031   2.481
33574SOL     OW 2560   3.212  11.852   0.135
33574SOL    HW1 2561   3.146  11.834   0.068
33574SOL    HW2 2562   3.229  11.766   0.175
33575SOL     OW 2563  11.676   7.047  11.476
33575SOL    HW1 2564  11.629   7.057  11.393
33575SOL    HW2 2565  11.719   7.131  11.490
33576SOL     OW 2566   1.742   2.125  11.399
33576SOL    HW1 2567   1.708   2.207  11.364
33576SOL    HW2 2568   1.710   2.123  11.490
33577SOL     OW 2569  11.947  13.120   3.891
33577SOL    HW1 2570  11.876  13.160   3.840
33577SOL    HW2 2571  12.014  13.188   3.894
33578SOL     OW 2572   5.200   7.395   4.748
33578SOL    HW1 2573   5.173   7.368   4.661
33578SOL    HW2 2574   5.219   7.489   4.739
33579SOL     OW 2575  11.674  11.080   7.293
33579SOL    HW1 2576  11.744  11.122   7.244
33579SOL    HW2 2577  11.633  11.020   7.230
33580SOL     OW 2578   0.459   7.201   4.466
33580SOL    HW1 2579   0.536   7.176   4.415
33580SOL    HW2 2580   0.389   7.145   4.433
33581SOL     OW 2581   9.461   1.473   2.441
33581SOL    HW1 2582   9.409   1.416   2.498
33581SOL    HW2 2583   9.525   1.513   2.500
33582SOL     OW 2584  13.480   3.494   5.567
33582SOL    HW1 2585  13.441   3.559   5.509
33582SOL    HW2 2586  13.574   3.513   5.565
33583SOL     OW 2587  12.823   0.537  11.802
33583SOL    HW1 2588  12.748   0.563  11.855
33583SOL    HW2 2589  12.786   0.483  11.732
33584SOL     OW 2590  14.698   2.395  13.688
33584SOL    HW1 2591  14.715   2.437  13.772
33584SOL    HW2 2592  14.714   2.463  13.623
33585SOL     OW 2593   4.018   4.873  14.014
33585SOL    HW1 2594   4.091   4.903  14.069
33585SOL    HW2 2595   4.028   4.922  13.932
33586SOL     OW 2596   3.407   4.478   7.751
33586SOL    HW1 2597   3.343   4.483   7.822
33586SOL    HW2 2598   3.355   4.464   7.672
33587SOL     OW 2599  10.519   6.545  12.377
33587SOL    HW1 2600  10.504   6.624  12.326
33587SOL    HW2 2601  10.474   6.476  12.328
33588SOL     OW 2602   8.758  13.963   9.631
33588SOL    HW1 2603   8.734  14.039   9.578
33588SOL    HW2 2604   8.809  13.999   9.703
33589SOL     OW 2605  12.698   5.200   5.865
33589SOL    HW1 2606  12.770   5.239   5.915
33589SOL    HW2 2607  12.650   5.148   5.930
33590SOL     OW 2608   8.964  14.038   6.620
33590SOL    HW1 2609   8.980  13.983   6.697
33590SOL    HW2 2610   8.872  14.020   6.597
33591SOL     OW 2611  12.224   4.513   4.971
33591SOL    HW1 2612  12.141   4.557   4.957
33591SOL    HW2 2613  12.285   4.556   4.911
33592SOL     OW 2614   3.605   6.307  14.810
33592SOL    HW1 2615   3.542   6.326  14.740
33592SOL    HW2 2616   3.685   6.282  14.764
33593SOL     OW 2617   3.022   8.013  12.664
33593SOL    HW1 2618   2.969   8.059  12.599
33593SOL    HW2 2619   3.106   8.059  12.664
33594SOL     OW 2620   4.829  14.014   3.478
33594SOL    HW1 2621   4.810  13.971   3.395
33594SOL    HW2 2622   4.787  14.100   3.472
33595SOL     OW 2623  14.017   1.826  13.055
33595SOL    HW1 2624  13.949   1.887  13.023
33595SOL    HW2 2625  14.092   1.843  12.998
33596SOL     OW 2626   0.287   5.800  13.289
33596SOL    HW1 2627   0.194   5.782  13.302
33596SOL    HW2 2628   0.315   5.842  13.371
33597SOL     OW 2629   1.171  12.252   9.511
33597SOL    HW1 2630   1.179  12.346   9.528
33597SOL    HW2 2631   1.257  12.227   9.477
33598SOL     OW 2632  13.525  13.031   2.288
33598SOL    HW1 2633  13.559  13.102   2.234
33598SOL    HW2 2634  13.510  13.071   2.373
33599SOL     OW 2635  11.312   5.753  11.970
33599SOL    HW1 2636  11.384   5.811  11.944
33599SOL    HW2 2637  11.265   5.735  11.888
33600SOL     OW 2638   4.358  12.819  12.761
33600SOL    HW1 2639   4.275  12.777  12.737
33600SOL    HW2 2640   4.426  12.759  12.730
33601SOL     OW 2641  14.651   4.029   8.642
33601SOL    HW1 2642  14.729   3.990   8.603
33601SOL    HW2 2643  14.682   4.110   8.683
33602SOL     OW 2644  11.812  13.536   1.613
33602SOL    HW1 2645  11.861  13.454   1.610
33602SOL    HW2 2646  11.860  13.594   1.552
33603SOL     OW 2647   5.771   1.890   2.233
33603SOL    HW1 2648   5.819   1.956   2.283
33603SOL    HW2 2649   5.750   1.822   2.296
33604SOL     OW 2650   3.263   1.317   6.083
33604SOL    HW1 2651   3.273   1.406   6.049
33604SOL    HW2 2652   3.171   1.295   6.068
33605SOL     OW 2653  12.207   6.469   5.899
33605SOL    HW1 2654  12.213   6.378   5.928
33605SOL    HW2 2655  12.297   6.492   5.876
33606SOL     OW 2656   0.714   7.097   1.426
33606SOL    HW1 2657   0.789   7.154   1.440
33606SOL    HW2 2658   0.740   7.042   1.352
33607SOL     OW 2659   2.632   1.968   9.342
33607SOL    HW1 2660   2.665   1.965   9.432
33607SOL    HW2 2661   2.559   2.030   9.346
33608SOL     OW 2662  14.557   2.260  10.876
33608SOL    HW1 2663  14.534   2.335  10.931
33608SOL    HW2 2664  14.553   2.294  10.786
33609SOL     OW 2665   8.518  14.698   0.799
33609SOL    HW1 2666   8.534  14.695   0.704
33609SOL    HW2 2667   8.541  14.788   0.824
33610SOL     OW 2668   8.416   2.069   1.705
33610SOL    HW1 2669   8.398   2.137   1.639
33610SOL    HW2 2670   8.480   2.110   1.764
33611SOL     OW 2671   1.400   1.266   8.161
33611SOL    HW1 2672   1.317   1.298   8.124
33611SOL    HW2 2673   1.373   1.203   8.228
33612SOL     OW 2674   9.018   1.159  13.473
33612SOL    HW1 2675   9.047   1.222  13.540
33612SOL    HW2 2676   8.978   1.214  13.405
33613SOL     OW 2677   2.539   6.145  12.778
33613SOL    HW1 2678   2.577   6.057  12.786
33613SOL    HW2 2679   2.559   6.171  12.687
33614SOL     OW 2680  13.801  14.789   7.768
33614SOL    HW1 2681  13.827   0.004   7.746
33614SOL    HW2 2682  13.721  14.774   7.719
33615SOL     OW 2683   0.086   8.367   3.308
33615SOL    HW1 2684   0.147   8.339   3.375
33615SOL    HW2 2685   0.011   8.401   3.356
33616SOL     OW 2686   6.734  10.728  10.678
33616SOL    HW1 2687   6.690  10.784  10.614
33616SOL    HW2 2688   6.823  10.762  10.682
33617SOL     OW 2689   4.034   2.040   1.685
33617SOL    HW1 2690   4.049   2.010   1.775
33617SOL    HW2 2691   3.961   2.103   1.693
33618SOL     OW 2692  12.636  12.221  10.111
33618SOL    HW1 2693  12.676  12.238  10.025
33618SOL    HW2 2694  12.710  12.194  10.167
33619SOL     OW 2695   8.867  10.575   6.466
33619SOL    HW1 2696   8.911  10.499   6.429
33619SOL    HW2 2697   8.836  10.546   6.552
33620SOL     OW 2698  12.429  10.314   0.118
33620SOL    HW1 2699  12.501  10.327   0.179
33620SOL    HW2 2700  12.351  10.308   0.173
33621SOL     OW 2701   1.913   0.200   6.270
33621SOL    HW1 2702   1.818   0.215   6.269
33621SOL    HW2 2703   1.942   0.237   6.353
33622SOL     OW 2704   1.412   1.796  12.665
33622SOL    HW1 2705   1.340   1.836  12.617
33622SOL    HW2 2706   1.470   1.870  12.685
33623SOL     OW 2707   1.319  10.677   8.991
33623SOL    HW1 2708   1.267  10.707   9.066
33623SOL    HW2 2709   1.409  10.697   9.015
33624SOL     OW 2710   6.252   2.836   9.707
33624SOL    HW1 2711   6.297   2.755   9.684
33624SOL    HW2 2712   6.322   2.899   9.725
33625SOL     OW 2713   6.006  14.123   3.820
33625SOL    HW1 2714   6.101  14.115   3.812
33625SOL    HW2 2715   5.993  14.175   3.899
33626SOL     OW 2716   2.575   2.838   4.039
33626SOL    HW1 2717   2.639   2.840   3.968
33626SOL    HW2 2718   2.514   2.909   4.019
33627SOL     OW 2719   1.952   9.548   4.480
33627SOL    HW1 2720   2.004   9.624   4.452
33627SOL    HW2 2721   1.992   9.474   4.434
33628SOL     OW 2722   1.474   4.192   6.021
33628SOL    HW1 2723   1.496   4.106   6.055
33628SOL    HW2 2724   1.441   4.240   6.096
33629SOL     OW 2725   5.286   7.593   7.917
33629SOL    HW1 2726   5.291   7.531   7.989
33629SOL    HW2 2727   5.371   7.637   7.917
33630SOL     OW 2728   9.165  11.862  10.363
33630SOL    HW1 2729   9.251  11.894  10.337
33630SOL    HW2 2730   9.124  11.836  10.280
33631SOL     OW 2731  14.866   8.940   1.188
33631SOL    HW1 2732   0.017   9.023   1.228
33631SOL    HW2 2733   0.018   8.948   1.097
33632SOL     OW 2734  10.108  10.193   9.268
33632SOL    HW1 2735  10.078  10.245   9.344
33632SOL    HW2 2736  10.131  10.108   9.305
33633SOL     OW 2737  12.895   4.346   9.724
33633SOL    HW1 2738  12.923   4.436   9.707
33633SOL    HW2 2739  12.881   4.308   9.637
33634SOL     OW 2740   8.284   9.449  10.302
33634SOL    HW1 2741   8.190   9.456  10.285
33634SOL    HW2 2742   8.308   9.362  10.270
33635SOL     OW 2743  13.267   5.141   1.110
33635SOL    HW1 2744  13.179   5.165   1.079
33635SOL    HW2 2745  13.315   5.224   1.114
33636SOL     OW 2746  13.426  11.197   6.662
33636SOL    HW1 2747  13.401  11.223   6.750
33636SOL    HW2 2748  13.423  11.102   6.662
33637SOL     OW 2749   2.575   8.437  12.561
33637SOL    HW1 2750   2.626   8.413  12.638
33637SOL    HW2 2751   2.639   8.445  12.490
33638SOL     OW 2752   4.700   1.682  13.741
33638SOL    HW1 2753   4.720   1.592  13.715
33638SOL    HW2 2754   4.604   1.687  13.740
33639SOL     OW 2755   7.324   2.672  10.481
33639SOL    HW1 2756   7.311   2.660  10.575
33639SOL    HW2 2757   7.401   2.619  10.461
33640SOL     OW 2758  13.306  10.733   9.955
33640SOL    HW1 2759  13.372  10.748  10.023
33640SOL    HW2 2760  13.282  10.820   9.924
33641SOL     OW 2761   9.369   2.144   3.147
33641SOL    HW1 2762   9.408   2.116   3.230
33641SOL    HW2 2763   9.355   2.238   3.158
33642SOL     OW 2764  11.812   8.332  13.536
33642SOL    HW1 2765  11.725   8.300  13.558
33642SOL    HW2 2766  11.872   8.271  13.578
33643SOL     OW 2767  13.759   8.876  12.899
33643SOL    HW1 2768  13.704   8.801  12.875
33643SOL    HW2 2769  13.699   8.950  12.901
33644SOL     OW 2770   0.467   7.993  10.958
33644SOL    HW1 2771   0.553   7.993  10.915
33644SOL    HW2 2772   0.487   7.981  11.051
33645SOL     OW 2773   4.179   9.400   9.065
33645SOL    HW1 2774   4.131   9.391   8.983
33645SOL    HW2 2775   4.127   9.349   9.128
33646SOL     OW 2776  13.101  11.715   1.370
33646SOL    HW1 2777  13.137  11.644   1.318
33646SOL    HW2 2778  13.006  11.706   1.361
33647SOL     OW 2779  14.406  13.767   8.346
33647SOL    HW1 2780  14.360  13.693   8.307
33647SOL    HW2 2781  14.338  13.833   8.359
33648SOL     OW 2782  11.737   6.910   9.204
33648SOL    HW1 2783  11.655   6.924   9.157
33648SOL    HW2 2784  11.714   6.923   9.296
33649SOL     OW 2785   4.638   4.461   6.712
33649SOL    HW1 2786   4.681   4.545   6.692
33649SOL    HW2 2787   4.657   4.406   6.636
33650SOL     OW 2788  11.485  14.726   6.305
33650SOL    HW1 2789  11.579  14.742   6.301
33650SOL    HW2 2790  11.455  14.739   6.215
33651SOL     OW 2791   7.721  13.256   3.915
33651SOL    HW1 2792   7.771  13.190   3.866
33651SOL    HW2 2793   7.680  13.206   3.986
33652SOL     OW 2794   3.401  11.992   6.213
33652SOL    HW1 2795   3.489  12.008   6.180
33652SOL    HW2 2796   3.385  12.062   6.276
33653SOL     OW 2797  14.111   7.506  13.987
33653SOL    HW1 2798  14.054   7.429  13.978
33653SOL    HW2 2799  14.168   7.486  14.061
33654SOL     OW 2800   9.186   6.332   6.983
33654SOL    HW1 2801   9.278   6.348   6.960
33654SOL    HW2 2802   9.140   6.335   6.899
33655SOL     OW 2803  10.024   0.061   5.340
33655SOL    HW1 2804   9.937   0.068   5.380
33655SOL    HW2 2805  10.083   0.044   5.414
33656SOL     OW 2806   1.795   8.710   9.256
33656SOL    HW1 2807   1.824   8.654   9.328
33656SOL    HW2 2808   1.781   8.650   9.182
33657SOL     OW 2809   2.462   6.090   9.185
33657SOL    HW1 2810   2.394   6.078   9.251
33657SOL    HW2 2811   2.543   6.095   9.235
33658SOL     OW 2812  13.988  13.806   1.015
33658SOL    HW1 2813  13.928  13.881   1.021
33658SOL    HW2 2814  13.932  13.733   0.987
33659SOL     OW 2815   4.915   0.838  13.986
33659SOL    HW1 2816   4.941   0.911  14.042
33659SOL    HW2 2817   4.831   0.809  14.021
33660SOL     OW 2818   4.875   0.410   1.714
33660SOL    HW1 2819   4.950   0.434   1.659
33660SOL    HW2 2820   4.832   0.494   1.733
33661SOL     OW 2821  14.297   4.709   8.838
33661SOL    HW1 2822  14.277   4.740   8.927
33661SOL    HW2 2823  14.299   4.613   8.847
33662SOL     OW 2824   3.034  11.576   6.864
33662SOL    HW1 2825   3.108  11.561   6.921
33662SOL    HW2 2826   2.959  11.539   6.911
33663SOL     OW 2827   5.644   1.580   2.189
33663SOL    HW1 2828   5.651   1.568   2.094
33663SOL    HW2 2829   5.732   1.609   2.215
33664SOL     OW 2830  14.640   0.710   5.517
33664SOL    HW1 2831  14.613   0.627   5.479
33664SOL    HW2 2832  14.586   0.719   5.596
33665SOL     OW 2833  11.027   9.018  13.760
33665SOL    HW1 2834  11.012   8.991  13.850
33665SOL    HW2 2835  11.014   9.113  13.761
33666SOL     OW 2836   6.823  13.524  10.095
33666SOL    HW1 2837   6.738  13.511  10.136
33666SOL    HW2 2838   6.863  13.595  10.145
33667SOL     OW 2839   5.269   6.572   3.917
33667SOL    HW1 2840   5.200   6.559   3.852
33667SOL    HW2 2841   5.350   6.577   3.867
33668SOL     OW 2842  11.500   6.213   4.834
33668SOL    HW1 2843  11.517   6.298   4.792
33668SOL    HW2 2844  11.515   6.149   4.764
33669SOL     OW 2845   3.666   2.403   8.620
33669SOL    HW1 2846   3.607   2.411   8.545
33669SOL    HW2 2847   3.743   2.359   8.585
33670SOL     OW 2848  10.906   2.751  13.649
33670SOL    HW1 2849  10.979   2.784  13.596
33670SOL    HW2 2850  10.947   2.688  13.708
33671SOL     OW 2851   3.207  13.234  12.989
33671SOL    HW1 2852   3.195  13.176  12.914
33671SOL    HW2 2853   3.280  13.195  13.037
33672SOL     OW 2854  13.414  10.635   6.429
33672SOL    HW1 2855  13.452  10.569   6.371
33672SOL    HW2 2856  13.356  10.686   6.372
33673SOL     OW 2857   4.019   1.787   0.846
33673SOL    HW1 2858   4.047   1.858   0.903
33673SOL    HW2 2859   4.028   1.822   0.758
33674SOL     OW 2860   2.517   7.891   4.324
33674SOL    HW1 2861   2.566   7.926   4.399
33674SOL    HW2 2862   2.431   7.867   4.361
33675SOL     OW 2863  12.186  14.576   2.653
33675SOL    HW1 2864  12.254  14.643   2.642
33675SOL    HW2 2865  12.212  14.505   2.595
33676SOL     OW 2866   7.319   2.613   5.828
33676SOL    HW1 2867   7.392   2.551   5.821
33676SOL    HW2 2868   7.248   2.573   5.779
33677SOL     OW 2869  10.555  12.922  14.163
33677SOL    HW1 2870  10.634  12.948  14.115
33677SOL    HW2 2871  10.587  12.871  14.237
33678SOL     OW 2872  10.301   2.161  13.458
33678SOL    HW1 2873  10.365   2.090  13.468
33678SOL    HW2 2874  10.242   2.130  13.390
33679SOL     OW 2875   5.734  10.704  13.836
33679SOL    HW1 2876   5.742  10.648  13.914
33679SOL    HW2 2877   5.642  10.730  13.835
33680SOL     OW 2878   2.742   1.868  11.580
33680SOL    HW1 2879   2.707   1.950  11.616
33680SOL    HW2 2880   2.833   1.888  11.558
33681SOL     OW 2881  14.458  13.675   9.853
33681SOL    HW1 2882  14.490  13.681   9.763
33681SOL    HW2 2883  14.416  13.759   9.870
33682SOL     OW 2884  11.018   3.542  13.097
33682SOL    HW1 2885  11.052   3.610  13.155
33682SOL    HW2 2886  11.093   3.515  13.045
33683SOL     OW 2887   9.640  13.254   0.585
33683SOL    HW1 2888   9.616  13.345   0.602
33683SOL    HW2 2889   9.645  13.247   0.490
33684SOL     OW 2890  14.697   2.681   0.703
33684SOL    HW1 2891  14.692   2.741   0.777
33684SOL    HW2 2892  14.610   2.686   0.663
33685SOL     OW 2893   9.437   9.379  12.131
33685SOL    HW1 2894   9.467   9.439  12.199
33685SOL    HW2 2895   9.341   9.386  12.133
33686SOL     OW 2896   0.246   7.568   6.194
33686SOL    HW1 2897   0.241   7.527   6.108
33686SOL    HW2 2898   0.159   7.552   6.233
33687SOL     OW 2899   6.050   0.777   7.729
33687SOL    HW1 2900   5.987   0.784   7.801
33687SOL    HW2 2901   6.134   0.765   7.772
33688SOL     OW 2902   2.733   6.076   6.323
33688SOL    HW1 2903   2.693   6.158   6.294
33688SOL    HW2 2904   2.685   6.008   6.277
33689SOL     OW 2905  14.310   3.773   9.747
33689SOL    HW1 2906  14.288   3.699   9.803
33689SOL    HW2 2907  14.394   3.750   9.708
33690SOL     OW 2908   5.555  14.847   1.557
33690SOL    HW1 2909   5.553  14.751   1.550
33690SOL    HW2 2910   5.493  14.867   1.627
33691SOL     OW 2911  12.239   5.450   7.047
33691SOL    HW1 2912  12.161   5.458   6.993
33691SOL    HW2 2913  12.224   5.372   7.100
33692SOL     OW 2914   4.997   2.269   2.138
33692SOL    HW1 2915   5.088   2.294   2.123
33692SOL    HW2 2916   4.970   2.226   2.057
33693SOL     OW 2917   3.733   8.128  14.148
33693SOL    HW1 2918   3.742   8.059  14.214
33693SOL    HW2 2919   3.783   8.097  14.073
33694SOL     OW 2920   0.514   4.490  10.921
33694SOL    HW1 2921   0.444   4.548  10.889
33694SOL    HW2 2922   0.571   4.547  10.972
33695SOL     OW 2923  10.656   3.532  12.514
33695SOL    HW1 2924  10.668   3.626  12.526
33695SOL    HW2 2925  10.739   3.493  12.544
33696SOL     OW 2926   3.672   8.982   6.157
33696SOL    HW1 2927   3.641   9.073   6.165
33696SOL    HW2 2928   3.736   8.973   6.228
33697SOL     OW 2929  12.890   4.112   1.628
33697SOL    HW1 2930  12.956   4.093   1.562
33697SOL    HW2 2931  12.814   4.142   1.578
33698SOL     OW 2932   0.984  13.417  13.615
33698SOL    HW1 2933   1.007  13.421  13.523
33698SOL    HW2 2934   0.901  13.465  13.622
33699SOL     OW 2935  10.165   4.365   3.461
33699SOL    HW1 2936  10.257   4.386   3.473
33699SOL    HW2 2937  10.165   4.273   3.432
33700SOL     OW 2938   5.051   2.872   6.280
33700SOL    HW1 2939   5.002   2.935   6.228
33700SOL    HW2 2940   5.130   2.855   6.229
33701SOL     OW 2941   1.836   6.900  14.139
33701SOL    HW1 2942   1.775   6.973  14.152
33701SOL    HW2 2943   1.852   6.900  14.045
33702SOL     OW 2944   5.606  12.293   0.828
33702SOL    HW1 2945   5.673  12.338   0.880
33702SOL    HW2 2946   5.523  12.324   0.865
33703SOL     OW 2947   0.022   1.113   6.946
33703SOL    HW1 2948  14.847   1.137   6.868
33703SOL    HW2 2949   0.027   1.017   6.943
33704SOL     OW 2950   6.259   1.819   9.814
33704SOL    HW1 2951   6.184   1.872   9.786
33704SOL    HW2 2952   6.277   1.762   9.739
33705SOL     OW 2953  10.657   0.251  12.955
33705SOL    HW1 2954  10.736   0.271  13.005
33705SOL    HW2 2955  10.687   0.192  12.886
33706SOL     OW 2956   4.379  13.465   0.729
33706SOL    HW1 2957   4.285  13.481   0.726
33706SOL    HW2 2958   4.387  13.370   0.734
33707SOL     OW 2959   0.109  11.089   2.271
33707SOL    HW1 2960   0.152  11.167   2.307
33707SOL    HW2 2961   0.181  11.033   2.241
33708SOL     OW 2962  13.067  11.721   6.300
33708SOL    HW1 2963  13.008  11.775   6.246
33708SOL    HW2 2964  13.086  11.775   6.376
33709SOL     OW 2965  11.631   5.239   3.235
33709SOL    HW1 2966  11.570   5.312   3.240
33709SOL    HW2 2967  11.581   5.163   3.264
33710SOL     OW 2968   4.736   5.355   1.343
33710SOL    HW1 2969   4.676   5.352   1.269
33710SOL    HW2 2970   4.723   5.442   1.381
33711SOL     OW 2971  10.771   2.723  14.021
33711SOL    HW1 2972  10.766   2.792  14.087
33711SOL    HW2 2973  10.863   2.723  13.994
33712SOL     OW 2974   8.224   4.634   1.435
33712SOL    HW1 2975   8.219   4.713   1.489
33712SOL    HW2 2976   8.133   4.613   1.415
33713SOL     OW 2977  13.284   7.755  11.128
33713SOL    HW1 2978  13.311   7.817  11.195
33713SOL    HW2 2979  13.234   7.688  11.176
33714SOL     OW 2980  13.120   5.581   6.942
33714SOL    HW1 2981  13.066   5.580   7.021
33714SOL    HW2 2982  13.129   5.488   6.918
33715SOL     OW 2983   8.729  13.542  10.640
33715SOL    HW1 2984   8.676  13.549  10.560
33715SOL    HW2 2985   8.750  13.633  10.662
33716SOL     OW 2986   0.054  13.332  10.973
33716SOL    HW1 2987   0.147  13.334  10.953
33716SOL    HW2 2988   0.050  13.347  11.068
33717SOL     OW 2989   5.865   9.437   6.908
33717SOL    HW1 2990   5.809   9.380   6.962
33717SOL    HW2 2991   5.804   9.479   6.848
33718SOL     OW 2992   4.657   9.848   6.956
33718SOL    HW1 2993   4.631   9.922   6.901
33718SOL    HW2 2994   4.750   9.863   6.974
33719SOL     OW 2995   9.521   6.927  14.481
33719SOL    HW1 2996   9.542   6.892  14.395
33719SOL    HW2 2997   9.467   6.860  14.522
33720SOL     OW 2998  10.482  12.354   7.928
33720SOL    HW1 2999  10.563  12.358   7.877
33720SOL    HW2 3000  10.453  12.264   7.919
33721SOL     OW 3001   8.354   9.778   5.433
33721SOL    HW1 3002   8.431   9.724   5.452
33721SOL    HW2 3003   8.389   9.867   5.425
33722SOL     OW 3004   8.449   6.373   5.495
33722SOL    HW1 3005   8.405   6.444   5.542
33722SOL    HW2 3006   8.504   6.418   5.430
33723SOL     OW 3007  13.768  14.523   0.351
33723SOL    HW1 3008  13.806  14.435   0.353
33723SOL    HW2 3009  13.692  14.515   0.294
33724SOL     OW 3010   7.219   1.382  11.886
33724SOL    HW1 3011   7.124   1.385  11.896
33724SOL    HW2 3012   7.250   1.458  11.936
33725SOL     OW 3013   4.143  13.136  10.248
33725SOL    HW1 3014   4.177  13.209  10.300
33725SOL    HW2 3015   4.059  13.167  10.214
33726SOL     OW 3016  13.791  12.634   8.557
33726SOL    HW1 3017  13.821  12.619   8.467
33726SOL    HW2 3018  13.698  12.612   8.555
33727SOL     OW 3019   4.635   4.322   7.308
33727SOL    HW1 3020   4.603   4.410   7.288
33727SOL    HW2 3021   4.723   4.337   7.345
33728SOL     OW 3022  13.437   7.956   3.405
33728SOL    HW1 3023  13.431   8.031   3.346
33728SOL    HW2 3024  13.529   7.929   3.398
33729SOL     OW 3025   2.679   0.780   4.440
33729SOL    HW1 3026   2.737   0.854   4.422
33729SOL    HW2 3027   2.650   0.751   4.354
33730SOL     OW 3028  12.887  10.678   3.699
33730SOL    HW1 3029  12.808  10.707   3.744
33730SOL    HW2 3030  12.905  10.746   3.635
33731SOL     OW 3031  11.329   7.170   6.756
33731SOL    HW1 3032  11.356   7.082   6.733
33731SOL    HW2 3033  11.235   7.162   6.775
33732SOL     OW 3034  14.834   9.432  10.656
33732SOL    HW1 3035   0.036   9.449  10.601
33732SOL    HW2 3036  14.776   9.380  10.600
33733SOL     OW 3037  13.724  12.193   0.864
33733SOL    HW1 3038  13.706  12.117   0.920
33733SOL    HW2 3039  13.653  12.194   0.800
33734SOL     OW 3040   0.795   6.223  13.479
33734SOL    HW1 3041   0.838   6.299  13.519
33734SOL    HW2 3042   0.810   6.234  13.385
33735SOL     OW 3043   0.006  11.717   1.162
33735SOL    HW1 3044   0.007  11.631   1.203
33735SOL    HW2 3045   0.093  11.753   1.180
33736SOL     OW 3046  10.974  12.161   6.073
33736SOL    HW1 3047  10.933  12.211   6.002
33736SOL    HW2 3048  10.919  12.084   6.083
33737SOL     OW 3049   1.807   7.902   6.601
33737SOL    HW1 3050   1.805   7.811   6.632
33737SOL    HW2 3051   1.858   7.900   6.520
33738SOL     OW 3052   0.911   0.560   5.062
33738SOL    HW1 3053   0.961   0.520   4.991
33738SOL    HW2 3054   0.977   0.598   5.119
33739SOL     OW 3055   2.250   8.551   7.199
33739SOL    HW1 3056   2.200   8.517   7.124
33739SOL    HW2 3057   2.342   8.539   7.173
33740SOL     OW 3058  11.227   0.647   1.057
33740SOL    HW1 3059  11.219   0.738   1.087
33740SOL    HW2 3060  11.198   0.649   0.966
33741SOL     OW 3061   5.115   4.567   0.537
33741SOL    HW1 3062   5.181   4.504   0.507
33741SOL    HW2 3063   5.091   4.616   0.459
33742SOL     OW 3064  14.750   5.200   4.707
33742SOL    HW1 3065  14.834   5.176   4.668
33742SOL    HW2 3066  14.719   5.274   4.655
33743SOL     OW 3067  10.436   0.479  11.746
33743SOL    HW1 3068  10.392   0.512  11.825
33743SOL    HW2 3069  10.522   0.522  11.747
33744SOL     OW 3070  12.390   4.863   3.788
33744SOL    HW1 3071  12.326   4.843   3.856
33744SOL    HW2 3072  12.389   4.786   3.731
33745SOL     OW 3073   3.754   6.598   8.122
33745SOL    HW1 3074   3.663   6.574   8.135
33745SOL    HW2 3075   3.761   6.687   8.155
33746SOL     OW 3076   8.721   6.063   7.132
33746SOL    HW1 3077   8.752   6.149   7.159
33746SOL    HW2 3078   8.656   6.039   7.198
33747SOL     OW 3079  12.976  13.284   1.849
33747SOL    HW1 3080  12.918  13.211   1.828
33747SOL    HW2 3081  12.924  13.363   1.831
33748SOL     OW 3082  10.657   2.178   6.054
33748SOL    HW1 3083  10.565   2.158   6.036
33748SOL    HW2 3084  10.703   2.095   6.038
33749SOL     OW 3085  10.063  10.877  10.188
33749SOL    HW1 3086  10.126  10.815  10.224
33749SOL    HW2 3087  10.012  10.906  10.264
33750SOL     OW 3088   5.015  11.726  14.412
33750SOL    HW1 3089   5.045  11.658  14.472
33750SOL    HW2 3090   5.015  11.806  14.465
33751SOL     OW 3091   3.427   3.241   2.423
33751SOL    HW1 3092   3.517   3.243   2.453
33751SOL    HW2 3093   3.428   3.180   2.348
33752SOL     OW 3094   0.984   4.077  12.688
33752SOL    HW1 3095   0.963   4.139  12.618
33752SOL    HW2 3096   1.079   4.086  12.699
33753SOL     OW 3097  13.473   6.829  14.392
33753SOL    HW1 3098  13.481   6.914  14.349
33753SOL    HW2 3099  13.526   6.837  14.470
33754SOL     OW 3100   8.447   4.408  11.691
33754SOL    HW1 3101   8.445   4.503  11.679
33754SOL    HW2 3102   8.370   4.389  11.745
33755SOL     OW 3103   5.780   8.192   0.803
33755SOL    HW1 3104   5.808   8.182   0.894
33755SOL    HW2 3105   5.700   8.244   0.808
33756SOL     OW 3106   7.579   8.867   5.995
33756SOL    HW1 3107   7.624   8.782   5.990
33756SOL    HW2 3108   7.625   8.915   6.064
33757SOL     OW 3109   4.146   8.569  11.287
33757SOL    HW1 3110   4.240   8.559  11.278
33757SOL    HW2 3111   4.135   8.625  11.364
33758SOL     OW 3112   0.136   9.872  11.782
33758SOL    HW1 3113   0.168   9.789  11.816
33758SOL    HW2 3114   0.206   9.904  11.726
33759SOL     OW 3115  12.833   4.091  11.115
33759SOL    HW1 3116  12.848   4.176  11.156
33759SOL    HW2 3117  12.909   4.038  11.139
33760SOL     OW 3118  13.914  14.287   6.211
33760SOL    HW1 3119  13.880  14.209   6.167
33760SOL    HW2 3120  13.949  14.254   6.294
33761SOL     OW 3121  13.058   4.465   6.934
33761SOL    HW1 3122  13.010   4.426   6.862
33761SOL    HW2 3123  13.014   4.549   6.950
33762SOL     OW 3124  11.699   2.483   1.948
33762SOL    HW1 3125  11.722   2.390   1.937
33762SOL    HW2 3126  11.662   2.487   2.036
33763SOL     OW 3127   6.563   9.877   8.802
33763SOL    HW1 3128   6.559   9.896   8.708
33763SOL    HW2 3129   6.606   9.791   8.807
33764SOL     OW 3130   8.508   1.647   3.796
33764SOL    HW1 3131   8.587   1.684   3.835
33764SOL    HW2 3132   8.436   1.701   3.831
33765SOL     OW 3133   2.544   4.104   4.777
33765SOL    HW1 3134   2.486   4.043   4.823
33765SOL    HW2 3135   2.567   4.170   4.843
33766SOL     OW 3136   6.203   7.691   2.901
33766SOL    HW1 3137   6.213   7.698   2.806
33766SOL    HW2 3138   6.197   7.596   2.917
33767SOL     OW 3139   4.649   0.121   6.097
33767SOL    HW1 3140   4.557   0.129   6.070
33767SOL    HW2 3141   4.670   0.029   6.083
33768SOL     OW 3142  13.055   4.178  10.264
33768SOL    HW1 3143  13.092   4.164  10.177
33768SOL    HW2 3144  12.969   4.135  10.260
33769SOL     OW 3145   0.317   6.560  14.473
33769SOL    HW1 3146   0.340   6.485  14.418
33769SOL    HW2 3147   0.223   6.572  14.459
33770SOL     OW 3148   6.462   1.336   5.063
33770SOL    HW1 3149   6.392   1.360   5.004
33770SOL    HW2 3150   6.481   1.244   5.042
33771SOL     OW 3151   5.025  12.013   9.338
33771SOL    HW1 3152   4.980  11.991   9.256
33771SOL    HW2 3153   5.022  12.108   9.342
33772SOL     OW 3154   5.135   9.234  14.395
33772SOL    HW1 3155   5.214   9.205  14.350
33772SOL    HW2 3156   5.079   9.157  14.397
33773SOL     OW 3157   3.884  12.403   1.209
33773SOL    HW1 3158   3.862  12.430   1.298
33773SOL    HW2 3159   3.802  12.411   1.161
33774SOL     OW 3160   9.881  12.200   2.841
33774SOL    HW1 3161   9.804  12.220   2.788
33774SOL    HW2 3162   9.856  12.123   2.892
33775SOL     OW 3163   8.736   0.335   1.628
33775SOL    HW1 3164   8.727   0.367   1.718
33775SOL    HW2 3165   8.763   0.412   1.578
33776SOL     OW 3166   4.999   4.601  14.051
33776SOL    HW1 3167   4.961   4.670  13.996
33776SOL    HW2 3168   5.077   4.642  14.089
33777SOL     OW 3169  10.708   9.625  13.498
33777SOL    HW1 3170  10.652   9.555  13.532
33777SOL    HW2 3171  10.778   9.580  13.452
33778SOL     OW 3172   1.167   9.133   4.342
33778SOL    HW1 3173   1.260   9.109   4.342
33778SOL    HW2 3174   1.166   9.221   4.304
33779SOL     OW 3175   3.979   0.535   6.416
33779SOL    HW1 3176   3.969   0.618   6.370
33779SOL    HW2 3177   3.930   0.472   6.364
33780SOL     OW 3178   8.500   0.199   8.099
33780SOL    HW1 3179   8.548   0.280   8.111
33780SOL    HW2 3180   8.427   0.223   8.041
33781SOL     OW 3181   9.844   1.337   6.289
33781SOL    HW1 3182   9.893   1.288   6.223
33781SOL    HW2 3183   9.776   1.383   6.240
33782SOL     OW 3184   4.311   5.271   7.994
33782SOL    HW1 3185   4.218   5.292   7.997
33782SOL    HW2 3186   4.323   5.221   7.913
33783SOL     OW 3187  12.273   1.945   2.145
33783SOL    HW1 3188  12.234   2.007   2.207
33783SOL    HW2 3189  12.204   1.928   2.082
33784SOL     OW 3190   0.219   6.451  10.886
33784SOL    HW1 3191   0.208   6.362  10.920
33784SOL    HW2 3192   0.210   6.441  10.791
33785SOL     OW 3193   8.521   3.900   3.258
33785SOL    HW1 3194   8.506   3.981   3.210
33785SOL    HW2 3195   8.545   3.928   3.347
33786SOL     OW 3196   6.645   8.090   4.654
33786SOL    HW1 3197   6.574   8.047   4.702
33786SOL    HW2 3198   6.635   8.183   4.675
33787SOL     OW 3199   1.585  12.713   5.898
33787SOL    HW1 3200   1.521  12.782   5.919
33787SOL    HW2 3201   1.547  12.669   5.822
33788SOL     OW 3202   1.032   7.166   0.991
33788SOL    HW1 3203   1.077   7.164   0.907
33788SOL    HW2 3204   1.007   7.258   1.003
33789SOL     OW 3205   6.690  11.475   8.091
33789SOL    HW1 3206   6.699  11.442   8.002
33789SOL    HW2 3207   6.605  11.519   8.092
33790SOL     OW 3208   1.563   7.276   7.976
33790SOL    HW1 3209   1.563   7.369   7.951
33790SOL    HW2 3210   1.522   7.231   7.902
33791SOL     OW 3211   1.968   4.759   7.868
33791SOL    HW1 3212   1.909   4.691   7.835
33791SOL    HW2 3213   1.910   4.832   7.890
33792SOL     OW 3214   7.684   0.942   8.038
33792SOL    HW1 3215   7.680   0.942   8.133
33792SOL    HW2 3216   7.742   0.869   8.016
33793SOL     OW 3217   5.943   1.100   5.315
33793SOL    HW1 3218   5.885   1.145   5.254
33793SOL    HW2 3219   5.978   1.170   5.370
33794SOL     OW 3220   6.260   2.015   0.760
33794SOL    HW1 3221   6.197   2.022   0.832
33794SOL    HW2 3222   6.211   2.042   0.682
33795SOL     OW 3223  12.214   8.945   7.871
33795SOL    HW1 3224  12.210   8.850   7.861
33795SOL    HW2 3225  12.287   8.959   7.931
33796SOL     OW 3226   4.636  13.107  14.427
33796SOL    HW1 3227   4.631  13.013  14.447
33796SOL    HW2 3228   4.708  13.114  14.364
33797SOL     OW 3229  11.317   3.574   5.734
33797SOL    HW1 3230  11.379   3.646   5.745
33797SOL    HW2 3231  11.355   3.502   5.786
33798SOL     OW 3232  12.956  10.072  10.503
33798SOL    HW1 3233  12.920  10.096  10.588
33798SOL    HW2 3234  13.040  10.117  10.498
33799SOL     OW 3235   3.513   3.639   9.538
33799SOL    HW1 3236   3.554   3.724   9.525
33799SOL    HW2 3237   3.581   3.584   9.578
33800SOL     OW 3238   4.372  10.200  11.467
33800SOL    HW1 3239   4.329  10.271  11.420
33800SOL    HW2 3240   4.421  10.243  11.537
33801SOL     OW 3241   7.575   5.836   4.335
33801SOL    HW1 3242   7.540   5.895   4.403
33801SOL    HW2 3243   7.529   5.862   4.255
33802SOL     OW 3244   5.432  13.562  12.349
33802SOL    HW1 3245   5.490  13.569  12.272
33802SOL    HW2 3246   5.367  13.497  12.323
33803SOL     OW 3247   2.950   8.040  10.343
33803SOL    HW1 3248   2.855   8.030  10.338
33803SOL    HW2 3249   2.982   7.955  10.373
33804SOL     OW 3250   9.906   2.450   2.015
33804SOL    HW1 3251   9.968   2.393   2.059
33804SOL    HW2 3252   9.833   2.391   1.991
33805SOL     OW 3253  11.757  13.894   6.944
33805SOL    HW1 3254  11.669  13.920   6.973
33805SOL    HW2 3255  11.741  13.828   6.876
33806SOL     OW 3256   4.862   9.358   1.386
33806SOL    HW1 3257   4.829   9.401   1.307
33806SOL    HW2 3258   4.948   9.324   1.361
33807SOL     OW 3259   2.149   1.035  13.963
33807SOL    HW1 3260   2.222   0.973  13.965
33807SOL    HW2 3261   2.188   1.119  13.987
33808SOL     OW 3262  11.649   7.544   8.938
33808SOL    HW1 3263  11.713   7.494   8.989
33808SOL    HW2 3264  11.670   7.524   8.847
33809SOL     OW 3265   7.965  12.602   1.848
33809SOL    HW1 3266   7.962  12.645   1.933
33809SOL    HW2 3267   7.989  12.672   1.787
33810SOL     OW 3268   3.465   6.647  14.412
33810SOL    HW1 3269   3.435   6.735  14.437
33810SOL    HW2 3270   3.538   6.663  14.353
33811SOL     OW 3271   9.960   4.935  14.015
33811SOL    HW1 3272   9.870   4.903  14.011
33811SOL    HW2 3273   9.961   5.013  13.960
33812SOL     OW 3274   5.998   3.732  11.154
33812SOL    HW1 3275   6.082   3.776  11.141
33812SOL    HW2 3276   5.936   3.785  11.105
33813SOL     OW 3277   2.062   8.366   9.789
33813SOL    HW1 3278   2.007   8.436   9.756
33813SOL    HW2 3279   2.110   8.406   9.862
33814SOL     OW 3280  10.531  13.272  13.316
33814SOL    HW1 3281  10.476  13.200  13.345
33814SOL    HW2 3282  10.472  13.347  13.311
33815SOL     OW 3283   5.392   8.113  10.032
33815SOL    HW1 3284   5.463   8.077  10.085
33815SOL    HW2 3285   5.361   8.040   9.980
33816SOL     OW 3286   1.862   5.386   7.200
33816SOL    HW1 3287   1.868   5.456   7.265
33816SOL    HW2 3288   1.893   5.427   7.119
33817SOL     OW 3289   6.226   3.697   5.825
33817SOL    HW1 3290   6.284   3.754   5.875
33817SOL    HW2 3291   6.245   3.718   5.734
33818SOL     OW 3292   4.443  14.077  14.160
33818SOL    HW1 3293   4.440  14.151  14.099
33818SOL    HW2 3294   4.354  14.071  14.195
33819SOL     OW 3295   3.443   0.522   9.303
33819SOL    HW1 3296   3.435   0.431   9.274
33819SOL    HW2 3297   3.434   0.574   9.223
33820SOL     OW 3298   6.048   5.687  12.518
33820SOL    HW1 3299   6.076   5.626  12.586
33820SOL    HW2 3300   5.970   5.647  12.480
33821SOL     OW 3301   2.379   8.396   0.610
33821SOL    HW1 3302   2.429   8.352   0.541
33821SOL    HW2 3303   2.301   8.429   0.566
33822SOL     OW 3304   3.828  14.377   3.811
33822SOL    HW1 3305   3.812  14.452   3.754
33822SOL    HW2 3306   3.743  14.359   3.851
33823SOL     OW 3307   4.020   7.834   6.684
33823SOL    HW1 3308   4.016   7.830   6.589
33823SOL    HW2 3309   4.086   7.768   6.708
33824SOL     OW 3310   5.046   0.814   5.258
33824SOL    HW1 3311   5.074   0.804   5.349
33824SOL    HW2 3312   5.126   0.798   5.207
33825SOL     OW 3313  14.857   8.202   7.077
33825SOL    HW1 3314  14.780   8.160   7.115
33825SOL    HW2 3315  14.873   8.278   7.134
33826SOL     OW 3316  10.989  14.263   5.832
33826SOL    HW1 3317  10.894  14.255   5.819
33826SOL    HW2 3318  11.024  14.178   5.806
33827SOL     OW 3319   6.650   9.347   8.614
33827SOL    HW1 3320   6.707   9.335   8.538
33827SOL    HW2 3321   6.598   9.424   8.592
33828SOL     OW 3322   6.377   0.769   4.980
33828SOL    HW1 3323   6.462   0.760   4.938
33828SOL    HW2 3324   6.317   0.722   4.923
33829SOL     OW 3325  13.936  11.229  14.765
33829SOL    HW1 3326  13.963  11.144  14.801
33829SOL    HW2 3327  14.018  11.279  14.759
33830SOL     OW 3328   0.337  12.795  14.702
33830SOL    HW1 3329   0.371  12.793  14.791
33830SOL    HW2 3330   0.331  12.888  14.681
33831SOL     OW 3331   1.547   2.741   5.405
33831SOL    HW1 3332   1.509   2.823   5.436
33831SOL    HW2 3333   1.496   2.720   5.327
33832SOL     OW 3334   5.328  14.096   6.697
33832SOL    HW1 3335   5.382  14.132   6.626
33832SOL    HW2 3336   5.366  14.131   6.777
33833SOL     OW 3337   9.304  10.206  13.072
33833SOL    HW1 3338   9.253  10.286  13.058
33833SOL    HW2 3339   9.372  10.232  13.134
33834SOL     OW 3340  12.009  13.229  13.472
33834SOL    HW1 3341  12.050  13.151  13.436
33834SOL    HW2 3342  11.954  13.197  13.544
33835SOL     OW 3343  12.886  14.473  11.380
33835SOL    HW1 3344  12.957  14.515  11.428
33835SOL    HW2 3345  12.843  14.545  11.332
33836SOL     OW 3346   1.597   9.182   5.140
33836SOL    HW1 3347   1.607   9.117   5.071
33836SOL    HW2 3348   1.541   9.250   5.102
33837SOL     OW 3349   1.364   0.088  14.045
33837SOL    HW1 3350   1.430   0.142  14.088
33837SOL    HW2 3351   1.387   0.090  13.952
33838SOL     OW 3352  10.126   5.186  12.679
33838SOL    HW1 3353  10.114   5.094  12.705
33838SOL    HW2 3354  10.215   5.207  12.706
33839SOL     OW 3355  12.232   1.424   7.018
33839SOL    HW1 3356  12.317   1.382   7.027
33839SOL    HW2 3357  12.196   1.389   6.937
33840SOL     OW 3358  13.412   1.787  11.852
33840SOL    HW1 3359  13.451   1.792  11.939
33840SOL    HW2 3360  13.370   1.701  11.849
33841SOL     OW 3361   9.657  10.475   5.381
33841SOL    HW1 3362   9.695  10.561   5.367
33841SOL    HW2 3363   9.590  10.466   5.314
33842SOL     OW 3364   7.307  14.456   9.086
33842SOL    HW1 3365   7.292  14.546   9.057
33842SOL    HW2 3366   7.285  14.402   9.010
33843SOL     OW 3367   2.475  13.100   3.051
33843SOL    HW1 3368   2.556  13.111   3.101
33843SOL    HW2 3369   2.493  13.026   2.993
33844SOL     OW 3370   2.780   9.491   7.761
33844SOL    HW1 3371   2.795   9.544   7.683
33844SOL    HW2 3372   2.858   9.436   7.768
33845SOL     OW 3373  10.970   1.426  13.087
33845SOL    HW1 3374  10.914   1.377  13.147
33845SOL    HW2 3375  10.965   1.516  13.118
33846SOL     OW 3376   7.281  12.848  11.904
33846SOL    HW1 3377   7.296  12.940  11.926
33846SOL    HW2 3378   7.369  12.811  11.894
33847SOL     OW 3379  12.513   2.315   9.152
33847SOL    HW1 3380  12.587   2.272   9.197
33847SOL    HW2 3381  12.438   2.298   9.208
33848SOL     OW 3382   6.600   3.331   0.218
33848SOL    HW1 3383   6.575   3.257   0.163
33848SOL    HW2 3384   6.667   3.296   0.277
33849SOL     OW 3385  10.570   8.759   4.775
33849SOL    HW1 3386  10.570   8.854   4.786
33849SOL    HW2 3387  10.517   8.726   4.847
33850SOL     OW 3388   3.793  13.654   0.547
33850SOL    HW1 3389   3.749  13.733   0.515
33850SOL    HW2 3390   3.792  13.663   0.642
33851SOL     OW 3391  11.610   1.363   9.985
33851SOL    HW1 3392  11.558   1.382   9.907
33851SOL    HW2 3393  11.545   1.340  10.052
33852SOL     OW 3394   3.168  10.928   6.433
33852SOL    HW1 3395   3.260  10.907   6.417
33852SOL    HW2 3396   3.133  10.950   6.347
33853SOL     OW 3397   6.958   8.281   7.306
33853SOL    HW1 3398   7.026   8.291   7.240
33853SOL    HW2 3399   6.908   8.204   7.278
33854SOL     OW 3400   7.057   6.556   0.280
33854SOL    HW1 3401   7.138   6.601   0.303
33854SOL    HW2 3402   7.044   6.492   0.350
33855SOL     OW 3403   1.172  11.935   9.355
33855SOL    HW1 3404   1.192  11.844   9.334
33855SOL    HW2 3405   1.101  11.958   9.294
33856SOL     OW 3406   1.512   5.709  11.760
33856SOL    HW1 3407   1.518   5.659  11.678
33856SOL    HW2 3408   1.517   5.643  11.829
33857SOL     OW 3409   7.618   9.517   1.648
33857SOL    HW1 3410   7.559   9.442   1.636
33857SOL    HW2 3411   7.671   9.518   1.568
33858SOL     OW 3412  13.806   9.974   0.821
33858SOL    HW1 3413  13.746  10.006   0.889
33858SOL    HW2 3414  13.751   9.923   0.762
33859SOL     OW 3415  10.178  13.727  13.824
33859SOL    HW1 3416  10.220  13.675  13.893
33859SOL    HW2 3417  10.114  13.782  13.871
33860SOL     OW 3418   3.524   4.256   0.163
33860SOL    HW1 3419   3.516   4.209   0.246
33860SOL    HW2 3420   3.538   4.347   0.189
33861SOL     OW 3421   9.721   0.370  13.517
33861SOL    HW1 3422   9.741   0.409  13.602
33861SOL    HW2 3423   9.682   0.285  13.538
33862SOL     OW 3424   2.918   5.882   1.611
33862SOL    HW1 3425   2.990   5.895   1.672
33862SOL    HW2 3426   2.898   5.788   1.617
33863SOL     OW 3427  10.218  13.885   3.056
33863SOL    HW1 3428  10.256  13.883   3.144
33863SOL    HW2 3429  10.239  13.972   3.023
33864SOL     OW 3430   5.568  10.385   7.021
33864SOL    HW1 3431   5.606  10.318   6.964
33864SOL    HW2 3432   5.633  10.395   7.091
33865SOL     OW 3433   8.043   2.041  14.462
33865SOL    HW1 3434   7.969   2.086  14.502
33865SOL    HW2 3435   8.039   2.066  14.370
33866SOL     OW 3436   6.198  11.062   1.264
33866SOL    HW1 3437   6.199  11.113   1.183
33866SOL    HW2 3438   6.255  10.987   1.247
33867SOL     OW 3439   0.496  14.515  10.736
33867SOL    HW1 3440   0.444  14.531  10.815
33867SOL    HW2 3441   0.561  14.585  10.735
33868SOL     OW 3442   1.393   9.228   0.450
33868SOL    HW1 3443   1.321   9.176   0.486
33868SOL    HW2 3444   1.461   9.224   0.518
33869SOL     OW 3445  12.801   0.692  12.918
33869SOL    HW1 3446  12.829   0.601  12.911
33869SOL    HW2 3447  12.774   0.716  12.830
33870SOL     OW 3448  12.298  13.898  11.183
33870SOL    HW1 3449  12.270  13.983  11.216
33870SOL    HW2 3450  12.367  13.919  11.119
33871SOL     OW 3451   1.995   3.420   6.579
33871SOL    HW1 3452   1.985   3.513   6.598
33871SOL    HW2 3453   1.958   3.376   6.655
33872SOL     OW 3454   3.093   5.789   8.934
33872SOL    HW1 3455   3.076   5.855   8.867
33872SOL    HW2 3456   3.160   5.827   8.990
33873SOL     OW 3457  14.060  11.514   2.030
33873SOL    HW1 3458  14.038  11.597   1.987
33873SOL    HW2 3459  14.090  11.539   2.117
33874SOL     OW 3460   4.506  14.423  13.298
33874SOL    HW1 3461   4.524  14.499  13.354
33874SOL    HW2 3462   4.464  14.460  13.220
33875SOL     OW 3463   0.043   4.981   9.186
33875SOL    HW1 3464   0.014   4.895   9.155
33875SOL    HW2 3465   0.059   5.031   9.106
33876SOL     OW 3466   8.400   3.990   5.285
33876SOL    HW1 3467   8.454   4.068   5.294
33876SOL    HW2 3468   8.448   3.922   5.333
33877SOL     OW 3469   4.020   1.184   3.164
33877SOL    HW1 3470   4.029   1.093   3.137
33877SOL    HW2 3471   3.985   1.180   3.252
33878SOL     OW 3472  11.148   5.710   2.518
33878SOL    HW1 3473  11.121   5.645   2.453
33878SOL    HW2 3474  11.241   5.723   2.500
33879SOL     OW 3475   3.592   7.672  14.046
33879SOL    HW1 3476   3.497   7.678  14.041
33879SOL    HW2 3477   3.620   7.643  13.959
33880SOL     OW 3478  10.832   4.756  10.680
33880SOL    HW1 3479  10.823   4.669  10.642
33880SOL    HW2 3480  10.783   4.813  10.622
33881SOL     OW 3481   4.650   8.184   2.574
33881SOL    HW1 3482   4.689   8.138   2.649
33881SOL    HW2 3483   4.566   8.217   2.606
33882SOL     OW 3484  14.581  11.121  14.362
33882SOL    HW1 3485  14.579  11.204  14.408
33882SOL    HW2 3486  14.535  11.138  14.279
33883SOL     OW 3487   7.749  13.371   5.455
33883SOL    HW1 3488   7.660  13.352   5.485
33883SOL    HW2 3489   7.782  13.436   5.516
33884SOL     OW 3490   3.183   9.669  10.048
33884SOL    HW1 3491   3.240   9.670   9.971
33884SOL    HW2 3492   3.242   9.659  10.122
33885SOL     OW 3493  12.607   3.486   8.429
33885SOL    HW1 3494  12.556   3.462   8.506
33885SOL    HW2 3495  12.572   3.571   8.402
33886SOL     OW 3496   5.757   6.557   3.232
33886SOL    HW1 3497   5.793   6.627   3.287
33886SOL    HW2 3498   5.795   6.573   3.146
33887SOL     OW 3499   0.498   0.206  14.361
33887SOL    HW1 3500   0.531   0.119  14.338
33887SOL    HW2 3501   0.570   0.266  14.339
33888SOL     OW 3502   1.637  14.016  12.300
33888SOL    HW1 3503   1.670  13.970  12.223
33888SOL    HW2 3504   1.564  14.067  12.268
33889SOL     OW 3505  14.746   9.620   8.642
33889SOL    HW1 3506  14.778   9.533   8.667
33889SOL    HW2 3507  14.679   9.640   8.707
33890SOL     OW 3508   3.735   5.957   3.709
33890SOL    HW1 3509   3.776   6.014   3.773
33890SOL    HW2 3510   3.756   5.996   3.624
33891SOL     OW 3511  12.992  14.844   9.108
33891SOL    HW1 3512  12.998  14.826   9.201
33891SOL    HW2 3513  13.076  14.813   9.072
33892SOL     OW 3514  13.120  12.437  13.032
33892SOL    HW1 3515  13.174  12.367  12.994
33892SOL    HW2 3516  13.124  12.422  13.126
33893SOL     OW 3517   6.318  14.671   0.673
33893SOL    HW1 3518   6.234  14.630   0.689
33893SOL    HW2 3519   6.383  14.608   0.704
33894SOL     OW 3520  12.984  11.635   5.941
33894SOL    HW1 3521  13.070  11.668   5.968
33894SOL    HW2 3522  13.004  11.568   5.876
33895SOL     OW 3523   5.082   0.131   5.260
33895SOL    HW1 3524   5.041   0.218   5.265
33895SOL    HW2 3525   5.152   0.141   5.195
33896SOL     OW 3526  10.130   0.962   6.957
33896SOL    HW1 3527  10.073   0.944   6.882
33896SOL    HW2 3528  10.096   0.906   7.027
33897SOL     OW 3529   4.299   2.592   2.318
33897SOL    HW1 3530   4.299   2.602   2.223
33897SOL    HW2 3531   4.384   2.625   2.346
33898SOL     OW 3532   8.960  14.176   5.693
33898SOL    HW1 3533   9.036  14.233   5.701
33898SOL    HW2 3534   8.914  14.208   5.616
33899SOL     OW 3535   8.755   5.395   9.675
33899SOL    HW1 3536   8.818   5.376   9.744
33899SOL    HW2 3537   8.702   5.467   9.711
33900SOL     OW 3538   6.647   5.748   0.688
33900SOL    HW1 3539   6.739   5.770   0.707
33900SOL    HW2 3540   6.641   5.753   0.592
33901SOL     OW 3541   9.089   5.345   7.005
33901SOL    HW1 3542   9.118   5.255   6.994
33901SOL    HW2 3543   9.126   5.373   7.089
33902SOL     OW 3544   1.365  11.374   9.716
33902SOL    HW1 3545   1.330  11.453   9.756
33902SOL    HW2 3546   1.297  11.308   9.730
33903SOL     OW 3547   5.394  13.163   8.964
33903SOL    HW1 3548   5.367  13.072   8.972
33903SOL    HW2 3549   5.383  13.199   9.052
33904SOL     OW 3550   4.409   2.787   4.096
33904SOL    HW1 3551   4.349   2.828   4.034
33904SOL    HW2 3552   4.352   2.743   4.159
33905SOL     OW 3553   4.053  13.360   3.544
33905SOL    HW1 3554   3.980  13.413   3.511
33905SOL    HW2 3555   4.130  13.415   3.532
33906SOL     OW 3556   5.546   0.681  11.863
33906SOL    HW1 3557   5.618   0.643  11.812
33906SOL    HW2 3558   5.470   0.627  11.841
33907SOL     OW 3559  13.897   8.241   7.261
33907SOL    HW1 3560  13.959   8.252   7.188
33907SOL    HW2 3561  13.946   8.191   7.326
33908SOL     OW 3562  10.660   1.402   1.749
33908SOL    HW1 3563  10.576   1.362   1.773
33908SOL    HW2 3564  10.639   1.494   1.733
33909SOL     OW 3565  13.322  14.167  10.476
33909SOL    HW1 3566  13.278  14.141  10.556
33909SOL    HW2 3567  13.262  14.140  10.406
33910SOL     OW 3568  14.387  12.552   6.319
33910SOL    HW1 3569  14.461  12.613   6.314
33910SOL    HW2 3570  14.357  12.559   6.410
33911SOL     OW 3571   5.020  12.854   6.806
33911SOL    HW1 3572   5.094  12.857   6.867
33911SOL    HW2 3573   5.001  12.761   6.796
33912SOL     OW 3574  13.930  11.497  14.401
33912SOL    HW1 3575  13.846  11.528  14.369
33912SOL    HW2 3576  13.970  11.574  14.441
33913SOL     OW 3577   4.322   4.133  11.527
33913SOL    HW1 3578   4.383   4.133  11.601
33913SOL    HW2 3579   4.317   4.041  11.500
33914SOL     OW 3580  13.355  14.475  10.620
33914SOL    HW1 3581  13.289  14.423  10.573
33914SOL    HW2 3582  13.403  14.521  10.551
33915SOL     OW 3583  10.861   8.866  14.303
33915SOL    HW1 3584  10.879   8.774  14.280
33915SOL    HW2 3585  10.771   8.866  14.336
33916SOL     OW 3586   8.520   2.713   9.738
33916SOL    HW1 3587   8.607   2.699   9.701
33916SOL    HW2 3588   8.465   2.733   9.662
33917SOL     OW 3589   9.289   2.213  14.582
33917SOL    HW1 3590   9.216   2.164  14.545
33917SOL    HW2 3591   9.316   2.274  14.513
33918SOL     OW 3592   6.288   8.641  13.690
33918SOL    HW1 3593   6.215   8.633  13.752
33918SOL    HW2 3594   6.257   8.597  13.611
33919SOL     OW 3595   4.631  12.289   7.608
33919SOL    HW1 3596   4.695  12.287   7.537
33919SOL    HW2 3597   4.572  12.361   7.584
33920SOL     OW 3598  10.249   4.421  10.522
33920SOL    HW1 3599  10.268   4.450  10.611
33920SOL    HW2 3600  10.199   4.493  10.483
33921SOL     OW 3601   6.579  11.105  13.793
33921SOL    HW1 3602   6.491  11.080  13.765
33921SOL    HW2 3603   6.596  11.053  13.871
33922SOL     OW 3604  14.213  14.162   7.710
33922SOL    HW1 3605  14.226  14.234   7.772
33922SOL    HW2 3606  14.119  14.153   7.702
33923SOL     OW 3607   1.737   9.424   7.783
33923SOL    HW1 3608   1.784   9.479   7.844
33923SOL    HW2 3609   1.758   9.334   7.810
33924SOL     OW 3610  13.068   4.158  14.323
33924SOL    HW1 3611  13.076   4.183  14.231
33924SOL    HW2 3612  13.037   4.238  14.367
33925SOL     OW 3613   0.790  14.145  13.835
33925SOL    HW1 3614   0.711  14.138  13.889
33925SOL    HW2 3615   0.852  14.083  13.875
33926SOL     OW 3616   0.529   1.014   3.875
33926SOL    HW1 3617   0.495   1.044   3.960
33926SOL    HW2 3618   0.563   1.092   3.834
33927SOL     OW 3619   1.061   1.948   7.375
33927SOL    HW1 3620   1.070   1.970   7.468
33927SOL    HW2 3621   0.968   1.932   7.363
33928SOL     OW 3622   2.352   4.541  10.081
33928SOL    HW1 3623   2.374   4.583   9.998
33928SOL    HW2 3624   2.393   4.596  10.147
33929SOL     OW 3625  14.202   6.386   8.465
33929SOL    HW1 3626  14.158   6.470   8.452
33929SOL    HW2 3627  14.237   6.391   8.553
33930SOL     OW 3628  10.472   2.925   8.992
33930SOL    HW1 3629  10.414   2.951   9.063
33930SOL    HW2 3630  10.415   2.881   8.929
33931SOL     OW 3631   5.151  14.559   6.778
33931SOL    HW1 3632   5.192  14.520   6.702
33931SOL    HW2 3633   5.067  14.514   6.786
33932SOL     OW 3634   9.132   6.310  11.344
33932SOL    HW1 3635   9.098   6.336  11.429
33932SOL    HW2 3636   9.073   6.241  11.314
33933SOL     OW 3637   6.181   6.267   8.511
33933SOL    HW1 3638   6.225   6.184   8.525
33933SOL    HW2 3639   6.206   6.292   8.422
33934SOL     OW 3640  10.267  13.143   2.022
33934SOL    HW1 3641  10.201  13.089   1.978
33934SOL    HW2 3642  10.217  13.196   2.084
33935SOL     OW 3643   2.439   2.710   3.801
33935SOL    HW1 3644   2.530   2.683   3.815
33935SOL    HW2 3645   2.445   2.801   3.773
33936SOL     OW 3646   7.041   5.000   8.150
33936SOL    HW1 3647   7.053   5.069   8.215
33936SOL    HW2 3648   7.094   5.028   8.075
33937SOL     OW 3649   8.014   1.259   9.330
33937SOL    HW1 3650   7.934   1.279   9.379
33937SOL    HW2 3651   8.059   1.194   9.384
33938SOL     OW 3652  10.837  11.315   4.278
33938SOL    HW1 3653  10.748  11.287   4.259
33938SOL    HW2 3654  10.889  11.284   4.204
33939SOL     OW 3655   4.623   1.620   0.612
33939SOL    HW1 3656   4.713   1.645   0.634
33939SOL    HW2 3657   4.570   1.658   0.683
33940SOL     OW 3658   9.062   6.327   7.214
33940SOL    HW1 3659   9.109   6.378   7.279
33940SOL    HW2 3660   9.121   6.324   7.139
33941SOL     OW 3661  13.924   2.028   6.268
33941SOL    HW1 3662  13.998   2.013   6.327
33941SOL    HW2 3663  13.847   2.031   6.326
33942SOL     OW 3664   8.609  12.058   2.908
33942SOL    HW1 3665   8.535  12.056   2.847
33942SOL    HW2 3666   8.674  12.114   2.865
33943SOL     OW 3667  11.650   2.721   0.085
33943SOL    HW1 3668  11.573   2.701   0.139
33943SOL    HW2 3669  11.653   2.817   0.082
33944SOL     OW 3670   4.577   5.052   0.859
33944SOL    HW1 3671   4.658   5.005   0.878
33944SOL    HW2 3672   4.597   5.144   0.880
33945SOL     OW 3673  11.945   1.246   7.202
33945SOL    HW1 3674  11.893   1.320   7.170
33945SOL    HW2 3675  12.032   1.283   7.218
33946SOL     OW 3676   9.497  12.274   7.614
33946SOL    HW1 3677   9.544  12.207   7.564
33946SOL    HW2 3678   9.447  12.226   7.679
33947SOL     OW 3679   9.008  14.860   4.616
33947SOL    HW1 3680   9.005   0.044   4.540
33947SOL    HW2 3681   9.101  14.835   4.623
33948SOL     OW 3682   9.385  13.713   5.284
33948SOL    HW1 3683   9.377  13.771   5.208
33948SOL    HW2 3684   9.479  13.714   5.305
33949SOL     OW 3685  12.774  13.873   0.088
33949SOL    HW1 3686  12.695  13.853   0.037
33949SOL    HW2 3687  12.766  13.966   0.109
33950SOL     OW 3688   2.421   3.043   7.008
33950SOL    HW1 3689   2.349   3.000   7.053
33950SOL    HW2 3690   2.409   3.020   6.916
33951SOL     OW 3691   6.873   1.956   1.528
33951SOL    HW1 3692   6.825   1.977   1.608
33951SOL    HW2 3693   6.805   1.926   1.467
33952SOL     OW 3694   1.270   4.781  12.927
33952SOL    HW1 3695   1.262   4.800  12.834
33952SOL    HW2 3696   1.293   4.688  12.931
33953SOL     OW 3697   9.713   7.991   8.515
33953SOL    HW1 3698   9.665   7.922   8.561
33953SOL    HW2 3699   9.805   7.975   8.536
33954SOL     OW 3700   9.418   5.476   1.037
33954SOL    HW1 3701   9.343   5.418   1.023
33954SOL    HW2 3702   9.413   5.499   1.130
33955SOL     OW 3703   7.321   9.985   5.649
33955SOL    HW1 3704   7.369  10.042   5.589
33955SOL    HW2 3705   7.352   9.897   5.629
33956SOL     OW 3706   5.960  10.157   7.819
33956SOL    HW1 3707   6.053  10.135   7.813
33956SOL    HW2 3708   5.915  10.076   7.795
33957SOL     OW 3709  14.508   8.896   9.356
33957SOL    HW1 3710  14.570   8.902   9.283
33957SOL    HW2 3711  14.486   8.987   9.376
33958SOL     OW 3712  11.051   9.718  12.025
33958SOL    HW1 3713  10.990   9.758  12.088
33958SOL    HW2 3714  11.122   9.684  12.080
33959SOL     OW 3715   5.763   6.937   2.416
33959SOL    HW1 3716   5.831   6.873   2.393
33959SOL    HW2 3717   5.804   6.992   2.483
33960SOL     OW 3718   3.433  12.225   9.297
33960SOL    HW1 3719   3.491  12.282   9.246
33960SOL    HW2 3720   3.347  12.235   9.257
33961SOL     OW 3721   0.256   0.280   2.777
33961SOL    HW1 3722   0.322   0.280   2.847
33961SOL    HW2 3723   0.178   0.242   2.818
33962SOL     OW 3724  14.064  14.508   4.744
33962SOL    HW1 3725  14.113  14.590   4.757
33962SOL    HW2 3726  13.989  14.515   4.802
33963SOL     OW 3727   1.727   3.426   2.105
33963SOL    HW1 3728   1.734   3.427   2.200
33963SOL    HW2 3729   1.746   3.336   2.080
33964SOL     OW 3730  13.755  12.883  13.615
33964SOL    HW1 3731  13.777  12.886  13.709
33964SOL    HW2 3732  13.840  12.870  13.572
33965SOL     OW 3733  12.184   9.670   8.355
33965SOL    HW1 3734  12.184   9.687   8.261
33965SOL    HW2 3735  12.274   9.646   8.375
33966SOL     OW 3736   4.344   0.535   2.512
33966SOL    HW1 3737   4.322   0.579   2.595
33966SOL    HW2 3738   4.299   0.586   2.445
33967SOL     OW 3739   7.451   0.902  14.072
33967SOL    HW1 3740   7.543   0.926  14.078
33967SOL    HW2 3741   7.414   0.967  14.012
33968SOL     OW 3742   8.781   5.729   3.411
33968SOL    HW1 3743   8.715   5.679   3.363
33968SOL    HW2 3744   8.732   5.771   3.482
33969SOL     OW 3745   8.174   0.759   0.691
33969SOL    HW1 3746   8.156   0.687   0.630
33969SOL    HW2 3747   8.258   0.795   0.662
33970SOL     OW 3748   3.140   8.078   2.227
33970SOL    HW1 3749   3.059   8.036   2.199
33970SOL    HW2 3750   3.210   8.030   2.182
33971SOL     OW 3751   6.016  10.675   0.395
33971SOL    HW1 3752   6.020  10.584   0.424
33971SOL    HW2 3753   6.040  10.672   0.302
33972SOL     OW 3754   0.556  12.412   6.533
33972SOL    HW1 3755   0.509  12.336   6.499
33972SOL    HW2 3756   0.614  12.377   6.600
33973SOL     OW 3757   9.078   5.543  11.781
33973SOL    HW1 3758   9.009   5.586  11.730
33973SOL    HW2 3759   9.120   5.615  11.828
33974SOL     OW 3760  14.324   5.272   0.483
33974SOL    HW1 3761  14.398   5.322   0.448
33974SOL    HW2 3762  14.318   5.195   0.427
33975SOL     OW 3763   0.539  14.472  10.484
33975SOL    HW1 3764   0.528  14.498  10.575
33975SOL    HW2 3765   0.616  14.416  10.483
33976SOL     OW 3766  12.118   4.389   5.812
33976SOL    HW1 3767  12.031   4.377   5.775
33976SOL    HW2 3768  12.155   4.301   5.816
33977SOL     OW 3769   3.485   6.130   2.231
33977SOL    HW1 3770   3.500   6.039   2.256
33977SOL    HW2 3771   3.391   6.135   2.212
33978SOL     OW 3772   1.594  14.868   0.761
33978SOL    HW1 3773   1.684  14.873   0.729
33978SOL    HW2 3774   1.544  14.834   0.687
33979SOL     OW 3775   7.951   4.923   8.375
33979SOL    HW1 3776   7.912   4.910   8.462
33979SOL    HW2 3777   8.017   4.854   8.368
33980SOL     OW 3778  11.318   8.438   4.443
33980SOL    HW1 3779  11.341   8.525   4.408
33980SOL    HW2 3780  11.347   8.442   4.535
33981SOL     OW 3781   9.989   8.029  12.790
33981SOL    HW1 3782   9.980   8.034  12.695
33981SOL    HW2 3783  10.035   7.947  12.805
33982SOL     OW 3784   3.846   7.411  13.413
33982SOL    HW1 3785   3.796   7.347  13.362
33982SOL    HW2 3786   3.810   7.405  13.501
33983SOL     OW 3787  13.849   9.009   6.985
33983SOL    HW1 3788  13.793   8.985   6.911
33983SOL    HW2 3789  13.829   9.101   7.002
33984SOL     OW 3790   4.247  13.812   7.526
33984SOL    HW1 3791   4.186  13.738   7.521
33984SOL    HW2 3792   4.316  13.783   7.585
33985SOL     OW 3793  12.073   4.153   7.152
33985SOL    HW1 3794  11.982   4.157   7.121
33985SOL    HW2 3795  12.070   4.095   7.228
33986SOL     OW 3796  11.742   0.990  10.234
33986SOL    HW1 3797  11.694   0.976  10.316
33986SOL    HW2 3798  11.791   0.909  10.221
33987SOL     OW 3799   4.146   9.550   1.349
33987SOL    HW1 3800   4.225   9.596   1.322
33987SOL    HW2 3801   4.125   9.492   1.276
33988SOL     OW 3802  13.151   1.652  10.988
33988SOL    HW1 3803  13.095   1.612  10.922
33988SOL    HW2 3804  13.093   1.715  11.033
33989SOL     OW 3805   5.783  13.316  14.194
33989SOL    HW1 3806   5.819  13.330  14.282
33989SOL    HW2 3807   5.716  13.383  14.184
33990SOL     OW 3808   5.702   0.221   3.993
33990SOL    HW1 3809   5.687   0.301   4.044
33990SOL    HW2 3810   5.682   0.150   4.054
33991SOL     OW 3811   7.512   4.475   0.474
33991SOL    HW1 3812   7.579   4.530   0.514
33991SOL    HW2 3813   7.546   4.386   0.481
33992SOL     OW 3814   7.851   8.052   0.885
33992SOL    HW1 3815   7.942   8.079   0.874
33992SOL    HW2 3816   7.800   8.118   0.836
33993SOL     OW 3817   6.989   2.648  11.847
33993SOL    HW1 3818   6.927   2.593  11.799
33993SOL    HW2 3819   6.991   2.611  11.935
33994SOL     OW 3820  10.161   8.711   0.655
33994SOL    HW1 3821  10.236   8.654   0.639
33994SOL    HW2 3822  10.169   8.737   0.747
33995SOL     OW 3823   7.444   5.016   4.591
33995SOL    HW1 3824   7.398   4.947   4.544
33995SOL    HW2 3825   7.375   5.076   4.619
33996SOL     OW 3826  10.388   9.651   7.560
33996SOL    HW1 3827  10.383   9.735   7.606
33996SOL    HW2 3828  10.308   9.604   7.586
33997SOL     OW 3829   4.882   5.870   2.708
33997SOL    HW1 3830   4.895   5.779   2.681
33997SOL    HW2 3831   4.969   5.910   2.701
33998SOL     OW 3832  13.367   2.296   9.004
33998SOL    HW1 3833  13.277   2.264   9.015
33998SOL    HW2 3834  13.359   2.366   8.939
33999SOL     OW 3835  11.089  12.073   0.631
33999SOL    HW1 3836  11.165  12.056   0.575
33999SOL    HW2 3837  11.044  11.989   0.637
34000SOL     OW 3838  12.673   5.147   3.036
34000SOL    HW1 3839  12.648   5.064   2.995
34000SOL    HW2 3840  12.590   5.190   3.056
34001SOL     OW 3841  12.514   3.426   2.203
34001SOL    HW1 3842  12.451   3.489   2.238
34001SOL    HW2 3843  12.515   3.442   2.108
34002SOL     OW 3844   1.697   6.661   2.912
34002SOL    HW1 3845   1.704   6.711   2.994
34002SOL    HW2 3846   1.787   6.637   2.891
34003SOL     OW 3847  14.523   3.322   5.602
34003SOL    HW1 3848  14.502   3.415   5.613
34003SOL    HW2 3849  14.584   3.320   5.529
34004SOL     OW 3850  14.566   0.646   7.380
34004SOL    HW1 3851  14.521   0.595   7.448
34004SOL    HW2 3852  14.541   0.737   7.397
34005SOL     OW 3853   0.135   1.486  13.795
34005SOL    HW1 3854   0.199   1.443  13.852
34005SOL    HW2 3855   0.187   1.524  13.724
34006SOL     OW 3856   9.216  12.006   5.355
34006SOL    HW1 3857   9.127  12.008   5.319
34006SOL    HW2 3858   9.263  12.074   5.307
34007SOL     OW 3859   0.600   1.981   4.677
34007SOL    HW1 3860   0.655   1.904   4.665
34007SOL    HW2 3861   0.574   2.006   4.588
34008SOL     OW 3862   6.430  14.529  12.802
34008SOL    HW1 3863   6.466  14.498  12.885
34008SOL    HW2 3864   6.505  14.568  12.756
34009SOL     OW 3865   9.202  11.510   9.242
34009SOL    HW1 3866   9.150  11.486   9.319
34009SOL    HW2 3867   9.162  11.591   9.211
34010SOL     OW 3868  14.188   9.089  13.125
34010SOL    HW1 3869  14.259   9.112  13.066
34010SOL    HW2 3870  14.177   8.994  13.112
34011SOL     OW 3871   8.652   4.078  13.334
34011SOL    HW1 3872   8.576   4.116  13.291
34011SOL    HW2 3873   8.636   3.984  13.334
34012SOL     OW 3874  12.177   5.120   4.345
34012SOL    HW1 3875  12.135   5.121   4.431
34012SOL    HW2 3876  12.189   5.027   4.325
34013SOL     OW 3877   9.015   2.139   4.638
34013SOL    HW1 3878   8.942   2.194   4.612
34013SOL    HW2 3879   9.091   2.177   4.592
34014SOL     OW 3880   0.131  14.094   2.567
34014SOL    HW1 3881   0.191  14.131   2.632
34014SOL    HW2 3882   0.120  14.164   2.502
34015SOL     OW 3883   1.936  13.027   8.894
34015SOL    HW1 3884   2.018  13.039   8.847
34015SOL    HW2 3885   1.904  13.116   8.910
34016SOL     OW 3886  13.102   9.129   7.142
34016SOL    HW1 3887  13.183   9.111   7.094
34016SOL    HW2 3888  13.068   9.043   7.166
34017SOL     OW 3889   6.653   8.940  10.178
34017SOL    HW1 3890   6.721   8.879  10.148
34017SOL    HW2 3891   6.609   8.969  10.099
34018SOL     OW 3892   9.716   4.170  10.260
34018SOL    HW1 3893   9.762   4.253  10.255
34018SOL    HW2 3894   9.623   4.193  10.250
34019SOL     OW 3895   2.630  12.128  11.704
34019SOL    HW1 3896   2.661  12.215  11.729
34019SOL    HW2 3897   2.535  12.133  11.711
34020SOL     OW 3898  10.207   0.391   3.591
34020SOL    HW1 3899  10.174   0.347   3.513
34020SOL    HW2 3900  10.293   0.351   3.607
34021SOL     OW 3901   9.328   1.748  13.198
34021SOL    HW1 3902   9.276   1.688  13.143
34021SOL    HW2 3903   9.274   1.761  13.276
34022SOL     OW 3904  14.283   2.169  10.288
34022SOL    HW1 3905  14.189   2.161  10.270
34022SOL    HW2 3906  14.296   2.118  10.367
34023SOL     OW 3907   4.838   1.870   3.700
34023SOL    HW1 3908   4.771   1.937   3.715
34023SOL    HW2 3909   4.854   1.874   3.605
34024SOL     OW 3910  10.751   3.841   7.566
34024SOL    HW1 3911  10.730   3.854   7.659
34024SOL    HW2 3912  10.707   3.913   7.521
34025SOL     OW 3913   1.727  10.407   3.084
34025SOL    HW1 3914   1.793  10.378   3.021
34025SOL    HW2 3915   1.723  10.502   3.073
34026SOL     OW 3916   9.367  14.734   5.021
34026SOL    HW1 3917   9.405  14.669   4.962
34026SOL    HW2 3918   9.305  14.782   4.966
34027SOL     OW 3919  10.811   6.854  14.668
34027SOL    HW1 3920  10.827   6.770  14.709
34027SOL    HW2 3921  10.855   6.849  14.583
34028SOL     OW 3922   3.691   9.420   8.998
34028SOL    HW1 3923   3.679   9.444   9.090
34028SOL    HW2 3924   3.759   9.352   9.000
34029SOL     OW 3925  14.705   4.445   0.616
34029SOL    HW1 3926  14.763   4.508   0.659
34029SOL    HW2 3927  14.751   4.421   0.536
34030SOL     OW 3928   9.620   3.598  12.058
34030SOL    HW1 3929   9.596   3.689  12.076
34030SOL    HW2 3930   9.551   3.566  12.000
34031SOL     OW 3931  12.251   7.787  14.544
34031SOL    HW1 3932  12.325   7.790  14.485
34031SOL    HW2 3933  12.290   7.790  14.632
34032SOL     OW 3934  10.281   8.979   1.365
34032SOL    HW1 3935  10.234   9.036   1.304
34032SOL    HW2 3936  10.359   8.951   1.317
34033SOL     OW 3937   3.382  13.787  10.204
34033SOL    HW1 3938   3.401  13.870  10.247
34033SOL    HW2 3939   3.380  13.809  10.111
34034SOL     OW 3940   2.364  13.208   9.627
34034SOL    HW1 3941   2.410  13.235   9.707
34034SOL    HW2 3942   2.289  13.268   9.623
34035SOL     OW 3943   1.716   2.290   8.240
34035SOL    HW1 3944   1.661   2.226   8.286
34035SOL    HW2 3945   1.748   2.348   8.309
34036SOL     OW 3946   1.078  14.689   7.214
34036SOL    HW1 3947   1.083  14.783   7.234
34036SOL    HW2 3948   1.106  14.683   7.122
34037SOL     OW 3949   3.252  10.098   7.396
34037SOL    HW1 3950   3.248  10.004   7.413
34037SOL    HW2 3951   3.213  10.107   7.309
34038SOL     OW 3952  11.486   7.983  14.772
34038SOL    HW1 3953  11.410   8.011  14.823
34038SOL    HW2 3954  11.484   8.038  14.694
34039SOL     OW 3955  12.809  12.776  12.120
34039SOL    HW1 3956  12.889  12.746  12.163
34039SOL    HW2 3957  12.744  12.781  12.190
34040SOL     OW 3958  10.333   7.939   0.947
34040SOL    HW1 3959  10.342   7.849   0.917
34040SOL    HW2 3960  10.281   7.932   1.027
34041SOL     OW 3961   5.631  11.740   6.046
34041SOL    HW1 3962   5.602  11.764   5.958
34041SOL    HW2 3963   5.574  11.668   6.071
34042SOL     OW 3964  10.535   9.494   8.657
34042SOL    HW1 3965  10.571   9.527   8.574
34042SOL    HW2 3966  10.605   9.506   8.720
34043SOL     OW 3967   9.516   0.155  12.827
34043SOL    HW1 3968   9.559   0.100  12.893
34043SOL    HW2 3969   9.588   0.206  12.789
34044SOL     OW 3970  11.630   8.601  11.746
34044SOL    HW1 3971  11.689   8.526  11.759
34044SOL    HW2 3972  11.620   8.639  11.833
34045SOL     OW 3973  11.513  12.466  11.647
34045SOL    HW1 3974  11.477  12.379  11.667
34045SOL    HW2 3975  11.607  12.451  11.638
34046SOL     OW 3976   0.236   0.263   5.440
34046SOL    HW1 3977   0.291   0.238   5.514
34046SOL    HW2 3978   0.197   0.347   5.466
34047SOL     OW 3979   1.370   6.489  14.543
34047SOL    HW1 3980   1.460   6.522  14.543
34047SOL    HW2 3981   1.372   6.415  14.484
34048SOL     OW 3982  13.829   2.057  10.570
34048SOL    HW1 3983  13.773   2.048  10.647
34048SOL    HW2 3984  13.796   2.134  10.524
34049SOL     OW 3985  10.581   7.816  10.593
34049SOL    HW1 3986  10.554   7.884  10.531
34049SOL    HW2 3987  10.522   7.826  10.667
34050SOL     OW 3988   1.263  10.110   1.480
34050SOL    HW1 3989   1.343  10.112   1.532
34050SOL    HW2 3990   1.193  10.103   1.545
34051SOL     OW 3991  14.675   7.985  13.220
34051SOL    HW1 3992  14.602   8.037  13.184
34051SOL    HW2 3993  14.748   8.047  13.224
34052SOL     OW 3994  11.902   3.755   7.300
34052SOL    HW1 3995  11.916   3.706   7.381
34052SOL    HW2 3996  11.939   3.699   7.231
34053SOL     OW 3997  11.070   1.579  10.386
34053SOL    HW1 3998  11.005   1.526  10.432
34053SOL    HW2 3999  11.083   1.533  10.302
34054SOL     OW 4000   2.587   7.898   1.667
34054SOL    HW1 4001   2.560   7.809   1.688
34054SOL    HW2 4002   2.641   7.889   1.589
34055SOL     OW 4003  10.134   6.143  10.476
34055SOL    HW1 4004  10.045   6.138  10.444
34055SOL    HW2 4005  10.178   6.067  10.438
34056SOL     OW 4006   4.440   3.517   7.506
34056SOL    HW1 4007   4.536   3.517   7.505
34056SOL    HW2 4008   4.416   3.606   7.530
34057SOL     OW 4009  11.192   0.428  14.043
34057SOL    HW1 4010  11.283   0.399  14.040
34057SOL    HW2 4011  11.191   0.508  13.989
34058SOL     OW 4012   4.615  13.424  14.131
34058SOL    HW1 4013   4.599  13.347  14.076
34058SOL    HW2 4014   4.561  13.410  14.208
34059SOL     OW 4015   0.612   3.601   1.618
34059SOL    HW1 4016   0.571   3.644   1.693
34059SOL    HW2 4017   0.704   3.625   1.623
34060SOL     OW 4018  11.340   1.951   8.228
34060SOL    HW1 4019  11.383   2.034   8.250
34060SOL    HW2 4020  11.247   1.970   8.234
34061SOL     OW 4021   5.997   2.700  12.832
34061SOL    HW1 4022   5.937   2.654  12.891
34061SOL    HW2 4023   5.982   2.660  12.747
34062SOL     OW 4024   8.531  12.583   5.210
34062SOL    HW1 4025   8.610  12.631   5.186
34062SOL    HW2 4026   8.459  12.634   5.174
34063SOL     OW 4027   1.502  14.473   8.586
34063SOL    HW1 4028   1.455  14.411   8.641
34063SOL    HW2 4029   1.591  14.438   8.580
34064SOL     OW 4030   5.103   7.801   7.606
34064SOL    HW1 4031   5.100   7.805   7.701
34064SOL    HW2 4032   5.046   7.872   7.576
34065SOL     OW 4033  10.715   9.813   3.057
34065SOL    HW1 4034  10.785   9.775   3.004
34065SOL    HW2 4035  10.638   9.761   3.034
34066SOL     OW 4036   1.024   5.329   9.496
34066SOL    HW1 4037   0.977   5.341   9.413
34066SOL    HW2 4038   1.115   5.350   9.474
34067SOL     OW 4039   8.902   4.018  11.826
34067SOL    HW1 4040   8.826   4.034  11.882
34067SOL    HW2 4041   8.941   3.937  11.861
34068SOL     OW 4042   6.244  14.227   4.377
34068SOL    HW1 4043   6.205  14.313   4.387
34068SOL    HW2 4044   6.169  14.169   4.360
34069SOL     OW 4045  10.659   3.392   4.164
34069SOL    HW1 4046  10.740   3.374   4.116
34069SOL    HW2 4047  10.652   3.320   4.226
34070SOL     OW 4048  11.029  11.976  11.676
34070SOL    HW1 4049  11.023  11.880  11.683
34070SOL    HW2 4050  10.938  12.005  11.668
34071SOL     OW 4051  12.015   7.585   8.303
34071SOL    HW1 4052  12.050   7.651   8.361
34071SOL    HW2 4053  12.074   7.585   8.227
34072SOL     OW 4054  11.057   8.278  10.502
34072SOL    HW1 4055  10.981   8.222  10.520
34072SOL    HW2 4056  11.048   8.301  10.409
34073SOL     OW 4057   5.765  14.155  13.014
34073SOL    HW1 4058   5.696  14.179  13.076
34073SOL    HW2 4059   5.815  14.087  13.058
34074SOL     OW 4060   5.524   9.368   2.749
34074SOL    HW1 4061   5.459   9.377   2.820
34074SOL    HW2 4062   5.603   9.410   2.784
34075SOL     OW 4063   0.947   8.597  10.190
34075SOL    HW1 4064   0.859   8.567  10.212
34075SOL    HW2 4065   1.004   8.523  10.214
34076SOL     OW 4066  10.699   0.799   8.274
34076SOL    HW1 4067  10.716   0.720   8.223
34076SOL    HW2 4068  10.708   0.771   8.365
34077SOL     OW 4069  11.939   4.214   6.912
34077SOL    HW1 4070  11.870   4.165   6.957
34077SOL    HW2 4071  11.980   4.151   6.853
34078SOL     OW 4072  13.255  12.542   1.627
34078SOL    HW1 4073  13.317  12.475   1.597
34078SOL    HW2 4074  13.189  12.546   1.559
34079SOL     OW 4075   8.238   1.586   7.526
34079SOL    HW1 4076   8.291   1.566   7.449
34079SOL    HW2 4077   8.176   1.513   7.532
34080SOL     OW 4078   3.714  14.489   3.391
34080SOL    HW1 4079   3.689  14.562   3.335
34080SOL    HW2 4080   3.710  14.525   3.480
34081SOL     OW 4081   0.520   8.936   2.909
34081SOL    HW1 4082   0.452   8.991   2.870
34081SOL    HW2 4083   0.475   8.853   2.928
34082SOL     OW 4084   1.871  11.302  10.979
34082SOL    HW1 4085   1.815  11.240  11.026
34082SOL    HW2 4086   1.932  11.334  11.045
34083SOL     OW 4087  10.259   3.562  10.548
34083SOL    HW1 4088  10.334   3.507  10.527
34083SOL    HW2 4089  10.213   3.515  10.618
34084SOL     OW 4090   1.402  11.158  11.535
34084SOL    HW1 4091   1.478  11.205  11.501
34084SOL    HW2 4092   1.436  11.108  11.609
34085SOL     OW 4093  14.555   1.189   3.363
34085SOL    HW1 4094  14.531   1.126   3.296
34085SOL    HW2 4095  14.618   1.248   3.320
34086SOL     OW 4096  13.070   3.282   1.414
34086SOL    HW1 4097  13.137   3.275   1.482
34086SOL    HW2 4098  13.089   3.364   1.369
34087SOL     OW 4099  10.379  10.608  11.701
34087SOL    HW1 4100  10.362  10.603  11.795
34087SOL    HW2 4101  10.392  10.517  11.674
34088SOL     OW 4102   2.243   0.774   9.857
34088SOL    HW1 4103   2.203   0.688   9.872
34088SOL    HW2 4104   2.337   0.757   9.851
34089SOL     OW 4105   9.810   4.359   9.023
34089SOL    HW1 4106   9.817   4.359   8.928
34089SOL    HW2 4107   9.725   4.399   9.041
34090SOL     OW 4108   7.833   3.585  12.032
34090SOL    HW1 4109   7.844   3.662  11.976
34090SOL    HW2 4110   7.811   3.515  11.971
34091SOL     OW 4111  12.939   3.942   6.919
34091SOL    HW1 4112  12.982   3.887   6.854
34091SOL    HW2 4113  12.938   4.029   6.880
34092SOL     OW 4114   0.517  13.849  14.558
34092SOL    HW1 4115   0.423  13.852  14.576
34092SOL    HW2 4116   0.555  13.806  14.635
34093SOL     OW 4117   6.721  13.615   1.884
34093SOL    HW1 4118   6.808  13.640   1.913
34093SOL    HW2 4119   6.724  13.623   1.789
34094SOL     OW 4120   2.642   9.156   0.147
34094SOL    HW1 4121   2.728   9.153   0.188
34094SOL    HW2 4122   2.648   9.094   0.075
34095SOL     OW 4123  14.189  13.502  13.170
34095SOL    HW1 4124  14.123  13.568  13.192
34095SOL    HW2 4125  14.207  13.458  13.254
34096SOL     OW 4126   3.538   5.268   3.856
34096SOL    HW1 4127   3.510   5.290   3.767
34096SOL    HW2 4128   3.509   5.178   3.869
34097SOL     OW 4129   4.161  12.089  11.255
34097SOL    HW1 4130   4.116  12.174  11.264
34097SOL    HW2 4131   4.186  12.066  11.344
34098SOL     OW 4132  14.173   2.059   6.100
34098SOL    HW1 4133  14.169   1.984   6.160
34098SOL    HW2 4134  14.082   2.076   6.078
34099SOL     OW 4135  14.235   1.305   6.350
34099SOL    HW1 4136  14.189   1.256   6.420
34099SOL    HW2 4137  14.279   1.376   6.396
34100SOL     OW 4138   4.014  13.785   8.397
34100SOL    HW1 4139   3.978  13.873   8.406
34100SOL    HW2 4140   4.102  13.791   8.434
34101SOL     OW 4141  10.638   6.366  14.801
34101SOL    HW1 4142  10.598   6.389   0.011
34101SOL    HW2 4143  10.571   6.316  14.755
34102SOL     OW 4144  10.036   1.470   3.635
34102SOL    HW1 4145  10.011   1.537   3.572
34102SOL    HW2 4146  10.100   1.416   3.589
34103SOL     OW 4147  11.479   0.344   1.819
34103SOL    HW1 4148  11.531   0.291   1.879
34103SOL    HW2 4149  11.462   0.286   1.744
34104SOL     OW 4150  12.775   9.625   3.788
34104SOL    HW1 4151  12.840   9.652   3.723
34104SOL    HW2 4152  12.746   9.707   3.828
34105SOL     OW 4153  11.192   9.051   5.401
34105SOL    HW1 4154  11.171   9.116   5.333
34105SOL    HW2 4155  11.250   9.098   5.461
34106SOL     OW 4156   2.372   7.853   8.422
34106SOL    HW1 4157   2.405   7.923   8.365
34106SOL    HW2 4158   2.451   7.814   8.459
34107SOL     OW 4159   5.537   3.377   4.481
34107SOL    HW1 4160   5.570   3.312   4.420
34107SOL    HW2 4161   5.472   3.427   4.431
34108SOL     OW 4162   7.981  14.529   0.437
34108SOL    HW1 4163   7.977  14.585   0.360
34108SOL    HW2 4164   8.064  14.552   0.479
34109SOL     OW 4165   9.961  11.959   4.492
34109SOL    HW1 4166   9.868  11.936   4.487
34109SOL    HW2 4167   9.968  12.012   4.571
34110SOL     OW 4168   0.863   7.058   0.025
34110SOL    HW1 4169   0.877   6.984  14.840
34110SOL    HW2 4170   0.898   7.133  14.853
34111SOL     OW 4171   1.296   0.650   9.264
34111SOL    HW1 4172   1.362   0.715   9.288
34111SOL    HW2 4173   1.337   0.601   9.193
34112SOL     OW 4174   9.216  12.113   2.231
34112SOL    HW1 4175   9.249  12.190   2.186
34112SOL    HW2 4176   9.202  12.142   2.321
34113SOL     OW 4177  11.811  14.853   6.071
34113SOL    HW1 4178  11.743  14.858   6.003
34113SOL    HW2 4179  11.827   0.069   6.096
34114SOL     OW 4180   5.142   3.445   6.118
34114SOL    HW1 4181   5.092   3.371   6.154
34114SOL    HW2 4182   5.093   3.471   6.040
34115SOL     OW 4183   2.991   1.649  11.654
34115SOL    HW1 4184   3.050   1.577  11.676
34115SOL    HW2 4185   2.910   1.606  11.627
34116SOL     OW 4186  12.747   2.654   1.310
34116SOL    HW1 4187  12.808   2.580   1.307
34116SOL    HW2 4188  12.717   2.665   1.220
34117SOL     OW 4189  10.202   5.262  10.527
34117SOL    HW1 4190  10.195   5.316  10.606
34117SOL    HW2 4191  10.287   5.284  10.490
34118SOL     OW 4192   6.532  11.669   5.714
34118SOL    HW1 4193   6.482  11.597   5.676
34118SOL    HW2 4194   6.603  11.684   5.651
34119SOL     OW 4195   3.852   9.030  13.491
34119SOL    HW1 4196   3.939   9.000  13.518
34119SOL    HW2 4197   3.800   8.949  13.489
34120SOL     OW 4198   7.984  12.581  12.077
34120SOL    HW1 4199   7.978  12.643  12.004
34120SOL    HW2 4200   8.060  12.610  12.127
34121SOL     OW 4201   9.291   9.538   3.878
34121SOL    HW1 4202   9.284   9.443   3.878
34121SOL    HW2 4203   9.215   9.569   3.829
34122SOL     OW 4204  13.918   2.983  13.742
34122SOL    HW1 4205  13.892   2.954  13.654
34122SOL    HW2 4206  13.835   2.994  13.788
34123SOL     OW 4207   7.101  11.335  14.445
34123SOL    HW1 4208   7.133  11.249  14.419
34123SOL    HW2 4209   7.099  11.385  14.363
34124SOL     OW 4210   3.442   1.344   5.259
34124SOL    HW1 4211   3.395   1.324   5.341
34124SOL    HW2 4212   3.402   1.425   5.228
34125SOL     OW 4213   1.261  13.982  10.147
34125SOL    HW1 4214   1.197  13.997  10.078
34125SOL    HW2 4215   1.337  14.035  10.121
34126SOL     OW 4216   5.395   5.570   0.296
34126SOL    HW1 4217   5.403   5.571   0.200
34126SOL    HW2 4218   5.314   5.618   0.313
34127SOL     OW 4219   3.840  11.376   9.397
34127SOL    HW1 4220   3.783  11.447   9.426
34127SOL    HW2 4221   3.913  11.421   9.355
34128SOL     OW 4222  13.908  11.513  12.585
34128SOL    HW1 4223  13.878  11.519  12.676
34128SOL    HW2 4224  13.965  11.436  12.583
34129SOL     OW 4225   6.690   3.859  12.834
34129SOL    HW1 4226   6.631   3.859  12.759
34129SOL    HW2 4227   6.645   3.913  12.900
34130SOL     OW 4228  14.824  11.258   3.424
34130SOL    HW1 4229   0.041  11.285   3.411
34130SOL    HW2 4230  14.823  11.166   3.396
34131SOL     OW 4231   2.645  12.451   0.015
34131SOL    HW1 4232   2.737  12.450   0.040
34131SOL    HW2 4233   2.639  12.522  14.824
34132SOL     OW 4234   2.061  13.775  10.039
34132SOL    HW1 4235   2.103  13.838   9.980
34132SOL    HW2 4236   1.981  13.749   9.992
34133SOL     OW 4237   1.004   5.046   3.004
34133SOL    HW1 4238   1.027   4.959   2.972
34133SOL    HW2 4239   1.045   5.052   3.090
34134SOL     OW 4240   1.945   3.768   0.690
34134SOL    HW1 4241   1.869   3.819   0.716
34134SOL    HW2 4242   2.014   3.795   0.751
34135SOL     OW 4243  10.960   3.499   9.466
34135SOL    HW1 4244  10.978   3.509   9.559
34135SOL    HW2 4245  11.045   3.515   9.423
34136SOL     OW 4246   5.795   7.341   4.336
34136SOL    HW1 4247   5.727   7.275   4.321
34136SOL    HW2 4248   5.862   7.294   4.385
34137SOL     OW 4249   5.524   3.259   9.442
34137SOL    HW1 4250   5.493   3.211   9.519
34137SOL    HW2 4251   5.449   3.313   9.416
34138SOL     OW 4252   7.203   3.992   9.665
34138SOL    HW1 4253   7.120   4.007   9.711
34138SOL    HW2 4254   7.177   3.953   9.581
34139SOL     OW 4255   5.616  10.068  13.105
34139SOL    HW1 4256   5.527  10.056  13.074
34139SOL    HW2 4257   5.664  10.105  13.031
34140SOL     OW 4258   1.844   8.000  12.607
34140SOL    HW1 4259   1.764   8.002  12.555
34140SOL    HW2 4260   1.830   7.929  12.670
34141SOL     OW 4261  13.981   2.269  12.897
34141SOL    HW1 4262  13.906   2.328  12.905
34141SOL    HW2 4263  13.945   2.193  12.852
34142SOL     OW 4264   1.417   5.282  10.486
34142SOL    HW1 4265   1.349   5.218  10.463
34142SOL    HW2 4266   1.499   5.232  10.480
34143SOL     OW 4267  13.000   4.313   6.397
34143SOL    HW1 4268  12.981   4.397   6.354
34143SOL    HW2 4269  13.080   4.329   6.447
34144SOL     OW 4270   3.428   2.211   8.476
34144SOL    HW1 4271   3.376   2.231   8.554
34144SOL    HW2 4272   3.502   2.160   8.509
34145SOL     OW 4273  10.864  10.851  12.220
34145SOL    HW1 4274  10.916  10.900  12.285
34145SOL    HW2 4275  10.785  10.904  12.208
34146SOL     OW 4276   0.317   8.016   5.677
34146SOL    HW1 4277   0.329   7.921   5.676
34146SOL    HW2 4278   0.344   8.042   5.765
34147SOL     OW 4279  11.060   7.301   3.437
34147SOL    HW1 4280  11.003   7.358   3.488
34147SOL    HW2 4281  11.137   7.289   3.492
34148SOL     OW 4282   7.987  12.354   7.151
34148SOL    HW1 4283   8.019  12.296   7.219
34148SOL    HW2 4284   8.051  12.426   7.148
34149SOL     OW 4285   2.752   2.510   1.787
34149SOL    HW1 4286   2.701   2.443   1.742
34149SOL    HW2 4287   2.719   2.593   1.753
34150SOL     OW 4288   5.377   0.745   1.907
34150SOL    HW1 4289   5.369   0.670   1.848
34150SOL    HW2 4290   5.470   0.749   1.930
34151SOL     OW 4291  11.750   3.171   0.945
34151SOL    HW1 4292  11.805   3.155   1.021
34151SOL    HW2 4293  11.660   3.163   0.978
34152SOL     OW 4294   3.728  14.698  11.421
34152SOL    HW1 4295   3.707  14.663  11.507
34152SOL    HW2 4296   3.781  14.776  11.439
34153SOL     OW 4297   9.065   6.697  14.642
34153SOL    HW1 4298   8.974   6.723  14.635
34153SOL    HW2 4299   9.090   6.673  14.553
34154SOL     OW 4300   0.722   9.516   5.865
34154SOL    HW1 4301   0.672   9.434   5.858
34154SOL    HW2 4302   0.660   9.579   5.902
34155SOL     OW 4303   9.145   2.967   7.554
34155SOL    HW1 4304   9.157   2.893   7.495
34155SOL    HW2 4305   9.232   2.982   7.591
34156SOL     OW 4306   2.723   1.006   3.298
34156SOL    HW1 4307   2.815   0.988   3.314
34156SOL    HW2 4308   2.706   1.086   3.349
34157SOL     OW 4309   1.945   0.851   5.262
34157SOL    HW1 4310   1.994   0.890   5.335
34157SOL    HW2 4311   1.907   0.925   5.215
34158SOL     OW 4312   4.207   3.854   2.758
34158SOL    HW1 4313   4.146   3.844   2.831
34158SOL    HW2 4314   4.282   3.800   2.780
34159SOL     OW 4315   7.217   1.318   0.026
34159SOL    HW1 4316   7.282   1.249   0.020
34159SOL    HW2 4317   7.263   1.398   0.002
34160SOL     OW 4318  12.984   9.627   2.636
34160SOL    HW1 4319  13.014   9.567   2.704
34160SOL    HW2 4320  13.036   9.605   2.559
34161SOL     OW 4321   2.307   5.227   3.913
34161SOL    HW1 4322   2.397   5.236   3.945
34161SOL    HW2 4323   2.291   5.133   3.913
34162SOL     OW 4324   2.857  12.609   1.492
34162SOL    HW1 4325   2.823  12.618   1.581
34162SOL    HW2 4326   2.825  12.524   1.462
34163SOL     OW 4327   3.056   4.974   3.006
34163SOL    HW1 4328   3.149   4.966   2.988
34163SOL    HW2 4329   3.035   5.064   2.982
34164SOL     OW 4330  13.489   6.679   9.111
34164SOL    HW1 4331  13.565   6.666   9.168
34164SOL    HW2 4332  13.418   6.699   9.172
34165SOL     OW 4333   7.637   9.134   4.111
34165SOL    HW1 4334   7.704   9.067   4.099
34165SOL    HW2 4335   7.590   9.107   4.190
34166SOL     OW 4336   3.238  10.077  11.421
34166SOL    HW1 4337   3.168  10.085  11.486
34166SOL    HW2 4338   3.308  10.133  11.454
34167SOL     OW 4339   3.444   3.644  11.300
34167SOL    HW1 4340   3.465   3.697  11.378
34167SOL    HW2 4341   3.366   3.687  11.264
34168SOL     OW 4342   2.919   3.055  12.791
34168SOL    HW1 4343   2.948   3.048  12.700
34168SOL    HW2 4344   2.877   3.141  12.796
34169SOL     OW 4345  13.290  11.822  12.391
34169SOL    HW1 4346  13.344  11.880  12.338
34169SOL    HW2 4347  13.283  11.742  12.340
34170SOL     OW 4348   1.330  11.555  11.502
34170SOL    HW1 4349   1.409  11.584  11.456
34170SOL    HW2 4350   1.278  11.511  11.435
34171SOL     OW 4351   8.420   8.639  11.393
34171SOL    HW1 4352   8.467   8.668  11.314
34171SOL    HW2 4353   8.384   8.554  11.369
34172SOL     OW 4354   0.767  13.496   5.905
34172SOL    HW1 4355   0.772  13.410   5.864
34172SOL    HW2 4356   0.674  13.507   5.927
34173SOL     OW 4357  14.239   2.606   1.041
34173SOL    HW1 4358  14.158   2.562   1.068
34173SOL    HW2 4359  14.267   2.654   1.119
34174SOL     OW 4360   5.378   5.004  11.383
34174SOL    HW1 4361   5.460   4.984  11.429
34174SOL    HW2 4362   5.400   4.997  11.290
34175SOL     OW 4363  13.073  11.084   8.276
34175SOL    HW1 4364  13.065  11.020   8.347
34175SOL    HW2 4365  13.071  11.169   8.321
34176SOL     OW 4366   0.484  10.085   6.536
34176SOL    HW1 4367   0.415  10.094   6.470
34176SOL    HW2 4368   0.543  10.019   6.500
34177SOL     OW 4369   9.502   8.124   0.697
34177SOL    HW1 4370   9.552   8.044   0.711
34177SOL    HW2 4371   9.491   8.129   0.602
34178SOL     OW 4372   7.501  12.110   4.066
34178SOL    HW1 4373   7.429  12.147   4.015
34178SOL    HW2 4374   7.472  12.115   4.157
34179SOL     OW 4375   4.661  12.611  14.130
34179SOL    HW1 4376   4.583  12.587  14.080
34179SOL    HW2 4377   4.688  12.696  14.093
34180SOL     OW 4378  12.426   4.506  11.419
34180SOL    HW1 4379  12.483   4.440  11.458
34180SOL    HW2 4380  12.483   4.582  11.408
34181SOL     OW 4381  10.213   8.243   4.632
34181SOL    HW1 4382  10.214   8.149   4.612
34181SOL    HW2 4383  10.305   8.268   4.631
34182SOL     OW 4384  12.275   9.657  14.626
34182SOL    HW1 4385  12.222   9.619  14.556
34182SOL    HW2 4386  12.329   9.723  14.582
34183SOL     OW 4387   6.854  14.253   5.048
34183SOL    HW1 4388   6.790  14.288   5.110
34183SOL    HW2 4389   6.849  14.311   4.973
34184SOL     OW 4390   8.611   5.484   0.826
34184SOL    HW1 4391   8.640   5.568   0.863
34184SOL    HW2 4392   8.525   5.502   0.789
34185SOL     OW 4393  10.054   8.606  10.081
34185SOL    HW1 4394  10.111   8.607  10.004
34185SOL    HW2 4395  10.094   8.669  10.141
34186SOL     OW 4396  12.368   7.251  11.112
34186SOL    HW1 4397  12.340   7.342  11.126
34186SOL    HW2 4398  12.286   7.204  11.097
34187SOL     OW 4399  11.795   1.804   5.132
34187SOL    HW1 4400  11.747   1.877   5.171
34187SOL    HW2 4401  11.845   1.844   5.061
34188SOL     OW 4402  10.635  10.247   9.568
34188SOL    HW1 4403  10.580  10.323   9.589
34188SOL    HW2 4404  10.688  10.234   9.647
34189SOL     OW 4405   8.443   2.462   3.293
34189SOL    HW1 4406   8.522   2.514   3.278
34189SOL    HW2 4407   8.372   2.525   3.282
34190SOL     OW 4408   5.504  11.094   3.067
34190SOL    HW1 4409   5.444  11.026   3.098
34190SOL    HW2 4410   5.574  11.096   3.134
34191SOL     OW 4411  10.670   6.951  12.279
34191SOL    HW1 4412  10.727   6.878  12.302
34191SOL    HW2 4413  10.654   6.997  12.361
34192SOL     OW 4414   5.458   0.568   2.456
34192SOL    HW1 4415   5.379   0.585   2.405
34192SOL    HW2 4416   5.473   0.648   2.506
34193SOL     OW 4417   3.296  12.133   6.433
34193SOL    HW1 4418   3.325  12.120   6.523
34193SOL    HW2 4419   3.201  12.130   6.438
34194SOL     OW 4420   5.461   6.664   6.793
34194SOL    HW1 4421   5.534   6.690   6.849
34194SOL    HW2 4422   5.399   6.737   6.798
34195SOL     OW 4423   7.131   7.408   8.076
34195SOL    HW1 4424   7.151   7.446   8.161
34195SOL    HW2 4425   7.147   7.479   8.014
34196SOL     OW 4426  14.473   3.871  12.741
34196SOL    HW1 4427  14.490   3.861  12.834
34196SOL    HW2 4428  14.549   3.830  12.699
34197SOL     OW 4429   0.840   3.203   7.594
34197SOL    HW1 4430   0.855   3.116   7.630
34197SOL    HW2 4431   0.793   3.250   7.663
34198SOL     OW 4432   5.584  12.814   7.363
34198SOL    HW1 4433   5.592  12.743   7.426
34198SOL    HW2 4434   5.494  12.845   7.371
34199SOL     OW 4435   4.434  11.222   3.313
34199SOL    HW1 4436   4.366  11.159   3.288
34199SOL    HW2 4437   4.435  11.220   3.409
34200SOL     OW 4438   5.380   4.989  14.401
34200SOL    HW1 4439   5.371   5.074  14.359
34200SOL    HW2 4440   5.472   4.983  14.424
34201SOL     OW 4441   3.047   2.052  13.761
34201SOL    HW1 4442   3.085   2.093  13.839
34201SOL    HW2 4443   3.120   2.007  13.719
34202SOL     OW 4444  14.395  11.305   2.562
34202SOL    HW1 4445  14.453  11.253   2.506
34202SOL    HW2 4446  14.340  11.353   2.500
34203SOL     OW 4447   5.466   3.689  14.161
34203SOL    HW1 4448   5.551   3.667  14.122
34203SOL    HW2 4449   5.405   3.626  14.122
34204SOL     OW 4450   4.468  12.051   0.783
34204SOL    HW1 4451   4.415  12.118   0.826
34204SOL    HW2 4452   4.550  12.049   0.831
34205SOL     OW 4453  14.209   5.899   9.645
34205SOL    HW1 4454  14.124   5.942   9.634
34205SOL    HW2 4455  14.191   5.824   9.701
34206SOL     OW 4456   7.003  13.512  13.045
34206SOL    HW1 4457   7.059  13.496  12.970
34206SOL    HW2 4458   6.914  13.495  13.013
34207SOL     OW 4459  13.673  11.967   2.452
34207SOL    HW1 4460  13.633  11.984   2.537
34207SOL    HW2 4461  13.727  12.044   2.435
34208SOL     OW 4462   8.279   3.827  14.135
34208SOL    HW1 4463   8.295   3.892  14.066
34208SOL    HW2 4464   8.184   3.824  14.144
34209SOL     OW 4465   2.148   5.347   6.629
34209SOL    HW1 4466   2.106   5.269   6.591
34209SOL    HW2 4467   2.076   5.405   6.651
34210SOL     OW 4468   3.964   2.130   5.339
34210SOL    HW1 4469   3.915   2.064   5.288
34210SOL    HW2 4470   4.052   2.093   5.347
34211SOL     OW 4471  12.235   5.993   7.357
34211SOL    HW1 4472  12.282   6.075   7.373
34211SOL    HW2 4473  12.167   5.992   7.424
34212SOL     OW 4474   9.964  11.963   5.292
34212SOL    HW1 4475  10.025  11.942   5.222
34212SOL    HW2 4476  10.015  12.014   5.355
34213SOL     OW 4477  10.404   7.610  10.481
34213SOL    HW1 4478  10.452   7.676  10.532
34213SOL    HW2 4479  10.453   7.601  10.400
34214SOL     OW 4480   4.313   2.639  12.289
34214SOL    HW1 4481   4.222   2.668  12.291
34214SOL    HW2 4482   4.362   2.710  12.331
34215SOL     OW 4483   5.794  12.192   0.673
34215SOL    HW1 4484   5.821  12.242   0.596
34215SOL    HW2 4485   5.733  12.249   0.719
34216SOL     OW 4486   6.896  10.537   2.764
34216SOL    HW1 4487   6.869  10.602   2.829
34216SOL    HW2 4488   6.880  10.578   2.680
34217SOL     OW 4489   4.997  11.964   9.619
34217SOL    HW1 4490   4.907  11.987   9.639
34217SOL    HW2 4491   5.001  11.962   9.523
34218SOL     OW 4492   7.914   3.684   1.721
34218SOL    HW1 4493   7.988   3.744   1.711
34218SOL    HW2 4494   7.902   3.677   1.816
34219SOL     OW 4495   6.359   1.779   5.038
34219SOL    HW1 4496   6.272   1.819   5.042
34219SOL    HW2 4497   6.347   1.702   4.982
34220SOL     OW 4498  11.015  10.527   7.846
34220SOL    HW1 4499  10.971  10.461   7.792
34220SOL    HW2 4500  11.007  10.608   7.796
34221SOL     OW 4501  10.818   7.644  11.706
34221SOL    HW1 4502  10.771   7.715  11.750
34221SOL    HW2 4503  10.861   7.596  11.777
34222SOL     OW 4504  11.388   6.505   4.499
34222SOL    HW1 4505  11.440   6.425   4.499
34222SOL    HW2 4506  11.357   6.513   4.409
34223SOL     OW 4507   6.500   2.399  13.683
34223SOL    HW1 4508   6.501   2.421  13.590
34223SOL    HW2 4509   6.567   2.332  13.693
34224SOL     OW 4510  13.681  11.419  10.215
34224SOL    HW1 4511  13.586  11.424  10.204
34224SOL    HW2 4512  13.707  11.346  10.159
34225SOL     OW 4513  14.050   8.485   7.852
34225SOL    HW1 4514  14.081   8.572   7.828
34225SOL    HW2 4515  14.130   8.432   7.857
34226SOL     OW 4516   2.967  12.188   6.841
34226SOL    HW1 4517   2.887  12.223   6.802
34226SOL    HW2 4518   2.982  12.105   6.796
34227SOL     OW 4519  10.121   2.310   4.928
34227SOL    HW1 4520  10.048   2.264   4.972
34227SOL    HW2 4521  10.198   2.282   4.977
34228SOL     OW 4522   7.772   2.422  10.413
34228SOL    HW1 4523   7.856   2.402  10.456
34228SOL    HW2 4524   7.796   2.476  10.338
34229SOL     OW 4525   2.653   9.721   8.312
34229SOL    HW1 4526   2.619   9.807   8.286
34229SOL    HW2 4527   2.746   9.724   8.290
34230SOL     OW 4528   7.634   1.350   4.411
34230SOL    HW1 4529   7.723   1.355   4.444
34230SOL    HW2 4530   7.590   1.426   4.449
34231SOL     OW 4531   1.897   3.008   0.349
34231SOL    HW1 4532   1.920   3.070   0.419
34231SOL    HW2 4533   1.802   2.996   0.357
34232SOL     OW 4534   9.132   6.355   8.234
34232SOL    HW1 4535   9.156   6.305   8.157
34232SOL    HW2 4536   9.062   6.413   8.204
34233SOL     OW 4537   3.425   0.227   7.668
34233SOL    HW1 4538   3.475   0.228   7.587
34233SOL    HW2 4539   3.462   0.156   7.719
34234SOL     OW 4540  11.165   4.835  13.946
34234SOL    HW1 4541  11.175   4.740  13.957
34234SOL    HW2 4542  11.121   4.845  13.861
34235SOL     OW 4543  14.409   7.746   4.083
34235SOL    HW1 4544  14.430   7.654   4.100
34235SOL    HW2 4545  14.469   7.772   4.013
34236SOL     OW 4546  10.891   2.057   8.876
34236SOL    HW1 4547  10.801   2.045   8.907
34236SOL    HW2 4548  10.887   2.134   8.819
34237SOL     OW 4549   9.783   9.812   6.952
34237SOL    HW1 4550   9.840   9.735   6.957
34237SOL    HW2 4551   9.767   9.824   6.858
34238SOL     OW 4552   8.016  11.511  10.398
34238SOL    HW1 4553   8.109  11.503  10.418
34238SOL    HW2 4554   8.010  11.586  10.339
34239SOL     OW 4555   4.343  10.883   5.647
34239SOL    HW1 4556   4.287  10.807   5.662
34239SOL    HW2 4557   4.301  10.931   5.576
34240SOL     OW 4558   9.545   8.399   7.381
34240SOL    HW1 4559   9.455   8.370   7.397
34240SOL    HW2 4560   9.551   8.406   7.286
34241SOL     OW 4561   8.503  14.628  11.780
34241SOL    HW1 4562   8.579  14.571  11.774
34241SOL    HW2 4563   8.485  14.634  11.874
34242SOL     OW 4564   6.935   1.416  12.732
34242SOL    HW1 4565   6.891   1.500  12.735
34242SOL    HW2 4566   6.916   1.376  12.818
34243SOL     OW 4567   0.441   2.964   3.807
34243SOL    HW1 4568   0.369   2.969   3.869
34243SOL    HW2 4569   0.423   2.886   3.755
34244SOL     OW 4570   2.573   3.675   4.887
34244SOL    HW1 4571   2.548   3.735   4.816
34244SOL    HW2 4572   2.512   3.602   4.879
34245SOL     OW 4573   5.506   6.887   1.185
34245SOL    HW1 4574   5.492   6.982   1.175
34245SOL    HW2 4575   5.424   6.848   1.155
34246SOL     OW 4576   4.929   0.147   4.795
34246SOL    HW1 4577   4.938   0.084   4.866
34246SOL    HW2 4578   4.999   0.210   4.810
34247SOL     OW 4579   6.719   0.288  10.703
34247SOL    HW1 4580   6.749   0.215  10.756
34247SOL    HW2 4581   6.781   0.359  10.722
34248SOL     OW 4582  11.112   6.770   4.232
34248SOL    HW1 4583  11.106   6.776   4.137
34248SOL    HW2 4584  11.184   6.710   4.248
34249SOL     OW 4585  13.006   1.318  14.837
34249SOL    HW1 4586  12.931   1.316   0.022
34249SOL    HW2 4587  13.023   1.411  14.823
34250SOL     OW 4588   4.895   7.045   6.863
34250SOL    HW1 4589   4.953   7.049   6.939
34250SOL    HW2 4590   4.954   7.038   6.788
34251SOL     OW 4591   3.370  14.329   4.150
34251SOL    HW1 4592   3.386  14.239   4.119
34251SOL    HW2 4593   3.449  14.350   4.200
34252SOL     OW 4594  12.246   8.080  10.673
34252SOL    HW1 4595  12.321   8.136  10.657
34252SOL    HW2 4596  12.218   8.051  10.586
34253SOL     OW 4597   2.713  12.580   0.283
34253SOL    HW1 4598   2.623  12.605   0.303
34253SOL    HW2 4599   2.707  12.541   0.195
34254SOL     OW 4600   1.866   9.707   1.415
34254SOL    HW1 4601   1.943   9.651   1.427
34254SOL    HW2 4602   1.796   9.648   1.388
34255SOL     OW 4603   3.082   2.765   8.833
34255SOL    HW1 4604   3.055   2.811   8.912
34255SOL    HW2 4605   3.173   2.792   8.820
34256SOL     OW 4606   5.335   7.490   7.333
34256SOL    HW1 4607   5.296   7.574   7.312
34256SOL    HW2 4608   5.329   7.484   7.429
34257SOL     OW 4609   7.055   1.928   5.807
34257SOL    HW1 4610   6.999   1.876   5.864
34257SOL    HW2 4611   7.045   1.889   5.720
34258SOL     OW 4612   3.145   1.051   2.368
34258SOL    HW1 4613   3.148   1.125   2.429
34258SOL    HW2 4614   3.060   1.059   2.325
34259SOL     OW 4615   0.211   6.170   9.358
34259SOL    HW1 4616   0.269   6.214   9.421
34259SOL    HW2 4617   0.154   6.115   9.412
34260SOL     OW 4618   8.900   9.494   3.942
34260SOL    HW1 4619   8.948   9.474   3.861
34260SOL    HW2 4620   8.937   9.433   4.006
34261SOL     OW 4621   9.003   2.560   0.901
34261SOL    HW1 4622   9.014   2.579   0.994
34261SOL    HW2 4623   8.980   2.467   0.898
34262SOL     OW 4624   2.083   9.829   4.004
34262SOL    HW1 4625   2.107   9.799   4.091
34262SOL    HW2 4626   2.158   9.805   3.949
34263SOL     OW 4627  11.930   2.665   9.274
34263SOL    HW1 4628  11.869   2.737   9.256
34263SOL    HW2 4629  11.906   2.597   9.211
34264SOL     OW 4630   5.841  11.181   1.908
34264SOL    HW1 4631   5.780  11.255   1.913
34264SOL    HW2 4632   5.821  11.128   1.985
34265SOL     OW 4633  12.042   0.930  11.854
34265SOL    HW1 4634  12.008   1.017  11.875
34265SOL    HW2 4635  12.066   0.893  11.939
34266SOL     OW 4636   0.804   5.862   1.253
34266SOL    HW1 4637   0.736   5.896   1.311
34266SOL    HW2 4638   0.755   5.818   1.183
34267SOL     OW 4639   1.747  14.000   9.629
34267SOL    HW1 4640   1.682  13.972   9.692
34267SOL    HW2 4641   1.755  14.095   9.642
34268SOL     OW 4642   7.984   1.602   3.839
34268SOL    HW1 4643   7.920   1.540   3.874
34268SOL    HW2 4644   7.989   1.670   3.906
34269SOL     OW 4645   3.564  10.747   2.699
34269SOL    HW1 4646   3.629  10.757   2.630
34269SOL    HW2 4647   3.513  10.828   2.697
34270SOL     OW 4648   6.189  12.671  14.293
34270SOL    HW1 4649   6.247  12.600  14.320
34270SOL    HW2 4650   6.100  12.637  14.308
34271SOL     OW 4651   6.158   0.117  13.830
34271SOL    HW1 4652   6.123   0.030  13.847
34271SOL    HW2 4653   6.151   0.127  13.735
34272SOL     OW 4654   7.929   5.841   2.508
34272SOL    HW1 4655   7.988   5.843   2.583
34272SOL    HW2 4656   7.965   5.906   2.448
34273SOL     OW 4657   1.364   4.286   1.050
34273SOL    HW1 4658   1.384   4.237   1.130
34273SOL    HW2 4659   1.293   4.237   1.009
34274SOL     OW 4660   9.253   4.211   7.387
34274SOL    HW1 4661   9.320   4.204   7.318
34274SOL    HW2 4662   9.245   4.306   7.402
34275SOL     OW 4663   0.555   3.204   4.217
34275SOL    HW1 4664   0.634   3.198   4.163
34275SOL    HW2 4665   0.562   3.290   4.259
34276SOL     OW 4666   7.359   6.374   6.756
34276SOL    HW1 4667   7.335   6.462   6.724
34276SOL    HW2 4668   7.441   6.354   6.710
34277SOL     OW 4669  10.814   9.400  10.531
34277SOL    HW1 4670  10.744   9.398  10.596
34277SOL    HW2 4671  10.894   9.385  10.581
34278SOL     OW 4672  13.859   6.233   4.721
34278SOL    HW1 4673  13.808   6.212   4.643
34278SOL    HW2 4674  13.902   6.316   4.701
34279SOL     OW 4675   1.800   4.876  12.495
34279SOL    HW1 4676   1.705   4.868  12.501
34279SOL    HW2 4677   1.815   4.948  12.433
34280SOL     OW 4678   8.996   4.028   5.407
34280SOL    HW1 4679   8.909   4.001   5.382
34280SOL    HW2 4680   9.018   3.973   5.482
34281SOL     OW 4681   1.251  10.294   3.501
34281SOL    HW1 4682   1.192  10.234   3.546
34281SOL    HW2 4683   1.262  10.256   3.414
34282SOL     OW 4684  14.309  14.640   8.811
34282SOL    HW1 4685  14.267  14.708   8.757
34282SOL    HW2 4686  14.361  14.589   8.748
34283SOL     OW 4687   7.023   9.940  14.101
34283SOL    HW1 4688   7.103   9.939  14.153
34283SOL    HW2 4689   6.957   9.900  14.157
34284SOL     OW 4690   6.595   4.868   1.105
34284SOL    HW1 4691   6.579   4.774   1.102
34284SOL    HW2 4692   6.566   4.895   1.192
34285SOL     OW 4693   4.745  14.176  14.749
34285SOL    HW1 4694   4.664  14.149  14.706
34285SOL    HW2 4695   4.809  14.184  14.678
34286SOL     OW 4696   6.904  10.953  14.781
34286SOL    HW1 4697   6.915  10.951   0.002
34286SOL    HW2 4698   6.936  10.868  14.751
34287SOL     OW 4699   3.088   9.605   6.458
34287SOL    HW1 4700   3.092   9.618   6.363
34287SOL    HW2 4701   3.010   9.654   6.485
34288SOL     OW 4702  14.250  11.343   2.968
34288SOL    HW1 4703  14.282  11.405   2.903
34288SOL    HW2 4704  14.209  11.274   2.917
34289SOL     OW 4705   1.994   0.981  13.302
34289SOL    HW1 4706   1.910   0.981  13.348
34289SOL    HW2 4707   2.011   1.073  13.283
34290SOL     OW 4708   4.029   3.554  10.183
34290SOL    HW1 4709   4.055   3.474  10.137
34290SOL    HW2 4710   4.096   3.566  10.250
34291SOL     OW 4711   0.981   4.841   8.637
34291SOL    HW1 4712   0.949   4.813   8.723
34291SOL    HW2 4713   0.986   4.936   8.643
34292SOL     OW 4714   6.257  14.579  13.944
34292SOL    HW1 4715   6.253  14.510  13.878
34292SOL    HW2 4716   6.330  14.555  14.000
34293SOL     OW 4717  13.676   8.839   1.806
34293SOL    HW1 4718  13.583   8.814   1.808
34293SOL    HW2 4719  13.700   8.849   1.898
34294SOL     OW 4720   4.316  13.756   4.709
34294SOL    HW1 4721   4.285  13.666   4.718
34294SOL    HW2 4722   4.244  13.810   4.740
34295SOL     OW 4723   0.082  14.847   7.127
34295SOL    HW1 4724   0.135  14.769   7.105
34295SOL    HW2 4725  14.867  14.813   7.135
34296SOL     OW 4726   5.013   1.525   9.829
34296SOL    HW1 4727   4.940   1.566   9.783
34296SOL    HW2 4728   5.051   1.595   9.882
34297SOL     OW 4729   6.902  10.180   1.986
34297SOL    HW1 4730   6.902  10.095   1.942
34297SOL    HW2 4731   6.951  10.165   2.067
34298SOL     OW 4732  13.612   1.884   7.683
34298SOL    HW1 4733  13.577   1.945   7.747
34298SOL    HW2 4734  13.586   1.797   7.714
34299SOL     OW 4735   5.389   2.805   7.399
34299SOL    HW1 4736   5.318   2.741   7.403
34299SOL    HW2 4737   5.432   2.800   7.484
34300SOL     OW 4738   5.256   7.342   6.715
34300SOL    HW1 4739   5.247   7.364   6.808
34300SOL    HW2 4740   5.305   7.260   6.715
34301SOL     OW 4741   4.028   4.526  13.366
34301SOL    HW1 4742   4.048   4.503  13.457
34301SOL    HW2 4743   4.010   4.441  13.324
34302SOL     OW 4744  10.809   6.696   1.248
34302SOL    HW1 4745  10.796   6.668   1.339
34302SOL    HW2 4746  10.788   6.619   1.196
34303SOL     OW 4747   6.701   6.907  14.574
34303SOL    HW1 4748   6.666   6.992  14.601
34303SOL    HW2 4749   6.631   6.868  14.521
34304SOL     OW 4750   4.877   0.123   5.932
34304SOL    HW1 4751   4.789   0.145   5.963
34304SOL    HW2 4752   4.872   0.029   5.911
34305SOL     OW 4753  13.448   1.136   2.057
34305SOL    HW1 4754  13.380   1.095   2.003
34305SOL    HW2 4755  13.456   1.080   2.134
34306SOL     OW 4756   4.098  14.872   1.935
34306SOL    HW1 4757   4.103  14.860   1.840
34306SOL    HW2 4758   4.046  14.798   1.966
34307SOL     OW 4759  10.938   0.146   5.453
34307SOL    HW1 4760  10.935   0.076   5.519
34307SOL    HW2 4761  10.846   0.159   5.429
34308SOL     OW 4762   3.464   3.574   4.576
34308SOL    HW1 4763   3.389   3.615   4.619
34308SOL    HW2 4764   3.527   3.560   4.646
34309SOL     OW 4765  13.406  14.415   0.279
34309SOL    HW1 4766  13.468  14.441   0.212
34309SOL    HW2 4767  13.332  14.476   0.268
34310SOL     OW 4768   2.985  12.695   2.239
34310SOL    HW1 4769   2.958  12.649   2.160
34310SOL    HW2 4770   2.940  12.779   2.234
34311SOL     OW 4771  12.379   6.534   0.582
34311SOL    HW1 4772  12.377   6.628   0.600
34311SOL    HW2 4773  12.298   6.517   0.533
34312SOL     OW 4774   6.416   7.137   1.285
34312SOL    HW1 4775   6.393   7.218   1.331
34312SOL    HW2 4776   6.415   7.070   1.354
34313SOL     OW 4777  14.542   9.549  10.242
34313SOL    HW1 4778  14.575   9.612  10.306
34313SOL    HW2 4779  14.583   9.466  10.268
34314SOL     OW 4780   1.238  11.311  14.868
34314SOL    HW1 4781   1.323  11.349  14.847
34314SOL    HW2 4782   1.207  11.275  14.786
34315SOL     OW 4783   4.369  14.291   4.721
34315SOL    HW1 4784   4.370  14.202   4.757
34315SOL    HW2 4785   4.379  14.347   4.798
34316SOL     OW 4786   1.275  10.078   0.219
34316SOL    HW1 4787   1.179  10.085   0.221
34316SOL    HW2 4788   1.296  10.063   0.127
34317SOL     OW 4789   1.637   2.246   1.764
34317SOL    HW1 4790   1.731   2.241   1.746
34317SOL    HW2 4791   1.598   2.179   1.707
34318SOL     OW 4792   0.564   3.006   8.468
34318SOL    HW1 4793   0.506   2.950   8.520
34318SOL    HW2 4794   0.505   3.049   8.406
34319SOL     OW 4795  10.295   0.382   9.627
34319SOL    HW1 4796  10.285   0.415   9.716
34319SOL    HW2 4797  10.301   0.460   9.572
34320SOL     OW 4798   6.819   2.150  10.583
34320SOL    HW1 4799   6.872   2.088  10.533
34320SOL    HW2 4800   6.805   2.223  10.523
34321SOL     OW 4801   9.793  12.347   9.376
34321SOL    HW1 4802   9.753  12.297   9.304
34321SOL    HW2 4803   9.887  12.347   9.356
34322SOL     OW 4804   6.173   5.176   2.468
34322SOL    HW1 4805   6.182   5.271   2.473
34322SOL    HW2 4806   6.242   5.148   2.408
34323SOL     OW 4807   9.186   5.310   4.487
34323SOL    HW1 4808   9.102   5.348   4.463
34323SOL    HW2 4809   9.166   5.219   4.511
34324SOL     OW 4810   5.069  12.309   8.215
34324SOL    HW1 4811   5.123  12.371   8.264
34324SOL    HW2 4812   5.014  12.268   8.281
34325SOL     OW 4813   0.490   6.451   9.271
34325SOL    HW1 4814   0.554   6.503   9.222
34325SOL    HW2 4815   0.536   6.369   9.291
34326SOL     OW 4816   7.788  10.210   9.442
34326SOL    HW1 4817   7.720  10.142   9.436
34326SOL    HW2 4818   7.824  10.199   9.529
34327SOL     OW 4819   4.583  13.305   6.094
34327SOL    HW1 4820   4.496  13.310   6.054
34327SOL    HW2 4821   4.641  13.347   6.031
34328SOL     OW 4822  11.235   7.409   7.604
34328SOL    HW1 4823  11.145   7.440   7.619
34328SOL    HW2 4824  11.252   7.429   7.512
34329SOL     OW 4825  10.379  13.657   4.900
34329SOL    HW1 4826  10.289  13.628   4.884
34329SOL    HW2 4827  10.394  13.727   4.836
34330SOL     OW 4828   0.815  11.688   5.890
34330SOL    HW1 4829   0.819  11.631   5.966
34330SOL    HW2 4830   0.806  11.777   5.926
34331SOL     OW 4831   9.768   5.212   3.191
34331SOL    HW1 4832   9.743   5.284   3.134
34331SOL    HW2 4833   9.754   5.245   3.280
34332SOL     OW 4834   9.218  12.049   5.620
34332SOL    HW1 4835   9.200  12.049   5.526
34332SOL    HW2 4836   9.272  11.971   5.634
34333SOL     OW 4837  12.094   2.911   5.000
34333SOL    HW1 4838  12.073   2.996   5.039
34333SOL    HW2 4839  12.019   2.891   4.944
34334SOL     OW 4840   6.241  12.747  10.834
34334SOL    HW1 4841   6.198  12.767  10.917
34334SOL    HW2 4842   6.198  12.667  10.803
34335SOL     OW 4843  11.529  11.003   0.674
34335SOL    HW1 4844  11.469  11.032   0.743
34335SOL    HW2 4845  11.610  10.983   0.720
34336SOL     OW 4846   3.797   1.584  10.994
34336SOL    HW1 4847   3.792   1.623  10.907
34336SOL    HW2 4848   3.737   1.635  11.047
34337SOL     OW 4849  10.687  12.522   0.579
34337SOL    HW1 4850  10.619  12.481   0.631
34337SOL    HW2 4851  10.739  12.572   0.642
34338SOL     OW 4852  12.054   3.281   3.474
34338SOL    HW1 4853  11.976   3.336   3.475
34338SOL    HW2 4854  12.028   3.202   3.522
34339SOL     OW 4855   8.110  10.016   8.154
34339SOL    HW1 4856   8.086   9.953   8.086
34339SOL    HW2 4857   8.141   9.962   8.226
34340SOL     OW 4858   0.117   8.668  10.293
34340SOL    HW1 4859   0.101   8.706  10.207
34340SOL    HW2 4860   0.132   8.575  10.275
34341SOL     OW 4861  13.149  10.023   9.030
34341SOL    HW1 4862  13.090  10.046   9.101
34341SOL    HW2 4863  13.097   9.968   8.972
34342SOL     OW 4864  13.870   1.790   4.676
34342SOL    HW1 4865  13.891   1.840   4.755
34342SOL    HW2 4866  13.788   1.744   4.698
34343SOL     OW 4867  13.098   9.719  10.389
34343SOL    HW1 4868  13.127   9.643  10.339
34343SOL    HW2 4869  13.003   9.709  10.396
34344SOL     OW 4870   8.501  13.631   7.856
34344SOL    HW1 4871   8.422  13.636   7.909
34344SOL    HW2 4872   8.550  13.556   7.891
34345SOL     OW 4873  13.350   0.097  14.563
34345SOL    HW1 4874  13.398   0.177  14.585
34345SOL    HW2 4875  13.262   0.129  14.540
34346SOL     OW 4876   1.218   9.032  12.491
34346SOL    HW1 4877   1.127   9.009  12.469
34346SOL    HW2 4878   1.210   9.104  12.554
34347SOL     OW 4879   6.096   7.622   4.909
34347SOL    HW1 4880   6.098   7.526   4.913
34347SOL    HW2 4881   6.182   7.649   4.940
34348SOL     OW 4882   8.884   1.261   3.762
34348SOL    HW1 4883   8.958   1.280   3.821
34348SOL    HW2 4884   8.827   1.337   3.770
34349SOL     OW 4885   6.958  11.062  13.595
34349SOL    HW1 4886   6.913  10.979  13.581
34349SOL    HW2 4887   6.888  11.127  13.598
34350SOL     OW 4888  11.547  13.503  13.292
34350SOL    HW1 4889  11.528  13.587  13.333
34350SOL    HW2 4890  11.499  13.439  13.345
34351SOL     OW 4891  10.269   9.351   3.978
34351SOL    HW1 4892  10.212   9.295   3.925
34351SOL    HW2 4893  10.357   9.314   3.965
34352SOL     OW 4894  11.985   2.708   9.554
34352SOL    HW1 4895  11.969   2.802   9.553
34352SOL    HW2 4896  11.997   2.684   9.462
34353SOL     OW 4897   0.914   5.917  13.565
34353SOL    HW1 4898   0.970   5.965  13.504
34353SOL    HW2 4899   0.924   5.962  13.648
34354SOL     OW 4900   7.008  12.895   5.784
34354SOL    HW1 4901   7.098  12.899   5.751
34354SOL    HW2 4902   6.968  12.822   5.738
34355SOL     OW 4903   9.622   0.699   4.661
34355SOL    HW1 4904   9.622   0.610   4.695
34355SOL    HW2 4905   9.530   0.722   4.652
34356SOL     OW 4906  11.022   3.164  12.193
34356SOL    HW1 4907  11.041   3.072  12.207
34356SOL    HW2 4908  11.105   3.209  12.209
34357SOL     OW 4909  13.646   0.833   4.848
34357SOL    HW1 4910  13.642   0.907   4.909
34357SOL    HW2 4911  13.710   0.859   4.782
34358SOL     OW 4912  14.117   2.838   4.649
34358SOL    HW1 4913  14.032   2.796   4.635
34358SOL    HW2 4914  14.180   2.767   4.636
34359SOL     OW 4915   6.812   2.440  13.822
34359SOL    HW1 4916   6.790   2.374  13.756
34359SOL    HW2 4917   6.744   2.507  13.814
34360SOL     OW 4918  10.970   8.958   1.303
34360SOL    HW1 4919  10.969   9.004   1.219
34360SOL    HW2 4920  11.048   8.903   1.300
34361SOL     OW 4921   3.979   9.979   2.121
34361SOL    HW1 4922   4.015  10.037   2.054
34361SOL    HW2 4923   3.889   9.963   2.093
34362SOL     OW 4924  13.605   5.569   3.168
34362SOL    HW1 4925  13.570   5.652   3.133
34362SOL    HW2 4926  13.528   5.518   3.190
34363SOL     OW 4927   5.484   6.964   8.287
34363SOL    HW1 4928   5.488   7.033   8.353
34363SOL    HW2 4929   5.401   6.978   8.242
34364SOL     OW 4930   7.651   3.041   5.595
34364SOL    HW1 4931   7.566   3.084   5.606
34364SOL    HW2 4932   7.702   3.071   5.670
34365SOL     OW 4933   6.183   7.529   0.500
34365SOL    HW1 4934   6.226   7.445   0.485
34365SOL    HW2 4935   6.100   7.522   0.452
34366SOL     OW 4936   4.768  13.166  10.993
34366SOL    HW1 4937   4.734  13.233  10.934
34366SOL    HW2 4938   4.776  13.088  10.938
34367SOL     OW 4939   0.402   4.824   8.413
34367SOL    HW1 4940   0.467   4.759   8.384
34367SOL    HW2 4941   0.430   4.905   8.372
34368SOL     OW 4942  13.234  14.123  12.871
34368SOL    HW1 4943  13.180  14.202  12.876
34368SOL    HW2 4944  13.207  14.080  12.790
34369SOL     OW 4945   5.242   5.359   5.777
34369SOL    HW1 4946   5.197   5.275   5.779
34369SOL    HW2 4947   5.243   5.389   5.868
34370SOL     OW 4948   6.112   9.852   7.736
34370SOL    HW1 4949   6.147   9.822   7.820
34370SOL    HW2 4950   6.183   9.904   7.698
34371SOL     OW 4951   4.430   2.864   8.586
34371SOL    HW1 4952   4.380   2.782   8.578
34371SOL    HW2 4953   4.458   2.884   8.497
34372SOL     OW 4954   5.240   8.178  10.986
34372SOL    HW1 4955   5.179   8.231  11.037
34372SOL    HW2 4956   5.242   8.093  11.031
34373SOL     OW 4957   4.199  10.181   9.703
34373SOL    HW1 4958   4.140  10.135   9.762
34373SOL    HW2 4959   4.234  10.113   9.645
34374SOL     OW 4960   5.056   3.391   0.008
34374SOL    HW1 4961   4.977   3.377   0.061
34374SOL    HW2 4962   5.058   3.316  14.822
34375SOL     OW 4963   7.537   6.101   0.692
34375SOL    HW1 4964   7.483   6.032   0.729
34375SOL    HW2 4965   7.517   6.179   0.744
34376SOL     OW 4966   9.763   6.607   7.545
34376SOL    HW1 4967   9.701   6.680   7.549
34376SOL    HW2 4968   9.847   6.645   7.572
34377SOL     OW 4969   8.277   0.783   9.269
34377SOL    HW1 4970   8.293   0.704   9.321
34377SOL    HW2 4971   8.183   0.781   9.251
34378SOL     OW 4972  13.728  10.731   4.163
34378SOL    HW1 4973  13.813  10.693   4.185
34378SOL    HW2 4974  13.691  10.670   4.099
34379SOL     OW 4975   0.547  14.058  13.176
34379SOL    HW1 4976   0.569  14.101  13.093
34379SOL    HW2 4977   0.529  13.967  13.152
34380SOL     OW 4978  11.837   6.169   2.147
34380SOL    HW1 4979  11.882   6.091   2.115
34380SOL    HW2 4980  11.898   6.241   2.132
34381SOL     OW 4981   0.334   5.748  10.780
34381SOL    HW1 4982   0.378   5.681  10.727
34381SOL    HW2 4983   0.366   5.831  10.744
34382SOL     OW 4984  14.130  13.779   7.962
34382SOL    HW1 4985  14.149  13.855   7.906
34382SOL    HW2 4986  14.161  13.704   7.911
34383SOL     OW 4987   1.442   6.399   5.089
34383SOL    HW1 4988   1.440   6.464   5.019
34383SOL    HW2 4989   1.376   6.428   5.152
34384SOL     OW 4990   6.528   1.545   8.044
34384SOL    HW1 4991   6.498   1.512   7.959
34384SOL    HW2 4992   6.583   1.475   8.079
34385SOL     OW 4993   2.445  10.420   5.973
34385SOL    HW1 4994   2.414  10.473   6.046
34385SOL    HW2 4995   2.480  10.340   6.013
34386SOL     OW 4996   5.820   8.300  10.909
34386SOL    HW1 4997   5.741   8.335  10.950
34386SOL    HW2 4998   5.865   8.377  10.874
34387SOL     OW 4999   6.594   9.370   1.642
34387SOL    HW1 5000   6.664   9.406   1.588
34387SOL    HW2 5001   6.565   9.443   1.696
34388SOL     OW 5002   0.855   5.164  14.644
34388SOL    HW1 5003   0.927   5.182  14.704
34388SOL    HW2 5004   0.815   5.249  14.627
34389SOL     OW 5005   9.334   6.937  12.326
34389SOL    HW1 5006   9.297   7.025  12.325
34389SOL    HW2 5007   9.308   6.899  12.242
34390SOL     OW 5008   3.148   1.700   7.960
34390SOL    HW1 5009   3.053   1.696   7.976
34390SOL    HW2 5010   3.156   1.699   7.865
34391SOL     OW 5011   8.501   5.618   8.949
34391SOL    HW1 5012   8.435   5.619   9.019
34391SOL    HW2 5013   8.555   5.541   8.969
34392SOL     OW 5014   2.509  13.463   0.318
34392SOL    HW1 5015   2.542  13.544   0.278
34392SOL    HW2 5016   2.457  13.493   0.393
34393SOL     OW 5017   5.969  11.204   4.399
34393SOL    HW1 5018   5.959  11.295   4.425
34393SOL    HW2 5019   5.884  11.181   4.361
34394SOL     OW 5020   0.248   6.018  10.724
34394SOL    HW1 5021   0.170   6.022  10.668
34394SOL    HW2 5022   0.314   6.069  10.676
34395SOL     OW 5023  13.152   7.414  12.603
34395SOL    HW1 5024  13.093   7.379  12.535
34395SOL    HW2 5025  13.099   7.413  12.683
34396SOL     OW 5026   4.601  13.705  13.519
34396SOL    HW1 5027   4.615  13.789  13.475
34396SOL    HW2 5028   4.558  13.729  13.601
34397SOL     OW 5029   1.991   3.564   0.173
34397SOL    HW1 5030   1.965   3.575   0.081
34397SOL    HW2 5031   2.070   3.619   0.181
34398SOL     OW 5032  14.768  13.444   8.178
34398SOL    HW1 5033  14.838  13.397   8.133
34398SOL    HW2 5034  14.770  13.409   8.267
34399SOL     OW 5035   6.361   8.267   5.786
34399SOL    HW1 5036   6.408   8.309   5.715
34399SOL    HW2 5037   6.341   8.337   5.848
34400SOL     OW 5038   0.512   5.401   5.336
34400SOL    HW1 5039   0.451   5.418   5.408
34400SOL    HW2 5040   0.459   5.413   5.257
34401SOL     OW 5041   3.992  11.223   6.365
34401SOL    HW1 5042   3.901  11.195   6.381
34401SOL    HW2 5043   3.987  11.318   6.359
34402SOL     OW 5044  10.357  12.239  12.010
34402SOL    HW1 5045  10.269  12.203  12.021
34402SOL    HW2 5046  10.414  12.162  12.015
34403SOL     OW 5047  14.486   0.957  12.880
34403SOL    HW1 5048  14.399   0.945  12.842
34403SOL    HW2 5049  14.472   0.949  12.975
34404SOL     OW 5050   9.147   2.777   5.360
34404SOL    HW1 5051   9.118   2.825   5.282
34404SOL    HW2 5052   9.191   2.699   5.325
34405SOL     OW 5053  14.418   4.041   2.708
34405SOL    HW1 5054  14.511   4.058   2.697
34405SOL    HW2 5055  14.385   4.032   2.618
34406SOL     OW 5056  11.748  12.745   5.018
34406SOL    HW1 5057  11.689  12.705   5.083
34406SOL    HW2 5058  11.834  12.709   5.038
34407SOL     OW 5059   8.042  11.731  10.256
34407SOL    HW1 5060   7.989  11.797  10.301
34407SOL    HW2 5061   8.099  11.783  10.199
34408SOL     OW 5062   4.336   2.636   2.754
34408SOL    HW1 5063   4.380   2.569   2.702
34408SOL    HW2 5064   4.291   2.588   2.823
34409SOL     OW 5065   6.500   2.793   8.329
34409SOL    HW1 5066   6.405   2.793   8.318
34409SOL    HW2 5067   6.533   2.843   8.254
34410SOL     OW 5068   5.082  13.565   1.365
34410SOL    HW1 5069   5.009  13.575   1.303
34410SOL    HW2 5070   5.136  13.496   1.327
34411SOL     OW 5071  14.780  11.329  10.575
34411SOL    HW1 5072  14.699  11.380  10.577
34411SOL    HW2 5073  14.849  11.395  10.566
34412SOL     OW 5074  10.131   7.836   4.186
34412SOL    HW1 5075  10.081   7.909   4.148
34412SOL    HW2 5076  10.182   7.801   4.113
34413SOL     OW 5077   3.724   4.794   0.687
34413SOL    HW1 5078   3.811   4.834   0.696
34413SOL    HW2 5079   3.738   4.702   0.712
34414SOL     OW 5080   0.696  11.074   7.851
34414SOL    HW1 5081   0.731  11.019   7.781
34414SOL    HW2 5082   0.703  11.163   7.817
34415SOL     OW 5083  12.597   9.541  13.214
34415SOL    HW1 5084  12.630   9.485  13.144
34415SOL    HW2 5085  12.661   9.532  13.285
34416SOL     OW 5086  12.761   2.241  11.019
34416SOL    HW1 5087  12.794   2.159  10.982
34416SOL    HW2 5088  12.666   2.232  11.015
34417SOL     OW 5089  14.620  10.926  10.248
34417SOL    HW1 5090  14.573  10.843  10.260
34417SOL    HW2 5091  14.711  10.900  10.232
34418SOL     OW 5092  10.946  14.517   0.032
34418SOL    HW1 5093  10.951  14.444   0.094
34418SOL    HW2 5094  10.885  14.578   0.074
34419SOL     OW 5095   6.463   0.153  14.332
34419SOL    HW1 5096   6.393   0.188  14.277
34419SOL    HW2 5097   6.450   0.197  14.417
34420SOL     OW 5098   3.745   0.613   5.268
34420SOL    HW1 5099   3.692   0.536   5.248
34420SOL    HW2 5100   3.761   0.654   5.182
34421SOL     OW 5101   6.069  13.224  12.704
34421SOL    HW1 5102   6.160  13.214  12.676
34421SOL    HW2 5103   6.043  13.137  12.733
34422SOL     OW 5104   4.946   1.756   6.348
34422SOL    HW1 5105   4.996   1.681   6.379
34422SOL    HW2 5106   4.999   1.833   6.371
34423SOL     OW 5107  11.660  12.360  12.617
34423SOL    HW1 5108  11.677  12.454  12.608
34423SOL    HW2 5109  11.704  12.320  12.542
34424SOL     OW 5110  14.710  12.393   6.475
34424SOL    HW1 5111  14.693  12.342   6.554
34424SOL    HW2 5112  14.780  12.453   6.500
34425SOL     OW 5113  11.636  12.514  10.294
34425SOL    HW1 5114  11.605  12.564  10.370
34425SOL    HW2 5115  11.730  12.502  10.310
34426SOL     OW 5116   2.440   9.594   5.956
34426SOL    HW1 5117   2.453   9.586   5.861
34426SOL    HW2 5118   2.360   9.646   5.964
34427SOL     OW 5119  11.307  11.975  11.654
34427SOL    HW1 5120  11.221  11.988  11.693
34427SOL    HW2 5121  11.289  11.935  11.569
34428SOL     OW 5122  13.037   6.491   3.269
34428SOL    HW1 5123  13.075   6.418   3.221
34428SOL    HW2 5124  13.097   6.564   3.254
34429SOL     OW 5125   1.083   6.224   8.605
34429SOL    HW1 5126   1.136   6.144   8.610
34429SOL    HW2 5127   1.073   6.240   8.511
34430SOL     OW 5128   1.888  12.292   7.935
34430SOL    HW1 5129   1.845  12.313   7.852
34430SOL    HW2 5130   1.862  12.201   7.952
34431SOL     OW 5131   1.842   3.386   2.651
34431SOL    HW1 5132   1.893   3.432   2.717
34431SOL    HW2 5133   1.800   3.314   2.699
34432SOL     OW 5134  10.902   1.536  14.095
34432SOL    HW1 5135  10.925   1.617  14.050
34432SOL    HW2 5136  10.806   1.535  14.097
34433SOL     OW 5137   5.495   4.799   4.950
34433SOL    HW1 5138   5.450   4.724   4.911
34433SOL    HW2 5139   5.513   4.858   4.876
34434SOL     OW 5140   9.842   3.436  12.048
34434SOL    HW1 5141   9.847   3.391  11.964
34434SOL    HW2 5142   9.761   3.487  12.043
34435SOL     OW 5143   5.506  12.509  12.356
34435SOL    HW1 5144   5.463  12.479  12.436
34435SOL    HW2 5145   5.594  12.533  12.384
34436SOL     OW 5146   2.663  10.966   2.023
34436SOL    HW1 5147   2.741  11.011   2.056
34436SOL    HW2 5148   2.693  10.878   2.000
34437SOL     OW 5149   6.590  10.735   1.514
34437SOL    HW1 5150   6.496  10.747   1.530
34437SOL    HW2 5151   6.605  10.774   1.428
34438SOL     OW 5152   3.256   2.327  11.843
34438SOL    HW1 5153   3.339   2.315  11.889
34438SOL    HW2 5154   3.263   2.271  11.766
34439SOL     OW 5155  11.491   0.130  12.008
34439SOL    HW1 5156  11.445   0.079  12.074
34439SOL    HW2 5157  11.422   0.176  11.961
34440SOL     OW 5158  13.427  11.537   4.788
34440SOL    HW1 5159  13.482  11.613   4.766
34440SOL    HW2 5160  13.431  11.533   4.884
34441SOL     OW 5161   0.863   8.953  12.781
34441SOL    HW1 5162   0.908   8.879  12.739
34441SOL    HW2 5163   0.856   9.019  12.713
34442SOL     OW 5164   1.575   2.970   4.933
34442SOL    HW1 5165   1.600   2.972   5.026
34442SOL    HW2 5166   1.604   2.884   4.902
34443SOL     OW 5167   9.815   4.015   7.890
34443SOL    HW1 5168   9.754   4.069   7.839
34443SOL    HW2 5169   9.772   4.003   7.974
34444SOL     OW 5170   8.089   0.836   1.191
34444SOL    HW1 5171   8.072   0.787   1.271
34444SOL    HW2 5172   8.165   0.891   1.213
34445SOL     OW 5173   4.591   9.288   8.435
34445SOL    HW1 5174   4.603   9.220   8.501
34445SOL    HW2 5175   4.576   9.368   8.487
34446SOL     OW 5176   4.163   7.499  12.357
34446SOL    HW1 5177   4.216   7.526  12.282
34446SOL    HW2 5178   4.215   7.526  12.433
34447SOL     OW 5179   6.353   0.156  10.393
34447SOL    HW1 5180   6.289   0.217  10.430
34447SOL    HW2 5181   6.426   0.156  10.455
34448SOL     OW 5182  14.542   6.295  14.038
34448SOL    HW1 5183  14.479   6.364  14.059
34448SOL    HW2 5184  14.575   6.319  13.951
34449SOL     OW 5185  10.545   3.320   0.296
34449SOL    HW1 5186  10.636   3.338   0.272
34449SOL    HW2 5187  10.493   3.365   0.229
34450SOL     OW 5188  13.084  11.239   9.810
34450SOL    HW1 5189  13.043  11.220   9.894
34450SOL    HW2 5190  13.060  11.331   9.792
34451SOL     OW 5191   3.397   1.710   1.305
34451SOL    HW1 5192   3.381   1.640   1.241
34451SOL    HW2 5193   3.492   1.715   1.312
34452SOL     OW 5194   4.148   1.135   1.213
34452SOL    HW1 5195   4.229   1.184   1.199
34452SOL    HW2 5196   4.095   1.154   1.136
34453SOL     OW 5197   6.406  14.862   8.490
34453SOL    HW1 5198   6.359   0.059   8.446
34453SOL    HW2 5199   6.363  14.782   8.457
34454SOL     OW 5200  13.693   8.548  12.553
34454SOL    HW1 5201  13.708   8.511  12.466
34454SOL    HW2 5202  13.626   8.492  12.592
34455SOL     OW 5203  13.133   9.537  14.431
34455SOL    HW1 5204  13.072   9.611  14.439
34455SOL    HW2 5205  13.088   9.465  14.475
34456SOL     OW 5206   6.303  10.657   3.617
34456SOL    HW1 5207   6.334  10.745   3.640
34456SOL    HW2 5208   6.333  10.644   3.527
34457SOL     OW 5209  11.109   9.599   1.956
34457SOL    HW1 5210  11.118   9.623   1.864
34457SOL    HW2 5211  11.164   9.662   2.003
34458SOL     OW 5212   7.584   0.763   0.133
34458SOL    HW1 5213   7.652   0.735   0.072
34458SOL    HW2 5214   7.588   0.700   0.205
34459SOL     OW 5215  12.842   5.166   5.633
34459SOL    HW1 5216  12.916   5.225   5.650
34459SOL    HW2 5217  12.781   5.183   5.705
34460SOL     OW 5218   0.755  10.715   3.505
34460SOL    HW1 5219   0.835  10.664   3.515
34460SOL    HW2 5220   0.691  10.653   3.469
34461SOL     OW 5221   2.429   2.421  11.321
34461SOL    HW1 5222   2.389   2.342  11.285
34461SOL    HW2 5223   2.359   2.462  11.372
34462SOL     OW 5224   2.793   9.690   2.923
34462SOL    HW1 5225   2.867   9.631   2.939
34462SOL    HW2 5226   2.756   9.661   2.840
34463SOL     OW 5227  12.570   4.809  11.098
34463SOL    HW1 5228  12.490   4.836  11.143
34463SOL    HW2 5229  12.568   4.858  11.016
34464SOL     OW 5230   7.719  14.122   6.993
34464SOL    HW1 5231   7.782  14.072   6.943
34464SOL    HW2 5232   7.683  14.060   7.057
34465SOL     OW 5233  14.172   5.844   0.631
34465SOL    HW1 5234  14.138   5.755   0.630
34465SOL    HW2 5235  14.238   5.844   0.701
34466SOL     OW 5236   7.199   6.918   6.553
34466SOL    HW1 5237   7.157   6.927   6.638
34466SOL    HW2 5238   7.153   6.846   6.510
34467SOL     OW 5239   0.923  11.533   4.232
34467SOL    HW1 5240   0.931  11.618   4.189
34467SOL    HW2 5241   0.857  11.486   4.182
34468SOL     OW 5242   2.500   5.862   0.129
34468SOL    HW1 5243   2.464   5.775   0.146
34468SOL    HW2 5244   2.486   5.910   0.210
34469SOL     OW 5245   0.761   4.047  14.718
34469SOL    HW1 5246   0.816   4.099  14.777
34469SOL    HW2 5247   0.808   4.049  14.634
34470SOL     OW 5248  14.390   4.607   9.690
34470SOL    HW1 5249  14.381   4.700   9.668
34470SOL    HW2 5250  14.301   4.573   9.688
34471SOL     OW 5251   9.597   8.076  13.868
34471SOL    HW1 5252   9.523   8.056  13.811
34471SOL    HW2 5253   9.578   8.031  13.950
34472SOL     OW 5254  10.051  13.122   5.936
34472SOL    HW1 5255  10.027  13.212   5.914
34472SOL    HW2 5256   9.983  13.068   5.895
34473SOL     OW 5257   0.784   8.885  10.309
34473SOL    HW1 5258   0.847   8.876  10.237
34473SOL    HW2 5259   0.831   8.935  10.376
34474SOL     OW 5260  11.960  12.811   4.673
34474SOL    HW1 5261  11.867  12.799   4.651
34474SOL    HW2 5262  11.985  12.729   4.716
34475SOL     OW 5263   7.290   7.792   6.452
34475SOL    HW1 5264   7.252   7.853   6.515
34475SOL    HW2 5265   7.231   7.717   6.452
34476SOL     OW 5266   6.485   3.729   4.072
34476SOL    HW1 5267   6.402   3.736   4.119
34476SOL    HW2 5268   6.542   3.681   4.131
34477SOL     OW 5269   1.237   4.286  11.800
34477SOL    HW1 5270   1.297   4.324  11.865
34477SOL    HW2 5271   1.150   4.299  11.837
34478SOL     OW 5272   1.910   4.786   2.441
34478SOL    HW1 5273   1.973   4.776   2.512
34478SOL    HW2 5274   1.828   4.751   2.476
34479SOL     OW 5275   2.408  10.133   3.917
34479SOL    HW1 5276   2.379  10.222   3.938
34479SOL    HW2 5277   2.477  10.146   3.852
34480SOL     OW 5278   8.386  13.180   3.822
34480SOL    HW1 5279   8.461  13.238   3.837
34480SOL    HW2 5280   8.328  13.231   3.765
34481SOL     OW 5281  13.843  14.835   6.138
34481SOL    HW1 5282  13.838  14.742   6.160
34481SOL    HW2 5283  13.896  14.873   6.208
34482SOL     OW 5284   1.071  14.703   7.830
34482SOL    HW1 5285   1.122  14.698   7.911
34482SOL    HW2 5286   0.980  14.705   7.859
34483SOL     OW 5287   3.894   9.648  14.360
34483SOL    HW1 5288   3.902   9.684  14.272
34483SOL    HW2 5289   3.806   9.609  14.362
34484SOL     OW 5290  11.451   8.427   2.018
34484SOL    HW1 5291  11.373   8.415   1.964
34484SOL    HW2 5292  11.492   8.506   1.985
34485SOL     OW 5293   9.516   2.222   8.250
34485SOL    HW1 5294   9.496   2.232   8.342
34485SOL    HW2 5295   9.604   2.260   8.240
34486SOL     OW 5296  10.346  11.154   1.622
34486SOL    HW1 5297  10.272  11.114   1.669
34486SOL    HW2 5298  10.352  11.104   1.541
34487SOL     OW 5299   6.826   3.291  12.156
34487SOL    HW1 5300   6.848   3.381  12.179
34487SOL    HW2 5301   6.731   3.287  12.162
34488SOL     OW 5302   5.316   1.444   8.501
34488SOL    HW1 5303   5.259   1.495   8.443
34488SOL    HW2 5304   5.356   1.508   8.559
34489SOL     OW 5305   2.031   3.331   3.063
34489SOL    HW1 5306   1.952   3.278   3.066
34489SOL    HW2 5307   2.006   3.413   3.105
34490SOL     OW 5308  13.560  11.237  10.560
34490SOL    HW1 5309  13.475  11.283  10.557
34490SOL    HW2 5310  13.574  11.220  10.654
34491SOL     OW 5311   7.631   4.138  14.083
34491SOL    HW1 5312   7.610   4.220  14.127
34491SOL    HW2 5313   7.628   4.159  13.990
34492SOL     OW 5314  10.100   7.961   9.370
34492SOL    HW1 5315  10.007   7.945   9.385
34492SOL    HW2 5316  10.134   7.878   9.336
34493SOL     OW 5317   2.282  13.434   1.878
34493SOL    HW1 5318   2.307  13.515   1.923
34493SOL    HW2 5319   2.197  13.453   1.838
34494SOL     OW 5320   1.844   0.816   3.463
34494SOL    HW1 5321   1.833   0.760   3.386
34494SOL    HW2 5322   1.814   0.762   3.537
34495SOL     OW 5323   9.217   5.279   3.452
34495SOL    HW1 5324   9.308   5.308   3.457
34495SOL    HW2 5325   9.166   5.359   3.447
34496SOL     OW 5326   0.181   0.154  13.123
34496SOL    HW1 5327   0.155   0.124  13.210
34496SOL    HW2 5328   0.141   0.240  13.114
34497SOL     OW 5329   4.163  12.319   7.478
34497SOL    HW1 5330   4.136  12.251   7.540
34497SOL    HW2 5331   4.255  12.302   7.462
34498SOL     OW 5332   7.814   6.195   3.867
34498SOL    HW1 5333   7.895   6.146   3.853
34498SOL    HW2 5334   7.773   6.199   3.781
34499SOL     OW 5335  11.308   1.878   2.301
34499SOL    HW1 5336  11.369   1.828   2.355
34499SOL    HW2 5337  11.222   1.845   2.324
34500SOL     OW 5338  11.757   3.698  14.135
34500SOL    HW1 5339  11.755   3.784  14.092
34500SOL    HW2 5340  11.828   3.652  14.090
34501SOL     OW 5341  12.941   1.831  10.174
34501SOL    HW1 5342  12.851   1.803  10.192
34501SOL    HW2 5343  12.966   1.881  10.252
34502SOL     OW 5344   0.603   5.904   2.306
34502SOL    HW1 5345   0.547   5.933   2.234
34502SOL    HW2 5346   0.686   5.949   2.291
34503SOL     OW 5347   2.359   0.066  11.865
34503SOL    HW1 5348   2.300   0.000  11.828
34503SOL    HW2 5349   2.306   0.110  11.933
34504SOL     OW 5350   1.259   5.367   0.083
34504SOL    HW1 5351   1.192   5.394   0.146
34504SOL    HW2 5352   1.333   5.341   0.138
34505SOL     OW 5353  12.824   5.586   4.879
34505SOL    HW1 5354  12.800   5.661   4.824
34505SOL    HW2 5355  12.863   5.524   4.818
34506SOL     OW 5356  14.459   8.721   6.305
34506SOL    HW1 5357  14.497   8.709   6.392
34506SOL    HW2 5358  14.402   8.645   6.293
34507SOL     OW 5359  10.413   4.980   3.943
34507SOL    HW1 5360  10.431   4.891   3.913
34507SOL    HW2 5361  10.319   4.982   3.960
34508SOL     OW 5362   4.754   0.687   0.779
34508SOL    HW1 5363   4.760   0.760   0.718
34508SOL    HW2 5364   4.717   0.725   0.859
34509SOL     OW 5365   0.937  14.325  10.872
34509SOL    HW1 5366   0.859  14.316  10.927
34509SOL    HW2 5367   1.010  14.329  10.935
34510SOL     OW 5368   9.775  14.772   1.813
34510SOL    HW1 5369   9.826  14.703   1.856
34510SOL    HW2 5370   9.770  14.842   1.878
34511SOL     OW 5371   8.299   0.507   7.916
34511SOL    HW1 5372   8.270   0.523   7.826
34511SOL    HW2 5373   8.318   0.413   7.918
34512SOL     OW 5374   4.461  11.272   1.020
34512SOL    HW1 5375   4.450  11.306   1.109
34512SOL    HW2 5376   4.432  11.180   1.026
34513SOL     OW 5377   6.243   4.411  11.529
34513SOL    HW1 5378   6.242   4.470  11.605
34513SOL    HW2 5379   6.208   4.329  11.562
34514SOL     OW 5380   8.267  10.077   2.508
34514SOL    HW1 5381   8.172  10.074   2.519
34514SOL    HW2 5382   8.301  10.036   2.588
34515SOL     OW 5383  13.036  13.023  13.608
34515SOL    HW1 5384  12.985  12.978  13.676
34515SOL    HW2 5385  13.099  12.957  13.579
34516SOL     OW 5386   7.000  10.322  11.169
34516SOL    HW1 5387   7.036  10.370  11.244
34516SOL    HW2 5388   6.915  10.289  11.199
34517SOL     OW 5389   2.555   0.984  13.366
34517SOL    HW1 5390   2.628   0.977  13.428
34517SOL    HW2 5391   2.539   0.895  13.337
34518SOL     OW 5392   1.703   2.332   1.268
34518SOL    HW1 5393   1.731   2.265   1.330
34518SOL    HW2 5394   1.637   2.289   1.213
34519SOL     OW 5395   4.348   6.332  10.216
34519SOL    HW1 5396   4.338   6.319  10.122
34519SOL    HW2 5397   4.442   6.331  10.231
34520SOL     OW 5398   1.493  10.244   4.030
34520SOL    HW1 5399   1.466  10.316   3.974
34520SOL    HW2 5400   1.432  10.173   4.009
34521SOL     OW 5401   7.949   3.450   5.641
34521SOL    HW1 5402   7.929   3.510   5.713
34521SOL    HW2 5403   7.867   3.404   5.625
34522SOL     OW 5404   7.474  12.712   3.614
34522SOL    HW1 5405   7.446  12.705   3.705
34522SOL    HW2 5406   7.487  12.806   3.600
34523SOL     OW 5407   9.215   1.158   8.331
34523SOL    HW1 5408   9.183   1.190   8.246
34523SOL    HW2 5409   9.299   1.204   8.343
34524SOL     OW 5410  12.107  14.059   6.323
34524SOL    HW1 5411  12.198  14.043   6.299
34524SOL    HW2 5412  12.088  14.147   6.291
34525SOL     OW 5413   9.639  11.525  10.961
34525SOL    HW1 5414   9.670  11.477  11.038
34525SOL    HW2 5415   9.693  11.603  10.958
34526SOL     OW 5416   8.108   1.620  10.885
34526SOL    HW1 5417   8.040   1.643  10.949
34526SOL    HW2 5418   8.170   1.567  10.935
34527SOL     OW 5419   7.817   6.487  13.308
34527SOL    HW1 5420   7.813   6.391  13.309
34527SOL    HW2 5421   7.911   6.507  13.308
34528SOL     OW 5422  11.108  12.837   1.886
34528SOL    HW1 5423  11.032  12.864   1.835
34528SOL    HW2 5424  11.158  12.781   1.826
34529SOL     OW 5425  12.702   4.610   0.498
34529SOL    HW1 5426  12.780   4.653   0.531
34529SOL    HW2 5427  12.668   4.560   0.572
34530SOL     OW 5428   5.002   1.593  13.024
34530SOL    HW1 5429   5.022   1.679  13.063
34530SOL    HW2 5430   4.955   1.614  12.943
34531SOL     OW 5431   7.647  14.322   2.664
34531SOL    HW1 5432   7.599  14.344   2.744
34531SOL    HW2 5433   7.630  14.396   2.605
34532SOL     OW 5434  10.833   4.320   0.047
34532SOL    HW1 5435  10.824   4.369   0.129
34532SOL    HW2 5436  10.782   4.241   0.060
34533SOL     OW 5437  10.460   6.744   4.001
34533SOL    HW1 5438  10.472   6.838   4.014
34533SOL    HW2 5439  10.454   6.734   3.906
34534SOL     OW 5440   2.876  12.441   2.032
34534SOL    HW1 5441   2.813  12.407   1.969
34534SOL    HW2 5442   2.861  12.389   2.111
34535SOL     OW 5443   1.470   7.504   0.101
34535SOL    HW1 5444   1.558   7.465   0.098
34535SOL    HW2 5445   1.426   7.470   0.023
34536SOL     OW 5446   2.199   6.387   3.533
34536SOL    HW1 5447   2.131   6.401   3.600
34536SOL    HW2 5448   2.179   6.451   3.465
34537SOL     OW 5449   5.599   6.626   0.143
34537SOL    HW1 5450   5.671   6.595   0.198
34537SOL    HW2 5451   5.641   6.655   0.063
34538SOL     OW 5452   9.048  11.631   6.996
34538SOL    HW1 5453   9.104  11.560   7.026
34538SOL    HW2 5454   9.105  11.687   6.943
34539SOL     OW 5455   7.824   8.809   2.299
34539SOL    HW1 5456   7.914   8.791   2.327
34539SOL    HW2 5457   7.814   8.904   2.311
34540SOL     OW 5458   4.230   2.803   7.093
34540SOL    HW1 5459   4.245   2.825   7.185
34540SOL    HW2 5460   4.299   2.851   7.046
34541SOL     OW 5461   1.432   6.020  10.593
34541SOL    HW1 5462   1.473   6.036  10.508
34541SOL    HW2 5463   1.363   6.086  10.599
34542SOL     OW 5464   1.765   7.556   5.641
34542SOL    HW1 5465   1.711   7.632   5.659
34542SOL    HW2 5466   1.733   7.489   5.702
34543SOL     OW 5467   4.932   0.392   5.923
34543SOL    HW1 5468   4.868   0.386   5.994
34543SOL    HW2 5469   4.956   0.301   5.906
34544SOL     OW 5470   2.798  12.883  13.864
34544SOL    HW1 5471   2.719  12.891  13.917
34544SOL    HW2 5472   2.860  12.835  13.920
34545SOL     OW 5473   9.777   0.148   8.323
34545SOL    HW1 5474   9.785   0.115   8.413
34545SOL    HW2 5475   9.866   0.169   8.298
34546SOL     OW 5476  12.809   0.064  10.859
34546SOL    HW1 5477  12.736   0.016  10.897
34546SOL    HW2 5478  12.799   0.053  10.764
34547SOL     OW 5479  12.557   0.348   5.333
34547SOL    HW1 5480  12.649   0.373   5.320
34547SOL    HW2 5481  12.520   0.419   5.385
34548SOL     OW 5482   9.173   3.053  10.074
34548SOL    HW1 5483   9.242   3.000  10.035
34548SOL    HW2 5484   9.092   3.018  10.036
34549SOL     OW 5485   4.016   0.594  11.198
34549SOL    HW1 5486   4.017   0.687  11.221
34549SOL    HW2 5487   4.086   0.585  11.133
34550SOL     OW 5488   7.304  12.240   8.169
34550SOL    HW1 5489   7.361  12.299   8.218
34550SOL    HW2 5490   7.261  12.187   8.236
34551SOL     OW 5491   5.757   0.540  13.182
34551SOL    HW1 5492   5.763   0.633  13.164
34551SOL    HW2 5493   5.812   0.499  13.116
34552SOL     OW 5494   9.489   9.506  12.377
34552SOL    HW1 5495   9.569   9.499  12.429
34552SOL    HW2 5496   9.489   9.597  12.346
34553SOL     OW 5497   5.011  14.099  10.243
34553SOL    HW1 5498   4.919  14.074  10.245
34553SOL    HW2 5499   5.055  14.028  10.196
34554SOL     OW 5500   6.668   1.224  12.565
34554SOL    HW1 5501   6.597   1.200  12.505
34554SOL    HW2 5502   6.732   1.270  12.511
34555SOL     OW 5503   8.674  14.069  12.151
34555SOL    HW1 5504   8.594  14.084  12.101
34555SOL    HW2 5505   8.729  14.146  12.131
34556SOL     OW 5506   1.863   0.508  14.406
34556SOL    HW1 5507   1.825   0.594  14.421
34556SOL    HW2 5508   1.832   0.454  14.478
34557SOL     OW 5509  10.078   5.688   4.952
34557SOL    HW1 5510  10.085   5.595   4.971
34557SOL    HW2 5511   9.998   5.716   4.996
34558SOL     OW 5512   4.964  12.592   6.728
34558SOL    HW1 5513   4.908  12.519   6.699
34558SOL    HW2 5514   5.022  12.553   6.793
34559SOL     OW 5515  11.043  14.448   6.380
34559SOL    HW1 5516  10.991  14.370   6.359
34559SOL    HW2 5517  11.113  14.449   6.315
34560SOL     OW 5518   9.924   5.562   1.899
34560SOL    HW1 5519   9.835   5.532   1.915
34560SOL    HW2 5520   9.931   5.569   1.804
34561SOL     OW 5521   4.199   3.403   3.117
34561SOL    HW1 5522   4.286   3.442   3.122
34561SOL    HW2 5523   4.215   3.309   3.116
34562SOL     OW 5524   8.430  12.500   9.392
34562SOL    HW1 5525   8.472  12.585   9.380
34562SOL    HW2 5526   8.437  12.457   9.307
34563SOL     OW 5527   6.791   2.814  13.670
34563SOL    HW1 5528   6.861   2.810  13.735
34563SOL    HW2 5529   6.814   2.890  13.616
34564SOL     OW 5530   4.218  14.036   8.163
34564SOL    HW1 5531   4.154  14.102   8.135
34564SOL    HW2 5532   4.276  14.083   8.222
34565SOL     OW 5533   0.603   6.475   8.094
34565SOL    HW1 5534   0.605   6.424   8.013
34565SOL    HW2 5535   0.554   6.554   8.072
34566SOL     OW 5536   1.412   1.735  12.146
34566SOL    HW1 5537   1.507   1.731  12.159
34566SOL    HW2 5538   1.401   1.742  12.051
34567SOL     OW 5539  11.672   4.516  11.344
34567SOL    HW1 5540  11.746   4.550  11.394
34567SOL    HW2 5541  11.705   4.436  11.303
34568SOL     OW 5542   2.515  12.052   6.259
34568SOL    HW1 5543   2.518  11.964   6.298
34568SOL    HW2 5544   2.471  12.105   6.325
34569SOL     OW 5545  12.534   1.899   9.781
34569SOL    HW1 5546  12.446   1.902   9.819
34569SOL    HW2 5547  12.590   1.934   9.850
34570SOL     OW 5548   8.868   2.104  11.292
34570SOL    HW1 5549   8.830   2.104  11.204
34570SOL    HW2 5550   8.830   2.182  11.334
34571SOL     OW 5551   3.816  10.423   6.504
34571SOL    HW1 5552   3.899  10.382   6.531
34571SOL    HW2 5553   3.826  10.436   6.410
34572SOL     OW 5554   1.202  12.800   4.876
34572SOL    HW1 5555   1.259  12.726   4.856
34572SOL    HW2 5556   1.217  12.862   4.804
34573SOL     OW 5557  11.623   1.835  13.337
34573SOL    HW1 5558  11.531   1.849  13.315
34573SOL    HW2 5559  11.667   1.914  13.306
34574SOL     OW 5560   0.276   4.068   5.508
34574SOL    HW1 5561   0.251   3.989   5.556
34574SOL    HW2 5562   0.338   4.112   5.566
34575SOL     OW 5563   3.047   3.141   2.726
34575SOL    HW1 5564   3.001   3.129   2.643
34575SOL    HW2 5565   3.002   3.083   2.787
34576SOL     OW 5566   7.925  10.643   0.203
34576SOL    HW1 5567   7.964  10.688   0.277
34576SOL    HW2 5568   7.831  10.648   0.218
34577SOL     OW 5569   5.868   4.883  10.829
34577SOL    HW1 5570   5.881   4.975  10.852
34577SOL    HW2 5571   5.871   4.837  10.913
34578SOL     OW 5572   2.981  10.386   6.244
34578SOL    HW1 5573   3.025  10.440   6.309
34578SOL    HW2 5574   2.913  10.443   6.207
34579SOL     OW 5575   3.932   8.460  14.722
34579SOL    HW1 5576   3.983   8.541  14.727
34579SOL    HW2 5577   3.982   8.403  14.664
34580SOL     OW 5578   6.586   3.203  12.803
34580SOL    HW1 5579   6.562   3.174  12.891
34580SOL    HW2 5580   6.620   3.291  12.815
34581SOL     OW 5581   7.715   3.597   6.382
34581SOL    HW1 5582   7.758   3.669   6.427
34581SOL    HW2 5583   7.622   3.609   6.399
34582SOL     OW 5584   4.521   8.526   2.603
34582SOL    HW1 5585   4.521   8.563   2.514
34582SOL    HW2 5586   4.602   8.557   2.642
34583SOL     OW 5587   6.917   3.091  12.329
34583SOL    HW1 5588   6.923   3.036  12.251
34583SOL    HW2 5589   6.891   3.177  12.296
34584SOL     OW 5590   6.322   2.990   1.381
34584SOL    HW1 5591   6.398   2.938   1.406
34584SOL    HW2 5592   6.268   2.994   1.460
34585SOL     OW 5593   2.953  12.895  13.618
34585SOL    HW1 5594   2.940  12.919  13.526
34585SOL    HW2 5595   2.865  12.899  13.656
34586SOL     OW 5596  13.500   7.867   8.522
34586SOL    HW1 5597  13.475   7.775   8.532
34586SOL    HW2 5598  13.587   7.872   8.562
34587SOL     OW 5599   0.136   0.403   0.710
34587SOL    HW1 5600   0.062   0.450   0.750
34587SOL    HW2 5601   0.113   0.396   0.618
34588SOL     OW 5602   5.328   2.659   3.590
34588SOL    HW1 5603   5.255   2.598   3.579
34588SOL    HW2 5604   5.295   2.726   3.649
34589SOL     OW 5605   2.698   5.181   5.905
34589SOL    HW1 5606   2.631   5.161   5.970
34589SOL    HW2 5607   2.775   5.133   5.934
34590SOL     OW 5608  11.020  13.455   2.430
34590SOL    HW1 5609  10.981  13.465   2.517
34590SOL    HW2 5610  10.986  13.371   2.398
34591SOL     OW 5611   2.124  13.426  14.779
34591SOL    HW1 5612   2.066  13.493  14.813
34591SOL    HW2 5613   2.079  13.344  14.796
34592SOL     OW 5614  11.185   9.352  11.144
34592SOL    HW1 5615  11.184   9.440  11.106
34592SOL    HW2 5616  11.273   9.319  11.128
34593SOL     OW 5617  13.355  12.670  12.672
34593SOL    HW1 5618  13.436  12.623  12.652
34593SOL    HW2 5619  13.385  12.757  12.698
34594SOL     OW 5620   1.959  10.906   6.642
34594SOL    HW1 5621   2.026  10.898   6.574
34594SOL    HW2 5622   1.928  10.817   6.657
34595SOL     OW 5623  11.328   6.840   8.745
34595SOL    HW1 5624  11.319   6.900   8.671
34595SOL    HW2 5625  11.249   6.854   8.797
34596SOL     OW 5626   7.949   0.444  12.380
34596SOL    HW1 5627   7.992   0.424  12.297
34596SOL    HW2 5628   7.870   0.390  12.381
34597SOL     OW 5629   4.725  10.454   3.949
34597SOL    HW1 5630   4.722  10.359   3.937
34597SOL    HW2 5631   4.790  10.484   3.887
34598SOL     OW 5632   8.811   4.834   9.940
34598SOL    HW1 5633   8.798   4.818   9.847
34598SOL    HW2 5634   8.745   4.781   9.984
34599SOL     OW 5635   4.685   3.575   1.214
34599SOL    HW1 5636   4.762   3.586   1.270
34599SOL    HW2 5637   4.621   3.529   1.269
34600SOL     OW 5638   3.019  10.287   7.229
34600SOL    HW1 5639   2.959  10.357   7.203
34600SOL    HW2 5640   3.106  10.326   7.225
34601SOL     OW 5641  12.754  13.194  13.262
34601SOL    HW1 5642  12.723  13.178  13.351
34601SOL    HW2 5643  12.834  13.143  13.255
34602SOL     OW 5644   6.957   5.622  11.660
34602SOL    HW1 5645   6.905   5.629  11.580
34602SOL    HW2 5646   6.925   5.543  11.703
34603SOL     OW 5647   7.024   5.200   4.023
34603SOL    HW1 5648   7.052   5.292   4.020
34603SOL    HW2 5649   6.992   5.183   3.934
34604SOL     OW 5650   2.514   1.632  10.916
34604SOL    HW1 5651   2.483   1.618  10.827
34604SOL    HW2 5652   2.588   1.691  10.907
34605SOL     OW 5653   0.848  13.227   1.139
34605SOL    HW1 5654   0.850  13.290   1.067
34605SOL    HW2 5655   0.938  13.193   1.143
34606SOL     OW 5656   6.877  12.398  14.128
34606SOL    HW1 5657   6.935  12.323  14.131
34606SOL    HW2 5658   6.911  12.452  14.057
34607SOL     OW 5659  10.864   5.852  12.786
34607SOL    HW1 5660  10.779   5.858  12.741
34607SOL    HW2 5661  10.923   5.813  12.722
34608SOL     OW 5662   5.603   2.966   2.465
34608SOL    HW1 5663   5.642   3.003   2.545
34608SOL    HW2 5664   5.510   2.957   2.485
34609SOL     OW 5665  11.119   5.482   4.988
34609SOL    HW1 5666  11.061   5.416   5.027
34609SOL    HW2 5667  11.185   5.499   5.056
34610SOL     OW 5668   3.148   4.009   6.713
34610SOL    HW1 5669   3.075   3.946   6.707
34610SOL    HW2 5670   3.105   4.095   6.714
34611SOL     OW 5671   9.439   9.630   4.847
34611SOL    HW1 5672   9.513   9.576   4.820
34611SOL    HW2 5673   9.363   9.589   4.805
34612SOL     OW 5674   0.238   5.973   2.307
34612SOL    HW1 5675   0.297   5.992   2.234
34612SOL    HW2 5676   0.155   6.013   2.282
34613SOL     OW 5677   7.638   7.363   6.000
34613SOL    HW1 5678   7.656   7.269   6.001
34613SOL    HW2 5679   7.558   7.372   5.949
34614SOL     OW 5680   9.026   1.852   2.421
34614SOL    HW1 5681   9.097   1.888   2.368
34614SOL    HW2 5682   9.069   1.786   2.476
34615SOL     OW 5683   1.451  10.924   1.879
34615SOL    HW1 5684   1.432  10.838   1.840
34615SOL    HW2 5685   1.366  10.967   1.884
34616SOL     OW 5686   6.651   2.367   9.014
34616SOL    HW1 5687   6.690   2.280   9.016
34616SOL    HW2 5688   6.667   2.399   8.926
34617SOL     OW 5689   8.687   1.402  11.755
34617SOL    HW1 5690   8.672   1.399  11.850
34617SOL    HW2 5691   8.730   1.486  11.741
34618SOL     OW 5692  14.392   8.278  11.487
34618SOL    HW1 5693  14.300   8.265  11.510
34618SOL    HW2 5694  14.396   8.264  11.393
34619SOL     OW 5695   9.693  11.448   8.109
34619SOL    HW1 5696   9.769  11.448   8.168
34619SOL    HW2 5697   9.621  11.482   8.163
34620SOL     OW 5698  10.259   0.964   9.093
34620SOL    HW1 5699  10.170   0.948   9.060
34620SOL    HW2 5700  10.251   1.045   9.144
34621SOL     OW 5701   2.397   2.658   9.526
34621SOL    HW1 5702   2.471   2.619   9.572
34621SOL    HW2 5703   2.320   2.620   9.568
34622SOL     OW 5704   6.038   6.093   0.132
34622SOL    HW1 5705   6.082   6.174   0.106
34622SOL    HW2 5706   6.064   6.079   0.223
34623SOL     OW 5707   9.930   9.885  10.488
34623SOL    HW1 5708   9.949   9.968  10.532
34623SOL    HW2 5709   9.838   9.892  10.463
34624SOL     OW 5710  13.360  11.203   7.783
34624SOL    HW1 5711  13.412  11.230   7.858
34624SOL    HW2 5712  13.401  11.246   7.708
34625SOL     OW 5713  12.121   9.686  13.685
34625SOL    HW1 5714  12.038   9.658  13.725
34625SOL    HW2 5715  12.173   9.719  13.759
34626SOL     OW 5716  10.897  13.345   6.699
34626SOL    HW1 5717  10.824  13.339   6.637
34626SOL    HW2 5718  10.952  13.416   6.665
34627SOL     OW 5719   2.665  10.822   6.319
34627SOL    HW1 5720   2.657  10.820   6.223
34627SOL    HW2 5721   2.754  10.852   6.335
34628SOL     OW 5722  10.208   9.865   5.165
34628SOL    HW1 5723  10.186   9.958   5.174
34628SOL    HW2 5724  10.166   9.823   5.240
34629SOL     OW 5725   7.779  14.064  13.449
34629SOL    HW1 5726   7.823  14.140  13.411
34629SOL    HW2 5727   7.834  14.039  13.523
34630SOL     OW 5728   4.193   7.793   0.387
34630SOL    HW1 5729   4.252   7.863   0.417
34630SOL    HW2 5730   4.175   7.815   0.295
34631SOL     OW 5731   8.176  11.517   8.612
34631SOL    HW1 5732   8.218  11.598   8.584
34631SOL    HW2 5733   8.183  11.458   8.536
34632SOL     OW 5734  14.811  13.965  14.348
34632SOL    HW1 5735  14.793  14.048  14.304
34632SOL    HW2 5736  14.737  13.953  14.408
34633SOL     OW 5737   9.326  14.854   5.454
34633SOL    HW1 5738   9.383   0.050   5.485
34633SOL    HW2 5739   9.385  14.781   5.436
34634SOL     OW 5740   1.713   1.264   9.456
34634SOL    HW1 5741   1.692   1.355   9.474
34634SOL    HW2 5742   1.808   1.263   9.445
34635SOL     OW 5743   0.536  13.063  14.333
34635SOL    HW1 5744   0.558  13.081  14.241
34635SOL    HW2 5745   0.501  12.974  14.333
34636SOL     OW 5746   3.513   6.843   7.799
34636SOL    HW1 5747   3.558   6.926   7.812
34636SOL    HW2 5748   3.584   6.779   7.788
34637SOL     OW 5749   3.014   2.283   6.034
34637SOL    HW1 5750   2.918   2.280   6.032
34637SOL    HW2 5751   3.037   2.262   6.124
34638SOL     OW 5752  14.374   0.166  12.145
34638SOL    HW1 5753  14.468   0.170  12.125
34638SOL    HW2 5754  14.348   0.079  12.117
34639SOL     OW 5755   8.511  11.174  10.507
34639SOL    HW1 5756   8.507  11.079  10.508
34639SOL    HW2 5757   8.428  11.202  10.546
34640SOL     OW 5758  12.324   3.306   9.443
34640SOL    HW1 5759  12.307   3.212   9.449
34640SOL    HW2 5760  12.322   3.325   9.349
34641SOL     OW 5761   4.179   5.527   7.698
34641SOL    HW1 5762   4.265   5.519   7.658
34641SOL    HW2 5763   4.197   5.554   7.788
34642SOL     OW 5764  12.633  14.152   5.185
34642SOL    HW1 5765  12.561  14.144   5.247
34642SOL    HW2 5766  12.709  14.174   5.239
34643SOL     OW 5767   2.705   7.306   2.647
34643SOL    HW1 5768   2.726   7.337   2.736
34643SOL    HW2 5769   2.771   7.348   2.592
34644SOL     OW 5770   3.054   8.383   8.913
34644SOL    HW1 5771   3.045   8.473   8.943
34644SOL    HW2 5772   3.132   8.350   8.956
34645SOL     OW 5773   0.787   3.111  11.101
34645SOL    HW1 5774   0.739   3.130  11.020
34645SOL    HW2 5775   0.877   3.137  11.082
34646SOL     OW 5776  14.781  10.009   1.209
34646SOL    HW1 5777  14.799   9.957   1.131
34646SOL    HW2 5778  14.710  10.067   1.183
34647SOL     OW 5779  13.116   2.769   4.605
34647SOL    HW1 5780  13.095   2.775   4.512
34647SOL    HW2 5781  13.209   2.747   4.607
34648SOL     OW 5782  11.230   9.659  12.254
34648SOL    HW1 5783  11.217   9.695  12.342
34648SOL    HW2 5784  11.300   9.713  12.216
34649SOL     OW 5785   5.764   4.517  13.866
34649SOL    HW1 5786   5.755   4.535  13.959
34649SOL    HW2 5787   5.687   4.557  13.826
34650SOL     OW 5788   2.057   8.428  11.078
34650SOL    HW1 5789   2.108   8.346  11.077
34650SOL    HW2 5790   1.968   8.401  11.053
34651SOL     OW 5791   9.510   9.114   6.205
34651SOL    HW1 5792   9.427   9.141   6.242
34651SOL    HW2 5793   9.508   9.145   6.114
34652SOL     OW 5794   1.322  11.586   6.013
34652SOL    HW1 5795   1.362  11.566   6.098
34652SOL    HW2 5796   1.244  11.637   6.035
34653SOL     OW 5797   9.471   8.038   9.798
34653SOL    HW1 5798   9.513   8.116   9.762
34653SOL    HW2 5799   9.540   7.994   9.847
34654SOL     OW 5800   1.969   7.489  13.520
34654SOL    HW1 5801   1.919   7.571  13.513
34654SOL    HW2 5802   2.016   7.483  13.437
34655SOL     OW 5803   1.227  12.131  12.635
34655SOL    HW1 5804   1.275  12.206  12.601
34655SOL    HW2 5805   1.293  12.081  12.684
34656SOL     OW 5806  13.043   4.513   5.770
34656SOL    HW1 5807  12.973   4.566   5.809
34656SOL    HW2 5808  13.123   4.542   5.815
34657SOL     OW 5809  11.324   1.742   3.626
34657SOL    HW1 5810  11.372   1.822   3.647
34657SOL    HW2 5811  11.389   1.672   3.638
34658SOL     OW 5812  11.220   6.432   0.608
34658SOL    HW1 5813  11.144   6.399   0.562
34658SOL    HW2 5814  11.250   6.359   0.661
34659SOL     OW 5815   7.797   5.842   7.127
34659SOL    HW1 5816   7.728   5.907   7.114
34659SOL    HW2 5817   7.848   5.875   7.201
34660SOL     OW 5818   2.460   6.421  13.300
34660SOL    HW1 5819   2.460   6.330  13.268
34660SOL    HW2 5820   2.439   6.473  13.223
34661SOL     OW 5821  14.824   4.929  12.544
34661SOL    HW1 5822  14.860   4.957  12.628
34661SOL    HW2 5823   0.009   4.967  12.479
34662SOL     OW 5824  13.503   6.904   2.085
34662SOL    HW1 5825  13.419   6.944   2.108
34662SOL    HW2 5826  13.484   6.810   2.079
34663SOL     OW 5827   4.255   2.818  13.650
34663SOL    HW1 5828   4.331   2.760  13.661
34663SOL    HW2 5829   4.184   2.760  13.623
34664SOL     OW 5830   9.295   3.906   6.275
34664SOL    HW1 5831   9.259   3.895   6.363
34664SOL    HW2 5832   9.306   4.001   6.265
34665SOL     OW 5833   0.731  14.203   9.879
34665SOL    HW1 5834   0.729  14.203   9.974
34665SOL    HW2 5835   0.641  14.185   9.853
34666SOL     OW 5836  10.560  14.380  14.244
34666SOL    HW1 5837  10.570  14.286  14.231
34666SOL    HW2 5838  10.497  14.388  14.315
34667SOL     OW 5839  13.474   7.439  11.830
34667SOL    HW1 5840  13.430   7.371  11.881
34667SOL    HW2 5841  13.506   7.394  11.752
34668SOL     OW 5842   2.586   9.393   0.746
34668SOL    HW1 5843   2.492   9.405   0.761
34668SOL    HW2 5844   2.620   9.363   0.830
34669SOL     OW 5845  13.039   9.525   8.575
34669SOL    HW1 5846  13.082   9.610   8.567
34669SOL    HW2 5847  13.084   9.469   8.511
34670SOL     OW 5848  14.035  11.260   6.035
34670SOL    HW1 5849  13.962  11.292   6.087
34670SOL    HW2 5850  13.998  11.189   5.983
34671SOL     OW 5851   7.655   7.961   8.558
34671SOL    HW1 5852   7.581   8.021   8.567
34671SOL    HW2 5853   7.713   8.004   8.495
34672SOL     OW 5854   4.052   3.878   3.378
34672SOL    HW1 5855   4.019   3.850   3.292
34672SOL    HW2 5856   4.048   3.799   3.432
34673SOL     OW 5857   9.838  14.354   3.336
34673SOL    HW1 5858   9.825  14.299   3.413
34673SOL    HW2 5859   9.931  14.345   3.316
34674SOL     OW 5860   9.799   5.243   2.007
34674SOL    HW1 5861   9.891   5.231   1.982
34674SOL    HW2 5862   9.802   5.258   2.101
34675SOL     OW 5863  10.006   7.740   9.155
34675SOL    HW1 5864  10.020   7.783   9.070
34675SOL    HW2 5865   9.924   7.692   9.145
34676SOL     OW 5866  13.566   2.918   8.335
34676SOL    HW1 5867  13.586   2.825   8.328
34676SOL    HW2 5868  13.513   2.938   8.258
34677SOL     OW 5869   6.314  10.762   0.335
34677SOL    HW1 5870   6.363  10.749   0.254
34677SOL    HW2 5871   6.224  10.778   0.307
34678SOL     OW 5872  12.502   0.905   3.336
34678SOL    HW1 5873  12.570   0.943   3.281
34678SOL    HW2 5874  12.463   0.837   3.282
34679SOL     OW 5875  13.959   3.564  13.734
34679SOL    HW1 5876  13.877   3.521  13.712
34679SOL    HW2 5877  13.995   3.592  13.650
34680SOL     OW 5878   4.232   4.179   1.383
34680SOL    HW1 5879   4.314   4.190   1.335
34680SOL    HW2 5880   4.192   4.266   1.382
34681SOL     OW 5881   2.746   9.716   7.242
34681SOL    HW1 5882   2.827   9.743   7.285
34681SOL    HW2 5883   2.710   9.648   7.299
34682SOL     OW 5884   7.200   2.359   1.247
34682SOL    HW1 5885   7.151   2.361   1.330
34682SOL    HW2 5886   7.283   2.402   1.268
34683SOL     OW 5887  11.594  14.100   8.328
34683SOL    HW1 5888  11.684  14.078   8.303
34683SOL    HW2 5889  11.590  14.195   8.322
34684SOL     OW 5890   5.078  12.287   9.665
34684SOL    HW1 5891   5.009  12.221   9.650
34684SOL    HW2 5892   5.160  12.240   9.648
34685SOL     OW 5893  11.400   5.339   2.666
34685SOL    HW1 5894  11.415   5.385   2.584
34685SOL    HW2 5895  11.487   5.314   2.697
34686SOL     OW 5896   9.389   4.404   3.844
34686SOL    HW1 5897   9.428   4.480   3.803
34686SOL    HW2 5898   9.380   4.428   3.936
34687SOL     OW 5899   2.090   5.813  11.073
34687SOL    HW1 5900   2.163   5.842  11.017
34687SOL    HW2 5901   2.054   5.737  11.027
34688SOL     OW 5902   7.563  12.106   7.471
34688SOL    HW1 5903   7.504  12.119   7.397
34688SOL    HW2 5904   7.600  12.193   7.488
34689SOL     OW 5905   0.230   2.540  14.127
34689SOL    HW1 5906   0.325   2.549  14.134
34689SOL    HW2 5907   0.209   2.573  14.040
34690SOL     OW 5908   8.907   1.852  11.368
34690SOL    HW1 5909   8.869   1.938  11.384
34690SOL    HW2 5910   8.896   1.838  11.274
34691SOL     OW 5911   4.049   6.449   7.798
34691SOL    HW1 5912   4.002   6.370   7.772
34691SOL    HW2 5913   4.056   6.442   7.894
34692SOL     OW 5914   7.164   3.778   0.758
34692SOL    HW1 5915   7.177   3.720   0.683
34692SOL    HW2 5916   7.127   3.722   0.826
34693SOL     OW 5917   7.417  11.088   9.347
34693SOL    HW1 5918   7.404  11.127   9.434
34693SOL    HW2 5919   7.428  10.994   9.364
34694SOL     OW 5920   9.254   9.565   3.385
34694SOL    HW1 5921   9.332   9.593   3.434
34694SOL    HW2 5922   9.267   9.602   3.298
34695SOL     OW 5923   5.260   3.245   1.193
34695SOL    HW1 5924   5.248   3.157   1.158
34695SOL    HW2 5925   5.197   3.252   1.265
34696SOL     OW 5926   0.459   9.571   5.482
34696SOL    HW1 5927   0.385   9.619   5.519
34696SOL    HW2 5928   0.438   9.562   5.389
34697SOL     OW 5929  10.117  10.793  14.634
34697SOL    HW1 5930  10.051  10.860  14.649
34697SOL    HW2 5931  10.081  10.738  14.565
34698SOL     OW 5932  12.993   3.770   8.434
34698SOL    HW1 5933  12.980   3.816   8.351
34698SOL    HW2 5934  12.979   3.838   8.501
34699SOL     OW 5935  13.015   6.319   0.198
34699SOL    HW1 5936  12.985   6.239   0.241
34699SOL    HW2 5937  13.035   6.292   0.108
34700SOL     OW 5938   8.943   9.620   7.244
34700SOL    HW1 5939   8.922   9.666   7.162
34700SOL    HW2 5940   8.929   9.528   7.223
34701SOL     OW 5941   8.466   8.427  14.645
34701SOL    HW1 5942   8.434   8.363  14.708
34701SOL    HW2 5943   8.423   8.404  14.563
34702SOL     OW 5944  10.236  12.122   1.653
34702SOL    HW1 5945  10.243  12.143   1.746
34702SOL    HW2 5946  10.316  12.072   1.633
34703SOL     OW 5947  14.608  12.623  14.477
34703SOL    HW1 5948  14.647  12.711  14.477
34703SOL    HW2 5949  14.542  12.626  14.547
34704SOL     OW 5950  10.821   5.244   4.554
34704SOL    HW1 5951  10.837   5.338   4.564
34704SOL    HW2 5952  10.844   5.207   4.639
34705SOL     OW 5953  12.904  11.898   8.640
34705SOL    HW1 5954  12.977  11.951   8.672
34705SOL    HW2 5955  12.845  11.961   8.597
34706SOL     OW 5956   9.380  10.542   6.066
34706SOL    HW1 5957   9.310  10.517   6.006
34706SOL    HW2 5958   9.401  10.633   6.043
34707SOL     OW 5959  10.306   1.028   5.220
34707SOL    HW1 5960  10.380   0.968   5.229
34707SOL    HW2 5961  10.347   1.115   5.218
34708SOL     OW 5962   5.211  14.222   9.222
34708SOL    HW1 5963   5.177  14.157   9.161
34708SOL    HW2 5964   5.177  14.306   9.189
34709SOL     OW 5965  10.825  10.145   3.082
34709SOL    HW1 5966  10.736  10.113   3.097
34709SOL    HW2 5967  10.813  10.228   3.036
34710SOL     OW 5968  10.026   5.257   1.282
34710SOL    HW1 5969  10.078   5.270   1.203
34710SOL    HW2 5970  10.005   5.164   1.282
34711SOL     OW 5971   0.517   3.964   4.329
34711SOL    HW1 5972   0.498   3.899   4.397
34711SOL    HW2 5973   0.431   3.999   4.305
34712SOL     OW 5974  10.891   0.145   4.064
34712SOL    HW1 5975  10.826   0.082   4.032
34712SOL    HW2 5976  10.968   0.092   4.083
34713SOL     OW 5977   4.939   9.315   9.994
34713SOL    HW1 5978   5.009   9.251  10.010
34713SOL    HW2 5979   4.984   9.399   9.990
34714SOL     OW 5980   9.943  13.731   9.170
34714SOL    HW1 5981   9.854  13.718   9.138
34714SOL    HW2 5982   9.998  13.683   9.109
34715SOL     OW 5983   8.522   0.547   8.959
34715SOL    HW1 5984   8.427   0.537   8.964
34715SOL    HW2 5985   8.557   0.477   9.015
34716SOL     OW 5986   8.010  13.525  12.072
34716SOL    HW1 5987   8.095  13.530  12.028
34716SOL    HW2 5988   8.008  13.603  12.128
34717SOL     OW 5989   6.720  11.424  12.054
34717SOL    HW1 5990   6.810  11.446  12.079
34717SOL    HW2 5991   6.673  11.507  12.061
34718SOL     OW 5992   1.338   4.172   0.382
34718SOL    HW1 5993   1.304   4.086   0.408
34718SOL    HW2 5994   1.432   4.167   0.397
34719SOL     OW 5995  11.137   0.603   0.781
34719SOL    HW1 5996  11.092   0.658   0.717
34719SOL    HW2 5997  11.191   0.543   0.728
34720SOL     OW 5998   6.113  10.025   4.751
34720SOL    HW1 5999   6.038   9.973   4.780
34720SOL    HW2 6000   6.190   9.973   4.773
34721SOL     OW 6001  11.083   7.514   9.752
34721SOL    HW1 6002  11.133   7.489   9.675
34721SOL    HW2 6003  11.000   7.546   9.718
34722SOL     OW 6004   8.147   2.962  10.277
34722SOL    HW1 6005   8.108   3.038  10.234
34722SOL    HW2 6006   8.227   2.995  10.318
34723SOL     OW 6007   9.230   0.805   4.151
34723SOL    HW1 6008   9.205   0.803   4.059
34723SOL    HW2 6009   9.173   0.740   4.193
34724SOL     OW 6010  14.467   3.324  10.932
34724SOL    HW1 6011  14.452   3.314  11.026
34724SOL    HW2 6012  14.457   3.235  10.897
34725SOL     OW 6013   6.241   0.975   3.135
34725SOL    HW1 6014   6.259   1.058   3.180
34725SOL    HW2 6015   6.327   0.941   3.113
34726SOL     OW 6016   9.020   5.564  12.636
34726SOL    HW1 6017   9.102   5.517  12.649
34726SOL    HW2 6018   8.958   5.522  12.695
34727SOL     OW 6019   4.831   2.761   3.956
34727SOL    HW1 6020   4.911   2.709   3.958
34727SOL    HW2 6021   4.786   2.739   4.038
34728SOL     OW 6022   2.055   9.489  12.103
34728SOL    HW1 6023   2.086   9.438  12.177
34728SOL    HW2 6024   1.976   9.444  12.074
34729SOL     OW 6025   5.959   1.993   8.770
34729SOL    HW1 6026   5.971   1.903   8.799
34729SOL    HW2 6027   5.941   1.986   8.676
34730SOL     OW 6028  13.194   3.438  13.882
34730SOL    HW1 6029  13.262   3.372  13.897
34730SOL    HW2 6030  13.211   3.505  13.947
34731SOL     OW 6031  13.120  13.431  10.049
34731SOL    HW1 6032  13.134  13.347  10.004
34731SOL    HW2 6033  13.074  13.407  10.130
34732SOL     OW 6034   9.527   5.624   6.559
34732SOL    HW1 6035   9.574   5.672   6.490
34732SOL    HW2 6036   9.591   5.614   6.629
34733SOL     OW 6037   0.887   7.185  10.690
34733SOL    HW1 6038   0.946   7.123  10.733
34733SOL    HW2 6039   0.831   7.130  10.635
34734SOL     OW 6040   2.274  12.940   3.421
34734SOL    HW1 6041   2.240  12.855   3.449
34734SOL    HW2 6042   2.364  12.923   3.393
34735SOL     OW 6043  12.061   9.712   1.568
34735SOL    HW1 6044  12.054   9.690   1.660
34735SOL    HW2 6045  12.008   9.791   1.558
34736SOL     OW 6046   2.815   9.811  14.097
34736SOL    HW1 6047   2.734   9.760  14.094
34736SOL    HW2 6048   2.787   9.900  14.074
34737SOL     OW 6049  13.395   9.658   0.816
34737SOL    HW1 6050  13.418   9.599   0.888
34737SOL    HW2 6051  13.406   9.746   0.852
34738SOL     OW 6052   6.861   8.414   0.283
34738SOL    HW1 6053   6.884   8.504   0.261
34738SOL    HW2 6054   6.772   8.420   0.318
34739SOL     OW 6055   7.509   8.161   5.439
34739SOL    HW1 6056   7.542   8.153   5.528
34739SOL    HW2 6057   7.500   8.256   5.425
34740SOL     OW 6058  14.324   4.732  13.563
34740SOL    HW1 6059  14.365   4.768  13.641
34740SOL    HW2 6060  14.231   4.751  13.574
34741SOL     OW 6061   8.755   9.432   8.407
34741SOL    HW1 6062   8.710   9.501   8.357
34741SOL    HW2 6063   8.747   9.354   8.352
34742SOL     OW 6064  12.628   0.286  14.687
34742SOL    HW1 6065  12.696   0.239  14.737
34742SOL    HW2 6066  12.648   0.266  14.596
34743SOL     OW 6067   1.669  14.262   4.233
34743SOL    HW1 6068   1.625  14.263   4.148
34743SOL    HW2 6069   1.678  14.170   4.255
34744SOL     OW 6070   4.851   3.831  14.512
34744SOL    HW1 6071   4.886   3.788  14.590
34744SOL    HW2 6072   4.758   3.843  14.530
34745SOL     OW 6073  12.010   6.715  13.394
34745SOL    HW1 6074  11.985   6.804  13.420
34745SOL    HW2 6075  11.927   6.669  13.384
34746SOL     OW 6076  13.492   2.842   4.642
34746SOL    HW1 6077  13.511   2.749   4.653
34746SOL    HW2 6078  13.573   2.880   4.608
34747SOL     OW 6079  13.871  10.854   8.912
34747SOL    HW1 6080  13.806  10.916   8.947
34747SOL    HW2 6081  13.955  10.898   8.923
34748SOL     OW 6082   3.406   2.095   0.002
34748SOL    HW1 6083   3.450   2.075   0.085
34748SOL    HW2 6084   3.416   2.016  14.824
34749SOL     OW 6085   0.843   5.879   3.375
34749SOL    HW1 6086   0.778   5.828   3.327
34749SOL    HW2 6087   0.895   5.923   3.307
34750SOL     OW 6088   5.804  12.296  13.311
34750SOL    HW1 6089   5.756  12.290  13.229
34750SOL    HW2 6090   5.823  12.389  13.322
34751SOL     OW 6091   2.490   6.171   1.649
34751SOL    HW1 6092   2.548   6.096   1.661
34751SOL    HW2 6093   2.473   6.203   1.738
34752SOL     OW 6094   2.657  12.960   1.714
34752SOL    HW1 6095   2.651  13.045   1.672
34752SOL    HW2 6096   2.735  12.920   1.675
34753SOL     OW 6097  14.463   3.343   2.400
34753SOL    HW1 6098  14.449   3.276   2.334
34753SOL    HW2 6099  14.414   3.419   2.369
34754SOL     OW 6100   4.907   2.717   8.172
34754SOL    HW1 6101   4.869   2.796   8.211
34754SOL    HW2 6102   4.879   2.646   8.230
34755SOL     OW 6103  10.019   6.474  13.538
34755SOL    HW1 6104  10.006   6.564  13.567
34755SOL    HW2 6105   9.931   6.437  13.534
34756SOL     OW 6106   7.617   0.818   8.743
34756SOL    HW1 6107   7.686   0.884   8.737
34756SOL    HW2 6108   7.660   0.742   8.783
34757SOL     OW 6109   7.489   3.034  12.328
34757SOL    HW1 6110   7.429   3.103  12.356
34757SOL    HW2 6111   7.433   2.957  12.315
34758SOL     OW 6112  11.438   2.746   5.920
34758SOL    HW1 6113  11.509   2.687   5.947
34758SOL    HW2 6114  11.373   2.689   5.880
34759SOL     OW 6115  11.441   3.507   9.411
34759SOL    HW1 6116  11.376   3.441   9.436
34759SOL    HW2 6117  11.466   3.549   9.493
34760SOL     OW 6118  10.820   5.087   5.510
34760SOL    HW1 6119  10.778   5.035   5.579
34760SOL    HW2 6120  10.911   5.096   5.539
34761SOL     OW 6121   5.794   7.994  10.354
34761SOL    HW1 6122   5.816   7.965  10.442
34761SOL    HW2 6123   5.709   8.037  10.363
34762SOL     OW 6124   4.794  12.950  10.828
34762SOL    HW1 6125   4.753  12.908  10.752
34762SOL    HW2 6126   4.853  13.015  10.789
34763SOL     OW 6127   9.844   0.613  14.170
34763SOL    HW1 6128   9.764   0.631  14.220
34763SOL    HW2 6129   9.867   0.523  14.194
34764SOL     OW 6130   9.982  14.015   5.082
34764SOL    HW1 6131  10.000  14.085   5.145
34764SOL    HW2 6132   9.951  14.059   5.004
34765SOL     OW 6133   1.783  11.331   4.105
34765SOL    HW1 6134   1.706  11.386   4.097
34765SOL    HW2 6135   1.834  11.348   4.026
34766SOL     OW 6136   5.164   8.307  13.051
34766SOL    HW1 6137   5.227   8.359  13.002
34766SOL    HW2 6138   5.103   8.273  12.985
34767SOL     OW 6139   5.124   6.429   8.978
34767SOL    HW1 6140   5.122   6.524   8.962
34767SOL    HW2 6141   5.218   6.408   8.979
34768SOL     OW 6142   9.300   1.968  12.906
34768SOL    HW1 6143   9.265   2.031  12.843
34768SOL    HW2 6144   9.395   1.971  12.893
34769SOL     OW 6145  12.471   3.465   7.332
34769SOL    HW1 6146  12.436   3.513   7.257
34769SOL    HW2 6147  12.561   3.445   7.307
34770SOL     OW 6148   6.277   3.911   8.847
34770SOL    HW1 6149   6.240   3.999   8.839
34770SOL    HW2 6150   6.343   3.907   8.778
34771SOL     OW 6151  12.085   4.328  14.422
34771SOL    HW1 6152  12.062   4.420  14.412
34771SOL    HW2 6153  12.090   4.294  14.333
34772SOL     OW 6154   8.899   8.475  14.535
34772SOL    HW1 6155   8.935   8.562  14.523
34772SOL    HW2 6156   8.968   8.416  14.505
34773SOL     OW 6157  12.540   0.774   9.353
34773SOL    HW1 6158  12.476   0.753   9.420
34773SOL    HW2 6159  12.493   0.767   9.270
34774SOL     OW 6160  13.787  14.111   2.632
34774SOL    HW1 6161  13.694  14.102   2.653
34774SOL    HW2 6162  13.828  14.034   2.673
34775SOL     OW 6163  11.852   9.910   5.384
34775SOL    HW1 6164  11.766   9.878   5.412
34775SOL    HW2 6165  11.887   9.956   5.461
34776SOL     OW 6166   5.828  13.541   8.302
34776SOL    HW1 6167   5.907  13.573   8.347
34776SOL    HW2 6168   5.841  13.566   8.211
34777SOL     OW 6169   0.233   0.568  13.283
34777SOL    HW1 6170   0.169   0.498  13.295
34777SOL    HW2 6171   0.182   0.648  13.282
34778SOL     OW 6172  12.039   1.609  13.449
34778SOL    HW1 6173  12.065   1.581  13.361
34778SOL    HW2 6174  11.957   1.657  13.436
34779SOL     OW 6175   9.810   2.802   2.950
34779SOL    HW1 6176   9.904   2.821   2.942
34779SOL    HW2 6177   9.794   2.800   3.044
34780SOL     OW 6178  12.528  13.866  13.103
34780SOL    HW1 6179  12.457  13.828  13.155
34780SOL    HW2 6180  12.607  13.822  13.134
34781SOL     OW 6181   9.227   9.361   0.211
34781SOL    HW1 6182   9.264   9.353   0.299
34781SOL    HW2 6183   9.285   9.309   0.155
34782SOL     OW 6184  13.744  12.304   0.025
34782SOL    HW1 6185  13.814  12.308   0.090
34782SOL    HW2 6186  13.665  12.328   0.073
34783SOL     OW 6187  12.113   2.187   1.218
34783SOL    HW1 6188  12.160   2.267   1.244
34783SOL    HW2 6189  12.100   2.140   1.300
34784SOL     OW 6190   6.793   9.174   2.387
34784SOL    HW1 6191   6.774   9.156   2.295
34784SOL    HW2 6192   6.730   9.242   2.412
34785SOL     OW 6193  14.361   9.260   8.733
34785SOL    HW1 6194  14.390   9.265   8.824
34785SOL    HW2 6195  14.298   9.331   8.724
34786SOL     OW 6196  11.578   1.491   0.405
34786SOL    HW1 6197  11.640   1.562   0.421
34786SOL    HW2 6198  11.563   1.453   0.492
34787SOL     OW 6199  14.654   7.174   3.523
34787SOL    HW1 6200  14.591   7.122   3.471
34787SOL    HW2 6201  14.738   7.130   3.509
34788SOL     OW 6202   1.579   0.879   0.240
34788SOL    HW1 6203   1.663   0.868   0.197
34788SOL    HW2 6204   1.601   0.917   0.325
34789SOL     OW 6205   7.347   6.982   2.878
34789SOL    HW1 6206   7.305   7.062   2.910
34789SOL    HW2 6207   7.300   6.960   2.797
34790SOL     OW 6208   6.339  11.308  11.823
34790SOL    HW1 6209   6.257  11.323  11.775
34790SOL    HW2 6210   6.407  11.339  11.764
34791SOL     OW 6211   0.015   3.241   6.457
34791SOL    HW1 6212   0.062   3.274   6.534
34791SOL    HW2 6213   0.071   3.266   6.383
34792SOL     OW 6214   7.779   7.548   4.891
34792SOL    HW1 6215   7.709   7.549   4.827
34792SOL    HW2 6216   7.802   7.640   4.904
34793SOL     OW 6217   6.546   3.079   5.273
34793SOL    HW1 6218   6.463   3.085   5.321
34793SOL    HW2 6219   6.600   3.019   5.325
34794SOL     OW 6220  13.585  13.706   5.383
34794SOL    HW1 6221  13.532  13.747   5.452
34794SOL    HW2 6222  13.558  13.614   5.383
34795SOL     OW 6223   5.603   5.075  12.961
34795SOL    HW1 6224   5.527   5.130  12.944
34795SOL    HW2 6225   5.652   5.076  12.879
34796SOL     OW 6226  14.657  11.886   1.254
34796SOL    HW1 6227  14.613  11.810   1.215
34796SOL    HW2 6228  14.748  11.877   1.228
34797SOL     OW 6229   6.039  13.822   1.773
34797SOL    HW1 6230   6.032  13.762   1.847
34797SOL    HW2 6231   6.033  13.766   1.696
34798SOL     OW 6232   6.102  11.933   7.900
34798SOL    HW1 6233   6.009  11.936   7.921
34798SOL    HW2 6234   6.144  11.900   7.980
34799SOL     OW 6235   6.265   9.204   0.674
34799SOL    HW1 6236   6.232   9.245   0.754
34799SOL    HW2 6237   6.360   9.212   0.680
34800SOL     OW 6238   1.125   4.158   2.704
34800SOL    HW1 6239   1.088   4.155   2.792
34800SOL    HW2 6240   1.210   4.201   2.714
34801SOL     OW 6241   0.658   2.040  11.633
34801SOL    HW1 6242   0.573   2.016  11.670
34801SOL    HW2 6243   0.645   2.036  11.538
34802SOL     OW 6244   6.820  14.138   3.906
34802SOL    HW1 6245   6.912  14.157   3.923
34802SOL    HW2 6246   6.782  14.222   3.879
34803SOL     OW 6247  12.275   1.202   8.317
34803SOL    HW1 6248  12.327   1.242   8.387
34803SOL    HW2 6249  12.269   1.271   8.250
34804SOL     OW 6250  13.857   7.988  11.588
34804SOL    HW1 6251  13.853   7.927  11.514
34804SOL    HW2 6252  13.781   7.965  11.642
34805SOL     OW 6253   4.529   2.701   0.313
34805SOL    HW1 6254   4.610   2.674   0.357
34805SOL    HW2 6255   4.479   2.620   0.304
34806SOL     OW 6256   8.544  13.446   8.500
34806SOL    HW1 6257   8.485  13.371   8.505
34806SOL    HW2 6258   8.529  13.494   8.582
34807SOL     OW 6259   2.744  14.399   2.433
34807SOL    HW1 6260   2.738  14.339   2.507
34807SOL    HW2 6261   2.748  14.342   2.356
34808SOL     OW 6262   7.917  11.278  10.240
34808SOL    HW1 6263   7.973  11.320  10.306
34808SOL    HW2 6264   7.952  11.190  10.232
34809SOL     OW 6265   8.748   6.135   3.945
34809SOL    HW1 6266   8.816   6.081   3.905
34809SOL    HW2 6267   8.794   6.211   3.980
34810SOL     OW 6268  13.300   8.427   0.898
34810SOL    HW1 6269  13.210   8.460   0.888
34810SOL    HW2 6270  13.307   8.404   0.990
34811SOL     OW 6271   5.290   0.444   7.018
34811SOL    HW1 6272   5.358   0.379   7.001
34811SOL    HW2 6273   5.253   0.463   6.932
34812SOL     OW 6274  13.225   7.271  10.116
34812SOL    HW1 6275  13.172   7.346  10.091
34812SOL    HW2 6276  13.167   7.218  10.171
34813SOL     OW 6277   8.811  14.223   7.936
34813SOL    HW1 6278   8.754  14.200   7.863
34813SOL    HW2 6279   8.852  14.141   7.962
34814SOL     OW 6280   3.370   0.675   4.975
34814SOL    HW1 6281   3.447   0.725   5.003
34814SOL    HW2 6282   3.398   0.583   4.982
34815SOL     OW 6283   2.926  10.407  14.354
34815SOL    HW1 6284   2.940  10.465  14.429
34815SOL    HW2 6285   2.927  10.465  14.278
34816SOL     OW 6286   8.020   9.711   1.380
34816SOL    HW1 6287   8.046   9.649   1.449
34816SOL    HW2 6288   7.978   9.656   1.314
34817SOL     OW 6289   1.331   2.289   1.937
34817SOL    HW1 6290   1.385   2.315   1.862
34817SOL    HW2 6291   1.394   2.265   2.005
34818SOL     OW 6292   8.399  14.145   8.374
34818SOL    HW1 6293   8.333  14.077   8.371
34818SOL    HW2 6294   8.466  14.111   8.434
34819SOL     OW 6295   8.201   3.409   7.810
34819SOL    HW1 6296   8.242   3.482   7.855
34819SOL    HW2 6297   8.141   3.371   7.874
34820SOL     OW 6298  12.456  12.102   2.396
34820SOL    HW1 6299  12.521  12.081   2.330
34820SOL    HW2 6300  12.461  12.197   2.405
34821SOL     OW 6301  12.333   0.675   1.310
34821SOL    HW1 6302  12.242   0.687   1.340
34821SOL    HW2 6303  12.349   0.749   1.252
34822SOL     OW 6304   8.464   5.585   0.333
34822SOL    HW1 6305   8.398   5.654   0.340
34822SOL    HW2 6306   8.517   5.610   0.258
34823SOL     OW 6307  12.843   7.155  10.591
34823SOL    HW1 6308  12.817   7.197  10.673
34823SOL    HW2 6309  12.820   7.063  10.604
34824SOL     OW 6310   1.299   1.557  13.698
34824SOL    HW1 6311   1.354   1.585  13.625
34824SOL    HW2 6312   1.224   1.514  13.657
34825SOL     OW 6313   6.712   9.589   1.862
34825SOL    HW1 6314   6.637   9.541   1.896
34825SOL    HW2 6315   6.778   9.521   1.845
34826SOL     OW 6316   9.654   2.858  12.425
34826SOL    HW1 6317   9.710   2.782  12.435
34826SOL    HW2 6318   9.713   2.933  12.430
34827SOL     OW 6319   5.737  10.304   4.130
34827SOL    HW1 6320   5.828  10.286   4.157
34827SOL    HW2 6321   5.743  10.383   4.077
34828SOL     OW 6322  11.037   8.462   3.427
34828SOL    HW1 6323  10.995   8.494   3.506
34828SOL    HW2 6324  11.130   8.483   3.438
34829SOL     OW 6325   0.806  12.922   3.019
34829SOL    HW1 6326   0.838  12.900   2.932
34829SOL    HW2 6327   0.884  12.917   3.075
34830SOL     OW 6328  11.922  14.103   2.859
34830SOL    HW1 6329  11.897  14.112   2.767
34830SOL    HW2 6330  11.855  14.151   2.907
34831SOL     OW 6331   1.774   6.813  10.510
34831SOL    HW1 6332   1.827   6.862  10.446
34831SOL    HW2 6333   1.814   6.833  10.595
34832SOL     OW 6334   9.344  14.041   5.281
34832SOL    HW1 6335   9.323  14.127   5.245
34832SOL    HW2 6336   9.349  13.984   5.204
34833SOL     OW 6337   2.812  13.976  13.555
34833SOL    HW1 6338   2.906  13.967  13.538
34833SOL    HW2 6339   2.807  14.003  13.646
34834SOL     OW 6340  13.727  10.751   8.701
34834SOL    HW1 6341  13.645  10.793   8.675
34834SOL    HW2 6342  13.746  10.788   8.787
34835SOL     OW 6343   7.704   1.445  10.613
34835SOL    HW1 6344   7.741   1.515  10.668
34835SOL    HW2 6345   7.685   1.489  10.530
34836SOL     OW 6346   1.495   4.285   1.590
34836SOL    HW1 6347   1.439   4.360   1.571
34836SOL    HW2 6348   1.451   4.240   1.663
34837SOL     OW 6349  12.029   5.911   6.161
34837SOL    HW1 6350  12.061   5.821   6.166
34837SOL    HW2 6351  12.072   5.956   6.233
34838SOL     OW 6352   2.273   6.422   2.805
34838SOL    HW1 6353   2.226   6.439   2.886
34838SOL    HW2 6354   2.213   6.451   2.736
34839SOL     OW 6355   7.477   2.006   0.634
34839SOL    HW1 6356   7.571   1.994   0.652
34839SOL    HW2 6357   7.440   2.032   0.718
34840SOL     OW 6358  13.001   6.619   8.977
34840SOL    HW1 6359  13.036   6.640   8.890
34840SOL    HW2 6360  13.078   6.602   9.031
34841SOL     OW 6361   4.652  12.610   4.631
34841SOL    HW1 6362   4.718  12.581   4.695
34841SOL    HW2 6363   4.569  12.583   4.669
34842SOL     OW 6364   6.862   6.943   9.125
34842SOL    HW1 6365   6.775   6.910   9.105
34842SOL    HW2 6366   6.878   7.010   9.059
34843SOL     OW 6367   6.489  13.279   2.810
34843SOL    HW1 6368   6.455  13.286   2.899
34843SOL    HW2 6369   6.530  13.364   2.793
34844SOL     OW 6370   3.254   9.970  13.661
34844SOL    HW1 6371   3.193   9.923  13.604
34844SOL    HW2 6372   3.247  10.062  13.633
34845SOL     OW 6373  11.299   5.827  13.767
34845SOL    HW1 6374  11.384   5.861  13.794
34845SOL    HW2 6375  11.235   5.888  13.803
34846SOL     OW 6376  10.643   5.734   1.671
34846SOL    HW1 6377  10.629   5.765   1.760
34846SOL    HW2 6378  10.715   5.787   1.637
34847SOL     OW 6379  10.070   9.365  10.695
34847SOL    HW1 6380  10.010   9.416  10.750
34847SOL    HW2 6381  10.021   9.347  10.615
34848SOL     OW 6382  14.673   8.465  12.105
34848SOL    HW1 6383  14.630   8.388  12.142
34848SOL    HW2 6384  14.747   8.482  12.164
34849SOL     OW 6385   5.793   2.155   1.361
34849SOL    HW1 6386   5.725   2.109   1.311
34849SOL    HW2 6387   5.801   2.106   1.443
34850SOL     OW 6388  10.828  14.010  12.217
34850SOL    HW1 6389  10.818  13.922  12.253
34850SOL    HW2 6390  10.742  14.050  12.230
34851SOL     OW 6391   4.676  11.007  11.044
34851SOL    HW1 6392   4.732  10.933  11.067
34851SOL    HW2 6393   4.588  10.970  11.040
34852SOL     OW 6394   9.712  10.960   2.993
34852SOL    HW1 6395   9.795  11.006   2.986
34852SOL    HW2 6396   9.669  10.997   3.070
34853SOL     OW 6397   8.400   1.613   2.479
34853SOL    HW1 6398   8.464   1.592   2.411
34853SOL    HW2 6399   8.344   1.535   2.485
34854SOL     OW 6400  13.311   2.625   6.381
34854SOL    HW1 6401  13.345   2.665   6.461
34854SOL    HW2 6402  13.244   2.563   6.411
34855SOL     OW 6403  13.649   4.520  12.950
34855SOL    HW1 6404  13.669   4.458  13.021
34855SOL    HW2 6405  13.566   4.489  12.914
34856SOL     OW 6406   2.276   3.111  11.241
34856SOL    HW1 6407   2.367   3.082  11.250
34856SOL    HW2 6408   2.274   3.197  11.283
34857SOL     OW 6409  10.041  12.880   4.586
34857SOL    HW1 6410  10.007  12.790   4.588
34857SOL    HW2 6411  10.099  12.882   4.511
34858SOL     OW 6412   4.055   6.550   5.435
34858SOL    HW1 6413   4.083   6.459   5.442
34858SOL    HW2 6414   4.025   6.573   5.523
34859SOL     OW 6415  14.240   1.725   2.794
34859SOL    HW1 6416  14.323   1.745   2.837
34859SOL    HW2 6417  14.210   1.644   2.835
34860SOL     OW 6418   1.726  13.097   3.062
34860SOL    HW1 6419   1.660  13.115   2.995
34860SOL    HW2 6420   1.807  13.133   3.026
34861SOL     OW 6421   8.341  10.237   2.810
34861SOL    HW1 6422   8.340  10.265   2.718
34861SOL    HW2 6423   8.427  10.264   2.842
34862SOL     OW 6424  10.148   0.062   6.601
34862SOL    HW1 6425  10.179   0.090   6.688
34862SOL    HW2 6426  10.065   0.109   6.590
34863SOL     OW 6427   6.900   5.060   1.719
34863SOL    HW1 6428   6.949   5.010   1.784
34863SOL    HW2 6429   6.882   4.997   1.649
34864SOL     OW 6430  10.409  11.549  11.556
34864SOL    HW1 6431  10.376  11.568  11.469
34864SOL    HW2 6432  10.333  11.559  11.613
34865SOL     OW 6433   8.636  13.497   5.963
34865SOL    HW1 6434   8.591  13.575   5.996
34865SOL    HW2 6435   8.617  13.429   6.028
34866SOL     OW 6436  11.870   1.909  14.792
34866SOL    HW1 6437  11.951   1.915  14.842
34866SOL    HW2 6438  11.870   1.986  14.736
34867SOL     OW 6439   1.035   1.726  13.711
34867SOL    HW1 6440   1.039   1.698  13.619
34867SOL    HW2 6441   1.020   1.820  13.708
34868SOL     OW 6442   4.910   7.635   9.338
34868SOL    HW1 6443   4.906   7.584   9.257
34868SOL    HW2 6444   4.966   7.710   9.316
34869SOL     OW 6445   5.777   5.945   6.167
34869SOL    HW1 6446   5.789   5.885   6.241
34869SOL    HW2 6447   5.755   5.887   6.093
34870SOL     OW 6448   2.837  13.931   7.928
34870SOL    HW1 6449   2.852  13.862   7.993
34870SOL    HW2 6450   2.925  13.960   7.904
34871SOL     OW 6451   9.424   9.577  13.660
34871SOL    HW1 6452   9.340   9.530  13.660
34871SOL    HW2 6453   9.410   9.653  13.604
34872SOL     OW 6454   9.585  10.699  10.559
34872SOL    HW1 6455   9.616  10.697  10.468
34872SOL    HW2 6456   9.664  10.712  10.611
34873SOL     OW 6457   6.130  10.293  14.008
34873SOL    HW1 6458   6.092  10.244  14.082
34873SOL    HW2 6459   6.219  10.313  14.036
34874SOL     OW 6460   0.388  13.774   6.948
34874SOL    HW1 6461   0.348  13.688   6.957
34874SOL    HW2 6462   0.453  13.764   6.878
34875SOL     OW 6463  13.760   6.294   2.655
34875SOL    HW1 6464  13.753   6.213   2.706
34875SOL    HW2 6465  13.690   6.287   2.590
34876SOL     OW 6466   0.306   6.233  14.845
34876SOL    HW1 6467   0.354   6.308   0.004
34876SOL    HW2 6468   0.363   6.194  14.779
34877SOL     OW 6469   2.923  13.969   7.108
34877SOL    HW1 6470   2.959  13.910   7.041
34877SOL    HW2 6471   2.854  14.017   7.064
34878SOL     OW 6472  14.603   1.405  13.938
34878SOL    HW1 6473  14.518   1.448  13.949
34878SOL    HW2 6474  14.584   1.323  13.894
34879SOL     OW 6475  14.074   1.173  10.149
34879SOL    HW1 6476  14.137   1.108  10.119
34879SOL    HW2 6477  14.094   1.251  10.096
34880SOL     OW 6478   9.023   7.229   3.289
34880SOL    HW1 6479   9.100   7.216   3.233
34880SOL    HW2 6480   8.954   7.178   3.247
34881SOL     OW 6481  11.127   4.950  12.653
34881SOL    HW1 6482  11.072   4.875  12.678
34881SOL    HW2 6483  11.135   4.943  12.558
34882SOL     OW 6484   3.995   4.095  14.443
34882SOL    HW1 6485   4.035   4.073  14.358
34882SOL    HW2 6486   3.995   4.013  14.492
34883SOL     OW 6487  10.733   0.111  12.266
34883SOL    HW1 6488  10.691   0.140  12.347
34883SOL    HW2 6489  10.806   0.171  12.254
34884SOL     OW 6490  14.786  14.412   6.570
34884SOL    HW1 6491  14.868  14.366   6.555
34884SOL    HW2 6492  14.718  14.346   6.557
34885SOL     OW 6493   9.306   7.483   0.624
34885SOL    HW1 6494   9.395   7.507   0.600
34885SOL    HW2 6495   9.251   7.548   0.579
34886SOL     OW 6496   2.333   2.389   5.567
34886SOL    HW1 6497   2.314   2.296   5.558
34886SOL    HW2 6498   2.272   2.419   5.634
34887SOL     OW 6499   8.938   6.508   8.157
34887SOL    HW1 6500   8.874   6.448   8.119
34887SOL    HW2 6501   8.931   6.588   8.105
34888SOL     OW 6502   4.801   5.110   8.162
34888SOL    HW1 6503   4.814   5.170   8.088
34888SOL    HW2 6504   4.708   5.088   8.159
34889SOL     OW 6505   4.722   8.690   6.213
34889SOL    HW1 6506   4.634   8.662   6.238
34889SOL    HW2 6507   4.753   8.743   6.286
34890SOL     OW 6508   4.737  12.946   8.397
34890SOL    HW1 6509   4.649  12.981   8.383
34890SOL    HW2 6510   4.794  13.023   8.398
34891SOL     OW 6511   2.484  13.007  12.313
34891SOL    HW1 6512   2.455  13.042  12.397
34891SOL    HW2 6513   2.463  13.075  12.250
34892SOL     OW 6514  13.005  13.172   0.269
34892SOL    HW1 6515  13.003  13.233   0.343
34892SOL    HW2 6516  13.098  13.154   0.256
34893SOL     OW 6517   2.207   1.212   9.855
34893SOL    HW1 6518   2.164   1.289   9.892
34893SOL    HW2 6519   2.143   1.176   9.793
34894SOL     OW 6520   8.692   0.110  11.460
34894SOL    HW1 6521   8.675   0.202  11.482
34894SOL    HW2 6522   8.613   0.080  11.417
34895SOL     OW 6523   4.143   3.470   1.121
34895SOL    HW1 6524   4.127   3.422   1.202
34895SOL    HW2 6525   4.146   3.562   1.148
34896SOL     OW 6526  13.675   2.570  14.735
34896SOL    HW1 6527  13.744   2.552  14.800
34896SOL    HW2 6528  13.634   2.651  14.766
34897SOL     OW 6529   5.039   9.178  12.516
34897SOL    HW1 6530   5.052   9.130  12.434
34897SOL    HW2 6531   4.996   9.259  12.490
34898SOL     OW 6532   3.070   6.858   6.314
34898SOL    HW1 6533   3.023   6.941   6.324
34898SOL    HW2 6534   3.077   6.824   6.403
34899SOL     OW 6535   0.086   2.092   1.759
34899SOL    HW1 6536   0.040   2.055   1.683
34899SOL    HW2 6537   0.051   2.042   1.833
34900SOL     OW 6538   6.456   4.231  10.610
34900SOL    HW1 6539   6.474   4.213  10.703
34900SOL    HW2 6540   6.419   4.319  10.610
34901SOL     OW 6541   6.966  14.651   1.667
34901SOL    HW1 6542   7.053  14.666   1.632
34901SOL    HW2 6543   6.979  14.642   1.761
34902SOL     OW 6544  14.787   6.553   9.666
34902SOL    HW1 6545  14.810   6.507   9.747
34902SOL    HW2 6546  14.829   6.501   9.597
34903SOL     OW 6547   7.051   2.257   3.102
34903SOL    HW1 6548   6.981   2.225   3.160
34903SOL    HW2 6549   7.132   2.228   3.144
34904SOL     OW 6550   3.650  13.296  13.274
34904SOL    HW1 6551   3.626  13.253  13.192
34904SOL    HW2 6552   3.709  13.234  13.317
34905SOL     OW 6553  12.239   9.589   6.975
34905SOL    HW1 6554  12.259   9.497   6.957
34905SOL    HW2 6555  12.163   9.608   6.920
34906SOL     OW 6556  14.120  12.198  13.387
34906SOL    HW1 6557  14.036  12.162  13.359
34906SOL    HW2 6558  14.096  12.272  13.443
34907SOL     OW 6559  13.854   3.982   4.386
34907SOL    HW1 6560  13.764   3.964   4.413
34907SOL    HW2 6561  13.877   3.910   4.327
34908SOL     OW 6562  10.006  13.955  12.587
34908SOL    HW1 6563  10.043  14.041  12.568
34908SOL    HW2 6564  10.078  13.894  12.570
34909SOL     OW 6565  12.772   8.441  12.551
34909SOL    HW1 6566  12.796   8.468  12.462
34909SOL    HW2 6567  12.678   8.460  12.557
34910SOL     OW 6568   3.925  11.124  11.931
34910SOL    HW1 6569   3.862  11.062  11.969
34910SOL    HW2 6570   3.913  11.205  11.981
34911SOL     OW 6571   7.437  10.503   5.613
34911SOL    HW1 6572   7.418  10.594   5.589
34911SOL    HW2 6573   7.524  10.507   5.653
34912SOL     OW 6574  13.051  10.930   9.298
34912SOL    HW1 6575  12.991  10.856   9.307
34912SOL    HW2 6576  13.133  10.899   9.337
34913SOL     OW 6577   6.097  12.080   3.134
34913SOL    HW1 6578   6.134  12.019   3.198
34913SOL    HW2 6579   6.049  12.143   3.187
34914SOL     OW 6580   5.264   3.872  14.292
34914SOL    HW1 6581   5.199   3.859  14.223
34914SOL    HW2 6582   5.336   3.813  14.269
34915SOL     OW 6583   1.427   3.253  12.368
34915SOL    HW1 6584   1.363   3.253  12.440
34915SOL    HW2 6585   1.476   3.172  12.379
34916SOL     OW 6586   1.762   2.040   6.428
34916SOL    HW1 6587   1.757   1.962   6.484
34916SOL    HW2 6588   1.774   2.113   6.489
34917SOL     OW 6589   3.013   0.843   6.013
34917SOL    HW1 6590   3.080   0.775   6.011
34917SOL    HW2 6591   3.010   0.873   6.103
34918SOL     OW 6592  10.420   8.629  13.228
34918SOL    HW1 6593  10.436   8.692  13.299
34918SOL    HW2 6594  10.359   8.566  13.266
34919SOL     OW 6595  14.856  12.149  10.717
34919SOL    HW1 6596  14.797  12.176  10.648
34919SOL    HW2 6597   0.017  12.064  10.687
34920SOL     OW 6598   1.555  10.445   8.215
34920SOL    HW1 6599   1.536  10.375   8.151
34920SOL    HW2 6600   1.468  10.478   8.240
34921SOL     OW 6601  12.575   6.066   1.886
34921SOL    HW1 6602  12.612   6.139   1.936
34921SOL    HW2 6603  12.610   5.988   1.927
34922SOL     OW 6604   6.928   8.257   4.787
34922SOL    HW1 6605   6.976   8.265   4.870
34922SOL    HW2 6606   6.992   8.282   4.721
34923SOL     OW 6607   5.231  13.447   6.606
34923SOL    HW1 6608   5.269  13.519   6.656
34923SOL    HW2 6609   5.146  13.431   6.648
34924SOL     OW 6610   5.326   2.310   9.989
34924SOL    HW1 6611   5.297   2.383  10.044
34924SOL    HW2 6612   5.265   2.311   9.915
34925SOL     OW 6613  14.441   8.071   3.320
34925SOL    HW1 6614  14.435   8.020   3.239
34925SOL    HW2 6615  14.461   8.160   3.290
34926SOL     OW 6616   1.768   0.749  11.016
34926SOL    HW1 6617   1.766   0.821  11.079
34926SOL    HW2 6618   1.811   0.785  10.939
34927SOL     OW 6619   9.730  13.352   5.070
34927SOL    HW1 6620   9.746  13.268   5.114
34927SOL    HW2 6621   9.668  13.331   5.000
34928SOL     OW 6622   7.997  13.351  13.609
34928SOL    HW1 6623   8.084  13.312  13.606
34928SOL    HW2 6624   7.937  13.277  13.597
34929SOL     OW 6625   1.668   6.707  12.903
34929SOL    HW1 6626   1.636   6.783  12.853
34929SOL    HW2 6627   1.658   6.734  12.995
34930SOL     OW 6628   9.223  13.944   6.999
34930SOL    HW1 6629   9.215  13.858   7.040
34930SOL    HW2 6630   9.140  13.989   7.019
34931SOL     OW 6631   1.847  14.011  11.696
34931SOL    HW1 6632   1.933  14.016  11.655
34931SOL    HW2 6633   1.789  14.056  11.635
34932SOL     OW 6634   8.145   6.480   4.990
34932SOL    HW1 6635   8.064   6.429   4.997
34932SOL    HW2 6636   8.198   6.431   4.927
34933SOL     OW 6637   1.490  11.251  13.344
34933SOL    HW1 6638   1.418  11.211  13.391
34933SOL    HW2 6639   1.496  11.340  13.380
34934SOL     OW 6640  11.165   3.303   8.196
34934SOL    HW1 6641  11.108   3.372   8.228
34934SOL    HW2 6642  11.226   3.287   8.269
34935SOL     OW 6643   4.707  10.928   0.017
34935SOL    HW1 6644   4.694  10.995   0.085
34935SOL    HW2 6645   4.801  10.931  14.873
34936SOL     OW 6646  14.417   6.897   1.932
34936SOL    HW1 6647  14.466   6.850   1.865
34936SOL    HW2 6648  14.484   6.939   1.985
34937SOL     OW 6649  14.208  11.248  12.895
34937SOL    HW1 6650  14.184  11.336  12.868
34937SOL    HW2 6651  14.147  11.191  12.847
34938SOL     OW 6652   7.170  10.490  12.935
34938SOL    HW1 6653   7.199  10.575  12.968
34938SOL    HW2 6654   7.121  10.451  13.008
34939SOL     OW 6655   5.657   8.556   3.375
34939SOL    HW1 6656   5.577   8.604   3.354
34939SOL    HW2 6657   5.690   8.597   3.455
34940SOL     OW 6658  10.321   0.587   6.765
34940SOL    HW1 6659  10.317   0.611   6.857
34940SOL    HW2 6660  10.267   0.652   6.721
34941SOL     OW 6661   8.759   4.726  14.270
34941SOL    HW1 6662   8.803   4.800  14.312
34941SOL    HW2 6663   8.788   4.730  14.179
34942SOL     OW 6664   3.960  14.233   3.582
34942SOL    HW1 6665   3.872  14.196   3.569
34942SOL    HW2 6666   3.946  14.307   3.641
34943SOL     OW 6667   5.529  10.530  11.768
34943SOL    HW1 6668   5.624  10.541  11.762
34943SOL    HW2 6669   5.508  10.556  11.858
34944SOL     OW 6670  10.713  14.093   5.558
34944SOL    HW1 6671  10.800  14.134   5.561
34944SOL    HW2 6672  10.731  14.005   5.525
34945SOL     OW 6673   1.319   9.828   6.036
34945SOL    HW1 6674   1.380   9.834   6.110
34945SOL    HW2 6675   1.276   9.743   6.046
34946SOL     OW 6676   5.581   1.442   3.827
34946SOL    HW1 6677   5.496   1.464   3.788
34946SOL    HW2 6678   5.646   1.479   3.768
34947SOL     OW 6679   2.980  12.600  13.534
34947SOL    HW1 6680   2.995  12.640  13.448
34947SOL    HW2 6681   2.976  12.674  13.595
34948SOL     OW 6682   2.908   7.470  13.877
34948SOL    HW1 6683   2.873   7.467  13.788
34948SOL    HW2 6684   2.906   7.379  13.907
34949SOL     OW 6685   5.710   1.867   0.252
34949SOL    HW1 6686   5.725   1.930   0.323
34949SOL    HW2 6687   5.618   1.879   0.228
34950SOL     OW 6688   4.542   7.058   7.728
34950SOL    HW1 6689   4.608   7.101   7.675
34950SOL    HW2 6690   4.591   7.007   7.793
34951SOL     OW 6691   1.277   8.139  13.585
34951SOL    HW1 6692   1.183   8.124  13.586
34951SOL    HW2 6693   1.288   8.215  13.527
34952SOL     OW 6694   3.046   6.648   8.460
34952SOL    HW1 6695   3.006   6.664   8.546
34952SOL    HW2 6696   3.122   6.707   8.459
34953SOL     OW 6697  12.177   3.593   5.097
34953SOL    HW1 6698  12.210   3.638   5.019
34953SOL    HW2 6699  12.107   3.650   5.129
34954SOL     OW 6700   8.789   0.112   0.369
34954SOL    HW1 6701   8.780   0.180   0.437
34954SOL    HW2 6702   8.718   0.051   0.387
34955SOL     OW 6703  10.997  14.042   6.072
34955SOL    HW1 6704  10.959  14.125   6.045
34955SOL    HW2 6705  10.947  13.976   6.025
34956SOL     OW 6706  12.870   5.584  10.823
34956SOL    HW1 6707  12.939   5.517  10.820
34956SOL    HW2 6708  12.887   5.639  10.746
34957SOL     OW 6709  12.763   3.120  11.315
34957SOL    HW1 6710  12.766   3.072  11.232
34957SOL    HW2 6711  12.813   3.200  11.298
34958SOL     OW 6712   2.919  11.633   7.160
34958SOL    HW1 6713   2.995  11.619   7.217
34958SOL    HW2 6714   2.944  11.707   7.105
34959SOL     OW 6715  12.432   1.399  12.499
34959SOL    HW1 6716  12.441   1.440  12.584
34959SOL    HW2 6717  12.498   1.442  12.444
34960SOL     OW 6718   9.178  11.373   7.731
34960SOL    HW1 6719   9.256  11.382   7.785
34960SOL    HW2 6720   9.140  11.461   7.730
34961SOL     OW 6721  14.406   8.340   5.064
34961SOL    HW1 6722  14.482   8.284   5.080
34961SOL    HW2 6723  14.399   8.395   5.142
34962SOL     OW 6724  14.552   2.913  13.570
34962SOL    HW1 6725  14.512   2.852  13.632
34962SOL    HW2 6726  14.638   2.932  13.608
34963SOL     OW 6727   5.911  11.836   7.586
34963SOL    HW1 6728   5.922  11.896   7.512
34963SOL    HW2 6729   5.842  11.874   7.639
34964SOL     OW 6730   4.685  11.690  14.408
34964SOL    HW1 6731   4.621  11.629  14.372
34964SOL    HW2 6732   4.762  11.681  14.352
34965SOL     OW 6733   4.756   2.149  14.156
34965SOL    HW1 6734   4.752   2.083  14.088
34965SOL    HW2 6735   4.681   2.206  14.139
34966SOL     OW 6736   1.730   0.796   2.062
34966SOL    HW1 6737   1.735   0.881   2.018
34966SOL    HW2 6738   1.733   0.732   1.991
34967SOL     OW 6739  10.692  14.854   4.645
34967SOL    HW1 6740  10.771   0.034   4.645
34967SOL    HW2 6741  10.720  14.772   4.605
34968SOL     OW 6742  11.123   5.606  14.822
34968SOL    HW1 6743  11.198   5.617   0.007
34968SOL    HW2 6744  11.121   5.686  14.771
34969SOL     OW 6745   6.291   8.037   0.792
34969SOL    HW1 6746   6.236   7.999   0.724
34969SOL    HW2 6747   6.355   8.090   0.744
34970SOL     OW 6748   0.691   1.298   0.241
34970SOL    HW1 6749   0.680   1.385   0.202
34970SOL    HW2 6750   0.602   1.261   0.242
34971SOL     OW 6751   9.956  11.928  12.879
34971SOL    HW1 6752   9.997  11.973  12.953
34971SOL    HW2 6753  10.021  11.862  12.852
34972SOL     OW 6754   7.883   1.373   1.287
34972SOL    HW1 6755   7.927   1.314   1.349
34972SOL    HW2 6756   7.947   1.442   1.271
34973SOL     OW 6757   5.403   2.129  10.193
34973SOL    HW1 6758   5.361   2.198  10.142
34973SOL    HW2 6759   5.481   2.170  10.231
34974SOL     OW 6760   3.674  13.651   5.543
34974SOL    HW1 6761   3.617  13.579   5.571
34974SOL    HW2 6762   3.728  13.671   5.619
34975SOL     OW 6763   2.221   3.076   8.355
34975SOL    HW1 6764   2.155   3.108   8.415
34975SOL    HW2 6765   2.297   3.058   8.410
34976SOL     OW 6766   3.914  12.466  11.161
34976SOL    HW1 6767   3.827  12.481  11.123
34976SOL    HW2 6768   3.932  12.546  11.210
34977SOL     OW 6769   3.084   5.341  14.521
34977SOL    HW1 6770   3.090   5.345  14.617
34977SOL    HW2 6771   3.020   5.272  14.504
34978SOL     OW 6772  12.666   9.404  14.830
34978SOL    HW1 6773  12.612   9.471  14.789
34978SOL    HW2 6774  12.637   9.322  14.790
34979SOL     OW 6775   0.929   8.581   8.934
34979SOL    HW1 6776   0.932   8.644   8.862
34979SOL    HW2 6777   1.016   8.583   8.973
34980SOL     OW 6778  10.265  13.369   6.662
34980SOL    HW1 6779  10.231  13.417   6.738
34980SOL    HW2 6780  10.361  13.378   6.670
34981SOL     OW 6781   1.496  13.186  11.909
34981SOL    HW1 6782   1.449  13.126  11.967
34981SOL    HW2 6783   1.578  13.205  11.955
34982SOL     OW 6784   6.239  13.387   5.908
34982SOL    HW1 6785   6.223  13.474   5.945
34982SOL    HW2 6786   6.190  13.328   5.964
34983SOL     OW 6787   4.758   4.567   9.880
34983SOL    HW1 6788   4.795   4.611   9.957
34983SOL    HW2 6789   4.679   4.525   9.913
34984SOL     OW 6790   0.458   9.089  14.808
34984SOL    HW1 6791   0.444   8.995  14.801
34984SOL    HW2 6792   0.436   9.124  14.722
34985SOL     OW 6793  13.525  10.741   2.355
34985SOL    HW1 6794  13.449  10.706   2.308
34985SOL    HW2 6795  13.527  10.834   2.332
34986SOL     OW 6796  10.611   0.200   7.967
34986SOL    HW1 6797  10.660   0.254   8.029
34986SOL    HW2 6798  10.573   0.130   8.020
34987SOL     OW 6799   7.452  13.968   4.098
34987SOL    HW1 6800   7.484  13.971   4.188
34987SOL    HW2 6801   7.514  13.912   4.052
34988SOL     OW 6802   1.338   3.500   3.613
34988SOL    HW1 6803   1.336   3.469   3.703
34988SOL    HW2 6804   1.429   3.529   3.600
34989SOL     OW 6805   9.577  11.596  14.707
34989SOL    HW1 6806   9.630  11.635  14.776
34989SOL    HW2 6807   9.534  11.669  14.664
34990SOL     OW 6808   8.707   3.041   2.023
34990SOL    HW1 6809   8.799   3.040   1.995
34990SOL    HW2 6810   8.694   2.957   2.067
34991SOL     OW 6811   5.909   0.789   1.657
34991SOL    HW1 6812   5.865   0.840   1.589
34991SOL    HW2 6813   5.854   0.712   1.669
34992SOL     OW 6814   1.034   0.668   1.958
34992SOL    HW1 6815   0.949   0.707   1.978
34992SOL    HW2 6816   1.014   0.575   1.943
34993SOL     OW 6817  14.640  10.831   4.191
34993SOL    HW1 6818  14.615  10.740   4.209
34993SOL    HW2 6819  14.582  10.882   4.247
34994SOL     OW 6820   6.275   9.260   2.876
34994SOL    HW1 6821   6.340   9.204   2.918
34994SOL    HW2 6822   6.282   9.240   2.783
34995SOL     OW 6823   4.415   9.905   5.422
34995SOL    HW1 6824   4.375   9.979   5.467
34995SOL    HW2 6825   4.507   9.929   5.412
34996SOL     OW 6826   5.487   2.758   7.653
34996SOL    HW1 6827   5.548   2.689   7.677
34996SOL    HW2 6828   5.482   2.814   7.730
34997SOL     OW 6829   2.591   7.281   3.325
34997SOL    HW1 6830   2.558   7.191   3.332
34997SOL    HW2 6831   2.571   7.320   3.410
34998SOL     OW 6832   6.636   2.191   1.328
34998SOL    HW1 6833   6.566   2.223   1.270
34998SOL    HW2 6834   6.699   2.263   1.331
34999SOL     OW 6835   6.978   9.368   4.480
34999SOL    HW1 6836   6.917   9.427   4.524
34999SOL    HW2 6837   6.936   9.347   4.397
35000SOL     OW 6838  11.703   3.813   9.848
35000SOL    HW1 6839  11.678   3.818   9.940
35000SOL    HW2 6840  11.786   3.860   9.842
35001SOL     OW 6841  10.423  10.435   0.415
35001SOL    HW1 6842  10.445  10.527   0.404
35001SOL    HW2 6843  10.328  10.434   0.428
35002SOL     OW 6844  12.317   0.709   7.276
35002SOL    HW1 6845  12.286   0.777   7.335
35002SOL    HW2 6846  12.367   0.650   7.331
35003SOL     OW 6847  12.627   5.959   2.452
35003SOL    HW1 6848  12.639   5.967   2.546
35003SOL    HW2 6849  12.536   5.986   2.437
35004SOL     OW 6850   9.876  13.064   6.166
35004SOL    HW1 6851   9.951  13.123   6.155
35004SOL    HW2 6852   9.855  13.036   6.076
35005SOL     OW 6853   1.828   1.162   4.114
35005SOL    HW1 6854   1.741   1.191   4.086
35005SOL    HW2 6855   1.831   1.184   4.207
35006SOL     OW 6856   5.802  10.095   6.076
35006SOL    HW1 6857   5.783  10.076   5.984
35006SOL    HW2 6858   5.879  10.152   6.073
35007SOL     OW 6859   3.167   6.964   0.688
35007SOL    HW1 6860   3.119   7.045   0.672
35007SOL    HW2 6861   3.216   6.980   0.768
35008SOL     OW 6862  12.187   7.819  14.212
35008SOL    HW1 6863  12.199   7.912  14.195
35008SOL    HW2 6864  12.094   7.810  14.232
35009SOL     OW 6865   9.366  13.649   2.976
35009SOL    HW1 6866   9.423  13.693   3.039
35009SOL    HW2 6867   9.280  13.689   2.989
35010SOL     OW 6868  10.988   5.539   1.521
35010SOL    HW1 6869  11.009   5.597   1.448
35010SOL    HW2 6870  11.063   5.479   1.526
35011SOL     OW 6871   0.579   7.402   2.954
35011SOL    HW1 6872   0.574   7.315   2.993
35011SOL    HW2 6873   0.487   7.427   2.941
35012SOL     OW 6874   2.113  14.401   2.058
35012SOL    HW1 6875   2.203  14.372   2.050
35012SOL    HW2 6876   2.119  14.496   2.071
35013SOL     OW 6877   6.398   3.933  11.022
35013SOL    HW1 6878   6.483   3.955  11.060
35013SOL    HW2 6879   6.335   3.951  11.093
35014SOL     OW 6880   4.393   3.115  13.115
35014SOL    HW1 6881   4.378   3.180  13.184
35014SOL    HW2 6882   4.400   3.167  13.035
35015SOL     OW 6883  10.634   3.210   3.462
35015SOL    HW1 6884  10.574   3.281   3.488
35015SOL    HW2 6885  10.690   3.250   3.396
35016SOL     OW 6886  13.267  14.361  13.525
35016SOL    HW1 6887  13.209  14.436  13.541
35016SOL    HW2 6888  13.342  14.399  13.480
35017SOL     OW 6889   6.716   1.618   7.430
35017SOL    HW1 6890   6.804   1.582   7.440
35017SOL    HW2 6891   6.722   1.706   7.469
35018SOL     OW 6892   3.260  12.465   4.794
35018SOL    HW1 6893   3.216  12.421   4.722
35018SOL    HW2 6894   3.341  12.415   4.808
35019SOL     OW 6895  13.713   5.726  11.522
35019SOL    HW1 6896  13.717   5.677  11.440
35019SOL    HW2 6897  13.623   5.714  11.552
35020SOL     OW 6898  14.336   2.620   2.692
35020SOL    HW1 6899  14.383   2.537   2.703
35020SOL    HW2 6900  14.384   2.681   2.748
35021SOL     OW 6901   9.526   6.253   1.588
35021SOL    HW1 6902   9.613   6.288   1.604
35021SOL    HW2 6903   9.493   6.230   1.675
35022SOL     OW 6904   2.310   4.477   2.025
35022SOL    HW1 6905   2.231   4.519   2.058
35022SOL    HW2 6906   2.328   4.520   1.942
35023SOL     OW 6907  10.455   3.659  13.664
35023SOL    HW1 6908  10.397   3.735  13.661
35023SOL    HW2 6909  10.402   3.590  13.704
35024SOL     OW 6910   7.463   3.945   7.356
35024SOL    HW1 6911   7.383   3.940   7.304
35024SOL    HW2 6912   7.522   4.000   7.304
35025SOL     OW 6913  10.232   1.037   2.494
35025SOL    HW1 6914  10.277   0.964   2.452
35025SOL    HW2 6915  10.301   1.101   2.512
35026SOL     OW 6916   7.210   8.715   6.804
35026SOL    HW1 6917   7.164   8.635   6.827
35026SOL    HW2 6918   7.195   8.726   6.710
35027SOL     OW 6919  13.262  12.813   9.262
35027SOL    HW1 6920  13.225  12.829   9.175
35027SOL    HW2 6921  13.186  12.787   9.316
35028SOL     OW 6922   6.112  11.028   0.144
35028SOL    HW1 6923   6.095  11.109   0.095
35028SOL    HW2 6924   6.037  11.019   0.202
35029SOL     OW 6925  13.341   5.599   5.312
35029SOL    HW1 6926  13.272   5.644   5.263
35029SOL    HW2 6927  13.415   5.660   5.311
35030SOL     OW 6928   6.041  12.156   5.982
35030SOL    HW1 6929   5.977  12.131   5.915
35030SOL    HW2 6930   6.013  12.108   6.060
35031SOL     OW 6931  13.074   9.349   3.869
35031SOL    HW1 6932  13.017   9.358   3.793
35031SOL    HW2 6933  13.029   9.397   3.939
35032SOL     OW 6934   5.533   2.470   0.529
35032SOL    HW1 6935   5.448   2.449   0.490
35032SOL    HW2 6936   5.562   2.550   0.484
35033SOL     OW 6937  10.552   9.112   7.021
35033SOL    HW1 6938  10.466   9.154   7.016
35033SOL    HW2 6939  10.544   9.050   7.093
35034SOL     OW 6940   4.549  12.714   5.010
35034SOL    HW1 6941   4.575  12.634   5.056
35034SOL    HW2 6942   4.455  12.721   5.024
35035SOL     OW 6943  10.588   3.395   1.808
35035SOL    HW1 6944  10.682   3.401   1.820
35035SOL    HW2 6945  10.570   3.447   1.730
35036SOL     OW 6946  12.199   3.001   9.458
35036SOL    HW1 6947  12.122   3.029   9.409
35036SOL    HW2 6948  12.178   3.020   9.549
35037SOL     OW 6949   2.010  14.137   0.277
35037SOL    HW1 6950   1.984  14.227   0.260
35037SOL    HW2 6951   1.971  14.116   0.362
35038SOL     OW 6952   2.958   7.297   1.373
35038SOL    HW1 6953   2.982   7.380   1.416
35038SOL    HW2 6954   2.917   7.245   1.443
35039SOL     OW 6955  14.077   1.953   9.584
35039SOL    HW1 6956  13.990   1.964   9.544
35039SOL    HW2 6957  14.133   2.016   9.539
35040SOL     OW 6958  14.656   4.763   8.392
35040SOL    HW1 6959  14.678   4.821   8.319
35040SOL    HW2 6960  14.563   4.781   8.409
35041SOL     OW 6961   8.783   5.712   6.694
35041SOL    HW1 6962   8.805   5.633   6.745
35041SOL    HW2 6963   8.867   5.746   6.665
35042SOL     OW 6964  12.184  14.543  11.567
35042SOL    HW1 6965  12.148  14.613  11.513
35042SOL    HW2 6966  12.256  14.508  11.516
35043SOL     OW 6967   3.328  12.244   2.050
35043SOL    HW1 6968   3.252  12.274   2.099
35043SOL    HW2 6969   3.356  12.164   2.096
35044SOL     OW 6970   7.661   7.822   5.931
35044SOL    HW1 6971   7.603   7.898   5.931
35044SOL    HW2 6972   7.687   7.812   5.840
35045SOL     OW 6973   2.472  11.311   6.682
35045SOL    HW1 6974   2.566  11.303   6.669
35045SOL    HW2 6975   2.447  11.391   6.636
35046SOL     OW 6976   2.160   5.479   9.687
35046SOL    HW1 6977   2.136   5.431   9.766
35046SOL    HW2 6978   2.144   5.416   9.616
35047SOL     OW 6979   9.669   2.404   3.303
35047SOL    HW1 6980   9.612   2.361   3.367
35047SOL    HW2 6981   9.697   2.485   3.347
35048SOL     OW 6982  14.061   6.679   4.107
35048SOL    HW1 6983  14.024   6.682   4.019
35048SOL    HW2 6984  14.074   6.770   4.132
35049SOL     OW 6985  11.943  13.930  11.060
35049SOL    HW1 6986  11.989  13.865  11.007
35049SOL    HW2 6987  11.896  13.877  11.126
35050SOL     OW 6988   5.463   5.637   5.013
35050SOL    HW1 6989   5.484   5.561   5.068
35050SOL    HW2 6990   5.547   5.683   5.002
35051SOL     OW 6991   4.548   5.219  11.554
35051SOL    HW1 6992   4.573   5.180  11.470
35051SOL    HW2 6993   4.459   5.251  11.540
35052SOL     OW 6994   4.630   2.537  14.614
35052SOL    HW1 6995   4.553   2.571  14.567
35052SOL    HW2 6996   4.667   2.472  14.555
35053SOL     OW 6997   0.889   7.342   0.693
35053SOL    HW1 6998   0.904   7.322   0.601
35053SOL    HW2 6999   0.821   7.281   0.720
35054SOL     OW 7000   4.044   5.544   6.211
35054SOL    HW1 7001   4.062   5.535   6.117
35054SOL    HW2 7002   3.949   5.536   6.218
35055SOL     OW 7003  14.813   7.038  10.738
35055SOL    HW1 7004  14.862   7.021  10.658
35055SOL    HW2 7005  14.750   6.966  10.744
35056SOL     OW 7006  10.192   2.163   3.118
35056SOL    HW1 7007  10.154   2.202   3.039
35056SOL    HW2 7008  10.231   2.237   3.164
35057SOL     OW 7009   6.362   7.390   5.550
35057SOL    HW1 7010   6.407   7.465   5.590
35057SOL    HW2 7011   6.276   7.389   5.591
35058SOL     OW 7012   9.426   8.981   1.768
35058SOL    HW1 7013   9.505   8.972   1.715
35058SOL    HW2 7014   9.358   9.005   1.706
35059SOL     OW 7015  13.336   7.103   8.182
35059SOL    HW1 7016  13.357   7.010   8.190
35059SOL    HW2 7017  13.315   7.131   8.271
35060SOL     OW 7018   1.030  12.241   2.110
35060SOL    HW1 7019   1.086  12.282   2.044
35060SOL    HW2 7020   1.049  12.289   2.190
35061SOL     OW 7021  13.507   4.470   9.780
35061SOL    HW1 7022  13.474   4.558   9.759
35061SOL    HW2 7023  13.456   4.442   9.856
35062SOL     OW 7024   2.478   0.654   8.470
35062SOL    HW1 7025   2.389   0.687   8.480
35062SOL    HW2 7026   2.492   0.650   8.375
35063SOL     OW 7027   1.744   2.578  14.509
35063SOL    HW1 7028   1.750   2.498  14.562
35063SOL    HW2 7029   1.689   2.553  14.435
35064SOL     OW 7030  10.121  14.119  14.071
35064SOL    HW1 7031  10.095  14.027  14.064
35064SOL    HW2 7032  10.159  14.140  13.986
35065SOL     OW 7033   9.934  12.520   6.110
35065SOL    HW1 7034   9.950  12.516   6.204
35065SOL    HW2 7035   9.866  12.586   6.100
35066SOL     OW 7036   5.651  13.613   4.805
35066SOL    HW1 7037   5.623  13.694   4.763
35066SOL    HW2 7038   5.610  13.544   4.753
35067SOL     OW 7039  11.822  14.052  14.379
35067SOL    HW1 7040  11.793  14.143  14.379
35067SOL    HW2 7041  11.888  14.047  14.448
35068SOL     OW 7042   0.398  13.361   7.685
35068SOL    HW1 7043   0.426  13.387   7.773
35068SOL    HW2 7044   0.475  13.378   7.630
35069SOL     OW 7045   5.063   2.679   6.680
35069SOL    HW1 7046   4.976   2.648   6.702
35069SOL    HW2 7047   5.050   2.770   6.652
35070SOL     OW 7048   1.974  13.570   4.885
35070SOL    HW1 7049   2.020  13.640   4.840
35070SOL    HW2 7050   2.042  13.520   4.930
35071SOL     OW 7051   7.150   9.074   1.307
35071SOL    HW1 7052   7.124   9.097   1.396
35071SOL    HW2 7053   7.084   9.115   1.251
35072SOL     OW 7054   3.380   1.944   4.063
35072SOL    HW1 7055   3.294   1.953   4.103
35072SOL    HW2 7056   3.426   1.882   4.118
35073SOL     OW 7057  14.473   0.466   6.966
35073SOL    HW1 7058  14.463   0.561   6.964
35073SOL    HW2 7059  14.482   0.444   7.058
35074SOL     OW 7060   6.399   4.504   0.865
35074SOL    HW1 7061   6.334   4.574   0.872
35074SOL    HW2 7062   6.369   4.437   0.926
35075SOL     OW 7063  11.814   5.875  10.223
35075SOL    HW1 7064  11.823   5.894  10.317
35075SOL    HW2 7065  11.853   5.952  10.180
35076SOL     OW 7066   6.017   0.837   4.419
35076SOL    HW1 7067   5.921   0.839   4.418
35076SOL    HW2 7068   6.039   0.745   4.431
35077SOL     OW 7069   2.721   8.998  11.519
35077SOL    HW1 7070   2.673   8.916  11.511
35077SOL    HW2 7071   2.655   9.066  11.509
35078SOL     OW 7072   6.954   2.702   7.707
35078SOL    HW1 7073   7.004   2.720   7.786
35078SOL    HW2 7074   7.018   2.668   7.645
35079SOL     OW 7075   3.525  12.936  13.866
35079SOL    HW1 7076   3.610  12.979  13.874
35079SOL    HW2 7077   3.465  13.006  13.839
35080SOL     OW 7078  13.923   7.744   6.963
35080SOL    HW1 7079  13.890   7.666   6.919
35080SOL    HW2 7080  13.938   7.716   7.054
35081SOL     OW 7081   5.833   0.826  13.238
35081SOL    HW1 7082   5.909   0.866  13.195
35081SOL    HW2 7083   5.784   0.901  13.272
35082SOL     OW 7084  13.261   6.247  12.966
35082SOL    HW1 7085  13.167   6.231  12.961
35082SOL    HW2 7086  13.282   6.237  13.059
35083SOL     OW 7087  11.908   5.777   3.498
35083SOL    HW1 7088  11.899   5.729   3.416
35083SOL    HW2 7089  11.985   5.738   3.540
35084SOL     OW 7090  11.414   5.717   3.204
35084SOL    HW1 7091  11.348   5.786   3.216
35084SOL    HW2 7092  11.478   5.755   3.145
35085SOL     OW 7093   9.161  12.403   5.389
35085SOL    HW1 7094   9.196  12.480   5.346
35085SOL    HW2 7095   9.200  12.329   5.342
35086SOL     OW 7096   4.592   0.312   8.150
35086SOL    HW1 7097   4.636   0.327   8.066
35086SOL    HW2 7098   4.607   0.219   8.168
35087SOL     OW 7099   6.233   5.104  12.666
35087SOL    HW1 7100   6.305   5.052  12.704
35087SOL    HW2 7101   6.163   5.099  12.731
35088SOL     OW 7102   8.595   3.611   1.950
35088SOL    HW1 7103   8.585   3.516   1.943
35088SOL    HW2 7104   8.564   3.632   2.038
35089SOL     OW 7105   1.063  11.992   8.642
35089SOL    HW1 7106   1.032  11.971   8.730
35089SOL    HW2 7107   0.985  12.024   8.596
35090SOL     OW 7108   6.641   2.423   5.833
35090SOL    HW1 7109   6.632   2.356   5.765
35090SOL    HW2 7110   6.557   2.470   5.831
35091SOL     OW 7111   6.414  13.948   6.016
35091SOL    HW1 7112   6.450  13.990   6.094
35091SOL    HW2 7113   6.329  13.915   6.044
35092SOL     OW 7114   9.304   5.953  13.391
35092SOL    HW1 7115   9.320   5.987  13.479
35092SOL    HW2 7116   9.391   5.929  13.358
35093SOL     OW 7117   5.185   3.462   8.144
35093SOL    HW1 7118   5.202   3.537   8.202
35093SOL    HW2 7119   5.094   3.473   8.117
35094SOL     OW 7120   8.537   1.911   4.509
35094SOL    HW1 7121   8.630   1.932   4.499
35094SOL    HW2 7122   8.496   1.947   4.431
35095SOL     OW 7123   4.308   8.647   7.486
35095SOL    HW1 7124   4.395   8.608   7.475
35095SOL    HW2 7125   4.248   8.573   7.489
35096SOL     OW 7126   6.311   8.006  10.097
35096SOL    HW1 7127   6.309   7.970  10.008
35096SOL    HW2 7128   6.402   8.029  10.111
35097SOL     OW 7129  11.904  14.445  13.986
35097SOL    HW1 7130  11.933  14.508  14.052
35097SOL    HW2 7131  11.847  14.497  13.928
35098SOL     OW 7132   0.803  12.682  13.345
35098SOL    HW1 7133   0.732  12.693  13.408
35098SOL    HW2 7134   0.872  12.739  13.377
35099SOL     OW 7135  10.700   6.243  11.721
35099SOL    HW1 7136  10.674   6.217  11.632
35099SOL    HW2 7137  10.763   6.177  11.748
35100SOL     OW 7138   9.765   3.041  11.661
35100SOL    HW1 7139   9.829   2.988  11.614
35100SOL    HW2 7140   9.728   3.100  11.595
35101SOL     OW 7141   4.936   5.082   7.152
35101SOL    HW1 7142   4.934   5.172   7.184
35101SOL    HW2 7143   4.902   5.030   7.225
35102SOL     OW 7144  11.774   7.395   4.928
35102SOL    HW1 7145  11.789   7.372   4.837
35102SOL    HW2 7146  11.687   7.360   4.948
35103SOL     OW 7147   3.781   9.210  13.680
35103SOL    HW1 7148   3.856   9.168  13.722
35103SOL    HW2 7149   3.788   9.184  13.588
35104SOL     OW 7150  11.460   2.527  12.988
35104SOL    HW1 7151  11.408   2.471  13.046
35104SOL    HW2 7152  11.456   2.485  12.903
35105SOL     OW 7153   1.847  10.850   8.646
35105SOL    HW1 7154   1.935  10.834   8.610
35105SOL    HW2 7155   1.804  10.905   8.580
35106SOL     OW 7156  14.367   1.930  14.067
35106SOL    HW1 7157  14.303   1.858  14.070
35106SOL    HW2 7158  14.449   1.888  14.042
35107SOL     OW 7159   4.107   5.444   2.969
35107SOL    HW1 7160   4.124   5.489   3.052
35107SOL    HW2 7161   4.013   5.428   2.969
35108SOL     OW 7162   1.432   4.279   4.408
35108SOL    HW1 7163   1.429   4.215   4.479
35108SOL    HW2 7164   1.520   4.317   4.414
35109SOL     OW 7165   0.618  13.227  14.533
35109SOL    HW1 7166   0.653  13.172  14.604
35109SOL    HW2 7167   0.627  13.172  14.455
35110SOL     OW 7168  12.699   7.927   7.174
35110SOL    HW1 7169  12.634   7.910   7.242
35110SOL    HW2 7170  12.738   7.841   7.157
35111SOL     OW 7171   4.620   7.832   1.240
35111SOL    HW1 7172   4.643   7.924   1.228
35111SOL    HW2 7173   4.636   7.792   1.154
35112SOL     OW 7174   0.066   7.526   6.977
35112SOL    HW1 7175   0.157   7.514   6.952
35112SOL    HW2 7176   0.030   7.438   6.983
35113SOL     OW 7177   7.321   7.130   4.400
35113SOL    HW1 7178   7.282   7.124   4.487
35113SOL    HW2 7179   7.246   7.123   4.340
35114SOL     OW 7180   6.570   2.088  12.594
35114SOL    HW1 7181   6.629   2.048  12.530
35114SOL    HW2 7182   6.607   2.175  12.609
35115SOL     OW 7183   2.769  13.039   8.636
35115SOL    HW1 7184   2.773  13.124   8.592
35115SOL    HW2 7185   2.850  12.994   8.610
35116SOL     OW 7186   5.898  14.233   7.579
35116SOL    HW1 7187   5.820  14.246   7.525
35116SOL    HW2 7188   5.965  14.206   7.517
35117SOL     OW 7189   0.282   2.072   9.079
35117SOL    HW1 7190   0.368   2.031   9.085
35117SOL    HW2 7191   0.223   2.000   9.055
35118SOL     OW 7192   0.643   7.223  14.308
35118SOL    HW1 7193   0.603   7.201  14.392
35118SOL    HW2 7194   0.728   7.180  14.310
35119SOL     OW 7195   8.070   8.006   2.285
35119SOL    HW1 7196   8.043   8.095   2.305
35119SOL    HW2 7197   8.050   7.994   2.192
35120SOL     OW 7198  12.500  10.970  13.195
35120SOL    HW1 7199  12.500  10.933  13.283
35120SOL    HW2 7200  12.409  10.966  13.167
35121SOL     OW 7201  11.879  12.544   4.054
35121SOL    HW1 7202  11.971  12.527   4.074
35121SOL    HW2 7203  11.834  12.463   4.078
35122SOL     OW 7204  14.307   7.565   1.021
35122SOL    HW1 7205  14.223   7.520   1.029
35122SOL    HW2 7206  14.348   7.557   1.107
35123SOL     OW 7207   9.898  12.650   1.153
35123SOL    HW1 7208   9.876  12.652   1.059
35123SOL    HW2 7209   9.989  12.678   1.157
35124SOL     OW 7210   2.140   1.231   1.209
35124SOL    HW1 7211   2.207   1.298   1.221
35124SOL    HW2 7212   2.150   1.173   1.285
35125SOL     OW 7213   4.079   0.597   7.681
35125SOL    HW1 7214   4.149   0.662   7.687
35125SOL    HW2 7215   4.062   0.589   7.587
35126SOL     OW 7216   5.625   1.195   2.416
35126SOL    HW1 7217   5.586   1.282   2.426
35126SOL    HW2 7218   5.718   1.213   2.404
35127SOL     OW 7219  14.168  10.922  10.555
35127SOL    HW1 7220  14.263  10.928  10.543
35127SOL    HW2 7221  14.156  10.846  10.612
35128SOL     OW 7222   9.658   3.309   8.523
35128SOL    HW1 7223   9.614   3.283   8.442
35128SOL    HW2 7224   9.703   3.229   8.552
35129SOL     OW 7225   6.814  11.555   9.117
35129SOL    HW1 7226   6.760  11.618   9.165
35129SOL    HW2 7227   6.787  11.470   9.150
35130SOL     OW 7228   7.336   6.620   6.597
35130SOL    HW1 7229   7.257   6.659   6.560
35130SOL    HW2 7230   7.401   6.691   6.594
35131SOL     OW 7231  13.029  10.929   0.519
35131SOL    HW1 7232  13.052  10.981   0.442
35131SOL    HW2 7233  13.050  10.839   0.494
35132SOL     OW 7234  10.199   7.842   5.500
35132SOL    HW1 7235  10.224   7.775   5.437
35132SOL    HW2 7236  10.161   7.792   5.573
35133SOL     OW 7237  11.875   2.734  12.118
35133SOL    HW1 7238  11.915   2.776  12.041
35133SOL    HW2 7239  11.909   2.784  12.192
35134SOL     OW 7240  14.691   9.219   3.768
35134SOL    HW1 7241  14.612   9.170   3.744
35134SOL    HW2 7242  14.729   9.169   3.841
35135SOL     OW 7243  11.383   3.324  13.294
35135SOL    HW1 7244  11.321   3.352  13.362
35135SOL    HW2 7245  11.448   3.273  13.341
35136SOL     OW 7246  14.314   1.423   3.919
35136SOL    HW1 7247  14.285   1.387   3.835
35136SOL    HW2 7248  14.402   1.456   3.902
35137SOL     OW 7249   4.212   3.252   9.368
35137SOL    HW1 7250   4.284   3.268   9.306
35137SOL    HW2 7251   4.253   3.204   9.439
35138SOL     OW 7252   5.280   4.742  13.378
35138SOL    HW1 7253   5.267   4.674  13.311
35138SOL    HW2 7254   5.346   4.704  13.437
35139SOL     OW 7255  12.862   6.663   6.832
35139SOL    HW1 7256  12.812   6.622   6.762
35139SOL    HW2 7257  12.925   6.596   6.859
35140SOL     OW 7258  12.378  10.205   3.669
35140SOL    HW1 7259  12.454  10.155   3.639
35140SOL    HW2 7260  12.416  10.282   3.712
35141SOL     OW 7261   3.629  12.251  10.519
35141SOL    HW1 7262   3.619  12.344  10.496
35141SOL    HW2 7263   3.589  12.204  10.446
35142SOL     OW 7264   8.726  13.392  10.215
35142SOL    HW1 7265   8.679  13.433  10.142
35142SOL    HW2 7266   8.691  13.436  10.293
35143SOL     OW 7267  11.192  12.487   0.864
35143SOL    HW1 7268  11.099  12.464   0.876
35143SOL    HW2 7269  11.190  12.558   0.801
35144SOL     OW 7270   0.698   5.366   8.511
35144SOL    HW1 7271   0.712   5.422   8.435
35144SOL    HW2 7272   0.786   5.355   8.549
35145SOL     OW 7273  12.677  12.627   3.252
35145SOL    HW1 7274  12.758  12.676   3.242
35145SOL    HW2 7275  12.673  12.606   3.346
35146SOL     OW 7276  11.078   0.066   9.034
35146SOL    HW1 7277  11.051   0.101   9.119
35146SOL    HW2 7278  11.146   0.126   9.004
35147SOL     OW 7279  14.009   8.236   1.190
35147SOL    HW1 7280  13.999   8.197   1.103
35147SOL    HW2 7281  14.044   8.165   1.244
35148SOL     OW 7282   1.183   0.828   1.365
35148SOL    HW1 7283   1.272   0.860   1.379
35148SOL    HW2 7284   1.193   0.749   1.313
35149SOL     OW 7285  12.645  14.142   3.207
35149SOL    HW1 7286  12.649  14.237   3.201
35149SOL    HW2 7287  12.728  14.117   3.249
35150SOL     OW 7288   2.393   1.652   6.111
35150SOL    HW1 7289   2.384   1.564   6.148
35150SOL    HW2 7290   2.314   1.665   6.059
35151SOL     OW 7291   3.474   5.708  13.761
35151SOL    HW1 7292   3.514   5.704  13.674
35151SOL    HW2 7293   3.420   5.629  13.766
35152SOL     OW 7294   9.340   3.644  13.226
35152SOL    HW1 7295   9.413   3.691  13.266
35152SOL    HW2 7296   9.379   3.564  13.191
35153SOL     OW 7297  10.099   7.469  14.316
35153SOL    HW1 7298  10.023   7.518  14.284
35153SOL    HW2 7299  10.170   7.494  14.258
35154SOL     OW 7300   4.019   4.632  10.083
35154SOL    HW1 7301   4.011   4.679  10.001
35154SOL    HW2 7302   4.073   4.689  10.138
35155SOL     OW 7303   2.115  14.604   0.558
35155SOL    HW1 7304   2.173  14.641   0.492
35155SOL    HW2 7305   2.031  14.594   0.513
35156SOL     OW 7306   8.555   5.571   3.317
35156SOL    HW1 7307   8.581   5.486   3.280
35156SOL    HW2 7308   8.516   5.548   3.402
35157SOL     OW 7309   5.340   8.972   5.966
35157SOL    HW1 7310   5.334   9.052   5.914
35157SOL    HW2 7311   5.326   9.001   6.056
35158SOL     OW 7312   4.582  11.962   2.380
35158SOL    HW1 7313   4.559  11.908   2.455
35158SOL    HW2 7314   4.590  11.900   2.307
35159SOL     OW 7315   4.319   7.988   4.233
35159SOL    HW1 7316   4.306   7.904   4.277
35159SOL    HW2 7317   4.258   7.987   4.159
35160SOL     OW 7318   3.897   2.227  10.483
35160SOL    HW1 7319   3.892   2.265  10.395
35160SOL    HW2 7320   3.938   2.295  10.536
35161SOL     OW 7321  11.575  14.473  14.451
35161SOL    HW1 7322  11.515  14.401  14.435
35161SOL    HW2 7323  11.654  14.450  14.403
35162SOL     OW 7324   4.935  13.726   4.574
35162SOL    HW1 7325   5.003  13.662   4.553
35162SOL    HW2 7326   4.979  13.810   4.575
35163SOL     OW 7327   8.358   7.866   8.613
35163SOL    HW1 7328   8.368   7.922   8.690
35163SOL    HW2 7329   8.436   7.885   8.560
35164SOL     OW 7330   3.955   8.425  12.580
35164SOL    HW1 7331   3.997   8.487  12.520
35164SOL    HW2 7332   3.890   8.380  12.527
35165SOL     OW 7333  11.113   9.589   4.885
35165SOL    HW1 7334  11.087   9.679   4.904
35165SOL    HW2 7335  11.153   9.593   4.799
35166SOL     OW 7336   9.860  10.397   3.004
35166SOL    HW1 7337   9.864  10.475   3.060
35166SOL    HW2 7338   9.935  10.344   3.032
35167SOL     OW 7339   5.368   1.616  10.105
35167SOL    HW1 7340   5.381   1.708  10.083
35167SOL    HW2 7341   5.399   1.568  10.028
35168SOL     OW 7342   4.771   0.618   0.376
35168SOL    HW1 7343   4.728   0.678   0.437
35168SOL    HW2 7344   4.813   0.675   0.312
35169SOL     OW 7345   8.989   7.693   3.028
35169SOL    HW1 7346   8.998   7.608   2.984
35169SOL    HW2 7347   8.947   7.749   2.962
35170SOL     OW 7348   5.779   2.039   1.823
35170SOL    HW1 7349   5.724   1.981   1.875
35170SOL    HW2 7350   5.717   2.095   1.776
35171SOL     OW 7351   3.953  10.147   6.362
35171SOL    HW1 7352   3.859  10.157   6.379
35171SOL    HW2 7353   3.962  10.168   6.269
35172SOL     OW 7354   9.401   0.390   0.140
35172SOL    HW1 7355   9.340   0.446   0.189
35172SOL    HW2 7356   9.346   0.330   0.090
35173SOL     OW 7357  12.081   1.037   1.131
35173SOL    HW1 7358  12.145   0.968   1.144
35173SOL    HW2 7359  12.110   1.083   1.052
35174SOL     OW 7360   8.730   1.695   0.230
35174SOL    HW1 7361   8.747   1.786   0.206
35174SOL    HW2 7362   8.811   1.665   0.271
35175SOL     OW 7363   5.837   7.033   2.717
35175SOL    HW1 7364   5.747   7.062   2.731
35175SOL    HW2 7365   5.885   7.068   2.793
35176SOL     OW 7366   4.579   9.936   8.094
35176SOL    HW1 7367   4.588   9.884   8.015
35176SOL    HW2 7368   4.486   9.955   8.101
35177SOL     OW 7369   1.442   0.644  10.310
35177SOL    HW1 7370   1.438   0.739  10.299
35177SOL    HW2 7371   1.514   0.617  10.253
35178SOL     OW 7372  10.290  14.030   4.509
35178SOL    HW1 7373  10.269  14.108   4.562
35178SOL    HW2 7374  10.349  14.063   4.441
35179SOL     OW 7375   1.211   1.115   5.168
35179SOL    HW1 7376   1.168   1.059   5.103
35179SOL    HW2 7377   1.249   1.053   5.231
35180SOL     OW 7378   5.162   0.800  12.229
35180SOL    HW1 7379   5.130   0.711  12.215
35180SOL    HW2 7380   5.255   0.790  12.249
35181SOL     OW 7381   4.437   6.187   3.280
35181SOL    HW1 7382   4.343   6.196   3.296
35181SOL    HW2 7383   4.444   6.135   3.200
35182SOL     OW 7384   3.726   1.749   3.387
35182SOL    HW1 7385   3.791   1.785   3.326
35182SOL    HW2 7386   3.771   1.675   3.428
35183SOL     OW 7387   2.641   3.043   1.418
35183SOL    HW1 7388   2.707   3.080   1.477
35183SOL    HW2 7389   2.595   3.119   1.383
35184SOL     OW 7390   9.964   3.372   9.809
35184SOL    HW1 7391   9.950   3.420   9.891
35184SOL    HW2 7392   9.953   3.280   9.833
35185SOL     OW 7393  13.533   6.789   4.597
35185SOL    HW1 7394  13.598   6.842   4.551
35185SOL    HW2 7395  13.449   6.820   4.562
35186SOL     OW 7396   9.519   1.019   9.388
35186SOL    HW1 7397   9.521   1.079   9.462
35186SOL    HW2 7398   9.538   1.073   9.312
35187SOL     OW 7399   6.741   9.528  14.358
35187SOL    HW1 7400   6.665   9.572  14.399
35187SOL    HW2 7401   6.715   9.436  14.352
35188SOL     OW 7402  10.104  14.758   8.192
35188SOL    HW1 7403  10.138  14.747   8.281
35188SOL    HW2 7404  10.123  14.675   8.149
35189SOL     OW 7405   9.187   5.623  11.497
35189SOL    HW1 7406   9.227   5.565  11.432
35189SOL    HW2 7407   9.259   5.648  11.555
35190SOL     OW 7408   4.800  14.074  13.153
35190SOL    HW1 7409   4.892  14.054  13.170
35190SOL    HW2 7410   4.770  14.002  13.097
35191SOL     OW 7411  11.601   6.301   7.448
35191SOL    HW1 7412  11.651   6.325   7.370
35191SOL    HW2 7413  11.656   6.329   7.521
35192SOL     OW 7414  11.924   6.890  11.485
35192SOL    HW1 7415  11.962   6.954  11.545
35192SOL    HW2 7416  11.840   6.928  11.459
35193SOL     OW 7417   2.266  11.300   6.027
35193SOL    HW1 7418   2.221  11.382   6.008
35193SOL    HW2 7419   2.317  11.319   6.106
35194SOL     OW 7420   9.715   0.174   4.673
35194SOL    HW1 7421   9.672   0.089   4.662
35194SOL    HW2 7422   9.778   0.178   4.602
35195SOL     OW 7423  10.357   8.814  10.418
35195SOL    HW1 7424  10.383   8.894  10.373
35195SOL    HW2 7425  10.411   8.812  10.497
35196SOL     OW 7426   4.443  12.435  11.304
35196SOL    HW1 7427   4.521  12.426  11.250
35196SOL    HW2 7428   4.377  12.381  11.261
35197SOL     OW 7429   1.974  14.600   5.343
35197SOL    HW1 7430   1.915  14.602   5.418
35197SOL    HW2 7431   2.053  14.645   5.372
35198SOL     OW 7432   8.618  14.112   5.039
35198SOL    HW1 7433   8.597  14.135   5.130
35198SOL    HW2 7434   8.606  14.194   4.991
35199SOL     OW 7435  10.664   9.457   4.645
35199SOL    HW1 7436  10.704   9.381   4.687
35199SOL    HW2 7437  10.737   9.504   4.605
35200SOL     OW 7438   3.627  13.111   5.768
35200SOL    HW1 7439   3.572  13.061   5.829
35200SOL    HW2 7440   3.705  13.132   5.819
35201SOL     OW 7441   0.540  11.662  12.982
35201SOL    HW1 7442   0.580  11.736  12.937
35201SOL    HW2 7443   0.448  11.664  12.956
35202SOL     OW 7444   8.047   4.396   7.774
35202SOL    HW1 7445   8.035   4.392   7.679
35202SOL    HW2 7446   8.054   4.305   7.801
35203SOL     OW 7447   8.063   5.223  12.500
35203SOL    HW1 7448   8.052   5.297  12.560
35203SOL    HW2 7449   7.983   5.222  12.448
35204SOL     OW 7450   4.886   5.769  14.538
35204SOL    HW1 7451   4.939   5.770  14.458
35204SOL    HW2 7452   4.931   5.707  14.595
35205SOL     OW 7453   9.635  10.369  12.746
35205SOL    HW1 7454   9.550  10.394  12.780
35205SOL    HW2 7455   9.616  10.329  12.661
35206SOL     OW 7456   0.786  12.561   6.809
35206SOL    HW1 7457   0.845  12.581   6.735
35206SOL    HW2 7458   0.793  12.467   6.820
35207SOL     OW 7459   1.567   0.984   8.066
35207SOL    HW1 7460   1.656   0.952   8.082
35207SOL    HW2 7461   1.576   1.042   7.990
35208SOL     OW 7462   2.413   7.350   8.732
35208SOL    HW1 7463   2.506   7.351   8.711
35208SOL    HW2 7464   2.373   7.297   8.662
35209SOL     OW 7465   3.477   0.545  11.538
35209SOL    HW1 7466   3.422   0.622  11.553
35209SOL    HW2 7467   3.480   0.501  11.622
35210SOL     OW 7468  13.424  10.989  10.460
35210SOL    HW1 7469  13.348  11.043  10.438
35210SOL    HW2 7470  13.497  11.050  10.461
35211SOL     OW 7471   7.085  14.580  11.936
35211SOL    HW1 7472   7.092  14.501  11.990
35211SOL    HW2 7473   7.162  14.577  11.879
35212SOL     OW 7474  14.538   4.826   0.697
35212SOL    HW1 7475  14.521   4.853   0.607
35212SOL    HW2 7476  14.628   4.855   0.714
35213SOL     OW 7477   5.152   4.078   3.585
35213SOL    HW1 7478   5.245   4.092   3.567
35213SOL    HW2 7479   5.128   4.150   3.643
35214SOL     OW 7480   7.291   4.883   3.402
35214SOL    HW1 7481   7.203   4.892   3.438
35214SOL    HW2 7482   7.278   4.868   3.309
35215SOL     OW 7483  13.094   6.168   8.857
35215SOL    HW1 7484  13.064   6.135   8.943
35215SOL    HW2 7485  13.018   6.157   8.800
35216SOL     OW 7486   2.746   5.287   1.489
35216SOL    HW1 7487   2.691   5.211   1.470
35216SOL    HW2 7488   2.775   5.318   1.403
35217SOL     OW 7489   2.709  10.608   2.650
35217SOL    HW1 7490   2.692  10.542   2.583
35217SOL    HW2 7491   2.719  10.690   2.601
35218SOL     OW 7492   2.321  11.988   4.124
35218SOL    HW1 7493   2.333  11.978   4.218
35218SOL    HW2 7494   2.366  11.912   4.086
35219SOL     OW 7495  11.217  10.170  13.787
35219SOL    HW1 7496  11.181  10.257  13.774
35219SOL    HW2 7497  11.208  10.153  13.881
35220SOL     OW 7498  13.300   7.191   5.506
35220SOL    HW1 7499  13.238   7.122   5.530
35220SOL    HW2 7500  13.246   7.261   5.469
35221SOL     OW 7501  12.607  13.571   9.824
35221SOL    HW1 7502  12.578  13.520   9.900
35221SOL    HW2 7503  12.619  13.507   9.754
35222SOL     OW 7504   4.554  12.720   4.035
35222SOL    HW1 7505   4.478  12.761   4.077
35222SOL    HW2 7506   4.605  12.686   4.108
35223SOL     OW 7507   3.938  10.787   9.531
35223SOL    HW1 7508   4.023  10.829   9.547
35223SOL    HW2 7509   3.905  10.829   9.452
35224SOL     OW 7510   4.922   8.503   0.541
35224SOL    HW1 7511   4.903   8.531   0.452
35224SOL    HW2 7512   4.845   8.530   0.592
35225SOL     OW 7513   8.578   4.283   5.620
35225SOL    HW1 7514   8.603   4.233   5.698
35225SOL    HW2 7515   8.657   4.333   5.597
35226SOL     OW 7516  13.100   8.126   5.413
35226SOL    HW1 7517  13.007   8.143   5.428
35226SOL    HW2 7518  13.124   8.061   5.479
35227SOL     OW 7519  12.059   3.253   5.714
35227SOL    HW1 7520  12.085   3.172   5.759
35227SOL    HW2 7521  12.032   3.224   5.627
35228SOL     OW 7522  13.700   5.274   3.809
35228SOL    HW1 7523  13.721   5.308   3.722
35228SOL    HW2 7524  13.678   5.182   3.794
35229SOL     OW 7525   8.436  14.185  10.357
35229SOL    HW1 7526   8.384  14.222  10.429
35229SOL    HW2 7527   8.383  14.113  10.323
35230SOL     OW 7528  12.765   1.785   6.899
35230SOL    HW1 7529  12.782   1.734   6.820
35230SOL    HW2 7530  12.725   1.866   6.867
35231SOL     OW 7531   3.624  11.009   3.617
35231SOL    HW1 7532   3.559  10.947   3.650
35231SOL    HW2 7533   3.646  10.975   3.530
35232SOL     OW 7534  10.538   5.920   4.558
35232SOL    HW1 7535  10.561   5.967   4.479
35232SOL    HW2 7536  10.466   5.970   4.596
35233SOL     OW 7537  11.140   9.115   7.196
35233SOL    HW1 7538  11.219   9.132   7.246
35233SOL    HW2 7539  11.171   9.074   7.115
35234SOL     OW 7540  13.321   8.059  11.618
35234SOL    HW1 7541  13.242   8.007  11.635
35234SOL    HW2 7542  13.288   8.143  11.587
35235SOL     OW 7543  10.895   4.856   5.792
35235SOL    HW1 7544  10.933   4.789   5.735
35235SOL    HW2 7545  10.803   4.860   5.765
35236SOL     OW 7546  14.168   6.665   7.872
35236SOL    HW1 7547  14.177   6.688   7.965
35236SOL    HW2 7548  14.239   6.604   7.855
35237SOL     OW 7549   5.253   7.320  11.216
35237SOL    HW1 7550   5.225   7.373  11.141
35237SOL    HW2 7551   5.171   7.287  11.253
35238SOL     OW 7552   1.630   1.140  13.633
35238SOL    HW1 7553   1.563   1.091  13.585
35238SOL    HW2 7554   1.693   1.167  13.567
35239SOL     OW 7555   6.063   1.183  14.740
35239SOL    HW1 7556   6.040   1.189  14.832
35239SOL    HW2 7557   6.156   1.158  14.740
35240SOL     OW 7558   4.047   9.108   1.907
35240SOL    HW1 7559   4.135   9.116   1.870
35240SOL    HW2 7560   4.006   9.193   1.892
35241SOL     OW 7561  10.469  14.556  10.190
35241SOL    HW1 7562  10.473  14.633  10.246
35241SOL    HW2 7563  10.560  14.530  10.178
35242SOL     OW 7564   9.892   6.578   4.154
35242SOL    HW1 7565   9.917   6.501   4.103
35242SOL    HW2 7566   9.900   6.550   4.245
35243SOL     OW 7567  11.237  14.220   0.567
35243SOL    HW1 7568  11.217  14.251   0.479
35243SOL    HW2 7569  11.322  14.260   0.588
35244SOL     OW 7570   9.018   7.512   2.137
35244SOL    HW1 7571   8.974   7.434   2.169
35244SOL    HW2 7572   8.973   7.533   2.055
35245SOL     OW 7573  11.609   1.809  14.039
35245SOL    HW1 7574  11.540   1.831  14.101
35245SOL    HW2 7575  11.679   1.773  14.093
35246SOL     OW 7576  11.415   4.325   8.441
35246SOL    HW1 7577  11.506   4.319   8.415
35246SOL    HW2 7578  11.408   4.411   8.484
35247SOL     OW 7579   7.067   6.010   8.644
35247SOL    HW1 7580   7.032   6.097   8.623
35247SOL    HW2 7581   7.003   5.973   8.706
35248SOL     OW 7582  13.816  11.141   1.628
35248SOL    HW1 7583  13.747  11.104   1.572
35248SOL    HW2 7584  13.768  11.177   1.703
35249SOL     OW 7585   4.182   3.031   8.736
35249SOL    HW1 7586   4.278   3.026   8.730
35249SOL    HW2 7587   4.156   2.945   8.768
35250SOL     OW 7588  12.484  11.881  10.929
35250SOL    HW1 7589  12.493  11.862  10.835
35250SOL    HW2 7590  12.573  11.901  10.957
35251SOL     OW 7591  14.026   6.474  14.329
35251SOL    HW1 7592  14.088   6.499  14.397
35251SOL    HW2 7593  13.955   6.538  14.337
35252SOL     OW 7594   1.596   8.497  11.427
35252SOL    HW1 7595   1.652   8.537  11.361
35252SOL    HW2 7596   1.656   8.441  11.477
35253SOL     OW 7597   0.075  11.409   5.936
35253SOL    HW1 7598   0.165  11.437   5.920
35253SOL    HW2 7599   0.082  11.345   6.006
35254SOL     OW 7600   3.167   5.842   9.486
35254SOL    HW1 7601   3.150   5.767   9.429
35254SOL    HW2 7602   3.234   5.811   9.547
35255SOL     OW 7603   9.755  11.122   2.639
35255SOL    HW1 7604   9.761  11.216   2.657
35255SOL    HW2 7605   9.846  11.093   2.634
35256SOL     OW 7606   2.602   6.097   3.658
35256SOL    HW1 7607   2.619   6.018   3.709
35256SOL    HW2 7608   2.599   6.167   3.723
35257SOL     OW 7609   8.924   8.097  13.012
35257SOL    HW1 7610   8.858   8.028  13.010
35257SOL    HW2 7611   8.958   8.094  13.102
35258SOL     OW 7612  11.712   0.784  12.873
35258SOL    HW1 7613  11.685   0.705  12.826
35258SOL    HW2 7614  11.743   0.843  12.805
35259SOL     OW 7615  12.397  10.170   8.228
35259SOL    HW1 7616  12.383  10.155   8.135
35259SOL    HW2 7617  12.491  10.157   8.241
35260SOL     OW 7618  11.902  10.391   2.767
35260SOL    HW1 7619  11.822  10.434   2.797
35260SOL    HW2 7620  11.939  10.451   2.702
35261SOL     OW 7621  14.715   2.080  14.632
35261SOL    HW1 7622  14.684   2.168  14.653
35261SOL    HW2 7623  14.780   2.093  14.563
35262SOL     OW 7624  10.488   5.939   4.131
35262SOL    HW1 7625  10.487   5.845   4.148
35262SOL    HW2 7626  10.569   5.970   4.170
35263SOL     OW 7627   6.566   3.167   5.982
35263SOL    HW1 7628   6.593   3.108   6.052
35263SOL    HW2 7629   6.562   3.112   5.904
35264SOL     OW 7630   1.093   4.086   8.444
35264SOL    HW1 7631   1.131   4.085   8.356
35264SOL    HW2 7632   1.007   4.126   8.432
35265SOL     OW 7633   0.574  13.745   0.297
35265SOL    HW1 7634   0.539  13.782   0.217
35265SOL    HW2 7635   0.605  13.658   0.272
35266SOL     OW 7636  13.887   6.373   8.634
35266SOL    HW1 7637  13.958   6.406   8.688
35266SOL    HW2 7638  13.876   6.439   8.566
35267SOL     OW 7639   4.211  11.379  10.881
35267SOL    HW1 7640   4.119  11.405  10.874
35267SOL    HW2 7641   4.253  11.418  10.805
35268SOL     OW 7642   8.524   9.307   2.622
35268SOL    HW1 7643   8.498   9.351   2.703
35268SOL    HW2 7644   8.511   9.373   2.554
35269SOL     OW 7645  10.055   0.808   8.164
35269SOL    HW1 7646  10.008   0.830   8.244
35269SOL    HW2 7647  10.029   0.718   8.144
35270SOL     OW 7648   2.687  12.790   4.861
35270SOL    HW1 7649   2.725  12.746   4.937
35270SOL    HW2 7650   2.705  12.883   4.875
35271SOL     OW 7651   5.391  11.196   2.201
35271SOL    HW1 7652   5.476  11.176   2.240
35271SOL    HW2 7653   5.395  11.289   2.181
35272SOL     OW 7654   9.824   7.507  10.595
35272SOL    HW1 7655   9.840   7.427  10.545
35272SOL    HW2 7656   9.777   7.476  10.673
35273SOL     OW 7657  10.397  13.115  11.792
35273SOL    HW1 7658  10.457  13.187  11.811
35273SOL    HW2 7659  10.451  13.050  11.747
35274SOL     OW 7660   4.305   1.865   9.221
35274SOL    HW1 7661   4.388   1.913   9.212
35274SOL    HW2 7662   4.252   1.894   9.147
35275SOL     OW 7663  11.230   9.245   7.436
35275SOL    HW1 7664  11.200   9.176   7.496
35275SOL    HW2 7665  11.154   9.302   7.424
35276SOL     OW 7666  11.072   0.153   3.429
35276SOL    HW1 7667  11.150   0.100   3.411
35276SOL    HW2 7668  11.022   0.102   3.493
35277SOL     OW 7669   7.836  13.798   3.567
35277SOL    HW1 7670   7.837  13.757   3.481
35277SOL    HW2 7671   7.772  13.748   3.617
35278SOL     OW 7672   6.641  12.566  10.631
35278SOL    HW1 7673   6.650  12.494  10.569
35278SOL    HW2 7674   6.670  12.643  10.582
35279SOL     OW 7675  14.281   3.520   5.178
35279SOL    HW1 7676  14.358   3.518   5.236
35279SOL    HW2 7677  14.317   3.511   5.090
35280SOL     OW 7678  13.078   2.842  14.501
35280SOL    HW1 7679  13.136   2.773  14.468
35280SOL    HW2 7680  13.019   2.797  14.561
35281SOL     OW 7681   3.995   9.598   5.957
35281SOL    HW1 7682   4.038   9.683   5.950
35281SOL    HW2 7683   4.038   9.555   6.031
35282SOL     OW 7684  11.457   1.555   0.952
35282SOL    HW1 7685  11.544   1.550   0.912
35282SOL    HW2 7686  11.447   1.471   0.996
35283SOL     OW 7687  14.333   8.471   0.974
35283SOL    HW1 7688  14.420   8.509   0.970
35283SOL    HW2 7689  14.298   8.480   0.886
35284SOL     OW 7690   2.250   0.945  11.191
35284SOL    HW1 7691   2.246   0.989  11.276
35284SOL    HW2 7692   2.240   1.016  11.128
35285SOL     OW 7693   6.224   3.913  13.477
35285SOL    HW1 7694   6.274   3.990  13.505
35285SOL    HW2 7695   6.174   3.943  13.401
35286SOL     OW 7696  14.607  13.397  12.978
35286SOL    HW1 7697  14.630  13.359  12.893
35286SOL    HW2 7698  14.535  13.342  13.010
35287SOL     OW 7699   2.576   0.123   5.034
35287SOL    HW1 7700   2.528   0.199   5.000
35287SOL    HW2 7701   2.620   0.086   4.958
35288SOL     OW 7702   9.143   0.065  13.743
35288SOL    HW1 7703   9.203   0.097  13.675
35288SOL    HW2 7704   9.199   0.016  13.803
35289SOL     OW 7705   9.160   3.900  13.287
35289SOL    HW1 7706   9.217   3.823  13.291
35289SOL    HW2 7707   9.082   3.875  13.335
35290SOL     OW 7708  13.227   3.083   4.694
35290SOL    HW1 7709  13.161   3.070   4.626
35290SOL    HW2 7710  13.199   3.162   4.739
35291SOL     OW 7711   3.207  11.606   5.843
35291SOL    HW1 7712   3.234  11.697   5.837
35291SOL    HW2 7713   3.280  11.561   5.885
35292SOL     OW 7714   0.130   9.320   1.611
35292SOL    HW1 7715   0.085   9.323   1.695
35292SOL    HW2 7716   0.126   9.410   1.578
35293SOL     OW 7717  11.602   7.727  11.499
35293SOL    HW1 7718  11.507   7.733  11.486
35293SOL    HW2 7719  11.616   7.638  11.530
35294SOL     OW 7720   5.219  14.813   7.870
35294SOL    HW1 7721   5.311  14.788   7.883
35294SOL    HW2 7722   5.193  14.852   7.954
35295SOL     OW 7723  11.710   3.031  12.638
35295SOL    HW1 7724  11.706   3.103  12.701
35295SOL    HW2 7725  11.761   3.066  12.565
35296SOL     OW 7726  13.691  13.337  10.390
35296SOL    HW1 7727  13.682  13.362  10.297
35296SOL    HW2 7728  13.771  13.285  10.393
35297SOL     OW 7729   4.085  10.454   9.975
35297SOL    HW1 7730   4.086  10.426   9.884
35297SOL    HW2 7731   4.115  10.377  10.024
35298SOL     OW 7732   8.339   2.036   1.259
35298SOL    HW1 7733   8.409   2.058   1.320
35298SOL    HW2 7734   8.384   2.011   1.179
35299SOL     OW 7735   0.524   5.757   8.731
35299SOL    HW1 7736   0.452   5.813   8.756
35299SOL    HW2 7737   0.550   5.714   8.812
35300SOL     OW 7738   4.501  12.495   5.207
35300SOL    HW1 7739   4.408  12.479   5.223
35300SOL    HW2 7740   4.540  12.502   5.294
35301SOL     OW 7741   7.472  10.774   4.634
35301SOL    HW1 7742   7.475  10.717   4.710
35301SOL    HW2 7743   7.438  10.857   4.667
35302SOL     OW 7744  13.442   3.780   4.579
35302SOL    HW1 7745  13.380   3.826   4.635
35302SOL    HW2 7746  13.388   3.722   4.526
35303SOL     OW 7747   4.953  11.754  10.367
35303SOL    HW1 7748   4.958  11.732  10.460
35303SOL    HW2 7749   4.908  11.680  10.327
35304SOL     OW 7750   0.108   5.424  13.229
35304SOL    HW1 7751   0.169   5.476  13.177
35304SOL    HW2 7752   0.023   5.435  13.185
35305SOL     OW 7753   8.660   5.384  14.636
35305SOL    HW1 7754   8.712   5.459  14.606
35305SOL    HW2 7755   8.701   5.358  14.719
35306SOL     OW 7756  13.657   4.189   1.055
35306SOL    HW1 7757  13.650   4.128   0.982
35306SOL    HW2 7758  13.568   4.222   1.068
35307SOL     OW 7759   6.258  14.821   3.915
35307SOL    HW1 7760   6.256  14.810   3.820
35307SOL    HW2 7761   6.254  14.733   3.950
35308SOL     OW 7762  11.114   3.220   7.194
35308SOL    HW1 7763  11.199   3.256   7.168
35308SOL    HW2 7764  11.059   3.229   7.116
35309SOL     OW 7765   2.016   8.549   5.893
35309SOL    HW1 7766   1.970   8.574   5.813
35309SOL    HW2 7767   2.064   8.469   5.869
35310SOL     OW 7768   1.011  12.463  10.605
35310SOL    HW1 7769   1.008  12.550  10.645
35310SOL    HW2 7770   1.095  12.461  10.559
35311SOL     OW 7771   6.065   6.602  11.559
35311SOL    HW1 7772   6.081   6.651  11.478
35311SOL    HW2 7773   5.980   6.633  11.589
35312SOL     OW 7774   9.555   4.594  14.120
35312SOL    HW1 7775   9.479   4.537  14.130
35312SOL    HW2 7776   9.519   4.679  14.094
35313SOL     OW 7777   7.828  14.687  11.198
35313SOL    HW1 7778   7.791  14.746  11.264
35313SOL    HW2 7779   7.752  14.645  11.159
35314SOL     OW 7780   7.201   4.128   4.539
35314SOL    HW1 7781   7.143   4.149   4.466
35314SOL    HW2 7782   7.242   4.212   4.561
35315SOL     OW 7783   5.666  12.541  14.509
35315SOL    HW1 7784   5.599  12.505  14.568
35315SOL    HW2 7785   5.661  12.485  14.431
35316SOL     OW 7786   1.487  12.957  12.042
35316SOL    HW1 7787   1.575  12.922  12.025
35316SOL    HW2 7788   1.430  12.910  11.981
35317SOL     OW 7789  12.060   3.584  12.937
35317SOL    HW1 7790  12.133   3.644  12.957
35317SOL    HW2 7791  11.993   3.607  13.002
35318SOL     OW 7792   7.488   1.511   0.290
35318SOL    HW1 7793   7.407   1.466   0.314
35318SOL    HW2 7794   7.555   1.469   0.345
35319SOL     OW 7795   0.282  14.153   0.640
35319SOL    HW1 7796   0.354  14.183   0.695
35319SOL    HW2 7797   0.229  14.231   0.624
35320SOL     OW 7798   9.221   1.505  14.693
35320SOL    HW1 7799   9.308   1.542  14.705
35320SOL    HW2 7800   9.237   1.416  14.661
35321SOL     OW 7801   1.511  14.529   2.351
35321SOL    HW1 7802   1.465  14.590   2.293
35321SOL    HW2 7803   1.594  14.573   2.371
35322SOL     OW 7804   0.429   0.461   8.598
35322SOL    HW1 7805   0.494   0.518   8.556
35322SOL    HW2 7806   0.413   0.502   8.683
35323SOL     OW 7807   4.956   9.351   6.775
35323SOL    HW1 7808   4.862   9.358   6.791
35323SOL    HW2 7809   4.996   9.403   6.845
35324SOL     OW 7810  10.608   7.774   9.823
35324SOL    HW1 7811  10.674   7.739   9.883
35324SOL    HW2 7812  10.572   7.851   9.869
35325SOL     OW 7813   0.651   3.168   8.924
35325SOL    HW1 7814   0.582   3.158   8.857
35325SOL    HW2 7815   0.706   3.090   8.913
35326SOL     OW 7816   1.040  14.659  14.240
35326SOL    HW1 7817   1.088  14.640  14.160
35326SOL    HW2 7818   1.103  14.705  14.296
35327SOL     OW 7819  11.856   0.544  14.433
35327SOL    HW1 7820  11.766   0.557  14.402
35327SOL    HW2 7821  11.886   0.466  14.387
35328SOL     OW 7822  10.172   5.088  14.448
35328SOL    HW1 7823  10.228   5.041  14.386
35328SOL    HW2 7824  10.233   5.134  14.506
35329SOL     OW 7825   1.950   6.587   5.951
35329SOL    HW1 7826   1.915   6.663   5.997
35329SOL    HW2 7827   2.038   6.613   5.923
35330SOL     OW 7828  14.806   0.588   5.829
35330SOL    HW1 7829  14.710   0.582   5.829
35330SOL    HW2 7830  14.824   0.676   5.795
35331SOL     OW 7831   1.413   0.173  11.660
35331SOL    HW1 7832   1.502   0.158  11.628
35331SOL    HW2 7833   1.395   0.098  11.717
35332SOL     OW 7834  10.995   4.556   7.315
35332SOL    HW1 7835  11.089   4.561   7.329
35332SOL    HW2 7836  10.958   4.618   7.377
35333SOL     OW 7837   6.990   0.722  12.857
35333SOL    HW1 7838   6.938   0.695  12.781
35333SOL    HW2 7839   6.925   0.742  12.924
35334SOL     OW 7840   3.010  10.756  13.241
35334SOL    HW1 7841   2.968  10.796  13.165
35334SOL    HW2 7842   3.074  10.695  13.204
35335SOL     OW 7843   2.891   2.560   5.603
35335SOL    HW1 7844   2.976   2.562   5.558
35335SOL    HW2 7845   2.839   2.497   5.553
35336SOL     OW 7846   1.262   2.037   1.854
35336SOL    HW1 7847   1.335   2.027   1.915
35336SOL    HW2 7848   1.230   2.126   1.869
35337SOL     OW 7849  13.943  14.802  12.162
35337SOL    HW1 7850  13.857  14.797  12.202
35337SOL    HW2 7851  13.981  14.715  12.175
35338SOL     OW 7852   8.720   1.528  14.025
35338SOL    HW1 7853   8.777   1.604  14.031
35338SOL    HW2 7854   8.648   1.556  13.968
35339SOL     OW 7855  10.663   3.839  13.641
35339SOL    HW1 7856  10.599   3.772  13.663
35339SOL    HW2 7857  10.614   3.904  13.591
35340SOL     OW 7858   8.953   6.305  13.308
35340SOL    HW1 7859   8.894   6.298  13.383
35340SOL    HW2 7860   8.935   6.392  13.273
35341SOL     OW 7861  10.342   8.206  10.068
35341SOL    HW1 7862  10.376   8.248  10.147
35341SOL    HW2 7863  10.276   8.145  10.100
35342SOL     OW 7864   8.586  12.787   4.549
35342SOL    HW1 7865   8.660  12.729   4.567
35342SOL    HW2 7866   8.520  12.730   4.509
35343SOL     OW 7867  14.310  13.462  12.898
35343SOL    HW1 7868  14.249  13.444  12.827
35343SOL    HW2 7869  14.254  13.475  12.975
35344SOL     OW 7870  14.040   4.381  11.407
35344SOL    HW1 7871  14.107   4.420  11.464
35344SOL    HW2 7872  13.961   4.378  11.461
35345SOL     OW 7873  10.417   3.061   2.615
35345SOL    HW1 7874  10.447   3.045   2.525
35345SOL    HW2 7875  10.398   2.975   2.650
35346SOL     OW 7876   1.221  12.555  12.489
35346SOL    HW1 7877   1.203  12.487  12.423
35346SOL    HW2 7878   1.182  12.634  12.452
35347SOL     OW 7879   6.990  13.787  13.476
35347SOL    HW1 7880   6.905  13.804  13.518
35347SOL    HW2 7881   7.031  13.721  13.533
35348SOL     OW 7882   4.155   0.192   9.604
35348SOL    HW1 7883   4.171   0.206   9.510
35348SOL    HW2 7884   4.242   0.180   9.641
35349SOL     OW 7885   7.117   6.653  14.742
35349SOL    HW1 7886   7.041   6.708  14.763
35349SOL    HW2 7887   7.143   6.681  14.654
35350SOL     OW 7888   8.613   6.873  12.987
35350SOL    HW1 7889   8.591   6.788  12.951
35350SOL    HW2 7890   8.700   6.861  13.025
35351SOL     OW 7891  10.328   9.509   0.344
35351SOL    HW1 7892  10.292   9.583   0.295
35351SOL    HW2 7893  10.376   9.549   0.416
35352SOL     OW 7894  13.186   5.838   3.041
35352SOL    HW1 7895  13.111   5.884   3.079
35352SOL    HW2 7896  13.183   5.859   2.948
35353SOL     OW 7897   9.243  12.625  12.972
35353SOL    HW1 7898   9.299  12.698  13.000
35353SOL    HW2 7899   9.170  12.668  12.927
35354SOL     OW 7900   0.309  11.374   6.885
35354SOL    HW1 7901   0.329  11.382   6.978
35354SOL    HW2 7902   0.214  11.366   6.881
35355SOL     OW 7903   5.328  10.236   8.562
35355SOL    HW1 7904   5.237  10.223   8.536
35355SOL    HW2 7905   5.323  10.300   8.633
35356SOL     OW 7906   5.186  13.986   3.047
35356SOL    HW1 7907   5.255  13.921   3.055
35356SOL    HW2 7908   5.114  13.953   3.100
35357SOL     OW 7909   2.491   3.219   9.131
35357SOL    HW1 7910   2.413   3.164   9.138
35357SOL    HW2 7911   2.468   3.285   9.066
35358SOL     OW 7912   4.255  14.478  12.596
35358SOL    HW1 7913   4.250  14.573  12.610
35358SOL    HW2 7914   4.335  14.452  12.642
35359SOL     OW 7915  13.259   5.109   9.074
35359SOL    HW1 7916  13.342   5.085   9.032
35359SOL    HW2 7917  13.247   5.043   9.142
35360SOL     OW 7918   3.767   1.996   1.233
35360SOL    HW1 7919   3.857   2.001   1.202
35360SOL    HW2 7920   3.772   1.947   1.315
35361SOL     OW 7921   7.757   5.938   8.592
35361SOL    HW1 7922   7.760   6.034   8.585
35361SOL    HW2 7923   7.757   5.920   8.686
35362SOL     OW 7924   8.731   7.775   6.804
35362SOL    HW1 7925   8.649   7.750   6.762
35362SOL    HW2 7926   8.713   7.769   6.898
35363SOL     OW 7927   6.999   0.129   2.887
35363SOL    HW1 7928   6.975   0.145   2.979
35363SOL    HW2 7929   6.927   0.167   2.837
35364SOL     OW 7930   7.063  12.282   7.263
35364SOL    HW1 7931   6.996  12.336   7.303
35364SOL    HW2 7932   7.064  12.202   7.314
35365SOL     OW 7933   2.615  14.597  11.367
35365SOL    HW1 7934   2.625  14.533  11.296
35365SOL    HW2 7935   2.574  14.547  11.438
35366SOL     OW 7936   7.702   6.809  12.441
35366SOL    HW1 7937   7.746   6.788  12.358
35366SOL    HW2 7938   7.670   6.898  12.430
35367SOL     OW 7939   0.599  13.048   2.661
35367SOL    HW1 7940   0.623  13.137   2.687
35367SOL    HW2 7941   0.641  13.036   2.576
35368SOL     OW 7942   7.809  14.085   7.328
35368SOL    HW1 7943   7.866  14.010   7.344
35368SOL    HW2 7944   7.867  14.161   7.336
35369SOL     OW 7945  14.549  12.285   0.832
35369SOL    HW1 7946  14.643  12.301   0.821
35369SOL    HW2 7947  14.537  12.194   0.802
35370SOL     OW 7948   5.333   1.763   0.460
35370SOL    HW1 7949   5.399   1.702   0.427
35370SOL    HW2 7950   5.263   1.761   0.394
35371SOL     OW 7951   2.496  10.299   4.218
35371SOL    HW1 7952   2.479  10.360   4.289
35371SOL    HW2 7953   2.417  10.246   4.213
35372SOL     OW 7954   4.868   3.839  14.228
35372SOL    HW1 7955   4.913   3.817  14.310
35372SOL    HW2 7956   4.938   3.857  14.165
35373SOL     OW 7957   1.097  10.294   4.580
35373SOL    HW1 7958   1.117  10.323   4.670
35373SOL    HW2 7959   1.182  10.284   4.539
35374SOL     OW 7960   4.085   5.515  13.764
35374SOL    HW1 7961   4.138   5.595  13.766
35374SOL    HW2 7962   4.024   5.528  13.692
35375SOL     OW 7963  14.617  12.293   5.692
35375SOL    HW1 7964  14.555  12.319   5.624
35375SOL    HW2 7965  14.588  12.341   5.770
35376SOL     OW 7966   1.750  14.572   9.642
35376SOL    HW1 7967   1.807  14.562   9.565
35376SOL    HW2 7968   1.807  14.606   9.710
35377SOL     OW 7969   0.026  11.341  14.201
35377SOL    HW1 7970   0.076  11.285  14.141
35377SOL    HW2 7971  14.818  11.358  14.156
35378SOL     OW 7972  14.653   2.168   1.962
35378SOL    HW1 7973  14.686   2.151   1.873
35378SOL    HW2 7974  14.668   2.262   1.975
35379SOL     OW 7975   9.078  14.092   5.381
35379SOL    HW1 7976   9.160  14.046   5.365
35379SOL    HW2 7977   9.055  14.070   5.472
35380SOL     OW 7978   2.777   3.233   7.107
35380SOL    HW1 7979   2.699   3.280   7.136
35380SOL    HW2 7980   2.756   3.140   7.121
35381SOL     OW 7981   1.630   7.364  10.076
35381SOL    HW1 7982   1.587   7.413  10.146
35381SOL    HW2 7983   1.559   7.343  10.015
35382SOL     OW 7984   9.275  14.782   9.439
35382SOL    HW1 7985   9.345  14.842   9.463
35382SOL    HW2 7986   9.291  14.763   9.346
35383SOL     OW 7987  12.349   4.900   2.017
35383SOL    HW1 7988  12.404   4.954   2.073
35383SOL    HW2 7989  12.409   4.837   1.977
35384SOL     OW 7990  10.731   3.989   1.436
35384SOL    HW1 7991  10.808   4.007   1.490
35384SOL    HW2 7992  10.736   3.895   1.419
35385SOL     OW 7993   2.096   5.465   1.361
35385SOL    HW1 7994   2.074   5.557   1.344
35385SOL    HW2 7995   2.165   5.468   1.427
35386SOL     OW 7996  14.610  14.449  10.089
35386SOL    HW1 7997  14.656  14.533  10.096
35386SOL    HW2 7998  14.674  14.389  10.051
35387SOL     OW 7999  13.073   6.977   8.440
35387SOL    HW1 8000  13.124   7.039   8.492
35387SOL    HW2 8001  13.054   7.024   8.359
35388SOL     OW 8002  12.473   4.946   0.119
35388SOL    HW1 8003  12.517   4.902   0.191
35388SOL    HW2 8004  12.512   5.033   0.117
35389SOL     OW 8005   8.724   5.969   8.350
35389SOL    HW1 8006   8.811   5.938   8.373
35389SOL    HW2 8007   8.735   6.013   8.265
35390SOL     OW 8008  13.944  12.255  14.730
35390SOL    HW1 8009  13.913  12.328  14.676
35390SOL    HW2 8010  13.886  12.255  14.806
35391SOL     OW 8011   0.406  13.748   0.046
35391SOL    HW1 8012   0.373  13.834   0.019
35391SOL    HW2 8013   0.462  13.720  14.847
35392SOL     OW 8014   0.443   8.601   7.085
35392SOL    HW1 8015   0.459   8.627   6.995
35392SOL    HW2 8016   0.378   8.531   7.079
35393SOL     OW 8017   7.233   7.374   4.208
35393SOL    HW1 8018   7.271   7.300   4.159
35393SOL    HW2 8019   7.283   7.450   4.179
35394SOL     OW 8020   1.448   2.776   8.595
35394SOL    HW1 8021   1.416   2.691   8.564
35394SOL    HW2 8022   1.369   2.826   8.613
35395SOL     OW 8023   7.201  11.911   4.930
35395SOL    HW1 8024   7.235  11.857   5.002
35395SOL    HW2 8025   7.166  11.989   4.973
35396SOL     OW 8026   9.945   1.379  12.075
35396SOL    HW1 8027   9.860   1.335  12.081
35396SOL    HW2 8028   9.966   1.377  11.982
35397SOL     OW 8029   3.253  13.056   6.405
35397SOL    HW1 8030   3.160  13.054   6.382
35397SOL    HW2 8031   3.254  13.070   6.500
35398SOL     OW 8032  14.459   6.289  14.566
35398SOL    HW1 8033  14.488   6.341  14.491
35398SOL    HW2 8034  14.393   6.230  14.530
35399SOL     OW 8035   4.437   5.791   8.346
35399SOL    HW1 8036   4.533   5.790   8.348
35399SOL    HW2 8037   4.414   5.834   8.264
35400SOL     OW 8038  13.575  14.167   8.093
35400SOL    HW1 8039  13.564  14.074   8.112
35400SOL    HW2 8040  13.665  14.175   8.063
35401SOL     OW 8041   9.287  13.610   5.774
35401SOL    HW1 8042   9.217  13.563   5.819
35401SOL    HW2 8043   9.323  13.547   5.712
35402SOL     OW 8044  13.145   0.079   1.501
35402SOL    HW1 8045  13.101   0.056   1.419
35402SOL    HW2 8046  13.182   0.165   1.485
35403SOL     OW 8047   5.718   4.753  13.528
35403SOL    HW1 8048   5.689   4.749  13.437
35403SOL    HW2 8049   5.680   4.834  13.562
35404SOL     OW 8050   2.054  14.586   9.000
35404SOL    HW1 8051   2.082  14.566   8.910
35404SOL    HW2 8052   1.962  14.559   9.003
35405SOL     OW 8053   2.757   6.338   1.123
35405SOL    HW1 8054   2.791   6.418   1.083
35405SOL    HW2 8055   2.744   6.362   1.215
35406SOL     OW 8056   5.535  14.790   6.530
35406SOL    HW1 8057   5.618  14.760   6.493
35406SOL    HW2 8058   5.469  14.761   6.467
35407SOL     OW 8059  13.463   6.510   6.517
35407SOL    HW1 8060  13.528   6.524   6.449
35407SOL    HW2 8061  13.382   6.545   6.480
35408SOL     OW 8062  11.218   4.066  12.050
35408SOL    HW1 8063  11.278   4.118  11.997
35408SOL    HW2 8064  11.220   4.107  12.136
35409SOL     OW 8065   3.204   9.787  14.576
35409SOL    HW1 8066   3.206   9.802  14.481
35409SOL    HW2 8067   3.168   9.868  14.613
35410SOL     OW 8068   2.763   1.592   8.850
35410SOL    HW1 8069   2.683   1.635   8.818
35410SOL    HW2 8070   2.815   1.576   8.771
35411SOL     OW 8071   6.188   0.596   2.101
35411SOL    HW1 8072   6.259   0.630   2.047
35411SOL    HW2 8073   6.211   0.622   2.191
35412SOL     OW 8074   1.240   6.630   3.766
35412SOL    HW1 8075   1.262   6.598   3.678
35412SOL    HW2 8076   1.151   6.598   3.781
35413SOL     OW 8077  12.193  11.920   9.370
35413SOL    HW1 8078  12.267  11.968   9.333
35413SOL    HW2 8079  12.196  11.940   9.464
35414SOL     OW 8080   7.435   6.566   1.334
35414SOL    HW1 8081   7.516   6.585   1.381
35414SOL    HW2 8082   7.401   6.652   1.309
35415SOL     OW 8083   0.988   7.533   8.936
35415SOL    HW1 8084   0.991   7.628   8.926
35415SOL    HW2 8085   0.995   7.500   8.846
35416SOL     OW 8086  12.842   9.285  14.165
35416SOL    HW1 8087  12.843   9.279  14.070
35416SOL    HW2 8088  12.929   9.314  14.189
35417SOL     OW 8089   4.165   6.167   1.947
35417SOL    HW1 8090   4.106   6.160   2.022
35417SOL    HW2 8091   4.114   6.134   1.873
35418SOL     OW 8092   9.981   9.403   8.694
35418SOL    HW1 8093   9.932   9.327   8.663
35418SOL    HW2 8094  10.061   9.403   8.642
35419SOL     OW 8095   7.571  11.055  13.773
35419SOL    HW1 8096   7.581  11.040  13.679
35419SOL    HW2 8097   7.657  11.088  13.801
35420SOL     OW 8098  10.216   9.938   3.246
35420SOL    HW1 8099  10.225   9.954   3.152
35420SOL    HW2 8100  10.283   9.993   3.287
35421SOL     OW 8101  14.501   5.894   8.249
35421SOL    HW1 8102  14.468   5.850   8.327
35421SOL    HW2 8103  14.522   5.983   8.278
35422SOL     OW 8104  13.719   8.568   1.657
35422SOL    HW1 8105  13.759   8.632   1.598
35422SOL    HW2 8106  13.722   8.610   1.743
35423SOL     OW 8107   3.184  14.070   1.396
35423SOL    HW1 8108   3.232  14.152   1.410
35423SOL    HW2 8109   3.186  14.058   1.301
35424SOL     OW 8110  10.675  12.671  11.907
35424SOL    HW1 8111  10.730  12.720  11.845
35424SOL    HW2 8112  10.680  12.721  11.988
35425SOL     OW 8113  14.693   4.977   7.518
35425SOL    HW1 8114  14.714   5.060   7.560
35425SOL    HW2 8115  14.683   4.999   7.425
35426SOL     OW 8116   2.452   5.669   8.326
35426SOL    HW1 8117   2.366   5.644   8.361
35426SOL    HW2 8118   2.481   5.740   8.384
35427SOL     OW 8119   8.859  14.506   3.732
35427SOL    HW1 8120   8.841  14.593   3.698
35427SOL    HW2 8121   8.952  14.506   3.755
35428SOL     OW 8122   1.310   9.983  11.179
35428SOL    HW1 8123   1.328  10.038  11.102
35428SOL    HW2 8124   1.233  10.023  11.219
35429SOL     OW 8125   0.714  11.090   5.833
35429SOL    HW1 8126   0.766  11.121   5.758
35429SOL    HW2 8127   0.743  11.000   5.847
35430SOL     OW 8128   0.922   7.302  14.669
35430SOL    HW1 8129   0.926   7.332  14.760
35430SOL    HW2 8130   0.868   7.368  14.625
35431SOL     OW 8131   8.119   7.091   8.836
35431SOL    HW1 8132   8.082   7.169   8.793
35431SOL    HW2 8133   8.049   7.060   8.893
35432SOL     OW 8134   9.005   8.365  10.846
35432SOL    HW1 8135   9.060   8.437  10.814
35432SOL    HW2 8136   8.927   8.368  10.791
35433SOL     OW 8137   6.409  12.181   8.613
35433SOL    HW1 8138   6.347  12.174   8.540
35433SOL    HW2 8139   6.495  12.178   8.570
35434SOL     OW 8140  11.491  14.636   4.980
35434SOL    HW1 8141  11.488  14.617   4.887
35434SOL    HW2 8142  11.507  14.551   5.022
35435SOL     OW 8143  13.087   4.268  11.296
35435SOL    HW1 8144  13.159   4.290  11.237
35435SOL    HW2 8145  13.125   4.207  11.359
35436SOL     OW 8146  10.591   2.727   7.143
35436SOL    HW1 8147  10.664   2.776   7.181
35436SOL    HW2 8148  10.599   2.640   7.181
35437SOL     OW 8149   3.209   6.375   3.356
35437SOL    HW1 8150   3.194   6.433   3.281
35437SOL    HW2 8151   3.285   6.413   3.400
35438SOL     OW 8152   4.791   9.510   3.453
35438SOL    HW1 8153   4.704   9.491   3.417
35438SOL    HW2 8154   4.821   9.426   3.487
35439SOL     OW 8155  10.151  12.721  10.378
35439SOL    HW1 8156  10.231  12.704  10.328
35439SOL    HW2 8157  10.105  12.637  10.381
35440SOL     OW 8158   6.907   1.893  14.344
35440SOL    HW1 8159   6.872   1.832  14.280
35440SOL    HW2 8160   6.840   1.961  14.351
35441SOL     OW 8161   1.437   8.498   9.991
35441SOL    HW1 8162   1.505   8.556  10.024
35441SOL    HW2 8163   1.382   8.555   9.937
35442SOL     OW 8164  12.497   5.643   3.481
35442SOL    HW1 8165  12.457   5.557   3.471
35442SOL    HW2 8166  12.472   5.670   3.570
35443SOL     OW 8167   3.349   4.920   0.492
35443SOL    HW1 8168   3.411   4.975   0.443
35443SOL    HW2 8169   3.382   4.831   0.481
35444SOL     OW 8170  11.441   4.656  14.178
35444SOL    HW1 8171  11.512   4.711  14.146
35444SOL    HW2 8172  11.480   4.604  14.248
35445SOL     OW 8173   9.751  12.672   2.610
35445SOL    HW1 8174   9.842  12.642   2.608
35445SOL    HW2 8175   9.742  12.716   2.694
35446SOL     OW 8176  14.003   1.854   0.037
35446SOL    HW1 8177  14.038   1.917   0.100
35446SOL    HW2 8178  14.033   1.769   0.070
35447SOL     OW 8179   1.735   8.427  12.402
35447SOL    HW1 8180   1.735   8.450  12.495
35447SOL    HW2 8181   1.811   8.369  12.392
35448SOL     OW 8182  12.027   3.013   3.586
35448SOL    HW1 8183  11.937   3.027   3.612
35448SOL    HW2 8184  12.079   3.040   3.661
35449SOL     OW 8185  13.971   6.373   9.204
35449SOL    HW1 8186  14.024   6.421   9.140
35449SOL    HW2 8187  13.916   6.439   9.245
35450SOL     OW 8188  12.740   5.234  10.775
35450SOL    HW1 8189  12.733   5.305  10.712
35450SOL    HW2 8190  12.708   5.156  10.729
35451SOL     OW 8191  13.156   4.629   2.064
35451SOL    HW1 8192  13.250   4.608   2.062
35451SOL    HW2 8193  13.154   4.725   2.064
35452SOL     OW 8194   4.419   1.442   4.342
35452SOL    HW1 8195   4.365   1.364   4.328
35452SOL    HW2 8196   4.439   1.474   4.254
35453SOL     OW 8197  14.232   1.659   1.402
35453SOL    HW1 8198  14.249   1.706   1.484
35453SOL    HW2 8199  14.230   1.567   1.427
35454SOL     OW 8200  13.372   1.389   3.958
35454SOL    HW1 8201  13.315   1.390   3.882
35454SOL    HW2 8202  13.424   1.309   3.948
35455SOL     OW 8203  12.562   9.848   8.744
35455SOL    HW1 8204  12.538   9.933   8.709
35455SOL    HW2 8205  12.565   9.791   8.667
35456SOL     OW 8206  13.562  13.132   8.655
35456SOL    HW1 8207  13.620  13.065   8.618
35456SOL    HW2 8208  13.579  13.129   8.749
35457SOL     OW 8209  12.223   6.827   1.580
35457SOL    HW1 8210  12.130   6.843   1.564
35457SOL    HW2 8211  12.268   6.901   1.540
35458SOL     OW 8212   3.514   3.457  12.862
35458SOL    HW1 8213   3.551   3.522  12.802
35458SOL    HW2 8214   3.430   3.494  12.889
35459SOL     OW 8215  10.584   1.462   0.531
35459SOL    HW1 8216  10.497   1.449   0.496
35459SOL    HW2 8217  10.614   1.374   0.555
35460SOL     OW 8218  14.310   1.739   2.401
35460SOL    HW1 8219  14.313   1.813   2.462
35460SOL    HW2 8220  14.370   1.763   2.331
35461SOL     OW 8221   8.326   1.541   0.656
35461SOL    HW1 8222   8.344   1.491   0.736
35461SOL    HW2 8223   8.407   1.535   0.605
35462SOL     OW 8224  13.927  10.979   7.824
35462SOL    HW1 8225  13.933  11.033   7.745
35462SOL    HW2 8226  13.846  11.007   7.866
35463SOL     OW 8227   5.716  11.790   0.874
35463SOL    HW1 8228   5.666  11.867   0.847
35463SOL    HW2 8229   5.651  11.720   0.876
35464SOL     OW 8230  11.480   6.194   5.288
35464SOL    HW1 8231  11.471   6.139   5.210
35464SOL    HW2 8232  11.547   6.258   5.264
35465SOL     OW 8233   8.112   3.738   3.346
35465SOL    HW1 8234   8.025   3.696   3.347
35465SOL    HW2 8235   8.106   3.806   3.413
35466SOL     OW 8236  14.074   3.650   1.713
35466SOL    HW1 8237  14.016   3.578   1.688
35466SOL    HW2 8238  14.135   3.658   1.640
35467SOL     OW 8239   7.472   5.201   4.303
35467SOL    HW1 8240   7.528   5.139   4.350
35467SOL    HW2 8241   7.437   5.151   4.230
35468SOL     OW 8242   9.763   7.369  12.211
35468SOL    HW1 8243   9.772   7.458  12.247
35468SOL    HW2 8244   9.837   7.360  12.152
35469SOL     OW 8245   8.401  14.017  12.088
35469SOL    HW1 8246   8.324  14.075  12.082
35469SOL    HW2 8247   8.399  13.966  12.007
35470SOL     OW 8248   1.095   2.232  12.987
35470SOL    HW1 8249   1.167   2.215  13.048
35470SOL    HW2 8250   1.039   2.294  13.034
35471SOL     OW 8251  14.002   8.728  14.766
35471SOL    HW1 8252  14.045   8.810  14.742
35471SOL    HW2 8253  13.975   8.741  14.857
35472SOL     OW 8254   0.606   8.935   9.840
35472SOL    HW1 8255   0.581   8.905   9.753
35472SOL    HW2 8256   0.648   9.020   9.825
35473SOL     OW 8257  10.529   7.407  12.008
35473SOL    HW1 8258  10.598   7.343  12.023
35473SOL    HW2 8259  10.572   7.492  12.020
35474SOL     OW 8260  11.067  13.784  10.014
35474SOL    HW1 8261  11.003  13.717  10.036
35474SOL    HW2 8262  11.085  13.770   9.921
35475SOL     OW 8263  14.517   6.305   2.181
35475SOL    HW1 8264  14.525   6.225   2.129
35475SOL    HW2 8265  14.511   6.273   2.272
35476SOL     OW 8266  14.653  11.420   4.353
35476SOL    HW1 8267  14.681  11.342   4.304
35476SOL    HW2 8268  14.665  11.492   4.291
35477SOL     OW 8269   5.994   4.060  11.983
35477SOL    HW1 8270   6.000   3.996  11.912
35477SOL    HW2 8271   5.901   4.077  11.992
35478SOL     OW 8272   6.848  12.378  13.631
35478SOL    HW1 8273   6.864  12.345  13.719
35478SOL    HW2 8274   6.909  12.330  13.575
35479SOL     OW 8275   1.596   7.360   5.729
35479SOL    HW1 8276   1.606   7.265   5.735
35479SOL    HW2 8277   1.561   7.386   5.814
35480SOL     OW 8278   8.460   3.964   7.738
35480SOL    HW1 8279   8.555   3.958   7.725
35480SOL    HW2 8280   8.428   4.007   7.659
35481SOL     OW 8281  10.777   9.780   3.340
35481SOL    HW1 8282  10.758   9.768   3.246
35481SOL    HW2 8283  10.811   9.870   3.346
35482SOL     OW 8284  14.634   6.266   6.178
35482SOL    HW1 8285  14.640   6.182   6.223
35482SOL    HW2 8286  14.540   6.278   6.161
35483SOL     OW 8287  12.759   4.249   6.497
35483SOL    HW1 8288  12.710   4.280   6.421
35483SOL    HW2 8289  12.843   4.295   6.492
35484SOL     OW 8290   5.895   6.251   1.876
35484SOL    HW1 8291   5.810   6.218   1.846
35484SOL    HW2 8292   5.888   6.346   1.869
35485SOL     OW 8293   0.750   0.767   9.275
35485SOL    HW1 8294   0.747   0.863   9.271
35485SOL    HW2 8295   0.839   0.748   9.304
35486SOL     OW 8296   0.109   9.943  10.696
35486SOL    HW1 8297   0.068  10.025  10.725
35486SOL    HW2 8298   0.037   9.880  10.695
35487SOL     OW 8299  10.626   3.945  12.969
35487SOL    HW1 8300  10.613   4.024  12.916
35487SOL    HW2 8301  10.581   3.963  13.051
35488SOL     OW 8302  14.018   4.243  14.103
35488SOL    HW1 8303  14.029   4.195  14.021
35488SOL    HW2 8304  14.096   4.297  14.110
35489SOL     OW 8305   3.455  11.552   8.495
35489SOL    HW1 8306   3.408  11.476   8.460
35489SOL    HW2 8307   3.480  11.526   8.584
35490SOL     OW 8308   5.096   6.764   6.575
35490SOL    HW1 8309   5.095   6.723   6.662
35490SOL    HW2 8310   5.068   6.854   6.590
35491SOL     OW 8311   6.619   2.543  12.501
35491SOL    HW1 8312   6.623   2.598  12.423
35491SOL    HW2 8313   6.708   2.510  12.511
35492SOL     OW 8314  13.748  12.808   2.096
35492SOL    HW1 8315  13.717  12.819   2.186
35492SOL    HW2 8316  13.712  12.723   2.068
35493SOL     OW 8317   0.224  12.600   9.414
35493SOL    HW1 8318   0.139  12.602   9.459
35493SOL    HW2 8319   0.208  12.642   9.330
35494SOL     OW 8320   1.262   4.966   1.757
35494SOL    HW1 8321   1.200   5.026   1.798
35494SOL    HW2 8322   1.318   4.936   1.828
35495SOL     OW 8323   8.741  10.735   2.588
35495SOL    HW1 8324   8.810  10.759   2.650
35495SOL    HW2 8325   8.698  10.659   2.627
35496SOL     OW 8326  13.583   0.237  11.943
35496SOL    HW1 8327  13.504   0.282  11.971
35496SOL    HW2 8328  13.618   0.289  11.871
35497SOL     OW 8329  12.484   6.035  10.223
35497SOL    HW1 8330  12.486   6.107  10.286
35497SOL    HW2 8331  12.529   5.963  10.267
35498SOL     OW 8332  12.601   8.594   8.448
35498SOL    HW1 8333  12.511   8.564   8.465
35498SOL    HW2 8334  12.611   8.585   8.353
35499SOL     OW 8335   2.016  10.379   1.644
35499SOL    HW1 8336   2.097  10.360   1.597
35499SOL    HW2 8337   1.998  10.471   1.625
35500SOL     OW 8338  12.539  11.299   3.266
35500SOL    HW1 8339  12.447  11.310   3.289
35500SOL    HW2 8340  12.541  11.220   3.211
35501SOL     OW 8341   3.600  12.333   9.958
35501SOL    HW1 8342   3.567  12.249   9.989
35501SOL    HW2 8343   3.694  12.320   9.949
35502SOL     OW 8344  12.701   1.180   2.090
35502SOL    HW1 8345  12.730   1.100   2.045
35502SOL    HW2 8346  12.607   1.167   2.103
35503SOL     OW 8347   1.760  10.696   2.802
35503SOL    HW1 8348   1.834  10.637   2.815
35503SOL    HW2 8349   1.693  10.641   2.761
35504SOL     OW 8350   9.453  14.406   2.585
35504SOL    HW1 8351   9.360  14.381   2.583
35504SOL    HW2 8352   9.455  14.493   2.544
35505SOL     OW 8353   2.481  11.818  12.436
35505SOL    HW1 8354   2.392  11.798  12.408
35505SOL    HW2 8355   2.471  11.874  12.512
35506SOL     OW 8356   2.673  12.681   9.760
35506SOL    HW1 8357   2.638  12.770   9.766
35506SOL    HW2 8358   2.661  12.656   9.669
35507SOL     OW 8359   3.517   5.356  11.233
35507SOL    HW1 8360   3.601   5.401  11.224
35507SOL    HW2 8361   3.539   5.271  11.270
35508SOL     OW 8362   7.302   8.753   5.875
35508SOL    HW1 8363   7.251   8.704   5.810
35508SOL    HW2 8364   7.375   8.695   5.896
35509SOL     OW 8365   0.335  10.171   4.343
35509SOL    HW1 8366   0.314  10.196   4.253
35509SOL    HW2 8367   0.421  10.209   4.358
35510SOL     OW 8368   9.514   6.131   6.290
35510SOL    HW1 8369   9.460   6.099   6.218
35510SOL    HW2 8370   9.452   6.153   6.359
35511SOL     OW 8371   0.649   3.353   5.241
35511SOL    HW1 8372   0.643   3.380   5.149
35511SOL    HW2 8373   0.678   3.432   5.287
35512SOL     OW 8374   8.987   5.707   2.762
35512SOL    HW1 8375   9.052   5.659   2.711
35512SOL    HW2 8376   9.028   5.791   2.780
35513SOL     OW 8377  12.241  13.029  14.765
35513SOL    HW1 8378  12.275  13.049  14.677
35513SOL    HW2 8379  12.189  12.950  14.752
35514SOL     OW 8380   2.001   4.575   5.955
35514SOL    HW1 8381   2.016   4.542   6.043
35514SOL    HW2 8382   2.087   4.603   5.924
35515SOL     OW 8383   0.785  10.768  11.155
35515SOL    HW1 8384   0.735  10.845  11.127
35515SOL    HW2 8385   0.813  10.726  11.074
35516SOL     OW 8386  10.012   5.331   8.740
35516SOL    HW1 8387  10.022   5.289   8.654
35516SOL    HW2 8388  10.094   5.313   8.785
35517SOL     OW 8389   2.308   6.092   8.888
35517SOL    HW1 8390   2.394   6.134   8.893
35517SOL    HW2 8391   2.265   6.116   8.970
35518SOL     OW 8392  10.443   1.824   8.238
35518SOL    HW1 8393  10.405   1.853   8.155
35518SOL    HW2 8394  10.458   1.730   8.227
35519SOL     OW 8395   0.149   6.529  13.070
35519SOL    HW1 8396   0.244   6.527  13.060
35519SOL    HW2 8397   0.117   6.559  12.985
35520SOL     OW 8398  10.038   7.471   0.819
35520SOL    HW1 8399  10.106   7.477   0.886
35520SOL    HW2 8400   9.957   7.491   0.865
35521SOL     OW 8401  14.137   8.344  12.131
35521SOL    HW1 8402  14.187   8.273  12.172
35521SOL    HW2 8403  14.168   8.346  12.040
35522SOL     OW 8404  10.141   8.320  13.895
35522SOL    HW1 8405  10.127   8.282  13.808
35522SOL    HW2 8406  10.064   8.294  13.945
35523SOL     OW 8407  13.946   9.589  11.829
35523SOL    HW1 8408  13.943   9.507  11.878
35523SOL    HW2 8409  13.992   9.567  11.748
35524SOL     OW 8410   6.186  14.391  12.791
35524SOL    HW1 8411   6.255  14.457  12.790
35524SOL    HW2 8412   6.201  14.342  12.873
35525SOL     OW 8413   4.657   3.255  11.814
35525SOL    HW1 8414   4.599   3.323  11.781
35525SOL    HW2 8415   4.726   3.303  11.861
35526SOL     OW 8416   5.137   2.594   3.882
35526SOL    HW1 8417   5.130   2.675   3.831
35526SOL    HW2 8418   5.182   2.621   3.962
35527SOL     OW 8419   3.039   3.344  12.702
35527SOL    HW1 8420   3.040   3.262  12.652
35527SOL    HW2 8421   3.124   3.385  12.682
35528SOL     OW 8422   1.446   1.479  14.253
35528SOL    HW1 8423   1.361   1.487  14.294
35528SOL    HW2 8424   1.428   1.485  14.159
35529SOL     OW 8425  11.556   1.163   6.017
35529SOL    HW1 8426  11.517   1.076   6.032
35529SOL    HW2 8427  11.601   1.183   6.099
35530SOL     OW 8428   3.233   3.457   7.429
35530SOL    HW1 8429   3.158   3.425   7.379
35530SOL    HW2 8430   3.281   3.377   7.454
35531SOL     OW 8431   2.261  12.440  11.953
35531SOL    HW1 8432   2.225  12.513  12.004
35531SOL    HW2 8433   2.356  12.448  11.963
35532SOL     OW 8434   8.591  13.097   8.558
35532SOL    HW1 8435   8.514  13.132   8.601
35532SOL    HW2 8436   8.650  13.071   8.629
35533SOL     OW 8437  12.044  12.208   7.617
35533SOL    HW1 8438  12.108  12.155   7.664
35533SOL    HW2 8439  12.022  12.155   7.540
35534SOL     OW 8440  10.513   4.645   3.361
35534SOL    HW1 8441  10.461   4.565   3.372
35534SOL    HW2 8442  10.594   4.616   3.320
35535SOL     OW 8443  12.358  12.830   7.534
35535SOL    HW1 8444  12.298  12.858   7.465
35535SOL    HW2 8445  12.336  12.738   7.549
35536SOL     OW 8446  11.342   9.451   5.548
35536SOL    HW1 8447  11.370   9.483   5.462
35536SOL    HW2 8448  11.257   9.492   5.562
35537SOL     OW 8449   2.851   5.723   8.300
35537SOL    HW1 8450   2.786   5.790   8.281
35537SOL    HW2 8451   2.816   5.643   8.262
35538SOL     OW 8452   6.248   0.181   5.082
35538SOL    HW1 8453   6.299   0.118   5.134
35538SOL    HW2 8454   6.229   0.252   5.143
35539SOL     OW 8455   6.269   2.171   2.135
35539SOL    HW1 8456   6.183   2.209   2.148
35539SOL    HW2 8457   6.297   2.203   2.050
35540SOL     OW 8458   6.689   7.111   2.674
35540SOL    HW1 8459   6.629   7.145   2.608
35540SOL    HW2 8460   6.654   7.145   2.757
35541SOL     OW 8461   1.679   6.279   6.968
35541SOL    HW1 8462   1.758   6.238   6.932
35541SOL    HW2 8463   1.676   6.250   7.059
35542SOL     OW 8464   2.599   7.185  13.848
35542SOL    HW1 8465   2.691   7.174  13.872
35542SOL    HW2 8466   2.597   7.175  13.753
35543SOL     OW 8467   1.318   0.236   3.234
35543SOL    HW1 8468   1.306   0.151   3.193
35543SOL    HW2 8469   1.291   0.299   3.167
35544SOL     OW 8470   1.249   6.175   6.367
35544SOL    HW1 8471   1.341   6.202   6.367
35544SOL    HW2 8472   1.247   6.096   6.422
35545SOL     OW 8473  13.936   9.921   2.204
35545SOL    HW1 8474  13.849   9.937   2.242
35545SOL    HW2 8475  13.977  10.007   2.202
35546SOL     OW 8476   1.340   7.137   3.384
35546SOL    HW1 8477   1.300   7.170   3.464
35546SOL    HW2 8478   1.266   7.126   3.323
35547SOL     OW 8479  11.472   1.435  13.755
35547SOL    HW1 8480  11.434   1.523  13.763
35547SOL    HW2 8481  11.566   1.450  13.751
35548SOL     OW 8482  12.388  12.832   9.977
35548SOL    HW1 8483  12.350  12.805   9.894
35548SOL    HW2 8484  12.462  12.888   9.953
35549SOL     OW 8485   7.914   8.821   1.001
35549SOL    HW1 8486   7.833   8.775   1.022
35549SOL    HW2 8487   7.909   8.836   0.907
35550SOL     OW 8488   3.252   5.643  12.892
35550SOL    HW1 8489   3.252   5.607  12.803
35550SOL    HW2 8490   3.322   5.596  12.937
35551SOL     OW 8491  14.476  12.900  11.096
35551SOL    HW1 8492  14.562  12.905  11.055
35551SOL    HW2 8493  14.414  12.908  11.024
35552SOL     OW 8494   3.113   5.691   7.560
35552SOL    HW1 8495   3.151   5.774   7.532
35552SOL    HW2 8496   3.059   5.713   7.635
35553SOL     OW 8497  12.193  11.801  12.065
35553SOL    HW1 8498  12.276  11.839  12.036
35553SOL    HW2 8499  12.126  11.860  12.028
35554SOL     OW 8500   2.749   0.554   8.645
35554SOL    HW1 8501   2.675   0.518   8.695
35554SOL    HW2 8502   2.711   0.627   8.597
35555SOL     OW 8503   9.739   6.332  11.498
35555SOL    HW1 8504   9.721   6.238  11.498
35555SOL    HW2 8505   9.763   6.351  11.589
35556SOL     OW 8506  12.555   7.591  11.121
35556SOL    HW1 8507  12.603   7.532  11.180
35556SOL    HW2 8508  12.463   7.577  11.143
35557SOL     OW 8509   7.330   1.339  11.483
35557SOL    HW1 8510   7.381   1.259  11.492
35557SOL    HW2 8511   7.258   1.329  11.546
35558SOL     OW 8512  13.827  13.156   6.536
35558SOL    HW1 8513  13.783  13.072   6.522
35558SOL    HW2 8514  13.792  13.213   6.468
35559SOL     OW 8515  14.014   8.214   5.022
35559SOL    HW1 8516  14.018   8.119   5.011
35559SOL    HW2 8517  14.091   8.247   4.976
35560SOL     OW 8518  12.908  12.073  14.422
35560SOL    HW1 8519  12.965  12.008  14.464
35560SOL    HW2 8520  12.955  12.155  14.432
35561SOL     OW 8521   2.591  14.403   7.161
35561SOL    HW1 8522   2.617  14.340   7.228
35561SOL    HW2 8523   2.525  14.358   7.109
35562SOL     OW 8524  14.580   8.124   0.548
35562SOL    HW1 8525  14.583   8.056   0.480
35562SOL    HW2 8526  14.569   8.076   0.630
35563SOL     OW 8527   7.144   8.852   6.063
35563SOL    HW1 8528   7.168   8.814   6.147
35563SOL    HW2 8529   7.217   8.829   6.005
35564SOL     OW 8530   5.381  12.246  10.002
35564SOL    HW1 8531   5.468  12.243  10.042
35564SOL    HW2 8532   5.325  12.284  10.070
35565SOL     OW 8533   7.272  12.205   9.283
35565SOL    HW1 8534   7.324  12.251   9.349
35565SOL    HW2 8535   7.205  12.269   9.257
35566SOL     OW 8536  11.138  10.454  10.572
35566SOL    HW1 8537  11.217  10.477  10.622
35566SOL    HW2 8538  11.111  10.536  10.530
35567SOL     OW 8539  12.120   6.950  14.448
35567SOL    HW1 8540  12.094   6.963  14.539
35567SOL    HW2 8541  12.200   7.001  14.437
35568SOL     OW 8542   3.295   8.152   1.935
35568SOL    HW1 8543   3.213   8.193   1.962
35568SOL    HW2 8544   3.281   8.059   1.949
35569SOL     OW 8545  10.123   8.688   0.921
35569SOL    HW1 8546  10.204   8.665   0.966
35569SOL    HW2 8547  10.090   8.606   0.887
35570SOL     OW 8548  11.965  13.075   1.628
35570SOL    HW1 8549  11.873  13.100   1.635
35570SOL    HW2 8550  11.976  13.049   1.536
35571SOL     OW 8551  10.211   8.747   4.407
35571SOL    HW1 8552  10.221   8.657   4.438
35571SOL    HW2 8553  10.147   8.741   4.335
35572SOL     OW 8554  12.597  14.148   2.912
35572SOL    HW1 8555  12.666  14.214   2.919
35572SOL    HW2 8556  12.601  14.100   2.994
35573SOL     OW 8557   4.106   5.587   2.422
35573SOL    HW1 8558   4.102   5.644   2.500
35573SOL    HW2 8559   4.128   5.501   2.457
35574SOL     OW 8560  10.360   8.717   0.344
35574SOL    HW1 8561  10.417   8.696   0.270
35574SOL    HW2 8562  10.373   8.645   0.405
35575SOL     OW 8563  14.144   1.006   6.699
35575SOL    HW1 8564  14.128   1.045   6.785
35575SOL    HW2 8565  14.163   0.914   6.719
35576SOL     OW 8566   6.095   2.184   9.539
35576SOL    HW1 8567   6.180   2.169   9.582
35576SOL    HW2 8568   6.104   2.270   9.498
35577SOL     OW 8569  12.162   3.270   4.698
35577SOL    HW1 8570  12.192   3.183   4.669
35577SOL    HW2 8571  12.186   3.329   4.626
35578SOL     OW 8572   5.017   8.920   3.645
35578SOL    HW1 8573   5.072   8.863   3.699
35578SOL    HW2 8574   4.929   8.882   3.652
35579SOL     OW 8575   7.366  14.746   2.033
35579SOL    HW1 8576   7.316  14.756   1.951
35579SOL    HW2 8577   7.457  14.757   2.006
35580SOL     OW 8578   9.989   5.531   0.764
35580SOL    HW1 8579  10.077   5.568   0.765
35580SOL    HW2 8580   9.936   5.595   0.811
35581SOL     OW 8581  12.468   7.052  11.747
35581SOL    HW1 8582  12.384   7.097  11.757
35581SOL    HW2 8583  12.508   7.057  11.834
35582SOL     OW 8584   1.313  10.570  13.123
35582SOL    HW1 8585   1.306  10.507  13.195
35582SOL    HW2 8586   1.268  10.648  13.155
35583SOL     OW 8587   0.956   0.045  12.479
35583SOL    HW1 8588   0.893   0.112  12.452
35583SOL    HW2 8589   0.901  14.850  12.517
35584SOL     OW 8590  13.203   2.584  14.105
35584SOL    HW1 8591  13.141   2.512  14.119
35584SOL    HW2 8592  13.218   2.584  14.011
35585SOL     OW 8593  11.760   0.318  10.399
35585SOL    HW1 8594  11.762   0.381  10.326
35585SOL    HW2 8595  11.711   0.244  10.364
35586SOL     OW 8596   0.185  13.352   1.361
35586SOL    HW1 8597   0.198  13.258   1.375
35586SOL    HW2 8598   0.234  13.393   1.432
35587SOL     OW 8599   9.483  13.912   6.174
35587SOL    HW1 8600   9.460  13.836   6.121
35587SOL    HW2 8601   9.560  13.950   6.130
35588SOL     OW 8602   2.231   3.560  10.657
35588SOL    HW1 8603   2.301   3.621  10.682
35588SOL    HW2 8604   2.251   3.535  10.567
35589SOL     OW 8605   6.511  13.092   3.031
35589SOL    HW1 8606   6.430  13.061   2.989
35589SOL    HW2 8607   6.482  13.132   3.113
35590SOL     OW 8608   1.540  12.042  12.530
35590SOL    HW1 8609   1.545  12.076  12.619
35590SOL    HW2 8610   1.628  12.052  12.495
35591SOL     OW 8611  13.131   2.625   6.167
35591SOL    HW1 8612  13.201   2.643   6.230
35591SOL    HW2 8613  13.116   2.709   6.123
35592SOL     OW 8614   4.496  11.035   1.730
35592SOL    HW1 8615   4.491  11.124   1.766
35592SOL    HW2 8616   4.405  11.006   1.724
35593SOL     OW 8617   2.944  13.899   6.851
35593SOL    HW1 8618   3.002  13.871   6.781
35593SOL    HW2 8619   2.876  13.832   6.855
35594SOL     OW 8620   0.357   5.262   2.688
35594SOL    HW1 8621   0.328   5.285   2.776
35594SOL    HW2 8622   0.431   5.203   2.701
35595SOL     OW 8623   6.458   6.529   2.871
35595SOL    HW1 8624   6.446   6.488   2.957
35595SOL    HW2 8625   6.532   6.588   2.884
35596SOL     OW 8626  10.354   8.722   8.591
35596SOL    HW1 8627  10.304   8.801   8.613
35596SOL    HW2 8628  10.429   8.755   8.541
35597SOL     OW 8629   0.195  11.509   4.797
35597SOL    HW1 8630   0.110  11.552   4.787
35597SOL    HW2 8631   0.224  11.534   4.885
35598SOL     OW 8632  10.273  10.008  12.293
35598SOL    HW1 8633  10.276   9.985  12.386
35598SOL    HW2 8634  10.290   9.925  12.247
35599SOL     OW 8635   3.873  11.401   4.895
35599SOL    HW1 8636   3.960  11.380   4.861
35599SOL    HW2 8637   3.851  11.484   4.854
35600SOL     OW 8638  13.449   9.538  14.180
35600SOL    HW1 8639  13.477   9.535  14.272
35600SOL    HW2 8640  13.394   9.616  14.175
35601SOL     OW 8641   9.388  11.063  12.711
35601SOL    HW1 8642   9.333  11.141  12.724
35601SOL    HW2 8643   9.465  11.079  12.765
35602SOL     OW 8644  14.131  12.660   2.822
35602SOL    HW1 8645  14.115  12.729   2.757
35602SOL    HW2 8646  14.190  12.599   2.777
35603SOL     OW 8647   9.025  10.325   6.891
35603SOL    HW1 8648   9.076  10.261   6.843
35603SOL    HW2 8649   9.054  10.317   6.981
35604SOL     OW 8650   6.277   3.231   1.259
35604SOL    HW1 8651   6.314   3.237   1.171
35604SOL    HW2 8652   6.309   3.147   1.293
35605SOL     OW 8653  10.699  11.843   1.030
35605SOL    HW1 8654  10.609  11.875   1.020
35605SOL    HW2 8655  10.727  11.877   1.115
35606SOL     OW 8656   5.713   3.722   6.403
35606SOL    HW1 8657   5.783   3.666   6.369
35606SOL    HW2 8658   5.744   3.811   6.387
35607SOL     OW 8659  14.236   7.258  11.455
35607SOL    HW1 8660  14.329   7.243  11.473
35607SOL    HW2 8661  14.200   7.171  11.439
35608SOL     OW 8662  10.180   2.121   1.211
35608SOL    HW1 8663  10.259   2.166   1.181
35608SOL    HW2 8664  10.114   2.144   1.146
35609SOL     OW 8665   7.701  10.764  10.449
35609SOL    HW1 8666   7.636  10.828  10.478
35609SOL    HW2 8667   7.683  10.686  10.501
35610SOL     OW 8668   9.810   9.597  13.679
35610SOL    HW1 8669   9.844   9.678  13.642
35610SOL    HW2 8670   9.722   9.619  13.711
35611SOL     OW 8671   9.723  14.629   2.369
35611SOL    HW1 8672   9.655  14.612   2.305
35611SOL    HW2 8673   9.695  14.581   2.447
35612SOL     OW 8674   0.055   2.221  14.035
35612SOL    HW1 8675   0.143   2.237  14.069
35612SOL    HW2 8676  14.871   2.232  14.111
35613SOL     OW 8677  10.564   9.028   5.489
35613SOL    HW1 8678  10.502   9.033   5.561
35613SOL    HW2 8679  10.553   9.112   5.443
35614SOL     OW 8680   4.956  14.734   2.412
35614SOL    HW1 8681   4.959  14.643   2.440
35614SOL    HW2 8682   4.891  14.736   2.342
35615SOL     OW 8683   0.403   3.296   2.323
35615SOL    HW1 8684   0.450   3.269   2.401
35615SOL    HW2 8685   0.322   3.245   2.325
35616SOL     OW 8686  13.345   3.648   5.378
35616SOL    HW1 8687  13.284   3.575   5.390
35616SOL    HW2 8688  13.369   3.644   5.285
35617SOL     OW 8689   1.579   8.010  10.856
35617SOL    HW1 8690   1.576   7.946  10.785
35617SOL    HW2 8691   1.490   8.047  10.858
35618SOL     OW 8692   9.295   9.884   6.691
35618SOL    HW1 8693   9.253   9.798   6.690
35618SOL    HW2 8694   9.228   9.943   6.658
35619SOL     OW 8695   7.772   4.713   4.867
35619SOL    HW1 8696   7.777   4.799   4.824
35619SOL    HW2 8697   7.678   4.696   4.876
35620SOL     OW 8698   5.531  10.061   6.514
35620SOL    HW1 8699   5.528  10.062   6.609
35620SOL    HW2 8700   5.539   9.968   6.491
35621SOL     OW 8701  12.519   9.875   5.383
35621SOL    HW1 8702  12.506   9.969   5.369
35621SOL    HW2 8703  12.597   9.854   5.332
35622SOL     OW 8704   4.442   2.285   8.631
35622SOL    HW1 8705   4.479   2.197   8.631
35622SOL    HW2 8706   4.516   2.342   8.609
35623SOL     OW 8707   8.619  10.979  10.821
35623SOL    HW1 8708   8.558  10.927  10.770
35623SOL    HW2 8709   8.695  10.991  10.764
35624SOL     OW 8710  13.850   4.548   3.845
35624SOL    HW1 8711  13.902   4.620   3.810
35624SOL    HW2 8712  13.876   4.472   3.792
35625SOL     OW 8713   2.358   6.384   7.436
35625SOL    HW1 8714   2.319   6.329   7.504
35625SOL    HW2 8715   2.290   6.448   7.415
35626SOL     OW 8716   8.956  14.500  12.672
35626SOL    HW1 8717   8.995  14.558  12.606
35626SOL    HW2 8718   8.870  14.478  12.636
35627SOL     OW 8719   0.254   3.883   3.202
35627SOL    HW1 8720   0.258   3.924   3.115
35627SOL    HW2 8721   0.269   3.790   3.185
35628SOL     OW 8722   4.682  14.299   5.474
35628SOL    HW1 8723   4.632  14.280   5.394
35628SOL    HW2 8724   4.638  14.249   5.543
35629SOL     OW 8725  12.214   2.374   5.313
35629SOL    HW1 8726  12.150   2.445   5.321
35629SOL    HW2 8727  12.286   2.413   5.263
35630SOL     OW 8728   3.389   1.452   9.839
35630SOL    HW1 8729   3.322   1.505   9.882
35630SOL    HW2 8730   3.370   1.462   9.745
35631SOL     OW 8731   1.159   0.843  14.840
35631SOL    HW1 8732   1.078   0.816   0.009
35631SOL    HW2 8733   1.220   0.771  14.857
35632SOL     OW 8734   9.105   9.877   1.192
35632SOL    HW1 8735   9.133   9.836   1.110
35632SOL    HW2 8736   9.010   9.872   1.191
35633SOL     OW 8737   6.826   6.225   3.358
35633SOL    HW1 8738   6.838   6.261   3.446
35633SOL    HW2 8739   6.877   6.144   3.359
35634SOL     OW 8740   7.568   4.974   9.235
35634SOL    HW1 8741   7.579   4.939   9.324
35634SOL    HW2 8742   7.616   5.057   9.236
35635SOL     OW 8743  12.510   4.513   5.513
35635SOL    HW1 8744  12.598   4.550   5.525
35635SOL    HW2 8745  12.517   4.423   5.547
35636SOL     OW 8746   6.495   6.328   6.992
35636SOL    HW1 8747   6.410   6.320   7.035
35636SOL    HW2 8748   6.478   6.301   6.901
35637SOL     OW 8749   6.188   1.191   1.524
35637SOL    HW1 8750   6.232   1.107   1.520
35637SOL    HW2 8751   6.142   1.198   1.441
35638SOL     OW 8752   3.401   9.229   1.621
35638SOL    HW1 8753   3.450   9.203   1.543
35638SOL    HW2 8754   3.387   9.148   1.669
35639SOL     OW 8755  10.385   2.327   1.186
35639SOL    HW1 8756  10.447   2.399   1.202
35639SOL    HW2 8757  10.327   2.360   1.117
35640SOL     OW 8758   4.431  10.610   9.790
35640SOL    HW1 8759   4.504  10.570   9.744
35640SOL    HW2 8760   4.376  10.646   9.721
35641SOL     OW 8761   3.372  10.081   0.634
35641SOL    HW1 8762   3.353  10.023   0.708
35641SOL    HW2 8763   3.305  10.059   0.569
35642SOL     OW 8764  14.467  12.542  12.781
35642SOL    HW1 8765  14.403  12.609  12.758
35642SOL    HW2 8766  14.417  12.476  12.828
35643SOL     OW 8767   8.659   2.571  13.670
35643SOL    HW1 8768   8.572   2.608  13.685
35643SOL    HW2 8769   8.652   2.480  13.701
35644SOL     OW 8770  11.649   9.014   2.674
35644SOL    HW1 8771  11.630   9.105   2.696
35644SOL    HW2 8772  11.680   9.017   2.583
35645SOL     OW 8773   1.767  14.501   6.433
35645SOL    HW1 8774   1.852  14.466   6.458
35645SOL    HW2 8775   1.767  14.498   6.337
35646SOL     OW 8776  12.325   0.313  13.538
35646SOL    HW1 8777  12.293   0.232  13.498
35646SOL    HW2 8778  12.346   0.289  13.628
35647SOL     OW 8779   0.910  14.732   1.750
35647SOL    HW1 8780   0.958  14.812   1.731
35647SOL    HW2 8781   0.974  14.662   1.737
35648SOL     OW 8782   6.337   6.851  11.116
35648SOL    HW1 8783   6.425   6.855  11.153
35648SOL    HW2 8784   6.345   6.890  11.029
35649SOL     OW 8785   6.355   6.163   4.623
35649SOL    HW1 8786   6.260   6.169   4.615
35649SOL    HW2 8787   6.382   6.251   4.651
35650SOL     OW 8788  13.859   4.604   0.299
35650SOL    HW1 8789  13.867   4.684   0.351
35650SOL    HW2 8790  13.884   4.630   0.210
35651SOL     OW 8791  10.712  11.978  14.831
35651SOL    HW1 8792  10.671  11.913   0.013
35651SOL    HW2 8793  10.803  11.982  14.862
35652SOL     OW 8794   7.021   5.817   7.565
35652SOL    HW1 8795   6.960   5.799   7.494
35652SOL    HW2 8796   6.990   5.764   7.638
35653SOL     OW 8797  10.541   6.301   8.722
35653SOL    HW1 8798  10.600   6.310   8.648
35653SOL    HW2 8799  10.459   6.341   8.692
35654SOL     OW 8800   5.554   5.959  11.738
35654SOL    HW1 8801   5.536   5.871  11.771
35654SOL    HW2 8802   5.477   5.981  11.685
35655SOL     OW 8803  13.714  10.691   7.444
35655SOL    HW1 8804  13.652  10.761   7.426
35655SOL    HW2 8805  13.730  10.698   7.539
35656SOL     OW 8806  10.921   9.852   5.929
35656SOL    HW1 8807  10.871   9.776   5.901
35656SOL    HW2 8808  10.855   9.909   5.970
35657SOL     OW 8809  12.689  11.199  13.726
35657SOL    HW1 8810  12.722  11.230  13.641
35657SOL    HW2 8811  12.701  11.273  13.785
35658SOL     OW 8812   8.038   8.687   9.719
35658SOL    HW1 8813   7.986   8.609   9.741
35658SOL    HW2 8814   7.973   8.752   9.693
35659SOL     OW 8815   6.950   8.094   1.535
35659SOL    HW1 8816   6.899   8.119   1.612
35659SOL    HW2 8817   6.963   7.999   1.545
35660SOL     OW 8818   8.989   6.227   2.445
35660SOL    HW1 8819   8.933   6.153   2.468
35660SOL    HW2 8820   9.071   6.209   2.490
35661SOL     OW 8821  11.784   9.507   9.135
35661SOL    HW1 8822  11.821   9.587   9.100
35661SOL    HW2 8823  11.841   9.437   9.101
35662SOL     OW 8824   1.695   8.293   8.025
35662SOL    HW1 8825   1.720   8.348   8.098
35662SOL    HW2 8826   1.672   8.209   8.064
35663SOL     OW 8827   1.411  12.047   1.183
35663SOL    HW1 8828   1.415  12.084   1.271
35663SOL    HW2 8829   1.326  12.076   1.149
35664SOL     OW 8830   9.062   9.539  11.301
35664SOL    HW1 8831   9.050   9.509  11.391
35664SOL    HW2 8832   8.977   9.524  11.259
35665SOL     OW 8833  12.065   8.430   2.686
35665SOL    HW1 8834  12.001   8.395   2.748
35665SOL    HW2 8835  12.043   8.523   2.680
35666SOL     OW 8836   9.680   9.069  12.285
35666SOL    HW1 8837   9.656   9.107  12.369
35666SOL    HW2 8838   9.775   9.081  12.279
35667SOL     OW 8839  13.111  14.459   8.949
35667SOL    HW1 8840  13.110  14.413   9.033
35667SOL    HW2 8841  13.199  14.444   8.914
35668SOL     OW 8842   4.947   8.933   7.055
35668SOL    HW1 8843   4.906   9.018   7.046
35668SOL    HW2 8844   5.041   8.952   7.055
35669SOL     OW 8845  13.854  11.633   4.289
35669SOL    HW1 8846  13.930  11.651   4.344
35669SOL    HW2 8847  13.824  11.546   4.317
35670SOL     OW 8848   0.319  13.373   5.910
35670SOL    HW1 8849   0.398  13.365   5.855
35670SOL    HW2 8850   0.258  13.423   5.856
35671SOL     OW 8851   0.041  13.578   4.703
35671SOL    HW1 8852   0.050  13.602   4.611
35671SOL    HW2 8853  14.827  13.542   4.709
35672SOL     OW 8854  10.324   7.118   1.034
35672SOL    HW1 8855  10.415   7.146   1.048
35672SOL    HW2 8856  10.273   7.175   1.091
35673SOL     OW 8857   2.135  10.203  11.434
35673SOL    HW1 8858   2.214  10.256  11.428
35673SOL    HW2 8859   2.148  10.149  11.512
35674SOL     OW 8860   3.865  11.310   0.946
35674SOL    HW1 8861   3.826  11.248   0.884
35674SOL    HW2 8862   3.878  11.390   0.895
35675SOL     OW 8863   0.987   6.345  14.572
35675SOL    HW1 8864   0.963   6.405  14.642
35675SOL    HW2 8865   1.039   6.277  14.615
35676SOL     OW 8866   3.711   8.784  12.549
35676SOL    HW1 8867   3.804   8.761  12.546
35676SOL    HW2 8868   3.671   8.730  12.481
35677SOL     OW 8869   2.297   8.576  14.671
35677SOL    HW1 8870   2.277   8.543  14.583
35677SOL    HW2 8871   2.259   8.512  14.730
35678SOL     OW 8872  10.799   9.107   5.666
35678SOL    HW1 8873  10.791   9.035   5.603
35678SOL    HW2 8874  10.892   9.130   5.663
35679SOL     OW 8875   6.273   7.132   5.639
35679SOL    HW1 8876   6.334   7.067   5.603
35679SOL    HW2 8877   6.297   7.214   5.596
35680SOL     OW 8878  13.440   9.356  13.965
35680SOL    HW1 8879  13.500   9.283  13.954
35680SOL    HW2 8880  13.483   9.412  14.031
35681SOL     OW 8881   2.827   8.587   5.832
35681SOL    HW1 8882   2.789   8.596   5.745
35681SOL    HW2 8883   2.754   8.561   5.888
35682SOL     OW 8884  10.247   4.250   9.606
35682SOL    HW1 8885  10.203   4.178   9.562
35682SOL    HW2 8886  10.176   4.307   9.636
35683SOL     OW 8887  11.152   4.794   1.087
35683SOL    HW1 8888  11.224   4.835   1.136
35683SOL    HW2 8889  11.150   4.841   1.004
35684SOL     OW 8890  10.671  13.651   5.790
35684SOL    HW1 8891  10.615  13.632   5.865
35684SOL    HW2 8892  10.681  13.746   5.791
35685SOL     OW 8893   1.007  13.965   0.582
35685SOL    HW1 8894   0.983  14.044   0.631
35685SOL    HW2 8895   0.925  13.936   0.541
35686SOL     OW 8896   2.381   0.493   2.494
35686SOL    HW1 8897   2.289   0.504   2.519
35686SOL    HW2 8898   2.378   0.489   2.398
35687SOL     OW 8899   0.453   1.617  14.196
35687SOL    HW1 8900   0.363   1.600  14.168
35687SOL    HW2 8901   0.463   1.712  14.191
35688SOL     OW 8902  13.194  14.848  14.033
35688SOL    HW1 8903  13.288  14.838  14.045
35688SOL    HW2 8904  13.181  14.841  13.939
35689SOL     OW 8905   2.023  13.525   0.743
35689SOL    HW1 8906   2.052  13.604   0.698
35689SOL    HW2 8907   2.103  13.486   0.778
35690SOL     OW 8908   5.689   4.857  11.886
35690SOL    HW1 8909   5.694   4.913  11.964
35690SOL    HW2 8910   5.678   4.918  11.813
35691SOL     OW 8911  12.302   8.604   4.155
35691SOL    HW1 8912  12.208   8.616   4.142
35691SOL    HW2 8913  12.325   8.667   4.224
35692SOL     OW 8914  12.526   7.103   9.628
35692SOL    HW1 8915  12.496   7.016   9.601
35692SOL    HW2 8916  12.523   7.100   9.724
35693SOL     OW 8917  13.722  10.327   7.880
35693SOL    HW1 8918  13.772  10.386   7.935
35693SOL    HW2 8919  13.632  10.333   7.913
35694SOL     OW 8920  12.324   9.324  11.696
35694SOL    HW1 8921  12.323   9.384  11.621
35694SOL    HW2 8922  12.330   9.237  11.657
35695SOL     OW 8923   1.623  10.573  12.822
35695SOL    HW1 8924   1.528  10.584  12.823
35695SOL    HW2 8925   1.643  10.551  12.731
35696SOL     OW 8926  12.630   2.379   5.110
35696SOL    HW1 8927  12.687   2.398   5.034
35696SOL    HW2 8928  12.689   2.339   5.174
35697SOL     OW 8929   9.608  10.199  13.550
35697SOL    HW1 8930   9.680  10.137  13.534
35697SOL    HW2 8931   9.567  10.210  13.464
35698SOL     OW 8932  13.072  12.058   2.095
35698SOL    HW1 8933  13.078  11.970   2.132
35698SOL    HW2 8934  13.161  12.078   2.067
35699SOL     OW 8935  13.179  11.277   6.433
35699SOL    HW1 8936  13.260  11.304   6.478
35699SOL    HW2 8937  13.138  11.216   6.493
35700SOL     OW 8938  14.186   5.937  13.417
35700SOL    HW1 8939  14.195   5.997  13.492
35700SOL    HW2 8940  14.151   5.991  13.347
35701SOL     OW 8941  12.177   8.656  10.722
35701SOL    HW1 8942  12.200   8.707  10.644
35701SOL    HW2 8943  12.259   8.648  10.771
35702SOL     OW 8944  10.722   9.397  11.713
35702SOL    HW1 8945  10.764   9.406  11.627
35702SOL    HW2 8946  10.787   9.429  11.775
35703SOL     OW 8947   4.923   9.982  10.444
35703SOL    HW1 8948   4.853   9.979  10.509
35703SOL    HW2 8949   4.960  10.070  10.453
35704SOL     OW 8950  10.573  12.933  11.727
35704SOL    HW1 8951  10.519  12.854  11.720
35704SOL    HW2 8952  10.567  12.973  11.640
35705SOL     OW 8953   5.462  10.647   4.113
35705SOL    HW1 8954   5.392  10.713   4.117
35705SOL    HW2 8955   5.528  10.684   4.055
35706SOL     OW 8956  13.250   2.390  12.095
35706SOL    HW1 8957  13.159   2.420  12.093
35706SOL    HW2 8958  13.264   2.363  12.185
35707SOL     OW 8959   4.603   9.049   8.581
35707SOL    HW1 8960   4.697   9.046   8.561
35707SOL    HW2 8961   4.580   8.958   8.600
35708SOL     OW 8962   7.639   6.925   3.298
35708SOL    HW1 8963   7.667   6.873   3.222
35708SOL    HW2 8964   7.638   6.862   3.370
35709SOL     OW 8965   8.189   8.477   9.374
35709SOL    HW1 8966   8.198   8.544   9.442
35709SOL    HW2 8967   8.157   8.399   9.421
35710SOL     OW 8968  13.563   8.540   5.112
35710SOL    HW1 8969  13.507   8.616   5.098
35710SOL    HW2 8970  13.649   8.577   5.132
35711SOL     OW 8971   7.626  10.911  14.680
35711SOL    HW1 8972   7.720  10.901  14.664
35711SOL    HW2 8973   7.584  10.860  14.610
35712SOL     OW 8974  11.928   3.156   8.716
35712SOL    HW1 8975  11.859   3.221   8.713
35712SOL    HW2 8976  11.917   3.105   8.635
35713SOL     OW 8977  11.798  10.114   6.158
35713SOL    HW1 8978  11.744  10.092   6.082
35713SOL    HW2 8979  11.787  10.209   6.168
35714SOL     OW 8980   5.306   8.440   1.277
35714SOL    HW1 8981   5.332   8.363   1.225
35714SOL    HW2 8982   5.214   8.453   1.254
35715SOL     OW 8983   8.210  11.711   4.169
35715SOL    HW1 8984   8.220  11.773   4.096
35715SOL    HW2 8985   8.299  11.688   4.194
35716SOL     OW 8986  11.755   9.732  13.396
35716SOL    HW1 8987  11.764   9.770  13.483
35716SOL    HW2 8988  11.666   9.695  13.395
35717SOL     OW 8989   4.502   9.412   3.659
35717SOL    HW1 8990   4.564   9.344   3.687
35717SOL    HW2 8991   4.513   9.417   3.564
35718SOL     OW 8992   9.259  13.185  11.644
35718SOL    HW1 8993   9.252  13.232  11.561
35718SOL    HW2 8994   9.344  13.212  11.680
35719SOL     OW 8995   4.351   1.601  12.252
35719SOL    HW1 8996   4.445   1.594  12.273
35719SOL    HW2 8997   4.344   1.681  12.200
35720SOL     OW 8998   7.986  13.710  12.321
35720SOL    HW1 8999   7.945  13.694  12.406
35720SOL    HW2 9000   8.061  13.765  12.341
35721SOL     OW 9001   0.016   7.920   8.738
35721SOL    HW1 9002   0.034   7.869   8.659
35721SOL    HW2 9003   0.073   7.997   8.730
35722SOL     OW 9004   4.153   2.630   6.743
35722SOL    HW1 9005   4.096   2.686   6.796
35722SOL    HW2 9006   4.216   2.690   6.703
35723SOL     OW 9007   1.610  13.347  12.800
35723SOL    HW1 9008   1.573  13.302  12.875
35723SOL    HW2 9009   1.540  13.406  12.771
35724SOL     OW 9010  14.431   0.890   2.228
35724SOL    HW1 9011  14.432   0.849   2.314
35724SOL    HW2 9012  14.451   0.982   2.245
35725SOL     OW 9013   9.407  10.819  13.729
35725SOL    HW1 9014   9.365  10.754  13.786
35725SOL    HW2 9015   9.335  10.876  13.701
35726SOL     OW 9016  12.658  14.682   1.939
35726SOL    HW1 9017  12.590  14.743   1.969
35726SOL    HW2 9018  12.616  14.631   1.870
35727SOL     OW 9019   4.282  12.545   6.292
35727SOL    HW1 9020   4.244  12.467   6.250
35727SOL    HW2 9021   4.317  12.596   6.219
35728SOL     OW 9022  13.425  14.791   8.798
35728SOL    HW1 9023  13.417  14.725   8.867
35728SOL    HW2 9024  13.443  14.741   8.718
35729SOL     OW 9025  12.649  12.895  13.586
35729SOL    HW1 9026  12.720  12.879  13.524
35729SOL    HW2 9027  12.598  12.814  13.585
35730SOL     OW 9028   6.228   0.426  14.775
35730SOL    HW1 9029   6.180   0.404  14.855
35730SOL    HW2 9030   6.160   0.437  14.709
35731SOL     OW 9031  12.716   1.513  10.409
35731SOL    HW1 9032  12.744   1.591  10.361
35731SOL    HW2 9033  12.752   1.525  10.497
35732SOL     OW 9034  13.207   9.487  12.450
35732SOL    HW1 9035  13.257   9.548  12.395
35732SOL    HW2 9036  13.212   9.525  12.537
35733SOL     OW 9037   4.092   6.204   4.805
35733SOL    HW1 9038   4.106   6.272   4.739
35733SOL    HW2 9039   4.019   6.237   4.858
35734SOL     OW 9040   4.841   7.866   3.137
35734SOL    HW1 9041   4.759   7.853   3.089
35734SOL    HW2 9042   4.897   7.915   3.077
35735SOL     OW 9043   0.172   7.798   0.892
35735SOL    HW1 9044   0.214   7.730   0.944
35735SOL    HW2 9045   0.078   7.786   0.908
35736SOL     OW 9046   1.947   7.608   4.677
35736SOL    HW1 9047   1.994   7.525   4.666
35736SOL    HW2 9048   1.954   7.628   4.770
35737SOL     OW 9049   7.738   4.152  14.528
35737SOL    HW1 9050   7.797   4.127  14.599
35737SOL    HW2 9051   7.747   4.248  14.523
35738SOL     OW 9052   9.317  14.206  10.208
35738SOL    HW1 9053   9.311  14.269  10.280
35738SOL    HW2 9054   9.327  14.261  10.129
35739SOL     OW 9055   4.566   4.698   8.420
35739SOL    HW1 9056   4.537   4.724   8.507
35739SOL    HW2 9057   4.604   4.611   8.432
35740SOL     OW 9058   4.490   4.860  11.577
35740SOL    HW1 9059   4.494   4.896  11.666
35740SOL    HW2 9060   4.545   4.918  11.525
35741SOL     OW 9061   7.883   0.289   0.630
35741SOL    HW1 9062   7.886   0.273   0.724
35741SOL    HW2 9063   7.816   0.229   0.598
35742SOL     OW 9064   1.928  13.689  13.490
35742SOL    HW1 9065   1.958  13.715  13.578
35742SOL    HW2 9066   1.939  13.594  13.489
35743SOL     OW 9067  11.008   6.838   2.405
35743SOL    HW1 9068  10.994   6.749   2.438
35743SOL    HW2 9069  10.960   6.841   2.322
35744SOL     OW 9070  13.932  12.155  13.092
35744SOL    HW1 9071  13.923  12.132  12.999
35744SOL    HW2 9072  13.904  12.077  13.139
35745SOL     OW 9073   2.721   6.142   7.737
35745SOL    HW1 9074   2.649   6.184   7.785
35745SOL    HW2 9075   2.678   6.078   7.680
35746SOL     OW 9076   1.413   2.911   3.868
35746SOL    HW1 9077   1.459   2.855   3.806
35746SOL    HW2 9078   1.321   2.884   3.862
35747SOL     OW 9079   7.789   2.588   4.096
35747SOL    HW1 9080   7.835   2.505   4.086
35747SOL    HW2 9081   7.703   2.565   4.132
35748SOL     OW 9082   8.232   3.783  11.479
35748SOL    HW1 9083   8.310   3.772  11.425
35748SOL    HW2 9084   8.163   3.738  11.430
35749SOL     OW 9085   7.549   8.161  14.167
35749SOL    HW1 9086   7.610   8.227  14.199
35749SOL    HW2 9087   7.508   8.201  14.090
35750SOL     OW 9088   4.169  10.905  13.765
35750SOL    HW1 9089   4.129  10.981  13.724
35750SOL    HW2 9090   4.119  10.893  13.846
35751SOL     OW 9091  11.148   1.627   6.573
35751SOL    HW1 9092  11.139   1.607   6.479
35751SOL    HW2 9093  11.061   1.608   6.609
35752SOL     OW 9094   2.195   1.865   5.486
35752SOL    HW1 9095   2.288   1.871   5.468
35752SOL    HW2 9096   2.154   1.854   5.400
35753SOL     OW 9097  12.448   7.808  14.760
35753SOL    HW1 9098  12.533   7.765  14.747
35753SOL    HW2 9099  12.449   7.836  14.851
35754SOL     OW 9100   3.606  14.099   4.261
35754SOL    HW1 9101   3.544  14.113   4.190
35754SOL    HW2 9102   3.678  14.159   4.243
35755SOL     OW 9103  10.553   4.666   7.311
35755SOL    HW1 9104  10.484   4.698   7.253
35755SOL    HW2 9105  10.584   4.743   7.357
35756SOL     OW 9106   6.657   4.677  10.065
35756SOL    HW1 9107   6.692   4.693   9.978
35756SOL    HW2 9108   6.616   4.590  10.060
35757SOL     OW 9109   5.126   1.576   3.230
35757SOL    HW1 9110   5.155   1.663   3.255
35757SOL    HW2 9111   5.045   1.562   3.278
35758SOL     OW 9112  11.665  14.077   0.384
35758SOL    HW1 9113  11.600  14.137   0.348
35758SOL    HW2 9114  11.620  13.992   0.387
35759SOL     OW 9115   9.106   8.638   7.847
35759SOL    HW1 9116   9.066   8.638   7.761
35759SOL    HW2 9117   9.135   8.547   7.860
35760SOL     OW 9118   8.851   3.922   6.262
35760SOL    HW1 9119   8.916   3.933   6.193
35760SOL    HW2 9120   8.813   3.836   6.246
35761SOL     OW 9121   8.478  13.313  12.106
35761SOL    HW1 9122   8.506  13.233  12.150
35761SOL    HW2 9123   8.559  13.355  12.078
35762SOL     OW 9124   3.019   3.130   9.197
35762SOL    HW1 9125   3.082   3.116   9.126
35762SOL    HW2 9126   2.934   3.125   9.154
35763SOL     OW 9127   7.682   5.001   5.251
35763SOL    HW1 9128   7.774   5.026   5.257
35763SOL    HW2 9129   7.635   5.083   5.237
35764SOL     OW 9130   5.995  13.957  14.687
35764SOL    HW1 9131   5.903  13.970  14.666
35764SOL    HW2 9132   6.021  13.880  14.636
35765SOL     OW 9133   7.319   4.175   7.705
35765SOL    HW1 9134   7.379   4.198   7.633
35765SOL    HW2 9135   7.316   4.079   7.703
35766SOL     OW 9136   6.391   0.124  13.555
35766SOL    HW1 9137   6.336   0.067  13.501
35766SOL    HW2 9138   6.476   0.079  13.559
35767SOL     OW 9139   1.707  14.837  13.225
35767SOL    HW1 9140   1.636  14.795  13.177
35767SOL    HW2 9141   1.732  14.772  13.292
35768SOL     OW 9142  10.779  11.368   1.467
35768SOL    HW1 9143  10.801  11.328   1.551
35768SOL    HW2 9144  10.688  11.394   1.476
35769SOL     OW 9145   7.275   7.466  12.648
35769SOL    HW1 9146   7.275   7.561  12.644
35769SOL    HW2 9147   7.211   7.439  12.582
35770SOL     OW 9148  11.693   3.298   2.508
35770SOL    HW1 9149  11.709   3.279   2.601
35770SOL    HW2 9150  11.613   3.249   2.487
35771SOL     OW 9151  12.088  11.777  11.578
35771SOL    HW1 9152  12.169  11.827  11.578
35771SOL    HW2 9153  12.115  11.687  11.559
35772SOL     OW 9154   8.787   6.577  10.802
35772SOL    HW1 9155   8.815   6.661  10.837
35772SOL    HW2 9156   8.698   6.565  10.835
35773SOL     OW 9157  13.727   2.148   4.036
35773SOL    HW1 9158  13.751   2.058   4.054
35773SOL    HW2 9159  13.705   2.149   3.943
35774SOL     OW 9160   7.954   6.559   4.199
35774SOL    HW1 9161   7.862   6.557   4.225
35774SOL    HW2 9162   7.995   6.622   4.258
35775SOL     OW 9163   9.351   2.388   3.786
35775SOL    HW1 9164   9.437   2.428   3.800
35775SOL    HW2 9165   9.289   2.460   3.793
35776SOL     OW 9166   1.127   2.370   0.541
35776SOL    HW1 9167   1.142   2.393   0.632
35776SOL    HW2 9168   1.137   2.275   0.538
35777SOL     OW 9169   7.902  13.151  13.466
35777SOL    HW1 9170   7.902  13.207  13.389
35777SOL    HW2 9171   7.809  13.144  13.491
35778SOL     OW 9172   8.383  14.654   7.348
35778SOL    HW1 9173   8.474  14.680   7.362
35778SOL    HW2 9174   8.382  14.560   7.365
35779SOL     OW 9175  13.390   1.595   6.021
35779SOL    HW1 9176  13.474   1.623   6.058
35779SOL    HW2 9177  13.413   1.523   5.962
35780SOL     OW 9178  14.191   7.007  10.890
35780SOL    HW1 9179  14.117   6.971  10.938
35780SOL    HW2 9180  14.183   6.970  10.802
35781SOL     OW 9181  10.983   1.038   6.985
35781SOL    HW1 9182  11.034   1.086   7.050
35781SOL    HW2 9183  11.015   1.072   6.901
35782SOL     OW 9184   5.472  10.236   5.651
35782SOL    HW1 9185   5.431  10.179   5.716
35782SOL    HW2 9186   5.474  10.322   5.692
35783SOL     OW 9187   5.962  11.026  12.179
35783SOL    HW1 9188   5.897  11.037  12.249
35783SOL    HW2 9189   6.006  10.944  12.201
35784SOL     OW 9190   8.901   4.162   0.120
35784SOL    HW1 9191   8.843   4.177   0.046
35784SOL    HW2 9192   8.897   4.244   0.170
35785SOL     OW 9193   8.056   5.828   4.331
35785SOL    HW1 9194   8.017   5.801   4.248
35785SOL    HW2 9195   7.983   5.868   4.379
35786SOL     OW 9196   7.582   8.569  10.768
35786SOL    HW1 9197   7.570   8.598  10.678
35786SOL    HW2 9198   7.596   8.474  10.761
35787SOL     OW 9199   4.223   5.294  13.827
35787SOL    HW1 9200   4.281   5.286  13.752
35787SOL    HW2 9201   4.170   5.372  13.808
35788SOL     OW 9202  12.099  13.259  12.292
35788SOL    HW1 9203  12.126  13.334  12.345
35788SOL    HW2 9204  12.093  13.186  12.354
35789SOL     OW 9205   5.139  14.403   4.085
35789SOL    HW1 9206   5.064  14.454   4.114
35789SOL    HW2 9207   5.212  14.465   4.085
35790SOL     OW 9208   1.838   2.986   2.587
35790SOL    HW1 9209   1.813   3.059   2.644
35790SOL    HW2 9210   1.798   2.909   2.629
35791SOL     OW 9211  10.668   0.334   3.807
35791SOL    HW1 9212  10.642   0.418   3.769
35791SOL    HW2 9213  10.750   0.352   3.852
35792SOL     OW 9214   9.231   4.846  13.662
35792SOL    HW1 9215   9.145   4.809  13.682
35792SOL    HW2 9216   9.219   4.940  13.664
35793SOL     OW 9217  12.506  13.535   9.150
35793SOL    HW1 9218  12.535  13.620   9.185
35793SOL    HW2 9219  12.568  13.516   9.079
35794SOL     OW 9220   9.605  12.096   8.064
35794SOL    HW1 9221   9.691  12.114   8.102
35794SOL    HW2 9222   9.623  12.042   7.987
35795SOL     OW 9223   4.006   6.013  14.199
35795SOL    HW1 9224   3.935   6.023  14.136
35795SOL    HW2 9225   4.000   5.922  14.228
35796SOL     OW 9226   6.353  13.349  10.369
35796SOL    HW1 9227   6.321  13.347  10.459
35796SOL    HW2 9228   6.288  13.401  10.321
35797SOL     OW 9229  14.022   1.231   0.840
35797SOL    HW1 9230  13.989   1.181   0.915
35797SOL    HW2 9231  14.092   1.177   0.803
35798SOL     OW 9232   4.308  11.496   7.316
35798SOL    HW1 9233   4.263  11.548   7.250
35798SOL    HW2 9234   4.290  11.405   7.292
35799SOL     OW 9235  13.813   7.209   8.523
35799SOL    HW1 9236  13.838   7.301   8.532
35799SOL    HW2 9237  13.852   7.180   8.441
35800SOL     OW 9238   0.231   5.838  10.320
35800SOL    HW1 9239   0.208   5.931  10.319
35800SOL    HW2 9240   0.175   5.800  10.388
35801SOL     OW 9241   5.007  11.292  14.449
35801SOL    HW1 9242   5.019  11.198  14.462
35801SOL    HW2 9243   5.081  11.331  14.496
35802SOL     OW 9244  10.867   5.615   7.368
35802SOL    HW1 9245  10.933   5.597   7.301
35802SOL    HW2 9246  10.856   5.710   7.365
35803SOL     OW 9247   1.278  11.207   4.538
35803SOL    HW1 9248   1.186  11.191   4.516
35803SOL    HW2 9249   1.322  11.212   4.454
35804SOL     OW 9250   6.259   6.311  10.944
35804SOL    HW1 9251   6.253   6.307  11.039
35804SOL    HW2 9252   6.288   6.401  10.925
35805SOL     OW 9253   6.722   4.334  14.616
35805SOL    HW1 9254   6.734   4.419  14.657
35805SOL    HW2 9255   6.807   4.314  14.576
35806SOL     OW 9256   9.235  12.442   3.936
35806SOL    HW1 9257   9.308  12.436   3.998
35806SOL    HW2 9258   9.214  12.351   3.915
35807SOL     OW 9259   2.767   2.481   0.016
35807SOL    HW1 9260   2.738   2.565   0.050
35807SOL    HW2 9261   2.702   2.458  14.824
35808SOL     OW 9262   7.685   9.385  12.599
35808SOL    HW1 9263   7.778   9.365  12.611
35808SOL    HW2 9264   7.668   9.366  12.507
35809SOL     OW 9265   7.706   1.558   7.017
35809SOL    HW1 9266   7.761   1.599   7.083
35809SOL    HW2 9267   7.767   1.527   6.950
35810SOL     OW 9268  13.519   3.571  11.984
35810SOL    HW1 9269  13.492   3.587  11.893
35810SOL    HW2 9270  13.532   3.658  12.021
35811SOL     OW 9271   4.444   6.227   1.387
35811SOL    HW1 9272   4.421   6.153   1.443
35811SOL    HW2 9273   4.444   6.191   1.298
35812SOL     OW 9274  10.312   3.734   2.886
35812SOL    HW1 9275  10.267   3.651   2.871
35812SOL    HW2 9276  10.397   3.724   2.842
35813SOL     OW 9277  13.018  13.994   8.298
35813SOL    HW1 9278  13.073  13.916   8.292
35813SOL    HW2 9279  12.939  13.964   8.343
35814SOL     OW 9280   4.296   6.194   5.381
35814SOL    HW1 9281   4.348   6.267   5.345
35814SOL    HW2 9282   4.309   6.123   5.318
35815SOL     OW 9283  10.415  14.389  10.410
35815SOL    HW1 9284  10.442  14.445  10.338
35815SOL    HW2 9285  10.467  14.309  10.400
35816SOL     OW 9286   8.208   5.799   7.996
35816SOL    HW1 9287   8.130   5.842   8.031
35816SOL    HW2 9288   8.183   5.774   7.907
35817SOL     OW 9289  10.267  13.108   8.320
35817SOL    HW1 9290  10.220  13.025   8.334
35817SOL    HW2 9291  10.199  13.170   8.293
35818SOL     OW 9292   5.186   6.537   4.238
35818SOL    HW1 9293   5.246   6.567   4.171
35818SOL    HW2 9294   5.161   6.616   4.285
35819SOL     OW 9295   5.475   6.438   0.723
35819SOL    HW1 9296   5.527   6.512   0.754
35819SOL    HW2 9297   5.411   6.423   0.794
35820SOL     OW 9298   6.839  12.523   0.096
35820SOL    HW1 9299   6.926  12.512   0.134
35820SOL    HW2 9300   6.793  12.580   0.158
35821SOL     OW 9301  13.675   7.214  11.954
35821SOL    HW1 9302  13.658   7.122  11.973
35821SOL    HW2 9303  13.679   7.218  11.858
35822SOL     OW 9304   1.515   2.790   7.077
35822SOL    HW1 9305   1.601   2.820   7.047
35822SOL    HW2 9306   1.471   2.870   7.106
35823SOL     OW 9307  10.362  12.229  10.097
35823SOL    HW1 9308  10.431  12.164  10.080
35823SOL    HW2 9309  10.282  12.178  10.105
35824SOL     OW 9310   3.681  11.202   8.722
35824SOL    HW1 9311   3.731  11.165   8.796
35824SOL    HW2 9312   3.747  11.241   8.666
35825SOL     OW 9313   0.679   2.911   5.649
35825SOL    HW1 9314   0.660   2.910   5.556
35825SOL    HW2 9315   0.718   2.997   5.665
35826SOL     OW 9316  14.348   9.322   8.044
35826SOL    HW1 9317  14.331   9.277   8.126
35826SOL    HW2 9318  14.439   9.302   8.024
35827SOL     OW 9319   9.476   5.799   5.077
35827SOL    HW1 9320   9.530   5.804   4.998
35827SOL    HW2 9321   9.539   5.788   5.149
35828SOL     OW 9322   9.347   1.980   8.108
35828SOL    HW1 9323   9.383   2.021   8.028
35828SOL    HW2 9324   9.409   1.911   8.130
35829SOL     OW 9325  11.392  12.574   4.531
35829SOL    HW1 9326  11.376  12.569   4.437
35829SOL    HW2 9327  11.349  12.496   4.567
35830SOL     OW 9328   5.874  13.798  12.573
35830SOL    HW1 9329   5.905  13.739  12.642
35830SOL    HW2 9330   5.926  13.877  12.583
35831SOL     OW 9331  13.937   3.509   2.791
35831SOL    HW1 9332  13.868   3.447   2.768
35831SOL    HW2 9333  13.960   3.488   2.881
35832SOL     OW 9334   0.719   8.785   5.842
35832SOL    HW1 9335   0.647   8.725   5.822
35832SOL    HW2 9336   0.689   8.870   5.810
35833SOL     OW 9337  13.796  12.633   5.024
35833SOL    HW1 9338  13.869  12.575   5.005
35833SOL    HW2 9339  13.722  12.594   4.977
35834SOL     OW 9340  14.080   6.613   8.429
35834SOL    HW1 9341  14.064   6.623   8.336
35834SOL    HW2 9342  14.015   6.670   8.471
35835SOL     OW 9343  10.610  12.764   5.110
35835SOL    HW1 9344  10.518  12.762   5.137
35835SOL    HW2 9345  10.610  12.730   5.021
35836SOL     OW 9346   4.237  12.037  11.524
35836SOL    HW1 9347   4.301  12.089  11.573
35836SOL    HW2 9348   4.263  11.946  11.541
35837SOL     OW 9349   1.946  10.742  13.834
35837SOL    HW1 9350   1.887  10.807  13.872
35837SOL    HW2 9351   1.956  10.769  13.743
35838SOL     OW 9352   3.728   6.214   1.964
35838SOL    HW1 9353   3.759   6.130   1.931
35838SOL    HW2 9354   3.632   6.205   1.967
35839SOL     OW 9355   3.262   6.096   3.261
35839SOL    HW1 9356   3.261   6.183   3.302
35839SOL    HW2 9357   3.309   6.041   3.324
35840SOL     OW 9358  14.350  12.080   2.519
35840SOL    HW1 9359  14.281  12.067   2.584
35840SOL    HW2 9360  14.307  12.128   2.448
35841SOL     OW 9361   4.727   2.016  10.097
35841SOL    HW1 9362   4.816   2.002  10.130
35841SOL    HW2 9363   4.727   1.973  10.011
35842SOL     OW 9364   8.473   5.161  10.152
35842SOL    HW1 9365   8.532   5.105  10.102
35842SOL    HW2 9366   8.530   5.225  10.194
35843SOL     OW 9367  13.344   4.037  13.547
35843SOL    HW1 9368  13.355   3.994  13.632
35843SOL    HW2 9369  13.252   4.063  13.545
35844SOL     OW 9370  10.776  12.712   1.147
35844SOL    HW1 9371  10.871  12.710   1.137
35844SOL    HW2 9372  10.762  12.700   1.241
35845SOL     OW 9373   5.715  13.577   2.838
35845SOL    HW1 9374   5.690  13.661   2.800
35845SOL    HW2 9375   5.654  13.514   2.801
35846SOL     OW 9376   4.463  13.529  11.114
35846SOL    HW1 9377   4.535  13.489  11.163
35846SOL    HW2 9378   4.442  13.609  11.163
35847SOL     OW 9379   0.939   8.348   1.887
35847SOL    HW1 9380   0.992   8.304   1.953
35847SOL    HW2 9381   0.958   8.441   1.900
35848SOL     OW 9382   6.900  14.002  13.235
35848SOL    HW1 9383   6.923  13.945  13.308
35848SOL    HW2 9384   6.949  13.967  13.160
35849SOL     OW 9385   6.179  13.401  13.810
35849SOL    HW1 9386   6.271  13.427  13.802
35849SOL    HW2 9387   6.168  13.332  13.745
35850SOL     OW 9388   5.953   0.066   6.517
35850SOL    HW1 9389   5.992   0.152   6.502
35850SOL    HW2 9390   6.020   0.004   6.490
35851SOL     OW 9391  10.931   1.115   0.887
35851SOL    HW1 9392  10.890   1.070   0.961
35851SOL    HW2 9393  11.004   1.059   0.861
35852SOL     OW 9394   8.568   1.283   0.839
35852SOL    HW1 9395   8.577   1.209   0.780
35852SOL    HW2 9396   8.645   1.337   0.822
35853SOL     OW 9397   0.901   6.176   6.619
35853SOL    HW1 9398   0.812   6.166   6.654
35853SOL    HW2 9399   0.955   6.190   6.696
35854SOL     OW 9400   6.105  12.419  12.750
35854SOL    HW1 9401   6.192  12.409  12.788
35854SOL    HW2 9402   6.068  12.496  12.793
35855SOL     OW 9403   5.592   1.021   2.092
35855SOL    HW1 9404   5.602   1.116   2.099
35855SOL    HW2 9405   5.527   1.009   2.023
35856SOL     OW 9406  11.326  12.833  14.064
35856SOL    HW1 9407  11.313  12.860  13.973
35856SOL    HW2 9408  11.238  12.817  14.098
35857SOL     OW 9409   5.013  11.306   1.391
35857SOL    HW1 9410   5.035  11.390   1.432
35857SOL    HW2 9411   5.094  11.279   1.347
35858SOL     OW 9412  13.144  13.160   9.119
35858SOL    HW1 9413  13.088  13.168   9.041
35858SOL    HW2 9414  13.198  13.239   9.117
35859SOL     OW 9415   7.415   9.684   4.274
35859SOL    HW1 9416   7.423   9.653   4.364
35859SOL    HW2 9417   7.330   9.651   4.245
35860SOL     OW 9418  13.431   9.941  14.012
35860SOL    HW1 9419  13.513   9.903  13.983
35860SOL    HW2 9420  13.368   9.917  13.944
35861SOL     OW 9421   4.512  11.628   5.239
35861SOL    HW1 9422   4.452  11.690   5.281
35861SOL    HW2 9423   4.456  11.554   5.216
35862SOL     OW 9424   9.448   4.885   7.784
35862SOL    HW1 9425   9.454   4.795   7.814
35862SOL    HW2 9426   9.509   4.933   7.840
35863SOL     OW 9427   9.905   5.311   0.346
35863SOL    HW1 9428   9.890   5.226   0.388
35863SOL    HW2 9429   9.859   5.304   0.262
35864SOL     OW 9430   0.083   1.635   2.518
35864SOL    HW1 9431   0.046   1.582   2.589
35864SOL    HW2 9432   0.010   1.688   2.487
35865SOL     OW 9433  10.233   7.878  11.047
35865SOL    HW1 9434  10.277   7.911  10.968
35865SOL    HW2 9435  10.304   7.844  11.102
35866SOL     OW 9436  14.404   7.219   0.758
35866SOL    HW1 9437  14.424   7.293   0.816
35866SOL    HW2 9438  14.481   7.164   0.762
35867SOL     OW 9439   4.514   5.053   5.583
35867SOL    HW1 9440   4.418   5.059   5.582
35867SOL    HW2 9441   4.538   5.076   5.673
35868SOL     OW 9442  13.580   1.175   9.066
35868SOL    HW1 9443  13.578   1.123   8.986
35868SOL    HW2 9444  13.527   1.252   9.046
35869SOL     OW 9445  13.514   1.449  10.036
35869SOL    HW1 9446  13.456   1.524  10.024
35869SOL    HW2 9447  13.578   1.458   9.965
35870SOL     OW 9448   6.267   1.321  14.225
35870SOL    HW1 9449   6.260   1.403  14.176
35870SOL    HW2 9450   6.321   1.343  14.301
35871SOL     OW 9451   0.521   3.696  11.622
35871SOL    HW1 9452   0.476   3.727  11.543
35871SOL    HW2 9453   0.451   3.667  11.680
35872SOL     OW 9454   6.780   2.971   3.546
35872SOL    HW1 9455   6.748   2.882   3.531
35872SOL    HW2 9456   6.866   2.959   3.587
35873SOL     OW 9457  11.163  12.400   3.380
35873SOL    HW1 9458  11.104  12.328   3.358
35873SOL    HW2 9459  11.148  12.465   3.311
35874SOL     OW 9460   2.735   8.318   0.078
35874SOL    HW1 9461   2.793   8.353   0.147
35874SOL    HW2 9462   2.671   8.388   0.063
35875SOL     OW 9463   0.903   6.750  11.358
35875SOL    HW1 9464   0.870   6.661  11.366
35875SOL    HW2 9465   0.859   6.786  11.281
35876SOL     OW 9466   4.808  14.604   3.224
35876SOL    HW1 9467   4.748  14.671   3.190
35876SOL    HW2 9468   4.863  14.651   3.287
35877SOL     OW 9469   2.971   8.935  10.687
35877SOL    HW1 9470   2.898   8.956  10.628
35877SOL    HW2 9471   3.003   9.020  10.716
35878SOL     OW 9472   4.973  10.777   7.155
35878SOL    HW1 9473   5.046  10.802   7.212
35878SOL    HW2 9474   5.000  10.805   7.068
35879SOL     OW 9475   1.986  12.194   8.171
35879SOL    HW1 9476   2.049  12.214   8.240
35879SOL    HW2 9477   2.008  12.255   8.100
35880SOL     OW 9478   8.343   0.289  11.523
35880SOL    HW1 9479   8.298   0.245  11.595
35880SOL    HW2 9480   8.430   0.310  11.557
35881SOL     OW 9481   5.606  12.115  13.845
35881SOL    HW1 9482   5.666  12.045  13.869
35881SOL    HW2 9483   5.638  12.147  13.760
35882SOL     OW 9484  12.971   7.881   1.659
35882SOL    HW1 9485  13.063   7.887   1.633
35882SOL    HW2 9486  12.931   7.829   1.589
35883SOL     OW 9487   9.637   6.954   6.044
35883SOL    HW1 9488   9.710   6.947   6.106
35883SOL    HW2 9489   9.559   6.937   6.096
35884SOL     OW 9490   3.085   0.662   1.152
35884SOL    HW1 9491   3.171   0.663   1.194
35884SOL    HW2 9492   3.075   0.573   1.118
35885SOL     OW 9493   4.438   5.235   9.994
35885SOL    HW1 9494   4.360   5.178   9.995
35885SOL    HW2 9495   4.425   5.292   9.918
35886SOL     OW 9496   2.207  13.914   4.972
35886SOL    HW1 9497   2.182  14.005   4.991
35886SOL    HW2 9498   2.262  13.888   5.046
35887SOL     OW 9499  12.951   5.375   2.386
35887SOL    HW1 9500  12.872   5.324   2.374
35887SOL    HW2 9501  12.956   5.390   2.481
35888SOL     OW 9502   8.244   5.953   9.333
35888SOL    HW1 9503   8.336   5.927   9.335
35888SOL    HW2 9504   8.218   5.944   9.241
35889SOL     OW 9505   9.747   3.180   7.735
35889SOL    HW1 9506   9.712   3.206   7.650
35889SOL    HW2 9507   9.704   3.240   7.797
35890SOL     OW 9508   7.798  12.128  13.557
35890SOL    HW1 9509   7.857  12.058  13.527
35890SOL    HW2 9510   7.854  12.184  13.611
35891SOL     OW 9511   8.006   4.200  13.104
35891SOL    HW1 9512   8.064   4.235  13.037
35891SOL    HW2 9513   7.928   4.257  13.101
35892SOL     OW 9514   8.574  10.924   8.924
35892SOL    HW1 9515   8.644  10.988   8.940
35892SOL    HW2 9516   8.494  10.969   8.949
35893SOL     OW 9517   2.506   1.895   5.506
35893SOL    HW1 9518   2.557   1.843   5.444
35893SOL    HW2 9519   2.491   1.837   5.581
35894SOL     OW 9520   0.236   0.022   3.320
35894SOL    HW1 9521   0.196   0.090   3.374
35894SOL    HW2 9522   0.287  14.843   3.382
35895SOL     OW 9523   5.249   7.558   8.947
35895SOL    HW1 9524   5.277   7.585   8.860
35895SOL    HW2 9525   5.160   7.590   8.955
35896SOL     OW 9526   1.347   0.852   6.504
35896SOL    HW1 9527   1.395   0.781   6.546
35896SOL    HW2 9528   1.265   0.812   6.475
35897SOL     OW 9529  10.515   4.070   3.770
35897SOL    HW1 9530  10.548   4.044   3.684
35897SOL    HW2 9531  10.422   4.088   3.756
35898SOL     OW 9532   4.923  13.330  13.157
35898SOL    HW1 9533   4.990  13.352  13.222
35898SOL    HW2 9534   4.880  13.252  13.192
35899SOL     OW 9535   2.180   4.342  10.111
35899SOL    HW1 9536   2.135   4.379  10.186
35899SOL    HW2 9537   2.250   4.404  10.092
35900SOL     OW 9538   4.263   2.800  10.464
35900SOL    HW1 9539   4.283   2.821  10.373
35900SOL    HW2 9540   4.219   2.715  10.460
35901SOL     OW 9541   9.382   1.268   2.613
35901SOL    HW1 9542   9.300   1.256   2.660
35901SOL    HW2 9543   9.419   1.180   2.606
35902SOL     OW 9544   0.743  14.349  11.693
35902SOL    HW1 9545   0.733  14.422  11.754
35902SOL    HW2 9546   0.656  14.310  11.688
35903SOL     OW 9547   7.402   1.032   2.093
35903SOL    HW1 9548   7.433   1.101   2.152
35903SOL    HW2 9549   7.336   1.075   2.038
35904SOL     OW 9550   5.599   3.811   9.251
35904SOL    HW1 9551   5.604   3.717   9.266
35904SOL    HW2 9552   5.624   3.850   9.335
35905SOL     OW 9553   7.156   6.727   2.178
35905SOL    HW1 9554   7.127   6.691   2.094
35905SOL    HW2 9555   7.236   6.776   2.157
35906SOL     OW 9556  11.772   0.549   1.788
35906SOL    HW1 9557  11.785   0.500   1.869
35906SOL    HW2 9558  11.679   0.571   1.789
35907SOL     OW 9559   6.649   8.572   3.313
35907SOL    HW1 9560   6.636   8.654   3.267
35907SOL    HW2 9561   6.628   8.591   3.404
35908SOL     OW 9562  13.454   8.501   0.296
35908SOL    HW1 9563  13.516   8.528   0.363
35908SOL    HW2 9564  13.372   8.486   0.344
35909SOL     OW 9565   0.744   8.477   3.081
35909SOL    HW1 9566   0.739   8.469   2.986
35909SOL    HW2 9567   0.662   8.519   3.107
35910SOL     OW 9568   7.582  14.381   7.329
35910SOL    HW1 9569   7.625  14.302   7.363
35910SOL    HW2 9570   7.583  14.442   7.403
35911SOL     OW 9571   7.123   3.816   3.467
35911SOL    HW1 9572   7.130   3.906   3.437
35911SOL    HW2 9573   7.202   3.802   3.520
35912SOL     OW 9574  13.386  13.900   6.177
35912SOL    HW1 9575  13.342  13.828   6.131
35912SOL    HW2 9576  13.363  13.887   6.269
35913SOL     OW 9577  10.746   9.970   5.013
35913SOL    HW1 9578  10.678  10.030   5.047
35913SOL    HW2 9579  10.719   9.953   4.923
35914SOL     OW 9580   2.457  14.558   8.752
35914SOL    HW1 9581   2.400  14.560   8.675
35914SOL    HW2 9582   2.468  14.650   8.776
35915SOL     OW 9583  14.106   6.699   2.028
35915SOL    HW1 9584  14.200   6.705   2.048
35915SOL    HW2 9585  14.064   6.750   2.097
35916SOL     OW 9586   5.680  10.967  14.003
35916SOL    HW1 9587   5.606  10.986  14.059
35916SOL    HW2 9588   5.649  10.898  13.944
35917SOL     OW 9589   1.546  10.402   0.712
35917SOL    HW1 9590   1.609  10.428   0.778
35917SOL    HW2 9591   1.465  10.386   0.761
35918SOL     OW 9592   6.746  11.244   9.707
35918SOL    HW1 9593   6.759  11.265   9.799
35918SOL    HW2 9594   6.679  11.176   9.706
35919SOL     OW 9595   4.649   1.622   3.770
35919SOL    HW1 9596   4.672   1.566   3.843
35919SOL    HW2 9597   4.725   1.679   3.757
35920SOL     OW 9598   0.032   9.995   9.328
35920SOL    HW1 9599   0.090   9.948   9.267
35920SOL    HW2 9600   0.020  10.081   9.288
35921SOL     OW 9601   8.786   6.723   2.348
35921SOL    HW1 9602   8.824   6.757   2.266
35921SOL    HW2 9603   8.705   6.773   2.358
35922SOL     OW 9604   6.786   9.147   2.122
35922SOL    HW1 9605   6.709   9.146   2.065
35922SOL    HW2 9606   6.827   9.232   2.105
35923SOL     OW 9607  13.451  11.515   8.227
35923SOL    HW1 9608  13.402  11.471   8.158
35923SOL    HW2 9609  13.384  11.548   8.287
35924SOL     OW 9610   5.797   5.417   3.698
35924SOL    HW1 9611   5.840   5.335   3.672
35924SOL    HW2 9612   5.739   5.392   3.769
35925SOL     OW 9613  13.350   1.716   7.253
35925SOL    HW1 9614  13.316   1.760   7.174
35925SOL    HW2 9615  13.411   1.651   7.219
35926SOL     OW 9616  10.791  14.864   1.709
35926SOL    HW1 9617  10.877  14.827   1.688
35926SOL    HW2 9618  10.776   0.056   1.641
35927SOL     OW 9619   2.226  12.965  13.083
35927SOL    HW1 9620   2.206  13.053  13.050
35927SOL    HW2 9621   2.162  12.950  13.152
35928SOL     OW 9622   6.637   8.245   6.681
35928SOL    HW1 9623   6.731   8.255   6.664
35928SOL    HW2 9624   6.603   8.204   6.602
35929SOL     OW 9625   5.553   4.465   2.202
35929SOL    HW1 9626   5.565   4.558   2.179
35929SOL    HW2 9627   5.530   4.423   2.119
35930SOL     OW 9628   5.375   3.132  11.369
35930SOL    HW1 9629   5.460   3.169  11.345
35930SOL    HW2 9630   5.318   3.152  11.295
35931SOL     OW 9631  13.505  14.706  12.819
35931SOL    HW1 9632  13.500  14.746  12.732
35931SOL    HW2 9633  13.522  14.613  12.801
35932SOL     OW 9634  12.421  13.115  14.210
35932SOL    HW1 9635  12.412  13.209  14.195
35932SOL    HW2 9636  12.349  13.076  14.160
35933SOL     OW 9637   5.263   8.112  12.774
35933SOL    HW1 9638   5.168   8.124  12.778
35933SOL    HW2 9639   5.296   8.197  12.743
35934SOL     OW 9640   8.732   1.251   1.587
35934SOL    HW1 9641   8.742   1.218   1.676
35934SOL    HW2 9642   8.701   1.341   1.599
35935SOL     OW 9643   0.932   7.282   3.937
35935SOL    HW1 9644   0.978   7.218   3.884
35935SOL    HW2 9645   0.861   7.232   3.979
35936SOL     OW 9646  10.931  12.831   3.338
35936SOL    HW1 9647  10.909  12.868   3.252
35936SOL    HW2 9648  10.859  12.858   3.395
35937SOL     OW 9649   4.205   1.609  13.613
35937SOL    HW1 9650   4.202   1.539  13.548
35937SOL    HW2 9651   4.125   1.598  13.664
35938SOL     OW 9652  13.954   9.611   9.918
35938SOL    HW1 9653  13.949   9.537   9.979
35938SOL    HW2 9654  13.945   9.571   9.832
35939SOL     OW 9655   7.686  12.780   1.041
35939SOL    HW1 9656   7.671  12.691   1.072
35939SOL    HW2 9657   7.729  12.824   1.115
35940SOL     OW 9658   7.124   5.651   4.336
35940SOL    HW1 9659   7.053   5.588   4.349
35940SOL    HW2 9660   7.168   5.622   4.256
35941SOL     OW 9661   5.901   1.314   2.391
35941SOL    HW1 9662   5.987   1.304   2.433
35941SOL    HW2 9663   5.922   1.343   2.302
35942SOL     OW 9664   5.120   4.951   1.853
35942SOL    HW1 9665   5.205   4.995   1.861
35942SOL    HW2 9666   5.081   4.988   1.774
35943SOL     OW 9667   8.334   2.399  11.656
35943SOL    HW1 9668   8.290   2.336  11.712
35943SOL    HW2 9669   8.353   2.473  11.713
35944SOL     OW 9670   1.237   1.770   5.044
35944SOL    HW1 9671   1.206   1.834   4.980
35944SOL    HW2 9672   1.180   1.781   5.119
35945SOL     OW 9673   7.123   6.811  13.918
35945SOL    HW1 9674   7.108   6.741  13.856
35945SOL    HW2 9675   7.205   6.852  13.890
35946SOL     OW 9676  12.665  13.233   6.810
35946SOL    HW1 9677  12.586  13.218   6.862
35946SOL    HW2 9678  12.722  13.160   6.833
35947SOL     OW 9679   7.776  12.981   4.295
35947SOL    HW1 9680   7.822  13.061   4.323
35947SOL    HW2 9681   7.754  12.937   4.377
35948SOL     OW 9682  12.922  10.080   3.599
35948SOL    HW1 9683  12.983  10.129   3.544
35948SOL    HW2 9684  12.835  10.105   3.566
35949SOL     OW 9685   0.463   0.731  13.230
35949SOL    HW1 9686   0.461   0.824  13.207
35949SOL    HW2 9687   0.373   0.710  13.255
35950SOL     OW 9688   3.823   6.099   8.106
35950SOL    HW1 9689   3.853   6.059   8.187
35950SOL    HW2 9690   3.778   6.028   8.059
35951SOL     OW 9691   6.956   6.866  10.253
35951SOL    HW1 9692   6.871   6.892  10.289
35951SOL    HW2 9693   6.938   6.847  10.161
35952SOL     OW 9694   9.370   5.260   9.740
35952SOL    HW1 9695   9.308   5.333   9.737
35952SOL    HW2 9696   9.316   5.182   9.722
35953SOL     OW 9697   3.893   8.173   9.949
35953SOL    HW1 9698   3.807   8.180   9.991
35953SOL    HW2 9699   3.884   8.102   9.886
35954SOL     OW 9700   0.804   2.182   6.193
35954SOL    HW1 9701   0.714   2.185   6.227
35954SOL    HW2 9702   0.795   2.208   6.101
35955SOL     OW 9703   8.785   5.102   1.029
35955SOL    HW1 9704   8.787   5.006   1.036
35955SOL    HW2 9705   8.707   5.120   0.978
35956SOL     OW 9706   9.892   7.677   1.242
35956SOL    HW1 9707   9.929   7.764   1.261
35956SOL    HW2 9708   9.929   7.654   1.156
35957SOL     OW 9709  11.563   8.329   1.593
35957SOL    HW1 9710  11.584   8.343   1.501
35957SOL    HW2 9711  11.495   8.394   1.612
35958SOL     OW 9712   8.200   9.957  12.329
35958SOL    HW1 9713   8.122   9.917  12.367
35958SOL    HW2 9714   8.214   9.909  12.247
35959SOL     OW 9715   5.391   7.133  14.489
35959SOL    HW1 9716   5.408   7.084  14.570
35959SOL    HW2 9717   5.339   7.208  14.517
35960SOL     OW 9718   2.356   4.757   1.449
35960SOL    HW1 9719   2.298   4.692   1.409
35960SOL    HW2 9720   2.412   4.786   1.377
35961SOL     OW 9721  11.429  12.082   2.379
35961SOL    HW1 9722  11.422  12.135   2.300
35961SOL    HW2 9723  11.372  12.007   2.362
35962SOL     OW 9724   4.994   1.066   5.148
35962SOL    HW1 9725   4.998   0.976   5.182
35962SOL    HW2 9726   4.960   1.118   5.221
35963SOL     OW 9727  11.815   5.091   6.573
35963SOL    HW1 9728  11.797   5.058   6.485
35963SOL    HW2 9729  11.835   5.013   6.625
35964SOL     OW 9730  13.773   2.395  10.849
35964SOL    HW1 9731  13.838   2.326  10.834
35964SOL    HW2 9732  13.822   2.477  10.837
35965SOL     OW 9733  13.803   3.603  12.232
35965SOL    HW1 9734  13.750   3.682  12.223
35965SOL    HW2 9735  13.835   3.606  12.322
35966SOL     OW 9736   9.393  11.528   6.153
35966SOL    HW1 9737   9.317  11.495   6.201
35966SOL    HW2 9738   9.467  11.481   6.189
35967SOL     OW 9739   8.679   6.360   9.579
35967SOL    HW1 9740   8.619   6.287   9.564
35967SOL    HW2 9741   8.664   6.385   9.670
35968SOL     OW 9742  12.474   5.453   9.788
35968SOL    HW1 9743  12.395   5.504   9.770
35968SOL    HW2 9744  12.534   5.515   9.829
35969SOL     OW 9745   1.301   1.690   0.315
35969SOL    HW1 9746   1.232   1.640   0.273
35969SOL    HW2 9747   1.353   1.624   0.362
35970SOL     OW 9748  10.539  11.409   4.405
35970SOL    HW1 9749  10.462  11.410   4.462
35970SOL    HW2 9750  10.507  11.369   4.324
35971SOL     OW 9751   0.021   6.903  11.958
35971SOL    HW1 9752   0.047   6.825  12.008
35971SOL    HW2 9753  14.824   6.942  12.009
35972SOL     OW 9754   0.143  13.396  13.927
35972SOL    HW1 9755   0.116  13.308  13.952
35972SOL    HW2 9756   0.062  13.444  13.912
35973SOL     OW 9757   4.571   7.442   6.811
35973SOL    HW1 9758   4.646   7.502   6.814
35973SOL    HW2 9759   4.587   7.380   6.882
35974SOL     OW 9760   7.932  11.876  11.671
35974SOL    HW1 9761   7.989  11.937  11.624
35974SOL    HW2 9762   7.854  11.928  11.693
35975SOL     OW 9763   0.546  10.077  13.565
35975SOL    HW1 9764   0.514  10.089  13.476
35975SOL    HW2 9765   0.468  10.088  13.620
35976SOL     OW 9766   5.422   6.794   4.202
35976SOL    HW1 9767   5.353   6.804   4.137
35976SOL    HW2 9768   5.383   6.825   4.284
35977SOL     OW 9769  12.516   8.150  11.750
35977SOL    HW1 9770  12.608   8.164  11.728
35977SOL    HW2 9771  12.492   8.070  11.704
35978SOL     OW 9772  14.494   5.135   8.854
35978SOL    HW1 9773  14.530   5.213   8.811
35978SOL    HW2 9774  14.560   5.067   8.840
35979SOL     OW 9775   3.122   1.082   4.726
35979SOL    HW1 9776   3.158   0.996   4.747
35979SOL    HW2 9777   3.030   1.077   4.754
35980SOL     OW 9778   8.360   1.133  12.710
35980SOL    HW1 9779   8.277   1.084  12.712
35980SOL    HW2 9780   8.421   1.078  12.759
35981SOL     OW 9781  12.222   0.582   5.615
35981SOL    HW1 9782  12.309   0.559   5.581
35981SOL    HW2 9783  12.228   0.562   5.708
35982SOL     OW 9784  10.728  14.754   5.389
35982SOL    HW1 9785  10.720  14.849   5.403
35982SOL    HW2 9786  10.706  14.715   5.473
35983SOL     OW 9787  14.672  14.654  11.518
35983SOL    HW1 9788  14.697  14.726  11.577
35983SOL    HW2 9789  14.671  14.576  11.574
35984SOL     OW 9790  11.396   8.580  11.600
35984SOL    HW1 9791  11.340   8.655  11.620
35984SOL    HW2 9792  11.461   8.579  11.670
35985SOL     OW 9793   5.106  11.613   6.786
35985SOL    HW1 9794   5.029  11.606   6.841
35985SOL    HW2 9795   5.149  11.694   6.814
35986SOL     OW 9796   2.823   1.222   9.172
35986SOL    HW1 9797   2.836   1.249   9.081
35986SOL    HW2 9798   2.729   1.232   9.186
35987SOL     OW 9799   5.124   6.461  12.995
35987SOL    HW1 9800   5.076   6.433  13.073
35987SOL    HW2 9801   5.160   6.546  13.018
35988SOL     OW 9802   8.264  13.654  13.092
35988SOL    HW1 9803   8.194  13.719  13.103
35988SOL    HW2 9804   8.219  13.570  13.086
35989SOL     OW 9805  11.676   9.813  14.412
35989SOL    HW1 9806  11.725   9.894  14.401
35989SOL    HW2 9807  11.734   9.757  14.464
35990SOL     OW 9808   7.809   0.988   2.744
35990SOL    HW1 9809   7.854   0.941   2.675
35990SOL    HW2 9810   7.784   0.920   2.807
35991SOL     OW 9811   6.937   1.632   7.770
35991SOL    HW1 9812   6.903   1.709   7.725
35991SOL    HW2 9813   6.871   1.564   7.755
35992SOL     OW 9814  10.385  14.043   7.683
35992SOL    HW1 9815  10.415  14.131   7.658
35992SOL    HW2 9816  10.323  14.059   7.754
35993SOL     OW 9817   2.404  10.164   1.167
35993SOL    HW1 9818   2.421  10.182   1.075
35993SOL    HW2 9819   2.331  10.221   1.190
35994SOL     OW 9820  14.870   8.997   0.034
35994SOL    HW1 9821   0.033   8.919   0.076
35994SOL    HW2 9822   0.034   9.071   0.082
35995SOL     OW 9823   8.980  14.612  10.711
35995SOL    HW1 9824   8.989  14.679  10.643
35995SOL    HW2 9825   8.892  14.627  10.747
35996SOL     OW 9826   7.135   2.352  11.537
35996SOL    HW1 9827   7.148   2.431  11.590
35996SOL    HW2 9828   7.199   2.359  11.467
35997SOL     OW 9829   0.639   0.190  13.751
35997SOL    HW1 9830   0.713   0.159  13.802
35997SOL    HW2 9831   0.594   0.111  13.723
35998SOL     OW 9832  12.192   3.819   4.560
35998SOL    HW1 9833  12.271   3.764   4.561
35998SOL    HW2 9834  12.225   3.909   4.564
35999SOL     OW 9835   8.572   4.788  10.772
35999SOL    HW1 9836   8.553   4.707  10.724
35999SOL    HW2 9837   8.513   4.853  10.732
36000SOL     OW 9838   8.636   5.575  12.508
36000SOL    HW1 9839   8.642   5.485  12.539
36000SOL    HW2 9840   8.707   5.584  12.445
36001SOL     OW 9841   7.182   6.826   4.948
36001SOL    HW1 9842   7.120   6.752   4.944
36001SOL    HW2 9843   7.126   6.903   4.946
36002SOL     OW 9844   9.125   7.981   9.425
36002SOL    HW1 9845   9.198   8.016   9.373
36002SOL    HW2 9846   9.076   7.926   9.364
36003SOL     OW 9847   6.745   5.134  14.838
36003SOL    HW1 9848   6.753   5.103  14.748
36003SOL    HW2 9849   6.685   5.072   0.005
36004SOL     OW 9850  10.915   7.644   7.094
36004SOL    HW1 9851  10.927   7.717   7.034
36004SOL    HW2 9852  10.833   7.603   7.067
36005SOL     OW 9853   4.182   5.814   0.510
36005SOL    HW1 9854   4.095   5.801   0.472
36005SOL    HW2 9855   4.172   5.792   0.603
36006SOL     OW 9856  12.837   5.235   9.966
36006SOL    HW1 9857  12.846   5.246  10.061
36006SOL    HW2 9858  12.858   5.143   9.950
36007SOL     OW 9859   3.545   0.001   7.792
36007SOL    HW1 9860   3.498  14.791   7.790
36007SOL    HW2 9861   3.546   0.025   7.884
36008SOL     OW 9862  14.306   1.105   2.635
36008SOL    HW1 9863  14.231   1.155   2.604
36008SOL    HW2 9864  14.289   1.093   2.729
36009SOL     OW 9865  10.600   2.347  11.764
36009SOL    HW1 9866  10.584   2.440  11.748
36009SOL    HW2 9867  10.556   2.329  11.847
36010SOL     OW 9868   6.982  14.640   1.309
36010SOL    HW1 9869   7.004  14.580   1.380
36010SOL    HW2 9870   6.889  14.623   1.292
36011SOL     OW 9871   3.599   3.214   3.071
36011SOL    HW1 9872   3.569   3.270   3.143
36011SOL    HW2 9873   3.520   3.166   3.044
36012SOL     OW 9874  10.779   7.675   1.900
36012SOL    HW1 9875  10.808   7.621   1.827
36012SOL    HW2 9876  10.768   7.762   1.862
36013SOL     OW 9877  10.999  14.872   1.977
36013SOL    HW1 9878  10.931  14.825   1.928
36013SOL    HW2 9879  11.080  14.853   1.928
36014SOL     OW 9880   9.261   8.458   9.748
36014SOL    HW1 9881   9.270   8.455   9.843
36014SOL    HW2 9882   9.269   8.367   9.719
36015SOL     OW 9883   6.908   1.675   8.027
36015SOL    HW1 9884   6.885   1.767   8.036
36015SOL    HW2 9885   6.951   1.668   7.942
36016SOL     OW 9886   5.548  11.626  10.693
36016SOL    HW1 9887   5.562  11.574  10.613
36016SOL    HW2 9888   5.550  11.717  10.663
36017SOL     OW 9889   8.112   7.353   9.914
36017SOL    HW1 9890   8.117   7.404   9.834
36017SOL    HW2 9891   8.029   7.304   9.906
36018SOL     OW 9892  13.334  13.875  10.569
36018SOL    HW1 9893  13.341  13.918  10.654
36018SOL    HW2 9894  13.333  13.947  10.505
36019SOL     OW 9895   1.795   4.078   2.301
36019SOL    HW1 9896   1.767   4.170   2.309
36019SOL    HW2 9897   1.878   4.082   2.255
36020SOL     OW 9898   9.750  14.654   1.554
36020SOL    HW1 9899   9.659  14.626   1.545
36020SOL    HW2 9900   9.752  14.702   1.637
36021SOL     OW 9901   3.115   6.674  11.802
36021SOL    HW1 9902   3.205   6.661  11.833
36021SOL    HW2 9903   3.100   6.768  11.812
36022SOL     OW 9904   1.066   6.522   2.003
36022SOL    HW1 9905   1.021   6.497   1.923
36022SOL    HW2 9906   1.099   6.610   1.986
36023SOL     OW 9907   6.142   8.804  12.346
36023SOL    HW1 9908   6.081   8.737  12.377
36023SOL    HW2 9909   6.219   8.755  12.317
36024SOL     OW 9910   8.443   6.569   2.383
36024SOL    HW1 9911   8.529   6.528   2.377
36024SOL    HW2 9912   8.385   6.498   2.410
36025SOL     OW 9913  13.831  12.870   9.597
36025SOL    HW1 9914  13.853  12.962   9.612
36025SOL    HW2 9915  13.741  12.861   9.628
36026SOL     OW 9916   0.949   5.705   7.073
36026SOL    HW1 9917   0.868   5.665   7.042
36026SOL    HW2 9918   0.949   5.793   7.036
36027SOL     OW 9919   1.047   9.603   0.166
36027SOL    HW1 9920   1.120   9.556   0.206
36027SOL    HW2 9921   0.997   9.637   0.241
36028SOL     OW 9922  11.931   4.416   6.200
36028SOL    HW1 9923  11.940   4.466   6.281
36028SOL    HW2 9924  11.838   4.420   6.180
36029SOL     OW 9925  14.102  11.183   5.183
36029SOL    HW1 9926  14.095  11.210   5.275
36029SOL    HW2 9927  14.174  11.234   5.148
36030SOL     OW 9928  13.782   9.159   2.170
36030SOL    HW1 9929  13.797   9.177   2.077
36030SOL    HW2 9930  13.719   9.087   2.170
36031SOL     OW 9931   8.920  10.013   5.366
36031SOL    HW1 9932   8.919  10.054   5.280
36031SOL    HW2 9933   8.994   9.953   5.364
36032SOL     OW 9934   9.153   1.769  10.178
36032SOL    HW1 9935   9.207   1.703  10.135
36032SOL    HW2 9936   9.213   1.843  10.192
36033SOL     OW 9937   7.415   0.068  14.360
36033SOL    HW1 9938   7.411   0.109  14.447
36033SOL    HW2 9939   7.325   0.041  14.342
36034SOL     OW 9940   5.603   3.894   2.173
36034SOL    HW1 9941   5.514   3.909   2.206
36034SOL    HW2 9942   5.591   3.876   2.080
36035SOL     OW 9943  14.822  13.630   2.816
36035SOL    HW1 9944   0.043  13.621   2.803
36035SOL    HW2 9945  14.813  13.708   2.871
36036SOL     OW 9946   4.446  14.670   2.649
36036SOL    HW1 9947   4.404  14.594   2.689
36036SOL    HW2 9948   4.537  14.666   2.679
36037SOL     OW 9949   9.684  10.344  10.439
36037SOL    HW1 9950   9.696  10.277  10.372
36037SOL    HW2 9951   9.772  10.376  10.458
36038SOL     OW 9952  12.672   1.460   4.575
36038SOL    HW1 9953  12.765   1.453   4.557
36038SOL    HW2 9954  12.667   1.504   4.660
36039SOL     OW 9955  11.014   6.749   7.805
36039SOL    HW1 9956  11.069   6.673   7.823
36039SOL    HW2 9957  11.059   6.822   7.848
36040SOL     OW 9958   8.267  11.022  10.332
36040SOL    HW1 9959   8.292  11.098  10.280
36040SOL    HW2 9960   8.348  10.970  10.338
36041SOL     OW 9961   3.812  10.509  12.046
36041SOL    HW1 9962   3.809  10.541  12.136
36041SOL    HW2 9963   3.810  10.413  12.054
36042SOL     OW 9964   5.202   9.615  13.687
36042SOL    HW1 9965   5.232   9.703  13.665
36042SOL    HW2 9966   5.197   9.615  13.782
36043SOL     OW 9967   4.402   9.597   0.119
36043SOL    HW1 9968   4.428   9.678   0.075
36043SOL    HW2 9969   4.436   9.527   0.064
36044SOL     OW 9970   9.048   2.627   5.759
36044SOL    HW1 9971   9.071   2.602   5.848
36044SOL    HW2 9972   8.966   2.675   5.768
36045SOL     OW 9973  13.993   0.871   9.176
36045SOL    HW1 9974  13.998   0.825   9.092
36045SOL    HW2 9975  13.926   0.938   9.162
36046SOL     OW 9976  13.116  14.240   9.474
36046SOL    HW1 9977  13.124  14.216   9.381
36046SOL    HW2 9978  13.022  14.231   9.493
36047SOL     OW 9979  11.224   9.865  10.825
36047SOL    HW1 9980  11.281   9.941  10.837
36047SOL    HW2 9981  11.200   9.839  10.914
36048SOL     OW 9982   9.567   2.592  14.749
36048SOL    HW1 9983   9.617   2.618  14.826
36048SOL    HW2 9984   9.484   2.560  14.784
36049SOL     OW 9985  10.710  11.849  14.047
36049SOL    HW1 9986  10.664  11.860  14.130
36049SOL    HW2 9987  10.640  11.850  13.981
36050SOL     OW 9988   6.387   6.859  14.766
36050SOL    HW1 9989   6.439   6.783  14.790
36050SOL    HW2 9990   6.327   6.827  14.698
36051SOL     OW 9991   9.711   4.465   7.313
36051SOL    HW1 9992   9.624   4.461   7.272
36051SOL    HW2 9993   9.694   4.491   7.403
36052SOL     OW 9994   3.921  12.406  12.094
36052SOL    HW1 9995   3.899  12.313  12.091
36052SOL    HW2 9996   3.947  12.428  12.005
36053SOL     OW 9997  10.360   3.163  10.186
36053SOL    HW1 9998  10.395   3.074  10.190
36053SOL    HW2 9999  10.298   3.161  10.113
36054SOL     OW10000  10.728   5.368   3.620
36054SOL    HW110001  10.653   5.343   3.566
36054SOL    HW210002  10.723   5.309   3.696
36055SOL     OW10003   9.423   0.743  13.286
36055SOL    HW110004   9.424   0.665  13.231
36055SOL    HW210005   9.377   0.717  13.366
36056SOL     OW10006  12.633   8.936   3.058
36056SOL    HW110007  12.588   8.958   2.976
36056SOL    HW210008  12.686   8.860   3.036
36057SOL     OW10009   0.965  11.201   5.337
36057SOL    HW110010   1.046  11.204   5.287
36057SOL    HW210011   0.975  11.127   5.396
36058SOL     OW10012  14.455  11.851   9.559
36058SOL    HW110013  14.365  11.857   9.525
36058SOL    HW210014  14.450  11.786   9.629
36059SOL     OW10015  12.486   0.347   5.892
36059SOL    HW110016  12.556   0.390   5.842
36059SOL    HW210017  12.475   0.262   5.850
36060SOL     OW10018   0.907   4.066  10.063
36060SOL    HW110019   0.931   4.063   9.970
36060SOL    HW210020   0.971   4.011  10.106
36061SOL     OW10021   3.250   7.626   1.105
36061SOL    HW110022   3.173   7.661   1.059
36061SOL    HW210023   3.321   7.687   1.082
36062SOL     OW10024  12.955   8.974   6.669
36062SOL    HW110025  12.898   8.897   6.668
36062SOL    HW210026  13.044   8.938   6.668
36063SOL     OW10027  13.110   9.872  13.510
36063SOL    HW110028  13.173   9.800  13.509
36063SOL    HW210029  13.126   9.918  13.427
36064SOL     OW10030   1.767   9.970   7.637
36064SOL    HW110031   1.817   9.911   7.581
36064SOL    HW210032   1.801   9.956   7.725
36065SOL     OW10033  12.770   4.793   2.386
36065SOL    HW110034  12.849   4.763   2.343
36065SOL    HW210035  12.790   4.882   2.416
36066SOL     OW10036  11.541   3.243   1.347
36066SOL    HW110037  11.558   3.324   1.299
36066SOL    HW210038  11.613   3.236   1.409
36067SOL     OW10039   2.776   4.069  14.416
36067SOL    HW110040   2.808   4.159  14.428
36067SOL    HW210041   2.707   4.059  14.482
36068SOL     OW10042   1.740   7.006   0.057
36068SOL    HW110043   1.834   6.999   0.038
36068SOL    HW210044   1.736   7.026   0.151
36069SOL     OW10045  10.674   2.672  10.192
36069SOL    HW110046  10.735   2.705  10.125
36069SOL    HW210047  10.624   2.604  10.147
36070SOL     OW10048  11.592   1.520  13.991
36070SOL    HW110049  11.597   1.437  13.944
36070SOL    HW210050  11.677   1.529  14.034
36071SOL     OW10051   0.325   3.710   8.802
36071SOL    HW110052   0.253   3.772   8.814
36071SOL    HW210053   0.338   3.705   8.707
36072SOL     OW10054   9.966   5.277   2.950
36072SOL    HW110055  10.023   5.207   2.919
36072SOL    HW210056   9.911   5.237   3.017
36073SOL     OW10057   5.418   1.122  12.087
36073SOL    HW110058   5.453   1.206  12.115
36073SOL    HW210059   5.484   1.088  12.025
36074SOL     OW10060   7.036   3.839   5.887
36074SOL    HW110061   7.121   3.800   5.909
36074SOL    HW210062   7.051   3.884   5.804
36075SOL     OW10063  12.868   2.721   4.017
36075SOL    HW110064  12.854   2.787   4.084
36075SOL    HW210065  12.798   2.657   4.032
36076SOL     OW10066   4.896   0.837   5.739
36076SOL    HW110067   4.810   0.871   5.762
36076SOL    HW210068   4.910   0.764   5.799
36077SOL     OW10069  10.084   1.540   6.908
36077SOL    HW110070  10.173   1.537   6.873
36077SOL    HW210071  10.049   1.624   6.879
36078SOL     OW10072   8.588  12.046   8.810
36078SOL    HW110073   8.570  11.981   8.879
36078SOL    HW210074   8.624  11.994   8.738
36079SOL     OW10075  12.453   6.709   9.256
36079SOL    HW110076  12.482   6.787   9.209
36079SOL    HW210077  12.437   6.740   9.345
36080SOL     OW10078  13.154   3.315   4.814
36080SOL    HW110079  13.091   3.361   4.758
36080SOL    HW210080  13.237   3.358   4.796
36081SOL     OW10081  14.535  12.134   0.351
36081SOL    HW110082  14.479  12.122   0.274
36081SOL    HW210083  14.566  12.046   0.372
36082SOL     OW10084  14.564   9.649   9.425
36082SOL    HW110085  14.653   9.620   9.405
36082SOL    HW210086  14.556   9.641   9.520
36083SOL     OW10087  10.108  13.025   7.403
36083SOL    HW110088  10.181  12.980   7.445
36083SOL    HW210089  10.104  13.110   7.447
36084SOL     OW10090   6.815  13.250   7.852
36084SOL    HW110091   6.820  13.223   7.760
36084SOL    HW210092   6.722  13.240   7.874
36085SOL     OW10093   6.050   7.984  13.408
36085SOL    HW110094   5.970   7.997  13.460
36085SOL    HW210095   6.026   7.920  13.342
36086SOL     OW10096   7.053   7.880   1.903
36086SOL    HW110097   6.985   7.820   1.933
36086SOL    HW210098   7.077   7.847   1.816
36087SOL     OW10099   5.550   5.350   2.500
36087SOL    HW110100   5.469   5.305   2.526
36087SOL    HW210101   5.520   5.428   2.454
36088SOL     OW10102  14.823   1.260   8.263
36088SOL    HW110103  14.755   1.326   8.248
36088SOL    HW210104  14.822   1.206   8.184
36089SOL     OW10105  12.019   0.545   7.406
36089SOL    HW110106  11.955   0.612   7.381
36089SOL    HW210107  12.072   0.587   7.473
36090SOL     OW10108  13.414  12.515  14.338
36090SOL    HW110109  13.438  12.423  14.329
36090SOL    HW210110  13.496  12.558  14.363
36091SOL     OW10111   0.918  13.843   6.479
36091SOL    HW110112   0.988  13.903   6.454
36091SOL    HW210113   0.931  13.827   6.572
36092SOL     OW10114   4.919  12.708   8.318
36092SOL    HW110115   4.841  12.762   8.307
36092SOL    HW210116   4.938  12.713   8.412
36093SOL     OW10117  13.411   0.916   6.231
36093SOL    HW110118  13.329   0.905   6.183
36093SOL    HW210119  13.417   0.839   6.287
36094SOL     OW10120   0.467  13.756   8.023
36094SOL    HW110121   0.436  13.783   8.110
36094SOL    HW210122   0.432  13.823   7.964
36095SOL     OW10123   4.744  11.767   7.722
36095SOL    HW110124   4.759  11.862   7.722
36095SOL    HW210125   4.744  11.743   7.629
36096SOL     OW10126  10.498   7.229   2.357
36096SOL    HW110127  10.533   7.250   2.270
36096SOL    HW210128  10.452   7.308   2.384
36097SOL     OW10129  12.532   2.131   4.404
36097SOL    HW110130  12.462   2.157   4.345
36097SOL    HW210131  12.488   2.107   4.485
36098SOL     OW10132   6.528   3.580   6.546
36098SOL    HW110133   6.521   3.551   6.455
36098SOL    HW210134   6.618   3.613   6.554
36099SOL     OW10135   1.942   0.317   4.775
36099SOL    HW110136   1.895   0.397   4.753
36099SOL    HW210137   1.881   0.247   4.753
36100SOL     OW10138   5.464   0.902   9.195
36100SOL    HW110139   5.460   0.971   9.261
36100SOL    HW210140   5.556   0.875   9.193
36101SOL     OW10141  13.918   6.750   3.564
36101SOL    HW110142  13.903   6.730   3.472
36101SOL    HW210143  13.924   6.846   3.567
36102SOL     OW10144   8.436   9.787   1.210
36102SOL    HW110145   8.527   9.784   1.182
36102SOL    HW210146   8.422   9.704   1.256
36103SOL     OW10147   0.186  12.026   1.217
36103SOL    HW110148   0.189  11.965   1.291
36103SOL    HW210149   0.218  12.109   1.252
36104SOL     OW10150   7.942   6.911  14.297
36104SOL    HW110151   7.880   6.866  14.354
36104SOL    HW210152   8.028   6.886  14.331
36105SOL     OW10153  12.928   4.793  11.120
36105SOL    HW110154  12.989   4.719  11.115
36105SOL    HW210155  12.841   4.752  11.118
36106SOL     OW10156   5.367   7.747   1.793
36106SOL    HW110157   5.325   7.834   1.797
36106SOL    HW210158   5.389   7.728   1.885
36107SOL     OW10159   9.657  11.971   4.910
36107SOL    HW110160   9.700  11.886   4.905
36107SOL    HW210161   9.594  11.962   4.981
36108SOL     OW10162   0.553   1.194   2.276
36108SOL    HW110163   0.472   1.246   2.278
36108SOL    HW210164   0.577   1.183   2.368
36109SOL     OW10165   6.935   6.967   3.180
36109SOL    HW110166   6.939   6.872   3.168
36109SOL    HW210167   6.984   7.002   3.106
36110SOL     OW10168  14.836   4.436   8.208
36110SOL    HW110169   0.016   4.497   8.258
36110SOL    HW210170   0.016   4.357   8.200
36111SOL     OW10171   0.578  12.132   2.684
36111SOL    HW110172   0.542  12.069   2.747
36111SOL    HW210173   0.501  12.172   2.643
36112SOL     OW10174   6.977   9.175  14.829
36112SOL    HW110175   6.959   9.162   0.048
36112SOL    HW210176   6.896   9.150  14.784
36113SOL     OW10177   8.170   3.183   6.932
36113SOL    HW110178   8.159   3.194   6.838
36113SOL    HW210179   8.265   3.180   6.945
36114SOL     OW10180   7.152   6.522  13.527
36114SOL    HW110181   7.170   6.437  13.565
36114SOL    HW210182   7.210   6.528  13.451
36115SOL     OW10183   7.149  13.441   4.542
36115SOL    HW110184   7.069  13.412   4.585
36115SOL    HW210185   7.217  13.429   4.609
36116SOL     OW10186   0.471  14.640  11.286
36116SOL    HW110187   0.445  14.731  11.296
36116SOL    HW210188   0.558  14.644  11.248
36117SOL     OW10189   9.553   8.581  10.262
36117SOL    HW110190   9.645   8.572  10.234
36117SOL    HW210191   9.513   8.633  10.192
36118SOL     OW10192   0.893   2.898  14.256
36118SOL    HW110193   0.857   2.850  14.330
36118SOL    HW210194   0.985   2.872  14.252
36119SOL     OW10195   2.973   9.547   9.917
36119SOL    HW110196   2.948   9.616   9.856
36119SOL    HW210197   3.058   9.574   9.951
36120SOL     OW10198  11.938   8.572  10.738
36120SOL    HW110199  12.028   8.606  10.737
36120SOL    HW210200  11.948   8.479  10.718
36121SOL     OW10201  14.049  14.777   3.611
36121SOL    HW110202  14.009  14.699   3.650
36121SOL    HW210203  13.976  14.826   3.573
36122SOL     OW10204   3.031   9.623   5.534
36122SOL    HW110205   2.946   9.583   5.552
36122SOL    HW210206   3.083   9.552   5.496
36123SOL     OW10207   0.218   8.458   4.234
36123SOL    HW110208   0.312   8.444   4.232
36123SOL    HW210209   0.180   8.372   4.216
36124SOL     OW10210   0.874  10.849  13.081
36124SOL    HW110211   0.815  10.887  13.146
36124SOL    HW210212   0.889  10.920  13.019
36125SOL     OW10213   6.925   0.190   0.945
36125SOL    HW110214   7.012   0.168   0.911
36125SOL    HW210215   6.908   0.279   0.914
36126SOL     OW10216   9.207   0.132   3.255
36126SOL    HW110217   9.201   0.047   3.299
36126SOL    HW210218   9.221   0.111   3.163
36127SOL     OW10219   2.661  12.677   9.339
36127SOL    HW110220   2.686  12.756   9.386
36127SOL    HW210221   2.565  12.680   9.337
36128SOL     OW10222   0.125   3.414  14.760
36128SOL    HW110223   0.091   3.490  14.807
36128SOL    HW210224   0.208   3.394  14.803
36129SOL     OW10225   1.364  12.685  13.957
36129SOL    HW110226   1.290  12.647  13.910
36129SOL    HW210227   1.392  12.759  13.902
36130SOL     OW10228   4.444  13.043  12.351
36130SOL    HW110229   4.363  13.087  12.324
36130SOL    HW210230   4.414  12.963  12.394
36131SOL     OW10231   1.146   3.218   8.379
36131SOL    HW110232   1.090   3.296   8.384
36131SOL    HW210233   1.222   3.247   8.328
36132SOL     OW10234  12.280   2.704  11.019
36132SOL    HW110235  12.288   2.680  11.112
36132SOL    HW210236  12.193   2.673  10.994
36133SOL     OW10237   9.888  13.741   4.789
36133SOL    HW110238   9.857  13.819   4.834
36133SOL    HW210239   9.948  13.774   4.722
36134SOL     OW10240   7.250  13.404  11.862
36134SOL    HW110241   7.336  13.446  11.859
36134SOL    HW210242   7.249  13.348  11.784
36135SOL     OW10243   4.328   8.890  11.748
36135SOL    HW110244   4.321   8.908  11.841
36135SOL    HW210245   4.237   8.883  11.718
36136SOL     OW10246   0.189   3.832   8.284
36136SOL    HW110247   0.095   3.849   8.279
36136SOL    HW210248   0.199   3.742   8.252
36137SOL     OW10249  12.374   6.777  13.038
36137SOL    HW110250  12.298   6.781  13.097
36137SOL    HW210251  12.433   6.715  13.081
36138SOL     OW10252  13.255   8.425   0.464
36138SOL    HW110253  13.263   8.387   0.552
36138SOL    HW210254  13.189   8.493   0.473
36139SOL     OW10255   5.616   7.745   2.962
36139SOL    HW110256   5.647   7.790   3.041
36139SOL    HW210257   5.577   7.664   2.994
36140SOL     OW10258   3.437  13.265   1.764
36140SOL    HW110259   3.371  13.321   1.805
36140SOL    HW210260   3.435  13.290   1.672
36141SOL     OW10261   1.234   2.065  10.824
36141SOL    HW110262   1.208   2.157  10.828
36141SOL    HW210263   1.320   2.067  10.781
36142SOL     OW10264   6.680  13.301   1.262
36142SOL    HW110265   6.716  13.249   1.334
36142SOL    HW210266   6.594  13.262   1.244
36143SOL     OW10267  14.124   4.888   4.782
36143SOL    HW110268  14.080   4.842   4.853
36143SOL    HW210269  14.062   4.887   4.709
36144SOL     OW10270   6.736  13.639  10.703
36144SOL    HW110271   6.798  13.697  10.748
36144SOL    HW210272   6.776  13.625  10.617
36145SOL     OW10273   4.562   1.054   6.834
36145SOL    HW110274   4.513   1.120   6.785
36145SOL    HW210275   4.646   1.048   6.789
36146SOL     OW10276   0.808  10.326   5.855
36146SOL    HW110277   0.744  10.257   5.834
36146SOL    HW210278   0.870  10.283   5.914
36147SOL     OW10279   1.581   3.887  13.732
36147SOL    HW110280   1.543   3.848  13.653
36147SOL    HW210281   1.672   3.906  13.708
36148SOL     OW10282   0.150   8.085  14.709
36148SOL    HW110283   0.144   8.151  14.778
36148SOL    HW210284   0.092   8.014  14.738
36149SOL     OW10285   2.143   5.361  13.950
36149SOL    HW110286   2.196   5.330  14.024
36149SOL    HW210287   2.188   5.439  13.918
36150SOL     OW10288   7.233   9.374   7.027
36150SOL    HW110289   7.218   9.399   7.118
36150SOL    HW210290   7.268   9.285   7.033
36151SOL     OW10291  10.936   9.044   9.654
36151SOL    HW110292  10.896   8.958   9.659
36151SOL    HW210293  10.913   9.087   9.737
36152SOL     OW10294  12.173   7.120   5.371
36152SOL    HW110295  12.260   7.086   5.395
36152SOL    HW210296  12.145   7.064   5.299
36153SOL     OW10297  12.767   2.901   0.143
36153SOL    HW110298  12.803   2.821   0.180
36153SOL    HW210299  12.693   2.871   0.089
36154SOL     OW10300  11.647   3.844   5.975
36154SOL    HW110301  11.734   3.818   5.945
36154SOL    HW210302  11.645   3.820   6.067
36155SOL     OW10303  12.216   2.131   6.055
36155SOL    HW110304  12.218   2.042   6.020
36155SOL    HW210305  12.298   2.171   6.026
36156SOL     OW10306   9.303  13.152   7.309
36156SOL    HW110307   9.209  13.135   7.307
36156SOL    HW210308   9.329  13.152   7.217
36157SOL     OW10309   8.999   0.020   5.216
36157SOL    HW110310   9.064  14.826   5.197
36157SOL    HW210311   8.950  14.860   5.291
36158SOL     OW10312   1.246   1.049   7.433
36158SOL    HW110313   1.222   0.976   7.489
36158SOL    HW210314   1.306   1.011   7.368
36159SOL     OW10315  13.830   7.084   9.487
36159SOL    HW110316  13.779   7.016   9.443
36159SOL    HW210317  13.794   7.166   9.453
36160SOL     OW10318   8.283  11.538   7.090
36160SOL    HW110319   8.338  11.487   7.150
36160SOL    HW210320   8.216  11.477   7.061
36161SOL     OW10321   9.951   4.249   1.527
36161SOL    HW110322   9.962   4.241   1.432
36161SOL    HW210323   9.948   4.344   1.542
36162SOL     OW10324  11.002   9.408   4.356
36162SOL    HW110325  11.073   9.458   4.315
36162SOL    HW210326  10.985   9.337   4.295
36163SOL     OW10327   3.395   3.171  14.442
36163SOL    HW110328   3.318   3.168  14.498
36163SOL    HW210329   3.395   3.087  14.396
36164SOL     OW10330  13.996   4.856  14.126
36164SOL    HW110331  14.040   4.917  14.185
36164SOL    HW210332  14.063   4.790  14.106
36165SOL     OW10333   7.324  14.560   1.644
36165SOL    HW110334   7.387  14.510   1.695
36165SOL    HW210335   7.261  14.495   1.612
36166SOL     OW10336  11.393   4.260  11.964
36166SOL    HW110337  11.406   4.324  12.034
36166SOL    HW210338  11.319   4.293  11.914
36167SOL     OW10339   2.110   3.490  14.348
36167SOL    HW110340   2.140   3.416  14.401
36167SOL    HW210341   2.088   3.451  14.264
36168SOL     OW10342  12.526   6.027   7.949
36168SOL    HW110343  12.565   6.025   8.036
36168SOL    HW210344  12.598   6.008   7.889
36169SOL     OW10345  11.886   9.201   6.534
36169SOL    HW110346  11.856   9.153   6.611
36169SOL    HW210347  11.966   9.246   6.563
36170SOL     OW10348   9.543  10.232  13.212
36170SOL    HW110349   9.617  10.174  13.190
36170SOL    HW210350   9.583  10.304  13.261
36171SOL     OW10351  13.792   0.563   7.426
36171SOL    HW110352  13.767   0.636   7.482
36171SOL    HW210353  13.871   0.526   7.467
36172SOL     OW10354   4.605   5.843   0.159
36172SOL    HW110355   4.548   5.878   0.228
36172SOL    HW210356   4.618   5.916   0.099
36173SOL     OW10357   0.194   8.745   1.677
36173SOL    HW110358   0.177   8.727   1.769
36173SOL    HW210359   0.158   8.833   1.662
36174SOL     OW10360   2.496   3.964   7.676
36174SOL    HW110361   2.503   4.059   7.682
36174SOL    HW210362   2.417   3.948   7.624
36175SOL     OW10363  13.627   4.495   7.011
36175SOL    HW110364  13.557   4.446   7.054
36175SOL    HW210365  13.694   4.430   6.992
36176SOL     OW10366   7.062   5.888  14.843
36176SOL    HW110367   7.084   5.981  14.847
36176SOL    HW210368   7.077   5.855   0.057
36177SOL     OW10369   8.564  12.618   6.890
36177SOL    HW110370   8.488  12.608   6.947
36177SOL    HW210371   8.601  12.530   6.882
36178SOL     OW10372  12.844   9.946   9.647
36178SOL    HW110373  12.814  10.037   9.646
36178SOL    HW210374  12.914   9.945   9.712
36179SOL     OW10375   8.439  10.724  14.556
36179SOL    HW110376   8.415  10.721  14.464
36179SOL    HW210377   8.504  10.794  14.562
36180SOL     OW10378   4.742  12.537  11.578
36180SOL    HW110379   4.703  12.623  11.565
36180SOL    HW210380   4.836  12.555  11.585
36181SOL     OW10381  10.525   9.396   9.945
36181SOL    HW110382  10.510   9.475   9.997
36181SOL    HW210383  10.512   9.423   9.855
36182SOL     OW10384   7.945   0.894   9.500
36182SOL    HW110385   8.027   0.851   9.527
36182SOL    HW210386   7.882   0.870   9.567
36183SOL     OW10387   1.549   1.027   9.571
36183SOL    HW110388   1.562   1.115   9.534
36183SOL    HW210389   1.637   1.001   9.600
36184SOL     OW10390  13.365   8.973   9.405
36184SOL    HW110391  13.412   8.890   9.407
36184SOL    HW210392  13.431   9.039   9.426
36185SOL     OW10393  10.771   9.345   1.138
36185SOL    HW110394  10.827   9.314   1.208
36185SOL    HW210395  10.689   9.297   1.150
36186SOL     OW10396   3.897   0.787  14.607
36186SOL    HW110397   3.956   0.722  14.570
36186SOL    HW210398   3.929   0.801  14.696
36187SOL     OW10399   8.986   8.047   1.613
36187SOL    HW110400   9.069   8.076   1.574
36187SOL    HW210401   8.954   7.980   1.553
36188SOL     OW10402   2.671   7.178  11.746
36188SOL    HW110403   2.673   7.121  11.823
36188SOL    HW210404   2.652   7.118  11.674
36189SOL     OW10405  10.578   6.167   6.243
36189SOL    HW110406  10.570   6.234   6.174
36189SOL    HW210407  10.498   6.177   6.294
36190SOL     OW10408   4.625   1.806   7.786
36190SOL    HW110409   4.593   1.889   7.750
36190SOL    HW210410   4.575   1.739   7.739
36191SOL     OW10411   7.192  12.555   8.950
36191SOL    HW110412   7.255  12.523   9.015
36191SOL    HW210413   7.237  12.629   8.907
36192SOL     OW10414  10.707   5.601   2.871
36192SOL    HW110415  10.732   5.549   2.794
36192SOL    HW210416  10.790   5.621   2.914
36193SOL     OW10417  10.122   7.894   8.948
36193SOL    HW110418  10.154   7.983   8.964
36193SOL    HW210419  10.201   7.841   8.941
36194SOL     OW10420   8.870   4.361   0.349
36194SOL    HW110421   8.829   4.387   0.267
36194SOL    HW210422   8.810   4.297   0.387
36195SOL     OW10423   5.328   0.682   7.143
36195SOL    HW110424   5.311   0.590   7.120
36195SOL    HW210425   5.423   0.691   7.133
36196SOL     OW10426  14.241   3.249   9.475
36196SOL    HW110427  14.201   3.334   9.460
36196SOL    HW210428  14.169   3.187   9.465
36197SOL     OW10429   6.314  10.787   1.540
36197SOL    HW110430   6.281  10.774   1.451
36197SOL    HW210431   6.243  10.830   1.586
36198SOL     OW10432   0.531   7.903   0.864
36198SOL    HW110433   0.571   7.816   0.864
36198SOL    HW210434   0.484   7.908   0.780
36199SOL     OW10435   0.310   9.155  12.047
36199SOL    HW110436   0.362   9.101  11.988
36199SOL    HW210437   0.224   9.113  12.047
36200SOL     OW10438   0.851   7.654   8.334
36200SOL    HW110439   0.767   7.656   8.380
36200SOL    HW210440   0.871   7.561   8.324
36201SOL     OW10441  11.873   3.848   2.691
36201SOL    HW110442  11.814   3.811   2.625
36201SOL    HW210443  11.944   3.785   2.699
36202SOL     OW10444   1.656   8.296   9.305
36202SOL    HW110445   1.568   8.335   9.311
36202SOL    HW210446   1.642   8.209   9.268
36203SOL     OW10447  10.459   9.934  14.682
36203SOL    HW110448  10.529   9.998  14.675
36203SOL    HW210449  10.503   9.849  14.685
36204SOL     OW10450  12.845   4.582  14.147
36204SOL    HW110451  12.804   4.630  14.075
36204SOL    HW210452  12.772   4.538  14.191
36205SOL     OW10453   1.465  10.857  12.396
36205SOL    HW110454   1.434  10.854  12.487
36205SOL    HW210455   1.527  10.930  12.393
36206SOL     OW10456  12.622   3.122   1.545
36206SOL    HW110457  12.557   3.158   1.605
36206SOL    HW210458  12.702   3.115   1.597
36207SOL     OW10459   6.363  10.672   4.980
36207SOL    HW110460   6.288  10.616   4.960
36207SOL    HW210461   6.388  10.648   5.069
36208SOL     OW10462   9.894  12.069  11.243
36208SOL    HW110463   9.843  12.012  11.300
36208SOL    HW210464   9.842  12.149  11.236
36209SOL     OW10465  11.074  14.363  11.681
36209SOL    HW110466  11.138  14.397  11.618
36209SOL    HW210467  11.061  14.272  11.655
36210SOL     OW10468   8.713  10.639  12.702
36210SOL    HW110469   8.733  10.711  12.762
36210SOL    HW210470   8.661  10.578  12.754
36211SOL     OW10471   5.277  10.441   2.251
36211SOL    HW110472   5.224  10.515   2.224
36211SOL    HW210473   5.216  10.368   2.260
36212SOL     OW10474   4.153   7.978   3.967
36212SOL    HW110475   4.170   7.957   3.875
36212SOL    HW210476   4.103   7.903   4.000
36213SOL     OW10477  13.810   5.842   8.390
36213SOL    HW110478  13.776   5.931   8.392
36213SOL    HW210479  13.807   5.813   8.481
36214SOL     OW10480   9.586  12.013  11.539
36214SOL    HW110481   9.509  12.025  11.484
36214SOL    HW210482   9.551  11.995  11.626
36215SOL     OW10483   6.093  11.976   6.437
36215SOL    HW110484   6.090  11.881   6.443
36215SOL    HW210485   6.183  11.999   6.456
36216SOL     OW10486  10.158   4.295   4.430
36216SOL    HW110487  10.104   4.291   4.351
36216SOL    HW210488  10.221   4.364   4.412
36217SOL     OW10489  10.189   6.174  14.676
36217SOL    HW110490  10.138   6.140  14.602
36217SOL    HW210491  10.195   6.268  14.661
36218SOL     OW10492   0.611   8.022  13.892
36218SOL    HW110493   0.573   7.944  13.851
36218SOL    HW210494   0.550   8.044  13.962
36219SOL     OW10495   9.394   1.600  11.250
36219SOL    HW110496   9.327   1.615  11.316
36219SOL    HW210497   9.448   1.680  11.251
36220SOL     OW10498   1.181  11.495   8.036
36220SOL    HW110499   1.118  11.439   8.082
36220SOL    HW210500   1.159  11.584   8.065
36221SOL     OW10501   4.882  13.299   6.386
36221SOL    HW110502   4.845  13.341   6.463
36221SOL    HW210503   4.811  13.244   6.351
36222SOL     OW10504   7.200   5.175   3.687
36222SOL    HW110505   7.231   5.171   3.596
36222SOL    HW210506   7.229   5.092   3.726
36223SOL     OW10507   9.067  10.945   2.991
36223SOL    HW110508   9.087  11.030   2.952
36223SOL    HW210509   9.115  10.882   2.937
36224SOL     OW10510   4.019   9.158  14.111
36224SOL    HW110511   4.013   9.065  14.134
36224SOL    HW210512   3.934   9.179  14.072
36225SOL     OW10513  11.598   8.893  11.805
36225SOL    HW110514  11.657   8.906  11.731
36225SOL    HW210515  11.545   8.817  11.781
36226SOL     OW10516  12.300   6.204   9.780
36226SOL    HW110517  12.360   6.242   9.845
36226SOL    HW210518  12.342   6.223   9.696
36227SOL     OW10519  12.114   9.871  11.787
36227SOL    HW110520  12.175   9.815  11.835
36227SOL    HW210521  12.058   9.810  11.740
36228SOL     OW10522   9.070   7.941   9.900
36228SOL    HW110523   9.109   7.902   9.822
36228SOL    HW210524   8.977   7.947   9.880
36229SOL     OW10525   0.894   5.188   0.401
36229SOL    HW110526   0.859   5.116   0.454
36229SOL    HW210527   0.825   5.204   0.336
36230SOL     OW10528   4.488   7.037   2.895
36230SOL    HW110529   4.481   7.015   2.988
36230SOL    HW210530   4.555   6.977   2.862
36231SOL     OW10531   9.479   4.740   0.385
36231SOL    HW110532   9.472   4.649   0.358
36231SOL    HW210533   9.389   4.772   0.389
36232SOL     OW10534   0.219   1.095   1.699
36232SOL    HW110535   0.157   1.158   1.662
36232SOL    HW210536   0.197   1.093   1.793
36233SOL     OW10537  12.521   5.241  10.586
36233SOL    HW110538  12.552   5.323  10.624
36233SOL    HW210539  12.444   5.266  10.535
36234SOL     OW10540   3.451   5.553   3.668
36234SOL    HW110541   3.471   5.531   3.759
36234SOL    HW210542   3.471   5.473   3.619
36235SOL     OW10543   6.827   1.777   5.081
36235SOL    HW110544   6.796   1.699   5.034
36235SOL    HW210545   6.863   1.833   5.012
36236SOL     OW10546   6.447   0.470  10.205
36236SOL    HW110547   6.430   0.509  10.120
36236SOL    HW210548   6.369   0.419  10.226
36237SOL     OW10549   8.838   5.457   2.812
36237SOL    HW110550   8.853   5.541   2.769
36237SOL    HW210551   8.773   5.475   2.880
36238SOL     OW10552  13.276   1.993   5.702
36238SOL    HW110553  13.191   1.963   5.671
36238SOL    HW210554  13.276   1.973   5.795
36239SOL     OW10555  14.059   7.374   1.371
36239SOL    HW110556  14.046   7.393   1.464
36239SOL    HW210557  14.144   7.329   1.368
36240SOL     OW10558   4.264  12.122   9.163
36240SOL    HW110559   4.239  12.163   9.080
36240SOL    HW210560   4.327  12.183   9.202
36241SOL     OW10561   9.152  13.070  14.766
36241SOL    HW110562   9.061  13.040  14.770
36241SOL    HW210563   9.204  12.991  14.771
36242SOL     OW10564   1.059   8.314   3.139
36242SOL    HW110565   1.014   8.358   3.212
36242SOL    HW210566   0.993   8.311   3.069
36243SOL     OW10567  12.473   3.280  10.033
36243SOL    HW110568  12.557   3.301   9.993
36243SOL    HW210569  12.448   3.196   9.996
36244SOL     OW10570   5.018   1.413  12.588
36244SOL    HW110571   4.967   1.438  12.511
36244SOL    HW210572   5.061   1.493  12.617
36245SOL     OW10573   2.252   1.522   6.529
36245SOL    HW110574   2.344   1.539   6.547
36245SOL    HW210575   2.251   1.493   6.437
36246SOL     OW10576   0.099  12.501   7.041
36246SOL    HW110577   0.005  12.505   7.061
36246SOL    HW210578   0.130  12.590   7.053
36247SOL     OW10579  11.456  12.164   0.307
36247SOL    HW110580  11.427  12.132   0.221
36247SOL    HW210581  11.448  12.260   0.301
36248SOL     OW10582   1.986   0.318   7.741
36248SOL    HW110583   1.972   0.310   7.647
36248SOL    HW210584   1.907   0.362   7.774
36249SOL     OW10585   7.830   9.726  11.738
36249SOL    HW110586   7.774   9.801  11.753
36249SOL    HW210587   7.909   9.763  11.699
36250SOL     OW10588   1.171   6.479   1.154
36250SOL    HW110589   1.199   6.539   1.224
36250SOL    HW210590   1.252   6.437   1.125
36251SOL     OW10591  12.890   7.337   6.245
36251SOL    HW110592  12.925   7.419   6.210
36251SOL    HW210593  12.952   7.270   6.217
36252SOL     OW10594   3.114   8.057   2.748
36252SOL    HW110595   3.148   8.095   2.667
36252SOL    HW210596   3.029   8.020   2.724
36253SOL     OW10597  14.136   8.854  11.236
36253SOL    HW110598  14.044   8.858  11.263
36253SOL    HW210599  14.183   8.901  11.305
36254SOL     OW10600  11.889  12.957  12.341
36254SOL    HW110601  11.823  12.889  12.356
36254SOL    HW210602  11.940  12.924  12.267
36255SOL     OW10603   6.746  10.254   5.795
36255SOL    HW110604   6.735  10.161   5.813
36255SOL    HW210605   6.776  10.291   5.879
36256SOL     OW10606  10.069  12.248  12.116
36256SOL    HW110607  10.080  12.190  12.040
36256SOL    HW210608  10.067  12.188  12.191
36257SOL     OW10609   8.011  12.858   4.193
36257SOL    HW110610   8.063  12.921   4.242
36257SOL    HW210611   7.920  12.881   4.214
36258SOL     OW10612   3.136   3.716   1.714
36258SOL    HW110613   3.060   3.730   1.770
36258SOL    HW210614   3.198   3.667   1.769
36259SOL     OW10615   5.729   0.444   7.155
36259SOL    HW110616   5.822   0.466   7.168
36259SOL    HW210617   5.716   0.364   7.207
36260SOL     OW10618   5.630   5.269   4.691
36260SOL    HW110619   5.690   5.286   4.763
36260SOL    HW210620   5.687   5.266   4.613
36261SOL     OW10621  14.098  13.738  10.848
36261SOL    HW110622  14.166  13.798  10.817
36261SOL    HW210623  14.067  13.776  10.930
36262SOL     OW10624   2.773  11.097   3.338
36262SOL    HW110625   2.788  11.113   3.245
36262SOL    HW210626   2.772  11.002   3.346
36263SOL     OW10627   7.851  12.285   7.977
36263SOL    HW110628   7.804  12.259   7.898
36263SOL    HW210629   7.870  12.378   7.965
36264SOL     OW10630   3.870  13.287   6.326
36264SOL    HW110631   3.854  13.366   6.377
36264SOL    HW210632   3.830  13.217   6.377
36265SOL     OW10633   8.791   7.252  11.032
36265SOL    HW110634   8.774   7.236  10.939
36265SOL    HW210635   8.724   7.201  11.077
36266SOL     OW10636  14.225  14.108   6.418
36266SOL    HW110637  14.225  14.173   6.347
36266SOL    HW210638  14.314  14.111   6.452
36267SOL     OW10639   0.666   4.117  13.393
36267SOL    HW110640   0.596   4.057  13.366
36267SOL    HW210641   0.644   4.140  13.484
36268SOL     OW10642   6.683   7.943   2.469
36268SOL    HW110643   6.735   7.864   2.455
36268SOL    HW210644   6.661   7.941   2.562
36269SOL     OW10645  13.193   4.005   0.731
36269SOL    HW110646  13.271   4.060   0.722
36269SOL    HW210647  13.120   4.067   0.732
36270SOL     OW10648  13.193  13.038   6.196
36270SOL    HW110649  13.175  13.125   6.231
36270SOL    HW210650  13.284  13.042   6.167
36271SOL     OW10651  11.728   4.700   0.274
36271SOL    HW110652  11.821   4.679   0.275
36271SOL    HW210653  11.685   4.614   0.269
36272SOL     OW10654  12.637   9.962   4.705
36272SOL    HW110655  12.641   9.866   4.713
36272SOL    HW210656  12.579   9.977   4.631
36273SOL     OW10657   5.399   8.687   7.863
36273SOL    HW110658   5.438   8.655   7.945
36273SOL    HW210659   5.386   8.609   7.810
36274SOL     OW10660   3.102  12.346   5.117
36274SOL    HW110661   3.134  12.276   5.059
36274SOL    HW210662   3.089  12.421   5.059
36275SOL     OW10663   4.751   4.565  10.303
36275SOL    HW110664   4.670   4.537  10.345
36275SOL    HW210665   4.820   4.537  10.363
36276SOL     OW10666   1.827   6.525   9.171
36276SOL    HW110667   1.896   6.547   9.234
36276SOL    HW210668   1.868   6.538   9.085
36277SOL     OW10669  12.270  10.170   0.315
36277SOL    HW110670  12.342  10.191   0.375
36277SOL    HW210671  12.295  10.087   0.275
36278SOL     OW10672   8.739  14.075  13.616
36278SOL    HW110673   8.825  14.118  13.622
36278SOL    HW210674   8.759  13.986  13.589
36279SOL     OW10675  14.321   1.542   4.756
36279SOL    HW110676  14.232   1.550   4.790
36279SOL    HW210677  14.359   1.629   4.767
36280SOL     OW10678   5.692  12.566   3.856
36280SOL    HW110679   5.752  12.620   3.907
36280SOL    HW210680   5.647  12.513   3.922
36281SOL     OW10681  13.081   7.511  12.957
36281SOL    HW110682  13.053   7.582  13.015
36281SOL    HW210683  13.159   7.475  13.000
36282SOL     OW10684   2.057   1.157   0.958
36282SOL    HW110685   2.100   1.170   1.042
36282SOL    HW210686   2.101   1.080   0.920
36283SOL     OW10687  14.151  11.939   9.836
36283SOL    HW110688  14.158  11.881   9.912
36283SOL    HW210689  14.077  11.905   9.786
36284SOL     OW10690   2.772   2.305  11.795
36284SOL    HW110691   2.864   2.323  11.815
36284SOL    HW210692   2.730   2.390  11.798
36285SOL     OW10693   7.657   8.933   7.133
36285SOL    HW110694   7.584   8.909   7.076
36285SOL    HW210695   7.716   8.984   7.076
36286SOL     OW10696   3.120   9.940  11.212
36286SOL    HW110697   3.103  10.028  11.177
36286SOL    HW210698   3.174   9.956  11.290
36287SOL     OW10699   5.880  13.011   1.537
36287SOL    HW110700   5.920  12.992   1.622
36287SOL    HW210701   5.860  13.105   1.541
36288SOL     OW10702   8.104  11.727  10.713
36288SOL    HW110703   8.176  11.754  10.657
36288SOL    HW210704   8.082  11.639  10.684
36289SOL     OW10705  12.819   2.832   4.470
36289SOL    HW110706  12.815   2.849   4.376
36289SOL    HW210707  12.828   2.737   4.477
36290SOL     OW10708  14.212   2.431   7.854
36290SOL    HW110709  14.158   2.374   7.799
36290SOL    HW210710  14.234   2.505   7.798
36291SOL     OW10711   3.159   5.112   0.398
36291SOL    HW110712   3.217   5.184   0.373
36291SOL    HW210713   3.218   5.042   0.426
36292SOL     OW10714   2.313  14.757   5.178
36292SOL    HW110715   2.269  14.695   5.121
36292SOL    HW210716   2.393  14.781   5.131
36293SOL     OW10717  11.590  13.761   1.070
36293SOL    HW110718  11.622  13.851   1.064
36293SOL    HW210719  11.670  13.707   1.072
36294SOL     OW10720  12.609   8.858  14.861
36294SOL    HW110721  12.616   8.850   0.082
36294SOL    HW210722  12.698   8.840  14.829
36295SOL     OW10723   7.795   8.032   4.693
36295SOL    HW110724   7.728   8.034   4.624
36295SOL    HW210725   7.821   8.123   4.703
36296SOL     OW10726  13.968  11.411  13.089
36296SOL    HW110727  13.893  11.366  13.050
36296SOL    HW210728  14.033  11.414  13.018
36297SOL     OW10729   6.400   3.026  14.532
36297SOL    HW110730   6.342   2.955  14.502
36297SOL    HW210731   6.352   3.106  14.511
36298SOL     OW10732   7.468   5.394   0.579
36298SOL    HW110733   7.450   5.387   0.673
36298SOL    HW210734   7.544   5.338   0.565
36299SOL     OW10735   5.265   4.133   4.638
36299SOL    HW110736   5.336   4.121   4.575
36299SOL    HW210737   5.260   4.050   4.685
36300SOL     OW10738  12.083   4.746  14.590
36300SOL    HW110739  12.040   4.764  14.674
36300SOL    HW210740  12.020   4.693  14.542
36301SOL     OW10741  10.162   4.774   9.322
36301SOL    HW110742  10.097   4.708   9.297
36301SOL    HW210743  10.112   4.841   9.368
36302SOL     OW10744   5.867   3.733  12.605
36302SOL    HW110745   5.944   3.690  12.568
36302SOL    HW210746   5.886   3.827  12.598
36303SOL     OW10747   0.045   0.101   6.579
36303SOL    HW110748   0.051   0.139   6.492
36303SOL    HW210749  14.841   0.141   6.617
36304SOL     OW10750   6.215   5.945   1.685
36304SOL    HW110751   6.160   5.912   1.615
36304SOL    HW210752   6.206   6.040   1.681
36305SOL     OW10753   6.358  14.455   9.018
36305SOL    HW110754   6.298  14.460   9.093
36305SOL    HW210755   6.353  14.541   8.977
36306SOL     OW10756  10.958   1.758   6.101
36306SOL    HW110757  10.893   1.688   6.106
36306SOL    HW210758  11.037   1.714   6.069
36307SOL     OW10759   9.860   8.277  10.393
36307SOL    HW110760   9.775   8.295  10.432
36307SOL    HW210761   9.916   8.349  10.423
36308SOL     OW10762   8.391   6.977   0.159
36308SOL    HW110763   8.452   6.996   0.087
36308SOL    HW210764   8.359   7.062   0.187
36309SOL     OW10765  13.871  10.496   2.080
36309SOL    HW110766  13.863  10.562   2.150
36309SOL    HW210767  13.809  10.427   2.106
36310SOL     OW10768  12.954  14.813   8.558
36310SOL    HW110769  12.868  14.772   8.564
36310SOL    HW210770  12.974  14.841   8.647
36311SOL     OW10771   5.457   6.279  14.401
36311SOL    HW110772   5.473   6.267  14.495
36311SOL    HW210773   5.389   6.346  14.397
36312SOL     OW10774   0.838   9.863   2.502
36312SOL    HW110775   0.761   9.871   2.444
36312SOL    HW210776   0.807   9.808   2.574
36313SOL     OW10777   3.260  11.888  11.317
36313SOL    HW110778   3.327  11.952  11.340
36313SOL    HW210779   3.283  11.859  11.229
36314SOL     OW10780   5.500   7.043   1.844
36314SOL    HW110781   5.480   7.104   1.772
36314SOL    HW210782   5.419   6.993   1.856
36315SOL     OW10783   6.561   6.828   4.398
36315SOL    HW110784   6.533   6.882   4.324
36315SOL    HW210785   6.654   6.811   4.380
36316SOL     OW10786   5.352   0.597   7.393
36316SOL    HW110787   5.348   0.648   7.312
36316SOL    HW210788   5.266   0.554   7.399
36317SOL     OW10789  12.213  11.222  12.996
36317SOL    HW110790  12.295  11.266  13.020
36317SOL    HW210791  12.180  11.273  12.922
36318SOL     OW10792   4.280   1.048   7.110
36318SOL    HW110793   4.355   1.001   7.073
36318SOL    HW210794   4.298   1.051   7.204
36319SOL     OW10795   0.010   2.117   1.491
36319SOL    HW110796   0.043   2.127   1.402
36319SOL    HW210797  14.804   2.169   1.493
36320SOL     OW10798   7.293  13.056   1.321
36320SOL    HW110799   7.258  13.067   1.409
36320SOL    HW210800   7.353  12.981   1.328
36321SOL     OW10801  11.453   8.716   3.312
36321SOL    HW110802  11.386   8.659   3.274
36321SOL    HW210803  11.406   8.798   3.330
36322SOL     OW10804  13.865  13.775   9.570
36322SOL    HW110805  13.915  13.824   9.504
36322SOL    HW210806  13.803  13.722   9.519
36323SOL     OW10807  11.854   2.628  14.816
36323SOL    HW110808  11.869   2.697  14.751
36323SOL    HW210809  11.776   2.658  14.864
36324SOL     OW10810   4.469  14.204   9.057
36324SOL    HW110811   4.506  14.120   9.083
36324SOL    HW210812   4.472  14.258   9.136
36325SOL     OW10813   4.991  11.097   8.628
36325SOL    HW110814   4.900  11.125   8.632
36325SOL    HW210815   4.986  11.001   8.627
36326SOL     OW10816   9.464   0.235   7.248
36326SOL    HW110817   9.474   0.329   7.263
36326SOL    HW210818   9.396   0.228   7.181
36327SOL     OW10819  11.316   5.372  11.833
36327SOL    HW110820  11.264   5.429  11.775
36327SOL    HW210821  11.405   5.378  11.798
36328SOL     OW10822   3.002   0.751  11.080
36328SOL    HW110823   2.956   0.774  11.160
36328SOL    HW210824   2.970   0.814  11.015
36329SOL     OW10825   3.029  11.920   7.070
36329SOL    HW110826   3.124  11.927   7.054
36329SOL    HW210827   2.999  12.011   7.071
36330SOL     OW10828   1.160  10.323   1.347
36330SOL    HW110829   1.168  10.229   1.367
36330SOL    HW210830   1.169  10.366   1.432
36331SOL     OW10831   3.910   9.879   4.853
36331SOL    HW110832   3.990   9.872   4.801
36331SOL    HW210833   3.895   9.973   4.861
36332SOL     OW10834   9.909   7.280   6.817
36332SOL    HW110835   9.896   7.321   6.902
36332SOL    HW210836  10.002   7.260   6.814
36333SOL     OW10837   7.034   2.289  12.770
36333SOL    HW110838   7.064   2.364  12.821
36333SOL    HW210839   6.968   2.247  12.824
36334SOL     OW10840   4.472  10.994   6.349
36334SOL    HW110841   4.406  11.046   6.393
36334SOL    HW210842   4.524  11.057   6.299
36335SOL     OW10843   7.057   6.692   6.522
36335SOL    HW110844   6.998   6.668   6.594
36335SOL    HW210845   7.019   6.649   6.446
36336SOL     OW10846   1.391  11.061   5.426
36336SOL    HW110847   1.435  11.100   5.350
36336SOL    HW210848   1.422  10.970   5.427
36337SOL     OW10849   7.664   0.206  11.168
36337SOL    HW110850   7.591   0.265  11.186
36337SOL    HW210851   7.654   0.184  11.076
36338SOL     OW10852   2.954  14.271   0.615
36338SOL    HW110853   2.903  14.202   0.658
36338SOL    HW210854   2.946  14.347   0.673
36339SOL     OW10855  10.328   7.420   2.464
36339SOL    HW110856  10.292   7.460   2.385
36339SOL    HW210857  10.272   7.345   2.481
36340SOL     OW10858  12.286  14.061   8.640
36340SOL    HW110859  12.254  13.973   8.617
36340SOL    HW210860  12.307  14.102   8.557
36341SOL     OW10861  11.811  10.649  13.918
36341SOL    HW110862  11.879  10.680  13.978
36341SOL    HW210863  11.737  10.707  13.933
36342SOL     OW10864   6.311  12.344   9.691
36342SOL    HW110865   6.402  12.365   9.673
36342SOL    HW210866   6.312  12.252   9.717
36343SOL     OW10867   0.061  11.512   5.507
36343SOL    HW110868   0.154  11.532   5.522
36343SOL    HW210869   0.020  11.597   5.493
36344SOL     OW10870  12.087  12.339   3.873
36344SOL    HW110871  12.159  12.298   3.824
36344SOL    HW210872  12.127  12.414   3.916
36345SOL     OW10873   0.526   5.552   9.702
36345SOL    HW110874   0.446   5.598   9.677
36345SOL    HW210875   0.498   5.489   9.769
36346SOL     OW10876   7.044  14.485  14.240
36346SOL    HW110877   7.096  14.538  14.300
36346SOL    HW210878   6.982  14.439  14.296
36347SOL     OW10879  12.822   5.330   6.887
36347SOL    HW110880  12.729   5.334   6.910
36347SOL    HW210881  12.823   5.335   6.791
36348SOL     OW10882  11.736  13.828   8.493
36348SOL    HW110883  11.757  13.741   8.525
36348SOL    HW210884  11.689  13.870   8.565
36349SOL     OW10885   0.105  14.190   7.250
36349SOL    HW110886   0.148  14.230   7.174
36349SOL    HW210887   0.053  14.261   7.288
36350SOL     OW10888   4.650   8.920   7.966
36350SOL    HW110889   4.689   8.955   8.046
36350SOL    HW210890   4.558   8.948   7.970
36351SOL     OW10891   9.151   6.226   1.900
36351SOL    HW110892   9.091   6.174   1.953
36351SOL    HW210893   9.100   6.301   1.871
36352SOL     OW10894   4.918   1.698  11.474
36352SOL    HW110895   5.000   1.724  11.433
36352SOL    HW210896   4.906   1.762  11.545
36353SOL     OW10897   7.650   9.089   4.892
36353SOL    HW110898   7.734   9.101   4.848
36353SOL    HW210899   7.634   9.172   4.938
36354SOL     OW10900   4.628  14.774  14.285
36354SOL    HW110901   4.610  14.754  14.193
36354SOL    HW210902   4.557  14.731  14.333
36355SOL     OW10903   4.497   6.186   8.306
36355SOL    HW110904   4.462   6.163   8.392
36355SOL    HW210905   4.534   6.105   8.272
36356SOL     OW10906   1.995  10.007   1.092
36356SOL    HW110907   2.060   9.945   1.124
36356SOL    HW210908   2.036  10.050   1.017
36357SOL     OW10909   8.335  11.636   4.830
36357SOL    HW110910   8.250  11.606   4.797
36357SOL    HW210911   8.382  11.666   4.752
36358SOL     OW10912  12.362  12.023  13.236
36358SOL    HW110913  12.346  12.036  13.143
36358SOL    HW210914  12.457  12.008  13.242
36359SOL     OW10915   0.110   3.830   0.772
36359SOL    HW110916   0.191   3.779   0.768
36359SOL    HW210917   0.040   3.764   0.774
36360SOL     OW10918   0.251  12.808  11.611
36360SOL    HW110919   0.171  12.849  11.643
36360SOL    HW210920   0.298  12.878  11.566
36361SOL     OW10921   0.498   6.824  11.352
36361SOL    HW110922   0.510   6.737  11.314
36361SOL    HW210923   0.417   6.856  11.312
36362SOL     OW10924   0.878   3.369   8.114
36362SOL    HW110925   0.925   3.370   8.197
36362SOL    HW210926   0.801   3.425   8.129
36363SOL     OW10927  12.299   1.062  11.685
36363SOL    HW110928  12.360   1.043  11.613
36363SOL    HW210929  12.214   1.031  11.653
36364SOL     OW10930   5.644   1.057  11.244
36364SOL    HW110931   5.557   1.088  11.268
36364SOL    HW210932   5.627   0.982  11.186
36365SOL     OW10933  10.329   2.424   7.434
36365SOL    HW110934  10.375   2.478   7.499
36365SOL    HW210935  10.288   2.486   7.375
36366SOL     OW10936  11.827  13.423   6.231
36366SOL    HW110937  11.817  13.491   6.297
36366SOL    HW210938  11.755  13.362   6.247
36367SOL     OW10939   0.592   2.919   5.373
36367SOL    HW110940   0.553   2.985   5.315
36367SOL    HW210941   0.679   2.904   5.337
36368SOL     OW10942   5.650  12.474   1.476
36368SOL    HW110943   5.677  12.461   1.385
36368SOL    HW210944   5.728  12.453   1.527
36369SOL     OW10945   0.812  13.270   0.516
36369SOL    HW110946   0.856  13.186   0.533
36369SOL    HW210947   0.854  13.303   0.437
36370SOL     OW10948   1.660  13.892   9.390
36370SOL    HW110949   1.668  13.896   9.486
36370SOL    HW210950   1.670  13.982   9.361
36371SOL     OW10951   0.917   3.213   4.267
36371SOL    HW110952   0.879   3.125   4.265
36371SOL    HW210953   0.882   3.256   4.189
36372SOL     OW10954   7.101   9.703   4.638
36372SOL    HW110955   7.029   9.645   4.614
36372SOL    HW210956   7.145   9.658   4.710
36373SOL     OW10957   0.150   7.483  14.689
36373SOL    HW110958   0.166   7.572  14.656
36373SOL    HW210959   0.226   7.433  14.659
36374SOL     OW10960   4.112   1.022   0.193
36374SOL    HW110961   4.125   1.094   0.131
36374SOL    HW210962   4.192   0.970   0.186
36375SOL     OW10963   1.283   0.878  10.747
36375SOL    HW110964   1.274   0.854  10.839
36375SOL    HW210965   1.286   0.973  10.747
36376SOL     OW10966   6.742   9.183   9.664
36376SOL    HW110967   6.768   9.154   9.576
36376SOL    HW210968   6.680   9.116   9.693
36377SOL     OW10969   7.845   9.692   4.929
36377SOL    HW110970   7.896   9.759   4.973
36377SOL    HW210971   7.756   9.703   4.962
36378SOL     OW10972   8.066   5.168  12.037
36378SOL    HW110973   8.012   5.110  11.984
36378SOL    HW210974   8.005   5.234  12.071
36379SOL     OW10975   1.511   6.562   1.943
36379SOL    HW110976   1.466   6.495   1.994
36379SOL    HW210977   1.542   6.625   2.009
36380SOL     OW10978  14.403  11.770   2.634
36380SOL    HW110979  14.406  11.790   2.727
36380SOL    HW210980  14.488  11.797   2.601
36381SOL     OW10981   6.806  13.230   2.872
36381SOL    HW110982   6.750  13.258   2.945
36381SOL    HW210983   6.858  13.159   2.908
36382SOL     OW10984   8.350   9.917   0.346
36382SOL    HW110985   8.335   9.948   0.435
36382SOL    HW210986   8.412   9.979   0.308
36383SOL     OW10987  14.367  11.763   6.944
36383SOL    HW110988  14.345  11.670   6.950
36383SOL    HW210989  14.284  11.808   6.959
36384SOL     OW10990   5.680  12.139  13.566
36384SOL    HW110991   5.751  12.191  13.528
36384SOL    HW210992   5.613  12.138  13.499
36385SOL     OW10993   2.156  10.989   4.417
36385SOL    HW110994   2.084  10.927   4.430
36385SOL    HW210995   2.143  11.054   4.486
36386SOL     OW10996  12.241   1.697  11.907
36386SOL    HW110997  12.199   1.742  11.980
36386SOL    HW210998  12.193   1.614  11.899
36387SOL     OW10999   7.367  14.081   2.424
36387SOL    HW111000   7.276  14.054   2.411
36387SOL    HW211001   7.361  14.172   2.452
36388SOL     OW11002   6.114   7.251  11.964
36388SOL    HW111003   6.170   7.174  11.955
36388SOL    HW211004   6.175   7.325  11.969
36389SOL     OW11005  14.840   2.913  14.430
36389SOL    HW111006  14.842   2.859  14.510
36389SOL    HW211007  14.837   2.849  14.359
36390SOL     OW11008   2.779  11.526   9.536
36390SOL    HW111009   2.722  11.544   9.611
36390SOL    HW211010   2.757  11.437   9.510
36391SOL     OW11011   4.003  11.301   6.744
36391SOL    HW111012   3.909  11.304   6.726
36391SOL    HW211013   4.044  11.335   6.665
36392SOL     OW11014   5.400   9.809   5.600
36392SOL    HW111015   5.455   9.864   5.656
36392SOL    HW211016   5.426   9.720   5.621
36393SOL     OW11017  13.217  10.893   3.760
36393SOL    HW111018  13.210  10.906   3.665
36393SOL    HW211019  13.185  10.975   3.798
36394SOL     OW11020   5.561  14.594   4.584
36394SOL    HW111021   5.602  14.604   4.498
36394SOL    HW211022   5.490  14.657   4.584
36395SOL     OW11023   4.838   5.078   1.332
36395SOL    HW111024   4.742   5.082   1.335
36395SOL    HW211025   4.867   5.151   1.386
36396SOL     OW11026   1.000   5.808  11.731
36396SOL    HW111027   0.991   5.744  11.660
36396SOL    HW211028   1.071   5.774  11.785
36397SOL     OW11029   0.914   7.561  12.793
36397SOL    HW111030   0.863   7.496  12.841
36397SOL    HW211031   1.004   7.546  12.821
36398SOL     OW11032   5.139  10.097   7.959
36398SOL    HW111033   5.185  10.013   7.954
36398SOL    HW211034   5.177  10.148   7.888
36399SOL     OW11035  11.142   3.369  14.084
36399SOL    HW111036  11.140   3.291  14.140
36399SOL    HW211037  11.085   3.348  14.011
36400SOL     OW11038   5.744   6.109   4.423
36400SOL    HW111039   5.758   6.160   4.503
36400SOL    HW211040   5.672   6.152   4.378
36401SOL     OW11041   0.098  13.493   3.416
36401SOL    HW111042   0.135  13.466   3.332
36401SOL    HW211043   0.076  13.411   3.460
36402SOL     OW11044   5.172   0.143   3.628
36402SOL    HW111045   5.221   0.086   3.687
36402SOL    HW211046   5.214   0.228   3.636
36403SOL     OW11047  12.926   9.132  11.261
36403SOL    HW111048  12.998   9.082  11.300
36403SOL    HW211049  12.912   9.204  11.321
36404SOL     OW11050  11.310   2.820  11.800
36404SOL    HW111051  11.357   2.887  11.750
36404SOL    HW211052  11.346   2.737  11.768
36405SOL     OW11053  14.536   9.247   8.943
36405SOL    HW111054  14.625   9.267   8.914
36405SOL    HW211055  14.524   9.301   9.022
36406SOL     OW11056   9.202   4.295   0.587
36406SOL    HW111057   9.297   4.302   0.595
36406SOL    HW211058   9.177   4.233   0.656
36407SOL     OW11059   4.261  14.196  10.526
36407SOL    HW111060   4.165  14.201  10.529
36407SOL    HW211061   4.283  14.126  10.587
36408SOL     OW11062  13.158   6.048   5.218
36408SOL    HW111063  13.112   5.990   5.279
36408SOL    HW211064  13.240   6.003   5.200
36409SOL     OW11065   8.085   4.951   4.132
36409SOL    HW111066   8.145   4.970   4.204
36409SOL    HW211067   8.142   4.918   4.062
36410SOL     OW11068   9.274   4.295  14.574
36410SOL    HW111069   9.263   4.322  14.482
36410SOL    HW211070   9.368   4.305  14.590
36411SOL     OW11071  14.721   1.487   7.465
36411SOL    HW111072  14.668   1.408   7.469
36411SOL    HW211073  14.733   1.503   7.371
36412SOL     OW11074   7.261   2.363   0.142
36412SOL    HW111075   7.245   2.431   0.077
36412SOL    HW211076   7.187   2.303   0.133
36413SOL     OW11077  10.898  10.916  13.221
36413SOL    HW111078  10.973  10.967  13.190
36413SOL    HW211079  10.878  10.952  13.308
36414SOL     OW11080   5.066   2.016   3.731
36414SOL    HW111081   4.994   1.956   3.711
36414SOL    HW211082   5.023   2.094   3.767
36415SOL     OW11083   6.663  10.876   4.666
36415SOL    HW111084   6.714  10.955   4.682
36415SOL    HW211085   6.572  10.903   4.677
36416SOL     OW11086   6.965   6.214   6.832
36416SOL    HW111087   6.884   6.202   6.781
36416SOL    HW211088   7.034   6.220   6.766
36417SOL     OW11089  11.665  11.085   9.699
36417SOL    HW111090  11.622  11.142   9.763
36417SOL    HW211091  11.610  11.007   9.696
36418SOL     OW11092   9.207   5.106   1.316
36418SOL    HW111093   9.160   5.189   1.312
36418SOL    HW211094   9.250   5.099   1.231
36419SOL     OW11095  11.453   6.751   5.704
36419SOL    HW111096  11.377   6.784   5.752
36419SOL    HW211097  11.524   6.811   5.725
36420SOL     OW11098   8.104  10.584  12.098
36420SOL    HW111099   8.133  10.666  12.136
36420SOL    HW211100   8.094  10.525  12.172
36421SOL     OW11101   9.155   1.853   6.316
36421SOL    HW111102   9.154   1.765   6.277
36421SOL    HW211103   9.092   1.903   6.263
36422SOL     OW11104   9.769  14.769   1.310
36422SOL    HW111105   9.770  14.748   1.404
36422SOL    HW211106   9.836  14.712   1.273
36423SOL     OW11107   7.722  13.866  13.234
36423SOL    HW111108   7.644  13.905  13.193
36423SOL    HW211109   7.732  13.915  13.315
36424SOL     OW11110  14.429   0.107  11.376
36424SOL    HW111111  14.343   0.106  11.416
36424SOL    HW211112  14.480   0.044  11.428
36425SOL     OW11113  10.677   4.568   9.410
36425SOL    HW111114  10.620   4.642   9.389
36425SOL    HW211115  10.632   4.491   9.374
36426SOL     OW11116  10.887   6.558   9.638
36426SOL    HW111117  10.914   6.482   9.689
36426SOL    HW211118  10.815   6.526   9.583
36427SOL     OW11119  10.100   9.090  11.546
36427SOL    HW111120  10.060   9.098  11.633
36427SOL    HW211121  10.027   9.072  11.487
36428SOL     OW11122   1.558   8.335   2.034
36428SOL    HW111123   1.651   8.324   2.017
36428SOL    HW211124   1.541   8.276   2.108
36429SOL     OW11125   8.946   1.527   5.155
36429SOL    HW111126   8.946   1.491   5.066
36429SOL    HW211127   8.907   1.615   5.145
36430SOL     OW11128   4.568  11.247  12.512
36430SOL    HW111129   4.644  11.273  12.564
36430SOL    HW211130   4.522  11.329  12.494
36431SOL     OW11131  13.011  10.374   2.113
36431SOL    HW111132  12.943  10.381   2.046
36431SOL    HW211133  12.994  10.447   2.172
36432SOL     OW11134  10.997  11.386   1.856
36432SOL    HW111135  11.005  11.471   1.814
36432SOL    HW211136  10.931  11.399   1.924
36433SOL     OW11137   1.525  14.426  13.942
36433SOL    HW111138   1.557  14.344  13.979
36433SOL    HW211139   1.547  14.419  13.849
36434SOL     OW11140  12.774  10.763  12.763
36434SOL    HW111141  12.811  10.739  12.848
36434SOL    HW211142  12.847  10.801  12.714
36435SOL     OW11143  13.030  11.469   8.109
36435SOL    HW111144  13.042  11.428   8.195
36435SOL    HW211145  12.946  11.435   8.077
36436SOL     OW11146   1.821   5.554   6.564
36436SOL    HW111147   1.837   5.507   6.646
36436SOL    HW211148   1.764   5.495   6.514
36437SOL     OW11149  12.519  12.745   1.839
36437SOL    HW111150  12.487  12.671   1.789
36437SOL    HW211151  12.488  12.728   1.928
36438SOL     OW11152   8.626   0.173  11.929
36438SOL    HW111153   8.687   0.239  11.895
36438SOL    HW211154   8.593   0.129  11.850
36439SOL     OW11155  11.399   5.172  12.494
36439SOL    HW111156  11.338   5.123  12.440
36439SOL    HW211157  11.404   5.258  12.452
36440SOL     OW11158  14.484  14.544   3.903
36440SOL    HW111159  14.485  14.457   3.944
36440SOL    HW211160  14.547  14.595   3.953
36441SOL     OW11161   0.102   2.558  11.789
36441SOL    HW111162   0.108   2.620  11.862
36441SOL    HW211163   0.033   2.497  11.815
36442SOL     OW11164   0.041  13.960  12.430
36442SOL    HW111165   0.036  14.039  12.484
36442SOL    HW211166   0.026  13.888  12.492
36443SOL     OW11167   4.861   5.844   6.819
36443SOL    HW111168   4.827   5.932   6.835
36443SOL    HW211169   4.913   5.824   6.896
36444SOL     OW11170  14.323   9.357  14.455
36444SOL    HW111171  14.243   9.314  14.424
36444SOL    HW211172  14.314   9.358  14.550
36445SOL     OW11173   7.758   9.642   0.265
36445SOL    HW111174   7.702   9.661   0.341
36445SOL    HW211175   7.821   9.578   0.298
36446SOL     OW11176  11.463   8.739  13.133
36446SOL    HW111177  11.426   8.804  13.193
36446SOL    HW211178  11.388   8.686  13.106
36447SOL     OW11179   6.161  10.428   2.634
36447SOL    HW111180   6.088  10.450   2.576
36447SOL    HW211181   6.130  10.351   2.683
36448SOL     OW11182   1.281   2.545   1.301
36448SOL    HW111183   1.280   2.515   1.392
36448SOL    HW211184   1.373   2.561   1.282
36449SOL     OW11185  14.507   6.207   1.830
36449SOL    HW111186  14.512   6.289   1.782
36449SOL    HW211187  14.593   6.167   1.818
36450SOL     OW11188   3.157   8.386   8.162
36450SOL    HW111189   3.242   8.415   8.196
36450SOL    HW211190   3.096   8.454   8.190
36451SOL     OW11191  14.178  12.742   8.604
36451SOL    HW111192  14.129  12.660   8.616
36451SOL    HW211193  14.269  12.714   8.599
36452SOL     OW11194   9.767  14.129   1.580
36452SOL    HW111195   9.845  14.087   1.543
36452SOL    HW211196   9.743  14.196   1.516
36453SOL     OW11197   1.231   9.942   9.069
36453SOL    HW111198   1.247   9.867   9.012
36453SOL    HW211199   1.159   9.915   9.125
36454SOL     OW11200   5.324  11.824  10.709
36454SOL    HW111201   5.321  11.752  10.773
36454SOL    HW211202   5.277  11.895  10.752
36455SOL     OW11203   0.228  14.160  10.198
36455SOL    HW111204   0.150  14.171  10.253
36455SOL    HW211205   0.278  14.240  10.212
36456SOL     OW11206   3.512   7.778   1.048
36456SOL    HW111207   3.482   7.841   0.983
36456SOL    HW211208   3.607   7.782   1.043
36457SOL     OW11209   4.918   6.161  11.464
36457SOL    HW111210   4.876   6.086  11.506
36457SOL    HW211211   4.845   6.218  11.437
36458SOL     OW11212  13.956   6.603   1.456
36458SOL    HW111213  13.968   6.597   1.362
36458SOL    HW211214  13.962   6.697   1.476
36459SOL     OW11215   7.625   6.530   5.388
36459SOL    HW111216   7.671   6.455   5.351
36459SOL    HW211217   7.560   6.492   5.447
36460SOL     OW11218   5.714   5.243   1.018
36460SOL    HW111219   5.726   5.151   1.040
36460SOL    HW211220   5.696   5.286   1.102
36461SOL     OW11221   7.985   7.568   9.264
36461SOL    HW111222   7.959   7.614   9.344
36461SOL    HW211223   7.925   7.602   9.197
36462SOL     OW11224   3.874   7.358  14.148
36462SOL    HW111225   3.921   7.365  14.065
36462SOL    HW211226   3.938   7.382  14.214
36463SOL     OW11227  12.928   9.288  12.979
36463SOL    HW111228  12.977   9.225  12.926
36463SOL    HW211229  12.994   9.331  13.033
36464SOL     OW11230  10.622   9.072  10.358
36464SOL    HW111231  10.591   9.155  10.393
36464SOL    HW211232  10.628   9.014  10.434
36465SOL     OW11233   1.653   1.793  13.185
36465SOL    HW111234   1.747   1.801  13.201
36465SOL    HW211235   1.646   1.745  13.102
36466SOL     OW11236   3.516   9.160   6.361
36466SOL    HW111237   3.440   9.141   6.306
36466SOL    HW211238   3.490   9.236   6.414
36467SOL     OW11239   9.345  10.586   7.003
36467SOL    HW111240   9.385  10.516   6.951
36467SOL    HW211241   9.418  10.625   7.052
36468SOL     OW11242   7.266   6.789   0.747
36468SOL    HW111243   7.205   6.804   0.675
36468SOL    HW211244   7.344   6.839   0.723
36469SOL     OW11245  12.968   2.436   7.385
36469SOL    HW111246  12.935   2.346   7.385
36469SOL    HW211247  12.929   2.476   7.308
36470SOL     OW11248   4.530   4.668   9.355
36470SOL    HW111249   4.549   4.671   9.261
36470SOL    HW211250   4.606   4.623   9.393
36471SOL     OW11251   1.270   4.027  12.735
36471SOL    HW111252   1.363   4.021  12.759
36471SOL    HW211253   1.270   4.064  12.647
36472SOL     OW11254   8.743   6.388   8.017
36472SOL    HW111255   8.766   6.368   7.926
36472SOL    HW211256   8.682   6.461   8.010
36473SOL     OW11257   9.064   1.473   6.632
36473SOL    HW111258   9.133   1.537   6.613
36473SOL    HW211259   8.983   1.524   6.633
36474SOL     OW11260   1.048   3.641   0.208
36474SOL    HW111261   1.000   3.705   0.155
36474SOL    HW211262   1.036   3.671   0.298
36475SOL     OW11263   2.412  12.632  13.434
36475SOL    HW111264   2.351  12.675  13.374
36475SOL    HW211265   2.404  12.681  13.516
36476SOL     OW11266   0.324   3.442   4.968
36476SOL    HW111267   0.415   3.433   4.939
36476SOL    HW211268   0.330   3.490   5.051
36477SOL     OW11269   2.930   9.032   1.583
36477SOL    HW111270   2.896   9.085   1.655
36477SOL    HW211271   3.020   9.063   1.570
36478SOL     OW11272   7.918   5.758   9.722
36478SOL    HW111273   7.859   5.833   9.717
36478SOL    HW211274   7.942   5.740   9.631
36479SOL     OW11275   9.390   9.287  11.772
36479SOL    HW111276   9.355   9.375  11.788
36479SOL    HW211277   9.367   9.237  11.851
36480SOL     OW11278  11.530  12.847   5.245
36480SOL    HW111279  11.571  12.800   5.318
36480SOL    HW211280  11.502  12.778   5.185
36481SOL     OW11281   5.591   4.725   1.564
36481SOL    HW111282   5.673   4.775   1.559
36481SOL    HW211283   5.531   4.771   1.506
36482SOL     OW11284   4.618  12.763   6.311
36482SOL    HW111285   4.599  12.706   6.386
36482SOL    HW211286   4.542  12.821   6.304
36483SOL     OW11287  12.377  10.505  12.371
36483SOL    HW111288  12.454  10.520  12.317
36483SOL    HW211289  12.408  10.450  12.443
36484SOL     OW11290   8.101  14.295   8.163
36484SOL    HW111291   8.091  14.253   8.248
36484SOL    HW211292   8.183  14.345   8.171
36485SOL     OW11293   6.715  10.930  10.246
36485SOL    HW111294   6.745  10.981  10.322
36485SOL    HW211295   6.783  10.943  10.180
36486SOL     OW11296   5.525   5.777   4.725
36486SOL    HW111297   5.567   5.805   4.807
36486SOL    HW211298   5.532   5.681   4.726
36487SOL     OW11299   2.166  13.728   9.031
36487SOL    HW111300   2.228  13.745   8.960
36487SOL    HW211301   2.177  13.635   9.050
36488SOL     OW11302   0.645   1.676   7.471
36488SOL    HW111303   0.639   1.592   7.516
36488SOL    HW211304   0.738   1.700   7.478
36489SOL     OW11305   6.423   0.188   3.595
36489SOL    HW111306   6.515   0.182   3.567
36489SOL    HW211307   6.424   0.159   3.686
36490SOL     OW11308   0.252   4.073  12.375
36490SOL    HW111309   0.238   3.986  12.336
36490SOL    HW211310   0.338   4.100  12.341
36491SOL     OW11311  13.183  11.144   3.046
36491SOL    HW111312  13.119  11.161   2.977
36491SOL    HW211313  13.193  11.229   3.090
36492SOL     OW11314   5.277   9.229   4.414
36492SOL    HW111315   5.348   9.261   4.470
36492SOL    HW211316   5.240   9.155   4.462
36493SOL     OW11317  10.037  13.320   6.198
36493SOL    HW111318  10.071  13.362   6.120
36493SOL    HW211319  10.097  13.345   6.268
36494SOL     OW11320  13.254   8.238   5.208
36494SOL    HW111321  13.336   8.266   5.249
36494SOL    HW211322  13.198   8.212   5.281
36495SOL     OW11323   3.666   3.403   5.184
36495SOL    HW111324   3.593   3.464   5.198
36495SOL    HW211325   3.723   3.449   5.123
36496SOL     OW11326   5.993   0.497  10.915
36496SOL    HW111327   5.932   0.500  10.989
36496SOL    HW211328   5.979   0.411  10.876
36497SOL     OW11329   8.593  13.176   8.152
36497SOL    HW111330   8.512  13.150   8.198
36497SOL    HW211331   8.663  13.157   8.215
36498SOL     OW11332   5.286   5.496   6.424
36498SOL    HW111333   5.240   5.570   6.464
36498SOL    HW211334   5.331   5.534   6.349
36499SOL     OW11335   6.806   1.611   6.172
36499SOL    HW111336   6.884   1.636   6.122
36499SOL    HW211337   6.744   1.580   6.106
36500SOL     OW11338  10.393   7.583  11.458
36500SOL    HW111339  10.413   7.536  11.539
36500SOL    HW211340  10.477   7.585  11.411
36501SOL     OW11341   9.126   6.094   0.788
36501SOL    HW111342   9.151   6.001   0.790
36501SOL    HW211343   9.031   6.094   0.793
36502SOL     OW11344   5.362   4.808  12.228
36502SOL    HW111345   5.371   4.856  12.311
36502SOL    HW211346   5.350   4.877  12.162
36503SOL     OW11347   8.568   1.665  14.352
36503SOL    HW111348   8.658   1.644  14.374
36503SOL    HW211349   8.516   1.596  14.393
36504SOL     OW11350  14.482   2.826   1.511
36504SOL    HW111351  14.529   2.742   1.513
36504SOL    HW211352  14.550   2.892   1.524
36505SOL     OW11353  10.908   1.571   2.594
36505SOL    HW111354  10.918   1.639   2.527
36505SOL    HW211355  10.826   1.594   2.638
36506SOL     OW11356  12.201  14.702   5.713
36506SOL    HW111357  12.199  14.781   5.660
36506SOL    HW211358  12.134  14.716   5.780
36507SOL     OW11359  11.210   2.988   5.982
36507SOL    HW111360  11.268   2.915   5.960
36507SOL    HW211361  11.124   2.960   5.951
36508SOL     OW11362  13.439  12.682   6.787
36508SOL    HW111363  13.522  12.639   6.806
36508SOL    HW211364  13.453  12.774   6.810
36509SOL     OW11365   2.952   0.383  12.783
36509SOL    HW111366   2.971   0.381  12.689
36509SOL    HW211367   2.873   0.330  12.793
36510SOL     OW11368   2.980  13.229  14.801
36510SOL    HW111369   2.950  13.320  14.811
36510SOL    HW211370   2.999  13.200   0.016
36511SOL     OW11371  10.414   9.271   9.041
36511SOL    HW111372  10.497   9.281   8.996
36511SOL    HW211373  10.379   9.360   9.048
36512SOL     OW11374   5.129   5.981  11.021
36512SOL    HW111375   5.088   6.060  11.055
36512SOL    HW211376   5.179   6.010  10.945
36513SOL     OW11377  12.408   0.563   0.353
36513SOL    HW111378  12.503   0.574   0.357
36513SOL    HW211379  12.390   0.487   0.408
36514SOL     OW11380   2.262  14.743  13.222
36514SOL    HW111381   2.301  14.672  13.171
36514SOL    HW211382   2.168  14.726  13.217
36515SOL     OW11383   2.142   0.114  12.388
36515SOL    HW111384   2.130   0.192  12.334
36515SOL    HW211385   2.169   0.148  12.473
36516SOL     OW11386  11.805   1.154  13.198
36516SOL    HW111387  11.894   1.127  13.176
36516SOL    HW211388  11.816   1.234  13.249
36517SOL     OW11389   3.250   7.937  14.234
36517SOL    HW111390   3.272   7.923  14.326
36517SOL    HW211391   3.158   7.911  14.227
36518SOL     OW11392  14.854   8.855   5.926
36518SOL    HW111393   0.019   8.931   5.970
36518SOL    HW211394  14.859   8.876   5.833
36519SOL     OW11395   7.007   7.810  13.554
36519SOL    HW111396   7.029   7.870  13.483
36519SOL    HW211397   7.056   7.730  13.534
36520SOL     OW11398   4.963   6.289   9.764
36520SOL    HW111399   5.011   6.314   9.843
36520SOL    HW211400   5.031   6.260   9.703
36521SOL     OW11401   4.223   9.683  14.714
36521SOL    HW111402   4.203   9.686  14.620
36521SOL    HW211403   4.215   9.591  14.737
36522SOL     OW11404   0.172  11.248   3.814
36522SOL    HW111405   0.112  11.299   3.760
36522SOL    HW211406   0.236  11.312   3.844
36523SOL     OW11407  13.273   6.080   8.496
36523SOL    HW111408  13.282   6.032   8.414
36523SOL    HW211409  13.261   6.013   8.563
36524SOL     OW11410   6.863   4.105  10.108
36524SOL    HW111411   6.852   4.040  10.178
36524SOL    HW211412   6.774   4.134  10.088
36525SOL     OW11413   2.363   0.408   9.634
36525SOL    HW111414   2.364   0.503   9.648
36525SOL    HW211415   2.279   0.391   9.591
36526SOL     OW11416   9.089  12.172  14.162
36526SOL    HW111417   9.137  12.095  14.193
36526SOL    HW211418   9.032  12.196  14.234
36527SOL     OW11419  11.094   2.780  13.445
36527SOL    HW111420  11.072   2.782  13.352
36527SOL    HW211421  11.122   2.690  13.462
36528SOL     OW11422   3.679   9.571  11.096
36528SOL    HW111423   3.702   9.633  11.165
36528SOL    HW211424   3.661   9.625  11.020
36529SOL     OW11425  12.258   3.613   6.405
36529SOL    HW111426  12.330   3.609   6.468
36529SOL    HW211427  12.181   3.585   6.454
36530SOL     OW11428  11.293   8.522   3.468
36530SOL    HW111429  11.339   8.497   3.388
36530SOL    HW211430  11.340   8.476   3.538
36531SOL     OW11431  11.045  13.876  14.221
36531SOL    HW111432  11.092  13.957  14.202
36531SOL    HW211433  11.113  13.809  14.229
36532SOL     OW11434   3.925   2.737  12.650
36532SOL    HW111435   3.996   2.682  12.617
36532SOL    HW211436   3.845   2.688  12.629
36533SOL     OW11437  13.716   3.017   3.773
36533SOL    HW111438  13.790   2.970   3.737
36533SOL    HW211439  13.746   3.108   3.781
36534SOL     OW11440   1.089  13.980  11.345
36534SOL    HW111441   1.134  13.965  11.429
36534SOL    HW211442   1.151  13.949  11.279
36535SOL     OW11443  10.166   8.215   0.040
36535SOL    HW111444  10.133   8.126   0.050
36535SOL    HW211445  10.088   8.267   0.019
36536SOL     OW11446   2.677   1.679  11.752
36536SOL    HW111447   2.708   1.768  11.737
36536SOL    HW211448   2.606   1.689  11.816
36537SOL     OW11449  11.139  12.971  10.946
36537SOL    HW111450  11.183  12.889  10.968
36537SOL    HW211451  11.069  12.944  10.886
36538SOL     OW11452  13.365  12.156  11.602
36538SOL    HW111453  13.425  12.222  11.637
36538SOL    HW211454  13.328  12.197  11.523
36539SOL     OW11455   0.765   3.987   0.793
36539SOL    HW111456   0.669   3.987   0.792
36539SOL    HW211457   0.789   3.901   0.829
36540SOL     OW11458   0.207   6.088   3.482
36540SOL    HW111459   0.210   5.993   3.465
36540SOL    HW211460   0.282   6.123   3.434
36541SOL     OW11461  14.392   7.286   6.308
36541SOL    HW111462  14.381   7.329   6.224
36541SOL    HW211463  14.377   7.193   6.290
36542SOL     OW11464   1.665   5.913  11.486
36542SOL    HW111465   1.754   5.939  11.463
36542SOL    HW211466   1.609   5.960  11.423
36543SOL     OW11467   9.277  10.736   7.556
36543SOL    HW111468   9.186  10.707   7.561
36543SOL    HW211469   9.281  10.792   7.479
36544SOL     OW11470   1.591  13.442   8.795
36544SOL    HW111471   1.568  13.535   8.792
36544SOL    HW211472   1.549  13.410   8.875
36545SOL     OW11473   0.338   7.064   6.832
36545SOL    HW111474   0.382   6.984   6.858
36545SOL    HW211475   0.246   7.039   6.822
36546SOL     OW11476   1.480   4.376  11.464
36546SOL    HW111477   1.545   4.333  11.407
36546SOL    HW211478   1.470   4.316  11.538
36547SOL     OW11479   4.034   2.076  11.275
36547SOL    HW111480   4.031   2.106  11.184
36547SOL    HW211481   4.046   1.981  11.268
36548SOL     OW11482  11.827   0.583  12.378
36548SOL    HW111483  11.865   0.631  12.304
36548SOL    HW211484  11.758   0.529  12.338
36549SOL     OW11485  11.775   4.308   5.453
36549SOL    HW111486  11.828   4.313   5.533
36549SOL    HW211487  11.730   4.224   5.460
36550SOL     OW11488  14.505   5.001   6.518
36550SOL    HW111489  14.554   4.944   6.577
36550SOL    HW211490  14.571   5.042   6.463
36551SOL     OW11491   0.832   5.173  10.903
36551SOL    HW111492   0.807   5.173  10.995
36551SOL    HW211493   0.880   5.092  10.891
36552SOL     OW11494  10.506  14.643  13.556
36552SOL    HW111495  10.536  14.625  13.467
36552SOL    HW211496  10.579  14.615  13.612
36553SOL     OW11497  10.388   5.930  12.911
36553SOL    HW111498  10.352   5.881  12.984
36553SOL    HW211499  10.327   6.002  12.897
36554SOL     OW11500   5.172   8.122   4.944
36554SOL    HW111501   5.215   8.178   4.879
36554SOL    HW211502   5.159   8.039   4.900
36555SOL     OW11503   0.514   7.780   0.483
36555SOL    HW111504   0.484   7.788   0.393
36555SOL    HW211505   0.473   7.854   0.529
36556SOL     OW11506   4.931  10.309   0.756
36556SOL    HW111507   4.919  10.225   0.801
36556SOL    HW211508   5.010  10.346   0.794
36557SOL     OW11509   5.124   8.105   9.818
36557SOL    HW111510   5.138   8.199   9.816
36557SOL    HW211511   5.140   8.077   9.728
36558SOL     OW11512  10.654   4.234   3.343
36558SOL    HW111513  10.730   4.222   3.286
36558SOL    HW211514  10.579   4.238   3.284
36559SOL     OW11515   2.701   7.662   5.699
36559SOL    HW111516   2.746   7.577   5.708
36559SOL    HW211517   2.617   7.640   5.660
36560SOL     OW11518  11.185  11.274   5.515
36560SOL    HW111519  11.218  11.198   5.466
36560SOL    HW211520  11.201  11.349   5.457
36561SOL     OW11521   9.666  10.680  10.300
36561SOL    HW111522   9.757  10.701  10.277
36561SOL    HW211523   9.616  10.703  10.222
36562SOL     OW11524   7.023  12.355   9.115
36562SOL    HW111525   6.960  12.285   9.126
36562SOL    HW211526   7.007  12.413   9.189
36563SOL     OW11527   3.809   8.782  13.072
36563SOL    HW111528   3.751   8.797  12.997
36563SOL    HW211529   3.798   8.860  13.127
36564SOL     OW11530  11.974   2.236  13.878
36564SOL    HW111531  11.899   2.271  13.925
36564SOL    HW211532  11.999   2.306  13.818
36565SOL     OW11533  11.650   6.428   5.213
36565SOL    HW111534  11.560   6.461   5.209
36565SOL    HW211535  11.703   6.507   5.226
36566SOL     OW11536  14.717  13.771  10.176
36566SOL    HW111537  14.714  13.724  10.093
36566SOL    HW211538  14.804  13.752  10.211
36567SOL     OW11539   2.773   1.708   3.449
36567SOL    HW111540   2.694   1.762   3.441
36567SOL    HW211541   2.840   1.768   3.479
36568SOL     OW11542   7.320   0.038  14.859
36568SOL    HW111543   7.402   0.025  14.812
36568SOL    HW211544   7.343   0.091   0.061
36569SOL     OW11545  13.063   5.532   4.102
36569SOL    HW111546  13.141   5.484   4.130
36569SOL    HW211547  13.092   5.582   4.025
36570SOL     OW11548   8.461   9.528   1.327
36570SOL    HW111549   8.395   9.460   1.339
36570SOL    HW211550   8.534   9.485   1.284
36571SOL     OW11551   0.715   7.401   8.449
36571SOL    HW111552   0.713   7.336   8.379
36571SOL    HW211553   0.707   7.349   8.529
36572SOL     OW11554  14.781   6.265  13.313
36572SOL    HW111555  14.718   6.324  13.271
36572SOL    HW211556  14.741   6.244  13.397
36573SOL     OW11557   9.751  11.283  14.065
36573SOL    HW111558   9.806  11.211  14.095
36573SOL    HW211559   9.808  11.360  14.068
36574SOL     OW11560   6.824   9.602  14.625
36574SOL    HW111561   6.773   9.681  14.610
36574SOL    HW211562   6.762   9.540  14.663
36575SOL     OW11563   0.061   3.368  12.244
36575SOL    HW111564   0.081   3.327  12.328
36575SOL    HW211565   0.101   3.455  12.250
36576SOL     OW11566   5.450   8.752   0.667
36576SOL    HW111567   5.437   8.682   0.731
36576SOL    HW211568   5.366   8.797   0.662
36577SOL     OW11569   2.956   8.764   5.260
36577SOL    HW111570   3.005   8.822   5.201
36577SOL    HW211571   2.878   8.740   5.211
36578SOL     OW11572  14.125   9.172   8.360
36578SOL    HW111573  14.092   9.092   8.321
36578SOL    HW211574  14.220   9.160   8.362
36579SOL     OW11575   0.735   9.284   3.244
36579SOL    HW111576   0.827   9.258   3.251
36579SOL    HW211577   0.687   9.209   3.280
36580SOL     OW11578   3.854   9.542  10.504
36580SOL    HW111579   3.872   9.615  10.444
36580SOL    HW211580   3.761   9.522  10.490
36581SOL     OW11581   1.080   4.474   0.604
36581SOL    HW111582   1.103   4.408   0.538
36581SOL    HW211583   1.122   4.554   0.574
36582SOL     OW11584  14.674   2.967   8.275
36582SOL    HW111585  14.727   2.958   8.354
36582SOL    HW211586  14.699   2.892   8.220
36583SOL     OW11587   5.544  13.380   2.780
36583SOL    HW111588   5.467  13.337   2.817
36583SOL    HW211589   5.606  13.309   2.764
36584SOL     OW11590   8.116   4.228   6.056
36584SOL    HW111591   8.190   4.259   6.108
36584SOL    HW211592   8.042   4.230   6.116
36585SOL     OW11593   3.243   1.488   7.622
36585SOL    HW111594   3.330   1.459   7.594
36585SOL    HW211595   3.186   1.413   7.607
36586SOL     OW11596   7.389  14.286  13.932
36586SOL    HW111597   7.353  14.200  13.955
36586SOL    HW211598   7.484  14.272  13.928
36587SOL     OW11599   3.479  10.041   6.528
36587SOL    HW111600   3.511  10.122   6.567
36587SOL    HW211601   3.391  10.063   6.497
36588SOL     OW11602  13.778   1.594  12.466
36588SOL    HW111603  13.733   1.544  12.535
36588SOL    HW211604  13.730   1.676  12.460
36589SOL     OW11605   2.088  12.228  13.779
36589SOL    HW111606   2.018  12.287  13.807
36589SOL    HW211607   2.168  12.269  13.811
36590SOL     OW11608   7.027   9.789   5.905
36590SOL    HW111609   7.077   9.715   5.941
36590SOL    HW211610   6.955   9.801   5.967
36591SOL     OW11611  12.324   6.203   3.585
36591SOL    HW111612  12.402   6.168   3.541
36591SOL    HW211613  12.311   6.289   3.545
36592SOL     OW11614   4.461  14.870   3.638
36592SOL    HW111615   4.399  14.831   3.577
36592SOL    HW211616   4.523   0.043   3.583
36593SOL     OW11617  11.791   2.430  13.966
36593SOL    HW111618  11.831   2.510  13.932
36593SOL    HW211619  11.697   2.444  13.954
36594SOL     OW11620   7.797  12.606   3.945
36594SOL    HW111621   7.836  12.571   3.866
36594SOL    HW211622   7.786  12.531   4.003
36595SOL     OW11623   6.414  12.229   2.747
36595SOL    HW111624   6.340  12.180   2.783
36595SOL    HW211625   6.455  12.169   2.685
36596SOL     OW11626   7.376   9.792  14.788
36596SOL    HW111627   7.379   9.750  14.702
36596SOL    HW211628   7.461   9.770  14.828
36597SOL     OW11629   6.491   1.188   4.411
36597SOL    HW111630   6.399   1.199   4.386
36597SOL    HW211631   6.488   1.130   4.487
36598SOL     OW11632  12.614  12.044   5.404
36598SOL    HW111633  12.678  12.108   5.373
36598SOL    HW211634  12.630  12.039   5.499
36599SOL     OW11635   5.447   7.415   3.662
36599SOL    HW111636   5.499   7.480   3.710
36599SOL    HW211637   5.484   7.415   3.574
36600SOL     OW11638   9.794   3.119   8.689
36600SOL    HW111639   9.815   3.035   8.649
36600SOL    HW211640   9.763   3.098   8.777
36601SOL     OW11641  13.232  12.977   3.364
36601SOL    HW111642  13.201  12.967   3.454
36601SOL    HW211643  13.160  13.020   3.318
36602SOL     OW11644   8.767   3.760   9.177
36602SOL    HW111645   8.678   3.791   9.164
36602SOL    HW211646   8.821   3.817   9.123
36603SOL     OW11647   5.149   0.433  12.989
36603SOL    HW111648   5.074   0.466  12.940
36603SOL    HW211649   5.146   0.338  12.977
36604SOL     OW11650  10.372   3.505   5.605
36604SOL    HW111651  10.436   3.458   5.659
36604SOL    HW211652  10.382   3.597   5.631
36605SOL     OW11653   0.483  13.015   0.465
36605SOL    HW111654   0.502  12.926   0.435
36605SOL    HW211655   0.407  13.006   0.522
36606SOL     OW11656  12.430   0.843   2.130
36606SOL    HW111657  12.480   0.825   2.209
36606SOL    HW211658  12.395   0.932   2.144
36607SOL     OW11659  11.036   5.354   5.273
36607SOL    HW111660  11.124   5.386   5.252
36607SOL    HW211661  10.994   5.427   5.318
36608SOL     OW11662  10.698   6.431  10.887
36608SOL    HW111663  10.785   6.448  10.924
36608SOL    HW211664  10.657   6.517  10.882
36609SOL     OW11665   5.611   5.399   6.420
36609SOL    HW111666   5.521   5.392   6.453
36609SOL    HW211667   5.647   5.311   6.429
36610SOL     OW11668  11.497   9.427  12.313
36610SOL    HW111669  11.578   9.413  12.362
36610SOL    HW211670  11.466   9.513  12.342
36611SOL     OW11671   2.584   7.781  14.456
36611SOL    HW111672   2.668   7.760  14.415
36611SOL    HW211673   2.600   7.773  14.550
36612SOL     OW11674  13.712   8.765   7.055
36612SOL    HW111675  13.791   8.794   7.010
36612SOL    HW211676  13.709   8.818   7.135
36613SOL     OW11677   7.558  10.321  12.882
36613SOL    HW111678   7.537  10.380  12.954
36613SOL    HW211679   7.475  10.308  12.836
36614SOL     OW11680   7.958   8.709  13.637
36614SOL    HW111681   7.895   8.645  13.604
36614SOL    HW211682   7.926   8.793  13.606
36615SOL     OW11683   1.380  14.646   3.986
36615SOL    HW111684   1.406  14.723   3.935
36615SOL    HW211685   1.336  14.589   3.923
36616SOL     OW11686   9.899   8.056  12.516
36616SOL    HW111687   9.843   7.978  12.522
36616SOL    HW211688   9.976   8.026  12.468
36617SOL     OW11689   1.402  14.165   3.621
36617SOL    HW111690   1.356  14.187   3.702
36617SOL    HW211691   1.495  14.169   3.644
36618SOL     OW11692   6.697  13.755   3.484
36618SOL    HW111693   6.751  13.716   3.415
36618SOL    HW211694   6.615  13.777   3.440
36619SOL     OW11695   2.092   5.662   0.314
36619SOL    HW111696   2.025   5.603   0.349
36619SOL    HW211697   2.063   5.750   0.341
36620SOL     OW11698   7.091  13.445  10.396
36620SOL    HW111699   7.112  13.538  10.387
36620SOL    HW211700   7.105  13.426  10.489
36621SOL     OW11701   9.865  13.377  11.423
36621SOL    HW111702   9.783  13.342  11.387
36621SOL    HW211703   9.861  13.471  11.405
36622SOL     OW11704   9.832   5.161   5.543
36622SOL    HW111705   9.787   5.196   5.620
36622SOL    HW211706   9.769   5.171   5.472
36623SOL     OW11707  11.603  13.232  14.086
36623SOL    HW111708  11.556  13.234  14.169
36623SOL    HW211709  11.695  13.242  14.111
36624SOL     OW11710   1.861  13.113   7.094
36624SOL    HW111711   1.788  13.174   7.100
36624SOL    HW211712   1.905  13.136   7.012
36625SOL     OW11713   6.248   8.845   2.409
36625SOL    HW111714   6.267   8.889   2.327
36625SOL    HW211715   6.215   8.759   2.383
36626SOL     OW11716   6.715   6.618  10.670
36626SOL    HW111717   6.702   6.665  10.588
36626SOL    HW211718   6.810   6.616  10.682
36627SOL     OW11719  11.262   7.980   7.222
36627SOL    HW111720  11.301   8.035   7.154
36627SOL    HW211721  11.221   8.041   7.282
36628SOL     OW11722  11.707  11.950   9.565
36628SOL    HW111723  11.764  11.877   9.541
36628SOL    HW211724  11.667  11.978   9.482
36629SOL     OW11725   6.684   2.864   4.732
36629SOL    HW111726   6.692   2.890   4.641
36629SOL    HW211727   6.728   2.779   4.737
36630SOL     OW11728  14.856   0.721   9.344
36630SOL    HW111729   0.005   0.629   9.353
36630SOL    HW211730   0.064   0.768   9.360
36631SOL     OW11731   4.590   2.672   8.721
36631SOL    HW111732   4.546   2.672   8.806
36631SOL    HW211733   4.551   2.745   8.674
36632SOL     OW11734  13.453   9.389  11.729
36632SOL    HW111735  13.493   9.362  11.646
36632SOL    HW211736  13.525   9.429  11.778
36633SOL     OW11737   3.136  12.087   9.036
36633SOL    HW111738   3.072  12.061   8.970
36633SOL    HW211739   3.090  12.149   9.092
36634SOL     OW11740   6.474   6.774   6.124
36634SOL    HW111741   6.509   6.707   6.065
36634SOL    HW211742   6.467   6.853   6.069
36635SOL     OW11743   6.356   7.378   5.097
36635SOL    HW111744   6.442   7.365   5.058
36635SOL    HW211745   6.295   7.339   5.035
36636SOL     OW11746   9.201  14.868   2.545
36636SOL    HW111747   9.132  14.874   2.479
36636SOL    HW211748   9.164   0.037   2.622
36637SOL     OW11749   1.600  12.356   5.928
36637SOL    HW111750   1.646  12.439   5.938
36637SOL    HW211751   1.509  12.381   5.913
36638SOL     OW11752  10.776   1.070   7.704
36638SOL    HW111753  10.762   0.978   7.680
36638SOL    HW211754  10.868   1.086   7.684
36639SOL     OW11755   3.220   0.222  13.459
36639SOL    HW111756   3.305   0.230  13.501
36639SOL    HW211757   3.228   0.272  13.378
36640SOL     OW11758   3.340   8.642  13.423
36640SOL    HW111759   3.367   8.571  13.480
36640SOL    HW211760   3.251   8.619  13.396
36641SOL     OW11761   0.119  13.945   9.452
36641SOL    HW111762   0.128  14.021   9.395
36641SOL    HW211763   0.208  13.912   9.464
36642SOL     OW11764  12.712  14.643   4.472
36642SOL    HW111765  12.798  14.672   4.440
36642SOL    HW211766  12.654  14.655   4.397
36643SOL     OW11767   2.267   5.576   0.633
36643SOL    HW111768   2.252   5.587   0.727
36643SOL    HW211769   2.227   5.492   0.611
36644SOL     OW11770   2.592   6.526   2.165
36644SOL    HW111771   2.636   6.588   2.223
36644SOL    HW211772   2.528   6.579   2.117
36645SOL     OW11773  12.458   8.191   9.814
36645SOL    HW111774  12.445   8.277   9.854
36645SOL    HW211775  12.451   8.207   9.720
36646SOL     OW11776  13.667   9.783  13.298
36646SOL    HW111777  13.641   9.700  13.338
36646SOL    HW211778  13.585   9.824  13.273
36647SOL     OW11779  13.668   0.478   9.363
36647SOL    HW111780  13.689   0.562   9.322
36647SOL    HW211781  13.644   0.501   9.453
36648SOL     OW11782   6.387   2.706  14.441
36648SOL    HW111783   6.454   2.687  14.375
36648SOL    HW211784   6.317   2.644  14.423
36649SOL     OW11785   3.345   8.965   1.263
36649SOL    HW111786   3.402   8.934   1.193
36649SOL    HW211787   3.398   9.031   1.309
36650SOL     OW11788  13.016  11.201   9.367
36650SOL    HW111789  13.038  11.124   9.314
36650SOL    HW211790  12.922  11.211   9.356
36651SOL     OW11791   9.432   0.809   6.439
36651SOL    HW111792   9.456   0.896   6.406
36651SOL    HW211793   9.480   0.748   6.383
36652SOL     OW11794   1.810   9.163  11.857
36652SOL    HW111795   1.887   9.122  11.896
36652SOL    HW211796   1.741   9.097  11.867
36653SOL     OW11797  14.737  12.326   8.113
36653SOL    HW111798  14.746  12.261   8.043
36653SOL    HW211799  14.671  12.290   8.171
36654SOL     OW11800  10.646   9.289  11.362
36654SOL    HW111801  10.630   9.360  11.299
36654SOL    HW211802  10.677   9.216  11.308
36655SOL     OW11803   8.312   0.311   9.547
36655SOL    HW111804   8.354   0.317   9.633
36655SOL    HW211805   8.379   0.273   9.490
36656SOL     OW11806   0.858   2.398   8.250
36656SOL    HW111807   0.884   2.490   8.247
36656SOL    HW211808   0.789   2.390   8.184
36657SOL     OW11809   7.310  13.363   3.186
36657SOL    HW111810   7.377  13.304   3.220
36657SOL    HW211811   7.356  13.446   3.171
36658SOL     OW11812  12.951  13.094  12.052
36658SOL    HW111813  12.892  13.033  12.007
36658SOL    HW211814  12.921  13.093  12.143
36659SOL     OW11815   6.920   3.741  10.599
36659SOL    HW111816   6.900   3.663  10.651
36659SOL    HW211817   6.895   3.717  10.510
36660SOL     OW11818  11.761   5.303  13.296
36660SOL    HW111819  11.770   5.390  13.335
36660SOL    HW211820  11.692   5.313  13.231
36661SOL     OW11821  11.518   5.554  10.887
36661SOL    HW111822  11.527   5.521  10.798
36661SOL    HW211823  11.474   5.483  10.935
36662SOL     OW11824   0.798   1.837   8.941
36662SOL    HW111825   0.784   1.857   8.849
36662SOL    HW211826   0.891   1.814   8.947
36663SOL     OW11827   3.144  12.871   7.007
36663SOL    HW111828   3.211  12.804   7.016
36663SOL    HW211829   3.069  12.837   7.057
36664SOL     OW11830  14.602  11.791  10.799
36664SOL    HW111831  14.682  11.802  10.749
36664SOL    HW211832  14.560  11.713  10.761
36665SOL     OW11833   9.446   9.994   3.131
36665SOL    HW111834   9.503   9.943   3.189
36665SOL    HW211835   9.492  10.077   3.119
36666SOL     OW11836   2.768   9.753  13.238
36666SOL    HW111837   2.727   9.667  13.252
36666SOL    HW211838   2.809   9.774  13.322
36667SOL     OW11839   1.493  10.867   6.604
36667SOL    HW111840   1.493  10.780   6.565
36667SOL    HW211841   1.525  10.853   6.693
36668SOL     OW11842   0.023   6.222   6.214
36668SOL    HW111843   0.089   6.287   6.191
36668SOL    HW211844  14.814   6.260   6.184
36669SOL     OW11845   9.765   1.728   0.753
36669SOL    HW111846   9.702   1.661   0.781
36669SOL    HW211847   9.850   1.691   0.778
36670SOL     OW11848   4.639   4.188   7.755
36670SOL    HW111849   4.666   4.125   7.822
36670SOL    HW211850   4.592   4.136   7.690
36671SOL     OW11851  11.556   6.108  11.088
36671SOL    HW111852  11.565   6.087  11.181
36671SOL    HW211853  11.585   6.028  11.043
36672SOL     OW11854  10.077   7.410   5.041
36672SOL    HW111855  10.121   7.423   4.957
36672SOL    HW211856  10.067   7.498   5.077
36673SOL     OW11857  12.368   7.366  10.334
36673SOL    HW111858  12.393   7.448  10.292
36673SOL    HW211859  12.450   7.326  10.361
36674SOL     OW11860   7.934   6.480   2.994
36674SOL    HW111861   7.882   6.509   2.918
36674SOL    HW211862   7.925   6.551   3.058
36675SOL     OW11863   7.469  10.077   9.968
36675SOL    HW111864   7.526  10.011   9.927
36675SOL    HW211865   7.492  10.159   9.924
36676SOL     OW11866   1.835  11.670  14.447
36676SOL    HW111867   1.852  11.764  14.453
36676SOL    HW211868   1.742  11.665  14.425
36677SOL     OW11869   3.175   5.976   4.676
36677SOL    HW111870   3.134   5.891   4.689
36677SOL    HW211871   3.116   6.022   4.616
36678SOL     OW11872   7.128   8.712  13.591
36678SOL    HW111873   7.120   8.744  13.502
36678SOL    HW211874   7.166   8.625  13.582
36679SOL     OW11875   8.797   1.627   4.056
36679SOL    HW111876   8.733   1.556   4.050
36679SOL    HW211877   8.751   1.696   4.104
36680SOL     OW11878   5.827  11.782   5.086
36680SOL    HW111879   5.859  11.816   5.169
36680SOL    HW211880   5.744  11.827   5.072
36681SOL     OW11881  10.976   1.164   9.781
36681SOL    HW111882  10.949   1.167   9.689
36681SOL    HW211883  10.895   1.146   9.829
36682SOL     OW11884   9.005   9.511   9.913
36682SOL    HW111885   9.083   9.562   9.892
36682SOL    HW211886   9.035   9.446   9.977
36683SOL     OW11887   2.294   5.075  13.297
36683SOL    HW111888   2.210   5.085  13.341
36683SOL    HW211889   2.274   5.094  13.205
36684SOL     OW11890   9.118   0.700  13.277
36684SOL    HW111891   9.142   0.768  13.340
36684SOL    HW211892   9.101   0.622  13.330
36685SOL     OW11893   9.493  12.277  12.003
36685SOL    HW111894   9.410  12.319  12.023
36685SOL    HW211895   9.475  12.183  12.010
36686SOL     OW11896   1.413   3.754  12.626
36686SOL    HW111897   1.365   3.682  12.666
36686SOL    HW211898   1.347   3.804  12.579
36687SOL     OW11899  11.655  11.712  12.321
36687SOL    HW111900  11.562  11.691  12.330
36687SOL    HW211901  11.667  11.725  12.227
36688SOL     OW11902  13.569   2.581   3.177
36688SOL    HW111903  13.526   2.525   3.241
36688SOL    HW211904  13.629   2.523   3.130
36689SOL     OW11905   8.519   1.844  14.156
36689SOL    HW111906   8.534   1.772  14.217
36689SOL    HW211907   8.552   1.812  14.072
36690SOL     OW11908   0.663   7.317  12.331
36690SOL    HW111909   0.575   7.332  12.298
36690SOL    HW211910   0.711   7.397  12.309
36691SOL     OW11911   6.758   4.025   6.219
36691SOL    HW111912   6.816   4.096   6.193
36691SOL    HW211913   6.811   3.946   6.210
36692SOL     OW11914   5.157   1.607   6.513
36692SOL    HW111915   5.084   1.556   6.546
36692SOL    HW211916   5.225   1.543   6.493
36693SOL     OW11917  10.917   1.189  14.324
36693SOL    HW111918  10.896   1.097  14.340
36693SOL    HW211919  10.832   1.232  14.315
36694SOL     OW11920  12.891   5.081   0.455
36694SOL    HW111921  12.914   4.990   0.474
36694SOL    HW211922  12.935   5.131   0.523
36695SOL     OW11923   7.732   0.513   3.610
36695SOL    HW111924   7.639   0.515   3.589
36695SOL    HW211925   7.736   0.530   3.705
36696SOL     OW11926  14.044   6.769   6.764
36696SOL    HW111927  13.991   6.818   6.826
36696SOL    HW211928  14.123   6.821   6.753
36697SOL     OW11929  12.209   7.529   3.500
36697SOL    HW111930  12.119   7.519   3.469
36697SOL    HW211931  12.236   7.439   3.521
36698SOL     OW11932  14.659  13.542   2.460
36698SOL    HW111933  14.736  13.486   2.459
36698SOL    HW211934  14.595  13.494   2.511
36699SOL     OW11935   7.066  10.481  13.234
36699SOL    HW111936   7.153  10.512  13.260
36699SOL    HW211937   7.015  10.560  13.220
36700SOL     OW11938   1.907   9.705   9.356
36700SOL    HW111939   1.985   9.704   9.412
36700SOL    HW211940   1.922   9.779   9.297
36701SOL     OW11941  12.928  11.049   8.621
36701SOL    HW111942  13.023  11.041   8.607
36701SOL    HW211943  12.914  11.141   8.641
36702SOL     OW11944   0.057   1.267   1.201
36702SOL    HW111945   0.133   1.225   1.241
36702SOL    HW211946   0.091   1.346   1.160
36703SOL     OW11947   7.181   2.768   3.671
36703SOL    HW111948   7.133   2.686   3.659
36703SOL    HW211949   7.269   2.741   3.696
36704SOL     OW11950   7.414   0.793   0.657
36704SOL    HW111951   7.361   0.713   0.662
36704SOL    HW211952   7.477   0.784   0.728
36705SOL     OW11953   2.364  14.176   6.160
36705SOL    HW111954   2.404  14.131   6.086
36705SOL    HW211955   2.436  14.224   6.200
36706SOL     OW11956   5.384   9.487   8.930
36706SOL    HW111957   5.421   9.428   8.865
36706SOL    HW211958   5.455   9.502   8.992
36707SOL     OW11959   9.079  13.428   6.197
36707SOL    HW111960   9.144  13.363   6.172
36707SOL    HW211961   8.998  13.377   6.208
36708SOL     OW11962   0.486   6.955   6.120
36708SOL    HW111963   0.548   6.995   6.060
36708SOL    HW211964   0.488   6.862   6.099
36709SOL     OW11965   9.677   3.489   5.993
36709SOL    HW111966   9.628   3.493   6.075
36709SOL    HW211967   9.615   3.453   5.930
36710SOL     OW11968   6.589   6.525   6.520
36710SOL    HW111969   6.506   6.573   6.523
36710SOL    HW211970   6.564   6.436   6.497
36711SOL     OW11971  14.216   1.164   6.934
36711SOL    HW111972  14.183   1.242   6.889
36711SOL    HW211973  14.282   1.198   6.994
36712SOL     OW11974   7.425  11.469   3.551
36712SOL    HW111975   7.364  11.504   3.615
36712SOL    HW211976   7.414  11.374   3.557
36713SOL     OW11977  13.013  13.846   3.795
36713SOL    HW111978  13.040  13.833   3.704
36713SOL    HW211979  13.086  13.893   3.834
36714SOL     OW11980   7.234   7.003  14.842
36714SOL    HW111981   7.146   6.980  14.874
36714SOL    HW211982   7.238   7.098  14.847
36715SOL     OW11983  11.452   2.813  10.446
36715SOL    HW111984  11.363   2.779  10.452
36715SOL    HW211985  11.496   2.782  10.525
36716SOL     OW11986   0.837   0.791   8.218
36716SOL    HW111987   0.748   0.757   8.223
36716SOL    HW211988   0.841   0.836   8.133
36717SOL     OW11989   8.932   9.080  12.842
36717SOL    HW111990   8.991   9.006  12.830
36717SOL    HW211991   8.986   9.147  12.885
36718SOL     OW11992  13.366   8.195  11.847
36718SOL    HW111993  13.381   8.278  11.801
36718SOL    HW211994  13.352   8.131  11.777
36719SOL     OW11995  13.178   8.598  13.074
36719SOL    HW111996  13.268   8.624  13.053
36719SOL    HW211997  13.188   8.524  13.133
36720SOL     OW11998  14.816   5.318  13.424
36720SOL    HW111999  14.836   5.308  13.518
36720SOL    HW212000   0.019   5.364  13.389
36721SOL     OW12001  13.195  14.126  14.730
36721SOL    HW112002  13.150  14.044  14.712
36721SOL    HW212003  13.288  14.105  14.720
36722SOL     OW12004  12.828   1.538   1.388
36722SOL    HW112005  12.789   1.618   1.424
36722SOL    HW212006  12.885   1.505   1.457
36723SOL     OW12007   6.546  13.459   8.646
36723SOL    HW112008   6.557  13.373   8.687
36723SOL    HW212009   6.573  13.521   8.714
36724SOL     OW12010   7.712  10.585   7.116
36724SOL    HW112011   7.720  10.665   7.168
36724SOL    HW212012   7.732  10.515   7.177
36725SOL     OW12013  10.823   0.191   3.275
36725SOL    HW112014  10.806   0.111   3.225
36725SOL    HW212015  10.910   0.178   3.313
36726SOL     OW12016  10.822   0.389   8.079
36726SOL    HW112017  10.908   0.403   8.041
36726SOL    HW212018  10.839   0.352   8.166
36727SOL     OW12019  11.943  11.118  10.122
36727SOL    HW112020  11.939  11.039  10.177
36727SOL    HW212021  12.032  11.151  10.135
36728SOL     OW12022  10.651   5.114  14.793
36728SOL    HW112023  10.660   5.198  14.837
36728SOL    HW212024  10.604   5.134  14.712
36729SOL     OW12025   9.616   4.817  11.589
36729SOL    HW112026   9.544   4.755  11.601
36729SOL    HW212027   9.667   4.810  11.670
36730SOL     OW12028  10.989   9.302   2.681
36730SOL    HW112029  10.981   9.230   2.742
36730SOL    HW212030  10.899   9.329   2.662
36731SOL     OW12031  10.504   4.707   2.383
36731SOL    HW112032  10.422   4.657   2.384
36731SOL    HW212033  10.572   4.642   2.400
36732SOL     OW12034   8.452   7.173   0.639
36732SOL    HW112035   8.510   7.106   0.675
36732SOL    HW212036   8.512   7.234   0.596
36733SOL     OW12037   8.835   9.703  13.210
36733SOL    HW112038   8.876   9.780  13.248
36733SOL    HW212039   8.784   9.737  13.136
36734SOL     OW12040   7.501   0.504  13.346
36734SOL    HW112041   7.525   0.474  13.258
36734SOL    HW212042   7.407   0.521  13.341
36735SOL     OW12043   9.665   4.107  14.041
36735SOL    HW112044   9.635   4.168  13.974
36735SOL    HW212045   9.735   4.057  13.999
36736SOL     OW12046   6.724  13.238   5.830
36736SOL    HW112047   6.745  13.331   5.844
36736SOL    HW212048   6.788  13.209   5.766
36737SOL     OW12049  11.703   8.484   8.963
36737SOL    HW112050  11.674   8.567   8.925
36737SOL    HW212051  11.775   8.508   9.021
36738SOL     OW12052   4.015   4.905   0.328
36738SOL    HW112053   4.000   4.830   0.271
36738SOL    HW212054   4.004   4.981   0.271
36739SOL     OW12055  12.474   9.838  13.744
36739SOL    HW112056  12.557   9.858  13.787
36739SOL    HW212057  12.412   9.827  13.816
36740SOL     OW12058   9.638   5.216   6.836
36740SOL    HW112059   9.585   5.225   6.756
36740SOL    HW212060   9.660   5.122   6.839
36741SOL     OW12061  12.252   8.212   3.515
36741SOL    HW112062  12.157   8.226   3.518
36741SOL    HW212063  12.261   8.118   3.496
36742SOL     OW12064   2.445   6.181   0.197
36742SOL    HW112065   2.478   6.232   0.271
36742SOL    HW212066   2.363   6.225   0.172
36743SOL     OW12067   0.875  11.626  10.474
36743SOL    HW112068   0.899  11.688  10.543
36743SOL    HW212069   0.848  11.547  10.521
36744SOL     OW12070   8.883   3.313   6.097
36744SOL    HW112071   8.881   3.399   6.055
36744SOL    HW212072   8.812   3.264   6.053
36745SOL     OW12073   3.905   8.110   4.214
36745SOL    HW112074   3.983   8.100   4.268
36745SOL    HW212075   3.843   8.157   4.270
36746SOL     OW12076   6.076   7.638  13.297
36746SOL    HW112077   5.990   7.656  13.259
36746SOL    HW212078   6.059   7.630  13.391
36747SOL     OW12079  13.562   7.568   6.011
36747SOL    HW112080  13.503   7.634   6.046
36747SOL    HW212081  13.611   7.536   6.087
36748SOL     OW12082   8.246   9.324   8.644
36748SOL    HW112083   8.172   9.311   8.586
36748SOL    HW212084   8.298   9.244   8.635
36749SOL     OW12085   0.915   4.876   9.178
36749SOL    HW112086   0.881   4.961   9.205
36749SOL    HW212087   0.992   4.863   9.233
36750SOL     OW12088   0.794   5.231  13.003
36750SOL    HW112089   0.841   5.304  13.043
36750SOL    HW212090   0.751   5.269  12.926
36751SOL     OW12091  10.447   3.976  14.253
36751SOL    HW112092  10.354   3.957  14.263
36751SOL    HW212093  10.468   3.945  14.165
36752SOL     OW12094  13.328  11.653   6.913
36752SOL    HW112095  13.351  11.709   6.987
36752SOL    HW212096  13.399  11.589   6.908
36753SOL     OW12097   5.731   1.693  13.728
36753SOL    HW112098   5.737   1.788  13.731
36753SOL    HW212099   5.651   1.673  13.775
36754SOL     OW12100  13.117  11.959   9.878
36754SOL    HW112101  13.101  11.934   9.787
36754SOL    HW212102  13.079  12.047   9.886
36755SOL     OW12103  11.021  11.283  11.330
36755SOL    HW112104  10.949  11.336  11.363
36755SOL    HW212105  11.097  11.312  11.381
36756SOL     OW12106  13.888   1.560  13.130
36756SOL    HW112107  13.916   1.623  13.062
36756SOL    HW212108  13.842   1.492  13.081
36757SOL     OW12109  12.143  11.790  13.275
36757SOL    HW112110  12.155  11.831  13.361
36757SOL    HW212111  12.110  11.702  13.295
36758SOL     OW12112   8.950  10.714  11.834
36758SOL    HW112113   8.917  10.636  11.789
36758SOL    HW212114   8.874  10.772  11.841
36759SOL     OW12115   5.882   7.226   5.958
36759SOL    HW112116   5.865   7.302   6.014
36759SOL    HW212117   5.974   7.204   5.976
36760SOL     OW12118   2.829   2.816  13.801
36760SOL    HW112119   2.794   2.772  13.878
36760SOL    HW212120   2.791   2.769  13.727
36761SOL     OW12121   0.403   5.793   8.375
36761SOL    HW112122   0.373   5.719   8.428
36761SOL    HW212123   0.364   5.870   8.416
36762SOL     OW12124   7.392   7.386   8.225
36762SOL    HW112125   7.440   7.449   8.170
36762SOL    HW212126   7.404   7.302   8.180
36763SOL     OW12127   9.362   9.304   9.615
36763SOL    HW112128   9.391   9.365   9.547
36763SOL    HW212129   9.373   9.217   9.576
36764SOL     OW12130   2.123   0.304  12.146
36764SOL    HW112131   2.215   0.299  12.121
36764SOL    HW212132   2.104   0.397  12.148
36765SOL     OW12133  13.133  12.215   3.045
36765SOL    HW112134  13.104  12.183   3.130
36765SOL    HW212135  13.055  12.257   3.008
36766SOL     OW12136  12.435   3.369   5.838
36766SOL    HW112137  12.420   3.403   5.749
36766SOL    HW212138  12.523   3.330   5.834
36767SOL     OW12139   2.223   0.906   5.417
36767SOL    HW112140   2.174   0.978   5.457
36767SOL    HW212141   2.209   0.832   5.476
36768SOL     OW12142  14.389   7.418   4.136
36768SOL    HW112143  14.327   7.439   4.207
36768SOL    HW212144  14.475   7.420   4.178
36769SOL     OW12145  10.210  13.575   3.117
36769SOL    HW112146  10.141  13.525   3.161
36769SOL    HW212147  10.204  13.663   3.155
36770SOL     OW12148  13.589   5.735   7.739
36770SOL    HW112149  13.665   5.778   7.779
36770SOL    HW212150  13.620   5.648   7.716
36771SOL     OW12151   8.980  11.031   2.264
36771SOL    HW112152   8.956  10.943   2.237
36771SOL    HW212153   8.918  11.054   2.333
36772SOL     OW12154   9.063  12.096  11.807
36772SOL    HW112155   9.053  12.009  11.845
36772SOL    HW212156   9.155  12.118  11.822
36773SOL     OW12157  11.431   5.492   9.630
36773SOL    HW112158  11.391   5.405   9.626
36773SOL    HW212159  11.425   5.525   9.541
36774SOL     OW12160  10.210   3.114   0.256
36774SOL    HW112161  10.266   3.114   0.333
36774SOL    HW212162  10.164   3.198   0.260
36775SOL     OW12163  13.747   0.216  11.125
36775SOL    HW112164  13.800   0.147  11.165
36775SOL    HW212165  13.685   0.169  11.069
36776SOL     OW12166   6.258   8.570   9.858
36776SOL    HW112167   6.321   8.630   9.818
36776SOL    HW212168   6.285   8.483   9.827
36777SOL     OW12169   2.073   3.025   7.500
36777SOL    HW112170   2.155   3.073   7.490
36777SOL    HW212171   2.083   2.976   7.582
36778SOL     OW12172  12.734  14.715  12.706
36778SOL    HW112173  12.660  14.749  12.656
36778SOL    HW212174  12.730  14.760  12.790
36779SOL     OW12175  12.376   7.023   1.503
36779SOL    HW112176  12.401   7.074   1.426
36779SOL    HW212177  12.348   7.088   1.566
36780SOL     OW12178  10.187   6.143   5.504
36780SOL    HW112179  10.175   6.157   5.598
36780SOL    HW212180  10.170   6.228   5.464
36781SOL     OW12181   4.500   9.396   2.753
36781SOL    HW112182   4.569   9.362   2.810
36781SOL    HW212183   4.531   9.483   2.727
36782SOL     OW12184  13.783   0.978  14.099
36782SOL    HW112185  13.763   1.071  14.111
36782SOL    HW212186  13.704   0.942  14.058
36783SOL     OW12187  11.067   8.641   1.944
36783SOL    HW112188  11.083   8.728   1.908
36783SOL    HW212189  10.983   8.649   1.989
36784SOL     OW12190   1.016  13.171   9.593
36784SOL    HW112191   1.111  13.174   9.592
36784SOL    HW212192   0.990  13.242   9.652
36785SOL     OW12193   5.299  11.968   8.400
36785SOL    HW112194   5.272  12.041   8.455
36785SOL    HW212195   5.232  11.901   8.414
36786SOL     OW12196   1.956  13.194   3.481
36786SOL    HW112197   1.999  13.111   3.458
36786SOL    HW212198   2.025  13.259   3.475
36787SOL     OW12199   4.832  11.254   5.076
36787SOL    HW112200   4.890  11.180   5.061
36787SOL    HW212201   4.749  11.214   5.103
36788SOL     OW12202   8.845  12.274   0.863
36788SOL    HW112203   8.930  12.276   0.820
36788SOL    HW212204   8.861  12.305   0.952
36789SOL     OW12205   2.668  11.162   3.566
36789SOL    HW112206   2.737  11.132   3.625
36789SOL    HW212207   2.706  11.156   3.479
36790SOL     OW12208   3.316   1.060  12.067
36790SOL    HW112209   3.232   1.077  12.109
36790SOL    HW212210   3.331   0.966  12.081
36791SOL     OW12211   3.996   9.810  12.380
36791SOL    HW112212   4.031   9.814  12.469
36791SOL    HW212213   4.072   9.823  12.323
36792SOL     OW12214  13.873   5.376  14.360
36792SOL    HW112215  13.819   5.302  14.333
36792SOL    HW212216  13.893   5.359  14.452
36793SOL     OW12217   8.134   6.296   0.154
36793SOL    HW112218   8.228   6.301   0.136
36793SOL    HW212219   8.094   6.283   0.069
36794SOL     OW12220   9.197   2.857  10.323
36794SOL    HW112221   9.129   2.852  10.391
36794SOL    HW212222   9.156   2.906  10.252
36795SOL     OW12223   0.812   7.465  13.585
36795SOL    HW112224   0.790   7.398  13.649
36795SOL    HW212225   0.879   7.424  13.530
36796SOL     OW12226   8.874   7.009   9.474
36796SOL    HW112227   8.928   6.932   9.459
36796SOL    HW212228   8.795   6.995   9.421
36797SOL     OW12229   6.664   6.359  12.345
36797SOL    HW112230   6.743   6.392  12.303
36797SOL    HW212231   6.670   6.264  12.335
36798SOL     OW12232   7.708   8.711   3.165
36798SOL    HW112233   7.737   8.709   3.074
36798SOL    HW212234   7.712   8.619   3.193
36799SOL     OW12235   8.684  10.978  12.515
36799SOL    HW112236   8.737  11.003  12.439
36799SOL    HW212237   8.667  10.884  12.501
36800SOL     OW12238  12.764  10.414  10.131
36800SOL    HW112239  12.702  10.346  10.105
36800SOL    HW212240  12.769  10.472  10.054
36801SOL     OW12241   6.842  13.708  10.432
36801SOL    HW112242   6.851  13.714  10.337
36801SOL    HW212243   6.905  13.772  10.466
36802SOL     OW12244   7.122   3.804  14.557
36802SOL    HW112245   7.201   3.752  14.570
36802SOL    HW212246   7.077   3.802  14.641
36803SOL     OW12247  10.002   9.532   0.076
36803SOL    HW112248  10.033   9.443   0.062
36803SOL    HW212249   9.922   9.538   0.024
36804SOL     OW12250   2.906   8.065   7.223
36804SOL    HW112251   2.941   8.151   7.245
36804SOL    HW212252   2.969   8.003   7.258
36805SOL     OW12253  10.749  13.900   0.659
36805SOL    HW112254  10.659  13.884   0.633
36805SOL    HW212255  10.791  13.813   0.656
36806SOL     OW12256   2.756   1.652   1.646
36806SOL    HW112257   2.695   1.673   1.717
36806SOL    HW212258   2.771   1.735   1.602
36807SOL     OW12259   2.053  11.941   4.020
36807SOL    HW112260   2.142  11.958   4.050
36807SOL    HW212261   2.064  11.904   3.932
36808SOL     OW12262   5.363  10.206   5.232
36808SOL    HW112263   5.404  10.124   5.203
36808SOL    HW212264   5.420  10.275   5.198
36809SOL     OW12265   9.652  11.010   7.960
36809SOL    HW112266   9.745  10.994   7.945
36809SOL    HW212267   9.646  11.040   8.050
36810SOL     OW12268   3.755   0.222  10.330
36810SOL    HW112269   3.705   0.210  10.410
36810SOL    HW212270   3.777   0.133  10.302
36811SOL     OW12271  10.388   9.557   3.267
36811SOL    HW112272  10.312   9.506   3.296
36811SOL    HW212273  10.415   9.605   3.346
36812SOL     OW12274  13.981   7.198   6.537
36812SOL    HW112275  13.930   7.263   6.489
36812SOL    HW212276  13.977   7.227   6.628
36813SOL     OW12277   1.248   8.043  14.437
36813SOL    HW112278   1.317   8.089  14.487
36813SOL    HW212279   1.241   8.093  14.355
36814SOL     OW12280  12.136   0.614   4.497
36814SOL    HW112281  12.074   0.588   4.565
36814SOL    HW212282  12.132   0.710   4.497
36815SOL     OW12283   0.548   9.609  14.155
36815SOL    HW112284   0.473   9.553  14.133
36815SOL    HW212285   0.513   9.698  14.151
36816SOL     OW12286   4.299  10.766   0.571
36816SOL    HW112287   4.224  10.792   0.626
36816SOL    HW212288   4.376  10.793   0.622
36817SOL     OW12289  13.259   0.727   3.588
36817SOL    HW112290  13.184   0.772   3.548
36817SOL    HW212291  13.253   0.751   3.681
36818SOL     OW12292  14.695   1.084   5.922
36818SOL    HW112293  14.732   1.131   5.996
36818SOL    HW212294  14.655   1.006   5.961
36819SOL     OW12295   7.320  12.530   9.806
36819SOL    HW112296   7.251  12.545   9.871
36819SOL    HW212297   7.333  12.615   9.765
36820SOL     OW12298   6.904  11.935  13.781
36820SOL    HW112299   6.813  11.904  13.776
36820SOL    HW212300   6.925  11.961  13.691
36821SOL     OW12301   2.997   6.038   3.174
36821SOL    HW112302   2.976   6.115   3.121
36821SOL    HW212303   3.088   6.052   3.201
36822SOL     OW12304   6.131   5.566   0.637
36822SOL    HW112305   6.107   5.515   0.715
36822SOL    HW212306   6.112   5.506   0.564
36823SOL     OW12307  12.063   6.555  12.654
36823SOL    HW112308  12.096   6.467  12.636
36823SOL    HW212309  11.972   6.553  12.625
36824SOL     OW12310  10.101   1.282   6.145
36824SOL    HW112311  10.122   1.332   6.224
36824SOL    HW212312  10.170   1.215   6.140
36825SOL     OW12313   0.040   6.568   8.868
36825SOL    HW112314  14.830   6.600   8.901
36825SOL    HW212315   0.030   6.473   8.861
36826SOL     OW12316  14.025  14.751   1.276
36826SOL    HW112317  14.045  14.672   1.327
36826SOL    HW212318  14.028  14.723   1.185
36827SOL     OW12319  13.036   2.406   8.002
36827SOL    HW112320  13.057   2.491   7.962
36827SOL    HW212321  12.983   2.361   7.937
36828SOL     OW12322   9.312   7.924   0.923
36828SOL    HW112323   9.263   7.895   0.847
36828SOL    HW212324   9.402   7.896   0.906
36829SOL     OW12325  10.924   7.509   8.286
36829SOL    HW112326  10.933   7.448   8.213
36829SOL    HW212327  10.912   7.454   8.363
36830SOL     OW12328   9.106  10.776   0.557
36830SOL    HW112329   9.021  10.762   0.600
36830SOL    HW212330   9.094  10.742   0.468
36831SOL     OW12331  11.686   3.257  13.907
36831SOL    HW112332  11.739   3.183  13.937
36831SOL    HW212333  11.668   3.308  13.987
36832SOL     OW12334   8.957   1.487   3.227
36832SOL    HW112335   8.885   1.489   3.291
36832SOL    HW212336   9.002   1.404   3.246
36833SOL     OW12337   1.188  13.194  11.405
36833SOL    HW112338   1.250  13.232  11.468
36833SOL    HW212339   1.185  13.258  11.334
36834SOL     OW12340   3.320   7.724  10.117
36834SOL    HW112341   3.266   7.766  10.049
36834SOL    HW212342   3.269   7.648  10.145
36835SOL     OW12343   4.878   5.466   2.247
36835SOL    HW112344   4.903   5.523   2.174
36835SOL    HW212345   4.957   5.416   2.266
36836SOL     OW12346   3.764   8.987   6.417
36836SOL    HW112347   3.686   9.042   6.411
36836SOL    HW212348   3.748   8.931   6.493
36837SOL     OW12349  13.296   0.363   4.746
36837SOL    HW112350  13.312   0.316   4.664
36837SOL    HW212351  13.382   0.367   4.788
36838SOL     OW12352  11.360   5.764   0.472
36838SOL    HW112353  11.273   5.734   0.498
36838SOL    HW212354  11.390   5.699   0.408
36839SOL     OW12355  12.228   6.915   9.716
36839SOL    HW112356  12.188   6.893   9.800
36839SOL    HW212357  12.161   6.891   9.651
36840SOL     OW12358  14.738   8.840   4.070
36840SOL    HW112359  14.804   8.874   4.131
36840SOL    HW212360  14.770   8.867   3.984
36841SOL     OW12361  10.535   8.820   2.601
36841SOL    HW112362  10.526   8.843   2.509
36841SOL    HW212363  10.622   8.853   2.626
36842SOL     OW12364   6.860  13.657   0.356
36842SOL    HW112365   6.845  13.604   0.277
36842SOL    HW212366   6.808  13.736   0.341
36843SOL     OW12367  10.516   9.651   3.038
36843SOL    HW112368  10.487   9.615   3.122
36843SOL    HW212369  10.538   9.575   2.985
36844SOL     OW12370   8.717   6.485   0.722
36844SOL    HW112371   8.803   6.517   0.751
36844SOL    HW212372   8.668   6.565   0.702
36845SOL     OW12373   0.901  10.432  14.598
36845SOL    HW112374   0.876  10.354  14.548
36845SOL    HW212375   0.975  10.404  14.652
36846SOL     OW12376   6.493   2.777   3.327
36846SOL    HW112377   6.578   2.810   3.356
36846SOL    HW212378   6.454   2.850   3.279
36847SOL     OW12379   6.194  11.431   3.106
36847SOL    HW112380   6.124  11.481   3.066
36847SOL    HW212381   6.272  11.485   3.094
36848SOL     OW12382   2.181  12.591  14.463
36848SOL    HW112383   2.209  12.675  14.499
36848SOL    HW212384   2.262  12.545  14.444
36849SOL     OW12385   1.256   9.953   3.788
36849SOL    HW112386   1.338   9.957   3.738
36849SOL    HW212387   1.284   9.963   3.879
36850SOL     OW12388   2.610  14.458   7.814
36850SOL    HW112389   2.526  14.470   7.858
36850SOL    HW212390   2.589  14.404   7.737
36851SOL     OW12391   5.677   5.012   6.275
36851SOL    HW112392   5.763   5.024   6.316
36851SOL    HW212393   5.690   4.940   6.214
36852SOL     OW12394   7.258   8.586   1.328
36852SOL    HW112395   7.223   8.513   1.379
36852SOL    HW212396   7.181   8.638   1.306
36853SOL     OW12397   8.590   8.852   6.249
36853SOL    HW112398   8.590   8.935   6.201
36853SOL    HW212399   8.539   8.792   6.194
36854SOL     OW12400  14.723   1.223   4.985
36854SOL    HW112401  14.727   1.254   4.894
36854SOL    HW212402  14.729   1.128   4.978
36855SOL     OW12403   9.231  14.605  10.827
36855SOL    HW112404   9.221  14.683  10.882
36855SOL    HW212405   9.143  14.590  10.790
36856SOL     OW12406   7.366  12.406   2.025
36856SOL    HW112407   7.425  12.370   1.959
36856SOL    HW212408   7.378  12.350   2.102
36857SOL     OW12409   5.088  13.481   4.492
36857SOL    HW112410   5.178  13.450   4.489
36857SOL    HW212411   5.035  13.404   4.470
36858SOL     OW12412   8.933   9.722  10.557
36858SOL    HW112413   8.973   9.666  10.490
36858SOL    HW212414   8.888   9.791  10.507
36859SOL     OW12415  11.486   0.727  13.314
36859SOL    HW112416  11.555   0.735  13.247
36859SOL    HW212417  11.407   0.705  13.264
36860SOL     OW12418  11.907   8.121   6.635
36860SOL    HW112419  11.836   8.139   6.697
36860SOL    HW212420  11.948   8.206   6.620
36861SOL     OW12421   2.824   4.203  14.081
36861SOL    HW112422   2.839   4.111  14.062
36861SOL    HW212423   2.874   4.219  14.161
36862SOL     OW12424   0.633   9.158   7.208
36862SOL    HW112425   0.585   9.220   7.262
36862SOL    HW212426   0.694   9.212   7.158
36863SOL     OW12427  13.284   3.047  12.324
36863SOL    HW112428  13.218   3.117  12.322
36863SOL    HW212429  13.348   3.076  12.389
36864SOL     OW12430   3.321   2.335   0.109
36864SOL    HW112431   3.326   2.264   0.045
36864SOL    HW212432   3.412   2.366   0.116
36865SOL     OW12433   2.288   5.283  10.004
36865SOL    HW112434   2.209   5.335   9.988
36865SOL    HW212435   2.306   5.293  10.097
36866SOL     OW12436   8.997   3.359   5.112
36866SOL    HW112437   8.988   3.450   5.084
36866SOL    HW212438   9.042   3.365   5.197
36867SOL     OW12439   7.132   3.728   6.629
36867SOL    HW112440   7.089   3.813   6.622
36867SOL    HW212441   7.211   3.738   6.575
36868SOL     OW12442   4.960   8.720  14.235
36868SOL    HW112443   4.907   8.682  14.165
36868SOL    HW212444   5.037   8.663  14.241
36869SOL     OW12445   6.368   3.659   8.128
36869SOL    HW112446   6.293   3.600   8.125
36869SOL    HW212447   6.364   3.697   8.216
36870SOL     OW12448  13.791   7.413  11.569
36870SOL    HW112449  13.707   7.398  11.525
36870SOL    HW212450  13.782   7.500  11.607
36871SOL     OW12451   6.279   9.845   2.125
36871SOL    HW112452   6.307   9.781   2.191
36871SOL    HW212453   6.231   9.911   2.175
36872SOL     OW12454   9.713  14.312   1.368
36872SOL    HW112455   9.742  14.346   1.283
36872SOL    HW212456   9.619  14.332   1.371
36873SOL     OW12457  10.385  13.274  10.111
36873SOL    HW112458  10.314  13.214  10.088
36873SOL    HW212459  10.450  13.219  10.155
36874SOL     OW12460  13.215   0.782   3.855
36874SOL    HW112461  13.186   0.870   3.878
36874SOL    HW212462  13.176   0.726   3.921
36875SOL     OW12463  10.365  12.283   5.042
36875SOL    HW112464  10.316  12.290   5.124
36875SOL    HW212465  10.306  12.318   4.975
36876SOL     OW12466   1.794  10.977   0.412
36876SOL    HW112467   1.745  10.944   0.488
36876SOL    HW212468   1.848  11.047   0.447
36877SOL     OW12469   2.574   5.829   8.526
36877SOL    HW112470   2.649   5.850   8.470
36877SOL    HW212471   2.611   5.782   8.600
36878SOL     OW12472  11.901   5.649   7.661
36878SOL    HW112473  11.936   5.635   7.749
36878SOL    HW212474  11.857   5.567   7.640
36879SOL     OW12475  10.532  11.091   8.721
36879SOL    HW112476  10.536  11.114   8.628
36879SOL    HW212477  10.440  11.099   8.744
36880SOL     OW12478   4.769  10.684  10.099
36880SOL    HW112479   4.745  10.776  10.107
36880SOL    HW212480   4.865  10.684  10.099
36881SOL     OW12481   4.948  11.062  13.929
36881SOL    HW112482   4.951  11.146  13.975
36881SOL    HW212483   4.989  11.081  13.844
36882SOL     OW12484   4.525  10.519  10.029
36882SOL    HW112485   4.596  10.576  10.058
36882SOL    HW212486   4.494  10.560   9.948
36883SOL     OW12487  10.079   5.639   2.770
36883SOL    HW112488  10.113   5.601   2.690
36883SOL    HW212489  10.154   5.684   2.809
36884SOL     OW12490   2.347  13.026   9.913
36884SOL    HW112491   2.348  12.930   9.918
36884SOL    HW212492   2.435  13.050   9.886
36885SOL     OW12493   9.363  11.884   3.726
36885SOL    HW112494   9.289  11.878   3.787
36885SOL    HW212495   9.331  11.842   3.646
36886SOL     OW12496   2.500   0.821   2.413
36886SOL    HW112497   2.507   0.857   2.501
36886SOL    HW212498   2.413   0.780   2.411
36887SOL     OW12499   5.859  14.362   6.879
36887SOL    HW112500   5.809  14.430   6.833
36887SOL    HW212501   5.813  14.349   6.961
36888SOL     OW12502  14.432  11.662   9.763
36888SOL    HW112503  14.337  11.657   9.767
36888SOL    HW212504  14.461  11.636   9.851
36889SOL     OW12505   4.077  14.560   5.486
36889SOL    HW112506   3.996  14.610   5.476
36889SOL    HW212507   4.144  14.626   5.502
36890SOL     OW12508  10.918   1.512   9.626
36890SOL    HW112509  10.998   1.466   9.652
36890SOL    HW212510  10.896   1.566   9.702
36891SOL     OW12511  13.667   8.201   0.904
36891SOL    HW112512  13.703   8.152   0.830
36891SOL    HW212513  13.626   8.135   0.959
36892SOL     OW12514   5.713   4.308   2.332
36892SOL    HW112515   5.666   4.372   2.278
36892SOL    HW212516   5.643   4.258   2.375
36893SOL     OW12517   4.958   9.599   5.890
36893SOL    HW112518   4.956   9.646   5.973
36893SOL    HW212519   4.885   9.537   5.895
36894SOL     OW12520   4.890   5.294  13.116
36894SOL    HW112521   4.836   5.370  13.094
36894SOL    HW212522   4.921   5.262  13.031
36895SOL     OW12523   7.175   3.649   0.142
36895SOL    HW112524   7.253   3.602   0.115
36895SOL    HW212525   7.102   3.594   0.113
36896SOL     OW12526   8.326   9.568   2.242
36896SOL    HW112527   8.234   9.561   2.216
36896SOL    HW212528   8.342   9.662   2.250
36897SOL     OW12529   8.442   8.820   8.274
36897SOL    HW112530   8.509   8.754   8.258
36897SOL    HW212531   8.436   8.869   8.192
36898SOL     OW12532  10.054   6.866   3.845
36898SOL    HW112533  10.027   6.884   3.935
36898SOL    HW212534   9.972   6.856   3.797
36899SOL     OW12535  10.812   1.536   3.847
36899SOL    HW112536  10.729   1.561   3.807
36899SOL    HW212537  10.810   1.441   3.848
36900SOL     OW12538  12.310   1.409  10.511
36900SOL    HW112539  12.351   1.399  10.424
36900SOL    HW212540  12.302   1.504  10.523
36901SOL     OW12541   3.378  10.215   1.886
36901SOL    HW112542   3.372  10.189   1.794
36901SOL    HW212543   3.426  10.143   1.928
36902SOL     OW12544   6.431   8.830   1.050
36902SOL    HW112545   6.364   8.838   0.982
36902SOL    HW212546   6.400   8.886   1.121
36903SOL     OW12547   1.944  14.584   9.831
36903SOL    HW112548   1.960  14.588   9.925
36903SOL    HW212549   1.969  14.495   9.806
36904SOL     OW12550   4.239  10.211   9.373
36904SOL    HW112551   4.296  10.282   9.402
36904SOL    HW212552   4.252  10.208   9.278
36905SOL     OW12553  10.282  10.078  14.153
36905SOL    HW112554  10.341  10.045  14.220
36905SOL    HW212555  10.303  10.171  14.146
36906SOL     OW12556   9.027   1.775   8.809
36906SOL    HW112557   9.076   1.822   8.740
36906SOL    HW212558   8.985   1.702   8.762
36907SOL     OW12559  11.017  12.193   8.099
36907SOL    HW112560  10.929  12.182   8.133
36907SOL    HW212561  11.070  12.132   8.150
36908SOL     OW12562   9.095   4.564   9.027
36908SOL    HW112563   9.028   4.504   9.060
36908SOL    HW212564   9.109   4.537   8.936
36909SOL     OW12565   5.536  13.289   8.707
36909SOL    HW112566   5.613  13.341   8.730
36909SOL    HW212567   5.505  13.255   8.791
36910SOL     OW12568   5.267   9.457   2.338
36910SOL    HW112569   5.198   9.502   2.388
36910SOL    HW212570   5.311   9.402   2.403
36911SOL     OW12571   1.953   4.402  12.996
36911SOL    HW112572   1.864   4.368  12.994
36911SOL    HW212573   1.956   4.468  12.927
36912SOL     OW12574  12.581   1.839  10.519
36912SOL    HW112575  12.525   1.908  10.554
36912SOL    HW212576  12.611   1.791  10.596
36913SOL     OW12577   4.323  10.228   6.809
36913SOL    HW112578   4.302  10.189   6.895
36913SOL    HW212579   4.293  10.319   6.816
36914SOL     OW12580   7.563  14.834  11.630
36914SOL    HW112581   7.627  14.860  11.562
36914SOL    HW212582   7.533  14.748  11.602
36915SOL     OW12583   9.889  10.450   8.699
36915SOL    HW112584   9.927  10.469   8.784
36915SOL    HW212585   9.804  10.493   8.700
36916SOL     OW12586   4.369   4.496   3.534
36916SOL    HW112587   4.438   4.525   3.474
36916SOL    HW212588   4.367   4.401   3.525
36917SOL     OW12589   0.946  11.541   6.750
36917SOL    HW112590   1.016  11.494   6.705
36917SOL    HW212591   0.988  11.583   6.825
36918SOL     OW12592  10.050   8.705  11.972
36918SOL    HW112593  10.080   8.626  12.016
36918SOL    HW212594  10.086   8.698  11.884
36919SOL     OW12595   5.035   7.686   0.363
36919SOL    HW112596   5.068   7.746   0.295
36919SOL    HW212597   5.006   7.609   0.314
36920SOL     OW12598   0.094   8.628   6.012
36920SOL    HW112599   0.026   8.562   5.998
36920SOL    HW212600   0.055   8.710   5.983
36921SOL     OW12601   9.803   0.877  13.071
36921SOL    HW112602   9.779   0.869  12.979
36921SOL    HW212603   9.724   0.912  13.113
36922SOL     OW12604   8.867  11.287  10.149
36922SOL    HW112605   8.962  11.276  10.153
36922SOL    HW212606   8.851  11.374  10.186
36923SOL     OW12607  12.267   9.923   5.378
36923SOL    HW112608  12.222   9.841   5.399
36923SOL    HW212609  12.360   9.903   5.392
36924SOL     OW12610  10.577  14.774   0.742
36924SOL    HW112611  10.644  14.718   0.781
36924SOL    HW212612  10.533  14.718   0.678
36925SOL     OW12613   1.924   7.234   0.132
36925SOL    HW112614   1.978   7.189   0.197
36925SOL    HW212615   1.964   7.211   0.048
36926SOL     OW12616   7.640   1.986   6.662
36926SOL    HW112617   7.723   2.004   6.707
36926SOL    HW212618   7.590   2.067   6.673
36927SOL     OW12619   6.389   2.756   6.319
36927SOL    HW112620   6.333   2.833   6.320
36927SOL    HW212621   6.423   2.751   6.230
36928SOL     OW12622  12.562   0.504   1.431
36928SOL    HW112623  12.503   0.555   1.375
36928SOL    HW212624  12.529   0.518   1.519
36929SOL     OW12625   6.605  14.717   3.993
36929SOL    HW112626   6.596  14.802   3.950
36929SOL    HW212627   6.519  14.676   3.983
36930SOL     OW12628  12.738   6.393  14.833
36930SOL    HW112629  12.810   6.398  14.770
36930SOL    HW212630  12.690   6.475  14.821
36931SOL     OW12631  10.897   8.718   3.020
36931SOL    HW112632  10.833   8.656   2.985
36931SOL    HW212633  10.865   8.804   2.994
36932SOL     OW12634   3.992   3.285   3.932
36932SOL    HW112635   3.938   3.364   3.938
36932SOL    HW212636   4.062   3.307   3.871
36933SOL     OW12637  14.187   0.672  14.312
36933SOL    HW112638  14.264   0.706  14.266
36933SOL    HW212639  14.115   0.727  14.280
36934SOL     OW12640  14.490   0.300   5.213
36934SOL    HW112641  14.543   0.362   5.164
36934SOL    HW212642  14.516   0.314   5.304
36935SOL     OW12643  14.276  12.122   2.227
36935SOL    HW112644  14.358  12.141   2.181
36935SOL    HW212645  14.220  12.197   2.208
36936SOL     OW12646  13.759   1.125   9.471
36936SOL    HW112647  13.702   1.202   9.481
36936SOL    HW212648  13.847   1.161   9.473
36937SOL     OW12649  13.901  12.821  13.027
36937SOL    HW112650  13.969  12.779  12.974
36937SOL    HW212651  13.819  12.797  12.984
36938SOL     OW12652   9.237   2.723   6.460
36938SOL    HW112653   9.253   2.629   6.465
36938SOL    HW212654   9.229   2.741   6.366
36939SOL     OW12655   2.780  12.640  14.337
36939SOL    HW112656   2.734  12.618  14.256
36939SOL    HW212657   2.783  12.736  14.338
36940SOL     OW12658   0.716   7.427   6.742
36940SOL    HW112659   0.692   7.495   6.805
36940SOL    HW212660   0.637   7.374   6.733
36941SOL     OW12661  14.700   8.766   7.262
36941SOL    HW112662  14.750   8.806   7.334
36941SOL    HW212663  14.759   8.772   7.186
36942SOL     OW12664   7.897   3.158   5.120
36942SOL    HW112665   7.989   3.181   5.133
36942SOL    HW212666   7.853   3.243   5.113
36943SOL     OW12667   6.699   5.091   0.289
36943SOL    HW112668   6.672   5.057   0.204
36943SOL    HW212669   6.630   5.152   0.314
36944SOL     OW12670   9.006  13.262   3.919
36944SOL    HW112671   9.068  13.199   3.880
36944SOL    HW212672   8.953  13.209   3.978
36945SOL     OW12673  13.736  12.094   9.526
36945SOL    HW112674  13.673  12.062   9.462
36945SOL    HW212675  13.717  12.187   9.534
36946SOL     OW12676   8.405  11.766   0.139
36946SOL    HW112677   8.496  11.742   0.121
36946SOL    HW212678   8.381  11.827   0.069
36947SOL     OW12679  12.861   6.847   1.221
36947SOL    HW112680  12.910   6.780   1.174
36947SOL    HW212681  12.770   6.817   1.219
36948SOL     OW12682   9.608   1.747   5.916
36948SOL    HW112683   9.596   1.808   5.843
36948SOL    HW212684   9.696   1.712   5.903
36949SOL     OW12685  11.928   1.054   0.815
36949SOL    HW112686  12.010   1.057   0.766
36949SOL    HW212687  11.902   1.146   0.824
36950SOL     OW12688   2.733  10.776   9.330
36950SOL    HW112689   2.661  10.838   9.322
36950SOL    HW212690   2.691  10.691   9.338
36951SOL     OW12691   9.230   8.184   7.337
36951SOL    HW112692   9.268   8.159   7.253
36951SOL    HW212693   9.202   8.275   7.324
36952SOL     OW12694   5.256   7.597  14.461
36952SOL    HW112695   5.249   7.663  14.392
36952SOL    HW212696   5.189   7.533  14.439
36953SOL     OW12697  12.024  10.975   0.378
36953SOL    HW112698  12.057  10.930   0.456
36953SOL    HW212699  11.936  10.940   0.366
36954SOL     OW12700  11.905   0.303   9.524
36954SOL    HW112701  11.820   0.338   9.549
36954SOL    HW212702  11.888   0.255   9.443
36955SOL     OW12703   8.008   1.663  14.769
36955SOL    HW112704   8.090   1.646  14.724
36955SOL    HW212705   7.940   1.635  14.707
36956SOL     OW12706   3.969  11.729   5.201
36956SOL    HW112707   3.915  11.705   5.277
36956SOL    HW212708   3.922  11.800   5.159
36957SOL     OW12709   2.466  14.388   5.216
36957SOL    HW112710   2.501  14.368   5.129
36957SOL    HW212711   2.502  14.474   5.237
36958SOL     OW12712  14.471   0.800   0.476
36958SOL    HW112713  14.444   0.891   0.488
36958SOL    HW212714  14.423   0.752   0.544
36959SOL     OW12715   4.689   2.551   4.320
36959SOL    HW112716   4.663   2.641   4.298
36959SOL    HW212717   4.626   2.496   4.275
36960SOL     OW12718   1.272   9.096   0.208
36960SOL    HW112719   1.338   9.044   0.162
36960SOL    HW212720   1.323   9.161   0.257
36961SOL     OW12721   8.660   1.161   4.808
36961SOL    HW112722   8.621   1.203   4.732
36961SOL    HW212723   8.664   1.230   4.875
36962SOL     OW12724   3.513   1.521  13.668
36962SOL    HW112725   3.418   1.509  13.673
36962SOL    HW212726   3.530   1.540  13.576
36963SOL     OW12727   4.870   1.763  11.804
36963SOL    HW112728   4.822   1.812  11.871
36963SOL    HW212729   4.802   1.733  11.743
36964SOL     OW12730   2.597  14.627   7.420
36964SOL    HW112731   2.609  14.536   7.393
36964SOL    HW212732   2.680  14.650   7.463
36965SOL     OW12733  13.449  12.463   9.519
36965SOL    HW112734  13.434  12.557   9.525
36965SOL    HW212735  13.364  12.427   9.492
36966SOL     OW12736  10.085  10.884   8.721
36966SOL    HW112737  10.179  10.897   8.710
36966SOL    HW212738  10.045  10.958   8.677
36967SOL     OW12739   7.774  12.881   3.649
36967SOL    HW112740   7.850  12.824   3.641
36967SOL    HW212741   7.767  12.924   3.563
36968SOL     OW12742  11.835  12.825  11.459
36968SOL    HW112743  11.848  12.878  11.380
36968SOL    HW212744  11.923  12.809  11.493
36969SOL     OW12745   1.796   0.914   1.740
36969SOL    HW112746   1.868   0.881   1.794
36969SOL    HW212747   1.738   0.958   1.802
36970SOL     OW12748   0.548  13.620   1.531
36970SOL    HW112749   0.478  13.670   1.573
36970SOL    HW212750   0.594  13.684   1.477
36971SOL     OW12751   9.556   5.323   0.041
36971SOL    HW112752   9.612   5.277   0.104
36971SOL    HW212753   9.595   5.410   0.033
36972SOL     OW12754   1.740  13.705  13.269
36972SOL    HW112755   1.798  13.729  13.341
36972SOL    HW212756   1.783  13.630  13.227
36973SOL     OW12757  11.161   5.971   7.401
36973SOL    HW112758  11.156   6.066   7.399
36973SOL    HW212759  11.185   5.949   7.491
36974SOL     OW12760   1.749   2.012  12.746
36974SOL    HW112761   1.821   1.996  12.806
36974SOL    HW212762   1.698   2.082  12.788
36975SOL     OW12763  11.934  11.120   3.615
36975SOL    HW112764  11.848  11.143   3.582
36975SOL    HW212765  11.921  11.108   3.709
36976SOL     OW12766   6.457   9.237  10.768
36976SOL    HW112767   6.506   9.311  10.804
36976SOL    HW212768   6.490   9.161  10.815
36977SOL     OW12769   8.133   1.464   3.604
36977SOL    HW112770   8.143   1.369   3.597
36977SOL    HW212771   8.099   1.478   3.692
36978SOL     OW12772   2.301   3.466   4.510
36978SOL    HW112773   2.334   3.475   4.600
36978SOL    HW212774   2.350   3.531   4.460
36979SOL     OW12775   8.827   6.985   9.028
36979SOL    HW112776   8.871   6.942   8.954
36979SOL    HW212777   8.773   7.053   8.988
36980SOL     OW12778  10.432   1.481   3.485
36980SOL    HW112779  10.458   1.444   3.401
36980SOL    HW212780  10.348   1.440   3.505
36981SOL     OW12781   4.545  10.446   2.872
36981SOL    HW112782   4.529  10.480   2.784
36981SOL    HW212783   4.600  10.512   2.914
36982SOL     OW12784   6.112  10.263   3.366
36982SOL    HW112785   6.186  10.208   3.391
36982SOL    HW212786   6.100  10.321   3.440
36983SOL     OW12787   1.441   0.146   4.141
36983SOL    HW112788   1.449   0.218   4.204
36983SOL    HW212789   1.528   0.107   4.137
36984SOL     OW12790   2.878  11.775  12.764
36984SOL    HW112791   2.875  11.809  12.675
36984SOL    HW212792   2.949  11.824  12.806
36985SOL     OW12793   0.086   9.538  12.400
36985SOL    HW112794   0.019   9.567  12.338
36985SOL    HW212795   0.140   9.477  12.350
36986SOL     OW12796  11.086  10.810   4.332
36986SOL    HW112797  11.029  10.881   4.302
36986SOL    HW212798  11.072  10.806   4.426
36987SOL     OW12799   5.312   1.647   9.788
36987SOL    HW112800   5.405   1.655   9.808
36987SOL    HW212801   5.269   1.708   9.848
36988SOL     OW12802   4.399   6.644   0.772
36988SOL    HW112803   4.431   6.729   0.742
36988SOL    HW212804   4.478   6.591   0.783
36989SOL     OW12805   9.362   0.353   4.516
36989SOL    HW112806   9.292   0.342   4.580
36989SOL    HW212807   9.388   0.444   4.524
36990SOL     OW12808   8.681   2.049   7.574
36990SOL    HW112809   8.643   2.003   7.499
36990SOL    HW212810   8.739   2.114   7.534
36991SOL     OW12811   4.295   0.448   9.821
36991SOL    HW112812   4.220   0.428   9.878
36991SOL    HW212813   4.299   0.543   9.819
36992SOL     OW12814   2.210   6.965  13.320
36992SOL    HW112815   2.248   7.027  13.258
36992SOL    HW212816   2.232   7.001  13.406
36993SOL     OW12817  14.392   4.032   8.102
36993SOL    HW112818  14.383   3.939   8.121
36993SOL    HW212819  14.442   4.067   8.176
36994SOL     OW12820   2.349   9.292  10.258
36994SOL    HW112821   2.407   9.330  10.325
36994SOL    HW212822   2.263   9.290  10.299
36995SOL     OW12823  11.781   2.360   9.412
36995SOL    HW112824  11.791   2.361   9.317
36995SOL    HW212825  11.700   2.312   9.427
36996SOL     OW12826  13.987   8.076   6.698
36996SOL    HW112827  13.947   8.156   6.665
36996SOL    HW212828  13.918   8.036   6.751
36997SOL     OW12829   7.273  14.716   8.286
36997SOL    HW112830   7.204  14.764   8.333
36997SOL    HW212831   7.349  14.722   8.344
36998SOL     OW12832   5.314  13.517  12.581
36998SOL    HW112833   5.265  13.437  12.561
36998SOL    HW212834   5.362  13.536  12.500
36999SOL     OW12835   9.397   7.629   1.242
36999SOL    HW112836   9.317   7.656   1.289
36999SOL    HW212837   9.468   7.649   1.303
37000SOL     OW12838   4.510   3.974  14.371
37000SOL    HW112839   4.599   3.984  14.405
37000SOL    HW212840   4.504   4.039  14.301
37001SOL     OW12841   0.168   0.275  13.571
37001SOL    HW112842   0.230   0.289  13.643
37001SOL    HW212843   0.095   0.227  13.611
37002SOL     OW12844   5.982   0.003   3.564
37002SOL    HW112845   5.932  14.856   3.643
37002SOL    HW212846   5.942   0.083   3.531
37003SOL     OW12847  10.593  14.387   5.518
37003SOL    HW112848  10.553  14.395   5.604
37003SOL    HW212849  10.622  14.296   5.513
37004SOL     OW12850  10.496   8.238   0.015
37004SOL    HW112851  10.464   8.310   0.071
37004SOL    HW212852  10.578   8.210   0.057
37005SOL     OW12853   0.361  12.853   3.703
37005SOL    HW112854   0.449  12.889   3.691
37005SOL    HW212855   0.371  12.759   3.684
37006SOL     OW12856   6.634   7.886  12.626
37006SOL    HW112857   6.675   7.815  12.577
37006SOL    HW212858   6.577   7.929  12.562
37007SOL     OW12859  12.346   7.909   8.790
37007SOL    HW112860  12.342   7.948   8.703
37007SOL    HW212861  12.436   7.924   8.819
37008SOL     OW12862   6.770  14.065   8.640
37008SOL    HW112863   6.763  14.004   8.566
37008SOL    HW212864   6.753  14.151   8.601
37009SOL     OW12865   6.349   0.421   4.768
37009SOL    HW112866   6.307   0.507   4.764
37009SOL    HW212867   6.438   0.439   4.799
37010SOL     OW12868  14.052   1.251   2.901
37010SOL    HW112869  14.128   1.205   2.937
37010SOL    HW212870  13.992   1.181   2.875
37011SOL     OW12871   7.678   0.001  11.363
37011SOL    HW112872   7.668   0.077  11.305
37011SOL    HW212873   7.595  14.828  11.355
37012SOL     OW12874   4.741   5.840   3.910
37012SOL    HW112875   4.797   5.782   3.961
37012SOL    HW212876   4.801   5.887   3.853
37013SOL     OW12877   8.941  11.261   1.930
37013SOL    HW112878   8.994  11.184   1.948
37013SOL    HW212879   8.985  11.332   1.975
37014SOL     OW12880   3.509   8.324   7.361
37014SOL    HW112881   3.431   8.318   7.414
37014SOL    HW212882   3.485   8.282   7.278
37015SOL     OW12883  12.709  11.578   9.996
37015SOL    HW112884  12.624  11.544   9.967
37015SOL    HW212885  12.690  11.622  10.079
37016SOL     OW12886   2.128  12.323  11.514
37016SOL    HW112887   2.195  12.255  11.508
37016SOL    HW212888   2.148  12.369  11.595
37017SOL     OW12889   2.105   6.980   1.737
37017SOL    HW112890   2.034   7.044   1.739
37017SOL    HW212891   2.117   6.955   1.829
37018SOL     OW12892  11.115  11.721   2.633
37018SOL    HW112893  11.093  11.710   2.725
37018SOL    HW212894  11.203  11.760   2.634
37019SOL     OW12895  13.397   6.850   5.052
37019SOL    HW112896  13.339   6.878   4.982
37019SOL    HW212897  13.483   6.844   5.011
37020SOL     OW12898   1.629   6.074   1.792
37020SOL    HW112899   1.554   6.132   1.772
37020SOL    HW212900   1.663   6.050   1.706
37021SOL     OW12901  10.941  12.118  10.575
37021SOL    HW112902  10.938  12.082  10.663
37021SOL    HW212903  11.002  12.192  10.582
37022SOL     OW12904  11.524  14.589  12.961
37022SOL    HW112905  11.600  14.545  12.924
37022SOL    HW212906  11.485  14.636  12.887
37023SOL     OW12907   4.545  14.510   3.274
37023SOL    HW112908   4.637  14.520   3.250
37023SOL    HW212909   4.540  14.544   3.363
37024SOL     OW12910   7.487   6.899   9.371
37024SOL    HW112911   7.414   6.924   9.427
37024SOL    HW212912   7.544   6.975   9.369
37025SOL     OW12913  14.539   9.891   4.198
37025SOL    HW112914  14.530   9.871   4.105
37025SOL    HW212915  14.526   9.986   4.203
37026SOL     OW12916  10.559  10.364   1.199
37026SOL    HW112917  10.549  10.289   1.141
37026SOL    HW212918  10.504  10.432   1.159
37027SOL     OW12919  11.794  11.323  13.694
37027SOL    HW112920  11.871  11.273  13.718
37027SOL    HW212921  11.806  11.408  13.738
37028SOL     OW12922   0.576   0.238  11.409
37028SOL    HW112923   0.525   0.170  11.364
37028SOL    HW212924   0.604   0.197  11.491
37029SOL     OW12925   2.610   3.749   5.145
37029SOL    HW112926   2.682   3.804   5.175
37029SOL    HW212927   2.618   3.749   5.050
37030SOL     OW12928   0.096   3.103   2.997
37030SOL    HW112929   0.161   3.054   3.047
37030SOL    HW212930   0.034   3.134   3.064
37031SOL     OW12931   5.338   5.636  12.023
37031SOL    HW112932   5.421   5.592  12.002
37031SOL    HW212933   5.303   5.662  11.938
37032SOL     OW12934  11.018   4.178   8.251
37032SOL    HW112935  11.094   4.234   8.269
37032SOL    HW212936  10.949   4.239   8.224
37033SOL     OW12937   6.156   7.385  13.223
37033SOL    HW112938   6.069   7.348  13.208
37033SOL    HW212939   6.139   7.474  13.254
37034SOL     OW12940  13.993   3.566   7.302
37034SOL    HW112941  14.056   3.637   7.291
37034SOL    HW212942  13.915   3.596   7.256
37035SOL     OW12943   3.996   8.706   1.303
37035SOL    HW112944   4.018   8.613   1.309
37035SOL    HW212945   3.901   8.708   1.291
37036SOL     OW12946  10.238   8.107   6.510
37036SOL    HW112947  10.272   8.060   6.434
37036SOL    HW212948  10.212   8.192   6.475
37037SOL     OW12949  10.520   4.126   5.395
37037SOL    HW112950  10.432   4.125   5.433
37037SOL    HW212951  10.514   4.189   5.323
37038SOL     OW12952   9.235   7.067  13.073
37038SOL    HW112953   9.211   7.111  12.991
37038SOL    HW212954   9.213   7.131  13.141
37039SOL     OW12955   0.274   2.718   7.303
37039SOL    HW112956   0.367   2.706   7.320
37039SOL    HW212957   0.262   2.691   7.212
37040SOL     OW12958   0.981   9.621  10.925
37040SOL    HW112959   1.026   9.567  10.860
37040SOL    HW212960   1.052   9.658  10.979
37041SOL     OW12961  10.581   9.496  11.172
37041SOL    HW112962  10.665   9.542  11.169
37041SOL    HW212963  10.541   9.514  11.086
37042SOL     OW12964   6.098  13.485   6.256
37042SOL    HW112965   6.128  13.472   6.345
37042SOL    HW212966   6.033  13.416   6.242
37043SOL     OW12967  14.099  10.872   8.011
37043SOL    HW112968  14.073  10.786   7.979
37043SOL    HW212969  14.049  10.934   7.958
37044SOL     OW12970   5.867   9.396   2.008
37044SOL    HW112971   5.799   9.463   2.007
37044SOL    HW212972   5.939   9.435   2.058
37045SOL     OW12973   8.320   4.032  13.633
37045SOL    HW112974   8.338   4.073  13.549
37045SOL    HW212975   8.273   3.952  13.611
37046SOL     OW12976  10.322   6.637   0.250
37046SOL    HW112977  10.278   6.714   0.215
37046SOL    HW212978  10.362   6.595   0.174
37047SOL     OW12979   9.575  13.028   8.497
37047SOL    HW112980   9.482  13.039   8.474
37047SOL    HW212981   9.603  13.115   8.524
37048SOL     OW12982   0.324   6.660   6.388
37048SOL    HW112983   0.251   6.700   6.340
37048SOL    HW212984   0.366   6.734   6.432
37049SOL     OW12985  12.741  10.506   9.877
37049SOL    HW112986  12.753  10.413   9.900
37049SOL    HW212987  12.744  10.508   9.782
37050SOL     OW12988  12.496  14.302  13.265
37050SOL    HW112989  12.581  14.326  13.303
37050SOL    HW212990  12.436  14.370  13.295
37051SOL     OW12991  10.188  14.438  11.256
37051SOL    HW112992  10.200  14.402  11.168
37051SOL    HW212993  10.093  14.439  11.268
37052SOL     OW12994   2.025  12.865   5.267
37052SOL    HW112995   2.068  12.792   5.311
37052SOL    HW212996   1.992  12.920   5.339
37053SOL     OW12997  11.635   9.478   7.888
37053SOL    HW112998  11.637   9.447   7.979
37053SOL    HW212999  11.545   9.510   7.876
37054SOL     OW13000   2.073   7.619   8.608
37054SOL    HW113001   2.116   7.672   8.541
37054SOL    HW213002   2.076   7.672   8.688
37055SOL     OW13003   1.080   0.308  12.242
37055SOL    HW113004   1.064   0.379  12.304
37055SOL    HW213005   1.107   0.353  12.162
37056SOL     OW13006   0.182   9.114   8.750
37056SOL    HW113007   0.092   9.113   8.718
37056SOL    HW213008   0.234   9.083   8.676
37057SOL     OW13009   6.731   4.140  12.993
37057SOL    HW113010   6.639   4.116  12.983
37057SOL    HW213011   6.753   4.116  13.083
37058SOL     OW13012   0.797   0.371  12.992
37058SOL    HW113013   0.708   0.364  12.957
37058SOL    HW213014   0.813   0.465  12.999
37059SOL     OW13015  14.753   8.671   0.284
37059SOL    HW113016  14.822   8.683   0.219
37059SOL    HW213017  14.672   8.692   0.238
37060SOL     OW13018  11.787   9.933  13.004
37060SOL    HW113019  11.850   9.921  13.075
37060SOL    HW213020  11.717   9.870  13.023
37061SOL     OW13021   5.193   0.206  13.735
37061SOL    HW113022   5.142   0.157  13.801
37061SOL    HW213023   5.173   0.163  13.652
37062SOL     OW13024   6.954   4.001  10.495
37062SOL    HW113025   6.973   3.973  10.405
37062SOL    HW213026   6.904   3.928  10.531
37063SOL     OW13027  14.602  10.245  12.994
37063SOL    HW113028  14.641  10.318  12.946
37063SOL    HW213029  14.630  10.167  12.946
37064SOL     OW13030  14.180  14.006   1.425
37064SOL    HW113031  14.269  13.997   1.389
37064SOL    HW213032  14.125  13.957   1.364
37065SOL     OW13033  12.728  14.688   9.121
37065SOL    HW113034  12.822  14.673   9.135
37065SOL    HW213035  12.722  14.778   9.090
37066SOL     OW13036  10.631  10.546   1.573
37066SOL    HW113037  10.678  10.573   1.495
37066SOL    HW213038  10.698  10.542   1.641
37067SOL     OW13039  11.439   9.101   9.307
37067SOL    HW113040  11.428   9.188   9.345
37067SOL    HW213041  11.531   9.080   9.323
37068SOL     OW13042   6.980  13.225   3.420
37068SOL    HW113043   6.891  13.194   3.403
37068SOL    HW213044   7.012  13.169   3.492
37069SOL     OW13045   6.024   5.878  13.816
37069SOL    HW113046   6.048   5.970  13.830
37069SOL    HW213047   6.099   5.840  13.770
37070SOL     OW13048   9.271   2.781   8.110
37070SOL    HW113049   9.244   2.870   8.088
37070SOL    HW213050   9.190   2.735   8.132
37071SOL     OW13051   1.576   8.538   3.974
37071SOL    HW113052   1.615   8.512   4.058
37071SOL    HW213053   1.585   8.633   3.973
37072SOL     OW13054  11.604  13.954   9.678
37072SOL    HW113055  11.631  13.970   9.587
37072SOL    HW213056  11.668  13.890   9.711
37073SOL     OW13057  11.731   0.342   7.845
37073SOL    HW113058  11.718   0.262   7.795
37073SOL    HW213059  11.825   0.359   7.839
37074SOL     OW13060   0.585   3.421  10.753
37074SOL    HW113061   0.531   3.374  10.817
37074SOL    HW213062   0.540   3.407  10.670
37075SOL     OW13063  10.615  14.427   0.866
37075SOL    HW113064  10.613  14.366   0.939
37075SOL    HW213065  10.525  14.431   0.835
37076SOL     OW13066   2.718   7.771  10.923
37076SOL    HW113067   2.688   7.698  10.977
37076SOL    HW213068   2.707   7.740  10.833
37077SOL     OW13069   9.210   6.603   4.972
37077SOL    HW113070   9.194   6.509   4.982
37077SOL    HW213071   9.147   6.631   4.906
37078SOL     OW13072   1.413  14.309   8.813
37078SOL    HW113073   1.358  14.231   8.806
37078SOL    HW213074   1.356  14.374   8.856
37079SOL     OW13075  13.971   2.741  14.584
37079SOL    HW113076  14.019   2.658  14.587
37079SOL    HW213077  13.896   2.724  14.527
37080SOL     OW13078   4.998   8.067  13.329
37080SOL    HW113079   5.009   8.150  13.375
37080SOL    HW213080   4.904   8.050  13.332
37081SOL     OW13081   9.442   2.732   3.499
37081SOL    HW113082   9.513   2.670   3.482
37081SOL    HW213083   9.471   2.781   3.576
37082SOL     OW13084  13.855  12.169   6.009
37082SOL    HW113085  13.844  12.077   6.035
37082SOL    HW213086  13.916  12.206   6.072
37083SOL     OW13087   3.017  12.341   4.196
37083SOL    HW113088   3.096  12.391   4.217
37083SOL    HW213089   2.976  12.391   4.125
37084SOL     OW13090   1.728   4.325   8.242
37084SOL    HW113091   1.665   4.385   8.281
37084SOL    HW213092   1.801   4.324   8.304
37085SOL     OW13093   7.703   0.206   5.749
37085SOL    HW113094   7.703   0.116   5.782
37085SOL    HW213095   7.680   0.260   5.824
37086SOL     OW13096  13.618  10.803   9.179
37086SOL    HW113097  13.630  10.840   9.092
37086SOL    HW213098  13.662  10.718   9.176
37087SOL     OW13099   6.331   7.459   4.262
37087SOL    HW113100   6.261   7.408   4.302
37087SOL    HW213101   6.334   7.541   4.313
37088SOL     OW13102   8.140   4.393  11.655
37088SOL    HW113103   8.137   4.468  11.595
37088SOL    HW213104   8.181   4.427  11.734
37089SOL     OW13105   9.559   9.889   7.466
37089SOL    HW113106   9.653   9.897   7.448
37089SOL    HW213107   9.531   9.815   7.412
37090SOL     OW13108  11.750   6.162   4.313
37090SOL    HW113109  11.716   6.150   4.224
37090SOL    HW213110  11.845   6.155   4.304
37091SOL     OW13111   9.836   3.373   5.030
37091SOL    HW113112   9.801   3.449   4.983
37091SOL    HW213113   9.872   3.316   4.962
37092SOL     OW13114  11.165   4.606   3.504
37092SOL    HW113115  11.095   4.661   3.468
37092SOL    HW213116  11.155   4.613   3.599
37093SOL     OW13117   4.687   8.368  12.906
37093SOL    HW113118   4.673   8.273  12.906
37093SOL    HW213119   4.675   8.394  12.815
37094SOL     OW13120   6.276   6.718   5.102
37094SOL    HW113121   6.239   6.751   5.021
37094SOL    HW213122   6.234   6.769   5.171
37095SOL     OW13123   5.670   2.278   6.790
37095SOL    HW113124   5.740   2.333   6.754
37095SOL    HW213125   5.612   2.340   6.834
37096SOL     OW13126   8.083   0.584  13.203
37096SOL    HW113127   8.097   0.492  13.180
37096SOL    HW213128   8.097   0.632  13.121
37097SOL     OW13129   0.905   4.194   2.512
37097SOL    HW113130   0.887   4.125   2.448
37097SOL    HW213131   0.983   4.163   2.560
37098SOL     OW13132  14.811  12.455   8.517
37098SOL    HW113133  14.794  12.466   8.611
37098SOL    HW213134   0.032  12.458   8.510
37099SOL     OW13135   8.999   0.123  13.161
37099SOL    HW113136   8.932   0.083  13.106
37099SOL    HW213137   9.082   0.105  13.116
37100SOL     OW13138  12.209   6.189  12.348
37100SOL    HW113139  12.151   6.251  12.303
37100SOL    HW213140  12.276   6.244  12.389
37101SOL     OW13141  14.482   5.311  12.877
37101SOL    HW113142  14.573   5.284  12.873
37101SOL    HW213143  14.464   5.351  12.792
37102SOL     OW13144   8.536   1.340   3.048
37102SOL    HW113145   8.623   1.320   3.080
37102SOL    HW213146   8.550   1.374   2.959
37103SOL     OW13147   8.142   2.763  11.831
37103SOL    HW113148   8.071   2.713  11.872
37103SOL    HW213149   8.098   2.830  11.780
37104SOL     OW13150   6.950  10.725  14.331
37104SOL    HW113151   6.925  10.807  14.373
37104SOL    HW213152   6.893  10.660  14.370
37105SOL     OW13153   6.059   5.832   1.497
37105SOL    HW113154   6.023   5.746   1.475
37105SOL    HW213155   6.027   5.890   1.428
37106SOL     OW13156  10.866   0.168   6.198
37106SOL    HW113157  10.812   0.105   6.246
37106SOL    HW213158  10.875   0.243   6.257
37107SOL     OW13159   8.063  12.197   2.029
37107SOL    HW113160   8.073  12.108   1.994
37107SOL    HW213161   8.145  12.241   2.007
37108SOL     OW13162   9.569  11.093   1.934
37108SOL    HW113163   9.552  11.075   1.842
37108SOL    HW213164   9.653  11.050   1.952
37109SOL     OW13165   7.693  13.447   9.433
37109SOL    HW113166   7.772  13.471   9.482
37109SOL    HW213167   7.642  13.528   9.431
37110SOL     OW13168  12.920  10.649   5.749
37110SOL    HW113169  12.858  10.686   5.687
37110SOL    HW213170  12.949  10.723   5.802
37111SOL     OW13171  13.594   9.369  10.360
37111SOL    HW113172  13.542   9.380  10.440
37111SOL    HW213173  13.683   9.353  10.391
37112SOL     OW13174  14.501  11.781  11.736
37112SOL    HW113175  14.576  11.796  11.678
37112SOL    HW213176  14.538  11.736  11.811
37113SOL     OW13177   1.518   1.004   4.821
37113SOL    HW113178   1.482   0.949   4.751
37113SOL    HW213179   1.509   0.951   4.900
37114SOL     OW13180  11.941  11.974  12.939
37114SOL    HW113181  11.969  12.055  12.897
37114SOL    HW213182  11.970  11.983  13.030
37115SOL     OW13183  11.292   8.926   3.483
37115SOL    HW113184  11.322   8.862   3.548
37115SOL    HW213185  11.244   8.991   3.534
37116SOL     OW13186  10.573   9.404   8.216
37116SOL    HW113187  10.499   9.347   8.195
37116SOL    HW213188  10.633   9.348   8.266
37117SOL     OW13189   8.053   1.131   1.796
37117SOL    HW113190   8.032   1.088   1.713
37117SOL    HW213191   8.124   1.079   1.834
37118SOL     OW13192  14.375   2.391   5.957
37118SOL    HW113193  14.446   2.455   5.951
37118SOL    HW213194  14.359   2.364   5.867
37119SOL     OW13195   5.288   5.848  13.307
37119SOL    HW113196   5.235   5.830  13.230
37119SOL    HW213197   5.283   5.768  13.359
37120SOL     OW13198   2.879   5.851   6.069
37120SOL    HW113199   2.914   5.811   6.149
37120SOL    HW213200   2.949   5.909   6.038
37121SOL     OW13201  12.973   0.459   8.925
37121SOL    HW113202  13.027   0.411   8.988
37121SOL    HW213203  12.990   0.551   8.945
37122SOL     OW13204   8.889   0.101   8.789
37122SOL    HW113205   8.980   0.075   8.775
37122SOL    HW213206   8.837   0.031   8.747
37123SOL     OW13207  11.483  10.828   6.786
37123SOL    HW113208  11.547  10.899   6.782
37123SOL    HW213209  11.456  10.814   6.696
37124SOL     OW13210  10.828   3.451   6.059
37124SOL    HW113211  10.809   3.399   6.137
37124SOL    HW213212  10.924   3.456   6.055
37125SOL     OW13213  12.960   8.272  11.260
37125SOL    HW113214  12.994   8.208  11.323
37125SOL    HW213215  12.889   8.226  11.215
37126SOL     OW13216   5.421  14.738   0.778
37126SOL    HW113217   5.423  14.781   0.692
37126SOL    HW213218   5.509  14.753   0.813
37127SOL     OW13219   3.472  11.163   0.648
37127SOL    HW113220   3.531  11.219   0.598
37127SOL    HW213221   3.530  11.097   0.688
37128SOL     OW13222  13.920   8.394  13.942
37128SOL    HW113223  13.986   8.379  14.010
37128SOL    HW213224  13.970   8.398  13.861
37129SOL     OW13225   8.624  13.289   9.527
37129SOL    HW113226   8.659  13.200   9.515
37129SOL    HW213227   8.594  13.315   9.440
37130SOL     OW13228  12.672  10.277  10.534
37130SOL    HW113229  12.729  10.245  10.604
37130SOL    HW213230  12.732  10.312  10.468
37131SOL     OW13231   9.930   7.470   6.156
37131SOL    HW113232   9.843   7.505   6.177
37131SOL    HW213233   9.967   7.444   6.240
37132SOL     OW13234   3.176  14.778  14.495
37132SOL    HW113235   3.121  14.837  14.443
37132SOL    HW213236   3.197  14.828  14.574
37133SOL     OW13237  14.361   3.146   5.717
37133SOL    HW113238  14.410   3.215   5.672
37133SOL    HW213239  14.416   3.069   5.708
37134SOL     OW13240   1.765   4.486  12.113
37134SOL    HW113241   1.828   4.474  12.185
37134SOL    HW213242   1.706   4.554  12.145
37135SOL     OW13243  12.007   6.903   2.051
37135SOL    HW113244  12.051   6.950   1.981
37135SOL    HW213245  12.072   6.895   2.121
37136SOL     OW13246  11.175  12.538  13.775
37136SOL    HW113247  11.124  12.494  13.843
37136SOL    HW213248  11.266  12.526  13.802
37137SOL     OW13249   6.561   4.215  12.050
37137SOL    HW113250   6.615   4.283  12.089
37137SOL    HW213251   6.566   4.142  12.112
37138SOL     OW13252   1.458  14.842  13.783
37138SOL    HW113253   1.377  14.796  13.806
37138SOL    HW213254   1.504  14.782  13.724
37139SOL     OW13255   5.148   6.206  14.631
37139SOL    HW113256   5.104   6.270  14.574
37139SOL    HW213257   5.096   6.126  14.620
37140SOL     OW13258  14.250   7.227   1.329
37140SOL    HW113259  14.342   7.236   1.354
37140SOL    HW213260  14.252   7.200   1.238
37141SOL     OW13261   9.553   5.302   5.994
37141SOL    HW113262   9.619   5.288   5.926
37141SOL    HW213263   9.494   5.227   5.984
37142SOL     OW13264   5.819   7.691   3.624
37142SOL    HW113265   5.731   7.725   3.610
37142SOL    HW213266   5.807   7.615   3.680
37143SOL     OW13267  14.644   9.467  14.545
37143SOL    HW113268  14.734   9.434  14.547
37143SOL    HW213269  14.624   9.478  14.452
37144SOL     OW13270   8.649   8.061   6.003
37144SOL    HW113271   8.687   8.075   6.090
37144SOL    HW213272   8.711   8.104   5.943
37145SOL     OW13273   5.051  10.010   9.102
37145SOL    HW113274   5.044   9.991   9.196
37145SOL    HW213275   5.135   9.973   9.076
37146SOL     OW13276  10.487   0.221   3.171
37146SOL    HW113277  10.521   0.287   3.231
37146SOL    HW213278  10.547   0.146   3.180
37147SOL     OW13279   8.441   4.766   2.512
37147SOL    HW113280   8.374   4.774   2.580
37147SOL    HW213281   8.480   4.680   2.527
37148SOL     OW13282  13.139   5.749   5.696
37148SOL    HW113283  13.122   5.768   5.788
37148SOL    HW213284  13.098   5.663   5.681
37149SOL     OW13285   1.049  10.474  11.281
37149SOL    HW113286   1.120  10.428  11.235
37149SOL    HW213287   1.091  10.512  11.358
37150SOL     OW13288   0.104  11.373  12.071
37150SOL    HW113289   0.102  11.300  12.132
37150SOL    HW213290   0.177  11.355  12.013
37151SOL     OW13291  12.378  12.086   9.987
37151SOL    HW113292  12.452  12.117  10.040
37151SOL    HW213293  12.301  12.112  10.037
37152SOL     OW13294  14.319   1.117   0.913
37152SOL    HW113295  14.357   1.042   0.959
37152SOL    HW213296  14.246   1.144   0.968
37153SOL     OW13297   3.888   6.696   0.845
37153SOL    HW113298   3.976   6.703   0.882
37153SOL    HW213299   3.861   6.786   0.830
37154SOL     OW13300   8.745   5.037  12.484
37154SOL    HW113301   8.709   4.974  12.547
37154SOL    HW213302   8.821   4.993  12.446
37155SOL     OW13303  11.163  13.494   1.595
37155SOL    HW113304  11.235  13.462   1.649
37155SOL    HW213305  11.124  13.565   1.646
37156SOL     OW13306  10.815   5.093  13.603
37156SOL    HW113307  10.876   5.144  13.548
37156SOL    HW213308  10.865   5.015  13.627
37157SOL     OW13309   2.721  14.064   6.397
37157SOL    HW113310   2.749  14.009   6.324
37157SOL    HW213311   2.682  14.141   6.354
37158SOL     OW13312  14.525   6.517   9.071
37158SOL    HW113313  14.581   6.477   9.139
37158SOL    HW213314  14.587   6.562   9.013
37159SOL     OW13315   4.435   7.506   7.823
37159SOL    HW113316   4.479   7.475   7.903
37159SOL    HW213317   4.374   7.436   7.801
37160SOL     OW13318   8.495   0.713   2.499
37160SOL    HW113319   8.506   0.783   2.563
37160SOL    HW213320   8.572   0.657   2.510
37161SOL     OW13321   8.556   4.792  11.980
37161SOL    HW113322   8.546   4.826  11.891
37161SOL    HW213323   8.492   4.721  11.987
37162SOL     OW13324  12.394   5.908  14.737
37162SOL    HW113325  12.478   5.935  14.774
37162SOL    HW213326  12.387   5.955  14.654
37163SOL     OW13327   0.946   7.129   2.190
37163SOL    HW113328   0.897   7.088   2.119
37163SOL    HW213329   0.997   7.057   2.228
37164SOL     OW13330   7.114   1.858  10.608
37164SOL    HW113331   7.143   1.790  10.548
37164SOL    HW213332   7.195   1.891  10.648
37165SOL     OW13333   9.722   5.276   7.277
37165SOL    HW113334   9.676   5.326   7.345
37165SOL    HW213335   9.678   5.301   7.196
37166SOL     OW13336   2.427   7.698   5.599
37166SOL    HW113337   2.474   7.754   5.537
37166SOL    HW213338   2.353   7.751   5.628
37167SOL     OW13339   6.977  11.011   4.312
37167SOL    HW113340   6.993  11.085   4.254
37167SOL    HW213341   7.062  10.969   4.322
37168SOL     OW13342   5.460   1.056   9.975
37168SOL    HW113343   5.555   1.055   9.984
37168SOL    HW213344   5.444   1.113   9.900
37169SOL     OW13345   7.333   0.639   4.571
37169SOL    HW113346   7.352   0.549   4.596
37169SOL    HW213347   7.310   0.683   4.654
37170SOL     OW13348   2.870  13.414   4.173
37170SOL    HW113349   2.774  13.406   4.180
37170SOL    HW213350   2.883  13.465   4.093
37171SOL     OW13351   2.033   3.485   8.863
37171SOL    HW113352   2.076   3.533   8.933
37171SOL    HW213353   1.946   3.523   8.857
37172SOL     OW13354   2.302   2.397  12.505
37172SOL    HW113355   2.335   2.487  12.515
37172SOL    HW213356   2.381   2.343  12.506
37173SOL     OW13357  10.067   1.914  14.020
37173SOL    HW113358  10.138   1.945  13.963
37173SOL    HW213359  10.098   1.829  14.052
37174SOL     OW13360   2.888   3.816   3.319
37174SOL    HW113361   2.880   3.766   3.401
37174SOL    HW213362   2.946   3.764   3.264
37175SOL     OW13363  12.441   6.144   0.099
37175SOL    HW113364  12.450   6.119   0.191
37175SOL    HW213365  12.531   6.144   0.066
37176SOL     OW13366   7.126  11.991   6.565
37176SOL    HW113367   7.215  12.007   6.534
37176SOL    HW213368   7.071  12.001   6.488
37177SOL     OW13369   9.021  13.434  13.716
37177SOL    HW113370   9.086  13.367  13.694
37177SOL    HW213371   9.069  13.517  13.712
37178SOL     OW13372   6.291   5.411   4.417
37178SOL    HW113373   6.269   5.504   4.410
37178SOL    HW213374   6.385   5.410   4.435
37179SOL     OW13375  10.407   9.216  11.021
37179SOL    HW113376  10.495   9.254  11.013
37179SOL    HW213377  10.349   9.292  11.033
37180SOL     OW13378   3.576  10.047  14.244
37180SOL    HW113379   3.616  10.112  14.185
37180SOL    HW213380   3.627   9.967  14.229
37181SOL     OW13381   0.529  13.880   8.767
37181SOL    HW113382   0.521  13.844   8.855
37181SOL    HW213383   0.459  13.945   8.761
37182SOL     OW13384  14.584   0.601   7.942
37182SOL    HW113385  14.632   0.525   7.973
37182SOL    HW213386  14.628   0.676   7.983
37183SOL     OW13387   8.782  13.194   8.367
37183SOL    HW113388   8.870  13.158   8.376
37183SOL    HW213389   8.735  13.161   8.444
37184SOL     OW13390  10.555   3.687   2.775
37184SOL    HW113391  10.554   3.652   2.685
37184SOL    HW213392  10.645   3.715   2.789
37185SOL     OW13393  14.232   3.112  14.170
37185SOL    HW113394  14.308   3.153  14.211
37185SOL    HW213395  14.180   3.080  14.244
37186SOL     OW13396   3.155   6.954  12.611
37186SOL    HW113397   3.109   6.998  12.682
37186SOL    HW213398   3.248   6.965  12.632
37187SOL     OW13399  11.729   0.449  13.366
37187SOL    HW113400  11.654   0.462  13.308
37187SOL    HW213401  11.717   0.515  13.435
37188SOL     OW13402   8.878   3.855   3.252
37188SOL    HW113403   8.852   3.935   3.207
37188SOL    HW213404   8.816   3.789   3.223
37189SOL     OW13405   3.202   8.323  11.467
37189SOL    HW113406   3.175   8.289  11.381
37189SOL    HW213407   3.203   8.246  11.524
37190SOL     OW13408   7.377   9.605   7.246
37190SOL    HW113409   7.318   9.554   7.302
37190SOL    HW213410   7.436   9.540   7.208
37191SOL     OW13411  11.712   0.994   8.666
37191SOL    HW113412  11.697   1.017   8.574
37191SOL    HW213413  11.630   0.954   8.695
37192SOL     OW13414   4.973   9.930  13.035
37192SOL    HW113415   5.040   9.902  13.097
37192SOL    HW213416   4.964  10.024  13.050
37193SOL     OW13417   4.958   5.464   6.947
37193SOL    HW113418   4.912   5.511   6.878
37193SOL    HW213419   5.048   5.498   6.943
37194SOL     OW13420  11.033   0.058  10.286
37194SOL    HW113421  11.060   0.077  10.196
37194SOL    HW213422  10.993   0.140  10.316
37195SOL     OW13423   2.556  10.253   9.298
37195SOL    HW113424   2.630  10.294   9.342
37195SOL    HW213425   2.535  10.313   9.227
37196SOL     OW13426   5.008  14.690  14.585
37196SOL    HW113427   4.976  14.689  14.495
37196SOL    HW213428   4.961  14.762  14.627
37197SOL     OW13429   6.717  11.795  10.676
37197SOL    HW113430   6.637  11.848  10.671
37197SOL    HW213431   6.692  11.718  10.726
37198SOL     OW13432   4.177   8.615   9.782
37198SOL    HW113433   4.112   8.555   9.820
37198SOL    HW213434   4.259   8.565   9.784
37199SOL     OW13435  14.107  13.566  10.400
37199SOL    HW113436  14.186  13.552  10.349
37199SOL    HW213437  14.070  13.478  10.412
37200SOL     OW13438   5.145  12.703   7.899
37200SOL    HW113439   5.196  12.634   7.943
37200SOL    HW213440   5.116  12.760   7.970
37201SOL     OW13441   8.120  13.018   5.602
37201SOL    HW113442   8.156  13.042   5.687
37201SOL    HW213443   8.122  12.922   5.601
37202SOL     OW13444  12.570   1.211   5.499
37202SOL    HW113445  12.560   1.154   5.575
37202SOL    HW213446  12.659   1.246   5.506
37203SOL     OW13447   7.176  13.950   4.680
37203SOL    HW113448   7.181  13.855   4.686
37203SOL    HW213449   7.266  13.980   4.690
37204SOL     OW13450   6.875  12.694  11.090
37204SOL    HW113451   6.955  12.650  11.062
37204SOL    HW213452   6.804  12.637  11.061
37205SOL     OW13453  14.861   6.530  13.738
37205SOL    HW113454   0.079   6.544  13.717
37205SOL    HW213455  14.851   6.435  13.740
37206SOL     OW13456   5.644   9.468  11.052
37206SOL    HW113457   5.578   9.403  11.030
37206SOL    HW213458   5.634   9.537  10.987
37207SOL     OW13459   2.709   0.408  10.125
37207SOL    HW113460   2.647   0.480  10.135
37207SOL    HW213461   2.744   0.395  10.213
37208SOL     OW13462   8.199  14.107  13.949
37208SOL    HW113463   8.207  14.019  13.913
37208SOL    HW213464   8.216  14.097  14.042
37209SOL     OW13465   7.246   5.746  13.943
37209SOL    HW113466   7.210   5.814  13.887
37209SOL    HW213467   7.310   5.791  13.998
37210SOL     OW13468   4.826  13.401   5.508
37210SOL    HW113469   4.827  13.306   5.520
37210SOL    HW213470   4.733  13.424   5.503
37211SOL     OW13471   7.793   4.326  10.545
37211SOL    HW113472   7.823   4.324  10.454
37211SOL    HW213473   7.844   4.396  10.585
37212SOL     OW13474   3.146   3.123   0.194
37212SOL    HW113475   3.220   3.136   0.134
37212SOL    HW213476   3.125   3.210   0.227
37213SOL     OW13477   5.545  10.600   6.793
37213SOL    HW113478   5.518  10.545   6.866
37213SOL    HW213479   5.560  10.539   6.721
37214SOL     OW13480   1.662  11.868  11.614
37214SOL    HW113481   1.620  11.931  11.673
37214SOL    HW213482   1.696  11.800  11.672
37215SOL     OW13483   4.872  10.797   1.310
37215SOL    HW113484   4.962  10.823   1.291
37215SOL    HW213485   4.867  10.706   1.280
37216SOL     OW13486   3.881   9.531   2.266
37216SOL    HW113487   3.883   9.473   2.343
37216SOL    HW213488   3.972   9.535   2.236
37217SOL     OW13489  11.778  12.342   9.513
37217SOL    HW113490  11.843  12.379   9.454
37217SOL    HW213491  11.732  12.418   9.549
37218SOL     OW13492  12.271  11.065   4.227
37218SOL    HW113493  12.290  10.972   4.218
37218SOL    HW213494  12.317  11.091   4.307
37219SOL     OW13495   1.891  14.576   4.480
37219SOL    HW113496   1.952  14.647   4.462
37219SOL    HW213497   1.854  14.596   4.565
37220SOL     OW13498   7.238   7.026  10.319
37220SOL    HW113499   7.193   7.103  10.284
37220SOL    HW213500   7.292   6.994  10.246
37221SOL     OW13501   7.870  12.731   0.634
37221SOL    HW113502   7.859  12.803   0.696
37221SOL    HW213503   7.937  12.762   0.573
37222SOL     OW13504   9.512   8.629   3.209
37222SOL    HW113505   9.491   8.606   3.118
37222SOL    HW213506   9.514   8.725   3.209
37223SOL     OW13507   0.008  13.201   3.468
37223SOL    HW113508   0.013  13.227   3.376
37223SOL    HW213509   0.054  13.117   3.472
37224SOL     OW13510   0.048  10.292   2.433
37224SOL    HW113511  14.854  10.312   2.368
37224SOL    HW213512   0.108  10.366   2.428
37225SOL     OW13513  14.429   5.869  11.790
37225SOL    HW113514  14.454   5.852  11.881
37225SOL    HW213515  14.421   5.782  11.751
37226SOL     OW13516   1.686  12.806   3.036
37226SOL    HW113517   1.706  12.899   3.038
37226SOL    HW213518   1.763  12.764   3.075
37227SOL     OW13519   4.700  14.199   8.536
37227SOL    HW113520   4.633  14.245   8.484
37227SOL    HW213521   4.772  14.262   8.543
37228SOL     OW13522   5.069   7.177   5.202
37228SOL    HW113523   5.135   7.117   5.236
37228SOL    HW213524   5.116   7.233   5.140
37229SOL     OW13525   6.880   9.468   8.865
37229SOL    HW113526   6.800   9.459   8.916
37229SOL    HW213527   6.911   9.378   8.853
37230SOL     OW13528  14.136   8.249   4.439
37230SOL    HW113529  14.043   8.247   4.414
37230SOL    HW213530  14.163   8.157   4.437
37231SOL     OW13531   8.724   9.921   5.555
37231SOL    HW113532   8.814   9.954   5.548
37231SOL    HW213533   8.675   9.992   5.596
37232SOL     OW13534  10.314   5.912  11.352
37232SOL    HW113535  10.280   5.987  11.402
37232SOL    HW213536  10.278   5.922  11.264
37233SOL     OW13537   9.719   7.543   7.024
37233SOL    HW113538   9.724   7.547   6.928
37233SOL    HW213539   9.712   7.635   7.051
37234SOL     OW13540   3.107   8.852   1.282
37234SOL    HW113541   3.120   8.759   1.262
37234SOL    HW213542   3.193   8.892   1.270
37235SOL     OW13543  14.080   5.133   8.194
37235SOL    HW113544  14.075   5.086   8.277
37235SOL    HW213545  14.064   5.066   8.128
37236SOL     OW13546   1.073   2.978   1.346
37236SOL    HW113547   1.129   2.988   1.269
37236SOL    HW213548   1.100   3.049   1.404
37237SOL     OW13549   9.765  11.693   2.683
37237SOL    HW113550   9.670  11.704   2.679
37237SOL    HW213551   9.796  11.722   2.597
37238SOL     OW13552   2.575  14.635  13.075
37238SOL    HW113553   2.586  14.610  12.983
37238SOL    HW213554   2.499  14.586  13.105
37239SOL     OW13555   9.710  14.145  12.536
37239SOL    HW113556   9.746  14.119  12.621
37239SOL    HW213557   9.725  14.239  12.531
37240SOL     OW13558  10.988   2.885   3.185
37240SOL    HW113559  10.953   2.873   3.274
37240SOL    HW213560  10.988   2.798   3.147
37241SOL     OW13561   5.044   3.294  11.628
37241SOL    HW113562   5.054   3.341  11.711
37241SOL    HW213563   5.106   3.221  11.634
37242SOL     OW13564  13.064  11.500   0.116
37242SOL    HW113565  13.151  11.541   0.119
37242SOL    HW213566  13.004  11.573   0.103
37243SOL     OW13567   3.177   8.614   3.619
37243SOL    HW113568   3.233   8.589   3.546
37243SOL    HW213569   3.218   8.692   3.656
37244SOL     OW13570   7.889  14.000   1.216
37244SOL    HW113571   7.806  14.041   1.242
37244SOL    HW213572   7.866  13.908   1.201
37245SOL     OW13573   8.046   3.497  10.273
37245SOL    HW113574   7.974   3.470  10.216
37245SOL    HW213575   8.035   3.444  10.352
37246SOL     OW13576  13.945  11.687   7.872
37246SOL    HW113577  13.919  11.625   7.940
37246SOL    HW213578  14.041  11.679   7.868
37247SOL     OW13579  10.169   0.310   0.230
37247SOL    HW113580  10.092   0.324   0.285
37247SOL    HW213581  10.241   0.299   0.293
37248SOL     OW13582  13.531   5.803   3.383
37248SOL    HW113583  13.542   5.751   3.303
37248SOL    HW213584  13.616   5.798   3.427
37249SOL     OW13585   6.885   9.291   4.242
37249SOL    HW113586   6.804   9.240   4.243
37249SOL    HW213587   6.945   9.240   4.186
37250SOL     OW13588   1.083  10.596   2.782
37250SOL    HW113589   1.047  10.638   2.860
37250SOL    HW213590   1.177  10.590   2.799
37251SOL     OW13591   7.473   9.884   8.960
37251SOL    HW113592   7.432   9.931   9.032
37251SOL    HW213593   7.566   9.878   8.984
37252SOL     OW13594   0.817   9.986  11.716
37252SOL    HW113595   0.903   9.952  11.694
37252SOL    HW213596   0.835  10.072  11.755
37253SOL     OW13597   5.323  14.786  12.735
37253SOL    HW113598   5.249  14.733  12.704
37253SOL    HW213599   5.377  14.799  12.657
37254SOL     OW13600   7.803   1.391   3.934
37254SOL    HW113601   7.872   1.329   3.913
37254SOL    HW213602   7.764   1.358   4.015
37255SOL     OW13603   4.625   6.377  11.910
37255SOL    HW113604   4.666   6.461  11.934
37255SOL    HW213605   4.692   6.312  11.928
37256SOL     OW13606   8.924   6.156   7.596
37256SOL    HW113607   8.951   6.196   7.679
37256SOL    HW213608   8.993   6.093   7.576
37257SOL     OW13609   6.396  14.063   8.477
37257SOL    HW113610   6.371  14.093   8.565
37257SOL    HW213611   6.313  14.055   8.430
37258SOL     OW13612   9.052   0.724   5.522
37258SOL    HW113613   9.005   0.798   5.561
37258SOL    HW213614   9.000   0.647   5.545
37259SOL     OW13615  10.383  10.783  12.041
37259SOL    HW113616  10.439  10.825  11.976
37259SOL    HW213617  10.429  10.702  12.065
37260SOL     OW13618   1.935   8.785   2.420
37260SOL    HW113619   1.976   8.840   2.354
37260SOL    HW213620   1.903   8.708   2.372
37261SOL     OW13621   5.204  11.584  12.838
37261SOL    HW113622   5.187  11.490  12.846
37261SOL    HW213623   5.242  11.594  12.751
37262SOL     OW13624  10.178   9.734   5.694
37262SOL    HW113625  10.105   9.673   5.704
37262SOL    HW213626  10.256   9.678   5.702
37263SOL     OW13627   0.249   8.943   3.673
37263SOL    HW113628   0.318   8.894   3.718
37263SOL    HW213629   0.209   8.878   3.615
37264SOL     OW13630  14.430   6.186  11.538
37264SOL    HW113631  14.394   6.274  11.546
37264SOL    HW213632  14.507   6.186  11.594
37265SOL     OW13633   6.015   8.294  13.842
37265SOL    HW113634   5.992   8.282  13.750
37265SOL    HW213635   6.045   8.208  13.871
37266SOL     OW13636   5.813   7.499  14.602
37266SOL    HW113637   5.805   7.460  14.689
37266SOL    HW213638   5.771   7.584  14.609
37267SOL     OW13639   5.288   1.339   7.572
37267SOL    HW113640   5.331   1.331   7.488
37267SOL    HW213641   5.197   1.316   7.555
37268SOL     OW13642   5.240   3.695   7.906
37268SOL    HW113643   5.239   3.652   7.992
37268SOL    HW213644   5.331   3.690   7.878
37269SOL     OW13645   9.263   1.953   1.700
37269SOL    HW113646   9.280   1.877   1.755
37269SOL    HW213647   9.338   1.958   1.641
37270SOL     OW13648  12.734  11.440   1.648
37270SOL    HW113649  12.691  11.525   1.637
37270SOL    HW213650  12.688  11.399   1.721
37271SOL     OW13651   0.392   7.796   0.228
37271SOL    HW113652   0.298   7.780   0.241
37271SOL    HW213653   0.397   7.888   0.204
37272SOL     OW13654   7.087  14.566   2.204
37272SOL    HW113655   7.161  14.580   2.263
37272SOL    HW213656   7.010  14.587   2.258
37273SOL     OW13657   6.480  14.367   6.672
37273SOL    HW113658   6.559  14.330   6.713
37273SOL    HW213659   6.429  14.290   6.646
37274SOL     OW13660   5.571   9.290  11.363
37274SOL    HW113661   5.589   9.232  11.289
37274SOL    HW213662   5.549   9.230  11.435
37275SOL     OW13663  13.300   8.105   6.555
37275SOL    HW113664  13.274   8.028   6.606
37275SOL    HW213665  13.222   8.127   6.504
37276SOL     OW13666   3.635   1.672   2.381
37276SOL    HW113667   3.582   1.658   2.459
37276SOL    HW213668   3.624   1.592   2.329
37277SOL     OW13669  13.283   1.422   7.329
37277SOL    HW113670  13.296   1.503   7.279
37277SOL    HW213671  13.194   1.430   7.363
37278SOL     OW13672   8.370   6.803   6.998
37278SOL    HW113673   8.435   6.873   7.002
37278SOL    HW213674   8.333   6.811   6.910
37279SOL     OW13675  11.744   4.085  14.449
37279SOL    HW113676  11.667   4.084  14.391
37279SOL    HW213677  11.728   4.158  14.508
37280SOL     OW13678   9.824   4.055   0.914
37280SOL    HW113679   9.768   3.978   0.901
37280SOL    HW213680   9.913   4.023   0.897
37281SOL     OW13681   2.151   1.806   7.910
37281SOL    HW113682   2.202   1.787   7.989
37281SOL    HW213683   2.205   1.867   7.861
37282SOL     OW13684   8.332  10.941   3.600
37282SOL    HW113685   8.346  10.892   3.681
37282SOL    HW213686   8.419  10.950   3.561
37283SOL     OW13687   0.098   9.194   0.177
37283SOL    HW113688   0.122   9.247   0.101
37283SOL    HW213689   0.130   9.244   0.252
37284SOL     OW13690   7.796   2.502  11.765
37284SOL    HW113691   7.780   2.556  11.687
37284SOL    HW213692   7.841   2.425  11.731
37285SOL     OW13693  14.304  13.270   3.312
37285SOL    HW113694  14.283  13.222   3.392
37285SOL    HW213695  14.392  13.306   3.328
37286SOL     OW13696   3.655   3.680   8.093
37286SOL    HW113697   3.699   3.641   8.017
37286SOL    HW213698   3.600   3.610   8.128
37287SOL     OW13699   7.142   7.885   7.759
37287SOL    HW113700   7.236   7.884   7.773
37287SOL    HW213701   7.115   7.974   7.783
37288SOL     OW13702   3.740   6.302   1.661
37288SOL    HW113703   3.695   6.218   1.648
37288SOL    HW213704   3.673   6.359   1.698
37289SOL     OW13705   6.780  10.313   1.273
37289SOL    HW113706   6.815  10.295   1.185
37289SOL    HW213707   6.838  10.381   1.308
37290SOL     OW13708  13.303  11.567  13.469
37290SOL    HW113709  13.368  11.512  13.512
37290SOL    HW213710  13.280  11.633  13.535
37291SOL     OW13711   1.268  13.764   2.154
37291SOL    HW113712   1.356  13.737   2.180
37291SOL    HW213713   1.209  13.722   2.216
37292SOL     OW13714  14.314   0.405  12.018
37292SOL    HW113715  14.366   0.476  12.056
37292SOL    HW213716  14.301   0.344  12.090
37293SOL     OW13717  10.428  10.236  13.199
37293SOL    HW113718  10.393  10.325  13.208
37293SOL    HW213719  10.390  10.187  13.271
37294SOL     OW13720   4.917   5.889  11.230
37294SOL    HW113721   5.009   5.902  11.205
37294SOL    HW213722   4.884   5.978  11.241
37295SOL     OW13723   5.699  11.258   8.519
37295SOL    HW113724   5.752  11.238   8.596
37295SOL    HW213725   5.733  11.200   8.450
37296SOL     OW13726  14.657   6.275  11.369
37296SOL    HW113727  14.654   6.262  11.464
37296SOL    HW213728  14.575   6.236  11.337
37297SOL     OW13729   2.550  11.565  11.798
37297SOL    HW113730   2.587  11.588  11.883
37297SOL    HW213731   2.623  11.574  11.737
37298SOL     OW13732  12.677   7.178   2.941
37298SOL    HW113733  12.599   7.136   2.979
37298SOL    HW213734  12.707   7.116   2.874
37299SOL     OW13735   2.676   7.434   7.921
37299SOL    HW113736   2.645   7.489   7.850
37299SOL    HW213737   2.769   7.454   7.930
37300SOL     OW13738   7.717   6.037  11.776
37300SOL    HW113739   7.779   6.032  11.849
37300SOL    HW213740   7.634   6.005  11.813
37301SOL     OW13741  11.955  11.350   9.404
37301SOL    HW113742  11.990  11.263   9.420
37301SOL    HW213743  11.992  11.404   9.473
37302SOL     OW13744   5.130  12.227   6.435
37302SOL    HW113745   5.126  12.140   6.395
37302SOL    HW213746   5.044  12.239   6.475
37303SOL     OW13747   9.833   0.456   8.957
37303SOL    HW113748   9.881   0.528   8.998
37303SOL    HW213749   9.856   0.463   8.864
37304SOL     OW13750   1.888   8.005  14.058
37304SOL    HW113751   1.903   8.054  14.138
37304SOL    HW213752   1.794   7.983  14.061
37305SOL     OW13753  14.037   6.910  14.589
37305SOL    HW113754  14.123   6.869  14.578
37305SOL    HW213755  14.020   6.954  14.506
37306SOL     OW13756  11.682   0.677   9.466
37306SOL    HW113757  11.764   0.708   9.504
37306SOL    HW213758  11.622   0.751   9.477
37307SOL     OW13759   8.371   7.170  12.753
37307SOL    HW113760   8.357   7.251  12.705
37307SOL    HW213761   8.290   7.120  12.741
37308SOL     OW13762   4.963  13.071  11.469
37308SOL    HW113763   4.975  12.999  11.406
37308SOL    HW213764   4.928  13.029  11.547
37309SOL     OW13765   7.648   4.362   3.108
37309SOL    HW113766   7.686   4.313   3.035
37309SOL    HW213767   7.722   4.401   3.153
37310SOL     OW13768   0.004  10.690   3.928
37310SOL    HW113769  14.824  10.722   3.856
37310SOL    HW213770   0.045  10.768   3.964
37311SOL     OW13771  11.499  13.883   3.920
37311SOL    HW113772  11.489  13.790   3.903
37311SOL    HW213773  11.427  13.925   3.873
37312SOL     OW13774  10.625   2.973  14.844
37312SOL    HW113775  10.540   3.016  14.836
37312SOL    HW213776  10.657   3.001   0.056
37313SOL     OW13777  12.796  14.469   0.033
37313SOL    HW113778  12.750  14.496  14.827
37313SOL    HW213779  12.785  14.542   0.093
37314SOL     OW13780   9.978   5.655   9.677
37314SOL    HW113781   9.968   5.567   9.640
37314SOL    HW213782  10.072   5.673   9.670
37315SOL     OW13783   7.952   0.072   8.735
37315SOL    HW113784   7.883   0.133   8.762
37315SOL    HW213785   8.021   0.128   8.701
37316SOL     OW13786   1.286   6.248   3.699
37316SOL    HW113787   1.294   6.222   3.607
37316SOL    HW213788   1.328   6.177   3.748
37317SOL     OW13789   2.344   1.428   1.252
37317SOL    HW113790   2.386   1.393   1.173
37317SOL    HW213791   2.414   1.476   1.297
37318SOL     OW13792   4.945  14.595  13.226
37318SOL    HW113793   4.970  14.658  13.159
37318SOL    HW213794   4.926  14.514  13.178
37319SOL     OW13795  12.982   3.857   3.422
37319SOL    HW113796  13.031   3.828   3.499
37319SOL    HW213797  13.047   3.864   3.352
37320SOL     OW13798   9.691   4.696   5.042
37320SOL    HW113799   9.690   4.677   5.135
37320SOL    HW213800   9.672   4.613   4.999
37321SOL     OW13801  12.232  14.376   2.475
37321SOL    HW113802  12.186  14.305   2.519
37321SOL    HW213803  12.202  14.372   2.384
37322SOL     OW13804  13.106   4.755   9.898
37322SOL    HW113805  13.081   4.740   9.989
37322SOL    HW213806  13.130   4.848   9.895
37323SOL     OW13807   5.615   0.742   7.173
37323SOL    HW113808   5.639   0.765   7.084
37323SOL    HW213809   5.655   0.656   7.188
37324SOL     OW13810   0.598   4.796  11.003
37324SOL    HW113811   0.525   4.754  10.958
37324SOL    HW213812   0.622   4.869  10.947
37325SOL     OW13813   8.559  14.159  13.059
37325SOL    HW113814   8.559  14.067  13.087
37325SOL    HW213815   8.651  14.186  13.066
37326SOL     OW13816   6.341   1.156  13.311
37326SOL    HW113817   6.291   1.092  13.362
37326SOL    HW213818   6.393   1.203  13.376
37327SOL     OW13819  11.708   6.834   4.452
37327SOL    HW113820  11.735   6.905   4.393
37327SOL    HW213821  11.626   6.802   4.414
37328SOL     OW13822   3.785   9.585   6.133
37328SOL    HW113823   3.835   9.538   6.200
37328SOL    HW213824   3.834   9.571   6.052
37329SOL     OW13825   8.591   8.369  10.922
37329SOL    HW113826   8.565   8.278  10.939
37329SOL    HW213827   8.656   8.389  10.989
37330SOL     OW13828  12.638   5.338   8.083
37330SOL    HW113829  12.568   5.273   8.074
37330SOL    HW213830  12.664   5.358   7.993
37331SOL     OW13831   2.282   2.968  11.821
37331SOL    HW113832   2.260   2.875  11.814
37331SOL    HW213833   2.376   2.972  11.804
37332SOL     OW13834   3.489   3.802   2.286
37332SOL    HW113835   3.581   3.807   2.260
37332SOL    HW213836   3.491   3.809   2.381
37333SOL     OW13837   5.036   1.184   4.885
37333SOL    HW113838   4.955   1.227   4.855
37333SOL    HW213839   5.026   1.178   4.980
37334SOL     OW13840   8.182   3.293   4.839
37334SOL    HW113841   8.143   3.206   4.853
37334SOL    HW213842   8.125   3.334   4.774
37335SOL     OW13843  11.194  12.770  12.243
37335SOL    HW113844  11.110  12.734  12.218
37335SOL    HW213845  11.188  12.864  12.222
37336SOL     OW13846   5.021   3.682   3.319
37336SOL    HW113847   5.016   3.720   3.407
37336SOL    HW213848   4.982   3.748   3.262
37337SOL     OW13849   6.627   0.688   7.580
37337SOL    HW113850   6.701   0.637   7.549
37337SOL    HW213851   6.632   0.681   7.676
37338SOL     OW13852   7.271   2.481   2.585
37338SOL    HW113853   7.253   2.391   2.612
37338SOL    HW213854   7.329   2.473   2.509
37339SOL     OW13855  10.993   4.951   5.147
37339SOL    HW113856  10.956   4.916   5.066
37339SOL    HW213857  10.927   5.012   5.180
37340SOL     OW13858  14.683  10.813   7.668
37340SOL    HW113859  14.769  10.855   7.660
37340SOL    HW213860  14.648  10.814   7.579
37341SOL     OW13861   3.780   4.594  14.465
37341SOL    HW113862   3.716   4.630  14.527
37341SOL    HW213863   3.777   4.653  14.390
37342SOL     OW13864  13.981   9.805   0.458
37342SOL    HW113865  13.956   9.850   0.378
37342SOL    HW213866  14.044   9.865   0.500
37343SOL     OW13867   5.591   2.958  10.642
37343SOL    HW113868   5.677   2.920  10.660
37343SOL    HW213869   5.529   2.897  10.683
37344SOL     OW13870  10.954  14.232  12.121
37344SOL    HW113871  10.898  14.156  12.137
37344SOL    HW213872  10.932  14.293  12.192
37345SOL     OW13873   8.537  11.333   5.481
37345SOL    HW113874   8.629  11.317   5.460
37345SOL    HW213875   8.510  11.254   5.529
37346SOL     OW13876  10.729   7.287  11.384
37346SOL    HW113877  10.815   7.280  11.424
37346SOL    HW213878  10.712   7.382  11.379
37347SOL     OW13879   2.238   8.725  14.202
37347SOL    HW113880   2.331   8.706  14.190
37347SOL    HW213881   2.200   8.642  14.230
37348SOL     OW13882  10.315   0.190   0.009
37348SOL    HW113883  10.287   0.261   0.068
37348SOL    HW213884  10.262   0.115   0.036
37349SOL     OW13885   7.009   9.561   1.066
37349SOL    HW113886   6.929   9.561   1.118
37349SOL    HW213887   7.078   9.542   1.130
37350SOL     OW13888   6.323  10.581   9.411
37350SOL    HW113889   6.323  10.562   9.505
37350SOL    HW213890   6.259  10.521   9.374
37351SOL     OW13891   5.926  13.636   5.698
37351SOL    HW113892   5.897  13.552   5.733
37351SOL    HW213893   5.861  13.699   5.729
37352SOL     OW13894   1.501   8.005   0.511
37352SOL    HW113895   1.446   7.990   0.434
37352SOL    HW213896   1.477   8.093   0.541
37353SOL     OW13897   0.113   2.198   8.442
37353SOL    HW113898   0.194   2.182   8.491
37353SOL    HW213899   0.050   2.228   8.507
37354SOL     OW13900  11.563   7.602   2.876
37354SOL    HW113901  11.629   7.580   2.942
37354SOL    HW213902  11.493   7.538   2.890
37355SOL     OW13903   0.895   9.748   5.487
37355SOL    HW113904   0.851   9.667   5.511
37355SOL    HW213905   0.918   9.789   5.571
37356SOL     OW13906  10.620   4.563   9.109
37356SOL    HW113907  10.684   4.634   9.098
37356SOL    HW213908  10.543   4.593   9.061
37357SOL     OW13909   3.383   3.781  13.149
37357SOL    HW113910   3.417   3.824  13.070
37357SOL    HW213911   3.461   3.768  13.203
37358SOL     OW13912   5.648  14.503   6.094
37358SOL    HW113913   5.721  14.486   6.034
37358SOL    HW213914   5.684  14.564   6.159
37359SOL     OW13915   2.688  10.289   4.651
37359SOL    HW113916   2.638  10.290   4.732
37359SOL    HW213917   2.642  10.348   4.592
37360SOL     OW13918  10.201   4.408  13.060
37360SOL    HW113919  10.106   4.395  13.053
37360SOL    HW213920  10.224   4.464  12.985
37361SOL     OW13921   3.556  12.364   4.486
37361SOL    HW113922   3.583  12.278   4.454
37361SOL    HW213923   3.516  12.347   4.571
37362SOL     OW13924   5.814   6.112   3.187
37362SOL    HW113925   5.760   6.190   3.176
37362SOL    HW213926   5.822   6.075   3.099
37363SOL     OW13927  11.822   8.781   1.994
37363SOL    HW113928  11.856   8.693   2.011
37363SOL    HW213929  11.727   8.770   1.996
37364SOL     OW13930   8.514   7.187  10.627
37364SOL    HW113931   8.431   7.141  10.614
37364SOL    HW213932   8.501   7.272  10.586
37365SOL     OW13933  12.736   0.520   5.092
37365SOL    HW113934  12.746   0.425   5.088
37365SOL    HW213935  12.814   0.555   5.049
37366SOL     OW13936  14.397   8.657  10.772
37366SOL    HW113937  14.414   8.651  10.866
37366SOL    HW213938  14.332   8.589  10.755
37367SOL     OW13939   9.465  11.796  13.140
37367SOL    HW113940   9.420  11.878  13.120
37367SOL    HW213941   9.552  11.806  13.100
37368SOL     OW13942   1.523  13.828   5.960
37368SOL    HW113943   1.482  13.764   5.901
37368SOL    HW213944   1.616  13.824   5.938
37369SOL     OW13945  12.993   1.329  12.112
37369SOL    HW113946  12.963   1.419  12.127
37369SOL    HW213947  12.935   1.296  12.043
37370SOL     OW13948  11.604   8.557   3.830
37370SOL    HW113949  11.638   8.555   3.740
37370SOL    HW213950  11.513   8.585   3.821
37371SOL     OW13951   6.840   5.300  13.236
37371SOL    HW113952   6.802   5.278  13.321
37371SOL    HW213953   6.854   5.215  13.194
37372SOL     OW13954  14.861  10.951  13.945
37372SOL    HW113955   0.081  10.935  13.956
37372SOL    HW213956  14.822  10.924  14.028
37373SOL     OW13957   4.368   8.017   1.364
37373SOL    HW113958   4.404   8.095   1.321
37373SOL    HW213959   4.417   7.944   1.327
37374SOL     OW13960   3.078  13.136   6.050
37374SOL    HW113961   3.038  13.067   6.104
37374SOL    HW213962   3.159  13.158   6.096
37375SOL     OW13963   3.604   2.041   4.260
37375SOL    HW113964   3.547   2.007   4.329
37375SOL    HW213965   3.615   1.968   4.199
37376SOL     OW13966   4.102   7.341   0.912
37376SOL    HW113967   4.126   7.265   0.966
37376SOL    HW213968   4.118   7.416   0.970
37377SOL     OW13969   6.040  11.973  13.941
37377SOL    HW113970   6.126  11.993  13.905
37377SOL    HW213971   5.979  11.987  13.869
37378SOL     OW13972   0.829   3.423  11.520
37378SOL    HW113973   0.921   3.441  11.502
37378SOL    HW213974   0.824   3.412  11.615
37379SOL     OW13975   7.969   9.306  14.746
37379SOL    HW113976   7.917   9.226  14.758
37379SOL    HW213977   8.044   9.295  14.805
37380SOL     OW13978   2.426  11.677   6.131
37380SOL    HW113979   2.476  11.666   6.213
37380SOL    HW213980   2.489  11.714   6.070
37381SOL     OW13981  11.705  11.055   1.486
37381SOL    HW113982  11.652  11.025   1.560
37381SOL    HW213983  11.645  11.055   1.412
37382SOL     OW13984   3.200   0.848   8.944
37382SOL    HW113985   3.124   0.853   8.887
37382SOL    HW213986   3.167   0.812   9.026
37383SOL     OW13987  11.635  14.871   4.978
37383SOL    HW113988  11.570  14.805   5.002
37383SOL    HW213989  11.649   0.048   5.057
37384SOL     OW13990   7.390  10.082   6.844
37384SOL    HW113991   7.472  10.113   6.806
37384SOL    HW213992   7.390   9.988   6.828
37385SOL     OW13993   2.836   8.491   4.146
37385SOL    HW113994   2.808   8.452   4.063
37385SOL    HW213995   2.833   8.585   4.130
37386SOL     OW13996  10.428   7.256   0.673
37386SOL    HW113997  10.449   7.168   0.642
37386SOL    HW213998  10.372   7.292   0.605
37387SOL     OW13999  14.362  12.534   6.595
37387SOL    HW114000  14.354  12.629   6.584
37387SOL    HW214001  14.276  12.507   6.628
37388SOL     OW14002   0.731   4.044   7.849
37388SOL    HW114003   0.719   4.113   7.914
37388SOL    HW214004   0.694   4.079   7.768
37389SOL     OW14005  11.923  10.598  14.648
37389SOL    HW114006  11.907  10.665  14.715
37389SOL    HW214007  11.938  10.648  14.568
37390SOL     OW14008  13.168   5.477   1.442
37390SOL    HW114009  13.143   5.509   1.355
37390SOL    HW214010  13.108   5.404   1.459
37391SOL     OW14011  10.890  10.443   4.740
37391SOL    HW114012  10.925  10.368   4.691
37391SOL    HW214013  10.960  10.466   4.802
37392SOL     OW14014   2.984  11.130   6.822
37392SOL    HW114015   3.016  11.156   6.908
37392SOL    HW214016   2.888  11.137   6.829
37393SOL     OW14017   4.921   1.665   8.128
37393SOL    HW114018   4.876   1.587   8.159
37393SOL    HW214019   4.945   1.645   8.037
37394SOL     OW14020   7.385  14.526  12.901
37394SOL    HW114021   7.385  14.466  12.975
37394SOL    HW214022   7.459  14.585  12.917
37395SOL     OW14023  11.000   4.705   9.126
37395SOL    HW114024  10.914   4.701   9.168
37395SOL    HW214025  10.995   4.780   9.067
37396SOL     OW14026  14.471   7.592   2.702
37396SOL    HW114027  14.532   7.649   2.749
37396SOL    HW214028  14.527   7.525   2.663
37397SOL     OW14029   0.914   5.221  13.750
37397SOL    HW114030   0.872   5.259  13.673
37397SOL    HW214031   0.847   5.226  13.819
37398SOL     OW14032   3.395   0.044   5.552
37398SOL    HW114033   3.413  14.847   5.613
37398SOL    HW214034   3.385   0.121   5.607
37399SOL     OW14035   1.449  13.575   8.011
37399SOL    HW114036   1.442  13.480   8.004
37399SOL    HW214037   1.385  13.599   8.079
37400SOL     OW14038   2.089   1.155  10.190
37400SOL    HW114039   2.086   1.233  10.134
37400SOL    HW214040   2.148   1.096  10.144
37401SOL     OW14041   8.044  13.400   5.968
37401SOL    HW114042   7.978  13.368   5.907
37401SOL    HW214043   8.102  13.325   5.981
37402SOL     OW14044  11.480  13.690   1.350
37402SOL    HW114045  11.394  13.667   1.314
37402SOL    HW214046  11.520  13.745   1.283
37403SOL     OW14047   2.429  12.356   3.722
37403SOL    HW114048   2.379  12.305   3.786
37403SOL    HW214049   2.398  12.325   3.637
37404SOL     OW14050  10.366  14.629   7.613
37404SOL    HW114051  10.343  14.713   7.654
37404SOL    HW214052  10.434  14.652   7.549
37405SOL     OW14053   8.135  10.971   8.123
37405SOL    HW114054   8.177  11.010   8.200
37405SOL    HW214055   8.141  11.038   8.055
37406SOL     OW14056  14.107   9.619   7.736
37406SOL    HW114057  14.027   9.589   7.693
37406SOL    HW214058  14.141   9.542   7.781
37407SOL     OW14059   2.151  11.458   4.843
37407SOL    HW114060   2.162  11.376   4.891
37407SOL    HW214061   2.076  11.441   4.786
37408SOL     OW14062   9.569   0.087   0.149
37408SOL    HW114063   9.511   0.099   0.074
37408SOL    HW214064   9.618   0.008   0.130
37409SOL     OW14065  10.766   6.626   3.328
37409SOL    HW114066  10.753   6.561   3.397
37409SOL    HW214067  10.760   6.575   3.247
37410SOL     OW14068   6.895  12.391  11.700
37410SOL    HW114069   6.972  12.396  11.756
37410SOL    HW214070   6.904  12.466  11.641
37411SOL     OW14071  13.023   5.395  10.476
37411SOL    HW114072  13.084   5.463  10.503
37411SOL    HW214073  13.051   5.317  10.523
37412SOL     OW14074  12.995   1.528   6.933
37412SOL    HW114075  12.928   1.460   6.928
37412SOL    HW214076  12.954   1.604   6.892
37413SOL     OW14077  12.378   7.104  14.436
37413SOL    HW114078  12.425   7.143  14.363
37413SOL    HW214079  12.315   7.171  14.463
37414SOL     OW14080  13.182   1.181   4.780
37414SOL    HW114081  13.155   1.188   4.871
37414SOL    HW214082  13.212   1.090   4.771
37415SOL     OW14083   3.769  14.393   5.556
37415SOL    HW114084   3.823  14.379   5.479
37415SOL    HW214085   3.786  14.484   5.581
37416SOL     OW14086   8.329  10.056   9.675
37416SOL    HW114087   8.295  10.111   9.746
37416SOL    HW214088   8.355   9.974   9.719
37417SOL     OW14089   4.847  12.420   5.469
37417SOL    HW114090   4.879  12.332   5.448
37417SOL    HW214091   4.925  12.475   5.464
37418SOL     OW14092  10.866   0.799   8.899
37418SOL    HW114093  10.829   0.734   8.839
37418SOL    HW214094  10.790   0.849   8.930
37419SOL     OW14095   8.685   8.271  13.592
37419SOL    HW114096   8.762   8.252  13.645
37419SOL    HW214097   8.620   8.303  13.655
37420SOL     OW14098   4.699   6.507   4.243
37420SOL    HW114099   4.778   6.510   4.298
37420SOL    HW214100   4.627   6.503   4.305
37421SOL     OW14101   6.973   2.550   4.939
37421SOL    HW114102   6.923   2.608   4.882
37421SOL    HW214103   6.916   2.536   5.015
37422SOL     OW14104   2.546   1.108   7.352
37422SOL    HW114105   2.555   1.116   7.257
37422SOL    HW214106   2.480   1.039   7.363
37423SOL     OW14107   0.741  10.700   5.499
37423SOL    HW114108   0.810  10.715   5.564
37423SOL    HW214109   0.758  10.764   5.430
37424SOL     OW14110  14.851   6.370  10.218
37424SOL    HW114111   0.006   6.411  10.299
37424SOL    HW214112   0.049   6.313  10.193
37425SOL     OW14113   3.490   8.200   2.698
37425SOL    HW114114   3.458   8.128   2.644
37425SOL    HW214115   3.557   8.162   2.753
37426SOL     OW14116   3.492   1.633   1.772
37426SOL    HW114117   3.576   1.598   1.743
37426SOL    HW214118   3.438   1.633   1.693
37427SOL     OW14119  10.088  13.302   9.887
37427SOL    HW114120  10.000  13.319   9.920
37427SOL    HW214121  10.116  13.223   9.933
37428SOL     OW14122   5.758  14.402  11.636
37428SOL    HW114123   5.816  14.410  11.711
37428SOL    HW214124   5.765  14.310  11.610
37429SOL     OW14125   4.099  12.749   6.308
37429SOL    HW114126   4.164  12.680   6.324
37429SOL    HW214127   4.015  12.707   6.327
37430SOL     OW14128   6.003  13.262   1.755
37430SOL    HW114129   6.076  13.206   1.782
37430SOL    HW214130   5.930  13.233   1.810
37431SOL     OW14131  13.461   5.718  13.959
37431SOL    HW114132  13.401   5.763  14.018
37431SOL    HW214133  13.522   5.787  13.931
37432SOL     OW14134  11.470   2.482  10.520
37432SOL    HW114135  11.494   2.570  10.550
37432SOL    HW214136  11.473   2.428  10.599
37433SOL     OW14137  11.402   0.751   1.419
37433SOL    HW114138  11.464   0.791   1.481
37433SOL    HW214139  11.366   0.825   1.370
37434SOL     OW14140  10.517   2.214   0.808
37434SOL    HW114141  10.531   2.301   0.845
37434SOL    HW214142  10.606   2.181   0.789
37435SOL     OW14143   5.143   7.831   7.897
37435SOL    HW114144   5.194   7.904   7.932
37435SOL    HW214145   5.188   7.753   7.929
37436SOL     OW14146   2.065   7.563   0.714
37436SOL    HW114147   2.039   7.479   0.753
37436SOL    HW214148   1.983   7.607   0.694
37437SOL     OW14149  11.102  11.418  10.352
37437SOL    HW114150  11.189  11.449  10.379
37437SOL    HW214151  11.115  11.327  10.328
37438SOL     OW14152  14.772   9.206  13.791
37438SOL    HW114153  14.859   9.216  13.831
37438SOL    HW214154  14.711   9.235  13.859
37439SOL     OW14155   8.317   3.925  11.719
37439SOL    HW114156   8.412   3.915  11.718
37439SOL    HW214157   8.288   3.887  11.636
37440SOL     OW14158   3.528   2.388   2.575
37440SOL    HW114159   3.441   2.357   2.553
37440SOL    HW214160   3.526   2.482   2.558
37441SOL     OW14161   3.824  13.793  12.520
37441SOL    HW114162   3.771  13.870  12.501
37441SOL    HW214163   3.880  13.782  12.444
37442SOL     OW14164  10.377   8.427   8.863
37442SOL    HW114165  10.362   8.332   8.860
37442SOL    HW214166  10.292   8.465   8.841
37443SOL     OW14167  11.957   3.684  11.832
37443SOL    HW114168  12.020   3.732  11.885
37443SOL    HW214169  11.965   3.722  11.744
37444SOL     OW14170  14.082   3.222   0.645
37444SOL    HW114171  14.161   3.170   0.657
37444SOL    HW214172  14.063   3.217   0.551
37445SOL     OW14173  11.802   3.979   5.056
37445SOL    HW114174  11.788   3.929   5.136
37445SOL    HW214175  11.745   4.056   5.065
37446SOL     OW14176  12.491   4.184   1.226
37446SOL    HW114177  12.540   4.264   1.246
37446SOL    HW214178  12.547   4.113   1.260
37447SOL     OW14179  10.493   1.302   7.079
37447SOL    HW114180  10.476   1.207   7.078
37447SOL    HW214181  10.577   1.310   7.124
37448SOL     OW14182   5.332   6.880   4.450
37448SOL    HW114183   5.350   6.974   4.439
37448SOL    HW214184   5.369   6.859   4.536
37449SOL     OW14185   1.105   3.374   9.295
37449SOL    HW114186   1.011   3.371   9.279
37449SOL    HW214187   1.141   3.308   9.236
37450SOL     OW14188   2.250   2.494   7.689
37450SOL    HW114189   2.284   2.513   7.776
37450SOL    HW214190   2.328   2.476   7.636
37451SOL     OW14191   0.710   1.402   7.240
37451SOL    HW114192   0.750   1.329   7.287
37451SOL    HW214193   0.775   1.473   7.247
37452SOL     OW14194   6.804   0.305  13.105
37452SOL    HW114195   6.838   0.232  13.156
37452SOL    HW214196   6.757   0.358  13.169
37453SOL     OW14197   1.015   0.051   3.893
37453SOL    HW114198   0.957   0.017   3.825
37453SOL    HW214199   1.068   0.117   3.848
37454SOL     OW14200   7.370   3.214  10.247
37454SOL    HW114201   7.312   3.214  10.171
37454SOL    HW214202   7.323   3.264  10.314
37455SOL     OW14203  14.666   0.691   6.618
37455SOL    HW114204  14.732   0.652   6.675
37455SOL    HW214205  14.603   0.731   6.679
37456SOL     OW14206  14.233   7.277  12.174
37456SOL    HW114207  14.141   7.260  12.155
37456SOL    HW214208  14.282   7.229  12.107
37457SOL     OW14209  14.853   0.391   5.258
37457SOL    HW114210   0.030   0.356   5.185
37457SOL    HW214211  14.771   0.420   5.217
37458SOL     OW14212   3.793  12.260   8.337
37458SOL    HW114213   3.851  12.332   8.312
37458SOL    HW214214   3.706  12.300   8.341
37459SOL     OW14215   3.174   5.050   3.751
37459SOL    HW114216   3.093   5.091   3.782
37459SOL    HW214217   3.159   5.037   3.657
37460SOL     OW14218   4.357  13.278   2.930
37460SOL    HW114219   4.369  13.185   2.910
37460SOL    HW214220   4.288  13.307   2.871
37461SOL     OW14221   6.579   6.848   9.102
37461SOL    HW114222   6.609   6.874   9.190
37461SOL    HW214223   6.516   6.778   9.119
37462SOL     OW14224  14.513   2.509   6.742
37462SOL    HW114225  14.588   2.479   6.793
37462SOL    HW214226  14.542   2.591   6.702
37463SOL     OW14227   1.095   3.293  12.011
37463SOL    HW114228   1.014   3.242  12.005
37463SOL    HW214229   1.163   3.228  12.028
37464SOL     OW14230   8.169   9.680   6.724
37464SOL    HW114231   8.092   9.686   6.666
37464SOL    HW214232   8.210   9.597   6.700
37465SOL     OW14233   3.030   4.123   9.096
37465SOL    HW114234   3.051   4.045   9.044
37465SOL    HW214235   3.091   4.190   9.065
37466SOL     OW14236  13.695   1.806   8.019
37466SOL    HW114237  13.716   1.743   8.088
37466SOL    HW214238  13.599   1.808   8.017
37467SOL     OW14239   9.936   6.110   0.981
37467SOL    HW114240  10.027   6.134   0.998
37467SOL    HW214241   9.940   6.046   0.910
37468SOL     OW14242  11.452   0.297  13.619
37468SOL    HW114243  11.371   0.283  13.570
37468SOL    HW214244  11.449   0.389  13.646
37469SOL     OW14245  14.617  11.116   1.402
37469SOL    HW114246  14.596  11.158   1.319
37469SOL    HW214247  14.701  11.072   1.386
37470SOL     OW14248  13.044  13.588   9.790
37470SOL    HW114249  13.077  13.524   9.853
37470SOL    HW214250  12.969  13.629   9.834
37471SOL     OW14251   6.723   5.150   7.315
37471SOL    HW114252   6.765   5.235   7.331
37471SOL    HW214253   6.787   5.086   7.344
37472SOL     OW14254  10.948  14.706  11.627
37472SOL    HW114255  11.000  14.707  11.546
37472SOL    HW214256  11.009  14.677  11.694
37473SOL     OW14257   1.312  13.545   1.664
37473SOL    HW114258   1.394  13.515   1.623
37473SOL    HW214259   1.341  13.599   1.737
37474SOL     OW14260  10.740  12.449  10.243
37474SOL    HW114261  10.725  12.426  10.152
37474SOL    HW214262  10.818  12.504  10.242
37475SOL     OW14263   9.480   4.081  10.066
37475SOL    HW114264   9.455   4.002  10.115
37475SOL    HW214265   9.436   4.072   9.981
37476SOL     OW14266  12.307  12.429   3.135
37476SOL    HW114267  12.308  12.333   3.130
37476SOL    HW214268  12.353  12.457   3.055
37477SOL     OW14269  14.559  12.051  14.134
37477SOL    HW114270  14.625  12.119  14.124
37477SOL    HW214271  14.571  11.993  14.059
37478SOL     OW14272   0.993   8.034   2.729
37478SOL    HW114273   1.045   7.967   2.775
37478SOL    HW214274   1.038   8.047   2.646
37479SOL     OW14275   3.843   7.706   6.217
37479SOL    HW114276   3.891   7.653   6.153
37479SOL    HW214277   3.754   7.711   6.182
37480SOL     OW14278   4.340   9.197   5.173
37480SOL    HW114279   4.368   9.270   5.118
37480SOL    HW214280   4.376   9.120   5.129
37481SOL     OW14281  11.681   3.461   1.205
37481SOL    HW114282  11.760   3.408   1.194
37481SOL    HW214283  11.712   3.548   1.228
37482SOL     OW14284   7.602   8.369   4.764
37482SOL    HW114285   7.508   8.363   4.782
37482SOL    HW214286   7.639   8.408   4.843
37483SOL     OW14287   6.455   1.371   1.303
37483SOL    HW114288   6.390   1.441   1.301
37483SOL    HW214289   6.407   1.293   1.276
37484SOL     OW14290   3.960   9.938   4.439
37484SOL    HW114291   3.980  10.029   4.415
37484SOL    HW214292   4.026   9.886   4.393
37485SOL     OW14293   5.316   6.106   6.784
37485SOL    HW114294   5.265   6.176   6.824
37485SOL    HW214295   5.399   6.106   6.830
37486SOL     OW14296  13.729   5.827   3.723
37486SOL    HW114297  13.654   5.770   3.709
37486SOL    HW214298  13.739   5.875   3.640
37487SOL     OW14299   1.767  14.670   8.550
37487SOL    HW114300   1.825  14.675   8.475
37487SOL    HW214301   1.777  14.580   8.583
37488SOL     OW14302  10.941  13.529   8.802
37488SOL    HW114303  10.999  13.596   8.766
37488SOL    HW214304  10.891  13.574   8.870
37489SOL     OW14305  11.343   6.457  11.773
37489SOL    HW114306  11.434   6.427  11.768
37489SOL    HW214307  11.325   6.465  11.866
37490SOL     OW14308   8.325  11.028   5.339
37490SOL    HW114309   8.350  10.946   5.381
37490SOL    HW214310   8.235  11.043   5.367
37491SOL     OW14311   6.116  13.023   6.607
37491SOL    HW114312   6.124  12.975   6.525
37491SOL    HW214313   6.064  13.101   6.584
37492SOL     OW14314  13.550   7.755  11.486
37492SOL    HW114315  13.622   7.703  11.523
37492SOL    HW214316  13.480   7.692  11.472
37493SOL     OW14317   4.842   6.252   2.070
37493SOL    HW114318   4.818   6.286   1.983
37493SOL    HW214319   4.808   6.318   2.130
37494SOL     OW14320   0.770   3.860   4.831
37494SOL    HW114321   0.861   3.831   4.830
37494SOL    HW214322   0.760   3.905   4.915
37495SOL     OW14323  10.477   2.424   2.382
37495SOL    HW114324  10.393   2.448   2.421
37495SOL    HW214325  10.492   2.334   2.410
37496SOL     OW14326   9.030   2.141   5.815
37496SOL    HW114327   9.063   2.201   5.882
37496SOL    HW214328   8.935   2.152   5.817
37497SOL     OW14329  12.554   9.977   1.536
37497SOL    HW114330  12.547  10.072   1.537
37497SOL    HW214331  12.589   9.954   1.622
37498SOL     OW14332  11.177   7.620  12.532
37498SOL    HW114333  11.186   7.704  12.488
37498SOL    HW214334  11.155   7.642  12.623
37499SOL     OW14335  10.007   3.576   4.395
37499SOL    HW114336   9.975   3.661   4.363
37499SOL    HW214337  10.099   3.575   4.369
37500SOL     OW14338   8.291  13.823   9.191
37500SOL    HW114339   8.198  13.801   9.198
37500SOL    HW214340   8.296  13.916   9.214
37501SOL     OW14341  10.196   1.099   4.960
37501SOL    HW114342  10.218   1.054   5.041
37501SOL    HW214343  10.104   1.124   4.969
37502SOL     OW14344  12.596  13.007   9.601
37502SOL    HW114345  12.537  12.971   9.534
37502SOL    HW214346  12.647  13.073   9.554
37503SOL     OW14347  13.968  13.741   7.663
37503SOL    HW114348  14.062  13.721   7.659
37503SOL    HW214349  13.927  13.658   7.687
37504SOL     OW14350  10.021   5.406  13.758
37504SOL    HW114351   9.934   5.445  13.757
37504SOL    HW214352  10.073   5.464  13.814
37505SOL     OW14353   7.401  12.774  10.007
37505SOL    HW114354   7.385  12.854   9.957
37505SOL    HW214355   7.496  12.763  10.004
37506SOL     OW14356  13.984   8.241  10.319
37506SOL    HW114357  13.893   8.211  10.327
37506SOL    HW214358  14.017   8.194  10.242
37507SOL     OW14359   1.889   7.165   9.358
37507SOL    HW114360   1.920   7.089   9.309
37507SOL    HW214361   1.948   7.236   9.332
37508SOL     OW14362   4.479  13.536   8.610
37508SOL    HW114363   4.529  13.614   8.585
37508SOL    HW214364   4.544  13.479   8.651
37509SOL     OW14365   5.902   8.610  13.274
37509SOL    HW114366   5.950   8.556  13.211
37509SOL    HW214367   5.931   8.699  13.255
37510SOL     OW14368   1.045   1.412  14.061
37510SOL    HW114369   1.067   1.426  14.153
37510SOL    HW214370   1.037   1.500  14.024
37511SOL     OW14371   4.668  10.861   8.991
37511SOL    HW114372   4.643  10.918   9.064
37511SOL    HW214373   4.762  10.848   9.003
37512SOL     OW14374   5.287   5.326  10.669
37512SOL    HW114375   5.256   5.385  10.738
37512SOL    HW214376   5.333   5.257  10.715
37513SOL     OW14377   3.537   6.311   8.348
37513SOL    HW114378   3.514   6.372   8.278
37513SOL    HW214379   3.486   6.232   8.330
37514SOL     OW14380  10.224   2.172   0.188
37514SOL    HW114381  10.134   2.169   0.153
37514SOL    HW214382  10.219   2.125   0.271
37515SOL     OW14383   0.180   1.433   3.520
37515SOL    HW114384   0.240   1.379   3.468
37515SOL    HW214385   0.225   1.517   3.529
37516SOL     OW14386  11.572  13.420   6.543
37516SOL    HW114387  11.511  13.491   6.523
37516SOL    HW214388  11.575  13.368   6.462
37517SOL     OW14389   7.517   9.199   5.636
37517SOL    HW114390   7.582   9.231   5.574
37517SOL    HW214391   7.548   9.111   5.659
37518SOL     OW14392  10.545   5.094   5.405
37518SOL    HW114393  10.524   5.165   5.345
37518SOL    HW214394  10.622   5.125   5.452
37519SOL     OW14395   1.113  14.181   3.530
37519SOL    HW114396   1.092  14.266   3.567
37519SOL    HW214397   1.209  14.180   3.524
37520SOL     OW14398   1.511   1.965   4.791
37520SOL    HW114399   1.588   1.923   4.753
37520SOL    HW214400   1.509   2.052   4.751
37521SOL     OW14401   5.294   7.160   0.525
37521SOL    HW114402   5.233   7.204   0.465
37521SOL    HW214403   5.359   7.119   0.468
37522SOL     OW14404   6.948   3.050  14.361
37522SOL    HW114405   6.953   3.086  14.449
37522SOL    HW214406   7.038   3.046  14.330
37523SOL     OW14407   1.545  13.747  11.523
37523SOL    HW114408   1.490  13.677  11.489
37523SOL    HW214409   1.635  13.716  11.507
37524SOL     OW14410   2.950  10.830   6.592
37524SOL    HW114411   2.945  10.734   6.586
37524SOL    HW214412   3.015  10.855   6.527
37525SOL     OW14413   0.972  13.642   9.177
37525SOL    HW114414   0.883  13.619   9.148
37525SOL    HW214415   1.019  13.664   9.097
37526SOL     OW14416  12.229   4.359  13.408
37526SOL    HW114417  12.313   4.312  13.406
37526SOL    HW214418  12.202   4.364  13.316
37527SOL     OW14419  11.421   6.554   5.269
37527SOL    HW114420  11.415   6.559   5.365
37527SOL    HW214421  11.345   6.503   5.242
37528SOL     OW14422  14.060  14.311   7.131
37528SOL    HW114423  14.145  14.336   7.092
37528SOL    HW214424  14.021  14.252   7.067
37529SOL     OW14425   8.668  12.488   0.841
37529SOL    HW114426   8.589  12.452   0.880
37529SOL    HW214427   8.735  12.422   0.858
37530SOL     OW14428   4.728   6.621   4.821
37530SOL    HW114429   4.729   6.648   4.729
37530SOL    HW214430   4.636   6.629   4.847
37531SOL     OW14431  14.604   3.710  13.412
37531SOL    HW114432  14.691   3.673  13.428
37531SOL    HW214433  14.553   3.638  13.376
37532SOL     OW14434   0.409  13.410  13.985
37532SOL    HW114435   0.331  13.371  13.945
37532SOL    HW214436   0.433  13.348  14.055
37533SOL     OW14437   4.401   0.618   4.448
37533SOL    HW114438   4.484   0.591   4.488
37533SOL    HW214439   4.412   0.712   4.430
37534SOL     OW14440   3.496   1.967   0.259
37534SOL    HW114441   3.580   1.963   0.212
37534SOL    HW214442   3.485   1.880   0.296
37535SOL     OW14443   6.632   6.071   1.524
37535SOL    HW114444   6.692   6.109   1.588
37535SOL    HW214445   6.669   6.094   1.439
37536SOL     OW14446  14.866  14.059   6.074
37536SOL    HW114447  14.854  14.145   6.034
37536SOL    HW214448  14.793  14.007   6.041
37537SOL     OW14449   2.513   5.912   1.249
37537SOL    HW114450   2.434   5.898   1.196
37537SOL    HW214451   2.492   5.873   1.334
37538SOL     OW14452  13.153  10.973   7.684
37538SOL    HW114453  13.088  10.934   7.743
37538SOL    HW214454  13.158  11.065   7.711
37539SOL     OW14455   7.303  11.861   3.994
37539SOL    HW114456   7.359  11.922   3.947
37539SOL    HW214457   7.214  11.896   3.982
37540SOL     OW14458   6.693   9.662   9.303
37540SOL    HW114459   6.601   9.685   9.291
37540SOL    HW214460   6.693   9.588   9.363
37541SOL     OW14461   5.690  14.723   3.446
37541SOL    HW114462   5.636  14.788   3.491
37541SOL    HW214463   5.728  14.771   3.372
37542SOL     OW14464   6.026  14.694  11.725
37542SOL    HW114465   6.067  14.758  11.667
37542SOL    HW214466   5.939  14.730  11.743
37543SOL     OW14467   2.051   5.073   0.477
37543SOL    HW114468   2.135   5.110   0.502
37543SOL    HW214469   2.008   5.053   0.561
37544SOL     OW14470   2.235   9.091   7.021
37544SOL    HW114471   2.260   9.180   6.995
37544SOL    HW214472   2.318   9.048   7.041
37545SOL     OW14473   8.850  13.394   6.815
37545SOL    HW114474   8.874  13.441   6.735
37545SOL    HW214475   8.757  13.410   6.826
37546SOL     OW14476   0.399   8.451  12.689
37546SOL    HW114477   0.476   8.496  12.654
37546SOL    HW214478   0.435   8.372  12.731
37547SOL     OW14479   0.942  12.162  12.453
37547SOL    HW114480   0.955  12.174  12.547
37547SOL    HW214481   0.851  12.188  12.438
37548SOL     OW14482  11.101   5.215  12.426
37548SOL    HW114483  11.111   5.273  12.501
37548SOL    HW214484  11.074   5.272  12.354
37549SOL     OW14485   0.212  11.392  12.623
37549SOL    HW114486   0.152  11.417  12.693
37549SOL    HW214487   0.165  11.322  12.576
37550SOL     OW14488   3.271   2.177   9.438
37550SOL    HW114489   3.216   2.232   9.382
37550SOL    HW214490   3.357   2.219   9.435
37551SOL     OW14491   5.100   9.465   7.603
37551SOL    HW114492   5.058   9.383   7.576
37551SOL    HW214493   5.104   9.460   7.698
37552SOL     OW14494   3.109  10.196   3.406
37552SOL    HW114495   3.052  10.273   3.411
37552SOL    HW214496   3.083  10.152   3.326
37553SOL     OW14497  13.520  14.623  12.502
37553SOL    HW114498  13.545  14.537  12.537
37553SOL    HW214499  13.425  14.621  12.501
37554SOL     OW14500  11.008  10.135   4.295
37554SOL    HW114501  10.936  10.073   4.309
37554SOL    HW214502  10.977  10.216   4.334
37555SOL     OW14503   5.067   1.896   7.376
37555SOL    HW114504   5.117   1.978   7.376
37555SOL    HW214505   5.054   1.876   7.283
37556SOL     OW14506  13.473   9.523   4.102
37556SOL    HW114507  13.409   9.457   4.074
37556SOL    HW214508  13.547   9.510   4.043
37557SOL     OW14509   1.688   4.304   4.662
37557SOL    HW114510   1.761   4.331   4.718
37557SOL    HW214511   1.618   4.366   4.681
37558SOL     OW14512  14.473  12.049  10.693
37558SOL    HW114513  14.472  12.079  10.602
37558SOL    HW214514  14.517  11.964  10.689
37559SOL     OW14515   4.780  14.660   8.833
37559SOL    HW114516   4.861  14.697   8.798
37559SOL    HW214517   4.737  14.734   8.876
37560SOL     OW14518  11.043  10.001   4.017
37560SOL    HW114519  11.065  10.062   4.088
37560SOL    HW214520  11.024   9.919   4.062
37561SOL     OW14521   4.314   1.598   1.041
37561SOL    HW114522   4.239   1.642   1.082
37561SOL    HW214523   4.277   1.557   0.963
37562SOL     OW14524  14.279   6.026   1.885
37562SOL    HW114525  14.249   6.079   1.959
37562SOL    HW214526  14.370   6.051   1.873
37563SOL     OW14527  14.660   6.842   6.990
37563SOL    HW114528  14.601   6.784   6.942
37563SOL    HW214529  14.620   6.849   7.077
37564SOL     OW14530   5.464  12.862   8.787
37564SOL    HW114531   5.518  12.801   8.837
37564SOL    HW214532   5.512  12.877   8.706
37565SOL     OW14533  11.701  11.736   7.143
37565SOL    HW114534  11.746  11.679   7.081
37565SOL    HW214535  11.757  11.813   7.152
37566SOL     OW14536  12.580  11.586   7.353
37566SOL    HW114537  12.594  11.505   7.304
37566SOL    HW214538  12.493  11.616   7.325
37567SOL     OW14539   7.668  11.375  10.185
37567SOL    HW114540   7.688  11.459  10.225
37567SOL    HW214541   7.746  11.321  10.202
37568SOL     OW14542   7.592  10.239  10.613
37568SOL    HW114543   7.575  10.298  10.539
37568SOL    HW214544   7.526  10.263  10.678
37569SOL     OW14545  10.840   6.320  10.651
37569SOL    HW114546  10.764   6.360  10.692
37569SOL    HW214547  10.880   6.390  10.600
37570SOL     OW14548  11.919   0.623   7.691
37570SOL    HW114549  11.888   0.714   7.698
37570SOL    HW214550  11.849   0.578   7.644
37571SOL     OW14551   9.798  10.816  10.690
37571SOL    HW114552   9.888  10.787  10.704
37571SOL    HW214553   9.802  10.912  10.698
37572SOL     OW14554   7.089   8.237   6.996
37572SOL    HW114555   7.115   8.163   7.051
37572SOL    HW214556   7.089   8.201   6.907
37573SOL     OW14557  14.599  12.188  12.696
37573SOL    HW114558  14.563  12.242  12.766
37573SOL    HW214559  14.642  12.115  12.741
37574SOL     OW14560   9.491   2.263  12.979
37574SOL    HW114561   9.553   2.270  12.907
37574SOL    HW214562   9.499   2.173  13.009
37575SOL     OW14563   3.848   5.803  11.613
37575SOL    HW114564   3.877   5.760  11.534
37575SOL    HW214565   3.929   5.821  11.662
37576SOL     OW14566   0.755   8.912   7.221
37576SOL    HW114567   0.721   8.998   7.196
37576SOL    HW214568   0.846   8.928   7.245
37577SOL     OW14569   4.131   9.377   1.588
37577SOL    HW114570   4.142   9.437   1.515
37577SOL    HW214571   4.209   9.390   1.642
37578SOL     OW14572   2.965   1.760   9.361
37578SOL    HW114573   2.964   1.727   9.271
37578SOL    HW214574   3.028   1.704   9.406
37579SOL     OW14575   9.301   6.271  14.597
37579SOL    HW114576   9.391   6.291  14.623
37579SOL    HW214577   9.261   6.236  14.676
37580SOL     OW14578  10.347   3.675   9.877
37580SOL    HW114579  10.256   3.678   9.846
37580SOL    HW214580  10.341   3.648   9.968
37581SOL     OW14581   4.465   4.813   2.854
37581SOL    HW114582   4.516   4.780   2.927
37581SOL    HW214583   4.522   4.803   2.778
37582SOL     OW14584   0.434   6.487  13.371
37582SOL    HW114585   0.392   6.566  13.404
37582SOL    HW214586   0.432   6.426  13.446
37583SOL     OW14587   3.681   5.201   0.160
37583SOL    HW114588   3.703   5.257   0.234
37583SOL    HW214589   3.677   5.260   0.085
37584SOL     OW14590  14.334  12.791  10.676
37584SOL    HW114591  14.269  12.721  10.681
37584SOL    HW214592  14.333  12.831  10.763
37585SOL     OW14593   0.098   1.477   6.200
37585SOL    HW114594   0.175   1.535   6.206
37585SOL    HW214595   0.131   1.391   6.224
37586SOL     OW14596  13.095  12.217  13.884
37586SOL    HW114597  13.110  12.312  13.890
37586SOL    HW214598  13.000  12.208  13.877
37587SOL     OW14599   1.261   6.359   6.088
37587SOL    HW114600   1.250   6.432   6.149
37587SOL    HW214601   1.250   6.399   6.001
37588SOL     OW14602   5.131   5.832   9.760
37588SOL    HW114603   5.226   5.843   9.754
37588SOL    HW214604   5.100   5.848   9.671
37589SOL     OW14605   6.743   0.989   8.258
37589SOL    HW114606   6.776   1.015   8.172
37589SOL    HW214607   6.821   0.983   8.313
37590SOL     OW14608   5.390  14.515   3.975
37590SOL    HW114609   5.388  14.531   3.881
37590SOL    HW214610   5.449  14.440   3.985
37591SOL     OW14611   8.126   4.987   2.953
37591SOL    HW114612   8.092   4.919   3.011
37591SOL    HW214613   8.073   4.979   2.873
37592SOL     OW14614   7.317  12.479  14.574
37592SOL    HW114615   7.278  12.478  14.486
37592SOL    HW214616   7.307  12.570  14.603
37593SOL     OW14617   1.491   7.435   3.704
37593SOL    HW114618   1.530   7.355   3.667
37593SOL    HW214619   1.555   7.503   3.684
37594SOL     OW14620  12.931   9.922   3.940
37594SOL    HW114621  12.962   9.984   4.006
37594SOL    HW214622  12.840   9.947   3.924
37595SOL     OW14623   5.906   8.643  13.594
37595SOL    HW114624   5.904   8.580  13.522
37595SOL    HW214625   5.963   8.714  13.563
37596SOL     OW14626   9.037   7.762  12.268
37596SOL    HW114627   9.062   7.671  12.251
37596SOL    HW214628   8.941   7.760  12.270
37597SOL     OW14629  12.919   2.559   7.159
37597SOL    HW114630  12.982   2.564   7.087
37597SOL    HW214631  12.836   2.588   7.121
37598SOL     OW14632   4.410   9.469   5.102
37598SOL    HW114633   4.337   9.516   5.061
37598SOL    HW214634   4.418   9.508   5.189
37599SOL     OW14635   6.075   2.087  11.502
37599SOL    HW114636   6.158   2.098  11.548
37599SOL    HW214637   6.020   2.159  11.534
37600SOL     OW14638   5.466   2.586   2.050
37600SOL    HW114639   5.433   2.658   1.995
37600SOL    HW214640   5.529   2.541   1.994
37601SOL     OW14641  13.694   8.876   9.851
37601SOL    HW114642  13.637   8.838   9.784
37601SOL    HW214643  13.720   8.801   9.906
37602SOL     OW14644   6.698  10.126   6.856
37602SOL    HW114645   6.736  10.125   6.768
37602SOL    HW214646   6.679  10.035   6.876
37603SOL     OW14647   8.545   8.851   3.967
37603SOL    HW114648   8.490   8.806   3.903
37603SOL    HW214649   8.614   8.893   3.915
37604SOL     OW14650   7.508   4.941  12.431
37604SOL    HW114651   7.493   4.896  12.348
37604SOL    HW214652   7.508   4.870  12.496
37605SOL     OW14653   6.565   8.350   4.958
37605SOL    HW114654   6.633   8.295   4.996
37605SOL    HW214655   6.600   8.439   4.962
37606SOL     OW14656  13.817   1.373  10.859
37606SOL    HW114657  13.802   1.399  10.950
37606SOL    HW214658  13.834   1.455  10.814
37607SOL     OW14659  12.112  13.865   7.302
37607SOL    HW114660  12.182  13.801   7.314
37607SOL    HW214661  12.034  13.812   7.289
37608SOL     OW14662  13.208   7.231   4.038
37608SOL    HW114663  13.121   7.245   4.076
37608SOL    HW214664  13.196   7.246   3.944
37609SOL     OW14665   1.739   0.535   5.091
37609SOL    HW114666   1.793   0.609   5.065
37609SOL    HW214667   1.686   0.568   5.164
37610SOL     OW14668   3.869   5.480   7.119
37610SOL    HW114669   3.850   5.487   7.026
37610SOL    HW214670   3.934   5.410   7.125
37611SOL     OW14671   6.430   6.572   7.466
37611SOL    HW114672   6.442   6.561   7.560
37611SOL    HW214673   6.401   6.486   7.435
37612SOL     OW14674  10.173   2.719   8.261
37612SOL    HW114675  10.085   2.733   8.295
37612SOL    HW214676  10.163   2.649   8.197
37613SOL     OW14677   1.058  14.526   8.563
37613SOL    HW114678   1.092  14.437   8.570
37613SOL    HW214679   1.028  14.547   8.652
37614SOL     OW14680   4.718   9.250   1.594
37614SOL    HW114681   4.783   9.194   1.637
37614SOL    HW214682   4.757   9.271   1.509
37615SOL     OW14683   5.768   3.440   7.213
37615SOL    HW114684   5.800   3.391   7.289
37615SOL    HW214685   5.756   3.529   7.245
37616SOL     OW14686   1.424   2.600   0.593
37616SOL    HW114687   1.364   2.608   0.518
37616SOL    HW214688   1.368   2.611   0.670
37617SOL     OW14689  14.338   0.370   2.856
37617SOL    HW114690  14.315   0.441   2.796
37617SOL    HW214691  14.378   0.414   2.931
37618SOL     OW14692   8.631  10.393   9.052
37618SOL    HW114693   8.599  10.322   9.107
37618SOL    HW214694   8.593  10.472   9.091
37619SOL     OW14695  14.051   8.005  13.744
37619SOL    HW114696  14.098   8.062  13.805
37619SOL    HW214697  14.086   7.918  13.760
37620SOL     OW14698  14.468  14.101   6.592
37620SOL    HW114699  14.442  14.141   6.675
37620SOL    HW214700  14.498  14.175   6.539
37621SOL     OW14701  14.320   7.157  11.939
37621SOL    HW114702  14.319   7.061  11.935
37621SOL    HW214703  14.254   7.184  11.875
37622SOL     OW14704   3.861  13.791   3.230
37622SOL    HW114705   3.948  13.831   3.224
37622SOL    HW214706   3.874  13.701   3.200
37623SOL     OW14707   6.788  10.174   6.594
37623SOL    HW114708   6.723  10.129   6.540
37623SOL    HW214709   6.828  10.238   6.535
37624SOL     OW14710  13.950  10.138   3.697
37624SOL    HW114711  13.886  10.125   3.767
37624SOL    HW214712  13.898  10.163   3.621
37625SOL     OW14713   5.977  11.585  14.379
37625SOL    HW114714   6.000  11.671  14.343
37625SOL    HW214715   6.009  11.523  14.314
37626SOL     OW14716   5.003   7.554  13.908
37626SOL    HW114717   4.967   7.565  13.996
37626SOL    HW214718   5.095   7.532  13.922
37627SOL     OW14719   0.578   8.646   2.555
37627SOL    HW114720   0.563   8.551   2.551
37627SOL    HW214721   0.494   8.684   2.528
37628SOL     OW14722  13.594  11.647   1.126
37628SOL    HW114723  13.689  11.638   1.129
37628SOL    HW214724  13.579  11.738   1.101
37629SOL     OW14725   5.230   1.516   1.087
37629SOL    HW114726   5.138   1.515   1.060
37629SOL    HW214727   5.274   1.458   1.025
37630SOL     OW14728   2.413   7.015   5.941
37630SOL    HW114729   2.383   6.945   5.883
37630SOL    HW214730   2.446   6.969   6.018
37631SOL     OW14731   9.657   0.879   5.675
37631SOL    HW114732   9.722   0.852   5.610
37631SOL    HW214733   9.707   0.885   5.757
37632SOL     OW14734   5.299   5.981   2.592
37632SOL    HW114735   5.306   5.954   2.683
37632SOL    HW214736   5.214   6.026   2.587
37633SOL     OW14737   9.790   1.419   8.654
37633SOL    HW114738   9.726   1.481   8.620
37633SOL    HW214739   9.742   1.367   8.718
37634SOL     OW14740   9.758   3.105   2.416
37634SOL    HW114741   9.762   3.020   2.460
37634SOL    HW214742   9.683   3.149   2.456
37635SOL     OW14743  12.313   3.253  13.293
37635SOL    HW114744  12.375   3.192  13.252
37635SOL    HW214745  12.347   3.265  13.382
37636SOL     OW14746   3.188   6.870   4.997
37636SOL    HW114747   3.134   6.855   4.920
37636SOL    HW214748   3.153   6.811   5.064
37637SOL     OW14749   7.831  13.079   0.546
37637SOL    HW114750   7.848  13.029   0.626
37637SOL    HW214751   7.744  13.118   0.559
37638SOL     OW14752  13.493  13.239   1.375
37638SOL    HW114753  13.516  13.151   1.404
37638SOL    HW214754  13.430  13.226   1.304
37639SOL     OW14755   1.415  12.211   9.033
37639SOL    HW114756   1.434  12.138   8.975
37639SOL    HW214757   1.492  12.267   9.028
37640SOL     OW14758   4.320  13.422   5.296
37640SOL    HW114759   4.336  13.365   5.221
37640SOL    HW214760   4.233  13.459   5.281
37641SOL     OW14761   3.575  10.635   2.021
37641SOL    HW114762   3.534  10.549   2.018
37641SOL    HW214763   3.668  10.618   2.031
37642SOL     OW14764   7.599  11.450   7.310
37642SOL    HW114765   7.610  11.515   7.380
37642SOL    HW214766   7.574  11.502   7.233
37643SOL     OW14767  12.015  10.292   3.730
37643SOL    HW114768  12.090  10.261   3.780
37643SOL    HW214769  11.964  10.343   3.793
37644SOL     OW14770  11.705  11.178   3.500
37644SOL    HW114771  11.700  11.248   3.435
37644SOL    HW214772  11.630  11.193   3.557
37645SOL     OW14773   3.931   1.886   6.341
37645SOL    HW114774   3.975   1.910   6.259
37645SOL    HW214775   3.838   1.894   6.321
37646SOL     OW14776   6.552   3.479   5.698
37646SOL    HW114777   6.616   3.484   5.769
37646SOL    HW214778   6.475   3.524   5.732
37647SOL     OW14779   7.367   9.883   7.311
37647SOL    HW114780   7.389   9.792   7.288
37647SOL    HW214781   7.376   9.930   7.228
37648SOL     OW14782   1.830  11.020   7.941
37648SOL    HW114783   1.849  11.112   7.957
37648SOL    HW214784   1.915  10.981   7.921
37649SOL     OW14785  13.897   1.797  12.161
37649SOL    HW114786  13.848   1.830  12.085
37649SOL    HW214787  13.838   1.810  12.235
37650SOL     OW14788  11.209  11.254   9.222
37650SOL    HW114789  11.114  11.264   9.225
37650SOL    HW214790  11.243  11.344   9.223
37651SOL     OW14791   4.116  11.793   1.549
37651SOL    HW114792   4.129  11.707   1.588
37651SOL    HW214793   4.035  11.825   1.590
37652SOL     OW14794   4.162   3.332  10.785
37652SOL    HW114795   4.096   3.275  10.823
37652SOL    HW214796   4.137   3.340  10.693
37653SOL     OW14797  11.196   7.424  11.605
37653SOL    HW114798  11.229   7.366  11.537
37653SOL    HW214799  11.269   7.435  11.665
37654SOL     OW14800  13.609  10.202  12.677
37654SOL    HW114801  13.565  10.203  12.762
37654SOL    HW214802  13.693  10.161  12.694
37655SOL     OW14803   9.541   8.767   9.312
37655SOL    HW114804   9.613   8.719   9.269
37655SOL    HW214805   9.510   8.827   9.244
37656SOL     OW14806  10.776   2.677   0.103
37656SOL    HW114807  10.809   2.627   0.028
37656SOL    HW214808  10.790   2.769   0.078
37657SOL     OW14809   0.610   0.622   8.473
37657SOL    HW114810   0.705   0.625   8.489
37657SOL    HW214811   0.594   0.695   8.413
37658SOL     OW14812   4.731   2.835  11.433
37658SOL    HW114813   4.782   2.850  11.353
37658SOL    HW214814   4.767   2.897  11.497
37659SOL     OW14815   1.330   9.527   2.188
37659SOL    HW114816   1.304   9.534   2.280
37659SOL    HW214817   1.302   9.440   2.161
37660SOL     OW14818   3.213  14.427  13.239
37660SOL    HW114819   3.186  14.519  13.241
37660SOL    HW214820   3.178  14.394  13.156
37661SOL     OW14821   6.706  13.024  14.436
37661SOL    HW114822   6.771  13.055  14.373
37661SOL    HW214823   6.702  13.092  14.503
37662SOL     OW14824   3.595   0.580   3.838
37662SOL    HW114825   3.612   0.516   3.907
37662SOL    HW214826   3.674   0.579   3.783
37663SOL     OW14827   3.551  11.038  14.256
37663SOL    HW114828   3.541  11.009  14.166
37663SOL    HW214829   3.591  10.964  14.301
37664SOL     OW14830  11.943   6.029   3.599
37664SOL    HW114831  11.954   6.098   3.534
37664SOL    HW214832  11.940   5.948   3.548
37665SOL     OW14833   2.285   4.942   2.703
37665SOL    HW114834   2.346   4.952   2.630
37665SOL    HW214835   2.312   5.009   2.766
37666SOL     OW14836   1.157   9.643   9.505
37666SOL    HW114837   1.148   9.669   9.413
37666SOL    HW214838   1.199   9.718   9.547
37667SOL     OW14839  10.827   2.099   7.839
37667SOL    HW114840  10.757   2.162   7.858
37667SOL    HW214841  10.784   2.029   7.790
37668SOL     OW14842  11.875   3.261   3.152
37668SOL    HW114843  11.888   3.354   3.133
37668SOL    HW214844  11.841   3.259   3.241
37669SOL     OW14845   8.403   5.348   2.713
37669SOL    HW114846   8.475   5.411   2.706
37669SOL    HW214847   8.339   5.377   2.648
37670SOL     OW14848   8.234  10.744   8.433
37670SOL    HW114849   8.162  10.697   8.391
37670SOL    HW214850   8.203  10.761   8.522
37671SOL     OW14851   1.425  11.887   3.683
37671SOL    HW114852   1.345  11.856   3.640
37671SOL    HW214853   1.465  11.807   3.718
37672SOL     OW14854   8.369  10.211  11.842
37672SOL    HW114855   8.443  10.245  11.791
37672SOL    HW214856   8.292  10.248  11.800
37673SOL     OW14857   1.471  14.367   6.893
37673SOL    HW114858   1.511  14.406   6.816
37673SOL    HW214859   1.378  14.390   6.886
37674SOL     OW14860   3.508   9.122  14.158
37674SOL    HW114861   3.436   9.079  14.205
37674SOL    HW214862   3.465   9.190  14.107
37675SOL     OW14863  14.276   4.392   6.693
37675SOL    HW114864  14.369   4.413   6.706
37675SOL    HW214865  14.235   4.477   6.677
37676SOL     OW14866   1.734   3.016   5.681
37676SOL    HW114867   1.807   3.024   5.619
37676SOL    HW214868   1.743   2.928   5.717
37677SOL     OW14869   4.512  13.414  10.077
37677SOL    HW114870   4.473  13.451  10.156
37677SOL    HW214871   4.456  13.340  10.055
37678SOL     OW14872   4.547  10.808  11.415
37678SOL    HW114873   4.624  10.789  11.469
37678SOL    HW214874   4.543  10.903  11.412
37679SOL     OW14875   1.220   1.094   6.923
37679SOL    HW114876   1.166   1.071   6.998
37679SOL    HW214877   1.248   1.184   6.940
37680SOL     OW14878   6.871   3.148   9.679
37680SOL    HW114879   6.910   3.236   9.681
37680SOL    HW214880   6.946   3.089   9.683
37681SOL     OW14881  10.206   4.771  10.716
37681SOL    HW114882  10.154   4.693  10.694
37681SOL    HW214883  10.186   4.834  10.647
37682SOL     OW14884   9.698   2.891  10.652
37682SOL    HW114885   9.698   2.958  10.720
37682SOL    HW214886   9.669   2.936  10.573
37683SOL     OW14887   6.814  14.223  10.839
37683SOL    HW114888   6.769  14.306  10.823
37683SOL    HW214889   6.750  14.155  10.818
37684SOL     OW14890   4.067   9.257   2.485
37684SOL    HW114891   4.035   9.177   2.526
37684SOL    HW214892   4.147   9.278   2.533
37685SOL     OW14893   0.546  11.824   1.116
37685SOL    HW114894   0.611  11.893   1.121
37685SOL    HW214895   0.588  11.754   1.066
37686SOL     OW14896  14.857   2.562   1.322
37686SOL    HW114897   0.048   2.520   1.264
37686SOL    HW214898   0.017   2.547   1.410
37687SOL     OW14899   1.538   3.461   6.467
37687SOL    HW114900   1.527   3.367   6.480
37687SOL    HW214901   1.483   3.501   6.535
37688SOL     OW14902   0.059   1.256   1.524
37688SOL    HW114903   0.055   1.352   1.528
37688SOL    HW214904   0.018   1.234   1.440
37689SOL     OW14905   2.732   1.464   7.055
37689SOL    HW114906   2.668   1.533   7.035
37689SOL    HW214907   2.815   1.511   7.064
37690SOL     OW14908   5.406  11.009  14.662
37690SOL    HW114909   5.415  10.982  14.571
37690SOL    HW214910   5.496  11.023  14.692
37691SOL     OW14911   2.995   9.776   1.630
37691SOL    HW114912   2.932   9.804   1.564
37691SOL    HW214913   3.080   9.784   1.586
37692SOL     OW14914  13.314  13.490   6.414
37692SOL    HW114915  13.395  13.512   6.459
37692SOL    HW214916  13.250  13.478   6.484
37693SOL     OW14917   6.554  13.532   4.075
37693SOL    HW114918   6.588  13.472   4.009
37693SOL    HW214919   6.625  13.540   4.139
37694SOL     OW14920   3.987   9.957  10.651
37694SOL    HW114921   3.952   9.899  10.718
37694SOL    HW214922   4.078   9.930  10.640
37695SOL     OW14923  10.900   5.717   3.375
37695SOL    HW114924  10.917   5.659   3.300
37695SOL    HW214925  10.972   5.699   3.435
37696SOL     OW14926   3.030   5.933   4.960
37696SOL    HW114927   3.110   5.960   4.915
37696SOL    HW214928   2.970   6.006   4.949
37697SOL     OW14929   9.034   7.073   2.313
37697SOL    HW114930   9.088   7.141   2.272
37697SOL    HW214931   8.965   7.056   2.249
37698SOL     OW14932   8.332   7.871   6.941
37698SOL    HW114933   8.390   7.943   6.967
37698SOL    HW214934   8.350   7.802   7.004
37699SOL     OW14935   5.291   6.293  13.804
37699SOL    HW114936   5.278   6.377  13.849
37699SOL    HW214937   5.314   6.317  13.714
37700SOL     OW14938   5.040   4.640   5.130
37700SOL    HW114939   5.009   4.594   5.209
37700SOL    HW214940   5.104   4.703   5.163
37701SOL     OW14941   1.238   7.809   0.335
37701SOL    HW114942   1.284   7.803   0.251
37701SOL    HW214943   1.192   7.893   0.330
37702SOL     OW14944   5.958   7.187   2.511
37702SOL    HW114945   5.967   7.270   2.558
37702SOL    HW214946   5.938   7.123   2.580
37703SOL     OW14947   0.661   0.260  14.632
37703SOL    HW114948   0.684   0.246  14.540
37703SOL    HW214949   0.587   0.321  14.630
37704SOL     OW14950  13.714   0.579   0.476
37704SOL    HW114951  13.791   0.621   0.513
37704SOL    HW214952  13.640   0.622   0.518
37705SOL     OW14953  14.529   0.862   6.782
37705SOL    HW114954  14.572   0.947   6.773
37705SOL    HW214955  14.557   0.830   6.868
37706SOL     OW14956   1.154  12.905  11.338
37706SOL    HW114957   1.149  13.001  11.333
37706SOL    HW214958   1.230  12.883  11.283
37707SOL     OW14959  10.192   1.927   4.767
37707SOL    HW114960  10.174   1.878   4.687
37707SOL    HW214961  10.129   1.894   4.831
37708SOL     OW14962  10.964  11.855   5.805
37708SOL    HW114963  10.985  11.938   5.762
37708SOL    HW214964  11.049  11.816   5.826
37709SOL     OW14965   9.656   8.393  14.341
37709SOL    HW114966   9.682   8.358  14.256
37709SOL    HW214967   9.571   8.354  14.359
37710SOL     OW14968   9.840   7.750  14.844
37710SOL    HW114969   9.842   7.713  14.756
37710SOL    HW214970   9.805   7.680   0.025
37711SOL     OW14971   1.997   1.178   8.512
37711SOL    HW114972   1.999   1.249   8.576
37711SOL    HW214973   1.945   1.109   8.553
37712SOL     OW14974   1.461   3.830  10.736
37712SOL    HW114975   1.473   3.735  10.739
37712SOL    HW214976   1.506   3.857  10.656
37713SOL     OW14977   5.796  10.271   5.630
37713SOL    HW114978   5.872  10.220   5.600
37713SOL    HW214979   5.752  10.212   5.692
37714SOL     OW14980  11.004   6.419  12.442
37714SOL    HW114981  10.987   6.386  12.354
37714SOL    HW214982  10.925   6.468  12.464
37715SOL     OW14983   4.591  11.951   7.153
37715SOL    HW114984   4.651  11.964   7.079
37715SOL    HW214985   4.549  11.867   7.134
37716SOL     OW14986   7.495  13.693  10.393
37716SOL    HW114987   7.531  13.609  10.363
37716SOL    HW214988   7.414  13.670  10.439
37717SOL     OW14989   9.724   5.690   6.962
37717SOL    HW114990   9.766   5.705   6.877
37717SOL    HW214991   9.631   5.684   6.941
37718SOL     OW14992   6.305   5.119   2.243
37718SOL    HW114993   6.251   5.175   2.187
37718SOL    HW214994   6.395   5.143   2.222
37719SOL     OW14995   4.041   2.368  10.651
37719SOL    HW114996   4.117   2.328  10.693
37719SOL    HW214997   3.985   2.396  10.724
37720SOL     OW14998   9.837   9.132   7.855
37720SOL    HW114999   9.777   9.194   7.813
37720SOL    HW215000   9.832   9.153   7.948
37721SOL     OW15001  12.383   6.496   8.754
37721SOL    HW115002  12.465   6.518   8.798
37721SOL    HW215003  12.391   6.534   8.667
37722SOL     OW15004   2.180  13.920   7.179
37722SOL    HW115005   2.107  13.918   7.241
37722SOL    HW215006   2.258  13.909   7.234
37723SOL     OW15007  10.893   4.407   1.842
37723SOL    HW115008  10.984   4.434   1.830
37723SOL    HW215009  10.858   4.470   1.905
37724SOL     OW15010   5.528   7.396   2.019
37724SOL    HW115011   5.554   7.314   2.061
37724SOL    HW215012   5.455   7.427   2.072
37725SOL     OW15013  12.845   5.449   7.678
37725SOL    HW115014  12.861   5.420   7.588
37725SOL    HW215015  12.874   5.376   7.733
37726SOL     OW15016   3.801   2.262  14.291
37726SOL    HW115017   3.830   2.332  14.232
37726SOL    HW215018   3.742   2.209  14.238
37727SOL     OW15019  10.478   3.000  14.170
37727SOL    HW115020  10.394   2.969  14.205
37727SOL    HW215021  10.538   2.995  14.245
37728SOL     OW15022  11.061  12.559   3.172
37728SOL    HW115023  11.081  12.568   3.079
37728SOL    HW215024  10.974  12.599   3.182
37729SOL     OW15025   7.451   8.847  10.894
37729SOL    HW115026   7.461   8.758  10.862
37729SOL    HW215027   7.521   8.896  10.850
37730SOL     OW15028   4.393   9.392   6.843
37730SOL    HW115029   4.319   9.433   6.888
37730SOL    HW215030   4.471   9.430   6.884
37731SOL     OW15031   4.892  10.040   8.873
37731SOL    HW115032   4.948   9.999   8.807
37731SOL    HW215033   4.942  10.032   8.954
37732SOL     OW15034  12.552   9.095  13.300
37732SOL    HW115035  12.551   9.184  13.336
37732SOL    HW215036  12.474   9.053  13.337
37733SOL     OW15037   4.181  14.355   2.931
37733SOL    HW115038   4.245  14.390   2.993
37733SOL    HW215039   4.195  14.260   2.933
37734SOL     OW15040   8.190   6.317   1.444
37734SOL    HW115041   8.096   6.306   1.436
37734SOL    HW215042   8.204   6.411   1.430
37735SOL     OW15043   0.531   9.580   7.824
37735SOL    HW115044   0.581   9.602   7.745
37735SOL    HW215045   0.555   9.648   7.887
37736SOL     OW15046   5.752   0.119   4.639
37736SOL    HW115047   5.681   0.174   4.671
37736SOL    HW215048   5.828   0.177   4.638
37737SOL     OW15049   4.601  10.936   6.638
37737SOL    HW115050   4.600  10.953   6.544
37737SOL    HW215051   4.688  10.965   6.666
37738SOL     OW15052  13.608  10.568   3.997
37738SOL    HW115053  13.549  10.620   3.942
37738SOL    HW215054  13.657  10.513   3.936
37739SOL     OW15055   6.615  10.325  12.028
37739SOL    HW115056   6.543  10.364  11.979
37739SOL    HW215057   6.650  10.397  12.081
37740SOL     OW15058   1.828   8.602   6.115
37740SOL    HW115059   1.765   8.662   6.075
37740SOL    HW215060   1.901   8.599   6.052
37741SOL     OW15061  12.275   3.636   6.120
37741SOL    HW115062  12.225   3.573   6.068
37741SOL    HW215063  12.251   3.617   6.211
37742SOL     OW15064   3.874   5.203  11.494
37742SOL    HW115065   3.940   5.261  11.456
37742SOL    HW215066   3.923   5.142  11.548
37743SOL     OW15067   3.592  14.834   6.316
37743SOL    HW115068   3.677  14.856   6.279
37743SOL    HW215069   3.611  14.800   6.403
37744SOL     OW15070   0.284   6.862   3.590
37744SOL    HW115071   0.244   6.840   3.506
37744SOL    HW215072   0.215   6.911   3.637
37745SOL     OW15073   3.047   0.317  10.636
37745SOL    HW115074   3.030   0.366  10.717
37745SOL    HW215075   3.134   0.279  10.649
37746SOL     OW15076   6.096   0.033   8.425
37746SOL    HW115077   6.028   0.091   8.391
37746SOL    HW215078   6.070  14.820   8.396
37747SOL     OW15079  13.987   2.777   0.885
37747SOL    HW115080  13.970   2.815   0.799
37747SOL    HW215081  13.902   2.746   0.915
37748SOL     OW15082  10.857   7.464  13.918
37748SOL    HW115083  10.854   7.474  14.013
37748SOL    HW215084  10.895   7.546  13.887
37749SOL     OW15085   6.494   8.682   8.580
37749SOL    HW115086   6.465   8.761   8.625
37749SOL    HW215087   6.566   8.711   8.524
37750SOL     OW15088   2.610   9.761   2.647
37750SOL    HW115089   2.515   9.760   2.636
37750SOL    HW215090   2.634   9.854   2.646
37751SOL     OW15091   7.621   3.251   0.456
37751SOL    HW115092   7.554   3.304   0.500
37751SOL    HW215093   7.690   3.241   0.522
37752SOL     OW15094  11.014   9.284   8.395
37752SOL    HW115095  10.989   9.344   8.466
37752SOL    HW215096  11.095   9.243   8.427
37753SOL     OW15097   2.546   5.517   6.529
37753SOL    HW115098   2.480   5.448   6.542
37753SOL    HW215099   2.527   5.581   6.597
37754SOL     OW15100   2.958   6.506  11.009
37754SOL    HW115101   2.893   6.506  11.079
37754SOL    HW215102   3.003   6.421  11.018
37755SOL     OW15103   5.572  10.478   4.269
37755SOL    HW115104   5.636  10.421   4.227
37755SOL    HW215105   5.540  10.534   4.198
37756SOL     OW15106   4.580   3.354   7.329
37756SOL    HW115107   4.517   3.363   7.401
37756SOL    HW215108   4.662   3.329   7.371
37757SOL     OW15109   6.410   5.136  11.223
37757SOL    HW115110   6.383   5.122  11.314
37757SOL    HW215111   6.404   5.230  11.211
37758SOL     OW15112  14.844   0.392  13.151
37758SOL    HW115113  14.844   0.437  13.067
37758SOL    HW215114  14.786   0.316  13.138
37759SOL     OW15115  11.895  13.942   3.184
37759SOL    HW115116  11.958  13.916   3.251
37759SOL    HW215117  11.939  13.925   3.101
37760SOL     OW15118  14.786   5.136  13.170
37760SOL    HW115119  14.774   5.122  13.264
37760SOL    HW215120  14.740   5.063  13.129
37761SOL     OW15121   2.602   4.429   5.652
37761SOL    HW115122   2.529   4.390   5.699
37761SOL    HW215123   2.588   4.524   5.661
37762SOL     OW15124   1.480  11.097   7.091
37762SOL    HW115125   1.514  11.125   7.007
37762SOL    HW215126   1.446  11.177   7.131
37763SOL     OW15127  11.696   0.515   8.123
37763SOL    HW115128  11.763   0.448   8.138
37763SOL    HW215129  11.617   0.478   8.163
37764SOL     OW15130  10.263   9.206   5.891
37764SOL    HW115131  10.351   9.220   5.925
37764SOL    HW215132  10.227   9.135   5.945
37765SOL     OW15133   6.107  14.142   9.209
37765SOL    HW115134   6.151  14.067   9.249
37765SOL    HW215135   6.113  14.211   9.276
37766SOL     OW15136  14.481   5.442  13.644
37766SOL    HW115137  14.466   5.418  13.735
37766SOL    HW215138  14.457   5.535  13.639
37767SOL     OW15139  12.612   4.883  13.584
37767SOL    HW115140  12.705   4.867  13.568
37767SOL    HW215141  12.592   4.830  13.661
37768SOL     OW15142  12.379   1.517   9.659
37768SOL    HW115143  12.425   1.601   9.670
37768SOL    HW215144  12.356   1.492   9.749
37769SOL     OW15145   8.355   9.178  10.226
37769SOL    HW115146   8.303   9.135  10.294
37769SOL    HW215147   8.323   9.139  10.144
37770SOL     OW15148   7.916   1.207  12.312
37770SOL    HW115149   8.011   1.218  12.310
37770SOL    HW215150   7.895   1.162  12.230
37771SOL     OW15151  13.627   0.421  10.198
37771SOL    HW115152  13.585   0.336  10.194
37771SOL    HW215153  13.576   0.471  10.262
37772SOL     OW15154   8.139  10.594  10.680
37772SOL    HW115155   8.128  10.677  10.634
37772SOL    HW215156   8.176  10.535  10.614
37773SOL     OW15157  11.146   9.771   9.612
37773SOL    HW115158  11.130   9.805   9.700
37773SOL    HW215159  11.063   9.732   9.585
37774SOL     OW15160   6.009  13.684   2.007
37774SOL    HW115161   6.042  13.659   2.094
37774SOL    HW215162   5.979  13.601   1.969
37775SOL     OW15163  12.500   9.205   6.641
37775SOL    HW115164  12.483   9.161   6.724
37775SOL    HW215165  12.560   9.147   6.595
37776SOL     OW15166  12.248  11.793   8.174
37776SOL    HW115167  12.281  11.745   8.099
37776SOL    HW215168  12.155  11.772   8.177
37777SOL     OW15169  12.858   9.197  12.657
37777SOL    HW115170  12.935   9.140  12.655
37777SOL    HW215171  12.794   9.152  12.601
37778SOL     OW15172   4.540   6.339   1.953
37778SOL    HW115173   4.612   6.291   1.912
37778SOL    HW215174   4.498   6.276   2.011
37779SOL     OW15175  12.216  11.637   1.284
37779SOL    HW115176  12.163  11.560   1.267
37779SOL    HW215177  12.176  11.677   1.362
37780SOL     OW15178  11.276   8.379   7.881
37780SOL    HW115179  11.259   8.286   7.892
37780SOL    HW215180  11.366   8.391   7.911
37781SOL     OW15181  13.766  14.826   0.363
37781SOL    HW115182  13.676  14.856   0.356
37781SOL    HW215183  13.760  14.731   0.348
37782SOL     OW15184   5.315   9.627   6.537
37782SOL    HW115185   5.250   9.683   6.578
37782SOL    HW215186   5.369   9.687   6.485
37783SOL     OW15187   7.135   2.342   2.827
37783SOL    HW115188   7.148   2.335   2.922
37783SOL    HW215189   7.095   2.427   2.814
37784SOL     OW15190   3.715   3.235   7.773
37784SOL    HW115191   3.655   3.167   7.802
37784SOL    HW215192   3.798   3.190   7.759
37785SOL     OW15193  14.324   5.529  13.303
37785SOL    HW115194  14.310   5.435  13.310
37785SOL    HW215195  14.416   5.541  13.324
37786SOL     OW15196   4.159   7.417   7.181
37786SOL    HW115197   4.226   7.370   7.131
37786SOL    HW215198   4.192   7.419   7.271
37787SOL     OW15199  12.800   0.201   9.200
37787SOL    HW115200  12.888   0.163   9.196
37787SOL    HW215201  12.752   0.144   9.260
37788SOL     OW15202   1.004   0.110   9.703
37788SOL    HW115203   1.029   0.021   9.679
37788SOL    HW215204   1.034   0.119   9.794
37789SOL     OW15205  14.001   5.868   2.336
37789SOL    HW115206  13.943   5.850   2.262
37789SOL    HW215207  13.941   5.881   2.410
37790SOL     OW15208   4.228   1.753  11.754
37790SOL    HW115209   4.138   1.746  11.786
37790SOL    HW215210   4.231   1.837  11.709
37791SOL     OW15211   4.394   3.721  13.238
37791SOL    HW115212   4.308   3.687  13.212
37791SOL    HW215213   4.413   3.677  13.321
37792SOL     OW15214  11.826  14.840   9.138
37792SOL    HW115215  11.895  14.850   9.072
37792SOL    HW215216  11.750  14.808   9.089
37793SOL     OW15217   8.046  13.719   1.117
37793SOL    HW115218   7.960  13.732   1.157
37793SOL    HW215219   8.034  13.738   1.025
37794SOL     OW15220   4.076   9.482  12.534
37794SOL    HW115221   4.051   9.424  12.606
37794SOL    HW215222   4.086   9.568  12.575
37795SOL     OW15223  11.345  14.026   8.342
37795SOL    HW115224  11.440  14.024   8.347
37795SOL    HW215225  11.326  14.030   8.248
37796SOL     OW15226   1.791   7.838   8.410
37796SOL    HW115227   1.885   7.827   8.425
37796SOL    HW215228   1.778   7.933   8.411
37797SOL     OW15229   0.209   3.705  14.628
37797SOL    HW115230   0.139   3.663  14.678
37797SOL    HW215231   0.165   3.742  14.551
37798SOL     OW15232   3.437   1.662   2.583
37798SOL    HW115233   3.472   1.614   2.658
37798SOL    HW215234   3.361   1.709   2.617
37799SOL     OW15235  12.118  12.737   5.775
37799SOL    HW115236  12.191  12.675   5.769
37799SOL    HW215237  12.103  12.749   5.869
37800SOL     OW15238   6.727  13.792   4.052
37800SOL    HW115239   6.748  13.878   4.015
37800SOL    HW215240   6.710  13.810   4.145
37801SOL     OW15241   1.822  13.581   5.294
37801SOL    HW115242   1.770  13.658   5.317
37801SOL    HW215243   1.773  13.508   5.332
37802SOL     OW15244  13.223   8.558   8.874
37802SOL    HW115245  13.133   8.527   8.867
37802SOL    HW215246  13.216   8.654   8.871
37803SOL     OW15247  11.957  10.784   4.156
37803SOL    HW115248  11.907  10.767   4.236
37803SOL    HW215249  11.892  10.821   4.095
37804SOL     OW15250  14.456   1.539   7.184
37804SOL    HW115251  14.407   1.471   7.229
37804SOL    HW215252  14.437   1.619   7.233
37805SOL     OW15253   2.650  12.890   0.682
37805SOL    HW115254   2.584  12.825   0.702
37805SOL    HW215255   2.717  12.842   0.632
37806SOL     OW15256   6.828   9.954  12.223
37806SOL    HW115257   6.819   9.916  12.310
37806SOL    HW215258   6.884   9.893  12.176
37807SOL     OW15259   7.158   3.912   4.719
37807SOL    HW115260   7.224   3.862   4.670
37807SOL    HW215261   7.169   4.002   4.690
37808SOL     OW15262   0.894   0.715   1.044
37808SOL    HW115263   0.860   0.778   1.108
37808SOL    HW215264   0.817   0.683   0.998
37809SOL     OW15265   3.520   2.938   3.247
37809SOL    HW115266   3.557   2.986   3.172
37809SOL    HW215267   3.499   3.006   3.311
37810SOL     OW15268   3.586   2.763   5.718
37810SOL    HW115269   3.546   2.786   5.634
37810SOL    HW215270   3.557   2.833   5.777
37811SOL     OW15271   2.588   0.567   6.208
37811SOL    HW115272   2.676   0.594   6.181
37811SOL    HW215273   2.536   0.569   6.127
37812SOL     OW15274  13.942   5.994   4.830
37812SOL    HW115275  13.892   5.971   4.909
37812SOL    HW215276  13.892   6.064   4.789
37813SOL     OW15277   8.437   8.910   4.247
37813SOL    HW115278   8.376   8.838   4.261
37813SOL    HW215279   8.429   8.931   4.154
37814SOL     OW15280   0.280   3.611  13.276
37814SOL    HW115281   0.230   3.644  13.351
37814SOL    HW215282   0.302   3.521  13.299
37815SOL     OW15283   8.358   1.498   5.026
37815SOL    HW115284   8.357   1.568   5.091
37815SOL    HW215285   8.307   1.428   5.067
37816SOL     OW15286   6.460   3.364   4.799
37816SOL    HW115287   6.421   3.287   4.757
37816SOL    HW215288   6.500   3.330   4.879
37817SOL     OW15289   6.286  12.506   1.061
37817SOL    HW115290   6.276  12.485   0.968
37817SOL    HW215291   6.304  12.421   1.103
37818SOL     OW15292   4.809   6.087   6.909
37818SOL    HW115293   4.756   6.163   6.932
37818SOL    HW215294   4.887   6.094   6.964
37819SOL     OW15295   8.430   9.628  12.724
37819SOL    HW115296   8.341   9.615  12.689
37819SOL    HW215297   8.421   9.614  12.818
37820SOL     OW15298  12.434  14.159   2.526
37820SOL    HW115299  12.398  14.242   2.556
37820SOL    HW215300  12.407  14.151   2.435
37821SOL     OW15301  10.510   3.185   8.846
37821SOL    HW115302  10.544   3.267   8.811
37821SOL    HW215303  10.579   3.120   8.827
37822SOL     OW15304   7.250   1.176   8.926
37822SOL    HW115305   7.324   1.229   8.897
37822SOL    HW215306   7.285   1.087   8.932
37823SOL     OW15307   9.449   9.801   0.166
37823SOL    HW115308   9.540   9.776   0.183
37823SOL    HW215309   9.423   9.747   0.092
37824SOL     OW15310   1.057   1.872   8.255
37824SOL    HW115311   1.046   1.858   8.349
37824SOL    HW215312   1.060   1.967   8.244
37825SOL     OW15313   3.936  13.501  14.432
37825SOL    HW115314   4.023  13.515  14.467
37825SOL    HW215315   3.882  13.570  14.471
37826SOL     OW15316   8.494   9.128   7.299
37826SOL    HW115317   8.554   9.104   7.370
37826SOL    HW215318   8.457   9.044   7.270
37827SOL     OW15319   5.981   7.059   5.451
37827SOL    HW115320   5.898   7.011   5.457
37827SOL    HW215321   5.985   7.108   5.534
37828SOL     OW15322  11.870   0.814   6.061
37828SOL    HW115323  11.909   0.887   6.110
37828SOL    HW215324  11.918   0.737   6.092
37829SOL     OW15325   5.204  11.021   2.090
37829SOL    HW115326   5.246  11.098   2.127
37829SOL    HW215327   5.257  10.947   2.121
37830SOL     OW15328   4.165  11.471   9.543
37830SOL    HW115329   4.261  11.470   9.553
37830SOL    HW215330   4.132  11.452   9.630
37831SOL     OW15331   8.658   9.816   7.692
37831SOL    HW115332   8.612   9.790   7.772
37831SOL    HW215333   8.691   9.904   7.710
37832SOL     OW15334   4.814   3.127  13.361
37832SOL    HW115335   4.769   3.162  13.284
37832SOL    HW215336   4.863   3.051  13.328
37833SOL     OW15337   9.649   1.036   2.938
37833SOL    HW115338   9.674   1.103   3.001
37833SOL    HW215339   9.621   1.085   2.861
37834SOL     OW15340  12.903  13.856  13.395
37834SOL    HW115341  12.901  13.818  13.307
37834SOL    HW215342  12.816  13.895  13.405
37835SOL     OW15343   0.461   8.491   6.727
37835SOL    HW115344   0.486   8.566   6.672
37835SOL    HW215345   0.366   8.496   6.731
37836SOL     OW15346   2.417  12.341   0.111
37836SOL    HW115347   2.355  12.409   0.137
37836SOL    HW215348   2.499  12.388   0.096
37837SOL     OW15349   1.703   4.272   1.407
37837SOL    HW115350   1.623   4.268   1.459
37837SOL    HW215351   1.737   4.361   1.422
37838SOL     OW15352   2.842   5.024  11.063
37838SOL    HW115353   2.855   5.101  11.118
37838SOL    HW215354   2.929   5.008  11.024
37839SOL     OW15355  13.610   1.888   2.921
37839SOL    HW115356  13.559   1.821   2.967
37839SOL    HW215357  13.640   1.947   2.990
37840SOL     OW15358   5.211   2.451   7.190
37840SOL    HW115359   5.120   2.421   7.193
37840SOL    HW215360   5.234   2.447   7.098
37841SOL     OW15361   2.573   5.933  14.517
37841SOL    HW115362   2.493   5.911  14.564
37841SOL    HW215363   2.596   5.854  14.470
37842SOL     OW15364  14.250  13.689  14.523
37842SOL    HW115365  14.273  13.698  14.430
37842SOL    HW215366  14.156  13.702  14.525
37843SOL     OW15367   0.657  12.000   8.865
37843SOL    HW115368   0.657  12.088   8.902
37843SOL    HW215369   0.580  11.958   8.904
37844SOL     OW15370  13.603   2.554   4.341
37844SOL    HW115371  13.657   2.485   4.303
37844SOL    HW215372  13.591   2.527   4.432
37845SOL     OW15373  13.121   6.511   4.246
37845SOL    HW115374  13.104   6.455   4.170
37845SOL    HW215375  13.050   6.490   4.307
37846SOL     OW15376   6.021   0.365   8.401
37846SOL    HW115377   5.961   0.356   8.475
37846SOL    HW215378   5.964   0.383   8.326
37847SOL     OW15379  13.541  14.342  11.900
37847SOL    HW115380  13.532  14.371  11.810
37847SOL    HW215381  13.451  14.331  11.931
37848SOL     OW15382   9.171   3.454   2.611
37848SOL    HW115383   9.119   3.534   2.622
37848SOL    HW215384   9.139   3.395   2.680
37849SOL     OW15385   8.420  13.569   9.218
37849SOL    HW115386   8.377  13.497   9.173
37849SOL    HW215387   8.354  13.638   9.221
37850SOL     OW15388   8.825  10.006  14.688
37850SOL    HW115389   8.800   9.928  14.737
37850SOL    HW215390   8.757  10.015  14.621
37851SOL     OW15391  10.127   7.600   2.648
37851SOL    HW115392  10.128   7.648   2.566
37851SOL    HW215393  10.116   7.667   2.715
37852SOL     OW15394   3.656   1.872  13.534
37852SOL    HW115395   3.696   1.829  13.610
37852SOL    HW215396   3.704   1.955  13.526
37853SOL     OW15397  11.578  13.709   9.290
37853SOL    HW115398  11.519  13.783   9.304
37853SOL    HW215399  11.526  13.632   9.315
37854SOL     OW15400   1.261  14.836   3.211
37854SOL    HW115401   1.225  14.750   3.194
37854SOL    HW215402   1.246   0.011   3.130
37855SOL     OW15403   9.640   7.982   0.097
37855SOL    HW115404   9.553   7.964   0.132
37855SOL    HW215405   9.673   7.896   0.070
37856SOL     OW15406  11.486   8.697   4.531
37856SOL    HW115407  11.545   8.762   4.570
37856SOL    HW215408  11.526   8.675   4.447
37857SOL     OW15409  11.018   1.739  14.353
37857SOL    HW115410  11.015   1.785  14.437
37857SOL    HW215411  10.952   1.671  14.361
37858SOL     OW15412  12.575  12.543   3.944
37858SOL    HW115413  12.556  12.560   3.852
37858SOL    HW215414  12.637  12.470   3.943
37859SOL     OW15415  11.772   8.506   1.221
37859SOL    HW115416  11.842   8.570   1.208
37859SOL    HW215417  11.789   8.469   1.308
37860SOL     OW15418  14.616  12.892  14.551
37860SOL    HW115419  14.697  12.898  14.602
37860SOL    HW215420  14.547  12.920  14.612
37861SOL     OW15421   2.126   9.555   8.172
37861SOL    HW115422   2.202   9.553   8.114
37861SOL    HW215423   2.124   9.645   8.206
37862SOL     OW15424   4.990   6.945   6.121
37862SOL    HW115425   5.003   6.854   6.094
37862SOL    HW215426   4.926   6.940   6.192
37863SOL     OW15427   8.664   0.613  13.494
37863SOL    HW115428   8.658   0.554  13.569
37863SOL    HW215429   8.598   0.680  13.511
37864SOL     OW15430   1.787   2.093   1.413
37864SOL    HW115431   1.866   2.045   1.439
37864SOL    HW215432   1.792   2.100   1.318
37865SOL     OW15433   5.167   6.580   7.945
37865SOL    HW115434   5.250   6.575   7.992
37865SOL    HW215435   5.138   6.489   7.939
37866SOL     OW15436  12.304   9.717   7.856
37866SOL    HW115437  12.331   9.691   7.944
37866SOL    HW215438  12.280   9.635   7.813
37867SOL     OW15439  13.604   7.561   7.968
37867SOL    HW115440  13.578   7.487   8.023
37867SOL    HW215441  13.522   7.597   7.935
37868SOL     OW15442  11.818   4.336  13.038
37868SOL    HW115443  11.844   4.413  12.986
37868SOL    HW215444  11.796   4.270  12.972
37869SOL     OW15445   3.224  12.599  12.481
37869SOL    HW115446   3.288  12.537  12.516
37869SOL    HW215447   3.160  12.544  12.436
37870SOL     OW15448   8.860  10.520  11.039
37870SOL    HW115449   8.790  10.564  10.992
37870SOL    HW215450   8.829  10.430  11.050
37871SOL     OW15451   4.813   7.126   7.636
37871SOL    HW115452   4.802   7.200   7.696
37871SOL    HW215453   4.908   7.116   7.629
37872SOL     OW15454  10.112   2.839  12.673
37872SOL    HW115455  10.200   2.808  12.651
37872SOL    HW215456  10.095   2.802  12.759
37873SOL     OW15457   7.408  10.886  13.905
37873SOL    HW115458   7.473  10.940  13.861
37873SOL    HW215459   7.325  10.911  13.864
37874SOL     OW15460  13.466   8.788   8.085
37874SOL    HW115461  13.468   8.701   8.125
37874SOL    HW215462  13.506   8.845   8.151
37875SOL     OW15463   2.508   8.535   3.215
37875SOL    HW115464   2.494   8.489   3.132
37875SOL    HW215465   2.578   8.597   3.196
37876SOL     OW15466  14.234   4.363   5.815
37876SOL    HW115467  14.210   4.286   5.763
37876SOL    HW215468  14.222   4.334   5.906
37877SOL     OW15469   7.333  13.378  13.671
37877SOL    HW115470   7.422  13.390  13.705
37877SOL    HW215471   7.281  13.356  13.748
37878SOL     OW15472  13.342   4.191  14.554
37878SOL    HW115473  13.288   4.256  14.509
37878SOL    HW215474  13.400   4.158  14.486
37879SOL     OW15475   0.408   6.300   3.748
37879SOL    HW115476   0.326   6.346   3.762
37879SOL    HW215477   0.458   6.357   3.689
37880SOL     OW15478   2.230   9.916   6.810
37880SOL    HW115479   2.305   9.952   6.858
37880SOL    HW215480   2.171   9.883   6.878
37881SOL     OW15481   6.920   9.764  11.622
37881SOL    HW115482   6.850   9.720  11.574
37881SOL    HW215483   6.921   9.853  11.586
37882SOL     OW15484  13.391   9.656  11.396
37882SOL    HW115485  13.452   9.655  11.323
37882SOL    HW215486  13.447   9.665  11.474
37883SOL     OW15487   9.986   8.388   9.282
37883SOL    HW115488   9.932   8.339   9.220
37883SOL    HW215489   9.977   8.479   9.254
37884SOL     OW15490   0.067   7.806  14.874
37884SOL    HW115491   0.052   7.855   0.081
37884SOL    HW215492  14.855   7.771  14.851
37885SOL     OW15493   1.575   8.241   5.303
37885SOL    HW115494   1.566   8.195   5.387
37885SOL    HW215495   1.522   8.190   5.242
37886SOL     OW15496  13.185  11.829   8.234
37886SOL    HW115497  13.104  11.843   8.186
37886SOL    HW215498  13.230  11.914   8.232
37887SOL     OW15499   4.247  10.535   4.939
37887SOL    HW115500   4.303  10.467   4.903
37887SOL    HW215501   4.244  10.603   4.871
37888SOL     OW15502  11.165   7.272  12.217
37888SOL    HW115503  11.113   7.223  12.152
37888SOL    HW215504  11.223   7.327  12.164
37889SOL     OW15505  14.613  12.487  14.211
37889SOL    HW115506  14.598  12.529  14.296
37889SOL    HW215507  14.576  12.548  14.147
37890SOL     OW15508  10.762   5.745  11.343
37890SOL    HW115509  10.677   5.708  11.368
37890SOL    HW215510  10.750   5.771  11.252
37891SOL     OW15511   1.205  13.582   5.840
37891SOL    HW115512   1.182  13.568   5.748
37891SOL    HW215513   1.126  13.559   5.889
37892SOL     OW15514   2.951   2.702   2.773
37892SOL    HW115515   3.011   2.689   2.846
37892SOL    HW215516   2.936   2.797   2.771
37893SOL     OW15517   3.001  10.703  14.330
37893SOL    HW115518   3.026  10.645  14.258
37893SOL    HW215519   3.015  10.791  14.295
37894SOL     OW15520   4.983   0.534  12.793
37894SOL    HW115521   4.985   0.469  12.722
37894SOL    HW215522   4.890   0.551  12.808
37895SOL     OW15523  10.721  14.130   6.116
37895SOL    HW115524  10.635  14.170   6.101
37895SOL    HW215525  10.701  14.041   6.144
37896SOL     OW15526   3.928   1.430   2.523
37896SOL    HW115527   3.971   1.493   2.464
37896SOL    HW215528   3.899   1.484   2.597
37897SOL     OW15529   8.570  14.676  10.350
37897SOL    HW115530   8.553  14.628  10.269
37897SOL    HW215531   8.553  14.768  10.329
37898SOL     OW15532   7.554  13.917   9.668
37898SOL    HW115533   7.462  13.904   9.643
37898SOL    HW215534   7.604  13.896   9.589
37899SOL     OW15535  10.656  10.106  13.196
37899SOL    HW115536  10.707  10.176  13.155
37899SOL    HW215537  10.565  10.137  13.190
37900SOL     OW15538   7.964  12.654   3.534
37900SOL    HW115539   7.959  12.673   3.440
37900SOL    HW215540   7.962  12.558   3.539
37901SOL     OW15541  10.693   2.833   9.689
37901SOL    HW115542  10.722   2.923   9.672
37901SOL    HW215543  10.641   2.839   9.769
37902SOL     OW15544  12.048  14.674   9.239
37902SOL    HW115545  12.004  14.750   9.201
37902SOL    HW215546  12.130  14.667   9.190
37903SOL     OW15547   6.390   5.247   4.720
37903SOL    HW115548   6.462   5.194   4.687
37903SOL    HW215549   6.347   5.192   4.786
37904SOL     OW15550   1.042  12.548   7.842
37904SOL    HW115551   1.116  12.570   7.898
37904SOL    HW215552   1.059  12.594   7.760
37905SOL     OW15553   5.711   8.395   0.389
37905SOL    HW115554   5.719   8.304   0.417
37905SOL    HW215555   5.800   8.430   0.394
37906SOL     OW15556  14.087  12.670  14.318
37906SOL    HW115557  14.111  12.742  14.377
37906SOL    HW215558  14.003  12.696  14.282
37907SOL     OW15559  10.404   4.041  12.037
37907SOL    HW115560  10.444   4.128  12.035
37907SOL    HW215561  10.457   3.991  12.099
37908SOL     OW15562   7.497   4.125   9.167
37908SOL    HW115563   7.438   4.109   9.241
37908SOL    HW215564   7.584   4.120   9.205
37909SOL     OW15565  13.249   0.333  12.406
37909SOL    HW115566  13.263   0.261  12.344
37909SOL    HW215567  13.261   0.293  12.492
37910SOL     OW15568  10.903   6.909   4.878
37910SOL    HW115569  10.970   6.846   4.850
37910SOL    HW215570  10.832   6.897   4.816
37911SOL     OW15571   2.990   2.041  13.389
37911SOL    HW115572   3.039   2.080  13.317
37911SOL    HW215573   3.052   1.980  13.430
37912SOL     OW15574  12.762  11.892   1.081
37912SOL    HW115575  12.746  11.937   1.164
37912SOL    HW215576  12.690  11.829   1.074
37913SOL     OW15577  10.443   6.464   6.137
37913SOL    HW115578  10.498   6.428   6.067
37913SOL    HW215579  10.452   6.559   6.129
37914SOL     OW15580   6.607   7.920   7.023
37914SOL    HW115581   6.630   7.884   6.937
37914SOL    HW215582   6.614   8.015   7.012
37915SOL     OW15583  10.446  14.022   8.526
37915SOL    HW115584  10.376  14.028   8.461
37915SOL    HW215585  10.445  14.107   8.571
37916SOL     OW15586  11.006  14.522   6.628
37916SOL    HW115587  10.986  14.430   6.647
37916SOL    HW215588  11.035  14.523   6.537
37917SOL     OW15589   3.185   6.410  10.327
37917SOL    HW115590   3.109   6.355  10.312
37917SOL    HW215591   3.260   6.353  10.312
37918SOL     OW15592   7.682   2.816   4.810
37918SOL    HW115593   7.728   2.763   4.874
37918SOL    HW215594   7.703   2.776   4.726
37919SOL     OW15595   3.204   2.020   3.878
37919SOL    HW115596   3.207   2.115   3.883
37919SOL    HW215597   3.280   1.990   3.927
37920SOL     OW15598  14.056  12.296  14.415
37920SOL    HW115599  13.993  12.349  14.365
37920SOL    HW215600  14.142  12.325  14.385
37921SOL     OW15601   2.167   9.749   5.177
37921SOL    HW115602   2.238   9.810   5.199
37921SOL    HW215603   2.177   9.677   5.240
37922SOL     OW15604   8.547   0.932   4.442
37922SOL    HW115605   8.529   1.021   4.412
37922SOL    HW215606   8.474   0.911   4.500
37923SOL     OW15607   8.022  14.622  10.101
37923SOL    HW115608   8.101  14.643  10.151
37923SOL    HW215609   8.030  14.671  10.020
37924SOL     OW15610   4.650  13.896   6.482
37924SOL    HW115611   4.580  13.840   6.517
37924SOL    HW215612   4.731  13.853   6.508
37925SOL     OW15613   3.234   8.135   3.000
37925SOL    HW115614   3.301   8.067   2.992
37925SOL    HW215615   3.169   8.111   2.934
37926SOL     OW15616   9.238  11.644  10.679
37926SOL    HW115617   9.260  11.581  10.611
37926SOL    HW215618   9.300  11.716  10.666
37927SOL     OW15619   5.322   4.521  12.225
37927SOL    HW115620   5.312   4.457  12.294
37927SOL    HW215621   5.342   4.603  12.271
37928SOL     OW15622   8.966   1.382   0.975
37928SOL    HW115623   9.049   1.396   0.930
37928SOL    HW215624   8.899   1.408   0.912
37929SOL     OW15625  10.126   0.988  10.090
37929SOL    HW115626  10.080   0.987  10.174
37929SOL    HW215627  10.063   1.028  10.029
37930SOL     OW15628  14.610   4.050  14.232
37930SOL    HW115629  14.642   3.959  14.225
37930SOL    HW215630  14.684   4.103  14.204
37931SOL     OW15631   7.120  14.222   7.019
37931SOL    HW115632   7.063  14.299   7.017
37931SOL    HW215633   7.190  14.242   6.957
37932SOL     OW15634   6.390  10.136   6.516
37932SOL    HW115635   6.428  10.058   6.476
37932SOL    HW215636   6.308  10.105   6.555
37933SOL     OW15637  11.576   0.904  13.990
37933SOL    HW115638  11.496   0.942  14.025
37933SOL    HW215639  11.612   0.852  14.062
37934SOL     OW15640   3.526   1.071   8.425
37934SOL    HW115641   3.511   1.011   8.352
37934SOL    HW215642   3.472   1.147   8.404
37935SOL     OW15643  13.227   8.944   2.684
37935SOL    HW115644  13.162   8.919   2.618
37935SOL    HW215645  13.192   9.025   2.721
37936SOL     OW15646  11.686   9.287   4.531
37936SOL    HW115647  11.646   9.373   4.546
37936SOL    HW215648  11.746   9.301   4.458
37937SOL     OW15649  12.854   6.813   9.084
37937SOL    HW115650  12.811   6.777   9.162
37937SOL    HW215651  12.900   6.739   9.045
37938SOL     OW15652  10.351   9.890   2.808
37938SOL    HW115653  10.302   9.832   2.866
37938SOL    HW215654  10.431   9.842   2.787
37939SOL     OW15655  11.086   3.713   5.852
37939SOL    HW115656  11.102   3.724   5.945
37939SOL    HW215657  11.168   3.678   5.817
37940SOL     OW15658   2.052   0.303   3.386
37940SOL    HW115659   2.104   0.296   3.466
37940SOL    HW215660   2.097   0.370   3.334
37941SOL     OW15661   5.305   2.093   8.944
37941SOL    HW115662   5.359   2.016   8.923
37941SOL    HW215663   5.353   2.166   8.904
37942SOL     OW15664   5.504  10.363   2.070
37942SOL    HW115665   5.536  10.339   2.157
37942SOL    HW215666   5.441  10.432   2.086
37943SOL     OW15667   0.838   4.212   9.064
37943SOL    HW115668   0.897   4.137   9.060
37943SOL    HW215669   0.883   4.281   9.016
37944SOL     OW15670   2.649   0.248   1.085
37944SOL    HW115671   2.554   0.245   1.095
37944SOL    HW215672   2.683   0.198   1.159
37945SOL     OW15673  11.438   7.804   0.588
37945SOL    HW115674  11.393   7.855   0.521
37945SOL    HW215675  11.458   7.721   0.545
37946SOL     OW15676  10.323   6.891  14.623
37946SOL    HW115677  10.381   6.827  14.663
37946SOL    HW215678  10.235   6.863  14.647
37947SOL     OW15679   2.168  13.126   8.777
37947SOL    HW115680   2.222  13.204   8.765
37947SOL    HW215681   2.231  13.056   8.795
37948SOL     OW15682   5.124   5.678   2.411
37948SOL    HW115683   5.091   5.765   2.386
37948SOL    HW215684   5.135   5.632   2.328
37949SOL     OW15685   6.252   7.465   3.998
37949SOL    HW115686   6.294   7.447   4.082
37949SOL    HW215687   6.251   7.561   3.991
37950SOL     OW15688   2.431   7.368  14.399
37950SOL    HW115689   2.522   7.394  14.417
37950SOL    HW215690   2.438   7.282  14.359
37951SOL     OW15691   9.907   0.912   6.500
37951SOL    HW115692   9.877   1.003   6.500
37951SOL    HW215693   9.947   0.900   6.586
37952SOL     OW15694   0.017   1.277  10.822
37952SOL    HW115695   0.081   1.296  10.753
37952SOL    HW215696   0.037   1.188  10.849
37953SOL     OW15697  13.447   6.888   8.589
37953SOL    HW115698  13.397   6.813   8.620
37953SOL    HW215699  13.387   6.962   8.598
37954SOL     OW15700   0.258   3.226   8.097
37954SOL    HW115701   0.239   3.289   8.028
37954SOL    HW215702   0.181   3.227   8.153
37955SOL     OW15703   6.499   2.233   6.770
37955SOL    HW115704   6.447   2.153   6.766
37955SOL    HW215705   6.561   2.218   6.841
37956SOL     OW15706  11.867   0.215   3.417
37956SOL    HW115707  11.906   0.297   3.445
37956SOL    HW215708  11.837   0.174   3.499
37957SOL     OW15709  14.340   4.185   0.617
37957SOL    HW115710  14.327   4.278   0.601
37957SOL    HW215711  14.396   4.180   0.694
37958SOL     OW15712   3.295   7.622  12.226
37958SOL    HW115713   3.367   7.685  12.225
37958SOL    HW215714   3.261   7.624  12.136
37959SOL     OW15715   3.229   2.478   2.445
37959SOL    HW115716   3.306   2.534   2.456
37959SOL    HW215717   3.157   2.540   2.434
37960SOL     OW15718   0.617  12.041   1.810
37960SOL    HW115719   0.569  12.059   1.730
37960SOL    HW215720   0.599  12.116   1.867
37961SOL     OW15721   1.621   1.086  12.647
37961SOL    HW115722   1.688   1.026  12.679
37961SOL    HW215723   1.554   1.085  12.716
37962SOL     OW15724  12.963  11.852   8.067
37962SOL    HW115725  12.954  11.880   7.977
37962SOL    HW215726  12.911  11.771   8.073
37963SOL     OW15727   1.958  14.811   3.745
37963SOL    HW115728   1.973   0.023   3.784
37963SOL    HW215729   1.961  14.750   3.819
37964SOL     OW15730   9.543   2.735  14.520
37964SOL    HW115731   9.592   2.704  14.444
37964SOL    HW215732   9.557   2.667  14.586
37965SOL     OW15733   7.895   1.947  13.045
37965SOL    HW115734   7.853   1.861  13.042
37965SOL    HW215735   7.939   1.950  13.129
37966SOL     OW15736  12.929  14.280  10.639
37966SOL    HW115737  12.984  14.347  10.681
37966SOL    HW215738  12.991  14.225  10.592
37967SOL     OW15739   1.955   2.736   0.924
37967SOL    HW115740   1.936   2.736   0.830
37967SOL    HW215741   1.895   2.672   0.961
37968SOL     OW15742   7.023   1.859   4.903
37968SOL    HW115743   7.109   1.856   4.861
37968SOL    HW215744   6.975   1.926   4.854
37969SOL     OW15745  13.066  12.153   5.215
37969SOL    HW115746  13.033  12.149   5.125
37969SOL    HW215747  13.130  12.082   5.220
37970SOL     OW15748  12.077   1.176  11.113
37970SOL    HW115749  12.057   1.265  11.142
37970SOL    HW215750  12.008   1.122  11.152
37971SOL     OW15751  11.586  14.185   1.414
37971SOL    HW115752  11.619  14.237   1.488
37971SOL    HW215753  11.561  14.102   1.453
37972SOL     OW15754   4.498  14.261  12.889
37972SOL    HW115755   4.558  14.189  12.869
37972SOL    HW215756   4.411  14.226  12.867
37973SOL     OW15757   6.647   0.752  11.829
37973SOL    HW115758   6.610   0.725  11.745
37973SOL    HW215759   6.742   0.745  11.816
37974SOL     OW15760   7.521   5.392  13.540
37974SOL    HW115761   7.437   5.429  13.511
37974SOL    HW215762   7.502   5.300  13.554
37975SOL     OW15763   7.197   9.222  11.341
37975SOL    HW115764   7.170   9.204  11.250
37975SOL    HW215765   7.236   9.309  11.338
37976SOL     OW15766   8.146   0.476   6.542
37976SOL    HW115767   8.226   0.424   6.536
37976SOL    HW215768   8.093   0.431   6.608
37977SOL     OW15769   8.339   6.863   1.490
37977SOL    HW115770   8.425   6.835   1.459
37977SOL    HW215771   8.357   6.905   1.574
37978SOL     OW15772   2.881  12.082   5.350
37978SOL    HW115773   2.860  12.002   5.400
37978SOL    HW215774   2.922  12.140   5.415
37979SOL     OW15775   7.772   0.621  10.336
37979SOL    HW115776   7.802   0.709  10.313
37979SOL    HW215777   7.777   0.572  10.254
37980SOL     OW15778   9.213   9.480   0.835
37980SOL    HW115779   9.228   9.423   0.910
37980SOL    HW215780   9.298   9.520   0.818
37981SOL     OW15781   6.111   6.216  11.730
37981SOL    HW115782   6.123   6.277  11.658
37981SOL    HW215783   6.017   6.220  11.750
37982SOL     OW15784  12.175  11.558  11.212
37982SOL    HW115785  12.129  11.476  11.195
37982SOL    HW215786  12.264  11.543  11.182
37983SOL     OW15787   9.874  14.276   7.015
37983SOL    HW115788   9.871  14.238   7.103
37983SOL    HW215789   9.783  14.298   6.996
37984SOL     OW15790   1.705  11.625   5.381
37984SOL    HW115791   1.625  11.635   5.432
37984SOL    HW215792   1.753  11.706   5.395
37985SOL     OW15793   5.068   2.714   1.246
37985SOL    HW115794   5.108   2.694   1.161
37985SOL    HW215795   4.981   2.747   1.224
37986SOL     OW15796  10.342   2.456   9.049
37986SOL    HW115797  10.364   2.376   9.096
37986SOL    HW215798  10.426   2.492   9.021
37987SOL     OW15799   9.488  12.193   4.745
37987SOL    HW115800   9.424  12.171   4.677
37987SOL    HW215801   9.559  12.236   4.697
37988SOL     OW15802  11.549  13.718  11.585
37988SOL    HW115803  11.594  13.792  11.545
37988SOL    HW215804  11.620  13.662  11.617
37989SOL     OW15805   8.504  11.147   8.132
37989SOL    HW115806   8.454  11.216   8.089
37989SOL    HW215807   8.506  11.076   8.068
37990SOL     OW15808   3.462   6.412   9.956
37990SOL    HW115809   3.480   6.318   9.954
37990SOL    HW215810   3.466   6.439   9.864
37991SOL     OW15811   1.745   4.721   7.272
37991SOL    HW115812   1.751   4.708   7.177
37991SOL    HW215813   1.819   4.778   7.293
37992SOL     OW15814   0.397  13.389   7.167
37992SOL    HW115815   0.337  13.458   7.139
37992SOL    HW215816   0.459  13.432   7.225
37993SOL     OW15817   6.995   1.785   6.778
37993SOL    HW115818   7.086   1.762   6.797
37993SOL    HW215819   6.947   1.763   6.857
37994SOL     OW15820   7.637   3.656   1.108
37994SOL    HW115821   7.643   3.597   1.033
37994SOL    HW215822   7.633   3.599   1.184
37995SOL     OW15823  14.207  10.792  13.478
37995SOL    HW115824  14.225  10.735  13.403
37995SOL    HW215825  14.225  10.880  13.445
37996SOL     OW15826   3.708  11.402   9.733
37996SOL    HW115827   3.768  11.401   9.658
37996SOL    HW215828   3.684  11.310   9.745
37997SOL     OW15829  12.776  13.845   1.648
37997SOL    HW115830  12.722  13.877   1.720
37997SOL    HW215831  12.861  13.828   1.688
37998SOL     OW15832   9.652  11.253   4.461
37998SOL    HW115833   9.738  11.232   4.425
37998SOL    HW215834   9.604  11.170   4.457
37999SOL     OW15835   6.098   6.723   0.048
37999SOL    HW115836   6.141   6.652   0.001
37999SOL    HW215837   6.160   6.749   0.116
38000SOL     OW15838   9.555   5.876  14.307
38000SOL    HW115839   9.475   5.826  14.288
38000SOL    HW215840   9.577   5.853  14.397
38001SOL     OW15841  10.685   9.847  10.975
38001SOL    HW115842  10.678   9.904  10.898
38001SOL    HW215843  10.619   9.779  10.961
38002SOL     OW15844   9.025  10.661   1.387
38002SOL    HW115845   9.036  10.745   1.432
38002SOL    HW215846   9.011  10.598   1.458
38003SOL     OW15847   9.962  13.246  14.454
38003SOL    HW115848  10.050  13.266  14.422
38003SOL    HW215849   9.975  13.214  14.543
38004SOL     OW15850   6.928  11.200  14.686
38004SOL    HW115851   6.985  11.184  14.610
38004SOL    HW215852   6.920  11.114  14.728
38005SOL     OW15853   5.204   4.718   1.550
38005SOL    HW115854   5.207   4.790   1.487
38005SOL    HW215855   5.113   4.687   1.546
38006SOL     OW15856  11.896  11.859   2.204
38006SOL    HW115857  11.941  11.841   2.287
38006SOL    HW215858  11.806  11.830   2.219
38007SOL     OW15859   3.684   8.780   7.971
38007SOL    HW115860   3.616   8.815   8.028
38007SOL    HW215861   3.655   8.800   7.882
38008SOL     OW15862   1.201  12.674   4.082
38008SOL    HW115863   1.239  12.754   4.119
38008SOL    HW215864   1.164  12.628   4.157
38009SOL     OW15865   0.443   0.433  14.663
38009SOL    HW115866   0.461   0.444  14.756
38009SOL    HW215867   0.473   0.515  14.623
38010SOL     OW15868   5.455   4.959  13.867
38010SOL    HW115869   5.510   4.899  13.917
38010SOL    HW215870   5.449   5.037  13.922
38011SOL     OW15871  11.036  10.317   8.195
38011SOL    HW115872  11.042  10.284   8.106
38011SOL    HW215873  11.125  10.315   8.228
38012SOL     OW15874  14.743  13.026  13.750
38012SOL    HW115875  14.790  13.027  13.667
38012SOL    HW215876  14.705  12.938  13.755
38013SOL     OW15877  12.653   9.167   1.525
38013SOL    HW115878  12.749   9.163   1.524
38013SOL    HW215879  12.631   9.173   1.618
38014SOL     OW15880  10.000  13.852   9.569
38014SOL    HW115881   9.993  13.853   9.474
38014SOL    HW215882  10.022  13.761   9.590
38015SOL     OW15883  13.783  13.620  11.175
38015SOL    HW115884  13.705  13.671  11.196
38015SOL    HW215885  13.793  13.629  11.080
38016SOL     OW15886   0.067  11.886  11.805
38016SOL    HW115887   0.047  11.979  11.813
38016SOL    HW215888   0.051  11.851  11.893
38017SOL     OW15889  10.416   6.938   0.699
38017SOL    HW115890  10.332   6.964   0.738
38017SOL    HW215891  10.392   6.899   0.615
38018SOL     OW15892   0.670   1.396   6.155
38018SOL    HW115893   0.624   1.469   6.113
38018SOL    HW215894   0.741   1.438   6.204
38019SOL     OW15895   9.483   6.985  11.836
38019SOL    HW115896   9.462   6.965  11.745
38019SOL    HW215897   9.453   7.075  11.849
38020SOL     OW15898   7.025   9.203   0.742
38020SOL    HW115899   7.096   9.255   0.704
38020SOL    HW215900   7.066   9.156   0.814
38021SOL     OW15901   8.045   3.917   7.284
38021SOL    HW115902   8.104   3.842   7.298
38021SOL    HW215903   8.049   3.933   7.190
38022SOL     OW15904   7.415   1.922  10.521
38022SOL    HW115905   7.354   1.935  10.448
38022SOL    HW215906   7.418   1.827  10.532
38023SOL     OW15907  13.541   2.836  12.296
38023SOL    HW115908  13.523   2.865  12.206
38023SOL    HW215909  13.466   2.782  12.320
38024SOL     OW15910   4.061   6.403  14.782
38024SOL    HW115911   4.078   6.447  14.699
38024SOL    HW215912   4.145   6.366  14.807
38025SOL     OW15913  11.915  12.006   6.764
38025SOL    HW115914  11.838  12.057   6.739
38025SOL    HW215915  11.879  11.921   6.790
38026SOL     OW15916   5.474   9.985   5.843
38026SOL    HW115917   5.476   9.896   5.879
38026SOL    HW215918   5.382  10.002   5.825
38027SOL     OW15919   3.704  12.083   4.937
38027SOL    HW115920   3.609  12.071   4.940
38027SOL    HW215921   3.739  12.016   4.995
38028SOL     OW15922   0.135  14.023   2.019
38028SOL    HW115923   0.055  13.979   2.048
38028SOL    HW215924   0.124  14.031   1.924
38029SOL     OW15925  10.238   3.505  11.126
38029SOL    HW115926  10.211   3.593  11.150
38029SOL    HW215927  10.157   3.461  11.102
38030SOL     OW15928  12.790  13.686   7.495
38030SOL    HW115929  12.831  13.731   7.569
38030SOL    HW215930  12.770  13.598   7.529
38031SOL     OW15931   5.268  13.058   3.064
38031SOL    HW115932   5.309  13.068   3.150
38031SOL    HW215933   5.341  13.059   3.003
38032SOL     OW15934   1.462  12.056  10.319
38032SOL    HW115935   1.383  12.066  10.266
38032SOL    HW215936   1.487  11.965  10.306
38033SOL     OW15937   1.118  13.977  14.738
38033SOL    HW115938   1.207  14.000  14.711
38033SOL    HW215939   1.062  14.010  14.667
38034SOL     OW15940  12.828   5.792   4.713
38034SOL    HW115941  12.741   5.832   4.712
38034SOL    HW215942  12.847   5.776   4.620
38035SOL     OW15943   1.734   3.831   3.683
38035SOL    HW115944   1.738   3.909   3.738
38035SOL    HW215945   1.685   3.858   3.606
38036SOL     OW15946   3.008  14.656   6.527
38036SOL    HW115947   3.083  14.715   6.527
38036SOL    HW215948   2.971  14.662   6.615
38037SOL     OW15949   9.589   1.919  14.840
38037SOL    HW115950   9.531   1.858  14.794
38037SOL    HW215951   9.613   1.984  14.774
38038SOL     OW15952  13.415   1.169  10.032
38038SOL    HW115953  13.390   1.174   9.940
38038SOL    HW215954  13.451   1.255  10.053
38039SOL     OW15955  14.535   1.941   5.764
38039SOL    HW115956  14.484   2.003   5.815
38039SOL    HW215957  14.621   1.981   5.755
38040SOL     OW15958  13.639   7.749   1.735
38040SOL    HW115959  13.635   7.725   1.643
38040SOL    HW215960  13.598   7.835   1.740
38041SOL     OW15961  13.519   8.991  11.812
38041SOL    HW115962  13.572   9.037  11.747
38041SOL    HW215963  13.574   8.916  11.838
38042SOL     OW15964   5.804   0.145   2.413
38042SOL    HW115965   5.809   0.091   2.334
38042SOL    HW215966   5.788   0.234   2.380
38043SOL     OW15967   4.532   0.643   9.434
38043SOL    HW115968   4.562   0.630   9.523
38043SOL    HW215969   4.438   0.627   9.437
38044SOL     OW15970   4.929   8.011  10.841
38044SOL    HW115971   5.013   8.046  10.814
38044SOL    HW215972   4.878   8.006  10.760
38045SOL     OW15973   6.936   8.654   4.945
38045SOL    HW115974   7.012   8.708   4.962
38045SOL    HW215975   6.964   8.593   4.877
38046SOL     OW15976   7.686  11.026   1.035
38046SOL    HW115977   7.756  11.026   0.970
38046SOL    HW215978   7.692  10.941   1.077
38047SOL     OW15979   2.863   1.194  14.275
38047SOL    HW115980   2.903   1.232  14.353
38047SOL    HW215981   2.789   1.252  14.256
38048SOL     OW15982   8.764  10.780   3.003
38048SOL    HW115983   8.809  10.722   3.064
38048SOL    HW215984   8.691  10.815   3.054
38049SOL     OW15985  12.895  10.990   1.971
38049SOL    HW115986  12.937  10.942   1.900
38049SOL    HW215987  12.859  11.068   1.929
38050SOL     OW15988   2.720  13.942  14.566
38050SOL    HW115989   2.673  14.021  14.591
38050SOL    HW215990   2.811  13.970  14.557
38051SOL     OW15991  10.752  12.146   1.506
38051SOL    HW115992  10.825  12.127   1.447
38051SOL    HW215993  10.680  12.172   1.448
38052SOL     OW15994  10.704  11.719  12.054
38052SOL    HW115995  10.624  11.670  12.041
38052SOL    HW215996  10.739  11.732  11.965
38053SOL     OW15997   7.388   9.870   4.612
38053SOL    HW115998   7.298   9.901   4.624
38053SOL    HW215999   7.395   9.795   4.671
38054SOL     OW16000   5.039  13.896   3.260
38054SOL    HW116001   4.949  13.910   3.234
38054SOL    HW216002   5.050  13.950   3.339
38055SOL     OW16003  12.751  14.774  13.751
38055SOL    HW116004  12.750  14.681  13.727
38055SOL    HW216005  12.828  14.809  13.707
38056SOL     OW16006  14.222   0.106   6.554
38056SOL    HW116007  14.190   0.188   6.593
38056SOL    HW216008  14.219   0.043   6.626
38057SOL     OW16009   7.359  11.827   4.721
38057SOL    HW116010   7.305  11.825   4.642
38057SOL    HW216011   7.301  11.863   4.788
38058SOL     OW16012   9.500   4.231  12.468
38058SOL    HW116013   9.584   4.204  12.431
38058SOL    HW216014   9.506   4.327  12.474
38059SOL     OW16015   1.581   0.839   6.866
38059SOL    HW116016   1.548   0.902   6.930
38059SOL    HW216017   1.660   0.803   6.907
38060SOL     OW16018   4.983  12.848   3.233
38060SOL    HW116019   4.996  12.900   3.313
38060SOL    HW216020   5.069  12.808   3.217
38061SOL     OW16021   2.733  14.456   3.992
38061SOL    HW116022   2.807  14.396   3.991
38061SOL    HW216023   2.772  14.542   4.010
38062SOL     OW16024   8.735  14.491  12.007
38062SOL    HW116025   8.744  14.586  12.017
38062SOL    HW216026   8.780  14.471  11.925
38063SOL     OW16027   7.454   4.920   1.604
38063SOL    HW116028   7.410   4.871   1.534
38063SOL    HW216029   7.403   5.001   1.611
38064SOL     OW16030   9.603   7.345   2.644
38064SOL    HW116031   9.519   7.335   2.600
38064SOL    HW216032   9.642   7.257   2.642
38065SOL     OW16033   8.498  12.574   3.567
38065SOL    HW116034   8.409  12.542   3.553
38065SOL    HW216035   8.488  12.646   3.629
38066SOL     OW16036   9.700   2.521   8.795
38066SOL    HW116037   9.742   2.593   8.842
38066SOL    HW216038   9.771   2.460   8.776
38067SOL     OW16039   7.820   0.788   5.071
38067SOL    HW116040   7.832   0.864   5.014
38067SOL    HW216041   7.841   0.713   5.015
38068SOL     OW16042   2.677  11.290   6.267
38068SOL    HW116043   2.748  11.259   6.323
38068SOL    HW216044   2.683  11.386   6.271
38069SOL     OW16045   2.902   1.628   9.081
38069SOL    HW116046   2.834   1.611   9.017
38069SOL    HW216047   2.958   1.550   9.077
38070SOL     OW16048   1.797  12.579   4.388
38070SOL    HW116049   1.864  12.548   4.327
38070SOL    HW216050   1.820  12.671   4.404
38071SOL     OW16051   1.696   6.033   1.113
38071SOL    HW116052   1.658   6.087   1.182
38071SOL    HW216053   1.717   6.095   1.043
38072SOL     OW16054  13.940   5.083   5.881
38072SOL    HW116055  13.903   5.009   5.930
38072SOL    HW216056  13.968   5.145   5.948
38073SOL     OW16057   4.195  12.598   4.601
38073SOL    HW116058   4.234  12.521   4.644
38073SOL    HW216059   4.247  12.672   4.632
38074SOL     OW16060   7.893   9.938   7.027
38074SOL    HW116061   7.921   9.939   7.119
38074SOL    HW216062   7.838   9.859   7.020
38075SOL     OW16063   3.137   5.544   8.848
38075SOL    HW116064   3.224   5.574   8.820
38075SOL    HW216065   3.091   5.623   8.873
38076SOL     OW16066   6.378  11.483  12.040
38076SOL    HW116067   6.322  11.418  11.999
38076SOL    HW216068   6.428  11.435  12.106
38077SOL     OW16069  12.713   1.324   0.745
38077SOL    HW116070  12.723   1.333   0.840
38077SOL    HW216071  12.620   1.337   0.729
38078SOL     OW16072  10.179   0.559   1.492
38078SOL    HW116073  10.269   0.528   1.477
38078SOL    HW216074  10.132   0.482   1.523
38079SOL     OW16075   1.249  12.803  14.754
38079SOL    HW116076   1.251  12.724  14.808
38079SOL    HW216077   1.335  12.806  14.713
38080SOL     OW16078   6.429  14.765  10.434
38080SOL    HW116079   6.361  14.735  10.494
38080SOL    HW216080   6.394  14.848  10.399
38081SOL     OW16081  12.610   2.219   2.929
38081SOL    HW116082  12.604   2.308   2.892
38081SOL    HW216083  12.647   2.166   2.859
38082SOL     OW16084   2.002   9.916   9.617
38082SOL    HW116085   2.031   9.829   9.644
38082SOL    HW216086   1.968   9.956   9.697
38083SOL     OW16087  11.811  13.814   9.449
38083SOL    HW116088  11.730  13.831   9.401
38083SOL    HW216089  11.875  13.871   9.407
38084SOL     OW16090   3.707   8.640  10.856
38084SOL    HW116091   3.789   8.680  10.828
38084SOL    HW216092   3.695   8.565  10.798
38085SOL     OW16093   4.834   4.938   0.245
38085SOL    HW116094   4.881   4.950   0.163
38085SOL    HW216095   4.782   5.018   0.254
38086SOL     OW16096   8.263  13.821  11.048
38086SOL    HW116097   8.207  13.836  10.972
38086SOL    HW216098   8.202  13.812  11.122
38087SOL     OW16099  13.621  10.470   9.947
38087SOL    HW116100  13.584  10.511   9.869
38087SOL    HW216101  13.677  10.400   9.913
38088SOL     OW16102   2.667   5.418  12.897
38088SOL    HW116103   2.572   5.406  12.896
38088SOL    HW216104   2.688   5.441  12.988
38089SOL     OW16105   5.808  12.631  13.329
38089SOL    HW116106   5.734  12.629  13.389
38089SOL    HW216107   5.871  12.691  13.371
38090SOL     OW16108   6.372  13.013  11.366
38090SOL    HW116109   6.349  12.921  11.381
38090SOL    HW216110   6.458  13.010  11.323
38091SOL     OW16111   3.142   5.524   0.665
38091SOL    HW116112   3.229   5.501   0.633
38091SOL    HW216113   3.082   5.465   0.618
38092SOL     OW16114   8.543  14.119   0.370
38092SOL    HW116115   8.600  14.133   0.446
38092SOL    HW216116   8.507  14.032   0.383
38093SOL     OW16117   2.670   0.502  10.570
38093SOL    HW116118   2.695   0.527  10.659
38093SOL    HW216119   2.701   0.573  10.515
38094SOL     OW16120   9.355  13.742   7.599
38094SOL    HW116121   9.275  13.780   7.563
38094SOL    HW216122   9.330  13.653   7.625
38095SOL     OW16123   9.879   7.570  12.824
38095SOL    HW116124   9.845   7.618  12.749
38095SOL    HW216125   9.807   7.571  12.887
38096SOL     OW16126  13.417   4.477   0.406
38096SOL    HW116127  13.424   4.555   0.351
38096SOL    HW216128  13.504   4.466   0.444
38097SOL     OW16129   3.526  13.259   6.802
38097SOL    HW116130   3.619  13.271   6.782
38097SOL    HW216131   3.517  13.164   6.813
38098SOL     OW16132  14.609   2.839   4.829
38098SOL    HW116133  14.600   2.932   4.848
38098SOL    HW216134  14.588   2.832   4.736
38099SOL     OW16135   2.899   1.831   6.440
38099SOL    HW116136   2.880   1.920   6.410
38099SOL    HW216137   2.827   1.778   6.407
38100SOL     OW16138  10.883   6.337   1.980
38100SOL    HW116139  10.824   6.264   1.964
38100SOL    HW216140  10.831   6.401   2.029
38101SOL     OW16141  14.559   9.217   6.833
38101SOL    HW116142  14.635   9.200   6.777
38101SOL    HW216143  14.489   9.163   6.796
38102SOL     OW16144  11.519  10.804   8.819
38102SOL    HW116145  11.551  10.831   8.733
38102SOL    HW216146  11.590  10.828   8.879
38103SOL     OW16147  14.356   6.441  11.571
38103SOL    HW116148  14.391   6.496  11.501
38103SOL    HW216149  14.338   6.502  11.643
38104SOL     OW16150   9.486   3.629   9.233
38104SOL    HW116151   9.470   3.709   9.283
38104SOL    HW216152   9.579   3.611   9.245
38105SOL     OW16153  13.646  12.462   5.265
38105SOL    HW116154  13.710  12.391   5.260
38105SOL    HW216155  13.616  12.461   5.356
38106SOL     OW16156   4.730   1.956   5.009
38106SOL    HW116157   4.704   1.908   4.931
38106SOL    HW216158   4.820   1.984   4.991
38107SOL     OW16159   9.452   5.380   3.276
38107SOL    HW116160   9.427   5.334   3.196
38107SOL    HW216161   9.389   5.452   3.283
38108SOL     OW16162   2.956   0.537   7.030
38108SOL    HW116163   2.998   0.564   7.111
38108SOL    HW216164   3.022   0.555   6.962
38109SOL     OW16165   3.438  14.478  12.230
38109SOL    HW116166   3.412  14.557  12.183
38109SOL    HW216167   3.357  14.444  12.269
38110SOL     OW16168  10.531   5.597  11.943
38110SOL    HW116169  10.609   5.639  11.906
38110SOL    HW216170  10.562   5.554  12.022
38111SOL     OW16171   7.497   2.995   6.715
38111SOL    HW116172   7.462   3.031   6.796
38111SOL    HW216173   7.465   3.053   6.647
38112SOL     OW16174   8.167   4.449  12.797
38112SOL    HW116175   8.179   4.398  12.878
38112SOL    HW216176   8.074   4.442  12.778
38113SOL     OW16177   3.492  14.747  14.394
38113SOL    HW116178   3.464  14.664  14.433
38113SOL    HW216179   3.495  14.730  14.300
38114SOL     OW16180   6.622   4.576  10.533
38114SOL    HW116181   6.639   4.500  10.589
38114SOL    HW216182   6.541   4.555  10.487
38115SOL     OW16183   1.928  13.232   2.469
38115SOL    HW116184   1.869  13.194   2.533
38115SOL    HW216185   1.954  13.316   2.507
38116SOL     OW16186   0.555   0.152   6.778
38116SOL    HW116187   0.553   0.247   6.765
38116SOL    HW216188   0.485   0.118   6.722
38117SOL     OW16189   4.340   1.577   3.443
38117SOL    HW116190   4.420   1.542   3.403
38117SOL    HW216191   4.372   1.642   3.506
38118SOL     OW16192   7.492   6.987   0.951
38118SOL    HW116193   7.545   7.049   1.001
38118SOL    HW216194   7.448   7.041   0.885
38119SOL     OW16195   8.763  13.554   5.304
38119SOL    HW116196   8.847  13.508   5.311
38119SOL    HW216197   8.729  13.555   5.394
38120SOL     OW16198   0.949  13.429  12.129
38120SOL    HW116199   0.987  13.349  12.164
38120SOL    HW216200   1.025  13.481  12.101
38121SOL     OW16201   1.265  13.423  10.647
38121SOL    HW116202   1.194  13.394  10.705
38121SOL    HW216203   1.232  13.504  10.607
38122SOL     OW16204   2.424  10.221  13.553
38122SOL    HW116205   2.381  10.253  13.632
38122SOL    HW216206   2.514  10.201  13.582
38123SOL     OW16207   0.579  11.707  10.611
38123SOL    HW116208   0.586  11.775  10.545
38123SOL    HW216209   0.614  11.747  10.691
38124SOL     OW16210   5.730  12.928   6.672
38124SOL    HW116211   5.695  12.956   6.587
38124SOL    HW216212   5.777  13.004   6.705
38125SOL     OW16213  14.448  10.923   6.530
38125SOL    HW116214  14.529  10.882   6.499
38125SOL    HW216215  14.456  11.015   6.506
38126SOL     OW16216   7.443  10.715   3.343
38126SOL    HW116217   7.413  10.730   3.253
38126SOL    HW216218   7.522  10.769   3.351
38127SOL     OW16219   3.369   4.933   5.663
38127SOL    HW116220   3.384   5.019   5.622
38127SOL    HW216221   3.278   4.938   5.693
38128SOL     OW16222   1.686   6.930   3.580
38128SOL    HW116223   1.764   6.875   3.574
38128SOL    HW216224   1.630   6.900   3.509
38129SOL     OW16225   2.463  13.400  10.663
38129SOL    HW116226   2.535  13.415  10.602
38129SOL    HW216227   2.399  13.469  10.642
38130SOL     OW16228   1.551   8.733   2.504
38130SOL    HW116229   1.564   8.767   2.415
38130SOL    HW216230   1.459   8.753   2.524
38131SOL     OW16231   8.121   5.739   0.754
38131SOL    HW116232   8.093   5.790   0.831
38131SOL    HW216233   8.207   5.775   0.731
38132SOL     OW16234   0.564  12.435   5.058
38132SOL    HW116235   0.559  12.340   5.072
38132SOL    HW216236   0.483  12.469   5.096
38133SOL     OW16237   8.683  11.624   2.362
38133SOL    HW116238   8.689  11.659   2.273
38133SOL    HW216239   8.737  11.684   2.414
38134SOL     OW16240  14.286   3.809   6.895
38134SOL    HW116241  14.207   3.789   6.946
38134SOL    HW216242  14.358   3.794   6.956
38135SOL     OW16243  14.581   4.595   7.453
38135SOL    HW116244  14.659   4.585   7.506
38135SOL    HW216245  14.542   4.677   7.482
38136SOL     OW16246  14.527   4.114  10.664
38136SOL    HW116247  14.436   4.102  10.640
38136SOL    HW216248  14.544   4.208  10.649
38137SOL     OW16249   3.376   8.560   7.573
38137SOL    HW116250   3.392   8.471   7.541
38137SOL    HW216251   3.459   8.586   7.614
38138SOL     OW16252  11.215   4.427   9.550
38138SOL    HW116253  11.243   4.339   9.524
38138SOL    HW216254  11.248   4.485   9.481
38139SOL     OW16255   2.273  10.361  13.051
38139SOL    HW116256   2.259  10.276  13.008
38139SOL    HW216257   2.291  10.338  13.143
38140SOL     OW16258  10.257  14.393   5.379
38140SOL    HW116259  10.307  14.468   5.413
38140SOL    HW216260  10.308  14.363   5.304
38141SOL     OW16261  10.416   3.288   7.384
38141SOL    HW116262  10.499   3.247   7.406
38141SOL    HW216263  10.353   3.247   7.444
38142SOL     OW16264   1.130   9.674   0.686
38142SOL    HW116265   1.174   9.759   0.696
38142SOL    HW216266   1.059   9.676   0.750
38143SOL     OW16267  13.213   5.211   8.621
38143SOL    HW116268  13.252   5.248   8.542
38143SOL    HW216269  13.142   5.272   8.644
38144SOL     OW16270   3.656  13.161  10.214
38144SOL    HW116271   3.706  13.104  10.271
38144SOL    HW216272   3.683  13.250  10.236
38145SOL     OW16273   8.253  13.392  12.758
38145SOL    HW116274   8.307  13.471  12.748
38145SOL    HW216275   8.216  13.378  12.670
38146SOL     OW16276   7.219   6.254   4.516
38146SOL    HW116277   7.289   6.210   4.468
38146SOL    HW216278   7.208   6.338   4.471
38147SOL     OW16279   7.294  12.710   8.078
38147SOL    HW116280   7.215  12.696   8.027
38147SOL    HW216281   7.263  12.737   8.164
38148SOL     OW16282   9.991  10.228   8.567
38148SOL    HW116283   9.952  10.312   8.594
38148SOL    HW216284   9.964  10.166   8.635
38149SOL     OW16285  11.727  10.734   5.959
38149SOL    HW116286  11.734  10.824   5.993
38149SOL    HW216287  11.651  10.736   5.901
38150SOL     OW16288   8.766   2.662   9.634
38150SOL    HW116289   8.794   2.719   9.563
38150SOL    HW216290   8.846   2.643   9.683
38151SOL     OW16291   2.823   3.920   2.098
38151SOL    HW116292   2.756   3.863   2.134
38151SOL    HW216293   2.782   3.958   2.020
38152SOL     OW16294   5.315   7.827   0.117
38152SOL    HW116295   5.347   7.737   0.125
38152SOL    HW216296   5.390   7.881   0.141
38153SOL     OW16297  13.085   1.692   7.558
38153SOL    HW116298  13.012   1.686   7.496
38153SOL    HW216299  13.148   1.750   7.515
38154SOL     OW16300  13.158   2.207  13.764
38154SOL    HW116301  13.217   2.277  13.736
38154SOL    HW216302  13.074   2.251  13.779
38155SOL     OW16303   4.469  10.152   3.164
38155SOL    HW116304   4.532  10.223   3.166
38155SOL    HW216305   4.479  10.109   3.249
38156SOL     OW16306  14.006   5.922   8.831
38156SOL    HW116307  13.978   5.864   8.760
38156SOL    HW216308  14.043   5.999   8.786
38157SOL     OW16309   6.055  14.372  13.631
38157SOL    HW116310   6.147  14.375  13.657
38157SOL    HW216311   6.041  14.452  13.581
38158SOL     OW16312   6.400   0.674  11.321
38158SOL    HW116313   6.473   0.683  11.259
38158SOL    HW216314   6.322   0.693  11.268
38159SOL     OW16315   0.616  12.704   7.013
38159SOL    HW116316   0.593  12.674   6.925
38159SOL    HW216317   0.555  12.775   7.032
38160SOL     OW16318  12.194  14.797   3.379
38160SOL    HW116319  12.113  14.821   3.333
38160SOL    HW216320  12.192  14.702   3.383
38161SOL     OW16321   2.644  11.910   3.564
38161SOL    HW116322   2.574  11.907   3.629
38161SOL    HW216323   2.695  11.830   3.580
38162SOL     OW16324   5.124   8.125   2.717
38162SOL    HW116325   5.076   8.194   2.671
38162SOL    HW216326   5.212   8.160   2.729
38163SOL     OW16327  11.153   4.152   5.306
38163SOL    HW116328  11.246   4.175   5.311
38163SOL    HW216329  11.145   4.097   5.228
38164SOL     OW16330   2.722   5.425  14.269
38164SOL    HW116331   2.790   5.489  14.292
38164SOL    HW216332   2.762   5.340  14.289
38165SOL     OW16333  11.794   6.087  11.386
38165SOL    HW116334  11.882   6.072  11.422
38165SOL    HW216335  11.763   5.999  11.364
38166SOL     OW16336  13.830   5.447   0.749
38166SOL    HW116337  13.755   5.427   0.694
38166SOL    HW216338  13.849   5.365   0.795
38167SOL     OW16339   4.258   8.251   3.950
38167SOL    HW116340   4.224   8.308   4.018
38167SOL    HW216341   4.212   8.168   3.962
38168SOL     OW16342  13.528   1.090   6.843
38168SOL    HW116343  13.465   1.153   6.808
38168SOL    HW216344  13.478   1.009   6.854
38169SOL     OW16345   1.089   6.193   0.105
38169SOL    HW116346   1.063   6.283   0.122
38169SOL    HW216347   1.063   6.145   0.184
38170SOL     OW16348  10.346   7.652   7.848
38170SOL    HW116349  10.404   7.595   7.797
38170SOL    HW216350  10.352   7.737   7.804
38171SOL     OW16351  14.347  10.314  11.328
38171SOL    HW116352  14.327  10.224  11.350
38171SOL    HW216353  14.264  10.350  11.294
38172SOL     OW16354   8.220   4.743  13.842
38172SOL    HW116355   8.281   4.712  13.909
38172SOL    HW216356   8.213   4.837  13.858
38173SOL     OW16357   9.660  11.572   3.150
38173SOL    HW116358   9.713  11.637   3.103
38173SOL    HW216359   9.602  11.625   3.206
38174SOL     OW16360   8.330   4.476   8.305
38174SOL    HW116361   8.308   4.564   8.337
38174SOL    HW216362   8.248   4.427   8.311
38175SOL     OW16363  12.496  14.580   0.493
38175SOL    HW116364  12.499  14.625   0.409
38175SOL    HW216365  12.411  14.604   0.530
38176SOL     OW16366   3.498  11.717   4.491
38176SOL    HW116367   3.476  11.720   4.398
38176SOL    HW216368   3.553  11.640   4.500
38177SOL     OW16369   7.623  10.562  12.310
38177SOL    HW116370   7.573  10.565  12.229
38177SOL    HW216371   7.704  10.516  12.287
38178SOL     OW16372   7.868   8.305   2.183
38178SOL    HW116373   7.831   8.288   2.269
38178SOL    HW216374   7.881   8.400   2.180
38179SOL     OW16375   4.578   7.125   9.552
38179SOL    HW116376   4.505   7.128   9.490
38179SOL    HW216377   4.647   7.078   9.506
38180SOL     OW16378   9.673   2.931   3.942
38180SOL    HW116379   9.635   2.931   4.030
38180SOL    HW216380   9.696   3.023   3.926
38181SOL     OW16381   4.351   0.812   5.346
38181SOL    HW116382   4.377   0.841   5.433
38181SOL    HW216383   4.264   0.849   5.333
38182SOL     OW16384   2.764   2.075  11.287
38182SOL    HW116385   2.843   2.038  11.327
38182SOL    HW216386   2.743   2.151  11.341
38183SOL     OW16387   5.814  10.997   3.138
38183SOL    HW116388   5.778  11.044   3.213
38183SOL    HW216389   5.811  11.060   3.066
38184SOL     OW16390   0.774  10.214  14.456
38184SOL    HW116391   0.810  10.126  14.453
38184SOL    HW216392   0.740  10.229  14.368
38185SOL     OW16393   6.594  12.175   9.154
38185SOL    HW116394   6.600  12.208   9.064
38185SOL    HW216395   6.501  12.172   9.173
38186SOL     OW16396   4.356   2.517   5.607
38186SOL    HW116397   4.362   2.575   5.683
38186SOL    HW216398   4.265   2.526   5.578
38187SOL     OW16399  11.487   0.066   6.459
38187SOL    HW116400  11.513   0.041   6.548
38187SOL    HW216401  11.482  14.857   6.412
38188SOL     OW16402   3.071   8.464   5.873
38188SOL    HW116403   2.983   8.475   5.837
38188SOL    HW216404   3.069   8.377   5.913
38189SOL     OW16405   1.315  13.207  10.286
38189SOL    HW116406   1.357  13.292  10.281
38189SOL    HW216407   1.360  13.162  10.357
38190SOL     OW16408   8.189   8.033  13.984
38190SOL    HW116409   8.213   8.087  14.060
38190SOL    HW216410   8.154   8.095  13.921
38191SOL     OW16411   1.803   5.948   9.031
38191SOL    HW116412   1.871   6.014   9.041
38191SOL    HW216413   1.721   5.997   9.031
38192SOL     OW16414  13.372   2.713   6.653
38192SOL    HW116415  13.448   2.714   6.711
38192SOL    HW216416  13.297   2.724   6.711
38193SOL     OW16417   0.743  10.720  13.363
38193SOL    HW116418   0.713  10.808  13.340
38193SOL    HW216419   0.838  10.729  13.372
38194SOL     OW16420   9.899   2.233   6.572
38194SOL    HW116421   9.869   2.184   6.496
38194SOL    HW216422   9.951   2.305   6.536
38195SOL     OW16423   2.220   5.589  10.449
38195SOL    HW116424   2.144   5.637  10.417
38195SOL    HW216425   2.291   5.615  10.390
38196SOL     OW16426  13.978  10.284   2.846
38196SOL    HW116427  13.976  10.336   2.926
38196SOL    HW216428  13.888  10.255   2.834
38197SOL     OW16429  12.791   7.187   3.987
38197SOL    HW116430  12.843   7.207   4.064
38197SOL    HW216431  12.700   7.188   4.018
38198SOL     OW16432   1.226   7.889  10.799
38198SOL    HW116433   1.182   7.809  10.769
38198SOL    HW216434   1.276   7.861  10.876
38199SOL     OW16435  12.726   9.233   0.928
38199SOL    HW116436  12.659   9.246   0.861
38199SOL    HW216437  12.678   9.197   1.003
38200SOL     OW16438   2.423   6.804  10.556
38200SOL    HW116439   2.454   6.730  10.607
38200SOL    HW216440   2.377   6.859  10.620
38201SOL     OW16441   6.340   9.844  13.221
38201SOL    HW116442   6.434   9.829  13.233
38201SOL    HW216443   6.315   9.786  13.149
38202SOL     OW16444   0.949  13.338  11.077
38202SOL    HW116445   0.925  13.412  11.021
38202SOL    HW216446   1.025  13.369  11.126
38203SOL     OW16447   6.269  12.945   1.763
38203SOL    HW116448   6.359  12.954   1.793
38203SOL    HW216449   6.271  12.872   1.701
38204SOL     OW16450   4.036  12.902  12.710
38204SOL    HW116451   3.988  12.820  12.697
38204SOL    HW216452   3.969  12.965  12.738
38205SOL     OW16453   6.669   7.079  14.133
38205SOL    HW116454   6.632   7.112  14.052
38205SOL    HW216455   6.762   7.101  14.127
38206SOL     OW16456   7.965   4.819  10.753
38206SOL    HW116457   7.930   4.853  10.671
38206SOL    HW216458   8.060   4.825  10.744
38207SOL     OW16459  11.918  11.038   2.569
38207SOL    HW116460  11.843  11.032   2.510
38207SOL    HW216461  11.885  11.006   2.654
38208SOL     OW16462  10.888  13.925  13.940
38208SOL    HW116463  10.966  13.877  13.914
38208SOL    HW216464  10.832  13.923  13.862
38209SOL     OW16465  13.855   8.817   4.280
38209SOL    HW116466  13.876   8.836   4.188
38209SOL    HW216467  13.763   8.842   4.288
38210SOL     OW16468  14.493   4.925   6.955
38210SOL    HW116469  14.501   5.020   6.963
38210SOL    HW216470  14.410   4.911   6.911
38211SOL     OW16471  13.080  12.324   0.276
38211SOL    HW116472  13.062  12.263   0.347
38211SOL    HW216473  13.175  12.338   0.279
38212SOL     OW16474  14.436  10.598   6.279
38212SOL    HW116475  14.352  10.630   6.246
38212SOL    HW216476  14.431  10.612   6.373
38213SOL     OW16477  13.323  13.360  11.487
38213SOL    HW116478  13.256  13.318  11.432
38213SOL    HW216479  13.330  13.448  11.452
38214SOL     OW16480   4.247   6.320  13.675
38214SOL    HW116481   4.326   6.359  13.711
38214SOL    HW216482   4.209   6.270  13.747
38215SOL     OW16483   6.034   2.212   6.911
38215SOL    HW116484   6.034   2.219   6.816
38215SOL    HW216485   6.045   2.118   6.928
38216SOL     OW16486   9.636   8.316   5.882
38216SOL    HW116487   9.720   8.297   5.840
38216SOL    HW216488   9.607   8.397   5.841
38217SOL     OW16489   9.591  12.831   3.226
38217SOL    HW116490   9.536  12.815   3.149
38217SOL    HW216491   9.545  12.899   3.275
38218SOL     OW16492   6.291   3.381   7.466
38218SOL    HW116493   6.228   3.318   7.429
38218SOL    HW216494   6.329   3.425   7.390
38219SOL     OW16495   9.781  13.277   1.464
38219SOL    HW116496   9.740  13.294   1.549
38219SOL    HW216497   9.802  13.183   1.467
38220SOL     OW16498   3.194   7.789   6.158
38220SOL    HW116499   3.275   7.837   6.141
38220SOL    HW216500   3.218   7.723   6.222
38221SOL     OW16501  11.663   9.954  12.500
38221SOL    HW116502  11.633   9.930  12.588
38221SOL    HW216503  11.644  10.048  12.494
38222SOL     OW16504   9.410   6.428   9.265
38222SOL    HW116505   9.328   6.457   9.306
38222SOL    HW216506   9.425   6.490   9.194
38223SOL     OW16507   9.354  14.089   1.302
38223SOL    HW116508   9.400  14.091   1.218
38223SOL    HW216509   9.403  14.150   1.357
38224SOL     OW16510  12.399  11.391  10.267
38224SOL    HW116511  12.482  11.344  10.262
38224SOL    HW216512  12.334  11.328  10.235
38225SOL     OW16513   4.373   3.656   7.823
38225SOL    HW116514   4.301   3.644   7.885
38225SOL    HW216515   4.445   3.605   7.859
38226SOL     OW16516  11.962  14.777  12.178
38226SOL    HW116517  11.893  14.712  12.184
38226SOL    HW216518  12.000  14.764  12.091
38227SOL     OW16519   4.032   9.177  11.225
38227SOL    HW116520   4.118   9.217  11.241
38227SOL    HW216521   3.991   9.177  11.311
38228SOL     OW16522  13.463  11.720   7.996
38228SOL    HW116523  13.435  11.797   8.046
38228SOL    HW216524  13.531  11.680   8.050
38229SOL     OW16525   4.211  12.714   1.719
38229SOL    HW116526   4.123  12.697   1.752
38229SOL    HW216527   4.220  12.809   1.722
38230SOL     OW16528   5.439  12.284   5.219
38230SOL    HW116529   5.523  12.326   5.206
38230SOL    HW216530   5.436  12.213   5.154
38231SOL     OW16531  14.051   3.742  14.236
38231SOL    HW116532  14.139   3.765  14.266
38231SOL    HW216533  14.001   3.823  14.242
38232SOL     OW16534   4.928   8.818   2.869
38232SOL    HW116535   4.989   8.870   2.922
38232SOL    HW216536   4.850   8.873   2.860
38233SOL     OW16537   5.632   2.162   5.022
38233SOL    HW116538   5.712   2.165   5.074
38233SOL    HW216539   5.651   2.217   4.946
38234SOL     OW16540   0.934   5.529   5.546
38234SOL    HW116541   0.874   5.571   5.609
38234SOL    HW216542   1.019   5.569   5.563
38235SOL     OW16543   2.846   2.719   4.580
38235SOL    HW116544   2.909   2.789   4.559
38235SOL    HW216545   2.765   2.747   4.538
38236SOL     OW16546   5.217   7.015  10.624
38236SOL    HW116547   5.276   7.090  10.625
38236SOL    HW216548   5.156   7.031  10.696
38237SOL     OW16549  11.362  10.037   2.065
38237SOL    HW116550  11.274  10.065   2.040
38237SOL    HW216551  11.383  10.090   2.142
38238SOL     OW16552   6.591   4.673  12.173
38238SOL    HW116553   6.537   4.715  12.105
38238SOL    HW216554   6.533   4.668  12.249
38239SOL     OW16555   5.492   1.525   1.475
38239SOL    HW116556   5.535   1.537   1.391
38239SOL    HW216557   5.403   1.557   1.461
38240SOL     OW16558   7.952  14.760   2.579
38240SOL    HW116559   7.929  14.757   2.486
38240SOL    HW216560   7.910  14.840   2.610
38241SOL     OW16561   9.920  11.242   1.659
38241SOL    HW116562   9.896  11.256   1.751
38241SOL    HW216563   9.987  11.174   1.662
38242SOL     OW16564   8.908   3.924   6.969
38242SOL    HW116565   8.948   3.839   6.952
38242SOL    HW216566   8.936   3.980   6.897
38243SOL     OW16567   4.033   3.787  13.021
38243SOL    HW116568   3.975   3.712  13.008
38243SOL    HW216569   4.111   3.766  12.969
38244SOL     OW16570   9.488  14.449   5.651
38244SOL    HW116571   9.561  14.427   5.709
38244SOL    HW216572   9.473  14.369   5.601
38245SOL     OW16573  11.159   4.148   0.941
38245SOL    HW116574  11.212   4.157   1.020
38245SOL    HW216575  11.069   4.164   0.971
38246SOL     OW16576   8.396   4.253   5.882
38246SOL    HW116577   8.373   4.320   5.945
38246SOL    HW216578   8.315   4.236   5.834
38247SOL     OW16579   6.682   3.931   3.083
38247SOL    HW116580   6.611   3.868   3.072
38247SOL    HW216581   6.641   4.016   3.073
38248SOL     OW16582   2.754  13.150   5.172
38248SOL    HW116583   2.809  13.076   5.196
38248SOL    HW216584   2.687  13.153   5.240
38249SOL     OW16585  10.275   6.610  14.447
38249SOL    HW116586  10.230   6.538  14.403
38249SOL    HW216587  10.364   6.578  14.461
38250SOL     OW16588  10.266   5.236   3.287
38250SOL    HW116589  10.199   5.302   3.269
38250SOL    HW216590  10.221   5.152   3.274
38251SOL     OW16591   2.840   4.301   2.957
38251SOL    HW116592   2.755   4.259   2.967
38251SOL    HW216593   2.866   4.281   2.867
38252SOL     OW16594   4.541   1.728   9.999
38252SOL    HW116595   4.596   1.797   9.961
38252SOL    HW216596   4.597   1.651  10.001
38253SOL     OW16597   9.557  12.614  12.763
38253SOL    HW116598   9.490  12.547  12.749
38253SOL    HW216599   9.617  12.603  12.689
38254SOL     OW16600   8.071   3.478   3.873
38254SOL    HW116601   7.994   3.491   3.928
38254SOL    HW216602   8.120   3.408   3.917
38255SOL     OW16603  13.077   5.887   7.216
38255SOL    HW116604  13.012   5.818   7.231
38255SOL    HW216605  13.034   5.967   7.247
38256SOL     OW16606   9.675   2.525   8.407
38256SOL    HW116607   9.640   2.447   8.449
38256SOL    HW216608   9.618   2.596   8.436
38257SOL     OW16609   2.475  10.949  11.297
38257SOL    HW116610   2.506  11.026  11.248
38257SOL    HW216611   2.401  10.916  11.245
38258SOL     OW16612   2.050   3.885   1.446
38258SOL    HW116613   2.000   3.966   1.462
38258SOL    HW216614   2.023   3.858   1.358
38259SOL     OW16615  12.365   4.799   8.949
38259SOL    HW116616  12.359   4.704   8.945
38259SOL    HW216617  12.389   4.826   8.861
38260SOL     OW16618   2.800   8.387   3.875
38260SOL    HW116619   2.710   8.366   3.848
38260SOL    HW216620   2.832   8.307   3.914
38261SOL     OW16621   2.687   1.127   9.598
38261SOL    HW116622   2.612   1.141   9.540
38261SOL    HW216623   2.654   1.146   9.686
38262SOL     OW16624   2.014  11.064  14.044
38262SOL    HW116625   2.014  10.998  14.113
38262SOL    HW216626   2.071  11.134  14.079
38263SOL     OW16627   8.119   6.027  14.186
38263SOL    HW116628   8.206   6.051  14.154
38263SOL    HW216629   8.126   5.934  14.206
38264SOL     OW16630   8.162  13.013   6.916
38264SOL    HW116631   8.121  13.076   6.975
38264SOL    HW216632   8.169  12.932   6.968
38265SOL     OW16633   5.618  10.038  13.849
38265SOL    HW116634   5.681  10.046  13.777
38265SOL    HW216635   5.548  10.099  13.826
38266SOL     OW16636   5.290   8.882   5.200
38266SOL    HW116637   5.249   8.799   5.177
38266SOL    HW216638   5.384   8.867   5.188
38267SOL     OW16639  12.074   5.726   2.527
38267SOL    HW116640  12.087   5.807   2.576
38267SOL    HW216641  12.155   5.715   2.478
38268SOL     OW16642  11.455   6.855  10.067
38268SOL    HW116643  11.500   6.862   9.983
38268SOL    HW216644  11.370   6.817  10.045
38269SOL     OW16645   2.655   8.824  11.834
38269SOL    HW116646   2.571   8.780  11.824
38269SOL    HW216647   2.693   8.787  11.914
38270SOL     OW16648  13.881   2.291   3.111
38270SOL    HW116649  13.929   2.331   3.038
38270SOL    HW216650  13.869   2.200   3.084
38271SOL     OW16651   3.431   4.445   4.698
38271SOL    HW116652   3.339   4.422   4.712
38271SOL    HW216653   3.428   4.532   4.659
38272SOL     OW16654  10.052  11.049  12.726
38272SOL    HW116655   9.990  10.986  12.690
38272SOL    HW216656  10.024  11.133  12.691
38273SOL     OW16657  13.243  14.621   3.931
38273SOL    HW116658  13.224  14.681   4.003
38273SOL    HW216659  13.163  14.569   3.922
38274SOL     OW16660   1.611  12.966   0.694
38274SOL    HW116661   1.644  12.929   0.776
38274SOL    HW216662   1.640  12.905   0.626
38275SOL     OW16663   1.304  12.678  13.170
38275SOL    HW116664   1.251  12.603  13.141
38275SOL    HW216665   1.247  12.753  13.156
38276SOL     OW16666   5.204   3.680   0.237
38276SOL    HW116667   5.140   3.706   0.170
38276SOL    HW216668   5.287   3.672   0.189
38277SOL     OW16669   0.825  11.536   6.490
38277SOL    HW116670   0.863  11.518   6.576
38277SOL    HW216671   0.742  11.489   6.490
38278SOL     OW16672   7.848   8.389   3.904
38278SOL    HW116673   7.943   8.396   3.896
38278SOL    HW216674   7.834   8.307   3.951
38279SOL     OW16675  12.405   6.606   9.854
38279SOL    HW116676  12.469   6.676   9.847
38279SOL    HW216677  12.348   6.618   9.778
38280SOL     OW16678  11.258   4.186   1.192
38280SOL    HW116679  11.198   4.149   1.257
38280SOL    HW216680  11.281   4.272   1.227
38281SOL     OW16681   3.094   7.868  10.843
38281SOL    HW116682   3.186   7.842  10.841
38281SOL    HW216683   3.047   7.789  10.871
38282SOL     OW16684   2.569   1.245  10.116
38282SOL    HW116685   2.645   1.303  10.120
38282SOL    HW216686   2.606   1.160  10.088
38283SOL     OW16687  12.607   0.687   3.074
38283SOL    HW116688  12.652   0.758   3.119
38283SOL    HW216689  12.518   0.690   3.107
38284SOL     OW16690   5.144   5.437  13.850
38284SOL    HW116691   5.211   5.506  13.842
38284SOL    HW216692   5.106   5.431  13.762
38285SOL     OW16693  12.697  10.129   3.419
38285SOL    HW116694  12.660  10.152   3.334
38285SOL    HW216695  12.731  10.041   3.408
38286SOL     OW16696   9.226   8.501   4.495
38286SOL    HW116697   9.217   8.596   4.492
38286SOL    HW216698   9.140   8.468   4.469
38287SOL     OW16699   1.335   7.673  12.785
38287SOL    HW116700   1.353   7.767  12.792
38287SOL    HW216701   1.339   7.655  12.691
38288SOL     OW16702  13.056   2.965   6.532
38288SOL    HW116703  13.134   2.996   6.486
38288SOL    HW216704  12.989   2.961   6.464
38289SOL     OW16705  10.824   7.737   2.731
38289SOL    HW116706  10.774   7.691   2.663
38289SOL    HW216707  10.843   7.670   2.796
38290SOL     OW16708  10.298   4.144   7.325
38290SOL    HW116709  10.276   4.053   7.307
38290SOL    HW216710  10.344   4.174   7.246
38291SOL     OW16711  12.027   7.948   8.758
38291SOL    HW116712  11.942   7.987   8.743
38291SOL    HW216713  12.086   8.022   8.774
38292SOL     OW16714   1.188  10.798  14.198
38292SOL    HW116715   1.184  10.703  14.214
38292SOL    HW216716   1.111  10.833  14.242
38293SOL     OW16717   4.335   0.072   5.461
38293SOL    HW116718   4.381   0.102   5.383
38293SOL    HW216719   4.257   0.126   5.466
38294SOL     OW16720   4.906  13.995  13.660
38294SOL    HW116721   4.837  13.990  13.594
38294SOL    HW216722   4.893  14.080  13.702
38295SOL     OW16723  14.747  13.836  10.903
38295SOL    HW116724  14.669  13.826  10.848
38295SOL    HW216725  14.777  13.746  10.918
38296SOL     OW16726  13.776   1.034   9.197
38296SOL    HW116727  13.779   1.068   9.286
38296SOL    HW216728  13.707   1.084   9.154
38297SOL     OW16729   7.205   9.241   7.694
38297SOL    HW116730   7.193   9.176   7.763
38297SOL    HW216731   7.189   9.193   7.613
38298SOL     OW16732  11.287   6.750   2.083
38298SOL    HW116733  11.246   6.668   2.110
38298SOL    HW216734  11.374   6.725   2.053
38299SOL     OW16735   7.733   6.989   6.543
38299SOL    HW116736   7.776   6.932   6.480
38299SOL    HW216737   7.765   7.077   6.523
38300SOL     OW16738  10.602   2.353   3.757
38300SOL    HW116739  10.674   2.413   3.776
38300SOL    HW216740  10.609   2.285   3.824
38301SOL     OW16741  10.580   4.942  10.956
38301SOL    HW116742  10.554   4.890  10.880
38301SOL    HW216743  10.575   4.881  11.030
38302SOL     OW16744   7.645   7.901  13.433
38302SOL    HW116745   7.641   7.864  13.344
38302SOL    HW216746   7.675   7.828  13.488
38303SOL     OW16747  10.698   7.545   6.920
38303SOL    HW116748  10.662   7.478   6.978
38303SOL    HW216749  10.679   7.513   6.831
38304SOL     OW16750   0.355   6.199   4.947
38304SOL    HW116751   0.355   6.174   5.040
38304SOL    HW216752   0.282   6.151   4.909
38305SOL     OW16753   4.926  13.449   9.673
38305SOL    HW116754   4.919  13.471   9.581
38305SOL    HW216755   4.904  13.530   9.720
38306SOL     OW16756   8.856   6.395  11.458
38306SOL    HW116757   8.885   6.464  11.518
38306SOL    HW216758   8.829   6.324  11.515
38307SOL     OW16759   1.480  11.005  14.774
38307SOL    HW116760   1.518  10.954  14.845
38307SOL    HW216761   1.395  11.035  14.808
38308SOL     OW16762   1.434   2.132   7.173
38308SOL    HW116763   1.496   2.203   7.162
38308SOL    HW216764   1.479   2.055   7.140
38309SOL     OW16765  12.879   7.712   7.907
38309SOL    HW116766  12.843   7.756   7.984
38309SOL    HW216767  12.866   7.618   7.925
38310SOL     OW16768   8.762   1.925   9.355
38310SOL    HW116769   8.780   1.842   9.309
38310SOL    HW216770   8.843   1.942   9.404
38311SOL     OW16771   7.647  12.823   2.839
38311SOL    HW116772   7.675  12.791   2.925
38311SOL    HW216773   7.553  12.838   2.849
38312SOL     OW16774  14.638  14.730   4.020
38312SOL    HW116775  14.715  14.739   4.076
38312SOL    HW216776  14.613  14.820   3.999
38313SOL     OW16777  10.440   7.232  11.551
38313SOL    HW116778  10.423   7.312  11.601
38313SOL    HW216779  10.429   7.162  11.615
38314SOL     OW16780  12.216   6.750  14.264
38314SOL    HW116781  12.155   6.680  14.242
38314SOL    HW216782  12.164   6.813  14.314
38315SOL     OW16783  12.965   0.601   6.663
38315SOL    HW116784  12.910   0.679   6.673
38315SOL    HW216785  12.929   0.555   6.588
38316SOL     OW16786  10.905   8.861   7.584
38316SOL    HW116787  10.865   8.828   7.503
38316SOL    HW216788  10.884   8.954   7.585
38317SOL     OW16789   8.385   5.010   1.592
38317SOL    HW116790   8.312   4.949   1.587
38317SOL    HW216791   8.364   5.069   1.664
38318SOL     OW16792   1.395   0.908   2.291
38318SOL    HW116793   1.388   0.859   2.209
38318SOL    HW216794   1.323   0.971   2.287
38319SOL     OW16795   1.556  10.468  14.544
38319SOL    HW116796   1.572  10.521  14.465
38319SOL    HW216797   1.564  10.378  14.514
38320SOL     OW16798   0.354  13.168   3.914
38320SOL    HW116799   0.301  13.218   3.852
38320SOL    HW216800   0.304  13.087   3.928
38321SOL     OW16801   1.986   8.312  12.350
38321SOL    HW116802   2.006   8.278  12.437
38321SOL    HW216803   2.028   8.398  12.349
38322SOL     OW16804  10.120   6.064  11.539
38322SOL    HW116805  10.072   6.025  11.613
38322SOL    HW216806  10.054   6.074  11.470
38323SOL     OW16807  11.783  11.255   2.796
38323SOL    HW116808  11.847  11.309   2.748
38323SOL    HW216809  11.761  11.307   2.873
38324SOL     OW16810   1.204  10.212  10.381
38324SOL    HW116811   1.197  10.296  10.426
38324SOL    HW216812   1.202  10.147  10.451
38325SOL     OW16813  14.853   5.577  10.295
38325SOL    HW116814  14.849   5.634  10.372
38325SOL    HW216815   0.067   5.541  10.297
38326SOL     OW16816  10.839  13.268  13.023
38326SOL    HW116817  10.835  13.225  12.937
38326SOL    HW216818  10.807  13.202  13.084
38327SOL     OW16819  13.757  12.391   2.785
38327SOL    HW116820  13.806  12.444   2.722
38327SOL    HW216821  13.680  12.445   2.806
38328SOL     OW16822  10.724  14.132   3.015
38328SOL    HW116823  10.809  14.156   2.979
38328SOL    HW216824  10.661  14.157   2.947
38329SOL     OW16825   3.401  11.772  10.362
38329SOL    HW116826   3.336  11.790  10.294
38329SOL    HW216827   3.453  11.700  10.326
38330SOL     OW16828   3.122   8.266   6.223
38330SOL    HW116829   3.067   8.343   6.241
38330SOL    HW216830   3.125   8.260   6.128
38331SOL     OW16831   5.397   9.659   4.829
38331SOL    HW116832   5.301   9.656   4.831
38331SOL    HW216833   5.421   9.609   4.751
38332SOL     OW16834  10.815  11.328   5.631
38332SOL    HW116835  10.820  11.417   5.664
38332SOL    HW216836  10.794  11.338   5.538
38333SOL     OW16837  14.450   0.586   2.601
38333SOL    HW116838  14.371   0.549   2.562
38333SOL    HW216839  14.444   0.680   2.582
38334SOL     OW16840  13.486   0.833  13.732
38334SOL    HW116841  13.421   0.883  13.683
38334SOL    HW216842  13.559   0.821  13.671
38335SOL     OW16843   5.089  11.006   7.944
38335SOL    HW116844   5.181  10.989   7.921
38335SOL    HW216845   5.091  11.023   8.038
38336SOL     OW16846  10.654   5.928   6.146
38336SOL    HW116847  10.608   6.001   6.186
38336SOL    HW216848  10.718   5.901   6.212
38337SOL     OW16849   5.328  12.248  14.197
38337SOL    HW116850   5.389  12.229  14.269
38337SOL    HW216851   5.301  12.339  14.213
38338SOL     OW16852   5.986   5.654  11.392
38338SOL    HW116853   5.909   5.665  11.447
38338SOL    HW216854   5.993   5.737  11.344
38339SOL     OW16855  11.460  10.421   5.189
38339SOL    HW116856  11.489  10.331   5.171
38339SOL    HW216857  11.406  10.444   5.114
38340SOL     OW16858  13.263   4.826  11.501
38340SOL    HW116859  13.215   4.895  11.455
38340SOL    HW216860  13.194   4.767  11.534
38341SOL     OW16861   4.371   0.989   4.633
38341SOL    HW116862   4.357   0.944   4.549
38341SOL    HW216863   4.464   1.011   4.633
38342SOL     OW16864   9.045  12.100   4.094
38342SOL    HW116865   9.014  12.027   4.147
38342SOL    HW216866   9.060  12.171   4.157
38343SOL     OW16867   2.702  14.808   9.742
38343SOL    HW116868   2.695  14.813   9.647
38343SOL    HW216869   2.645  14.735   9.767
38344SOL     OW16870   1.927  13.536   8.687
38344SOL    HW116871   1.982  13.570   8.616
38344SOL    HW216872   1.929  13.605   8.754
38345SOL     OW16873   5.238   4.235   9.441
38345SOL    HW116874   5.167   4.205   9.384
38345SOL    HW216875   5.202   4.229   9.529
38346SOL     OW16876   8.053   7.071   7.485
38346SOL    HW116877   8.027   7.163   7.478
38346SOL    HW216878   8.103   7.066   7.566
38347SOL     OW16879   0.606   1.729   1.124
38347SOL    HW116880   0.583   1.637   1.133
38347SOL    HW216881   0.701   1.730   1.126
38348SOL     OW16882  10.058  13.634  13.614
38348SOL    HW116883  10.117  13.677  13.677
38348SOL    HW216884  10.079  13.676  13.530
38349SOL     OW16885  12.795  14.816   2.500
38349SOL    HW116886  12.827  14.727   2.515
38349SOL    HW216887  12.734  14.832   2.572
38350SOL     OW16888  11.260   9.451   0.481
38350SOL    HW116889  11.201   9.424   0.412
38350SOL    HW216890  11.337   9.396   0.471
38351SOL     OW16891   0.031  11.088  11.061
38351SOL    HW116892   0.068  11.053  10.980
38351SOL    HW216893  14.865  11.171  11.034
38352SOL     OW16894  12.898   4.536   1.161
38352SOL    HW116895  12.839   4.610   1.166
38352SOL    HW216896  12.953   4.544   1.239
38353SOL     OW16897   1.781  14.283  13.595
38353SOL    HW116898   1.852  14.333  13.634
38353SOL    HW216899   1.824  14.220  13.538
38354SOL     OW16900  14.461   6.210   5.598
38354SOL    HW116901  14.394   6.145   5.614
38354SOL    HW216902  14.515   6.209   5.677
38355SOL     OW16903  10.780   0.632   6.768
38355SOL    HW116904  10.693   0.596   6.787
38355SOL    HW216905  10.830   0.618   6.848
38356SOL     OW16906  14.204  11.158  11.152
38356SOL    HW116907  14.228  11.235  11.204
38356SOL    HW216908  14.160  11.100  11.215
38357SOL     OW16909   7.115  11.068   5.880
38357SOL    HW116910   7.206  11.062   5.853
38357SOL    HW216911   7.117  11.072   5.975
38358SOL     OW16912  11.419   5.012   1.904
38358SOL    HW116913  11.491   4.980   1.849
38358SOL    HW216914  11.341   4.999   1.851
38359SOL     OW16915   3.637  11.095  10.594
38359SOL    HW116916   3.641  11.153  10.517
38359SOL    HW216917   3.689  11.019  10.568
38360SOL     OW16918   8.787   0.749   6.892
38360SOL    HW116919   8.700   0.711   6.874
38360SOL    HW216920   8.812   0.789   6.809
38361SOL     OW16921  12.088   9.267  11.863
38361SOL    HW116922  12.109   9.293  11.953
38361SOL    HW216923  12.147   9.318  11.808
38362SOL     OW16924   0.800  10.214   0.006
38362SOL    HW116925   0.870  10.188   0.066
38362SOL    HW216926   0.821  10.169  14.798
38363SOL     OW16927   7.121  11.112   3.819
38363SOL    HW116928   7.196  11.094   3.874
38363SOL    HW216929   7.112  11.035   3.763
38364SOL     OW16930   3.173   1.264  10.699
38364SOL    HW116931   3.187   1.302  10.612
38364SOL    HW216932   3.080   1.274  10.716
38365SOL     OW16933   9.495   2.051   4.396
38365SOL    HW116934   9.470   2.002   4.475
38365SOL    HW216935   9.578   2.092   4.419
38366SOL     OW16936  11.943   7.881  12.596
38366SOL    HW116937  11.899   7.963  12.620
38366SOL    HW216938  11.926   7.872  12.502
38367SOL     OW16939  13.574   4.714   8.422
38367SOL    HW116940  13.569   4.810   8.424
38367SOL    HW216941  13.496   4.687   8.374
38368SOL     OW16942   5.377   3.519   5.267
38368SOL    HW116943   5.307   3.550   5.209
38368SOL    HW216944   5.449   3.497   5.209
38369SOL     OW16945  14.418   3.301  12.429
38369SOL    HW116946  14.464   3.328  12.509
38369SOL    HW216947  14.399   3.383  12.384
38370SOL     OW16948  11.726  13.725   2.420
38370SOL    HW116949  11.692  13.647   2.465
38370SOL    HW216950  11.812  13.739   2.459
38371SOL     OW16951   9.091  14.619  13.568
38371SOL    HW116952   9.092  14.715  13.565
38371SOL    HW216953   9.170  14.596  13.616
38372SOL     OW16954  10.577   9.436  10.668
38372SOL    HW116955  10.552   9.354  10.710
38372SOL    HW216956  10.495   9.468  10.628
38373SOL     OW16957   2.391   8.079   0.644
38373SOL    HW116958   2.362   8.165   0.672
38373SOL    HW216959   2.316   8.022   0.661
38374SOL     OW16960  14.705   9.002   9.184
38374SOL    HW116961  14.787   9.034   9.147
38374SOL    HW216962  14.692   9.056   9.263
38375SOL     OW16963   8.431  12.034   0.395
38375SOL    HW116964   8.409  12.124   0.420
38375SOL    HW216965   8.348  11.993   0.372
38376SOL     OW16966  11.989   4.919  13.319
38376SOL    HW116967  12.008   4.906  13.412
38376SOL    HW216968  12.074   4.933  13.279
38377SOL     OW16969   2.076   4.213   5.772
38377SOL    HW116970   2.142   4.164   5.723
38377SOL    HW216971   2.006   4.149   5.788
38378SOL     OW16972  10.307   3.716   6.583
38378SOL    HW116973  10.312   3.734   6.490
38378SOL    HW216974  10.354   3.788   6.625
38379SOL     OW16975   7.445  13.553  13.459
38379SOL    HW116976   7.492  13.471  13.476
38379SOL    HW216977   7.371  13.527  13.405
38380SOL     OW16978  13.958   8.436   0.585
38380SOL    HW116979  13.907   8.514   0.606
38380SOL    HW216980  13.940   8.421   0.492
38381SOL     OW16981   0.669   4.696   6.290
38381SOL    HW116982   0.576   4.706   6.268
38381SOL    HW216983   0.678   4.738   6.375
38382SOL     OW16984   4.025   4.978  10.785
38382SOL    HW116985   3.939   4.958  10.748
38382SOL    HW216986   4.014   5.064  10.826
38383SOL     OW16987   6.579  14.123   5.406
38383SOL    HW116988   6.515  14.056   5.383
38383SOL    HW216989   6.556  14.149   5.495
38384SOL     OW16990  13.444   7.824   4.253
38384SOL    HW116991  13.512   7.891   4.248
38384SOL    HW216992  13.362   7.874   4.255
38385SOL     OW16993   0.200   8.164   6.705
38385SOL    HW116994   0.155   8.118   6.635
38385SOL    HW216995   0.130   8.199   6.760
38386SOL     OW16996  10.217   8.575   3.469
38386SOL    HW116997  10.229   8.668   3.448
38386SOL    HW216998  10.167   8.540   3.395
38387SOL     OW16999   6.022   5.231  12.078
38387SOL    HW117000   6.085   5.282  12.027
38387SOL    HW217001   5.952   5.210  12.017
38388SOL     OW17002  10.389   5.986   0.211
38388SOL    HW117003  10.443   5.918   0.169
38388SOL    HW217004  10.310   5.988   0.158
38389SOL     OW17005  12.133   9.695   7.227
38389SOL    HW117006  12.144   9.619   7.284
38389SOL    HW217007  12.184   9.673   7.149
38390SOL     OW17008   6.422   7.821   7.805
38390SOL    HW117009   6.516   7.807   7.801
38390SOL    HW217010   6.413   7.911   7.837
38391SOL     OW17011   5.693   4.328   9.169
38391SOL    HW117012   5.605   4.294   9.180
38391SOL    HW217013   5.683   4.423   9.171
38392SOL     OW17014   5.125  11.270  12.278
38392SOL    HW117015   5.051  11.271  12.217
38392SOL    HW217016   5.174  11.350  12.257
38393SOL     OW17017   3.361  14.106   5.227
38393SOL    HW117018   3.325  14.030   5.273
38393SOL    HW217019   3.289  14.136   5.171
38394SOL     OW17020  11.150   2.435   0.272
38394SOL    HW117021  11.198   2.404   0.348
38394SOL    HW217022  11.216   2.475   0.215
38395SOL     OW17023   8.586  12.509   5.880
38395SOL    HW117024   8.602  12.595   5.918
38395SOL    HW217025   8.519  12.524   5.814
38396SOL     OW17026   0.607  14.516   8.047
38396SOL    HW117027   0.687  14.568   8.058
38396SOL    HW217028   0.536  14.579   8.058
38397SOL     OW17029  11.259  10.057   9.007
38397SOL    HW117030  11.313  10.123   8.963
38397SOL    HW217031  11.226  10.002   8.936
38398SOL     OW17032   1.410  13.282   7.949
38398SOL    HW117033   1.336  13.272   7.889
38398SOL    HW217034   1.438  13.193   7.969
38399SOL     OW17035  13.464  10.312   6.324
38399SOL    HW117036  13.524  10.240   6.309
38399SOL    HW217037  13.450  10.351   6.238
38400SOL     OW17038   7.813  13.630   6.942
38400SOL    HW117039   7.816  13.558   6.879
38400SOL    HW217040   7.905  13.645   6.965
38401SOL     OW17041   8.609   0.917   6.644
38401SOL    HW117042   8.697   0.879   6.648
38401SOL    HW217043   8.622   1.002   6.602
38402SOL     OW17044   7.148   3.225   6.318
38402SOL    HW117045   7.061   3.187   6.303
38402SOL    HW217046   7.130   3.316   6.342
38403SOL     OW17047   0.696   2.714  12.183
38403SOL    HW117048   0.744   2.783  12.229
38403SOL    HW217049   0.685   2.645  12.249
38404SOL     OW17050   5.791   1.017  10.057
38404SOL    HW117051   5.784   1.015  10.153
38404SOL    HW217052   5.782   0.925  10.031
38405SOL     OW17053   7.788   0.330  14.235
38405SOL    HW117054   7.865   0.364  14.279
38405SOL    HW217055   7.821   0.292  14.154
38406SOL     OW17056   8.815   4.690   3.433
38406SOL    HW117057   8.892   4.716   3.483
38406SOL    HW217058   8.768   4.771   3.416
38407SOL     OW17059   6.377  12.607   3.955
38407SOL    HW117060   6.472  12.617   3.959
38407SOL    HW217061   6.356  12.615   3.862
38408SOL     OW17062   3.314   0.305  10.312
38408SOL    HW117063   3.380   0.312  10.381
38408SOL    HW217064   3.330   0.380  10.255
38409SOL     OW17065  14.031  12.369  10.401
38409SOL    HW117066  14.092  12.442  10.393
38409SOL    HW217067  14.027  12.332  10.313
38410SOL     OW17068   3.541   3.052   4.386
38410SOL    HW117069   3.634   3.047   4.366
38410SOL    HW217070   3.526   3.144   4.409
38411SOL     OW17071   0.018  10.840   4.475
38411SOL    HW117072   0.081  10.774   4.505
38411SOL    HW217073   0.071  10.920   4.464
38412SOL     OW17074   8.956   0.924   0.293
38412SOL    HW117075   8.890   0.924   0.223
38412SOL    HW217076   8.979   0.832   0.305
38413SOL     OW17077   4.947   4.918   4.243
38413SOL    HW117078   4.943   4.988   4.308
38413SOL    HW217079   4.913   4.958   4.163
38414SOL     OW17080   7.549  14.617  13.688
38414SOL    HW117081   7.592  14.672  13.622
38414SOL    HW217082   7.513  14.680  13.751
38415SOL     OW17083   0.306   1.552  14.471
38415SOL    HW117084   0.336   1.590  14.389
38415SOL    HW217085   0.237   1.491  14.446
38416SOL     OW17086  10.337  14.778   2.462
38416SOL    HW117087  10.317  14.765   2.369
38416SOL    HW217088  10.286  14.855   2.487
38417SOL     OW17089   5.007   3.820   2.159
38417SOL    HW117090   5.001   3.786   2.069
38417SOL    HW217091   5.027   3.743   2.212
38418SOL     OW17092   9.801   0.897  10.660
38418SOL    HW117093   9.781   0.831  10.593
38418SOL    HW217094   9.880   0.941  10.628
38419SOL     OW17095  12.202  13.109   7.700
38419SOL    HW117096  12.148  13.053   7.642
38419SOL    HW217097  12.258  13.048   7.746
38420SOL     OW17098   0.704   0.087   0.862
38420SOL    HW117099   0.652   0.144   0.919
38420SOL    HW217100   0.747   0.147   0.801
38421SOL     OW17101   7.310   0.291  10.101
38421SOL    HW117102   7.345   0.378  10.120
38421SOL    HW217103   7.247   0.305  10.030
38422SOL     OW17104   0.787   9.587   9.245
38422SOL    HW117105   0.733   9.586   9.324
38422SOL    HW217106   0.763   9.669   9.202
38423SOL     OW17107  13.671   9.610   0.715
38423SOL    HW117108  13.710   9.675   0.656
38423SOL    HW217109  13.577   9.629   0.711
38424SOL     OW17110   3.755  14.416   0.889
38424SOL    HW117111   3.776  14.447   0.801
38424SOL    HW217112   3.834  14.372   0.919
38425SOL     OW17113   0.879   6.854   0.755
38425SOL    HW117114   0.818   6.782   0.772
38425SOL    HW217115   0.858   6.919   0.822
38426SOL     OW17116   1.682  13.711  12.355
38426SOL    HW117117   1.615  13.675  12.298
38426SOL    HW217118   1.721  13.782  12.305
38427SOL     OW17119   9.238   5.742   5.178
38427SOL    HW117120   9.262   5.743   5.271
38427SOL    HW217121   9.313   5.781   5.134
38428SOL     OW17122   0.592   3.797   6.136
38428SOL    HW117123   0.517   3.797   6.078
38428SOL    HW217124   0.555   3.785   6.224
38429SOL     OW17125   9.571   7.289   1.608
38429SOL    HW117126   9.612   7.219   1.658
38429SOL    HW217127   9.580   7.262   1.517
38430SOL     OW17128   3.880   4.419  11.586
38430SOL    HW117129   3.928   4.472  11.524
38430SOL    HW217130   3.944   4.356  11.620
38431SOL     OW17131  11.642   2.191  12.225
38431SOL    HW117132  11.665   2.189  12.132
38431SOL    HW217133  11.610   2.280  12.240
38432SOL     OW17134   2.895   5.705  11.668
38432SOL    HW117135   2.946   5.659  11.601
38432SOL    HW217136   2.956   5.769  11.705
38433SOL     OW17137   6.668   2.111   9.088
38433SOL    HW117138   6.748   2.130   9.137
38433SOL    HW217139   6.619   2.049   9.143
38434SOL     OW17140   4.814   6.297   1.781
38434SOL    HW117141   4.750   6.309   1.710
38434SOL    HW217142   4.896   6.329   1.744
38435SOL     OW17143  13.074   8.382  10.223
38435SOL    HW117144  13.094   8.404  10.314
38435SOL    HW217145  12.978   8.381  10.219
38436SOL     OW17146  12.791   3.986  12.119
38436SOL    HW117147  12.862   3.964  12.179
38436SOL    HW217148  12.739   4.052  12.167
38437SOL     OW17149  11.417  13.181  10.237
38437SOL    HW117150  11.449  13.245  10.173
38437SOL    HW217151  11.375  13.114  10.184
38438SOL     OW17152   1.526  13.176   6.845
38438SOL    HW117153   1.604  13.182   6.902
38438SOL    HW217154   1.511  13.266   6.816
38439SOL     OW17155   2.491   2.382  13.987
38439SOL    HW117156   2.576   2.340  13.982
38439SOL    HW217157   2.499   2.446  14.057
38440SOL     OW17158   1.308   4.861   3.618
38440SOL    HW117159   1.342   4.787   3.567
38440SOL    HW217160   1.380   4.924   3.619
38441SOL     OW17161   5.443   1.246   5.592
38441SOL    HW117162   5.483   1.330   5.568
38441SOL    HW217163   5.379   1.230   5.523
38442SOL     OW17164  12.108   2.508   4.181
38442SOL    HW117165  12.157   2.546   4.109
38442SOL    HW217166  12.091   2.418   4.154
38443SOL     OW17167   3.248   8.101  11.637
38443SOL    HW117168   3.224   8.104  11.730
38443SOL    HW217169   3.340   8.078  11.637
38444SOL     OW17170   6.449   4.472   9.001
38444SOL    HW117171   6.456   4.379   9.017
38444SOL    HW217172   6.539   4.501   8.985
38445SOL     OW17173   4.636   2.167   4.756
38445SOL    HW117174   4.565   2.143   4.696
38445SOL    HW217175   4.716   2.140   4.710
38446SOL     OW17176   5.314   0.526   5.072
38446SOL    HW117177   5.364   0.577   5.136
38446SOL    HW217178   5.229   0.569   5.067
38447SOL     OW17179  13.476   4.888  11.705
38447SOL    HW117180  13.405   4.909  11.644
38447SOL    HW217181  13.542   4.955  11.689
38448SOL     OW17182   6.874  14.840   3.379
38448SOL    HW117183   6.919  14.756   3.380
38448SOL    HW217184   6.944   0.031   3.389
38449SOL     OW17185   8.958   1.804   0.889
38449SOL    HW117186   8.949   1.819   0.983
38449SOL    HW217187   9.042   1.760   0.880
38450SOL     OW17188   6.422   6.306   5.185
38450SOL    HW117189   6.405   6.272   5.098
38450SOL    HW217190   6.387   6.239   5.244
38451SOL     OW17191   3.895  10.952  11.723
38451SOL    HW117192   3.898  11.018  11.793
38451SOL    HW217193   3.942  10.877  11.758
38452SOL     OW17194   0.414  13.373   5.164
38452SOL    HW117195   0.477  13.421   5.111
38452SOL    HW217196   0.347  13.438   5.187
38453SOL     OW17197   7.290   6.638  13.218
38453SOL    HW117198   7.237   6.627  13.140
38453SOL    HW217199   7.282   6.554  13.264
38454SOL     OW17200  13.837   5.024   5.079
38454SOL    HW117201  13.804   5.018   4.989
38454SOL    HW217202  13.762   5.054   5.130
38455SOL     OW17203   6.934   7.438   3.858
38455SOL    HW117204   6.886   7.520   3.845
38455SOL    HW217205   7.021   7.456   3.821
38456SOL     OW17206  11.783  14.350  10.406
38456SOL    HW117207  11.786  14.256  10.389
38456SOL    HW217208  11.860  14.385  10.361
38457SOL     OW17209   8.531   6.038   7.342
38457SOL    HW117210   8.467   6.109   7.348
38457SOL    HW217211   8.569   6.033   7.429
38458SOL     OW17212  10.484   3.795  12.226
38458SOL    HW117213  10.428   3.791  12.303
38458SOL    HW217214  10.500   3.703  12.203
38459SOL     OW17215  13.805   5.436   5.176
38459SOL    HW117216  13.841   5.380   5.245
38459SOL    HW217217  13.710   5.420   5.179
38460SOL     OW17218  13.225   5.134  14.106
38460SOL    HW117219  13.287   5.198  14.141
38460SOL    HW217220  13.278   5.076  14.051
38461SOL     OW17221  11.887   0.529   5.332
38461SOL    HW117222  11.941   0.535   5.411
38461SOL    HW217223  11.797   0.541   5.364
38462SOL     OW17224   1.231   0.870   8.699
38462SOL    HW117225   1.308   0.908   8.657
38462SOL    HW217226   1.267   0.807   8.762
38463SOL     OW17227  11.886   9.230   5.545
38463SOL    HW117228  11.943   9.296   5.505
38463SOL    HW217229  11.927   9.147   5.522
38464SOL     OW17230  14.520   6.478   4.353
38464SOL    HW117231  14.433   6.477   4.394
38464SOL    HW217232  14.517   6.407   4.289
38465SOL     OW17233  11.568   0.573   6.537
38465SOL    HW117234  11.613   0.556   6.454
38465SOL    HW217235  11.586   0.496   6.591
38466SOL     OW17236   2.936   7.572   2.918
38466SOL    HW117237   2.982   7.592   2.999
38466SOL    HW217238   3.005   7.541   2.859
38467SOL     OW17239   3.566  11.286   3.323
38467SOL    HW117240   3.573  11.221   3.253
38467SOL    HW217241   3.474  11.313   3.322
38468SOL     OW17242   6.885   3.221   1.434
38468SOL    HW117243   6.888   3.171   1.515
38468SOL    HW217244   6.873   3.312   1.463
38469SOL     OW17245   9.191   7.233   9.726
38469SOL    HW117246   9.122   7.281   9.681
38469SOL    HW217247   9.232   7.297   9.784
38470SOL     OW17248   6.337   2.279   1.887
38470SOL    HW117249   6.271   2.275   1.817
38470SOL    HW217250   6.337   2.371   1.914
38471SOL     OW17251   8.236  12.850   8.797
38471SOL    HW117252   8.256  12.941   8.820
38471SOL    HW217253   8.146  12.837   8.829
38472SOL     OW17254   0.314   4.479   2.111
38472SOL    HW117255   0.397   4.511   2.146
38472SOL    HW217256   0.334   4.391   2.079
38473SOL     OW17257  11.473   9.516   6.819
38473SOL    HW117258  11.463   9.509   6.914
38473SOL    HW217259  11.516   9.434   6.793
38474SOL     OW17260   7.882   2.597   9.344
38474SOL    HW117261   7.840   2.683   9.343
38474SOL    HW217262   7.972   2.613   9.315
38475SOL     OW17263  12.320  11.771   6.687
38475SOL    HW117264  12.408  11.741   6.710
38475SOL    HW217265  12.314  11.758   6.593
38476SOL     OW17266   5.343   8.035  13.790
38476SOL    HW117267   5.376   8.074  13.870
38476SOL    HW217268   5.248   8.030  13.803
38477SOL     OW17269   9.853   5.222   8.533
38477SOL    HW117270   9.866   5.191   8.443
38477SOL    HW217271   9.801   5.153   8.574
38478SOL     OW17272   4.706   5.198  11.108
38478SOL    HW117273   4.700   5.291  11.129
38478SOL    HW217274   4.656   5.189  11.027
38479SOL     OW17275   7.332   0.900   6.412
38479SOL    HW117276   7.263   0.949   6.455
38479SOL    HW217277   7.401   0.964   6.395
38480SOL     OW17278   4.772  13.419  10.422
38480SOL    HW117279   4.837  13.422  10.492
38480SOL    HW217280   4.821  13.390  10.345
38481SOL     OW17281   0.538  10.782  14.365
38481SOL    HW117282   0.552  10.696  14.405
38481SOL    HW217283   0.601  10.839  14.408
38482SOL     OW17284   6.734   0.126   4.494
38482SOL    HW117285   6.645   0.126   4.460
38482SOL    HW217286   6.771   0.043   4.465
38483SOL     OW17287   4.616   0.928  14.520
38483SOL    HW117288   4.652   0.851  14.477
38483SOL    HW217289   4.688   0.991  14.520
38484SOL     OW17290   1.266   0.968   3.128
38484SOL    HW117291   1.190   1.013   3.166
38484SOL    HW217292   1.325   1.039   3.101
38485SOL     OW17293  14.573   2.380   4.950
38485SOL    HW117294  14.548   2.405   4.861
38485SOL    HW217295  14.506   2.420   5.006
38486SOL     OW17296  13.172  12.756   9.033
38486SOL    HW117297  13.234  12.752   8.961
38486SOL    HW217298  13.090  12.785   8.993
38487SOL     OW17299   7.097  10.513  14.212
38487SOL    HW117300   7.063  10.599  14.236
38487SOL    HW217301   7.036  10.481  14.146
38488SOL     OW17302  10.822   2.903  14.234
38488SOL    HW117303  10.766   2.843  14.283
38488SOL    HW217304  10.816   2.986  14.282
38489SOL     OW17305   8.402   6.066   4.649
38489SOL    HW117306   8.473   6.105   4.599
38489SOL    HW217307   8.426   5.974   4.658
38490SOL     OW17308  13.184   0.215  13.441
38490SOL    HW117309  13.224   0.274  13.377
38490SOL    HW217310  13.125   0.272  13.492
38491SOL     OW17311  11.403   8.511   8.556
38491SOL    HW117312  11.396   8.433   8.501
38491SOL    HW217313  11.329   8.505   8.616
38492SOL     OW17314  11.992   6.200   1.642
38492SOL    HW117315  12.056   6.130   1.655
38492SOL    HW217316  12.040   6.268   1.594
38493SOL     OW17317   1.788  10.596  14.748
38493SOL    HW117318   1.767  10.507  14.718
38493SOL    HW217319   1.838  10.634  14.675
38494SOL     OW17320   2.849   7.079   7.599
38494SOL    HW117321   2.906   7.136   7.547
38494SOL    HW217322   2.908   7.012   7.633
38495SOL     OW17323   3.311  13.091   1.480
38495SOL    HW117324   3.315  13.187   1.485
38495SOL    HW217325   3.233  13.068   1.529
38496SOL     OW17326   5.999  12.829  10.147
38496SOL    HW117327   5.904  12.835  10.163
38496SOL    HW217328   6.007  12.829  10.051
38497SOL     OW17329  13.970   0.840   3.885
38497SOL    HW117330  14.055   0.878   3.907
38497SOL    HW217331  13.980   0.746   3.903
38498SOL     OW17332   1.738  13.699   4.968
38498SOL    HW117333   1.782  13.616   4.986
38498SOL    HW217334   1.669  13.676   4.906
38499SOL     OW17335   9.873   9.219   4.153
38499SOL    HW117336   9.935   9.176   4.212
38499SOL    HW217337   9.823   9.147   4.115
38500SOL     OW17338  11.414   9.041   7.195
38500SOL    HW117339  11.503   9.068   7.174
38500SOL    HW217340  11.424   8.979   7.267
38501SOL     OW17341   2.242   5.845   8.784
38501SOL    HW117342   2.148   5.827   8.779
38501SOL    HW217343   2.250   5.913   8.850
38502SOL     OW17344   1.148  10.727   1.868
38502SOL    HW117345   1.097  10.807   1.878
38502SOL    HW217346   1.161  10.695   1.958
38503SOL     OW17347  12.579   4.819   4.933
38503SOL    HW117348  12.521   4.895   4.932
38503SOL    HW217349  12.626   4.823   4.850
38504SOL     OW17350   6.893  11.647  13.728
38504SOL    HW117351   6.954  11.709  13.768
38504SOL    HW217352   6.904  11.566  13.777
38505SOL     OW17353   1.667   9.963  12.416
38505SOL    HW117354   1.752   9.997  12.444
38505SOL    HW217355   1.655   9.883  12.467
38506SOL     OW17356  10.262   0.210   4.392
38506SOL    HW117357  10.214   0.225   4.311
38506SOL    HW217358  10.305   0.125   4.380
38507SOL     OW17359  11.597  12.396   3.941
38507SOL    HW117360  11.685  12.367   3.917
38507SOL    HW217361  11.594  12.386   4.036
38508SOL     OW17362  10.565   0.429   6.732
38508SOL    HW117363  10.546   0.464   6.819
38508SOL    HW217364  10.493   0.369   6.714
38509SOL     OW17365  11.610  13.545   8.824
38509SOL    HW117366  11.654  13.556   8.740
38509SOL    HW217367  11.530  13.496   8.804
38510SOL     OW17368  10.875   1.733   4.685
38510SOL    HW117369  10.906   1.784   4.760
38510SOL    HW217370  10.950   1.729   4.626
38511SOL     OW17371   1.047   7.967   9.697
38511SOL    HW117372   1.070   8.059   9.684
38511SOL    HW217373   1.110   7.919   9.643
38512SOL     OW17374   0.027   8.601   2.105
38512SOL    HW117375   0.094   8.660   2.071
38512SOL    HW217376  14.864   8.647   2.180
38513SOL     OW17377   0.392   3.388  13.069
38513SOL    HW117378   0.320   3.353  13.123
38513SOL    HW217379   0.348   3.438  13.000
38514SOL     OW17380   7.894  11.892   8.530
38514SOL    HW117381   7.898  11.922   8.440
38514SOL    HW217382   7.837  11.955   8.574
38515SOL     OW17383  13.787   1.298  12.042
38515SOL    HW117384  13.762   1.322  12.131
38515SOL    HW217385  13.787   1.381  11.994
38516SOL     OW17386   5.063   3.357   4.653
38516SOL    HW117387   5.066   3.321   4.742
38516SOL    HW217388   5.123   3.302   4.603
38517SOL     OW17389   8.126   7.058   1.085
38517SOL    HW117390   8.157   7.007   1.011
38517SOL    HW217391   8.206   7.088   1.129
38518SOL     OW17392  14.630  10.419   6.759
38518SOL    HW117393  14.653  10.339   6.711
38518SOL    HW217394  14.585  10.387   6.837
38519SOL     OW17395   3.433   6.120   4.705
38519SOL    HW117396   3.491   6.092   4.633
38519SOL    HW217397   3.349   6.078   4.686
38520SOL     OW17398   9.252   0.209   8.201
38520SOL    HW117399   9.320   0.143   8.213
38520SOL    HW217400   9.235   0.243   8.289
38521SOL     OW17401   8.367  13.290   4.207
38521SOL    HW117402   8.408  13.325   4.287
38521SOL    HW217403   8.417  13.330   4.136
38522SOL     OW17404   8.596  14.498   3.831
38522SOL    HW117405   8.577  14.416   3.877
38522SOL    HW217406   8.675  14.480   3.781
38523SOL     OW17407   9.217  10.087  10.855
38523SOL    HW117408   9.249  10.010  10.808
38523SOL    HW217409   9.263  10.085  10.939
38524SOL     OW17410  13.517   2.740   1.764
38524SOL    HW117411  13.484   2.799   1.697
38524SOL    HW217412  13.524   2.655   1.721
38525SOL     OW17413   5.476   8.022  13.062
38525SOL    HW117414   5.489   7.940  13.014
38525SOL    HW217415   5.423   8.076  13.003
38526SOL     OW17416  13.284   9.285   8.685
38526SOL    HW117417  13.365   9.326   8.716
38526SOL    HW217418  13.236   9.357   8.642
38527SOL     OW17419   6.250   2.587   1.007
38527SOL    HW117420   6.176   2.599   1.066
38527SOL    HW217421   6.270   2.675   0.976
38528SOL     OW17422   0.456   8.923   5.247
38528SOL    HW117423   0.393   8.858   5.277
38528SOL    HW217424   0.464   8.908   5.153
38529SOL     OW17425   8.719   6.134  10.227
38529SOL    HW117426   8.721   6.227  10.208
38529SOL    HW217427   8.684   6.129  10.316
38530SOL     OW17428   3.711  14.062   0.816
38530SOL    HW117429   3.786  14.089   0.869
38530SOL    HW217430   3.713  13.966   0.819
38531SOL     OW17431  12.201   6.960   8.015
38531SOL    HW117432  12.198   7.029   8.082
38531SOL    HW217433  12.228   6.882   8.063
38532SOL     OW17434   0.674   4.173  12.086
38532SOL    HW117435   0.729   4.202  12.158
38532SOL    HW217436   0.708   4.221  12.010
38533SOL     OW17437  10.406   2.012  11.413
38533SOL    HW117438  10.338   1.946  11.427
38533SOL    HW217439  10.484   1.975  11.455
38534SOL     OW17440   2.104   0.542   2.897
38534SOL    HW117441   2.010   0.561   2.897
38534SOL    HW217442   2.110   0.450   2.872
38535SOL     OW17443  10.043   0.403   6.078
38535SOL    HW117444  10.110   0.342   6.046
38535SOL    HW217445  10.064   0.485   6.033
38536SOL     OW17446   3.957   2.383   2.472
38536SOL    HW117447   4.016   2.329   2.418
38536SOL    HW217448   3.993   2.471   2.466
38537SOL     OW17449   6.039  12.154   4.358
38537SOL    HW117450   6.062  12.061   4.351
38537SOL    HW217451   5.973  12.157   4.428
38538SOL     OW17452   7.050   0.339  14.523
38538SOL    HW117453   7.131   0.389  14.513
38538SOL    HW217454   7.051   0.310  14.614
38539SOL     OW17455   6.836  11.515   6.254
38539SOL    HW117456   6.759  11.570   6.266
38539SOL    HW217457   6.890  11.563   6.191
38540SOL     OW17458   2.158   5.604   2.633
38540SOL    HW117459   2.168   5.667   2.705
38540SOL    HW217460   2.122   5.655   2.561
38541SOL     OW17461  12.165   5.722   1.252
38541SOL    HW117462  12.110   5.755   1.323
38541SOL    HW217463  12.157   5.787   1.183
38542SOL     OW17464  12.043   6.041   7.566
38542SOL    HW117465  12.019   6.025   7.657
38542SOL    HW217466  11.992   6.117   7.539
38543SOL     OW17467  10.283   3.062   3.242
38543SOL    HW117468  10.245   3.122   3.177
38543SOL    HW217469  10.209   3.032   3.294
38544SOL     OW17470   6.987  10.574  13.563
38544SOL    HW117471   6.926  10.516  13.609
38544SOL    HW217472   7.047  10.514  13.517
38545SOL     OW17473  11.727  12.107  13.439
38545SOL    HW117474  11.763  12.195  13.451
38545SOL    HW217475  11.685  12.087  13.523
38546SOL     OW17476   8.784   9.466   1.172
38546SOL    HW117477   8.866   9.499   1.134
38546SOL    HW217478   8.784   9.372   1.151
38547SOL     OW17479   4.942   8.484   6.593
38547SOL    HW117480   4.896   8.401   6.581
38547SOL    HW217481   5.001   8.490   6.518
38548SOL     OW17482   1.206   4.119   8.208
38548SOL    HW117483   1.140   4.129   8.140
38548SOL    HW217484   1.261   4.047   8.178
38549SOL     OW17485  12.109  12.894   5.026
38549SOL    HW117486  12.101  12.804   5.059
38549SOL    HW217487  12.139  12.884   4.936
38550SOL     OW17488   4.176  12.592   2.164
38550SOL    HW117489   4.255  12.615   2.214
38550SOL    HW217490   4.158  12.669   2.111
38551SOL     OW17491  14.746   4.250   7.663
38551SOL    HW117492  14.710   4.199   7.591
38551SOL    HW217493  14.750   4.340   7.630
38552SOL     OW17494   7.519  11.262   8.869
38552SOL    HW117495   7.463  11.202   8.918
38552SOL    HW217496   7.569  11.205   8.810
38553SOL     OW17497   7.489  13.777   2.486
38553SOL    HW117498   7.441  13.834   2.546
38553SOL    HW217499   7.472  13.689   2.517
38554SOL     OW17500  11.184   5.195   1.621
38554SOL    HW117501  11.184   5.274   1.567
38554SOL    HW217502  11.116   5.211   1.687
38555SOL     OW17503  11.776  14.337   2.058
38555SOL    HW117504  11.754  14.414   2.110
38555SOL    HW217505  11.857  14.304   2.098
38556SOL     OW17506   8.232   8.316  10.516
38556SOL    HW117507   8.197   8.271  10.593
38556SOL    HW217508   8.327   8.309  10.527
38557SOL     OW17509   9.785   2.002   2.343
38557SOL    HW117510   9.872   1.962   2.340
38557SOL    HW217511   9.750   1.977   2.428
38558SOL     OW17512  12.089   4.168  12.580
38558SOL    HW117513  12.049   4.149  12.495
38558SOL    HW217514  12.086   4.264  12.587
38559SOL     OW17515   3.375   4.206   6.109
38559SOL    HW117516   3.388   4.234   6.200
38559SOL    HW217517   3.407   4.116   6.107
38560SOL     OW17518  12.065   0.079  11.785
38560SOL    HW117519  12.112   0.102  11.705
38560SOL    HW217520  12.057   0.162  11.833
38561SOL     OW17521   7.254   6.513   0.674
38561SOL    HW117522   7.210   6.594   0.701
38561SOL    HW217523   7.325   6.543   0.618
38562SOL     OW17524   1.023   9.433   9.223
38562SOL    HW117525   0.955   9.497   9.242
38562SOL    HW217526   1.105   9.482   9.230
38563SOL     OW17527   0.958  14.548  13.825
38563SOL    HW117528   0.941  14.621  13.766
38563SOL    HW217529   0.936  14.470  13.774
38564SOL     OW17530   5.490  10.699   2.827
38564SOL    HW117531   5.485  10.791   2.802
38564SOL    HW217532   5.526  10.655   2.749
38565SOL     OW17533   7.899   6.437  11.419
38565SOL    HW117534   7.807   6.449  11.445
38565SOL    HW217535   7.929   6.364  11.473
38566SOL     OW17536  12.195  11.262   0.328
38566SOL    HW117537  12.188  11.322   0.402
38566SOL    HW217538  12.170  11.314   0.251
38567SOL     OW17539  13.641   1.859   5.913
38567SOL    HW117540  13.589   1.866   5.833
38567SOL    HW217541  13.622   1.771   5.946
38568SOL     OW17542  12.081   4.733   9.163
38568SOL    HW117543  12.080   4.716   9.068
38568SOL    HW217544  12.171   4.758   9.182
38569SOL     OW17545  10.699   3.131  14.387
38569SOL    HW117546  10.730   3.142  14.477
38569SOL    HW217547  10.624   3.189  14.380
38570SOL     OW17548  10.743  10.986   2.842
38570SOL    HW117549  10.677  10.937   2.891
38570SOL    HW217550  10.710  11.076   2.839
38571SOL     OW17551   3.429   7.981   4.462
38571SOL    HW117552   3.357   7.939   4.509
38571SOL    HW217553   3.502   7.982   4.525
38572SOL     OW17554   1.618   4.053   5.331
38572SOL    HW117555   1.655   4.012   5.254
38572SOL    HW217556   1.598   4.143   5.304
38573SOL     OW17557   3.218  12.808  10.102
38573SOL    HW117558   3.290  12.751  10.075
38573SOL    HW217559   3.198  12.861  10.025
38574SOL     OW17560   5.111   9.095  13.996
38574SOL    HW117561   5.111   9.152  13.919
38574SOL    HW217562   5.161   9.018  13.969
38575SOL     OW17563   4.126   1.402  13.921
38575SOL    HW117564   4.141   1.496  13.905
38575SOL    HW217565   4.044   1.399  13.970
38576SOL     OW17566   0.309  10.952   7.083
38576SOL    HW117567   0.342  10.869   7.049
38576SOL    HW217568   0.368  11.018   7.046
38577SOL     OW17569   2.399   4.236   2.436
38577SOL    HW117570   2.307   4.259   2.424
38577SOL    HW217571   2.447   4.307   2.393
38578SOL     OW17572   1.256   5.991   8.268
38578SOL    HW117573   1.308   5.976   8.346
38578SOL    HW217574   1.320   5.990   8.196
38579SOL     OW17575   5.570   3.791   9.993
38579SOL    HW117576   5.480   3.762  10.006
38579SOL    HW217577   5.563   3.858   9.925
38580SOL     OW17578   2.791  14.774  11.261
38580SOL    HW117579   2.715  14.738  11.306
38580SOL    HW217580   2.793  14.866  11.288
38581SOL     OW17581  11.760  11.966   5.155
38581SOL    HW117582  11.833  12.028   5.158
38581SOL    HW217583  11.784  11.905   5.085
38582SOL     OW17584   0.259   4.307   1.065
38582SOL    HW117585   0.170   4.327   1.038
38582SOL    HW217586   0.312   4.376   1.025
38583SOL     OW17587  12.971   0.509   2.748
38583SOL    HW117588  13.002   0.437   2.804
38583SOL    HW217589  12.900   0.470   2.697
38584SOL     OW17590   6.544   2.762  11.710
38584SOL    HW117591   6.619   2.789  11.656
38584SOL    HW217592   6.510   2.685  11.666
38585SOL     OW17593   6.994   3.766  11.566
38585SOL    HW117594   6.975   3.819  11.489
38585SOL    HW217595   6.974   3.823  11.640
38586SOL     OW17596  12.703   9.207   9.341
38586SOL    HW117597  12.787   9.246   9.363
38586SOL    HW217598  12.678   9.159   9.420
38587SOL     OW17599   4.486   6.439  10.965
38587SOL    HW117600   4.453   6.385  10.894
38587SOL    HW217601   4.527   6.514  10.922
38588SOL     OW17602   8.486   1.254  14.746
38588SOL    HW117603   8.546   1.181  14.731
38588SOL    HW217604   8.494   1.308  14.667
38589SOL     OW17605  12.100   9.551   9.995
38589SOL    HW117606  12.033   9.604  10.039
38589SOL    HW217607  12.082   9.562   9.902
38590SOL     OW17608   8.089   4.626   7.916
38590SOL    HW117609   8.067   4.536   7.890
38590SOL    HW217610   8.119   4.667   7.834
38591SOL     OW17611   3.497   6.385   1.769
38591SOL    HW117612   3.422   6.327   1.757
38591SOL    HW217613   3.502   6.399   1.864
38592SOL     OW17614   3.550  10.536  13.314
38592SOL    HW117615   3.631  10.587  13.313
38592SOL    HW217616   3.537  10.509  13.224
38593SOL     OW17617   6.030  14.696  13.556
38593SOL    HW117618   6.055  14.752  13.483
38593SOL    HW217619   5.935  14.686  13.546
38594SOL     OW17620  14.267   5.120   5.871
38594SOL    HW117621  14.174   5.137   5.880
38594SOL    HW217622  14.281   5.107   5.777
38595SOL     OW17623   8.356   6.511   9.264
38595SOL    HW117624   8.365   6.510   9.169
38595SOL    HW217625   8.275   6.559   9.280
38596SOL     OW17626  13.409  13.174   5.905
38596SOL    HW117627  13.427  13.139   5.992
38596SOL    HW217628  13.495  13.175   5.861
38597SOL     OW17629  14.579   5.323  10.675
38597SOL    HW117630  14.586   5.333  10.580
38597SOL    HW217631  14.562   5.412  10.707
38598SOL     OW17632   9.440   9.604   1.564
38598SOL    HW117633   9.425   9.698   1.556
38598SOL    HW217634   9.532   9.592   1.539
38599SOL     OW17635  14.709   0.080   9.466
38599SOL    HW117636  14.696   0.145   9.535
38599SOL    HW217637  14.797   0.046   9.482
38600SOL     OW17638  11.170   6.384   4.761
38600SOL    HW117639  11.194   6.338   4.841
38600SOL    HW217640  11.225   6.463   4.761
38601SOL     OW17641   9.053   6.415  11.714
38601SOL    HW117642   9.042   6.474  11.789
38601SOL    HW217643   8.988   6.346  11.729
38602SOL     OW17644   4.224  10.377   4.400
38602SOL    HW117645   4.302  10.321   4.400
38602SOL    HW217646   4.254  10.460   4.363
38603SOL     OW17647  10.505   9.668   2.501
38603SOL    HW117648  10.575   9.726   2.531
38603SOL    HW217649  10.424   9.714   2.522
38604SOL     OW17650   7.767   7.848   8.794
38604SOL    HW117651   7.735   7.865   8.706
38604SOL    HW217652   7.797   7.933   8.826
38605SOL     OW17653   1.101   3.368  11.472
38605SOL    HW117654   1.140   3.309  11.536
38605SOL    HW217655   1.141   3.453  11.490
38606SOL     OW17656   1.532   4.436  12.687
38606SOL    HW117657   1.471   4.420  12.759
38606SOL    HW217658   1.491   4.505  12.635
38607SOL     OW17659  10.880   2.896   1.287
38607SOL    HW117660  10.833   2.859   1.362
38607SOL    HW217661  10.812   2.938   1.234
38608SOL     OW17662  13.650   7.558   6.264
38608SOL    HW117663  13.574   7.499   6.274
38608SOL    HW217664  13.622   7.640   6.304
38609SOL     OW17665  14.490  12.465  12.363
38609SOL    HW117666  14.468  12.498  12.276
38609SOL    HW217667  14.584  12.480  12.372
38610SOL     OW17668  11.939   6.747   8.352
38610SOL    HW117669  11.948   6.653   8.367
38610SOL    HW217670  11.846   6.760   8.335
38611SOL     OW17671  13.878   1.713   1.608
38611SOL    HW117672  13.785   1.710   1.585
38611SOL    HW217673  13.899   1.807   1.607
38612SOL     OW17674   7.220  10.175   1.849
38612SOL    HW117675   7.210  10.098   1.792
38612SOL    HW217676   7.270  10.142   1.924
38613SOL     OW17677   8.326   2.090   5.380
38613SOL    HW117678   8.358   2.010   5.421
38613SOL    HW217679   8.357   2.160   5.438
38614SOL     OW17680   1.739  11.616  11.005
38614SOL    HW117681   1.692  11.700  11.001
38614SOL    HW217682   1.705  11.567  10.930
38615SOL     OW17683   2.988   3.440   5.714
38615SOL    HW117684   2.920   3.456   5.779
38615SOL    HW217685   2.996   3.345   5.711
38616SOL     OW17686   8.987  10.096  10.259
38616SOL    HW117687   9.055  10.153  10.295
38616SOL    HW217688   8.914  10.155  10.241
38617SOL     OW17689   1.029  13.834   5.710
38617SOL    HW117690   1.112  13.810   5.668
38617SOL    HW217691   0.998  13.908   5.659
38618SOL     OW17692  12.477  12.563   6.788
38618SOL    HW117693  12.419  12.489   6.767
38618SOL    HW217694  12.534  12.572   6.711
38619SOL     OW17695   2.994   1.087   7.045
38619SOL    HW117696   2.958   0.999   7.054
38619SOL    HW217697   2.921   1.145   7.067
38620SOL     OW17698  13.212   5.751  13.474
38620SOL    HW117699  13.149   5.753  13.402
38620SOL    HW217700  13.158   5.753  13.553
38621SOL     OW17701   6.278   6.409   4.770
38621SOL    HW117702   6.184   6.409   4.750
38621SOL    HW217703   6.305   6.500   4.760
38622SOL     OW17704   1.700   3.330  12.596
38622SOL    HW117705   1.630   3.295  12.651
38622SOL    HW217706   1.657   3.354  12.515
38623SOL     OW17707  11.435   3.825   0.040
38623SOL    HW117708  11.523   3.809   0.006
38623SOL    HW217709  11.386   3.858  14.839
38624SOL     OW17710   8.307   3.060   2.028
38624SOL    HW117711   8.250   3.120   1.981
38624SOL    HW217712   8.294   2.975   1.985
38625SOL     OW17713   7.800   9.265   9.766
38625SOL    HW117714   7.847   9.219   9.835
38625SOL    HW217715   7.718   9.294   9.806
38626SOL     OW17716   1.874   0.902   9.395
38626SOL    HW117717   1.921   0.985   9.391
38626SOL    HW217718   1.786   0.923   9.363
38627SOL     OW17719   8.067  13.858   3.719
38627SOL    HW117720   8.070  13.777   3.769
38627SOL    HW217721   7.977  13.861   3.684
38628SOL     OW17722  12.166   8.781  11.038
38628SOL    HW117723  12.170   8.774  11.134
38628SOL    HW217724  12.173   8.690  11.007
38629SOL     OW17725   6.396  14.636   7.617
38629SOL    HW117726   6.396  14.562   7.557
38629SOL    HW217727   6.380  14.598   7.703
38630SOL     OW17728   5.666  11.229   6.719
38630SOL    HW117729   5.721  11.154   6.741
38630SOL    HW217730   5.662  11.281   6.799
38631SOL     OW17731   0.022   7.287   9.527
38631SOL    HW117732  14.818   7.278   9.582
38631SOL    HW217733  14.870   7.249   9.443
38632SOL     OW17734  14.805   9.189   3.355
38632SOL    HW117735  14.770   9.229   3.275
38632SOL    HW217736  14.740   9.122   3.377
38633SOL     OW17737   7.455  11.934  14.550
38633SOL    HW117738   7.484  11.981  14.629
38633SOL    HW217739   7.444  11.844  14.580
38634SOL     OW17740   4.864  12.601   5.951
38634SOL    HW117741   4.852  12.645   5.867
38634SOL    HW217742   4.959  12.590   5.958
38635SOL     OW17743   6.663   0.436  12.902
38635SOL    HW117744   6.716   0.404  12.976
38635SOL    HW217745   6.598   0.367  12.888
38636SOL     OW17746   3.235   7.800  11.680
38636SOL    HW117747   3.225   7.830  11.771
38636SOL    HW217748   3.329   7.807  11.663
38637SOL     OW17749   7.951   5.773   2.132
38637SOL    HW117750   7.904   5.691   2.120
38637SOL    HW217751   8.035   5.747   2.170
38638SOL     OW17752   8.784  10.176   4.499
38638SOL    HW117753   8.717  10.183   4.431
38638SOL    HW217754   8.829  10.094   4.481
38639SOL     OW17755   9.044  10.093  12.718
38639SOL    HW117756   9.064  10.044  12.797
38639SOL    HW217757   8.984  10.162  12.747
38640SOL     OW17758  10.412   7.738  10.069
38640SOL    HW117759  10.484   7.679  10.092
38640SOL    HW217760  10.435   7.771   9.982
38641SOL     OW17761  10.102   9.752   9.044
38641SOL    HW117762  10.118   9.847   9.045
38641SOL    HW217763  10.073   9.734   8.955
38642SOL     OW17764   7.386  12.623  10.281
38642SOL    HW117765   7.358  12.694  10.223
38642SOL    HW217766   7.478  12.608  10.257
38643SOL     OW17767   8.644   5.832  14.333
38643SOL    HW117768   8.720   5.876  14.296
38643SOL    HW217769   8.623   5.882  14.411
38644SOL     OW17770   3.343   2.166   7.987
38644SOL    HW117771   3.347   2.078   8.025
38644SOL    HW217772   3.277   2.212   8.039
38645SOL     OW17773  14.328   3.983   6.698
38645SOL    HW117774  14.332   3.921   6.771
38645SOL    HW217775  14.235   3.994   6.681
38646SOL     OW17776  14.169  12.410  14.652
38646SOL    HW117777  14.129  12.410  14.565
38646SOL    HW217778  14.118  12.347  14.702
38647SOL     OW17779  13.664   8.421   9.541
38647SOL    HW117780  13.633   8.457   9.458
38647SOL    HW217781  13.651   8.491   9.605
38648SOL     OW17782   5.134   2.848   3.733
38648SOL    HW117783   5.191   2.925   3.725
38648SOL    HW217784   5.045   2.884   3.728
38649SOL     OW17785  10.417  11.154   6.163
38649SOL    HW117786  10.413  11.106   6.081
38649SOL    HW217787  10.509  11.177   6.174
38650SOL     OW17788  10.182   7.218  14.052
38650SOL    HW117789  10.174   7.171  14.135
38650SOL    HW217790  10.227   7.300  14.074
38651SOL     OW17791   1.320   8.891   5.050
38651SOL    HW117792   1.405   8.899   5.008
38651SOL    HW217793   1.339   8.866   5.141
38652SOL     OW17794   0.261   4.765   3.360
38652SOL    HW117795   0.311   4.713   3.298
38652SOL    HW217796   0.325   4.794   3.424
38653SOL     OW17797   3.880   4.101  13.977
38653SOL    HW117798   3.915   4.029  13.925
38653SOL    HW217799   3.845   4.059  14.056
38654SOL     OW17800   5.667  13.335   9.179
38654SOL    HW117801   5.653  13.421   9.220
38654SOL    HW217802   5.585  13.288   9.194
38655SOL     OW17803  10.531   0.797   2.698
38655SOL    HW117804  10.531   0.830   2.608
38655SOL    HW217805  10.579   0.862   2.748
38656SOL     OW17806   3.872   8.676   9.589
38656SOL    HW117807   3.893   8.664   9.681
38656SOL    HW217808   3.954   8.656   9.543
38657SOL     OW17809   4.218  10.948   7.048
38657SOL    HW117810   4.312  10.957   7.062
38657SOL    HW217811   4.205  10.970   6.956
38658SOL     OW17812  11.071   2.077  13.410
38658SOL    HW117813  11.151   2.074  13.462
38658SOL    HW217814  11.001   2.091  13.474
38659SOL     OW17815   4.253   8.267   5.768
38659SOL    HW117816   4.200   8.347   5.782
38659SOL    HW217817   4.338   8.288   5.807
38660SOL     OW17818   2.492   7.959  14.870
38660SOL    HW117819   2.558   7.973   0.064
38660SOL    HW217820   2.409   7.960   0.042
38661SOL     OW17821  14.031   1.978   4.530
38661SOL    HW117822  14.057   1.899   4.484
38661SOL    HW217823  13.965   1.949   4.593
38662SOL     OW17824   2.073   2.514   9.125
38662SOL    HW117825   2.051   2.559   9.207
38662SOL    HW217826   2.168   2.519   9.120
38663SOL     OW17827   0.811  11.381  12.916
38663SOL    HW117828   0.895  11.426  12.902
38663SOL    HW217829   0.759  11.403  12.838
38664SOL     OW17830   8.475   7.158   3.335
38664SOL    HW117831   8.439   7.084   3.384
38664SOL    HW217832   8.515   7.214   3.402
38665SOL     OW17833  13.125  11.195  12.009
38665SOL    HW117834  13.129  11.145  11.928
38665SOL    HW217835  13.209  11.179  12.052
38666SOL     OW17836   9.347   6.220   6.499
38666SOL    HW117837   9.334   6.290   6.563
38666SOL    HW217838   9.280   6.237   6.432
38667SOL     OW17839   1.068   5.079   6.973
38667SOL    HW117840   1.005   5.114   7.036
38667SOL    HW217841   1.145   5.057   7.025
38668SOL     OW17842  14.389   1.799  11.398
38668SOL    HW117843  14.301   1.762  11.410
38668SOL    HW217844  14.395   1.868  11.464
38669SOL     OW17845   9.242   6.535  10.561
38669SOL    HW117846   9.248   6.579  10.476
38669SOL    HW217847   9.149   6.516  10.572
38670SOL     OW17848   5.774  13.725  13.888
38670SOL    HW117849   5.757  13.811  13.850
38670SOL    HW217850   5.867  13.711  13.876
38671SOL     OW17851   7.725   7.643  13.538
38671SOL    HW117852   7.812   7.675  13.513
38671SOL    HW217853   7.724   7.552  13.508
38672SOL     OW17854  11.189   1.856  10.013
38672SOL    HW117855  11.100   1.892  10.013
38672SOL    HW217856  11.188   1.791  10.083
38673SOL     OW17857  13.036   9.958  11.881
38673SOL    HW117858  13.120   9.927  11.915
38673SOL    HW217859  12.973   9.892  11.910
38674SOL     OW17860   3.903  12.482   5.312
38674SOL    HW117861   3.845  12.422   5.264
38674SOL    HW217862   3.858  12.496   5.395
38675SOL     OW17863   3.111   0.577   6.807
38675SOL    HW117864   3.150   0.558   6.721
38675SOL    HW217865   3.101   0.672   6.808
38676SOL     OW17866   6.610  14.643  12.573
38676SOL    HW117867   6.622  14.678  12.485
38676SOL    HW217868   6.697  14.644  12.612
38677SOL     OW17869  12.309   9.899   1.830
38677SOL    HW117870  12.334   9.989   1.811
38677SOL    HW217871  12.353   9.847   1.762
38678SOL     OW17872  10.376   3.272   5.469
38678SOL    HW117873  10.350   3.357   5.506
38678SOL    HW217874  10.333   3.269   5.384
38679SOL     OW17875   1.588   6.016  13.798
38679SOL    HW117876   1.499   5.981  13.804
38679SOL    HW217877   1.587   6.070  13.720
38680SOL     OW17878   1.860   1.287   4.715
38680SOL    HW117879   1.901   1.373   4.700
38680SOL    HW217880   1.913   1.247   4.783
38681SOL     OW17881   2.705   6.823   9.831
38681SOL    HW117882   2.642   6.869   9.887
38681SOL    HW217883   2.671   6.734   9.824
38682SOL     OW17884  11.469   1.596   4.265
38682SOL    HW117885  11.538   1.604   4.199
38682SOL    HW217886  11.401   1.656   4.236
38683SOL     OW17887  13.979   0.765  10.717
38683SOL    HW117888  13.940   0.691  10.762
38683SOL    HW217889  13.923   0.779  10.641
38684SOL     OW17890   5.877   5.160   8.295
38684SOL    HW117891   5.916   5.073   8.293
38684SOL    HW217892   5.813   5.157   8.366
38685SOL     OW17893   8.675   9.071   1.522
38685SOL    HW117894   8.620   8.993   1.519
38685SOL    HW217895   8.669   9.109   1.434
38686SOL     OW17896   0.966   4.066   5.646
38686SOL    HW117897   0.922   4.146   5.615
38686SOL    HW217898   0.953   4.067   5.741
38687SOL     OW17899   9.414  12.343   2.389
38687SOL    HW117900   9.477  12.303   2.329
38687SOL    HW217901   9.443  12.434   2.398
38688SOL     OW17902   2.745   4.665   8.482
38688SOL    HW117903   2.666   4.638   8.435
38688SOL    HW217904   2.790   4.724   8.422
38689SOL     OW17905   5.419   8.380   9.467
38689SOL    HW117906   5.501   8.400   9.421
38689SOL    HW217907   5.415   8.444   9.538
38690SOL     OW17908   7.673   6.988   0.268
38690SOL    HW117909   7.740   6.947   0.213
38690SOL    HW217910   7.603   7.010   0.207
38691SOL     OW17911   1.009  12.853   9.312
38691SOL    HW117912   1.048  12.884   9.230
38691SOL    HW217913   0.947  12.921   9.336
38692SOL     OW17914   9.929  10.120   1.599
38692SOL    HW117915   9.971  10.115   1.513
38692SOL    HW217916   9.897  10.210   1.605
38693SOL     OW17917   6.383   0.726   1.991
38693SOL    HW117918   6.457   0.772   2.029
38693SOL    HW217919   6.331   0.795   1.949
38694SOL     OW17920   4.081   8.096   9.493
38694SOL    HW117921   4.036   8.013   9.477
38694SOL    HW217922   4.174   8.075   9.489
38695SOL     OW17923   7.760   2.800  10.986
38695SOL    HW117924   7.686   2.777  10.930
38695SOL    HW217925   7.801   2.717  11.007
38696SOL     OW17926   9.140  13.680   6.714
38696SOL    HW117927   9.061  13.626   6.725
38696SOL    HW217928   9.111  13.769   6.734
38697SOL     OW17929   9.515   7.399   8.348
38697SOL    HW117930   9.430   7.410   8.391
38697SOL    HW217931   9.507   7.448   8.266
38698SOL     OW17932   8.384   1.097   9.737
38698SOL    HW117933   8.398   1.137   9.823
38698SOL    HW217934   8.405   1.166   9.674
38699SOL     OW17935   6.030   9.259  14.664
38699SOL    HW117936   6.005   9.295  14.749
38699SOL    HW217937   6.125   9.248  14.669
38700SOL     OW17938   6.514   6.519   3.679
38700SOL    HW117939   6.535   6.597   3.628
38700SOL    HW217940   6.558   6.532   3.763
38701SOL     OW17941   9.608  13.482  13.951
38701SOL    HW117942   9.610  13.487  14.047
38701SOL    HW217943   9.515  13.487  13.929
38702SOL     OW17944   7.588   3.542   4.906
38702SOL    HW117945   7.666   3.596   4.916
38702SOL    HW217946   7.533   3.589   4.844
38703SOL     OW17947  14.553  14.191  14.756
38703SOL    HW117948  14.468  14.234  14.769
38703SOL    HW217949  14.600  14.207  14.838
38704SOL     OW17950   5.096  13.182   9.338
38704SOL    HW117951   5.140  13.265   9.358
38704SOL    HW217952   5.004  13.199   9.357
38705SOL     OW17953  11.942  11.887   4.948
38705SOL    HW117954  11.988  11.960   4.990
38705SOL    HW217955  11.969  11.893   4.856
38706SOL     OW17956  14.623  14.723   0.413
38706SOL    HW117957  14.589  14.684   0.493
38706SOL    HW217958  14.605  14.817   0.422
38707SOL     OW17959  12.942  10.852   3.489
38707SOL    HW117960  12.886  10.923   3.457
38707SOL    HW217961  13.031  10.879   3.465
38708SOL     OW17962   2.246   5.656   5.892
38708SOL    HW117963   2.252   5.578   5.947
38708SOL    HW217964   2.249   5.729   5.954
38709SOL     OW17965  12.958   9.675   3.601
38709SOL    HW117966  13.033   9.734   3.597
38709SOL    HW217967  12.989   9.594   3.560
38710SOL     OW17968   2.710   2.858   8.995
38710SOL    HW117969   2.728   2.799   9.068
38710SOL    HW217970   2.743   2.943   9.024
38711SOL     OW17971   2.295   6.057   9.428
38711SOL    HW117972   2.342   6.133   9.463
38711SOL    HW217973   2.298   5.993   9.499
38712SOL     OW17974   4.989   7.789   5.929
38712SOL    HW117975   4.930   7.844   5.981
38712SOL    HW217976   5.072   7.792   5.976
38713SOL     OW17977   0.591   9.798   7.098
38713SOL    HW117978   0.636   9.840   7.025
38713SOL    HW217979   0.508   9.768   7.061
38714SOL     OW17980   9.546   8.519   5.739
38714SOL    HW117981   9.488   8.477   5.676
38714SOL    HW217982   9.542   8.612   5.718
38715SOL     OW17983   8.777   3.996   9.566
38715SOL    HW117984   8.747   4.084   9.591
38715SOL    HW217985   8.848   4.012   9.504
38716SOL     OW17986   1.332   8.778   1.578
38716SOL    HW117987   1.287   8.733   1.650
38716SOL    HW217988   1.308   8.870   1.588
38717SOL     OW17989   9.297   0.931  10.205
38717SOL    HW117990   9.275   1.010  10.156
38717SOL    HW217991   9.218   0.909  10.254
38718SOL     OW17992  12.384   9.853   3.427
38718SOL    HW117993  12.438   9.842   3.349
38718SOL    HW217994  12.319   9.783   3.421
38719SOL     OW17995   0.588   0.904  10.431
38719SOL    HW117996   0.656   0.969  10.447
38719SOL    HW217997   0.532   0.944  10.364
38720SOL     OW17998  12.410   4.328   6.234
38720SOL    HW117999  12.349   4.266   6.274
38720SOL    HW218000  12.411   4.305   6.141
38721SOL     OW18001   5.997   4.649   7.941
38721SOL    HW118002   6.082   4.670   7.902
38721SOL    HW218003   5.943   4.726   7.925
38722SOL     OW18004   3.437   1.861  10.809
38722SOL    HW118005   3.532   1.867  10.814
38722SOL    HW218006   3.419   1.825  10.722
38723SOL     OW18007   0.532  10.044  11.654
38723SOL    HW118008   0.613   9.998  11.671
38723SOL    HW218009   0.558  10.121  11.603
38724SOL     OW18010   3.652   7.089   5.404
38724SOL    HW118011   3.715   7.062   5.471
38724SOL    HW218012   3.634   7.009   5.355
38725SOL     OW18013  10.000   4.920   0.703
38725SOL    HW118014  10.066   4.989   0.700
38725SOL    HW218015  10.019   4.872   0.783
38726SOL     OW18016   9.369   5.834   1.014
38726SOL    HW118017   9.392   5.758   0.960
38726SOL    HW218018   9.377   5.803   1.104
38727SOL     OW18019  12.541   9.815  13.307
38727SOL    HW118020  12.595   9.750  13.262
38727SOL    HW218021  12.504   9.768  13.383
38728SOL     OW18022  10.828   0.792   0.693
38728SOL    HW118023  10.833   0.863   0.628
38728SOL    HW218024  10.834   0.712   0.641
38729SOL     OW18025   5.295   8.481   2.306
38729SOL    HW118026   5.361   8.495   2.238
38729SOL    HW218027   5.219   8.530   2.275
38730SOL     OW18028   9.571  13.613   9.540
38730SOL    HW118029   9.515  13.563   9.480
38730SOL    HW218030   9.547  13.704   9.524
38731SOL     OW18031  13.253   9.029   0.832
38731SOL    HW118032  13.185   9.037   0.898
38731SOL    HW218033  13.299   8.948   0.853
38732SOL     OW18034   6.214  13.734   2.520
38732SOL    HW118035   6.159  13.679   2.575
38732SOL    HW218036   6.303  13.702   2.535
38733SOL     OW18037   8.004  14.301   9.826
38733SOL    HW118038   8.066  14.368   9.798
38733SOL    HW218039   8.020  14.291   9.920
38734SOL     OW18040  14.702   5.262   6.405
38734SOL    HW118041  14.709   5.175   6.365
38734SOL    HW218042  14.632   5.305   6.357
38735SOL     OW18043   4.329  12.455   1.487
38735SOL    HW118044   4.361  12.406   1.412
38735SOL    HW218045   4.386  12.532   1.492
38736SOL     OW18046   5.865  10.274   4.546
38736SOL    HW118047   5.944  10.230   4.515
38736SOL    HW218048   5.882  10.292   4.638
38737SOL     OW18049  10.594  12.214   4.378
38737SOL    HW118050  10.629  12.126   4.371
38737SOL    HW218051  10.502  12.202   4.403
38738SOL     OW18052  10.933   4.102   9.960
38738SOL    HW118053  10.917   4.018   9.917
38738SOL    HW218054  10.940   4.080  10.053
38739SOL     OW18055   3.692   8.822   5.953
38739SOL    HW118056   3.686   8.865   6.039
38739SOL    HW218057   3.720   8.733   5.973
38740SOL     OW18058   1.995   1.224   9.473
38740SOL    HW118059   2.071   1.179   9.510
38740SOL    HW218060   1.994   1.198   9.381
38741SOL     OW18061   0.614   5.774   0.352
38741SOL    HW118062   0.535   5.772   0.298
38741SOL    HW218063   0.597   5.712   0.422
38742SOL     OW18064   9.585  12.876   0.982
38742SOL    HW118065   9.545  12.951   0.940
38742SOL    HW218066   9.565  12.885   1.075
38743SOL     OW18067   5.826   0.724  12.798
38743SOL    HW118068   5.801   0.811  12.768
38743SOL    HW218069   5.743   0.678  12.810
38744SOL     OW18070   8.301   0.055  10.994
38744SOL    HW118071   8.302   0.150  11.000
38744SOL    HW218072   8.281   0.037  10.902
38745SOL     OW18073   0.028   0.751  14.621
38745SOL    HW118074   0.108   0.728  14.575
38745SOL    HW218075   0.045   0.838  14.657
38746SOL     OW18076   4.795  10.959  12.676
38746SOL    HW118077   4.762  11.023  12.613
38746SOL    HW218078   4.787  10.875  12.631
38747SOL     OW18079   6.480  11.949   3.412
38747SOL    HW118080   6.464  11.952   3.318
38747SOL    HW218081   6.490  11.855   3.432
38748SOL     OW18082   4.017  11.084  13.618
38748SOL    HW118083   3.997  11.170  13.656
38748SOL    HW218084   4.010  11.098  13.523
38749SOL     OW18085   2.654   6.517   0.726
38749SOL    HW118086   2.618   6.466   0.798
38749SOL    HW218087   2.687   6.451   0.664
38750SOL     OW18088   0.694   1.207  13.038
38750SOL    HW118089   0.642   1.194  12.959
38750SOL    HW218090   0.782   1.176  13.014
38751SOL     OW18091   7.459   7.166   0.321
38751SOL    HW118092   7.454   7.126   0.234
38751SOL    HW218093   7.498   7.252   0.306
38752SOL     OW18094   0.376  10.018  12.755
38752SOL    HW118095   0.358  10.060  12.839
38752SOL    HW218096   0.463  10.051  12.730
38753SOL     OW18097   5.366   1.022  11.451
38753SOL    HW118098   5.309   0.970  11.395
38753SOL    HW218099   5.337   1.002  11.540
38754SOL     OW18100   4.121   3.248   0.127
38754SOL    HW118101   4.131   3.172   0.183
38754SOL    HW218102   4.028   3.269   0.129
38755SOL     OW18103   3.503  11.624   9.734
38755SOL    HW118104   3.587  11.577   9.741
38755SOL    HW218105   3.485  11.627   9.640
38756SOL     OW18106   2.336   0.452  10.338
38756SOL    HW118107   2.332   0.544  10.365
38756SOL    HW218108   2.354   0.456  10.244
38757SOL     OW18109   4.354  11.045   8.365
38757SOL    HW118110   4.272  11.007   8.332
38757SOL    HW218111   4.368  11.001   8.449
38758SOL     OW18112   8.312   1.097   0.771
38758SOL    HW118113   8.272   1.164   0.715
38758SOL    HW218114   8.318   1.138   0.857
38759SOL     OW18115   7.710   8.377  14.293
38759SOL    HW118116   7.644   8.359  14.360
38759SOL    HW218117   7.794   8.365  14.339
38760SOL     OW18118   5.184   8.916   6.750
38760SOL    HW118119   5.173   9.008   6.726
38760SOL    HW218120   5.095   8.882   6.752
38761SOL     OW18121  13.506  13.220   6.577
38761SOL    HW118122  13.435  13.213   6.640
38761SOL    HW218123  13.532  13.312   6.581
38762SOL     OW18124   7.948   2.353   2.507
38762SOL    HW118125   7.967   2.344   2.600
38762SOL    HW218126   8.028   2.389   2.470
38763SOL     OW18127   9.430   0.185  10.627
38763SOL    HW118128   9.338   0.173  10.648
38763SOL    HW218129   9.431   0.209  10.534
38764SOL     OW18130   1.200   9.068   8.822
38764SOL    HW118131   1.143   8.990   8.822
38764SOL    HW218132   1.171   9.118   8.898
38765SOL     OW18133   9.363   5.130   5.902
38765SOL    HW118134   9.391   5.040   5.916
38765SOL    HW218135   9.278   5.121   5.858
38766SOL     OW18136  12.960   6.890   9.750
38766SOL    HW118137  12.940   6.982   9.734
38766SOL    HW218138  12.909   6.843   9.684
38767SOL     OW18139  11.626  11.710  10.762
38767SOL    HW118140  11.674  11.780  10.806
38767SOL    HW218141  11.598  11.653  10.834
38768SOL     OW18142   4.410   8.697   6.960
38768SOL    HW118143   4.451   8.700   6.874
38768SOL    HW218144   4.461   8.632   7.009
38769SOL     OW18145  12.743  10.019  14.371
38769SOL    HW118146  12.667  10.026  14.313
38769SOL    HW218147  12.769  10.110  14.387
38770SOL     OW18148  11.965  14.355   1.438
38770SOL    HW118149  11.960  14.271   1.393
38770SOL    HW218150  11.972  14.420   1.368
38771SOL     OW18151   6.119   7.960  14.685
38771SOL    HW118152   6.169   7.928  14.760
38771SOL    HW218153   6.030   7.926  14.699
38772SOL     OW18154  11.311   3.268   0.831
38772SOL    HW118155  11.312   3.187   0.779
38772SOL    HW218156  11.222   3.274   0.866
38773SOL     OW18157   2.454   3.745   5.580
38773SOL    HW118158   2.412   3.661   5.561
38773SOL    HW218159   2.432   3.800   5.506
38774SOL     OW18160  12.729  12.845   9.803
38774SOL    HW118161  12.675  12.897   9.745
38774SOL    HW218162  12.730  12.894   9.885
38775SOL     OW18163   8.986   2.917   0.091
38775SOL    HW118164   9.034   2.996   0.117
38775SOL    HW218165   9.028   2.846   0.140
38776SOL     OW18166   4.934   3.999   6.620
38776SOL    HW118167   4.991   4.075   6.609
38776SOL    HW218168   4.892   4.012   6.705
38777SOL     OW18169   1.062  12.078   1.425
38777SOL    HW118170   0.994  12.145   1.416
38777SOL    HW218171   1.036  12.027   1.502
38778SOL     OW18172   1.680   1.166  14.152
38778SOL    HW118173   1.656   1.222  14.226
38778SOL    HW218174   1.767   1.134  14.173
38779SOL     OW18175   2.529   4.446  11.350
38779SOL    HW118176   2.511   4.461  11.443
38779SOL    HW218177   2.623   4.461  11.341
38780SOL     OW18178  11.157   0.508  13.424
38780SOL    HW118179  11.073   0.492  13.469
38780SOL    HW218180  11.197   0.421  13.418
38781SOL     OW18181  11.239   4.317   8.201
38781SOL    HW118182  11.318   4.318   8.254
38781SOL    HW218183  11.244   4.397   8.148
38782SOL     OW18184   0.698  10.472  10.076
38782SOL    HW118185   0.655  10.482   9.991
38782SOL    HW218186   0.779  10.425  10.057
38783SOL     OW18187  14.205   9.608  12.871
38783SOL    HW118188  14.272   9.607  12.802
38783SOL    HW218189  14.124   9.588  12.825
38784SOL     OW18190   9.352  13.528   8.893
38784SOL    HW118191   9.417  13.569   8.950
38784SOL    HW218192   9.402  13.498   8.818
38785SOL     OW18193   6.368   7.588   8.462
38785SOL    HW118194   6.431   7.660   8.457
38785SOL    HW218195   6.422   7.510   8.474
38786SOL     OW18196  13.833   5.457   8.779
38786SOL    HW118197  13.912   5.509   8.759
38786SOL    HW218198  13.772   5.479   8.710
38787SOL     OW18199  13.881   8.747   3.572
38787SOL    HW118200  13.922   8.813   3.516
38787SOL    HW218201  13.923   8.759   3.657
38788SOL     OW18202  13.101  12.100  10.441
38788SOL    HW118203  13.099  12.049  10.522
38788SOL    HW218204  13.178  12.068  10.394
38789SOL     OW18205   5.459  10.146   8.810
38789SOL    HW118206   5.468  10.160   8.716
38789SOL    HW218207   5.366  10.161   8.828
38790SOL     OW18208   7.863   5.233   0.802
38790SOL    HW118209   7.873   5.167   0.733
38790SOL    HW218210   7.903   5.312   0.764
38791SOL     OW18211   5.018   2.619  10.103
38791SOL    HW118212   5.111   2.599  10.094
38791SOL    HW218213   4.984   2.551  10.161
38792SOL     OW18214  14.615   9.097   9.966
38792SOL    HW118215  14.522   9.095   9.948
38792SOL    HW218216  14.644   9.184   9.938
38793SOL     OW18217  14.134   3.383   0.198
38793SOL    HW118218  14.147   3.442   0.272
38793SOL    HW218219  14.157   3.296   0.232
38794SOL     OW18220  14.240   1.941   2.018
38794SOL    HW118221  14.336   1.943   2.020
38794SOL    HW218222  14.219   1.907   1.930
38795SOL     OW18223   2.362  11.221   0.602
38795SOL    HW118224   2.299  11.237   0.532
38795SOL    HW218225   2.311  11.176   0.670
38796SOL     OW18226   3.607  10.634  10.378
38796SOL    HW118227   3.588  10.666  10.290
38796SOL    HW218228   3.535  10.575  10.399
38797SOL     OW18229   0.888   0.122   6.748
38797SOL    HW118230   0.794   0.121   6.766
38797SOL    HW218231   0.928   0.146   6.832
38798SOL     OW18232   4.703   0.333  13.264
38798SOL    HW118233   4.655   0.313  13.184
38798SOL    HW218234   4.771   0.266  13.269
38799SOL     OW18235   6.635   4.378  13.848
38799SOL    HW118236   6.558   4.345  13.802
38799SOL    HW218237   6.601   4.440  13.912
38800SOL     OW18238   5.255  14.505  12.972
38800SOL    HW118239   5.265  14.480  12.880
38800SOL    HW218240   5.230  14.424  13.016
38801SOL     OW18241  12.084   4.907  13.588
38801SOL    HW118242  12.001   4.870  13.620
38801SOL    HW218243  12.144   4.899  13.663
38802SOL     OW18244   4.117  10.203   6.007
38802SOL    HW118245   4.055  10.134   6.030
38802SOL    HW218246   4.074  10.252   5.937
38803SOL     OW18247   7.539  12.638   4.449
38803SOL    HW118248   7.554  12.732   4.443
38803SOL    HW218249   7.444  12.629   4.454
38804SOL     OW18250   2.768   8.588   1.410
38804SOL    HW118251   2.714   8.565   1.334
38804SOL    HW218252   2.758   8.682   1.419
38805SOL     OW18253  13.547   0.023   1.076
38805SOL    HW118254  13.530   0.041   1.168
38805SOL    HW218255  13.461   0.034   1.034
38806SOL     OW18256   5.484   9.191   8.237
38806SOL    HW118257   5.548   9.223   8.174
38806SOL    HW218258   5.474   9.098   8.216
38807SOL     OW18259  14.123   1.495   6.149
38807SOL    HW118260  14.152   1.433   6.215
38807SOL    HW218261  14.178   1.477   6.073
38808SOL     OW18262   6.379   9.274   5.343
38808SOL    HW118263   6.464   9.308   5.318
38808SOL    HW218264   6.364   9.200   5.285
38809SOL     OW18265   6.251   2.453   5.434
38809SOL    HW118266   6.210   2.440   5.349
38809SOL    HW218267   6.190   2.413   5.497
38810SOL     OW18268   1.383   4.646   9.558
38810SOL    HW118269   1.433   4.569   9.531
38810SOL    HW218270   1.293   4.626   9.534
38811SOL     OW18271   4.094   4.683  13.097
38811SOL    HW118272   4.046   4.754  13.141
38811SOL    HW218273   4.095   4.612  13.160
38812SOL     OW18274   3.001   6.363  10.008
38812SOL    HW118275   3.013   6.453  10.038
38812SOL    HW218276   3.019   6.310  10.085
38813SOL     OW18277   4.812  10.101   7.429
38813SOL    HW118278   4.735  10.141   7.470
38813SOL    HW218279   4.869  10.175   7.409
38814SOL     OW18280   4.144   0.376   6.178
38814SOL    HW118281   4.096   0.452   6.146
38814SOL    HW218282   4.077   0.307   6.186
38815SOL     OW18283   7.619   5.722   5.960
38815SOL    HW118284   7.567   5.642   5.955
38815SOL    HW218285   7.566   5.782   6.011
38816SOL     OW18286  11.679   9.891   3.041
38816SOL    HW118287  11.662   9.974   2.995
38816SOL    HW218288  11.655   9.823   2.978
38817SOL     OW18289   5.756   5.992   5.775
38817SOL    HW118290   5.698   5.946   5.837
38817SOL    HW218291   5.732   5.957   5.689
38818SOL     OW18292  13.217   4.576   0.830
38818SOL    HW118293  13.293   4.629   0.856
38818SOL    HW218294  13.145   4.639   0.826
38819SOL     OW18295  12.656   5.821   1.993
38819SOL    HW118296  12.722   5.795   1.930
38819SOL    HW218297  12.619   5.739   2.025
38820SOL     OW18298   5.777   4.859   3.466
38820SOL    HW118299   5.698   4.907   3.490
38820SOL    HW218300   5.746   4.788   3.410
38821SOL     OW18301   4.711   3.607   7.526
38821SOL    HW118302   4.707   3.662   7.448
38821SOL    HW218303   4.797   3.565   7.521
38822SOL     OW18304   4.632   7.547   7.608
38822SOL    HW118305   4.606   7.558   7.700
38822SOL    HW218306   4.550   7.534   7.561
38823SOL     OW18307  12.497   4.090   5.012
38823SOL    HW118308  12.516   4.173   4.967
38823SOL    HW218309  12.569   4.032   4.987
38824SOL     OW18310   9.455  10.319   2.887
38824SOL    HW118311   9.524  10.274   2.935
38824SOL    HW218312   9.386  10.334   2.952
38825SOL     OW18313  12.226   5.605   4.256
38825SOL    HW118314  12.203   5.554   4.178
38825SOL    HW218315  12.177   5.686   4.247
38826SOL     OW18316   2.955   1.279   9.697
38826SOL    HW118317   3.000   1.202   9.662
38826SOL    HW218318   2.866   1.249   9.715
38827SOL     OW18319   6.527  14.441  13.953
38827SOL    HW118320   6.554  14.353  13.924
38827SOL    HW218321   6.585  14.461  14.026
38828SOL     OW18322   3.975  10.074   2.615
38828SOL    HW118323   4.018  10.056   2.698
38828SOL    HW218324   3.955  10.168   2.617
38829SOL     OW18325   3.625   2.290   3.162
38829SOL    HW118326   3.630   2.258   3.072
38829SOL    HW218327   3.618   2.211   3.215
38830SOL     OW18328  12.112   3.491   5.839
38830SOL    HW118329  12.204   3.518   5.847
38830SOL    HW218330  12.115   3.411   5.786
38831SOL     OW18331   1.127   0.265  13.813
38831SOL    HW118332   1.144   0.320  13.889
38831SOL    HW218333   1.036   0.284  13.790
38832SOL     OW18334   3.530  12.169   2.589
38832SOL    HW118335   3.586  12.243   2.565
38832SOL    HW218336   3.458  12.173   2.527
38833SOL     OW18337  12.020   7.131  11.611
38833SOL    HW118338  12.068   7.145  11.693
38833SOL    HW218339  11.947   7.193  11.615
38834SOL     OW18340   6.367  10.999  10.452
38834SOL    HW118341   6.322  11.019  10.534
38834SOL    HW218342   6.315  11.041  10.384
38835SOL     OW18343   9.077   1.216   8.097
38835SOL    HW118344   9.069   1.311   8.086
38835SOL    HW218345   8.987   1.184   8.090
38836SOL     OW18346  10.957   7.213  12.405
38836SOL    HW118347  11.006   7.277  12.354
38836SOL    HW218348  10.991   7.128  12.376
38837SOL     OW18349  12.640   4.041   9.540
38837SOL    HW118350  12.699   4.113   9.521
38837SOL    HW218351  12.646   3.983   9.464
38838SOL     OW18352  13.386   5.841  14.382
38838SOL    HW118353  13.333   5.778  14.430
38838SOL    HW218354  13.470   5.842  14.427
38839SOL     OW18355  13.102   0.761   0.975
38839SOL    HW118356  13.096   0.838   1.031
38839SOL    HW218357  13.127   0.795   0.889
38840SOL     OW18358   6.809   4.805  11.065
38840SOL    HW118359   6.770   4.817  11.151
38840SOL    HW218360   6.806   4.891  11.024
38841SOL     OW18361   4.028   6.212  12.372
38841SOL    HW118362   4.097   6.203  12.439
38841SOL    HW218363   4.075   6.209  12.289
38842SOL     OW18364   1.209  13.071   9.961
38842SOL    HW118365   1.198  12.984  10.000
38842SOL    HW218366   1.242  13.055   9.873
38843SOL     OW18367   4.371   8.761   2.407
38843SOL    HW118368   4.424   8.835   2.438
38843SOL    HW218369   4.422   8.724   2.335
38844SOL     OW18370   0.206   7.964   4.366
38844SOL    HW118371   0.187   7.970   4.459
38844SOL    HW218372   0.149   7.894   4.334
38845SOL     OW18373   3.136  11.294  14.224
38845SOL    HW118374   3.169  11.327  14.308
38845SOL    HW218375   3.184  11.344  14.158
38846SOL     OW18376   2.687   8.528   4.891
38846SOL    HW118377   2.665   8.550   4.800
38846SOL    HW218378   2.622   8.463   4.917
38847SOL     OW18379  10.809   9.574  10.845
38847SOL    HW118380  10.742   9.507  10.862
38847SOL    HW218381  10.840   9.599  10.932
38848SOL     OW18382  11.719   7.618  12.281
38848SOL    HW118383  11.791   7.598  12.221
38848SOL    HW218384  11.660   7.543  12.273
38849SOL     OW18385   5.225   1.083  14.602
38849SOL    HW118386   5.228   0.992  14.572
38849SOL    HW218387   5.292   1.088  14.670
38850SOL     OW18388  10.042  13.996   5.670
38850SOL    HW118389  10.017  13.904   5.678
38850SOL    HW218390   9.960  14.042   5.652
38851SOL     OW18391   7.396  12.411  11.034
38851SOL    HW118392   7.356  12.324  11.036
38851SOL    HW218393   7.463  12.408  11.102
38852SOL     OW18394  10.025   5.536   1.334
38852SOL    HW118395  10.045   5.535   1.427
38852SOL    HW218396  10.025   5.443   1.309
38853SOL     OW18397   1.908   2.034  14.833
38853SOL    HW118398   1.892   1.939  14.833
38853SOL    HW218399   1.832   2.070  14.788
38854SOL     OW18400   9.052  10.026   3.853
38854SOL    HW118401   8.987  10.074   3.905
38854SOL    HW218402   9.125  10.013   3.913
38855SOL     OW18403  13.240   7.075   4.282
38855SOL    HW118404  13.256   7.119   4.199
38855SOL    HW218405  13.194   7.140   4.335
38856SOL     OW18406  10.007   6.230  13.719
38856SOL    HW118407   9.987   6.263  13.806
38856SOL    HW218408  10.065   6.295  13.680
38857SOL     OW18409   3.735   0.243  13.954
38857SOL    HW118410   3.659   0.252  13.896
38857SOL    HW218411   3.700   0.208  14.035
38858SOL     OW18412  12.157   0.098   0.758
38858SOL    HW118413  12.093   0.030   0.776
38858SOL    HW218414  12.208   0.105   0.839
38859SOL     OW18415   6.720   3.109  13.889
38859SOL    HW118416   6.692   3.092  13.799
38859SOL    HW218417   6.711   3.203  13.900
38860SOL     OW18418   4.119   6.293   4.545
38860SOL    HW118419   4.204   6.299   4.502
38860SOL    HW218420   4.056   6.323   4.479
38861SOL     OW18421   1.449  10.680   1.372
38861SOL    HW118422   1.522  10.649   1.425
38861SOL    HW218423   1.403  10.742   1.428
38862SOL     OW18424   4.280   7.272   6.819
38862SOL    HW118425   4.292   7.342   6.754
38862SOL    HW218426   4.186   7.268   6.834
38863SOL     OW18427   9.281   5.294   8.894
38863SOL    HW118428   9.361   5.310   8.943
38863SOL    HW218429   9.304   5.313   8.803
38864SOL     OW18430   5.698   8.807   1.863
38864SOL    HW118431   5.668   8.889   1.822
38864SOL    HW218432   5.685   8.821   1.957
38865SOL     OW18433  14.166  10.977   6.505
38865SOL    HW118434  14.147  10.883   6.507
38865SOL    HW218435  14.262  10.981   6.507
38866SOL     OW18436  11.769   6.398   9.571
38866SOL    HW118437  11.797   6.450   9.646
38866SOL    HW218438  11.805   6.444   9.495
38867SOL     OW18439   3.105   0.580   8.792
38867SOL    HW118440   3.025   0.615   8.832
38867SOL    HW218441   3.075   0.535   8.713
38868SOL     OW18442   4.629   8.089   6.387
38868SOL    HW118443   4.656   8.038   6.463
38868SOL    HW218444   4.610   8.176   6.421
38869SOL     OW18445  13.650  14.725   3.239
38869SOL    HW118446  13.621  14.804   3.194
38869SOL    HW218447  13.589  14.657   3.211
38870SOL     OW18448   9.907  11.597   5.711
38870SOL    HW118449   9.997  11.614   5.740
38870SOL    HW218450   9.890  11.664   5.645
38871SOL     OW18451   6.483  10.567  11.462
38871SOL    HW118452   6.410  10.515  11.429
38871SOL    HW218453   6.504  10.528  11.546
38872SOL     OW18454   6.499   5.883  12.295
38872SOL    HW118455   6.413   5.906  12.260
38872SOL    HW218456   6.483   5.865  12.388
38873SOL     OW18457  13.476   9.512   2.726
38873SOL    HW118458  13.498   9.605   2.723
38873SOL    HW218459  13.495   9.480   2.637
38874SOL     OW18460   8.727   7.117  12.482
38874SOL    HW118461   8.687   7.065  12.413
38874SOL    HW218462   8.711   7.068  12.562
38875SOL     OW18463   3.838  14.654   5.457
38875SOL    HW118464   3.821  14.680   5.366
38875SOL    HW218465   3.777  14.706   5.509
38876SOL     OW18466   5.975   3.162  14.542
38876SOL    HW118467   6.013   3.143  14.627
38876SOL    HW218468   5.930   3.082  14.517
38877SOL     OW18469  13.908   1.993   6.743
38877SOL    HW118470  13.855   1.913   6.741
38877SOL    HW218471  13.998   1.964   6.730
38878SOL     OW18472  13.347  14.347   9.888
38878SOL    HW118473  13.300  14.279   9.840
38878SOL    HW218474  13.350  14.314   9.978
38879SOL     OW18475   6.759   9.735   6.044
38879SOL    HW118476   6.779   9.740   6.137
38879SOL    HW218477   6.731   9.644   6.030
38880SOL     OW18478  11.209   4.560   2.540
38880SOL    HW118479  11.208   4.573   2.445
38880SOL    HW218480  11.243   4.472   2.552
38881SOL     OW18481   8.599   7.966   4.817
38881SOL    HW118482   8.539   7.922   4.877
38881SOL    HW218483   8.685   7.927   4.837
38882SOL     OW18484   6.256   5.342  10.656
38882SOL    HW118485   6.209   5.416  10.618
38882SOL    HW218486   6.191   5.273  10.661
38883SOL     OW18487   9.504   3.724   8.158
38883SOL    HW118488   9.591   3.725   8.197
38883SOL    HW218489   9.505   3.795   8.093
38884SOL     OW18490   3.410   1.138   2.300
38884SOL    HW118491   3.348   1.084   2.349
38884SOL    HW218492   3.453   1.076   2.240
38885SOL     OW18493   9.991   0.140   3.415
38885SOL    HW118494  10.052   0.207   3.381
38885SOL    HW218495   9.976   0.167   3.506
38886SOL     OW18496   0.334   6.747   2.163
38886SOL    HW118497   0.244   6.778   2.160
38886SOL    HW218498   0.378   6.789   2.089
38887SOL     OW18499   3.162   0.937  12.845
38887SOL    HW118500   3.093   0.925  12.779
38887SOL    HW218501   3.238   0.893  12.808
38888SOL     OW18502   9.937   0.001  11.943
38888SOL    HW118503   9.893  14.826  12.012
38888SOL    HW218504  10.030  14.868  11.963
38889SOL     OW18505   4.505   1.672  10.645
38889SOL    HW118506   4.473   1.711  10.564
38889SOL    HW218507   4.534   1.746  10.698
38890SOL     OW18508  10.862   8.756   0.435
38890SOL    HW118509  10.910   8.747   0.518
38890SOL    HW218510  10.791   8.817   0.456
38891SOL     OW18511   4.072  10.322  14.636
38891SOL    HW118512   4.146  10.279  14.594
38891SOL    HW218513   4.013  10.250  14.659
38892SOL     OW18514  12.602   0.268   2.856
38892SOL    HW118515  12.598   0.179   2.889
38892SOL    HW218516  12.696   0.289   2.852
38893SOL     OW18517   1.052   8.000  14.851
38893SOL    HW118518   1.108   8.033  14.781
38893SOL    HW218519   1.047   8.072   0.039
38894SOL     OW18520   0.156   5.646  13.517
38894SOL    HW118521   0.170   5.553  13.500
38894SOL    HW218522   0.081   5.669  13.463
38895SOL     OW18523  10.527   7.299   1.144
38895SOL    HW118524  10.614   7.261   1.133
38895SOL    HW218525  10.501   7.273   1.233
38896SOL     OW18526   4.203   8.924   5.665
38896SOL    HW118527   4.170   9.004   5.706
38896SOL    HW218528   4.134   8.859   5.679
38897SOL     OW18529   3.189   7.808   2.558
38897SOL    HW118530   3.188   7.881   2.496
38897SOL    HW218531   3.108   7.817   2.607
38898SOL     OW18532  11.352   0.076  10.286
38898SOL    HW118533  11.316   0.165  10.291
38898SOL    HW218534  11.274   0.020  10.279
38899SOL     OW18535   3.344   8.655   3.357
38899SOL    HW118536   3.310   8.623   3.273
38899SOL    HW218537   3.406   8.587   3.384
38900SOL     OW18538   3.375  14.731   3.073
38900SOL    HW118539   3.337  14.803   3.023
38900SOL    HW218540   3.368  14.655   3.014
38901SOL     OW18541   9.010   8.579   6.925
38901SOL    HW118542   9.041   8.491   6.947
38901SOL    HW218543   9.091   8.631   6.921
38902SOL     OW18544   2.061   5.607   3.516
38902SOL    HW118545   2.133   5.588   3.577
38902SOL    HW218546   1.984   5.617   3.573
38903SOL     OW18547   4.220   5.193  14.701
38903SOL    HW118548   4.250   5.246  14.627
38903SOL    HW218549   4.238   5.103  14.674
38904SOL     OW18550   5.591  10.738   8.963
38904SOL    HW118551   5.615  10.781   8.881
38904SOL    HW218552   5.617  10.801   9.031
38905SOL     OW18553   2.203  10.379   3.998
38905SOL    HW118554   2.252  10.412   3.922
38905SOL    HW218555   2.171  10.293   3.970
38906SOL     OW18556  10.683  10.432  11.578
38906SOL    HW118557  10.701  10.351  11.626
38906SOL    HW218558  10.635  10.403  11.500
38907SOL     OW18559   1.173   3.255  13.267
38907SOL    HW118560   1.134   3.325  13.319
38907SOL    HW218561   1.233   3.300  13.208
38908SOL     OW18562   8.074  11.824   7.997
38908SOL    HW118563   8.102  11.835   8.088
38908SOL    HW218564   7.979  11.812   8.002
38909SOL     OW18565   9.636  14.721   0.864
38909SOL    HW118566   9.569  14.662   0.897
38909SOL    HW218567   9.678  14.672   0.793
38910SOL     OW18568   1.291   8.585   9.427
38910SOL    HW118569   1.311   8.530   9.502
38910SOL    HW218570   1.261   8.668   9.465
38911SOL     OW18571   6.780   3.798   5.830
38911SOL    HW118572   6.873   3.788   5.847
38911SOL    HW218573   6.737   3.761   5.908
38912SOL     OW18574   9.364   8.583   8.619
38912SOL    HW118575   9.302   8.526   8.574
38912SOL    HW218576   9.309   8.639   8.674
38913SOL     OW18577   0.708  12.320  11.299
38913SOL    HW118578   0.754  12.309  11.216
38913SOL    HW218579   0.735  12.244  11.351
38914SOL     OW18580   6.888  13.398  10.687
38914SOL    HW118581   6.936  13.480  10.695
38914SOL    HW218582   6.822  13.401  10.756
38915SOL     OW18583  10.355  12.728   4.540
38915SOL    HW118584  10.413  12.661   4.576
38915SOL    HW218585  10.412  12.783   4.486
38916SOL     OW18586   2.146   9.157   2.603
38916SOL    HW118587   2.157   9.157   2.508
38916SOL    HW218588   2.074   9.095   2.618
38917SOL     OW18589   2.330  13.188   1.292
38917SOL    HW118590   2.372  13.106   1.265
38917SOL    HW218591   2.279  13.214   1.215
38918SOL     OW18592   7.521  11.490   2.529
38918SOL    HW118593   7.447  11.499   2.588
38918SOL    HW218594   7.598  11.493   2.586
38919SOL     OW18595   5.429   5.182   5.481
38919SOL    HW118596   5.496   5.157   5.545
38919SOL    HW218597   5.355   5.124   5.500
38920SOL     OW18598   2.967  10.944  11.589
38920SOL    HW118599   2.886  10.965  11.542
38920SOL    HW218600   2.974  10.848  11.582
38921SOL     OW18601   8.107   5.412   3.988
38921SOL    HW118602   8.158   5.487   3.958
38921SOL    HW218603   8.031   5.411   3.930
38922SOL     OW18604   6.550   5.708   3.319
38922SOL    HW118605   6.640   5.714   3.353
38922SOL    HW218606   6.507   5.646   3.377
38923SOL     OW18607   2.783   6.867   3.727
38923SOL    HW118608   2.799   6.932   3.658
38923SOL    HW218609   2.736   6.796   3.683
38924SOL     OW18610   8.325   2.297   7.109
38924SOL    HW118611   8.340   2.343   7.192
38924SOL    HW218612   8.328   2.365   7.042
38925SOL     OW18613   2.050  11.648  13.295
38925SOL    HW118614   2.076  11.623  13.384
38925SOL    HW218615   2.097  11.730  13.279
38926SOL     OW18616   3.376   3.151   4.654
38926SOL    HW118617   3.287   3.173   4.628
38926SOL    HW218618   3.406   3.226   4.706
38927SOL     OW18619   8.067  13.102   3.609
38927SOL    HW118620   8.042  13.036   3.544
38927SOL    HW218621   8.075  13.053   3.691
38928SOL     OW18622   4.824  10.935   3.094
38928SOL    HW118623   4.820  10.846   3.128
38928SOL    HW218624   4.747  10.978   3.131
38929SOL     OW18625   1.175  12.929   0.944
38929SOL    HW118626   1.109  12.977   0.894
38929SOL    HW218627   1.256  12.975   0.927
38930SOL     OW18628   4.943  11.179   8.915
38930SOL    HW118629   4.888  11.257   8.920
38930SOL    HW218630   5.032  11.213   8.906
38931SOL     OW18631   2.023   2.379   2.505
38931SOL    HW118632   2.041   2.390   2.598
38931SOL    HW218633   2.074   2.302   2.479
38932SOL     OW18634  13.703  12.131   5.293
38932SOL    HW118635  13.631  12.073   5.271
38932SOL    HW218636  13.780  12.091   5.253
38933SOL     OW18637  10.186   4.138   1.559
38933SOL    HW118638  10.095   4.166   1.564
38933SOL    HW218639  10.237   4.218   1.574
38934SOL     OW18640   0.797   9.554   1.718
38934SOL    HW118641   0.840   9.608   1.652
38934SOL    HW218642   0.709   9.593   1.726
38935SOL     OW18643  12.176   0.445   4.928
38935SOL    HW118644  12.208   0.386   4.859
38935SOL    HW218645  12.255   0.480   4.969
38936SOL     OW18646  12.797   4.087  13.324
38936SOL    HW118647  12.734   4.015  13.334
38936SOL    HW218648  12.828   4.079  13.234
38937SOL     OW18649   7.419   7.017   1.601
38937SOL    HW118650   7.381   7.047   1.519
38937SOL    HW218651   7.484   6.952   1.576
38938SOL     OW18652  14.033  10.972   3.308
38938SOL    HW118653  14.109  11.027   3.325
38938SOL    HW218654  14.051  10.930   3.224
38939SOL     OW18655   4.160  13.056  11.778
38939SOL    HW118656   4.211  12.999  11.837
38939SOL    HW218657   4.161  13.011  11.694
38940SOL     OW18658  13.665   0.834   9.834
38940SOL    HW118659  13.635   0.901   9.773
38940SOL    HW218660  13.607   0.843   9.910
38941SOL     OW18661   4.540   2.856  10.260
38941SOL    HW118662   4.475   2.926  10.254
38941SOL    HW218663   4.621   2.896  10.230
38942SOL     OW18664   2.146   1.581  11.160
38942SOL    HW118665   2.168   1.626  11.078
38942SOL    HW218666   2.053   1.558  11.150
38943SOL     OW18667  14.862   0.320  12.071
38943SOL    HW118668   0.005   0.278  12.155
38943SOL    HW218669   0.069   0.308  12.021
38944SOL     OW18670  12.154  13.669   2.269
38944SOL    HW118671  12.097  13.677   2.192
38944SOL    HW218672  12.240  13.648   2.233
38945SOL     OW18673   8.871   3.279   4.271
38945SOL    HW118674   8.877   3.374   4.264
38945SOL    HW218675   8.945   3.254   4.326
38946SOL     OW18676  10.223   1.607  13.752
38946SOL    HW118677  10.224   1.513  13.737
38946SOL    HW218678  10.155   1.621  13.818
38947SOL     OW18679   1.800   9.817   1.125
38947SOL    HW118680   1.842   9.741   1.085
38947SOL    HW218681   1.859   9.890   1.105
38948SOL     OW18682  11.391   7.540   9.576
38948SOL    HW118683  11.436   7.622   9.553
38948SOL    HW218684  11.319   7.535   9.513
38949SOL     OW18685   4.226  11.863   3.728
38949SOL    HW118686   4.183  11.779   3.740
38949SOL    HW218687   4.169  11.910   3.667
38950SOL     OW18688  14.252  11.093   7.673
38950SOL    HW118689  14.214  11.058   7.592
38950SOL    HW218690  14.194  11.165   7.697
38951SOL     OW18691   9.748   8.104   7.564
38951SOL    HW118692   9.798   8.084   7.485
38951SOL    HW218693   9.657   8.091   7.539
38952SOL     OW18694  13.477   7.746   5.552
38952SOL    HW118695  13.437   7.747   5.464
38952SOL    HW218696  13.530   7.666   5.553
38953SOL     OW18697  10.283   7.648   8.860
38953SOL    HW118698  10.329   7.727   8.834
38953SOL    HW218699  10.345   7.577   8.843
38954SOL     OW18700   9.145   3.229  10.545
38954SOL    HW118701   9.102   3.236  10.460
38954SOL    HW218702   9.212   3.298  10.544
38955SOL     OW18703  10.425  11.049  12.418
38955SOL    HW118704  10.378  10.986  12.471
38955SOL    HW218705  10.438  11.124  12.476
38956SOL     OW18706  10.128  13.284   5.274
38956SOL    HW118707  10.042  13.318   5.299
38956SOL    HW218708  10.114  13.190   5.263
38957SOL     OW18709   7.532   0.652   7.678
38957SOL    HW118710   7.585   0.652   7.598
38957SOL    HW218711   7.588   0.610   7.744
38958SOL     OW18712   5.391   3.920   4.225
38958SOL    HW118713   5.314   3.872   4.194
38958SOL    HW218714   5.430   3.956   4.145
38959SOL     OW18715   2.475  14.413  13.678
38959SOL    HW118716   2.384  14.385  13.669
38959SOL    HW218717   2.498  14.392  13.769
38960SOL     OW18718   9.240   6.564  11.295
38960SOL    HW118719   9.179   6.633  11.269
38960SOL    HW218720   9.187   6.484  11.298
38961SOL     OW18721  13.383   5.316  14.212
38961SOL    HW118722  13.417   5.335  14.125
38961SOL    HW218723  13.414   5.389  14.266
38962SOL     OW18724   0.571   9.005  13.240
38962SOL    HW118725   0.482   9.031  13.219
38962SOL    HW218726   0.614   8.994  13.155
38963SOL     OW18727   0.234   6.550   9.312
38963SOL    HW118728   0.314   6.497   9.311
38963SOL    HW218729   0.185   6.518   9.387
38964SOL     OW18730   7.276   2.263   0.527
38964SOL    HW118731   7.276   2.326   0.455
38964SOL    HW218732   7.185   2.257   0.554
38965SOL     OW18733  11.781   4.471   9.476
38965SOL    HW118734  11.844   4.514   9.533
38965SOL    HW218735  11.711   4.442   9.535
38966SOL     OW18736  10.733   1.325   7.610
38966SOL    HW118737  10.642   1.353   7.620
38966SOL    HW218738  10.735   1.235   7.642
38967SOL     OW18739   7.133  10.153   6.818
38967SOL    HW118740   7.220  10.125   6.847
38967SOL    HW218741   7.107  10.088   6.753
38968SOL     OW18742   7.481   5.853   9.404
38968SOL    HW118743   7.521   5.773   9.370
38968SOL    HW218744   7.503   5.921   9.340
38969SOL     OW18745   5.743  11.285  12.327
38969SOL    HW118746   5.780  11.217  12.384
38969SOL    HW218747   5.726  11.358  12.386
38970SOL     OW18748   4.898   1.270   0.483
38970SOL    HW118749   4.810   1.241   0.507
38970SOL    HW218750   4.883   1.335   0.414
38971SOL     OW18751   9.186   5.597  13.047
38971SOL    HW118752   9.177   5.684  13.085
38971SOL    HW218753   9.268   5.564  13.082
38972SOL     OW18754  10.212   4.580   0.687
38972SOL    HW118755  10.177   4.605   0.772
38972SOL    HW218756  10.210   4.485   0.686
38973SOL     OW18757  12.134   2.026  11.274
38973SOL    HW118758  12.042   2.051  11.283
38973SOL    HW218759  12.175   2.061  11.353
38974SOL     OW18760  13.983   0.814   7.608
38974SOL    HW118761  13.965   0.865   7.529
38974SOL    HW218762  13.904   0.761   7.621
38975SOL     OW18763  14.597  11.867   7.496
38975SOL    HW118764  14.633  11.807   7.431
38975SOL    HW218765  14.522  11.820   7.534
38976SOL     OW18766   6.292   8.308   2.764
38976SOL    HW118767   6.199   8.328   2.776
38976SOL    HW218768   6.299   8.279   2.673
38977SOL     OW18769   4.803  12.072  13.375
38977SOL    HW118770   4.855  12.004  13.420
38977SOL    HW218771   4.720  12.072  13.422
38978SOL     OW18772  10.681   4.951   1.072
38978SOL    HW118773  10.750   4.985   1.130
38978SOL    HW218774  10.720   4.952   0.985
38979SOL     OW18775  12.213   0.754   6.551
38979SOL    HW118776  12.239   0.801   6.630
38979SOL    HW218777  12.296   0.728   6.510
38980SOL     OW18778   8.030   6.275   8.618
38980SOL    HW118779   8.071   6.346   8.569
38980SOL    HW218780   8.102   6.235   8.666
38981SOL     OW18781  10.804   5.372   7.204
38981SOL    HW118782  10.784   5.287   7.164
38981SOL    HW218783  10.871   5.410   7.147
38982SOL     OW18784   7.345  10.007   8.043
38982SOL    HW118785   7.287   9.956   7.986
38982SOL    HW218786   7.378  10.077   7.987
38983SOL     OW18787   0.987   0.409  14.313
38983SOL    HW118788   1.072   0.380  14.346
38983SOL    HW218789   0.987   0.504  14.329
38984SOL     OW18790   6.362   5.381   9.735
38984SOL    HW118791   6.315   5.298   9.731
38984SOL    HW218792   6.299   5.446   9.703
38985SOL     OW18793   4.170  10.032   5.263
38985SOL    HW118794   4.157   9.945   5.299
38985SOL    HW218795   4.256  10.028   5.221
38986SOL     OW18796   7.098  13.945   7.025
38986SOL    HW118797   7.113  14.038   7.010
38986SOL    HW218798   7.173  13.902   6.984
38987SOL     OW18799   8.453   2.902   3.468
38987SOL    HW118800   8.384   2.952   3.425
38987SOL    HW218801   8.483   2.840   3.401
38988SOL     OW18802  11.259   7.936  11.806
38988SOL    HW118803  11.348   7.922  11.774
38988SOL    HW218804  11.270   7.960  11.898
38989SOL     OW18805   6.785   9.516   7.240
38989SOL    HW118806   6.788   9.424   7.217
38989SOL    HW218807   6.863   9.531   7.293
38990SOL     OW18808   6.603  14.519  10.449
38990SOL    HW118809   6.597  14.600  10.399
38990SOL    HW218810   6.687  14.526  10.496
38991SOL     OW18811  11.452   7.153   1.815
38991SOL    HW118812  11.455   7.137   1.721
38991SOL    HW218813  11.416   7.072   1.852
38992SOL     OW18814   0.623   0.012   4.002
38992SOL    HW118815   0.538  14.857   3.970
38992SOL    HW218816   0.616   0.007   4.097
38993SOL     OW18817  10.788   8.119  10.298
38993SOL    HW118818  10.799   8.124  10.393
38993SOL    HW218819  10.863   8.168  10.263
38994SOL     OW18820   5.308  12.877   0.841
38994SOL    HW118821   5.296  12.942   0.911
38994SOL    HW218822   5.400  12.851   0.849
38995SOL     OW18823   4.243   0.740   9.785
38995SOL    HW118824   4.225   0.803   9.715
38995SOL    HW218825   4.163   0.738   9.836
38996SOL     OW18826   8.707   0.521   7.557
38996SOL    HW118827   8.690   0.615   7.556
38996SOL    HW218828   8.701   0.497   7.649
38997SOL     OW18829  12.843  11.660   6.626
38997SOL    HW118830  12.911  11.660   6.694
38997SOL    HW218831  12.837  11.751   6.598
38998SOL     OW18832   0.244   5.992   6.403
38998SOL    HW118833   0.314   5.933   6.432
38998SOL    HW218834   0.288   6.059   6.352
38999SOL     OW18835   6.209  14.615   8.552
38999SOL    HW118836   6.158  14.612   8.472
38999SOL    HW218837   6.150  14.650   8.618
39000SOL     OW18838   4.700   7.858  13.965
39000SOL    HW118839   4.620   7.813  13.988
39000SOL    HW218840   4.705   7.853  13.869
39001SOL     OW18841   3.280   0.922  10.890
39001SOL    HW118842   3.324   0.886  10.968
39001SOL    HW218843   3.321   1.008  10.878
39002SOL     OW18844  12.384  12.819   1.218
39002SOL    HW118845  12.420  12.908   1.226
39002SOL    HW218846  12.301  12.823   1.265
39003SOL     OW18847  13.509   3.069   1.632
39003SOL    HW118848  13.591   3.023   1.651
39003SOL    HW218849  13.536   3.156   1.603
39004SOL     OW18850   0.472   1.936   4.912
39004SOL    HW118851   0.484   1.841   4.917
39004SOL    HW218852   0.514   1.961   4.830
39005SOL     OW18853   9.946  11.683   3.929
39005SOL    HW118854   9.916  11.681   4.019
39005SOL    HW218855   9.941  11.776   3.904
39006SOL     OW18856   2.509   1.528   7.432
39006SOL    HW118857   2.507   1.570   7.346
39006SOL    HW218858   2.460   1.587   7.490
39007SOL     OW18859  13.685   9.549  14.614
39007SOL    HW118860  13.664   9.560  14.707
39007SOL    HW218861  13.777   9.522  14.612
39008SOL     OW18862   1.588   3.564   3.531
39008SOL    HW118863   1.679   3.595   3.536
39008SOL    HW218864   1.552   3.610   3.455
39009SOL     OW18865   4.755  13.496  12.363
39009SOL    HW118866   4.839  13.515  12.407
39009SOL    HW218867   4.737  13.405  12.385
39010SOL     OW18868   0.541  10.831   3.073
39010SOL    HW118869   0.588  10.902   3.029
39010SOL    HW218870   0.596  10.810   3.149
39011SOL     OW18871  14.118  14.396   2.100
39011SOL    HW118872  14.068  14.455   2.044
39011SOL    HW218873  14.077  14.310   2.088
39012SOL     OW18874   5.279   5.884   7.222
39012SOL    HW118875   5.276   5.973   7.188
39012SOL    HW218876   5.269   5.829   7.144
39013SOL     OW18877   5.346  13.724   5.290
39013SOL    HW118878   5.396  13.662   5.343
39013SOL    HW218879   5.346  13.685   5.202
39014SOL     OW18880  11.289   4.440   6.493
39014SOL    HW118881  11.353   4.378   6.528
39014SOL    HW218882  11.204   4.401   6.514
39015SOL     OW18883   1.799   3.298  13.810
39015SOL    HW118884   1.848   3.337  13.737
39015SOL    HW218885   1.739   3.236  13.769
39016SOL     OW18886  13.624   5.408  13.408
39016SOL    HW118887  13.609   5.409  13.313
39016SOL    HW218888  13.688   5.337  13.421
39017SOL     OW18889   0.807   0.476   6.738
39017SOL    HW118890   0.794   0.561   6.697
39017SOL    HW218891   0.738   0.471   6.804
39018SOL     OW18892   0.930   3.350  12.228
39018SOL    HW118893   1.013   3.361  12.182
39018SOL    HW218894   0.951   3.367  12.320
39019SOL     OW18895   1.415   2.311   7.887
39019SOL    HW118896   1.423   2.292   7.794
39019SOL    HW218897   1.499   2.349   7.912
39020SOL     OW18898   0.190   5.324  12.526
39020SOL    HW118899   0.217   5.255  12.587
39020SOL    HW218900   0.244   5.400  12.550
39021SOL     OW18901   6.354   2.542  13.848
39021SOL    HW118902   6.423   2.488  13.810
39021SOL    HW218903   6.282   2.536  13.786
39022SOL     OW18904   5.881   4.356   3.773
39022SOL    HW118905   5.863   4.366   3.680
39022SOL    HW218906   5.852   4.268   3.794
39023SOL     OW18907   9.596   0.472   2.524
39023SOL    HW118908   9.672   0.426   2.559
39023SOL    HW218909   9.604   0.561   2.561
39024SOL     OW18910   8.066   7.834   8.822
39024SOL    HW118911   8.139   7.848   8.762
39024SOL    HW218912   8.012   7.912   8.814
39025SOL     OW18913  12.327  10.131  13.957
39025SOL    HW118914  12.405  10.154  13.908
39025SOL    HW218915  12.359  10.072  14.026
39026SOL     OW18916  12.794   2.388  13.016
39026SOL    HW118917  12.766   2.318  13.075
39026SOL    HW218918  12.730   2.387  12.945
39027SOL     OW18919   4.639   0.170  10.034
39027SOL    HW118920   4.664   0.114   9.960
39027SOL    HW218921   4.544   0.165  10.036
39028SOL     OW18922   3.096  13.583  14.384
39028SOL    HW118923   3.118  13.576  14.291
39028SOL    HW218924   3.180  13.600  14.427
39029SOL     OW18925   6.400   9.034   3.232
39029SOL    HW118926   6.386   9.101   3.299
39029SOL    HW218927   6.376   8.952   3.275
39030SOL     OW18928  13.304   4.494  14.119
39030SOL    HW118929  13.398   4.479  14.119
39030SOL    HW218930  13.289   4.553  14.046
39031SOL     OW18931   5.974  10.057   0.688
39031SOL    HW118932   5.881  10.055   0.663
39031SOL    HW218933   6.004   9.967   0.676
39032SOL     OW18934   0.446   4.413   3.272
39032SOL    HW118935   0.425   4.439   3.361
39032SOL    HW218936   0.458   4.496   3.225
39033SOL     OW18937   2.436   2.131  14.624
39033SOL    HW118938   2.365   2.068  14.630
39033SOL    HW218939   2.496   2.106  14.694
39034SOL     OW18940   7.539   5.029  11.213
39034SOL    HW118941   7.479   4.955  11.222
39034SOL    HW218942   7.624   4.989  11.196
39035SOL     OW18943   1.419   9.696  11.475
39035SOL    HW118944   1.395   9.694  11.382
39035SOL    HW218945   1.469   9.616  11.489
39036SOL     OW18946  10.465   4.767   0.417
39036SOL    HW118947  10.486   4.674   0.407
39036SOL    HW218948  10.387   4.768   0.472
39037SOL     OW18949   2.964   2.252   4.175
39037SOL    HW118950   3.007   2.326   4.132
39037SOL    HW218951   2.901   2.291   4.235
39038SOL     OW18952   0.676   3.676  14.837
39038SOL    HW118953   0.644   3.759  14.801
39038SOL    HW218954   0.681   3.691   0.057
39039SOL     OW18955  14.843   4.304   4.404
39039SOL    HW118956  14.771   4.241   4.405
39039SOL    HW218957  14.800   4.390   4.406
39040SOL     OW18958   4.717   5.178   0.214
39040SOL    HW118959   4.627   5.205   0.194
39040SOL    HW218960   4.771   5.229   0.153
39041SOL     OW18961   1.030  11.140   1.156
39041SOL    HW118962   1.066  11.129   1.244
39041SOL    HW218963   1.014  11.051   1.125
39042SOL     OW18964   4.794   2.591   6.763
39042SOL    HW118965   4.778   2.514   6.708
39042SOL    HW218966   4.775   2.561   6.852
39043SOL     OW18967   8.946   0.291   1.865
39043SOL    HW118968   9.011   0.265   1.800
39043SOL    HW218969   8.958   0.229   1.937
39044SOL     OW18970   7.549  11.661   0.116
39044SOL    HW118971   7.643  11.652   0.099
39044SOL    HW218972   7.544  11.715   0.195
39045SOL     OW18973   8.441   7.372   4.498
39045SOL    HW118974   8.394   7.313   4.556
39045SOL    HW218975   8.422   7.460   4.532
39046SOL     OW18976   0.102   2.724  11.157
39046SOL    HW118977   0.140   2.800  11.114
39046SOL    HW218978   0.168   2.697  11.221
39047SOL     OW18979  11.479   9.862   7.874
39047SOL    HW118980  11.429   9.791   7.833
39047SOL    HW218981  11.482   9.839   7.967
39048SOL     OW18982   7.580  12.625   9.406
39048SOL    HW118983   7.642  12.634   9.478
39048SOL    HW218984   7.540  12.711   9.397
39049SOL     OW18985   3.863  11.663   5.473
39049SOL    HW118986   3.886  11.590   5.531
39049SOL    HW218987   3.782  11.635   5.430
39050SOL     OW18988  12.835   9.249  13.876
39050SOL    HW118989  12.893   9.304  13.823
39050SOL    HW218990  12.820   9.171  13.821
39051SOL     OW18991   2.905  13.413   3.596
39051SOL    HW118992   2.933  13.332   3.553
39051SOL    HW218993   2.810  13.402   3.607
39052SOL     OW18994   3.836   0.372   6.186
39052SOL    HW118995   3.755   0.420   6.206
39052SOL    HW218996   3.848   0.385   6.092
39053SOL     OW18997  14.551  13.700  13.282
39053SOL    HW118998  14.489  13.754  13.233
39053SOL    HW218999  14.608  13.762  13.326
39054SOL     OW19000  14.388  10.967   1.793
39054SOL    HW119001  14.374  10.878   1.760
39054SOL    HW219002  14.438  11.010   1.724
39055SOL     OW19003  13.110   8.980   9.305
39055SOL    HW119004  13.200   8.959   9.329
39055SOL    HW219005  13.084   8.909   9.247
39056SOL     OW19006  13.137  11.295   0.860
39056SOL    HW119007  13.213  11.330   0.906
39056SOL    HW219008  13.064  11.349   0.890
39057SOL     OW19009  14.135  12.291   3.374
39057SOL    HW119010  14.087  12.323   3.298
39057SOL    HW219011  14.222  12.270   3.340
39058SOL     OW19012   5.975   8.721   1.111
39058SOL    HW119013   6.034   8.729   1.186
39058SOL    HW219014   5.959   8.627   1.103
39059SOL     OW19015   2.047   1.467  10.758
39059SOL    HW119016   1.977   1.403  10.774
39059SOL    HW219017   2.053   1.517  10.839
39060SOL     OW19018   4.837   2.591   9.575
39060SOL    HW119019   4.855   2.677   9.536
39060SOL    HW219020   4.774   2.551   9.516
39061SOL     OW19021   9.329   0.016  12.068
39061SOL    HW119022   9.257   0.054  12.119
39061SOL    HW219023   9.352   0.085  12.005
39062SOL     OW19024  13.823  10.398   5.809
39062SOL    HW119025  13.891  10.436   5.865
39062SOL    HW219026  13.872  10.347   5.744
39063SOL     OW19027   8.999   6.871   7.671
39063SOL    HW119028   8.910   6.901   7.689
39063SOL    HW219029   9.052   6.907   7.742
39064SOL     OW19030  13.009   6.716   0.533
39064SOL    HW119031  13.006   6.806   0.500
39064SOL    HW219032  13.030   6.663   0.456
39065SOL     OW19033   5.093   3.695  10.874
39065SOL    HW119034   5.180   3.658  10.885
39065SOL    HW219035   5.049   3.679  10.957
39066SOL     OW19036   7.825  10.417  11.026
39066SOL    HW119037   7.860  10.418  11.114
39066SOL    HW219038   7.901  10.424  10.969
39067SOL     OW19039  12.978   2.043   1.367
39067SOL    HW119040  12.951   2.134   1.379
39067SOL    HW219041  12.980   2.031   1.272
39068SOL     OW19042   7.873   8.576  11.833
39068SOL    HW119043   7.780   8.552  11.835
39068SOL    HW219044   7.873   8.669  11.813
39069SOL     OW19045   4.430   8.130  13.385
39069SOL    HW119046   4.362   8.073  13.350
39069SOL    HW219047   4.385   8.212  13.405
39070SOL     OW19048   3.968   3.491  12.739
39070SOL    HW119049   4.035   3.523  12.679
39070SOL    HW219050   3.969   3.553  12.812
39071SOL     OW19051   0.765  12.776   1.747
39071SOL    HW119052   0.779  12.805   1.657
39071SOL    HW219053   0.838  12.813   1.796
39072SOL     OW19054  14.605   7.057   7.649
39072SOL    HW119055  14.625   7.146   7.679
39072SOL    HW219056  14.648   7.050   7.564
39073SOL     OW19057   6.331   0.550   5.764
39073SOL    HW119058   6.346   0.636   5.725
39073SOL    HW219059   6.404   0.496   5.732
39074SOL     OW19060   7.760   1.007   4.893
39074SOL    HW119061   7.811   1.087   4.885
39074SOL    HW219062   7.669   1.036   4.891
39075SOL     OW19063   5.268  12.624  14.559
39075SOL    HW119064   5.288  12.709  14.519
39075SOL    HW219065   5.334  12.564  14.525
39076SOL     OW19066  10.156   3.637   1.274
39076SOL    HW119067  10.122   3.724   1.251
39076SOL    HW219068  10.146   3.631   1.369
39077SOL     OW19069   7.375   0.564   9.389
39077SOL    HW119070   7.454   0.577   9.335
39077SOL    HW219071   7.397   0.601   9.474
39078SOL     OW19072  11.677   2.773   9.218
39078SOL    HW119073  11.628   2.800   9.140
39078SOL    HW219074  11.623   2.704   9.257
39079SOL     OW19075   3.532  12.808   0.271
39079SOL    HW119076   3.474  12.797   0.195
39079SOL    HW219077   3.592  12.878   0.245
39080SOL     OW19078  10.920  11.839   0.690
39080SOL    HW119079  10.914  11.747   0.664
39080SOL    HW219080  10.840  11.879   0.656
39081SOL     OW19081   1.128   1.786   4.335
39081SOL    HW119082   1.089   1.703   4.307
39081SOL    HW219083   1.212   1.790   4.288
39082SOL     OW19084  10.962   6.923   8.098
39082SOL    HW119085  10.893   6.958   8.042
39082SOL    HW219086  11.036   6.909   8.039
39083SOL     OW19087   3.631   3.873   8.337
39083SOL    HW119088   3.684   3.825   8.274
39083SOL    HW219089   3.639   3.965   8.310
39084SOL     OW19090  13.933   8.973  14.182
39084SOL    HW119091  13.937   9.062  14.148
39084SOL    HW219092  13.890   8.923  14.113
39085SOL     OW19093   8.055  10.061  10.032
39085SOL    HW119094   8.031  10.017  10.114
39085SOL    HW219095   7.989  10.130  10.022
39086SOL     OW19096  12.109   1.926   8.378
39086SOL    HW119097  12.121   2.018   8.402
39086SOL    HW219098  12.041   1.927   8.312
39087SOL     OW19099  10.943  11.683   3.277
39087SOL    HW119100  10.927  11.778   3.282
39087SOL    HW219101  11.012  11.667   3.342
39088SOL     OW19102  13.471   3.851   5.866
39088SOL    HW119103  13.450   3.935   5.908
39088SOL    HW219104  13.528   3.875   5.793
39089SOL     OW19105  14.788   2.048   5.730
39089SOL    HW119106  14.820   2.110   5.795
39089SOL    HW219107  14.778   2.099   5.650
39090SOL     OW19108   7.188  12.487   2.457
39090SOL    HW119109   7.124  12.540   2.503
39090SOL    HW219110   7.166  12.497   2.364
39091SOL     OW19111  13.544   3.759   0.074
39091SOL    HW119112  13.617   3.701   0.052
39091SOL    HW219113  13.574   3.808   0.150
39092SOL     OW19114  14.155   9.027  11.012
39092SOL    HW119115  14.226   8.986  10.963
39092SOL    HW219116  14.142   8.970  11.088
39093SOL     OW19117  10.238  11.328  14.607
39093SOL    HW119118  10.149  11.311  14.577
39093SOL    HW219119  10.229  11.354  14.698
39094SOL     OW19120   9.274   9.964   4.008
39094SOL    HW119121   9.241   9.906   4.076
39094SOL    HW219122   9.348   9.917   3.970
39095SOL     OW19123   6.794  14.390  11.738
39095SOL    HW119124   6.828  14.368  11.652
39095SOL    HW219125   6.798  14.486  11.742
39096SOL     OW19126   5.684   6.696   1.145
39096SOL    HW119127   5.623   6.768   1.159
39096SOL    HW219128   5.630   6.624   1.114
39097SOL     OW19129   3.276   3.490   6.674
39097SOL    HW119130   3.243   3.540   6.749
39097SOL    HW219131   3.337   3.428   6.713
39098SOL     OW19132   6.537   0.638  12.348
39098SOL    HW119133   6.478   0.709  12.372
39098SOL    HW219134   6.524   0.627  12.254
39099SOL     OW19135   5.344   0.728   5.259
39099SOL    HW119136   5.364   0.815   5.223
39099SOL    HW219137   5.410   0.715   5.327
39100SOL     OW19138   7.619   4.150   2.449
39100SOL    HW119139   7.712   4.169   2.442
39100SOL    HW219140   7.584   4.169   2.361
39101SOL     OW19141   5.573   8.877   8.222
39101SOL    HW119142   5.667   8.871   8.242
39101SOL    HW219143   5.566   8.845   8.132
39102SOL     OW19144   5.774  10.068   8.484
39102SOL    HW119145   5.768   9.993   8.544
39102SOL    HW219146   5.689  10.069   8.440
39103SOL     OW19147  14.650   7.470  11.805
39103SOL    HW119148  14.739   7.493  11.831
39103SOL    HW219149  14.601   7.553  11.809
39104SOL     OW19150   0.668   2.640  10.591
39104SOL    HW119151   0.713   2.651  10.507
39104SOL    HW219152   0.688   2.550  10.618
39105SOL     OW19153   3.742   5.273   1.204
39105SOL    HW119154   3.686   5.327   1.148
39105SOL    HW219155   3.764   5.197   1.150
39106SOL     OW19156   0.128  14.375   2.156
39106SOL    HW119157   0.095  14.292   2.192
39106SOL    HW219158   0.215  14.384   2.193
39107SOL     OW19159   9.002  10.600   7.349
39107SOL    HW119160   9.072  10.550   7.308
39107SOL    HW219161   9.019  10.594   7.443
39108SOL     OW19162   4.859  13.205  12.222
39108SOL    HW119163   4.807  13.199  12.303
39108SOL    HW219164   4.794  13.207  12.152
39109SOL     OW19165  11.538   8.957   1.747
39109SOL    HW119166  11.488   9.036   1.768
39109SOL    HW219167  11.627   8.988   1.733
39110SOL     OW19168   6.162   6.658  14.276
39110SOL    HW119169   6.157   6.697  14.189
39110SOL    HW219170   6.168   6.733  14.335
39111SOL     OW19171   5.391  10.291   1.695
39111SOL    HW119172   5.333  10.251   1.760
39111SOL    HW219173   5.462  10.330   1.747
39112SOL     OW19174   5.177   6.018  11.966
39112SOL    HW119175   5.222   6.080  12.023
39112SOL    HW219176   5.159   6.067  11.886
39113SOL     OW19177   3.184   0.828   0.069
39113SOL    HW119178   3.269   0.820   0.113
39113SOL    HW219179   3.168   0.741   0.033
39114SOL     OW19180   0.571   2.923   3.042
39114SOL    HW119181   0.594   2.976   2.965
39114SOL    HW219182   0.476   2.918   3.040
39115SOL     OW19183   1.679   2.628   0.746
39115SOL    HW119184   1.762   2.623   0.701
39115SOL    HW219185   1.615   2.646   0.678
39116SOL     OW19186   5.679   1.071   1.593
39116SOL    HW119187   5.710   1.043   1.679
39116SOL    HW219188   5.591   1.034   1.586
39117SOL     OW19189  10.282  14.378   8.165
39117SOL    HW119190  10.216  14.340   8.222
39117SOL    HW219191  10.365  14.363   8.210
39118SOL     OW19192   3.262   3.443  12.611
39118SOL    HW119193   3.344   3.415  12.571
39118SOL    HW219194   3.221   3.499  12.545
39119SOL     OW19195   8.935  12.744  14.739
39119SOL    HW119196   9.015  12.702  14.772
39119SOL    HW219197   8.872  12.672  14.731
39120SOL     OW19198   0.529   4.591   5.706
39120SOL    HW119199   0.565   4.532   5.640
39120SOL    HW219200   0.458   4.637   5.661
39121SOL     OW19201  11.517  13.702  10.212
39121SOL    HW119202  11.590  13.641  10.206
39121SOL    HW219203  11.489  13.697  10.303
39122SOL     OW19204  10.935   4.613  11.897
39122SOL    HW119205  10.889   4.692  11.868
39122SOL    HW219206  11.028   4.635  11.890
39123SOL     OW19207   3.179   4.026  10.293
39123SOL    HW119208   3.185   4.116  10.327
39123SOL    HW219209   3.234   4.027  10.215
39124SOL     OW19210  11.484   7.729  12.137
39124SOL    HW119211  11.578   7.710  12.139
39124SOL    HW219212  11.443   7.654  12.181
39125SOL     OW19213   7.025   4.471   9.448
39125SOL    HW119214   7.051   4.379   9.442
39125SOL    HW219215   7.013   4.487   9.541
39126SOL     OW19216   1.858   7.972  14.829
39126SOL    HW119217   1.942   7.929  14.813
39126SOL    HW219218   1.857   7.987   0.050
39127SOL     OW19219  14.520   5.673  11.258
39127SOL    HW119220  14.498   5.762  11.283
39127SOL    HW219221  14.469   5.657  11.179
39128SOL     OW19222   5.413   2.225  11.899
39128SOL    HW119223   5.375   2.286  11.961
39128SOL    HW219224   5.389   2.138  11.932
39129SOL     OW19225   3.820   7.522   8.385
39129SOL    HW119226   3.781   7.598   8.342
39129SOL    HW219227   3.840   7.552   8.474
39130SOL     OW19228  10.101   4.396   7.010
39130SOL    HW119229  10.068   4.354   7.089
39130SOL    HW219230  10.127   4.324   6.953
39131SOL     OW19231   5.818   7.354   7.014
39131SOL    HW119232   5.806   7.448   7.002
39131SOL    HW219233   5.730   7.317   7.001
39132SOL     OW19234   8.089   2.238   5.577
39132SOL    HW119235   8.096   2.187   5.657
39132SOL    HW219236   8.115   2.327   5.602
39133SOL     OW19237  12.140   2.848   3.409
39133SOL    HW119238  12.091   2.919   3.450
39133SOL    HW219239  12.137   2.867   3.315
39134SOL     OW19240   6.476  14.350   8.088
39134SOL    HW119241   6.504  14.265   8.123
39134SOL    HW219242   6.548  14.375   8.029
39135SOL     OW19243   1.948  14.702   5.789
39135SOL    HW119244   1.984  14.778   5.835
39135SOL    HW219245   1.922  14.642   5.859
39136SOL     OW19246   0.570   8.438   4.682
39136SOL    HW119247   0.598   8.518   4.725
39136SOL    HW219248   0.633   8.425   4.611
39137SOL     OW19249   0.199  12.704   4.433
39137SOL    HW119250   0.123  12.660   4.396
39137SOL    HW219251   0.188  12.795   4.406
39138SOL     OW19252  13.803  14.230  12.924
39138SOL    HW119253  13.711  14.206  12.935
39138SOL    HW219254  13.843  14.212  13.009
39139SOL     OW19255  11.072  14.338   7.429
39139SOL    HW119256  11.108  14.255   7.458
39139SOL    HW219257  11.148  14.390   7.403
39140SOL     OW19258   7.485   3.607   2.157
39140SOL    HW119259   7.431   3.577   2.229
39140SOL    HW219260   7.514   3.694   2.184
39141SOL     OW19261   9.384   5.819   4.614
39141SOL    HW119262   9.432   5.824   4.531
39141SOL    HW219263   9.343   5.906   4.623
39142SOL     OW19264   4.350   3.773  13.689
39142SOL    HW119265   4.271   3.723  13.708
39142SOL    HW219266   4.330   3.819  13.607
39143SOL     OW19267   6.454   3.123   9.187
39143SOL    HW119268   6.383   3.078   9.140
39143SOL    HW219269   6.528   3.121   9.126
39144SOL     OW19270  12.241   2.199   4.252
39144SOL    HW119271  12.148   2.196   4.231
39144SOL    HW219272  12.285   2.200   4.168
39145SOL     OW19273   5.511   6.531   9.130
39145SOL    HW119274   5.486   6.450   9.174
39145SOL    HW219275   5.545   6.502   9.045
39146SOL     OW19276   5.213   7.052   3.398
39146SOL    HW119277   5.168   7.108   3.335
39146SOL    HW219278   5.213   7.102   3.480
39147SOL     OW19279   3.538   9.599   3.986
39147SOL    HW119280   3.560   9.570   3.897
39147SOL    HW219281   3.481   9.675   3.973
39148SOL     OW19282   3.526   6.735   0.792
39148SOL    HW119283   3.456   6.677   0.819
39148SOL    HW219284   3.518   6.811   0.850
39149SOL     OW19285  10.325  10.258   8.133
39149SOL    HW119286  10.234  10.268   8.161
39149SOL    HW219287  10.331  10.305   8.050
39150SOL     OW19288  12.720   3.764   8.622
39150SOL    HW119289  12.701   3.801   8.708
39150SOL    HW219290  12.808   3.728   8.630
39151SOL     OW19291   9.695   1.628  11.893
39151SOL    HW119292   9.690   1.677  11.811
39151SOL    HW219293   9.604   1.618  11.921
39152SOL     OW19294  12.209   7.070   9.444
39152SOL    HW119295  12.199   7.046   9.352
39152SOL    HW219296  12.135   7.029   9.487
39153SOL     OW19297   3.244   4.095  10.039
39153SOL    HW119298   3.157   4.085  10.001
39153SOL    HW219299   3.257   4.189  10.044
39154SOL     OW19300   2.257   9.766   7.190
39154SOL    HW119301   2.326   9.727   7.136
39154SOL    HW219302   2.211   9.826   7.131
39155SOL     OW19303   5.085   6.880   0.273
39155SOL    HW119304   5.103   6.949   0.337
39155SOL    HW219305   5.074   6.926   0.190
39156SOL     OW19306   2.190   6.099  11.876
39156SOL    HW119307   2.177   6.165  11.808
39156SOL    HW219308   2.102   6.063  11.891
39157SOL     OW19309  10.674   1.595   2.755
39157SOL    HW119310  10.616   1.534   2.800
39157SOL    HW219311  10.715   1.645   2.825
39158SOL     OW19312  11.699   7.821   3.678
39158SOL    HW119313  11.745   7.815   3.594
39158SOL    HW219314  11.673   7.732   3.697
39159SOL     OW19315   6.616   0.455  13.256
39159SOL    HW119316   6.654   0.541  13.243
39159SOL    HW219317   6.601   0.450  13.351
39160SOL     OW19318   4.012   7.345   3.377
39160SOL    HW119319   4.068   7.418   3.404
39160SOL    HW219320   3.926   7.366   3.414
39161SOL     OW19321   0.243  11.240  14.036
39161SOL    HW119322   0.306  11.168  14.045
39161SOL    HW219323   0.187  11.214  13.963
39162SOL     OW19324   5.684   1.857   5.629
39162SOL    HW119325   5.752   1.791   5.637
39162SOL    HW219326   5.607   1.818   5.670
39163SOL     OW19327   1.791   3.297  10.931
39163SOL    HW119328   1.722   3.292  10.997
39163SOL    HW219329   1.779   3.382  10.889
39164SOL     OW19330   5.932  12.625   5.570
39164SOL    HW119331   5.901  12.681   5.641
39164SOL    HW219332   5.944  12.539   5.611
39165SOL     OW19333   3.828  11.660   4.217
39165SOL    HW119334   3.752  11.684   4.163
39165SOL    HW219335   3.895  11.636   4.153
39166SOL     OW19336  10.846   9.464   6.338
39166SOL    HW119337  10.909   9.514   6.390
39166SOL    HW219338  10.880   9.469   6.248
39167SOL     OW19339   6.139   9.021  12.494
39167SOL    HW119340   6.096   9.076  12.429
39167SOL    HW219341   6.155   8.938  12.449
39168SOL     OW19342   1.076   6.892   8.578
39168SOL    HW119343   1.160   6.867   8.541
39168SOL    HW219344   1.057   6.824   8.643
39169SOL     OW19345  10.029   9.270  14.865
39169SOL    HW119346   9.949   9.247  14.817
39169SOL    HW219347  10.053   9.190   0.038
39170SOL     OW19348  12.194  12.174   8.207
39170SOL    HW119349  12.134  12.138   8.142
39170SOL    HW219350  12.174  12.268   8.208
39171SOL     OW19351   5.351   1.297   0.309
39171SOL    HW119352   5.289   1.224   0.309
39171SOL    HW219353   5.426   1.265   0.259
39172SOL     OW19354  14.523   5.121   2.937
39172SOL    HW119355  14.505   5.031   2.910
39172SOL    HW219356  14.561   5.162   2.859
39173SOL     OW19357   4.343   0.104  12.143
39173SOL    HW119358   4.260   0.093  12.096
39173SOL    HW219359   4.335   0.047  12.220
39174SOL     OW19360  12.161   0.346   9.277
39174SOL    HW119361  12.128   0.317   9.363
39174SOL    HW219362  12.116   0.429   9.261
39175SOL     OW19363  10.400   4.488   7.018
39175SOL    HW119364  10.490   4.517   7.003
39175SOL    HW219365  10.352   4.517   6.940
39176SOL     OW19366   6.580   1.847  10.654
39176SOL    HW119367   6.668   1.817  10.632
39176SOL    HW219368   6.522   1.791  10.602
39177SOL     OW19369  10.330   1.883  12.827
39177SOL    HW119370  10.268   1.933  12.881
39177SOL    HW219371  10.330   1.795  12.866
39178SOL     OW19372   9.212   4.453   7.438
39178SOL    HW119373   9.168   4.437   7.522
39178SOL    HW219374   9.199   4.547   7.422
39179SOL     OW19375   1.633  11.345  11.492
39179SOL    HW119376   1.629  11.435  11.524
39179SOL    HW219377   1.698  11.348  11.421
39180SOL     OW19378  10.467   4.768   3.021
39180SOL    HW119379  10.556   4.758   3.055
39180SOL    HW219380  10.440   4.678   3.001
39181SOL     OW19381  13.377  10.600  14.575
39181SOL    HW119382  13.375  10.672  14.512
39181SOL    HW219383  13.437  10.536  14.536
39182SOL     OW19384  12.464  13.158   1.955
39182SOL    HW119385  12.496  13.191   1.872
39182SOL    HW219386  12.529  13.093   1.983
39183SOL     OW19387   1.948   6.873   6.019
39183SOL    HW119388   1.881   6.941   6.027
39183SOL    HW219389   1.997   6.877   6.102
39184SOL     OW19390  13.706   0.098   7.294
39184SOL    HW119391  13.753   0.157   7.353
39184SOL    HW219392  13.615   0.105   7.320
39185SOL     OW19393  13.951   4.836   9.841
39185SOL    HW119394  13.896   4.758   9.851
39185SOL    HW219395  14.012   4.814   9.770
39186SOL     OW19396   6.453   7.111   7.192
39186SOL    HW119397   6.436   7.202   7.217
39186SOL    HW219398   6.548   7.102   7.201
39187SOL     OW19399   0.276   2.344   9.319
39187SOL    HW119400   0.193   2.385   9.344
39187SOL    HW219401   0.268   2.331   9.224
39188SOL     OW19402   3.141   2.121  11.181
39188SOL    HW119403   3.235   2.129  11.169
39188SOL    HW219404   3.131   2.084  11.269
39189SOL     OW19405   8.080   8.786  14.252
39189SOL    HW119406   8.002   8.828  14.291
39189SOL    HW219407   8.076   8.695  14.283
39190SOL     OW19408   3.413   3.389  13.183
39190SOL    HW119409   3.427   3.297  13.208
39190SOL    HW219410   3.479   3.438  13.232
39191SOL     OW19411  10.124   7.370  10.219
39191SOL    HW119412  10.035   7.400  10.202
39191SOL    HW219413  10.142   7.398  10.309
39192SOL     OW19414  14.867   2.033  14.387
39192SOL    HW119415  14.831   2.100  14.329
39192SOL    HW219416   0.086   2.029  14.363
39193SOL     OW19417   6.660   6.314   9.242
39193SOL    HW119418   6.745   6.271   9.244
39193SOL    HW219419   6.675   6.395   9.193
39194SOL     OW19420   7.163   0.478   2.349
39194SOL    HW119421   7.104   0.419   2.302
39194SOL    HW219422   7.113   0.504   2.427
39195SOL     OW19423   1.488  12.947  10.458
39195SOL    HW119424   1.401  12.939  10.498
39195SOL    HW219425   1.533  13.012  10.511
39196SOL     OW19426   4.533   2.639   8.977
39196SOL    HW119427   4.617   2.647   9.022
39196SOL    HW219428   4.478   2.591   9.039
39197SOL     OW19429   8.630  11.065  12.749
39197SOL    HW119430   8.718  11.075  12.787
39197SOL    HW219431   8.646  11.026  12.663
39198SOL     OW19432   5.265  11.978   7.977
39198SOL    HW119433   5.254  12.073   7.978
39198SOL    HW219434   5.255  11.954   7.885
39199SOL     OW19435   2.570  14.750   6.328
39199SOL    HW119436   2.490  14.712   6.292
39199SOL    HW219437   2.555  14.753   6.423
39200SOL     OW19438   4.432  10.529   5.206
39200SOL    HW119439   4.487  10.458   5.175
39200SOL    HW219440   4.390  10.563   5.127
39201SOL     OW19441   0.783  11.008   8.297
39201SOL    HW119442   0.815  11.092   8.330
39201SOL    HW219443   0.860  10.967   8.258
39202SOL     OW19444   1.042   9.462   6.668
39202SOL    HW119445   0.973   9.455   6.602
39202SOL    HW219446   0.996   9.477   6.750
39203SOL     OW19447  14.391   5.078   3.413
39203SOL    HW119448  14.436   5.083   3.328
39203SOL    HW219449  14.453   5.117   3.475
39204SOL     OW19450   5.650   9.240   9.578
39204SOL    HW119451   5.580   9.181   9.551
39204SOL    HW219452   5.725   9.212   9.525
39205SOL     OW19453   6.754   5.467  10.467
39205SOL    HW119454   6.835   5.433  10.506
39205SOL    HW219455   6.771   5.561  10.455
39206SOL     OW19456   0.980  10.195  12.136
39206SOL    HW119457   0.921  10.155  12.199
39206SOL    HW219458   1.009  10.123  12.080
39207SOL     OW19459  14.229   0.281   0.118
39207SOL    HW119460  14.161   0.339   0.084
39207SOL    HW219461  14.191   0.245   0.198
39208SOL     OW19462  10.487   7.765  11.729
39208SOL    HW119463  10.574   7.793  11.700
39208SOL    HW219464  10.498   7.674  11.754
39209SOL     OW19465  14.391  14.619   5.219
39209SOL    HW119466  14.334  14.580   5.153
39209SOL    HW219467  14.442  14.684   5.170
39210SOL     OW19468  10.537   9.326  14.051
39210SOL    HW119469  10.478   9.377  14.107
39210SOL    HW219470  10.568   9.256  14.108
39211SOL     OW19471   8.628   9.723   8.465
39211SOL    HW119472   8.605   9.796   8.407
39211SOL    HW219473   8.545   9.681   8.485
39212SOL     OW19474   7.298   0.036   5.279
39212SOL    HW119475   7.328   0.119   5.242
39212SOL    HW219476   7.326   0.039   5.371
39213SOL     OW19477   1.984   9.351   0.534
39213SOL    HW119478   1.923   9.390   0.472
39213SOL    HW219479   2.067   9.349   0.488
39214SOL     OW19480   7.871   9.996   8.797
39214SOL    HW119481   7.873   9.926   8.732
39214SOL    HW219482   7.910   9.957   8.876
39215SOL     OW19483   9.055   0.387   7.078
39215SOL    HW119484   8.968   0.347   7.085
39215SOL    HW219485   9.044   0.457   7.014
39216SOL     OW19486   4.989   1.438  11.665
39216SOL    HW119487   5.054   1.466  11.599
39216SOL    HW219488   4.906   1.439  11.618
39217SOL     OW19489  13.473   3.036  12.506
39217SOL    HW119490  13.545   3.045  12.569
39217SOL    HW219491  13.499   2.963  12.450
39218SOL     OW19492  10.810   9.979   2.144
39218SOL    HW119493  10.814  10.074   2.136
39218SOL    HW219494  10.811   9.947   2.054
39219SOL     OW19495   0.073   7.021   5.590
39219SOL    HW119496   0.013   6.959   5.548
39219SOL    HW219497   0.081   6.991   5.680
39220SOL     OW19498   6.512   1.568  14.129
39220SOL    HW119499   6.424   1.531  14.140
39220SOL    HW219500   6.559   1.542  14.209
39221SOL     OW19501   2.199   0.037   3.046
39221SOL    HW119502   2.156   0.004   3.125
39221SOL    HW219503   2.170  14.852   2.976
39222SOL     OW19504   1.488   4.080   9.954
39222SOL    HW119505   1.482   4.155  10.013
39222SOL    HW219506   1.434   4.012   9.995
39223SOL     OW19507  14.504  13.668  11.840
39223SOL    HW119508  14.433  13.731  11.850
39223SOL    HW219509  14.479  13.615  11.763
39224SOL     OW19510   7.948   6.664  11.280
39224SOL    HW119511   7.950   6.577  11.319
39224SOL    HW219512   7.874   6.708  11.322
39225SOL     OW19513  13.737   0.204   4.617
39225SOL    HW119514  13.791   0.250   4.680
39225SOL    HW219515  13.777   0.118   4.609
39226SOL     OW19516  12.467   6.491   7.434
39226SOL    HW119517  12.409   6.566   7.439
39226SOL    HW219518  12.514   6.490   7.518
39227SOL     OW19519   0.792  13.582   7.586
39227SOL    HW119520   0.830  13.611   7.669
39227SOL    HW219521   0.861  13.599   7.521
39228SOL     OW19522  12.052  13.729   4.276
39228SOL    HW119523  11.975  13.765   4.320
39228SOL    HW219524  12.088  13.666   4.338
39229SOL     OW19525   8.636   7.181   0.946
39229SOL    HW119526   8.555   7.227   0.966
39229SOL    HW219527   8.704   7.249   0.954
39230SOL     OW19528  13.940   5.531  11.143
39230SOL    HW119529  13.851   5.560  11.163
39230SOL    HW219530  13.934   5.493  11.056
39231SOL     OW19531   5.215   2.713  11.617
39231SOL    HW119532   5.132   2.667  11.604
39231SOL    HW219533   5.249   2.726  11.528
39232SOL     OW19534   1.871   6.542   1.287
39232SOL    HW119535   1.902   6.471   1.231
39232SOL    HW219536   1.813   6.593   1.230
39233SOL     OW19537  12.888   0.607  13.321
39233SOL    HW119538  12.920   0.550  13.390
39233SOL    HW219539  12.935   0.579  13.242
39234SOL     OW19540   9.060  10.958   9.645
39234SOL    HW119541   9.156  10.960   9.644
39234SOL    HW219542   9.036  10.999   9.728
39235SOL     OW19543   5.331   0.389   4.749
39235SOL    HW119544   5.361   0.450   4.816
39235SOL    HW219545   5.235   0.400   4.749
39236SOL     OW19546   1.681   8.981   3.499
39236SOL    HW119547   1.752   8.918   3.511
39236SOL    HW219548   1.622   8.938   3.437
39237SOL     OW19549   5.355   4.457  13.879
39237SOL    HW119550   5.301   4.450  13.957
39237SOL    HW219551   5.429   4.511  13.905
39238SOL     OW19552  11.900  10.854   1.096
39238SOL    HW119553  11.811  10.854   1.060
39238SOL    HW219554  11.927  10.945   1.093
39239SOL     OW19555  12.113   2.756   8.384
39239SOL    HW119556  12.030   2.738   8.429
39239SOL    HW219557  12.164   2.676   8.395
39240SOL     OW19558   2.090  10.908   7.922
39240SOL    HW119559   2.171  10.870   7.886
39240SOL    HW219560   2.109  10.921   8.015
39241SOL     OW19561   8.029   2.949  13.582
39241SOL    HW119562   8.000   2.869  13.538
39241SOL    HW219563   7.951   2.979  13.628
39242SOL     OW19564  12.477   8.533  11.895
39242SOL    HW119565  12.462   8.563  11.805
39242SOL    HW219566  12.445   8.443  11.896
39243SOL     OW19567   5.246   9.621   7.176
39243SOL    HW119568   5.251   9.676   7.098
39243SOL    HW219569   5.259   9.681   7.249
39244SOL     OW19570   1.328   8.699   8.556
39244SOL    HW119571   1.361   8.781   8.592
39244SOL    HW219572   1.303   8.721   8.466
39245SOL     OW19573  13.779   2.837   6.475
39245SOL    HW119574  13.813   2.750   6.495
39245SOL    HW219575  13.749   2.871   6.559
39246SOL     OW19576   1.638  12.159  14.755
39246SOL    HW119577   1.615  12.248  14.782
39246SOL    HW219578   1.720  12.170  14.706
39247SOL     OW19579   2.789  10.693   4.679
39247SOL    HW119580   2.695  10.708   4.692
39247SOL    HW219581   2.803  10.716   4.587
39248SOL     OW19582   1.471  11.432  14.807
39248SOL    HW119583   1.554  11.421  14.853
39248SOL    HW219584   1.494  11.428  14.714
39249SOL     OW19585   1.464   5.540  10.457
39249SOL    HW119586   1.547   5.518  10.499
39249SOL    HW219587   1.424   5.455  10.435
39250SOL     OW19588   4.007   8.424  13.716
39250SOL    HW119589   3.918   8.394  13.732
39250SOL    HW219590   3.997   8.495  13.653
39251SOL     OW19591   3.606   3.783  11.126
39251SOL    HW119592   3.641   3.865  11.162
39251SOL    HW219593   3.553   3.747  11.197
39252SOL     OW19594  10.372   3.370  12.124
39252SOL    HW119595  10.414   3.415  12.197
39252SOL    HW219596  10.280   3.397  12.128
39253SOL     OW19597   1.906  10.482  13.311
39253SOL    HW119598   1.904  10.414  13.243
39253SOL    HW219599   1.990  10.470  13.354
39254SOL     OW19600   9.671   1.204   4.251
39254SOL    HW119601   9.639   1.160   4.173
39254SOL    HW219602   9.763   1.180   4.257
39255SOL     OW19603   8.351   3.735   3.115
39255SOL    HW119604   8.323   3.657   3.164
39255SOL    HW219605   8.387   3.794   3.181
39256SOL     OW19606  14.695   2.169  10.308
39256SOL    HW119607  14.629   2.184  10.240
39256SOL    HW219608  14.756   2.241  10.299
39257SOL     OW19609   4.081   2.579   1.190
39257SOL    HW119610   4.027   2.605   1.116
39257SOL    HW219611   4.042   2.497   1.221
39258SOL     OW19612   2.539   4.788   9.601
39258SOL    HW119613   2.545   4.740   9.684
39258SOL    HW219614   2.506   4.723   9.539
39259SOL     OW19615   2.705   8.127  14.026
39259SOL    HW119616   2.765   8.202  14.024
39259SOL    HW219617   2.762   8.050  14.030
39260SOL     OW19618   0.096   1.786   0.029
39260SOL    HW119619   0.144   1.773  14.821
39260SOL    HW219620   0.162   1.814   0.092
39261SOL     OW19621  14.325  10.684   1.882
39261SOL    HW119622  14.250  10.694   1.824
39261SOL    HW219623  14.295  10.623   1.950
39262SOL     OW19624   6.788  14.318   9.265
39262SOL    HW119625   6.720  14.386   9.267
39262SOL    HW219626   6.770  14.269   9.185
39263SOL     OW19627  10.614   3.738   1.368
39263SOL    HW119628  10.541   3.702   1.417
39263SOL    HW219629  10.685   3.675   1.382
39264SOL     OW19630   9.064  12.506   1.158
39264SOL    HW119631   9.122  12.437   1.124
39264SOL    HW219632   9.055  12.567   1.085
39265SOL     OW19633   5.807   2.127  10.778
39265SOL    HW119634   5.847   2.192  10.835
39265SOL    HW219635   5.871   2.057  10.773
39266SOL     OW19636   1.093   3.314   5.300
39266SOL    HW119637   1.166   3.314   5.239
39266SOL    HW219638   1.084   3.222   5.327
39267SOL     OW19639   9.698  13.792   5.583
39267SOL    HW119640   9.791  13.768   5.588
39267SOL    HW219641   9.653  13.709   5.569
39268SOL     OW19642   8.833  13.729   7.007
39268SOL    HW119643   8.803  13.726   7.098
39268SOL    HW219644   8.882  13.648   6.995
39269SOL     OW19645   2.645   5.599   3.184
39269SOL    HW119646   2.585   5.598   3.109
39269SOL    HW219647   2.588   5.606   3.260
39270SOL     OW19648   0.889  12.596   2.105
39270SOL    HW119649   0.837  12.570   2.182
39270SOL    HW219650   0.913  12.687   2.122
39271SOL     OW19651  10.934   0.316   3.861
39271SOL    HW119652  11.001   0.364   3.910
39271SOL    HW219653  10.894   0.258   3.925
39272SOL     OW19654  12.588  11.134   8.420
39272SOL    HW119655  12.576  11.145   8.515
39272SOL    HW219656  12.619  11.219   8.390
39273SOL     OW19657   4.950   8.592   5.979
39273SOL    HW119658   4.992   8.567   6.061
39273SOL    HW219659   4.870   8.540   5.976
39274SOL     OW19660   7.306   9.796  11.296
39274SOL    HW119661   7.312   9.826  11.205
39274SOL    HW219662   7.368   9.724  11.302
39275SOL     OW19663  12.368   7.273   3.176
39275SOL    HW119664  12.449   7.291   3.223
39275SOL    HW219665  12.340   7.357   3.142
39276SOL     OW19666   8.473  14.637   2.816
39276SOL    HW119667   8.445  14.576   2.748
39276SOL    HW219668   8.406  14.631   2.884
39277SOL     OW19669   6.037   3.241  12.293
39277SOL    HW119670   6.007   3.173  12.354
39277SOL    HW219671   6.115   3.278  12.334
39278SOL     OW19672  13.145  12.059  11.724
39278SOL    HW119673  13.224  12.090  11.681
39278SOL    HW219674  13.103  12.002  11.660
39279SOL     OW19675  11.311   3.359   6.865
39279SOL    HW119676  11.343   3.384   6.779
39279SOL    HW219677  11.227   3.315   6.847
39280SOL     OW19678   9.850   4.369   6.695
39280SOL    HW119679   9.925   4.394   6.641
39280SOL    HW219680   9.832   4.447   6.748
39281SOL     OW19681   1.932   3.654   2.048
39281SOL    HW119682   1.894   3.615   1.969
39281SOL    HW219683   1.866   3.718   2.077
39282SOL     OW19684   7.123  12.244  13.119
39282SOL    HW119685   7.199  12.291  13.085
39282SOL    HW219686   7.146  12.151  13.112
39283SOL     OW19687   1.525   2.698   4.887
39283SOL    HW119688   1.497   2.708   4.796
39283SOL    HW219689   1.611   2.657   4.882
39284SOL     OW19690   0.108  14.110   1.524
39284SOL    HW119691   0.019  14.143   1.535
39284SOL    HW219692   0.152  14.130   1.607
39285SOL     OW19693   4.940   5.115   2.120
39285SOL    HW119694   4.859   5.072   2.091
39285SOL    HW219695   4.943   5.196   2.070
39286SOL     OW19696   8.746   9.075  13.662
39286SOL    HW119697   8.675   9.076  13.598
39286SOL    HW219698   8.736   9.155  13.712
39287SOL     OW19699   9.515  11.680  10.242
39287SOL    HW119700   9.459  11.749  10.278
39287SOL    HW219701   9.602  11.699  10.277
39288SOL     OW19702   7.428   1.068   9.809
39288SOL    HW119703   7.497   1.134   9.809
39288SOL    HW219704   7.348   1.116   9.832
39289SOL     OW19705   8.352   3.420   8.188
39289SOL    HW119706   8.325   3.506   8.156
39289SOL    HW219707   8.294   3.358   8.144
39290SOL     OW19708   8.760  14.501  11.051
39290SOL    HW119709   8.742  14.586  11.012
39290SOL    HW219710   8.785  14.445  10.977
39291SOL     OW19711   2.771  11.663   7.913
39291SOL    HW119712   2.798  11.606   7.984
39291SOL    HW219713   2.745  11.603   7.843
39292SOL     OW19714   5.391   7.386   2.238
39292SOL    HW119715   5.321   7.322   2.229
39292SOL    HW219716   5.387   7.414   2.329
39293SOL     OW19717   7.037   3.534  11.429
39293SOL    HW119718   7.132   3.542  11.438
39293SOL    HW219719   7.002   3.612  11.473
39294SOL     OW19720   0.865   9.509  13.625
39294SOL    HW119721   0.910   9.468  13.699
39294SOL    HW219722   0.851   9.437  13.563
39295SOL     OW19723   8.093   0.952   5.879
39295SOL    HW119724   8.115   0.917   5.793
39295SOL    HW219725   7.999   0.936   5.888
39296SOL     OW19726   9.411   9.263   5.944
39296SOL    HW119727   9.347   9.333   5.949
39296SOL    HW219728   9.495   9.308   5.932
39297SOL     OW19729   4.588   3.077  14.473
39297SOL    HW119730   4.614   2.988  14.449
39297SOL    HW219731   4.539   3.066  14.554
39298SOL     OW19732   9.030  13.781   8.084
39298SOL    HW119733   9.042  13.691   8.054
39298SOL    HW219734   9.051  13.778   8.177
39299SOL     OW19735  12.423  12.424   6.386
39299SOL    HW119736  12.476  12.469   6.321
39299SOL    HW219737  12.386  12.494   6.440
39300SOL     OW19738   2.335   3.846  13.165
39300SOL    HW119739   2.272   3.869  13.097
39300SOL    HW219740   2.354   3.928  13.209
39301SOL     OW19741   6.332   7.340  12.857
39301SOL    HW119742   6.269   7.406  12.827
39301SOL    HW219743   6.417   7.379  12.839
39302SOL     OW19744  12.530   8.764   6.841
39302SOL    HW119745  12.543   8.669   6.835
39302SOL    HW219746  12.460   8.775   6.905
39303SOL     OW19747   9.301   2.028   4.209
39303SOL    HW119748   9.371   2.046   4.272
39303SOL    HW219749   9.272   2.115   4.180
39304SOL     OW19750   5.691  12.095   8.219
39304SOL    HW119751   5.751  12.170   8.222
39304SOL    HW219752   5.605  12.132   8.238
39305SOL     OW19753   1.688   3.699  14.635
39305SOL    HW119754   1.624   3.633  14.663
39305SOL    HW219755   1.740   3.655  14.568
39306SOL     OW19756   2.304   3.212   1.030
39306SOL    HW119757   2.223   3.161   1.023
39306SOL    HW219758   2.328   3.233   0.940
39307SOL     OW19759  11.937   8.131   6.326
39307SOL    HW119760  12.022   8.087   6.323
39307SOL    HW219761  11.955   8.214   6.372
39308SOL     OW19762   5.964   8.394   9.275
39308SOL    HW119763   5.938   8.466   9.217
39308SOL    HW219764   6.013   8.437   9.345
39309SOL     OW19765  10.618   9.842  10.353
39309SOL    HW119766  10.643   9.773  10.414
39309SOL    HW219767  10.542   9.883  10.394
39310SOL     OW19768   1.677   1.307   0.876
39310SOL    HW119769   1.645   1.241   0.815
39310SOL    HW219770   1.598   1.341   0.918
39311SOL     OW19771   0.527  11.914  11.851
39311SOL    HW119772   0.449  11.963  11.877
39311SOL    HW219773   0.581  11.911  11.930
39312SOL     OW19774  11.371  12.534   3.510
39312SOL    HW119775  11.430  12.464   3.536
39312SOL    HW219776  11.297  12.490   3.469
39313SOL     OW19777   5.047   4.498  11.119
39313SOL    HW119778   5.040   4.594  11.121
39313SOL    HW219779   5.136   4.482  11.087
39314SOL     OW19780  12.542  12.377  12.083
39314SOL    HW119781  12.496  12.305  12.125
39314SOL    HW219782  12.590  12.337  12.011
39315SOL     OW19783  13.733  11.991   8.969
39315SOL    HW119784  13.700  11.905   8.944
39315SOL    HW219785  13.817  11.974   9.011
39316SOL     OW19786  12.935  13.918   3.359
39316SOL    HW119787  12.843  13.897   3.342
39316SOL    HW219788  12.936  14.013   3.369
39317SOL     OW19789   3.270   8.460  11.784
39317SOL    HW119790   3.177   8.476  11.771
39317SOL    HW219791   3.311   8.487  11.702
39318SOL     OW19792   1.812  12.397   4.665
39318SOL    HW119793   1.810  12.444   4.749
39318SOL    HW219794   1.721  12.373   4.649
39319SOL     OW19795   1.041   4.313   1.138
39319SOL    HW119796   1.019   4.221   1.126
39319SOL    HW219797   1.006   4.335   1.224
39320SOL     OW19798   0.643  14.065   1.228
39320SOL    HW119799   0.735  14.058   1.254
39320SOL    HW219800   0.612  14.145   1.271
39321SOL     OW19801  13.264  11.784  13.624
39321SOL    HW119802  13.231  11.853  13.682
39321SOL    HW219803  13.251  11.819  13.536
39322SOL     OW19804  10.545   4.505   5.476
39322SOL    HW119805  10.498   4.497   5.560
39322SOL    HW219806  10.626   4.551   5.498
39323SOL     OW19807   0.470   2.067  14.494
39323SOL    HW119808   0.405   2.138  14.500
39323SOL    HW219809   0.554   2.111  14.506
39324SOL     OW19810   0.375   6.684   2.792
39324SOL    HW119811   0.281   6.699   2.791
39324SOL    HW219812   0.399   6.679   2.699
39325SOL     OW19813   5.947  11.383  12.107
39325SOL    HW119814   5.901  11.357  12.188
39325SOL    HW219815   6.039  11.372  12.127
39326SOL     OW19816   8.324   8.730   3.504
39326SOL    HW119817   8.380   8.716   3.428
39326SOL    HW219818   8.282   8.645   3.519
39327SOL     OW19819   2.905  12.132  12.298
39327SOL    HW119820   2.970  12.152  12.230
39327SOL    HW219821   2.821  12.153  12.257
39328SOL     OW19822   4.734   3.384   0.969
39328SOL    HW119823   4.772   3.459   1.014
39328SOL    HW219824   4.795   3.313   0.985
39329SOL     OW19825   6.980   1.303   7.942
39329SOL    HW119826   6.905   1.298   8.001
39329SOL    HW219827   7.038   1.368   7.983
39330SOL     OW19828  13.017   2.937   3.042
39330SOL    HW119829  13.037   2.908   2.953
39330SOL    HW219830  13.086   3.000   3.062
39331SOL     OW19831   6.911   4.004   4.517
39331SOL    HW119832   6.991   4.055   4.527
39331SOL    HW219833   6.896   3.965   4.603
39332SOL     OW19834   2.363   4.940   6.749
39332SOL    HW119835   2.446   4.927   6.796
39332SOL    HW219836   2.389   4.958   6.659
39333SOL     OW19837   0.651   5.800   9.701
39333SOL    HW119838   0.624   5.708   9.693
39333SOL    HW219839   0.736   5.795   9.745
39334SOL     OW19840   7.629  10.742   7.968
39334SOL    HW119841   7.665  10.678   7.907
39334SOL    HW219842   7.686  10.819   7.958
39335SOL     OW19843  10.392  14.053   1.235
39335SOL    HW119844  10.467  14.067   1.294
39335SOL    HW219845  10.399  13.961   1.209
39336SOL     OW19846   6.088  14.002  12.617
39336SOL    HW119847   6.082  13.978  12.709
39336SOL    HW219848   6.181  14.020  12.603
39337SOL     OW19849  10.987   9.362   7.383
39337SOL    HW119850  11.002   9.382   7.290
39337SOL    HW219851  10.909   9.411   7.406
39338SOL     OW19852  13.905   8.690   1.487
39338SOL    HW119853  13.929   8.712   1.396
39338SOL    HW219854  13.935   8.600   1.498
39339SOL     OW19855  14.040  14.830   5.755
39339SOL    HW119856  13.952  14.847   5.719
39339SOL    HW219857  14.084  14.780   5.686
39340SOL     OW19858   3.179  10.917  10.700
39340SOL    HW119859   3.266  10.923  10.660
39340SOL    HW219860   3.191  10.952  10.789
39341SOL     OW19861   9.599   7.111   3.138
39341SOL    HW119862   9.665   7.042   3.126
39341SOL    HW219863   9.638   7.168   3.205
39342SOL     OW19864   4.276   8.842   9.660
39342SOL    HW119865   4.224   8.775   9.703
39342SOL    HW219866   4.233   8.857   9.576
39343SOL     OW19867  14.705  13.517  12.654
39343SOL    HW119868  14.767  13.524  12.582
39343SOL    HW219869  14.680  13.425  12.656
39344SOL     OW19870   6.274  12.288   6.245
39344SOL    HW119871   6.289  12.264   6.336
39344SOL    HW219872   6.266  12.205   6.199
39345SOL     OW19873  14.138   6.126   5.346
39345SOL    HW119874  14.107   6.072   5.419
39345SOL    HW219875  14.151   6.213   5.384
39346SOL     OW19876  12.208   5.884   7.086
39346SOL    HW119877  12.193   5.928   7.169
39346SOL    HW219878  12.266   5.811   7.108
39347SOL     OW19879   4.810   8.269   8.262
39347SOL    HW119880   4.862   8.256   8.340
39347SOL    HW219881   4.866   8.239   8.190
39348SOL     OW19882   0.468   4.500  10.514
39348SOL    HW119883   0.547   4.475  10.561
39348SOL    HW219884   0.499   4.525  10.427
39349SOL     OW19885   4.893   7.292   1.508
39349SOL    HW119886   4.816   7.300   1.564
39349SOL    HW219887   4.874   7.217   1.451
39350SOL     OW19888   3.147   8.173   0.394
39350SOL    HW119889   3.065   8.221   0.381
39350SOL    HW219890   3.120   8.090   0.433
39351SOL     OW19891  14.372   3.272  11.781
39351SOL    HW119892  14.327   3.356  11.775
39351SOL    HW219893  14.315   3.211  11.733
39352SOL     OW19894  11.954   8.904  13.084
39352SOL    HW119895  12.032   8.861  13.049
39352SOL    HW219896  11.924   8.846  13.154
39353SOL     OW19897   6.067  10.844   3.567
39353SOL    HW119898   6.042  10.924   3.521
39353SOL    HW219899   6.096  10.784   3.498
39354SOL     OW19900   7.534  14.119   2.165
39354SOL    HW119901   7.522  14.088   2.255
39354SOL    HW219902   7.485  14.201   2.162
39355SOL     OW19903   4.611  13.666   0.406
39355SOL    HW119904   4.576  13.577   0.403
39355SOL    HW219905   4.682  13.667   0.341
39356SOL     OW19906   7.878   6.455  14.629
39356SOL    HW119907   7.921   6.482  14.547
39356SOL    HW219908   7.850   6.538  14.669
39357SOL     OW19909   3.343  10.498   5.791
39357SOL    HW119910   3.255  10.484   5.826
39357SOL    HW219911   3.396  10.520   5.868
39358SOL     OW19912   7.537  12.295   1.839
39358SOL    HW119913   7.617  12.342   1.862
39358SOL    HW219914   7.514  12.327   1.751
39359SOL     OW19915  13.176   3.471   9.637
39359SOL    HW119916  13.149   3.380   9.630
39359SOL    HW219917  13.223   3.489   9.555
39360SOL     OW19918   2.374  13.183   4.308
39360SOL    HW119919   2.298  13.171   4.252
39360SOL    HW219920   2.411  13.095   4.318
39361SOL     OW19921   9.078   4.639  11.953
39361SOL    HW119922   8.993   4.672  11.927
39361SOL    HW219923   9.134   4.716  11.956
39362SOL     OW19924   1.595  12.408   4.419
39362SOL    HW119925   1.675  12.457   4.399
39362SOL    HW219926   1.526  12.455   4.373
39363SOL     OW19927  10.246   9.288  11.426
39363SOL    HW119928  10.216   9.210  11.473
39363SOL    HW219929  10.271   9.256  11.340
39364SOL     OW19930   2.698   2.028   9.727
39364SOL    HW119931   2.767   2.057   9.786
39364SOL    HW219932   2.746   1.989   9.653
39365SOL     OW19933  11.116  13.343  12.957
39365SOL    HW119934  11.109  13.340  12.862
39365SOL    HW219935  11.028  13.319  12.988
39366SOL     OW19936  13.607  10.240   6.944
39366SOL    HW119937  13.686  10.208   6.988
39366SOL    HW219938  13.554  10.162   6.930
39367SOL     OW19939   1.859   6.905   4.660
39367SOL    HW119940   1.935   6.860   4.697
39367SOL    HW219941   1.785   6.875   4.713
39368SOL     OW19942   9.378  10.963   8.491
39368SOL    HW119943   9.351  11.031   8.431
39368SOL    HW219944   9.425  11.009   8.561
39369SOL     OW19945   1.001  10.639   8.795
39369SOL    HW119946   1.089  10.660   8.762
39369SOL    HW219947   1.014  10.624   8.889
39370SOL     OW19948  13.956  12.661   0.285
39370SOL    HW119949  13.888  12.693   0.345
39370SOL    HW219950  14.030  12.720   0.299
39371SOL     OW19951   0.989   5.869   2.863
39371SOL    HW119952   1.074   5.869   2.820
39371SOL    HW219953   0.944   5.792   2.828
39372SOL     OW19954   1.828   2.283  14.254
39372SOL    HW119955   1.861   2.204  14.211
39372SOL    HW219956   1.796   2.338  14.182
39373SOL     OW19957  13.554  10.739  11.314
39373SOL    HW119958  13.596  10.661  11.278
39373SOL    HW219959  13.476  10.751  11.260
39374SOL     OW19960   3.259   1.805   8.868
39374SOL    HW119961   3.267   1.885   8.816
39374SOL    HW219962   3.335   1.753   8.843
39375SOL     OW19963   7.375   4.534   2.085
39375SOL    HW119964   7.397   4.460   2.028
39375SOL    HW219965   7.373   4.496   2.173
39376SOL     OW19966  10.064   0.532   6.947
39376SOL    HW119967  10.012   0.454   6.966
39376SOL    HW219968  10.027   0.566   6.866
39377SOL     OW19969  12.751   5.555   8.508
39377SOL    HW119970  12.788   5.516   8.429
39377SOL    HW219971  12.827   5.575   8.563
39378SOL     OW19972   9.616   1.401  11.298
39378SOL    HW119973   9.536   1.451  11.282
39378SOL    HW219974   9.636   1.359  11.215
39379SOL     OW19975   5.417   8.800   3.599
39379SOL    HW119976   5.494   8.857   3.609
39379SOL    HW219977   5.448   8.713   3.623
39380SOL     OW19978  10.448   5.088  10.142
39380SOL    HW119979  10.426   5.036  10.064
39380SOL    HW219980  10.390   5.054  10.210
39381SOL     OW19981   9.616   2.168   1.087
39381SOL    HW119982   9.573   2.113   1.152
39381SOL    HW219983   9.560   2.161   1.010
39382SOL     OW19984   1.417  13.423   4.575
39382SOL    HW119985   1.462  13.415   4.491
39382SOL    HW219986   1.366  13.504   4.567
39383SOL     OW19987   3.100   9.743  10.965
39383SOL    HW119988   3.094   9.799  11.042
39383SOL    HW219989   3.031   9.775  10.907
39384SOL     OW19990   2.066   7.439  12.158
39384SOL    HW119991   1.985   7.447  12.209
39384SOL    HW219992   2.056   7.357  12.109
39385SOL     OW19993   2.967  11.248   3.503
39385SOL    HW119994   3.058  11.263   3.481
39385SOL    HW219995   2.938  11.181   3.441
39386SOL     OW19996   8.536  14.079  14.290
39386SOL    HW119997   8.514  13.986  14.296
39386SOL    HW219998   8.603  14.084  14.222
39387SOL     OW19999   2.582  12.302  13.783
39387SOL    HW120000   2.644  12.374  13.794
39387SOL    HW220001   2.568  12.296  13.688
39388SOL     OW20002   7.717  10.776   6.216
39388SOL    HW120003   7.673  10.751   6.135
39388SOL    HW220004   7.688  10.866   6.232
39389SOL     OW20005   1.939   8.971   4.640
39389SOL    HW120006   1.853   9.004   4.616
39389SOL    HW220007   1.961   8.908   4.572
39390SOL     OW20008   6.762   9.200   6.621
39390SOL    HW120009   6.796   9.254   6.550
39390SOL    HW220010   6.789   9.245   6.701
39391SOL     OW20011  14.318   0.716  12.626
39391SOL    HW120012  14.272   0.768  12.560
39391SOL    HW220013  14.386   0.670  12.578
39392SOL     OW20014   5.635  13.778   7.102
39392SOL    HW120015   5.561  13.744   7.152
39392SOL    HW220016   5.700  13.803   7.168
39393SOL     OW20017   8.837   0.840   9.814
39393SOL    HW120018   8.835   0.821   9.907
39393SOL    HW220019   8.806   0.930   9.807
39394SOL     OW20020   9.572  10.776   1.000
39394SOL    HW120021   9.483  10.812   0.992
39394SOL    HW220022   9.579  10.712   0.929
39395SOL     OW20023   9.360   0.615   9.682
39395SOL    HW120024   9.341   0.680   9.614
39395SOL    HW220025   9.404   0.664   9.751
39396SOL     OW20026   8.359  11.469   5.260
39396SOL    HW120027   8.352  11.458   5.165
39396SOL    HW220028   8.434  11.415   5.285
39397SOL     OW20029   5.688  12.980   2.041
39397SOL    HW120030   5.720  12.974   2.132
39397SOL    HW220031   5.753  13.034   1.996
39398SOL     OW20032   3.710   2.244   0.673
39398SOL    HW120033   3.761   2.165   0.691
39398SOL    HW220034   3.627   2.231   0.719
39399SOL     OW20035   9.874   4.919  11.526
39399SOL    HW120036   9.884   4.927  11.431
39399SOL    HW220037   9.795   4.865  11.537
39400SOL     OW20038   5.853   0.647   7.898
39400SOL    HW120039   5.805   0.566   7.879
39400SOL    HW220040   5.802   0.689   7.968
39401SOL     OW20041   6.483   7.258   8.875
39401SOL    HW120042   6.535   7.181   8.896
39401SOL    HW220043   6.532   7.332   8.911
39402SOL     OW20044   9.683  10.151  10.204
39402SOL    HW120045   9.659  10.062  10.231
39402SOL    HW220046   9.674  10.151  10.109
39403SOL     OW20047   2.378   8.792   1.793
39403SOL    HW120048   2.449   8.843   1.834
39403SOL    HW220049   2.422   8.718   1.751
39404SOL     OW20050  13.418   8.521   4.308
39404SOL    HW120051  13.332   8.497   4.343
39404SOL    HW220052  13.479   8.459   4.349
39405SOL     OW20053   1.328   9.986   2.074
39405SOL    HW120054   1.265  10.027   2.132
39405SOL    HW220055   1.390   9.943   2.132
39406SOL     OW20056   8.708   2.477   8.816
39406SOL    HW120057   8.770   2.463   8.888
39406SOL    HW220058   8.681   2.389   8.790
39407SOL     OW20059  13.520   0.381   8.271
39407SOL    HW120060  13.457   0.333   8.326
39407SOL    HW220061  13.576   0.313   8.234
39408SOL     OW20062   3.481  14.246  11.056
39408SOL    HW120063   3.565  14.201  11.046
39408SOL    HW220064   3.437  14.233  10.972
39409SOL     OW20065   3.085   2.962   7.295
39409SOL    HW120066   3.099   3.047   7.254
39409SOL    HW220067   3.029   2.981   7.370
39410SOL     OW20068   5.183   6.427   6.555
39410SOL    HW120069   5.252   6.441   6.619
39410SOL    HW220070   5.229   6.417   6.471
39411SOL     OW20071  11.204   4.276   7.408
39411SOL    HW120072  11.267   4.250   7.475
39411SOL    HW220073  11.118   4.268   7.451
39412SOL     OW20074  13.708  14.673   1.355
39412SOL    HW120075  13.731  14.653   1.265
39412SOL    HW220076  13.617  14.704   1.350
39413SOL     OW20077  12.908   5.020   0.839
39413SOL    HW120078  12.825   5.029   0.793
39413SOL    HW220079  12.942   5.110   0.844
39414SOL     OW20080  13.649   1.116   4.001
39414SOL    HW120081  13.732   1.123   4.050
39414SOL    HW220082  13.582   1.138   4.066
39415SOL     OW20083   2.529   2.949   1.666
39415SOL    HW120084   2.445   2.924   1.629
39415SOL    HW220085   2.587   2.961   1.590
39416SOL     OW20086   8.693   1.687   3.370
39416SOL    HW120087   8.723   1.598   3.388
39416SOL    HW220088   8.632   1.677   3.297
39417SOL     OW20089   2.199  11.095   7.610
39417SOL    HW120090   2.130  11.162   7.613
39417SOL    HW220091   2.274  11.136   7.652
39418SOL     OW20092  11.522  12.535   6.404
39418SOL    HW120093  11.468  12.565   6.330
39418SOL    HW220094  11.592  12.600   6.410
39419SOL     OW20095   5.070   5.831  13.750
39419SOL    HW120096   5.113   5.903  13.704
39419SOL    HW220097   5.021   5.873  13.820
39420SOL     OW20098  10.864   5.985   6.387
39420SOL    HW120099  10.891   5.967   6.478
39420SOL    HW220100  10.942   6.022   6.346
39421SOL     OW20101   1.362   3.523   5.336
39421SOL    HW120102   1.308   3.454   5.373
39421SOL    HW220103   1.300   3.579   5.288
39422SOL     OW20104   2.041  13.803   4.769
39422SOL    HW120105   2.088  13.856   4.833
39422SOL    HW220106   2.002  13.866   4.709
39423SOL     OW20107   0.807   5.871  10.881
39423SOL    HW120108   0.884   5.815  10.870
39423SOL    HW220109   0.786   5.865  10.974
39424SOL     OW20110   0.807  10.155  13.645
39424SOL    HW120111   0.720  10.127  13.616
39424SOL    HW220112   0.818  10.242  13.608
39425SOL     OW20113  11.040   7.420   0.000
39425SOL    HW120114  11.032   7.513   0.021
39425SOL    HW220115  11.114   7.390   0.053
39426SOL     OW20116  13.074   7.541  10.345
39426SOL    HW120117  13.083   7.462  10.397
39426SOL    HW220118  13.043   7.511  10.260
39427SOL     OW20119  10.637   4.925   4.872
39427SOL    HW120120  10.548   4.935   4.906
39427SOL    HW220121  10.633   4.845   4.818
39428SOL     OW20122   8.242   5.393   4.389
39428SOL    HW120123   8.203   5.346   4.315
39428SOL    HW220124   8.310   5.448   4.350
39429SOL     OW20125   3.759  14.121   2.477
39429SOL    HW120126   3.816  14.136   2.553
39429SOL    HW220127   3.672  14.111   2.514
39430SOL     OW20128   2.761  10.544   0.712
39430SOL    HW120129   2.740  10.559   0.804
39430SOL    HW220130   2.680  10.508   0.675
39431SOL     OW20131   4.733   8.540  14.795
39431SOL    HW120132   4.709   8.570  14.707
39431SOL    HW220133   4.792   8.609  14.828
39432SOL     OW20134   7.034   2.848   1.797
39432SOL    HW120135   7.119   2.891   1.807
39432SOL    HW220136   7.055   2.761   1.764
39433SOL     OW20137  14.323   1.716   4.225
39433SOL    HW120138  14.240   1.717   4.178
39433SOL    HW220139  14.338   1.623   4.243
39434SOL     OW20140   8.607  10.073  10.438
39434SOL    HW120141   8.595  10.085  10.532
39434SOL    HW220142   8.557  10.144  10.397
39435SOL     OW20143   4.346  14.010   3.529
39435SOL    HW120144   4.340  14.039   3.620
39435SOL    HW220145   4.432  13.969   3.522
39436SOL     OW20146  12.616   9.898  12.105
39436SOL    HW120147  12.680   9.856  12.162
39436SOL    HW220148  12.628   9.855  12.020
39437SOL     OW20149   2.263  12.877   6.700
39437SOL    HW120150   2.279  12.863   6.607
39437SOL    HW220151   2.231  12.968   6.705
39438SOL     OW20152  12.778   0.467  10.220
39438SOL    HW120153  12.821   0.462  10.305
39438SOL    HW220154  12.803   0.553  10.185
39439SOL     OW20155   6.083   1.909   5.376
39439SOL    HW120156   6.150   1.966   5.414
39439SOL    HW220157   6.001   1.957   5.389
39440SOL     OW20158   5.619   8.134   9.589
39440SOL    HW120159   5.551   8.131   9.522
39440SOL    HW220160   5.619   8.046   9.627
39441SOL     OW20161  14.708  13.787   4.783
39441SOL    HW120162  14.621  13.828   4.787
39441SOL    HW220163  14.703  13.714   4.846
39442SOL     OW20164   6.026  13.644   8.480
39442SOL    HW120165   6.062  13.729   8.456
39442SOL    HW220166   6.001  13.653   8.572
39443SOL     OW20167  11.627   9.831   4.903
39443SOL    HW120168  11.698   9.875   4.857
39443SOL    HW220169  11.652   9.836   4.996
39444SOL     OW20170   6.711   5.141   8.521
39444SOL    HW120171   6.803   5.150   8.546
39444SOL    HW220172   6.699   5.048   8.504
39445SOL     OW20173   1.325   7.356  12.456
39445SOL    HW120174   1.400   7.386  12.405
39445SOL    HW220175   1.269   7.433  12.463
39446SOL     OW20176   9.346   1.769   2.518
39446SOL    HW120177   9.386   1.850   2.548
39446SOL    HW220178   9.403   1.737   2.448
39447SOL     OW20179  12.076  10.181  10.560
39447SOL    HW120180  12.071  10.166  10.654
39447SOL    HW220181  12.080  10.093  10.522
39448SOL     OW20182   1.126  13.332  14.659
39448SOL    HW120183   1.191  13.282  14.610
39448SOL    HW220184   1.043  13.310  14.617
39449SOL     OW20185   5.288   2.545   0.823
39449SOL    HW120186   5.304   2.451   0.820
39449SOL    HW220187   5.374   2.584   0.834
39450SOL     OW20188  14.425  11.577   5.542
39450SOL    HW120189  14.489  11.552   5.475
39450SOL    HW220190  14.477  11.592   5.621
39451SOL     OW20191  12.030  13.344   1.537
39451SOL    HW120192  12.116  13.383   1.526
39451SOL    HW220193  12.047  13.252   1.560
39452SOL     OW20194   9.444   7.629   5.268
39452SOL    HW120195   9.403   7.683   5.336
39452SOL    HW220196   9.522   7.678   5.242
39453SOL     OW20197   7.125   1.961  14.589
39453SOL    HW120198   7.178   2.022  14.539
39453SOL    HW220199   7.061   1.927  14.526
39454SOL     OW20200  13.801   7.751   9.807
39454SOL    HW120201  13.895   7.766   9.818
39454SOL    HW220202  13.760   7.814   9.867
39455SOL     OW20203   6.978   3.497   0.040
39455SOL    HW120204   6.911   3.541   0.092
39455SOL    HW220205   6.932   3.427  14.868
39456SOL     OW20206   0.178  13.045  13.611
39456SOL    HW120207   0.113  13.019  13.545
39456SOL    HW220208   0.173  13.140  13.614
39457SOL     OW20209   7.203  13.140   1.572
39457SOL    HW120210   7.294  13.168   1.579
39457SOL    HW220211   7.190  13.081   1.646
39458SOL     OW20212  11.752   6.260   4.974
39458SOL    HW120213  11.731   6.318   5.047
39458SOL    HW220214  11.680   6.272   4.912
39459SOL     OW20215   6.655   4.881   8.049
39459SOL    HW120216   6.604   4.923   7.980
39459SOL    HW220217   6.595   4.876   8.124
39460SOL     OW20218   1.756   3.567   5.690
39460SOL    HW120219   1.723   3.479   5.710
39460SOL    HW220220   1.680   3.624   5.699
39461SOL     OW20221   9.119  13.175   8.412
39461SOL    HW120222   9.194  13.235   8.409
39461SOL    HW220223   9.119  13.132   8.327
39462SOL     OW20224   5.484  13.018  10.966
39462SOL    HW120225   5.484  12.924  10.952
39462SOL    HW220226   5.551  13.034  11.032
39463SOL     OW20227   4.345   0.162  13.838
39463SOL    HW120228   4.272   0.181  13.897
39463SOL    HW220229   4.308   0.101  13.774
39464SOL     OW20230   9.877   7.721   9.501
39464SOL    HW120231   9.871   7.632   9.468
39464SOL    HW220232   9.838   7.717   9.588
39465SOL     OW20233   6.739   8.670   0.471
39465SOL    HW120234   6.655   8.700   0.437
39465SOL    HW220235   6.800   8.681   0.398
39466SOL     OW20236  12.299   6.179   2.163
39466SOL    HW120237  12.254   6.194   2.247
39466SOL    HW220238  12.298   6.265   2.120
39467SOL     OW20239   4.093  11.530   4.636
39467SOL    HW120240   4.125  11.562   4.552
39467SOL    HW220241   4.169  11.537   4.694
39468SOL     OW20242   2.817   2.866  10.193
39468SOL    HW120243   2.820   2.902  10.282
39468SOL    HW220244   2.890   2.906  10.147
39469SOL     OW20245   6.150  10.014   8.743
39469SOL    HW120246   6.195   9.931   8.757
39469SOL    HW220247   6.215  10.070   8.701
39470SOL     OW20248   9.967   3.816   1.733
39470SOL    HW120249   9.916   3.763   1.794
39470SOL    HW220250   9.916   3.896   1.722
39471SOL     OW20251   2.967  10.945   8.157
39471SOL    HW120252   2.984  10.916   8.067
39471SOL    HW220253   2.952  10.864   8.206
39472SOL     OW20254   0.454   8.292   2.814
39472SOL    HW120255   0.392   8.302   2.742
39472SOL    HW220256   0.517   8.363   2.800
39473SOL     OW20257  13.463   9.253   3.070
39473SOL    HW120258  13.544   9.281   3.026
39473SOL    HW220259  13.401   9.325   3.055
39474SOL     OW20260  12.206   1.451  14.484
39474SOL    HW120261  12.141   1.393  14.524
39474SOL    HW220262  12.181   1.539  14.516
39475SOL     OW20263   8.546   0.008  11.706
39475SOL    HW120264   8.594  14.870  11.625
39475SOL    HW220265   8.533  14.794  11.740
39476SOL     OW20266  12.446   1.837   4.814
39476SOL    HW120267  12.398   1.846   4.732
39476SOL    HW220268  12.535   1.868   4.794
39477SOL     OW20269  14.614   4.910   4.303
39477SOL    HW120270  14.606   4.931   4.210
39477SOL    HW220271  14.630   4.816   4.306
39478SOL     OW20272  12.825   1.509   6.119
39478SOL    HW120273  12.887   1.523   6.047
39478SOL    HW220274  12.880   1.479   6.191
39479SOL     OW20275  12.730   5.636  10.163
39479SOL    HW120276  12.823   5.641  10.143
39479SOL    HW220277  12.687   5.626  10.078
39480SOL     OW20278   5.012   4.944   6.919
39480SOL    HW120279   5.005   4.996   6.999
39480SOL    HW220280   4.945   4.877   6.928
39481SOL     OW20281   8.133  11.540   2.328
39481SOL    HW120282   8.159  11.459   2.284
39481SOL    HW220283   8.070  11.513   2.394
39482SOL     OW20284   1.234  14.165   1.760
39482SOL    HW120285   1.181  14.086   1.752
39482SOL    HW220286   1.196  14.213   1.833
39483SOL     OW20287   1.151   8.780   3.082
39483SOL    HW120288   1.164   8.686   3.069
39483SOL    HW220289   1.177   8.819   2.999
39484SOL     OW20290   1.145   6.360   7.559
39484SOL    HW120291   1.076   6.419   7.531
39484SOL    HW220292   1.226   6.409   7.545
39485SOL     OW20293   1.295   3.988  10.562
39485SOL    HW120294   1.320   4.079  10.575
39485SOL    HW220295   1.322   3.943  10.642
39486SOL     OW20296   8.411   9.079   8.424
39486SOL    HW120297   8.407   8.985   8.406
39486SOL    HW220298   8.429   9.084   8.518
39487SOL     OW20299   0.715   2.967   2.556
39487SOL    HW120300   0.789   2.962   2.616
39487SOL    HW220301   0.727   3.050   2.510
39488SOL     OW20302   1.033   4.236   3.662
39488SOL    HW120303   1.110   4.217   3.716
39488SOL    HW220304   1.040   4.175   3.589
39489SOL     OW20305   0.217   9.462   1.335
39489SOL    HW120306   0.247   9.470   1.244
39489SOL    HW220307   0.122   9.474   1.329
39490SOL     OW20308   5.263   4.749  13.008
39490SOL    HW120309   5.280   4.840  12.984
39490SOL    HW220310   5.198   4.755  13.079
39491SOL     OW20311   6.547   9.839   6.802
39491SOL    HW120312   6.587   9.809   6.720
39491SOL    HW220313   6.456   9.858   6.779
39492SOL     OW20314  13.183  11.150   3.851
39492SOL    HW120315  13.178  11.199   3.769
39492SOL    HW220316  13.197  11.216   3.918
39493SOL     OW20317   5.685  14.452   8.701
39493SOL    HW120318   5.620  14.514   8.733
39493SOL    HW220319   5.769  14.491   8.726
39494SOL     OW20320  13.055  13.558   6.927
39494SOL    HW120321  13.149  13.545   6.913
39494SOL    HW220322  13.046  13.653   6.939
39495SOL     OW20323  10.538   1.724  14.638
39495SOL    HW120324  10.586   1.807  14.638
39495SOL    HW220325  10.605   1.659  14.657
39496SOL     OW20326  13.271   6.089   1.449
39496SOL    HW120327  13.318   6.005   1.446
39496SOL    HW220328  13.332   6.152   1.410
39497SOL     OW20329  10.288   5.584   0.470
39497SOL    HW120330  10.238   5.597   0.551
39497SOL    HW220331  10.262   5.656   0.413
39498SOL     OW20332   3.937   4.556   5.085
39498SOL    HW120333   3.964   4.639   5.047
39498SOL    HW220334   3.842   4.562   5.092
39499SOL     OW20335   9.860   6.955   1.419
39499SOL    HW120336   9.827   6.905   1.494
39499SOL    HW220337   9.783   6.966   1.362
39500SOL     OW20338  10.391   0.543   4.242
39500SOL    HW120339  10.360   0.628   4.211
39500SOL    HW220340  10.338   0.479   4.195
39501SOL     OW20341   8.017   1.221   3.543
39501SOL    HW120342   7.938   1.271   3.563
39501SOL    HW220343   8.013   1.206   3.448
39502SOL     OW20344  13.909   0.239  13.884
39502SOL    HW120345  13.962   0.281  13.952
39502SOL    HW220346  13.939   0.278  13.802
39503SOL     OW20347   0.520  10.530   0.591
39503SOL    HW120348   0.580  10.600   0.617
39503SOL    HW220349   0.556  10.495   0.510
39504SOL     OW20350   8.174  14.589  14.521
39504SOL    HW120351   8.209  14.658  14.464
39504SOL    HW220352   8.250  14.535  14.543
39505SOL     OW20353   8.569   6.769   6.193
39505SOL    HW120354   8.552   6.689   6.244
39505SOL    HW220355   8.588   6.737   6.105
39506SOL     OW20356   2.104   5.465   7.482
39506SOL    HW120357   2.149   5.503   7.406
39506SOL    HW220358   2.158   5.491   7.557
39507SOL     OW20359  12.999  14.153   6.821
39507SOL    HW120360  13.022  14.233   6.774
39507SOL    HW220361  12.947  14.103   6.758
39508SOL     OW20362   9.179   5.385  13.319
39508SOL    HW120363   9.203   5.448  13.388
39508SOL    HW220364   9.135   5.438  13.253
39509SOL     OW20365  12.219  12.465  14.793
39509SOL    HW120366  12.126  12.469  14.773
39509SOL    HW220367  12.262  12.506  14.718
39510SOL     OW20368   8.076   4.822   2.375
39510SOL    HW120369   8.031   4.738   2.379
39510SOL    HW220370   8.116   4.833   2.461
39511SOL     OW20371   3.683  14.354   1.359
39511SOL    HW120372   3.676  14.369   1.454
39511SOL    HW220373   3.638  14.429   1.320
39512SOL     OW20374   1.445   2.648   5.165
39512SOL    HW120375   1.355   2.618   5.176
39512SOL    HW220376   1.454   2.665   5.071
39513SOL     OW20377   4.394   2.553  13.496
39513SOL    HW120378   4.380   2.568  13.590
39513SOL    HW220379   4.425   2.462  13.491
39514SOL     OW20380   9.553   3.658   6.871
39514SOL    HW120381   9.640   3.633   6.903
39514SOL    HW220382   9.531   3.737   6.919
39515SOL     OW20383   7.444   1.049   1.735
39515SOL    HW120384   7.414   1.081   1.650
39515SOL    HW220385   7.377   1.079   1.797
39516SOL     OW20386   0.562   2.044   3.752
39516SOL    HW120387   0.480   2.050   3.703
39516SOL    HW220388   0.550   1.970   3.811
39517SOL     OW20389  11.006   3.815   5.256
39517SOL    HW120390  11.078   3.775   5.206
39517SOL    HW220391  10.975   3.746   5.314
39518SOL     OW20392   5.540   9.452  10.758
39518SOL    HW120393   5.494   9.373  10.728
39518SOL    HW220394   5.560   9.499  10.677
39519SOL     OW20395   7.057  11.405   6.397
39519SOL    HW120396   6.980  11.430   6.346
39519SOL    HW220397   7.028  11.412   6.488
39520SOL     OW20398   0.522   2.719  14.343
39520SOL    HW120399   0.504   2.778  14.416
39520SOL    HW220400   0.476   2.638  14.365
39521SOL     OW20401   1.935  13.698   8.890
39521SOL    HW120402   2.009  13.749   8.924
39521SOL    HW220403   1.890  13.666   8.968
39522SOL     OW20404   4.798   9.923  14.469
39522SOL    HW120405   4.825   9.875  14.547
39522SOL    HW220406   4.707   9.947  14.487
39523SOL     OW20407   9.143   4.277   2.621
39523SOL    HW120408   9.155   4.348   2.558
39523SOL    HW220409   9.103   4.206   2.570
39524SOL     OW20410  10.137   6.354   1.877
39524SOL    HW120411  10.063   6.318   1.827
39524SOL    HW220412  10.098   6.388   1.957
39525SOL     OW20413   5.170   3.843   7.456
39525SOL    HW120414   5.206   3.921   7.499
39525SOL    HW220415   5.202   3.769   7.507
39526SOL     OW20416  10.752   8.930   4.359
39526SOL    HW120417  10.838   8.892   4.341
39526SOL    HW220418  10.710   8.868   4.418
39527SOL     OW20419  12.233   3.898   9.293
39527SOL    HW120420  12.233   3.804   9.307
39527SOL    HW220421  12.246   3.936   9.380
39528SOL     OW20422  14.619   2.723   2.331
39528SOL    HW120423  14.571   2.641   2.331
39528SOL    HW220424  14.555   2.788   2.362
39529SOL     OW20425  10.271  13.603  10.854
39529SOL    HW120426  10.307  13.691  10.844
39529SOL    HW220427  10.194  13.602  10.797
39530SOL     OW20428  10.095  10.350  11.141
39530SOL    HW120429  10.156  10.300  11.195
39530SOL    HW220430  10.036  10.285  11.103
39531SOL     OW20431   0.071   3.618   0.992
39531SOL    HW120432   0.135   3.586   0.929
39531SOL    HW220433   0.124   3.658   1.061
39532SOL     OW20434   6.643   2.839   8.107
39532SOL    HW120435   6.701   2.887   8.167
39532SOL    HW220436   6.678   2.857   8.020
39533SOL     OW20437  11.933   0.758   3.322
39533SOL    HW120438  11.885   0.686   3.280
39533SOL    HW220439  11.873   0.832   3.318
39534SOL     OW20440   9.311   2.265   1.367
39534SOL    HW120441   9.340   2.235   1.453
39534SOL    HW220442   9.389   2.303   1.327
39535SOL     OW20443   5.989   2.741   7.362
39535SOL    HW120444   6.058   2.702   7.308
39535SOL    HW220445   6.033   2.812   7.409
39536SOL     OW20446   1.629  11.677   0.858
39536SOL    HW120447   1.550  11.730   0.864
39536SOL    HW220448   1.671  11.706   0.777
39537SOL     OW20449  14.007  14.417  12.432
39537SOL    HW120450  14.064  14.406  12.509
39537SOL    HW220451  13.928  14.369  12.455
39538SOL     OW20452   8.218  10.397  10.221
39538SOL    HW120453   8.129  10.374  10.194
39538SOL    HW220454   8.268  10.403  10.140
39539SOL     OW20455   9.413   6.232   1.851
39539SOL    HW120456   9.456   6.204   1.931
39539SOL    HW220457   9.324   6.254   1.879
39540SOL     OW20458  13.039   8.017   3.174
39540SOL    HW120459  13.093   8.048   3.247
39540SOL    HW220460  12.961   7.980   3.217
39541SOL     OW20461   7.891  13.633   4.564
39541SOL    HW120462   7.902  13.540   4.546
39541SOL    HW220463   7.969  13.657   4.616
39542SOL     OW20464  12.872  11.832   4.532
39542SOL    HW120465  12.824  11.751   4.512
39542SOL    HW220466  12.964  11.806   4.530
39543SOL     OW20467  10.838   1.851   6.694
39543SOL    HW120468  10.776   1.834   6.765
39543SOL    HW220469  10.822   1.942   6.669
39544SOL     OW20470  14.158   0.823   8.622
39544SOL    HW120471  14.137   0.881   8.549
39544SOL    HW220472  14.109   0.859   8.696
39545SOL     OW20473   7.868   0.349   5.372
39545SOL    HW120474   7.781   0.308   5.378
39545SOL    HW220475   7.889   0.347   5.279
39546SOL     OW20476  13.823   2.600   2.042
39546SOL    HW120477  13.809   2.569   1.953
39546SOL    HW220478  13.748   2.657   2.059
39547SOL     OW20479   4.176  13.153  12.307
39547SOL    HW120480   4.088  13.171  12.273
39547SOL    HW220481   4.164  13.076  12.363
39548SOL     OW20482  14.491  10.267   7.547
39548SOL    HW120483  14.424  10.335   7.552
39548SOL    HW220484  14.447  10.188   7.578
39549SOL     OW20485  13.048  12.626   5.101
39549SOL    HW120486  13.099  12.586   5.172
39549SOL    HW220487  13.065  12.720   5.109
39550SOL     OW20488   8.213   7.576   2.107
39550SOL    HW120489   8.130   7.615   2.136
39550SOL    HW220490   8.279   7.614   2.166
39551SOL     OW20491   2.760   5.283   4.615
39551SOL    HW120492   2.720   5.364   4.583
39551SOL    HW220493   2.788   5.304   4.704
39552SOL     OW20494   6.827   0.725   9.610
39552SOL    HW120495   6.912   0.705   9.571
39552SOL    HW220496   6.789   0.639   9.630
39553SOL     OW20497   1.192   3.471   4.740
39553SOL    HW120498   1.237   3.481   4.824
39553SOL    HW220499   1.263   3.457   4.677
39554SOL     OW20500   8.859   1.531  11.050
39554SOL    HW120501   8.884   1.624  11.056
39554SOL    HW220502   8.911   1.497  10.977
39555SOL     OW20503  14.139   3.566  12.539
39555SOL    HW120504  14.192   3.554  12.460
39555SOL    HW220505  14.196   3.613  12.599
39556SOL     OW20506   3.422  10.922  12.490
39556SOL    HW120507   3.493  10.945  12.550
39556SOL    HW220508   3.349  10.899  12.547
39557SOL     OW20509   1.381   9.406  14.327
39557SOL    HW120510   1.302   9.359  14.351
39557SOL    HW220511   1.434   9.407  14.407
39558SOL     OW20512   2.035   6.379  14.769
39558SOL    HW120513   2.054   6.470  14.747
39558SOL    HW220514   1.940   6.372  14.767
39559SOL     OW20515   1.884   0.735   0.378
39559SOL    HW120516   1.928   0.766   0.457
39559SOL    HW220517   1.945   0.756   0.307
39560SOL     OW20518   9.403   7.559   4.643
39560SOL    HW120519   9.369   7.644   4.616
39560SOL    HW220520   9.374   7.549   4.733
39561SOL     OW20521   7.538   3.829   5.576
39561SOL    HW120522   7.507   3.864   5.492
39561SOL    HW220523   7.569   3.906   5.624
39562SOL     OW20524   3.903   5.128   7.405
39562SOL    HW120525   3.960   5.089   7.472
39562SOL    HW220526   3.839   5.059   7.385
39563SOL     OW20527   4.706  10.884   8.705
39563SOL    HW120528   4.799  10.869   8.685
39563SOL    HW220529   4.694  10.844   8.792
39564SOL     OW20530   0.557   9.006  10.494
39564SOL    HW120531   0.480   8.954  10.471
39564SOL    HW220532   0.535   9.095  10.466
39565SOL     OW20533   6.599  13.773   6.714
39565SOL    HW120534   6.540  13.803   6.782
39565SOL    HW220535   6.570  13.683   6.695
39566SOL     OW20536  14.854   0.708  11.566
39566SOL    HW120537  14.773   0.713  11.616
39566SOL    HW220538  14.847   0.628  11.515
39567SOL     OW20539  10.161   4.444   4.901
39567SOL    HW120540  10.210   4.378   4.951
39567SOL    HW220541  10.205   4.526   4.922
39568SOL     OW20542  12.633   1.137   2.893
39568SOL    HW120543  12.720   1.176   2.890
39568SOL    HW220544  12.602   1.142   2.802
39569SOL     OW20545   4.036   1.541   1.681
39569SOL    HW120546   3.992   1.462   1.649
39569SOL    HW220547   3.965   1.597   1.712
39570SOL     OW20548  11.131   0.263   2.266
39570SOL    HW120549  11.061   0.326   2.249
39570SOL    HW220550  11.085   0.180   2.281
39571SOL     OW20551   6.634  12.763   9.929
39571SOL    HW120552   6.692  12.690   9.953
39571SOL    HW220553   6.576  12.773  10.005
39572SOL     OW20554   2.333   4.031  14.731
39572SOL    HW120555   2.250   3.998  14.763
39572SOL    HW220556   2.315   4.121  14.704
39573SOL     OW20557  10.742   5.859   9.281
39573SOL    HW120558  10.686   5.907   9.220
39573SOL    HW220559  10.821   5.841   9.232
39574SOL     OW20560  10.341   1.657   0.605
39574SOL    HW120561  10.337   1.675   0.511
39574SOL    HW220562  10.406   1.720   0.638
39575SOL     OW20563   8.093  11.162   4.000
39575SOL    HW120564   8.146  11.152   4.079
39575SOL    HW220565   8.078  11.072   3.970
39576SOL     OW20566   5.585  13.102   6.471
39576SOL    HW120567   5.536  13.180   6.497
39576SOL    HW220568   5.530  13.029   6.498
39577SOL     OW20569   1.290  14.123  13.622
39577SOL    HW120570   1.373  14.136  13.667
39577SOL    HW220571   1.251  14.210  13.617
39578SOL     OW20572   9.826   4.268  12.093
39578SOL    HW120573   9.793   4.326  12.025
39578SOL    HW220574   9.852   4.326  12.164
39579SOL     OW20575   8.991  12.958  13.396
39579SOL    HW120576   9.076  12.916  13.386
39579SOL    HW220577   8.930  12.886  13.414
39580SOL     OW20578  13.572  12.843   0.272
39580SOL    HW120579  13.499  12.798   0.230
39580SOL    HW220580  13.617  12.887   0.201
39581SOL     OW20581  11.072  12.430  13.127
39581SOL    HW120582  11.085  12.337  13.107
39581SOL    HW220583  11.161  12.465  13.139
39582SOL     OW20584   6.153   0.997   8.362
39582SOL    HW120585   6.228   0.975   8.308
39582SOL    HW220586   6.153   1.093   8.364
39583SOL     OW20587  11.311  14.684   6.716
39583SOL    HW120588  11.317  14.640   6.632
39583SOL    HW220589  11.260  14.763   6.699
39584SOL     OW20590  14.065  14.686  13.270
39584SOL    HW120591  14.076  14.781  13.262
39584SOL    HW220592  14.140  14.657  13.322
39585SOL     OW20593   2.610   2.993  11.861
39585SOL    HW120594   2.569   2.977  11.776
39585SOL    HW220595   2.669   3.067  11.845
39586SOL     OW20596  11.178   5.011  11.624
39586SOL    HW120597  11.237   4.986  11.553
39586SOL    HW220598  11.236   5.028  11.698
39587SOL     OW20599  11.069  11.913   0.946
39587SOL    HW120600  11.017  11.966   1.007
39587SOL    HW220601  11.007  11.888   0.877
39588SOL     OW20602   6.860  13.617   7.115
39588SOL    HW120603   6.893  13.585   7.031
39588SOL    HW220604   6.877  13.546   7.176
39589SOL     OW20605   3.333   5.242   2.380
39589SOL    HW120606   3.255   5.225   2.329
39589SOL    HW220607   3.404   5.249   2.316
39590SOL     OW20608  12.457   7.144   4.726
39590SOL    HW120609  12.472   7.206   4.655
39590SOL    HW220610  12.512   7.177   4.798
39591SOL     OW20611   4.564   6.613   1.980
39591SOL    HW120612   4.479   6.655   1.992
39591SOL    HW220613   4.542   6.523   1.954
39592SOL     OW20614   5.476   0.360   5.404
39592SOL    HW120615   5.424   0.410   5.467
39592SOL    HW220616   5.437   0.273   5.404
39593SOL     OW20617   8.968   5.951   3.416
39593SOL    HW120618   8.911   5.875   3.405
39593SOL    HW220619   8.910   6.020   3.447
39594SOL     OW20620  13.604   1.650   3.486
39594SOL    HW120621  13.517   1.673   3.517
39594SOL    HW220622  13.596   1.649   3.391
39595SOL     OW20623   1.832   0.057   6.068
39595SOL    HW120624   1.905   0.064   6.007
39595SOL    HW220625   1.847   0.126   6.133
39596SOL     OW20626   5.562   1.196   0.170
39596SOL    HW120627   5.656   1.185   0.156
39596SOL    HW220628   5.525   1.110   0.150
39597SOL     OW20629   3.077  12.938   0.893
39597SOL    HW120630   3.025  13.018   0.886
39597SOL    HW220631   3.012  12.868   0.900
39598SOL     OW20632  13.738   8.232  13.108
39598SOL    HW120633  13.804   8.196  13.050
39598SOL    HW220634  13.678   8.160  13.127
39599SOL     OW20635  11.213  12.494  10.261
39599SOL    HW120636  11.251  12.494  10.174
39599SOL    HW220637  11.146  12.426  10.258
39600SOL     OW20638  13.229   4.691   8.643
39600SOL    HW120639  13.220   4.728   8.731
39600SOL    HW220640  13.310   4.640   8.647
39601SOL     OW20641  10.268   9.356   2.792
39601SOL    HW120642  10.208   9.414   2.839
39601SOL    HW220643  10.227   9.343   2.707
39602SOL     OW20644   7.668   7.592   3.419
39602SOL    HW120645   7.678   7.625   3.329
39602SOL    HW220646   7.750   7.616   3.462
39603SOL     OW20647   7.514   6.403   3.539
39603SOL    HW120648   7.523   6.487   3.583
39603SOL    HW220649   7.575   6.345   3.585
39604SOL     OW20650   2.487  10.747   9.634
39604SOL    HW120651   2.573  10.786   9.647
39604SOL    HW220652   2.427  10.806   9.680
39605SOL     OW20653   2.389   2.545   8.677
39605SOL    HW120654   2.436   2.606   8.734
39605SOL    HW220655   2.305   2.532   8.720
39606SOL     OW20656   6.815   0.815   1.410
39606SOL    HW120657   6.864   0.859   1.339
39606SOL    HW220658   6.837   0.865   1.488
39607SOL     OW20659   0.310   7.662   4.581
39607SOL    HW120660   0.393   7.644   4.625
39607SOL    HW220661   0.282   7.747   4.615
39608SOL     OW20662   3.957   1.498   7.470
39608SOL    HW120663   3.989   1.577   7.425
39608SOL    HW220664   4.020   1.430   7.445
39609SOL     OW20665   5.582   4.331  11.675
39609SOL    HW120666   5.518   4.331  11.746
39609SOL    HW220667   5.597   4.424  11.657
39610SOL     OW20668   2.110   7.948   3.562
39610SOL    HW120669   2.173   7.976   3.629
39610SOL    HW220670   2.164   7.930   3.485
39611SOL     OW20671  12.446  13.973   3.243
39611SOL    HW120672  12.512  14.041   3.231
39611SOL    HW220673  12.494  13.898   3.277
39612SOL     OW20674   4.992   4.376  13.098
39612SOL    HW120675   4.918   4.426  13.063
39612SOL    HW220676   4.987   4.292  13.052
39613SOL     OW20677   2.538   6.776   4.660
39613SOL    HW120678   2.628   6.772   4.626
39613SOL    HW220679   2.504   6.859   4.628
39614SOL     OW20680   5.873   9.627  14.407
39614SOL    HW120681   5.872   9.698  14.343
39614SOL    HW220682   5.965   9.615  14.430
39615SOL     OW20683  10.472   8.094   8.411
39615SOL    HW120684  10.398   8.147   8.380
39615SOL    HW220685  10.437   8.005   8.418
39616SOL     OW20686   6.222   0.065   8.706
39616SOL    HW120687   6.259   0.066   8.618
39616SOL    HW220688   6.147   0.006   8.699
39617SOL     OW20689  11.558   1.636   4.583
39617SOL    HW120690  11.484   1.657   4.525
39617SOL    HW220691  11.626   1.604   4.524
39618SOL     OW20692   4.858   5.480   3.835
39618SOL    HW120693   4.922   5.409   3.840
39618SOL    HW220694   4.904   5.550   3.788
39619SOL     OW20695   5.452   4.072   0.858
39619SOL    HW120696   5.532   4.123   0.868
39619SOL    HW220697   5.417   4.098   0.773
39620SOL     OW20698  14.469  12.241   9.544
39620SOL    HW120699  14.533  12.177   9.574
39620SOL    HW220700  14.393  12.226   9.601
39621SOL     OW20701   4.519  11.692   0.621
39621SOL    HW120702   4.449  11.659   0.677
39621SOL    HW220703   4.482  11.688   0.533
39622SOL     OW20704  14.287   4.881  12.414
39622SOL    HW120705  14.289   4.924  12.328
39622SOL    HW220706  14.319   4.948  12.474
39623SOL     OW20707   0.585   2.342  13.410
39623SOL    HW120708   0.576   2.418  13.467
39623SOL    HW220709   0.660   2.294  13.446
39624SOL     OW20710  12.935  11.330   8.566
39624SOL    HW120711  12.998  11.339   8.638
39624SOL    HW220712  12.880  11.409   8.572
39625SOL     OW20713  13.727   1.465   1.222
39625SOL    HW120714  13.673   1.544   1.222
39625SOL    HW220715  13.782   1.473   1.300
39626SOL     OW20716  13.844  13.748   5.768
39626SOL    HW120717  13.908  13.677   5.759
39626SOL    HW220718  13.854  13.798   5.687
39627SOL     OW20719  14.082   1.509   8.459
39627SOL    HW120720  14.072   1.521   8.364
39627SOL    HW220721  14.065   1.596   8.495
39628SOL     OW20722  13.552  13.273  10.635
39628SOL    HW120723  13.601  13.264  10.553
39628SOL    HW220724  13.597  13.343  10.683
39629SOL     OW20725   9.359  12.995   4.420
39629SOL    HW120726   9.352  12.982   4.325
39629SOL    HW220727   9.452  13.010   4.435
39630SOL     OW20728  11.718   3.252   4.373
39630SOL    HW120729  11.701   3.160   4.396
39630SOL    HW220730  11.792   3.277   4.427
39631SOL     OW20731   1.524  12.479   3.163
39631SOL    HW120732   1.530  12.500   3.070
39631SOL    HW220733   1.613  12.453   3.187
39632SOL     OW20734  10.459  11.232   4.155
39632SOL    HW120735  10.534  11.258   4.102
39632SOL    HW220736  10.383  11.253   4.101
39633SOL     OW20737   9.779  10.821  13.061
39633SOL    HW120738   9.849  10.882  13.083
39633SOL    HW220739   9.824  10.744  13.026
39634SOL     OW20740   4.742  12.682   0.468
39634SOL    HW120741   4.836  12.665   0.456
39634SOL    HW220742   4.716  12.621   0.537
39635SOL     OW20743   6.519  11.683  10.335
39635SOL    HW120744   6.486  11.626  10.405
39635SOL    HW220745   6.456  11.672  10.264
39636SOL     OW20746  11.944  14.265  11.361
39636SOL    HW120747  11.918  14.283  11.270
39636SOL    HW220748  11.862  14.238  11.403
39637SOL     OW20749  10.964  12.707   2.745
39637SOL    HW120750  10.897  12.668   2.801
39637SOL    HW220751  10.941  12.681   2.656
39638SOL     OW20752   4.441   3.600  10.715
39638SOL    HW120753   4.365   3.642  10.756
39638SOL    HW220754   4.448   3.515  10.758
39639SOL     OW20755   6.511   8.971  12.829
39639SOL    HW120756   6.450   9.041  12.808
39639SOL    HW220757   6.477   8.895  12.782
39640SOL     OW20758   6.272   5.016   9.205
39640SOL    HW120759   6.217   4.944   9.174
39640SOL    HW220760   6.318   5.046   9.127
39641SOL     OW20761  12.458   2.878   6.488
39641SOL    HW120762  12.475   2.853   6.397
39641SOL    HW220763  12.385   2.821   6.515
39642SOL     OW20764   6.380   6.542   9.648
39642SOL    HW120765   6.331   6.620   9.623
39642SOL    HW220766   6.466   6.554   9.607
39643SOL     OW20767   2.667  12.227   9.923
39643SOL    HW120768   2.659  12.323   9.924
39643SOL    HW220769   2.675  12.205   9.830
39644SOL     OW20770   3.170   5.420  14.781
39644SOL    HW120771   3.236   5.361  14.819
39644SOL    HW220772   3.148   5.480  14.852
39645SOL     OW20773  12.790   2.689   3.064
39645SOL    HW120774  12.705   2.686   3.019
39645SOL    HW220775  12.846   2.631   3.013
39646SOL     OW20776   6.339  11.127   3.563
39646SOL    HW120777   6.281  11.127   3.639
39646SOL    HW220778   6.406  11.062   3.583
39647SOL     OW20779   9.970   0.225   3.674
39647SOL    HW120780   9.959   0.147   3.727
39647SOL    HW220781  10.017   0.286   3.731
39648SOL     OW20782   5.049   5.042   6.213
39648SOL    HW120783   4.993   4.994   6.152
39648SOL    HW220784   4.999   5.121   6.234
39649SOL     OW20785   5.757   3.816  12.022
39649SOL    HW120786   5.724   3.896  12.064
39649SOL    HW220787   5.815   3.777  12.087
39650SOL     OW20788   9.735  14.171  14.552
39650SOL    HW120789   9.770  14.177  14.641
39650SOL    HW220790   9.698  14.258  14.535
39651SOL     OW20791   7.065   3.837  14.808
39651SOL    HW120792   6.972   3.813  14.801
39651SOL    HW220793   7.098   3.784   0.006
39652SOL     OW20794  13.310   9.087   4.514
39652SOL    HW120795  13.322   8.993   4.524
39652SOL    HW220796  13.395   9.125   4.536
39653SOL     OW20797  10.934   0.481   7.389
39653SOL    HW120798  10.868   0.454   7.453
39653SOL    HW220799  10.897   0.457   7.304
39654SOL     OW20800   2.095  13.465   3.096
39654SOL    HW120801   2.164  13.422   3.147
39654SOL    HW220802   2.136  13.545   3.063
39655SOL     OW20803  10.924  10.491  11.439
39655SOL    HW120804  10.953  10.576  11.472
39655SOL    HW220805  10.838  10.477  11.480
39656SOL     OW20806  12.541   0.713   4.972
39656SOL    HW120807  12.577   0.779   5.030
39656SOL    HW220808  12.581   0.630   5.001
39657SOL     OW20809  12.113   0.668   5.158
39657SOL    HW120810  12.049   0.698   5.222
39657SOL    HW220811  12.060   0.629   5.088
39658SOL     OW20812  11.973   7.318  14.631
39658SOL    HW120813  12.038   7.380  14.597
39658SOL    HW220814  11.931   7.365  14.704
39659SOL     OW20815  10.796  10.436   2.835
39659SOL    HW120816  10.875  10.481   2.803
39659SOL    HW220817  10.751  10.503   2.887
39660SOL     OW20818  12.210   0.167   1.859
39660SOL    HW120819  12.268   0.233   1.897
39660SOL    HW220820  12.193   0.197   1.770
39661SOL     OW20821  14.704  12.962   2.605
39661SOL    HW120822  14.773  13.023   2.630
39661SOL    HW220823  14.741  12.875   2.623
39662SOL     OW20824   0.688   6.581  14.256
39662SOL    HW120825   0.685   6.656  14.315
39662SOL    HW220826   0.596   6.563  14.234
39663SOL     OW20827   4.055   6.002   4.612
39663SOL    HW120828   4.074   6.004   4.518
39663SOL    HW220829   4.055   6.094   4.639
39664SOL     OW20830  14.216   0.475  11.564
39664SOL    HW120831  14.288   0.476  11.627
39664SOL    HW220832  14.238   0.545  11.502
39665SOL     OW20833  10.637   6.995   0.487
39665SOL    HW120834  10.616   6.977   0.395
39665SOL    HW220835  10.561   6.963   0.535
39666SOL     OW20836   5.983   3.635  11.409
39666SOL    HW120837   6.010   3.581  11.335
39666SOL    HW220838   5.943   3.712  11.368
39667SOL     OW20839   2.348  13.859   6.443
39667SOL    HW120840   2.378  13.933   6.496
39667SOL    HW220841   2.261  13.840   6.476
39668SOL     OW20842   8.151   7.416  10.374
39668SOL    HW120843   8.083   7.383  10.433
39668SOL    HW220844   8.145   7.511  10.380
39669SOL     OW20845   8.970   3.618   7.176
39669SOL    HW120846   9.014   3.637   7.093
39669SOL    HW220847   8.952   3.704   7.214
39670SOL     OW20848   5.656   7.979   2.177
39670SOL    HW120849   5.701   7.900   2.146
39670SOL    HW220850   5.602   7.948   2.250
39671SOL     OW20851   2.506   3.030   0.521
39671SOL    HW120852   2.522   3.106   0.465
39671SOL    HW220853   2.490   2.958   0.461
39672SOL     OW20854   5.561  13.376   7.728
39672SOL    HW120855   5.609  13.332   7.798
39672SOL    HW220856   5.544  13.307   7.664
39673SOL     OW20857   5.624   0.394   9.696
39673SOL    HW120858   5.657   0.447   9.623
39673SOL    HW220859   5.529   0.389   9.681
39674SOL     OW20860  14.377   3.024   0.913
39674SOL    HW120861  14.415   3.112   0.916
39674SOL    HW220862  14.304   3.028   0.975
39675SOL     OW20863   0.478   8.823  14.826
39675SOL    HW120864   0.397   8.809  14.777
39675SOL    HW220865   0.522   8.738  14.824
39676SOL     OW20866   0.888   2.760  10.279
39676SOL    HW120867   0.938   2.678  10.279
39676SOL    HW220868   0.940   2.820  10.226
39677SOL     OW20869   2.762   8.394   1.880
39677SOL    HW120870   2.852   8.375   1.906
39677SOL    HW220871   2.717   8.415   1.962
39678SOL     OW20872   8.829   8.204   0.226
39678SOL    HW120873   8.797   8.266   0.292
39678SOL    HW220874   8.810   8.118   0.263
39679SOL     OW20875  14.668   5.952   1.785
39679SOL    HW120876  14.600   5.892   1.754
39679SOL    HW220877  14.737   5.945   1.719
39680SOL     OW20878   1.644   4.025   9.732
39680SOL    HW120879   1.657   4.115   9.701
39680SOL    HW220880   1.577   4.032   9.800
39681SOL     OW20881   5.607   1.026   9.536
39681SOL    HW120882   5.660   0.989   9.465
39681SOL    HW220883   5.627   0.972   9.612
39682SOL     OW20884  13.257   7.588  13.970
39682SOL    HW120885  13.260   7.651  14.042
39682SOL    HW220886  13.263   7.641  13.891
39683SOL     OW20887   5.447   5.413   6.131
39683SOL    HW120888   5.388   5.338   6.134
39683SOL    HW220889   5.534   5.376   6.148
39684SOL     OW20890  11.203   7.980   9.279
39684SOL    HW120891  11.121   8.000   9.233
39684SOL    HW220892  11.223   7.890   9.255
39685SOL     OW20893   5.741   3.333  10.120
39685SOL    HW120894   5.689   3.286  10.054
39685SOL    HW220895   5.807   3.380  10.069
39686SOL     OW20896   8.626   8.529  13.461
39686SOL    HW120897   8.662   8.465  13.521
39686SOL    HW220898   8.569   8.479  13.402
39687SOL     OW20899   2.737   8.416   4.441
39687SOL    HW120900   2.795   8.488   4.418
39687SOL    HW220901   2.690   8.396   4.360
39688SOL     OW20902  11.769   2.250  12.574
39688SOL    HW120903  11.706   2.206  12.631
39688SOL    HW220904  11.774   2.339  12.608
39689SOL     OW20905   2.651   2.939   4.848
39689SOL    HW120906   2.618   2.886   4.776
39689SOL    HW220907   2.654   2.879   4.923
39690SOL     OW20908   8.507  12.899  10.626
39690SOL    HW120909   8.544  12.978  10.665
39690SOL    HW220910   8.413  12.907  10.642
39691SOL     OW20911   6.245   8.310   0.122
39691SOL    HW120912   6.246   8.273   0.210
39691SOL    HW220913   6.164   8.361   0.118
39692SOL     OW20914   5.095  14.617   5.806
39692SOL    HW120915   5.149  14.603   5.728
39692SOL    HW220916   5.131  14.696   5.846
39693SOL     OW20917   6.676   1.385   2.690
39693SOL    HW120918   6.635   1.351   2.610
39693SOL    HW220919   6.688   1.478   2.673
39694SOL     OW20920   1.191   4.819  12.448
39694SOL    HW120921   1.116   4.877  12.435
39694SOL    HW220922   1.230   4.848  12.530
39695SOL     OW20923   7.301   9.038   9.996
39695SOL    HW120924   7.280   9.128   9.970
39695SOL    HW220925   7.266   9.030  10.085
39696SOL     OW20926   9.859   0.438   8.337
39696SOL    HW120927   9.913   0.363   8.311
39696SOL    HW220928   9.828   0.417   8.425
39697SOL     OW20929   5.485   0.535   1.331
39697SOL    HW120930   5.552   0.604   1.323
39697SOL    HW220931   5.416   0.563   1.271
39698SOL     OW20932  14.236  10.230   3.441
39698SOL    HW120933  14.330  10.244   3.450
39698SOL    HW220934  14.197  10.286   3.508
39699SOL     OW20935  11.059  13.363  14.858
39699SOL    HW120936  11.043  13.289  14.799
39699SOL    HW220937  11.131  13.333   0.040
39700SOL     OW20938   8.982  11.096  13.771
39700SOL    HW120939   9.008  11.163  13.834
39700SOL    HW220940   8.951  11.023  13.825
39701SOL     OW20941  13.447   0.553   1.404
39701SOL    HW120942  13.498   0.633   1.394
39701SOL    HW220943  13.466   0.503   1.325
39702SOL     OW20944   5.978   0.932   1.051
39702SOL    HW120945   6.025   0.849   1.052
39702SOL    HW220946   5.998   0.970   0.966
39703SOL     OW20947   8.270   4.173  11.855
39703SOL    HW120948   8.319   4.105  11.809
39703SOL    HW220949   8.320   4.189  11.935
39704SOL     OW20950   5.491   0.239   5.747
39704SOL    HW120951   5.576   0.246   5.703
39704SOL    HW220952   5.511   0.242   5.840
39705SOL     OW20953   0.559   5.975   5.654
39705SOL    HW120954   0.488   5.937   5.602
39705SOL    HW220955   0.637   5.966   5.599
39706SOL     OW20956   9.493   0.109  11.234
39706SOL    HW120957   9.447   0.156  11.303
39706SOL    HW220958   9.493   0.170  11.160
39707SOL     OW20959   3.719  12.024   6.476
39707SOL    HW120960   3.702  12.089   6.408
39707SOL    HW220961   3.742  12.076   6.554
39708SOL     OW20962  10.526   5.358  13.761
39708SOL    HW120963  10.482   5.290  13.813
39708SOL    HW220964  10.541   5.317  13.676
39709SOL     OW20965   5.991  13.704   8.096
39709SOL    HW120966   6.079  13.732   8.123
39709SOL    HW220967   5.980  13.741   8.008
39710SOL     OW20968   2.508  14.543   2.363
39710SOL    HW120969   2.499  14.491   2.283
39710SOL    HW220970   2.600  14.535   2.386
39711SOL     OW20971   5.567   7.727   3.591
39711SOL    HW120972   5.507   7.748   3.519
39711SOL    HW220973   5.513   7.733   3.670
39712SOL     OW20974   5.188   8.521  11.866
39712SOL    HW120975   5.241   8.592  11.901
39712SOL    HW220976   5.169   8.546  11.776
39713SOL     OW20977   2.845   7.422  14.831
39713SOL    HW120978   2.759   7.458  14.853
39713SOL    HW220979   2.847   7.422  14.735
39714SOL     OW20980   8.719   0.626  14.716
39714SOL    HW120981   8.692   0.537  14.738
39714SOL    HW220982   8.699   0.677  14.795
39715SOL     OW20983  11.410  12.046  11.168
39715SOL    HW120984  11.337  11.987  11.189
39715SOL    HW220985  11.396  12.122  11.224
39716SOL     OW20986   0.266   0.414   6.061
39716SOL    HW120987   0.289   0.324   6.037
39716SOL    HW220988   0.238   0.455   5.979
39717SOL     OW20989  14.282  10.092  12.255
39717SOL    HW120990  14.222  10.166  12.246
39717SOL    HW220991  14.363  10.131  12.289
39718SOL     OW20992   8.559   1.474   7.332
39718SOL    HW120993   8.575   1.563   7.362
39718SOL    HW220994   8.580   1.419   7.408
39719SOL     OW20995  12.901  13.505   4.893
39719SOL    HW120996  12.946  13.482   4.974
39719SOL    HW220997  12.969  13.497   4.826
39720SOL     OW20998   0.647  12.712  11.103
39720SOL    HW120999   0.590  12.785  11.079
39720SOL    HW221000   0.671  12.730  11.194
39721SOL     OW21001   7.858   2.127   4.940
39721SOL    HW121002   7.786   2.185   4.913
39721SOL    HW221003   7.830   2.094   5.026
39722SOL     OW21004   0.736   8.336   3.540
39722SOL    HW121005   0.790   8.369   3.612
39722SOL    HW221006   0.736   8.241   3.552
39723SOL     OW21007   3.004  10.511  14.121
39723SOL    HW121008   3.085  10.462  14.105
39723SOL    HW221009   2.970  10.529  14.033
39724SOL     OW21010   3.824   2.785   0.481
39724SOL    HW121011   3.881   2.855   0.512
39724SOL    HW221012   3.848   2.709   0.535
39725SOL     OW21013   1.097   7.636   6.872
39725SOL    HW121014   1.025   7.659   6.813
39725SOL    HW221015   1.101   7.708   6.934
39726SOL     OW21016   3.438   1.209   0.492
39726SOL    HW121017   3.352   1.195   0.454
39726SOL    HW221018   3.476   1.122   0.500
39727SOL     OW21019  14.785   1.732   5.452
39727SOL    HW121020  14.716   1.716   5.516
39727SOL    HW221021  14.743   1.785   5.384
39728SOL     OW21022   0.107   4.230  13.327
39728SOL    HW121023   0.169   4.275  13.385
39728SOL    HW221024   0.161   4.189  13.260
39729SOL     OW21025   9.663  10.446  12.029
39729SOL    HW121026   9.571  10.464  12.013
39729SOL    HW221027   9.663  10.365  12.080
39730SOL     OW21028   9.503   4.029   0.245
39730SOL    HW121029   9.427   4.025   0.302
39730SOL    HW221030   9.534   4.120   0.253
39731SOL     OW21031  14.476   3.563   0.894
39731SOL    HW121032  14.444   3.586   0.982
39731SOL    HW221033  14.557   3.516   0.909
39732SOL     OW21034  14.508  10.580   7.264
39732SOL    HW121035  14.480  10.659   7.217
39732SOL    HW221036  14.443  10.569   7.334
39733SOL     OW21037  13.401   8.800  14.044
39733SOL    HW121038  13.334   8.852  14.088
39733SOL    HW221039  13.438   8.745  14.113
39734SOL     OW21040   1.347  10.758  13.823
39734SOL    HW121041   1.347  10.819  13.896
39734SOL    HW221042   1.349  10.814  13.745
39735SOL     OW21043   6.502  13.412   3.528
39735SOL    HW121044   6.546  13.387   3.446
39735SOL    HW221045   6.410  13.392   3.513
39736SOL     OW21046   3.442  10.889  10.604
39736SOL    HW121047   3.512  10.824  10.600
39736SOL    HW221048   3.486  10.974  10.596
39737SOL     OW21049   4.436  11.462   9.609
39737SOL    HW121050   4.454  11.496   9.521
39737SOL    HW221051   4.518  11.424   9.638
39738SOL     OW21052   8.700   7.548   8.798
39738SOL    HW121053   8.776   7.532   8.742
39738SOL    HW221054   8.682   7.641   8.788
39739SOL     OW21055   9.741   2.710  12.818
39739SOL    HW121056   9.736   2.785  12.878
39739SOL    HW221057   9.666   2.656  12.841
39740SOL     OW21058  11.141   2.480   5.213
39740SOL    HW121059  11.168   2.485   5.121
39740SOL    HW221060  11.079   2.408   5.216
39741SOL     OW21061   5.594   8.671  10.660
39741SOL    HW121062   5.641   8.621  10.727
39741SOL    HW221063   5.654   8.741  10.635
39742SOL     OW21064   5.803   7.884   2.490
39742SOL    HW121065   5.893   7.909   2.472
39742SOL    HW221066   5.773   7.947   2.556
39743SOL     OW21067   7.036   3.023  14.706
39743SOL    HW121068   6.967   3.034  14.641
39743SOL    HW221069   7.062   3.113  14.727
39744SOL     OW21070   9.319   0.969  10.664
39744SOL    HW121071   9.386   0.922  10.712
39744SOL    HW221072   9.350   0.970  10.573
39745SOL     OW21073  12.092   7.802   6.991
39745SOL    HW121074  12.181   7.810   6.959
39745SOL    HW221075  12.099   7.815   7.086
39746SOL     OW21076   0.545   4.224  12.641
39746SOL    HW121077   0.565   4.247  12.731
39746SOL    HW221078   0.533   4.129  12.642
39747SOL     OW21079   5.254   6.160  13.237
39747SOL    HW121080   5.206   6.227  13.286
39747SOL    HW221081   5.233   6.177  13.145
39748SOL     OW21082   4.008   1.173  12.703
39748SOL    HW121083   3.913   1.160  12.699
39748SOL    HW221084   4.034   1.184  12.612
39749SOL     OW21085   9.261   6.854   9.909
39749SOL    HW121086   9.340   6.802   9.915
39749SOL    HW221087   9.189   6.791   9.916
39750SOL     OW21088   3.320   8.529   3.114
39750SOL    HW121089   3.341   8.516   3.022
39750SOL    HW221090   3.355   8.452   3.158
39751SOL     OW21091   3.402  12.356   5.594
39751SOL    HW121092   3.444  12.405   5.665
39751SOL    HW221093   3.326  12.409   5.570
39752SOL     OW21094   9.135   0.939  14.481
39752SOL    HW121095   9.156   0.851  14.450
39752SOL    HW221096   9.207   0.962  14.540
39753SOL     OW21097   1.156  10.775   8.331
39753SOL    HW121098   1.091  10.789   8.263
39753SOL    HW221099   1.108  10.782   8.413
39754SOL     OW21100   3.856  12.495   7.615
39754SOL    HW121101   3.830  12.440   7.689
39754SOL    HW221102   3.840  12.441   7.538
39755SOL     OW21103   6.537   9.604   6.487
39755SOL    HW121104   6.524   9.544   6.414
39755SOL    HW221105   6.498   9.560   6.562
39756SOL     OW21106  13.748   4.072   2.088
39756SOL    HW121107  13.731   4.121   2.007
39756SOL    HW221108  13.664   4.036   2.113
39757SOL     OW21109  11.887   9.908  10.708
39757SOL    HW121110  11.822   9.977  10.694
39757SOL    HW221111  11.956   9.927  10.643
39758SOL     OW21112   0.651   1.562   6.758
39758SOL    HW121113   0.722   1.611   6.800
39758SOL    HW221114   0.639   1.485   6.812
39759SOL     OW21115   5.314   0.704   9.071
39759SOL    HW121116   5.238   0.702   9.129
39759SOL    HW221117   5.356   0.788   9.089
39760SOL     OW21118   5.835   7.880  13.766
39760SOL    HW121119   5.806   7.890  13.676
39760SOL    HW221120   5.761   7.912  13.819
39761SOL     OW21121  13.147   3.824  12.938
39761SOL    HW121122  13.083   3.850  12.872
39761SOL    HW221123  13.230   3.861  12.906
39762SOL     OW21124   1.135   1.361   8.249
39762SOL    HW121125   1.088   1.443   8.235
39762SOL    HW221126   1.070   1.302   8.287
39763SOL     OW21127   9.339  14.564  14.433
39763SOL    HW121128   9.276  14.519  14.489
39763SOL    HW221129   9.391  14.617  14.494
39764SOL     OW21130   8.324   3.639   6.254
39764SOL    HW121131   8.307   3.719   6.204
39764SOL    HW221132   8.256   3.578   6.226
39765SOL     OW21133   3.959   1.627   9.258
39765SOL    HW121134   3.873   1.586   9.266
39765SOL    HW221135   3.945   1.702   9.201
39766SOL     OW21136   8.031   7.048   6.668
39766SOL    HW121137   8.007   6.956   6.654
39766SOL    HW221138   8.117   7.057   6.626
39767SOL     OW21139  12.899  13.948   6.634
39767SOL    HW121140  12.842  13.872   6.629
39767SOL    HW221141  12.987  13.913   6.620
39768SOL     OW21142   9.313   5.156   6.663
39768SOL    HW121143   9.220   5.132   6.654
39768SOL    HW221144   9.347   5.150   6.574
39769SOL     OW21145   9.383   6.227  13.862
39769SOL    HW121146   9.295   6.215  13.898
39769SOL    HW221147   9.368   6.250  13.770
39770SOL     OW21148  11.329  10.686  10.434
39770SOL    HW121149  11.342  10.608  10.380
39770SOL    HW221150  11.236  10.708  10.423
39771SOL     OW21151  11.769  11.349   0.172
39771SOL    HW121152  11.809  11.327   0.088
39771SOL    HW221153  11.730  11.436   0.158
39772SOL     OW21154  14.299   1.923  10.007
39772SOL    HW121155  14.238   1.881   9.948
39772SOL    HW221156  14.319   1.856  10.073
39773SOL     OW21157   7.716   9.553   4.056
39773SOL    HW121158   7.688   9.546   4.147
39773SOL    HW221159   7.664   9.625   4.020
39774SOL     OW21160   8.168   6.857  11.369
39774SOL    HW121161   8.073   6.857  11.365
39774SOL    HW221162   8.195   6.809  11.290
39775SOL     OW21163   7.082  12.534   3.367
39775SOL    HW121164   7.154  12.499   3.420
39775SOL    HW221165   7.038  12.457   3.333
39776SOL     OW21166  13.189   3.366   7.842
39776SOL    HW121167  13.242   3.391   7.917
39776SOL    HW221168  13.121   3.434   7.836
39777SOL     OW21169  11.429   5.475   2.419
39777SOL    HW121170  11.424   5.464   2.324
39777SOL    HW221171  11.419   5.569   2.433
39778SOL     OW21172   9.655   8.301  10.580
39778SOL    HW121173   9.592   8.360  10.620
39778SOL    HW221174   9.734   8.311  10.632
39779SOL     OW21175  11.150   5.871  10.017
39779SOL    HW121176  11.103   5.954  10.029
39779SOL    HW221177  11.242   5.896  10.024
39780SOL     OW21178   8.128  10.639   0.704
39780SOL    HW121179   8.163  10.550   0.715
39780SOL    HW221180   8.181  10.693   0.762
39781SOL     OW21181   3.287   7.931   3.262
39781SOL    HW121182   3.283   7.907   3.354
39781SOL    HW221183   3.380   7.931   3.241
39782SOL     OW21184  10.505  14.061  14.537
39782SOL    HW121185  10.470  14.121  14.471
39782SOL    HW221186  10.489  13.974  14.501
39783SOL     OW21187   4.076   5.341   6.714
39783SOL    HW121188   4.158   5.389   6.702
39783SOL    HW221189   4.102   5.249   6.709
39784SOL     OW21190   2.222   7.530   2.373
39784SOL    HW121191   2.293   7.490   2.423
39784SOL    HW221192   2.159   7.558   2.440
39785SOL     OW21193  11.296   3.883   6.042
39785SOL    HW121194  11.254   3.807   6.083
39785SOL    HW221195  11.330   3.850   5.959
39786SOL     OW21196   7.175   7.897   4.187
39786SOL    HW121197   7.217   7.981   4.168
39786SOL    HW221198   7.087   7.920   4.217
39787SOL     OW21199   6.372   6.541  10.871
39787SOL    HW121200   6.355   6.582  10.786
39787SOL    HW221201   6.456   6.577  10.899
39788SOL     OW21202   1.030  11.456  12.298
39788SOL    HW121203   1.094  11.479  12.366
39788SOL    HW221204   1.076  11.474  12.215
39789SOL     OW21205   0.830  11.547  11.919
39789SOL    HW121206   0.746  11.562  11.875
39789SOL    HW221207   0.854  11.458  11.893
39790SOL     OW21208   5.015   7.207   2.824
39790SOL    HW121209   5.093   7.261   2.821
39790SOL    HW221210   5.014   7.162   2.739
39791SOL     OW21211   9.861   0.969   8.695
39791SOL    HW121212   9.803   0.897   8.721
39791SOL    HW221213   9.949   0.938   8.715
39792SOL     OW21214   4.013  13.787   2.279
39792SOL    HW121215   4.008  13.883   2.283
39792SOL    HW221216   3.922  13.759   2.269
39793SOL     OW21217  10.343  10.373   7.511
39793SOL    HW121218  10.341  10.428   7.432
39793SOL    HW221219  10.274  10.308   7.496
39794SOL     OW21220   0.828   3.731   0.829
39794SOL    HW121221   0.917   3.747   0.861
39794SOL    HW221222   0.810   3.640   0.852
39795SOL     OW21223   1.250   1.628   2.700
39795SOL    HW121224   1.210   1.595   2.780
39795SOL    HW221225   1.252   1.723   2.711
39796SOL     OW21226   5.327   0.001   7.429
39796SOL    HW121227   5.417  14.869   7.461
39796SOL    HW221228   5.336   0.015   7.334
39797SOL     OW21229   0.951   1.372   7.968
39797SOL    HW121230   1.045   1.384   7.977
39797SOL    HW221231   0.914   1.416   8.044
39798SOL     OW21232  10.414   8.899   6.356
39798SOL    HW121233  10.441   8.923   6.445
39798SOL    HW221234  10.376   8.978   6.320
39799SOL     OW21235   7.020   0.101  10.761
39799SOL    HW121236   6.971   0.163  10.815
39799SOL    HW221237   7.110   0.131  10.764
39800SOL     OW21238  12.405   4.510  13.827
39800SOL    HW121239  12.365   4.480  13.908
39800SOL    HW221240  12.332   4.524  13.767
39801SOL     OW21241   4.000   8.214   0.826
39801SOL    HW121242   4.061   8.168   0.885
39801SOL    HW221243   4.004   8.305   0.854
39802SOL     OW21244  14.048  13.024   3.827
39802SOL    HW121245  13.975  12.999   3.884
39802SOL    HW221246  14.048  13.120   3.830
39803SOL     OW21247   0.117  10.350   9.492
39803SOL    HW121248   0.084  10.298   9.566
39803SOL    HW221249   0.095  10.297   9.415
39804SOL     OW21250   1.258  10.850  13.413
39804SOL    HW121251   1.226  10.860  13.323
39804SOL    HW221252   1.240  10.934  13.455
39805SOL     OW21253   9.780  13.729   0.830
39805SOL    HW121254   9.783  13.707   0.923
39805SOL    HW221255   9.850  13.677   0.790
39806SOL     OW21256   3.955   6.007  13.126
39806SOL    HW121257   3.877   5.995  13.180
39806SOL    HW221258   4.008   6.071  13.173
39807SOL     OW21259   2.869   4.584  12.001
39807SOL    HW121260   2.787   4.551  11.965
39807SOL    HW221261   2.925   4.598  11.925
39808SOL     OW21262  12.570   6.979  12.000
39808SOL    HW121263  12.505   6.974  12.071
39808SOL    HW221264  12.635   7.042  12.030
39809SOL     OW21265  13.825   3.336  11.665
39809SOL    HW121266  13.862   3.248  11.676
39809SOL    HW221267  13.865   3.388  11.734
39810SOL     OW21268  10.349   7.061   7.555
39810SOL    HW121269  10.328   6.976   7.516
39810SOL    HW221270  10.429   7.044   7.606
39811SOL     OW21271   4.296   1.879   1.717
39811SOL    HW121272   4.247   1.960   1.700
39811SOL    HW221273   4.228   1.812   1.725
39812SOL     OW21274   4.330   9.470   8.368
39812SOL    HW121275   4.331   9.402   8.436
39812SOL    HW221276   4.412   9.459   8.321
39813SOL     OW21277   7.983   3.627  12.962
39813SOL    HW121278   7.939   3.604  12.880
39813SOL    HW221279   8.007   3.542  13.000
39814SOL     OW21280   0.771   3.674   4.349
39814SOL    HW121281   0.792   3.661   4.442
39814SOL    HW221282   0.782   3.767   4.335
39815SOL     OW21283   7.001   9.291   6.916
39815SOL    HW121284   7.013   9.196   6.924
39815SOL    HW221285   7.075   9.329   6.963
39816SOL     OW21286   6.182  12.447   4.066
39816SOL    HW121287   6.189  12.351   4.065
39816SOL    HW221288   6.243  12.476   3.999
39817SOL     OW21289   9.333  11.885   2.065
39817SOL    HW121290   9.369  11.937   1.992
39817SOL    HW221291   9.241  11.874   2.042
39818SOL     OW21292   8.090   4.106   4.585
39818SOL    HW121293   8.043   4.186   4.560
39818SOL    HW221294   8.071   4.096   4.678
39819SOL     OW21295  12.746  12.229  11.688
39819SOL    HW121296  12.815  12.208  11.751
39819SOL    HW221297  12.742  12.324  11.687
39820SOL     OW21298  13.637   0.301  14.215
39820SOL    HW121299  13.663   0.220  14.258
39820SOL    HW221300  13.706   0.364  14.239
39821SOL     OW21301  10.888   3.406  12.608
39821SOL    HW121302  10.846   3.389  12.692
39821SOL    HW221303  10.981   3.414  12.629
39822SOL     OW21304  13.241  10.902   4.885
39822SOL    HW121305  13.176  10.910   4.815
39822SOL    HW221306  13.255  10.808   4.895
39823SOL     OW21307  14.630   2.620   1.567
39823SOL    HW121308  14.719   2.615   1.533
39823SOL    HW221309  14.638   2.670   1.648
39824SOL     OW21310   3.927   8.028   7.325
39824SOL    HW121311   3.835   8.050   7.314
39824SOL    HW221312   3.926   7.945   7.374
39825SOL     OW21313  11.085   7.779   7.890
39825SOL    HW121314  11.022   7.707   7.888
39825SOL    HW221315  11.151   7.754   7.825
39826SOL     OW21316   3.360   9.266   9.514
39826SOL    HW121317   3.431   9.258   9.451
39826SOL    HW221318   3.335   9.359   9.510
39827SOL     OW21319  13.344  14.286   3.230
39827SOL    HW121320  13.436  14.296   3.253
39827SOL    HW221321  13.332  14.343   3.154
39828SOL     OW21322   7.248   1.419   6.489
39828SOL    HW121323   7.153   1.418   6.481
39828SOL    HW221324   7.275   1.496   6.438
39829SOL     OW21325   1.339   2.852   1.316
39829SOL    HW121326   1.284   2.784   1.276
39829SOL    HW221327   1.422   2.846   1.269
39830SOL     OW21328   0.290   2.011   0.854
39830SOL    HW121329   0.379   2.010   0.818
39830SOL    HW221330   0.281   1.927   0.898
39831SOL     OW21331   9.969   7.336  11.231
39831SOL    HW121332   9.895   7.392  11.210
39831SOL    HW221333  10.026   7.390  11.285
39832SOL     OW21334  11.943   5.570   6.392
39832SOL    HW121335  11.916   5.479   6.400
39832SOL    HW221336  11.969   5.580   6.301
39833SOL     OW21337   3.995   2.262  11.502
39833SOL    HW121338   4.088   2.266  11.527
39833SOL    HW221339   3.996   2.229  11.412
39834SOL     OW21340   7.516  11.794  13.402
39834SOL    HW121341   7.472  11.712  13.378
39834SOL    HW221342   7.506  11.799  13.497
39835SOL     OW21343  10.441   6.791   8.900
39835SOL    HW121344  10.456   6.736   8.977
39835SOL    HW221345  10.426   6.878   8.936
39836SOL     OW21346  11.571   8.666  12.024
39836SOL    HW121347  11.639   8.729  12.048
39836SOL    HW221348  11.497   8.720  11.996
39837SOL     OW21349  11.638   7.050   3.522
39837SOL    HW121350  11.684   7.022   3.602
39837SOL    HW221351  11.546   7.039   3.543
39838SOL     OW21352  13.115   2.108  10.417
39838SOL    HW121353  13.184   2.091  10.354
39838SOL    HW221354  13.140   2.057  10.495
39839SOL     OW21355   1.105   5.174  14.755
39839SOL    HW121356   1.140   5.137  14.674
39839SOL    HW221357   1.173   5.233  14.786
39840SOL     OW21358   5.530   4.374   6.886
39840SOL    HW121359   5.501   4.403   6.972
39840SOL    HW221360   5.546   4.455   6.837
39841SOL     OW21361   4.058   2.213   6.469
39841SOL    HW121362   4.089   2.124   6.487
39841SOL    HW221363   4.135   2.258   6.434
39842SOL     OW21364   5.412   4.707   1.787
39842SOL    HW121365   5.330   4.747   1.758
39842SOL    HW221366   5.479   4.743   1.729
39843SOL     OW21367   9.919  13.726  14.752
39843SOL    HW121368   9.977  13.650  14.759
39843SOL    HW221369   9.975  13.800  14.771
39844SOL     OW21370   2.593  10.825   4.850
39844SOL    HW121371   2.581  10.886   4.777
39844SOL    HW221372   2.504  10.802   4.877
39845SOL     OW21373   4.604   8.947  13.432
39845SOL    HW121374   4.588   8.888  13.358
39845SOL    HW221375   4.697   8.934  13.453
39846SOL     OW21376  13.797   2.248  12.439
39846SOL    HW121377  13.848   2.188  12.385
39846SOL    HW221378  13.708   2.213  12.438
39847SOL     OW21379  12.488  12.574  13.176
39847SOL    HW121380  12.406  12.603  13.136
39847SOL    HW221381  12.461  12.520  13.250
39848SOL     OW21382  10.667   6.346   0.881
39848SOL    HW121383  10.707   6.367   0.797
39848SOL    HW221384  10.574   6.336   0.861
39849SOL     OW21385   8.781   3.519   0.670
39849SOL    HW121386   8.813   3.440   0.628
39849SOL    HW221387   8.687   3.505   0.680
39850SOL     OW21388   8.704  10.881   5.307
39850SOL    HW121389   8.629  10.833   5.341
39850SOL    HW221390   8.666  10.947   5.249
39851SOL     OW21391   9.752   7.470  10.848
39851SOL    HW121392   9.842   7.446  10.865
39851SOL    HW221393   9.747   7.563  10.870
39852SOL     OW21394   9.468   4.513  12.459
39852SOL    HW121395   9.460   4.599  12.417
39852SOL    HW221396   9.393   4.508  12.519
39853SOL     OW21397   6.270  14.632   3.033
39853SOL    HW121398   6.335  14.627   3.104
39853SOL    HW221399   6.186  14.636   3.078
39854SOL     OW21400   1.937   9.892   2.136
39854SOL    HW121401   2.022   9.928   2.161
39854SOL    HW221402   1.941   9.883   2.041
39855SOL     OW21403  12.138  10.047   3.136
39855SOL    HW121404  12.116  10.002   3.055
39855SOL    HW221405  12.088  10.129   3.132
39856SOL     OW21406  12.586   2.364   7.039
39856SOL    HW121407  12.597   2.270   7.053
39856SOL    HW221408  12.495   2.374   7.013
39857SOL     OW21409   6.883  13.847   6.855
39857SOL    HW121410   6.811  13.854   6.917
39857SOL    HW221411   6.960  13.874   6.904
39858SOL     OW21412   2.759   2.475  10.854
39858SOL    HW121413   2.854   2.469  10.840
39858SOL    HW221414   2.721   2.430  10.778
39859SOL     OW21415   7.664  12.274   2.872
39859SOL    HW121416   7.592  12.214   2.857
39859SOL    HW221417   7.668  12.283   2.967
39860SOL     OW21418   9.247  12.601   6.255
39860SOL    HW121419   9.200  12.555   6.325
39860SOL    HW221420   9.290  12.674   6.299
39861SOL     OW21421  11.560   4.505   2.731
39861SOL    HW121422  11.529   4.592   2.758
39861SOL    HW221423  11.596   4.466   2.811
39862SOL     OW21424   5.603   4.755  13.268
39862SOL    HW121425   5.543   4.824  13.237
39862SOL    HW221426   5.688   4.778  13.229
39863SOL     OW21427   8.624   1.396   4.952
39863SOL    HW121428   8.686   1.449   5.001
39863SOL    HW221429   8.542   1.405   4.999
39864SOL     OW21430   2.204  12.728   5.427
39864SOL    HW121431   2.160  12.752   5.509
39864SOL    HW221432   2.203  12.632   5.426
39865SOL     OW21433   5.253  13.625   4.694
39865SOL    HW121434   5.255  13.530   4.691
39865SOL    HW221435   5.278  13.653   4.606
39866SOL     OW21436   1.039  13.793  11.698
39866SOL    HW121437   1.110  13.780  11.761
39866SOL    HW221438   1.072  13.757  11.616
39867SOL     OW21439   7.499   1.693   1.158
39867SOL    HW121440   7.457   1.611   1.136
39867SOL    HW221441   7.485   1.703   1.253
39868SOL     OW21442  14.866   6.122   5.915
39868SOL    HW121443   0.052   6.188   5.879
39868SOL    HW221444   0.040   6.084   5.989
39869SOL     OW21445  10.961   0.909   7.874
39869SOL    HW121446  10.868   0.919   7.896
39869SOL    HW221447  11.006   0.912   7.959
39870SOL     OW21448   8.432   7.533   9.664
39870SOL    HW121449   8.523   7.562   9.661
39870SOL    HW221450   8.429   7.470   9.736
39871SOL     OW21451  11.815  10.747   5.667
39871SOL    HW121452  11.897  10.783   5.632
39871SOL    HW221453  11.836  10.655   5.685
39872SOL     OW21454   9.221  10.240  10.250
39872SOL    HW121455   9.305  10.285  10.258
39872SOL    HW221456   9.177  10.283  10.177
39873SOL     OW21457   2.712   9.525   2.713
39873SOL    HW121458   2.770   9.491   2.645
39873SOL    HW221459   2.667   9.599   2.673
39874SOL     OW21460   7.716   8.723  12.797
39874SOL    HW121461   7.688   8.811  12.771
39874SOL    HW221462   7.654   8.696  12.865
39875SOL     OW21463   5.971  11.361  12.762
39875SOL    HW121464   5.988  11.301  12.689
39875SOL    HW221465   6.034  11.334  12.829
39876SOL     OW21466   3.533   2.303   2.843
39876SOL    HW121467   3.579   2.219   2.844
39876SOL    HW221468   3.513   2.318   2.751
39877SOL     OW21469   5.031  13.129   7.156
39877SOL    HW121470   4.963  13.196   7.155
39877SOL    HW221471   5.063  13.127   7.066
39878SOL     OW21472  13.452  13.476   2.066
39878SOL    HW121473  13.402  13.543   2.113
39878SOL    HW221474  13.395  13.451   1.993
39879SOL     OW21475   8.007  11.645   9.042
39879SOL    HW121476   8.029  11.673   8.954
39879SOL    HW221477   8.057  11.564   9.055
39880SOL     OW21478  13.177   4.773   1.597
39880SOL    HW121479  13.224   4.700   1.638
39880SOL    HW221480  13.177   4.841   1.664
39881SOL     OW21481   3.073   7.155   5.060
39881SOL    HW121482   3.049   7.191   4.974
39881SOL    HW221483   3.114   7.071   5.039
39882SOL     OW21484   0.297   4.711  11.146
39882SOL    HW121485   0.240   4.787  11.134
39882SOL    HW221486   0.384   4.749  11.163
39883SOL     OW21487  13.221   5.195   6.564
39883SOL    HW121488  13.142   5.147   6.591
39883SOL    HW221489  13.268   5.212   6.646
39884SOL     OW21490   9.198   4.197   5.746
39884SOL    HW121491   9.181   4.186   5.840
39884SOL    HW221492   9.115   4.228   5.710
39885SOL     OW21493   4.230  12.790  13.994
39885SOL    HW121494   4.177  12.870  14.005
39885SOL    HW221495   4.167  12.719  14.003
39886SOL     OW21496  13.202   2.767  10.404
39886SOL    HW121497  13.285   2.785  10.358
39886SOL    HW221498  13.229   2.742  10.493
39887SOL     OW21499   8.278   2.682   6.540
39887SOL    HW121500   8.272   2.660   6.447
39887SOL    HW221501   8.368   2.714   6.551
39888SOL     OW21502   6.371   6.208   4.930
39888SOL    HW121503   6.340   6.268   4.862
39888SOL    HW221504   6.295   6.156   4.953
39889SOL     OW21505  13.289   8.259  11.402
39889SOL    HW121506  13.371   8.269  11.355
39889SOL    HW221507  13.226   8.235  11.334
39890SOL     OW21508  12.945  12.025   9.135
39890SOL    HW121509  12.928  12.096   9.073
39890SOL    HW221510  12.905  11.948   9.096
39891SOL     OW21511   6.387   9.171   3.464
39891SOL    HW121512   6.477   9.204   3.462
39891SOL    HW221513   6.374   9.142   3.554
39892SOL     OW21514   4.723   3.546   8.702
39892SOL    HW121515   4.760   3.629   8.730
39892SOL    HW221516   4.776   3.519   8.627
39893SOL     OW21517   8.097   3.389  14.520
39893SOL    HW121518   8.044   3.309  14.523
39893SOL    HW221519   8.173   3.365  14.467
39894SOL     OW21520  10.167   4.078  13.075
39894SOL    HW121521  10.117   4.158  13.093
39894SOL    HW221522  10.203   4.092  12.987
39895SOL     OW21523   6.483   0.165   2.692
39895SOL    HW121524   6.519   0.238   2.743
39895SOL    HW221525   6.462   0.098   2.757
39896SOL     OW21526  13.550   9.106   1.649
39896SOL    HW121527  13.538   9.066   1.735
39896SOL    HW221528  13.476   9.076   1.598
39897SOL     OW21529   9.479   9.243   0.337
39897SOL    HW121530   9.468   9.330   0.376
39897SOL    HW221531   9.474   9.184   0.412
39898SOL     OW21532  11.767   6.022   9.841
39898SOL    HW121533  11.696   5.971   9.880
39898SOL    HW221534  11.841   5.962   9.839
39899SOL     OW21535   1.667   0.013  10.620
39899SOL    HW121536   1.729  14.829  10.576
39899SOL    HW221537   1.720   0.056  10.687
39900SOL     OW21538  12.257   4.405   0.762
39900SOL    HW121539  12.219   4.427   0.677
39900SOL    HW221540  12.276   4.311   0.757
39901SOL     OW21541   3.787   7.206  10.965
39901SOL    HW121542   3.777   7.113  10.948
39901SOL    HW221543   3.882   7.222  10.959
39902SOL     OW21544  11.588   1.427   8.293
39902SOL    HW121545  11.632   1.501   8.335
39902SOL    HW221546  11.654   1.358   8.290
39903SOL     OW21547  13.238   0.382   0.989
39903SOL    HW121548  13.266   0.413   0.903
39903SOL    HW221549  13.142   0.387   0.986
39904SOL     OW21550   6.283  12.354  14.730
39904SOL    HW121551   6.223  12.319  14.796
39904SOL    HW221552   6.336  12.418  14.778
39905SOL     OW21553   1.479   0.730  13.540
39905SOL    HW121554   1.574   0.732  13.527
39905SOL    HW221555   1.460   0.640  13.566
39906SOL     OW21556   5.029  12.189  13.110
39906SOL    HW121557   4.980  12.250  13.166
39906SOL    HW221558   5.059  12.243  13.037
39907SOL     OW21559  11.401   0.284   3.383
39907SOL    HW121560  11.486   0.305   3.345
39907SOL    HW221561  11.421   0.255   3.472
39908SOL     OW21562  12.649   6.790   7.408
39908SOL    HW121563  12.642   6.740   7.489
39908SOL    HW221564  12.679   6.727   7.343
39909SOL     OW21565   8.435   2.877  11.720
39909SOL    HW121566   8.520   2.869  11.676
39909SOL    HW221567   8.381   2.926  11.657
39910SOL     OW21568   6.578  11.123   8.050
39910SOL    HW121569   6.619  11.046   8.089
39910SOL    HW221570   6.510  11.148   8.113
39911SOL     OW21571  13.942  11.398   1.820
39911SOL    HW121572  13.985  11.407   1.904
39911SOL    HW221573  13.855  11.363   1.840
39912SOL     OW21574  13.188  11.819   3.321
39912SOL    HW121575  13.234  11.737   3.340
39912SOL    HW221576  13.097  11.792   3.303
39913SOL     OW21577  13.034   5.995   3.232
39913SOL    HW121578  13.116   6.042   3.217
39913SOL    HW221579  13.027   5.990   3.328
39914SOL     OW21580  14.860   4.539   5.030
39914SOL    HW121581   0.074   4.500   5.033
39914SOL    HW221582  14.854   4.589   5.111
39915SOL     OW21583   7.123   5.433   1.425
39915SOL    HW121584   7.066   5.358   1.439
39915SOL    HW221585   7.176   5.410   1.349
39916SOL     OW21586  13.524   4.087  12.022
39916SOL    HW121587  13.575   4.061  11.945
39916SOL    HW221588  13.436   4.104  11.988
39917SOL     OW21589  11.898  11.325   4.565
39917SOL    HW121590  11.864  11.247   4.610
39917SOL    HW221591  11.870  11.314   4.474
39918SOL     OW21592   8.065   5.277   1.771
39918SOL    HW121593   8.063   5.320   1.685
39918SOL    HW221594   8.028   5.343   1.831
39919SOL     OW21595  13.730   1.117   2.595
39919SOL    HW121596  13.693   1.093   2.510
39919SOL    HW221597  13.705   1.208   2.607
39920SOL     OW21598   5.556  11.034   5.363
39920SOL    HW121599   5.522  10.962   5.309
39920SOL    HW221600   5.630  10.996   5.409
39921SOL     OW21601   5.476   9.267  13.189
39921SOL    HW121602   5.385   9.269  13.159
39921SOL    HW221603   5.513   9.187  13.151
39922SOL     OW21604   4.211   2.009   5.338
39922SOL    HW121605   4.256   1.951   5.277
39922SOL    HW221606   4.278   2.033   5.402
39923SOL     OW21607   1.828  14.017   4.011
39923SOL    HW121608   1.813  13.923   3.997
39923SOL    HW221609   1.918  14.022   4.043
39924SOL     OW21610   0.637   4.223  13.665
39924SOL    HW121611   0.606   4.282  13.733
39924SOL    HW221612   0.671   4.147  13.712
39925SOL     OW21613   9.838   7.949  13.978
39925SOL    HW121614   9.808   8.013  13.913
39925SOL    HW221615   9.838   7.866  13.932
39926SOL     OW21616   8.223   9.860  14.155
39926SOL    HW121617   8.186   9.793  14.099
39926SOL    HW221618   8.318   9.848  14.149
39927SOL     OW21619  12.060  14.532   8.382
39927SOL    HW121620  12.083  14.494   8.297
39927SOL    HW221621  11.990  14.476   8.415
39928SOL     OW21622   1.208   0.023   4.756
39928SOL    HW121623   1.212   0.118   4.745
39928SOL    HW221624   1.295  14.873   4.786
39929SOL     OW21625   1.670   6.640   0.836
39929SOL    HW121626   1.673   6.723   0.789
39929SOL    HW221627   1.589   6.599   0.807
39930SOL     OW21628   7.451  10.547   4.199
39930SOL    HW121629   7.358  10.526   4.201
39930SOL    HW221630   7.495  10.466   4.225
39931SOL     OW21631  11.756   7.919   9.885
39931SOL    HW121632  11.805   7.993   9.920
39931SOL    HW221633  11.819   7.869   9.834
39932SOL     OW21634  14.665   4.033  13.594
39932SOL    HW121635  14.592   3.972  13.606
39932SOL    HW221636  14.718   4.024  13.672
39933SOL     OW21637   1.701  14.256   2.995
39933SOL    HW121638   1.779  14.235   3.046
39933SOL    HW221639   1.727  14.330   2.939
39934SOL     OW21640   2.187   1.632   1.441
39934SOL    HW121641   2.240   1.554   1.461
39934SOL    HW221642   2.132   1.605   1.368
39935SOL     OW21643   4.346   0.413   1.547
39935SOL    HW121644   4.342   0.489   1.489
39935SOL    HW221645   4.438   0.388   1.548
39936SOL     OW21646   0.645   9.067   6.548
39936SOL    HW121647   0.644   9.015   6.628
39936SOL    HW221648   0.725   9.119   6.553
39937SOL     OW21649   9.577  11.026  12.921
39937SOL    HW121650   9.654  10.985  12.961
39937SOL    HW221651   9.568  11.110  12.967
39938SOL     OW21652  14.167   0.123   1.263
39938SOL    HW121653  14.108   0.048   1.256
39938SOL    HW221654  14.192   0.125   1.356
39939SOL     OW21655   4.835   2.433   5.373
39939SOL    HW121656   4.740   2.445   5.374
39939SOL    HW221657   4.870   2.515   5.409
39940SOL     OW21658   1.367  12.910   2.796
39940SOL    HW121659   1.335  12.967   2.726
39940SOL    HW221660   1.436  12.858   2.755
39941SOL     OW21661   7.997   6.192   0.901
39941SOL    HW121662   7.964   6.163   0.816
39941SOL    HW221663   7.958   6.278   0.915
39942SOL     OW21664  14.161   6.691  12.624
39942SOL    HW121665  14.069   6.718  12.626
39942SOL    HW221666  14.201   6.738  12.698
39943SOL     OW21667  12.346   2.203  12.308
39943SOL    HW121668  12.358   2.280  12.252
39943SOL    HW221669  12.277   2.153  12.265
39944SOL     OW21670   1.497   3.593  12.946
39944SOL    HW121671   1.584   3.584  12.907
39944SOL    HW221672   1.436   3.570  12.877
39945SOL     OW21673   7.888   5.802  10.851
39945SOL    HW121674   7.945   5.802  10.775
39945SOL    HW221675   7.799   5.803  10.815
39946SOL     OW21676   8.622   0.107   9.896
39946SOL    HW121677   8.576   0.185   9.864
39946SOL    HW221678   8.615   0.044   9.823
39947SOL     OW21679   3.979  10.922   1.341
39947SOL    HW121680   3.918  10.935   1.267
39947SOL    HW221681   4.065  10.939   1.303
39948SOL     OW21682   8.354   1.663   2.736
39948SOL    HW121683   8.357   1.667   2.641
39948SOL    HW221684   8.388   1.577   2.758
39949SOL     OW21685   0.167  12.378  10.878
39949SOL    HW121686   0.108  12.446  10.909
39949SOL    HW221687   0.111  12.317  10.831
39950SOL     OW21688   6.517   1.425   4.084
39950SOL    HW121689   6.431   1.386   4.069
39950SOL    HW221690   6.555   1.434   3.997
39951SOL     OW21691   6.049   7.594   8.994
39951SOL    HW121692   5.974   7.605   9.054
39951SOL    HW221693   6.068   7.683   8.963
39952SOL     OW21694  12.584   1.331   9.586
39952SOL    HW121695  12.626   1.350   9.670
39952SOL    HW221696  12.506   1.386   9.586
39953SOL     OW21697  14.280   8.666   3.547
39953SOL    HW121698  14.218   8.718   3.599
39953SOL    HW221699  14.274   8.703   3.459
39954SOL     OW21700  10.993   1.743   2.908
39954SOL    HW121701  10.899   1.737   2.922
39954SOL    HW221702  11.017   1.657   2.873
39955SOL     OW21703   4.571   2.401  14.874
39955SOL    HW121704   4.576   2.460   0.074
39955SOL    HW221705   4.595   2.455  14.798
39956SOL     OW21706  14.214   5.649   8.010
39956SOL    HW121707  14.144   5.712   8.027
39956SOL    HW221708  14.294   5.702   8.009
39957SOL     OW21709   9.696   2.372   0.188
39957SOL    HW121710   9.671   2.311   0.119
39957SOL    HW221711   9.693   2.458   0.147
39958SOL     OW21712  11.489   5.011   3.269
39958SOL    HW121713  11.529   4.945   3.211
39958SOL    HW221714  11.404   4.974   3.293
39959SOL     OW21715   0.195   8.579   4.520
39959SOL    HW121716   0.284   8.572   4.485
39959SOL    HW221717   0.142   8.606   4.446
39960SOL     OW21718   3.548  14.661   2.308
39960SOL    HW121719   3.560  14.589   2.371
39960SOL    HW221720   3.594  14.735   2.348
39961SOL     OW21721  10.804   6.623   4.773
39961SOL    HW121722  10.898   6.635   4.784
39961SOL    HW221723  10.785   6.662   4.687
39962SOL     OW21724  13.043  14.580   8.241
39962SOL    HW121725  12.959  14.541   8.262
39962SOL    HW221726  13.042  14.666   8.285
39963SOL     OW21727   2.167   1.361   4.665
39963SOL    HW121728   2.093   1.423   4.668
39963SOL    HW221729   2.205   1.365   4.753
39964SOL     OW21730  11.433   8.751   3.663
39964SOL    HW121731  11.492   8.686   3.625
39964SOL    HW221732  11.371   8.701   3.715
39965SOL     OW21733  11.095  13.679  10.387
39965SOL    HW121734  11.029  13.689  10.318
39965SOL    HW221735  11.068  13.601  10.435
39966SOL     OW21736   4.202   0.343  10.868
39966SOL    HW121737   4.284   0.315  10.828
39966SOL    HW221738   4.139   0.343  10.797
39967SOL     OW21739  13.076   6.152   4.986
39967SOL    HW121740  13.130   6.107   4.921
39967SOL    HW221741  13.106   6.118   5.070
39968SOL     OW21742  10.859  13.831   6.750
39968SOL    HW121743  10.782  13.807   6.802
39968SOL    HW221744  10.923  13.861   6.814
39969SOL     OW21745   2.460   6.246   6.123
39969SOL    HW121746   2.396   6.207   6.183
39969SOL    HW221747   2.518   6.174   6.100
39970SOL     OW21748   2.781   3.197  11.833
39970SOL    HW121749   2.732   3.242  11.902
39970SOL    HW221750   2.865   3.241  11.831
39971SOL     OW21751   2.080   6.275   0.843
39971SOL    HW121752   2.139   6.297   0.771
39971SOL    HW221753   1.994   6.308   0.815
39972SOL     OW21754  12.865  11.171   1.036
39972SOL    HW121755  12.833  11.214   0.957
39972SOL    HW221756  12.851  11.077   1.019
39973SOL     OW21757   5.047   6.211   7.312
39973SOL    HW121758   4.974   6.168   7.357
39973SOL    HW221759   5.034   6.191   7.219
39974SOL     OW21760   6.818  12.103   4.293
39974SOL    HW121761   6.723  12.091   4.295
39974SOL    HW221762   6.839  12.105   4.199
39975SOL     OW21763  10.182   1.831   7.574
39975SOL    HW121764  10.147   1.843   7.486
39975SOL    HW221765  10.125   1.766   7.614
39976SOL     OW21766   3.776   3.274   2.868
39976SOL    HW121767   3.814   3.189   2.844
39976SOL    HW221768   3.697   3.251   2.918
39977SOL     OW21769  11.819   7.905   3.908
39977SOL    HW121770  11.791   7.902   3.816
39977SOL    HW221771  11.762   7.842   3.952
39978SOL     OW21772  11.526   7.506   4.633
39978SOL    HW121773  11.489   7.556   4.705
39978SOL    HW221774  11.454   7.452   4.600
39979SOL     OW21775  11.716   7.877   8.775
39979SOL    HW121776  11.731   7.843   8.687
39979SOL    HW221777  11.622   7.896   8.778
39980SOL     OW21778  11.907  14.435  12.363
39980SOL    HW121779  11.996  14.471  12.367
39980SOL    HW221780  11.853  14.506  12.329
39981SOL     OW21781   5.496   7.887  10.612
39981SOL    HW121782   5.461   7.960  10.560
39981SOL    HW221783   5.591   7.898  10.607
39982SOL     OW21784  12.870  12.868  10.394
39982SOL    HW121785  12.944  12.812  10.420
39982SOL    HW221786  12.798  12.806  10.379
39983SOL     OW21787  14.847   8.111  13.591
39983SOL    HW121788   0.016   8.187  13.551
39983SOL    HW221789   0.045   8.056  13.621
39984SOL     OW21790  12.636   9.387  10.480
39984SOL    HW121791  12.721   9.378  10.437
39984SOL    HW221792  12.607   9.297  10.494
39985SOL     OW21793   8.372  13.117   9.011
39985SOL    HW121794   8.341  13.190   9.065
39985SOL    HW221795   8.316  13.119   8.933
39986SOL     OW21796   3.619  13.213   5.075
39986SOL    HW121797   3.652  13.271   5.144
39986SOL    HW221798   3.533  13.250   5.052
39987SOL     OW21799  13.915   5.590   5.560
39987SOL    HW121800  13.820   5.578   5.559
39987SOL    HW221801  13.939   5.594   5.467
39988SOL     OW21802  13.382  12.884   1.164
39988SOL    HW121803  13.301  12.894   1.113
39988SOL    HW221804  13.375  12.797   1.204
39989SOL     OW21805   5.555   5.690   7.769
39989SOL    HW121806   5.633   5.738   7.742
39989SOL    HW221807   5.482   5.749   7.749
39990SOL     OW21808  11.458  12.848  13.178
39990SOL    HW121809  11.551  12.851  13.201
39990SOL    HW221810  11.415  12.810  13.254
39991SOL     OW21811   9.105   5.078  12.574
39991SOL    HW121812   9.196   5.052  12.568
39991SOL    HW221813   9.063   5.035  12.499
39992SOL     OW21814  11.903   6.083  10.090
39992SOL    HW121815  11.974   6.063  10.029
39992SOL    HW221816  11.860   6.160  10.051
39993SOL     OW21817   5.148  11.148   9.499
39993SOL    HW121818   5.212  11.138   9.428
39993SOL    HW221819   5.118  11.239   9.491
39994SOL     OW21820   6.984   6.138  14.591
39994SOL    HW121821   6.978   6.066  14.529
39994SOL    HW221822   7.070   6.177  14.575
39995SOL     OW21823  14.383   7.487   5.815
39995SOL    HW121824  14.296   7.520   5.793
39995SOL    HW221825  14.440   7.522   5.747
39996SOL     OW21826  13.769  14.070   1.577
39996SOL    HW121827  13.681  14.034   1.576
39996SOL    HW221828  13.802  14.055   1.488
39997SOL     OW21829  10.424  14.329   1.096
39997SOL    HW121830  10.471  14.247   1.109
39997SOL    HW221831  10.338  14.302   1.063
39998SOL     OW21832  13.104   5.333   3.466
39998SOL    HW121833  13.137   5.350   3.554
39998SOL    HW221834  13.149   5.254   3.438
39999SOL     OW21835  11.003  12.446   5.185
39999SOL    HW121836  10.985  12.494   5.266
39999SOL    HW221837  10.944  12.487   5.121
40000SOL     OW21838  12.427   5.588   0.950
40000SOL    HW121839  12.458   5.530   1.019
40000SOL    HW221840  12.428   5.675   0.991
40001SOL     OW21841   4.779   9.329   0.412
40001SOL    HW121842   4.798   9.330   0.318
40001SOL    HW221843   4.709   9.264   0.422
40002SOL     OW21844   5.855   0.582   3.469
40002SOL    HW121845   5.792   0.654   3.474
40002SOL    HW221846   5.818   0.522   3.404
40003SOL     OW21847   5.832   8.963   2.141
40003SOL    HW121848   5.791   9.041   2.103
40003SOL    HW221849   5.817   8.971   2.235
40004SOL     OW21850   7.703   8.761  11.386
40004SOL    HW121851   7.635   8.717  11.335
40004SOL    HW221852   7.661   8.779  11.471
40005SOL     OW21853   3.158  14.110   6.484
40005SOL    HW121854   3.121  14.125   6.397
40005SOL    HW221855   3.198  14.194   6.507
40006SOL     OW21856  11.233   1.669  13.686
40006SOL    HW121857  11.262   1.695  13.598
40006SOL    HW221858  11.295   1.712  13.745
40007SOL     OW21859  14.303   9.581   9.301
40007SOL    HW121860  14.397   9.573   9.318
40007SOL    HW221861  14.297   9.636   9.222
40008SOL     OW21862   2.552  14.454   0.687
40008SOL    HW121863   2.506  14.519   0.741
40008SOL    HW221864   2.588  14.505   0.614
40009SOL     OW21865   2.465   8.289   8.377
40009SOL    HW121866   2.452   8.382   8.396
40009SOL    HW221867   2.490   8.251   8.461
40010SOL     OW21868   1.708   7.748   2.398
40010SOL    HW121869   1.671   7.772   2.313
40010SOL    HW221870   1.774   7.683   2.378
40011SOL     OW21871   0.074   3.806  13.371
40011SOL    HW121872   0.015   3.840  13.304
40011SOL    HW221873   0.136   3.878  13.387
40012SOL     OW21874  14.393   6.023   2.182
40012SOL    HW121875  14.375   5.964   2.256
40012SOL    HW221876  14.331   6.095   2.193
40013SOL     OW21877   4.957   0.001   5.039
40013SOL    HW121878   5.018  14.804   5.019
40013SOL    HW221879   4.995   0.044   5.116
40014SOL     OW21880   3.342  10.668  13.947
40014SOL    HW121881   3.378  10.671  13.858
40014SOL    HW221882   3.310  10.579  13.957
40015SOL     OW21883   0.562   3.493  13.250
40015SOL    HW121884   0.628   3.428  13.273
40015SOL    HW221885   0.516   3.455  13.175
40016SOL     OW21886  13.428  14.092   1.400
40016SOL    HW121887  13.509  14.126   1.439
40016SOL    HW221888  13.362  14.159   1.420
40017SOL     OW21889   8.642   5.617   0.131
40017SOL    HW121890   8.680   5.701   0.156
40017SOL    HW221891   8.572   5.639   0.070
40018SOL     OW21892  12.749  11.350   8.353
40018SOL    HW121893  12.815  11.322   8.416
40018SOL    HW221894  12.766  11.443   8.340
40019SOL     OW21895   2.649  10.393   2.501
40019SOL    HW121896   2.614  10.378   2.589
40019SOL    HW221897   2.584  10.355   2.442
40020SOL     OW21898  13.854  13.679  14.738
40020SOL    HW121899  13.875  13.693  14.646
40020SOL    HW221900  13.937  13.695  14.784
40021SOL     OW21901  13.938  11.039  14.114
40021SOL    HW121902  13.905  10.958  14.076
40021SOL    HW221903  13.949  11.098  14.039
40022SOL     OW21904   0.340  10.738   6.074
40022SOL    HW121905   0.311  10.821   6.036
40022SOL    HW221906   0.393  10.698   6.005
40023SOL     OW21907  11.037  12.517  12.735
40023SOL    HW121908  11.015  12.562  12.654
40023SOL    HW221909  11.075  12.434  12.708
40024SOL     OW21910   1.856   3.663   3.442
40024SOL    HW121911   1.921   3.696   3.504
40024SOL    HW221912   1.800   3.738   3.424
40025SOL     OW21913   9.225   5.345  10.911
40025SOL    HW121914   9.273   5.298  10.843
40025SOL    HW221915   9.212   5.279  10.980
40026SOL     OW21916   5.802   5.327  11.273
40026SOL    HW121917   5.809   5.317  11.368
40026SOL    HW221918   5.893   5.322  11.242
40027SOL     OW21919  12.684   4.896   5.646
40027SOL    HW121920  12.687   4.867   5.555
40027SOL    HW221921  12.755   4.959   5.654
40028SOL     OW21922   4.051   8.718   2.207
40028SOL    HW121923   4.078   8.628   2.226
40028SOL    HW221924   4.071   8.767   2.287
40029SOL     OW21925  13.277   7.300   4.639
40029SOL    HW121926  13.262   7.316   4.546
40029SOL    HW221927  13.354   7.243   4.641
40030SOL     OW21928   9.628  11.707   1.406
40030SOL    HW121929   9.629  11.734   1.498
40030SOL    HW221930   9.545  11.661   1.396
40031SOL     OW21931   2.280   3.253   5.929
40031SOL    HW121932   2.204   3.311   5.929
40031SOL    HW221933   2.313   3.258   5.839
40032SOL     OW21934   4.836  13.303   4.876
40032SOL    HW121935   4.859  13.383   4.828
40032SOL    HW221936   4.854  13.232   4.814
40033SOL     OW21937   6.836   1.520   5.416
40033SOL    HW121938   6.863   1.611   5.426
40033SOL    HW221939   6.762   1.510   5.476
40034SOL     OW21940   4.323  10.248  10.584
40034SOL    HW121941   4.273  10.167  10.570
40034SOL    HW221942   4.386  10.250  10.511
40035SOL     OW21943   9.692   9.308   6.474
40035SOL    HW121944   9.687   9.264   6.389
40035SOL    HW221945   9.740   9.389   6.456
40036SOL     OW21946   2.952   3.966   2.951
40036SOL    HW121947   2.988   3.901   2.890
40036SOL    HW221948   3.014   4.039   2.947
40037SOL     OW21949   8.224   7.155   3.855
40037SOL    HW121950   8.139   7.196   3.841
40037SOL    HW221951   8.287   7.217   3.819
40038SOL     OW21952   5.299   2.432   2.597
40038SOL    HW121953   5.238   2.391   2.534
40038SOL    HW221954   5.307   2.367   2.667
40039SOL     OW21955   6.620  10.834  14.295
40039SOL    HW121956   6.665  10.858  14.215
40039SOL    HW221957   6.660  10.890  14.362
40040SOL     OW21958   1.422  12.960  14.311
40040SOL    HW121959   1.349  12.909  14.278
40040SOL    HW221960   1.389  13.050  14.316
40041SOL     OW21961   2.344   2.297  13.750
40041SOL    HW121962   2.395   2.333  13.822
40041SOL    HW221963   2.353   2.202  13.758
40042SOL     OW21964   1.472   4.737   7.771
40042SOL    HW121965   1.412   4.784   7.830
40042SOL    HW221966   1.417   4.673   7.727
40043SOL     OW21967  10.562  14.337  12.066
40043SOL    HW121968  10.578  14.345  11.972
40043SOL    HW221969  10.627  14.394  12.106
40044SOL     OW21970   0.415   0.301   7.791
40044SOL    HW121971   0.375   0.259   7.867
40044SOL    HW221972   0.491   0.348   7.827
40045SOL     OW21973  11.851  10.500  11.688
40045SOL    HW121974  11.821  10.437  11.622
40045SOL    HW221975  11.799  10.579  11.671
40046SOL     OW21976   1.368   5.093   8.169
40046SOL    HW121977   1.386   5.172   8.218
40046SOL    HW221978   1.388   5.021   8.230
40047SOL     OW21979   2.170   6.512   9.533
40047SOL    HW121980   2.128   6.427   9.517
40047SOL    HW221981   2.190   6.512   9.626
40048SOL     OW21982  13.642   5.756   0.386
40048SOL    HW121983  13.563   5.724   0.429
40048SOL    HW221984  13.625   5.742   0.292
40049SOL     OW21985  11.611   3.057   6.746
40049SOL    HW121986  11.554   3.034   6.819
40049SOL    HW221987  11.554   3.106   6.686
40050SOL     OW21988  12.340   8.659   2.148
40050SOL    HW121989  12.332   8.692   2.058
40050SOL    HW221990  12.250   8.654   2.179
40051SOL     OW21991  11.886  11.964   5.550
40051SOL    HW121992  11.955  11.944   5.487
40051SOL    HW221993  11.805  11.960   5.499
40052SOL     OW21994   3.153   0.556  14.009
40052SOL    HW121995   3.125   0.515  13.927
40052SOL    HW221996   3.190   0.483  14.059
40053SOL     OW21997   9.330   6.154   3.520
40053SOL    HW121998   9.424   6.150   3.506
40053SOL    HW221999   9.320   6.175   3.613
40054SOL     OW22000  10.055   3.390  11.638
40054SOL    HW122001  10.113   3.326  11.597
40054SOL    HW222002  10.112   3.440  11.697
40055SOL     OW22003   5.420  10.973   6.993
40055SOL    HW122004   5.411  11.061   7.029
40055SOL    HW222005   5.380  10.916   7.059
40056SOL     OW22006   9.505   2.359   6.672
40056SOL    HW122007   9.422   2.381   6.713
40056SOL    HW222008   9.502   2.402   6.587
40057SOL     OW22009  12.014   2.553   5.336
40057SOL    HW122010  12.002   2.619   5.403
40057SOL    HW222011  11.974   2.591   5.257
40058SOL     OW22012   3.326  11.031  11.553
40058SOL    HW122013   3.363  11.113  11.521
40058SOL    HW222014   3.231  11.045  11.551
40059SOL     OW22015   6.595  11.545  11.134
40059SOL    HW122016   6.618  11.508  11.220
40059SOL    HW222017   6.680  11.565  11.094
40060SOL     OW22018  11.285   2.160   4.277
40060SOL    HW122019  11.203   2.123   4.312
40060SOL    HW222020  11.317   2.217   4.347
40061SOL     OW22021   9.649  11.487  10.469
40061SOL    HW122022   9.607  11.556  10.520
40061SOL    HW222023   9.733  11.523  10.443
40062SOL     OW22024   3.238   6.125  13.924
40062SOL    HW122025   3.283   6.041  13.918
40062SOL    HW222026   3.305   6.186  13.955
40063SOL     OW22027   4.303   5.544   8.968
40063SOL    HW122028   4.353   5.572   9.044
40063SOL    HW222029   4.254   5.468   8.998
40064SOL     OW22030   3.387   0.196  13.852
40064SOL    HW122031   3.300   0.158  13.855
40064SOL    HW222032   3.410   0.210  13.945
40065SOL     OW22033   8.200   3.282   0.519
40065SOL    HW122034   8.270   3.256   0.459
40065SOL    HW222035   8.172   3.199   0.559
40066SOL     OW22036   5.689   8.987  11.770
40066SOL    HW122037   5.720   8.972  11.859
40066SOL    HW222038   5.672   9.082  11.767
40067SOL     OW22039  12.527  10.578  13.727
40067SOL    HW122040  12.497  10.487  13.730
40067SOL    HW222041  12.450  10.627  13.695
40068SOL     OW22042   4.885  11.349   5.905
40068SOL    HW122043   4.831  11.275   5.879
40068SOL    HW222044   4.972  11.311   5.920
40069SOL     OW22045   3.835   3.766   9.117
40069SOL    HW122046   3.836   3.728   9.204
40069SOL    HW222047   3.834   3.691   9.057
40070SOL     OW22048   3.161   7.029   7.033
40070SOL    HW122049   3.069   7.043   7.055
40070SOL    HW222050   3.206   7.106   7.068
40071SOL     OW22051   7.870  12.527  13.871
40071SOL    HW122052   7.930  12.585  13.824
40071SOL    HW222053   7.925  12.486  13.939
40072SOL     OW22054  14.612   1.406   6.762
40072SOL    HW122055  14.648   1.488   6.727
40072SOL    HW222056  14.593   1.425   6.854
40073SOL     OW22057   1.754   4.806  14.086
40073SOL    HW122058   1.777   4.899  14.097
40073SOL    HW222059   1.752   4.772  14.176
40074SOL     OW22060   5.822   5.061   0.677
40074SOL    HW122061   5.885   5.021   0.617
40074SOL    HW222062   5.860   5.147   0.697
40075SOL     OW22063   1.294   0.272  12.432
40075SOL    HW122064   1.214   0.288  12.380
40075SOL    HW222065   1.340   0.356  12.431
40076SOL     OW22066   9.644  13.207   6.271
40076SOL    HW122067   9.701  13.137   6.240
40076SOL    HW222068   9.704  13.275   6.300
40077SOL     OW22069   8.324   2.495   6.925
40077SOL    HW122070   8.326   2.589   6.946
40077SOL    HW222071   8.269   2.489   6.847
40078SOL     OW22072   9.377   8.895   8.080
40078SOL    HW122073   9.300   8.847   8.049
40078SOL    HW222074   9.448   8.831   8.074
40079SOL     OW22075  11.347   5.421  11.296
40079SOL    HW122076  11.406   5.371  11.353
40079SOL    HW222077  11.325   5.499  11.348
40080SOL     OW22078   5.023   8.911  12.904
40080SOL    HW122079   5.102   8.871  12.939
40080SOL    HW222080   5.043   8.927  12.812
40081SOL     OW22081   3.572   1.870   1.875
40081SOL    HW122082   3.571   1.832   1.963
40081SOL    HW222083   3.518   1.811   1.823
40082SOL     OW22084   3.105   9.375  11.010
40082SOL    HW122085   3.191   9.416  11.013
40082SOL    HW222086   3.044   9.447  11.028
40083SOL     OW22087   4.307   6.342   7.645
40083SOL    HW122088   4.218   6.367   7.618
40083SOL    HW222089   4.343   6.422   7.684
40084SOL     OW22090   3.114   7.905   7.318
40084SOL    HW122091   3.158   7.884   7.401
40084SOL    HW222092   3.182   7.946   7.264
40085SOL     OW22093   9.469  12.628   0.188
40085SOL    HW122094   9.414  12.703   0.164
40085SOL    HW222095   9.412  12.573   0.241
40086SOL     OW22096  13.513   8.017   0.179
40086SOL    HW122097  13.482   8.101   0.147
40086SOL    HW222098  13.542   7.970   0.100
40087SOL     OW22099   9.645   6.057   7.944
40087SOL    HW122100   9.693   5.978   7.970
40087SOL    HW222101   9.567   6.057   8.000
40088SOL     OW22102   0.791   7.985   0.222
40088SOL    HW122103   0.744   7.902   0.227
40088SOL    HW222104   0.738   8.046   0.274
40089SOL     OW22105   4.902  14.137   9.322
40089SOL    HW122106   4.887  14.045   9.344
40089SOL    HW222107   4.996  14.150   9.334
40090SOL     OW22108   3.369   9.546  14.531
40090SOL    HW122109   3.313   9.622  14.545
40090SOL    HW222110   3.318   9.488  14.475
40091SOL     OW22111   1.617   2.468   8.901
40091SOL    HW122112   1.685   2.512   8.953
40091SOL    HW222113   1.551   2.535   8.886
40092SOL     OW22114  11.859   5.059  11.246
40092SOL    HW122115  11.814   5.109  11.178
40092SOL    HW222116  11.877   5.122  11.315
40093SOL     OW22117   6.382   8.056   2.863
40093SOL    HW122118   6.366   8.144   2.829
40093SOL    HW222119   6.297   8.012   2.856
40094SOL     OW22120   8.791   5.167   8.519
40094SOL    HW122121   8.848   5.193   8.445
40094SOL    HW222122   8.813   5.229   8.589
40095SOL     OW22123  14.040   1.754   8.613
40095SOL    HW122124  14.131   1.746   8.644
40095SOL    HW222125  13.987   1.725   8.688
40096SOL     OW22126   2.573   3.808   0.005
40096SOL    HW122127   2.621   3.778   0.082
40096SOL    HW222128   2.507   3.741  14.864
40097SOL     OW22129   4.591  10.576   6.422
40097SOL    HW122130   4.516  10.634   6.404
40097SOL    HW222131   4.555  10.508   6.478
40098SOL     OW22132   1.935  13.407  11.405
40098SOL    HW122133   2.018  13.421  11.359
40098SOL    HW222134   1.893  13.336  11.357
40099SOL     OW22135   5.320  10.227   2.959
40099SOL    HW122136   5.265  10.305   2.958
40099SOL    HW222137   5.404  10.257   2.994
40100SOL     OW22138  14.249   4.458   8.514
40100SOL    HW122139  14.225   4.486   8.426
40100SOL    HW222140  14.165   4.444   8.558
40101SOL     OW22141  13.569   6.257   9.635
40101SOL    HW122142  13.636   6.229   9.697
40101SOL    HW222143  13.617   6.277   9.555
40102SOL     OW22144   1.537   8.337  13.589
40102SOL    HW122145   1.602   8.393  13.547
40102SOL    HW222146   1.588   8.272  13.637
40103SOL     OW22147   8.643   0.004  14.756
40103SOL    HW122148   8.578   0.013  14.686
40103SOL    HW222149   8.676  14.788  14.745
40104SOL     OW22150  11.442   9.633  11.003
40104SOL    HW122151  11.481   9.608  11.086
40104SOL    HW222152  11.407   9.552  10.966
40105SOL     OW22153   6.966   1.834  13.266
40105SOL    HW122154   6.908   1.797  13.332
40105SOL    HW222155   6.975   1.765  13.200
40106SOL     OW22156   8.187   5.822  11.181
40106SOL    HW122157   8.201   5.755  11.114
40106SOL    HW222158   8.097   5.810  11.209
40107SOL     OW22159   2.668   4.831   2.315
40107SOL    HW122160   2.722   4.774   2.371
40107SOL    HW222161   2.688   4.920   2.345
40108SOL     OW22162   2.127   2.060  14.412
40108SOL    HW122163   2.187   2.004  14.461
40108SOL    HW222164   2.084   2.001  14.350
40109SOL     OW22165   2.061  12.563  10.895
40109SOL    HW122166   1.980  12.593  10.854
40109SOL    HW222167   2.079  12.479  10.853
40110SOL     OW22168   8.980  10.811   0.864
40110SOL    HW122169   9.016  10.727   0.838
40110SOL    HW222170   8.998  10.818   0.958
40111SOL     OW22171   9.168   7.075   9.342
40111SOL    HW122172   9.128   6.992   9.369
40111SOL    HW222173   9.233   7.049   9.277
40112SOL     OW22174   3.675   9.733  13.094
40112SOL    HW122175   3.722   9.685  13.161
40112SOL    HW222176   3.737   9.738  13.020
40113SOL     OW22177   3.736   7.242   7.488
40113SOL    HW122178   3.686   7.174   7.442
40113SOL    HW222179   3.679   7.319   7.485
40114SOL     OW22180   7.082  10.203   3.343
40114SOL    HW122181   7.147  10.203   3.273
40114SOL    HW222182   7.030  10.124   3.328
40115SOL     OW22183   6.242   6.719  13.071
40115SOL    HW122184   6.265   6.775  13.146
40115SOL    HW222185   6.317   6.726  13.012
40116SOL     OW22186  10.877   0.329   1.632
40116SOL    HW122187  10.959   0.289   1.602
40116SOL    HW222188  10.888   0.338   1.727
40117SOL     OW22189   4.590   3.759   9.803
40117SOL    HW122190   4.634   3.775   9.886
40117SOL    HW222191   4.565   3.846   9.771
40118SOL     OW22192  14.865   5.891   4.451
40118SOL    HW122193  14.854   5.885   4.546
40118SOL    HW222194   0.080   5.925   4.440
40119SOL     OW22195   0.195   8.715   1.078
40119SOL    HW122196   0.258   8.668   1.023
40119SOL    HW222197   0.231   8.708   1.167
40120SOL     OW22198   7.708  13.426   3.521
40120SOL    HW122199   7.691  13.434   3.427
40120SOL    HW222200   7.638  13.369   3.552
40121SOL     OW22201   7.190   9.533   5.924
40121SOL    HW122202   7.161   9.462   5.867
40121SOL    HW222203   7.202   9.492   6.009
40122SOL     OW22204   0.326   7.323  11.229
40122SOL    HW122205   0.249   7.266  11.221
40122SOL    HW222206   0.322   7.380  11.152
40123SOL     OW22207   3.305   9.910  12.090
40123SOL    HW122208   3.314   9.819  12.061
40123SOL    HW222209   3.352   9.914  12.173
40124SOL     OW22210  10.649  11.039  12.256
40124SOL    HW122211  10.571  11.022  12.309
40124SOL    HW222212  10.689  11.115  12.298
40125SOL     OW22213   4.351   8.171   8.292
40125SOL    HW122214   4.277   8.154   8.351
40125SOL    HW222215   4.391   8.251   8.326
40126SOL     OW22216   1.771   8.103   2.613
40126SOL    HW122217   1.775   8.124   2.707
40126SOL    HW222218   1.722   8.021   2.610
40127SOL     OW22219  10.394   1.156   7.894
40127SOL    HW122220  10.373   1.082   7.836
40127SOL    HW222221  10.330   1.151   7.964
40128SOL     OW22222   5.143   9.125   9.683
40128SOL    HW122223   5.052   9.147   9.661
40128SOL    HW222224   5.180   9.091   9.601
40129SOL     OW22225  11.289  12.756   1.036
40129SOL    HW122226  11.319  12.818   1.102
40129SOL    HW222227  11.335  12.675   1.056
40130SOL     OW22228   2.633  14.106   4.646
40130SOL    HW122229   2.703  14.086   4.583
40130SOL    HW222230   2.587  14.180   4.609
40131SOL     OW22231   9.714   5.277   1.332
40131SOL    HW122232   9.800   5.318   1.324
40131SOL    HW222233   9.670   5.327   1.400
40132SOL     OW22234   6.437  10.500   2.230
40132SOL    HW122235   6.440  10.518   2.137
40132SOL    HW222236   6.348  10.466   2.245
40133SOL     OW22237   5.668   1.517   5.643
40133SOL    HW122238   5.609   1.543   5.714
40133SOL    HW222239   5.750   1.562   5.663
40134SOL     OW22240   0.742   1.801   6.173
40134SOL    HW122241   0.735   1.893   6.149
40134SOL    HW222242   0.667   1.759   6.130
40135SOL     OW22243   3.571   9.530  10.790
40135SOL    HW122244   3.569   9.620  10.759
40135SOL    HW222245   3.504   9.485  10.739
40136SOL     OW22246  12.446   8.544  14.855
40136SOL    HW122247  12.535   8.578  14.846
40136SOL    HW222248  12.418   8.572   0.068
40137SOL     OW22249   2.248   3.660   6.961
40137SOL    HW122250   2.316   3.628   6.902
40137SOL    HW222251   2.204   3.729   6.912
40138SOL     OW22252   1.563   7.281   5.461
40138SOL    HW122253   1.619   7.203   5.462
40138SOL    HW222254   1.592   7.331   5.537
40139SOL     OW22255   7.416   4.323   5.558
40139SOL    HW122256   7.510   4.344   5.558
40139SOL    HW222257   7.411   4.235   5.522
40140SOL     OW22258  12.048   3.661  11.541
40140SOL    HW122259  12.088   3.650  11.455
40140SOL    HW222260  12.055   3.575  11.582
40141SOL     OW22261  13.814   9.184   0.315
40141SOL    HW122262  13.884   9.141   0.365
40141SOL    HW222263  13.781   9.252   0.373
40142SOL     OW22264  13.956  11.954   2.841
40142SOL    HW122265  13.918  11.879   2.794
40142SOL    HW222266  13.886  12.019   2.843
40143SOL     OW22267  14.602   9.963  12.903
40143SOL    HW122268  14.513   9.944  12.871
40143SOL    HW222269  14.614   9.903  12.976
40144SOL     OW22270   1.399  12.389  10.426
40144SOL    HW122271   1.340  12.407  10.499
40144SOL    HW222272   1.460  12.324  10.460
40145SOL     OW22273  12.957   0.676   3.688
40145SOL    HW122274  12.903   0.606   3.653
40145SOL    HW222275  12.948   0.668   3.783
40146SOL     OW22276   5.981   1.159   0.111
40146SOL    HW122277   6.042   1.115   0.171
40146SOL    HW222278   5.903   1.104   0.112
40147SOL     OW22279   9.166  11.243   2.249
40147SOL    HW122280   9.098  11.189   2.208
40147SOL    HW222281   9.248  11.206   2.216
40148SOL     OW22282  11.271  12.520   2.890
40148SOL    HW122283  11.205  12.468   2.936
40148SOL    HW222284  11.282  12.477   2.805
40149SOL     OW22285   2.532   2.259   9.619
40149SOL    HW122286   2.588   2.186   9.645
40149SOL    HW222287   2.584   2.337   9.635
40150SOL     OW22288   7.865   0.715  13.489
40150SOL    HW122289   7.816   0.738  13.569
40150SOL    HW222290   7.908   0.633  13.511
40151SOL     OW22291   6.651  12.460   2.133
40151SOL    HW122292   6.560  12.434   2.118
40151SOL    HW222293   6.687  12.474   2.045
40152SOL     OW22294  10.508   1.493  11.357
40152SOL    HW122295  10.454   1.569  11.335
40152SOL    HW222296  10.491   1.477  11.450
40153SOL     OW22297   9.992   9.537   0.337
40153SOL    HW122298  10.008   9.541   0.243
40153SOL    HW222299  10.042   9.610   0.374
40154SOL     OW22300  11.723   7.144   9.731
40154SOL    HW122301  11.639   7.178   9.702
40154SOL    HW222302  11.786   7.213   9.711
40155SOL     OW22303   3.536  13.561   5.859
40155SOL    HW122304   3.550  13.602   5.944
40155SOL    HW222305   3.450  13.594   5.831
40156SOL     OW22306   2.276   5.745   5.019
40156SOL    HW122307   2.211   5.807   5.053
40156SOL    HW222308   2.359   5.773   5.058
40157SOL     OW22309   2.064   8.781   8.308
40157SOL    HW122310   2.042   8.869   8.340
40157SOL    HW222311   2.046   8.784   8.214
40158SOL     OW22312  14.389   4.628   1.199
40158SOL    HW122313  14.406   4.681   1.277
40158SOL    HW222314  14.457   4.654   1.137
40159SOL     OW22315   4.045  14.666   8.597
40159SOL    HW122316   4.074  14.716   8.673
40159SOL    HW222317   3.991  14.595   8.634
40160SOL     OW22318   0.240  12.416   1.977
40160SOL    HW122319   0.315  12.425   2.036
40160SOL    HW222320   0.165  12.408   2.036
40161SOL     OW22321   3.796  13.228   7.048
40161SOL    HW122322   3.784  13.170   7.123
40161SOL    HW222323   3.807  13.315   7.086
40162SOL     OW22324   7.369   3.447  11.964
40162SOL    HW122325   7.375   3.360  11.926
40162SOL    HW222326   7.428   3.501  11.911
40163SOL     OW22327   7.605   9.974   3.351
40163SOL    HW122328   7.569   9.893   3.315
40163SOL    HW222329   7.687   9.947   3.394
40164SOL     OW22330   7.626   9.481   7.969
40164SOL    HW122331   7.567   9.554   7.991
40164SOL    HW222332   7.692   9.482   8.038
40165SOL     OW22333   3.639  14.562   6.321
40165SOL    HW122334   3.586  14.631   6.280
40165SOL    HW222335   3.682  14.518   6.248
40166SOL     OW22336   2.925   6.179   4.933
40166SOL    HW122337   2.961   6.254   4.885
40166SOL    HW222338   2.831   6.183   4.917
40167SOL     OW22339  14.297  10.937  10.953
40167SOL    HW122340  14.274  10.989  11.030
40167SOL    HW222341  14.391  10.952  10.940
40168SOL     OW22342   6.528   1.119  14.418
40168SOL    HW122343   6.497   1.084  14.501
40168SOL    HW222344   6.455   1.104  14.357
40169SOL     OW22345  12.407   4.699   9.664
40169SOL    HW122346  12.478   4.756   9.693
40169SOL    HW222347  12.357   4.752   9.602
40170SOL     OW22348  14.425   4.879  13.040
40170SOL    HW122349  14.413   4.839  13.126
40170SOL    HW222350  14.354   4.842  12.987
40171SOL     OW22351   7.414   0.844   5.814
40171SOL    HW122352   7.361   0.783   5.763
40171SOL    HW222353   7.500   0.803   5.819
40172SOL     OW22354   3.274   3.486  11.513
40172SOL    HW122355   3.316   3.536  11.443
40172SOL    HW222356   3.342   3.425  11.542
40173SOL     OW22357  11.125  14.304  14.328
40173SOL    HW122358  11.045  14.267  14.367
40173SOL    HW222359  11.117  14.398  14.343
40174SOL     OW22360  12.968  13.003  13.225
40174SOL    HW122361  13.025  13.061  13.275
40174SOL    HW222362  13.013  12.989  13.142
40175SOL     OW22363   1.369   9.920   7.233
40175SOL    HW122364   1.388   9.959   7.147
40175SOL    HW222365   1.292   9.967   7.264
40176SOL     OW22366   7.859   0.764   0.399
40176SOL    HW122367   7.781   0.789   0.449
40176SOL    HW222368   7.897   0.692   0.449
40177SOL     OW22369  10.579   4.177  12.851
40177SOL    HW122370  10.483   4.183  12.849
40177SOL    HW222371  10.605   4.180  12.759
40178SOL     OW22372   2.848  14.734   8.357
40178SOL    HW122373   2.819  14.811   8.405
40178SOL    HW222374   2.825  14.753   8.266
40179SOL     OW22375   1.358  10.150   8.964
40179SOL    HW122376   1.308  10.089   9.018
40179SOL    HW222377   1.372  10.105   8.881
40180SOL     OW22378   9.400   1.444   7.196
40180SOL    HW122379   9.366   1.490   7.272
40180SOL    HW222380   9.468   1.386   7.231
40181SOL     OW22381   9.061  12.977   8.819
40181SOL    HW122382   9.033  13.068   8.814
40181SOL    HW222383   9.070  12.959   8.912
40182SOL     OW22384   6.102   6.572  12.884
40182SOL    HW122385   6.037   6.636  12.854
40182SOL    HW222386   6.156   6.620  12.946
40183SOL     OW22387   1.180   8.496   2.099
40183SOL    HW122388   1.248   8.494   2.031
40183SOL    HW222389   1.126   8.572   2.076
40184SOL     OW22390   5.302   1.325   2.023
40184SOL    HW122391   5.282   1.255   2.085
40184SOL    HW222392   5.275   1.405   2.067
40185SOL     OW22393   9.455  11.229   4.131
40185SOL    HW122394   9.519  11.256   4.065
40185SOL    HW222395   9.464  11.294   4.200
40186SOL     OW22396  10.733   9.225   9.094
40186SOL    HW122397  10.810   9.279   9.114
40186SOL    HW222398  10.705   9.191   9.179
40187SOL     OW22399  14.550  13.038   3.468
40187SOL    HW122400  14.545  12.989   3.386
40187SOL    HW222401  14.460  13.045   3.498
40188SOL     OW22402   7.024   4.584   1.943
40188SOL    HW122403   7.030   4.517   2.011
40188SOL    HW222404   7.103   4.637   1.953
40189SOL     OW22405   5.865   9.452  14.181
40189SOL    HW122406   5.937   9.418  14.127
40189SOL    HW222407   5.883   9.420  14.269
40190SOL     OW22408   7.971   1.573  11.764
40190SOL    HW122409   7.898   1.631  11.785
40190SOL    HW222410   7.999   1.601  11.676
40191SOL     OW22411   9.849   0.929   1.648
40191SOL    HW122412   9.887   1.015   1.636
40191SOL    HW222413   9.871   0.905   1.738
40192SOL     OW22414   6.973  14.267  14.838
40192SOL    HW122415   7.066  14.280  14.857
40192SOL    HW222416   6.971  14.199  14.771
40193SOL     OW22417   9.308  13.242  10.410
40193SOL    HW122418   9.329  13.149  10.415
40193SOL    HW222419   9.365  13.277  10.341
40194SOL     OW22420  11.626  10.164  11.307
40194SOL    HW122421  11.576  10.147  11.227
40194SOL    HW222422  11.631  10.078  11.350
40195SOL     OW22423  11.060   2.088   1.332
40195SOL    HW122424  11.060   2.026   1.259
40195SOL    HW222425  11.139   2.067   1.382
40196SOL     OW22426  13.475  13.286   6.315
40196SOL    HW122427  13.486  13.233   6.394
40196SOL    HW222428  13.408  13.350   6.338
40197SOL     OW22429  10.690   8.322   2.327
40197SOL    HW122430  10.746   8.381   2.377
40197SOL    HW222431  10.624   8.378   2.287
40198SOL     OW22432   3.461   2.154  11.307
40198SOL    HW122433   3.482   2.245  11.287
40198SOL    HW222434   3.542   2.118  11.342
40199SOL     OW22435   9.360   9.599   5.443
40199SOL    HW122436   9.341   9.666   5.509
40199SOL    HW222437   9.297   9.530   5.460
40200SOL     OW22438   4.023   4.077   3.589
40200SOL    HW122439   3.927   4.079   3.578
40200SOL    HW222440   4.054   4.027   3.514
40201SOL     OW22441   3.689   6.813   3.702
40201SOL    HW122442   3.747   6.789   3.774
40201SOL    HW222443   3.741   6.871   3.646
40202SOL     OW22444   1.031   3.454  13.453
40202SOL    HW122445   1.119   3.486  13.476
40202SOL    HW222446   0.995   3.421  13.535
40203SOL     OW22447  11.389   2.393   1.540
40203SOL    HW122448  11.357   2.403   1.629
40203SOL    HW222449  11.346   2.463   1.490
40204SOL     OW22450  11.981  12.565  13.468
40204SOL    HW122451  11.973  12.561  13.373
40204SOL    HW222452  12.045  12.635  13.484
40205SOL     OW22453  11.869  12.992   8.840
40205SOL    HW122454  11.803  13.060   8.855
40205SOL    HW222455  11.823  12.926   8.788
40206SOL     OW22456   2.019  10.111  13.472
40206SOL    HW122457   2.009  10.116  13.377
40206SOL    HW222458   1.929  10.104  13.505
40207SOL     OW22459  12.441   5.497  13.271
40207SOL    HW122460  12.419   5.469  13.182
40207SOL    HW222461  12.374   5.456  13.325
40208SOL     OW22462   5.211   4.308  10.151
40208SOL    HW122463   5.166   4.356  10.221
40208SOL    HW222464   5.142   4.258  10.108
40209SOL     OW22465  13.579   7.620  14.702
40209SOL    HW122466  13.532   7.689  14.657
40209SOL    HW222467  13.536   7.614  14.788
40210SOL     OW22468   2.907  13.764   3.374
40210SOL    HW122469   2.991  13.761   3.328
40210SOL    HW222470   2.842  13.745   3.306
40211SOL     OW22471   5.515   3.977  10.651
40211SOL    HW122472   5.433   4.004  10.610
40211SOL    HW222473   5.530   4.042  10.720
40212SOL     OW22474   5.251  11.575   0.249
40212SOL    HW122475   5.280  11.601   0.162
40212SOL    HW222476   5.249  11.479   0.246
40213SOL     OW22477   6.348  14.098   1.245
40213SOL    HW122478   6.278  14.047   1.287
40213SOL    HW222479   6.336  14.082   1.151
40214SOL     OW22480   3.094   0.920   1.103
40214SOL    HW122481   3.086   0.828   1.130
40214SOL    HW222482   3.162   0.920   1.036
40215SOL     OW22483  12.451   9.956   6.340
40215SOL    HW122484  12.425   9.867   6.316
40215SOL    HW222485  12.423   9.966   6.431
40216SOL     OW22486  14.258   2.447   3.848
40216SOL    HW122487  14.316   2.432   3.773
40216SOL    HW222488  14.304   2.407   3.922
40217SOL     OW22489  10.441   4.066  13.153
40217SOL    HW122490  10.351   4.076  13.122
40217SOL    HW222491  10.449   4.131  13.223
40218SOL     OW22492   3.867  11.506  14.293
40218SOL    HW122493   3.959  11.496  14.319
40218SOL    HW222494   3.871  11.541  14.204
40219SOL     OW22495   6.051   3.868   6.798
40219SOL    HW122496   6.143   3.843   6.783
40219SOL    HW222497   6.001   3.791   6.773
40220SOL     OW22498  10.312  10.894  12.598
40220SOL    HW122499  10.338  10.802  12.592
40220SOL    HW222500  10.226  10.898  12.556
40221SOL     OW22501   0.573   0.181   7.093
40221SOL    HW122502   0.555   0.091   7.068
40221SOL    HW222503   0.575   0.181   7.188
40222SOL     OW22504  11.136   0.241   5.605
40222SOL    HW122505  11.190   0.163   5.620
40222SOL    HW222506  11.060   0.208   5.557
40223SOL     OW22507   6.366  12.008   6.713
40223SOL    HW122508   6.459  11.992   6.730
40223SOL    HW222509   6.322  11.932   6.749
40224SOL     OW22510  13.082  12.279   4.538
40224SOL    HW122511  12.997  12.236   4.530
40224SOL    HW222512  13.062  12.372   4.545
40225SOL     OW22513   1.443  14.055   0.074
40225SOL    HW122514   1.509  14.094   0.131
40225SOL    HW222515   1.369  14.037   0.132
40226SOL     OW22516  12.693   8.781   0.443
40226SOL    HW122517  12.690   8.865   0.398
40226SOL    HW222518  12.771   8.786   0.499
40227SOL     OW22519   0.486   8.977  11.651
40227SOL    HW122520   0.396   9.003  11.635
40227SOL    HW222521   0.536   9.018  11.580
40228SOL     OW22522   1.912  11.899   9.695
40228SOL    HW122523   1.985  11.877   9.752
40228SOL    HW222524   1.917  11.994   9.685
40229SOL     OW22525   8.326   5.065  12.036
40229SOL    HW122526   8.359   5.097  11.952
40229SOL    HW222527   8.233   5.088  12.036
40230SOL     OW22528   7.601  14.236  11.790
40230SOL    HW122529   7.517  14.197  11.814
40230SOL    HW222530   7.665  14.192  11.847
40231SOL     OW22531   2.882   6.248   2.403
40231SOL    HW122532   2.792   6.259   2.374
40231SOL    HW222533   2.902   6.156   2.386
40232SOL     OW22534   9.268   4.307   1.194
40232SOL    HW122535   9.264   4.347   1.281
40232SOL    HW222536   9.199   4.241   1.196
40233SOL     OW22537   2.668   7.902  12.223
40233SOL    HW122538   2.645   7.867  12.309
40233SOL    HW222539   2.608   7.858  12.163
40234SOL     OW22540  10.695   4.871   4.465
40234SOL    HW122541  10.679   4.922   4.386
40234SOL    HW222542  10.642   4.914   4.532
40235SOL     OW22543   4.630   0.394  10.826
40235SOL    HW122544   4.666   0.325  10.882
40235SOL    HW222545   4.704   0.452  10.809
40236SOL     OW22546  11.693   3.447  12.182
40236SOL    HW122547  11.777   3.446  12.136
40236SOL    HW222548  11.671   3.540  12.191
40237SOL     OW22549   9.765  11.631  13.248
40237SOL    HW122550   9.763  11.713  13.197
40237SOL    HW222551   9.749  11.659  13.338
40238SOL     OW22552   4.144   0.174  14.521
40238SOL    HW122553   4.236   0.202  14.519
40238SOL    HW222554   4.106   0.214  14.442
40239SOL     OW22555   6.157  12.844   3.785
40239SOL    HW122556   6.230  12.786   3.761
40239SOL    HW222557   6.199  12.928   3.805
40240SOL     OW22558   3.458   0.540  10.127
40240SOL    HW122559   3.477   0.557  10.034
40240SOL    HW222560   3.456   0.627  10.167
40241SOL     OW22561   3.891  12.984   6.098
40241SOL    HW122562   3.943  12.993   6.178
40241SOL    HW222563   3.954  12.995   6.027
40242SOL     OW22564   7.423  12.971   2.104
40242SOL    HW122565   7.468  12.978   2.020
40242SOL    HW222566   7.384  12.884   2.103
40243SOL     OW22567   4.963   7.466   0.213
40243SOL    HW122568   4.889   7.436   0.266
40243SOL    HW222569   4.924   7.482   0.126
40244SOL     OW22570   7.841  13.265  11.205
40244SOL    HW122571   7.852  13.316  11.285
40244SOL    HW222572   7.915  13.291  11.150
40245SOL     OW22573   4.971   0.361   7.225
40245SOL    HW122574   5.012   0.342   7.141
40245SOL    HW222575   4.916   0.285   7.244
40246SOL     OW22576  13.034   2.802  13.279
40246SOL    HW122577  13.083   2.755  13.347
40246SOL    HW222578  13.088   2.879  13.259
40247SOL     OW22579   7.634   3.028  14.183
40247SOL    HW122580   7.638   2.940  14.220
40247SOL    HW222581   7.630   3.086  14.260
40248SOL     OW22582   4.144   5.773   2.659
40248SOL    HW122583   4.131   5.848   2.600
40248SOL    HW222584   4.110   5.803   2.743
40249SOL     OW22585   9.130   8.542   8.289
40249SOL    HW122586   9.063   8.540   8.221
40249SOL    HW222587   9.117   8.625   8.334
40250SOL     OW22588  11.169   8.465  12.516
40250SOL    HW122589  11.123   8.540  12.478
40250SOL    HW222590  11.259   8.475  12.485
40251SOL     OW22591   8.997   5.637   2.469
40251SOL    HW122592   8.982   5.709   2.408
40251SOL    HW222593   9.057   5.578   2.423
40252SOL     OW22594   0.098   7.437   2.306
40252SOL    HW122595   0.037   7.511   2.300
40252SOL    HW222596   0.162   7.465   2.372
40253SOL     OW22597   9.922   1.193   8.841
40253SOL    HW122598   9.918   1.130   8.769
40253SOL    HW222599   9.880   1.148   8.914
40254SOL     OW22600   9.611   1.564   0.913
40254SOL    HW122601   9.521   1.531   0.918
40254SOL    HW222602   9.618   1.626   0.986
40255SOL     OW22603   8.156   8.896   3.020
40255SOL    HW122604   8.243   8.907   3.059
40255SOL    HW222605   8.095   8.915   3.091
40256SOL     OW22606   4.098  14.731  13.329
40256SOL    HW122607   4.190  14.724  13.306
40256SOL    HW222608   4.085  14.822  13.353
40257SOL     OW22609   4.032   4.819  12.319
40257SOL    HW122610   4.077   4.759  12.378
40257SOL    HW222611   3.993   4.885  12.376
40258SOL     OW22612   0.582   1.042   1.050
40258SOL    HW122613   0.608   1.092   0.972
40258SOL    HW222614   0.578   0.951   1.020
40259SOL     OW22615   8.431   6.560   3.033
40259SOL    HW122616   8.426   6.655   3.030
40259SOL    HW222617   8.498   6.537   2.968
40260SOL     OW22618   4.213  13.811   4.372
40260SOL    HW122619   4.206  13.883   4.308
40260SOL    HW222620   4.307  13.796   4.382
40261SOL     OW22621  14.011   4.760   2.007
40261SOL    HW122622  14.041   4.686   1.953
40261SOL    HW222623  14.054   4.747   2.092
40262SOL     OW22624   6.100   8.910   1.800
40262SOL    HW122625   6.031   8.867   1.852
40262SOL    HW222626   6.181   8.891   1.847
40263SOL     OW22627  10.631   5.634   7.158
40263SOL    HW122628  10.572   5.585   7.101
40263SOL    HW222629  10.694   5.568   7.189
40264SOL     OW22630   8.981  12.699   5.095
40264SOL    HW122631   8.982  12.603   5.101
40264SOL    HW222632   8.895  12.724   5.130
40265SOL     OW22633  11.572  12.997   9.939
40265SOL    HW122634  11.532  13.025   9.856
40265SOL    HW222635  11.500  13.000  10.002
40266SOL     OW22636   9.600   5.180  13.868
40266SOL    HW122637   9.579   5.165  13.776
40266SOL    HW222638   9.532   5.133  13.917
40267SOL     OW22639   7.506  12.236   4.633
40267SOL    HW122640   7.556  12.201   4.706
40267SOL    HW222641   7.532  12.183   4.557
40268SOL     OW22642  10.574   7.004   7.741
40268SOL    HW122643  10.656   6.973   7.779
40268SOL    HW222644  10.507   6.947   7.780
40269SOL     OW22645   8.603  11.409   2.542
40269SOL    HW122646   8.673  11.347   2.523
40269SOL    HW222647   8.619  11.482   2.482
40270SOL     OW22648   1.609   5.124  13.442
40270SOL    HW122649   1.524   5.129  13.485
40270SOL    HW222650   1.624   5.031  13.429
40271SOL     OW22651   6.862   9.742  10.754
40271SOL    HW122652   6.898   9.770  10.838
40271SOL    HW222653   6.794   9.806  10.734
40272SOL     OW22654  13.300  13.429   7.016
40272SOL    HW122655  13.325  13.358   7.076
40272SOL    HW222656  13.383  13.456   6.975
40273SOL     OW22657   6.688  12.123   3.496
40273SOL    HW122658   6.625  12.051   3.501
40273SOL    HW222659   6.645  12.190   3.442
40274SOL     OW22660   0.690   7.560   3.559
40274SOL    HW122661   0.677   7.482   3.613
40274SOL    HW222662   0.648   7.539   3.475
40275SOL     OW22663   3.597   7.241  12.431
40275SOL    HW122664   3.677   7.250  12.483
40275SOL    HW222665   3.569   7.331  12.414
40276SOL     OW22666   4.224  14.700   1.423
40276SOL    HW122667   4.317  14.694   1.404
40276SOL    HW222668   4.194  14.609   1.426
40277SOL     OW22669   4.472   4.240   6.316
40277SOL    HW122670   4.413   4.254   6.242
40277SOL    HW222671   4.559   4.241   6.277
40278SOL     OW22672   6.257   0.252   8.350
40278SOL    HW122673   6.264   0.201   8.270
40278SOL    HW222674   6.169   0.291   8.346
40279SOL     OW22675   4.828   2.921   9.019
40279SOL    HW122676   4.921   2.942   9.032
40279SOL    HW222677   4.822   2.828   9.037
40280SOL     OW22678   9.585   2.826   1.767
40280SOL    HW122679   9.556   2.916   1.759
40280SOL    HW222680   9.680   2.830   1.753
40281SOL     OW22681   1.968  14.312   1.371
40281SOL    HW122682   1.880  14.334   1.401
40281SOL    HW222683   2.027  14.354   1.432
40282SOL     OW22684   7.552   4.378  11.138
40282SOL    HW122685   7.469   4.355  11.178
40282SOL    HW222686   7.606   4.411  11.210
40283SOL     OW22687  11.318  13.665   5.396
40283SOL    HW122688  11.288  13.616   5.319
40283SOL    HW222689  11.382  13.608   5.438
40284SOL     OW22690   5.801  13.297  12.389
40284SOL    HW122691   5.761  13.210  12.400
40284SOL    HW222692   5.738  13.357  12.429
40285SOL     OW22693  13.601   2.150   9.977
40285SOL    HW122694  13.570   2.204   9.904
40285SOL    HW222695  13.683   2.112   9.945
40286SOL     OW22696   2.926   6.835   5.926
40286SOL    HW122697   2.891   6.879   6.004
40286SOL    HW222698   3.018   6.862   5.923
40287SOL     OW22699  14.006  12.689   1.354
40287SOL    HW122700  14.009  12.657   1.264
40287SOL    HW222701  13.924  12.738   1.360
40288SOL     OW22702   8.646  14.085  11.225
40288SOL    HW122703   8.556  14.055  11.238
40288SOL    HW222704   8.643  14.179  11.241
40289SOL     OW22705   2.877  10.980   4.910
40289SOL    HW122706   2.924  10.897   4.906
40289SOL    HW222707   2.792  10.961   4.870
40290SOL     OW22708   4.000   8.733   8.470
40290SOL    HW122709   4.022   8.651   8.425
40290SOL    HW222710   3.962   8.705   8.553
40291SOL     OW22711   1.679   9.875   8.440
40291SOL    HW122712   1.772   9.882   8.418
40291SOL    HW222713   1.668   9.787   8.475
40292SOL     OW22714   0.100   9.252  13.605
40292SOL    HW122715   0.029   9.240  13.667
40292SOL    HW222716   0.061   9.300  13.532
40293SOL     OW22717   6.816   5.060  11.448
40293SOL    HW122718   6.764   5.141  11.449
40293SOL    HW222719   6.905   5.090  11.429
40294SOL     OW22720   8.736   8.389   3.193
40294SOL    HW122721   8.766   8.412   3.281
40294SOL    HW222722   8.797   8.432   3.134
40295SOL     OW22723  11.781   0.456   4.004
40295SOL    HW122724  11.834   0.466   4.083
40295SOL    HW222725  11.691   0.456   4.035
40296SOL     OW22726  13.140   7.557   2.511
40296SOL    HW122727  13.193   7.585   2.436
40296SOL    HW222728  13.189   7.485   2.549
40297SOL     OW22729   5.906   3.720   7.742
40297SOL    HW122730   5.923   3.648   7.802
40297SOL    HW222731   5.984   3.725   7.688
40298SOL     OW22732   8.345   7.623   7.137
40298SOL    HW122733   8.280   7.557   7.114
40298SOL    HW222734   8.423   7.599   7.086
40299SOL     OW22735   6.979   0.902   6.539
40299SOL    HW122736   6.918   0.930   6.607
40299SOL    HW222737   7.028   0.981   6.517
40300SOL     OW22738   7.341  12.759   9.681
40300SOL    HW122739   7.374  12.763   9.592
40300SOL    HW222740   7.374  12.839   9.723
40301SOL     OW22741   3.323   4.187  13.936
40301SOL    HW122742   3.313   4.170  13.842
40301SOL    HW222743   3.282   4.272  13.950
40302SOL     OW22744   1.560  11.395   1.472
40302SOL    HW122745   1.537  11.477   1.516
40302SOL    HW222746   1.477  11.349   1.461
40303SOL     OW22747   7.737   8.266   3.460
40303SOL    HW122748   7.795   8.203   3.416
40303SOL    HW222749   7.649   8.238   3.436
40304SOL     OW22750   6.307  13.444   4.153
40304SOL    HW122751   6.371  13.489   4.098
40304SOL    HW222752   6.343  13.453   4.242
40305SOL     OW22753  10.681   9.599   6.620
40305SOL    HW122754  10.689   9.524   6.562
40305SOL    HW222755  10.737   9.666   6.580
40306SOL     OW22756   0.600   7.793  11.898
40306SOL    HW122757   0.604   7.701  11.927
40306SOL    HW222758   0.634   7.843  11.972
40307SOL     OW22759   3.558   2.751  13.601
40307SOL    HW122760   3.554   2.845  13.617
40307SOL    HW222761   3.475   2.717  13.635
40308SOL     OW22762   4.686  13.144   8.177
40308SOL    HW122763   4.681  13.063   8.126
40308SOL    HW222764   4.606  13.143   8.231
40309SOL     OW22765   2.101   0.008  10.602
40309SOL    HW122766   2.039   0.027  10.672
40309SOL    HW222767   2.181   0.055  10.628
40310SOL     OW22768   0.659   6.289   5.083
40310SOL    HW122769   0.632   6.328   5.000
40310SOL    HW222770   0.611   6.338   5.150
40311SOL     OW22771  12.602  12.435   2.482
40311SOL    HW122772  12.566  12.518   2.452
40311SOL    HW222773  12.691  12.433   2.445
40312SOL     OW22774  11.600   2.413   4.944
40312SOL    HW122775  11.687   2.386   4.974
40312SOL    HW222776  11.592   2.503   4.973
40313SOL     OW22777   8.178  13.350   6.705
40313SOL    HW122778   8.092  13.310   6.687
40313SOL    HW222779   8.185  13.420   6.640
40314SOL     OW22780  11.440   7.320   7.796
40314SOL    HW122781  11.394   7.386   7.744
40314SOL    HW222782  11.491   7.270   7.732
40315SOL     OW22783   7.117  13.572   8.872
40315SOL    HW122784   7.046  13.509   8.880
40315SOL    HW222785   7.147  13.564   8.782
40316SOL     OW22786   8.345   6.881   9.461
40316SOL    HW122787   8.292   6.901   9.538
40316SOL    HW222788   8.357   6.786   9.464
40317SOL     OW22789   3.732   4.348   8.575
40317SOL    HW122790   3.795   4.389   8.634
40317SOL    HW222791   3.749   4.254   8.584
40318SOL     OW22792   1.199  14.301   2.002
40318SOL    HW122793   1.221  14.232   2.064
40318SOL    HW222794   1.113  14.333   2.029
40319SOL     OW22795   2.337   7.156  10.499
40319SOL    HW122796   2.420   7.157  10.546
40319SOL    HW222797   2.307   7.247  10.501
40320SOL     OW22798   0.143  13.268   0.480
40320SOL    HW122799   0.086  13.329   0.432
40320SOL    HW222800   0.092  13.187   0.485
40321SOL     OW22801   7.804   4.214   7.380
40321SOL    HW122802   7.885   4.172   7.407
40321SOL    HW222803   7.781   4.273   7.453
40322SOL     OW22804   0.041   6.772   9.370
40322SOL    HW122805   0.117   6.716   9.359
40322SOL    HW222806  14.854   6.720   9.422
40323SOL     OW22807  12.586   9.065   6.010
40323SOL    HW122808  12.648   9.128   6.046
40323SOL    HW222809  12.522   9.118   5.963
40324SOL     OW22810   4.476   7.551   5.374
40324SOL    HW122811   4.543   7.518   5.313
40324SOL    HW222812   4.512   7.534   5.461
40325SOL     OW22813   3.865   3.701   4.447
40325SOL    HW122814   3.944   3.741   4.412
40325SOL    HW222815   3.795   3.762   4.425
40326SOL     OW22816   5.515  11.723   0.647
40326SOL    HW122817   5.608  11.741   0.634
40326SOL    HW222818   5.474  11.741   0.563
40327SOL     OW22819  11.443   4.231   8.947
40327SOL    HW122820  11.488   4.154   8.912
40327SOL    HW222821  11.412   4.203   9.033
40328SOL     OW22822   1.809   7.608   4.077
40328SOL    HW122823   1.888   7.628   4.127
40328SOL    HW222824   1.800   7.513   4.083
40329SOL     OW22825   1.319   6.954   6.468
40329SOL    HW122826   1.242   7.000   6.502
40329SOL    HW222827   1.312   6.962   6.373
40330SOL     OW22828   9.670   3.808   5.457
40330SOL    HW122829   9.616   3.843   5.528
40330SOL    HW222830   9.752   3.784   5.500
40331SOL     OW22831   8.749   5.486   1.156
40331SOL    HW122832   8.797   5.473   1.074
40331SOL    HW222833   8.689   5.558   1.138
40332SOL     OW22834   8.028  10.894  11.565
40332SOL    HW122835   8.084  10.927  11.636
40332SOL    HW222836   8.064  10.808  11.543
40333SOL     OW22837   9.694   5.691   9.972
40333SOL    HW122838   9.749   5.669  10.047
40333SOL    HW222839   9.664   5.607   9.938
40334SOL     OW22840  11.456   3.152   6.540
40334SOL    HW122841  11.484   3.152   6.449
40334SOL    HW222842  11.411   3.069   6.552
40335SOL     OW22843  11.493   8.057   0.309
40335SOL    HW122844  11.470   8.136   0.357
40335SOL    HW222845  11.409   8.024   0.276
40336SOL     OW22846   7.082   5.797   6.572
40336SOL    HW122847   7.051   5.706   6.575
40336SOL    HW222848   7.004   5.848   6.551
40337SOL     OW22849   2.432   3.006   9.822
40337SOL    HW122850   2.397   3.063   9.754
40337SOL    HW222851   2.523   3.035   9.833
40338SOL     OW22852  12.239  14.459   3.858
40338SOL    HW122853  12.264  14.516   3.931
40338SOL    HW222854  12.272  14.373   3.882
40339SOL     OW22855  12.926  14.016  11.524
40339SOL    HW122856  12.968  14.095  11.489
40339SOL    HW222857  12.937  14.022  11.619
40340SOL     OW22858   1.329   7.689   1.103
40340SOL    HW122859   1.359   7.779   1.098
40340SOL    HW222860   1.294   7.680   1.192
40341SOL     OW22861   3.714   8.462   9.136
40341SOL    HW122862   3.672   8.515   9.068
40341SOL    HW222863   3.642   8.434   9.192
40342SOL     OW22864   1.950   0.354  10.782
40342SOL    HW122865   1.980   0.385  10.867
40342SOL    HW222866   2.008   0.396  10.718
40343SOL     OW22867   3.360   4.286   3.936
40343SOL    HW122868   3.419   4.243   3.998
40343SOL    HW222869   3.405   4.280   3.852
40344SOL     OW22870  11.864  11.568  14.813
40344SOL    HW122871  11.891  11.644  14.866
40344SOL    HW222872  11.773  11.553  14.837
40345SOL     OW22873   5.479   5.753   7.376
40345SOL    HW122874   5.414   5.810   7.336
40345SOL    HW222875   5.545   5.812   7.412
40346SOL     OW22876   1.820   1.829  11.570
40346SOL    HW122877   1.763   1.884  11.514
40346SOL    HW222878   1.816   1.871  11.656
40347SOL     OW22879   7.801   4.002   0.152
40347SOL    HW122880   7.779   4.027   0.242
40347SOL    HW222881   7.728   4.035   0.099
40348SOL     OW22882   3.151   5.575   3.700
40348SOL    HW122883   3.185   5.648   3.752
40348SOL    HW222884   3.060   5.599   3.683
40349SOL     OW22885   3.382   5.878   8.797
40349SOL    HW122886   3.472   5.848   8.786
40349SOL    HW222887   3.370   5.885   8.892
40350SOL     OW22888  13.418   2.848   9.925
40350SOL    HW122889  13.506   2.843   9.963
40350SOL    HW222890  13.424   2.796   9.845
40351SOL     OW22891  13.022  13.074  12.622
40351SOL    HW122892  12.943  13.127  12.621
40351SOL    HW222893  13.009  13.013  12.694
40352SOL     OW22894   7.372  14.851  12.843
40352SOL    HW122895   7.299  14.822  12.790
40352SOL    HW222896   7.437  14.781  12.835
40353SOL     OW22897   0.117   1.811   4.898
40353SOL    HW122898   0.184   1.813   4.829
40353SOL    HW222899   0.113   1.902   4.929
40354SOL     OW22900   7.586   3.096  13.835
40354SOL    HW122901   7.501   3.116  13.874
40354SOL    HW222902   7.641   3.171  13.859
40355SOL     OW22903   2.810   9.486  13.522
40355SOL    HW122904   2.802   9.414  13.585
40355SOL    HW222905   2.779   9.449  13.440
40356SOL     OW22906   1.208   4.757   9.935
40356SOL    HW122907   1.270   4.770   9.864
40356SOL    HW222908   1.209   4.662   9.952
40357SOL     OW22909   0.644  11.605  12.185
40357SOL    HW122910   0.728  11.584  12.145
40357SOL    HW222911   0.585  11.621  12.111
40358SOL     OW22912  13.416   6.419   9.854
40358SOL    HW122913  13.505   6.384   9.862
40358SOL    HW222914  13.385   6.388   9.769
40359SOL     OW22915   7.370   7.058   5.042
40359SOL    HW122916   7.299   6.994   5.054
40359SOL    HW222917   7.422   7.052   5.122
40360SOL     OW22918  14.873   1.175   2.544
40360SOL    HW122919   0.029   1.093   2.504
40360SOL    HW222920  14.843   1.149   2.631
40361SOL     OW22921   5.391   3.325   4.029
40361SOL    HW122922   5.485   3.326   4.012
40361SOL    HW222923   5.354   3.382   3.962
40362SOL     OW22924  14.634   8.232  10.373
40362SOL    HW122925  14.673   8.210  10.289
40362SOL    HW222926  14.700   8.203  10.438
40363SOL     OW22927   7.793   1.851   1.061
40363SOL    HW122928   7.719   1.843   1.002
40363SOL    HW222929   7.755   1.879   1.144
40364SOL     OW22930   8.809   7.444  10.533
40364SOL    HW122931   8.863   7.381  10.581
40364SOL    HW222932   8.726   7.445  10.579
40365SOL     OW22933  11.633   5.592   8.355
40365SOL    HW122934  11.674   5.508   8.333
40365SOL    HW222935  11.704   5.646   8.389
40366SOL     OW22936   8.677   3.160  14.276
40366SOL    HW122937   8.734   3.090  14.245
40366SOL    HW222938   8.652   3.209  14.197
40367SOL     OW22939   9.208   1.016   7.725
40367SOL    HW122940   9.217   0.964   7.645
40367SOL    HW222941   9.217   0.952   7.796
40368SOL     OW22942   0.903  14.691   0.820
40368SOL    HW122943   0.903  14.746   0.899
40368SOL    HW222944   0.912  14.602   0.853
40369SOL     OW22945   2.165   8.105   3.063
40369SOL    HW122946   2.116   8.023   3.064
40369SOL    HW222947   2.209   8.105   2.978
40370SOL     OW22948   3.983   8.679  12.000
40370SOL    HW122949   3.902   8.628  12.001
40370SOL    HW222950   4.034   8.644  12.073
40371SOL     OW22951   8.519   8.119   4.152
40371SOL    HW122952   8.568   8.137   4.232
40371SOL    HW222953   8.564   8.045   4.112
40372SOL     OW22954  13.300  13.686   3.211
40372SOL    HW122955  13.354  13.739   3.271
40372SOL    HW222956  13.318  13.596   3.235
40373SOL     OW22957   3.394   2.250   9.143
40373SOL    HW122958   3.303   2.236   9.117
40373SOL    HW222959   3.438   2.168   9.124
40374SOL     OW22960   0.206  13.603  12.924
40374SOL    HW122961   0.269  13.559  12.981
40374SOL    HW222962   0.237  13.694  12.921
40375SOL     OW22963   4.455   4.079  13.589
40375SOL    HW122964   4.511   4.153  13.612
40375SOL    HW222965   4.385   4.118  13.536
40376SOL     OW22966   9.883   4.110   5.462
40376SOL    HW122967   9.953   4.102   5.397
40376SOL    HW222968   9.926   4.144   5.540
40377SOL     OW22969   2.416   4.859  10.992
40377SOL    HW122970   2.368   4.930  11.034
40377SOL    HW222971   2.370   4.780  11.021
40378SOL     OW22972   2.070  11.609   5.279
40378SOL    HW122973   2.160  11.640   5.273
40378SOL    HW222974   2.036  11.615   5.189
40379SOL     OW22975  12.095   5.139   9.031
40379SOL    HW122976  12.155   5.205   9.065
40379SOL    HW222977  12.037   5.187   8.972
40380SOL     OW22978  13.511   9.874  13.617
40380SOL    HW122979  13.564   9.819  13.674
40380SOL    HW222980  13.445   9.815  13.581
40381SOL     OW22981   2.765   7.884   4.495
40381SOL    HW122982   2.821   7.821   4.450
40381SOL    HW222983   2.770   7.963   4.441
40382SOL     OW22984  10.120  12.091  11.885
40382SOL    HW122985  10.110  11.999  11.909
40382SOL    HW222986  10.122  12.091  11.789
40383SOL     OW22987   3.209   3.660   4.689
40383SOL    HW122988   3.138   3.704   4.736
40383SOL    HW222989   3.185   3.568   4.690
40384SOL     OW22990   5.907   5.351   0.641
40384SOL    HW122991   5.839   5.418   0.630
40384SOL    HW222992   5.950   5.346   0.556
40385SOL     OW22993   0.624  11.811   2.207
40385SOL    HW122994   0.704  11.838   2.252
40385SOL    HW222995   0.584  11.893   2.177
40386SOL     OW22996   8.975  13.558  10.143
40386SOL    HW122997   8.934  13.577  10.059
40386SOL    HW222998   9.063  13.596  10.136
40387SOL     OW22999   4.416  11.425   8.713
40387SOL    HW123000   4.393  11.388   8.627
40387SOL    HW223001   4.331  11.439   8.756
40388SOL     OW23002  11.647  14.739  10.907
40388SOL    HW123003  11.627  14.647  10.924
40388SOL    HW223004  11.678  14.741  10.816
40389SOL     OW23005  13.070   0.717   6.967
40389SOL    HW123006  13.148   0.772   6.965
40389SOL    HW223007  13.048   0.704   6.875
40390SOL     OW23008   2.749  12.192   2.904
40390SOL    HW123009   2.818  12.176   2.968
40390SOL    HW223010   2.674  12.142   2.937
40391SOL     OW23011  11.131   3.394   4.469
40391SOL    HW123012  11.054   3.390   4.412
40391SOL    HW223013  11.205   3.372   4.411
40392SOL     OW23014   8.330   0.303  11.261
40392SOL    HW123015   8.254   0.251  11.236
40392SOL    HW223016   8.332   0.299  11.356
40393SOL     OW23017   3.968   3.990   2.289
40393SOL    HW123018   4.007   4.069   2.328
40393SOL    HW223019   4.037   3.955   2.232
40394SOL     OW23020   2.818  13.562   3.950
40394SOL    HW123021   2.875  13.571   3.873
40394SOL    HW223022   2.838  13.638   4.004
40395SOL     OW23023   8.544   0.372   8.600
40395SOL    HW123024   8.608   0.437   8.573
40395SOL    HW223025   8.594   0.305   8.646
40396SOL     OW23026  13.859   0.635   9.835
40396SOL    HW123027  13.791   0.700   9.852
40396SOL    HW223028  13.814   0.565   9.786
40397SOL     OW23029  12.197  12.857   8.690
40397SOL    HW123030  12.152  12.941   8.681
40397SOL    HW223031  12.206  12.844   8.784
40398SOL     OW23032   8.178   1.706  13.913
40398SOL    HW123033   8.090   1.742  13.924
40398SOL    HW223034   8.190   1.647  13.987
40399SOL     OW23035  12.883   0.808   9.132
40399SOL    HW123036  12.815   0.744   9.152
40399SOL    HW223037  12.931   0.769   9.059
40400SOL     OW23038   9.933   6.995  14.515
40400SOL    HW123039   9.903   7.050  14.442
40400SOL    HW223040   9.919   7.048  14.593
40401SOL     OW23041  11.975   1.364   8.598
40401SOL    HW123042  11.996   1.276   8.569
40401SOL    HW223043  11.879   1.368   8.595
40402SOL     OW23044   3.650   6.866  14.659
40402SOL    HW123045   3.728   6.812  14.665
40402SOL    HW223046   3.663   6.936  14.723
40403SOL     OW23047  11.040  14.689  13.721
40403SOL    HW123048  11.020  14.754  13.789
40403SOL    HW223049  10.988  14.717  13.645
40404SOL     OW23050   0.345   1.045   7.336
40404SOL    HW123051   0.353   1.141   7.337
40404SOL    HW223052   0.280   1.027   7.268
40405SOL     OW23053   4.921   5.721   4.378
40405SOL    HW123054   4.879   5.805   4.399
40405SOL    HW223055   4.968   5.697   4.458
40406SOL     OW23056   7.234   0.632  13.739
40406SOL    HW123057   7.173   0.637  13.665
40406SOL    HW223058   7.178   0.633  13.817
40407SOL     OW23059   2.685   0.753  13.068
40407SOL    HW123060   2.763   0.711  13.103
40407SOL    HW223061   2.620   0.745  13.138
40408SOL     OW23062   1.920   1.674  11.861
40408SOL    HW123063   1.856   1.654  11.792
40408SOL    HW223064   2.005   1.667  11.818
40409SOL     OW23065   7.763  13.561  11.888
40409SOL    HW123066   7.835  13.559  11.952
40409SOL    HW223067   7.795  13.506  11.816
40410SOL     OW23068   8.781   2.229   2.681
40410SOL    HW123069   8.752   2.250   2.592
40410SOL    HW223070   8.790   2.134   2.682
40411SOL     OW23071  14.300  12.247  10.649
40411SOL    HW123072  14.250  12.314  10.697
40411SOL    HW223073  14.318  12.180  10.715
40412SOL     OW23074   8.781   0.533  14.186
40412SOL    HW123075   8.823   0.500  14.265
40412SOL    HW223076   8.723   0.603  14.216
40413SOL     OW23077  14.357   9.790  13.636
40413SOL    HW123078  14.370   9.857  13.569
40413SOL    HW223079  14.289   9.733  13.600
40414SOL     OW23080  11.581  12.344  11.195
40414SOL    HW123081  11.546  12.364  11.108
40414SOL    HW223082  11.642  12.416  11.213
40415SOL     OW23083   4.725  11.043   3.704
40415SOL    HW123084   4.755  11.126   3.740
40415SOL    HW223085   4.724  11.057   3.609
40416SOL     OW23086  12.348   1.219  11.912
40416SOL    HW123087  12.428   1.190  11.956
40416SOL    HW223088  12.337   1.159  11.839
40417SOL     OW23089  13.129   3.297  13.168
40417SOL    HW123090  13.148   3.318  13.076
40417SOL    HW223091  13.036   3.278  13.169
40418SOL     OW23092   6.922  14.539  12.545
40418SOL    HW123093   6.916  14.463  12.486
40418SOL    HW223094   6.916  14.615  12.487
40419SOL     OW23095   2.003   7.580   2.585
40419SOL    HW123096   1.975   7.636   2.658
40419SOL    HW223097   1.928   7.521   2.571
40420SOL     OW23098  11.211  11.744   3.837
40420SOL    HW123099  11.123  11.767   3.809
40420SOL    HW223100  11.201  11.716   3.928
40421SOL     OW23101  13.081   0.497  14.306
40421SOL    HW123102  13.150   0.510  14.241
40421SOL    HW223103  13.079   0.579  14.356
40422SOL     OW23104  12.146  12.346  11.968
40422SOL    HW123105  12.117  12.295  12.043
40422SOL    HW223106  12.143  12.286  11.894
40423SOL     OW23107  11.574  10.815   1.620
40423SOL    HW123108  11.526  10.857   1.549
40423SOL    HW223109  11.545  10.860   1.699
40424SOL     OW23110   1.288   6.376  11.348
40424SOL    HW123111   1.367   6.405  11.304
40424SOL    HW223112   1.319   6.330  11.426
40425SOL     OW23113   7.957   1.351   0.675
40425SOL    HW123114   7.971   1.338   0.768
40425SOL    HW223115   7.879   1.406   0.669
40426SOL     OW23116  11.234   1.038   2.378
40426SOL    HW123117  11.271   0.966   2.327
40426SOL    HW223118  11.200   0.997   2.457
40427SOL     OW23119  10.256  12.704   0.061
40427SOL    HW123120  10.270  12.664   0.147
40427SOL    HW223121  10.166  12.736   0.064
40428SOL     OW23122   4.287   7.638   3.921
40428SOL    HW123123   4.282   7.637   3.826
40428SOL    HW223124   4.347   7.710   3.941
40429SOL     OW23125   6.422   5.935   5.422
40429SOL    HW123126   6.454   5.879   5.493
40429SOL    HW223127   6.470   5.906   5.345
40430SOL     OW23128   7.317  14.830  11.737
40430SOL    HW123129   7.319  14.747  11.688
40430SOL    HW223130   7.407  14.842  11.766
40431SOL     OW23131  14.688   1.320   5.579
40431SOL    HW123132  14.630   1.353   5.510
40431SOL    HW223133  14.775   1.319   5.539
40432SOL     OW23134   0.303  13.138   7.125
40432SOL    HW123135   0.332  13.221   7.164
40432SOL    HW223136   0.233  13.163   7.064
40433SOL     OW23137   2.553  13.290   7.001
40433SOL    HW123138   2.542  13.308   6.907
40433SOL    HW223139   2.465  13.299   7.037
40434SOL     OW23140   9.559   3.228  14.411
40434SOL    HW123141   9.637   3.234  14.356
40434SOL    HW223142   9.590   3.190  14.493
40435SOL     OW23143   3.087  10.760   3.842
40435SOL    HW123144   3.103  10.814   3.920
40435SOL    HW223145   3.051  10.678   3.876
40436SOL     OW23146   1.514   0.922  14.169
40436SOL    HW123147   1.549   0.986  14.107
40436SOL    HW223148   1.587   0.903  14.228
40437SOL     OW23149   5.954   9.878   1.470
40437SOL    HW123150   5.886   9.818   1.500
40437SOL    HW223151   6.006   9.895   1.548
40438SOL     OW23152   5.702   8.249   8.559
40438SOL    HW123153   5.631   8.189   8.534
40438SOL    HW223154   5.779   8.215   8.513
40439SOL     OW23155  12.000   7.591  12.420
40439SOL    HW123156  11.935   7.662  12.428
40439SOL    HW223157  12.012   7.560  12.510
40440SOL     OW23158   5.787  14.722   4.104
40440SOL    HW123159   5.795  14.654   4.038
40440SOL    HW223160   5.876  14.736   4.136
40441SOL     OW23161   6.970  11.934  12.264
40441SOL    HW123162   6.990  11.853  12.218
40441SOL    HW223163   6.978  11.912  12.357
40442SOL     OW23164   8.447   2.779  13.773
40442SOL    HW123165   8.507   2.854  13.775
40442SOL    HW223166   8.380   2.804  13.709
40443SOL     OW23167   8.744   2.569   4.222
40443SOL    HW123168   8.708   2.652   4.250
40443SOL    HW223169   8.757   2.579   4.128
40444SOL     OW23170   8.355   3.862   0.688
40444SOL    HW123171   8.315   3.795   0.743
40444SOL    HW223172   8.360   3.822   0.601
40445SOL     OW23173   9.879   2.837   4.267
40445SOL    HW123174   9.799   2.838   4.213
40445SOL    HW223175   9.872   2.758   4.319
40446SOL     OW23176  13.077   2.698   0.666
40446SOL    HW123177  13.093   2.791   0.652
40446SOL    HW223178  13.164   2.659   0.674
40447SOL     OW23179   8.876   8.077   9.107
40447SOL    HW123180   8.891   8.129   9.028
40447SOL    HW223181   8.781   8.068   9.113
40448SOL     OW23182   0.002   0.172   7.327
40448SOL    HW123183  14.820   0.102   7.358
40448SOL    HW223184   0.055   0.132   7.259
40449SOL     OW23185   9.007   3.778   8.089
40449SOL    HW123186   9.027   3.696   8.045
40449SOL    HW223187   9.087   3.801   8.136
40450SOL     OW23188  10.845   7.359  12.595
40450SOL    HW123189  10.840   7.303  12.518
40450SOL    HW223190  10.805   7.441  12.567
40451SOL     OW23191   1.496   0.890  10.174
40451SOL    HW123192   1.584   0.862  10.151
40451SOL    HW223193   1.457   0.919  10.091
40452SOL     OW23194  12.144  10.581  11.799
40452SOL    HW123195  12.175  10.577  11.890
40452SOL    HW223196  12.184  10.506  11.756
40453SOL     OW23197  11.799   4.593  10.387
40453SOL    HW123198  11.878   4.620  10.434
40453SOL    HW223199  11.735   4.661  10.406
40454SOL     OW23200   0.534   4.239   4.510
40454SOL    HW123201   0.535   4.261   4.603
40454SOL    HW223202   0.593   4.164   4.502
40455SOL     OW23203  14.364   1.054   6.158
40455SOL    HW123204  14.344   1.075   6.250
40455SOL    HW223205  14.292   1.094   6.109
40456SOL     OW23206   3.610   7.862   3.512
40456SOL    HW123207   3.703   7.882   3.515
40456SOL    HW223208   3.574   7.904   3.590
40457SOL     OW23209  14.647   5.383   1.972
40457SOL    HW123210  14.661   5.398   2.066
40457SOL    HW223211  14.714   5.437   1.930
40458SOL     OW23212  12.274   3.042  13.073
40458SOL    HW123213  12.255   2.969  13.014
40458SOL    HW223214  12.230   3.019  13.155
40459SOL     OW23215  12.861  12.090   9.432
40459SOL    HW123216  12.876  12.078   9.339
40459SOL    HW223217  12.858  12.002   9.468
40460SOL     OW23218   0.911   7.131   2.827
40460SOL    HW123219   0.959   7.065   2.776
40460SOL    HW223220   0.869   7.186   2.761
40461SOL     OW23221   4.683   4.407   1.478
40461SOL    HW123222   4.764   4.411   1.530
40461SOL    HW223223   4.613   4.413   1.542
40462SOL     OW23224   1.756   3.943   0.728
40462SOL    HW123225   1.707   3.979   0.802
40462SOL    HW223226   1.820   4.010   0.707
40463SOL     OW23227  13.969   0.991  11.565
40463SOL    HW123228  13.905   1.061  11.559
40463SOL    HW223229  14.027   1.004  11.490
40464SOL     OW23230   4.350   5.859  14.219
40464SOL    HW123231   4.291   5.854  14.144
40464SOL    HW223232   4.437   5.872  14.180
40465SOL     OW23233   1.782  14.019  12.053
40465SOL    HW123234   1.764  14.078  11.980
40465SOL    HW223235   1.739  13.937  12.028
40466SOL     OW23236   3.392  10.265  10.935
40466SOL    HW123237   3.482  10.293  10.920
40466SOL    HW223238   3.358  10.328  11.000
40467SOL     OW23239   2.636   2.281  11.028
40467SOL    HW123240   2.597   2.323  11.105
40467SOL    HW223241   2.670   2.354  10.976
40468SOL     OW23242   4.453   0.660   6.431
40468SOL    HW123243   4.363   0.638   6.454
40468SOL    HW223244   4.453   0.755   6.420
40469SOL     OW23245  14.538   2.485   4.710
40469SOL    HW123246  14.572   2.427   4.642
40469SOL    HW223247  14.506   2.562   4.663
40470SOL     OW23248  10.404   3.698   3.898
40470SOL    HW123249  10.468   3.691   3.827
40470SOL    HW223250  10.389   3.792   3.907
40471SOL     OW23251   4.327  10.559   7.828
40471SOL    HW123252   4.365  10.639   7.791
40471SOL    HW223253   4.313  10.502   7.752
40472SOL     OW23254   9.049   5.788  10.510
40472SOL    HW123255   9.001   5.870  10.524
40472SOL    HW223256   9.074   5.760  10.598
40473SOL     OW23257  11.221  10.139   5.383
40473SOL    HW123258  11.144  10.083   5.396
40473SOL    HW223259  11.186  10.228   5.379
40474SOL     OW23260   5.923   8.107   8.821
40474SOL    HW123261   5.971   8.037   8.867
40474SOL    HW223262   5.978   8.184   8.832
40475SOL     OW23263   9.155  14.532   9.532
40475SOL    HW123264   9.175  14.625   9.522
40475SOL    HW223265   9.234  14.488   9.501
40476SOL     OW23266   8.265  12.827   8.344
40476SOL    HW123267   8.204  12.867   8.405
40476SOL    HW223268   8.282  12.740   8.381
40477SOL     OW23269   2.528  13.785  10.516
40477SOL    HW123270   2.489  13.865  10.481
40477SOL    HW223271   2.616  13.810  10.543
40478SOL     OW23272   1.347   8.124  10.906
40478SOL    HW123273   1.289   8.132  10.981
40478SOL    HW223274   1.299   8.068  10.844
40479SOL     OW23275   3.853   2.477   0.043
40479SOL    HW123276   3.936   2.507   0.007
40479SOL    HW223277   3.822   2.549   0.097
40480SOL     OW23278   7.143   3.297   6.897
40480SOL    HW123279   7.168   3.387   6.876
40480SOL    HW223280   7.071   3.278   6.837
40481SOL     OW23281   9.412   1.764   5.020
40481SOL    HW123282   9.408   1.834   4.956
40481SOL    HW223283   9.367   1.690   4.979
40482SOL     OW23284   2.005  12.589   1.185
40482SOL    HW123285   2.054  12.628   1.257
40482SOL    HW223286   2.047  12.504   1.170
40483SOL     OW23287   1.110  11.775  12.789
40483SOL    HW123288   1.098  11.717  12.865
40483SOL    HW223289   1.190  11.824  12.808
40484SOL     OW23290   6.753  14.763   8.356
40484SOL    HW123291   6.797  14.717   8.285
40484SOL    HW223292   6.669  14.718   8.366
40485SOL     OW23293   3.977  12.240   0.495
40485SOL    HW123294   3.996  12.269   0.406
40485SOL    HW223295   3.919  12.164   0.483
40486SOL     OW23296  12.185  14.326   7.370
40486SOL    HW123297  12.203  14.288   7.284
40486SOL    HW223298  12.254  14.290   7.427
40487SOL     OW23299  11.836  11.945  12.529
40487SOL    HW123300  11.762  11.903  12.572
40487SOL    HW223301  11.912  11.897  12.560
40488SOL     OW23302   5.866  11.405   3.445
40488SOL    HW123303   5.806  11.430   3.374
40488SOL    HW223304   5.922  11.337   3.406
40489SOL     OW23305   8.707   8.222   4.839
40489SOL    HW123306   8.673   8.136   4.864
40489SOL    HW223307   8.802   8.213   4.847
40490SOL     OW23308   8.498  10.915  11.960
40490SOL    HW123309   8.454  10.841  12.001
40490SOL    HW223310   8.559  10.875  11.897
40491SOL     OW23311   9.768  12.102  14.654
40491SOL    HW123312   9.825  12.177  14.668
40491SOL    HW223313   9.809  12.053  14.583
40492SOL     OW23314   0.819   1.339  10.960
40492SOL    HW123315   0.789   1.249  10.975
40492SOL    HW223316   0.855   1.367  11.044
40493SOL     OW23317  12.737  11.224   2.892
40493SOL    HW123318  12.757  11.131   2.879
40493SOL    HW223319  12.642  11.227   2.899
40494SOL     OW23320  13.408   5.944   0.913
40494SOL    HW123321  13.341   6.012   0.923
40494SOL    HW223322  13.442   5.956   0.824
40495SOL     OW23323  10.999   0.989   3.538
40495SOL    HW123324  11.049   1.024   3.612
40495SOL    HW223325  11.063   0.982   3.468
40496SOL     OW23326   5.911   4.480   6.763
40496SOL    HW123327   5.905   4.417   6.836
40496SOL    HW223328   5.930   4.564   6.806
40497SOL     OW23329   1.112  13.078   3.343
40497SOL    HW123330   1.145  13.156   3.297
40497SOL    HW223331   1.189  13.043   3.388
40498SOL     OW23332  12.867   0.223  13.481
40498SOL    HW123333  12.819   0.252  13.403
40498SOL    HW223334  12.803   0.229  13.552
40499SOL     OW23335   8.723  13.152  12.742
40499SOL    HW123336   8.777  13.073  12.732
40499SOL    HW223337   8.760  13.214  12.680
40500SOL     OW23338  14.363   4.969   3.957
40500SOL    HW123339  14.458   4.978   3.963
40500SOL    HW223340  14.348   4.909   3.885
40501SOL     OW23341   0.157   6.882  13.311
40501SOL    HW123342   0.142   6.788  13.307
40501SOL    HW223343   0.252   6.891  13.305
40502SOL     OW23344  11.915   0.307   7.550
40502SOL    HW123345  11.975   0.378   7.529
40502SOL    HW223346  11.881   0.279   7.465
40503SOL     OW23347   0.652  11.426   6.753
40503SOL    HW123348   0.728  11.367   6.757
40503SOL    HW223349   0.662  11.482   6.830
40504SOL     OW23350   4.991  10.914   5.414
40504SOL    HW123351   4.973  10.821   5.401
40504SOL    HW223352   4.948  10.936   5.496
40505SOL     OW23353   2.628   2.837   3.179
40505SOL    HW123354   2.589   2.923   3.167
40505SOL    HW223355   2.559   2.776   3.154
40506SOL     OW23356  12.128   5.517  14.704
40506SOL    HW123357  12.100   5.602  14.669
40506SOL    HW223358  12.126   5.459  14.628
40507SOL     OW23359  14.152   0.187   3.489
40507SOL    HW123360  14.236   0.154   3.519
40507SOL    HW223361  14.145   0.159   3.398
40508SOL     OW23362  14.793   2.366  12.128
40508SOL    HW123363   0.003   2.394  12.164
40508SOL    HW223364  14.804   2.371  12.033
40509SOL     OW23365  10.776   8.138  11.652
40509SOL    HW123366  10.725   8.217  11.668
40509SOL    HW223367  10.864   8.159  11.684
40510SOL     OW23368  13.553  13.223   9.936
40510SOL    HW123369  13.470  13.225   9.889
40510SOL    HW223370  13.544  13.152   9.999
40511SOL     OW23371   7.187   7.312   5.082
40511SOL    HW123372   7.142   7.397   5.088
40511SOL    HW223373   7.267   7.331   5.034
40512SOL     OW23374  10.065   3.653   1.552
40512SOL    HW123375  10.088   3.572   1.599
40512SOL    HW223376  10.030   3.710   1.621
40513SOL     OW23377  11.815  12.677   3.130
40513SOL    HW123378  11.887  12.729   3.094
40513SOL    HW223379  11.843  12.656   3.219
40514SOL     OW23380   4.419   2.451   9.255
40514SOL    HW123381   4.496   2.397   9.270
40514SOL    HW223382   4.419   2.513   9.329
40515SOL     OW23383  12.864  12.617  11.397
40515SOL    HW123384  12.850  12.572  11.480
40515SOL    HW223385  12.823  12.561  11.331
40516SOL     OW23386   5.609   0.558   4.578
40516SOL    HW123387   5.676   0.610   4.535
40516SOL    HW223388   5.654   0.515   4.650
40517SOL     OW23389  11.394   1.144   5.560
40517SOL    HW123390  11.448   1.206   5.608
40517SOL    HW223391  11.352   1.091   5.627
40518SOL     OW23392  10.362   7.065   8.355
40518SOL    HW123393  10.359   7.044   8.262
40518SOL    HW223394  10.287   7.017   8.392
40519SOL     OW23395   5.074   7.612   6.849
40519SOL    HW123396   5.103   7.653   6.767
40519SOL    HW223397   5.093   7.519   6.838
40520SOL     OW23398   9.023   2.121   7.779
40520SOL    HW123399   8.988   2.035   7.801
40520SOL    HW223400   9.104   2.103   7.732
40521SOL     OW23401   3.178   5.108  13.245
40521SOL    HW123402   3.239   5.035  13.237
40521SOL    HW223403   3.162   5.116  13.339
40522SOL     OW23404  13.973   9.195  13.279
40522SOL    HW123405  14.057   9.158  13.251
40522SOL    HW223406  13.919   9.119  13.299
40523SOL     OW23407   6.392   7.783   6.714
40523SOL    HW123408   6.396   7.691   6.743
40523SOL    HW223409   6.480   7.817   6.733
40524SOL     OW23410   6.185  10.401   2.286
40524SOL    HW123411   6.111  10.428   2.341
40524SOL    HW223412   6.162  10.434   2.199
40525SOL     OW23413   3.280  11.762  13.108
40525SOL    HW123414   3.276  11.767  13.013
40525SOL    HW223415   3.350  11.701  13.126
40526SOL     OW23416   0.225  12.988   1.984
40526SOL    HW123417   0.208  12.983   2.078
40526SOL    HW223418   0.203  13.078   1.960
40527SOL     OW23419   6.309  14.533   2.719
40527SOL    HW123420   6.246  14.601   2.694
40527SOL    HW223421   6.255  14.456   2.735
40528SOL     OW23422   3.404  14.798   1.376
40528SOL    HW123423   3.458  14.840   1.443
40528SOL    HW223424   3.314  14.819   1.400
40529SOL     OW23425  10.218  10.319   4.811
40529SOL    HW123426  10.153  10.250   4.795
40529SOL    HW223427  10.191  10.358   4.895
40530SOL     OW23428  14.664  13.499  13.416
40530SOL    HW123429  14.605  13.565  13.380
40530SOL    HW223430  14.715  13.546  13.482
40531SOL     OW23431  10.889   9.854   6.955
40531SOL    HW123432  10.934   9.851   7.040
40531SOL    HW223433  10.946   9.907   6.900
40532SOL     OW23434   9.987  11.066   0.054
40532SOL    HW123435  10.063  11.098   0.006
40532SOL    HW223436   9.940  11.145   0.082
40533SOL     OW23437   9.694   0.120   3.993
40533SOL    HW123438   9.666   0.108   4.084
40533SOL    HW223439   9.757   0.191   3.996
40534SOL     OW23440  12.128   6.570  11.199
40534SOL    HW123441  12.121   6.607  11.287
40534SOL    HW223442  12.039   6.544  11.176
40535SOL     OW23443   3.611  14.647   3.194
40535SOL    HW123444   3.578  14.585   3.129
40535SOL    HW223445   3.550  14.720   3.191
40536SOL     OW23446   4.801  13.649   1.715
40536SOL    HW123447   4.879  13.619   1.669
40536SOL    HW223448   4.796  13.593   1.793
40537SOL     OW23449   9.198  13.287   4.868
40537SOL    HW123450   9.250  13.297   4.789
40537SOL    HW223451   9.139  13.214   4.850
40538SOL     OW23452  14.864  13.587   1.742
40538SOL    HW123453  14.781  13.547   1.764
40538SOL    HW223454  14.842  13.658   1.681
40539SOL     OW23455  12.749   4.621   3.736
40539SOL    HW123456  12.787   4.542   3.698
40539SOL    HW223457  12.676   4.643   3.678
40540SOL     OW23458  14.570   1.686   3.738
40540SOL    HW123459  14.537   1.600   3.763
40540SOL    HW223460  14.498   1.725   3.687
40541SOL     OW23461   7.048   9.678   0.326
40541SOL    HW123462   7.130   9.697   0.279
40541SOL    HW223463   7.019   9.763   0.359
40542SOL     OW23464   8.349   3.770  14.391
40542SOL    HW123465   8.309   3.833  14.451
40542SOL    HW223466   8.319   3.797  14.304
40543SOL     OW23467   5.316   1.765   1.568
40543SOL    HW123468   5.293   1.739   1.478
40543SOL    HW223469   5.402   1.805   1.560
40544SOL     OW23470   2.982   5.236   5.166
40544SOL    HW123471   3.072   5.254   5.193
40544SOL    HW223472   2.966   5.147   5.196
40545SOL     OW23473   5.396  13.507  10.264
40545SOL    HW123474   5.404  13.600  10.243
40545SOL    HW223475   5.441  13.499  10.349
40546SOL     OW23476   8.639   3.929   2.026
40546SOL    HW123477   8.718   3.899   1.981
40546SOL    HW223478   8.592   3.849   2.048
40547SOL     OW23479   2.076   5.692  12.023
40547SOL    HW123480   2.042   5.648  11.945
40547SOL    HW223481   2.136   5.759  11.989
40548SOL     OW23482   6.367   0.962   8.160
40548SOL    HW123483   6.293   0.938   8.104
40548SOL    HW223484   6.406   1.038   8.117
40549SOL     OW23485  10.090  12.125   5.497
40549SOL    HW123486  10.046  12.166   5.571
40549SOL    HW223487  10.163  12.077   5.536
40550SOL     OW23488   7.135   9.691   6.232
40550SOL    HW123489   7.215   9.735   6.203
40550SOL    HW223490   7.162   9.600   6.245
40551SOL     OW23491   2.774   8.359   1.575
40551SOL    HW123492   2.786   8.447   1.537
40551SOL    HW223493   2.739   8.376   1.662
40552SOL     OW23494   4.475  11.638   6.488
40552SOL    HW123495   4.437  11.552   6.473
40552SOL    HW223496   4.472  11.682   6.403
40553SOL     OW23497   6.335  12.058   0.805
40553SOL    HW123498   6.309  12.059   0.713
40553SOL    HW223499   6.427  12.030   0.804
40554SOL     OW23500  10.551  11.362  13.956
40554SOL    HW123501  10.622  11.423  13.973
40554SOL    HW223502  10.504  11.400  13.881
40555SOL     OW23503  14.703  13.322  10.707
40555SOL    HW123504  14.647  13.399  10.717
40555SOL    HW223505  14.752  13.339  10.626
40556SOL     OW23506   4.976  14.563   7.219
40556SOL    HW123507   4.896  14.602   7.254
40556SOL    HW223508   5.036  14.637   7.210
40557SOL     OW23509   7.734   9.233   2.816
40557SOL    HW123510   7.724   9.153   2.869
40557SOL    HW223511   7.803   9.282   2.860
40558SOL     OW23512   7.919  12.426   9.155
40558SOL    HW123513   7.879  12.483   9.089
40558SOL    HW223514   8.005  12.466   9.172
40559SOL     OW23515   5.384  13.074  13.232
40559SOL    HW123516   5.436  12.994  13.232
40559SOL    HW223517   5.417  13.124  13.307
40560SOL     OW23518   8.688   4.571   6.308
40560SOL    HW123519   8.636   4.651   6.317
40560SOL    HW223520   8.761   4.595   6.251
40561SOL     OW23521   0.976   2.855   2.019
40561SOL    HW123522   0.948   2.868   1.928
40561SOL    HW223523   0.894   2.855   2.069
40562SOL     OW23524  11.217   7.813   3.405
40562SOL    HW123525  11.272   7.771   3.339
40562SOL    HW223526  11.202   7.901   3.371
40563SOL     OW23527   1.087  12.490  14.560
40563SOL    HW123528   1.098  12.478  14.465
40563SOL    HW223529   1.164  12.448  14.599
40564SOL     OW23530  13.906  11.941   1.693
40564SOL    HW123531  13.834  11.916   1.635
40564SOL    HW223532  13.967  11.989   1.638
40565SOL     OW23533   0.093   1.587   9.483
40565SOL    HW123534   0.155   1.527   9.523
40565SOL    HW223535   0.052   1.536   9.413
40566SOL     OW23536  13.086  10.676   2.687
40566SOL    HW123537  13.168  10.637   2.656
40566SOL    HW223538  13.113  10.760   2.724
40567SOL     OW23539  13.549   4.662   0.601
40567SOL    HW123540  13.493   4.712   0.541
40567SOL    HW223541  13.557   4.576   0.560
40568SOL     OW23542  11.411  12.538  13.896
40568SOL    HW123543  11.497  12.580  13.893
40568SOL    HW223544  11.410  12.491  13.979
40569SOL     OW23545   1.125   7.823   2.823
40569SOL    HW123546   1.105   7.823   2.916
40569SOL    HW223547   1.059   7.766   2.784
40570SOL     OW23548   2.337   4.696  14.393
40570SOL    HW123549   2.302   4.773  14.438
40570SOL    HW223550   2.270   4.673  14.329
40571SOL     OW23551  12.899  13.026   8.856
40571SOL    HW123552  12.983  13.025   8.811
40571SOL    HW223553  12.878  12.934   8.871
40572SOL     OW23554   4.426   2.040   4.242
40572SOL    HW123555   4.512   2.065   4.276
40572SOL    HW223556   4.378   2.123   4.233
40573SOL     OW23557   1.951   5.730   6.784
40573SOL    HW123558   1.967   5.804   6.725
40573SOL    HW223559   1.903   5.667   6.731
40574SOL     OW23560   7.900   6.336  10.285
40574SOL    HW123561   7.847   6.368  10.358
40574SOL    HW223562   7.835   6.304  10.221
40575SOL     OW23563   5.013  12.991   3.465
40575SOL    HW123564   4.964  13.016   3.544
40575SOL    HW223565   5.082  13.057   3.458
40576SOL     OW23566  14.326   6.637   8.136
40576SOL    HW123567  14.361   6.713   8.182
40576SOL    HW223568  14.248   6.612   8.185
40577SOL     OW23569   7.681   1.463  10.113
40577SOL    HW123570   7.608   1.401  10.113
40577SOL    HW223571   7.683   1.498  10.202
40578SOL     OW23572   3.618   1.064   6.434
40578SOL    HW123573   3.614   0.974   6.400
40578SOL    HW223574   3.627   1.118   6.355
40579SOL     OW23575   6.854  12.425   8.466
40579SOL    HW123576   6.908  12.358   8.424
40579SOL    HW223577   6.878  12.420   8.559
40580SOL     OW23578  13.647   7.346  13.320
40580SOL    HW123579  13.612   7.328  13.408
40580SOL    HW223580  13.653   7.441  13.315
40581SOL     OW23581   9.414   0.197   9.158
40581SOL    HW123582   9.346   0.183   9.092
40581SOL    HW223583   9.365   0.213   9.239
40582SOL     OW23584   1.548   3.822   2.726
40582SOL    HW123585   1.624   3.774   2.759
40582SOL    HW223586   1.581   3.873   2.653
40583SOL     OW23587  11.626   5.109   9.726
40583SOL    HW123588  11.646   5.042   9.661
40583SOL    HW223589  11.531   5.121   9.719
40584SOL     OW23590   6.127   4.944   9.877
40584SOL    HW123591   6.073   4.865   9.879
40584SOL    HW223592   6.110   4.987   9.961
40585SOL     OW23593  13.705   3.193   6.639
40585SOL    HW123594  13.733   3.137   6.710
40585SOL    HW223595  13.771   3.181   6.571
40586SOL     OW23596   3.233   5.731   1.331
40586SOL    HW123597   3.192   5.682   1.259
40586SOL    HW223598   3.204   5.821   1.318
40587SOL     OW23599  11.820   5.478  12.369
40587SOL    HW123600  11.843   5.551  12.311
40587SOL    HW223601  11.786   5.519  12.448
40588SOL     OW23602   1.861   9.475   4.050
40588SOL    HW123603   1.929   9.469   4.117
40588SOL    HW223604   1.829   9.385   4.040
40589SOL     OW23605   1.698   8.231   8.955
40589SOL    HW123606   1.621   8.273   8.917
40589SOL    HW223607   1.665   8.149   8.993
40590SOL     OW23608   0.835  12.354   0.610
40590SOL    HW123609   0.824  12.439   0.567
40590SOL    HW223610   0.756  12.305   0.589
40591SOL     OW23611   8.177  10.841   9.749
40591SOL    HW123612   8.255  10.800   9.712
40591SOL    HW223613   8.155  10.910   9.687
40592SOL     OW23614   0.764   5.434   7.955
40592SOL    HW123615   0.737   5.525   7.970
40592SOL    HW223616   0.858   5.433   7.972
40593SOL     OW23617   8.565   2.224   0.995
40593SOL    HW123618   8.522   2.270   1.067
40593SOL    HW223619   8.632   2.170   1.039
40594SOL     OW23620   0.075   3.733   7.049
40594SOL    HW123621   0.108   3.760   6.964
40594SOL    HW223622   0.094   3.639   7.053
40595SOL     OW23623   1.470   5.576   4.341
40595SOL    HW123624   1.427   5.536   4.265
40595SOL    HW223625   1.524   5.646   4.304
40596SOL     OW23626   5.362  11.398  10.051
40596SOL    HW123627   5.435  11.348  10.089
40596SOL    HW223628   5.296  11.333  10.031
40597SOL     OW23629   0.161  13.876   9.793
40597SOL    HW123630   0.180  13.879   9.887
40597SOL    HW223631   0.247  13.873   9.751
40598SOL     OW23632  10.890  14.017   1.641
40598SOL    HW123633  10.895  14.112   1.632
40598SOL    HW223634  10.943  13.984   1.568
40599SOL     OW23635  11.474   4.102   6.043
40599SOL    HW123636  11.551   4.047   6.028
40599SOL    HW223637  11.402   4.040   6.057
40600SOL     OW23638  11.019   4.167   3.408
40600SOL    HW123639  10.957   4.167   3.481
40600SOL    HW223640  11.082   4.236   3.431
40601SOL     OW23641   1.242   1.899  11.627
40601SOL    HW123642   1.168   1.919  11.685
40601SOL    HW223643   1.214   1.927  11.540
40602SOL     OW23644   7.709   3.088   4.823
40602SOL    HW123645   7.721   2.994   4.807
40602SOL    HW223646   7.706   3.095   4.919
40603SOL     OW23647   1.751  14.266   7.757
40603SOL    HW123648   1.700  14.329   7.707
40603SOL    HW223649   1.811  14.228   7.693
40604SOL     OW23650   9.544   3.865   7.087
40604SOL    HW123651   9.514   3.883   7.176
40604SOL    HW223652   9.629   3.910   7.081
40605SOL     OW23653  11.350  14.868   9.244
40605SOL    HW123654  11.297  14.844   9.320
40605SOL    HW223655  11.383  14.785   9.210
40606SOL     OW23656   7.703   9.833   4.466
40606SOL    HW123657   7.622   9.865   4.505
40606SOL    HW223658   7.769   9.898   4.489
40607SOL     OW23659  11.897   8.170  12.631
40607SOL    HW123660  11.974   8.199  12.680
40607SOL    HW223661  11.824   8.217  12.672
40608SOL     OW23662   6.383   7.402   3.198
40608SOL    HW123663   6.459   7.431   3.248
40608SOL    HW223664   6.314   7.392   3.263
40609SOL     OW23665   2.165   0.699  13.776
40609SOL    HW123666   2.121   0.614  13.785
40609SOL    HW223667   2.176   0.730  13.866
40610SOL     OW23668  10.388   6.811   7.829
40610SOL    HW123669  10.295   6.789   7.826
40610SOL    HW223670  10.433   6.730   7.807
40611SOL     OW23671   7.528  14.287   8.894
40611SOL    HW123672   7.562  14.261   8.808
40611SOL    HW223673   7.447  14.334   8.875
40612SOL     OW23674   3.353   4.946  10.745
40612SOL    HW123675   3.440   4.961  10.781
40612SOL    HW223676   3.322   5.033  10.719
40613SOL     OW23677   2.904  12.927   5.255
40613SOL    HW123678   2.871  12.858   5.313
40613SOL    HW223679   2.962  12.979   5.310
40614SOL     OW23680   3.923   7.310   3.968
40614SOL    HW123681   4.006   7.357   3.958
40614SOL    HW223682   3.932   7.263   4.051
40615SOL     OW23683   0.151  11.068   0.296
40615SOL    HW123684   0.106  10.984   0.306
40615SOL    HW223685   0.243  11.046   0.287
40616SOL     OW23686   5.991   7.150  12.825
40616SOL    HW123687   5.900   7.176  12.836
40616SOL    HW223688   5.993   7.058  12.852
40617SOL     OW23689  10.180   2.673  11.740
40617SOL    HW123690  10.252   2.736  11.748
40617SOL    HW223691  10.222   2.587  11.743
40618SOL     OW23692  10.184   3.400   1.586
40618SOL    HW123693  10.236   3.363   1.515
40618SOL    HW223694  10.242   3.397   1.662
40619SOL     OW23695  10.476   6.702   2.929
40619SOL    HW123696  10.541   6.770   2.947
40619SOL    HW223697  10.521   6.639   2.873
40620SOL     OW23698   4.511   1.722  10.274
40620SOL    HW123699   4.496   1.729  10.180
40620SOL    HW223700   4.558   1.639  10.285
40621SOL     OW23701  14.420   2.253  14.790
40621SOL    HW123702  14.330   2.259  14.821
40621SOL    HW223703  14.446   2.163  14.807
40622SOL     OW23704   4.920   6.750  12.491
40622SOL    HW123705   4.861   6.724  12.421
40622SOL    HW223706   4.923   6.845  12.486
40623SOL     OW23707  11.614   3.043   0.063
40623SOL    HW123708  11.556   3.112   0.095
40623SOL    HW223709  11.693   3.052   0.116
40624SOL     OW23710  14.062  11.809   0.532
40624SOL    HW123711  14.060  11.873   0.603
40624SOL    HW223712  14.069  11.724   0.575
40625SOL     OW23713  11.361   3.708  11.305
40625SOL    HW123714  11.346   3.614  11.294
40625SOL    HW223715  11.335   3.726  11.395
40626SOL     OW23716   9.837   7.280   4.152
40626SOL    HW123717   9.851   7.353   4.091
40626SOL    HW223718   9.830   7.322   4.238
40627SOL     OW23719   7.902   3.505  13.896
40627SOL    HW123720   7.879   3.421  13.936
40627SOL    HW223721   7.880   3.570  13.962
40628SOL     OW23722   5.715  12.935  11.587
40628SOL    HW123723   5.751  12.875  11.653
40628SOL    HW223724   5.750  12.903  11.504
40629SOL     OW23725  10.108   3.664  12.725
40629SOL    HW123726  10.041   3.710  12.674
40629SOL    HW223727  10.179   3.727  12.736
40630SOL     OW23728  11.143   1.234  10.480
40630SOL    HW123729  11.187   1.162  10.526
40630SOL    HW223730  11.158   1.311  10.535
40631SOL     OW23731   1.034  10.711   0.034
40631SOL    HW123732   0.994  10.783  14.858
40631SOL    HW223733   0.971  10.639   0.028
40632SOL     OW23734   7.274  14.341  12.235
40632SOL    HW123735   7.365  14.368  12.221
40632SOL    HW223736   7.272  14.315  12.327
40633SOL     OW23737   9.135  11.526   3.583
40633SOL    HW123738   9.116  11.513   3.675
40633SOL    HW223739   9.053  11.502   3.538
40634SOL     OW23740   8.871   6.314   9.391
40634SOL    HW123741   8.906   6.402   9.373
40634SOL    HW223742   8.793   6.330   9.444
40635SOL     OW23743   9.181   0.682   2.983
40635SOL    HW123744   9.230   0.751   3.028
40635SOL    HW223745   9.158   0.620   3.051
40636SOL     OW23746   5.936   5.158   1.926
40636SOL    HW123747   5.909   5.248   1.945
40636SOL    HW223748   5.854   5.111   1.911
40637SOL     OW23749   2.488   3.805   4.667
40637SOL    HW123750   2.496   3.745   4.592
40637SOL    HW223751   2.457   3.887   4.630
40638SOL     OW23752   2.651   3.561  12.457
40638SOL    HW123753   2.735   3.547  12.503
40638SOL    HW223754   2.592   3.592  12.525
40639SOL     OW23755   5.913   1.912  13.168
40639SOL    HW123756   5.836   1.947  13.212
40639SOL    HW223757   5.949   1.849  13.231
40640SOL     OW23758   8.001   0.872  11.597
40640SOL    HW123759   8.062   0.842  11.665
40640SOL    HW223760   8.033   0.830  11.517
40641SOL     OW23761   3.293  13.128   2.521
40641SOL    HW123762   3.198  13.114   2.525
40641SOL    HW223763   3.323  13.066   2.455
40642SOL     OW23764  14.659  10.927   4.766
40642SOL    HW123765  14.723  10.996   4.749
40642SOL    HW223766  14.605  10.925   4.686
40643SOL     OW23767   6.623  14.342   3.682
40643SOL    HW123768   6.685  14.409   3.651
40643SOL    HW223769   6.568  14.388   3.745
40644SOL     OW23770   2.523   1.961   0.732
40644SOL    HW123771   2.496   2.045   0.695
40644SOL    HW223772   2.600   1.983   0.786
40645SOL     OW23773   8.697   1.329  14.225
40645SOL    HW123774   8.702   1.414  14.182
40645SOL    HW223775   8.756   1.273  14.175
40646SOL     OW23776   9.386  10.771   5.287
40646SOL    HW123777   9.382  10.710   5.360
40646SOL    HW223778   9.422  10.852   5.324
40647SOL     OW23779   5.472  12.093   9.275
40647SOL    HW123780   5.508  12.182   9.268
40647SOL    HW223781   5.449  12.070   9.185
40648SOL     OW23782   2.507  12.533  10.731
40648SOL    HW123783   2.445  12.520  10.804
40648SOL    HW223784   2.548  12.448  10.719
40649SOL     OW23785   5.428   4.581   0.312
40649SOL    HW123786   5.361   4.513   0.319
40649SOL    HW223787   5.394   4.641   0.246
40650SOL     OW23788  11.487   3.751  10.412
40650SOL    HW123789  11.440   3.693  10.353
40650SOL    HW223790  11.466   3.718  10.500
40651SOL     OW23791   3.652   0.624  13.789
40651SOL    HW123792   3.641   0.567  13.713
40651SOL    HW223793   3.746   0.640  13.794
40652SOL     OW23794   9.076   9.940   2.511
40652SOL    HW123795   9.000   9.997   2.509
40652SOL    HW223796   9.105   9.942   2.603
40653SOL     OW23797   9.694   6.524   5.035
40653SOL    HW123798   9.726   6.435   5.050
40653SOL    HW223799   9.746   6.578   5.094
40654SOL     OW23800   7.554  14.658   1.415
40654SOL    HW123801   7.475  14.613   1.385
40654SOL    HW223802   7.617  14.646   1.344
40655SOL     OW23803   5.584  14.542   8.437
40655SOL    HW123804   5.656  14.515   8.494
40655SOL    HW223805   5.625  14.559   8.352
40656SOL     OW23806   6.656  12.669  11.708
40656SOL    HW123807   6.660  12.764  11.709
40656SOL    HW223808   6.680  12.644  11.619
40657SOL     OW23809   5.800  13.269   4.968
40657SOL    HW123810   5.822  13.177   4.950
40657SOL    HW223811   5.884  13.312   4.982
40658SOL     OW23812   4.904   8.351  14.563
40658SOL    HW123813   4.884   8.432  14.517
40658SOL    HW223814   4.826   8.296  14.551
40659SOL     OW23815   5.899   1.908   7.740
40659SOL    HW123816   5.804   1.902   7.744
40659SOL    HW223817   5.927   1.825   7.701
40660SOL     OW23818  12.504   3.544   8.059
40660SOL    HW123819  12.460   3.502   7.985
40660SOL    HW223820  12.452   3.518   8.135
40661SOL     OW23821  13.796  14.294  10.166
40661SOL    HW123822  13.735  14.318  10.235
40661SOL    HW223823  13.846  14.374  10.148
40662SOL     OW23824   8.108  12.164   6.853
40662SOL    HW123825   8.059  12.093   6.895
40662SOL    HW223826   8.064  12.244   6.881
40663SOL     OW23827  12.362   3.808  11.062
40663SOL    HW123828  12.307   3.846  11.132
40663SOL    HW223829  12.416   3.881  11.032
40664SOL     OW23830  11.253  11.218  10.889
40664SOL    HW123831  11.300  11.299  10.908
40664SOL    HW223832  11.275  11.197  10.798
40665SOL     OW23833  10.970   7.990   8.563
40665SOL    HW123834  10.934   7.905   8.589
40665SOL    HW223835  11.034   8.011   8.631
40666SOL     OW23836   5.617  11.389   4.747
40666SOL    HW123837   5.708  11.393   4.715
40666SOL    HW223838   5.580  11.314   4.701
40667SOL     OW23839   5.023   9.372   3.099
40667SOL    HW123840   5.102   9.320   3.110
40667SOL    HW223841   5.024   9.435   3.171
40668SOL     OW23842   8.181   4.410   4.133
40668SOL    HW123843   8.114   4.344   4.150
40668SOL    HW223844   8.180   4.465   4.211
40669SOL     OW23845   6.316   5.222   6.006
40669SOL    HW123846   6.300   5.128   6.000
40669SOL    HW223847   6.379   5.240   5.935
40670SOL     OW23848  12.579   1.749   0.352
40670SOL    HW123849  12.624   1.740   0.268
40670SOL    HW223850  12.553   1.660   0.375
40671SOL     OW23851   1.362   5.300  13.909
40671SOL    HW123852   1.364   5.389  13.942
40671SOL    HW223853   1.423   5.252  13.964
40672SOL     OW23854   5.664  11.679   6.499
40672SOL    HW123855   5.619  11.600   6.470
40672SOL    HW223856   5.747  11.648   6.535
40673SOL     OW23857   1.442   2.906   5.778
40673SOL    HW123858   1.477   2.972   5.838
40673SOL    HW223859   1.509   2.838   5.775
40674SOL     OW23860   6.542  12.569   9.019
40674SOL    HW123861   6.578  12.524   8.943
40674SOL    HW223862   6.448  12.555   9.013
40675SOL     OW23863  13.363  14.710   4.936
40675SOL    HW123864  13.351  14.676   5.025
40675SOL    HW223865  13.344  14.803   4.943
40676SOL     OW23866   3.583   7.109   6.833
40676SOL    HW123867   3.556   7.176   6.896
40676SOL    HW223868   3.607   7.159   6.755
40677SOL     OW23869   4.104   6.398   6.344
40677SOL    HW123870   4.191   6.387   6.305
40677SOL    HW223871   4.063   6.312   6.338
40678SOL     OW23872  13.366  12.417   7.753
40678SOL    HW123873  13.412  12.494   7.786
40678SOL    HW223874  13.349  12.365   7.831
40679SOL     OW23875  12.722  11.362   3.597
40679SOL    HW123876  12.728  11.270   3.572
40679SOL    HW223877  12.669  11.363   3.676
40680SOL     OW23878   1.771   2.851   3.721
40680SOL    HW123879   1.747   2.901   3.799
40680SOL    HW223880   1.865   2.837   3.730
40681SOL     OW23881   7.480  12.371  12.741
40681SOL    HW123882   7.467  12.422  12.820
40681SOL    HW223883   7.569  12.337  12.748
40682SOL     OW23884  10.250  12.662   5.437
40682SOL    HW123885  10.177  12.600   5.440
40682SOL    HW223886  10.306  12.636   5.511
40683SOL     OW23887  11.858  12.317   3.422
40683SOL    HW123888  11.836  12.308   3.329
40683SOL    HW223889  11.780  12.356   3.462
40684SOL     OW23890  10.739   6.156   1.831
40684SOL    HW123891  10.827   6.139   1.799
40684SOL    HW223892  10.696   6.205   1.761
40685SOL     OW23893  12.391   3.794   5.209
40685SOL    HW123894  12.365   3.732   5.141
40685SOL    HW223895  12.463   3.751   5.255
40686SOL     OW23896   7.288   3.969   6.730
40686SOL    HW123897   7.228   3.949   6.801
40686SOL    HW223898   7.232   3.989   6.655
40687SOL     OW23899   9.659   5.544   6.075
40687SOL    HW123900   9.630   5.454   6.061
40687SOL    HW223901   9.751   5.545   6.048
40688SOL     OW23902   9.307   5.386  11.267
40688SOL    HW123903   9.283   5.294  11.261
40688SOL    HW223904   9.403   5.386  11.274
40689SOL     OW23905   6.304  10.221  10.854
40689SOL    HW123906   6.393  10.209  10.886
40689SOL    HW223907   6.268  10.133  10.848
40690SOL     OW23908   9.926   4.561  14.012
40690SOL    HW123909   9.996   4.595  14.068
40690SOL    HW223910   9.937   4.608  13.929
40691SOL     OW23911  12.575   8.001   5.472
40691SOL    HW123912  12.582   8.096   5.482
40691SOL    HW223913  12.549   7.987   5.381
40692SOL     OW23914  11.013   6.759  11.102
40692SOL    HW123915  11.034   6.742  11.194
40692SOL    HW223916  11.028   6.853  11.090
40693SOL     OW23917   0.240   4.216   8.734
40693SOL    HW123918   0.191   4.188   8.657
40693SOL    HW223919   0.181   4.276   8.780
40694SOL     OW23920   9.601  10.066   8.822
40694SOL    HW123921   9.598  10.050   8.728
40694SOL    HW223922   9.607  10.162   8.830
40695SOL     OW23923   9.417   2.617   7.426
40695SOL    HW123924   9.446   2.532   7.391
40695SOL    HW223925   9.401   2.600   7.519
40696SOL     OW23926   7.685  12.173   2.054
40696SOL    HW123927   7.743  12.227   2.106
40696SOL    HW223928   7.678  12.219   1.970
40697SOL     OW23929   6.260  12.949   5.022
40697SOL    HW123930   6.331  12.897   5.059
40697SOL    HW223931   6.184  12.931   5.078
40698SOL     OW23932   3.237   7.101   7.687
40698SOL    HW123933   3.227   7.014   7.647
40698SOL    HW223934   3.287   7.151   7.623
40699SOL     OW23935   4.537   4.545  13.533
40699SOL    HW123936   4.570   4.458  13.554
40699SOL    HW223937   4.525   4.587  13.619
40700SOL     OW23938  11.157  11.172   2.577
40700SOL    HW123939  11.230  11.167   2.515
40700SOL    HW223940  11.166  11.258   2.618
40701SOL     OW23941   9.256  11.458   7.047
40701SOL    HW123942   9.204  11.379   7.031
40701SOL    HW223943   9.346  11.427   7.053
40702SOL     OW23944  11.691   5.265   2.769
40702SOL    HW123945  11.676   5.293   2.859
40702SOL    HW223946  11.702   5.171   2.774
40703SOL     OW23947   5.666   9.289   0.841
40703SOL    HW123948   5.677   9.207   0.793
40703SOL    HW223949   5.755   9.314   0.866
40704SOL     OW23950   4.304  12.601  10.367
40704SOL    HW123951   4.225  12.645  10.399
40704SOL    HW223952   4.358  12.589  10.445
40705SOL     OW23953   7.406   9.258   0.428
40705SOL    HW123954   7.396   9.263   0.333
40705SOL    HW223955   7.349   9.326   0.462
40706SOL     OW23956   7.760   1.825   0.219
40706SOL    HW123957   7.800   1.756   0.273
40706SOL    HW223958   7.666   1.814   0.232
40707SOL     OW23959   4.681   7.171   2.358
40707SOL    HW123960   4.737   7.231   2.309
40707SOL    HW223961   4.659   7.101   2.296
40708SOL     OW23962   1.958   0.007   1.189
40708SOL    HW123963   1.984  14.793   1.216
40708SOL    HW223964   1.920  14.869   1.101
40709SOL     OW23965  10.513   0.732   0.720
40709SOL    HW123966  10.503   0.754   0.628
40709SOL    HW223967  10.596   0.773   0.746
40710SOL     OW23968   7.879   7.704  12.799
40710SOL    HW123969   7.957   7.672  12.754
40710SOL    HW223970   7.852   7.631  12.855
40711SOL     OW23971   1.374   8.379   1.631
40711SOL    HW123972   1.379   8.429   1.549
40711SOL    HW223973   1.294   8.328   1.622
40712SOL     OW23974  11.014   6.894   3.274
40712SOL    HW123975  10.990   6.896   3.182
40712SOL    HW223976  10.934   6.915   3.321
40713SOL     OW23977  14.217   9.854   7.594
40713SOL    HW123978  14.149   9.918   7.618
40713SOL    HW223979  14.200   9.779   7.651
40714SOL     OW23980   0.984  11.412   2.491
40714SOL    HW123981   1.010  11.457   2.411
40714SOL    HW223982   0.990  11.480   2.559
40715SOL     OW23983   2.644   8.555   0.362
40715SOL    HW123984   2.736   8.545   0.384
40715SOL    HW223985   2.603   8.588   0.443
40716SOL     OW23986   6.465   8.207   4.141
40716SOL    HW123987   6.541   8.155   4.113
40716SOL    HW223988   6.433   8.161   4.219
40717SOL     OW23989  13.644  12.102   4.666
40717SOL    HW123990  13.600  12.123   4.748
40717SOL    HW223991  13.603  12.021   4.637
40718SOL     OW23992  14.698   7.477   7.927
40718SOL    HW123993  14.787   7.493   7.960
40718SOL    HW223994  14.654   7.561   7.935
40719SOL     OW23995   6.619  13.340   5.324
40719SOL    HW123996   6.570  13.362   5.404
40719SOL    HW223997   6.597  13.411   5.263
40720SOL     OW23998  14.041   1.748  13.335
40720SOL    HW123999  14.031   1.843  13.331
40720SOL    HW224000  14.052   1.721  13.244
40721SOL     OW24001  14.109  11.340   3.731
40721SOL    HW124002  14.087  11.282   3.804
40721SOL    HW224003  14.203  11.329   3.720
40722SOL     OW24004   9.904   7.219   0.983
40722SOL    HW124005   9.829   7.182   0.936
40722SOL    HW224006   9.868   7.291   1.033
40723SOL     OW24007  13.594  11.021   1.544
40723SOL    HW124008  13.591  11.003   1.450
40723SOL    HW224009  13.527  11.087   1.558
40724SOL     OW24010   6.626   0.655   2.200
40724SOL    HW124011   6.592   0.681   2.286
40724SOL    HW224012   6.707   0.705   2.191
40725SOL     OW24013   0.408   7.040   7.200
40725SOL    HW124014   0.372   7.122   7.166
40725SOL    HW224015   0.486   7.025   7.148
40726SOL     OW24016  10.255   5.529   5.411
40726SOL    HW124017  10.299   5.609   5.383
40726SOL    HW224018  10.271   5.525   5.506
40727SOL     OW24019  13.837  10.082   5.811
40727SOL    HW124020  13.894  10.123   5.876
40727SOL    HW224021  13.860   9.989   5.813
40728SOL     OW24022   6.180   5.922  12.573
40728SOL    HW124023   6.127   5.992  12.535
40728SOL    HW224024   6.124   5.844  12.568
40729SOL     OW24025   8.703   8.418  13.071
40729SOL    HW124026   8.652   8.346  13.035
40729SOL    HW224027   8.747   8.380  13.148
40730SOL     OW24028   8.129   2.024  13.631
40730SOL    HW124029   8.058   2.066  13.679
40730SOL    HW224030   8.085   1.972  13.564
40731SOL     OW24031   0.152   9.107   4.529
40731SOL    HW124032   0.170   9.018   4.500
40731SOL    HW224033   0.203   9.162   4.469
40732SOL     OW24034   0.859  10.556  12.394
40732SOL    HW124035   0.861  10.543  12.489
40732SOL    HW224036   0.825  10.473  12.360
40733SOL     OW24037   3.485   1.707   4.523
40733SOL    HW124038   3.554   1.763   4.489
40733SOL    HW224039   3.445   1.668   4.445
40734SOL     OW24040   4.923   7.193   9.743
40734SOL    HW124041   4.873   7.131   9.794
40734SOL    HW224042   5.015   7.174   9.764
40735SOL     OW24043   6.352   7.150   6.797
40735SOL    HW124044   6.270   7.179   6.757
40735SOL    HW224045   6.420   7.191   6.745
40736SOL     OW24046   1.714  11.242  14.132
40736SOL    HW124047   1.807  11.246  14.151
40736SOL    HW224048   1.709  11.242  14.036
40737SOL     OW24049  13.140   6.809   3.369
40737SOL    HW124050  13.215   6.774   3.321
40737SOL    HW224051  13.152   6.904   3.365
40738SOL     OW24052  10.528   1.175  13.067
40738SOL    HW124053  10.600   1.195  13.007
40738SOL    HW224054  10.548   1.227  13.145
40739SOL     OW24055   1.039  11.438   7.653
40739SOL    HW124056   1.046  11.343   7.660
40739SOL    HW224057   1.081  11.459   7.570
40740SOL     OW24058   0.823   0.243   4.658
40740SOL    HW124059   0.863   0.182   4.721
40740SOL    HW224060   0.885   0.245   4.585
40741SOL     OW24061  11.655   7.286   3.393
40741SOL    HW124062  11.656   7.210   3.452
40741SOL    HW224063  11.708   7.258   3.318
40742SOL     OW24064   8.935   3.519   3.992
40742SOL    HW124065   8.948   3.570   4.072
40742SOL    HW224066   8.858   3.558   3.950
40743SOL     OW24067  11.986   2.271   9.595
40743SOL    HW124068  12.007   2.321   9.675
40743SOL    HW224069  11.904   2.309   9.565
40744SOL     OW24070  14.010   4.684   5.589
40744SOL    HW124071  14.005   4.698   5.494
40744SOL    HW224072  13.988   4.768   5.627
40745SOL     OW24073   8.613  12.144   4.521
40745SOL    HW124074   8.538  12.203   4.527
40745SOL    HW224075   8.623  12.128   4.427
40746SOL     OW24076   6.806  13.337   6.571
40746SOL    HW124077   6.855  13.256   6.586
40746SOL    HW224078   6.810  13.351   6.477
40747SOL     OW24079   8.453   9.060   4.540
40747SOL    HW124080   8.392   9.104   4.480
40747SOL    HW224081   8.473   8.978   4.496
40748SOL     OW24082   3.821   2.881   4.325
40748SOL    HW124083   3.902   2.836   4.347
40748SOL    HW224084   3.840   2.974   4.343
40749SOL     OW24085   6.654  11.883  12.934
40749SOL    HW124086   6.628  11.956  12.990
40749SOL    HW224087   6.572  11.840  12.910
40750SOL     OW24088   2.719  10.411  14.715
40750SOL    HW124089   2.727  10.385  14.623
40750SOL    HW224090   2.690  10.502  14.711
40751SOL     OW24091   9.915  14.126   9.258
40751SOL    HW124092   9.967  14.205   9.273
40751SOL    HW224093   9.888  14.132   9.166
40752SOL     OW24094  13.729   8.100   7.587
40752SOL    HW124095  13.683   8.145   7.516
40752SOL    HW224096  13.819   8.132   7.582
40753SOL     OW24097   5.112   1.680  12.654
40753SOL    HW124098   5.183   1.674  12.718
40753SOL    HW224099   5.153   1.716  12.575
40754SOL     OW24100   2.445   8.556   8.463
40754SOL    HW124101   2.437   8.630   8.524
40754SOL    HW224102   2.366   8.561   8.409
40755SOL     OW24103  14.488  11.934   6.724
40755SOL    HW124104  14.493  11.898   6.813
40755SOL    HW224105  14.405  11.981   6.722
40756SOL     OW24106  10.916  14.129   9.031
40756SOL    HW124107  10.919  14.112   8.936
40756SOL    HW224108  10.824  14.120   9.054
40757SOL     OW24109  10.313  10.932   6.839
40757SOL    HW124110  10.367  10.859   6.808
40757SOL    HW224111  10.287  10.907   6.928
40758SOL     OW24112  12.827   7.722   7.646
40758SOL    HW124113  12.905   7.736   7.592
40758SOL    HW224114  12.854   7.750   7.734
40759SOL     OW24115   9.643   4.136   7.444
40759SOL    HW124116   9.707   4.066   7.430
40759SOL    HW224117   9.662   4.168   7.532
40760SOL     OW24118   3.387   3.777   8.084
40760SOL    HW124119   3.366   3.809   7.997
40760SOL    HW224120   3.480   3.799   8.096
40761SOL     OW24121   0.244  14.503   3.701
40761SOL    HW124122   0.271  14.566   3.634
40761SOL    HW224123   0.171  14.456   3.662
40762SOL     OW24124   2.350  14.436   4.356
40762SOL    HW124125   2.303  14.475   4.429
40762SOL    HW224126   2.340  14.499   4.285
40763SOL     OW24127   4.374  13.565   9.790
40763SOL    HW124128   4.357  13.478   9.825
40763SOL    HW224129   4.380  13.621   9.868
40764SOL     OW24130  11.537  11.606   1.005
40764SOL    HW124131  11.537  11.656   1.086
40764SOL    HW224132  11.508  11.669   0.939
40765SOL     OW24133  10.267   9.812   2.552
40765SOL    HW124134  10.178   9.841   2.535
40765SOL    HW224135  10.295   9.861   2.629
40766SOL     OW24136   9.293  12.837  10.657
40766SOL    HW124137   9.290  12.862  10.749
40766SOL    HW224138   9.263  12.746  10.656
40767SOL     OW24139   7.295  10.828  11.252
40767SOL    HW124140   7.376  10.867  11.282
40767SOL    HW224141   7.226  10.874  11.300
40768SOL     OW24142   1.132  11.793   5.585
40768SOL    HW124143   1.154  11.704   5.556
40768SOL    HW224144   1.102  11.781   5.675
40769SOL     OW24145   7.741   6.868   6.815
40769SOL    HW124146   7.767   6.903   6.730
40769SOL    HW224147   7.794   6.918   6.878
40770SOL     OW24148   8.721  12.318   4.118
40770SOL    HW124149   8.685  12.244   4.167
40770SOL    HW224150   8.645  12.372   4.096
40771SOL     OW24151   3.996   9.418  10.239
40771SOL    HW124152   3.914   9.446  10.279
40771SOL    HW224153   4.024   9.494  10.187
40772SOL     OW24154   2.518   4.535   6.214
40772SOL    HW124155   2.451   4.573   6.271
40772SOL    HW224156   2.506   4.441   6.222
40773SOL     OW24157  11.696  10.633  10.328
40773SOL    HW124158  11.642  10.711  10.338
40773SOL    HW224159  11.748  10.629  10.408
40774SOL     OW24160   9.844   5.992  10.088
40774SOL    HW124161   9.845   5.928  10.017
40774SOL    HW224162   9.829   5.941  10.167
40775SOL     OW24163   8.558  14.745   9.735
40775SOL    HW124164   8.502  14.786   9.668
40775SOL    HW224165   8.500  14.733   9.810
40776SOL     OW24166  13.613  14.266   3.320
40776SOL    HW124167  13.692  14.318   3.335
40776SOL    HW224168  13.622  14.191   3.379
40777SOL     OW24169   0.523   6.777  13.146
40777SOL    HW124170   0.583   6.757  13.218
40777SOL    HW224171   0.534   6.871  13.132
40778SOL     OW24172  13.351  12.947  14.458
40778SOL    HW124173  13.332  12.958  14.364
40778SOL    HW224174  13.281  12.994  14.502
40779SOL     OW24175   6.134   1.860   4.028
40779SOL    HW124176   6.155   1.841   3.937
40779SOL    HW224177   6.104   1.776   4.064
40780SOL     OW24178  11.589   9.026   7.585
40780SOL    HW124179  11.530   8.991   7.652
40780SOL    HW224180  11.571   8.974   7.507
40781SOL     OW24181  12.705  11.648   7.708
40781SOL    HW124182  12.644  11.721   7.697
40781SOL    HW224183  12.649  11.571   7.721
40782SOL     OW24184   5.148   0.112  14.326
40782SOL    HW124185   5.227   0.166  14.324
40782SOL    HW224186   5.111   0.121  14.238
40783SOL     OW24187   6.818   9.553   7.688
40783SOL    HW124188   6.757   9.497   7.639
40783SOL    HW224189   6.892   9.565   7.629
40784SOL     OW24190   3.781   9.646  10.242
40784SOL    HW124191   3.721   9.703  10.289
40784SOL    HW224192   3.762   9.663  10.149
40785SOL     OW24193  14.056   5.759   8.306
40785SOL    HW124194  14.129   5.817   8.324
40785SOL    HW224195  13.980   5.805   8.341
40786SOL     OW24196   3.013   6.058   2.046
40786SOL    HW124197   3.030   6.009   1.966
40786SOL    HW224198   2.922   6.038   2.068
40787SOL     OW24199   5.424   1.830  11.211
40787SOL    HW124200   5.449   1.885  11.285
40787SOL    HW224201   5.487   1.852  11.142
40788SOL     OW24202   3.576   7.884  10.404
40788SOL    HW124203   3.583   7.951  10.336
40788SOL    HW224204   3.635   7.914  10.473
40789SOL     OW24205   9.988  10.696   1.431
40789SOL    HW124206   9.908  10.748   1.422
40789SOL    HW224207   9.975  10.621   1.373
40790SOL     OW24208  11.974   5.203   5.277
40790SOL    HW124209  11.908   5.266   5.306
40790SOL    HW224210  12.022   5.179   5.356
40791SOL     OW24211   7.195   9.099  14.460
40791SOL    HW124212   7.253   9.034  14.420
40791SOL    HW224213   7.125   9.047  14.500
40792SOL     OW24214   1.110   5.902   9.015
40792SOL    HW124215   1.046   5.886   8.945
40792SOL    HW224216   1.074   5.975   9.065
40793SOL     OW24217   2.731   5.057   4.230
40793SOL    HW124218   2.697   5.124   4.171
40793SOL    HW224219   2.752   4.983   4.174
40794SOL     OW24220   5.196   3.611   7.624
40794SOL    HW124221   5.283   3.648   7.642
40794SOL    HW224222   5.170   3.570   7.706
40795SOL     OW24223   5.505   3.414   8.573
40795SOL    HW124224   5.454   3.334   8.561
40795SOL    HW224225   5.450   3.470   8.629
40796SOL     OW24226  12.212  11.123  14.099
40796SOL    HW124227  12.195  11.200  14.151
40796SOL    HW224228  12.184  11.049  14.154
40797SOL     OW24229   8.108  14.732   4.908
40797SOL    HW124230   8.101  14.739   5.003
40797SOL    HW224231   8.019  14.714   4.878
40798SOL     OW24232  11.075  13.105   8.193
40798SOL    HW124233  11.076  13.141   8.104
40798SOL    HW224234  10.984  13.079   8.207
40799SOL     OW24235   2.047   0.272   8.536
40799SOL    HW124236   2.011   0.239   8.454
40799SOL    HW224237   1.985   0.243   8.603
40800SOL     OW24238  11.409   2.019  10.633
40800SOL    HW124239  11.406   1.982  10.545
40800SOL    HW224240  11.379   2.109  10.623
40801SOL     OW24241  14.335   2.094   2.706
40801SOL    HW124242  14.387   2.125   2.632
40801SOL    HW224243  14.264   2.043   2.666
40802SOL     OW24244   6.835   0.754   1.046
40802SOL    HW124245   6.756   0.808   1.051
40802SOL    HW224246   6.824   0.688   1.114
40803SOL     OW24247   5.053   8.298  14.289
40803SOL    HW124248   4.965   8.323  14.260
40803SOL    HW224249   5.046   8.205  14.310
40804SOL     OW24250  14.842   1.822   0.496
40804SOL    HW124251  14.812   1.912   0.510
40804SOL    HW224252   0.042   1.812   0.557
40805SOL     OW24253   0.733   8.383   4.480
40805SOL    HW124254   0.754   8.432   4.400
40805SOL    HW224255   0.817   8.360   4.517
40806SOL     OW24256  10.417  14.786   6.826
40806SOL    HW124257  10.335  14.749   6.859
40806SOL    HW224258  10.417  14.764   6.732
40807SOL     OW24259   5.999   3.787   1.730
40807SOL    HW124260   6.070   3.851   1.731
40807SOL    HW224261   5.943   3.815   1.658
40808SOL     OW24262   6.475   7.277   5.322
40808SOL    HW124263   6.441   7.324   5.246
40808SOL    HW224264   6.440   7.325   5.397
40809SOL     OW24265   9.667   5.883   9.540
40809SOL    HW124266   9.591   5.832   9.570
40809SOL    HW224267   9.668   5.959   9.598
40810SOL     OW24268  11.209  11.538  11.306
40810SOL    HW124269  11.260  11.565  11.382
40810SOL    HW224270  11.259  11.466  11.269
40811SOL     OW24271   0.788   1.455   3.873
40811SOL    HW124272   0.817   1.365   3.857
40811SOL    HW224273   0.847   1.510   3.821
40812SOL     OW24274  12.995   5.417   9.561
40812SOL    HW124275  13.054   5.439   9.488
40812SOL    HW224276  12.982   5.323   9.554
40813SOL     OW24277   3.166   6.072   2.588
40813SOL    HW124278   3.213   5.991   2.573
40813SOL    HW224279   3.090   6.067   2.529
40814SOL     OW24280  10.072   1.835   4.991
40814SOL    HW124281  10.007   1.874   5.050
40814SOL    HW224282  10.088   1.748   5.028
40815SOL     OW24283  13.489   4.141   0.671
40815SOL    HW124284  13.413   4.194   0.651
40815SOL    HW224285  13.528   4.120   0.586
40816SOL     OW24286  13.175   6.506  14.481
40816SOL    HW124287  13.263   6.483  14.452
40816SOL    HW224288  13.125   6.515  14.399
40817SOL     OW24289   0.996  14.254   6.837
40817SOL    HW124290   1.038  14.327   6.882
40817SOL    HW224291   1.053  14.236   6.762
40818SOL     OW24292  10.120   3.949   7.076
40818SOL    HW124293  10.124   3.855   7.057
40818SOL    HW224294  10.141   3.956   7.169
40819SOL     OW24295   3.109  13.044   3.371
40819SOL    HW124296   3.123  13.102   3.296
40819SOL    HW224297   3.065  13.098   3.436
40820SOL     OW24298   2.573   4.652   1.654
40820SOL    HW124299   2.651   4.599   1.637
40820SOL    HW224300   2.503   4.608   1.606
40821SOL     OW24301  11.144   3.331  13.499
40821SOL    HW124302  11.121   3.244  13.530
40821SOL    HW224303  11.082   3.348  13.428
40822SOL     OW24304  11.411  12.819   6.819
40822SOL    HW124305  11.379  12.853   6.735
40822SOL    HW224306  11.341  12.842   6.881
40823SOL     OW24307   9.902   5.061   5.092
40823SOL    HW124308   9.923   4.976   5.053
40823SOL    HW224309   9.809   5.053   5.116
40824SOL     OW24310   4.661  12.945  12.180
40824SOL    HW124311   4.741  12.935  12.232
40824SOL    HW224312   4.606  13.003  12.233
40825SOL     OW24313   4.271  13.110  10.720
40825SOL    HW124314   4.361  13.130  10.696
40825SOL    HW224315   4.227  13.194  10.724
40826SOL     OW24316   9.562  14.039  13.610
40826SOL    HW124317   9.602  14.016  13.526
40826SOL    HW224318   9.478  14.079  13.586
40827SOL     OW24319   3.633   6.176   2.777
40827SOL    HW124320   3.584   6.160   2.858
40827SOL    HW224321   3.566   6.195   2.712
40828SOL     OW24322   1.016   1.079   7.133
40828SOL    HW124323   1.014   1.087   7.228
40828SOL    HW224324   0.940   1.024   7.112
40829SOL     OW24325  12.630  12.386   2.746
40829SOL    HW124326  12.624  12.412   2.654
40829SOL    HW224327  12.590  12.299   2.749
40830SOL     OW24328   6.668   5.755   5.046
40830SOL    HW124329   6.726   5.764   4.971
40830SOL    HW224330   6.719   5.705   5.110
40831SOL     OW24331   0.811  11.428   5.320
40831SOL    HW124332   0.831  11.471   5.403
40831SOL    HW224333   0.876  11.358   5.313
40832SOL     OW24334  13.108   5.316  12.565
40832SOL    HW124335  13.044   5.294  12.497
40832SOL    HW224336  13.063   5.379  12.621
40833SOL     OW24337   6.611   8.382   3.105
40833SOL    HW124338   6.596   8.446   3.036
40833SOL    HW224339   6.614   8.433   3.186
40834SOL     OW24340   1.631   5.630  11.509
40834SOL    HW124341   1.665   5.717  11.487
40834SOL    HW224342   1.697   5.594  11.569
40835SOL     OW24343   0.592   2.418   0.895
40835SOL    HW124344   0.620   2.371   0.973
40835SOL    HW224345   0.667   2.412   0.835
40836SOL     OW24346  10.112   1.793   1.879
40836SOL    HW124347  10.102   1.794   1.974
40836SOL    HW224348  10.103   1.884   1.852
40837SOL     OW24349   3.551   8.053   0.705
40837SOL    HW124350   3.613   8.124   0.722
40837SOL    HW224351   3.469   8.097   0.682
40838SOL     OW24352   0.301   5.627  14.280
40838SOL    HW124353   0.236   5.592  14.341
40838SOL    HW224354   0.381   5.578  14.298
40839SOL     OW24355   8.527  13.232  11.791
40839SOL    HW124356   8.485  13.297  11.736
40839SOL    HW224357   8.455  13.182  11.829
40840SOL     OW24358   4.827  13.771   0.619
40840SOL    HW124359   4.811  13.859   0.587
40840SOL    HW224360   4.904  13.779   0.675
40841SOL     OW24361   2.226   9.257   3.971
40841SOL    HW124362   2.166   9.243   3.898
40841SOL    HW224363   2.287   9.324   3.939
40842SOL     OW24364   5.683   5.467   5.849
40842SOL    HW124365   5.703   5.398   5.911
40842SOL    HW224366   5.615   5.431   5.794
40843SOL     OW24367  11.988   6.328  12.290
40843SOL    HW124368  11.925   6.361  12.353
40843SOL    HW224369  11.935   6.283  12.224
40844SOL     OW24370   5.233  11.109   4.859
40844SOL    HW124371   5.249  11.179   4.922
40844SOL    HW224372   5.142  11.083   4.875
40845SOL     OW24373   3.289   1.651   1.554
40845SOL    HW124374   3.307   1.682   1.465
40845SOL    HW224375   3.290   1.556   1.547
40846SOL     OW24376   1.993   1.330  12.877
40846SOL    HW124377   1.901   1.305  12.875
40846SOL    HW224378   1.992   1.425  12.874
40847SOL     OW24379  11.303  10.629   0.784
40847SOL    HW124380  11.274  10.540   0.804
40847SOL    HW224381  11.244  10.658   0.715
40848SOL     OW24382   7.695  11.001   0.475
40848SOL    HW124383   7.653  10.929   0.428
40848SOL    HW224384   7.662  10.994   0.564
40849SOL     OW24385   4.750   2.914   5.211
40849SOL    HW124386   4.712   2.985   5.263
40849SOL    HW224387   4.698   2.913   5.131
40850SOL     OW24388   5.749   4.172  11.535
40850SOL    HW124389   5.759   4.092  11.586
40850SOL    HW224390   5.691   4.227  11.586
40851SOL     OW24391   9.311  10.756  13.003
40851SOL    HW124392   9.243  10.718  13.058
40851SOL    HW224393   9.393  10.741  13.051
40852SOL     OW24394   6.151   3.143   8.260
40852SOL    HW124395   6.083   3.200   8.224
40852SOL    HW224396   6.127   3.055   8.231
40853SOL     OW24397   7.298  12.985   7.569
40853SOL    HW124398   7.351  12.911   7.599
40853SOL    HW224399   7.228  12.993   7.633
40854SOL     OW24400  13.746   0.241   8.487
40854SOL    HW124401  13.838   0.228   8.508
40854SOL    HW224402  13.698   0.192   8.554
40855SOL     OW24403   6.242  11.284   8.264
40855SOL    HW124404   6.335  11.303   8.256
40855SOL    HW224405   6.203  11.367   8.292
40856SOL     OW24406  10.598  14.860  13.156
40856SOL    HW124407  10.616  14.777  13.200
40856SOL    HW224408  10.678   0.007  13.110
40857SOL     OW24409   1.295  12.722   8.246
40857SOL    HW124410   1.211  12.733   8.201
40857SOL    HW224411   1.281  12.647   8.304
40858SOL     OW24412   7.762   6.291   5.887
40858SOL    HW124413   7.680   6.244   5.903
40858SOL    HW224414   7.808   6.237   5.823
40859SOL     OW24415   8.004   1.228   8.123
40859SOL    HW124416   8.070   1.292   8.095
40859SOL    HW224417   8.035   1.198   8.209
40860SOL     OW24418   5.131  12.313   2.117
40860SOL    HW124419   5.154  12.365   2.194
40860SOL    HW224420   5.069  12.368   2.069
40861SOL     OW24421   5.278  14.514   0.117
40861SOL    HW124422   5.270  14.595   0.067
40861SOL    HW224423   5.208  14.458   0.084
40862SOL     OW24424   4.383   7.248   9.092
40862SOL    HW124425   4.390   7.167   9.041
40862SOL    HW224426   4.446   7.236   9.164
40863SOL     OW24427  14.723   3.876   3.342
40863SOL    HW124428  14.701   3.782   3.341
40863SOL    HW224429  14.694   3.906   3.427
40864SOL     OW24430  10.444  12.120  10.976
40864SOL    HW124431  10.417  12.140  10.886
40864SOL    HW224432  10.531  12.157  10.984
40865SOL     OW24433   9.590  12.235  13.925
40865SOL    HW124434   9.547  12.150  13.915
40865SOL    HW224435   9.521  12.293  13.958
40866SOL     OW24436  14.227   0.352   8.747
40866SOL    HW124437  14.245   0.356   8.841
40866SOL    HW224438  14.275   0.426   8.710
40867SOL     OW24439   8.847   7.856   7.534
40867SOL    HW124440   8.849   7.934   7.589
40867SOL    HW224441   8.938   7.842   7.508
40868SOL     OW24442   7.312   2.945  10.996
40868SOL    HW124443   7.339   2.944  11.088
40868SOL    HW224444   7.334   3.033  10.965
40869SOL     OW24445  13.368  14.870   0.661
40869SOL    HW124446  13.428  14.853   0.589
40869SOL    HW224447  13.399  14.814   0.732
40870SOL     OW24448   6.595   9.766  10.566
40870SOL    HW124449   6.620   9.816  10.489
40870SOL    HW224450   6.617   9.675  10.543
40871SOL     OW24451   6.242  12.509  10.501
40871SOL    HW124452   6.232  12.450  10.427
40871SOL    HW224453   6.281  12.455  10.570
40872SOL     OW24454  13.675  11.719   8.919
40872SOL    HW124455  13.675  11.625   8.939
40872SOL    HW224456  13.649  11.724   8.827
40873SOL     OW24457   1.557   5.136  10.186
40873SOL    HW124458   1.623   5.111  10.122
40873SOL    HW224459   1.608   5.163  10.263
40874SOL     OW24460   9.258  14.132  12.912
40874SOL    HW124461   9.165  14.111  12.921
40874SOL    HW224462   9.261  14.200  12.844
40875SOL     OW24463   1.964  14.644   0.918
40875SOL    HW124464   2.042  14.693   0.891
40875SOL    HW224465   1.892  14.706   0.907
40876SOL     OW24466   7.656  14.740   6.158
40876SOL    HW124467   7.717  14.813   6.167
40876SOL    HW224468   7.700  14.666   6.200
40877SOL     OW24469   2.877   6.314   3.834
40877SOL    HW124470   2.783   6.321   3.821
40877SOL    HW224471   2.913   6.390   3.789
40878SOL     OW24472   2.906   7.838   9.950
40878SOL    HW124473   2.910   7.798  10.037
40878SOL    HW224474   2.868   7.925   9.965
40879SOL     OW24475  11.544   7.628   7.559
40879SOL    HW124476  11.510   7.707   7.518
40879SOL    HW224477  11.636   7.648   7.578
40880SOL     OW24478   7.663  10.154   0.646
40880SOL    HW124479   7.635  10.191   0.562
40880SOL    HW224480   7.738  10.098   0.622
40881SOL     OW24481  11.270   1.838   0.293
40881SOL    HW124482  11.242   1.825   0.384
40881SOL    HW224483  11.353   1.790   0.286
40882SOL     OW24484   6.409   5.446   3.377
40882SOL    HW124485   6.470   5.405   3.316
40882SOL    HW224486   6.357   5.374   3.412
40883SOL     OW24487  11.687  11.491   1.539
40883SOL    HW124488  11.607  11.438   1.536
40883SOL    HW224489  11.715  11.485   1.631
40884SOL     OW24490   5.588   2.220   6.520
40884SOL    HW124491   5.619   2.132   6.499
40884SOL    HW224492   5.634   2.244   6.600
40885SOL     OW24493   2.819  13.676   8.057
40885SOL    HW124494   2.738  13.709   8.097
40885SOL    HW224495   2.811  13.580   8.062
40886SOL     OW24496   9.035   8.596   2.646
40886SOL    HW124497   8.969   8.527   2.635
40886SOL    HW224498   9.108   8.568   2.592
40887SOL     OW24499  13.563  12.431   8.233
40887SOL    HW124500  13.599  12.342   8.234
40887SOL    HW224501  13.492  12.428   8.297
40888SOL     OW24502   8.807  13.429   8.198
40888SOL    HW124503   8.901  13.446   8.201
40888SOL    HW224504   8.797  13.343   8.239
40889SOL     OW24505   1.213   8.367   6.556
40889SOL    HW124506   1.155   8.432   6.595
40889SOL    HW224507   1.263   8.331   6.629
40890SOL     OW24508   2.751  14.199   8.562
40890SOL    HW124509   2.784  14.152   8.639
40890SOL    HW224510   2.779  14.290   8.576
40891SOL     OW24511  11.387   7.471  14.109
40891SOL    HW124512  11.342   7.416  14.173
40891SOL    HW224513  11.461   7.417  14.080
40892SOL     OW24514  10.384   6.934  14.193
40892SOL    HW124515  10.295   6.909  14.218
40892SOL    HW224516  10.435   6.921  14.273
40893SOL     OW24517   3.344  12.225   7.488
40893SOL    HW124518   3.310  12.154   7.434
40893SOL    HW224519   3.279  12.234   7.558
40894SOL     OW24520   3.267  13.722   0.707
40894SOL    HW124521   3.329  13.649   0.698
40894SOL    HW224522   3.181  13.682   0.693
40895SOL     OW24523  10.190   0.472   8.808
40895SOL    HW124524  10.248   0.537   8.769
40895SOL    HW224525  10.137   0.440   8.735
40896SOL     OW24526   8.542   7.895   3.938
40896SOL    HW124527   8.450   7.919   3.926
40896SOL    HW224528   8.564   7.847   3.858
40897SOL     OW24529   3.818   1.380   5.683
40897SOL    HW124530   3.748   1.417   5.628
40897SOL    HW224531   3.881   1.451   5.693
40898SOL     OW24532   4.359   3.461  12.839
40898SOL    HW124533   4.304   3.537  12.823
40898SOL    HW224534   4.444   3.498  12.863
40899SOL     OW24535  13.950  13.345   5.745
40899SOL    HW124536  13.906  13.376   5.824
40899SOL    HW224537  13.983  13.424   5.703
40900SOL     OW24538   2.500  10.531   4.901
40900SOL    HW124539   2.495  10.436   4.885
40900SOL    HW224540   2.431  10.547   4.966
40901SOL     OW24541  10.205  10.666   1.990
40901SOL    HW124542  10.209  10.761   1.999
40901SOL    HW224543  10.136  10.651   1.926
40902SOL     OW24544   7.720   7.014   3.830
40902SOL    HW124545   7.781   6.943   3.850
40902SOL    HW224546   7.740   7.082   3.894
40903SOL     OW24547   1.923   8.673   8.912
40903SOL    HW124548   1.981   8.655   8.838
40903SOL    HW224549   1.868   8.745   8.883
40904SOL     OW24550  11.897  13.871   2.205
40904SOL    HW124551  11.900  13.833   2.293
40904SOL    HW224552  11.832  13.818   2.159
40905SOL     OW24553   5.965  10.177   2.972
40905SOL    HW124554   5.952  10.256   3.025
40905SOL    HW224555   6.006  10.115   3.032
40906SOL     OW24556  12.452   9.611   1.416
40906SOL    HW124557  12.520   9.550   1.387
40906SOL    HW224558  12.401   9.629   1.337
40907SOL     OW24559   9.806  12.344  13.191
40907SOL    HW124560   9.755  12.399  13.132
40907SOL    HW224561   9.752  12.265  13.203
40908SOL     OW24562  14.413   6.657   2.909
40908SOL    HW124563  14.403   6.738   2.959
40908SOL    HW224564  14.389   6.680   2.820
40909SOL     OW24565   8.643   0.668  12.622
40909SOL    HW124566   8.671   0.649  12.712
40909SOL    HW224567   8.644   0.763  12.616
40910SOL     OW24568   0.110   2.619   7.079
40910SOL    HW124569   0.117   2.561   7.155
40910SOL    HW224570   0.161   2.576   7.011
40911SOL     OW24571   3.888  14.582   5.755
40911SOL    HW124572   3.943  14.658   5.736
40911SOL    HW224573   3.932  14.509   5.711
40912SOL     OW24574   4.556   6.133  12.447
40912SOL    HW124575   4.578   6.220  12.480
40912SOL    HW224576   4.613   6.121  12.371
40913SOL     OW24577   8.202   1.549  14.142
40913SOL    HW124578   8.141   1.524  14.212
40913SOL    HW224579   8.250   1.469  14.122
40914SOL     OW24580   6.883  12.283   1.105
40914SOL    HW124581   6.935  12.210   1.140
40914SOL    HW224582   6.813  12.295   1.170
40915SOL     OW24583   2.607   0.348   5.346
40915SOL    HW124584   2.608   0.256   5.318
40915SOL    HW224585   2.546   0.391   5.287
40916SOL     OW24586   4.437  13.059   0.924
40916SOL    HW124587   4.446  13.120   0.998
40916SOL    HW224588   4.394  12.982   0.962
40917SOL     OW24589   7.609  13.891  12.900
40917SOL    HW124590   7.565  13.893  12.985
40917SOL    HW224591   7.674  13.961  12.904
40918SOL     OW24592   4.961   4.282   7.167
40918SOL    HW124593   4.965   4.356   7.228
40918SOL    HW224594   5.028   4.221   7.199
40919SOL     OW24595  13.566  11.557  10.546
40919SOL    HW124596  13.597  11.497  10.613
40919SOL    HW224597  13.503  11.614  10.592
40920SOL     OW24598  11.116  11.359   7.256
40920SOL    HW124599  11.099  11.268   7.232
40920SOL    HW224600  11.039  11.385   7.308
40921SOL     OW24601   3.054  14.703  11.296
40921SOL    HW124602   3.116  14.725  11.226
40921SOL    HW224603   2.968  14.721  11.257
40922SOL     OW24604  10.076  10.962   0.724
40922SOL    HW124605  10.043  11.017   0.653
40922SOL    HW224606   9.997  10.923   0.763
40923SOL     OW24607   4.125  12.783  10.920
40923SOL    HW124608   4.042  12.782  10.872
40923SOL    HW224609   4.148  12.876  10.926
40924SOL     OW24610  14.649   6.633   8.666
40924SOL    HW124611  14.736   6.642   8.629
40924SOL    HW224612  14.664   6.607   8.757
40925SOL     OW24613  13.873   7.856   9.129
40925SOL    HW124614  13.907   7.767   9.120
40925SOL    HW224615  13.912   7.903   9.056
40926SOL     OW24616   1.809   1.081  14.519
40926SOL    HW124617   1.846   1.117  14.600
40926SOL    HW224618   1.715   1.096  14.526
40927SOL     OW24619   9.257   6.865   7.564
40927SOL    HW124620   9.163   6.886   7.560
40927SOL    HW224621   9.274   6.819   7.482
40928SOL     OW24622  11.914   6.673  14.260
40928SOL    HW124623  11.883   6.763  14.249
40928SOL    HW224624  11.851   6.621  14.210
40929SOL     OW24625   0.530  12.053   2.097
40929SOL    HW124626   0.527  12.081   2.188
40929SOL    HW224627   0.583  12.120   2.053
40930SOL     OW24628   7.052   2.238   9.497
40930SOL    HW124629   7.080   2.241   9.588
40930SOL    HW224630   7.093   2.315   9.457
40931SOL     OW24631  14.017   1.334   7.105
40931SOL    HW124632  13.982   1.422   7.086
40931SOL    HW224633  14.015   1.289   7.020
40932SOL     OW24634  13.730   5.095   4.785
40932SOL    HW124635  13.821   5.086   4.759
40932SOL    HW224636  13.716   5.189   4.791
40933SOL     OW24637  14.100   7.921   5.014
40933SOL    HW124638  14.110   7.839   4.966
40933SOL    HW224639  14.129   7.901   5.103
40934SOL     OW24640   5.972  11.705   3.279
40934SOL    HW124641   6.032  11.664   3.341
40934SOL    HW224642   5.935  11.631   3.230
40935SOL     OW24643   8.159   2.095   9.363
40935SOL    HW124644   8.135   2.003   9.355
40935SOL    HW224645   8.139   2.133   9.277
40936SOL     OW24646  13.871   6.657   9.455
40936SOL    HW124647  13.830   6.696   9.377
40936SOL    HW224648  13.797   6.623   9.506
40937SOL     OW24649  11.820   7.393  11.281
40937SOL    HW124650  11.735   7.364  11.250
40937SOL    HW224651  11.834   7.477  11.238
40938SOL     OW24652   3.110   4.519  13.018
40938SOL    HW124653   3.199   4.519  13.052
40938SOL    HW224654   3.059   4.567  13.083
40939SOL     OW24655   2.587  13.549   4.628
40939SOL    HW124656   2.606  13.548   4.535
40939SOL    HW224657   2.673  13.543   4.670
40940SOL     OW24658   3.879   1.068  11.969
40940SOL    HW124659   3.815   1.090  12.037
40940SOL    HW224660   3.886   1.148  11.916
40941SOL     OW24661   6.460   4.716   3.064
40941SOL    HW124662   6.498   4.685   3.146
40941SOL    HW224663   6.534   4.722   3.003
40942SOL     OW24664   0.974  13.606   8.737
40942SOL    HW124665   0.995  13.620   8.645
40942SOL    HW224666   0.965  13.511   8.745
40943SOL     OW24667  12.841   3.103   1.050
40943SOL    HW124668  12.922   3.095   1.001
40943SOL    HW224669  12.867   3.098   1.142
40944SOL     OW24670   8.692  10.433   1.527
40944SOL    HW124671   8.658  10.374   1.595
40944SOL    HW224672   8.617  10.489   1.506
40945SOL     OW24673   8.995   0.505  13.972
40945SOL    HW124674   8.965   0.421  13.937
40945SOL    HW224675   8.933   0.526  14.042
40946SOL     OW24676   6.894   5.245   3.469
40946SOL    HW124677   6.989   5.252   3.455
40946SOL    HW224678   6.855   5.293   3.397
40947SOL     OW24679   1.823   3.661  11.289
40947SOL    HW124680   1.782   3.613  11.361
40947SOL    HW224681   1.753   3.717  11.255
40948SOL     OW24682   3.131   7.911  11.916
40948SOL    HW124683   3.076   7.990  11.911
40948SOL    HW224684   3.183   7.923  11.996
40949SOL     OW24685   7.493   6.306   9.444
40949SOL    HW124686   7.587   6.323   9.444
40949SOL    HW224687   7.466   6.314   9.535
40950SOL     OW24688  13.025   9.651   9.231
40950SOL    HW124689  13.052   9.604   9.310
40950SOL    HW224690  13.007   9.581   9.167
40951SOL     OW24691   5.331  14.749  14.343
40951SOL    HW124692   5.393  14.808  14.387
40951SOL    HW224693   5.249  14.797  14.341
40952SOL     OW24694  11.805   2.782   4.919
40952SOL    HW124695  11.722   2.808   4.879
40952SOL    HW224696  11.868   2.782   4.847
40953SOL     OW24697  14.155  14.162   9.245
40953SOL    HW124698  14.080  14.193   9.296
40953SOL    HW224699  14.231  14.193   9.293
40954SOL     OW24700  10.108   5.443   8.431
40954SOL    HW124701  10.034   5.395   8.395
40954SOL    HW224702  10.184   5.408   8.385
40955SOL     OW24703   7.569   8.189  12.056
40955SOL    HW124704   7.508   8.261  12.042
40955SOL    HW224705   7.523   8.112  12.022
40956SOL     OW24706   4.459   6.264  12.131
40956SOL    HW124707   4.497   6.323  12.066
40956SOL    HW224708   4.452   6.317  12.210
40957SOL     OW24709  14.343   5.090   0.264
40957SOL    HW124710  14.304   5.016   0.217
40957SOL    HW224711  14.405   5.128   0.201
40958SOL     OW24712   6.166   1.039   4.612
40958SOL    HW124713   6.128   0.990   4.539
40958SOL    HW224714   6.113   1.014   4.687
40959SOL     OW24715  11.836   1.444   5.705
40959SOL    HW124716  11.910   1.385   5.715
40959SOL    HW224717  11.875   1.529   5.683
40960SOL     OW24718   2.708   6.139   9.307
40960SOL    HW124719   2.791   6.166   9.267
40960SOL    HW224720   2.734   6.087   9.383
40961SOL     OW24721  14.537   3.100   4.530
40961SOL    HW124722  14.601   3.172   4.530
40961SOL    HW224723  14.586   3.026   4.495
40962SOL     OW24724  12.419  10.113   1.026
40962SOL    HW124725  12.439  10.100   1.119
40962SOL    HW224726  12.361  10.189   1.025
40963SOL     OW24727   9.667  10.638   6.641
40963SOL    HW124728   9.727  10.654   6.714
40963SOL    HW224729   9.607  10.572   6.674
40964SOL     OW24730  13.722  14.249   9.896
40964SOL    HW124731  13.764  14.256   9.982
40964SOL    HW224732  13.661  14.175   9.906
40965SOL     OW24733   0.804  10.618   5.238
40965SOL    HW124734   0.841  10.706   5.246
40965SOL    HW224735   0.765  10.600   5.324
40966SOL     OW24736  14.202  10.731  10.106
40966SOL    HW124737  14.130  10.678  10.140
40966SOL    HW224738  14.179  10.746  10.014
40967SOL     OW24739   1.412  11.290   1.905
40967SOL    HW124740   1.482  11.242   1.859
40967SOL    HW224741   1.340  11.227   1.910
40968SOL     OW24742   8.301   1.504   7.280
40968SOL    HW124743   8.256   1.435   7.232
40968SOL    HW224744   8.393   1.476   7.283
40969SOL     OW24745  11.767  13.962   1.839
40969SOL    HW124746  11.744  13.886   1.893
40969SOL    HW224747  11.834  13.928   1.779
40970SOL     OW24748   8.740   1.699   5.047
40970SOL    HW124749   8.765   1.729   4.960
40970SOL    HW224750   8.650   1.731   5.058
40971SOL     OW24751   4.174  12.615  12.616
40971SOL    HW124752   4.148  12.640  12.528
40971SOL    HW224753   4.254  12.563  12.604
40972SOL     OW24754   3.777  12.510   7.258
40972SOL    HW124755   3.834  12.462   7.317
40972SOL    HW224756   3.736  12.443   7.204
40973SOL     OW24757  13.354   8.758   0.903
40973SOL    HW124758  13.447   8.780   0.896
40973SOL    HW224759  13.351   8.663   0.901
40974SOL     OW24760   6.508   6.417  11.949
40974SOL    HW124761   6.421   6.402  11.912
40974SOL    HW224762   6.544   6.330  11.961
40975SOL     OW24763  12.642   0.097   3.070
40975SOL    HW124764  12.672   0.112   3.160
40975SOL    HW224765  12.553   0.066   3.078
40976SOL     OW24766   1.125  14.298   1.365
40976SOL    HW124767   1.213  14.296   1.327
40976SOL    HW224768   1.072  14.247   1.304
40977SOL     OW24769   0.720   1.587  10.960
40977SOL    HW124770   0.760   1.500  10.960
40977SOL    HW224771   0.633   1.573  10.998
40978SOL     OW24772   2.464   6.352   3.526
40978SOL    HW124773   2.478   6.259   3.542
40978SOL    HW224774   2.369   6.362   3.522
40979SOL     OW24775   2.113  11.050  13.297
40979SOL    HW124776   2.109  10.965  13.340
40979SOL    HW224777   2.035  11.052  13.241
40980SOL     OW24778   2.877   8.204  14.317
40980SOL    HW124779   2.960   8.249  14.328
40980SOL    HW224780   2.825   8.262  14.262
40981SOL     OW24781   4.888  14.375  10.830
40981SOL    HW124782   4.892  14.459  10.877
40981SOL    HW224783   4.795  14.364  10.809
40982SOL     OW24784   0.055   5.073   1.867
40982SOL    HW124785   0.088   5.162   1.872
40982SOL    HW224786  14.837   5.080   1.894
40983SOL     OW24787   6.861  12.107  12.625
40983SOL    HW124788   6.856  12.044  12.698
40983SOL    HW224789   6.937  12.161  12.645
40984SOL     OW24790   4.852   3.185  11.453
40984SOL    HW124791   4.916   3.235  11.505
40984SOL    HW224792   4.883   3.193  11.363
40985SOL     OW24793   0.409   3.064   4.465
40985SOL    HW124794   0.351   3.133   4.496
40985SOL    HW224795   0.464   3.107   4.399
40986SOL     OW24796  12.189  12.657   1.023
40986SOL    HW124797  12.142  12.739   1.009
40986SOL    HW224798  12.268  12.665   0.969
40987SOL     OW24799   5.673   3.239   4.260
40987SOL    HW124800   5.686   3.144   4.252
40987SOL    HW224801   5.666   3.269   4.169
40988SOL     OW24802   7.020  12.843   4.865
40988SOL    HW124803   6.943  12.787   4.853
40988SOL    HW224804   7.031  12.887   4.781
40989SOL     OW24805   8.364   6.421   7.832
40989SOL    HW124806   8.312   6.359   7.883
40989SOL    HW224807   8.401   6.480   7.898
40990SOL     OW24808   6.003   7.402   6.185
40990SOL    HW124809   6.048   7.482   6.159
40990SOL    HW224810   6.033   7.386   6.275
40991SOL     OW24811  13.874   3.602  12.562
40991SOL    HW124812  13.969   3.594  12.576
40991SOL    HW224813  13.857   3.696  12.568
40992SOL     OW24814   2.228  13.978   8.126
40992SOL    HW124815   2.319  13.980   8.157
40992SOL    HW224816   2.220  13.892   8.084
40993SOL     OW24817   9.650   7.916   0.806
40993SOL    HW124818   9.653   7.955   0.894
40993SOL    HW224819   9.630   7.824   0.822
40994SOL     OW24820  10.677   7.172   4.799
40994SOL    HW124821  10.658   7.086   4.836
40994SOL    HW224822  10.684   7.230   4.875
40995SOL     OW24823  14.645  12.944  12.718
40995SOL    HW124824  14.565  12.916  12.674
40995SOL    HW224825  14.697  12.864  12.728
40996SOL     OW24826   8.077  14.390  11.314
40996SOL    HW124827   7.996  14.340  11.317
40996SOL    HW224828   8.085  14.429  11.402
40997SOL     OW24829  12.137   6.637  14.854
40997SOL    HW124830  12.195   6.564  14.874
40997SOL    HW224831  12.193   6.715  14.862
40998SOL     OW24832   3.359   9.586   4.459
40998SOL    HW124833   3.407   9.528   4.518
40998SOL    HW224834   3.425   9.619   4.398
40999SOL     OW24835   1.228   9.672   2.934
40999SOL    HW124836   1.194   9.716   2.857
40999SOL    HW224837   1.170   9.700   3.005
41000SOL     OW24838   5.926  13.944  10.530
41000SOL    HW124839   5.975  13.864  10.512
41000SOL    HW224840   5.972  13.984  10.604
41001SOL     OW24841  10.370  11.505   8.757
41001SOL    HW124842  10.389  11.470   8.844
41001SOL    HW224843  10.455  11.503   8.712
41002SOL     OW24844  10.073   5.192   7.598
41002SOL    HW124845  10.151   5.137   7.607
41002SOL    HW224846  10.031   5.162   7.517
41003SOL     OW24847  12.960   3.341   4.610
41003SOL    HW124848  12.954   3.246   4.602
41003SOL    HW224849  12.915   3.375   4.533
41004SOL     OW24850  11.545   7.576   6.454
41004SOL    HW124851  11.547   7.483   6.477
41004SOL    HW224852  11.503   7.618   6.528
41005SOL     OW24853  13.716  11.576  12.804
41005SOL    HW124854  13.740  11.519  12.876
41005SOL    HW224855  13.663  11.645  12.844
41006SOL     OW24856   9.762   6.545   9.002
41006SOL    HW124857   9.773   6.542   9.097
41006SOL    HW224858   9.815   6.621   8.975
41007SOL     OW24859  12.988   0.765   9.612
41007SOL    HW124860  13.023   0.723   9.533
41007SOL    HW224861  12.904   0.802   9.584
41008SOL     OW24862   1.986  12.233  11.295
41008SOL    HW124863   2.023  12.145  11.281
41008SOL    HW224864   2.007  12.252  11.387
41009SOL     OW24865   2.866   1.514  14.618
41009SOL    HW124866   2.811   1.440  14.644
41009SOL    HW224867   2.808   1.570  14.568
41010SOL     OW24868  10.970   6.514   8.545
41010SOL    HW124869  10.953   6.431   8.589
41010SOL    HW224870  11.065   6.513   8.528
41011SOL     OW24871   0.812   4.472  14.501
41011SOL    HW124872   0.779   4.547  14.550
41011SOL    HW224873   0.808   4.498  14.410
41012SOL     OW24874   0.620   6.272   3.301
41012SOL    HW124875   0.706   6.229   3.294
41012SOL    HW224876   0.588   6.277   3.211
41013SOL     OW24877   0.016   5.698   5.985
41013SOL    HW124878   0.029   5.750   5.905
41013SOL    HW224879  14.863   5.762   6.051
41014SOL     OW24880   6.038   2.611  11.872
41014SOL    HW124881   6.092   2.578  11.944
41014SOL    HW224882   5.948   2.595  11.899
41015SOL     OW24883   1.785   3.173  11.927
41015SOL    HW124884   1.844   3.138  11.860
41015SOL    HW224885   1.756   3.097  11.976
41016SOL     OW24886  11.439  13.524   8.102
41016SOL    HW124887  11.487  13.458   8.152
41016SOL    HW224888  11.353  13.484   8.086
41017SOL     OW24889  14.871   1.555   3.948
41017SOL    HW124890   0.047   1.551   3.867
41017SOL    HW224891   0.044   1.619   4.002
41018SOL     OW24892   3.295  14.729   4.706
41018SOL    HW124893   3.369  14.749   4.649
41018SOL    HW224894   3.218  14.741   4.651
41019SOL     OW24895   2.651   0.308   2.598
41019SOL    HW124896   2.653   0.403   2.600
41019SOL    HW224897   2.559   0.285   2.616
41020SOL     OW24898   1.360  13.236  11.028
41020SOL    HW124899   1.446  13.221  11.068
41020SOL    HW224900   1.345  13.157  10.975
41021SOL     OW24901   7.543  10.423   6.382
41021SOL    HW124902   7.598  10.455   6.454
41021SOL    HW224903   7.454  10.448   6.406
41022SOL     OW24904   2.367   0.770   7.129
41022SOL    HW124905   2.383   0.700   7.193
41022SOL    HW224906   2.453   0.807   7.112
41023SOL     OW24907   5.345   4.891  10.343
41023SOL    HW124908   5.317   4.908  10.433
41023SOL    HW224909   5.286   4.944  10.289
41024SOL     OW24910   0.494  10.291   9.890
41024SOL    HW124911   0.406  10.254   9.889
41024SOL    HW224912   0.542  10.237   9.953
41025SOL     OW24913   7.116   5.559   5.625
41025SOL    HW124914   7.194   5.615   5.627
41025SOL    HW224915   7.053   5.604   5.682
41026SOL     OW24916   6.217  14.808   9.290
41026SOL    HW124917   6.302  14.784   9.253
41026SOL    HW224918   6.229  14.801   9.384
41027SOL     OW24919   9.102   7.741   5.904
41027SOL    HW124920   9.058   7.751   5.989
41027SOL    HW224921   9.083   7.822   5.857
41028SOL     OW24922   5.761   5.188   1.563
41028SOL    HW124923   5.802   5.156   1.483
41028SOL    HW224924   5.798   5.275   1.577
41029SOL     OW24925   1.919  11.207  10.553
41029SOL    HW124926   1.866  11.197  10.475
41029SOL    HW224927   1.865  11.258  10.613
41030SOL     OW24928   5.751  10.495  13.099
41030SOL    HW124929   5.677  10.522  13.154
41030SOL    HW224930   5.792  10.424  13.148
41031SOL     OW24931  13.578   6.797   4.852
41031SOL    HW124932  13.564   6.779   4.759
41031SOL    HW224933  13.654   6.856   4.854
41032SOL     OW24934   2.777   4.354  14.437
41032SOL    HW124935   2.851   4.411  14.417
41032SOL    HW224936   2.781   4.343  14.532
41033SOL     OW24937   6.166   4.650   0.850
41033SOL    HW124938   6.100   4.581   0.837
41033SOL    HW224939   6.120   4.717   0.900
41034SOL     OW24940   7.154   7.018   2.418
41034SOL    HW124941   7.172   6.981   2.332
41034SOL    HW224942   7.059   7.021   2.423
41035SOL     OW24943  10.619  10.023   0.096
41035SOL    HW124944  10.640  10.115   0.080
41035SOL    HW224945  10.525  10.017   0.084
41036SOL     OW24946  14.828  14.417   4.521
41036SOL    HW124947  14.846  14.323   4.515
41036SOL    HW224948  14.858  14.441   4.609
41037SOL     OW24949  12.778   3.542  14.016
41037SOL    HW124950  12.830   3.586  14.083
41037SOL    HW224951  12.826   3.461  13.998
41038SOL     OW24952   1.886  11.872   6.749
41038SOL    HW124953   1.851  11.941   6.805
41038SOL    HW224954   1.827  11.798   6.761
41039SOL     OW24955   9.517  10.217  10.614
41039SOL    HW124956   9.562  10.211  10.698
41039SOL    HW224957   9.577  10.264  10.557
41040SOL     OW24958   9.680   0.506  10.638
41040SOL    HW124959   9.725   0.483  10.720
41040SOL    HW224960   9.680   0.425  10.587
41041SOL     OW24961   2.646   6.364   1.935
41041SOL    HW124962   2.639   6.439   1.994
41041SOL    HW224963   2.737   6.335   1.943
41042SOL     OW24964  14.578   5.088   8.061
41042SOL    HW124965  14.554   5.019   8.000
41042SOL    HW224966  14.564   5.170   8.012
41043SOL     OW24967   1.322   2.679   3.180
41043SOL    HW124968   1.340   2.718   3.266
41043SOL    HW224969   1.236   2.638   3.189
41044SOL     OW24970   4.417   5.562   5.301
41044SOL    HW124971   4.392   5.472   5.281
41044SOL    HW224972   4.464   5.557   5.384
41045SOL     OW24973  14.476   2.644  11.233
41045SOL    HW124974  14.478   2.728  11.280
41045SOL    HW224975  14.567   2.628  11.208
41046SOL     OW24976  12.806   6.552   9.242
41046SOL    HW124977  12.737   6.489   9.265
41046SOL    HW224978  12.816   6.541   9.147
41047SOL     OW24979  14.158  11.058   8.457
41047SOL    HW124980  14.217  11.133   8.452
41047SOL    HW224981  14.136  11.038   8.366
41048SOL     OW24982   4.435   7.601   6.260
41048SOL    HW124983   4.444   7.696   6.274
41048SOL    HW224984   4.347   7.591   6.225
41049SOL     OW24985   5.125   0.413   3.010
41049SOL    HW124986   5.166   0.474   3.071
41049SOL    HW224987   5.108   0.335   3.062
41050SOL     OW24988   2.753   9.930   7.987
41050SOL    HW124989   2.757  10.025   8.003
41050SOL    HW224990   2.816   9.915   7.916
41051SOL     OW24991   0.963  14.409   2.080
41051SOL    HW124992   0.879  14.376   2.047
41051SOL    HW224993   0.957  14.504   2.071
41052SOL     OW24994  10.540   2.444  13.512
41052SOL    HW124995  10.457   2.493  13.510
41052SOL    HW224996  10.531   2.381  13.441
41053SOL     OW24997   0.845   6.238   4.597
41053SOL    HW124998   0.816   6.157   4.639
41053SOL    HW224999   0.818   6.229   4.506
41054SOL     OW25000   6.877   9.712  11.875
41054SOL    HW125001   6.800   9.655  11.877
41054SOL    HW225002   6.893   9.728  11.782
41055SOL     OW25003   8.982  10.716  12.400
41055SOL    HW125004   8.911  10.736  12.461
41055SOL    HW225005   8.948  10.743  12.314
41056SOL     OW25006   2.132  12.064  11.659
41056SOL    HW125007   2.064  12.067  11.591
41056SOL    HW225008   2.213  12.085  11.612
41057SOL     OW25009   6.012  11.141   1.436
41057SOL    HW125010   6.078  11.112   1.373
41057SOL    HW225011   6.053  11.215   1.482
41058SOL     OW25012  12.809  11.980   7.545
41058SOL    HW125013  12.845  11.963   7.632
41058SOL    HW225014  12.808  11.895   7.502
41059SOL     OW25015   8.832   4.864   2.354
41059SOL    HW125016   8.835   4.930   2.286
41059SOL    HW225017   8.823   4.913   2.436
41060SOL     OW25018  11.836   1.535  10.138
41060SOL    HW125019  11.835   1.445  10.172
41060SOL    HW225020  11.876   1.528  10.052
41061SOL     OW25021   6.861   6.514   3.286
41061SOL    HW125022   6.857   6.503   3.381
41061SOL    HW225023   6.880   6.427   3.252
41062SOL     OW25024   0.541  12.830   3.350
41062SOL    HW125025   0.572  12.850   3.261
41062SOL    HW225026   0.446  12.835   3.344
41063SOL     OW25027   2.388   5.810  11.662
41063SOL    HW125028   2.474   5.849  11.678
41063SOL    HW225029   2.372   5.827  11.569
41064SOL     OW25030   0.996   5.704  12.707
41064SOL    HW125031   0.909   5.674  12.735
41064SOL    HW225032   0.977   5.776  12.646
41065SOL     OW25033   2.320   4.482   7.416
41065SOL    HW125034   2.404   4.485   7.372
41065SOL    HW225035   2.322   4.554   7.479
41066SOL     OW25036   6.329   1.540   8.507
41066SOL    HW125037   6.235   1.523   8.513
41066SOL    HW225038   6.346   1.545   8.413
41067SOL     OW25039  12.568   2.290   6.573
41067SOL    HW125040  12.490   2.234   6.570
41067SOL    HW225041  12.536   2.376   6.548
41068SOL     OW25042  14.004  10.653   3.918
41068SOL    HW125043  13.933  10.684   3.862
41068SOL    HW225044  14.083  10.695   3.883
41069SOL     OW25045  11.417   5.678   9.415
41069SOL    HW125046  11.407   5.741   9.344
41069SOL    HW225047  11.333   5.682   9.462
41070SOL     OW25048  13.822  12.112  13.375
41070SOL    HW125049  13.799  12.200  13.345
41070SOL    HW225050  13.739  12.074  13.404
41071SOL     OW25051  12.496  12.281   4.507
41071SOL    HW125052  12.548  12.207   4.538
41071SOL    HW225053  12.424  12.241   4.458
41072SOL     OW25054  13.518   6.183  10.760
41072SOL    HW125055  13.563   6.165  10.842
41072SOL    HW225056  13.532   6.277  10.745
41073SOL     OW25057  13.806   2.977   1.864
41073SOL    HW125058  13.844   2.891   1.843
41073SOL    HW225059  13.801   2.978   1.959
41074SOL     OW25060   8.422   8.267  11.624
41074SOL    HW125061   8.430   8.332  11.694
41074SOL    HW225062   8.373   8.312  11.555
41075SOL     OW25063   6.672   4.529   3.518
41075SOL    HW125064   6.739   4.590   3.488
41075SOL    HW225065   6.718   4.445   3.528
41076SOL     OW25066   9.716   3.532   8.693
41076SOL    HW125067   9.696   3.460   8.634
41076SOL    HW225068   9.672   3.608   8.655
41077SOL     OW25069   2.715   9.182   9.600
41077SOL    HW125070   2.683   9.094   9.618
41077SOL    HW225071   2.701   9.231   9.681
41078SOL     OW25072   7.765   0.625  14.861
41078SOL    HW125073   7.727   0.628  14.773
41078SOL    HW225074   7.771   0.531   0.007
41079SOL     OW25075   6.902  13.564  11.922
41079SOL    HW125076   6.968  13.625  11.891
41079SOL    HW225077   6.818  13.608  11.905
41080SOL     OW25078   8.241   4.437  11.324
41080SOL    HW125079   8.286   4.518  11.303
41080SOL    HW225080   8.307   4.382  11.366
41081SOL     OW25081  11.544   4.467   4.518
41081SOL    HW125082  11.589   4.424   4.591
41081SOL    HW225083  11.501   4.395   4.471
41082SOL     OW25084  13.591   5.536   2.141
41082SOL    HW125085  13.659   5.588   2.097
41082SOL    HW225086  13.617   5.445   2.127
41083SOL     OW25087   3.795   9.528  11.739
41083SOL    HW125088   3.876   9.543  11.690
41083SOL    HW225089   3.760   9.446  11.703
41084SOL     OW25090   6.824   1.227  11.576
41084SOL    HW125091   6.772   1.228  11.495
41084SOL    HW225092   6.771   1.275  11.639
41085SOL     OW25093   1.678   1.660   4.024
41085SOL    HW125094   1.589   1.623   4.023
41085SOL    HW225095   1.700   1.664   4.117
41086SOL     OW25096   2.006   5.003  10.699
41086SOL    HW125097   2.095   5.025  10.726
41086SOL    HW225098   1.987   4.920  10.744
41087SOL     OW25099   3.180   4.053   7.576
41087SOL    HW125100   3.179   4.139   7.617
41087SOL    HW225101   3.157   3.993   7.646
41088SOL     OW25102  11.768   2.629  10.765
41088SOL    HW125103  11.784   2.698  10.830
41088SOL    HW225104  11.851   2.583  10.758
41089SOL     OW25105   4.554   8.562   1.047
41089SOL    HW125106   4.588   8.628   0.986
41089SOL    HW225107   4.460   8.560   1.029
41090SOL     OW25108   6.276   0.644   3.168
41090SOL    HW125109   6.358   0.671   3.210
41090SOL    HW225110   6.208   0.681   3.223
41091SOL     OW25111  12.035   4.667   3.706
41091SOL    HW125112  12.023   4.574   3.725
41091SOL    HW225113  11.973   4.712   3.762
41092SOL     OW25114  13.004  10.910   5.776
41092SOL    HW125115  12.959  10.984   5.736
41092SOL    HW225116  13.040  10.946   5.858
41093SOL     OW25117   0.135  12.735   6.405
41093SOL    HW125118   0.197  12.694   6.465
41093SOL    HW225119   0.050  12.727   6.450
41094SOL     OW25120  10.773  14.658   9.060
41094SOL    HW125121  10.757  14.692   9.148
41094SOL    HW225122  10.815  14.573   9.075
41095SOL     OW25123   1.914   6.871   7.293
41095SOL    HW125124   1.843   6.927   7.325
41095SOL    HW225125   1.981   6.932   7.263
41096SOL     OW25126   7.583   2.760   3.994
41096SOL    HW125127   7.569   2.751   3.900
41096SOL    HW225128   7.666   2.716   4.011
41097SOL     OW25129   5.812   0.499   8.213
41097SOL    HW125130   5.802   0.592   8.195
41097SOL    HW225131   5.773   0.487   8.300
41098SOL     OW25132   3.985   4.050  13.119
41098SOL    HW125133   4.015   3.965  13.087
41098SOL    HW225134   3.892   4.053  13.096
41099SOL     OW25135   7.038  14.313   5.338
41099SOL    HW125136   6.981  14.368   5.393
41099SOL    HW225137   6.984  14.238   5.314
41100SOL     OW25138   9.164   9.894  10.668
41100SOL    HW125139   9.163   9.810  10.623
41100SOL    HW225140   9.079   9.900  10.711
41101SOL     OW25141   6.148  13.704  11.644
41101SOL    HW125142   6.089  13.679  11.573
41101SOL    HW225143   6.159  13.624  11.695
41102SOL     OW25144   3.076   4.029  14.095
41102SOL    HW125145   3.019   3.966  14.050
41102SOL    HW225146   3.132   4.064  14.025
41103SOL     OW25147  11.061  11.257   0.514
41103SOL    HW125148  11.092  11.190   0.575
41103SOL    HW225149  10.986  11.298   0.558
41104SOL     OW25150  10.309  11.428   4.540
41104SOL    HW125151  10.225  11.384   4.526
41104SOL    HW225152  10.310  11.447   4.634
41105SOL     OW25153   6.008   8.321   2.718
41105SOL    HW125154   6.019   8.389   2.652
41105SOL    HW225155   5.918   8.331   2.748
41106SOL     OW25156  14.536   9.016  10.494
41106SOL    HW125157  14.448   8.985  10.515
41106SOL    HW225158  14.585   8.938  10.470
41107SOL     OW25159   1.796   0.896  11.955
41107SOL    HW125160   1.794   0.979  11.908
41107SOL    HW225161   1.780   0.829  11.888
41108SOL     OW25162   5.454   0.284   8.506
41108SOL    HW125163   5.482   0.351   8.569
41108SOL    HW225164   5.385   0.236   8.552
41109SOL     OW25165   8.266   5.657   3.910
41109SOL    HW125166   8.244   5.668   3.818
41109SOL    HW225167   8.273   5.747   3.944
41110SOL     OW25168   1.757  13.975  10.247
41110SOL    HW125169   1.701  13.993  10.322
41110SOL    HW225170   1.721  13.895  10.208
41111SOL     OW25171   8.043  13.631   3.850
41111SOL    HW125172   7.974  13.565   3.838
41111SOL    HW225173   8.119  13.580   3.881
41112SOL     OW25174  11.772  13.604   9.128
41112SOL    HW125175  11.706  13.641   9.186
41112SOL    HW225176  11.800  13.524   9.172
41113SOL     OW25177  13.097  11.532   3.353
41113SOL    HW125178  13.191  11.547   3.361
41113SOL    HW225179  13.075  11.474   3.426
41114SOL     OW25180  10.804   2.547  10.967
41114SOL    HW125181  10.761   2.546  10.881
41114SOL    HW225182  10.857   2.627  10.966
41115SOL     OW25183   0.879   9.090  10.490
41115SOL    HW125184   0.810   9.106  10.555
41115SOL    HW225185   0.961   9.095  10.540
41116SOL     OW25186   0.997   2.752  13.338
41116SOL    HW125187   1.065   2.685  13.351
41116SOL    HW225188   1.038   2.833  13.366
41117SOL     OW25189   4.965   2.006  11.397
41117SOL    HW125190   4.874   2.037  11.398
41117SOL    HW225191   4.994   2.016  11.487
41118SOL     OW25192   5.068  12.054  12.170
41118SOL    HW125193   5.047  11.976  12.120
41118SOL    HW225194   5.153  12.082  12.137
41119SOL     OW25195  10.896   6.212   0.653
41119SOL    HW125196  10.944   6.227   0.571
41119SOL    HW225197  10.809   6.246   0.637
41120SOL     OW25198  10.913   5.645   0.314
41120SOL    HW125199  10.821   5.661   0.335
41120SOL    HW225200  10.916   5.645   0.218
41121SOL     OW25201  11.478   4.096   0.177
41121SOL    HW125202  11.456   4.121   0.267
41121SOL    HW225203  11.436   4.011   0.165
41122SOL     OW25204   0.376   5.216   7.974
41122SOL    HW125205   0.436   5.147   8.004
41122SOL    HW225206   0.403   5.293   8.023
41123SOL     OW25207   4.959   3.721  12.464
41123SOL    HW125208   4.874   3.765  12.474
41123SOL    HW225209   4.990   3.709  12.554
41124SOL     OW25210   2.807   5.016  10.110
41124SOL    HW125211   2.842   4.940  10.157
41124SOL    HW225212   2.876   5.082  10.116
41125SOL     OW25213  10.680   6.446   9.506
41125SOL    HW125214  10.608   6.392   9.536
41125SOL    HW225215  10.664   6.459   9.412
41126SOL     OW25216  10.946   4.752  12.686
41126SOL    HW125217  10.989   4.667  12.685
41126SOL    HW225218  10.900   4.757  12.602
41127SOL     OW25219   3.696   9.093   0.180
41127SOL    HW125220   3.614   9.104   0.132
41127SOL    HW225221   3.671   9.100   0.272
41128SOL     OW25222   4.483   5.917   3.824
41128SOL    HW125223   4.567   5.889   3.861
41128SOL    HW225224   4.422   5.848   3.849
41129SOL     OW25225   6.482  13.372   0.594
41129SOL    HW125226   6.419  13.394   0.662
41129SOL    HW225227   6.567  13.386   0.635
41130SOL     OW25228   5.517   0.619   6.372
41130SOL    HW125229   5.499   0.580   6.286
41130SOL    HW225230   5.587   0.564   6.408
41131SOL     OW25231  10.658   9.853   8.255
41131SOL    HW125232  10.642   9.765   8.289
41131SOL    HW225233  10.704   9.897   8.326
41132SOL     OW25234   2.717   0.832   0.773
41132SOL    HW125235   2.774   0.777   0.719
41132SOL    HW225236   2.749   0.819   0.862
41133SOL     OW25237   9.371   1.186  14.658
41133SOL    HW125238   9.339   1.221  14.742
41133SOL    HW225239   9.376   1.092  14.672
41134SOL     OW25240  11.858   2.636   4.183
41134SOL    HW125241  11.952   2.652   4.185
41134SOL    HW225242  11.850   2.542   4.170
41135SOL     OW25243  12.859   7.753  11.345
41135SOL    HW125244  12.864   7.817  11.274
41135SOL    HW225245  12.797   7.688  11.313
41136SOL     OW25246   9.350   2.722   8.790
41136SOL    HW125247   9.424   2.781   8.777
41136SOL    HW225248   9.391   2.637   8.807
41137SOL     OW25249  10.357  10.404   9.890
41137SOL    HW125250  10.331  10.400   9.982
41137SOL    HW225251  10.280  10.370   9.843
41138SOL     OW25252   8.995   1.953   1.680
41138SOL    HW125253   9.090   1.948   1.688
41138SOL    HW225254   8.980   2.008   1.604
41139SOL     OW25255  14.206   1.858  14.728
41139SOL    HW125256  14.262   1.781  14.721
41139SOL    HW225257  14.120   1.823  14.752
41140SOL     OW25258   9.694   2.569  14.333
41140SOL    HW125259   9.729   2.523  14.256
41140SOL    HW225260   9.770   2.615  14.369
41141SOL     OW25261  13.305  13.739  13.898
41141SOL    HW125262  13.318  13.727  13.804
41141SOL    HW225263  13.218  13.777  13.906
41142SOL     OW25264   5.822   4.283  12.572
41142SOL    HW125265   5.774   4.301  12.653
41142SOL    HW225266   5.770   4.324  12.503
41143SOL     OW25267   2.769  11.471  13.543
41143SOL    HW125268   2.712  11.448  13.616
41143SOL    HW225269   2.725  11.438  13.465
41144SOL     OW25270   1.697  13.487   6.899
41144SOL    HW125271   1.625  13.549   6.910
41144SOL    HW225272   1.694  13.463   6.807
41145SOL     OW25273  13.759  13.280   6.300
41145SOL    HW125274  13.793  13.215   6.238
41145SOL    HW225275  13.664  13.272   6.293
41146SOL     OW25276  13.531   3.117   6.373
41146SOL    HW125277  13.487   3.081   6.451
41146SOL    HW225278  13.530   3.045   6.310
41147SOL     OW25279  10.143   3.812  14.838
41147SOL    HW125280  10.053   3.838  14.816
41147SOL    HW225281  10.134   3.768   0.049
41148SOL     OW25282   8.678   2.685  13.414
41148SOL    HW125283   8.668   2.656  13.504
41148SOL    HW225284   8.599   2.737  13.397
41149SOL     OW25285  14.582   0.051   1.809
41149SOL    HW125286  14.676   0.050   1.827
41149SOL    HW225287  14.541   0.060   1.896
41150SOL     OW25288   1.259   3.759   3.220
41150SOL    HW125289   1.315   3.721   3.152
41150SOL    HW225290   1.172   3.764   3.179
41151SOL     OW25291   0.699  10.422   0.805
41151SOL    HW125292   0.646  10.349   0.772
41151SOL    HW225293   0.635  10.484   0.840
41152SOL     OW25294   6.854   2.148   5.338
41152SOL    HW125295   6.910   2.181   5.409
41152SOL    HW225296   6.895   2.065   5.313
41153SOL     OW25297   2.335   2.730  13.435
41153SOL    HW125298   2.407   2.725  13.498
41153SOL    HW225299   2.358   2.666  13.367
41154SOL     OW25300  13.797   7.651   8.184
41154SOL    HW125301  13.727   7.634   8.122
41154SOL    HW225302  13.767   7.725   8.236
41155SOL     OW25303   3.213  10.995   1.994
41155SOL    HW125304   3.201  11.089   2.002
41155SOL    HW225305   3.308  10.984   1.984
41156SOL     OW25306  12.479   6.780  11.184
41156SOL    HW125307  12.541   6.846  11.151
41156SOL    HW225308  12.394   6.823  11.177
41157SOL     OW25309  12.468   7.204   9.366
41157SOL    HW125310  12.390   7.209   9.311
41157SOL    HW225311  12.436   7.175   9.451
41158SOL     OW25312   9.023   0.066  12.645
41158SOL    HW125313   9.007   0.147  12.595
41158SOL    HW225314   9.109   0.080  12.686
41159SOL     OW25315  12.176   7.423   0.840
41159SOL    HW125316  12.249   7.471   0.801
41159SOL    HW225317  12.127   7.389   0.766
41160SOL     OW25318   4.734   7.440   8.542
41160SOL    HW125319   4.736   7.344   8.540
41160SOL    HW225320   4.683   7.464   8.466
41161SOL     OW25321   8.631  13.500  12.766
41161SOL    HW125322   8.638  13.409  12.737
41161SOL    HW225323   8.542  13.526  12.739
41162SOL     OW25324   9.713   0.175   8.778
41162SOL    HW125325   9.754   0.142   8.858
41162SOL    HW225326   9.638   0.225   8.809
41163SOL     OW25327  14.740   2.017   7.136
41163SOL    HW125328  14.686   2.034   7.060
41163SOL    HW225329  14.736   2.098   7.187
41164SOL     OW25330  11.398   7.902   4.034
41164SOL    HW125331  11.385   7.995   4.052
41164SOL    HW225332  11.419   7.899   3.941
41165SOL     OW25333   5.484   2.459   4.240
41165SOL    HW125334   5.551   2.497   4.296
41165SOL    HW225335   5.527   2.445   4.156
41166SOL     OW25336   9.238  14.701  10.119
41166SOL    HW125337   9.220  14.680  10.028
41166SOL    HW225338   9.151  14.713  10.158
41167SOL     OW25339   7.266   5.980   6.309
41167SOL    HW125340   7.284   6.070   6.335
41167SOL    HW225341   7.171   5.978   6.293
41168SOL     OW25342   7.847  13.328   4.615
41168SOL    HW125343   7.880  13.350   4.702
41168SOL    HW225344   7.787  13.255   4.630
41169SOL     OW25345  14.548  11.297  13.274
41169SOL    HW125346  14.480  11.333  13.330
41169SOL    HW225347  14.523  11.324  13.185
41170SOL     OW25348   2.556  12.478   3.485
41170SOL    HW125349   2.538  12.429   3.566
41170SOL    HW225350   2.646  12.509   3.496
41171SOL     OW25351   4.849  10.979   0.667
41171SOL    HW125352   4.887  11.062   0.640
41171SOL    HW225353   4.772  11.003   0.719
41172SOL     OW25354  12.798  10.998   0.643
41172SOL    HW125355  12.813  11.056   0.569
41172SOL    HW225356  12.867  10.932   0.636
41173SOL     OW25357  14.480  12.598   0.520
41173SOL    HW125358  14.454  12.507   0.504
41173SOL    HW225359  14.465  12.610   0.614
41174SOL     OW25360   7.079  13.047  11.022
41174SOL    HW125361   7.125  13.044  11.105
41174SOL    HW225362   6.999  12.997  11.037
41175SOL     OW25363  12.148  11.797   1.502
41175SOL    HW125364  12.185  11.885   1.492
41175SOL    HW225365  12.053  11.811   1.507
41176SOL     OW25366   0.107   5.959   2.532
41176SOL    HW125367   0.180   5.959   2.470
41176SOL    HW225368   0.114   6.043   2.576
41177SOL     OW25369   9.150   3.173  14.873
41177SOL    HW125370   9.209   3.138  14.807
41177SOL    HW225371   9.206   3.188   0.075
41178SOL     OW25372  11.539  13.405   9.030
41178SOL    HW125373  11.579  13.461   8.963
41178SOL    HW225374  11.613  13.362   9.073
41179SOL     OW25375  10.683  12.833   4.611
41179SOL    HW125376  10.623  12.793   4.547
41179SOL    HW225377  10.742  12.887   4.558
41180SOL     OW25378  10.383   3.341   6.473
41180SOL    HW125379  10.300   3.356   6.428
41180SOL    HW225380  10.436   3.291   6.411
41181SOL     OW25381  12.562  14.479   7.684
41181SOL    HW125382  12.621  14.480   7.760
41181SOL    HW225383  12.476  14.497   7.720
41182SOL     OW25384   1.062   0.813   9.114
41182SOL    HW125385   1.087   0.754   9.185
41182SOL    HW225386   1.078   0.762   9.035
41183SOL     OW25387   8.039  14.334  14.662
41183SOL    HW125388   8.126  14.351  14.697
41183SOL    HW225389   8.024  14.404  14.599
41184SOL     OW25390  10.503   3.677   9.388
41184SOL    HW125391  10.559   3.731   9.333
41184SOL    HW225392  10.471   3.736   9.456
41185SOL     OW25393   8.506  12.905   0.825
41185SOL    HW125394   8.433  12.859   0.784
41185SOL    HW225395   8.583  12.855   0.799
41186SOL     OW25396  10.595  13.183   5.562
41186SOL    HW125397  10.629  13.263   5.602
41186SOL    HW225398  10.506  13.206   5.535
41187SOL     OW25399   3.337   3.810   9.062
41187SOL    HW125400   3.431   3.794   9.068
41187SOL    HW225401   3.297   3.725   9.080
41188SOL     OW25402   2.542   4.364   5.237
41188SOL    HW125403   2.491   4.439   5.268
41188SOL    HW225404   2.630   4.379   5.272
41189SOL     OW25405   7.955   0.470   8.797
41189SOL    HW125406   7.912   0.385   8.808
41189SOL    HW225407   8.006   0.483   8.877
41190SOL     OW25408  10.703  14.165  13.652
41190SOL    HW125409  10.631  14.140  13.595
41190SOL    HW225410  10.722  14.087  13.704
41191SOL     OW25411   8.550  14.449   0.031
41191SOL    HW125412   8.469  14.416  14.863
41191SOL    HW225413   8.590  14.371   0.069
41192SOL     OW25414   5.832  11.593  11.993
41192SOL    HW125415   5.859  11.613  11.903
41192SOL    HW225416   5.883  11.515  12.016
41193SOL     OW25417  14.633   1.491   8.232
41193SOL    HW125418  14.624   1.485   8.137
41193SOL    HW225419  14.544   1.476   8.265
41194SOL     OW25420  11.153  14.487   2.118
41194SOL    HW125421  11.076  14.477   2.175
41194SOL    HW225422  11.123  14.457   2.032
41195SOL     OW25423  12.720   9.701  10.139
41195SOL    HW125424  12.763   9.637  10.082
41195SOL    HW225425  12.760   9.687  10.225
41196SOL     OW25426  12.841   4.884   6.672
41196SOL    HW125427  12.786   4.883   6.751
41196SOL    HW225428  12.911   4.821   6.691
41197SOL     OW25429   0.496   5.541   5.621
41197SOL    HW125430   0.511   5.446   5.623
41197SOL    HW225431   0.575   5.578   5.660
41198SOL     OW25432   5.845   9.330   8.961
41198SOL    HW125433   5.866   9.290   8.876
41198SOL    HW225434   5.868   9.264   9.025
41199SOL     OW25435   0.303   4.205   3.728
41199SOL    HW125436   0.266   4.228   3.642
41199SOL    HW225437   0.326   4.289   3.767
41200SOL     OW25438  14.173   2.653  14.307
41200SOL    HW125439  14.080   2.672  14.293
41200SOL    HW225440  14.191   2.579  14.248
41201SOL     OW25441   6.917   5.169   4.915
41201SOL    HW125442   6.928   5.250   4.866
41201SOL    HW225443   6.957   5.187   5.000
41202SOL     OW25444   4.738  12.766   3.800
41202SOL    HW125445   4.770  12.695   3.855
41202SOL    HW225446   4.744  12.732   3.711
41203SOL     OW25447   2.526   5.954   6.860
41203SOL    HW125448   2.438   5.919   6.864
41203SOL    HW225449   2.518   6.044   6.893
41204SOL     OW25450   2.848  13.337   6.110
41204SOL    HW125451   2.893  13.270   6.058
41204SOL    HW225452   2.885  13.327   6.198
41205SOL     OW25453   8.327  13.265   7.150
41205SOL    HW125454   8.362  13.244   7.236
41205SOL    HW225455   8.402  13.300   7.102
41206SOL     OW25456   2.310   8.427  12.308
41206SOL    HW125457   2.232   8.472  12.339
41206SOL    HW225458   2.367   8.497  12.276
41207SOL     OW25459   3.745   6.436   2.810
41207SOL    HW125460   3.694   6.365   2.770
41207SOL    HW225461   3.822   6.444   2.754
41208SOL     OW25462   2.767   7.825  11.559
41208SOL    HW125463   2.804   7.740  11.582
41208SOL    HW225464   2.841   7.885  11.559
41209SOL     OW25465  12.538  12.279   9.427
41209SOL    HW125466  12.541  12.375   9.430
41209SOL    HW225467  12.594  12.251   9.499
41210SOL     OW25468   7.908   5.361   7.091
41210SOL    HW125469   7.876   5.388   7.177
41210SOL    HW225470   8.003   5.357   7.102
41211SOL     OW25471   3.943   6.485   0.151
41211SOL    HW125472   3.848   6.483   0.158
41211SOL    HW225473   3.961   6.456   0.062
41212SOL     OW25474   2.008  13.214   0.530
41212SOL    HW125475   2.043  13.154   0.465
41212SOL    HW225476   2.043  13.300   0.505
41213SOL     OW25477   6.915  10.225   6.962
41213SOL    HW125478   6.990  10.180   6.922
41213SOL    HW225479   6.838  10.180   6.927
41214SOL     OW25480   3.450  11.970   5.189
41214SOL    HW125481   3.407  11.887   5.209
41214SOL    HW225482   3.385  12.036   5.209
41215SOL     OW25483  10.039   2.317   3.796
41215SOL    HW125484  10.086   2.249   3.843
41215SOL    HW225485  10.105   2.361   3.743
41216SOL     OW25486   3.607  11.663   2.748
41216SOL    HW125487   3.697  11.680   2.773
41216SOL    HW225488   3.573  11.748   2.721
41217SOL     OW25489   3.795  13.201   8.253
41217SOL    HW125490   3.825  13.270   8.312
41217SOL    HW225491   3.710  13.174   8.289
41218SOL     OW25492  13.328  10.153   8.146
41218SOL    HW125493  13.266  10.218   8.112
41218SOL    HW225494  13.411  10.200   8.152
41219SOL     OW25495   1.925   3.702   0.990
41219SOL    HW125496   1.961   3.781   1.030
41219SOL    HW225497   1.982   3.631   1.021
41220SOL     OW25498  14.092   3.523   0.448
41220SOL    HW125499  14.149   3.589   0.487
41220SOL    HW225500  14.051   3.479   0.523
41221SOL     OW25501   8.110   1.931   5.195
41221SOL    HW125502   8.115   1.956   5.287
41221SOL    HW225503   8.200   1.943   5.163
41222SOL     OW25504   4.238   9.465   1.952
41222SOL    HW125505   4.152   9.492   1.920
41222SOL    HW225506   4.300   9.501   1.889
41223SOL     OW25507   2.455   2.562  14.525
41223SOL    HW125508   2.384   2.501  14.546
41223SOL    HW225509   2.411   2.635  14.481
41224SOL     OW25510  10.563   5.515   5.617
41224SOL    HW125511  10.632   5.559   5.666
41224SOL    HW225512  10.501   5.584   5.595
41225SOL     OW25513   6.100   9.963   3.083
41225SOL    HW125514   6.031   9.907   3.119
41225SOL    HW225515   6.144   9.907   3.018
41226SOL     OW25516  13.888   8.864  11.318
41226SOL    HW125517  13.848   8.778  11.308
41226SOL    HW225518  13.816   8.925  11.308
41227SOL     OW25519   1.125   3.077  13.909
41227SOL    HW125520   1.049   3.029  13.876
41227SOL    HW225521   1.088   3.145  13.965
41228SOL     OW25522   9.540  12.270  13.467
41228SOL    HW125523   9.591  12.190  13.461
41228SOL    HW225524   9.449  12.242  13.458
41229SOL     OW25525   8.780   0.247   0.591
41229SOL    HW125526   8.688   0.267   0.608
41229SOL    HW225527   8.807   0.192   0.664
41230SOL     OW25528   8.358  10.967  11.201
41230SOL    HW125529   8.355  10.915  11.281
41230SOL    HW225530   8.422  10.923  11.146
41231SOL     OW25531  13.887   1.515   4.513
41231SOL    HW125532  13.927   1.602   4.508
41231SOL    HW225533  13.955   1.456   4.481
41232SOL     OW25534   3.971  11.125   7.883
41232SOL    HW125535   3.895  11.173   7.852
41232SOL    HW225536   3.981  11.053   7.820
41233SOL     OW25537   3.627   8.843  12.796
41233SOL    HW125538   3.654   8.798  12.716
41233SOL    HW225539   3.674   8.926  12.794
41234SOL     OW25540   5.583  11.067   7.215
41234SOL    HW125541   5.519  11.138   7.206
41234SOL    HW225542   5.633  11.091   7.293
41235SOL     OW25543   1.747   8.440   1.480
41235SOL    HW125544   1.709   8.367   1.528
41235SOL    HW225545   1.832   8.454   1.522
41236SOL     OW25546  14.853   6.227   3.456
41236SOL    HW125547  14.819   6.205   3.543
41236SOL    HW225548   0.068   6.193   3.456
41237SOL     OW25549   8.552   4.573   5.956
41237SOL    HW125550   8.588   4.512   5.892
41237SOL    HW225551   8.616   4.644   5.961
41238SOL     OW25552   9.378   8.594   0.256
41238SOL    HW125553   9.316   8.551   0.196
41238SOL    HW225554   9.335   8.590   0.341
41239SOL     OW25555   4.189   6.009   2.494
41239SOL    HW125556   4.216   5.996   2.403
41239SOL    HW225557   4.263   6.055   2.534
41240SOL     OW25558   4.979   2.315   0.676
41240SOL    HW125559   5.014   2.394   0.637
41240SOL    HW225560   4.955   2.341   0.765
41241SOL     OW25561   4.182   5.803   4.773
41241SOL    HW125562   4.141   5.859   4.707
41241SOL    HW225563   4.221   5.864   4.835
41242SOL     OW25564  10.565  13.441   9.379
41242SOL    HW125565  10.473  13.424   9.396
41242SOL    HW225566  10.565  13.516   9.319
41243SOL     OW25567  14.817   8.287   0.486
41243SOL    HW125568  14.853   8.232   0.417
41243SOL    HW225569  14.741   8.239   0.519
41244SOL     OW25570   4.694   6.349  11.430
41244SOL    HW125571   4.686   6.348  11.335
41244SOL    HW225572   4.732   6.435  11.450
41245SOL     OW25573   6.577   3.973  10.785
41245SOL    HW125574   6.664   3.988  10.822
41245SOL    HW225575   6.585   3.889  10.740
41246SOL     OW25576  10.191   9.736  10.807
41246SOL    HW125577  10.260   9.800  10.790
41246SOL    HW225578  10.167   9.749  10.899
41247SOL     OW25579   0.639  10.350   9.472
41247SOL    HW125580   0.549  10.341   9.503
41247SOL    HW225581   0.693  10.326   9.548
41248SOL     OW25582   8.368   7.286  13.018
41248SOL    HW125583   8.359   7.242  12.933
41248SOL    HW225584   8.391   7.216  13.079
41249SOL     OW25585  11.888  12.716  10.508
41249SOL    HW125586  11.863  12.806  10.528
41249SOL    HW225587  11.830  12.662  10.561
41250SOL     OW25588   1.178   1.035   3.949
41250SOL    HW125589   1.212   0.959   3.997
41250SOL    HW225590   1.084   1.031   3.961
41251SOL     OW25591   9.749  13.737   1.548
41251SOL    HW125592   9.719  13.689   1.471
41251SOL    HW225593   9.680  13.801   1.564
41252SOL     OW25594   0.180   3.678   9.432
41252SOL    HW125595   0.231   3.694   9.511
41252SOL    HW225596   0.246   3.668   9.363
41253SOL     OW25597  14.205   4.006   2.416
41253SOL    HW125598  14.164   4.081   2.459
41253SOL    HW225599  14.295   4.033   2.402
41254SOL     OW25600  12.061   4.887   8.884
41254SOL    HW125601  12.094   4.971   8.917
41254SOL    HW225602  12.137   4.829   8.887
41255SOL     OW25603  14.459   3.936   6.002
41255SOL    HW125604  14.498   3.909   5.919
41255SOL    HW225605  14.475   4.030   6.007
41256SOL     OW25606   4.733   6.966   2.786
41256SOL    HW125607   4.704   6.947   2.697
41256SOL    HW225608   4.767   7.055   2.782
41257SOL     OW25609   5.728   0.400   5.360
41257SOL    HW125610   5.634   0.397   5.377
41257SOL    HW225611   5.765   0.441   5.438
41258SOL     OW25612   9.854  12.775  12.836
41258SOL    HW125613   9.831  12.730  12.755
41258SOL    HW225614   9.842  12.867  12.817
41259SOL     OW25615   0.413   6.792   3.091
41259SOL    HW125616   0.376   6.706   3.111
41259SOL    HW225617   0.445   6.785   3.001
41260SOL     OW25618  10.909   8.322   6.169
41260SOL    HW125619  10.817   8.299   6.157
41260SOL    HW225620  10.919   8.331   6.264
41261SOL     OW25621  12.758  12.424  13.437
41261SOL    HW125622  12.725  12.441  13.349
41261SOL    HW225623  12.685  12.444  13.495
41262SOL     OW25624  14.112  14.808   7.401
41262SOL    HW125625  14.121  14.818   7.306
41262SOL    HW225626  14.186  14.856   7.438
41263SOL     OW25627  11.496   1.932   2.645
41263SOL    HW125628  11.521   1.894   2.561
41263SOL    HW225629  11.402   1.951   2.635
41264SOL     OW25630   5.195   2.535   8.449
41264SOL    HW125631   5.181   2.576   8.364
41264SOL    HW225632   5.106   2.517   8.482
41265SOL     OW25633  12.333   2.062   6.316
41265SOL    HW125634  12.290   2.087   6.234
41265SOL    HW225635  12.407   2.122   6.324
41266SOL     OW25636  10.215  10.691   3.906
41266SOL    HW125637  10.308  10.671   3.891
41266SOL    HW225638  10.176  10.606   3.926
41267SOL     OW25639   9.089  14.114   8.205
41267SOL    HW125640   9.019  14.080   8.149
41267SOL    HW225641   9.059  14.096   8.294
41268SOL     OW25642   3.595   0.105   4.238
41268SOL    HW125643   3.600   0.192   4.279
41268SOL    HW225644   3.622   0.120   4.147
41269SOL     OW25645   5.776  14.475  14.182
41269SOL    HW125646   5.854  14.419  14.178
41269SOL    HW225647   5.735  14.466  14.097
41270SOL     OW25648  13.199  12.933   1.407
41270SOL    HW125649  13.178  12.988   1.482
41270SOL    HW225650  13.274  12.881   1.435
41271SOL     OW25651  11.047  13.928  11.355
41271SOL    HW125652  11.081  13.935  11.266
41271SOL    HW225653  11.119  13.887  11.404
41272SOL     OW25654   6.975  11.324  10.606
41272SOL    HW125655   7.062  11.285  10.611
41272SOL    HW225656   6.951  11.316  10.513
41273SOL     OW25657  10.685   9.795  13.712
41273SOL    HW125658  10.693   9.744  13.631
41273SOL    HW225659  10.759   9.766  13.765
41274SOL     OW25660  10.151   2.972   8.500
41274SOL    HW125661  10.228   2.936   8.456
41274SOL    HW225662  10.110   2.896   8.542
41275SOL     OW25663   6.979   0.278   8.698
41275SOL    HW125664   7.023   0.314   8.621
41275SOL    HW225665   6.921   0.210   8.662
41276SOL     OW25666  13.653  10.310   9.522
41276SOL    HW125667  13.675  10.240   9.460
41276SOL    HW225668  13.568  10.284   9.557
41277SOL     OW25669  12.594   6.834   2.403
41277SOL    HW125670  12.561   6.924   2.408
41277SOL    HW225671  12.678   6.836   2.449
41278SOL     OW25672   4.608  13.202   3.619
41278SOL    HW125673   4.611  13.225   3.526
41278SOL    HW225674   4.621  13.108   3.621
41279SOL     OW25675   6.864   8.376   1.569
41279SOL    HW125676   6.783   8.347   1.526
41279SOL    HW225677   6.837   8.397   1.658
41280SOL     OW25678   3.586   9.539  13.331
41280SOL    HW125679   3.515   9.563  13.272
41280SOL    HW225680   3.635   9.471  13.283
41281SOL     OW25681  11.268   0.366   4.193
41281SOL    HW125682  11.289   0.287   4.143
41281SOL    HW225683  11.275   0.340   4.284
41282SOL     OW25684   9.908   5.555  13.383
41282SOL    HW125685   9.907   5.460  13.392
41282SOL    HW225686   9.921   5.587  13.473
41283SOL     OW25687   8.473   5.489  10.872
41283SOL    HW125688   8.482   5.401  10.908
41283SOL    HW225689   8.506   5.483  10.783
41284SOL     OW25690   3.293  13.214   0.490
41284SOL    HW125691   3.359  13.144   0.485
41284SOL    HW225692   3.213  13.170   0.517
41285SOL     OW25693  14.337   3.042   7.238
41285SOL    HW125694  14.244   3.052   7.260
41285SOL    HW225695  14.371   2.983   7.306
41286SOL     OW25696  14.769   8.542   9.595
41286SOL    HW125697  14.772   8.535   9.690
41286SOL    HW225698  14.799   8.631   9.577
41287SOL     OW25699  14.075   0.390  13.706
41287SOL    HW125700  14.123   0.453  13.760
41287SOL    HW225701  14.002   0.441  13.669
41288SOL     OW25702   9.341  13.650   0.727
41288SOL    HW125703   9.262  13.609   0.689
41288SOL    HW225704   9.400  13.660   0.652
41289SOL     OW25705   6.045  11.200  13.828
41289SOL    HW125706   6.040  11.295  13.818
41289SOL    HW225707   5.963  11.168  13.788
41290SOL     OW25708   1.270   1.220  12.387
41290SOL    HW125709   1.288   1.135  12.428
41290SOL    HW225710   1.353   1.267  12.394
41291SOL     OW25711  10.576   0.822  11.147
41291SOL    HW125712  10.614   0.841  11.061
41291SOL    HW225713  10.528   0.740  11.135
41292SOL     OW25714   2.466  14.022  10.420
41292SOL    HW125715   2.503  14.102  10.457
41292SOL    HW225716   2.380  14.047  10.388
41293SOL     OW25717  13.710   1.960  14.264
41293SOL    HW125718  13.697   2.000  14.178
41293SOL    HW225719  13.780   2.012  14.304
41294SOL     OW25720   5.507  11.663  11.085
41294SOL    HW125721   5.543  11.738  11.036
41294SOL    HW225722   5.478  11.700  11.168
41295SOL     OW25723  12.506  10.470   0.716
41295SOL    HW125724  12.540  10.424   0.640
41295SOL    HW225725  12.549  10.429   0.791
41296SOL     OW25726   2.828   0.662  13.798
41296SOL    HW125727   2.844   0.646  13.705
41296SOL    HW225728   2.885   0.600  13.844
41297SOL     OW25729   0.716   5.965   8.787
41297SOL    HW125730   0.645   5.990   8.846
41297SOL    HW225731   0.752   5.885   8.825
41298SOL     OW25732   2.895   6.711  12.922
41298SOL    HW125733   2.951   6.686  12.995
41298SOL    HW225734   2.898   6.636  12.862
41299SOL     OW25735  14.377   8.651   5.076
41299SOL    HW125736  14.432   8.630   5.151
41299SOL    HW225737  14.390   8.745   5.062
41300SOL     OW25738   6.883  12.685   5.660
41300SOL    HW125739   6.841  12.657   5.741
41300SOL    HW225740   6.862  12.616   5.597
41301SOL     OW25741   8.867  13.060  14.203
41301SOL    HW125742   8.905  13.084  14.119
41301SOL    HW225743   8.803  12.992  14.182
41302SOL     OW25744   8.602  10.192   4.289
41302SOL    HW125745   8.623  10.120   4.231
41302SOL    HW225746   8.514  10.219   4.264
41303SOL     OW25747   6.582  12.552   3.592
41303SOL    HW125748   6.635  12.497   3.651
41303SOL    HW225749   6.595  12.514   3.506
41304SOL     OW25750   4.464  14.439   6.330
41304SOL    HW125751   4.483  14.525   6.291
41304SOL    HW225752   4.542  14.387   6.312
41305SOL     OW25753   3.880   8.759  13.772
41305SOL    HW125754   3.881   8.764  13.676
41305SOL    HW225755   3.792   8.787  13.797
41306SOL     OW25756   5.798  13.355   4.463
41306SOL    HW125757   5.794  13.283   4.400
41306SOL    HW225758   5.847  13.424   4.418
41307SOL     OW25759   5.675   0.806  13.004
41307SOL    HW125760   5.716   0.857  13.073
41307SOL    HW225761   5.748   0.772  12.952
41308SOL     OW25762   6.115   7.778  12.673
41308SOL    HW125763   6.117   7.852  12.734
41308SOL    HW225764   6.022   7.768  12.652
41309SOL     OW25765   4.000   3.125   4.885
41309SOL    HW125766   3.975   3.070   4.810
41309SOL    HW225767   3.916   3.153   4.923
41310SOL     OW25768   9.792   9.170   9.241
41310SOL    HW125769   9.723   9.226   9.278
41310SOL    HW225770   9.866   9.228   9.228
41311SOL     OW25771  13.709   3.871   9.635
41311SOL    HW125772  13.784   3.836   9.684
41311SOL    HW225773  13.668   3.932   9.695
41312SOL     OW25774  12.116   2.555  11.864
41312SOL    HW125775  12.205   2.589  11.851
41312SOL    HW225776  12.059   2.623  11.829
41313SOL     OW25777   7.215  13.753  11.372
41313SOL    HW125778   7.235  13.671  11.417
41313SOL    HW225779   7.135  13.785  11.414
41314SOL     OW25780   5.377   8.535  10.900
41314SOL    HW125781   5.459   8.517  10.945
41314SOL    HW225782   5.394   8.514  10.808
41315SOL     OW25783   6.491  13.744   0.441
41315SOL    HW125784   6.534  13.790   0.514
41315SOL    HW225785   6.405  13.720   0.476
41316SOL     OW25786   2.432   1.609   4.155
41316SOL    HW125787   2.385   1.617   4.238
41316SOL    HW225788   2.365   1.585   4.091
41317SOL     OW25789   8.011  14.595   0.914
41317SOL    HW125790   8.093  14.560   0.878
41317SOL    HW225791   7.945  14.530   0.891
41318SOL     OW25792  10.239  10.905   3.171
41318SOL    HW125793  10.304  10.835   3.179
41318SOL    HW225794  10.165  10.863   3.126
41319SOL     OW25795   2.488  11.151  14.098
41319SOL    HW125796   2.502  11.242  14.127
41319SOL    HW225797   2.464  11.104  14.177
41320SOL     OW25798   0.781  12.892   7.850
41320SOL    HW125799   0.798  12.974   7.897
41320SOL    HW225800   0.783  12.824   7.919
41321SOL     OW25801   6.799   2.806   1.928
41321SOL    HW125802   6.876   2.830   1.876
41321SOL    HW225803   6.765   2.727   1.886
41322SOL     OW25804  11.733   9.309   2.419
41322SOL    HW125805  11.638   9.311   2.407
41322SOL    HW225806  11.752   9.382   2.478
41323SOL     OW25807   4.705   0.268   6.437
41323SOL    HW125808   4.614   0.238   6.432
41323SOL    HW225809   4.701   0.349   6.489
41324SOL     OW25810   3.203   0.446  12.914
41324SOL    HW125811   3.223   0.403  12.997
41324SOL    HW225812   3.112   0.423  12.896
41325SOL     OW25813  10.951   4.673   2.530
41325SOL    HW125814  10.931   4.761   2.562
41325SOL    HW225815  11.039   4.655   2.563
41326SOL     OW25816   4.212  11.566   5.933
41326SOL    HW125817   4.203  11.472   5.916
41326SOL    HW225818   4.299  11.588   5.899
41327SOL     OW25819   7.602   2.146   8.806
41327SOL    HW125820   7.550   2.128   8.885
41327SOL    HW225821   7.553   2.215   8.761
41328SOL     OW25822   7.666   4.020   2.703
41328SOL    HW125823   7.757   4.014   2.675
41328SOL    HW225824   7.622   4.068   2.632
41329SOL     OW25825   6.878   1.660   6.998
41329SOL    HW125826   6.889   1.594   6.930
41329SOL    HW225827   6.793   1.638   7.038
41330SOL     OW25828   1.212   3.601   9.131
41330SOL    HW125829   1.165   3.546   9.192
41330SOL    HW225830   1.167   3.685   9.135
41331SOL     OW25831   6.844   6.515   2.236
41331SOL    HW125832   6.797   6.433   2.247
41331SOL    HW225833   6.936   6.489   2.232
41332SOL     OW25834   6.837  12.434   9.733
41332SOL    HW125835   6.861  12.345   9.709
41332SOL    HW225836   6.805  12.473   9.652
41333SOL     OW25837   6.678   8.785   0.775
41333SOL    HW125838   6.693   8.877   0.756
41333SOL    HW225839   6.643   8.784   0.865
41334SOL     OW25840   3.127  13.725   4.366
41334SOL    HW125841   3.088  13.640   4.390
41334SOL    HW225842   3.193  13.740   4.434
41335SOL     OW25843  10.462   7.424   0.910
41335SOL    HW125844  10.438   7.338   0.876
41335SOL    HW225845  10.442   7.419   1.003
41336SOL     OW25846   2.913  12.945   6.527
41336SOL    HW125847   2.966  12.924   6.604
41336SOL    HW225848   2.883  13.034   6.543
41337SOL     OW25849   3.496  14.549   1.281
41337SOL    HW125850   3.439  14.491   1.331
41337SOL    HW225851   3.470  14.637   1.308
41338SOL     OW25852   3.799   9.044  12.765
41338SOL    HW125853   3.811   9.113  12.830
41338SOL    HW225854   3.862   9.065  12.696
41339SOL     OW25855   5.196  13.140   4.458
41339SOL    HW125856   5.267  13.200   4.437
41339SOL    HW225857   5.226  13.055   4.426
41340SOL     OW25858   8.080   7.735  10.712
41340SOL    HW125859   8.062   7.774  10.798
41340SOL    HW225860   8.082   7.641  10.728
41341SOL     OW25861   1.243   4.954  12.711
41341SOL    HW125862   1.248   5.049  12.696
41341SOL    HW225863   1.153   4.939  12.738
41342SOL     OW25864   6.281  12.299   8.005
41342SOL    HW125865   6.371  12.327   8.021
41342SOL    HW225866   6.287  12.205   7.993
41343SOL     OW25867  12.890  13.319   3.696
41343SOL    HW125868  12.935  13.260   3.758
41343SOL    HW225869  12.838  13.377   3.752
41344SOL     OW25870   1.035   0.131   5.865
41344SOL    HW125871   0.969   0.091   5.922
41344SOL    HW225872   0.986   0.197   5.815
41345SOL     OW25873  12.675  14.077  11.904
41345SOL    HW125874  12.711  14.106  11.988
41345SOL    HW225875  12.580  14.079  11.917
41346SOL     OW25876  13.556   7.225   8.393
41346SOL    HW125877  13.638   7.209   8.439
41346SOL    HW225878  13.581   7.279   8.318
41347SOL     OW25879  12.331   7.309   9.630
41347SOL    HW125880  12.414   7.261   9.636
41347SOL    HW225881  12.267   7.241   9.608
41348SOL     OW25882   5.579  10.736   2.292
41348SOL    HW125883   5.555  10.659   2.345
41348SOL    HW225884   5.500  10.790   2.293
41349SOL     OW25885   0.257   3.022   6.296
41349SOL    HW125886   0.324   3.082   6.328
41349SOL    HW225887   0.304   2.939   6.284
41350SOL     OW25888   7.129   3.299   2.105
41350SOL    HW125889   7.152   3.274   2.015
41350SOL    HW225890   7.073   3.376   2.095
41351SOL     OW25891   2.677  14.230   2.662
41351SOL    HW125892   2.650  14.142   2.689
41351SOL    HW225893   2.757  14.247   2.711
41352SOL     OW25894  11.461   5.840   9.695
41352SOL    HW125895  11.490   5.777   9.761
41352SOL    HW225896  11.411   5.788   9.632
41353SOL     OW25897  13.358  14.799   7.601
41353SOL    HW125898  13.399   0.007   7.575
41353SOL    HW225899  13.321  14.764   7.520
41354SOL     OW25900   8.715  12.536  14.741
41354SOL    HW125901   8.641  12.572  14.790
41354SOL    HW225902   8.699  12.563  14.650
41355SOL     OW25903   8.533   3.250   5.728
41355SOL    HW125904   8.448   3.215   5.753
41355SOL    HW225905   8.554   3.206   5.646
41356SOL     OW25906   2.958   4.738   9.533
41356SOL    HW125907   2.900   4.682   9.481
41356SOL    HW225908   2.996   4.799   9.469
41357SOL     OW25909   7.920   4.603   3.770
41357SOL    HW125910   7.917   4.612   3.865
41357SOL    HW225911   8.013   4.608   3.748
41358SOL     OW25912  14.089   9.760   7.999
41358SOL    HW125913  14.075   9.713   7.917
41358SOL    HW225914  14.055   9.848   7.983
41359SOL     OW25915   2.797   3.332   5.210
41359SOL    HW125916   2.844   3.285   5.278
41359SOL    HW225917   2.834   3.299   5.128
41360SOL     OW25918  14.409  13.924   8.090
41360SOL    HW125919  14.447  13.991   8.147
41360SOL    HW225920  14.400  13.847   8.146
41361SOL     OW25921   2.201  12.580   9.416
41361SOL    HW125922   2.217  12.558   9.508
41361SOL    HW225923   2.251  12.515   9.367
41362SOL     OW25924  13.447   5.864   1.435
41362SOL    HW125925  13.518   5.869   1.499
41362SOL    HW225926  13.480   5.803   1.368
41363SOL     OW25927   0.462  12.482   3.177
41363SOL    HW125928   0.483  12.471   3.270
41363SOL    HW225929   0.519  12.554   3.148
41364SOL     OW25930  10.453  13.394   1.971
41364SOL    HW125931  10.395  13.320   1.982
41364SOL    HW225932  10.408  13.467   2.015
41365SOL     OW25933   6.013   1.013   3.358
41365SOL    HW125934   6.058   0.941   3.314
41365SOL    HW225935   5.992   1.075   3.287
41366SOL     OW25936  12.098   3.200  12.286
41366SOL    HW125937  12.128   3.111  12.303
41366SOL    HW225938  12.166   3.238  12.230
41367SOL     OW25939   8.214   6.390   3.594
41367SOL    HW125940   8.135   6.443   3.606
41367SOL    HW225941   8.220   6.378   3.499
41368SOL     OW25942   1.359   7.622   3.522
41368SOL    HW125943   1.367   7.547   3.580
41368SOL    HW225944   1.321   7.691   3.577
41369SOL     OW25945  13.760   7.963   7.980
41369SOL    HW125946  13.670   7.931   7.980
41369SOL    HW225947  13.774   7.998   8.068
41370SOL     OW25948  13.169  11.627  12.204
41370SOL    HW125949  13.232  11.618  12.133
41370SOL    HW225950  13.086  11.596  12.167
41371SOL     OW25951  12.452   2.139   5.019
41371SOL    HW125952  12.486   2.217   5.061
41371SOL    HW225953  12.363   2.163   4.992
41372SOL     OW25954   7.994   5.839  11.898
41372SOL    HW125955   8.005   5.930  11.924
41372SOL    HW225956   8.083   5.805  11.887
41373SOL     OW25957   5.455   5.907  13.837
41373SOL    HW125958   5.486   5.991  13.868
41373SOL    HW225959   5.435   5.921  13.744
41374SOL     OW25960   9.533   4.442   6.412
41374SOL    HW125961   9.500   4.498   6.482
41374SOL    HW225962   9.497   4.479   6.331
41375SOL     OW25963  13.408   4.459  10.623
41375SOL    HW125964  13.453   4.523  10.679
41375SOL    HW225965  13.318   4.457  10.656
41376SOL     OW25966   0.563   9.493   6.229
41376SOL    HW125967   0.515   9.469   6.308
41376SOL    HW225968   0.496   9.516   6.165
41377SOL     OW25969   1.116   4.580   3.111
41377SOL    HW125970   1.041   4.532   3.145
41377SOL    HW225971   1.117   4.662   3.160
41378SOL     OW25972  13.686   4.011  13.898
41378SOL    HW125973  13.690   3.933  13.954
41378SOL    HW225974  13.651   4.079  13.955
41379SOL     OW25975   4.649  10.051   8.725
41379SOL    HW125976   4.647   9.978   8.663
41379SOL    HW225977   4.695  10.120   8.679
41380SOL     OW25978   8.988  12.545   2.401
41380SOL    HW125979   8.944  12.489   2.337
41380SOL    HW225980   8.983  12.633   2.363
41381SOL     OW25981   8.589   5.779  12.729
41381SOL    HW125982   8.556   5.692  12.706
41381SOL    HW225983   8.579   5.830  12.648
41382SOL     OW25984  11.258   5.290   6.911
41382SOL    HW125985  11.213   5.356   6.964
41382SOL    HW225986  11.262   5.329   6.823
41383SOL     OW25987  13.697  11.653   1.943
41383SOL    HW125988  13.749  11.733   1.938
41383SOL    HW225989  13.660  11.643   1.855
41384SOL     OW25990  12.243   9.743   4.351
41384SOL    HW125991  12.229   9.680   4.280
41384SOL    HW225992  12.301   9.809   4.314
41385SOL     OW25993   4.968  14.236   2.850
41385SOL    HW125994   5.010  14.150   2.843
41385SOL    HW225995   4.964  14.253   2.944
41386SOL     OW25996  12.342   9.158   3.935
41386SOL    HW125997  12.367   9.210   3.859
41386SOL    HW225998  12.279   9.213   3.982
41387SOL     OW25999   2.598   6.863  10.305
41387SOL    HW126000   2.688   6.832  10.313
41387SOL    HW226001   2.565   6.864  10.394
41388SOL     OW26002   5.738  13.141   3.315
41388SOL    HW126003   5.747  13.134   3.410
41388SOL    HW226004   5.689  13.223   3.301
41389SOL     OW26005   0.723   8.042   7.461
41389SOL    HW126006   0.764   8.122   7.427
41389SOL    HW226007   0.687   8.067   7.546
41390SOL     OW26008   1.239   3.496   0.446
41390SOL    HW126009   1.164   3.553   0.467
41390SOL    HW226010   1.216   3.457   0.362
41391SOL     OW26011   4.347   4.589   5.686
41391SOL    HW126012   4.301   4.630   5.613
41391SOL    HW226013   4.387   4.511   5.647
41392SOL     OW26014   8.942   5.476   5.008
41392SOL    HW126015   9.018   5.489   4.952
41392SOL    HW226016   8.869   5.510   4.958
41393SOL     OW26017  14.420   2.843  11.391
41393SOL    HW126018  14.374   2.919  11.357
41393SOL    HW226019  14.458   2.873  11.474
41394SOL     OW26020  11.354   6.263  11.156
41394SOL    HW126021  11.274   6.216  11.132
41394SOL    HW226022  11.424   6.213  11.116
41395SOL     OW26023   3.107  11.617   3.501
41395SOL    HW126024   3.092  11.650   3.412
41395SOL    HW226025   3.105  11.522   3.492
41396SOL     OW26026   1.700   8.139   2.902
41396SOL    HW126027   1.613   8.135   2.943
41396SOL    HW226028   1.760   8.151   2.975
41397SOL     OW26029   6.985   8.164  12.157
41397SOL    HW126030   6.924   8.238  12.152
41397SOL    HW226031   6.975   8.132  12.247
41398SOL     OW26032  14.103  10.749   1.256
41398SOL    HW126033  14.111  10.755   1.351
41398SOL    HW226034  14.187  10.781   1.223
41399SOL     OW26035   4.339   3.524  11.554
41399SOL    HW126036   4.273   3.455  11.561
41399SOL    HW226037   4.309   3.593  11.614
41400SOL     OW26038   3.438  12.015   2.216
41400SOL    HW126039   3.514  11.967   2.249
41400SOL    HW226040   3.424  12.085   2.279
41401SOL     OW26041   7.592  12.004   9.514
41401SOL    HW126042   7.667  12.026   9.458
41401SOL    HW226043   7.621  11.926   9.562
41402SOL     OW26044  13.566  10.442  14.381
41402SOL    HW126045  13.547  10.438  14.287
41402SOL    HW226046  13.567  10.351  14.409
41403SOL     OW26047  13.007   2.851   9.964
41403SOL    HW126048  12.987   2.876  10.054
41403SOL    HW226049  13.050   2.766   9.972
41404SOL     OW26050  11.302   1.306   8.716
41404SOL    HW126051  11.368   1.374   8.704
41404SOL    HW226052  11.290   1.301   8.811
41405SOL     OW26053  14.024   7.753  13.970
41405SOL    HW126054  14.052   7.670  14.009
41405SOL    HW226055  14.089   7.771  13.903
41406SOL     OW26056   4.708   8.694   2.732
41406SOL    HW126057   4.685   8.781   2.764
41406SOL    HW226058   4.804   8.694   2.729
41407SOL     OW26059   6.579   2.888   0.255
41407SOL    HW126060   6.609   2.811   0.303
41407SOL    HW226061   6.514   2.928   0.313
41408SOL     OW26062   2.156   2.776   8.968
41408SOL    HW126063   2.161   2.871   8.957
41408SOL    HW226064   2.230   2.753   9.024
41409SOL     OW26065  13.666   9.131   9.287
41409SOL    HW126066  13.686   9.206   9.343
41409SOL    HW226067  13.646   9.060   9.348
41410SOL     OW26068   2.093   4.534  13.206
41410SOL    HW126069   2.061   4.487  13.129
41410SOL    HW226070   2.030   4.514  13.275
41411SOL     OW26071  14.748   1.735   9.568
41411SOL    HW126072  14.764   1.762   9.659
41411SOL    HW226073  14.826   1.686   9.544
41412SOL     OW26074   5.887   5.672   5.290
41412SOL    HW126075   5.826   5.657   5.362
41412SOL    HW226076   5.882   5.766   5.273
41413SOL     OW26077  10.121   6.202  13.341
41413SOL    HW126078  10.113   6.107  13.332
41413SOL    HW226079  10.177   6.213  13.418
41414SOL     OW26080   7.488   9.261   6.730
41414SOL    HW126081   7.479   9.309   6.648
41414SOL    HW226082   7.404   9.216   6.741
41415SOL     OW26083   5.120   5.356   2.254
41415SOL    HW126084   5.177   5.291   2.213
41415SOL    HW226085   5.155   5.440   2.225
41416SOL     OW26086   8.033   5.174   7.399
41416SOL    HW126087   8.086   5.253   7.398
41416SOL    HW226088   8.096   5.102   7.391
41417SOL     OW26089  11.650   9.898   1.509
41417SOL    HW126090  11.642   9.927   1.418
41417SOL    HW226091  11.655   9.802   1.502
41418SOL     OW26092   4.916  12.406  11.005
41418SOL    HW126093   4.954  12.318  11.008
41418SOL    HW226094   4.986  12.463  11.038
41419SOL     OW26095   5.248   2.714  14.215
41419SOL    HW126096   5.259   2.639  14.157
41419SOL    HW226097   5.216   2.676  14.297
41420SOL     OW26098  10.390   9.727   8.441
41420SOL    HW126099  10.396   9.690   8.529
41420SOL    HW226100  10.469   9.697   8.396
41421SOL     OW26101   2.144   9.530   5.330
41421SOL    HW126102   2.174   9.486   5.409
41421SOL    HW226103   2.052   9.548   5.345
41422SOL     OW26104   4.395   6.638   0.075
41422SOL    HW126105   4.454   6.664   0.146
41422SOL    HW226106   4.326   6.588   0.119
41423SOL     OW26107   0.612   3.419   9.828
41423SOL    HW126108   0.567   3.336   9.812
41423SOL    HW226109   0.669   3.430   9.751
41424SOL     OW26110   8.323   4.706   5.334
41424SOL    HW126111   8.308   4.649   5.259
41424SOL    HW226112   8.348   4.647   5.405
41425SOL     OW26113   5.556   7.365  10.408
41425SOL    HW126114   5.527   7.324  10.327
41425SOL    HW226115   5.651   7.352  10.408
41426SOL     OW26116   0.958  13.802   4.046
41426SOL    HW126117   0.973  13.709   4.066
41426SOL    HW226118   1.013  13.850   4.108
41427SOL     OW26119   7.613   6.881   4.132
41427SOL    HW126120   7.578   6.893   4.044
41427SOL    HW226121   7.678   6.811   4.122
41428SOL     OW26122  11.295   4.065   6.721
41428SOL    HW126123  11.286   4.127   6.794
41428SOL    HW226124  11.225   4.001   6.735
41429SOL     OW26125  12.544   8.299  14.627
41429SOL    HW126126  12.553   8.293  14.532
41429SOL    HW226127  12.454   8.271  14.644
41430SOL     OW26128  13.626   5.450  14.573
41430SOL    HW126129  13.648   5.362  14.543
41430SOL    HW226130  13.707   5.500  14.560
41431SOL     OW26131   3.319   8.937   0.554
41431SOL    HW126132   3.386   8.978   0.499
41431SOL    HW226133   3.306   8.850   0.517
41432SOL     OW26134  14.653   9.854   9.099
41432SOL    HW126135  14.567   9.817   9.082
41432SOL    HW226136  14.636   9.927   9.159
41433SOL     OW26137  10.899   1.285   1.802
41433SOL    HW126138  10.901   1.205   1.853
41433SOL    HW226139  10.805   1.302   1.788
41434SOL     OW26140   2.928   8.683   6.275
41434SOL    HW126141   3.004   8.634   6.306
41434SOL    HW226142   2.953   8.775   6.284
41435SOL     OW26143  14.621   6.197  14.791
41435SOL    HW126144  14.628   6.282  14.834
41435SOL    HW226145  14.564   6.213  14.716
41436SOL     OW26146   2.711   2.599   2.878
41436SOL    HW126147   2.793   2.621   2.835
41436SOL    HW226148   2.645   2.650   2.833
41437SOL     OW26149   8.524  11.676   0.787
41437SOL    HW126150   8.457  11.691   0.854
41437SOL    HW226151   8.534  11.581   0.785
41438SOL     OW26152   4.023   9.604   1.062
41438SOL    HW126153   4.116   9.602   1.038
41438SOL    HW226154   4.002   9.513   1.083
41439SOL     OW26155  11.532   2.241   8.020
41439SOL    HW126156  11.496   2.282   7.942
41439SOL    HW226157  11.458   2.195   8.060
41440SOL     OW26158   3.391   0.125  13.229
41440SOL    HW126159   3.445   0.050  13.251
41440SOL    HW226160   3.429   0.198  13.279
41441SOL     OW26161  14.038  14.421   0.141
41441SOL    HW126162  14.111  14.384   0.191
41441SOL    HW226163  13.965  14.361   0.158
41442SOL     OW26164   4.016   2.949   0.151
41442SOL    HW126165   3.985   2.943   0.061
41442SOL    HW226166   4.108   2.923   0.147
41443SOL     OW26167  11.774   6.820   6.867
41443SOL    HW126168  11.680   6.838   6.856
41443SOL    HW226169  11.790   6.743   6.813
41444SOL     OW26170   4.122  10.530   5.994
41444SOL    HW126171   4.034  10.506   6.024
41444SOL    HW226172   4.143  10.465   5.927
41445SOL     OW26173   4.657  11.483   1.260
41445SOL    HW126174   4.586  11.424   1.285
41445SOL    HW226175   4.616  11.550   1.206
41446SOL     OW26176   0.572   2.016   5.614
41446SOL    HW126177   0.502   2.063   5.569
41446SOL    HW226178   0.555   2.030   5.707
41447SOL     OW26179  14.597  14.630   0.176
41447SOL    HW126180  14.601  14.677   0.259
41447SOL    HW226181  14.546  14.551   0.195
41448SOL     OW26182   1.621   1.949   7.150
41448SOL    HW126183   1.673   1.914   7.223
41448SOL    HW226184   1.683   1.951   7.076
41449SOL     OW26185   7.541  10.667  13.973
41449SOL    HW126186   7.586  10.729  14.031
41449SOL    HW226187   7.480  10.720  13.924
41450SOL     OW26188   3.009   9.397   8.532
41450SOL    HW126189   2.918   9.399   8.503
41450SOL    HW226190   3.022   9.481   8.576
41451SOL     OW26191   8.658   0.625  12.941
41451SOL    HW126192   8.717   0.553  12.965
41451SOL    HW226193   8.678   0.695  13.003
41452SOL     OW26194  14.594   9.107  10.906
41452SOL    HW126195  14.659   9.093  10.837
41452SOL    HW226196  14.623   9.187  10.950
41453SOL     OW26197   1.961   1.297  12.100
41453SOL    HW126198   1.978   1.389  12.120
41453SOL    HW226199   1.873   1.281  12.134
41454SOL     OW26200   9.731  13.700   2.317
41454SOL    HW126201   9.715  13.637   2.387
41454SOL    HW226202   9.769  13.776   2.361
41455SOL     OW26203   5.386   5.410   1.021
41455SOL    HW126204   5.450   5.379   0.957
41455SOL    HW226205   5.318   5.342   1.022
41456SOL     OW26206  11.359   4.705   6.526
41456SOL    HW126207  11.334   4.614   6.510
41456SOL    HW226208  11.327   4.752   6.450
41457SOL     OW26209   1.232  12.027   5.476
41457SOL    HW126210   1.278  12.090   5.532
41457SOL    HW226211   1.179  11.976   5.537
41458SOL     OW26212   1.690   1.368   2.208
41458SOL    HW126213   1.691   1.426   2.131
41458SOL    HW226214   1.612   1.315   2.197
41459SOL     OW26215   0.924   5.145  12.178
41459SOL    HW126216   0.880   5.128  12.094
41459SOL    HW226217   0.926   5.241  12.184
41460SOL     OW26218   1.965   9.142  10.004
41460SOL    HW126219   1.990   9.227   9.966
41460SOL    HW226220   1.872   9.134   9.984
41461SOL     OW26221   4.257   6.890   7.030
41461SOL    HW126222   4.323   6.899   7.099
41461SOL    HW226223   4.307   6.870   6.952
41462SOL     OW26224   4.095   2.209  14.605
41462SOL    HW126225   4.085   2.296  14.566
41462SOL    HW226226   4.077   2.221  14.698
41463SOL     OW26227   7.395   8.653   9.885
41463SOL    HW126228   7.328   8.629   9.820
41463SOL    HW226229   7.409   8.747   9.870
41464SOL     OW26230  13.975   6.393   7.490
41464SOL    HW126231  13.934   6.314   7.455
41464SOL    HW226232  14.061   6.365   7.519
41465SOL     OW26233  12.827  12.294   4.377
41465SOL    HW126234  12.759  12.338   4.325
41465SOL    HW226235  12.865  12.231   4.317
41466SOL     OW26236  12.567   5.394  12.409
41466SOL    HW126237  12.616   5.372  12.329
41466SOL    HW226238  12.605   5.337  12.476
41467SOL     OW26239  10.697   6.604   0.970
41467SOL    HW126240  10.656   6.656   0.902
41467SOL    HW226241  10.665   6.515   0.956
41468SOL     OW26242   1.391   9.557  12.682
41468SOL    HW126243   1.327   9.588  12.618
41468SOL    HW226244   1.476   9.584  12.646
41469SOL     OW26245  11.916   9.125   1.418
41469SOL    HW126246  11.884   9.216   1.418
41469SOL    HW226247  11.998   9.129   1.369
41470SOL     OW26248   4.697   1.762   2.048
41470SOL    HW126249   4.607   1.733   2.064
41470SOL    HW226250   4.704   1.845   2.094
41471SOL     OW26251  13.290   3.655  12.141
41471SOL    HW126252  13.293   3.609  12.225
41471SOL    HW226253  13.262   3.589  12.078
41472SOL     OW26254  14.171   8.008   3.913
41472SOL    HW126255  14.104   7.963   3.964
41472SOL    HW226256  14.131   8.019   3.826
41473SOL     OW26257   3.727   2.525   2.035
41473SOL    HW126258   3.642   2.555   2.002
41473SOL    HW226259   3.717   2.523   2.130
41474SOL     OW26260  12.364   1.526  11.360
41474SOL    HW126261  12.281   1.477  11.360
41474SOL    HW226262  12.354   1.589  11.432
41475SOL     OW26263  14.091   7.978   9.391
41475SOL    HW126264  14.070   7.885   9.389
41475SOL    HW226265  14.042   8.013   9.465
41476SOL     OW26266   9.279   9.272   4.200
41476SOL    HW126267   9.359   9.276   4.148
41476SOL    HW226268   9.260   9.363   4.223
41477SOL     OW26269   6.417   9.501  14.267
41477SOL    HW126270   6.334   9.454  14.256
41477SOL    HW226271   6.479   9.433  14.290
41478SOL     OW26272   1.341   3.835   7.405
41478SOL    HW126273   1.377   3.914   7.446
41478SOL    HW226274   1.285   3.798   7.473
41479SOL     OW26275  14.658   1.861   4.729
41479SOL    HW126276  14.701   1.780   4.758
41479SOL    HW226277  14.728   1.926   4.729
41480SOL     OW26278  12.200   7.985   6.321
41480SOL    HW126279  12.280   7.960   6.275
41480SOL    HW226280  12.145   7.907   6.318
41481SOL     OW26281   0.606   0.767   0.902
41481SOL    HW126282   0.583   0.674   0.895
41481SOL    HW226283   0.641   0.789   0.815
41482SOL     OW26284   3.758   3.837  13.718
41482SOL    HW126285   3.715   3.772  13.774
41482SOL    HW226286   3.696   3.909  13.714
41483SOL     OW26287   9.069  14.359   7.226
41483SOL    HW126288   9.055  14.283   7.283
41483SOL    HW226289   9.045  14.434   7.281
41484SOL     OW26290   4.137   1.399  14.790
41484SOL    HW126291   4.131   1.304  14.799
41484SOL    HW226292   4.115   1.433   0.002
41485SOL     OW26293   3.105   9.572   2.489
41485SOL    HW126294   3.191   9.609   2.471
41485SOL    HW226295   3.046   9.615   2.427
41486SOL     OW26296   6.909  10.083  11.905
41486SOL    HW126297   6.959  10.017  11.954
41486SOL    HW226298   6.871  10.034  11.832
41487SOL     OW26299   6.923   8.384   3.686
41487SOL    HW126300   6.833   8.367   3.658
41487SOL    HW226301   6.967   8.417   3.607
41488SOL     OW26302  14.445   8.365   3.252
41488SOL    HW126303  14.354   8.339   3.268
41488SOL    HW226304  14.439   8.439   3.193
41489SOL     OW26305  14.377   9.529   4.970
41489SOL    HW126306  14.386   9.623   4.988
41489SOL    HW226307  14.354   9.525   4.877
41490SOL     OW26308   3.758   9.206  14.037
41490SOL    HW126309   3.706   9.145  14.090
41490SOL    HW226310   3.721   9.199  13.949
41491SOL     OW26311  13.278   7.651  11.665
41491SOL    HW126312  13.250   7.569  11.705
41491SOL    HW226313  13.320   7.625  11.584
41492SOL     OW26314   7.011  14.197   6.459
41492SOL    HW126315   7.022  14.153   6.543
41492SOL    HW226316   7.045  14.285   6.474
41493SOL     OW26317   6.136  13.001   2.087
41493SOL    HW126318   6.177  12.990   2.173
41493SOL    HW226319   6.178  13.080   2.051
41494SOL     OW26320   3.962   0.067   4.155
41494SOL    HW126321   3.939   0.111   4.073
41494SOL    HW226322   3.957  14.848   4.135
41495SOL     OW26323   9.050   0.679   0.396
41495SOL    HW126324   8.967   0.640   0.426
41495SOL    HW226325   9.078   0.734   0.469
41496SOL     OW26326   5.571  10.950   4.561
41496SOL    HW126327   5.482  10.937   4.594
41496SOL    HW226328   5.588  10.872   4.508
41497SOL     OW26329   1.196   0.677  10.586
41497SOL    HW126330   1.211   0.748  10.649
41497SOL    HW226331   1.201   0.720  10.501
41498SOL     OW26332   5.021   7.586  11.879
41498SOL    HW126333   5.103   7.541  11.897
41498SOL    HW226334   4.953   7.519  11.889
41499SOL     OW26335  12.938  10.551   1.267
41499SOL    HW126336  12.931  10.554   1.171
41499SOL    HW226337  12.951  10.459   1.287
41500SOL     OW26338   9.598   7.154   8.240
41500SOL    HW126339   9.558   7.227   8.287
41500SOL    HW226340   9.542   7.079   8.262
41501SOL     OW26341   8.551  11.178  11.017
41501SOL    HW126342   8.547  11.094  10.971
41501SOL    HW226343   8.487  11.233  10.972
41502SOL     OW26344   1.660  12.792   0.483
41502SOL    HW126345   1.600  12.729   0.524
41502SOL    HW226346   1.614  12.821   0.405
41503SOL     OW26347   4.520   6.154   0.391
41503SOL    HW126348   4.462   6.211   0.340
41503SOL    HW226349   4.608   6.179   0.365
41504SOL     OW26350  11.521  11.340  10.678
41504SOL    HW126351  11.485  11.333  10.767
41504SOL    HW226352  11.585  11.269  10.673
41505SOL     OW26353   9.587  14.098   9.067
41505SOL    HW126354   9.678  14.102   9.039
41505SOL    HW226355   9.585  14.027   9.132
41506SOL     OW26356   6.427   6.927  13.726
41506SOL    HW126357   6.449   6.996  13.662
41506SOL    HW226358   6.386   6.974  13.798
41507SOL     OW26359   4.686   5.241   2.257
41507SOL    HW126360   4.694   5.196   2.173
41507SOL    HW226361   4.750   5.312   2.251
41508SOL     OW26362   7.845   9.036  13.830
41508SOL    HW126363   7.910   8.984  13.877
41508SOL    HW226364   7.820   9.104  13.893
41509SOL     OW26365   5.750   1.502   8.812
41509SOL    HW126366   5.787   1.548   8.736
41509SOL    HW226367   5.772   1.410   8.797
41510SOL     OW26368   3.075   2.707   5.751
41510SOL    HW126369   2.989   2.673   5.730
41510SOL    HW226370   3.118   2.636   5.799
41511SOL     OW26371   6.085  10.707   9.098
41511SOL    HW126372   6.012  10.683   9.042
41511SOL    HW226373   6.128  10.624   9.119
41512SOL     OW26374   1.544   4.779   2.468
41512SOL    HW126375   1.542   4.727   2.548
41512SOL    HW226376   1.528   4.869   2.498
41513SOL     OW26377   2.382   2.309   8.146
41513SOL    HW126378   2.289   2.312   8.166
41513SOL    HW226379   2.397   2.219   8.114
41514SOL     OW26380  12.914   7.433   8.800
41514SOL    HW126381  12.915   7.488   8.722
41514SOL    HW226382  12.986   7.465   8.854
41515SOL     OW26383   3.504   9.480   0.541
41515SOL    HW126384   3.471   9.514   0.458
41515SOL    HW226385   3.498   9.385   0.533
41516SOL     OW26386  13.367   3.418   2.828
41516SOL    HW126387  13.374   3.323   2.833
41516SOL    HW226388  13.305   3.441   2.898
41517SOL     OW26389   7.392  13.577   1.684
41517SOL    HW126390   7.367  13.638   1.753
41517SOL    HW226391   7.353  13.613   1.604
41518SOL     OW26392   1.522   4.756   0.478
41518SOL    HW126393   1.445   4.811   0.465
41518SOL    HW226394   1.596   4.816   0.469
41519SOL     OW26395  10.472   2.229   2.983
41519SOL    HW126396  10.568   2.239   2.983
41519SOL    HW226397  10.448   2.226   3.075
41520SOL     OW26398   7.131   2.881  11.482
41520SOL    HW126399   7.086   2.942  11.424
41520SOL    HW226400   7.065   2.852  11.544
41521SOL     OW26401  10.402  11.991   3.780
41521SOL    HW126402  10.374  12.023   3.865
41521SOL    HW226403  10.329  11.937   3.749
41522SOL     OW26404   1.415   5.555  12.784
41522SOL    HW126405   1.452   5.521  12.866
41522SOL    HW226406   1.346   5.615  12.813
41523SOL     OW26407   8.497   2.224   9.311
41523SOL    HW126408   8.441   2.201   9.385
41523SOL    HW226409   8.533   2.310   9.335
41524SOL     OW26410  14.849   8.895  14.273
41524SOL    HW126411  14.825   8.845  14.351
41524SOL    HW226412   0.052   8.849  14.239
41525SOL     OW26413   2.282  12.031   7.219
41525SOL    HW126414   2.229  12.068   7.290
41525SOL    HW226415   2.218  12.003   7.154
41526SOL     OW26416   3.024  10.204   9.579
41526SOL    HW126417   3.106  10.248   9.559
41526SOL    HW226418   2.981  10.262   9.642
41527SOL     OW26419   0.855   4.846   7.349
41527SOL    HW126420   0.764   4.865   7.372
41527SOL    HW226421   0.907   4.901   7.407
41528SOL     OW26422   2.465   4.119   8.578
41528SOL    HW126423   2.519   4.190   8.611
41528SOL    HW226424   2.528   4.052   8.550
41529SOL     OW26425   4.475   1.151  11.715
41529SOL    HW126426   4.405   1.087  11.724
41529SOL    HW226427   4.511   1.135  11.628
41530SOL     OW26428   0.419   4.134   1.173
41530SOL    HW126429   0.412   4.059   1.114
41530SOL    HW226430   0.371   4.204   1.128
41531SOL     OW26431  13.684  11.528  11.113
41531SOL    HW126432  13.708  11.602  11.058
41531SOL    HW226433  13.716  11.451  11.066
41532SOL     OW26434   2.930   4.125   3.728
41532SOL    HW126435   3.018   4.128   3.691
41532SOL    HW226436   2.878   4.080   3.662
41533SOL     OW26437   0.512   0.667   5.126
41533SOL    HW126438   0.554   0.615   5.057
41533SOL    HW226439   0.422   0.679   5.096
41534SOL     OW26440   9.365   5.462   9.255
41534SOL    HW126441   9.328   5.393   9.310
41534SOL    HW226442   9.428   5.417   9.199
41535SOL     OW26443  13.887   0.858   4.704
41535SOL    HW126444  13.905   0.794   4.635
41535SOL    HW226445  13.843   0.930   4.658
41536SOL     OW26446   9.862   1.223  10.326
41536SOL    HW126447   9.801   1.227  10.400
41536SOL    HW226448   9.821   1.278  10.259
41537SOL     OW26449   6.384   4.641   6.840
41537SOL    HW126450   6.443   4.697   6.789
41537SOL    HW226451   6.312   4.698   6.865
41538SOL     OW26452   8.273  10.117  14.538
41538SOL    HW126453   8.277  10.211  14.524
41538SOL    HW226454   8.304  10.079  14.455
41539SOL     OW26455   0.273   9.182   7.692
41539SOL    HW126456   0.313   9.264   7.722
41539SOL    HW226457   0.187   9.181   7.734
41540SOL     OW26458   8.803  14.322   5.515
41540SOL    HW126459   8.815  14.400   5.460
41540SOL    HW226460   8.821  14.353   5.604
41541SOL     OW26461  13.301   7.414   7.517
41541SOL    HW126462  13.219   7.373   7.491
41541SOL    HW226463  13.302   7.406   7.613
41542SOL     OW26464  12.886   0.466   4.062
41542SOL    HW126465  12.921   0.489   4.148
41542SOL    HW226466  12.961   0.469   4.003
41543SOL     OW26467  11.811   6.331   9.991
41543SOL    HW126468  11.785   6.410  10.039
41543SOL    HW226469  11.741   6.318   9.926
41544SOL     OW26470  10.938   2.097   9.696
41544SOL    HW126471  10.971   2.008   9.697
41544SOL    HW226472  10.888   2.106   9.778
41545SOL     OW26473   5.304   0.562  11.834
41545SOL    HW126474   5.292   0.489  11.894
41545SOL    HW226475   5.216   0.595  11.816
41546SOL     OW26476  10.930   4.148  10.233
41546SOL    HW126477  11.013   4.174  10.272
41546SOL    HW226478  10.876   4.227  10.238
41547SOL     OW26479  10.857   3.585  13.420
41547SOL    HW126480  10.868   3.503  13.371
41547SOL    HW226481  10.805   3.561  13.496
41548SOL     OW26482   4.838   1.069  14.558
41548SOL    HW126483   4.912   1.130  14.562
41548SOL    HW226484   4.845   1.018  14.638
41549SOL     OW26485   7.845  13.025   3.858
41549SOL    HW126486   7.924  12.972   3.869
41549SOL    HW226487   7.792  12.977   3.795
41550SOL     OW26488  12.079  11.385   1.213
41550SOL    HW126489  12.036  11.353   1.133
41550SOL    HW226490  12.021  11.358   1.284
41551SOL     OW26491   1.509  10.282   2.953
41551SOL    HW126492   1.588  10.313   2.910
41551SOL    HW226493   1.534  10.200   2.995
41552SOL     OW26494  10.998   4.523  13.314
41552SOL    HW126495  11.016   4.429  13.310
41552SOL    HW226496  10.971   4.545  13.225
41553SOL     OW26497   7.674   4.394   4.001
41553SOL    HW126498   7.611   4.449   3.953
41553SOL    HW226499   7.712   4.337   3.934
41554SOL     OW26500   9.017   8.954  13.140
41554SOL    HW126501   9.078   9.021  13.109
41554SOL    HW226502   8.993   8.906  13.060
41555SOL     OW26503   0.272   1.981   6.029
41555SOL    HW126504   0.287   1.937   5.945
41555SOL    HW226505   0.197   1.936   6.067
41556SOL     OW26506   6.667   5.402   4.642
41556SOL    HW126507   6.654   5.351   4.721
41556SOL    HW226508   6.660   5.493   4.670
41557SOL     OW26509   9.084  12.227   6.062
41557SOL    HW126510   8.996  12.190   6.073
41557SOL    HW226511   9.105  12.210   5.970
41558SOL     OW26512   1.150  14.627   1.000
41558SOL    HW126513   1.134  14.718   0.975
41558SOL    HW226514   1.226  14.630   1.057
41559SOL     OW26515  14.162  14.756   7.892
41559SOL    HW126516  14.144  14.825   7.829
41559SOL    HW226517  14.086  14.756   7.950
41560SOL     OW26518  14.493   2.975  11.652
41560SOL    HW126519  14.542   3.017  11.723
41560SOL    HW226520  14.407   3.018  11.654
41561SOL     OW26521   2.756   1.575  12.215
41561SOL    HW126522   2.745   1.530  12.299
41561SOL    HW226523   2.837   1.539  12.179
41562SOL     OW26524   3.741  14.239   7.598
41562SOL    HW126525   3.674  14.307   7.592
41562SOL    HW226526   3.821  14.285   7.621
41563SOL     OW26527   8.737  11.271  14.246
41563SOL    HW126528   8.662  11.213  14.236
41563SOL    HW226529   8.700  11.359  14.250
41564SOL     OW26530   2.456  13.965   9.023
41564SOL    HW126531   2.450  14.044   9.077
41564SOL    HW226532   2.403  13.901   9.070
41565SOL     OW26533  10.760  14.560  12.165
41565SOL    HW126534  10.820  14.567  12.091
41565SOL    HW226535  10.809  14.512  12.232
41566SOL     OW26536  11.308  14.755   0.183
41566SOL    HW126537  11.381  14.740   0.123
41566SOL    HW226538  11.259  14.827   0.143
41567SOL     OW26539  12.235   6.256   7.737
41567SOL    HW126540  12.222   6.350   7.727
41567SOL    HW226541  12.258   6.225   7.649
41568SOL     OW26542   7.764   7.989  12.050
41568SOL    HW126543   7.742   7.952  12.135
41568SOL    HW226544   7.723   8.076  12.050
41569SOL     OW26545   2.491   6.834   2.911
41569SOL    HW126546   2.544   6.770   2.959
41569SOL    HW226547   2.444   6.782   2.846
41570SOL     OW26548  14.044   2.711  11.770
41570SOL    HW126549  14.041   2.788  11.828
41570SOL    HW226550  14.114   2.731  11.708
41571SOL     OW26551   4.717   6.673   4.545
41571SOL    HW126552   4.666   6.594   4.527
41571SOL    HW226553   4.656   6.745   4.526
41572SOL     OW26554  12.283  13.155   7.341
41572SOL    HW126555  12.285  13.063   7.316
41572SOL    HW226556  12.202  13.165   7.392
41573SOL     OW26557   3.497  10.917   1.887
41573SOL    HW126558   3.559  10.955   1.950
41573SOL    HW226559   3.502  10.822   1.903
41574SOL     OW26560   3.076   4.429  13.832
41574SOL    HW126561   3.138   4.493  13.795
41574SOL    HW226562   3.035   4.389  13.756
41575SOL     OW26563   5.890  12.086  14.414
41575SOL    HW126564   5.828  12.127  14.355
41575SOL    HW226565   5.974  12.126  14.393
41576SOL     OW26566  14.584   8.642  12.443
41576SOL    HW126567  14.578   8.737  12.434
41576SOL    HW226568  14.545   8.624  12.529
41577SOL     OW26569   4.823   4.222   4.654
41577SOL    HW126570   4.801   4.301   4.702
41577SOL    HW226571   4.738   4.183   4.632
41578SOL     OW26572   0.326   8.795   6.516
41578SOL    HW126573   0.384   8.761   6.584
41578SOL    HW226574   0.377   8.786   6.435
41579SOL     OW26575  11.779   6.148  12.300
41579SOL    HW126576  11.725   6.213  12.346
41579SOL    HW226577  11.748   6.064  12.332
41580SOL     OW26578   5.687   5.262   4.953
41580SOL    HW126579   5.693   5.345   4.999
41580SOL    HW226580   5.625   5.210   5.004
41581SOL     OW26581  14.178   4.874   2.853
41581SOL    HW126582  14.225   4.863   2.770
41581SOL    HW226583  14.248   4.886   2.918
41582SOL     OW26584  13.678  13.913   8.402
41582SOL    HW126585  13.661  13.883   8.312
41582SOL    HW226586  13.726  13.840   8.442
41583SOL     OW26587   5.928   6.464  13.134
41583SOL    HW126588   5.870   6.518  13.081
41583SOL    HW226589   5.988   6.424  13.072
41584SOL     OW26590  12.584  13.220   3.080
41584SOL    HW126591  12.643  13.154   3.043
41584SOL    HW226592  12.575  13.286   3.012
41585SOL     OW26593   1.644   5.076  14.264
41585SOL    HW126594   1.567   5.087  14.208
41585SOL    HW226595   1.718   5.075  14.204
41586SOL     OW26596   9.112  12.820   5.319
41586SOL    HW126597   9.180  12.754   5.326
41586SOL    HW226598   9.047  12.780   5.260
41587SOL     OW26599   3.461  11.140  12.323
41587SOL    HW126600   3.390  11.119  12.262
41587SOL    HW226601   3.456  11.072  12.390
41588SOL     OW26602   6.364  10.271  12.844
41588SOL    HW126603   6.447  10.244  12.807
41588SOL    HW226604   6.324  10.190  12.877
41589SOL     OW26605   8.460   7.410  10.465
41589SOL    HW126606   8.366   7.421  10.453
41589SOL    HW226607   8.500   7.480  10.413
41590SOL     OW26608   2.794  14.222   3.709
41590SOL    HW126609   2.822  14.133   3.687
41590SOL    HW226610   2.776  14.219   3.803
41591SOL     OW26611  13.858   0.525  10.787
41591SOL    HW126612  13.809   0.492  10.862
41591SOL    HW226613  13.792   0.566  10.731
41592SOL     OW26614  14.865   5.460   7.175
41592SOL    HW126615  14.871   5.539   7.122
41592SOL    HW226616   0.082   5.433   7.187
41593SOL     OW26617  12.131  11.541   5.714
41593SOL    HW126618  12.050  11.494   5.733
41593SOL    HW226619  12.105  11.634   5.714
41594SOL     OW26620  11.082  12.124   5.426
41594SOL    HW126621  11.055  12.059   5.491
41594SOL    HW226622  11.013  12.122   5.360
41595SOL     OW26623   6.847   2.792   6.838
41595SOL    HW126624   6.843   2.701   6.868
41595SOL    HW226625   6.926   2.827   6.879
41596SOL     OW26626  11.983  10.353  12.875
41596SOL    HW126627  12.070  10.315  12.888
41596SOL    HW226628  11.932  10.323  12.951
41597SOL     OW26629  10.052   5.857   3.636
41597SOL    HW126630  10.098   5.823   3.713
41597SOL    HW226631   9.960   5.854   3.660
41598SOL     OW26632   5.170   6.813   4.072
41598SOL    HW126633   5.087   6.847   4.106
41598SOL    HW226634   5.145   6.742   4.013
41599SOL     OW26635   3.962  12.451  12.374
41599SOL    HW126636   4.008  12.535  12.373
41599SOL    HW226637   3.939  12.434  12.283
41600SOL     OW26638   8.354  10.789   6.929
41600SOL    HW126639   8.439  10.755   6.956
41600SOL    HW226640   8.362  10.802   6.834
41601SOL     OW26641   2.991   2.275   1.953
41601SOL    HW126642   3.066   2.286   1.895
41601SOL    HW226643   2.924   2.236   1.897
41602SOL     OW26644   5.913   0.936   2.576
41602SOL    HW126645   5.836   0.887   2.604
41602SOL    HW226646   5.982   0.908   2.636
41603SOL     OW26647   3.823   3.992  10.899
41603SOL    HW126648   3.881   3.994  10.975
41603SOL    HW226649   3.858   4.058  10.840
41604SOL     OW26650  10.144   5.010   3.909
41604SOL    HW126651  10.099   5.095   3.919
41604SOL    HW226652  10.169   5.007   3.817
41605SOL     OW26653   0.903   6.715   4.307
41605SOL    HW126654   0.933   6.701   4.396
41605SOL    HW226655   0.977   6.689   4.252
41606SOL     OW26656   2.114   6.374  13.377
41606SOL    HW126657   2.086   6.283  13.373
41606SOL    HW226658   2.157   6.382  13.462
41607SOL     OW26659   3.776   5.984   1.041
41607SOL    HW126660   3.769   6.014   1.132
41607SOL    HW226661   3.829   6.051   0.998
41608SOL     OW26662  13.075   1.338   2.350
41608SOL    HW126663  13.022   1.366   2.276
41608SOL    HW226664  13.139   1.277   2.312
41609SOL     OW26665   8.055   5.935   0.304
41609SOL    HW126666   8.069   6.025   0.274
41609SOL    HW226667   7.986   5.901   0.247
41610SOL     OW26668   5.252  14.245  14.476
41610SOL    HW126669   5.295  14.327  14.452
41610SOL    HW226670   5.278  14.183  14.408
41611SOL     OW26671   6.328   1.592   6.072
41611SOL    HW126672   6.375   1.675   6.081
41611SOL    HW226673   6.307   1.567   6.162
41612SOL     OW26674   4.009   0.094   7.169
41612SOL    HW126675   4.101   0.115   7.156
41612SOL    HW226676   3.983   0.049   7.088
41613SOL     OW26677   9.784   7.805  10.714
41613SOL    HW126678   9.775   7.827  10.621
41613SOL    HW226679   9.855   7.741  10.717
41614SOL     OW26680  12.166   9.211   2.101
41614SOL    HW126681  12.162   9.290   2.047
41614SOL    HW226682  12.165   9.244   2.191
41615SOL     OW26683   6.960   5.578   8.629
41615SOL    HW126684   6.930   5.660   8.590
41615SOL    HW226685   7.055   5.586   8.632
41616SOL     OW26686  12.102   1.667  14.604
41616SOL    HW126687  12.114   1.654  14.698
41616SOL    HW226688  12.007   1.669  14.592
41617SOL     OW26689  11.503  10.781   0.204
41617SOL    HW126690  11.481  10.745   0.289
41617SOL    HW226691  11.583  10.734   0.178
41618SOL     OW26692   7.462   6.522   7.891
41618SOL    HW126693   7.412   6.592   7.933
41618SOL    HW226694   7.435   6.443   7.937
41619SOL     OW26695  13.451  13.953  12.732
41619SOL    HW126696  13.489  13.874  12.693
41619SOL    HW226697  13.357  13.946  12.713
41620SOL     OW26698  10.644  14.858  10.225
41620SOL    HW126699  10.691  14.782  10.258
41620SOL    HW226700  10.689   0.059  10.264
41621SOL     OW26701   4.104   7.445   0.584
41621SOL    HW126702   4.049   7.370   0.607
41621SOL    HW226703   4.062   7.519   0.627
41622SOL     OW26704  14.833   7.462   7.302
41622SOL    HW126705  14.774   7.455   7.227
41622SOL    HW226706  14.792   7.528   7.359
41623SOL     OW26707   4.444  11.953   4.468
41623SOL    HW126708   4.392  11.978   4.392
41623SOL    HW226709   4.531  11.989   4.451
41624SOL     OW26710   0.599  13.148   0.917
41624SOL    HW126711   0.647  13.230   0.927
41624SOL    HW226712   0.509  13.169   0.941
41625SOL     OW26713   8.534  12.455   3.986
41625SOL    HW126714   8.522  12.430   3.894
41625SOL    HW226715   8.474  12.528   3.999
41626SOL     OW26716   3.996  14.416   8.854
41626SOL    HW126717   4.075  14.413   8.908
41626SOL    HW226718   3.932  14.464   8.908
41627SOL     OW26719   7.735   1.353  14.677
41627SOL    HW126720   7.743   1.444  14.648
41627SOL    HW226721   7.702   1.360  14.767
41628SOL     OW26722  14.634   2.608   1.178
41628SOL    HW126723  14.612   2.534   1.122
41628SOL    HW226724  14.708   2.578   1.231
41629SOL     OW26725  14.842  13.581  10.871
41629SOL    HW126726   0.021  13.586  10.792
41629SOL    HW226727  14.850  13.491  10.900
41630SOL     OW26728   8.272  14.052  12.931
41630SOL    HW126729   8.328  14.127  12.949
41630SOL    HW226730   8.242  14.065  12.841
41631SOL     OW26731  14.466   1.229   8.782
41631SOL    HW126732  14.451   1.323   8.789
41631SOL    HW226733  14.407   1.200   8.713
41632SOL     OW26734   5.783  14.259  10.202
41632SOL    HW126735   5.692  14.273  10.173
41632SOL    HW226736   5.807  14.341  10.245
41633SOL     OW26737   6.116  13.491   0.340
41633SOL    HW126738   6.102  13.565   0.282
41633SOL    HW226739   6.040  13.491   0.398
41634SOL     OW26740   4.709   0.113  12.410
41634SOL    HW126741   4.645   0.166  12.362
41634SOL    HW226742   4.772   0.176  12.444
41635SOL     OW26743  13.871   1.355   6.712
41635SOL    HW126744  13.947   1.344   6.655
41635SOL    HW226745  13.801   1.305   6.671
41636SOL     OW26746   5.041   4.480   9.535
41636SOL    HW126747   4.949   4.463   9.515
41636SOL    HW226748   5.090   4.430   9.469
41637SOL     OW26749   4.502  11.572   4.584
41637SOL    HW126750   4.520  11.600   4.674
41637SOL    HW226751   4.426  11.625   4.558
41638SOL     OW26752   4.789   8.796   3.121
41638SOL    HW126753   4.770   8.711   3.082
41638SOL    HW226754   4.710   8.848   3.105
41639SOL     OW26755   1.893   5.838  10.615
41639SOL    HW126756   1.884   5.775  10.686
41639SOL    HW226757   1.807   5.838  10.572
41640SOL     OW26758  11.008   7.784  14.720
41640SOL    HW126759  10.976   7.797  14.631
41640SOL    HW226760  10.996   7.869  14.762
41641SOL     OW26761   8.551   6.643   1.520
41641SOL    HW126762   8.468   6.596   1.524
41641SOL    HW226763   8.571   6.649   1.427
41642SOL     OW26764  10.751   6.311  11.214
41642SOL    HW126765  10.716   6.398  11.233
41642SOL    HW226766  10.686   6.251  11.250
41643SOL     OW26767   9.727   0.099   7.274
41643SOL    HW126768   9.782   0.137   7.343
41643SOL    HW226769   9.655   0.161   7.264
41644SOL     OW26770   9.697  11.903  13.070
41644SOL    HW126771   9.773  11.939  13.115
41644SOL    HW226772   9.707  11.933  12.980
41645SOL     OW26773  13.697   4.914   3.739
41645SOL    HW126774  13.621   4.872   3.781
41645SOL    HW226775  13.700   4.875   3.652
41646SOL     OW26776  10.586  12.649   9.240
41646SOL    HW126777  10.649  12.715   9.269
41646SOL    HW226778  10.574  12.593   9.317
41647SOL     OW26779   4.688   4.139  14.005
41647SOL    HW126780   4.681   4.213  13.945
41647SOL    HW226781   4.777   4.105  13.991
41648SOL     OW26782   8.124  10.276   8.065
41648SOL    HW126783   8.123  10.183   8.088
41648SOL    HW226784   8.102  10.321   8.146
41649SOL     OW26785  12.830   8.775   3.939
41649SOL    HW126786  12.791   8.852   3.898
41649SOL    HW226787  12.782   8.764   4.021
41650SOL     OW26788  11.839   6.841   0.055
41650SOL    HW126789  11.840   6.897  14.852
41650SOL    HW226790  11.924   6.856   0.097
41651SOL     OW26791  10.414   6.268   5.041
41651SOL    HW126792  10.328   6.226   5.035
41651SOL    HW226793  10.395   6.362   5.045
41652SOL     OW26794   2.884   1.013   4.855
41652SOL    HW126795   2.863   1.064   4.933
41652SOL    HW226796   2.839   1.059   4.784
41653SOL     OW26797  11.186   9.749   3.441
41653SOL    HW126798  11.243   9.791   3.505
41653SOL    HW226799  11.215   9.658   3.439
41654SOL     OW26800   6.605  11.167   7.597
41654SOL    HW126801   6.544  11.161   7.670
41654SOL    HW226802   6.679  11.113   7.624
41655SOL     OW26803   3.150  10.507   4.671
41655SOL    HW126804   3.215  10.455   4.624
41655SOL    HW226805   3.156  10.476   4.762
41656SOL     OW26806   5.689   7.946  12.811
41656SOL    HW126807   5.661   7.893  12.885
41656SOL    HW226808   5.761   7.897  12.772
41657SOL     OW26809   2.134   1.877   7.164
41657SOL    HW126810   2.168   1.934   7.095
41657SOL    HW226811   2.113   1.795   7.119
41658SOL     OW26812   0.990   6.879   2.755
41658SOL    HW126813   1.015   6.802   2.807
41658SOL    HW226814   0.917   6.848   2.701
41659SOL     OW26815   4.034  13.986   9.447
41659SOL    HW126816   4.057  14.005   9.538
41659SOL    HW226817   4.096  13.918   9.420
41660SOL     OW26818  14.613   9.758   0.605
41660SOL    HW126819  14.611   9.849   0.632
41660SOL    HW226820  14.522   9.737   0.583
41661SOL     OW26821   4.906   3.215   4.342
41661SOL    HW126822   4.828   3.205   4.396
41661SOL    HW226823   4.962   3.276   4.390
41662SOL     OW26824   3.613   8.778   3.367
41662SOL    HW126825   3.521   8.771   3.342
41662SOL    HW226826   3.612   8.788   3.462
41663SOL     OW26827   5.427   3.443   6.482
41663SOL    HW126828   5.484   3.414   6.410
41663SOL    HW226829   5.462   3.400   6.560
41664SOL     OW26830   4.837  10.341   0.498
41664SOL    HW126831   4.861  10.355   0.590
41664SOL    HW226832   4.802  10.425   0.470
41665SOL     OW26833  11.467  10.457   7.288
41665SOL    HW126834  11.474  10.408   7.370
41665SOL    HW226835  11.469  10.389   7.220
41666SOL     OW26836  10.068   3.082   8.956
41666SOL    HW126837  10.086   3.067   9.048
41666SOL    HW226838  10.127   3.153   8.931
41667SOL     OW26839   8.323   2.672   7.308
41667SOL    HW126840   8.251   2.616   7.277
41667SOL    HW226841   8.360   2.624   7.382
41668SOL     OW26842   1.349  13.797   0.734
41668SOL    HW126843   1.419  13.732   0.732
41668SOL    HW226844   1.343  13.829   0.644
41669SOL     OW26845  12.748   0.671   7.774
41669SOL    HW126846  12.718   0.583   7.794
41669SOL    HW226847  12.688   0.702   7.706
41670SOL     OW26848   3.034  13.931  13.014
41670SOL    HW126849   3.125  13.923  12.985
41670SOL    HW226850   2.982  13.924  12.934
41671SOL     OW26851   4.405   4.683  13.312
41671SOL    HW126852   4.429   4.650  13.225
41671SOL    HW226853   4.468   4.641  13.371
41672SOL     OW26854   6.249  11.107  13.257
41672SOL    HW126855   6.306  11.115  13.334
41672SOL    HW226856   6.193  11.032  13.277
41673SOL     OW26857   6.573   0.768  10.613
41673SOL    HW126858   6.520   0.719  10.551
41673SOL    HW226859   6.536   0.747  10.699
41674SOL     OW26860   8.604   2.565  10.979
41674SOL    HW126861   8.553   2.575  10.899
41674SOL    HW226862   8.607   2.653  11.016
41675SOL     OW26863   4.916  14.020  11.441
41675SOL    HW126864   4.821  14.024  11.432
41675SOL    HW226865   4.941  13.935  11.404
41676SOL     OW26866   2.685  12.014   4.319
41676SOL    HW126867   2.720  11.961   4.248
41676SOL    HW226868   2.669  12.100   4.279
41677SOL     OW26869  11.612  13.077  13.865
41677SOL    HW126870  11.673  13.106  13.797
41677SOL    HW226871  11.630  13.134  13.940
41678SOL     OW26872   9.419   8.845   4.459
41678SOL    HW126873   9.417   8.796   4.377
41678SOL    HW226874   9.393   8.934   4.434
41679SOL     OW26875   6.074   9.965   4.010
41679SOL    HW126876   6.005   9.899   4.004
41679SOL    HW226877   6.104   9.960   4.101
41680SOL     OW26878  10.433   7.411   7.737
41680SOL    HW126879  10.406   7.418   7.646
41680SOL    HW226880  10.352   7.399   7.786
41681SOL     OW26881   1.052   0.578  13.548
41681SOL    HW126882   1.124   0.518  13.528
41681SOL    HW226883   1.089   0.639  13.612
41682SOL     OW26884   3.372   5.120   1.070
41682SOL    HW126885   3.415   5.043   1.109
41682SOL    HW226886   3.285   5.120   1.108
41683SOL     OW26887  14.799  11.616   6.481
41683SOL    HW126888  14.751  11.673   6.420
41683SOL    HW226889  14.856  11.564   6.424
41684SOL     OW26890   0.945   2.008   2.045
41684SOL    HW126891   0.994   2.088   2.064
41684SOL    HW226892   0.882   2.034   1.978
41685SOL     OW26893   3.543   0.934   1.500
41685SOL    HW126894   3.584   0.971   1.423
41685SOL    HW226895   3.457   0.975   1.504
41686SOL     OW26896   2.229   0.165   5.696
41686SOL    HW126897   2.217   0.106   5.622
41686SOL    HW226898   2.284   0.236   5.662
41687SOL     OW26899   2.590  14.376   6.567
41687SOL    HW126900   2.560  14.456   6.611
41687SOL    HW226901   2.678  14.360   6.603
41688SOL     OW26902   0.643  12.973   0.710
41688SOL    HW126903   0.564  12.985   0.656
41688SOL    HW226904   0.617  13.001   0.797
41689SOL     OW26905  10.261   8.267   8.378
41689SOL    HW126906  10.256   8.359   8.403
41689SOL    HW226907  10.177   8.248   8.337
41690SOL     OW26908   0.488   2.361   1.521
41690SOL    HW126909   0.487   2.453   1.548
41690SOL    HW226910   0.493   2.364   1.426
41691SOL     OW26911   1.772  12.732   9.311
41691SOL    HW126912   1.863  12.743   9.337
41691SOL    HW226913   1.724  12.797   9.361
41692SOL     OW26914   5.145   0.909  11.285
41692SOL    HW126915   5.101   0.880  11.205
41692SOL    HW226916   5.078   0.901  11.353
41693SOL     OW26917   7.456   5.657  12.438
41693SOL    HW126918   7.483   5.658  12.346
41693SOL    HW226919   7.367   5.624  12.437
41694SOL     OW26920   9.839   6.933   3.089
41694SOL    HW126921   9.934   6.946   3.093
41694SOL    HW226922   9.817   6.940   2.996
41695SOL     OW26923   4.395  13.882   5.014
41695SOL    HW126924   4.385  13.953   4.951
41695SOL    HW226925   4.328  13.818   4.990
41696SOL     OW26926   7.229   3.074   5.966
41696SOL    HW126927   7.270   2.989   5.952
41696SOL    HW226928   7.153   3.073   5.908
41697SOL     OW26929   2.521   9.720  12.211
41697SOL    HW126930   2.432   9.714  12.175
41697SOL    HW226931   2.558   9.633  12.197
41698SOL     OW26932  10.580  12.272   1.270
41698SOL    HW126933  10.492  12.303   1.249
41698SOL    HW226934  10.592  12.194   1.216
41699SOL     OW26935   2.312   8.744   7.371
41699SOL    HW126936   2.303   8.657   7.333
41699SOL    HW226937   2.233   8.791   7.345
41700SOL     OW26938  11.971   3.146  10.027
41700SOL    HW126939  11.901   3.089  10.059
41700SOL    HW226940  12.000   3.194  10.104
41701SOL     OW26941   2.299   3.940   1.119
41701SOL    HW126942   2.337   3.860   1.082
41701SOL    HW226943   2.364   4.008   1.098
41702SOL     OW26944  14.135   0.784   0.593
41702SOL    HW126945  14.229   0.783   0.609
41702SOL    HW226946  14.127   0.817   0.503
41703SOL     OW26947   0.092  13.904   2.885
41703SOL    HW126948   0.033  13.842   2.929
41703SOL    HW226949   0.081  13.885   2.792
41704SOL     OW26950   2.422  13.935   7.323
41704SOL    HW126951   2.408  13.908   7.414
41704SOL    HW226952   2.454  13.857   7.279
41705SOL     OW26953   6.980   1.647   2.023
41705SOL    HW126954   7.032   1.727   2.028
41705SOL    HW226955   6.900   1.667   2.071
41706SOL     OW26956   2.782   7.916   1.475
41706SOL    HW126957   2.777   8.001   1.431
41706SOL    HW226958   2.830   7.860   1.414
41707SOL     OW26959   2.687  10.669   5.053
41707SOL    HW126960   2.668  10.727   4.979
41707SOL    HW226961   2.714  10.587   5.013
41708SOL     OW26962   6.646   9.891  11.741
41708SOL    HW126963   6.636   9.801  11.773
41708SOL    HW226964   6.656   9.943  11.821
41709SOL     OW26965   3.671  11.504   6.836
41709SOL    HW126966   3.590  11.454   6.832
41709SOL    HW226967   3.700  11.496   6.927
41710SOL     OW26968  13.091   6.394   4.697
41710SOL    HW126969  13.149   6.454   4.649
41710SOL    HW226970  13.113   6.308   4.662
41711SOL     OW26971  10.581   0.061   6.989
41711SOL    HW126972  10.525   0.020   6.923
41711SOL    HW226973  10.522   0.115   7.041
41712SOL     OW26974   6.602   1.900  11.659
41712SOL    HW126975   6.577   1.947  11.579
41712SOL    HW226976   6.519   1.870  11.695
41713SOL     OW26977  13.868   8.551   4.065
41713SOL    HW126978  13.860   8.465   4.023
41713SOL    HW226979  13.870   8.613   3.992
41714SOL     OW26980   1.305   4.226   6.755
41714SOL    HW126981   1.398   4.208   6.770
41714SOL    HW226982   1.266   4.141   6.737
41715SOL     OW26983   9.214   6.136   3.791
41715SOL    HW126984   9.242   6.071   3.856
41715SOL    HW226985   9.215   6.219   3.838
41716SOL     OW26986  14.832  13.272   9.560
41716SOL    HW126987  14.856  13.364   9.546
41716SOL    HW226988  14.779  13.249   9.484
41717SOL     OW26989   6.925  13.766  10.176
41717SOL    HW126990   6.850  13.792  10.122
41717SOL    HW226991   6.976  13.846  10.186
41718SOL     OW26992   6.887   4.446  12.345
41718SOL    HW126993   6.974   4.473  12.314
41718SOL    HW226994   6.899   4.429  12.438
41719SOL     OW26995  14.750   4.730  14.845
41719SOL    HW126996  14.696   4.802  14.812
41719SOL    HW226997  14.829   4.733  14.791
41720SOL     OW26998  13.999  12.941  10.718
41720SOL    HW126999  13.910  12.971  10.703
41720SOL    HW227000  13.989  12.850  10.745
41721SOL     OW27001   0.908  10.006   2.803
41721SOL    HW127002   0.816  10.009   2.775
41721SOL    HW227003   0.939  10.096   2.792
41722SOL     OW27004   0.208   9.434   3.708
41722SOL    HW127005   0.273   9.365   3.694
41722SOL    HW227006   0.138   9.414   3.646
41723SOL     OW27007   9.053   8.459   6.661
41723SOL    HW127008   9.063   8.526   6.728
41723SOL    HW227009   9.000   8.391   6.703
41724SOL     OW27010   0.263   7.740   2.233
41724SOL    HW127011   0.292   7.665   2.284
41724SOL    HW227012   0.339   7.800   2.233
41725SOL     OW27013  12.226   9.614   3.295
41725SOL    HW127014  12.206   9.599   3.202
41725SOL    HW227015  12.173   9.691   3.318
41726SOL     OW27016   5.663   1.552   5.321
41726SOL    HW127017   5.704   1.552   5.407
41726SOL    HW227018   5.572   1.525   5.337
41727SOL     OW27019   7.572  14.700  13.099
41727SOL    HW127020   7.612  14.748  13.026
41727SOL    HW227021   7.566  14.765  13.169
41728SOL     OW27022   7.216  11.734  13.198
41728SOL    HW127023   7.153  11.758  13.265
41728SOL    HW227024   7.285  11.686  13.245
41729SOL     OW27025   1.349   7.946   8.293
41729SOL    HW127026   1.417   7.879   8.282
41729SOL    HW227027   1.280   7.920   8.231
41730SOL     OW27028   3.064   0.397  11.073
41730SOL    HW127029   2.994   0.445  11.119
41730SOL    HW227030   3.093   0.457  11.004
41731SOL     OW27031  14.846   6.252  11.173
41731SOL    HW127032   0.031   6.183  11.203
41731SOL    HW227033  14.787   6.266  11.248
41732SOL     OW27034   8.067   8.294   5.283
41732SOL    HW127035   7.976   8.273   5.261
41732SOL    HW227036   8.082   8.249   5.367
41733SOL     OW27037   3.058  13.011  10.614
41733SOL    HW127038   3.133  12.994  10.556
41733SOL    HW227039   3.096  13.061  10.687
41734SOL     OW27040  13.525  13.112  14.642
41734SOL    HW127041  13.465  13.151  14.578
41734SOL    HW227042  13.571  13.187  14.680
41735SOL     OW27043  10.767   9.207  13.349
41735SOL    HW127044  10.821   9.234  13.423
41735SOL    HW227045  10.830   9.189  13.279
41736SOL     OW27046   3.844   9.682   3.300
41736SOL    HW127047   3.909   9.654   3.235
41736SOL    HW227048   3.888   9.669   3.384
41737SOL     OW27049   4.182   0.192   8.177
41737SOL    HW127050   4.164   0.285   8.183
41737SOL    HW227051   4.222   0.169   8.261
41738SOL     OW27052  12.537  13.093   9.267
41738SOL    HW127053  12.459  13.148   9.263
41738SOL    HW227054  12.597  13.140   9.325
41739SOL     OW27055   0.665   7.894   2.402
41739SOL    HW127056   0.682   7.938   2.319
41739SOL    HW227057   0.584   7.844   2.386
41740SOL     OW27058  14.637  13.689   6.523
41740SOL    HW127059  14.660  13.763   6.466
41740SOL    HW227060  14.715  13.634   6.523
41741SOL     OW27061   4.213   1.754  12.826
41741SOL    HW127062   4.271   1.699  12.878
41741SOL    HW227063   4.242   1.742  12.736
41742SOL     OW27064  11.874   4.938   8.699
41742SOL    HW127065  11.948   4.905   8.751
41742SOL    HW227066  11.914   5.002   8.640
41743SOL     OW27067  14.441   3.460   6.124
41743SOL    HW127068  14.376   3.461   6.195
41743SOL    HW227069  14.525   3.475   6.168
41744SOL     OW27070   2.483   9.659  11.795
41744SOL    HW127071   2.424   9.650  11.870
41744SOL    HW227072   2.465   9.582  11.741
41745SOL     OW27073   8.828   1.175  11.482
41745SOL    HW127074   8.918   1.166  11.449
41745SOL    HW227075   8.788   1.240  11.425
41746SOL     OW27076   2.372  12.287  10.473
41746SOL    HW127077   2.400  12.271  10.383
41746SOL    HW227078   2.299  12.349  10.465
41747SOL     OW27079   1.617   4.559  10.628
41747SOL    HW127080   1.539   4.503  10.630
41747SOL    HW227081   1.591   4.638  10.674
41748SOL     OW27082   0.913   2.271   9.104
41748SOL    HW127083   0.978   2.303   9.041
41748SOL    HW227084   0.845   2.338   9.103
41749SOL     OW27085  12.102   5.984   8.141
41749SOL    HW127086  12.055   5.906   8.113
41749SOL    HW227087  12.155   6.008   8.065
41750SOL     OW27088   1.047   5.834   4.893
41750SOL    HW127089   1.138   5.855   4.872
41750SOL    HW227090   1.029   5.883   4.973
41751SOL     OW27091  13.580   3.845   9.182
41751SOL    HW127092  13.492   3.840   9.145
41751SOL    HW227093  13.576   3.792   9.262
41752SOL     OW27094   5.706   3.958   4.578
41752SOL    HW127095   5.794   3.931   4.551
41752SOL    HW227096   5.682   3.895   4.646
41753SOL     OW27097   0.621   5.435  12.175
41753SOL    HW127098   0.668   5.516  12.194
41753SOL    HW227099   0.588   5.447  12.086
41754SOL     OW27100  10.016   2.980   2.696
41754SOL    HW127101   9.989   2.965   2.605
41754SOL    HW227102  10.069   2.904   2.719
41755SOL     OW27103   0.302   3.629  11.770
41755SOL    HW127104   0.250   3.665  11.698
41755SOL    HW227105   0.289   3.534  11.763
41756SOL     OW27106   8.162   3.935   6.334
41756SOL    HW127107   8.219   3.969   6.266
41756SOL    HW227108   8.080   3.916   6.289
41757SOL     OW27109  10.779   6.887   4.617
41757SOL    HW127110  10.803   6.844   4.535
41757SOL    HW227111  10.693   6.925   4.600
41758SOL     OW27112  14.371  10.333  14.781
41758SOL    HW127113  14.378  10.286  14.699
41758SOL    HW227114  14.284  10.373  14.779
41759SOL     OW27115   7.164  10.151   8.851
41759SOL    HW127116   7.081  10.114   8.820
41759SOL    HW227117   7.231  10.097   8.809
41760SOL     OW27118  11.558  10.685   0.702
41760SOL    HW127119  11.473  10.657   0.738
41760SOL    HW227120  11.539  10.705   0.610
41761SOL     OW27121   5.187   0.582   9.506
41761SOL    HW127122   5.249   0.642   9.546
41761SOL    HW227123   5.106   0.596   9.555
41762SOL     OW27124   6.242   1.180   7.676
41762SOL    HW127125   6.287   1.108   7.632
41762SOL    HW227126   6.188   1.220   7.609
41763SOL     OW27127   6.858   7.915   5.161
41763SOL    HW127128   6.925   7.961   5.213
41763SOL    HW227129   6.875   7.943   5.071
41764SOL     OW27130   4.471   9.595   7.919
41764SOL    HW127131   4.562   9.620   7.939
41764SOL    HW227132   4.469   9.501   7.933
41765SOL     OW27133   7.211  14.722   2.456
41765SOL    HW127134   7.213  14.803   2.506
41765SOL    HW227135   7.153  14.664   2.505
41766SOL     OW27136   6.590   5.790   6.263
41766SOL    HW127137   6.626   5.756   6.345
41766SOL    HW227138   6.498   5.765   6.264
41767SOL     OW27139   8.854   4.302   5.056
41767SOL    HW127140   8.781   4.281   4.999
41767SOL    HW227141   8.900   4.219   5.067
41768SOL     OW27142  10.361   2.903  13.464
41768SOL    HW127143  10.434   2.920  13.523
41768SOL    HW227144  10.356   2.982  13.409
41769SOL     OW27145  14.193  14.567  10.688
41769SOL    HW127146  14.277  14.552  10.645
41769SOL    HW227147  14.130  14.572  10.616
41770SOL     OW27148  13.637   5.391   1.647
41770SOL    HW127149  13.699   5.375   1.576
41770SOL    HW227150  13.568   5.443   1.606
41771SOL     OW27151  10.732   5.240   5.878
41771SOL    HW127152  10.771   5.294   5.809
41771SOL    HW227153  10.695   5.303   5.940
41772SOL     OW27154  10.532   0.201   9.660
41772SOL    HW127155  10.464   0.255   9.621
41772SOL    HW227156  10.606   0.208   9.599
41773SOL     OW27157   6.185   7.811  10.872
41773SOL    HW127158   6.115   7.781  10.815
41773SOL    HW227159   6.164   7.902  10.890
41774SOL     OW27160   7.153   7.251  13.661
41774SOL    HW127161   7.234   7.265  13.711
41774SOL    HW227162   7.150   7.157  13.646
41775SOL     OW27163   4.202   0.122   3.677
41775SOL    HW127164   4.169   0.061   3.743
41775SOL    HW227165   4.282   0.081   3.645
41776SOL     OW27166  14.029   3.015   5.517
41776SOL    HW127167  14.037   3.093   5.462
41776SOL    HW227168  14.055   3.045   5.604
41777SOL     OW27169   6.295   3.540   9.173
41777SOL    HW127170   6.271   3.575   9.259
41777SOL    HW227171   6.356   3.604   9.137
41778SOL     OW27172   0.845   7.836  12.031
41778SOL    HW127173   0.911   7.886  12.080
41778SOL    HW227174   0.831   7.757  12.083
41779SOL     OW27175  12.198  12.129  12.497
41779SOL    HW127176  12.234  12.095  12.578
41779SOL    HW227177  12.250  12.207  12.478
41780SOL     OW27178   5.333   6.053   9.500
41780SOL    HW127179   5.361   6.037   9.410
41780SOL    HW227180   5.387   6.126   9.530
41781SOL     OW27181  12.363  12.206  14.117
41781SOL    HW127182  12.445  12.197  14.069
41781SOL    HW227183  12.303  12.145  14.073
41782SOL     OW27184  14.718   5.687  13.545
41782SOL    HW127185  14.710   5.638  13.627
41782SOL    HW227186  14.643   5.746  13.546
41783SOL     OW27187   7.845  11.831   3.733
41783SOL    HW127188   7.842  11.736   3.748
41783SOL    HW227189   7.764  11.864   3.770
41784SOL     OW27190  14.274   6.121  13.620
41784SOL    HW127191  14.360   6.107  13.660
41784SOL    HW227192  14.244   6.205  13.655
41785SOL     OW27193  11.300   9.151  10.049
41785SOL    HW127194  11.252   9.163   9.967
41785SOL    HW227195  11.386   9.118  10.022
41786SOL     OW27196   1.282   6.343   4.567
41786SOL    HW127197   1.352   6.277   4.566
41786SOL    HW227198   1.207   6.299   4.606
41787SOL     OW27199  12.640   5.627   4.272
41787SOL    HW127200  12.564   5.628   4.214
41787SOL    HW227201  12.691   5.550   4.244
41788SOL     OW27202   3.042   8.215   0.924
41788SOL    HW127203   3.087   8.136   0.953
41788SOL    HW227204   3.097   8.251   0.855
41789SOL     OW27205  10.967   1.456   3.084
41789SOL    HW127206  10.952   1.548   3.065
41789SOL    HW227207  10.983   1.417   2.998
41790SOL     OW27208   2.130  10.555   5.527
41790SOL    HW127209   2.099  10.636   5.484
41790SOL    HW227210   2.207  10.582   5.575
41791SOL     OW27211   9.727   4.798   3.770
41791SOL    HW127212   9.679   4.860   3.715
41791SOL    HW227213   9.686   4.713   3.752
41792SOL     OW27214   1.022   7.949  12.215
41792SOL    HW127215   1.108   7.908  12.205
41792SOL    HW227216   1.041   8.033  12.258
41793SOL     OW27217  11.029  10.951   6.160
41793SOL    HW127218  11.079  10.896   6.100
41793SOL    HW227219  10.958  10.895   6.191
41794SOL     OW27220   3.648  14.339  14.020
41794SOL    HW127221   3.672  14.269  13.959
41794SOL    HW227222   3.625  14.413  13.964
41795SOL     OW27223   7.300  10.511   2.544
41795SOL    HW127224   7.380  10.562   2.553
41795SOL    HW227225   7.264  10.507   2.632
41796SOL     OW27226  10.059   0.005   7.616
41796SOL    HW127227  10.140   0.055   7.602
41796SOL    HW227228  10.081  14.790   7.590
41797SOL     OW27229  13.390   5.223   8.005
41797SOL    HW127230  13.385   5.131   8.029
41797SOL    HW227231  13.381   5.224   7.910
41798SOL     OW27232   3.075  11.365   4.290
41798SOL    HW127233   3.072  11.439   4.229
41798SOL    HW227234   3.104  11.404   4.373
41799SOL     OW27235   4.576  13.228  13.913
41799SOL    HW127236   4.655  13.180  13.887
41799SOL    HW227237   4.512  13.160  13.934
41800SOL     OW27238  10.746  10.517   1.320
41800SOL    HW127239  10.680  10.458   1.285
41800SOL    HW227240  10.749  10.590   1.257
41801SOL     OW27241  12.431  11.906   8.667
41801SOL    HW127242  12.412  11.969   8.597
41801SOL    HW227243  12.344  11.879   8.698
41802SOL     OW27244   6.569   4.458   7.691
41802SOL    HW127245   6.521   4.538   7.670
41802SOL    HW227246   6.634   4.485   7.755
41803SOL     OW27247  14.191   0.410   6.060
41803SOL    HW127248  14.206   0.315   6.058
41803SOL    HW227249  14.103   0.419   6.095
41804SOL     OW27250  11.366   1.155   7.686
41804SOL    HW127251  11.281   1.181   7.723
41804SOL    HW227252  11.377   1.064   7.713
41805SOL     OW27253   1.697   7.640   3.722
41805SOL    HW127254   1.649   7.723   3.730
41805SOL    HW227255   1.725   7.637   3.630
41806SOL     OW27256   7.364   7.862  13.453
41806SOL    HW127257   7.446   7.901  13.482
41806SOL    HW227258   7.323   7.930  13.399
41807SOL     OW27259  11.984   7.790   2.974
41807SOL    HW127260  11.940   7.850   2.913
41807SOL    HW227261  12.066   7.768   2.930
41808SOL     OW27262   4.214   5.551  10.806
41808SOL    HW127263   4.212   5.518  10.716
41808SOL    HW227264   4.176   5.481  10.859
41809SOL     OW27265   7.440   6.740   4.829
41809SOL    HW127266   7.516   6.798   4.829
41809SOL    HW227267   7.378   6.782   4.889
41810SOL     OW27268  10.258   5.748  12.616
41810SOL    HW127269  10.219   5.758  12.702
41810SOL    HW227270  10.246   5.834  12.574
41811SOL     OW27271   1.089   8.809   8.791
41811SOL    HW127272   1.048   8.755   8.723
41811SOL    HW227273   1.157   8.753   8.828
41812SOL     OW27274   2.491   7.343  11.015
41812SOL    HW127275   2.438   7.268  11.041
41812SOL    HW227276   2.569   7.338  11.071
41813SOL     OW27277  14.283  13.194   5.419
41813SOL    HW127278  14.256  13.198   5.511
41813SOL    HW227279  14.204  13.215   5.370
41814SOL     OW27280   2.436   9.788  13.340
41814SOL    HW127281   2.438   9.795  13.244
41814SOL    HW227282   2.373   9.855  13.368
41815SOL     OW27283   6.645  11.719   6.264
41815SOL    HW127284   6.573  11.781   6.260
41815SOL    HW227285   6.704  11.755   6.330
41816SOL     OW27286   0.375   0.042  11.294
41816SOL    HW127287   0.286   0.023  11.323
41816SOL    HW227288   0.366   0.077  11.206
41817SOL     OW27289   5.032   6.280   4.571
41817SOL    HW127290   5.009   6.364   4.531
41817SOL    HW227291   5.115   6.257   4.529
41818SOL     OW27292  13.696  11.132   3.109
41818SOL    HW127293  13.692  11.212   3.057
41818SOL    HW227294  13.612  11.089   3.092
41819SOL     OW27295  12.791   1.359   3.514
41819SOL    HW127296  12.851   1.417   3.468
41819SOL    HW227297  12.793   1.388   3.605
41820SOL     OW27298   3.920   7.202   6.624
41820SOL    HW127299   3.892   7.121   6.666
41820SOL    HW227300   3.915   7.184   6.530
41821SOL     OW27301  13.760  12.302  12.653
41821SOL    HW127302  13.677  12.334  12.688
41821SOL    HW227303  13.738  12.266  12.567
41822SOL     OW27304   2.523  13.275   7.975
41822SOL    HW127305   2.558  13.188   7.954
41822SOL    HW227306   2.504  13.314   7.889
41823SOL     OW27307   3.599   6.673  13.961
41823SOL    HW127308   3.571   6.697  13.873
41823SOL    HW227309   3.557   6.588  13.977
41824SOL     OW27310   2.274   7.156  12.454
41824SOL    HW127311   2.216   7.226  12.485
41824SOL    HW227312   2.362   7.185  12.478
41825SOL     OW27313   3.076  13.893  11.393
41825SOL    HW127314   3.161  13.920  11.358
41825SOL    HW227315   3.065  13.944  11.473
41826SOL     OW27316   0.659  13.996   3.533
41826SOL    HW127317   0.742  14.040   3.514
41826SOL    HW227318   0.628  13.964   3.448
41827SOL     OW27319   6.856   6.614  11.583
41827SOL    HW127320   6.824   6.580  11.666
41827SOL    HW227321   6.899   6.539  11.541
41828SOL     OW27322  13.197  11.037   8.634
41828SOL    HW127323  13.250  11.107   8.670
41828SOL    HW227324  13.260  10.970   8.606
41829SOL     OW27325   6.156   8.530  10.384
41829SOL    HW127326   6.090   8.553  10.320
41829SOL    HW227327   6.239   8.546  10.339
41830SOL     OW27328   5.358   0.582   8.312
41830SOL    HW127329   5.318   0.647   8.255
41830SOL    HW227330   5.332   0.607   8.400
41831SOL     OW27331   8.297   6.652  13.082
41831SOL    HW127332   8.378   6.604  13.102
41831SOL    HW227333   8.260   6.673  13.168
41832SOL     OW27334   8.551   0.114   6.257
41832SOL    HW127335   8.489   0.185   6.240
41832SOL    HW227336   8.561   0.071   6.172
41833SOL     OW27337  12.955   5.461   3.272
41833SOL    HW127338  12.891   5.510   3.323
41833SOL    HW227339  13.012   5.420   3.337
41834SOL     OW27340  12.042   3.823   9.664
41834SOL    HW127341  12.117   3.860   9.617
41834SOL    HW227342  12.061   3.729   9.669
41835SOL     OW27343  13.586   4.265  10.490
41835SOL    HW127344  13.577   4.181  10.534
41835SOL    HW227345  13.546   4.328  10.550
41836SOL     OW27346   1.725  11.615   5.708
41836SOL    HW127347   1.696  11.605   5.618
41836SOL    HW227348   1.644  11.618   5.759
41837SOL     OW27349  14.023   4.667   2.883
41837SOL    HW127350  14.095   4.606   2.869
41837SOL    HW227351  14.065   4.753   2.883
41838SOL     OW27352   1.942   9.392  10.208
41838SOL    HW127353   2.002   9.429  10.143
41838SOL    HW227354   1.856   9.393  10.164
41839SOL     OW27355  11.020   0.080   6.607
41839SOL    HW127356  11.083   0.040   6.548
41839SOL    HW227357  11.071   0.109   6.682
41840SOL     OW27358   2.988  12.883   6.780
41840SOL    HW127359   2.940  12.963   6.804
41840SOL    HW227360   3.052  12.872   6.850
41841SOL     OW27361   3.513  13.315   6.389
41841SOL    HW127362   3.520  13.317   6.294
41841SOL    HW227363   3.589  13.365   6.420
41842SOL     OW27364  14.453   7.812  13.930
41842SOL    HW127365  14.377   7.790  13.877
41842SOL    HW227366  14.517   7.845  13.866
41843SOL     OW27367   5.463   6.496  11.873
41843SOL    HW127368   5.494   6.410  11.846
41843SOL    HW227369   5.431   6.484  11.963
41844SOL     OW27370   0.673  10.785  10.199
41844SOL    HW127371   0.722  10.711  10.163
41844SOL    HW227372   0.582  10.766  10.176
41845SOL     OW27373  10.141   8.013   3.761
41845SOL    HW127374  10.065   7.956   3.755
41845SOL    HW227375  10.213   7.960   3.726
41846SOL     OW27376   4.519   4.098   8.910
41846SOL    HW127377   4.434   4.127   8.941
41846SOL    HW227378   4.516   4.112   8.815
41847SOL     OW27379   5.111  12.274  10.380
41847SOL    HW127380   5.126  12.334  10.453
41847SOL    HW227381   5.156  12.193  10.406
41848SOL     OW27382   8.178  13.399   8.762
41848SOL    HW127383   8.153  13.447   8.841
41848SOL    HW227384   8.133  13.446   8.691
41849SOL     OW27385  11.484  13.266   2.291
41849SOL    HW127386  11.430  13.342   2.309
41849SOL    HW227387  11.497  13.225   2.376
41850SOL     OW27388   0.167   1.357   8.380
41850SOL    HW127389   0.128   1.444   8.393
41850SOL    HW227390   0.103   1.311   8.326
41851SOL     OW27391  12.546  13.611   5.914
41851SOL    HW127392  12.557  13.556   5.836
41851SOL    HW227393  12.627  13.661   5.919
41852SOL     OW27394   1.136  14.776   2.331
41852SOL    HW127395   1.134  14.788   2.426
41852SOL    HW227396   1.227  14.791   2.306
41853SOL     OW27397   8.196  12.350  12.021
41853SOL    HW127398   8.204  12.269  12.071
41853SOL    HW227399   8.125  12.398  12.064
41854SOL     OW27400   1.765   4.851   1.317
41854SOL    HW127401   1.689   4.830   1.372
41854SOL    HW227402   1.837   4.864   1.380
41855SOL     OW27403  10.201  13.474   5.092
41855SOL    HW127404  10.196  13.545   5.157
41855SOL    HW227405  10.168  13.397   5.138
41856SOL     OW27406   6.838  12.681   7.501
41856SOL    HW127407   6.780  12.606   7.515
41856SOL    HW227408   6.790  12.756   7.537
41857SOL     OW27409   7.487  13.482   2.597
41857SOL    HW127410   7.575  13.477   2.558
41857SOL    HW227411   7.446  13.398   2.575
41858SOL     OW27412  11.152   4.656  14.703
41858SOL    HW127413  11.069   4.616  14.728
41858SOL    HW227414  11.181   4.606  14.627
41859SOL     OW27415   1.661   2.925   8.455
41859SOL    HW127416   1.676   2.960   8.543
41859SOL    HW227417   1.604   2.849   8.469
41860SOL     OW27418  13.190   0.907   5.554
41860SOL    HW127419  13.097   0.903   5.533
41860SOL    HW227420  13.216   0.996   5.531
41861SOL     OW27421   1.392   7.180   7.294
41861SOL    HW127422   1.310   7.132   7.280
41861SOL    HW227423   1.383   7.258   7.239
41862SOL     OW27424  13.392   6.099   6.156
41862SOL    HW127425  13.462   6.125   6.216
41862SOL    HW227426  13.323   6.064   6.214
41863SOL     OW27427  10.739  12.193   1.773
41863SOL    HW127428  10.738  12.175   1.679
41863SOL    HW227429  10.817  12.148   1.805
41864SOL     OW27430   5.538  12.359   3.454
41864SOL    HW127431   5.619  12.308   3.454
41864SOL    HW227432   5.480  12.312   3.514
41865SOL     OW27433  13.518  14.561   3.894
41865SOL    HW127434  13.546  14.521   3.812
41865SOL    HW227435  13.426  14.585   3.878
41866SOL     OW27436   3.797  11.358  12.734
41866SOL    HW127437   3.871  11.367  12.794
41866SOL    HW227438   3.728  11.319  12.788
41867SOL     OW27439  13.907   1.136   1.878
41867SOL    HW127440  13.939   1.209   1.930
41867SOL    HW227441  13.951   1.059   1.914
41868SOL     OW27442   3.916  11.474  10.411
41868SOL    HW127443   3.924  11.547  10.350
41868SOL    HW227444   3.987  11.415  10.387
41869SOL     OW27445  12.895   2.347   5.408
41869SOL    HW127446  12.805   2.366   5.379
41869SOL    HW227447  12.884   2.296   5.488
41870SOL     OW27448   6.441  14.862  12.646
41870SOL    HW127449   6.489  14.785  12.617
41870SOL    HW227450   6.447  14.860  12.741
41871SOL     OW27451   6.938   5.073   6.628
41871SOL    HW127452   6.999   5.015   6.584
41871SOL    HW227453   6.966   5.161   6.604
41872SOL     OW27454   7.286   9.780   0.209
41872SOL    HW127455   7.305   9.870   0.235
41872SOL    HW227456   7.313   9.776   0.117
41873SOL     OW27457   0.105   0.764   8.539
41873SOL    HW127458   0.153   0.814   8.473
41873SOL    HW227459   0.098   0.676   8.502
41874SOL     OW27460   2.890   4.206  12.942
41874SOL    HW127461   2.825   4.276  12.941
41874SOL    HW227462   2.844   4.132  12.981
41875SOL     OW27463  12.481   3.752   7.643
41875SOL    HW127464  12.444   3.815   7.704
41875SOL    HW227465  12.409   3.692   7.624
41876SOL     OW27466   4.894   4.643  13.695
41876SOL    HW127467   4.916   4.688  13.613
41876SOL    HW227468   4.874   4.714  13.756
41877SOL     OW27469   7.364   8.188   0.385
41877SOL    HW127470   7.385   8.095   0.383
41877SOL    HW227471   7.292   8.198   0.322
41878SOL     OW27472  11.598   4.083   5.483
41878SOL    HW127473  11.584   3.995   5.518
41878SOL    HW227474  11.560   4.141   5.549
41879SOL     OW27475   9.230   0.990   4.392
41879SOL    HW127476   9.298   0.925   4.377
41879SOL    HW227477   9.258   1.067   4.343
41880SOL     OW27478   4.793  10.530   8.536
41880SOL    HW127479   4.876  10.515   8.492
41880SOL    HW227480   4.727  10.515   8.469
41881SOL     OW27481  13.813   2.795  12.426
41881SOL    HW127482  13.727   2.820  12.391
41881SOL    HW227483  13.802   2.704  12.453
41882SOL     OW27484   9.614   4.402   9.893
41882SOL    HW127485   9.521   4.401   9.869
41882SOL    HW227486   9.620   4.465   9.964
41883SOL     OW27487   8.182   7.596  14.359
41883SOL    HW127488   8.224   7.555  14.435
41883SOL    HW227489   8.088   7.582  14.373
41884SOL     OW27490   9.636   7.983  11.532
41884SOL    HW127491   9.729   7.970  11.547
41884SOL    HW227492   9.627   8.077  11.513
41885SOL     OW27493   8.054   5.880   6.237
41885SOL    HW127494   7.991   5.818   6.201
41885SOL    HW227495   8.045   5.958   6.181
41886SOL     OW27496  11.641   7.037  10.745
41886SOL    HW127497  11.551   7.059  10.768
41886SOL    HW227498  11.655   7.078  10.659
41887SOL     OW27499   6.543   3.690   8.926
41887SOL    HW127500   6.573   3.711   9.015
41887SOL    HW227501   6.563   3.597   8.915
41888SOL     OW27502   9.067  10.297   2.790
41888SOL    HW127503   8.990  10.241   2.774
41888SOL    HW227504   9.040  10.355   2.862
41889SOL     OW27505   9.910   8.605   0.229
41889SOL    HW127506   9.947   8.686   0.192
41889SOL    HW227507   9.818   8.626   0.243
41890SOL     OW27508  13.430  14.807   2.668
41890SOL    HW127509  13.378  14.741   2.622
41890SOL    HW227510  13.492  14.838   2.603
41891SOL     OW27511   2.537   6.905  10.018
41891SOL    HW127512   2.490   6.844  10.075
41891SOL    HW227513   2.579   6.966  10.079
41892SOL     OW27514   3.532   1.720   4.787
41892SOL    HW127515   3.612   1.766   4.810
41892SOL    HW227516   3.530   1.721   4.691
41893SOL     OW27517   1.926   7.258   5.550
41893SOL    HW127518   1.988   7.234   5.480
41893SOL    HW227519   1.886   7.339   5.519
41894SOL     OW27520   4.244   3.109   5.744
41894SOL    HW127521   4.249   3.191   5.792
41894SOL    HW227522   4.252   3.041   5.811
41895SOL     OW27523   0.746  13.733   8.039
41895SOL    HW127524   0.773  13.821   8.065
41895SOL    HW227525   0.651  13.738   8.032
41896SOL     OW27526   7.381   4.032   2.148
41896SOL    HW127527   7.323   4.105   2.128
41896SOL    HW227528   7.470   4.068   2.139
41897SOL     OW27529  14.408   1.419   6.567
41897SOL    HW127530  14.474   1.411   6.635
41897SOL    HW227531  14.389   1.513   6.561
41898SOL     OW27532   9.653   5.819   0.613
41898SOL    HW127533   9.616   5.875   0.681
41898SOL    HW227534   9.688   5.743   0.660
41899SOL     OW27535   2.957  10.838   7.814
41899SOL    HW127536   2.877  10.891   7.804
41899SOL    HW227537   3.008  10.859   7.736
41900SOL     OW27538   6.830  11.689   9.449
41900SOL    HW127539   6.737  11.698   9.430
41900SOL    HW227540   6.846  11.594   9.449
41901SOL     OW27541   4.054   9.043   6.451
41901SOL    HW127542   4.045   9.063   6.544
41901SOL    HW227543   3.970   9.069   6.413
41902SOL     OW27544  11.709   6.887   4.722
41902SOL    HW127545  11.722   6.880   4.628
41902SOL    HW227546  11.718   6.797   4.754
41903SOL     OW27547  10.805   8.573  13.221
41903SOL    HW127548  10.833   8.482  13.220
41903SOL    HW227549  10.785   8.593  13.130
41904SOL     OW27550   9.778   1.209  13.870
41904SOL    HW127551   9.801   1.294  13.908
41904SOL    HW227552   9.861   1.162  13.863
41905SOL     OW27553   4.434   5.876   4.544
41905SOL    HW127554   4.368   5.905   4.481
41905SOL    HW227555   4.431   5.943   4.613
41906SOL     OW27556  12.723   7.447  12.296
41906SOL    HW127557  12.778   7.477  12.223
41906SOL    HW227558  12.786   7.427  12.366
41907SOL     OW27559   5.081  11.594   7.811
41907SOL    HW127560   5.031  11.523   7.851
41907SOL    HW227561   5.119  11.555   7.732
41908SOL     OW27562  13.006   4.757  14.315
41908SOL    HW127563  12.946   4.831  14.320
41908SOL    HW227564  12.961   4.693  14.261
41909SOL     OW27565   0.635  10.186  13.885
41909SOL    HW127566   0.580  10.263  13.871
41909SOL    HW227567   0.694  10.184  13.810
41910SOL     OW27568   5.489   5.311  12.017
41910SOL    HW127569   5.539   5.305  12.098
41910SOL    HW227570   5.517   5.393  11.977
41911SOL     OW27571   1.229  11.276   0.269
41911SOL    HW127572   1.321  11.279   0.295
41911SOL    HW227573   1.230  11.285   0.174
41912SOL     OW27574   4.548  13.195  12.907
41912SOL    HW127575   4.456  13.189  12.883
41912SOL    HW227576   4.559  13.131  12.978
41913SOL     OW27577   0.389   5.293   8.376
41913SOL    HW127578   0.413   5.204   8.352
41913SOL    HW227579   0.393   5.294   8.472
41914SOL     OW27580  12.481   1.421   3.811
41914SOL    HW127581  12.493   1.355   3.879
41914SOL    HW227582  12.473   1.371   3.730
41915SOL     OW27583  12.564   6.035  11.111
41915SOL    HW127584  12.649   5.992  11.103
41915SOL    HW227585  12.561   6.068  11.200
41916SOL     OW27586  12.538   7.947   5.744
41916SOL    HW127587  12.451   7.963   5.780
41916SOL    HW227588  12.538   7.993   5.659
41917SOL     OW27589  10.203   2.080  11.003
41917SOL    HW127590  10.189   2.126  10.920
41917SOL    HW227591  10.151   2.001  10.996
41918SOL     OW27592  10.982  12.330   6.910
41918SOL    HW127593  11.025  12.365   6.987
41918SOL    HW227594  10.936  12.404   6.871
41919SOL     OW27595   4.301   0.470   7.843
41919SOL    HW127596   4.300   0.375   7.857
41919SOL    HW227597   4.215   0.489   7.805
41920SOL     OW27598   8.028  10.977   1.560
41920SOL    HW127599   8.011  11.069   1.538
41920SOL    HW227600   8.064  10.939   1.479
41921SOL     OW27601   5.163   3.808   5.978
41921SOL    HW127602   5.210   3.728   5.953
41921SOL    HW227603   5.103   3.779   6.047
41922SOL     OW27604   3.169  12.164   2.774
41922SOL    HW127605   3.182  12.258   2.777
41922SOL    HW227606   3.076  12.152   2.756
41923SOL     OW27607  12.578   7.597   2.153
41923SOL    HW127608  12.664   7.632   2.175
41923SOL    HW227609  12.540   7.570   2.237
41924SOL     OW27610  14.504  11.981   8.494
41924SOL    HW127611  14.541  11.992   8.407
41924SOL    HW227612  14.512  11.888   8.512
41925SOL     OW27613   2.732   7.916   8.257
41925SOL    HW127614   2.721   7.828   8.222
41925SOL    HW227615   2.643   7.945   8.277
41926SOL     OW27616  11.983   9.433   9.566
41926SOL    HW127617  11.976   9.469   9.477
41926SOL    HW227618  12.077   9.439   9.586
41927SOL     OW27619  10.926   9.330  11.272
41927SOL    HW127620  11.019   9.339  11.249
41927SOL    HW227621  10.881   9.322  11.188
41928SOL     OW27622   2.262   7.278   4.954
41928SOL    HW127623   2.322   7.235   5.015
41928SOL    HW227624   2.200   7.209   4.929
41929SOL     OW27625  11.273  13.077   7.608
41929SOL    HW127626  11.214  13.084   7.533
41929SOL    HW227627  11.251  13.153   7.662
41930SOL     OW27628   0.193  13.072   1.382
41930SOL    HW127629   0.218  13.070   1.474
41930SOL    HW227630   0.098  13.084   1.383
41931SOL     OW27631   3.096   0.498  11.374
41931SOL    HW127632   3.154   0.441  11.323
41931SOL    HW227633   3.053   0.553  11.309
41932SOL     OW27634   0.286  10.935   7.344
41932SOL    HW127635   0.266  10.924   7.251
41932SOL    HW227636   0.381  10.945   7.348
41933SOL     OW27637   9.550   7.806   0.439
41933SOL    HW127638   9.593   7.891   0.437
41933SOL    HW227639   9.458   7.826   0.453
41934SOL     OW27640   1.193   3.428   3.146
41934SOL    HW127641   1.179   3.366   3.219
41934SOL    HW227642   1.157   3.510   3.178
41935SOL     OW27643  10.820   5.855  13.073
41935SOL    HW127644  10.847   5.901  12.992
41935SOL    HW227645  10.740   5.900  13.099
41936SOL     OW27646   0.053   7.534   1.142
41936SOL    HW127647   0.142   7.541   1.109
41936SOL    HW227648   0.063   7.517   1.236
41937SOL     OW27649  11.034   6.382   6.127
41937SOL    HW127650  10.981   6.328   6.186
41937SOL    HW227651  11.113   6.402   6.176
41938SOL     OW27652   6.342   8.187   3.892
41938SOL    HW127653   6.349   8.093   3.908
41938SOL    HW227654   6.349   8.227   3.979
41939SOL     OW27655   5.287  11.464   9.470
41939SOL    HW127656   5.310  11.398   9.536
41939SOL    HW227657   5.345  11.537   9.490
41940SOL     OW27658  11.961   1.482  13.762
41940SOL    HW127659  11.877   1.518  13.732
41940SOL    HW227660  12.025   1.550  13.743
41941SOL     OW27661   3.741   1.745  13.753
41941SOL    HW127662   3.662   1.747  13.807
41941SOL    HW227663   3.795   1.817  13.786
41942SOL     OW27664   2.162   4.848   2.956
41942SOL    HW127665   2.132   4.888   2.874
41942SOL    HW227666   2.227   4.910   2.990
41943SOL     OW27667   7.140   1.499   6.213
41943SOL    HW127668   7.148   1.593   6.225
41943SOL    HW227669   7.050   1.486   6.182
41944SOL     OW27670   0.144   3.326  12.824
41944SOL    HW127671   0.150   3.235  12.795
41944SOL    HW227672   0.227   3.364  12.798
41945SOL     OW27673  14.771   8.160  10.155
41945SOL    HW127674  14.826   8.222  10.107
41945SOL    HW227675  14.709   8.128  10.089
41946SOL     OW27676  13.705  12.931   9.889
41946SOL    HW127677  13.657  12.905   9.810
41946SOL    HW227678  13.645  12.990   9.935
41947SOL     OW27679   6.260   4.787   7.060
41947SOL    HW127680   6.180   4.800   7.009
41947SOL    HW227681   6.274   4.870   7.106
41948SOL     OW27682   4.124   5.522  13.444
41948SOL    HW127683   4.116   5.611  13.410
41948SOL    HW227684   4.196   5.526  13.507
41949SOL     OW27685   8.593  10.664   6.980
41949SOL    HW127686   8.643  10.609   6.920
41949SOL    HW227687   8.574  10.607   7.055
41950SOL     OW27688   0.455   4.913  13.501
41950SOL    HW127689   0.464   4.994  13.451
41950SOL    HW227690   0.442   4.845  13.434
41951SOL     OW27691   2.262   2.514   4.718
41951SOL    HW127692   2.309   2.470   4.788
41951SOL    HW227693   2.206   2.445   4.681
41952SOL     OW27694  10.757   2.980   3.077
41952SOL    HW127695  10.733   3.072   3.065
41952SOL    HW227696  10.850   2.981   3.099
41953SOL     OW27697  11.276  10.362   3.181
41953SOL    HW127698  11.363  10.330   3.203
41953SOL    HW227699  11.219  10.285   3.190
41954SOL     OW27700   7.848   8.244   1.191
41954SOL    HW127701   7.777   8.307   1.195
41954SOL    HW227702   7.805   8.159   1.197
41955SOL     OW27703  10.758  12.102  11.695
41955SOL    HW127704  10.733  12.051  11.773
41955SOL    HW227705  10.714  12.186  11.705
41956SOL     OW27706  12.695   7.868  11.805
41956SOL    HW127707  12.611   7.865  11.850
41956SOL    HW227708  12.741   7.942  11.843
41957SOL     OW27709   4.084   4.883   6.063
41957SOL    HW127710   4.180   4.883   6.057
41957SOL    HW227711   4.056   4.821   5.996
41958SOL     OW27712   5.035  10.758   9.976
41958SOL    HW127713   5.106  10.717  10.025
41958SOL    HW227714   5.004  10.828  10.033
41959SOL     OW27715   6.280  12.634   5.808
41959SOL    HW127716   6.257  12.716   5.764
41959SOL    HW227717   6.259  12.650   5.900
41960SOL     OW27718   6.549  11.478  13.759
41960SOL    HW127719   6.592  11.562  13.770
41960SOL    HW227720   6.501  11.487  13.676
41961SOL     OW27721  10.116   5.308  10.988
41961SOL    HW127722  10.133   5.216  10.966
41961SOL    HW227723  10.022   5.313  11.000
41962SOL     OW27724  10.931   0.773  10.579
41962SOL    HW127725  10.903   0.717  10.651
41962SOL    HW227726  10.876   0.851  10.588
41963SOL     OW27727  12.072   9.206  13.956
41963SOL    HW127728  12.108   9.275  13.900
41963SOL    HW227729  12.095   9.234  14.045
41964SOL     OW27730  14.565   1.792   1.534
41964SOL    HW127731  14.659   1.789   1.512
41964SOL    HW227732  14.521   1.791   1.449
41965SOL     OW27733  13.063   5.255   1.544
41965SOL    HW127734  13.141   5.209   1.574
41965SOL    HW227735  13.016   5.190   1.491
41966SOL     OW27736   9.172   0.147   8.981
41966SOL    HW127737   9.177   0.211   8.909
41966SOL    HW227738   9.139   0.068   8.939
41967SOL     OW27739   0.202   8.518  13.654
41967SOL    HW127740   0.142   8.584  13.690
41967SOL    HW227741   0.257   8.568  13.593
41968SOL     OW27742  10.922  10.322  14.427
41968SOL    HW127743  10.990  10.254  14.424
41968SOL    HW227744  10.909  10.338  14.520
41969SOL     OW27745   5.348  13.149  13.965
41969SOL    HW127746   5.300  13.093  14.026
41969SOL    HW227747   5.305  13.234  13.971
41970SOL     OW27748  11.443   8.590  12.694
41970SOL    HW127749  11.362   8.628  12.727
41970SOL    HW227750  11.432   8.589  12.599
41971SOL     OW27751  12.843   4.033   3.586
41971SOL    HW127752  12.927   4.036   3.633
41971SOL    HW227753  12.864   3.987   3.504
41972SOL     OW27754   9.908  14.501   8.824
41972SOL    HW127755   9.895  14.436   8.892
41972SOL    HW227756   9.948  14.576   8.869
41973SOL     OW27757  10.710   8.095   7.403
41973SOL    HW127758  10.774   8.050   7.457
41973SOL    HW227759  10.662   8.025   7.359
41974SOL     OW27760   7.399  10.596   1.436
41974SOL    HW127761   7.459  10.670   1.420
41974SOL    HW227762   7.341  10.628   1.506
41975SOL     OW27763   3.603   8.018   9.017
41975SOL    HW127764   3.571   7.949   8.959
41975SOL    HW227765   3.699   8.009   9.012
41976SOL     OW27766   5.802   2.358   7.606
41976SOL    HW127767   5.821   2.276   7.560
41976SOL    HW227768   5.814   2.426   7.540
41977SOL     OW27769   6.576   6.857   0.208
41977SOL    HW127770   6.595   6.839   0.116
41977SOL    HW227771   6.609   6.780   0.254
41978SOL     OW27772   5.498  14.189   5.168
41978SOL    HW127773   5.524  14.168   5.078
41978SOL    HW227774   5.519  14.109   5.217
41979SOL     OW27775  12.882  14.629   6.008
41979SOL    HW127776  12.907  14.720   6.022
41979SOL    HW227777  12.946  14.578   6.058
41980SOL     OW27778  12.332   4.059  10.571
41980SOL    HW127779  12.288   4.083  10.490
41980SOL    HW227780  12.328   4.138  10.625
41981SOL     OW27781   2.313   3.968   9.982
41981SOL    HW127782   2.332   4.036  10.046
41981SOL    HW227783   2.351   3.888  10.019
41982SOL     OW27784   0.561   5.638  10.931
41982SOL    HW127785   0.493   5.692  10.891
41982SOL    HW227786   0.513   5.564  10.970
41983SOL     OW27787   3.515   2.807   9.578
41983SOL    HW127788   3.440   2.754   9.549
41983SOL    HW227789   3.554   2.838   9.496
41984SOL     OW27790   0.675  11.463   4.373
41984SOL    HW127791   0.711  11.532   4.317
41984SOL    HW227792   0.661  11.506   4.458
41985SOL     OW27793  13.251   9.928  12.615
41985SOL    HW127794  13.262   9.979  12.695
41985SOL    HW227795  13.158   9.907  12.613
41986SOL     OW27796   0.656   7.105   4.298
41986SOL    HW127797   0.743   7.087   4.262
41986SOL    HW227798   0.596   7.054   4.243
41987SOL     OW27799  12.508   4.203   3.065
41987SOL    HW127800  12.514   4.291   3.103
41987SOL    HW227801  12.572   4.152   3.115
41988SOL     OW27802   6.044  11.044   7.901
41988SOL    HW127803   5.960  11.020   7.862
41988SOL    HW227804   6.104  10.974   7.875
41989SOL     OW27805  13.598   3.783   8.621
41989SOL    HW127806  13.652   3.709   8.593
41989SOL    HW227807  13.595   3.777   8.716
41990SOL     OW27808   8.256   9.369  13.672
41990SOL    HW127809   8.272   9.275  13.666
41990SOL    HW227810   8.162   9.375  13.689
41991SOL     OW27811   3.787  13.970  11.793
41991SOL    HW127812   3.771  13.934  11.881
41991SOL    HW227813   3.814  13.895  11.741
41992SOL     OW27814   6.486   4.320   2.707
41992SOL    HW127815   6.392   4.328   2.686
41992SOL    HW227816   6.527   4.390   2.656
41993SOL     OW27817  14.756   2.666   5.474
41993SOL    HW127818  14.737   2.760   5.478
41993SOL    HW227819  14.812   2.657   5.397
41994SOL     OW27820   3.012   2.521   1.637
41994SOL    HW127821   3.018   2.577   1.559
41994SOL    HW227822   2.918   2.510   1.651
41995SOL     OW27823  10.797   8.819   9.654
41995SOL    HW127824  10.783   8.782   9.567
41995SOL    HW227825  10.863   8.762   9.694
41996SOL     OW27826   0.022  13.156  13.972
41996SOL    HW127827  14.821  13.208  14.000
41996SOL    HW227828  14.862  13.099  13.904
41997SOL     OW27829   7.769   3.728   4.967
41997SOL    HW127830   7.856   3.703   4.934
41997SOL    HW227831   7.786   3.797   5.031
41998SOL     OW27832   2.054   1.324  14.734
41998SOL    HW127833   2.061   1.413  14.700
41998SOL    HW227834   1.961   1.312  14.752
41999SOL     OW27835   0.544   9.455   9.744
41999SOL    HW127836   0.491   9.527   9.777
41999SOL    HW227837   0.568   9.405   9.822
42000SOL     OW27838   8.641   3.717  11.095
42000SOL    HW127839   8.706   3.737  11.162
42000SOL    HW227840   8.590   3.645  11.132
42001SOL     OW27841  12.663   6.782   6.274
42001SOL    HW127842  12.751   6.812   6.250
42001SOL    HW227843  12.628   6.852   6.330
42002SOL     OW27844   7.246   4.063   7.219
42002SOL    HW127845   7.260   4.023   7.133
42002SOL    HW227846   7.287   4.150   7.212
42003SOL     OW27847  12.563   5.549   3.149
42003SOL    HW127848  12.554   5.455   3.160
42003SOL    HW227849  12.473   5.582   3.147
42004SOL     OW27850  14.329   5.328   7.780
42004SOL    HW127851  14.320   5.292   7.868
42004SOL    HW227852  14.360   5.417   7.794
42005SOL     OW27853   7.180   8.294   5.963
42005SOL    HW127854   7.138   8.376   5.937
42005SOL    HW227855   7.273   8.308   5.944
42006SOL     OW27856  13.307  10.605  11.528
42006SOL    HW127857  13.391  10.580  11.567
42006SOL    HW227858  13.323  10.601  11.433
42007SOL     OW27859   5.803   3.328   1.932
42007SOL    HW127860   5.863   3.290   1.867
42007SOL    HW227861   5.791   3.419   1.903
42008SOL     OW27862   8.835   9.431   8.892
42008SOL    HW127863   8.900   9.367   8.920
42008SOL    HW227864   8.805   9.400   8.806
42009SOL     OW27865   5.140   7.275   0.315
42009SOL    HW127866   5.073   7.328   0.273
42009SOL    HW227867   5.199   7.250   0.244
42010SOL     OW27868  14.027   1.245   9.476
42010SOL    HW127869  14.075   1.207   9.550
42010SOL    HW227870  14.063   1.334   9.468
42011SOL     OW27871   0.436   6.819   1.882
42011SOL    HW127872   0.509   6.871   1.849
42011SOL    HW227873   0.383   6.799   1.805
42012SOL     OW27874   4.410   6.249   6.412
42012SOL    HW127875   4.342   6.228   6.476
42012SOL    HW227876   4.426   6.166   6.366
42013SOL     OW27877   2.363   2.278   2.864
42013SOL    HW127878   2.317   2.293   2.947
42013SOL    HW227879   2.450   2.316   2.877
42014SOL     OW27880  10.058   3.793  12.180
42014SOL    HW127881  10.092   3.838  12.102
42014SOL    HW227882   9.993   3.852  12.216
42015SOL     OW27883  13.622   6.054   1.056
42015SOL    HW127884  13.579   5.971   1.078
42015SOL    HW227885  13.576   6.086   0.979
42016SOL     OW27886   4.353   5.998   5.217
42016SOL    HW127887   4.330   6.007   5.125
42016SOL    HW227888   4.433   5.945   5.216
42017SOL     OW27889  10.581   3.793   1.097
42017SOL    HW127890  10.656   3.735   1.087
42017SOL    HW227891  10.552   3.779   1.187
42018SOL     OW27892   9.604  10.264   1.432
42018SOL    HW127893   9.562  10.293   1.351
42018SOL    HW227894   9.537  10.279   1.499
42019SOL     OW27895  10.965  10.256   5.153
42019SOL    HW127896  10.877  10.260   5.115
42019SOL    HW227897  11.001  10.174   5.121
42020SOL     OW27898   5.443   9.710   0.341
42020SOL    HW127899   5.521   9.682   0.390
42020SOL    HW227900   5.445   9.657   0.261
42021SOL     OW27901  13.122   4.434   8.833
42021SOL    HW127902  13.171   4.351   8.828
42021SOL    HW227903  13.072   4.437   8.752
42022SOL     OW27904  10.952   4.916  12.028
42022SOL    HW127905  10.898   4.901  11.950
42022SOL    HW227906  10.951   5.011  12.040
42023SOL     OW27907   7.608   4.821   9.522
42023SOL    HW127908   7.692   4.867   9.519
42023SOL    HW227909   7.617   4.761   9.597
42024SOL     OW27910   7.800   0.370  10.758
42024SOL    HW127911   7.827   0.430  10.688
42024SOL    HW227912   7.882   0.339  10.796
42025SOL     OW27913  11.416   0.677  11.068
42025SOL    HW127914  11.458   0.655  10.985
42025SOL    HW227915  11.394   0.592  11.107
42026SOL     OW27916   0.362  12.883   1.538
42026SOL    HW127917   0.312  12.944   1.592
42026SOL    HW227918   0.429  12.936   1.495
42027SOL     OW27919  14.560   6.974   1.466
42027SOL    HW127920  14.595   6.925   1.392
42027SOL    HW227921  14.629   6.971   1.532
42028SOL     OW27922   0.844   5.445  10.929
42028SOL    HW127923   0.772   5.480  10.875
42028SOL    HW227924   0.851   5.353  10.902
42029SOL     OW27925   9.601   4.909   5.376
42029SOL    HW127926   9.626   4.941   5.289
42029SOL    HW227927   9.609   4.814   5.371
42030SOL     OW27928   0.458  12.084  12.444
42030SOL    HW127929   0.458  12.177  12.467
42030SOL    HW227930   0.380  12.073  12.389
42031SOL     OW27931   2.585   2.138   7.076
42031SOL    HW127932   2.619   2.136   6.987
42031SOL    HW227933   2.638   2.206   7.119
42032SOL     OW27934  11.273   9.120   3.301
42032SOL    HW127935  11.289   9.044   3.357
42032SOL    HW227936  11.250   9.190   3.362
42033SOL     OW27937   8.180  13.840   9.521
42033SOL    HW127938   8.256  13.899   9.523
42033SOL    HW227939   8.198  13.775   9.589
42034SOL     OW27940   9.218  13.750   9.073
42034SOL    HW127941   9.273  13.790   9.006
42034SOL    HW227942   9.246  13.791   9.155
42035SOL     OW27943   3.891   5.564   4.137
42035SOL    HW127944   3.902   5.569   4.232
42035SOL    HW227945   3.979   5.572   4.102
42036SOL     OW27946   0.061  14.762  11.872
42036SOL    HW127947   0.149  14.766  11.834
42036SOL    HW227948   0.070  14.803  11.958
42037SOL     OW27949   0.673  12.356  12.483
42037SOL    HW127950   0.588  12.316  12.464
42037SOL    HW227951   0.680  12.351  12.578
42038SOL     OW27952   4.017   5.623   8.597
42038SOL    HW127953   4.090   5.619   8.535
42038SOL    HW227954   4.059   5.627   8.683
42039SOL     OW27955   9.012   3.923  12.189
42039SOL    HW127956   8.926   3.963  12.177
42039SOL    HW227957   9.002   3.865  12.265
42040SOL     OW27958   2.564   2.613   8.921
42040SOL    HW127959   2.602   2.699   8.940
42040SOL    HW227960   2.635   2.564   8.882
42041SOL     OW27961   8.221   2.693   1.155
42041SOL    HW127962   8.272   2.659   1.082
42041SOL    HW227963   8.284   2.740   1.209
42042SOL     OW27964  14.486   8.675   3.990
42042SOL    HW127965  14.448   8.665   4.077
42042SOL    HW227966  14.578   8.698   4.005
42043SOL     OW27967   5.773   4.086   3.816
42043SOL    HW127968   5.681   4.071   3.793
42043SOL    HW227969   5.800   4.005   3.859
42044SOL     OW27970   2.135  11.613  12.226
42044SOL    HW127971   2.060  11.571  12.269
42044SOL    HW227972   2.167  11.677  12.291
42045SOL     OW27973   0.052   1.727   8.046
42045SOL    HW127974  14.841   1.771   8.037
42045SOL    HW227975   0.112   1.795   8.074
42046SOL     OW27976   6.618   1.993  10.297
42046SOL    HW127977   6.701   2.032  10.272
42046SOL    HW227978   6.557   2.017  10.227
42047SOL     OW27979   1.908  11.358   0.856
42047SOL    HW127980   1.946  11.296   0.919
42047SOL    HW227981   1.839  11.402   0.904
42048SOL     OW27982  14.706   0.881  11.422
42048SOL    HW127983  14.774   0.848  11.480
42048SOL    HW227984  14.694   0.972  11.448
42049SOL     OW27985   7.718  11.259   0.127
42049SOL    HW127986   7.680  11.218   0.050
42049SOL    HW227987   7.812  11.240   0.121
42050SOL     OW27988   6.476   2.274   0.936
42050SOL    HW127989   6.450   2.259   1.027
42050SOL    HW227990   6.411   2.335   0.903
42051SOL     OW27991   7.666  13.933   4.641
42051SOL    HW127992   7.629  13.853   4.678
42051SOL    HW227993   7.724  13.903   4.572
42052SOL     OW27994   3.402   0.389   0.541
42052SOL    HW127995   3.356   0.463   0.582
42052SOL    HW227996   3.493   0.416   0.538
42053SOL     OW27997  13.609   7.511   5.538
42053SOL    HW127998  13.551   7.472   5.472
42053SOL    HW227999  13.650   7.436   5.581
42054SOL     OW28000  13.848  12.897   3.089
42054SOL    HW128001  13.876  12.979   3.050
42054SOL    HW228002  13.920  12.836   3.072
42055SOL     OW28003  12.184   6.933   1.249
42055SOL    HW128004  12.276   6.925   1.274
42055SOL    HW228005  12.143   6.853   1.282
42056SOL     OW28006   3.573  13.851  11.220
42056SOL    HW128007   3.612  13.763  11.216
42056SOL    HW228008   3.495  13.840  11.274
42057SOL     OW28009   6.474   5.824   7.743
42057SOL    HW128010   6.398   5.766   7.745
42057SOL    HW228011   6.511   5.819   7.831
42058SOL     OW28012   0.613  11.487  10.920
42058SOL    HW128013   0.573  11.400  10.916
42058SOL    HW228014   0.562  11.533  10.987
42059SOL     OW28015   1.998  14.632   3.966
42059SOL    HW128016   1.964  14.560   3.913
42059SOL    HW228017   2.093  14.622   3.961
42060SOL     OW28018   4.172   4.650  13.883
42060SOL    HW128019   4.192   4.724  13.941
42060SOL    HW228020   4.250   4.640  13.830
42061SOL     OW28021   9.756  10.536  12.428
42061SOL    HW128022   9.804  10.587  12.363
42061SOL    HW228023   9.822  10.477  12.465
42062SOL     OW28024   8.897   5.355   2.518
42062SOL    HW128025   8.890   5.446   2.490
42062SOL    HW228026   8.819   5.340   2.571
42063SOL     OW28027  10.532   9.382   2.833
42063SOL    HW128028  10.574   9.406   2.751
42063SOL    HW228029  10.439   9.372   2.811
42064SOL     OW28030  12.796  13.789   6.967
42064SOL    HW128031  12.820  13.750   7.051
42064SOL    HW228032  12.830  13.878   6.971
42065SOL     OW28033   3.731   7.415  11.318
42065SOL    HW128034   3.748   7.474  11.392
42065SOL    HW228035   3.802   7.434  11.257
42066SOL     OW28036   3.088   7.051   6.087
42066SOL    HW128037   3.149   6.998   6.138
42066SOL    HW228038   3.110   7.142   6.110
42067SOL     OW28039   1.590   8.662   7.097
42067SOL    HW128040   1.629   8.587   7.142
42067SOL    HW228041   1.624   8.658   7.008
42068SOL     OW28042   6.967  14.857   5.025
42068SOL    HW128043   7.011  14.784   5.068
42068SOL    HW228044   6.903   0.013   5.089
42069SOL     OW28045   1.617   3.246  11.609
42069SOL    HW128046   1.655   3.165  11.646
42069SOL    HW228047   1.592   3.222  11.520
42070SOL     OW28048   5.606  13.264  10.833
42070SOL    HW128049   5.592  13.202  10.905
42070SOL    HW228050   5.681  13.229  10.785
42071SOL     OW28051  11.141   3.118  11.368
42071SOL    HW128052  11.189   3.193  11.402
42071SOL    HW228053  11.049   3.137  11.387
42072SOL     OW28054  10.388   9.547   5.669
42072SOL    HW128055  10.366   9.563   5.577
42072SOL    HW228056  10.479   9.518   5.668
42073SOL     OW28057   1.798  12.397   5.447
42073SOL    HW128058   1.714  12.420   5.485
42073SOL    HW228059   1.798  12.301   5.445
42074SOL     OW28060   9.951   5.281   9.071
42074SOL    HW128061   9.962   5.359   9.017
42074SOL    HW228062   9.902   5.311   9.148
42075SOL     OW28063   0.501  14.504   3.781
42075SOL    HW128064   0.549  14.473   3.705
42075SOL    HW228065   0.409  14.490   3.758
42076SOL     OW28066   3.238   4.897   9.141
42076SOL    HW128067   3.244   4.801   9.148
42076SOL    HW228068   3.227   4.913   9.048
42077SOL     OW28069   3.733  12.354   0.366
42077SOL    HW128070   3.684  12.428   0.400
42077SOL    HW228071   3.802  12.339   0.432
42078SOL     OW28072   3.207  12.586   3.956
42078SOL    HW128073   3.236  12.536   3.880
42078SOL    HW228074   3.137  12.641   3.922
42079SOL     OW28075  11.911   5.554   5.929
42079SOL    HW128076  11.918   5.468   5.970
42079SOL    HW228077  11.999   5.591   5.934
42080SOL     OW28078   7.031   1.328  14.644
42080SOL    HW128079   7.121   1.300  14.663
42080SOL    HW228080   7.014   1.294  14.556
42081SOL     OW28081   1.771   8.928   7.734
42081SOL    HW128082   1.807   9.015   7.751
42081SOL    HW228083   1.676   8.940   7.735
42082SOL     OW28084   3.521   1.733   8.534
42082SOL    HW128085   3.535   1.826   8.515
42082SOL    HW228086   3.609   1.696   8.540
42083SOL     OW28087   5.513   0.251   8.007
42083SOL    HW128088   5.486   0.331   8.053
42083SOL    HW228089   5.506   0.182   8.073
42084SOL     OW28090   1.093  12.553   3.556
42084SOL    HW128091   1.113  12.586   3.644
42084SOL    HW228092   1.008  12.594   3.535
42085SOL     OW28093   8.825   7.767  14.192
42085SOL    HW128094   8.769   7.794  14.265
42085SOL    HW228095   8.910   7.748  14.233
42086SOL     OW28096   8.293  14.658  14.858
42086SOL    HW128097   8.295  14.593   0.054
42086SOL    HW228098   8.201  14.686  14.854
42087SOL     OW28099  13.910  10.375   8.475
42087SOL    HW128100  13.908  10.282   8.453
42087SOL    HW228101  13.993  10.388   8.521
42088SOL     OW28102   8.371   4.913   3.068
42088SOL    HW128103   8.405   4.996   3.103
42088SOL    HW228104   8.288   4.937   3.027
42089SOL     OW28105   1.295   4.560  11.233
42089SOL    HW128106   1.334   4.473  11.227
42089SOL    HW228107   1.272   4.583  11.143
42090SOL     OW28108   0.741   6.823   2.632
42090SOL    HW128109   0.699   6.768   2.698
42090SOL    HW228110   0.702   6.910   2.644
42091SOL     OW28111   8.828  12.831  12.727
42091SOL    HW128112   8.923  12.833  12.731
42091SOL    HW228113   8.808  12.771  12.655
42092SOL     OW28114  10.894  11.760   3.006
42092SOL    HW128115  10.946  11.691   3.048
42092SOL    HW228116  10.955  11.831   2.990
42093SOL     OW28117   2.027  12.597   5.104
42093SOL    HW128118   2.031  12.501   5.094
42093SOL    HW228119   1.942  12.613   5.144
42094SOL     OW28120   0.845   7.952   5.162
42094SOL    HW128121   0.875   7.861   5.155
42094SOL    HW228122   0.866   7.977   5.252
42095SOL     OW28123   4.951   3.221  11.993
42095SOL    HW128124   5.046   3.210  11.993
42095SOL    HW228125   4.936   3.291  11.929
42096SOL     OW28126  10.199   4.910   1.630
42096SOL    HW128127  10.121   4.891   1.579
42096SOL    HW228128  10.208   4.835   1.689
42097SOL     OW28129   4.580   3.173  12.059
42097SOL    HW128130   4.494   3.134  12.043
42097SOL    HW228131   4.604   3.212  11.975
42098SOL     OW28132   7.256  12.386   7.563
42098SOL    HW128133   7.273  12.374   7.470
42098SOL    HW228134   7.337  12.357   7.605
42099SOL     OW28135  13.172   0.069  11.678
42099SOL    HW128136  13.093   0.015  11.679
42099SOL    HW228137  13.173   0.112  11.764
42100SOL     OW28138  12.588   9.342   4.347
42100SOL    HW128139  12.569   9.337   4.441
42100SOL    HW228140  12.681   9.321   4.340
42101SOL     OW28141  12.913   2.580   0.490
42101SOL    HW128142  12.911   2.492   0.525
42101SOL    HW228143  12.962   2.631   0.554
42102SOL     OW28144   8.642   3.839   2.755
42102SOL    HW128145   8.660   3.933   2.746
42102SOL    HW228146   8.714   3.806   2.809
42103SOL     OW28147   9.116   9.893  11.610
42103SOL    HW128148   9.051   9.824  11.619
42103SOL    HW228149   9.071   9.973  11.637
42104SOL     OW28150   7.755  10.208   3.360
42104SOL    HW128151   7.692  10.136   3.359
42104SOL    HW228152   7.732  10.261   3.283
42105SOL     OW28153   8.209   2.966   7.370
42105SOL    HW128154   8.167   2.946   7.286
42105SOL    HW228155   8.166   2.907   7.432
42106SOL     OW28156   5.152   9.333  12.115
42106SOL    HW128157   5.112   9.366  12.196
42106SOL    HW228158   5.192   9.411  12.075
42107SOL     OW28159   5.608  13.623  11.493
42107SOL    HW128160   5.700  13.597  11.499
42107SOL    HW228161   5.611  13.719  11.490
42108SOL     OW28162   8.684  10.744  12.378
42108SOL    HW128163   8.595  10.711  12.364
42108SOL    HW228164   8.705  10.790  12.297
42109SOL     OW28165   3.680   4.032   6.540
42109SOL    HW128166   3.601   4.064   6.584
42109SOL    HW228167   3.752   4.062   6.595
42110SOL     OW28168  12.400   4.037   0.427
42110SOL    HW128169  12.312   4.014   0.456
42110SOL    HW228170  12.436   3.955   0.393
42111SOL     OW28171   1.777  11.718  12.712
42111SOL    HW128172   1.772  11.810  12.740
42111SOL    HW228173   1.686  11.695  12.690
42112SOL     OW28174  10.318   3.793  11.543
42112SOL    HW128175  10.411   3.792  11.521
42112SOL    HW228176  10.280   3.858  11.484
42113SOL     OW28177   7.577  14.767   6.471
42113SOL    HW128178   7.496  14.718   6.485
42113SOL    HW228179   7.602  14.746   6.381
42114SOL     OW28180   7.767   8.265   2.441
42114SOL    HW128181   7.794   8.320   2.515
42114SOL    HW228182   7.683   8.228   2.469
42115SOL     OW28183  11.174   9.334   4.957
42115SOL    HW128184  11.146   9.418   4.921
42115SOL    HW228185  11.113   9.271   4.920
42116SOL     OW28186   8.817  14.678   4.674
42116SOL    HW128187   8.827  14.626   4.594
42116SOL    HW228188   8.887  14.744   4.668
42117SOL     OW28189   2.766   0.863   3.685
42117SOL    HW128190   2.851   0.905   3.702
42117SOL    HW228191   2.763   0.853   3.590
42118SOL     OW28192   6.196  11.281   7.976
42118SOL    HW128193   6.184  11.284   8.071
42118SOL    HW228194   6.121  11.232   7.943
42119SOL     OW28195  13.135   8.729   7.308
42119SOL    HW128196  13.096   8.651   7.349
42119SOL    HW228197  13.154   8.787   7.381
42120SOL     OW28198  10.377   7.176   3.757
42120SOL    HW128199  10.295   7.189   3.805
42120SOL    HW228200  10.358   7.210   3.669
42121SOL     OW28201   7.075  12.419   0.195
42121SOL    HW128202   7.055  12.325   0.198
42121SOL    HW228203   7.158  12.424   0.148
42122SOL     OW28204  11.853   3.087   7.693
42122SOL    HW128205  11.912   3.136   7.636
42122SOL    HW228206  11.780   3.147   7.710
42123SOL     OW28207  11.999  13.299   9.518
42123SOL    HW128208  11.963  13.352   9.589
42123SOL    HW228209  11.996  13.210   9.551
42124SOL     OW28210   9.582  14.237   9.979
42124SOL    HW128211   9.520  14.290   9.929
42124SOL    HW228212   9.564  14.147   9.952
42125SOL     OW28213  12.584   1.993  14.740
42125SOL    HW128214  12.675   1.980  14.765
42125SOL    HW228215  12.560   2.077  14.780
42126SOL     OW28216  13.754   9.692   8.304
42126SOL    HW128217  13.743   9.665   8.395
42126SOL    HW228218  13.832   9.747   8.304
42127SOL     OW28219   0.155  11.532  13.713
42127SOL    HW128220   0.158  11.581  13.631
42127SOL    HW228221   0.073  11.483  13.709
42128SOL     OW28222   7.617   5.473   6.076
42128SOL    HW128223   7.709   5.498   6.062
42128SOL    HW228224   7.608   5.468   6.171
42129SOL     OW28225   3.073   3.740   6.094
42129SOL    HW128226   3.061   3.671   6.160
42129SOL    HW228227   3.100   3.693   6.015
42130SOL     OW28228   8.095  14.636  11.179
42130SOL    HW128229   8.002  14.656  11.190
42130SOL    HW228230   8.101  14.542  11.198
42131SOL     OW28231   8.182   4.388   7.061
42131SOL    HW128232   8.246   4.450   7.094
42131SOL    HW228233   8.124   4.440   7.006
42132SOL     OW28234  10.873   9.438   2.028
42132SOL    HW128235  10.838   9.498   1.962
42132SOL    HW228236  10.962   9.469   2.044
42133SOL     OW28237   4.017  11.352  13.704
42133SOL    HW128238   4.071  11.389  13.634
42133SOL    HW228239   4.080  11.314  13.766
42134SOL     OW28240   1.297  11.334   6.846
42134SOL    HW128241   1.349  11.263   6.808
42134SOL    HW228242   1.349  11.365   6.921
42135SOL     OW28243   5.989   9.000   3.598
42135SOL    HW128244   5.969   9.093   3.609
42135SOL    HW228245   6.064   8.985   3.656
42136SOL     OW28246  14.420   9.659   9.006
42136SOL    HW128247  14.439   9.712   8.928
42136SOL    HW228248  14.325   9.657   9.012
42137SOL     OW28249   5.423   3.702  11.752
42137SOL    HW128250   5.462   3.783  11.786
42137SOL    HW228251   5.413   3.718  11.658
42138SOL     OW28252  13.629   9.363  11.490
42138SOL    HW128253  13.625   9.361  11.394
42138SOL    HW228254  13.678   9.443  11.510
42139SOL     OW28255   7.548   1.512   3.046
42139SOL    HW128256   7.597   1.463   2.981
42139SOL    HW228257   7.520   1.447   3.110
42140SOL     OW28258   1.502   3.048  10.528
42140SOL    HW128259   1.579   2.991  10.526
42140SOL    HW228260   1.438   3.001  10.580
42141SOL     OW28261   5.707   5.213   9.905
42141SOL    HW128262   5.763   5.291   9.904
42141SOL    HW228263   5.699   5.187   9.813
42142SOL     OW28264   1.208  10.673   0.941
42142SOL    HW128265   1.180  10.584   0.961
42142SOL    HW228266   1.135  10.728   0.967
42143SOL     OW28267   6.564   5.466   4.405
42143SOL    HW128268   6.633   5.521   4.370
42143SOL    HW228269   6.599   5.434   4.488
42144SOL     OW28270  13.196   5.635   0.592
42144SOL    HW128271  13.169   5.660   0.680
42144SOL    HW228272  13.207   5.718   0.546
42145SOL     OW28273  12.684   8.505   6.865
42145SOL    HW128274  12.610   8.455   6.898
42145SOL    HW228275  12.757   8.444   6.865
42146SOL     OW28276   2.861   2.866  12.183
42146SOL    HW128277   2.779   2.906  12.210
42146SOL    HW228278   2.847   2.840  12.092
42147SOL     OW28279   2.647   4.294  10.023
42147SOL    HW128280   2.611   4.331  10.104
42147SOL    HW228281   2.739   4.319  10.024
42148SOL     OW28282   1.873   0.850  14.774
42148SOL    HW128283   1.901   0.767  14.811
42148SOL    HW228284   1.794   0.828  14.724
42149SOL     OW28285   7.512  10.189  11.658
42149SOL    HW128286   7.551  10.196  11.570
42149SOL    HW228287   7.480  10.277  11.677
42150SOL     OW28288   2.307   8.739   0.707
42150SOL    HW128289   2.228   8.792   0.702
42150SOL    HW228290   2.375   8.800   0.738
42151SOL     OW28291   8.987  14.582  11.898
42151SOL    HW128292   8.933  14.661  11.902
42151SOL    HW228293   9.010  14.572  11.806
42152SOL     OW28294   2.372   3.492  13.589
42152SOL    HW128295   2.332   3.518  13.672
42152SOL    HW228296   2.446   3.552  13.578
42153SOL     OW28297  12.967   1.697   1.231
42153SOL    HW128298  12.914   1.656   1.299
42153SOL    HW228299  12.912   1.769   1.198
42154SOL     OW28300  11.434   0.567  12.500
42154SOL    HW128301  11.421   0.646  12.448
42154SOL    HW228302  11.348   0.524  12.500
42155SOL     OW28303   4.439  12.730  14.302
42155SOL    HW128304   4.489  12.761  14.378
42155SOL    HW228305   4.505  12.708  14.237
42156SOL     OW28306  11.986   2.620   3.190
42156SOL    HW128307  11.933   2.681   3.242
42156SOL    HW228308  12.061   2.672   3.161
42157SOL     OW28309   0.973   4.187  14.809
42157SOL    HW128310   0.995   4.269  14.765
42157SOL    HW228311   1.045   4.128  14.787
42158SOL     OW28312   3.356   2.533   9.459
42158SOL    HW128313   3.417   2.494   9.521
42158SOL    HW228314   3.271   2.527   9.502
42159SOL     OW28315   8.858  13.488   1.806
42159SOL    HW128316   8.812  13.549   1.748
42159SOL    HW228317   8.891  13.543   1.877
42160SOL     OW28318   3.016   6.415  11.823
42160SOL    HW128319   3.072   6.484  11.789
42160SOL    HW228320   3.025   6.344  11.760
42161SOL     OW28321  13.694   7.175  14.465
42161SOL    HW128322  13.663   7.263  14.484
42161SOL    HW228323  13.647   7.149  14.386
42162SOL     OW28324   9.594  11.301   5.071
42162SOL    HW128325   9.529  11.370   5.056
42162SOL    HW228326   9.556  11.223   5.030
42163SOL     OW28327  11.627   3.019  10.668
42163SOL    HW128328  11.601   2.936  10.709
42163SOL    HW228329  11.697   2.994  10.608
42164SOL     OW28330   5.445  14.048  11.547
42164SOL    HW128331   5.480  14.018  11.463
42164SOL    HW228332   5.420  13.968  11.593
42165SOL     OW28333   1.774   3.479  13.604
42165SOL    HW128334   1.855   3.487  13.553
42165SOL    HW228335   1.770   3.560  13.656
42166SOL     OW28336   6.072   5.337   4.598
42166SOL    HW128337   6.136   5.377   4.539
42166SOL    HW228338   6.076   5.390   4.677
42167SOL     OW28339   0.053  13.356  11.261
42167SOL    HW128340   0.130  13.402  11.296
42167SOL    HW228341  14.862  13.362  11.331
42168SOL     OW28342  12.195   9.315  14.198
42168SOL    HW128343  12.183   9.234  14.246
42168SOL    HW228344  12.185   9.384  14.264
42169SOL     OW28345   2.394  14.531   5.983
42169SOL    HW128346   2.412  14.437   5.970
42169SOL    HW228347   2.328  14.552   5.917
42170SOL     OW28348  11.032  11.395   3.530
42170SOL    HW128349  10.942  11.371   3.509
42170SOL    HW228350  11.079  11.311   3.534
42171SOL     OW28351  13.511   6.052   1.759
42171SOL    HW128352  13.546   5.963   1.751
42171SOL    HW228353  13.416   6.039   1.763
42172SOL     OW28354   8.456  14.711   3.933
42172SOL    HW128355   8.510  14.642   3.893
42172SOL    HW228356   8.388  14.728   3.869
42173SOL     OW28357   5.040   2.302  11.407
42173SOL    HW128358   4.977   2.349  11.353
42173SOL    HW228359   5.011   2.211  11.407
42174SOL     OW28360   5.955   6.159   5.789
42174SOL    HW128361   5.894   6.086   5.791
42174SOL    HW228362   5.961   6.189   5.880
42175SOL     OW28363   7.200  13.354   9.056
42175SOL    HW128364   7.146  13.428   9.029
42175SOL    HW228365   7.141  13.279   9.051
42176SOL     OW28366  12.893  10.547   2.549
42176SOL    HW128367  12.945  10.467   2.551
42176SOL    HW228368  12.955  10.616   2.574
42177SOL     OW28369   3.311  13.480   0.455
42177SOL    HW128370   3.391  13.484   0.402
42177SOL    HW228371   3.293  13.387   0.463
42178SOL     OW28372   7.792   5.433   7.840
42178SOL    HW128373   7.772   5.491   7.913
42178SOL    HW228374   7.845   5.363   7.878
42179SOL     OW28375   7.415   2.385   1.472
42179SOL    HW128376   7.510   2.381   1.470
42179SOL    HW228377   7.388   2.294   1.485
42180SOL     OW28378   4.403   9.025   8.062
42180SOL    HW128379   4.347   9.102   8.065
42180SOL    HW228380   4.438   9.016   8.151
42181SOL     OW28381   8.034   0.164   8.177
42181SOL    HW128382   7.996   0.202   8.098
42181SOL    HW228383   8.058   0.075   8.152
42182SOL     OW28384  13.006   3.441   1.673
42182SOL    HW128385  13.008   3.384   1.596
42182SOL    HW228386  12.922   3.422   1.715
42183SOL     OW28387   3.935   4.081   0.996
42183SOL    HW128388   3.862   4.110   1.050
42183SOL    HW228389   4.008   4.138   1.021
42184SOL     OW28390  11.962  12.143   5.313
42184SOL    HW128391  12.033  12.150   5.377
42184SOL    HW228392  11.892  12.198   5.350
42185SOL     OW28393  10.970  14.211   5.489
42185SOL    HW128394  10.971  14.307   5.488
42185SOL    HW228395  11.051  14.187   5.534
42186SOL     OW28396   1.286  10.842  10.128
42186SOL    HW128397   1.249  10.860  10.042
42186SOL    HW228398   1.374  10.878  10.124
42187SOL     OW28399   4.266   4.683   1.072
42187SOL    HW128400   4.247   4.738   0.996
42187SOL    HW228401   4.289   4.745   1.141
42188SOL     OW28402  14.009  14.408   7.700
42188SOL    HW128403  14.011  14.353   7.621
42188SOL    HW228404  13.916  14.415   7.721
42189SOL     OW28405  12.323   0.665   2.670
42189SOL    HW128406  12.370   0.630   2.746
42189SOL    HW228407  12.236   0.687   2.704
42190SOL     OW28408  10.284   2.246   4.212
42190SOL    HW128409  10.282   2.201   4.296
42190SOL    HW228410  10.212   2.309   4.217
42191SOL     OW28411   8.573   1.943   1.932
42191SOL    HW128412   8.557   1.861   1.978
42191SOL    HW228413   8.667   1.942   1.912
42192SOL     OW28414   7.411  13.676  13.974
42192SOL    HW128415   7.487  13.617  13.972
42192SOL    HW228416   7.425  13.735  13.899
42193SOL     OW28417  11.807   5.927  10.481
42193SOL    HW128418  11.717   5.947  10.508
42193SOL    HW228419  11.848   6.012  10.469
42194SOL     OW28420   8.544   4.361   6.399
42194SOL    HW128421   8.507   4.409   6.473
42194SOL    HW228422   8.617   4.416   6.369
42195SOL     OW28423   8.519   1.220  11.626
42195SOL    HW128424   8.550   1.131  11.608
42195SOL    HW228425   8.587   1.259  11.681
42196SOL     OW28426   9.875   3.700  10.262
42196SOL    HW128427   9.922   3.632  10.311
42196SOL    HW228428   9.937   3.773  10.257
42197SOL     OW28429   3.818  13.460   9.781
42197SOL    HW128430   3.772  13.541   9.762
42197SOL    HW228431   3.785  13.398   9.716
42198SOL     OW28432   9.432   6.886   5.364
42198SOL    HW128433   9.422   6.869   5.270
42198SOL    HW228434   9.343   6.879   5.399
42199SOL     OW28435  14.163   7.971   8.231
42199SOL    HW128436  14.126   8.037   8.290
42199SOL    HW228437  14.099   7.901   8.229
42200SOL     OW28438  14.731   5.180   2.738
42200SOL    HW128439  14.697   5.156   2.652
42200SOL    HW228440  14.807   5.123   2.751
42201SOL     OW28441   8.143  12.598   5.150
42201SOL    HW128442   8.147  12.504   5.170
42201SOL    HW228443   8.050  12.616   5.138
42202SOL     OW28444   3.903  14.078   6.683
42202SOL    HW128445   3.877  14.108   6.770
42202SOL    HW228446   3.826  14.033   6.649
42203SOL     OW28447   0.526  13.479  14.638
42203SOL    HW128448   0.543  13.387  14.621
42203SOL    HW228449   0.442  13.497  14.596
42204SOL     OW28450   6.150   0.443  14.052
42204SOL    HW128451   6.124   0.533  14.070
42204SOL    HW228452   6.108   0.422  13.968
42205SOL     OW28453   8.286   1.891   0.676
42205SOL    HW128454   8.361   1.833   0.686
42205SOL    HW228455   8.291   1.921   0.585
42206SOL     OW28456  11.191   3.693   5.069
42206SOL    HW128457  11.267   3.749   5.080
42206SOL    HW228458  11.226   3.611   5.033
42207SOL     OW28459   2.166  11.242   0.139
42207SOL    HW128460   2.230  11.266   0.072
42207SOL    HW228461   2.151  11.148   0.126
42208SOL     OW28462   0.961  11.724  14.835
42208SOL    HW128463   0.975  11.706   0.054
42208SOL    HW228464   0.896  11.658  14.808
42209SOL     OW28465   0.436   7.275   4.720
42209SOL    HW128466   0.437   7.269   4.624
42209SOL    HW228467   0.375   7.205   4.748
42210SOL     OW28468  13.337  11.507   4.230
42210SOL    HW128469  13.260  11.556   4.255
42210SOL    HW228470  13.350  11.444   4.302
42211SOL     OW28471   5.900   4.986  11.576
42211SOL    HW128472   5.950   4.929  11.634
42211SOL    HW228473   5.909   5.073  11.614
42212SOL     OW28474   1.472   8.948  14.311
42212SOL    HW128475   1.427   8.874  14.270
42212SOL    HW228476   1.410   8.980  14.376
42213SOL     OW28477   2.574  13.174   1.541
42213SOL    HW128478   2.552  13.145   1.452
42213SOL    HW228479   2.501  13.230   1.567
42214SOL     OW28480   5.332   2.898   8.272
42214SOL    HW128481   5.317   2.871   8.362
42214SOL    HW228482   5.287   2.983   8.264
42215SOL     OW28483   4.241   9.175   4.127
42215SOL    HW128484   4.168   9.160   4.067
42215SOL    HW228485   4.231   9.266   4.155
42216SOL     OW28486   6.508   9.570  14.028
42216SOL    HW128487   6.467   9.640  13.977
42216SOL    HW228488   6.451   9.560  14.105
42217SOL     OW28489  11.712   7.507   3.640
42217SOL    HW128490  11.747   7.425   3.673
42217SOL    HW228491  11.780   7.539   3.580
42218SOL     OW28492   2.888   5.248   8.259
42218SOL    HW128493   2.833   5.170   8.249
42218SOL    HW228494   2.833   5.321   8.230
42219SOL     OW28495  10.282  12.422   2.099
42219SOL    HW128496  10.298  12.376   2.016
42219SOL    HW228497  10.219  12.367   2.145
42220SOL     OW28498   6.539   3.803   9.796
42220SOL    HW128499   6.557   3.760   9.880
42220SOL    HW228500   6.471   3.867   9.816
42221SOL     OW28501   0.149  11.465   2.678
42221SOL    HW128502   0.196  11.526   2.620
42221SOL    HW228503   0.154  11.506   2.764
42222SOL     OW28504  11.883  11.485   3.590
42222SOL    HW128505  11.928  11.412   3.633
42222SOL    HW228506  11.926  11.493   3.505
42223SOL     OW28507  14.454  12.815  13.483
42223SOL    HW128508  14.451  12.844  13.574
42223SOL    HW228509  14.389  12.869  13.438
42224SOL     OW28510   2.559   0.415   2.207
42224SOL    HW128511   2.491   0.480   2.225
42224SOL    HW228512   2.639   0.452   2.243
42225SOL     OW28513   2.592   4.580   3.700
42225SOL    HW128514   2.597   4.489   3.727
42225SOL    HW228515   2.683   4.605   3.682
42226SOL     OW28516   6.138   0.278  12.688
42226SOL    HW128517   6.206   0.334  12.653
42226SOL    HW228518   6.121   0.214  12.619
42227SOL     OW28519   3.475   0.246  10.531
42227SOL    HW128520   3.410   0.216  10.595
42227SOL    HW228521   3.541   0.176  10.529
42228SOL     OW28522  13.185  13.982  12.267
42228SOL    HW128523  13.201  13.918  12.199
42228SOL    HW228524  13.103  13.954  12.309
42229SOL     OW28525   7.319  14.131   3.396
42229SOL    HW128526   7.252  14.079   3.440
42229SOL    HW228527   7.329  14.090   3.309
42230SOL     OW28528   3.048   0.973  12.175
42230SOL    HW128529   2.994   0.963  12.096
42230SOL    HW228530   3.098   0.892  12.180
42231SOL     OW28531   4.342   8.023   0.435
42231SOL    HW128532   4.426   8.016   0.388
42231SOL    HW228533   4.342   8.112   0.469
42232SOL     OW28534   4.560  12.603  13.084
42232SOL    HW128535   4.603  12.590  12.999
42232SOL    HW228536   4.632  12.613  13.146
42233SOL     OW28537   8.397   3.158  13.663
42233SOL    HW128538   8.385   3.063  13.655
42233SOL    HW228539   8.441   3.183  13.582
42234SOL     OW28540  11.821  10.028  14.165
42234SOL    HW128541  11.875   9.990  14.234
42234SOL    HW228542  11.790   9.952  14.115
42235SOL     OW28543  10.560   9.134   3.176
42235SOL    HW128544  10.551   9.190   3.253
42235SOL    HW228545  10.514   9.053   3.200
42236SOL     OW28546   2.655   0.247   4.163
42236SOL    HW128547   2.699   0.162   4.166
42236SOL    HW228548   2.712   0.301   4.107
42237SOL     OW28549   7.193   9.742   7.901
42237SOL    HW128550   7.119   9.802   7.912
42237SOL    HW228551   7.153   9.656   7.888
42238SOL     OW28552  11.188   8.447   8.761
42238SOL    HW128553  11.183   8.376   8.698
42238SOL    HW228554  11.104   8.444   8.808
42239SOL     OW28555   7.467  10.097  14.031
42239SOL    HW128556   7.488  10.183  14.068
42239SOL    HW228557   7.439  10.116  13.941
42240SOL     OW28558  10.357   9.083  10.241
42240SOL    HW128559  10.408   9.065  10.162
42240SOL    HW228560  10.402   9.155  10.284
42241SOL     OW28561  13.188   4.325   9.292
42241SOL    HW128562  13.251   4.254   9.305
42241SOL    HW228563  13.237   4.405   9.307
42242SOL     OW28564   9.310   3.124  14.661
42242SOL    HW128565   9.324   3.085  14.574
42242SOL    HW228566   9.353   3.209  14.656
42243SOL     OW28567   3.897   4.255  10.766
42243SOL    HW128568   3.868   4.341  10.736
42243SOL    HW228569   3.965   4.273  10.830
42244SOL     OW28570   0.710   5.469   7.568
42244SOL    HW128571   0.639   5.516   7.611
42244SOL    HW228572   0.685   5.465   7.476
42245SOL     OW28573  12.610   7.244   5.845
42245SOL    HW128574  12.696   7.255   5.805
42245SOL    HW228575  12.549   7.243   5.772
42246SOL     OW28576   2.817   4.495   6.169
42246SOL    HW128577   2.862   4.578   6.186
42246SOL    HW228578   2.727   4.520   6.151
42247SOL     OW28579   3.522   6.837   6.861
42247SOL    HW128580   3.548   6.778   6.932
42247SOL    HW228581   3.558   6.922   6.887
42248SOL     OW28582   4.516   5.728   1.764
42248SOL    HW128583   4.447   5.693   1.707
42248SOL    HW228584   4.483   5.814   1.790
42249SOL     OW28585   6.681   5.728   0.424
42249SOL    HW128586   6.656   5.802   0.369
42249SOL    HW228587   6.710   5.661   0.362
42250SOL     OW28588   8.469   8.076   1.655
42250SOL    HW128589   8.555   8.045   1.681
42250SOL    HW228590   8.483   8.119   1.571
42251SOL     OW28591   3.151   1.879   6.513
42251SOL    HW128592   3.125   1.954   6.565
42251SOL    HW228593   3.077   1.862   6.455
42252SOL     OW28594   7.668  13.180   7.675
42252SOL    HW128595   7.740  13.191   7.612
42252SOL    HW228596   7.591  13.163   7.621
42253SOL     OW28597   4.934   7.971   9.121
42253SOL    HW128598   5.005   8.004   9.067
42253SOL    HW228599   4.882   7.917   9.062
42254SOL     OW28600   2.858   1.262   7.419
42254SOL    HW128601   2.922   1.334   7.419
42254SOL    HW228602   2.844   1.243   7.327
42255SOL     OW28603  11.947   3.897  14.433
42255SOL    HW128604  11.927   3.867  14.522
42255SOL    HW228605  11.894   3.976  14.422
42256SOL     OW28606  14.495   6.684   6.864
42256SOL    HW128607  14.547   6.622   6.813
42256SOL    HW228608  14.445   6.628   6.924
42257SOL     OW28609   0.555  13.035   1.427
42257SOL    HW128610   0.562  13.101   1.359
42257SOL    HW228611   0.645  13.023   1.459
42258SOL     OW28612   8.522  12.810   6.661
42258SOL    HW128613   8.516  12.767   6.746
42258SOL    HW228614   8.439  12.857   6.652
42259SOL     OW28615   6.685   2.212  13.712
42259SOL    HW128616   6.675   2.164  13.794
42259SOL    HW228617   6.719   2.147  13.650
42260SOL     OW28618   6.639   1.738   3.082
42260SOL    HW128619   6.702   1.798   3.043
42260SOL    HW228620   6.612   1.780   3.164
42261SOL     OW28621  11.405   3.279   7.126
42261SOL    HW128622  11.394   3.290   7.031
42261SOL    HW228623  11.487   3.231   7.135
42262SOL     OW28624   1.375   2.689   7.791
42262SOL    HW128625   1.413   2.641   7.865
42262SOL    HW228626   1.386   2.781   7.813
42263SOL     OW28627   8.809  13.011   9.204
42263SOL    HW128628   8.794  13.020   9.298
42263SOL    HW228629   8.730  13.047   9.164
42264SOL     OW28630   7.843   1.094   4.430
42264SOL    HW128631   7.840   1.184   4.465
42264SOL    HW228632   7.770   1.049   4.472
42265SOL     OW28633   2.665   5.881  13.002
42265SOL    HW128634   2.575   5.902  13.027
42265SOL    HW228635   2.718   5.907  13.078
42266SOL     OW28636   1.396   5.097   3.740
42266SOL    HW128637   1.478   5.108   3.691
42266SOL    HW228638   1.417   5.036   3.810
42267SOL     OW28639  13.659   1.945   0.254
42267SOL    HW128640  13.676   1.974   0.164
42267SOL    HW228641  13.629   2.024   0.299
42268SOL     OW28642   1.156   3.132   7.831
42268SOL    HW128643   1.122   3.221   7.841
42268SOL    HW228644   1.082   3.075   7.851
42269SOL     OW28645  14.700  11.583   0.978
42269SOL    HW128646  14.711  11.494   1.011
42269SOL    HW228647  14.754  11.638   1.035
42270SOL     OW28648   5.807  12.905  14.744
42270SOL    HW128649   5.715  12.883  14.725
42270SOL    HW228650   5.810  13.000  14.738
42271SOL     OW28651  14.659  14.232  13.424
42271SOL    HW128652  14.673  14.148  13.467
42271SOL    HW228653  14.746  14.272  13.419
42272SOL     OW28654   9.820   0.651  13.245
42272SOL    HW128655   9.747   0.589  13.246
42272SOL    HW228656   9.816   0.692  13.159
42273SOL     OW28657   9.478  11.470   9.972
42273SOL    HW128658   9.470  11.430   9.885
42273SOL    HW228659   9.490  11.563   9.954
42274SOL     OW28660   3.978   5.758  10.173
42274SOL    HW128661   3.949   5.670  10.195
42274SOL    HW228662   3.915   5.789  10.108
42275SOL     OW28663   8.461   7.315   2.236
42275SOL    HW128664   8.399   7.289   2.167
42275SOL    HW228665   8.504   7.393   2.201
42276SOL     OW28666  12.850   0.414   9.507
42276SOL    HW128667  12.772   0.444   9.462
42276SOL    HW228668  12.818   0.381   9.591
42277SOL     OW28669  10.591  13.916   4.184
42277SOL    HW128670  10.661  13.980   4.195
42277SOL    HW228671  10.608  13.876   4.099
42278SOL     OW28672  10.817  13.073   6.728
42278SOL    HW128673  10.827  13.167   6.709
42278SOL    HW228674  10.881  13.056   6.797
42279SOL     OW28675   7.007   0.862   6.150
42279SOL    HW128676   6.947   0.857   6.224
42279SOL    HW228677   7.090   0.831   6.184
42280SOL     OW28678  14.456  13.490   1.942
42280SOL    HW128679  14.375  13.487   1.993
42280SOL    HW228680  14.526  13.497   2.008
42281SOL     OW28681  14.420  13.747  12.163
42281SOL    HW128682  14.360  13.695  12.110
42281SOL    HW228683  14.438  13.824  12.110
42282SOL     OW28684   8.391   3.126   2.277
42282SOL    HW128685   8.375   3.119   2.183
42282SOL    HW228686   8.356   3.211   2.302
42283SOL     OW28687   9.980   0.243   9.641
42283SOL    HW128688  10.026   0.297   9.705
42283SOL    HW228689  10.050   0.207   9.586
42284SOL     OW28690  10.480  12.803  13.292
42284SOL    HW128691  10.470  12.708  13.296
42284SOL    HW228692  10.504  12.821  13.201
42285SOL     OW28693   9.618  14.323   6.957
42285SOL    HW128694   9.569  14.373   7.023
42285SOL    HW228695   9.555  14.258   6.925
42286SOL     OW28696   4.156   0.948   3.396
42286SOL    HW128697   4.207   0.939   3.476
42286SOL    HW228698   4.113   1.033   3.404
42287SOL     OW28699   9.559   5.676   4.039
42287SOL    HW128700   9.576   5.748   4.100
42287SOL    HW228701   9.548   5.719   3.954
42288SOL     OW28702  11.394  11.532   4.755
42288SOL    HW128703  11.370  11.621   4.731
42288SOL    HW228704  11.489  11.531   4.753
42289SOL     OW28705   6.854   0.595   1.261
42289SOL    HW128706   6.826   0.659   1.327
42289SOL    HW228707   6.902   0.528   1.310
42290SOL     OW28708   5.687  11.639   1.345
42290SOL    HW128709   5.690  11.692   1.425
42290SOL    HW228710   5.603  11.660   1.306
42291SOL     OW28711   4.962   7.413   5.924
42291SOL    HW128712   4.952   7.321   5.898
42291SOL    HW228713   4.918   7.462   5.855
42292SOL     OW28714  10.376   5.936   9.580
42292SOL    HW128715  10.437   5.999   9.543
42292SOL    HW228716  10.324   5.986   9.642
42293SOL     OW28717   5.499   4.531   8.315
42293SOL    HW128718   5.449   4.483   8.380
42293SOL    HW228719   5.547   4.464   8.266
42294SOL     OW28720  13.967  12.984   6.893
42294SOL    HW128721  14.044  12.952   6.845
42294SOL    HW228722  13.955  12.921   6.964
42295SOL     OW28723   2.772   5.746   0.215
42295SOL    HW128724   2.771   5.776   0.124
42295SOL    HW228725   2.699   5.684   0.220
42296SOL     OW28726  11.878  11.921  11.680
42296SOL    HW128727  11.938  11.915  11.606
42296SOL    HW228728  11.898  11.845  11.733
42297SOL     OW28729   2.523   8.664  12.207
42297SOL    HW128730   2.518   8.756  12.234
42297SOL    HW228731   2.593   8.627  12.260
42298SOL     OW28732  12.341   2.069   2.898
42298SOL    HW128733  12.409   2.126   2.862
42298SOL    HW228734  12.278   2.129   2.939
42299SOL     OW28735   1.309   9.863   0.709
42299SOL    HW128736   1.304   9.955   0.684
42299SOL    HW228737   1.358   9.864   0.791
42300SOL     OW28738   1.731   2.509  13.344
42300SOL    HW128739   1.636   2.501  13.344
42300SOL    HW228740   1.747   2.600  13.318
42301SOL     OW28741   1.890   6.494   4.825
42301SOL    HW128742   1.880   6.490   4.920
42301SOL    HW228743   1.804   6.470   4.790
42302SOL     OW28744   5.038   5.278   8.776
42302SOL    HW128745   5.045   5.188   8.744
42302SOL    HW228746   4.946   5.301   8.762
42303SOL     OW28747   5.494   7.589   0.215
42303SOL    HW128748   5.468   7.497   0.205
42303SOL    HW228749   5.495   7.604   0.309
42304SOL     OW28750   6.907  12.700   1.046
42304SOL    HW128751   6.966  12.773   1.029
42304SOL    HW228752   6.847  12.699   0.972
42305SOL     OW28753   3.349  13.416   5.133
42305SOL    HW128754   3.326  13.385   5.045
42305SOL    HW228755   3.383  13.504   5.119
42306SOL     OW28756  12.970   3.904  12.302
42306SOL    HW128757  12.935   3.961  12.371
42306SOL    HW228758  13.042   3.858  12.344
42307SOL     OW28759   5.549   7.502   7.066
42307SOL    HW128760   5.484   7.572   7.068
42307SOL    HW228761   5.633   7.547   7.055
42308SOL     OW28762   3.810  10.427  14.456
42308SOL    HW128763   3.871  10.378  14.511
42308SOL    HW228764   3.779  10.364  14.391
42309SOL     OW28765   4.404   8.698   3.342
42309SOL    HW128766   4.323   8.658   3.373
42309SOL    HW228767   4.440   8.634   3.281
42310SOL     OW28768   5.094   3.048   0.254
42310SOL    HW128769   5.050   3.081   0.333
42310SOL    HW228770   5.149   2.976   0.285
42311SOL     OW28771   6.545  14.508   2.418
42311SOL    HW128772   6.548  14.594   2.460
42311SOL    HW228773   6.517  14.526   2.328
42312SOL     OW28774   3.391   6.944   6.370
42312SOL    HW128775   3.324   6.889   6.410
42312SOL    HW228776   3.460   6.950   6.436
42313SOL     OW28777   3.257   6.185  13.340
42313SOL    HW128778   3.165   6.163  13.352
42313SOL    HW228779   3.257   6.279  13.321
42314SOL     OW28780  12.232   5.032  10.892
42314SOL    HW128781  12.197   5.119  10.871
42314SOL    HW228782  12.304   5.020  10.831
42315SOL     OW28783   3.438   5.162   2.655
42315SOL    HW128784   3.493   5.084   2.658
42315SOL    HW228785   3.416   5.172   2.562
42316SOL     OW28786   2.525   8.338   5.002
42316SOL    HW128787   2.460   8.315   5.069
42316SOL    HW228788   2.561   8.254   4.974
42317SOL     OW28789   7.266   8.878   3.433
42317SOL    HW128790   7.238   8.793   3.467
42317SOL    HW228791   7.310   8.856   3.350
42318SOL     OW28792  13.885  13.217   2.977
42318SOL    HW128793  13.825  13.285   3.006
42318SOL    HW228794  13.926  13.186   3.058
42319SOL     OW28795  12.400  13.237  10.942
42319SOL    HW128796  12.318  13.278  10.969
42319SOL    HW228797  12.468  13.297  10.974
42320SOL     OW28798  11.549   5.172   6.801
42320SOL    HW128799  11.543   5.200   6.709
42320SOL    HW228800  11.482   5.104   6.809
42321SOL     OW28801   1.847   3.037   9.877
42321SOL    HW128802   1.762   3.078   9.861
42321SOL    HW228803   1.906   3.111   9.891
42322SOL     OW28804   7.881   3.822  11.183
42322SOL    HW128805   7.792   3.827  11.147
42322SOL    HW228806   7.932   3.881  11.128
42323SOL     OW28807   4.973   5.932  10.650
42323SOL    HW128808   4.888   5.908  10.613
42323SOL    HW228809   4.960   5.925  10.745
42324SOL     OW28810   1.640   9.100   8.072
42324SOL    HW128811   1.709   9.052   8.117
42324SOL    HW228812   1.601   9.156   8.139
42325SOL     OW28813   4.624  14.139   1.899
42325SOL    HW128814   4.699  14.196   1.913
42325SOL    HW228815   4.612  14.093   1.982
42326SOL     OW28816   9.587   4.287   6.999
42326SOL    HW128817   9.678   4.260   7.004
42326SOL    HW228818   9.559   4.259   6.911
42327SOL     OW28819   2.475   0.377   8.558
42327SOL    HW128820   2.490   0.463   8.519
42327SOL    HW228821   2.462   0.395   8.651
42328SOL     OW28822  11.142   9.093   8.652
42328SOL    HW128823  11.098   9.031   8.594
42328SOL    HW228824  11.098   9.082   8.736
42329SOL     OW28825  10.744   2.848  13.269
42329SOL    HW128826  10.839   2.836  13.259
42329SOL    HW228827  10.718   2.781  13.332
42330SOL     OW28828   9.542  11.359   0.724
42330SOL    HW128829   9.565  11.358   0.631
42330SOL    HW228830   9.460  11.408   0.727
42331SOL     OW28831   8.700   8.810   5.675
42331SOL    HW128832   8.642   8.850   5.741
42331SOL    HW228833   8.750   8.884   5.640
42332SOL     OW28834   8.134   9.601   8.897
42332SOL    HW128835   8.140   9.674   8.959
42332SOL    HW228836   8.040   9.591   8.880
42333SOL     OW28837  13.370   1.981   2.176
42333SOL    HW128838  13.455   2.023   2.184
42333SOL    HW228839  13.345   1.959   2.265
42334SOL     OW28840   2.037   5.479   1.695
42334SOL    HW128841   1.988   5.417   1.642
42334SOL    HW228842   1.987   5.488   1.776
42335SOL     OW28843   1.253  10.814   2.517
42335SOL    HW128844   1.239  10.744   2.453
42335SOL    HW228845   1.308  10.774   2.584
42336SOL     OW28846   8.896  14.509  10.040
42336SOL    HW128847   8.951  14.443   9.997
42336SOL    HW228848   8.908  14.588   9.988
42337SOL     OW28849   0.884   4.610   4.042
42337SOL    HW128850   0.908   4.568   3.960
42337SOL    HW228851   0.967   4.644   4.077
42338SOL     OW28852   2.421   6.131   0.700
42338SOL    HW128853   2.435   6.214   0.746
42338SOL    HW228854   2.435   6.064   0.766
42339SOL     OW28855   3.797   6.934   0.754
42339SOL    HW128856   3.708   6.959   0.732
42339SOL    HW228857   3.850   6.967   0.681
42340SOL     OW28858   2.613  10.654  14.438
42340SOL    HW128859   2.694  10.705  14.431
42340SOL    HW228860   2.572  10.661  14.352
42341SOL     OW28861   5.967  13.604   2.641
42341SOL    HW128862   5.979  13.536   2.574
42341SOL    HW228863   5.906  13.565   2.704
42342SOL     OW28864   5.522   1.455  10.733
42342SOL    HW128865   5.499   1.413  10.650
42342SOL    HW228866   5.476   1.404  10.799
42343SOL     OW28867   8.768  13.655  14.087
42343SOL    HW128868   8.751  13.727  14.027
42343SOL    HW228869   8.826  13.596  14.038
42344SOL     OW28870  10.989   0.559   5.043
42344SOL    HW128871  10.917   0.555   4.980
42344SOL    HW228872  11.068   0.563   4.989
42345SOL     OW28873   9.248   3.594  11.620
42345SOL    HW128874   9.240   3.664  11.556
42345SOL    HW228875   9.167   3.544  11.612
42346SOL     OW28876   0.581   7.066   7.839
42346SOL    HW128877   0.573   7.151   7.883
42346SOL    HW228878   0.588   7.087   7.746
42347SOL     OW28879   1.235   1.797   4.689
42347SOL    HW128880   1.234   1.865   4.756
42347SOL    HW228881   1.308   1.820   4.632
42348SOL     OW28882  13.062   2.590   4.334
42348SOL    HW128883  12.978   2.559   4.369
42348SOL    HW228884  13.065   2.554   4.245
42349SOL     OW28885  11.841  14.420   8.510
42349SOL    HW128886  11.782  14.345   8.501
42349SOL    HW228887  11.868  14.419   8.601
42350SOL     OW28888   7.102   3.290   9.470
42350SOL    HW128889   7.194   3.288   9.444
42350SOL    HW228890   7.084   3.202   9.502
42351SOL     OW28891  14.290   4.897   5.090
42351SOL    HW128892  14.368   4.876   5.039
42351SOL    HW228893  14.226   4.830   5.065
42352SOL     OW28894   6.239  13.227  10.783
42352SOL    HW128895   6.184  13.265  10.714
42352SOL    HW228896   6.322  13.208  10.739
42353SOL     OW28897  13.708   2.438   1.821
42353SOL    HW128898  13.619   2.470   1.811
42353SOL    HW228899  13.754   2.467   1.743
42354SOL     OW28900   6.743   2.314   1.039
42354SOL    HW128901   6.809   2.319   0.969
42354SOL    HW228902   6.664   2.281   0.996
42355SOL     OW28903   7.036   9.805   2.244
42355SOL    HW128904   6.941   9.794   2.254
42355SOL    HW228905   7.045   9.853   2.162
42356SOL     OW28906   1.920   7.578   9.208
42356SOL    HW128907   1.915   7.674   9.208
42356SOL    HW228908   1.829   7.549   9.214
42357SOL     OW28909  13.549   4.965   9.964
42357SOL    HW128910  13.576   4.876   9.987
42357SOL    HW228911  13.455   4.967   9.983
42358SOL     OW28912   3.779   7.827   4.429
42358SOL    HW128913   3.792   7.734   4.412
42358SOL    HW228914   3.702   7.831   4.486
42359SOL     OW28915   5.245  14.037  13.771
42359SOL    HW128916   5.188  14.040  13.694
42359SOL    HW228917   5.289  14.121  13.771
42360SOL     OW28918   7.019   3.106   5.808
42360SOL    HW128919   6.973   3.027   5.777
42360SOL    HW228920   6.965   3.178   5.777
42361SOL     OW28921   4.174   6.725   0.921
42361SOL    HW128922   4.241   6.675   0.874
42361SOL    HW228923   4.211   6.812   0.931
42362SOL     OW28924   5.806   3.982   9.931
42362SOL    HW128925   5.742   4.052   9.922
42362SOL    HW228926   5.877   4.007   9.871
42363SOL     OW28927  13.557   8.228   1.780
42363SOL    HW128928  13.595   8.182   1.705
42363SOL    HW228929  13.630   8.240   1.840
42364SOL     OW28930   7.499   9.519   3.447
42364SOL    HW128931   7.471   9.572   3.521
42364SOL    HW228932   7.579   9.476   3.477
42365SOL     OW28933   2.157   0.036   7.596
42365SOL    HW128934   2.092   0.105   7.579
42365SOL    HW228935   2.166   0.036   7.691
42366SOL     OW28936  14.655   9.233   9.343
42366SOL    HW128937  14.593   9.304   9.325
42366SOL    HW228938  14.730   9.277   9.383
42367SOL     OW28939   2.551   3.428   3.355
42367SOL    HW128940   2.625   3.392   3.306
42367SOL    HW228941   2.583   3.436   3.445
42368SOL     OW28942   4.695   5.426  13.405
42368SOL    HW128943   4.783   5.397  13.430
42368SOL    HW228944   4.703   5.521  13.395
42369SOL     OW28945  12.836   3.659   3.535
42369SOL    HW128946  12.862   3.577   3.494
42369SOL    HW228947  12.884   3.727   3.486
42370SOL     OW28948   0.507   9.008   6.987
42370SOL    HW128949   0.531   9.043   7.073
42370SOL    HW228950   0.487   9.085   6.934
42371SOL     OW28951   9.634  12.377  10.447
42371SOL    HW128952   9.574  12.317  10.490
42371SOL    HW228953   9.681  12.420  10.519
42372SOL     OW28954  12.951   4.282   9.100
42372SOL    HW128955  12.946   4.192   9.130
42372SOL    HW228956  13.039   4.311   9.126
42373SOL     OW28957  11.559   1.007   9.697
42373SOL    HW128958  11.619   1.046   9.633
42373SOL    HW228959  11.610   0.999   9.777
42374SOL     OW28960  11.429   2.773  10.102
42374SOL    HW128961  11.497   2.730  10.153
42374SOL    HW228962  11.428   2.726  10.019
42375SOL     OW28963  11.448   1.879  10.858
42375SOL    HW128964  11.456   1.954  10.916
42375SOL    HW228965  11.451   1.917  10.770
42376SOL     OW28966   0.901   9.197   6.842
42376SOL    HW128967   0.942   9.150   6.770
42376SOL    HW228968   0.941   9.161   6.921
42377SOL     OW28969  13.061   9.930   2.028
42377SOL    HW128970  13.119   9.854   2.019
42377SOL    HW228971  13.051   9.963   1.939
42378SOL     OW28972   0.182   2.854   4.627
42378SOL    HW128973   0.123   2.929   4.620
42378SOL    HW228974   0.139   2.795   4.690
42379SOL     OW28975   7.017   2.575   2.870
42379SOL    HW128976   7.007   2.640   2.800
42379SOL    HW228977   6.934   2.579   2.918
42380SOL     OW28978   5.446  14.174   7.689
42380SOL    HW128979   5.398  14.124   7.623
42380SOL    HW228980   5.421  14.265   7.674
42381SOL     OW28981  14.199   8.285  10.446
42381SOL    HW128982  14.118   8.272  10.397
42381SOL    HW228983  14.269   8.266  10.382
42382SOL     OW28984   8.341  14.014   7.625
42382SOL    HW128985   8.393  13.986   7.701
42382SOL    HW228986   8.252  13.988   7.647
42383SOL     OW28987  11.828   8.427   5.375
42383SOL    HW128988  11.771   8.464   5.443
42383SOL    HW228989  11.859   8.503   5.326
42384SOL     OW28990   6.698   6.850  12.716
42384SOL    HW128991   6.627   6.910  12.739
42384SOL    HW228992   6.759   6.854  12.790
42385SOL     OW28993  13.675   0.910   7.186
42385SOL    HW128994  13.754   0.962   7.169
42385SOL    HW228995  13.619   0.968   7.237
42386SOL     OW28996   2.736   0.687   3.445
42386SOL    HW128997   2.659   0.672   3.390
42386SOL    HW228998   2.796   0.615   3.422
42387SOL     OW28999  13.562   7.627   9.142
42387SOL    HW129000  13.599   7.543   9.168
42387SOL    HW229001  13.544   7.673   9.224
42388SOL     OW29002  10.761  11.328   3.445
42388SOL    HW129003  10.746  11.361   3.357
42388SOL    HW229004  10.677  11.291   3.472
42389SOL     OW29005   4.740   3.103   4.176
42389SOL    HW129006   4.806   3.133   4.238
42389SOL    HW229007   4.687   3.180   4.158
42390SOL     OW29008  13.638  14.166  13.667
42390SOL    HW129009  13.596  14.085  13.693
42390SOL    HW229010  13.620  14.227  13.738
42391SOL     OW29011   0.315   9.430   7.801
42391SOL    HW129012   0.280   9.436   7.890
42391SOL    HW229013   0.378   9.502   7.796
42392SOL     OW29014   5.961   2.865   5.877
42392SOL    HW129015   5.940   2.901   5.791
42392SOL    HW229016   5.895   2.797   5.891
42393SOL     OW29017   2.555   1.993  14.352
42393SOL    HW129018   2.634   1.991  14.406
42393SOL    HW229019   2.483   1.999  14.415
42394SOL     OW29020   4.813   5.652   7.878
42394SOL    HW129021   4.822   5.630   7.971
42394SOL    HW229022   4.864   5.585   7.833
42395SOL     OW29023   8.563   5.091   4.341
42395SOL    HW129024   8.569   5.170   4.287
42395SOL    HW229025   8.587   5.019   4.283
42396SOL     OW29026   6.115  14.673   1.698
42396SOL    HW129027   6.136  14.590   1.741
42396SOL    HW229028   6.070  14.724   1.765
42397SOL     OW29029  13.563  13.004   4.553
42397SOL    HW129030  13.482  13.026   4.507
42397SOL    HW229031  13.619  13.080   4.540
42398SOL     OW29032   8.735  10.065   9.989
42398SOL    HW129033   8.751   9.992  10.050
42398SOL    HW229034   8.642  10.085  10.000
42399SOL     OW29035   8.958   9.912   9.877
42399SOL    HW129036   8.902   9.990   9.875
42399SOL    HW229037   9.041   9.941   9.840
42400SOL     OW29038   6.082   6.762  13.714
42400SOL    HW129039   5.996   6.769  13.756
42400SOL    HW229040   6.075   6.685  13.658
42401SOL     OW29041   0.746   2.232  13.130
42401SOL    HW129042   0.718   2.141  13.124
42401SOL    HW229043   0.669   2.279  13.162
42402SOL     OW29044  10.959  12.845   5.938
42402SOL    HW129045  10.940  12.893   5.857
42402SOL    HW229046  10.912  12.893   6.006
42403SOL     OW29047   6.220   5.810   6.549
42403SOL    HW129048   6.292   5.786   6.490
42403SOL    HW229049   6.225   5.905   6.555
42404SOL     OW29050   2.561   7.347   1.965
42404SOL    HW129051   2.605   7.433   1.960
42404SOL    HW229052   2.487   7.355   1.905
42405SOL     OW29053   0.234   4.847   7.204
42405SOL    HW129054   0.212   4.794   7.127
42405SOL    HW229055   0.267   4.929   7.167
42406SOL     OW29056   2.201   4.658  12.063
42406SOL    HW129057   2.211   4.681  12.155
42406SOL    HW229058   2.230   4.735  12.015
42407SOL     OW29059  10.657  10.349   2.462
42407SOL    HW129060  10.571  10.339   2.503
42407SOL    HW229061  10.662  10.442   2.440
42408SOL     OW29062   0.428   2.000   8.616
42408SOL    HW129063   0.372   2.074   8.642
42408SOL    HW229064   0.389   1.924   8.658
42409SOL     OW29065   7.406   1.944   2.553
42409SOL    HW129066   7.375   2.012   2.493
42409SOL    HW229067   7.477   1.901   2.506
42410SOL     OW29068   4.500   7.884   7.432
42410SOL    HW129069   4.469   7.819   7.496
42410SOL    HW229070   4.506   7.835   7.350
42411SOL     OW29071  13.880   0.634  10.317
42411SOL    HW129072  13.873   0.641  10.222
42411SOL    HW229073  13.875   0.540  10.335
42412SOL     OW29074   0.616  13.094   3.160
42412SOL    HW129075   0.677  13.052   3.100
42412SOL    HW229076   0.668  13.116   3.237
42413SOL     OW29077   5.978   8.457   1.361
42413SOL    HW129078   6.003   8.378   1.409
42413SOL    HW229079   6.030   8.454   1.280
42414SOL     OW29080   4.070   0.563   0.667
42414SOL    HW129081   4.019   0.598   0.740
42414SOL    HW229082   4.023   0.485   0.640
42415SOL     OW29083  12.571  14.841   6.614
42415SOL    HW129084  12.542   0.055   6.591
42415SOL    HW229085  12.634  14.817   6.546
42416SOL     OW29086   6.484  12.850   8.064
42416SOL    HW129087   6.467  12.798   7.985
42416SOL    HW229088   6.423  12.815   8.129
42417SOL     OW29089  13.821   8.668  13.825
42417SOL    HW129090  13.853   8.578  13.822
42417SOL    HW229091  13.890   8.717  13.869
42418SOL     OW29092  13.804   2.253   7.346
42418SOL    HW129093  13.712   2.230   7.333
42418SOL    HW229094  13.802   2.332   7.400
42419SOL     OW29095   5.456   9.661   1.754
42419SOL    HW129096   5.366   9.628   1.748
42419SOL    HW229097   5.505   9.607   1.692
42420SOL     OW29098  13.308  11.351  13.672
42420SOL    HW129099  13.394  11.345  13.631
42420SOL    HW229100  13.270  11.264  13.660
42421SOL     OW29101   0.351   1.565   6.712
42421SOL    HW129102   0.288   1.565   6.784
42421SOL    HW229103   0.436   1.579   6.754
42422SOL     OW29104  13.195   7.404  10.782
42422SOL    HW129105  13.223   7.316  10.758
42422SOL    HW229106  13.270   7.441  10.829
42423SOL     OW29107  10.087   3.941   4.227
42423SOL    HW129108  10.135   4.022   4.213
42423SOL    HW229109  10.153   3.872   4.219
42424SOL     OW29110  13.576   6.488   3.060
42424SOL    HW129111  13.504   6.493   3.122
42424SOL    HW229112  13.553   6.550   2.991
42425SOL     OW29113   8.762   5.764   7.512
42425SOL    HW129114   8.706   5.841   7.520
42425SOL    HW229115   8.828   5.775   7.580
42426SOL     OW29116  12.298   0.802   8.214
42426SOL    HW129117  12.321   0.826   8.304
42426SOL    HW229118  12.342   0.719   8.200
42427SOL     OW29119   0.923  10.064   6.386
42427SOL    HW129120   0.862  10.137   6.381
42427SOL    HW229121   0.986  10.090   6.453
42428SOL     OW29122   0.036  12.769   3.234
42428SOL    HW129123   0.000  12.802   3.316
42428SOL    HW229124  14.835  12.727   3.191
42429SOL     OW29125   1.601  12.396  10.008
42429SOL    HW129126   1.625  12.310  10.042
42429SOL    HW229127   1.607  12.455  10.084
42430SOL     OW29128   4.641   2.211   5.447
42430SOL    HW129129   4.572   2.159   5.489
42430SOL    HW229130   4.636   2.297   5.490
42431SOL     OW29131   2.809  14.459   5.288
42431SOL    HW129132   2.721  14.480   5.257
42431SOL    HW229133   2.865  14.528   5.253
42432SOL     OW29134  13.202  12.599   2.517
42432SOL    HW129135  13.119  12.638   2.491
42432SOL    HW229136  13.180  12.542   2.590
42433SOL     OW29137   7.292   5.091  12.533
42433SOL    HW129138   7.371   5.054  12.496
42433SOL    HW229139   7.294   5.183  12.508
42434SOL     OW29140   1.443  12.210   4.537
42434SOL    HW129141   1.401  12.255   4.611
42434SOL    HW229142   1.508  12.272   4.505
42435SOL     OW29143  14.714   6.130   8.542
42435SOL    HW129144  14.712   6.120   8.446
42435SOL    HW229145  14.680   6.218   8.557
42436SOL     OW29146   6.838   9.718   9.767
42436SOL    HW129147   6.827   9.807   9.800
42436SOL    HW229148   6.908   9.725   9.702
42437SOL     OW29149   6.524   5.512  10.665
42437SOL    HW129150   6.442   5.463  10.665
42437SOL    HW229151   6.512   5.578  10.596
42438SOL     OW29152   9.678   6.356   6.379
42438SOL    HW129153   9.735   6.306   6.437
42438SOL    HW229154   9.631   6.290   6.328
42439SOL     OW29155   4.276   4.356  10.615
42439SOL    HW129156   4.199   4.413  10.618
42439SOL    HW229157   4.349   4.415  10.636
42440SOL     OW29158   4.426   3.566   9.936
42440SOL    HW129159   4.479   3.642   9.913
42440SOL    HW229160   4.345   3.577   9.886
42441SOL     OW29161   2.561  14.429  12.129
42441SOL    HW129162   2.522  14.517  12.136
42441SOL    HW229163   2.564  14.412  12.034
42442SOL     OW29164  14.622  11.972   2.007
42442SOL    HW129165  14.693  12.016   1.960
42442SOL    HW229166  14.560  11.948   1.939
42443SOL     OW29167   9.136  11.317  10.807
42443SOL    HW129168   9.220  11.358  10.828
42443SOL    HW229169   9.071  11.372  10.849
42444SOL     OW29170   6.355   3.190   4.267
42444SOL    HW129171   6.293   3.230   4.207
42444SOL    HW229172   6.432   3.171   4.214
42445SOL     OW29173   9.775   8.401   4.235
42445SOL    HW129174   9.850   8.354   4.273
42445SOL    HW229175   9.720   8.332   4.198
42446SOL     OW29176   4.477   1.790  11.369
42446SOL    HW129177   4.386   1.770  11.390
42446SOL    HW229178   4.493   1.875  11.408
42447SOL     OW29179  12.966  14.602   9.268
42447SOL    HW129180  12.918  14.520   9.253
42447SOL    HW229181  13.053  14.574   9.295
42448SOL     OW29182   2.852   8.221  10.869
42448SOL    HW129183   2.839   8.161  10.943
42448SOL    HW229184   2.908   8.172  10.808
42449SOL     OW29185  11.985   5.343  14.069
42449SOL    HW129186  12.038   5.404  14.018
42449SOL    HW229187  12.007   5.257  14.033
42450SOL     OW29188  12.286   2.057   0.466
42450SOL    HW129189  12.209   2.068   0.411
42450SOL    HW229190  12.360   2.065   0.406
42451SOL     OW29191   7.696   5.160  14.601
42451SOL    HW129192   7.789   5.181  14.590
42451SOL    HW229193   7.658   5.239  14.638
42452SOL     OW29194  11.526   1.130   6.445
42452SOL    HW129195  11.555   1.144   6.535
42452SOL    HW229196  11.602   1.151   6.391
42453SOL     OW29197  14.721  13.880  13.723
42453SOL    HW129198  14.706  13.899  13.816
42453SOL    HW229199  14.723  13.966  13.681
42454SOL     OW29200   7.412   6.716   2.647
42454SOL    HW129201   7.389   6.641   2.703
42454SOL    HW229202   7.329   6.762   2.633
42455SOL     OW29203  12.207  12.638  14.550
42455SOL    HW129204  12.129  12.638  14.494
42455SOL    HW229205  12.271  12.585  14.502
42456SOL     OW29206   6.100   4.167  10.312
42456SOL    HW129207   6.059   4.094  10.265
42456SOL    HW229208   6.113   4.235  10.245
42457SOL     OW29209   8.821  11.525   6.650
42457SOL    HW129210   8.774  11.453   6.609
42457SOL    HW229211   8.784  11.532   6.738
42458SOL     OW29212   8.397  12.770  13.730
42458SOL    HW129213   8.317  12.730  13.765
42458SOL    HW229214   8.373  12.796  13.641
42459SOL     OW29215  10.024   5.684  11.320
42459SOL    HW129216  10.051   5.769  11.354
42459SOL    HW229217  10.088   5.664  11.252
42460SOL     OW29218   2.605  10.486   1.069
42460SOL    HW129219   2.571  10.422   1.007
42460SOL    HW229220   2.691  10.510   1.035
42461SOL     OW29221   7.277   8.128   4.158
42461SOL    HW129222   7.338   8.195   4.190
42461SOL    HW229223   7.318   8.093   4.079
42462SOL     OW29224   8.432   2.085  12.853
42462SOL    HW129225   8.464   1.995  12.860
42462SOL    HW229226   8.353   2.087  12.907
42463SOL     OW29227  12.513   7.950   3.511
42463SOL    HW129228  12.528   7.859   3.537
42463SOL    HW229229  12.418   7.957   3.504
42464SOL     OW29230   4.802   2.141  12.768
42464SOL    HW129231   4.721   2.115  12.813
42464SOL    HW229232   4.801   2.236  12.771
42465SOL     OW29233   9.690  13.893   0.138
42465SOL    HW129234   9.657  13.945   0.065
42465SOL    HW229235   9.672  13.945   0.215
42466SOL     OW29236   7.521  14.534  14.548
42466SOL    HW129237   7.579  14.480  14.494
42466SOL    HW229238   7.435  14.524  14.506
42467SOL     OW29239  11.828  11.556   8.850
42467SOL    HW129240  11.768  11.481   8.846
42467SOL    HW229241  11.910  11.522   8.815
42468SOL     OW29242  12.928  10.748   4.507
42468SOL    HW129243  12.966  10.673   4.461
42468SOL    HW229244  12.945  10.731   4.599
42469SOL     OW29245   3.025   2.304  13.651
42469SOL    HW129246   3.010   2.210  13.661
42469SOL    HW229247   3.105   2.321  13.701
42470SOL     OW29248   4.287  13.308  11.096
42470SOL    HW129249   4.357  13.370  11.079
42470SOL    HW229250   4.249  13.337  11.179
42471SOL     OW29251   3.944   1.845   5.227
42471SOL    HW129252   3.894   1.777   5.183
42471SOL    HW229253   4.033   1.835   5.193
42472SOL     OW29254   8.543  13.890  12.607
42472SOL    HW129255   8.490  13.896  12.528
42472SOL    HW229256   8.504  13.818  12.657
42473SOL     OW29257   8.886   3.622   9.598
42473SOL    HW129258   8.841   3.637   9.515
42473SOL    HW229259   8.908   3.529   9.597
42474SOL     OW29260   3.611  10.991   2.103
42474SOL    HW129261   3.596  10.931   2.176
42474SOL    HW229262   3.592  11.078   2.140
42475SOL     OW29263   5.526   0.470   9.260
42475SOL    HW129264   5.559   0.493   9.346
42475SOL    HW229265   5.567   0.386   9.240
42476SOL     OW29266  13.840  13.743  12.146
42476SOL    HW129267  13.793  13.822  12.174
42476SOL    HW229268  13.927  13.752  12.184
42477SOL     OW29269  13.495  11.813  14.471
42477SOL    HW129270  13.586  11.831  14.448
42477SOL    HW229271  13.455  11.784  14.389
42478SOL     OW29272   9.533   2.898   6.504
42478SOL    HW129273   9.567   2.829   6.447
42478SOL    HW229274   9.572   2.979   6.470
42479SOL     OW29275  13.039  12.818   6.474
42479SOL    HW129276  13.046  12.807   6.379
42479SOL    HW229277  13.070  12.735   6.510
42480SOL     OW29278   0.013   2.729   4.793
42480SOL    HW129279  14.801   2.762   4.769
42480SOL    HW229280   0.017   2.642   4.753
42481SOL     OW29281   3.210   8.230   8.584
42481SOL    HW129282   3.291   8.259   8.544
42481SOL    HW229283   3.144   8.293   8.554
42482SOL     OW29284   8.508   2.553   0.473
42482SOL    HW129285   8.533   2.473   0.520
42482SOL    HW229286   8.432   2.528   0.422
42483SOL     OW29287   1.378   4.950  14.257
42483SOL    HW129288   1.398   4.884  14.324
42483SOL    HW229289   1.337   5.021  14.306
42484SOL     OW29290   9.913  10.167  11.847
42484SOL    HW129291   9.988  10.147  11.791
42484SOL    HW229292   9.901  10.261  11.840
42485SOL     OW29293   0.336  13.113   6.533
42485SOL    HW129294   0.365  13.023   6.546
42485SOL    HW229295   0.377  13.141   6.452
42486SOL     OW29296   1.346   5.146   0.872
42486SOL    HW129297   1.280   5.108   0.931
42486SOL    HW229298   1.323   5.239   0.867
42487SOL     OW29299  12.511   1.876   2.450
42487SOL    HW129300  12.452   1.881   2.375
42487SOL    HW229301  12.590   1.921   2.422
42488SOL     OW29302  13.486   8.069  13.633
42488SOL    HW129303  13.445   8.151  13.660
42488SOL    HW229304  13.580   8.084  13.644
42489SOL     OW29305   9.996   7.970   4.753
42489SOL    HW129306   9.969   7.881   4.732
42489SOL    HW229307  10.081   7.981   4.710
42490SOL     OW29308   3.796   2.539   8.887
42490SOL    HW129309   3.865   2.492   8.934
42490SOL    HW229310   3.725   2.548   8.950
42491SOL     OW29311   6.563  13.647   8.226
42491SOL    HW129312   6.530  13.674   8.312
42491SOL    HW229313   6.603  13.561   8.242
42492SOL     OW29314  14.237   0.181   1.011
42492SOL    HW129315  14.171   0.243   0.978
42492SOL    HW229316  14.209   0.163   1.100
42493SOL     OW29317  11.655   6.940   5.066
42493SOL    HW129318  11.750   6.950   5.064
42493SOL    HW229319  11.621   7.011   5.011
42494SOL     OW29320   2.212  12.734   9.850
42494SOL    HW129321   2.130  12.735   9.899
42494SOL    HW229322   2.255  12.653   9.878
42495SOL     OW29323   1.461   4.223   0.100
42495SOL    HW129324   1.506   4.231   0.184
42495SOL    HW229325   1.514   4.273   0.038
42496SOL     OW29326   6.335   8.650  14.715
42496SOL    HW129327   6.333   8.713  14.644
42496SOL    HW229328   6.422   8.611  14.711
42497SOL     OW29329  10.052   5.699  10.992
42497SOL    HW129330  10.137   5.699  10.949
42497SOL    HW229331  10.005   5.773  10.952
42498SOL     OW29332   0.471  10.868   0.523
42498SOL    HW129333   0.447  10.819   0.444
42498SOL    HW229334   0.529  10.809   0.571
42499SOL     OW29335  10.895   3.414   1.248
42499SOL    HW129336  10.913   3.381   1.336
42499SOL    HW229337  10.925   3.344   1.190
42500SOL     OW29338   9.882   1.849   7.861
42500SOL    HW129339   9.834   1.932   7.862
42500SOL    HW229340   9.852   1.805   7.782
42501SOL     OW29341   5.796   6.072  14.866
42501SOL    HW129342   5.866   6.070   0.057
42501SOL    HW229343   5.817   6.001  14.806
42502SOL     OW29344   5.759   6.711   4.762
42502SOL    HW129345   5.679   6.673   4.799
42502SOL    HW229346   5.790   6.645   4.701
42503SOL     OW29347   6.007  14.158   7.827
42503SOL    HW129348   5.962  14.231   7.869
42503SOL    HW229349   5.977  14.159   7.737
42504SOL     OW29350   0.659   3.144   1.547
42504SOL    HW129351   0.638   3.071   1.489
42504SOL    HW229352   0.722   3.196   1.496
42505SOL     OW29353   4.446   7.345   5.814
42505SOL    HW129354   4.418   7.350   5.723
42505SOL    HW229355   4.518   7.407   5.822
42506SOL     OW29356  13.133   3.441   3.009
42506SOL    HW129357  13.066   3.466   3.073
42506SOL    HW229358  13.100   3.360   2.970
42507SOL     OW29359   9.883  10.810   8.877
42507SOL    HW129360   9.951  10.835   8.814
42507SOL    HW229361   9.802  10.841   8.837
42508SOL     OW29362   8.144  10.944  12.339
42508SOL    HW129363   8.096  11.020  12.372
42508SOL    HW229364   8.076  10.881  12.316
42509SOL     OW29365   4.106   1.443   7.119
42509SOL    HW129366   4.193   1.435   7.079
42509SOL    HW229367   4.091   1.538   7.123
42510SOL     OW29368  12.820   7.757  13.758
42510SOL    HW129369  12.812   7.688  13.692
42510SOL    HW229370  12.731   7.791  13.768
42511SOL     OW29371   3.617  10.520   4.683
42511SOL    HW129372   3.545  10.465   4.712
42511SOL    HW229373   3.678  10.460   4.640
42512SOL     OW29374  14.585  11.789  11.445
42512SOL    HW129375  14.673  11.818  11.470
42512SOL    HW229376  14.573  11.821  11.356
42513SOL     OW29377  14.202  10.983  13.905
42513SOL    HW129378  14.292  11.003  13.879
42513SOL    HW229379  14.155  11.065  13.894
42514SOL     OW29380  13.976   4.546   1.577
42514SOL    HW129381  14.066   4.526   1.552
42514SOL    HW229382  13.983   4.575   1.669
42515SOL     OW29383  10.645   2.247   3.376
42515SOL    HW129384  10.664   2.240   3.469
42515SOL    HW229385  10.726   2.280   3.337
42516SOL     OW29386   0.238   8.777   9.688
42516SOL    HW129387   0.268   8.850   9.741
42516SOL    HW229388   0.142   8.780   9.696
42517SOL     OW29389   7.304   6.750  11.617
42517SOL    HW129390   7.325   6.658  11.602
42517SOL    HW229391   7.215   6.760  11.586
42518SOL     OW29392  13.346  13.360   8.572
42518SOL    HW129393  13.377  13.317   8.652
42518SOL    HW229394  13.320  13.287   8.515
42519SOL     OW29395   8.630  13.065  12.215
42519SOL    HW129396   8.646  13.020  12.132
42519SOL    HW229397   8.680  13.016  12.279
42520SOL     OW29398   9.642  11.688   3.703
42520SOL    HW129399   9.645  11.783   3.687
42520SOL    HW229400   9.703  11.651   3.640
42521SOL     OW29401   7.313  11.616   8.183
42521SOL    HW129402   7.349  11.614   8.094
42521SOL    HW229403   7.231  11.664   8.175
42522SOL     OW29404   0.560   6.128  13.550
42522SOL    HW129405   0.511   6.202  13.585
42522SOL    HW229406   0.646   6.165  13.527
42523SOL     OW29407  13.965   9.014   8.871
42523SOL    HW129408  13.915   9.069   8.810
42523SOL    HW229409  13.928   9.035   8.957
42524SOL     OW29410  11.863   2.735  10.083
42524SOL    HW129411  11.809   2.687  10.020
42524SOL    HW229412  11.953   2.710  10.061
42525SOL     OW29413   2.093  11.635   4.350
42525SOL    HW129414   2.145  11.644   4.271
42525SOL    HW229415   2.004  11.616   4.319
42526SOL     OW29416   6.114   9.187   8.956
42526SOL    HW129417   6.065   9.152   8.881
42526SOL    HW229418   6.143   9.109   9.004
42527SOL     OW29419   7.695   1.198   0.203
42527SOL    HW129420   7.621   1.140   0.215
42527SOL    HW229421   7.771   1.147   0.232
42528SOL     OW29422   5.805  10.990  12.418
42528SOL    HW129423   5.711  10.972  12.423
42528SOL    HW229424   5.845  10.921  12.470
42529SOL     OW29425  12.816   6.165   7.181
42529SOL    HW129426  12.779   6.086   7.220
42529SOL    HW229427  12.774   6.237   7.227
42530SOL     OW29428   3.286   7.407   4.849
42530SOL    HW129429   3.198   7.375   4.831
42530SOL    HW229430   3.344   7.337   4.820
42531SOL     OW29431  10.136   6.085   8.065
42531SOL    HW129432  10.058   6.123   8.026
42531SOL    HW229433  10.142   6.127   8.151
42532SOL     OW29434   8.473   6.175   1.785
42532SOL    HW129435   8.470   6.236   1.711
42532SOL    HW229436   8.559   6.189   1.824
42533SOL     OW29437   8.681   1.444   2.064
42533SOL    HW129438   8.633   1.369   2.028
42533SOL    HW229439   8.760   1.450   2.010
42534SOL     OW29440   3.535  12.925   9.656
42534SOL    HW129441   3.614  12.974   9.679
42534SOL    HW229442   3.483  12.987   9.605
42535SOL     OW29443   3.685   2.600  12.636
42535SOL    HW129444   3.608   2.657  12.644
42535SOL    HW229445   3.689   2.554  12.720
42536SOL     OW29446  12.300   7.221  13.839
42536SOL    HW129447  12.264   7.235  13.927
42536SOL    HW229448  12.234   7.260  13.781
42537SOL     OW29449   6.251  11.106   6.126
42537SOL    HW129450   6.177  11.097   6.066
42537SOL    HW229451   6.245  11.195   6.160
42538SOL     OW29452   7.998  13.020  10.853
42538SOL    HW129453   7.929  12.954  10.851
42538SOL    HW229454   8.059  12.993  10.784
42539SOL     OW29455   5.399   1.190   7.811
42539SOL    HW129456   5.391   1.226   7.723
42539SOL    HW229457   5.314   1.205   7.852
42540SOL     OW29458  13.024   2.718   7.357
42540SOL    HW129459  13.009   2.797   7.305
42540SOL    HW229460  12.994   2.646   7.301
42541SOL     OW29461  12.356   0.392   1.937
42541SOL    HW129462  12.271   0.436   1.938
42541SOL    HW229463  12.420   0.462   1.954
42542SOL     OW29464   2.890   3.183  14.379
42542SOL    HW129465   2.954   3.198  14.309
42542SOL    HW229466   2.868   3.271  14.411
42543SOL     OW29467   5.102  13.370  13.346
42543SOL    HW129468   5.099  13.456  13.388
42543SOL    HW229469   5.193  13.359  13.319
42544SOL     OW29470   8.879   8.586  13.343
42544SOL    HW129471   8.801   8.563  13.394
42544SOL    HW229472   8.867   8.541  13.260
42545SOL     OW29473   5.401  10.773  12.244
42545SOL    HW129474   5.391  10.857  12.200
42545SOL    HW229475   5.496  10.764  12.257
42546SOL     OW29476   9.686  12.533  10.700
42546SOL    HW129477   9.725  12.532  10.788
42546SOL    HW229478   9.654  12.622  10.689
42547SOL     OW29479  11.924   3.832   4.525
42547SOL    HW129480  11.886   3.852   4.611
42547SOL    HW229481  12.018   3.843   4.537
42548SOL     OW29482  14.584   9.247  10.260
42548SOL    HW129483  14.624   9.174  10.308
42548SOL    HW229484  14.581   9.216  10.169
42549SOL     OW29485   9.213   1.473   2.299
42549SOL    HW129486   9.209   1.380   2.280
42549SOL    HW229487   9.306   1.493   2.306
42550SOL     OW29488   1.995   8.784  12.931
42550SOL    HW129489   1.999   8.691  12.954
42550SOL    HW229490   2.085   8.816  12.938
42551SOL     OW29491  12.337  13.562  10.083
42551SOL    HW129492  12.427  13.532  10.095
42551SOL    HW229493  12.318  13.612  10.162
42552SOL     OW29494  10.278   9.384   8.652
42552SOL    HW129495  10.370   9.395   8.629
42552SOL    HW229496  10.276   9.300   8.699
42553SOL     OW29497   3.868  11.577   8.693
42553SOL    HW129498   3.907  11.532   8.618
42553SOL    HW229499   3.823  11.653   8.655
42554SOL     OW29500   9.959   0.583   6.693
42554SOL    HW129501   9.966   0.516   6.625
42554SOL    HW229502  10.001   0.660   6.655
42555SOL     OW29503   3.889  10.236   6.972
42555SOL    HW129504   3.942  10.175   6.921
42555SOL    HW229505   3.840  10.285   6.906
42556SOL     OW29506   8.371   6.180   2.147
42556SOL    HW129507   8.329   6.136   2.221
42556SOL    HW229508   8.301   6.189   2.082
42557SOL     OW29509   4.909   1.829  11.182
42557SOL    HW129510   4.948   1.857  11.265
42557SOL    HW229511   4.970   1.766  11.146
42558SOL     OW29512  11.244  11.201  12.132
42558SOL    HW129513  11.174  11.143  12.161
42558SOL    HW229514  11.276  11.243  12.212
42559SOL     OW29515   1.119  12.732  10.395
42559SOL    HW129516   1.201  12.757  10.354
42559SOL    HW229517   1.105  12.641  10.368
42560SOL     OW29518   9.291   4.166   1.849
42560SOL    HW129519   9.273   4.260   1.852
42560SOL    HW229520   9.219   4.127   1.899
42561SOL     OW29521   1.013   0.869  12.434
42561SOL    HW129522   1.030   0.960  12.410
42561SOL    HW229523   0.922   0.869  12.464
42562SOL     OW29524  12.125   2.412   8.229
42562SOL    HW129525  12.158   2.461   8.305
42562SOL    HW229526  12.070   2.474   8.182
42563SOL     OW29527   1.866   0.995   8.637
42563SOL    HW129528   1.835   0.918   8.589
42563SOL    HW229529   1.786   1.033   8.674
42564SOL     OW29530   9.144   7.509   6.722
42564SOL    HW129531   9.221   7.514   6.778
42564SOL    HW229532   9.133   7.597   6.687
42565SOL     OW29533  13.369  12.976  12.700
42565SOL    HW129534  13.424  12.989  12.623
42565SOL    HW229535  13.369  13.061  12.744
42566SOL     OW29536  11.045   7.822  10.490
42566SOL    HW129537  11.096   7.891  10.449
42566SOL    HW229538  11.104   7.747  10.495
42567SOL     OW29539   5.957   5.538  11.036
42567SOL    HW129540   5.938   5.485  10.958
42567SOL    HW229541   5.878   5.531  11.090
42568SOL     OW29542  13.360  12.397   0.429
42568SOL    HW129543  13.366  12.464   0.497
42568SOL    HW229544  13.336  12.318   0.477
42569SOL     OW29545  12.795  11.240  13.116
42569SOL    HW129546  12.877  11.265  13.158
42569SOL    HW229547  12.793  11.291  13.035
42570SOL     OW29548   6.874  12.378   7.388
42570SOL    HW129549   6.789  12.379   7.344
42570SOL    HW229550   6.864  12.314   7.458
42571SOL     OW29551   1.916  11.319   2.897
42571SOL    HW129552   1.835  11.271   2.877
42571SOL    HW229553   1.893  11.410   2.880
42572SOL     OW29554  11.131   5.211   7.752
42572SOL    HW129555  11.211   5.167   7.782
42572SOL    HW229556  11.162   5.276   7.689
42573SOL     OW29557   6.199   2.010  13.569
42573SOL    HW129558   6.262   1.946  13.536
42573SOL    HW229559   6.249   2.065  13.629
42574SOL     OW29560   0.065  11.282  10.276
42574SOL    HW129561   0.080  11.239  10.360
42574SOL    HW229562   0.006  11.355  10.297
42575SOL     OW29563  10.423   5.672  12.384
42575SOL    HW129564  10.363   5.691  12.456
42575SOL    HW229565  10.374   5.613  12.327
42576SOL     OW29566  12.148  13.962   7.055
42576SOL    HW129567  12.139  13.919   7.140
42576SOL    HW229568  12.216  13.913   7.009
42577SOL     OW29569   8.265  10.156  13.941
42577SOL    HW129570   8.347  10.163  13.893
42577SOL    HW229571   8.219  10.083  13.900
42578SOL     OW29572   7.359   9.051   2.657
42578SOL    HW129573   7.303   9.042   2.579
42578SOL    HW229574   7.416   9.125   2.637
42579SOL     OW29575  13.530  13.720   7.125
42579SOL    HW129576  13.562  13.803   7.159
42579SOL    HW229577  13.485  13.743   7.044
42580SOL     OW29578  12.841  11.389  10.496
42580SOL    HW129579  12.817  11.394  10.404
42580SOL    HW229580  12.759  11.406  10.543
42581SOL     OW29581   5.819   7.936   8.017
42581SOL    HW129582   5.730   7.932   7.981
42581SOL    HW229583   5.869   7.874   7.963
42582SOL     OW29584  10.202   8.395   4.184
42582SOL    HW129585  10.129   8.346   4.223
42582SOL    HW229586  10.228   8.458   4.252
42583SOL     OW29587   5.890   9.074  13.564
42583SOL    HW129588   5.798   9.047  13.567
42583SOL    HW229589   5.893   9.138  13.493
42584SOL     OW29590   3.649   8.324  14.515
42584SOL    HW129591   3.635   8.253  14.577
42584SOL    HW229592   3.603   8.399  14.553
42585SOL     OW29593  12.083   7.258  13.661
42585SOL    HW129594  12.069   7.351  13.676
42585SOL    HW229595  11.995   7.222  13.649
42586SOL     OW29596   9.014  10.766   2.132
42586SOL    HW129597   8.975  10.679   2.140
42586SOL    HW229598   9.003  10.789   2.040
42587SOL     OW29599   3.391  13.491   7.714
42587SOL    HW129600   3.357  13.525   7.632
42587SOL    HW229601   3.379  13.563   7.777
42588SOL     OW29602   2.876   4.041   2.338
42588SOL    HW129603   2.891   4.134   2.318
42588SOL    HW229604   2.859   4.000   2.254
42589SOL     OW29605   9.116   9.627   2.847
42589SOL    HW129606   9.162   9.711   2.858
42589SOL    HW229607   9.061   9.640   2.770
42590SOL     OW29608   0.408  12.726   0.695
42590SOL    HW129609   0.344  12.729   0.624
42590SOL    HW229610   0.355  12.734   0.775
42591SOL     OW29611   4.987   6.808   7.098
42591SOL    HW129612   4.898   6.789   7.127
42591SOL    HW229613   4.995   6.903   7.103
42592SOL     OW29614  10.686   4.493  12.064
42592SOL    HW129615  10.770   4.448  12.071
42592SOL    HW229616  10.701   4.561  11.998
42593SOL     OW29617   8.298   2.467   9.195
42593SOL    HW129618   8.300   2.426   9.282
42593SOL    HW229619   8.371   2.427   9.148
42594SOL     OW29620   0.759   0.285  14.040
42594SOL    HW129621   0.842   0.265  13.996
42594SOL    HW229622   0.777   0.271  14.133
42595SOL     OW29623   6.369  14.179  10.384
42595SOL    HW129624   6.378  14.272  10.363
42595SOL    HW229625   6.281  14.171  10.420
42596SOL     OW29626   7.731   7.563   0.995
42596SOL    HW129627   7.727   7.479   0.949
42596SOL    HW229628   7.771   7.623   0.932
42597SOL     OW29629   4.059  14.264  12.581
42597SOL    HW129630   3.999  14.305  12.643
42597SOL    HW229631   4.135  14.322  12.578
42598SOL     OW29632  11.183  12.104   6.795
42598SOL    HW129633  11.168  12.154   6.715
42598SOL    HW229634  11.121  12.140   6.858
42599SOL     OW29635   8.684   2.466  13.947
42599SOL    HW129636   8.725   2.458  14.033
42599SOL    HW229637   8.605   2.519  13.963
42600SOL     OW29638   8.799   5.246   6.217
42600SOL    HW129639   8.857   5.257   6.292
42600SOL    HW229640   8.840   5.176   6.165
42601SOL     OW29641  10.784   6.619  14.809
42601SOL    HW129642  10.773   6.525  14.799
42601SOL    HW229643  10.732   6.641   0.012
42602SOL     OW29644  13.958   8.513  13.031
42602SOL    HW129645  13.895   8.521  12.959
42602SOL    HW229646  14.014   8.590  13.021
42603SOL     OW29647  14.766   9.123   8.742
42603SOL    HW129648  14.789   9.174   8.820
42603SOL    HW229649  14.741   9.037   8.777
42604SOL     OW29650   3.899  12.689  13.871
42604SOL    HW129651   3.973  12.628  13.876
42604SOL    HW229652   3.930  12.760  13.814
42605SOL     OW29653   3.582  11.602   2.163
42605SOL    HW129654   3.583  11.643   2.249
42605SOL    HW229655   3.489  11.599   2.139
42606SOL     OW29656  11.769   4.521  12.114
42606SOL    HW129657  11.740   4.430  12.127
42606SOL    HW229658  11.768   4.559  12.202
42607SOL     OW29659   6.639  13.690  11.520
42607SOL    HW129660   6.734  13.704  11.529
42607SOL    HW229661   6.607  13.771  11.481
42608SOL     OW29662   5.532  10.468   9.599
42608SOL    HW129663   5.457  10.502   9.550
42608SOL    HW229664   5.574  10.408   9.538
42609SOL     OW29665   4.438  10.223   7.680
42609SOL    HW129666   4.522  10.226   7.634
42609SOL    HW229667   4.417  10.130   7.684
42610SOL     OW29668   0.133   9.497   8.760
42610SOL    HW129669   0.108   9.589   8.767
42610SOL    HW229670   0.218   9.491   8.803
42611SOL     OW29671   6.667   0.012   0.505
42611SOL    HW129672   6.613  14.810   0.525
42611SOL    HW229673   6.727  14.855   0.436
42612SOL     OW29674  10.560  11.691   7.845
42612SOL    HW129675  10.623  11.712   7.913
42612SOL    HW229676  10.475  11.690   7.889
42613SOL     OW29677   0.139  14.476   8.843
42613SOL    HW129678   0.149  14.535   8.918
42613SOL    HW229679   0.061  14.424   8.863
42614SOL     OW29680   6.007  11.552   7.822
42614SOL    HW129681   6.042  11.471   7.787
42614SOL    HW229682   6.046  11.621   7.768
42615SOL     OW29683   1.429   0.854   7.338
42615SOL    HW129684   1.521   0.831   7.325
42615SOL    HW229685   1.407   0.818   7.424
42616SOL     OW29686   8.530  11.533  10.721
42616SOL    HW129687   8.579  11.578  10.653
42616SOL    HW229688   8.470  11.599  10.757
42617SOL     OW29689   2.649   6.642   7.022
42617SOL    HW129690   2.575   6.596   6.982
42617SOL    HW229691   2.679   6.584   7.092
42618SOL     OW29692  13.031   9.035   6.247
42618SOL    HW129693  13.009   8.975   6.175
42618SOL    HW229694  13.081   8.982   6.308
42619SOL     OW29695  11.011  12.531   3.909
42619SOL    HW129696  10.948  12.475   3.863
42619SOL    HW229697  10.966  12.558   3.988
42620SOL     OW29698   6.868   2.999   2.434
42620SOL    HW129699   6.866   2.949   2.352
42620SOL    HW229700   6.835   2.938   2.500
42621SOL     OW29701   6.047   3.868   3.351
42621SOL    HW129702   5.966   3.899   3.392
42621SOL    HW229703   6.116   3.890   3.413
42622SOL     OW29704   7.917   1.854   2.248
42622SOL    HW129705   7.946   1.798   2.321
42622SOL    HW229706   7.948   1.941   2.271
42623SOL     OW29707   5.648   5.261   3.899
42623SOL    HW129708   5.654   5.166   3.887
42623SOL    HW229709   5.669   5.275   3.991
42624SOL     OW29710   0.721   5.881   4.354
42624SOL    HW129711   0.639   5.853   4.395
42624SOL    HW229712   0.731   5.823   4.279
42625SOL     OW29713   9.422   4.821   3.907
42625SOL    HW129714   9.458   4.888   3.965
42625SOL    HW229715   9.380   4.758   3.965
42626SOL     OW29716   8.215  13.269  11.167
42626SOL    HW129717   8.263  13.204  11.115
42626SOL    HW229718   8.143  13.297  11.111
42627SOL     OW29719  12.335   4.762   0.467
42627SOL    HW129720  12.355   4.703   0.540
42627SOL    HW229721  12.335   4.705   0.390
42628SOL     OW29722   3.128  13.643   5.011
42628SOL    HW129723   3.154  13.720   5.062
42628SOL    HW229724   3.128  13.675   4.920
42629SOL     OW29725   0.825   3.981   9.741
42629SOL    HW129726   0.901   4.010   9.792
42629SOL    HW229727   0.786   4.062   9.708
42630SOL     OW29728  13.421   3.776   7.473
42630SOL    HW129729  13.360   3.727   7.527
42630SOL    HW229730  13.495   3.717   7.459
42631SOL     OW29731   9.420  12.701  11.963
42631SOL    HW129732   9.454  12.651  12.037
42631SOL    HW229733   9.496  12.751  11.931
42632SOL     OW29734   1.550   4.121   6.799
42632SOL    HW129735   1.576   4.037   6.761
42632SOL    HW229736   1.622   4.180   6.776
42633SOL     OW29737   9.932  11.664   0.884
42633SOL    HW129738   9.940  11.570   0.870
42633SOL    HW229739   9.969  11.703   0.805
42634SOL     OW29740   7.306  10.254   6.520
42634SOL    HW129741   7.226  10.210   6.549
42634SOL    HW229742   7.334  10.204   6.443
42635SOL     OW29743   9.234  12.121  13.776
42635SOL    HW129744   9.197  12.191  13.829
42635SOL    HW229745   9.206  12.142  13.686
42636SOL     OW29746   0.215   6.168   0.765
42636SOL    HW129747   0.226   6.196   0.855
42636SOL    HW229748   0.302   6.178   0.726
42637SOL     OW29749  10.491  13.861   2.542
42637SOL    HW129750  10.475  13.831   2.632
42637SOL    HW229751  10.557  13.800   2.508
42638SOL     OW29752   7.691   4.181   3.843
42638SOL    HW129753   7.769   4.135   3.875
42638SOL    HW229754   7.639   4.112   3.801
42639SOL     OW29755  13.867  13.889   5.524
42639SOL    HW129756  13.945  13.943   5.536
42639SOL    HW229757  13.803  13.947   5.484
42640SOL     OW29758   9.395  13.635  13.351
42640SOL    HW129759   9.382  13.565  13.415
42640SOL    HW229760   9.314  13.686  13.355
42641SOL     OW29761   3.529  14.420   7.254
42641SOL    HW129762   3.578  14.362   7.312
42641SOL    HW229763   3.505  14.365   7.180
42642SOL     OW29764  10.217   3.495  14.143
42642SOL    HW129765  10.172   3.557  14.085
42642SOL    HW229766  10.200   3.526  14.231
42643SOL     OW29767   4.521   8.101   4.061
42643SOL    HW129768   4.467   8.029   4.093
42643SOL    HW229769   4.485   8.179   4.102
42644SOL     OW29770   6.355   9.906  10.614
42644SOL    HW129771   6.281   9.871  10.565
42644SOL    HW229772   6.429   9.850  10.589
42645SOL     OW29773   0.873   8.277  10.682
42645SOL    HW129774   0.895   8.192  10.643
42645SOL    HW229775   0.870   8.337  10.608
42646SOL     OW29776   2.525   8.005   9.318
42646SOL    HW129777   2.547   7.915   9.295
42646SOL    HW229778   2.609   8.050   9.324
42647SOL     OW29779   0.377   7.400  14.601
42647SOL    HW129780   0.457   7.370  14.642
42647SOL    HW229781   0.406   7.452  14.526
42648SOL     OW29782   2.080   6.037  12.186
42648SOL    HW129783   2.080   5.984  12.106
42648SOL    HW229784   2.050   6.123  12.157
42649SOL     OW29785   6.981   9.079  11.692
42649SOL    HW129786   7.024   9.075  11.606
42649SOL    HW229787   6.955   9.170  11.702
42650SOL     OW29788   3.111   3.417   9.477
42650SOL    HW129789   3.173   3.350   9.448
42650SOL    HW229790   3.049   3.426   9.405
42651SOL     OW29791   9.816   1.048   7.839
42651SOL    HW129792   9.865   0.966   7.842
42651SOL    HW229793   9.879   1.116   7.863
42652SOL     OW29794   0.494   0.597   9.199
42652SOL    HW129795   0.562   0.664   9.192
42652SOL    HW229796   0.521   0.528   9.140
42653SOL     OW29797  10.069   1.638   0.365
42653SOL    HW129798  10.055   1.675   0.452
42653SOL    HW229799  10.163   1.625   0.358
42654SOL     OW29800  13.848   4.294   4.034
42654SOL    HW129801  13.872   4.320   3.945
42654SOL    HW229802  13.755   4.274   4.029
42655SOL     OW29803   4.660   4.740  12.247
42655SOL    HW129804   4.680   4.834  12.238
42655SOL    HW229805   4.591   4.737  12.314
42656SOL     OW29806   3.891  13.793  11.077
42656SOL    HW129807   3.901  13.870  11.132
42656SOL    HW229808   3.857  13.725  11.135
42657SOL     OW29809   9.401  11.310   1.817
42657SOL    HW129810   9.420  11.288   1.725
42657SOL    HW229811   9.458  11.251   1.867
42658SOL     OW29812   9.869   3.744  12.629
42658SOL    HW129813   9.811   3.795  12.572
42658SOL    HW229814   9.817   3.667  12.652
42659SOL     OW29815  11.045  12.278  10.232
42659SOL    HW129816  11.078  12.190  10.214
42659SOL    HW229817  10.953  12.265  10.257
42660SOL     OW29818  13.709   2.848   1.432
42660SOL    HW129819  13.617   2.850   1.461
42660SOL    HW229820  13.749   2.924   1.475
42661SOL     OW29821   5.383  14.851   1.830
42661SOL    HW129822   5.419   0.061   1.859
42661SOL    HW229823   5.288  14.865   1.827
42662SOL     OW29824   4.146  11.668   8.559
42662SOL    HW129825   4.109  11.640   8.475
42662SOL    HW229826   4.166  11.761   8.546
42663SOL     OW29827  11.198   8.250   3.278
42663SOL    HW129828  11.242   8.212   3.354
42663SOL    HW229829  11.157   8.329   3.311
42664SOL     OW29830   0.058  11.107   1.642
42664SOL    HW129831   0.055  11.035   1.706
42664SOL    HW229832   0.001  11.077   1.571
42665SOL     OW29833  11.909  12.109   8.315
42665SOL    HW129834  11.972  12.120   8.386
42665SOL    HW229835  11.854  12.188   8.321
42666SOL     OW29836  12.165   9.157   1.304
42666SOL    HW129837  12.248   9.157   1.352
42666SOL    HW229838  12.156   9.246   1.272
42667SOL     OW29839  11.545   4.174  10.195
42667SOL    HW129840  11.563   4.259  10.236
42667SOL    HW229841  11.529   4.115  10.268
42668SOL     OW29842  10.802   0.307   8.844
42668SOL    HW129843  10.768   0.219   8.861
42668SOL    HW229844  10.843   0.334   8.926
42669SOL     OW29845  13.860  11.625  10.677
42669SOL    HW129846  13.833  11.623  10.585
42669SOL    HW229847  13.932  11.563  10.683
42670SOL     OW29848  14.128  10.942  11.835
42670SOL    HW129849  14.161  10.859  11.800
42670SOL    HW229850  14.096  10.990  11.758
42671SOL     OW29851   6.813   5.266   2.330
42671SOL    HW129852   6.815   5.361   2.338
42671SOL    HW229853   6.875   5.235   2.396
42672SOL     OW29854   9.175  12.480   4.276
42672SOL    HW129855   9.108  12.412   4.265
42672SOL    HW229856   9.125  12.560   4.295
42673SOL     OW29857   5.473   9.473   0.901
42673SOL    HW129858   5.533   9.399   0.894
42673SOL    HW229859   5.402   9.440   0.957
42674SOL     OW29860  13.342   0.333  13.766
42674SOL    HW129861  13.305   0.333  13.854
42674SOL    HW229862  13.310   0.414  13.727
42675SOL     OW29863   9.416   5.431   1.304
42675SOL    HW129864   9.358   5.433   1.380
42675SOL    HW229865   9.488   5.489   1.326
42676SOL     OW29866   7.515   5.404  14.201
42676SOL    HW129867   7.449   5.464  14.167
42676SOL    HW229868   7.508   5.411  14.296
42677SOL     OW29869   9.405  12.982   5.146
42677SOL    HW129870   9.318  12.975   5.107
42677SOL    HW229871   9.416  13.076   5.163
42678SOL     OW29872  14.402   1.845  11.855
42678SOL    HW129873  14.313   1.869  11.829
42678SOL    HW229874  14.458   1.899  11.801
42679SOL     OW29875   8.414   3.437  10.949
42679SOL    HW129876   8.387   3.349  10.920
42679SOL    HW229877   8.379   3.496  10.882
42680SOL     OW29878  10.162   4.972   3.218
42680SOL    HW129879  10.224   4.980   3.145
42680SOL    HW229880  10.194   4.899   3.270
42681SOL     OW29881  14.125   4.008  12.869
42681SOL    HW129882  14.069   4.084  12.858
42681SOL    HW229883  14.206   4.030  12.823
42682SOL     OW29884  11.890   3.702  10.812
42682SOL    HW129885  11.875   3.796  10.808
42682SOL    HW229886  11.915   3.678  10.723
42683SOL     OW29887  13.841  14.122   8.690
42683SOL    HW129888  13.774  14.070   8.735
42683SOL    HW229889  13.886  14.169   8.760
42684SOL     OW29890   4.672   9.791   0.361
42684SOL    HW129891   4.662   9.767   0.269
42684SOL    HW229892   4.752   9.844   0.363
42685SOL     OW29893   7.823   5.353   9.695
42685SOL    HW129894   7.858   5.375   9.781
42685SOL    HW229895   7.731   5.379   9.699
42686SOL     OW29896  11.372   5.800   8.754
42686SOL    HW129897  11.445   5.740   8.738
42686SOL    HW229898  11.355   5.793   8.847
42687SOL     OW29899   5.935   6.424   8.608
42687SOL    HW129900   5.989   6.363   8.559
42687SOL    HW229901   5.913   6.493   8.546
42688SOL     OW29902  14.698  11.093   5.461
42688SOL    HW129903  14.743  11.177   5.472
42688SOL    HW229904  14.695  11.080   5.367
42689SOL     OW29905   3.544   6.904   3.480
42689SOL    HW129906   3.540   6.888   3.574
42689SOL    HW229907   3.635   6.929   3.464
42690SOL     OW29908   7.304   2.652   1.332
42690SOL    HW129909   7.228   2.618   1.284
42690SOL    HW229910   7.296   2.614   1.419
42691SOL     OW29911  12.499   7.891   7.367
42691SOL    HW129912  12.438   7.835   7.319
42691SOL    HW229913  12.529   7.837   7.440
42692SOL     OW29914   4.848  10.275   2.962
42692SOL    HW129915   4.841  10.186   2.929
42692SOL    HW229916   4.843  10.331   2.884
42693SOL     OW29917  13.986   7.336   1.630
42693SOL    HW129918  13.890   7.332   1.637
42693SOL    HW229919  14.016   7.257   1.674
42694SOL     OW29920   2.796   5.521  11.832
42694SOL    HW129921   2.806   5.574  11.911
42694SOL    HW229922   2.831   5.576  11.761
42695SOL     OW29923  13.605   8.029   9.920
42695SOL    HW129924  13.581   7.939   9.943
42695SOL    HW229925  13.549   8.083   9.975
42696SOL     OW29926   6.609  10.794   5.934
42696SOL    HW129927   6.666  10.871   5.946
42696SOL    HW229928   6.522  10.831   5.920
42697SOL     OW29929   0.235  10.603   0.561
42697SOL    HW129930   0.322  10.614   0.522
42697SOL    HW229931   0.205  10.517   0.530
42698SOL     OW29932   0.843  10.242  11.820
42698SOL    HW129933   0.926  10.290  11.827
42698SOL    HW229934   0.792  10.291  11.756
42699SOL     OW29935   7.368  12.002   0.717
42699SOL    HW129936   7.392  12.082   0.671
42699SOL    HW229937   7.337  11.943   0.648
42700SOL     OW29938   3.066   7.302   1.031
42700SOL    HW129939   3.008   7.377   1.017
42700SOL    HW229940   3.026   7.254   1.102
42701SOL     OW29941   4.519   7.069   3.744
42701SOL    HW129942   4.604   7.055   3.700
42701SOL    HW229943   4.496   7.159   3.724
42702SOL     OW29944  12.834   1.016   1.746
42702SOL    HW129945  12.921   1.015   1.707
42702SOL    HW229946  12.842   0.960   1.823
42703SOL     OW29947   9.184   6.504   3.567
42703SOL    HW129948   9.127   6.577   3.589
42703SOL    HW229949   9.133   6.426   3.588
42704SOL     OW29950   1.446   5.817   1.838
42704SOL    HW129951   1.538   5.792   1.848
42704SOL    HW229952   1.412   5.760   1.769
42705SOL     OW29953  14.516  12.687   4.875
42705SOL    HW129954  14.549  12.617   4.931
42705SOL    HW229955  14.559  12.672   4.791
42706SOL     OW29956   3.272  14.801  13.433
42706SOL    HW129957   3.340  14.778  13.369
42706SOL    HW229958   3.270   0.022  13.434
42707SOL     OW29959   8.770  10.207   7.161
42707SOL    HW129960   8.758  10.301   7.157
42707SOL    HW229961   8.744  10.175   7.074
42708SOL     OW29962   6.618  12.863   4.175
42708SOL    HW129963   6.533  12.872   4.218
42708SOL    HW229964   6.680  12.847   4.246
42709SOL     OW29965   4.949   4.099  14.004
42709SOL    HW129966   4.937   4.179  14.055
42709SOL    HW229967   4.980   4.129  13.919
42710SOL     OW29968   3.406   0.269  11.129
42710SOL    HW129969   3.448   0.206  11.187
42710SOL    HW229970   3.422   0.354  11.171
42711SOL     OW29971  12.729  13.620   1.498
42711SOL    HW129972  12.744  13.627   1.404
42711SOL    HW229973  12.756  13.705   1.533
42712SOL     OW29974   1.659  10.671   8.309
42712SOL    HW129975   1.587  10.733   8.323
42712SOL    HW229976   1.615  10.587   8.298
42713SOL     OW29977   8.536   4.800   6.311
42713SOL    HW129978   8.470   4.777   6.377
42713SOL    HW229979   8.487   4.846   6.243
42714SOL     OW29980   7.018   3.401   0.984
42714SOL    HW129981   7.097   3.380   0.934
42714SOL    HW229982   7.034   3.489   1.018
42715SOL     OW29983  14.123   9.669   7.147
42715SOL    HW129984  14.118   9.708   7.234
42715SOL    HW229985  14.095   9.738   7.087
42716SOL     OW29986  13.922  11.847   8.736
42716SOL    HW129987  13.973  11.772   8.767
42716SOL    HW229988  13.985  11.918   8.731
42717SOL     OW29989   5.114  10.773  11.611
42717SOL    HW129990   5.209  10.765  11.611
42717SOL    HW229991   5.092  10.807  11.525
42718SOL     OW29992  13.529   4.295   7.692
42718SOL    HW129993  13.455   4.316   7.636
42718SOL    HW229994  13.490   4.272   7.776
42719SOL     OW29995  12.453   5.085   9.719
42719SOL    HW129996  12.381   5.129   9.674
42719SOL    HW229997  12.509   5.156   9.750
42720SOL     OW29998  10.106   6.481   7.141
42720SOL    HW129999  10.091   6.568   7.105
42720SOL    HW230000  10.034   6.468   7.203
42721SOL     OW30001  10.487   5.605   9.494
42721SOL    HW130002  10.455   5.675   9.438
42721SOL    HW230003  10.552   5.559   9.441
42722SOL     OW30004   4.077   9.188  14.742
42722SOL    HW130005   4.084   9.181  14.837
42722SOL    HW230006   3.986   9.166  14.722
42723SOL     OW30007   7.456   4.767  12.234
42723SOL    HW130008   7.525   4.706  12.205
42723SOL    HW230009   7.423   4.806  12.154
42724SOL     OW30010   8.260   2.176   0.996
42724SOL    HW130011   8.196   2.119   1.040
42724SOL    HW230012   8.289   2.236   1.065
42725SOL     OW30013   7.908   4.144   2.410
42725SOL    HW130014   7.963   4.091   2.352
42725SOL    HW230015   7.910   4.097   2.494
42726SOL     OW30016   3.211   2.086   1.247
42726SOL    HW130017   3.238   2.132   1.327
42726SOL    HW230018   3.260   2.129   1.177
42727SOL     OW30019  11.060   8.838   3.654
42727SOL    HW130020  10.971   8.859   3.627
42727SOL    HW230021  11.064   8.743   3.651
42728SOL     OW30022   7.308   0.149  11.265
42728SOL    HW130023   7.352   0.103  11.193
42728SOL    HW230024   7.219   0.114  11.263
42729SOL     OW30025   3.852  13.145   6.575
42729SOL    HW130026   3.846  13.052   6.596
42729SOL    HW230027   3.835  13.190   6.658
42730SOL     OW30028   3.053   3.388  10.009
42730SOL    HW130029   3.123   3.418  10.066
42730SOL    HW230030   3.028   3.465   9.959
42731SOL     OW30031   4.542  10.286   1.450
42731SOL    HW130032   4.484  10.220   1.411
42731SOL    HW230033   4.526  10.365   1.399
42732SOL     OW30034  12.436   9.379   9.436
42732SOL    HW130035  12.468   9.435   9.366
42732SOL    HW230036  12.448   9.290   9.402
42733SOL     OW30037  10.945   3.243   5.457
42733SOL    HW130038  10.936   3.326   5.411
42733SOL    HW230039  11.012   3.195   5.407
42734SOL     OW30040   2.599   6.145  14.350
42734SOL    HW130041   2.656   6.212  14.388
42734SOL    HW230042   2.590   6.078  14.418
42735SOL     OW30043   4.256   6.542  11.077
42735SOL    HW130044   4.261   6.598  11.154
42735SOL    HW230045   4.344   6.543  11.040
42736SOL     OW30046   1.253  12.925   5.114
42736SOL    HW130047   1.169  12.969   5.128
42736SOL    HW230048   1.243  12.879   5.030
42737SOL     OW30049   7.641  11.302  12.982
42737SOL    HW130050   7.575  11.323  12.916
42737SOL    HW230051   7.635  11.207  12.991
42738SOL     OW30052   7.821   1.175   6.362
42738SOL    HW130053   7.857   1.104   6.309
42738SOL    HW230054   7.866   1.167   6.446
42739SOL     OW30055  13.907   5.281  14.600
42739SOL    HW130056  13.953   5.317  14.676
42739SOL    HW230057  13.890   5.190  14.624
42740SOL     OW30058   2.484   8.182   6.532
42740SOL    HW130059   2.496   8.184   6.627
42740SOL    HW230060   2.535   8.256   6.500
42741SOL     OW30061   2.293   9.382   1.106
42741SOL    HW130062   2.218   9.345   1.152
42741SOL    HW230063   2.339   9.433   1.173
42742SOL     OW30064   4.311  10.741  13.259
42742SOL    HW130065   4.358  10.823  13.274
42742SOL    HW230066   4.306  10.700  13.345
42743SOL     OW30067   2.111   9.307   4.417
42743SOL    HW130068   2.116   9.343   4.328
42743SOL    HW230069   2.162   9.226   4.412
42744SOL     OW30070   6.624   1.617   7.081
42744SOL    HW130071   6.585   1.530   7.073
42744SOL    HW230072   6.577   1.658   7.153
42745SOL     OW30073  10.938   4.362  10.472
42745SOL    HW130074  10.908   4.335  10.559
42745SOL    HW230075  11.026   4.324  10.464
42746SOL     OW30076   2.701   8.295  11.406
42746SOL    HW130077   2.639   8.329  11.341
42746SOL    HW230078   2.749   8.226  11.360
42747SOL     OW30079   3.947   1.105  10.828
42747SOL    HW130080   3.963   1.198  10.841
42747SOL    HW230081   4.028   1.062  10.855
42748SOL     OW30082   8.482   2.799   8.255
42748SOL    HW130083   8.397   2.830   8.287
42748SOL    HW230084   8.530   2.774   8.334
42749SOL     OW30085  11.822  11.949  13.241
42749SOL    HW130086  11.912  11.980  13.232
42749SOL    HW230087  11.788  11.995  13.317
42750SOL     OW30088   7.574  14.631   9.009
42750SOL    HW130089   7.537  14.544   9.023
42750SOL    HW230090   7.566  14.645   8.914
42751SOL     OW30091   5.697   5.979   7.544
42751SOL    HW130092   5.788   5.986   7.572
42751SOL    HW230093   5.669   6.069   7.530
42752SOL     OW30094  11.659   1.182  10.834
42752SOL    HW130095  11.583   1.176  10.776
42752SOL    HW230096  11.627   1.228  10.911
42753SOL     OW30097   5.653   1.256   3.004
42753SOL    HW130098   5.575   1.285   2.957
42753SOL    HW230099   5.684   1.179   2.955
42754SOL     OW30100   8.471   0.883   7.990
42754SOL    HW130101   8.433   0.971   7.987
42754SOL    HW230102   8.499   0.866   7.900
42755SOL     OW30103   7.333   1.527  14.764
42755SOL    HW130104   7.343   1.483  14.680
42755SOL    HW230105   7.363   1.616  14.748
42756SOL     OW30106  13.127  12.473  11.792
42756SOL    HW130107  13.165  12.537  11.731
42756SOL    HW230108  13.112  12.522  11.872
42757SOL     OW30109   7.095   1.313  12.539
42757SOL    HW130110   7.027   1.319  12.606
42757SOL    HW230111   7.140   1.397  12.542
42758SOL     OW30112   4.961  14.853   8.973
42758SOL    HW130113   4.904   0.019   8.908
42758SOL    HW230114   4.928  14.764   8.985
42759SOL     OW30115  11.819   2.899   2.800
42759SOL    HW130116  11.843   2.949   2.723
42759SOL    HW230117  11.816   2.963   2.871
42760SOL     OW30118   0.822   7.303  10.410
42760SOL    HW130119   0.856   7.310  10.499
42760SOL    HW230120   0.896   7.272  10.359
42761SOL     OW30121   0.375   8.051  14.093
42761SOL    HW130122   0.406   7.961  14.094
42761SOL    HW230123   0.369   8.076  14.186
42762SOL     OW30124  13.412   8.740  13.060
42762SOL    HW130125  13.400   8.812  13.122
42762SOL    HW230126  13.486   8.691  13.094
42763SOL     OW30127   3.692   5.759   8.708
42763SOL    HW130128   3.680   5.722   8.795
42763SOL    HW230129   3.667   5.688   8.649
42764SOL     OW30130  10.760   3.323   9.486
42764SOL    HW130131  10.842   3.371   9.486
42764SOL    HW230132  10.744   3.301   9.394
42765SOL     OW30133   9.322   1.964  11.949
42765SOL    HW130134   9.238   1.965  11.903
42765SOL    HW230135   9.382   2.013  11.892
42766SOL     OW30136   9.267   9.116  12.042
42766SOL    HW130137   9.355   9.081  12.034
42766SOL    HW230138   9.239   9.089  12.130
42767SOL     OW30139   7.286   2.121  14.409
42767SOL    HW130140   7.376   2.150  14.427
42767SOL    HW230141   7.265   2.160  14.324
42768SOL     OW30142   0.877   3.404   0.196
42768SOL    HW130143   0.909   3.356   0.272
42768SOL    HW230144   0.854   3.490   0.230
42769SOL     OW30145   0.868  13.740  13.586
42769SOL    HW130146   0.819  13.661  13.564
42769SOL    HW230147   0.801  13.808  13.598
42770SOL     OW30148   5.311   1.879   6.503
42770SOL    HW130149   5.249   1.919   6.442
42770SOL    HW230150   5.271   1.795   6.526
42771SOL     OW30151   8.465   4.536   1.546
42771SOL    HW130152   8.395   4.578   1.496
42771SOL    HW230153   8.513   4.484   1.482
42772SOL     OW30154   5.980  14.186   9.820
42772SOL    HW130155   5.974  14.092   9.800
42772SOL    HW230156   6.061  14.214   9.778
42773SOL     OW30157   3.476   2.559  14.312
42773SOL    HW130158   3.526   2.587  14.236
42773SOL    HW230159   3.518   2.477  14.340
42774SOL     OW30160  13.600   2.415   7.652
42774SOL    HW130161  13.608   2.460   7.737
42774SOL    HW230162  13.666   2.346   7.656
42775SOL     OW30163  13.523   3.295   3.613
42775SOL    HW130164  13.528   3.361   3.544
42775SOL    HW230165  13.482   3.340   3.686
42776SOL     OW30166  11.547  11.485   1.917
42776SOL    HW130167  11.629  11.478   1.867
42776SOL    HW230168  11.491  11.417   1.881
42777SOL     OW30169  14.234   0.653   3.077
42777SOL    HW130170  14.161   0.662   3.139
42777SOL    HW230171  14.279   0.573   3.105
42778SOL     OW30172  11.822   2.841  12.862
42778SOL    HW130173  11.751   2.863  12.922
42778SOL    HW230174  11.783   2.845  12.775
42779SOL     OW30175   8.133  11.900  12.642
42779SOL    HW130176   8.192  11.970  12.669
42779SOL    HW230177   8.051  11.920  12.686
42780SOL     OW30178   4.795  12.361  13.969
42780SOL    HW130179   4.767  12.449  13.993
42780SOL    HW230180   4.886  12.356  13.998
42781SOL     OW30181   6.279   6.313   6.159
42781SOL    HW130182   6.313   6.386   6.108
42781SOL    HW230183   6.274   6.347   6.249
42782SOL     OW30184   9.348   0.039   0.743
42782SOL    HW130185   9.441   0.015   0.740
42782SOL    HW230186   9.309  14.851   0.804
42783SOL     OW30187  10.482   2.371   4.089
42783SOL    HW130188  10.407   2.319   4.120
42783SOL    HW230189  10.520   2.318   4.019
42784SOL     OW30190  13.510   5.555   7.016
42784SOL    HW130191  13.504   5.608   7.096
42784SOL    HW230192  13.503   5.464   7.048
42785SOL     OW30193  13.840   7.131  11.067
42785SOL    HW130194  13.901   7.177  11.124
42785SOL    HW230195  13.803   7.062  11.121
42786SOL     OW30196  12.222   0.690  14.556
42786SOL    HW130197  12.267   0.689  14.472
42786SOL    HW230198  12.180   0.605  14.562
42787SOL     OW30199  12.707   6.206  14.504
42787SOL    HW130200  12.780   6.180  14.559
42787SOL    HW230201  12.725   6.297  14.482
42788SOL     OW30202   2.798  11.271   7.821
42788SOL    HW130203   2.729  11.335   7.805
42788SOL    HW230204   2.805  11.265   7.916
42789SOL     OW30205  10.097   4.979   7.180
42789SOL    HW130206  10.042   4.966   7.104
42789SOL    HW230207  10.162   5.044   7.153
42790SOL     OW30208   0.848  10.354  12.659
42790SOL    HW130209   0.768  10.407  12.665
42790SOL    HW230210   0.916  10.409  12.698
42791SOL     OW30211   8.307   9.141   8.943
42791SOL    HW130212   8.352   9.143   9.027
42791SOL    HW230213   8.239   9.074   8.954
42792SOL     OW30214   2.116   6.088   7.538
42792SOL    HW130215   2.211   6.079   7.531
42792SOL    HW230216   2.086   6.101   7.448
42793SOL     OW30217   1.003   5.584   4.744
42793SOL    HW130218   1.011   5.651   4.812
42793SOL    HW230219   0.921   5.605   4.699
42794SOL     OW30220  13.267  13.125   2.196
42794SOL    HW130221  13.324  13.180   2.250
42794SOL    HW230222  13.229  13.062   2.258
42795SOL     OW30223   7.799   3.236  12.150
42795SOL    HW130224   7.857   3.207  12.220
42795SOL    HW230225   7.740   3.162  12.135
42796SOL     OW30226   3.731   3.449   1.980
42796SOL    HW130227   3.709   3.470   1.889
42796SOL    HW230228   3.818   3.487   1.993
42797SOL     OW30229  10.043   9.567  13.012
42797SOL    HW130230  10.084   9.512  13.078
42797SOL    HW230231   9.949   9.553  13.023
42798SOL     OW30232   9.230  11.679  13.055
42798SOL    HW130233   9.198  11.753  13.005
42798SOL    HW230234   9.322  11.700  13.072
42799SOL     OW30235  11.553  14.393   9.910
42799SOL    HW130236  11.643  14.388   9.878
42799SOL    HW230237  11.550  14.332   9.984
42800SOL     OW30238  12.980   7.203   4.407
42800SOL    HW130239  12.923   7.133   4.437
42800SOL    HW230240  12.986   7.263   4.481
42801SOL     OW30241   2.394  13.697   1.972
42801SOL    HW130242   2.486  13.722   1.984
42801SOL    HW230243   2.346  13.780   1.981
42802SOL     OW30244   9.521   3.753   2.541
42802SOL    HW130245   9.444   3.751   2.598
42802SOL    HW230246   9.487   3.779   2.456
42803SOL     OW30247   2.954  11.984  14.138
42803SOL    HW130248   2.891  12.009  14.206
42803SOL    HW230249   2.911  11.913  14.091
42804SOL     OW30250   3.816   1.269  11.105
42804SOL    HW130251   3.728   1.239  11.124
42804SOL    HW230252   3.817   1.283  11.010
42805SOL     OW30253   3.357   8.548  11.504
42805SOL    HW130254   3.295   8.479  11.480
42805SOL    HW230255   3.309   8.630  11.491
42806SOL     OW30256  12.060   3.055  11.949
42806SOL    HW130257  11.999   3.116  11.990
42806SOL    HW230258  12.088   2.997  12.020
42807SOL     OW30259   7.379  10.153   5.855
42807SOL    HW130260   7.371  10.091   5.783
42807SOL    HW230261   7.472  10.153   5.878
42808SOL     OW30262   5.262   5.223   2.046
42808SOL    HW130263   5.343   5.264   2.075
42808SOL    HW230264   5.282   5.186   1.960
42809SOL     OW30265  12.798  12.400   4.661
42809SOL    HW130266  12.799  12.366   4.571
42809SOL    HW230267  12.731  12.348   4.705
42810SOL     OW30268   5.497   8.711   0.021
42810SOL    HW130269   5.529   8.633   0.066
42810SOL    HW230270   5.573   8.743  14.846
42811SOL     OW30271  11.424  11.014  10.018
42811SOL    HW130272  11.369  11.014  10.097
42811SOL    HW230273  11.495  11.075  10.038
42812SOL     OW30274   9.289   2.287   2.545
42812SOL    HW130275   9.298   2.319   2.635
42812SOL    HW230276   9.216   2.338   2.509
42813SOL     OW30277   6.543   3.862   8.045
42813SOL    HW130278   6.509   3.951   8.036
42813SOL    HW230279   6.465   3.806   8.040
42814SOL     OW30280   5.727   5.572   1.022
42814SOL    HW130281   5.728   5.477   1.013
42814SOL    HW230282   5.800   5.602   0.968
42815SOL     OW30283  13.442   5.686   5.651
42815SOL    HW130284  13.445   5.675   5.746
42815SOL    HW230285  13.349   5.695   5.630
42816SOL     OW30286   8.407   9.508  14.779
42816SOL    HW130287   8.379   9.497  14.688
42816SOL    HW230288   8.362   9.587  14.808
42817SOL     OW30289  11.596  12.478  14.151
42817SOL    HW130290  11.667  12.541  14.157
42817SOL    HW230291  11.532  12.507  14.216
42818SOL     OW30292   8.267   5.666   7.504
42818SOL    HW130293   8.214   5.682   7.427
42818SOL    HW230294   8.351   5.709   7.485
42819SOL     OW30295   8.177  13.727   2.566
42819SOL    HW130296   8.132  13.809   2.586
42819SOL    HW230297   8.116  13.679   2.510
42820SOL     OW30298   8.602   3.431   0.241
42820SOL    HW130299   8.673   3.393   0.190
42820SOL    HW230300   8.602   3.524   0.217
42821SOL     OW30301  14.098  12.112   9.258
42821SOL    HW130302  14.018  12.134   9.305
42821SOL    HW230303  14.167  12.159   9.305
42822SOL     OW30304   6.326   1.793   7.121
42822SOL    HW130305   6.267   1.778   7.195
42822SOL    HW230306   6.414   1.778   7.157
42823SOL     OW30307  11.550  14.278  10.190
42823SOL    HW130308  11.622  14.220  10.169
42823SOL    HW230309  11.531  14.261  10.283
42824SOL     OW30310  10.786   1.002  13.217
42824SOL    HW130311  10.790   1.075  13.279
42824SOL    HW230312  10.864   1.014  13.162
42825SOL     OW30313  11.846   3.557   9.491
42825SOL    HW130314  11.761   3.520   9.467
42825SOL    HW230315  11.854   3.636   9.437
42826SOL     OW30316  13.973   1.323  12.750
42826SOL    HW130317  13.931   1.240  12.728
42826SOL    HW230318  13.918   1.390  12.708
42827SOL     OW30319  12.629  10.402   5.657
42827SOL    HW130320  12.614  10.309   5.674
42827SOL    HW230321  12.697  10.403   5.590
42828SOL     OW30322  13.340   8.613  10.617
42828SOL    HW130323  13.427   8.582  10.592
42828SOL    HW230324  13.324   8.572  10.703
42829SOL     OW30325   2.075   1.122   5.495
42829SOL    HW130326   2.013   1.065   5.539
42829SOL    HW230327   2.066   1.206   5.539
42830SOL     OW30328   1.589  13.390   4.073
42830SOL    HW130329   1.635  13.380   3.990
42830SOL    HW230330   1.659  13.384   4.139
42831SOL     OW30331   7.090  14.371   0.901
42831SOL    HW130332   7.143  14.412   0.833
42831SOL    HW230333   7.000  14.384   0.872
42832SOL     OW30334   2.275   1.280   0.024
42832SOL    HW130335   2.190   1.301  14.859
42832SOL    HW230336   2.310   1.210  14.843
42833SOL     OW30337  11.623   4.915   0.966
42833SOL    HW130338  11.709   4.949   0.989
42833SOL    HW230339  11.640   4.825   0.938
42834SOL     OW30340   2.071  14.586   8.713
42834SOL    HW130341   2.086  14.623   8.626
42834SOL    HW230342   1.985  14.545   8.707
42835SOL     OW30343   9.305   9.147   8.164
42835SOL    HW130344   9.214   9.162   8.189
42835SOL    HW230345   9.301   9.126   8.071
42836SOL     OW30346   1.581  11.362   2.831
42836SOL    HW130347   1.548  11.350   2.920
42836SOL    HW230348   1.620  11.278   2.808
42837SOL     OW30349   8.098   1.692   2.395
42837SOL    HW130350   8.118   1.598   2.392
42837SOL    HW230351   8.139   1.728   2.316
42838SOL     OW30352  13.898  13.154  12.893
42838SOL    HW130353  13.950  13.197  12.961
42838SOL    HW230354  13.962  13.116  12.833
42839SOL     OW30355  12.411   5.638   2.635
42839SOL    HW130356  12.371   5.559   2.599
42839SOL    HW230357  12.417   5.621   2.729
42840SOL     OW30358   4.107   2.035   2.726
42840SOL    HW130359   4.136   2.038   2.635
42840SOL    HW230360   4.035   2.098   2.729
42841SOL     OW30361  10.728   2.215   5.013
42841SOL    HW130362  10.756   2.192   4.925
42841SOL    HW230363  10.635   2.192   5.016
42842SOL     OW30364   9.987   9.811  13.725
42842SOL    HW130365   9.912   9.858  13.689
42842SOL    HW230366  10.041   9.879  13.766
42843SOL     OW30367   0.436   8.738   6.247
42843SOL    HW130368   0.505   8.678   6.221
42843SOL    HW230369   0.481   8.821   6.262
42844SOL     OW30370   4.359  10.060   8.661
42844SOL    HW130371   4.429  10.097   8.716
42844SOL    HW230372   4.404  10.000   8.602
42845SOL     OW30373  10.667  10.960  14.656
42845SOL    HW130374  10.684  11.030  14.719
42845SOL    HW230375  10.676  10.879  14.708
42846SOL     OW30376   0.123   5.167   4.578
42846SOL    HW130377   0.169   5.247   4.550
42846SOL    HW230378   0.190   5.117   4.624
42847SOL     OW30379   3.721   0.642   6.741
42847SOL    HW130380   3.786   0.658   6.810
42847SOL    HW230381   3.648   0.701   6.763
42848SOL     OW30382   3.017   0.786  10.755
42848SOL    HW130383   3.094   0.837  10.779
42848SOL    HW230384   3.022   0.776  10.660
42849SOL     OW30385   1.377   8.451  12.125
42849SOL    HW130386   1.340   8.452  12.037
42849SOL    HW230387   1.453   8.393  12.119
42850SOL     OW30388   5.716   0.593   1.675
42850SOL    HW130389   5.625   0.600   1.647
42850SOL    HW230390   5.726   0.501   1.702
42851SOL     OW30391   0.493   4.380   0.321
42851SOL    HW130392   0.459   4.348   0.237
42851SOL    HW230393   0.574   4.426   0.298
42852SOL     OW30394   6.035   0.335   6.089
42852SOL    HW130395   6.042   0.399   6.161
42852SOL    HW230396   5.959   0.363   6.039
42853SOL     OW30397   3.581   8.984  11.769
42853SOL    HW130398   3.538   8.973  11.684
42853SOL    HW230399   3.595   8.894  11.800
42854SOL     OW30400   4.619  12.374  13.285
42854SOL    HW130401   4.672  12.331  13.218
42854SOL    HW230402   4.658  12.462  13.293
42855SOL     OW30403  10.773   8.223   4.589
42855SOL    HW130404  10.710   8.284   4.550
42855SOL    HW230405  10.750   8.138   4.550
42856SOL     OW30406   3.527   2.154  13.039
42856SOL    HW130407   3.600   2.202  13.080
42856SOL    HW230408   3.566   2.072  13.009
42857SOL     OW30409   2.260   6.791   7.108
42857SOL    HW130410   2.309   6.710   7.090
42857SOL    HW230411   2.307   6.831   7.181
42858SOL     OW30412   0.272  11.998   7.565
42858SOL    HW130413   0.367  11.993   7.566
42858SOL    HW230414   0.250  12.024   7.476
42859SOL     OW30415   0.141   5.072   7.871
42859SOL    HW130416   0.194   4.994   7.888
42859SOL    HW230417   0.174   5.138   7.931
42860SOL     OW30418   1.782   2.867  10.088
42860SOL    HW130419   1.857   2.845  10.143
42860SOL    HW230420   1.821   2.900  10.007
42861SOL     OW30421  11.412  14.401  11.746
42861SOL    HW130422  11.435  14.309  11.732
42861SOL    HW230423  11.348  14.399  11.818
42862SOL     OW30424   8.790  11.109   8.871
42862SOL    HW130425   8.864  11.090   8.813
42862SOL    HW230426   8.827  11.104   8.959
42863SOL     OW30427   4.768   2.778   2.162
42863SOL    HW130428   4.777   2.826   2.244
42863SOL    HW230429   4.851   2.792   2.116
42864SOL     OW30430  11.391   6.896   6.713
42864SOL    HW130431  11.298   6.895   6.687
42864SOL    HW230432  11.435   6.845   6.645
42865SOL     OW30433   3.114   5.343  13.853
42865SOL    HW130434   3.027   5.304  13.840
42865SOL    HW230435   3.097   5.421  13.906
42866SOL     OW30436  12.711   3.609   7.777
42866SOL    HW130437  12.624   3.647   7.784
42866SOL    HW230438  12.698   3.529   7.727
42867SOL     OW30439   8.919   6.107  11.325
42867SOL    HW130440   8.936   6.038  11.389
42867SOL    HW230441   8.834   6.085  11.286
42868SOL     OW30442   7.530  12.388   2.670
42868SOL    HW130443   7.492  12.301   2.660
42868SOL    HW230444   7.588  12.380   2.745
42869SOL     OW30445   3.442  10.003   3.735
42869SOL    HW130446   3.351  10.029   3.728
42869SOL    HW230447   3.470   9.987   3.645
42870SOL     OW30448  12.284  13.450  11.279
42870SOL    HW130449  12.244  13.397  11.209
42870SOL    HW230450  12.263  13.403  11.360
42871SOL     OW30451   9.406   2.978   9.319
42871SOL    HW130452   9.406   3.072   9.337
42871SOL    HW230453   9.315   2.958   9.298
42872SOL     OW30454   3.797   2.434   9.236
42872SOL    HW130455   3.727   2.445   9.172
42872SOL    HW230456   3.871   2.401   9.185
42873SOL     OW30457   0.923  11.719   3.912
42873SOL    HW130458   0.898  11.638   3.869
42873SOL    HW230459   0.973  11.767   3.845
42874SOL     OW30460  14.660  12.636  13.031
42874SOL    HW130461  14.587  12.574  13.032
42874SOL    HW230462  14.686  12.640  12.939
42875SOL     OW30463   8.895   8.311  11.998
42875SOL    HW130464   8.900   8.279  11.908
42875SOL    HW230465   8.978   8.358  12.010
42876SOL     OW30466   8.222  12.944   5.230
42876SOL    HW130467   8.136  12.902   5.230
42876SOL    HW230468   8.249  12.943   5.322
42877SOL     OW30469  11.537   5.740  14.425
42877SOL    HW130470  11.571   5.820  14.466
42877SOL    HW230471  11.593   5.726  14.349
42878SOL     OW30472   7.429   9.285   4.948
42878SOL    HW130473   7.373   9.333   5.008
42878SOL    HW230474   7.517   9.297   4.983
42879SOL     OW30475   2.080   1.853   5.242
42879SOL    HW130476   2.010   1.914   5.223
42879SOL    HW230477   2.039   1.767   5.235
42880SOL     OW30478   2.727  10.913  14.410
42880SOL    HW130479   2.691  10.994  14.444
42880SOL    HW230480   2.698  10.910  14.319
42881SOL     OW30481   2.126  11.328  12.739
42881SOL    HW130482   2.045  11.376  12.723
42881SOL    HW230483   2.099  11.251  12.790
42882SOL     OW30484   7.447  10.028  11.404
42882SOL    HW130485   7.490  10.079  11.335
42882SOL    HW230486   7.407   9.954  11.358
42883SOL     OW30487   3.244   1.680  12.382
42883SOL    HW130488   3.152   1.698  12.365
42883SOL    HW230489   3.249   1.585  12.392
42884SOL     OW30490  10.457   4.601   0.812
42884SOL    HW130491  10.393   4.562   0.753
42884SOL    HW230492  10.486   4.681   0.767
42885SOL     OW30493   2.251   4.964   3.935
42885SOL    HW130494   2.285   4.881   3.969
42885SOL    HW230495   2.163   4.971   3.974
42886SOL     OW30496   8.881  10.135   0.395
42886SOL    HW130497   8.807  10.140   0.456
42886SOL    HW230498   8.958  10.126   0.452
42887SOL     OW30499   2.194   2.687   2.808
42887SOL    HW130500   2.177   2.621   2.875
42887SOL    HW230501   2.196   2.638   2.726
42888SOL     OW30502  12.652  12.938  12.660
42888SOL    HW130503  12.604  13.020  12.650
42888SOL    HW230504  12.729  12.961  12.713
42889SOL     OW30505  11.220  12.849   5.653
42889SOL    HW130506  11.235  12.762   5.615
42889SOL    HW230507  11.241  12.910   5.582
42890SOL     OW30508   3.390   2.644   4.306
42890SOL    HW130509   3.393   2.580   4.377
42890SOL    HW230510   3.382   2.729   4.350
42891SOL     OW30511  11.604   4.922  10.959
42891SOL    HW130512  11.597   4.851  11.023
42891SOL    HW230513  11.643   4.881  10.882
42892SOL     OW30514  14.028  14.340  14.497
42892SOL    HW130515  14.004  14.401  14.566
42892SOL    HW230516  14.053  14.395  14.423
42893SOL     OW30517   7.418   6.940   9.070
42893SOL    HW130518   7.426   6.975   9.158
42893SOL    HW230519   7.337   6.888   9.073
42894SOL     OW30520   5.319   0.411   5.631
42894SOL    HW130521   5.261   0.342   5.599
42894SOL    HW230522   5.394   0.364   5.667
42895SOL     OW30523   9.255  14.717  13.210
42895SOL    HW130524   9.213  14.749  13.130
42895SOL    HW230525   9.198  14.646  13.240
42896SOL     OW30526   9.475   4.746  12.303
42896SOL    HW130527   9.383   4.737  12.279
42896SOL    HW230528   9.517   4.784  12.225
42897SOL     OW30529  10.998  11.296  12.485
42897SOL    HW130530  11.061  11.258  12.546
42897SOL    HW230531  11.019  11.390  12.484
42898SOL     OW30532  14.013   5.324   0.319
42898SOL    HW130533  14.095   5.275   0.313
42898SOL    HW230534  14.039   5.415   0.304
42899SOL     OW30535   3.056   7.331   2.344
42899SOL    HW130536   3.123   7.399   2.354
42899SOL    HW230537   3.101   7.250   2.368
42900SOL     OW30538   4.146   2.690  11.902
42900SOL    HW130539   4.127   2.596  11.897
42900SOL    HW230540   4.236   2.695  11.933
42901SOL     OW30541  10.758   5.470   2.644
42901SOL    HW130542  10.701   5.393   2.640
42901SOL    HW230543  10.763   5.501   2.554
42902SOL     OW30544   6.113   6.773   4.136
42902SOL    HW130545   6.196   6.727   4.121
42902SOL    HW230546   6.090   6.810   4.051
42903SOL     OW30547   7.705  10.469   9.342
42903SOL    HW130548   7.717  10.374   9.344
42903SOL    HW230549   7.698  10.490   9.248
42904SOL     OW30550   3.962   8.449   1.414
42904SOL    HW130551   3.926   8.503   1.484
42904SOL    HW230552   3.918   8.365   1.422
42905SOL     OW30553   5.213   9.324   7.303
42905SOL    HW130554   5.215   9.414   7.269
42905SOL    HW230555   5.147   9.326   7.372
42906SOL     OW30556  11.275   9.324   0.063
42906SOL    HW130557  11.218   9.308   0.139
42906SOL    HW230558  11.268   9.418   0.047
42907SOL     OW30559  14.852  12.214   1.564
42907SOL    HW130560  14.851  12.273   1.639
42907SOL    HW230561  14.762  12.183   1.557
42908SOL     OW30562   3.777  11.604  11.516
42908SOL    HW130563   3.694  11.599  11.469
42908SOL    HW230564   3.830  11.534  11.477
42909SOL     OW30565   9.011  11.014  12.673
42909SOL    HW130566   9.061  11.057  12.742
42909SOL    HW230567   9.024  10.920  12.689
42910SOL     OW30568   2.626   1.354  11.481
42910SOL    HW130569   2.535   1.369  11.505
42910SOL    HW230570   2.625   1.348  11.385
42911SOL     OW30571  13.254  14.837   1.220
42911SOL    HW130572  13.254  14.860   1.128
42911SOL    HW230573  13.164  14.809   1.238
42912SOL     OW30574   8.986   2.550   2.199
42912SOL    HW130575   9.078   2.539   2.223
42912SOL    HW230576   8.939   2.549   2.282
42913SOL     OW30577  14.588   0.183  11.817
42913SOL    HW130578  14.605   0.191  11.910
42913SOL    HW230579  14.493   0.170  11.811
42914SOL     OW30580  12.615   5.271   3.601
42914SOL    HW130581  12.699   5.312   3.582
42914SOL    HW230582  12.633   5.177   3.598
42915SOL     OW30583   8.076   3.888   0.744
42915SOL    HW130584   8.031   3.948   0.684
42915SOL    HW230585   8.111   3.944   0.813
42916SOL     OW30586  14.207   4.170   7.229
42916SOL    HW130587  14.254   4.208   7.155
42916SOL    HW230588  14.275   4.129   7.282
42917SOL     OW30589  13.288  10.085  12.837
42917SOL    HW130590  13.361  10.146  12.850
42917SOL    HW230591  13.222  10.137  12.790
42918SOL     OW30592   1.439  10.319   2.054
42918SOL    HW130593   1.366  10.262   2.032
42918SOL    HW230594   1.498  10.311   1.979
42919SOL     OW30595   9.866   5.866   9.834
42919SOL    HW130596   9.777   5.831   9.844
42919SOL    HW230597   9.911   5.802   9.780
42920SOL     OW30598  12.856   7.925   1.918
42920SOL    HW130599  12.918   7.905   1.848
42920SOL    HW230600  12.770   7.919   1.877
42921SOL     OW30601  10.956  13.103  10.504
42921SOL    HW130602  10.882  13.162  10.489
42921SOL    HW230603  11.014  13.118  10.429
42922SOL     OW30604  13.228  10.716   3.317
42922SOL    HW130605  13.221  10.757   3.231
42922SOL    HW230606  13.287  10.642   3.303
42923SOL     OW30607   8.009  11.138  12.491
42923SOL    HW130608   8.057  11.216  12.463
42923SOL    HW230609   7.946  11.170  12.556
42924SOL     OW30610   6.126  14.110  12.981
42924SOL    HW130611   6.220  14.103  12.969
42924SOL    HW230612   6.092  14.025  12.951
42925SOL     OW30613   1.002   8.052   0.564
42925SOL    HW130614   1.014   8.012   0.478
42925SOL    HW230615   0.965   7.983   0.619
42926SOL     OW30616   3.004   0.073  13.508
42926SOL    HW130617   3.045  14.865  13.479
42926SOL    HW230618   3.071   0.140  13.492
42927SOL     OW30619   2.661  12.108   1.647
42927SOL    HW130620   2.599  12.105   1.574
42927SOL    HW230621   2.740  12.146   1.610
42928SOL     OW30622   3.541   1.030  13.237
42928SOL    HW130623   3.549   0.977  13.316
42928SOL    HW230624   3.591   1.109  13.257
42929SOL     OW30625   7.214   7.514   9.859
42929SOL    HW130626   7.245   7.582   9.920
42929SOL    HW230627   7.288   7.501   9.799
42930SOL     OW30628   7.905   7.381   5.811
42930SOL    HW130629   7.810   7.364   5.812
42930SOL    HW230630   7.923   7.409   5.722
42931SOL     OW30631  12.119   2.806   0.052
42931SOL    HW130632  12.048   2.870   0.053
42931SOL    HW230633  12.168   2.824   0.133
42932SOL     OW30634   4.035   6.242  10.053
42932SOL    HW130635   3.985   6.303  10.109
42932SOL    HW230636   4.121   6.283  10.044
42933SOL     OW30637  12.682   8.975   1.219
42933SOL    HW130638  12.743   8.917   1.265
42933SOL    HW230639  12.597   8.930   1.226
42934SOL     OW30640   7.863  14.118   5.005
42934SOL    HW130641   7.775  14.153   4.990
42934SOL    HW230642   7.919  14.195   5.011
42935SOL     OW30643   9.947  14.817  13.445
42935SOL    HW130644  10.024  14.862  13.478
42935SOL    HW230645   9.915  14.766  13.519
42936SOL     OW30646  12.999  10.341  14.730
42936SOL    HW130647  13.049  10.362  14.651
42936SOL    HW230648  12.908  10.358  14.706
42937SOL     OW30649  12.412   7.180   1.271
42937SOL    HW130650  12.494   7.225   1.254
42937SOL    HW230651  12.365   7.183   1.187
42938SOL     OW30652  11.994   6.565  12.963
42938SOL    HW130653  11.978   6.545  12.871
42938SOL    HW230654  11.908   6.590  12.997
42939SOL     OW30655   6.421   9.881   3.275
42939SOL    HW130656   6.503   9.929   3.289
42939SOL    HW230657   6.398   9.847   3.362
42940SOL     OW30658  10.489  12.245   1.888
42940SOL    HW130659  10.445  12.176   1.939
42940SOL    HW230660  10.566  12.201   1.852
42941SOL     OW30661   3.085   0.742   6.546
42941SOL    HW130662   3.047   0.662   6.510
42941SOL    HW230663   3.010   0.796   6.570
42942SOL     OW30664  11.595   7.465  10.288
42942SOL    HW130665  11.511   7.437  10.250
42942SOL    HW230666  11.647   7.491  10.212
42943SOL     OW30667   0.767  11.435   1.798
42943SOL    HW130668   0.836  11.389   1.750
42943SOL    HW230669   0.805  11.520   1.819
42944SOL     OW30670  13.174   9.962   9.546
42944SOL    HW130671  13.091   9.962   9.594
42944SOL    HW230672  13.240   9.981   9.612
42945SOL     OW30673  11.592  14.265   3.272
42945SOL    HW130674  11.686  14.275   3.288
42945SOL    HW230675  11.551  14.332   3.326
42946SOL     OW30676   3.022   0.333   9.979
42946SOL    HW130677   3.077   0.341   9.901
42946SOL    HW230678   2.935   0.310   9.945
42947SOL     OW30679  12.361   0.712   4.192
42947SOL    HW130680  12.435   0.745   4.141
42947SOL    HW230681  12.386   0.727   4.283
42948SOL     OW30682   8.957   2.485   3.436
42948SOL    HW130683   9.049   2.466   3.453
42948SOL    HW230684   8.945   2.575   3.467
42949SOL     OW30685   7.683   1.543   9.181
42949SOL    HW130686   7.601   1.552   9.231
42949SOL    HW230687   7.724   1.630   9.188
42950SOL     OW30688   6.824   2.917  12.060
42950SOL    HW130689   6.755   2.859  12.029
42950SOL    HW230690   6.802   3.003  12.024
42951SOL     OW30691  13.251  13.736   5.299
42951SOL    HW130692  13.315  13.681   5.345
42951SOL    HW230693  13.284  13.825   5.309
42952SOL     OW30694  13.468   5.667   6.770
42952SOL    HW130695  13.420   5.606   6.713
42952SOL    HW230696  13.473   5.622   6.854
42953SOL     OW30697   8.751  11.253   2.167
42953SOL    HW130698   8.821  11.318   2.156
42953SOL    HW230699   8.768  11.188   2.099
42954SOL     OW30700   2.153  13.929  13.511
42954SOL    HW130701   2.177  13.934  13.603
42954SOL    HW230702   2.215  13.867  13.473
42955SOL     OW30703   9.852   9.626  11.469
42955SOL    HW130704   9.869   9.534  11.450
42955SOL    HW230705   9.821   9.662  11.385
42956SOL     OW30706  11.070  10.382   5.397
42956SOL    HW130707  11.048  10.342   5.313
42956SOL    HW230708  10.993  10.368   5.452
42957SOL     OW30709   1.881   3.853   4.607
42957SOL    HW130710   1.889   3.783   4.672
42957SOL    HW230711   1.902   3.933   4.655
42958SOL     OW30712  12.574   2.096   1.018
42958SOL    HW130713  12.517   2.024   1.045
42958SOL    HW230714  12.603   2.136   1.099
42959SOL     OW30715  10.235   4.180   9.193
42959SOL    HW130716  10.274   4.096   9.217
42959SOL    HW230717  10.305   4.227   9.147
42960SOL     OW30718  12.233   3.711   0.153
42960SOL    HW130719  12.172   3.663   0.209
42960SOL    HW230720  12.181   3.782   0.117
42961SOL     OW30721   6.334   8.217  13.327
42961SOL    HW130722   6.372   8.161  13.395
42961SOL    HW230723   6.259   8.167  13.294
42962SOL     OW30724   1.424  10.086  14.692
42962SOL    HW130725   1.447  10.116  14.604
42962SOL    HW230726   1.491  10.123  14.748
42963SOL     OW30727   3.016   0.781  11.581
42963SOL    HW130728   2.966   0.787  11.500
42963SOL    HW230729   2.992   0.859  11.630
42964SOL     OW30730   9.695  14.053   5.414
42964SOL    HW130731   9.691  14.066   5.319
42964SOL    HW230732   9.730  13.964   5.424
42965SOL     OW30733   9.216   0.844   7.491
42965SOL    HW130734   9.150   0.867   7.426
42965SOL    HW230735   9.204   0.751   7.507
42966SOL     OW30736   9.858  11.153  11.817
42966SOL    HW130737   9.901  11.084  11.767
42966SOL    HW230738   9.920  11.172  11.888
42967SOL     OW30739   9.060   5.757   1.954
42967SOL    HW130740   8.992   5.692   1.936
42967SOL    HW230741   9.062   5.812   1.876
42968SOL     OW30742  13.795  11.592  10.411
42968SOL    HW130743  13.708  11.599  10.450
42968SOL    HW230744  13.786  11.524  10.344
42969SOL     OW30745   6.065   5.121  12.337
42969SOL    HW130746   6.053   5.148  12.246
42969SOL    HW230747   6.132   5.180  12.371
42970SOL     OW30748   3.915   2.019   4.244
42970SOL    HW130749   3.962   1.983   4.320
42970SOL    HW230750   3.823   2.004   4.264
42971SOL     OW30751   0.821  13.155   5.478
42971SOL    HW130752   0.813  13.071   5.524
42971SOL    HW230753   0.789  13.136   5.389
42972SOL     OW30754   1.813   5.791   0.135
42972SOL    HW130755   1.801   5.879   0.171
42972SOL    HW230756   1.767   5.734   0.198
42973SOL     OW30757   2.247   5.614  14.673
42973SOL    HW130758   2.271   5.534  14.628
42973SOL    HW230759   2.152   5.609  14.682
42974SOL     OW30760   2.917   4.636   8.701
42974SOL    HW130761   2.840   4.648   8.645
42974SOL    HW230762   2.983   4.598   8.643
42975SOL     OW30763   7.098   6.398  14.796
42975SOL    HW130764   7.099   6.385  14.701
42975SOL    HW230765   7.107   6.493  14.807
42976SOL     OW30766  13.480   1.618   8.329
42976SOL    HW130767  13.534   1.608   8.250
42976SOL    HW230768  13.404   1.562   8.313
42977SOL     OW30769   0.845   1.698   6.897
42977SOL    HW130770   0.866   1.767   6.835
42977SOL    HW230771   0.903   1.715   6.972
42978SOL     OW30772   8.121   4.614  14.115
42978SOL    HW130773   8.179   4.653  14.049
42978SOL    HW230774   8.130   4.670  14.192
42979SOL     OW30775   1.894   4.121   0.581
42979SOL    HW130776   1.861   4.200   0.538
42979SOL    HW230777   1.869   4.049   0.522
42980SOL     OW30778   8.663  11.478   4.570
42980SOL    HW130779   8.746  11.524   4.583
42980SOL    HW230780   8.652  11.426   4.650
42981SOL     OW30781  10.214   5.052  11.769
42981SOL    HW130782  10.146   4.985  11.766
42981SOL    HW230783  10.179   5.121  11.826
42982SOL     OW30784   9.604   4.511   8.173
42982SOL    HW130785   9.604   4.520   8.268
42982SOL    HW230786   9.602   4.601   8.140
42983SOL     OW30787   4.062  14.393  12.161
42983SOL    HW130788   3.988  14.333  12.173
42983SOL    HW230789   4.135  14.350  12.206
42984SOL     OW30790  11.061  14.349   0.725
42984SOL    HW130791  10.996  14.283   0.750
42984SOL    HW230792  11.121  14.304   0.667
42985SOL     OW30793  14.848   2.612   6.190
42985SOL    HW130794  14.839   2.702   6.158
42985SOL    HW230795  14.759   2.586   6.213
42986SOL     OW30796  10.935  13.591   1.741
42986SOL    HW130797  10.989  13.664   1.772
42986SOL    HW230798  10.916  13.540   1.820
42987SOL     OW30799   1.884   5.169  13.841
42987SOL    HW130800   1.835   5.244  13.873
42987SOL    HW230801   1.969   5.205  13.816
42988SOL     OW30802   4.258   7.880  12.677
42988SOL    HW130803   4.214   7.913  12.755
42988SOL    HW230804   4.349   7.866  12.705
42989SOL     OW30805   6.996  10.368   0.628
42989SOL    HW130806   7.060  10.374   0.557
42989SOL    HW230807   7.011  10.446   0.681
42990SOL     OW30808   3.811   9.084  10.942
42990SOL    HW130809   3.893   9.119  10.909
42990SOL    HW230810   3.748   9.156  10.933
42991SOL     OW30811   0.160  13.872   1.747
42991SOL    HW130812   0.177  13.965   1.730
42991SOL    HW230813   0.082  13.852   1.695
42992SOL     OW30814   6.686  14.209   7.362
42992SOL    HW130815   6.596  14.231   7.336
42992SOL    HW230816   6.677  14.133   7.418
42993SOL     OW30817  14.221   6.894   1.751
42993SOL    HW130818  14.248   6.926   1.665
42993SOL    HW230819  14.302   6.892   1.802
42994SOL     OW30820   1.679  12.491  10.624
42994SOL    HW130821   1.714  12.403  10.638
42994SOL    HW230822   1.596  12.477  10.579
42995SOL     OW30823   0.186  12.598  13.207
42995SOL    HW130824   0.253  12.606  13.275
42995SOL    HW230825   0.112  12.556  13.251
42996SOL     OW30826  11.917   7.434   7.373
42996SOL    HW130827  11.917   7.453   7.279
42996SOL    HW230828  11.826   7.417   7.394
42997SOL     OW30829   3.367  10.171   0.292
42997SOL    HW130830   3.295  10.216   0.336
42997SOL    HW230831   3.394  10.232   0.223
42998SOL     OW30832   4.740  10.833  14.579
42998SOL    HW130833   4.723  10.922  14.549
42998SOL    HW230834   4.662  10.810  14.630
42999SOL     OW30835  10.633   8.167   0.241
42999SOL    HW130836  10.697   8.220   0.287
42999SOL    HW230837  10.682   8.090   0.211
43000SOL     OW30838   7.132   5.225   7.006
43000SOL    HW130839   7.136   5.130   6.997
43000SOL    HW230840   7.191   5.244   7.079
43001SOL     OW30841   6.804   6.227   6.609
43001SOL    HW130842   6.867   6.218   6.537
43001SOL    HW230843   6.742   6.293   6.579
43002SOL     OW30844   1.167   2.865  14.271
43002SOL    HW130845   1.150   2.951  14.310
43002SOL    HW230846   1.202   2.812  14.343
43003SOL     OW30847   7.774   1.954   3.003
43003SOL    HW130848   7.851   1.978   2.951
43003SOL    HW230849   7.737   1.878   2.958
43004SOL     OW30850  10.623   7.955   1.784
43004SOL    HW130851  10.613   7.979   1.876
43004SOL    HW230852  10.537   7.920   1.760
43005SOL     OW30853  11.060   3.770   6.140
43005SOL    HW130854  11.082   3.843   6.197
43005SOL    HW230855  11.040   3.698   6.199
43006SOL     OW30856   2.995  14.642  14.720
43006SOL    HW130857   3.057  14.598  14.661
43006SOL    HW230858   3.034  14.729  14.733
43007SOL     OW30859   9.431  13.707   7.880
43007SOL    HW130860   9.360  13.770   7.886
43007SOL    HW230861   9.469  13.721   7.793
43008SOL     OW30862  13.865  11.941   8.327
43008SOL    HW130863  13.808  11.977   8.259
43008SOL    HW230864  13.929  11.888   8.279
43009SOL     OW30865   4.188  11.578   8.808
43009SOL    HW130866   4.112  11.559   8.864
43009SOL    HW230867   4.150  11.604   8.724
43010SOL     OW30868  12.592   4.887   5.357
43010SOL    HW130869  12.607   4.825   5.285
43010SOL    HW230870  12.545   4.960   5.316
43011SOL     OW30871  11.269   3.007   3.944
43011SOL    HW130872  11.222   3.056   3.877
43011SOL    HW230873  11.214   3.016   4.022
43012SOL     OW30874   4.029  11.561   4.047
43012SOL    HW130875   4.122  11.543   4.061
43012SOL    HW230876   3.996  11.482   4.003
43013SOL     OW30877  13.227  10.091  10.323
43013SOL    HW130878  13.192  10.179  10.316
43013SOL    HW230879  13.168  10.037  10.270
43014SOL     OW30880   4.169   2.108  13.687
43014SOL    HW130881   4.241   2.157  13.726
43014SOL    HW230882   4.208   2.066  13.610
43015SOL     OW30883  12.550  11.043  10.814
43015SOL    HW130884  12.551  10.973  10.879
43015SOL    HW230885  12.457  11.058  10.796
43016SOL     OW30886  12.765   9.533   1.671
43016SOL    HW130887  12.749   9.622   1.642
43016SOL    HW230888  12.743   9.533   1.764
43017SOL     OW30889  11.883   6.522   0.879
43017SOL    HW130890  11.913   6.499   0.791
43017SOL    HW230891  11.951   6.581   0.913
43018SOL     OW30892   8.270   4.124   5.582
43018SOL    HW130893   8.338   4.192   5.579
43018SOL    HW230894   8.204   4.160   5.641
43019SOL     OW30895  13.085   1.395   8.189
43019SOL    HW130896  13.116   1.305   8.182
43019SOL    HW230897  13.072   1.408   8.283
43020SOL     OW30898   9.677   7.505   9.287
43020SOL    HW130899   9.588   7.537   9.303
43020SOL    HW230900   9.718   7.502   9.373
43021SOL     OW30901   2.810  11.613  14.258
43021SOL    HW130902   2.895  11.632  14.297
43021SOL    HW230903   2.781  11.696  14.220
43022SOL     OW30904   4.906   8.195   6.510
43022SOL    HW130905   4.850   8.124   6.480
43022SOL    HW230906   4.988   8.153   6.533
43023SOL     OW30907   2.479  10.355   2.721
43023SOL    HW130908   2.463  10.327   2.812
43023SOL    HW230909   2.446  10.445   2.718
43024SOL     OW30910   9.568   6.374  10.361
43024SOL    HW130911   9.473   6.381  10.376
43024SOL    HW230912   9.576   6.331  10.276
43025SOL     OW30913   9.498   8.517  12.908
43025SOL    HW130914   9.572   8.530  12.967
43025SOL    HW230915   9.539   8.503  12.822
43026SOL     OW30916   7.637   1.836   4.393
43026SOL    HW130917   7.592   1.756   4.418
43026SOL    HW230918   7.650   1.828   4.298
43027SOL     OW30919   8.574   2.437   5.794
43027SOL    HW130920   8.515   2.489   5.849
43027SOL    HW230921   8.643   2.498   5.769
43028SOL     OW30922   5.101   0.930   7.399
43028SOL    HW130923   5.075   0.874   7.326
43028SOL    HW230924   5.193   0.952   7.380
43029SOL     OW30925   5.882   1.359   1.234
43029SOL    HW130926   5.918   1.292   1.291
43029SOL    HW230927   5.956   1.414   1.211
43030SOL     OW30928   7.519  13.779   3.380
43030SOL    HW130929   7.547  13.870   3.386
43030SOL    HW230930   7.435  13.776   3.427
43031SOL     OW30931   7.307   4.602   4.128
43031SOL    HW130932   7.358   4.588   4.049
43031SOL    HW230933   7.371   4.618   4.196
43032SOL     OW30934   8.089   6.310   4.493
43032SOL    HW130935   8.061   6.380   4.552
43032SOL    HW230936   8.011   6.256   4.481
43033SOL     OW30937   1.777   0.670  13.057
43033SOL    HW130938   1.775   0.576  13.041
43033SOL    HW230939   1.701   0.687  13.112
43034SOL     OW30940   8.862   7.620   9.012
43034SOL    HW130941   8.937   7.563   8.997
43034SOL    HW230942   8.786   7.567   8.988
43035SOL     OW30943   3.874  14.714  11.068
43035SOL    HW130944   3.819  14.776  11.115
43035SOL    HW230945   3.948  14.766  11.035
43036SOL     OW30946   1.001   1.399   1.465
43036SOL    HW130947   1.078   1.448   1.434
43036SOL    HW230948   1.024   1.307   1.450
43037SOL     OW30949   4.503   0.414   3.539
43037SOL    HW130950   4.522   0.361   3.617
43037SOL    HW230951   4.555   0.374   3.470
43038SOL     OW30952   4.674  14.795   6.573
43038SOL    HW130953   4.592  14.840   6.553
43038SOL    HW230954   4.673  14.785   6.668
43039SOL     OW30955   6.521   9.973   1.350
43039SOL    HW130956   6.467   9.903   1.388
43039SOL    HW230957   6.483   9.986   1.263
43040SOL     OW30958   1.109   6.195   0.406
43040SOL    HW130959   1.203   6.204   0.422
43040SOL    HW230960   1.080   6.281   0.376
43041SOL     OW30961  12.899  11.723   0.085
43041SOL    HW130962  12.936  11.772   0.159
43041SOL    HW230963  12.947  11.754   0.009
43042SOL     OW30964   4.418  12.977   8.099
43042SOL    HW130965   4.438  12.888   8.129
43042SOL    HW230966   4.336  12.999   8.142
43043SOL     OW30967   9.610  10.515   9.040
43043SOL    HW130968   9.629  10.464   9.119
43043SOL    HW230969   9.606  10.450   8.970
43044SOL     OW30970  11.657   0.001   7.988
43044SOL    HW130971  11.616  14.805   8.038
43044SOL    HW230972  11.607   0.079   8.010
43045SOL     OW30973   0.501   7.694   2.970
43045SOL    HW130974   0.503   7.752   3.046
43045SOL    HW230975   0.564   7.625   2.991
43046SOL     OW30976   0.320   8.987   9.876
43046SOL    HW130977   0.266   8.975   9.953
43046SOL    HW230978   0.397   8.932   9.892
43047SOL     OW30979   6.627  14.774   6.129
43047SOL    HW130980   6.580  14.796   6.049
43047SOL    HW230981   6.559  14.743   6.189
43048SOL     OW30982   8.429   7.535   6.693
43048SOL    HW130983   8.466   7.491   6.616
43048SOL    HW230984   8.406   7.623   6.662
43049SOL     OW30985   1.889   5.858   1.141
43049SOL    HW130986   1.810   5.911   1.130
43049SOL    HW230987   1.895   5.844   1.236
43050SOL     OW30988  14.419   8.441  12.376
43050SOL    HW130989  14.337   8.477  12.342
43050SOL    HW230990  14.475   8.517  12.389
43051SOL     OW30991  13.159   4.869   5.758
43051SOL    HW130992  13.192   4.792   5.805
43051SOL    HW230993  13.131   4.928   5.828
43052SOL     OW30994   6.045   8.479   9.989
43052SOL    HW130995   6.106   8.530   9.935
43052SOL    HW230996   6.095   8.401  10.014
43053SOL     OW30997   3.476   3.143  10.649
43053SOL    HW130998   3.527   3.165  10.726
43053SOL    HW230999   3.424   3.067  10.675
43054SOL     OW31000   2.815   4.165   7.769
43054SOL    HW131001   2.815   4.125   7.682
43054SOL    HW231002   2.746   4.120   7.817
43055SOL     OW31003  14.872  10.247   2.149
43055SOL    HW131004  14.870  10.306   2.074
43055SOL    HW231005   0.089  10.250   2.179
43056SOL     OW31006   0.940   8.662   5.755
43056SOL    HW131007   0.955   8.697   5.667
43056SOL    HW231008   0.859   8.704   5.785
43057SOL     OW31009  14.448   2.971  12.692
43057SOL    HW131010  14.481   2.949  12.780
43057SOL    HW231011  14.356   2.991  12.706
43058SOL     OW31012  13.529   2.160  12.346
43058SOL    HW131013  13.461   2.106  12.304
43058SOL    HW231014  13.489   2.247  12.352
43059SOL     OW31015  14.021   8.958   2.164
43059SOL    HW131016  14.095   8.973   2.105
43059SOL    HW231017  13.991   9.046   2.188
43060SOL     OW31018   5.134   6.127  10.550
43060SOL    HW131019   5.086   6.063  10.602
43060SOL    HW231020   5.073   6.150  10.480
43061SOL     OW31021  11.703   8.589   3.290
43061SOL    HW131022  11.628   8.647   3.297
43061SOL    HW231023  11.740   8.608   3.203
43062SOL     OW31024   2.768   3.679  14.709
43062SOL    HW131025   2.718   3.668  14.628
43062SOL    HW231026   2.727   3.753  14.753
43063SOL     OW31027   5.419   0.719  13.003
43063SOL    HW131028   5.408   0.630  13.037
43063SOL    HW231029   5.514   0.734  13.005
43064SOL     OW31030   5.901   2.377   6.634
43064SOL    HW131031   5.956   2.454   6.623
43064SOL    HW231032   5.943   2.310   6.578
43065SOL     OW31033  11.681   8.623   5.010
43065SOL    HW131034  11.612   8.622   5.076
43065SOL    HW231035  11.650   8.563   4.942
43066SOL     OW31036  14.195  11.525   6.950
43066SOL    HW131037  14.105  11.528   6.981
43066SOL    HW231038  14.190  11.553   6.859
43067SOL     OW31039   1.382   0.952   9.916
43067SOL    HW131040   1.468   0.939   9.878
43067SOL    HW231041   1.320   0.932   9.846
43068SOL     OW31042   5.635  13.377   9.724
43068SOL    HW131043   5.624  13.469   9.698
43068SOL    HW231044   5.692  13.340   9.657
43069SOL     OW31045   8.578   9.807  11.952
43069SOL    HW131046   8.603   9.850  12.034
43069SOL    HW231047   8.517   9.738  11.979
43070SOL     OW31048   8.074  11.770  11.891
43070SOL    HW131049   8.018  11.803  11.821
43070SOL    HW231050   8.156  11.747  11.847
43071SOL     OW31051   9.728   3.209   9.481
43071SOL    HW131052   9.677   3.275   9.528
43071SOL    HW231053   9.701   3.126   9.519
43072SOL     OW31054   3.062  11.598  12.603
43072SOL    HW131055   3.032  11.612  12.513
43072SOL    HW231056   3.009  11.659  12.655
43073SOL     OW31057   9.726  14.789  12.498
43073SOL    HW131058   9.663  14.853  12.465
43073SOL    HW231059   9.739  14.729  12.424
43074SOL     OW31060   1.849   6.577   2.589
43074SOL    HW131061   1.757   6.550   2.588
43074SOL    HW231062   1.847   6.669   2.561
43075SOL     OW31063   9.992   3.038   5.255
43075SOL    HW131064   9.979   3.033   5.161
43075SOL    HW231065   9.988   3.132   5.276
43076SOL     OW31066   9.558   5.781  10.944
43076SOL    HW131067   9.514   5.697  10.944
43076SOL    HW231068   9.629   5.771  10.880
43077SOL     OW31069  14.338  12.101   8.130
43077SOL    HW131070  14.358  12.009   8.114
43077SOL    HW231071  14.380  12.147   8.058
43078SOL     OW31072   4.405   3.410   6.066
43078SOL    HW131073   4.497   3.428   6.048
43078SOL    HW231074   4.387   3.454   6.149
43079SOL     OW31075   0.894   9.931   5.770
43079SOL    HW131076   0.866  10.022   5.779
43079SOL    HW231077   0.814   9.883   5.751
43080SOL     OW31078   9.639   3.098  13.053
43080SOL    HW131079   9.571   3.080  13.118
43080SOL    HW231080   9.672   3.184  13.076
43081SOL     OW31081   1.248   8.340   1.049
43081SOL    HW131082   1.340   8.361   1.064
43081SOL    HW231083   1.231   8.366   0.959
43082SOL     OW31084   2.491   4.066   9.530
43082SOL    HW131085   2.490   4.159   9.509
43082SOL    HW231086   2.402   4.046   9.559
43083SOL     OW31087   6.467  12.722   6.310
43083SOL    HW131088   6.408  12.794   6.290
43083SOL    HW231089   6.451  12.702   6.402
43084SOL     OW31090   2.008   0.317   6.514
43084SOL    HW131091   2.063   0.394   6.530
43084SOL    HW231092   1.963   0.303   6.597
43085SOL     OW31093   0.429   5.658   3.334
43085SOL    HW131094   0.391   5.572   3.351
43085SOL    HW231095   0.363   5.720   3.366
43086SOL     OW31096   3.017   4.605   8.994
43086SOL    HW131097   3.042   4.626   8.904
43086SOL    HW231098   2.925   4.580   8.988
43087SOL     OW31099   6.851  12.057   3.261
43087SOL    HW131100   6.881  11.970   3.236
43087SOL    HW231101   6.779  12.077   3.202
43088SOL     OW31102  13.009   7.358  14.370
43088SOL    HW131103  13.102   7.376  14.354
43088SOL    HW231104  12.963   7.414  14.307
43089SOL     OW31105   3.057   5.872   8.647
43089SOL    HW131106   2.974   5.893   8.690
43089SOL    HW231107   3.096   5.957   8.628
43090SOL     OW31108   5.144  12.640   8.492
43090SOL    HW131109   5.196  12.606   8.419
43090SOL    HW231110   5.198  12.708   8.531
43091SOL     OW31111  11.686   2.341  11.403
43091SOL    HW131112  11.743   2.299  11.340
43091SOL    HW231113  11.683   2.281  11.477
43092SOL     OW31114  12.662   6.156  13.111
43092SOL    HW131115  12.681   6.246  13.085
43092SOL    HW231116  12.588   6.163  13.171
43093SOL     OW31117  12.215   7.827  11.376
43093SOL    HW131118  12.262   7.851  11.456
43093SOL    HW231119  12.172   7.908  11.349
43094SOL     OW31120  11.221   4.120   9.965
43094SOL    HW131121  11.128   4.132   9.949
43094SOL    HW231122  11.254   4.209   9.979
43095SOL     OW31123   0.036  11.361  12.836
43095SOL    HW131124  14.816  11.370  12.817
43095SOL    HW231125   0.039  11.330  12.926
43096SOL     OW31126   2.052   3.232   8.635
43096SOL    HW131127   2.018   3.239   8.724
43096SOL    HW231128   2.102   3.313   8.621
43097SOL     OW31129  12.387   5.693   8.829
43097SOL    HW131130  12.392   5.646   8.746
43097SOL    HW231131  12.410   5.783   8.808
43098SOL     OW31132   5.444   8.733  14.574
43098SOL    HW131133   5.511   8.716  14.507
43098SOL    HW231134   5.436   8.650  14.621
43099SOL     OW31135   0.913   8.484   0.806
43099SOL    HW131136   0.908   8.398   0.763
43099SOL    HW231137   0.892   8.467   0.897
43100SOL     OW31138  10.293   9.978   2.118
43100SOL    HW131139  10.255   9.918   2.053
43100SOL    HW231140  10.381   9.996   2.085
43101SOL     OW31141  14.039   8.956   1.257
43101SOL    HW131142  14.122   8.964   1.209
43101SOL    HW231143  14.018   8.863   1.251
43102SOL     OW31144  10.614   7.313   8.828
43102SOL    HW131145  10.563   7.384   8.790
43102SOL    HW231146  10.615   7.244   8.761
43103SOL     OW31147   3.243  14.062   9.847
43103SOL    HW131148   3.264  14.091   9.936
43103SOL    HW231149   3.296  14.119   9.790
43104SOL     OW31150   3.316  14.730  12.190
43104SOL    HW131151   3.237  14.771  12.154
43104SOL    HW231152   3.360  14.801  12.238
43105SOL     OW31153   0.115   3.424   5.282
43105SOL    HW131154   0.056   3.424   5.206
43105SOL    HW231155   0.093   3.345   5.330
43106SOL     OW31156  12.274   9.935   1.396
43106SOL    HW131157  12.221   9.987   1.456
43106SOL    HW231158  12.363   9.966   1.410
43107SOL     OW31159  11.797   6.471  12.474
43107SOL    HW131160  11.745   6.482  12.554
43107SOL    HW231161  11.733   6.473  12.403
43108SOL     OW31162  10.231  14.749  13.201
43108SOL    HW131163  10.213  14.734  13.108
43108SOL    HW231164  10.146  14.738  13.244
43109SOL     OW31165   1.763   4.674   4.748
43109SOL    HW131166   1.819   4.603   4.779
43109SOL    HW231167   1.676   4.635   4.742
43110SOL     OW31168   9.014   3.038  11.651
43110SOL    HW131169   9.092   3.083  11.683
43110SOL    HW231170   8.963   3.019  11.730
43111SOL     OW31171   0.033   4.051  11.105
43111SOL    HW131172   0.007   4.047  11.013
43111SOL    HW231173  14.825   4.066  11.153
43112SOL     OW31174   6.084   6.564  13.522
43112SOL    HW131175   5.993   6.585  13.502
43112SOL    HW231176   6.121   6.537  13.438
43113SOL     OW31177   8.209   3.213   2.688
43113SOL    HW131178   8.198   3.306   2.702
43113SOL    HW231179   8.183   3.172   2.770
43114SOL     OW31180   7.212   1.154   1.944
43114SOL    HW131181   7.171   1.240   1.932
43114SOL    HW231182   7.143   1.091   1.924
43115SOL     OW31183   0.121   4.292  10.032
43115SOL    HW131184   0.056   4.359  10.054
43115SOL    HW231185   0.156   4.265  10.116
43116SOL     OW31186   2.039  14.290   0.591
43116SOL    HW131187   2.015  14.306   0.500
43116SOL    HW231188   2.127  14.325   0.599
43117SOL     OW31189   7.642   4.807  12.741
43117SOL    HW131190   7.717   4.833  12.687
43117SOL    HW231191   7.623   4.884  12.794
43118SOL     OW31192   3.799   7.669   9.153
43118SOL    HW131193   3.719   7.631   9.189
43118SOL    HW231194   3.842   7.711   9.228
43119SOL     OW31195  14.754   0.579   0.832
43119SOL    HW131196  14.766   0.657   0.886
43119SOL    HW231197  14.676   0.598   0.780
43120SOL     OW31198   7.163   9.944   1.699
43120SOL    HW131199   7.082   9.973   1.658
43120SOL    HW231200   7.135   9.907   1.783
43121SOL     OW31201   2.178   3.103  11.609
43121SOL    HW131202   2.251   3.154  11.576
43121SOL    HW231203   2.212   3.061  11.688
43122SOL     OW31204   4.651  11.133   8.010
43122SOL    HW131205   4.731  11.167   8.049
43122SOL    HW231206   4.582  11.193   8.037
43123SOL     OW31207   8.971  11.677  13.633
43123SOL    HW131208   9.026  11.630  13.570
43123SOL    HW231209   9.030  11.741  13.673
43124SOL     OW31210   3.642   1.089  12.486
43124SOL    HW131211   3.642   1.121  12.395
43124SOL    HW231212   3.719   1.033  12.492
43125SOL     OW31213   3.512   8.650   4.433
43125SOL    HW131214   3.513   8.618   4.523
43125SOL    HW231215   3.450   8.723   4.434
43126SOL     OW31216   4.494  13.425   0.437
43126SOL    HW131217   4.539  13.341   0.441
43126SOL    HW231218   4.477  13.448   0.528
43127SOL     OW31219   3.093   9.928   4.175
43127SOL    HW131220   3.161   9.909   4.239
43127SOL    HW231221   3.112   9.871   4.101
43128SOL     OW31222   5.072   0.795   0.884
43128SOL    HW131223   5.038   0.714   0.921
43128SOL    HW231224   5.164   0.776   0.866
43129SOL     OW31225   8.501   8.780  12.352
43129SOL    HW131226   8.505   8.876  12.352
43129SOL    HW231227   8.497   8.756  12.445
43130SOL     OW31228   4.631   7.662   8.102
43130SOL    HW131229   4.552   7.714   8.087
43130SOL    HW231230   4.642   7.662   8.197
43131SOL     OW31231   1.546   1.887   5.068
43131SOL    HW131232   1.502   1.923   4.992
43131SOL    HW231233   1.527   1.793   5.065
43132SOL     OW31234   5.414  12.721  13.337
43132SOL    HW131235   5.446  12.782  13.271
43132SOL    HW231236   5.320  12.714  13.319
43133SOL     OW31237   7.748   9.961   5.320
43133SOL    HW131238   7.685   9.889   5.333
43133SOL    HW231239   7.779   9.981   5.408
43134SOL     OW31240   1.228   3.942  14.108
43134SOL    HW131241   1.214   3.880  14.178
43134SOL    HW231242   1.294   4.003  14.141
43135SOL     OW31243  12.075  14.222   0.265
43135SOL    HW131244  12.082  14.183   0.352
43135SOL    HW231245  12.154  14.276   0.256
43136SOL     OW31246  13.416  11.542   2.021
43136SOL    HW131247  13.476  11.554   1.947
43136SOL    HW231248  13.362  11.621   2.020
43137SOL     OW31249   7.841   6.083   1.231
43137SOL    HW131250   7.878   6.171   1.235
43137SOL    HW231251   7.903   6.033   1.177
43138SOL     OW31252   0.737  10.087   9.290
43138SOL    HW131253   0.686  10.120   9.363
43138SOL    HW231254   0.744  10.162   9.230
43139SOL     OW31255   4.367  10.176   5.600
43139SOL    HW131256   4.356  10.178   5.695
43139SOL    HW231257   4.460  10.193   5.586
43140SOL     OW31258   1.332   2.658  10.734
43140SOL    HW131259   1.425   2.671  10.716
43140SOL    HW231260   1.330   2.610  10.817
43141SOL     OW31261  13.803   8.194   4.747
43141SOL    HW131262  13.792   8.262   4.813
43141SOL    HW231263  13.758   8.118   4.783
43142SOL     OW31264   4.200   9.118  12.406
43142SOL    HW131265   4.286   9.156  12.420
43142SOL    HW231266   4.217   9.033  12.365
43143SOL     OW31267  12.494  10.059   0.765
43143SOL    HW131268  12.575  10.013   0.785
43143SOL    HW231269  12.459  10.085   0.851
43144SOL     OW31270  13.025   7.420   4.609
43144SOL    HW131271  13.061   7.491   4.556
43144SOL    HW231272  13.097   7.396   4.669
43145SOL     OW31273   9.470   3.372   1.436
43145SOL    HW131274   9.428   3.381   1.522
43145SOL    HW231275   9.554   3.329   1.456
43146SOL     OW31276  10.806   1.167   1.300
43146SOL    HW131277  10.810   1.110   1.223
43146SOL    HW231278  10.858   1.243   1.276
43147SOL     OW31279   1.272   3.420   2.868
43147SOL    HW131280   1.202   3.448   2.810
43147SOL    HW231281   1.240   3.438   2.956
43148SOL     OW31282   8.610   7.248   2.761
43148SOL    HW131283   8.680   7.212   2.707
43148SOL    HW231284   8.530   7.212   2.725
43149SOL     OW31285  11.328  14.567   6.476
43149SOL    HW131286  11.388  14.591   6.405
43149SOL    HW231287  11.321  14.472   6.471
43150SOL     OW31288   6.357   2.625   9.291
43150SOL    HW131289   6.358   2.708   9.338
43150SOL    HW231290   6.267   2.613   9.262
43151SOL     OW31291   1.502  14.687   5.522
43151SOL    HW131292   1.428  14.636   5.555
43151SOL    HW231293   1.492  14.773   5.563
43152SOL     OW31294   3.008   8.321  13.492
43152SOL    HW131295   2.993   8.386  13.424
43152SOL    HW231296   3.038   8.243  13.445
43153SOL     OW31297   0.378  11.655   2.258
43153SOL    HW131298   0.448  11.718   2.243
43153SOL    HW231299   0.417  11.570   2.237
43154SOL     OW31300   0.709   3.298   4.514
43154SOL    HW131301   0.790   3.266   4.476
43154SOL    HW231302   0.692   3.238   4.587
43155SOL     OW31303  10.270   6.585  11.409
43155SOL    HW131304  10.265   6.503  11.360
43155SOL    HW231305  10.346   6.573  11.466
43156SOL     OW31306  11.447   6.495   9.864
43156SOL    HW131307  11.461   6.576   9.816
43156SOL    HW231308  11.371   6.512   9.919
43157SOL     OW31309   6.949  10.151   2.268
43157SOL    HW131310   6.976  10.118   2.353
43157SOL    HW231311   6.858  10.179   2.281
43158SOL     OW31312   9.331  10.027   3.692
43158SOL    HW131313   9.391   9.988   3.755
43158SOL    HW231314   9.260  10.063   3.746
43159SOL     OW31315   6.607  11.863   0.364
43159SOL    HW131316   6.560  11.781   0.356
43159SOL    HW231317   6.539  11.930   0.368
43160SOL     OW31318   6.856   5.652  13.667
43160SOL    HW131319   6.904   5.702  13.733
43160SOL    HW231320   6.790   5.713  13.634
43161SOL     OW31321   9.695  13.684  10.310
43161SOL    HW131322   9.773  13.700  10.257
43161SOL    HW231323   9.651  13.768  10.314
43162SOL     OW31324  13.411  13.478   5.349
43162SOL    HW131325  13.448  13.408   5.403
43162SOL    HW231326  13.366  13.431   5.279
43163SOL     OW31327   8.522  13.369   5.744
43163SOL    HW131328   8.572  13.405   5.817
43163SOL    HW231329   8.431  13.385   5.767
43164SOL     OW31330   8.115   5.335   5.360
43164SOL    HW131331   8.109   5.366   5.450
43164SOL    HW231332   8.032   5.361   5.320
43165SOL     OW31333   0.736   9.863   0.206
43165SOL    HW131334   0.829   9.860   0.183
43165SOL    HW231335   0.692   9.817   0.134
43166SOL     OW31336   9.920   8.743  11.036
43166SOL    HW131337   9.872   8.669  10.999
43166SOL    HW231338   9.956   8.788  10.960
43167SOL     OW31339   5.067  10.084   1.152
43167SOL    HW131340   5.059  10.136   1.232
43167SOL    HW231341   5.134  10.130   1.101
43168SOL     OW31342  11.044  10.913  11.638
43168SOL    HW131343  11.088  10.998  11.633
43168SOL    HW231344  11.060  10.884  11.728
43169SOL     OW31345  11.495   5.501   9.168
43169SOL    HW131346  11.516   5.544   9.251
43169SOL    HW231347  11.399   5.495   9.168
43170SOL     OW31348  11.338   4.620   0.211
43170SOL    HW131349  11.294   4.545   0.251
43170SOL    HW231350  11.372   4.670   0.286
43171SOL     OW31351   8.156   9.827   9.624
43171SOL    HW131352   8.072   9.849   9.663
43171SOL    HW231353   8.200   9.774   9.690
43172SOL     OW31354   7.882  12.964   9.452
43172SOL    HW131355   7.798  13.009   9.464
43172SOL    HW231356   7.873  12.920   9.367
43173SOL     OW31357   7.582  13.775   6.854
43173SOL    HW131358   7.589  13.723   6.934
43173SOL    HW231359   7.664  13.825   6.851
43174SOL     OW31360   5.014   3.218  14.156
43174SOL    HW131361   5.083   3.192  14.217
43174SOL    HW231362   4.933   3.195  14.200
43175SOL     OW31363   6.896   9.978   7.984
43175SOL    HW131364   6.828  10.022   8.035
43175SOL    HW231365   6.858   9.969   7.896
43176SOL     OW31366   7.674  12.054   6.046
43176SOL    HW131367   7.669  12.072   5.952
43176SOL    HW231368   7.699  12.139   6.084
43177SOL     OW31369   7.093   5.660  14.322
43177SOL    HW131370   7.186   5.642  14.336
43177SOL    HW231371   7.048   5.585  14.359
43178SOL     OW31372   0.798   8.376   1.071
43178SOL    HW131373   0.743   8.439   1.117
43178SOL    HW231374   0.743   8.345   0.999
43179SOL     OW31375   5.820  10.243   2.279
43179SOL    HW131376   5.733  10.215   2.307
43179SOL    HW231377   5.815  10.339   2.280
43180SOL     OW31378   9.781   5.313   5.275
43180SOL    HW131379   9.719   5.386   5.271
43180SOL    HW231380   9.830   5.318   5.194
43181SOL     OW31381   8.376  10.639   8.099
43181SOL    HW131382   8.330  10.715   8.063
43181SOL    HW231383   8.398  10.586   8.023
43182SOL     OW31384   8.030   6.661  10.400
43182SOL    HW131385   8.038   6.572  10.435
43182SOL    HW231386   7.949   6.694  10.439
43183SOL     OW31387   1.207  12.831  14.232
43183SOL    HW131388   1.164  12.802  14.151
43183SOL    HW231389   1.138  12.876  14.280
43184SOL     OW31390   9.279   5.579   3.334
43184SOL    HW131391   9.345   5.647   3.322
43184SOL    HW231392   9.223   5.611   3.405
43185SOL     OW31393  11.418   6.609   0.557
43185SOL    HW131394  11.372   6.688   0.586
43185SOL    HW231395  11.355   6.538   0.568
43186SOL     OW31396   2.128  10.981   0.991
43186SOL    HW131397   2.057  10.927   0.957
43186SOL    HW231398   2.084  11.043   1.051
43187SOL     OW31399   6.891   4.090  11.020
43187SOL    HW131400   6.880   4.016  10.960
43187SOL    HW231401   6.857   4.165  10.972
43188SOL     OW31402   9.483  12.500   7.162
43188SOL    HW131403   9.487  12.588   7.124
43188SOL    HW231404   9.418  12.507   7.232
43189SOL     OW31405  11.195   4.472  13.047
43189SOL    HW131406  11.239   4.430  13.121
43189SOL    HW231407  11.118   4.515  13.086
43190SOL     OW31408   3.602  13.169  14.662
43190SOL    HW131409   3.549  13.229  14.610
43190SOL    HW231410   3.643  13.111  14.598
43191SOL     OW31411   7.146   3.936   7.695
43191SOL    HW131412   7.143   3.942   7.600
43191SOL    HW231413   7.055   3.941   7.722
43192SOL     OW31414   9.721  13.972   8.432
43192SOL    HW131415   9.807  13.944   8.401
43192SOL    HW231416   9.659  13.916   8.386
43193SOL     OW31417   0.722   7.120   9.548
43193SOL    HW131418   0.759   7.046   9.499
43193SOL    HW231419   0.790   7.145   9.610
43194SOL     OW31420  11.194   4.245   5.642
43194SOL    HW131421  11.133   4.237   5.570
43194SOL    HW231422  11.140   4.239   5.721
43195SOL     OW31423   3.011   4.727   4.343
43195SOL    HW131424   3.041   4.757   4.257
43195SOL    HW231425   2.935   4.672   4.325
43196SOL     OW31426   8.618   9.255  11.474
43196SOL    HW131427   8.679   9.285  11.406
43196SOL    HW231428   8.647   9.299  11.553
43197SOL     OW31429  10.325   0.054   2.801
43197SOL    HW131430  10.262  14.865   2.837
43197SOL    HW231431  10.308   0.054   2.707
43198SOL     OW31432  10.584   8.999  13.970
43198SOL    HW131433  10.536   9.077  13.940
43198SOL    HW231434  10.542   8.975  14.052
43199SOL     OW31435   5.845   2.368   4.264
43199SOL    HW131436   5.859   2.306   4.335
43199SOL    HW231437   5.801   2.318   4.195
43200SOL     OW31438   5.282   1.482  10.551
43200SOL    HW131439   5.289   1.483  10.455
43200SOL    HW231440   5.246   1.395  10.571
43201SOL     OW31441   0.284   4.002  13.426
43201SOL    HW131442   0.291   4.096  13.412
43201SOL    HW231443   0.276   3.992  13.521
43202SOL     OW31444   3.825   2.781   2.565
43202SOL    HW131445   3.850   2.764   2.474
43202SOL    HW231446   3.792   2.697   2.597
43203SOL     OW31447   8.411   0.557  11.199
43203SOL    HW131448   8.374   0.469  11.189
43203SOL    HW231449   8.367   0.594  11.275
43204SOL     OW31450   3.180   0.071   1.660
43204SOL    HW131451   3.169   0.014   1.584
43204SOL    HW231452   3.091   0.085   1.692
43205SOL     OW31453   6.846   1.413  13.023
43205SOL    HW131454   6.856   1.337  13.081
43205SOL    HW231455   6.769   1.459  13.057
43206SOL     OW31456   3.168  10.575   3.262
43206SOL    HW131457   3.224  10.522   3.205
43206SOL    HW231458   3.189  10.546   3.350
43207SOL     OW31459   7.260   8.754   5.069
43207SOL    HW131460   7.329   8.818   5.054
43207SOL    HW231461   7.267   8.693   4.995
43208SOL     OW31462   7.396  13.886   8.618
43208SOL    HW131463   7.331  13.899   8.687
43208SOL    HW231464   7.429  13.974   8.599
43209SOL     OW31465  12.079  12.416   4.288
43209SOL    HW131466  12.136  12.493   4.295
43209SOL    HW231467  12.070  12.386   4.379
43210SOL     OW31468   3.213   8.939   2.254
43210SOL    HW131469   3.302   8.966   2.277
43210SOL    HW231470   3.178   9.013   2.203
43211SOL     OW31471   9.730  10.493   2.354
43211SOL    HW131472   9.746  10.510   2.447
43211SOL    HW231473   9.639  10.466   2.350
43212SOL     OW31474   7.266   2.938   1.863
43212SOL    HW131475   7.299   2.896   1.942
43212SOL    HW231476   7.344   2.956   1.810
43213SOL     OW31477  11.579   5.652   8.938
43213SOL    HW131478  11.507   5.596   8.968
43213SOL    HW231479  11.611   5.609   8.859
43214SOL     OW31480   7.647  12.078   9.848
43214SOL    HW131481   7.576  12.142   9.861
43214SOL    HW231482   7.712  12.124   9.795
43215SOL     OW31483   0.678   3.114   7.002
43215SOL    HW131484   0.710   3.204   6.995
43215SOL    HW231485   0.691   3.077   6.915
43216SOL     OW31486   9.159   0.775   7.924
43216SOL    HW131487   9.121   0.802   8.008
43216SOL    HW231488   9.253   0.769   7.941
43217SOL     OW31489  11.382   6.267   2.732
43217SOL    HW131490  11.305   6.294   2.782
43217SOL    HW231491  11.378   6.172   2.731
43218SOL     OW31492   2.117   3.369   4.872
43218SOL    HW131493   2.093   3.277   4.859
43218SOL    HW231494   2.181   3.367   4.944
43219SOL     OW31495   9.922   2.236  11.691
43219SOL    HW131496   9.922   2.192  11.776
43219SOL    HW231497  10.012   2.228  11.660
43220SOL     OW31498   4.606   7.174  11.896
43220SOL    HW131499   4.608   7.188  11.801
43220SOL    HW231500   4.560   7.250  11.930
43221SOL     OW31501   1.792   8.421   9.956
43221SOL    HW131502   1.757   8.336   9.931
43221SOL    HW231503   1.787   8.473   9.876
43222SOL     OW31504   2.574  14.333   6.295
43222SOL    HW131505   2.556  14.366   6.383
43222SOL    HW231506   2.635  14.397   6.258
43223SOL     OW31507  12.489   4.668  14.210
43223SOL    HW131508  12.464   4.656  14.302
43223SOL    HW231509  12.406   4.681  14.164
43224SOL     OW31510   7.629   5.267  10.653
43224SOL    HW131511   7.718   5.296  10.676
43224SOL    HW231512   7.590   5.244  10.737
43225SOL     OW31513  11.410   4.677   3.714
43225SOL    HW131514  11.435   4.596   3.669
43225SOL    HW231515  11.458   4.745   3.667
43226SOL     OW31516   9.214  13.031   1.884
43226SOL    HW131517   9.195  12.973   1.810
43226SOL    HW231518   9.215  12.972   1.960
43227SOL     OW31519   4.230  10.353  12.698
43227SOL    HW131520   4.232  10.340  12.603
43227SOL    HW231521   4.297  10.420  12.714
43228SOL     OW31522  14.033   1.028   3.675
43228SOL    HW131523  14.003   0.966   3.742
43228SOL    HW231524  14.010   1.114   3.711
43229SOL     OW31525   8.040   6.377   9.420
43229SOL    HW131526   8.091   6.309   9.376
43229SOL    HW231527   8.028   6.344   9.509
43230SOL     OW31528  11.778   0.555  11.320
43230SOL    HW131529  11.797   0.648  11.326
43230SOL    HW231530  11.683   0.550  11.304
43231SOL     OW31531  12.909  13.576   7.840
43231SOL    HW131532  12.892  13.664   7.806
43231SOL    HW231533  12.899  13.585   7.935
43232SOL     OW31534   3.230   5.343  12.425
43232SOL    HW131535   3.249   5.250  12.438
43232SOL    HW231536   3.307   5.388  12.460
43233SOL     OW31537  13.002   7.210   0.286
43233SOL    HW131538  13.064   7.231   0.356
43233SOL    HW231539  13.056   7.208   0.206
43234SOL     OW31540  14.761  14.426  11.629
43234SOL    HW131541  14.689  14.370  11.660
43234SOL    HW231542  14.808  14.370  11.566
43235SOL     OW31543   0.564   4.514  12.350
43235SOL    HW131544   0.575   4.537  12.257
43235SOL    HW231545   0.566   4.598  12.395
43236SOL     OW31546  13.848   8.460  10.186
43236SOL    HW131547  13.902   8.401  10.239
43236SOL    HW231548  13.760   8.449  10.220
43237SOL     OW31549   3.412   2.824  14.079
43237SOL    HW131550   3.334   2.769  14.087
43237SOL    HW231551   3.470   2.774  14.022
43238SOL     OW31552   2.198  14.719   9.795
43238SOL    HW131553   2.106  14.721   9.821
43238SOL    HW231554   2.201  14.659   9.721
43239SOL     OW31555   5.312   7.001   5.048
43239SOL    HW131556   5.238   6.941   5.062
43239SOL    HW231557   5.315   7.054   5.128
43240SOL     OW31558  13.821   5.975  10.404
43240SOL    HW131559  13.888   5.910  10.425
43240SOL    HW231560  13.801   6.017  10.487
43241SOL     OW31561  11.343   6.919  12.722
43241SOL    HW131562  11.346   6.875  12.808
43241SOL    HW231563  11.403   6.867  12.668
43242SOL     OW31564  13.780   3.594   0.017
43242SOL    HW131565  13.824   3.600  14.806
43242SOL    HW231566  13.838   3.640   0.077
43243SOL     OW31567  11.227   1.426   5.855
43243SOL    HW131568  11.134   1.425   5.831
43243SOL    HW231569  11.274   1.408   5.773
43244SOL     OW31570   3.163   3.454   7.900
43244SOL    HW131571   3.216   3.512   7.846
43244SOL    HW231572   3.095   3.509   7.937
43245SOL     OW31573   8.555   1.287   0.155
43245SOL    HW131574   8.491   1.241   0.209
43245SOL    HW231575   8.531   1.266   0.065
43246SOL     OW31576   9.396   0.389  14.201
43246SOL    HW131577   9.453   0.320  14.170
43246SOL    HW231578   9.337   0.407  14.128
43247SOL     OW31579  12.819  11.829  10.094
43247SOL    HW131580  12.724  11.835  10.103
43247SOL    HW231581  12.834  11.817  10.000
43248SOL     OW31582   0.694  12.748   7.454
43248SOL    HW131583   0.667  12.769   7.543
43248SOL    HW231584   0.628  12.788   7.398
43249SOL     OW31585   4.247  10.882  12.088
43249SOL    HW131586   4.189  10.956  12.107
43249SOL    HW231587   4.299  10.911  12.013
43250SOL     OW31588   8.500   0.258   0.601
43250SOL    HW131589   8.421   0.312   0.601
43250SOL    HW231590   8.469   0.170   0.580
43251SOL     OW31591   5.960   4.340   9.034
43251SOL    HW131592   5.891   4.349   8.968
43251SOL    HW231593   5.979   4.430   9.061
43252SOL     OW31594   9.075  10.830  13.905
43252SOL    HW131595   8.995  10.783  13.883
43252SOL    HW231596   9.146  10.770  13.880
43253SOL     OW31597   6.044   0.476   5.182
43253SOL    HW131598   6.133   0.482   5.217
43253SOL    HW231599   6.014   0.389   5.209
43254SOL     OW31600   4.269  12.221   3.842
43254SOL    HW131601   4.276  12.316   3.842
43254SOL    HW231602   4.182  12.203   3.878
43255SOL     OW31603   8.148   3.772   2.660
43255SOL    HW131604   8.228   3.757   2.710
43255SOL    HW231605   8.077   3.759   2.724
43256SOL     OW31606   0.336   5.567  13.127
43256SOL    HW131607   0.427   5.552  13.153
43256SOL    HW231608   0.311   5.647  13.174
43257SOL     OW31609  13.131  13.508  13.021
43257SOL    HW131610  13.223  13.535  13.027
43257SOL    HW231611  13.125  13.461  12.938
43258SOL     OW31612   0.216   7.312  14.180
43258SOL    HW131613   0.137   7.273  14.216
43258SOL    HW231614   0.192   7.402  14.159
43259SOL     OW31615   4.101   4.503   1.784
43259SOL    HW131616   4.094   4.412   1.756
43259SOL    HW231617   4.076   4.554   1.707
43260SOL     OW31618   1.830   2.829   4.090
43260SOL    HW131619   1.874   2.823   4.005
43260SOL    HW231620   1.898   2.862   4.149
43261SOL     OW31621   1.391  10.632  10.858
43261SOL    HW131622   1.310  10.676  10.880
43261SOL    HW231623   1.450  10.650  10.931
43262SOL     OW31624  14.504   7.391   1.969
43262SOL    HW131625  14.584   7.437   1.945
43262SOL    HW231626  14.474   7.351   1.887
43263SOL     OW31627   4.270   4.391   7.419
43263SOL    HW131628   4.260   4.366   7.327
43263SOL    HW231629   4.286   4.308   7.464
43264SOL     OW31630   2.410   0.895  10.963
43264SOL    HW131631   2.365   0.907  11.047
43264SOL    HW231632   2.490   0.945  10.971
43265SOL     OW31633   3.550  14.373  13.572
43265SOL    HW131634   3.642  14.389  13.549
43265SOL    HW231635   3.514  14.460  13.588
43266SOL     OW31636  10.177  10.467   2.923
43266SOL    HW131637  10.270  10.453   2.903
43266SOL    HW231638  10.156  10.396   2.983
43267SOL     OW31639  11.838   6.469   6.141
43267SOL    HW131640  11.820   6.375   6.140
43267SOL    HW231641  11.764   6.507   6.190
43268SOL     OW31642  12.549   9.982   9.006
43268SOL    HW131643  12.598   9.950   8.931
43268SOL    HW231644  12.458   9.983   8.977
43269SOL     OW31645   3.881   7.428   3.646
43269SOL    HW131646   3.825   7.351   3.654
43269SOL    HW231647   3.835   7.484   3.583
43270SOL     OW31648  12.877   4.973   4.942
43270SOL    HW131649  12.809   4.955   5.007
43270SOL    HW231650  12.912   5.058   4.967
43271SOL     OW31651  10.220   9.498  10.391
43271SOL    HW131652  10.248   9.525  10.478
43271SOL    HW231653  10.187   9.579  10.351
43272SOL     OW31654   4.405  13.271   5.883
43272SOL    HW131655   4.440  13.327   5.814
43272SOL    HW231656   4.312  13.294   5.887
43273SOL     OW31657   9.893   1.071   9.743
43273SOL    HW131658   9.964   1.008   9.756
43273SOL    HW231659   9.875   1.068   9.649
43274SOL     OW31660   0.436  13.488   1.743
43274SOL    HW131661   0.498  13.503   1.672
43274SOL    HW231662   0.414  13.576   1.774
43275SOL     OW31663   6.857   4.830   2.032
43275SOL    HW131664   6.847   4.754   1.975
43275SOL    HW231665   6.927   4.881   1.992
43276SOL     OW31666   7.491  14.483  11.342
43276SOL    HW131667   7.445  14.454  11.263
43276SOL    HW231668   7.496  14.404  11.397
43277SOL     OW31669   6.045   8.042   9.931
43277SOL    HW131670   6.007   8.042   9.843
43277SOL    HW231671   6.119   7.981   9.925
43278SOL     OW31672   0.647  12.333   6.864
43278SOL    HW131673   0.614  12.384   6.938
43278SOL    HW231674   0.737  12.311   6.888
43279SOL     OW31675   2.357  10.988   6.228
43279SOL    HW131676   2.374  11.051   6.298
43279SOL    HW231677   2.403  11.023   6.152
43280SOL     OW31678   2.918  12.667   0.867
43280SOL    HW131679   2.972  12.612   0.810
43280SOL    HW231680   2.833  12.624   0.868
43281SOL     OW31681   7.363   6.954  13.153
43281SOL    HW131682   7.351   6.944  13.247
43281SOL    HW231683   7.362   6.865  13.119
43282SOL     OW31684   4.646   9.493   8.624
43282SOL    HW131685   4.678   9.526   8.708
43282SOL    HW231686   4.715   9.517   8.561
43283SOL     OW31687   5.635   5.357  12.578
43283SOL    HW131688   5.648   5.426  12.513
43283SOL    HW231689   5.555   5.382  12.624
43284SOL     OW31690   9.465   4.149   7.230
43284SOL    HW131691   9.526   4.153   7.303
43284SOL    HW231692   9.521   4.146   7.152
43285SOL     OW31693   2.032   0.788   0.634
43285SOL    HW131694   2.078   0.860   0.677
43285SOL    HW231695   2.011   0.727   0.706
43286SOL     OW31696   1.958  13.061  13.793
43286SOL    HW131697   1.989  12.975  13.822
43286SOL    HW231698   1.871  13.045  13.758
43287SOL     OW31699   5.198  12.900   5.717
43287SOL    HW131700   5.200  12.805   5.728
43287SOL    HW231701   5.129  12.915   5.652
43288SOL     OW31702  11.336   3.648   6.583
43288SOL    HW131703  11.290   3.610   6.509
43288SOL    HW231704  11.382   3.574   6.623
43289SOL     OW31705  10.508   5.256   3.481
43289SOL    HW131706  10.550   5.231   3.398
43289SOL    HW231707  10.440   5.317   3.457
43290SOL     OW31708  12.096   0.654   6.098
43290SOL    HW131709  12.179   0.698   6.119
43290SOL    HW231710  12.117   0.561   6.104
43291SOL     OW31711  11.586   3.338  11.188
43291SOL    HW131712  11.677   3.312  11.181
43291SOL    HW231713  11.538   3.256  11.200
43292SOL     OW31714  14.300   4.440   8.142
43292SOL    HW131715  14.390   4.415   8.160
43292SOL    HW231716  14.270   4.376   8.077
43293SOL     OW31717   5.916   3.506   0.009
43293SOL    HW131718   5.864   3.487   0.087
43293SOL    HW231719   5.885   3.443  14.818
43294SOL     OW31720   4.078   7.712   7.787
43294SOL    HW131721   4.051   7.658   7.860
43294SOL    HW231722   4.155   7.759   7.818
43295SOL     OW31723   9.187   3.641   9.563
43295SOL    HW131724   9.117   3.702   9.586
43295SOL    HW231725   9.142   3.558   9.545
43296SOL     OW31726  12.157  10.959  10.980
43296SOL    HW131727  12.182  10.869  10.961
43296SOL    HW231728  12.234  10.996  11.025
43297SOL     OW31729  12.503   7.075   9.887
43297SOL    HW131730  12.437   7.019   9.927
43297SOL    HW231731  12.560   7.100   9.959
43298SOL     OW31732  13.574   0.823   3.631
43298SOL    HW131733  13.487   0.860   3.618
43298SOL    HW231734  13.592   0.836   3.724
43299SOL     OW31735   5.129   5.317   3.474
43299SOL    HW131736   5.074   5.242   3.498
43299SOL    HW231737   5.075   5.394   3.492
43300SOL     OW31738   4.857   5.869   4.706
43300SOL    HW131739   4.797   5.795   4.710
43300SOL    HW231740   4.931   5.843   4.760
43301SOL     OW31741   3.003   0.571  13.538
43301SOL    HW131742   2.990   0.658  13.498
43301SOL    HW231743   2.992   0.510  13.465
43302SOL     OW31744   1.259   7.280   2.992
43302SOL    HW131745   1.232   7.189   2.982
43302SOL    HW231746   1.336   7.289   2.936
43303SOL     OW31747   5.694   2.827   5.236
43303SOL    HW131748   5.629   2.812   5.168
43303SOL    HW231749   5.750   2.749   5.232
43304SOL     OW31750   1.409   9.340  11.903
43304SOL    HW131751   1.466   9.389  11.844
43304SOL    HW231752   1.421   9.380  11.989
43305SOL     OW31753   1.444   4.667  11.422
43305SOL    HW131754   1.386   4.657  11.347
43305SOL    HW231755   1.464   4.578  11.450
43306SOL     OW31756   8.145   2.156   1.858
43306SOL    HW131757   8.129   2.077   1.806
43306SOL    HW231758   8.214   2.130   1.920
43307SOL     OW31759  12.813   0.940  13.112
43307SOL    HW131760  12.822   0.880  13.038
43307SOL    HW231761  12.839   0.887  13.188
43308SOL     OW31762   2.360   0.268   7.601
43308SOL    HW131763   2.323   0.285   7.687
43308SOL    HW231764   2.286   0.277   7.540
43309SOL     OW31765  12.848  10.214   9.371
43309SOL    HW131766  12.837  10.220   9.466
43309SOL    HW231767  12.900  10.135   9.358
43310SOL     OW31768   5.192   7.798   2.364
43310SOL    HW131769   5.126   7.845   2.314
43310SOL    HW231770   5.163   7.707   2.363
43311SOL     OW31771  10.990   9.184  10.636
43311SOL    HW131772  11.037   9.120  10.690
43311SOL    HW231773  10.986   9.143  10.550
43312SOL     OW31774  13.680  10.448  12.153
43312SOL    HW131775  13.669  10.380  12.220
43312SOL    HW231776  13.590  10.477  12.134
43313SOL     OW31777  10.325   4.351  13.649
43313SOL    HW131778  10.381   4.384  13.719
43313SOL    HW231779  10.236   4.358  13.685
43314SOL     OW31780  12.468  13.362   0.384
43314SOL    HW131781  12.487  13.349   0.291
43314SOL    HW231782  12.373  13.376   0.387
43315SOL     OW31783   2.014   5.631   4.357
43315SOL    HW131784   2.039   5.692   4.426
43315SOL    HW231785   2.001   5.547   4.402
43316SOL     OW31786  14.094   3.245  11.258
43316SOL    HW131787  14.086   3.321  11.200
43316SOL    HW231788  14.009   3.203  11.254
43317SOL     OW31789   5.683   8.795   9.552
43317SOL    HW131790   5.619   8.724   9.548
43317SOL    HW231791   5.765   8.753   9.577
43318SOL     OW31792  10.452  14.477  12.667
43318SOL    HW131793  10.414  14.562  12.645
43318SOL    HW231794  10.464  14.433  12.583
43319SOL     OW31795  13.913   3.150  10.573
43319SOL    HW131796  13.823   3.126  10.551
43319SOL    HW231797  13.960   3.143  10.490
43320SOL     OW31798   2.531  14.831  12.523
43320SOL    HW131799   2.479  14.812  12.601
43320SOL    HW231800   2.565   0.045  12.537
43321SOL     OW31801  12.076   4.823  10.303
43321SOL    HW131802  12.100   4.804  10.213
43321SOL    HW231803  11.980   4.830  10.302
43322SOL     OW31804   1.721   0.351   9.935
43322SOL    HW131805   1.641   0.302   9.956
43322SOL    HW231806   1.776   0.339  10.012
43323SOL     OW31807  11.410   1.060   6.919
43323SOL    HW131808  11.493   1.078   6.963
43323SOL    HW231809  11.377   1.146   6.893
43324SOL     OW31810  14.680   3.315   8.415
43324SOL    HW131811  14.761   3.321   8.364
43324SOL    HW231812  14.674   3.399   8.460
43325SOL     OW31813  13.338   6.366   5.735
43325SOL    HW131814  13.278   6.440   5.727
43325SOL    HW231815  13.423   6.404   5.753
43326SOL     OW31816   3.302  13.265  12.549
43326SOL    HW131817   3.292  13.356  12.578
43326SOL    HW231818   3.222  13.246  12.501
43327SOL     OW31819   3.221   8.005   0.985
43327SOL    HW131820   3.284   7.959   0.931
43327SOL    HW231821   3.159   7.938   1.013
43328SOL     OW31822  13.871   3.642   9.995
43328SOL    HW131823  13.959   3.645  10.034
43328SOL    HW231824  13.814   3.679  10.063
43329SOL     OW31825   7.236   1.775   2.356
43329SOL    HW131826   7.270   1.777   2.446
43329SOL    HW231827   7.276   1.850   2.313
43330SOL     OW31828   1.027   3.856   8.035
43330SOL    HW131829   1.026   3.943   7.997
43330SOL    HW231830   0.988   3.866   8.122
43331SOL     OW31831  10.676  12.581  13.891
43331SOL    HW131832  10.708  12.588  13.981
43331SOL    HW231833  10.734  12.517  13.851
43332SOL     OW31834  12.698  11.511   6.241
43332SOL    HW131835  12.768  11.446   6.248
43332SOL    HW231836  12.741  11.590   6.209
43333SOL     OW31837   0.143   5.644   9.972
43333SOL    HW131838   0.100   5.725   9.998
43333SOL    HW231839   0.072   5.584   9.952
43334SOL     OW31840  14.215  11.365   0.333
43334SOL    HW131841  14.256  11.279   0.344
43334SOL    HW231842  14.136  11.360   0.387
43335SOL     OW31843  13.227   7.345   3.779
43335SOL    HW131844  13.282   7.422   3.793
43335SOL    HW231845  13.158   7.375   3.720
43336SOL     OW31846  10.133   1.038   1.367
43336SOL    HW131847  10.114   0.948   1.341
43336SOL    HW231848  10.180   1.075   1.292
43337SOL     OW31849   6.747  14.624   4.638
43337SOL    HW131850   6.789  14.699   4.678
43337SOL    HW231851   6.818  14.564   4.616
43338SOL     OW31852   7.066   4.732  13.556
43338SOL    HW131853   7.079   4.637  13.555
43338SOL    HW231854   7.043   4.753  13.465
43339SOL     OW31855  12.677  13.738  10.193
43339SOL    HW131856  12.730  13.811  10.225
43339SOL    HW231857  12.587  13.770  10.196
43340SOL     OW31858   0.103   6.088  10.260
43340SOL    HW131859   0.190   6.120  10.236
43340SOL    HW231860   0.047   6.110  10.185
43341SOL     OW31861   1.978   6.289  12.137
43341SOL    HW131862   1.949   6.300  12.047
43341SOL    HW231863   1.897   6.288  12.188
43342SOL     OW31864  13.393  12.241  13.571
43342SOL    HW131865  13.457  12.200  13.629
43342SOL    HW231866  13.439  12.316  13.534
43343SOL     OW31867   2.724   1.152   6.591
43343SOL    HW131868   2.655   1.097   6.626
43343SOL    HW231869   2.798   1.139   6.651
43344SOL     OW31870   1.729  14.453   0.176
43344SOL    HW131871   1.715  14.390   0.105
43344SOL    HW231872   1.809  14.422   0.219
43345SOL     OW31873   7.978   1.639   3.350
43345SOL    HW131874   7.943   1.602   3.269
43345SOL    HW231875   8.066   1.670   3.326
43346SOL     OW31876   7.410   8.314   4.334
43346SOL    HW131877   7.421   8.373   4.409
43346SOL    HW231878   7.497   8.277   4.320
43347SOL     OW31879   0.075   6.849   1.416
43347SOL    HW131880   0.051   6.790   1.344
43347SOL    HW231881   0.024   6.928   1.400
43348SOL     OW31882  13.656  12.557   2.078
43348SOL    HW131883  13.612  12.542   2.162
43348SOL    HW231884  13.586  12.589   2.020
43349SOL     OW31885   1.035   2.715  13.868
43349SOL    HW131886   0.992   2.791  13.828
43349SOL    HW231887   0.967   2.649  13.872
43350SOL     OW31888   1.538  10.963  10.388
43350SOL    HW131889   1.528  10.946  10.482
43350SOL    HW231890   1.515  10.880  10.347
43351SOL     OW31891   3.428   3.986   2.544
43351SOL    HW131892   3.478   4.067   2.542
43351SOL    HW231893   3.344   4.008   2.505
43352SOL     OW31894   1.252   7.188  12.969
43352SOL    HW131895   1.325   7.230  13.013
43352SOL    HW231896   1.275   7.095  12.968
43353SOL     OW31897   1.689  14.144  14.453
43353SOL    HW131898   1.692  14.087  14.376
43353SOL    HW231899   1.595  14.156  14.470
43354SOL     OW31900   8.573   0.767  11.198
43354SOL    HW131901   8.606   0.788  11.110
43354SOL    HW231902   8.527   0.684  11.187
43355SOL     OW31903  10.989  11.050   3.765
43355SOL    HW131904  10.905  11.079   3.798
43355SOL    HW231905  11.031  11.008   3.840
43356SOL     OW31906  13.232   4.542  11.763
43356SOL    HW131907  13.191   4.553  11.677
43356SOL    HW231908  13.224   4.448  11.781
43357SOL     OW31909  14.643  12.432   9.445
43357SOL    HW131910  14.682  12.372   9.381
43357SOL    HW231911  14.591  12.376   9.502
43358SOL     OW31912   9.547  10.212   4.631
43358SOL    HW131913   9.522  10.291   4.679
43358SOL    HW231914   9.488  10.210   4.556
43359SOL     OW31915   6.632  10.507   1.144
43359SOL    HW131916   6.689  10.447   1.191
43359SOL    HW231917   6.636  10.477   1.053
43360SOL     OW31918  13.077   4.080  13.517
43360SOL    HW131919  13.047   3.994  13.487
43360SOL    HW231920  13.014   4.106  13.584
43361SOL     OW31921  11.104   1.149   3.177
43361SOL    HW131922  11.198   1.153   3.195
43361SOL    HW231923  11.079   1.061   3.204
43362SOL     OW31924   8.861   1.223  10.745
43362SOL    HW131925   8.936   1.268  10.784
43362SOL    HW231926   8.893   1.194  10.659
43363SOL     OW31927  13.663   4.253   1.880
43363SOL    HW131928  13.601   4.320   1.852
43363SOL    HW231929  13.706   4.225   1.799
43364SOL     OW31930  12.806   8.382   8.086
43364SOL    HW131931  12.855   8.334   8.019
43364SOL    HW231932  12.784   8.316   8.152
43365SOL     OW31933   4.594   3.246   0.725
43365SOL    HW131934   4.610   3.175   0.788
43365SOL    HW231935   4.647   3.223   0.649
43366SOL     OW31936  12.325   4.854   8.659
43366SOL    HW131937  12.244   4.847   8.609
43366SOL    HW231938  12.394   4.839   8.594
43367SOL     OW31939   8.514   6.770   0.360
43367SOL    HW131940   8.493   6.841   0.299
43367SOL    HW231941   8.494   6.690   0.312
43368SOL     OW31942   8.264   9.895  11.839
43368SOL    HW131943   8.289   9.971  11.786
43368SOL    HW231944   8.240   9.828  11.775
43369SOL     OW31945   3.749  12.817   4.074
43369SOL    HW131946   3.828  12.848   4.119
43369SOL    HW231947   3.705  12.761   4.138
43370SOL     OW31948  12.656   2.779  13.748
43370SOL    HW131949  12.715   2.854  13.759
43370SOL    HW231950  12.576   2.805  13.794
43371SOL     OW31951   2.924   8.085   4.723
43371SOL    HW131952   2.847   8.139   4.707
43371SOL    HW231953   2.901   7.999   4.689
43372SOL     OW31954   5.174   6.532  13.924
43372SOL    HW131955   5.149   6.609  13.975
43372SOL    HW231956   5.153   6.555  13.833
43373SOL     OW31957   7.271   5.147   7.257
43373SOL    HW131958   7.322   5.109   7.329
43373SOL    HW231959   7.185   5.106   7.265
43374SOL     OW31960   0.520   2.491   0.594
43374SOL    HW131961   0.470   2.562   0.635
43374SOL    HW231962   0.607   2.497   0.633
43375SOL     OW31963   0.020  12.677   2.602
43375SOL    HW131964   0.021  12.728   2.683
43375SOL    HW231965  14.871  12.589   2.630
43376SOL     OW31966   4.221   9.625   4.985
43376SOL    HW131967   4.219   9.651   4.893
43376SOL    HW231968   4.139   9.657   5.021
43377SOL     OW31969   0.474   6.827  12.857
43377SOL    HW131970   0.454   6.793  12.944
43377SOL    HW231971   0.494   6.920  12.871
43378SOL     OW31972   0.803   7.425   7.443
43378SOL    HW131973   0.818   7.336   7.475
43378SOL    HW231974   0.742   7.414   7.370
43379SOL     OW31975   2.921   8.755  13.508
43379SOL    HW131976   3.002   8.748  13.559
43379SOL    HW231977   2.950   8.785  13.422
43380SOL     OW31978   8.395  13.387   2.261
43380SOL    HW131979   8.391  13.415   2.353
43380SOL    HW231980   8.389  13.468   2.211
43381SOL     OW31981   1.826   9.773   0.523
43381SOL    HW131982   1.736   9.801   0.536
43381SOL    HW231983   1.832   9.755   0.429
43382SOL     OW31984   0.712  10.243   6.602
43382SOL    HW131985   0.617  10.237   6.604
43382SOL    HW231986   0.738  10.250   6.694
43383SOL     OW31987   6.950   7.640   1.971
43383SOL    HW131988   6.900   7.603   1.899
43383SOL    HW231989   7.020   7.576   1.988
43384SOL     OW31990  12.277  13.253  13.609
43384SOL    HW131991  12.249  13.288  13.524
43384SOL    HW231992  12.235  13.167  13.614
43385SOL     OW31993   8.156   5.424   4.976
43385SOL    HW131994   8.124   5.337   5.001
43385SOL    HW231995   8.113   5.441   4.892
43386SOL     OW31996   1.932   1.096   2.411
43386SOL    HW131997   1.907   1.033   2.343
43386SOL    HW231998   1.951   1.176   2.363
43387SOL     OW31999   8.206  12.174   0.934
43387SOL    HW132000   8.246  12.087   0.936
43387SOL    HW232001   8.131  12.164   0.875
43388SOL     OW32002  12.098   6.225   2.849
43388SOL    HW132003  12.038   6.234   2.775
43388SOL    HW232004  12.170   6.285   2.829
43389SOL     OW32005   2.919   7.875   2.676
43389SOL    HW132006   2.844   7.921   2.639
43389SOL    HW232007   2.881   7.816   2.742
43390SOL     OW32008   9.426  13.711  14.204
43390SOL    HW132009   9.391  13.695  14.292
43390SOL    HW232010   9.348  13.723  14.149
43391SOL     OW32011  12.658   1.251   8.405
43391SOL    HW132012  12.736   1.304   8.391
43391SOL    HW232013  12.589   1.313   8.428
43392SOL     OW32014  14.593  13.372   5.976
43392SOL    HW132015  14.638  13.426   5.911
43392SOL    HW232016  14.554  13.436   6.036
43393SOL     OW32017   3.653   5.529  10.741
43393SOL    HW132018   3.598   5.453  10.758
43393SOL    HW232019   3.610   5.600  10.789
43394SOL     OW32020  10.857   5.896   7.358
43394SOL    HW132021  10.826   5.941   7.279
43394SOL    HW232022  10.952   5.909   7.357
43395SOL     OW32023  10.217   9.702   4.214
43395SOL    HW132024  10.272   9.631   4.181
43395SOL    HW232025  10.133   9.660   4.233
43396SOL     OW32026  12.835   1.770   5.853
43396SOL    HW132027  12.753   1.743   5.893
43396SOL    HW232028  12.834   1.866   5.857
43397SOL     OW32029   7.375   2.907   0.393
43397SOL    HW132030   7.467   2.892   0.371
43397SOL    HW232031   7.361   2.857   0.473
43398SOL     OW32032   7.874  12.083   4.049
43398SOL    HW132033   7.812  12.156   4.052
43398SOL    HW232034   7.835  12.017   4.106
43399SOL     OW32035   2.646   5.264  11.391
43399SOL    HW132036   2.589   5.337  11.413
43399SOL    HW232037   2.625   5.196  11.455
43400SOL     OW32038   8.668   9.758  13.753
43400SOL    HW132039   8.662   9.783  13.660
43400SOL    HW232040   8.584   9.716  13.772
43401SOL     OW32041   8.255   7.167   1.572
43401SOL    HW132042   8.286   7.257   1.575
43401SOL    HW232043   8.316   7.118   1.627
43402SOL     OW32044  11.871  12.470   7.221
43402SOL    HW132045  11.822  12.552   7.228
43402SOL    HW232046  11.809  12.407   7.185
43403SOL     OW32047   5.961   9.457   2.952
43403SOL    HW132048   5.984   9.366   2.971
43403SOL    HW232049   6.031   9.509   2.991
43404SOL     OW32050  10.636   1.767   4.572
43404SOL    HW132051  10.726   1.763   4.604
43404SOL    HW232052  10.602   1.849   4.607
43405SOL     OW32053   8.334  14.663  12.055
43405SOL    HW132054   8.239  14.661  12.063
43405SOL    HW232055   8.364  14.714  12.130
43406SOL     OW32056   5.327  12.855   7.390
43406SOL    HW132057   5.324  12.783   7.453
43406SOL    HW232058   5.238  12.891   7.389
43407SOL     OW32059   5.896   9.327  14.419
43407SOL    HW132060   5.922   9.304  14.509
43407SOL    HW232061   5.916   9.249  14.368
43408SOL     OW32062  10.060   6.901  10.454
43408SOL    HW132063  10.034   6.940  10.537
43408SOL    HW232064   9.981   6.857  10.422
43409SOL     OW32065   2.040   6.344   0.309
43409SOL    HW132066   2.133   6.342   0.284
43409SOL    HW232067   2.009   6.430   0.281
43410SOL     OW32068   7.495   6.848   6.573
43410SOL    HW132069   7.578   6.886   6.543
43410SOL    HW232070   7.428   6.908   6.540
43411SOL     OW32071  14.121  13.133   9.048
43411SOL    HW132072  14.212  13.128   9.019
43411SOL    HW232073  14.071  13.151   8.968
43412SOL     OW32074   2.046   1.944  13.901
43412SOL    HW132075   1.987   1.877  13.866
43412SOL    HW232076   2.066   2.000  13.826
43413SOL     OW32077  11.135   8.589  11.170
43413SOL    HW132078  11.114   8.518  11.231
43413SOL    HW232079  11.053   8.604  11.122
43414SOL     OW32080  12.923  10.612  10.631
43414SOL    HW132081  12.979  10.546  10.590
43414SOL    HW232082  12.949  10.613  10.723
43415SOL     OW32083   6.935  13.364  12.661
43415SOL    HW132084   7.003  13.297  12.668
43415SOL    HW232085   6.858  13.318  12.629
43416SOL     OW32086  12.982   5.716   8.665
43416SOL    HW132087  13.056   5.776   8.662
43416SOL    HW232088  12.957   5.713   8.758
43417SOL     OW32089   9.545   8.017   2.740
43417SOL    HW132090   9.542   7.954   2.812
43417SOL    HW232091   9.474   8.079   2.760
43418SOL     OW32092   9.030  11.493   8.195
43418SOL    HW132093   9.093  11.565   8.192
43418SOL    HW232094   9.079  11.419   8.230
43419SOL     OW32095   3.551   4.675   4.133
43419SOL    HW132096   3.574   4.588   4.102
43419SOL    HW232097   3.455   4.675   4.137
43420SOL     OW32098  13.666  11.440   3.456
43420SOL    HW132099  13.760  11.436   3.472
43420SOL    HW232100  13.630  11.365   3.504
43421SOL     OW32101   4.784   7.722   5.161
43421SOL    HW132102   4.849   7.653   5.178
43421SOL    HW232103   4.737   7.731   5.243
43422SOL     OW32104  10.847   5.114   8.156
43422SOL    HW132105  10.942   5.123   8.148
43422SOL    HW232106  10.812   5.176   8.091
43423SOL     OW32107   5.035  11.688  12.320
43423SOL    HW132108   5.087  11.631  12.264
43423SOL    HW232109   4.973  11.730  12.261
43424SOL     OW32110   1.951   9.795  10.537
43424SOL    HW132111   1.908   9.877  10.560
43424SOL    HW232112   1.897   9.759  10.466
43425SOL     OW32113   2.202   6.011   6.974
43425SOL    HW132114   2.173   6.102   6.981
43425SOL    HW232115   2.250   5.994   7.055
43426SOL     OW32116   9.685   2.587   3.517
43426SOL    HW132117   9.739   2.511   3.540
43426SOL    HW232118   9.740   2.662   3.538
43427SOL     OW32119   7.080   7.275   0.329
43427SOL    HW132120   7.140   7.347   0.348
43427SOL    HW232121   7.000   7.297   0.376
43428SOL     OW32122   0.226   6.138   1.480
43428SOL    HW132123   0.247   6.073   1.413
43428SOL    HW232124   0.304   6.140   1.536
43429SOL     OW32125   5.471   3.952  13.053
43429SOL    HW132126   5.508   4.007  13.122
43429SOL    HW232127   5.398   4.003  13.018
43430SOL     OW32128   9.547   0.234  10.153
43430SOL    HW132129   9.591   0.319  10.157
43430SOL    HW232130   9.485   0.236  10.226
43431SOL     OW32131   6.903   8.984  12.742
43431SOL    HW132132   6.862   8.906  12.780
43431SOL    HW232133   6.841   9.014  12.676
43432SOL     OW32134   9.156   1.389   8.558
43432SOL    HW132135   9.147   1.295   8.577
43432SOL    HW232136   9.250   1.406   8.563
43433SOL     OW32137  10.531   3.001   2.339
43433SOL    HW132138  10.556   2.916   2.302
43433SOL    HW232139  10.610   3.054   2.334
43434SOL     OW32140   9.395   2.936   0.717
43434SOL    HW132141   9.468   2.877   0.735
43434SOL    HW232142   9.349   2.943   0.800
43435SOL     OW32143  14.799   6.282  12.277
43435SOL    HW132144  14.797   6.375  12.296
43435SOL    HW232145  14.812   6.277  12.183
43436SOL     OW32146  12.080   8.397   5.945
43436SOL    HW132147  12.161   8.388   5.895
43436SOL    HW232148  12.063   8.491   5.948
43437SOL     OW32149   7.014   9.418  13.227
43437SOL    HW132150   6.931   9.466  13.224
43437SOL    HW232151   7.003   9.348  13.163
43438SOL     OW32152   6.550   4.490   8.194
43438SOL    HW132153   6.512   4.419   8.142
43438SOL    HW232154   6.557   4.454   8.283
43439SOL     OW32155  10.618   2.740   1.992
43439SOL    HW132156  10.651   2.663   1.946
43439SOL    HW232157  10.592   2.706   2.078
43440SOL     OW32158  12.657   6.255   2.922
43440SOL    HW132159  12.719   6.304   2.977
43440SOL    HW232160  12.697   6.256   2.835
43441SOL     OW32161   9.774  13.547   3.192
43441SOL    HW132162   9.788  13.540   3.287
43441SOL    HW232163   9.861  13.539   3.154
43442SOL     OW32164   9.370   2.708   1.866
43442SOL    HW132165   9.408   2.624   1.891
43442SOL    HW232166   9.442   2.754   1.823
43443SOL     OW32167   3.842   6.349   8.895
43443SOL    HW132168   3.922   6.347   8.843
43443SOL    HW232169   3.871   6.351   8.986
43444SOL     OW32170  12.318   1.799  14.493
43444SOL    HW132171  12.224   1.790  14.512
43444SOL    HW232172  12.327   1.771  14.402
43445SOL     OW32173   4.300  12.003   4.246
43445SOL    HW132174   4.260  11.938   4.188
43445SOL    HW232175   4.303  12.083   4.194
43446SOL     OW32176   1.438   3.413   1.644
43446SOL    HW132177   1.482   3.423   1.559
43446SOL    HW232178   1.500   3.450   1.707
43447SOL     OW32179   3.767   1.969   9.443
43447SOL    HW132180   3.840   1.978   9.504
43447SOL    HW232181   3.807   1.950   9.359
43448SOL     OW32182   4.358   9.298   0.427
43448SOL    HW132183   4.287   9.286   0.364
43448SOL    HW232184   4.406   9.375   0.395
43449SOL     OW32185   1.653   9.129   2.847
43449SOL    HW132186   1.578   9.141   2.905
43449SOL    HW232187   1.638   9.043   2.807
43450SOL     OW32188   8.177   8.961  13.331
43450SOL    HW132189   8.241   8.990  13.396
43450SOL    HW232190   8.210   8.996  13.248
43451SOL     OW32191   2.775   6.760   2.464
43451SOL    HW132192   2.718   6.836   2.453
43451SOL    HW232193   2.798   6.734   2.375
43452SOL     OW32194   7.114   8.505   2.905
43452SOL    HW132195   7.070   8.477   2.985
43452SOL    HW232196   7.190   8.447   2.898
43453SOL     OW32197   2.231   0.615  14.548
43453SOL    HW132198   2.178   0.689  14.521
43453SOL    HW232199   2.214   0.607  14.642
43454SOL     OW32200   7.145   0.050  14.313
43454SOL    HW132201   7.120   0.140  14.293
43454SOL    HW232202   7.090  14.870  14.256
43455SOL     OW32203  13.923   7.950   0.598
43455SOL    HW132204  13.836   7.957   0.639
43455SOL    HW232205  13.905   7.951   0.504
43456SOL     OW32206   8.838   0.512   1.982
43456SOL    HW132207   8.865   0.429   1.942
43456SOL    HW232208   8.756   0.491   2.026
43457SOL     OW32209   0.856   9.932   2.235
43457SOL    HW132210   0.918   9.859   2.238
43457SOL    HW232211   0.790   9.904   2.172
43458SOL     OW32212  13.036   0.816   3.479
43458SOL    HW132213  13.005   0.767   3.555
43458SOL    HW232214  12.990   0.899   3.484
43459SOL     OW32215  11.505   4.701   3.403
43459SOL    HW132216  11.411   4.715   3.413
43459SOL    HW232217  11.522   4.711   3.309
43460SOL     OW32218   8.032   1.961   2.862
43460SOL    HW132219   7.998   1.922   2.782
43460SOL    HW232220   8.125   1.938   2.863
43461SOL     OW32221  10.219   2.968  14.260
43461SOL    HW132222  10.222   3.062  14.244
43461SOL    HW232223  10.126   2.948  14.270
43462SOL     OW32224  12.258   7.008   5.703
43462SOL    HW132225  12.262   6.928   5.754
43462SOL    HW232226  12.326   6.998   5.637
43463SOL     OW32227   6.225   7.696   5.465
43463SOL    HW132228   6.308   7.713   5.420
43463SOL    HW232229   6.183   7.629   5.412
43464SOL     OW32230  13.256   0.415  13.242
43464SOL    HW132231  13.205   0.456  13.172
43464SOL    HW232232  13.346   0.446  13.227
43465SOL     OW32233   7.432   0.001  11.091
43465SOL    HW132234   7.422  14.831  11.175
43465SOL    HW232235   7.380  14.822  11.030
43466SOL     OW32236   2.552   5.995   5.906
43466SOL    HW132237   2.562   5.914   5.955
43466SOL    HW232238   2.465   5.989   5.866
43467SOL     OW32239   0.838   5.115   7.795
43467SOL    HW132240   0.881   5.200   7.782
43467SOL    HW232241   0.745   5.134   7.783
43468SOL     OW32242   7.214  13.543   0.755
43468SOL    HW132243   7.297  13.568   0.795
43468SOL    HW232244   7.190  13.461   0.797
43469SOL     OW32245   9.998   3.772   9.186
43469SOL    HW132246  10.064   3.719   9.232
43469SOL    HW232247   9.978   3.723   9.107
43470SOL     OW32248   1.551   5.955   2.904
43470SOL    HW132249   1.488   5.887   2.879
43470SOL    HW232250   1.606   5.966   2.827
43471SOL     OW32251   3.768  13.831  11.474
43471SOL    HW132252   3.702  13.811  11.541
43471SOL    HW232253   3.781  13.748  11.428
43472SOL     OW32254   3.214   9.860  13.085
43472SOL    HW132255   3.287   9.798  13.075
43472SOL    HW232256   3.136   9.805  13.077
43473SOL     OW32257   7.106  11.839   6.820
43473SOL    HW132258   7.127  11.906   6.755
43473SOL    HW232259   7.122  11.756   6.776
43474SOL     OW32260   5.055   2.925   8.472
43474SOL    HW132261   5.107   2.849   8.499
43474SOL    HW232262   5.010   2.953   8.552
43475SOL     OW32263  14.433  10.675  14.152
43475SOL    HW132264  14.452  10.598  14.100
43475SOL    HW232265  14.428  10.643  14.242
43476SOL     OW32266   5.732  14.444   7.118
43476SOL    HW132267   5.637  14.435   7.122
43476SOL    HW232268   5.747  14.536   7.099
43477SOL     OW32269   9.984  14.116   8.173
43477SOL    HW132270   9.954  14.103   8.263
43477SOL    HW232271   9.989  14.027   8.137
43478SOL     OW32272   3.986  14.431   7.070
43478SOL    HW132273   3.938  14.393   7.144
43478SOL    HW232274   3.925  14.494   7.033
43479SOL     OW32275   2.717   1.447  13.702
43479SOL    HW132276   2.622   1.453  13.691
43479SOL    HW232277   2.742   1.368  13.653
43480SOL     OW32278  12.876   2.216  11.310
43480SOL    HW132279  12.876   2.312  11.311
43480SOL    HW232280  12.962   2.193  11.273
43481SOL     OW32281   6.887   7.947   4.184
43481SOL    HW132282   6.862   7.858   4.211
43481SOL    HW232283   6.812   7.979   4.134
43482SOL     OW32284  13.797   7.372  13.686
43482SOL    HW132285  13.720   7.421  13.655
43482SOL    HW232286  13.818   7.412  13.770
43483SOL     OW32287   3.010   7.925  12.982
43483SOL    HW132288   3.007   7.838  13.022
43483SOL    HW232289   3.080   7.919  12.918
43484SOL     OW32290   7.680  13.773   0.937
43484SOL    HW132291   7.760  13.808   0.977
43484SOL    HW232292   7.612  13.836   0.961
43485SOL     OW32293   8.765  11.543   2.996
43485SOL    HW132294   8.692  11.490   2.963
43485SOL    HW232295   8.734  11.579   3.079
43486SOL     OW32296  11.594   4.112   9.382
43486SOL    HW132297  11.637   4.050   9.441
43486SOL    HW232298  11.660   4.179   9.364
43487SOL     OW32299   3.106   2.906   9.400
43487SOL    HW132300   3.173   2.840   9.379
43487SOL    HW232301   3.097   2.957   9.320
43488SOL     OW32302  11.655   4.889   1.827
43488SOL    HW132303  11.729   4.896   1.887
43488SOL    HW232304  11.595   4.827   1.870
43489SOL     OW32305  10.095  11.614  11.645
43489SOL    HW132306  10.098  11.551  11.573
43489SOL    HW232307  10.012  11.598  11.689
43490SOL     OW32308   0.087   4.773  10.204
43490SOL    HW132309   0.148   4.729  10.263
43490SOL    HW232310   0.053   4.702  10.148
43491SOL     OW32311  13.516   6.243   7.264
43491SOL    HW132312  13.610   6.240   7.245
43491SOL    HW232313  13.475   6.263   7.180
43492SOL     OW32314   5.498   2.078   9.680
43492SOL    HW132315   5.438   2.152   9.684
43492SOL    HW232316   5.544   2.089   9.597
43493SOL     OW32317  13.752  14.645   6.877
43493SOL    HW132318  13.807  14.656   6.955
43493SOL    HW232319  13.716  14.557   6.886
43494SOL     OW32320   5.353  14.320   4.517
43494SOL    HW132321   5.380  14.339   4.607
43494SOL    HW232322   5.434  14.325   4.466
43495SOL     OW32323   8.338   4.133  11.090
43495SOL    HW132324   8.292   4.090  11.019
43495SOL    HW232325   8.296   4.100  11.170
43496SOL     OW32326   8.158   1.366   4.644
43496SOL    HW132327   8.157   1.290   4.586
43496SOL    HW232328   8.172   1.330   4.731
43497SOL     OW32329   8.918   6.133   0.266
43497SOL    HW132330   8.987   6.144   0.201
43497SOL    HW232331   8.955   6.072   0.330
43498SOL     OW32332  12.382   2.995   7.434
43498SOL    HW132333  12.443   3.047   7.382
43498SOL    HW232334  12.437   2.938   7.487
43499SOL     OW32335   5.215   7.247  14.865
43499SOL    HW132336   5.217   7.335   0.029
43499SOL    HW232337   5.207   7.262  14.771
43500SOL     OW32338   5.831   5.685  12.870
43500SOL    HW132339   5.738   5.693  12.849
43500SOL    HW232340   5.866   5.773  12.859
43501SOL     OW32341  11.024   3.367   2.811
43501SOL    HW132342  11.068   3.287   2.843
43501SOL    HW232343  10.954   3.335   2.754
43502SOL     OW32344  13.112   0.524   4.236
43502SOL    HW132345  13.187   0.556   4.185
43502SOL    HW232346  13.142   0.441   4.273
43503SOL     OW32347   5.467   2.648   4.560
43503SOL    HW132348   5.476   2.685   4.472
43503SOL    HW232349   5.385   2.685   4.593
43504SOL     OW32350   5.244  14.247   6.101
43504SOL    HW132351   5.199  14.190   6.038
43504SOL    HW232352   5.315  14.193   6.135
43505SOL     OW32353  12.743  14.393   1.690
43505SOL    HW132354  12.660  14.403   1.738
43505SOL    HW232355  12.786  14.478   1.699
43506SOL     OW32356   3.097   6.562   7.054
43506SOL    HW132357   3.054   6.552   7.139
43506SOL    HW232358   3.179   6.608   7.074
43507SOL     OW32359   6.027  12.783  13.469
43507SOL    HW132360   6.018  12.783  13.564
43507SOL    HW232361   6.109  12.736  13.452
43508SOL     OW32362   9.056  11.613   7.765
43508SOL    HW132363   9.066  11.640   7.674
43508SOL    HW232364   8.962  11.606   7.778
43509SOL     OW32365  14.414   6.618   2.365
43509SOL    HW132366  14.354   6.544   2.354
43509SOL    HW232367  14.386   6.681   2.298
43510SOL     OW32368   5.156   9.759   4.020
43510SOL    HW132369   5.184   9.772   4.111
43510SOL    HW232370   5.198   9.677   3.994
43511SOL     OW32371   3.205   7.433  14.265
43511SOL    HW132372   3.251   7.511  14.297
43511SOL    HW232373   3.124   7.432  14.315
43512SOL     OW32374   6.603  11.103   7.321
43512SOL    HW132375   6.597  11.133   7.411
43512SOL    HW232376   6.694  11.077   7.309
43513SOL     OW32377   8.727  10.842   0.968
43513SOL    HW132378   8.749  10.780   1.038
43513SOL    HW232379   8.808  10.849   0.917
43514SOL     OW32380   2.484   1.852   2.572
43514SOL    HW132381   2.545   1.839   2.499
43514SOL    HW232382   2.398   1.833   2.535
43515SOL     OW32383  11.611   6.283   9.787
43515SOL    HW132384  11.544   6.352   9.793
43515SOL    HW232385  11.564   6.202   9.808
43516SOL     OW32386   5.820   6.329   8.294
43516SOL    HW132387   5.824   6.285   8.209
43516SOL    HW232388   5.910   6.329   8.325
43517SOL     OW32389   5.637  10.067   4.802
43517SOL    HW132390   5.592  10.042   4.721
43517SOL    HW232391   5.602  10.007   4.868
43518SOL     OW32392  10.866  11.682   8.346
43518SOL    HW132393  10.827  11.684   8.434
43518SOL    HW232394  10.794  11.659   8.288
43519SOL     OW32395   0.606   6.747   4.178
43519SOL    HW132396   0.694   6.768   4.211
43519SOL    HW232397   0.603   6.652   4.176
43520SOL     OW32398  13.717   4.504  14.242
43520SOL    HW132399  13.781   4.561  14.285
43520SOL    HW232400  13.633   4.526  14.283
43521SOL     OW32401   1.432   3.033   7.211
43521SOL    HW132402   1.506   3.064   7.263
43521SOL    HW232403   1.356   3.077   7.250
43522SOL     OW32404   3.203   0.053   0.648
43522SOL    HW132405   3.164  14.860   0.593
43522SOL    HW232406   3.253   0.004   0.714
43523SOL     OW32407   3.014   2.010   7.750
43523SOL    HW132408   2.986   1.919   7.743
43523SOL    HW232409   3.071   2.012   7.827
43524SOL     OW32410  10.126  13.262   5.612
43524SOL    HW132411  10.078  13.344   5.608
43524SOL    HW232412  10.194  13.278   5.678
43525SOL     OW32413   2.475  13.959   5.667
43525SOL    HW132414   2.388  13.932   5.640
43525SOL    HW232415   2.516  13.992   5.587
43526SOL     OW32416   9.985   6.587   8.129
43526SOL    HW132417   9.954   6.635   8.205
43526SOL    HW232418   9.905   6.551   8.089
43527SOL     OW32419  10.629  12.864   7.051
43527SOL    HW132420  10.538  12.836   7.044
43527SOL    HW232421  10.679  12.788   7.021
43528SOL     OW32422  11.539  14.873  13.845
43528SOL    HW132423  11.532  14.863  13.750
43528SOL    HW232424  11.465  14.822  13.879
43529SOL     OW32425  12.257   0.382  14.333
43529SOL    HW132426  12.275   0.289  14.342
43529SOL    HW232427  12.164   0.391  14.351
43530SOL     OW32428   4.503   9.218   5.620
43530SOL    HW132429   4.418   9.260   5.633
43530SOL    HW232430   4.500   9.139   5.673
43531SOL     OW32431   7.452  13.708  13.678
43531SOL    HW132432   7.509  13.782  13.658
43531SOL    HW232433   7.453  13.655  13.598
43532SOL     OW32434   9.830   5.289  11.153
43532SOL    HW132435   9.820   5.375  11.192
43532SOL    HW232436   9.771   5.289  11.078
43533SOL     OW32437   0.954   6.996  12.449
43533SOL    HW132438   0.878   7.054  12.456
43533SOL    HW232439   1.029   7.051  12.469
43534SOL     OW32440  11.613   5.687   6.780
43534SOL    HW132441  11.697   5.668   6.822
43534SOL    HW232442  11.623   5.655   6.691
43535SOL     OW32443  14.124  11.599   9.766
43535SOL    HW132444  14.078  11.676   9.732
43535SOL    HW232445  14.083  11.583   9.851
43536SOL     OW32446   0.555   8.453   9.423
43536SOL    HW132447   0.640   8.411   9.410
43536SOL    HW232448   0.501   8.422   9.350
43537SOL     OW32449   2.652   7.667   4.349
43537SOL    HW132450   2.610   7.753   4.338
43537SOL    HW232451   2.745   7.685   4.342
43538SOL     OW32452  14.373   5.771   0.406
43538SOL    HW132453  14.311   5.804   0.471
43538SOL    HW232454  14.320   5.754   0.328
43539SOL     OW32455   9.243   9.106   4.878
43539SOL    HW132456   9.154   9.084   4.902
43539SOL    HW232457   9.294   9.027   4.894
43540SOL     OW32458   0.488  12.126   4.433
43540SOL    HW132459   0.412  12.181   4.412
43540SOL    HW232460   0.493  12.127   4.529
43541SOL     OW32461   8.008   1.552   6.214
43541SOL    HW132462   7.914   1.568   6.207
43541SOL    HW232463   8.022   1.470   6.167
43542SOL     OW32464   5.723   9.250   3.526
43542SOL    HW132465   5.804   9.250   3.576
43542SOL    HW232466   5.707   9.342   3.505
43543SOL     OW32467  11.641  10.369   0.349
43543SOL    HW132468  11.681  10.329   0.272
43543SOL    HW232469  11.663  10.311   0.421
43544SOL     OW32470   0.100   1.195   4.487
43544SOL    HW132471   0.014   1.227   4.514
43544SOL    HW232472   0.154   1.200   4.566
43545SOL     OW32473   2.568  13.139   5.391
43545SOL    HW132474   2.523  13.060   5.363
43545SOL    HW232475   2.505  13.185   5.446
43546SOL     OW32476   5.588   5.551  11.943
43546SOL    HW132477   5.664   5.563  12.001
43546SOL    HW232478   5.626   5.545  11.855
43547SOL     OW32479   8.605  13.069   1.313
43547SOL    HW132480   8.607  13.116   1.397
43547SOL    HW232481   8.511  13.053   1.297
43548SOL     OW32482  11.259   3.701  12.865
43548SOL    HW132483  11.243   3.746  12.782
43548SOL    HW232484  11.216   3.755  12.931
43549SOL     OW32485   7.536   7.300  12.944
43549SOL    HW132486   7.499   7.231  12.889
43549SOL    HW232487   7.472   7.371  12.938
43550SOL     OW32488   4.349   7.921   2.741
43550SOL    HW132489   4.335   7.833   2.706
43550SOL    HW232490   4.349   7.978   2.665
43551SOL     OW32491   2.598  12.414   2.852
43551SOL    HW132492   2.666  12.347   2.858
43551SOL    HW232493   2.572  12.429   2.943
43552SOL     OW32494   1.864   5.606   3.739
43552SOL    HW132495   1.773   5.579   3.732
43552SOL    HW232496   1.860   5.702   3.745
43553SOL     OW32497   7.399  12.973   5.467
43553SOL    HW132498   7.413  12.887   5.427
43553SOL    HW232499   7.455  13.032   5.416
43554SOL     OW32500   8.927   3.173   0.265
43554SOL    HW132501   8.921   3.167   0.170
43554SOL    HW232502   8.850   3.125   0.297
43555SOL     OW32503   0.919  11.016   4.015
43555SOL    HW132504   0.901  11.085   3.952
43555SOL    HW232505   0.835  10.999   4.057
43556SOL     OW32506   1.443   4.406  12.976
43556SOL    HW132507   1.479   4.318  12.986
43556SOL    HW232508   1.364   4.406  13.030
43557SOL     OW32509   6.401   8.854  13.810
43557SOL    HW132510   6.376   8.922  13.748
43557SOL    HW232511   6.360   8.774  13.776
43558SOL     OW32512   6.474   8.241  13.092
43558SOL    HW132513   6.394   8.268  13.048
43558SOL    HW232514   6.445   8.204  13.176
43559SOL     OW32515  11.078   9.343   5.315
43559SOL    HW132516  11.131   9.414   5.279
43559SOL    HW232517  11.036   9.303   5.239
43560SOL     OW32518  11.058   0.705   6.355
43560SOL    HW132519  11.022   0.674   6.439
43560SOL    HW232520  11.127   0.767   6.380
43561SOL     OW32521   0.955   3.509   7.640
43561SOL    HW132522   0.950   3.455   7.719
43561SOL    HW232523   0.915   3.592   7.665
43562SOL     OW32524   9.166   2.027   7.386
43562SOL    HW132525   9.138   2.024   7.295
43562SOL    HW232526   9.235   1.961   7.392
43563SOL     OW32527   9.636   8.699  12.410
43563SOL    HW132528   9.699   8.711  12.339
43563SOL    HW232529   9.642   8.780  12.462
43564SOL     OW32530   5.436   8.454  14.578
43564SOL    HW132531   5.428   8.394  14.504
43564SOL    HW232532   5.529   8.449  14.603
43565SOL     OW32533   8.832  14.851  12.988
43565SOL    HW132534   8.868  14.763  13.004
43565SOL    HW232535   8.737  14.841  13.001
43566SOL     OW32536   3.948   8.204  10.732
43566SOL    HW132537   4.019   8.216  10.795
43566SOL    HW232538   3.868   8.221  10.782
43567SOL     OW32539   5.935   8.443  14.088
43567SOL    HW132540   5.839   8.442  14.078
43567SOL    HW232541   5.966   8.383  14.021
43568SOL     OW32542   3.771   8.381   9.531
43568SOL    HW132543   3.852   8.413   9.570
43568SOL    HW232544   3.795   8.359   9.441
43569SOL     OW32545   7.034   5.411   0.364
43569SOL    HW132546   7.127   5.432   0.371
43569SOL    HW232547   7.030   5.315   0.363
43570SOL     OW32548   1.285   8.009   6.635
43570SOL    HW132549   1.358   8.048   6.587
43570SOL    HW232550   1.208   8.028   6.581
43571SOL     OW32551   6.256   8.862   1.330
43571SOL    HW132552   6.206   8.935   1.368
43571SOL    HW232553   6.225   8.785   1.377
43572SOL     OW32554   8.537  12.969   2.304
43572SOL    HW132555   8.520  12.876   2.314
43572SOL    HW232556   8.472  12.999   2.240
43573SOL     OW32557   3.592   2.153  10.864
43573SOL    HW132558   3.508   2.138  10.907
43573SOL    HW232559   3.587   2.099  10.785
43574SOL     OW32560  12.938   7.258   3.416
43574SOL    HW132561  12.919   7.282   3.325
43574SOL    HW232562  12.852   7.241   3.454
43575SOL     OW32563   1.526  11.407   3.708
43575SOL    HW132564   1.507  11.361   3.790
43575SOL    HW232565   1.463  11.371   3.646
43576SOL     OW32566   2.101   8.670   3.551
43576SOL    HW132567   2.175   8.633   3.502
43576SOL    HW232568   2.140   8.737   3.606
43577SOL     OW32569   0.281   7.707   2.813
43577SOL    HW132570   0.250   7.786   2.858
43577SOL    HW232571   0.357   7.680   2.864
43578SOL     OW32572   2.878   4.140   5.799
43578SOL    HW132573   2.829   4.059   5.787
43578SOL    HW232574   2.961   4.112   5.837
43579SOL     OW32575   3.295  11.881   4.899
43579SOL    HW132576   3.389  11.871   4.913
43579SOL    HW232577   3.285  11.882   4.804
43580SOL     OW32578   1.897   7.861   0.781
43580SOL    HW132579   1.823   7.801   0.767
43580SOL    HW232580   1.892   7.883   0.875
43581SOL     OW32581   0.682   5.992  11.695
43581SOL    HW132582   0.774   5.981  11.671
43581SOL    HW232583   0.642   5.907  11.677
43582SOL     OW32584  13.031   9.718   0.300
43582SOL    HW132585  12.999   9.730   0.389
43582SOL    HW232586  13.062   9.804   0.273
43583SOL     OW32587  13.927   5.549   6.464
43583SOL    HW132588  13.843   5.519   6.499
43583SOL    HW232589  13.939   5.636   6.503
43584SOL     OW32590  13.837   5.239   5.406
43584SOL    HW132591  13.769   5.177   5.378
43584SOL    HW232592  13.839   5.231   5.501
43585SOL     OW32593   9.784   8.929  13.322
43585SOL    HW132594   9.705   8.876  13.337
43585SOL    HW232595   9.845   8.869  13.280
43586SOL     OW32596   3.790   6.573   3.924
43586SOL    HW132597   3.823   6.535   3.843
43586SOL    HW232598   3.832   6.658   3.930
43587SOL     OW32599   3.469   3.366   4.851
43587SOL    HW132600   3.465   3.366   4.947
43587SOL    HW232601   3.498   3.454   4.828
43588SOL     OW32602   7.100  11.719   7.601
43588SOL    HW132603   7.038  11.755   7.664
43588SOL    HW232604   7.180  11.770   7.614
43589SOL     OW32605   5.518   4.153  13.234
43589SOL    HW132606   5.475   4.203  13.303
43589SOL    HW232607   5.607   4.189  13.230
43590SOL     OW32608   1.263   8.002   5.545
43590SOL    HW132609   1.221   8.017   5.629
43590SOL    HW232610   1.247   8.081   5.495
43591SOL     OW32611   8.557   6.444   5.803
43591SOL    HW132612   8.638   6.455   5.853
43591SOL    HW232613   8.536   6.533   5.774
43592SOL     OW32614   0.660  13.047   8.424
43592SOL    HW132615   0.704  12.986   8.365
43592SOL    HW232616   0.634  12.992   8.499
43593SOL     OW32617  10.043   1.484   8.714
43593SOL    HW132618  10.096   1.438   8.649
43593SOL    HW232619   9.953   1.461   8.691
43594SOL     OW32620   0.475   0.549   3.080
43594SOL    HW132621   0.501   0.572   3.169
43594SOL    HW232622   0.548   0.580   3.025
43595SOL     OW32623   2.262   2.023  13.208
43595SOL    HW132624   2.241   1.929  13.203
43595SOL    HW232625   2.357   2.027  13.194
43596SOL     OW32626  13.885   7.352   4.534
43596SOL    HW132627  13.848   7.426   4.485
43596SOL    HW232628  13.826   7.341   4.609
43597SOL     OW32629  11.379  12.630  12.566
43597SOL    HW132630  11.397  12.575  12.489
43597SOL    HW232631  11.417  12.715  12.544
43598SOL     OW32632   8.298   3.711   1.176
43598SOL    HW132633   8.308   3.775   1.246
43598SOL    HW232634   8.295   3.626   1.220
43599SOL     OW32635   4.414   9.292  11.143
43599SOL    HW132636   4.422   9.388  11.137
43599SOL    HW232637   4.375   9.278  11.229
43600SOL     OW32638  10.358  12.600  10.196
43600SOL    HW132639  10.412  12.555  10.131
43600SOL    HW232640  10.368  12.693  10.176
43601SOL     OW32641   1.601   0.481   5.356
43601SOL    HW132642   1.676   0.522   5.398
43601SOL    HW232643   1.527   0.538   5.376
43602SOL     OW32644   0.254  11.103   9.225
43602SOL    HW132645   0.209  11.043   9.284
43602SOL    HW232646   0.200  11.104   9.146
43603SOL     OW32647   8.212   0.573   4.542
43603SOL    HW132648   8.152   0.543   4.475
43603SOL    HW232649   8.278   0.504   4.548
43604SOL     OW32650   9.820   2.056   3.745
43604SOL    HW132651   9.793   1.975   3.787
43604SOL    HW232652   9.916   2.050   3.740
43605SOL     OW32653  11.008  10.110   2.867
43605SOL    HW132654  10.952  10.109   2.945
43605SOL    HW232655  11.029  10.203   2.853
43606SOL     OW32656   8.818   9.397   2.109
43606SOL    HW132657   8.880   9.461   2.075
43606SOL    HW232658   8.735   9.419   2.067
43607SOL     OW32659   4.482  14.641  10.657
43607SOL    HW132660   4.568  14.669  10.624
43607SOL    HW232661   4.449  14.581  10.590
43608SOL     OW32662   4.451   3.354  12.224
43608SOL    HW132663   4.497   3.321  12.147
43608SOL    HW232664   4.401   3.429  12.192
43609SOL     OW32665  10.904   2.323   3.266
43609SOL    HW132666  10.926   2.266   3.193
43609SOL    HW232667  10.962   2.295   3.337
43610SOL     OW32668   2.433   1.586   0.164
43610SOL    HW132669   2.441   1.491   0.164
43610SOL    HW232670   2.515   1.617   0.125
43611SOL     OW32671   9.410  10.576   2.794
43611SOL    HW132672   9.348  10.584   2.722
43611SOL    HW232673   9.396  10.488   2.828
43612SOL     OW32674   8.437  12.047   1.749
43612SOL    HW132675   8.365  11.995   1.712
43612SOL    HW232676   8.503  12.048   1.680
43613SOL     OW32677  11.745   4.865   8.473
43613SOL    HW132678  11.664   4.818   8.493
43613SOL    HW232679  11.772   4.902   8.557
43614SOL     OW32680   0.326  14.154  14.100
43614SOL    HW132681   0.314  14.188  14.188
43614SOL    HW232682   0.324  14.232  14.044
43615SOL     OW32683   3.677   1.454  12.500
43615SOL    HW132684   3.590   1.455  12.461
43615SOL    HW232685   3.706   1.545  12.497
43616SOL     OW32686   5.764   5.557   6.278
43616SOL    HW132687   5.706   5.505   6.333
43616SOL    HW232688   5.851   5.546   6.317
43617SOL     OW32689   2.577   1.858  13.370
43617SOL    HW132690   2.490   1.888  13.398
43617SOL    HW232691   2.637   1.894  13.436
43618SOL     OW32692  11.742   1.089   4.474
43618SOL    HW132693  11.701   1.017   4.521
43618SOL    HW232694  11.812   1.119   4.532
43619SOL     OW32695  10.507  12.448  10.057
43619SOL    HW132696  10.574  12.413   9.999
43619SOL    HW232697  10.457  12.372  10.085
43620SOL     OW32698  10.972   8.932   6.951
43620SOL    HW132699  10.994   8.907   7.041
43620SOL    HW232700  11.041   8.992   6.924
43621SOL     OW32701  11.801   7.768  13.640
43621SOL    HW132702  11.842   7.763  13.726
43621SOL    HW232703  11.845   7.842  13.597
43622SOL     OW32704   7.683   1.600  10.367
43622SOL    HW132705   7.644   1.687  10.356
43622SOL    HW232706   7.774   1.617  10.391
43623SOL     OW32707   8.173   3.432   7.337
43623SOL    HW132708   8.088   3.396   7.362
43623SOL    HW232709   8.170   3.523   7.366
43624SOL     OW32710   2.322   4.652   6.389
43624SOL    HW132711   2.258   4.611   6.331
43624SOL    HW232712   2.275   4.663   6.472
43625SOL     OW32713   0.445   0.856   6.937
43625SOL    HW132714   0.513   0.921   6.954
43625SOL    HW232715   0.370   0.906   6.905
43626SOL     OW32716   5.227  14.348  11.040
43626SOL    HW132717   5.246  14.344  10.947
43626SOL    HW232718   5.211  14.440  11.058
43627SOL     OW32719  13.129   0.742   6.388
43627SOL    HW132720  13.142   0.764   6.480
43627SOL    HW232721  13.096   0.653   6.388
43628SOL     OW32722   4.312   9.173  10.685
43628SOL    HW132723   4.358   9.111  10.742
43628SOL    HW232724   4.362   9.254  10.693
43629SOL     OW32725   3.127   1.837  10.083
43629SOL    HW132726   3.116   1.834  10.178
43629SOL    HW232727   3.048   1.881  10.051
43630SOL     OW32728  12.298  13.174   6.185
43630SOL    HW132729  12.224  13.224   6.221
43630SOL    HW232730  12.327  13.120   6.259
43631SOL     OW32731  11.474   2.191  12.562
43631SOL    HW132732  11.512   2.200  12.474
43631SOL    HW232733  11.400   2.132  12.550
43632SOL     OW32734   8.523   1.193   5.987
43632SOL    HW132735   8.606   1.239   5.988
43632SOL    HW232736   8.545   1.104   5.958
43633SOL     OW32737  14.724   1.017  11.867
43633SOL    HW132738  14.649   0.957  11.864
43633SOL    HW232739  14.799   0.960  11.887
43634SOL     OW32740  12.873   6.307   7.697
43634SOL    HW132741  12.948   6.344   7.743
43634SOL    HW232742  12.908   6.232   7.649
43635SOL     OW32743   7.104  10.670  10.445
43635SOL    HW132744   7.104  10.574  10.454
43635SOL    HW232745   7.181  10.698  10.496
43636SOL     OW32746  12.371   9.382  12.612
43636SOL    HW132747  12.462   9.408  12.612
43636SOL    HW232748  12.365   9.317  12.682
43637SOL     OW32749   2.940  11.147  13.398
43637SOL    HW132750   2.919  11.181  13.485
43637SOL    HW232751   2.963  11.055  13.414
43638SOL     OW32752  12.999   7.408  13.271
43638SOL    HW132753  13.008   7.458  13.353
43638SOL    HW232754  12.920   7.355  13.284
43639SOL     OW32755   8.643   3.406   4.333
43639SOL    HW132756   8.723   3.355   4.344
43639SOL    HW232757   8.632   3.452   4.417
43640SOL     OW32758  13.952   7.684  14.361
43640SOL    HW132759  14.024   7.694  14.299
43640SOL    HW232760  13.975   7.742  14.433
43641SOL     OW32761  14.394   4.902  11.195
43641SOL    HW132762  14.440   4.985  11.199
43641SOL    HW232763  14.319   4.913  11.254
43642SOL     OW32764  14.245   9.063   1.438
43642SOL    HW132765  14.169   9.042   1.383
43642SOL    HW232766  14.301   8.986   1.433
43643SOL     OW32767  10.822  12.659  14.748
43643SOL    HW132768  10.900  12.644  14.801
43643SOL    HW232769  10.824  12.752  14.729
43644SOL     OW32770   9.495  12.435   1.665
43644SOL    HW132771   9.581  12.409   1.631
43644SOL    HW232772   9.475  12.516   1.619
43645SOL     OW32773  14.611  11.257   6.871
43645SOL    HW132774  14.594  11.270   6.778
43645SOL    HW232775  14.706  11.247   6.877
43646SOL     OW32776   1.087   0.798   6.062
43646SOL    HW132777   1.004   0.769   6.099
43646SOL    HW232778   1.150   0.787   6.134
43647SOL     OW32779   6.335   0.415   5.245
43647SOL    HW132780   6.414   0.433   5.195
43647SOL    HW232781   6.344   0.468   5.324
43648SOL     OW32782  11.155   3.170   3.731
43648SOL    HW132783  11.096   3.160   3.806
43648SOL    HW232784  11.162   3.265   3.720
43649SOL     OW32785   4.073   5.250  14.064
43649SOL    HW132786   4.143   5.252  13.999
43649SOL    HW232787   4.016   5.179  14.035
43650SOL     OW32788   0.377   6.940   0.756
43650SOL    HW132789   0.371   6.871   0.689
43650SOL    HW232790   0.426   7.010   0.714
43651SOL     OW32791  11.315   5.186  13.514
43651SOL    HW132792  11.403   5.148  13.516
43651SOL    HW232793  11.277   5.155  13.432
43652SOL     OW32794   0.884   6.691  14.088
43652SOL    HW132795   0.817   6.658  14.147
43652SOL    HW232796   0.914   6.772  14.129
43653SOL     OW32797   7.256   2.963   4.365
43653SOL    HW132798   7.254   2.989   4.457
43653SOL    HW232799   7.338   2.915   4.355
43654SOL     OW32800   0.578  13.380   3.003
43654SOL    HW132801   0.592  13.288   3.027
43654SOL    HW232802   0.567  13.379   2.908
43655SOL     OW32803  13.600  11.217   5.227
43655SOL    HW132804  13.583  11.203   5.320
43655SOL    HW232805  13.563  11.140   5.184
43656SOL     OW32806  14.168   2.945  14.376
43656SOL    HW132807  14.183   2.967  14.468
43656SOL    HW232808  14.193   2.853  14.370
43657SOL     OW32809   0.066   0.517   7.483
43657SOL    HW132810   0.044   0.577   7.555
43657SOL    HW232811   0.105   0.574   7.416
43658SOL     OW32812   6.337   5.422   0.218
43658SOL    HW132813   6.262   5.402   0.161
43658SOL    HW232814   6.347   5.517   0.212
43659SOL     OW32815   2.269   2.804   4.612
43659SOL    HW132816   2.205   2.870   4.640
43659SOL    HW232817   2.247   2.726   4.661
43660SOL     OW32818   8.324   3.892   1.397
43660SOL    HW132819   8.419   3.899   1.411
43660SOL    HW232820   8.298   3.977   1.362
43661SOL     OW32821  13.528   9.125   9.023
43661SOL    HW132822  13.545   9.114   9.116
43661SOL    HW232823  13.582   9.200   8.997
43662SOL     OW32824  12.522  11.184   7.426
43662SOL    HW132825  12.460  11.154   7.491
43662SOL    HW232826  12.592  11.225   7.476
43663SOL     OW32827  14.157   1.164   8.186
43663SOL    HW132828  14.128   1.116   8.264
43663SOL    HW232829  14.246   1.191   8.207
43664SOL     OW32830   4.098   6.686   4.821
43664SOL    HW132831   4.156   6.630   4.770
43664SOL    HW232832   4.075   6.757   4.761
43665SOL     OW32833  11.455   1.505   2.239
43665SOL    HW132834  11.442   1.427   2.185
43665SOL    HW232835  11.468   1.576   2.176
43666SOL     OW32836  11.926  12.334  14.186
43666SOL    HW132837  11.853  12.381  14.146
43666SOL    HW232838  11.885  12.259  14.230
43667SOL     OW32839  13.876  12.920  12.174
43667SOL    HW132840  13.857  12.864  12.099
43667SOL    HW232841  13.957  12.966  12.150
43668SOL     OW32842   8.165  11.719   2.594
43668SOL    HW132843   8.257  11.693   2.597
43668SOL    HW232844   8.154  11.761   2.508
43669SOL     OW32845   4.073  13.304  14.083
43669SOL    HW132846   4.033  13.299  14.170
43669SOL    HW232847   4.000  13.323  14.024
43670SOL     OW32848   3.244  13.459  12.231
43670SOL    HW132849   3.269  13.543  12.269
43670SOL    HW232850   3.195  13.483  12.152
43671SOL     OW32851  13.013   7.741  14.781
43671SOL    HW132852  12.964   7.803  14.727
43671SOL    HW232853  13.012   7.659  14.731
43672SOL     OW32854   4.954   5.116   1.032
43672SOL    HW132855   4.928   5.031   0.996
43672SOL    HW232856   4.925   5.114   1.123
43673SOL     OW32857   8.262   3.580   5.260
43673SOL    HW132858   8.279   3.491   5.289
43673SOL    HW232859   8.208   3.618   5.330
43674SOL     OW32860   1.720  10.434   0.512
43674SOL    HW132861   1.663  10.428   0.589
43674SOL    HW232862   1.710  10.524   0.482
43675SOL     OW32863   8.950   3.786   4.554
43675SOL    HW132864   8.875   3.726   4.561
43675SOL    HW232865   9.017   3.736   4.509
43676SOL     OW32866   1.906  11.577  11.496
43676SOL    HW132867   1.870  11.620  11.574
43676SOL    HW232868   1.976  11.522  11.530
43677SOL     OW32869   8.393  13.747  14.101
43677SOL    HW132870   8.415  13.657  14.125
43677SOL    HW232871   8.429  13.758  14.013
43678SOL     OW32872  10.617   7.233  11.165
43678SOL    HW132873  10.666   7.267  11.239
43678SOL    HW232874  10.534   7.203  11.202
43679SOL     OW32875   4.036  11.572   7.587
43679SOL    HW132876   4.029  11.586   7.681
43679SOL    HW232877   4.078  11.651   7.553
43680SOL     OW32878   5.029   2.989  13.524
43680SOL    HW132879   4.980   2.912  13.494
43680SOL    HW232880   4.966   3.039  13.576
43681SOL     OW32881   8.658   8.489   4.824
43681SOL    HW132882   8.657   8.395   4.845
43681SOL    HW232883   8.635   8.532   4.906
43682SOL     OW32884   8.722   8.040  13.263
43682SOL    HW132885   8.674   7.993  13.331
43682SOL    HW232886   8.802   7.990  13.251
43683SOL     OW32887   5.678   4.001   7.963
43683SOL    HW132888   5.616   4.073   7.960
43683SOL    HW232889   5.625   3.924   7.982
43684SOL     OW32890   9.192   5.113   1.848
43684SOL    HW132891   9.148   5.131   1.931
43684SOL    HW232892   9.231   5.026   1.859
43685SOL     OW32893   8.614  11.350   9.982
43685SOL    HW132894   8.677  11.350   9.910
43685SOL    HW232895   8.667  11.361  10.061
43686SOL     OW32896   7.044   4.564   7.115
43686SOL    HW132897   7.096   4.558   7.196
43686SOL    HW232898   6.953   4.560   7.144
43687SOL     OW32899   3.900  14.348   2.066
43687SOL    HW132900   3.985  14.335   2.107
43687SOL    HW232901   3.841  14.290   2.114
43688SOL     OW32902  14.674   3.513  12.366
43688SOL    HW132903  14.697   3.517  12.273
43688SOL    HW232904  14.755   3.538  12.411
43689SOL     OW32905   4.355   2.150   1.592
43689SOL    HW132906   4.416   2.076   1.586
43689SOL    HW232907   4.365   2.196   1.509
43690SOL     OW32908   5.957   4.743   9.972
43690SOL    HW132909   5.923   4.672   9.918
43690SOL    HW232910   5.998   4.699  10.046
43691SOL     OW32911  10.113   6.942   8.150
43691SOL    HW132912  10.100   6.957   8.244
43691SOL    HW232913  10.039   6.888   8.124
43692SOL     OW32914   9.855   8.942   5.952
43692SOL    HW132915   9.816   8.861   5.983
43692SOL    HW232916   9.939   8.947   5.998
43693SOL     OW32917   2.429   4.753  10.721
43693SOL    HW132918   2.437   4.796  10.806
43693SOL    HW232919   2.347   4.704  10.726
43694SOL     OW32920   2.318  13.224  10.518
43694SOL    HW132921   2.390  13.201  10.459
43694SOL    HW232922   2.358  13.281  10.584
43695SOL     OW32923   6.128  10.883   8.841
43695SOL    HW132924   6.201  10.822   8.854
43695SOL    HW232925   6.050  10.828   8.840
43696SOL     OW32926   9.616   8.766   0.260
43696SOL    HW132927   9.607   8.795   0.351
43696SOL    HW232928   9.533   8.721   0.241
43697SOL     OW32929  11.976   7.477  13.345
43697SOL    HW132930  11.958   7.565  13.313
43697SOL    HW232931  11.921   7.467  13.422
43698SOL     OW32932   0.008   8.664   4.289
43698SOL    HW132933   0.068   8.590   4.275
43698SOL    HW232934  14.815   8.653   4.221
43699SOL     OW32935  14.478  13.970   3.610
43699SOL    HW132936  14.415  13.920   3.663
43699SOL    HW232937  14.562  13.927   3.626
43700SOL     OW32938   8.380  12.073  10.979
43700SOL    HW132939   8.289  12.043  10.974
43700SOL    HW232940   8.374  12.167  10.991
43701SOL     OW32941  12.038  13.668  10.970
43701SOL    HW132942  11.964  13.688  10.913
43701SOL    HW232943  12.100  13.622  10.912
43702SOL     OW32944   3.969   1.373  13.445
43702SOL    HW132945   3.911   1.447  13.463
43702SOL    HW232946   3.986   1.379  13.351
43703SOL     OW32947   0.267   6.812   7.285
43703SOL    HW132948   0.338   6.869   7.254
43703SOL    HW232949   0.189   6.844   7.238
43704SOL     OW32950  13.048   6.632   9.360
43704SOL    HW132951  12.962   6.637   9.318
43704SOL    HW232952  13.029   6.624   9.453
43705SOL     OW32953   9.463   6.304   9.531
43705SOL    HW132954   9.471   6.398   9.546
43705SOL    HW232955   9.403   6.296   9.457
43706SOL     OW32956  12.956   1.291   5.513
43706SOL    HW132957  12.883   1.350   5.531
43706SOL    HW232958  13.028   1.326   5.564
43707SOL     OW32959  14.461   2.168   3.464
43707SOL    HW132960  14.434   2.121   3.385
43707SOL    HW232961  14.464   2.101   3.532
43708SOL     OW32962   1.314  10.875  12.624
43708SOL    HW132963   1.264  10.845  12.700
43708SOL    HW232964   1.249  10.917  12.567
43709SOL     OW32965   5.038  12.061  13.765
43709SOL    HW132966   5.003  12.011  13.839
43709SOL    HW232967   5.133  12.051  13.772
43710SOL     OW32968   8.216   7.060  11.723
43710SOL    HW132969   8.279   7.043  11.653
43710SOL    HW232970   8.267   7.049  11.804
43711SOL     OW32971  12.587  13.210   1.722
43711SOL    HW132972  12.654  13.275   1.703
43711SOL    HW232973  12.538  13.200   1.640
43712SOL     OW32974  11.879   4.817  14.189
43712SOL    HW132975  11.929   4.875  14.246
43712SOL    HW232976  11.898   4.848  14.100
43713SOL     OW32977   2.593   4.834  11.445
43713SOL    HW132978   2.629   4.805  11.361
43713SOL    HW232979   2.517   4.886  11.422
43714SOL     OW32980   4.116  12.674   0.862
43714SOL    HW132981   4.097  12.585   0.834
43714SOL    HW232982   4.071  12.729   0.797
43715SOL     OW32983   3.031   3.482  10.641
43715SOL    HW132984   2.976   3.438  10.705
43715SOL    HW232985   3.070   3.555  10.690
43716SOL     OW32986   4.415   9.869   3.863
43716SOL    HW132987   4.443   9.843   3.775
43716SOL    HW232988   4.319   9.873   3.857
43717SOL     OW32989   7.246  11.246   0.256
43717SOL    HW132990   7.189  11.253   0.179
43717SOL    HW232991   7.322  11.300   0.234
43718SOL     OW32992   6.116  12.101  14.246
43718SOL    HW132993   6.063  12.170  14.207
43718SOL    HW232994   6.186  12.086  14.182
43719SOL     OW32995   8.191   8.069   4.737
43719SOL    HW132996   8.244   8.079   4.816
43719SOL    HW232997   8.151   7.982   4.746
43720SOL     OW32998   3.251  12.328   4.507
43720SOL    HW132999   3.263  12.256   4.445
43720SOL    HW233000   3.290  12.404   4.464
43721SOL     OW33001  11.023   0.762   9.997
43721SOL    HW133002  11.094   0.805   9.950
43721SOL    HW233003  11.048   0.769  10.089
43722SOL     OW33004  14.095   3.486  14.813
43722SOL    HW133005  14.119   3.571  14.849
43722SOL    HW233006  14.104   3.425   0.012
43723SOL     OW33007   3.983  13.857   7.802
43723SOL    HW133008   4.053  13.792   7.802
43723SOL    HW233009   3.925  13.829   7.873
43724SOL     OW33010   9.682   9.373   3.747
43724SOL    HW133011   9.761   9.363   3.800
43724SOL    HW233012   9.701   9.323   3.667
43725SOL     OW33013  11.338   0.269   8.199
43725SOL    HW133014  11.402   0.278   8.128
43725SOL    HW233015  11.378   0.315   8.273
43726SOL     OW33016  10.737  10.547  14.369
43726SOL    HW133017  10.800  10.479  14.391
43726SOL    HW233018  10.695  10.568  14.452
43727SOL     OW33019  10.177   8.994   2.691
43727SOL    HW133020  10.252   9.014   2.746
43727SOL    HW233021  10.108   9.054   2.720
43728SOL     OW33022   6.164   7.092  13.108
43728SOL    HW133023   6.125   7.030  13.047
43728SOL    HW233024   6.192   7.038  13.182
43729SOL     OW33025   3.634   2.867  14.536
43729SOL    HW133026   3.545   2.860  14.502
43729SOL    HW233027   3.627   2.835  14.627
43730SOL     OW33028   3.409   1.844  12.995
43730SOL    HW133029   3.451   1.811  13.075
43730SOL    HW233030   3.480   1.887  12.947
43731SOL     OW33031  13.162   1.672   8.129
43731SOL    HW133032  13.152   1.749   8.185
43731SOL    HW233033  13.123   1.601   8.180
43732SOL     OW33034   2.025   8.184   4.836
43732SOL    HW133035   2.066   8.106   4.800
43732SOL    HW233036   2.000   8.236   4.760
43733SOL     OW33037   5.005   1.708   2.201
43733SOL    HW133038   4.977   1.794   2.232
43733SOL    HW233039   4.932   1.650   2.223
43734SOL     OW33040  12.601   6.097   4.490
43734SOL    HW133041  12.608   6.012   4.534
43734SOL    HW233042  12.688   6.112   4.453
43735SOL     OW33043   6.039  10.364   1.827
43735SOL    HW133044   5.963  10.310   1.805
43735SOL    HW233045   6.040  10.433   1.760
43736SOL     OW33046  11.681   6.215   1.043
43736SOL    HW133047  11.606   6.256   1.001
43736SOL    HW233048  11.732   6.177   0.971
43737SOL     OW33049  14.135   2.983   1.028
43737SOL    HW133050  14.085   2.908   0.999
43737SOL    HW233051  14.074   3.057   1.023
43738SOL     OW33052   8.142   3.024  10.888
43738SOL    HW133053   8.070   3.070  10.930
43738SOL    HW233054   8.151   3.067  10.803
43739SOL     OW33055   8.675   4.388   7.446
43739SOL    HW133056   8.639   4.363   7.361
43739SOL    HW233057   8.605   4.369   7.508
43740SOL     OW33058   0.705   6.410   0.237
43740SOL    HW133059   0.728   6.318   0.227
43740SOL    HW233060   0.704   6.444   0.148
43741SOL     OW33061   8.947  13.931  13.412
43741SOL    HW133062   8.908  13.966  13.332
43741SOL    HW233063   8.970  14.008  13.464
43742SOL     OW33064   0.112   1.356   7.489
43742SOL    HW133065   0.110   1.323   7.579
43742SOL    HW233066   0.030   1.405   7.480
43743SOL     OW33067   5.709   9.942  14.546
43743SOL    HW133068   5.696  10.005  14.475
43743SOL    HW233069   5.634   9.884  14.541
43744SOL     OW33070   5.070   9.877   0.989
43744SOL    HW133071   5.161   9.850   0.975
43744SOL    HW233072   5.073   9.933   1.067
43745SOL     OW33073  13.756   6.236  11.725
43745SOL    HW133074  13.765   6.155  11.775
43745SOL    HW233075  13.759   6.208  11.633
43746SOL     OW33076  10.212   4.341  11.457
43746SOL    HW133077  10.216   4.295  11.373
43746SOL    HW233078  10.259   4.283  11.518
43747SOL     OW33079   0.051  10.233  11.112
43747SOL    HW133080   0.008  10.149  11.096
43747SOL    HW233081  14.856  10.298  11.100
43748SOL     OW33082  14.699  13.462  10.153
43748SOL    HW133083  14.692  13.511  10.071
43748SOL    HW233084  14.767  13.397  10.137
43749SOL     OW33085  11.207  13.506   7.187
43749SOL    HW133086  11.124  13.543   7.158
43749SOL    HW233087  11.206  13.517   7.282
43750SOL     OW33088  13.593   7.697   6.989
43750SOL    HW133089  13.537   7.714   6.913
43750SOL    HW233090  13.667   7.648   6.953
43751SOL     OW33091   8.721  11.702   3.211
43751SOL    HW133092   8.665  11.703   3.289
43751SOL    HW233093   8.804  11.737   3.241
43752SOL     OW33094   3.483   2.969   9.780
43752SOL    HW133095   3.479   2.916   9.701
43752SOL    HW233096   3.474   3.059   9.748
43753SOL     OW33097   4.999   4.819  10.551
43753SOL    HW133098   5.089   4.837  10.524
43753SOL    HW233099   4.951   4.898  10.527
43754SOL     OW33100  10.910   6.696  12.207
43754SOL    HW133101  11.003   6.711  12.192
43754SOL    HW233102  10.903   6.684  12.302
43755SOL     OW33103   0.812   5.348   4.782
43755SOL    HW133104   0.850   5.399   4.854
43755SOL    HW233105   0.844   5.259   4.796
43756SOL     OW33106   4.303  14.782   4.723
43756SOL    HW133107   4.306  14.793   4.628
43756SOL    HW233108   4.370  14.716   4.742
43757SOL     OW33109   9.949   1.650  11.998
43757SOL    HW133110   9.980   1.577  12.050
43757SOL    HW233111   9.864   1.622  11.965
43758SOL     OW33112   5.635   3.124   1.049
43758SOL    HW133113   5.729   3.145   1.058
43758SOL    HW233114   5.590   3.202   1.080
43759SOL     OW33115   5.206   6.201   3.586
43759SOL    HW133116   5.292   6.183   3.549
43759SOL    HW233117   5.213   6.175   3.678
43760SOL     OW33118   5.733   9.625   6.728
43760SOL    HW133119   5.715   9.639   6.635
43760SOL    HW233120   5.708   9.706   6.770
43761SOL     OW33121   5.666  12.659   6.283
43761SOL    HW133122   5.621  12.724   6.230
43761SOL    HW233123   5.600  12.631   6.347
43762SOL     OW33124   9.325   1.258   3.509
43762SOL    HW133125   9.338   1.304   3.427
43762SOL    HW233126   9.231   1.265   3.527
43763SOL     OW33127   5.236   2.035   1.325
43763SOL    HW133128   5.301   2.089   1.369
43763SOL    HW233129   5.223   2.077   1.240
43764SOL     OW33130  10.305  12.268  11.156
43764SOL    HW133131  10.295  12.332  11.086
43764SOL    HW233132  10.373  12.208  11.124
43765SOL     OW33133   2.048  10.891   4.965
43765SOL    HW133134   1.993  10.881   5.042
43765SOL    HW233135   1.987  10.884   4.891
43766SOL     OW33136  14.673   0.124   4.709
43766SOL    HW133137  14.619   0.045   4.711
43766SOL    HW233138  14.749   0.099   4.656
43767SOL     OW33139   2.598   1.400  13.189
43767SOL    HW133140   2.674   1.455  13.173
43767SOL    HW233141   2.629   1.310  13.176
43768SOL     OW33142  13.511  12.497   2.579
43768SOL    HW133143  13.511  12.556   2.654
43768SOL    HW233144  13.497  12.410   2.616
43769SOL     OW33145  12.704   9.301   6.874
43769SOL    HW133146  12.775   9.241   6.895
43769SOL    HW233147  12.641   9.248   6.825
43770SOL     OW33148  13.052   7.253  14.062
43770SOL    HW133149  12.994   7.327  14.073
43770SOL    HW233150  13.039   7.200  14.141
43771SOL     OW33151   4.893   4.986  14.183
43771SOL    HW133152   4.871   5.077  14.206
43771SOL    HW233153   4.871   4.936  14.262
43772SOL     OW33154   2.679   8.389   6.405
43772SOL    HW133155   2.705   8.455   6.469
43772SOL    HW233156   2.661   8.439   6.325
43773SOL     OW33157  11.875  14.519   8.793
43773SOL    HW133158  11.894  14.537   8.885
43773SOL    HW233159  11.918  14.435   8.776
43774SOL     OW33160   4.758   5.144  12.615
43774SOL    HW133161   4.719   5.230  12.633
43774SOL    HW233162   4.703   5.083  12.665
43775SOL     OW33163   1.321   0.020  11.218
43775SOL    HW133164   1.364  14.852  11.144
43775SOL    HW233165   1.279   0.098  11.180
43776SOL     OW33166  12.025  10.194  11.165
43776SOL    HW133167  12.026  10.107  11.125
43776SOL    HW233168  11.955  10.241  11.120
43777SOL     OW33169  12.903   8.306   1.911
43777SOL    HW133170  12.878   8.244   1.979
43777SOL    HW233171  12.999   8.308   1.914
43778SOL     OW33172   5.188   9.470   4.311
43778SOL    HW133173   5.111   9.444   4.261
43778SOL    HW233174   5.227   9.388   4.341
43779SOL     OW33175   3.769   5.660   3.786
43779SOL    HW133176   3.731   5.738   3.826
43779SOL    HW233177   3.747   5.589   3.845
43780SOL     OW33178   6.725   9.473   6.039
43780SOL    HW133179   6.753   9.461   6.130
43780SOL    HW233180   6.728   9.385   6.002
43781SOL     OW33181  12.838  12.691   0.235
43781SOL    HW133182  12.763  12.751   0.231
43781SOL    HW233183  12.913  12.743   0.206
43782SOL     OW33184   5.647  11.425   3.241
43782SOL    HW133185   5.569  11.410   3.295
43782SOL    HW233186   5.615  11.479   3.169
43783SOL     OW33187  12.982  14.837   7.297
43783SOL    HW133188  12.965   0.004   7.213
43783SOL    HW233189  12.913  14.869   7.355
43784SOL     OW33190   4.778  13.423  14.606
43784SOL    HW133191   4.795  13.337  14.644
43784SOL    HW233192   4.703  13.409  14.548
43785SOL     OW33193   9.709  10.562   2.629
43785SOL    HW133194   9.792  10.564   2.677
43785SOL    HW233195   9.642  10.569   2.697
43786SOL     OW33196  10.377   7.902  10.725
43786SOL    HW133197  10.329   7.918  10.644
43786SOL    HW233198  10.365   7.981  10.777
43787SOL     OW33199   6.209  10.363  12.149
43787SOL    HW133200   6.196  10.362  12.054
43787SOL    HW233201   6.302  10.380  12.160
43788SOL     OW33202  11.710  13.128   1.324
43788SOL    HW133203  11.673  13.177   1.250
43788SOL    HW233204  11.643  13.062   1.343
43789SOL     OW33205   6.259   2.676   1.675
43789SOL    HW133206   6.239   2.703   1.586
43789SOL    HW233207   6.229   2.749   1.730
43790SOL     OW33208   4.938  13.274   0.482
43790SOL    HW133209   5.027  13.311   0.481
43790SOL    HW233210   4.882  13.350   0.498
43791SOL     OW33211   9.436   1.704  12.512
43791SOL    HW133212   9.368   1.768  12.530
43791SOL    HW233213   9.479   1.690  12.596
43792SOL     OW33214   3.716   2.932   3.879
43792SOL    HW133215   3.715   2.858   3.939
43792SOL    HW233216   3.807   2.960   3.877
43793SOL     OW33217  11.099   0.946   9.501
43793SOL    HW133218  11.181   0.990   9.525
43793SOL    HW233219  11.107   0.859   9.538
43794SOL     OW33220  10.558  12.387   3.142
43794SOL    HW133221  10.559  12.483   3.138
43794SOL    HW233222  10.576  12.367   3.233
43795SOL     OW33223   0.580   5.585  10.131
43795SOL    HW133224   0.644   5.516  10.114
43795SOL    HW233225   0.495   5.545  10.113
43796SOL     OW33226   3.987   8.836   2.973
43796SOL    HW133227   4.017   8.927   2.980
43796SOL    HW233228   3.936   8.821   3.053
43797SOL     OW33229   6.524   6.710   4.954
43797SOL    HW133230   6.444   6.669   4.920
43797SOL    HW233231   6.500   6.744   5.040
43798SOL     OW33232   5.691  10.114   8.938
43798SOL    HW133233   5.607  10.149   8.908
43798SOL    HW233234   5.755  10.146   8.874
43799SOL     OW33235   5.842  13.212  13.942
43799SOL    HW133236   5.816  13.236  14.031
43799SOL    HW233237   5.770  13.244  13.886
43800SOL     OW33238   6.439   0.773   4.562
43800SOL    HW133239   6.457   0.867   4.557
43800SOL    HW233240   6.525   0.732   4.551
43801SOL     OW33241   1.834   1.431   4.059
43801SOL    HW133242   1.769   1.362   4.064
43801SOL    HW233243   1.787   1.505   4.019
43802SOL     OW33244  12.364  12.307   2.116
43802SOL    HW133245  12.400  12.221   2.138
43802SOL    HW233246  12.439  12.357   2.085
43803SOL     OW33247  11.342   2.380   5.554
43803SOL    HW133248  11.251   2.352   5.562
43803SOL    HW233249  11.393   2.305   5.587
43804SOL     OW33250  11.666   5.321  11.259
43804SOL    HW133251  11.591   5.263  11.252
43804SOL    HW233252  11.679   5.332  11.354
43805SOL     OW33253  10.403  10.951   2.652
43805SOL    HW133254  10.351  10.920   2.578
43805SOL    HW233255  10.487  10.974   2.614
43806SOL     OW33256   1.685  14.039   4.379
43806SOL    HW133257   1.765  14.002   4.341
43806SOL    HW233258   1.680  14.001   4.467
43807SOL     OW33259   7.880   3.868   7.648
43807SOL    HW133260   7.933   3.918   7.585
43807SOL    HW233261   7.910   3.778   7.639
43808SOL     OW33262  12.872  14.795  10.596
43808SOL    HW133263  12.800  14.733  10.596
43808SOL    HW233264  12.886  14.816  10.504
43809SOL     OW33265  11.612  11.055  14.405
43809SOL    HW133266  11.548  10.997  14.364
43809SOL    HW233267  11.668  10.997  14.456
43810SOL     OW33268  11.780   7.115   6.638
43810SOL    HW133269  11.790   7.205   6.607
43810SOL    HW233270  11.734   7.070   6.568
43811SOL     OW33271   6.408  11.586   5.293
43811SOL    HW133272   6.358  11.649   5.242
43811SOL    HW233273   6.474  11.553   5.232
43812SOL     OW33274   9.559  11.907   1.224
43812SOL    HW133275   9.579  11.840   1.288
43812SOL    HW233276   9.572  11.865   1.139
43813SOL     OW33277  10.770   2.844  11.158
43813SOL    HW133278  10.682   2.808  11.150
43813SOL    HW233279  10.792   2.834  11.250
43814SOL     OW33280   3.024   6.873   7.703
43814SOL    HW133281   3.102   6.847   7.654
43814SOL    HW233282   2.974   6.792   7.715
43815SOL     OW33283   1.955   4.970  12.127
43815SOL    HW133284   2.027   4.962  12.189
43815SOL    HW233285   1.939   4.881  12.096
43816SOL     OW33286  14.746   8.008   1.112
43816SOL    HW133287  14.678   8.043   1.170
43816SOL    HW233288  14.759   8.076   1.046
43817SOL     OW33289   0.238  14.447  12.145
43817SOL    HW133290   0.281  14.456  12.059
43817SOL    HW233291   0.248  14.533  12.186
43818SOL     OW33292   0.012   7.290   4.747
43818SOL    HW133293   0.086   7.346   4.727
43818SOL    HW233294   0.025   7.212   4.693
43819SOL     OW33295  12.018   6.645  13.886
43819SOL    HW133296  11.970   6.594  13.951
43819SOL    HW233297  12.030   6.585  13.813
43820SOL     OW33298   6.769   5.285   6.041
43820SOL    HW133299   6.860   5.305   6.063
43820SOL    HW233300   6.741   5.359   5.987
43821SOL     OW33301  11.316  14.540   4.507
43821SOL    HW133302  11.245  14.550   4.571
43821SOL    HW233303  11.373  14.474   4.545
43822SOL     OW33304   2.163  12.770   5.922
43822SOL    HW133305   2.150  12.827   5.998
43822SOL    HW233306   2.209  12.694   5.957
43823SOL     OW33307   9.163   4.655   3.202
43823SOL    HW133308   9.246   4.608   3.205
43823SOL    HW233309   9.176   4.733   3.256
43824SOL     OW33310  13.544   6.661  11.340
43824SOL    HW133311  13.635   6.683  11.318
43824SOL    HW233312  13.502   6.644  11.256
43825SOL     OW33313   9.584   3.766  13.313
43825SOL    HW133314   9.673   3.733  13.321
43825SOL    HW233315   9.573   3.824  13.389
43826SOL     OW33316   1.890   5.187   2.971
43826SOL    HW133317   1.955   5.133   3.016
43826SOL    HW233318   1.818   5.126   2.951
43827SOL     OW33319  13.781   7.970   6.843
43827SOL    HW133320  13.790   8.041   6.906
43827SOL    HW233321  13.828   7.896   6.883
43828SOL     OW33322  12.473   4.597  13.101
43828SOL    HW133323  12.451   4.586  13.194
43828SOL    HW233324  12.470   4.691  13.086
43829SOL     OW33325  12.309   5.903  13.018
43829SOL    HW133326  12.322   5.828  12.960
43829SOL    HW233327  12.342   5.873  13.103
43830SOL     OW33328   7.234   7.091  14.204
43830SOL    HW133329   7.262   7.112  14.115
43830SOL    HW233330   7.162   7.030  14.193
43831SOL     OW33331  12.940   7.925   1.220
43831SOL    HW133332  12.985   7.874   1.287
43831SOL    HW233333  12.934   7.866   1.145
43832SOL     OW33334   4.024   5.851  12.644
43832SOL    HW133335   4.056   5.911  12.712
43832SOL    HW233336   3.986   5.908  12.577
43833SOL     OW33337   2.872  10.322   8.815
43833SOL    HW133338   2.812  10.262   8.858
43833SOL    HW233339   2.940  10.339   8.880
43834SOL     OW33340  13.145   3.594   0.450
43834SOL    HW133341  13.142   3.545   0.532
43834SOL    HW233342  13.108   3.680   0.472
43835SOL     OW33343   2.689   8.729   7.466
43835SOL    HW133344   2.678   8.759   7.375
43835SOL    HW233345   2.714   8.637   7.457
43836SOL     OW33346   7.441   5.744  11.760
43836SOL    HW133347   7.530   5.766  11.733
43836SOL    HW233348   7.401   5.702  11.684
43837SOL     OW33349   3.729   9.141   7.793
43837SOL    HW133350   3.823   9.144   7.809
43837SOL    HW233351   3.713   9.052   7.762
43838SOL     OW33352  12.232  11.978   9.621
43838SOL    HW133353  12.292  12.051   9.639
43838SOL    HW233354  12.207  11.946   9.707
43839SOL     OW33355   8.688  14.487   1.960
43839SOL    HW133356   8.631  14.472   1.885
43839SOL    HW233357   8.648  14.437   2.031
43840SOL     OW33358  10.307   1.000   7.675
43840SOL    HW133359  10.325   1.044   7.592
43840SOL    HW233360  10.374   0.932   7.680
43841SOL     OW33361  11.867   8.059   8.213
43841SOL    HW133362  11.926   8.133   8.226
43841SOL    HW233363  11.798   8.072   8.279
43842SOL     OW33364   4.425   5.734   7.253
43842SOL    HW133365   4.458   5.711   7.166
43842SOL    HW233366   4.338   5.694   7.256
43843SOL     OW33367   6.012  12.161   1.201
43843SOL    HW133368   5.937  12.184   1.256
43843SOL    HW233369   5.974  12.131   1.119
43844SOL     OW33370   5.643  14.318  13.465
43844SOL    HW133371   5.731  14.309  13.429
43844SOL    HW233372   5.586  14.275  13.402
43845SOL     OW33373   8.045   4.002  11.048
43845SOL    HW133374   8.034   4.097  11.056
43845SOL    HW233375   8.102   3.978  11.120
43846SOL     OW33376   1.983   2.977   5.527
43846SOL    HW133377   2.024   2.894   5.502
43846SOL    HW233378   2.054   3.027   5.568
43847SOL     OW33379   1.255  14.486   8.894
43847SOL    HW133380   1.285  14.577   8.885
43847SOL    HW233381   1.161  14.492   8.905
43848SOL     OW33382   2.031   3.180   4.159
43848SOL    HW133383   2.004   3.272   4.167
43848SOL    HW233384   2.127   3.184   4.155
43849SOL     OW33385   0.707  12.484  13.935
43849SOL    HW133386   0.638  12.509  13.873
43849SOL    HW233387   0.785  12.474  13.882
43850SOL     OW33388   9.380  10.122  12.033
43850SOL    HW133389   9.347  10.204  12.070
43850SOL    HW233390   9.369  10.058  12.103
43851SOL     OW33391  10.309   2.726   8.918
43851SOL    HW133392  10.287   2.658   8.982
43851SOL    HW233393  10.225   2.769   8.899
43852SOL     OW33394  13.617   1.314  14.664
43852SOL    HW133395  13.675   1.372  14.615
43852SOL    HW233396  13.651   1.317  14.754
43853SOL     OW33397   5.035   9.755   8.349
43853SOL    HW133398   5.100   9.711   8.295
43853SOL    HW233399   5.030   9.844   8.314
43854SOL     OW33400   9.489   6.945  13.716
43854SOL    HW133401   9.556   6.888  13.679
43854SOL    HW233402   9.468   7.006  13.645
43855SOL     OW33403  11.605  13.803  13.815
43855SOL    HW133404  11.543  13.800  13.888
43855SOL    HW233405  11.609  13.896  13.790
43856SOL     OW33406   0.987   4.395   3.334
43856SOL    HW133407   1.064   4.364   3.382
43856SOL    HW233408   0.943   4.455   3.395
43857SOL     OW33409   8.200  12.343   6.314
43857SOL    HW133410   8.271  12.375   6.370
43857SOL    HW233411   8.239  12.334   6.227
43858SOL     OW33412   6.511  14.129   4.368
43858SOL    HW133413   6.498  14.042   4.404
43858SOL    HW233414   6.432  14.178   4.393
43859SOL     OW33415   0.803  14.404  10.448
43859SOL    HW133416   0.833  14.465  10.516
43859SOL    HW233417   0.806  14.456  10.367
43860SOL     OW33418   9.850  10.877  10.436
43860SOL    HW133419   9.825  10.842  10.522
43860SOL    HW233420   9.814  10.965  10.434
43861SOL     OW33421   3.166   8.568   6.330
43861SOL    HW133422   3.221   8.646   6.328
43861SOL    HW233423   3.223   8.497   6.301
43862SOL     OW33424   4.662   6.738   0.114
43862SOL    HW133425   4.738   6.737   0.056
43862SOL    HW233426   4.589   6.766   0.058
43863SOL     OW33427   8.020  11.151   9.247
43863SOL    HW133428   8.009  11.166   9.341
43863SOL    HW233429   8.106  11.111   9.239
43864SOL     OW33430  12.016   5.694   7.323
43864SOL    HW133431  11.969   5.777   7.319
43864SOL    HW233432  12.082   5.700   7.253
43865SOL     OW33433   7.342   9.065   1.586
43865SOL    HW133434   7.292   9.072   1.504
43865SOL    HW233435   7.280   9.028   1.648
43866SOL     OW33436   0.017  11.492   6.935
43866SOL    HW133437   0.086  11.554   6.956
43866SOL    HW233438  14.817  11.546   6.907
43867SOL     OW33439   1.770  10.425   3.867
43867SOL    HW133440   1.694  10.454   3.816
43867SOL    HW233441   1.762  10.330   3.869
43868SOL     OW33442  11.268   4.388   8.839
43868SOL    HW133443  11.201   4.327   8.871
43868SOL    HW233444  11.349   4.358   8.879
43869SOL     OW33445   6.498  12.484   4.250
43869SOL    HW133446   6.475  12.397   4.217
43869SOL    HW233447   6.446  12.494   4.330
43870SOL     OW33448   1.041   5.690  14.272
43870SOL    HW133449   0.966   5.631  14.270
43870SOL    HW233450   1.116   5.635  14.250
43871SOL     OW33451  10.240   0.794  14.434
43871SOL    HW133452  10.256   0.715  14.383
43871SOL    HW233453  10.150   0.818  14.413
43872SOL     OW33454  13.124   4.655   1.353
43872SOL    HW133455  13.209   4.650   1.309
43872SOL    HW233456  13.140   4.712   1.428
43873SOL     OW33457   0.823   3.163  14.257
43873SOL    HW133458   0.730   3.157  14.233
43873SOL    HW233459   0.846   3.076  14.287
43874SOL     OW33460   6.231   2.381  13.590
43874SOL    HW133461   6.145   2.384  13.549
43874SOL    HW233462   6.289   2.346  13.522
43875SOL     OW33463   0.554  11.872   0.512
43875SOL    HW133464   0.507  11.889   0.430
43875SOL    HW233465   0.502  11.917   0.578
43876SOL     OW33466  13.824   1.447   5.983
43876SOL    HW133467  13.913   1.412   5.982
43876SOL    HW233468  13.820   1.503   5.905
43877SOL     OW33469   4.519   3.144   3.465
43877SOL    HW133470   4.463   3.179   3.533
43877SOL    HW233471   4.541   3.219   3.410
43878SOL     OW33472   4.953   6.426  12.550
43878SOL    HW133473   4.884   6.384  12.499
43878SOL    HW233474   4.966   6.511  12.509
43879SOL     OW33475   6.703   7.047   0.389
43879SOL    HW133476   6.642   7.002   0.331
43879SOL    HW233477   6.733   7.122   0.338
43880SOL     OW33478   0.170  12.729   0.894
43880SOL    HW133479   0.174  12.685   0.979
43880SOL    HW233480   0.104  12.679   0.845
43881SOL     OW33481   1.147   1.636  10.767
43881SOL    HW133482   1.076   1.683  10.811
43881SOL    HW233483   1.210   1.704  10.743
43882SOL     OW33484   8.084   7.840  13.857
43882SOL    HW133485   8.133   7.916  13.888
43882SOL    HW233486   8.043   7.804  13.936
43883SOL     OW33487   4.776   1.574   2.243
43883SOL    HW133488   4.790   1.480   2.230
43883SOL    HW233489   4.721   1.601   2.170
43884SOL     OW33490   0.369  11.817   0.151
43884SOL    HW133491   0.323  11.764   0.216
43884SOL    HW233492   0.338  11.784   0.066
43885SOL     OW33493   0.538   0.051   8.927
43885SOL    HW133494   0.622   0.029   8.967
43885SOL    HW233495   0.485  14.846   8.937
43886SOL     OW33496   7.149   7.213  14.427
43886SOL    HW133497   7.187   7.161  14.357
43886SOL    HW233498   7.074   7.162  14.458
43887SOL     OW33499   3.966  13.303   2.246
43887SOL    HW133500   3.937  13.365   2.312
43887SOL    HW233501   4.030  13.352   2.193
43888SOL     OW33502   5.405  14.215  10.795
43888SOL    HW133503   5.345  14.264  10.740
43888SOL    HW233504   5.368  14.126  10.798
43889SOL     OW33505  12.587   9.221   7.398
43889SOL    HW133506  12.520   9.167   7.439
43889SOL    HW233507  12.670   9.182   7.428
43890SOL     OW33508   9.703  12.691  13.807
43890SOL    HW133509   9.717  12.753  13.736
43890SOL    HW233510   9.623  12.720  13.849
43891SOL     OW33511  13.906   0.105   6.733
43891SOL    HW133512  13.837   0.119   6.798
43891SOL    HW233513  13.878   0.027   6.685
43892SOL     OW33514   5.366   4.048  14.044
43892SOL    HW133515   5.439   4.042  14.105
43892SOL    HW233516   5.309   4.115  14.081
43893SOL     OW33517   5.189   6.465   3.519
43893SOL    HW133518   5.193   6.370   3.529
43893SOL    HW233519   5.127   6.494   3.587
43894SOL     OW33520  11.029   2.469  14.021
43894SOL    HW133521  11.099   2.405  14.038
43894SOL    HW233522  11.060   2.550  14.062
43895SOL     OW33523   9.469  10.751  14.550
43895SOL    HW133524   9.447  10.842  14.530
43895SOL    HW233525   9.432  10.736  14.637
43896SOL     OW33526   6.672   5.661   2.129
43896SOL    HW133527   6.581   5.635   2.141
43896SOL    HW233528   6.673   5.708   2.045
43897SOL     OW33529  14.566   7.139   6.926
43897SOL    HW133530  14.580   7.168   7.016
43897SOL    HW233531  14.564   7.043   6.932
43898SOL     OW33532   0.630   3.537  13.521
43898SOL    HW133533   0.606   3.574  13.436
43898SOL    HW233534   0.565   3.468  13.536
43899SOL     OW33535   6.865  11.911   0.461
43899SOL    HW133536   6.775  11.898   0.431
43899SOL    HW233537   6.888  11.827   0.501
43900SOL     OW33538  10.557   9.088   1.610
43900SOL    HW133539  10.583   9.039   1.532
43900SOL    HW233540  10.497   9.029   1.657
43901SOL     OW33541   0.166   9.816   2.954
43901SOL    HW133542   0.232   9.866   3.002
43901SOL    HW233543   0.086   9.827   3.005
43902SOL     OW33544  12.744  14.410   3.311
43902SOL    HW133545  12.709  14.457   3.236
43902SOL    HW233546  12.760  14.477   3.378
43903SOL     OW33547   6.559   3.389  10.126
43903SOL    HW133548   6.531   3.349  10.044
43903SOL    HW233549   6.625   3.328  10.161
43904SOL     OW33550   8.658   3.412  11.977
43904SOL    HW133551   8.741   3.406  11.930
43904SOL    HW233552   8.682   3.411  12.070
43905SOL     OW33553  13.625  11.075   1.075
43905SOL    HW133554  13.614  11.165   1.106
43905SOL    HW233555  13.603  11.020   1.150
43906SOL     OW33556   1.961   1.579  14.584
43906SOL    HW133557   1.967   1.613  14.495
43906SOL    HW233558   2.052   1.562  14.609
43907SOL     OW33559   4.923  12.295   1.225
43907SOL    HW133560   4.862  12.368   1.233
43907SOL    HW233561   4.998  12.320   1.278
43908SOL     OW33562   0.827   8.037  11.866
43908SOL    HW133563   0.746   8.078  11.896
43908SOL    HW233564   0.827   7.951  11.908
43909SOL     OW33565  10.194  12.233  12.611
43909SOL    HW133566  10.100  12.215  12.608
43909SOL    HW233567  10.233  12.163  12.559
43910SOL     OW33568   7.130   3.575  10.279
43910SOL    HW133569   7.038   3.567  10.304
43910SOL    HW233570   7.178   3.569  10.361
43911SOL     OW33571  11.093  14.863   4.117
43911SOL    HW133572  11.148   0.053   4.163
43911SOL    HW233573  11.156  14.807   4.071
43912SOL     OW33574   7.741  10.211  10.039
43912SOL    HW133575   7.674  10.164  10.089
43912SOL    HW233576   7.692  10.252   9.967
43913SOL     OW33577   0.680   7.137   6.609
43913SOL    HW133578   0.704   7.115   6.519
43913SOL    HW233579   0.760   7.124   6.660
43914SOL     OW33580  10.940   0.287   1.911
43914SOL    HW133581  10.960   0.194   1.923
43914SOL    HW233582  11.026   0.328   1.905
43915SOL     OW33583   8.817   2.727   8.746
43915SOL    HW133584   8.786   2.644   8.783
43915SOL    HW233585   8.897   2.747   8.795
43916SOL     OW33586   1.142   9.176   3.025
43916SOL    HW133587   1.102   9.165   3.112
43916SOL    HW233588   1.160   9.087   2.995
43917SOL     OW33589   0.748   4.606  11.687
43917SOL    HW133590   0.833   4.648  11.702
43917SOL    HW233591   0.771   4.516  11.664
43918SOL     OW33592   8.307  11.815   6.612
43918SOL    HW133593   8.381  11.784   6.664
43918SOL    HW233594   8.346  11.858   6.537
43919SOL     OW33595   0.264   0.956  12.307
43919SOL    HW133596   0.207   0.910  12.369
43919SOL    HW233597   0.235   1.047  12.311
43920SOL     OW33598   2.727  11.858  12.233
43920SOL    HW133599   2.756  11.949  12.242
43920SOL    HW233600   2.642  11.855  12.277
43921SOL     OW33601  14.773   6.794   5.164
43921SOL    HW133602  14.864   6.824   5.157
43921SOL    HW233603  14.723   6.875   5.178
43922SOL     OW33604  13.877   6.736  13.429
43922SOL    HW133605  13.843   6.817  13.466
43922SOL    HW233606  13.888   6.677  13.504
43923SOL     OW33607   5.353   1.331  12.380
43923SOL    HW133608   5.309   1.302  12.301
43923SOL    HW233609   5.292   1.310  12.451
43924SOL     OW33610   6.606   2.961   6.548
43924SOL    HW133611   6.555   3.029   6.504
43924SOL    HW233612   6.657   2.920   6.478
43925SOL     OW33613   9.921   3.501  10.514
43925SOL    HW133614   9.970   3.515  10.433
43925SOL    HW233615   9.911   3.588  10.552
43926SOL     OW33616  11.103   0.472   4.011
43926SOL    HW133617  11.098   0.562   4.044
43926SOL    HW233618  11.158   0.427   4.076
43927SOL     OW33619   2.107   3.711   0.493
43927SOL    HW133620   2.180   3.684   0.549
43927SOL    HW233621   2.034   3.723   0.553
43928SOL     OW33622   4.322   4.450  11.963
43928SOL    HW133623   4.355   4.475  11.877
43928SOL    HW233624   4.349   4.522  12.021
43929SOL     OW33625  14.838  10.970   3.330
43929SOL    HW133626  14.847  10.945   3.238
43929SOL    HW233627  14.765  10.916   3.362
43930SOL     OW33628   0.820   6.889  10.903
43930SOL    HW133629   0.908   6.889  10.866
43930SOL    HW233630   0.783   6.974  10.878
43931SOL     OW33631   5.287  13.238  14.480
43931SOL    HW133632   5.220  13.248  14.548
43931SOL    HW233633   5.288  13.144  14.461
43932SOL     OW33634   6.203   4.259  11.231
43932SOL    HW133635   6.163   4.222  11.153
43932SOL    HW233636   6.231   4.347  11.205
43933SOL     OW33637  11.537  10.723   7.292
43933SOL    HW133638  11.468  10.769   7.341
43933SOL    HW233639  11.523  10.631   7.313
43934SOL     OW33640   9.310   5.860   4.234
43934SOL    HW133641   9.400   5.857   4.267
43934SOL    HW233642   9.258   5.884   4.310
43935SOL     OW33643  14.427  12.705   3.743
43935SOL    HW133644  14.367  12.777   3.725
43935SOL    HW233645  14.387  12.629   3.702
43936SOL     OW33646   3.865  13.133   8.005
43936SOL    HW133647   3.845  13.131   8.098
43936SOL    HW233648   3.947  13.183   7.999
43937SOL     OW33649   4.369  10.986  14.522
43937SOL    HW133650   4.297  11.005  14.581
43937SOL    HW233651   4.384  10.892  14.531
43938SOL     OW33652   8.624  14.406   4.910
43938SOL    HW133653   8.711  14.421   4.946
43938SOL    HW233654   8.577  14.488   4.925
43939SOL     OW33655   0.332  12.145  10.969
43939SOL    HW133656   0.288  12.207  10.910
43939SOL    HW233657   0.390  12.200  11.021
43940SOL     OW33658   1.321  13.217   8.463
43940SOL    HW133659   1.339  13.211   8.370
43940SOL    HW233660   1.241  13.270   8.469
43941SOL     OW33661   0.557   8.853   9.066
43941SOL    HW133662   0.607   8.814   9.138
43941SOL    HW233663   0.487   8.790   9.049
43942SOL     OW33664   6.846   3.649  11.788
43942SOL    HW133665   6.803   3.734  11.774
43942SOL    HW233666   6.825   3.598  11.710
43943SOL     OW33667   7.788   5.954   6.833
43943SOL    HW133668   7.819   6.029   6.883
43943SOL    HW233669   7.819   5.970   6.744
43944SOL     OW33670   5.872   7.130  14.835
43944SOL    HW133671   5.854   7.205   0.017
43944SOL    HW233672   5.815   7.142  14.759
43945SOL     OW33673  10.812  13.196   4.023
43945SOL    HW133674  10.746  13.176   3.957
43945SOL    HW233675  10.894  13.161   3.986
43946SOL     OW33676   9.719   8.923   6.550
43946SOL    HW133677   9.728   8.934   6.455
43946SOL    HW233678   9.624   8.918   6.564
43947SOL     OW33679   4.190  11.986   3.346
43947SOL    HW133680   4.268  12.039   3.330
43947SOL    HW233681   4.123  12.027   3.292
43948SOL     OW33682   4.145   6.544  13.545
43948SOL    HW133683   4.186   6.464  13.577
43948SOL    HW233684   4.160   6.609  13.614
43949SOL     OW33685   9.439   7.951   5.652
43949SOL    HW133686   9.426   8.035   5.609
43949SOL    HW233687   9.483   7.973   5.734
43950SOL     OW33688   2.203  12.637   4.460
43950SOL    HW133689   2.287  12.596   4.480
43950SOL    HW233690   2.155  12.570   4.412
43951SOL     OW33691   4.563   0.996   1.494
43951SOL    HW133692   4.501   1.067   1.478
43951SOL    HW233693   4.507   0.918   1.502
43952SOL     OW33694   3.909   9.265   0.107
43952SOL    HW133695   3.864   9.344   0.077
43952SOL    HW233696   3.840   9.213   0.149
43953SOL     OW33697   5.568  11.991   9.607
43953SOL    HW133698   5.598  11.972   9.518
43953SOL    HW233699   5.612  11.926   9.661
43954SOL     OW33700   2.064   5.344  10.512
43954SOL    HW133701   2.095   5.264  10.470
43954SOL    HW233702   2.142   5.382  10.553
43955SOL     OW33703   2.255   3.362  10.435
43955SOL    HW133704   2.265   3.289  10.496
43955SOL    HW233705   2.345   3.388  10.415
43956SOL     OW33706   3.254   8.106  12.646
43956SOL    HW133707   3.306   8.184  12.626
43956SOL    HW233708   3.286   8.039  12.586
43957SOL     OW33709   6.216   9.786   4.910
43957SOL    HW133710   6.288   9.838   4.945
43957SOL    HW233711   6.253   9.698   4.897
43958SOL     OW33712   9.766   8.593  11.955
43958SOL    HW133713   9.708   8.668  11.940
43958SOL    HW233714   9.844   8.631  11.996
43959SOL     OW33715   7.178   3.200   4.589
43959SOL    HW133716   7.271   3.186   4.572
43959SOL    HW233717   7.176   3.259   4.665
43960SOL     OW33718   7.909   4.651   8.996
43960SOL    HW133719   7.942   4.695   8.917
43960SOL    HW233720   7.903   4.721   9.061
43961SOL     OW33721  11.575  10.179   8.597
43961SOL    HW133722  11.616  10.263   8.575
43961SOL    HW233723  11.604  10.120   8.527
43962SOL     OW33724   6.370  11.106   0.423
43962SOL    HW133725   6.452  11.084   0.467
43962SOL    HW233726   6.374  11.059   0.339
43963SOL     OW33727  10.931   3.565   5.615
43963SOL    HW133728  10.902   3.586   5.704
43963SOL    HW233729  11.012   3.614   5.604
43964SOL     OW33730   5.725   4.353   9.692
43964SOL    HW133731   5.640   4.320   9.660
43964SOL    HW233732   5.788   4.325   9.625
43965SOL     OW33733  12.936   4.699   3.922
43965SOL    HW133734  12.862   4.675   3.979
43965SOL    HW233735  12.904   4.683   3.833
43966SOL     OW33736   0.332  14.683   4.810
43966SOL    HW133737   0.303  14.596   4.837
43966SOL    HW233738   0.414  14.696   4.856
43967SOL     OW33739  12.709  13.526   3.471
43967SOL    HW133740  12.682  13.442   3.434
43967SOL    HW233741  12.800  13.537   3.443
43968SOL     OW33742  14.287   2.196   4.040
43968SOL    HW133743  14.362   2.223   4.094
43968SOL    HW233744  14.323   2.132   3.979
43969SOL     OW33745   3.297   2.864   2.405
43969SOL    HW133746   3.229   2.866   2.338
43969SOL    HW233747   3.273   2.934   2.465
43970SOL     OW33748   9.908   1.919   4.374
43970SOL    HW133749   9.853   1.871   4.435
43970SOL    HW233750   9.941   1.852   4.313
43971SOL     OW33751  13.570  13.616  14.828
43971SOL    HW133752  13.547  13.623   0.046
43971SOL    HW233753  13.663  13.639  14.826
43972SOL     OW33754   0.868  14.288   0.476
43972SOL    HW133755   0.920  14.322   0.403
43972SOL    HW233756   0.933  14.255   0.538
43973SOL     OW33757   0.332   8.452   6.217
43973SOL    HW133758   0.388   8.406   6.279
43973SOL    HW233759   0.369   8.540   6.211
43974SOL     OW33760   0.072   7.064   7.626
43974SOL    HW133761   0.089   6.976   7.662
43974SOL    HW233762   0.139   7.075   7.558
43975SOL     OW33763   0.786   5.009   9.481
43975SOL    HW133764   0.782   5.053   9.566
43975SOL    HW233765   0.880   4.992   9.467
43976SOL     OW33766  11.972   8.432  11.774
43976SOL    HW133767  12.010   8.483  11.702
43976SOL    HW233768  12.031   8.449  11.848
43977SOL     OW33769   3.659   4.478   4.354
43977SOL    HW133770   3.603   4.555   4.362
43977SOL    HW233771   3.659   4.438   4.441
43978SOL     OW33772  12.255  14.171   7.778
43978SOL    HW133773  12.301  14.118   7.713
43978SOL    HW233774  12.171  14.126   7.790
43979SOL     OW33775   7.933   6.204   7.007
43979SOL    HW133776   8.023   6.172   7.005
43979SOL    HW233777   7.922   6.253   6.925
43980SOL     OW33778   2.987   0.405  13.325
43980SOL    HW133779   3.058   0.352  13.288
43980SOL    HW233780   2.908   0.373  13.282
43981SOL     OW33781  12.059   0.302  11.907
43981SOL    HW133782  12.072   0.373  11.844
43981SOL    HW233783  12.139   0.303  11.961
43982SOL     OW33784   9.394  13.846  11.667
43982SOL    HW133785   9.367  13.896  11.744
43982SOL    HW233786   9.490  13.847  11.669
43983SOL     OW33787   7.920   8.039   5.035
43983SOL    HW133788   7.995   8.060   5.090
43983SOL    HW233789   7.911   8.114   4.976
43984SOL     OW33790   5.143  10.213  14.735
43984SOL    HW133791   5.237  10.220  14.718
43984SOL    HW233792   5.103  10.199  14.649
43985SOL     OW33793   9.216   9.493   7.034
43985SOL    HW133794   9.129   9.461   7.011
43985SOL    HW233795   9.271   9.415   7.034
43986SOL     OW33796   8.542   5.276   3.236
43986SOL    HW133797   8.621   5.234   3.269
43986SOL    HW233798   8.558   5.289   3.143
43987SOL     OW33799  11.369   1.995   6.366
43987SOL    HW133800  11.432   1.925   6.353
43987SOL    HW233801  11.284   1.952   6.367
43988SOL     OW33802  12.577  12.487   2.043
43988SOL    HW133803  12.598  12.511   1.953
43988SOL    HW233804  12.514  12.554   2.071
43989SOL     OW33805   7.133   6.135   0.022
43989SOL    HW133806   7.181   6.165   0.099
43989SOL    HW233807   7.105   6.216  14.852
43990SOL     OW33808   7.817   6.924   8.108
43990SOL    HW133809   7.758   6.907   8.035
43990SOL    HW233810   7.903   6.897   8.075
43991SOL     OW33811  14.597   8.073   9.959
43991SOL    HW133812  14.506   8.076   9.931
43991SOL    HW233813  14.648   8.074   9.878
43992SOL     OW33814   3.465   9.693   2.948
43992SOL    HW133815   3.504   9.695   3.035
43992SOL    HW233816   3.488   9.606   2.914
43993SOL     OW33817   0.558   9.063  13.696
43993SOL    HW133818   0.612   9.038  13.621
43993SOL    HW233819   0.478   9.099  13.657
43994SOL     OW33820  10.558  12.759   6.358
43994SOL    HW133821  10.483  12.806   6.322
43994SOL    HW233822  10.592  12.817   6.426
43995SOL     OW33823   2.751   2.660   9.923
43995SOL    HW133824   2.745   2.732   9.985
43995SOL    HW233825   2.807   2.693   9.853
43996SOL     OW33826   6.288   4.557   0.095
43996SOL    HW133827   6.226   4.485   0.085
43996SOL    HW233828   6.340   4.555   0.014
43997SOL     OW33829   6.557   1.914   5.242
43997SOL    HW133830   6.646   1.899   5.276
43997SOL    HW233831   6.539   1.836   5.189
43998SOL     OW33832  13.886   8.569   9.137
43998SOL    HW133833  13.877   8.587   9.231
43998SOL    HW233834  13.949   8.633   9.106
43999SOL     OW33835   0.547  14.472  13.532
43999SOL    HW133836   0.627  14.500  13.578
43999SOL    HW233837   0.539  14.533  13.459
44000SOL     OW33838  14.323   8.933   3.933
44000SOL    HW133839  14.386   8.926   4.004
44000SOL    HW233840  14.284   8.845   3.927
44001SOL     OW33841   4.287   7.137  10.383
44001SOL    HW133842   4.311   7.081  10.456
44001SOL    HW233843   4.336   7.218  10.398
44002SOL     OW33844   0.030   5.250  10.364
44002SOL    HW133845   0.074   5.166  10.374
44002SOL    HW233846   0.054   5.299  10.443
44003SOL     OW33847   8.989   8.497  11.310
44003SOL    HW133848   9.001   8.561  11.240
44003SOL    HW233849   8.929   8.539  11.371
44004SOL     OW33850   3.768   7.748   1.079
44004SOL    HW133851   3.815   7.720   1.000
44004SOL    HW233852   3.824   7.718   1.151
44005SOL     OW33853   4.682  12.702   4.284
44005SOL    HW133854   4.763  12.752   4.277
44005SOL    HW233855   4.631  12.747   4.351
44006SOL     OW33856   3.437   3.352   6.884
44006SOL    HW133857   3.499   3.280   6.895
44006SOL    HW233858   3.482   3.428   6.921
44007SOL     OW33859   0.479   3.026  12.670
44007SOL    HW133860   0.541   2.961  12.701
44007SOL    HW233861   0.528   3.076  12.604
44008SOL     OW33862  13.914  12.706  10.869
44008SOL    HW133863  13.827  12.731  10.837
44008SOL    HW233864  13.935  12.625  10.822
44009SOL     OW33865   6.190  13.841   8.377
44009SOL    HW133866   6.197  13.837   8.282
44009SOL    HW233867   6.260  13.784   8.408
44010SOL     OW33868   1.556   9.956   3.369
44010SOL    HW133869   1.575   9.881   3.312
44010SOL    HW233870   1.627   9.957   3.433
44011SOL     OW33871   8.666   3.715   3.927
44011SOL    HW133872   8.591   3.735   3.871
44011SOL    HW233873   8.717   3.796   3.929
44012SOL     OW33874   8.420  11.466  11.817
44012SOL    HW133875   8.457  11.444  11.731
44012SOL    HW233876   8.325  11.464  11.803
44013SOL     OW33877   3.674   4.289  11.857
44013SOL    HW133878   3.692   4.375  11.819
44013SOL    HW233879   3.720   4.290  11.941
44014SOL     OW33880   6.825   4.060   5.785
44014SOL    HW133881   6.803   3.971   5.809
44014SOL    HW233882   6.741   4.101   5.764
44015SOL     OW33883   7.207   3.048   9.253
44015SOL    HW133884   7.300   3.067   9.267
44015SOL    HW233885   7.176   3.118   9.196
44016SOL     OW33886   6.203  10.182   7.220
44016SOL    HW133887   6.150  10.131   7.160
44016SOL    HW233888   6.209  10.269   7.179
44017SOL     OW33889   4.739   1.192   8.013
44017SOL    HW133890   4.788   1.121   8.055
44017SOL    HW233891   4.648   1.172   8.031
44018SOL     OW33892   2.765   0.380   1.892
44018SOL    HW133893   2.800   0.431   1.964
44018SOL    HW233894   2.843   0.349   1.844
44019SOL     OW33895   5.277  12.330  14.822
44019SOL    HW133896   5.296  12.391   0.019
44019SOL    HW233897   5.288  12.244  14.861
44020SOL     OW33898   6.282   1.531   7.297
44020SOL    HW133899   6.266   1.614   7.342
44020SOL    HW233900   6.373   1.509   7.318
44021SOL     OW33901  11.006   1.069  12.888
44021SOL    HW133902  10.928   1.014  12.883
44021SOL    HW233903  11.045   1.048  12.973
44022SOL     OW33904   6.889   3.651  13.806
44022SOL    HW133905   6.967   3.603  13.832
44022SOL    HW233906   6.908   3.682  13.718
44023SOL     OW33907  12.541  14.847   0.964
44023SOL    HW133908  12.567   0.001   0.876
44023SOL    HW233909  12.543  14.752   0.960
44024SOL     OW33910  11.201   1.413   7.806
44024SOL    HW133911  11.113   1.398   7.771
44024SOL    HW233912  11.203   1.364   7.888
44025SOL     OW33913   0.472   1.145   4.129
44025SOL    HW133914   0.400   1.172   4.188
44025SOL    HW233915   0.514   1.072   4.175
44026SOL     OW33916   3.673  11.785   0.142
44026SOL    HW133917   3.677  11.844   0.067
44026SOL    HW233918   3.595  11.814   0.191
44027SOL     OW33919   5.689   0.145  14.319
44027SOL    HW133920   5.703   0.187  14.404
44027SOL    HW233921   5.740   0.064  14.324
44028SOL     OW33922   3.851   4.617   8.281
44028SOL    HW133923   3.797   4.550   8.240
44028SOL    HW233924   3.873   4.678   8.210
44029SOL     OW33925  12.000   5.698   2.236
44029SOL    HW133926  12.060   5.744   2.295
44029SOL    HW233927  11.949   5.641   2.294
44030SOL     OW33928   3.752  14.284  12.076
44030SOL    HW133929   3.718  14.310  11.990
44030SOL    HW233930   3.732  14.357  12.133
44031SOL     OW33931   4.859   5.080  13.716
44031SOL    HW133932   4.872   5.168  13.680
44031SOL    HW233933   4.795   5.040  13.657
44032SOL     OW33934   8.678   7.498   5.018
44032SOL    HW133935   8.763   7.482   5.060
44032SOL    HW233936   8.666   7.423   4.960
44033SOL     OW33937   9.512   9.401   4.722
44033SOL    HW133938   9.464   9.339   4.667
44033SOL    HW233939   9.604   9.381   4.706
44034SOL     OW33940   5.856   4.456   2.067
44034SOL    HW133941   5.807   4.374   2.079
44034SOL    HW233942   5.800   4.509   2.011
44035SOL     OW33943   1.918  11.184   2.344
44035SOL    HW133944   1.932  11.244   2.417
44035SOL    HW233945   1.886  11.103   2.385
44036SOL     OW33946  14.737   1.703   8.956
44036SOL    HW133947  14.784   1.768   8.904
44036SOL    HW233948  14.676   1.753   9.009
44037SOL     OW33949  12.281   7.516   4.931
44037SOL    HW133950  12.247   7.494   4.844
44037SOL    HW233951  12.238   7.454   4.990
44038SOL     OW33952   1.873   8.363   2.067
44038SOL    HW133953   1.883   8.268   2.071
44038SOL    HW233954   1.938   8.396   2.130
44039SOL     OW33955   7.517  11.212   4.456
44039SOL    HW133956   7.546  11.137   4.405
44039SOL    HW233957   7.421  11.207   4.454
44040SOL     OW33958   9.562   2.184   7.619
44040SOL    HW133959   9.542   2.216   7.531
44040SOL    HW233960   9.581   2.263   7.670
44041SOL     OW33961   6.417  10.249  13.867
44041SOL    HW133962   6.376  10.168  13.897
44041SOL    HW233963   6.511  10.235  13.879
44042SOL     OW33964   0.387   5.564  11.587
44042SOL    HW133965   0.295   5.567  11.613
44042SOL    HW233966   0.394   5.484  11.536
44043SOL     OW33967   8.833  10.292   3.886
44043SOL    HW133968   8.877  10.328   3.964
44043SOL    HW233969   8.862  10.347   3.814
44044SOL     OW33970   8.943  12.750  11.583
44044SOL    HW133971   8.883  12.718  11.515
44044SOL    HW233972   8.992  12.672  11.610
44045SOL     OW33973   9.857  12.550   7.323
44045SOL    HW133974   9.880  12.634   7.363
44045SOL    HW233975   9.909  12.547   7.242
44046SOL     OW33976  10.213   1.671   1.641
44046SOL    HW133977  10.183   1.734   1.575
44046SOL    HW233978  10.204   1.718   1.724
44047SOL     OW33979   7.641   4.287   9.441
44047SOL    HW133980   7.687   4.365   9.471
44047SOL    HW233981   7.699   4.249   9.375
44048SOL     OW33982   9.696  14.310   1.818
44048SOL    HW133983   9.678  14.226   1.859
44048SOL    HW233984   9.737  14.288   1.734
44049SOL     OW33985  12.767  14.100   3.638
44049SOL    HW133986  12.713  14.179   3.629
44049SOL    HW233987  12.815  14.095   3.555
44050SOL     OW33988  13.918  12.487  12.505
44050SOL    HW133989  13.873  12.508  12.424
44050SOL    HW233990  13.852  12.440  12.557
44051SOL     OW33991   3.433   4.074   1.161
44051SOL    HW133992   3.389   3.991   1.184
44051SOL    HW233993   3.363   4.139   1.162
44052SOL     OW33994   3.206   7.408   5.861
44052SOL    HW133995   3.261   7.330   5.872
44052SOL    HW233996   3.159   7.415   5.944
44053SOL     OW33997  10.076  12.008   7.847
44053SOL    HW133998  10.032  11.923   7.840
44053SOL    HW233999  10.009  12.072   7.824
44054SOL     OW34000  13.042   2.366  14.131
44054SOL    HW134001  12.980   2.364  14.058
44054SOL    HW234002  13.085   2.280  14.129
44055SOL     OW34003   3.726   7.603   3.156
44055SOL    HW134004   3.815   7.624   3.127
44055SOL    HW234005   3.694   7.539   3.093
44056SOL     OW34006   3.483   0.755   9.900
44056SOL    HW134007   3.391   0.753   9.873
44056SOL    HW234008   3.479   0.776   9.994
44057SOL     OW34009   8.687  14.262   7.259
44057SOL    HW134010   8.712  14.262   7.352
44057SOL    HW234011   8.698  14.171   7.232
44058SOL     OW34012  14.000   6.478   4.654
44058SOL    HW134013  14.009   6.511   4.744
44058SOL    HW234014  13.954   6.549   4.608
44059SOL     OW34015  14.133   3.795   7.321
44059SOL    HW134016  14.114   3.821   7.231
44059SOL    HW234017  14.214   3.841   7.343
44060SOL     OW34018   9.814   7.010  12.469
44060SOL    HW134019   9.721   7.029  12.469
44060SOL    HW234020   9.827   6.954  12.392
44061SOL     OW34021   6.060   0.200  13.595
44061SOL    HW134022   5.977   0.170  13.632
44061SOL    HW234023   6.037   0.240  13.511
44062SOL     OW34024  13.075  11.395  10.068
44062SOL    HW134025  13.033  11.430   9.989
44062SOL    HW234026  13.027  11.313  10.085
44063SOL     OW34027   0.575  11.391   7.298
44063SOL    HW134028   0.650  11.364   7.245
44063SOL    HW234029   0.610  11.460   7.355
44064SOL     OW34030  13.774   8.304  12.405
44064SOL    HW134031  13.710   8.261  12.349
44064SOL    HW234032  13.834   8.347  12.343
44065SOL     OW34033   7.132  13.760  14.657
44065SOL    HW134034   7.096  13.780  14.571
44065SOL    HW234035   7.094  13.675  14.679
44066SOL     OW34036   9.588  11.705  10.620
44066SOL    HW134037   9.640  11.732  10.696
44066SOL    HW234038   9.509  11.759  10.625
44067SOL     OW34039   9.146  14.208   4.529
44067SOL    HW134040   9.224  14.264   4.526
44067SOL    HW234041   9.169  14.139   4.591
44068SOL     OW34042   8.808   6.075   8.911
44068SOL    HW134043   8.837   6.047   8.998
44068SOL    HW234044   8.768   6.161   8.926
44069SOL     OW34045  14.306   4.211   1.172
44069SOL    HW134046  14.266   4.155   1.106
44069SOL    HW234047  14.261   4.296   1.161
44070SOL     OW34048  10.216   7.521   8.331
44070SOL    HW134049  10.131   7.521   8.375
44070SOL    HW234050  10.202   7.571   8.250
44071SOL     OW34051   3.712   2.069   7.840
44071SOL    HW134052   3.760   2.139   7.797
44071SOL    HW234053   3.714   2.091   7.933
44072SOL     OW34054   7.008   3.225   0.632
44072SOL    HW134055   7.072   3.168   0.674
44072SOL    HW234056   6.927   3.174   0.630
44073SOL     OW34057   1.924  11.807  12.128
44073SOL    HW134058   1.961  11.720  12.114
44073SOL    HW234059   1.995  11.867  12.104
44074SOL     OW34060   5.525   6.088   3.089
44074SOL    HW134061   5.504   6.094   3.182
44074SOL    HW234062   5.444   6.111   3.044
44075SOL     OW34063  13.696   2.498  12.771
44075SOL    HW134064  13.752   2.498  12.693
44075SOL    HW234065  13.646   2.579  12.765
44076SOL     OW34066   8.926   2.851  11.478
44076SOL    HW134067   9.007   2.830  11.433
44076SOL    HW234068   8.950   2.918  11.542
44077SOL     OW34069   9.545  13.940   9.876
44077SOL    HW134070   9.550  13.848   9.851
44077SOL    HW234071   9.604  13.985   9.816
44078SOL     OW34072   9.030   3.745  12.675
44078SOL    HW134073   9.051   3.666  12.624
44078SOL    HW234074   9.111   3.796  12.674
44079SOL     OW34075   0.836  11.907   6.075
44079SOL    HW134076   0.874  11.990   6.047
44079SOL    HW234077   0.853  11.903   6.169
44080SOL     OW34078   9.609  10.965   1.663
44080SOL    HW134079   9.618  11.008   1.577
44080SOL    HW234080   9.698  10.961   1.697
44081SOL     OW34081   0.348  12.453  12.997
44081SOL    HW134082   0.326  12.495  13.080
44081SOL    HW234083   0.412  12.512  12.957
44082SOL     OW34084  10.737  12.723   1.428
44082SOL    HW134085  10.753  12.660   1.498
44082SOL    HW234086  10.772  12.806   1.461
44083SOL     OW34087   8.811   5.091   4.462
44083SOL    HW134088   8.720   5.101   4.432
44083SOL    HW234089   8.841   5.010   4.422
44084SOL     OW34090   9.828   3.939  14.366
44084SOL    HW134091   9.841   3.938  14.272
44084SOL    HW234092   9.805   4.029  14.387
44085SOL     OW34093   1.719   2.778  13.274
44085SOL    HW134094   1.767   2.848  13.230
44085SOL    HW234095   1.638   2.768  13.222
44086SOL     OW34096   5.922   9.674  10.150
44086SOL    HW134097   5.870   9.741  10.194
44086SOL    HW234098   5.904   9.593  10.198
44087SOL     OW34099  11.901   2.195  11.254
44087SOL    HW134100  11.851   2.234  11.183
44087SOL    HW234101  11.838   2.143  11.303
44088SOL     OW34102   9.514   9.430   1.280
44088SOL    HW134103   9.572   9.353   1.276
44088SOL    HW234104   9.553   9.487   1.345
44089SOL     OW34105   4.251   6.400   0.976
44089SOL    HW134106   4.228   6.488   0.947
44089SOL    HW234107   4.325   6.375   0.920
44090SOL     OW34108   1.734   2.043   2.498
44090SOL    HW134109   1.782   2.040   2.415
44090SOL    HW234110   1.659   1.985   2.484
44091SOL     OW34111   3.562  12.370  13.430
44091SOL    HW134112   3.565  12.405  13.519
44091SOL    HW234113   3.551  12.275  13.443
44092SOL     OW34114   6.254  14.591   1.217
44092SOL    HW134115   6.196  14.617   1.289
44092SOL    HW234116   6.342  14.604   1.251
44093SOL     OW34117   3.333   6.117   0.914
44093SOL    HW134118   3.363   6.199   0.875
44093SOL    HW234119   3.405   6.056   0.900
44094SOL     OW34120  13.378   8.784   1.491
44094SOL    HW134121  13.352   8.694   1.472
44094SOL    HW234122  13.469   8.789   1.461
44095SOL     OW34123   3.458  13.881   9.930
44095SOL    HW134124   3.500  13.815   9.874
44095SOL    HW234125   3.399  13.928   9.871
44096SOL     OW34126   4.634  10.830  13.251
44096SOL    HW134127   4.730  10.828  13.249
44096SOL    HW234128   4.610  10.889  13.180
44097SOL     OW34129  11.383  10.682   4.405
44097SOL    HW134130  11.330  10.644   4.475
44097SOL    HW234131  11.408  10.607   4.351
44098SOL     OW34132   4.788  14.546  12.529
44098SOL    HW134133   4.782  14.593  12.446
44098SOL    HW234134   4.817  14.612  12.592
44099SOL     OW34135   0.011   1.668   0.277
44099SOL    HW134136   0.064   1.716   0.213
44099SOL    HW234137  14.864   1.732   0.345
44100SOL     OW34138   7.137   1.290   2.192
44100SOL    HW134139   7.121   1.381   2.216
44100SOL    HW234140   7.159   1.293   2.099
44101SOL     OW34141  13.031   3.844  11.704
44101SOL    HW134142  12.959   3.796  11.745
44101SOL    HW234143  12.993   3.886  11.628
44102SOL     OW34144   7.970   3.068  12.907
44102SOL    HW134145   7.973   3.093  13.000
44102SOL    HW234146   8.020   2.987  12.903
44103SOL     OW34147   3.653   2.065   3.301
44103SOL    HW134148   3.630   2.117   3.378
44103SOL    HW234149   3.720   2.004   3.333
44104SOL     OW34150   3.683  12.298   7.077
44104SOL    HW134151   3.612  12.263   7.130
44104SOL    HW234152   3.758  12.242   7.097
44105SOL     OW34153   3.030   9.933   8.240
44105SOL    HW134154   2.983  10.016   8.249
44105SOL    HW234155   2.962   9.869   8.217
44106SOL     OW34156   1.222  10.059  12.869
44106SOL    HW134157   1.279  10.133  12.845
44106SOL    HW234158   1.230   9.998  12.796
44107SOL     OW34159   2.874   8.926   4.943
44107SOL    HW134160   2.958   8.915   4.898
44107SOL    HW234161   2.895   8.985   5.016
44108SOL     OW34162   8.122   5.327   8.322
44108SOL    HW134163   8.121   5.274   8.402
44108SOL    HW234164   8.106   5.416   8.352
44109SOL     OW34165   4.793   0.665  12.040
44109SOL    HW134166   4.750   0.701  12.117
44109SOL    HW234167   4.837   0.740  11.999
44110SOL     OW34168   1.945   6.394   1.933
44110SOL    HW134169   1.989   6.318   1.895
44110SOL    HW234170   1.978   6.399   2.023
44111SOL     OW34171  14.072   8.271   2.942
44111SOL    HW134172  14.167   8.277   2.958
44111SOL    HW234173  14.033   8.324   3.012
44112SOL     OW34174   8.952   5.412   7.867
44112SOL    HW134175   9.016   5.343   7.883
44112SOL    HW234176   9.002   5.482   7.824
44113SOL     OW34177   1.274  12.747  12.130
44113SOL    HW134178   1.253  12.807  12.058
44113SOL    HW234179   1.367  12.729  12.120
44114SOL     OW34180   6.213   5.280   5.459
44114SOL    HW134181   6.285   5.242   5.409
44114SOL    HW234182   6.189   5.212   5.522
44115SOL     OW34183   6.895   6.300   7.970
44115SOL    HW134184   6.908   6.394   7.962
44115SOL    HW234185   6.882   6.285   8.064
44116SOL     OW34186   1.635  12.208   0.171
44116SOL    HW134187   1.547  12.231   0.142
44116SOL    HW234188   1.673  12.161   0.096
44117SOL     OW34189   7.459   5.899   5.092
44117SOL    HW134190   7.412   5.974   5.054
44117SOL    HW234191   7.479   5.843   5.017
44118SOL     OW34192  13.792   3.027   1.607
44118SOL    HW134193  13.788   3.121   1.590
44118SOL    HW234194  13.816   3.019   1.699
44119SOL     OW34195  10.458   5.196   0.173
44119SOL    HW134196  10.405   5.143   0.113
44119SOL    HW234197  10.394   5.245   0.224
44120SOL     OW34198   2.318  12.548   5.963
44120SOL    HW134199   2.283  12.506   5.885
44120SOL    HW234200   2.406  12.577   5.938
44121SOL     OW34201  11.016   7.310   1.466
44121SOL    HW134202  11.022   7.305   1.371
44121SOL    HW234203  11.051   7.397   1.489
44122SOL     OW34204   9.775   5.696   0.271
44122SOL    HW134205   9.701   5.732   0.320
44122SOL    HW234206   9.831   5.656   0.338
44123SOL     OW34207  13.279  10.610   4.832
44123SOL    HW134208  13.336  10.534   4.825
44123SOL    HW234209  13.259  10.635   4.742
44124SOL     OW34210   0.316  10.555  11.200
44124SOL    HW134211   0.266  10.621  11.248
44124SOL    HW234212   0.406  10.586  11.205
44125SOL     OW34213   2.191   9.955  11.736
44125SOL    HW134214   2.258   9.890  11.713
44125SOL    HW234215   2.234  10.012  11.800
44126SOL     OW34216  11.838   8.713   8.462
44126SOL    HW134217  11.775   8.642   8.452
44126SOL    HW234218  11.789   8.782   8.507
44127SOL     OW34219   2.123   8.057   0.903
44127SOL    HW134220   2.046   8.091   0.859
44127SOL    HW234221   2.161   7.994   0.842
44128SOL     OW34222   0.886   6.196   3.310
44128SOL    HW134223   0.923   6.120   3.264
44128SOL    HW234224   0.942   6.207   3.387
44129SOL     OW34225  12.125   8.187   9.601
44129SOL    HW134226  12.133   8.215   9.692
44129SOL    HW234227  12.065   8.112   9.604
44130SOL     OW34228  10.663   3.073   6.614
44130SOL    HW134229  10.663   2.996   6.671
44130SOL    HW234230  10.744   3.119   6.635
44131SOL     OW34231  12.917  10.048   6.401
44131SOL    HW134232  12.858   9.988   6.447
44131SOL    HW234233  12.956   9.994   6.332
44132SOL     OW34234   3.291  13.381   2.944
44132SOL    HW134235   3.323  13.470   2.934
44132SOL    HW234236   3.299  13.342   2.857
44133SOL     OW34237   7.908   0.834   2.522
44133SOL    HW134238   7.918   0.924   2.489
44133SOL    HW234239   7.994   0.795   2.508
44134SOL     OW34240  14.525   8.795   3.563
44134SOL    HW134241  14.443   8.749   3.581
44134SOL    HW234242  14.556   8.824   3.649
44135SOL     OW34243   9.217  12.250  10.922
44135SOL    HW134244   9.139  12.273  10.972
44135SOL    HW234245   9.248  12.333  10.885
44136SOL     OW34246   6.664  13.933   0.197
44136SOL    HW134247   6.671  14.025   0.170
44136SOL    HW234248   6.570  13.913   0.190
44137SOL     OW34249   2.214   5.573   9.305
44137SOL    HW134250   2.304   5.578   9.338
44137SOL    HW234251   2.180   5.492   9.343
44138SOL     OW34252   6.397  13.170   9.384
44138SOL    HW134253   6.436  13.086   9.410
44138SOL    HW234254   6.406  13.226   9.461
44139SOL     OW34255  11.217  10.331  13.181
44139SOL    HW134256  11.177  10.261  13.129
44139SOL    HW234257  11.148  10.398  13.188
44140SOL     OW34258  13.031   7.764  12.310
44140SOL    HW134259  12.985   7.718  12.380
44140SOL    HW234260  13.038   7.854  12.341
44141SOL     OW34261  10.633  12.623   3.378
44141SOL    HW134262  10.646  12.617   3.473
44141SOL    HW234263  10.618  12.716   3.361
44142SOL     OW34264  14.237  13.652   4.093
44142SOL    HW134265  14.260  13.594   4.020
44142SOL    HW234266  14.142  13.644   4.101
44143SOL     OW34267   0.371   5.140   5.321
44143SOL    HW134268   0.404   5.214   5.269
44143SOL    HW234269   0.444   5.119   5.380
44144SOL     OW34270  11.453   2.466   0.110
44144SOL    HW134271  11.520   2.447   0.176
44144SOL    HW234272  11.429   2.380   0.076
44145SOL     OW34273   4.754   7.642   1.414
44145SOL    HW134274   4.709   7.709   1.363
44145SOL    HW234275   4.758   7.677   1.502
44146SOL     OW34276   7.691   7.159   6.965
44146SOL    HW134277   7.705   7.082   7.020
44146SOL    HW234278   7.633   7.216   7.016
44147SOL     OW34279   0.374   0.127  10.134
44147SOL    HW134280   0.334   0.178  10.205
44147SOL    HW234281   0.315   0.053  10.122
44148SOL     OW34282  14.405   9.952  10.042
44148SOL    HW134283  14.432   9.990   9.959
44148SOL    HW234284  14.430   9.859  10.035
44149SOL     OW34285   4.120  14.844   6.364
44149SOL    HW134286   4.142  14.815   6.452
44149SOL    HW234287   4.060  14.777   6.330
44150SOL     OW34288  13.247  13.209  12.551
44150SOL    HW134289  13.168  13.164  12.581
44150SOL    HW234290  13.310  13.138  12.535
44151SOL     OW34291  10.322   4.815   6.903
44151SOL    HW134292  10.233   4.782   6.916
44151SOL    HW234293  10.359   4.821   6.991
44152SOL     OW34294   6.708   3.092   1.898
44152SOL    HW134295   6.746   3.007   1.922
44152SOL    HW234296   6.673   3.126   1.981
44153SOL     OW34297  10.310  12.124   9.465
44153SOL    HW134298  10.345  12.043   9.429
44153SOL    HW234299  10.237  12.096   9.521
44154SOL     OW34300   3.879  12.652   6.445
44154SOL    HW134301   3.796  12.695   6.469
44154SOL    HW234302   3.921  12.633   6.529
44155SOL     OW34303   7.184  12.136  12.315
44155SOL    HW134304   7.267  12.091  12.301
44155SOL    HW234305   7.118  12.067  12.305
44156SOL     OW34306   8.307   3.334   6.082
44156SOL    HW134307   8.230   3.304   6.033
44156SOL    HW234308   8.308   3.281   6.161
44157SOL     OW34309   6.876   3.976   1.405
44157SOL    HW134310   6.928   3.901   1.433
44157SOL    HW234311   6.855   4.023   1.485
44158SOL     OW34312   2.666   4.693  14.305
44158SOL    HW134313   2.586   4.687  14.357
44158SOL    HW234314   2.636   4.690  14.214
44159SOL     OW34315  14.125  12.079   8.508
44159SOL    HW134316  14.040  12.124   8.509
44159SOL    HW234317  14.186  12.146   8.478
44160SOL     OW34318   7.102  12.037   3.873
44160SOL    HW134319   7.077  11.991   3.792
44160SOL    HW234320   7.019  12.053   3.918
44161SOL     OW34321   7.300   7.091   8.290
44161SOL    HW134322   7.264   7.035   8.359
44161SOL    HW234323   7.277   7.180   8.317
44162SOL     OW34324   5.199   4.212   1.481
44162SOL    HW134325   5.261   4.153   1.524
44162SOL    HW234326   5.233   4.300   1.501
44163SOL     OW34327   7.103   2.632  12.355
44163SOL    HW134328   7.129   2.540  12.348
44163SOL    HW234329   7.041   2.634  12.428
44164SOL     OW34330   0.238   0.698  10.565
44164SOL    HW134331   0.288   0.747  10.631
44164SOL    HW234332   0.168   0.657  10.615
44165SOL     OW34333   9.071   3.950   9.666
44165SOL    HW134334   9.068   3.887   9.738
44165SOL    HW234335   9.028   4.028   9.700
44166SOL     OW34336  10.292  11.973   0.587
44166SOL    HW134337  10.329  11.972   0.498
44166SOL    HW234338  10.338  11.903   0.632
44167SOL     OW34339   6.385   4.726  11.408
44167SOL    HW134340   6.457   4.709  11.469
44167SOL    HW234341   6.359   4.816  11.428
44168SOL     OW34342   5.118  13.021   3.971
44168SOL    HW134343   5.099  13.090   4.033
44168SOL    HW234344   5.098  12.940   4.017
44169SOL     OW34345  12.457   1.678   3.139
44169SOL    HW134346  12.432   1.739   3.070
44169SOL    HW234347  12.401   1.702   3.213
44170SOL     OW34348   7.779   5.821  12.603
44170SOL    HW134349   7.756   5.734  12.635
44170SOL    HW234350   7.698   5.854  12.563
44171SOL     OW34351   4.424   2.659   9.426
44171SOL    HW134352   4.409   2.701   9.511
44171SOL    HW234353   4.467   2.726   9.373
44172SOL     OW34354  12.226   7.940   1.098
44172SOL    HW134355  12.135   7.961   1.075
44172SOL    HW234356  12.219   7.876   1.169
44173SOL     OW34357  12.994  13.971  14.512
44173SOL    HW134358  13.051  13.915  14.565
44173SOL    HW234359  13.049  13.996  14.437
44174SOL     OW34360  13.850   0.578   9.153
44174SOL    HW134361  13.927   0.598   9.100
44174SOL    HW234362  13.869   0.617   9.238
44175SOL     OW34363   2.081   4.554   7.597
44175SOL    HW134364   2.000   4.513   7.628
44175SOL    HW234365   2.082   4.538   7.503
44176SOL     OW34366  12.731   2.710  12.662
44176SOL    HW134367  12.711   2.620  12.685
44176SOL    HW234368  12.823   2.709  12.638
44177SOL     OW34369   1.642   6.372   9.284
44177SOL    HW134370   1.697   6.301   9.317
44177SOL    HW234371   1.703   6.438   9.252
44178SOL     OW34372   8.899  11.531   0.117
44178SOL    HW134373   8.930  11.463   0.057
44178SOL    HW234374   8.976  11.584   0.136
44179SOL     OW34375  11.200  12.378   9.808
44179SOL    HW134376  11.127  12.439   9.796
44179SOL    HW234377  11.158  12.293   9.823
44180SOL     OW34378   8.282   0.194   4.019
44180SOL    HW134379   8.293   0.215   3.926
44180SOL    HW234380   8.215   0.126   4.021
44181SOL     OW34381   3.746   1.054   7.122
44181SOL    HW134382   3.699   1.134   7.100
44181SOL    HW234383   3.837   1.073   7.100
44182SOL     OW34384   3.658  12.040   6.096
44182SOL    HW134385   3.746  12.017   6.066
44182SOL    HW234386   3.669  12.125   6.139
44183SOL     OW34387   5.863  11.793   4.420
44183SOL    HW134388   5.956  11.802   4.399
44183SOL    HW234389   5.818  11.846   4.355
44184SOL     OW34390   9.366  13.490   3.224
44184SOL    HW134391   9.360  13.548   3.148
44184SOL    HW234392   9.286  13.437   3.220
44185SOL     OW34393   6.440  11.926   8.738
44185SOL    HW134394   6.433  12.019   8.715
44185SOL    HW234395   6.520  11.897   8.695
44186SOL     OW34396   5.993  11.830  12.121
44186SOL    HW134397   6.073  11.777  12.129
44186SOL    HW234398   5.925  11.767  12.098
44187SOL     OW34399   2.075   0.957   6.890
44187SOL    HW134400   2.136   0.884   6.886
44187SOL    HW234401   2.051   0.964   6.982
44188SOL     OW34402   1.290  11.923  13.794
44188SOL    HW134403   1.310  12.005  13.839
44188SOL    HW234404   1.208  11.893  13.835
44189SOL     OW34405   0.165   5.266   9.529
44189SOL    HW134406   0.259   5.253   9.547
44189SOL    HW234407   0.121   5.216   9.598
44190SOL     OW34408   0.324   2.151   9.834
44190SOL    HW134409   0.403   2.101   9.853
44190SOL    HW234410   0.280   2.159   9.918
44191SOL     OW34411  13.715   4.769   2.232
44191SOL    HW134412  13.637   4.719   2.256
44191SOL    HW234413  13.767   4.709   2.179
44192SOL     OW34414   4.494   1.044   7.980
44192SOL    HW134415   4.407   1.015   8.007
44192SOL    HW234416   4.513   0.994   7.901
44193SOL     OW34417   6.464   9.953  14.756
44193SOL    HW134418   6.473  10.043  14.789
44193SOL    HW234419   6.533   9.904  14.801
44194SOL     OW34420   2.854  14.037   9.506
44194SOL    HW134421   2.839  14.131   9.494
44194SOL    HW234422   2.874  14.028   9.600
44195SOL     OW34423   2.333  13.229  13.376
44195SOL    HW134424   2.371  13.317  13.373
44195SOL    HW234425   2.243  13.241  13.347
44196SOL     OW34426  14.468  11.079  13.867
44196SOL    HW134427  14.478  11.144  13.797
44196SOL    HW234428  14.534  11.012  13.847
44197SOL     OW34429   0.546  11.612  13.426
44197SOL    HW134430   0.518  11.561  13.502
44197SOL    HW234431   0.475  11.675  13.412
44198SOL     OW34432   6.768   1.027   6.144
44198SOL    HW134433   6.849   1.038   6.093
44198SOL    HW234434   6.784   0.948   6.196
44199SOL     OW34435  12.796  10.123  13.287
44199SOL    HW134436  12.870  10.139  13.346
44199SOL    HW234437  12.810  10.035  13.254
44200SOL     OW34438   6.776   7.540   1.761
44200SOL    HW134439   6.729   7.473   1.713
44200SOL    HW234440   6.772   7.618   1.705
44201SOL     OW34441   5.722   3.392   8.738
44201SOL    HW134442   5.800   3.379   8.685
44201SOL    HW234443   5.650   3.397   8.674
44202SOL     OW34444   8.990   1.929  11.914
44202SOL    HW134445   8.943   2.009  11.893
44202SOL    HW234446   9.034   1.905  11.832
44203SOL     OW34447   2.570  11.049  14.760
44203SOL    HW134448   2.661  11.018  14.764
44203SOL    HW234449   2.546  11.062  14.852
44204SOL     OW34450   1.598   2.933  12.847
44204SOL    HW134451   1.665   2.879  12.889
44204SOL    HW234452   1.639   3.020  12.839
44205SOL     OW34453   4.371  10.090  10.359
44205SOL    HW134454   4.464  10.088  10.337
44205SOL    HW234455   4.331  10.140  10.288
44206SOL     OW34456   9.100   2.382   9.582
44206SOL    HW134457   9.045   2.312   9.617
44206SOL    HW234458   9.046   2.424   9.516
44207SOL     OW34459   2.737   2.430   6.344
44207SOL    HW134460   2.703   2.341   6.338
44207SOL    HW234461   2.680   2.481   6.287
44208SOL     OW34462  13.325  12.527  11.007
44208SOL    HW134463  13.312  12.465  10.934
44208SOL    HW234464  13.418  12.548  11.005
44209SOL     OW34465   8.913   5.433   8.630
44209SOL    HW134466   8.875   5.429   8.717
44209SOL    HW234467   8.840   5.456   8.573
44210SOL     OW34468  14.783  14.222   4.050
44210SOL    HW134469  14.797  14.239   4.143
44210SOL    HW234470  14.689  14.210   4.042
44211SOL     OW34471   4.459  10.531   0.844
44211SOL    HW134472   4.464  10.506   0.751
44211SOL    HW234473   4.445  10.626   0.842
44212SOL     OW34474   8.740   4.924   3.659
44212SOL    HW134475   8.753   5.016   3.682
44212SOL    HW234476   8.693   4.928   3.575
44213SOL     OW34477  13.404  12.738   3.557
44213SOL    HW134478  13.483  12.684   3.555
44213SOL    HW234479  13.406  12.786   3.474
44214SOL     OW34480   9.363   9.009   2.216
44214SOL    HW134481   9.310   9.057   2.279
44214SOL    HW234482   9.390   9.075   2.152
44215SOL     OW34483   4.248   4.931   8.658
44215SOL    HW134484   4.170   4.958   8.610
44215SOL    HW234485   4.247   4.836   8.655
44216SOL     OW34486   9.188   9.563   2.387
44216SOL    HW134487   9.259   9.609   2.430
44216SOL    HW234488   9.122   9.552   2.456
44217SOL     OW34489   0.666   1.569   0.263
44217SOL    HW134490   0.632   1.567   0.352
44217SOL    HW234491   0.681   1.661   0.244
44218SOL     OW34492  12.079  14.550   7.452
44218SOL    HW134493  12.109  14.463   7.428
44218SOL    HW234494  11.988  14.553   7.423
44219SOL     OW34495  14.864   9.232   4.006
44219SOL    HW134496  14.849   9.178   4.083
44219SOL    HW234497   0.083   9.224   3.988
44220SOL     OW34498  11.411   9.913   3.262
44220SOL    HW134499  11.328   9.873   3.288
44220SOL    HW234500  11.467   9.839   3.241
44221SOL     OW34501  12.584  13.178   0.952
44221SOL    HW134502  12.611  13.240   1.020
44221SOL    HW234503  12.662  13.168   0.897
44222SOL     OW34504   1.855   9.561   3.770
44222SOL    HW134505   1.765   9.530   3.770
44222SOL    HW234506   1.881   9.558   3.863
44223SOL     OW34507  11.552   5.463   4.081
44223SOL    HW134508  11.583   5.488   4.168
44223SOL    HW234509  11.487   5.394   4.097
44224SOL     OW34510  13.481  12.330   9.751
44224SOL    HW134511  13.488  12.384   9.673
44224SOL    HW234512  13.562  12.345   9.799
44225SOL     OW34513  10.644   7.592  11.374
44225SOL    HW134514  10.626   7.627  11.287
44225SOL    HW234515  10.688   7.664  11.420
44226SOL     OW34516   7.732   9.193   1.883
44226SOL    HW134517   7.655   9.195   1.940
44226SOL    HW234518   7.706   9.241   1.805
44227SOL     OW34519   3.862   8.496   3.463
44227SOL    HW134520   3.845   8.518   3.554
44227SOL    HW234521   3.824   8.568   3.413
44228SOL     OW34522   2.585   6.895  13.916
44228SOL    HW134523   2.629   6.844  13.848
44228SOL    HW234524   2.620   6.983  13.905
44229SOL     OW34525   8.519   6.499  13.192
44229SOL    HW134526   8.597   6.527  13.143
44229SOL    HW234527   8.536   6.407  13.213
44230SOL     OW34528   0.132   0.084   5.928
44230SOL    HW134529   0.054   0.139   5.933
44230SOL    HW234530   0.132   0.051   5.838
44231SOL     OW34531  12.169   1.983  12.627
44231SOL    HW134532  12.249   1.951  12.669
44231SOL    HW234533  12.114   1.905  12.618
44232SOL     OW34534   2.360  13.027   5.760
44232SOL    HW134535   2.414  12.948   5.757
44232SOL    HW234536   2.334  13.042   5.669
44233SOL     OW34537   6.913   8.813  10.732
44233SOL    HW134538   6.973   8.878  10.697
44233SOL    HW234539   6.945   8.730  10.698
44234SOL     OW34540  10.314  11.531   5.044
44234SOL    HW134541  10.393  11.569   5.082
44234SOL    HW234542  10.295  11.455   5.100
44235SOL     OW34543  11.290  14.736  13.887
44235SOL    HW134544  11.280  14.722  13.793
44235SOL    HW234545  11.262  14.653  13.927
44236SOL     OW34546   1.977   8.675   7.323
44236SOL    HW134547   2.032   8.676   7.245
44236SOL    HW234548   1.964   8.768   7.345
44237SOL     OW34549   3.042   8.479   0.004
44237SOL    HW134550   3.036   8.534   0.082
44237SOL    HW234551   3.101   8.408   0.030
44238SOL     OW34552  10.411   0.159  13.211
44238SOL    HW134553  10.472   0.086  13.210
44238SOL    HW234554  10.337   0.130  13.157
44239SOL     OW34555   5.383   4.379   1.763
44239SOL    HW134556   5.465   4.336   1.783
44239SOL    HW234557   5.349   4.409   1.847
44240SOL     OW34558   1.481   6.640   7.852
44240SOL    HW134559   1.526   6.654   7.768
44240SOL    HW234560   1.507   6.552   7.878
44241SOL     OW34561  14.695  13.909   7.882
44241SOL    HW134562  14.605  13.926   7.912
44241SOL    HW234563  14.684  13.873   7.794
44242SOL     OW34564  12.341   0.136   0.107
44242SOL    HW134565  12.310   0.225   0.121
44242SOL    HW234566  12.260   0.084   0.101
44243SOL     OW34567   6.976   3.609   4.509
44243SOL    HW134568   6.903   3.659   4.546
44243SOL    HW234569   6.960   3.611   4.414
44244SOL     OW34570   7.850   6.517   9.146
44244SOL    HW134571   7.830   6.454   9.215
44244SOL    HW234572   7.764   6.544   9.113
44245SOL     OW34573   3.767  10.426  13.612
44245SOL    HW134574   3.835  10.374  13.570
44245SOL    HW234575   3.743  10.492  13.547
44246SOL     OW34576   5.817  10.552  11.592
44246SOL    HW134577   5.820  10.631  11.538
44246SOL    HW234578   5.791  10.482  11.531
44247SOL     OW34579   6.756   1.329  11.839
44247SOL    HW134580   6.806   1.327  11.920
44247SOL    HW234581   6.775   1.414  11.800
44248SOL     OW34582   9.555   5.483   7.991
44248SOL    HW134583   9.581   5.549   7.927
44248SOL    HW234584   9.514   5.533   8.062
44249SOL     OW34585   7.558   2.452   4.172
44249SOL    HW134586   7.468   2.482   4.187
44249SOL    HW234587   7.561   2.366   4.214
44250SOL     OW34588  11.713   8.504   7.732
44250SOL    HW134589  11.638   8.502   7.791
44250SOL    HW234590  11.785   8.466   7.782
44251SOL     OW34591   4.673  13.353   7.986
44251SOL    HW134592   4.681  13.446   8.006
44251SOL    HW234593   4.629  13.315   8.062
44252SOL     OW34594   3.909   5.486  10.803
44252SOL    HW134595   3.814   5.476  10.813
44252SOL    HW234596   3.918   5.559  10.741
44253SOL     OW34597  10.469   1.523  14.849
44253SOL    HW134598  10.482   1.457  14.781
44253SOL    HW234599  10.445   1.603  14.802
44254SOL     OW34600   9.718   8.802   9.854
44254SOL    HW134601   9.671   8.872   9.809
44254SOL    HW234602   9.650   8.742   9.883
44255SOL     OW34603   2.137  13.696  13.268
44255SOL    HW134604   2.188  13.772  13.297
44255SOL    HW234605   2.070  13.685  13.336
44256SOL     OW34606   9.044  13.714   2.770
44256SOL    HW134607   9.046  13.632   2.820
44256SOL    HW234608   9.071  13.688   2.682
44257SOL     OW34609   4.025  10.855   5.022
44257SOL    HW134610   3.945  10.902   5.045
44257SOL    HW234611   4.094  10.921   5.027
44258SOL     OW34612  12.927   2.493  13.464
44258SOL    HW134613  12.847   2.444  13.445
44258SOL    HW234614  12.969   2.505  13.380
44259SOL     OW34615  13.170   8.583   8.349
44259SOL    HW134616  13.097   8.577   8.287
44259SOL    HW234617  13.145   8.525   8.421
44260SOL     OW34618   2.859   2.753   6.563
44260SOL    HW134619   2.941   2.716   6.596
44260SOL    HW234620   2.870   2.754   6.468
44261SOL     OW34621  10.725   3.632   5.871
44261SOL    HW134622  10.681   3.674   5.945
44261SOL    HW234623  10.798   3.585   5.911
44262SOL     OW34624   8.859  12.013  11.387
44262SOL    HW134625   8.770  12.026  11.356
44262SOL    HW234626   8.864  12.063  11.469
44263SOL     OW34627  14.608  11.905   4.548
44263SOL    HW134628  14.612  11.820   4.591
44263SOL    HW234629  14.691  11.913   4.502
44264SOL     OW34630   5.455   9.954   5.223
44264SOL    HW134631   5.493   9.909   5.147
44264SOL    HW234632   5.378   9.902   5.245
44265SOL     OW34633  10.429   7.326  13.039
44265SOL    HW134634  10.429   7.233  13.059
44265SOL    HW234635  10.444   7.370  13.123
44266SOL     OW34636   9.821   6.698   5.459
44266SOL    HW134637   9.839   6.781   5.502
44266SOL    HW234638   9.732   6.675   5.487
44267SOL     OW34639   5.827   2.369   3.865
44267SOL    HW134640   5.899   2.323   3.821
44267SOL    HW234641   5.815   2.321   3.946
44268SOL     OW34642   5.972   8.758   3.484
44268SOL    HW134643   5.890   8.728   3.524
44268SOL    HW234644   5.985   8.847   3.518
44269SOL     OW34645  12.610   5.271   0.626
44269SOL    HW134646  12.635   5.342   0.566
44269SOL    HW234647  12.539   5.308   0.678
44270SOL     OW34648   4.961  12.626   5.087
44270SOL    HW134649   4.879  12.593   5.051
44270SOL    HW234650   5.029  12.568   5.052
44271SOL     OW34651  14.586  14.837  13.934
44271SOL    HW134652  14.568  14.766  13.996
44271SOL    HW234653  14.518   0.028  13.952
44272SOL     OW34654   7.671  11.050   7.774
44272SOL    HW134655   7.643  11.026   7.685
44272SOL    HW234656   7.747  10.995   7.791
44273SOL     OW34657  12.620   9.152  10.168
44273SOL    HW134658  12.616   9.073  10.222
44273SOL    HW234659  12.705   9.148  10.125
44274SOL     OW34660   6.722   9.842  13.115
44274SOL    HW134661   6.677   9.822  13.197
44274SOL    HW234662   6.665   9.905  13.071
44275SOL     OW34663   6.648  13.721  11.802
44275SOL    HW134664   6.602  13.803  11.819
44275SOL    HW234665   6.626  13.698  11.712
44276SOL     OW34666   2.635   4.442   1.106
44276SOL    HW134667   2.600   4.428   1.194
44276SOL    HW234668   2.695   4.369   1.093
44277SOL     OW34669   3.551   5.736   9.183
44277SOL    HW134670   3.581   5.813   9.231
44277SOL    HW234671   3.500   5.687   9.248
44278SOL     OW34672   1.210  12.303   2.999
44278SOL    HW134673   1.229  12.382   2.949
44278SOL    HW234674   1.131  12.323   3.048
44279SOL     OW34675   2.584   1.007   4.721
44279SOL    HW134676   2.524   1.032   4.650
44279SOL    HW234677   2.656   1.070   4.715
44280SOL     OW34678   0.404   3.071   8.791
44280SOL    HW134679   0.362   2.996   8.748
44280SOL    HW234680   0.340   3.100   8.856
44281SOL     OW34681   6.794  14.109   8.072
44281SOL    HW134682   6.871  14.052   8.074
44281SOL    HW234683   6.721  14.051   8.095
44282SOL     OW34684   8.363   5.741   1.986
44282SOL    HW134685   8.384   5.834   1.986
44282SOL    HW234686   8.304   5.730   2.061
44283SOL     OW34687  10.078   6.777   5.717
44283SOL    HW134688  10.122   6.829   5.784
44283SOL    HW234689   9.994   6.754   5.756
44284SOL     OW34690   3.576  12.041   9.741
44284SOL    HW134691   3.553  12.015   9.652
44284SOL    HW234692   3.647  12.104   9.730
44285SOL     OW34693  14.715   4.560   4.437
44285SOL    HW134694  14.714   4.613   4.358
44285SOL    HW234695  14.636   4.586   4.485
44286SOL     OW34696   1.264   1.460   1.325
44286SOL    HW134697   1.314   1.483   1.247
44286SOL    HW234698   1.310   1.385   1.362
44287SOL     OW34699  10.778   4.930   9.477
44287SOL    HW134700  10.849   4.995   9.473
44287SOL    HW234701  10.806   4.869   9.546
44288SOL     OW34702   7.949  14.012  10.878
44288SOL    HW134703   8.013  13.955  10.836
44288SOL    HW234704   7.907  13.956  10.944
44289SOL     OW34705   0.621   0.216   7.355
44289SOL    HW134706   0.558   0.280   7.386
44289SOL    HW234707   0.704   0.264   7.352
44290SOL     OW34708   0.353  14.353   2.866
44290SOL    HW134709   0.313  14.344   2.952
44290SOL    HW234710   0.320  14.279   2.815
44291SOL     OW34711   0.004   3.063   7.965
44291SOL    HW134712  14.864   2.979   8.008
44291SOL    HW234713   0.097   3.064   7.943
44292SOL     OW34714  10.411   8.957   0.486
44292SOL    HW134715  10.360   9.029   0.449
44292SOL    HW234716  10.391   8.882   0.431
44293SOL     OW34717   0.192   2.304  13.525
44293SOL    HW134718   0.130   2.267  13.462
44293SOL    HW234719   0.237   2.228  13.563
44294SOL     OW34720   0.614   5.547   2.805
44294SOL    HW134721   0.574   5.521   2.888
44294SOL    HW234722   0.579   5.485   2.741
44295SOL     OW34723   1.249   0.395   4.987
44295SOL    HW134724   1.255   0.303   5.012
44295SOL    HW234725   1.160   0.406   4.955
44296SOL     OW34726   4.881   3.290   0.395
44296SOL    HW134727   4.937   3.361   0.426
44296SOL    HW234728   4.882   3.300   0.300
44297SOL     OW34729   3.749   6.874   7.405
44297SOL    HW134730   3.763   6.807   7.471
44297SOL    HW234731   3.837   6.896   7.374
44298SOL     OW34732  14.283  11.182  10.268
44298SOL    HW134733  14.354  11.161  10.207
44298SOL    HW234734  14.205  11.145  10.228
44299SOL     OW34735   7.065   8.254  14.136
44299SOL    HW134736   6.973   8.282  14.140
44299SOL    HW234737   7.113   8.325  14.181
44300SOL     OW34738  14.750  10.070  11.807
44300SOL    HW134739  14.741  10.120  11.726
44300SOL    HW234740  14.808   9.998  11.784
44301SOL     OW34741   5.826   5.233  11.885
44301SOL    HW134742   5.895   5.208  11.823
44301SOL    HW234743   5.831   5.328  11.890
44302SOL     OW34744   1.195  12.426   4.597
44302SOL    HW134745   1.180  12.350   4.540
44302SOL    HW234746   1.194  12.501   4.537
44303SOL     OW34747  10.606  13.207  11.170
44303SOL    HW134748  10.642  13.267  11.236
44303SOL    HW234749  10.667  13.132  11.171
44304SOL     OW34750   8.035  12.835  10.102
44304SOL    HW134751   8.040  12.879  10.017
44304SOL    HW234752   8.124  12.837  10.135
44305SOL     OW34753  11.476  12.909  12.517
44305SOL    HW134754  11.437  12.981  12.468
44305SOL    HW234755  11.489  12.945  12.605
44306SOL     OW34756   4.190   7.191   5.998
44306SOL    HW134757   4.193   7.237   5.913
44306SOL    HW234758   4.147   7.253   6.057
44307SOL     OW34759   0.571   9.347  13.480
44307SOL    HW134760   0.656   9.320  13.445
44307SOL    HW234761   0.532   9.266  13.514
44308SOL     OW34762   8.646   5.049   1.549
44308SOL    HW134763   8.681   5.007   1.627
44308SOL    HW234764   8.551   5.041   1.558
44309SOL     OW34765   1.973   2.108   7.289
44309SOL    HW134766   2.015   2.026   7.317
44309SOL    HW234767   2.044   2.173   7.294
44310SOL     OW34768   4.939   0.320   6.314
44310SOL    HW134769   4.984   0.266   6.379
44310SOL    HW234770   4.849   0.327   6.348
44311SOL     OW34771   8.673   7.394  13.320
44311SOL    HW134772   8.633   7.368  13.402
44311SOL    HW234773   8.623   7.471  13.292
44312SOL     OW34774   5.685  13.826   8.830
44312SOL    HW134775   5.628  13.898   8.803
44312SOL    HW234776   5.630  13.748   8.824
44313SOL     OW34777  10.633   6.575   2.702
44313SOL    HW134778  10.688   6.533   2.636
44313SOL    HW234779  10.675   6.660   2.716
44314SOL     OW34780  10.875   4.137   1.802
44314SOL    HW134781  10.898   4.229   1.806
44314SOL    HW234782  10.919   4.105   1.723
44315SOL     OW34783  14.420   4.691  14.859
44315SOL    HW134784  14.355   4.662  14.795
44315SOL    HW234785  14.470   4.758  14.814
44316SOL     OW34786  11.356  10.340   2.243
44316SOL    HW134787  11.403  10.419   2.269
44316SOL    HW234788  11.289  10.329   2.310
44317SOL     OW34789   0.592   3.237   7.448
44317SOL    HW134790   0.673   3.209   7.491
44317SOL    HW234791   0.538   3.270   7.520
44318SOL     OW34792   0.375  13.846   2.122
44318SOL    HW134793   0.455  13.794   2.110
44318SOL    HW234794   0.373  13.905   2.047
44319SOL     OW34795  13.780   6.745   0.274
44319SOL    HW134796  13.710   6.743   0.339
44319SOL    HW234797  13.743   6.702   0.197
44320SOL     OW34798  11.402  12.568   8.597
44320SOL    HW134799  11.343  12.643   8.588
44320SOL    HW234800  11.368  12.519   8.672
44321SOL     OW34801   0.911   8.486   9.609
44321SOL    HW134802   0.972   8.488   9.683
44321SOL    HW234803   0.843   8.424   9.636
44322SOL     OW34804   6.134   4.324   4.483
44322SOL    HW134805   6.081   4.396   4.449
44322SOL    HW234806   6.163   4.354   4.569
44323SOL     OW34807   5.090   2.591   2.228
44323SOL    HW134808   5.054   2.580   2.140
44323SOL    HW234809   5.097   2.502   2.262
44324SOL     OW34810  13.600   1.279   6.038
44324SOL    HW134811  13.685   1.322   6.032
44324SOL    HW234812  13.549   1.315   5.966
44325SOL     OW34813   0.124   0.345   1.682
44325SOL    HW134814   0.197   0.407   1.679
44325SOL    HW234815   0.152   0.277   1.743
44326SOL     OW34816   3.555   9.468   2.824
44326SOL    HW134817   3.650   9.471   2.811
44326SOL    HW234818   3.526   9.389   2.779
44327SOL     OW34819  12.798   4.426   7.832
44327SOL    HW134820  12.812   4.443   7.925
44327SOL    HW234821  12.868   4.365   7.808
44328SOL     OW34822  11.891  11.588   9.219
44328SOL    HW134823  11.953  11.536   9.269
44328SOL    HW234824  11.874  11.537   9.139
44329SOL     OW34825   9.704   9.736   2.526
44329SOL    HW134826   9.668   9.674   2.590
44329SOL    HW234827   9.721   9.815   2.576
44330SOL     OW34828   6.145   6.609  10.553
44330SOL    HW134829   6.063   6.560  10.556
44330SOL    HW234830   6.212   6.544  10.533
44331SOL     OW34831   9.672   9.525  14.602
44331SOL    HW134832   9.599   9.581  14.576
44331SOL    HW234833   9.730   9.582  14.653
44332SOL     OW34834   5.518   3.361   5.481
44332SOL    HW134835   5.449   3.392   5.422
44332SOL    HW234836   5.577   3.311   5.425
44333SOL     OW34837   0.113   8.784  12.023
44333SOL    HW134838   0.050   8.779  11.951
44333SOL    HW234839   0.107   8.875  12.053
44334SOL     OW34840   5.672   1.826   2.980
44334SOL    HW134841   5.709   1.801   2.895
44334SOL    HW234842   5.742   1.808   3.043
44335SOL     OW34843   4.581   9.423   3.938
44335SOL    HW134844   4.512   9.424   3.872
44335SOL    HW234845   4.662   9.430   3.888
44336SOL     OW34846  10.158   5.276  14.869
44336SOL    HW134847  10.231   5.309  14.817
44336SOL    HW234848  10.131   5.195  14.825
44337SOL     OW34849   0.700   4.577   1.581
44337SOL    HW134850   0.637   4.536   1.639
44337SOL    HW234851   0.786   4.553   1.616
44338SOL     OW34852  12.207   2.367   5.863
44338SOL    HW134853  12.295   2.382   5.829
44338SOL    HW234854  12.220   2.312   5.941
44339SOL     OW34855  14.059  13.673   9.052
44339SOL    HW134856  14.057  13.600   9.113
44339SOL    HW234857  14.151  13.680   9.025
44340SOL     OW34858   2.439   6.282   7.200
44340SOL    HW134859   2.351   6.250   7.181
44340SOL    HW234860   2.437   6.308   7.292
44341SOL     OW34861   5.316  12.680   0.367
44341SOL    HW134862   5.409  12.669   0.349
44341SOL    HW234863   5.313  12.731   0.448
44342SOL     OW34864   8.230   9.526   9.947
44342SOL    HW134865   8.192   9.518   9.859
44342SOL    HW234866   8.323   9.543   9.932
44343SOL     OW34867   6.668  10.599   0.092
44343SOL    HW134868   6.673  10.550   0.175
44343SOL    HW234869   6.694  10.688   0.116
44344SOL     OW34870   7.292   2.102  13.050
44344SOL    HW134871   7.336   2.030  13.094
44344SOL    HW234872   7.200   2.077  13.046
44345SOL     OW34873   9.309  12.538   5.637
44345SOL    HW134874   9.304  12.459   5.583
44345SOL    HW234875   9.365  12.598   5.588
44346SOL     OW34876   8.184   6.597  13.441
44346SOL    HW134877   8.154   6.537  13.509
44346SOL    HW234878   8.151   6.560  13.359
44347SOL     OW34879   0.534  12.463   3.447
44347SOL    HW134880   0.469  12.418   3.502
44347SOL    HW234881   0.612  12.407   3.453
44348SOL     OW34882  13.540  10.431   4.871
44348SOL    HW134883  13.563  10.486   4.797
44348SOL    HW234884  13.478  10.367   4.835
44349SOL     OW34885   3.191  10.680   0.042
44349SOL    HW134886   3.193  10.710  14.825
44349SOL    HW234887   3.117  10.726   0.081
44350SOL     OW34888   9.312   2.059   8.385
44350SOL    HW134889   9.379   2.004   8.426
44350SOL    HW234890   9.317   2.039   8.292
44351SOL     OW34891   6.392   0.084   4.109
44351SOL    HW134892   6.358   0.031   4.181
44351SOL    HW234893   6.338   0.062   4.034
44352SOL     OW34894   7.353  13.704   7.510
44352SOL    HW134895   7.286  13.693   7.443
44352SOL    HW234896   7.368  13.616   7.544
44353SOL     OW34897  13.093   3.164   5.039
44353SOL    HW134898  13.116   3.231   4.975
44353SOL    HW234899  13.024   3.113   4.997
44354SOL     OW34900  14.266   0.619   8.432
44354SOL    HW134901  14.212   0.677   8.485
44354SOL    HW234902  14.315   0.567   8.496
44355SOL     OW34903   7.620   7.084   3.534
44355SOL    HW134904   7.639   7.006   3.587
44355SOL    HW234905   7.636   7.056   3.444
44356SOL     OW34906   4.950  10.324   9.932
44356SOL    HW134907   5.036  10.367   9.930
44356SOL    HW234908   4.969  10.232   9.915
44357SOL     OW34909   9.509  10.778   9.300
44357SOL    HW134910   9.432  10.731   9.267
44357SOL    HW234911   9.532  10.839   9.229
44358SOL     OW34912   2.174  11.987  10.261
44358SOL    HW134913   2.249  12.038  10.293
44358SOL    HW234914   2.213  11.919  10.207
44359SOL     OW34915   0.275   3.458   8.876
44359SOL    HW134916   0.313   3.422   8.796
44359SOL    HW234917   0.291   3.552   8.870
44360SOL     OW34918   6.462  10.656  12.165
44360SOL    HW134919   6.488  10.632  12.254
44360SOL    HW234920   6.384  10.711  12.176
44361SOL     OW34921  10.551  11.303   5.776
44361SOL    HW134922  10.550  11.360   5.853
44361SOL    HW234923  10.633  11.325   5.731
44362SOL     OW34924   5.178   9.437  14.574
44362SOL    HW134925   5.158   9.378  14.501
44362SOL    HW234926   5.234   9.384  14.632
44363SOL     OW34927   1.025  11.754  12.537
44363SOL    HW134928   1.045  11.762  12.630
44363SOL    HW234929   0.984  11.837  12.514
44364SOL     OW34930   6.678  14.404   6.441
44364SOL    HW134931   6.711  14.334   6.385
44364SOL    HW234932   6.615  14.361   6.500
44365SOL     OW34933  12.749   0.295   1.502
44365SOL    HW134934  12.792   0.275   1.419
44365SOL    HW234935  12.680   0.357   1.478
44366SOL     OW34936   8.534  13.533  14.168
44366SOL    HW134937   8.554  13.499  14.256
44366SOL    HW234938   8.617  13.570  14.137
44367SOL     OW34939  12.819  10.375   3.060
44367SOL    HW134940  12.913  10.362   3.071
44367SOL    HW234941  12.787  10.399   3.147
44368SOL     OW34942   8.647   6.936   9.362
44368SOL    HW134943   8.572   6.920   9.419
44368SOL    HW234944   8.630   7.022   9.323
44369SOL     OW34945   8.854   2.940   5.475
44369SOL    HW134946   8.866   3.026   5.436
44369SOL    HW234947   8.897   2.945   5.560
44370SOL     OW34948  11.391  14.308   8.130
44370SOL    HW134949  11.299  14.283   8.121
44370SOL    HW234950  11.415  14.340   8.043
44371SOL     OW34951   8.928   5.522   1.802
44371SOL    HW134952   8.967   5.435   1.794
44371SOL    HW234953   8.835   5.508   1.784
44372SOL     OW34954   9.034   3.442   0.168
44372SOL    HW134955   9.051   3.349   0.186
44372SOL    HW234956   9.120   3.479   0.149
44373SOL     OW34957   5.686   5.486   2.752
44373SOL    HW134958   5.632   5.408   2.765
44373SOL    HW234959   5.683   5.532   2.836
44374SOL     OW34960   4.431   7.409   2.612
44374SOL    HW134961   4.378   7.330   2.613
44374SOL    HW234962   4.515   7.383   2.651
44375SOL     OW34963  11.021   5.123  11.813
44375SOL    HW134964  10.928   5.101  11.814
44375SOL    HW234965  11.045   5.121  11.720
44376SOL     OW34966  10.967   8.525   1.231
44376SOL    HW134967  11.003   8.486   1.311
44376SOL    HW234968  10.875   8.501   1.232
44377SOL     OW34969   7.508   1.006   0.233
44377SOL    HW134970   7.525   0.979   0.323
44377SOL    HW234971   7.530   0.930   0.181
44378SOL     OW34972   9.923   6.407   9.565
44378SOL    HW134973   9.852   6.443   9.513
44378SOL    HW234974   9.999   6.409   9.507
44379SOL     OW34975   9.746   4.011  10.045
44379SOL    HW134976   9.749   4.056  10.130
44379SOL    HW234977   9.660   4.033  10.010
44380SOL     OW34978  12.371   8.227  11.959
44380SOL    HW134979  12.426   8.193  11.889
44380SOL    HW234980  12.365   8.155  12.022
44381SOL     OW34981   2.151  11.653  11.230
44381SOL    HW134982   2.186  11.704  11.303
44381SOL    HW234983   2.099  11.716  11.180
44382SOL     OW34984   4.825   3.289   0.097
44382SOL    HW134985   4.743   3.296   0.048
44382SOL    HW234986   4.832   3.196   0.120
44383SOL     OW34987  10.305  14.378  13.676
44383SOL    HW134988  10.357  14.457  13.663
44383SOL    HW234989  10.254  14.369  13.596
44384SOL     OW34990   6.910   4.638  13.753
44384SOL    HW134991   6.978   4.679  13.701
44384SOL    HW234992   6.854   4.711  13.781
44385SOL     OW34993   4.852   9.285  13.392
44385SOL    HW134994   4.774   9.324  13.431
44385SOL    HW234995   4.823   9.253  13.306
44386SOL     OW34996   8.692   9.245   1.851
44386SOL    HW134997   8.745   9.228   1.929
44386SOL    HW234998   8.744   9.210   1.779
44387SOL     OW34999  13.923   0.066   8.181
44387SOL    HW135000  13.923   0.027   8.094
44387SOL    HW235001  13.921  14.865   8.241
44388SOL     OW35002  10.681   7.016   7.496
44388SOL    HW135003  10.741   6.944   7.516
44388SOL    HW235004  10.630   7.027   7.576
44389SOL     OW35005   2.165   3.008   5.890
44389SOL    HW135006   2.162   3.014   5.795
44389SOL    HW235007   2.190   3.096   5.919
44390SOL     OW35008   4.003  14.056   2.343
44390SOL    HW135009   3.928  14.038   2.400
44390SOL    HW235010   4.063  14.107   2.398
44391SOL     OW35011   4.440   7.290   3.197
44391SOL    HW135012   4.515   7.329   3.242
44391SOL    HW235013   4.465   7.290   3.105
44392SOL     OW35014   7.850   0.526   1.969
44392SOL    HW135015   7.837   0.564   2.056
44392SOL    HW235016   7.767   0.538   1.924
44393SOL     OW35017   9.168   1.023   7.018
44393SOL    HW135018   9.212   1.081   6.958
44393SOL    HW235019   9.170   1.069   7.102
44394SOL     OW35020   7.130   1.145   3.417
44394SOL    HW135021   7.109   1.175   3.505
44394SOL    HW235022   7.102   1.053   3.416
44395SOL     OW35023   7.114  11.034   9.912
44395SOL    HW135024   7.113  11.130   9.911
44395SOL    HW235025   7.033  11.010   9.957
44396SOL     OW35026   0.494   2.819   4.154
44396SOL    HW135027   0.418   2.875   4.172
44396SOL    HW235028   0.557   2.842   4.223
44397SOL     OW35029  14.232   0.485   2.500
44397SOL    HW135030  14.173   0.531   2.441
44397SOL    HW235031  14.174   0.437   2.559
44398SOL     OW35032  11.994   3.211  12.750
44398SOL    HW135033  12.037   3.233  12.833
44398SOL    HW235034  11.902   3.229  12.765
44399SOL     OW35035  10.376   7.887  12.578
44399SOL    HW135036  10.451   7.848  12.623
44399SOL    HW235037  10.391   7.981  12.585
44400SOL     OW35038   5.713  12.745  10.478
44400SOL    HW135039   5.751  12.693  10.407
44400SOL    HW235040   5.661  12.812  10.433
44401SOL     OW35041  10.970  10.919   8.905
44401SOL    HW135042  10.954  11.012   8.918
44401SOL    HW235043  10.988  10.884   8.992
44402SOL     OW35044  12.266   3.030   2.761
44402SOL    HW135045  12.216   3.051   2.682
44402SOL    HW235046  12.236   3.094   2.826
44403SOL     OW35047  13.939   7.054   7.360
44403SOL    HW135048  13.880   7.063   7.435
44403SOL    HW235049  14.011   7.000   7.394
44404SOL     OW35050   4.218   8.772  10.115
44404SOL    HW135051   4.190   8.751  10.026
44404SOL    HW235052   4.313   8.783  10.108
44405SOL     OW35053   3.073   3.800  14.409
44405SOL    HW135054   3.144   3.809  14.345
44405SOL    HW235055   3.007   3.746  14.365
44406SOL     OW35056  10.737   9.528   8.825
44406SOL    HW135057  10.741   9.624   8.822
44406SOL    HW235058  10.740   9.507   8.918
44407SOL     OW35059   7.225   0.095   2.162
44407SOL    HW135060   7.256   0.011   2.129
44407SOL    HW235061   7.245   0.157   2.091
44408SOL     OW35062   7.178   5.099   8.934
44408SOL    HW135063   7.142   5.069   9.017
44408SOL    HW235064   7.271   5.114   8.952
44409SOL     OW35065  12.601   4.248   7.000
44409SOL    HW135066  12.528   4.299   6.965
44409SOL    HW235067  12.633   4.197   6.925
44410SOL     OW35068  12.672   2.191   1.599
44410SOL    HW135069  12.619   2.257   1.643
44410SOL    HW235070  12.650   2.109   1.644
44411SOL     OW35071  11.371   3.563  10.246
44411SOL    HW135072  11.324   3.480  10.250
44411SOL    HW235073  11.429   3.554  10.170
44412SOL     OW35074  13.844   2.637   2.864
44412SOL    HW135075  13.806   2.563   2.911
44412SOL    HW235076  13.824   2.619   2.772
44413SOL     OW35077   9.772   4.646   3.350
44413SOL    HW135078   9.722   4.642   3.269
44413SOL    HW235079   9.836   4.575   3.342
44414SOL     OW35080  13.682   4.838   3.468
44414SOL    HW135081  13.625   4.902   3.426
44414SOL    HW235082  13.768   4.853   3.429
44415SOL     OW35083   5.641   9.600   7.104
44415SOL    HW135084   5.643   9.644   7.189
44415SOL    HW235085   5.690   9.519   7.118
44416SOL     OW35086   3.676   4.616   7.252
44416SOL    HW135087   3.646   4.526   7.245
44416SOL    HW235088   3.733   4.628   7.176
44417SOL     OW35089   0.488   8.368   9.709
44417SOL    HW135090   0.468   8.367   9.615
44417SOL    HW235091   0.553   8.299   9.720
44418SOL     OW35092  13.451  10.771  13.687
44418SOL    HW135093  13.535  10.810  13.664
44418SOL    HW235094  13.386  10.826  13.643
44419SOL     OW35095   8.660  10.646  13.103
44419SOL    HW135096   8.682  10.707  13.033
44419SOL    HW235097   8.728  10.660  13.169
44420SOL     OW35098   6.311   2.375   6.599
44420SOL    HW135099   6.382   2.339   6.651
44420SOL    HW235100   6.348   2.386   6.511
44421SOL     OW35101   2.847   2.398   9.418
44421SOL    HW135102   2.885   2.322   9.460
44421SOL    HW235103   2.918   2.462   9.414
44422SOL     OW35104   4.893   3.343   6.219
44422SOL    HW135105   4.902   3.406   6.290
44422SOL    HW235106   4.901   3.257   6.260
44423SOL     OW35107  12.258   4.249   1.621
44423SOL    HW135108  12.234   4.304   1.696
44423SOL    HW235109  12.352   4.265   1.610
44424SOL     OW35110  10.847   7.276   6.910
44424SOL    HW135111  10.815   7.270   6.820
44424SOL    HW235112  10.768   7.287   6.963
44425SOL     OW35113   4.125   2.864   5.136
44425SOL    HW135114   4.202   2.893   5.184
44425SOL    HW235115   4.123   2.769   5.147
44426SOL     OW35116   0.130  14.723  13.517
44426SOL    HW135117   0.096  14.639  13.548
44426SOL    HW235118   0.159  14.768  13.596
44427SOL     OW35119  10.068   3.063   8.221
44427SOL    HW135120  10.058   3.054   8.316
44427SOL    HW235121  10.137   3.129   8.210
44428SOL     OW35122   3.741  14.145   8.622
44428SOL    HW135123   3.776  14.231   8.644
44428SOL    HW235124   3.817  14.095   8.593
44429SOL     OW35125  13.758  14.601  13.744
44429SOL    HW135126  13.787  14.685  13.778
44429SOL    HW235127  13.779  14.604  13.650
44430SOL     OW35128  13.404   7.278   1.867
44430SOL    HW135129  13.310   7.287   1.885
44430SOL    HW235130  13.420   7.341   1.797
44431SOL     OW35131   5.939  14.204  12.485
44431SOL    HW135132   5.999  14.147  12.533
44431SOL    HW235133   5.853  14.180  12.517
44432SOL     OW35134  11.781  11.198   5.911
44432SOL    HW135135  11.758  11.130   5.848
44432SOL    HW235136  11.871  11.178   5.937
44433SOL     OW35137   3.270   5.612   7.221
44433SOL    HW135138   3.357   5.619   7.259
44433SOL    HW235139   3.212   5.597   7.296
44434SOL     OW35140   3.883   2.700  10.927
44434SOL    HW135141   3.885   2.604  10.926
44434SOL    HW235142   3.912   2.726  10.839
44435SOL     OW35143  11.013   8.786   9.187
44435SOL    HW135144  10.964   8.865   9.211
44435SOL    HW235145  10.949   8.715   9.196
44436SOL     OW35146   3.144   9.173   7.545
44436SOL    HW135147   3.072   9.235   7.531
44436SOL    HW235148   3.213   9.226   7.584
44437SOL     OW35149  14.283   9.945  13.109
44437SOL    HW135150  14.241   9.899  13.181
44437SOL    HW235151  14.357   9.990  13.148
44438SOL     OW35152  10.982   5.990   2.236
44438SOL    HW135153  10.933   5.923   2.189
44438SOL    HW235154  11.008   6.052   2.168
44439SOL     OW35155   9.868   7.374  13.917
44439SOL    HW135156   9.956   7.393  13.950
44439SOL    HW235157   9.845   7.451  13.865
44440SOL     OW35158  11.532  14.063   7.877
44440SOL    HW135159  11.619  14.066   7.837
44440SOL    HW235160  11.529  13.978   7.921
44441SOL     OW35161   6.537   3.643   6.033
44441SOL    HW135162   6.517   3.560   5.990
44441SOL    HW235163   6.462   3.699   6.014
44442SOL     OW35164  11.711   9.146   9.305
44442SOL    HW135165  11.768   9.094   9.362
44442SOL    HW235166  11.772   9.193   9.248
44443SOL     OW35167   1.055   2.279  14.579
44443SOL    HW135168   1.052   2.270  14.483
44443SOL    HW235169   0.968   2.250  14.608
44444SOL     OW35170   7.610  11.669   8.451
44444SOL    HW135171   7.619  11.635   8.362
44444SOL    HW235172   7.687  11.636   8.498
44445SOL     OW35173  11.887   5.081   0.720
44445SOL    HW135174  11.848   5.062   0.634
44445SOL    HW235175  11.958   5.143   0.701
44446SOL     OW35176   7.802   2.255   1.056
44446SOL    HW135177   7.730   2.206   1.016
44446SOL    HW235178   7.875   2.241   0.996
44447SOL     OW35179  10.102   7.154   0.478
44447SOL    HW135180  10.095   7.165   0.573
44447SOL    HW235181  10.134   7.239   0.447
44448SOL     OW35182  11.725   3.981  13.976
44448SOL    HW135183  11.818   3.970  13.993
44448SOL    HW235184  11.684   3.976  14.063
44449SOL     OW35185   1.837   6.967   1.866
44449SOL    HW135186   1.877   6.997   1.948
44449SOL    HW235187   1.849   6.873   1.867
44450SOL     OW35188   4.971   8.659  11.363
44450SOL    HW135189   4.932   8.691  11.281
44450SOL    HW235190   4.942   8.722  11.429
44451SOL     OW35191   4.348   8.124   5.145
44451SOL    HW135192   4.349   8.030   5.162
44451SOL    HW235193   4.428   8.140   5.095
44452SOL     OW35194   5.413  11.815  11.298
44452SOL    HW135195   5.407  11.896  11.247
44452SOL    HW235196   5.381  11.839  11.385
44453SOL     OW35197   2.410  10.092   8.580
44453SOL    HW135198   2.479  10.144   8.540
44453SOL    HW235199   2.333  10.149   8.580
44454SOL     OW35200   6.119   5.204   2.770
44454SOL    HW135201   6.075   5.288   2.784
44454SOL    HW235202   6.124   5.195   2.675
44455SOL     OW35203  13.531   6.968   1.431
44455SOL    HW135204  13.510   6.876   1.451
44455SOL    HW235205  13.616   6.964   1.388
44456SOL     OW35206   7.536   5.172   3.271
44456SOL    HW135207   7.593   5.133   3.338
44456SOL    HW235208   7.565   5.263   3.264
44457SOL     OW35209   0.046   6.036  10.542
44457SOL    HW135210   0.062   6.040  10.448
44457SOL    HW235211   0.041   6.128  10.570
44458SOL     OW35212   6.448   9.883   5.049
44458SOL    HW135213   6.412   9.915   5.132
44458SOL    HW235214   6.541   9.905   5.054
44459SOL     OW35215  12.705  12.610   5.070
44459SOL    HW135216  12.632  12.605   5.009
44459SOL    HW235217  12.686  12.686   5.125
44460SOL     OW35218  14.630  12.579   7.709
44460SOL    HW135219  14.587  12.499   7.739
44460SOL    HW235220  14.689  12.550   7.639
44461SOL     OW35221   2.593   8.001   4.021
44461SOL    HW135222   2.576   7.907   4.027
44461SOL    HW235223   2.669   8.016   4.077
44462SOL     OW35224   3.663   4.217   6.937
44462SOL    HW135225   3.614   4.233   6.856
44462SOL    HW235226   3.680   4.122   6.936
44463SOL     OW35227  10.954  11.982  12.342
44463SOL    HW135228  10.973  11.928  12.418
44463SOL    HW235229  10.944  11.919  12.270
44464SOL     OW35230   9.363   7.304   4.895
44464SOL    HW135231   9.434   7.338   4.840
44464SOL    HW235232   9.406   7.278   4.976
44465SOL     OW35233  10.714   6.024   3.544
44465SOL    HW135234  10.777   6.085   3.582
44465SOL    HW235235  10.752   5.999   3.460
44466SOL     OW35236   0.174   4.797   4.767
44466SOL    HW135237   0.231   4.762   4.835
44466SOL    HW235238   0.086   4.765   4.791
44467SOL     OW35239   3.542  11.147  13.375
44467SOL    HW135240   3.463  11.173  13.327
44467SOL    HW235241   3.510  11.085  13.440
44468SOL     OW35242  14.108   6.190   3.765
44468SOL    HW135243  14.056   6.233   3.834
44468SOL    HW235244  14.044   6.143   3.712
44469SOL     OW35245   5.539  13.338   6.217
44469SOL    HW135246   5.588  13.420   6.219
44469SOL    HW235247   5.512  13.324   6.307
44470SOL     OW35248   1.924   9.611   6.903
44470SOL    HW135249   1.847   9.554   6.910
44470SOL    HW235250   1.951   9.626   6.994
44471SOL     OW35251   8.035  13.893   4.202
44471SOL    HW135252   8.115  13.865   4.158
44471SOL    HW235253   8.022  13.983   4.174
44472SOL     OW35254  14.643  10.552   7.641
44472SOL    HW135255  14.725  10.519   7.604
44472SOL    HW235256  14.668  10.633   7.685
44473SOL     OW35257   0.559  10.875  13.648
44473SOL    HW135258   0.518  10.796  13.684
44473SOL    HW235259   0.509  10.894  13.569
44474SOL     OW35260  12.524   8.713   9.613
44474SOL    HW135261  12.614   8.680   9.611
44474SOL    HW235262  12.534   8.809   9.613
44475SOL     OW35263   6.350   1.978   8.551
44475SOL    HW135264   6.377   1.961   8.641
44475SOL    HW235265   6.422   1.945   8.498
44476SOL     OW35266   8.047   0.420   7.645
44476SOL    HW135267   8.088   0.364   7.579
44476SOL    HW235268   8.113   0.485   7.667
44477SOL     OW35269   2.770  12.572   3.806
44477SOL    HW135270   2.676  12.591   3.804
44477SOL    HW235271   2.797  12.579   3.714
44478SOL     OW35272   9.015   0.273   1.041
44478SOL    HW135273   8.960   0.248   1.115
44478SOL    HW235274   9.104   0.265   1.074
44479SOL     OW35275   2.055  11.151  11.796
44479SOL    HW135276   2.031  11.093  11.868
44479SOL    HW235277   2.004  11.119  11.721
44480SOL     OW35278   0.606  12.016  14.612
44480SOL    HW135279   0.603  11.927  14.646
44480SOL    HW235280   0.520  12.030  14.572
44481SOL     OW35281   7.321   2.124   1.541
44481SOL    HW135282   7.237   2.131   1.495
44481SOL    HW235283   7.297   2.115   1.633
44482SOL     OW35284  12.735  11.665  14.363
44482SOL    HW135285  12.709  11.725  14.433
44482SOL    HW235286  12.831  11.659  14.371
44483SOL     OW35287   3.188  12.804   5.433
44483SOL    HW135288   3.279  12.831   5.429
44483SOL    HW235289   3.161  12.796   5.341
44484SOL     OW35290   2.530   6.524   9.199
44484SOL    HW135291   2.521   6.484   9.286
44484SOL    HW235292   2.441   6.542   9.171
44485SOL     OW35293   4.475  12.465   3.986
44485SOL    HW135294   4.487  12.559   4.000
44485SOL    HW235295   4.385  12.448   4.012
44486SOL     OW35296   0.083  14.383  12.782
44486SOL    HW135297   0.073  14.314  12.716
44486SOL    HW235298   0.004  14.379  12.834
44487SOL     OW35299  14.696  10.445  12.836
44487SOL    HW135300  14.673  10.538  12.825
44487SOL    HW235301  14.784  10.447  12.875
44488SOL     OW35302  13.497  12.412   6.854
44488SOL    HW135303  13.428  12.479   6.855
44488SOL    HW235304  13.478  12.357   6.930
44489SOL     OW35305   9.646   8.601   5.496
44489SOL    HW135306   9.569   8.631   5.449
44489SOL    HW235307   9.646   8.506   5.485
44490SOL     OW35308   8.256   7.126  10.585
44490SOL    HW135309   8.180   7.107  10.529
44490SOL    HW235310   8.218   7.143  10.672
44491SOL     OW35311   3.478   5.388   5.396
44491SOL    HW135312   3.498   5.468   5.444
44491SOL    HW235313   3.514   5.403   5.309
44492SOL     OW35314   5.954   6.259   1.161
44492SOL    HW135315   5.997   6.344   1.178
44492SOL    HW235316   5.968   6.244   1.068
44493SOL     OW35317   9.150   0.222   1.689
44493SOL    HW135318   9.211   0.163   1.645
44493SOL    HW235319   9.093   0.254   1.618
44494SOL     OW35320   5.298  13.019  12.351
44494SOL    HW135321   5.305  13.078  12.277
44494SOL    HW235322   5.363  12.951  12.334
44495SOL     OW35323   0.721  13.911   5.078
44495SOL    HW135324   0.775  13.982   5.044
44495SOL    HW235325   0.702  13.936   5.169
44496SOL     OW35326   9.150   5.999   6.773
44496SOL    HW135327   9.222   5.994   6.836
44496SOL    HW235328   9.122   6.090   6.775
44497SOL     OW35329   0.913   1.105  11.809
44497SOL    HW135330   0.869   1.022  11.794
44497SOL    HW235331   0.868   1.143  11.885
44498SOL     OW35332   6.879   4.348   6.168
44498SOL    HW135333   6.940   4.300   6.112
44498SOL    HW235334   6.799   4.353   6.118
44499SOL     OW35335   6.965   3.922   9.020
44499SOL    HW135336   7.015   3.973   9.084
44499SOL    HW235337   6.873   3.942   9.039
44500SOL     OW35338  14.401   8.393   8.399
44500SOL    HW135339  14.319   8.379   8.351
44500SOL    HW235340  14.406   8.488   8.409
44501SOL     OW35341  11.200   2.428  12.463
44501SOL    HW135342  11.209   2.438  12.368
44501SOL    HW235343  11.255   2.497  12.500
44502SOL     OW35344   5.967   3.070   8.612
44502SOL    HW135345   5.987   3.009   8.541
44502SOL    HW235346   6.003   3.028   8.690
44503SOL     OW35347   4.797   3.450   8.440
44503SOL    HW135348   4.724   3.395   8.468
44503SOL    HW235349   4.831   3.408   8.362
44504SOL     OW35350   7.466   3.504   6.749
44504SOL    HW135351   7.504   3.592   6.745
44504SOL    HW235352   7.542   3.446   6.745
44505SOL     OW35353   6.903   3.459   9.379
44505SOL    HW135354   6.877   3.392   9.316
44505SOL    HW235355   6.976   3.418   9.427
44506SOL     OW35356  13.689   2.005  12.213
44506SOL    HW135357  13.643   2.076  12.257
44506SOL    HW235358  13.728   2.046  12.135
44507SOL     OW35359   3.178   9.046  14.007
44507SOL    HW135360   3.209   9.080  14.091
44507SOL    HW235361   3.177   8.951  14.020
44508SOL     OW35362  10.002  12.934  12.346
44508SOL    HW135363  10.029  12.858  12.295
44508SOL    HW235364   9.919  12.961  12.307
44509SOL     OW35365   4.835   1.087   6.312
44509SOL    HW135366   4.851   1.052   6.224
44509SOL    HW235367   4.760   1.038   6.344
44510SOL     OW35368   3.867  13.753  14.511
44510SOL    HW135369   3.845  13.757  14.418
44510SOL    HW235370   3.935  13.819  14.523
44511SOL     OW35371   2.203  12.212   4.352
44511SOL    HW135372   2.151  12.244   4.426
44511SOL    HW235373   2.154  12.137   4.319
44512SOL     OW35374   4.117  11.384   0.441
44512SOL    HW135375   4.083  11.325   0.509
44512SOL    HW235376   4.039  11.408   0.390
44513SOL     OW35377  14.144  14.748   4.391
44513SOL    HW135378  14.098  14.808   4.449
44513SOL    HW235379  14.178  14.803   4.321
44514SOL     OW35380  13.701   2.415   9.513
44514SOL    HW135381  13.752   2.482   9.467
44514SOL    HW235382  13.766   2.364   9.560
44515SOL     OW35383   5.150  13.821   1.305
44515SOL    HW135384   5.068  13.866   1.326
44515SOL    HW235385   5.133  13.730   1.326
44516SOL     OW35386  12.648  11.526  13.500
44516SOL    HW135387  12.686  11.438  13.508
44516SOL    HW235388  12.722  11.585  13.512
44517SOL     OW35389   6.083  14.688   1.403
44517SOL    HW135390   5.998  14.729   1.386
44517SOL    HW235391   6.083  14.670   1.497
44518SOL     OW35392   9.566   0.454   7.721
44518SOL    HW135393   9.477   0.444   7.688
44518SOL    HW235394   9.606   0.520   7.664
44519SOL     OW35395   1.866  14.872   8.065
44519SOL    HW135396   1.776  14.865   8.096
44519SOL    HW235397   1.858   0.017   7.972
44520SOL     OW35398   5.017   0.394   9.063
44520SOL    HW135399   5.106   0.405   9.098
44520SOL    HW235400   5.023   0.424   8.973
44521SOL     OW35401  13.452  12.730  13.612
44521SOL    HW135402  13.487  12.694  13.693
44521SOL    HW235403  13.524  12.782  13.576
44522SOL     OW35404   6.782  12.404  13.283
44522SOL    HW135405   6.781  12.308  13.288
44522SOL    HW235406   6.811  12.432  13.370
44523SOL     OW35407   0.014   3.982  14.716
44523SOL    HW135408   0.021   4.036  14.794
44523SOL    HW235409   0.104   3.976  14.682
44524SOL     OW35410   7.184   5.045  14.047
44524SOL    HW135411   7.246   4.993  14.098
44524SOL    HW235412   7.219   5.043  13.958
44525SOL     OW35413  12.443  11.902   1.240
44525SOL    HW135414  12.499  11.912   1.316
44525SOL    HW235415  12.362  11.864   1.274
44526SOL     OW35416  11.711  11.580   3.774
44526SOL    HW135417  11.743  11.667   3.797
44526SOL    HW235418  11.787  11.536   3.737
44527SOL     OW35419   2.807  13.898   5.920
44527SOL    HW135420   2.785  13.987   5.895
44527SOL    HW235421   2.753  13.843   5.864
44528SOL     OW35422   9.770   7.599   9.962
44528SOL    HW135423   9.806   7.662   9.899
44528SOL    HW235424   9.771   7.516   9.915
44529SOL     OW35425   4.980   3.151   3.555
44529SOL    HW135426   4.889   3.123   3.567
44529SOL    HW235427   5.012   3.097   3.482
44530SOL     OW35428  14.251   6.789  13.535
44530SOL    HW135429  14.175   6.752  13.579
44530SOL    HW235430  14.263   6.735  13.457
44531SOL     OW35431  10.831  12.621   3.002
44531SOL    HW135432  10.745  12.639   3.039
44531SOL    HW235433  10.879  12.704   3.011
44532SOL     OW35434   4.400   3.425  13.834
44532SOL    HW135435   4.448   3.498  13.794
44532SOL    HW235436   4.384   3.364  13.763
44533SOL     OW35437   5.970   4.655   8.478
44533SOL    HW135438   5.895   4.596   8.477
44533SOL    HW235439   6.040   4.605   8.519
44534SOL     OW35440   9.312  12.883  13.730
44534SOL    HW135441   9.384  12.834  13.771
44534SOL    HW235442   9.238  12.823  13.730
44535SOL     OW35443   3.474   7.206  14.153
44535SOL    HW135444   3.556   7.190  14.200
44535SOL    HW235445   3.479   7.297  14.124
44536SOL     OW35446  14.085   8.531   5.047
44536SOL    HW135447  14.177   8.549   5.030
44536SOL    HW235448  14.077   8.436   5.039
44537SOL     OW35449   2.855   7.180  11.050
44537SOL    HW135450   2.804   7.244  11.099
44537SOL    HW235451   2.943   7.185  11.087
44538SOL     OW35452   6.368   8.817   3.596
44538SOL    HW135453   6.381   8.901   3.639
44538SOL    HW235454   6.306   8.770   3.652
44539SOL     OW35455   8.223  10.990   0.037
44539SOL    HW135456   8.250  11.050  14.842
44539SOL    HW235457   8.145  11.031   0.075
44540SOL     OW35458   4.851  13.155  14.620
44540SOL    HW135459   4.863  13.061  14.634
44540SOL    HW235460   4.760  13.163  14.591
44541SOL     OW35461  12.387  11.313   1.064
44541SOL    HW135462  12.398  11.366   0.985
44541SOL    HW235463  12.321  11.360   1.115
44542SOL     OW35464   2.426   5.199   9.297
44542SOL    HW135465   2.464   5.285   9.315
44542SOL    HW235466   2.482   5.163   9.228
44543SOL     OW35467   4.901   5.264   3.156
44543SOL    HW135468   4.918   5.172   3.173
44543SOL    HW235469   4.812   5.279   3.187
44544SOL     OW35470   8.408  11.416  14.641
44544SOL    HW135471   8.378  11.505  14.662
44544SOL    HW235472   8.383  11.404  14.549
44545SOL     OW35473   6.842   5.568   7.178
44545SOL    HW135474   6.771   5.633   7.179
44545SOL    HW235475   6.915   5.614   7.138
44546SOL     OW35476   1.564   8.815   3.142
44546SOL    HW135477   1.498   8.831   3.209
44546SOL    HW235478   1.520   8.759   3.078
44547SOL     OW35479   4.547   2.807   0.055
44547SOL    HW135480   4.545   2.787   0.149
44547SOL    HW235481   4.516   2.898   0.049
44548SOL     OW35482  14.223  13.578   3.548
44548SOL    HW135483  14.268  13.590   3.464
44548SOL    HW235484  14.238  13.486   3.570
44549SOL     OW35485   3.893   8.028  13.943
44549SOL    HW135486   3.890   7.933  13.939
44549SOL    HW235487   3.986   8.049  13.954
44550SOL     OW35488   8.453   4.762  13.253
44550SOL    HW135489   8.377   4.706  13.269
44550SOL    HW235490   8.484   4.785  13.341
44551SOL     OW35491   6.858   3.677  10.078
44551SOL    HW135492   6.788   3.691  10.015
44551SOL    HW235493   6.921   3.622  10.032
44552SOL     OW35494  14.432   7.991   5.143
44552SOL    HW135495  14.379   8.065   5.172
44552SOL    HW235496  14.385   7.914   5.175
44553SOL     OW35497   2.290   2.521   7.940
44553SOL    HW135498   2.329   2.468   8.010
44553SOL    HW235499   2.350   2.595   7.930
44554SOL     OW35500  14.187   2.399   0.584
44554SOL    HW135501  14.263   2.455   0.566
44554SOL    HW235502  14.226   2.316   0.611
44555SOL     OW35503   4.189   1.743   9.705
44555SOL    HW135504   4.170   1.728   9.613
44555SOL    HW235505   4.118   1.700   9.752
44556SOL     OW35506  11.802   9.514   7.114
44556SOL    HW135507  11.768   9.510   7.203
44556SOL    HW235508  11.888   9.473   7.119
44557SOL     OW35509   5.224   4.311   6.359
44557SOL    HW135510   5.193   4.285   6.446
44557SOL    HW235511   5.309   4.352   6.375
44558SOL     OW35512   3.286  14.380   3.413
44558SOL    HW135513   3.368  14.355   3.455
44558SOL    HW235514   3.270  14.470   3.442
44559SOL     OW35515   7.854  11.293   7.794
44559SOL    HW135516   7.882  11.310   7.704
44559SOL    HW235517   7.788  11.225   7.786
44560SOL     OW35518   2.749   7.805   2.395
44560SOL    HW135519   2.743   7.891   2.438
44560SOL    HW235520   2.842   7.798   2.371
44561SOL     OW35521   5.761   1.033   7.073
44561SOL    HW135522   5.855   1.021   7.056
44561SOL    HW235523   5.753   1.020   7.167
44562SOL     OW35524   5.604   8.970   5.862
44562SOL    HW135525   5.515   8.941   5.843
44562SOL    HW235526   5.660   8.908   5.815
44563SOL     OW35527   8.975   8.010   1.327
44563SOL    HW135528   9.013   7.963   1.253
44563SOL    HW235529   9.051   8.044   1.374
44564SOL     OW35530  14.685  14.745   1.218
44564SOL    HW135531  14.630  14.726   1.294
44564SOL    HW235532  14.625  14.744   1.144
44565SOL     OW35533  10.949   7.038  12.675
44565SOL    HW135534  10.897   7.113  12.645
44565SOL    HW235535  10.992   7.071  12.754
44566SOL     OW35536   2.033   0.292  11.399
44566SOL    HW135537   2.103   0.256  11.453
44566SOL    HW235538   1.965   0.317  11.462
44567SOL     OW35539   8.654   0.452   3.970
44567SOL    HW135540   8.706   0.531   3.988
44567SOL    HW235541   8.563   0.481   3.981
44568SOL     OW35542  14.664   6.106   5.283
44568SOL    HW135543  14.573   6.125   5.305
44568SOL    HW235544  14.672   6.010   5.291
44569SOL     OW35545  12.791   8.485  11.814
44569SOL    HW135546  12.764   8.563  11.765
44569SOL    HW235547  12.714   8.462  11.867
44570SOL     OW35548  11.583   3.019   8.599
44570SOL    HW135549  11.649   2.951   8.611
44570SOL    HW235550  11.584   3.067   8.682
44571SOL     OW35551  11.260  12.667  12.797
44571SOL    HW135552  11.310  12.662  12.715
44571SOL    HW235553  11.174  12.631  12.774
44572SOL     OW35554   7.648   3.430   4.154
44572SOL    HW135555   7.613   3.358   4.207
44572SOL    HW235556   7.574   3.488   4.141
44573SOL     OW35557  11.473  12.774   4.669
44573SOL    HW135558  11.444  12.692   4.628
44573SOL    HW235559  11.546  12.803   4.614
44574SOL     OW35560  14.588   6.439   2.906
44574SOL    HW135561  14.524   6.509   2.891
44574SOL    HW235562  14.589   6.427   3.001
44575SOL     OW35563   3.422   8.868   9.687
44575SOL    HW135564   3.489   8.811   9.650
44575SOL    HW235565   3.429   8.949   9.636
44576SOL     OW35566   9.514  14.399   7.672
44576SOL    HW135567   9.457  14.460   7.719
44576SOL    HW235568   9.498  14.314   7.713
44577SOL     OW35569   5.576   2.570   8.287
44577SOL    HW135570   5.543   2.652   8.324
44577SOL    HW235571   5.523   2.502   8.328
44578SOL     OW35572  14.196   7.733   8.581
44578SOL    HW135573  14.274   7.678   8.577
44578SOL    HW235574  14.220   7.803   8.642
44579SOL     OW35575  10.653   0.064   6.360
44579SOL    HW135576  10.577   0.007   6.353
44579SOL    HW235577  10.663   0.080   6.454
44580SOL     OW35578   0.745   7.768   1.725
44580SOL    HW135579   0.770   7.854   1.693
44580SOL    HW235580   0.826   7.716   1.719
44581SOL     OW35581   5.321   3.243   3.149
44581SOL    HW135582   5.318   3.282   3.062
44581SOL    HW235583   5.287   3.311   3.207
44582SOL     OW35584   5.500  13.647   8.230
44582SOL    HW135585   5.580  13.638   8.178
44582SOL    HW235586   5.501  13.571   8.288
44583SOL     OW35587  13.857   3.884   5.684
44583SOL    HW135588  13.903   3.859   5.765
44583SOL    HW235589  13.921   3.869   5.615
44584SOL     OW35590   6.396  14.141   5.113
44584SOL    HW135591   6.329  14.139   5.181
44584SOL    HW235592   6.407  14.049   5.088
44585SOL     OW35593   9.760   9.331   2.560
44585SOL    HW135594   9.734   9.255   2.612
44585SOL    HW235595   9.732   9.406   2.611
44586SOL     OW35596   9.821   9.948  14.556
44586SOL    HW135597   9.807  10.022  14.497
44586SOL    HW235598   9.867   9.883  14.503
44587SOL     OW35599  10.748   8.585  14.212
44587SOL    HW135600  10.736   8.578  14.117
44587SOL    HW235601  10.821   8.526  14.232
44588SOL     OW35602   6.764  13.276   9.196
44588SOL    HW135603   6.790  13.216   9.266
44588SOL    HW235604   6.677  13.245   9.170
44589SOL     OW35605  14.543   8.881   8.051
44589SOL    HW135606  14.461   8.884   8.002
44589SOL    HW235607  14.598   8.818   8.003
44590SOL     OW35608   0.400  10.001  10.455
44590SOL    HW135609   0.415  10.051  10.535
44590SOL    HW235610   0.308   9.976  10.459
44591SOL     OW35611   3.961   2.253   8.270
44591SOL    HW135612   4.051   2.253   8.239
44591SOL    HW235613   3.916   2.317   8.215
44592SOL     OW35614   5.630  10.411   4.533
44592SOL    HW135615   5.716  10.372   4.545
44592SOL    HW235616   5.619  10.416   4.438
44593SOL     OW35617   7.989   5.887   3.354
44593SOL    HW135618   7.920   5.947   3.325
44593SOL    HW235619   7.979   5.810   3.298
44594SOL     OW35620   2.701   0.320  14.796
44594SOL    HW135621   2.672   0.306  14.706
44594SOL    HW235622   2.771   0.257  14.809
44595SOL     OW35623  12.524   2.396   4.777
44595SOL    HW135624  12.588   2.461   4.805
44595SOL    HW235625  12.452   2.405   4.839
44596SOL     OW35626  12.554   4.564   5.052
44596SOL    HW135627  12.485   4.596   5.110
44596SOL    HW235628  12.571   4.637   4.992
44597SOL     OW35629   3.415  14.181  13.752
44597SOL    HW135630   3.395  14.241  13.824
44597SOL    HW235631   3.438  14.237  13.678
44598SOL     OW35632   7.066  10.396   2.466
44598SOL    HW135633   7.150  10.441   2.470
44598SOL    HW235634   7.002  10.462   2.493
44599SOL     OW35635   2.785  13.128   9.643
44599SOL    HW135636   2.855  13.080   9.686
44599SOL    HW235637   2.829  13.205   9.606
44600SOL     OW35638  11.371   2.556   3.075
44600SOL    HW135639  11.466   2.548   3.081
44600SOL    HW235640  11.338   2.470   3.102
44601SOL     OW35641  13.686   3.780   1.847
44601SOL    HW135642  13.656   3.786   1.938
44601SOL    HW235643  13.609   3.749   1.799
44602SOL     OW35644   8.951   9.630  10.932
44602SOL    HW135645   8.867   9.589  10.910
44602SOL    HW235646   8.943   9.720  10.899
44603SOL     OW35647   5.437   2.876   1.671
44603SOL    HW135648   5.452   2.897   1.763
44603SOL    HW235649   5.481   2.945   1.622
44604SOL     OW35650   5.078   3.721   1.074
44604SOL    HW135651   5.120   3.781   1.011
44604SOL    HW235652   5.033   3.779   1.136
44605SOL     OW35653  12.953  14.568   7.133
44605SOL    HW135654  12.871  14.594   7.176
44605SOL    HW235655  13.014  14.639   7.153
44606SOL     OW35656   9.784   5.577  13.781
44606SOL    HW135657   9.721   5.551  13.849
44606SOL    HW235658   9.746   5.655  13.741
44607SOL     OW35659  10.510  10.891  12.817
44607SOL    HW135660  10.545  10.959  12.760
44607SOL    HW235661  10.438  10.852  12.767
44608SOL     OW35662   0.755  11.766  12.492
44608SOL    HW135663   0.717  11.782  12.579
44608SOL    HW235664   0.847  11.747  12.510
44609SOL     OW35665   5.203   1.074  13.953
44609SOL    HW135666   5.275   1.026  13.994
44609SOL    HW235667   5.170   1.132  14.023
44610SOL     OW35668   8.116  14.425  13.879
44610SOL    HW135669   8.156  14.358  13.934
44610SOL    HW235670   8.158  14.416  13.794
44611SOL     OW35671  10.360   3.538   8.558
44611SOL    HW135672  10.272   3.518   8.526
44611SOL    HW235673  10.396   3.598   8.493
44612SOL     OW35674   3.150  10.409  11.441
44612SOL    HW135675   3.197  10.492  11.453
44612SOL    HW235676   3.160  10.364  11.525
44613SOL     OW35677   2.105   3.312   8.032
44613SOL    HW135678   2.090   3.389   8.088
44613SOL    HW235679   2.075   3.339   7.946
44614SOL     OW35680   9.905   7.193   3.797
44614SOL    HW135681   9.937   7.184   3.707
44614SOL    HW235682   9.983   7.188   3.851
44615SOL     OW35683   3.164  12.172   5.725
44615SOL    HW135684   3.247  12.129   5.705
44615SOL    HW235685   3.189  12.246   5.780
44616SOL     OW35686   8.730   3.247  10.680
44616SOL    HW135687   8.754   3.295  10.759
44616SOL    HW235688   8.669   3.304  10.634
44617SOL     OW35689   9.486   0.060  10.853
44617SOL    HW135690   9.479   0.102  10.767
44617SOL    HW235691   9.396   0.059  10.886
44618SOL     OW35692   6.595   5.319   3.246
44618SOL    HW135693   6.689   5.338   3.241
44618SOL    HW235694   6.581   5.253   3.178
44619SOL     OW35695   3.430   6.732   5.151
44619SOL    HW135696   3.337   6.752   5.156
44619SOL    HW235697   3.446   6.714   5.058
44620SOL     OW35698   7.664   5.773  11.131
44620SOL    HW135699   7.590   5.719  11.104
44620SOL    HW235700   7.635   5.863  11.115
44621SOL     OW35701  11.873  10.433   1.379
44621SOL    HW135702  11.815  10.501   1.414
44621SOL    HW235703  11.914  10.473   1.302
44622SOL     OW35704  13.577  13.680   6.336
44622SOL    HW135705  13.513  13.728   6.389
44622SOL    HW235706  13.655  13.736   6.336
44623SOL     OW35707   4.617   3.162   8.305
44623SOL    HW135708   4.548   3.102   8.331
44623SOL    HW235709   4.689   3.106   8.276
44624SOL     OW35710   5.391   7.494   8.278
44624SOL    HW135711   5.359   7.443   8.204
44624SOL    HW235712   5.454   7.437   8.321
44625SOL     OW35713   2.534  12.554   6.384
44625SOL    HW135714   2.581  12.598   6.455
44625SOL    HW235715   2.475  12.621   6.349
44626SOL     OW35716  13.518   2.227   4.210
44626SOL    HW135717  13.611   2.229   4.186
44626SOL    HW235718  13.486   2.143   4.176
44627SOL     OW35719  10.472   8.441   7.161
44627SOL    HW135720  10.479   8.386   7.239
44627SOL    HW235721  10.426   8.386   7.097
44628SOL     OW35722  12.762  13.795  11.517
44628SOL    HW135723  12.728  13.790  11.607
44628SOL    HW235724  12.796  13.884  11.509
44629SOL     OW35725  10.743   0.716  10.808
44629SOL    HW135726  10.730   0.795  10.861
44629SOL    HW235727  10.801   0.661  10.861
44630SOL     OW35728   8.556   1.461   6.933
44630SOL    HW135729   8.604   1.508   7.001
44630SOL    HW235730   8.624   1.426   6.875
44631SOL     OW35731   9.831   9.038  13.778
44631SOL    HW135732   9.896   8.987  13.730
44631SOL    HW235733   9.882   9.095  13.834
44632SOL     OW35734  11.955  10.662  13.327
44632SOL    HW135735  11.877  10.609  13.348
44632SOL    HW235736  11.932  10.707  13.246
44633SOL     OW35737   7.764   2.533  13.571
44633SOL    HW135738   7.677   2.503  13.597
44633SOL    HW235739   7.818   2.454  13.572
44634SOL     OW35740   2.782   7.347   2.910
44634SOL    HW135741   2.819   7.434   2.922
44634SOL    HW235742   2.779   7.309   2.998
44635SOL     OW35743   5.121  10.227   6.758
44635SOL    HW135744   5.207  10.194   6.781
44635SOL    HW235745   5.110  10.306   6.811
44636SOL     OW35746   3.589   0.408  12.866
44636SOL    HW135747   3.589   0.504  12.871
44636SOL    HW235748   3.589   0.389  12.773
44637SOL     OW35749   1.556  12.206   2.876
44637SOL    HW135750   1.464  12.186   2.893
44637SOL    HW235751   1.575  12.165   2.792
44638SOL     OW35752   2.672  13.749   5.730
44638SOL    HW135753   2.610  13.821   5.722
44638SOL    HW235754   2.683  13.717   5.640
44639SOL     OW35755   8.480   5.988   1.975
44639SOL    HW135756   8.453   6.046   1.904
44639SOL    HW235757   8.465   6.040   2.054
44640SOL     OW35758  10.605  14.685  14.303
44640SOL    HW135759  10.583  14.593  14.290
44640SOL    HW235760  10.673  14.703  14.238
44641SOL     OW35761   0.795   0.973   8.581
44641SOL    HW135762   0.796   0.893   8.633
44641SOL    HW235763   0.716   1.019   8.609
44642SOL     OW35764  14.461   0.604   3.303
44642SOL    HW135765  14.408   0.528   3.279
44642SOL    HW235766  14.465   0.658   3.224
44643SOL     OW35767   9.912   4.065  11.648
44643SOL    HW135768   9.914   4.154  11.685
44643SOL    HW235769   9.962   4.012  11.710
44644SOL     OW35770   3.322  10.416   7.197
44644SOL    HW135771   3.365  10.332   7.184
44644SOL    HW235772   3.368  10.476   7.139
44645SOL     OW35773   2.505   7.736  10.406
44645SOL    HW135774   2.427   7.762  10.357
44645SOL    HW235775   2.559   7.690  10.342
44646SOL     OW35776   9.916   0.264   2.280
44646SOL    HW135777   9.973   0.198   2.241
44646SOL    HW235778   9.931   0.256   2.375
44647SOL     OW35779   8.640   3.292  12.287
44647SOL    HW135780   8.564   3.314  12.341
44647SOL    HW235781   8.712   3.282  12.350
44648SOL     OW35782  12.770   6.118   0.987
44648SOL    HW135783  12.808   6.169   1.058
44648SOL    HW235784  12.684   6.092   1.018
44649SOL     OW35785  11.477   5.355   7.721
44649SOL    HW135786  11.408   5.384   7.660
44649SOL    HW235787  11.440   5.277   7.763
44650SOL     OW35788   5.124   9.584   4.620
44650SOL    HW135789   5.184   9.546   4.556
44650SOL    HW235790   5.039   9.582   4.577
44651SOL     OW35791  13.861   8.341   8.986
44651SOL    HW135792  13.768   8.320   8.972
44651SOL    HW235793  13.860   8.417   9.044
44652SOL     OW35794  13.316  13.126   1.897
44652SOL    HW135795  13.335  13.219   1.891
44652SOL    HW235796  13.272  13.116   1.982
44653SOL     OW35797   9.772   9.070   0.841
44653SOL    HW135798   9.729   8.998   0.887
44653SOL    HW235799   9.750   9.148   0.893
44654SOL     OW35800  12.509   0.740  11.536
44654SOL    HW135801  12.535   0.750  11.628
44654SOL    HW235802  12.588   0.760  11.486
44655SOL     OW35803   3.528  13.814   2.232
44655SOL    HW135804   3.492  13.854   2.311
44655SOL    HW235805   3.560  13.728   2.262
44656SOL     OW35806   4.509   5.185  12.962
44656SOL    HW135807   4.446   5.161  13.030
44656SOL    HW235808   4.483   5.272  12.934
44657SOL     OW35809   8.689   0.978  13.513
44657SOL    HW135810   8.761   0.996  13.453
44657SOL    HW235811   8.610   1.003  13.464
44658SOL     OW35812  13.131   4.755  10.855
44658SOL    HW135813  13.145   4.727  10.946
44658SOL    HW235814  13.037   4.770  10.850
44659SOL     OW35815   6.418   0.722   6.751
44659SOL    HW135816   6.429   0.692   6.841
44659SOL    HW235817   6.323   0.715   6.736
44660SOL     OW35818   3.964   0.408  10.248
44660SOL    HW135819   3.885   0.363  10.217
44660SOL    HW235820   3.933   0.495  10.273
44661SOL     OW35821   4.770   3.203   6.997
44661SOL    HW135822   4.784   3.235   7.086
44661SOL    HW235823   4.757   3.108   7.007
44662SOL     OW35824  12.409   0.823   5.627
44662SOL    HW135825  12.448   0.855   5.708
44662SOL    HW235826  12.326   0.870   5.621
44663SOL     OW35827   0.456   6.903   1.514
44663SOL    HW135828   0.428   6.966   1.448
44663SOL    HW235829   0.376   6.882   1.563
44664SOL     OW35830  11.252  12.910   4.032
44664SOL    HW135831  11.168  12.885   3.994
44664SOL    HW235832  11.303  12.942   3.958
44665SOL     OW35833   4.214   3.761   5.164
44665SOL    HW135834   4.178   3.676   5.139
44665SOL    HW235835   4.225   3.756   5.259
44666SOL     OW35836   9.774  13.040  11.447
44666SOL    HW135837   9.748  13.098  11.376
44666SOL    HW235838   9.760  12.952  11.412
44667SOL     OW35839  13.001   1.314  11.726
44667SOL    HW135840  13.013   1.409  11.727
44667SOL    HW235841  12.999   1.291  11.634
44668SOL     OW35842   9.703   4.424  11.906
44668SOL    HW135843   9.609   4.411  11.894
44668SOL    HW235844   9.710   4.494  11.971
44669SOL     OW35845   5.786  13.595   4.189
44669SOL    HW135846   5.827  13.619   4.273
44669SOL    HW235847   5.802  13.671   4.133
44670SOL     OW35848  13.964   4.070  11.905
44670SOL    HW135849  14.049   4.026  11.906
44670SOL    HW235850  13.981   4.154  11.863
44671SOL     OW35851  12.268   4.057   9.081
44671SOL    HW135852  12.205   4.130   9.086
44671SOL    HW235853  12.252   4.007   9.161
44672SOL     OW35854  11.113  14.614  10.036
44672SOL    HW135855  11.184  14.593  10.097
44672SOL    HW235856  11.121  14.709  10.022
44673SOL     OW35857   8.147   4.781   1.112
44673SOL    HW135858   8.240   4.778   1.136
44673SOL    HW235859   8.142   4.846   1.041
44674SOL     OW35860   8.235   5.525   5.200
44674SOL    HW135861   8.170   5.485   5.258
44674SOL    HW235862   8.226   5.476   5.118
44675SOL     OW35863   8.043   6.414  13.574
44675SOL    HW135864   7.992   6.362  13.512
44675SOL    HW235865   8.042   6.362  13.655
44676SOL     OW35866   3.397  12.800   0.045
44676SOL    HW135867   3.309  12.770   0.022
44676SOL    HW235868   3.434  12.831  14.837
44677SOL     OW35869   7.573   8.009   3.414
44677SOL    HW135870   7.534   7.971   3.335
44677SOL    HW235871   7.509   8.076   3.442
44678SOL     OW35872  12.777  14.489  12.521
44678SOL    HW135873  12.732  14.526  12.597
44678SOL    HW235874  12.723  14.516  12.446
44679SOL     OW35875   9.520   6.797   2.823
44679SOL    HW135876   9.471   6.722   2.857
44679SOL    HW235877   9.482   6.815   2.737
44680SOL     OW35878   7.541   8.594  11.256
44680SOL    HW135879   7.463   8.618  11.205
44680SOL    HW235880   7.519   8.510  11.296
44681SOL     OW35881   1.480   1.194   2.931
44681SOL    HW135882   1.464   1.279   2.890
44681SOL    HW235883   1.547   1.211   2.997
44682SOL     OW35884   3.314  12.414   3.750
44682SOL    HW135885   3.257  12.442   3.678
44682SOL    HW235886   3.255  12.372   3.812
44683SOL     OW35887  10.450   9.973   7.335
44683SOL    HW135888  10.378   9.982   7.397
44683SOL    HW235889  10.528   9.972   7.390
44684SOL     OW35890   9.505   2.185  10.008
44684SOL    HW135891   9.503   2.114   9.944
44684SOL    HW235892   9.555   2.254   9.964
44685SOL     OW35893   0.674   7.458   8.951
44685SOL    HW135894   0.760   7.480   8.987
44685SOL    HW235895   0.684   7.471   8.857
44686SOL     OW35896  14.824  11.789   2.751
44686SOL    HW135897  14.760  11.817   2.685
44686SOL    HW235898   0.035  11.807   2.711
44687SOL     OW35899   6.468   6.671  12.919
44687SOL    HW135900   6.491   6.642  12.831
44687SOL    HW235901   6.493   6.598  12.976
44688SOL     OW35902   4.751  13.904   3.244
44688SOL    HW135903   4.727  13.930   3.155
44688SOL    HW235904   4.700  13.825   3.260
44689SOL     OW35905  12.002   3.297   2.188
44689SOL    HW135906  11.968   3.245   2.115
44689SOL    HW235907  12.074   3.244   2.223
44690SOL     OW35908   9.001   6.891  10.681
44690SOL    HW135909   9.030   6.837  10.608
44690SOL    HW235910   8.907   6.901  10.669
44691SOL     OW35911   6.519  10.379   6.522
44691SOL    HW135912   6.549  10.375   6.431
44691SOL    HW235913   6.474  10.295   6.536
44692SOL     OW35914   5.222   2.818  11.875
44692SOL    HW135915   5.311   2.786  11.887
44692SOL    HW235916   5.204   2.803  11.782
44693SOL     OW35917  11.539  14.276   9.619
44693SOL    HW135918  11.609  14.340   9.629
44693SOL    HW235919  11.510  14.257   9.708
44694SOL     OW35920  10.301   0.678   2.773
44694SOL    HW135921  10.304   0.598   2.720
44694SOL    HW235922  10.381   0.724   2.752
44695SOL     OW35923  12.630   1.086   5.723
44695SOL    HW135924  12.678   1.020   5.674
44695SOL    HW235925  12.692   1.114   5.791
44696SOL     OW35926   7.207   4.261   5.343
44696SOL    HW135927   7.298   4.273   5.315
44696SOL    HW235928   7.204   4.301   5.430
44697SOL     OW35929  11.675   3.934   7.336
44697SOL    HW135930  11.616   3.873   7.379
44697SOL    HW235931  11.760   3.890   7.334
44698SOL     OW35932  10.365   9.092   5.159
44698SOL    HW135933  10.270   9.104   5.156
44698SOL    HW235934  10.377   8.998   5.148
44699SOL     OW35935   6.459   3.755  12.382
44699SOL    HW135936   6.491   3.664  12.382
44699SOL    HW235937   6.381   3.752  12.327
44700SOL     OW35938   3.425   6.225   3.590
44700SOL    HW135939   3.342   6.205   3.633
44700SOL    HW235940   3.459   6.301   3.637
44701SOL     OW35941  10.672  11.889   9.673
44701SOL    HW135942  10.658  11.797   9.695
44701SOL    HW235943  10.737  11.887   9.602
44702SOL     OW35944  13.810   5.353   4.864
44702SOL    HW135945  13.815   5.349   4.960
44702SOL    HW235946  13.900   5.339   4.835
44703SOL     OW35947   9.791   1.232  14.829
44703SOL    HW135948   9.742   1.300  14.783
44703SOL    HW235949   9.853   1.279   0.010
44704SOL     OW35950  14.418  10.181   2.557
44704SOL    HW135951  14.335  10.162   2.601
44704SOL    HW235952  14.454  10.255   2.605
44705SOL     OW35953  14.102   6.467  12.793
44705SOL    HW135954  14.121   6.453  12.886
44705SOL    HW235955  14.144   6.550  12.772
44706SOL     OW35956  10.094  11.379  12.339
44706SOL    HW135957  10.023  11.401  12.278
44706SOL    HW235958  10.051  11.331  12.410
44707SOL     OW35959   2.510   7.034   9.114
44707SOL    HW135960   2.602   7.059   9.103
44707SOL    HW235961   2.460   7.109   9.080
44708SOL     OW35962   9.514  10.287  11.777
44708SOL    HW135963   9.512  10.359  11.840
44708SOL    HW235964   9.585  10.310  11.717
44709SOL     OW35965   0.658   7.842   4.167
44709SOL    HW135966   0.578   7.865   4.120
44709SOL    HW235967   0.672   7.915   4.228
44710SOL     OW35968   1.330   6.449  10.024
44710SOL    HW135969   1.240   6.437  10.053
44710SOL    HW235970   1.323   6.472   9.931
44711SOL     OW35971  12.865   3.616  11.837
44711SOL    HW135972  12.836   3.528  11.812
44711SOL    HW235973  12.924   3.602  11.911
44712SOL     OW35974   2.729   7.392   5.622
44712SOL    HW135975   2.698   7.320   5.566
44712SOL    HW235976   2.819   7.367   5.644
44713SOL     OW35977  12.874  14.486   2.210
44713SOL    HW135978  12.918  14.482   2.125
44713SOL    HW235979  12.798  14.543   2.195
44714SOL     OW35980   0.697   2.883   1.846
44714SOL    HW135981   0.655   2.817   1.901
44714SOL    HW235982   0.697   2.963   1.900
44715SOL     OW35983   0.111   7.818  10.847
44715SOL    HW135984   0.059   7.878  10.900
44715SOL    HW235985   0.181   7.788  10.905
44716SOL     OW35986  12.024   1.322  14.671
44716SOL    HW135987  11.943   1.372  14.677
44716SOL    HW235988  12.007   1.242  14.720
44717SOL     OW35989   6.547  13.120   9.023
44717SOL    HW135990   6.458  13.128   9.059
44717SOL    HW235991   6.562  13.025   9.019
44718SOL     OW35992  12.300  14.478   6.426
44718SOL    HW135993  12.356  14.405   6.450
44718SOL    HW235994  12.342  14.555   6.464
44719SOL     OW35995   7.672   9.677   1.061
44719SOL    HW135996   7.602   9.739   1.081
44719SOL    HW235997   7.659   9.606   1.123
44720SOL     OW35998  14.516   6.882   4.488
44720SOL    HW135999  14.459   6.836   4.425
44720SOL    HW236000  14.510   6.974   4.463
44721SOL     OW36001   1.755   1.775   7.327
44721SOL    HW136002   1.794   1.702   7.279
44721SOL    HW236003   1.704   1.734   7.397
44722SOL     OW36004   6.359   0.070  11.766
44722SOL    HW136005   6.417  14.869  11.757
44722SOL    HW236006   6.316   0.057  11.850
44723SOL     OW36007   2.437   9.661   4.088
44723SOL    HW136008   2.438   9.630   3.997
44723SOL    HW236009   2.512   9.618   4.129
44724SOL     OW36010   5.897  13.928  13.116
44724SOL    HW136011   5.981  13.894  13.148
44724SOL    HW236012   5.832  13.877  13.163
44725SOL     OW36013   0.135  13.890   0.637
44725SOL    HW136014   0.164  13.870   0.726
44725SOL    HW236015   0.187  13.966   0.611
44726SOL     OW36016  14.667   0.583  13.259
44726SOL    HW136017  14.750   0.543  13.234
44726SOL    HW236018  14.622   0.516  13.309
44727SOL     OW36019   3.333  12.225   2.403
44727SOL    HW136020   3.311  12.289   2.336
44727SOL    HW236021   3.258  12.225   2.463
44728SOL     OW36022   6.339   3.111   4.654
44728SOL    HW136023   6.363   3.064   4.574
44728SOL    HW236024   6.254   3.150   4.635
44729SOL     OW36025   1.079   2.840   0.440
44729SOL    HW136026   1.066   2.891   0.360
44729SOL    HW236027   1.079   2.905   0.510
44730SOL     OW36028   2.657  14.748   9.485
44730SOL    HW136029   2.564  14.743   9.463
44730SOL    HW236030   2.695  14.803   9.417
44731SOL     OW36031   0.895   6.255   1.739
44731SOL    HW136032   0.907   6.228   1.830
44731SOL    HW236033   0.912   6.176   1.688
44732SOL     OW36034   3.475   9.606   5.530
44732SOL    HW136035   3.468   9.688   5.580
44732SOL    HW236036   3.408   9.549   5.567
44733SOL     OW36037   1.660  14.808   9.897
44733SOL    HW136038   1.749  14.837   9.914
44733SOL    HW236039   1.605  14.863   9.953
44734SOL     OW36040  14.230   1.701   3.229
44734SOL    HW136041  14.324   1.712   3.243
44734SOL    HW236042  14.218   1.606   3.221
44735SOL     OW36043   6.914   5.750   9.163
44735SOL    HW136044   6.894   5.704   9.082
44735SOL    HW236045   6.890   5.689   9.232
44736SOL     OW36046   2.153   3.267   2.019
44736SOL    HW136047   2.124   3.329   2.087
44736SOL    HW236048   2.248   3.266   2.026
44737SOL     OW36049  11.735  10.897   9.979
44737SOL    HW136050  11.698  10.917  10.065
44737SOL    HW236051  11.810  10.841   9.997
44738SOL     OW36052   3.202  11.893   1.030
44738SOL    HW136053   3.266  11.859   1.093
44738SOL    HW236054   3.194  11.986   1.051
44739SOL     OW36055   1.589   8.709   1.622
44739SOL    HW136056   1.626   8.658   1.550
44739SOL    HW236057   1.501   8.732   1.592
44740SOL     OW36058   9.287   9.463  11.160
44740SOL    HW136059   9.331   9.548  11.165
44740SOL    HW236060   9.210   9.473  11.216
44741SOL     OW36061  12.880   3.040   4.887
44741SOL    HW136062  12.785   3.031   4.895
44741SOL    HW236063  12.893   3.088   4.805
44742SOL     OW36064   8.689  12.000   9.589
44742SOL    HW136065   8.650  11.913   9.593
44742SOL    HW236066   8.658  12.037   9.506
44743SOL     OW36067   2.739   8.992  13.218
44743SOL    HW136068   2.741   9.008  13.123
44743SOL    HW236069   2.829   8.969  13.240
44744SOL     OW36070   3.819   0.528   9.845
44744SOL    HW136071   3.871   0.591   9.894
44744SOL    HW236072   3.877   0.452   9.834
44745SOL     OW36073  12.496  12.133   1.048
44745SOL    HW136074  12.453  12.121   0.963
44745SOL    HW236075  12.470  12.055   1.099
44746SOL     OW36076   3.092   1.388   9.117
44746SOL    HW136077   3.148   1.461   9.145
44746SOL    HW236078   3.119   1.314   9.172
44747SOL     OW36079   2.731  11.517   7.703
44747SOL    HW136080   2.671  11.502   7.630
44747SOL    HW236081   2.817  11.523   7.661
44748SOL     OW36082   6.313   6.646   8.319
44748SOL    HW136083   6.357   6.727   8.292
44748SOL    HW236084   6.225   6.653   8.282
44749SOL     OW36085   2.693  14.814  14.811
44749SOL    HW136086   2.778  14.854  14.835
44749SOL    HW236087   2.704  14.721  14.831
44750SOL     OW36088   5.259   2.512   6.168
44750SOL    HW136089   5.177   2.525   6.215
44750SOL    HW236090   5.234   2.467   6.088
44751SOL     OW36091   2.898   0.436  11.559
44751SOL    HW136092   2.953   0.479  11.494
44751SOL    HW236093   2.952   0.430  11.637
44752SOL     OW36094  14.738   8.535   4.086
44752SOL    HW136095  14.701   8.525   4.174
44752SOL    HW236096  14.710   8.457   4.039
44753SOL     OW36097   4.018   5.449   0.949
44753SOL    HW136098   4.109   5.429   0.929
44753SOL    HW236099   4.018   5.474   1.041
44754SOL     OW36100   6.970   8.570   4.198
44754SOL    HW136101   7.059   8.536   4.182
44754SOL    HW236102   6.920   8.542   4.121
44755SOL     OW36103   3.544  14.326   3.520
44755SOL    HW136104   3.608  14.260   3.547
44755SOL    HW236105   3.594  14.383   3.461
44756SOL     OW36106   5.785   4.969   9.973
44756SOL    HW136107   5.869   4.957   9.928
44756SOL    HW236108   5.759   5.059   9.951
44757SOL     OW36109   2.485   7.369   8.359
44757SOL    HW136110   2.542   7.438   8.324
44757SOL    HW236111   2.408   7.416   8.392
44758SOL     OW36112   2.649   2.962   6.730
44758SOL    HW136113   2.722   3.022   6.742
44758SOL    HW236114   2.574   3.019   6.715
44759SOL     OW36115   4.420   4.247   5.806
44759SOL    HW136116   4.399   4.281   5.718
44759SOL    HW236117   4.462   4.163   5.789
44760SOL     OW36118   3.794   5.461   0.207
44760SOL    HW136119   3.792   5.484   0.300
44760SOL    HW236120   3.865   5.514   0.171
44761SOL     OW36121   5.245   4.765   5.534
44761SOL    HW136122   5.184   4.697   5.563
44761SOL    HW236123   5.332   4.726   5.544
44762SOL     OW36124  14.077   6.012  11.094
44762SOL    HW136125  14.080   5.952  11.168
44762SOL    HW236126  14.109   5.960  11.020
44763SOL     OW36127   8.007   3.052   0.298
44763SOL    HW136128   7.954   3.046   0.378
44763SOL    HW236129   8.094   3.023   0.323
44764SOL     OW36130   2.045  13.493  12.555
44764SOL    HW136131   2.052  13.545  12.474
44764SOL    HW236132   1.961  13.448  12.546
44765SOL     OW36133   5.256   1.652   3.974
44765SOL    HW136134   5.286   1.596   3.903
44765SOL    HW236135   5.337   1.682   4.016
44766SOL     OW36136   9.155   9.032  11.180
44766SOL    HW136137   9.250   9.034  11.191
44766SOL    HW236138   9.138   8.947  11.139
44767SOL     OW36139   3.223  12.721   2.530
44767SOL    HW136140   3.284  12.661   2.572
44767SOL    HW236141   3.142  12.711   2.579
44768SOL     OW36142  10.720   1.639  13.371
44768SOL    HW136143  10.639   1.654  13.322
44768SOL    HW236144  10.790   1.658  13.308
44769SOL     OW36145  12.494  14.422   8.253
44769SOL    HW136146  12.424  14.485   8.267
44769SOL    HW236147  12.535  14.448   8.171
44770SOL     OW36148  14.444  13.376  14.110
44770SOL    HW136149  14.538  13.389  14.097
44770SOL    HW236150  14.434  13.281  14.119
44771SOL     OW36151   2.190  12.850   2.938
44771SOL    HW136152   2.171  12.770   2.985
44771SOL    HW236153   2.200  12.917   3.006
44772SOL     OW36154  12.859  11.127   3.991
44772SOL    HW136155  12.919  11.111   4.064
44772SOL    HW236156  12.915  11.156   3.919
44773SOL     OW36157  10.884   2.337   8.078
44773SOL    HW136158  10.922   2.387   8.006
44773SOL    HW236159  10.851   2.257   8.038
44774SOL     OW36160   5.240   3.298   7.904
44774SOL    HW136161   5.161   3.322   7.857
44774SOL    HW236162   5.245   3.361   7.976
44775SOL     OW36163   3.947   2.947   2.221
44775SOL    HW136164   3.875   2.883   2.222
44775SOL    HW236165   3.921   3.012   2.156
44776SOL     OW36166   5.010   3.580  11.112
44776SOL    HW136167   4.939   3.516  11.104
44776SOL    HW236168   5.045   3.565  11.200
44777SOL     OW36169   3.040  13.037   1.565
44777SOL    HW136170   3.050  12.965   1.627
44777SOL    HW236171   2.979  13.004   1.499
44778SOL     OW36172   3.020   3.779   4.827
44778SOL    HW136173   3.005   3.781   4.921
44778SOL    HW236174   2.948   3.829   4.789
44779SOL     OW36175  14.608   3.255  14.064
44779SOL    HW136176  14.674   3.214  14.009
44779SOL    HW236177  14.562   3.182  14.106
44780SOL     OW36178   2.663   6.985   6.404
44780SOL    HW136179   2.588   6.953   6.355
44780SOL    HW236180   2.626   7.046   6.468
44781SOL     OW36181   0.777  11.904  12.023
44781SOL    HW136182   0.769  11.945  12.109
44781SOL    HW236183   0.820  11.820  12.039
44782SOL     OW36184   2.000   5.869   7.113
44782SOL    HW136185   2.037   5.909   7.034
44782SOL    HW236186   2.060   5.799   7.136
44783SOL     OW36187   3.694  10.879   8.607
44783SOL    HW136188   3.731  10.826   8.678
44783SOL    HW236189   3.606  10.902   8.636
44784SOL     OW36190   6.245  12.889  13.216
44784SOL    HW136191   6.303  12.903  13.291
44784SOL    HW236192   6.290  12.932  13.143
44785SOL     OW36193   9.336   2.007   0.138
44785SOL    HW136194   9.364   2.085   0.091
44785SOL    HW236195   9.327   1.940   0.071
44786SOL     OW36196   7.136  14.429   3.632
44786SOL    HW136197   7.223  14.411   3.668
44786SOL    HW236198   7.152  14.495   3.564
44787SOL     OW36199   2.559  13.518   7.233
44787SOL    HW136200   2.483  13.566   7.265
44787SOL    HW236201   2.524  13.461   7.164
44788SOL     OW36202  11.942   9.664   7.546
44788SOL    HW136203  11.851   9.662   7.576
44788SOL    HW236204  11.967   9.756   7.554
44789SOL     OW36205   0.757  11.349  14.323
44789SOL    HW136206   0.783  11.421  14.265
44789SOL    HW236207   0.723  11.282  14.264
44790SOL     OW36208   1.918   8.142   0.755
44790SOL    HW136209   1.949   8.188   0.677
44790SOL    HW236210   1.897   8.054   0.724
44791SOL     OW36211   2.713  11.336   9.002
44791SOL    HW136212   2.755  11.266   9.052
44791SOL    HW236213   2.651  11.376   9.063
44792SOL     OW36214   3.637   9.144  12.374
44792SOL    HW136215   3.655   9.162  12.282
44792SOL    HW236216   3.579   9.068  12.373
44793SOL     OW36217  13.064   9.209   0.010
44793SOL    HW136218  13.072   9.118  14.856
44793SOL    HW236219  12.999   9.207   0.081
44794SOL     OW36220   9.943  14.093   9.657
44794SOL    HW136221  10.030  14.133   9.664
44794SOL    HW236222   9.958  14.013   9.607
44795SOL     OW36223  11.166   0.425  11.366
44795SOL    HW136224  11.170   0.381  11.451
44795SOL    HW236225  11.075   0.415  11.337
44796SOL     OW36226  13.925  10.246   0.695
44796SOL    HW136227  13.905  10.284   0.610
44796SOL    HW236228  13.883  10.160   0.693
44797SOL     OW36229   0.469  13.009  13.562
44797SOL    HW136230   0.440  12.980  13.648
44797SOL    HW236231   0.388  13.016  13.511
44798SOL     OW36232   9.072   2.096   2.881
44798SOL    HW136233   9.010   2.151   2.929
44798SOL    HW236234   9.018   2.040   2.826
44799SOL     OW36235   7.116   7.404   2.680
44799SOL    HW136236   7.161   7.421   2.597
44799SOL    HW236237   7.029   7.441   2.668
44800SOL     OW36238   1.055   7.371   2.107
44800SOL    HW136239   1.033   7.289   2.150
44800SOL    HW236240   0.973   7.401   2.068
44801SOL     OW36241   0.004   1.673   1.769
44801SOL    HW136242  14.797   1.709   1.804
44801SOL    HW236243   0.036   1.739   1.708
44802SOL     OW36244   1.938  10.225   2.295
44802SOL    HW136245   1.977  10.309   2.320
44802SOL    HW236246   1.887  10.246   2.216
44803SOL     OW36247   6.641  13.539  12.560
44803SOL    HW136248   6.663  13.624  12.521
44803SOL    HW236249   6.593  13.494  12.491
44804SOL     OW36250  10.605  13.599  12.298
44804SOL    HW136251  10.665  13.667  12.329
44804SOL    HW236252  10.661  13.539  12.248
44805SOL     OW36253   3.939  14.641   6.025
44805SOL    HW136254   3.907  14.625   5.936
44805SOL    HW236255   4.033  14.654   6.015
44806SOL     OW36256   3.446  11.668   6.969
44806SOL    HW136257   3.512  11.733   6.993
44806SOL    HW236258   3.494  11.586   6.958
44807SOL     OW36259   4.559   0.476   4.600
44807SOL    HW136260   4.628   0.415   4.574
44807SOL    HW236261   4.579   0.497   4.692
44808SOL     OW36262   2.379   2.119  12.943
44808SOL    HW136263   2.416   2.195  12.988
44808SOL    HW236264   2.333   2.156  12.868
44809SOL     OW36265  14.364   1.355  13.403
44809SOL    HW136266  14.381   1.420  13.336
44809SOL    HW236267  14.366   1.405  13.485
44810SOL     OW36268   0.184   9.956   2.349
44810SOL    HW136269   0.254   9.927   2.291
44810SOL    HW236270   0.111   9.898   2.329
44811SOL     OW36271   6.395  12.514   5.014
44811SOL    HW136272   6.452  12.590   4.999
44811SOL    HW236273   6.455  12.442   5.033
44812SOL     OW36274  12.001   9.604   8.683
44812SOL    HW136275  11.970   9.519   8.715
44812SOL    HW236276  11.953   9.669   8.735
44813SOL     OW36277   3.631   8.850   7.434
44813SOL    HW136278   3.660   8.773   7.385
44813SOL    HW236279   3.712   8.895   7.458
44814SOL     OW36280   4.523   8.306   6.587
44814SOL    HW136281   4.596   8.291   6.648
44814SOL    HW236282   4.445   8.291   6.639
44815SOL     OW36283   1.225   8.603   8.985
44815SOL    HW136284   1.279   8.526   8.968
44815SOL    HW236285   1.280   8.661   9.037
44816SOL     OW36286  12.284   2.557   3.973
44816SOL    HW136287  12.359   2.617   3.968
44816SOL    HW236288  12.294   2.499   3.898
44817SOL     OW36289  10.645   7.705   4.657
44817SOL    HW136290  10.710   7.701   4.587
44817SOL    HW236291  10.639   7.614   4.688
44818SOL     OW36292   6.207  12.259   6.842
44818SOL    HW136293   6.256  12.231   6.919
44818SOL    HW236294   6.207  12.182   6.785
44819SOL     OW36295   1.655   5.831  12.034
44819SOL    HW136296   1.711   5.832  11.956
44819SOL    HW236297   1.702   5.774  12.096
44820SOL     OW36298  14.497   5.735  14.736
44820SOL    HW136299  14.418   5.788  14.725
44820SOL    HW236300  14.475   5.674  14.806
44821SOL     OW36301   0.880   3.928  10.833
44821SOL    HW136302   0.933   3.981  10.773
44821SOL    HW236303   0.861   3.848  10.784
44822SOL     OW36304   0.467   8.943  12.902
44822SOL    HW136305   0.544   8.998  12.898
44822SOL    HW236306   0.501   8.854  12.915
44823SOL     OW36307   0.877   3.888   8.268
44823SOL    HW136308   0.796   3.852   8.233
44823SOL    HW236309   0.848   3.961   8.324
44824SOL     OW36310  12.008   0.199  10.314
44824SOL    HW136311  11.921   0.237  10.323
44824SOL    HW236312  12.047   0.208  10.401
44825SOL     OW36313   2.131   8.994   1.355
44825SOL    HW136314   2.155   8.978   1.446
44825SOL    HW236315   2.133   8.908   1.314
44826SOL     OW36316  10.654   3.160   1.306
44826SOL    HW136317  10.654   3.104   1.228
44826SOL    HW236318  10.607   3.109   1.372
44827SOL     OW36319   7.909   2.717   5.685
44827SOL    HW136320   7.906   2.802   5.731
44827SOL    HW236321   7.819   2.685   5.688
44828SOL     OW36322   4.629  13.050   2.393
44828SOL    HW136323   4.667  13.060   2.480
44828SOL    HW236324   4.544  13.008   2.409
44829SOL     OW36325  10.772  13.032  13.183
44829SOL    HW136326  10.688  13.041  13.137
44829SOL    HW236327  10.820  12.968  13.131
44830SOL     OW36328  13.269   1.060  10.597
44830SOL    HW136329  13.178   1.087  10.588
44830SOL    HW236330  13.265   0.972  10.634
44831SOL     OW36331   1.724   1.122  13.193
44831SOL    HW136332   1.731   1.079  13.278
44831SOL    HW236333   1.768   1.062  13.132
44832SOL     OW36334   5.393   1.312   2.939
44832SOL    HW136335   5.352   1.251   3.000
44832SOL    HW236336   5.356   1.397   2.962
44833SOL     OW36337   8.406  11.288   9.468
44833SOL    HW136338   8.357  11.216   9.430
44833SOL    HW236339   8.342  11.337   9.520
44834SOL     OW36340   6.900  11.537   0.659
44834SOL    HW136341   6.836  11.484   0.706
44834SOL    HW236342   6.860  11.552   0.573
44835SOL     OW36343   2.917   9.779  10.747
44835SOL    HW136344   2.893   9.706  10.803
44835SOL    HW236345   2.851   9.778  10.677
44836SOL     OW36346   1.824   3.901  14.351
44836SOL    HW136347   1.777   3.823  14.321
44836SOL    HW236348   1.916   3.884  14.330
44837SOL     OW36349   5.632   1.505   0.574
44837SOL    HW136350   5.663   1.543   0.656
44837SOL    HW236351   5.547   1.466   0.595
44838SOL     OW36352  12.799  12.560   8.497
44838SOL    HW136353  12.808  12.475   8.539
44838SOL    HW236354  12.759  12.616   8.564
44839SOL     OW36355   1.039  10.134  11.020
44839SOL    HW136356   1.113  10.184  10.986
44839SOL    HW236357   0.970  10.200  11.033
44840SOL     OW36358  13.987   9.219   3.466
44840SOL    HW136359  14.012   9.277   3.393
44840SOL    HW236360  13.923   9.270   3.516
44841SOL     OW36361   5.560  13.339   1.500
44841SOL    HW136362   5.516  13.299   1.575
44841SOL    HW236363   5.651  13.349   1.528
44842SOL     OW36364  11.201   1.395   7.155
44842SOL    HW136365  11.162   1.451   7.222
44842SOL    HW236366  11.235   1.320   7.203
44843SOL     OW36367   1.934   8.197  10.675
44843SOL    HW136368   1.995   8.266  10.703
44843SOL    HW236369   1.942   8.195  10.580
44844SOL     OW36370   0.402  11.254  14.691
44844SOL    HW136371   0.467  11.283  14.755
44844SOL    HW236372   0.451  11.243  14.610
44845SOL     OW36373   4.444   1.158  10.385
44845SOL    HW136374   4.518   1.220  10.382
44845SOL    HW236375   4.482   1.075  10.355
44846SOL     OW36376  13.159  12.916   2.852
44846SOL    HW136377  13.184  12.912   2.760
44846SOL    HW236378  13.241  12.932   2.898
44847SOL     OW36379   2.357  10.120   2.114
44847SOL    HW136380   2.285  10.116   2.052
44847SOL    HW236381   2.327  10.069   2.190
44848SOL     OW36382   2.233   8.719   1.191
44848SOL    HW136383   2.200   8.643   1.238
44848SOL    HW236384   2.261   8.684   1.106
44849SOL     OW36385   7.137  14.837   3.972
44849SOL    HW136386   7.131  14.769   4.039
44849SOL    HW236387   7.062  14.819   3.914
44850SOL     OW36388   4.884  13.526   1.941
44850SOL    HW136389   4.976  13.548   1.953
44850SOL    HW236390   4.846  13.533   2.029
44851SOL     OW36391   3.537   9.449   0.907
44851SOL    HW136392   3.618   9.407   0.934
44851SOL    HW236393   3.564   9.520   0.849
44852SOL     OW36394  14.385  14.611   4.835
44852SOL    HW136395  14.313  14.673   4.846
44852SOL    HW236396  14.427  14.638   4.753
44853SOL     OW36397  11.908   4.470   6.972
44853SOL    HW136398  11.826   4.504   7.006
44853SOL    HW236399  11.893   4.377   6.959
44854SOL     OW36400  10.153  13.336   1.177
44854SOL    HW136401  10.223  13.362   1.118
44854SOL    HW236402  10.082  13.399   1.160
44855SOL     OW36403   6.480  14.775   5.902
44855SOL    HW136404   6.483  14.727   5.819
44855SOL    HW236405   6.397  14.824   5.898
44856SOL     OW36406  11.826   7.491  11.859
44856SOL    HW136407  11.919   7.509  11.875
44856SOL    HW236408  11.804   7.422  11.922
44857SOL     OW36409   3.259   5.979  10.825
44857SOL    HW136410   3.335   5.949  10.874
44857SOL    HW236411   3.260   6.075  10.835
44858SOL     OW36412   1.607   3.290  10.168
44858SOL    HW136413   1.698   3.260  10.181
44858SOL    HW236414   1.585   3.335  10.249
44859SOL     OW36415   5.631  14.044   7.065
44859SOL    HW136416   5.639  13.955   7.030
44859SOL    HW236417   5.676  14.041   7.149
44860SOL     OW36418   2.677   8.111   6.758
44860SOL    HW136419   2.751   8.058   6.788
44860SOL    HW236420   2.712   8.162   6.686
44861SOL     OW36421   9.545   3.195  10.722
44861SOL    HW136422   9.617   3.229  10.775
44861SOL    HW236423   9.518   3.269  10.667
44862SOL     OW36424   5.760   0.758   4.924
44862SOL    HW136425   5.749   0.799   5.010
44862SOL    HW236426   5.832   0.696   4.935
44863SOL     OW36427   5.711   8.717   0.634
44863SOL    HW136428   5.705   8.703   0.539
44863SOL    HW236429   5.621   8.729   0.662
44864SOL     OW36430   1.689  13.014   2.612
44864SOL    HW136431   1.611  12.964   2.635
44864SOL    HW236432   1.759  12.949   2.611
44865SOL     OW36433   1.444   7.233   9.453
44865SOL    HW136434   1.435   7.299   9.521
44865SOL    HW236435   1.413   7.152   9.494
44866SOL     OW36436   1.332   3.009  12.966
44866SOL    HW136437   1.402   2.972  12.913
44866SOL    HW236438   1.373   3.028  13.050
44867SOL     OW36439   7.280  10.320  12.734
44867SOL    HW136440   7.246  10.337  12.646
44867SOL    HW236441   7.239  10.386  12.789
44868SOL     OW36442  11.534   2.589   3.736
44868SOL    HW136443  11.562   2.569   3.825
44868SOL    HW236444  11.551   2.509   3.686
44869SOL     OW36445   7.637   1.204  10.583
44869SOL    HW136446   7.561   1.205  10.641
44869SOL    HW236447   7.663   1.295  10.575
44870SOL     OW36448   0.355   9.836   4.277
44870SOL    HW136449   0.426   9.891   4.310
44870SOL    HW236450   0.399   9.770   4.223
44871SOL     OW36451   0.270   4.653   5.398
44871SOL    HW136452   0.277   4.566   5.360
44871SOL    HW236453   0.360   4.684   5.405
44872SOL     OW36454   5.916  13.026   6.014
44872SOL    HW136455   5.926  12.948   6.068
44872SOL    HW236456   5.832  13.064   6.041
44873SOL     OW36457   4.849   8.659  11.991
44873SOL    HW136458   4.896   8.586  12.029
44873SOL    HW236459   4.758   8.647  12.018
44874SOL     OW36460  11.872  10.365   8.750
44874SOL    HW136461  11.963  10.339   8.739
44874SOL    HW236462  11.831  10.345   8.666
44875SOL     OW36463  14.027   7.692   8.392
44875SOL    HW136464  14.077   7.707   8.472
44875SOL    HW236465  13.938   7.717   8.415
44876SOL     OW36466   8.581   1.236  13.048
44876SOL    HW136467   8.605   1.309  12.990
44876SOL    HW236468   8.544   1.170  12.989
44877SOL     OW36469  14.493   7.113   4.317
44877SOL    HW136470  14.566   7.168   4.290
44877SOL    HW236471  14.504   7.032   4.265
44878SOL     OW36472   9.756   8.988   0.132
44878SOL    HW136473   9.825   8.961   0.071
44878SOL    HW236474   9.735   8.908   0.181
44879SOL     OW36475   8.320  10.884   7.690
44879SOL    HW136476   8.360  10.966   7.721
44879SOL    HW236477   8.284  10.844   7.769
44880SOL     OW36478   5.286   3.365   1.699
44880SOL    HW136479   5.315   3.278   1.727
44880SOL    HW236480   5.304   3.367   1.605
44881SOL     OW36481   7.697  12.147   5.796
44881SOL    HW136482   7.671  12.080   5.732
44881SOL    HW236483   7.714  12.225   5.744
44882SOL     OW36484   3.519  11.708   5.000
44882SOL    HW136485   3.439  11.655   4.996
44882SOL    HW236486   3.569  11.670   5.072
44883SOL     OW36487  12.579  10.581   0.175
44883SOL    HW136488  12.667  10.570   0.140
44883SOL    HW236489  12.521  10.557   0.103
44884SOL     OW36490  10.549   3.597  10.208
44884SOL    HW136491  10.570   3.555  10.291
44884SOL    HW236492  10.632   3.637  10.180
44885SOL     OW36493   3.139   2.347   6.596
44885SOL    HW136494   3.145   2.276   6.660
44885SOL    HW236495   3.205   2.410   6.623
44886SOL     OW36496   3.838   0.826   2.305
44886SOL    HW136497   3.826   0.889   2.376
44886SOL    HW236498   3.865   0.745   2.348
44887SOL     OW36499   9.145   4.761   4.318
44887SOL    HW136500   9.181   4.679   4.352
44887SOL    HW236501   9.075   4.733   4.259
44888SOL     OW36502   7.995   7.826  12.164
44888SOL    HW136503   7.958   7.793  12.082
44888SOL    HW236504   7.918   7.848  12.217
44889SOL     OW36505  14.048   5.026   8.956
44889SOL    HW136506  14.083   5.037   8.867
44889SOL    HW236507  14.122   5.046   9.013
44890SOL     OW36508   4.558   7.180  10.069
44890SOL    HW136509   4.503   7.246  10.026
44890SOL    HW236510   4.604   7.228  10.137
44891SOL     OW36511   5.684   0.473   3.244
44891SOL    HW136512   5.591   0.477   3.263
44891SOL    HW236513   5.695   0.522   3.163
44892SOL     OW36514  13.498   2.770   3.791
44892SOL    HW136515  13.580   2.737   3.753
44892SOL    HW236516  13.429   2.724   3.743
44893SOL     OW36517   9.271   9.242   3.880
44893SOL    HW136518   9.206   9.202   3.938
44893SOL    HW236519   9.323   9.169   3.848
44894SOL     OW36520  12.003   3.998   7.363
44894SOL    HW136521  11.967   3.911   7.345
44894SOL    HW236522  12.065   3.983   7.435
44895SOL     OW36523  11.909   7.190  14.342
44895SOL    HW136524  11.920   7.164  14.433
44895SOL    HW236525  11.815   7.180  14.326
44896SOL     OW36526   5.863  12.653   1.607
44896SOL    HW136527   5.811  12.712   1.662
44896SOL    HW236528   5.918  12.605   1.669
44897SOL     OW36529   9.505  12.471   3.844
44897SOL    HW136530   9.573  12.472   3.911
44897SOL    HW236531   9.426  12.499   3.890
44898SOL     OW36532  12.172  12.997  13.559
44898SOL    HW136533  12.212  12.968  13.478
44898SOL    HW236534  12.106  12.930  13.579
44899SOL     OW36535  10.959   0.684   7.689
44899SOL    HW136536  10.921   0.746   7.626
44899SOL    HW236537  10.977   0.737   7.767
44900SOL     OW36538   0.629   7.903  13.452
44900SOL    HW136539   0.663   7.980  13.406
44900SOL    HW236540   0.706   7.856  13.483
44901SOL     OW36541  12.514  13.424   6.116
44901SOL    HW136542  12.532  13.485   6.044
44901SOL    HW236543  12.600  13.406   6.155
44902SOL     OW36544  10.664   1.040  14.521
44902SOL    HW136545  10.629   1.034  14.610
44902SOL    HW236546  10.588   1.027  14.464
44903SOL     OW36547  13.272   3.259  11.154
44903SOL    HW136548  13.313   3.274  11.069
44903SOL    HW236549  13.345   3.251  11.215
44904SOL     OW36550  14.865   4.234   2.611
44904SOL    HW136551   0.014   4.142   2.620
44904SOL    HW236552  14.802   4.250   2.682
44905SOL     OW36553   7.606  10.953   9.871
44905SOL    HW136554   7.632  10.863   9.853
44905SOL    HW236555   7.669  10.984   9.936
44906SOL     OW36556  11.291   2.397   9.185
44906SOL    HW136557  11.261   2.485   9.210
44906SOL    HW236558  11.382   2.411   9.156
44907SOL     OW36559  11.548   0.980  11.370
44907SOL    HW136560  11.547   1.064  11.415
44907SOL    HW236561  11.638   0.970  11.339
44908SOL     OW36562   3.958   0.438  10.671
44908SOL    HW136563   3.868   0.407  10.661
44908SOL    HW236564   4.009   0.385  10.610
44909SOL     OW36565   5.694  13.416   2.331
44909SOL    HW136566   5.679  13.506   2.358
44909SOL    HW236567   5.699  13.420   2.236
44910SOL     OW36568  12.978   7.796   8.964
44910SOL    HW136569  13.017   7.712   8.988
44910SOL    HW236570  12.908   7.809   9.029
44911SOL     OW36571   8.976   1.322  11.749
44911SOL    HW136572   8.920   1.321  11.671
44911SOL    HW236573   8.989   1.414  11.768
44912SOL     OW36574   2.788   7.925   0.220
44912SOL    HW136575   2.749   7.848   0.261
44912SOL    HW236576   2.875   7.896   0.192
44913SOL     OW36577  12.496   8.656   4.977
44913SOL    HW136578  12.578   8.609   4.995
44913SOL    HW236579  12.481   8.707   5.056
44914SOL     OW36580  12.625  13.296   3.354
44914SOL    HW136581  12.553  13.248   3.394
44914SOL    HW236582  12.607  13.292   3.260
44915SOL     OW36583   3.025   5.825   8.122
44915SOL    HW136584   3.044   5.741   8.080
44915SOL    HW236585   2.955   5.806   8.184
44916SOL     OW36586   7.405   2.003   8.603
44916SOL    HW136587   7.495   2.011   8.634
44916SOL    HW236588   7.410   1.944   8.527
44917SOL     OW36589   8.252  10.430  13.893
44917SOL    HW136590   8.240  10.340  13.923
44917SOL    HW236591   8.163  10.462  13.878
44918SOL     OW36592   7.444   8.912  12.525
44918SOL    HW136593   7.362   8.938  12.567
44918SOL    HW236594   7.467   8.830  12.568
44919SOL     OW36595  11.974  11.730  14.615
44919SOL    HW136596  11.925  11.660  14.656
44919SOL    HW236597  12.065  11.713  14.639
44920SOL     OW36598  12.930   3.972   9.970
44920SOL    HW136599  12.871   3.923  10.027
44920SOL    HW236600  12.883   3.981   9.888
44921SOL     OW36601  12.234   3.985   4.938
44921SOL    HW136602  12.181   4.008   4.861
44921SOL    HW236603  12.300   4.054   4.942
44922SOL     OW36604   4.762   8.990   1.811
44922SOL    HW136605   4.705   9.049   1.861
44922SOL    HW236606   4.827   9.048   1.771
44923SOL     OW36607   4.373   8.632   8.892
44923SOL    HW136608   4.460   8.601   8.868
44923SOL    HW236609   4.364   8.608   8.984
44924SOL     OW36610   3.610   4.705  10.185
44924SOL    HW136611   3.636   4.786  10.229
44924SOL    HW236612   3.647   4.713  10.097
44925SOL     OW36613   9.866   9.475  12.109
44925SOL    HW136614   9.930   9.405  12.113
44925SOL    HW236615   9.917   9.555  12.099
44926SOL     OW36616   7.280   0.471  14.516
44926SOL    HW136617   7.345   0.404  14.536
44926SOL    HW236618   7.323   0.554  14.536
44927SOL     OW36619   9.115   7.313   7.121
44927SOL    HW136620   9.100   7.273   7.035
44927SOL    HW236621   9.205   7.346   7.116
44928SOL     OW36622   4.104   8.844   2.430
44928SOL    HW136623   4.073   8.866   2.518
44928SOL    HW236624   4.198   8.834   2.440
44929SOL     OW36625   8.469   7.012   2.593
44929SOL    HW136626   8.455   6.954   2.518
44929SOL    HW236627   8.533   6.966   2.647
44930SOL     OW36628   0.598   7.825   9.106
44930SOL    HW136629   0.608   7.895   9.170
44930SOL    HW236630   0.592   7.870   9.022
44931SOL     OW36631   0.721  14.691  13.409
44931SOL    HW136632   0.707  14.768  13.353
44931SOL    HW236633   0.713  14.724  13.498
44932SOL     OW36634  13.177   5.687  10.340
44932SOL    HW136635  13.261   5.705  10.382
44932SOL    HW236636  13.121   5.760  10.368
44933SOL     OW36637   4.082   8.640   7.851
44933SOL    HW136638   4.120   8.584   7.783
44933SOL    HW236639   4.152   8.701   7.873
44934SOL     OW36640  10.066   8.476   3.218
44934SOL    HW136641  10.100   8.561   3.192
44934SOL    HW236642   9.970   8.486   3.213
44935SOL     OW36643  10.543   5.703  12.838
44935SOL    HW136644  10.541   5.669  12.928
44935SOL    HW236645  10.479   5.774  12.838
44936SOL     OW36646   4.889  11.981   9.103
44936SOL    HW136647   4.851  11.905   9.058
44936SOL    HW236648   4.954  12.015   9.042
44937SOL     OW36649   1.189   0.298   8.173
44937SOL    HW136650   1.170   0.254   8.090
44937SOL    HW236651   1.261   0.247   8.211
44938SOL     OW36652   5.250   2.827  13.404
44938SOL    HW136653   5.258   2.872  13.489
44938SOL    HW236654   5.202   2.890  13.349
44939SOL     OW36655   6.992  12.571   5.263
44939SOL    HW136656   7.064  12.508   5.262
44939SOL    HW236657   6.924  12.530   5.316
44940SOL     OW36658   1.209  12.941  10.575
44940SOL    HW136659   1.162  12.880  10.518
44940SOL    HW236660   1.145  13.011  10.591
44941SOL     OW36661   7.067   0.089   1.633
44941SOL    HW136662   7.068   0.069   1.540
44941SOL    HW236663   6.976   0.111   1.652
44942SOL     OW36664  11.312  11.140   9.610
44942SOL    HW136665  11.370  11.073   9.647
44942SOL    HW236666  11.312  11.122   9.516
44943SOL     OW36667   3.714   5.742  14.392
44943SOL    HW136668   3.744   5.685  14.463
44943SOL    HW236669   3.636   5.784  14.428
44944SOL     OW36670   8.116  13.580   4.220
44944SOL    HW136671   8.091  13.672   4.217
44944SOL    HW236672   8.037  13.533   4.195
44945SOL     OW36673   8.853  11.085   4.202
44945SOL    HW136674   8.778  11.136   4.232
44945SOL    HW236675   8.929  11.140   4.223
44946SOL     OW36676  13.982   2.411   5.657
44946SOL    HW136677  13.963   2.491   5.705
44946SOL    HW236678  13.975   2.341   5.722
44947SOL     OW36679  12.462   1.505   0.380
44947SOL    HW136680  12.399   1.463   0.322
44947SOL    HW236681  12.535   1.443   0.386
44948SOL     OW36682   6.810   9.904   4.599
44948SOL    HW136683   6.814   9.870   4.509
44948SOL    HW236684   6.836   9.996   4.591
44949SOL     OW36685  10.569   5.490  10.692
44949SOL    HW136686  10.489   5.446  10.723
44949SOL    HW236687  10.540   5.544  10.618
44950SOL     OW36688   5.163  13.412   6.979
44950SOL    HW136689   5.109  13.349   6.932
44950SOL    HW236690   5.172  13.375   7.067
44951SOL     OW36691  10.492   9.196   3.930
44951SOL    HW136692  10.584   9.218   3.947
44951SOL    HW236693  10.493   9.102   3.914
44952SOL     OW36694  10.926  11.098   1.987
44952SOL    HW136695  10.948  11.029   2.050
44952SOL    HW236696  11.010  11.136   1.962
44953SOL     OW36697   9.869  11.167   9.528
44953SOL    HW136698   9.924  11.090   9.512
44953SOL    HW236699   9.781  11.132   9.539
44954SOL     OW36700   7.002   5.647   7.783
44954SOL    HW136701   7.077   5.608   7.828
44954SOL    HW236702   6.972   5.716   7.842
44955SOL     OW36703   7.855   2.538   4.861
44955SOL    HW136704   7.895   2.481   4.797
44955SOL    HW236705   7.929   2.583   4.903
44956SOL     OW36706   8.253   1.141   2.715
44956SOL    HW136707   8.246   1.174   2.804
44956SOL    HW236708   8.180   1.180   2.668
44957SOL     OW36709   4.990   4.560   0.107
44957SOL    HW136710   4.984   4.505   0.186
44957SOL    HW236711   5.040   4.508   0.045
44958SOL     OW36712   8.014   1.464  12.174
44958SOL    HW136713   8.088   1.412  12.206
44958SOL    HW236714   8.053   1.545  12.142
44959SOL     OW36715  14.115  11.363   4.338
44959SOL    HW136716  14.183  11.295   4.338
44959SOL    HW236717  14.106  11.387   4.245
44960SOL     OW36718   1.367   0.201  14.635
44960SOL    HW136719   1.277   0.233  14.646
44960SOL    HW236720   1.411   0.225  14.716
44961SOL     OW36721  13.040  11.626  11.650
44961SOL    HW136722  13.127  11.588  11.638
44961SOL    HW236723  12.979  11.555  11.631
44962SOL     OW36724   3.444   4.496   0.978
44962SOL    HW136725   3.374   4.443   0.940
44962SOL    HW236726   3.407   4.583   0.987
44963SOL     OW36727   3.337   4.604  12.312
44963SOL    HW136728   3.274   4.532  12.309
44963SOL    HW236729   3.405   4.574  12.372
44964SOL     OW36730   0.559   6.969   4.633
44964SOL    HW136731   0.593   6.924   4.710
44964SOL    HW236732   0.548   7.060   4.661
44965SOL     OW36733   1.041   1.734   3.687
44965SOL    HW136734   1.032   1.768   3.776
44965SOL    HW236735   0.963   1.680   3.674
44966SOL     OW36736   1.714   8.879  14.124
44966SOL    HW136737   1.634   8.908  14.168
44966SOL    HW236738   1.700   8.786  14.107
44967SOL     OW36739   8.406  11.836   2.105
44967SOL    HW136740   8.385  11.743   2.112
44967SOL    HW236741   8.341  11.879   2.160
44968SOL     OW36742   3.874   2.044   9.865
44968SOL    HW136743   3.815   1.969   9.869
44968SOL    HW236744   3.889   2.067   9.957
44969SOL     OW36745   8.819   3.928   3.977
44969SOL    HW136746   8.830   4.006   4.033
44969SOL    HW236747   8.905   3.886   3.979
44970SOL     OW36748   3.748   4.133  13.026
44970SOL    HW136749   3.702   4.199  13.077
44970SOL    HW236750   3.689   4.113  12.953
44971SOL     OW36751  12.162   4.495  11.369
44971SOL    HW136752  12.257   4.489  11.379
44971SOL    HW236753  12.149   4.494  11.274
44972SOL     OW36754  13.330   1.976  12.301
44972SOL    HW136755  13.238   1.951  12.298
44972SOL    HW236756  13.354   1.972  12.393
44973SOL     OW36757   9.174   6.813  13.679
44973SOL    HW136758   9.138   6.735  13.723
44973SOL    HW236759   9.231   6.853  13.744
44974SOL     OW36760  10.946  12.668  12.236
44974SOL    HW136761  10.855  12.689  12.213
44974SOL    HW236762  10.954  12.695  12.328
44975SOL     OW36763  13.067   7.601   8.248
44975SOL    HW136764  13.041   7.672   8.189
44975SOL    HW236765  13.053   7.637   8.336
44976SOL     OW36766   7.806  14.142   2.538
44976SOL    HW136767   7.747  14.195   2.591
44976SOL    HW236768   7.837  14.074   2.599
44977SOL     OW36769   8.609   2.010  12.068
44977SOL    HW136770   8.609   2.016  11.972
44977SOL    HW236771   8.694   1.970  12.089
44978SOL     OW36772  11.625   7.610   2.315
44978SOL    HW136773  11.632   7.619   2.410
44978SOL    HW236774  11.571   7.531   2.302
44979SOL     OW36775   2.941   9.650   8.643
44979SOL    HW136776   2.898   9.705   8.578
44979SOL    HW236777   2.870   9.605   8.687
44980SOL     OW36778  13.761   8.096  10.292
44980SOL    HW136779  13.765   8.013  10.340
44980SOL    HW236780  13.668   8.106  10.270
44981SOL     OW36781   4.050  13.569   7.519
44981SOL    HW136782   4.010  13.652   7.495
44981SOL    HW236783   3.988  13.502   7.489
44982SOL     OW36784   3.185  11.820   9.415
44982SOL    HW136785   3.169  11.817   9.320
44982SOL    HW236786   3.110  11.774   9.454
44983SOL     OW36787   9.764   0.768   3.213
44983SOL    HW136788   9.703   0.696   3.227
44983SOL    HW236789   9.782   0.766   3.119
44984SOL     OW36790   0.712   1.352   1.361
44984SOL    HW136791   0.725   1.339   1.455
44984SOL    HW236792   0.730   1.445   1.347
44985SOL     OW36793   6.963  11.738   4.960
44985SOL    HW136794   7.033  11.788   4.918
44985SOL    HW236795   7.006  11.695   5.035
44986SOL     OW36796   8.066   1.225   0.468
44986SOL    HW136797   8.035   1.279   0.541
44986SOL    HW236798   8.150   1.264   0.444
44987SOL     OW36799   9.366  12.432   7.399
44987SOL    HW136800   9.427  12.363   7.426
44987SOL    HW236801   9.283  12.387   7.384
44988SOL     OW36802  14.401  10.047   0.708
44988SOL    HW136803  14.408   9.990   0.785
44988SOL    HW236804  14.489  10.048   0.671
44989SOL     OW36805   5.412   8.094   8.790
44989SOL    HW136806   5.412   8.002   8.819
44989SOL    HW236807   5.502   8.123   8.800
44990SOL     OW36808   0.376  12.330  11.907
44990SOL    HW136809   0.387  12.404  11.847
44990SOL    HW236810   0.453  12.332  11.963
44991SOL     OW36811   3.019   9.501   2.963
44991SOL    HW136812   2.979   9.433   2.909
44991SOL    HW236813   3.002   9.472   3.053
44992SOL     OW36814   0.275   4.118   2.327
44992SOL    HW136815   0.331   4.169   2.268
44992SOL    HW236816   0.327   4.040   2.347
44993SOL     OW36817   8.852  12.963   1.751
44993SOL    HW136818   8.822  13.038   1.700
44993SOL    HW236819   8.910  12.915   1.692
44994SOL     OW36820   7.971   4.593   4.056
44994SOL    HW136821   8.050   4.542   4.076
44994SOL    HW236822   7.899   4.532   4.073
44995SOL     OW36823   7.584  10.316   4.248
44995SOL    HW136824   7.670  10.283   4.223
44995SOL    HW236825   7.525  10.242   4.234
44996SOL     OW36826  10.360   8.477  10.994
44996SOL    HW136827  10.413   8.428  11.057
44996SOL    HW236828  10.272   8.440  11.003
44997SOL     OW36829   4.272  11.930  13.973
44997SOL    HW136830   4.212  11.966  13.909
44997SOL    HW236831   4.265  11.988  14.049
44998SOL     OW36832   5.631  12.315   5.526
44998SOL    HW136833   5.658  12.373   5.455
44998SOL    HW236834   5.619  12.230   5.483
44999SOL     OW36835  11.715   5.639  12.559
44999SOL    HW136836  11.687   5.712  12.614
44999SOL    HW236837  11.640   5.580  12.556
45000SOL     OW36838  12.287   5.631   1.843
45000SOL    HW136839  12.345   5.595   1.910
45000SOL    HW236840  12.238   5.555   1.811
45001SOL     OW36841   4.107   3.666  13.746
45001SOL    HW136842   4.081   3.758  13.747
45001SOL    HW236843   4.090   3.637  13.656
45002SOL     OW36844   0.497  13.699   6.168
45002SOL    HW136845   0.456  13.774   6.212
45002SOL    HW236846   0.591  13.713   6.178
45003SOL     OW36847  14.366   7.736   9.039
45003SOL    HW136848  14.343   7.677   9.111
45003SOL    HW236849  14.381   7.679   8.964
45004SOL     OW36850   7.202   7.726  12.588
45004SOL    HW136851   7.125   7.726  12.531
45004SOL    HW236852   7.169   7.756  12.672
45005SOL     OW36853   5.777   4.821   9.571
45005SOL    HW136854   5.735   4.902   9.597
45005SOL    HW236855   5.742   4.755   9.631
45006SOL     OW36856   9.959   1.859   0.208
45006SOL    HW136857  10.002   1.840   0.124
45006SOL    HW236858   9.983   1.786   0.264
45007SOL     OW36859   0.037   7.755   9.644
45007SOL    HW136860   0.083   7.673   9.624
45007SOL    HW236861   0.071   7.818   9.580
45008SOL     OW36862  13.854   0.878   6.017
45008SOL    HW136863  13.892   0.812   6.074
45008SOL    HW236864  13.797   0.929   6.074
45009SOL     OW36865   1.979  12.945   7.993
45009SOL    HW136866   1.911  12.990   8.043
45009SOL    HW236867   2.048  12.928   8.057
45010SOL     OW36868  11.531  12.528   5.445
45010SOL    HW136869  11.439  12.505   5.436
45010SOL    HW236870  11.546  12.534   5.540
45011SOL     OW36871   4.499  11.526   9.350
45011SOL    HW136872   4.593  11.537   9.367
45011SOL    HW236873   4.462  11.613   9.361
45012SOL     OW36874   1.505   3.803   4.212
45012SOL    HW136875   1.484   3.897   4.212
45012SOL    HW236876   1.560   3.791   4.289
45013SOL     OW36877   4.886  11.513   4.705
45013SOL    HW136878   4.811  11.498   4.762
45013SOL    HW236879   4.854  11.495   4.617
45014SOL     OW36880  11.084   8.007   8.834
45014SOL    HW136881  11.145   8.065   8.880
45014SOL    HW236882  10.999   8.049   8.843
45015SOL     OW36883   2.440   1.560   1.680
45015SOL    HW136884   2.479   1.577   1.766
45015SOL    HW236885   2.423   1.647   1.644
45016SOL     OW36886  12.468   5.505   2.066
45016SOL    HW136887  12.451   5.411   2.070
45016SOL    HW236888  12.447   5.538   2.153
45017SOL     OW36889  14.633   4.868   9.582
45017SOL    HW136890  14.660   4.776   9.578
45017SOL    HW236891  14.542   4.864   9.612
45018SOL     OW36892  13.156  14.420  13.168
45018SOL    HW136893  13.120  14.506  13.187
45018SOL    HW236894  13.085  14.374  13.124
45019SOL     OW36895   6.067   0.311  13.343
45019SOL    HW136896   6.109   0.361  13.273
45019SOL    HW236897   5.981   0.289  13.309
45020SOL     OW36898  12.041  14.425   5.979
45020SOL    HW136899  12.095  14.409   6.057
45020SOL    HW236900  12.035  14.520   5.974
45021SOL     OW36901   4.121   1.737   1.170
45021SOL    HW136902   4.178   1.809   1.142
45021SOL    HW236903   4.104   1.754   1.262
45022SOL     OW36904   5.236  12.144   1.310
45022SOL    HW136905   5.281  12.071   1.352
45022SOL    HW236906   5.295  12.219   1.323
45023SOL     OW36907   3.451  10.380  13.706
45023SOL    HW136908   3.435  10.348  13.618
45023SOL    HW236909   3.509  10.315  13.746
45024SOL     OW36910  14.696   6.512   6.058
45024SOL    HW136911  14.628   6.577   6.073
45024SOL    HW236912  14.660   6.430   6.092
45025SOL     OW36913   2.289   2.598   2.542
45025SOL    HW136914   2.228   2.538   2.499
45025SOL    HW236915   2.341   2.635   2.471
45026SOL     OW36916   3.919  11.758   4.843
45026SOL    HW136917   4.001  11.781   4.800
45026SOL    HW236918   3.906  11.827   4.908
45027SOL     OW36919   2.546   4.654   2.948
45027SOL    HW136920   2.578   4.572   2.987
45027SOL    HW236921   2.593   4.722   2.995
45028SOL     OW36922   1.295   4.935   6.133
45028SOL    HW136923   1.219   4.988   6.156
45028SOL    HW236924   1.342   4.923   6.215
45029SOL     OW36925  14.863   6.917  11.696
45029SOL    HW136926   0.024   6.838  11.656
45029SOL    HW236927   0.003   6.904  11.790
45030SOL     OW36928   2.419   2.109   9.429
45030SOL    HW136929   2.425   2.169   9.503
45030SOL    HW236930   2.349   2.145   9.375
45031SOL     OW36931  11.544   6.943   6.926
45031SOL    HW136932  11.495   6.963   6.846
45031SOL    HW236933  11.487   6.972   6.997
45032SOL     OW36934  14.259  12.081   6.770
45032SOL    HW136935  14.317  12.062   6.844
45032SOL    HW236936  14.172  12.087   6.810
45033SOL     OW36937   8.761   3.078  13.546
45033SOL    HW136938   8.728   3.025  13.618
45033SOL    HW236939   8.856   3.081  13.559
45034SOL     OW36940   4.055   6.162   3.611
45034SOL    HW136941   4.127   6.146   3.672
45034SOL    HW236942   3.980   6.183   3.667
45035SOL     OW36943   2.250   4.298  14.755
45035SOL    HW136944   2.280   4.385  14.729
45035SOL    HW236945   2.281   4.287  14.845
45036SOL     OW36946   3.707   7.361   2.429
45036SOL    HW136947   3.670   7.387   2.514
45036SOL    HW236948   3.651   7.290   2.399
45037SOL     OW36949   8.002   3.792   8.207
45037SOL    HW136950   7.994   3.840   8.289
45037SOL    HW236951   7.966   3.705   8.227
45038SOL     OW36952   9.804  12.541  14.485
45038SOL    HW136953   9.763  12.471  14.434
45038SOL    HW236954   9.735  12.573  14.542
45039SOL     OW36955  12.069   5.745   8.614
45039SOL    HW136956  12.119   5.798   8.553
45039SOL    HW236957  12.105   5.657   8.605
45040SOL     OW36958   6.182   9.189  10.673
45040SOL    HW136959   6.263   9.197  10.723
45040SOL    HW236960   6.142   9.108  10.705
45041SOL     OW36961  11.889  13.153   6.438
45041SOL    HW136962  11.813  13.193   6.396
45041SOL    HW236963  11.851  13.088   6.498
45042SOL     OW36964  12.022   8.603   6.354
45042SOL    HW136965  12.102   8.578   6.399
45042SOL    HW236966  12.050   8.662   6.285
45043SOL     OW36967  11.381  10.876  13.249
45043SOL    HW136968  11.328  10.797  13.235
45043SOL    HW236969  11.435  10.856  13.325
45044SOL     OW36970   4.824  10.679   5.684
45044SOL    HW136971   4.759  10.691   5.614
45044SOL    HW236972   4.858  10.767   5.701
45045SOL     OW36973   4.196  14.832  10.550
45045SOL    HW136974   4.249   0.034  10.524
45045SOL    HW236975   4.224  14.762  10.492
45046SOL     OW36976  11.374   3.788   7.836
45046SOL    HW136977  11.297   3.841   7.851
45046SOL    HW236978  11.448   3.842   7.864
45047SOL     OW36979   2.712  12.133   0.448
45047SOL    HW136980   2.763  12.095   0.376
45047SOL    HW236981   2.771  12.127   0.523
45048SOL     OW36982   6.440   8.643   6.362
45048SOL    HW136983   6.473   8.733   6.352
45048SOL    HW236984   6.507   8.588   6.321
45049SOL     OW36985  10.738  14.658   7.574
45049SOL    HW136986  10.767  14.609   7.497
45049SOL    HW236987  10.787  14.621   7.647
45050SOL     OW36988  12.954   4.186   5.529
45050SOL    HW136989  13.039   4.148   5.505
45050SOL    HW236990  12.950   4.268   5.481
45051SOL     OW36991   1.504  11.117   5.852
45051SOL    HW136992   1.589  11.100   5.893
45051SOL    HW236993   1.526  11.142   5.762
45052SOL     OW36994  10.808   0.455   7.756
45052SOL    HW136995  10.871   0.526   7.746
45052SOL    HW236996  10.860   0.375   7.747
45053SOL     OW36997  11.522   3.880  11.526
45053SOL    HW136998  11.606   3.878  11.572
45053SOL    HW236999  11.534   3.823  11.450
45054SOL     OW37000   9.340  11.437  10.515
45054SOL    HW137001   9.416  11.383  10.534
45054SOL    HW237002   9.349  11.460  10.422
45055SOL     OW37003   8.582  11.407   1.300
45055SOL    HW137004   8.610  11.340   1.362
45055SOL    HW237005   8.563  11.359   1.219
45056SOL     OW37006   0.605   3.275   9.457
45056SOL    HW137007   0.515   3.292   9.486
45056SOL    HW237008   0.634   3.201   9.510
45057SOL     OW37009  12.255  14.600   3.611
45057SOL    HW137010  12.308  14.544   3.668
45057SOL    HW237011  12.248  14.682   3.658
45058SOL     OW37012   2.267   2.733  14.417
45058SOL    HW137013   2.183   2.696  14.444
45058SOL    HW237014   2.245   2.815  14.374
45059SOL     OW37015  13.160   7.485   0.190
45059SOL    HW137016  13.128   7.501   0.101
45059SOL    HW237017  13.216   7.561   0.210
45060SOL     OW37018   9.976   4.271  10.209
45060SOL    HW137019   9.983   4.181  10.175
45060SOL    HW237020  10.063   4.308  10.195
45061SOL     OW37021   3.891   7.532  12.527
45061SOL    HW137022   3.960   7.467  12.539
45061SOL    HW237023   3.865   7.522  12.435
45062SOL     OW37024   5.172  12.369   5.649
45062SOL    HW137025   5.183  12.344   5.557
45062SOL    HW237026   5.099  12.315   5.679
45063SOL     OW37027   3.751   2.859   9.859
45063SOL    HW137028   3.800   2.851   9.777
45063SOL    HW237029   3.675   2.802   9.848
45064SOL     OW37030   2.680  10.741  10.927
45064SOL    HW137031   2.725  10.800  10.866
45064SOL    HW237032   2.589  10.770  10.924
45065SOL     OW37033  13.093   3.698  14.314
45065SOL    HW137034  13.044   3.618  14.333
45065SOL    HW237035  13.086   3.750  14.393
45066SOL     OW37036   4.467   0.903   2.955
45066SOL    HW137037   4.384   0.930   2.915
45066SOL    HW237038   4.440   0.850   3.030
45067SOL     OW37039   8.023   0.765   3.314
45067SOL    HW137040   7.955   0.793   3.375
45067SOL    HW237041   8.097   0.822   3.332
45068SOL     OW37042   5.167   0.956   1.405
45068SOL    HW137043   5.145   0.967   1.497
45068SOL    HW237044   5.084   0.937   1.361
45069SOL     OW37045   1.371   1.091   6.674
45069SOL    HW137046   1.337   1.019   6.620
45069SOL    HW237047   1.340   1.072   6.762
45070SOL     OW37048   8.955   6.352  12.248
45070SOL    HW137049   8.904   6.431  12.230
45070SOL    HW237050   9.032   6.360  12.192
45071SOL     OW37051   7.458   9.768   2.362
45071SOL    HW137052   7.400   9.819   2.417
45071SOL    HW237053   7.506   9.712   2.423
45072SOL     OW37054   0.993   7.775   2.007
45072SOL    HW137055   0.912   7.727   2.021
45072SOL    HW237056   1.011   7.765   1.913
45073SOL     OW37057  10.725   9.059   3.520
45073SOL    HW137058  10.771   9.141   3.537
45073SOL    HW237059  10.635   9.085   3.500
45074SOL     OW37060   9.147   6.339  12.589
45074SOL    HW137061   9.218   6.357  12.528
45074SOL    HW237062   9.079   6.297  12.536
45075SOL     OW37063   7.837   3.414   2.318
45075SOL    HW137064   7.757   3.444   2.361
45075SOL    HW237065   7.822   3.430   2.225
45076SOL     OW37066   8.170   5.731  12.658
45076SOL    HW137067   8.105   5.794  12.626
45076SOL    HW237068   8.221   5.708  12.581
45077SOL     OW37069   8.185  11.867  13.080
45077SOL    HW137070   8.192  11.793  13.019
45077SOL    HW237071   8.271  11.870  13.123
45078SOL     OW37072  14.738  11.551  10.989
45078SOL    HW137073  14.710  11.530  11.078
45078SOL    HW237074  14.788  11.633  10.999
45079SOL     OW37075  12.465   2.910   2.616
45079SOL    HW137076  12.527   2.852   2.661
45079SOL    HW237077  12.428   2.964   2.685
45080SOL     OW37078  10.351   0.521  13.647
45080SOL    HW137079  10.276   0.578  13.662
45080SOL    HW237080  10.404   0.568  13.583
45081SOL     OW37081   0.161  13.940  14.578
45081SOL    HW137082   0.095  13.935  14.509
45081SOL    HW237083   0.176  14.033  14.592
45082SOL     OW37084  11.262   4.279  10.723
45082SOL    HW137085  11.270   4.219  10.798
45082SOL    HW237086  11.168   4.297  10.717
45083SOL     OW37087  13.618  10.556   3.673
45083SOL    HW137088  13.575  10.473   3.691
45083SOL    HW237089  13.558  10.602   3.614
45084SOL     OW37090  11.155  11.767  13.571
45084SOL    HW137091  11.193  11.833  13.512
45084SOL    HW237092  11.146  11.689  13.516
45085SOL     OW37093  14.034  12.721   4.769
45085SOL    HW137094  14.036  12.657   4.841
45085SOL    HW237095  13.941  12.738   4.755
45086SOL     OW37096   2.245  13.737   2.439
45086SOL    HW137097   2.159  13.772   2.417
45086SOL    HW237098   2.262  13.670   2.373
45087SOL     OW37099  13.799  13.670   2.906
45087SOL    HW137100  13.706  13.692   2.899
45087SOL    HW237101  13.802  13.601   2.972
45088SOL     OW37102   1.991   2.263   4.586
45088SOL    HW137103   2.028   2.251   4.673
45088SOL    HW237104   2.016   2.184   4.538
45089SOL     OW37105   7.559   1.431   4.134
45089SOL    HW137106   7.550   1.521   4.166
45089SOL    HW237107   7.567   1.378   4.213
45090SOL     OW37108  13.979  12.605  11.213
45090SOL    HW137109  13.949  12.538  11.152
45090SOL    HW237110  13.987  12.560  11.297
45091SOL     OW37111  12.486   9.316   2.302
45091SOL    HW137112  12.473   9.232   2.257
45091SOL    HW237113  12.398   9.355   2.305
45092SOL     OW37114   6.879   8.077  13.176
45092SOL    HW137115   6.819   8.150  13.195
45092SOL    HW237116   6.946   8.116  13.121
45093SOL     OW37117  13.905   5.918   7.510
45093SOL    HW137118  13.911   5.973   7.588
45093SOL    HW237119  13.971   5.850   7.522
45094SOL     OW37120   4.591  10.019   3.369
45094SOL    HW137121   4.672   9.991   3.412
45094SOL    HW237122   4.521   9.975   3.419
45095SOL     OW37123  11.085   2.558   1.587
45095SOL    HW137124  11.098   2.649   1.560
45095SOL    HW237125  11.040   2.517   1.513
45096SOL     OW37126   8.372  14.304   4.810
45096SOL    HW137127   8.371  14.244   4.736
45096SOL    HW237128   8.454  14.353   4.800
45097SOL     OW37129  13.498  12.018   6.985
45097SOL    HW137130  13.574  12.064   6.950
45097SOL    HW237131  13.429  12.034   6.921
45098SOL     OW37132   5.460   2.148  13.818
45098SOL    HW137133   5.411   2.137  13.900
45098SOL    HW237134   5.416   2.090  13.756
45099SOL     OW37135   8.054   6.294  13.846
45099SOL    HW137136   8.017   6.309  13.933
45099SOL    HW237137   8.026   6.205  13.823
45100SOL     OW37138   1.185  11.557   4.971
45100SOL    HW137139   1.251  11.625   4.982
45100SOL    HW237140   1.175  11.548   4.876
45101SOL     OW37141   4.024  13.215  13.459
45101SOL    HW137142   4.062  13.291  13.415
45101SOL    HW237143   3.947  13.193  13.407
45102SOL     OW37144   8.436   9.803   2.210
45102SOL    HW137145   8.398   9.824   2.125
45102SOL    HW237146   8.430   9.885   2.259
45103SOL     OW37147   4.020  10.145  12.660
45103SOL    HW137148   4.077  10.213  12.696
45103SOL    HW237149   4.073  10.065  12.666
45104SOL     OW37150   4.679   6.541  10.035
45104SOL    HW137151   4.688   6.484   9.959
45104SOL    HW237152   4.676   6.630   9.999
45105SOL     OW37153   7.635   7.768   2.515
45105SOL    HW137154   7.724   7.750   2.487
45105SOL    HW237155   7.630   7.863   2.525
45106SOL     OW37156   0.416   2.649   6.846
45106SOL    HW137157   0.339   2.599   6.816
45106SOL    HW237158   0.459   2.591   6.909
45107SOL     OW37159  11.932   5.584   9.989
45107SOL    HW137160  11.886   5.571  10.073
45107SOL    HW237161  11.898   5.514   9.933
45108SOL     OW37162   3.490   8.847  10.147
45108SOL    HW137163   3.462   8.815  10.061
45108SOL    HW237164   3.456   8.936  10.151
45109SOL     OW37165   3.006   2.138   6.437
45109SOL    HW137166   3.006   2.116   6.343
45109SOL    HW237167   3.065   2.213   6.444
45110SOL     OW37168   8.764  14.691  13.767
45110SOL    HW137169   8.750  14.623  13.701
45110SOL    HW237170   8.754  14.773  13.719
45111SOL     OW37171   7.522   7.703   2.164
45111SOL    HW137172   7.511   7.798   2.178
45111SOL    HW237173   7.608   7.684   2.202
45112SOL     OW37174  12.662  11.129   7.041
45112SOL    HW137175  12.616  11.046   7.055
45112SOL    HW237176  12.752  11.103   7.018
45113SOL     OW37177   9.238   9.266   9.853
45113SOL    HW137178   9.284   9.301   9.777
45113SOL    HW237179   9.223   9.174   9.832
45114SOL     OW37180   0.480  10.569   0.900
45114SOL    HW137181   0.467  10.649   0.951
45114SOL    HW237182   0.480  10.598   0.809
45115SOL     OW37183   5.208   5.812   9.160
45115SOL    HW137184   5.253   5.727   9.158
45115SOL    HW237185   5.167   5.816   9.246
45116SOL     OW37186   6.920   3.478   1.574
45116SOL    HW137187   6.872   3.461   1.654
45116SOL    HW237188   7.011   3.455   1.595
45117SOL     OW37189  10.668   0.565  11.812
45117SOL    HW137190  10.685   0.480  11.851
45117SOL    HW237191  10.754   0.607  11.808
45118SOL     OW37192  12.804  11.783  12.028
45118SOL    HW137193  12.760  11.702  12.053
45118SOL    HW237194  12.887  11.755  11.991
45119SOL     OW37195   2.390   0.149   8.411
45119SOL    HW137196   2.452   0.130   8.340
45119SOL    HW237197   2.427   0.225   8.456
45120SOL     OW37198   0.220   7.086   7.958
45120SOL    HW137199   0.179   7.093   7.872
45120SOL    HW237200   0.237   7.177   7.984
45121SOL     OW37201   8.260  14.528   2.232
45121SOL    HW137202   8.165  14.544   2.227
45121SOL    HW237203   8.299  14.615   2.222
45122SOL     OW37204  14.316   2.205  12.627
45122SOL    HW137205  14.237   2.246  12.591
45122SOL    HW237206  14.291   2.178  12.716
45123SOL     OW37207   5.912  10.343   6.658
45123SOL    HW137208   5.871  10.343   6.571
45123SOL    HW237209   5.874  10.268   6.703
45124SOL     OW37210   9.932   0.724  10.175
45124SOL    HW137211   9.977   0.675  10.244
45124SOL    HW237212   9.926   0.813  10.209
45125SOL     OW37213   8.096   9.311  11.862
45125SOL    HW137214   8.091   9.404  11.838
45125SOL    HW237215   8.156   9.309  11.936
45126SOL     OW37216  12.055   9.915   4.482
45126SOL    HW137217  12.050   9.874   4.568
45126SOL    HW237218  12.102   9.852   4.428
45127SOL     OW37219  11.261   8.701  13.551
45127SOL    HW137220  11.319   8.777  13.540
45127SOL    HW237221  11.302   8.632  13.500
45128SOL     OW37222  13.065   8.591   2.692
45128SOL    HW137223  13.101   8.573   2.779
45128SOL    HW237224  13.141   8.614   2.639
45129SOL     OW37225   0.765  14.258   1.961
45129SOL    HW137226   0.688  14.283   2.012
45129SOL    HW237227   0.815  14.201   2.019
45130SOL     OW37228   5.476   7.149   7.322
45130SOL    HW137229   5.493   7.220   7.383
45130SOL    HW237230   5.382   7.154   7.304
45131SOL     OW37231   9.680   5.468  11.535
45131SOL    HW137232   9.726   5.502  11.459
45131SOL    HW237233   9.690   5.373  11.529
45132SOL     OW37234   8.014  13.053  12.340
45132SOL    HW137235   7.998  13.132  12.288
45132SOL    HW237236   8.040  12.987  12.276
45133SOL     OW37237  12.007  10.115   0.639
45133SOL    HW137238  12.078  10.097   0.577
45133SOL    HW237239  12.018  10.049   0.707
45134SOL     OW37240   9.805   6.973   8.391
45134SOL    HW137241   9.850   7.058   8.396
45134SOL    HW237242   9.712   6.996   8.379
45135SOL     OW37243   5.648  11.726  14.810
45135SOL    HW137244   5.669  11.646  14.763
45135SOL    HW237245   5.556  11.717  14.834
45136SOL     OW37246  14.113  14.067   2.757
45136SOL    HW137247  14.163  14.019   2.823
45136SOL    HW237248  14.024  14.034   2.764
45137SOL     OW37249  10.716  12.353   2.523
45137SOL    HW137250  10.685  12.349   2.614
45137SOL    HW237251  10.641  12.388   2.474
45138SOL     OW37252   7.007  11.137   5.343
45138SOL    HW137253   7.050  11.051   5.344
45138SOL    HW237254   6.924  11.122   5.388
45139SOL     OW37255   5.305   8.096   8.027
45139SOL    HW137256   5.374   8.126   7.967
45139SOL    HW237257   5.340   8.016   8.066
45140SOL     OW37258   3.052  11.720   3.736
45140SOL    HW137259   2.982  11.670   3.779
45140SOL    HW237260   3.064  11.677   3.651
45141SOL     OW37261   9.461  11.721  13.756
45141SOL    HW137262   9.406  11.686  13.826
45141SOL    HW237263   9.550  11.692  13.779
45142SOL     OW37264   5.822   8.476   7.152
45142SOL    HW137265   5.812   8.461   7.058
45142SOL    HW237266   5.750   8.535   7.175
45143SOL     OW37267   4.103   6.532  14.548
45143SOL    HW137268   4.068   6.477  14.478
45143SOL    HW237269   4.079   6.621  14.523
45144SOL     OW37270  14.621   5.696  13.246
45144SOL    HW137271  14.556   5.764  13.264
45144SOL    HW237272  14.623   5.643  13.326
45145SOL     OW37273  14.500   0.356  12.993
45145SOL    HW137274  14.468   0.307  13.069
45145SOL    HW237275  14.489   0.296  12.919
45146SOL     OW37276   7.846   3.596   4.020
45146SOL    HW137277   7.835   3.639   4.105
45146SOL    HW237278   7.763   3.550   4.007
45147SOL     OW37279  14.531   4.248   4.495
45147SOL    HW137280  14.495   4.219   4.411
45147SOL    HW237281  14.527   4.343   4.492
45148SOL     OW37282  10.593  13.138   3.859
45148SOL    HW137283  10.540  13.154   3.937
45148SOL    HW237284  10.568  13.207   3.798
45149SOL     OW37285   8.115  11.457   4.247
45149SOL    HW137286   8.124  11.471   4.341
45149SOL    HW237287   8.150  11.536   4.207
45150SOL     OW37288   2.616   1.737   5.336
45150SOL    HW137289   2.548   1.694   5.285
45150SOL    HW237290   2.696   1.689   5.316
45151SOL     OW37291  10.385  10.309   3.191
45151SOL    HW137292  10.434  10.314   3.109
45151SOL    HW237293  10.439  10.356   3.254
45152SOL     OW37294   3.888   2.956  13.469
45152SOL    HW137295   3.880   3.011  13.547
45152SOL    HW237296   3.807   2.970  13.421
45153SOL     OW37297   1.705   6.671   6.975
45153SOL    HW137298   1.704   6.766   6.976
45153SOL    HW237299   1.767   6.647   7.044
45154SOL     OW37300   6.321   6.430   4.090
45154SOL    HW137301   6.390   6.436   4.156
45154SOL    HW237302   6.243   6.466   4.133
45155SOL     OW37303   6.833   5.878   2.315
45155SOL    HW137304   6.740   5.861   2.324
45155SOL    HW237305   6.864   5.890   2.405
45156SOL     OW37306  13.541   5.870   7.021
45156SOL    HW137307  13.456   5.867   6.977
45156SOL    HW237308  13.522   5.898   7.110
45157SOL     OW37309   4.176   3.589  14.213
45157SOL    HW137310   4.163   3.542  14.131
45157SOL    HW237311   4.222   3.669  14.187
45158SOL     OW37312   2.618   0.970  12.042
45158SOL    HW137313   2.531   0.935  12.020
45158SOL    HW237314   2.624   0.959  12.137
45159SOL     OW37315   5.058   8.123   0.363
45159SOL    HW137316   4.972   8.153   0.336
45159SOL    HW237317   5.079   8.175   0.440
45160SOL     OW37318  13.404   1.390   8.860
45160SOL    HW137319  13.423   1.334   8.785
45160SOL    HW237320  13.488   1.406   8.901
45161SOL     OW37321  12.864   4.079   2.659
45161SOL    HW137322  12.790   4.035   2.618
45161SOL    HW237323  12.846   4.074   2.753
45162SOL     OW37324   2.627   1.919   3.742
45162SOL    HW137325   2.610   1.923   3.836
45162SOL    HW237326   2.550   1.958   3.702
45163SOL     OW37327  14.030   2.333   2.605
45163SOL    HW137328  14.043   2.411   2.550
45163SOL    HW237329  14.069   2.262   2.555
45164SOL     OW37330   0.465  10.180   3.275
45164SOL    HW137331   0.392  10.121   3.255
45164SOL    HW237332   0.463  10.245   3.205
45165SOL     OW37333  11.266   8.507   2.781
45165SOL    HW137334  11.315   8.498   2.700
45165SOL    HW237335  11.181   8.542   2.754
45166SOL     OW37336  12.617  13.438  10.063
45166SOL    HW137337  12.674  13.491  10.119
45166SOL    HW237338  12.590  13.365  10.119
45167SOL     OW37339  13.565   7.605   1.485
45167SOL    HW137340  13.562   7.511   1.464
45167SOL    HW237341  13.504   7.645   1.424
45168SOL     OW37342   5.682   8.915   7.696
45168SOL    HW137343   5.740   8.935   7.769
45168SOL    HW237344   5.683   8.994   7.642
45169SOL     OW37345   3.416  10.877   3.738
45169SOL    HW137346   3.389  10.954   3.787
45169SOL    HW237347   3.444  10.814   3.805
45170SOL     OW37348  11.256   3.883   9.141
45170SOL    HW137349  11.304   3.965   9.126
45170SOL    HW237350  11.188   3.906   9.204
45171SOL     OW37351   4.003  13.181   3.333
45171SOL    HW137352   4.039  13.240   3.399
45171SOL    HW237353   4.079  13.154   3.281
45172SOL     OW37354   3.440   2.324   3.732
45172SOL    HW137355   3.372   2.256   3.739
45172SOL    HW237356   3.450   2.356   3.822
45173SOL     OW37357  11.366   1.858   6.619
45173SOL    HW137358  11.371   1.781   6.676
45173SOL    HW237359  11.426   1.921   6.659
45174SOL     OW37360  12.499  12.396  11.144
45174SOL    HW137361  12.409  12.398  11.176
45174SOL    HW237362  12.541  12.473  11.183
45175SOL     OW37363   9.073   8.038   5.681
45175SOL    HW137364   9.110   8.117   5.721
45175SOL    HW237365   9.146   7.977   5.677
45176SOL     OW37366  12.026   2.727  13.585
45176SOL    HW137367  12.052   2.805  13.633
45176SOL    HW237368  12.106   2.695  13.544
45177SOL     OW37369  14.167  13.819   5.899
45177SOL    HW137370  14.092  13.823   5.840
45177SOL    HW237371  14.132  13.840   5.985
45178SOL     OW37372   4.966  10.219  13.064
45178SOL    HW137373   5.025  10.258  13.000
45178SOL    HW237374   4.896  10.284  13.074
45179SOL     OW37375   5.792   1.143   4.955
45179SOL    HW137376   5.862   1.199   4.986
45179SOL    HW237377   5.779   1.078   5.024
45180SOL     OW37378   3.624   6.667  10.735
45180SOL    HW137379   3.553   6.645  10.675
45180SOL    HW237380   3.628   6.593  10.796
45181SOL     OW37381   1.631  13.456   6.401
45181SOL    HW137382   1.600  13.544   6.379
45181SOL    HW237383   1.655  13.462   6.494
45182SOL     OW37384   5.688  12.742  14.287
45182SOL    HW137385   5.742  12.671  14.323
45182SOL    HW237386   5.736  12.822  14.309
45183SOL     OW37387   3.322  14.148   7.630
45183SOL    HW137388   3.242  14.186   7.667
45183SOL    HW237389   3.294  14.110   7.547
45184SOL     OW37390   4.766   1.209   0.032
45184SOL    HW137391   4.827   1.274  14.872
45184SOL    HW237392   4.683   1.230  14.865
45185SOL     OW37393   3.289   5.807   2.651
45185SOL    HW137394   3.383   5.807   2.629
45185SOL    HW237395   3.253   5.734   2.601
45186SOL     OW37396   5.118  12.575   1.915
45186SOL    HW137397   5.090  12.659   1.879
45186SOL    HW237398   5.126  12.590   2.009
45187SOL     OW37399  11.669   7.602   7.156
45187SOL    HW137400  11.637   7.514   7.177
45187SOL    HW237401  11.627   7.624   7.073
45188SOL     OW37402   7.283  14.607  11.548
45188SOL    HW137403   7.231  14.534  11.580
45188SOL    HW237404   7.362  14.566  11.513
45189SOL     OW37405   2.567   5.839   6.484
45189SOL    HW137406   2.631   5.769   6.494
45189SOL    HW237407   2.554   5.845   6.389
45190SOL     OW37408  14.375   1.454   4.299
45190SOL    HW137409  14.398   1.414   4.215
45190SOL    HW237410  14.455   1.449   4.351
45191SOL     OW37411  14.338  13.426  14.382
45191SOL    HW137412  14.419  13.420  14.432
45191SOL    HW237413  14.360  13.398  14.294
45192SOL     OW37414   9.268   9.285   7.774
45192SOL    HW137415   9.354   9.265   7.812
45192SOL    HW237416   9.234   9.200   7.746
45193SOL     OW37417   5.985   3.577  13.289
45193SOL    HW137418   5.907   3.531  13.321
45193SOL    HW237419   6.024   3.615  13.368
45194SOL     OW37420  13.959   8.799  10.849
45194SOL    HW137421  13.932   8.871  10.907
45194SOL    HW237422  13.964   8.723  10.907
45195SOL     OW37423   9.313   3.192  12.564
45195SOL    HW137424   9.284   3.258  12.626
45195SOL    HW237425   9.370   3.239  12.502
45196SOL     OW37426   8.384   2.389   1.142
45196SOL    HW137427   8.394   2.410   1.235
45196SOL    HW237428   8.349   2.469   1.103
45197SOL     OW37429   1.017   8.893   2.427
45197SOL    HW137430   0.922   8.887   2.433
45197SOL    HW237431   1.036   8.894   2.333
45198SOL     OW37432   9.269  11.371   2.908
45198SOL    HW137433   9.194  11.312   2.905
45198SOL    HW237434   9.297  11.378   2.817
45199SOL     OW37435   4.956   1.475   4.515
45199SOL    HW137436   5.037   1.518   4.544
45199SOL    HW237437   4.954   1.489   4.421
45200SOL     OW37438   1.572   4.253   0.766
45200SOL    HW137439   1.479   4.277   0.768
45200SOL    HW237440   1.616   4.326   0.809
45201SOL     OW37441   7.412  12.328  13.129
45201SOL    HW137442   7.418  12.391  13.057
45201SOL    HW237443   7.449  12.373  13.204
45202SOL     OW37444  14.592   7.217   2.800
45202SOL    HW137445  14.504   7.253   2.796
45202SOL    HW237446  14.583   7.127   2.769
45203SOL     OW37447   7.789  13.754   0.274
45203SOL    HW137448   7.882  13.777   0.278
45203SOL    HW237449   7.747  13.831   0.235
45204SOL     OW37450   7.891  11.134  14.292
45204SOL    HW137451   7.832  11.163  14.362
45204SOL    HW237452   7.869  11.042  14.278
45205SOL     OW37453   0.808   2.437   4.899
45205SOL    HW137454   0.776   2.368   4.841
45205SOL    HW237455   0.897   2.453   4.869
45206SOL     OW37456  10.115  13.904  14.823
45206SOL    HW137457  10.172  13.956  14.767
45206SOL    HW237458  10.081  13.967   0.013
45207SOL     OW37459  10.230   2.377  10.252
45207SOL    HW137460  10.163   2.422  10.303
45207SOL    HW237461  10.293   2.445  10.229
45208SOL     OW37462   9.066   4.499   4.187
45208SOL    HW137463   9.047   4.449   4.266
45208SOL    HW237464   9.103   4.436   4.126
45209SOL     OW37465   4.459  14.820   0.169
45209SOL    HW137466   4.521   0.016   0.149
45209SOL    HW237467   4.505  14.763   0.230
45210SOL     OW37468  14.672   9.563   1.560
45210SOL    HW137469  14.716   9.646   1.579
45210SOL    HW237470  14.664   9.520   1.644
45211SOL     OW37471  12.080   6.617   4.254
45211SOL    HW137472  12.042   6.603   4.168
45211SOL    HW237473  12.133   6.539   4.270
45212SOL     OW37474  10.410   2.521  10.996
45212SOL    HW137475  10.376   2.453  11.055
45212SOL    HW237476  10.333   2.552  10.948
45213SOL     OW37477   7.128   8.209   6.230
45213SOL    HW137478   7.065   8.276   6.258
45213SOL    HW237479   7.160   8.241   6.146
45214SOL     OW37480   3.698  11.488  14.515
45214SOL    HW137481   3.768  11.477  14.579
45214SOL    HW237482   3.741  11.480  14.430
45215SOL     OW37483   2.728   3.065   7.984
45215SOL    HW137484   2.720   2.970   7.991
45215SOL    HW237485   2.658   3.100   8.039
45216SOL     OW37486   6.299  11.748  14.212
45216SOL    HW137487   6.372  11.807  14.233
45216SOL    HW237488   6.336  11.661  14.225
45217SOL     OW37489   0.400   8.464   4.897
45217SOL    HW137490   0.436   8.408   4.965
45217SOL    HW237491   0.467   8.466   4.829
45218SOL     OW37492   2.940  11.400  11.104
45218SOL    HW137493   2.968  11.391  11.013
45218SOL    HW237494   2.897  11.485  11.107
45219SOL     OW37495  12.084   1.512   4.154
45219SOL    HW137496  12.046   1.424   4.160
45219SOL    HW237497  12.111   1.520   4.063
45220SOL     OW37498   6.786   5.551   6.469
45220SOL    HW137499   6.753   5.467   6.437
45220SOL    HW237500   6.878   5.553   6.443
45221SOL     OW37501  10.931  13.128  12.801
45221SOL    HW137502  11.020  13.101  12.823
45221SOL    HW237503  10.937  13.161  12.711
45222SOL     OW37504   8.550  10.824  11.091
45222SOL    HW137505   8.640  10.846  11.067
45222SOL    HW237506   8.544  10.730  11.077
45223SOL     OW37507  13.594  14.646   7.605
45223SOL    HW137508  13.520  14.704   7.623
45223SOL    HW237509  13.556  14.577   7.550
45224SOL     OW37510   6.265   8.325  12.944
45224SOL    HW137511   6.188   8.271  12.930
45224SOL    HW237512   6.284   8.362  12.857
45225SOL     OW37513   4.196  12.482   7.705
45225SOL    HW137514   4.140  12.415   7.665
45225SOL    HW237515   4.206  12.454   7.796
45226SOL     OW37516  13.308   8.334  12.118
45226SOL    HW137517  13.263   8.418  12.123
45226SOL    HW237518  13.301   8.309  12.026
45227SOL     OW37519  12.547   4.570   6.536
45227SOL    HW137520  12.452   4.559   6.528
45227SOL    HW237521  12.584   4.502   6.480
45228SOL     OW37522   5.333   5.738   1.281
45228SOL    HW137523   5.277   5.808   1.249
45228SOL    HW237524   5.393   5.720   1.208
45229SOL     OW37525   1.677   4.624  10.147
45229SOL    HW137526   1.619   4.678  10.093
45229SOL    HW237527   1.676   4.667  10.233
45230SOL     OW37528  12.310   6.690   4.825
45230SOL    HW137529  12.263   6.608   4.833
45230SOL    HW237530  12.354   6.685   4.740
45231SOL     OW37531   9.340  12.861  14.695
45231SOL    HW137532   9.313  12.770  14.681
45231SOL    HW237533   9.373  12.890  14.610
45232SOL     OW37534  12.489  10.764   2.018
45232SOL    HW137535  12.569  10.724   1.987
45232SOL    HW237536  12.478  10.842   1.963
45233SOL     OW37537  13.782   1.342   9.204
45233SOL    HW137538  13.750   1.327   9.293
45233SOL    HW237539  13.716   1.300   9.148
45234SOL     OW37540  13.791   1.563   3.840
45234SOL    HW137541  13.807   1.657   3.852
45234SOL    HW237542  13.844   1.540   3.764
45235SOL     OW37543   7.786  10.553   9.590
45235SOL    HW137544   7.764  10.517   9.503
45235SOL    HW237545   7.880  10.570   9.586
45236SOL     OW37546   9.001   0.861  12.471
45236SOL    HW137547   9.067   0.852  12.540
45236SOL    HW237548   9.051   0.884  12.393
45237SOL     OW37549  10.786  10.739   5.182
45237SOL    HW137550  10.878  10.714   5.172
45237SOL    HW237551  10.737  10.666   5.144
45238SOL     OW37552  13.742  11.119  11.312
45238SOL    HW137553  13.686  11.067  11.370
45238SOL    HW237554  13.823  11.130  11.360
45239SOL     OW37555   4.165  14.259  14.719
45239SOL    HW137556   4.159  14.309  14.638
45239SOL    HW237557   4.257  14.236  14.727
45240SOL     OW37558  14.403   4.175  13.701
45240SOL    HW137559  14.353   4.256  13.704
45240SOL    HW237560  14.454   4.176  13.781
45241SOL     OW37561   4.587  10.344  13.543
45241SOL    HW137562   4.515  10.298  13.587
45241SOL    HW237563   4.658  10.342  13.607
45242SOL     OW37564  13.164   7.340   2.204
45242SOL    HW137565  13.160   7.408   2.136
45242SOL    HW237566  13.073   7.317   2.220
45243SOL     OW37567   3.543   6.206   5.641
45243SOL    HW137568   3.558   6.297   5.614
45243SOL    HW237569   3.532   6.211   5.736
45244SOL     OW37570   7.088  14.708   5.509
45244SOL    HW137571   7.096  14.673   5.598
45244SOL    HW237572   7.114  14.635   5.452
45245SOL     OW37573  14.593  13.920  14.008
45245SOL    HW137574  14.611  14.013  13.992
45245SOL    HW237575  14.562  13.917  14.098
45246SOL     OW37576   1.993  12.928   3.307
45246SOL    HW137577   2.058  12.956   3.243
45246SOL    HW237578   1.964  12.842   3.276
45247SOL     OW37579   3.002  11.185  11.696
45247SOL    HW137580   2.918  11.179  11.742
45247SOL    HW237581   3.012  11.100  11.654
45248SOL     OW37582   2.019  13.781   5.284
45248SOL    HW137583   1.976  13.696   5.279
45248SOL    HW237584   1.980  13.832   5.213
45249SOL     OW37585  12.538  10.453   1.772
45249SOL    HW137586  12.588  10.533   1.753
45249SOL    HW237587  12.454  10.467   1.728
45250SOL     OW37588  11.516   7.842   8.123
45250SOL    HW137589  11.490   7.781   8.054
45250SOL    HW237590  11.433   7.876   8.157
45251SOL     OW37591  10.383  12.167  14.705
45251SOL    HW137592  10.325  12.241  14.724
45251SOL    HW237593  10.452  12.172  14.771
45252SOL     OW37594  10.182   8.910   7.043
45252SOL    HW137595  10.229   8.828   7.032
45252SOL    HW237596  10.251   8.976   7.057
45253SOL     OW37597   4.073   3.873   8.435
45253SOL    HW137598   4.109   3.831   8.512
45253SOL    HW237599   4.145   3.926   8.401
45254SOL     OW37600  12.744  13.584   8.992
45254SOL    HW137601  12.808  13.585   8.920
45254SOL    HW237602  12.764  13.504   9.041
45255SOL     OW37603   7.567   7.008   5.265
45255SOL    HW137604   7.522   6.924   5.262
45255SOL    HW237605   7.569   7.032   5.357
45256SOL     OW37606   8.552   6.085   0.242
45256SOL    HW137607   8.573   6.029   0.316
45256SOL    HW237608   8.493   6.151   0.278
45257SOL     OW37609  11.433   0.034   1.969
45257SOL    HW137610  11.377  14.841   2.007
45257SOL    HW237611  11.412   0.033   1.875
45258SOL     OW37612   6.998   4.006  12.551
45258SOL    HW137613   7.042   4.088  12.528
45258SOL    HW237614   7.054   3.938  12.513
45259SOL     OW37615   1.097  11.121  12.113
45259SOL    HW137616   1.052  11.118  12.198
45259SOL    HW237617   1.102  11.029  12.086
45260SOL     OW37618   3.262   1.905   3.434
45260SOL    HW137619   3.224   1.979   3.483
45260SOL    HW237620   3.306   1.946   3.360
45261SOL     OW37621  14.358   6.575   9.838
45261SOL    HW137622  14.341   6.536   9.924
45261SOL    HW237623  14.307   6.523   9.777
45262SOL     OW37624   7.635   6.976   7.248
45262SOL    HW137625   7.595   6.948   7.330
45262SOL    HW237626   7.584   7.054   7.222
45263SOL     OW37627   8.909   4.232  11.442
45263SOL    HW137628   8.968   4.300  11.409
45263SOL    HW237629   8.878   4.266  11.526
45264SOL     OW37630  13.488   8.442   3.579
45264SOL    HW137631  13.456   8.352   3.569
45264SOL    HW237632  13.411   8.496   3.566
45265SOL     OW37633   5.161  13.647   9.909
45265SOL    HW137634   5.238  13.639   9.965
45265SOL    HW237635   5.185  13.713   9.844
45266SOL     OW37636  11.098   3.985  11.679
45266SOL    HW137637  11.060   3.932  11.748
45266SOL    HW237638  11.039   4.060  11.670
45267SOL     OW37639   8.012   6.766   6.618
45267SOL    HW137640   7.948   6.720   6.672
45267SOL    HW237641   8.097   6.741   6.655
45268SOL     OW37642   3.155   5.653  11.885
45268SOL    HW137643   3.201   5.695  11.812
45268SOL    HW237644   3.075   5.705  11.897
45269SOL     OW37645  10.173   2.217  14.621
45269SOL    HW137646  10.082   2.240  14.604
45269SOL    HW237647  10.212   2.204  14.535
45270SOL     OW37648   1.227   7.284   3.632
45270SOL    HW137649   1.231   7.357   3.694
45270SOL    HW237650   1.184   7.213   3.681
45271SOL     OW37651  14.601   7.533   6.302
45271SOL    HW137652  14.572   7.465   6.363
45271SOL    HW237653  14.524   7.550   6.247
45272SOL     OW37654   0.683   9.696   2.673
45272SOL    HW137655   0.655   9.612   2.636
45272SOL    HW237656   0.721   9.674   2.757
45273SOL     OW37657  13.029   0.384  11.501
45273SOL    HW137658  13.095   0.315  11.488
45273SOL    HW237659  12.955   0.357  11.446
45274SOL     OW37660   7.753  13.336   1.463
45274SOL    HW137661   7.691  13.403   1.434
45274SOL    HW237662   7.825  13.342   1.399
45275SOL     OW37663   0.350   8.735   4.110
45275SOL    HW137664   0.412   8.744   4.038
45275SOL    HW237665   0.291   8.809   4.102
45276SOL     OW37666  10.545  11.930   7.692
45276SOL    HW137667  10.480  11.943   7.623
45276SOL    HW237668  10.517  11.850   7.737
45277SOL     OW37669  12.801   9.760   3.139
45277SOL    HW137670  12.882   9.733   3.183
45277SOL    HW237671  12.768   9.679   3.099
45278SOL     OW37672  10.049   4.974   3.478
45278SOL    HW137673  10.121   5.024   3.517
45278SOL    HW237674  10.061   4.985   3.384
45279SOL     OW37675  12.338   7.960   3.843
45279SOL    HW137676  12.430   7.934   3.836
45279SOL    HW237677  12.295   7.916   3.769
45280SOL     OW37678   0.893   7.550   3.858
45280SOL    HW137679   0.895   7.469   3.910
45280SOL    HW237680   0.870   7.521   3.770
45281SOL     OW37681   9.104  14.351   1.316
45281SOL    HW137682   9.052  14.281   1.355
45281SOL    HW237683   9.107  14.419   1.383
45282SOL     OW37684   5.006  12.726  10.679
45282SOL    HW137685   5.019  12.773  10.596
45282SOL    HW237686   5.059  12.773  10.742
45283SOL     OW37687   4.932  11.193   4.721
45283SOL    HW137688   4.947  11.125   4.787
45283SOL    HW237689   4.934  11.275   4.770
45284SOL     OW37690  12.797   6.625   2.162
45284SOL    HW137691  12.861   6.614   2.232
45284SOL    HW237692  12.843   6.601   2.082
45285SOL     OW37693   6.918   4.879   7.932
45285SOL    HW137694   6.962   4.925   8.003
45285SOL    HW237695   6.825   4.883   7.953
45286SOL     OW37696   8.551   4.643   7.115
45286SOL    HW137697   8.558   4.571   7.053
45286SOL    HW237698   8.621   4.703   7.090
45287SOL     OW37699  14.834  13.388   9.842
45287SOL    HW137700  14.785  13.361   9.764
45287SOL    HW237701  14.805  13.478   9.858
45288SOL     OW37702  11.268  13.238   0.116
45288SOL    HW137703  11.302  13.321   0.148
45288SOL    HW237704  11.345  13.185   0.098
45289SOL     OW37705   9.036   0.663   9.779
45289SOL    HW137706   9.037   0.613   9.697
45289SOL    HW237707   8.954   0.714   9.774
45290SOL     OW37708   4.327  12.016  11.925
45290SOL    HW137709   4.279  12.095  11.948
45290SOL    HW237710   4.412  12.049  11.893
45291SOL     OW37711   7.050  12.082  14.585
45291SOL    HW137712   7.006  12.068  14.669
45291SOL    HW237713   7.098  12.001  14.569
45292SOL     OW37714   9.092   7.568  11.984
45292SOL    HW137715   8.997   7.563  11.976
45292SOL    HW237716   9.122   7.601  11.899
45293SOL     OW37717   7.646   5.958   8.973
45293SOL    HW137718   7.579   6.026   8.979
45293SOL    HW237719   7.615   5.901   8.903
45294SOL     OW37720   2.355  14.535  10.889
45294SOL    HW137721   2.431  14.589  10.867
45294SOL    HW237722   2.285  14.598  10.905
45295SOL     OW37723  10.254   5.080  10.906
45295SOL    HW137724  10.288   4.996  10.934
45295SOL    HW237725  10.330   5.129  10.876
45296SOL     OW37726   0.479   2.058   8.190
45296SOL    HW137727   0.439   2.144   8.181
45296SOL    HW237728   0.569   2.075   8.219
45297SOL     OW37729   6.577  10.521  14.021
45297SOL    HW137730   6.661  10.555  13.993
45297SOL    HW237731   6.546  10.467  13.947
45298SOL     OW37732   5.825  14.867   9.930
45298SOL    HW137733   5.767   0.043   9.874
45298SOL    HW237734   5.792   0.006  10.018
45299SOL     OW37735   0.223   4.476   7.556
45299SOL    HW137736   0.148   4.416   7.557
45299SOL    HW237737   0.211   4.529   7.477
45300SOL     OW37738   3.208  10.696   8.959
45300SOL    HW137739   3.218  10.719   8.867
45300SOL    HW237740   3.280  10.742   9.003
45301SOL     OW37741  10.821  10.204   2.667
45301SOL    HW137742  10.886  10.172   2.730
45301SOL    HW237743  10.780  10.278   2.712
45302SOL     OW37744  14.362  14.438   0.488
45302SOL    HW137745  14.330  14.519   0.448
45302SOL    HW237746  14.403  14.390   0.417
45303SOL     OW37747   4.430   4.255   6.721
45303SOL    HW137748   4.461   4.170   6.752
45303SOL    HW237749   4.498   4.316   6.749
45304SOL     OW37750   2.264   3.940  11.620
45304SOL    HW137751   2.329   4.001  11.586
45304SOL    HW237752   2.228   3.897  11.543
45305SOL     OW37753  14.697   2.805   2.052
45305SOL    HW137754  14.659   2.801   2.140
45305SOL    HW237755  14.698   2.898   2.030
45306SOL     OW37756  13.589  14.437  11.237
45306SOL    HW137757  13.611  14.413  11.147
45306SOL    HW237758  13.646  14.380  11.291
45307SOL     OW37759   8.232   5.554   9.459
45307SOL    HW137760   8.196   5.604   9.386
45307SOL    HW237761   8.163   5.490   9.481
45308SOL     OW37762  11.106   8.331   0.273
45308SOL    HW137763  11.057   8.253   0.296
45308SOL    HW237764  11.164   8.347   0.347
45309SOL     OW37765  12.654   3.514   9.041
45309SOL    HW137766  12.603   3.527   8.961
45309SOL    HW237767  12.591   3.481   9.105
45310SOL     OW37768  13.645  11.278  11.867
45310SOL    HW137769  13.653  11.355  11.811
45310SOL    HW237770  13.633  11.313  11.955
45311SOL     OW37771  14.439   5.520   8.563
45311SOL    HW137772  14.372   5.580   8.596
45311SOL    HW237773  14.516   5.575   8.548
45312SOL     OW37774   9.296   1.714   8.808
45312SOL    HW137775   9.326   1.753   8.725
45312SOL    HW237776   9.213   1.758   8.826
45313SOL     OW37777   8.081   1.096  10.129
45313SOL    HW137778   8.078   1.071  10.221
45313SOL    HW237779   7.996   1.139  10.113
45314SOL     OW37780  14.462   2.370   6.275
45314SOL    HW137781  14.509   2.320   6.207
45314SOL    HW237782  14.519   2.365   6.352
45315SOL     OW37783  14.232  13.957  13.752
45315SOL    HW137784  14.287  14.036  13.748
45315SOL    HW237785  14.292  13.886  13.729
45316SOL     OW37786   6.382   0.401   2.875
45316SOL    HW137787   6.306   0.345   2.892
45316SOL    HW237788   6.449   0.370   2.936
45317SOL     OW37789  10.705   3.184   5.636
45317SOL    HW137790  10.777   3.203   5.576
45317SOL    HW237791  10.677   3.270   5.668
45318SOL     OW37792  13.019  13.026   7.268
45318SOL    HW137793  13.091  13.040   7.330
45318SOL    HW237794  12.940  13.035   7.321
45319SOL     OW37795   3.021   2.361  11.038
45319SOL    HW137796   3.049   2.281  11.082
45319SOL    HW237797   2.973   2.410  11.105
45320SOL     OW37798  10.465  10.490   6.970
45320SOL    HW137799  10.532  10.451   6.914
45320SOL    HW237800  10.486  10.584   6.970
45321SOL     OW37801   9.062  11.180  12.901
45321SOL    HW137802   9.093  11.129  12.975
45321SOL    HW237803   9.005  11.246  12.939
45322SOL     OW37804  14.390  12.870   1.547
45322SOL    HW137805  14.479  12.838   1.563
45322SOL    HW237806  14.380  12.867   1.452
45323SOL     OW37807   1.150   7.698   2.489
45323SOL    HW137808   1.094   7.626   2.460
45323SOL    HW237809   1.098   7.777   2.473
45324SOL     OW37810   2.526   4.468   2.366
45324SOL    HW137811   2.456   4.533   2.371
45324SOL    HW237812   2.592   4.509   2.309
45325SOL     OW37813   4.237   4.696   8.151
45325SOL    HW137814   4.313   4.662   8.103
45325SOL    HW237815   4.215   4.627   8.213
45326SOL     OW37816   1.707   7.852   9.637
45326SOL    HW137817   1.618   7.830   9.664
45326SOL    HW237818   1.722   7.798   9.559
45327SOL     OW37819   7.019   7.535  14.697
45327SOL    HW137820   6.964   7.481  14.753
45327SOL    HW237821   6.987   7.517  14.608
45328SOL     OW37822   9.940   6.143   6.220
45328SOL    HW137823  10.003   6.099   6.163
45328SOL    HW237824   9.861   6.089   6.213
45329SOL     OW37825   7.109   5.319  11.060
45329SOL    HW137826   7.102   5.394  11.001
45329SOL    HW237827   7.200   5.319  11.088
45330SOL     OW37828   6.243   6.834   1.642
45330SOL    HW137829   6.157   6.875   1.643
45330SOL    HW237830   6.233   6.757   1.585
45331SOL     OW37831  10.589   4.985   2.476
45331SOL    HW137832  10.501   4.968   2.508
45331SOL    HW237833  10.582   4.975   2.381
45332SOL     OW37834   4.912   1.173  12.108
45332SOL    HW137835   4.887   1.202  12.020
45332SOL    HW237836   4.835   1.191  12.162
45333SOL     OW37837   7.755  11.925   4.225
45333SOL    HW137838   7.810  11.875   4.285
45333SOL    HW237839   7.678  11.870   4.212
45334SOL     OW37840   6.475   7.434   6.304
45334SOL    HW137841   6.440   7.518   6.273
45334SOL    HW237842   6.565   7.433   6.271
45335SOL     OW37843   4.753   0.327  12.765
45335SOL    HW137844   4.702   0.376  12.701
45335SOL    HW237845   4.797   0.259  12.715
45336SOL     OW37846   1.490   4.565   7.051
45336SOL    HW137847   1.508   4.519   7.133
45336SOL    HW237848   1.395   4.576   7.051
45337SOL     OW37849   2.337   0.080   3.833
45337SOL    HW137850   2.325  14.870   3.876
45337SOL    HW237851   2.365   0.139   3.903
45338SOL     OW37852   2.627   1.394   6.679
45338SOL    HW137853   2.660   1.327   6.619
45338SOL    HW237854   2.702   1.414   6.735
45339SOL     OW37855   1.778  11.013   7.274
45339SOL    HW137856   1.827  10.993   7.355
45339SOL    HW237857   1.718  10.940   7.264
45340SOL     OW37858   5.017   9.038   4.027
45340SOL    HW137859   5.013   9.131   4.006
45340SOL    HW237860   5.090   9.005   3.974
45341SOL     OW37861   5.976   7.416   3.997
45341SOL    HW137862   6.068   7.415   3.971
45341SOL    HW237863   5.971   7.481   4.067
45342SOL     OW37864  13.761   4.708   7.649
45342SOL    HW137865  13.838   4.691   7.595
45342SOL    HW237866  13.753   4.804   7.651
45343SOL     OW37867   0.244   1.372  11.379
45343SOL    HW137868   0.225   1.288  11.419
45343SOL    HW237869   0.181   1.381  11.308
45344SOL     OW37870   9.677   7.731  10.188
45344SOL    HW137871   9.729   7.689  10.120
45344SOL    HW237872   9.587   7.729  10.155
45345SOL     OW37873  13.144   8.664  12.596
45345SOL    HW137874  13.085   8.734  12.565
45345SOL    HW237875  13.117   8.648  12.687
45346SOL     OW37876  11.409   9.767   6.205
45346SOL    HW137877  11.387   9.675   6.219
45346SOL    HW237878  11.353   9.815   6.266
45347SOL     OW37879   7.953   4.285   4.434
45347SOL    HW137880   7.860   4.308   4.444
45347SOL    HW237881   7.967   4.282   4.340
45348SOL     OW37882   7.745   7.303   2.320
45348SOL    HW137883   7.832   7.273   2.296
45348SOL    HW237884   7.734   7.385   2.273
45349SOL     OW37885   6.344   6.436   3.112
45349SOL    HW137886   6.356   6.484   3.195
45349SOL    HW237887   6.259   6.395   3.120
45350SOL     OW37888   2.906  12.649  14.682
45350SOL    HW137889   2.961  12.651  14.604
45350SOL    HW237890   2.818  12.628  14.648
45351SOL     OW37891  11.736   4.192   7.395
45351SOL    HW137892  11.715   4.100   7.376
45351SOL    HW237893  11.829   4.191   7.417
45352SOL     OW37894  10.036   9.542  13.854
45352SOL    HW137895   9.971   9.519  13.788
45352SOL    HW237896  10.096   9.601  13.809
45353SOL     OW37897   8.722   3.296  13.752
45353SOL    HW137898   8.721   3.247  13.670
45353SOL    HW237899   8.674   3.377  13.733
45354SOL     OW37900   1.569   9.463  10.806
45354SOL    HW137901   1.502   9.427  10.748
45354SOL    HW237902   1.648   9.467  10.753
45355SOL     OW37903  10.569   6.973   2.105
45355SOL    HW137904  10.563   6.880   2.129
45355SOL    HW237905  10.538   6.976   2.015
45356SOL     OW37906   5.508   7.279   2.781
45356SOL    HW137907   5.547   7.325   2.855
45356SOL    HW237908   5.498   7.189   2.811
45357SOL     OW37909   7.904   2.637  11.979
45357SOL    HW137910   7.865   2.594  11.903
45357SOL    HW237911   7.860   2.597  12.054
45358SOL     OW37912  13.971   7.413   9.163
45358SOL    HW137913  14.012   7.382   9.244
45358SOL    HW237914  13.877   7.403   9.178
45359SOL     OW37915   6.246   4.533  13.083
45359SOL    HW137916   6.165   4.516  13.036
45359SOL    HW237917   6.314   4.533  13.015
45360SOL     OW37918  14.279  13.242  11.033
45360SOL    HW137919  14.322  13.325  11.016
45360SOL    HW237920  14.192  13.251  10.995
45361SOL     OW37921  12.268   8.413   8.791
45361SOL    HW137922  12.201   8.476   8.765
45361SOL    HW237923  12.308   8.451   8.869
45362SOL     OW37924  10.579  13.089   6.910
45362SOL    HW137925  10.625  13.015   6.950
45362SOL    HW237926  10.634  13.116   6.837
45363SOL     OW37927  14.769  12.123   7.909
45363SOL    HW137928  14.721  12.043   7.932
45363SOL    HW237929  14.858  12.093   7.891
45364SOL     OW37930   5.266  14.338  13.605
45364SOL    HW137931   5.214  14.285  13.545
45364SOL    HW237932   5.242  14.428  13.585
45365SOL     OW37933   2.105   0.942  13.558
45365SOL    HW137934   2.130   0.851  13.575
45365SOL    HW237935   2.062   0.940  13.473
45366SOL     OW37936   7.962   5.708   3.886
45366SOL    HW137937   7.956   5.744   3.797
45366SOL    HW237938   7.937   5.616   3.877
45367SOL     OW37939  11.491   8.479   2.310
45367SOL    HW137940  11.487   8.572   2.331
45367SOL    HW237941  11.440   8.471   2.229
45368SOL     OW37942   4.432   1.510   0.082
45368SOL    HW137943   4.436   1.415   0.066
45368SOL    HW237944   4.492   1.525   0.154
45369SOL     OW37945  13.108   7.216   0.565
45369SOL    HW137946  13.026   7.189   0.606
45369SOL    HW237947  13.136   7.293   0.614
45370SOL     OW37948  13.023  10.382   8.718
45370SOL    HW137949  13.038  10.288   8.724
45370SOL    HW237950  12.983  10.406   8.802
45371SOL     OW37951   5.749   3.749  13.835
45371SOL    HW137952   5.786   3.837  13.843
45371SOL    HW237953   5.667   3.761  13.788
45372SOL     OW37954   7.042  13.140   7.365
45372SOL    HW137955   7.057  13.117   7.274
45372SOL    HW237956   7.129  13.143   7.404
45373SOL     OW37957   2.088  10.989   0.011
45373SOL    HW137958   2.175  10.950  14.872
45373SOL    HW237959   2.046  10.983  14.800
45374SOL     OW37960  14.003  13.328   7.343
45374SOL    HW137961  14.021  13.280   7.262
45374SOL    HW237962  14.024  13.419   7.323
45375SOL     OW37963  12.807   9.122   7.993
45375SOL    HW137964  12.718   9.135   8.026
45375SOL    HW237965  12.831   9.034   8.022
45376SOL     OW37966   9.340   3.913   4.898
45376SOL    HW137967   9.256   3.884   4.933
45376SOL    HW237968   9.389   3.943   4.975
45377SOL     OW37969  14.270   8.932   0.878
45377SOL    HW137970  14.208   8.859   0.881
45377SOL    HW237971  14.345   8.897   0.828
45378SOL     OW37972   9.921  14.657  11.307
45378SOL    HW137973  10.010  14.682  11.331
45378SOL    HW237974   9.871  14.665  11.388
45379SOL     OW37975   4.393   1.334  11.945
45379SOL    HW137976   4.390   1.268  11.876
45379SOL    HW237977   4.302   1.363  11.954
45380SOL     OW37978   3.965   4.131  10.511
45380SOL    HW137979   3.913   4.175  10.579
45380SOL    HW237980   3.935   4.170  10.429
45381SOL     OW37981   7.629   4.493   8.738
45381SOL    HW137982   7.708   4.447   8.711
45381SOL    HW237983   7.558   4.450   8.689
45382SOL     OW37984   7.457   2.345  12.088
45382SOL    HW137985   7.494   2.267  12.046
45382SOL    HW237986   7.468   2.414  12.023
45383SOL     OW37987   8.884  14.110   9.893
45383SOL    HW137988   8.933  14.029   9.908
45383SOL    HW237989   8.950  14.179   9.897
45384SOL     OW37990  12.184   4.204   7.594
45384SOL    HW137991  12.257   4.209   7.533
45384SOL    HW237992  12.221   4.229   7.679
45385SOL     OW37993   8.431   3.205   9.002
45385SOL    HW137994   8.361   3.197   8.937
45385SOL    HW237995   8.385   3.204   9.087
45386SOL     OW37996   7.043   7.251  10.464
45386SOL    HW137997   6.997   7.195  10.526
45386SOL    HW237998   6.982   7.322  10.446
45387SOL     OW37999   1.168   7.624   0.887
45387SOL    HW138000   1.235   7.636   0.954
45387SOL    HW238001   1.159   7.529   0.878
45388SOL     OW38002   9.650   5.975   6.717
45388SOL    HW138003   9.695   6.050   6.678
45388SOL    HW238004   9.573   6.013   6.759
45389SOL     OW38005   0.024  10.189   7.286
45389SOL    HW138006   0.058  10.186   7.197
45389SOL    HW238007  14.829  10.255   7.283
45390SOL     OW38008   0.476  11.139   0.610
45390SOL    HW138009   0.464  11.045   0.594
45390SOL    HW238010   0.567  11.156   0.585
45391SOL     OW38011   9.451  13.407   7.892
45391SOL    HW138012   9.422  13.496   7.874
45391SOL    HW238013   9.507  13.385   7.818
45392SOL     OW38014   4.824   0.998   8.599
45392SOL    HW138015   4.760   0.964   8.537
45392SOL    HW238016   4.835   1.090   8.575
45393SOL     OW38017   4.554   9.080   6.772
45393SOL    HW138018   4.469   9.050   6.805
45393SOL    HW238019   4.535   9.114   6.684
45394SOL     OW38020   2.553   8.282   4.238
45394SOL    HW138021   2.488   8.218   4.209
45394SOL    HW238022   2.558   8.345   4.166
45395SOL     OW38023   2.094  10.973   3.451
45395SOL    HW138024   2.023  11.011   3.502
45395SOL    HW238025   2.106  10.885   3.487
45396SOL     OW38026  14.428   0.934  13.412
45396SOL    HW138027  14.436   0.920  13.506
45396SOL    HW238028  14.500   0.994  13.390
45397SOL     OW38029   9.600  11.436   1.974
45397SOL    HW138030   9.605  11.453   1.880
45397SOL    HW238031   9.517  11.474   2.002
45398SOL     OW38032  14.488   9.944   7.612
45398SOL    HW138033  14.505   9.925   7.520
45398SOL    HW238034  14.393   9.952   7.618
45399SOL     OW38035   5.925   0.237   3.396
45399SOL    HW138036   5.968   0.279   3.470
45399SOL    HW238037   5.988   0.243   3.325
45400SOL     OW38038   0.334  12.938   6.093
45400SOL    HW138039   0.249  12.929   6.136
45400SOL    HW238040   0.382  12.860   6.120
45401SOL     OW38041  11.862   5.204   3.398
45401SOL    HW138042  11.854   5.159   3.314
45401SOL    HW238043  11.774   5.237   3.416
45402SOL     OW38044  13.841   6.236   2.190
45402SOL    HW138045  13.922   6.207   2.232
45402SOL    HW238046  13.869   6.303   2.128
45403SOL     OW38047   8.605   0.940   0.476
45403SOL    HW138048   8.538   0.989   0.429
45403SOL    HW238049   8.659   1.007   0.518
45404SOL     OW38050   5.037   9.911  13.769
45404SOL    HW138051   5.071   9.977  13.829
45404SOL    HW238052   5.097   9.914  13.694
45405SOL     OW38053   6.903   3.594  12.465
45405SOL    HW138054   6.896   3.622  12.556
45405SOL    HW238055   6.997   3.585  12.449
45406SOL     OW38056   2.230  12.508  11.690
45406SOL    HW138057   2.298  12.572  11.668
45406SOL    HW238058   2.257  12.471  11.774
45407SOL     OW38059   0.298  10.852  10.643
45407SOL    HW138060   0.340  10.788  10.586
45407SOL    HW238061   0.370  10.901  10.682
45408SOL     OW38062   0.802   9.621  12.787
45408SOL    HW138063   0.763   9.637  12.873
45408SOL    HW238064   0.889   9.659  12.792
45409SOL     OW38065   0.903   5.782  14.559
45409SOL    HW138066   0.870   5.792  14.470
45409SOL    HW238067   0.920   5.872  14.588
45410SOL     OW38068  10.182   9.906   6.946
45410SOL    HW138069  10.240   9.861   7.007
45410SOL    HW238070  10.130   9.835   6.907
45411SOL     OW38071   4.235   7.518   2.281
45411SOL    HW138072   4.140   7.515   2.282
45411SOL    HW238073   4.260   7.516   2.374
45412SOL     OW38074   4.084  10.459  10.319
45412SOL    HW138075   4.048  10.375  10.290
45412SOL    HW238076   4.007  10.514  10.332
45413SOL     OW38077   3.358   2.915  10.736
45413SOL    HW138078   3.310   2.849  10.685
45413SOL    HW238079   3.352   2.884  10.827
45414SOL     OW38080   9.210   6.184   2.581
45414SOL    HW138081   9.196   6.245   2.652
45414SOL    HW238082   9.265   6.116   2.618
45415SOL     OW38083   3.736   6.061   5.805
45415SOL    HW138084   3.665   6.015   5.759
45415SOL    HW238085   3.729   6.152   5.774
45416SOL     OW38086  12.878   1.879   6.485
45416SOL    HW138087  12.968   1.911   6.482
45416SOL    HW238088  12.867   1.833   6.401
45417SOL     OW38089  13.158  12.980  11.559
45417SOL    HW138090  13.247  12.955  11.535
45417SOL    HW238091  13.115  13.000  11.476
45418SOL     OW38092   8.781  14.139  11.597
45418SOL    HW138093   8.788  14.049  11.630
45418SOL    HW238094   8.687  14.153  11.589
45419SOL     OW38095   3.301   1.547  13.032
45419SOL    HW138096   3.355   1.614  12.990
45419SOL    HW238097   3.320   1.467  12.983
45420SOL     OW38098   1.232   0.092   2.958
45420SOL    HW138099   1.279   0.087   2.875
45420SOL    HW238100   1.140   0.097   2.933
45421SOL     OW38101  13.283   8.389  13.222
45421SOL    HW138102  13.302   8.349  13.307
45421SOL    HW238103  13.337   8.340  13.160
45422SOL     OW38104   1.551  14.777   1.916
45422SOL    HW138105   1.642  14.803   1.903
45422SOL    HW238106   1.529  14.724   1.840
45423SOL     OW38107   8.919   7.139   1.416
45423SOL    HW138108   8.861   7.107   1.347
45423SOL    HW238109   8.975   7.065   1.437
45424SOL     OW38110   0.815   1.893   6.443
45424SOL    HW138111   0.812   1.833   6.368
45424SOL    HW238112   0.903   1.930   6.441
45425SOL     OW38113   9.388   2.564   9.133
45425SOL    HW138114   9.442   2.642   9.144
45425SOL    HW238115   9.436   2.495   9.180
45426SOL     OW38116   2.968   0.026   1.104
45426SOL    HW138117   3.030   0.084   1.059
45426SOL    HW238118   3.013  14.816   1.108
45427SOL     OW38119  12.932  14.181  11.126
45427SOL    HW138120  12.933  14.108  11.063
45427SOL    HW238121  13.009  14.232  11.105
45428SOL     OW38122   1.953  11.957   3.050
45428SOL    HW138123   1.872  12.008   3.054
45428SOL    HW238124   2.011  12.009   2.994
45429SOL     OW38125   3.632   4.167   6.326
45429SOL    HW138126   3.630   4.095   6.389
45429SOL    HW238127   3.548   4.212   6.339
45430SOL     OW38128  14.232   8.565   8.123
45430SOL    HW138129  14.219   8.555   8.028
45430SOL    HW238130  14.221   8.659   8.139
45431SOL     OW38131   2.820   1.428   2.589
45431SOL    HW138132   2.745   1.459   2.639
45431SOL    HW238133   2.896   1.453   2.641
45432SOL     OW38134  14.445   2.314   4.247
45432SOL    HW138135  14.487   2.295   4.330
45432SOL    HW238136  14.383   2.384   4.267
45433SOL     OW38137   6.284  13.355   7.955
45433SOL    HW138138   6.235  13.364   8.036
45433SOL    HW238139   6.236  13.290   7.904
45434SOL     OW38140   2.835  13.388  13.266
45434SOL    HW138141   2.925  13.416  13.248
45434SOL    HW238142   2.826  13.306  13.217
45435SOL     OW38143   8.725   6.228   0.589
45435SOL    HW138144   8.779   6.266   0.520
45435SOL    HW238145   8.680   6.304   0.627
45436SOL     OW38146  10.617   4.081   8.014
45436SOL    HW138147  10.542   4.107   7.962
45436SOL    HW238148  10.598   4.113   8.102
45437SOL     OW38149   4.536  12.309   8.568
45437SOL    HW138150   4.481  12.381   8.597
45437SOL    HW238151   4.527  12.243   8.637
45438SOL     OW38152  11.257   4.288   3.052
45438SOL    HW138153  11.285   4.205   3.013
45438SOL    HW238154  11.321   4.304   3.121
45439SOL     OW38155  11.177  13.377   8.091
45439SOL    HW138156  11.163  13.331   8.009
45439SOL    HW238157  11.163  13.469   8.071
45440SOL     OW38158  10.546   4.773   1.701
45440SOL    HW138159  10.556   4.680   1.681
45440SOL    HW238160  10.628   4.797   1.743
45441SOL     OW38161  11.560   4.436   1.918
45441SOL    HW138162  11.646   4.434   1.877
45441SOL    HW238163  11.550   4.348   1.956
45442SOL     OW38164   9.429   9.392   1.720
45442SOL    HW138165   9.422   9.314   1.664
45442SOL    HW238166   9.428   9.465   1.659
45443SOL     OW38167  11.748   5.262   0.845
45443SOL    HW138168  11.792   5.273   0.929
45443SOL    HW238169  11.788   5.184   0.806
45444SOL     OW38170   0.268   3.093   1.202
45444SOL    HW138171   0.217   3.069   1.279
45444SOL    HW238172   0.300   3.181   1.220
45445SOL     OW38173  10.617  11.760   3.427
45445SOL    HW138174  10.626  11.735   3.335
45445SOL    HW238175  10.580  11.848   3.424
45446SOL     OW38176  13.863   4.900   8.751
45446SOL    HW138177  13.918   4.893   8.829
45446SOL    HW238178  13.846   4.993   8.741
45447SOL     OW38179   2.841   8.021  11.808
45447SOL    HW138180   2.895   7.974  11.745
45447SOL    HW238181   2.903   8.064  11.866
45448SOL     OW38182  11.666  12.531   2.403
45448SOL    HW138183  11.632  12.559   2.318
45448SOL    HW238184  11.761  12.545   2.397
45449SOL     OW38185   4.861   8.254   5.357
45449SOL    HW138186   4.798   8.255   5.429
45449SOL    HW238187   4.883   8.346   5.343
45450SOL     OW38188   7.406   4.477   1.143
45450SOL    HW138189   7.486   4.456   1.191
45450SOL    HW238190   7.426   4.454   1.052
45451SOL     OW38191   9.741   4.257   2.376
45451SOL    HW138192   9.673   4.201   2.415
45451SOL    HW238193   9.714   4.346   2.399
45452SOL     OW38194   5.579   2.417   3.946
45452SOL    HW138195   5.662   2.398   3.902
45452SOL    HW238196   5.563   2.509   3.928
45453SOL     OW38197  10.205  12.808  12.531
45453SOL    HW138198  10.131  12.803  12.470
45453SOL    HW238199  10.241  12.719  12.532
45454SOL     OW38200   3.238   4.706   8.123
45454SOL    HW138201   3.164   4.689   8.182
45454SOL    HW238202   3.206   4.678   8.037
45455SOL     OW38203  11.494   2.980  14.694
45455SOL    HW138204  11.526   2.914  14.632
45455SOL    HW238205  11.565   2.987  14.759
45456SOL     OW38206  13.709   8.789   9.153
45456SOL    HW138207  13.751   8.706   9.132
45456SOL    HW238208  13.661   8.813   9.074
45457SOL     OW38209  10.950  14.854  13.916
45457SOL    HW138210  10.897   0.058  13.936
45457SOL    HW238211  11.038   0.003  13.945
45458SOL     OW38212   7.536   1.233   1.434
45458SOL    HW138213   7.585   1.205   1.357
45458SOL    HW238214   7.444   1.223   1.409
45459SOL     OW38215   9.417   9.437   9.070
45459SOL    HW138216   9.418   9.531   9.053
45459SOL    HW238217   9.382   9.429   9.159
45460SOL     OW38218   0.931   0.326  13.414
45460SOL    HW138219   0.844   0.345  13.378
45460SOL    HW238220   0.958   0.408  13.457
45461SOL     OW38221  10.341   9.784   0.278
45461SOL    HW138222  10.410   9.815   0.337
45461SOL    HW238223  10.358   9.828   0.195
45462SOL     OW38224  14.608   4.528  12.449
45462SOL    HW138225  14.554   4.568  12.381
45462SOL    HW238226  14.620   4.598  12.513
45463SOL     OW38227   6.312   0.670  13.034
45463SOL    HW138228   6.241   0.660  12.971
45463SOL    HW238229   6.283   0.741  13.092
45464SOL     OW38230   4.820   1.002   7.421
45464SOL    HW138231   4.908   1.026   7.392
45464SOL    HW238232   4.825   0.908   7.440
45465SOL     OW38233   7.296  14.068   1.776
45465SOL    HW138234   7.279  14.024   1.693
45465SOL    HW238235   7.389  14.053   1.793
45466SOL     OW38236   3.973   6.318   9.137
45466SOL    HW138237   3.908   6.348   9.201
45466SOL    HW238238   3.986   6.225   9.156
45467SOL     OW38239   2.450   5.786   2.525
45467SOL    HW138240   2.457   5.840   2.446
45467SOL    HW238241   2.399   5.839   2.586
45468SOL     OW38242   9.138   9.756   0.736
45468SOL    HW138243   9.079   9.721   0.670
45468SOL    HW238244   9.146   9.686   0.801
45469SOL     OW38245   0.374   8.924   4.809
45469SOL    HW138246   0.364   8.854   4.745
45469SOL    HW238247   0.291   8.973   4.805
45470SOL     OW38248   5.831  11.079   1.105
45470SOL    HW138249   5.790  11.097   1.189
45470SOL    HW238250   5.886  11.002   1.121
45471SOL     OW38251  14.591   6.371   8.573
45471SOL    HW138252  14.497   6.386   8.575
45471SOL    HW238253  14.630   6.452   8.606
45472SOL     OW38254  13.753   0.753   5.248
45472SOL    HW138255  13.815   0.826   5.252
45472SOL    HW238256  13.736   0.742   5.154
45473SOL     OW38257   4.049  11.002   0.344
45473SOL    HW138258   4.127  11.038   0.384
45473SOL    HW238259   3.994  10.976   0.418
45474SOL     OW38260   9.566   0.971   3.213
45474SOL    HW138261   9.625   0.899   3.190
45474SOL    HW238262   9.625   1.044   3.234
45475SOL     OW38263  13.277   0.941  12.244
45475SOL    HW138264  13.213   0.993  12.195
45475SOL    HW238265  13.326   1.004  12.297
45476SOL     OW38266  10.155   1.233  14.249
45476SOL    HW138267  10.088   1.298  14.267
45476SOL    HW238268  10.162   1.182  14.329
45477SOL     OW38269   4.230   0.038  11.401
45477SOL    HW138270   4.255  14.844  11.464
45477SOL    HW238271   4.306   0.046  11.343
45478SOL     OW38272  13.275   6.445   9.602
45478SOL    HW138273  13.363   6.456   9.565
45478SOL    HW238274  13.254   6.531   9.638
45479SOL     OW38275  11.268   2.794   6.435
45479SOL    HW138276  11.188   2.745   6.455
45479SOL    HW238277  11.279   2.784   6.340
45480SOL     OW38278  11.293  14.064   9.632
45480SOL    HW138279  11.370  14.007   9.637
45480SOL    HW238280  11.222  14.005   9.608
45481SOL     OW38281   2.553   9.758  13.714
45481SOL    HW138282   2.480   9.816  13.736
45481SOL    HW238283   2.610   9.763  13.791
45482SOL     OW38284  12.291  10.280   4.048
45482SOL    HW138285  12.338  10.363   4.059
45482SOL    HW238286  12.231  10.277   4.123
45483SOL     OW38287   3.395  11.333   6.502
45483SOL    HW138288   3.341  11.372   6.571
45483SOL    HW238289   3.479  11.378   6.509
45484SOL     OW38290  10.659   3.856  12.436
45484SOL    HW138291  10.610   3.860  12.354
45484SOL    HW238292  10.749   3.843  12.409
45485SOL     OW38293  11.109   7.386  10.927
45485SOL    HW138294  11.103   7.298  10.889
45485SOL    HW238295  11.077   7.375  11.016
45486SOL     OW38296   8.282  12.447   0.225
45486SOL    HW138297   8.362  12.487   0.257
45486SOL    HW238298   8.228  12.521   0.197
45487SOL     OW38299   1.928  10.051  10.341
45487SOL    HW138300   1.882  10.045  10.258
45487SOL    HW238301   1.859  10.066  10.406
45488SOL     OW38302   4.052  11.985  11.836
45488SOL    HW138303   4.105  11.994  11.757
45488SOL    HW238304   4.102  11.926  11.892
45489SOL     OW38305   0.266  13.798  13.176
45489SOL    HW138306   0.280  13.832  13.265
45489SOL    HW238307   0.349  13.814  13.131
45490SOL     OW38308  13.191   8.684  14.749
45490SOL    HW138309  13.157   8.620  14.811
45490SOL    HW238310  13.222   8.633  14.675
45491SOL     OW38311   9.963  12.809   4.247
45491SOL    HW138312   9.901  12.848   4.185
45491SOL    HW238313  10.039  12.867   4.245
45492SOL     OW38314   3.889   0.207   1.800
45492SOL    HW138315   3.857   0.119   1.779
45492SOL    HW238316   3.979   0.208   1.766
45493SOL     OW38317   8.009  12.545  10.340
45493SOL    HW138318   8.095  12.579  10.316
45493SOL    HW238319   7.951  12.621  10.335
45494SOL     OW38320  13.932  13.986  14.755
45494SOL    HW138321  13.969  13.926  14.690
45494SOL    HW238322  13.994  14.058  14.760
45495SOL     OW38323   9.444   7.817  10.412
45495SOL    HW138324   9.518   7.877  10.422
45495SOL    HW238325   9.370   7.874  10.389
45496SOL     OW38326  12.418   5.636  12.307
45496SOL    HW138327  12.480   5.702  12.337
45496SOL    HW238328  12.459   5.552  12.331
45497SOL     OW38329   0.195   5.184   5.543
45497SOL    HW138330   0.265   5.196   5.480
45497SOL    HW238331   0.232   5.213   5.626
45498SOL     OW38332  14.670   7.752   8.081
45498SOL    HW138333  14.758   7.716   8.089
45498SOL    HW238334  14.650   7.786   8.168
45499SOL     OW38335   1.676   0.670  11.507
45499SOL    HW138336   1.722   0.744  11.547
45499SOL    HW238337   1.710   0.666  11.418
45500SOL     OW38338   0.104   9.361  11.271
45500SOL    HW138339   0.064   9.448  11.270
45500SOL    HW238340   0.195   9.376  11.296
45501SOL     OW38341   0.156   0.467  12.784
45501SOL    HW138342   0.127   0.550  12.821
45501SOL    HW238343   0.077   0.413  12.780
45502SOL     OW38344   7.069   2.639   1.180
45502SOL    HW138345   7.033   2.725   1.156
45502SOL    HW238346   7.037   2.579   1.113
45503SOL     OW38347  13.937   6.087  11.520
45503SOL    HW138348  13.975   6.144  11.453
45503SOL    HW238349  14.013   6.045  11.561
45504SOL     OW38350  11.249  11.813  12.496
45504SOL    HW138351  11.196  11.839  12.571
45504SOL    HW238352  11.309  11.886  12.483
45505SOL     OW38353   7.140   2.542   6.044
45505SOL    HW138354   7.188   2.572   5.967
45505SOL    HW238355   7.196   2.567   6.118
45506SOL     OW38356   1.866   1.765   0.537
45506SOL    HW138357   1.883   1.821   0.461
45506SOL    HW238358   1.779   1.791   0.567
45507SOL     OW38359   8.000   8.352  13.244
45507SOL    HW138360   7.927   8.299  13.276
45507SOL    HW238361   8.074   8.325  13.298
45508SOL     OW38362  10.291   5.564   8.617
45508SOL    HW138363  10.348   5.634   8.585
45508SOL    HW238364  10.216   5.565   8.558
45509SOL     OW38365   2.308   5.223   7.061
45509SOL    HW138366   2.311   5.290   6.993
45509SOL    HW238367   2.220   5.186   7.053
45510SOL     OW38368  11.647   7.837   5.745
45510SOL    HW138369  11.563   7.794   5.732
45510SOL    HW238370  11.631   7.929   5.723
45511SOL     OW38371   8.278   9.260  12.092
45511SOL    HW138372   8.372   9.275  12.090
45511SOL    HW238373   8.251   9.288  12.180
45512SOL     OW38374  10.747  14.095  14.858
45512SOL    HW138375  10.787  14.157  14.797
45512SOL    HW238376  10.721  14.148   0.059
45513SOL     OW38377   7.658   0.252   4.839
45513SOL    HW138378   7.745   0.221   4.813
45513SOL    HW238379   7.598   0.203   4.783
45514SOL     OW38380   6.291   9.516  10.811
45514SOL    HW138381   6.261   9.453  10.877
45514SOL    HW238382   6.223   9.583  10.809
45515SOL     OW38383   0.482   7.672   8.180
45515SOL    HW138384   0.502   7.721   8.259
45515SOL    HW238385   0.443   7.737   8.121
45516SOL     OW38386  12.988   4.603   9.688
45516SOL    HW138387  13.013   4.671   9.751
45516SOL    HW238388  13.070   4.558   9.667
45517SOL     OW38389   4.919   1.253   8.761
45517SOL    HW138390   4.895   1.274   8.671
45517SOL    HW238391   5.010   1.283   8.770
45518SOL     OW38392   9.522   8.831   3.820
45518SOL    HW138393   9.492   8.919   3.799
45518SOL    HW238394   9.536   8.832   3.915
45519SOL     OW38395   8.907  13.832   2.186
45519SOL    HW138396   8.965  13.837   2.110
45519SOL    HW238397   8.895  13.924   2.213
45520SOL     OW38398   3.231  12.637   8.689
45520SOL    HW138399   3.216  12.716   8.741
45520SOL    HW238400   3.326  12.625   8.690
45521SOL     OW38401   4.588   4.469   0.164
45521SOL    HW138402   4.619   4.437   0.079
45521SOL    HW238403   4.497   4.441   0.168
45522SOL     OW38404  12.731   0.959   0.861
45522SOL    HW138405  12.667   1.020   0.825
45522SOL    HW238406  12.815   0.994   0.834
45523SOL     OW38407   5.887  13.643   6.951
45523SOL    HW138408   5.849  13.570   6.903
45523SOL    HW238409   5.813  13.703   6.964
45524SOL     OW38410   4.785   5.456  10.610
45524SOL    HW138411   4.718   5.524  10.603
45524SOL    HW238412   4.781   5.427  10.701
45525SOL     OW38413   2.583   4.837   4.528
45525SOL    HW138414   2.666   4.878   4.548
45525SOL    HW238415   2.598   4.792   4.444
45526SOL     OW38416   4.593   8.816   1.217
45526SOL    HW138417   4.644   8.897   1.225
45526SOL    HW238418   4.633   8.769   1.145
45527SOL     OW38419  14.063  12.680  11.814
45527SOL    HW138420  14.042  12.588  11.798
45527SOL    HW238421  14.153  12.690  11.785
45528SOL     OW38422   2.273   5.348   8.177
45528SOL    HW138423   2.256   5.440   8.197
45528SOL    HW238424   2.192   5.318   8.134
45529SOL     OW38425   2.515   9.094   5.435
45529SOL    HW138426   2.508   9.180   5.394
45529SOL    HW238427   2.560   9.040   5.370
45530SOL     OW38428   0.614  10.385   0.047
45530SOL    HW138429   0.674  10.315   0.020
45530SOL    HW238430   0.603  10.439  14.843
45531SOL     OW38431  11.438   2.428   8.897
45531SOL    HW138432  11.352   2.423   8.855
45531SOL    HW238433  11.491   2.364   8.849
45532SOL     OW38434   8.444   3.696   7.285
45532SOL    HW138435   8.509   3.637   7.246
45532SOL    HW238436   8.395   3.730   7.210
45533SOL     OW38437   7.722  14.184  11.055
45533SOL    HW138438   7.770  14.232  10.987
45533SOL    HW238439   7.630  14.204  11.038
45534SOL     OW38440   8.054   4.115   7.465
45534SOL    HW138441   8.046   4.066   7.383
45534SOL    HW238442   8.147   4.108   7.487
45535SOL     OW38443   2.821   8.900   1.352
45535SOL    HW138444   2.846   8.954   1.428
45535SOL    HW238445   2.904   8.869   1.316
45536SOL     OW38446   3.924   3.106   0.768
45536SOL    HW138447   3.943   3.188   0.812
45536SOL    HW238448   3.839   3.120   0.726
45537SOL     OW38449   0.959  12.859   2.200
45537SOL    HW138450   0.952  12.897   2.113
45537SOL    HW238451   0.891  12.904   2.251
45538SOL     OW38452   9.323  14.193   1.847
45538SOL    HW138453   9.388  14.166   1.783
45538SOL    HW238454   9.263  14.250   1.799
45539SOL     OW38455   1.321   1.645   1.019
45539SOL    HW138456   1.391   1.659   1.082
45539SOL    HW238457   1.245   1.689   1.057
45540SOL     OW38458   6.436   1.270  10.227
45540SOL    HW138459   6.500   1.316  10.173
45540SOL    HW238460   6.405   1.337  10.289
45541SOL     OW38461   6.617   6.544  10.228
45541SOL    HW138462   6.623   6.605  10.302
45541SOL    HW238463   6.695   6.562  10.176
45542SOL     OW38464   0.395   4.513   6.122
45542SOL    HW138465   0.316   4.493   6.073
45542SOL    HW238466   0.390   4.608   6.138
45543SOL     OW38467   4.370   4.227  12.131
45543SOL    HW138468   4.414   4.287  12.193
45543SOL    HW238469   4.349   4.282  12.056
45544SOL     OW38470   3.467   3.910  12.931
45544SOL    HW138471   3.382   3.947  12.908
45544SOL    HW238472   3.529   3.957  12.875
45545SOL     OW38473   8.068   0.865   2.219
45545SOL    HW138474   8.102   0.954   2.222
45545SOL    HW238475   8.017   0.862   2.138
45546SOL     OW38476  13.829   3.013   7.125
45546SOL    HW138477  13.865   3.062   7.199
45546SOL    HW238478  13.906   2.980   7.079
45547SOL     OW38479   5.134  14.017  10.006
45547SOL    HW138480   5.228  14.032  10.019
45547SOL    HW238481   5.122  13.924  10.027
45548SOL     OW38482  13.672  11.684  14.257
45548SOL    HW138483  13.647  11.610  14.202
45548SOL    HW238484  13.714  11.746  14.197
45549SOL     OW38485   1.947   5.590   7.029
45549SOL    HW138486   1.964   5.663   6.969
45549SOL    HW238487   1.853   5.576   7.023
45550SOL     OW38488  13.216  12.727  11.676
45550SOL    HW138489  13.199  12.820  11.665
45550SOL    HW238490  13.304  12.723  11.713
45551SOL     OW38491   0.506   2.480   7.500
45551SOL    HW138492   0.508   2.384   7.504
45551SOL    HW238493   0.450   2.506   7.573
45552SOL     OW38494  11.542  14.490   0.003
45552SOL    HW138495  11.529  14.569  14.825
45552SOL    HW238496  11.458  14.445  14.873
45553SOL     OW38497   0.895  14.505   2.647
45553SOL    HW138498   0.828  14.564   2.681
45553SOL    HW238499   0.868  14.488   2.557
45554SOL     OW38500   5.759  12.621   2.171
45554SOL    HW138501   5.665  12.602   2.163
45554SOL    HW238502   5.799  12.570   2.101
45555SOL     OW38503   4.394   3.852   2.437
45555SOL    HW138504   4.433   3.845   2.350
45555SOL    HW238505   4.322   3.788   2.436
45556SOL     OW38506   0.528  13.332   4.815
45556SOL    HW138507   0.518  13.411   4.867
45556SOL    HW238508   0.555  13.363   4.729
45557SOL     OW38509   8.837   9.686  11.812
45557SOL    HW138510   8.881   9.663  11.894
45557SOL    HW238511   8.780   9.760  11.835
45558SOL     OW38512  11.042   1.837  14.597
45558SOL    HW138513  10.961   1.865  14.640
45558SOL    HW238514  11.108   1.840  14.666
45559SOL     OW38515  10.867   0.956   2.878
45559SOL    HW138516  10.849   1.014   2.952
45559SOL    HW238517  10.960   0.935   2.886
45560SOL     OW38518   6.609  11.954  13.901
45560SOL    HW138519   6.582  12.007  13.976
45560SOL    HW238520   6.588  11.864  13.926
45561SOL     OW38521   3.093   1.426  12.607
45561SOL    HW138522   3.119   1.341  12.642
45561SOL    HW238523   3.169   1.483  12.620
45562SOL     OW38524   0.830   4.569   4.316
45562SOL    HW138525   0.919   4.588   4.344
45562SOL    HW238526   0.838   4.546   4.224
45563SOL     OW38527   8.426   8.726  12.905
45563SOL    HW138528   8.419   8.804  12.851
45563SOL    HW238529   8.368   8.662  12.864
45564SOL     OW38530   2.562  10.897  12.741
45564SOL    HW138531   2.568  10.961  12.670
45564SOL    HW238532   2.652  10.884  12.770
45565SOL     OW38533   5.830  13.508   8.970
45565SOL    HW138534   5.765  13.450   9.011
45565SOL    HW238535   5.899  13.449   8.940
45566SOL     OW38536  10.078  11.594   8.664
45566SOL    HW138537  10.056  11.630   8.750
45566SOL    HW238538  10.173  11.588   8.665
45567SOL     OW38539   2.956  14.260  12.345
45567SOL    HW138540   2.904  14.302  12.276
45567SOL    HW238541   3.045  14.291  12.330
45568SOL     OW38542  11.891   1.768   3.156
45568SOL    HW138543  11.829   1.722   3.213
45568SOL    HW238544  11.838   1.835   3.112
45569SOL     OW38545   5.096   5.754   5.709
45569SOL    HW138546   5.175   5.790   5.749
45569SOL    HW238547   5.115   5.661   5.698
45570SOL     OW38548   1.247   9.717   5.718
45570SOL    HW138549   1.299   9.689   5.793
45570SOL    HW238550   1.156   9.709   5.747
45571SOL     OW38551  13.150  14.523   7.690
45571SOL    HW138552  13.097  14.573   7.628
45571SOL    HW238553  13.217  14.482   7.636
45572SOL     OW38554  13.795   4.896   1.305
45572SOL    HW138555  13.743   4.971   1.336
45572SOL    HW238556  13.770   4.887   1.213
45573SOL     OW38557   2.157   2.092   7.558
45573SOL    HW138558   2.131   2.169   7.608
45573SOL    HW238559   2.074   2.050   7.534
45574SOL     OW38560  14.787   1.055  10.636
45574SOL    HW138561  14.766   0.999  10.561
45574SOL    HW238562  14.736   1.135  10.622
45575SOL     OW38563   2.156  14.587   6.994
45575SOL    HW138564   2.104  14.512   7.022
45575SOL    HW238565   2.238  14.548   6.962
45576SOL     OW38566   7.325   0.650  10.765
45576SOL    HW138567   7.388   0.578  10.764
45576SOL    HW238568   7.245   0.611  10.801
45577SOL     OW38569   3.215   3.397   8.284
45577SOL    HW138570   3.128   3.372   8.313
45577SOL    HW238571   3.236   3.337   8.213
45578SOL     OW38572   2.178  14.249   2.426
45578SOL    HW138573   2.226  14.207   2.354
45578SOL    HW238574   2.240  14.250   2.498
45579SOL     OW38575   1.977   3.357   7.763
45579SOL    HW138576   2.062   3.312   7.763
45579SOL    HW238577   1.922   3.302   7.706
45580SOL     OW38578  14.198   8.613   4.604
45580SOL    HW138579  14.246   8.676   4.657
45580SOL    HW238580  14.149   8.667   4.541
45581SOL     OW38581  14.258   8.927   4.329
45581SOL    HW138582  14.273   8.964   4.416
45581SOL    HW238583  14.273   9.000   4.269
45582SOL     OW38584   4.152   5.258  12.923
45582SOL    HW138585   4.122   5.346  12.944
45582SOL    HW238586   4.072   5.206  12.914
45583SOL     OW38587   8.161   2.796   2.194
45583SOL    HW138588   8.240   2.801   2.141
45583SOL    HW238589   8.191   2.806   2.284
45584SOL     OW38590  12.197   8.233   9.213
45584SOL    HW138591  12.234   8.208   9.128
45584SOL    HW238592  12.273   8.254   9.267
45585SOL     OW38593   6.753   2.943  14.661
45585SOL    HW138594   6.766   2.957  14.755
45585SOL    HW238595   6.685   2.876  14.655
45586SOL     OW38596  13.489  10.916  10.134
45586SOL    HW138597  13.542  10.970  10.192
45586SOL    HW238598  13.539  10.911  10.052
45587SOL     OW38599   2.726   9.406   8.472
45587SOL    HW138600   2.647   9.359   8.496
45587SOL    HW238601   2.710   9.496   8.498
45588SOL     OW38602  11.233  11.935   3.266
45588SOL    HW138603  11.155  11.985   3.292
45588SOL    HW238604  11.288  11.933   3.345
45589SOL     OW38605   8.708  11.962  13.019
45589SOL    HW138606   8.773  11.956  12.949
45589SOL    HW238607   8.743  12.029  13.078
45590SOL     OW38608  10.001  14.627   1.952
45590SOL    HW138609  10.041  14.556   1.900
45590SOL    HW238610   9.928  14.585   1.997
45591SOL     OW38611   6.278  12.815  13.729
45591SOL    HW138612   6.298  12.724  13.751
45591SOL    HW238613   6.182  12.817  13.724
45592SOL     OW38614   4.450   0.299   5.704
45592SOL    HW138615   4.489   0.384   5.725
45592SOL    HW238616   4.524   0.243   5.681
45593SOL     OW38617   6.373   6.066   6.245
45593SOL    HW138618   6.343   6.007   6.175
45593SOL    HW238619   6.358   6.154   6.210
45594SOL     OW38620   7.415  11.664  12.536
45594SOL    HW138621   7.386  11.754  12.522
45594SOL    HW238622   7.504  11.672  12.570
45595SOL     OW38623   3.990   0.799  13.137
45595SOL    HW138624   3.971   0.705  13.144
45595SOL    HW238625   3.980   0.833  13.226
45596SOL     OW38626  11.867   0.479   3.477
45596SOL    HW138627  11.834   0.535   3.407
45596SOL    HW238628  11.829   0.515   3.557
45597SOL     OW38629   8.956  10.323   4.351
45597SOL    HW138630   8.879  10.287   4.395
45597SOL    HW238631   8.995  10.383   4.415
45598SOL     OW38632   8.202   5.403   7.368
45598SOL    HW138633   8.274   5.409   7.430
45598SOL    HW238634   8.127   5.441   7.414
45599SOL     OW38635  11.864   2.174   4.815
45599SOL    HW138636  11.938   2.128   4.775
45599SOL    HW238637  11.848   2.249   4.757
45600SOL     OW38638  13.065   0.778   4.369
45600SOL    HW138639  13.094   0.694   4.335
45600SOL    HW238640  13.114   0.843   4.319
45601SOL     OW38641   8.676   0.830  10.942
45601SOL    HW138642   8.653   0.897  10.877
45601SOL    HW238643   8.768   0.847  10.963
45602SOL     OW38644   3.603   3.095   2.138
45602SOL    HW138645   3.617   3.057   2.224
45602SOL    HW238646   3.519   3.141   2.145
45603SOL     OW38647   8.557   4.138  12.254
45603SOL    HW138648   8.530   4.143  12.346
45603SOL    HW238649   8.536   4.224  12.218
45604SOL     OW38650   6.204   7.615   7.756
45604SOL    HW138651   6.214   7.660   7.672
45604SOL    HW238652   6.171   7.682   7.815
45605SOL     OW38653   1.455   6.532   0.286
45605SOL    HW138654   1.393   6.574   0.227
45605SOL    HW238655   1.402   6.502   0.359
45606SOL     OW38656  12.578   9.774   0.558
45606SOL    HW138657  12.491   9.789   0.596
45606SOL    HW238658  12.623   9.719   0.622
45607SOL     OW38659  14.801   6.299   3.908
45607SOL    HW138660  14.827   6.228   3.967
45607SOL    HW238661   0.006   6.351   3.897
45608SOL     OW38662  12.472   8.927   6.362
45608SOL    HW138663  12.441   9.018   6.359
45608SOL    HW238664  12.471   8.899   6.271
45609SOL     OW38665  13.022   6.212  12.907
45609SOL    HW138666  12.968   6.146  12.863
45609SOL    HW238667  12.998   6.295  12.865
45610SOL     OW38668   9.163  11.859   2.366
45610SOL    HW138669   9.159  11.919   2.292
45610SOL    HW238670   9.095  11.794   2.349
45611SOL     OW38671   6.432   5.340   6.645
45611SOL    HW138672   6.521   5.373   6.660
45611SOL    HW238673   6.433   5.251   6.678
45612SOL     OW38674   2.618  12.653   7.126
45612SOL    HW138675   2.555  12.724   7.118
45612SOL    HW238676   2.655  12.663   7.214
45613SOL     OW38677  11.290   3.561   7.045
45613SOL    HW138678  11.318   3.485   6.993
45613SOL    HW238679  11.199   3.544   7.066
45614SOL     OW38680   7.231  11.224  11.328
45614SOL    HW138681   7.234  11.268  11.413
45614SOL    HW238682   7.169  11.152  11.340
45615SOL     OW38683   4.230   4.501   8.343
45615SOL    HW138684   4.168   4.429   8.333
45615SOL    HW238685   4.202   4.546   8.423
45616SOL     OW38686   2.693   3.993   9.355
45616SOL    HW138687   2.752   4.068   9.356
45616SOL    HW238688   2.616   4.022   9.402
45617SOL     OW38689   2.309   5.361  10.280
45617SOL    HW138690   2.286   5.290  10.340
45617SOL    HW238691   2.301   5.441  10.333
45618SOL     OW38692   6.034   2.809  13.910
45618SOL    HW138693   6.077   2.757  13.978
45618SOL    HW238694   6.025   2.749  13.836
45619SOL     OW38695   1.283  14.322  12.381
45619SOL    HW138696   1.291  14.416  12.368
45619SOL    HW238697   1.195  14.309  12.416
45620SOL     OW38698   6.918  13.577   3.634
45620SOL    HW138699   6.894  13.657   3.587
45620SOL    HW238700   6.886  13.591   3.723
45621SOL     OW38701   6.163  13.757  13.760
45621SOL    HW138702   6.257  13.762  13.743
45621SOL    HW238703   6.125  13.721  13.680
45622SOL     OW38704   0.032   1.833   8.791
45622SOL    HW138705   0.014   1.758   8.733
45622SOL    HW238706   0.116   1.867   8.761
45623SOL     OW38707   7.228   9.379   1.826
45623SOL    HW138708   7.269   9.297   1.797
45623SOL    HW238709   7.296   9.422   1.878
45624SOL     OW38710  13.791   7.677   4.088
45624SOL    HW138711  13.811   7.663   4.180
45624SOL    HW238712  13.736   7.603   4.063
45625SOL     OW38713   9.667   7.641   1.380
45625SOL    HW138714   9.706   7.603   1.459
45625SOL    HW238715   9.740   7.646   1.318
45626SOL     OW38716   5.514   7.301   7.874
45626SOL    HW138717   5.532   7.318   7.782
45626SOL    HW238718   5.534   7.383   7.918
45627SOL     OW38719  11.986   0.141  13.059
45627SOL    HW138720  12.078   0.167  13.068
45627SOL    HW238721  11.942   0.186  13.131
45628SOL     OW38722   1.945   5.884  14.679
45628SOL    HW138723   1.998   5.962  14.662
45628SOL    HW238724   1.976   5.852  14.764
45629SOL     OW38725   2.200   2.493   6.701
45629SOL    HW138726   2.294   2.476   6.714
45629SOL    HW238727   2.190   2.587   6.717
45630SOL     OW38728   4.881   5.697  12.319
45630SOL    HW138729   4.853   5.768  12.377
45630SOL    HW238730   4.930   5.741  12.250
45631SOL     OW38731   6.567   4.739   9.379
45631SOL    HW138732   6.576   4.644   9.387
45631SOL    HW238733   6.619   4.774   9.451
45632SOL     OW38734   5.057  14.786   7.469
45632SOL    HW138735   5.142  14.766   7.430
45632SOL    HW238736   5.076  14.849   7.538
45633SOL     OW38737   6.849   2.557  11.577
45633SOL    HW138738   6.926   2.512  11.542
45633SOL    HW238739   6.775   2.500  11.554
45634SOL     OW38740   4.880   6.835   1.520
45634SOL    HW138741   4.865   6.861   1.611
45634SOL    HW238742   4.854   6.742   1.518
45635SOL     OW38743   2.516   3.590  12.244
45635SOL    HW138744   2.582   3.573  12.311
45635SOL    HW238745   2.544   3.671  12.202
45636SOL     OW38746   5.667   2.288   2.791
45636SOL    HW138747   5.685   2.370   2.836
45636SOL    HW238748   5.573   2.277   2.796
45637SOL     OW38749   8.131  11.224   5.926
45637SOL    HW138750   8.108  11.167   5.853
45637SOL    HW238751   8.225  11.211   5.939
45638SOL     OW38752   6.915   7.459   3.224
45638SOL    HW138753   6.904   7.523   3.154
45638SOL    HW238754   7.004   7.474   3.256
45639SOL     OW38755  11.302   7.147   5.508
45639SOL    HW138756  11.311   7.212   5.438
45639SOL    HW238757  11.323   7.064   5.467
45640SOL     OW38758   3.648  12.325   0.095
45640SOL    HW138759   3.680  12.350   0.181
45640SOL    HW238760   3.623  12.407   0.054
45641SOL     OW38761   6.946   2.291   8.290
45641SOL    HW138762   6.887   2.222   8.258
45641SOL    HW238763   7.034   2.255   8.277
45642SOL     OW38764   1.481  13.022   2.362
45642SOL    HW138765   1.471  13.099   2.307
45642SOL    HW238766   1.575  13.007   2.366
45643SOL     OW38767   8.097  11.356   0.292
45643SOL    HW138768   8.088  11.426   0.356
45643SOL    HW238769   8.145  11.396   0.219
45644SOL     OW38770   9.968   1.396   0.068
45644SOL    HW138771   9.931   1.417   0.154
45644SOL    HW238772  10.049   1.446   0.064
45645SOL     OW38773  14.522  14.159  11.466
45645SOL    HW138774  14.561  14.239  11.503
45645SOL    HW238775  14.448  14.140  11.523
45646SOL     OW38776   0.640   8.602  13.750
45646SOL    HW138777   0.606   8.526  13.703
45646SOL    HW238778   0.657   8.570  13.838
45647SOL     OW38779   4.099  14.029   7.240
45647SOL    HW138780   4.100  14.057   7.331
45647SOL    HW238781   4.182  13.983   7.227
45648SOL     OW38782  11.489  10.072   9.687
45648SOL    HW138783  11.421  10.009   9.709
45648SOL    HW238784  11.444  10.156   9.685
45649SOL     OW38785   4.329  12.771   0.513
45649SOL    HW138786   4.320  12.863   0.537
45649SOL    HW238787   4.385  12.772   0.435
45650SOL     OW38788   3.309  10.884   2.712
45650SOL    HW138789   3.306  10.980   2.709
45650SOL    HW238790   3.266  10.856   2.631
45651SOL     OW38791  13.684   1.461   9.823
45651SOL    HW138792  13.745   1.534   9.832
45651SOL    HW238793  13.739   1.383   9.827
45652SOL     OW38794   1.391  10.121   0.615
45652SOL    HW138795   1.422  10.153   0.530
45652SOL    HW238796   1.386  10.200   0.669
45653SOL     OW38797   3.023  13.961   9.722
45653SOL    HW138798   3.107  13.991   9.758
45653SOL    HW238799   3.029  13.866   9.724
45654SOL     OW38800   9.224  14.078  14.389
45654SOL    HW138801   9.319  14.092  14.392
45654SOL    HW238802   9.212  13.989  14.421
45655SOL     OW38803   7.429  11.759   9.048
45655SOL    HW138804   7.448  11.691   8.984
45655SOL    HW238805   7.507  11.763   9.103
45656SOL     OW38806   5.507   9.219  11.824
45656SOL    HW138807   5.421   9.242  11.861
45656SOL    HW238808   5.486   9.171  11.744
45657SOL     OW38809   6.272   0.079   5.818
45657SOL    HW138810   6.193   0.085   5.764
45657SOL    HW238811   6.284   0.167   5.854
45658SOL     OW38812   6.707  10.273   8.980
45658SOL    HW138813   6.789  10.264   8.930
45658SOL    HW238814   6.708  10.200   9.041
45659SOL     OW38815   5.786   9.531   5.786
45659SOL    HW138816   5.776   9.565   5.697
45659SOL    HW238817   5.858   9.468   5.780
45660SOL     OW38818   0.659   4.768   4.397
45660SOL    HW138819   0.724   4.822   4.441
45660SOL    HW238820   0.710   4.697   4.357
45661SOL     OW38821   7.831   3.109  10.349
45661SOL    HW138822   7.798   3.020  10.333
45661SOL    HW238823   7.753   3.164  10.353
45662SOL     OW38824  10.226  14.154  13.812
45662SOL    HW138825  10.204  14.090  13.745
45662SOL    HW238826  10.259  14.230  13.764
45663SOL     OW38827   2.724  14.144   3.954
45663SOL    HW138828   2.668  14.193   4.014
45663SOL    HW238829   2.689  14.055   3.956
45664SOL     OW38830   3.780   6.119  10.116
45664SOL    HW138831   3.778   6.089  10.207
45664SOL    HW238832   3.867   6.158  10.105
45665SOL     OW38833   8.996  13.635  13.155
45665SOL    HW138834   8.993  13.730  13.169
45665SOL    HW238835   9.060  13.623  13.085
45666SOL     OW38836   8.910   0.508   9.308
45666SOL    HW138837   8.960   0.507   9.226
45666SOL    HW238838   8.832   0.559   9.289
45667SOL     OW38839  12.808   1.179  14.430
45667SOL    HW138840  12.850   1.141  14.507
45667SOL    HW238841  12.792   1.104  14.373
45668SOL     OW38842  14.558  14.273  11.756
45668SOL    HW138843  14.571  14.280  11.851
45668SOL    HW238844  14.462  14.268  11.747
45669SOL     OW38845   5.137   2.953   4.410
45669SOL    HW138846   5.179   2.883   4.462
45669SOL    HW238847   5.044   2.947   4.433
45670SOL     OW38848   5.277  13.859   9.783
45670SOL    HW138849   5.288  13.949   9.753
45670SOL    HW238850   5.366  13.824   9.784
45671SOL     OW38851   1.317   4.305  13.563
45671SOL    HW138852   1.404   4.341  13.551
45671SOL    HW238853   1.286   4.343  13.645
45672SOL     OW38854   5.814   6.306   3.690
45672SOL    HW138855   5.747   6.246   3.720
45672SOL    HW238856   5.895   6.276   3.732
45673SOL     OW38857   2.491  10.222  14.029
45673SOL    HW138858   2.463  10.291  13.969
45673SOL    HW238859   2.568  10.258  14.073
45674SOL     OW38860   3.761  12.020  13.795
45674SOL    HW138861   3.682  12.073  13.800
45674SOL    HW238862   3.819  12.057  13.861
45675SOL     OW38863  13.098   6.330   5.414
45675SOL    HW138864  13.143   6.349   5.331
45675SOL    HW238865  13.054   6.247   5.399
45676SOL     OW38866  12.371  14.717   2.443
45676SOL    HW138867  12.379  14.812   2.435
45676SOL    HW238868  12.457  14.683   2.417
45677SOL     OW38869   9.975   8.779  14.508
45677SOL    HW138870   9.917   8.704  14.523
45677SOL    HW238871   9.930   8.830  14.441
45678SOL     OW38872  10.643   7.142  10.393
45678SOL    HW138873  10.574   7.118  10.331
45678SOL    HW238874  10.679   7.224  10.359
45679SOL     OW38875  11.022   1.614   1.546
45679SOL    HW138876  11.095   1.674   1.538
45679SOL    HW238877  11.045   1.557   1.620
45680SOL     OW38878   4.960   7.746   1.035
45680SOL    HW138879   4.992   7.784   0.953
45680SOL    HW238880   4.866   7.736   1.021
45681SOL     OW38881   2.245   4.260   1.729
45681SOL    HW138882   2.273   4.183   1.778
45681SOL    HW238883   2.221   4.227   1.643
45682SOL     OW38884   3.459  11.942  12.244
45682SOL    HW138885   3.403  11.960  12.320
45682SOL    HW238886   3.400  11.945  12.169
45683SOL     OW38887  11.914   8.461  10.093
45683SOL    HW138888  11.900   8.387  10.153
45683SOL    HW238889  11.896   8.538  10.147
45684SOL     OW38890  11.400  11.494   9.884
45684SOL    HW138891  11.435  11.521   9.969
45684SOL    HW238892  11.353  11.413   9.902
45685SOL     OW38893  11.791   9.026  14.872
45685SOL    HW138894  11.781   9.087   0.070
45685SOL    HW238895  11.706   9.026  14.828
45686SOL     OW38896  13.619   9.921   1.876
45686SOL    HW138897  13.618   9.848   1.814
45686SOL    HW238898  13.545   9.904   1.935
45687SOL     OW38899   8.053   3.649   2.425
45687SOL    HW138900   8.075   3.710   2.496
45687SOL    HW238901   7.958   3.645   2.425
45688SOL     OW38902   8.853  13.860  14.405
45688SOL    HW138903   8.867  13.944  14.448
45688SOL    HW238904   8.870  13.877  14.312
45689SOL     OW38905   9.425   5.511  13.140
45689SOL    HW138906   9.495   5.552  13.191
45689SOL    HW238907   9.418   5.422  13.176
45690SOL     OW38908  10.370   5.904   4.891
45690SOL    HW138909  10.391   5.961   4.817
45690SOL    HW238910  10.299   5.949   4.936
45691SOL     OW38911   5.727   4.218   8.429
45691SOL    HW138912   5.803   4.181   8.385
45691SOL    HW238913   5.738   4.192   8.521
45692SOL     OW38914  13.873   6.577  10.980
45692SOL    HW138915  13.869   6.499  11.035
45692SOL    HW238916  13.802   6.567  10.917
45693SOL     OW38917   3.175  10.433  11.110
45693SOL    HW138918   3.183  10.524  11.082
45693SOL    HW238919   3.178  10.437  11.206
45694SOL     OW38920   4.199  12.158   4.519
45694SOL    HW138921   4.261  12.119   4.457
45694SOL    HW238922   4.117  12.164   4.470
45695SOL     OW38923   1.419   3.934  11.827
45695SOL    HW138924   1.482   3.998  11.860
45695SOL    HW238925   1.464   3.850  11.835
45696SOL     OW38926  10.348  12.437  10.682
45696SOL    HW138927  10.307  12.524  10.683
45696SOL    HW238928  10.317  12.397  10.600
45697SOL     OW38929  11.995   4.676   0.607
45697SOL    HW138930  11.982   4.610   0.539
45697SOL    HW238931  11.980   4.760   0.563
45698SOL     OW38932   7.744  14.249   0.989
45698SOL    HW138933   7.725  14.327   0.937
45698SOL    HW238934   7.727  14.274   1.079
45699SOL     OW38935  14.858  14.021   3.888
45699SOL    HW138936  14.844  14.093   3.950
45699SOL    HW238937   0.027  13.953   3.939
45700SOL     OW38938  10.537   1.156  10.761
45700SOL    HW138939  10.568   1.226  10.819
45700SOL    HW238940  10.460   1.194  10.718
45701SOL     OW38941   1.048   5.328   1.549
45701SOL    HW138942   1.019   5.249   1.595
45701SOL    HW238943   0.973   5.354   1.495
45702SOL     OW38944   0.846   3.380  13.184
45702SOL    HW138945   0.841   3.375  13.088
45702SOL    HW238946   0.879   3.468  13.202
45703SOL     OW38947   8.143   2.096   3.458
45703SOL    HW138948   8.146   2.065   3.367
45703SOL    HW238949   8.229   2.136   3.472
45704SOL     OW38950  10.754  14.386   4.197
45704SOL    HW138951  10.821  14.338   4.147
45704SOL    HW238952  10.802  14.455   4.242
45705SOL     OW38953   4.032   9.021   1.094
45705SOL    HW138954   3.940   9.049   1.099
45705SOL    HW238955   4.078   9.080   1.154
45706SOL     OW38956  11.828  10.293  13.592
45706SOL    HW138957  11.909  10.343  13.577
45706SOL    HW238958  11.846  10.244  13.672
45707SOL     OW38959   0.706  12.254   3.432
45707SOL    HW138960   0.801  12.258   3.427
45707SOL    HW238961   0.688  12.180   3.490
45708SOL     OW38962   8.634  14.872   4.247
45708SOL    HW138963   8.651   0.085   4.283
45708SOL    HW238964   8.710  14.820   4.274
45709SOL     OW38965  14.379   4.237  11.459
45709SOL    HW138966  14.449   4.295  11.489
45709SOL    HW238967  14.372   4.256  11.365
45710SOL     OW38968   9.956   7.082   8.777
45710SOL    HW138969   9.893   7.022   8.817
45710SOL    HW238970  10.032   7.080   8.836
45711SOL     OW38971   5.459  12.828   2.093
45711SOL    HW138972   5.542  12.872   2.073
45711SOL    HW238973   5.456  12.754   2.033
45712SOL     OW38974   3.468   8.211   4.851
45712SOL    HW138975   3.489   8.121   4.875
45712SOL    HW238976   3.372   8.215   4.856
45713SOL     OW38977  13.264   3.228   1.023
45713SOL    HW138978  13.227   3.286   0.957
45713SOL    HW238979  13.348   3.200   0.987
45714SOL     OW38980   4.380   3.244   9.829
45714SOL    HW138981   4.309   3.307   9.820
45714SOL    HW238982   4.380   3.195   9.747
45715SOL     OW38983   7.485   5.344   6.674
45715SOL    HW138984   7.460   5.265   6.722
45715SOL    HW238985   7.579   5.351   6.687
45716SOL     OW38986   2.488   7.655   1.686
45716SOL    HW138987   2.498   7.589   1.754
45716SOL    HW238988   2.471   7.604   1.606
45717SOL     OW38989  13.914  11.023   5.917
45717SOL    HW138990  13.859  11.014   5.995
45717SOL    HW238991  14.002  11.003   5.947
45718SOL     OW38992  10.933  13.391  13.372
45718SOL    HW138993  10.880  13.318  13.402
45718SOL    HW238994  11.017  13.351  13.347
45719SOL     OW38995  12.545   5.299  14.147
45719SOL    HW138996  12.597   5.336  14.076
45719SOL    HW238997  12.509   5.374  14.194
45720SOL     OW38998   8.442   1.830   3.017
45720SOL    HW138999   8.529   1.864   2.994
45720SOL    HW239000   8.391   1.839   2.937
45721SOL     OW39001   5.882   9.404   8.103
45721SOL    HW139002   5.829   9.351   8.043
45721SOL    HW239003   5.936   9.341   8.150
45722SOL     OW39004  12.739  13.263   7.288
45722SOL    HW139005  12.812  13.314   7.253
45722SOL    HW239006  12.781  13.193   7.338
45723SOL     OW39007   1.097   7.943   5.985
45723SOL    HW139008   1.113   8.026   5.940
45723SOL    HW239009   1.149   7.879   5.937
45724SOL     OW39010   0.095   0.050  10.735
45724SOL    HW139011   0.131   0.054  10.646
45724SOL    HW239012   0.164   0.088  10.789
45725SOL     OW39013  13.814  10.132  12.844
45725SOL    HW139014  13.859  10.048  12.855
45725SOL    HW239015  13.878  10.197  12.874
45726SOL     OW39016  13.989  12.655   6.513
45726SOL    HW139017  13.914  12.601   6.536
45726SOL    HW239018  14.042  12.599   6.457
45727SOL     OW39019   0.890   2.244   0.070
45727SOL    HW139020   0.980   2.221   0.090
45727SOL    HW239021   0.860   2.295   0.146
45728SOL     OW39022   9.961   9.140  12.251
45728SOL    HW139023   9.970   9.049  12.221
45728SOL    HW239024   9.981   9.193  12.174
45729SOL     OW39025  13.958   2.279   5.426
45729SOL    HW139026  13.971   2.340   5.499
45729SOL    HW239027  13.867   2.252   5.433
45730SOL     OW39028   4.992  12.876   1.011
45730SOL    HW139029   5.015  12.795   0.966
45730SOL    HW239030   4.954  12.848   1.094
45731SOL     OW39031   3.333   8.294  14.314
45731SOL    HW139032   3.417   8.336  14.296
45731SOL    HW239033   3.339   8.265  14.405
45732SOL     OW39034  12.609   8.603  10.090
45732SOL    HW139035  12.596   8.511  10.067
45732SOL    HW239036  12.529   8.646  10.061
45733SOL     OW39037   3.524   0.024   2.682
45733SOL    HW139038   3.492   0.109   2.712
45733SOL    HW239039   3.452  14.838   2.700
45734SOL     OW39040  11.020   7.848   6.521
45734SOL    HW139041  11.074   7.838   6.444
45734SOL    HW239042  10.967   7.769   6.524
45735SOL     OW39043  12.856   0.965   6.062
45735SOL    HW139044  12.906   0.948   5.982
45735SOL    HW239045  12.888   1.050   6.092
45736SOL     OW39046   2.815  13.819   8.702
45736SOL    HW139047   2.727  13.790   8.726
45736SOL    HW239048   2.849  13.750   8.645
45737SOL     OW39049   4.360  14.109  11.807
45737SOL    HW139050   4.296  14.104  11.735
45737SOL    HW239051   4.408  14.027  11.801
45738SOL     OW39052  11.386  12.541   9.430
45738SOL    HW139053  11.474  12.513   9.453
45738SOL    HW239054  11.340  12.460   9.407
45739SOL     OW39055   7.997  11.212   1.888
45739SOL    HW139056   8.003  11.118   1.877
45739SOL    HW239057   7.959  11.224   1.975
45740SOL     OW39058  14.829   9.275  11.849
45740SOL    HW139059  14.834   9.322  11.933
45740SOL    HW239060  14.846   9.343  11.783
45741SOL     OW39061   2.123   3.092  10.314
45741SOL    HW139062   2.127   3.185  10.289
45741SOL    HW239063   2.197   3.081  10.374
45742SOL     OW39064   8.360  10.927   0.646
45742SOL    HW139065   8.430  10.992   0.646
45742SOL    HW239066   8.401  10.848   0.611
45743SOL     OW39067  13.858   4.817   0.484
45743SOL    HW139068  13.866   4.912   0.498
45743SOL    HW239069  13.833   4.782   0.569
45744SOL     OW39070   7.615   7.262  11.394
45744SOL    HW139071   7.573   7.277  11.309
45744SOL    HW239072   7.645   7.349  11.422
45745SOL     OW39073   1.014   4.134   9.824
45745SOL    HW139074   1.049   4.210   9.869
45745SOL    HW239075   1.072   4.122   9.748
45746SOL     OW39076   8.711  10.712  13.979
45746SOL    HW139077   8.709  10.703  14.074
45746SOL    HW239078   8.622  10.695  13.951
45747SOL     OW39079   8.176   8.460   4.263
45747SOL    HW139080   8.086   8.428   4.248
45747SOL    HW239081   8.217   8.389   4.313
45748SOL     OW39082   7.846  11.004   4.550
45748SOL    HW139083   7.769  11.061   4.556
45748SOL    HW239084   7.910  11.054   4.500
45749SOL     OW39085  13.933   8.929   0.743
45749SOL    HW139086  13.988   8.950   0.668
45749SOL    HW239087  13.995   8.902   0.811
45750SOL     OW39088  10.475   4.053  14.517
45750SOL    HW139089  10.469   4.077  14.424
45750SOL    HW239090  10.389   4.075  14.553
45751SOL     OW39091   9.235   1.121  12.731
45751SOL    HW139092   9.141   1.128  12.718
45751SOL    HW239093   9.269   1.207  12.708
45752SOL     OW39094  12.375   6.715   7.567
45752SOL    HW139095  12.380   6.750   7.656
45752SOL    HW239096  12.332   6.784   7.516
45753SOL     OW39097   2.949   6.602   1.943
45753SOL    HW139098   3.029   6.630   1.898
45753SOL    HW239099   2.944   6.508   1.927
45754SOL     OW39100   5.267  11.168   1.031
45754SOL    HW139101   5.177  11.141   1.048
45754SOL    HW239102   5.294  11.213   1.110
45755SOL     OW39103  14.796  12.956   2.276
45755SOL    HW139104  14.776  13.010   2.352
45755SOL    HW239105   0.017  12.944   2.281
45756SOL     OW39106  10.021  10.843   6.098
45756SOL    HW139107  10.066  10.795   6.168
45756SOL    HW239108  10.043  10.935   6.115
45757SOL     OW39109   2.513   1.662   9.622
45757SOL    HW139110   2.437   1.620   9.662
45757SOL    HW239111   2.525   1.616   9.539
45758SOL     OW39112   6.450   3.882   7.349
45758SOL    HW139113   6.420   3.877   7.440
45758SOL    HW239114   6.373   3.857   7.298
45759SOL     OW39115   2.679   5.885  11.736
45759SOL    HW139116   2.662   5.834  11.815
45759SOL    HW239117   2.747   5.835  11.690
45760SOL     OW39118  10.559  10.082  12.180
45760SOL    HW139119  10.599  10.019  12.239
45760SOL    HW239120  10.502  10.135  12.236
45761SOL     OW39121   6.631   3.118   4.201
45761SOL    HW139122   6.614   3.046   4.141
45761SOL    HW239123   6.721   3.103   4.231
45762SOL     OW39124   3.510   5.682   7.307
45762SOL    HW139125   3.605   5.671   7.300
45762SOL    HW239126   3.492   5.678   7.401
45763SOL     OW39127  11.020  10.612  13.936
45763SOL    HW139128  11.073  10.598  13.858
45763SOL    HW239129  10.936  10.573  13.915
45764SOL     OW39130  10.900   5.962  10.219
45764SOL    HW139131  10.969   5.995  10.161
45764SOL    HW239132  10.894   6.028  10.288
45765SOL     OW39133  10.573   7.244   3.346
45765SOL    HW139134  10.591   7.320   3.291
45765SOL    HW239135  10.511   7.275   3.412
45766SOL     OW39136   9.110   8.096   4.544
45766SOL    HW139137   9.110   8.014   4.495
45766SOL    HW239138   9.020   8.128   4.536
45767SOL     OW39139   6.610  10.761   1.785
45767SOL    HW139140   6.661  10.696   1.833
45767SOL    HW239141   6.613  10.733   1.694
45768SOL     OW39142   3.046  10.579  10.780
45768SOL    HW139143   3.028  10.606  10.870
45768SOL    HW239144   3.052  10.661  10.731
45769SOL     OW39145  14.343   1.853  13.626
45769SOL    HW139146  14.383   1.816  13.548
45769SOL    HW239147  14.387   1.809  13.699
45770SOL     OW39148   9.385   4.399  11.232
45770SOL    HW139149   9.419   4.445  11.156
45770SOL    HW239150   9.459   4.392  11.292
45771SOL     OW39151   4.929  11.868  12.037
45771SOL    HW139152   4.859  11.933  12.042
45771SOL    HW239153   4.884  11.784  12.026
45772SOL     OW39154   2.710   6.147   5.747
45772SOL    HW139155   2.654   6.092   5.803
45772SOL    HW239156   2.743   6.088   5.680
45773SOL     OW39157  14.053   9.496   3.647
45773SOL    HW139158  14.062   9.453   3.732
45773SOL    HW239159  14.006   9.577   3.666
45774SOL     OW39160  14.699   0.896   0.094
45774SOL    HW139161  14.658   0.839   0.029
45774SOL    HW239162  14.722   0.975   0.045
45775SOL     OW39163   0.310   4.959  10.137
45775SOL    HW139164   0.389   5.012  10.145
45775SOL    HW239165   0.252   4.992  10.205
45776SOL     OW39166  10.189   1.167   3.773
45776SOL    HW139167  10.185   1.234   3.841
45776SOL    HW239168  10.279   1.136   3.774
45777SOL     OW39169   5.631   9.431   5.271
45777SOL    HW139170   5.690   9.356   5.265
45777SOL    HW239171   5.682   9.499   5.317
45778SOL     OW39172  12.485   4.275  14.035
45778SOL    HW139173  12.391   4.289  14.037
45778SOL    HW239174  12.517   4.305  14.120
45779SOL     OW39175   8.211   8.694  13.376
45779SOL    HW139176   8.298   8.658  13.360
45779SOL    HW239177   8.217   8.785  13.345
45780SOL     OW39178   5.771   3.719   5.340
45780SOL    HW139179   5.777   3.630   5.307
45780SOL    HW239180   5.677   3.738   5.343
45781SOL     OW39181   6.782   9.189   8.805
45781SOL    HW139182   6.722   9.248   8.760
45781SOL    HW239183   6.736   9.163   8.884
45782SOL     OW39184   7.072   0.171  13.829
45782SOL    HW139185   7.167   0.178  13.839
45782SOL    HW239186   7.037   0.231  13.895
45783SOL     OW39187  11.407  14.084   5.987
45783SOL    HW139188  11.495  14.118   5.972
45783SOL    HW239189  11.351  14.138   5.932
45784SOL     OW39190  11.179   9.445   9.676
45784SOL    HW139191  11.255   9.501   9.656
45784SOL    HW239192  11.130   9.494   9.742
45785SOL     OW39193  12.408  14.235   6.540
45785SOL    HW139194  12.419  14.170   6.470
45785SOL    HW239195  12.407  14.183   6.621
45786SOL     OW39196   2.867   3.206   0.718
45786SOL    HW139197   2.870   3.256   0.800
45786SOL    HW239198   2.813   3.259   0.660
45787SOL     OW39199   7.440   6.265  14.854
45787SOL    HW139200   7.460   6.344   0.031
45787SOL    HW239201   7.346   6.270  14.839
45788SOL     OW39202  10.339   6.079   4.684
45788SOL    HW139203  10.416   6.129   4.714
45788SOL    HW239204  10.295   6.139   4.623
45789SOL     OW39205   5.440   4.964   6.397
45789SOL    HW139206   5.518   5.003   6.358
45789SOL    HW239207   5.384   5.038   6.420
45790SOL     OW39208  10.393  10.110   9.947
45790SOL    HW139209  10.375  10.068  10.031
45790SOL    HW239210  10.475  10.157   9.961
45791SOL     OW39211   0.729   6.064   2.681
45791SOL    HW139212   0.639   6.084   2.655
45791SOL    HW239213   0.738   6.103   2.768
45792SOL     OW39214   0.385  14.600   6.191
45792SOL    HW139215   0.465  14.636   6.154
45792SOL    HW239216   0.316  14.659   6.162
45793SOL     OW39217   4.280   8.600   5.330
45793SOL    HW139218   4.208   8.553   5.373
45793SOL    HW239219   4.294   8.677   5.385
45794SOL     OW39220  12.108   8.468   3.872
45794SOL    HW139221  12.181   8.412   3.897
45794SOL    HW239222  12.043   8.455   3.941
45795SOL     OW39223  12.426   3.809   1.743
45795SOL    HW139224  12.490   3.860   1.792
45795SOL    HW239225  12.364   3.873   1.710
45796SOL     OW39226  10.578   0.131  10.702
45796SOL    HW139227  10.630   0.055  10.675
45796SOL    HW239228  10.558   0.177  10.620
45797SOL     OW39229   9.578   1.070   5.029
45797SOL    HW139230   9.635   1.000   4.998
45797SOL    HW239231   9.622   1.104   5.107
45798SOL     OW39232   5.301   8.663   9.361
45798SOL    HW139233   5.343   8.643   9.277
45798SOL    HW239234   5.362   8.629   9.427
45799SOL     OW39235   3.829   6.558   5.269
45799SOL    HW139236   3.877   6.570   5.186
45799SOL    HW239237   3.895   6.525   5.330
45800SOL     OW39238   8.278   5.423   0.918
45800SOL    HW139239   8.298   5.424   0.824
45800SOL    HW239240   8.279   5.516   0.943
45801SOL     OW39241  14.724   0.388   8.958
45801SOL    HW139242  14.760   0.471   8.988
45801SOL    HW239243  14.668   0.359   9.030
45802SOL     OW39244  12.521  14.650  13.142
45802SOL    HW139245  12.605  14.652  13.189
45802SOL    HW239246  12.460  14.608  13.203
45803SOL     OW39247  14.461   7.048  13.046
45803SOL    HW139248  14.479   6.961  13.081
45803SOL    HW239249  14.453   7.035  12.952
45804SOL     OW39250   5.225  11.166  11.896
45804SOL    HW139251   5.161  11.100  11.866
45804SOL    HW239252   5.254  11.134  11.981
45805SOL     OW39253   9.609   6.298   3.494
45805SOL    HW139254   9.598   6.276   3.586
45805SOL    HW239255   9.540   6.363   3.477
45806SOL     OW39256   3.459   1.416   7.020
45806SOL    HW139257   3.413   1.333   7.033
45806SOL    HW239258   3.552   1.393   7.024
45807SOL     OW39259   7.807   9.489   1.417
45807SOL    HW139260   7.881   9.490   1.478
45807SOL    HW239261   7.826   9.418   1.357
45808SOL     OW39262   1.330  12.984   4.070
45808SOL    HW139263   1.358  12.933   4.147
45808SOL    HW239264   1.391  12.958   4.001
45809SOL     OW39265   7.390  13.663   2.791
45809SOL    HW139266   7.469  13.661   2.846
45809SOL    HW239267   7.412  13.609   2.716
45810SOL     OW39268  11.819  13.367  10.582
45810SOL    HW139269  11.753  13.311  10.540
45810SOL    HW239270  11.901  13.320  10.567
45811SOL     OW39271  11.298  11.926   7.674
45811SOL    HW139272  11.253  11.858   7.623
45811SOL    HW239273  11.391  11.915   7.652
45812SOL     OW39274   4.514  10.666   3.243
45812SOL    HW139275   4.586  10.603   3.235
45812SOL    HW239276   4.436  10.618   3.217
45813SOL     OW39277   9.520   7.879   7.056
45813SOL    HW139278   9.486   7.837   6.977
45813SOL    HW239279   9.576   7.950   7.022
45814SOL     OW39280   9.518   1.034   6.316
45814SOL    HW139281   9.495   1.125   6.295
45814SOL    HW239282   9.613   1.035   6.322
45815SOL     OW39283   4.459   0.360   6.922
45815SOL    HW139284   4.411   0.354   6.840
45815SOL    HW239285   4.550   0.340   6.899
45816SOL     OW39286   8.491   5.079  12.821
45816SOL    HW139287   8.452   5.062  12.735
45816SOL    HW239288   8.565   5.136  12.803
45817SOL     OW39289   8.428  14.702   1.647
45817SOL    HW139290   8.421  14.625   1.703
45817SOL    HW239291   8.460  14.772   1.705
45818SOL     OW39292   8.395   5.473  12.770
45818SOL    HW139293   8.353   5.392  12.801
45818SOL    HW239294   8.344   5.543  12.809
45819SOL     OW39295  13.940   9.725   0.028
45819SOL    HW139296  13.876   9.791   0.001
45819SOL    HW239297  13.996   9.771   0.091
45820SOL     OW39298   5.897   9.969  11.225
45820SOL    HW139299   5.885  10.064  11.224
45820SOL    HW239300   5.951   9.950  11.148
45821SOL     OW39301   1.797   1.203   9.059
45821SOL    HW139302   1.824   1.295   9.061
45821SOL    HW239303   1.707   1.205   9.027
45822SOL     OW39304  14.846  12.152   0.583
45822SOL    HW139305   0.067  12.148   0.581
45822SOL    HW239306  14.825  12.237   0.543
45823SOL     OW39307   6.555  14.686   9.659
45823SOL    HW139308   6.481  14.633   9.690
45823SOL    HW239309   6.554  14.764   9.714
45824SOL     OW39310   6.402  14.210  13.489
45824SOL    HW139311   6.340  14.283  13.491
45824SOL    HW239312   6.484  14.248  13.459
45825SOL     OW39313   8.920   8.354   7.873
45825SOL    HW139314   8.838   8.319   7.838
45825SOL    HW239315   8.942   8.426   7.814
45826SOL     OW39316  10.198  10.255   2.032
45826SOL    HW139317  10.269  10.203   2.069
45826SOL    HW239318  10.129  10.191   2.012
45827SOL     OW39319   2.096   7.825   1.943
45827SOL    HW139320   2.141   7.784   2.017
45827SOL    HW239321   2.135   7.785   1.866
45828SOL     OW39322   0.956   7.388  10.054
45828SOL    HW139323   0.992   7.474  10.032
45828SOL    HW239324   1.033   7.335  10.078
45829SOL     OW39325   4.068   0.255  13.673
45829SOL    HW139326   4.112   0.340  13.684
45829SOL    HW239327   4.079   0.236  13.579
45830SOL     OW39328   4.479   9.412  12.379
45830SOL    HW139329   4.475   9.327  12.423
45830SOL    HW239330   4.557   9.407  12.323
45831SOL     OW39331   5.058   5.229   6.604
45831SOL    HW139332   5.060   5.210   6.698
45831SOL    HW239333   4.966   5.243   6.585
45832SOL     OW39334   4.250   7.511   7.436
45832SOL    HW139335   4.155   7.515   7.446
45832SOL    HW239336   4.276   7.435   7.487
45833SOL     OW39337  14.708   0.349   0.462
45833SOL    HW139338  14.785   0.402   0.441
45833SOL    HW239339  14.727   0.313   0.549
45834SOL     OW39340  12.803   8.714  14.703
45834SOL    HW139341  12.774   8.763  14.626
45834SOL    HW239342  12.821   8.626  14.669
45835SOL     OW39343   5.876  11.516   1.156
45835SOL    HW139344   5.938  11.586   1.133
45835SOL    HW239345   5.811  11.559   1.212
45836SOL     OW39346   5.439   3.079  12.526
45836SOL    HW139347   5.402   3.124  12.602
45836SOL    HW239348   5.533   3.072  12.545
45837SOL     OW39349  14.493  10.397   1.225
45837SOL    HW139350  14.411  10.348   1.222
45837SOL    HW239351  14.514  10.414   1.133
45838SOL     OW39352   3.857  11.818   7.482
45838SOL    HW139353   3.813  11.733   7.496
45838SOL    HW239354   3.944  11.794   7.449
45839SOL     OW39355  14.125  12.636   0.848
45839SOL    HW139356  14.187  12.571   0.813
45839SOL    HW239357  14.087  12.676   0.770
45840SOL     OW39358   1.106   3.916  10.237
45840SOL    HW139359   1.048   3.930  10.312
45840SOL    HW239360   1.139   3.827  10.248
45841SOL     OW39361  14.009   1.434  11.754
45841SOL    HW139362  14.015   1.489  11.832
45841SOL    HW239363  14.098   1.434  11.718
45842SOL     OW39364  11.683   9.343  11.441
45842SOL    HW139365  11.615   9.300  11.493
45842SOL    HW239366  11.752   9.363  11.504
45843SOL     OW39367  10.525   2.749  11.098
45843SOL    HW139368  10.529   2.658  11.071
45843SOL    HW239369  10.509   2.798  11.017
45844SOL     OW39370  10.100   4.388  13.402
45844SOL    HW139371  10.121   4.471  13.444
45844SOL    HW239372  10.138   4.321  13.459
45845SOL     OW39373   3.136   2.581  13.354
45845SOL    HW139374   3.126   2.626  13.437
45845SOL    HW239375   3.224   2.543  13.357
45846SOL     OW39376   9.137  14.851   4.894
45846SOL    HW139377   9.052  14.813   4.918
45846SOL    HW239378   9.115   0.061   4.855
45847SOL     OW39379  13.395   4.625   6.391
45847SOL    HW139380  13.446   4.606   6.469
45847SOL    HW239381  13.461   4.640   6.322
45848SOL     OW39382   7.985  13.860   8.266
45848SOL    HW139383   7.911  13.918   8.282
45848SOL    HW239384   7.949  13.791   8.209
45849SOL     OW39385   1.064   9.243  12.581
45849SOL    HW139386   1.098   9.290  12.657
45849SOL    HW239387   0.974   9.219  12.605
45850SOL     OW39388   5.216  12.082   4.333
45850SOL    HW139389   5.203  12.139   4.409
45850SOL    HW239390   5.132  12.037   4.322
45851SOL     OW39391   3.623   3.068  10.016
45851SOL    HW139392   3.622   2.992   9.957
45851SOL    HW239393   3.534   3.072  10.051
45852SOL     OW39394   6.576  14.374  13.043
45852SOL    HW139395   6.636  14.426  12.990
45852SOL    HW239396   6.631  14.308  13.085
45853SOL     OW39397  13.875  12.470  14.582
45853SOL    HW139398  13.851  12.438  14.495
45853SOL    HW239399  13.852  12.563  14.580
45854SOL     OW39400   0.490   5.712  14.533
45854SOL    HW139401   0.405   5.753  14.521
45854SOL    HW239402   0.470   5.621  14.552
45855SOL     OW39403  11.840   8.225   4.567
45855SOL    HW139404  11.930   8.258   4.566
45855SOL    HW239405  11.840   8.153   4.504
45856SOL     OW39406   7.639   7.450   1.826
45856SOL    HW139407   7.562   7.494   1.864
45856SOL    HW239408   7.618   7.357   1.830
45857SOL     OW39409  10.980  11.856  10.494
45857SOL    HW139410  10.976  11.952  10.499
45857SOL    HW239411  11.047  11.838  10.429
45858SOL     OW39412  11.547   2.794   9.591
45858SOL    HW139413  11.513   2.822   9.506
45858SOL    HW239414  11.566   2.701   9.580
45859SOL     OW39415   4.052  11.920  13.287
45859SOL    HW139416   4.147  11.934  13.288
45859SOL    HW239417   4.016  12.003  13.318
45860SOL     OW39418  10.929   1.484  12.124
45860SOL    HW139419  10.875   1.435  12.062
45860SOL    HW239420  10.917   1.439  12.207
45861SOL     OW39421  12.014   8.107   3.944
45861SOL    HW139422  12.061   8.107   3.861
45861SOL    HW239423  11.945   8.041   3.933
45862SOL     OW39424   1.106  11.539   0.903
45862SOL    HW139425   1.064  11.533   0.988
45862SOL    HW239426   1.154  11.457   0.893
45863SOL     OW39427   5.930   9.960  12.126
45863SOL    HW139428   5.931  10.014  12.047
45863SOL    HW239429   5.846   9.979  12.167
45864SOL     OW39430  11.197   9.088   4.292
45864SOL    HW139431  11.276   9.056   4.249
45864SOL    HW239432  11.226   9.115   4.379
45865SOL     OW39433   4.323   0.561   0.567
45865SOL    HW139434   4.320   0.468   0.544
45865SOL    HW239435   4.236   0.580   0.602
45866SOL     OW39436   2.413   5.984   2.311
45866SOL    HW139437   2.429   6.073   2.344
45866SOL    HW239438   2.318   5.974   2.312
45867SOL     OW39439   7.187   5.896  10.362
45867SOL    HW139440   7.207   5.837  10.290
45867SOL    HW239441   7.252   5.874  10.430
45868SOL     OW39442   9.117   7.580  10.849
45868SOL    HW139443   9.103   7.658  10.795
45868SOL    HW239444   9.152   7.615  10.931
45869SOL     OW39445   3.358   0.912   6.436
45869SOL    HW139446   3.263   0.914   6.441
45869SOL    HW239447   3.377   0.890   6.345
45870SOL     OW39448   9.820   6.804   3.694
45870SOL    HW139449   9.750   6.853   3.650
45870SOL    HW239450   9.775   6.733   3.738
45871SOL     OW39451  13.650  11.666   0.118
45871SOL    HW139452  13.660  11.686   0.025
45871SOL    HW239453  13.676  11.746   0.163
45872SOL     OW39454  14.790  10.962  14.681
45872SOL    HW139455  14.743  10.920  14.609
45872SOL    HW239456  14.827  10.889  14.730
45873SOL     OW39457   2.993   8.340   6.643
45873SOL    HW139458   2.962   8.389   6.719
45873SOL    HW239459   3.073   8.385   6.617
45874SOL     OW39460  11.554  12.819   7.777
45874SOL    HW139461  11.538  12.837   7.685
45874SOL    HW239462  11.490  12.750   7.799
45875SOL     OW39463   2.475   8.200  14.196
45875SOL    HW139464   2.512   8.126  14.147
45875SOL    HW239465   2.395   8.223  14.148
45876SOL     OW39466  10.285   3.534   0.587
45876SOL    HW139467  10.194   3.531   0.617
45876SOL    HW239468  10.279   3.566   0.497
45877SOL     OW39469   7.516  14.351   2.900
45877SOL    HW139470   7.508  14.293   2.976
45877SOL    HW239471   7.500  14.439   2.935
45878SOL     OW39472   0.888   5.728   3.611
45878SOL    HW139473   0.818   5.666   3.592
45878SOL    HW239474   0.880   5.794   3.542
45879SOL     OW39475   5.567  10.219   0.813
45879SOL    HW139476   5.633  10.151   0.801
45879SOL    HW239477   5.529  10.233   0.727
45880SOL     OW39478   5.540  13.828   6.826
45880SOL    HW139479   5.473  13.884   6.866
45880SOL    HW239480   5.508  13.739   6.840
45881SOL     OW39481  14.182   0.697   6.489
45881SOL    HW139482  14.227   0.702   6.404
45881SOL    HW239483  14.244   0.736   6.551
45882SOL     OW39484   3.842   8.769   3.213
45882SOL    HW139485   3.849   8.675   3.232
45882SOL    HW239486   3.769   8.799   3.266
45883SOL     OW39487   0.556  12.118   4.089
45883SOL    HW139488   0.649  12.122   4.067
45883SOL    HW239489   0.537  12.024   4.095
45884SOL     OW39490   5.321   9.038  12.184
45884SOL    HW139491   5.401   9.081  12.215
45884SOL    HW239492   5.333   8.946  12.205
45885SOL     OW39493   2.161   5.738   4.072
45885SOL    HW139494   2.182   5.688   4.151
45885SOL    HW239495   2.170   5.829   4.098
45886SOL     OW39496   7.712   5.256   0.539
45886SOL    HW139497   7.709   5.258   0.443
45886SOL    HW239498   7.702   5.163   0.561
45887SOL     OW39499   7.108  14.741  14.836
45887SOL    HW139500   7.083  14.762  14.746
45887SOL    HW239501   7.186  14.794  14.852
45888SOL     OW39502  14.060  11.458  13.596
45888SOL    HW139503  14.080  11.458  13.502
45888SOL    HW239504  14.028  11.369  13.613
45889SOL     OW39505  14.722  14.022   5.211
45889SOL    HW139506  14.778  14.099   5.207
45889SOL    HW239507  14.667  14.028   5.133
45890SOL     OW39508   4.544   2.144   4.003
45890SOL    HW139509   4.546   2.067   4.060
45890SOL    HW239510   4.451   2.163   3.991
45891SOL     OW39511  11.839   6.815   4.197
45891SOL    HW139512  11.926   6.854   4.189
45891SOL    HW239513  11.830   6.797   4.291
45892SOL     OW39514  14.678   1.058   2.052
45892SOL    HW139515  14.766   1.028   2.030
45892SOL    HW239516  14.620   1.011   1.992
45893SOL     OW39517   3.010   0.164   7.642
45893SOL    HW139518   2.919   0.179   7.615
45893SOL    HW239519   3.058   0.239   7.608
45894SOL     OW39520   1.483  12.898   3.834
45894SOL    HW139521   1.532  12.876   3.913
45894SOL    HW239522   1.480  12.816   3.784
45895SOL     OW39523   1.858   0.825   1.450
45895SOL    HW139524   1.825   0.866   1.530
45895SOL    HW239525   1.953   0.830   1.458
45896SOL     OW39526   9.471  11.571   6.881
45896SOL    HW139527   9.380  11.544   6.870
45896SOL    HW239528   9.499  11.529   6.963
45897SOL     OW39529   7.710  11.254   3.489
45897SOL    HW139530   7.704  11.222   3.399
45897SOL    HW239531   7.647  11.202   3.538
45898SOL     OW39532   9.452   4.889  10.344
45898SOL    HW139533   9.505   4.957  10.304
45898SOL    HW239534   9.411   4.844  10.270
45899SOL     OW39535   3.914   4.723   2.085
45899SOL    HW139536   3.887   4.632   2.096
45899SOL    HW239537   4.006   4.718   2.059
45900SOL     OW39538  14.466   8.168   6.176
45900SOL    HW139539  14.531   8.150   6.244
45900SOL    HW239540  14.505   8.239   6.124
45901SOL     OW39541  11.134   6.380   3.973
45901SOL    HW139542  11.169   6.295   3.999
45901SOL    HW239543  11.042   6.364   3.954
45902SOL     OW39544  10.970   5.008  13.020
45902SOL    HW139545  10.919   4.938  12.979
45902SOL    HW239546  11.000   5.061  12.947
45903SOL     OW39547   7.053  11.583   7.375
45903SOL    HW139548   7.120  11.515   7.380
45903SOL    HW239549   7.071  11.639   7.451
45904SOL     OW39550  13.286   2.954  11.471
45904SOL    HW139551  13.314   2.959  11.563
45904SOL    HW239552  13.307   2.864  11.444
45905SOL     OW39553   0.570   7.137   6.318
45905SOL    HW139554   0.542   7.057   6.275
45905SOL    HW239555   0.628   7.180   6.254
45906SOL     OW39556   8.861   3.962   1.357
45906SOL    HW139557   8.907   4.045   1.348
45906SOL    HW239558   8.930   3.897   1.369
45907SOL     OW39559  12.104   7.114   0.633
45907SOL    HW139560  12.063   7.028   0.625
45907SOL    HW239561  12.180   7.110   0.575
45908SOL     OW39562   7.789   9.497   2.008
45908SOL    HW139563   7.723   9.429   2.022
45908SOL    HW239564   7.749   9.576   2.045
45909SOL     OW39565   6.593   2.371   0.287
45909SOL    HW139566   6.517   2.420   0.320
45909SOL    HW239567   6.591   2.288   0.335
45910SOL     OW39568   8.618   3.567   4.789
45910SOL    HW139569   8.596   3.542   4.878
45910SOL    HW239570   8.590   3.492   4.736
45911SOL     OW39571  14.468   4.807  12.065
45911SOL    HW139572  14.551   4.777  12.029
45911SOL    HW239573  14.465   4.901  12.047
45912SOL     OW39574   1.744   7.517   7.952
45912SOL    HW139575   1.803   7.442   7.941
45912SOL    HW239576   1.769   7.555   8.036
45913SOL     OW39577  12.179  12.050  13.943
45913SOL    HW139578  12.087  12.071  13.928
45913SOL    HW239579  12.177  11.963  13.983
45914SOL     OW39580  13.190  14.196   3.439
45914SOL    HW139581  13.252  14.204   3.366
45914SOL    HW239582  13.147  14.282   3.443
45915SOL     OW39583   9.939  12.684   7.681
45915SOL    HW139584   9.932  12.717   7.591
45915SOL    HW239585   9.914  12.592   7.676
45916SOL     OW39586   0.990  10.463   7.239
45916SOL    HW139587   0.924  10.532   7.228
45916SOL    HW239588   1.073  10.504   7.217
45917SOL     OW39589   1.795   1.066   5.226
45917SOL    HW139590   1.717   1.106   5.188
45917SOL    HW239591   1.861   1.136   5.225
45918SOL     OW39592  13.962  10.218  14.153
45918SOL    HW139593  13.907  10.270  14.094
45918SOL    HW239594  14.041  10.200  14.103
45919SOL     OW39595   4.833   9.226   1.037
45919SOL    HW139596   4.812   9.299   0.979
45919SOL    HW239597   4.928   9.229   1.047
45920SOL     OW39598   4.589  13.015   4.664
45920SOL    HW139599   4.598  13.016   4.759
45920SOL    HW239600   4.523  13.082   4.646
45921SOL     OW39601  10.723   2.856   8.951
45921SOL    HW139602  10.752   2.892   8.867
45921SOL    HW239603  10.630   2.880   8.957
45922SOL     OW39604   4.830   8.746  11.137
45922SOL    HW139605   4.812   8.724  11.046
45922SOL    HW239606   4.745   8.768  11.174
45923SOL     OW39607   3.453  14.432   5.753
45923SOL    HW139608   3.477  14.399   5.666
45923SOL    HW239609   3.402  14.361   5.792
45924SOL     OW39610   8.019   9.717   3.896
45924SOL    HW139611   8.112   9.712   3.876
45924SOL    HW239612   7.995   9.808   3.878
45925SOL     OW39613   3.923   2.240   2.761
45925SOL    HW139614   3.908   2.325   2.719
45925SOL    HW239615   3.961   2.262   2.846
45926SOL     OW39616  11.583   0.951   0.485
45926SOL    HW139617  11.641   0.879   0.462
45926SOL    HW239618  11.536   0.921   0.563
45927SOL     OW39619   2.207   5.654   8.487
45927SOL    HW139620   2.253   5.583   8.531
45927SOL    HW239621   2.186   5.717   8.557
45928SOL     OW39622  13.895  13.773  10.540
45928SOL    HW139623  13.910  13.679  10.547
45928SOL    HW239624  13.939  13.799  10.460
45929SOL     OW39625   3.955   8.747  11.634
45929SOL    HW139626   3.898   8.671  11.639
45929SOL    HW239627   3.980   8.765  11.724
45930SOL     OW39628  13.538  11.775  12.977
45930SOL    HW139629  13.473  11.706  12.967
45930SOL    HW239630  13.497  11.853  12.940
45931SOL     OW39631  11.489   9.907  14.836
45931SOL    HW139632  11.577   9.874  14.819
45931SOL    HW239633  11.490   9.928   0.056
45932SOL     OW39634   5.347  11.231   1.625
45932SOL    HW139635   5.418  11.231   1.688
45932SOL    HW239636   5.302  11.315   1.639
45933SOL     OW39637   4.188   1.735   5.474
45933SOL    HW139638   4.166   1.803   5.410
45933SOL    HW239639   4.283   1.734   5.476
45934SOL     OW39640  10.965  11.445  12.004
45934SOL    HW139641  10.889  11.426  11.950
45934SOL    HW239642  10.955  11.387  12.080
45935SOL     OW39643   1.389   9.530   1.250
45935SOL    HW139644   1.424   9.618   1.258
45935SOL    HW239645   1.448   9.485   1.189
45936SOL     OW39646   8.097  13.412   9.298
45936SOL    HW139647   8.067  13.502   9.293
45936SOL    HW239648   8.045  13.372   9.367
45937SOL     OW39649  13.686  10.450  12.784
45937SOL    HW139650  13.718  10.431  12.873
45937SOL    HW239651  13.659  10.365  12.750
45938SOL     OW39652   0.039   7.318   5.029
45938SOL    HW139653   0.019   7.299   4.937
45938SOL    HW239654   0.118   7.372   5.026
45939SOL     OW39655   2.483  10.382   8.288
45939SOL    HW139656   2.393  10.411   8.270
45939SOL    HW239657   2.528  10.393   8.204
45940SOL     OW39658   1.248  14.673   4.435
45940SOL    HW139659   1.161  14.708   4.455
45940SOL    HW239660   1.270  14.711   4.350
45941SOL     OW39661  14.630   2.841   0.927
45941SOL    HW139662  14.537   2.860   0.917
45941SOL    HW239663  14.647   2.854   1.021
45942SOL     OW39664   8.809   5.013   5.528
45942SOL    HW139665   8.895   4.972   5.517
45942SOL    HW239666   8.758   4.981   5.453
45943SOL     OW39667  11.478  12.537   6.885
45943SOL    HW139668  11.431  12.513   6.805
45943SOL    HW239669  11.501  12.629   6.872
45944SOL     OW39670  12.856   4.875  12.651
45944SOL    HW139671  12.807   4.895  12.571
45944SOL    HW239672  12.923   4.813  12.623
45945SOL     OW39673   9.123   1.396   9.223
45945SOL    HW139674   9.055   1.384   9.289
45945SOL    HW239675   9.086   1.459   9.162
45946SOL     OW39676  12.194  12.274   0.945
45946SOL    HW139677  12.140  12.272   0.866
45946SOL    HW239678  12.284  12.278   0.914
45947SOL     OW39679   1.511   6.565  10.821
45947SOL    HW139680   1.474   6.528  10.902
45947SOL    HW239681   1.446   6.627  10.791
45948SOL     OW39682   0.866   1.172   5.549
45948SOL    HW139683   0.791   1.124   5.585
45948SOL    HW239684   0.831   1.216   5.471
45949SOL     OW39685   6.677   3.159  11.851
45949SOL    HW139686   6.683   3.253  11.872
45949SOL    HW239687   6.591   3.133  11.882
45950SOL     OW39688  13.385   0.682  10.215
45950SOL    HW139689  13.335   0.702  10.137
45950SOL    HW239690  13.375   0.588  10.227
45951SOL     OW39691   5.590   2.630  12.153
45951SOL    HW139692   5.627   2.713  12.122
45951SOL    HW239693   5.666   2.577  12.177
45952SOL     OW39694   0.140   1.061  14.408
45952SOL    HW139695   0.217   1.005  14.416
45952SOL    HW239696   0.091   1.046  14.489
45953SOL     OW39697   5.253  11.071   2.422
45953SOL    HW139698   5.336  11.057   2.467
45953SOL    HW239699   5.262  11.157   2.381
45954SOL     OW39700   9.536  10.641   7.463
45954SOL    HW139701   9.589  10.649   7.542
45954SOL    HW239702   9.448  10.669   7.490
45955SOL     OW39703   9.229   5.027   0.637
45955SOL    HW139704   9.151   5.006   0.586
45955SOL    HW239705   9.212   4.991   0.724
45956SOL     OW39706   6.979   0.142   2.227
45956SOL    HW139707   7.071   0.122   2.211
45956SOL    HW239708   6.932   0.097   2.157
45957SOL     OW39709   6.487   6.540   4.282
45957SOL    HW139710   6.512   6.632   4.286
45957SOL    HW239711   6.531   6.500   4.357
45958SOL     OW39712   5.681   0.577   5.819
45958SOL    HW139713   5.708   0.562   5.729
45958SOL    HW239714   5.645   0.666   5.819
45959SOL     OW39715   4.105   0.805   8.735
45959SOL    HW139716   4.012   0.805   8.710
45959SOL    HW239717   4.124   0.713   8.752
45960SOL     OW39718   3.848  12.645   2.983
45960SOL    HW139719   3.915  12.588   3.022
45960SOL    HW239720   3.807  12.590   2.916
45961SOL     OW39721  11.622   2.835   3.744
45961SOL    HW139722  11.650   2.838   3.836
45961SOL    HW239723  11.604   2.742   3.728
45962SOL     OW39724  13.781   6.264   4.991
45962SOL    HW139725  13.866   6.240   5.028
45962SOL    HW239726  13.802   6.297   4.903
45963SOL     OW39727   0.892   1.243   1.205
45963SOL    HW139728   0.812   1.260   1.255
45963SOL    HW239729   0.947   1.194   1.265
45964SOL     OW39730   9.121   1.993   3.714
45964SOL    HW139731   9.046   2.052   3.706
45964SOL    HW239732   9.111   1.952   3.799
45965SOL     OW39733   3.977   6.443   2.661
45965SOL    HW139734   4.020   6.528   2.661
45965SOL    HW239735   3.935   6.438   2.575
45966SOL     OW39736  14.823   9.449   2.968
45966SOL    HW139737   0.010   9.388   3.009
45966SOL    HW239738  14.770   9.482   3.041
45967SOL     OW39739   4.648  10.065  10.893
45967SOL    HW139740   4.667   9.987  10.945
45967SOL    HW239741   4.721  10.125  10.912
45968SOL     OW39742   2.188  14.292   7.634
45968SOL    HW139743   2.223  14.306   7.546
45968SOL    HW239744   2.095  14.273   7.620
45969SOL     OW39745   4.245  13.644  13.537
45969SOL    HW139746   4.305  13.627  13.609
45969SOL    HW239747   4.175  13.698  13.575
45970SOL     OW39748  11.241  11.103  13.368
45970SOL    HW139749  11.294  11.033  13.329
45970SOL    HW239750  11.230  11.077  13.459
45971SOL     OW39751  11.825  12.154   8.654
45971SOL    HW139752  11.778  12.082   8.611
45971SOL    HW239753  11.917  12.139   8.632
45972SOL     OW39754   5.049   1.894  14.077
45972SOL    HW139755   5.036   1.987  14.060
45972SOL    HW239756   5.079   1.890  14.168
45973SOL     OW39757  12.914   4.779   7.898
45973SOL    HW139758  12.956   4.784   7.984
45973SOL    HW239759  12.825   4.813   7.914
45974SOL     OW39760   7.992   7.369   3.829
45974SOL    HW139761   8.056   7.440   3.829
45974SOL    HW239762   7.927   7.395   3.764
45975SOL     OW39763   9.352  14.657  11.918
45975SOL    HW139764   9.344  14.735  11.973
45975SOL    HW239765   9.293  14.672  11.844
45976SOL     OW39766   8.428   6.447   2.074
45976SOL    HW139767   8.507   6.492   2.101
45976SOL    HW239768   8.433   6.362   2.117
45977SOL     OW39769  12.056  10.412  14.345
45977SOL    HW139770  12.025  10.342  14.287
45977SOL    HW239771  12.134  10.377  14.386
45978SOL     OW39772  13.718   4.011   6.305
45978SOL    HW139773  13.769   3.954   6.364
45978SOL    HW239774  13.628   3.980   6.315
45979SOL     OW39775   6.123   4.800   9.131
45979SOL    HW139776   6.055   4.783   9.066
45979SOL    HW239777   6.165   4.715   9.145
45980SOL     OW39778   7.104   9.734   6.493
45980SOL    HW139779   7.131   9.726   6.402
45980SOL    HW239780   7.142   9.657   6.536
45981SOL     OW39781  10.748  10.047   3.507
45981SOL    HW139782  10.745  10.053   3.602
45981SOL    HW239783  10.656  10.036   3.480
45982SOL     OW39784  10.062   7.077  11.378
45982SOL    HW139785  10.000   7.063  11.449
45982SOL    HW239786  10.010   7.115  11.307
45983SOL     OW39787   9.879   0.163   1.426
45983SOL    HW139788   9.868   0.076   1.388
45983SOL    HW239789   9.837   0.157   1.512
45984SOL     OW39790   3.355  13.369   0.708
45984SOL    HW139791   3.406  13.373   0.627
45984SOL    HW239792   3.403  13.427   0.768
45985SOL     OW39793  12.628   1.551  12.404
45985SOL    HW139794  12.623   1.595  12.489
45985SOL    HW239795  12.615   1.620  12.339
45986SOL     OW39796  11.408  11.094   0.880
45986SOL    HW139797  11.332  11.089   0.939
45986SOL    HW239798  11.437  11.185   0.886
45987SOL     OW39799   4.614   5.403   5.751
45987SOL    HW139800   4.580   5.314   5.757
45987SOL    HW239801   4.708   5.392   5.731
45988SOL     OW39802   6.444   5.977   6.497
45988SOL    HW139803   6.449   6.009   6.406
45988SOL    HW239804   6.522   5.923   6.507
45989SOL     OW39805   5.088   0.135   6.109
45989SOL    HW139806   4.999   0.144   6.076
45989SOL    HW239807   5.087   0.055   6.162
45990SOL     OW39808  10.061   2.726   9.819
45990SOL    HW139809  10.011   2.700   9.896
45990SOL    HW239810  10.095   2.644   9.783
45991SOL     OW39811   1.085   7.028  11.358
45991SOL    HW139812   1.022   6.966  11.323
45991SOL    HW239813   1.093   7.095  11.290
45992SOL     OW39814   6.287   9.561   5.984
45992SOL    HW139815   6.266   9.549   6.076
45992SOL    HW239816   6.204   9.550   5.938
45993SOL     OW39817   3.192  13.512   6.288
45993SOL    HW139818   3.215  13.458   6.212
45993SOL    HW239819   3.105  13.480   6.315
45994SOL     OW39820   4.324  10.719   9.565
45994SOL    HW139821   4.347  10.797   9.515
45994SOL    HW239822   4.237  10.737   9.600
45995SOL     OW39823   5.877   4.936   4.034
45995SOL    HW139824   5.968   4.964   4.033
45995SOL    HW239825   5.865   4.889   3.951
45996SOL     OW39826   3.629   7.508  12.697
45996SOL    HW139827   3.713   7.474  12.727
45996SOL    HW239828   3.579   7.431  12.670
45997SOL     OW39829   2.267  12.087  12.972
45997SOL    HW139830   2.263  12.163  12.913
45997SOL    HW239831   2.355  12.091  13.010
45998SOL     OW39832   1.181  13.120  12.941
45998SOL    HW139833   1.254  13.102  12.882
45998SOL    HW239834   1.127  13.184  12.894
45999SOL     OW39835  10.718  14.313   3.772
45999SOL    HW139836  10.720  14.395   3.821
45999SOL    HW239837  10.784  14.258   3.816
46000SOL     OW39838   8.868   3.346   5.549
46000SOL    HW139839   8.835   3.395   5.624
46000SOL    HW239840   8.940   3.294   5.585
46001SOL     OW39841  12.706  14.240   5.743
46001SOL    HW139842  12.675  14.314   5.691
46001SOL    HW239843  12.639  14.172   5.729
46002SOL     OW39844  12.887   4.814   5.421
46002SOL    HW139845  12.830   4.871   5.369
46002SOL    HW239846  12.855   4.725   5.403
46003SOL     OW39847   2.850   3.241   2.190
46003SOL    HW139848   2.856   3.321   2.139
46003SOL    HW239849   2.772   3.197   2.156
46004SOL     OW39850  14.337  14.698   8.258
46004SOL    HW139851  14.316  14.770   8.317
46004SOL    HW239852  14.252  14.662   8.232
46005SOL     OW39853   5.794   4.496   7.666
46005SOL    HW139854   5.771   4.589   7.670
46005SOL    HW239855   5.885   4.492   7.694
46006SOL     OW39856   6.056   0.433   9.114
46006SOL    HW139857   6.058   0.352   9.165
46006SOL    HW239858   6.104   0.413   9.034
46007SOL     OW39859   0.897  11.264   7.452
46007SOL    HW139860   0.983  11.231   7.478
46007SOL    HW239861   0.856  11.293   7.533
46008SOL     OW39862   7.770  13.005  14.581
46008SOL    HW139863   7.840  13.069  14.579
46008SOL    HW239864   7.725  13.022  14.665
46009SOL     OW39865   4.149   3.250   4.168
46009SOL    HW139866   4.065   3.252   4.122
46009SOL    HW239867   4.188   3.336   4.151
46010SOL     OW39868   7.922   2.457  14.214
46010SOL    HW139869   7.992   2.392  14.208
46010SOL    HW239870   7.909   2.471  14.308
46011SOL     OW39871   7.975   4.553   3.447
46011SOL    HW139872   7.975   4.564   3.542
46011SOL    HW239873   8.055   4.598   3.418
46012SOL     OW39874  13.787  12.144   2.108
46012SOL    HW139875  13.693  12.136   2.096
46012SOL    HW239876  13.800  12.143   2.202
46013SOL     OW39877   1.705   4.302   5.952
46013SOL    HW139878   1.734   4.282   5.863
46013SOL    HW239879   1.619   4.261   5.960
46014SOL     OW39880   1.700  11.980  12.057
46014SOL    HW139881   1.639  11.907  12.045
46014SOL    HW239882   1.786  11.938  12.065
46015SOL     OW39883  10.632  13.919   7.627
46015SOL    HW139884  10.650  13.878   7.712
46015SOL    HW239885  10.544  13.954   7.636
46016SOL     OW39886  10.944   3.280   9.106
46016SOL    HW139887  10.927   3.374   9.107
46016SOL    HW239888  10.895   3.246   9.181
46017SOL     OW39889   5.406  10.484   5.771
46017SOL    HW139890   5.315  10.457   5.780
46017SOL    HW239891   5.417  10.554   5.835
46018SOL     OW39892   7.796   5.461   8.987
46018SOL    HW139893   7.877   5.474   9.037
46018SOL    HW239894   7.796   5.533   8.923
46019SOL     OW39895   7.367   0.181   9.841
46019SOL    HW139896   7.411   0.098   9.823
46019SOL    HW239897   7.348   0.178   9.934
46020SOL     OW39898   4.232   5.998   4.934
46020SOL    HW139899   4.209   6.072   4.878
46020SOL    HW239900   4.152   5.978   4.982
46021SOL     OW39901   9.976  10.487  13.242
46021SOL    HW139902   9.881  10.494  13.253
46021SOL    HW239903   9.995  10.532  13.160
46022SOL     OW39904  11.982  14.833   1.669
46022SOL    HW139905  11.984   0.018   1.744
46022SOL    HW239906  12.005  14.748   1.705
46023SOL     OW39907   4.435   1.447  13.548
46023SOL    HW139908   4.367   1.387  13.519
46023SOL    HW239909   4.389   1.511  13.603
46024SOL     OW39910   6.256   8.019   2.316
46024SOL    HW139911   6.268   7.953   2.248
46024SOL    HW239912   6.214   7.972   2.388
46025SOL     OW39913   5.977   0.717  10.743
46025SOL    HW139914   5.940   0.768  10.815
46025SOL    HW239915   6.000   0.632  10.783
46026SOL     OW39916   0.776   3.655  14.356
46026SOL    HW139917   0.834   3.612  14.293
46026SOL    HW239918   0.795   3.611  14.439
46027SOL     OW39919   1.617   2.934  11.719
46027SOL    HW139920   1.535   2.900  11.685
46027SOL    HW239921   1.682   2.912  11.652
46028SOL     OW39922   3.552   3.444   2.718
46028SOL    HW139923   3.602   3.522   2.697
46028SOL    HW239924   3.587   3.376   2.661
46029SOL     OW39925   0.097   6.921   6.727
46029SOL    HW139926   0.095   6.994   6.665
46029SOL    HW239927   0.064   6.846   6.677
46030SOL     OW39928   8.739   6.580   0.236
46030SOL    HW139929   8.757   6.504   0.293
46030SOL    HW239930   8.644   6.591   0.240
46031SOL     OW39931   4.231   8.202   2.874
46031SOL    HW139932   4.249   8.116   2.912
46031SOL    HW239933   4.306   8.219   2.817
46032SOL     OW39934   7.339  10.841  11.671
46032SOL    HW139935   7.362  10.783  11.599
46032SOL    HW239936   7.277  10.903  11.633
46033SOL     OW39937   2.633   7.560   3.155
46033SOL    HW139938   2.711   7.505   3.148
46033SOL    HW239939   2.622   7.597   3.068
46034SOL     OW39940  14.866   8.938  14.618
46034SOL    HW139941  14.778   8.909  14.595
46034SOL    HW239942  14.857   8.975  14.706
46035SOL     OW39943   8.723  12.370  10.286
46035SOL    HW139944   8.682  12.449  10.249
46035SOL    HW239945   8.765  12.328  10.211
46036SOL     OW39946   2.730  12.820  10.764
46036SOL    HW139947   2.748  12.727  10.750
46036SOL    HW239948   2.636  12.824  10.782
46037SOL     OW39949   8.575  14.371   6.543
46037SOL    HW139950   8.639  14.415   6.599
46037SOL    HW239951   8.622  14.349   6.463
46038SOL     OW39952   9.187  11.340   9.554
46038SOL    HW139953   9.106  11.290   9.546
46038SOL    HW239954   9.158  11.431   9.559
46039SOL     OW39955  10.249   2.355   8.384
46039SOL    HW139956  10.326   2.400   8.348
46039SOL    HW239957  10.250   2.378   8.477
46040SOL     OW39958   6.901   6.620   4.905
46040SOL    HW139959   6.893   6.526   4.892
46040SOL    HW239960   6.941   6.629   4.992
46041SOL     OW39961   6.408  11.631  11.729
46041SOL    HW139962   6.333  11.660  11.677
46041SOL    HW239963   6.410  11.691  11.804
46042SOL     OW39964   6.834   5.693   8.916
46042SOL    HW139965   6.878   5.639   8.850
46042SOL    HW239966   6.849   5.783   8.887
46043SOL     OW39967  10.151   5.486   7.983
46043SOL    HW139968  10.151   5.402   8.028
46043SOL    HW239969  10.111   5.468   7.898
46044SOL     OW39970   8.439   0.231   4.762
46044SOL    HW139971   8.497   0.236   4.837
46044SOL    HW239972   8.352   0.248   4.798
46045SOL     OW39973   1.065  12.933   2.557
46045SOL    HW139974   1.145  12.980   2.536
46045SOL    HW239975   1.092  12.841   2.565
46046SOL     OW39976   4.348  11.032   1.094
46046SOL    HW139977   4.281  11.049   1.028
46046SOL    HW239978   4.303  11.046   1.177
46047SOL     OW39979  11.640  14.710   9.012
46047SOL    HW139980  11.607  14.632   8.968
46047SOL    HW239981  11.583  14.781   8.981
46048SOL     OW39982   9.625   4.983  14.550
46048SOL    HW139983   9.679   5.036  14.608
46048SOL    HW239984   9.674   4.980  14.468
46049SOL     OW39985  10.402  13.298  12.970
46049SOL    HW139986  10.349  13.231  13.012
46049SOL    HW239987  10.401  13.371  13.032
46050SOL     OW39988   6.267  10.913   4.547
46050SOL    HW139989   6.177  10.916   4.579
46050SOL    HW239990   6.318  10.884   4.623
46051SOL     OW39991   8.897   9.939   7.382
46051SOL    HW139992   8.978   9.922   7.333
46051SOL    HW239993   8.842   9.863   7.363
46052SOL     OW39994  14.059   6.553   3.702
46052SOL    HW139995  14.063   6.461   3.676
46052SOL    HW239996  14.022   6.598   3.627
46053SOL     OW39997  13.069   3.004  12.094
46053SOL    HW139998  12.975   2.984  12.093
46053SOL    HW239999  13.092   3.002  12.187
46054SOL     OW40000   5.725   0.658   8.693
46054SOL    HW140001   5.673   0.699   8.623
46054SOL    HW240002   5.716   0.717   8.767
46055SOL     OW40003   1.464   4.844   4.672
46055SOL    HW140004   1.394   4.824   4.733
46055SOL    HW240005   1.430   4.819   4.586
46056SOL     OW40006  11.423   2.438   5.224
46056SOL    HW140007  11.334   2.418   5.254
46056SOL    HW240008  11.432   2.388   5.143
46057SOL     OW40009   0.934  12.441   2.727
46057SOL    HW140010   1.003  12.472   2.669
46057SOL    HW240011   0.942  12.495   2.806
46058SOL     OW40012  14.181   9.727   3.713
46058SOL    HW140013  14.220   9.674   3.643
46058SOL    HW240014  14.168   9.813   3.673
46059SOL     OW40015   5.160   5.105   0.269
46059SOL    HW140016   5.234   5.150   0.229
46059SOL    HW240017   5.108   5.074   0.195
46060SOL     OW40018   3.380   8.779   7.951
46060SOL    HW140019   3.347   8.852   8.004
46060SOL    HW240020   3.330   8.783   7.870
46061SOL     OW40021   5.651  12.858   1.546
46061SOL    HW140022   5.729  12.810   1.519
46061SOL    HW240023   5.685  12.941   1.580
46062SOL     OW40024  12.894  11.712  13.092
46062SOL    HW140025  12.893  11.757  13.008
46062SOL    HW240026  12.838  11.635  13.079
46063SOL     OW40027   8.610   5.669   1.024
46063SOL    HW140028   8.629   5.755   0.988
46063SOL    HW240029   8.556   5.686   1.101
46064SOL     OW40030   5.414  12.161   8.229
46064SOL    HW140031   5.372  12.092   8.281
46064SOL    HW240032   5.377  12.152   8.141
46065SOL     OW40033   3.131  12.023   9.598
46065SOL    HW140034   3.089  12.081   9.535
46065SOL    HW240035   3.161  11.948   9.546
46066SOL     OW40036   5.115   3.409   2.966
46066SOL    HW140037   5.197   3.445   3.000
46066SOL    HW240038   5.109   3.444   2.876
46067SOL     OW40039   0.373  11.715   3.121
46067SOL    HW140040   0.384  11.742   3.029
46067SOL    HW240041   0.380  11.620   3.119
46068SOL     OW40042   4.573  10.931   3.205
46068SOL    HW140043   4.551  10.839   3.195
46068SOL    HW240044   4.492  10.978   3.184
46069SOL     OW40045   6.559  11.797   4.936
46069SOL    HW140046   6.481  11.769   4.887
46069SOL    HW240047   6.531  11.877   4.982
46070SOL     OW40048   3.179   6.102   6.448
46070SOL    HW140049   3.225   6.125   6.529
46070SOL    HW240050   3.106   6.047   6.478
46071SOL     OW40051   7.208   4.045   0.189
46071SOL    HW140052   7.176   3.955   0.189
46071SOL    HW240053   7.277   4.047   0.123
46072SOL     OW40054   4.663  12.850  14.419
46072SOL    HW140055   4.696  12.763  14.441
46072SOL    HW240056   4.702  12.869  14.334
46073SOL     OW40057  14.262   8.694   8.949
46073SOL    HW140058  14.306   8.771   8.914
46073SOL    HW240059  14.296   8.621   8.898
46074SOL     OW40060   9.176   9.361  14.753
46074SOL    HW140061   9.153   9.436  14.807
46074SOL    HW240062   9.230   9.306  14.811
46075SOL     OW40063   7.600   6.689  13.245
46075SOL    HW140064   7.658   6.614  13.254
46075SOL    HW240065   7.521   6.653  13.205
46076SOL     OW40066   1.424   6.331   8.986
46076SOL    HW140067   1.370   6.378   9.049
46076SOL    HW240068   1.431   6.390   8.911
46077SOL     OW40069   1.300   3.780   8.397
46077SOL    HW140070   1.298   3.804   8.304
46077SOL    HW240071   1.333   3.690   8.398
46078SOL     OW40072   4.831   5.358   7.178
46078SOL    HW140073   4.903   5.398   7.129
46078SOL    HW240074   4.765   5.338   7.112
46079SOL     OW40075  10.847   0.663   4.606
46079SOL    HW140076  10.892   0.601   4.549
46079SOL    HW240077  10.867   0.749   4.569
46080SOL     OW40078   0.772  14.342   5.129
46080SOL    HW140079   0.848  14.343   5.071
46080SOL    HW240080   0.780  14.259   5.177
46081SOL     OW40081  14.583  10.195   0.024
46081SOL    HW140082  14.659  10.248   0.049
46081SOL    HW240083  14.522  10.257  14.859
46082SOL     OW40084   7.559  11.068  10.216
46082SOL    HW140085   7.638  11.095  10.170
46082SOL    HW240086   7.497  11.139  10.202
46083SOL     OW40087   3.323   1.003   2.827
46083SOL    HW140088   3.413   1.026   2.806
46083SOL    HW240089   3.321   0.907   2.825
46084SOL     OW40090   6.030   6.511   8.147
46084SOL    HW140091   6.102   6.555   8.103
46084SOL    HW240092   5.997   6.449   8.082
46085SOL     OW40093  14.475   3.157   7.671
46085SOL    HW140094  14.508   3.177   7.583
46085SOL    HW240095  14.545   3.108   7.713
46086SOL     OW40096  11.823  12.915   8.459
46086SOL    HW140097  11.861  12.863   8.388
46086SOL    HW240098  11.897  12.935   8.516
46087SOL     OW40099   7.203   8.356  10.589
46087SOL    HW140100   7.274   8.398  10.539
46087SOL    HW240101   7.246   8.324  10.668
46088SOL     OW40102  14.060   4.097  11.586
46088SOL    HW140103  14.122   4.132  11.523
46088SOL    HW240104  14.045   4.007  11.557
46089SOL     OW40105   6.664   9.851   0.035
46089SOL    HW140106   6.758   9.832   0.032
46089SOL    HW240107   6.645   9.866   0.128
46090SOL     OW40108   5.883   4.734   1.839
46090SOL    HW140109   5.868   4.801   1.906
46090SOL    HW240110   5.975   4.709   1.850
46091SOL     OW40111  13.119   0.073   0.539
46091SOL    HW140112  13.196   0.049   0.590
46091SOL    HW240113  13.079   0.145   0.588
46092SOL     OW40114   0.648  14.823   7.320
46092SOL    HW140115   0.563  14.785   7.298
46092SOL    HW240116   0.627   0.037   7.352
46093SOL     OW40117   4.003  10.646   7.191
46093SOL    HW140118   4.045  10.562   7.209
46093SOL    HW240119   4.061  10.711   7.230
46094SOL     OW40120   6.918   8.729  11.902
46094SOL    HW140121   6.985   8.670  11.868
46094SOL    HW240122   6.835   8.690  11.874
46095SOL     OW40123  11.188  11.981   4.479
46095SOL    HW140124  11.129  11.930   4.424
46095SOL    HW240125  11.273  11.975   4.435
46096SOL     OW40126   0.088   0.150   4.202
46096SOL    HW140127   0.068   0.162   4.109
46096SOL    HW240128   0.096   0.239   4.236
46097SOL     OW40129  14.646   6.414   6.833
46097SOL    HW140130  14.725   6.378   6.793
46097SOL    HW240131  14.604   6.338   6.874
46098SOL     OW40132   0.903  11.957   9.182
46098SOL    HW140133   0.814  11.921   9.184
46098SOL    HW240134   0.890  12.052   9.178
46099SOL     OW40135  14.036  12.494  12.923
46099SOL    HW140136  14.110  12.527  12.871
46099SOL    HW240137  14.076  12.432  12.984
46100SOL     OW40138   6.559   9.393   7.855
46100SOL    HW140139   6.545   9.392   7.760
46100SOL    HW240140   6.637   9.340   7.868
46101SOL     OW40141   9.693   8.251   2.762
46101SOL    HW140142   9.642   8.327   2.735
46101SOL    HW240143   9.641   8.176   2.736
46102SOL     OW40144   3.311   4.782   7.637
46102SOL    HW140145   3.356   4.705   7.603
46102SOL    HW240146   3.373   4.854   7.623
46103SOL     OW40147   0.338  14.688   0.693
46103SOL    HW140148   0.325  14.594   0.706
46103SOL    HW240149   0.406  14.712   0.755
46104SOL     OW40150   7.639  11.157   3.202
46104SOL    HW140151   7.728  11.124   3.211
46104SOL    HW240152   7.610  11.123   3.117
46105SOL     OW40153   9.909  12.517   5.748
46105SOL    HW140154   9.962  12.574   5.803
46105SOL    HW240155   9.825  12.510   5.794
46106SOL     OW40156   5.077   5.435   9.366
46106SOL    HW140157   5.137   5.393   9.305
46106SOL    HW240158   5.068   5.372   9.438
46107SOL     OW40159   1.452   6.118  11.608
46107SOL    HW140160   1.508   6.149  11.679
46107SOL    HW240161   1.378   6.178  11.609
46108SOL     OW40162  13.200   8.712   9.271
46108SOL    HW140163  13.272   8.681   9.215
46108SOL    HW240164  13.137   8.640   9.271
46109SOL     OW40165   7.618   6.885  13.412
46109SOL    HW140166   7.706   6.919  13.399
46109SOL    HW240167   7.617   6.801  13.366
46110SOL     OW40168  10.465   9.353   1.605
46110SOL    HW140169  10.526   9.364   1.678
46110SOL    HW240170  10.464   9.259   1.587
46111SOL     OW40171   5.928  14.475   2.797
46111SOL    HW140172   5.968  14.477   2.710
46111SOL    HW240173   5.862  14.544   2.794
46112SOL     OW40174   6.343   1.022   0.880
46112SOL    HW140175   6.392   0.985   0.807
46112SOL    HW240176   6.257   0.981   0.875
46113SOL     OW40177   4.470  13.755  13.766
46113SOL    HW140178   4.560  13.764  13.798
46113SOL    HW240179   4.418  13.811  13.824
46114SOL     OW40180   5.001   9.829   2.778
46114SOL    HW140181   5.039   9.905   2.822
46114SOL    HW240182   4.965   9.776   2.850
46115SOL     OW40183   8.103   8.818   2.349
46115SOL    HW140184   8.172   8.818   2.282
46115SOL    HW240185   8.151   8.825   2.432
46116SOL     OW40186  12.052  12.076  13.276
46116SOL    HW140187  12.116  12.006  13.265
46116SOL    HW240188  12.079  12.120  13.357
46117SOL     OW40189   8.727  12.010   0.742
46117SOL    HW140190   8.793  12.053   0.796
46117SOL    HW240191   8.758  12.022   0.652
46118SOL     OW40192  13.160   6.644   4.571
46118SOL    HW140193  13.179   6.737   4.588
46118SOL    HW240194  13.069   6.634   4.599
46119SOL     OW40195   3.331   8.940  14.775
46119SOL    HW140196   3.376   8.864  14.739
46119SOL    HW240197   3.378   8.961  14.855
46120SOL     OW40198   8.522  13.382   3.996
46120SOL    HW140199   8.536  13.473   4.020
46120SOL    HW240200   8.609  13.349   3.973
46121SOL     OW40201  13.438   5.436  12.892
46121SOL    HW140202  13.403   5.352  12.864
46121SOL    HW240203  13.516   5.450  12.839
46122SOL     OW40204   1.013   0.510   6.019
46122SOL    HW140205   1.108   0.501   6.017
46122SOL    HW240206   0.983   0.439   6.076
46123SOL     OW40207   0.110   9.352   3.158
46123SOL    HW140208   0.115   9.350   3.254
46123SOL    HW240209   0.158   9.273   3.131
46124SOL     OW40210   4.268   8.351   1.256
46124SOL    HW140211   4.241   8.346   1.347
46124SOL    HW240212   4.346   8.296   1.250
46125SOL     OW40213  10.044  12.850   1.368
46125SOL    HW140214   9.962  12.898   1.356
46125SOL    HW240215  10.069  12.866   1.459
46126SOL     OW40216  10.353  11.164   2.175
46126SOL    HW140217  10.313  11.171   2.261
46126SOL    HW240218  10.320  11.240   2.127
46127SOL     OW40219   7.366  14.682  14.290
46127SOL    HW140220   7.438  14.625  14.261
46127SOL    HW240221   7.405  14.769  14.292
46128SOL     OW40222   4.137   9.610  12.916
46128SOL    HW140223   4.154   9.622  13.009
46128SOL    HW240224   4.163   9.692  12.875
46129SOL     OW40225   2.830   8.970  14.258
46129SOL    HW140226   2.870   8.985  14.344
46129SOL    HW240227   2.801   8.879  14.260
46130SOL     OW40228   9.861   4.520  10.936
46130SOL    HW140229   9.805   4.582  10.982
46130SOL    HW240230   9.812   4.495  10.858
46131SOL     OW40231  13.139   7.595   5.258
46131SOL    HW140232  13.071   7.662   5.262
46131SOL    HW240233  13.219   7.639   5.286
46132SOL     OW40234  12.473   7.059   3.840
46132SOL    HW140235  12.495   7.133   3.896
46132SOL    HW240236  12.529   6.988   3.870
46133SOL     OW40237   9.066   0.338   8.395
46133SOL    HW140238   9.058   0.339   8.490
46133SOL    HW240239   8.990   0.289   8.364
46134SOL     OW40240   4.952  10.271   3.760
46134SOL    HW140241   4.893  10.226   3.700
46134SOL    HW240242   4.930  10.364   3.750
46135SOL     OW40243  13.410  10.007   1.483
46135SOL    HW140244  13.481   9.943   1.485
46135SOL    HW240245  13.416  10.052   1.568
46136SOL     OW40246  12.958   7.284   4.161
46136SOL    HW140247  12.986   7.255   4.248
46136SOL    HW240248  12.920   7.371   4.175
46137SOL     OW40249  14.741   1.878  13.848
46137SOL    HW140250  14.721   1.864  13.941
46137SOL    HW240251  14.734   1.791  13.809
46138SOL     OW40252   4.446  11.417   7.648
46138SOL    HW140253   4.498  11.434   7.727
46138SOL    HW240254   4.451  11.498   7.598
46139SOL     OW40255  14.852   9.571   0.535
46139SOL    HW140256  14.786   9.554   0.468
46139SOL    HW240257  14.803   9.609   0.608
46140SOL     OW40258   0.554  10.895   4.822
46140SOL    HW140259   0.627  10.942   4.861
46140SOL    HW240260   0.575  10.803   4.836
46141SOL     OW40261   3.236   2.162   2.080
46141SOL    HW140262   3.148   2.200   2.085
46141SOL    HW240263   3.222   2.068   2.070
46142SOL     OW40264   1.977   9.104   0.888
46142SOL    HW140265   1.925   9.080   0.965
46142SOL    HW240266   2.063   9.068   0.905
46143SOL     OW40267   9.343   8.087   9.284
46143SOL    HW140268   9.311   8.088   9.194
46143SOL    HW240269   9.434   8.116   9.277
46144SOL     OW40270   3.577   9.752   8.230
46144SOL    HW140271   3.656   9.725   8.275
46144SOL    HW240272   3.507   9.699   8.268
46145SOL     OW40273   3.594   2.922   7.656
46145SOL    HW140274   3.592   2.914   7.751
46145SOL    HW240275   3.550   2.843   7.624
46146SOL     OW40276   9.315   9.990  10.446
46146SOL    HW140277   9.307  10.084  10.436
46146SOL    HW240278   9.266   9.969  10.526
46147SOL     OW40279   6.676   1.233   1.442
46147SOL    HW140280   6.665   1.193   1.356
46147SOL    HW240281   6.591   1.273   1.461
46148SOL     OW40282   6.294   5.026   5.784
46148SOL    HW140283   6.292   4.971   5.705
46148SOL    HW240284   6.385   5.056   5.790
46149SOL     OW40285  13.508   4.973  12.624
46149SOL    HW140286  13.518   5.017  12.709
46149SOL    HW240287  13.414   4.980  12.606
46150SOL     OW40288   8.101   4.103   4.858
46150SOL    HW140289   8.117   4.045   4.933
46150SOL    HW240290   8.023   4.153   4.882
46151SOL     OW40291   5.147   6.333   6.121
46151SOL    HW140292   5.164   6.287   6.203
46151SOL    HW240293   5.143   6.426   6.146
46152SOL     OW40294   7.687   0.797  13.735
46152SOL    HW140295   7.613   0.760  13.783
46152SOL    HW240296   7.763   0.776  13.790
46153SOL     OW40297   3.920  12.701   0.621
46153SOL    HW140298   3.881  12.623   0.661
46153SOL    HW240299   3.992  12.667   0.568
46154SOL     OW40300   0.395   1.479   5.747
46154SOL    HW140301   0.360   1.565   5.726
46154SOL    HW240302   0.320   1.420   5.742
46155SOL     OW40303   9.671  10.151  10.827
46155SOL    HW140304   9.671  10.178  10.919
46155SOL    HW240305   9.677  10.055  10.830
46156SOL     OW40306   7.096  12.411   6.481
46156SOL    HW140307   7.008  12.429   6.448
46156SOL    HW240308   7.127  12.497   6.511
46157SOL     OW40309   0.977   3.210   6.215
46157SOL    HW140310   0.972   3.300   6.246
46157SOL    HW240311   0.892   3.172   6.238
46158SOL     OW40312   2.766   3.998  13.079
46158SOL    HW140313   2.730   4.043  13.156
46158SOL    HW240314   2.691   3.956  13.038
46159SOL     OW40315   3.037   3.718   8.461
46159SOL    HW140316   3.119   3.668   8.466
46159SOL    HW240317   3.032   3.763   8.545
46160SOL     OW40318   8.668   1.419   3.715
46160SOL    HW140319   8.612   1.346   3.741
46160SOL    HW240320   8.637   1.493   3.766
46161SOL     OW40321   7.700   6.307   2.622
46161SOL    HW140322   7.673   6.231   2.571
46161SOL    HW240323   7.710   6.377   2.557
46162SOL     OW40324   1.898   4.412   4.833
46162SOL    HW140325   1.969   4.469   4.862
46162SOL    HW240326   1.915   4.328   4.876
46163SOL     OW40327   1.859   3.082  12.526
46163SOL    HW140328   1.765   3.075  12.541
46163SOL    HW240329   1.878   3.015  12.460
46164SOL     OW40330   0.327  12.392   9.545
46164SOL    HW140331   0.293  12.464   9.493
46164SOL    HW240332   0.253  12.363   9.598
46165SOL     OW40333  12.061   6.045  11.088
46165SOL    HW140334  12.135   6.102  11.111
46165SOL    HW240335  12.101   5.970  11.045
46166SOL     OW40336   7.395  11.096  10.914
46166SOL    HW140337   7.374  11.185  10.942
46166SOL    HW240338   7.489  11.088  10.932
46167SOL     OW40339   3.716  11.858  13.417
46167SOL    HW140340   3.805  11.875  13.446
46167SOL    HW240341   3.687  11.784  13.471
46168SOL     OW40342  10.404  13.009   0.730
46168SOL    HW140343  10.435  12.931   0.685
46168SOL    HW240344  10.409  12.987   0.823
46169SOL     OW40345  11.301  11.051   6.284
46169SOL    HW140346  11.371  10.999   6.246
46169SOL    HW240347  11.231  11.049   6.218
46170SOL     OW40348   4.472  14.739   2.160
46170SOL    HW140349   4.481  14.820   2.209
46170SOL    HW240350   4.560  14.720   2.128
46171SOL     OW40351  11.489   0.249   7.967
46171SOL    HW140352  11.560   0.303   7.934
46171SOL    HW240353  11.453   0.206   7.889
46172SOL     OW40354  11.875  11.129   5.425
46172SOL    HW140355  11.945  11.094   5.370
46172SOL    HW240356  11.859  11.217   5.391
46173SOL     OW40357   2.635  12.022   2.092
46173SOL    HW140358   2.570  11.994   2.027
46173SOL    HW240359   2.687  11.944   2.109
46174SOL     OW40360  12.266   3.591   2.533
46174SOL    HW140361  12.289   3.643   2.610
46174SOL    HW240362  12.307   3.505   2.549
46175SOL     OW40363  14.491  10.948   4.992
46175SOL    HW140364  14.546  10.942   4.914
46175SOL    HW240365  14.463  11.039   4.996
46176SOL     OW40366   3.002   8.571  14.275
46176SOL    HW140367   2.922   8.621  14.294
46176SOL    HW240368   2.982   8.483  14.306
46177SOL     OW40369   7.330  11.137   9.101
46177SOL    HW140370   7.313  11.051   9.064
46177SOL    HW240371   7.361  11.119   9.190
46178SOL     OW40372   1.337   6.724  11.277
46178SOL    HW140373   1.353   6.659  11.346
46178SOL    HW240374   1.337   6.808  11.323
46179SOL     OW40375  14.589   9.542  13.372
46179SOL    HW140376  14.556   9.476  13.311
46179SOL    HW240377  14.526   9.542  13.444
46180SOL     OW40378   0.158  11.423   8.904
46180SOL    HW140379   0.063  11.419   8.914
46180SOL    HW240380   0.185  11.331   8.897
46181SOL     OW40381  10.673   6.168   2.440
46181SOL    HW140382  10.715   6.193   2.522
46181SOL    HW240383  10.605   6.234   2.427
46182SOL     OW40384   2.483   1.200   7.825
46182SOL    HW140385   2.542   1.177   7.753
46182SOL    HW240386   2.453   1.288   7.804
46183SOL     OW40387   4.067  13.797  11.918
46183SOL    HW140388   4.019  13.826  11.996
46183SOL    HW240389   4.000  13.760  11.861
46184SOL     OW40390   0.615  10.393  12.297
46184SOL    HW140391   0.545  10.386  12.361
46184SOL    HW240392   0.577  10.356  12.217
46185SOL     OW40393   9.974  12.852   9.150
46185SOL    HW140394   9.993  12.925   9.091
46185SOL    HW240395   9.995  12.886   9.237
46186SOL     OW40396  13.784   5.824   0.710
46186SOL    HW140397  13.842   5.877   0.656
46186SOL    HW240398  13.842   5.775   0.767
46187SOL     OW40399   0.970   8.338  14.779
46187SOL    HW140400   0.942   8.377  14.697
46187SOL    HW240401   1.049   8.288  14.757
46188SOL     OW40402   7.565   6.717  12.099
46188SOL    HW140403   7.568   6.695  12.005
46188SOL    HW240404   7.655   6.705  12.129
46189SOL     OW40405  11.412   9.622  13.824
46189SOL    HW140406  11.431   9.715  13.809
46189SOL    HW240407  11.347   9.600  13.757
46190SOL     OW40408  10.987   2.145   3.081
46190SOL    HW140409  11.045   2.091   3.134
46190SOL    HW240410  10.962   2.090   3.007
46191SOL     OW40411   0.402   6.164   2.521
46191SOL    HW140412   0.433   6.074   2.523
46191SOL    HW240413   0.318   6.162   2.567
46192SOL     OW40414  13.926  13.005  14.100
46192SOL    HW140415  13.855  13.068  14.116
46192SOL    HW240416  14.004  13.049  14.131
46193SOL     OW40417  10.310   6.633  14.097
46193SOL    HW140418  10.292   6.704  14.035
46193SOL    HW240419  10.268   6.661  14.179
46194SOL     OW40420  12.264  11.593   9.213
46194SOL    HW140421  12.340  11.539   9.189
46194SOL    HW240422  12.238  11.636   9.132
46195SOL     OW40423   5.498   7.738  14.208
46195SOL    HW140424   5.407   7.709  14.198
46195SOL    HW240425   5.531   7.688  14.283
46196SOL     OW40426  11.402   8.223   9.636
46196SOL    HW140427  11.425   8.209   9.544
46196SOL    HW240428  11.340   8.297   9.634
46197SOL     OW40429  12.722   7.859  14.073
46197SOL    HW140430  12.665   7.907  14.013
46197SOL    HW240431  12.694   7.768  14.065
46198SOL     OW40432  13.031  10.167  11.717
46198SOL    HW140433  13.019  10.080  11.755
46198SOL    HW240434  13.121  10.190  11.738
46199SOL     OW40435  10.575  14.692   2.608
46199SOL    HW140436  10.492  14.701   2.561
46199SOL    HW240437  10.550  14.662   2.695
46200SOL     OW40438  14.551   3.358  13.176
46200SOL    HW140439  14.509   3.367  13.262
46200SOL    HW240440  14.618   3.426  13.175
46201SOL     OW40441  13.581   4.316   3.908
46201SOL    HW140442  13.511   4.354   3.961
46201SOL    HW240443  13.572   4.358   3.822
46202SOL     OW40444   3.914  10.857   6.832
46202SOL    HW140445   3.985  10.854   6.768
46202SOL    HW240446   3.930  10.937   6.882
46203SOL     OW40447   2.102   4.190  11.608
46203SOL    HW140448   2.158   4.208  11.683
46203SOL    HW240449   2.102   4.094  11.600
46204SOL     OW40450  10.484   6.547   4.799
46204SOL    HW140451  10.498   6.619   4.738
46204SOL    HW240452  10.570   6.504   4.806
46205SOL     OW40453   7.730  14.591   4.941
46205SOL    HW140454   7.679  14.518   4.905
46205SOL    HW240455   7.687  14.613   5.024
46206SOL     OW40456  10.112  12.205  11.365
46206SOL    HW140457  10.204  12.193  11.341
46206SOL    HW240458  10.064  12.161  11.295
46207SOL     OW40459   7.309   0.134  13.492
46207SOL    HW140460   7.273   0.196  13.556
46207SOL    HW240461   7.253   0.144  13.415
46208SOL     OW40462  10.003   6.529  13.243
46208SOL    HW140463  10.029   6.453  13.296
46208SOL    HW240464   9.914   6.509  13.214
46209SOL     OW40465   5.985   8.065   6.937
46209SOL    HW140466   6.019   8.020   7.015
46209SOL    HW240467   5.901   8.102   6.965
46210SOL     OW40468   3.309   6.502   8.708
46210SOL    HW140469   3.385   6.516   8.651
46210SOL    HW240470   3.342   6.447   8.779
46211SOL     OW40471   2.705  14.272   0.805
46211SOL    HW140472   2.643  14.337   0.772
46211SOL    HW240473   2.688  14.194   0.753
46212SOL     OW40474  11.882  13.516   6.658
46212SOL    HW140475  11.833  13.548   6.582
46212SOL    HW240476  11.847  13.428   6.675
46213SOL     OW40477   3.073   2.992   5.328
46213SOL    HW140478   3.141   3.057   5.308
46213SOL    HW240479   3.104   2.950   5.409
46214SOL     OW40480   2.393   0.290   2.674
46214SOL    HW140481   2.368   0.365   2.620
46214SOL    HW240482   2.343   0.217   2.638
46215SOL     OW40483  13.597   4.090   0.424
46215SOL    HW140484  13.535   4.042   0.370
46215SOL    HW240485  13.674   4.033   0.429
46216SOL     OW40486  10.760   9.126   0.219
46216SOL    HW140487  10.830   9.141   0.156
46216SOL    HW240488  10.750   9.210   0.264
46217SOL     OW40489   4.544   8.371   8.193
46217SOL    HW140490   4.625   8.358   8.243
46217SOL    HW240491   4.558   8.323   8.111
46218SOL     OW40492  12.482   1.119  12.598
46218SOL    HW140493  12.467   1.212  12.581
46218SOL    HW240494  12.442   1.074  12.524
46219SOL     OW40495   5.100   6.295   1.106
46219SOL    HW140496   5.080   6.316   1.198
46219SOL    HW240497   5.168   6.228   1.111
46220SOL     OW40498  10.452   0.100   4.656
46220SOL    HW140499  10.542   0.068   4.669
46220SOL    HW240500  10.429   0.070   4.568
46221SOL     OW40501   2.387   9.635   7.968
46221SOL    HW140502   2.409   9.728   7.966
46221SOL    HW240503   2.416   9.601   7.884
46222SOL     OW40504   3.607   3.677  12.679
46222SOL    HW140505   3.645   3.761  12.702
46222SOL    HW240506   3.678   3.629  12.636
46223SOL     OW40507   8.387   6.239  11.349
46223SOL    HW140508   8.381   6.291  11.269
46223SOL    HW240509   8.391   6.304  11.420
46224SOL     OW40510   1.223   4.303  11.043
46224SOL    HW140511   1.179   4.388  11.035
46224SOL    HW240512   1.313   4.324  11.067
46225SOL     OW40513  10.691   1.909   7.702
46225SOL    HW140514  10.606   1.879   7.668
46225SOL    HW240515  10.754   1.886   7.633
46226SOL     OW40516   0.864  13.128   0.096
46226SOL    HW140517   0.933  13.061   0.097
46226SOL    HW240518   0.811  13.109   0.173
46227SOL     OW40519   3.013   2.944  11.637
46227SOL    HW140520   3.036   3.037  11.639
46227SOL    HW240521   2.920   2.943  11.613
46228SOL     OW40522   0.296   0.194  14.659
46228SOL    HW140523   0.363   0.136  14.623
46228SOL    HW240524   0.337   0.280  14.659
46229SOL     OW40525   0.644   6.074  14.387
46229SOL    HW140526   0.582   6.092  14.316
46229SOL    HW240527   0.692   6.156  14.399
46230SOL     OW40528  11.559   5.037   2.520
46230SOL    HW140529  11.613   4.972   2.475
46230SOL    HW240530  11.580   5.026   2.613
46231SOL     OW40531   3.837  13.936   1.961
46231SOL    HW140532   3.871  13.891   1.883
46231SOL    HW240533   3.906  13.997   1.986
46232SOL     OW40534   6.093   0.060   7.192
46232SOL    HW140535   6.121   0.041   7.281
46232SOL    HW240536   6.100  14.851   7.146
46233SOL     OW40537   7.722  12.718   0.152
46233SOL    HW140538   7.645  12.669   0.123
46233SOL    HW240539   7.705  12.735   0.245
46234SOL     OW40540  10.536   3.016   5.782
46234SOL    HW140541  10.522   2.945   5.720
46234SOL    HW240542  10.601   3.072   5.740
46235SOL     OW40543   3.359  12.282   1.227
46235SOL    HW140544   3.400  12.204   1.264
46235SOL    HW240545   3.342  12.339   1.302
46236SOL     OW40546   9.257   9.062   7.366
46236SOL    HW140547   9.258   9.022   7.279
46236SOL    HW240548   9.204   9.003   7.419
46237SOL     OW40549  12.301  13.810   8.884
46237SOL    HW140550  12.240  13.832   8.813
46237SOL    HW240551  12.319  13.716   8.872
46238SOL     OW40552   3.875  10.756  13.705
46238SOL    HW140553   3.967  10.727  13.703
46238SOL    HW240554   3.828  10.692  13.652
46239SOL     OW40555   1.702   1.794   1.246
46239SOL    HW140556   1.643   1.820   1.318
46239SOL    HW240557   1.756   1.871   1.231
46240SOL     OW40558   2.116   1.613  13.646
46240SOL    HW140559   2.165   1.695  13.642
46240SOL    HW240560   2.103   1.598  13.740
46241SOL     OW40561  12.862   6.327   3.074
46241SOL    HW140562  12.848   6.352   3.166
46241SOL    HW240563  12.952   6.294   3.072
46242SOL     OW40564   8.457  12.233  11.708
46242SOL    HW140565   8.386  12.190  11.755
46242SOL    HW240566   8.520  12.256  11.777
46243SOL     OW40567   9.031   8.322   5.436
46243SOL    HW140568   8.956   8.380   5.427
46243SOL    HW240569   9.076   8.353   5.515
46244SOL     OW40570  14.535   3.911   0.509
46244SOL    HW140571  14.537   3.876   0.599
46244SOL    HW240572  14.557   3.837   0.454
46245SOL     OW40573  11.918   0.048   4.523
46245SOL    HW140574  11.869   0.037   4.605
46245SOL    HW240575  11.851   0.046   4.455
46246SOL     OW40576   5.142   5.458  14.826
46246SOL    HW140577   5.115   5.491  14.741
46246SOL    HW240578   5.232   5.429  14.813
46247SOL     OW40579   4.822   4.706   6.356
46247SOL    HW140580   4.815   4.790   6.402
46247SOL    HW240581   4.884   4.656   6.409
46248SOL     OW40582   2.917   7.554   9.900
46248SOL    HW140583   2.984   7.543   9.832
46248SOL    HW240584   2.891   7.646   9.893
46249SOL     OW40585  13.031   7.861   2.132
46249SOL    HW140586  13.005   7.888   2.044
46249SOL    HW240587  13.041   7.944   2.180
46250SOL     OW40588  12.179   5.595   0.264
46250SOL    HW140589  12.231   5.642   0.199
46250SOL    HW240590  12.210   5.505   0.259
46251SOL     OW40591   7.903   0.968   7.389
46251SOL    HW140592   7.944   0.943   7.306
46251SOL    HW240593   7.891   0.885   7.436
46252SOL     OW40594   1.490   2.426   0.090
46252SOL    HW140595   1.417   2.394   0.144
46252SOL    HW240596   1.447   2.464   0.013
46253SOL     OW40597  13.969   0.905  13.928
46253SOL    HW140598  13.919   0.920  13.847
46253SOL    HW240599  13.910   0.932  13.998
46254SOL     OW40600   9.578   7.233   1.337
46254SOL    HW140601   9.587   7.138   1.349
46254SOL    HW240602   9.561   7.243   1.244
46255SOL     OW40603  14.352  11.663  11.518
46255SOL    HW140604  14.428  11.718  11.499
46255SOL    HW240605  14.386  11.593  11.573
46256SOL     OW40606   1.441  14.712  13.172
46256SOL    HW140607   1.407  14.780  13.231
46256SOL    HW240608   1.404  14.734  13.087
46257SOL     OW40609   6.557   2.487   3.305
46257SOL    HW140610   6.556   2.583   3.303
46257SOL    HW240611   6.591   2.462   3.219
46258SOL     OW40612  11.345   8.184   1.806
46258SOL    HW140613  11.277   8.249   1.822
46258SOL    HW240614  11.388   8.212   1.726
46259SOL     OW40615   5.743   8.342  13.602
46259SOL    HW140616   5.685   8.286  13.551
46259SOL    HW240617   5.826   8.341  13.554
46260SOL     OW40618  14.374  10.666   1.155
46260SOL    HW140619  14.418  10.617   1.224
46260SOL    HW240620  14.409  10.631   1.073
46261SOL     OW40621  10.954   5.080  10.993
46261SOL    HW140622  10.891   5.082  10.921
46261SOL    HW240623  10.985   5.170  11.000
46262SOL     OW40624  10.928   1.858   7.971
46262SOL    HW140625  10.910   1.943   7.932
46262SOL    HW240626  10.972   1.809   7.901
46263SOL     OW40627  10.644   6.157   5.157
46263SOL    HW140628  10.709   6.228   5.154
46263SOL    HW240629  10.562   6.199   5.129
46264SOL     OW40630  14.214  12.257   5.416
46264SOL    HW140631  14.202  12.260   5.511
46264SOL    HW240632  14.209  12.349   5.389
46265SOL     OW40633  10.785   8.089   5.753
46265SOL    HW140634  10.703   8.091   5.802
46265SOL    HW240635  10.847   8.138   5.807
46266SOL     OW40636   1.049  13.839   0.094
46266SOL    HW140637   1.103  13.760   0.100
46266SOL    HW240638   1.084  13.886   0.019
46267SOL     OW40639   7.266  10.087   0.748
46267SOL    HW140640   7.341  10.028   0.739
46267SOL    HW240641   7.255  10.125   0.661
46268SOL     OW40642   8.997   3.462  13.306
46268SOL    HW140643   9.046   3.500  13.233
46268SOL    HW240644   8.906   3.464  13.278
46269SOL     OW40645   3.244   9.867  14.331
46269SOL    HW140646   3.293   9.827  14.259
46269SOL    HW240647   3.166   9.904  14.290
46270SOL     OW40648   7.952   8.376   0.945
46270SOL    HW140649   7.897   8.422   0.882
46270SOL    HW240650   7.891   8.341   1.010
46271SOL     OW40651   9.441   4.199   8.098
46271SOL    HW140652   9.362   4.243   8.126
46271SOL    HW240653   9.504   4.214   8.169
46272SOL     OW40654   0.566   2.022   9.794
46272SOL    HW140655   0.606   2.086   9.853
46272SOL    HW240656   0.634   2.001   9.731
46273SOL     OW40657   0.443   4.501   3.518
46273SOL    HW140658   0.461   4.589   3.485
46273SOL    HW240659   0.508   4.487   3.586
46274SOL     OW40660  13.053  13.782   0.434
46274SOL    HW140661  13.044  13.716   0.503
46274SOL    HW240662  13.088  13.859   0.479
46275SOL     OW40663   7.492   6.515  10.608
46275SOL    HW140664   7.550   6.467  10.548
46275SOL    HW240665   7.506   6.607  10.586
46276SOL     OW40666   8.674   7.701  10.792
46276SOL    HW140667   8.621   7.690  10.714
46276SOL    HW240668   8.718   7.617  10.804
46277SOL     OW40669   0.650  13.410   8.477
46277SOL    HW140670   0.652  13.485   8.536
46277SOL    HW240671   0.675  13.335   8.533
46278SOL     OW40672   0.359  12.757  12.494
46278SOL    HW140673   0.439  12.809  12.507
46278SOL    HW240674   0.328  12.739  12.583
46279SOL     OW40675   4.889   0.462   0.812
46279SOL    HW140676   4.851   0.550   0.813
46279SOL    HW240677   4.897   0.440   0.719
46280SOL     OW40678   8.663   0.172  14.266
46280SOL    HW140679   8.705   0.200  14.347
46280SOL    HW240680   8.620   0.089  14.288
46281SOL     OW40681   2.016   8.666   4.909
46281SOL    HW140682   2.063   8.746   4.885
46281SOL    HW240683   2.076   8.621   4.969
46282SOL     OW40684  14.622  13.985  11.807
46282SOL    HW140685  14.591  13.991  11.897
46282SOL    HW240686  14.611  14.074  11.772
46283SOL     OW40687  10.265  11.644  14.299
46283SOL    HW140688  10.236  11.695  14.375
46283SOL    HW240689  10.293  11.560  14.336
46284SOL     OW40690  12.848  13.667   6.715
46284SOL    HW140691  12.846  13.573   6.730
46284SOL    HW240692  12.851  13.705   6.803
46285SOL     OW40693   4.121   4.433   1.052
46285SOL    HW140694   4.178   4.506   1.025
46285SOL    HW240695   4.039   4.475   1.077
46286SOL     OW40696   7.846   7.049   0.498
46286SOL    HW140697   7.778   7.006   0.444
46286SOL    HW240698   7.897   6.976   0.534
46287SOL     OW40699  13.511   4.828   8.010
46287SOL    HW140700  13.516   4.756   7.947
46287SOL    HW240701  13.600   4.837   8.043
46288SOL     OW40702  10.609   8.863   9.253
46288SOL    HW140703  10.630   8.778   9.291
46288SOL    HW240704  10.638   8.857   9.162
46289SOL     OW40705   6.186   1.785   7.374
46289SOL    HW140706   6.226   1.844   7.439
46289SOL    HW240707   6.108   1.833   7.345
46290SOL     OW40708   2.628   5.051   5.187
46290SOL    HW140709   2.593   5.093   5.109
46290SOL    HW240710   2.624   5.118   5.255
46291SOL     OW40711   5.698   5.582  10.672
46291SOL    HW140712   5.682   5.573  10.766
46291SOL    HW240713   5.613   5.606  10.636
46292SOL     OW40714   0.630   8.020  11.414
46292SOL    HW140715   0.714   7.973  11.423
46292SOL    HW240716   0.649   8.109  11.442
46293SOL     OW40717   5.940   9.245   4.542
46293SOL    HW140718   6.035   9.236   4.553
46293SOL    HW240719   5.916   9.316   4.603
46294SOL     OW40720  11.730   3.244  10.796
46294SOL    HW140721  11.689   3.160  10.774
46294SOL    HW240722  11.824   3.227  10.792
46295SOL     OW40723   5.076   7.902   0.175
46295SOL    HW140724   5.083   7.978   0.234
46295SOL    HW240725   5.166   7.886   0.147
46296SOL     OW40726   6.559   0.029   3.064
46296SOL    HW140727   6.521  14.815   3.062
46296SOL    HW240728   6.560   0.052   3.157
46297SOL     OW40729   9.781   0.500   1.093
46297SOL    HW140730   9.835   0.476   1.168
46297SOL    HW240731   9.774   0.596   1.099
46298SOL     OW40732   7.452  12.670  14.239
46298SOL    HW140733   7.454  12.725  14.161
46298SOL    HW240734   7.511  12.597  14.218
46299SOL     OW40735  10.444   0.576   3.443
46299SOL    HW140736  10.363   0.531   3.466
46299SOL    HW240737  10.500   0.508   3.407
46300SOL     OW40738  13.716   8.626  11.242
46300SOL    HW140739  13.739   8.544  11.198
46300SOL    HW240740  13.698   8.687  11.170
46301SOL     OW40741  14.055   6.884   7.548
46301SOL    HW140742  14.020   6.805   7.507
46301SOL    HW240743  14.146   6.862   7.568
46302SOL     OW40744   8.117   6.496   1.145
46302SOL    HW140745   8.137   6.486   1.052
46302SOL    HW240746   8.177   6.564   1.175
46303SOL     OW40747   4.141   7.319  11.296
46303SOL    HW140748   4.214   7.342  11.238
46303SOL    HW240749   4.165   7.356  11.381
46304SOL     OW40750  11.172  13.759   2.468
46304SOL    HW140751  11.105  13.702   2.430
46304SOL    HW240752  11.178  13.833   2.407
46305SOL     OW40753   9.826  14.867   1.023
46305SOL    HW140754   9.761  14.837   0.959
46305SOL    HW240755   9.778   0.003   1.105
46306SOL     OW40756  10.060   4.834   7.445
46306SOL    HW140757  10.124   4.871   7.506
46306SOL    HW240758  10.069   4.886   7.366
46307SOL     OW40759   6.898   1.851   2.525
46307SOL    HW140760   6.861   1.765   2.504
46307SOL    HW240761   6.833   1.892   2.581
46308SOL     OW40762   7.129   3.531   7.955
46308SOL    HW140763   7.103   3.589   7.884
46308SOL    HW240764   7.223   3.548   7.966
46309SOL     OW40765  14.055  10.178   4.220
46309SOL    HW140766  14.067  10.273   4.216
46309SOL    HW240767  14.100  10.145   4.143
46310SOL     OW40768  10.062   9.247   3.267
46310SOL    HW140769  10.141   9.193   3.261
46310SOL    HW240770  10.035   9.259   3.176
46311SOL     OW40771   4.807  14.623  13.510
46311SOL    HW140772   4.901  14.618  13.489
46311SOL    HW240773   4.774  14.693  13.453
46312SOL     OW40774   5.886   4.841  13.726
46312SOL    HW140775   5.865   4.799  13.642
46312SOL    HW240776   5.969   4.886  13.710
46313SOL     OW40777  11.503   1.138   4.189
46313SOL    HW140778  11.495   1.070   4.256
46313SOL    HW240779  11.556   1.207   4.230
46314SOL     OW40780   2.257  11.461   3.698
46314SOL    HW140781   2.238  11.380   3.746
46314SOL    HW240782   2.178  11.514   3.709
46315SOL     OW40783  11.044   1.867  10.697
46315SOL    HW140784  10.991   1.842  10.622
46315SOL    HW240785  11.060   1.960  10.686
46316SOL     OW40786  11.300   5.344  14.318
46316SOL    HW140787  11.244   5.267  14.321
46316SOL    HW240788  11.389   5.310  14.317
46317SOL     OW40789   3.955  14.081  13.696
46317SOL    HW140790   4.010  14.150  13.732
46317SOL    HW240791   3.970  14.085  13.602
46318SOL     OW40792   9.678   0.742  13.986
46318SOL    HW140793   9.728   0.670  14.023
46318SOL    HW240794   9.699   0.742  13.893
46319SOL     OW40795   9.140   4.351   6.345
46319SOL    HW140796   9.071   4.292   6.315
46319SOL    HW240797   9.097   4.406   6.411
46320SOL     OW40798   7.847  14.492   1.986
46320SOL    HW140799   7.842  14.575   1.938
46320SOL    HW240800   7.904  14.511   2.060
46321SOL     OW40801  13.527   2.664  13.475
46321SOL    HW140802  13.598   2.720  13.444
46321SOL    HW240803  13.529   2.589  13.416
46322SOL     OW40804   0.532  14.230  11.866
46322SOL    HW140805   0.473  14.304  11.882
46322SOL    HW240806   0.584  14.223  11.946
46323SOL     OW40807   6.904   9.987  11.225
46323SOL    HW140808   6.874  10.059  11.281
46323SOL    HW240809   6.899  10.022  11.136
46324SOL     OW40810   6.161   0.894   0.553
46324SOL    HW140811   6.155   0.807   0.513
46324SOL    HW240812   6.161   0.877   0.647
46325SOL     OW40813   2.783   5.071   1.849
46325SOL    HW140814   2.714   5.013   1.815
46325SOL    HW240815   2.773   5.151   1.798
46326SOL     OW40816  13.072   9.824   6.605
46326SOL    HW140817  12.980   9.840   6.583
46326SOL    HW240818  13.085   9.865   6.690
46327SOL     OW40819  10.419   6.911  11.414
46327SOL    HW140820  10.331   6.927  11.450
46327SOL    HW240821  10.448   6.831  11.459
46328SOL     OW40822   9.375  14.035  11.338
46328SOL    HW140823   9.337  14.026  11.251
46328SOL    HW240824   9.446  13.971  11.341
46329SOL     OW40825   5.851  11.108   6.924
46329SOL    HW140826   5.944  11.094   6.944
46329SOL    HW240827   5.810  11.023   6.939
46330SOL     OW40828   2.078   5.078  11.914
46330SOL    HW140829   2.012   5.069  11.983
46330SOL    HW240830   2.153   5.028  11.947
46331SOL     OW40831   7.060   4.214   4.308
46331SOL    HW140832   7.068   4.282   4.241
46331SOL    HW240833   7.013   4.143   4.265
46332SOL     OW40834   2.064  11.589  10.662
46332SOL    HW140835   2.053  11.663  10.722
46332SOL    HW240836   1.975  11.572  10.629
46333SOL     OW40837  12.547   0.768  13.005
46333SOL    HW140838  12.518   0.702  13.068
46333SOL    HW240839  12.629   0.733  12.970
46334SOL     OW40840  12.152   1.628  10.722
46334SOL    HW140841  12.080   1.663  10.670
46334SOL    HW240842  12.230   1.647  10.669
46335SOL     OW40843  11.699   3.745   1.275
46335SOL    HW140844  11.678   3.800   1.351
46335SOL    HW240845  11.794   3.737   1.277
46336SOL     OW40846   2.636   7.563  10.140
46336SOL    HW140847   2.575   7.585  10.070
46336SOL    HW240848   2.697   7.500  10.100
46337SOL     OW40849   1.476   1.193  12.922
46337SOL    HW140850   1.413   1.252  12.881
46337SOL    HW240851   1.474   1.215  13.015
46338SOL     OW40852   3.881   5.243   5.444
46338SOL    HW140853   3.843   5.220   5.359
46338SOL    HW240854   3.950   5.306   5.423
46339SOL     OW40855   6.081  13.960  13.930
46339SOL    HW140856   5.991  13.981  13.906
46339SOL    HW240857   6.099  13.878  13.885
46340SOL     OW40858   4.449   9.483   6.044
46340SOL    HW140859   4.483   9.445   5.963
46340SOL    HW240860   4.526   9.520   6.088
46341SOL     OW40861  10.813   4.903   8.621
46341SOL    HW140862  10.836   4.890   8.713
46341SOL    HW240863  10.869   4.976   8.593
46342SOL     OW40864  11.773   2.576   7.969
46342SOL    HW140865  11.835   2.526   7.917
46342SOL    HW240866  11.716   2.618   7.904
46343SOL     OW40867   8.689   9.928   3.753
46343SOL    HW140868   8.781   9.941   3.729
46343SOL    HW240869   8.686   9.840   3.792
46344SOL     OW40870   1.952  11.608   2.356
46344SOL    HW140871   2.044  11.634   2.364
46344SOL    HW240872   1.914  11.672   2.296
46345SOL     OW40873   0.873   5.235   3.940
46345SOL    HW140874   0.779   5.249   3.947
46345SOL    HW240875   0.885   5.141   3.957
46346SOL     OW40876   9.650   5.987  10.384
46346SOL    HW140877   9.605   5.982  10.468
46346SOL    HW240878   9.591   5.941  10.323
46347SOL     OW40879  13.618  12.979   6.503
46347SOL    HW140880  13.588  13.064   6.536
46347SOL    HW240881  13.538  12.927   6.496
46348SOL     OW40882  13.847   5.257   8.333
46348SOL    HW140883  13.884   5.345   8.331
46348SOL    HW240884  13.919   5.200   8.307
46349SOL     OW40885   5.163  10.033   2.883
46349SOL    HW140886   5.107  10.079   2.946
46349SOL    HW240887   5.246  10.079   2.887
46350SOL     OW40888   7.966   8.224  10.801
46350SOL    HW140889   7.948   8.168  10.726
46350SOL    HW240890   7.902   8.197  10.868
46351SOL     OW40891   5.001   7.159   8.421
46351SOL    HW140892   4.945   7.165   8.499
46351SOL    HW240893   5.035   7.069   8.424
46352SOL     OW40894   0.403  13.849   9.467
46352SOL    HW140895   0.372  13.759   9.477
46352SOL    HW240896   0.446  13.851   9.381
46353SOL     OW40897   1.284  14.605  10.304
46353SOL    HW140898   1.292  14.595  10.209
46353SOL    HW240899   1.356  14.662  10.329
46354SOL     OW40900   7.029   6.186   7.749
46354SOL    HW140901   7.104   6.142   7.790
46354SOL    HW240902   6.981   6.225   7.822
46355SOL     OW40903  12.284   1.367  12.846
46355SOL    HW140904  12.375   1.392  12.830
46355SOL    HW240905  12.284   1.330  12.935
46356SOL     OW40906  13.004  12.657   1.818
46356SOL    HW140907  12.968  12.569   1.815
46356SOL    HW240908  13.099  12.644   1.823
46357SOL     OW40909   9.834   1.828   8.356
46357SOL    HW140910   9.838   1.859   8.447
46357SOL    HW240911   9.894   1.884   8.308
46358SOL     OW40912  14.712  12.990   5.515
46358SOL    HW140913  14.729  12.920   5.577
46358SOL    HW240914  14.779  12.980   5.447
46359SOL     OW40915   9.892  10.474   7.544
46359SOL    HW140916   9.959  10.533   7.579
46359SOL    HW240917   9.855  10.521   7.469
46360SOL     OW40918  14.513   7.290   9.464
46360SOL    HW140919  14.487   7.236   9.538
46360SOL    HW240920  14.552   7.368   9.504
46361SOL     OW40921   5.942  11.697   0.789
46361SOL    HW140922   5.850  11.722   0.800
46361SOL    HW240923   5.976  11.689   0.879
46362SOL     OW40924   1.150   5.633  11.101
46362SOL    HW140925   1.225   5.632  11.041
46362SOL    HW240926   1.102   5.553  11.080
46363SOL     OW40927  14.649   7.049  11.824
46363SOL    HW140928  14.580   7.088  11.770
46363SOL    HW240929  14.707   7.006  11.762
46364SOL     OW40930   3.801   0.862   1.921
46364SOL    HW140931   3.814   0.948   1.960
46364SOL    HW240932   3.708   0.844   1.932
46365SOL     OW40933  11.532   6.584  13.271
46365SOL    HW140934  11.488   6.502  13.250
46365SOL    HW240935  11.485   6.618  13.347
46366SOL     OW40936   6.509  10.361   8.430
46366SOL    HW140937   6.438  10.425   8.437
46366SOL    HW240938   6.470  10.279   8.462
46367SOL     OW40939  12.936  13.092   2.400
46367SOL    HW140940  12.967  13.178   2.427
46367SOL    HW240941  12.876  13.108   2.328
46368SOL     OW40942   8.916   4.570  10.308
46368SOL    HW140943   8.885   4.527  10.228
46368SOL    HW240944   8.860   4.648  10.316
46369SOL     OW40945   1.540   2.761   2.574
46369SOL    HW140946   1.605   2.693   2.555
46369SOL    HW240947   1.457   2.722   2.546
46370SOL     OW40948   1.251   1.245  10.778
46370SOL    HW140949   1.187   1.315  10.786
46370SOL    HW240950   1.334   1.290  10.763
46371SOL     OW40951   4.106   3.448   6.607
46371SOL    HW140952   4.114   3.355   6.586
46371SOL    HW240953   4.134   3.455   6.698
46372SOL     OW40954   6.346  13.048   0.105
46372SOL    HW140955   6.250  13.050   0.108
46372SOL    HW240956   6.367  13.082   0.018
46373SOL     OW40957   9.852   7.737   5.741
46373SOL    HW140958   9.805   7.789   5.806
46373SOL    HW240959   9.906   7.677   5.792
46374SOL     OW40960   7.896   9.329   3.016
46374SOL    HW140961   7.915   9.312   3.108
46374SOL    HW240962   7.978   9.363   2.980
46375SOL     OW40963   7.529   9.646  11.200
46375SOL    HW140964   7.470   9.604  11.137
46375SOL    HW240965   7.612   9.600  11.189
46376SOL     OW40966   2.724   5.930   2.992
46376SOL    HW140967   2.718   5.977   3.075
46376SOL    HW240968   2.691   5.993   2.927
46377SOL     OW40969   5.951   0.453   2.652
46377SOL    HW140970   5.873   0.477   2.602
46377SOL    HW240971   5.960   0.359   2.639
46378SOL     OW40972   1.568   4.563  14.265
46378SOL    HW140973   1.499   4.498  14.250
46378SOL    HW240974   1.635   4.542  14.201
46379SOL     OW40975   0.523  12.068   9.120
46379SOL    HW140976   0.461  12.094   9.053
46379SOL    HW240977   0.589  12.138   9.120
46380SOL     OW40978  11.271   3.233   8.473
46380SOL    HW140979  11.249   3.300   8.538
46380SOL    HW240980  11.363   3.249   8.453
46381SOL     OW40981  11.526  13.592   5.968
46381SOL    HW140982  11.432  13.612   5.962
46381SOL    HW240983  11.567  13.650   5.905
46382SOL     OW40984   2.395   0.983   5.694
46382SOL    HW140985   2.336   1.039   5.644
46382SOL    HW240986   2.433   1.042   5.760
46383SOL     OW40987   9.546   8.038   9.503
46383SOL    HW140988   9.551   8.132   9.485
46383SOL    HW240989   9.627   8.019   9.551
46384SOL     OW40990  13.427  11.530   7.451
46384SOL    HW140991  13.357  11.550   7.389
46384SOL    HW240992  13.501  11.501   7.397
46385SOL     OW40993   9.787   9.923  13.582
46385SOL    HW140994   9.835   9.994  13.539
46385SOL    HW240995   9.786   9.852  13.518
46386SOL     OW40996   8.982   4.902  14.124
46386SOL    HW140997   9.012   4.986  14.089
46386SOL    HW240998   8.919   4.871  14.059
46387SOL     OW40999  12.325  14.072   7.478
46387SOL    HW141000  12.256  14.005   7.481
46387SOL    HW241001  12.382  14.047   7.406
46388SOL     OW41002   8.233  12.336  10.612
46388SOL    HW141003   8.257  12.425  10.635
46388SOL    HW241004   8.308  12.283  10.638
46389SOL     OW41005   7.748  12.487   2.194
46389SOL    HW141006   7.716  12.457   2.279
46389SOL    HW241007   7.804  12.417   2.162
46390SOL     OW41008   3.312  10.113   9.608
46390SOL    HW141009   3.339  10.150   9.692
46390SOL    HW241010   3.284  10.024   9.629
46391SOL     OW41011  14.529   8.205   6.969
46391SOL    HW141012  14.517   8.247   7.054
46391SOL    HW241013  14.585   8.129   6.987
46392SOL     OW41014   1.988  11.200   1.077
46392SOL    HW141015   2.065  11.217   1.131
46392SOL    HW241016   1.915  11.194   1.140
46393SOL     OW41017   0.237   9.277   4.776
46393SOL    HW141018   0.258   9.212   4.709
46393SOL    HW241019   0.320   9.296   4.819
46394SOL     OW41020   2.436   7.850  12.107
46394SOL    HW141021   2.388   7.882  12.183
46394SOL    HW241022   2.416   7.914  12.038
46395SOL     OW41023  12.334   2.513  10.142
46395SOL    HW141024  12.399   2.538  10.077
46395SOL    HW241025  12.347   2.419  10.155
46396SOL     OW41026  13.884   7.634   6.156
46396SOL    HW141027  13.858   7.699   6.091
46396SOL    HW241028  13.806   7.624   6.212
46397SOL     OW41029  10.895   9.223   5.145
46397SOL    HW141030  10.835   9.227   5.071
46397SOL    HW241031  10.917   9.130   5.153
46398SOL     OW41032   1.854  12.005   2.760
46398SOL    HW141033   1.774  11.960   2.734
46398SOL    HW241034   1.856  11.995   2.856
46399SOL     OW41035   9.987   4.719   3.685
46399SOL    HW141036   9.903   4.744   3.724
46399SOL    HW241037   9.990   4.623   3.693
46400SOL     OW41038  10.789   8.150   8.814
46400SOL    HW141039  10.781   8.243   8.794
46400SOL    HW241040  10.787   8.107   8.728
46401SOL     OW41041  12.130   5.963   9.887
46401SOL    HW141042  12.189   5.988   9.959
46401SOL    HW241043  12.115   6.044   9.839
46402SOL     OW41044   8.531  13.301   1.461
46402SOL    HW141045   8.555  13.260   1.544
46402SOL    HW241046   8.436  13.291   1.455
46403SOL     OW41047  11.517   8.114   0.633
46403SOL    HW141048  11.607   8.146   0.639
46403SOL    HW241049  11.525   8.021   0.614
46404SOL     OW41050  12.262  10.486   3.671
46404SOL    HW141051  12.224  10.398   3.663
46404SOL    HW241052  12.190  10.545   3.649
46405SOL     OW41053   6.509   2.406  14.682
46405SOL    HW141054   6.579   2.372  14.739
46405SOL    HW241055   6.431   2.407  14.738
46406SOL     OW41056  11.684  11.175   5.011
46406SOL    HW141057  11.757  11.122   4.978
46406SOL    HW241058  11.659  11.132   5.093
46407SOL     OW41059  11.585   0.527  14.256
46407SOL    HW141060  11.532   0.459  14.296
46407SOL    HW241061  11.609   0.492  14.170
46408SOL     OW41062  10.068   7.485   3.233
46408SOL    HW141063  10.010   7.495   3.308
46408SOL    HW241064  10.044   7.400   3.196
46409SOL     OW41065   2.996   3.608   4.383
46409SOL    HW141066   2.944   3.651   4.314
46409SOL    HW241067   3.076   3.581   4.339
46410SOL     OW41068   7.740   4.256   0.623
46410SOL    HW141069   7.683   4.201   0.569
46410SOL    HW241070   7.697   4.259   0.709
46411SOL     OW41071  11.272   1.729   8.085
46411SOL    HW141072  11.255   1.765   7.999
46411SOL    HW241073  11.303   1.803   8.137
46412SOL     OW41074   4.259  14.120   2.504
46412SOL    HW141075   4.284  14.208   2.532
46412SOL    HW241076   4.297  14.111   2.417
46413SOL     OW41077   0.373  11.318  12.209
46413SOL    HW141078   0.338  11.292  12.124
46413SOL    HW241079   0.442  11.253  12.228
46414SOL     OW41080  12.259   6.515   2.158
46414SOL    HW141081  12.232   6.494   2.248
46414SOL    HW241082  12.338   6.569   2.169
46415SOL     OW41083   7.004   0.597  13.243
46415SOL    HW141084   6.984   0.684  13.210
46415SOL    HW241085   7.023   0.545  13.165
46416SOL     OW41086   2.196   5.764   7.445
46416SOL    HW141087   2.215   5.769   7.539
46416SOL    HW241088   2.239   5.684   7.416
46417SOL     OW41089   4.708   2.018   5.691
46417SOL    HW141090   4.705   1.964   5.770
46417SOL    HW241091   4.617   2.021   5.661
46418SOL     OW41092   9.516   2.716   2.185
46418SOL    HW141093   9.476   2.785   2.238
46418SOL    HW241094   9.490   2.635   2.229
46419SOL     OW41095   3.728   3.513  14.345
46419SOL    HW141096   3.757   3.475  14.429
46419SOL    HW241097   3.791   3.583  14.327
46420SOL     OW41098   8.904  11.983   9.765
46420SOL    HW141099   8.980  11.977   9.708
46420SOL    HW241100   8.829  11.985   9.705
46421SOL     OW41101  14.253  14.317   9.583
46421SOL    HW141102  14.251  14.244   9.645
46421SOL    HW241103  14.189  14.380   9.618
46422SOL     OW41104   1.286  14.331   9.175
46422SOL    HW141105   1.291  14.401   9.109
46422SOL    HW241106   1.341  14.363   9.247
46423SOL     OW41107   6.936   8.418  14.614
46423SOL    HW141108   7.030   8.434  14.621
46423SOL    HW241109   6.908   8.393  14.702
46424SOL     OW41110  10.903   2.338   0.239
46424SOL    HW141111  10.998   2.354   0.243
46424SOL    HW241112  10.878   2.322   0.330
46425SOL     OW41113  11.440   1.299   2.058
46425SOL    HW141114  11.499   1.249   2.115
46425SOL    HW241115  11.353   1.265   2.079
46426SOL     OW41116  14.463  14.357   5.361
46426SOL    HW141117  14.406  14.291   5.321
46426SOL    HW241118  14.439  14.439   5.318
46427SOL     OW41119   5.857   0.927  11.353
46427SOL    HW141120   5.917   0.965  11.417
46427SOL    HW241121   5.816   1.002  11.310
46428SOL     OW41122   1.917  14.494  14.721
46428SOL    HW141123   1.874  14.416  14.758
46428SOL    HW241124   1.846  14.542  14.678
46429SOL     OW41125  11.480   4.328  14.623
46429SOL    HW141126  11.474   4.396  14.690
46429SOL    HW241127  11.400   4.338  14.572
46430SOL     OW41128   9.457   4.475   1.557
46430SOL    HW141129   9.375   4.427   1.542
46430SOL    HW241130   9.511   4.413   1.606
46431SOL     OW41131  10.437   8.600   9.276
46431SOL    HW141132  10.378   8.665   9.314
46431SOL    HW241133  10.400   8.583   9.189
46432SOL     OW41134  13.763  11.759   0.464
46432SOL    HW141135  13.793  11.801   0.544
46432SOL    HW241136  13.673  11.788   0.453
46433SOL     OW41137   9.730   0.943   2.355
46433SOL    HW141138   9.783   1.007   2.307
46433SOL    HW241139   9.771   0.859   2.336
46434SOL     OW41140   1.057   5.131   8.345
46434SOL    HW141141   1.019   5.216   8.366
46434SOL    HW241142   1.123   5.117   8.413
46435SOL     OW41143  12.394   5.221  14.592
46435SOL    HW141144  12.429   5.143  14.635
46435SOL    HW241145  12.400   5.290  14.658
46436SOL     OW41146   2.368   0.238  11.177
46436SOL    HW141147   2.303   0.168  11.175
46436SOL    HW241148   2.366   0.276  11.089
46437SOL     OW41149  10.015  13.236   3.178
46437SOL    HW141150  10.100  13.250   3.137
46437SOL    HW241151  10.007  13.140   3.185
46438SOL     OW41152  12.840   8.362  10.539
46438SOL    HW141153  12.770   8.379  10.476
46438SOL    HW241154  12.916   8.407  10.502
46439SOL     OW41155   5.024   2.178   8.962
46439SOL    HW141156   5.029   2.252   8.900
46439SOL    HW241157   5.115   2.151   8.973
46440SOL     OW41158   5.892   0.081   8.217
46440SOL    HW141159   5.809   0.076   8.264
46440SOL    HW241160   5.899  14.871   8.171
46441SOL     OW41161  14.379   4.054   8.634
46441SOL    HW141162  14.470   4.025   8.635
46441SOL    HW241163  14.347   4.032   8.546
46442SOL     OW41164  12.326   6.242   1.764
46442SOL    HW141165  12.405   6.242   1.709
46442SOL    HW241166  12.360   6.237   1.854
46443SOL     OW41167   2.400   4.984   8.121
46443SOL    HW141168   2.340   4.978   8.047
46443SOL    HW241169   2.424   5.077   8.125
46444SOL     OW41170  12.938  12.105   4.976
46444SOL    HW141171  12.915  12.194   5.000
46444SOL    HW241172  13.003  12.114   4.906
46445SOL     OW41173   0.952   3.548  14.583
46445SOL    HW141174   0.947   3.463  14.538
46445SOL    HW241175   0.939   3.527  14.675
46446SOL     OW41176   3.242  12.552  11.876
46446SOL    HW141177   3.203  12.467  11.898
46446SOL    HW241178   3.317  12.560  11.935
46447SOL     OW41179  14.818  11.576  12.140
46447SOL    HW141180  14.784  11.552  12.226
46447SOL    HW241181   0.011  11.511  12.121
46448SOL     OW41182  12.359  12.920  10.496
46448SOL    HW141183  12.336  12.986  10.561
46448SOL    HW241184  12.313  12.948  10.417
46449SOL     OW41185   3.960  10.792  10.152
46449SOL    HW141186   4.044  10.773  10.110
46449SOL    HW241187   3.895  10.783  10.083
46450SOL     OW41188   3.914   4.148   5.130
46450SOL    HW141189   3.984   4.093   5.166
46450SOL    HW241190   3.891   4.107   5.046
46451SOL     OW41191   1.022   8.285   1.200
46451SOL    HW141192   0.948   8.318   1.149
46451SOL    HW241193   1.099   8.313   1.151
46452SOL     OW41194   2.469   6.237   7.798
46452SOL    HW141195   2.388   6.282   7.775
46452SOL    HW241196   2.446   6.184   7.874
46453SOL     OW41197  12.369   5.125  12.384
46453SOL    HW141198  12.444   5.181  12.362
46453SOL    HW241199  12.301   5.186  12.411
46454SOL     OW41200   2.513   1.116   5.898
46454SOL    HW141201   2.577   1.188   5.895
46454SOL    HW241202   2.557   1.048   5.950
46455SOL     OW41203   3.515   9.754   7.711
46455SOL    HW141204   3.532   9.741   7.804
46455SOL    HW241205   3.497   9.847   7.703
46456SOL     OW41206   2.723   2.601  11.977
46456SOL    HW141207   2.667   2.557  11.913
46456SOL    HW241208   2.668   2.607  12.056
46457SOL     OW41209   5.230   7.608   1.547
46457SOL    HW141210   5.178   7.639   1.472
46457SOL    HW241211   5.170   7.552   1.596
46458SOL     OW41212   3.017  12.625  10.115
46458SOL    HW141213   3.046  12.600  10.028
46458SOL    HW241214   3.028  12.720  10.118
46459SOL     OW41215   7.669  10.178   6.715
46459SOL    HW141216   7.722  10.102   6.690
46459SOL    HW241217   7.732  10.238   6.755
46460SOL     OW41218  14.081   9.221   2.259
46460SOL    HW141219  14.072   9.257   2.171
46460SOL    HW241220  14.156   9.162   2.254
46461SOL     OW41221   0.407   6.197  13.264
46461SOL    HW141222   0.330   6.189  13.320
46461SOL    HW241223   0.460   6.265  13.305
46462SOL     OW41224   2.056   8.374   3.900
46462SOL    HW141225   2.087   8.372   3.991
46462SOL    HW241226   1.983   8.312   3.899
46463SOL     OW41227  12.101  14.428   6.750
46463SOL    HW141228  12.119  14.461   6.662
46463SOL    HW241229  12.076  14.506   6.800
46464SOL     OW41230   3.826   5.860   1.435
46464SOL    HW141231   3.759   5.794   1.422
46464SOL    HW241232   3.901   5.830   1.382
46465SOL     OW41233   5.536   0.015  11.672
46465SOL    HW141234   5.533  14.803  11.633
46465SOL    HW241235   5.456   0.058  11.644
46466SOL     OW41236   7.974  11.296   5.054
46466SOL    HW141237   7.887  11.286   5.015
46466SOL    HW241238   7.989  11.215   5.103
46467SOL     OW41239  12.754  13.825  11.034
46467SOL    HW141240  12.716  13.846  11.119
46467SOL    HW241241  12.685  13.843  10.971
46468SOL     OW41242   6.430   9.094  10.539
46468SOL    HW141243   6.435   9.139  10.623
46468SOL    HW241244   6.458   9.005  10.558
46469SOL     OW41245   6.186   4.298   0.353
46469SOL    HW141246   6.278   4.324   0.350
46469SOL    HW241247   6.149   4.328   0.270
46470SOL     OW41248   6.045   2.972   4.295
46470SOL    HW141249   6.082   2.890   4.328
46470SOL    HW241250   6.095   3.040   4.340
46471SOL     OW41251   2.302   2.939   8.649
46471SOL    HW141252   2.379   2.887   8.672
46471SOL    HW241253   2.280   2.986   8.729
46472SOL     OW41254  12.254   6.095  13.808
46472SOL    HW141255  12.301   6.054  13.880
46472SOL    HW241256  12.296   6.060  13.729
46473SOL     OW41257   5.625   0.517   4.888
46473SOL    HW141258   5.691   0.579   4.917
46473SOL    HW241259   5.584   0.485   4.968
46474SOL     OW41260  14.299   1.268   5.952
46474SOL    HW141261  14.293   1.362   5.934
46474SOL    HW241262  14.386   1.243   5.922
46475SOL     OW41263   0.404  11.222   1.401
46475SOL    HW141264   0.371  11.133   1.395
46475SOL    HW241265   0.328  11.275   1.425
46476SOL     OW41266  12.723  13.353   5.214
46476SOL    HW141267  12.725  13.276   5.157
46476SOL    HW241268  12.739  13.318   5.301
46477SOL     OW41269   2.553  11.501  13.006
46477SOL    HW141270   2.537  11.591  13.033
46477SOL    HW241271   2.466  11.465  12.990
46478SOL     OW41272   3.524   5.055  11.788
46478SOL    HW141273   3.508   5.147  11.804
46478SOL    HW241274   3.523   5.014  11.875
46479SOL     OW41275  12.817  13.508   0.711
46479SOL    HW141276  12.801  13.566   0.637
46479SOL    HW241277  12.731  13.473   0.733
46480SOL     OW41278   8.275  13.564  14.500
46480SOL    HW141279   8.362  13.543  14.466
46480SOL    HW241280   8.214  13.534  14.433
46481SOL     OW41281  14.212  12.448  14.242
46481SOL    HW141282  14.284  12.436  14.304
46481SOL    HW241283  14.170  12.530  14.270
46482SOL     OW41284  12.702  13.023   6.353
46482SOL    HW141285  12.796  13.040   6.359
46482SOL    HW241286  12.661  13.108   6.370
46483SOL     OW41287   5.358  14.812   9.272
46483SOL    HW141288   5.264  14.826   9.259
46483SOL    HW241289   5.379  14.861   9.352
46484SOL     OW41290   7.272   3.261  13.640
46484SOL    HW141291   7.310   3.280  13.725
46484SOL    HW241292   7.181   3.238  13.659
46485SOL     OW41293  14.221   8.842   8.541
46485SOL    HW141294  14.261   8.904   8.602
46485SOL    HW241295  14.127   8.860   8.545
46486SOL     OW41296  12.313   9.388   9.664
46486SOL    HW141297  12.344   9.375   9.575
46486SOL    HW241298  12.273   9.304   9.688
46487SOL     OW41299   9.357   3.753   6.071
46487SOL    HW141300   9.358   3.814   6.145
46487SOL    HW241301   9.282   3.696   6.087
46488SOL     OW41302   3.805  11.482   2.534
46488SOL    HW141303   3.851  11.546   2.589
46488SOL    HW241304   3.742  11.535   2.484
46489SOL     OW41305   2.396   2.629  12.606
46489SOL    HW141306   2.412   2.706  12.552
46489SOL    HW241307   2.460   2.635  12.677
46490SOL     OW41308   7.717   6.535  14.226
46490SOL    HW141309   7.783   6.554  14.159
46490SOL    HW241310   7.756   6.568  14.307
46491SOL     OW41311   0.343   9.363  10.510
46491SOL    HW141312   0.263   9.415  10.522
46491SOL    HW241313   0.359   9.324  10.596
46492SOL     OW41314  12.663   7.262  14.612
46492SOL    HW141315  12.574   7.279  14.644
46492SOL    HW241316  12.700   7.202  14.677
46493SOL     OW41317   9.856  14.381   9.552
46493SOL    HW141318   9.897  14.396   9.637
46493SOL    HW241319   9.870  14.288   9.535
46494SOL     OW41320   9.966   8.717   7.051
46494SOL    HW141321  10.023   8.793   7.039
46494SOL    HW241322   9.923   8.732   7.135
46495SOL     OW41323  13.161  12.457   7.048
46495SOL    HW141324  13.185  12.542   7.085
46495SOL    HW241325  13.169  12.396   7.122
46496SOL     OW41326   1.915   3.130   5.946
46496SOL    HW141327   1.969   3.206   5.925
46496SOL    HW241328   1.975   3.056   5.948
46497SOL     OW41329   1.252   0.631   3.750
46497SOL    HW141330   1.300   0.689   3.691
46497SOL    HW241331   1.315   0.563   3.773
46498SOL     OW41332  12.029   9.773   3.387
46498SOL    HW141333  11.977   9.828   3.328
46498SOL    HW241334  11.964   9.727   3.441
46499SOL     OW41335  13.202  12.126   9.244
46499SOL    HW141336  13.128  12.073   9.216
46499SOL    HW241337  13.250  12.144   9.163
46500SOL     OW41338   3.298   2.794   1.213
46500SOL    HW141339   3.213   2.815   1.176
46500SOL    HW241340   3.342   2.744   1.144
46501SOL     OW41341   4.429  14.269  13.954
46501SOL    HW141342   4.344  14.278  13.910
46501SOL    HW241343   4.470  14.355  13.944
46502SOL     OW41344  14.479  10.301   8.811
46502SOL    HW141345  14.469  10.341   8.725
46502SOL    HW241346  14.571  10.274   8.814
46503SOL     OW41347  11.722   1.286  13.871
46503SOL    HW141348  11.684   1.234  13.942
46503SOL    HW241349  11.816   1.286  13.889
46504SOL     OW41350   2.741   8.694  14.332
46504SOL    HW141351   2.708   8.692  14.422
46504SOL    HW241352   2.681   8.638  14.283
46505SOL     OW41353   8.805   0.725   1.267
46505SOL    HW141354   8.852   0.805   1.248
46505SOL    HW241355   8.753   0.707   1.188
46506SOL     OW41356   0.427   6.186   8.741
46506SOL    HW141357   0.364   6.257   8.751
46506SOL    HW241358   0.492   6.220   8.680
46507SOL     OW41359  11.403   5.584  14.760
46507SOL    HW141360  11.380   5.598  14.668
46507SOL    HW241361  11.393   5.671  14.800
46508SOL     OW41362   9.476   7.037  14.794
46508SOL    HW141363   9.526   7.051  14.713
46508SOL    HW241364   9.410   6.972  14.771
46509SOL     OW41365   8.803   7.840  13.017
46509SOL    HW141366   8.796   7.826  12.923
46509SOL    HW241367   8.811   7.752  13.054
46510SOL     OW41368  14.483   0.387   7.480
46510SOL    HW141369  14.418   0.412   7.546
46510SOL    HW241370  14.545   0.331   7.526
46511SOL     OW41371   7.836  13.553  11.344
46511SOL    HW141372   7.766  13.571  11.407
46511SOL    HW241373   7.791  13.535  11.262
46512SOL     OW41374  12.098   3.923   6.409
46512SOL    HW141375  12.036   3.902   6.479
46512SOL    HW241376  12.051   3.902   6.329
46513SOL     OW41377   0.181   1.542   4.195
46513SOL    HW141378   0.195   1.546   4.290
46513SOL    HW241379   0.126   1.464   4.183
46514SOL     OW41380   2.475   0.147   9.560
46514SOL    HW141381   2.481   0.237   9.529
46514SOL    HW241382   2.406   0.149   9.627
46515SOL     OW41383   7.532   0.825   4.361
46515SOL    HW141384   7.443   0.831   4.326
46515SOL    HW241385   7.532   0.886   4.435
46516SOL     OW41386   5.823   9.000   4.571
46516SOL    HW141387   5.881   9.076   4.576
46516SOL    HW241388   5.777   9.010   4.488
46517SOL     OW41389   5.766   7.899  10.637
46517SOL    HW141390   5.783   7.952  10.715
46517SOL    HW241391   5.839   7.837  10.633
46518SOL     OW41392   3.192  14.259   6.859
46518SOL    HW141393   3.154  14.346   6.866
46518SOL    HW241394   3.121  14.203   6.826
46519SOL     OW41395   1.099   1.068   5.447
46519SOL    HW141396   1.014   1.097   5.480
46519SOL    HW241397   1.136   1.145   5.404
46520SOL     OW41398  10.319   0.069   5.448
46520SOL    HW141399  10.382   0.137   5.473
46520SOL    HW241400  10.352   0.035   5.364
46521SOL     OW41401   5.945  12.967  13.304
46521SOL    HW141402   6.025  13.003  13.265
46521SOL    HW241403   5.977  12.908  13.373
46522SOL     OW41404   9.460  14.838   8.968
46522SOL    HW141405   9.444  14.796   8.883
46522SOL    HW241406   9.494   0.051   8.945
46523SOL     OW41407   1.848   8.501   4.727
46523SOL    HW141408   1.879   8.564   4.792
46523SOL    HW241409   1.801   8.554   4.662
46524SOL     OW41410  14.018   4.038   5.255
46524SOL    HW141411  14.067   4.109   5.212
46524SOL    HW241412  14.039   3.960   5.202
46525SOL     OW41413   5.473   0.799  10.271
46525SOL    HW141414   5.414   0.820  10.198
46525SOL    HW241415   5.559   0.791  10.230
46526SOL     OW41416   6.177   8.487   0.680
46526SOL    HW141417   6.269   8.489   0.708
46526SOL    HW241418   6.138   8.563   0.722
46527SOL     OW41419  14.089   0.238   9.207
46527SOL    HW141420  14.089   0.172   9.277
46527SOL    HW241421  14.062   0.319   9.250
46528SOL     OW41422  13.138   0.723   2.663
46528SOL    HW141423  13.079   0.656   2.697
46528SOL    HW241424  13.171   0.686   2.581
46529SOL     OW41425  13.545  13.505   0.877
46529SOL    HW141426  13.462  13.485   0.920
46529SOL    HW241427  13.533  13.479   0.786
46530SOL     OW41428   7.472   4.730   0.964
46530SOL    HW141429   7.514   4.723   0.879
46530SOL    HW241430   7.541   4.763   1.022
46531SOL     OW41431   3.151   8.109  10.157
46531SOL    HW141432   3.080   8.051  10.186
46531SOL    HW241433   3.181   8.071  10.075
46532SOL     OW41434   0.220   8.893   8.552
46532SOL    HW141435   0.216   8.859   8.641
46532SOL    HW241436   0.235   8.815   8.497
46533SOL     OW41437   1.635   7.204   9.255
46533SOL    HW141438   1.565   7.202   9.321
46533SOL    HW241439   1.716   7.198   9.305
46534SOL     OW41440   5.031   4.841  11.205
46534SOL    HW141441   4.980   4.919  11.228
46534SOL    HW241442   5.104   4.841  11.266
46535SOL     OW41443   3.327   9.840   5.546
46535SOL    HW141444   3.314   9.831   5.452
46535SOL    HW241445   3.239   9.837   5.583
46536SOL     OW41446   3.171   7.916   4.989
46536SOL    HW141447   3.240   7.957   5.041
46536SOL    HW241448   3.099   7.980   4.990
46537SOL     OW41449  12.609  12.848  11.063
46537SOL    HW141450  12.551  12.850  10.987
46537SOL    HW241451  12.671  12.778  11.043
46538SOL     OW41452   1.869   6.206   2.319
46538SOL    HW141453   1.808   6.227   2.390
46538SOL    HW241454   1.873   6.110   2.318
46539SOL     OW41455   0.874   9.502   7.370
46539SOL    HW141456   0.795   9.527   7.322
46539SOL    HW241457   0.903   9.583   7.411
46540SOL     OW41458  12.682   3.875   8.283
46540SOL    HW141459  12.699   3.868   8.189
46540SOL    HW241460  12.610   3.814   8.299
46541SOL     OW41461   3.091   3.176   4.072
46541SOL    HW141462   3.110   3.149   3.982
46541SOL    HW241463   3.177   3.179   4.114
46542SOL     OW41464   7.880  12.508  11.349
46542SOL    HW141465   7.939  12.579  11.323
46542SOL    HW241466   7.793  12.541  11.330
46543SOL     OW41467  14.553  10.151   6.081
46543SOL    HW141468  14.563  10.103   5.998
46543SOL    HW241469  14.485  10.102   6.128
46544SOL     OW41470   6.700   4.155   4.408
46544SOL    HW141471   6.711   4.148   4.314
46544SOL    HW241472   6.763   4.092   4.444
46545SOL     OW41473   2.638   8.434  14.227
46545SOL    HW141474   2.577   8.362  14.212
46545SOL    HW241475   2.693   8.435  14.148
46546SOL     OW41476  11.457  12.287   3.491
46546SOL    HW141477  11.544  12.302   3.529
46546SOL    HW241478  11.475  12.256   3.402
46547SOL     OW41479   2.411  12.731   9.269
46547SOL    HW141480   2.400  12.823   9.293
46547SOL    HW241481   2.347  12.684   9.322
46548SOL     OW41482   0.573   8.125   7.701
46548SOL    HW141483   0.515   8.057   7.668
46548SOL    HW241484   0.517   8.201   7.716
46549SOL     OW41485   2.198  13.434  13.970
46549SOL    HW141486   2.152  13.487  14.035
46549SOL    HW241487   2.191  13.483  13.889
46550SOL     OW41488   9.798  11.725  10.261
46550SOL    HW141489   9.851  11.659  10.306
46550SOL    HW241490   9.822  11.716  10.169
46551SOL     OW41491   1.871   9.952  12.017
46551SOL    HW141492   1.896   9.943  11.925
46551SOL    HW241493   1.932   9.895  12.063
46552SOL     OW41494   0.433   0.948   4.540
46552SOL    HW141495   0.349   0.918   4.504
46552SOL    HW241496   0.439   0.905   4.625
46553SOL     OW41497   1.086   4.083   3.156
46553SOL    HW141498   1.179   4.102   3.153
46553SOL    HW241499   1.054   4.105   3.069
46554SOL     OW41500  13.552   8.248   0.413
46554SOL    HW141501  13.594   8.333   0.428
46554SOL    HW241502  13.492   8.263   0.340
46555SOL     OW41503  14.433   7.008   3.380
46555SOL    HW141504  14.387   6.949   3.441
46555SOL    HW241505  14.391   7.093   3.392
46556SOL     OW41506   8.562   5.213  11.570
46556SOL    HW141507   8.633   5.265  11.607
46556SOL    HW241508   8.482   5.259  11.597
46557SOL     OW41509   0.672   6.106  12.976
46557SOL    HW141510   0.637   6.162  12.907
46557SOL    HW241511   0.670   6.018  12.939
46558SOL     OW41512   9.885  10.120   6.493
46558SOL    HW141513   9.902  10.028   6.511
46558SOL    HW241514   9.970  10.163   6.502
46559SOL     OW41515   9.043  10.795   8.894
46559SOL    HW141516   9.137  10.799   8.911
46559SOL    HW241517   9.004  10.787   8.981
46560SOL     OW41518  12.319   6.625   3.285
46560SOL    HW141519  12.346   6.688   3.352
46560SOL    HW241520  12.223   6.625   3.289
46561SOL     OW41521   2.306   7.830  10.251
46561SOL    HW141522   2.333   7.865  10.166
46561SOL    HW241523   2.222   7.872  10.269
46562SOL     OW41524   3.375   9.689   3.542
46562SOL    HW141525   3.287   9.724   3.530
46562SOL    HW241526   3.434   9.760   3.515
46563SOL     OW41527   2.823  14.470  11.665
46563SOL    HW141528   2.800  14.563  11.662
46563SOL    HW241529   2.884  14.462  11.738
46564SOL     OW41530  14.088   0.177  10.232
46564SOL    HW141531  14.176   0.175  10.271
46564SOL    HW241532  14.047   0.256  10.268
46565SOL     OW41533  12.428   6.489   0.199
46565SOL    HW141534  12.496   6.422   0.209
46565SOL    HW241535  12.365   6.450   0.138
46566SOL     OW41536  14.728  12.249  13.452
46566SOL    HW141537  14.700  12.245  13.543
46566SOL    HW241538  14.652  12.219  13.402
46567SOL     OW41539   8.518   5.858  12.453
46567SOL    HW141540   8.610   5.861  12.424
46567SOL    HW241541   8.469   5.893  12.378
46568SOL     OW41542   6.087  14.506   5.021
46568SOL    HW141543   6.152  14.446   4.984
46568SOL    HW241544   6.106  14.590   4.980
46569SOL     OW41545  13.725   1.845   1.153
46569SOL    HW141546  13.806   1.888   1.125
46569SOL    HW241547  13.683   1.818   1.071
46570SOL     OW41548  10.191   6.556   1.496
46570SOL    HW141549  10.211   6.462   1.504
46570SOL    HW241550  10.115   6.559   1.437
46571SOL     OW41551   2.316   5.639   2.096
46571SOL    HW141552   2.404   5.649   2.132
46571SOL    HW241553   2.267   5.591   2.163
46572SOL     OW41554   8.205   5.743  14.299
46572SOL    HW141555   8.285   5.690  14.292
46572SOL    HW241556   8.190   5.752  14.393
46573SOL     OW41557   1.230   4.745   7.343
46573SOL    HW141558   1.221   4.738   7.438
46573SOL    HW241559   1.155   4.696   7.309
46574SOL     OW41560  12.042  14.579  14.210
46574SOL    HW141561  12.134  14.552  14.207
46574SOL    HW241562  12.028  14.605  14.301
46575SOL     OW41563   3.712   6.810  14.283
46575SOL    HW141564   3.726   6.868  14.207
46575SOL    HW241565   3.742   6.861  14.358
46576SOL     OW41566   2.936   6.820   0.650
46576SOL    HW141567   3.015   6.854   0.691
46576SOL    HW241568   2.921   6.877   0.575
46577SOL     OW41569   1.935  12.124   4.432
46577SOL    HW141570   1.892  12.039   4.421
46577SOL    HW241571   1.880  12.170   4.495
46578SOL     OW41572  13.366  14.379   7.568
46578SOL    HW141573  13.452  14.351   7.536
46578SOL    HW241574  13.367  14.357   7.661
46579SOL     OW41575   4.937   2.765   9.813
46579SOL    HW141576   4.881   2.692   9.840
46579SOL    HW241577   4.985   2.789   9.893
46580SOL     OW41578   9.604   6.023   3.488
46580SOL    HW141579   9.600   6.009   3.393
46580SOL    HW241580   9.681   6.079   3.500
46581SOL     OW41581  11.997  11.505  12.044
46581SOL    HW141582  12.068  11.555  12.003
46581SOL    HW241583  11.988  11.543  12.131
46582SOL     OW41584  11.314   1.691   1.575
46582SOL    HW141585  11.372   1.629   1.618
46582SOL    HW241586  11.291   1.753   1.644
46583SOL     OW41587   0.285   5.276   4.923
46583SOL    HW141588   0.335   5.329   4.986
46583SOL    HW241589   0.347   5.208   4.895
46584SOL     OW41590   2.027   5.107   5.000
46584SOL    HW141591   1.957   5.085   5.060
46584SOL    HW241592   1.989   5.095   4.913
46585SOL     OW41593  12.458  12.899   1.629
46585SOL    HW141594  12.482  12.864   1.715
46585SOL    HW241595  12.542  12.922   1.589
46586SOL     OW41596   2.189  14.587  12.756
46586SOL    HW141597   2.196  14.607  12.850
46586SOL    HW241598   2.220  14.665  12.712
46587SOL     OW41599  10.202  10.920   1.166
46587SOL    HW141600  10.220  10.861   1.092
46587SOL    HW241601  10.221  10.868   1.244
46588SOL     OW41602   9.297  12.554  10.380
46588SOL    HW141603   9.213  12.579  10.341
46588SOL    HW241604   9.276  12.534  10.471
46589SOL     OW41605   0.786   3.629   2.090
46589SOL    HW141606   0.811   3.547   2.046
46589SOL    HW241607   0.692   3.622   2.102
46590SOL     OW41608  13.881   9.799   3.352
46590SOL    HW141609  13.863   9.889   3.326
46590SOL    HW241610  13.976   9.797   3.367
46591SOL     OW41611  13.127   3.867   1.870
46591SOL    HW141612  13.195   3.932   1.850
46591SOL    HW241613  13.101   3.832   1.785
46592SOL     OW41614  12.283   3.864  10.035
46592SOL    HW141615  12.315   3.789   9.986
46592SOL    HW241616  12.361   3.900  10.078
46593SOL     OW41617  13.822  13.041  13.210
46593SOL    HW141618  13.877  13.119  13.197
46593SOL    HW241619  13.860  12.975  13.153
46594SOL     OW41620  10.854   2.914  12.856
46594SOL    HW141621  10.837   2.911  12.762
46594SOL    HW241622  10.861   3.007  12.876
46595SOL     OW41623   8.670   3.034   9.521
46595SOL    HW141624   8.608   3.094   9.481
46595SOL    HW241625   8.648   2.949   9.485
46596SOL     OW41626   7.502  12.985   0.395
46596SOL    HW141627   7.564  12.916   0.418
46596SOL    HW241628   7.434  12.940   0.344
46597SOL     OW41629   0.795  11.411   0.483
46597SOL    HW141630   0.734  11.476   0.516
46597SOL    HW241631   0.756  11.327   0.508
46598SOL     OW41632   3.052  11.178  10.012
46598SOL    HW141633   3.144  11.153  10.006
46598SOL    HW241634   3.037  11.235   9.936
46599SOL     OW41635   2.473   7.267   9.657
46599SOL    HW141636   2.516   7.261   9.572
46599SOL    HW241637   2.420   7.347   9.652
46600SOL     OW41638   4.407   4.696  13.737
46600SOL    HW141639   4.457   4.742  13.804
46600SOL    HW241640   4.365   4.766  13.686
46601SOL     OW41641   9.140   5.597   1.129
46601SOL    HW141642   9.080   5.672   1.132
46601SOL    HW241643   9.226   5.635   1.147
46602SOL     OW41644  11.546   5.138   4.744
46602SOL    HW141645  11.620   5.126   4.804
46602SOL    HW241646  11.562   5.075   4.674
46603SOL     OW41647  10.172   5.805   1.512
46603SOL    HW141648  10.261   5.772   1.503
46603SOL    HW241649  10.158   5.860   1.435
46604SOL     OW41650   4.311   0.262   2.472
46604SOL    HW141651   4.344   0.352   2.481
46604SOL    HW241652   4.275   0.241   2.558
46605SOL     OW41653   8.066   0.240   7.864
46605SOL    HW141654   8.061   0.295   7.786
46605SOL    HW241655   7.984   0.259   7.911
46606SOL     OW41656   8.120  11.960  10.923
46606SOL    HW141657   8.104  11.869  10.897
46606SOL    HW241658   8.055  12.010  10.874
46607SOL     OW41659  14.614   9.294   2.839
46607SOL    HW141660  14.566   9.348   2.777
46607SOL    HW241661  14.682   9.351   2.874
46608SOL     OW41662   0.658   5.609   9.414
46608SOL    HW141663   0.636   5.589   9.505
46608SOL    HW241664   0.689   5.525   9.378
46609SOL     OW41665   3.350   6.748  13.857
46609SOL    HW141666   3.358   6.843  13.868
46609SOL    HW241667   3.328   6.716  13.945
46610SOL     OW41668  14.660   1.867  14.290
46610SOL    HW141669  14.734   1.912  14.331
46610SOL    HW241670  14.593   1.934  14.280
46611SOL     OW41671   4.531   8.731  11.108
46611SOL    HW141672   4.550   8.825  11.114
46611SOL    HW241673   4.506   8.718  11.016
46612SOL     OW41674  14.624   1.119   6.774
46612SOL    HW141675  14.613   1.200   6.824
46612SOL    HW241676  14.572   1.132   6.695
46613SOL     OW41677   5.067   4.450   8.181
46613SOL    HW141678   5.068   4.534   8.135
46613SOL    HW241679   5.127   4.394   8.131
46614SOL     OW41680  10.669   8.115   7.787
46614SOL    HW141681  10.673   8.054   7.861
46614SOL    HW241682  10.757   8.153   7.783
46615SOL     OW41683  14.472   1.423  11.393
46615SOL    HW141684  14.397   1.367  11.371
46615SOL    HW241685  14.517   1.435  11.309
46616SOL     OW41686   3.442   2.076  10.386
46616SOL    HW141687   3.395   2.137  10.442
46616SOL    HW241688   3.392   1.995  10.390
46617SOL     OW41689  11.258   9.814  13.424
46617SOL    HW141690  11.173   9.813  13.381
46617SOL    HW241691  11.306   9.886  13.382
46618SOL     OW41692  10.240   1.170   8.783
46618SOL    HW141693  10.250   1.201   8.693
46618SOL    HW241694  10.146   1.153   8.792
46619SOL     OW41695   3.921  11.534  11.877
46619SOL    HW141696   3.997  11.494  11.835
46619SOL    HW241697   3.904  11.613  11.826
46620SOL     OW41698  13.099   8.354   1.651
46620SOL    HW141699  13.193   8.366   1.634
46620SOL    HW241700  13.069   8.440   1.680
46621SOL     OW41701   1.907   4.796   9.616
46621SOL    HW141702   1.843   4.738   9.657
46621SOL    HW241703   1.990   4.749   9.622
46622SOL     OW41704   0.504   5.908   2.543
46622SOL    HW141705   0.555   5.839   2.584
46622SOL    HW241706   0.544   5.920   2.457
46623SOL     OW41707   8.777   6.865   1.664
46623SOL    HW141708   8.701   6.809   1.650
46623SOL    HW241709   8.852   6.810   1.639
46624SOL     OW41710  11.702   4.372   8.379
46624SOL    HW141711  11.739   4.417   8.455
46624SOL    HW241712  11.768   4.382   8.311
46625SOL     OW41713   0.609   2.951  11.823
46625SOL    HW141714   0.592   2.867  11.867
46625SOL    HW241715   0.532   2.965  11.768
46626SOL     OW41716   3.734   2.463   2.300
46626SOL    HW141717   3.822   2.445   2.334
46626SOL    HW241718   3.675   2.414   2.358
46627SOL     OW41719  13.313   6.320   8.840
46627SOL    HW141720  13.225   6.282   8.837
46627SOL    HW241721  13.304   6.396   8.899
46628SOL     OW41722   7.789  10.895   6.833
46628SOL    HW141723   7.741  10.971   6.801
46628SOL    HW241724   7.846  10.870   6.759
46629SOL     OW41725   0.740  13.848   6.920
46629SOL    HW141726   0.758  13.941   6.929
46629SOL    HW241727   0.661  13.844   6.866
46630SOL     OW41728  11.565   5.946  11.549
46630SOL    HW141729  11.475   5.946  11.515
46630SOL    HW241730  11.613   5.889  11.490
46631SOL     OW41731  12.667  14.026   9.032
46631SOL    HW141732  12.683  14.097   8.971
46631SOL    HW241733  12.640  13.952   8.977
46632SOL     OW41734   0.964  12.436  12.796
46632SOL    HW141735   0.963  12.348  12.758
46632SOL    HW241736   0.917  12.427  12.879
46633SOL     OW41737   9.031   2.141   9.705
46633SOL    HW141738   8.966   2.152   9.775
46633SOL    HW241739   9.110   2.113   9.749
46634SOL     OW41740   0.853   7.119  12.992
46634SOL    HW141741   0.891   7.143  12.907
46634SOL    HW241742   0.929   7.098  13.047
46635SOL     OW41743   7.977   8.108  14.797
46635SOL    HW141744   7.964   8.013  14.803
46635SOL    HW241745   8.064   8.118  14.758
46636SOL     OW41746  12.215  11.377   2.793
46636SOL    HW141747  12.158  11.353   2.720
46636SOL    HW241748  12.178  11.458   2.828
46637SOL     OW41749   4.041  13.635  14.208
46637SOL    HW141750   4.003  13.580  14.276
46637SOL    HW241751   3.990  13.716  14.210
46638SOL     OW41752  11.857   7.067   2.287
46638SOL    HW141753  11.812   7.089   2.206
46638SOL    HW241754  11.933   7.125   2.289
46639SOL     OW41755  13.900   3.075  11.674
46639SOL    HW141756  13.965   3.050  11.740
46639SOL    HW241757  13.932   3.036  11.593
46640SOL     OW41758  13.867   5.996   2.710
46640SOL    HW141759  13.844   5.984   2.618
46640SOL    HW241760  13.962   5.982   2.713
46641SOL     OW41761   5.233   2.282   4.733
46641SOL    HW141762   5.183   2.208   4.700
46641SOL    HW241763   5.325   2.257   4.722
46642SOL     OW41764   9.556  14.262   8.828
46642SOL    HW141765   9.541  14.174   8.793
46642SOL    HW241766   9.583  14.248   8.918
46643SOL     OW41767   5.844   0.024  10.758
46643SOL    HW141768   5.847  14.821  10.701
46643SOL    HW241769   5.856  14.863  10.846
46644SOL     OW41770   3.512   8.996   2.786
46644SOL    HW141771   3.580   8.932   2.807
46644SOL    HW241772   3.435   8.966   2.834
46645SOL     OW41773   3.785  13.204   9.339
46645SOL    HW141774   3.721  13.209   9.267
46645SOL    HW241775   3.863  13.247   9.304
46646SOL     OW41776   9.079  11.711  14.139
46646SOL    HW141777   8.992  11.746  14.122
46646SOL    HW241778   9.067  11.648  14.210
46647SOL     OW41779   1.439  13.013  13.343
46647SOL    HW141780   1.428  13.043  13.433
46647SOL    HW241781   1.367  13.053  13.295
46648SOL     OW41782  13.162   8.227   1.919
46648SOL    HW141783  13.184   8.210   1.827
46648SOL    HW241784  13.245   8.217   1.966
46649SOL     OW41785   2.083   6.028   1.063
46649SOL    HW141786   2.020   5.973   1.110
46649SOL    HW241787   2.030   6.081   1.004
46650SOL     OW41788   2.800   2.364   9.824
46650SOL    HW141789   2.792   2.289   9.882
46650SOL    HW241790   2.715   2.408   9.829
46651SOL     OW41791  12.978  14.243   7.344
46651SOL    HW141792  13.033  14.261   7.267
46651SOL    HW241793  12.888  14.251   7.311
46652SOL     OW41794   7.472  11.871   6.112
46652SOL    HW141795   7.421  11.936   6.159
46652SOL    HW241796   7.554  11.915   6.090
46653SOL     OW41797   0.054   3.651   7.996
46653SOL    HW141798   0.129   3.646   7.937
46653SOL    HW241799  14.853   3.633   7.940
46654SOL     OW41800   8.621  13.993   6.148
46654SOL    HW141801   8.650  14.033   6.230
46654SOL    HW241802   8.687  14.021   6.084
46655SOL     OW41803   7.826   6.050   6.088
46655SOL    HW141804   7.846   6.053   5.994
46655SOL    HW241805   7.732   6.033   6.092
46656SOL     OW41806   6.898   9.073   3.524
46656SOL    HW141807   6.928   9.003   3.466
46656SOL    HW241808   6.945   9.060   3.606
46657SOL     OW41809  13.928   5.410  12.772
46657SOL    HW141810  13.994   5.479  12.782
46657SOL    HW241811  13.850   5.457  12.741
46658SOL     OW41812   3.876   2.927  11.546
46658SOL    HW141813   3.914   2.959  11.464
46658SOL    HW241814   3.947   2.882  11.590
46659SOL     OW41815  10.400   4.993  11.183
46659SOL    HW141816  10.389   5.059  11.115
46659SOL    HW241817  10.437   4.917  11.138
46660SOL     OW41818   6.767  13.066   3.312
46660SOL    HW141819   6.763  12.985   3.261
46660SOL    HW241820   6.698  13.057   3.377
46661SOL     OW41821  12.448   1.537  13.585
46661SOL    HW141822  12.429   1.546  13.491
46661SOL    HW241823  12.453   1.443  13.599
46662SOL     OW41824  10.855  12.341   9.075
46662SOL    HW141825  10.835  12.428   9.040
46662SOL    HW241826  10.769  12.302   9.092
46663SOL     OW41827  10.640   9.456   2.585
46663SOL    HW141828  10.716   9.455   2.527
46663SOL    HW241829  10.586   9.528   2.552
46664SOL     OW41830   9.186   9.767   7.017
46664SOL    HW141831   9.278   9.778   6.993
46664SOL    HW241832   9.180   9.676   7.047
46665SOL     OW41833   1.554   1.745   0.205
46665SOL    HW141834   1.460   1.728   0.209
46665SOL    HW241835   1.594   1.658   0.202
46666SOL     OW41836   5.011   7.481   3.438
46666SOL    HW141837   4.947   7.552   3.440
46666SOL    HW241838   5.019   7.454   3.530
46667SOL     OW41839   4.020  13.085   6.939
46667SOL    HW141840   4.070  13.167   6.945
46667SOL    HW241841   3.928  13.113   6.944
46668SOL     OW41842   9.468   9.686   6.959
46668SOL    HW141843   9.416   9.608   6.978
46668SOL    HW241844   9.536   9.656   6.898
46669SOL     OW41845  11.932   4.948   0.978
46669SOL    HW141846  11.916   4.978   0.888
46669SOL    HW241847  12.007   5.000   1.007
46670SOL     OW41848   2.292  12.013   4.715
46670SOL    HW141849   2.280  11.962   4.636
46670SOL    HW241850   2.364  11.970   4.762
46671SOL     OW41851  14.522   5.782   1.589
46671SOL    HW141852  14.432   5.752   1.596
46671SOL    HW241853  14.569   5.707   1.551
46672SOL     OW41854   0.465  10.526   6.509
46672SOL    HW141855   0.398  10.500   6.446
46672SOL    HW241856   0.531  10.572   6.456
46673SOL     OW41857  10.224  11.327   8.571
46673SOL    HW141858  10.280  11.400   8.597
46673SOL    HW241859  10.237  11.320   8.476
46674SOL     OW41860   1.809  13.701   2.559
46674SOL    HW141861   1.799  13.614   2.520
46674SOL    HW241862   1.786  13.688   2.651
46675SOL     OW41863  10.943  14.741   5.188
46675SOL    HW141864  10.870  14.737   5.251
46675SOL    HW241865  11.015  14.778   5.239
46676SOL     OW41866  11.461   4.049   1.112
46676SOL    HW141867  11.436   3.957   1.105
46676SOL    HW241868  11.386   4.091   1.154
46677SOL     OW41869   5.013   9.230   7.495
46677SOL    HW141870   4.932   9.192   7.462
46677SOL    HW241871   5.065   9.154   7.524
46678SOL     OW41872   2.261   0.253   0.898
46678SOL    HW141873   2.194   0.243   0.965
46678SOL    HW241874   2.325   0.313   0.936
46679SOL     OW41875  11.272  13.753   0.587
46679SOL    HW141876  11.265  13.832   0.640
46679SOL    HW241877  11.182  13.728   0.568
46680SOL     OW41878   7.787   5.237   4.971
46680SOL    HW141879   7.863   5.181   4.954
46680SOL    HW241880   7.712   5.178   4.960
46681SOL     OW41881  13.356  10.876  12.049
46681SOL    HW141882  13.339  10.946  12.112
46681SOL    HW241883  13.409  10.917  11.981
46682SOL     OW41884   6.742  10.440   8.281
46682SOL    HW141885   6.753  10.383   8.205
46682SOL    HW241886   6.680  10.394   8.337
46683SOL     OW41887   3.712   4.710   8.519
46683SOL    HW141888   3.764   4.700   8.598
46683SOL    HW241889   3.776   4.730   8.450
46684SOL     OW41890   5.587   9.867   1.489
46684SOL    HW141891   5.492   9.851   1.490
46684SOL    HW241892   5.623   9.794   1.540
46685SOL     OW41893   3.547   6.687  13.502
46685SOL    HW141894   3.623   6.711  13.554
46685SOL    HW241895   3.564   6.597  13.475
46686SOL     OW41896   1.298  10.023   6.856
46686SOL    HW141897   1.351   9.981   6.924
46686SOL    HW241898   1.341  10.107   6.841
46687SOL     OW41899   5.439   4.507   6.369
46687SOL    HW141900   5.435   4.584   6.312
46687SOL    HW241901   5.531   4.500   6.394
46688SOL     OW41902   6.034   4.730  12.056
46688SOL    HW141903   6.035   4.752  12.149
46688SOL    HW241904   6.123   4.701  12.037
46689SOL     OW41905  12.413   5.763   1.309
46689SOL    HW141906  12.441   5.790   1.221
46689SOL    HW241907  12.318   5.757   1.303
46690SOL     OW41908  10.914   0.486   0.063
46690SOL    HW141909  10.870   0.417   0.013
46690SOL    HW241910  11.005   0.456   0.069
46691SOL     OW41911   1.427   8.084  11.592
46691SOL    HW141912   1.437   7.997  11.632
46691SOL    HW241913   1.438   8.068  11.498
46692SOL     OW41914   4.902   4.879   2.981
46692SOL    HW141915   4.930   4.837   2.900
46692SOL    HW241916   4.984   4.905   3.024
46693SOL     OW41917   8.873  13.601   4.867
46693SOL    HW141918   8.864  13.519   4.818
46693SOL    HW241919   8.861  13.670   4.802
46694SOL     OW41920   5.086   8.195   6.834
46694SOL    HW141921   5.139   8.259   6.786
46694SOL    HW241922   5.139   8.174   6.911
46695SOL     OW41923   5.724  14.493   3.556
46695SOL    HW141924   5.818  14.478   3.548
46695SOL    HW241925   5.710  14.578   3.515
46696SOL     OW41926  13.104   3.488  10.806
46696SOL    HW141927  13.182   3.436  10.785
46696SOL    HW241928  13.063   3.442  10.879
46697SOL     OW41929  14.845   5.482  11.966
46697SOL    HW141930  14.769   5.462  12.021
46697SOL    HW241931   0.046   5.469  12.024
46698SOL     OW41932   5.082   0.150  10.683
46698SOL    HW141933   5.169   0.185  10.702
46698SOL    HW241934   5.033   0.226  10.651
46699SOL     OW41935   3.211   3.693   0.700
46699SOL    HW141936   3.156   3.755   0.652
46699SOL    HW241937   3.221   3.619   0.641
46700SOL     OW41938  13.184  10.214   6.346
46700SOL    HW141939  13.243  10.288   6.328
46700SOL    HW241940  13.127  10.210   6.270
46701SOL     OW41941  10.210   7.944   0.266
46701SOL    HW141942  10.144   7.998   0.308
46701SOL    HW241943  10.228   7.874   0.329
46702SOL     OW41944  12.387  11.296   9.947
46702SOL    HW141945  12.448  11.251  10.005
46702SOL    HW241946  12.320  11.231   9.928
46703SOL     OW41947  14.612  10.836   1.650
46703SOL    HW141948  14.592  10.746   1.674
46703SOL    HW241949  14.603  10.838   1.555
46704SOL     OW41950   4.707   8.784  12.224
46704SOL    HW141951   4.687   8.865  12.177
46704SOL    HW241952   4.663   8.715  12.175
46705SOL     OW41953   4.603   8.217   7.984
46705SOL    HW141954   4.573   8.141   7.935
46705SOL    HW241955   4.680   8.187   8.032
46706SOL     OW41956   2.177  11.397   5.693
46706SOL    HW141957   2.237  11.471   5.699
46706SOL    HW241958   2.178  11.372   5.600
46707SOL     OW41959   5.242   4.458   3.690
46707SOL    HW141960   5.243   4.440   3.597
46707SOL    HW241961   5.206   4.547   3.697
46708SOL     OW41962   3.044   3.048   7.971
46708SOL    HW141963   3.069   2.964   8.008
46708SOL    HW241964   2.950   3.041   7.955
46709SOL     OW41965   1.724  11.556  14.132
46709SOL    HW141966   1.648  11.553  14.073
46709SOL    HW241967   1.709  11.484  14.193
46710SOL     OW41968  11.247   2.632   0.938
46710SOL    HW141969  11.283   2.671   0.858
46710SOL    HW241970  11.213   2.547   0.910
46711SOL     OW41971   1.235   2.517   3.577
46711SOL    HW141972   1.166   2.468   3.532
46711SOL    HW241973   1.208   2.608   3.569
46712SOL     OW41974   5.129   8.557   3.197
46712SOL    HW141975   5.113   8.569   3.104
46712SOL    HW241976   5.045   8.580   3.238
46713SOL     OW41977   6.466   9.843   6.043
46713SOL    HW141978   6.542   9.807   6.088
46713SOL    HW241979   6.488   9.935   6.029
46714SOL     OW41980  12.734  14.500  14.542
46714SOL    HW141981  12.724  14.594  14.528
46714SOL    HW241982  12.816  14.478  14.498
46715SOL     OW41983   8.578   2.249   8.237
46715SOL    HW141984   8.592   2.343   8.251
46715SOL    HW241985   8.609   2.233   8.148
46716SOL     OW41986   7.697   8.186  10.089
46716SOL    HW141987   7.786   8.203  10.056
46716SOL    HW241988   7.669   8.108  10.042
46717SOL     OW41989   2.794  10.835   3.501
46717SOL    HW141990   2.764  10.763   3.556
46717SOL    HW241991   2.879  10.860   3.538
46718SOL     OW41992   8.173  11.660  12.857
46718SOL    HW141993   8.165  11.729  12.791
46718SOL    HW241994   8.150  11.580  12.811
46719SOL     OW41995   2.224   4.526   1.364
46719SOL    HW141996   2.240   4.502   1.272
46719SOL    HW241997   2.292   4.481   1.413
46720SOL     OW41998   2.535   8.556   9.125
46720SOL    HW141999   2.503   8.475   9.085
46720SOL    HW242000   2.585   8.599   9.055
46721SOL     OW42001  10.725   1.574  11.674
46721SOL    HW142002  10.715   1.603  11.765
46721SOL    HW242003  10.746   1.654  11.626
46722SOL     OW42004   1.611  10.676   5.660
46722SOL    HW142005   1.658  10.750   5.699
46722SOL    HW242006   1.624  10.604   5.722
46723SOL     OW42007  10.763   8.175  13.319
46723SOL    HW142008  10.847   8.222  13.322
46723SOL    HW242009  10.719   8.212  13.242
46724SOL     OW42010   5.042   4.960   6.478
46724SOL    HW142011   5.111   5.005   6.526
46724SOL    HW242012   5.044   4.998   6.390
46725SOL     OW42013  11.374  12.408   3.082
46725SOL    HW142014  11.360  12.463   3.006
46725SOL    HW242015  11.402  12.468   3.151
46726SOL     OW42016   2.688  13.131   3.221
46726SOL    HW142017   2.725  13.219   3.229
46726SOL    HW242018   2.763  13.076   3.198
46727SOL     OW42019   9.783   0.004   5.520
46727SOL    HW142020   9.788   0.071   5.588
46727SOL    HW242021   9.811  14.798   5.563
46728SOL     OW42022  11.608   4.020   2.386
46728SOL    HW142023  11.541   4.043   2.322
46728SOL    HW242024  11.690   4.020   2.336
46729SOL     OW42025   4.514  12.197   2.557
46729SOL    HW142026   4.567  12.129   2.515
46729SOL    HW242027   4.567  12.276   2.552
46730SOL     OW42028  14.463   0.025   1.321
46730SOL    HW142029  14.411   0.105   1.317
46730SOL    HW242030  14.502   0.027   1.409
46731SOL     OW42031   9.763  13.440  14.460
46731SOL    HW142032   9.700  13.378  14.497
46731SOL    HW242033   9.842  13.388  14.445
46732SOL     OW42034  13.097   7.556   9.753
46732SOL    HW142035  13.106   7.461   9.754
46732SOL    HW242036  13.176   7.589   9.797
46733SOL     OW42037  13.792   7.843   5.989
46733SOL    HW142038  13.737   7.819   5.914
46733SOL    HW242039  13.750   7.922   6.024
46734SOL     OW42040   4.748   1.884   0.884
46734SOL    HW142041   4.661   1.850   0.905
46734SOL    HW242042   4.748   1.892   0.788
46735SOL     OW42043   6.462   9.383   6.329
46735SOL    HW142044   6.396   9.412   6.266
46735SOL    HW242045   6.494   9.300   6.293
46736SOL     OW42046   0.955   8.258  12.270
46736SOL    HW142047   0.862   8.258  12.292
46736SOL    HW242048   0.956   8.266  12.174
46737SOL     OW42049   5.714   3.004  14.532
46737SOL    HW142050   5.774   2.957  14.474
46737SOL    HW242051   5.657   2.936  14.568
46738SOL     OW42052   0.113   3.921   0.509
46738SOL    HW142053   0.106   3.885   0.598
46738SOL    HW242054   0.065   4.003   0.513
46739SOL     OW42055   4.546  13.539   3.802
46739SOL    HW142056   4.525  13.630   3.823
46739SOL    HW242057   4.640  13.539   3.786
46740SOL     OW42058   7.134   2.003   2.771
46740SOL    HW142059   7.107   1.917   2.739
46740SOL    HW242060   7.193   1.984   2.844
46741SOL     OW42061   7.770   5.154  10.051
46741SOL    HW142062   7.783   5.062  10.073
46741SOL    HW242063   7.676   5.161  10.033
46742SOL     OW42064   9.338   8.064   4.225
46742SOL    HW142065   9.252   8.031   4.199
46742SOL    HW242066   9.320   8.125   4.296
46743SOL     OW42067   9.674   5.353   2.760
46743SOL    HW142068   9.725   5.421   2.805
46743SOL    HW242069   9.612   5.323   2.825
46744SOL     OW42070   9.089  14.643  11.222
46744SOL    HW142071   9.130  14.558  11.206
46744SOL    HW242072   9.147  14.706  11.180
46745SOL     OW42073  12.794   9.100   7.488
46745SOL    HW142074  12.774   9.035   7.420
46745SOL    HW242075  12.888   9.090   7.504
46746SOL     OW42076   5.774   1.505   3.646
46746SOL    HW142077   5.829   1.468   3.578
46746SOL    HW242078   5.762   1.596   3.620
46747SOL     OW42079   6.373   4.793  12.689
46747SOL    HW142080   6.283   4.807  12.717
46747SOL    HW242081   6.422   4.865  12.729
46748SOL     OW42082   2.714   1.015  10.076
46748SOL    HW142083   2.773   0.943  10.054
46748SOL    HW242084   2.717   1.021  10.171
46749SOL     OW42085   9.634   5.227   5.027
46749SOL    HW142086   9.550   5.274   5.023
46749SOL    HW242087   9.657   5.228   5.119
46750SOL     OW42088   5.700   9.118   7.492
46750SOL    HW142089   5.749   9.190   7.531
46750SOL    HW242090   5.765   9.047   7.484
46751SOL     OW42091  10.576   1.527   3.725
46751SOL    HW142092  10.499   1.558   3.772
46751SOL    HW242093  10.543   1.489   3.644
46752SOL     OW42094   0.386   4.725  10.851
46752SOL    HW142095   0.378   4.821  10.850
46752SOL    HW242096   0.317   4.696  10.792
46753SOL     OW42097  11.815   4.666   4.499
46753SOL    HW142098  11.904   4.635   4.517
46753SOL    HW242099  11.808   4.664   4.403
46754SOL     OW42100   3.272  14.454   1.748
46754SOL    HW142101   3.359  14.448   1.707
46754SOL    HW242102   3.262  14.546   1.771
46755SOL     OW42103   2.273   3.450   5.101
46755SOL    HW142104   2.365   3.443   5.126
46755SOL    HW242105   2.256   3.544   5.100
46756SOL     OW42106   6.550  13.740   6.232
46756SOL    HW142107   6.484  13.789   6.282
46756SOL    HW242108   6.629  13.745   6.286
46757SOL     OW42109   3.210   6.488  13.716
46757SOL    HW142110   3.237   6.579  13.709
46757SOL    HW242111   3.286   6.438  13.683
46758SOL     OW42112   7.783  12.382   1.867
46758SOL    HW142113   7.832  12.308   1.831
46758SOL    HW242114   7.848  12.453   1.874
46759SOL     OW42115  10.546  14.641  10.991
46759SOL    HW142116  10.534  14.557  11.035
46759SOL    HW242117  10.501  14.704  11.046
46760SOL     OW42118   8.721   4.268   8.204
46760SOL    HW142119   8.816   4.284   8.209
46760SOL    HW242120   8.713   4.192   8.147
46761SOL     OW42121  10.753  11.882   1.317
46761SOL    HW142122  10.842  11.915   1.321
46761SOL    HW242123  10.739  11.839   1.402
46762SOL     OW42124   2.367  11.027   5.248
46762SOL    HW142125   2.452  10.984   5.238
46762SOL    HW242126   2.365  11.055   5.339
46763SOL     OW42127  11.325   6.625   4.822
46763SOL    HW142128  11.350   6.687   4.890
46763SOL    HW242129  11.404   6.572   4.807
46764SOL     OW42130   0.701   8.812  12.474
46764SOL    HW142131   0.793   8.836  12.481
46764SOL    HW242132   0.658   8.890  12.439
46765SOL     OW42133   1.768   6.934   0.368
46765SOL    HW142134   1.845   6.879   0.386
46765SOL    HW242135   1.693   6.878   0.392
46766SOL     OW42136   7.891  12.861   9.202
46766SOL    HW142137   7.914  12.819   9.119
46766SOL    HW242138   7.883  12.954   9.181
46767SOL     OW42139  11.411   3.090   2.012
46767SOL    HW142140  11.496   3.068   2.050
46767SOL    HW242141  11.428   3.096   1.918
46768SOL     OW42142   0.889  12.219   0.123
46768SOL    HW142143   0.878  12.134   0.080
46768SOL    HW242144   0.886  12.200   0.217
46769SOL     OW42145   0.311  12.261   1.277
46769SOL    HW142146   0.340  12.269   1.368
46769SOL    HW242147   0.354  12.334   1.232
46770SOL     OW42148   3.552   6.039   0.101
46770SOL    HW142149   3.611   5.978   0.145
46770SOL    HW242150   3.599   6.122   0.101
46771SOL     OW42151   2.019  14.017   8.284
46771SOL    HW142152   2.071  14.007   8.204
46771SOL    HW242153   2.084  14.038   8.352
46772SOL     OW42154   3.317   0.240   6.712
46772SOL    HW142155   3.392   0.277   6.758
46772SOL    HW242156   3.255   0.312   6.705
46773SOL     OW42157   0.023   7.189   1.460
46773SOL    HW142158  14.851   7.173   1.379
46773SOL    HW242159   0.114   7.167   1.441
46774SOL     OW42160  12.415  13.690   7.414
46774SOL    HW142161  12.419  13.783   7.394
46774SOL    HW242162  12.390  13.648   7.331
46775SOL     OW42163   7.442   9.683   6.166
46775SOL    HW142164   7.429   9.596   6.205
46775SOL    HW242165   7.482   9.665   6.081
46776SOL     OW42166  13.074  11.013   8.946
46776SOL    HW142167  13.034  11.062   8.873
46776SOL    HW242168  13.000  10.989   9.002
46777SOL     OW42169   9.467  11.717   2.634
46777SOL    HW142170   9.400  11.653   2.609
46777SOL    HW242171   9.428  11.766   2.706
46778SOL     OW42172  11.470   4.077   6.316
46778SOL    HW142173  11.486   4.129   6.238
46778SOL    HW242174  11.517   3.994   6.300
46779SOL     OW42175   0.051   8.432  10.975
46779SOL    HW142176   0.082   8.342  10.985
46779SOL    HW242177   0.030   8.440  10.882
46780SOL     OW42178  12.396   3.506  13.177
46780SOL    HW142179  12.393   3.508  13.081
46780SOL    HW242180  12.366   3.418  13.200
46781SOL     OW42181  14.142  12.497   7.122
46781SOL    HW142182  14.109  12.515   7.209
46781SOL    HW242183  14.116  12.573   7.069
46782SOL     OW42184  13.023   8.332   0.135
46782SOL    HW142185  12.969   8.340   0.057
46782SOL    HW242186  13.078   8.410   0.135
46783SOL     OW42187   2.164   4.647  10.686
46783SOL    HW142188   2.093   4.605  10.734
46783SOL    HW242189   2.131   4.654  10.596
46784SOL     OW42190  10.905   7.773   9.705
46784SOL    HW142191  10.846   7.833   9.750
46784SOL    HW242192  10.983   7.826   9.687
46785SOL     OW42193   7.433   0.000   6.885
46785SOL    HW142194   7.369  14.859   6.815
46785SOL    HW242195   7.440  14.790   6.930
46786SOL     OW42196   1.750   8.488   5.563
46786SOL    HW142197   1.772   8.493   5.470
46786SOL    HW242198   1.782   8.571   5.599
46787SOL     OW42199   9.361   1.918  10.298
46787SOL    HW142200   9.335   1.881  10.382
46787SOL    HW242201   9.447   1.879  10.280
46788SOL     OW42202   9.278   3.362   6.066
46788SOL    HW142203   9.218   3.324   6.131
46788SOL    HW242204   9.286   3.294   5.999
46789SOL     OW42205   2.293  14.220   0.843
46789SOL    HW142206   2.246  14.168   0.778
46789SOL    HW242207   2.263  14.310   0.828
46790SOL     OW42208  12.568   4.667  14.850
46790SOL    HW142209  12.654   4.658   0.017
46790SOL    HW242210  12.522   4.732   0.029
46791SOL     OW42211   0.178   9.769   0.786
46791SOL    HW142212   0.179   9.683   0.827
46791SOL    HW242213   0.206   9.754   0.696
46792SOL     OW42214   6.331  11.902  13.624
46792SOL    HW142215   6.321  11.846  13.702
46792SOL    HW242216   6.300  11.847  13.552
46793SOL     OW42217   3.761   8.515   4.417
46793SOL    HW142218   3.791   8.475   4.335
46793SOL    HW242219   3.677   8.555   4.395
46794SOL     OW42220  14.215   8.676  13.541
46794SOL    HW142221  14.200   8.763  13.503
46794SOL    HW242222  14.310   8.671  13.550
46795SOL     OW42223   2.609   6.784  12.973
46795SOL    HW142224   2.699   6.763  12.949
46795SOL    HW242225   2.616   6.860  13.031
46796SOL     OW42226   7.343  10.847  10.864
46796SOL    HW142227   7.408  10.821  10.929
46796SOL    HW242228   7.333  10.941  10.877
46797SOL     OW42229   1.450   3.679   9.498
46797SOL    HW142230   1.440   3.750   9.434
46797SOL    HW242231   1.529   3.703   9.547
46798SOL     OW42232   3.526   4.779   9.292
46798SOL    HW142233   3.487   4.749   9.210
46798SOL    HW242234   3.530   4.700   9.346
46799SOL     OW42235  14.544   1.925   2.008
46799SOL    HW142236  14.590   2.009   2.014
46799SOL    HW242237  14.574   1.887   1.926
46800SOL     OW42238   5.318  13.112  12.097
46800SOL    HW142239   5.386  13.178  12.092
46800SOL    HW242240   5.241  13.154  12.059
46801SOL     OW42241   9.399  10.736   9.773
46801SOL    HW142242   9.493  10.742   9.788
46801SOL    HW242243   9.360  10.750   9.859
46802SOL     OW42244  11.846  14.275   0.472
46802SOL    HW142245  11.805  14.355   0.439
46802SOL    HW242246  11.804  14.205   0.424
46803SOL     OW42247   5.312   5.708  10.956
46803SOL    HW142248   5.235   5.727  11.009
46803SOL    HW242249   5.336   5.792  10.917
46804SOL     OW42250   4.016   1.998  14.183
46804SOL    HW142251   4.034   2.024  14.273
46804SOL    HW242252   4.100   2.005  14.139
46805SOL     OW42253  10.175  10.713   5.633
46805SOL    HW142254  10.267  10.723   5.658
46805SOL    HW242255  10.154  10.796   5.590
46806SOL     OW42256   3.769   3.788   2.209
46806SOL    HW142257   3.818   3.865   2.235
46806SOL    HW242258   3.826   3.714   2.231
46807SOL     OW42259   0.843   5.631  11.579
46807SOL    HW142260   0.852   5.668  11.491
46807SOL    HW242261   0.784   5.691  11.624
46808SOL     OW42262   8.890   6.612  12.723
46808SOL    HW142263   8.984   6.605  12.736
46808SOL    HW242264   8.880   6.650  12.636
46809SOL     OW42265   3.134  13.766   3.854
46809SOL    HW142266   3.073  13.761   3.780
46809SOL    HW242267   3.079  13.758   3.931
46810SOL     OW42268  12.647   5.633  14.332
46810SOL    HW142269  12.635   5.706  14.393
46810SOL    HW242270  12.719   5.661  14.276
46811SOL     OW42271  10.457  10.817   9.945
46811SOL    HW142272  10.454  10.904   9.905
46811SOL    HW242273  10.548  10.789   9.934
46812SOL     OW42274   7.363   6.351   3.102
46812SOL    HW142275   7.393   6.390   3.020
46812SOL    HW242276   7.307   6.279   3.075
46813SOL     OW42277   5.157   0.463  12.558
46813SOL    HW142278   5.234   0.514  12.532
46813SOL    HW242279   5.083   0.514  12.524
46814SOL     OW42280   6.332  10.873  11.971
46814SOL    HW142281   6.392  10.922  11.914
46814SOL    HW242282   6.299  10.939  12.033
46815SOL     OW42283   0.751   5.709   7.268
46815SOL    HW142284   0.778   5.798   7.288
46815SOL    HW242285   0.823   5.654   7.297
46816SOL     OW42286   1.384   0.613   2.370
46816SOL    HW142287   1.334   0.626   2.289
46816SOL    HW242288   1.336   0.663   2.436
46817SOL     OW42289   8.248   4.838   8.956
46817SOL    HW142290   8.175   4.817   8.899
46817SOL    HW242291   8.212   4.900   9.019
46818SOL     OW42292   6.590  14.745  14.633
46818SOL    HW142293   6.545  14.813  14.683
46818SOL    HW242294   6.629  14.791  14.558
46819SOL     OW42295  12.179  11.088   9.863
46819SOL    HW142296  12.192  11.141   9.784
46819SOL    HW242297  12.083  11.083   9.871
46820SOL     OW42298  10.606   8.800   1.510
46820SOL    HW142299  10.664   8.804   1.586
46820SOL    HW242300  10.561   8.716   1.518
46821SOL     OW42301   7.666   0.399  13.774
46821SOL    HW142302   7.612   0.463  13.821
46821SOL    HW242303   7.606   0.360  13.710
46822SOL     OW42304   5.895   9.529   7.823
46822SOL    HW142305   5.845   9.601   7.784
46822SOL    HW242306   5.844   9.503   7.900
46823SOL     OW42307   9.901   5.116   9.463
46823SOL    HW142308   9.815   5.073   9.463
46823SOL    HW242309   9.962   5.045   9.481
46824SOL     OW42310  14.319  13.928  13.411
46824SOL    HW142311  14.303  14.020  13.388
46824SOL    HW242312  14.340  13.886  13.328
46825SOL     OW42313   7.417  14.238   7.600
46825SOL    HW142314   7.347  14.275   7.654
46825SOL    HW242315   7.477  14.311   7.584
46826SOL     OW42316   0.458   2.723   8.143
46826SOL    HW142317   0.531   2.722   8.205
46826SOL    HW242318   0.483   2.661   8.075
46827SOL     OW42319  12.999   7.037  11.280
46827SOL    HW142320  12.993   7.044  11.184
46827SOL    HW242321  12.912   7.063  11.311
46828SOL     OW42322   2.571  11.484   3.260
46828SOL    HW142323   2.517  11.441   3.326
46828SOL    HW242324   2.659  11.482   3.296
46829SOL     OW42325   1.474  13.792   7.353
46829SOL    HW142326   1.406  13.847   7.314
46829SOL    HW242327   1.426  13.735   7.414
46830SOL     OW42328   8.132   0.045  12.361
46830SOL    HW142329   8.105   0.135  12.382
46830SOL    HW242330   8.192   0.021  12.431
46831SOL     OW42331   0.792   1.410   2.266
46831SOL    HW142332   0.718   1.399   2.205
46831SOL    HW242333   0.769   1.487   2.318
46832SOL     OW42334   5.801   9.896  14.833
46832SOL    HW142335   5.800   9.860  14.744
46832SOL    HW242336   5.892   9.887  14.862
46833SOL     OW42337   5.993  14.214   4.111
46833SOL    HW142338   5.971  14.136   4.161
46833SOL    HW242339   6.088  14.224   4.123
46834SOL     OW42340  10.480   6.439  14.468
46834SOL    HW142341  10.574   6.442  14.449
46834SOL    HW242342  10.466   6.354  14.509
46835SOL     OW42343  11.601  14.625   0.862
46835SOL    HW142344  11.608  14.615   0.957
46835SOL    HW242345  11.673  14.573   0.827
46836SOL     OW42346  12.190   5.411   1.667
46836SOL    HW142347  12.230   5.325   1.653
46836SOL    HW242348  12.221   5.464   1.594
46837SOL     OW42349   3.920  11.594  14.052
46837SOL    HW142350   3.956  11.677  14.082
46837SOL    HW242351   3.922  11.599  13.957
46838SOL     OW42352  14.292   1.826   5.244
46838SOL    HW142353  14.341   1.765   5.189
46838SOL    HW242354  14.343   1.833   5.324
46839SOL     OW42355   7.984   5.746  14.139
46839SOL    HW142356   8.065   5.716  14.179
46839SOL    HW242357   7.921   5.750  14.211
46840SOL     OW42358  14.452   0.973   5.655
46840SOL    HW142359  14.456   0.893   5.709
46840SOL    HW242360  14.390   1.029   5.700
46841SOL     OW42361  13.554   1.410   8.107
46841SOL    HW142362  13.641   1.388   8.141
46841SOL    HW242363  13.551   1.368   8.021
46842SOL     OW42364   1.240   0.334   2.548
46842SOL    HW142365   1.312   0.365   2.493
46842SOL    HW242366   1.166   0.326   2.489
46843SOL     OW42367   4.449  11.240   5.668
46843SOL    HW142368   4.453  11.156   5.715
46843SOL    HW242369   4.541  11.262   5.651
46844SOL     OW42370  14.602   0.576   8.402
46844SOL    HW142371  14.549   0.627   8.340
46844SOL    HW242372  14.620   0.494   8.356
46845SOL     OW42373   8.749  13.924  13.905
46845SOL    HW142374   8.786  13.921  13.817
46845SOL    HW242375   8.668  13.874  13.899
46846SOL     OW42376   3.484   0.796  10.200
46846SOL    HW142377   3.458   0.883  10.170
46846SOL    HW242378   3.491   0.804  10.295
46847SOL     OW42379   7.024   9.530  11.476
46847SOL    HW142380   7.056   9.498  11.560
46847SOL    HW242381   7.012   9.624  11.489
46848SOL     OW42382  13.730   8.996   2.836
46848SOL    HW142383  13.818   8.963   2.852
46848SOL    HW242384  13.739   9.052   2.759
46849SOL     OW42385   9.376  11.075   2.129
46849SOL    HW142386   9.318  11.054   2.056
46849SOL    HW242387   9.462  11.086   2.089
46850SOL     OW42388   5.098   0.316   2.656
46850SOL    HW142389   5.117   0.241   2.600
46850SOL    HW242390   5.181   0.333   2.701
46851SOL     OW42391  11.925   2.985   2.165
46851SOL    HW142392  12.020   2.997   2.165
46851SOL    HW242393  11.911   2.896   2.196
46852SOL     OW42394  10.815   3.115  14.666
46852SOL    HW142395  10.770   3.084  14.745
46852SOL    HW242396  10.874   3.044  14.642
46853SOL     OW42397   6.202   7.929   1.517
46853SOL    HW142398   6.276   7.945   1.575
46853SOL    HW242399   6.125   7.949   1.571
46854SOL     OW42400   6.328   6.373   0.919
46854SOL    HW142401   6.236   6.366   0.895
46854SOL    HW242402   6.329   6.362   1.014
46855SOL     OW42403   7.903   0.054   3.744
46855SOL    HW142404   7.831   0.054   3.807
46855SOL    HW242405   7.881  14.859   3.682
46856SOL     OW42406   4.374   5.683   5.963
46856SOL    HW142407   4.452   5.659   5.913
46856SOL    HW242408   4.385   5.638   6.047
46857SOL     OW42409  11.006   5.754   9.385
46857SOL    HW142410  10.991   5.744   9.291
46857SOL    HW242411  10.982   5.845   9.404
46858SOL     OW42412  12.501   3.616  12.866
46858SOL    HW142413  12.440   3.687  12.848
46858SOL    HW242414  12.451   3.536  12.847
46859SOL     OW42415   7.178  13.607  11.609
46859SOL    HW142416   7.142  13.624  11.696
46859SOL    HW242417   7.185  13.512  11.604
46860SOL     OW42418   9.985  10.373  11.459
46860SOL    HW142419  10.075  10.401  11.444
46860SOL    HW242420   9.974  10.297  11.402
46861SOL     OW42421  11.418   0.656   5.568
46861SOL    HW142422  11.355   0.703   5.623
46861SOL    HW242423  11.438   0.718   5.497
46862SOL     OW42424   9.198  11.183   2.504
46862SOL    HW142425   9.250  11.103   2.501
46862SOL    HW242426   9.171  11.198   2.414
46863SOL     OW42427   8.487   3.486  13.990
46863SOL    HW142428   8.549   3.421  14.022
46863SOL    HW242429   8.519   3.569  14.025
46864SOL     OW42430  12.990   2.455  14.678
46864SOL    HW142431  12.983   2.484  14.587
46864SOL    HW242432  13.017   2.533  14.726
46865SOL     OW42433  13.404   9.903   9.120
46865SOL    HW142434  13.355   9.827   9.151
46865SOL    HW242435  13.343   9.949   9.061
46866SOL     OW42436   9.904  12.018  13.203
46866SOL    HW142437   9.923  12.111  13.217
46866SOL    HW242438   9.943  11.974  13.279
46867SOL     OW42439  12.317   5.572  10.577
46867SOL    HW142440  12.394   5.522  10.606
46867SOL    HW242441  12.305   5.546  10.486
46868SOL     OW42442  13.329   4.102   4.492
46868SOL    HW142443  13.405   4.112   4.550
46868SOL    HW242444  13.362   4.124   4.405
46869SOL     OW42445  13.606   1.573   3.213
46869SOL    HW142446  13.533   1.512   3.220
46869SOL    HW242447  13.680   1.519   3.186
46870SOL     OW42448   0.318   4.737   4.064
46870SOL    HW142449   0.369   4.678   4.119
46870SOL    HW242450   0.229   4.732   4.099
46871SOL     OW42451   9.927   8.963   3.780
46871SOL    HW142452   9.969   8.905   3.844
46871SOL    HW242453   9.911   8.907   3.705
46872SOL     OW42454   0.641   5.268  13.746
46872SOL    HW142455   0.624   5.183  13.705
46872SOL    HW242456   0.681   5.321  13.676
46873SOL     OW42457  13.597  13.149   2.824
46873SOL    HW142458  13.597  13.228   2.878
46873SOL    HW242459  13.605  13.077   2.887
46874SOL     OW42460  11.569  13.881  11.808
46874SOL    HW142461  11.648  13.854  11.855
46874SOL    HW242462  11.572  13.832  11.726
46875SOL     OW42463   7.847   4.176   5.247
46875SOL    HW142464   7.930   4.180   5.294
46875SOL    HW242465   7.821   4.268   5.237
46876SOL     OW42466   0.878   8.776   6.077
46876SOL    HW142467   0.836   8.762   5.992
46876SOL    HW242468   0.894   8.870   6.080
46877SOL     OW42469  14.783  13.069   1.377
46877SOL    HW142470  14.743  13.141   1.329
46877SOL    HW242471  14.750  12.990   1.334
46878SOL     OW42472  11.406   6.089   9.783
46878SOL    HW142473  11.374   6.061   9.869
46878SOL    HW242474  11.426   6.007   9.737
46879SOL     OW42475   0.171  12.088   0.135
46879SOL    HW142476   0.184  12.038   0.055
46879SOL    HW242477   0.111  12.036   0.187
46880SOL     OW42478   1.119   5.056   4.580
46880SOL    HW142479   1.038   5.036   4.534
46880SOL    HW242480   1.104   5.142   4.621
46881SOL     OW42481   7.746  11.748   4.655
46881SOL    HW142482   7.675  11.704   4.701
46881SOL    HW242483   7.800  11.786   4.725
46882SOL     OW42484   7.463   6.122  10.497
46882SOL    HW142485   7.491   6.090  10.411
46882SOL    HW242486   7.474   6.217  10.491
46883SOL     OW42487  13.048   1.554  13.913
46883SOL    HW142488  13.089   1.485  13.860
46883SOL    HW242489  13.003   1.609  13.849
46884SOL     OW42490   8.596   1.391   4.666
46884SOL    HW142491   8.686   1.401   4.635
46884SOL    HW242492   8.601   1.406   4.760
46885SOL     OW42493   8.078   7.364   6.129
46885SOL    HW142494   8.151   7.302   6.131
46885SOL    HW242495   8.085   7.412   6.211
46886SOL     OW42496   0.717  13.301   3.637
46886SOL    HW142497   0.800  13.275   3.677
46886SOL    HW242498   0.733  13.390   3.606
46887SOL     OW42499   5.559  13.351  10.007
46887SOL    HW142500   5.499  13.425   9.995
46887SOL    HW242501   5.613  13.351   9.928
46888SOL     OW42502   7.879   1.849   6.181
46888SOL    HW142503   7.880   1.847   6.276
46888SOL    HW242504   7.883   1.757   6.155
46889SOL     OW42505  10.104   1.078   8.016
46889SOL    HW142506  10.093   0.983   8.017
46889SOL    HW242507  10.098   1.104   8.108
46890SOL     OW42508   1.854  13.208  10.366
46890SOL    HW142509   1.896  13.140  10.419
46890SOL    HW242510   1.900  13.205  10.282
46891SOL     OW42511   0.527   2.669   7.322
46891SOL    HW142512   0.512   2.596   7.382
46891SOL    HW242513   0.521   2.630   7.235
46892SOL     OW42514  14.232   8.294   9.709
46892SOL    HW142515  14.260   8.251   9.628
46892SOL    HW242516  14.260   8.385   9.698
46893SOL     OW42517   8.538   3.496  13.715
46893SOL    HW142518   8.478   3.552  13.666
46893SOL    HW242519   8.504   3.498  13.805
46894SOL     OW42520  11.948   3.291   9.602
46894SOL    HW142521  11.862   3.332   9.593
46894SOL    HW242522  11.968   3.297   9.695
46895SOL     OW42523   3.155   0.660   4.221
46895SOL    HW142524   3.066   0.645   4.187
46895SOL    HW242525   3.143   0.724   4.291
46896SOL     OW42526   6.907   4.667   9.293
46896SOL    HW142527   6.957   4.627   9.365
46896SOL    HW242528   6.870   4.592   9.246
46897SOL     OW42529   4.569   8.793  10.485
46897SOL    HW142530   4.474   8.782  10.494
46897SOL    HW242531   4.580   8.881  10.450
46898SOL     OW42532   5.519  10.707  11.335
46898SOL    HW142533   5.485  10.774  11.276
46898SOL    HW242534   5.537  10.632  11.279
46899SOL     OW42535   6.053   7.739  13.632
46899SOL    HW142536   6.017   7.659  13.592
46899SOL    HW242537   5.976   7.787  13.661
46900SOL     OW42538   5.440   4.986   0.152
46900SOL    HW142539   5.400   5.072   0.137
46900SOL    HW242540   5.479   4.963   0.067
46901SOL     OW42541   0.248   7.195   8.727
46901SOL    HW142542   0.240   7.107   8.762
46901SOL    HW242543   0.328   7.193   8.674
46902SOL     OW42544  14.068  14.570  12.220
46902SOL    HW142545  14.045  14.513  12.293
46902SOL    HW242546  14.150  14.535  12.186
46903SOL     OW42547  14.782  13.539   1.010
46903SOL    HW142548  14.826  13.479   1.071
46903SOL    HW242549  14.835  13.535   0.931
46904SOL     OW42550  11.862  10.476   6.955
46904SOL    HW142551  11.862  10.499   7.048
46904SOL    HW242552  11.785  10.522   6.920
46905SOL     OW42553   5.481   5.213  14.063
46905SOL    HW142554   5.401   5.223  14.116
46905SOL    HW242555   5.514   5.302  14.052
46906SOL     OW42556  13.397   6.669   5.298
46906SOL    HW142557  13.485   6.634   5.314
46906SOL    HW242558  13.410   6.742   5.237
46907SOL     OW42559   2.205   8.970   7.712
46907SOL    HW142560   2.286   8.920   7.707
46907SOL    HW242561   2.203   9.006   7.801
46908SOL     OW42562   0.012   3.828  13.074
46908SOL    HW142563   0.104   3.814  13.093
46908SOL    HW242564  14.869   3.919  13.101
46909SOL     OW42565  13.890   7.350  13.974
46909SOL    HW142566  13.891   7.255  13.987
46909SOL    HW242567  13.845   7.385  14.050
46910SOL     OW42568  14.839  13.496   0.630
46910SOL    HW142569   0.060  13.482   0.636
46910SOL    HW242570  14.829  13.581   0.588
46911SOL     OW42571   8.090   0.573   4.807
46911SOL    HW142572   8.110   0.559   4.715
46911SOL    HW242573   8.102   0.668   4.820
46912SOL     OW42574   8.325   9.250   7.476
46912SOL    HW142575   8.382   9.229   7.550
46912SOL    HW242576   8.370   9.213   7.399
46913SOL     OW42577   1.489   0.153   9.095
46913SOL    HW142578   1.449   0.066   9.094
46913SOL    HW242579   1.437   0.204   9.033
46914SOL     OW42580   6.789   3.849   4.767
46914SOL    HW142581   6.864   3.799   4.800
46914SOL    HW242582   6.761   3.801   4.689
46915SOL     OW42583  13.886   6.426   1.651
46915SOL    HW142584  13.904   6.486   1.578
46915SOL    HW242585  13.808   6.462   1.693
46916SOL     OW42586  10.525   5.234   3.168
46916SOL    HW142587  10.513   5.214   3.075
46916SOL    HW242588  10.438   5.222   3.206
46917SOL     OW42589   7.021   4.860   3.283
46917SOL    HW142590   6.947   4.848   3.223
46917SOL    HW242591   6.982   4.890   3.365
46918SOL     OW42592  14.451   5.970  10.886
46918SOL    HW142593  14.427   5.972  10.793
46918SOL    HW242594  14.368   5.979  10.933
46919SOL     OW42595   7.173   9.148   4.472
46919SOL    HW142596   7.149   9.055   4.481
46919SOL    HW242597   7.102   9.196   4.513
46920SOL     OW42598   8.575   2.877   8.797
46920SOL    HW142599   8.656   2.826   8.793
46920SOL    HW242600   8.604   2.967   8.807
46921SOL     OW42601   2.866  14.558  13.318
46921SOL    HW142602   2.927  14.605  13.375
46921SOL    HW242603   2.807  14.513  13.378
46922SOL     OW42604   7.514   3.847  13.527
46922SOL    HW142605   7.598   3.828  13.568
46922SOL    HW242606   7.499   3.774  13.467
46923SOL     OW42607  11.301   5.722   5.227
46923SOL    HW142608  11.219   5.765   5.250
46923SOL    HW242609  11.355   5.791   5.188
46924SOL     OW42610   5.487  10.048   8.444
46924SOL    HW142611   5.439  10.126   8.473
46924SOL    HW242612   5.438   9.975   8.480
46925SOL     OW42613   1.096  14.219   5.282
46925SOL    HW142614   1.041  14.242   5.357
46925SOL    HW242615   1.053  14.261   5.207
46926SOL     OW42616  13.346  13.442   4.924
46926SOL    HW142617  13.402  13.501   4.873
46926SOL    HW242618  13.383  13.355   4.909
46927SOL     OW42619   8.108   8.770   1.630
46927SOL    HW142620   8.132   8.788   1.539
46927SOL    HW242621   8.099   8.857   1.670
46928SOL     OW42622  11.846   7.192  10.885
46928SOL    HW142623  11.820   7.146  10.965
46928SOL    HW242624  11.811   7.138  10.814
46929SOL     OW42625  10.566  12.037   5.735
46929SOL    HW142626  10.506  12.092   5.786
46929SOL    HW242627  10.511  11.996   5.669
46930SOL     OW42628  11.086   2.670   0.661
46930SOL    HW142629  11.039   2.753   0.651
46930SOL    HW242630  11.018   2.606   0.680
46931SOL     OW42631   7.385   1.619   7.456
46931SOL    HW142632   7.441   1.619   7.379
46931SOL    HW242633   7.368   1.526   7.473
46932SOL     OW42634   3.314  14.251  14.469
46932SOL    HW142635   3.254  14.212  14.532
46932SOL    HW242636   3.340  14.179  14.412
46933SOL     OW42637   9.769   1.765   2.080
46933SOL    HW142638   9.849   1.815   2.095
46933SOL    HW242639   9.736   1.746   2.167
46934SOL     OW42640  12.855  13.302  10.992
46934SOL    HW142641  12.931  13.302  10.933
46934SOL    HW242642  12.841  13.395  11.011
46935SOL     OW42643   9.629  12.407  12.573
46935SOL    HW142644   9.599  12.403  12.482
46935SOL    HW242645   9.724  12.392  12.568
46936SOL     OW42646   0.097   2.863  14.868
46936SOL    HW142647   0.113   2.947  14.824
46936SOL    HW242648   0.008   2.839  14.842
46937SOL     OW42649   3.325  10.529  14.607
46937SOL    HW142650   3.401  10.472  14.605
46937SOL    HW242651   3.257  10.480  14.560
46938SOL     OW42652   5.112  10.393   8.079
46938SOL    HW142653   5.017  10.408   8.073
46938SOL    HW242654   5.128  10.316   8.023
46939SOL     OW42655  10.334   6.724  10.550
46939SOL    HW142656  10.253   6.774  10.549
46939SOL    HW242657  10.374   6.741  10.464
46940SOL     OW42658   9.281   0.841   0.048
46940SOL    HW142659   9.231   0.912   0.090
46940SOL    HW242660   9.345   0.815   0.114
46941SOL     OW42661   5.411   4.643   3.847
46941SOL    HW142662   5.503   4.623   3.827
46941SOL    HW242663   5.386   4.577   3.910
46942SOL     OW42664   1.954  10.012   0.793
46942SOL    HW142665   1.876  10.066   0.783
46942SOL    HW242666   2.025  10.075   0.804
46943SOL     OW42667   9.669  10.056  11.871
46943SOL    HW142668   9.612  10.133  11.872
46943SOL    HW242669   9.757  10.092  11.862
46944SOL     OW42670   5.637   7.703   5.520
46944SOL    HW142671   5.704   7.735   5.581
46944SOL    HW242672   5.667   7.616   5.495
46945SOL     OW42673   2.870   8.812   6.851
46945SOL    HW142674   2.928   8.886   6.868
46945SOL    HW242675   2.884   8.792   6.758
46946SOL     OW42676  13.098   8.879   2.475
46946SOL    HW142677  13.079   8.923   2.392
46946SOL    HW242678  13.083   8.786   2.458
46947SOL     OW42679   6.346  10.956   4.004
46947SOL    HW142680   6.302  11.013   4.068
46947SOL    HW242681   6.276  10.932   3.943
46948SOL     OW42682  10.730  11.202   7.576
46948SOL    HW142683  10.669  11.244   7.636
46948SOL    HW242684  10.680  11.132   7.535
46949SOL     OW42685  12.016  12.372   0.117
46949SOL    HW142686  12.066  12.355   0.197
46949SOL    HW242687  12.075  12.425   0.063
46950SOL     OW42688  12.546  13.983  10.716
46950SOL    HW142689  12.614  13.969  10.650
46950SOL    HW242690  12.578  14.057  10.767
46951SOL     OW42691  12.907   3.498   0.335
46951SOL    HW142692  12.990   3.515   0.379
46951SOL    HW242693  12.883   3.409   0.363
46952SOL     OW42694  14.554  12.186   2.175
46952SOL    HW142695  14.610  12.259   2.150
46952SOL    HW242696  14.564  12.123   2.103
46953SOL     OW42697   2.208   4.989   7.916
46953SOL    HW142698   2.123   5.033   7.911
46953SOL    HW242699   2.242   4.991   7.826
46954SOL     OW42700   7.986  12.271  10.495
46954SOL    HW142701   8.077  12.268  10.523
46954SOL    HW242702   7.972  12.363  10.470
46955SOL     OW42703   7.425   4.334   8.980
46955SOL    HW142704   7.501   4.388   8.957
46955SOL    HW242705   7.460   4.267   9.038
46956SOL     OW42706   3.818   3.905  12.825
46956SOL    HW142707   3.823   3.929  12.918
46956SOL    HW242708   3.907   3.918  12.792
46957SOL     OW42709   3.751  12.353  11.716
46957SOL    HW142710   3.657  12.362  11.735
46957SOL    HW242711   3.770  12.261  11.735
46958SOL     OW42712   1.258   7.589  14.270
46958SOL    HW142713   1.308   7.528  14.216
46958SOL    HW242714   1.283   7.676  14.239
46959SOL     OW42715   7.971   5.772  14.534
46959SOL    HW142716   7.896   5.777  14.474
46959SOL    HW242717   7.968   5.854  14.584
46960SOL     OW42718   6.707  12.910  10.885
46960SOL    HW142719   6.797  12.883  10.867
46960SOL    HW242720   6.653  12.837  10.854
46961SOL     OW42721  12.591   8.325   5.991
46961SOL    HW142722  12.671   8.276   6.010
46961SOL    HW242723  12.614   8.379   5.915
46962SOL     OW42724   3.351   6.967  13.148
46962SOL    HW142725   3.336   6.872  13.148
46962SOL    HW242726   3.446   6.976  13.157
46963SOL     OW42727   5.145   5.262   2.931
46963SOL    HW142728   5.116   5.253   3.022
46963SOL    HW242729   5.186   5.349   2.927
46964SOL     OW42730   7.821   5.451   5.706
46964SOL    HW142731   7.753   5.517   5.713
46964SOL    HW242732   7.774   5.369   5.691
46965SOL     OW42733   1.219   6.135   2.294
46965SOL    HW142734   1.229   6.138   2.199
46965SOL    HW242735   1.234   6.225   2.323
46966SOL     OW42736   8.230  12.025   5.093
46966SOL    HW142737   8.220  11.966   5.019
46966SOL    HW242738   8.273  12.102   5.057
46967SOL     OW42739  12.156   4.482   9.486
46967SOL    HW142740  12.088   4.485   9.553
46967SOL    HW242741  12.110   4.499   9.404
46968SOL     OW42742   9.163   8.515   5.926
46968SOL    HW142743   9.171   8.469   6.010
46968SOL    HW242744   9.127   8.601   5.949
46969SOL     OW42745   5.100  12.127   0.336
46969SOL    HW142746   5.152  12.124   0.416
46969SOL    HW242747   5.084  12.220   0.320
46970SOL     OW42748   1.429  13.909   8.653
46970SOL    HW142749   1.524  13.913   8.661
46970SOL    HW242750   1.397  13.963   8.724
46971SOL     OW42751   4.848  10.635   9.439
46971SOL    HW142752   4.867  10.704   9.502
46971SOL    HW242753   4.910  10.650   9.368
46972SOL     OW42754   1.644   1.619  12.958
46972SOL    HW142755   1.640   1.532  12.999
46972SOL    HW242756   1.659   1.601  12.865
46973SOL     OW42757  12.747   2.717  11.964
46973SOL    HW142758  12.769   2.722  11.871
46973SOL    HW242759  12.829   2.696  12.008
46974SOL     OW42760   6.140   4.132   2.316
46974SOL    HW142761   6.214   4.194   2.311
46974SOL    HW242762   6.079   4.173   2.376
46975SOL     OW42763   5.060  13.909  11.985
46975SOL    HW142764   5.005  13.866  12.051
46975SOL    HW242765   5.002  13.972  11.942
46976SOL     OW42766   0.706   0.278  13.237
46976SOL    HW142767   0.631   0.318  13.279
46976SOL    HW242768   0.708   0.314  13.148
46977SOL     OW42769  13.300   1.683   1.991
46977SOL    HW142770  13.339   1.602   2.024
46977SOL    HW242771  13.344   1.753   2.040
46978SOL     OW42772   3.676   8.425  10.003
46978SOL    HW142773   3.596   8.476   9.996
46978SOL    HW242774   3.648   8.341  10.041
46979SOL     OW42775   4.449  11.721   2.532
46979SOL    HW142776   4.406  11.720   2.618
46979SOL    HW242777   4.503  11.642   2.531
46980SOL     OW42778   0.075   3.042  12.197
46980SOL    HW142779   0.111   3.039  12.286
46980SOL    HW242780  14.870   3.094  12.205
46981SOL     OW42781   3.230  10.288  13.249
46981SOL    HW142782   3.182  10.213  13.286
46981SOL    HW242783   3.310  10.293  13.301
46982SOL     OW42784  13.364  11.097   8.201
46982SOL    HW142785  13.357  11.002   8.209
46982SOL    HW242786  13.276  11.130   8.221
46983SOL     OW42787   3.386   2.656   6.455
46983SOL    HW142788   3.378   2.587   6.521
46983SOL    HW242789   3.419   2.732   6.503
46984SOL     OW42790   4.698   3.017   6.275
46984SOL    HW142791   4.608   3.024   6.306
46984SOL    HW242792   4.736   3.103   6.293
46985SOL     OW42793  13.113   2.585  12.984
46985SOL    HW142794  13.091   2.660  12.929
46985SOL    HW242795  13.183   2.617  13.041
46986SOL     OW42796   2.247   9.361   7.013
46986SOL    HW142797   2.295   9.432   6.971
46986SOL    HW242798   2.234   9.391   7.104
46987SOL     OW42799   2.568   7.151  10.685
46987SOL    HW142800   2.527   7.075  10.726
46987SOL    HW242801   2.658   7.150  10.718
46988SOL     OW42802   9.664   0.552   1.463
46988SOL    HW142803   9.603   0.488   1.426
46988SOL    HW242804   9.748   0.532   1.422
46989SOL     OW42805   0.147   6.757   8.691
46989SOL    HW142806   0.121   6.724   8.605
46989SOL    HW242807   0.116   6.690   8.752
46990SOL     OW42808   4.362   4.268  12.892
46990SOL    HW142809   4.434   4.316  12.933
46990SOL    HW242810   4.302   4.248  12.964
46991SOL     OW42811   3.044   0.999   1.675
46991SOL    HW142812   3.023   0.947   1.752
46991SOL    HW242813   3.039   1.090   1.704
46992SOL     OW42814   2.078  11.680  10.044
46992SOL    HW142815   2.153  11.690  10.102
46992SOL    HW242816   2.107  11.717   9.960
46993SOL     OW42817   5.508   2.918   7.869
46993SOL    HW142818   5.518   2.932   7.964
46993SOL    HW242819   5.481   3.003   7.836
46994SOL     OW42820   0.445   6.210   5.751
46994SOL    HW142821   0.501   6.142   5.716
46994SOL    HW242822   0.463   6.287   5.697
46995SOL     OW42823   7.066   1.591  11.030
46995SOL    HW142824   7.134   1.650  10.995
46995SOL    HW242825   7.115   1.521  11.072
46996SOL     OW42826   3.704   0.773   4.774
46996SOL    HW142827   3.626   0.774   4.830
46996SOL    HW242828   3.766   0.717   4.821
46997SOL     OW42829   9.413  10.042   0.985
46997SOL    HW142830   9.416  10.042   1.080
46997SOL    HW242831   9.455   9.960   0.959
46998SOL     OW42832   0.560  14.505  12.323
46998SOL    HW142833   0.519  14.570  12.381
46998SOL    HW242834   0.597  14.440  12.383
46999SOL     OW42835  14.450   2.666  13.662
46999SOL    HW142836  14.383   2.682  13.595
46999SOL    HW242837  14.485   2.579  13.641
47000SOL     OW42838  13.100   7.403   5.967
47000SOL    HW142839  13.193   7.418   5.949
47000SOL    HW242840  13.054   7.461   5.907
47001SOL     OW42841   7.863   2.615   4.382
47001SOL    HW142842   7.805   2.612   4.306
47001SOL    HW242843   7.949   2.593   4.347
47002SOL     OW42844   9.102   1.126   9.001
47002SOL    HW142845   9.020   1.116   9.050
47002SOL    HW242846   9.079   1.177   8.924
47003SOL     OW42847   1.464   8.284   7.057
47003SOL    HW142848   1.556   8.273   7.083
47003SOL    HW242849   1.422   8.320   7.135
47004SOL     OW42850   9.959   2.202   4.320
47004SOL    HW142851   9.889   2.220   4.257
47004SOL    HW242852   9.954   2.108   4.335
47005SOL     OW42853  13.525   5.845  14.776
47005SOL    HW142854  13.525   5.941  14.772
47005SOL    HW242855  13.563   5.818  14.692
47006SOL     OW42856   6.826  14.267   7.701
47006SOL    HW142857   6.812  14.174   7.718
47006SOL    HW242858   6.910  14.270   7.655
47007SOL     OW42859   4.409   1.349   5.104
47007SOL    HW142860   4.497   1.311   5.099
47007SOL    HW242861   4.385   1.364   5.012
47008SOL     OW42862  10.956   6.833   8.581
47008SOL    HW142863  10.981   6.823   8.489
47008SOL    HW242864  10.994   6.756   8.625
47009SOL     OW42865  11.046  10.324  10.046
47009SOL    HW142866  11.111  10.381  10.089
47009SOL    HW242867  10.996  10.384   9.990
47010SOL     OW42868   8.277  14.530   6.656
47010SOL    HW142869   8.225  14.499   6.730
47010SOL    HW242870   8.367  14.527   6.687
47011SOL     OW42871  14.865   3.643   1.648
47011SOL    HW142872  14.802   3.685   1.590
47011SOL    HW242873   0.075   3.685   1.627
47012SOL     OW42874   2.826  13.799   5.206
47012SOL    HW142875   2.776  13.759   5.135
47012SOL    HW242876   2.872  13.873   5.165
47013SOL     OW42877  10.856   0.619  13.765
47013SOL    HW142878  10.808   0.583  13.840
47013SOL    HW242879  10.800   0.690  13.733
47014SOL     OW42880  14.798   0.224   6.106
47014SOL    HW142881  14.704   0.238   6.107
47014SOL    HW242882  14.835   0.312   6.116
47015SOL     OW42883  10.564  14.748   7.867
47015SOL    HW142884  10.481  14.702   7.856
47015SOL    HW242885  10.617  14.690   7.923
47016SOL     OW42886  11.473   6.732   6.189
47016SOL    HW142887  11.430   6.804   6.145
47016SOL    HW242888  11.458   6.656   6.132
47017SOL     OW42889   2.132   5.142  12.707
47017SOL    HW142890   2.096   5.129  12.619
47017SOL    HW242891   2.216   5.097  12.706
47018SOL     OW42892   7.967   0.511   8.230
47018SOL    HW142893   8.028   0.449   8.269
47018SOL    HW242894   8.006   0.597   8.246
47019SOL     OW42895   2.433   5.583   8.885
47019SOL    HW142896   2.395   5.665   8.916
47019SOL    HW242897   2.522   5.583   8.921
47020SOL     OW42898   9.060  10.331   0.133
47020SOL    HW142899   9.089  10.375   0.053
47020SOL    HW242900   9.051  10.239   0.107
47021SOL     OW42901   2.299   7.481   5.152
47021SOL    HW142902   2.392   7.464   5.167
47021SOL    HW242903   2.273   7.417   5.085
47022SOL     OW42904   3.443  14.048   6.517
47022SOL    HW142905   3.380  14.048   6.445
47022SOL    HW242906   3.406  14.107   6.582
47023SOL     OW42907  13.544   6.260  10.441
47023SOL    HW142908  13.550   6.171  10.405
47023SOL    HW242909  13.451   6.276  10.451
47024SOL     OW42910   6.451  11.792  10.069
47024SOL    HW142911   6.498  11.743  10.001
47024SOL    HW242912   6.385  11.732  10.101
47025SOL     OW42913   9.519  11.429   5.440
47025SOL    HW142914   9.426  11.416   5.458
47025SOL    HW242915   9.556  11.456   5.524
47026SOL     OW42916   7.506   4.278  10.891
47026SOL    HW142917   7.530   4.309  10.978
47026SOL    HW242918   7.472   4.355  10.847
47027SOL     OW42919  14.570   9.196   6.406
47027SOL    HW142920  14.613   9.155   6.331
47027SOL    HW242921  14.614   9.158   6.482
47028SOL     OW42922   8.795  12.655  12.521
47028SOL    HW142923   8.770  12.567  12.550
47028SOL    HW242924   8.878  12.643  12.476
47029SOL     OW42925   3.191   3.437   5.398
47029SOL    HW142926   3.145   3.359   5.428
47029SOL    HW242927   3.126   3.507   5.403
47030SOL     OW42928   5.741  11.980   1.794
47030SOL    HW142929   5.737  12.010   1.885
47030SOL    HW242930   5.661  12.014   1.754
47031SOL     OW42931   7.473   7.662  12.538
47031SOL    HW142932   7.507   7.719  12.607
47031SOL    HW242933   7.378   7.674  12.541
47032SOL     OW42934   1.071  10.141  12.576
47032SOL    HW142935   1.127  10.191  12.636
47032SOL    HW242936   0.982  10.173  12.594
47033SOL     OW42937   8.242   1.154  11.651
47033SOL    HW142938   8.249   1.059  11.637
47033SOL    HW242939   8.333   1.184  11.658
47034SOL     OW42940   8.198   2.100   6.929
47034SOL    HW142941   8.113   2.086   6.969
47034SOL    HW242942   8.234   2.177   6.973
47035SOL     OW42943  11.298  11.997   0.490
47035SOL    HW142944  11.349  11.923   0.521
47035SOL    HW242945  11.355  12.042   0.428
47036SOL     OW42946   8.003   9.152  11.038
47036SOL    HW142947   8.047   9.120  11.117
47036SOL    HW242948   7.938   9.085  11.018
47037SOL     OW42949   4.178   2.618   1.591
47037SOL    HW142950   4.177   2.595   1.684
47037SOL    HW242951   4.198   2.712   1.589
47038SOL     OW42952   5.978   0.545  11.324
47038SOL    HW142953   6.050   0.491  11.355
47038SOL    HW242954   6.019   0.613  11.272
47039SOL     OW42955   2.684   1.239  10.908
47039SOL    HW142956   2.592   1.261  10.891
47039SOL    HW242957   2.683   1.145  10.926
47040SOL     OW42958  13.843   7.883  10.084
47040SOL    HW142959  13.792   7.956  10.050
47040SOL    HW242960  13.916   7.923  10.130
47041SOL     OW42961   4.271  12.407   3.119
47041SOL    HW142962   4.312  12.457   3.189
47041SOL    HW242963   4.344  12.370   3.069
47042SOL     OW42964   2.430  13.811   4.519
47042SOL    HW142965   2.517  13.819   4.480
47042SOL    HW242966   2.418  13.894   4.565
47043SOL     OW42967  12.659   8.360  13.138
47043SOL    HW142968  12.569   8.351  13.109
47043SOL    HW242969  12.668   8.453  13.160
47044SOL     OW42970   2.799  10.544  10.577
47044SOL    HW142971   2.866  10.477  10.589
47044SOL    HW242972   2.843  10.627  10.596
47045SOL     OW42973   1.892  12.392  12.343
47045SOL    HW142974   1.978  12.433  12.348
47045SOL    HW242975   1.872  12.390  12.249
47046SOL     OW42976  14.556  14.803  10.326
47046SOL    HW142977  14.612  14.816  10.403
47046SOL    HW242978  14.599  14.733  10.277
47047SOL     OW42979   7.574  10.330   0.057
47047SOL    HW142980   7.647  10.298   0.110
47047SOL    HW242981   7.563  10.263  14.862
47048SOL     OW42982   9.385   9.820   5.882
47048SOL    HW142983   9.438   9.866   5.947
47048SOL    HW242984   9.309   9.789   5.931
47049SOL     OW42985  12.540  14.307  14.290
47049SOL    HW142986  12.612  14.262  14.335
47049SOL    HW242987  12.581  14.385  14.253
47050SOL     OW42988   0.370  11.051  13.413
47050SOL    HW142989   0.348  11.010  13.330
47050SOL    HW242990   0.300  11.115  13.428
47051SOL     OW42991   1.332   4.536   5.788
47051SOL    HW142992   1.283   4.454   5.786
47051SOL    HW242993   1.379   4.537   5.704
47052SOL     OW42994   7.732   8.734   7.361
47052SOL    HW142995   7.679   8.797   7.313
47052SOL    HW242996   7.755   8.667   7.296
47053SOL     OW42997  13.384   6.254  13.493
47053SOL    HW142998  13.472   6.218  13.477
47053SOL    HW242999  13.396   6.312  13.569
47054SOL     OW43000   9.292   6.101  13.173
47054SOL    HW143001   9.283   6.045  13.250
47054SOL    HW243002   9.297   6.040  13.100
47055SOL     OW43003   1.843  11.409  12.740
47055SOL    HW143004   1.800  11.395  12.824
47055SOL    HW243005   1.810  11.493  12.709
47056SOL     OW43006   8.841   5.798  12.547
47056SOL    HW143007   8.799   5.740  12.483
47056SOL    HW243008   8.918   5.750  12.576
47057SOL     OW43009  10.584   4.072   1.139
47057SOL    HW143010  10.573   3.978   1.121
47057SOL    HW243011  10.598   4.111   1.052
47058SOL     OW43012   3.322   6.955  11.716
47058SOL    HW143013   3.397   6.950  11.774
47058SOL    HW243014   3.247   6.964  11.774
47059SOL     OW43015   8.386   8.988   6.821
47059SOL    HW143016   8.470   9.018   6.857
47059SOL    HW243017   8.398   8.993   6.726
47060SOL     OW43018   4.498  12.188  14.352
47060SOL    HW143019   4.574  12.246  14.352
47060SOL    HW243020   4.530  12.106  14.390
47061SOL     OW43021   3.718   1.428   7.101
47061SOL    HW143022   3.755   1.516   7.091
47061SOL    HW243023   3.791   1.369   7.084
47062SOL     OW43024   2.728   5.259   3.648
47062SOL    HW143025   2.646   5.284   3.607
47062SOL    HW243026   2.780   5.220   3.577
47063SOL     OW43027  14.173  10.977  12.470
47063SOL    HW143028  14.117  10.915  12.422
47063SOL    HW243029  14.252  10.984  12.418
47064SOL     OW43030  11.727   4.356   1.365
47064SOL    HW143031  11.663   4.330   1.299
47064SOL    HW243032  11.679   4.416   1.423
47065SOL     OW43033   7.037   8.142   7.521
47065SOL    HW143034   7.091   8.070   7.490
47065SOL    HW243035   7.029   8.200   7.445
47066SOL     OW43036  12.104  11.598   1.976
47066SOL    HW143037  12.138  11.616   1.888
47066SOL    HW243038  12.024  11.651   1.982
47067SOL     OW43039   5.913  13.924  11.305
47067SOL    HW143040   5.980  13.857  11.294
47067SOL    HW243041   5.889  13.949  11.216
47068SOL     OW43042   9.318   1.903  11.134
47068SOL    HW143043   9.342   1.994  11.114
47068SOL    HW243044   9.379   1.877  11.203
47069SOL     OW43045   1.126   4.812   4.081
47069SOL    HW143046   1.088   4.900   4.079
47069SOL    HW243047   1.198   4.819   4.145
47070SOL     OW43048   3.997   5.476  14.167
47070SOL    HW143049   3.973   5.517  14.084
47070SOL    HW243050   4.017   5.385  14.144
47071SOL     OW43051   9.388  14.276   3.947
47071SOL    HW143052   9.350  14.286   4.034
47071SOL    HW243053   9.319  14.235   3.895
47072SOL     OW43054   7.815  12.345  12.083
47072SOL    HW143055   7.859  12.279  12.137
47072SOL    HW243056   7.872  12.421  12.087
47073SOL     OW43057   7.652   8.960   1.350
47073SOL    HW143058   7.658   8.870   1.382
47073SOL    HW243059   7.587   8.956   1.280
47074SOL     OW43060   7.719   0.156   0.277
47074SOL    HW143061   7.683   0.077   0.237
47074SOL    HW243062   7.647   0.190   0.331
47075SOL     OW43063   4.138   6.769   3.157
47075SOL    HW143064   4.061   6.712   3.161
47075SOL    HW243065   4.144   6.794   3.064
47076SOL     OW43066   8.111   0.788  13.373
47076SOL    HW143067   8.030   0.779  13.423
47076SOL    HW243068   8.104   0.722  13.304
47077SOL     OW43069   7.772  10.515   5.490
47077SOL    HW143070   7.836  10.536   5.559
47077SOL    HW243071   7.754  10.600   5.448
47078SOL     OW43072   8.789   5.788  11.354
47078SOL    HW143073   8.856   5.806  11.288
47078SOL    HW243074   8.751   5.704  11.328
47079SOL     OW43075   0.929   5.361   1.111
47079SOL    HW143076   0.849   5.404   1.081
47079SOL    HW243077   0.906   5.324   1.197
47080SOL     OW43078   7.666   7.175   8.090
47080SOL    HW143079   7.633   7.124   8.164
47080SOL    HW243080   7.742   7.126   8.059
47081SOL     OW43081   9.337   1.079  10.993
47081SOL    HW143082   9.430   1.073  11.017
47081SOL    HW243083   9.338   1.121  10.907
47082SOL     OW43084   3.029   3.835   6.440
47082SOL    HW143085   2.937   3.818   6.460
47082SOL    HW243086   3.077   3.765   6.486
47083SOL     OW43087   2.496   3.063   8.152
47083SOL    HW143088   2.424   3.126   8.141
47083SOL    HW243089   2.499   3.048   8.247
47084SOL     OW43090  11.549  10.900   7.097
47084SOL    HW143091  11.621  10.872   7.042
47084SOL    HW243092  11.535  10.828   7.158
47085SOL     OW43093   1.521   6.270  11.198
47085SOL    HW143094   1.546   6.354  11.237
47085SOL    HW243095   1.515   6.210  11.272
47086SOL     OW43096  14.024  14.133   4.847
47086SOL    HW143097  13.943  14.140   4.897
47086SOL    HW243098  13.997  14.138   4.756
47087SOL     OW43099   4.029   1.545   5.672
47087SOL    HW143100   4.081   1.542   5.592
47087SOL    HW243101   4.044   1.632   5.708
47088SOL     OW43102  10.437   4.743   7.677
47088SOL    HW143103  10.484   4.732   7.760
47088SOL    HW243104  10.501   4.787   7.620
47089SOL     OW43105  11.234  10.490   2.514
47089SOL    HW143106  11.311  10.435   2.527
47089SOL    HW243107  11.174  10.465   2.585
47090SOL     OW43108   3.471   3.321  11.905
47090SOL    HW143109   3.562   3.333  11.879
47090SOL    HW243110   3.475   3.279  11.990
47091SOL     OW43111   5.121  13.266   0.975
47091SOL    HW143112   5.038  13.241   0.935
47091SOL    HW243113   5.138  13.354   0.941
47092SOL     OW43114   7.174  11.083  14.356
47092SOL    HW143115   7.236  11.118  14.292
47092SOL    HW243116   7.213  11.000  14.384
47093SOL     OW43117   9.930   7.656   5.326
47093SOL    HW143118  10.023   7.662   5.307
47093SOL    HW243119   9.888   7.647   5.240
47094SOL     OW43120   4.118   3.501   4.721
47094SOL    HW143121   4.043   3.446   4.697
47094SOL    HW243122   4.151   3.462   4.801
47095SOL     OW43123   7.559  10.263   8.280
47095SOL    HW143124   7.567  10.317   8.201
47095SOL    HW243125   7.493  10.308   8.332
47096SOL     OW43126   9.464   7.449  10.767
47096SOL    HW143127   9.416   7.465  10.849
47096SOL    HW243128   9.556   7.457  10.791
47097SOL     OW43129   0.254   0.683  14.474
47097SOL    HW143130   0.316   0.676  14.547
47097SOL    HW243131   0.307   0.712  14.400
47098SOL     OW43132   4.831   9.461   0.805
47098SOL    HW143133   4.871   9.391   0.754
47098SOL    HW243134   4.748   9.478   0.761
47099SOL     OW43135   1.982  12.049   6.561
47099SOL    HW143136   1.943  12.134   6.582
47099SOL    HW243137   1.946  11.989   6.626
47100SOL     OW43138   7.576  14.688  13.985
47100SOL    HW143139   7.630  14.728  14.052
47100SOL    HW243140   7.634  14.677  13.910
47101SOL     OW43141   3.311   6.786  13.600
47101SOL    HW143142   3.381   6.753  13.544
47101SOL    HW243143   3.348   6.783  13.689
47102SOL     OW43144  14.550   1.013   4.684
47102SOL    HW143145  14.585   0.927   4.662
47102SOL    HW243146  14.455   1.002   4.682
47103SOL     OW43147   6.035  10.668   5.094
47103SOL    HW143148   6.048  10.677   5.188
47103SOL    HW243149   6.080  10.586   5.071
47104SOL     OW43150   8.933  11.967   5.308
47104SOL    HW143151   8.884  11.919   5.240
47104SOL    HW243152   8.901  11.931   5.390
47105SOL     OW43153   4.229   0.533   5.115
47105SOL    HW143154   4.238   0.481   5.035
47105SOL    HW243155   4.318   0.562   5.135
47106SOL     OW43156   5.510   6.103   6.987
47106SOL    HW143157   5.559   6.185   6.988
47106SOL    HW243158   5.567   6.040   7.030
47107SOL     OW43159   6.172   6.488   1.952
47107SOL    HW143160   6.080   6.493   1.927
47107SOL    HW243161   6.192   6.394   1.952
47108SOL     OW43162   2.000  11.859  11.083
47108SOL    HW143163   1.989  11.880  11.176
47108SOL    HW243164   2.048  11.933  11.047
47109SOL     OW43165  14.527   5.333   5.449
47109SOL    HW143166  14.448   5.285   5.473
47109SOL    HW243167  14.498   5.424   5.442
47110SOL     OW43168   7.469  13.351   0.176
47110SOL    HW143169   7.551  13.399   0.184
47110SOL    HW243170   7.413  13.409   0.124
47111SOL     OW43171  13.148   7.461  14.759
47111SOL    HW143172  13.193   7.535  14.719
47111SOL    HW243173  13.079   7.439  14.697
47112SOL     OW43174   4.537  10.699   5.586
47112SOL    HW143175   4.477  10.773   5.576
47112SOL    HW243176   4.550  10.692   5.681
47113SOL     OW43177  12.614   8.633  13.154
47113SOL    HW143178  12.565   8.710  13.181
47113SOL    HW243179  12.705   8.662  13.149
47114SOL     OW43180  11.979   0.315  14.256
47114SOL    HW143181  11.962   0.330  14.163
47114SOL    HW243182  11.944   0.228  14.274
47115SOL     OW43183   3.321   0.392   4.997
47115SOL    HW143184   3.254   0.414   5.062
47115SOL    HW243185   3.285   0.318   4.949
47116SOL     OW43186  11.509   5.928   6.762
47116SOL    HW143187  11.545   5.840   6.752
47116SOL    HW243188  11.521   5.948   6.855
47117SOL     OW43189   6.534   6.301   0.180
47117SOL    HW143190   6.627   6.314   0.198
47117SOL    HW243191   6.489   6.352   0.246
47118SOL     OW43192  11.742   6.605  13.042
47118SOL    HW143193  11.663   6.568  13.083
47118SOL    HW243194  11.728   6.700  13.047
47119SOL     OW43195   4.393   7.364   4.627
47119SOL    HW143196   4.458   7.323   4.684
47119SOL    HW243197   4.442   7.432   4.581
47120SOL     OW43198  11.314   0.561  12.965
47120SOL    HW143199  11.264   0.628  12.919
47120SOL    HW243200  11.392   0.547  12.911
47121SOL     OW43201   7.626  10.042   0.242
47121SOL    HW143202   7.682   9.969   0.215
47121SOL    HW243203   7.680  10.120   0.230
47122SOL     OW43204  12.859   5.328  13.435
47122SOL    HW143205  12.926   5.259  13.436
47122SOL    HW243206  12.799   5.304  13.505
47123SOL     OW43207   2.886   7.084  11.348
47123SOL    HW143208   2.970   7.098  11.391
47123SOL    HW243209   2.867   7.167  11.304
47124SOL     OW43210   9.081  11.587   9.539
47124SOL    HW143211   9.114  11.677   9.534
47124SOL    HW243212   8.992  11.597   9.573
47125SOL     OW43213   8.356   5.770   6.094
47125SOL    HW143214   8.428   5.750   6.155
47125SOL    HW243215   8.352   5.866   6.094
47126SOL     OW43216  12.495   8.297   1.361
47126SOL    HW143217  12.589   8.294   1.380
47126SOL    HW243218  12.479   8.223   1.303
47127SOL     OW43219   0.319  11.710   3.615
47127SOL    HW143220   0.316  11.724   3.521
47127SOL    HW243221   0.347  11.795   3.651
47128SOL     OW43222   0.633  12.576   0.777
47128SOL    HW143223   0.560  12.635   0.798
47128SOL    HW243224   0.606  12.491   0.815
47129SOL     OW43225   2.521   4.610   9.814
47129SOL    HW143226   2.529   4.524   9.773
47129SOL    HW243227   2.431   4.637   9.797
47130SOL     OW43228   9.746   6.160   8.973
47130SOL    HW143229   9.817   6.161   9.038
47130SOL    HW243230   9.666   6.165   9.025
47131SOL     OW43231   6.010   9.024   6.733
47131SOL    HW143232   6.083   9.072   6.693
47131SOL    HW243233   6.022   8.933   6.704
47132SOL     OW43234   0.620   2.295   3.167
47132SOL    HW143235   0.603   2.367   3.228
47132SOL    HW243236   0.544   2.237   3.177
47133SOL     OW43237   6.832  11.107   6.813
47133SOL    HW143238   6.840  11.131   6.905
47133SOL    HW243239   6.750  11.057   6.808
47134SOL     OW43240   4.122   5.050   4.592
47134SOL    HW143241   4.034   5.087   4.583
47134SOL    HW243242   4.178   5.109   4.542
47135SOL     OW43243   4.235  13.841  14.379
47135SOL    HW143244   4.295  13.857  14.452
47135SOL    HW243245   4.172  13.776  14.413
47136SOL     OW43246   1.371   6.797   6.070
47136SOL    HW143247   1.346   6.861   6.003
47136SOL    HW243248   1.290   6.778   6.117
47137SOL     OW43249   2.335   5.927   8.535
47137SOL    HW143250   2.292   5.911   8.619
47137SOL    HW243251   2.422   5.887   8.545
47138SOL     OW43252   8.211  14.336   0.059
47138SOL    HW143253   8.239  14.334   0.151
47138SOL    HW243254   8.116  14.328   0.062
47139SOL     OW43255  13.165  12.594   0.591
47139SOL    HW143256  13.240  12.590   0.651
47139SOL    HW243257  13.118  12.513   0.607
47140SOL     OW43258   2.183   8.775   2.007
47140SOL    HW143259   2.199   8.689   2.046
47140SOL    HW243260   2.252   8.785   1.942
47141SOL     OW43261   6.575  14.641   5.205
47141SOL    HW143262   6.662  14.629   5.168
47141SOL    HW243263   6.574  14.586   5.283
47142SOL     OW43264   4.044   5.877   2.128
47142SOL    HW143265   4.031   5.859   2.034
47142SOL    HW243266   3.956   5.872   2.165
47143SOL     OW43267   0.687   2.419   9.647
47143SOL    HW143268   0.673   2.359   9.574
47143SOL    HW243269   0.764   2.469   9.623
47144SOL     OW43270   7.898   8.932   0.273
47144SOL    HW143271   7.876   8.877   0.348
47144SOL    HW243272   7.975   8.981   0.300
47145SOL     OW43273   8.126   6.706   7.946
47145SOL    HW143274   8.119   6.800   7.930
47145SOL    HW243275   8.047   6.669   7.905
47146SOL     OW43276   3.169   1.909   2.444
47146SOL    HW143277   3.194   1.863   2.364
47146SOL    HW243278   3.250   1.950   2.473
47147SOL     OW43279  14.720   6.485   9.291
47147SOL    HW143280  14.698   6.401   9.332
47147SOL    HW243281  14.682   6.551   9.348
47148SOL     OW43282  14.505  14.391   2.695
47148SOL    HW143283  14.587  14.353   2.664
47148SOL    HW243284  14.442  14.319   2.694
47149SOL     OW43285   1.318   7.131   5.958
47149SOL    HW143286   1.402   7.155   5.918
47149SOL    HW243287   1.265   7.211   5.952
47150SOL     OW43288   8.859   6.853  13.190
47150SOL    HW143289   8.881   6.794  13.262
47150SOL    HW243290   8.809   6.924  13.230
47151SOL     OW43291   1.875   3.934   7.740
47151SOL    HW143292   1.881   3.993   7.665
47151SOL    HW243293   1.903   3.849   7.705
47152SOL     OW43294   0.591   6.324   4.795
47152SOL    HW143295   0.554   6.343   4.709
47152SOL    HW243296   0.534   6.256   4.831
47153SOL     OW43297  10.896   7.374   9.232
47153SOL    HW143298  10.910   7.312   9.303
47153SOL    HW243299  10.860   7.322   9.160
47154SOL     OW43300   2.261   8.383   4.822
47154SOL    HW143301   2.296   8.424   4.902
47154SOL    HW243302   2.194   8.322   4.854
47155SOL     OW43303  14.280  12.048   3.922
47155SOL    HW143304  14.373  12.033   3.935
47155SOL    HW243305  14.260  12.126   3.973
47156SOL     OW43306   9.406  13.605  12.487
47156SOL    HW143307   9.472  13.668  12.458
47156SOL    HW243308   9.324  13.655  12.487
47157SOL     OW43309  11.622   5.191   7.416
47157SOL    HW143310  11.529   5.171   7.402
47157SOL    HW243311  11.645   5.144   7.496
47158SOL     OW43312  10.654   9.568   4.074
47158SOL    HW143313  10.561   9.585   4.058
47158SOL    HW243314  10.656   9.483   4.118
47159SOL     OW43315  11.067  13.061   4.593
47159SOL    HW143316  11.068  12.978   4.641
47159SOL    HW243317  10.998  13.112   4.635
47160SOL     OW43318   4.238   6.121  13.219
47160SOL    HW143319   4.296   6.114  13.295
47160SOL    HW243320   4.154   6.149  13.254
47161SOL     OW43321  12.114   9.278  14.598
47161SOL    HW143322  12.124   9.222  14.521
47161SOL    HW243323  12.155   9.229  14.669
47162SOL     OW43324   1.863  12.063  11.545
47162SOL    HW143325   1.820  12.148  11.555
47162SOL    HW243326   1.792  11.999  11.550
47163SOL     OW43327   7.830  14.738  13.818
47163SOL    HW143328   7.794  14.827  13.806
47163SOL    HW243329   7.906  14.735  13.759
47164SOL     OW43330   8.051   0.146  13.778
47164SOL    HW143331   8.033   0.137  13.685
47164SOL    HW243332   8.142   0.120  13.788
47165SOL     OW43333   7.455   9.225  13.728
47165SOL    HW143334   7.439   9.132  13.743
47165SOL    HW243335   7.413   9.243  13.644
47166SOL     OW43336   1.377   1.687   3.109
47166SOL    HW143337   1.371   1.640   3.026
47166SOL    HW243338   1.432   1.763   3.090
47167SOL     OW43339   8.755   7.497   4.135
47167SOL    HW143340   8.674   7.491   4.085
47167SOL    HW243341   8.727   7.493   4.227
47168SOL     OW43342  13.826   1.505   7.271
47168SOL    HW143343  13.756   1.503   7.337
47168SOL    HW243344  13.799   1.438   7.208
47169SOL     OW43345  11.375   3.167   5.505
47169SOL    HW143346  11.368   3.259   5.530
47169SOL    HW243347  11.415   3.124   5.580
47170SOL     OW43348  11.685  14.326   6.454
47170SOL    HW143349  11.771  14.321   6.497
47170SOL    HW243350  11.697  14.278   6.372
47171SOL     OW43351  11.332  10.094  12.690
47171SOL    HW143352  11.346  10.016  12.745
47171SOL    HW243353  11.326  10.059  12.601
47172SOL     OW43354   6.058   3.362   1.188
47172SOL    HW143355   6.095   3.444   1.222
47172SOL    HW243356   6.125   3.296   1.207
47173SOL     OW43357   9.688   1.999   4.710
47173SOL    HW143358   9.604   1.961   4.683
47173SOL    HW243359   9.754   1.939   4.678
47174SOL     OW43360   5.801   7.184   3.698
47174SOL    HW143361   5.892   7.164   3.721
47174SOL    HW243362   5.761   7.099   3.680
47175SOL     OW43363   3.740  10.179  11.466
47175SOL    HW143364   3.708  10.189  11.377
47175SOL    HW243365   3.803  10.106  11.461
47176SOL     OW43366   2.485  14.729   4.946
47176SOL    HW143367   2.544  14.684   4.885
47176SOL    HW243368   2.398  14.715   4.909
47177SOL     OW43369  12.430  13.966   2.778
47177SOL    HW143370  12.401  13.994   2.691
47177SOL    HW243371  12.504  14.024   2.799
47178SOL     OW43372   2.639  14.305   1.432
47178SOL    HW143373   2.690  14.225   1.441
47178SOL    HW243374   2.612  14.307   1.340
47179SOL     OW43375  14.596   0.609   1.955
47179SOL    HW143376  14.572   0.532   1.903
47179SOL    HW243377  14.686   0.591   1.983
47180SOL     OW43378   2.382   5.290   6.534
47180SOL    HW143379   2.302   5.281   6.585
47180SOL    HW243380   2.408   5.200   6.514
47181SOL     OW43381   7.027   8.216  13.842
47181SOL    HW143382   7.033   8.311  13.847
47181SOL    HW243383   7.048   8.187  13.931
47182SOL     OW43384   2.130   5.765  12.283
47182SOL    HW143385   2.050   5.740  12.328
47182SOL    HW243386   2.112   5.745  12.191
47183SOL     OW43387  11.885  12.447   8.208
47183SOL    HW143388  11.873  12.411   8.296
47183SOL    HW243389  11.800  12.482   8.185
47184SOL     OW43390  13.206   0.068   6.689
47184SOL    HW143391  13.211   0.054   6.783
47184SOL    HW243392  13.151  14.870   6.657
47185SOL     OW43393   1.647   8.574   3.597
47185SOL    HW143394   1.574   8.610   3.548
47185SOL    HW243395   1.701   8.530   3.531
47186SOL     OW43396   9.909  12.210   8.877
47186SOL    HW143397   9.988  12.249   8.839
47186SOL    HW243398   9.843  12.279   8.873
47187SOL     OW43399   3.750  14.519   7.847
47187SOL    HW143400   3.710  14.528   7.933
47187SOL    HW243401   3.814  14.590   7.843
47188SOL     OW43402   7.947   8.073   8.837
47188SOL    HW143403   8.008   8.141   8.810
47188SOL    HW243404   7.934   8.087   8.930
47189SOL     OW43405  14.118  13.999   8.154
47189SOL    HW143406  14.164  13.983   8.237
47189SOL    HW243407  14.166  13.947   8.090
47190SOL     OW43408  14.497  10.833   9.854
47190SOL    HW143409  14.485  10.848   9.760
47190SOL    HW243410  14.498  10.738   9.863
47191SOL     OW43411   9.089   5.099  11.834
47191SOL    HW143412   9.108   5.131  11.746
47191SOL    HW243413   9.018   5.155  11.866
47192SOL     OW43414   6.701   4.438  12.122
47192SOL    HW143415   6.675   4.529  12.140
47192SOL    HW243416   6.767   4.418  12.189
47193SOL     OW43417   6.714  11.190  11.939
47193SOL    HW143418   6.715  11.281  11.970
47193SOL    HW243419   6.806  11.170  11.921
47194SOL     OW43420   3.967   5.545   2.739
47194SOL    HW143421   4.039   5.519   2.797
47194SOL    HW243422   3.910   5.599   2.793
47195SOL     OW43423  12.474   9.815  14.764
47195SOL    HW143424  12.409   9.748  14.745
47195SOL    HW243425  12.530   9.777  14.831
47196SOL     OW43426   9.787   7.086   5.258
47196SOL    HW143427   9.728   7.057   5.328
47196SOL    HW243428   9.774   7.180   5.253
47197SOL     OW43429  10.968   7.097   2.443
47197SOL    HW143430  10.985   7.006   2.419
47197SOL    HW243431  10.958   7.142   2.360
47198SOL     OW43432  11.572   1.739   0.257
47198SOL    HW143433  11.654   1.698   0.284
47198SOL    HW243434  11.574   1.739   0.162
47199SOL     OW43435   7.033   7.728   5.338
47199SOL    HW143436   7.053   7.695   5.250
47199SOL    HW243437   7.047   7.823   5.332
47200SOL     OW43438   8.975   1.910  14.714
47200SOL    HW143439   8.892   1.920  14.668
47200SOL    HW243440   8.969   1.972  14.787
47201SOL     OW43441   9.868  12.291   5.983
47201SOL    HW143442   9.785  12.288   5.935
47201SOL    HW243443   9.862  12.370   6.036
47202SOL     OW43444   7.564   9.537  14.011
47202SOL    HW143445   7.605   9.586  14.082
47202SOL    HW243446   7.503   9.477  14.054
47203SOL     OW43447   6.789   6.289   7.481
47203SOL    HW143448   6.788   6.208   7.532
47203SOL    HW243449   6.833   6.352   7.537
47204SOL     OW43450   8.819   6.527   7.341
47204SOL    HW143451   8.893   6.476   7.307
47204SOL    HW243452   8.762   6.462   7.383
47205SOL     OW43453   0.349   8.948   5.932
47205SOL    HW143454   0.377   9.001   6.006
47205SOL    HW243455   0.268   8.906   5.962
47206SOL     OW43456  12.193   4.339   3.937
47206SOL    HW143457  12.245   4.300   4.008
47206SOL    HW243458  12.216   4.288   3.859
47207SOL     OW43459  11.217   7.283  14.331
47207SOL    HW143460  11.186   7.313  14.416
47207SOL    HW243461  11.141   7.291  14.274
47208SOL     OW43462   2.755   6.736   3.987
47208SOL    HW143463   2.687   6.694   3.934
47208SOL    HW243464   2.792   6.803   3.929
47209SOL     OW43465   7.723  13.398   2.476
47209SOL    HW143466   7.738  13.355   2.392
47209SOL    HW243467   7.781  13.353   2.537
47210SOL     OW43468   8.809   0.494   0.942
47210SOL    HW143469   8.734   0.463   0.993
47210SOL    HW243470   8.881   0.436   0.967
47211SOL     OW43471   0.155  10.192  11.680
47211SOL    HW143472   0.087  10.224  11.621
47211SOL    HW243473   0.188  10.112  11.639
47212SOL     OW43474   1.438   5.559   9.110
47212SOL    HW143475   1.524   5.595   9.086
47212SOL    HW243476   1.426   5.585   9.201
47213SOL     OW43477   2.828  13.601  11.993
47213SOL    HW143478   2.788  13.679  12.033
47213SOL    HW243479   2.769  13.529  12.018
47214SOL     OW43480   4.464  14.255   7.974
47214SOL    HW143481   4.486  14.162   7.966
47214SOL    HW243482   4.384  14.265   7.922
47215SOL     OW43483   1.337  10.074  10.890
47215SOL    HW143484   1.286  10.141  10.846
47215SOL    HW243485   1.287   9.993  10.877
47216SOL     OW43486   8.836   3.253  12.800
47216SOL    HW143487   8.903   3.316  12.825
47216SOL    HW243488   8.853   3.176  12.855
47217SOL     OW43489  13.763   7.860  13.306
47217SOL    HW143490  13.815   7.913  13.367
47217SOL    HW243491  13.698   7.920  13.271
47218SOL     OW43492  12.392   3.491   6.722
47218SOL    HW143493  12.423   3.401   6.715
47218SOL    HW243494  12.370   3.502   6.815
47219SOL     OW43495   9.011   9.839  13.661
47219SOL    HW143496   9.006   9.905  13.731
47219SOL    HW243497   9.034   9.758  13.706
47220SOL     OW43498  14.646  13.817   2.471
47220SOL    HW143499  14.650  13.725   2.443
47220SOL    HW243500  14.613  13.864   2.395
47221SOL     OW43501  11.704   0.975   7.931
47221SOL    HW143502  11.790   0.934   7.939
47221SOL    HW243503  11.683   0.969   7.838
47222SOL     OW43504  13.103   2.871   4.334
47222SOL    HW143505  13.125   2.802   4.271
47222SOL    HW243506  13.188   2.900   4.368
47223SOL     OW43507   1.490   4.757  11.694
47223SOL    HW143508   1.457   4.726  11.610
47223SOL    HW243509   1.412   4.775  11.746
47224SOL     OW43510   9.297   3.613  10.786
47224SOL    HW143511   9.228   3.645  10.728
47224SOL    HW243512   9.257   3.610  10.873
47225SOL     OW43513   3.323   1.850   5.773
47225SOL    HW143514   3.317   1.907   5.849
47225SOL    HW243515   3.238   1.805   5.771
47226SOL     OW43516  11.651   3.493   3.102
47226SOL    HW143517  11.642   3.399   3.087
47226SOL    HW243518  11.743   3.505   3.125
47227SOL     OW43519   3.181  10.130   8.708
47227SOL    HW143520   3.113  10.074   8.670
47227SOL    HW243521   3.260  10.075   8.706
47228SOL     OW43522   9.348  13.310  12.490
47228SOL    HW143523   9.283  13.293  12.421
47228SOL    HW243524   9.360  13.405  12.488
47229SOL     OW43525  12.251   0.265  14.055
47229SOL    HW143526  12.158   0.285  14.054
47229SOL    HW243527  12.262   0.202  14.126
47230SOL     OW43528   5.661  11.074  14.746
47230SOL    HW143529   5.706  11.106  14.824
47230SOL    HW243530   5.727  11.080  14.676
47231SOL     OW43531   0.633   8.929   4.318
47231SOL    HW143532   0.717   8.910   4.361
47231SOL    HW243533   0.577   8.854   4.341
47232SOL     OW43534   3.620  10.811   8.349
47232SOL    HW143535   3.604  10.717   8.340
47232SOL    HW243536   3.648  10.822   8.440
47233SOL     OW43537  13.512   9.971   5.531
47233SOL    HW143538  13.447   9.993   5.464
47233SOL    HW243539  13.488   9.882   5.558
47234SOL     OW43540   6.809   6.637  13.191
47234SOL    HW143541   6.823   6.657  13.283
47234SOL    HW243542   6.893   6.656  13.149
47235SOL     OW43543  11.741   9.052   6.742
47235SOL    HW143544  11.793   9.084   6.815
47235SOL    HW243545  11.756   8.957   6.741
47236SOL     OW43546   0.582  10.411   8.297
47236SOL    HW143547   0.498  10.455   8.284
47236SOL    HW243548   0.593  10.408   8.392
47237SOL     OW43549   0.813  14.227   0.947
47237SOL    HW143550   0.730  14.259   0.980
47237SOL    HW243551   0.877  14.293   0.974
47238SOL     OW43552   1.715  13.688   8.051
47238SOL    HW143553   1.631  13.656   8.019
47238SOL    HW243554   1.780  13.627   8.014
47239SOL     OW43555   0.696   0.890  12.191
47239SOL    HW143556   0.713   0.982  12.214
47239SOL    HW243557   0.758   0.872  12.120
47240SOL     OW43558  11.548   6.942  11.157
47240SOL    HW143559  11.484   6.909  11.094
47240SOL    HW243560  11.507   6.928  11.242
47241SOL     OW43561   1.913   1.412   6.302
47241SOL    HW143562   1.864   1.393   6.382
47241SOL    HW243563   1.880   1.498   6.274
47242SOL     OW43564  13.811   1.469  11.187
47242SOL    HW143565  13.740   1.406  11.184
47242SOL    HW243566  13.784   1.533  11.253
47243SOL     OW43567  11.087  13.997   5.748
47243SOL    HW143568  11.037  13.916   5.749
47243SOL    HW243569  11.176  13.970   5.724
47244SOL     OW43570  11.375   7.383   5.044
47244SOL    HW143571  11.323   7.311   5.008
47244SOL    HW243572  11.351   7.459   4.992
47245SOL     OW43573   9.275   6.778   0.266
47245SOL    HW143574   9.304   6.812   0.182
47245SOL    HW243575   9.182   6.801   0.270
47246SOL     OW43576  11.078  10.715   9.830
47246SOL    HW143577  11.047  10.792   9.878
47246SOL    HW243578  11.054  10.733   9.739
47247SOL     OW43579   3.839  11.777   9.664
47247SOL    HW143580   3.846  11.727   9.745
47247SOL    HW243581   3.851  11.868   9.691
47248SOL     OW43582   0.850  14.284  12.662
47248SOL    HW143583   0.845  14.366  12.712
47248SOL    HW243584   0.938  14.251  12.678
47249SOL     OW43585   9.587  10.260  14.848
47249SOL    HW143586   9.613  10.216  14.767
47249SOL    HW243587   9.512  10.209   0.005
47250SOL     OW43588   5.213  11.135  11.425
47250SOL    HW143589   5.195  11.201  11.491
47250SOL    HW243590   5.256  11.064  11.472
47251SOL     OW43591   5.837   3.796   0.616
47251SOL    HW143592   5.848   3.891   0.628
47251SOL    HW243593   5.900   3.757   0.676
47252SOL     OW43594   9.915   8.044  10.852
47252SOL    HW143595   9.884   7.956  10.832
47252SOL    HW243596   9.953   8.075  10.769
47253SOL     OW43597   5.773   5.925  13.063
47253SOL    HW143598   5.689   5.968  13.077
47253SOL    HW243599   5.838   5.989  13.093
47254SOL     OW43600  11.013   1.073   8.340
47254SOL    HW143601  10.923   1.098   8.360
47254SOL    HW243602  11.056   1.069   8.425
47255SOL     OW43603   7.995  11.228   3.537
47255SOL    HW143604   8.002  11.143   3.492
47255SOL    HW243605   7.954  11.286   3.473
47256SOL     OW43606   5.980   5.989   8.618
47256SOL    HW143607   6.050   5.979   8.682
47256SOL    HW243608   5.985   5.910   8.564
47257SOL     OW43609  10.894   2.510   2.086
47257SOL    HW143610  10.816   2.517   2.141
47257SOL    HW243611  10.924   2.600   2.075
47258SOL     OW43612  12.074  10.560   6.761
47258SOL    HW143613  11.994  10.552   6.812
47258SOL    HW243614  12.121  10.634   6.801
47259SOL     OW43615  12.271   7.757   3.639
47259SOL    HW143616  12.237   7.698   3.572
47259SOL    HW243617  12.234   7.724   3.721
47260SOL     OW43618   1.601   8.492   5.252
47260SOL    HW143619   1.611   8.486   5.157
47260SOL    HW243620   1.601   8.401   5.282
47261SOL     OW43621   4.552   4.098   4.968
47261SOL    HW143622   4.477   4.054   5.010
47261SOL    HW243623   4.525   4.108   4.876
47262SOL     OW43624   8.430   2.079   7.715
47262SOL    HW143625   8.397   2.168   7.705
47262SOL    HW243626   8.525   2.086   7.705
47263SOL     OW43627  14.698   0.657  12.012
47263SOL    HW143628  14.698   0.568  11.976
47263SOL    HW243629  14.612   0.666  12.054
47264SOL     OW43630  12.004   3.544   7.164
47264SOL    HW143631  11.915   3.518   7.189
47264SOL    HW243632  12.047   3.462   7.139
47265SOL     OW43633   5.934   0.589   4.124
47265SOL    HW143634   5.964   0.518   4.181
47265SOL    HW243635   5.839   0.579   4.122
47266SOL     OW43636   9.309  11.805   3.158
47266SOL    HW143637   9.377  11.776   3.219
47266SOL    HW243638   9.241  11.737   3.164
47267SOL     OW43639   6.369   0.944   1.388
47267SOL    HW143640   6.418   0.870   1.425
47267SOL    HW243641   6.280   0.911   1.378
47268SOL     OW43642   0.921   6.110   1.984
47268SOL    HW143643   0.954   6.030   1.943
47268SOL    HW243644   0.861   6.080   2.052
47269SOL     OW43645   6.972   6.654  10.694
47269SOL    HW143646   7.016   6.655  10.609
47269SOL    HW243647   7.029   6.704  10.752
47270SOL     OW43648  13.489  12.371  12.784
47270SOL    HW143649  13.485  12.466  12.786
47270SOL    HW243650  13.398  12.343  12.792
47271SOL     OW43651   8.412  13.099  12.373
47271SOL    HW143652   8.489  13.067  12.327
47271SOL    HW243653   8.435  13.094  12.466
47272SOL     OW43654   5.224  14.314   9.782
47272SOL    HW143655   5.241  14.231   9.738
47272SOL    HW243656   5.269  14.379   9.728
47273SOL     OW43657  14.187   9.510   1.689
47273SOL    HW143658  14.140   9.567   1.629
47273SOL    HW243659  14.123   9.490   1.758
47274SOL     OW43660   3.511   9.768   0.221
47274SOL    HW143661   3.467   9.687   0.246
47274SOL    HW243662   3.443   9.819   0.177
47275SOL     OW43663  11.066  12.485   8.157
47275SOL    HW143664  11.154  12.482   8.195
47275SOL    HW243665  11.035  12.395   8.159
47276SOL     OW43666  11.675  12.600   8.144
47276SOL    HW143667  11.631  12.613   8.060
47276SOL    HW243668  11.716  12.684   8.163
47277SOL     OW43669  13.123  13.518   8.437
47277SOL    HW143670  13.150  13.460   8.366
47277SOL    HW243671  13.130  13.465   8.516
47278SOL     OW43672  12.204   4.862   0.706
47278SOL    HW143673  12.140   4.800   0.671
47278SOL    HW243674  12.289   4.826   0.680
47279SOL     OW43675  12.925   0.074   3.887
47279SOL    HW143676  12.955   0.092   3.976
47279SOL    HW243677  12.937  14.853   3.877
47280SOL     OW43678   3.101   2.976  12.304
47280SOL    HW143679   3.149   2.894  12.298
47280SOL    HW243680   3.015   2.957  12.266
47281SOL     OW43681   2.617  12.238   4.185
47281SOL    HW143682   2.542  12.296   4.198
47281SOL    HW243683   2.636  12.244   4.091
47282SOL     OW43684   7.803   6.825   8.892
47282SOL    HW143685   7.897   6.815   8.876
47282SOL    HW243686   7.789   6.791   8.980
47283SOL     OW43687   3.426   3.358  14.001
47283SOL    HW143688   3.454   3.406  14.079
47283SOL    HW243689   3.505   3.352  13.947
47284SOL     OW43690   9.353   4.126   3.957
47284SOL    HW143691   9.439   4.167   3.944
47284SOL    HW243692   9.291   4.193   3.927
47285SOL     OW43693   0.813   2.744   8.049
47285SOL    HW143694   0.749   2.792   7.997
47285SOL    HW243695   0.778   2.744   8.138
47286SOL     OW43696  12.435  11.631  10.379
47286SOL    HW143697  12.404  11.560  10.324
47286SOL    HW243698  12.470  11.696  10.317
47287SOL     OW43699   6.892   1.681   9.234
47287SOL    HW143700   6.801   1.656   9.245
47287SOL    HW243701   6.890   1.756   9.174
47288SOL     OW43702   6.209   0.880  13.208
47288SOL    HW143703   6.218   0.865  13.302
47288SOL    HW243704   6.217   0.975  13.198
47289SOL     OW43705   1.536   4.148   1.956
47289SOL    HW143706   1.521   4.242   1.965
47289SOL    HW243707   1.622   4.141   1.914
47290SOL     OW43708   2.541  12.688  12.967
47290SOL    HW143709   2.476  12.649  12.908
47290SOL    HW243710   2.586  12.753  12.913
47291SOL     OW43711   8.133  13.782  14.136
47291SOL    HW143712   8.224  13.780  14.107
47291SOL    HW243713   8.139  13.791  14.231
47292SOL     OW43714   4.172  12.072   7.876
47292SOL    HW143715   4.156  12.004   7.942
47292SOL    HW243716   4.217  12.141   7.924
47293SOL     OW43717  12.696   9.586   0.707
47293SOL    HW143718  12.766   9.525   0.732
47293SOL    HW243719  12.648   9.600   0.789
47294SOL     OW43720  11.116  10.826   1.172
47294SOL    HW143721  11.050  10.877   1.219
47294SOL    HW243722  11.071  10.745   1.149
47295SOL     OW43723   0.139   9.156  13.959
47295SOL    HW143724   0.202   9.218  13.923
47295SOL    HW243725   0.177   9.070  13.942
47296SOL     OW43726   7.859   5.727   6.106
47296SOL    HW143727   7.772   5.714   6.068
47296SOL    HW243728   7.919   5.685   6.045
47297SOL     OW43729   0.126   1.195   5.791
47297SOL    HW143730   0.075   1.269   5.758
47297SOL    HW243731   0.063   1.123   5.794
47298SOL     OW43732  13.727  12.859   8.955
47298SOL    HW143733  13.788  12.887   9.023
47298SOL    HW243734  13.782  12.815   8.891
47299SOL     OW43735  13.139  10.221   0.786
47299SOL    HW143736  13.197  10.297   0.772
47299SOL    HW243737  13.106  10.232   0.875
47300SOL     OW43738   6.004  11.135   5.946
47300SOL    HW143739   5.994  11.040   5.954
47300SOL    HW243740   5.921  11.166   5.911
47301SOL     OW43741  11.780   8.463   7.462
47301SOL    HW143742  11.754   8.488   7.551
47301SOL    HW243743  11.714   8.399   7.435
47302SOL     OW43744   9.328  14.255  13.888
47302SOL    HW143745   9.314  14.195  13.961
47302SOL    HW243746   9.262  14.323  13.900
47303SOL     OW43747  10.792   1.744   8.419
47303SOL    HW143748  10.743   1.824   8.436
47303SOL    HW243749  10.767   1.719   8.330
47304SOL     OW43750   6.770  10.797   0.490
47304SOL    HW143751   6.838  10.767   0.551
47304SOL    HW243752   6.705  10.727   0.490
47305SOL     OW43753   3.619   2.649  10.940
47305SOL    HW143754   3.699   2.697  10.962
47305SOL    HW243755   3.548   2.712  10.956
47306SOL     OW43756   1.948   4.218  10.759
47306SOL    HW143757   1.889   4.253  10.692
47306SOL    HW243758   1.924   4.125  10.764
47307SOL     OW43759   4.845  12.879  10.358
47307SOL    HW143760   4.798  12.928  10.426
47307SOL    HW243761   4.936  12.906  10.367
47308SOL     OW43762   6.002   0.851  14.254
47308SOL    HW143763   5.958   0.934  14.270
47308SOL    HW243764   6.095   0.868  14.272
47309SOL     OW43765  13.047  12.215   1.770
47309SOL    HW143766  13.054  12.154   1.696
47309SOL    HW243767  13.034  12.301   1.729
47310SOL     OW43768   2.334  10.900  13.164
47310SOL    HW143769   2.266  10.948  13.211
47310SOL    HW243770   2.403  10.965  13.149
47311SOL     OW43771   4.169  11.783   5.024
47311SOL    HW143772   4.090  11.755   5.071
47311SOL    HW243773   4.196  11.706   4.974
47312SOL     OW43774   5.490   5.327   3.462
47312SOL    HW143775   5.456   5.274   3.390
47312SOL    HW243776   5.446   5.293   3.540
47313SOL     OW43777  14.057   9.345   9.979
47313SOL    HW143778  13.978   9.298   9.952
47313SOL    HW243779  14.060   9.333  10.074
47314SOL     OW43780   0.324  13.252   2.706
47314SOL    HW143781   0.339  13.195   2.631
47314SOL    HW243782   0.369  13.333   2.685
47315SOL     OW43783  11.137   6.744  10.303
47315SOL    HW143784  11.133   6.656  10.266
47315SOL    HW243785  11.068   6.792  10.257
47316SOL     OW43786   3.189   0.918   5.699
47316SOL    HW143787   3.115   0.863   5.726
47316SOL    HW243788   3.151   0.980   5.636
47317SOL     OW43789   9.211  12.585   4.562
47317SOL    HW143790   9.122  12.569   4.531
47317SOL    HW243791   9.267  12.554   4.491
47318SOL     OW43792   2.152   0.427  14.091
47318SOL    HW143793   2.099   0.504  14.109
47318SOL    HW243794   2.154   0.379  14.174
47319SOL     OW43795   8.976   8.297   4.212
47319SOL    HW143796   8.931   8.356   4.151
47319SOL    HW243797   8.981   8.213   4.166
47320SOL     OW43798   6.814   9.451  12.881
47320SOL    HW143799   6.901   9.435  12.917
47320SOL    HW243800   6.830   9.469  12.788
47321SOL     OW43801  11.706   3.708  11.338
47321SOL    HW143802  11.657   3.673  11.263
47321SOL    HW243803  11.788   3.740  11.300
47322SOL     OW43804   4.759  10.485   6.247
47322SOL    HW143805   4.715  10.529   6.320
47322SOL    HW243806   4.792  10.556   6.193
47323SOL     OW43807   2.008   9.555   9.108
47323SOL    HW143808   1.942   9.605   9.157
47323SOL    HW243809   2.039   9.490   9.170
47324SOL     OW43810   6.673   2.642   9.155
47324SOL    HW143811   6.674   2.712   9.090
47324SOL    HW243812   6.630   2.569   9.111
47325SOL     OW43813   6.862   3.620   0.652
47325SOL    HW143814   6.827   3.542   0.694
47325SOL    HW243815   6.901   3.588   0.570
47326SOL     OW43816   0.283  13.880   9.094
47326SOL    HW143817   0.231  13.939   9.040
47326SOL    HW243818   0.297  13.928   9.176
47327SOL     OW43819   0.329  10.054   5.709
47327SOL    HW143820   0.313  10.005   5.790
47327SOL    HW243821   0.381   9.994   5.655
47328SOL     OW43822  14.025   6.515  10.567
47328SOL    HW143823  13.992   6.442  10.618
47328SOL    HW243824  14.103   6.481  10.523
47329SOL     OW43825   8.407   3.055   8.552
47329SOL    HW143826   8.499   3.078   8.546
47329SOL    HW243827   8.403   2.984   8.616
47330SOL     OW43828  12.797   9.688  11.357
47330SOL    HW143829  12.763   9.749  11.423
47330SOL    HW243830  12.891   9.684  11.374
47331SOL     OW43831   4.533   1.368  10.106
47331SOL    HW143832   4.566   1.413  10.185
47331SOL    HW243833   4.596   1.299  10.090
47332SOL     OW43834   6.108  12.319  11.457
47332SOL    HW143835   6.047  12.341  11.386
47332SOL    HW243836   6.110  12.223  11.459
47333SOL     OW43837   2.738  14.044   0.304
47333SOL    HW143838   2.644  14.052   0.288
47333SOL    HW243839   2.770  14.134   0.300
47334SOL     OW43840   9.524   7.155   3.469
47334SOL    HW143841   9.587   7.194   3.409
47334SOL    HW243842   9.468   7.101   3.413
47335SOL     OW43843   7.039  10.849  10.246
47335SOL    HW143844   7.004  10.929  10.284
47335SOL    HW243845   7.059  10.793  10.321
47336SOL     OW43846   0.690  14.133   0.594
47336SOL    HW143847   0.750  14.200   0.561
47336SOL    HW243848   0.687  14.067   0.525
47337SOL     OW43849   2.030   0.422   6.019
47337SOL    HW143850   2.010   0.515   6.022
47337SOL    HW243851   1.969   0.382   6.081
47338SOL     OW43852  11.049   0.472   7.957
47338SOL    HW143853  11.116   0.525   8.000
47338SOL    HW243854  10.994   0.535   7.911
47339SOL     OW43855  12.641   3.527   0.737
47339SOL    HW143856  12.702   3.596   0.709
47339SOL    HW243857  12.558   3.573   0.750
47340SOL     OW43858   3.007   7.958   0.428
47340SOL    HW143859   2.981   7.883   0.482
47340SOL    HW243860   3.013   7.923   0.339
47341SOL     OW43861  13.368   7.426   7.790
47341SOL    HW143862  13.369   7.522   7.784
47341SOL    HW243863  13.297   7.406   7.851
47342SOL     OW43864  13.886   7.716  10.311
47342SOL    HW143865  13.910   7.625  10.325
47342SOL    HW243866  13.830   7.714  10.233
47343SOL     OW43867  10.056   6.387   1.301
47343SOL    HW143868  10.112   6.382   1.223
47343SOL    HW243869   9.968   6.368   1.268
47344SOL     OW43870   2.689  11.845   6.817
47344SOL    HW143871   2.680  11.796   6.735
47344SOL    HW243872   2.609  11.898   6.823
47345SOL     OW43873  13.706   3.222   0.877
47345SOL    HW143874  13.650   3.161   0.925
47345SOL    HW243875  13.646   3.289   0.846
47346SOL     OW43876   4.874  12.448   2.031
47346SOL    HW143877   4.853  12.540   2.048
47346SOL    HW243878   4.920  12.449   1.948
47347SOL     OW43879   4.710   2.845  13.738
47347SOL    HW143880   4.738   2.824  13.649
47347SOL    HW243881   4.735   2.936  13.750
47348SOL     OW43882  11.672   2.664   2.887
47348SOL    HW143883  11.602   2.661   2.822
47348SOL    HW243884  11.735   2.728   2.852
47349SOL     OW43885   6.983  14.859  12.995
47349SOL    HW143886   6.958   0.029  13.077
47349SOL    HW243887   7.069  14.823  13.013
47350SOL     OW43888  13.725  12.096  11.960
47350SOL    HW143889  13.634  12.115  11.936
47350SOL    HW243890  13.774  12.105  11.878
47351SOL     OW43891   2.033   9.182   5.646
47351SOL    HW143892   2.110   9.129   5.666
47351SOL    HW243893   1.973   9.165   5.719
47352SOL     OW43894   0.361  14.611   9.320
47352SOL    HW143895   0.348  14.524   9.359
47352SOL    HW243896   0.392  14.664   9.393
47353SOL     OW43897  14.542  10.707   9.383
47353SOL    HW143898  14.575  10.622   9.410
47353SOL    HW243899  14.476  10.687   9.316
47354SOL     OW43900   3.700   4.196   9.322
47354SOL    HW143901   3.707   4.266   9.257
47354SOL    HW243902   3.783   4.199   9.370
47355SOL     OW43903  13.061   2.937   3.441
47355SOL    HW143904  13.064   3.021   3.396
47355SOL    HW243905  12.986   2.892   3.402
47356SOL     OW43906  11.853   5.651   3.265
47356SOL    HW143907  11.904   5.573   3.288
47356SOL    HW243908  11.827   5.636   3.174
47357SOL     OW43909   9.719   6.926   6.820
47357SOL    HW143910   9.678   6.969   6.744
47357SOL    HW243911   9.739   6.838   6.790
47358SOL     OW43912  13.905  11.634   3.984
47358SOL    HW143913  13.915  11.707   3.922
47358SOL    HW243914  13.858  11.672   4.058
47359SOL     OW43915   8.078   6.893   1.375
47359SOL    HW143916   8.146   6.900   1.442
47359SOL    HW243917   8.126   6.900   1.292
47360SOL     OW43918   0.159  11.851   8.713
47360SOL    HW143919   0.209  11.820   8.637
47360SOL    HW243920   0.133  11.940   8.690
47361SOL     OW43921   0.691   0.615   5.518
47361SOL    HW143922   0.638   0.535   5.518
47361SOL    HW243923   0.780   0.584   5.507
47362SOL     OW43924   3.977  10.030   1.638
47362SOL    HW143925   3.901  10.067   1.593
47362SOL    HW243926   3.994   9.947   1.593
47363SOL     OW43927   9.657  10.006  13.789
47363SOL    HW143928   9.611  10.081  13.751
47363SOL    HW243929   9.706   9.969  13.716
47364SOL     OW43930   7.884   1.594   3.052
47364SOL    HW143931   7.813   1.658   3.047
47364SOL    HW243932   7.865   1.531   2.983
47365SOL     OW43933   2.436  13.354   8.964
47365SOL    HW143934   2.427  13.324   9.054
47365SOL    HW243935   2.490  13.288   8.921
47366SOL     OW43936   5.544   1.633   0.351
47366SOL    HW143937   5.575   1.564   0.409
47366SOL    HW243938   5.622   1.660   0.302
47367SOL     OW43939   9.333  11.260   1.493
47367SOL    HW143940   9.256  11.280   1.440
47367SOL    HW243941   9.354  11.169   1.472
47368SOL     OW43942  11.526   2.846   0.812
47368SOL    HW143943  11.470   2.878   0.742
47368SOL    HW243944  11.542   2.754   0.791
47369SOL     OW43945   6.473   9.167   6.061
47369SOL    HW143946   6.565   9.140   6.071
47369SOL    HW243947   6.468   9.204   5.973
47370SOL     OW43948   6.102   2.008  12.967
47370SOL    HW143949   6.086   2.096  12.931
47370SOL    HW243950   6.031   1.995  13.029
47371SOL     OW43951   1.703  12.437   9.501
47371SOL    HW143952   1.638  12.429   9.571
47371SOL    HW243953   1.651  12.451   9.421
47372SOL     OW43954   0.909   3.309  14.460
47372SOL    HW143955   0.883   3.259  14.537
47372SOL    HW243956   0.883   3.254  14.386
47373SOL     OW43957   7.941   3.812   1.365
47373SOL    HW143958   7.968   3.903   1.373
47373SOL    HW243959   7.939   3.796   1.270
47374SOL     OW43960   0.196   9.604  13.314
47374SOL    HW143961   0.129   9.566  13.371
47374SOL    HW243962   0.200   9.545  13.239
47375SOL     OW43963   9.725   7.443  11.816
47375SOL    HW143964   9.739   7.504  11.888
47375SOL    HW243965   9.768   7.362  11.843
47376SOL     OW43966   8.417  10.248   6.687
47376SOL    HW143967   8.359  10.309   6.641
47376SOL    HW243968   8.383  10.161   6.664
47377SOL     OW43969   0.466   0.634   4.354
47377SOL    HW143970   0.484   0.581   4.431
47377SOL    HW243971   0.512   0.588   4.283
47378SOL     OW43972  12.844  10.499  11.475
47378SOL    HW143973  12.805  10.530  11.557
47378SOL    HW243974  12.771  10.460  11.428
47379SOL     OW43975   2.556   9.347   5.356
47379SOL    HW143976   2.650   9.352   5.336
47379SOL    HW243977   2.522   9.432   5.328
47380SOL     OW43978   6.654  14.723  12.323
47380SOL    HW143979   6.673  14.645  12.271
47380SOL    HW243980   6.740  14.762  12.339
47381SOL     OW43981   1.790  11.856   1.913
47381SOL    HW143982   1.782  11.786   1.849
47381SOL    HW243983   1.834  11.927   1.865
47382SOL     OW43984   1.867   0.179   2.966
47382SOL    HW143985   1.856   0.085   2.951
47382SOL    HW243986   1.912   0.210   2.888
47383SOL     OW43987   5.804   6.855  12.232
47383SOL    HW143988   5.836   6.889  12.149
47383SOL    HW243989   5.742   6.787  12.208
47384SOL     OW43990   5.982  11.388   6.876
47384SOL    HW143991   5.917  11.357   6.939
47384SOL    HW243992   6.056  11.328   6.886
47385SOL     OW43993  14.351   6.712   6.506
47385SOL    HW143994  14.325   6.783   6.564
47385SOL    HW243995  14.441   6.732   6.481
47386SOL     OW43996  10.597   7.846   5.702
47386SOL    HW143997  10.552   7.869   5.621
47386SOL    HW243998  10.603   7.750   5.700
47387SOL     OW43999   4.380  12.264  13.610
47387SOL    HW144000   4.468  12.291  13.635
47387SOL    HW244001   4.373  12.173  13.639
47388SOL     OW44002  11.495  14.609   9.239
47388SOL    HW144003  11.584  14.636   9.214
47388SOL    HW244004  11.493  14.515   9.221
47389SOL     OW44005   4.964  14.802   4.263
47389SOL    HW144006   5.040  14.798   4.322
47389SOL    HW244007   4.908  14.870   4.301
47390SOL     OW44008   5.965   0.935  13.033
47390SOL    HW144009   5.949   1.014  12.981
47390SOL    HW244010   6.046   0.899  12.998
47391SOL     OW44011  10.874   4.827   3.885
47391SOL    HW144012  10.865   4.878   3.805
47391SOL    HW244013  10.956   4.779   3.874
47392SOL     OW44014   9.068   4.721  10.490
47392SOL    HW144015   9.037   4.655  10.427
47392SOL    HW244016   9.001   4.789  10.488
47393SOL     OW44017   1.798  10.693   7.523
47393SOL    HW144018   1.783  10.667   7.432
47393SOL    HW244019   1.855  10.769   7.518
47394SOL     OW44020   7.974  10.228   5.220
47394SOL    HW144021   8.009  10.302   5.268
47394SOL    HW244022   7.885  10.253   5.197
47395SOL     OW44023   4.132  13.340  11.806
47395SOL    HW144024   4.146  13.246  11.795
47395SOL    HW244025   4.062  13.346  11.872
47396SOL     OW44026   0.873   1.068   4.022
47396SOL    HW144027   0.918   1.127   4.082
47396SOL    HW244028   0.796   1.038   4.070
47397SOL     OW44029   7.425  11.953  13.619
47397SOL    HW144030   7.413  11.944  13.713
47397SOL    HW244031   7.470  12.037  13.608
47398SOL     OW44032   6.603   0.161   0.742
47398SOL    HW144033   6.522   0.112   0.753
47398SOL    HW244034   6.639   0.128   0.659
47399SOL     OW44035  14.434  14.780   0.022
47399SOL    HW144036  14.510  14.739   0.063
47399SOL    HW244037  14.365  14.714   0.029
47400SOL     OW44038  11.676  10.825   9.061
47400SOL    HW144039  11.653  10.903   9.112
47400SOL    HW244040  11.758  10.794   9.100
47401SOL     OW44041  12.351  10.581   4.791
47401SOL    HW144042  12.259  10.575   4.818
47401SOL    HW244043  12.399  10.591   4.873
47402SOL     OW44044  10.351   7.848   8.508
47402SOL    HW144045  10.263   7.827   8.478
47402SOL    HW244046  10.403   7.770   8.488
47403SOL     OW44047  13.712   4.754   6.914
47403SOL    HW144048  13.779   4.780   6.976
47403SOL    HW244049  13.661   4.687   6.960
47404SOL     OW44050  11.140   4.710   1.624
47404SOL    HW144051  11.058   4.680   1.585
47404SOL    HW244052  11.207   4.653   1.587
47405SOL     OW44053  14.395   6.669   5.818
47405SOL    HW144054  14.396   6.579   5.785
47405SOL    HW244055  14.430   6.721   5.746
47406SOL     OW44056  13.236   4.533  12.497
47406SOL    HW144057  13.331   4.539  12.484
47406SOL    HW244058  13.199   4.551  12.411
47407SOL     OW44059  10.104  10.376   8.349
47407SOL    HW144060  10.149  10.314   8.406
47407SOL    HW244061  10.012  10.350   8.351
47408SOL     OW44062   4.073   4.749   3.584
47408SOL    HW144063   4.092   4.655   3.579
47408SOL    HW244064   4.023   4.759   3.665
47409SOL     OW44065  14.131  11.192   3.463
47409SOL    HW144066  14.212  11.238   3.442
47409SOL    HW244067  14.063  11.240   3.415
47410SOL     OW44068   0.196  13.856  11.018
47410SOL    HW144069   0.228  13.914  10.948
47410SOL    HW244070   0.272  13.839  11.072
47411SOL     OW44071   3.912   1.627  12.566
47411SOL    HW144072   3.840   1.676  12.527
47411SOL    HW244073   3.969   1.604  12.493
47412SOL     OW44074   8.467  11.668   4.581
47412SOL    HW144075   8.526  11.739   4.558
47412SOL    HW244076   8.522  11.589   4.579
47413SOL     OW44077  12.642   0.876  12.653
47413SOL    HW144078  12.591   0.954  12.631
47413SOL    HW244079  12.581   0.803  12.643
47414SOL     OW44080   7.742  12.713   6.284
47414SOL    HW144081   7.722  12.622   6.304
47414SOL    HW244082   7.835  12.722   6.301
47415SOL     OW44083  14.584   2.593   8.519
47415SOL    HW144084  14.612   2.645   8.595
47415SOL    HW244085  14.489   2.586   8.529
47416SOL     OW44086   4.235   5.943  12.235
47416SOL    HW144087   4.242   6.007  12.307
47416SOL    HW244088   4.306   5.880  12.252
47417SOL     OW44089   7.080  14.374   2.948
47417SOL    HW144090   7.050  14.441   2.887
47417SOL    HW244091   7.171  14.358   2.924
47418SOL     OW44092   2.315  14.654  12.119
47418SOL    HW144093   2.315  14.750  12.117
47418SOL    HW244094   2.222  14.631  12.124
47419SOL     OW44095   5.146   1.030   7.015
47419SOL    HW144096   5.109   0.943   7.002
47419SOL    HW244097   5.181   1.055   6.930
47420SOL     OW44098   4.887   8.816   0.425
47420SOL    HW144099   4.939   8.745   0.389
47420SOL    HW244100   4.919   8.895   0.382
47421SOL     OW44101  13.991  11.257   0.760
47421SOL    HW144102  14.047  11.274   0.835
47421SOL    HW244103  13.934  11.185   0.787
47422SOL     OW44104  12.911  13.620   8.758
47422SOL    HW144105  12.869  13.583   8.680
47422SOL    HW244106  13.004  13.623   8.735
47423SOL     OW44107   9.045   2.345  11.686
47423SOL    HW144108   9.138   2.338  11.663
47423SOL    HW244109   9.029   2.440  11.688
47424SOL     OW44110   4.448  12.307   4.602
47424SOL    HW144111   4.414  12.379   4.656
47424SOL    HW244112   4.408  12.228   4.639
47425SOL     OW44113  10.599   1.103   7.284
47425SOL    HW144114  10.670   1.162   7.310
47425SOL    HW244115  10.639   1.016   7.284
47426SOL     OW44116   2.187  11.258  10.443
47426SOL    HW144117   2.116  11.278  10.504
47426SOL    HW244118   2.147  11.198  10.380
47427SOL     OW44119   1.588  11.474  13.840
47427SOL    HW144120   1.633  11.556  13.817
47427SOL    HW244121   1.495  11.497  13.841
47428SOL     OW44122   6.068   6.365   3.186
47428SOL    HW144123   6.040   6.457   3.184
47428SOL    HW244124   6.022   6.327   3.260
47429SOL     OW44125  11.854  12.445  12.196
47429SOL    HW144126  11.891  12.390  12.127
47429SOL    HW244127  11.830  12.527  12.153
47430SOL     OW44128  11.461  11.978   9.151
47430SOL    HW144129  11.410  11.897   9.154
47430SOL    HW244130  11.552  11.948   9.149
47431SOL     OW44131   2.851  13.262  10.137
47431SOL    HW144132   2.923  13.240  10.196
47431SOL    HW244133   2.832  13.354  10.157
47432SOL     OW44134   2.056   4.344  13.724
47432SOL    HW144135   2.072   4.258  13.686
47432SOL    HW244136   2.137   4.367  13.769
47433SOL     OW44137   1.461   6.757   9.466
47433SOL    HW144138   1.465   6.715   9.552
47433SOL    HW244139   1.542   6.732   9.423
47434SOL     OW44140   3.678   1.608   5.361
47434SOL    HW144141   3.723   1.665   5.423
47434SOL    HW244142   3.586   1.614   5.386
47435SOL     OW44143   5.411   7.639   6.711
47435SOL    HW144144   5.400   7.679   6.797
47435SOL    HW244145   5.328   7.654   6.666
47436SOL     OW44146   9.151  12.310   7.224
47436SOL    HW144147   9.070  12.261   7.239
47436SOL    HW244148   9.148  12.334   7.132
47437SOL     OW44149   6.752  13.080   4.444
47437SOL    HW144150   6.752  12.992   4.404
47437SOL    HW244151   6.776  13.065   4.535
47438SOL     OW44152   6.040   1.446   2.850
47438SOL    HW144153   6.021   1.405   2.934
47438SOL    HW244154   5.991   1.394   2.786
47439SOL     OW44155   3.469  14.291   6.280
47439SOL    HW144156   3.397  14.272   6.219
47439SOL    HW244157   3.426  14.329   6.357
47440SOL     OW44158   4.250  12.849   5.585
47440SOL    HW144159   4.288  12.905   5.652
47440SOL    HW244160   4.169  12.893   5.559
47441SOL     OW44161   1.165  11.193   9.751
47441SOL    HW144162   1.096  11.240   9.798
47441SOL    HW244163   1.179  11.114   9.802
47442SOL     OW44164  11.027   2.155   7.343
47442SOL    HW144165  10.934   2.133   7.351
47442SOL    HW244166  11.052   2.186   7.431
47443SOL     OW44167  11.886   9.955   6.366
47443SOL    HW144168  11.861  10.019   6.300
47443SOL    HW244169  11.975   9.978   6.390
47444SOL     OW44170   9.422   9.884  11.160
47444SOL    HW144171   9.415   9.974  11.129
47444SOL    HW244172   9.360   9.878  11.232
47445SOL     OW44173   8.587  10.888   0.136
47445SOL    HW144174   8.507  10.843   0.111
47445SOL    HW244175   8.564  10.981   0.134
47446SOL     OW44176   7.133   4.925  12.967
47446SOL    HW144177   7.196   4.958  12.903
47446SOL    HW244178   7.097   4.846  12.927
47447SOL     OW44179   7.166   4.840   5.471
47447SOL    HW144180   7.131   4.803   5.389
47447SOL    HW244181   7.261   4.839   5.459
47448SOL     OW44182   1.221   5.772   9.434
47448SOL    HW144183   1.194   5.776   9.525
47448SOL    HW244184   1.139   5.784   9.384
47449SOL     OW44185  11.620   1.913  12.574
47449SOL    HW144186  11.552   1.942  12.513
47449SOL    HW244187  11.702   1.939  12.532
47450SOL     OW44188   4.057  11.225   6.092
47450SOL    HW144189   4.024  11.218   6.181
47450SOL    HW244190   4.152  11.222   6.100
47451SOL     OW44191   0.430   8.213   9.930
47451SOL    HW144192   0.414   8.280   9.864
47451SOL    HW244193   0.458   8.262  10.008
47452SOL     OW44194   1.938  10.906  12.585
47452SOL    HW144195   1.938  10.838  12.652
47452SOL    HW244196   1.875  10.971  12.617
47453SOL     OW44197  14.589   3.625   4.143
47453SOL    HW144198  14.517   3.564   4.160
47453SOL    HW244199  14.591   3.681   4.220
47454SOL     OW44200   1.764   9.443   9.037
47454SOL    HW144201   1.774   9.349   9.054
47454SOL    HW244202   1.830   9.461   8.969
47455SOL     OW44203   3.030   4.124  14.805
47455SOL    HW144204   3.124   4.143  14.811
47455SOL    HW244205   3.008   4.091   0.018
47456SOL     OW44206  10.062   3.387   7.197
47456SOL    HW144207  10.065   3.316   7.261
47456SOL    HW244208   9.987   3.440   7.223
47457SOL     OW44209  12.947   8.989   4.623
47457SOL    HW144210  13.020   9.031   4.668
47457SOL    HW244211  12.940   8.903   4.664
47458SOL     OW44212   6.232   1.331  13.082
47458SOL    HW144213   6.239   1.295  13.171
47458SOL    HW244214   6.138   1.348  13.070
47459SOL     OW44215   2.670  11.821   6.339
47459SOL    HW144216   2.721  11.741   6.331
47459SOL    HW244217   2.727  11.881   6.389
47460SOL     OW44218   6.926   4.294  10.496
47460SOL    HW144219   6.874   4.351  10.439
47460SOL    HW244220   6.918   4.207  10.456
47461SOL     OW44221   8.845   2.574   0.646
47461SOL    HW144222   8.770   2.535   0.690
47461SOL    HW244223   8.908   2.591   0.717
47462SOL     OW44224  13.351   2.244   0.338
47462SOL    HW144225  13.427   2.188   0.349
47462SOL    HW244226  13.286   2.189   0.294
47463SOL     OW44227   9.349   2.584  14.255
47463SOL    HW144228   9.398   2.666  14.265
47463SOL    HW244229   9.273   2.607  14.202
47464SOL     OW44230  11.761   9.809  14.791
47464SOL    HW144231  11.782   9.884  14.847
47464SOL    HW244232  11.843   9.760  14.784
47465SOL     OW44233   0.290   7.031   3.114
47465SOL    HW144234   0.283   7.040   3.019
47465SOL    HW244235   0.327   6.943   3.127
47466SOL     OW44236   9.311   9.282   5.062
47466SOL    HW144237   9.377   9.340   5.025
47466SOL    HW244238   9.302   9.212   4.997
47467SOL     OW44239  10.603   8.937   0.031
47467SOL    HW144240  10.526   8.931   0.087
47467SOL    HW244241  10.657   9.003   0.072
47468SOL     OW44242   5.659   8.820  11.571
47468SOL    HW144243   5.634   8.733  11.604
47468SOL    HW244244   5.660   8.876  11.648
47469SOL     OW44245   4.301  10.734   3.011
47469SOL    HW144246   4.308  10.711   2.918
47469SOL    HW244247   4.335  10.658   3.057
47470SOL     OW44248  13.063   5.884   7.648
47470SOL    HW144249  13.156   5.869   7.663
47470SOL    HW244250  13.019   5.832   7.714
47471SOL     OW44251   8.417   3.782   4.649
47471SOL    HW144252   8.413   3.696   4.605
47471SOL    HW244253   8.327   3.814   4.646
47472SOL     OW44254   7.425   9.211  11.078
47472SOL    HW144255   7.353   9.148  11.083
47472SOL    HW244256   7.487   9.180  11.144
47473SOL     OW44257   2.939   9.843   7.756
47473SOL    HW144258   2.971   9.754   7.771
47473SOL    HW244259   3.018   9.898   7.758
47474SOL     OW44260   6.646  12.460   3.330
47474SOL    HW144261   6.714  12.398   3.357
47474SOL    HW244262   6.671  12.484   3.240
47475SOL     OW44263   5.062  14.707   4.033
47475SOL    HW144264   5.000  14.724   4.105
47475SOL    HW244265   5.131  14.772   4.046
47476SOL     OW44266   4.912  14.340   8.660
47476SOL    HW144267   4.985  14.350   8.599
47476SOL    HW244268   4.952  14.312   8.742
47477SOL     OW44269   6.173  12.201   7.227
47477SOL    HW144270   6.110  12.130   7.215
47477SOL    HW244271   6.200  12.194   7.319
47478SOL     OW44272   0.367  11.556  10.729
47478SOL    HW144273   0.321  11.614  10.790
47478SOL    HW244274   0.438  11.610  10.693
47479SOL     OW44275   6.262   8.262   0.995
47479SOL    HW144276   6.291   8.208   1.069
47479SOL    HW244277   6.242   8.198   0.926
47480SOL     OW44278   3.187   2.289  10.292
47480SOL    HW144279   3.145   2.212  10.254
47480SOL    HW244280   3.208   2.262  10.382
47481SOL     OW44281   7.042   4.751   4.505
47481SOL    HW144282   6.963   4.793   4.539
47481SOL    HW244283   7.011   4.667   4.470
47482SOL     OW44284  10.641  11.709   0.107
47482SOL    HW144285  10.624  11.631   0.160
47482SOL    HW244286  10.621  11.682   0.018
47483SOL     OW44287  10.133   4.939  14.206
47483SOL    HW144288  10.111   4.883  14.281
47483SOL    HW244289  10.053   4.941  14.154
47484SOL     OW44290   9.494   7.772   1.566
47484SOL    HW144291   9.516   7.685   1.599
47484SOL    HW244292   9.455   7.818   1.640
47485SOL     OW44293   9.640   1.335  10.167
47485SOL    HW144294   9.620   1.410  10.111
47485SOL    HW244295   9.598   1.260  10.124
47486SOL     OW44296   4.025  12.713  14.442
47486SOL    HW144297   3.991  12.696  14.354
47486SOL    HW244298   3.946  12.733  14.494
47487SOL     OW44299   7.571   4.386  13.586
47487SOL    HW144300   7.572   4.355  13.495
47487SOL    HW244301   7.516   4.464  13.584
47488SOL     OW44302   3.688   2.754   8.028
47488SOL    HW144303   3.692   2.799   8.113
47488SOL    HW244304   3.619   2.689   8.039
47489SOL     OW44305   7.698   0.621  11.827
47489SOL    HW144306   7.630   0.679  11.863
47489SOL    HW244307   7.649   0.550  11.785
47490SOL     OW44308   6.910   0.719   0.426
47490SOL    HW144309   6.856   0.701   0.349
47490SOL    HW244310   6.898   0.812   0.442
47491SOL     OW44311   5.176   6.155   6.369
47491SOL    HW144312   5.251   6.110   6.408
47491SOL    HW244313   5.117   6.172   6.442
47492SOL     OW44314  10.444   3.179   9.135
47492SOL    HW144315  10.407   3.100   9.175
47492SOL    HW244316  10.451   3.157   9.042
47493SOL     OW44317   6.944   0.326   2.505
47493SOL    HW144318   6.996   0.389   2.555
47493SOL    HW244319   6.909   0.376   2.431
47494SOL     OW44320   9.448   4.579   4.736
47494SOL    HW144321   9.411   4.540   4.657
47494SOL    HW244322   9.371   4.610   4.785
47495SOL     OW44323  14.827  12.402   4.912
47495SOL    HW144324  14.824  12.388   4.817
47495SOL    HW244325  14.874  12.326   4.946
47496SOL     OW44326  12.195   3.425   4.484
47496SOL    HW144327  12.251   3.502   4.481
47496SOL    HW244328  12.205   3.384   4.398
47497SOL     OW44329   8.870   1.024   9.148
47497SOL    HW144330   8.819   0.981   9.217
47497SOL    HW244331   8.806   1.075   9.098
47498SOL     OW44332   8.056  11.606   4.728
47498SOL    HW144333   8.021  11.603   4.817
47498SOL    HW244334   7.981  11.594   4.671
47499SOL     OW44335   2.055   7.767   0.269
47499SOL    HW144336   1.975   7.723   0.240
47499SOL    HW244337   2.045   7.775   0.364
47500SOL     OW44338  11.691  11.119  10.695
47500SOL    HW144339  11.715  11.080  10.610
47500SOL    HW244340  11.631  11.055  10.734
47501SOL     OW44341   6.961   7.348   4.548
47501SOL    HW144342   6.875   7.315   4.576
47501SOL    HW244343   6.965   7.437   4.581
47502SOL     OW44344   7.159   7.386  14.103
47502SOL    HW144345   7.223   7.403  14.172
47502SOL    HW244346   7.112   7.308  14.132
47503SOL     OW44347  12.246   2.010  12.080
47503SOL    HW144348  12.307   1.967  12.140
47503SOL    HW244349  12.303   2.054  12.016
47504SOL     OW44350   2.364   3.089   6.737
47504SOL    HW144351   2.322   3.105   6.653
47504SOL    HW244352   2.296   3.105   6.802
47505SOL     OW44353  11.962   5.156  11.542
47505SOL    HW144354  12.048   5.199  11.542
47505SOL    HW244355  11.979   5.069  11.579
47506SOL     OW44356   0.651  13.203   6.097
47506SOL    HW144357   0.704  13.196   6.017
47506SOL    HW244358   0.643  13.298   6.111
47507SOL     OW44359   3.690  11.024   5.208
47507SOL    HW144360   3.691  11.090   5.139
47507SOL    HW244361   3.601  11.026   5.243
47508SOL     OW44362   7.026   0.210   7.559
47508SOL    HW144363   7.036   0.287   7.503
47508SOL    HW244364   7.050   0.241   7.647
47509SOL     OW44365   6.457   8.064  10.459
47509SOL    HW144366   6.409   8.132  10.412
47509SOL    HW244367   6.429   8.073  10.550
47510SOL     OW44368  13.493   4.489  14.420
47510SOL    HW144369  13.407   4.519  14.391
47510SOL    HW244370  13.512   4.540  14.498
47511SOL     OW44371   0.221  13.295  12.829
47511SOL    HW144372   0.216  13.391  12.829
47511SOL    HW244373   0.212  13.270  12.920
47512SOL     OW44374   0.262   5.601   6.024
47512SOL    HW144375   0.263   5.568   6.114
47512SOL    HW244376   0.176   5.642   6.014
47513SOL     OW44377  13.942   7.887   1.462
47513SOL    HW144378  13.993   7.897   1.543
47513SOL    HW244379  13.852   7.908   1.488
47514SOL     OW44380  11.745   0.092   8.833
47514SOL    HW144381  11.779   0.169   8.877
47514SOL    HW244382  11.811   0.024   8.850
47515SOL     OW44383   1.607   2.717  10.680
47515SOL    HW144384   1.634   2.738  10.770
47515SOL    HW244385   1.652   2.781  10.626
47516SOL     OW44386   5.108   5.026   7.759
47516SOL    HW144387   5.167   5.062   7.825
47516SOL    HW244388   5.129   5.074   7.679
47517SOL     OW44389   4.690   9.024  12.067
47517SOL    HW144390   4.661   9.036  11.976
47517SOL    HW244391   4.761   9.088  12.078
47518SOL     OW44392   3.353   4.720  14.589
47518SOL    HW144393   3.314   4.651  14.536
47518SOL    HW244394   3.446   4.697  14.594
47519SOL     OW44395   3.296   3.865   8.376
47519SOL    HW144396   3.385   3.867   8.341
47519SOL    HW244397   3.257   3.787   8.337
47520SOL     OW44398   4.842  12.973  11.690
47520SOL    HW144399   4.764  13.011  11.732
47520SOL    HW244400   4.910  12.980  11.757
47521SOL     OW44401   8.480  13.417   4.750
47521SOL    HW144402   8.480  13.500   4.798
47521SOL    HW244403   8.476  13.350   4.818
47522SOL     OW44404   9.356   6.227   7.342
47522SOL    HW144405   9.368   6.247   7.436
47522SOL    HW244406   9.425   6.278   7.299
47523SOL     OW44407   8.509  14.573   6.775
47523SOL    HW144408   8.533  14.658   6.736
47523SOL    HW244409   8.489  14.594   6.866
47524SOL     OW44410   9.626  13.691  13.511
47524SOL    HW144411   9.540  13.690  13.470
47524SOL    HW244412   9.653  13.783  13.510
47525SOL     OW44413   8.790   9.312   8.646
47525SOL    HW144414   8.824   9.257   8.576
47525SOL    HW244415   8.769   9.395   8.603
47526SOL     OW44416   6.242   7.464   9.210
47526SOL    HW144417   6.264   7.372   9.196
47526SOL    HW244418   6.325   7.507   9.229
47527SOL     OW44419   6.448   6.199   3.011
47527SOL    HW144420   6.503   6.132   3.052
47527SOL    HW244421   6.425   6.257   3.083
47528SOL     OW44422   9.419   3.660   5.521
47528SOL    HW144423   9.507   3.696   5.524
47528SOL    HW244424   9.391   3.658   5.612
47529SOL     OW44425  11.871  11.230   7.161
47529SOL    HW144426  11.836  11.315   7.136
47529SOL    HW244427  11.966  11.244   7.166
47530SOL     OW44428   1.911  11.519  13.902
47530SOL    HW144429   1.848  11.529  13.973
47530SOL    HW244430   1.890  11.589  13.841
47531SOL     OW44431   3.063   4.345   3.364
47531SOL    HW144432   3.065   4.317   3.272
47531SOL    HW244433   3.007   4.423   3.364
47532SOL     OW44434  13.242  11.206   5.759
47532SOL    HW144435  13.315  11.179   5.815
47532SOL    HW244436  13.166  11.206   5.817
47533SOL     OW44437  14.022  12.503   5.429
47533SOL    HW144438  13.947  12.445   5.414
47533SOL    HW244439  14.030  12.508   5.524
47534SOL     OW44440   9.751   5.733   3.241
47534SOL    HW144441   9.814   5.668   3.209
47534SOL    HW244442   9.793   5.818   3.225
47535SOL     OW44443   0.539  13.793   6.721
47535SOL    HW144444   0.555  13.707   6.682
47535SOL    HW244445   0.581  13.854   6.661
47536SOL     OW44446   6.981   8.962   1.508
47536SOL    HW144447   7.021   8.894   1.562
47536SOL    HW244448   6.889   8.963   1.535
47537SOL     OW44449   5.788   6.711  10.753
47537SOL    HW144450   5.700   6.684  10.779
47537SOL    HW244451   5.804   6.792  10.802
47538SOL     OW44452   7.763  14.287   1.293
47538SOL    HW144453   7.765  14.230   1.370
47538SOL    HW244454   7.681  14.335   1.301
47539SOL     OW44455  13.563   2.172  11.165
47539SOL    HW144456  13.574   2.253  11.114
47539SOL    HW244457  13.489   2.192  11.223
47540SOL     OW44458   0.142   2.432   2.815
47540SOL    HW144459   0.222   2.411   2.768
47540SOL    HW244460   0.154   2.523   2.843
47541SOL     OW44461   4.837   3.389   9.605
47541SOL    HW144462   4.782   3.438   9.544
47541SOL    HW244463   4.926   3.396   9.569
47542SOL     OW44464   3.385   0.795  13.160
47542SOL    HW144465   3.426   0.733  13.100
47542SOL    HW244466   3.441   0.873  13.157
47543SOL     OW44467   3.243   9.101  14.263
47543SOL    HW144468   3.295   9.080  14.341
47543SOL    HW244469   3.200   9.183  14.285
47544SOL     OW44470   4.101   5.101  14.447
47544SOL    HW144471   4.102   5.032  14.514
47544SOL    HW244472   4.028   5.157  14.473
47545SOL     OW44473   3.926  11.934  13.591
47545SOL    HW144474   3.871  11.949  13.669
47545SOL    HW244475   3.933  12.021  13.551
47546SOL     OW44476   1.075   8.875   9.087
47546SOL    HW144477   1.107   8.839   9.004
47546SOL    HW244478   1.148   8.928   9.119
47547SOL     OW44479   7.668   7.334  13.505
47547SOL    HW144480   7.748   7.317  13.455
47547SOL    HW244481   7.691   7.311  13.595
47548SOL     OW44482  11.469   2.692   4.662
47548SOL    HW144483  11.480   2.754   4.733
47548SOL    HW244484  11.471   2.606   4.704
47549SOL     OW44485   6.125   4.599   5.417
47549SOL    HW144486   6.125   4.615   5.511
47549SOL    HW244487   6.032   4.603   5.392
47550SOL     OW44488  11.318  11.746   9.147
47550SOL    HW144489  11.288  11.713   9.063
47550SOL    HW244490  11.311  11.671   9.207
47551SOL     OW44491   8.043   5.909  10.018
47551SOL    HW144492   8.128   5.881  10.050
47551SOL    HW244493   8.062   5.964   9.942
47552SOL     OW44494   5.298   4.801   7.849
47552SOL    HW144495   5.372   4.832   7.901
47552SOL    HW244496   5.252   4.881   7.822
47553SOL     OW44497   7.943   2.347   4.098
47553SOL    HW144498   7.943   2.296   4.179
47553SOL    HW244499   8.033   2.341   4.065
47554SOL     OW44500   2.679  14.134  13.335
47554SOL    HW144501   2.731  14.097  13.407
47554SOL    HW244502   2.693  14.074  13.262
47555SOL     OW44503   9.349   4.543   5.801
47555SOL    HW144504   9.410   4.521   5.872
47555SOL    HW244505   9.361   4.473   5.737
47556SOL     OW44506   0.191   7.754   6.433
47556SOL    HW144507   0.101   7.751   6.401
47556SOL    HW244508   0.222   7.663   6.425
47557SOL     OW44509  14.619   9.337  14.014
47557SOL    HW144510  14.608   9.381  14.099
47557SOL    HW244511  14.611   9.244  14.034
47558SOL     OW44512  13.829   4.421   9.203
47558SOL    HW144513  13.876   4.345   9.238
47558SOL    HW244514  13.883   4.452   9.130
47559SOL     OW44515  13.493   3.069   1.342
47559SOL    HW144516  13.539   3.152   1.330
47559SOL    HW244517  13.402   3.089   1.322
47560SOL     OW44518   1.100   7.106  11.075
47560SOL    HW144519   1.088   7.198  11.051
47560SOL    HW244520   1.175   7.078  11.023
47561SOL     OW44521  14.302   9.204  14.153
47561SOL    HW144522  14.374   9.263  14.172
47561SOL    HW244523  14.239   9.220  14.223
47562SOL     OW44524   0.920   4.329   7.864
47562SOL    HW144525   0.852   4.347   7.799
47562SOL    HW244526   0.895   4.382   7.940
47563SOL     OW44527   9.773  12.543   2.938
47563SOL    HW144528   9.849  12.515   2.887
47563SOL    HW244529   9.703  12.552   2.873
47564SOL     OW44530   7.491   6.604   4.562
47564SOL    HW144531   7.485   6.664   4.636
47564SOL    HW244532   7.449   6.651   4.490
47565SOL     OW44533   1.995  13.331   5.484
47565SOL    HW144534   1.968  13.321   5.575
47565SOL    HW244535   2.074  13.386   5.488
47566SOL     OW44536   9.293   6.267  10.230
47566SOL    HW144537   9.289   6.172  10.220
47566SOL    HW244538   9.222   6.288  10.290
47567SOL     OW44539  10.682   8.587   7.878
47567SOL    HW144540  10.634   8.620   7.801
47567SOL    HW244541  10.633   8.621   7.953
47568SOL     OW44542   7.448   0.208   3.592
47568SOL    HW144543   7.503   0.131   3.579
47568SOL    HW244544   7.469   0.237   3.681
47569SOL     OW44545   7.225   4.415   8.137
47569SOL    HW144546   7.260   4.481   8.078
47569SOL    HW244547   7.299   4.394   8.195
47570SOL     OW44548   4.326   5.056   0.224
47570SOL    HW144549   4.283   4.994   0.165
47570SOL    HW244550   4.337   5.136   0.171
47571SOL     OW44551   6.176   4.801  14.359
47571SOL    HW144552   6.183   4.823  14.266
47571SOL    HW244553   6.183   4.705  14.362
47572SOL     OW44554   7.557   5.786   6.844
47572SOL    HW144555   7.599   5.748   6.767
47572SOL    HW244556   7.625   5.841   6.883
47573SOL     OW44557   7.549   0.591   1.267
47573SOL    HW144558   7.604   0.649   1.320
47573SOL    HW244559   7.564   0.504   1.305
47574SOL     OW44560  11.244   1.074  12.600
47574SOL    HW144561  11.203   1.122  12.672
47574SOL    HW244562  11.314   1.023  12.642
47575SOL     OW44563   7.088   9.601   6.950
47575SOL    HW144564   7.000   9.569   6.973
47575SOL    HW244565   7.147   9.531   6.977
47576SOL     OW44566   9.356   5.648  10.663
47576SOL    HW144567   9.289   5.645  10.731
47576SOL    HW244568   9.356   5.559  10.625
47577SOL     OW44569   7.546  12.010   2.850
47577SOL    HW144570   7.626  11.959   2.866
47577SOL    HW244571   7.555  12.040   2.759
47578SOL     OW44572  14.659  10.668   0.546
47578SOL    HW144573  14.735  10.614   0.566
47578SOL    HW244574  14.584  10.614   0.570
47579SOL     OW44575   9.913   5.844  14.174
47579SOL    HW144576   9.954   5.919  14.217
47579SOL    HW244577   9.889   5.785  14.246
47580SOL     OW44578   1.686  10.690   3.062
47580SOL    HW144579   1.697  10.693   2.967
47580SOL    HW244580   1.619  10.756   3.081
47581SOL     OW44581   4.340   2.319   3.133
47581SOL    HW144582   4.271   2.382   3.152
47581SOL    HW244583   4.341   2.313   3.038
47582SOL     OW44584  13.533  14.624   5.866
47582SOL    HW144585  13.564  14.710   5.838
47582SOL    HW244586  13.444  14.639   5.896
47583SOL     OW44587  13.829  11.386   5.171
47583SOL    HW144588  13.847  11.453   5.237
47583SOL    HW244589  13.752  11.340   5.203
47584SOL     OW44590  10.042  10.271   6.175
47584SOL    HW144591   9.947  10.263   6.168
47584SOL    HW244592  10.063  10.354   6.134
47585SOL     OW44593   2.894   7.450   2.551
47585SOL    HW144594   2.957   7.472   2.618
47585SOL    HW244595   2.947   7.420   2.477
47586SOL     OW44596   2.158   5.174   7.489
47586SOL    HW144597   2.252   5.160   7.479
47586SOL    HW244598   2.147   5.268   7.469
47587SOL     OW44599   2.902   2.600  10.455
47587SOL    HW144600   2.970   2.646  10.505
47587SOL    HW244601   2.939   2.592  10.367
47588SOL     OW44602  13.649   4.664   5.513
47588SOL    HW144603  13.562   4.665   5.552
47588SOL    HW244604  13.655   4.579   5.469
47589SOL     OW44605   9.085  14.487   8.410
47589SOL    HW144606   9.050  14.558   8.356
47589SOL    HW244607   9.148  14.442   8.353
47590SOL     OW44608  13.079   1.580  11.718
47590SOL    HW144609  13.095   1.641  11.646
47590SOL    HW244610  13.163   1.574  11.764
47591SOL     OW44611  13.509  12.119   5.727
47591SOL    HW144612  13.481  12.187   5.788
47591SOL    HW244613  13.505  12.161   5.641
47592SOL     OW44614   1.648  14.866   2.296
47592SOL    HW144615   1.717   0.034   2.246
47592SOL    HW244616   1.574   0.051   2.290
47593SOL     OW44617  10.110   7.930   7.656
47593SOL    HW144618  10.117   7.901   7.565
47593SOL    HW244619  10.155   8.014   7.658
47594SOL     OW44620   9.340   9.382  14.500
47594SOL    HW144621   9.297   9.364  14.416
47594SOL    HW244622   9.268   9.398  14.561
47595SOL     OW44623   6.567   5.201  11.564
47595SOL    HW144624   6.604   5.262  11.629
47595SOL    HW244625   6.477   5.187  11.592
47596SOL     OW44626   5.187   1.767  11.405
47596SOL    HW144627   5.221   1.822  11.475
47596SOL    HW244628   5.190   1.823  11.327
47597SOL     OW44629   6.190   9.603  11.335
47597SOL    HW144630   6.148   9.646  11.409
47597SOL    HW244631   6.260   9.664  11.310
47598SOL     OW44632   8.098  12.934   3.894
47598SOL    HW144633   8.157  12.933   3.969
47598SOL    HW244634   8.138  12.872   3.832
47599SOL     OW44635  12.297   3.316   2.562
47599SOL    HW144636  12.321   3.330   2.654
47599SOL    HW244637  12.218   3.262   2.566
47600SOL     OW44638  12.348   8.971  11.897
47600SOL    HW144639  12.259   8.962  11.930
47600SOL    HW244640  12.383   9.048  11.943
47601SOL     OW44641   0.636   4.796  12.807
47601SOL    HW144642   0.717   4.749  12.790
47601SOL    HW244643   0.650   4.883  12.769
47602SOL     OW44644   5.019  11.601  11.402
47602SOL    HW144645   5.071  11.558  11.334
47602SOL    HW244646   5.010  11.691  11.373
47603SOL     OW44647   4.129   8.334   0.261
47603SOL    HW144648   4.170   8.408   0.216
47603SOL    HW244649   4.095   8.279   0.190
47604SOL     OW44650   2.850   6.248   2.701
47604SOL    HW144651   2.894   6.331   2.719
47604SOL    HW244652   2.885   6.220   2.617
47605SOL     OW44653   0.045   3.479   2.910
47605SOL    HW144654  14.865   3.456   2.986
47605SOL    HW244655   0.029   3.410   2.847
47606SOL     OW44656  13.977  13.387   4.174
47606SOL    HW144657  13.893  13.369   4.215
47606SOL    HW244658  13.968  13.475   4.136
47607SOL     OW44659   3.511  11.993   7.495
47607SOL    HW144660   3.468  12.077   7.508
47607SOL    HW244661   3.567  11.982   7.571
47608SOL     OW44662  10.573   2.101   0.090
47608SOL    HW144663  10.597   2.062   0.174
47608SOL    HW244664  10.490   2.146   0.108
47609SOL     OW44665  11.369   1.218  14.789
47609SOL    HW144666  11.459   1.218  14.820
47609SOL    HW244667  11.373   1.185  14.700
47610SOL     OW44668  14.228   6.224   0.754
47610SOL    HW144669  14.242   6.172   0.833
47610SOL    HW244670  14.225   6.315   0.785
47611SOL     OW44671   0.076   5.834  13.964
47611SOL    HW144672   0.028   5.767  14.014
47611SOL    HW244673   0.134   5.785  13.906
47612SOL     OW44674  13.283   1.346  10.378
47612SOL    HW144675  13.303   1.417  10.317
47612SOL    HW244676  13.368   1.321  10.415
47613SOL     OW44677   7.439   1.587  11.537
47613SOL    HW144678   7.416   1.494  11.541
47613SOL    HW244679   7.468   1.608  11.626
47614SOL     OW44680   1.633   6.361   0.327
47614SOL    HW144681   1.690   6.378   0.251
47614SOL    HW244682   1.565   6.428   0.321
47615SOL     OW44683   5.781   7.861   8.502
47615SOL    HW144684   5.793   7.783   8.556
47615SOL    HW244685   5.849   7.921   8.531
47616SOL     OW44686   3.979   4.979   8.526
47616SOL    HW144687   3.969   4.975   8.431
47616SOL    HW244688   3.961   5.071   8.548
47617SOL     OW44689   0.823   1.838   8.083
47617SOL    HW144690   0.908   1.845   8.127
47617SOL    HW244691   0.820   1.914   8.025
47618SOL     OW44692   7.590   8.506  12.347
47618SOL    HW144693   7.658   8.459  12.394
47618SOL    HW244694   7.621   8.507  12.256
47619SOL     OW44695   3.991  10.241   7.716
47619SOL    HW144696   4.023  10.291   7.641
47619SOL    HW244697   3.955  10.307   7.775
47620SOL     OW44698   0.027   6.599   2.395
47620SOL    HW144699   0.006   6.556   2.313
47620SOL    HW244700  14.821   6.594   2.447
47621SOL     OW44701   0.505  14.214   4.189
47621SOL    HW144702   0.601  14.208   4.183
47621SOL    HW244703   0.484  14.292   4.137
47622SOL     OW44704   0.821   7.051   7.957
47622SOL    HW144705   0.732   7.042   7.921
47622SOL    HW244706   0.840   7.144   7.950
47623SOL     OW44707   1.197   8.138   5.781
47623SOL    HW144708   1.135   8.193   5.731
47623SOL    HW244709   1.203   8.181   5.866
47624SOL     OW44710   1.991   4.331  14.667
47624SOL    HW144711   2.081   4.364  14.677
47624SOL    HW244712   1.964   4.309  14.755
47625SOL     OW44713   0.923   2.551  10.949
47625SOL    HW144714   0.895   2.549  11.041
47625SOL    HW244715   0.945   2.461  10.928
47626SOL     OW44716   7.784   5.698  12.005
47626SOL    HW144717   7.725   5.694  11.929
47626SOL    HW244718   7.861   5.744  11.973
47627SOL     OW44719   9.973   7.203   8.344
47627SOL    HW144720   9.921   7.221   8.265
47627SOL    HW244721  10.030   7.280   8.352
47628SOL     OW44722   9.439   1.987   3.373
47628SOL    HW144723   9.490   1.973   3.452
47628SOL    HW244724   9.353   1.950   3.392
47629SOL     OW44725  12.631   6.301   3.256
47629SOL    HW144726  12.540   6.295   3.285
47629SOL    HW244727  12.625   6.309   3.161
47630SOL     OW44728   4.112  11.271  14.547
47630SOL    HW144729   4.135  11.241  14.459
47630SOL    HW244730   4.118  11.192  14.601
47631SOL     OW44731   5.948   3.338   8.609
47631SOL    HW144732   5.953   3.246   8.633
47631SOL    HW244733   5.959   3.339   8.514
47632SOL     OW44734  12.673  11.156   5.950
47632SOL    HW144735  12.604  11.166   5.885
47632SOL    HW244736  12.672  11.237   6.000
47633SOL     OW44737   6.618   1.151   1.191
47633SOL    HW144738   6.599   1.058   1.177
47633SOL    HW244739   6.535   1.195   1.175
47634SOL     OW44740  11.969  10.082   5.103
47634SOL    HW144741  11.996  10.125   5.184
47634SOL    HW244742  11.875  10.099   5.096
47635SOL     OW44743   0.292   5.092   3.900
47635SOL    HW144744   0.334   5.064   3.981
47635SOL    HW244745   0.265   5.011   3.858
47636SOL     OW44746  14.211   1.446  10.768
47636SOL    HW144747  14.244   1.513  10.827
47636SOL    HW244748  14.124   1.477  10.742
47637SOL     OW44749   7.690   5.930  14.673
47637SOL    HW144750   7.688   6.000  14.739
47637SOL    HW244751   7.598   5.917  14.650
47638SOL     OW44752   9.195  11.121   5.411
47638SOL    HW144753   9.223  11.159   5.328
47638SOL    HW244754   9.146  11.043   5.386
47639SOL     OW44755   7.846   4.479   8.433
47639SOL    HW144756   7.914   4.427   8.391
47639SOL    HW244757   7.810   4.533   8.363
47640SOL     OW44758   7.085   5.282  14.188
47640SOL    HW144759   7.039   5.315  14.110
47640SOL    HW244760   7.123   5.199  14.160
47641SOL     OW44761   2.532   5.430   1.057
47641SOL    HW144762   2.538   5.358   0.995
47641SOL    HW244763   2.526   5.508   1.002
47642SOL     OW44764  12.223  13.545  12.724
47642SOL    HW144765  12.270  13.603  12.784
47642SOL    HW244766  12.203  13.601  12.648
47643SOL     OW44767   2.370   0.236  11.469
47643SOL    HW144768   2.411   0.316  11.503
47643SOL    HW244769   2.374   0.246  11.374
47644SOL     OW44770   1.992   4.850   3.414
47644SOL    HW144771   1.915   4.828   3.362
47644SOL    HW244772   1.966   4.927   3.465
47645SOL     OW44773   0.022   1.557  11.899
47645SOL    HW144774   0.016   1.481  11.956
47645SOL    HW244775   0.030   1.520  11.811
47646SOL     OW44776   4.361   7.720   8.488
47646SOL    HW144777   4.318   7.650   8.538
47646SOL    HW244778   4.376   7.789   8.553
47647SOL     OW44779  11.747   0.157  13.992
47647SOL    HW144780  11.776   0.076  14.033
47647SOL    HW244781  11.683   0.130  13.926
47648SOL     OW44782   7.498   2.103   5.818
47648SOL    HW144783   7.463   2.029   5.768
47648SOL    HW244784   7.565   2.141   5.761
47649SOL     OW44785  11.663   1.421   5.501
47649SOL    HW144786  11.690   1.500   5.455
47649SOL    HW244787  11.730   1.407   5.568
47650SOL     OW44788  14.491  11.659   6.610
47650SOL    HW144789  14.519  11.748   6.629
47650SOL    HW244790  14.503  11.649   6.516
47651SOL     OW44791  11.738  11.192  12.784
47651SOL    HW144792  11.732  11.276  12.830
47651SOL    HW244793  11.820  11.154  12.814
47652SOL     OW44794   3.315  12.473   2.256
47652SOL    HW144795   3.379  12.509   2.195
47652SOL    HW244796   3.277  12.550   2.299
47653SOL     OW44797   0.454   5.311   8.679
47653SOL    HW144798   0.454   5.365   8.758
47653SOL    HW244799   0.542   5.322   8.642
47654SOL     OW44800   7.676  14.307   5.471
47654SOL    HW144801   7.762  14.341   5.494
47654SOL    HW244802   7.690  14.213   5.457
47655SOL     OW44803   4.366   0.744   7.830
47655SOL    HW144804   4.455   0.764   7.801
47655SOL    HW244805   4.365   0.649   7.842
47656SOL     OW44806   3.460   2.027  14.270
47656SOL    HW144807   3.461   1.932  14.268
47656SOL    HW244808   3.403   2.049  14.344
47657SOL     OW44809   1.827   2.834  12.405
47657SOL    HW144810   1.877   2.793  12.475
47657SOL    HW244811   1.740   2.850  12.442
47658SOL     OW44812  10.648  12.052  12.281
47658SOL    HW144813  10.738  12.035  12.312
47658SOL    HW244814  10.658  12.123  12.218
47659SOL     OW44815   7.538   7.736   4.188
47659SOL    HW144816   7.617   7.790   4.189
47659SOL    HW244817   7.556   7.667   4.124
47660SOL     OW44818   4.620   8.859   0.504
47660SOL    HW144819   4.571   8.819   0.433
47660SOL    HW244820   4.712   8.850   0.478
47661SOL     OW44821  10.585  10.657   7.280
47661SOL    HW144822  10.644  10.587   7.252
47661SOL    HW244823  10.558  10.632   7.368
47662SOL     OW44824   6.708   5.891   4.174
47662SOL    HW144825   6.769   5.911   4.246
47662SOL    HW244826   6.721   5.961   4.111
47663SOL     OW44827   2.060  10.749   8.947
47663SOL    HW144828   2.155  10.752   8.951
47663SOL    HW244829   2.035  10.834   8.912
47664SOL     OW44830   7.777  13.821   7.621
47664SOL    HW144831   7.712  13.874   7.575
47664SOL    HW244832   7.785  13.742   7.569
47665SOL     OW44833   0.316  13.113   0.150
47665SOL    HW144834   0.233  13.160   0.152
47665SOL    HW244835   0.342  13.106   0.241
47666SOL     OW44836  10.362   3.855   0.176
47666SOL    HW144837  10.274   3.819   0.171
47666SOL    HW244838  10.377   3.869   0.269
47667SOL     OW44839   8.332   1.636   5.297
47667SOL    HW144840   8.370   1.683   5.370
47667SOL    HW244841   8.252   1.597   5.332
47668SOL     OW44842   2.572   2.975   0.183
47668SOL    HW144843   2.499   2.991   0.124
47668SOL    HW244844   2.559   3.037   0.255
47669SOL     OW44845  10.103   4.302  14.048
47669SOL    HW144846  10.012   4.323  14.069
47669SOL    HW244847  10.155   4.362  14.101
47670SOL     OW44848   8.447   4.287   2.774
47670SOL    HW144849   8.439   4.192   2.788
47670SOL    HW244850   8.485   4.320   2.855
47671SOL     OW44851   3.331   5.456   3.189
47671SOL    HW144852   3.395   5.520   3.158
47671SOL    HW244853   3.322   5.473   3.282
47672SOL     OW44854   3.956   0.471   6.676
47672SOL    HW144855   3.874   0.518   6.687
47672SOL    HW244856   3.977   0.479   6.583
47673SOL     OW44857   9.989   2.474  10.368
47673SOL    HW144858  10.041   2.517  10.437
47673SOL    HW244859   9.914   2.532  10.356
47674SOL     OW44860  12.568   0.213   8.039
47674SOL    HW144861  12.539   0.124   8.015
47674SOL    HW244862  12.621   0.201   8.117
47675SOL     OW44863   7.543   0.969   7.724
47675SOL    HW144864   7.493   0.981   7.643
47675SOL    HW244865   7.519   0.881   7.754
47676SOL     OW44866   6.328   5.385  13.968
47676SOL    HW144867   6.344   5.366  14.060
47676SOL    HW244868   6.392   5.454  13.947
47677SOL     OW44869  10.967   2.835   0.889
47677SOL    HW144870  11.047   2.880   0.917
47677SOL    HW244871  10.964   2.756   0.943
47678SOL     OW44872  14.688  11.321  12.435
47678SOL    HW144873  14.742  11.363  12.502
47678SOL    HW244874  14.666  11.391  12.374
47679SOL     OW44875   7.459   6.541   1.006
47679SOL    HW144876   7.383   6.599   1.000
47679SOL    HW244877   7.534   6.599   0.992
47680SOL     OW44878   5.155   6.269  12.673
47680SOL    HW144879   5.109   6.341  12.630
47680SOL    HW244880   5.241   6.266  12.630
47681SOL     OW44881   4.849   8.255   0.095
47681SOL    HW144882   4.762   8.278   0.062
47681SOL    HW244883   4.890   8.339   0.115
47682SOL     OW44884   3.521   2.335  12.339
47682SOL    HW144885   3.598   2.285  12.311
47682SOL    HW244886   3.554   2.424  12.355
47683SOL     OW44887   5.259   7.289   6.048
47683SOL    HW144888   5.270   7.208   6.097
47683SOL    HW244889   5.166   7.311   6.058
47684SOL     OW44890   3.610   9.517   3.470
47684SOL    HW144891   3.587   9.465   3.392
47684SOL    HW244892   3.529   9.565   3.490
47685SOL     OW44893   3.866   3.595  12.090
47685SOL    HW144894   3.822   3.516  12.058
47685SOL    HW244895   3.897   3.638  12.010
47686SOL     OW44896   2.127   7.958  13.824
47686SOL    HW144897   2.061   7.991  13.885
47686SOL    HW244898   2.205   7.945  13.878
47687SOL     OW44899  11.810   9.251   1.043
47687SOL    HW144900  11.859   9.330   1.067
47687SOL    HW244901  11.734   9.250   1.101
47688SOL     OW44902   1.908   3.371   6.312
47688SOL    HW144903   1.962   3.393   6.388
47688SOL    HW244904   1.909   3.275   6.309
47689SOL     OW44905   0.927   9.520   0.889
47689SOL    HW144906   0.926   9.452   0.956
47689SOL    HW244907   0.979   9.591   0.928
47690SOL     OW44908   7.537   2.377   9.742
47690SOL    HW144909   7.626   2.343   9.751
47690SOL    HW244910   7.547   2.472   9.748
47691SOL     OW44911  12.504  12.507  14.145
47691SOL    HW144912  12.550  12.472  14.069
47691SOL    HW244913  12.419  12.534  14.111
47692SOL     OW44914  13.586   6.968   9.386
47692SOL    HW144915  13.538   6.915   9.449
47692SOL    HW244916  13.555   7.058   9.401
47693SOL     OW44917  11.435   6.029  13.077
47693SOL    HW144918  11.459   6.053  12.988
47693SOL    HW244919  11.349   5.989  13.069
47694SOL     OW44920   4.009   7.359   5.417
47694SOL    HW144921   3.985   7.278   5.371
47694SOL    HW244922   3.925   7.400   5.438
47695SOL     OW44923  10.069   9.699   4.749
47695SOL    HW144924  10.106   9.726   4.665
47695SOL    HW244925   9.996   9.642   4.727
47696SOL     OW44926   2.028   9.088  12.762
47696SOL    HW144927   1.933   9.088  12.776
47696SOL    HW244928   2.043   9.014  12.703
47697SOL     OW44929  14.219  13.899   9.418
47697SOL    HW144930  14.137  13.927   9.459
47697SOL    HW244931  14.209  13.925   9.326
47698SOL     OW44932  12.087  12.635   5.093
47698SOL    HW144933  12.089  12.604   5.183
47698SOL    HW244934  12.175  12.617   5.060
47699SOL     OW44935  10.663  14.548   9.940
47699SOL    HW144936  10.624  14.507   9.863
47699SOL    HW244937  10.631  14.638   9.938
47700SOL     OW44938   4.351   7.387  13.493
47700SOL    HW144939   4.372   7.354  13.580
47700SOL    HW244940   4.411   7.340  13.434
47701SOL     OW44941   9.154   5.191  13.074
47701SOL    HW144942   9.104   5.211  12.995
47701SOL    HW244943   9.191   5.275  13.100
47702SOL     OW44944  11.328  12.466  13.316
47702SOL    HW144945  11.252  12.446  13.371
47702SOL    HW244946  11.381  12.387  13.317
47703SOL     OW44947  14.754   5.661   0.518
47703SOL    HW144948  14.838   5.690   0.553
47703SOL    HW244949  14.696   5.736   0.529
47704SOL     OW44950   2.758   0.993   2.000
47704SOL    HW144951   2.688   0.953   2.051
47704SOL    HW244952   2.760   0.944   1.918
47705SOL     OW44953  11.993  10.247  14.109
47705SOL    HW144954  11.922  10.310  14.107
47705SOL    HW244955  11.950  10.162  14.099
47706SOL     OW44956   3.976   2.772   3.567
47706SOL    HW144957   3.883   2.795   3.557
47706SOL    HW244958   3.985   2.690   3.519
47707SOL     OW44959   0.737   6.327  14.441
47707SOL    HW144960   0.739   6.405  14.385
47707SOL    HW244961   0.810   6.338  14.501
47708SOL     OW44962   2.030  11.122   9.639
47708SOL    HW144963   1.985  11.203   9.614
47708SOL    HW244964   2.076  11.095   9.560
47709SOL     OW44965   2.394   2.080   3.748
47709SOL    HW144966   2.403   2.174   3.764
47709SOL    HW244967   2.304   2.061   3.775
47710SOL     OW44968   7.776   7.388   4.362
47710SOL    HW144969   7.754   7.410   4.453
47710SOL    HW244970   7.692   7.395   4.316
47711SOL     OW44971   3.439   4.127  11.321
47711SOL    HW144972   3.485   4.200  11.362
47711SOL    HW244973   3.413   4.071  11.393
47712SOL     OW44974   9.219  13.946   6.026
47712SOL    HW144975   9.187  13.887   5.959
47712SOL    HW244976   9.298  13.904   6.060
47713SOL     OW44977   0.160   5.179   6.460
47713SOL    HW144978   0.099   5.251   6.474
47713SOL    HW244979   0.240   5.206   6.505
47714SOL     OW44980  14.333   2.992  10.133
47714SOL    HW144981  14.266   3.050  10.097
47714SOL    HW244982  14.404   2.995  10.069
47715SOL     OW44983   2.999  12.151   4.426
47715SOL    HW144984   3.071  12.163   4.364
47715SOL    HW244985   2.920  12.156   4.371
47716SOL     OW44986  13.899  10.457   1.101
47716SOL    HW144987  13.922  10.465   1.008
47716SOL    HW244988  13.884  10.363   1.113
47717SOL     OW44989  10.250  11.240  11.746
47717SOL    HW144990  10.291  11.156  11.723
47717SOL    HW244991  10.182  11.252  11.679
47718SOL     OW44992   7.571   4.054   5.708
47718SOL    HW144993   7.631   4.097   5.769
47718SOL    HW244994   7.489   4.102   5.717
47719SOL     OW44995  14.676   8.608  14.287
47719SOL    HW144996  14.595   8.633  14.331
47719SOL    HW244997  14.744   8.615  14.354
47720SOL     OW44998   4.161   8.884  11.496
47720SOL    HW144999   4.069   8.860  11.511
47720SOL    HW245000   4.210   8.803  11.509
47721SOL     OW45001   7.651  12.839   7.833
47721SOL    HW145002   7.603  12.917   7.861
47721SOL    HW245003   7.739  12.870   7.813
47722SOL     OW45004   1.504   1.062  14.859
47722SOL    HW145005   1.507   1.156   0.002
47722SOL    HW245006   1.413   1.037   0.005
47723SOL     OW45007   8.712   4.954   1.846
47723SOL    HW145008   8.725   4.913   1.931
47723SOL    HW245009   8.781   4.918   1.791
47724SOL     OW45010  12.960   4.474   6.170
47724SOL    HW145011  12.972   4.560   6.210
47724SOL    HW245012  12.876   4.481   6.123
47725SOL     OW45013   3.760   4.872   6.699
47725SOL    HW145014   3.767   4.779   6.720
47725SOL    HW245015   3.673   4.881   6.659
47726SOL     OW45016   3.203   3.243   4.373
47726SOL    HW145017   3.245   3.328   4.376
47726SOL    HW245018   3.237   3.202   4.294
47727SOL     OW45019   8.753  10.496   1.833
47727SOL    HW145020   8.830  10.523   1.784
47727SOL    HW245021   8.762  10.401   1.842
47728SOL     OW45022  10.053  14.114   7.422
47728SOL    HW145023  10.030  14.046   7.485
47728SOL    HW245024   9.974  14.125   7.369
47729SOL     OW45025   2.061  10.004   6.582
47729SOL    HW145026   2.051   9.910   6.565
47729SOL    HW245027   2.112  10.008   6.663
47730SOL     OW45028   3.716   1.400   7.863
47730SOL    HW145029   3.647   1.432   7.805
47730SOL    HW245030   3.676   1.395   7.949
47731SOL     OW45031  10.105   2.333   2.204
47731SOL    HW145032  10.162   2.399   2.163
47731SOL    HW245033  10.128   2.336   2.297
47732SOL     OW45034  14.139   1.086   2.240
47732SOL    HW145035  14.227   1.123   2.232
47732SOL    HW245036  14.085   1.158   2.271
47733SOL     OW45037   2.740  10.515   6.222
47733SOL    HW145038   2.670  10.454   6.198
47733SOL    HW245039   2.739  10.516   6.318
47734SOL     OW45040   5.072   9.005   5.561
47734SOL    HW145041   5.124   8.932   5.593
47734SOL    HW245042   4.981   8.976   5.572
47735SOL     OW45043   9.633   5.033   7.958
47735SOL    HW145044   9.687   5.062   7.884
47735SOL    HW245045   9.630   5.109   8.017
47736SOL     OW45046   6.928  11.073   2.152
47736SOL    HW145047   6.947  10.979   2.148
47736SOL    HW245048   7.001  11.113   2.104
47737SOL     OW45049   5.457   8.202   7.488
47737SOL    HW145050   5.366   8.188   7.512
47737SOL    HW245051   5.493   8.255   7.559
47738SOL     OW45052  12.394   7.274   1.009
47738SOL    HW145053  12.326   7.336   1.036
47738SOL    HW245054  12.455   7.326   0.958
47739SOL     OW45055  10.489   4.753   9.383
47739SOL    HW145056  10.410   4.706   9.412
47739SOL    HW245057  10.460   4.804   9.308
47740SOL     OW45058   1.484  11.172  14.269
47740SOL    HW145059   1.543  11.215  14.208
47740SOL    HW245060   1.494  11.078  14.251
47741SOL     OW45061  11.871  10.417  12.143
47741SOL    HW145062  11.963  10.441  12.149
47741SOL    HW245063  11.855  10.362  12.219
47742SOL     OW45064   6.517  10.416   3.845
47742SOL    HW145065   6.446  10.397   3.785
47742SOL    HW245066   6.590  10.442   3.789
47743SOL     OW45067   5.834  12.120   9.178
47743SOL    HW145068   5.805  12.063   9.106
47743SOL    HW245069   5.816  12.209   9.147
47744SOL     OW45070   6.017   8.962   8.810
47744SOL    HW145071   6.087   8.911   8.850
47744SOL    HW245072   6.002   8.920   8.725
47745SOL     OW45073  11.787   0.950   2.265
47745SOL    HW145074  11.760   0.864   2.296
47745SOL    HW245075  11.860   0.974   2.322
47746SOL     OW45076  13.233  10.598   3.669
47746SOL    HW145077  13.320  10.595   3.628
47746SOL    HW245078  13.198  10.683   3.643
47747SOL     OW45079  11.225  14.167  11.492
47747SOL    HW145080  11.266  14.126  11.416
47747SOL    HW245081  11.272  14.250  11.502
47748SOL     OW45082  10.848  13.887  13.537
47748SOL    HW145083  10.835  13.797  13.508
47748SOL    HW245084  10.938  13.907  13.512
47749SOL     OW45085   5.592  11.509   8.638
47749SOL    HW145086   5.649  11.447   8.593
47749SOL    HW245087   5.561  11.568   8.568
47750SOL     OW45088   2.135   6.039   2.711
47750SOL    HW145089   2.124   5.972   2.643
47750SOL    HW245090   2.162   6.117   2.664
47751SOL     OW45091   2.862  10.564   7.681
47751SOL    HW145092   2.919  10.624   7.633
47751SOL    HW245093   2.901  10.559   7.768
47752SOL     OW45094  14.420   4.932   7.633
47752SOL    HW145095  14.391   4.848   7.666
47752SOL    HW245096  14.513   4.918   7.611
47753SOL     OW45097   6.050  12.383   4.730
47753SOL    HW145098   6.074  12.317   4.665
47753SOL    HW245099   6.132  12.429   4.748
47754SOL     OW45100  14.307   1.532  13.172
47754SOL    HW145101  14.323   1.621  13.140
47754SOL    HW245102  14.217   1.513  13.146
47755SOL     OW45103   8.492  13.413   6.418
47755SOL    HW145104   8.477  13.494   6.467
47755SOL    HW245105   8.454  13.344   6.472
47756SOL     OW45106  13.233   9.378   6.606
47756SOL    HW145107  13.202   9.454   6.557
47756SOL    HW245108  13.154   9.333   6.634
47757SOL     OW45109   6.706   8.199  12.605
47757SOL    HW145110   6.642   8.211  12.534
47757SOL    HW245111   6.657   8.151  12.672
47758SOL     OW45112  10.276  10.857   0.902
47758SOL    HW145113  10.200  10.901   0.863
47758SOL    HW245114  10.324  10.820   0.827
47759SOL     OW45115   0.213   2.719  14.506
47759SOL    HW145116   0.262   2.735  14.587
47759SOL    HW245117   0.164   2.800  14.492
47760SOL     OW45118  12.340   4.887  11.551
47760SOL    HW145119  12.343   4.981  11.535
47760SOL    HW245120  12.258   4.858  11.513
47761SOL     OW45121   0.965   0.517   5.442
47761SOL    HW145122   0.990   0.608   5.428
47761SOL    HW245123   1.029   0.484   5.504
47762SOL     OW45124   5.514  11.627   0.962
47762SOL    HW145125   5.455  11.598   0.892
47762SOL    HW245126   5.482  11.582   1.040
47763SOL     OW45127  11.143   8.087  13.326
47763SOL    HW145128  11.232   8.051  13.332
47763SOL    HW245129  11.143   8.163  13.384
47764SOL     OW45130   8.490   6.059   9.183
47764SOL    HW145131   8.447   6.119   9.244
47764SOL    HW245132   8.560   6.019   9.233
47765SOL     OW45133   5.155  11.310   6.077
47765SOL    HW145134   5.217  11.358   6.023
47765SOL    HW245135   5.206  11.236   6.111
47766SOL     OW45136  14.421  14.541   7.452
47766SOL    HW145137  14.326  14.536   7.439
47766SOL    HW245138  14.444  14.455   7.487
47767SOL     OW45139   5.764  10.939  11.263
47767SOL    HW145140   5.782  11.002  11.194
47767SOL    HW245141   5.677  10.905  11.243
47768SOL     OW45142   1.037   8.199  11.836
47768SOL    HW145143   0.966   8.138  11.814
47768SOL    HW245144   1.084   8.213  11.754
47769SOL     OW45145   2.580   0.851  12.294
47769SOL    HW145146   2.561   0.758  12.286
47769SOL    HW245147   2.662   0.855  12.344
47770SOL     OW45148   4.248  10.696   1.467
47770SOL    HW145149   4.244  10.603   1.446
47770SOL    HW245150   4.205  10.739   1.393
47771SOL     OW45151  11.637  13.256  11.844
47771SOL    HW145152  11.726  13.250  11.810
47771SOL    HW245153  11.581  13.232  11.770
47772SOL     OW45154  13.253   4.795   0.084
47772SOL    HW145155  13.268   4.732   0.013
47772SOL    HW245156  13.313   4.766   0.153
47773SOL     OW45157   1.906   9.999  11.467
47773SOL    HW145158   1.952  10.060  11.409
47773SOL    HW245159   1.833   9.968  11.414
47774SOL     OW45160  11.764   1.081   2.538
47774SOL    HW145161  11.768   1.100   2.632
47774SOL    HW245162  11.852   1.098   2.506
47775SOL     OW45163   1.895   7.420   3.742
47775SOL    HW145164   1.900   7.499   3.796
47775SOL    HW245165   1.831   7.441   3.674
47776SOL     OW45166   6.128  11.996   4.800
47776SOL    HW145167   6.160  12.078   4.762
47776SOL    HW245168   6.033  12.003   4.794
47777SOL     OW45169  10.647   0.903   1.322
47777SOL    HW145170  10.662   0.971   1.256
47777SOL    HW245171  10.653   0.949   1.406
47778SOL     OW45172   3.581  10.490  11.644
47778SOL    HW145173   3.596  10.556  11.713
47778SOL    HW245174   3.669  10.458  11.623
47779SOL     OW45175   3.012  13.302  11.781
47779SOL    HW145176   3.095  13.321  11.823
47779SOL    HW245177   3.017  13.209  11.759
47780SOL     OW45178   2.323  12.390   6.641
47780SOL    HW145179   2.278  12.372   6.723
47780SOL    HW245180   2.320  12.485   6.632
47781SOL     OW45181   6.396   8.609  13.240
47781SOL    HW145182   6.310   8.598  13.199
47781SOL    HW245183   6.457   8.606  13.166
47782SOL     OW45184   4.846  12.020   0.167
47782SOL    HW145185   4.895  12.062   0.237
47782SOL    HW245186   4.867  11.927   0.174
47783SOL     OW45187   4.637   7.443   6.564
47783SOL    HW145188   4.597   7.366   6.522
47783SOL    HW245189   4.608   7.438   6.655
47784SOL     OW45190   4.131   9.270   4.915
47784SOL    HW145191   4.206   9.265   4.856
47784SOL    HW245192   4.125   9.184   4.954
47785SOL     OW45193   0.768  12.863  14.264
47785SOL    HW145194   0.743  12.784  14.217
47785SOL    HW245195   0.766  12.838  14.356
47786SOL     OW45196   2.650  14.491   8.174
47786SOL    HW145197   2.670  14.520   8.263
47786SOL    HW245198   2.693  14.555   8.118
47787SOL     OW45199   4.688   8.699   3.502
47787SOL    HW145200   4.615   8.647   3.538
47787SOL    HW245201   4.647   8.779   3.470
47788SOL     OW45202   7.452   2.055   9.068
47788SOL    HW145203   7.389   2.088   9.003
47788SOL    HW245204   7.403   1.988   9.116
47789SOL     OW45205  12.112  11.653   9.436
47789SOL    HW145206  12.100  11.739   9.397
47789SOL    HW245207  12.152  11.600   9.367
47790SOL     OW45208   5.057   2.932   2.059
47790SOL    HW145209   5.036   2.897   1.972
47790SOL    HW245210   5.136   2.986   2.044
47791SOL     OW45211   7.393   4.214   1.755
47791SOL    HW145212   7.395   4.119   1.759
47791SOL    HW245213   7.425   4.242   1.841
47792SOL     OW45214   3.120  10.777  11.267
47792SOL    HW145215   3.182  10.843  11.295
47792SOL    HW245216   3.064  10.762  11.343
47793SOL     OW45217  13.111  12.296  14.211
47793SOL    HW145218  13.115  12.392  14.210
47793SOL    HW245219  13.098  12.272  14.119
47794SOL     OW45220  12.840   2.133   8.396
47794SOL    HW145221  12.923   2.174   8.370
47794SOL    HW245222  12.786   2.206   8.426
47795SOL     OW45223  13.052   1.296   1.269
47795SOL    HW145224  13.135   1.344   1.262
47795SOL    HW245225  13.033   1.295   1.363
47796SOL     OW45226  11.998   7.070  12.260
47796SOL    HW145227  12.034   6.983  12.275
47796SOL    HW245228  12.071   7.129  12.275
47797SOL     OW45229  10.887  14.123  11.183
47797SOL    HW145230  10.904  14.076  11.265
47797SOL    HW245231  10.795  14.149  11.189
47798SOL     OW45232   4.775  11.099   5.890
47798SOL    HW145233   4.692  11.074   5.851
47798SOL    HW245234   4.834  11.026   5.872
47799SOL     OW45235   3.687   8.464   8.425
47799SOL    HW145236   3.722   8.518   8.354
47799SOL    HW245237   3.643   8.526   8.484
47800SOL     OW45238   3.282   2.731  12.198
47800SOL    HW145239   3.368   2.732  12.156
47800SOL    HW245240   3.220   2.747  12.127
47801SOL     OW45241  13.658   2.785   0.251
47801SOL    HW145242  13.596   2.755   0.317
47801SOL    HW245243  13.610   2.781   0.168
47802SOL     OW45244  14.746   5.821   9.457
47802SOL    HW145245  14.789   5.891   9.507
47802SOL    HW245246  14.653   5.837   9.469
47803SOL     OW45247   3.431   5.343  11.793
47803SOL    HW145248   3.493   5.415  11.802
47803SOL    HW245249   3.362   5.362  11.856
47804SOL     OW45250   3.876   7.302   4.690
47804SOL    HW145251   3.825   7.222   4.703
47804SOL    HW245252   3.931   7.308   4.768
47805SOL     OW45253   2.385   6.060   4.084
47805SOL    HW145254   2.313   6.025   4.032
47805SOL    HW245255   2.360   6.150   4.103
47806SOL     OW45256   5.001   1.434   1.894
47806SOL    HW145257   5.072   1.448   1.831
47806SOL    HW245258   5.041   1.381   1.964
47807SOL     OW45259   4.412  10.655  14.567
47807SOL    HW145260   4.355  10.590  14.608
47807SOL    HW245261   4.454  10.701  14.640
47808SOL     OW45262   7.978   0.307  10.377
47808SOL    HW145263   7.984   0.382  10.436
47808SOL    HW245264   7.966   0.345  10.290
47809SOL     OW45265   7.087   1.156   4.999
47809SOL    HW145266   7.161   1.213   5.019
47809SOL    HW245267   7.039   1.149   5.082
47810SOL     OW45268  14.651   4.338   2.271
47810SOL    HW145269  14.682   4.248   2.276
47810SOL    HW245270  14.721   4.386   2.228
47811SOL     OW45271   2.616   6.248   2.244
47811SOL    HW145272   2.594   6.338   2.217
47811SOL    HW245273   2.562   6.232   2.321
47812SOL     OW45274   0.523   5.028   2.758
47812SOL    HW145275   0.549   4.938   2.739
47812SOL    HW245276   0.522   5.033   2.854
47813SOL     OW45277  13.024  13.223   5.809
47813SOL    HW145278  12.941  13.240   5.766
47813SOL    HW245279  13.016  13.264   5.895
47814SOL     OW45280  11.402   2.891  13.305
47814SOL    HW145281  11.484   2.841  13.305
47814SOL    HW245282  11.352   2.856  13.232
47815SOL     OW45283   8.889  12.418   4.809
47815SOL    HW145284   8.961  12.398   4.869
47815SOL    HW245285   8.857  12.333   4.780
47816SOL     OW45286   1.165   5.319   4.952
47816SOL    HW145287   1.187   5.401   4.997
47816SOL    HW245288   1.175   5.339   4.859
47817SOL     OW45289   3.821   5.652  13.716
47817SOL    HW145290   3.895   5.705  13.686
47817SOL    HW245291   3.765   5.645  13.639
47818SOL     OW45292   8.064   2.545  13.266
47818SOL    HW145293   8.131   2.613  13.261
47818SOL    HW245294   7.994   2.584  13.317
47819SOL     OW45295   2.054   8.453   9.043
47819SOL    HW145296   2.131   8.430   8.990
47819SOL    HW245297   2.023   8.535   9.005
47820SOL     OW45298   4.433   5.829   2.817
47820SOL    HW145299   4.431   5.829   2.721
47820SOL    HW245300   4.504   5.889   2.839
47821SOL     OW45301   8.758   1.372   5.974
47821SOL    HW145302   8.754   1.460   5.935
47821SOL    HW245303   8.789   1.387   6.063
47822SOL     OW45304   6.872   8.397  13.035
47822SOL    HW145305   6.897   8.359  12.951
47822SOL    HW245306   6.911   8.484  13.035
47823SOL     OW45307   5.855   1.133   8.936
47823SOL    HW145308   5.931   1.111   8.990
47823SOL    HW245309   5.783   1.142   8.998
47824SOL     OW45310  13.836   9.464   9.695
47824SOL    HW145311  13.840   9.392   9.758
47824SOL    HW245312  13.917   9.455   9.644
47825SOL     OW45313  14.673   7.038   5.268
47825SOL    HW145314  14.615   7.061   5.196
47825SOL    HW245315  14.740   7.106   5.268
47826SOL     OW45316   5.945   1.433  13.473
47826SOL    HW145317   5.904   1.435  13.559
47826SOL    HW245318   5.877   1.463  13.413
47827SOL     OW45319   1.128   7.091   5.118
47827SOL    HW145320   1.204   7.126   5.165
47827SOL    HW245321   1.095   7.165   5.067
47828SOL     OW45322   5.462   7.316   0.194
47828SOL    HW145323   5.443   7.237   0.244
47828SOL    HW245324   5.503   7.284   0.113
47829SOL     OW45325   4.467   6.143  13.995
47829SOL    HW145326   4.458   6.133  14.090
47829SOL    HW245327   4.550   6.099  13.974
47830SOL     OW45328  10.974   8.806  12.131
47830SOL    HW145329  11.032   8.731  12.119
47830SOL    HW245330  11.024   8.881  12.099
47831SOL     OW45331   2.305   5.357  11.138
47831SOL    HW145332   2.317   5.378  11.231
47831SOL    HW245333   2.377   5.401  11.093
47832SOL     OW45334  13.422  11.099   2.583
47832SOL    HW145335  13.330  11.086   2.560
47832SOL    HW245336  13.421  11.169   2.649
47833SOL     OW45337   4.935  12.332   9.026
47833SOL    HW145338   4.999  12.377   8.970
47833SOL    HW245339   4.856  12.385   9.019
47834SOL     OW45340  11.114   7.195   1.692
47834SOL    HW145341  11.175   7.268   1.687
47834SOL    HW245342  11.057   7.206   1.617
47835SOL     OW45343   1.743   1.356   6.509
47835SOL    HW145344   1.782   1.425   6.562
47835SOL    HW245345   1.668   1.398   6.467
47836SOL     OW45346  10.148   3.605   3.847
47836SOL    HW145347  10.129   3.670   3.779
47836SOL    HW245348  10.231   3.633   3.884
47837SOL     OW45349  14.559  11.568  11.272
47837SOL    HW145350  14.486  11.556  11.212
47837SOL    HW245351  14.572  11.663  11.276
47838SOL     OW45352  12.491   5.302   6.986
47838SOL    HW145353  12.413   5.353   7.007
47838SOL    HW245354  12.530   5.282   7.071
47839SOL     OW45355   5.931   3.246   7.339
47839SOL    HW145356   5.885   3.175   7.383
47839SOL    HW245357   5.996   3.203   7.284
47840SOL     OW45358   0.019  12.668  12.515
47840SOL    HW145359  14.864  12.749  12.474
47840SOL    HW245360   0.083  12.695  12.581
47841SOL     OW45361  14.359  10.988  12.034
47841SOL    HW145362  14.296  10.992  11.962
47841SOL    HW245363  14.407  10.906  12.019
47842SOL     OW45364   9.813   9.839   7.668
47842SOL    HW145365   9.836   9.819   7.577
47842SOL    HW245366   9.827   9.756   7.714
47843SOL     OW45367  14.243   3.471   5.516
47843SOL    HW145368  14.291   3.532   5.572
47843SOL    HW245369  14.310   3.434   5.458
47844SOL     OW45370   2.099  13.842   1.303
47844SOL    HW145371   2.017  13.890   1.317
47844SOL    HW245372   2.165  13.892   1.351
47845SOL     OW45373   0.295  11.767  10.391
47845SOL    HW145374   0.380  11.809  10.388
47845SOL    HW245375   0.313  11.673  10.378
47846SOL     OW45376   7.585  11.491  14.326
47846SOL    HW145377   7.610  11.437  14.401
47846SOL    HW245378   7.502  11.532  14.353
47847SOL     OW45379   6.868  13.870   2.385
47847SOL    HW145380   6.946  13.900   2.431
47847SOL    HW245381   6.811  13.947   2.383
47848SOL     OW45382   3.118   6.247   1.057
47848SOL    HW145383   3.189   6.201   1.013
47848SOL    HW245384   3.042   6.189   1.049
47849SOL     OW45385  11.052  10.373  11.233
47849SOL    HW145386  11.091  10.301  11.281
47849SOL    HW245387  10.989  10.412  11.295
47850SOL     OW45388   3.367   9.149   1.948
47850SOL    HW145389   3.377   9.088   1.876
47850SOL    HW245390   3.452   9.192   1.955
47851SOL     OW45391   4.624   1.471   7.327
47851SOL    HW145392   4.643   1.561   7.356
47851SOL    HW245393   4.606   1.423   7.408
47852SOL     OW45394   2.951   2.890   8.394
47852SOL    HW145395   2.941   2.851   8.307
47852SOL    HW245396   3.006   2.829   8.442
47853SOL     OW45397   9.824   1.482   4.978
47853SOL    HW145398   9.882   1.455   4.907
47853SOL    HW245399   9.737   1.453   4.951
47854SOL     OW45400  11.153   9.550   1.619
47854SOL    HW145401  11.210   9.626   1.612
47854SOL    HW245402  11.189   9.487   1.557
47855SOL     OW45403   2.232   9.356   0.402
47855SOL    HW145404   2.307   9.301   0.381
47855SOL    HW245405   2.223   9.416   0.327
47856SOL     OW45406   4.975  11.881  11.428
47856SOL    HW145407   4.913  11.843  11.490
47856SOL    HW245408   4.993  11.968  11.463
47857SOL     OW45409   5.324   8.958  10.134
47857SOL    HW145410   5.301   8.882  10.080
47857SOL    HW245411   5.256   9.022  10.115
47858SOL     OW45412   5.182  10.882  10.822
47858SOL    HW145413   5.139  10.962  10.791
47858SOL    HW245414   5.257  10.872  10.763
47859SOL     OW45415  12.979   1.039   6.561
47859SOL    HW145416  12.920   1.093   6.614
47859SOL    HW245417  13.054   1.024   6.618
47860SOL     OW45418   0.459  10.210   4.719
47860SOL    HW145419   0.492  10.149   4.785
47860SOL    HW245420   0.414  10.155   4.655
47861SOL     OW45421  11.387   7.447  12.919
47861SOL    HW145422  11.426   7.386  12.856
47861SOL    HW245423  11.334   7.392  12.976
47862SOL     OW45424   8.741  13.040   6.647
47862SOL    HW145425   8.693  12.958   6.636
47862SOL    HW245426   8.714  13.073   6.733
47863SOL     OW45427   6.404  11.511  10.523
47863SOL    HW145428   6.444  11.438  10.570
47863SOL    HW245429   6.311  11.490  10.520
47864SOL     OW45430   0.401   2.421   6.651
47864SOL    HW145431   0.384   2.485   6.582
47864SOL    HW245432   0.487   2.384   6.629
47865SOL     OW45433   4.053   7.406  14.349
47865SOL    HW145434   4.102   7.334  14.310
47865SOL    HW245435   4.120   7.458  14.394
47866SOL     OW45436   4.153   1.508   0.841
47866SOL    HW145437   4.090   1.573   0.873
47866SOL    HW245438   4.153   1.518   0.746
47867SOL     OW45439   0.860  12.777   1.423
47867SOL    HW145440   0.893  12.695   1.387
47867SOL    HW245441   0.929  12.841   1.404
47868SOL     OW45442  11.054   5.153  13.808
47868SOL    HW145443  10.994   5.169  13.881
47868SOL    HW245444  11.059   5.058  13.801
47869SOL     OW45445  14.694   3.162   9.832
47869SOL    HW145446  14.734   3.196   9.752
47869SOL    HW245447  14.634   3.093   9.801
47870SOL     OW45448  12.427   0.028   5.462
47870SOL    HW145449  12.334   0.021   5.484
47870SOL    HW245450  12.428   0.039   5.366
47871SOL     OW45451   9.780   0.402   4.184
47871SOL    HW145452   9.724   0.427   4.258
47871SOL    HW245453   9.865   0.440   4.205
47872SOL     OW45454   1.026  11.027   4.917
47872SOL    HW145455   1.106  10.992   4.956
47872SOL    HW245456   1.026  10.993   4.827
47873SOL     OW45457   4.965   3.302   8.234
47873SOL    HW145458   4.980   3.219   8.189
47873SOL    HW245459   4.969   3.280   8.327
47874SOL     OW45460   7.135  12.828   4.208
47874SOL    HW145461   7.228  12.816   4.226
47874SOL    HW245462   7.094  12.746   4.237
47875SOL     OW45463   8.574  12.905   6.225
47875SOL    HW145464   8.602  12.960   6.297
47875SOL    HW245465   8.571  12.963   6.149
47876SOL     OW45466   5.172   3.821  13.132
47876SOL    HW145467   5.172   3.836  13.226
47876SOL    HW245468   5.099   3.874  13.099
47877SOL     OW45469  11.708  11.817  12.082
47877SOL    HW145470  11.751  11.753  12.026
47877SOL    HW245471  11.648  11.864  12.023
47878SOL     OW45472  11.972   3.482   0.096
47878SOL    HW145473  11.879   3.470   0.114
47878SOL    HW245474  11.990   3.573   0.123
47879SOL     OW45475   2.415   3.725   2.387
47879SOL    HW145476   2.348   3.701   2.322
47879SOL    HW245477   2.410   3.655   2.452
47880SOL     OW45478   4.614   4.601   7.304
47880SOL    HW145479   4.572   4.649   7.233
47880SOL    HW245480   4.630   4.667   7.371
47881SOL     OW45481   0.378   1.546  10.714
47881SOL    HW145482   0.347   1.604  10.784
47881SOL    HW245483   0.442   1.489  10.756
47882SOL     OW45484   7.629  12.692  14.594
47882SOL    HW145485   7.629  12.753  14.520
47882SOL    HW245486   7.711  12.710  14.640
47883SOL     OW45487   2.375  11.551   0.438
47883SOL    HW145488   2.388  11.466   0.480
47883SOL    HW245489   2.399  11.615   0.505
47884SOL     OW45490  12.272   0.213   8.962
47884SOL    HW145491  12.355   0.179   8.928
47884SOL    HW245492  12.268   0.180   9.052
47885SOL     OW45493   9.038   6.632   2.085
47885SOL    HW145494   9.041   6.569   2.157
47885SOL    HW245495   9.114   6.688   2.099
47886SOL     OW45496  12.753   4.280  12.661
47886SOL    HW145497  12.745   4.317  12.573
47886SOL    HW245498  12.699   4.336  12.716
47887SOL     OW45499   8.011   4.109   6.477
47887SOL    HW145500   8.075   4.059   6.426
47887SOL    HW245501   8.006   4.194   6.434
47888SOL     OW45502  11.809   2.891   4.047
47888SOL    HW145503  11.837   2.812   4.093
47888SOL    HW245504  11.776   2.949   4.116
47889SOL     OW45505  11.985  11.096   9.497
47889SOL    HW145506  12.065  11.055   9.464
47889SOL    HW245507  11.932  11.024   9.529
47890SOL     OW45508  13.806   1.327   4.868
47890SOL    HW145509  13.761   1.317   4.784
47890SOL    HW245510  13.881   1.267   4.862
47891SOL     OW45511   8.616   9.120  12.507
47891SOL    HW145512   8.648   9.053  12.568
47891SOL    HW245513   8.613   9.200  12.559
47892SOL     OW45514   3.274   4.912   0.770
47892SOL    HW145515   3.196   4.865   0.741
47892SOL    HW245516   3.323   4.929   0.690
47893SOL     OW45517   7.201  13.146  14.539
47893SOL    HW145518   7.197  13.167  14.446
47893SOL    HW245519   7.295  13.149  14.560
47894SOL     OW45520   6.748  11.104   9.116
47894SOL    HW145521   6.732  11.088   9.023
47894SOL    HW245522   6.823  11.164   9.118
47895SOL     OW45523  10.301   4.926   4.210
47895SOL    HW145524  10.316   5.021   4.205
47895SOL    HW245525  10.325   4.903   4.300
47896SOL     OW45526   6.690  14.783   0.932
47896SOL    HW145527   6.602  14.778   0.972
47896SOL    HW245528   6.725  14.866   0.965
47897SOL     OW45529   1.388   4.142   1.372
47897SOL    HW145530   1.472   4.100   1.390
47897SOL    HW245531   1.346   4.149   1.458
47898SOL     OW45532   8.821   4.225   3.864
47898SOL    HW145533   8.872   4.234   3.945
47898SOL    HW245534   8.817   4.131   3.848
47899SOL     OW45535   4.085  11.095   0.993
47899SOL    HW145536   4.017  11.162   0.998
47899SOL    HW245537   4.045  11.023   0.943
47900SOL     OW45538   9.452  13.737  11.071
47900SOL    HW145539   9.454  13.692  10.986
47900SOL    HW245540   9.429  13.827  11.050
47901SOL     OW45541   8.852   6.688   9.656
47901SOL    HW145542   8.770   6.734   9.674
47901SOL    HW245543   8.855   6.617   9.721
47902SOL     OW45544   8.543   0.470   6.946
47902SOL    HW145545   8.579   0.494   6.861
47902SOL    HW245546   8.450   0.494   6.941
47903SOL     OW45547   5.345   0.143   5.393
47903SOL    HW145548   5.294   0.126   5.315
47903SOL    HW245549   5.285   0.127   5.466
47904SOL     OW45550  13.422   8.426  14.749
47904SOL    HW145551  13.460   8.503  14.792
47904SOL    HW245552  13.360   8.461  14.686
47905SOL     OW45553   6.390  13.238   3.970
47905SOL    HW145554   6.471  13.266   3.928
47905SOL    HW245555   6.375  13.302   4.039
47906SOL     OW45556   8.231  11.648   0.306
47906SOL    HW145557   8.280  11.640   0.388
47906SOL    HW245558   8.297  11.660   0.239
47907SOL     OW45559   3.656  13.708   8.916
47907SOL    HW145560   3.657  13.732   9.009
47907SOL    HW245561   3.662  13.791   8.870
47908SOL     OW45562   9.798   1.490  14.525
47908SOL    HW145563   9.817   1.511  14.616
47908SOL    HW245564   9.703   1.498  14.518
47909SOL     OW45565  10.151   8.382  13.491
47909SOL    HW145566  10.138   8.461  13.543
47909SOL    HW245567  10.178   8.315  13.555
47910SOL     OW45568   8.071  13.714  11.280
47910SOL    HW145569   8.062  13.790  11.338
47910SOL    HW245570   7.995  13.660  11.300
47911SOL     OW45571  10.793  10.856   6.626
47911SOL    HW145572  10.812  10.793   6.695
47911SOL    HW245573  10.871  10.911   6.621
47912SOL     OW45574  12.798  10.101   0.664
47912SOL    HW145575  12.739  10.081   0.591
47912SOL    HW245576  12.804  10.196   0.665
47913SOL     OW45577   8.900   4.768   2.046
47913SOL    HW145578   8.820   4.731   2.082
47913SOL    HW245579   8.902   4.858   2.078
47914SOL     OW45580   9.464   2.792   8.372
47914SOL    HW145581   9.488   2.777   8.463
47914SOL    HW245582   9.373   2.822   8.375
47915SOL     OW45583  11.610  11.903  13.983
47915SOL    HW145584  11.532  11.847  13.982
47915SOL    HW245585  11.588  11.973  14.044
47916SOL     OW45586  11.051   9.917   5.670
47916SOL    HW145587  11.118   9.984   5.680
47916SOL    HW245588  10.995   9.927   5.747
47917SOL     OW45589   3.702  14.178   1.644
47917SOL    HW145590   3.721  14.242   1.714
47917SOL    HW245591   3.607  14.165   1.649
47918SOL     OW45592  14.326  12.663   8.319
47918SOL    HW145593  14.401  12.680   8.377
47918SOL    HW245594  14.274  12.598   8.367
47919SOL     OW45595   7.228  11.899   9.757
47919SOL    HW145596   7.237  11.826   9.696
47919SOL    HW245597   7.308  11.897   9.809
47920SOL     OW45598  12.607   6.939  14.421
47920SOL    HW145599  12.542   6.973  14.483
47920SOL    HW245600  12.648   7.017  14.384
47921SOL     OW45601  12.199   4.893   0.201
47921SOL    HW145602  12.276   4.941   0.171
47921SOL    HW245603  12.216   4.876   0.293
47922SOL     OW45604   6.238  10.560   8.537
47922SOL    HW145605   6.230  10.655   8.551
47922SOL    HW245606   6.251  10.551   8.442
47923SOL     OW45607  14.311  13.951  11.106
47923SOL    HW145608  14.389  13.964  11.160
47923SOL    HW245609  14.254  14.025  11.128
47924SOL     OW45610   0.993  13.750   2.365
47924SOL    HW145611   0.967  13.819   2.425
47924SOL    HW245612   0.948  13.672   2.396
47925SOL     OW45613   7.268   5.670  11.944
47925SOL    HW145614   7.201   5.738  11.954
47925SOL    HW245615   7.320   5.698  11.869
47926SOL     OW45616   6.572  13.224  10.042
47926SOL    HW145617   6.478  13.224  10.027
47926SOL    HW245618   6.582  13.207  10.136
47927SOL     OW45619   2.911  11.201   1.776
47927SOL    HW145620   2.889  11.220   1.685
47927SOL    HW245621   2.872  11.273   1.826
47928SOL     OW45622  13.522   1.002  13.229
47928SOL    HW145623  13.476   0.950  13.295
47928SOL    HW245624  13.533   1.088  13.269
47929SOL     OW45625   9.188  11.619   0.699
47929SOL    HW145626   9.177  11.712   0.718
47929SOL    HW245627   9.154  11.574   0.776
47930SOL     OW45628  11.383   4.887  13.754
47930SOL    HW145629  11.359   4.821  13.689
47930SOL    HW245630  11.342   4.857  13.835
47931SOL     OW45631   8.700  13.376  14.691
47931SOL    HW145632   8.722  13.415  14.776
47931SOL    HW245633   8.785  13.353  14.653
47932SOL     OW45634   4.653  12.384   2.691
47932SOL    HW145635   4.684  12.326   2.760
47932SOL    HW245636   4.733  12.414   2.647
47933SOL     OW45637   0.954  12.954   6.988
47933SOL    HW145638   0.871  12.997   7.009
47933SOL    HW245639   0.949  12.869   7.031
47934SOL     OW45640   9.163   8.453   3.386
47934SOL    HW145641   9.128   8.368   3.359
47934SOL    HW245642   9.109   8.480   3.460
47935SOL     OW45643  14.349   8.025   1.788
47935SOL    HW145644  14.257   8.051   1.785
47935SOL    HW245645  14.363   7.993   1.877
47936SOL     OW45646   3.066   3.134   8.720
47936SOL    HW145647   3.060   3.137   8.625
47936SOL    HW245648   2.979   3.107   8.749
47937SOL     OW45649   9.415   3.317   3.394
47937SOL    HW145650   9.377   3.388   3.342
47937SOL    HW245651   9.413   3.241   3.337
47938SOL     OW45652   9.496  10.584   0.792
47938SOL    HW145653   9.440  10.507   0.791
47938SOL    HW245654   9.474  10.630   0.711
47939SOL     OW45655   0.973   2.502   8.687
47939SOL    HW145656   0.990   2.575   8.627
47939SOL    HW245657   0.911   2.447   8.639
47940SOL     OW45658  10.571   0.378   4.864
47940SOL    HW145659  10.522   0.298   4.847
47940SOL    HW245660  10.530   0.417   4.941
47941SOL     OW45661  14.085   3.018  11.887
47941SOL    HW145662  14.041   3.080  11.945
47941SOL    HW245663  14.123   2.953  11.946
47942SOL     OW45664   2.524  11.634   8.629
47942SOL    HW145665   2.613  11.670   8.629
47942SOL    HW245666   2.534  11.545   8.663
47943SOL     OW45667   0.751   7.515  14.607
47943SOL    HW145668   0.751   7.594  14.553
47943SOL    HW245669   0.698   7.539  14.684
47944SOL     OW45670  10.224   3.783   0.456
47944SOL    HW145671  10.142   3.830   0.445
47944SOL    HW245672  10.268   3.829   0.527
47945SOL     OW45673   9.275   8.185   1.581
47945SOL    HW145674   9.257   8.251   1.514
47945SOL    HW245675   9.367   8.200   1.605
47946SOL     OW45676  12.198   5.156   7.873
47946SOL    HW145677  12.154   5.202   7.945
47946SOL    HW245678  12.212   5.223   7.807
47947SOL     OW45679   7.985   1.578  11.115
47947SOL    HW145680   7.902   1.530  11.114
47947SOL    HW245681   8.027   1.553  11.197
47948SOL     OW45682   7.999  14.810   2.105
47948SOL    HW145683   8.038  14.770   2.027
47948SOL    HW245684   8.072  14.815   2.168
47949SOL     OW45685   7.362   3.691   7.804
47949SOL    HW145686   7.343   3.743   7.882
47949SOL    HW245687   7.447   3.724   7.774
47950SOL     OW45688   2.987   8.828  13.268
47950SOL    HW145689   3.053   8.894  13.288
47950SOL    HW245690   2.963   8.845  13.176
47951SOL     OW45691   1.103   1.525   5.157
47951SOL    HW145692   1.145   1.542   5.073
47951SOL    HW245693   1.051   1.604   5.174
47952SOL     OW45694   0.496   8.066   2.631
47952SOL    HW145695   0.495   8.136   2.697
47952SOL    HW245696   0.579   8.020   2.647
47953SOL     OW45697  11.198   3.970   6.350
47953SOL    HW145698  11.274   4.028   6.341
47953SOL    HW245699  11.183   3.964   6.444
47954SOL     OW45700  13.839   9.649   6.807
47954SOL    HW145701  13.751   9.682   6.787
47954SOL    HW245702  13.896   9.695   6.746
47955SOL     OW45703  13.387  13.791   9.694
47955SOL    HW145704  13.347  13.828   9.772
47955SOL    HW245705  13.481  13.791   9.712
47956SOL     OW45706  12.110  14.641   0.174
47956SOL    HW145707  12.072  14.588   0.104
47956SOL    HW245708  12.098  14.731   0.144
47957SOL     OW45709   7.345  11.658   9.580
47957SOL    HW145710   7.286  11.621   9.646
47957SOL    HW245711   7.410  11.590   9.566
47958SOL     OW45712   4.018  14.136   7.762
47958SOL    HW145713   4.009  14.040   7.767
47958SOL    HW245714   3.929  14.169   7.768
47959SOL     OW45715   8.639  12.282   0.301
47959SOL    HW145716   8.640  12.187   0.311
47959SOL    HW245717   8.577  12.313   0.367
47960SOL     OW45718   1.425   2.923  14.778
47960SOL    HW145719   1.506   2.897  14.823
47960SOL    HW245720   1.451   2.998  14.725
47961SOL     OW45721   2.415   1.262   4.831
47961SOL    HW145722   2.449   1.351   4.826
47961SOL    HW245723   2.383   1.254   4.921
47962SOL     OW45724   9.315  14.670   0.887
47962SOL    HW145725   9.287  14.621   0.964
47962SOL    HW245726   9.343  14.603   0.825
47963SOL     OW45727   0.672  12.109   4.684
47963SOL    HW145728   0.666  12.093   4.778
47963SOL    HW245729   0.722  12.034   4.650
47964SOL     OW45730  14.004   5.469   7.666
47964SOL    HW145731  14.063   5.479   7.591
47964SOL    HW245732  14.031   5.386   7.706
47965SOL     OW45733  10.692   3.960   0.344
47965SOL    HW145734  10.767   3.902   0.352
47965SOL    HW245735  10.669   3.956   0.251
47966SOL     OW45736   7.002   0.501   0.598
47966SOL    HW145737   6.973   0.572   0.541
47966SOL    HW245738   6.969   0.422   0.556
47967SOL     OW45739   7.623   8.692   0.434
47967SOL    HW145740   7.593   8.603   0.415
47967SOL    HW245741   7.544   8.739   0.460
47968SOL     OW45742   5.392   3.290   5.798
47968SOL    HW145743   5.323   3.303   5.733
47968SOL    HW245744   5.474   3.302   5.750
47969SOL     OW45745   9.146   6.121   3.322
47969SOL    HW145746   9.221   6.124   3.381
47969SOL    HW245747   9.086   6.058   3.361
47970SOL     OW45748   2.352   2.501  10.814
47970SOL    HW145749   2.317   2.548  10.889
47970SOL    HW245750   2.350   2.409  10.840
47971SOL     OW45751   0.217  12.043   1.646
47971SOL    HW145752   0.202  11.963   1.596
47971SOL    HW245753   0.151  12.104   1.615
47972SOL     OW45754   3.820   9.569  14.028
47972SOL    HW145755   3.772   9.632  13.974
47972SOL    HW245756   3.874   9.520  13.967
47973SOL     OW45757   3.903   2.910   1.358
47973SOL    HW145758   3.832   2.974   1.348
47973SOL    HW245759   3.956   2.944   1.430
47974SOL     OW45760   9.738  12.176   5.726
47974SOL    HW145761   9.647  12.204   5.716
47974SOL    HW245762   9.732  12.087   5.762
47975SOL     OW45763  13.353  10.438   7.003
47975SOL    HW145764  13.408  10.431   6.925
47975SOL    HW245765  13.329  10.531   7.007
47976SOL     OW45766   5.922  10.042   2.102
47976SOL    HW145767   5.905  10.110   2.167
47976SOL    HW245768   6.005  10.002   2.129
47977SOL     OW45769  12.467  11.070   4.434
47977SOL    HW145770  12.536  11.135   4.420
47977SOL    HW245771  12.498  11.019   4.508
47978SOL     OW45772   8.181   9.613  10.790
47978SOL    HW145773   8.203   9.679  10.856
47978SOL    HW245774   8.265   9.571  10.770
47979SOL     OW45775   5.586  13.531  10.798
47979SOL    HW145776   5.538  13.573  10.869
47979SOL    HW245777   5.576  13.437  10.814
47980SOL     OW45778   9.132   2.527   8.084
47980SOL    HW145779   9.141   2.451   8.026
47980SOL    HW245780   9.042   2.557   8.073
47981SOL     OW45781  10.855  13.626   8.057
47981SOL    HW145782  10.950  13.623   8.051
47981SOL    HW245783  10.836  13.594   8.145
47982SOL     OW45784   1.024  14.449   0.339
47982SOL    HW145785   1.086  14.460   0.267
47982SOL    HW245786   0.961  14.520   0.327
47983SOL     OW45787   5.071   7.296   4.156
47983SOL    HW145788   5.004   7.240   4.117
47983SOL    HW245789   5.112   7.340   4.082
47984SOL     OW45790   3.380   3.205   5.667
47984SOL    HW145791   3.417   3.289   5.696
47984SOL    HW245792   3.456   3.154   5.639
47985SOL     OW45793  12.625   3.409   6.300
47985SOL    HW145794  12.608   3.494   6.258
47985SOL    HW245795  12.550   3.355   6.274
47986SOL     OW45796  10.863   6.825   4.371
47986SOL    HW145797  10.955   6.818   4.399
47986SOL    HW245798  10.867   6.867   4.286
47987SOL     OW45799  14.685  12.008  14.382
47987SOL    HW145800  14.709  12.099  14.366
47987SOL    HW245801  14.647  11.978  14.299
47988SOL     OW45802   0.929   7.805  10.868
47988SOL    HW145803   0.869   7.878  10.883
47988SOL    HW245804   0.930   7.795  10.773
47989SOL     OW45805   4.528   1.729   0.844
47989SOL    HW145806   4.460   1.791   0.817
47989SOL    HW245807   4.486   1.675   0.911
47990SOL     OW45808   6.784  13.243   2.601
47990SOL    HW145809   6.836  13.321   2.581
47990SOL    HW245810   6.765  13.249   2.695
47991SOL     OW45811  11.327  12.536   7.353
47991SOL    HW145812  11.364  12.496   7.274
47991SOL    HW245813  11.341  12.630   7.341
47992SOL     OW45814  13.938   9.680   9.525
47992SOL    HW145815  13.848   9.645   9.531
47992SOL    HW245816  13.979   9.627   9.457
47993SOL     OW45817  13.344   5.519   6.574
47993SOL    HW145818  13.264   5.553   6.533
47993SOL    HW245819  13.318   5.436   6.614
47994SOL     OW45820   0.425   4.798   6.164
47994SOL    HW145821   0.356   4.860   6.186
47994SOL    HW245822   0.460   4.829   6.080
47995SOL     OW45823   8.315  10.727   9.552
47995SOL    HW145824   8.395  10.721   9.500
47995SOL    HW245825   8.246  10.696   9.493
47996SOL     OW45826   1.051   6.138   6.154
47996SOL    HW145827   1.118   6.157   6.221
47996SOL    HW245828   1.070   6.199   6.084
47997SOL     OW45829   3.787  11.718   6.711
47997SOL    HW145830   3.787  11.789   6.775
47997SOL    HW245831   3.744  11.645   6.755
47998SOL     OW45832   5.456   3.035   3.502
47998SOL    HW145833   5.536   3.074   3.536
47998SOL    HW245834   5.399   3.025   3.578
47999SOL     OW45835   8.864   8.053   7.708
47999SOL    HW145836   8.943   8.065   7.761
47999SOL    HW245837   8.812   8.132   7.724
48000SOL     OW45838   8.327   7.847  12.721
48000SOL    HW145839   8.250   7.893  12.687
48000SOL    HW245840   8.291   7.786  12.786
48001SOL     OW45841   5.798  10.919   5.415
48001SOL    HW145842   5.857  10.958   5.480
48001SOL    HW245843   5.840  10.937   5.331
48002SOL     OW45844  14.231   6.024  10.705
48002SOL    HW145845  14.200   6.113  10.723
48002SOL    HW245846  14.257   6.026  10.613
48003SOL     OW45847  14.143  13.063   1.257
48003SOL    HW145848  14.104  13.021   1.180
48003SOL    HW245849  14.226  13.018   1.269
48004SOL     OW45850   6.322   2.502   1.274
48004SOL    HW145851   6.331   2.521   1.181
48004SOL    HW245852   6.412   2.497   1.306
48005SOL     OW45853   7.379   2.725   2.989
48005SOL    HW145854   7.355   2.635   3.009
48005SOL    HW245855   7.302   2.761   2.944
48006SOL     OW45856   9.741  11.411   0.424
48006SOL    HW145857   9.745  11.488   0.367
48006SOL    HW245858   9.698  11.344   0.370
48007SOL     OW45859  12.101   1.824   5.211
48007SOL    HW145860  12.182   1.854   5.253
48007SOL    HW245861  12.084   1.739   5.250
48008SOL     OW45862  13.372   8.229   2.376
48008SOL    HW145863  13.412   8.166   2.317
48008SOL    HW245864  13.319   8.177   2.436
48009SOL     OW45865  13.145  12.038  11.154
48009SOL    HW145866  13.116  11.952  11.184
48009SOL    HW245867  13.151  12.090  11.235
48010SOL     OW45868  14.246   7.258   0.063
48010SOL    HW145869  14.331   7.225   0.094
48010SOL    HW245870  14.182   7.221   0.123
48011SOL     OW45871   2.075   6.674  10.367
48011SOL    HW145872   1.999   6.708  10.319
48011SOL    HW245873   2.146   6.734  10.346
48012SOL     OW45874   4.100  11.477  12.622
48012SOL    HW145875   4.051  11.531  12.685
48012SOL    HW245876   4.084  11.518  12.537
48013SOL     OW45877   6.304   9.175   0.366
48013SOL    HW145878   6.262   9.190   0.451
48013SOL    HW245879   6.352   9.256   0.349
48014SOL     OW45880   0.889   9.385  10.560
48014SOL    HW145881   0.875   9.335  10.480
48014SOL    HW245882   0.944   9.459  10.533
48015SOL     OW45883   8.169   3.856   5.486
48015SOL    HW145884   8.193   3.918   5.418
48015SOL    HW245885   8.240   3.863   5.551
48016SOL     OW45886   2.809   4.622   1.253
48016SOL    HW145887   2.784   4.533   1.230
48016SOL    HW245888   2.865   4.612   1.330
48017SOL     OW45889   6.097   5.510   7.063
48017SOL    HW145890   6.063   5.530   6.975
48017SOL    HW245891   6.088   5.592   7.111
48018SOL     OW45892  10.407   5.490   2.589
48018SOL    HW145893  10.347   5.500   2.515
48018SOL    HW245894  10.472   5.426   2.560
48019SOL     OW45895   7.386  14.054   0.696
48019SOL    HW145896   7.368  14.014   0.611
48019SOL    HW245897   7.457  14.001   0.733
48020SOL     OW45898  13.967  11.867  13.351
48020SOL    HW145899  13.905  11.940  13.349
48020SOL    HW245900  14.050  11.908  13.377
48021SOL     OW45901   5.807  10.774   3.660
48021SOL    HW145902   5.781  10.787   3.569
48021SOL    HW245903   5.902  10.762   3.657
48022SOL     OW45904   4.462   5.311   1.556
48022SOL    HW145905   4.503   5.288   1.639
48022SOL    HW245906   4.504   5.393   1.530
48023SOL     OW45907   9.747   1.908  11.405
48023SOL    HW145908   9.817   1.876  11.348
48023SOL    HW245909   9.764   2.002  11.414
48024SOL     OW45910   0.058   6.388   9.500
48024SOL    HW145911   0.015   6.307   9.474
48024SOL    HW245912   0.146   6.360   9.528
48025SOL     OW45913   3.342   0.453   3.014
48025SOL    HW145914   3.286   0.529   3.028
48025SOL    HW245915   3.284   0.389   2.972
48026SOL     OW45916   3.041   3.097   1.179
48026SOL    HW145917   3.131   3.110   1.148
48026SOL    HW245918   3.026   3.003   1.172
48027SOL     OW45919  13.290   1.870   5.963
48027SOL    HW145920  13.267   1.888   6.054
48027SOL    HW245921  13.340   1.789   5.966
48028SOL     OW45922   1.275   5.684  10.584
48028SOL    HW145923   1.352   5.649  10.540
48028SOL    HW245924   1.215   5.610  10.592
48029SOL     OW45925   0.382   8.712  13.524
48029SOL    HW145926   0.432   8.664  13.457
48029SOL    HW245927   0.449   8.744  13.585
48030SOL     OW45928   5.494  11.115   9.884
48030SOL    HW145929   5.449  11.193   9.851
48030SOL    HW245930   5.442  11.042   9.851
48031SOL     OW45931   3.222  10.376   4.295
48031SOL    HW145932   3.262  10.445   4.243
48031SOL    HW245933   3.229  10.298   4.241
48032SOL     OW45934  10.659  10.465   4.451
48032SOL    HW145935  10.644  10.497   4.539
48032SOL    HW245936  10.572  10.467   4.409
48033SOL     OW45937   9.488  11.854   2.946
48033SOL    HW145938   9.487  11.763   2.916
48033SOL    HW245939   9.408  11.862   2.998
48034SOL     OW45940   4.833   8.015   0.180
48034SOL    HW145941   4.845   8.104   0.148
48034SOL    HW245942   4.913   7.969   0.156
48035SOL     OW45943  11.871   1.878  12.904
48035SOL    HW145944  11.912   1.836  12.829
48035SOL    HW245945  11.943   1.905  12.960
48036SOL     OW45946   0.190   8.944  12.816
48036SOL    HW145947   0.276   8.949  12.859
48036SOL    HW245948   0.193   8.861  12.767
48037SOL     OW45949   6.887   7.047   8.327
48037SOL    HW145950   6.795   7.035   8.353
48037SOL    HW245951   6.883   7.063   8.233
48038SOL     OW45952   6.922  13.170   5.659
48038SOL    HW145953   6.917  13.214   5.574
48038SOL    HW245954   6.891  13.081   5.643
48039SOL     OW45955   8.677   6.390   6.575
48039SOL    HW145956   8.691   6.369   6.667
48039SOL    HW245957   8.639   6.478   6.575
48040SOL     OW45958   5.622  12.385  11.425
48040SOL    HW145959   5.655  12.475  11.418
48040SOL    HW245960   5.555  12.390  11.493
48041SOL     OW45961   4.356   4.438  10.939
48041SOL    HW145962   4.385   4.365  10.884
48041SOL    HW245963   4.326   4.396  11.020
48042SOL     OW45964   8.517  12.416  13.074
48042SOL    HW145965   8.435  12.448  13.111
48042SOL    HW245966   8.573  12.400  13.151
48043SOL     OW45967  14.787  10.893   0.414
48043SOL    HW145968  14.713  10.942   0.378
48043SOL    HW245969  14.747  10.818   0.458
48044SOL     OW45970   1.257   7.404  13.269
48044SOL    HW145971   1.347   7.390  13.239
48044SOL    HW245972   1.219   7.316  13.273
48045SOL     OW45973   0.621   6.564  13.690
48045SOL    HW145974   0.640   6.617  13.612
48045SOL    HW245975   0.656   6.615  13.763
48046SOL     OW45976   2.885   5.608   4.038
48046SOL    HW145977   2.797   5.610   4.075
48046SOL    HW245978   2.917   5.520   4.057
48047SOL     OW45979  13.782   2.446   3.760
48047SOL    HW145980  13.787   2.534   3.723
48047SOL    HW245981  13.778   2.461   3.855
48048SOL     OW45982   1.831   8.328   5.000
48048SOL    HW145983   1.826   8.268   5.074
48048SOL    HW245984   1.899   8.290   4.944
48049SOL     OW45985   6.542   1.443   9.703
48049SOL    HW145986   6.476   1.396   9.754
48049SOL    HW245987   6.501   1.458   9.618
48050SOL     OW45988  10.102  11.051   1.756
48050SOL    HW145989  10.118  10.980   1.694
48050SOL    HW245990  10.104  11.009   1.842
48051SOL     OW45991  10.918   2.957   6.983
48051SOL    HW145992  10.870   3.039   6.994
48051SOL    HW245993  10.884   2.901   7.053
48052SOL     OW45994   3.822   2.311   6.860
48052SOL    HW145995   3.773   2.328   6.940
48052SOL    HW245996   3.806   2.387   6.805
48053SOL     OW45997  11.394   4.021   1.705
48053SOL    HW145998  11.471   4.024   1.648
48053SOL    HW245999  11.377   3.928   1.717
48054SOL     OW46000   4.439   5.078   2.315
48054SOL    HW146001   4.529   5.110   2.314
48054SOL    HW246002   4.405   5.104   2.400
48055SOL     OW46003   4.971   0.242  10.003
48055SOL    HW146004   5.032   0.223  10.074
48055SOL    HW246005   4.908   0.170  10.006
48056SOL     OW46006   7.594  10.929   6.496
48056SOL    HW146007   7.564  10.954   6.583
48056SOL    HW246008   7.632  11.008   6.459
48057SOL     OW46009   4.943   0.630  14.720
48057SOL    HW146010   4.974   0.583  14.796
48057SOL    HW246011   4.910   0.562  14.661
48058SOL     OW46012   4.015   7.055   1.443
48058SOL    HW146013   3.975   7.136   1.413
48058SOL    HW246014   3.988   6.989   1.379
48059SOL     OW46015   8.024  13.207   0.415
48059SOL    HW146016   7.945  13.171   0.456
48059SOL    HW246017   8.031  13.161   0.332
48060SOL     OW46018   3.496   1.105  14.298
48060SOL    HW146019   3.432   1.131  14.232
48060SOL    HW246020   3.565   1.170  14.291
48061SOL     OW46021   8.755   0.432  11.838
48061SOL    HW146022   8.763   0.446  11.933
48061SOL    HW246023   8.721   0.515  11.805
48062SOL     OW46024  14.716  10.465   3.937
48062SOL    HW146025  14.642  10.524   3.950
48062SOL    HW246026  14.792  10.522   3.934
48063SOL     OW46027   9.535   2.640  14.007
48063SOL    HW146028   9.457   2.633  13.952
48063SOL    HW246029   9.512   2.704  14.074
48064SOL     OW46030   8.083  10.576   2.129
48064SOL    HW146031   8.097  10.657   2.178
48064SOL    HW246032   8.072  10.605   2.038
48065SOL     OW46033   4.979   4.380   0.325
48065SOL    HW146034   4.941   4.296   0.301
48065SOL    HW246035   4.907   4.429   0.364
48066SOL     OW46036   9.868  14.219  12.003
48066SOL    HW146037   9.802  14.160  11.968
48066SOL    HW246038   9.891  14.276  11.930
48067SOL     OW46039   1.670   0.164  14.808
48067SOL    HW146040   1.615   0.217  14.866
48067SOL    HW246041   1.728   0.117  14.868
48068SOL     OW46042  11.632   1.512   8.984
48068SOL    HW146043  11.614   1.423   8.954
48068SOL    HW246044  11.715   1.506   9.030
48069SOL     OW46045   2.656   4.085   6.145
48069SOL    HW146046   2.683   4.169   6.107
48069SOL    HW246047   2.730   4.027   6.129
48070SOL     OW46048   7.973  11.821  14.374
48070SOL    HW146049   7.967  11.889  14.442
48070SOL    HW246050   7.888  11.824  14.330
48071SOL     OW46051   3.659   4.917   9.661
48071SOL    HW146052   3.603   4.964   9.598
48071SOL    HW246053   3.625   4.828   9.662
48072SOL     OW46054   8.669   2.369   7.273
48072SOL    HW146055   8.619   2.428   7.328
48072SOL    HW246056   8.760   2.393   7.288
48073SOL     OW46057   8.708  10.131  14.069
48073SOL    HW146058   8.646  10.182  14.017
48073SOL    HW246059   8.755  10.196  14.121
48074SOL     OW46060  13.048   1.826  14.491
48074SOL    HW146061  13.118   1.845  14.553
48074SOL    HW246062  13.094   1.802  14.410
48075SOL     OW46063   6.906   0.231   7.892
48075SOL    HW146064   6.962   0.306   7.869
48075SOL    HW246065   6.826   0.244   7.841
48076SOL     OW46066  12.951  13.828   1.868
48076SOL    HW146067  13.038  13.791   1.850
48076SOL    HW246068  12.965  13.886   1.943
48077SOL     OW46069   5.096   4.715   8.076
48077SOL    HW146070   5.163   4.748   8.016
48077SOL    HW246071   5.138   4.718   8.162
48078SOL     OW46072   5.829  11.106   0.136
48078SOL    HW146073   5.834  11.177   0.200
48078SOL    HW246074   5.775  11.040   0.178
48079SOL     OW46075   3.090   5.737   9.829
48079SOL    HW146076   3.016   5.719   9.887
48079SOL    HW246077   3.057   5.804   9.769
48080SOL     OW46078   3.243  13.062   6.686
48080SOL    HW146079   3.314  13.046   6.749
48080SOL    HW246080   3.189  13.129   6.728
48081SOL     OW46081   7.764   0.016   9.306
48081SOL    HW146082   7.838   0.045   9.360
48081SOL    HW246083   7.795  14.809   9.266
48082SOL     OW46084   9.411  12.258   3.066
48082SOL    HW146085   9.457  12.234   3.147
48082SOL    HW246086   9.416  12.353   3.062
48083SOL     OW46087   8.805   6.682  12.461
48083SOL    HW146088   8.836   6.764  12.423
48083SOL    HW246089   8.772   6.632  12.387
48084SOL     OW46090   9.468  14.613   1.530
48084SOL    HW146091   9.426  14.578   1.608
48084SOL    HW246092   9.399  14.659   1.483
48085SOL     OW46093   4.801   9.619  10.842
48085SOL    HW146094   4.824   9.551  10.906
48085SOL    HW246095   4.866   9.609  10.772
48086SOL     OW46096   7.000  10.390   9.273
48086SOL    HW146097   7.067  10.377   9.340
48086SOL    HW246098   7.011  10.316   9.213
48087SOL     OW46099   5.872  12.409   5.380
48087SOL    HW146100   5.903  12.462   5.454
48087SOL    HW246101   5.876  12.468   5.305
48088SOL     OW46102  13.970   7.483  12.758
48088SOL    HW146103  13.918   7.415  12.801
48088SOL    HW246104  13.997   7.443  12.675
48089SOL     OW46105   6.561   0.801  10.091
48089SOL    HW146106   6.499   0.776  10.023
48089SOL    HW246107   6.507   0.840  10.160
48090SOL     OW46108   5.232   9.500   0.009
48090SOL    HW146109   5.220   9.587  14.844
48090SOL    HW246110   5.320   9.502   0.045
48091SOL     OW46111   4.329   8.516   9.127
48091SOL    HW146112   4.331   8.540   9.220
48091SOL    HW246113   4.359   8.425   9.124
48092SOL     OW46114  12.410  12.025   3.489
48092SOL    HW146115  12.445  12.099   3.539
48092SOL    HW246116  12.315  12.041   3.488
48093SOL     OW46117   3.039   4.839   7.173
48093SOL    HW146118   3.034   4.750   7.137
48093SOL    HW246119   3.085   4.889   7.106
48094SOL     OW46120   1.040   6.132  14.320
48094SOL    HW146121   1.103   6.198  14.349
48094SOL    HW246122   0.954   6.174  14.330
48095SOL     OW46123   5.933   7.388  10.076
48095SOL    HW146124   5.992   7.368  10.148
48095SOL    HW246125   5.965   7.335  10.003
48096SOL     OW46126   4.819   2.883   6.060
48096SOL    HW146127   4.859   2.799   6.084
48096SOL    HW246128   4.779   2.914   6.141
48097SOL     OW46129  13.913   5.583  10.812
48097SOL    HW146130  13.914   5.655  10.875
48097SOL    HW246131  13.977   5.520  10.846
48098SOL     OW46132  11.113   8.845   0.919
48098SOL    HW146133  11.203   8.852   0.953
48098SOL    HW246134  11.092   8.752   0.926
48099SOL     OW46135   1.697   4.376   4.369
48099SOL    HW146136   1.790   4.355   4.364
48099SOL    HW246137   1.693   4.456   4.421
48100SOL     OW46138   9.313   4.759  10.590
48100SOL    HW146139   9.360   4.738  10.509
48100SOL    HW246140   9.221   4.745  10.568
48101SOL     OW46141  11.538   6.782   2.698
48101SOL    HW146142  11.631   6.788   2.679
48101SOL    HW246143  11.528   6.824   2.784
48102SOL     OW46144   6.082   1.816   6.003
48102SOL    HW146145   6.150   1.809   6.070
48102SOL    HW246146   6.017   1.750   6.029
48103SOL     OW46147   4.504   6.731   7.481
48103SOL    HW146148   4.528   6.822   7.466
48103SOL    HW246149   4.588   6.686   7.493
48104SOL     OW46150   7.091   4.740   5.226
48104SOL    HW146151   7.182   4.712   5.217
48104SOL    HW246152   7.044   4.661   5.251
48105SOL     OW46153   8.838   8.392  11.078
48105SOL    HW146154   8.887   8.415  11.157
48105SOL    HW246155   8.906   8.380  11.011
48106SOL     OW46156   6.653  13.145   8.423
48106SOL    HW146157   6.730  13.146   8.366
48106SOL    HW246158   6.681  13.095   8.500
48107SOL     OW46159   5.653  10.133   1.903
48107SOL    HW146160   5.586  10.190   1.940
48107SOL    HW246161   5.735  10.166   1.940
48108SOL     OW46162  14.522   7.354  13.105
48108SOL    HW146163  14.568   7.372  13.024
48108SOL    HW246164  14.432   7.381  13.089
48109SOL     OW46165  12.201   2.454  10.405
48109SOL    HW146166  12.270   2.406  10.450
48109SOL    HW246167  12.246   2.504  10.337
48110SOL     OW46168  12.753   3.977  14.179
48110SOL    HW146169  12.721   4.066  14.162
48110SOL    HW246170  12.678   3.931  14.214
48111SOL     OW46171  13.622   7.963  11.220
48111SOL    HW146172  13.535   7.933  11.246
48111SOL    HW246173  13.682   7.902  11.263
48112SOL     OW46174   4.608   7.851   3.006
48112SOL    HW146175   4.532   7.795   3.021
48112SOL    HW246176   4.578   7.939   3.030
48113SOL     OW46177   7.662  14.772  14.500
48113SOL    HW146178   7.638  14.682  14.523
48113SOL    HW246179   7.757  14.770  14.492
48114SOL     OW46180   6.847   3.859   5.076
48114SOL    HW146181   6.906   3.918   5.029
48114SOL    HW246182   6.902   3.786   5.104
48115SOL     OW46183  11.973   5.979  12.500
48115SOL    HW146184  11.890   5.993  12.453
48115SOL    HW246185  12.037   5.960  12.431
48116SOL     OW46186   3.762   7.562   4.544
48116SOL    HW146187   3.796   7.478   4.574
48116SOL    HW246188   3.684   7.577   4.599
48117SOL     OW46189   6.681   6.199  11.631
48117SOL    HW146190   6.663   6.254  11.554
48117SOL    HW246191   6.745   6.135  11.599
48118SOL     OW46192   4.228  12.497   5.304
48118SOL    HW146193   4.209  12.468   5.393
48118SOL    HW246194   4.142  12.508   5.263
48119SOL     OW46195   0.619   1.189   8.367
48119SOL    HW146196   0.646   1.268   8.320
48119SOL    HW246197   0.633   1.209   8.459
48120SOL     OW46198  12.670   6.102  11.716
48120SOL    HW146199  12.577   6.105  11.740
48120SOL    HW246200  12.674   6.151  11.633
48121SOL     OW46201   3.368   4.461   3.452
48121SOL    HW146202   3.460   4.484   3.438
48121SOL    HW246203   3.327   4.471   3.366
48122SOL     OW46204   2.306   2.305   1.463
48122SOL    HW146205   2.308   2.273   1.373
48122SOL    HW246206   2.359   2.384   1.461
48123SOL     OW46207   2.955  10.638  11.110
48123SOL    HW146208   3.029  10.680  11.153
48123SOL    HW246209   2.881  10.655  11.168
48124SOL     OW46210  12.012   3.013  14.225
48124SOL    HW146211  12.013   3.040  14.316
48124SOL    HW246212  12.056   2.927  14.225
48125SOL     OW46213   3.074  11.094  13.844
48125SOL    HW146214   3.047  11.139  13.923
48125SOL    HW246215   3.168  11.077  13.857
48126SOL     OW46216   8.355   1.917  11.475
48126SOL    HW146217   8.371   2.000  11.520
48126SOL    HW246218   8.349   1.852  11.544
48127SOL     OW46219  13.923   6.618   5.330
48127SOL    HW146220  13.944   6.542   5.276
48127SOL    HW246221  13.987   6.616   5.401
48128SOL     OW46222  14.560  11.430   2.770
48128SOL    HW146223  14.526  11.370   2.704
48128SOL    HW246224  14.627  11.380   2.817
48129SOL     OW46225   2.210  10.417  10.252
48129SOL    HW146226   2.279  10.415  10.186
48129SOL    HW246227   2.250  10.380  10.331
48130SOL     OW46228   6.762   0.469   5.811
48130SOL    HW146229   6.847   0.440   5.778
48130SOL    HW246230   6.699   0.425   5.754
48131SOL     OW46231  11.528   0.376   8.728
48131SOL    HW146232  11.487   0.396   8.644
48131SOL    HW246233  11.622   0.387   8.712
48132SOL     OW46234  10.270   2.914   9.863
48132SOL    HW146235  10.315   2.939   9.783
48132SOL    HW246236  10.197   2.860   9.834
48133SOL     OW46237   5.490   7.327  14.248
48133SOL    HW146238   5.512   7.269  14.175
48133SOL    HW246239   5.437   7.273  14.306
48134SOL     OW46240   0.034   7.516   5.382
48134SOL    HW146241   0.005   7.570   5.456
48134SOL    HW246242   0.129   7.527   5.381
48135SOL     OW46243   8.541   9.014   6.586
48135SOL    HW146244   8.565   8.924   6.564
48135SOL    HW246245   8.620   9.050   6.626
48136SOL     OW46246   7.353   1.391   4.498
48136SOL    HW146247   7.438   1.358   4.526
48136SOL    HW246248   7.301   1.395   4.578
48137SOL     OW46249  12.576   7.867  12.582
48137SOL    HW146250  12.558   7.807  12.510
48137SOL    HW246251  12.625   7.939  12.542
48138SOL     OW46252   0.565   1.383   4.047
48138SOL    HW146253   0.621   1.390   3.969
48138SOL    HW246254   0.551   1.289   4.058
48139SOL     OW46255  12.813   1.615   2.313
48139SOL    HW146256  12.734   1.568   2.338
48139SOL    HW246257  12.872   1.548   2.280
48140SOL     OW46258   8.974  12.588   4.029
48140SOL    HW146259   9.059  12.555   4.059
48140SOL    HW246260   8.925  12.509   4.005
48141SOL     OW46261   7.671   5.197   4.704
48141SOL    HW146262   7.727   5.271   4.726
48141SOL    HW246263   7.582   5.234   4.705
48142SOL     OW46264   4.202   1.720   7.092
48142SOL    HW146265   4.175   1.696   7.004
48142SOL    HW246266   4.249   1.802   7.081
48143SOL     OW46267  11.114  11.550   8.777
48143SOL    HW146268  11.119  11.469   8.726
48143SOL    HW246269  11.195  11.553   8.827
48144SOL     OW46270   3.212   2.468   7.626
48144SOL    HW146271   3.174   2.387   7.594
48144SOL    HW246272   3.281   2.440   7.686
48145SOL     OW46273   7.663   2.460   9.472
48145SOL    HW146274   7.612   2.423   9.401
48145SOL    HW246275   7.735   2.507   9.429
48146SOL     OW46276   1.595  12.955  12.583
48146SOL    HW146277   1.622  13.038  12.544
48146SOL    HW246278   1.674  12.921  12.624
48147SOL     OW46279   8.363   9.182   4.114
48147SOL    HW146280   8.325   9.142   4.192
48147SOL    HW246281   8.293   9.238   4.079
48148SOL     OW46282   0.135   4.020   2.051
48148SOL    HW146283   0.090   4.051   1.973
48148SOL    HW246284   0.150   4.099   2.104
48149SOL     OW46285   7.573  12.722   8.070
48149SOL    HW146286   7.478  12.714   8.078
48149SOL    HW246287   7.586  12.759   7.982
48150SOL     OW46288   3.416   4.437  12.531
48150SOL    HW146289   3.332   4.393  12.540
48150SOL    HW246290   3.476   4.370  12.499
48151SOL     OW46291   8.643   2.665   3.323
48151SOL    HW146292   8.673   2.717   3.398
48151SOL    HW246293   8.651   2.725   3.249
48152SOL     OW46294  12.908  12.470  14.515
48152SOL    HW146295  12.874  12.488  14.428
48152SOL    HW246296  13.003  12.479  14.507
48153SOL     OW46297  14.818   4.614   6.771
48153SOL    HW146298  14.786   4.610   6.862
48153SOL    HW246299   0.018   4.554   6.769
48154SOL     OW46300   2.194   3.607  13.277
48154SOL    HW146301   2.108   3.649  13.266
48154SOL    HW246302   2.256   3.679  13.266
48155SOL     OW46303   3.475   2.970   5.893
48155SOL    HW146304   3.491   3.064   5.882
48155SOL    HW246305   3.386   2.965   5.927
48156SOL     OW46306  10.353   5.358  14.692
48156SOL    HW146307  10.353   5.431  14.630
48156SOL    HW246308  10.439   5.318  14.683
48157SOL     OW46309   5.526   2.860  10.124
48157SOL    HW146310   5.511   2.936  10.180
48157SOL    HW246311   5.616   2.834  10.142
48158SOL     OW46312   0.926   1.558   9.439
48158SOL    HW146313   0.935   1.653   9.425
48158SOL    HW246314   0.917   1.522   9.351
48159SOL     OW46315  12.510  10.714   2.302
48159SOL    HW146316  12.447  10.706   2.374
48159SOL    HW246317  12.458  10.745   2.228
48160SOL     OW46318   2.904   4.721   3.622
48160SOL    HW146319   2.998   4.706   3.613
48160SOL    HW246320   2.866   4.674   3.547
48161SOL     OW46321   9.206   1.744   5.605
48161SOL    HW146322   9.160   1.662   5.623
48161SOL    HW246323   9.292   1.716   5.573
48162SOL     OW46324  12.419   4.635   0.690
48162SOL    HW146325  12.489   4.573   0.672
48162SOL    HW246326  12.391   4.615   0.780
48163SOL     OW46327   0.228   6.280   1.019
48163SOL    HW146328   0.312   6.313   1.053
48163SOL    HW246329   0.162   6.324   1.072
48164SOL     OW46330   3.020   3.006  10.080
48164SOL    HW146331   3.069   3.050  10.149
48164SOL    HW246332   3.054   3.043   9.998
48165SOL     OW46333   6.915   5.167   7.775
48165SOL    HW146334   6.876   5.079   7.776
48165SOL    HW246335   6.919   5.190   7.683
48166SOL     OW46336   3.865  10.246  12.157
48166SOL    HW146337   3.914  10.176  12.114
48166SOL    HW246338   3.882  10.234  12.251
48167SOL     OW46339   3.313   3.094   1.932
48167SOL    HW146340   3.238   3.036   1.943
48167SOL    HW246341   3.347   3.074   1.845
48168SOL     OW46342  13.643   6.719   7.847
48168SOL    HW146343  13.722   6.725   7.793
48168SOL    HW246344  13.600   6.639   7.817
48169SOL     OW46345   2.086   8.371  14.150
48169SOL    HW146346   2.015   8.316  14.182
48169SOL    HW246347   2.116   8.327  14.071
48170SOL     OW46348   2.118   7.360  14.159
48170SOL    HW146349   2.114   7.282  14.215
48170SOL    HW246350   2.087   7.330  14.074
48171SOL     OW46351  13.394   7.732   7.790
48171SOL    HW146352  13.391   7.750   7.696
48171SOL    HW246353  13.312   7.767   7.824
48172SOL     OW46354   3.999   2.694  13.489
48172SOL    HW146355   4.008   2.668  13.397
48172SOL    HW246356   3.960   2.781  13.485
48173SOL     OW46357   7.400   3.632  11.265
48173SOL    HW146358   7.368   3.609  11.352
48173SOL    HW246359   7.483   3.587  11.256
48174SOL     OW46360   7.595   8.839  14.581
48174SOL    HW146361   7.566   8.866  14.668
48174SOL    HW246362   7.613   8.745  14.589
48175SOL     OW46363  12.076   5.701  11.742
48175SOL    HW146364  12.074   5.644  11.819
48175SOL    HW246365  12.004   5.763  11.756
48176SOL     OW46366   2.439  13.196  14.265
48176SOL    HW146367   2.480  13.282  14.275
48176SOL    HW246368   2.506  13.142  14.223
48177SOL     OW46369   7.859   7.500  13.030
48177SOL    HW146370   7.835   7.426  12.974
48177SOL    HW246371   7.954   7.496  13.036
48178SOL     OW46372   3.567   7.244   7.232
48178SOL    HW146373   3.656   7.218   7.206
48178SOL    HW246374   3.522   7.259   7.150
48179SOL     OW46375   4.968  13.458   6.680
48179SOL    HW146376   4.985  13.535   6.735
48179SOL    HW246377   4.873  13.449   6.679
48180SOL     OW46378   5.145   2.019   1.593
48180SOL    HW146379   5.203   1.948   1.620
48180SOL    HW246380   5.144   2.015   1.497
48181SOL     OW46381   3.721   1.013   9.225
48181SOL    HW146382   3.743   0.920   9.228
48181SOL    HW246383   3.785   1.050   9.164
48182SOL     OW46384   2.143   0.967   9.075
48182SOL    HW146385   2.236   0.986   9.062
48182SOL    HW246386   2.130   0.880   9.036
48183SOL     OW46387  13.780   8.979   1.085
48183SOL    HW146388  13.777   9.068   1.048
48183SOL    HW246389  13.872   8.954   1.079
48184SOL     OW46390   8.455   0.381   6.571
48184SOL    HW146391   8.396   0.309   6.592
48184SOL    HW246392   8.530   0.339   6.529
48185SOL     OW46393   3.886   2.810   7.870
48185SOL    HW146394   3.836   2.872   7.817
48185SOL    HW246395   3.820   2.762   7.920
48186SOL     OW46396   8.378   0.699  12.984
48186SOL    HW146397   8.410   0.750  13.058
48186SOL    HW246398   8.458   0.662  12.944
48187SOL     OW46399   3.701  10.041   3.823
48187SOL    HW146400   3.760  10.036   3.748
48187SOL    HW246401   3.614  10.022   3.787
48188SOL     OW46402   4.784   5.717  13.866
48188SOL    HW146403   4.858   5.691  13.920
48188SOL    HW246404   4.777   5.812  13.880
48189SOL     OW46405   5.723   4.834   8.563
48189SOL    HW146406   5.687   4.830   8.474
48189SOL    HW246407   5.818   4.845   8.549
48190SOL     OW46408   8.586   5.951   4.367
48190SOL    HW146409   8.491   5.947   4.358
48190SOL    HW246410   8.604   6.039   4.400
48191SOL     OW46411   7.838   6.980   1.395
48191SOL    HW146412   7.829   6.991   1.489
48191SOL    HW246413   7.926   6.945   1.383
48192SOL     OW46414  10.042   1.007  12.716
48192SOL    HW146415  10.063   1.100  12.720
48192SOL    HW246416  10.112   0.968  12.664
48193SOL     OW46417   2.721   3.272  14.083
48193SOL    HW146418   2.813   3.247  14.079
48193SOL    HW246419   2.687   3.258  13.995
48194SOL     OW46420   7.218  14.493  14.791
48194SOL    HW146421   7.192  14.580  14.820
48194SOL    HW246422   7.227  14.500  14.696
48195SOL     OW46423   1.811   6.625   7.258
48195SOL    HW146424   1.853   6.706   7.287
48195SOL    HW246425   1.880   6.559   7.266
48196SOL     OW46426   3.732   2.792   6.829
48196SOL    HW146427   3.766   2.831   6.909
48196SOL    HW246428   3.692   2.865   6.781
48197SOL     OW46429   5.595  12.967   3.864
48197SOL    HW146430   5.619  12.973   3.771
48197SOL    HW246431   5.595  12.873   3.883
48198SOL     OW46432   1.276   7.333   1.340
48198SOL    HW146433   1.260   7.239   1.341
48198SOL    HW246434   1.189   7.372   1.342
48199SOL     OW46435   4.842  12.974  14.202
48199SOL    HW146436   4.785  12.943  14.132
48199SOL    HW246437   4.859  13.066  14.180
48200SOL     OW46438   1.849  13.015   4.819
48200SOL    HW146439   1.765  13.055   4.841
48200SOL    HW246440   1.848  12.932   4.867
48201SOL     OW46441   1.449  14.388   5.933
48201SOL    HW146442   1.410  14.434   6.007
48201SOL    HW246443   1.468  14.457   5.869
48202SOL     OW46444  12.692  12.315   1.635
48202SOL    HW146445  12.635  12.275   1.569
48202SOL    HW246446  12.780  12.309   1.598
48203SOL     OW46447  14.759   7.557  12.894
48203SOL    HW146448  14.728   7.522  12.811
48203SOL    HW246449  14.681   7.593  12.936
48204SOL     OW46450  13.856   6.269   6.436
48204SOL    HW146451  13.887   6.340   6.493
48204SOL    HW246452  13.929   6.254   6.375
48205SOL     OW46453  12.333   9.924  12.158
48205SOL    HW146454  12.426   9.930  12.181
48205SOL    HW246455  12.329   9.856  12.090
48206SOL     OW46456  11.383   7.128  12.387
48206SOL    HW146457  11.328   7.067  12.435
48206SOL    HW246458  11.346   7.215  12.407
48207SOL     OW46459   6.262   3.558  13.173
48207SOL    HW146460   6.171   3.575  13.198
48207SOL    HW246461   6.289   3.485  13.228
48208SOL     OW46462   7.813   2.860  12.392
48208SOL    HW146463   7.746   2.796  12.416
48208SOL    HW246464   7.891   2.808  12.376
48209SOL     OW46465   8.643   2.786   3.078
48209SOL    HW146466   8.613   2.740   3.000
48209SOL    HW246467   8.656   2.877   3.049
48210SOL     OW46468  14.783  14.331   5.378
48210SOL    HW146469  14.688  14.318   5.372
48210SOL    HW246470  14.796  14.423   5.358
48211SOL     OW46471   2.273   6.494   6.730
48211SOL    HW146472   2.188   6.452   6.744
48211SOL    HW246473   2.254   6.568   6.673
48212SOL     OW46474  12.638   5.085  11.798
48212SOL    HW146475  12.626   5.093  11.703
48212SOL    HW246476  12.671   5.170  11.826
48213SOL     OW46477   0.920   7.785   8.635
48213SOL    HW146478   0.909   7.819   8.724
48213SOL    HW246479   0.867   7.842   8.580
48214SOL     OW46480   1.045  13.209  14.336
48214SOL    HW146481   1.135  13.225  14.305
48214SOL    HW246482   1.049  13.122  14.376
48215SOL     OW46483   2.329  13.330   7.163
48215SOL    HW146484   2.253  13.385   7.179
48215SOL    HW246485   2.332  13.271   7.238
48216SOL     OW46486  14.362   5.237   6.556
48216SOL    HW146487  14.410   5.164   6.517
48216SOL    HW246488  14.322   5.282   6.481
48217SOL     OW46489   5.382   0.209   4.499
48217SOL    HW146490   5.375   0.129   4.552
48217SOL    HW246491   5.380   0.280   4.563
48218SOL     OW46492   1.441  10.555  11.610
48218SOL    HW146493   1.511  10.567  11.673
48218SOL    HW246494   1.458  10.619  11.542
48219SOL     OW46495  14.693   8.691   0.982
48219SOL    HW146496  14.644   8.631   0.926
48219SOL    HW246497  14.693   8.774   0.934
48220SOL     OW46498   5.246   1.727  14.777
48220SOL    HW146499   5.284   1.813  14.757
48220SOL    HW246500   5.255   1.677  14.696
48221SOL     OW46501   8.957   8.345  13.643
48221SOL    HW146502   8.902   8.417  13.675
48221SOL    HW246503   9.042   8.386  13.624
48222SOL     OW46504   9.903   7.662  14.557
48222SOL    HW146505   9.864   7.611  14.486
48222SOL    HW246506   9.947   7.735  14.512
48223SOL     OW46507   1.314  12.038   2.943
48223SOL    HW146508   1.230  11.993   2.936
48223SOL    HW246509   1.292  12.124   2.979
48224SOL     OW46510   6.746   2.868   8.677
48224SOL    HW146511   6.788   2.843   8.595
48224SOL    HW246512   6.680   2.932   8.651
48225SOL     OW46513   4.158   2.035   6.713
48225SOL    HW146514   4.204   1.990   6.784
48225SOL    HW246515   4.161   2.127   6.737
48226SOL     OW46516   7.433   1.128   4.183
48226SOL    HW146517   7.364   1.154   4.245
48226SOL    HW246518   7.439   1.202   4.123
48227SOL     OW46519   2.578   1.892   7.224
48227SOL    HW146520   2.576   1.969   7.167
48227SOL    HW246521   2.629   1.919   7.300
48228SOL     OW46522  10.404  13.820  12.331
48228SOL    HW146523  10.319  13.789  12.298
48228SOL    HW246524  10.448  13.741  12.361
48229SOL     OW46525  12.514   0.067  14.007
48229SOL    HW146526  12.594   0.016  14.021
48229SOL    HW246527  12.519   0.138  14.071
48230SOL     OW46528   3.720  11.515   0.076
48230SOL    HW146529   3.739  11.509  14.856
48230SOL    HW246530   3.709  11.609   0.092
48231SOL     OW46531  11.959   6.646   4.889
48231SOL    HW146532  11.956   6.629   4.795
48231SOL    HW246533  11.973   6.560   4.929
48232SOL     OW46534   3.622   9.778  11.495
48232SOL    HW146535   3.689   9.742  11.437
48232SOL    HW246536   3.547   9.794  11.437
48233SOL     OW46537  14.035   9.947  14.553
48233SOL    HW146538  14.076  10.005  14.617
48233SOL    HW246539  14.094   9.872  14.546
48234SOL     OW46540   1.307   7.842  10.531
48234SOL    HW146541   1.322   7.748  10.542
48234SOL    HW246542   1.305   7.876  10.620
48235SOL     OW46543   9.722   6.161   9.369
48235SOL    HW146544   9.739   6.097   9.438
48235SOL    HW246545   9.768   6.127   9.292
48236SOL     OW46546   5.867  14.334   0.793
48236SOL    HW146547   5.846  14.375   0.878
48236SOL    HW246548   5.941  14.277   0.812
48237SOL     OW46549   9.274  12.932  12.745
48237SOL    HW146550   9.368  12.929  12.762
48237SOL    HW246551   9.259  12.862  12.681
48238SOL     OW46552   1.537  12.118   7.869
48238SOL    HW146553   1.489  12.184   7.820
48238SOL    HW246554   1.492  12.113   7.954
48239SOL     OW46555   1.951   5.162   1.063
48239SOL    HW146556   1.962   5.144   0.970
48239SOL    HW246557   2.016   5.230   1.083
48240SOL     OW46558   8.422  11.752   5.149
48240SOL    HW146559   8.368  11.792   5.216
48240SOL    HW246560   8.456  11.825   5.098
48241SOL     OW46561   7.846   4.122   6.232
48241SOL    HW146562   7.877   4.032   6.225
48241SOL    HW246563   7.757   4.121   6.196
48242SOL     OW46564   1.382   9.702   3.430
48242SOL    HW146565   1.287   9.688   3.432
48242SOL    HW246566   1.418   9.629   3.481
48243SOL     OW46567   3.592   3.517   1.394
48243SOL    HW146568   3.528   3.484   1.456
48243SOL    HW246569   3.675   3.514   1.441
48244SOL     OW46570  11.423   8.023  13.996
48244SOL    HW146571  11.463   8.015  14.083
48244SOL    HW246572  11.486   7.981  13.937
48245SOL     OW46573  10.000   1.069  13.847
48245SOL    HW146574  10.051   1.013  13.905
48245SOL    HW246575  10.021   1.037  13.759
48246SOL     OW46576   7.020  14.056   5.098
48246SOL    HW146577   6.961  14.131   5.095
48246SOL    HW246578   6.989  14.005   5.173
48247SOL     OW46579  13.948   1.551  10.670
48247SOL    HW146580  13.911   1.561  10.582
48247SOL    HW246581  13.976   1.640  10.693
48248SOL     OW46582   7.488   2.003   3.147
48248SOL    HW146583   7.511   1.944   3.219
48248SOL    HW246584   7.517   1.957   3.069
48249SOL     OW46585  10.134  13.001   0.066
48249SOL    HW146586  10.174  13.000  14.853
48249SOL    HW246587  10.058  12.944   0.059
48250SOL     OW46588  10.213   5.967   8.542
48250SOL    HW146589  10.196   5.873   8.543
48250SOL    HW246590  10.276   5.979   8.471
48251SOL     OW46591  10.401  12.577   6.845
48251SOL    HW146592  10.443  12.511   6.900
48251SOL    HW246593  10.394  12.655   6.901
48252SOL     OW46594   6.732   9.665   8.770
48252SOL    HW146595   6.741   9.639   8.679
48252SOL    HW246596   6.790   9.606   8.818
48253SOL     OW46597  10.583  10.429   1.848
48253SOL    HW146598  10.507  10.446   1.792
48253SOL    HW246599  10.570  10.485   1.924
48254SOL     OW46600   1.683   5.407  13.016
48254SOL    HW146601   1.720   5.482  13.063
48254SOL    HW246602   1.743   5.335  13.035
48255SOL     OW46603   1.366  13.533   2.537
48255SOL    HW146604   1.279  13.530   2.576
48255SOL    HW246605   1.426  13.538   2.611
48256SOL     OW46606   9.984  11.142   7.875
48256SOL    HW146607  10.049  11.079   7.906
48256SOL    HW246608   9.964  11.114   7.786
48257SOL     OW46609   0.577   4.316  14.524
48257SOL    HW146610   0.514   4.352  14.586
48257SOL    HW246611   0.651   4.376  14.526
48258SOL     OW46612  12.134   4.863  12.498
48258SOL    HW146613  12.110   4.773  12.476
48258SOL    HW246614  12.078   4.884  12.572
48259SOL     OW46615   5.129   0.207   1.606
48259SOL    HW146616   5.079   0.245   1.533
48259SOL    HW246617   5.067   0.147   1.648
48260SOL     OW46618   2.499  11.834   0.997
48260SOL    HW146619   2.445  11.880   0.932
48260SOL    HW246620   2.565  11.789   0.944
48261SOL     OW46621   2.962  12.630   3.303
48261SOL    HW146622   3.004  12.691   3.242
48261SOL    HW246623   3.027  12.560   3.315
48262SOL     OW46624   6.678   8.949   7.875
48262SOL    HW146625   6.711   8.881   7.934
48262SOL    HW246626   6.647   9.018   7.933
48263SOL     OW46627  10.219  14.469   9.730
48263SOL    HW146628  10.258  14.519   9.802
48263SOL    HW246629  10.127  14.461   9.755
48264SOL     OW46630   3.775  12.612   3.459
48264SOL    HW146631   3.843  12.557   3.421
48264SOL    HW246632   3.721  12.639   3.385
48265SOL     OW46633  10.912   2.429  10.676
48265SOL    HW146634  10.905   2.520  10.649
48265SOL    HW246635  10.894   2.378  10.596
48266SOL     OW46636  10.452  12.401  11.342
48266SOL    HW146637  10.400  12.358  11.274
48266SOL    HW246638  10.463  12.333  11.409
48267SOL     OW46639   0.567   2.433   2.635
48267SOL    HW146640   0.551   2.526   2.617
48267SOL    HW246641   0.541   2.422   2.727
48268SOL     OW46642  11.290  14.445   9.838
48268SOL    HW146643  11.384  14.437   9.855
48268SOL    HW246644  11.251  14.463   9.923
48269SOL     OW46645  12.676   2.156   3.429
48269SOL    HW146646  12.661   2.115   3.343
48269SOL    HW246647  12.708   2.244   3.408
48270SOL     OW46648   0.327  14.715   1.918
48270SOL    HW146649   0.277  14.700   1.999
48270SOL    HW246650   0.379  14.636   1.908
48271SOL     OW46651   2.990   5.643  12.848
48271SOL    HW146652   3.083   5.661  12.863
48271SOL    HW246653   2.947   5.668  12.930
48272SOL     OW46654   5.609  14.539   3.205
48272SOL    HW146655   5.691  14.513   3.162
48272SOL    HW246656   5.638  14.588   3.282
48273SOL     OW46657  11.662   5.326   0.590
48273SOL    HW146658  11.685   5.418   0.578
48273SOL    HW246659  11.694   5.304   0.677
48274SOL     OW46660  12.281  13.058  12.572
48274SOL    HW146661  12.189  13.080  12.584
48274SOL    HW246662  12.329  13.138  12.593
48275SOL     OW46663  11.116   7.040   4.367
48275SOL    HW146664  11.132   6.956   4.324
48275SOL    HW246665  11.203   7.079   4.377
48276SOL     OW46666   3.931   2.315   6.114
48276SOL    HW146667   3.947   2.307   6.020
48276SOL    HW246668   3.944   2.408   6.132
48277SOL     OW46669   6.009   1.780   2.150
48277SOL    HW146670   5.920   1.792   2.184
48277SOL    HW246671   6.003   1.804   2.058
48278SOL     OW46672  12.869   3.085   1.344
48278SOL    HW146673  12.940   3.133   1.387
48278SOL    HW246674  12.859   3.005   1.397
48279SOL     OW46675   9.373   7.314  14.377
48279SOL    HW146676   9.362   7.402  14.339
48279SOL    HW246677   9.405   7.261  14.304
48280SOL     OW46678   0.287   6.783   4.020
48280SOL    HW146679   0.200   6.774   3.981
48280SOL    HW246680   0.290   6.715   4.088
48281SOL     OW46681   3.501   2.852   6.608
48281SOL    HW146682   3.579   2.858   6.553
48281SOL    HW246683   3.464   2.940   6.608
48282SOL     OW46684   6.787   6.169   4.131
48282SOL    HW146685   6.793   6.239   4.066
48282SOL    HW246686   6.851   6.192   4.198
48283SOL     OW46687  11.390   7.495   4.307
48283SOL    HW146688  11.361   7.586   4.311
48283SOL    HW246689  11.427   7.485   4.219
48284SOL     OW46690   6.144   1.164  14.032
48284SOL    HW146691   6.170   1.232  14.094
48284SOL    HW246692   6.193   1.086  14.061
48285SOL     OW46693  12.124   5.172   1.380
48285SOL    HW146694  12.059   5.171   1.450
48285SOL    HW246695  12.076   5.150   1.301
48286SOL     OW46696   2.895   1.159   0.092
48286SOL    HW146697   2.830   1.219   0.130
48286SOL    HW246698   2.851   1.074   0.090
48287SOL     OW46699   6.576   8.954  13.492
48287SOL    HW146700   6.498   8.910  13.458
48287SOL    HW246701   6.544   9.002  13.569
48288SOL     OW46702   9.478   6.155   3.012
48288SOL    HW146703   9.494   6.193   2.925
48288SOL    HW246704   9.390   6.118   3.006
48289SOL     OW46705  13.814   5.073   9.392
48289SOL    HW146706  13.772   5.013   9.454
48289SOL    HW246707  13.907   5.053   9.398
48290SOL     OW46708   0.430   4.281   1.431
48290SOL    HW146709   0.427   4.226   1.353
48290SOL    HW246710   0.455   4.368   1.399
48291SOL     OW46711  12.858  13.068   0.072
48291SOL    HW146712  12.853  13.151   0.025
48291SOL    HW246713  12.921  13.084   0.142
48292SOL     OW46714   3.381   8.758   4.150
48292SOL    HW146715   3.361   8.742   4.242
48292SOL    HW246716   3.327   8.696   4.103
48293SOL     OW46717  12.659  12.787  14.799
48293SOL    HW146718  12.678  12.713  14.741
48293SOL    HW246719  12.642  12.748   0.010
48294SOL     OW46720  10.857  13.290   3.234
48294SOL    HW146721  10.919  13.243   3.178
48294SOL    HW246722  10.904  13.299   3.317
48295SOL     OW46723   4.480   4.587  13.079
48295SOL    HW146724   4.504   4.494  13.084
48295SOL    HW246725   4.410   4.591  13.015
48296SOL     OW46726   5.778   3.164  13.112
48296SOL    HW146727   5.791   3.121  13.197
48296SOL    HW246728   5.761   3.093  13.051
48297SOL     OW46729   4.362   6.173   2.606
48297SOL    HW146730   4.451   6.204   2.590
48297SOL    HW246731   4.332   6.224   2.681
48298SOL     OW46732  14.820  14.512  11.885
48298SOL    HW146733  14.865  14.591  11.854
48298SOL    HW246734  14.830  14.449  11.814
48299SOL     OW46735   8.731   3.209   4.023
48299SOL    HW146736   8.780   3.233   4.102
48299SOL    HW246737   8.682   3.289   4.001
48300SOL     OW46738  10.749   9.994   6.068
48300SOL    HW146739  10.662  10.029   6.046
48300SOL    HW246740  10.734   9.942   6.147
48301SOL     OW46741   1.301  13.083   2.587
48301SOL    HW146742   1.371  13.071   2.523
48301SOL    HW246743   1.267  13.171   2.569
48302SOL     OW46744   3.407   4.551   3.161
48302SOL    HW146745   3.403   4.538   3.066
48302SOL    HW246746   3.490   4.510   3.187
48303SOL     OW46747  13.767   9.331   5.900
48303SOL    HW146748  13.743   9.243   5.872
48303SOL    HW246749  13.734   9.338   5.989
48304SOL     OW46750   8.035   1.006   9.145
48304SOL    HW146751   7.977   0.945   9.191
48304SOL    HW246752   7.995   1.092   9.158
48305SOL     OW46753  11.706   4.653   7.565
48305SOL    HW146754  11.705   4.670   7.471
48305SOL    HW246755  11.719   4.558   7.572
48306SOL     OW46756   2.569  13.138  10.439
48306SOL    HW146757   2.619  13.213  10.409
48306SOL    HW246758   2.629  13.090  10.495
48307SOL     OW46759   2.423   8.418   9.677
48307SOL    HW146760   2.386   8.366   9.749
48307SOL    HW246761   2.516   8.396   9.676
48308SOL     OW46762   8.209   2.268   5.205
48308SOL    HW146763   8.244   2.209   5.272
48308SOL    HW246764   8.127   2.300   5.241
48309SOL     OW46765  11.336   9.197  13.893
48309SOL    HW146766  11.354   9.114  13.936
48309SOL    HW246767  11.391   9.260  13.940
48310SOL     OW46768   3.619   0.121   8.612
48310SOL    HW146769   3.645   0.080   8.694
48310SOL    HW246770   3.615   0.049   8.549
48311SOL     OW46771   7.492   1.346  12.967
48311SOL    HW146772   7.558   1.383  13.026
48311SOL    HW246773   7.490   1.253  12.990
48312SOL     OW46774   2.148  14.028   4.428
48312SOL    HW146775   2.121  13.995   4.514
48312SOL    HW246776   2.106  14.114   4.421
48313SOL     OW46777  11.996  13.059   7.042
48313SOL    HW146778  11.981  13.036   6.950
48313SOL    HW246779  12.085  13.030   7.060
48314SOL     OW46780   1.008   0.512   8.174
48314SOL    HW146781   0.936   0.469   8.129
48314SOL    HW246782   1.080   0.449   8.169
48315SOL     OW46783   6.971   7.809   8.238
48315SOL    HW146784   6.987   7.787   8.330
48315SOL    HW246785   7.045   7.771   8.191
48316SOL     OW46786   4.675   0.738  12.582
48316SOL    HW146787   4.585   0.760  12.607
48316SOL    HW246788   4.704   0.813  12.530
48317SOL     OW46789  11.194   0.990  12.117
48317SOL    HW146790  11.268   0.973  12.057
48317SOL    HW246791  11.235   1.015  12.199
48318SOL     OW46792  11.384  10.379   4.940
48318SOL    HW146793  11.419  10.306   4.991
48318SOL    HW246794  11.409  10.361   4.850
48319SOL     OW46795  13.331  13.907   0.077
48319SOL    HW146796  13.398  13.974   0.093
48319SOL    HW246797  13.252  13.943   0.117
48320SOL     OW46798   3.110  11.753   9.154
48320SOL    HW146799   3.103  11.668   9.198
48320SOL    HW246800   3.157  11.734   9.073
48321SOL     OW46801   6.883   0.318  10.390
48321SOL    HW146802   6.889   0.405  10.429
48321SOL    HW246803   6.972   0.299  10.361
48322SOL     OW46804  12.767  14.376  13.371
48322SOL    HW146805  12.814  14.459  13.375
48322SOL    HW246806  12.773  14.340  13.460
48323SOL     OW46807   9.331   0.725  14.163
48323SOL    HW146808   9.410   0.672  14.171
48323SOL    HW246809   9.363   0.816  14.166
48324SOL     OW46810   7.824  10.872  13.558
48324SOL    HW146811   7.891  10.861  13.491
48324SOL    HW246812   7.847  10.808  13.626
48325SOL     OW46813   6.740   2.808   6.345
48325SOL    HW146814   6.676   2.752   6.302
48325SOL    HW246815   6.825   2.767   6.329
48326SOL     OW46816   7.359  11.931  12.512
48326SOL    HW146817   7.379  11.982  12.433
48326SOL    HW246818   7.373  11.993  12.584
48327SOL     OW46819   4.484   0.894  14.232
48327SOL    HW146820   4.497   0.988  14.237
48327SOL    HW246821   4.388   0.883  14.235
48328SOL     OW46822  14.609  11.095   9.603
48328SOL    HW146823  14.639  11.107   9.513
48328SOL    HW246824  14.684  11.058   9.649
48329SOL     OW46825   2.901   0.127   4.914
48329SOL    HW146826   2.889   0.106   5.006
48329SOL    HW246827   2.858   0.055   4.867
48330SOL     OW46828   7.333  10.757  12.775
48330SOL    HW146829   7.328  10.761  12.871
48330SOL    HW246830   7.249  10.790  12.745
48331SOL     OW46831   4.030  11.498   6.407
48331SOL    HW146832   4.050  11.560   6.337
48331SOL    HW246833   4.048  11.546   6.488
48332SOL     OW46834  13.932   2.463   9.688
48332SOL    HW146835  14.019   2.427   9.703
48332SOL    HW246836  13.945   2.534   9.625
48333SOL     OW46837   1.524   2.270   3.578
48333SOL    HW146838   1.509   2.319   3.497
48333SOL    HW246839   1.549   2.337   3.642
48334SOL     OW46840   3.988   2.858   9.683
48334SOL    HW146841   4.056   2.880   9.746
48334SOL    HW246842   4.008   2.768   9.657
48335SOL     OW46843  14.270   7.219   4.441
48335SOL    HW146844  14.270   7.312   4.419
48335SOL    HW246845  14.352   7.186   4.405
48336SOL     OW46846   2.300  14.570   2.594
48336SOL    HW146847   2.386  14.544   2.560
48336SOL    HW246848   2.313  14.659   2.626
48337SOL     OW46849   2.349   1.781  11.070
48337SOL    HW146850   2.398   1.732  11.003
48337SOL    HW246851   2.416   1.809  11.133
48338SOL     OW46852   4.313  13.637   6.803
48338SOL    HW146853   4.377  13.604   6.866
48338SOL    HW246854   4.280  13.718   6.843
48339SOL     OW46855  12.146  11.637   5.165
48339SOL    HW146856  12.141  11.590   5.082
48339SOL    HW246857  12.231  11.614   5.201
48340SOL     OW46858   5.295  11.288   8.003
48340SOL    HW146859   5.313  11.374   8.040
48340SOL    HW246860   5.208  11.266   8.035
48341SOL     OW46861   5.885   3.125   9.813
48341SOL    HW146862   5.879   3.144   9.720
48341SOL    HW246863   5.801   3.155   9.849
48342SOL     OW46864   0.197  14.593   9.100
48342SOL    HW146865   0.131  14.647   9.144
48342SOL    HW246866   0.268  14.585   9.164
48343SOL     OW46867  14.721   6.142   8.277
48343SOL    HW146868  14.690   6.158   8.188
48343SOL    HW246869  14.814   6.124   8.267
48344SOL     OW46870   9.778   9.910  14.111
48344SOL    HW146871   9.844   9.978  14.094
48344SOL    HW246872   9.825   9.828  14.098
48345SOL     OW46873   7.035   1.343   3.251
48345SOL    HW146874   7.072   1.269   3.300
48345SOL    HW246875   6.943   1.346   3.278
48346SOL     OW46876   8.051  13.553  10.209
48346SOL    HW146877   8.100  13.471  10.200
48346SOL    HW246878   8.010  13.566  10.123
48347SOL     OW46879   5.330   3.571   6.698
48347SOL    HW146880   5.356   3.663   6.688
48347SOL    HW246881   5.324   3.538   6.608
48348SOL     OW46882  13.653   5.019  13.270
48348SOL    HW146883  13.613   5.005  13.184
48348SOL    HW246884  13.713   5.092  13.258
48349SOL     OW46885   7.733   8.581   0.819
48349SOL    HW146886   7.726   8.587   0.914
48349SOL    HW246887   7.800   8.645   0.796
48350SOL     OW46888   4.187   1.802   2.842
48350SOL    HW146889   4.279   1.797   2.814
48350SOL    HW246890   4.154   1.882   2.801
48351SOL     OW46891   7.159   1.102   6.498
48351SOL    HW146892   7.205   1.153   6.564
48351SOL    HW246893   7.165   1.154   6.419
48352SOL     OW46894   0.118   5.752   8.842
48352SOL    HW146895   0.193   5.809   8.857
48352SOL    HW246896   0.050   5.811   8.810
48353SOL     OW46897   5.837  14.162   4.477
48353SOL    HW146898   5.906  14.178   4.541
48353SOL    HW246899   5.797  14.080   4.505
48354SOL     OW46900   2.526   4.768   9.204
48354SOL    HW146901   2.448   4.723   9.236
48354SOL    HW246902   2.571   4.703   9.150
48355SOL     OW46903   3.338   0.620   1.242
48355SOL    HW146904   3.384   0.545   1.205
48355SOL    HW246905   3.319   0.594   1.332
48356SOL     OW46906  11.048  11.509   4.356
48356SOL    HW146907  11.120  11.472   4.407
48356SOL    HW246908  10.972  11.455   4.378
48357SOL     OW46909   5.479   7.112   3.356
48357SOL    HW146910   5.389   7.095   3.328
48357SOL    HW246911   5.490   7.059   3.435
48358SOL     OW46912   0.016   4.231  11.387
48358SOL    HW146913  14.840   4.153  11.360
48358SOL    HW246914   0.087   4.237  11.324
48359SOL     OW46915   0.824  10.785   6.588
48359SOL    HW146916   0.839  10.879   6.581
48359SOL    HW246917   0.871  10.759   6.667
48360SOL     OW46918  11.737  11.649   0.605
48360SOL    HW146919  11.767  11.659   0.514
48360SOL    HW246920  11.726  11.555   0.617
48361SOL     OW46921   3.553   4.228  10.851
48361SOL    HW146922   3.517   4.158  10.796
48361SOL    HW246923   3.600   4.285  10.791
48362SOL     OW46924  12.407  10.910   9.825
48362SOL    HW146925  12.366  10.844   9.770
48362SOL    HW246926  12.341  10.980   9.832
48363SOL     OW46927   0.321  10.449  13.545
48363SOL    HW146928   0.402  10.398  13.539
48363SOL    HW246929   0.251  10.383  13.551
48364SOL     OW46930   4.267  14.139  12.833
48364SOL    HW146931   4.232  14.054  12.858
48364SOL    HW246932   4.193  14.199  12.840
48365SOL     OW46933  14.599   2.903   4.071
48365SOL    HW146934  14.641   2.946   3.996
48365SOL    HW246935  14.582   2.814   4.040
48366SOL     OW46936   1.466   0.125   1.445
48366SOL    HW146937   1.406   0.081   1.386
48366SOL    HW246938   1.545   0.140   1.393
48367SOL     OW46939   1.755   8.988   9.285
48367SOL    HW146940   1.710   8.904   9.273
48367SOL    HW246941   1.841   8.965   9.318
48368SOL     OW46942   9.069   2.943  10.614
48368SOL    HW146943   9.142   2.920  10.670
48368SOL    HW246944   9.083   3.036  10.594
48369SOL     OW46945  11.158  11.046   7.605
48369SOL    HW146946  11.092  11.112   7.625
48369SOL    HW246947  11.192  11.071   7.519
48370SOL     OW46948   3.257  12.775   6.702
48370SOL    HW146949   3.217  12.862   6.696
48370SOL    HW246950   3.344  12.791   6.738
48371SOL     OW46951  13.755   6.305  12.075
48371SOL    HW146952  13.772   6.234  12.014
48371SOL    HW246953  13.830   6.304  12.135
48372SOL     OW46954   8.292  11.752   7.313
48372SOL    HW146955   8.314  11.725   7.402
48372SOL    HW246956   8.268  11.671   7.268
48373SOL     OW46957   6.029   7.209  10.318
48373SOL    HW146958   6.097   7.197  10.251
48373SOL    HW246959   6.077   7.233  10.397
48374SOL     OW46960  13.799   0.467   2.323
48374SOL    HW146961  13.722   0.433   2.368
48374SOL    HW246962  13.870   0.407   2.346
48375SOL     OW46963  14.786  12.570   8.774
48375SOL    HW146964  14.700  12.598   8.805
48375SOL    HW246965  14.840  12.649   8.779
48376SOL     OW46966   5.045   4.291  12.155
48376SOL    HW146967   4.954   4.321  12.158
48376SOL    HW246968   5.089   4.355  12.099
48377SOL     OW46969   4.383   0.536   0.989
48377SOL    HW146970   4.442   0.512   0.918
48377SOL    HW246971   4.434   0.519   1.069
48378SOL     OW46972   0.296   9.117  10.417
48378SOL    HW146973   0.247   9.081  10.491
48378SOL    HW246974   0.312   9.208  10.441
48379SOL     OW46975  13.969  10.664   2.963
48379SOL    HW146976  14.004  10.674   2.874
48379SOL    HW246977  13.952  10.753   2.992
48380SOL     OW46978   9.785   8.574   7.400
48380SOL    HW146979   9.845   8.507   7.433
48380SOL    HW246980   9.709   8.525   7.369
48381SOL     OW46981   5.754   4.664   8.099
48381SOL    HW146982   5.709   4.579   8.093
48381SOL    HW246983   5.842   4.646   8.067
48382SOL     OW46984   6.899  11.344  12.487
48382SOL    HW146985   6.823  11.401  12.473
48382SOL    HW246986   6.969  11.386  12.438
48383SOL     OW46987   9.065  10.569   1.770
48383SOL    HW146988   9.075  10.539   1.679
48383SOL    HW246989   9.087  10.492   1.823
48384SOL     OW46990   6.835  11.392  13.821
48384SOL    HW146991   6.865  11.355  13.904
48384SOL    HW246992   6.740  11.397  13.830
48385SOL     OW46993   4.012   1.253   2.074
48385SOL    HW146994   4.085   1.231   2.016
48385SOL    HW246995   3.991   1.344   2.052
48386SOL     OW46996  12.925   4.454   6.690
48386SOL    HW146997  12.834   4.466   6.717
48386SOL    HW246998  12.958   4.543   6.675
48387SOL     OW46999   4.534   1.672  11.078
48387SOL    HW147000   4.505   1.695  11.166
48387SOL    HW247001   4.500   1.741  11.022
48388SOL     OW47002   6.760   3.738   8.594
48388SOL    HW147003   6.809   3.804   8.643
48388SOL    HW247004   6.827   3.691   8.544
48389SOL     OW47005   8.323   0.090  12.020
48389SOL    HW147006   8.403   0.068  12.066
48389SOL    HW247007   8.253   0.074  12.083
48390SOL     OW47008   0.133  11.220   1.991
48390SOL    HW147009   0.155  11.227   2.084
48390SOL    HW247010   0.209  11.179   1.952
48391SOL     OW47011  11.812   5.192  12.515
48391SOL    HW147012  11.804   5.278  12.475
48391SOL    HW247013  11.893   5.156  12.480
48392SOL     OW47014   3.082   9.439   7.401
48392SOL    HW147015   3.090   9.489   7.319
48392SOL    HW247016   3.011   9.377   7.384
48393SOL     OW47017  13.174  11.846   5.591
48393SOL    HW147018  13.113  11.806   5.529
48393SOL    HW247019  13.176  11.938   5.567
48394SOL     OW47020  14.077   6.594  13.253
48394SOL    HW147021  14.004   6.652  13.269
48394SOL    HW247022  14.042   6.526  13.196
48395SOL     OW47023   5.416  14.279  13.836
48395SOL    HW147024   5.370  14.293  13.919
48395SOL    HW247025   5.360  14.320  13.770
48396SOL     OW47026   9.627   9.474   6.839
48396SOL    HW147027   9.551   9.436   6.796
48396SOL    HW247028   9.687   9.400   6.851
48397SOL     OW47029  14.737   3.786   1.405
48397SOL    HW147030  14.700   3.857   1.457
48397SOL    HW247031  14.678   3.778   1.330
48398SOL     OW47032   2.787   2.891   5.830
48398SOL    HW147033   2.853   2.960   5.822
48398SOL    HW247034   2.726   2.910   5.758
48399SOL     OW47035   4.789   6.188   8.295
48399SOL    HW147036   4.807   6.217   8.385
48399SOL    HW247037   4.698   6.214   8.280
48400SOL     OW47038   8.428  10.150  14.766
48400SOL    HW147039   8.385  10.173  14.848
48400SOL    HW247040   8.357  10.133  14.705
48401SOL     OW47041  11.333  11.293   4.873
48401SOL    HW147042  11.355  11.380   4.842
48401SOL    HW247043  11.252  11.270   4.827
48402SOL     OW47044   5.989   3.971   7.285
48402SOL    HW147045   5.940   3.899   7.324
48402SOL    HW247046   6.026   4.018   7.359
48403SOL     OW47047   6.960   9.744  12.138
48403SOL    HW147048   6.928   9.724  12.050
48403SOL    HW247049   6.997   9.661  12.169
48404SOL     OW47050   1.335   2.712   6.887
48404SOL    HW147051   1.244   2.733   6.907
48404SOL    HW247052   1.381   2.721   6.971
48405SOL     OW47053   5.738   7.665   2.696
48405SOL    HW147054   5.763   7.748   2.655
48405SOL    HW247055   5.684   7.691   2.771
48406SOL     OW47056   8.675   2.493   5.524
48406SOL    HW147057   8.654   2.401   5.507
48406SOL    HW247058   8.770   2.499   5.509
48407SOL     OW47059  13.732   6.572   8.111
48407SOL    HW147060  13.664   6.515   8.074
48407SOL    HW247061  13.730   6.650   8.056
48408SOL     OW47062  11.978  13.434   4.839
48408SOL    HW147063  11.963  13.526   4.861
48408SOL    HW247064  11.953  13.386   4.917
48409SOL     OW47065   5.746   9.936  11.598
48409SOL    HW147066   5.768   9.855  11.643
48409SOL    HW247067   5.685   9.910  11.529
48410SOL     OW47068   7.161   5.824   9.894
48410SOL    HW147069   7.217   5.851   9.822
48410SOL    HW247070   7.172   5.893   9.960
48411SOL     OW47071  10.490  13.873  10.467
48411SOL    HW147072  10.458  13.874  10.377
48411SOL    HW247073  10.492  13.965  10.493
48412SOL     OW47074   8.601   8.405   2.902
48412SOL    HW147075   8.627   8.454   2.980
48412SOL    HW247076   8.584   8.472   2.836
48413SOL     OW47077   0.259  14.547  10.962
48413SOL    HW147078   0.239  14.634  10.997
48413SOL    HW247079   0.264  14.491  11.040
48414SOL     OW47080  12.280  11.420   3.385
48414SOL    HW147081  12.287  11.514   3.404
48414SOL    HW247082  12.260  11.380   3.469
48415SOL     OW47083  14.330  12.218   8.374
48415SOL    HW147084  14.408  12.192   8.423
48415SOL    HW247085  14.343  12.182   8.287
48416SOL     OW47086   3.804   8.991   6.902
48416SOL    HW147087   3.754   9.025   6.975
48416SOL    HW247088   3.840   8.908   6.934
48417SOL     OW47089   9.512  11.430   7.409
48417SOL    HW147090   9.455  11.363   7.448
48417SOL    HW247091   9.599  11.411   7.446
48418SOL     OW47092   8.150   6.336  12.825
48418SOL    HW147093   8.131   6.247  12.794
48418SOL    HW247094   8.136   6.391  12.748
48419SOL     OW47095  12.128  11.870   0.740
48419SOL    HW147096  12.058  11.818   0.778
48419SOL    HW247097  12.144  11.940   0.803
48420SOL     OW47098   8.642   4.074   3.445
48420SOL    HW147099   8.604   4.114   3.522
48420SOL    HW247100   8.680   4.147   3.396
48421SOL     OW47101  10.806  10.877   9.147
48421SOL    HW147102  10.752  10.911   9.075
48421SOL    HW247103  10.836  10.791   9.116
48422SOL     OW47104   2.680   9.568   9.584
48422SOL    HW147105   2.613   9.627   9.619
48422SOL    HW247106   2.635   9.518   9.516
48423SOL     OW47107   8.327  14.284  13.155
48423SOL    HW147108   8.359  14.363  13.199
48423SOL    HW247109   8.406  14.232  13.140
48424SOL     OW47110  10.201  12.079  10.577
48424SOL    HW147111  10.225  12.171  10.587
48424SOL    HW247112  10.282  12.035  10.550
48425SOL     OW47113   8.711   9.793   2.283
48425SOL    HW147114   8.628   9.772   2.241
48425SOL    HW247115   8.688   9.812   2.373
48426SOL     OW47116  14.545   7.334   8.811
48426SOL    HW147117  14.532   7.247   8.776
48426SOL    HW247118  14.640   7.343   8.821
48427SOL     OW47119   9.946  10.183   0.291
48427SOL    HW147120   9.972  10.107   0.239
48427SOL    HW247121   9.918  10.146   0.375
48428SOL     OW47122   5.109   5.127  11.005
48428SOL    HW147123   5.071   5.093  10.924
48428SOL    HW247124   5.044   5.108  11.072
48429SOL     OW47125  11.115  13.667   7.999
48429SOL    HW147126  11.138  13.716   7.920
48429SOL    HW247127  11.144  13.722   8.071
48430SOL     OW47128   6.133  12.490   6.064
48430SOL    HW147129   6.073  12.416   6.057
48430SOL    HW247130   6.205  12.457   6.118
48431SOL     OW47131   7.845  14.728   1.853
48431SOL    HW147132   7.782  14.722   1.782
48431SOL    HW247133   7.928  14.750   1.809
48432SOL     OW47134   6.826  12.525   0.608
48432SOL    HW147135   6.826  12.455   0.673
48432SOL    HW247136   6.874  12.596   0.649
48433SOL     OW47137   8.550  10.372   5.799
48433SOL    HW147138   8.579  10.455   5.837
48433SOL    HW247139   8.507  10.396   5.718
48434SOL     OW47140  10.152   9.299   9.754
48434SOL    HW147141  10.109   9.215   9.738
48434SOL    HW247142  10.105   9.336   9.829
48435SOL     OW47143  14.111  12.497   9.574
48435SOL    HW147144  14.174  12.556   9.614
48435SOL    HW247145  14.153  12.411   9.576
48436SOL     OW47146  12.569   0.361   3.784
48436SOL    HW147147  12.551   0.451   3.808
48436SOL    HW247148  12.503   0.310   3.831
48437SOL     OW47149  11.803  12.901  11.181
48437SOL    HW147150  11.764  12.931  11.099
48437SOL    HW247151  11.871  12.967  11.199
48438SOL     OW47152   1.319  14.496   3.004
48438SOL    HW147153   1.281  14.552   2.936
48438SOL    HW247154   1.243  14.460   3.050
48439SOL     OW47155   5.756   2.991   4.271
48439SOL    HW147156   5.825   2.979   4.337
48439SOL    HW247157   5.756   2.908   4.222
48440SOL     OW47158  14.345   7.650   7.794
48440SOL    HW147159  14.295   7.725   7.762
48440SOL    HW247160  14.361   7.670   7.886
48441SOL     OW47161   0.296  14.537  12.599
48441SOL    HW147162   0.216  14.561  12.646
48441SOL    HW247163   0.366  14.554  12.662
48442SOL     OW47164   2.751   1.064  11.570
48442SOL    HW147165   2.817   1.049  11.638
48442SOL    HW247166   2.759   1.157  11.549
48443SOL     OW47167   2.867   5.597   6.684
48443SOL    HW147168   2.869   5.645   6.601
48443SOL    HW247169   2.797   5.639   6.735
48444SOL     OW47170   4.513   3.069   4.416
48444SOL    HW147171   4.529   2.997   4.477
48444SOL    HW247172   4.448   3.034   4.355
48445SOL     OW47173   1.082   2.092  10.582
48445SOL    HW147174   0.989   2.083  10.561
48445SOL    HW247175   1.096   2.034  10.656
48446SOL     OW47176   7.226  12.512  14.312
48446SOL    HW147177   7.226  12.450  14.239
48446SOL    HW247178   7.296  12.574  14.291
48447SOL     OW47179   2.404   0.957   8.458
48447SOL    HW147180   2.323   0.948   8.507
48447SOL    HW247181   2.436   1.045   8.479
48448SOL     OW47182  12.264  14.088   1.299
48448SOL    HW147183  12.339  14.123   1.251
48448SOL    HW247184  12.227  14.164   1.344
48449SOL     OW47185  11.912  14.485  13.505
48449SOL    HW147186  11.961  14.526  13.575
48449SOL    HW247187  11.945  14.395  13.501
48450SOL     OW47188  13.453   8.228  10.717
48450SOL    HW147189  13.545   8.242  10.696
48450SOL    HW247190  13.452   8.149  10.771
48451SOL     OW47191  14.296   8.304   0.148
48451SOL    HW147192  14.280   8.227   0.203
48451SOL    HW247193  14.318   8.268   0.062
48452SOL     OW47194   8.463   1.974   6.349
48452SOL    HW147195   8.474   2.069   6.352
48452SOL    HW247196   8.463   1.946   6.440
48453SOL     OW47197   7.834   4.462  12.605
48453SOL    HW147198   7.856   4.412  12.684
48453SOL    HW247199   7.743   4.489  12.618
48454SOL     OW47200  12.007   4.925   7.062
48454SOL    HW147201  11.930   4.920   7.005
48454SOL    HW247202  12.011   4.839   7.105
48455SOL     OW47203   3.529   6.831   4.064
48455SOL    HW147204   3.465   6.895   4.033
48455SOL    HW247205   3.516   6.755   4.007
48456SOL     OW47206   2.804  12.861  11.197
48456SOL    HW147207   2.711  12.852  11.174
48456SOL    HW247208   2.845  12.897  11.119
48457SOL     OW47209  13.114  12.895   8.245
48457SOL    HW147210  13.034  12.843   8.234
48457SOL    HW247211  13.107  12.963   8.178
48458SOL     OW47212   3.694   8.285   8.100
48458SOL    HW147213   3.712   8.226   8.173
48458SOL    HW247214   3.681   8.370   8.142
48459SOL     OW47215   7.009  11.640   5.968
48459SOL    HW147216   7.097  11.671   5.985
48459SOL    HW247217   6.960  11.717   5.940
48460SOL     OW47218   7.661   8.152  12.322
48460SOL    HW147219   7.697   8.232  12.361
48460SOL    HW247220   7.616   8.182  12.244
48461SOL     OW47221  11.612   5.888   7.802
48461SOL    HW147222  11.596   5.794   7.818
48461SOL    HW247223  11.636   5.893   7.710
48462SOL     OW47224   9.731   8.097   3.001
48462SOL    HW147225   9.672   8.031   2.965
48462SOL    HW247226   9.733   8.166   2.935
48463SOL     OW47227  14.215   6.379   0.095
48463SOL    HW147228  14.210   6.284   0.078
48463SOL    HW247229  14.302   6.404   0.064
48464SOL     OW47230  11.677   1.598   4.996
48464SOL    HW147231  11.697   1.686   5.030
48464SOL    HW247232  11.762   1.559   4.978
48465SOL     OW47233   8.746   7.065   1.210
48465SOL    HW147234   8.756   6.975   1.178
48465SOL    HW247235   8.735   7.118   1.131
48466SOL     OW47236  12.740  14.816   2.225
48466SOL    HW147237  12.768  14.815   2.316
48466SOL    HW247238  12.691  14.735   2.213
48467SOL     OW47239  12.911   4.140   8.764
48467SOL    HW147240  12.904   4.123   8.858
48467SOL    HW247241  12.863   4.222   8.751
48468SOL     OW47242   3.101  12.862  13.858
48468SOL    HW147243   3.130  12.776  13.829
48468SOL    HW247244   3.060  12.901  13.781
48469SOL     OW47245   6.730  11.307  10.746
48469SOL    HW147246   6.719  11.212  10.755
48469SOL    HW247247   6.785  11.317  10.669
48470SOL     OW47248   9.137  11.627   5.414
48470SOL    HW147249   9.149  11.586   5.328
48470SOL    HW247250   9.165  11.560   5.477
48471SOL     OW47251   7.898   0.080  12.750
48471SOL    HW147252   7.817   0.112  12.789
48471SOL    HW247253   7.966   0.136  12.787
48472SOL     OW47254   9.394  11.412   9.706
48472SOL    HW147255   9.360  11.500   9.719
48472SOL    HW247256   9.331  11.370   9.648
48473SOL     OW47257   3.624  14.602  11.686
48473SOL    HW147258   3.709  14.572  11.721
48473SOL    HW247259   3.564  14.530  11.707
48474SOL     OW47260  10.035  12.071  10.283
48474SOL    HW147261  10.041  12.138  10.351
48474SOL    HW247262  10.071  11.992  10.324
48475SOL     OW47263   5.300   4.626   7.613
48475SOL    HW147264   5.314   4.686   7.539
48475SOL    HW247265   5.299   4.683   7.690
48476SOL     OW47266   1.357  12.481   3.933
48476SOL    HW147267   1.289  12.543   3.962
48476SOL    HW247268   1.389  12.518   3.851
48477SOL     OW47269  14.194   8.755   5.676
48477SOL    HW147270  14.252   8.714   5.741
48477SOL    HW247271  14.150   8.825   5.724
48478SOL     OW47272   9.259  11.363   5.806
48478SOL    HW147273   9.329  11.299   5.817
48478SOL    HW247274   9.179  11.311   5.814
48479SOL     OW47275   1.879   7.401  14.330
48479SOL    HW147276   1.965   7.408  14.288
48479SOL    HW247277   1.859   7.308  14.328
48480SOL     OW47278  12.333   1.069   0.464
48480SOL    HW147279  12.357   1.109   0.380
48480SOL    HW247280  12.319   0.977   0.444
48481SOL     OW47281  11.208   2.386   7.939
48481SOL    HW147282  11.290   2.428   7.913
48481SOL    HW247283  11.140   2.449   7.914
48482SOL     OW47284   4.637   2.084   3.727
48482SOL    HW147285   4.635   2.149   3.656
48482SOL    HW247286   4.633   2.137   3.807
48483SOL     OW47287   1.889   7.519   9.830
48483SOL    HW147288   1.957   7.460   9.795
48483SOL    HW247289   1.916   7.536   9.920
48484SOL     OW47290  11.521   6.241   6.194
48484SOL    HW147291  11.505   6.216   6.103
48484SOL    HW247292  11.543   6.159   6.238
48485SOL     OW47293  13.835  11.031   9.633
48485SOL    HW147294  13.812  11.096   9.567
48485SOL    HW247295  13.807  11.070   9.716
48486SOL     OW47296   7.215  13.384  13.937
48486SOL    HW147297   7.277  13.336  13.991
48486SOL    HW247298   7.230  13.476  13.959
48487SOL     OW47299  10.210   1.113  10.894
48487SOL    HW147300  10.245   1.059  10.823
48487SOL    HW247301  10.271   1.100  10.967
48488SOL     OW47302   4.030   8.435   2.647
48488SOL    HW147303   3.980   8.508   2.684
48488SOL    HW247304   4.106   8.478   2.607
48489SOL     OW47305   7.357  11.570   8.450
48489SOL    HW147306   7.433  11.629   8.454
48489SOL    HW247307   7.329  11.574   8.358
48490SOL     OW47308  11.076   1.226  12.071
48490SOL    HW147309  11.126   1.144  12.078
48490SOL    HW247310  11.042   1.241  12.159
48491SOL     OW47311  14.790   3.568  14.328
48491SOL    HW147312  14.806   3.559  14.234
48491SOL    HW247313  14.727   3.498  14.348
48492SOL     OW47314   8.270  14.091   9.268
48492SOL    HW147315   8.293  14.141   9.346
48492SOL    HW247316   8.195  14.137   9.231
48493SOL     OW47317  12.587  11.831   6.418
48493SOL    HW147318  12.562  11.841   6.326
48493SOL    HW247319  12.558  11.742   6.441
48494SOL     OW47320   6.628   6.767  14.203
48494SOL    HW147321   6.571   6.755  14.278
48494SOL    HW247322   6.644   6.861  14.199
48495SOL     OW47323   3.426   5.352  13.143
48495SOL    HW147324   3.488   5.298  13.192
48495SOL    HW247325   3.357   5.291  13.118
48496SOL     OW47326  14.395  12.723   2.396
48496SOL    HW147327  14.391  12.803   2.344
48496SOL    HW247328  14.413  12.654   2.333
48497SOL     OW47329   2.343   6.689   1.568
48497SOL    HW147330   2.300   6.626   1.626
48497SOL    HW247331   2.390   6.748   1.626
48498SOL     OW47332   9.014  14.556   9.139
48498SOL    HW147333   9.018  14.651   9.137
48498SOL    HW247334   8.944  14.533   9.078
48499SOL     OW47335  13.870   3.638  12.980
48499SOL    HW147336  13.868   3.661  13.073
48499SOL    HW247337  13.962   3.617  12.963
48500SOL     OW47338   5.049   6.504   3.735
48500SOL    HW147339   5.031   6.564   3.807
48500SOL    HW247340   5.002   6.424   3.758
48501SOL     OW47341   8.497   6.584   4.747
48501SOL    HW147342   8.460   6.592   4.835
48501SOL    HW247343   8.422   6.580   4.689
48502SOL     OW47344   4.712  10.976  10.059
48502SOL    HW147345   4.625  10.963  10.022
48502SOL    HW247346   4.697  11.026  10.139
48503SOL     OW47347   4.475   7.394   2.185
48503SOL    HW147348   4.388   7.433   2.187
48503SOL    HW247349   4.460   7.300   2.195
48504SOL     OW47350   6.066   8.610  13.828
48504SOL    HW147351   6.012   8.580  13.902
48504SOL    HW247352   6.006   8.608  13.753
48505SOL     OW47353   4.300   7.088   1.418
48505SOL    HW147354   4.327   6.999   1.442
48505SOL    HW247355   4.205   7.083   1.412
48506SOL     OW47356   1.809   9.367   5.136
48506SOL    HW147357   1.876   9.350   5.202
48506SOL    HW247358   1.733   9.318   5.167
48507SOL     OW47359  10.083   3.752   8.637
48507SOL    HW147360  10.093   3.761   8.542
48507SOL    HW247361  10.029   3.673   8.648
48508SOL     OW47362   7.363   7.131   0.746
48508SOL    HW147363   7.273   7.119   0.776
48508SOL    HW247364   7.356   7.127   0.650
48509SOL     OW47365   9.361   3.075  12.938
48509SOL    HW147366   9.456   3.085  12.930
48509SOL    HW247367   9.331   3.062  12.848
48510SOL     OW47368   9.353   5.694  12.157
48510SOL    HW147369   9.403   5.757  12.209
48510SOL    HW247370   9.319   5.632  12.221
48511SOL     OW47371   2.838   8.098  12.233
48511SOL    HW147372   2.811   8.182  12.195
48511SOL    HW247373   2.772   8.036  12.202
48512SOL     OW47374  10.075  11.189  11.961
48512SOL    HW147375  10.128  11.113  11.987
48512SOL    HW247376  10.125  11.230  11.890
48513SOL     OW47377  12.505   2.914   7.905
48513SOL    HW147378  12.562   2.859   7.960
48513SOL    HW247379  12.516   3.002   7.941
48514SOL     OW47380  14.054  11.773   1.847
48514SOL    HW147381  14.005  11.821   1.780
48514SOL    HW247382  14.003  11.785   1.928
48515SOL     OW47383  14.374  11.237   0.053
48515SOL    HW147384  14.426  11.316   0.040
48515SOL    HW247385  14.400  11.179  14.854
48516SOL     OW47386  13.266   8.142  13.405
48516SOL    HW147387  13.353   8.155  13.368
48516SOL    HW247388  13.277   8.162  13.498
48517SOL     OW47389  13.915  12.664   1.670
48517SOL    HW147390  13.895  12.574   1.647
48517SOL    HW247391  14.003  12.679   1.636
48518SOL     OW47392   5.506   9.816  12.922
48518SOL    HW147393   5.451   9.888  12.953
48518SOL    HW247394   5.545   9.849  12.842
48519SOL     OW47395  13.837   9.891   9.344
48519SOL    HW147396  13.904   9.856   9.402
48519SOL    HW247397  13.886   9.924   9.268
48520SOL     OW47398   9.264   9.019   0.880
48520SOL    HW147399   9.323   9.094   0.877
48520SOL    HW247400   9.309   8.950   0.831
48521SOL     OW47401   1.995   6.119  14.274
48521SOL    HW147402   2.058   6.183  14.307
48521SOL    HW247403   2.049   6.046  14.244
48522SOL     OW47404  12.415  14.481  11.405
48522SOL    HW147405  12.409  14.411  11.339
48522SOL    HW247406  12.491  14.533  11.378
48523SOL     OW47407   4.182   6.803  12.115
48523SOL    HW147408   4.178   6.712  12.144
48523SOL    HW247409   4.236   6.847  12.181
48524SOL     OW47410   0.430  12.531   1.654
48524SOL    HW147411   0.408  12.592   1.724
48524SOL    HW247412   0.395  12.447   1.683
48525SOL     OW47413   1.936   5.846   7.972
48525SOL    HW147414   1.896   5.787   7.908
48525SOL    HW247415   1.981   5.912   7.918
48526SOL     OW47416  14.297   3.792   6.164
48526SOL    HW147417  14.357   3.855   6.124
48526SOL    HW247418  14.353   3.738   6.220
48527SOL     OW47419   8.996   2.699   2.751
48527SOL    HW147420   8.929   2.732   2.691
48527SOL    HW247421   8.962   2.614   2.779
48528SOL     OW47422   2.586  14.509   9.710
48528SOL    HW147423   2.591  14.471   9.622
48528SOL    HW247424   2.497  14.545   9.716
48529SOL     OW47425   6.560   8.689   1.326
48529SOL    HW147426   6.514   8.606   1.338
48529SOL    HW247427   6.496   8.756   1.347
48530SOL     OW47428   9.098   9.318  11.990
48530SOL    HW147429   9.166   9.253  12.007
48530SOL    HW247430   9.112   9.385  12.057
48531SOL     OW47431   4.988   8.503   5.002
48531SOL    HW147432   4.944   8.541   4.926
48531SOL    HW247433   4.961   8.412   5.002
48532SOL     OW47434   7.751   2.109   2.540
48532SOL    HW147435   7.715   2.037   2.489
48532SOL    HW247436   7.811   2.067   2.602
48533SOL     OW47437  12.313   0.035   8.282
48533SOL    HW147438  12.337   0.118   8.322
48533SOL    HW247439  12.218   0.040   8.270
48534SOL     OW47440   9.151  10.329   1.948
48534SOL    HW147441   9.237  10.364   1.972
48534SOL    HW247442   9.123  10.281   2.027
48535SOL     OW47443   5.730  11.023   2.461
48535SOL    HW147444   5.754  11.080   2.388
48535SOL    HW247445   5.729  11.081   2.537
48536SOL     OW47446   0.726   2.773   1.044
48536SOL    HW147447   0.674   2.724   1.108
48536SOL    HW247448   0.756   2.850   1.091
48537SOL     OW47449   6.908   7.245   8.087
48537SOL    HW147450   6.964   7.323   8.096
48537SOL    HW247451   6.939   7.203   8.006
48538SOL     OW47452  14.678  13.494   5.273
48538SOL    HW147453  14.734  13.515   5.198
48538SOL    HW247454  14.633  13.413   5.249
48539SOL     OW47455   3.006   4.787   2.025
48539SOL    HW147456   2.938   4.737   1.979
48539SOL    HW247457   3.027   4.859   1.965
48540SOL     OW47458  10.775   1.987   2.040
48540SOL    HW147459  10.859   1.964   2.001
48540SOL    HW247460  10.712   1.933   1.993
48541SOL     OW47461  13.861   2.059   5.042
48541SOL    HW147462  13.918   2.087   4.971
48541SOL    HW247463  13.920   2.050   5.117
48542SOL     OW47464   1.095   9.804   2.728
48542SOL    HW147465   1.147   9.862   2.673
48542SOL    HW247466   1.025   9.860   2.761
48543SOL     OW47467   7.544   0.825   3.836
48543SOL    HW147468   7.624   0.879   3.836
48543SOL    HW247469   7.494   0.857   3.911
48544SOL     OW47470   3.938   9.198  10.564
48544SOL    HW147471   3.984   9.268  10.518
48544SOL    HW247472   3.955   9.214  10.657
48545SOL     OW47473  11.351   4.679   4.604
48545SOL    HW147474  11.420   4.616   4.585
48545SOL    HW247475  11.271   4.626   4.608
48546SOL     OW47476   4.154   5.959   6.824
48546SOL    HW147477   4.229   5.921   6.779
48546SOL    HW247478   4.134   6.038   6.774
48547SOL     OW47479   8.253   1.230   6.250
48547SOL    HW147480   8.267   1.157   6.189
48547SOL    HW247481   8.182   1.280   6.210
48548SOL     OW47482   4.944   4.562   7.394
48548SOL    HW147483   4.901   4.609   7.465
48548SOL    HW247484   4.904   4.596   7.314
48549SOL     OW47485   8.010  14.689   8.651
48549SOL    HW147486   8.052  14.682   8.566
48549SOL    HW247487   7.998  14.783   8.664
48550SOL     OW47488   2.882   0.643  12.382
48550SOL    HW147489   2.807   0.645  12.442
48550SOL    HW247490   2.847   0.602  12.303
48551SOL     OW47491  14.311   7.855  13.033
48551SOL    HW147492  14.238   7.893  13.081
48551SOL    HW247493  14.303   7.761  13.047
48552SOL     OW47494   0.371   4.723  13.686
48552SOL    HW147495   0.356   4.676  13.604
48552SOL    HW247496   0.414   4.805  13.660
48553SOL     OW47497  13.962  13.753   1.849
48553SOL    HW147498  13.874  13.732   1.816
48553SOL    HW247499  14.019  13.744   1.773
48554SOL     OW47500   1.561  11.664   2.722
48554SOL    HW147501   1.611  11.629   2.649
48554SOL    HW247502   1.472  11.632   2.708
48555SOL     OW47503   8.035   0.908  12.337
48555SOL    HW147504   8.066   0.942  12.253
48555SOL    HW247505   8.032   0.813  12.326
48556SOL     OW47506   7.849   5.190   3.151
48556SOL    HW147507   7.777   5.252   3.152
48556SOL    HW247508   7.928   5.244   3.156
48557SOL     OW47509   2.719  14.864  13.104
48557SOL    HW147510   2.683  14.788  13.058
48557SOL    HW247511   2.666  14.871  13.183
48558SOL     OW47512   7.611   6.278  14.181
48558SOL    HW147513   7.622   6.218  14.254
48558SOL    HW247514   7.671   6.350  14.200
48559SOL     OW47515   1.866   1.640   3.649
48559SOL    HW147516   1.874   1.701   3.722
48559SOL    HW247517   1.881   1.694   3.571
48560SOL     OW47518   9.372   6.298  13.604
48560SOL    HW147519   9.402   6.361  13.538
48560SOL    HW247520   9.279   6.317  13.615
48561SOL     OW47521  12.615   0.239   0.729
48561SOL    HW147522  12.705   0.228   0.760
48561SOL    HW247523  12.589   0.152   0.698
48562SOL     OW47524   0.442   6.635   7.506
48562SOL    HW147525   0.377   6.687   7.459
48562SOL    HW247526   0.507   6.613   7.440
48563SOL     OW47527   0.950  12.450   3.040
48563SOL    HW147528   0.990  12.536   3.052
48563SOL    HW247529   0.884  12.444   3.108
48564SOL     OW47530  14.239   4.853   6.882
48564SOL    HW147531  14.212   4.877   6.971
48564SOL    HW247532  14.166   4.881   6.827
48565SOL     OW47533   9.404   8.372   8.233
48565SOL    HW147534   9.415   8.430   8.158
48565SOL    HW247535   9.322   8.400   8.273
48566SOL     OW47536  13.997   7.196  12.075
48566SOL    HW147537  13.933   7.263  12.099
48566SOL    HW247538  13.944   7.119  12.055
48567SOL     OW47539  11.120   3.619   1.464
48567SOL    HW147540  11.159   3.576   1.388
48567SOL    HW247541  11.130   3.556   1.536
48568SOL     OW47542   9.736  12.947   3.478
48568SOL    HW147543   9.647  12.975   3.456
48568SOL    HW247544   9.780  12.939   3.394
48569SOL     OW47545   9.234  11.869   5.911
48569SOL    HW147546   9.197  11.855   5.998
48569SOL    HW247547   9.245  11.964   5.905
48570SOL     OW47548   7.489   4.009   7.998
48570SOL    HW147549   7.518   4.094   7.967
48570SOL    HW247550   7.407   4.027   8.044
48571SOL     OW47551  13.076  11.651   6.815
48571SOL    HW147552  13.030  11.595   6.878
48571SOL    HW247553  13.168  11.642   6.840
48572SOL     OW47554   8.995  14.088   7.016
48572SOL    HW147555   8.945  14.070   7.095
48572SOL    HW247556   8.964  14.174   6.987
48573SOL     OW47557  13.465  13.010  10.707
48573SOL    HW147558  13.449  13.102  10.686
48573SOL    HW247559  13.449  13.004  10.801
48574SOL     OW47560   1.390   8.522   5.737
48574SOL    HW147561   1.399   8.613   5.767
48574SOL    HW247562   1.296   8.512   5.720
48575SOL     OW47563  11.810   2.308   1.656
48575SOL    HW147564  11.779   2.295   1.745
48575SOL    HW247565  11.754   2.378   1.621
48576SOL     OW47566   5.787   7.666   6.934
48576SOL    HW147567   5.739   7.734   6.888
48576SOL    HW247568   5.877   7.673   6.902
48577SOL     OW47569  14.604   2.772   2.606
48577SOL    HW147570  14.520   2.808   2.577
48577SOL    HW247571  14.659   2.774   2.529
48578SOL     OW47572  13.712   6.299   9.431
48578SOL    HW147573  13.790   6.332   9.476
48578SOL    HW247574  13.747   6.241   9.363
48579SOL     OW47575   2.868   1.750   9.756
48579SOL    HW147576   2.902   1.663   9.740
48579SOL    HW247577   2.843   1.750   9.849
48580SOL     OW47578  10.401   7.349   9.689
48580SOL    HW147579  10.477   7.324   9.742
48580SOL    HW247580  10.329   7.352   9.751
48581SOL     OW47581  14.224   0.986  13.953
48581SOL    HW147582  14.230   1.066  13.900
48581SOL    HW247583  14.130   0.968  13.957
48582SOL     OW47584  12.535   9.160   8.089
48582SOL    HW147585  12.473   9.233   8.094
48582SOL    HW247586  12.481   9.081   8.094
48583SOL     OW47587   8.369   1.999  10.394
48583SOL    HW147588   8.435   2.026  10.459
48583SOL    HW247589   8.294   1.970  10.447
48584SOL     OW47590   2.138   6.088  13.197
48584SOL    HW147591   2.149   6.159  13.134
48584SOL    HW247592   2.215   6.093  13.253
48585SOL     OW47593   4.993  11.594   8.094
48585SOL    HW147594   5.028  11.681   8.115
48585SOL    HW247595   4.982  11.596   7.999
48586SOL     OW47596   8.211   4.409   2.889
48586SOL    HW147597   8.298   4.372   2.878
48586SOL    HW247598   8.197   4.410   2.984
48587SOL     OW47599   9.325   2.106  12.204
48587SOL    HW147600   9.348   2.052  12.129
48587SOL    HW247601   9.243   2.149  12.179
48588SOL     OW47602   1.884   4.421   5.289
48588SOL    HW147603   1.978   4.438   5.292
48588SOL    HW247604   1.859   4.440   5.198
48589SOL     OW47605  14.794   0.504   6.794
48589SOL    HW147606  14.777   0.443   6.866
48589SOL    HW247607   0.016   0.510   6.790
48590SOL     OW47608  14.041   7.671   9.359
48590SOL    HW147609  14.009   7.609   9.294
48590SOL    HW247610  13.980   7.664   9.431
48591SOL     OW47611   3.161   8.771   5.047
48591SOL    HW147612   3.248   8.734   5.060
48591SOL    HW247613   3.114   8.706   4.995
48592SOL     OW47614   7.142   9.994   4.625
48592SOL    HW147615   7.079  10.055   4.586
48592SOL    HW247616   7.113   9.907   4.597
48593SOL     OW47617  12.634   6.031   5.572
48593SOL    HW147618  12.688   6.021   5.650
48593SOL    HW247619  12.696   6.024   5.499
48594SOL     OW47620   3.041  12.540   1.836
48594SOL    HW147621   3.008  12.481   1.769
48594SOL    HW247622   3.014  12.501   1.919
48595SOL     OW47623   8.042  14.359   8.689
48595SOL    HW147624   8.123  14.390   8.650
48595SOL    HW247625   8.070  14.293   8.753
48596SOL     OW47626   8.956   0.896  11.573
48596SOL    HW147627   9.003   0.846  11.506
48596SOL    HW247628   8.943   0.982  11.534
48597SOL     OW47629   4.036  12.060  10.801
48597SOL    HW147630   3.941  12.050  10.803
48597SOL    HW247631   4.067  12.011  10.877
48598SOL     OW47632   3.748   7.283  13.036
48598SOL    HW147633   3.836   7.319  13.022
48598SOL    HW247634   3.733   7.226  12.960
48599SOL     OW47635  14.359   5.473   8.166
48599SOL    HW147636  14.380   5.506   8.254
48599SOL    HW247637  14.297   5.537   8.132
48600SOL     OW47638   7.027  10.618  10.853
48600SOL    HW147639   6.996  10.704  10.824
48600SOL    HW247640   7.076  10.636  10.933
48601SOL     OW47641  11.241  10.152   7.692
48601SOL    HW147642  11.269  10.160   7.601
48601SOL    HW247643  11.185  10.075   7.694
48602SOL     OW47644   5.752   2.952  12.944
48602SOL    HW147645   5.832   2.916  12.904
48602SOL    HW247646   5.683   2.890  12.919
48603SOL     OW47647  12.636  11.578  10.982
48603SOL    HW147648  12.580  11.622  11.046
48603SOL    HW247649  12.669  11.649  10.926
48604SOL     OW47650   3.063   7.945   8.925
48604SOL    HW147651   2.982   7.897   8.940
48604SOL    HW247652   3.038   8.018   8.869
48605SOL     OW47653   3.899  13.551  11.489
48605SOL    HW147654   3.981  13.543  11.538
48605SOL    HW247655   3.907  13.487  11.418
48606SOL     OW47656   7.684   3.131   9.692
48606SOL    HW147657   7.695   3.133   9.597
48606SOL    HW247658   7.694   3.223   9.719
48607SOL     OW47659  11.972   5.456   3.420
48607SOL    HW147660  11.952   5.467   3.513
48607SOL    HW247661  11.977   5.361   3.407
48608SOL     OW47662   4.632   7.244   8.388
48608SOL    HW147663   4.590   7.273   8.307
48608SOL    HW247664   4.682   7.167   8.362
48609SOL     OW47665   2.787  13.056  10.575
48609SOL    HW147666   2.760  12.966  10.594
48609SOL    HW247667   2.878  13.048  10.548
48610SOL     OW47668  12.879   6.652   3.500
48610SOL    HW147669  12.943   6.602   3.449
48610SOL    HW247670  12.818   6.686   3.435
48611SOL     OW47671   6.353   5.447   5.638
48611SOL    HW147672   6.419   5.468   5.572
48611SOL    HW247673   6.295   5.385   5.594
48612SOL     OW47674   8.528   2.698   5.458
48612SOL    HW147675   8.553   2.618   5.505
48612SOL    HW247676   8.598   2.711   5.394
48613SOL     OW47677   4.796   5.558  13.066
48613SOL    HW147678   4.864   5.625  13.076
48613SOL    HW247679   4.714   5.606  13.080
48614SOL     OW47680   4.624  11.474   6.224
48614SOL    HW147681   4.542  11.469   6.274
48614SOL    HW247682   4.692  11.448   6.287
48615SOL     OW47683   4.596   4.721   6.073
48615SOL    HW147684   4.671   4.671   6.105
48615SOL    HW247685   4.609   4.724   5.978
48616SOL     OW47686   8.332  10.599   4.590
48616SOL    HW147687   8.328  10.545   4.669
48616SOL    HW247688   8.324  10.538   4.518
48617SOL     OW47689   2.411  10.073   6.350
48617SOL    HW147690   2.340  10.104   6.292
48617SOL    HW247691   2.368  10.010   6.408
48618SOL     OW47692   1.909   3.767   5.847
48618SOL    HW147693   1.854   3.709   5.901
48618SOL    HW247694   1.875   3.755   5.758
48619SOL     OW47695  14.143   3.286   2.700
48619SOL    HW147696  14.101   3.371   2.712
48619SOL    HW247697  14.083   3.223   2.738
48620SOL     OW47698  11.431   4.795   7.123
48620SOL    HW147699  11.391   4.813   7.208
48620SOL    HW247700  11.377   4.726   7.085
48621SOL     OW47701   5.020   5.816   1.872
48621SOL    HW147702   4.963   5.748   1.906
48621SOL    HW247703   5.100   5.770   1.846
48622SOL     OW47704   8.746   1.274   8.539
48622SOL    HW147705   8.807   1.207   8.509
48622SOL    HW247706   8.742   1.337   8.467
48623SOL     OW47707   5.219   9.072   1.867
48623SOL    HW147708   5.137   9.112   1.894
48623SOL    HW247709   5.256   9.035   1.947
48624SOL     OW47710  10.223   4.820   3.648
48624SOL    HW147711  10.195   4.901   3.605
48624SOL    HW247712  10.141   4.776   3.672
48625SOL     OW47713  13.896   3.810  11.622
48625SOL    HW147714  13.822   3.819  11.683
48625SOL    HW247715  13.973   3.812  11.678
48626SOL     OW47716  12.261   4.532   3.031
48626SOL    HW147717  12.241   4.604   3.091
48626SOL    HW247718  12.341   4.492   3.067
48627SOL     OW47719   5.162   1.815  13.043
48627SOL    HW147720   5.091   1.865  13.083
48627SOL    HW247721   5.230   1.880  13.024
48628SOL     OW47722  10.170   8.614  11.452
48628SOL    HW147723  10.116   8.621  11.531
48628SOL    HW247724  10.119   8.661  11.385
48629SOL     OW47725   5.390   6.853   2.627
48629SOL    HW147726   5.370   6.915   2.556
48629SOL    HW247727   5.462   6.895   2.675
48630SOL     OW47728  12.267   3.310   5.105
48630SOL    HW147729  12.337   3.310   5.170
48630SOL    HW247730  12.220   3.392   5.121
48631SOL     OW47731  13.500  11.273   8.051
48631SOL    HW147732  13.436  11.320   7.998
48631SOL    HW247733  13.448  11.227   8.117
48632SOL     OW47734   3.442   8.164  14.824
48632SOL    HW147735   3.382   8.208   0.010
48632SOL    HW247736   3.493   8.105   0.005
48633SOL     OW47737   8.893   9.869   8.036
48633SOL    HW147738   8.909   9.846   8.128
48633SOL    HW247739   8.819   9.814   8.010
48634SOL     OW47740   1.702   5.391   4.303
48634SOL    HW147741   1.723   5.468   4.357
48634SOL    HW247742   1.711   5.422   4.213
48635SOL     OW47743   2.909   3.395   7.412
48635SOL    HW147744   2.914   3.340   7.490
48635SOL    HW247745   2.908   3.484   7.446
48636SOL     OW47746   9.220  12.567   8.749
48636SOL    HW147747   9.220  12.481   8.792
48636SOL    HW247748   9.280  12.620   8.800
48637SOL     OW47749  10.575  12.553   6.054
48637SOL    HW147750  10.604  12.556   5.963
48637SOL    HW247751  10.609  12.633   6.093
48638SOL     OW47752   5.873  11.019   8.335
48638SOL    HW147753   5.960  11.011   8.372
48638SOL    HW247754   5.846  10.930   8.314
48639SOL     OW47755   2.783   1.992  13.820
48639SOL    HW147756   2.874   2.013  13.838
48639SOL    HW247757   2.785   1.945  13.736
48640SOL     OW47758   1.320   8.890   0.761
48640SOL    HW147759   1.227   8.911   0.755
48640SOL    HW247760   1.330   8.811   0.707
48641SOL     OW47761   8.000  10.728  11.231
48641SOL    HW147762   7.997  10.704  11.139
48641SOL    HW247763   8.080  10.779  11.240
48642SOL     OW47764   2.971   7.449  12.752
48642SOL    HW147765   2.898   7.510  12.766
48642SOL    HW247766   3.036   7.500  12.705
48643SOL     OW47767   1.769  13.633  11.459
48643SOL    HW147768   1.792  13.692  11.387
48643SOL    HW247769   1.831  13.560  11.451
48644SOL     OW47770   6.395   4.783   1.817
48644SOL    HW147771   6.413   4.784   1.723
48644SOL    HW247772   6.356   4.868   1.835
48645SOL     OW47773   3.922  11.658   2.697
48645SOL    HW147774   3.972  11.701   2.628
48645SOL    HW247775   3.988  11.630   2.760
48646SOL     OW47776   1.318   3.137   9.823
48646SOL    HW147777   1.233   3.098   9.801
48646SOL    HW247778   1.296   3.209   9.881
48647SOL     OW47779   9.879   8.289   2.354
48647SOL    HW147780   9.881   8.216   2.415
48647SOL    HW247781   9.971   8.302   2.330
48648SOL     OW47782  13.029  11.111   6.640
48648SOL    HW147783  13.062  11.025   6.616
48648SOL    HW247784  12.934  11.100   6.642
48649SOL     OW47785   5.457   3.117   8.498
48649SOL    HW147786   5.552   3.127   8.491
48649SOL    HW247787   5.428   3.099   8.409
48650SOL     OW47788   0.722   3.601  10.903
48650SOL    HW147789   0.670   3.534  10.857
48650SOL    HW247790   0.758   3.656  10.833
48651SOL     OW47791  10.220   9.480   4.790
48651SOL    HW147792  10.199   9.573   4.791
48651SOL    HW247793  10.262   9.463   4.874
48652SOL     OW47794  12.826   4.341   7.116
48652SOL    HW147795  12.749   4.297   7.081
48652SOL    HW247796  12.871   4.375   7.039
48653SOL     OW47797   0.941   7.007   4.384
48653SOL    HW147798   0.914   6.917   4.366
48653SOL    HW247799   0.962   7.043   4.298
48654SOL     OW47800  13.224   3.622  14.067
48654SOL    HW147801  13.281   3.693  14.039
48654SOL    HW247802  13.185   3.653  14.149
48655SOL     OW47803   2.153   0.553   6.539
48655SOL    HW147804   2.131   0.635   6.494
48655SOL    HW247805   2.249   0.548   6.534
48656SOL     OW47806   6.447   6.966   8.890
48656SOL    HW147807   6.368   7.003   8.931
48656SOL    HW247808   6.497   6.930   8.963
48657SOL     OW47809   8.538   3.099   5.338
48657SOL    HW147810   8.615   3.115   5.393
48657SOL    HW247811   8.574   3.077   5.252
48658SOL     OW47812   7.103   0.169   9.670
48658SOL    HW147813   7.123   0.110   9.598
48658SOL    HW247814   7.187   0.186   9.712
48659SOL     OW47815   5.100   3.606  10.566
48659SOL    HW147816   5.156   3.679  10.540
48659SOL    HW247817   5.055   3.638  10.644
48660SOL     OW47818  11.283   1.923   6.949
48660SOL    HW147819  11.218   1.911   7.018
48660SOL    HW247820  11.286   1.839   6.904
48661SOL     OW47821   6.795   2.504  10.913
48661SOL    HW147822   6.713   2.543  10.944
48661SOL    HW247823   6.863   2.566  10.940
48662SOL     OW47824   2.575  10.268   8.510
48662SOL    HW147825   2.572  10.338   8.575
48662SOL    HW247826   2.539  10.308   8.431
48663SOL     OW47827   3.606  11.583   5.239
48663SOL    HW147828   3.677  11.521   5.256
48663SOL    HW247829   3.561  11.591   5.323
48664SOL     OW47830   8.383   6.203   2.952
48664SOL    HW147831   8.394   6.297   2.936
48664SOL    HW247832   8.312   6.198   3.015
48665SOL     OW47833   4.127   8.139   8.485
48665SOL    HW147834   4.035   8.163   8.494
48665SOL    HW247835   4.164   8.153   8.573
48666SOL     OW47836  12.462   4.906   8.189
48666SOL    HW147837  12.472   4.942   8.277
48666SOL    HW247838  12.419   4.822   8.202
48667SOL     OW47839   0.994   5.979   3.153
48667SOL    HW147840   0.963   5.956   3.065
48667SOL    HW247841   1.089   5.988   3.144
48668SOL     OW47842   4.307  13.022  10.069
48668SOL    HW147843   4.251  13.052  10.141
48668SOL    HW247844   4.343  12.939  10.099
48669SOL     OW47845   5.019   6.093   3.986
48669SOL    HW147846   4.925   6.109   3.988
48669SOL    HW247847   5.039   6.055   4.072
48670SOL     OW47848   2.465  14.198  14.398
48670SOL    HW147849   2.433  14.287  14.416
48670SOL    HW247850   2.392  14.156  14.352
48671SOL     OW47851   2.241  13.312  11.738
48671SOL    HW147852   2.171  13.273  11.686
48671SOL    HW247853   2.254  13.399  11.699
48672SOL     OW47854  14.050  10.459   6.002
48672SOL    HW147855  14.050  10.551   5.975
48672SOL    HW247856  14.141  10.440   6.023
48673SOL     OW47857   6.703   3.619   4.183
48673SOL    HW147858   6.722   3.529   4.208
48673SOL    HW247859   6.777   3.669   4.217
48674SOL     OW47860   0.899  10.080   0.865
48674SOL    HW147861   0.892   9.985   0.867
48674SOL    HW247862   0.820  10.111   0.909
48675SOL     OW47863   4.971   9.775  12.286
48675SOL    HW147864   5.057   9.787  12.327
48675SOL    HW247865   4.973   9.830  12.207
48676SOL     OW47866   7.581   9.864  12.570
48676SOL    HW147867   7.570   9.777  12.609
48676SOL    HW247868   7.504   9.875  12.513
48677SOL     OW47869   6.214  11.268   5.800
48677SOL    HW147870   6.159  11.336   5.761
48677SOL    HW247871   6.157  11.224   5.862
48678SOL     OW47872   4.790   0.404   1.260
48678SOL    HW147873   4.706   0.446   1.277
48678SOL    HW247874   4.768   0.314   1.236
48679SOL     OW47875   3.878   6.638   4.256
48679SOL    HW147876   3.862   6.720   4.210
48679SOL    HW247877   3.804   6.582   4.230
48680SOL     OW47878   1.810   6.318   9.584
48680SOL    HW147879   1.724   6.280   9.601
48680SOL    HW247880   1.827   6.298   9.492
48681SOL     OW47881  11.272  10.015   7.046
48681SOL    HW147882  11.220  10.066   6.984
48681SOL    HW247883  11.208   9.966   7.096
48682SOL     OW47884   6.661   6.365  11.403
48682SOL    HW147885   6.607   6.313  11.344
48682SOL    HW247886   6.664   6.452  11.362
48683SOL     OW47887   6.164   6.414   9.148
48683SOL    HW147888   6.186   6.425   9.241
48683SOL    HW247889   6.234   6.460   9.102
48684SOL     OW47890   7.205   9.951  13.060
48684SOL    HW147891   7.211   9.958  12.965
48684SOL    HW247892   7.132   9.891  13.075
48685SOL     OW47893  13.186  13.551   8.942
48685SOL    HW147894  13.222  13.608   8.874
48685SOL    HW247895  13.140  13.482   8.893
48686SOL     OW47896  10.890   4.211   2.780
48686SOL    HW147897  10.803   4.184   2.750
48686SOL    HW247898  10.880   4.304   2.800
48687SOL     OW47899   3.888   2.443  11.807
48687SOL    HW147900   3.964   2.414  11.858
48687SOL    HW247901   3.884   2.538  11.823
48688SOL     OW47902   3.185   9.050   3.560
48688SOL    HW147903   3.169   8.976   3.501
48688SOL    HW247904   3.215   9.120   3.503
48689SOL     OW47905  13.472   2.604   2.464
48689SOL    HW147906  13.385   2.566   2.477
48689SOL    HW247907  13.531   2.540   2.504
48690SOL     OW47908   4.533   7.935  12.676
48690SOL    HW147909   4.597   7.890  12.732
48690SOL    HW247910   4.584   8.003  12.632
48691SOL     OW47911   5.190  10.389   9.649
48691SOL    HW147912   5.247  10.452   9.605
48691SOL    HW247913   5.205  10.404   9.742
48692SOL     OW47914   7.021   0.107  11.697
48692SOL    HW147915   6.999   0.148  11.780
48692SOL    HW247916   7.079   0.034  11.721
48693SOL     OW47917   7.868  13.139   0.097
48693SOL    HW147918   7.816  13.096   0.030
48693SOL    HW247919   7.889  13.070   0.160
48694SOL     OW47920   1.222   8.152  14.175
48694SOL    HW147921   1.178   8.167  14.092
48694SOL    HW247922   1.263   8.235  14.197
48695SOL     OW47923   4.261   8.409   6.837
48695SOL    HW147924   4.255   8.403   6.742
48695SOL    HW247925   4.318   8.336   6.862
48696SOL     OW47926  13.557  10.548   8.261
48696SOL    HW147927  13.587  10.628   8.304
48696SOL    HW247928  13.498  10.508   8.325
48697SOL     OW47929   8.435   8.273   5.175
48697SOL    HW147930   8.421   8.275   5.270
48697SOL    HW247931   8.481   8.190   5.160
48698SOL     OW47932   8.848   3.329   2.911
48698SOL    HW147933   8.789   3.394   2.952
48698SOL    HW247934   8.804   3.304   2.830
48699SOL     OW47935   9.623   0.539   3.247
48699SOL    HW147936   9.534   0.563   3.272
48699SOL    HW247937   9.644   0.463   3.301
48700SOL     OW47938   1.907  14.019   0.521
48700SOL    HW147939   1.866  14.067   0.593
48700SOL    HW247940   1.834  13.976   0.476
48701SOL     OW47941   8.304   6.344   9.846
48701SOL    HW147942   8.252   6.269   9.816
48701SOL    HW247943   8.253   6.421   9.821
48702SOL     OW47944   7.780  13.657  12.921
48702SOL    HW147945   7.706  13.718  12.925
48702SOL    HW247946   7.781  13.614  13.006
48703SOL     OW47947   1.589  10.647  11.045
48703SOL    HW147948   1.611  10.562  11.006
48703SOL    HW247949   1.655  10.659  11.113
48704SOL     OW47950   2.126   4.800   4.678
48704SOL    HW147951   2.190   4.869   4.664
48704SOL    HW247952   2.053   4.843   4.723
48705SOL     OW47953   7.230   1.482   5.907
48705SOL    HW147954   7.253   1.538   5.982
48705SOL    HW247955   7.303   1.420   5.901
48706SOL     OW47956  14.177   9.347   1.992
48706SOL    HW147957  14.134   9.421   1.948
48706SOL    HW247958  14.231   9.388   2.059
48707SOL     OW47959   1.466   2.516  13.379
48707SOL    HW147960   1.448   2.587  13.441
48707SOL    HW247961   1.387   2.509  13.326
48708SOL     OW47962   7.093   1.547   2.331
48708SOL    HW147963   7.152   1.620   2.345
48708SOL    HW247964   7.007   1.581   2.356
48709SOL     OW47965   3.356   2.003   3.186
48709SOL    HW147966   3.446   1.976   3.167
48709SOL    HW247967   3.308   1.985   3.105
48710SOL     OW47968   2.127   7.897   9.725
48710SOL    HW147969   2.175   7.860   9.651
48710SOL    HW247970   2.095   7.982   9.694
48711SOL     OW47971   5.219  12.767  11.310
48711SOL    HW147972   5.185  12.793  11.396
48711SOL    HW247973   5.265  12.844  11.279
48712SOL     OW47974   0.061  12.749  14.117
48712SOL    HW147975  14.862  12.812  14.119
48712SOL    HW247976   0.034  12.680  14.178
48713SOL     OW47977  12.100   9.440  12.597
48713SOL    HW147978  12.192   9.426  12.619
48713SOL    HW247979  12.088   9.394  12.514
48714SOL     OW47980   2.799   4.926   9.000
48714SOL    HW147981   2.813   4.935   8.906
48714SOL    HW247982   2.803   4.832   9.016
48715SOL     OW47983   2.220  14.149   8.424
48715SOL    HW147984   2.314  14.135   8.413
48715SOL    HW247985   2.213  14.228   8.477
48716SOL     OW47986   2.883  11.023   2.170
48716SOL    HW147987   2.940  11.098   2.155
48716SOL    HW247988   2.941  10.955   2.205
48717SOL     OW47989   6.103   9.419   0.302
48717SOL    HW147990   6.189   9.458   0.319
48717SOL    HW247991   6.070   9.396   0.389
48718SOL     OW47992  14.247   5.940   4.157
48718SOL    HW147993  14.287   5.969   4.074
48718SOL    HW247994  14.275   6.006   4.221
48719SOL     OW47995   9.963  14.228  11.510
48719SOL    HW147996   9.971  14.289  11.437
48719SOL    HW247997   9.879  14.184  11.496
48720SOL     OW47998  13.763  10.512   7.258
48720SOL    HW147999  13.690  10.455   7.237
48720SOL    HW248000  13.727  10.576   7.319
48721SOL     OW48001  14.315   0.404   3.190
48721SOL    HW148002  14.226   0.400   3.223
48721SOL    HW248003  14.350   0.316   3.207
48722SOL     OW48004   0.152   9.143  14.533
48722SOL    HW148005   0.118   9.197  14.462
48722SOL    HW248006   0.104   9.060  14.527
48723SOL     OW48007   1.757   5.213   8.536
48723SOL    HW148008   1.735   5.234   8.627
48723SOL    HW248009   1.821   5.279   8.511
48724SOL     OW48010  14.384   4.841   8.329
48724SOL    HW148011  14.298   4.803   8.346
48724SOL    HW248012  14.375   4.932   8.355
48725SOL     OW48013   6.410   4.326   7.328
48725SOL    HW148014   6.465   4.343   7.404
48725SOL    HW248015   6.404   4.411   7.284
48726SOL     OW48016   7.719   0.090   7.767
48726SOL    HW148017   7.693   0.025   7.832
48726SOL    HW248018   7.638   0.139   7.749
48727SOL     OW48019   2.274   3.932  10.934
48727SOL    HW148020   2.258   3.905  10.844
48727SOL    HW248021   2.269   3.852  10.985
48728SOL     OW48022  11.041   4.886  14.773
48728SOL    HW148023  11.084   4.807  14.741
48728SOL    HW248024  11.057   4.885  14.867
48729SOL     OW48025  13.491   9.366   5.014
48729SOL    HW148026  13.544   9.300   4.970
48729SOL    HW248027  13.542   9.392   5.090
48730SOL     OW48028   7.217   0.353   9.275
48730SOL    HW148029   7.231   0.338   9.182
48730SOL    HW248030   7.262   0.435   9.294
48731SOL     OW48031   9.289   8.835  13.303
48731SOL    HW148032   9.352   8.853  13.372
48731SOL    HW248033   9.237   8.915  13.296
48732SOL     OW48034   2.487  14.237   8.081
48732SOL    HW148035   2.392  14.223   8.082
48732SOL    HW248036   2.498  14.328   8.055
48733SOL     OW48037   9.453   4.115   6.796
48733SOL    HW148038   9.378   4.110   6.737
48733SOL    HW248039   9.490   4.027   6.795
48734SOL     OW48040   9.160   2.692   1.709
48734SOL    HW148041   9.160   2.605   1.670
48734SOL    HW248042   9.239   2.694   1.763
48735SOL     OW48043   3.939   3.269  11.960
48735SOL    HW148044   3.939   3.293  11.868
48735SOL    HW248045   4.024   3.228  11.975
48736SOL     OW48046   2.643   2.540   7.045
48736SOL    HW148047   2.694   2.584   6.977
48736SOL    HW248048   2.693   2.462   7.066
48737SOL     OW48049  14.143   4.051   7.672
48737SOL    HW148050  14.100   4.069   7.756
48737SOL    HW248051  14.083   3.994   7.625
48738SOL     OW48052   0.705  14.209   8.816
48738SOL    HW148053   0.644  14.144   8.781
48738SOL    HW248054   0.729  14.263   8.741
48739SOL     OW48055  14.428  10.851   8.294
48739SOL    HW148056  14.332  10.847   8.286
48739SOL    HW248057  14.457  10.888   8.210
48740SOL     OW48058   2.865  11.932   9.136
48740SOL    HW148059   2.831  12.019   9.119
48740SOL    HW248060   2.956  11.936   9.108
48741SOL     OW48061  13.164  11.697   2.247
48741SOL    HW148062  13.147  11.775   2.299
48741SOL    HW248063  13.195  11.730   2.163
48742SOL     OW48064  12.694  13.876   9.480
48742SOL    HW148065  12.772  13.821   9.472
48742SOL    HW248066  12.637  13.848   9.408
48743SOL     OW48067   0.039   4.259  10.644
48743SOL    HW148068   0.019   4.257  10.738
48743SOL    HW248069   0.124   4.216  10.637
48744SOL     OW48070  13.345  12.738   7.342
48744SOL    HW148071  13.345  12.643   7.337
48744SOL    HW248072  13.294  12.758   7.421
48745SOL     OW48073   7.791   1.016  11.481
48745SOL    HW148074   7.855   0.946  11.494
48745SOL    HW248075   7.802   1.073  11.557
48746SOL     OW48076   5.766   3.155   7.832
48746SOL    HW148077   5.684   3.138   7.785
48746SOL    HW248078   5.806   3.227   7.784
48747SOL     OW48079   5.481   5.453   5.230
48747SOL    HW148080   5.399   5.472   5.275
48747SOL    HW248081   5.529   5.396   5.291
48748SOL     OW48082   4.147   5.829   4.196
48748SOL    HW148083   4.192   5.893   4.251
48748SOL    HW248084   4.087   5.784   4.256
48749SOL     OW48085   8.484   1.944  10.146
48749SOL    HW148086   8.444   1.942  10.233
48749SOL    HW248087   8.433   1.882  10.095
48750SOL     OW48088   7.061   2.905   6.959
48750SOL    HW148089   7.073   2.979   6.899
48750SOL    HW248090   7.102   2.933   7.040
48751SOL     OW48091  11.147   4.296  11.846
48751SOL    HW148092  11.090   4.350  11.901
48751SOL    HW248093  11.092   4.222  11.821
48752SOL     OW48094   7.910  13.396   4.122
48752SOL    HW148095   7.958  13.318   4.092
48752SOL    HW248096   7.820  13.381   4.091
48753SOL     OW48097  13.965  11.476  10.037
48753SOL    HW148098  13.931  11.391  10.066
48753SOL    HW248099  13.887  11.531  10.027
48754SOL     OW48100  13.970   3.349   6.231
48754SOL    HW148101  14.038   3.327   6.294
48754SOL    HW248102  13.957   3.268   6.181
48755SOL     OW48103   3.549   3.433   7.720
48755SOL    HW148104   3.610   3.363   7.744
48755SOL    HW248105   3.581   3.509   7.769
48756SOL     OW48106   1.038  12.353   2.343
48756SOL    HW148107   1.027  12.289   2.414
48756SOL    HW248108   1.034  12.438   2.386
48757SOL     OW48109   4.427  11.543   5.756
48757SOL    HW148110   4.388  11.456   5.755
48757SOL    HW248111   4.409  11.579   5.669
48758SOL     OW48112   3.022   2.322   7.334
48758SOL    HW148113   3.030   2.282   7.420
48758SOL    HW248114   3.015   2.416   7.352
48759SOL     OW48115   1.260   2.565  13.191
48759SOL    HW148116   1.269   2.520  13.106
48759SOL    HW248117   1.224   2.651  13.169
48760SOL     OW48118   3.736   4.243   3.305
48760SOL    HW148119   3.809   4.302   3.289
48760SOL    HW248120   3.720   4.201   3.221
48761SOL     OW48121  11.546   5.607   8.626
48761SOL    HW148122  11.641   5.615   8.618
48761SOL    HW248123  11.514   5.600   8.536
48762SOL     OW48124   1.520   1.294  12.503
48762SOL    HW148125   1.518   1.228  12.573
48762SOL    HW248126   1.611   1.322  12.499
48763SOL     OW48127  14.076  14.750  10.827
48763SOL    HW148128  14.131  14.686  10.782
48763SOL    HW248129  14.029  14.701  10.893
48764SOL     OW48130   5.261   2.397  10.720
48764SOL    HW148131   5.272   2.304  10.700
48764SOL    HW248132   5.202   2.429  10.652
48765SOL     OW48133  12.858   6.750   4.368
48765SOL    HW148134  12.844   6.802   4.289
48765SOL    HW248135  12.950   6.762   4.389
48766SOL     OW48136   8.839   6.498   2.733
48766SOL    HW148137   8.873   6.538   2.652
48766SOL    HW248138   8.900   6.527   2.801
48767SOL     OW48139   3.512   9.820  14.635
48767SOL    HW148140   3.525   9.899  14.687
48767SOL    HW248141   3.424   9.830  14.599
48768SOL     OW48142   6.201   9.923  10.842
48768SOL    HW148143   6.254   9.910  10.764
48768SOL    HW248144   6.237   9.862  10.907
48769SOL     OW48145   6.706  13.014  10.410
48769SOL    HW148146   6.611  13.018  10.401
48769SOL    HW248147   6.736  13.102  10.385
48770SOL     OW48148  12.122   1.978   0.051
48770SOL    HW148149  12.129   2.074   0.046
48770SOL    HW248150  12.193   1.946  14.869
48771SOL     OW48151   7.876   2.239   8.822
48771SOL    HW148152   7.790   2.203   8.801
48771SOL    HW248153   7.873   2.254   8.916
48772SOL     OW48154   0.213  11.575   2.080
48772SOL    HW148155   0.239  11.608   1.994
48772SOL    HW248156   0.255  11.634   2.143
48773SOL     OW48157  13.359  13.221   3.270
48773SOL    HW148158  13.336  13.225   3.177
48773SOL    HW248159  13.307  13.149   3.305
48774SOL     OW48160   0.920  10.482   5.666
48774SOL    HW148161   0.903  10.394   5.699
48774SOL    HW248162   0.871  10.539   5.725
48775SOL     OW48163   6.398  13.688   3.930
48775SOL    HW148164   6.451  13.638   3.992
48775SOL    HW248165   6.455  13.697   3.853
48776SOL     OW48166   5.892   7.795   6.477
48776SOL    HW148167   5.812   7.772   6.523
48776SOL    HW248168   5.958   7.733   6.508
48777SOL     OW48169  11.850   6.006   1.335
48777SOL    HW148170  11.826   6.094   1.363
48777SOL    HW248171  11.934   5.989   1.378
48778SOL     OW48172   2.200   9.335  13.329
48778SOL    HW148173   2.157   9.256  13.363
48778SOL    HW248174   2.291   9.308  13.314
48779SOL     OW48175   9.257  10.321  10.650
48779SOL    HW148176   9.338  10.307  10.600
48779SOL    HW248177   9.248  10.243  10.704
48780SOL     OW48178   7.104  10.129   1.484
48780SOL    HW148179   7.124  10.184   1.560
48780SOL    HW248180   7.022  10.086   1.506
48781SOL     OW48181   9.318   4.539  12.690
48781SOL    HW148182   9.238   4.488  12.680
48781SOL    HW248183   9.289   4.626  12.717
48782SOL     OW48184   4.817   1.902   8.716
48782SOL    HW148185   4.892   1.849   8.742
48782SOL    HW248186   4.803   1.879   8.624
48783SOL     OW48187   7.717  11.342   9.087
48783SOL    HW148188   7.638  11.324   9.036
48783SOL    HW248189   7.720  11.272   9.152
48784SOL     OW48190   1.393   3.309   4.598
48784SOL    HW148191   1.485   3.298   4.576
48784SOL    HW248192   1.363   3.221   4.623
48785SOL     OW48193   2.721   6.333   5.157
48785SOL    HW148194   2.814   6.357   5.165
48785SOL    HW248195   2.679   6.376   5.232
48786SOL     OW48196   4.583   3.031   1.839
48786SOL    HW148197   4.511   3.022   1.777
48786SOL    HW248198   4.652   3.077   1.790
48787SOL     OW48199   7.605  12.676  10.518
48787SOL    HW148200   7.621  12.672  10.612
48787SOL    HW248201   7.619  12.768  10.495
48788SOL     OW48202   5.434   0.975   1.309
48788SOL    HW148203   5.345   0.955   1.337
48788SOL    HW248204   5.452   1.062   1.345
48789SOL     OW48205  12.112   8.033  11.260
48789SOL    HW148206  12.188   8.076  11.222
48789SOL    HW248207  12.048   8.031  11.189
48790SOL     OW48208   7.890   2.564   1.763
48790SOL    HW148209   7.958   2.544   1.698
48790SOL    HW248210   7.929   2.538   1.846
48791SOL     OW48211   7.627   2.008  14.753
48791SOL    HW148212   7.615   1.924  14.797
48791SOL    HW248213   7.581   2.071  14.809
48792SOL     OW48214  10.997   8.945  11.869
48792SOL    HW148215  10.929   8.998  11.911
48792SOL    HW248216  11.078   8.994  11.884
48793SOL     OW48217   6.181   1.666   2.578
48793SOL    HW148218   6.199   1.756   2.602
48793SOL    HW248219   6.165   1.669   2.484
48794SOL     OW48220   6.600   2.592  13.284
48794SOL    HW148221   6.547   2.671  13.287
48794SOL    HW248222   6.662   2.603  13.356
48795SOL     OW48223  12.248   0.742   1.699
48795SOL    HW148224  12.204   0.694   1.628
48795SOL    HW248225  12.176   0.780   1.750
48796SOL     OW48226   6.493  14.783  14.271
48796SOL    HW148227   6.487   0.000  14.299
48796SOL    HW248228   6.585  14.772  14.246
48797SOL     OW48229  11.654   4.664   0.876
48797SOL    HW148230  11.709   4.592   0.845
48797SOL    HW248231  11.584   4.670   0.811
48798SOL     OW48232   1.237  14.208   4.780
48798SOL    HW148233   1.300  14.212   4.852
48798SOL    HW248234   1.206  14.298   4.770
48799SOL     OW48235   5.873   6.510   1.867
48799SOL    HW148236   5.790   6.523   1.822
48799SOL    HW248237   5.868   6.566   1.944
48800SOL     OW48238  13.426  11.295   1.046
48800SOL    HW148239  13.380  11.306   1.129
48800SOL    HW248240  13.489  11.367   1.044
48801SOL     OW48241  13.571  14.412  12.681
48801SOL    HW148242  13.587  14.321  12.656
48801SOL    HW248243  13.477  14.416  12.697
48802SOL     OW48244  13.289   6.707  12.527
48802SOL    HW148245  13.295   6.652  12.605
48802SOL    HW248246  13.270   6.646  12.456
48803SOL     OW48247   9.086  11.902   9.581
48803SOL    HW148248   9.164  11.955   9.563
48803SOL    HW248249   9.040  11.898   9.497
48804SOL     OW48250   2.258  12.468   8.050
48804SOL    HW148251   2.304  12.478   8.134
48804SOL    HW248252   2.274  12.377   8.025
48805SOL     OW48253   9.157   2.436   6.317
48805SOL    HW148254   9.079   2.488   6.334
48805SOL    HW248255   9.124   2.351   6.289
48806SOL     OW48256   3.203   1.537  10.947
48806SOL    HW148257   3.133   1.494  10.897
48806SOL    HW248258   3.202   1.492  11.032
48807SOL     OW48259   1.294  10.684   0.141
48807SOL    HW148260   1.321  10.772   0.114
48807SOL    HW248261   1.224  10.661   0.081
48808SOL     OW48262   7.597  10.197   4.876
48808SOL    HW148263   7.513  10.242   4.864
48808SOL    HW248264   7.573  10.106   4.896
48809SOL     OW48265   0.570   6.078   7.895
48809SOL    HW148266   0.502   6.011   7.889
48809SOL    HW248267   0.577   6.097   7.989
48810SOL     OW48268   2.048  14.178  14.459
48810SOL    HW148269   1.987  14.251  14.468
48810SOL    HW248270   2.108  14.188  14.533
48811SOL     OW48271   7.623   9.980   9.450
48811SOL    HW148272   7.674   9.903   9.474
48811SOL    HW248273   7.555   9.947   9.391
48812SOL     OW48274  13.156  12.113   5.547
48812SOL    HW148275  13.164  12.176   5.619
48812SOL    HW248276  13.170  12.166   5.468
48813SOL     OW48277   2.474  14.196   6.895
48813SOL    HW148278   2.506  14.145   6.821
48813SOL    HW248279   2.490  14.140   6.971
48814SOL     OW48280   4.013   3.916  13.811
48814SOL    HW148281   4.047   3.984  13.753
48814SOL    HW248282   3.931   3.888  13.771
48815SOL     OW48283   4.654   3.919  10.280
48815SOL    HW148284   4.690   3.894  10.365
48815SOL    HW248285   4.650   4.015  10.283
48816SOL     OW48286  10.671   0.494   5.255
48816SOL    HW148287  10.717   0.528   5.332
48816SOL    HW248288  10.731   0.429   5.218
48817SOL     OW48289   5.514   7.972   0.196
48817SOL    HW148290   5.519   8.048   0.137
48817SOL    HW248291   5.578   7.991   0.265
48818SOL     OW48292   0.807  13.932   7.573
48818SOL    HW148293   0.877  13.927   7.638
48818SOL    HW248294   0.825  14.011   7.523
48819SOL     OW48295   6.854   8.698   1.862
48819SOL    HW148296   6.768   8.678   1.899
48819SOL    HW248297   6.841   8.692   1.768
48820SOL     OW48298   5.592   4.998  11.154
48820SOL    HW148299   5.668   5.015  11.209
48820SOL    HW248300   5.590   4.902  11.146
48821SOL     OW48301  13.975   1.253  11.174
48821SOL    HW148302  13.929   1.337  11.171
48821SOL    HW248303  14.049   1.265  11.114
48822SOL     OW48304   1.562  12.460   9.729
48822SOL    HW148305   1.506  12.538   9.733
48822SOL    HW248306   1.589  12.445   9.819
48823SOL     OW48307   0.544   2.296   6.300
48823SOL    HW148308   0.494   2.251   6.369
48823SOL    HW248309   0.484   2.300   6.226
48824SOL     OW48310   9.114   7.261   0.586
48824SOL    HW148311   9.086   7.244   0.496
48824SOL    HW248312   9.195   7.310   0.576
48825SOL     OW48313   4.806   2.641   9.039
48825SOL    HW148314   4.898   2.631   9.012
48825SOL    HW248315   4.800   2.593   9.121
48826SOL     OW48316  13.255   5.928   5.970
48826SOL    HW148317  13.268   5.953   5.879
48826SOL    HW248318  13.322   5.977   6.018
48827SOL     OW48319   1.488   8.565   3.374
48827SOL    HW148320   1.433   8.634   3.338
48827SOL    HW248321   1.432   8.487   3.372
48828SOL     OW48322   5.804   3.900  11.063
48828SOL    HW148323   5.763   3.965  11.007
48828SOL    HW248324   5.731   3.853  11.103
48829SOL     OW48325   4.382   1.523   5.809
48829SOL    HW148326   4.305   1.516   5.866
48829SOL    HW248327   4.350   1.494   5.723
48830SOL     OW48328  13.682   5.070   6.098
48830SOL    HW148329  13.621   5.063   6.024
48830SOL    HW248330  13.648   5.143   6.150
48831SOL     OW48331   2.018   1.439   8.601
48831SOL    HW148332   1.955   1.466   8.534
48831SOL    HW248333   1.995   1.491   8.678
48832SOL     OW48334  11.696   6.441   2.490
48832SOL    HW148335  11.618   6.456   2.437
48832SOL    HW248336  11.665   6.446   2.580
48833SOL     OW48337   1.334   4.089   5.779
48833SOL    HW148338   1.400   4.078   5.711
48833SOL    HW248339   1.378   4.140   5.847
48834SOL     OW48340   1.361   9.427   2.574
48834SOL    HW148341   1.312   9.413   2.655
48834SOL    HW248342   1.371   9.339   2.537
48835SOL     OW48343  10.165  10.045   2.901
48835SOL    HW148344  10.135  10.113   2.841
48835SOL    HW248345  10.216   9.985   2.846
48836SOL     OW48346   7.050   8.495   7.084
48836SOL    HW148347   7.042   8.545   7.003
48836SOL    HW248348   7.072   8.407   7.055
48837SOL     OW48349  13.665   5.250   2.079
48837SOL    HW148350  13.716   5.195   2.139
48837SOL    HW248351  13.726   5.273   2.009
48838SOL     OW48352   6.450  12.255   0.425
48838SOL    HW148353   6.516  12.324   0.425
48838SOL    HW248354   6.492  12.181   0.469
48839SOL     OW48355   2.101   0.234   2.285
48839SOL    HW148356   2.074   0.326   2.292
48839SOL    HW248357   2.197   0.237   2.284
48840SOL     OW48358  10.114  11.862   6.610
48840SOL    HW148359  10.182  11.813   6.564
48840SOL    HW248360  10.040  11.864   6.550
48841SOL     OW48361  10.658   0.161   1.919
48841SOL    HW148362  10.655   0.094   1.852
48841SOL    HW248363  10.734   0.215   1.896
48842SOL     OW48364   6.799   7.312  13.120
48842SOL    HW148365   6.885   7.335  13.085
48842SOL    HW248366   6.801   7.216  13.125
48843SOL     OW48367  14.292   0.935   9.756
48843SOL    HW148368  14.263   0.855   9.713
48843SOL    HW248369  14.276   1.005   9.692
48844SOL     OW48370  14.613  13.274   0.952
48844SOL    HW148371  14.533  13.242   0.912
48844SOL    HW248372  14.591  13.287   1.044
48845SOL     OW48373  14.429  13.395   2.541
48845SOL    HW148374  14.335  13.388   2.528
48845SOL    HW248375  14.463  13.309   2.516
48846SOL     OW48376  13.964  13.441   3.320
48846SOL    HW148377  14.033  13.499   3.353
48846SOL    HW248378  13.925  13.489   3.247
48847SOL     OW48379   6.555   9.461  10.903
48847SOL    HW148380   6.574   9.460  10.997
48847SOL    HW248381   6.464   9.491  10.898
48848SOL     OW48382  10.654   1.995   3.540
48848SOL    HW148383  10.680   1.915   3.587
48848SOL    HW248384  10.737   2.039   3.521
48849SOL     OW48385   9.561  14.108   3.694
48849SOL    HW148386   9.616  14.157   3.755
48849SOL    HW248387   9.477  14.099   3.740
48850SOL     OW48388   6.325  11.489   9.801
48850SOL    HW148389   6.283  11.428   9.739
48850SOL    HW248390   6.313  11.448   9.886
48851SOL     OW48391   5.974   6.857   4.720
48851SOL    HW148392   5.980   6.858   4.624
48851SOL    HW248393   5.914   6.786   4.740
48852SOL     OW48394   5.115  10.609   8.982
48852SOL    HW148395   5.048  10.617   8.914
48852SOL    HW248396   5.182  10.672   8.956
48853SOL     OW48397   2.810   8.269   2.565
48853SOL    HW148398   2.904   8.284   2.573
48853SOL    HW248399   2.771   8.321   2.635
48854SOL     OW48400   3.282   8.547   9.034
48854SOL    HW148401   3.263   8.524   9.125
48854SOL    HW248402   3.253   8.638   9.026
48855SOL     OW48403  13.434   1.093  12.430
48855SOL    HW148404  13.447   1.186  12.443
48855SOL    HW248405  13.362   1.070  12.488
48856SOL     OW48406   0.329   9.604   0.181
48856SOL    HW148407   0.281   9.679   0.145
48856SOL    HW248408   0.419   9.635   0.189
48857SOL     OW48409   3.677   0.824   3.039
48857SOL    HW148410   3.667   0.877   3.119
48857SOL    HW248411   3.648   0.737   3.065
48858SOL     OW48412   0.048   0.663   0.031
48858SOL    HW148413  14.829   0.668   0.053
48858SOL    HW248414   0.050   0.642  14.812
48859SOL     OW48415   9.263   1.994   9.005
48859SOL    HW148416   9.244   1.919   9.062
48859SOL    HW248417   9.332   2.042   9.050
48860SOL     OW48418   4.568  10.829   4.026
48860SOL    HW148419   4.552  10.909   4.076
48860SOL    HW248420   4.636  10.782   4.075
48861SOL     OW48421   7.410   0.129   7.216
48861SOL    HW148422   7.476   0.137   7.148
48861SOL    HW248423   7.417   0.209   7.267
48862SOL     OW48424   2.276   8.109   1.381
48862SOL    HW148425   2.241   8.084   1.295
48862SOL    HW248426   2.371   8.106   1.369
48863SOL     OW48427   2.930  12.612  11.463
48863SOL    HW148428   2.888  12.698  11.460
48863SOL    HW248429   2.869  12.554  11.419
48864SOL     OW48430   4.207  12.768   7.950
48864SOL    HW148431   4.206  12.848   7.898
48864SOL    HW248432   4.127  12.721   7.924
48865SOL     OW48433   0.977   8.904  12.351
48865SOL    HW148434   0.991   8.814  12.321
48865SOL    HW248435   0.964   8.954  12.270
48866SOL     OW48436   4.354   3.698  14.483
48866SOL    HW148437   4.274   3.668  14.439
48866SOL    HW248438   4.381   3.774  14.432
48867SOL     OW48439  12.772   7.243   9.420
48867SOL    HW148440  12.680   7.222   9.410
48867SOL    HW248441  12.774   7.314   9.485
48868SOL     OW48442   2.655   3.457  14.262
48868SOL    HW148443   2.713   3.422  14.329
48868SOL    HW248444   2.659   3.393  14.191
48869SOL     OW48445   5.306   0.591  11.572
48869SOL    HW148446   5.396   0.604  11.545
48869SOL    HW248447   5.311   0.576  11.666
48870SOL     OW48448   4.750   7.801   4.502
48870SOL    HW148449   4.705   7.870   4.550
48870SOL    HW248450   4.739   7.723   4.555
48871SOL     OW48451  10.131   5.703   7.343
48871SOL    HW148452  10.105   5.613   7.362
48871SOL    HW248453  10.224   5.698   7.322
48872SOL     OW48454  12.453   4.275  12.128
48872SOL    HW148455  12.438   4.268  12.222
48872SOL    HW248456  12.391   4.342  12.099
48873SOL     OW48457  12.130   2.418   6.368
48873SOL    HW148458  12.219   2.424   6.332
48873SOL    HW248459  12.083   2.490   6.326
48874SOL     OW48460  11.543   6.313   1.530
48874SOL    HW148461  11.535   6.322   1.625
48874SOL    HW248462  11.552   6.403   1.497
48875SOL     OW48463   6.507   6.724  14.462
48875SOL    HW148464   6.509   6.629  14.469
48875SOL    HW248465   6.419   6.749  14.492
48876SOL     OW48466  11.119   9.213   3.521
48876SOL    HW148467  11.043   9.226   3.465
48876SOL    HW248468  11.096   9.255   3.604
48877SOL     OW48469  12.965   3.416   4.073
48877SOL    HW148470  13.022   3.366   4.132
48877SOL    HW248471  13.020   3.487   4.042
48878SOL     OW48472  13.153  14.373   4.203
48878SOL    HW148473  13.153  14.398   4.296
48878SOL    HW248474  13.240  14.398   4.172
48879SOL     OW48475   2.852   0.507  11.187
48879SOL    HW148476   2.797   0.432  11.165
48879SOL    HW248477   2.811   0.581  11.142
48880SOL     OW48478   6.557   0.973   7.779
48880SOL    HW148479   6.640   0.990   7.733
48880SOL    HW248480   6.557   1.035   7.852
48881SOL     OW48481   8.734  10.932   2.408
48881SOL    HW148482   8.731  10.855   2.466
48881SOL    HW248483   8.711  11.005   2.465
48882SOL     OW48484  13.014  12.848  10.149
48882SOL    HW148485  12.951  12.779  10.128
48882SOL    HW248486  13.002  12.864  10.242
48883SOL     OW48487   9.018   6.593   2.978
48883SOL    HW148488   8.931   6.589   3.017
48883SOL    HW248489   9.078   6.577   3.050
48884SOL     OW48490   6.987   4.236  11.943
48884SOL    HW148491   6.976   4.155  11.893
48884SOL    HW248492   6.967   4.212  12.033
48885SOL     OW48493   0.403  11.405   0.425
48885SOL    HW148494   0.348  11.371   0.496
48885SOL    HW248495   0.340  11.447   0.365
48886SOL     OW48496   6.080  11.639  10.784
48886SOL    HW148497   6.084  11.689  10.866
48886SOL    HW248498   6.061  11.550  10.811
48887SOL     OW48499   5.899  12.595  14.677
48887SOL    HW148500   5.818  12.557  14.644
48887SOL    HW248501   5.894  12.687  14.655
48888SOL     OW48502   4.153   5.224   1.842
48888SOL    HW148503   4.217   5.263   1.783
48888SOL    HW248504   4.175   5.260   1.928
48889SOL     OW48505   5.144  12.536   1.103
48889SOL    HW148506   5.123  12.525   1.196
48889SOL    HW248507   5.219  12.596   1.102
48890SOL     OW48508   3.185   7.067   2.989
48890SOL    HW148509   3.196   7.099   2.899
48890SOL    HW248510   3.158   7.144   3.039
48891SOL     OW48511  12.894  11.591   5.474
48891SOL    HW148512  12.952  11.526   5.515
48891SOL    HW248513  12.953  11.661   5.447
48892SOL     OW48514   2.689  13.459  10.495
48892SOL    HW148515   2.782  13.485  10.494
48892SOL    HW248516   2.668  13.443  10.403
48893SOL     OW48517   1.586  14.313  12.207
48893SOL    HW148518   1.622  14.314  12.118
48893SOL    HW248519   1.506  14.260  12.200
48894SOL     OW48520   7.836   8.565   4.536
48894SOL    HW148521   7.876   8.652   4.528
48894SOL    HW248522   7.766   8.578   4.600
48895SOL     OW48523   2.375   2.754   9.853
48895SOL    HW148524   2.336   2.760   9.940
48895SOL    HW248525   2.408   2.842   9.836
48896SOL     OW48526   1.699   0.278   0.519
48896SOL    HW148527   1.734   0.320   0.441
48896SOL    HW248528   1.753   0.201   0.532
48897SOL     OW48529   0.270   7.585  13.806
48897SOL    HW148530   0.184   7.581  13.847
48897SOL    HW248531   0.254   7.562  13.714
48898SOL     OW48532   7.131   8.677   0.683
48898SOL    HW148533   7.112   8.754   0.629
48898SOL    HW248534   7.063   8.613   0.659
48899SOL     OW48535  11.656   3.952  10.360
48899SOL    HW148536  11.735   3.905  10.386
48899SOL    HW248537  11.584   3.892  10.380
48900SOL     OW48538  14.290  12.857  14.132
48900SOL    HW148539  14.212  12.913  14.134
48900SOL    HW248540  14.331  12.869  14.218
48901SOL     OW48541   1.963   3.081   6.330
48901SOL    HW148542   1.879   3.054   6.292
48901SOL    HW248543   2.022   3.007   6.313
48902SOL     OW48544   0.706   6.497   6.484
48902SOL    HW148545   0.619   6.519   6.518
48902SOL    HW248546   0.763   6.506   6.560
48903SOL     OW48547   1.371   0.608  13.822
48903SOL    HW148548   1.405   0.523  13.793
48903SOL    HW248549   1.362   0.599  13.917
48904SOL     OW48550   3.411   0.652   6.549
48904SOL    HW148551   3.376   0.738   6.527
48904SOL    HW248552   3.413   0.651   6.645
48905SOL     OW48553   0.456  10.400  13.894
48905SOL    HW148554   0.443  10.426  13.985
48905SOL    HW248555   0.452  10.482  13.844
48906SOL     OW48556   7.428  12.115   0.177
48906SOL    HW148557   7.479  12.036   0.160
48906SOL    HW248558   7.434  12.165   0.096
48907SOL     OW48559   2.047   3.452   2.190
48907SOL    HW148560   2.024   3.455   2.283
48907SOL    HW248561   1.996   3.522   2.150
48908SOL     OW48562  11.358   7.646   4.856
48908SOL    HW148563  11.369   7.645   4.951
48908SOL    HW248564  11.297   7.718   4.839
48909SOL     OW48565   2.781   6.943   6.154
48909SOL    HW148566   2.692   6.912   6.143
48909SOL    HW248567   2.794   6.946   6.249
48910SOL     OW48568   3.901   0.880  12.883
48910SOL    HW148569   3.830   0.942  12.898
48910SOL    HW248570   3.939   0.866  12.970
48911SOL     OW48571   6.219   6.479  13.766
48911SOL    HW148572   6.219   6.504  13.674
48911SOL    HW248573   6.153   6.535  13.807
48912SOL     OW48574   9.854   4.011  10.442
48912SOL    HW148575   9.909   4.073  10.491
48912SOL    HW248576   9.835   4.056  10.359
48913SOL     OW48577   2.359   1.025   2.966
48913SOL    HW148578   2.345   0.934   2.942
48913SOL    HW248579   2.374   1.070   2.882
48914SOL     OW48580   7.066   1.210   1.137
48914SOL    HW148581   7.126   1.241   1.069
48914SOL    HW248582   6.990   1.268   1.131
48915SOL     OW48583  14.156   3.294  13.950
48915SOL    HW148584  14.066   3.321  13.968
48915SOL    HW248585  14.183   3.245  14.027
48916SOL     OW48586   5.181  11.338   9.755
48916SOL    HW148587   5.176  11.259   9.809
48916SOL    HW248588   5.271  11.340   9.725
48917SOL     OW48589   8.836   6.889   8.612
48917SOL    HW148590   8.800   6.945   8.543
48917SOL    HW248591   8.759   6.853   8.656
48918SOL     OW48592   1.361   0.323   9.646
48918SOL    HW148593   1.354   0.386   9.717
48918SOL    HW248594   1.304   0.357   9.577
48919SOL     OW48595   0.838  10.894   6.153
48919SOL    HW148596   0.802  10.805   6.154
48919SOL    HW248597   0.806  10.934   6.234
48920SOL     OW48598   6.620   6.611   8.416
48920SOL    HW148599   6.559   6.538   8.430
48920SOL    HW248600   6.576   6.687   8.454
48921SOL     OW48601  12.853   0.859  11.688
48921SOL    HW148602  12.773   0.821  11.724
48921SOL    HW248603  12.828   0.892  11.602
48922SOL     OW48604   5.130  14.087   5.581
48922SOL    HW148605   5.124  14.132   5.496
48922SOL    HW248606   5.175  14.005   5.561
48923SOL     OW48607  13.991   5.192   2.106
48923SOL    HW148608  13.912   5.162   2.151
48923SOL    HW248609  14.003   5.130   2.034
48924SOL     OW48610  11.882  12.550  12.870
48924SOL    HW148611  11.813  12.590  12.816
48924SOL    HW248612  11.843  12.469  12.901
48925SOL     OW48613  13.499   7.034  12.608
48925SOL    HW148614  13.538   6.975  12.671
48925SOL    HW248615  13.408   7.006  12.601
48926SOL     OW48616   9.327  14.447   8.793
48926SOL    HW148617   9.262  14.383   8.763
48926SOL    HW248618   9.408  14.397   8.802
48927SOL     OW48619  14.207   4.447  13.158
48927SOL    HW148620  14.197   4.377  13.222
48927SOL    HW248621  14.259   4.408  13.088
48928SOL     OW48622  10.294   9.565  14.563
48928SOL    HW148623  10.298   9.599  14.474
48928SOL    HW248624  10.200   9.557  14.581
48929SOL     OW48625   4.378  14.655   6.756
48929SOL    HW148626   4.435  14.609   6.693
48929SOL    HW248627   4.372  14.595   6.830
48930SOL     OW48628  10.562   2.770   4.729
48930SOL    HW148629  10.610   2.715   4.667
48930SOL    HW248630  10.630   2.817   4.777
48931SOL     OW48631  14.491   5.164  11.264
48931SOL    HW148632  14.421   5.214  11.306
48931SOL    HW248633  14.571   5.206  11.294
48932SOL     OW48634   9.794  10.113   7.329
48932SOL    HW148635   9.839  10.192   7.298
48932SOL    HW248636   9.726  10.097   7.264
48933SOL     OW48637  10.759   7.893   6.419
48933SOL    HW148638  10.717   7.937   6.493
48933SOL    HW248639  10.848   7.874   6.450
48934SOL     OW48640   1.285   4.758   2.961
48934SOL    HW148641   1.215   4.798   2.909
48934SOL    HW248642   1.245   4.681   3.000
48935SOL     OW48643  10.206   5.559   5.673
48935SOL    HW148644  10.164   5.599   5.749
48935SOL    HW248645  10.179   5.467   5.676
48936SOL     OW48646   9.771   7.206   8.612
48936SOL    HW148647   9.839   7.153   8.654
48936SOL    HW248648   9.702   7.143   8.590
48937SOL     OW48649  12.885   1.049   3.489
48937SOL    HW148650  12.871   1.125   3.432
48937SOL    HW248651  12.875   1.083   3.578
48938SOL     OW48652   1.380  10.119   1.817
48938SOL    HW148653   1.359  10.087   1.905
48938SOL    HW248654   1.445  10.057   1.783
48939SOL     OW48655  14.525   4.259  14.522
48939SOL    HW148656  14.565   4.337  14.559
48939SOL    HW248657  14.588   4.189  14.540
48940SOL     OW48658   1.708  14.655   5.120
48940SOL    HW148659   1.783  14.688   5.070
48940SOL    HW248660   1.703  14.712   5.197
48941SOL     OW48661  12.022   3.388   2.794
48941SOL    HW148662  12.088   3.456   2.779
48941SOL    HW248663  12.067   3.306   2.774
48942SOL     OW48664  14.725   2.321   8.578
48942SOL    HW148665  14.706   2.404   8.535
48942SOL    HW248666  14.707   2.337   8.670
48943SOL     OW48667   8.526  11.104   7.710
48943SOL    HW148668   8.604  11.049   7.719
48943SOL    HW248669   8.558  11.193   7.728
48944SOL     OW48670  12.626   7.061   4.322
48944SOL    HW148671  12.550   7.004   4.310
48944SOL    HW248672  12.693   7.022   4.266
48945SOL     OW48673   8.384   7.093   3.095
48945SOL    HW148674   8.406   7.122   3.183
48945SOL    HW248675   8.394   7.172   3.041
48946SOL     OW48676   6.015   0.709   8.228
48946SOL    HW148677   6.085   0.646   8.212
48946SOL    HW248678   6.020   0.726   8.322
48947SOL     OW48679   9.911  12.651  14.746
48947SOL    HW148680   9.988  12.640  14.689
48947SOL    HW248681   9.883  12.561  14.764
48948SOL     OW48682   5.361  12.996  13.657
48948SOL    HW148683   5.287  13.007  13.597
48948SOL    HW248684   5.388  13.086  13.677
48949SOL     OW48685   0.799   8.374   5.342
48949SOL    HW148686   0.782   8.467   5.355
48949SOL    HW248687   0.867   8.372   5.275
48950SOL     OW48688   2.272   6.985  12.898
48950SOL    HW148689   2.331   6.952  12.831
48950SOL    HW248690   2.213   6.912  12.917
48951SOL     OW48691  10.637   8.019  13.495
48951SOL    HW148692  10.587   7.985  13.420
48951SOL    HW248693  10.692   8.087  13.458
48952SOL     OW48694   2.823   1.300   8.904
48952SOL    HW148695   2.790   1.389   8.890
48952SOL    HW248696   2.870   1.279   8.823
48953SOL     OW48697   3.425   6.336  13.607
48953SOL    HW148698   3.403   6.242  13.608
48953SOL    HW248699   3.487   6.346  13.535
48954SOL     OW48700   9.852   3.399   1.324
48954SOL    HW148701   9.835   3.485   1.361
48954SOL    HW248702   9.865   3.415   1.231
48955SOL     OW48703   8.985  11.165   0.964
48955SOL    HW148704   8.968  11.253   0.998
48955SOL    HW248705   8.973  11.108   1.039
48956SOL     OW48706  11.696  10.300   0.780
48956SOL    HW148707  11.661  10.231   0.725
48956SOL    HW248708  11.717  10.257   0.863
48957SOL     OW48709  11.799  12.347   8.449
48957SOL    HW148710  11.704  12.336   8.452
48957SOL    HW248711  11.832  12.295   8.522
48958SOL     OW48712   5.525  10.300   2.665
48958SOL    HW148713   5.559  10.258   2.743
48958SOL    HW248714   5.563  10.388   2.666
48959SOL     OW48715   4.026  10.376   1.706
48959SOL    HW148716   4.068  10.299   1.745
48959SOL    HW248717   4.069  10.386   1.621
48960SOL     OW48718   0.366  13.244  10.778
48960SOL    HW148719   0.375  13.323  10.725
48960SOL    HW248720   0.403  13.174  10.725
48961SOL     OW48721   6.287  13.455   0.787
48961SOL    HW148722   6.294  13.480   0.879
48961SOL    HW248723   6.227  13.380   0.787
48962SOL     OW48724   5.548  12.765   9.716
48962SOL    HW148725   5.455  12.760   9.695
48962SOL    HW248726   5.582  12.678   9.695
48963SOL     OW48727  12.927   3.238   8.259
48963SOL    HW148728  13.007   3.286   8.282
48963SOL    HW248729  12.861   3.306   8.249
48964SOL     OW48730   6.851   2.543   8.218
48964SOL    HW148731   6.839   2.554   8.124
48964SOL    HW248732   6.906   2.464   8.226
48965SOL     OW48733   9.751   8.076   1.990
48965SOL    HW148734   9.713   8.044   1.908
48965SOL    HW248735   9.698   8.036   2.059
48966SOL     OW48736   9.558   1.021   0.396
48966SOL    HW148737   9.536   1.068   0.477
48966SOL    HW248738   9.628   1.074   0.356
48967SOL     OW48739  12.053   4.306  13.186
48967SOL    HW148740  12.059   4.214  13.214
48967SOL    HW248741  11.973   4.310  13.133
48968SOL     OW48742   9.909  12.300   6.546
48968SOL    HW148743   9.979  12.273   6.487
48968SOL    HW248744   9.842  12.232   6.535
48969SOL     OW48745   4.745   7.067  12.091
48969SOL    HW148746   4.694   7.109  12.022
48969SOL    HW248747   4.797   7.138  12.129
48970SOL     OW48748   5.119  14.777  13.369
48970SOL    HW148749   5.188  14.830  13.330
48970SOL    HW248750   5.079  14.731  13.296
48971SOL     OW48751  12.734  11.032  14.038
48971SOL    HW148752  12.714  11.112  13.989
48971SOL    HW248753  12.651  10.986  14.045
48972SOL     OW48754   9.807  12.897  10.712
48972SOL    HW148755   9.872  12.836  10.679
48972SOL    HW248756   9.842  12.984  10.691
48973SOL     OW48757  13.703  10.337  10.390
48973SOL    HW148758  13.671  10.411  10.339
48973SOL    HW248759  13.638  10.326  10.459
48974SOL     OW48760  13.364   3.234   7.057
48974SOL    HW148761  13.283   3.278   7.085
48974SOL    HW248762  13.363   3.241   6.961
48975SOL     OW48763   9.622  10.383   9.897
48975SOL    HW148764   9.675  10.443   9.949
48975SOL    HW248765   9.662  10.297   9.912
48976SOL     OW48766  11.262   2.875   2.560
48976SOL    HW148767  11.336   2.849   2.615
48976SOL    HW248768  11.284   2.841   2.473
48977SOL     OW48769  11.804   6.578   3.151
48977SOL    HW148770  11.751   6.647   3.110
48977SOL    HW248771  11.768   6.497   3.117
48978SOL     OW48772   8.762  13.945  12.373
48978SOL    HW148773   8.723  13.991  12.298
48978SOL    HW248774   8.706  13.969  12.447
48979SOL     OW48775   3.048   9.555   4.376
48979SOL    HW148776   3.139   9.558   4.404
48979SOL    HW248777   3.034   9.637   4.328
48980SOL     OW48778   8.267  12.925  13.485
48980SOL    HW148779   8.196  12.896  13.542
48980SOL    HW248780   8.246  12.886  13.400
48981SOL     OW48781   9.440   3.113  12.124
48981SOL    HW148782   9.506   3.135  12.059
48981SOL    HW248783   9.457   3.021  12.144
48982SOL     OW48784   0.293  14.333  12.404
48982SOL    HW148785   0.275  14.365  12.316
48982SOL    HW248786   0.288  14.411  12.460
48983SOL     OW48787  14.158   5.004  12.803
48983SOL    HW148788  14.107   4.978  12.880
48983SOL    HW248789  14.180   4.922  12.760
48984SOL     OW48790  10.209   0.952  12.128
48984SOL    HW148791  10.166   0.983  12.207
48984SOL    HW248792  10.255   1.029  12.093
48985SOL     OW48793   3.071   7.941   4.225
48985SOL    HW148794   3.136   7.935   4.155
48985SOL    HW248795   3.077   8.032   4.255
48986SOL     OW48796   6.306   0.469  12.567
48986SOL    HW148797   6.352   0.489  12.486
48986SOL    HW248798   6.235   0.533  12.571
48987SOL     OW48799   6.930   5.819   0.493
48987SOL    HW148800   6.839   5.789   0.487
48987SOL    HW248801   6.937   5.889   0.428
48988SOL     OW48802   5.591  12.036   6.077
48988SOL    HW148803   5.521  11.972   6.091
48988SOL    HW248804   5.604  12.076   6.163
48989SOL     OW48805   0.420   4.755   6.896
48989SOL    HW148806   0.353   4.695   6.929
48989SOL    HW248807   0.437   4.814   6.969
48990SOL     OW48808  13.810  12.329   5.444
48990SOL    HW148809  13.768  12.248   5.417
48990SOL    HW248810  13.802  12.331   5.539
48991SOL     OW48811  12.731   0.747   9.537
48991SOL    HW148812  12.685   0.756   9.453
48991SOL    HW248813  12.708   0.660   9.568
48992SOL     OW48814   0.390   9.811   4.897
48992SOL    HW148815   0.346   9.746   4.953
48992SOL    HW248816   0.318   9.852   4.849
48993SOL     OW48817   0.408   0.433  11.795
48993SOL    HW148818   0.492   0.451  11.836
48993SOL    HW248819   0.428   0.421  11.703
48994SOL     OW48820   0.124  12.206   4.013
48994SOL    HW148821   0.083  12.266   3.951
48994SOL    HW248822   0.198  12.255   4.048
48995SOL     OW48823   7.582   1.551   2.171
48995SOL    HW148824   7.626   1.582   2.092
48995SOL    HW248825   7.491   1.581   2.160
48996SOL     OW48826   7.897   8.136   9.593
48996SOL    HW148827   7.846   8.067   9.551
48996SOL    HW248828   7.840   8.213   9.591
48997SOL     OW48829   3.489  14.484   0.654
48997SOL    HW148830   3.509  14.396   0.623
48997SOL    HW248831   3.546  14.541   0.602
48998SOL     OW48832  10.748   5.968   7.601
48998SOL    HW148833  10.790   5.930   7.524
48998SOL    HW248834  10.713   6.052   7.569
48999SOL     OW48835  13.273   3.005  10.655
48999SOL    HW148836  13.205   2.951  10.614
48999SOL    HW248837  13.323   2.943  10.708
49000SOL     OW48838  11.173  13.358   9.170
49000SOL    HW148839  11.118  13.388   9.098
49000SOL    HW248840  11.123  13.288   9.211
49001SOL     OW48841  14.120   1.362  13.966
49001SOL    HW148842  14.101   1.352  13.872
49001SOL    HW248843  14.064   1.434  13.994
49002SOL     OW48844  13.906   4.001   1.769
49002SOL    HW148845  13.982   3.981   1.823
49002SOL    HW248846  13.843   3.932   1.789
49003SOL     OW48847   4.456  10.376  11.676
49003SOL    HW148848   4.431  10.468  11.673
49003SOL    HW248849   4.396  10.337  11.738
49004SOL     OW48850  11.060   9.805   0.009
49004SOL    HW148851  11.054   9.772   0.099
49004SOL    HW248852  10.969   9.822  14.857
49005SOL     OW48853   5.609   9.297   0.310
49005SOL    HW148854   5.596   9.205   0.334
49005SOL    HW248855   5.670   9.330   0.376
49006SOL     OW48856  11.416   3.469   7.350
49006SOL    HW148857  11.383   3.539   7.294
49006SOL    HW248858  11.377   3.389   7.314
49007SOL     OW48859   7.380  12.319  11.898
49007SOL    HW148860   7.408  12.408  11.874
49007SOL    HW248861   7.446  12.289  11.961
49008SOL     OW48862   1.965   0.418   5.493
49008SOL    HW148863   2.056   0.389   5.484
49008SOL    HW248864   1.935   0.378   5.574
49009SOL     OW48865   9.168   3.306  13.510
49009SOL    HW148866   9.256   3.301  13.475
49009SOL    HW248867   9.121   3.365  13.451
49010SOL     OW48868  12.648  14.406  11.590
49010SOL    HW148869  12.700  14.338  11.547
49010SOL    HW248870  12.662  14.484  11.536
49011SOL     OW48871   5.219   1.513  11.517
49011SOL    HW148872   5.313   1.496  11.510
49011SOL    HW248873   5.210   1.605  11.492
49012SOL     OW48874   0.935   4.672   0.287
49012SOL    HW148875   0.962   4.662   0.378
49012SOL    HW248876   1.005   4.722   0.246
49013SOL     OW48877  11.867   9.496  12.173
49013SOL    HW148878  11.949   9.542  12.190
49013SOL    HW248879  11.799   9.563  12.180
49014SOL     OW48880   8.620   3.469   3.401
49014SOL    HW148881   8.577   3.389   3.370
49014SOL    HW248882   8.595   3.475   3.493
49015SOL     OW48883  11.641  12.453   4.215
49015SOL    HW148884  11.554  12.479   4.245
49015SOL    HW248885  11.701  12.501   4.271
49016SOL     OW48886   4.893   5.607   8.157
49016SOL    HW148887   4.978   5.627   8.118
49016SOL    HW248888   4.905   5.521   8.196
49017SOL     OW48889   6.398   8.086  10.775
49017SOL    HW148890   6.400   8.181  10.780
49017SOL    HW248891   6.478   8.058  10.820
49018SOL     OW48892   2.075   0.411  10.305
49018SOL    HW148893   2.164   0.420  10.340
49018SOL    HW248894   2.032   0.348  10.364
49019SOL     OW48895   9.686  10.087   7.775
49019SOL    HW148896   9.739  10.013   7.746
49019SOL    HW248897   9.598  10.068   7.743
49020SOL     OW48898   0.738   8.307   1.729
49020SOL    HW148899   0.808   8.323   1.792
49020SOL    HW248900   0.753   8.370   1.659
49021SOL     OW48901   0.726  13.708   1.032
49021SOL    HW148902   0.635  13.701   1.003
49021SOL    HW248903   0.736  13.801   1.054
49022SOL     OW48904  10.198   0.236   3.087
49022SOL    HW148905  10.188   0.245   2.992
49022SOL    HW248906  10.287   0.203   3.099
49023SOL     OW48907   2.882   4.807   1.633
49023SOL    HW148908   2.860   4.880   1.575
49023SOL    HW248909   2.960   4.837   1.680
49024SOL     OW48910   2.042  14.127   7.032
49024SOL    HW148911   2.104  14.059   7.060
49024SOL    HW248912   1.957  14.084   7.032
49025SOL     OW48913  14.744   4.660   4.175
49025SOL    HW148914  14.752   4.586   4.115
49025SOL    HW248915  14.826   4.709   4.164
49026SOL     OW48916  10.988  11.205  14.140
49026SOL    HW148917  11.051  11.277  14.136
49026SOL    HW248918  11.033  11.136  14.189
49027SOL     OW48919  11.533   4.500   5.525
49027SOL    HW148920  11.444   4.529   5.505
49027SOL    HW248921  11.583   4.519   5.445
49028SOL     OW48922  14.001   2.188   7.163
49028SOL    HW148923  13.957   2.206   7.080
49028SOL    HW248924  13.942   2.222   7.230
49029SOL     OW48925   0.973   2.191   2.414
49029SOL    HW148926   0.879   2.208   2.420
49029SOL    HW248927   1.014   2.275   2.431
49030SOL     OW48928  12.320  13.597   7.648
49030SOL    HW148929  12.354  13.634   7.567
49030SOL    HW248930  12.306  13.505   7.628
49031SOL     OW48931   4.257   0.499  14.327
49031SOL    HW148932   4.312   0.434  14.371
49031SOL    HW248933   4.170   0.459  14.326
49032SOL     OW48934   0.028   6.021   9.580
49032SOL    HW148935   0.102   5.998   9.635
49032SOL    HW248936  14.837   6.056   9.641
49033SOL     OW48937   1.399   4.125  11.621
49033SOL    HW148938   1.422   4.041  11.661
49033SOL    HW248939   1.411   4.189  11.691
49034SOL     OW48940  14.609   6.728   6.415
49034SOL    HW148941  14.677   6.662   6.398
49034SOL    HW248942  14.635   6.803   6.361
49035SOL     OW48943  10.453   8.641   9.858
49035SOL    HW148944  10.395   8.646   9.934
49035SOL    HW248945  10.541   8.649   9.895
49036SOL     OW48946  10.742   8.507   6.400
49036SOL    HW148947  10.673   8.535   6.340
49036SOL    HW248948  10.717   8.546   6.484
49037SOL     OW48949  13.627  12.883   5.758
49037SOL    HW148950  13.539  12.906   5.726
49037SOL    HW248951  13.678  12.870   5.678
49038SOL     OW48952   9.627  12.678  14.745
49038SOL    HW148953   9.700  12.627  14.780
49038SOL    HW248954   9.555  12.615  14.737
49039SOL     OW48955   5.317   9.969   4.222
49039SOL    HW148956   5.360   9.887   4.246
49039SOL    HW248957   5.389  10.026   4.194
49040SOL     OW48958  12.301   2.047   3.239
49040SOL    HW148959  12.233   2.004   3.188
49040SOL    HW248960  12.287   2.140   3.225
49041SOL     OW48961   3.281   7.191  12.974
49041SOL    HW148962   3.298   7.114  13.028
49041SOL    HW248963   3.189   7.183  12.949
49042SOL     OW48964   4.958   9.399  14.784
49042SOL    HW148965   5.031   9.460  14.798
49042SOL    HW248966   4.999   9.321  14.747
49043SOL     OW48967   5.000   0.854   4.406
49043SOL    HW148968   5.040   0.791   4.466
49043SOL    HW248969   4.983   0.931   4.461
49044SOL     OW48970   4.646   8.624   9.066
49044SOL    HW148971   4.623   8.533   9.047
49044SOL    HW248972   4.740   8.622   9.084
49045SOL     OW48973  14.806   0.928  10.139
49045SOL    HW148974  14.755   0.981  10.201
49045SOL    HW248975  14.809   0.981  10.060
49046SOL     OW48976  14.453   7.487   5.268
49046SOL    HW148977  14.401   7.419   5.227
49046SOL    HW248978  14.535   7.488   5.219
49047SOL     OW48979  10.922   5.224  13.402
49047SOL    HW148980  10.999   5.261  13.358
49047SOL    HW248981  10.860   5.206  13.332
49048SOL     OW48982   5.441  13.242  13.429
49048SOL    HW148983   5.531  13.212  13.437
49048SOL    HW248984   5.405  13.235  13.518
49049SOL     OW48985  11.854   4.787   3.881
49049SOL    HW148986  11.907   4.826   3.951
49049SOL    HW248987  11.788   4.854   3.862
49050SOL     OW48988   5.210  12.645   9.038
49050SOL    HW148989   5.274  12.587   9.081
49050SOL    HW248990   5.190  12.601   8.955
49051SOL     OW48991   9.251  13.878  12.472
49051SOL    HW148992   9.293  13.963  12.479
49051SOL    HW248993   9.159  13.898  12.453
49052SOL     OW48994  10.090   6.024   2.711
49052SOL    HW148995  10.164   6.085   2.704
49052SOL    HW248996  10.120   5.945   2.666
49053SOL     OW48997   5.259  10.605   1.986
49053SOL    HW148998   5.204  10.683   1.982
49053SOL    HW248999   5.348  10.638   1.997
49054SOL     OW49000   7.860   1.606   5.298
49054SOL    HW149001   7.817   1.542   5.354
49054SOL    HW249002   7.789   1.662   5.267
49055SOL     OW49003   9.807   2.679   1.557
49055SOL    HW149004   9.747   2.622   1.509
49055SOL    HW249005   9.804   2.762   1.509
49056SOL     OW49006   6.034  10.834   6.019
49056SOL    HW149007   5.984  10.753   6.013
49056SOL    HW249008   6.055  10.841   6.112
49057SOL     OW49009   5.795   6.981   0.979
49057SOL    HW149010   5.704   6.959   0.998
49057SOL    HW249011   5.794   7.076   0.965
49058SOL     OW49012   4.864   3.933   3.368
49058SOL    HW149013   4.772   3.928   3.340
49058SOL    HW249014   4.870   3.870   3.440
49059SOL     OW49015  12.618   3.490   4.644
49059SOL    HW149016  12.598   3.396   4.646
49059SOL    HW249017  12.654   3.508   4.731
49060SOL     OW49018   7.516  11.732  10.882
49060SOL    HW149019   7.505  11.815  10.835
49060SOL    HW249020   7.445  11.678  10.850
49061SOL     OW49021   1.125  10.798  13.171
49061SOL    HW149022   1.167  10.813  13.087
49061SOL    HW249023   1.032  10.787  13.151
49062SOL     OW49024   9.058   2.747  11.947
49062SOL    HW149025   9.110   2.812  11.994
49062SOL    HW249026   8.968   2.780  11.951
49063SOL     OW49027   1.486   6.600  13.939
49063SOL    HW149028   1.498   6.689  13.973
49063SOL    HW249029   1.575   6.567  13.926
49064SOL     OW49030   8.620   5.286  12.542
49064SOL    HW149031   8.670   5.205  12.530
49064SOL    HW249032   8.551   5.282  12.475
49065SOL     OW49033   2.699   9.612   3.799
49065SOL    HW149034   2.687   9.571   3.713
49065SOL    HW249035   2.786   9.652   3.795
49066SOL     OW49036   2.061  13.849  11.330
49066SOL    HW149037   2.108  13.769  11.305
49066SOL    HW249038   1.973  13.838  11.292
49067SOL     OW49039   2.687   4.058   6.444
49067SOL    HW149040   2.648   4.056   6.357
49067SOL    HW249041   2.746   4.133   6.443
49068SOL     OW49042   2.648   4.743   4.280
49068SOL    HW149043   2.697   4.665   4.255
49068SOL    HW249044   2.663   4.805   4.209
49069SOL     OW49045   0.802   5.676  13.551
49069SOL    HW149046   0.860   5.752  13.547
49069SOL    HW249047   0.735   5.701  13.616
49070SOL     OW49048   6.311   8.893  11.084
49070SOL    HW149049   6.283   8.962  11.144
49070SOL    HW249050   6.285   8.811  11.128
49071SOL     OW49051   4.161   4.394   2.898
49071SOL    HW149052   4.076   4.437   2.901
49071SOL    HW249053   4.142   4.307   2.861
49072SOL     OW49054   7.586   9.460   7.142
49072SOL    HW149055   7.592   9.375   7.098
49072SOL    HW249056   7.630   9.447   7.226
49073SOL     OW49057   9.163   0.419  10.219
49073SOL    HW149058   9.180   0.331  10.187
49073SOL    HW249059   9.086   0.448  10.171
49074SOL     OW49060   9.483   7.196  14.174
49074SOL    HW149061   9.549   7.128  14.178
49074SOL    HW249062   9.443   7.185  14.087
49075SOL     OW49063   7.958   5.220  14.572
49075SOL    HW149064   8.027   5.159  14.547
49075SOL    HW249065   7.981   5.302  14.528
49076SOL     OW49066   3.344  13.495   4.370
49076SOL    HW149067   3.383  13.408   4.378
49076SOL    HW249068   3.284  13.488   4.296
49077SOL     OW49069   7.201   4.576   2.873
49077SOL    HW149070   7.152   4.656   2.851
49077SOL    HW249071   7.244   4.551   2.792
49078SOL     OW49072   4.629   2.149  13.776
49078SOL    HW149073   4.554   2.104  13.737
49078SOL    HW249074   4.656   2.092  13.848
49079SOL     OW49075   8.408  10.696  12.084
49079SOL    HW149076   8.438  10.654  12.165
49079SOL    HW249077   8.346  10.634  12.047
49080SOL     OW49078   4.502   8.478  10.836
49080SOL    HW149079   4.469   8.567  10.848
49080SOL    HW249080   4.475   8.454  10.748
49081SOL     OW49081   3.985   5.615   7.489
49081SOL    HW149082   4.022   5.571   7.566
49081SOL    HW249083   4.012   5.706   7.499
49082SOL     OW49084   3.215   1.043  14.765
49082SOL    HW149085   3.214   0.983  14.840
49082SOL    HW249086   3.228   0.986  14.689
49083SOL     OW49087   3.681   6.581  14.871
49083SOL    HW149088   3.722   6.567  14.785
49083SOL    HW249089   3.651   6.494   0.023
49084SOL     OW49090   8.540   6.611   0.957
49084SOL    HW149091   8.564   6.537   1.013
49084SOL    HW249092   8.557   6.580   0.868
49085SOL     OW49093   6.945  10.845   6.975
49085SOL    HW149094   6.866  10.791   6.973
49085SOL    HW249095   7.001  10.808   6.907
49086SOL     OW49096   1.759   0.454   7.817
49086SOL    HW149097   1.770   0.542   7.854
49086SOL    HW249098   1.736   0.400   7.892
49087SOL     OW49099   5.895   8.326   3.572
49087SOL    HW149100   5.963   8.368   3.518
49087SOL    HW249101   5.844   8.275   3.510
49088SOL     OW49102  11.846  11.683   5.377
49088SOL    HW149103  11.805  11.704   5.293
49088SOL    HW249104  11.933  11.724   5.372
49089SOL     OW49105   3.495   1.353   0.121
49089SOL    HW149106   3.418   1.348   0.064
49089SOL    HW249107   3.519   1.262   0.136
49090SOL     OW49108   9.976   3.255   6.205
49090SOL    HW149109  10.014   3.324   6.150
49090SOL    HW249110   9.909   3.300   6.257
49091SOL     OW49111   0.513  14.778  12.198
49091SOL    HW149112   0.545  14.846  12.258
49091SOL    HW249113   0.574  14.705  12.212
49092SOL     OW49114   5.840   2.328  14.796
49092SOL    HW149115   5.766   2.369  14.840
49092SOL    HW249116   5.801   2.283  14.720
49093SOL     OW49117  13.914   8.663   1.885
49093SOL    HW149118  13.961   8.717   1.822
49093SOL    HW249119  13.865   8.726   1.939
49094SOL     OW49120   7.401  13.486   4.673
49094SOL    HW149121   7.403  13.404   4.722
49094SOL    HW249122   7.488  13.523   4.684
49095SOL     OW49123   1.441   9.138   4.363
49095SOL    HW149124   1.469   9.221   4.324
49095SOL    HW249125   1.492   9.072   4.316
49096SOL     OW49126  13.414   9.115   0.509
49096SOL    HW149127  13.477   9.044   0.493
49096SOL    HW249128  13.346   9.101   0.444
49097SOL     OW49129   1.339   3.522   4.158
49097SOL    HW149130   1.390   3.565   4.228
49097SOL    HW249131   1.330   3.431   4.187
49098SOL     OW49132  13.158  14.834  12.635
49098SOL    HW149133  13.238   0.012  12.631
49098SOL    HW249134  13.106   0.001  12.704
49099SOL     OW49135  11.012   1.870  12.311
49099SOL    HW149136  11.023   1.963  12.330
49099SOL    HW249137  10.926   1.849  12.346
49100SOL     OW49138   6.234   3.663   8.754
49100SOL    HW149139   6.278   3.736   8.796
49100SOL    HW249140   6.141   3.678   8.769
49101SOL     OW49141   8.425   2.549  14.822
49101SOL    HW149142   8.438   2.640  14.848
49101SOL    HW249143   8.405   2.553  14.728
49102SOL     OW49144   9.821   7.165   2.727
49102SOL    HW149145   9.894   7.106   2.710
49102SOL    HW249146   9.842   7.245   2.678
49103SOL     OW49147   9.071   9.044   8.946
49103SOL    HW149148   9.157   9.019   8.912
49103SOL    HW249149   9.047   8.972   9.005
49104SOL     OW49150   1.241  10.464  10.512
49104SOL    HW149151   1.326  10.484  10.552
49104SOL    HW249152   1.232  10.529  10.441
49105SOL     OW49153   5.632   0.943   6.190
49105SOL    HW149154   5.595   0.939   6.279
49105SOL    HW249155   5.569   0.894   6.136
49106SOL     OW49156  10.442   1.089   0.307
49106SOL    HW149157  10.434   1.043   0.223
49106SOL    HW249158  10.533   1.119   0.308
49107SOL     OW49159   8.771  10.496  13.496
49107SOL    HW149160   8.692  10.546  13.517
49107SOL    HW249161   8.757  10.411  13.537
49108SOL     OW49162   6.611   7.512   8.076
49108SOL    HW149163   6.650   7.567   8.144
49108SOL    HW249164   6.535   7.562   8.045
49109SOL     OW49165   8.898   5.247   8.280
49109SOL    HW149166   8.854   5.194   8.213
49109SOL    HW249167   8.971   5.288   8.233
49110SOL     OW49168   0.790   4.878  14.656
49110SOL    HW149169   0.698   4.861  14.679
49110SOL    HW249170   0.799   4.973  14.661
49111SOL     OW49171  12.717  12.794   3.899
49111SOL    HW149172  12.764  12.770   3.820
49111SOL    HW249173  12.702  12.711   3.945
49112SOL     OW49174  12.766   5.586   2.177
49112SOL    HW149175  12.699   5.518   2.181
49112SOL    HW249176  12.758   5.633   2.260
49113SOL     OW49177   8.412  11.851   8.236
49113SOL    HW149178   8.455  11.884   8.158
49113SOL    HW249179   8.459  11.770   8.257
49114SOL     OW49180   1.387   0.984  13.517
49114SOL    HW149181   1.352   1.005  13.604
49114SOL    HW249182   1.415   0.893  13.524
49115SOL     OW49183   6.930  13.671   8.568
49115SOL    HW149184   6.940  13.696   8.660
49115SOL    HW249185   6.923  13.575   8.570
49116SOL     OW49186  11.467   3.217  13.576
49116SOL    HW149187  11.377   3.192  13.598
49116SOL    HW249188  11.521   3.149  13.617
49117SOL     OW49189  10.010   5.264   5.901
49117SOL    HW149190  10.048   5.188   5.946
49117SOL    HW249191  10.031   5.249   5.809
49118SOL     OW49192   8.793  12.154   3.864
49118SOL    HW149193   8.781  12.202   3.946
49118SOL    HW249194   8.850  12.081   3.887
49119SOL     OW49195   8.959   7.751   1.737
49119SOL    HW149196   9.025   7.707   1.683
49119SOL    HW249197   8.877   7.740   1.689
49120SOL     OW49198   4.328   8.588   0.321
49120SOL    HW149199   4.259   8.635   0.274
49120SOL    HW249200   4.297   8.584   0.412
49121SOL     OW49201  13.631  11.201  12.606
49121SOL    HW149202  13.698  11.136  12.588
49121SOL    HW249203  13.587  11.169  12.685
49122SOL     OW49204   0.940  10.516   2.545
49122SOL    HW149205   0.998  10.538   2.619
49122SOL    HW249206   0.916  10.601   2.509
49123SOL     OW49207  10.275  10.778   2.839
49123SOL    HW149208  10.180  10.789   2.845
49123SOL    HW249209  10.303  10.849   2.782
49124SOL     OW49210  10.903   4.178   5.436
49124SOL    HW149211  10.980   4.147   5.388
49124SOL    HW249212  10.829   4.138   5.391
49125SOL     OW49213   6.584  11.566  14.497
49125SOL    HW149214   6.630  11.648  14.510
49125SOL    HW249215   6.649  11.498  14.515
49126SOL     OW49216   6.202   6.842   4.858
49126SOL    HW149217   6.253   6.909   4.812
49126SOL    HW249218   6.112   6.856   4.829
49127SOL     OW49219  10.090  13.764   7.344
49127SOL    HW149220  10.170  13.816   7.347
49127SOL    HW249221  10.036  13.806   7.277
49128SOL     OW49222   7.977   5.002   4.796
49128SOL    HW149223   8.046   4.954   4.750
49128SOL    HW249224   7.896   4.972   4.754
49129SOL     OW49225   4.376   4.852   8.946
49129SOL    HW149226   4.404   4.931   8.991
49129SOL    HW249227   4.332   4.883   8.867
49130SOL     OW49228   1.472  13.269   2.194
49130SOL    HW149229   1.412  13.335   2.158
49130SOL    HW249230   1.559  13.305   2.179
49131SOL     OW49231   7.425   1.035  10.252
49131SOL    HW149232   7.436   1.009  10.343
49131SOL    HW249233   7.338   1.004  10.229
49132SOL     OW49234   2.883  10.976   1.243
49132SOL    HW149235   2.907  10.928   1.322
49132SOL    HW249236   2.922  11.063   1.254
49133SOL     OW49237   4.028   0.347  12.120
49133SOL    HW149238   3.938   0.379  12.128
49133SOL    HW249239   4.081   0.427  12.116
49134SOL     OW49240   3.302   5.869  12.160
49134SOL    HW149241   3.335   5.809  12.093
49134SOL    HW249242   3.248   5.813  12.217
49135SOL     OW49243  10.713   6.758  14.298
49135SOL    HW149244  10.651   6.808  14.350
49135SOL    HW249245  10.782   6.821  14.276
49136SOL     OW49246   7.658   4.202  11.938
49136SOL    HW149247   7.583   4.261  11.944
49136SOL    HW249248   7.726   4.252  11.894
49137SOL     OW49249  12.071   6.471  14.373
49137SOL    HW149250  12.006   6.533  14.341
49137SOL    HW249251  12.137   6.469  14.304
49138SOL     OW49252   4.137   5.063   3.687
49138SOL    HW149253   4.083   5.112   3.749
49138SOL    HW249254   4.094   5.075   3.602
49139SOL     OW49255   3.558  13.100   3.261
49139SOL    HW149256   3.518  13.085   3.175
49139SOL    HW249257   3.506  13.047   3.321
49140SOL     OW49258   7.972  12.725  12.852
49140SOL    HW149259   7.943  12.768  12.772
49140SOL    HW249260   8.035  12.785  12.890
49141SOL     OW49261  10.929   1.764   1.240
49141SOL    HW149262  10.943   1.692   1.178
49141SOL    HW249263  10.981   1.740   1.317
49142SOL     OW49264  10.586  13.322  11.803
49142SOL    HW149265  10.620  13.340  11.716
49142SOL    HW249266  10.602  13.403  11.852
49143SOL     OW49267  10.777   6.081  13.384
49143SOL    HW149268  10.706   6.046  13.330
49143SOL    HW249269  10.778   6.024  13.461
49144SOL     OW49270   5.810   0.391  13.944
49144SOL    HW149271   5.904   0.406  13.954
49144SOL    HW249272   5.787   0.434  13.862
49145SOL     OW49273   7.580  12.841  13.731
49145SOL    HW149274   7.504  12.784  13.721
49145SOL    HW249275   7.628  12.805  13.805
49146SOL     OW49276  12.359   9.524  11.191
49146SOL    HW149277  12.390   9.448  11.143
49146SOL    HW249278  12.336   9.588  11.124
49147SOL     OW49279  14.198   6.784   0.791
49147SOL    HW149280  14.234   6.827   0.713
49147SOL    HW249281  14.236   6.832   0.865
49148SOL     OW49282   9.427   6.829  14.208
49148SOL    HW149283   9.372   6.756  14.181
49148SOL    HW249284   9.493   6.837  14.139
49149SOL     OW49285  12.256   5.250  10.494
49149SOL    HW149286  12.190   5.188  10.525
49149SOL    HW249287  12.207   5.311  10.439
49150SOL     OW49288   5.864  14.091   6.518
49150SOL    HW149289   5.781  14.114   6.475
49150SOL    HW249290   5.837  14.047   6.599
49151SOL     OW49291   0.819   3.319  12.562
49151SOL    HW149292   0.863   3.389  12.611
49151SOL    HW249293   0.795   3.256  12.629
49152SOL     OW49294  12.277  12.949   6.365
49152SOL    HW149295  12.198  12.949   6.310
49152SOL    HW249296  12.250  12.993   6.445
49153SOL     OW49297   2.884   3.352   9.647
49153SOL    HW149298   2.818   3.374   9.581
49153SOL    HW249299   2.968   3.366   9.603
49154SOL     OW49300   9.310   0.977   6.136
49154SOL    HW149301   9.386   0.986   6.193
49154SOL    HW249302   9.346   0.947   6.052
49155SOL     OW49303   8.683   1.060   9.650
49155SOL    HW149304   8.736   1.135   9.621
49155SOL    HW249305   8.594   1.095   9.655
49156SOL     OW49306   9.055  11.974   2.061
49156SOL    HW149307   9.091  12.051   2.106
49156SOL    HW249308   9.045  12.001   1.970
49157SOL     OW49309   5.946   0.563   1.129
49157SOL    HW149310   6.035   0.595   1.145
49157SOL    HW249311   5.919   0.524   1.212
49158SOL     OW49312  12.835   8.858   1.761
49158SOL    HW149313  12.892   8.815   1.825
49158SOL    HW249314  12.747   8.824   1.780
49159SOL     OW49315  10.824   3.740   0.610
49159SOL    HW149316  10.830   3.716   0.702
49159SOL    HW249317  10.862   3.827   0.605
49160SOL     OW49318   3.496   6.790   4.325
49160SOL    HW149319   3.506   6.765   4.234
49160SOL    HW249320   3.449   6.717   4.365
49161SOL     OW49321  10.728  13.849   5.214
49161SOL    HW149322  10.692  13.768   5.251
49161SOL    HW249323  10.821  13.847   5.238
49162SOL     OW49324  12.393   7.843   7.792
49162SOL    HW149325  12.465   7.905   7.801
49162SOL    HW249326  12.316   7.891   7.821
49163SOL     OW49327  14.638  12.852   9.802
49163SOL    HW149328  14.649  12.916   9.873
49163SOL    HW249329  14.704  12.786   9.818
49164SOL     OW49330   2.576   8.624  11.382
49164SOL    HW149331   2.517   8.699  11.374
49164SOL    HW249332   2.518   8.549  11.394
49165SOL     OW49333  11.888   1.001  11.244
49165SOL    HW149334  11.830   0.974  11.173
49165SOL    HW249335  11.835   1.060  11.297
49166SOL     OW49336   1.326   1.829   8.818
49166SOL    HW149337   1.294   1.753   8.769
49166SOL    HW249338   1.319   1.902   8.757
49167SOL     OW49339  13.157   7.991   9.734
49167SOL    HW149340  13.220   8.055   9.767
49167SOL    HW249341  13.168   7.994   9.639
49168SOL     OW49342   5.666  13.575   7.332
49168SOL    HW149343   5.607  13.504   7.356
49168SOL    HW249344   5.716  13.541   7.258
49169SOL     OW49345   0.654   9.710   7.601
49169SOL    HW149346   0.627   9.687   7.512
49169SOL    HW249347   0.736   9.758   7.590
49170SOL     OW49348  13.891   3.681  11.372
49170SOL    HW149349  13.904   3.696  11.465
49170SOL    HW249350  13.832   3.606  11.366
49171SOL     OW49351   5.958   7.676  10.708
49171SOL    HW149352   5.971   7.596  10.657
49171SOL    HW249353   5.881   7.658  10.762
49172SOL     OW49354   6.465   1.073   2.404
49172SOL    HW149355   6.416   1.140   2.454
49172SOL    HW249356   6.557   1.090   2.425
49173SOL     OW49357   1.805   8.034   0.477
49173SOL    HW149358   1.711   8.032   0.498
49173SOL    HW249359   1.810   8.005   0.386
49174SOL     OW49360   4.462  11.581   3.984
49174SOL    HW149361   4.400  11.519   4.022
49174SOL    HW249362   4.496  11.630   4.059
49175SOL     OW49363   4.682   1.935   5.956
49175SOL    HW149364   4.746   1.938   6.027
49175SOL    HW249365   4.598   1.955   5.999
49176SOL     OW49366   8.147   8.760   4.436
49176SOL    HW149367   8.212   8.697   4.405
49176SOL    HW249368   8.088   8.771   4.361
49177SOL     OW49369   8.485  10.502   4.968
49177SOL    HW149370   8.416  10.456   4.920
49177SOL    HW249371   8.562  10.445   4.960
49178SOL     OW49372   0.410   1.343  12.176
49178SOL    HW149373   0.434   1.375  12.089
49178SOL    HW249374   0.373   1.419  12.220
49179SOL     OW49375   6.853   0.496   7.696
49179SOL    HW149376   6.781   0.504   7.759
49179SOL    HW249377   6.932   0.495   7.751
49180SOL     OW49378   1.019   3.358   7.887
49180SOL    HW149379   1.079   3.431   7.897
49180SOL    HW249380   0.979   3.348   7.973
49181SOL     OW49381  14.513   3.023   5.294
49181SOL    HW149382  14.587   2.973   5.259
49181SOL    HW249383  14.444   3.011   5.229
49182SOL     OW49384   2.728  14.565  14.645
49182SOL    HW149385   2.821  14.586  14.646
49182SOL    HW249386   2.696  14.595  14.560
49183SOL     OW49387  12.547   0.197   1.909
49183SOL    HW149388  12.472   0.256   1.910
49183SOL    HW249389  12.620   0.252   1.881
49184SOL     OW49390   8.543  11.177   6.434
49184SOL    HW149391   8.617  11.134   6.477
49184SOL    HW249392   8.535  11.261   6.479
49185SOL     OW49393   8.009   2.754  12.748
49185SOL    HW149394   8.076   2.732  12.684
49185SOL    HW249395   7.970   2.835  12.717
49186SOL     OW49396   8.261  13.849   8.798
49186SOL    HW149397   8.335  13.838   8.858
49186SOL    HW249398   8.217  13.929   8.829
49187SOL     OW49399   1.686  14.307   1.480
49187SOL    HW149400   1.688  14.265   1.566
49187SOL    HW249401   1.713  14.397   1.497
49188SOL     OW49402  12.848   8.426  14.348
49188SOL    HW149403  12.874   8.513  14.320
49188SOL    HW249404  12.902   8.408  14.425
49189SOL     OW49405   8.426   9.170   1.969
49189SOL    HW149406   8.513   9.188   1.933
49189SOL    HW249407   8.375   9.248   1.947
49190SOL     OW49408   2.471  11.512  12.374
49190SOL    HW149409   2.489  11.466  12.292
49190SOL    HW249410   2.491  11.604  12.356
49191SOL     OW49411   9.986  11.630  13.874
49191SOL    HW149412  10.036  11.686  13.814
49191SOL    HW249413  10.046  11.614  13.947
49192SOL     OW49414   1.830   0.894   1.197
49192SOL    HW149415   1.828   0.887   1.293
49192SOL    HW249416   1.836   0.988   1.180
49193SOL     OW49417   2.407  14.747  12.753
49193SOL    HW149418   2.412  14.829  12.801
49193SOL    HW249419   2.465  14.687  12.800
49194SOL     OW49420   7.715  14.364  14.469
49194SOL    HW149421   7.711  14.295  14.402
49194SOL    HW249422   7.692  14.319  14.550
49195SOL     OW49423  10.337  13.467  13.394
49195SOL    HW149424  10.272  13.397  13.386
49195SOL    HW249425  10.340  13.486  13.488
49196SOL     OW49426   4.646   0.657   1.426
49196SOL    HW149427   4.580   0.707   1.473
49196SOL    HW249428   4.717   0.646   1.490
49197SOL     OW49429   5.356  14.778   5.161
49197SOL    HW149430   5.411  14.826   5.100
49197SOL    HW249431   5.413  14.760   5.236
49198SOL     OW49432   5.092  13.518   5.338
49198SOL    HW149433   5.166  13.550   5.389
49198SOL    HW249434   5.087  13.424   5.358
49199SOL     OW49435  10.052   3.707  14.023
49199SOL    HW149436   9.965   3.703  14.064
49199SOL    HW249437  10.035   3.694  13.930
49200SOL     OW49438   0.829   3.168   2.289
49200SOL    HW149439   0.900   3.104   2.299
49200SOL    HW249440   0.844   3.231   2.360
49201SOL     OW49441  13.413  10.384  14.160
49201SOL    HW149442  13.412  10.289  14.171
49201SOL    HW249443  13.446  10.397  14.071
49202SOL     OW49444  13.438   8.634   7.643
49202SOL    HW149445  13.410   8.707   7.698
49202SOL    HW249446  13.518   8.601   7.685
49203SOL     OW49447   9.526  13.497  12.209
49203SOL    HW149448   9.439  13.538  12.211
49203SOL    HW249449   9.584  13.561  12.250
49204SOL     OW49450   8.994   6.692   6.243
49204SOL    HW149451   8.950   6.776   6.230
49204SOL    HW249452   8.963   6.661   6.328
49205SOL     OW49453   4.812  12.274  11.939
49205SOL    HW149454   4.791  12.300  11.850
49205SOL    HW249455   4.737  12.220  11.966
49206SOL     OW49456  13.685   2.875   7.789
49206SOL    HW149457  13.768   2.904   7.827
49206SOL    HW249458  13.709   2.798   7.737
49207SOL     OW49459  14.751  13.520  14.722
49207SOL    HW149460  14.749  13.615  14.714
49207SOL    HW249461  14.838  13.501  14.757
49208SOL     OW49462  13.141   5.542  10.097
49208SOL    HW149463  13.128   5.597  10.174
49208SOL    HW249464  13.187   5.598  10.034
49209SOL     OW49465   1.920  11.881  10.576
49209SOL    HW149466   1.889  11.808  10.522
49209SOL    HW249467   1.908  11.851  10.666
49210SOL     OW49468  11.471   6.794   0.940
49210SOL    HW149469  11.517   6.870   0.904
49210SOL    HW249470  11.537   6.726   0.947
49211SOL     OW49471  13.704   7.328   9.190
49211SOL    HW149472  13.757   7.269   9.137
49211SOL    HW249473  13.614   7.298   9.178
49212SOL     OW49474  10.993   3.710  14.262
49212SOL    HW149475  10.949   3.665  14.334
49212SOL    HW249476  11.070   3.656  14.243
49213SOL     OW49477   7.052  11.064  10.904
49213SOL    HW149478   7.132  11.065  10.958
49213SOL    HW249479   7.030  11.156  10.892
49214SOL     OW49480   4.779   2.146   8.814
49214SOL    HW149481   4.855   2.167   8.868
49214SOL    HW249482   4.792   2.055   8.788
49215SOL     OW49483   6.508  10.664  10.797
49215SOL    HW149484   6.449  10.637  10.727
49215SOL    HW249485   6.595  10.668  10.755
49216SOL     OW49486   9.348   6.796   6.749
49216SOL    HW149487   9.417   6.769   6.810
49216SOL    HW249488   9.383   6.875   6.708
49217SOL     OW49489   1.879   6.269  13.988
49217SOL    HW149490   1.916   6.232  13.908
49217SOL    HW249491   1.955   6.283  14.045
49218SOL     OW49492   1.089   2.417   6.610
49218SOL    HW149493   1.078   2.347   6.675
49218SOL    HW249494   1.155   2.475   6.648
49219SOL     OW49495   1.530   2.518   5.614
49219SOL    HW149496   1.517   2.598   5.563
49219SOL    HW249497   1.625   2.512   5.626
49220SOL     OW49498   5.967   1.627   6.605
49220SOL    HW149499   5.984   1.544   6.649
49220SOL    HW249500   6.050   1.652   6.566
49221SOL     OW49501   3.164   4.588  10.128
49221SOL    HW149502   3.173   4.610  10.220
49221SOL    HW249503   3.211   4.505  10.117
49222SOL     OW49504  11.224   0.678  12.127
49222SOL    HW149505  11.257   0.713  12.210
49222SOL    HW249506  11.275   0.598  12.113
49223SOL     OW49507   2.937   0.950  14.320
49223SOL    HW149508   2.899   1.037  14.309
49223SOL    HW249509   3.031   0.965  14.326
49224SOL     OW49510   9.639  13.638  11.505
49224SOL    HW149511   9.579  13.574  11.543
49224SOL    HW249512   9.714  13.639  11.565
49225SOL     OW49513   8.727   7.651   7.643
49225SOL    HW149514   8.793   7.719   7.627
49225SOL    HW249515   8.668   7.657   7.568
49226SOL     OW49516   0.126  10.873   9.320
49226SOL    HW149517   0.143  10.800   9.379
49226SOL    HW249518   0.032  10.871   9.305
49227SOL     OW49519   8.116   2.558   7.608
49227SOL    HW149520   8.174   2.544   7.683
49227SOL    HW249521   8.059   2.630   7.634
49228SOL     OW49522   0.421   3.100   0.789
49228SOL    HW149523   0.482   3.028   0.805
49228SOL    HW249524   0.472   3.179   0.807
49229SOL     OW49525   1.503   1.705  12.407
49229SOL    HW149526   1.533   1.793  12.431
49229SOL    HW249527   1.444   1.720  12.333
49230SOL     OW49528   8.689   5.106   9.056
49230SOL    HW149529   8.646   5.039   9.002
49230SOL    HW249530   8.698   5.066   9.142
49231SOL     OW49531   1.686   9.100  10.007
49231SOL    HW149532   1.631   9.127   9.933
49231SOL    HW249533   1.646   9.018  10.037
49232SOL     OW49534   8.595   6.061   5.929
49232SOL    HW149535   8.504   6.070   5.959
49232SOL    HW249536   8.597   6.109   5.846
49233SOL     OW49537  10.809   2.574   6.827
49233SOL    HW149538  10.818   2.511   6.755
49233SOL    HW249539  10.797   2.519   6.905
49234SOL     OW49540   5.521  13.864  13.147
49234SOL    HW149541   5.542  13.915  13.225
49234SOL    HW249542   5.474  13.925  13.090
49235SOL     OW49543   9.208   1.570   7.690
49235SOL    HW149544   9.231   1.481   7.716
49235SOL    HW249545   9.245   1.579   7.602
49236SOL     OW49546   1.330   6.459   9.751
49236SOL    HW149547   1.245   6.473   9.708
49236SOL    HW249548   1.392   6.447   9.680
49237SOL     OW49549   0.098   8.202   8.339
49237SOL    HW149550   0.039   8.130   8.316
49237SOL    HW249551   0.181   8.160   8.361
49238SOL     OW49552   7.353  10.520  13.791
49238SOL    HW149553   7.442  10.537  13.758
49238SOL    HW249554   7.302  10.501  13.712
49239SOL     OW49555   0.503   9.755   3.433
49239SOL    HW149556   0.434   9.713   3.484
49239SOL    HW249557   0.583   9.710   3.458
49240SOL     OW49558   2.460  13.192   3.987
49240SOL    HW149559   2.546  13.151   3.998
49240SOL    HW249560   2.399  13.131   4.027
49241SOL     OW49561   6.966   0.773   5.896
49241SOL    HW149562   7.023   0.830   5.845
49241SOL    HW249563   6.970   0.810   5.985
49242SOL     OW49564   4.164   4.554   0.487
49242SOL    HW149565   4.186   4.502   0.565
49242SOL    HW249566   4.177   4.645   0.515
49243SOL     OW49567   7.846   9.524   7.795
49243SOL    HW149568   7.775   9.503   7.855
49243SOL    HW249569   7.843   9.455   7.729
49244SOL     OW49570   1.256   9.611  11.879
49244SOL    HW149571   1.181   9.593  11.935
49244SOL    HW249572   1.321   9.651  11.938
49245SOL     OW49573   9.168   0.342   9.735
49245SOL    HW149574   9.234   0.277   9.713
49245SOL    HW249575   9.211   0.426   9.721
49246SOL     OW49576   8.312  12.837  10.974
49246SOL    HW149577   8.230  12.805  10.935
49246SOL    HW249578   8.378  12.772  10.949
49247SOL     OW49579   0.404  14.701   7.282
49247SOL    HW149580   0.368  14.750   7.355
49247SOL    HW249581   0.362  14.615   7.287
49248SOL     OW49582  10.506   3.044  10.584
49248SOL    HW149583  10.584   3.090  10.551
49248SOL    HW249584  10.462   3.012  10.505
49249SOL     OW49585  11.553   1.031  13.144
49249SOL    HW149586  11.629   1.069  13.188
49249SOL    HW249587  11.588   0.954  13.099
49250SOL     OW49588   3.904  13.381   5.462
49250SOL    HW149589   3.814  13.373   5.494
49250SOL    HW249590   3.910  13.315   5.393
49251SOL     OW49591   3.748  12.728  10.998
49251SOL    HW149592   3.719  12.645  11.036
49251SOL    HW249593   3.817  12.704  10.936
49252SOL     OW49594  11.097   5.550   2.781
49252SOL    HW149595  11.127   5.581   2.696
49252SOL    HW249596  11.124   5.459   2.785
49253SOL     OW49597   8.904  14.430   8.904
49253SOL    HW149598   8.859  14.448   8.822
49253SOL    HW249599   8.994  14.409   8.878
49254SOL     OW49600  14.298   1.136   9.519
49254SOL    HW149601  14.257   1.089   9.446
49254SOL    HW249602  14.390   1.146   9.492
49255SOL     OW49603   4.983   2.984   3.282
49255SOL    HW149604   4.955   2.900   3.317
49255SOL    HW249605   5.038   2.962   3.206
49256SOL     OW49606  11.238  12.096   5.806
49256SOL    HW149607  11.195  12.088   5.891
49256SOL    HW249608  11.231  12.009   5.767
49257SOL     OW49609   0.964   6.057  10.704
49257SOL    HW149610   0.903   5.993  10.742
49257SOL    HW249611   1.050   6.016  10.713
49258SOL     OW49612   0.483   5.488   6.840
49258SOL    HW149613   0.394   5.484   6.805
49258SOL    HW249614   0.495   5.581   6.863
49259SOL     OW49615   1.387   5.743   3.809
49259SOL    HW149616   1.448   5.717   3.878
49259SOL    HW249617   1.404   5.681   3.738
49260SOL     OW49618   5.930  14.019   5.687
49260SOL    HW149619   6.021  14.001   5.710
49260SOL    HW249620   5.884  13.936   5.700
49261SOL     OW49621   2.717   9.762   0.007
49261SOL    HW149622   2.736   9.779   0.099
49261SOL    HW249623   2.761   9.680  14.861
49262SOL     OW49624  13.575  13.039   0.465
49262SOL    HW149625  13.544  12.954   0.436
49262SOL    HW249626  13.527  13.056   0.546
49263SOL     OW49627   9.627   7.959  13.530
49263SOL    HW149628   9.544   7.968  13.484
49263SOL    HW249629   9.622   7.874  13.573
49264SOL     OW49630   4.699   5.754  11.119
49264SOL    HW149631   4.730   5.763  11.028
49264SOL    HW249632   4.771   5.787  11.172
49265SOL     OW49633   9.487   5.139   0.917
49265SOL    HW149634   9.489   5.043   0.920
49265SOL    HW249635   9.497   5.167   1.008
49266SOL     OW49636  13.496   9.779   2.680
49266SOL    HW149637  13.581   9.823   2.675
49266SOL    HW249638  13.436   9.847   2.710
49267SOL     OW49639  10.418   7.464  11.747
49267SOL    HW149640  10.458   7.453  11.833
49267SOL    HW249641  10.330   7.496  11.765
49268SOL     OW49642   1.997  10.431   8.537
49268SOL    HW149643   1.950  10.372   8.477
49268SOL    HW249644   1.929  10.463   8.597
49269SOL     OW49645  10.907   6.523  12.846
49269SOL    HW149646  10.973   6.454  12.853
49269SOL    HW249647  10.943   6.585  12.783
49270SOL     OW49648   1.682  13.140   9.309
49270SOL    HW149649   1.690  13.227   9.270
49270SOL    HW249650   1.770  13.104   9.304
49271SOL     OW49651   2.752   9.459  14.795
49271SOL    HW149652   2.693   9.482  14.723
49271SOL    HW249653   2.840   9.467  14.757
49272SOL     OW49654   0.206   1.875  14.592
49272SOL    HW149655   0.264   1.886  14.517
49272SOL    HW249656   0.220   1.784  14.620
49273SOL     OW49657   0.732  10.084  10.931
49273SOL    HW149658   0.792  10.154  10.907
49273SOL    HW249659   0.654  10.129  10.963
49274SOL     OW49660   7.509   4.820  10.167
49274SOL    HW149661   7.570   4.853  10.101
49274SOL    HW249662   7.440   4.777  10.116
49275SOL     OW49663   3.759   3.019   6.617
49275SOL    HW149664   3.817   3.088   6.585
49275SOL    HW249665   3.749   2.960   6.543
49276SOL     OW49666   6.305  11.922   5.817
49276SOL    HW149667   6.400  11.920   5.805
49276SOL    HW249668   6.283  11.834   5.849
49277SOL     OW49669   6.248   4.986  10.860
49277SOL    HW149670   6.167   5.035  10.871
49277SOL    HW249671   6.315   5.053  10.848
49278SOL     OW49672   9.162   6.349   4.958
49278SOL    HW149673   9.218   6.273   4.977
49278SOL    HW249674   9.074   6.322   4.985
49279SOL     OW49675  13.022   1.965   2.605
49279SOL    HW149676  13.031   2.059   2.588
49279SOL    HW249677  12.996   1.929   2.520
49280SOL     OW49678   2.904   1.901  14.323
49280SOL    HW149679   2.925   1.970  14.260
49280SOL    HW249680   2.868   1.947  14.398
49281SOL     OW49681   3.705   4.721   9.931
49281SOL    HW149682   3.795   4.750   9.919
49281SOL    HW249683   3.703   4.632   9.896
49282SOL     OW49684  11.025  13.549   1.174
49282SOL    HW149685  11.014  13.462   1.136
49282SOL    HW249686  10.936  13.583   1.181
49283SOL     OW49687   8.205  13.825   3.421
49283SOL    HW149688   8.261  13.901   3.410
49283SOL    HW249689   8.205  13.807   3.515
49284SOL     OW49690   3.324   9.062  11.860
49284SOL    HW149691   3.345   9.134  11.919
49284SOL    HW249692   3.409   9.029  11.832
49285SOL     OW49693   3.314   7.225   2.436
49285SOL    HW149694   3.392   7.177   2.408
49285SOL    HW249695   3.332   7.316   2.412
49286SOL     OW49696  13.309   2.994   0.196
49286SOL    HW149697  13.313   3.089   0.187
49286SOL    HW249698  13.357   2.976   0.277
49287SOL     OW49699   4.041  10.040  13.574
49287SOL    HW149700   4.083  10.068  13.656
49287SOL    HW249701   3.948  10.038  13.595
49288SOL     OW49702  12.780   7.897   0.684
49288SOL    HW149703  12.689   7.921   0.668
49288SOL    HW249704  12.792   7.816   0.633
49289SOL     OW49705  14.123   2.837  12.457
49289SOL    HW149706  14.126   2.931  12.474
49289SOL    HW249707  14.033   2.811  12.475
49290SOL     OW49708   1.258   6.311  14.358
49290SOL    HW149709   1.279   6.346  14.272
49290SOL    HW249710   1.299   6.225  14.359
49291SOL     OW49711   8.840   6.264  14.152
49291SOL    HW149712   8.757   6.218  14.141
49291SOL    HW249713   8.836   6.335  14.088
49292SOL     OW49714   0.287   1.195   0.579
49292SOL    HW149715   0.309   1.102   0.577
49292SOL    HW249716   0.193   1.197   0.599
49293SOL     OW49717   2.370   7.833   3.818
49293SOL    HW149718   2.406   7.886   3.746
49293SOL    HW249719   2.447   7.801   3.865
49294SOL     OW49720   9.968   1.239  10.946
49294SOL    HW149721  10.018   1.163  10.917
49294SOL    HW249722   9.951   1.223  11.039
49295SOL     OW49723   7.106   2.683  13.161
49295SOL    HW149724   7.188   2.633  13.162
49295SOL    HW249725   7.120   2.753  13.224
49296SOL     OW49726  10.662   7.712   4.286
49296SOL    HW149727  10.633   7.800   4.259
49296SOL    HW249728  10.660   7.661   4.205
49297SOL     OW49729   1.329   2.258   6.163
49297SOL    HW149730   1.319   2.322   6.233
49297SOL    HW249731   1.378   2.186   6.204
49298SOL     OW49732   7.987  13.969  10.117
49298SOL    HW149733   8.014  13.899  10.058
49298SOL    HW249734   7.898  13.946  10.143
49299SOL     OW49735   3.390   5.995  10.433
49299SOL    HW149736   3.304   5.954  10.420
49299SOL    HW249737   3.386   6.076  10.383
49300SOL     OW49738   6.528  13.026   2.734
49300SOL    HW149739   6.455  12.989   2.783
49300SOL    HW249740   6.536  13.116   2.767
49301SOL     OW49741   7.641   1.354  12.259
49301SOL    HW149742   7.656   1.448  12.262
49301SOL    HW249743   7.728   1.315  12.266
49302SOL     OW49744  11.528   1.518   1.895
49302SOL    HW149745  11.572   1.476   1.821
49302SOL    HW249746  11.495   1.445   1.948
49303SOL     OW49747   2.597   0.772  14.117
49303SOL    HW149748   2.604   0.853  14.068
49303SOL    HW249749   2.588   0.704  14.050
49304SOL     OW49750  10.633   8.275   1.112
49304SOL    HW149751  10.686   8.196   1.116
49304SOL    HW249752  10.554   8.249   1.064
49305SOL     OW49753   2.498   3.057   8.483
49305SOL    HW149754   2.527   2.966   8.492
49305SOL    HW249755   2.502   3.092   8.572
49306SOL     OW49756  11.344  12.723  13.397
49306SOL    HW149757  11.322  12.641  13.353
49306SOL    HW249758  11.260  12.759  13.424
49307SOL     OW49759   4.195   7.554  12.892
49307SOL    HW149760   4.229   7.557  12.982
49307SOL    HW249761   4.264   7.596  12.840
49308SOL     OW49762  13.471   7.951  14.197
49308SOL    HW149763  13.567   7.952  14.208
49308SOL    HW249764  13.458   7.922  14.107
49309SOL     OW49765   3.729   8.927   8.899
49309SOL    HW149766   3.663   8.892   8.839
49309SOL    HW249767   3.687   9.003   8.939
49310SOL     OW49768   3.668   4.857   5.467
49310SOL    HW149769   3.685   4.937   5.517
49310SOL    HW249770   3.665   4.885   5.376
49311SOL     OW49771   3.007   7.516  10.281
49311SOL    HW149772   3.052   7.561  10.353
49311SOL    HW249773   2.942   7.461  10.325
49312SOL     OW49774   3.272   1.178   7.022
49312SOL    HW149775   3.323   1.110   7.066
49312SOL    HW249776   3.181   1.153   7.036
49313SOL     OW49777   0.742  10.965  12.356
49313SOL    HW149778   0.743  10.870  12.344
49313SOL    HW249779   0.823  10.995  12.315
49314SOL     OW49780   5.273   1.120   5.980
49314SOL    HW149781   5.265   1.026   5.994
49314SOL    HW249782   5.333   1.128   5.906
49315SOL     OW49783  12.062   7.142   6.463
49315SOL    HW149784  12.119   7.068   6.441
49315SOL    HW249785  12.087   7.165   6.552
49316SOL     OW49786  11.650   8.704  14.445
49316SOL    HW149787  11.715   8.728  14.511
49316SOL    HW249788  11.607   8.786  14.421
49317SOL     OW49789   2.250  10.487  11.139
49317SOL    HW149790   2.259  10.504  11.045
49317SOL    HW249791   2.281  10.397  11.150
49318SOL     OW49792   6.004  11.394   2.536
49318SOL    HW149793   6.077  11.450   2.510
49318SOL    HW249794   5.983  11.342   2.458
49319SOL     OW49795   9.268   7.808   6.351
49319SOL    HW149796   9.207   7.843   6.287
49319SOL    HW249797   9.316   7.884   6.384
49320SOL     OW49798   8.676  11.779  10.038
49320SOL    HW149799   8.711  11.868  10.024
49320SOL    HW249800   8.590  11.781   9.996
49321SOL     OW49801   4.403   7.006   8.982
49321SOL    HW149802   4.498   6.996   8.972
49321SOL    HW249803   4.366   6.954   8.911
49322SOL     OW49804  10.282   4.981   4.485
49322SOL    HW149805  10.233   5.059   4.458
49322SOL    HW249806  10.363   5.016   4.523
49323SOL     OW49807   6.853   9.556  10.030
49323SOL    HW149808   6.847   9.609   9.951
49323SOL    HW249809   6.832   9.467  10.000
49324SOL     OW49810  11.737  13.234   3.664
49324SOL    HW149811  11.660  13.209   3.612
49324SOL    HW249812  11.810  13.226   3.604
49325SOL     OW49813   9.097   9.375  10.936
49325SOL    HW149814   9.171   9.399  10.991
49325SOL    HW249815   9.050   9.457  10.921
49326SOL     OW49816   4.380  13.964  13.615
49326SOL    HW149817   4.434  13.902  13.664
49326SOL    HW249818   4.291  13.949  13.648
49327SOL     OW49819  13.438   5.720  12.908
49327SOL    HW149820  13.373   5.717  12.977
49327SOL    HW249821  13.522   5.709  12.953
49328SOL     OW49822  11.728   9.185   5.782
49328SOL    HW149823  11.791   9.217   5.718
49328SOL    HW249824  11.696   9.103   5.744
49329SOL     OW49825   4.345   8.201  14.814
49329SOL    HW149826   4.393   8.120  14.828
49329SOL    HW249827   4.413   8.268  14.809
49330SOL     OW49828   5.373   2.271   5.141
49330SOL    HW149829   5.441   2.209   5.113
49330SOL    HW249830   5.296   2.216   5.155
49331SOL     OW49831   7.504   0.401   7.255
49331SOL    HW149832   7.510   0.443   7.341
49331SOL    HW249833   7.594   0.378   7.234
49332SOL     OW49834   2.271   5.234   5.072
49332SOL    HW149835   2.197   5.178   5.047
49332SOL    HW249836   2.238   5.290   5.141
49333SOL     OW49837   7.620   1.522   9.840
49333SOL    HW149838   7.644   1.508   9.931
49333SOL    HW249839   7.703   1.524   9.793
49334SOL     OW49840  12.965   9.303  14.454
49334SOL    HW149841  12.961   9.317  14.548
49334SOL    HW249842  12.875   9.321  14.424
49335SOL     OW49843  11.114  11.727  10.100
49335SOL    HW149844  11.186  11.727  10.037
49335SOL    HW249845  11.120  11.813  10.143
49336SOL     OW49846   0.419   2.920   7.693
49336SOL    HW149847   0.424   2.825   7.692
49336SOL    HW249848   0.430   2.946   7.601
49337SOL     OW49849   8.280  11.507   9.991
49337SOL    HW149850   8.187  11.527   9.983
49337SOL    HW249851   8.318  11.536   9.908
49338SOL     OW49852   6.361   7.904  14.239
49338SOL    HW149853   6.294   7.902  14.307
49338SOL    HW249854   6.322   7.858  14.165
49339SOL     OW49855  13.202   3.986  14.659
49339SOL    HW149856  13.257   4.053  14.620
49339SOL    HW249857  13.264   3.925  14.699
49340SOL     OW49858   0.662  10.884   7.458
49340SOL    HW149859   0.624  10.809   7.413
49340SOL    HW249860   0.621  10.960   7.417
49341SOL     OW49861   3.506   2.440   1.685
49341SOL    HW149862   3.498   2.469   1.776
49341SOL    HW249863   3.528   2.347   1.691
49342SOL     OW49864   9.637  13.322   4.041
49342SOL    HW149865   9.693  13.379   4.094
49342SOL    HW249866   9.551  13.363   4.044
49343SOL     OW49867  11.718  10.997  12.585
49343SOL    HW149868  11.802  10.967  12.619
49343SOL    HW249869  11.686  11.058  12.652
49344SOL     OW49870  10.715   4.398   2.929
49344SOL    HW149871  10.791   4.453   2.947
49344SOL    HW249872  10.646   4.434   2.984
49345SOL     OW49873   4.773   6.853  14.058
49345SOL    HW149874   4.756   6.922  13.994
49345SOL    HW249875   4.687   6.827  14.089
49346SOL     OW49876  11.821   7.330   2.814
49346SOL    HW149877  11.817   7.321   2.719
49346SOL    HW249878  11.751   7.273   2.846
49347SOL     OW49879  12.806   1.067   0.050
49347SOL    HW149880  12.724   1.075   0.001
49347SOL    HW249881  12.813   1.150   0.099
49348SOL     OW49882   4.686  12.568  14.544
49348SOL    HW149883   4.695  12.577  14.638
49348SOL    HW249884   4.776  12.564  14.511
49349SOL     OW49885   3.324  11.273  10.678
49349SOL    HW149886   3.391  11.205  10.666
49349SOL    HW249887   3.321  11.319  10.594
49350SOL     OW49888  14.295   8.844  12.845
49350SOL    HW149889  14.341   8.773  12.889
49350SOL    HW249890  14.349   8.922  12.862
49351SOL     OW49891   4.135   4.266   1.679
49351SOL    HW149892   4.055   4.228   1.642
49351SOL    HW249893   4.200   4.196   1.673
49352SOL     OW49894   8.344   3.528  11.708
49352SOL    HW149895   8.265   3.567  11.747
49352SOL    HW249896   8.374   3.593  11.644
49353SOL     OW49897   3.602  11.111  14.750
49353SOL    HW149898   3.557  11.177  14.803
49353SOL    HW249899   3.695  11.133  14.759
49354SOL     OW49900  14.576   3.282   6.848
49354SOL    HW149901  14.634   3.210   6.822
49354SOL    HW249902  14.612   3.311   6.932
49355SOL     OW49903  11.745  13.802   0.102
49355SOL    HW149904  11.817  13.820   0.041
49355SOL    HW249905  11.785  13.752   0.172
49356SOL     OW49906  12.164   0.741   7.929
49356SOL    HW149907  12.112   0.707   8.002
49356SOL    HW249908  12.241   0.684   7.926
49357SOL     OW49909  12.793   2.168   5.652
49357SOL    HW149910  12.710   2.156   5.605
49357SOL    HW249911  12.830   2.080   5.656
49358SOL     OW49912   3.792   6.120  14.051
49358SOL    HW149913   3.804   6.198  14.105
49358SOL    HW249914   3.849   6.134  13.975
49359SOL     OW49915   6.387   4.213   5.375
49359SOL    HW149916   6.436   4.178   5.300
49359SOL    HW249917   6.378   4.306   5.356
49360SOL     OW49918   7.352   3.329  13.876
49360SOL    HW149919   7.358   3.251  13.931
49360SOL    HW249920   7.424   3.385  13.907
49361SOL     OW49921   4.047   3.522   8.771
49361SOL    HW149922   4.019   3.430   8.775
49361SOL    HW249923   3.999   3.564   8.842
49362SOL     OW49924  11.917  10.297  11.853
49362SOL    HW149925  11.886  10.328  11.938
49362SOL    HW249926  11.900  10.370  11.793
49363SOL     OW49927   6.072  10.843   2.728
49363SOL    HW149928   6.116  10.801   2.802
49363SOL    HW249929   6.143  10.876   2.673
49364SOL     OW49930   4.283   8.950   6.123
49364SOL    HW149931   4.211   9.007   6.151
49364SOL    HW249932   4.292   8.967   6.029
49365SOL     OW49933  13.072   2.768  13.616
49365SOL    HW149934  13.148   2.758  13.558
49365SOL    HW249935  13.012   2.698  13.590
49366SOL     OW49936  12.407  11.201  11.751
49366SOL    HW149937  12.379  11.116  11.716
49366SOL    HW249938  12.350  11.216  11.826
49367SOL     OW49939   9.285  13.894   1.834
49367SOL    HW149940   9.360  13.914   1.891
49367SOL    HW249941   9.318  13.828   1.773
49368SOL     OW49942   1.561   3.219   6.284
49368SOL    HW149943   1.469   3.191   6.284
49368SOL    HW249944   1.593   3.193   6.371
49369SOL     OW49945  10.970  13.735   0.588
49369SOL    HW149946  10.993  13.751   0.679
49369SOL    HW249947  10.975  13.821   0.547
49370SOL     OW49948   8.272   8.394  14.466
49370SOL    HW149949   8.220   8.382  14.386
49370SOL    HW249950   8.225   8.342  14.532
49371SOL     OW49951   7.209   5.405   2.268
49371SOL    HW149952   7.195   5.499   2.267
49371SOL    HW249953   7.228   5.382   2.177
49372SOL     OW49954   8.037   7.683  11.407
49372SOL    HW149955   8.027   7.778  11.415
49372SOL    HW249956   8.048   7.667  11.313
49373SOL     OW49957   9.065  13.372  10.414
49373SOL    HW149958   9.043  13.394  10.324
49373SOL    HW249959   9.136  13.308  10.407
49374SOL     OW49960   2.735  12.072   9.379
49374SOL    HW149961   2.643  12.076   9.352
49374SOL    HW249962   2.780  12.134   9.321
49375SOL     OW49963   1.262  13.810   4.231
49375SOL    HW149964   1.186  13.861   4.259
49375SOL    HW249965   1.335  13.871   4.235
49376SOL     OW49966   6.387  12.058  13.357
49376SOL    HW149967   6.400  12.090  13.268
49376SOL    HW249968   6.443  11.981  13.364
49377SOL     OW49969   3.295  11.815  11.056
49377SOL    HW149970   3.236  11.747  11.088
49377SOL    HW249971   3.362  11.767  11.006
49378SOL     OW49972  13.144   5.666   4.557
49378SOL    HW149973  13.222   5.673   4.502
49378SOL    HW249974  13.093   5.595   4.519
49379SOL     OW49975  10.058  11.847   0.710
49379SOL    HW149976  10.094  11.844   0.799
49379SOL    HW249977  10.134  11.865   0.655
49380SOL     OW49978  11.835  12.360  13.514
49380SOL    HW149979  11.754  12.399  13.480
49380SOL    HW249980  11.896  12.433  13.520
49381SOL     OW49981   3.511   8.258   8.528
49381SOL    HW149982   3.569   8.333   8.515
49381SOL    HW249983   3.512   8.243   8.623
49382SOL     OW49984  14.479  10.672  12.104
49382SOL    HW149985  14.539  10.615  12.057
49382SOL    HW249986  14.424  10.613  12.155
49383SOL     OW49987   1.533   0.384  13.281
49383SOL    HW149988   1.623   0.413  13.295
49383SOL    HW249989   1.533   0.292  13.307
49384SOL     OW49990   3.073  10.981  12.889
49384SOL    HW149991   2.994  10.935  12.917
49384SOL    HW249992   3.043  11.069  12.866
49385SOL     OW49993  13.805   6.149  13.249
49385SOL    HW149994  13.846   6.128  13.166
49385SOL    HW249995  13.849   6.094  13.313
49386SOL     OW49996   7.234  12.793   0.295
49386SOL    HW149997   7.143  12.763   0.282
49386SOL    HW249998   7.264  12.817   0.208
49387SOL     OW49999   8.142   7.854   3.567
49387SOL    HW150000   8.226   7.896   3.584
49387SOL    HW250001   8.095   7.916   3.511
49388SOL     OW50002   9.002  12.769   2.849
49388SOL    HW150003   8.936  12.754   2.782
49388SOL    HW250004   8.968  12.726   2.927
49389SOL     OW50005   0.612   4.630  14.672
49389SOL    HW150006   0.654   4.620  14.758
49389SOL    HW250007   0.556   4.553  14.664
49390SOL     OW50008  12.100   9.006  12.012
49390SOL    HW150009  12.017   8.987  12.055
49390SOL    HW250010  12.104   9.102  12.009
49391SOL     OW50011  11.046   4.242  14.438
49391SOL    HW150012  11.020   4.220  14.349
49391SOL    HW250013  10.999   4.323  14.457
49392SOL     OW50014  10.445  13.304   9.010
49392SOL    HW150015  10.424  13.225   8.961
49392SOL    HW250016  10.396  13.295   9.092
49393SOL     OW50017  14.643  10.591   2.360
49393SOL    HW150018  14.573  10.656   2.356
49393SOL    HW250019  14.724  10.642   2.349
49394SOL     OW50020   1.835   3.066  13.361
49394SOL    HW150021   1.873   3.075  13.448
49394SOL    HW250022   1.902   3.022  13.310
49395SOL     OW50023   4.779  11.666  14.675
49395SOL    HW150024   4.762  11.687  14.583
49395SOL    HW250025   4.716  11.597  14.695
49396SOL     OW50026  12.966   3.462  14.288
49396SOL    HW150027  12.942   3.370  14.305
49396SOL    HW250028  12.888   3.512  14.311
49397SOL     OW50029  12.489   3.244  13.022
49397SOL    HW150030  12.450   3.313  12.968
49397SOL    HW250031  12.421   3.176  13.025
49398SOL     OW50032  11.676   2.039   9.660
49398SOL    HW150033  11.734   2.053   9.735
49398SOL    HW250034  11.672   2.124   9.616
49399SOL     OW50035   5.575   4.400   3.292
49399SOL    HW150036   5.628   4.321   3.281
49399SOL    HW250037   5.528   4.409   3.210
49400SOL     OW50038   6.529   7.256   4.461
49400SOL    HW150039   6.606   7.265   4.518
49400SOL    HW250040   6.565   7.261   4.372
49401SOL     OW50041  10.350  13.286   0.385
49401SOL    HW150042  10.320  13.207   0.341
49401SOL    HW250043  10.442  13.268   0.408
49402SOL     OW50044  10.563   6.168  11.454
49402SOL    HW150045  10.551   6.152  11.361
49402SOL    HW250046  10.476   6.161  11.492
49403SOL     OW50047  13.229  12.089   4.375
49403SOL    HW150048  13.178  12.139   4.438
49403SOL    HW250049  13.291  12.153   4.338
49404SOL     OW50050   0.775   2.308   5.170
49404SOL    HW150051   0.757   2.215   5.181
49404SOL    HW250052   0.771   2.323   5.076
49405SOL     OW50053   4.921   7.813  13.060
49405SOL    HW150054   4.995   7.873  13.064
49405SOL    HW250055   4.844   7.869  13.069
49406SOL     OW50056   5.786  12.942   5.141
49406SOL    HW150057   5.717  13.005   5.121
49406SOL    HW250058   5.862  12.973   5.092
49407SOL     OW50059  11.709   7.454   3.078
49407SOL    HW150060  11.634   7.444   3.136
49407SOL    HW250061  11.725   7.365   3.045
49408SOL     OW50062   8.845  14.533   6.654
49408SOL    HW150063   8.903  14.503   6.583
49408SOL    HW250064   8.859  14.628   6.657
49409SOL     OW50065   1.892  11.132   5.379
49409SOL    HW150066   1.862  11.195   5.446
49409SOL    HW250067   1.898  11.184   5.299
49410SOL     OW50068  10.927   0.647   3.321
49410SOL    HW150069  10.900   0.641   3.229
49410SOL    HW250070  10.959   0.560   3.343
49411SOL     OW50071   3.000  14.081   1.635
49411SOL    HW150072   3.045  14.063   1.552
49411SOL    HW250073   3.008  14.175   1.647
49412SOL     OW50074   6.459   4.118  13.198
49412SOL    HW150075   6.523   4.095  13.264
49412SOL    HW250076   6.468   4.213  13.188
49413SOL     OW50077  11.266   5.274   3.133
49413SOL    HW150078  11.288   5.230   3.215
49413SOL    HW250079  11.194   5.223   3.097
49414SOL     OW50080   3.082   7.105  14.751
49414SOL    HW150081   3.169   7.145  14.740
49414SOL    HW250082   3.040   7.115  14.666
49415SOL     OW50083  13.709   9.157   5.184
49415SOL    HW150084  13.664   9.240   5.201
49415SOL    HW250085  13.767   9.176   5.110
49416SOL     OW50086   5.989   6.430   3.960
49416SOL    HW150087   5.964   6.457   3.871
49416SOL    HW250088   6.083   6.448   3.965
49417SOL     OW50089   7.820   0.237  11.856
49417SOL    HW150090   7.788   0.279  11.936
49417SOL    HW250091   7.914   0.255  11.855
49418SOL     OW50092   8.885   6.865   0.579
49418SOL    HW150093   8.862   6.787   0.529
49418SOL    HW250094   8.916   6.928   0.514
49419SOL     OW50095   2.228   0.426   8.647
49419SOL    HW150096   2.311   0.386   8.622
49419SOL    HW250097   2.162   0.364   8.617
49420SOL     OW50098   3.230   9.936  13.937
49420SOL    HW150099   3.204   9.961  13.848
49420SOL    HW250100   3.267   9.848  13.927
49421SOL     OW50101   0.385   1.604  10.261
49421SOL    HW150102   0.413   1.692  10.238
49421SOL    HW250103   0.430   1.585  10.343
49422SOL     OW50104   5.683  12.249   0.101
49422SOL    HW150105   5.701  12.178   0.039
49422SOL    HW250106   5.693  12.209   0.187
49423SOL     OW50107   1.956   2.039  14.162
49423SOL    HW150108   2.034   1.988  14.186
49423SOL    HW250109   1.987   2.096  14.091
49424SOL     OW50110   6.633   3.380   7.028
49424SOL    HW150111   6.669   3.393   6.940
49424SOL    HW250112   6.570   3.308   7.018
49425SOL     OW50113  14.017   8.147   2.429
49425SOL    HW150114  13.940   8.166   2.482
49425SOL    HW250115  14.059   8.232   2.415
49426SOL     OW50116   5.377   1.392   0.573
49426SOL    HW150117   5.327   1.361   0.648
49426SOL    HW250118   5.353   1.333   0.502
49427SOL     OW50119   6.404   9.067   1.242
49427SOL    HW150120   6.337   9.013   1.283
49427SOL    HW250121   6.442   9.117   1.314
49428SOL     OW50122  11.385   2.949   3.623
49428SOL    HW150123  11.353   3.028   3.667
49428SOL    HW250124  11.465   2.926   3.670
49429SOL     OW50125   3.308   2.388   0.899
49429SOL    HW150126   3.338   2.356   0.814
49429SOL    HW250127   3.259   2.468   0.879
49430SOL     OW50128  14.077   7.768   1.957
49430SOL    HW150129  14.089   7.734   2.046
49430SOL    HW250130  14.080   7.690   1.901
49431SOL     OW50131   2.557   0.372   6.875
49431SOL    HW150132   2.568   0.320   6.795
49431SOL    HW250133   2.635   0.352   6.928
49432SOL     OW50134  11.580   3.835  13.717
49432SOL    HW150135  11.621   3.895  13.779
49432SOL    HW250136  11.577   3.885  13.635
49433SOL     OW50137  11.831   7.833  11.360
49433SOL    HW150138  11.765   7.783  11.408
49433SOL    HW250139  11.788   7.917  11.341
49434SOL     OW50140   9.283  13.942   0.536
49434SOL    HW150141   9.196  13.937   0.495
49434SOL    HW250142   9.265  13.940   0.630
49435SOL     OW50143  11.267  12.466   5.456
49435SOL    HW150144  11.272  12.449   5.362
49435SOL    HW250145  11.263  12.379   5.495
49436SOL     OW50146   2.286  10.507   6.222
49436SOL    HW150147   2.331  10.505   6.307
49436SOL    HW250148   2.208  10.452   6.235
49437SOL     OW50149   9.473   3.240   4.169
49437SOL    HW150150   9.545   3.290   4.130
49437SOL    HW250151   9.447   3.291   4.246
49438SOL     OW50152   3.452  10.374   4.897
49438SOL    HW150153   3.431  10.406   4.985
49438SOL    HW250154   3.414  10.286   4.894
49439SOL     OW50155   3.799   8.486   4.143
49439SOL    HW150156   3.845   8.432   4.078
49439SOL    HW250157   3.733   8.533   4.091
49440SOL     OW50158   9.443  11.495   8.183
49440SOL    HW150159   9.373  11.508   8.247
49440SOL    HW250160   9.475  11.582   8.163
49441SOL     OW50161  12.331  11.587   0.060
49441SOL    HW150162  12.306  11.497   0.079
49441SOL    HW250163  12.358  11.623   0.144
49442SOL     OW50164   2.136   2.498   5.705
49442SOL    HW150165   2.195   2.573   5.707
49442SOL    HW250166   2.049   2.536   5.703
49443SOL     OW50167  13.938   4.083   8.595
49443SOL    HW150168  13.972   4.171   8.581
49443SOL    HW250169  13.983   4.029   8.530
49444SOL     OW50170  11.230   2.078  14.281
49444SOL    HW150171  11.289   2.088  14.355
49444SOL    HW250172  11.143   2.096  14.317
49445SOL     OW50173   1.428   5.341  14.594
49445SOL    HW150174   1.502   5.333  14.534
49445SOL    HW250175   1.443   5.424  14.640
49446SOL     OW50176   7.069   4.445  13.554
49446SOL    HW150177   7.128   4.444  13.629
49446SOL    HW250178   7.060   4.353  13.529
49447SOL     OW50179   9.422   4.533  10.693
49447SOL    HW150180   9.444   4.620  10.661
49447SOL    HW250181   9.335   4.544  10.733
49448SOL     OW50182   5.602  14.411  12.406
49448SOL    HW150183   5.599  14.500  12.441
49448SOL    HW250184   5.634  14.357  12.479
49449SOL     OW50185   0.913  12.845   4.469
49449SOL    HW150186   0.879  12.919   4.418
49449SOL    HW250187   0.843  12.780   4.466
49450SOL     OW50188   0.411   4.862  13.214
49450SOL    HW150189   0.442   4.916  13.142
49450SOL    HW250190   0.320   4.888  13.227
49451SOL     OW50191   6.502   7.014   3.530
49451SOL    HW150192   6.565   7.085   3.543
49451SOL    HW250193   6.425   7.040   3.580
49452SOL     OW50194   8.850   4.939  10.561
49452SOL    HW150195   8.897   5.009  10.516
49452SOL    HW250196   8.818   4.981  10.641
49453SOL     OW50197   4.809   4.504   2.760
49453SOL    HW150198   4.805   4.414   2.793
49453SOL    HW250199   4.752   4.554   2.820
49454SOL     OW50200  12.729  14.753   8.679
49454SOL    HW150201  12.721  14.804   8.760
49454SOL    HW250202  12.746  14.664   8.709
49455SOL     OW50203  13.630   4.010   5.692
49455SOL    HW150204  13.709   3.958   5.678
49455SOL    HW250205  13.590   4.015   5.605
49456SOL     OW50206   3.801   2.371  13.445
49456SOL    HW150207   3.879   2.391  13.394
49456SOL    HW250208   3.812   2.420  13.527
49457SOL     OW50209  14.685   2.378  13.306
49457SOL    HW150210  14.746   2.305  13.296
49457SOL    HW250211  14.720   2.447  13.250
49458SOL     OW50212   3.853   3.525   5.008
49458SOL    HW150213   3.868   3.484   4.923
49458SOL    HW250214   3.938   3.521   5.052
49459SOL     OW50215  11.342  14.666   0.465
49459SOL    HW150216  11.314  14.575   0.475
49459SOL    HW250217  11.333  14.683   0.371
49460SOL     OW50218   3.951   4.058   7.169
49460SOL    HW150219   3.863   4.096   7.178
49460SOL    HW250220   3.975   4.035   7.258
49461SOL     OW50221  14.022  12.578   1.105
49461SOL    HW150222  14.026  12.485   1.082
49461SOL    HW250223  14.056  12.623   1.028
49462SOL     OW50224   9.811  11.963   8.876
49462SOL    HW150225   9.866  11.948   8.799
49462SOL    HW250226   9.809  12.058   8.885
49463SOL     OW50227   8.620  10.372  10.603
49463SOL    HW150228   8.714  10.390  10.597
49463SOL    HW250229   8.580  10.431  10.539
49464SOL     OW50230  10.977   5.824  14.293
49464SOL    HW150231  11.015   5.864  14.214
49464SOL    HW250232  10.983   5.730  14.277
49465SOL     OW50233   7.714   2.274  14.192
49465SOL    HW150234   7.673   2.345  14.143
49465SOL    HW250235   7.787   2.315  14.237
49466SOL     OW50236   6.649   6.028   8.691
49466SOL    HW150237   6.625   6.012   8.600
49466SOL    HW250238   6.624   6.120   8.706
49467SOL     OW50239  10.479   6.935   9.589
49467SOL    HW150240  10.427   7.015   9.581
49467SOL    HW250241  10.425   6.876   9.641
49468SOL     OW50242  10.241   9.705  13.907
49468SOL    HW150243  10.191   9.700  13.989
49468SOL    HW250244  10.238   9.798  13.883
49469SOL     OW50245   1.308   6.748  10.746
49469SOL    HW150246   1.288   6.781  10.834
49469SOL    HW250247   1.237   6.687  10.727
49470SOL     OW50248   9.136  10.850   3.565
49470SOL    HW150249   9.201  10.807   3.509
49470SOL    HW250250   9.094  10.779   3.613
49471SOL     OW50251   3.188  14.810  11.081
49471SOL    HW150252   3.154   0.002  11.022
49471SOL    HW250253   3.275  14.789  11.046
49472SOL     OW50254   1.401  12.421  11.794
49472SOL    HW150255   1.445  12.394  11.714
49472SOL    HW250256   1.308  12.420  11.771
49473SOL     OW50257  14.366  13.612   5.238
49473SOL    HW150258  14.395  13.523   5.256
49473SOL    HW250259  14.278  13.602   5.203
49474SOL     OW50260   8.996   8.194  10.063
49474SOL    HW150261   9.052   8.166  10.135
49474SOL    HW250262   8.909   8.160  10.085
49475SOL     OW50263   2.176   0.158   4.911
49475SOL    HW150264   2.253   0.212   4.928
49475SOL    HW250265   2.116   0.215   4.863
49476SOL     OW50266  14.533   9.136   7.704
49476SOL    HW150267  14.552   9.130   7.797
49476SOL    HW250268  14.498   9.224   7.692
49477SOL     OW50269   3.435   1.331   8.642
49477SOL    HW150270   3.352   1.352   8.685
49477SOL    HW250271   3.414   1.328   8.549
49478SOL     OW50272   9.779  11.735   6.014
49478SOL    HW150273   9.712  11.676   5.978
49478SOL    HW250274   9.858  11.681   6.020
49479SOL     OW50275  11.631  10.434   4.379
49479SOL    HW150276  11.713  10.466   4.340
49479SOL    HW250277  11.562  10.472   4.324
49480SOL     OW50278   3.432  12.280   5.254
49480SOL    HW150279   3.527  12.286   5.247
49480SOL    HW250280   3.404  12.363   5.291
49481SOL     OW50281   4.165   2.216  10.221
49481SOL    HW150282   4.250   2.176  10.203
49481SOL    HW250283   4.164   2.231  10.315
49482SOL     OW50284  13.435  13.881  13.352
49482SOL    HW150285  13.341  13.897  13.351
49482SOL    HW250286  13.475  13.968  13.356
49483SOL     OW50287  12.068  12.273   4.798
49483SOL    HW150288  11.984  12.264   4.844
49483SOL    HW250289  12.099  12.184   4.787
49484SOL     OW50290   2.892   0.329   3.644
49484SOL    HW150291   2.948   0.396   3.684
49484SOL    HW250292   2.925   0.247   3.681
49485SOL     OW50293   0.653   2.395   8.064
49485SOL    HW150294   0.646   2.326   7.998
49485SOL    HW250295   0.591   2.462   8.036
49486SOL     OW50296   4.734   4.065   8.155
49486SOL    HW150297   4.783   4.102   8.082
49486SOL    HW250298   4.753   4.123   8.228
49487SOL     OW50299   4.899  13.447   5.147
49487SOL    HW150300   4.921  13.365   5.101
49487SOL    HW250301   4.976  13.466   5.200
49488SOL     OW50302   1.752   4.112   4.477
49488SOL    HW150303   1.733   4.190   4.530
49488SOL    HW250304   1.820   4.066   4.525
49489SOL     OW50305   2.460   6.722   3.285
49489SOL    HW150306   2.409   6.798   3.256
49489SOL    HW250307   2.456   6.726   3.381
49490SOL     OW50308   5.729   3.556   2.788
49490SOL    HW150309   5.785   3.572   2.864
49490SOL    HW250310   5.755   3.622   2.724
49491SOL     OW50311   4.617  14.660   4.159
49491SOL    HW150312   4.697  14.608   4.148
49491SOL    HW250313   4.588  14.642   4.248
49492SOL     OW50314  12.324  12.836  12.209
49492SOL    HW150315  12.293  12.819  12.298
49492SOL    HW250316  12.379  12.761  12.187
49493SOL     OW50317  13.099   2.155  13.210
49493SOL    HW150318  13.062   2.144  13.298
49493SOL    HW250319  13.086   2.248  13.190
49494SOL     OW50320  12.813  10.137   1.838
49494SOL    HW150321  12.797  10.229   1.857
49494SOL    HW250322  12.902  10.135   1.804
49495SOL     OW50323   0.982   4.965  12.408
49495SOL    HW150324   0.953   5.029  12.473
49495SOL    HW250325   0.943   4.994  12.326
49496SOL     OW50326  14.201  12.378   2.139
49496SOL    HW150327  14.261  12.446   2.169
49496SOL    HW250328  14.121  12.425   2.115
49497SOL     OW50329   6.352  11.432  14.409
49497SOL    HW150330   6.266  11.473  14.411
49497SOL    HW250331   6.403  11.482  14.472
49498SOL     OW50332   2.508   3.249  13.012
49498SOL    HW150333   2.465   3.334  13.021
49498SOL    HW250334   2.602   3.269  13.019
49499SOL     OW50335  12.185  11.261   8.286
49499SOL    HW150336  12.243  11.247   8.212
49499SOL    HW250337  12.099  11.277   8.246
49500SOL     OW50338  12.697   1.755   8.081
49500SOL    HW150339  12.629   1.706   8.127
49500SOL    HW250340  12.649   1.807   8.017
49501SOL     OW50341   8.683   2.363   0.275
49501SOL    HW150342   8.615   2.303   0.304
49501SOL    HW250343   8.647   2.408   0.199
49502SOL     OW50344  12.446  10.296  10.139
49502SOL    HW150345  12.370  10.346  10.110
49502SOL    HW250346  12.454  10.225  10.076
49503SOL     OW50347   4.045   8.963   0.137
49503SOL    HW150348   4.005   9.049   0.144
49503SOL    HW250349   3.980   8.909   0.092
49504SOL     OW50350   0.168   4.391   3.273
49504SOL    HW150351   0.262   4.380   3.262
49504SOL    HW250352   0.149   4.353   3.359
49505SOL     OW50353   2.111   4.959  11.446
49505SOL    HW150354   2.065   5.005  11.376
49505SOL    HW250355   2.041   4.935  11.508
49506SOL     OW50356   9.023   6.724  11.711
49506SOL    HW150357   9.036   6.681  11.796
49506SOL    HW250358   9.104   6.706  11.663
49507SOL     OW50359   0.780   8.984  14.787
49507SOL    HW150360   0.705   8.970  14.845
49507SOL    HW250361   0.758   9.063  14.737
49508SOL     OW50362   2.228   0.866   3.199
49508SOL    HW150363   2.290   0.807   3.155
49508SOL    HW250364   2.276   0.948   3.208
49509SOL     OW50365   0.540   0.636  12.472
49509SOL    HW150366   0.532   0.564  12.409
49509SOL    HW250367   0.452   0.675  12.474
49510SOL     OW50368   8.655  10.482   5.346
49510SOL    HW150369   8.710  10.555   5.315
49510SOL    HW250370   8.652  10.493   5.441
49511SOL     OW50371   8.296  12.842   6.233
49511SOL    HW150372   8.389  12.861   6.225
49511SOL    HW250373   8.289  12.788   6.312
49512SOL     OW50374   6.412  13.201  14.736
49512SOL    HW150375   6.373  13.137  14.676
49512SOL    HW250376   6.370  13.284  14.714
49513SOL     OW50377   3.104   3.434   2.699
49513SOL    HW150378   3.113   3.339   2.697
49513SOL    HW250379   3.064   3.456   2.615
49514SOL     OW50380   0.289  10.204  13.780
49514SOL    HW150381   0.362  10.257  13.811
49514SOL    HW250382   0.308  10.116  13.812
49515SOL     OW50383  10.664   5.060  11.269
49515SOL    HW150384  10.578   5.046  11.308
49515SOL    HW250385  10.692   4.973  11.241
49516SOL     OW50386  10.802  10.820  11.854
49516SOL    HW150387  10.755  10.881  11.911
49516SOL    HW250388  10.773  10.843  11.765
49517SOL     OW50389   2.044   2.916   1.228
49517SOL    HW150390   2.133   2.942   1.250
49517SOL    HW250391   1.997   2.998   1.214
49518SOL     OW50392   1.461   7.356   2.803
49518SOL    HW150393   1.419   7.425   2.752
49518SOL    HW250394   1.518   7.403   2.864
49519SOL     OW50395  11.003   7.620   6.759
49519SOL    HW150396  10.915   7.604   6.795
49519SOL    HW250397  11.000   7.579   6.673
49520SOL     OW50398  13.564   1.686   4.389
49520SOL    HW150399  13.525   1.689   4.476
49520SOL    HW250400  13.554   1.594   4.362
49521SOL     OW50401   2.441  10.581  11.865
49521SOL    HW150402   2.378  10.537  11.807
49521SOL    HW250403   2.473  10.655  11.813
49522SOL     OW50404   5.875  10.657   0.999
49522SOL    HW150405   5.907  10.728   0.944
49522SOL    HW250406   5.879  10.580   0.942
49523SOL     OW50407  11.988  11.912   9.158
49523SOL    HW150408  11.999  11.848   9.088
49523SOL    HW250409  12.063  11.898   9.216
49524SOL     OW50410   1.346   5.316   9.732
49524SOL    HW150411   1.302   5.396   9.759
49524SOL    HW250412   1.423   5.310   9.789
49525SOL     OW50413  12.751   7.428  11.544
49525SOL    HW150414  12.790   7.344  11.569
49525SOL    HW250415  12.825   7.489  11.540
49526SOL     OW50416   1.271   5.399   7.132
49526SOL    HW150417   1.352   5.363   7.097
49526SOL    HW250418   1.250   5.472   7.074
49527SOL     OW50419  12.444   2.614   2.938
49527SOL    HW150420  12.387   2.690   2.950
49527SOL    HW250421  12.406   2.567   2.864
49528SOL     OW50422   2.282   7.500  13.985
49528SOL    HW150423   2.230   7.449  14.046
49528SOL    HW250424   2.294   7.443  13.909
49529SOL     OW50425   1.767   2.642   6.895
49529SOL    HW150426   1.725   2.603   6.972
49529SOL    HW250427   1.833   2.578   6.868
49530SOL     OW50428   5.243  14.747  11.645
49530SOL    HW150429   5.289  14.693  11.709
49530SOL    HW250430   5.165  14.697  11.622
49531SOL     OW50431   3.871  11.360   1.817
49531SOL    HW150432   3.956  11.336   1.855
49531SOL    HW250433   3.868  11.455   1.822
49532SOL     OW50434   0.845  10.220   7.962
49532SOL    HW150435   0.862  10.286   8.030
49532SOL    HW250436   0.852  10.268   7.880
49533SOL     OW50437   9.601  12.528   4.895
49533SOL    HW150438   9.638  12.604   4.938
49533SOL    HW250439   9.544  12.564   4.827
49534SOL     OW50440  12.178  12.185  11.771
49534SOL    HW150441  12.261  12.146  11.796
49534SOL    HW250442  12.166  12.160  11.679
49535SOL     OW50443   6.302   2.357   3.174
49535SOL    HW150444   6.246   2.413   3.228
49535SOL    HW250445   6.389   2.396   3.183
49536SOL     OW50446  13.078   7.551   9.014
49536SOL    HW150447  13.172   7.563   9.005
49536SOL    HW250448  13.068   7.492   9.089
49537SOL     OW50449   7.928  11.533   2.600
49537SOL    HW150450   7.857  11.580   2.645
49537SOL    HW250451   8.006  11.552   2.652
49538SOL     OW50452  10.572  13.334  14.783
49538SOL    HW150453  10.631  13.319  14.856
49538SOL    HW250454  10.527  13.250  14.770
49539SOL     OW50455   7.205   7.273   2.371
49539SOL    HW150456   7.148   7.280   2.294
49539SOL    HW250457   7.198   7.181   2.397
49540SOL     OW50458   8.007   5.745  12.304
49540SOL    HW150459   8.038   5.796  12.378
49540SOL    HW250460   7.941   5.801  12.262
49541SOL     OW50461  12.243   3.939  11.268
49541SOL    HW150462  12.176   3.950  11.201
49541SOL    HW250463  12.284   4.026  11.276
49542SOL     OW50464  13.941   4.776   7.083
49542SOL    HW150465  14.008   4.786   7.151
49542SOL    HW250466  13.953   4.687   7.051
49543SOL     OW50467   9.433   1.236  10.387
49543SOL    HW150468   9.452   1.155  10.435
49543SOL    HW250469   9.520   1.274  10.370
49544SOL     OW50470   5.807   5.219  13.583
49544SOL    HW150471   5.739   5.153  13.570
49544SOL    HW250472   5.807   5.235  13.677
49545SOL     OW50473   7.637   8.973   0.789
49545SOL    HW150474   7.632   9.020   0.706
49545SOL    HW250475   7.559   9.001   0.838
49546SOL     OW50476   8.466   1.234   8.610
49546SOL    HW150477   8.465   1.141   8.587
49546SOL    HW250478   8.543   1.269   8.566
49547SOL     OW50479  12.887   2.384   2.358
49547SOL    HW150480  12.883   2.476   2.331
49547SOL    HW250481  12.865   2.334   2.279
49548SOL     OW50482   8.582  14.295   2.730
49548SOL    HW150483   8.595  14.275   2.823
49548SOL    HW250484   8.625  14.223   2.684
49549SOL     OW50485   5.141   9.342   8.526
49549SOL    HW150486   5.099   9.310   8.606
49549SOL    HW250487   5.200   9.270   8.500
49550SOL     OW50488   1.109   4.446   9.224
49550SOL    HW150489   1.134   4.360   9.190
49550SOL    HW250490   1.156   4.508   9.169
49551SOL     OW50491  13.915   8.283  13.304
49551SOL    HW150492  13.843   8.274  13.242
49551SOL    HW250493  13.928   8.377  13.312
49552SOL     OW50494   0.370   9.288  10.758
49552SOL    HW150495   0.341   9.351  10.824
49552SOL    HW250496   0.465   9.283  10.770
49553SOL     OW50497   2.710  11.975   3.968
49553SOL    HW150498   2.626  11.947   3.931
49553SOL    HW250499   2.698  12.068   3.986
49554SOL     OW50500   9.571   2.557   3.833
49554SOL    HW150501   9.663   2.583   3.826
49554SOL    HW250502   9.522   2.627   3.789
49555SOL     OW50503   5.775  10.137  10.084
49555SOL    HW150504   5.844  10.202  10.091
49555SOL    HW250505   5.808  10.072  10.022
49556SOL     OW50506   9.915   4.197   2.171
49556SOL    HW150507   9.910   4.106   2.197
49556SOL    HW250508   9.844   4.240   2.218
49557SOL     OW50509   1.288   6.133   5.646
49557SOL    HW150510   1.278   6.051   5.599
49557SOL    HW250511   1.252   6.115   5.733
49558SOL     OW50512  12.461   7.935   2.373
49558SOL    HW150513  12.438   7.993   2.301
49558SOL    HW250514  12.463   7.993   2.450
49559SOL     OW50515   3.025   9.908   8.980
49559SOL    HW150516   3.109   9.879   8.945
49559SOL    HW250517   3.047   9.973   9.046
49560SOL     OW50518   0.310   5.762   5.135
49560SOL    HW150519   0.231   5.804   5.168
49560SOL    HW250520   0.300   5.763   5.040
49561SOL     OW50521   7.239   1.917  11.200
49561SOL    HW150522   7.216   1.870  11.120
49561SOL    HW250523   7.233   1.852  11.270
49562SOL     OW50524   7.476  12.483   6.142
49562SOL    HW150525   7.443  12.406   6.094
49562SOL    HW250526   7.538  12.447   6.205
49563SOL     OW50527   5.686   3.214   0.431
49563SOL    HW150528   5.648   3.283   0.485
49563SOL    HW250529   5.619   3.194   0.366
49564SOL     OW50530   4.656   3.153   0.468
49564SOL    HW150531   4.591   3.203   0.418
49564SOL    HW250532   4.739   3.197   0.448
49565SOL     OW50533  13.967   6.330   3.547
49565SOL    HW150534  13.952   6.366   3.459
49565SOL    HW250535  13.965   6.235   3.535
49566SOL     OW50536  11.314   2.303   0.441
49566SOL    HW150537  11.390   2.356   0.464
49566SOL    HW250538  11.288   2.261   0.523
49567SOL     OW50539   5.053  10.827   6.388
49567SOL    HW150540   5.105  10.776   6.449
49567SOL    HW250541   5.056  10.777   6.306
49568SOL     OW50542   7.009   4.744   0.895
49568SOL    HW150543   6.919   4.716   0.912
49568SOL    HW250544   7.015   4.832   0.932
49569SOL     OW50545   0.025   9.852   5.018
49569SOL    HW150546   0.077   9.771   5.015
49569SOL    HW250547   0.055   9.902   4.942
49570SOL     OW50548   2.802   5.914   2.619
49570SOL    HW150549   2.739   5.843   2.632
49570SOL    HW250550   2.772   5.984   2.676
49571SOL     OW50551   6.684   2.807  11.049
49571SOL    HW150552   6.779   2.793  11.040
49571SOL    HW250553   6.649   2.720  11.070
49572SOL     OW50554  14.794  14.791  12.979
49572SOL    HW150555  14.731  14.858  13.004
49572SOL    HW250556  14.756  14.709  13.010
49573SOL     OW50557   7.291   7.001   6.312
49573SOL    HW150558   7.280   7.096   6.312
49573SOL    HW250559   7.285   6.977   6.404
49574SOL     OW50560   4.929   6.278   4.856
49574SOL    HW150561   4.931   6.299   4.763
49574SOL    HW250562   5.009   6.228   4.872
49575SOL     OW50563   8.572   8.149  13.042
49575SOL    HW150564   8.622   8.096  13.104
49575SOL    HW250565   8.578   8.102  12.959
49576SOL     OW50566   3.267   4.292   6.848
49576SOL    HW150567   3.228   4.346   6.917
49576SOL    HW250568   3.247   4.339   6.767
49577SOL     OW50569   8.859   7.140   5.633
49577SOL    HW150570   8.927   7.073   5.626
49577SOL    HW250571   8.779   7.095   5.606
49578SOL     OW50572   3.862   8.031   9.730
49578SOL    HW150573   3.878   8.087   9.654
49578SOL    HW250574   3.796   7.968   9.701
49579SOL     OW50575   9.224   3.937   5.650
49579SOL    HW150576   9.220   4.001   5.721
49579SOL    HW250577   9.259   3.858   5.692
49580SOL     OW50578   3.824  10.079   3.577
49580SOL    HW150579   3.821  10.151   3.514
49580SOL    HW250580   3.787  10.005   3.530
49581SOL     OW50581  13.897   6.884   9.047
49581SOL    HW150582  13.895   6.979   9.058
49581SOL    HW250583  13.924   6.871   8.955
49582SOL     OW50584   4.933  13.210  10.272
49582SOL    HW150585   5.019  13.215  10.230
49582SOL    HW250586   4.871  13.198  10.200
49583SOL     OW50587   8.646   9.133   7.531
49583SOL    HW150588   8.682   9.219   7.553
49583SOL    HW250589   8.577   9.119   7.596
49584SOL     OW50590   0.501   3.877  13.908
49584SOL    HW150591   0.473   3.808  13.848
49584SOL    HW250592   0.419   3.916  13.939
49585SOL     OW50593  14.209   2.789   0.538
49585SOL    HW150594  14.174   2.721   0.594
49585SOL    HW250595  14.177   2.768   0.451
49586SOL     OW50596  12.330   1.686  10.516
49586SOL    HW150597  12.404   1.726  10.471
49586SOL    HW250598  12.257   1.747  10.502
49587SOL     OW50599   8.638   8.437   9.928
49587SOL    HW150600   8.643   8.519   9.879
49587SOL    HW250601   8.707   8.445   9.994
49588SOL     OW50602   7.381  13.186  12.519
49588SOL    HW150603   7.380  13.094  12.492
49588SOL    HW250604   7.411  13.183  12.610
49589SOL     OW50605  14.125   3.818   9.197
49589SOL    HW150606  14.170   3.795   9.278
49589SOL    HW250607  14.107   3.912   9.204
49590SOL     OW50608   3.439   4.969   8.293
49590SOL    HW150609   3.501   4.906   8.256
49590SOL    HW250610   3.494   5.042   8.324
49591SOL     OW50611  14.208   8.896   2.372
49591SOL    HW150612  14.136   8.908   2.311
49591SOL    HW250613  14.224   8.984   2.408
49592SOL     OW50614   6.579   0.478   4.889
49592SOL    HW150615   6.582   0.450   4.980
49592SOL    HW250616   6.667   0.460   4.855
49593SOL     OW50617  11.066   0.286  10.024
49593SOL    HW150618  11.121   0.348   9.975
49593SOL    HW250619  10.978   0.300   9.991
49594SOL     OW50620  12.624   6.196   8.463
49594SOL    HW150621  12.684   6.146   8.517
49594SOL    HW250622  12.678   6.267   8.427
49595SOL     OW50623   2.582   6.301   0.891
49595SOL    HW150624   2.624   6.328   0.973
49595SOL    HW250625   2.621   6.216   0.871
49596SOL     OW50626  14.320   5.384   3.027
49596SOL    HW150627  14.397   5.408   3.078
49596SOL    HW250628  14.275   5.319   3.082
49597SOL     OW50629  10.762   9.231   3.987
49597SOL    HW150630  10.747   9.259   4.078
49597SOL    HW250631  10.762   9.136   3.991
49598SOL     OW50632   7.884  12.981   7.781
49598SOL    HW150633   7.921  13.017   7.862
49598SOL    HW250634   7.898  13.050   7.716
49599SOL     OW50635   2.663  11.713   6.589
49599SOL    HW150636   2.713  11.636   6.563
49599SOL    HW250637   2.600  11.726   6.518
49600SOL     OW50638  10.352   4.638   1.281
49600SOL    HW150639  10.344   4.551   1.242
49600SOL    HW250640  10.446   4.656   1.279
49601SOL     OW50641   0.797   2.530   7.148
49601SOL    HW150642   0.853   2.467   7.194
49601SOL    HW250643   0.809   2.509   7.056
49602SOL     OW50644   6.899   8.636   0.945
49602SOL    HW150645   6.819   8.612   0.991
49602SOL    HW250646   6.908   8.730   0.960
49603SOL     OW50647   1.682   9.231   3.180
49603SOL    HW150648   1.712   9.315   3.214
49603SOL    HW250649   1.762   9.181   3.163
49604SOL     OW50650   4.993  11.356   8.530
49604SOL    HW150651   5.019  11.282   8.586
49604SOL    HW250652   5.074  11.384   8.488
49605SOL     OW50653   7.304   2.590  14.804
49605SOL    HW150654   7.212   2.614  14.791
49605SOL    HW250655   7.333   2.644   0.003
49606SOL     OW50656   8.637   7.826   4.270
49606SOL    HW150657   8.557   7.776   4.255
49606SOL    HW250658   8.612   7.894   4.332
49607SOL     OW50659   4.988   4.918  13.231
49607SOL    HW150660   4.969   4.870  13.311
49607SOL    HW250661   4.942   4.870  13.162
49608SOL     OW50662  12.325   5.736   7.910
49608SOL    HW150663  12.371   5.737   7.993
49608SOL    HW250664  12.283   5.821   7.903
49609SOL     OW50665   4.249  10.434   2.534
49609SOL    HW150666   4.331  10.439   2.486
49609SOL    HW250667   4.214  10.523   2.533
49610SOL     OW50668   1.390   2.454   3.770
49610SOL    HW150669   1.331   2.488   3.703
49610SOL    HW250670   1.433   2.532   3.806
49611SOL     OW50671   2.400   5.872  12.958
49611SOL    HW150672   2.312   5.866  12.920
49611SOL    HW250673   2.448   5.801  12.916
49612SOL     OW50674   4.120   6.104   8.137
49612SOL    HW150675   4.055   6.167   8.167
49612SOL    HW250676   4.148   6.137   8.051
49613SOL     OW50677   3.794   2.473  11.552
49613SOL    HW150678   3.825   2.477  11.642
49613SOL    HW250679   3.857   2.417  11.507
49614SOL     OW50680  14.529   6.424   1.641
49614SOL    HW150681  14.608   6.402   1.593
49614SOL    HW250682  14.477   6.476   1.580
49615SOL     OW50683  13.027   1.522  10.811
49615SOL    HW150684  13.050   1.496  10.722
49615SOL    HW250685  12.986   1.445  10.850
49616SOL     OW50686   1.340   4.995   4.427
49616SOL    HW150687   1.261   5.024   4.472
49616SOL    HW250688   1.361   5.068   4.368
49617SOL     OW50689  12.446  11.995  10.351
49617SOL    HW150690  12.463  12.068  10.411
49617SOL    HW250691  12.356  12.009  10.321
49618SOL     OW50692  11.187   0.340   9.065
49618SOL    HW150693  11.170   0.355   8.972
49618SOL    HW250694  11.281   0.326   9.070
49619SOL     OW50695   0.994  12.925  14.392
49619SOL    HW150696   0.907  12.909  14.357
49619SOL    HW250697   0.986  12.909  14.486
49620SOL     OW50698   1.701   5.062   3.304
49620SOL    HW150699   1.655   5.091   3.225
49620SOL    HW250700   1.721   4.970   3.287
49621SOL     OW50701   2.194   1.108  13.084
49621SOL    HW150702   2.129   1.177  13.096
49621SOL    HW250703   2.272   1.139  13.130
49622SOL     OW50704  11.437   0.427   8.466
49622SOL    HW150705  11.391   0.511   8.470
49622SOL    HW250706  11.513   0.444   8.411
49623SOL     OW50707   3.401   5.947   4.959
49623SOL    HW150708   3.401   6.025   4.904
49623SOL    HW250709   3.344   5.969   5.033
49624SOL     OW50710   0.614   9.431  10.918
49624SOL    HW150711   0.559   9.388  10.984
49624SOL    HW250712   0.687   9.468  10.967
49625SOL     OW50713   3.451   8.736  12.187
49625SOL    HW150714   3.461   8.831  12.192
49625SOL    HW250715   3.458   8.716  12.094
49626SOL     OW50716   8.714   9.817   0.469
49626SOL    HW150717   8.686   9.850   0.554
49626SOL    HW250718   8.724   9.895   0.415
49627SOL     OW50719   8.528  12.490  13.390
49627SOL    HW150720   8.615  12.458  13.367
49627SOL    HW250721   8.529  12.581  13.361
49628SOL     OW50722   3.442   0.465   7.306
49628SOL    HW150723   3.383   0.442   7.234
49628SOL    HW250724   3.394   0.530   7.357
49629SOL     OW50725   5.965   4.611  13.476
49629SOL    HW150726   5.877   4.649  13.470
49629SOL    HW250727   6.017   4.661  13.413
49630SOL     OW50728   0.816  10.867   2.187
49630SOL    HW150729   0.738  10.923   2.188
49630SOL    HW250730   0.783  10.778   2.200
49631SOL     OW50731   9.875   0.246  12.898
49631SOL    HW150732   9.868   0.259  12.993
49631SOL    HW250733   9.967   0.225  12.883
49632SOL     OW50734   9.758  12.346   5.014
49632SOL    HW150735   9.793  12.404   5.082
49632SOL    HW250736   9.679  12.391   4.983
49633SOL     OW50737   1.256  11.096   5.783
49633SOL    HW150738   1.243  11.189   5.802
49633SOL    HW250739   1.344  11.077   5.815
49634SOL     OW50740   2.901   9.831   5.185
49634SOL    HW150741   2.954   9.903   5.220
49634SOL    HW250742   2.914   9.837   5.090
49635SOL     OW50743   6.538   0.154   4.954
49635SOL    HW150744   6.528   0.060   4.944
49635SOL    HW250745   6.448   0.187   4.959
49636SOL     OW50746  12.276  10.188  13.520
49636SOL    HW150747  12.357  10.137  13.513
49636SOL    HW250748  12.208  10.130  13.487
49637SOL     OW50749  10.868  12.444  13.732
49637SOL    HW150750  10.912  12.363  13.706
49637SOL    HW250751  10.819  12.470  13.654
49638SOL     OW50752   1.446  11.184  13.072
49638SOL    HW150753   1.481  11.219  13.154
49638SOL    HW250754   1.446  11.089  13.085
49639SOL     OW50755   4.573   2.482   5.453
49639SOL    HW150756   4.629   2.560   5.462
49639SOL    HW250757   4.494   2.504   5.502
49640SOL     OW50758   6.366   1.604   0.380
49640SOL    HW150759   6.325   1.626   0.464
49640SOL    HW250760   6.310   1.537   0.342
49641SOL     OW50761   9.430  13.686  12.938
49641SOL    HW150762   9.521  13.699  12.912
49641SOL    HW250763   9.428  13.711  13.031
49642SOL     OW50764   4.898   5.263   7.621
49642SOL    HW150765   4.862   5.247   7.708
49642SOL    HW250766   4.909   5.358   7.617
49643SOL     OW50767  13.800  10.048   4.374
49643SOL    HW150768  13.847  10.020   4.296
49643SOL    HW250769  13.849  10.123   4.406
49644SOL     OW50770   4.075   5.689   8.872
49644SOL    HW150771   4.159   5.657   8.903
49644SOL    HW250772   4.010   5.649   8.930
49645SOL     OW50773   6.007   0.898   3.027
49645SOL    HW150774   5.954   0.871   3.102
49645SOL    HW250775   6.095   0.909   3.063
49646SOL     OW50776  13.205  13.127   5.411
49646SOL    HW150777  13.118  13.094   5.434
49646SOL    HW250778  13.197  13.150   5.318
49647SOL     OW50779   9.135   4.554  13.864
49647SOL    HW150780   9.080   4.624  13.828
49647SOL    HW250781   9.077   4.504  13.922
49648SOL     OW50782   2.091   5.870  14.004
49648SOL    HW150783   2.038   5.796  13.975
49648SOL    HW250784   2.078   5.937  13.936
49649SOL     OW50785   0.945   3.933   6.240
49649SOL    HW150786   0.910   3.931   6.151
49649SOL    HW250787   0.914   3.851   6.279
49650SOL     OW50788   9.142  11.926   7.928
49650SOL    HW150789   9.225  11.900   7.968
49650SOL    HW250790   9.091  11.845   7.925
49651SOL     OW50791   9.680   1.401  13.511
49651SOL    HW150792   9.645   1.348  13.582
49651SOL    HW250793   9.622   1.477  13.506
49652SOL     OW50794   1.023   1.636   5.918
49652SOL    HW150795   1.004   1.693   5.844
49652SOL    HW250796   0.976   1.554   5.899
49653SOL     OW50797  10.605  14.033   1.692
49653SOL    HW150798  10.694  13.997   1.692
49653SOL    HW250799  10.611  14.111   1.747
49654SOL     OW50800   2.688   4.322   4.932
49654SOL    HW150801   2.770   4.353   4.893
49654SOL    HW250802   2.706   4.321   5.026
49655SOL     OW50803   4.966   9.591   1.578
49655SOL    HW150804   4.924   9.610   1.662
49655SOL    HW250805   4.916   9.518   1.542
49656SOL     OW50806   3.062   0.980   7.725
49656SOL    HW150807   3.080   0.921   7.652
49656SOL    HW250808   3.147   0.993   7.767
49657SOL     OW50809   5.301  12.172   2.477
49657SOL    HW150810   5.268  12.086   2.451
49657SOL    HW250811   5.396  12.159   2.488
49658SOL     OW50812  10.579   0.618   2.448
49658SOL    HW150813  10.626   0.596   2.368
49658SOL    HW250814  10.647   0.629   2.514
49659SOL     OW50815  10.522   1.330  14.666
49659SOL    HW150816  10.523   1.324  14.571
49659SOL    HW250817  10.486   1.246  14.696
49660SOL     OW50818  10.263   2.391   1.830
49660SOL    HW150819  10.265   2.456   1.901
49660SOL    HW250820  10.280   2.441   1.751
49661SOL     OW50821   4.363   7.635  12.498
49661SOL    HW150822   4.360   7.728  12.475
49661SOL    HW250823   4.403   7.633  12.585
49662SOL     OW50824   7.991  14.071   2.083
49662SOL    HW150825   7.908  14.111   2.108
49662SOL    HW250826   8.033  14.136   2.026
49663SOL     OW50827  11.917   7.266   5.114
49663SOL    HW150828  11.870   7.296   5.037
49663SOL    HW250829  11.849   7.235   5.174
49664SOL     OW50830   4.406  10.697  10.782
49664SOL    HW150831   4.377  10.734  10.698
49664SOL    HW250832   4.371  10.607  10.781
49665SOL     OW50833   7.042  12.457  10.136
49665SOL    HW150834   7.104  12.385  10.146
49665SOL    HW250835   7.090  12.524  10.088
49666SOL     OW50836   3.532  14.847  12.498
49666SOL    HW150837   3.481   0.026  12.436
49666SOL    HW250838   3.467  14.806  12.554
49667SOL     OW50839  11.980   6.390   2.139
49667SOL    HW150840  11.935   6.457   2.088
49667SOL    HW250841  12.068   6.424   2.152
49668SOL     OW50842   4.664   6.006   2.527
49668SOL    HW150843   4.724   5.967   2.591
49668SOL    HW250844   4.577   5.980   2.557
49669SOL     OW50845   1.633   9.227   9.380
49669SOL    HW150846   1.647   9.142   9.337
49669SOL    HW250847   1.586   9.205   9.461
49670SOL     OW50848   9.325   7.337   9.316
49670SOL    HW150849   9.291   7.398   9.251
49670SOL    HW250850   9.253   7.276   9.332
49671SOL     OW50851   7.632  12.718   2.070
49671SOL    HW150852   7.538  12.715   2.089
49671SOL    HW250853   7.667  12.639   2.112
49672SOL     OW50854   9.030   1.289   8.809
49672SOL    HW150855   8.963   1.305   8.876
49672SOL    HW250856   9.032   1.369   8.757
49673SOL     OW50857  13.417  10.646   6.703
49673SOL    HW150858  13.477  10.579   6.733
49673SOL    HW250859  13.417  10.637   6.607
49674SOL     OW50860   0.590  11.810   9.967
49674SOL    HW150861   0.593  11.729  10.018
49674SOL    HW250862   0.618  11.878  10.028
49675SOL     OW50863   5.512   8.101  14.003
49675SOL    HW150864   5.567   8.154  13.945
49675SOL    HW250865   5.525   8.011  13.973
49676SOL     OW50866   0.970  11.722   0.232
49676SOL    HW150867   0.925  11.746   0.314
49676SOL    HW250868   0.988  11.629   0.242
49677SOL     OW50869   1.396   8.582   6.059
49677SOL    HW150870   1.301   8.596   6.064
49677SOL    HW250871   1.417   8.535   6.139
49678SOL     OW50872  12.935   3.887  12.764
49678SOL    HW150873  12.952   3.942  12.688
49678SOL    HW250874  12.843   3.862  12.755
49679SOL     OW50875   9.847   0.099  10.657
49679SOL    HW150876   9.776   0.158  10.632
49679SOL    HW250877   9.922   0.130  10.606
49680SOL     OW50878   5.942   5.683   6.556
49680SOL    HW150879   5.997   5.759   6.577
49680SOL    HW250880   5.992   5.635   6.489
49681SOL     OW50881   2.831   5.111  14.159
49681SOL    HW150882   2.880   5.193  14.160
49681SOL    HW250883   2.845   5.076  14.070
49682SOL     OW50884   0.211  13.052   1.677
49682SOL    HW150885   0.202  13.144   1.701
49682SOL    HW250886   0.139  13.008   1.722
49683SOL     OW50887  10.198   3.966   1.347
49683SOL    HW150888  10.173   4.010   1.429
49683SOL    HW250889  10.293   3.974   1.343
49684SOL     OW50890  11.633   4.816  14.069
49684SOL    HW150891  11.714   4.799  14.117
49684SOL    HW250892  11.639   4.761  13.991
49685SOL     OW50893  11.378  11.627   3.025
49685SOL    HW150894  11.382  11.563   3.096
49685SOL    HW250895  11.423  11.704   3.059
49686SOL     OW50896   7.700   5.239   6.474
49686SOL    HW150897   7.725   5.264   6.563
49686SOL    HW250898   7.751   5.159   6.456
49687SOL     OW50899  14.688   0.090   8.045
49687SOL    HW150900  14.608   0.038   8.045
49687SOL    HW250901  14.758   0.026   8.060
49688SOL     OW50902   2.538   5.329  12.621
49688SOL    HW150903   2.463   5.362  12.671
49688SOL    HW250904   2.584   5.273  12.683
49689SOL     OW50905   6.510   1.224  14.059
49689SOL    HW150906   6.497   1.298  14.119
49689SOL    HW250907   6.442   1.162  14.082
49690SOL     OW50908   4.749  12.293  13.006
49690SOL    HW150909   4.791  12.375  12.982
49690SOL    HW250910   4.671  12.289  12.951
49691SOL     OW50911   7.785   3.338  11.902
49691SOL    HW150912   7.712   3.284  11.874
49691SOL    HW250913   7.812   3.301  11.986
49692SOL     OW50914  10.771   0.364   8.392
49692SOL    HW150915  10.740   0.450   8.420
49692SOL    HW250916  10.854   0.353   8.439
49693SOL     OW50917   4.877   2.479   0.337
49693SOL    HW150918   4.821   2.427   0.394
49693SOL    HW250919   4.891   2.561   0.385
49694SOL     OW50920   1.962   2.414   3.980
49694SOL    HW150921   1.946   2.411   3.886
49694SOL    HW250922   2.055   2.436   3.988
49695SOL     OW50923   3.766  12.742  14.502
49695SOL    HW150924   3.730  12.665  14.546
49695SOL    HW250925   3.754  12.813  14.565
49696SOL     OW50926   9.496   1.333   3.718
49696SOL    HW150927   9.415   1.311   3.765
49696SOL    HW250928   9.478   1.308   3.627
49697SOL     OW50929   6.342  13.187   8.540
49697SOL    HW150930   6.426  13.186   8.494
49697SOL    HW250931   6.291  13.253   8.494
49698SOL     OW50932   4.247   7.002   6.729
49698SOL    HW150933   4.287   7.089   6.728
49698SOL    HW250934   4.178   7.006   6.663
49699SOL     OW50935   1.650  11.250   4.598
49699SOL    HW150936   1.598  11.207   4.666
49699SOL    HW250937   1.585  11.283   4.536
49700SOL     OW50938  10.397  10.506   4.612
49700SOL    HW150939  10.397  10.422   4.656
49700SOL    HW250940  10.406  10.485   4.519
49701SOL     OW50941   2.401   0.570   4.148
49701SOL    HW150942   2.346   0.598   4.075
49701SOL    HW250943   2.349   0.504   4.194
49702SOL     OW50944   3.748   7.797   0.038
49702SOL    HW150945   3.671   7.760  14.869
49702SOL    HW250946   3.823   7.762  14.863
49703SOL     OW50947   4.255   7.851  12.206
49703SOL    HW150948   4.292   7.763  12.207
49703SOL    HW250949   4.304   7.898  12.274
49704SOL     OW50950   2.945   2.219   8.073
49704SOL    HW150951   2.928   2.311   8.092
49704SOL    HW250952   2.864   2.188   8.032
49705SOL     OW50953  13.652  13.544   1.374
49705SOL    HW150954  13.592  13.616   1.391
49705SOL    HW250955  13.607  13.466   1.406
49706SOL     OW50956   3.275   4.138  12.286
49706SOL    HW150957   3.203   4.146  12.224
49706SOL    HW250958   3.342   4.198  12.252
49707SOL     OW50959   8.758   5.824  10.202
49707SOL    HW150960   8.777   5.917  10.193
49707SOL    HW250961   8.717   5.816  10.288
49708SOL     OW50962   5.306  13.618   6.851
49708SOL    HW150963   5.254  13.544   6.882
49708SOL    HW250964   5.250  13.694   6.867
49709SOL     OW50965   3.455  10.855   6.394
49709SOL    HW150966   3.450  10.795   6.469
49709SOL    HW250967   3.431  10.801   6.319
49710SOL     OW50968   9.164  10.103   9.096
49710SOL    HW150969   9.172  10.161   9.021
49710SOL    HW250970   9.114  10.028   9.063
49711SOL     OW50971   4.637   9.640   7.261
49711SOL    HW150972   4.568   9.577   7.281
49711SOL    HW250973   4.718   9.594   7.282
49712SOL     OW50974   7.999   1.275   3.262
49712SOL    HW150975   7.977   1.240   3.176
49712SOL    HW250976   8.085   1.316   3.250
49713SOL     OW50977   0.700  10.630   2.222
49713SOL    HW150978   0.714  10.549   2.270
49713SOL    HW250979   0.624  10.612   2.166
49714SOL     OW50980   5.461   4.147   3.524
49714SOL    HW150981   5.415   4.076   3.481
49714SOL    HW250982   5.547   4.150   3.482
49715SOL     OW50983   5.223   3.202   4.498
49715SOL    HW150984   5.219   3.114   4.461
49715SOL    HW250985   5.243   3.259   4.424
49716SOL     OW50986   5.173  13.922   9.358
49716SOL    HW150987   5.106  13.911   9.291
49716SOL    HW250988   5.147  13.862   9.428
49717SOL     OW50989   5.771   2.581   7.463
49717SOL    HW150990   5.846   2.626   7.425
49717SOL    HW250991   5.696   2.612   7.412
49718SOL     OW50992   1.145   4.803  11.282
49718SOL    HW150993   1.198   4.725  11.263
49718SOL    HW250994   1.057   4.769  11.298
49719SOL     OW50995  14.146   7.425  10.684
49719SOL    HW150996  14.230   7.384  10.703
49719SOL    HW250997  14.084   7.382  10.743
49720SOL     OW50998   3.221   3.215  13.014
49720SOL    HW150999   3.267   3.186  12.936
49720SOL    HW251000   3.260   3.299  13.035
49721SOL     OW51001   4.683  10.942   1.534
49721SOL    HW151002   4.720  11.027   1.514
49721SOL    HW251003   4.605  10.962   1.586
49722SOL     OW51004   3.276   8.303   7.501
49722SOL    HW151005   3.194   8.338   7.536
49722SOL    HW251006   3.267   8.208   7.510
49723SOL     OW51007  12.280   3.336   6.074
49723SOL    HW151008  12.209   3.345   6.011
49723SOL    HW251009  12.356   3.373   6.031
49724SOL     OW51010  12.524   8.306   4.990
49724SOL    HW151011  12.512   8.307   4.895
49724SOL    HW251012  12.436   8.316   5.026
49725SOL     OW51013   1.776  10.176   4.076
49725SOL    HW151014   1.776  10.084   4.049
49725SOL    HW251015   1.687  10.206   4.059
49726SOL     OW51016   9.526  12.463  13.787
49726SOL    HW151017   9.551  12.373  13.809
49726SOL    HW251018   9.603  12.516  13.809
49727SOL     OW51019  13.642  13.988  12.218
49727SOL    HW151020  13.564  14.039  12.240
49727SOL    HW251021  13.663  13.941  12.299
49728SOL     OW51022  14.427   5.735   9.273
49728SOL    HW151023  14.492   5.673   9.239
49728SOL    HW251024  14.437   5.812   9.218
49729SOL     OW51025  12.442   7.430  12.597
49729SOL    HW151026  12.369   7.474  12.640
49729SOL    HW251027  12.451   7.347  12.644
49730SOL     OW51028   8.047   6.818   3.321
49730SOL    HW151029   8.142   6.808   3.317
49730SOL    HW251030   8.013   6.747   3.267
49731SOL     OW51031   9.146   7.109   9.975
49731SOL    HW151032   9.169   7.016   9.964
49731SOL    HW251033   9.188   7.152   9.901
49732SOL     OW51034   5.447  14.678   9.045
49732SOL    HW151035   5.440  14.722   9.130
49732SOL    HW251036   5.497  14.599   9.063
49733SOL     OW51037   1.871  13.924   5.106
49733SOL    HW151038   1.873  13.861   5.034
49733SOL    HW251039   1.778  13.940   5.121
49734SOL     OW51040  11.918   7.570  14.223
49734SOL    HW151041  11.864   7.636  14.179
49734SOL    HW251042  11.920   7.496  14.162
49735SOL     OW51043  12.797  13.076  10.274
49735SOL    HW151044  12.823  12.992  10.310
49735SOL    HW251045  12.741  13.115  10.341
49736SOL     OW51046   1.387   8.431   9.650
49736SOL    HW151047   1.463   8.377   9.671
49736SOL    HW251048   1.345   8.447   9.735
49737SOL     OW51049   2.962   5.484   2.559
49737SOL    HW151050   3.007   5.565   2.584
49737SOL    HW251051   2.922   5.454   2.640
49738SOL     OW51052   9.788  13.243   1.128
49738SOL    HW151053   9.797  13.149   1.111
49738SOL    HW251054   9.790  13.251   1.223
49739SOL     OW51055   1.897   4.385   2.630
49739SOL    HW151056   1.906   4.294   2.660
49739SOL    HW251057   1.964   4.433   2.680
49740SOL     OW51058  13.364   2.497   9.828
49740SOL    HW151059  13.384   2.576   9.778
49740SOL    HW251060  13.395   2.425   9.772
49741SOL     OW51061  12.863  11.368  11.917
49741SOL    HW151062  12.806  11.292  11.926
49741SOL    HW251063  12.861  11.389  11.823
49742SOL     OW51064  11.580   0.175   5.163
49742SOL    HW151065  11.510   0.122   5.201
49742SOL    HW251066  11.537   0.225   5.093
49743SOL     OW51067   0.082  11.174  12.544
49743SOL    HW151068   0.094  11.101  12.484
49743SOL    HW251069   0.047  11.135  12.624
49744SOL     OW51070   5.886  11.774  11.764
49744SOL    HW151071   5.835  11.830  11.706
49744SOL    HW251072   5.910  11.830  11.837
49745SOL     OW51073   2.366   8.769   6.310
49745SOL    HW151074   2.319   8.783   6.228
49745SOL    HW251075   2.344   8.680   6.336
49746SOL     OW51076  12.634   4.170  10.118
49746SOL    HW151077  12.651   4.233  10.048
49746SOL    HW251078  12.718   4.128  10.134
49747SOL     OW51079  10.333  11.605  10.969
49747SOL    HW151080  10.389  11.534  10.937
49747SOL    HW251081  10.387  11.683  10.962
49748SOL     OW51082   4.716   8.010   1.505
49748SOL    HW151083   4.759   8.015   1.420
49748SOL    HW251084   4.640   8.068   1.498
49749SOL     OW51085   8.455   9.846  11.259
49749SOL    HW151086   8.435   9.841  11.353
49749SOL    HW251087   8.374   9.879  11.219
49750SOL     OW51088   9.752  11.243   8.955
49750SOL    HW151089   9.727  11.281   9.040
49750SOL    HW251090   9.829  11.292   8.928
49751SOL     OW51091   0.696   6.750   5.161
49751SOL    HW151092   0.764   6.815   5.144
49751SOL    HW251093   0.736   6.689   5.223
49752SOL     OW51094   5.156   8.917   9.049
49752SOL    HW151095   5.201   8.841   9.011
49752SOL    HW251096   5.102   8.951   8.978
49753SOL     OW51097   9.581   1.023  12.232
49753SOL    HW151098   9.495   0.985  12.217
49753SOL    HW251099   9.572   1.070  12.315
49754SOL     OW51100   9.440  12.410  10.797
49754SOL    HW151101   9.466  12.397  10.889
49754SOL    HW251102   9.522  12.405  10.748
49755SOL     OW51103   5.171   0.158  13.020
49755SOL    HW151104   5.173   0.152  13.116
49755SOL    HW251105   5.256   0.125  12.992
49756SOL     OW51106  14.752   4.752   9.997
49756SOL    HW151107  14.772   4.828   9.943
49756SOL    HW251108  14.720   4.789  10.080
49757SOL     OW51109  11.955   1.070   9.957
49757SOL    HW151110  12.016   1.133   9.996
49757SOL    HW251111  12.010   1.007   9.911
49758SOL     OW51112   6.780   2.035  13.532
49758SOL    HW151113   6.839   1.960  13.543
49758SOL    HW251114   6.833   2.101  13.488
49759SOL     OW51115   5.821  10.820  12.627
49759SOL    HW151116   5.884  10.781  12.687
49759SOL    HW251117   5.790  10.747  12.574
49760SOL     OW51118   4.066   2.054   7.833
49760SOL    HW151119   4.076   2.038   7.739
49760SOL    HW251120   4.029   1.972   7.868
49761SOL     OW51121   8.419   0.435  13.720
49761SOL    HW151122   8.330   0.435  13.685
49761SOL    HW251123   8.417   0.372  13.792
49762SOL     OW51124  10.613  14.680   8.844
49762SOL    HW151125  10.672  14.676   8.919
49762SOL    HW251126  10.647  14.751   8.789
49763SOL     OW51127   9.734  13.675   9.759
49763SOL    HW151128   9.822  13.638   9.748
49763SOL    HW251129   9.686  13.644   9.682
49764SOL     OW51130  10.385   3.460   7.709
49764SOL    HW151131  10.378   3.421   7.622
49764SOL    HW251132  10.426   3.545   7.694
49765SOL     OW51133  12.680   0.012   4.020
49765SOL    HW151134  12.748   0.020   3.953
49765SOL    HW251135  12.696   0.086   4.079
49766SOL     OW51136   1.505   3.487   0.097
49766SOL    HW151137   1.532   3.449   0.181
49766SOL    HW251138   1.463   3.570   0.120
49767SOL     OW51139   3.986  12.830   4.248
49767SOL    HW151140   4.059  12.791   4.199
49767SOL    HW251141   3.978  12.775   4.326
49768SOL     OW51142   7.629  14.130   6.315
49768SOL    HW151143   7.552  14.073   6.317
49768SOL    HW251144   7.609  14.197   6.249
49769SOL     OW51145   4.110   5.028   4.893
49769SOL    HW151146   4.117   5.056   4.802
49769SOL    HW251147   4.200   5.008   4.919
49770SOL     OW51148  10.815  14.381   4.924
49770SOL    HW151149  10.908  14.361   4.914
49770SOL    HW251150  10.784  14.314   4.985
49771SOL     OW51151  10.460   6.553   3.739
49771SOL    HW151152  10.432   6.473   3.693
49771SOL    HW251153  10.399   6.620   3.709
49772SOL     OW51154   9.084   8.297  14.438
49772SOL    HW151155   9.068   8.234  14.509
49772SOL    HW251156   9.179   8.309  14.437
49773SOL     OW51157   8.172   0.789   9.614
49773SOL    HW151158   8.189   0.694   9.612
49773SOL    HW251159   8.183   0.813   9.706
49774SOL     OW51160   2.520   2.339  10.266
49774SOL    HW151161   2.496   2.399  10.336
49774SOL    HW251162   2.594   2.382  10.222
49775SOL     OW51163  11.928  14.193   7.458
49775SOL    HW151164  11.954  14.140   7.533
49775SOL    HW251165  12.007  14.201   7.405
49776SOL     OW51166  10.671  12.187  10.904
49776SOL    HW151167  10.682  12.268  10.855
49776SOL    HW251168  10.742  12.130  10.872
49777SOL     OW51169   3.481   7.248   9.921
49777SOL    HW151170   3.576   7.264   9.921
49777SOL    HW251171   3.458   7.245   9.829
49778SOL     OW51172   5.254  10.840   6.148
49778SOL    HW151173   5.245  10.772   6.215
49778SOL    HW251174   5.321  10.899   6.183
49779SOL     OW51175  12.557   0.982   1.910
49779SOL    HW151176  12.524   1.031   1.834
49779SOL    HW251177  12.478   0.950   1.954
49780SOL     OW51178   1.965  10.795  11.679
49780SOL    HW151179   1.988  10.852  11.606
49780SOL    HW251180   1.984  10.706  11.648
49781SOL     OW51181   2.649   0.475   0.940
49781SOL    HW151182   2.672   0.393   0.984
49781SOL    HW251183   2.556   0.488   0.961
49782SOL     OW51184  12.084   3.087  10.496
49782SOL    HW151185  12.028   3.165  10.490
49782SOL    HW251186  12.032   3.024  10.546
49783SOL     OW51187   7.909  14.698  13.335
49783SOL    HW151188   7.873  14.610  13.331
49783SOL    HW251189   8.004  14.686  13.340
49784SOL     OW51190   1.108   7.355   8.448
49784SOL    HW151191   1.061   7.370   8.365
49784SOL    HW251192   1.144   7.267   8.439
49785SOL     OW51193   0.712   6.830   7.709
49785SOL    HW151194   0.679   6.745   7.738
49785SOL    HW251195   0.688   6.890   7.779
49786SOL     OW51196   9.798   0.880   5.401
49786SOL    HW151197   9.755   0.794   5.401
49786SOL    HW251198   9.881   0.865   5.445
49787SOL     OW51199  12.619   2.939   4.611
49787SOL    HW151200  12.621   2.897   4.697
49787SOL    HW251201  12.693   2.900   4.564
49788SOL     OW51202   1.243   8.391   5.259
49788SOL    HW151203   1.259   8.309   5.213
49788SOL    HW251204   1.270   8.373   5.350
49789SOL     OW51205  10.852   2.469  14.256
49789SOL    HW151206  10.895   2.500  14.177
49789SOL    HW251207  10.805   2.546  14.290
49790SOL     OW51208   6.035   8.256   1.578
49790SOL    HW151209   5.965   8.199   1.546
49790SOL    HW251210   6.099   8.197   1.616
49791SOL     OW51211  13.173  12.419  10.374
49791SOL    HW151212  13.195  12.343  10.321
49791SOL    HW251213  13.101  12.390  10.429
49792SOL     OW51214  12.656   1.475   0.025
49792SOL    HW151215  12.593   1.434  14.839
49792SOL    HW251216  12.667   1.564  14.863
49793SOL     OW51217   8.451   8.240   3.794
49793SOL    HW151218   8.446   8.294   3.873
49793SOL    HW251219   8.365   8.251   3.753
49794SOL     OW51220   7.071  10.139  14.490
49794SOL    HW151221   7.147  10.081  14.499
49794SOL    HW251222   7.109  10.227  14.481
49795SOL     OW51223   7.898   9.363   7.583
49795SOL    HW151224   7.980   9.362   7.533
49795SOL    HW251225   7.909   9.294   7.649
49796SOL     OW51226   8.081   5.719  13.433
49796SOL    HW151227   8.119   5.691  13.350
49796SOL    HW251228   7.992   5.684  13.432
49797SOL     OW51229  10.148   1.501  10.439
49797SOL    HW151230  10.141   1.406  10.442
49797SOL    HW251231  10.118   1.525  10.352
49798SOL     OW51232  14.616   4.946  13.607
49798SOL    HW151233  14.547   4.911  13.664
49798SOL    HW251234  14.684   4.975  13.668
49799SOL     OW51235   8.846   6.467   5.039
49799SOL    HW151236   8.796   6.524   4.981
49799SOL    HW251237   8.916   6.522   5.073
49800SOL     OW51238   6.351  10.263   9.458
49800SOL    HW151239   6.318  10.177   9.482
49800SOL    HW251240   6.355  10.261   9.362
49801SOL     OW51241   8.096  13.536   6.978
49801SOL    HW151242   8.120  13.605   6.917
49801SOL    HW251243   8.069  13.463   6.923
49802SOL     OW51244   7.916   9.789  14.203
49802SOL    HW151245   7.826   9.763  14.222
49802SOL    HW251246   7.949   9.721  14.144
49803SOL     OW51247  11.002   8.300  10.226
49803SOL    HW151248  11.019   8.268  10.137
49803SOL    HW251249  11.039   8.389  10.226
49804SOL     OW51250   6.432  14.438  10.649
49804SOL    HW151251   6.518  14.452  10.608
49804SOL    HW251252   6.436  14.485  10.732
49805SOL     OW51253   6.954   1.923   5.264
49805SOL    HW151254   7.041   1.914   5.225
49805SOL    HW251255   6.902   1.856   5.221
49806SOL     OW51256  13.570  13.435   9.138
49806SOL    HW151257  13.552  13.434   9.232
49806SOL    HW251258  13.662  13.409   9.131
49807SOL     OW51259   2.891   7.981  11.044
49807SOL    HW151260   2.867   7.899  11.001
49807SOL    HW251261   2.987   7.982  11.039
49808SOL     OW51262   8.803   7.341  14.707
49808SOL    HW151263   8.893   7.375  14.701
49808SOL    HW251264   8.813   7.253  14.743
49809SOL     OW51265   4.011   0.965  13.768
49809SOL    HW151266   4.096   0.949  13.727
49809SOL    HW251267   3.992   1.057  13.750
49810SOL     OW51268   1.633   7.181   3.918
49810SOL    HW151269   1.656   7.180   3.826
49810SOL    HW251270   1.584   7.100   3.932
49811SOL     OW51271  12.693   2.140   0.170
49811SOL    HW151272  12.627   2.082   0.208
49811SOL    HW251273  12.776   2.107   0.204
49812SOL     OW51274   8.111  10.561   4.943
49812SOL    HW151275   8.024  10.584   4.975
49812SOL    HW251276   8.129  10.475   4.981
49813SOL     OW51277  10.813  12.627   6.278
49813SOL    HW151278  10.830  12.547   6.329
49813SOL    HW251279  10.733  12.663   6.317
49814SOL     OW51280   7.084   7.992  13.358
49814SOL    HW151281   7.150   8.029  13.299
49814SOL    HW251282   7.000   8.026  13.325
49815SOL     OW51283  10.129   6.900   0.405
49815SOL    HW151284  10.155   6.915   0.314
49815SOL    HW251285  10.105   6.986   0.438
49816SOL     OW51286  14.666   1.309  10.630
49816SOL    HW151287  14.707   1.394  10.645
49816SOL    HW251288  14.625   1.318  10.543
49817SOL     OW51289   6.378  10.456  12.637
49817SOL    HW151290   6.359  10.378  12.689
49817SOL    HW251291   6.374  10.426  12.546
49818SOL     OW51292   3.348  12.138  14.370
49818SOL    HW151293   3.390  12.057  14.340
49818SOL    HW251294   3.421  12.191  14.403
49819SOL     OW51295  11.743  11.432  12.900
49819SOL    HW151296  11.791  11.515  12.902
49819SOL    HW251297  11.741  11.403  12.991
49820SOL     OW51298  13.147   7.164  12.192
49820SOL    HW151299  13.127   7.254  12.167
49820SOL    HW251300  13.242   7.159  12.190
49821SOL     OW51301  11.888   4.667   1.087
49821SOL    HW151302  11.892   4.760   1.067
49821SOL    HW251303  11.904   4.624   1.003
49822SOL     OW51304   1.623  12.005   7.405
49822SOL    HW151305   1.700  11.969   7.449
49822SOL    HW251306   1.549  11.958   7.444
49823SOL     OW51307  10.519   5.508   6.186
49823SOL    HW151308  10.542   5.582   6.130
49823SOL    HW251309  10.602   5.482   6.226
49824SOL     OW51310  10.986   4.397   8.524
49824SOL    HW151311  11.041   4.321   8.503
49824SOL    HW251312  10.922   4.401   8.453
49825SOL     OW51313   8.871   9.997  13.874
49825SOL    HW151314   8.831  10.084  13.880
49825SOL    HW251315   8.807   9.944  13.827
49826SOL     OW51316   4.526   4.300  14.561
49826SOL    HW151317   4.478   4.231  14.515
49826SOL    HW251318   4.543   4.366  14.494
49827SOL     OW51319   1.983  11.383   2.520
49827SOL    HW151320   2.067  11.404   2.560
49827SOL    HW251321   1.948  11.467   2.491
49828SOL     OW51322   9.930   8.899   9.171
49828SOL    HW151323   9.900   8.952   9.245
49828SOL    HW251324   9.874   8.926   9.098
49829SOL     OW51325   7.339   4.797   6.345
49829SOL    HW151326   7.400   4.736   6.386
49829SOL    HW251327   7.396   4.861   6.302
49830SOL     OW51328   7.329   5.644   0.816
49830SOL    HW151329   7.345   5.616   0.906
49830SOL    HW251330   7.284   5.569   0.775
49831SOL     OW51331   9.501   9.408  11.442
49831SOL    HW151332   9.494   9.418  11.537
49831SOL    HW251333   9.498   9.498  11.409
49832SOL     OW51334   2.277   7.985   5.156
49832SOL    HW151335   2.346   8.012   5.096
49832SOL    HW251336   2.200   8.034   5.128
49833SOL     OW51337   6.611   8.339   0.472
49833SOL    HW151338   6.576   8.305   0.390
49833SOL    HW251339   6.555   8.414   0.493
49834SOL     OW51340   2.830   3.446   4.500
49834SOL    HW151341   2.882   3.519   4.467
49834SOL    HW251342   2.889   3.399   4.559
49835SOL     OW51343   2.998   4.155  13.650
49835SOL    HW151344   2.933   4.092  13.678
49835SOL    HW251345   3.082   4.116  13.674
49836SOL     OW51346   4.065  14.093   9.729
49836SOL    HW151347   4.106  14.152   9.792
49836SOL    HW251348   4.007  14.148   9.678
49837SOL     OW51349   4.439   4.892   1.200
49837SOL    HW151350   4.511   4.903   1.137
49837SOL    HW251351   4.461   4.951   1.272
49838SOL     OW51352  11.464   3.070   4.316
49838SOL    HW151353  11.502   3.030   4.238
49838SOL    HW251354  11.493   3.014   4.388
49839SOL     OW51355  11.500   7.384   1.261
49839SOL    HW151356  11.529   7.462   1.307
49839SOL    HW251357  11.422   7.355   1.308
49840SOL     OW51358  11.929  12.811   6.052
49840SOL    HW151359  11.916  12.725   6.092
49840SOL    HW251360  11.870  12.813   5.977
49841SOL     OW51361  11.998   3.869  12.376
49841SOL    HW151362  11.952   3.925  12.313
49841SOL    HW251363  11.928   3.825  12.424
49842SOL     OW51364   9.802   4.344   5.367
49842SOL    HW151365   9.889   4.350   5.328
49842SOL    HW251366   9.795   4.254   5.398
49843SOL     OW51367   2.171   7.028   4.852
49843SOL    HW151368   2.241   6.985   4.802
49843SOL    HW251369   2.125   7.081   4.787
49844SOL     OW51370   1.162   4.625   3.868
49844SOL    HW151371   1.242   4.591   3.829
49844SOL    HW251372   1.192   4.684   3.937
49845SOL     OW51373  14.660  10.066  11.222
49845SOL    HW151374  14.655  10.032  11.133
49845SOL    HW251375  14.744  10.035  11.255
49846SOL     OW51376   8.153  13.571   8.974
49846SOL    HW151377   8.166  13.659   8.937
49846SOL    HW251378   8.058  13.562   8.981
49847SOL     OW51379   0.117   7.703  12.549
49847SOL    HW151380   0.109   7.782  12.603
49847SOL    HW251381   0.028   7.685  12.519
49848SOL     OW51382  13.699  10.034   2.351
49848SOL    HW151383  13.612   9.998   2.366
49848SOL    HW251384  13.688  10.094   2.277
49849SOL     OW51385   7.549   2.300   5.142
49849SOL    HW151386   7.479   2.333   5.086
49849SOL    HW251387   7.627   2.351   5.116
49850SOL     OW51388  10.600  14.149   9.167
49850SOL    HW151389  10.621  14.219   9.228
49850SOL    HW251390  10.576  14.075   9.222
49851SOL     OW51391  10.044  13.260  13.698
49851SOL    HW151392  10.101  13.310  13.757
49851SOL    HW251393   9.955  13.284  13.726
49852SOL     OW51394  12.734   2.120   8.732
49852SOL    HW151395  12.823   2.085   8.732
49852SOL    HW251396  12.691   2.077   8.807
49853SOL     OW51397   1.265   3.123  11.224
49853SOL    HW151398   1.291   3.107  11.133
49853SOL    HW251399   1.270   3.037  11.265
49854SOL     OW51400   4.746   5.507   4.092
49854SOL    HW151401   4.795   5.487   4.013
49854SOL    HW251402   4.654   5.494   4.067
49855SOL     OW51403   5.210   2.679  13.047
49855SOL    HW151404   5.139   2.740  13.026
49855SOL    HW251405   5.165   2.598  13.074
49856SOL     OW51406  12.826   9.624   4.246
49856SOL    HW151407  12.735   9.635   4.217
49856SOL    HW251408  12.878   9.635   4.167
49857SOL     OW51409   9.000   6.550   4.322
49857SOL    HW151410   8.945   6.610   4.272
49857SOL    HW251411   9.053   6.607   4.378
49858SOL     OW51412   3.805   8.517   3.763
49858SOL    HW151413   3.892   8.555   3.774
49858SOL    HW251414   3.750   8.562   3.827
49859SOL     OW51415  13.892   7.407  14.290
49859SOL    HW151416  13.929   7.495  14.291
49859SOL    HW251417  13.927   7.365  14.368
49860SOL     OW51418  14.209  13.412   2.040
49860SOL    HW151419  14.125  13.395   1.997
49860SOL    HW251420  14.187  13.466   2.115
49861SOL     OW51421  12.343   8.242   5.867
49861SOL    HW151422  12.421   8.263   5.917
49861SOL    HW251423  12.332   8.148   5.879
49862SOL     OW51424  13.756  11.265  12.981
49862SOL    HW151425  13.681  11.216  12.947
49862SOL    HW251426  13.822  11.198  12.999
49863SOL     OW51427  13.618  11.032   5.005
49863SOL    HW151428  13.694  11.090   5.010
49863SOL    HW251429  13.647  10.950   5.044
49864SOL     OW51430  11.103   4.308  12.851
49864SOL    HW151431  11.133   4.341  12.936
49864SOL    HW251432  11.108   4.384  12.793
49865SOL     OW51433  10.287   3.240   8.228
49865SOL    HW151434  10.298   3.254   8.133
49865SOL    HW251435  10.350   3.171   8.249
49866SOL     OW51436   8.783   6.115   4.667
49866SOL    HW151437   8.833   6.158   4.737
49866SOL    HW251438   8.751   6.034   4.708
49867SOL     OW51439   8.699  12.184   2.272
49867SOL    HW151440   8.770  12.247   2.262
49867SOL    HW251441   8.716  12.142   2.356
49868SOL     OW51442  14.663   1.579   2.492
49868SOL    HW151443  14.606   1.510   2.527
49868SOL    HW251444  14.668   1.559   2.398
49869SOL     OW51445   9.135   0.010   8.728
49869SOL    HW151446   9.182   0.056   8.658
49869SOL    HW251447   9.125  14.795   8.695
49870SOL     OW51448   4.602  12.628   3.058
49870SOL    HW151449   4.529  12.689   3.073
49870SOL    HW251450   4.577  12.548   3.104
49871SOL     OW51451   4.731   4.709  11.092
49871SOL    HW151452   4.697   4.729  11.179
49871SOL    HW251453   4.688   4.627  11.068
49872SOL     OW51454   2.560   0.769  13.585
49872SOL    HW151455   2.596   0.685  13.558
49872SOL    HW251456   2.633   0.815  13.626
49873SOL     OW51457   6.051  14.156   9.521
49873SOL    HW151458   5.981  14.095   9.500
49873SOL    HW251459   6.107  14.108   9.582
49874SOL     OW51460   9.560   4.742   0.684
49874SOL    HW151461   9.482   4.713   0.731
49874SOL    HW251462   9.530   4.759   0.595
49875SOL     OW51463   9.092  13.527   9.170
49875SOL    HW151464   9.005  13.557   9.144
49875SOL    HW251465   9.152  13.588   9.128
49876SOL     OW51466   1.027  13.126  10.590
49876SOL    HW151467   0.962  13.145  10.523
49876SOL    HW251468   1.036  13.208  10.639
49877SOL     OW51469   7.759   0.732   0.766
49877SOL    HW151470   7.704   0.725   0.844
49877SOL    HW251471   7.847   0.750   0.800
49878SOL     OW51472   2.235  14.663   2.170
49878SOL    HW151473   2.202  14.617   2.247
49878SOL    HW251474   2.237  14.755   2.196
49879SOL     OW51475   2.676  10.886   0.681
49879SOL    HW151476   2.751  10.927   0.725
49879SOL    HW251477   2.630  10.958   0.640
49880SOL     OW51478  14.639   0.084   7.621
49880SOL    HW151479  14.677   0.052   7.540
49880SOL    HW251480  14.693   0.160   7.644
49881SOL     OW51481   2.500   1.816  10.339
49881SOL    HW151482   2.565   1.867  10.388
49881SOL    HW251483   2.428   1.877  10.323
49882SOL     OW51484   9.733  12.263   1.710
49882SOL    HW151485   9.725  12.203   1.635
49882SOL    HW251486   9.827  12.277   1.720
49883SOL     OW51487   8.637   6.425  12.599
49883SOL    HW151488   8.631   6.389  12.510
49883SOL    HW251489   8.718   6.475  12.599
49884SOL     OW51490   4.797   0.110   9.570
49884SOL    HW151491   4.751   0.074   9.645
49884SOL    HW251492   4.793   0.041   9.503
49885SOL     OW51493   2.682  12.604  10.984
49885SOL    HW151494   2.769  12.631  11.013
49885SOL    HW251495   2.660  12.665  10.913
49886SOL     OW51496   3.414  13.350   9.051
49886SOL    HW151497   3.360  13.274   9.072
49886SOL    HW251498   3.371  13.389   8.975
49887SOL     OW51499   4.096   9.465   8.037
49887SOL    HW151500   4.124   9.556   8.025
49887SOL    HW251501   4.079   9.433   7.948
49888SOL     OW51502   0.357  12.340   4.059
49888SOL    HW151503   0.409  12.262   4.075
49888SOL    HW251504   0.411  12.412   4.091
49889SOL     OW51505   0.687   7.959  10.562
49889SOL    HW151506   0.653   8.012  10.633
49889SOL    HW251507   0.677   8.013  10.484
49890SOL     OW51508   3.804   8.383   7.402
49890SOL    HW151509   3.839   8.320   7.339
49890SOL    HW251510   3.716   8.349   7.422
49891SOL     OW51511   3.887   4.457   6.906
49891SOL    HW151512   3.898   4.363   6.921
49891SOL    HW251513   3.834   4.487   6.980
49892SOL     OW51514   8.434   0.800  11.675
49892SOL    HW151515   8.396   0.798  11.587
49892SOL    HW251516   8.507   0.861  11.669
49893SOL     OW51517  10.344   9.052  14.667
49893SOL    HW151518  10.338   8.978  14.607
49893SOL    HW251519  10.317   9.128  14.616
49894SOL     OW51520   4.619   3.226  12.691
49894SOL    HW151521   4.611   3.321  12.692
49894SOL    HW251522   4.624   3.203  12.598
49895SOL     OW51523   2.845   7.755   1.268
49895SOL    HW151524   2.782   7.801   1.212
49895SOL    HW251525   2.825   7.662   1.255
49896SOL     OW51526  10.926  12.757  13.370
49896SOL    HW151527  10.984  12.833  13.366
49896SOL    HW251528  10.856  12.783  13.430
49897SOL     OW51529   9.550   3.738   1.755
49897SOL    HW151530   9.636   3.774   1.730
49897SOL    HW251531   9.570   3.656   1.799
49898SOL     OW51532   9.278   8.930   2.625
49898SOL    HW151533   9.323   9.015   2.617
49898SOL    HW251534   9.210   8.933   2.558
49899SOL     OW51535  10.134  13.412   4.589
49899SOL    HW151536  10.120  13.447   4.677
49899SOL    HW251537  10.177  13.483   4.542
49900SOL     OW51538   2.184   0.491   7.165
49900SOL    HW151539   2.257   0.437   7.134
49900SOL    HW251540   2.140   0.520   7.085
49901SOL     OW51541   1.173  10.866   0.354
49901SOL    HW151542   1.150  10.773   0.355
49901SOL    HW251543   1.222  10.878   0.273
49902SOL     OW51544   8.658   4.180   5.876
49902SOL    HW151545   8.569   4.215   5.865
49902SOL    HW251546   8.669   4.172   5.971
49903SOL     OW51547   4.438   2.142  14.694
49903SOL    HW151548   4.518   2.090  14.707
49903SOL    HW251549   4.437   2.161  14.600
49904SOL     OW51550   0.989   9.793   7.238
49904SOL    HW151551   1.025   9.714   7.199
49904SOL    HW251552   0.896   9.792   7.215
49905SOL     OW51553  10.232   2.495  13.244
49905SOL    HW151554  10.144   2.530  13.262
49905SOL    HW251555  10.224   2.401  13.259
49906SOL     OW51556   1.732   2.904  14.037
49906SOL    HW151557   1.754   2.899  13.944
49906SOL    HW251558   1.815   2.890  14.082
49907SOL     OW51559   0.146  10.408   1.496
49907SOL    HW151560   0.175  10.486   1.544
49907SOL    HW251561   0.060  10.388   1.533
49908SOL     OW51562   6.210   1.294   8.309
49908SOL    HW151563   6.183   1.343   8.386
49908SOL    HW251564   6.195   1.353   8.235
49909SOL     OW51565   3.025   6.241   5.413
49909SOL    HW151566   3.038   6.286   5.330
49909SOL    HW251567   3.066   6.298   5.478
49910SOL     OW51568  10.881   7.999  12.170
49910SOL    HW151569  10.857   7.906  12.178
49910SOL    HW251570  10.873   8.033  12.259
49911SOL     OW51571  14.004   1.328  11.431
49911SOL    HW151572  13.946   1.310  11.505
49911SOL    HW251573  13.970   1.274  11.360
49912SOL     OW51574   1.955   8.933   6.524
49912SOL    HW151575   2.026   8.941   6.460
49912SOL    HW251576   1.991   8.970   6.605
49913SOL     OW51577   9.594   1.172  13.675
49913SOL    HW151578   9.633   1.088  13.649
49913SOL    HW251579   9.643   1.198  13.753
49914SOL     OW51580   1.092   5.052   2.144
49914SOL    HW151581   1.064   5.139   2.117
49914SOL    HW251582   1.016   4.996   2.128
49915SOL     OW51583   8.515   1.188  10.945
49915SOL    HW151584   8.519   1.268  10.894
49915SOL    HW251585   8.544   1.119  10.885
49916SOL     OW51586   6.638   1.465   2.101
49916SOL    HW151587   6.614   1.498   2.014
49916SOL    HW251588   6.676   1.379   2.084
49917SOL     OW51589   4.785   3.315   7.778
49917SOL    HW151590   4.696   3.321   7.811
49917SOL    HW251591   4.781   3.249   7.709
49918SOL     OW51592  13.589  14.318   2.025
49918SOL    HW151593  13.639  14.333   1.945
49918SOL    HW251594  13.517  14.261   1.998
49919SOL     OW51595  14.471  14.563  12.884
49919SOL    HW151596  14.385  14.520  12.884
49919SOL    HW251597  14.526  14.508  12.939
49920SOL     OW51598  10.387  10.264   2.621
49920SOL    HW151599  10.312  10.222   2.663
49920SOL    HW251600  10.376  10.357   2.641
49921SOL     OW51601   7.414   1.655  10.600
49921SOL    HW151602   7.368   1.609  10.529
49921SOL    HW251603   7.425   1.589  10.668
49922SOL     OW51604  12.609   6.452   8.219
49922SOL    HW151605  12.604   6.547   8.223
49922SOL    HW251606  12.645   6.433   8.132
49923SOL     OW51607   6.558   0.179   5.821
49923SOL    HW151608   6.603   0.097   5.802
49923SOL    HW251609   6.467   0.153   5.836
49924SOL     OW51610   6.075   0.375   0.117
49924SOL    HW151611   6.026   0.297   0.142
49924SOL    HW251612   6.157   0.368   0.165
49925SOL     OW51613   4.510   0.519   3.051
49925SOL    HW151614   4.586   0.550   3.101
49925SOL    HW251615   4.522   0.556   2.964
49926SOL     OW51616   6.875  11.243   7.089
49926SOL    HW151617   6.932  11.178   7.130
49926SOL    HW251618   6.870  11.314   7.153
49927SOL     OW51619   3.399  11.309   2.052
49927SOL    HW151620   3.447  11.268   1.980
49927SOL    HW251621   3.463  11.312   2.124
49928SOL     OW51622   1.545  13.374   3.008
49928SOL    HW151623   1.515  13.283   3.007
49928SOL    HW251624   1.498  13.414   3.081
49929SOL     OW51625  12.323   6.102  11.863
49929SOL    HW151626  12.234   6.090  11.896
49929SOL    HW251627  12.372   6.139  11.936
49930SOL     OW51628   3.170   8.179   9.105
49930SOL    HW151629   3.167   8.132   9.022
49930SOL    HW251630   3.257   8.161   9.139
49931SOL     OW51631   7.541  11.344  13.753
49931SOL    HW151632   7.530  11.253  13.781
49931SOL    HW251633   7.568  11.338  13.662
49932SOL     OW51634   9.472   1.023   2.312
49932SOL    HW151635   9.428   0.947   2.351
49932SOL    HW251636   9.565   1.001   2.316
49933SOL     OW51637   4.147   1.476   5.932
49933SOL    HW151638   4.076   1.532   5.961
49933SOL    HW251639   4.103   1.402   5.890
49934SOL     OW51640  11.619   1.909   1.527
49934SOL    HW151641  11.601   1.868   1.611
49934SOL    HW251642  11.558   1.867   1.466
49935SOL     OW51643  11.520   5.161   6.429
49935SOL    HW151644  11.584   5.093   6.451
49935SOL    HW251645  11.498   5.145   6.338
49936SOL     OW51646   6.619   4.526   6.221
49936SOL    HW151647   6.545   4.587   6.222
49936SOL    HW251648   6.582   4.442   6.247
49937SOL     OW51649   9.797   1.076  14.324
49937SOL    HW151650   9.763   1.107  14.407
49937SOL    HW251651   9.721   1.077  14.265
49938SOL     OW51652   7.788   4.027   4.808
49938SOL    HW151653   7.865   4.003   4.756
49938SOL    HW251654   7.807   3.992   4.895
49939SOL     OW51655   2.024   3.887   1.943
49939SOL    HW151656   2.026   3.885   1.847
49939SOL    HW251657   2.020   3.795   1.969
49940SOL     OW51658  12.514  11.494   8.635
49940SOL    HW151659  12.596  11.543   8.633
49940SOL    HW251660  12.461  11.533   8.565
49941SOL     OW51661   2.824   4.841   0.075
49941SOL    HW151662   2.881   4.905   0.117
49941SOL    HW251663   2.810   4.773   0.141
49942SOL     OW51664   9.687   0.583  11.766
49942SOL    HW151665   9.743   0.576  11.689
49942SOL    HW251666   9.665   0.493  11.788
49943SOL     OW51667   3.286  10.220   5.146
49943SOL    HW151668   3.273  10.313   5.127
49943SOL    HW251669   3.254  10.175   5.068
49944SOL     OW51670   5.522   3.993   3.757
49944SOL    HW151671   5.537   3.916   3.703
49944SOL    HW251672   5.466   4.049   3.703
49945SOL     OW51673   3.472   3.372   8.768
49945SOL    HW151674   3.381   3.398   8.785
49945SOL    HW251675   3.489   3.303   8.832
49946SOL     OW51676   9.287  12.914   4.684
49946SOL    HW151677   9.233  12.836   4.702
49946SOL    HW251678   9.276  12.929   4.590
49947SOL     OW51679  13.382  10.438   8.431
49947SOL    HW151680  13.295  10.469   8.453
49947SOL    HW251681  13.407  10.381   8.503
49948SOL     OW51682   1.728   6.315   3.893
49948SOL    HW151683   1.649   6.260   3.885
49948SOL    HW251684   1.695   6.405   3.889
49949SOL     OW51685   8.378  12.236   9.516
49949SOL    HW151686   8.458  12.214   9.468
49949SOL    HW251687   8.337  12.306   9.465
49950SOL     OW51688   8.765   4.925   6.402
49950SOL    HW151689   8.698   4.882   6.348
49950SOL    HW251690   8.740   4.906   6.492
49951SOL     OW51691  12.645   8.367   0.617
49951SOL    HW151692  12.685   8.326   0.694
49951SOL    HW251693  12.587   8.299   0.581
49952SOL     OW51694  14.709   3.365   0.110
49952SOL    HW151695  14.630   3.351   0.058
49952SOL    HW251696  14.738   3.453   0.086
49953SOL     OW51697   7.088   9.001   0.951
49953SOL    HW151698   7.131   8.925   0.913
49953SOL    HW251699   7.006   8.966   0.988
49954SOL     OW51700   5.681   0.808   2.678
49954SOL    HW151701   5.657   0.849   2.762
49954SOL    HW251702   5.672   0.714   2.694
49955SOL     OW51703  12.162  12.190  10.120
49955SOL    HW151704  12.125  12.206  10.033
49955SOL    HW251705  12.088  12.202  10.180
49956SOL     OW51706   7.992  11.210  13.766
49956SOL    HW151707   8.010  11.181  13.855
49956SOL    HW251708   8.023  11.301  13.763
49957SOL     OW51709   0.961   2.540   1.887
49957SOL    HW151710   1.019   2.571   1.818
49957SOL    HW251711   1.013   2.548   1.967
49958SOL     OW51712   1.766   5.200   7.537
49958SOL    HW151713   1.713   5.248   7.473
49958SOL    HW251714   1.709   5.127   7.564
49959SOL     OW51715   0.156   6.963   0.328
49959SOL    HW151716   0.117   7.048   0.350
49959SOL    HW251717   0.117   6.941   0.243
49960SOL     OW51718   3.358  13.622   2.102
49960SOL    HW151719   3.399  13.537   2.121
49960SOL    HW251720   3.412  13.686   2.148
49961SOL     OW51721  11.569  13.376   0.373
49961SOL    HW151722  11.547  13.419   0.291
49961SOL    HW251723  11.529  13.430   0.441
49962SOL     OW51724   9.822  13.298   7.413
49962SOL    HW151725   9.863  13.382   7.432
49962SOL    HW251726   9.886  13.251   7.359
49963SOL     OW51727   6.066   7.953   9.019
49963SOL    HW151728   6.145   7.899   9.017
49963SOL    HW251729   6.050   7.968   9.112
49964SOL     OW51730  12.644  11.194   7.787
49964SOL    HW151731  12.645  11.261   7.718
49964SOL    HW251732  12.557  11.155   7.782
49965SOL     OW51733  13.762   9.536   7.274
49965SOL    HW151734  13.703   9.472   7.234
49965SOL    HW251735  13.805   9.579   7.200
49966SOL     OW51736   6.599   8.998  11.465
49966SOL    HW151737   6.598   8.931  11.397
49966SOL    HW251738   6.678   8.979  11.516
49967SOL     OW51739  14.085   0.082  13.239
49967SOL    HW151740  14.114   0.170  13.264
49967SOL    HW251741  14.111   0.073  13.148
49968SOL     OW51742   2.833  13.820  10.001
49968SOL    HW151743   2.910  13.815   9.944
49968SOL    HW251744   2.867  13.849  10.085
49969SOL     OW51745   2.591   4.742  14.046
49969SOL    HW151746   2.538   4.809  14.003
49969SOL    HW251747   2.592   4.669  13.984
49970SOL     OW51748   1.980   6.678   8.343
49970SOL    HW151749   1.897   6.711   8.375
49970SOL    HW251750   1.972   6.583   8.351
49971SOL     OW51751  13.466  11.651   9.991
49971SOL    HW151752  13.442  11.583  10.053
49971SOL    HW251753  13.418  11.729  10.020
49972SOL     OW51754  13.859   2.378   8.038
49972SOL    HW151755  13.807   2.448   8.000
49972SOL    HW251756  13.858   2.395   8.132
49973SOL     OW51757   2.121   4.493  10.401
49973SOL    HW151758   2.045   4.482  10.344
49973SOL    HW251759   2.141   4.586  10.397
49974SOL     OW51760   3.389   8.669   8.511
49974SOL    HW151761   3.395   8.602   8.579
49974SOL    HW251762   3.337   8.739   8.550
49975SOL     OW51763   9.769   0.423  12.724
49975SOL    HW151764   9.839   0.488  12.737
49975SOL    HW251765   9.787   0.355  12.788
49976SOL     OW51766   8.976   2.127  13.253
49976SOL    HW151767   9.064   2.108  13.286
49976SOL    HW251768   8.958   2.217  13.283
49977SOL     OW51769  14.080   3.795  13.279
49977SOL    HW151770  14.013   3.854  13.312
49977SOL    HW251771  14.095   3.823  13.188
49978SOL     OW51772   2.227   7.547   9.457
49978SOL    HW151773   2.181   7.631   9.446
49978SOL    HW251774   2.319   7.571   9.461
49979SOL     OW51775   2.733  12.615   8.679
49979SOL    HW151776   2.795  12.663   8.624
49979SOL    HW251777   2.737  12.525   8.646
49980SOL     OW51778   4.174   0.944  10.844
49980SOL    HW151779   4.261   0.931  10.808
49980SOL    HW251780   4.174   0.895  10.927
49981SOL     OW51781   4.180   6.973   2.490
49981SOL    HW151782   4.155   7.027   2.415
49981SOL    HW251783   4.260   7.013   2.523
49982SOL     OW51784   2.325   4.063  10.438
49982SOL    HW151785   2.408   4.026  10.468
49982SOL    HW251786   2.275   4.079  10.519
49983SOL     OW51787   7.958  10.953   6.054
49983SOL    HW151788   7.917  10.866   6.052
49983SOL    HW251789   8.052  10.935   6.048
49984SOL     OW51790   9.413   2.689   2.627
49984SOL    HW151791   9.340   2.738   2.588
49984SOL    HW251792   9.468   2.664   2.553
49985SOL     OW51793   3.728   8.778  14.662
49985SOL    HW151794   3.697   8.868  14.663
49985SOL    HW251795   3.824   8.786  14.669
49986SOL     OW51796  10.091   0.080   2.216
49986SOL    HW151797  10.145   0.137   2.162
49986SOL    HW251798  10.135  14.869   2.213
49987SOL     OW51799   2.590  12.154  14.148
49987SOL    HW151800   2.675  12.198  14.138
49987SOL    HW251801   2.579  12.105  14.066
49988SOL     OW51802   8.448  14.423  13.349
49988SOL    HW151803   8.507  14.498  13.346
49988SOL    HW251804   8.498  14.356  13.396
49989SOL     OW51805   6.059   6.389   9.668
49989SOL    HW151806   6.046   6.477   9.631
49989SOL    HW251807   6.114   6.403   9.744
49990SOL     OW51808   6.545   1.722   3.934
49990SOL    HW151809   6.580   1.803   3.897
49990SOL    HW251810   6.622   1.671   3.958
49991SOL     OW51811  11.797  11.469   7.008
49991SOL    HW151812  11.850  11.471   6.928
49991SOL    HW251813  11.718  11.421   6.983
49992SOL     OW51814  11.703   6.500   5.589
49992SOL    HW151815  11.694   6.534   5.678
49992SOL    HW251816  11.795   6.514   5.568
49993SOL     OW51817  11.674  12.806   5.901
49993SOL    HW151818  11.614  12.746   5.945
49993SOL    HW251819  11.707  12.758   5.826
49994SOL     OW51820  11.495   4.199  11.249
49994SOL    HW151821  11.437   4.241  11.185
49994SOL    HW251822  11.463   4.109  11.253
49995SOL     OW51823  12.916  11.706   3.278
49995SOL    HW151824  12.977  11.642   3.314
49995SOL    HW251825  12.829  11.675   3.305
49996SOL     OW51826  12.502   1.077  12.885
49996SOL    HW151827  12.483   1.101  12.794
49996SOL    HW251828  12.418   1.049  12.921
49997SOL     OW51829   3.355  14.724   1.742
49997SOL    HW151830   3.302  14.801   1.722
49997SOL    HW251831   3.417  14.754   1.808
49998SOL     OW51832   6.056  13.656  12.995
49998SOL    HW151833   6.077  13.690  13.082
49998SOL    HW251834   6.140  13.657  12.948
49999SOL     OW51835   9.344  10.967   9.638
49999SOL    HW151836   9.391  11.028   9.694
49999SOL    HW251837   9.352  10.882   9.682
50000SOL     OW51838   4.361  14.500   3.509
50000SOL    HW151839   4.434  14.549   3.550
50000SOL    HW251840   4.290  14.506   3.573
50001SOL     OW51841   4.232   0.394   3.602
50001SOL    HW151842   4.235   0.299   3.614
50001SOL    HW251843   4.314   0.416   3.559
50002SOL     OW51844   3.046   0.928  13.770
50002SOL    HW151845   3.045   0.934  13.865
50002SOL    HW251846   3.117   0.987  13.743
50003SOL     OW51847  11.033  10.823   7.768
50003SOL    HW151848  11.079  10.853   7.847
50003SOL    HW251849  11.047  10.893   7.705
50004SOL     OW51850  13.075   4.419  10.045
50004SOL    HW151851  13.036   4.448   9.963
50004SOL    HW251852  13.101   4.328  10.029
50005SOL     OW51853   0.216   6.073   4.307
50005SOL    HW151854   0.207   6.167   4.289
50005SOL    HW251855   0.200   6.031   4.223
50006SOL     OW51856  14.001  13.541  14.135
50006SOL    HW151857  14.040  13.484  14.201
50006SOL    HW251858  13.935  13.487  14.092
50007SOL     OW51859  14.334   7.508  10.944
50007SOL    HW151860  14.308   7.449  11.015
50007SOL    HW251861  14.262   7.571  10.937
50008SOL     OW51862  12.599   4.550  10.949
50008SOL    HW151863  12.505   4.569  10.938
50008SOL    HW251864  12.638   4.577  10.866
50009SOL     OW51865  12.963   4.367  12.916
50009SOL    HW151866  12.952   4.381  12.822
50009SOL    HW251867  12.874   4.364  12.951
50010SOL     OW51868   1.782   5.126  12.350
50010SOL    HW151869   1.860   5.170  12.386
50010SOL    HW251870   1.708   5.178  12.382
50011SOL     OW51871   2.949  14.117  14.807
50011SOL    HW151872   2.950  14.056   0.006
50011SOL    HW251873   3.011  14.080  14.744
50012SOL     OW51874   9.786   2.260   3.098
50012SOL    HW151875   9.838   2.333   3.064
50012SOL    HW251876   9.741   2.297   3.174
50013SOL     OW51877   5.203   5.115  12.684
50013SOL    HW151878   5.147   5.038  12.681
50013SOL    HW251879   5.148   5.186  12.651
50014SOL     OW51880  11.192   1.496   3.962
50014SOL    HW151881  11.239   1.422   4.002
50014SOL    HW251882  11.117   1.456   3.919
50015SOL     OW51883   3.705  10.122  13.997
50015SOL    HW151884   3.710  10.213  13.968
50015SOL    HW251885   3.778  10.079  13.954
50016SOL     OW51886   4.849  11.841   5.954
50016SOL    HW151887   4.844  11.747   5.938
50016SOL    HW251888   4.775  11.860   6.011
50017SOL     OW51889   8.488   8.288  13.810
50017SOL    HW151890   8.410   8.300  13.755
50017SOL    HW251891   8.509   8.376  13.841
50018SOL     OW51892  12.489   1.151   3.974
50018SOL    HW151893  12.565   1.104   3.941
50018SOL    HW251894  12.420   1.132   3.911
50019SOL     OW51895   4.658   7.781   1.644
50019SOL    HW151896   4.690   7.865   1.609
50019SOL    HW251897   4.563   7.792   1.649
50020SOL     OW51898   0.399   5.407   1.280
50020SOL    HW151899   0.318   5.422   1.231
50020SOL    HW251900   0.374   5.345   1.349
50021SOL     OW51901  14.337   2.444  11.550
50021SOL    HW151902  14.409   2.454  11.488
50021SOL    HW251903  14.373   2.387  11.618
50022SOL     OW51904   8.602   5.564   3.615
50022SOL    HW151905   8.643   5.622   3.679
50022SOL    HW251906   8.675   5.527   3.565
50023SOL     OW51907   8.605  13.912   4.481
50023SOL    HW151908   8.584  13.906   4.388
50023SOL    HW251909   8.555  13.840   4.521
50024SOL     OW51910   8.775  10.856  12.150
50024SOL    HW151911   8.863  10.882  12.125
50024SOL    HW251912   8.721  10.877  12.073
50025SOL     OW51913  12.183   0.585  14.852
50025SOL    HW151914  12.135   0.566  14.771
50025SOL    HW251915  12.117   0.618   0.038
50026SOL     OW51916   0.151   9.616  13.975
50026SOL    HW151917   0.080   9.680  13.970
50026SOL    HW251918   0.183   9.610  13.884
50027SOL     OW51919   9.058  14.036   8.469
50027SOL    HW151920   9.040  13.959   8.522
50027SOL    HW251921   8.991  14.099   8.494
50028SOL     OW51922   7.603  13.501   8.117
50028SOL    HW151923   7.544  13.497   8.042
50028SOL    HW251924   7.664  13.429   8.104
50029SOL     OW51925   5.974   9.221  12.790
50029SOL    HW151926   5.941   9.185  12.872
50029SOL    HW251927   6.060   9.180  12.778
50030SOL     OW51928  10.021   6.834   1.838
50030SOL    HW151929   9.941   6.848   1.787
50030SOL    HW251930  10.069   6.767   1.790
50031SOL     OW51931   7.236   1.175   1.340
50031SOL    HW151932   7.164   1.178   1.277
50031SOL    HW251933   7.255   1.266   1.360
50032SOL     OW51934   8.672   4.795   0.668
50032SOL    HW151935   8.729   4.820   0.741
50032SOL    HW251936   8.685   4.701   0.658
50033SOL     OW51937   4.662   3.906  13.499
50033SOL    HW151938   4.694   3.851  13.570
50033SOL    HW251939   4.584   3.949  13.534
50034SOL     OW51940  11.306   6.000   8.611
50034SOL    HW151941  11.358   5.981   8.533
50034SOL    HW251942  11.297   5.915   8.656
50035SOL     OW51943   6.613   9.506   6.939
50035SOL    HW151944   6.581   9.436   6.997
50035SOL    HW251945   6.539   9.526   6.882
50036SOL     OW51946  11.400  10.799  14.009
50036SOL    HW151947  11.379  10.892  14.000
50036SOL    HW251948  11.490  10.797  14.041
50037SOL     OW51949   9.331  10.700   8.368
50037SOL    HW151950   9.339  10.773   8.429
50037SOL    HW251951   9.409  10.646   8.384
50038SOL     OW51952  10.777   2.231   5.435
50038SOL    HW151953  10.769   2.138   5.453
50038SOL    HW251954  10.769   2.273   5.521
50039SOL     OW51955  10.748   4.150   8.609
50039SOL    HW151956  10.797   4.168   8.689
50039SOL    HW251957  10.685   4.082   8.634
50040SOL     OW51958   0.071   1.851   7.104
50040SOL    HW151959  14.864   1.901   7.104
50040SOL    HW251960   0.065   1.796   7.182
50041SOL     OW51961   4.650   7.666   9.098
50041SOL    HW151962   4.578   7.618   9.057
50041SOL    HW251963   4.672   7.735   9.035
50042SOL     OW51964   9.089  13.119   1.503
50042SOL    HW151965   9.016  13.174   1.530
50042SOL    HW251966   9.149  13.121   1.577
50043SOL     OW51967   0.908   4.254  12.485
50043SOL    HW151968   0.828   4.253  12.433
50043SOL    HW251969   0.961   4.323  12.446
50044SOL     OW51970   0.313   2.732   5.500
50044SOL    HW151971   0.258   2.709   5.574
50044SOL    HW251972   0.403   2.726   5.534
50045SOL     OW51973   6.247   3.373   5.649
50045SOL    HW151974   6.182   3.421   5.597
50045SOL    HW251975   6.214   3.378   5.739
50046SOL     OW51976  11.951   5.717   5.622
50046SOL    HW151977  12.005   5.794   5.638
50046SOL    HW251978  11.895   5.741   5.548
50047SOL     OW51979   5.725   0.767  10.900
50047SOL    HW151980   5.730   0.777  10.995
50047SOL    HW251981   5.749   0.854  10.866
50048SOL     OW51982  11.743  14.538   0.453
50048SOL    HW151983  11.735  14.566   0.362
50048SOL    HW251984  11.788  14.611   0.497
50049SOL     OW51985  10.910  11.402   0.740
50049SOL    HW151986  10.974  11.359   0.796
50049SOL    HW251987  10.952  11.484   0.714
50050SOL     OW51988   9.499  11.926   6.648
50050SOL    HW151989   9.455  11.915   6.732
50050SOL    HW251990   9.582  11.967   6.669
50051SOL     OW51991   1.827   3.504   0.659
50051SOL    HW151992   1.829   3.495   0.564
50051SOL    HW251993   1.866   3.590   0.676
50052SOL     OW51994  11.539   9.733   6.669
50052SOL    HW151995  11.501   9.662   6.720
50052SOL    HW251996  11.526   9.811   6.724
50053SOL     OW51997   5.039   0.346   1.336
50053SOL    HW151998   4.954   0.361   1.296
50053SOL    HW251999   5.049   0.418   1.399
50054SOL     OW52000   4.859  11.293   2.241
50054SOL    HW152001   4.871  11.207   2.202
50054SOL    HW252002   4.808  11.277   2.320
50055SOL     OW52003   7.617   6.343   5.084
50055SOL    HW152004   7.556   6.406   5.045
50055SOL    HW252005   7.561   6.284   5.135
50056SOL     OW52006   4.436   5.729  14.668
50056SOL    HW152007   4.480   5.654  14.708
50056SOL    HW252008   4.502   5.769  14.613
50057SOL     OW52009   1.690   3.739   9.688
50057SOL    HW152010   1.766   3.747   9.629
50057SOL    HW252011   1.680   3.826   9.726
50058SOL     OW52012   3.451   6.905  12.049
50058SOL    HW152013   3.375   6.961  12.065
50058SOL    HW252014   3.509   6.959  11.995
50059SOL     OW52015  12.789  12.261   7.465
50059SOL    HW152016  12.808  12.170   7.487
50059SOL    HW252017  12.772  12.303   7.550
50060SOL     OW52018   5.496   8.537   5.682
50060SOL    HW152019   5.516   8.560   5.773
50060SOL    HW252020   5.411   8.577   5.666
50061SOL     OW52021   4.540  10.316   3.562
50061SOL    HW152022   4.474  10.276   3.505
50061SOL    HW252023   4.491  10.379   3.615
50062SOL     OW52024   6.814   4.910   4.523
50062SOL    HW152025   6.840   4.987   4.472
50062SOL    HW252026   6.750   4.943   4.586
50063SOL     OW52027   9.577   7.898   2.497
50063SOL    HW152028   9.558   7.900   2.591
50063SOL    HW252029   9.584   7.990   2.472
50064SOL     OW52030  13.254  14.707   9.388
50064SOL    HW152031  13.293  14.646   9.451
50064SOL    HW252032  13.302  14.691   9.307
50065SOL     OW52033   6.552  12.312  10.878
50065SOL    HW152034   6.631  12.364  10.864
50065SOL    HW252035   6.580  12.242  10.937
50066SOL     OW52036   4.836   0.929  12.445
50066SOL    HW152037   4.922   0.970  12.436
50066SOL    HW252038   4.780   0.998  12.480
50067SOL     OW52039   1.742  10.876  11.515
50067SOL    HW152040   1.754  10.840  11.603
50067SOL    HW252041   1.788  10.959  11.516
50068SOL     OW52042  10.490   7.786   7.607
50068SOL    HW152043  10.461   7.862   7.658
50068SOL    HW252044  10.498   7.820   7.517
50069SOL     OW52045   2.304   3.929   4.212
50069SOL    HW152046   2.267   3.841   4.207
50069SOL    HW252047   2.357   3.937   4.133
50070SOL     OW52048   3.040  10.026  10.814
50070SOL    HW152049   2.977   9.959  10.787
50070SOL    HW252050   2.985  10.097  10.848
50071SOL     OW52051   4.094  11.465   9.279
50071SOL    HW152052   4.140  11.481   9.362
50071SOL    HW252053   4.122  11.537   9.222
50072SOL     OW52054  14.589   4.314   2.570
50072SOL    HW152055  14.537   4.278   2.498
50072SOL    HW252056  14.679   4.311   2.539
50073SOL     OW52057   2.659   4.182   2.659
50073SOL    HW152058   2.593   4.229   2.710
50073SOL    HW252059   2.615   4.160   2.577
50074SOL     OW52060   0.194  13.621   8.220
50074SOL    HW152061   0.176  13.540   8.171
50074SOL    HW252062   0.185  13.690   8.155
50075SOL     OW52063  12.845   8.781  13.215
50075SOL    HW152064  12.889   8.697  13.233
50075SOL    HW252065  12.836   8.822  13.301
50076SOL     OW52066   9.856  11.909  11.493
50076SOL    HW152067   9.851  11.842  11.560
50076SOL    HW252068   9.767  11.944  11.487
50077SOL     OW52069   8.082   5.108   8.171
50077SOL    HW152070   8.012   5.061   8.216
50077SOL    HW252071   8.107   5.178   8.231
50078SOL     OW52072   5.191  11.239  14.185
50078SOL    HW152073   5.128  11.244  14.257
50078SOL    HW252074   5.198  11.328  14.153
50079SOL     OW52075   6.838  14.596   9.799
50079SOL    HW152076   6.881  14.558   9.875
50079SOL    HW252077   6.753  14.553   9.795
50080SOL     OW52078   0.186   1.624  11.179
50080SOL    HW152079   0.169   1.617  11.272
50080SOL    HW252080   0.155   1.542  11.142
50081SOL     OW52081   2.593   4.949   2.814
50081SOL    HW152082   2.617   4.948   2.907
50081SOL    HW252083   2.510   4.996   2.811
50082SOL     OW52084  14.440   6.231   2.433
50082SOL    HW152085  14.446   6.142   2.469
50082SOL    HW252086  14.452   6.288   2.509
50083SOL     OW52087   9.908  11.161   8.174
50083SOL    HW152088   9.930  11.159   8.081
50083SOL    HW252089   9.815  11.138   8.178
50084SOL     OW52090  13.209  12.490   7.526
50084SOL    HW152091  13.152  12.562   7.550
50084SOL    HW252092  13.256  12.468   7.607
50085SOL     OW52093   4.837   6.308   9.317
50085SOL    HW152094   4.778   6.364   9.266
50085SOL    HW252095   4.918   6.306   9.266
50086SOL     OW52096   7.991   7.865   1.798
50086SOL    HW152097   7.978   7.896   1.709
50086SOL    HW252098   8.014   7.773   1.788
50087SOL     OW52099   4.513   9.244  14.120
50087SOL    HW152100   4.592   9.200  14.152
50087SOL    HW252101   4.460   9.174  14.083
50088SOL     OW52102  10.169   5.435   7.153
50088SOL    HW152103  10.123   5.384   7.087
50088SOL    HW252104  10.114   5.429   7.231
50089SOL     OW52105   8.012  10.649   7.928
50089SOL    HW152106   7.995  10.663   7.834
50089SOL    HW252107   7.972  10.565   7.948
50090SOL     OW52108  14.369   8.449   6.378
50090SOL    HW152109  14.335   8.361   6.397
50090SOL    HW252110  14.457   8.434   6.343
50091SOL     OW52111   1.339   9.244   3.398
50091SOL    HW152112   1.397   9.202   3.335
50091SOL    HW252113   1.275   9.176   3.421
50092SOL     OW52114   1.201   2.133   0.630
50092SOL    HW152115   1.284   2.131   0.583
50092SOL    HW252116   1.224   2.165   0.717
50093SOL     OW52117   3.425  13.056  12.804
50093SOL    HW152118   3.431  13.065  12.709
50093SOL    HW252119   3.342  13.011  12.819
50094SOL     OW52120  11.665  11.406   3.988
50094SOL    HW152121  11.704  11.470   3.927
50094SOL    HW252122  11.572  11.427   3.989
50095SOL     OW52123   0.218  12.467  12.710
50095SOL    HW152124   0.252  12.435  12.793
50095SOL    HW252125   0.209  12.561  12.722
50096SOL     OW52126   3.765   0.516   5.968
50096SOL    HW152127   3.673   0.521   5.945
50096SOL    HW252128   3.787   0.603   6.001
50097SOL     OW52129  13.357   0.369  12.088
50097SOL    HW152130  13.388   0.418  12.164
50097SOL    HW252131  13.354   0.278  12.118
50098SOL     OW52132  10.110   2.427  12.319
50098SOL    HW152133  10.132   2.438  12.411
50098SOL    HW252134  10.057   2.503  12.297
50099SOL     OW52135   7.878   3.067  10.741
50099SOL    HW152136   7.869   3.021  10.824
50099SOL    HW252137   7.793   3.056  10.698
50100SOL     OW52138   1.808   9.274  10.584
50100SOL    HW152139   1.868   9.349  10.580
50100SOL    HW252140   1.826   9.234  10.669
50101SOL     OW52141   9.218   9.623  10.725
50101SOL    HW152142   9.127   9.631  10.754
50101SOL    HW252143   9.233   9.529  10.717
50102SOL     OW52144   1.017   7.582   5.746
50102SOL    HW152145   1.020   7.613   5.836
50102SOL    HW252146   0.980   7.655   5.696
50103SOL     OW52147   9.541   0.977   1.700
50103SOL    HW152148   9.507   0.980   1.789
50103SOL    HW252149   9.628   0.937   1.709
50104SOL     OW52150   4.647   8.250  10.107
50104SOL    HW152151   4.701   8.329  10.114
50104SOL    HW252152   4.559   8.283  10.085
50105SOL     OW52153   0.476  13.375   1.977
50105SOL    HW152154   0.570  13.392   1.980
50105SOL    HW252155   0.450  13.396   1.888
50106SOL     OW52156   3.550   8.388  12.100
50106SOL    HW152157   3.531   8.312  12.045
50106SOL    HW252158   3.464   8.425  12.121
50107SOL     OW52159  10.303   0.091  13.870
50107SOL    HW152160  10.255   0.123  13.793
50107SOL    HW252161  10.343   0.009  13.841
50108SOL     OW52162   6.589   0.743   9.428
50108SOL    HW152163   6.595   0.651   9.451
50108SOL    HW252164   6.678   0.776   9.432
50109SOL     OW52165   5.844  14.473   5.912
50109SOL    HW152166   5.920  14.420   5.889
50109SOL    HW252167   5.776  14.445   5.851
50110SOL     OW52168   4.051   2.195   3.012
50110SOL    HW152169   4.131   2.211   2.963
50110SOL    HW252170   4.039   2.100   3.008
50111SOL     OW52171   8.797   1.667  11.870
50111SOL    HW152172   8.892   1.660  11.883
50111SOL    HW252173   8.787   1.737  11.806
50112SOL     OW52174   4.546   9.815   8.951
50112SOL    HW152175   4.469   9.760   8.935
50112SOL    HW252176   4.605   9.760   9.003
50113SOL     OW52177   4.357  13.741  10.021
50113SOL    HW152178   4.280  13.711  10.070
50113SOL    HW252179   4.324  13.813   9.967
50114SOL     OW52180  10.503  13.340   3.029
50114SOL    HW152181  10.530  13.431   3.035
50114SOL    HW252182  10.515  13.305   3.117
50115SOL     OW52183   2.331   1.065   1.928
50115SOL    HW152184   2.306   1.149   1.888
50115SOL    HW252185   2.405   1.086   1.984
50116SOL     OW52186  14.312  14.113  12.289
50116SOL    HW152187  14.257  14.073  12.356
50116SOL    HW252188  14.401  14.106  12.323
50117SOL     OW52189  12.219   4.170   3.735
50117SOL    HW152190  12.213   4.076   3.754
50117SOL    HW252191  12.248   4.173   3.644
50118SOL     OW52192  14.361   9.529   7.099
50118SOL    HW152193  14.297   9.600   7.093
50118SOL    HW252194  14.314   9.458   7.142
50119SOL     OW52195   8.994   1.076   4.034
50119SOL    HW152196   9.004   0.999   4.091
50119SOL    HW252197   9.082   1.111   4.026
50120SOL     OW52198  12.858  10.715  13.921
50120SOL    HW152199  12.803  10.681  13.992
50120SOL    HW252200  12.800  10.773  13.872
50121SOL     OW52201   8.428   7.492   1.300
50121SOL    HW152202   8.481   7.565   1.333
50121SOL    HW252203   8.386   7.456   1.378
50122SOL     OW52204   5.332   9.282   5.438
50122SOL    HW152205   5.403   9.221   5.454
50122SOL    HW252206   5.269   9.233   5.385
50123SOL     OW52207   4.550  11.544  13.679
50123SOL    HW152208   4.560  11.532  13.773
50123SOL    HW252209   4.459  11.571  13.668
50124SOL     OW52210   4.271   0.278   6.408
50124SOL    HW152211   4.266   0.335   6.330
50124SOL    HW252212   4.187   0.232   6.409
50125SOL     OW52213  11.939  11.300  12.596
50125SOL    HW152214  11.844  11.315  12.601
50125SOL    HW252215  11.960  11.250  12.675
50126SOL     OW52216   0.104   3.007   8.396
50126SOL    HW152217   0.049   3.004   8.474
50126SOL    HW252218   0.167   2.935   8.408
50127SOL     OW52219   7.222   8.302   1.214
50127SOL    HW152220   7.261   8.379   1.173
50127SOL    HW252221   7.280   8.230   1.192
50128SOL     OW52222   0.114   1.030   4.034
50128SOL    HW152223   0.186   1.079   4.074
50128SOL    HW252224   0.051   1.096   4.008
50129SOL     OW52225   1.553   8.816  13.840
50129SOL    HW152226   1.581   8.855  13.922
50129SOL    HW252227   1.561   8.721  13.854
50130SOL     OW52228   0.577  13.915  11.833
50130SOL    HW152229   0.492  13.937  11.795
50130SOL    HW252230   0.598  13.988  11.891
50131SOL     OW52231  11.357   1.120  13.683
50131SOL    HW152232  11.312   1.080  13.757
50131SOL    HW252233  11.314   1.082  13.606
50132SOL     OW52234  14.410   9.297   0.089
50132SOL    HW152235  14.466   9.372   0.071
50132SOL    HW252236  14.471   9.223   0.094
50133SOL     OW52237  12.940  14.017  13.073
50133SOL    HW152238  13.027  13.989  13.102
50133SOL    HW252239  12.910  13.946  13.016
50134SOL     OW52240   9.761  12.437   6.733
50134SOL    HW152241   9.836  12.407   6.682
50134SOL    HW252242   9.799  12.466   6.816
50135SOL     OW52243   8.591   1.519   2.334
50135SOL    HW152244   8.640   1.485   2.259
50135SOL    HW252245   8.629   1.474   2.410
50136SOL     OW52246  12.371  11.016  11.140
50136SOL    HW152247  12.380  10.932  11.186
50136SOL    HW252248  12.460  11.051  11.137
50137SOL     OW52249   3.460   0.492  14.795
50137SOL    HW152250   3.371   0.510  14.824
50137SOL    HW252251   3.511   0.567  14.825
50138SOL     OW52252   1.426   4.497  13.911
50138SOL    HW152253   1.392   4.530  13.994
50138SOL    HW252254   1.350   4.492  13.853
50139SOL     OW52255   0.552   1.897  14.278
50139SOL    HW152256   0.544   1.910  14.372
50139SOL    HW252257   0.584   1.981  14.245
50140SOL     OW52258  12.628  13.174   4.045
50140SOL    HW152259  12.687  13.153   4.117
50140SOL    HW252260  12.646  13.265   4.024
50141SOL     OW52261  10.755   2.705   5.101
50141SOL    HW152262  10.847   2.726   5.120
50141SOL    HW252263  10.745   2.727   5.008
50142SOL     OW52264   7.002   9.308   7.226
50142SOL    HW152265   7.037   9.219   7.219
50142SOL    HW252266   7.049   9.346   7.300
50143SOL     OW52267  10.867   5.233   0.472
50143SOL    HW152268  10.797   5.203   0.414
50143SOL    HW252269  10.942   5.245   0.415
50144SOL     OW52270   8.662   7.005  10.324
50144SOL    HW152271   8.653   6.983  10.231
50144SOL    HW252272   8.572   7.027  10.351
50145SOL     OW52273   4.143  13.950   0.832
50145SOL    HW152274   4.182  13.907   0.908
50145SOL    HW252275   4.184  14.037   0.831
50146SOL     OW52276   3.806   8.929   1.902
50146SOL    HW152277   3.846   8.846   1.926
50146SOL    HW252278   3.875   8.994   1.917
50147SOL     OW52279   2.821  11.077  12.047
50147SOL    HW152280   2.896  11.131  12.022
50147SOL    HW252281   2.801  11.105  12.137
50148SOL     OW52282  11.706   5.452   7.562
50148SOL    HW152283  11.710   5.377   7.503
50148SOL    HW252284  11.621   5.444   7.605
50149SOL     OW52285   2.913   7.230  11.901
50149SOL    HW152286   2.897   7.176  11.979
50149SOL    HW252287   2.839   7.212  11.843
50150SOL     OW52288  11.423   8.233  10.255
50150SOL    HW152289  11.444   8.162  10.195
50150SOL    HW252290  11.462   8.206  10.339
50151SOL     OW52291   5.599   5.019   1.694
50151SOL    HW152292   5.672   5.071   1.659
50151SOL    HW252293   5.552   4.989   1.616
50152SOL     OW52294  14.273   2.822  10.811
50152SOL    HW152295  14.254   2.738  10.770
50152SOL    HW252296  14.318   2.872  10.743
50153SOL     OW52297   5.065  14.495  10.102
50153SOL    HW152298   5.009  14.514  10.177
50153SOL    HW252299   5.042  14.406  10.077
50154SOL     OW52300  11.166   0.224  10.864
50154SOL    HW152301  11.214   0.198  10.942
50154SOL    HW252302  11.216   0.184  10.792
50155SOL     OW52303   6.053  13.087   9.545
50155SOL    HW152304   6.077  13.015   9.487
50155SOL    HW252305   6.053  13.164   9.489
50156SOL     OW52306   5.447   4.768   7.419
50156SOL    HW152307   5.496   4.759   7.337
50156SOL    HW252308   5.399   4.850   7.409
50157SOL     OW52309   8.440   3.563  11.177
50157SOL    HW152310   8.382   3.511  11.232
50157SOL    HW252311   8.455   3.508  11.100
50158SOL     OW52312   1.003   4.858  12.803
50158SOL    HW152313   0.954   4.884  12.882
50158SOL    HW252314   0.936   4.845  12.736
50159SOL     OW52315   2.406   0.418  13.348
50159SOL    HW152316   2.459   0.345  13.382
50159SOL    HW252317   2.340   0.434  13.416
50160SOL     OW52318  14.838  11.748   1.937
50160SOL    HW152319  14.856  11.708   1.852
50160SOL    HW252320  14.820  11.840   1.917
50161SOL     OW52321   3.158  11.255   8.846
50161SOL    HW152322   3.222  11.321   8.822
50161SOL    HW252323   3.086  11.303   8.887
50162SOL     OW52324   7.108  12.821   5.309
50162SOL    HW152325   7.194  12.807   5.350
50162SOL    HW252326   7.059  12.741   5.327
50163SOL     OW52327   3.464   9.236   4.042
50163SOL    HW152328   3.558   9.249   4.058
50163SOL    HW252329   3.422   9.309   4.087
50164SOL     OW52330   9.706   3.060   2.012
50164SOL    HW152331   9.630   3.076   2.068
50164SOL    HW252332   9.671   3.059   1.923
50165SOL     OW52333   4.720   6.114   3.926
50165SOL    HW152334   4.631   6.146   3.912
50165SOL    HW252335   4.716   6.021   3.905
50166SOL     OW52336  10.568  11.991   3.321
50166SOL    HW152337  10.623  12.029   3.252
50166SOL    HW252338  10.478  12.007   3.292
50167SOL     OW52339  13.663   6.583   5.354
50167SOL    HW152340  13.758   6.596   5.361
50167SOL    HW252341  13.654   6.499   5.308
50168SOL     OW52342   5.645   2.398   7.975
50168SOL    HW152343   5.628   2.412   8.068
50168SOL    HW252344   5.573   2.342   7.946
50169SOL     OW52345  12.336   1.886  14.795
50169SOL    HW152346  12.289   1.831  14.732
50169SOL    HW252347  12.428   1.877  14.771
50170SOL     OW52348   1.074  13.697  11.166
50170SOL    HW152349   1.146  13.760  11.165
50170SOL    HW252350   1.027  13.714  11.248
50171SOL     OW52351   3.079   8.267   1.714
50171SOL    HW152352   3.039   8.329   1.653
50171SOL    HW252353   3.159   8.311   1.743
50172SOL     OW52354  14.799  14.521   0.624
50172SOL    HW152355  14.823  14.509   0.532
50172SOL    HW252356  14.794  14.616   0.635
50173SOL     OW52357   5.754   7.464   9.777
50173SOL    HW152358   5.847   7.482   9.765
50173SOL    HW252359   5.748   7.427   9.865
50174SOL     OW52360   1.517   5.107  14.748
50174SOL    HW152361   1.471   5.184  14.714
50174SOL    HW252362   1.542   5.057  14.670
50175SOL     OW52363  13.532  11.070   5.925
50175SOL    HW152364  13.589  11.134   5.882
50175SOL    HW252365  13.522  11.103   6.014
50176SOL     OW52366   2.342   2.024  13.868
50176SOL    HW152367   2.396   2.009  13.946
50176SOL    HW252368   2.275   1.956  13.872
50177SOL     OW52369   5.003  14.580   8.062
50177SOL    HW152370   4.923  14.570   8.010
50177SOL    HW252371   4.986  14.531   8.142
50178SOL     OW52372  11.092  10.121  13.064
50178SOL    HW152373  11.083  10.046  13.005
50178SOL    HW252374  11.039  10.097  13.140
50179SOL     OW52375  14.032   3.225   5.338
50179SOL    HW152376  14.041   3.320   5.347
50179SOL    HW252377  14.007   3.212   5.247
50180SOL     OW52378   9.633  11.203   5.328
50180SOL    HW152379   9.597  11.279   5.374
50180SOL    HW252380   9.618  11.223   5.235
50181SOL     OW52381  11.491   1.989  12.325
50181SOL    HW152382  11.453   1.924  12.265
50181SOL    HW252383  11.543   2.046  12.269
50182SOL     OW52384  13.366  11.472  14.571
50182SOL    HW152385  13.448  11.482  14.620
50182SOL    HW252386  13.394  11.450  14.482
50183SOL     OW52387   7.480   6.237  12.579
50183SOL    HW152388   7.399   6.224  12.628
50183SOL    HW252389   7.463   6.196  12.494
50184SOL     OW52390   8.788   4.361  11.853
50184SOL    HW152391   8.882   4.342  11.853
50184SOL    HW252392   8.768   4.384  11.944
50185SOL     OW52393  13.303   9.419   3.469
50185SOL    HW152394  13.318   9.492   3.530
50185SOL    HW252395  13.363   9.436   3.397
50186SOL     OW52396  11.994   4.665   2.868
50186SOL    HW152397  11.939   4.702   2.938
50186SOL    HW252398  11.932   4.635   2.802
50187SOL     OW52399   7.378  10.133   6.251
50187SOL    HW152400   7.390  10.046   6.290
50187SOL    HW252401   7.328  10.117   6.171
50188SOL     OW52402   6.816   8.286   2.938
50188SOL    HW152403   6.867   8.247   3.009
50188SOL    HW252404   6.728   8.297   2.976
50189SOL     OW52405  13.583   1.160   1.517
50189SOL    HW152406  13.666   1.124   1.487
50189SOL    HW252407  13.559   1.105   1.592
50190SOL     OW52408   3.581   6.505  12.624
50190SOL    HW152409   3.496   6.461  12.629
50190SOL    HW252410   3.626   6.480  12.705
50191SOL     OW52411   4.230  13.091   3.165
50191SOL    HW152412   4.220  13.106   3.071
50191SOL    HW252413   4.282  13.011   3.171
50192SOL     OW52414   1.658   1.287   1.497
50192SOL    HW152415   1.723   1.344   1.455
50192SOL    HW252416   1.590   1.277   1.431
50193SOL     OW52417  14.217   6.111   8.019
50193SOL    HW152418  14.221   6.112   8.115
50193SOL    HW252419  14.163   6.187   7.997
50194SOL     OW52420  10.599  10.993   5.139
50194SOL    HW152421  10.517  11.015   5.093
50194SOL    HW252422  10.585  10.905   5.172
50195SOL     OW52423   3.675   7.644   5.965
50195SOL    HW152424   3.734   7.613   5.897
50195SOL    HW252425   3.588   7.636   5.928
50196SOL     OW52426   5.340   0.930   2.330
50196SOL    HW152427   5.331   0.862   2.264
50196SOL    HW252428   5.419   0.907   2.379
50197SOL     OW52429   2.458   5.039   9.638
50197SOL    HW152430   2.427   5.036   9.729
50197SOL    HW252431   2.496   4.953   9.623
50198SOL     OW52432   5.309  13.722  14.828
50198SOL    HW152433   5.217  13.747  14.832
50198SOL    HW252434   5.313  13.655  14.761
50199SOL     OW52435  12.302   7.544   9.214
50199SOL    HW152436  12.221   7.569   9.259
50199SOL    HW252437  12.299   7.591   9.131
50200SOL     OW52438   4.009   7.003  13.303
50200SOL    HW152439   4.043   6.923  13.343
50200SOL    HW252440   4.081   7.035  13.248
50201SOL     OW52441  14.442   3.673  11.694
50201SOL    HW152442  14.485   3.651  11.611
50201SOL    HW252443  14.379   3.603  11.708
50202SOL     OW52444   5.727  11.838   0.364
50202SOL    HW152445   5.789  11.819   0.294
50202SOL    HW252446   5.751  11.778   0.435
50203SOL     OW52447  13.238  11.803   2.010
50203SOL    HW152448  13.201  11.785   1.923
50203SOL    HW252449  13.281  11.888   2.001
50204SOL     OW52450   4.656   3.121   5.389
50204SOL    HW152451   4.727   3.129   5.453
50204SOL    HW252452   4.576   3.117   5.442
50205SOL     OW52453   9.442   0.082  14.300
50205SOL    HW152454   9.502   0.134  14.247
50205SOL    HW252455   9.476   0.091  14.390
50206SOL     OW52456  11.549   2.504   9.127
50206SOL    HW152457  11.532   2.450   9.050
50206SOL    HW252458  11.642   2.526   9.121
50207SOL     OW52459   7.153   0.810  14.853
50207SOL    HW152460   7.171   0.854   0.062
50207SOL    HW252461   7.140   0.718   0.002
50208SOL     OW52462   1.794  12.824   5.047
50208SOL    HW152463   1.851  12.809   5.122
50208SOL    HW252464   1.705  12.820   5.082
50209SOL     OW52465   0.807   2.580   5.966
50209SOL    HW152466   0.772   2.540   6.046
50209SOL    HW252467   0.818   2.672   5.988
50210SOL     OW52468  14.785  12.987   8.317
50210SOL    HW152469  14.841  12.939   8.255
50210SOL    HW252470  14.708  12.931   8.328
50211SOL     OW52471   7.324  14.039   0.094
50211SOL    HW152472   7.327  14.022   0.000
50211SOL    HW252473   7.325  13.953   0.135
50212SOL     OW52474   8.007  14.340   5.053
50212SOL    HW152475   8.062  14.305   5.123
50212SOL    HW252476   7.961  14.413   5.094
50213SOL     OW52477  11.999   2.725   1.014
50213SOL    HW152478  11.948   2.648   0.990
50213SOL    HW252479  12.086   2.708   0.977
50214SOL     OW52480   5.464  11.210  12.318
50214SOL    HW152481   5.428  11.264  12.247
50214SOL    HW252482   5.540  11.260  12.349
50215SOL     OW52483   8.619  10.539   4.302
50215SOL    HW152484   8.691  10.586   4.344
50215SOL    HW252485   8.635  10.447   4.322
50216SOL     OW52486   2.788   0.153   1.286
50216SOL    HW152487   2.768   0.094   1.359
50216SOL    HW252488   2.849   0.103   1.231
50217SOL     OW52489   3.404   2.803   4.771
50217SOL    HW152490   3.402   2.708   4.765
50217SOL    HW252491   3.313   2.829   4.763
50218SOL     OW52492   5.201   4.868   5.957
50218SOL    HW152493   5.219   4.778   5.929
50218SOL    HW252494   5.169   4.859   6.047
50219SOL     OW52495   9.519  14.713  11.191
50219SOL    HW152496   9.525  14.710  11.096
50219SOL    HW252497   9.524  14.806  11.213
50220SOL     OW52498   4.637  12.099   3.698
50220SOL    HW152499   4.587  12.089   3.616
50220SOL    HW252500   4.587  12.049   3.762
50221SOL     OW52501   7.573  10.511   1.750
50221SOL    HW152502   7.487  10.514   1.793
50221SOL    HW252503   7.636  10.517   1.821
50222SOL     OW52504  13.145   3.560   6.203
50222SOL    HW152505  13.152   3.655   6.211
50222SOL    HW252506  13.153   3.543   6.109
50223SOL     OW52507   3.988   1.405   6.731
50223SOL    HW152508   3.907   1.445   6.764
50223SOL    HW252509   3.975   1.399   6.636
50224SOL     OW52510  12.173   0.360   2.187
50224SOL    HW152511  12.151   0.422   2.117
50224SOL    HW252512  12.116   0.285   2.172
50225SOL     OW52513  11.359  12.330   3.826
50225SOL    HW152514  11.449  12.333   3.858
50225SOL    HW252515  11.318  12.258   3.875
50226SOL     OW52516   0.244   8.802  11.762
50226SOL    HW152517   0.210   8.884  11.726
50226SOL    HW252518   0.338   8.806  11.744
50227SOL     OW52519   9.361  11.785   8.739
50227SOL    HW152520   9.431  11.758   8.798
50227SOL    HW252521   9.388  11.751   8.653
50228SOL     OW52522  13.367  10.973  11.614
50228SOL    HW152523  13.298  10.934  11.561
50228SOL    HW252524  13.382  10.910  11.685
50229SOL     OW52525   3.654  12.634  11.422
50229SOL    HW152526   3.581  12.580  11.394
50229SOL    HW252527   3.627  12.670  11.507
50230SOL     OW52528   8.240   9.918  11.479
50230SOL    HW152529   8.190   9.939  11.400
50230SOL    HW252530   8.195   9.842  11.517
50231SOL     OW52531   0.813  13.825   9.393
50231SOL    HW152532   0.883  13.766   9.421
50231SOL    HW252533   0.784  13.791   9.309
50232SOL     OW52534  14.350  12.009   0.593
50232SOL    HW152535  14.381  11.972   0.510
50232SOL    HW252536  14.427  12.051   0.631
50233SOL     OW52537  11.536   2.159  10.293
50233SOL    HW152538  11.597   2.090  10.267
50233SOL    HW252539  11.454   2.114  10.311
50234SOL     OW52540   4.638  12.951   4.947
50234SOL    HW152541   4.615  12.859   4.942
50234SOL    HW252542   4.577  12.988   5.011
50235SOL     OW52543  12.433   9.994   5.119
50235SOL    HW152544  12.485  10.057   5.169
50235SOL    HW252545  12.347   9.997   5.160
50236SOL     OW52546   9.000   8.844   4.267
50236SOL    HW152547   8.933   8.776   4.256
50236SOL    HW252548   8.997   8.894   4.185
50237SOL     OW52549   5.423   3.843   8.112
50237SOL    HW152550   5.428   3.938   8.112
50237SOL    HW252551   5.334   3.823   8.141
50238SOL     OW52552   4.506   0.090  11.237
50238SOL    HW152553   4.586   0.037  11.240
50238SOL    HW252554   4.472   0.075  11.148
50239SOL     OW52555   2.246  14.519  10.251
50239SOL    HW152556   2.301  14.454  10.207
50239SOL    HW252557   2.217  14.475  10.331
50240SOL     OW52558   7.356  10.826   3.854
50240SOL    HW152559   7.377  10.918   3.873
50240SOL    HW252560   7.339  10.824   3.760
50241SOL     OW52561   8.170   9.015   3.519
50241SOL    HW152562   8.220   8.934   3.515
50241SOL    HW252563   8.138   9.020   3.609
50242SOL     OW52564   2.906   9.645  10.416
50242SOL    HW152565   2.872   9.611  10.498
50242SOL    HW252566   2.831   9.648  10.357
50243SOL     OW52567   0.651   7.463  13.187
50243SOL    HW152568   0.603   7.496  13.263
50243SOL    HW252569   0.646   7.534  13.123
50244SOL     OW52570   4.088   5.123  13.288
50244SOL    HW152571   4.062   5.197  13.342
50244SOL    HW252572   4.144   5.161  13.220
50245SOL     OW52573   1.368   4.925  10.316
50245SOL    HW152574   1.425   4.988  10.271
50245SOL    HW252575   1.424   4.848  10.329
50246SOL     OW52576   3.024  12.878   4.819
50246SOL    HW152577   2.992  12.873   4.909
50246SOL    HW252578   3.000  12.967   4.791
50247SOL     OW52579   5.092   7.428   1.337
50247SOL    HW152580   5.042   7.404   1.415
50247SOL    HW252581   5.140   7.348   1.314
50248SOL     OW52582   0.511  10.461   5.168
50248SOL    HW152583   0.426  10.453   5.127
50248SOL    HW252584   0.503  10.537   5.226
50249SOL     OW52585   2.221   5.390  12.331
50249SOL    HW152586   2.272   5.392  12.250
50249SOL    HW252587   2.247   5.470  12.377
50250SOL     OW52588   8.981   7.159   8.038
50250SOL    HW152589   8.887   7.170   8.052
50250SOL    HW252590   8.997   7.197   7.952
50251SOL     OW52591   3.208   4.864   2.173
50251SOL    HW152592   3.127   4.831   2.134
50251SOL    HW252593   3.265   4.787   2.178
50252SOL     OW52594   4.210  11.326   5.800
50252SOL    HW152595   4.283  11.287   5.752
50252SOL    HW252596   4.134  11.272   5.775
50253SOL     OW52597  11.275   9.402   1.429
50253SOL    HW152598  11.366   9.430   1.416
50253SOL    HW252599  11.234   9.413   1.343
50254SOL     OW52600   6.573   2.686   6.942
50254SOL    HW152601   6.596   2.775   6.915
50254SOL    HW252602   6.604   2.630   6.871
50255SOL     OW52603   6.680   5.214   0.734
50255SOL    HW152604   6.665   5.308   0.746
50255SOL    HW252605   6.755   5.209   0.675
50256SOL     OW52606  12.818  11.106   9.056
50256SOL    HW152607  12.764  11.069   8.986
50256SOL    HW252608  12.814  11.201   9.042
50257SOL     OW52609  12.244   6.069  10.112
50257SOL    HW152610  12.198   6.100  10.190
50257SOL    HW252611  12.332   6.049  10.142
50258SOL     OW52612   8.251   6.570   4.614
50258SOL    HW152613   8.252   6.592   4.521
50258SOL    HW252614   8.160   6.579   4.641
50259SOL     OW52615  11.794  11.737   2.695
50259SOL    HW152616  11.755  11.782   2.770
50259SOL    HW252617  11.882  11.775   2.687
50260SOL     OW52618   0.982   1.205   0.443
50260SOL    HW152619   0.975   1.139   0.374
50260SOL    HW252620   0.903   1.193   0.496
50261SOL     OW52621  12.454  14.181   4.469
50261SOL    HW152622  12.457  14.116   4.400
50261SOL    HW252623  12.367  14.171   4.509
50262SOL     OW52624   0.081  12.322  13.016
50262SOL    HW152625   0.170  12.358  13.010
50262SOL    HW252626   0.072  12.269  12.936
50263SOL     OW52627   1.926   8.000  10.877
50263SOL    HW152628   2.018   7.976  10.868
50263SOL    HW252629   1.919   8.085  10.834
50264SOL     OW52630   1.499   9.612   2.780
50264SOL    HW152631   1.405   9.623   2.790
50264SOL    HW252632   1.526   9.562   2.856
50265SOL     OW52633  14.347  13.658   2.481
50265SOL    HW152634  14.328  13.564   2.471
50265SOL    HW252635  14.442  13.663   2.490
50266SOL     OW52636   8.361   5.138  14.848
50266SOL    HW152637   8.291   5.080   0.003
50266SOL    HW252638   8.349   5.218   0.025
50267SOL     OW52639   4.301  13.797   2.330
50267SOL    HW152640   4.368  13.860   2.303
50267SOL    HW252641   4.227  13.814   2.271
50268SOL     OW52642   9.813  14.868   6.339
50268SOL    HW152643   9.847   0.070   6.292
50268SOL    HW252644   9.798  14.802   6.271
50269SOL     OW52645   0.609   0.828   2.225
50269SOL    HW152646   0.619   0.832   2.321
50269SOL    HW252647   0.603   0.919   2.198
50270SOL     OW52648   2.407   4.329  13.967
50270SOL    HW152649   2.366   4.271  13.902
50270SOL    HW252650   2.494   4.292  13.981
50271SOL     OW52651   8.310   0.936  13.881
50271SOL    HW152652   8.252   1.005  13.849
50271SOL    HW252653   8.253   0.860  13.892
50272SOL     OW52654   1.770  14.480   2.844
50272SOL    HW152655   1.689  14.522   2.815
50272SOL    HW252656   1.823  14.552   2.878
50273SOL     OW52657  12.233  10.724  14.599
50273SOL    HW152658  12.197  10.656  14.657
50273SOL    HW252659  12.318  10.691  14.571
50274SOL     OW52660  14.166   3.700   8.586
50274SOL    HW152661  14.206   3.613   8.585
50274SOL    HW252662  14.222   3.751   8.645
50275SOL     OW52663   3.994  10.814   3.297
50275SOL    HW152664   3.906  10.776   3.298
50275SOL    HW252665   4.001  10.856   3.212
50276SOL     OW52666  13.253   3.683   0.209
50276SOL    HW152667  13.179   3.653   0.158
50276SOL    HW252668  13.238   3.648   0.297
50277SOL     OW52669   6.433   3.636  11.225
50277SOL    HW152670   6.519   3.624  11.266
50277SOL    HW252671   6.386   3.556  11.246
50278SOL     OW52672   2.711   1.671   6.339
50278SOL    HW152673   2.657   1.740   6.300
50278SOL    HW252674   2.652   1.625   6.398
50279SOL     OW52675   6.212   3.879  11.249
50279SOL    HW152676   6.213   3.790  11.284
50279SOL    HW252677   6.285   3.923  11.292
50280SOL     OW52678   2.595   1.849   0.006
50280SOL    HW152679   2.628   1.836   0.095
50280SOL    HW252680   2.560   1.939   0.007
50281SOL     OW52681  11.259  11.397   3.164
50281SOL    HW152682  11.307  11.370   3.242
50281SOL    HW252683  11.167  11.393   3.189
50282SOL     OW52684  14.388  14.240   7.544
50282SOL    HW152685  14.405  14.172   7.479
50282SOL    HW252686  14.325  14.200   7.605
50283SOL     OW52687  11.052   9.763  11.317
50283SOL    HW152688  11.031   9.803  11.401
50283SOL    HW252689  11.137   9.722  11.331
50284SOL     OW52690  13.347   3.660   3.178
50284SOL    HW152691  13.407   3.589   3.197
50284SOL    HW252692  13.271   3.618   3.137
50285SOL     OW52693   0.389   7.444  11.722
50285SOL    HW152694   0.381   7.389  11.644
50285SOL    HW252695   0.444   7.517  11.695
50286SOL     OW52696   2.961  11.260  12.842
50286SOL    HW152697   2.909  11.270  12.922
50286SOL    HW252698   2.912  11.308  12.775
50287SOL     OW52699   5.577   2.053   2.440
50287SOL    HW152700   5.642   2.115   2.474
50287SOL    HW252701   5.564   2.079   2.349
50288SOL     OW52702   2.214   9.705  12.821
50288SOL    HW152703   2.295   9.656  12.831
50288SOL    HW252704   2.236   9.778  12.764
50289SOL     OW52705   5.548   9.216  12.801
50289SOL    HW152706   5.457   9.239  12.782
50289SOL    HW252707   5.583   9.291  12.848
50290SOL     OW52708   8.748   0.880  10.111
50290SOL    HW152709   8.781   0.970  10.103
50290SOL    HW252710   8.660   0.891  10.147
50291SOL     OW52711   5.207   5.498  12.948
50291SOL    HW152712   5.209   5.572  13.010
50291SOL    HW252713   5.118   5.499  12.913
50292SOL     OW52714   6.372   8.090   1.203
50292SOL    HW152715   6.370   7.995   1.214
50292SOL    HW252716   6.462   8.109   1.179
50293SOL     OW52717  11.847   5.897   6.650
50293SOL    HW152718  11.934   5.863   6.670
50293SOL    HW252719  11.814   5.929   6.735
50294SOL     OW52720  13.573   7.602  12.764
50294SOL    HW152721  13.489   7.601  12.719
50294SOL    HW252722  13.638   7.598  12.694
50295SOL     OW52723  10.241  11.987  13.027
50295SOL    HW152724  10.324  11.993  12.980
50295SOL    HW252725  10.215  11.895  13.019
50296SOL     OW52726   8.042   6.087  12.256
50296SOL    HW152727   8.100   6.096  12.180
50296SOL    HW252728   7.962   6.048  12.222
50297SOL     OW52729   6.192  14.546   0.393
50297SOL    HW152730   6.172  14.631   0.353
50297SOL    HW252731   6.259  14.565   0.458
50298SOL     OW52732  12.782   0.464  13.622
50298SOL    HW152733  12.770   0.385  13.675
50298SOL    HW252734  12.697   0.478  13.580
50299SOL     OW52735   2.651   8.827  12.427
50299SOL    HW152736   2.733   8.842  12.381
50299SOL    HW252737   2.676   8.778  12.505
50300SOL     OW52738   5.429   2.043   7.170
50300SOL    HW152739   5.517   2.059   7.204
50300SOL    HW252740   5.418   2.108   7.100
50301SOL     OW52741   9.428   7.471  13.688
50301SOL    HW152742   9.392   7.470  13.599
50301SOL    HW252743   9.497   7.405  13.687
50302SOL     OW52744   1.867   5.480   2.162
50302SOL    HW152745   1.914   5.540   2.104
50302SOL    HW252746   1.921   5.401   2.164
50303SOL     OW52747   1.247  12.680   6.076
50303SOL    HW152748   1.195  12.699   5.998
50303SOL    HW252749   1.205  12.730   6.145
50304SOL     OW52750   1.936  10.472   5.694
50304SOL    HW152751   2.000  10.495   5.627
50304SOL    HW252752   1.964  10.519   5.772
50305SOL     OW52753  13.724   3.002  11.133
50305SOL    HW152754  13.792   3.012  11.066
50305SOL    HW252755  13.689   2.914  11.119
50306SOL     OW52756   5.552  14.179  14.771
50306SOL    HW152757   5.487  14.119  14.733
50306SOL    HW252758   5.511  14.210  14.852
50307SOL     OW52759   2.446  13.096   0.703
50307SOL    HW152760   2.495  13.028   0.657
50307SOL    HW252761   2.355  13.070   0.696
50308SOL     OW52762  12.577  10.485   4.290
50308SOL    HW152763  12.580  10.545   4.365
50308SOL    HW252764  12.546  10.402   4.327
50309SOL     OW52765  12.731   9.933   0.852
50309SOL    HW152766  12.772   9.976   0.778
50309SOL    HW252767  12.785   9.958   0.927
50310SOL     OW52768  11.953  13.307   7.134
50310SOL    HW152769  11.960  13.216   7.105
50310SOL    HW252770  11.983  13.306   7.225
50311SOL     OW52771  14.362   6.618   7.355
50311SOL    HW152772  14.298   6.559   7.315
50311SOL    HW252773  14.428   6.560   7.393
50312SOL     OW52774  11.304   3.220   1.485
50312SOL    HW152775  11.392   3.235   1.448
50312SOL    HW252776  11.248   3.207   1.408
50313SOL     OW52777   9.332  12.334  14.028
50313SOL    HW152778   9.261  12.308  13.968
50313SOL    HW252779   9.287  12.359  14.109
50314SOL     OW52780   6.001   1.502   5.938
50314SOL    HW152781   5.935   1.570   5.953
50314SOL    HW252782   6.043   1.489   6.023
50315SOL     OW52783   0.750   7.135   5.014
50315SOL    HW152784   0.661   7.128   4.978
50315SOL    HW252785   0.752   7.222   5.054
50316SOL     OW52786   1.307  13.672   4.593
50316SOL    HW152787   1.314  13.765   4.570
50316SOL    HW252788   1.238  13.670   4.660
50317SOL     OW52789   4.654   6.001   2.857
50317SOL    HW152790   4.650   6.094   2.881
50317SOL    HW252791   4.747   5.979   2.859
50318SOL     OW52792   4.520   1.432  11.650
50318SOL    HW152793   4.525   1.337  11.640
50318SOL    HW252794   4.429   1.449  11.674
50319SOL     OW52795   3.115  10.469   5.909
50319SOL    HW152796   3.030  10.481   5.865
50319SOL    HW252797   3.107  10.518   5.990
50320SOL     OW52798   3.990  10.840   0.930
50320SOL    HW152799   4.011  10.850   1.023
50320SOL    HW252800   3.923  10.771   0.929
50321SOL     OW52801   6.870   9.984   1.160
50321SOL    HW152802   6.799   9.921   1.149
50321SOL    HW252803   6.836  10.065   1.121
50322SOL     OW52804  10.390  12.510  13.664
50322SOL    HW152805  10.364  12.454  13.591
50322SOL    HW252806  10.458  12.567  13.627
50323SOL     OW52807   8.303  14.462   8.597
50323SOL    HW152808   8.361  14.467   8.673
50323SOL    HW252809   8.356  14.496   8.524
50324SOL     OW52810   9.866   0.883   6.903
50324SOL    HW152811   9.782   0.837   6.901
50324SOL    HW252812   9.878   0.905   6.996
50325SOL     OW52813  14.625   7.604  13.468
50325SOL    HW152814  14.555   7.661  13.437
50325SOL    HW252815  14.581   7.525  13.498
50326SOL     OW52816  10.200  12.015   6.006
50326SOL    HW152817  10.188  11.952   5.936
50326SOL    HW252818  10.112  12.035   6.037
50327SOL     OW52819  13.876   2.677  10.153
50327SOL    HW152820  13.793   2.654  10.110
50327SOL    HW252821  13.850   2.721  10.234
50328SOL     OW52822   9.130   3.046   5.919
50328SOL    HW152823   9.222   3.020   5.920
50328SOL    HW252824   9.105   3.052   6.011
50329SOL     OW52825  12.033  12.631  12.578
50329SOL    HW152826  12.046  12.566  12.509
50329SOL    HW252827  11.976  12.587  12.641
50330SOL     OW52828   9.918   8.711   0.526
50330SOL    HW152829   9.889   8.800   0.550
50330SOL    HW252830   9.990   8.692   0.586
50331SOL     OW52831   0.605  11.497  14.016
50331SOL    HW152832   0.601  11.565  13.948
50331SOL    HW252833   0.672  11.528  14.077
50332SOL     OW52834   5.202   5.736   6.564
50332SOL    HW152835   5.264   5.800   6.528
50332SOL    HW252836   5.117   5.782   6.562
50333SOL     OW52837   6.606   2.359  14.109
50333SOL    HW152838   6.560   2.395  14.185
50333SOL    HW252839   6.645   2.435  14.066
50334SOL     OW52840   1.997   7.081   5.101
50334SOL    HW152841   2.070   7.060   5.042
50334SOL    HW252842   2.039   7.107   5.183
50335SOL     OW52843   5.903   9.597   9.101
50335SOL    HW152844   5.957   9.539   9.049
50335SOL    HW252845   5.816   9.557   9.102
50336SOL     OW52846   4.182  11.423   2.193
50336SOL    HW152847   4.164  11.429   2.099
50336SOL    HW252848   4.116  11.480   2.234
50337SOL     OW52849   1.755   5.874  12.913
50337SOL    HW152850   1.719   5.962  12.901
50337SOL    HW252851   1.817   5.882  12.985
50338SOL     OW52852  11.033   2.415   1.825
50338SOL    HW152853  11.031   2.448   1.735
50338SOL    HW252854  10.953   2.448   1.865
50339SOL     OW52855   8.937   0.008   1.437
50339SOL    HW152856   8.869   0.047   1.383
50339SOL    HW252857   8.948  14.794   1.402
50340SOL     OW52858   9.461   3.535   9.519
50340SOL    HW152859   9.369   3.540   9.546
50340SOL    HW252860   9.470   3.602   9.452
50341SOL     OW52861   5.619   1.055  11.621
50341SOL    HW152862   5.554   1.103  11.571
50341SOL    HW252863   5.569   0.987  11.667
50342SOL     OW52864   0.969   9.492  13.104
50342SOL    HW152865   1.018   9.550  13.162
50342SOL    HW252866   1.032   9.426  13.076
50343SOL     OW52867   9.545  13.318  14.579
50343SOL    HW152868   9.529  13.249  14.643
50343SOL    HW252869   9.531  13.275  14.494
50344SOL     OW52870   5.075  12.672  11.853
50344SOL    HW152871   5.059  12.583  11.884
50344SOL    HW252872   5.019  12.727  11.908
50345SOL     OW52873  12.452   2.618   1.479
50345SOL    HW152874  12.484   2.573   1.401
50345SOL    HW252875  12.459   2.711   1.458
50346SOL     OW52876  14.821  13.800  11.227
50346SOL    HW152877  14.800  13.714  11.263
50346SOL    HW252878  14.869  13.780  11.146
50347SOL     OW52879   2.379   9.730  10.336
50347SOL    HW152880   2.456   9.672  10.338
50347SOL    HW252881   2.415   9.816  10.317
50348SOL     OW52882  10.395  11.416   6.267
50348SOL    HW152883  10.402  11.408   6.362
50348SOL    HW252884  10.385  11.327   6.236
50349SOL     OW52885  12.981   4.253   7.305
50349SOL    HW152886  13.063   4.290   7.273
50349SOL    HW252887  12.913   4.297   7.254
50350SOL     OW52888   4.385   2.748   3.520
50350SOL    HW152889   4.313   2.810   3.530
50350SOL    HW252890   4.376   2.688   3.594
50351SOL     OW52891   8.255   4.811  10.773
50351SOL    HW152892   8.252   4.731  10.721
50351SOL    HW252893   8.237   4.782  10.863
50352SOL     OW52894   0.295   4.157  10.712
50352SOL    HW152895   0.345   4.177  10.791
50352SOL    HW252896   0.279   4.063  10.716
50353SOL     OW52897   4.420   5.703  12.334
50353SOL    HW152898   4.374   5.717  12.417
50353SOL    HW252899   4.461   5.617  12.343
50354SOL     OW52900   8.329  14.719   9.965
50354SOL    HW152901   8.259  14.778   9.993
50354SOL    HW252902   8.406  14.752  10.011
50355SOL     OW52903   7.650  13.114  11.590
50355SOL    HW152904   7.718  13.165  11.634
50355SOL    HW252905   7.569  13.135  11.638
50356SOL     OW52906  10.981   2.195  14.334
50356SOL    HW152907  10.962   2.285  14.310
50356SOL    HW252908  10.963   2.144  14.255
50357SOL     OW52909   8.514   2.643  12.989
50357SOL    HW152910   8.510   2.649  12.894
50357SOL    HW252911   8.460   2.567  13.010
50358SOL     OW52912   1.445   8.498  11.710
50358SOL    HW152913   1.496   8.482  11.631
50358SOL    HW252914   1.506   8.539  11.771
50359SOL     OW52915   8.154  10.380  10.489
50359SOL    HW152916   8.088  10.312  10.478
50359SOL    HW252917   8.194  10.388  10.402
50360SOL     OW52918  13.784   6.969   5.616
50360SOL    HW152919  13.828   7.050   5.643
50360SOL    HW252920  13.708   7.000   5.566
50361SOL     OW52921   0.314   9.321   9.394
50361SOL    HW152922   0.368   9.394   9.362
50361SOL    HW252923   0.352   9.298   9.478
50362SOL     OW52924  13.498  11.071  13.846
50362SOL    HW152925  13.488  11.155  13.891
50362SOL    HW252926  13.418  11.023  13.865
50363SOL     OW52927  11.453   0.913   8.551
50363SOL    HW152928  11.428   0.939   8.640
50363SOL    HW252929  11.455   0.995   8.502
50364SOL     OW52930  12.480  11.582   1.254
50364SOL    HW152931  12.513  11.606   1.341
50364SOL    HW252932  12.390  11.614   1.253
50365SOL     OW52933   7.584   2.430  14.836
50365SOL    HW152934   7.552   2.342  14.854
50365SOL    HW252935   7.565   2.480   0.042
50366SOL     OW52936   0.255  12.666   9.796
50366SOL    HW152937   0.290  12.610   9.865
50366SOL    HW252938   0.330  12.716   9.765
50367SOL     OW52939  11.138  13.343   9.575
50367SOL    HW152940  11.131  13.422   9.521
50367SOL    HW252941  11.197  13.285   9.526
50368SOL     OW52942   3.061  10.314   1.394
50368SOL    HW152943   3.039  10.298   1.486
50368SOL    HW252944   3.116  10.392   1.395
50369SOL     OW52945  10.108  10.961   9.503
50369SOL    HW152946  10.129  10.938   9.412
50369SOL    HW252947  10.132  10.883   9.553
50370SOL     OW52948   1.301  10.409   6.497
50370SOL    HW152949   1.274  10.370   6.414
50370SOL    HW252950   1.219  10.434   6.539
50371SOL     OW52951  11.278   3.660   3.538
50371SOL    HW152952  11.337   3.606   3.485
50371SOL    HW252953  11.190   3.638   3.505
50372SOL     OW52954   5.931   5.730  11.719
50372SOL    HW152955   5.884   5.743  11.637
50372SOL    HW252956   5.943   5.818  11.754
50373SOL     OW52957  10.248  12.742  12.016
50373SOL    HW152958  10.309  12.705  11.952
50373SOL    HW252959  10.274  12.834  12.023
50374SOL     OW52960  14.053  10.429   9.269
50374SOL    HW152961  14.102  10.391   9.197
50374SOL    HW252962  14.118  10.440   9.339
50375SOL     OW52963   2.414   4.984  14.546
50375SOL    HW152964   2.504   4.975  14.515
50375SOL    HW252965   2.361   4.987  14.466
50376SOL     OW52966  13.446   7.535   3.499
50376SOL    HW152967  13.533   7.536   3.539
50376SOL    HW252968  13.388   7.563   3.569
50377SOL     OW52969   1.580  14.053   6.104
50377SOL    HW152970   1.590  14.015   6.191
50377SOL    HW252971   1.548  13.981   6.050
50378SOL     OW52972  12.502   6.227   3.861
50378SOL    HW152973  12.495   6.194   3.772
50378SOL    HW252974  12.595   6.217   3.882
50379SOL     OW52975  13.798   9.454  10.084
50379SOL    HW152976  13.783   9.516  10.156
50379SOL    HW252977  13.812   9.370  10.128
50380SOL     OW52978   2.741  10.530  13.630
50380SOL    HW152979   2.659  10.563  13.666
50380SOL    HW252980   2.746  10.567  13.542
50381SOL     OW52981   0.237  12.723  11.256
50381SOL    HW152982   0.217  12.733  11.163
50381SOL    HW252983   0.209  12.806  11.295
50382SOL     OW52984   2.065  14.325   5.277
50382SOL    HW152985   2.034  14.412   5.302
50382SOL    HW252986   1.987  14.270   5.282
50383SOL     OW52987  13.360  13.957   4.659
50383SOL    HW152988  13.346  14.051   4.645
50383SOL    HW252989  13.438  13.936   4.609
50384SOL     OW52990   0.815   7.525   3.089
50384SOL    HW152991   0.888   7.464   3.088
50384SOL    HW252992   0.740   7.474   3.058
50385SOL     OW52993   7.728   6.467  13.616
50385SOL    HW152994   7.781   6.508  13.547
50385SOL    HW252995   7.677   6.540  13.652
50386SOL     OW52996   8.484   3.361   1.730
50386SOL    HW152997   8.539   3.366   1.808
50386SOL    HW252998   8.445   3.273   1.734
50387SOL     OW52999  13.876  12.000   7.529
50387SOL    HW153000  13.850  12.091   7.516
50387SOL    HW253001  13.882  11.990   7.624
50388SOL     OW53002  14.545   9.860   8.295
50388SOL    HW153003  14.578   9.816   8.216
50388SOL    HW253004  14.542   9.952   8.271
50389SOL     OW53005   6.665   0.219   7.768
50389SOL    HW153006   6.595   0.283   7.756
50389SOL    HW253007   6.631   0.138   7.729
50390SOL     OW53008   3.082  12.845   9.381
50390SOL    HW153009   2.988  12.854   9.397
50390SOL    HW253010   3.114  12.795   9.456
50391SOL     OW53011  13.412   3.323   3.962
50391SOL    HW153012  13.502   3.340   3.989
50391SOL    HW253013  13.385   3.246   4.012
50392SOL     OW53014   6.885   4.296   0.929
50392SOL    HW153015   6.813   4.353   0.953
50392SOL    HW253016   6.951   4.354   0.891
50393SOL     OW53017  12.428   6.813   1.022
50393SOL    HW153018  12.350   6.759   1.012
50393SOL    HW253019  12.489   6.758   1.071
50394SOL     OW53020   3.945   4.389   3.277
50394SOL    HW153021   4.038   4.399   3.297
50394SOL    HW253022   3.920   4.472   3.236
50395SOL     OW53023   3.502   2.149   4.737
50395SOL    HW153024   3.571   2.118   4.797
50395SOL    HW253025   3.455   2.216   4.787
50396SOL     OW53026   9.630   5.398   7.027
50396SOL    HW153027   9.635   5.332   6.959
50396SOL    HW253028   9.588   5.473   6.985
50397SOL     OW53029   7.195   8.429   3.857
50397SOL    HW153030   7.135   8.414   3.785
50397SOL    HW253031   7.263   8.362   3.846
50398SOL     OW53032  10.385   9.646  12.773
50398SOL    HW153033  10.318   9.604  12.826
50398SOL    HW253034  10.367   9.618  12.683
50399SOL     OW53035   0.432   5.835   1.129
50399SOL    HW153036   0.401   5.858   1.216
50399SOL    HW253037   0.438   5.918   1.082
50400SOL     OW53038   2.011   8.608  14.028
50400SOL    HW153039   2.035   8.525  14.069
50400SOL    HW253040   1.990   8.665  14.102
50401SOL     OW53041   8.723   5.749   5.519
50401SOL    HW153042   8.770   5.821   5.476
50401SOL    HW253043   8.758   5.748   5.608
50402SOL     OW53044   7.391  12.263   0.613
50402SOL    HW153045   7.305  12.293   0.640
50402SOL    HW253046   7.383  12.248   0.519
50403SOL     OW53047   9.242   1.545  13.647
50403SOL    HW153048   9.280   1.475  13.700
50403SOL    HW253049   9.317   1.585  13.603
50404SOL     OW53050   6.622  11.290  13.013
50404SOL    HW153051   6.598  11.301  12.921
50404SOL    HW253052   6.717  11.280  13.012
50405SOL     OW53053  13.735   2.890  12.931
50405SOL    HW153054  13.728   2.946  13.008
50405SOL    HW253055  13.826   2.860  12.931
50406SOL     OW53056   2.525   8.152  12.613
50406SOL    HW153057   2.533   8.244  12.587
50406SOL    HW253058   2.431   8.134  12.611
50407SOL     OW53059   1.617  11.156   5.570
50407SOL    HW153060   1.639  11.249   5.561
50407SOL    HW253061   1.545  11.143   5.509
50408SOL     OW53062   1.190   1.688  12.865
50408SOL    HW153063   1.167   1.598  12.841
50408SOL    HW253064   1.129   1.742  12.815
50409SOL     OW53065   0.358   5.332   4.524
50409SOL    HW153066   0.448   5.314   4.549
50409SOL    HW253067   0.327   5.395   4.589
50410SOL     OW53068  12.903  13.652  12.977
50410SOL    HW153069  12.989  13.625  13.009
50410SOL    HW253070  12.919  13.683  12.888
50411SOL     OW53071  10.711   3.319  13.105
50411SOL    HW153072  10.680   3.388  13.164
50411SOL    HW253073  10.710   3.240  13.159
50412SOL     OW53074  14.689   4.215   7.356
50412SOL    HW153075  14.713   4.144   7.298
50412SOL    HW253076  14.754   4.283   7.339
50413SOL     OW53077  10.106   3.494  12.127
50413SOL    HW153078  10.094   3.584  12.157
50413SOL    HW253079  10.024   3.472  12.082
50414SOL     OW53080  11.378   1.694  13.237
50414SOL    HW153081  11.389   1.704  13.142
50414SOL    HW253082  11.316   1.763  13.261
50415SOL     OW53083   1.901   5.414   7.708
50415SOL    HW153084   1.875   5.374   7.625
50415SOL    HW253085   1.838   5.380   7.772
50416SOL     OW53086   8.818   4.004   5.675
50416SOL    HW153087   8.766   4.064   5.728
50416SOL    HW253088   8.907   4.038   5.679
50417SOL     OW53089  11.090   1.186   8.579
50417SOL    HW153090  11.170   1.231   8.606
50417SOL    HW253091  11.045   1.166   8.661
50418SOL     OW53092   3.955   9.171  11.510
50418SOL    HW153093   3.874   9.152  11.556
50418SOL    HW253094   4.023   9.126  11.561
50419SOL     OW53095   7.106  12.700   1.521
50419SOL    HW153096   7.057  12.719   1.441
50419SOL    HW253097   7.052  12.635   1.568
50420SOL     OW53098  11.517   9.892  13.176
50420SOL    HW153099  11.505   9.974  13.223
50420SOL    HW253100  11.546   9.829  13.243
50421SOL     OW53101   1.868   7.231  10.092
50421SOL    HW153102   1.890   7.234   9.999
50421SOL    HW253103   1.782   7.273  10.097
50422SOL     OW53104   5.080  14.861  12.052
50422SOL    HW153105   5.104  14.832  12.140
50422SOL    HW253106   5.085  14.782  11.998
50423SOL     OW53107  11.579   1.461   2.863
50423SOL    HW153108  11.514   1.520   2.901
50423SOL    HW253109  11.657   1.475   2.916
50424SOL     OW53110   4.003  13.758   4.559
50424SOL    HW153111   4.092  13.756   4.525
50424SOL    HW253112   4.008  13.814   4.637
50425SOL     OW53113   5.871   9.795  10.953
50425SOL    HW153114   5.855   9.756  10.867
50425SOL    HW253115   5.947   9.748  10.987
50426SOL     OW53116   8.099  14.327   7.841
50426SOL    HW153117   8.089  14.363   7.929
50426SOL    HW253118   8.010  14.307   7.813
50427SOL     OW53119   4.693  11.823   9.556
50427SOL    HW153120   4.642  11.887   9.606
50427SOL    HW253121   4.695  11.858   9.467
50428SOL     OW53122  12.020   1.454   9.347
50428SOL    HW153123  12.082   1.405   9.400
50428SOL    HW253124  11.967   1.502   9.410
50429SOL     OW53125   5.379  12.200   9.529
50429SOL    HW153126   5.397  12.143   9.454
50429SOL    HW253127   5.362  12.139   9.601
50430SOL     OW53128  13.945   9.218  13.588
50430SOL    HW153129  13.882   9.148  13.568
50430SOL    HW253130  13.982   9.241  13.503
50431SOL     OW53131   3.456   6.023  13.262
50431SOL    HW153132   3.383   6.076  13.295
50431SOL    HW253133   3.502   6.082  13.202
50432SOL     OW53134   3.846   0.309   0.252
50432SOL    HW153135   3.901   0.238   0.284
50432SOL    HW253136   3.900   0.388   0.266
50433SOL     OW53137   8.435   1.649   4.243
50433SOL    HW153138   8.469   1.576   4.294
50433SOL    HW253139   8.362   1.683   4.294
50434SOL     OW53140   2.981   1.778  13.756
50434SOL    HW153141   2.929   1.707  13.794
50434SOL    HW253142   3.037   1.735  13.691
50435SOL     OW53143   5.728   7.470   3.771
50435SOL    HW153144   5.797   7.408   3.795
50435SOL    HW253145   5.708   7.516   3.853
50436SOL     OW53146   5.077   1.931   3.997
50436SOL    HW153147   5.130   1.852   3.997
50436SOL    HW253148   5.083   1.964   3.907
50437SOL     OW53149   3.225  10.040   4.591
50437SOL    HW153150   3.186   9.973   4.648
50437SOL    HW253151   3.150  10.078   4.545
50438SOL     OW53152   2.307   7.938   3.336
50438SOL    HW153153   2.394   7.899   3.333
50438SOL    HW253154   2.323   8.033   3.332
50439SOL     OW53155   0.524  10.323  12.040
50439SOL    HW153156   0.591  10.254  12.040
50439SOL    HW253157   0.455  10.289  11.984
50440SOL     OW53158   4.713   8.156   0.999
50440SOL    HW153159   4.653   8.100   0.950
50440SOL    HW253160   4.752   8.212   0.932
50441SOL     OW53161   2.670   1.611   9.948
50441SOL    HW153162   2.624   1.604  10.031
50441SOL    HW253163   2.601   1.606   9.882
50442SOL     OW53164  13.453   1.687  11.179
50442SOL    HW153165  13.404   1.631  11.118
50442SOL    HW253166  13.482   1.761  11.126
50443SOL     OW53167   6.753   0.742   3.943
50443SOL    HW153168   6.660   0.722   3.953
50443SOL    HW253169   6.797   0.681   4.001
50444SOL     OW53170   7.259   0.278   7.979
50444SOL    HW153171   7.290   0.334   8.050
50444SOL    HW253172   7.247   0.192   8.020
50445SOL     OW53173  11.468   8.483   0.898
50445SOL    HW153174  11.541   8.494   0.837
50445SOL    HW253175  11.510   8.469   0.983
50446SOL     OW53176   4.782   9.879   8.264
50446SOL    HW153177   4.829   9.951   8.221
50446SOL    HW253178   4.696   9.878   8.222
50447SOL     OW53179   0.989  11.205  11.157
50447SOL    HW153180   1.078  11.240  11.163
50447SOL    HW253181   0.986  11.136  11.224
50448SOL     OW53182   3.577   2.688   1.520
50448SOL    HW153183   3.533   2.603   1.517
50448SOL    HW253184   3.647   2.681   1.456
50449SOL     OW53185  12.938   7.270   7.778
50449SOL    HW153186  12.989   7.195   7.808
50449SOL    HW253187  12.957   7.276   7.684
50450SOL     OW53188   0.382   5.031   7.055
50450SOL    HW153189   0.364   5.106   7.112
50450SOL    HW253190   0.391   5.069   6.968
50451SOL     OW53191   9.628  13.929   2.177
50451SOL    HW153192   9.651  13.839   2.199
50451SOL    HW253193   9.536  13.924   2.149
50452SOL     OW53194   4.484   7.548   7.245
50452SOL    HW153195   4.401   7.569   7.288
50452SOL    HW253196   4.459   7.500   7.166
50453SOL     OW53197  10.038   6.125  14.442
50453SOL    HW153198  10.097   6.097  14.372
50453SOL    HW253199   9.950   6.102  14.410
50454SOL     OW53200   7.044   7.015   7.148
50454SOL    HW153201   7.122   6.988   7.100
50454SOL    HW253202   7.075   7.031   7.237
50455SOL     OW53203   8.221  14.672  11.617
50455SOL    HW153204   8.313  14.648  11.629
50455SOL    HW253205   8.206  14.742  11.681
50456SOL     OW53206  13.436   5.172  12.281
50456SOL    HW153207  13.460   5.080  12.275
50456SOL    HW253208  13.347   5.176  12.245
50457SOL     OW53209   5.725  14.314   4.032
50457SOL    HW153210   5.689  14.336   3.946
50457SOL    HW253211   5.813  14.281   4.014
50458SOL     OW53212   7.768  13.619   1.801
50458SOL    HW153213   7.727  13.554   1.857
50458SOL    HW253214   7.839  13.572   1.757
50459SOL     OW53215   5.038   7.781   1.314
50459SOL    HW153216   4.992   7.764   1.232
50459SOL    HW253217   4.970   7.780   1.381
50460SOL     OW53218   2.937   6.935  12.416
50460SOL    HW153219   3.014   6.926  12.472
50460SOL    HW253220   2.885   7.004  12.458
50461SOL     OW53221   9.434   0.414   6.114
50461SOL    HW153222   9.466   0.354   6.181
50461SOL    HW253223   9.480   0.389   6.034
50462SOL     OW53224   1.435  13.406   6.800
50462SOL    HW153225   1.444  13.477   6.863
50462SOL    HW253226   1.356  13.429   6.751
50463SOL     OW53227   0.736  10.254   3.027
50463SOL    HW153228   0.716  10.316   2.957
50463SOL    HW253229   0.769  10.176   2.982
50464SOL     OW53230   5.299   4.867   3.283
50464SOL    HW153231   5.391   4.884   3.304
50464SOL    HW253232   5.251   4.896   3.361
50465SOL     OW53233   1.300   0.657   8.838
50465SOL    HW153234   1.325   0.637   8.928
50465SOL    HW253235   1.208   0.631   8.832
50466SOL     OW53236   6.939   4.274   2.769
50466SOL    HW153237   6.941   4.204   2.704
50466SOL    HW253238   6.866   4.250   2.827
50467SOL     OW53239   4.814   8.774  13.067
50467SOL    HW153240   4.814   8.680  13.046
50467SOL    HW253241   4.878   8.812  13.007
50468SOL     OW53242  12.958   9.295   9.384
50468SOL    HW153243  13.053   9.288   9.371
50468SOL    HW253244  12.949   9.335   9.471
50469SOL     OW53245  13.435   9.121   4.225
50469SOL    HW153246  13.357   9.075   4.192
50469SOL    HW253247  13.404   9.170   4.301
50470SOL     OW53248   3.900   1.890  12.371
50470SOL    HW153249   3.919   1.926  12.458
50470SOL    HW253250   3.984   1.890  12.326
50471SOL     OW53251   8.140  14.057   0.500
50471SOL    HW153252   8.192  14.100   0.568
50471SOL    HW253253   8.063  14.024   0.546
50472SOL     OW53254   7.553  13.320   4.386
50472SOL    HW153255   7.521  13.398   4.340
50472SOL    HW253256   7.598  13.354   4.463
50473SOL     OW53257  12.525   8.601   0.595
50473SOL    HW153258  12.547   8.508   0.585
50473SOL    HW253259  12.587   8.646   0.538
50474SOL     OW53260   3.011   4.925   0.507
50474SOL    HW153261   2.959   4.971   0.573
50474SOL    HW253262   3.060   4.995   0.463
50475SOL     OW53263   1.770   6.326   9.914
50475SOL    HW153264   1.860   6.294   9.924
50475SOL    HW253265   1.755   6.324   9.819
50476SOL     OW53266   4.341   5.549   9.275
50476SOL    HW153267   4.435   5.560   9.258
50476SOL    HW253268   4.315   5.630   9.318
50477SOL     OW53269   7.213   5.380   6.605
50477SOL    HW153270   7.305   5.362   6.625
50477SOL    HW253271   7.187   5.310   6.546
50478SOL     OW53272   7.911  12.349   9.414
50478SOL    HW153273   7.978  12.282   9.396
50478SOL    HW253274   7.895  12.390   9.329
50479SOL     OW53275   6.193   7.393   6.414
50479SOL    HW153276   6.224   7.468   6.363
50479SOL    HW253277   6.268   7.368   6.468
50480SOL     OW53278   7.823   9.287   0.492
50480SOL    HW153279   7.900   9.327   0.534
50480SOL    HW253280   7.853   9.261   0.405
50481SOL     OW53281   7.504   5.854   8.768
50481SOL    HW153282   7.521   5.781   8.708
50481SOL    HW253283   7.414   5.840   8.797
50482SOL     OW53284   2.666  12.179   3.625
50482SOL    HW153285   2.689  12.087   3.611
50482SOL    HW253286   2.745  12.219   3.659
50483SOL     OW53287  13.688   1.516  13.529
50483SOL    HW153288  13.728   1.473  13.454
50483SOL    HW253289  13.601   1.542  13.499
50484SOL     OW53290  11.789   2.533   1.344
50484SOL    HW153291  11.851   2.597   1.310
50484SOL    HW253292  11.832   2.448   1.333
50485SOL     OW53293   7.593   3.451   0.922
50485SOL    HW153294   7.648   3.372   0.915
50485SOL    HW253295   7.580   3.479   0.832
50486SOL     OW53296  11.442  13.884  10.645
50486SOL    HW153297  11.360  13.901  10.598
50486SOL    HW253298  11.425  13.804  10.695
50487SOL     OW53299  12.745   3.019  10.722
50487SOL    HW153300  12.695   3.056  10.649
50487SOL    HW253301  12.812   2.965  10.680
50488SOL     OW53302   2.403   6.622   1.964
50488SOL    HW153303   2.401   6.665   1.879
50488SOL    HW253304   2.401   6.528   1.944
50489SOL     OW53305   1.412  11.108  10.076
50489SOL    HW153306   1.319  11.128  10.074
50489SOL    HW253307   1.442  11.121   9.986
50490SOL     OW53308  13.664   6.153   7.579
50490SOL    HW153309  13.601   6.114   7.638
50490SOL    HW253310  13.708   6.220   7.631
50491SOL     OW53311   2.277   6.622   0.785
50491SOL    HW153312   2.301   6.711   0.813
50491SOL    HW253313   2.316   6.613   0.699
50492SOL     OW53314  13.476   0.619   4.957
50492SOL    HW153315  13.513   0.700   4.923
50492SOL    HW253316  13.413   0.647   5.023
50493SOL     OW53317   4.105   0.470   3.881
50493SOL    HW153318   4.017   0.467   3.920
50493SOL    HW253319   4.134   0.379   3.883
50494SOL     OW53320  11.564   8.197  12.602
50494SOL    HW153321  11.596   8.252  12.674
50494SOL    HW253322  11.471   8.184  12.622
50495SOL     OW53323   5.704  14.270   8.938
50495SOL    HW153324   5.769  14.302   8.876
50495SOL    HW253325   5.750  14.202   8.987
50496SOL     OW53326   6.657   0.605   7.862
50496SOL    HW153327   6.690   0.550   7.933
50496SOL    HW253328   6.564   0.615   7.881
50497SOL     OW53329  11.050   1.753   2.164
50497SOL    HW153330  11.068   1.671   2.117
50497SOL    HW253331  11.098   1.820   2.115
50498SOL     OW53332   0.802  13.258  14.249
50498SOL    HW153333   0.894  13.236  14.266
50498SOL    HW253334   0.784  13.331  14.308
50499SOL     OW53335   4.656   3.885   8.405
50499SOL    HW153336   4.656   3.954   8.339
50499SOL    HW253337   4.563   3.867   8.420
50500SOL     OW53338  14.843   6.232   7.912
50500SOL    HW153339  14.776   6.185   7.961
50500SOL    HW253340  14.809   6.235   7.822
50501SOL     OW53341  12.110   5.655   6.173
50501SOL    HW153342  12.154   5.649   6.088
50501SOL    HW253343  12.179   5.634   6.236
50502SOL     OW53344  11.228  14.269   6.657
50502SOL    HW153345  11.319  14.295   6.668
50502SOL    HW253346  11.230  14.207   6.584
50503SOL     OW53347  11.721   5.616   3.955
50503SOL    HW153348  11.734   5.686   4.019
50503SOL    HW253349  11.640   5.573   3.983
50504SOL     OW53350   9.442  12.718   8.850
50504SOL    HW153351   9.446  12.677   8.936
50504SOL    HW253352   9.532  12.747   8.832
50505SOL     OW53353  13.237   5.675   2.653
50505SOL    HW153354  13.159   5.633   2.690
50505SOL    HW253355  13.272   5.611   2.591
50506SOL     OW53356   3.581   3.043   7.904
50506SOL    HW153357   3.598   3.063   7.996
50506SOL    HW253358   3.513   2.976   7.906
50507SOL     OW53359   9.274   7.233  10.784
50507SOL    HW153360   9.188   7.272  10.795
50507SOL    HW253361   9.334   7.307  10.783
50508SOL     OW53362   0.156   3.346   7.843
50508SOL    HW153363   0.208   3.275   7.805
50508SOL    HW253364   0.085   3.360   7.780
50509SOL     OW53365   5.111  11.283   6.973
50509SOL    HW153366   5.116  11.205   6.918
50509SOL    HW253367   5.092  11.354   6.912
50510SOL     OW53368  14.493   0.785   3.509
50510SOL    HW153369  14.479   0.729   3.433
50510SOL    HW253370  14.406   0.819   3.530
50511SOL     OW53371   2.260   8.842  12.934
50511SOL    HW153372   2.247   8.923  12.983
50511SOL    HW253373   2.355   8.837  12.923
50512SOL     OW53374   2.174   1.413  13.420
50512SOL    HW153375   2.173   1.344  13.486
50512SOL    HW253376   2.148   1.492  13.467
50513SOL     OW53377   0.669  13.772   8.377
50513SOL    HW153378   0.721  13.697   8.348
50513SOL    HW253379   0.580  13.752   8.349
50514SOL     OW53380   5.576   1.923   6.506
50514SOL    HW153381   5.481   1.926   6.500
50514SOL    HW253382   5.597   1.830   6.505
50515SOL     OW53383  11.398   1.069   8.203
50515SOL    HW153384  11.441   1.145   8.164
50515SOL    HW253385  11.343   1.105   8.272
50516SOL     OW53386  11.029  12.831   3.840
50516SOL    HW153387  10.937  12.840   3.816
50516SOL    HW253388  11.050  12.739   3.822
50517SOL     OW53389  12.800   1.789  11.554
50517SOL    HW153390  12.762   1.759  11.637
50517SOL    HW253391  12.767   1.878  11.544
50518SOL     OW53392  11.616   8.840  10.342
50518SOL    HW153393  11.607   8.887  10.424
50518SOL    HW253394  11.531   8.848  10.299
50519SOL     OW53395   4.943  12.842   5.254
50519SOL    HW153396   4.975  12.776   5.193
50519SOL    HW253397   4.848  12.834   5.252
50520SOL     OW53398   0.907   9.559   3.123
50520SOL    HW153399   0.892   9.517   3.208
50520SOL    HW253400   0.991   9.524   3.094
50521SOL     OW53401  12.266  13.054   5.945
50521SOL    HW153402  12.266  13.104   6.027
50521SOL    HW253403  12.330  12.984   5.959
50522SOL     OW53404  12.988   0.966  10.030
50522SOL    HW153405  13.066   1.015  10.055
50522SOL    HW253406  12.916   1.016  10.068
50523SOL     OW53407   6.275  14.443   0.144
50523SOL    HW153408   6.272  14.497   0.224
50523SOL    HW253409   6.267  14.353   0.176
50524SOL     OW53410  11.618  10.351   6.390
50524SOL    HW153411  11.573  10.427   6.427
50524SOL    HW253412  11.563  10.276   6.412
50525SOL     OW53413   0.482  11.056  10.447
50525SOL    HW153414   0.409  10.995  10.458
50525SOL    HW253415   0.450  11.120  10.384
50526SOL     OW53416  12.606   7.678   6.568
50526SOL    HW153417  12.513   7.666   6.586
50526SOL    HW253418  12.638   7.590   6.546
50527SOL     OW53419   1.919   9.980  11.738
50527SOL    HW153420   1.887   9.999  11.650
50527SOL    HW253421   2.014   9.980  11.730
50528SOL     OW53422   8.267  14.111  14.224
50528SOL    HW153423   8.357  14.126  14.252
50528SOL    HW253424   8.214  14.166  14.282
50529SOL     OW53425  14.403  12.530  12.119
50529SOL    HW153426  14.406  12.481  12.037
50529SOL    HW253427  14.309  12.534  12.141
50530SOL     OW53428   0.840   6.771   6.988
50530SOL    HW153429   0.777   6.702   6.968
50530SOL    HW253430   0.808   6.811   7.069
50531SOL     OW53431   2.654   5.268   0.849
50531SOL    HW153432   2.646   5.196   0.788
50531SOL    HW253433   2.747   5.293   0.845
50532SOL     OW53434  10.414  10.624   7.930
50532SOL    HW153435  10.389  10.650   7.841
50532SOL    HW253436  10.414  10.528   7.927
50533SOL     OW53437  12.271  14.586   2.228
50533SOL    HW153438  12.291  14.623   2.314
50533SOL    HW253439  12.354  14.550   2.198
50534SOL     OW53440  11.522   6.563   2.052
50534SOL    HW153441  11.585   6.491   2.043
50534SOL    HW253442  11.483   6.549   2.138
50535SOL     OW53443  13.381  14.562   4.696
50535SOL    HW153444  13.389  14.584   4.789
50535SOL    HW253445  13.469  14.534   4.670
50536SOL     OW53446   6.913   8.980   7.490
50536SOL    HW153447   6.970   9.022   7.554
50536SOL    HW253448   6.825   9.006   7.515
50537SOL     OW53449  13.113  10.856   7.941
50537SOL    HW153450  13.109  10.764   7.917
50537SOL    HW253451  13.166  10.859   8.020
50538SOL     OW53452   5.974  14.076  13.576
50538SOL    HW153453   5.991  14.167  13.602
50538SOL    HW253454   5.978  14.078  13.480
50539SOL     OW53455   1.730   4.876  11.613
50539SOL    HW153456   1.649   4.833  11.639
50539SOL    HW253457   1.713   4.970  11.625
50540SOL     OW53458  13.787   3.968   8.352
50540SOL    HW153459  13.715   3.990   8.412
50540SOL    HW253460  13.838   3.902   8.399
50541SOL     OW53461   7.899  11.915   4.788
50541SOL    HW153462   7.899  12.006   4.758
50541SOL    HW253463   7.878  11.920   4.881
50542SOL     OW53464   2.511   9.023  13.035
50542SOL    HW153465   2.491   9.107  12.993
50542SOL    HW253466   2.457   9.022  13.114
50543SOL     OW53467  13.748   4.030   5.237
50543SOL    HW153468  13.712   4.115   5.215
50543SOL    HW253469  13.843   4.039   5.224
50544SOL     OW53470  13.617  10.490  11.207
50544SOL    HW153471  13.708  10.478  11.231
50544SOL    HW253472  13.597  10.415  11.151
50545SOL     OW53473   5.648   3.420   6.324
50545SOL    HW153474   5.660   3.348   6.263
50545SOL    HW253475   5.732   3.427   6.369
50546SOL     OW53476  10.076   1.139   2.687
50546SOL    HW153477  10.137   1.120   2.615
50546SOL    HW253478  10.002   1.080   2.672
50547SOL     OW53479  13.772   9.009  14.486
50547SOL    HW153480  13.820   8.995  14.404
50547SOL    HW253481  13.838   9.036  14.549
50548SOL     OW53482   1.027   0.531  12.402
50548SOL    HW153483   1.056   0.519  12.492
50548SOL    HW253484   0.944   0.580  12.410
50549SOL     OW53485   7.990   9.493   1.842
50549SOL    HW153486   8.027   9.581   1.849
50549SOL    HW253487   7.913   9.495   1.899
50550SOL     OW53488  13.560  11.788   9.185
50550SOL    HW153489  13.604  11.758   9.106
50550SOL    HW253490  13.495  11.719   9.204
50551SOL     OW53491   5.029   9.392   2.156
50551SOL    HW153492   5.105   9.345   2.190
50551SOL    HW253493   5.018   9.467   2.214
50552SOL     OW53494   6.365   2.999   3.142
50552SOL    HW153495   6.290   2.940   3.147
50552SOL    HW253496   6.353   3.046   3.060
50553SOL     OW53497   3.686   1.739  10.127
50553SOL    HW153498   3.604   1.705  10.162
50553SOL    HW253499   3.746   1.664  10.129
50554SOL     OW53500   2.050   2.707  11.485
50554SOL    HW153501   2.092   2.627  11.454
50554SOL    HW253502   2.057   2.701  11.581
50555SOL     OW53503   4.126   5.045   5.224
50555SOL    HW153504   4.187   4.980   5.188
50555SOL    HW253505   4.120   5.112   5.156
50556SOL     OW53506   0.902   9.760   4.313
50556SOL    HW153507   0.887   9.699   4.386
50556SOL    HW253508   0.919   9.844   4.356
50557SOL     OW53509   6.133   0.917   6.152
50557SOL    HW153510   6.227   0.908   6.134
50557SOL    HW253511   6.091   0.861   6.088
50558SOL     OW53512   7.831  13.868   5.040
50558SOL    HW153513   7.848  13.960   5.016
50558SOL    HW253514   7.740  13.867   5.068
50559SOL     OW53515  11.676  14.618   6.617
50559SOL    HW153516  11.728  14.594   6.540
50559SOL    HW253517  11.588  14.585   6.597
50560SOL     OW53518   9.964   6.784   4.824
50560SOL    HW153519   9.939   6.822   4.908
50560SOL    HW253520   9.881   6.757   4.785
50561SOL     OW53521  10.060  13.081   3.712
50561SOL    HW153522   9.978  13.075   3.761
50561SOL    HW253523  10.033  13.102   3.622
50562SOL     OW53524   8.163  11.394   9.563
50562SOL    HW153525   8.135  11.304   9.577
50562SOL    HW253526   8.096  11.447   9.605
50563SOL     OW53527  12.383  10.346  10.390
50563SOL    HW153528  12.318  10.279  10.410
50563SOL    HW253529  12.414  10.325  10.302
50564SOL     OW53530   1.182   3.701   5.195
50564SOL    HW153531   1.141   3.784   5.171
50564SOL    HW253532   1.108   3.642   5.209
50565SOL     OW53533  12.687   6.562   3.729
50565SOL    HW153534  12.705   6.617   3.653
50565SOL    HW253535  12.661   6.478   3.692
50566SOL     OW53536  12.977   5.173   4.160
50566SOL    HW153537  13.037   5.195   4.232
50566SOL    HW253538  12.903   5.233   4.171
50567SOL     OW53539   6.976   5.937  14.365
50567SOL    HW153540   7.033   5.861  14.369
50567SOL    HW253541   6.889   5.901  14.351
50568SOL     OW53542  11.209   6.371   6.819
50568SOL    HW153543  11.143   6.388   6.887
50568SOL    HW253544  11.267   6.447   6.824
50569SOL     OW53545   2.750   0.615  14.560
50569SOL    HW153546   2.814   0.551  14.529
50569SOL    HW253547   2.681   0.614  14.493
50570SOL     OW53548  11.747   4.316  14.587
50570SOL    HW153549  11.665   4.311  14.638
50570SOL    HW253550  11.814   4.282  14.646
50571SOL     OW53551  10.726   6.692   9.938
50571SOL    HW153552  10.723   6.763  10.002
50571SOL    HW253553  10.636   6.682   9.908
50572SOL     OW53554  13.557  12.525   9.159
50572SOL    HW153555  13.609  12.445   9.149
50572SOL    HW253556  13.622  12.594   9.171
50573SOL     OW53557   5.625   3.978  14.620
50573SOL    HW153558   5.539   3.949  14.589
50573SOL    HW253559   5.684   3.905  14.600
50574SOL     OW53560  11.467  13.819   3.340
50574SOL    HW153561  11.518  13.745   3.373
50574SOL    HW253562  11.521  13.855   3.270
50575SOL     OW53563  13.438   6.257   0.021
50575SOL    HW153564  13.466   6.199  14.825
50575SOL    HW253565  13.345   6.273   0.004
50576SOL     OW53566   6.459   0.922   8.651
50576SOL    HW153567   6.378   0.891   8.611
50576SOL    HW253568   6.494   0.985   8.588
50577SOL     OW53569  11.058   5.479   2.373
50577SOL    HW153570  11.056   5.385   2.361
50577SOL    HW253571  10.966   5.506   2.373
50578SOL     OW53572   4.554   2.685   2.387
50578SOL    HW153573   4.558   2.763   2.332
50578SOL    HW253574   4.642   2.676   2.423
50579SOL     OW53575  14.236   4.409  14.122
50579SOL    HW153576  14.244   4.477  14.189
50579SOL    HW253577  14.292   4.338  14.152
50580SOL     OW53578   3.349   6.351  12.634
50580SOL    HW153579   3.283   6.288  12.663
50580SOL    HW253580   3.311   6.391  12.556
50581SOL     OW53581   4.917   9.837   7.474
50581SOL    HW153582   4.993   9.853   7.531
50581SOL    HW253583   4.883   9.925   7.455
50582SOL     OW53584   6.155   0.453   1.489
50582SOL    HW153585   6.210   0.476   1.564
50582SOL    HW253586   6.071   0.429   1.528
50583SOL     OW53587   4.342   7.735   7.920
50583SOL    HW153588   4.385   7.668   7.868
50583SOL    HW253589   4.322   7.692   8.003
50584SOL     OW53590  10.663   7.632  12.025
50584SOL    HW153591  10.621   7.675  12.100
50584SOL    HW253592  10.752   7.667  12.024
50585SOL     OW53593  10.927  11.883   7.507
50585SOL    HW153594  10.959  11.794   7.497
50585SOL    HW253595  10.902  11.889   7.599
50586SOL     OW53596  11.616   5.017  13.681
50586SOL    HW153597  11.528   5.005  13.716
50586SOL    HW253598  11.603   5.036  13.588
50587SOL     OW53599  12.477   3.737  11.950
50587SOL    HW153600  12.512   3.686  11.876
50587SOL    HW253601  12.536   3.812  11.957
50588SOL     OW53602   2.890   8.902   0.194
50588SOL    HW153603   2.871   8.923   0.285
50588SOL    HW253604   2.814   8.852   0.165
50589SOL     OW53605   2.716   4.644   2.540
50589SOL    HW153606   2.685   4.671   2.627
50589SOL    HW253607   2.648   4.584   2.508
50590SOL     OW53608   7.212  13.905   0.518
50590SOL    HW153609   7.154  13.889   0.593
50590SOL    HW253610   7.204  13.825   0.465
50591SOL     OW53611   4.013  13.679   1.066
50591SOL    HW153612   4.034  13.765   1.102
50591SOL    HW253613   4.097  13.641   1.042
50592SOL     OW53614  13.155   7.535   4.134
50592SOL    HW153615  13.238   7.539   4.087
50592SOL    HW253616  13.100   7.601   4.091
50593SOL     OW53617  14.060   9.905   0.862
50593SOL    HW153618  14.095   9.964   0.929
50593SOL    HW253619  13.968   9.931   0.854
50594SOL     OW53620   6.683   9.094   0.955
50594SOL    HW153621   6.697   9.183   0.921
50594SOL    HW253622   6.602   9.065   0.914
50595SOL     OW53623  13.144  13.290   6.304
50595SOL    HW153624  13.170  13.379   6.328
50595SOL    HW253625  13.084  13.263   6.372
50596SOL     OW53626  14.246   1.317   1.695
50596SOL    HW153627  14.291   1.326   1.611
50596SOL    HW253628  14.176   1.382   1.693
50597SOL     OW53629  11.649  11.768   2.313
50597SOL    HW153630  11.623  11.678   2.334
50597SOL    HW253631  11.649  11.813   2.397
50598SOL     OW53632  10.783   6.610  13.578
50598SOL    HW153633  10.729   6.632  13.654
50598SOL    HW253634  10.720   6.584  13.510
50599SOL     OW53635   5.198  10.528   3.137
50599SOL    HW153636   5.165  10.593   3.075
50599SOL    HW253637   5.145  10.450   3.120
50600SOL     OW53638   6.165  11.963   1.012
50600SOL    HW153639   6.174  12.029   1.081
50600SOL    HW253640   6.228  11.991   0.945
50601SOL     OW53641   7.235   4.820   3.094
50601SOL    HW153642   7.151   4.813   3.140
50601SOL    HW253643   7.223   4.769   3.014
50602SOL     OW53644  12.600   1.145  13.122
50602SOL    HW153645  12.640   1.062  13.148
50602SOL    HW253646  12.565   1.127  13.034
50603SOL     OW53647  10.380   2.464   9.400
50603SOL    HW153648  10.406   2.406   9.328
50603SOL    HW253649  10.295   2.499   9.374
50604SOL     OW53650   3.021   9.670  11.560
50604SOL    HW153651   2.973   9.752  11.568
50604SOL    HW253652   3.099   9.682  11.614
50605SOL     OW53653   2.971  13.778   2.180
50605SOL    HW153654   3.055  13.801   2.218
50605SOL    HW253655   2.909  13.784   2.253
50606SOL     OW53656   0.580   5.005   8.024
50606SOL    HW153657   0.558   4.955   7.946
50606SOL    HW253658   0.673   4.988   8.039
50607SOL     OW53659   8.441   4.590   4.086
50607SOL    HW153660   8.531   4.561   4.067
50607SOL    HW253661   8.387   4.514   4.065
50608SOL     OW53662  10.157  13.774   7.709
50608SOL    HW153663  10.092  13.703   7.706
50608SOL    HW253664  10.127  13.836   7.643
50609SOL     OW53665  14.652   6.242   5.805
50609SOL    HW153666  14.724   6.217   5.863
50609SOL    HW253667  14.573   6.228   5.858
50610SOL     OW53668   8.356   2.942   6.739
50610SOL    HW153669   8.274   2.901   6.713
50610SOL    HW253670   8.342   3.036   6.726
50611SOL     OW53671   1.309   9.884   9.555
50611SOL    HW153672   1.301   9.925   9.469
50611SOL    HW253673   1.279   9.952   9.617
50612SOL     OW53674  14.080   8.728  12.530
50612SOL    HW153675  14.086   8.647  12.479
50612SOL    HW253676  13.998   8.769  12.501
50613SOL     OW53677   3.079   5.637   2.748
50613SOL    HW153678   3.005   5.666   2.802
50613SOL    HW253679   3.156   5.677   2.790
50614SOL     OW53680   6.730   6.018  10.716
50614SOL    HW153681   6.798   6.051  10.657
50614SOL    HW253682   6.712   5.929  10.685
50615SOL     OW53683   3.721   0.016  14.831
50615SOL    HW153684   3.671  14.811  14.810
50615SOL    HW253685   3.785   0.024  14.760
50616SOL     OW53686   1.197  13.894  10.689
50616SOL    HW153687   1.127  13.959  10.699
50616SOL    HW253688   1.154  13.818  10.649
50617SOL     OW53689  10.510  12.468   2.763
50617SOL    HW153690  10.470  12.500   2.682
50617SOL    HW253691  10.480  12.530   2.830
50618SOL     OW53692   1.565  13.918   5.215
50618SOL    HW153693   1.572  13.888   5.306
50618SOL    HW253694   1.551  14.013   5.222
50619SOL     OW53695  11.341   2.004  11.965
50619SOL    HW153696  11.294   2.010  11.881
50619SOL    HW253697  11.309   1.924  12.005
50620SOL     OW53698  14.849   5.293   3.728
50620SOL    HW153699  14.860   5.201   3.706
50620SOL    HW253700   0.028   5.306   3.807
50621SOL     OW53701   5.888  14.364   8.526
50621SOL    HW153702   5.846  14.367   8.612
50621SOL    HW253703   5.839  14.298   8.477
50622SOL     OW53704  14.854   7.094   2.552
50622SOL    HW153705  14.793   7.024   2.574
50622SOL    HW253706   0.067   7.056   2.564
50623SOL     OW53707  13.774  10.311  14.801
50623SOL    HW153708  13.815  10.382  14.752
50623SOL    HW253709  13.687  10.343  14.822
50624SOL     OW53710  12.661   9.368   7.750
50624SOL    HW153711  12.572   9.357   7.783
50624SOL    HW253712  12.653   9.432   7.680
50625SOL     OW53713   5.126   5.508   5.587
50625SOL    HW153714   5.172   5.447   5.645
50625SOL    HW253715   5.138   5.472   5.499
50626SOL     OW53716   7.697   8.885  13.065
50626SOL    HW153717   7.778   8.870  13.015
50626SOL    HW253718   7.720   8.862  13.155
50627SOL     OW53719  12.580   3.928   9.284
50627SOL    HW153720  12.498   3.964   9.250
50627SOL    HW253721  12.586   3.841   9.243
50628SOL     OW53722  10.283  12.336  10.434
50628SOL    HW153723  10.324  12.340  10.347
50628SOL    HW253724  10.200  12.382  10.422
50629SOL     OW53725   7.190   4.468   3.372
50629SOL    HW153726   7.227   4.478   3.284
50629SOL    HW253727   7.257   4.501   3.431
50630SOL     OW53728   1.451  13.926  11.684
50630SOL    HW153729   1.479  13.856  11.625
50630SOL    HW253730   1.459  14.005  11.632
50631SOL     OW53731   1.446   0.430   3.836
50631SOL    HW153732   1.422   0.338   3.824
50631SOL    HW253733   1.527   0.440   3.786
50632SOL     OW53734   5.777   4.623  12.086
50632SOL    HW153735   5.719   4.649  12.014
50632SOL    HW253736   5.853   4.681  12.077
50633SOL     OW53737   8.620   0.715   1.084
50633SOL    HW153738   8.619   0.809   1.069
50633SOL    HW253739   8.555   0.680   1.023
50634SOL     OW53740   9.076   3.400   3.134
50634SOL    HW153741   8.993   3.381   3.177
50634SOL    HW253742   9.117   3.315   3.121
50635SOL     OW53743  10.302   8.058  14.136
50635SOL    HW153744  10.212   8.088  14.148
50635SOL    HW253745  10.356   8.133  14.159
50636SOL     OW53746   8.516   1.423   5.536
50636SOL    HW153747   8.518   1.407   5.631
50636SOL    HW253748   8.582   1.492   5.523
50637SOL     OW53749   4.894  14.718   3.441
50637SOL    HW153750   4.916  14.808   3.464
50637SOL    HW253751   4.967  14.666   3.475
50638SOL     OW53752   4.017  10.367   2.656
50638SOL    HW153753   4.046  10.367   2.747
50638SOL    HW253754   4.097  10.368   2.605
50639SOL     OW53755  14.097   3.622  13.499
50639SOL    HW153756  14.103   3.670  13.416
50639SOL    HW253757  14.151   3.544  13.484
50640SOL     OW53758   9.020  11.688   9.174
50640SOL    HW153759   9.056  11.763   9.126
50640SOL    HW253760   8.978  11.726   9.250
50641SOL     OW53761   0.357   6.434  11.465
50641SOL    HW153762   0.394   6.353  11.499
50641SOL    HW253763   0.387   6.502  11.526
50642SOL     OW53764   8.431   6.214   9.566
50642SOL    HW153765   8.492   6.144   9.591
50642SOL    HW253766   8.348   6.187   9.605
50643SOL     OW53767   5.373  12.203  13.192
50643SOL    HW153768   5.355  12.122  13.145
50643SOL    HW253769   5.299  12.260  13.170
50644SOL     OW53770  11.057  14.061  10.017
50644SOL    HW153771  11.094  13.973  10.018
50644SOL    HW253772  11.093  14.103   9.939
50645SOL     OW53773  12.697   5.895   9.531
50645SOL    HW153774  12.727   5.807   9.554
50645SOL    HW253775  12.754   5.920   9.457
50646SOL     OW53776  10.175  12.804   3.189
50646SOL    HW153777  10.128  12.723   3.169
50646SOL    HW253778  10.183  12.805   3.284
50647SOL     OW53779   4.305  12.921   6.264
50647SOL    HW153780   4.284  12.972   6.186
50647SOL    HW253781   4.227  12.869   6.280
50648SOL     OW53782   8.483   7.105  13.388
50648SOL    HW153783   8.466   7.109  13.294
50648SOL    HW253784   8.562   7.050  13.395
50649SOL     OW53785   7.050   3.270  13.007
50649SOL    HW153786   6.976   3.332  13.002
50649SOL    HW253787   7.127   3.323  12.985
50650SOL     OW53788  13.021   5.280   1.036
50650SOL    HW153789  12.976   5.343   1.092
50650SOL    HW253790  13.058   5.332   0.965
50651SOL     OW53791   0.182   0.848  13.296
50651SOL    HW153792   0.195   0.884  13.208
50651SOL    HW253793   0.194   0.923  13.354
50652SOL     OW53794   3.765  13.730   2.103
50652SOL    HW153795   3.675  13.740   2.132
50652SOL    HW253796   3.781  13.805   2.046
50653SOL     OW53797  14.572  13.153   5.829
50653SOL    HW153798  14.560  13.231   5.883
50653SOL    HW253799  14.650  13.112   5.864
50654SOL     OW53800  14.673  10.854  11.483
50654SOL    HW153801  14.604  10.899  11.532
50654SOL    HW253802  14.654  10.761  11.495
50655SOL     OW53803   7.884   0.782  10.959
50655SOL    HW153804   7.950   0.737  11.012
50655SOL    HW253805   7.904   0.875  10.970
50656SOL     OW53806  11.273   9.100  10.463
50656SOL    HW153807  11.366   9.124  10.455
50656SOL    HW253808  11.226   9.168  10.415
50657SOL     OW53809   1.304   0.028  13.297
50657SOL    HW153810   1.215   0.035  13.332
50657SOL    HW253811   1.323   0.116  13.263
50658SOL     OW53812  13.396   5.946  14.133
50658SOL    HW153813  13.383   5.912  14.221
50658SOL    HW253814  13.487   5.976  14.131
50659SOL     OW53815   2.314   2.118   3.472
50659SOL    HW153816   2.386   2.117   3.535
50659SOL    HW253817   2.278   2.207   3.477
50660SOL     OW53818  11.168   1.361  11.574
50660SOL    HW153819  11.112   1.319  11.639
50660SOL    HW253820  11.110   1.420  11.526
50661SOL     OW53821  10.363  11.125   5.354
50661SOL    HW153822  10.343  11.157   5.441
50661SOL    HW253823  10.363  11.029   5.363
50662SOL     OW53824  14.269   6.775  14.800
50662SOL    HW153825  14.232   6.702  14.849
50662SOL    HW253826  14.316   6.735  14.727
50663SOL     OW53827   3.969   5.642   0.135
50663SOL    HW153828   4.003   5.715   0.084
50663SOL    HW253829   4.041   5.619   0.195
50664SOL     OW53830   5.438   5.308   3.744
50664SOL    HW153831   5.436   5.403   3.758
50664SOL    HW253832   5.507   5.277   3.802
50665SOL     OW53833  11.326   4.787  12.972
50665SOL    HW153834  11.286   4.842  13.040
50665SOL    HW253835  11.271   4.709  12.969
50666SOL     OW53836   8.836   7.077   3.138
50666SOL    HW153837   8.788   7.158   3.124
50666SOL    HW253838   8.846   7.039   3.051
50667SOL     OW53839   4.792   9.085   7.430
50667SOL    HW153840   4.785   9.015   7.365
50667SOL    HW253841   4.768   9.043   7.513
50668SOL     OW53842  13.451   5.765  13.662
50668SOL    HW153843  13.441   5.700  13.731
50668SOL    HW253844  13.400   5.731  13.589
50669SOL     OW53845   2.693   6.065  11.547
50669SOL    HW153846   2.707   6.006  11.473
50669SOL    HW253847   2.679   6.006  11.621
50670SOL     OW53848   7.884   9.486   3.357
50670SOL    HW153849   7.934   9.406   3.372
50670SOL    HW253850   7.892   9.535   3.438
50671SOL     OW53851  10.886   1.949  10.051
50671SOL    HW153852  10.833   1.900   9.987
50671SOL    HW253853  10.907   1.884  10.119
50672SOL     OW53854  12.364   3.252  12.176
50672SOL    HW153855  12.409   3.204  12.106
50672SOL    HW253856  12.353   3.340  12.141
50673SOL     OW53857   1.934   5.301   1.512
50673SOL    HW153858   1.983   5.365   1.461
50673SOL    HW253859   1.976   5.218   1.493
50674SOL     OW53860  12.976   0.287  10.740
50674SOL    HW153861  13.024   0.210  10.771
50674SOL    HW253862  12.889   0.253  10.718
50675SOL     OW53863  10.310   2.477   2.972
50675SOL    HW153864  10.375   2.448   3.037
50675SOL    HW253865  10.299   2.401   2.914
50676SOL     OW53866  10.546  13.094  11.501
50676SOL    HW153867  10.466  13.131  11.463
50676SOL    HW253868  10.601  13.171  11.520
50677SOL     OW53869  10.421   7.841   9.364
50677SOL    HW153870  10.336   7.799   9.382
50677SOL    HW253871  10.461   7.784   9.298
50678SOL     OW53872   6.044   7.951   0.593
50678SOL    HW153873   6.131   7.940   0.554
50678SOL    HW253874   6.031   8.046   0.596
50679SOL     OW53875  13.186   5.664   6.242
50679SOL    HW153876  13.111   5.657   6.183
50679SOL    HW253877  13.193   5.578   6.282
50680SOL     OW53878   6.047   7.214  11.065
50680SOL    HW153879   6.113   7.273  11.028
50680SOL    HW253880   6.047   7.233  11.159
50681SOL     OW53881   8.358   0.697   4.947
50681SOL    HW153882   8.296   0.747   4.894
50681SOL    HW253883   8.360   0.742   5.031
50682SOL     OW53884   2.829  11.959   1.241
50682SOL    HW153885   2.735  11.944   1.251
50682SOL    HW253886   2.838  12.007   1.159
50683SOL     OW53887  12.514   6.337   4.709
50683SOL    HW153888  12.532   6.249   4.677
50683SOL    HW253889  12.464   6.379   4.639
50684SOL     OW53890   3.749  10.673   8.791
50684SOL    HW153891   3.805  10.650   8.865
50684SOL    HW253892   3.697  10.595   8.774
50685SOL     OW53893   1.696   7.341   0.081
50685SOL    HW153894   1.691   7.338  14.860
50685SOL    HW253895   1.788   7.323   0.101
50686SOL     OW53896   9.414   8.737   5.375
50686SOL    HW153897   9.408   8.752   5.280
50686SOL    HW253898   9.347   8.794   5.413
50687SOL     OW53899   0.044   1.755   6.827
50687SOL    HW153900   0.078   1.800   6.749
50687SOL    HW253901   0.059   1.817   6.898
50688SOL     OW53902  14.050   0.293   8.170
50688SOL    HW153903  14.127   0.262   8.123
50688SOL    HW253904  13.999   0.213   8.186
50689SOL     OW53905  14.176  10.715   8.381
50689SOL    HW153906  14.082  10.701   8.387
50689SOL    HW253907  14.200  10.751   8.466
50690SOL     OW53908   0.630   0.440   6.968
50690SOL    HW153909   0.598   0.368   7.021
50690SOL    HW253910   0.573   0.514   6.991
50691SOL     OW53911   9.890   7.563   6.685
50691SOL    HW153912   9.797   7.542   6.684
50691SOL    HW253913   9.934   7.481   6.665
50692SOL     OW53914   8.121   3.622   8.980
50692SOL    HW153915   8.192   3.656   8.925
50692SOL    HW253916   8.136   3.528   8.983
50693SOL     OW53917   6.218   7.486  10.186
50693SOL    HW153918   6.191   7.551  10.121
50693SOL    HW253919   6.198   7.526  10.271
50694SOL     OW53920   7.765   3.010  11.628
50694SOL    HW153921   7.678   3.025  11.589
50694SOL    HW253922   7.748   3.006  11.722
50695SOL     OW53923  10.778  13.921   5.797
50695SOL    HW153924  10.825  13.855   5.848
50695SOL    HW253925  10.703  13.944   5.850
50696SOL     OW53926   8.676   2.942  13.837
50696SOL    HW153927   8.673   3.005  13.909
50696SOL    HW253928   8.759   2.896  13.847
50697SOL     OW53929  12.181  14.176  10.306
50697SOL    HW153930  12.117  14.247  10.319
50697SOL    HW253931  12.163  14.114  10.377
50698SOL     OW53932   7.356   7.387   7.034
50698SOL    HW153933   7.368   7.481   7.047
50698SOL    HW253934   7.407   7.346   7.103
50699SOL     OW53935   8.912   9.852  10.785
50699SOL    HW153936   8.932   9.812  10.701
50699SOL    HW253937   8.817   9.858  10.788
50700SOL     OW53938  13.420   2.324   7.435
50700SOL    HW153939  13.488   2.342   7.499
50700SOL    HW253940  13.425   2.396   7.372
50701SOL     OW53941  13.173   8.224  10.675
50701SOL    HW153942  13.261   8.240  10.708
50701SOL    HW253943  13.116   8.237  10.751
50702SOL     OW53944   5.816  10.097  12.457
50702SOL    HW153945   5.775  10.068  12.375
50702SOL    HW253946   5.810  10.193  12.453
50703SOL     OW53947  14.649   1.912   5.249
50703SOL    HW153948  14.583   1.954   5.304
50703SOL    HW253949  14.651   1.964   5.170
50704SOL     OW53950   4.032   3.853   6.799
50704SOL    HW153951   4.098   3.905   6.844
50704SOL    HW253952   4.083   3.797   6.740
50705SOL     OW53953  13.872   8.871  13.152
50705SOL    HW153954  13.876   8.840  13.062
50705SOL    HW253955  13.799   8.934  13.152
50706SOL     OW53956  10.503  12.086   8.618
50706SOL    HW153957  10.545  12.000   8.610
50706SOL    HW253958  10.560  12.135   8.678
50707SOL     OW53959  12.261  13.590   6.091
50707SOL    HW153960  12.352  13.588   6.118
50707SOL    HW253961  12.245  13.505   6.050
50708SOL     OW53962  10.432   0.839  13.263
50708SOL    HW153963  10.507   0.838  13.203
50708SOL    HW253964  10.438   0.924  13.308
50709SOL     OW53965  11.441   4.240   5.288
50709SOL    HW153966  11.482   4.180   5.350
50709SOL    HW253967  11.510   4.304   5.269
50710SOL     OW53968  10.680   5.137   3.787
50710SOL    HW153969  10.678   5.106   3.877
50710SOL    HW253970  10.646   5.064   3.736
50711SOL     OW53971  10.569   1.642   9.808
50711SOL    HW153972  10.528   1.728   9.821
50711SOL    HW253973  10.642   1.641   9.870
50712SOL     OW53974   6.931  12.203   9.608
50712SOL    HW153975   6.913  12.195   9.515
50712SOL    HW253976   7.018  12.242   9.613
50713SOL     OW53977   2.161   1.112   3.829
50713SOL    HW153978   2.081   1.059   3.826
50713SOL    HW253979   2.162   1.148   3.918
50714SOL     OW53980   7.550  13.315  13.506
50714SOL    HW153981   7.460  13.299  13.534
50714SOL    HW253982   7.574  13.239  13.454
50715SOL     OW53983   8.198   6.278   9.094
50715SOL    HW153984   8.238   6.361   9.068
50715SOL    HW253985   8.240   6.256   9.177
50716SOL     OW53986   7.641   9.020   0.167
50716SOL    HW153987   7.562   8.990   0.213
50716SOL    HW253988   7.703   9.042   0.237
50717SOL     OW53989   1.342  13.072  13.611
50717SOL    HW153990   1.286  13.020  13.669
50717SOL    HW253991   1.318  13.163  13.631
50718SOL     OW53992   4.112  10.200   9.012
50718SOL    HW153993   4.051  10.228   8.944
50718SOL    HW253994   4.146  10.116   8.980
50719SOL     OW53995   0.380   9.879  10.794
50719SOL    HW153996   0.286   9.876  10.779
50719SOL    HW253997   0.405   9.970  10.774
50720SOL     OW53998  11.431   0.766   9.792
50720SOL    HW153999  11.452   0.850   9.750
50720SOL    HW254000  11.507   0.711   9.773
50721SOL     OW54001   2.874   5.991  14.565
50721SOL    HW154002   2.789   5.962  14.530
50721SOL    HW254003   2.853   6.060  14.627
50722SOL     OW54004  14.825   9.157   4.957
50722SOL    HW154005  14.750   9.115   4.999
50722SOL    HW254006  14.832   9.116   4.871
50723SOL     OW54007   0.777   5.695   1.922
50723SOL    HW154008   0.848   5.633   1.941
50723SOL    HW254009   0.811   5.750   1.852
50724SOL     OW54010   1.288   9.484   1.511
50724SOL    HW154011   1.300   9.493   1.416
50724SOL    HW254012   1.244   9.400   1.521
50725SOL     OW54013   6.689  10.880   7.782
50725SOL    HW154014   6.707  10.817   7.712
50725SOL    HW254015   6.742  10.956   7.759
50726SOL     OW54016   6.836   3.800   8.080
50726SOL    HW154017   6.741   3.811   8.086
50726SOL    HW254018   6.864   3.864   8.014
50727SOL     OW54019   6.109  12.768  10.472
50727SOL    HW154020   6.113  12.685  10.424
50727SOL    HW254021   6.106  12.741  10.564
50728SOL     OW54022   2.641   6.004  10.278
50728SOL    HW154023   2.717   5.956  10.245
50728SOL    HW254024   2.631   6.078  10.219
50729SOL     OW54025  14.794   7.790   0.926
50729SOL    HW154026  14.700   7.780   0.912
50729SOL    HW254027  14.802   7.844   1.005
50730SOL     OW54028   6.323  13.922  11.227
50730SOL    HW154029   6.360  13.889  11.146
50730SOL    HW254030   6.255  13.858  11.250
50731SOL     OW54031   4.232   6.458   7.192
50731SOL    HW154032   4.231   6.547   7.227
50731SOL    HW254033   4.324   6.439   7.176
50732SOL     OW54034   8.810  12.361   9.466
50732SOL    HW154035   8.787  12.338   9.556
50732SOL    HW254036   8.833  12.454   9.470
50733SOL     OW54037   5.166  14.252   8.156
50733SOL    HW154038   5.177  14.243   8.062
50733SOL    HW254039   5.221  14.183   8.194
50734SOL     OW54040   6.391   1.730   9.564
50734SOL    HW154041   6.321   1.675   9.530
50734SOL    HW254042   6.359   1.820   9.553
50735SOL     OW54043  14.668  14.416   9.554
50735SOL    HW154044  14.605  14.390   9.487
50735SOL    HW254045  14.664  14.346   9.619
50736SOL     OW54046   4.148   8.395   4.169
50736SOL    HW154047   4.113   8.483   4.154
50736SOL    HW254048   4.131   8.377   4.261
50737SOL     OW54049   5.724   1.272   6.783
50737SOL    HW154050   5.670   1.285   6.861
50737SOL    HW254051   5.749   1.361   6.756
50738SOL     OW54052   7.964  12.720   3.258
50738SOL    HW154053   8.040  12.666   3.237
50738SOL    HW254054   7.951  12.774   3.180
50739SOL     OW54055   5.836   1.229   1.958
50739SOL    HW154056   5.801   1.153   1.911
50739SOL    HW254057   5.776   1.241   2.032
50740SOL     OW54058   6.898  10.728  10.059
50740SOL    HW154059   6.944  10.776  10.127
50740SOL    HW254060   6.862  10.651  10.104
50741SOL     OW54061  12.537   2.858   2.033
50741SOL    HW154062  12.596   2.783   2.044
50741SOL    HW254063  12.594   2.929   2.004
50742SOL     OW54064  12.313   7.063   4.940
50742SOL    HW154065  12.350   7.085   4.855
50742SOL    HW254066  12.252   6.991   4.923
50743SOL     OW54067   8.063  13.291   9.625
50743SOL    HW154068   8.060  13.197   9.607
50743SOL    HW254069   8.152  13.306   9.655
50744SOL     OW54070   2.257   0.541   7.920
50744SOL    HW154071   2.262   0.446   7.907
50744SOL    HW254072   2.346   0.572   7.901
50745SOL     OW54073  14.076   2.246   0.894
50745SOL    HW154074  14.032   2.331   0.896
50745SOL    HW254075  14.163   2.264   0.859
50746SOL     OW54076   8.344   8.863   9.816
50746SOL    HW154077   8.283   8.791   9.824
50746SOL    HW254078   8.324   8.903   9.731
50747SOL     OW54079   2.398  14.020  12.615
50747SOL    HW154080   2.324  14.073  12.584
50747SOL    HW254081   2.394  13.941  12.560
50748SOL     OW54082  12.592   5.303   5.625
50748SOL    HW154083  12.601   5.291   5.719
50748SOL    HW254084  12.604   5.397   5.612
50749SOL     OW54085   1.633   0.199   6.311
50749SOL    HW154086   1.610   0.291   6.304
50749SOL    HW254087   1.604   0.174   6.399
50750SOL     OW54088   5.936   8.410  14.412
50750SOL    HW154089   5.966   8.327  14.449
50750SOL    HW254090   5.902   8.387  14.325
50751SOL     OW54091   0.330  11.902  11.609
50751SOL    HW154092   0.248  11.873  11.650
50751SOL    HW254093   0.374  11.952  11.678
50752SOL     OW54094   2.360  14.432   5.697
50752SOL    HW154095   2.294  14.499   5.683
50752SOL    HW254096   2.362  14.383   5.614
50753SOL     OW54097  11.567   0.054  12.770
50753SOL    HW154098  11.658   0.026  12.777
50753SOL    HW254099  11.532   0.002  12.697
50754SOL     OW54100  12.585  11.597   5.051
50754SOL    HW154101  12.526  11.661   5.091
50754SOL    HW254102  12.663  11.599   5.105
50755SOL     OW54103   0.245   8.355   3.561
50755SOL    HW154104   0.329   8.384   3.525
50755SOL    HW254105   0.218   8.427   3.618
50756SOL     OW54106   8.554   1.696   2.042
50756SOL    HW154107   8.479   1.650   2.079
50756SOL    HW254108   8.623   1.630   2.038
50757SOL     OW54109   9.091   3.837  11.118
50757SOL    HW154110   9.066   3.927  11.136
50757SOL    HW254111   9.028   3.806  11.053
50758SOL     OW54112  10.651  14.054  10.685
50758SOL    HW154113  10.700  14.035  10.765
50758SOL    HW254114  10.707  14.020  10.615
50759SOL     OW54115  10.816  14.341   9.458
50759SOL    HW154116  10.887  14.404   9.444
50759SOL    HW254117  10.789  14.355   9.549
50760SOL     OW54118   0.520   3.324   1.986
50760SOL    HW154119   0.469   3.243   1.992
50760SOL    HW254120   0.544   3.330   1.893
50761SOL     OW54121   1.075   0.046  14.027
50761SOL    HW154122   1.089   0.038  14.121
50761SOL    HW254123   1.162   0.035  13.989
50762SOL     OW54124   1.305   6.436   2.092
50762SOL    HW154125   1.332   6.453   2.182
50762SOL    HW254126   1.218   6.475   2.085
50763SOL     OW54127  14.717   7.398   5.666
50763SOL    HW154128  14.653   7.465   5.641
50763SOL    HW254129  14.698   7.324   5.609
50764SOL     OW54130   7.509  13.982  11.469
50764SOL    HW154131   7.481  13.946  11.385
50764SOL    HW254132   7.486  13.915  11.533
50765SOL     OW54133  14.168   1.611   3.536
50765SOL    HW154134  14.171   1.621   3.441
50765SOL    HW254135  14.082   1.572   3.553
50766SOL     OW54136   6.965   9.319  14.234
50766SOL    HW154137   6.939   9.289  14.148
50766SOL    HW254138   6.983   9.239  14.284
50767SOL     OW54139   2.706  13.099   7.178
50767SOL    HW154140   2.657  13.175   7.148
50767SOL    HW254141   2.733  13.121   7.268
50768SOL     OW54142   1.679   4.449  14.042
50768SOL    HW154143   1.737   4.472  13.969
50768SOL    HW254144   1.599   4.419  14.000
50769SOL     OW54145   9.847   2.717  12.565
50769SOL    HW154146   9.930   2.762  12.584
50769SOL    HW254147   9.793   2.733  12.641
50770SOL     OW54148  14.364   0.035   9.507
50770SOL    HW154149  14.272   0.016   9.490
50770SOL    HW254150  14.409  14.825   9.496
50771SOL     OW54151   7.237   9.440   3.370
50771SOL    HW154152   7.234   9.521   3.421
50771SOL    HW254153   7.307   9.389   3.411
50772SOL     OW54154  11.048   9.832   3.697
50772SOL    HW154155  10.966   9.788   3.717
50772SOL    HW254156  11.026   9.925   3.694
50773SOL     OW54157   9.920   2.398  12.916
50773SOL    HW154158   9.968   2.481  12.906
50773SOL    HW254159   9.917   2.362  12.827
50774SOL     OW54160   9.932   7.391   1.320
50774SOL    HW154161   9.928   7.484   1.302
50774SOL    HW254162   9.903   7.383   1.411
50775SOL     OW54163   2.767   8.638   7.199
50775SOL    HW154164   2.793   8.730   7.203
50775SOL    HW254165   2.847   8.589   7.217
50776SOL     OW54166   4.361  12.860   2.235
50776SOL    HW154167   4.329  12.851   2.325
50776SOL    HW254168   4.286  12.894   2.186
50777SOL     OW54169   9.426   5.980  12.241
50777SOL    HW154170   9.420   6.025  12.156
50777SOL    HW254171   9.517   5.992  12.268
50778SOL     OW54172   6.928   8.670   2.141
50778SOL    HW154173   6.965   8.755   2.117
50778SOL    HW254174   6.839   8.672   2.107
50779SOL     OW54175  13.339   6.262   7.919
50779SOL    HW154176  13.248   6.271   7.891
50779SOL    HW254177  13.343   6.308   8.003
50780SOL     OW54178   6.437  14.687   9.412
50780SOL    HW154179   6.348  14.653   9.427
50780SOL    HW254180   6.480  14.679   9.497
50781SOL     OW54181  12.628   9.018   7.722
50781SOL    HW154182  12.686   9.065   7.663
50781SOL    HW254183  12.686   8.964   7.775
50782SOL     OW54184   4.881   2.246   5.783
50782SOL    HW154185   4.933   2.188   5.838
50782SOL    HW254186   4.834   2.188   5.724
50783SOL     OW54187   1.281   8.521  13.116
50783SOL    HW154188   1.303   8.488  13.204
50783SOL    HW254189   1.363   8.560  13.085
50784SOL     OW54190   9.962   9.116   2.809
50784SOL    HW154191   9.940   9.055   2.879
50784SOL    HW254192   9.878   9.138   2.769
50785SOL     OW54193  13.993  10.409   7.535
50785SOL    HW154194  13.899  10.395   7.535
50785SOL    HW254195  14.031  10.321   7.537
50786SOL     OW54196   6.434  11.787   7.758
50786SOL    HW154197   6.486  11.709   7.736
50786SOL    HW254198   6.349  11.771   7.718
50787SOL     OW54199  11.501  13.724   7.589
50787SOL    HW154200  11.426  13.684   7.634
50787SOL    HW254201  11.565  13.654   7.581
50788SOL     OW54202   9.368   5.573   7.755
50788SOL    HW154203   9.339   5.535   7.672
50788SOL    HW254204   9.460   5.596   7.740
50789SOL     OW54205   2.670   1.591   9.288
50789SOL    HW154206   2.688   1.593   9.194
50789SOL    HW254207   2.689   1.680   9.318
50790SOL     OW54208  10.910   0.396   0.898
50790SOL    HW154209  10.999   0.394   0.932
50790SOL    HW254210  10.916   0.452   0.820
50791SOL     OW54211   6.041  10.054  11.458
50791SOL    HW154212   6.037   9.961  11.481
50791SOL    HW254213   5.967  10.067  11.399
50792SOL     OW54214   6.853  13.443   8.283
50792SOL    HW154215   6.922  13.490   8.329
50792SOL    HW254216   6.779  13.444   8.344
50793SOL     OW54217   8.149   8.211   3.662
50793SOL    HW154218   8.156   8.178   3.573
50793SOL    HW254219   8.100   8.144   3.709
50794SOL     OW54220  11.938   2.231   4.190
50794SOL    HW154221  11.913   2.140   4.170
50794SOL    HW254222  11.858   2.271   4.222
50795SOL     OW54223   9.945   2.039   9.635
50795SOL    HW154224   9.984   2.126   9.649
50795SOL    HW254225   9.919   2.010   9.722
50796SOL     OW54226   7.955   7.042  14.577
50796SOL    HW154227   8.022   6.976  14.595
50796SOL    HW254228   8.001   7.111  14.530
50797SOL     OW54229   9.860   5.526  11.763
50797SOL    HW154230   9.787   5.508  11.704
50797SOL    HW254231   9.883   5.441  11.800
50798SOL     OW54232   8.919   2.565   9.013
50798SOL    HW154233   8.851   2.568   9.080
50798SOL    HW254234   8.977   2.639   9.035
50799SOL     OW54235   1.141   3.098   5.451
50799SOL    HW154236   1.225   3.142   5.435
50799SOL    HW254237   1.119   3.118   5.541
50800SOL     OW54238  12.029   4.808   0.022
50800SOL    HW154239  11.948   4.858   0.034
50800SOL    HW254240  12.089   4.844   0.087
50801SOL     OW54241   2.873   9.332  14.203
50801SOL    HW154242   2.788   9.290  14.216
50801SOL    HW254243   2.912   9.337  14.291
50802SOL     OW54244  14.768   8.864   8.827
50802SOL    HW154245  14.741   8.830   8.741
50802SOL    HW254246  14.756   8.790   8.886
50803SOL     OW54247   1.736   1.791  10.822
50803SOL    HW154248   1.717   1.825  10.735
50803SOL    HW254249   1.701   1.858  10.881
50804SOL     OW54250   2.551   0.575  12.263
50804SOL    HW154251   2.606   0.535  12.330
50804SOL    HW254252   2.612   0.592  12.190
50805SOL     OW54253   0.468   5.496   7.959
50805SOL    HW154254   0.473   5.509   8.054
50805SOL    HW254255   0.555   5.465   7.934
50806SOL     OW54256   8.905   6.869   5.396
50806SOL    HW154257   8.847   6.921   5.341
50806SOL    HW254258   8.858   6.859   5.479
50807SOL     OW54259  14.680   1.775   6.076
50807SOL    HW154260  14.672   1.713   6.003
50807SOL    HW254261  14.619   1.743   6.142
50808SOL     OW54262   9.265   3.978   1.075
50808SOL    HW154263   9.238   3.891   1.106
50808SOL    HW254264   9.358   3.969   1.055
50809SOL     OW54265   9.928   9.266  12.902
50809SOL    HW154266   9.875   9.346  12.895
50809SOL    HW254267   9.877   9.210  12.961
50810SOL     OW54268  12.346   8.541   7.219
50810SOL    HW154269  12.307   8.535   7.306
50810SOL    HW254270  12.281   8.498   7.162
50811SOL     OW54271   2.011   0.091   9.683
50811SOL    HW154272   2.043   0.173   9.645
50811SOL    HW254273   1.980   0.041   9.607
50812SOL     OW54274   0.464   1.694   2.682
50812SOL    HW154275   0.409   1.717   2.606
50812SOL    HW254276   0.411   1.717   2.758
50813SOL     OW54277  11.641  13.019  10.981
50813SOL    HW154278  11.595  12.954  10.928
50813SOL    HW254279  11.581  13.037  11.053
50814SOL     OW54280  13.635   9.707   3.259
50814SOL    HW154281  13.639   9.722   3.165
50814SOL    HW254282  13.725   9.723   3.289
50815SOL     OW54283  10.138   6.417   2.572
50815SOL    HW154284  10.058   6.410   2.623
50815SOL    HW254285  10.108   6.445   2.485
50816SOL     OW54286   8.699   3.141   8.849
50816SOL    HW154287   8.620   3.138   8.903
50816SOL    HW254288   8.707   3.232   8.823
50817SOL     OW54289  14.592   2.428   7.015
50817SOL    HW154290  14.640   2.346   7.019
50817SOL    HW254291  14.544   2.432   7.097
50818SOL     OW54292  11.848   0.002  10.158
50818SOL    HW154293  11.904   0.046  10.223
50818SOL    HW254294  11.759   0.014  10.191
50819SOL     OW54295  10.851  11.613   9.990
50819SOL    HW154296  10.935  11.650   9.963
50819SOL    HW254297  10.867  11.581  10.079
50820SOL     OW54298   5.759   9.407   1.374
50820SOL    HW154299   5.789   9.440   1.289
50820SOL    HW254300   5.681   9.356   1.354
50821SOL     OW54301   6.381   3.132   1.947
50821SOL    HW154302   6.453   3.166   2.000
50821SOL    HW254303   6.302   3.159   1.995
50822SOL     OW54304   2.221  13.867   5.843
50822SOL    HW154305   2.179  13.894   5.761
50822SOL    HW254306   2.149  13.828   5.893
50823SOL     OW54307   9.937  12.089  14.216
50823SOL    HW154308  10.031  12.108  14.223
50823SOL    HW254309   9.919  12.093  14.122
50824SOL     OW54310   0.882   7.532   6.543
50824SOL    HW154311   0.842   7.505   6.625
50824SOL    HW254312   0.961   7.580   6.568
50825SOL     OW54313  11.227   8.043   0.531
50825SOL    HW154314  11.188   7.968   0.575
50825SOL    HW254315  11.235   8.109   0.600
50826SOL     OW54316   9.760   0.414   8.620
50826SOL    HW154317   9.679   0.371   8.650
50826SOL    HW254318   9.828   0.349   8.638
50827SOL     OW54319   4.665   2.264   6.225
50827SOL    HW154320   4.754   2.285   6.197
50827SOL    HW254321   4.632   2.204   6.159
50828SOL     OW54322   1.371   3.331  10.832
50828SOL    HW154323   1.377   3.255  10.890
50828SOL    HW254324   1.421   3.305  10.754
50829SOL     OW54325   8.170   6.394   8.403
50829SOL    HW154326   8.147   6.427   8.316
50829SOL    HW254327   8.204   6.306   8.388
50830SOL     OW54328   9.154   7.115   3.717
50830SOL    HW154329   9.171   7.064   3.638
50830SOL    HW254330   9.064   7.093   3.741
50831SOL     OW54331  12.274   3.321   9.178
50831SOL    HW154332  12.213   3.356   9.113
50831SOL    HW254333  12.340   3.274   9.127
50832SOL     OW54334   6.994   9.753  13.468
50832SOL    HW154335   7.020   9.738  13.559
50832SOL    HW254336   7.065   9.716  13.416
50833SOL     OW54337   1.873   6.949  11.569
50833SOL    HW154338   1.869   7.022  11.507
50833SOL    HW254339   1.886   6.871  11.515
50834SOL     OW54340   3.676   5.366  13.520
50834SOL    HW154341   3.662   5.347  13.613
50834SOL    HW254342   3.625   5.446  13.505
50835SOL     OW54343   4.837  10.923  12.954
50835SOL    HW154344   4.747  10.948  12.978
50835SOL    HW254345   4.835  10.918  12.858
50836SOL     OW54346  13.933   6.649  12.140
50836SOL    HW154347  14.028   6.643  12.136
50836SOL    HW254348  13.911   6.637  12.232
50837SOL     OW54349   3.461  10.448   9.005
50837SOL    HW154350   3.552  10.476   9.009
50837SOL    HW254351   3.424  10.494   8.930
50838SOL     OW54352   1.423   0.609  11.019
50838SOL    HW154353   1.475   0.596  10.940
50838SOL    HW254354   1.332   0.603  10.989
50839SOL     OW54355   5.658   6.735   6.960
50839SOL    HW154356   5.608   6.812   6.986
50839SOL    HW254357   5.680   6.692   7.042
50840SOL     OW54358   0.212   7.037   1.144
50840SOL    HW154359   0.208   7.132   1.139
50840SOL    HW254360   0.304   7.016   1.130
50841SOL     OW54361   8.016   6.394   5.311
50841SOL    HW154362   8.041   6.469   5.258
50841SOL    HW254363   8.025   6.319   5.252
50842SOL     OW54364  13.016  10.841  12.643
50842SOL    HW154365  13.013  10.824  12.549
50842SOL    HW254366  13.023  10.936  12.650
50843SOL     OW54367  14.423  11.038  11.354
50843SOL    HW154368  14.460  10.957  11.319
50843SOL    HW254369  14.444  11.105  11.289
50844SOL     OW54370  11.227   8.102   6.798
50844SOL    HW154371  11.305   8.135   6.753
50844SOL    HW254372  11.252   8.098   6.890
50845SOL     OW54373   7.292   4.549   7.665
50845SOL    HW154374   7.241   4.605   7.724
50845SOL    HW254375   7.352   4.501   7.723
50846SOL     OW54376   9.504   3.943   5.954
50846SOL    HW154377   9.570   3.943   6.024
50846SOL    HW254378   9.429   3.896   5.991
50847SOL     OW54379   2.800   6.540   9.466
50847SOL    HW154380   2.823   6.630   9.443
50847SOL    HW254381   2.879   6.507   9.509
50848SOL     OW54382   5.730   6.280   9.534
50848SOL    HW154383   5.713   6.225   9.610
50848SOL    HW254384   5.756   6.365   9.570
50849SOL     OW54385  14.769   1.966   2.845
50849SOL    HW154386  14.781   1.872   2.837
50849SOL    HW254387  14.762   1.981   2.940
50850SOL     OW54388   8.771   8.508   4.571
50850SOL    HW154389   8.701   8.557   4.529
50850SOL    HW254390   8.741   8.495   4.661
50851SOL     OW54391  13.743  10.427  13.523
50851SOL    HW154392  13.817  10.468  13.567
50851SOL    HW254393  13.758  10.333  13.530
50852SOL     OW54394   0.425  10.418  11.699
50852SOL    HW154395   0.404  10.346  11.758
50852SOL    HW254396   0.483  10.380  11.634
50853SOL     OW54397   9.140   3.269   7.535
50853SOL    HW154398   9.143   3.323   7.456
50853SOL    HW254399   9.141   3.179   7.502
50854SOL     OW54400   2.391  12.101  14.336
50854SOL    HW154401   2.425  12.159  14.405
50854SOL    HW254402   2.455  12.108  14.265
50855SOL     OW54403   8.268  10.497  14.214
50855SOL    HW154404   8.279  10.546  14.133
50855SOL    HW254405   8.240  10.410  14.186
50856SOL     OW54406   3.874   4.105   1.641
50856SOL    HW154407   3.818   4.039   1.680
50856SOL    HW254408   3.861   4.095   1.546
50857SOL     OW54409   4.079   0.504  14.826
50857SOL    HW154410   4.129   0.450  14.765
50857SOL    HW254411   4.003   0.449  14.850
50858SOL     OW54412  11.093  11.958   3.018
50858SOL    HW154413  11.142  11.995   2.945
50858SOL    HW254414  11.160  11.940   3.085
50859SOL     OW54415   6.063   8.469   6.077
50859SOL    HW154416   5.997   8.509   6.020
50859SOL    HW254417   6.027   8.383   6.099
50860SOL     OW54418   3.283  14.858   5.968
50860SOL    HW154419   3.334  14.787   5.930
50860SOL    HW254420   3.324   0.001   6.053
50861SOL     OW54421   2.469  10.901   2.979
50861SOL    HW154422   2.555  10.860   2.987
50861SOL    HW254423   2.462  10.957   3.056
50862SOL     OW54424  13.145  13.482   6.628
50862SOL    HW154425  13.059  13.457   6.663
50862SOL    HW254426  13.207  13.458   6.697
50863SOL     OW54427   3.146   2.732   6.557
50863SOL    HW154428   3.214   2.667   6.575
50863SOL    HW254429   3.179   2.813   6.593
50864SOL     OW54430   5.581  11.475  12.938
50864SOL    HW154431   5.676  11.470  12.932
50864SOL    HW254432   5.550  11.395  12.896
50865SOL     OW54433  14.795   2.900   7.315
50865SOL    HW154434  14.701   2.889   7.322
50865SOL    HW254435  14.823   2.931   7.401
50866SOL     OW54436   2.965   4.037   4.084
50866SOL    HW154437   2.882   4.080   4.061
50866SOL    HW254438   2.996   4.083   4.162
50867SOL     OW54439  13.763   4.168  10.325
50867SOL    HW154440  13.738   4.197  10.413
50867SOL    HW254441  13.796   4.079  10.338
50868SOL     OW54442   9.256   1.445   3.014
50868SOL    HW154443   9.259   1.540   3.006
50868SOL    HW254444   9.309   1.412   2.942
50869SOL     OW54445  14.720   1.900  12.826
50869SOL    HW154446  14.660   1.832  12.856
50869SOL    HW254447  14.680   1.935  12.746
50870SOL     OW54448   9.410   7.343   7.647
50870SOL    HW154449   9.348   7.416   7.649
50870SOL    HW254450   9.358   7.268   7.617
50871SOL     OW54451   0.287   7.425   8.152
50871SOL    HW154452   0.368   7.412   8.201
50871SOL    HW254453   0.230   7.475   8.212
50872SOL     OW54454  11.282   7.035   2.882
50872SOL    HW154455  11.246   7.121   2.900
50872SOL    HW254456  11.210   6.987   2.839
50873SOL     OW54457   1.749   7.868   7.326
50873SOL    HW154458   1.835   7.832   7.306
50873SOL    HW254459   1.764   7.925   7.402
50874SOL     OW54460   7.669   1.183  13.657
50874SOL    HW154461   7.580   1.159  13.685
50874SOL    HW254462   7.659   1.205  13.564
50875SOL     OW54463   6.990  10.149   0.784
50875SOL    HW154464   7.084  10.146   0.802
50875SOL    HW254465   6.979  10.226   0.727
50876SOL     OW54466   9.101   0.507   3.203
50876SOL    HW154467   9.047   0.449   3.256
50876SOL    HW254468   9.191   0.475   3.217
50877SOL     OW54469   7.301   4.497   2.636
50877SOL    HW154470   7.360   4.544   2.577
50877SOL    HW254471   7.328   4.405   2.628
50878SOL     OW54472   7.998  13.792  13.224
50878SOL    HW154473   8.002  13.763  13.315
50878SOL    HW254474   7.910  13.830  13.215
50879SOL     OW54475  10.415   1.706  10.617
50879SOL    HW154476  10.441   1.625  10.572
50879SOL    HW254477  10.356   1.750  10.555
50880SOL     OW54478  13.683  14.508   1.020
50880SOL    HW154479  13.636  14.476   1.097
50880SOL    HW254480  13.775  14.496   1.042
50881SOL     OW54481   5.983   0.233   3.888
50881SOL    HW154482   5.890   0.212   3.882
50881SOL    HW254483   5.991   0.282   3.970
50882SOL     OW54484   4.637  12.904   9.798
50882SOL    HW154485   4.541  12.898   9.802
50882SOL    HW254486   4.658  12.983   9.849
50883SOL     OW54487   6.830   4.335  10.911
50883SOL    HW154488   6.785   4.354  10.829
50883SOL    HW254489   6.823   4.416  10.961
50884SOL     OW54490   5.545   5.862  14.218
50884SOL    HW154491   5.604   5.937  14.212
50884SOL    HW254492   5.503   5.872  14.304
50885SOL     OW54493  10.318   8.750   7.677
50885SOL    HW154494  10.329   8.844   7.694
50885SOL    HW254495  10.398   8.725   7.631
50886SOL     OW54496   3.687  10.220  11.785
50886SOL    HW154497   3.756  10.269  11.829
50886SOL    HW254498   3.724  10.133  11.771
50887SOL     OW54499  12.513   7.753  13.091
50887SOL    HW154500  12.519   7.844  13.064
50887SOL    HW254501  12.497   7.705  13.009
50888SOL     OW54502   2.585   8.664   5.953
50888SOL    HW154503   2.500   8.667   5.911
50888SOL    HW254504   2.626   8.748   5.930
50889SOL     OW54505   3.611   4.936  10.902
50889SOL    HW154506   3.586   4.867  10.964
50889SOL    HW254507   3.659   5.000  10.955
50890SOL     OW54508   4.956  13.124   8.127
50890SOL    HW154509   4.968  13.173   8.046
50890SOL    HW254510   4.866  13.145   8.154
50891SOL     OW54511   2.263  12.993  11.185
50891SOL    HW154512   2.308  12.915  11.152
50891SOL    HW254513   2.170  12.974  11.173
50892SOL     OW54514   1.184   8.519   2.521
50892SOL    HW154515   1.255   8.482   2.574
50892SOL    HW254516   1.182   8.463   2.443
50893SOL     OW54517  11.397   3.073   4.754
50893SOL    HW154518  11.413   3.165   4.773
50893SOL    HW254519  11.364   3.037   4.836
50894SOL     OW54520   0.024  13.180  10.219
50894SOL    HW154521   0.001  13.145  10.132
50894SOL    HW254522  14.856  13.121  10.281
50895SOL     OW54523   2.476  14.457   3.271
50895SOL    HW154524   2.389  14.429   3.243
50895SOL    HW254525   2.493  14.536   3.220
50896SOL     OW54526   0.647   8.061   6.587
50896SOL    HW154527   0.588   8.136   6.587
50896SOL    HW254528   0.725   8.091   6.635
50897SOL     OW54529   6.503   4.187  10.340
50897SOL    HW154530   6.444   4.262  10.333
50897SOL    HW254531   6.510   4.171  10.434
50898SOL     OW54532   3.435  14.758   1.053
50898SOL    HW154533   3.467  14.847   1.062
50898SOL    HW254534   3.466  14.713   1.132
50899SOL     OW54535   9.624   6.302  11.166
50899SOL    HW154536   9.553   6.244  11.195
50899SOL    HW254537   9.581   6.383  11.140
50900SOL     OW54538   5.505   5.013  12.615
50900SOL    HW154539   5.410   5.019  12.601
50900SOL    HW254540   5.524   4.920  12.614
50901SOL     OW54541   1.935   4.093   2.739
50901SOL    HW154542   1.981   4.050   2.667
50901SOL    HW254543   1.956   4.042   2.817
50902SOL     OW54544   2.904   2.136  12.044
50902SOL    HW154545   2.959   2.212  12.065
50902SOL    HW254546   2.914   2.078  12.120
50903SOL     OW54547   9.125   8.016   7.827
50903SOL    HW154548   9.204   8.070   7.820
50903SOL    HW254549   9.114   8.003   7.922
50904SOL     OW54550   7.182   9.565   5.532
50904SOL    HW154551   7.230   9.579   5.614
50904SOL    HW254552   7.208   9.477   5.504
50905SOL     OW54553   5.432  14.438   4.734
50905SOL    HW154554   5.466  14.448   4.823
50905SOL    HW254555   5.492  14.489   4.679
50906SOL     OW54556  14.217   1.463  12.737
50906SOL    HW154557  14.141   1.407  12.752
50906SOL    HW254558  14.192   1.520  12.664
50907SOL     OW54559  11.453   3.656  14.103
50907SOL    HW154560  11.376   3.618  14.144
50907SOL    HW254561  11.524   3.638  14.164
50908SOL     OW54562   8.850   6.106   2.024
50908SOL    HW154563   8.806   6.143   2.101
50908SOL    HW254564   8.930   6.067   2.058
50909SOL     OW54565  10.078  13.689  11.962
50909SOL    HW154566  10.155  13.644  11.926
50909SOL    HW254567  10.083  13.777  11.926
50910SOL     OW54568   7.145   5.400   3.286
50910SOL    HW154569   7.195   5.356   3.354
50910SOL    HW254570   7.202   5.402   3.210
50911SOL     OW54571   4.287  13.616  11.951
50911SOL    HW154572   4.218  13.674  11.917
50911SOL    HW254573   4.241  13.535  11.972
50912SOL     OW54574   6.299   6.387  12.818
50912SOL    HW154575   6.218   6.439  12.823
50912SOL    HW254576   6.347   6.425  12.744
50913SOL     OW54577   5.273   3.195  10.525
50913SOL    HW154578   5.193   3.198  10.577
50913SOL    HW254579   5.247   3.157  10.441
50914SOL     OW54580   7.557   0.244   6.912
50914SOL    HW154581   7.543   0.151   6.898
50914SOL    HW254582   7.599   0.250   6.998
50915SOL     OW54583   4.368   9.787  10.367
50915SOL    HW154584   4.455   9.760  10.337
50915SOL    HW254585   4.380   9.877  10.398
50916SOL     OW54586   1.589   7.473   5.225
50916SOL    HW154587   1.565   7.558   5.263
50916SOL    HW254588   1.579   7.411   5.297
50917SOL     OW54589   4.408   3.987   4.244
50917SOL    HW154590   4.475   4.009   4.179
50917SOL    HW254591   4.368   4.071   4.267
50918SOL     OW54592  11.799  10.273   0.123
50918SOL    HW154593  11.841  10.189   0.104
50918SOL    HW254594  11.753  10.295   0.043
50919SOL     OW54595   5.164   5.634  10.575
50919SOL    HW154596   5.131   5.723  10.587
50919SOL    HW254597   5.129   5.586  10.650
50920SOL     OW54598   3.363  13.116  13.777
50920SOL    HW154599   3.316  13.075  13.704
50920SOL    HW254600   3.294  13.162  13.826
50921SOL     OW54601  13.524   5.630  12.535
50921SOL    HW154602  13.485   5.544  12.554
50921SOL    HW254603  13.526   5.634  12.439
50922SOL     OW54604   7.646  13.535  11.150
50922SOL    HW154605   7.664  13.472  11.079
50922SOL    HW254606   7.553  13.525  11.168
50923SOL     OW54607   0.261   9.997   3.180
50923SOL    HW154608   0.169   9.974   3.199
50923SOL    HW254609   0.310   9.918   3.202
50924SOL     OW54610  10.555   6.056   1.513
50924SOL    HW154611  10.635   6.009   1.538
50924SOL    HW254612  10.560   6.062   1.417
50925SOL     OW54613   6.526   4.064   4.179
50925SOL    HW154614   6.444   4.093   4.141
50925SOL    HW254615   6.568   4.014   4.109
50926SOL     OW54616  11.240   7.044  10.977
50926SOL    HW154617  11.259   7.127  10.933
50926SOL    HW254618  11.313   6.987  10.955
50927SOL     OW54619   6.427  12.853   3.249
50927SOL    HW154620   6.521  12.862   3.232
50927SOL    HW254621   6.394  12.943   3.245
50928SOL     OW54622  11.116   1.499   8.109
50928SOL    HW154623  11.190   1.451   8.072
50928SOL    HW254624  11.149   1.588   8.123
50929SOL     OW54625  13.787   3.739   3.119
50929SOL    HW154626  13.788   3.652   3.079
50929SOL    HW254627  13.707   3.779   3.086
50930SOL     OW54628   9.878  11.350   0.018
50930SOL    HW154629   9.895  11.396  14.810
50930SOL    HW254630   9.879  11.419   0.085
50931SOL     OW54631   6.515  11.223   8.729
50931SOL    HW154632   6.566  11.159   8.779
50931SOL    HW254633   6.430  11.182   8.718
50932SOL     OW54634   8.039  13.033   2.241
50932SOL    HW154635   7.951  13.001   2.261
50932SOL    HW254636   8.097  12.982   2.298
50933SOL     OW54637  12.351   6.347   3.332
50933SOL    HW154638  12.378   6.439   3.330
50933SOL    HW254639  12.298   6.336   3.253
50934SOL     OW54640   0.562   0.142   4.749
50934SOL    HW154641   0.621   0.198   4.699
50934SOL    HW254642   0.573   0.055   4.711
50935SOL     OW54643   6.735   6.754   0.630
50935SOL    HW154644   6.649   6.737   0.668
50935SOL    HW254645   6.739   6.698   0.553
50936SOL     OW54646   4.281   4.308   4.844
50936SOL    HW154647   4.211   4.304   4.909
50936SOL    HW254648   4.349   4.361   4.886
50937SOL     OW54649  12.142  13.806   3.764
50937SOL    HW154650  12.047  13.800   3.772
50937SOL    HW254651  12.175  13.757   3.840
50938SOL     OW54652   3.021   4.662  13.944
50938SOL    HW154653   2.927   4.664  13.927
50938SOL    HW254654   3.047   4.572  13.924
50939SOL     OW54655  12.474   6.269  13.273
50939SOL    HW154656  12.392   6.278  13.322
50939SOL    HW254657  12.458   6.318  13.192
50940SOL     OW54658  11.489  10.480   5.475
50940SOL    HW154659  11.515  10.410   5.535
50940SOL    HW254660  11.472  10.435   5.392
50941SOL     OW54661   8.270   4.548   6.559
50941SOL    HW154662   8.242   4.626   6.607
50941SOL    HW254663   8.197   4.529   6.500
50942SOL     OW54664   6.587   3.450   8.559
50942SOL    HW154665   6.555   3.491   8.639
50942SOL    HW254666   6.512   3.452   8.500
50943SOL     OW54667  12.612   5.898  10.586
50943SOL    HW154668  12.591   5.983  10.549
50943SOL    HW254669  12.705   5.903  10.606
50944SOL     OW54670   7.257   9.671  13.384
50944SOL    HW154671   7.302   9.745  13.344
50944SOL    HW254672   7.265   9.600  13.321
50945SOL     OW54673   4.272   7.248   8.644
50945SOL    HW154674   4.235   7.306   8.710
50945SOL    HW254675   4.201   7.234   8.582
50946SOL     OW54676   7.730   6.969  14.702
50946SOL    HW154677   7.738   7.008  14.789
50946SOL    HW254678   7.791   7.019  14.648
50947SOL     OW54679  10.932   9.693   1.583
50947SOL    HW154680  10.916   9.677   1.490
50947SOL    HW254681  11.010   9.640   1.603
50948SOL     OW54682   9.247   6.882   0.516
50948SOL    HW154683   9.273   6.839   0.434
50948SOL    HW254684   9.178   6.826   0.551
50949SOL     OW54685   6.867   1.032   1.583
50949SOL    HW154686   6.944   1.019   1.526
50949SOL    HW254687   6.826   1.111   1.549
50950SOL     OW54688  10.939   0.391  14.556
50950SOL    HW154689  10.967   0.385  14.465
50950SOL    HW254690  10.924   0.484  14.571
50951SOL     OW54691  14.057  10.713   6.475
50951SOL    HW154692  14.088  10.637   6.427
50951SOL    HW254693  13.970  10.731   6.439
50952SOL     OW54694   4.621  13.882   3.580
50952SOL    HW154695   4.697  13.939   3.570
50952SOL    HW254696   4.647  13.799   3.539
50953SOL     OW54697  13.589  14.727   4.303
50953SOL    HW154698  13.663  14.782   4.327
50953SOL    HW254699  13.622  14.671   4.233
50954SOL     OW54700  10.598   2.469   0.277
50954SOL    HW154701  10.592   2.404   0.207
50954SOL    HW254702  10.648   2.541   0.239
50955SOL     OW54703   4.954   2.354   6.419
50955SOL    HW154704   4.979   2.430   6.365
50955SOL    HW254705   5.004   2.281   6.382
50956SOL     OW54706  13.102   0.415   6.814
50956SOL    HW154707  13.042   0.456   6.752
50956SOL    HW254708  13.059   0.427   6.899
50957SOL     OW54709  11.545  13.420   3.667
50957SOL    HW154710  11.626  13.370   3.670
50957SOL    HW254711  11.476  13.354   3.658
50958SOL     OW54712   4.948   8.233   3.731
50958SOL    HW154713   4.878   8.215   3.793
50958SOL    HW254714   4.917   8.310   3.682
50959SOL     OW54715   1.151  14.703   8.345
50959SOL    HW154716   1.177  14.790   8.374
50959SOL    HW254717   1.159  14.648   8.423
50960SOL     OW54718   4.079  12.915   1.080
50960SOL    HW154719   4.084  12.852   1.153
50960SOL    HW254720   4.050  12.996   1.121
50961SOL     OW54721   9.816  11.396   2.698
50961SOL    HW154722   9.804  11.489   2.717
50961SOL    HW254723   9.911  11.387   2.684
50962SOL     OW54724   8.593   7.443  10.760
50962SOL    HW154725   8.570   7.478  10.846
50962SOL    HW254726   8.567   7.351  10.763
50963SOL     OW54727  11.548   9.255  14.590
50963SOL    HW154728  11.522   9.220  14.504
50963SOL    HW254729  11.490   9.329  14.604
50964SOL     OW54730   8.497  10.712   8.651
50964SOL    HW154731   8.532  10.702   8.739
50964SOL    HW254732   8.573  10.698   8.594
50965SOL     OW54733  14.555  11.334   4.677
50965SOL    HW154734  14.558  11.272   4.604
50965SOL    HW254735  14.549  11.420   4.635
50966SOL     OW54736  13.564   8.916   8.312
50966SOL    HW154737  13.606   8.832   8.327
50966SOL    HW254738  13.513   8.933   8.391
50967SOL     OW54739   2.312  11.959   7.601
50967SOL    HW154740   2.267  11.884   7.641
50967SOL    HW254741   2.247  11.996   7.541
50968SOL     OW54742   9.439   3.409  13.080
50968SOL    HW154743   9.432   3.319  13.049
50968SOL    HW254744   9.435   3.463  13.001
50969SOL     OW54745  11.174   1.870   1.761
50969SOL    HW154746  11.180   1.954   1.715
50969SOL    HW254747  11.183   1.892   1.853
50970SOL     OW54748   9.873   1.600   4.008
50970SOL    HW154749   9.833   1.515   3.990
50970SOL    HW254750   9.799   1.661   4.014
50971SOL     OW54751   4.720   8.528   0.735
50971SOL    HW154752   4.769   8.471   0.794
50971SOL    HW254753   4.709   8.610   0.783
50972SOL     OW54754   0.814   7.862   1.444
50972SOL    HW154755   0.811   7.920   1.520
50972SOL    HW254756   0.904   7.831   1.440
50973SOL     OW54757   7.089   9.506   3.098
50973SOL    HW154758   7.131   9.471   3.176
50973SOL    HW254759   6.997   9.481   3.106
50974SOL     OW54760   6.438   1.160   3.208
50974SOL    HW154761   6.501   1.112   3.155
50974SOL    HW254762   6.426   1.243   3.162
50975SOL     OW54763   9.406   8.181  11.928
50975SOL    HW154764   9.492   8.144  11.944
50975SOL    HW254765   9.408   8.208  11.836
50976SOL     OW54766   1.724  10.827   2.364
50976SOL    HW154767   1.666  10.898   2.336
50976SOL    HW254768   1.785  10.867   2.425
50977SOL     OW54769   4.307   7.817  11.200
50977SOL    HW154770   4.382   7.806  11.142
50977SOL    HW254771   4.318   7.751  11.268
50978SOL     OW54772   4.931   6.525   6.594
50978SOL    HW154773   5.014   6.480   6.576
50978SOL    HW254774   4.947   6.615   6.569
50979SOL     OW54775   0.376   1.612   3.503
50979SOL    HW154776   0.444   1.680   3.509
50979SOL    HW254777   0.371   1.592   3.409
50980SOL     OW54778   1.913  11.960   0.019
50980SOL    HW154779   1.861  11.892   0.061
50980SOL    HW254780   1.851  12.007  14.837
50981SOL     OW54781  14.275  10.235   7.807
50981SOL    HW154782  14.214  10.203   7.741
50981SOL    HW254783  14.220  10.260   7.881
50982SOL     OW54784   6.207   5.593   9.619
50982SOL    HW154785   6.189   5.672   9.568
50982SOL    HW254786   6.198   5.522   9.556
50983SOL     OW54787  13.356   8.874  10.221
50983SOL    HW154788  13.440   8.920  10.221
50983SOL    HW254789  13.353   8.829  10.137
50984SOL     OW54790   2.831  11.344   2.517
50984SOL    HW154791   2.743  11.360   2.551
50984SOL    HW254792   2.838  11.248   2.514
50985SOL     OW54793   7.292   9.387   8.723
50985SOL    HW154794   7.297   9.294   8.700
50985SOL    HW254795   7.372   9.425   8.685
50986SOL     OW54796   4.880   3.971   7.229
50986SOL    HW154797   4.831   3.957   7.309
50986SOL    HW254798   4.852   4.057   7.198
50987SOL     OW54799   5.524  12.444   3.066
50987SOL    HW154800   5.601  12.403   3.105
50987SOL    HW254801   5.465  12.459   3.140
50988SOL     OW54802   6.582   0.822   2.456
50988SOL    HW154803   6.528   0.901   2.446
50988SOL    HW254804   6.661   0.853   2.499
50989SOL     OW54805   9.413   1.249  10.800
50989SOL    HW154806   9.487   1.205  10.759
50989SOL    HW254807   9.452   1.320  10.850
50990SOL     OW54808   0.933   1.240   9.313
50990SOL    HW154809   0.940   1.289   9.394
50990SOL    HW254810   1.014   1.190   9.307
50991SOL     OW54811   7.272  11.592   6.322
50991SOL    HW154812   7.240  11.505   6.342
50991SOL    HW254813   7.344  11.578   6.260
50992SOL     OW54814   5.928   3.500   7.935
50992SOL    HW154815   5.880   3.455   7.866
50992SOL    HW254816   5.974   3.430   7.982
50993SOL     OW54817   7.133   1.092  14.168
50993SOL    HW154818   7.124   1.187  14.175
50993SOL    HW254819   7.071   1.067  14.101
50994SOL     OW54820   9.113   9.310   2.619
50994SOL    HW154821   9.020   9.333   2.623
50994SOL    HW254822   9.116   9.230   2.566
50995SOL     OW54823   8.017  14.412   3.400
50995SOL    HW154824   8.073  14.405   3.477
50995SOL    HW254825   7.937  14.454   3.431
50996SOL     OW54826   0.114   1.003   1.926
50996SOL    HW154827   0.122   0.962   2.013
50996SOL    HW254828   0.070   0.937   1.874
50997SOL     OW54829  13.634  13.353  11.362
50997SOL    HW154830  13.727  13.347  11.340
50997SOL    HW254831  13.624  13.441  11.399
50998SOL     OW54832  12.142   9.897  10.533
50998SOL    HW154833  12.071   9.854  10.485
50998SOL    HW254834  12.220   9.883  10.478
50999SOL     OW54835  10.860  14.815   8.336
50999SOL    HW154836  10.894  14.832   8.248
50999SOL    HW254837  10.923  14.857   8.395
51000SOL     OW54838   5.195   5.222   1.048
51000SOL    HW154839   5.103   5.228   1.026
51000SOL    HW254840   5.213   5.128   1.054
51001SOL     OW54841   0.453   2.681  10.045
51001SOL    HW154842   0.537   2.725  10.056
51001SOL    HW254843   0.467   2.621   9.972
51002SOL     OW54844  10.155  13.273  13.437
51002SOL    HW154845  10.114  13.221  13.368
51002SOL    HW254846  10.096  13.265  13.512
51003SOL     OW54847   0.183   3.717   2.584
51003SOL    HW154848   0.123   3.644   2.569
51003SOL    HW254849   0.235   3.691   2.659
51004SOL     OW54850   9.373   5.177  10.750
51004SOL    HW154851   9.440   5.196  10.684
51004SOL    HW254852   9.388   5.085  10.773
51005SOL     OW54853   4.753   8.837   5.986
51005SOL    HW154854   4.761   8.777   6.060
51005SOL    HW254855   4.807   8.912   6.011
51006SOL     OW54856  10.045   7.427   6.377
51006SOL    HW154857  10.129   7.412   6.419
51006SOL    HW254858   9.988   7.359   6.413
51007SOL     OW54859   1.453   3.990  11.289
51007SOL    HW154860   1.449   3.967  11.382
51007SOL    HW254861   1.363   3.976  11.257
51008SOL     OW54862  13.304  14.748   3.458
51008SOL    HW154863  13.350  14.703   3.386
51008SOL    HW254864  13.212  14.726   3.444
51009SOL     OW54865   8.197   5.153   6.527
51009SOL    HW154866   8.209   5.247   6.543
51009SOL    HW254867   8.286   5.119   6.515
51010SOL     OW54868  13.514   6.835   1.123
51010SOL    HW154869  13.518   6.930   1.129
51010SOL    HW254870  13.589   6.805   1.176
51011SOL     OW54871   7.238  11.169  10.444
51011SOL    HW154872   7.283  11.092  10.410
51011SOL    HW254873   7.242  11.233  10.374
51012SOL     OW54874  12.646   0.836  10.109
51012SOL    HW154875  12.576   0.897  10.088
51012SOL    HW254876  12.700   0.832  10.029
51013SOL     OW54877  13.885   1.539   1.939
51013SOL    HW154878  13.964   1.485   1.927
51013SOL    HW254879  13.815   1.488   1.900
51014SOL     OW54880   8.093   7.456   8.033
51014SOL    HW154881   8.094   7.426   8.124
51014SOL    HW254882   8.174   7.506   8.023
51015SOL     OW54883   5.463  14.385   9.924
51015SOL    HW154884   5.383  14.361   9.876
51015SOL    HW254885   5.431  14.436   9.999
51016SOL     OW54886  10.156   6.974   0.850
51016SOL    HW154887  10.119   7.049   0.804
51016SOL    HW254888  10.212   7.013   0.917
51017SOL     OW54889  12.823  10.560  13.676
51017SOL    HW154890  12.840  10.588  13.766
51017SOL    HW254891  12.728  10.564  13.668
51018SOL     OW54892   8.654  13.042  10.064
51018SOL    HW154893   8.559  13.057  10.056
51018SOL    HW254894   8.682  13.106  10.130
51019SOL     OW54895  12.759   6.538   6.616
51019SOL    HW154896  12.686   6.562   6.560
51019SOL    HW254897  12.754   6.443   6.623
51020SOL     OW54898   5.958   5.736  10.745
51020SOL    HW154899   5.913   5.652  10.742
51020SOL    HW254900   6.047   5.717  10.718
51021SOL     OW54901  12.067  14.627   6.395
51021SOL    HW154902  12.129  14.565   6.434
51021SOL    HW254903  12.113  14.710   6.395
51022SOL     OW54904   7.189  13.677   7.291
51022SOL    HW154905   7.104  13.692   7.251
51022SOL    HW254906   7.250  13.673   7.217
51023SOL     OW54907   9.241  14.266   5.151
51023SOL    HW154908   9.159  14.217   5.142
51023SOL    HW254909   9.263  14.290   5.061
51024SOL     OW54910   1.834   6.573   9.706
51024SOL    HW154911   1.781   6.493   9.698
51024SOL    HW254912   1.924   6.543   9.698
51025SOL     OW54913   4.223  13.652  10.408
51025SOL    HW154914   4.178  13.614  10.484
51025SOL    HW254915   4.157  13.651  10.339
51026SOL     OW54916   9.913   3.943  12.845
51026SOL    HW154917   9.921   3.864  12.792
51026SOL    HW254918   9.951   4.012  12.790
51027SOL     OW54919   2.557   3.272  10.567
51027SOL    HW154920   2.478   3.219  10.561
51027SOL    HW254921   2.614   3.224  10.628
51028SOL     OW54922   5.653  10.975   1.518
51028SOL    HW154923   5.692  10.958   1.603
51028SOL    HW254924   5.560  10.956   1.529
51029SOL     OW54925   5.786  11.874  13.131
51029SOL    HW154926   5.752  11.925  13.204
51029SOL    HW254927   5.707  11.845  13.083
51030SOL     OW54928   6.022   3.819   0.832
51030SOL    HW154929   5.980   3.888   0.882
51030SOL    HW254930   6.096   3.862   0.788
51031SOL     OW54931   7.898   7.154  14.158
51031SOL    HW154932   7.913   7.065  14.190
51031SOL    HW254933   7.985   7.185  14.134
51032SOL     OW54934   6.828  13.283   9.932
51032SOL    HW154935   6.823  13.361   9.988
51032SOL    HW254936   6.741  13.244   9.938
51033SOL     OW54937  14.313   4.363  14.649
51033SOL    HW154938  14.245   4.296  14.647
51033SOL    HW254939  14.383   4.327  14.594
51034SOL     OW54940   0.560  14.581   1.109
51034SOL    HW154941   0.581  14.488   1.106
51034SOL    HW254942   0.633  14.621   1.157
51035SOL     OW54943   2.817  10.919  14.768
51035SOL    HW154944   2.889  10.907  14.706
51035SOL    HW254945   2.852  10.976  14.836
51036SOL     OW54946   1.602  14.166  13.169
51036SOL    HW154947   1.608  14.071  13.170
51036SOL    HW254948   1.520  14.185  13.214
51037SOL     OW54949   9.078  13.314  12.946
51037SOL    HW154950   9.097  13.297  12.854
51037SOL    HW254951   9.094  13.408  12.958
51038SOL     OW54952  13.671  13.730  10.321
51038SOL    HW154953  13.635  13.701  10.405
51038SOL    HW254954  13.765  13.719  10.330
51039SOL     OW54955   2.074   5.117  13.466
51039SOL    HW154956   1.987   5.077  13.472
51039SOL    HW254957   2.078   5.175  13.543
51040SOL     OW54958  11.059   7.038  11.587
51040SOL    HW154959  11.139   7.049  11.537
51040SOL    HW254960  11.036   6.946  11.575
51041SOL     OW54961  13.105   5.822   4.793
51041SOL    HW154962  13.132   5.750   4.736
51041SOL    HW254963  13.014   5.840   4.769
51042SOL     OW54964  10.956  10.932   3.060
51042SOL    HW154965  10.923  10.973   2.980
51042SOL    HW254966  11.051  10.932   3.049
51043SOL     OW54967   1.021  14.269  11.134
51043SOL    HW154968   1.021  14.309  11.221
51043SOL    HW254969   0.930  14.240  11.121
51044SOL     OW54970  10.805   8.244   2.069
51044SOL    HW154971  10.823   8.257   2.162
51044SOL    HW254972  10.766   8.157   2.064
51045SOL     OW54973   3.160  12.647  10.397
51045SOL    HW154974   3.084  12.667  10.451
51045SOL    HW254975   3.123  12.622  10.312
51046SOL     OW54976  12.558  13.752   3.331
51046SOL    HW154977  12.614  13.683   3.364
51046SOL    HW254978  12.475  13.709   3.312
51047SOL     OW54979   3.579  13.622   8.378
51047SOL    HW154980   3.620  13.605   8.463
51047SOL    HW254981   3.600  13.714   8.360
51048SOL     OW54982   6.615   3.821   2.075
51048SOL    HW154983   6.682   3.770   2.030
51048SOL    HW254984   6.660   3.856   2.152
51049SOL     OW54985  12.858   4.042   1.888
51049SOL    HW154986  12.931   4.087   1.928
51049SOL    HW254987  12.863   4.065   1.795
51050SOL     OW54988  13.087   6.551  13.243
51050SOL    HW154989  13.109   6.530  13.334
51050SOL    HW254990  13.032   6.479  13.214
51051SOL     OW54991   7.311   6.574   9.331
51051SOL    HW154992   7.305   6.542   9.421
51051SOL    HW254993   7.405   6.592   9.319
51052SOL     OW54994   1.540  14.622   3.582
51052SOL    HW154995   1.544  14.702   3.528
51052SOL    HW254996   1.577  14.648   3.666
51053SOL     OW54997   3.141   0.388   2.502
51053SOL    HW154998   3.161   0.362   2.412
51053SOL    HW254999   3.140   0.483   2.499
51054SOL     OW55000   9.263   4.351   2.869
51054SOL    HW155001   9.253   4.334   2.776
51054SOL    HW255002   9.352   4.384   2.879
51055SOL     OW55003  13.573   0.446  11.763
51055SOL    HW155004  13.609   0.495  11.689
51055SOL    HW255005  13.486   0.482  11.776
51056SOL     OW55006   0.052   6.960   5.880
51056SOL    HW155007   0.104   7.023   5.930
51056SOL    HW255008   0.064   6.877   5.925
51057SOL     OW55009   6.898   0.002  13.707
51057SOL    HW155010   6.904  14.802  13.767
51057SOL    HW255011   6.949   0.071  13.748
51058SOL     OW55012   5.507   7.769  12.918
51058SOL    HW155013   5.416   7.794  12.901
51058SOL    HW255014   5.530   7.711  12.845
51059SOL     OW55015   1.986   9.528   1.808
51059SOL    HW155016   1.908   9.550   1.859
51059SOL    HW255017   2.056   9.580   1.847
51060SOL     OW55018   6.003   8.434  13.087
51060SOL    HW155019   5.994   8.347  13.047
51060SOL    HW255020   6.002   8.495  13.013
51061SOL     OW55021   4.005  12.869   3.072
51061SOL    HW155022   4.050  12.791   3.103
51061SOL    HW255023   3.939  12.886   3.139
51062SOL     OW55024  14.538   0.656   3.801
51062SOL    HW155025  14.558   0.683   3.891
51062SOL    HW255026  14.591   0.715   3.746
51063SOL     OW55027   9.152   6.496   9.381
51063SOL    HW155028   9.141   6.506   9.476
51063SOL    HW255029   9.063   6.506   9.346
51064SOL     OW55030   5.789  14.780  12.516
51064SOL    HW155031   5.736  14.714  12.560
51064SOL    HW255032   5.729  14.853  12.502
51065SOL     OW55033   1.771   8.620   2.062
51065SOL    HW155034   1.800   8.529   2.056
51065SOL    HW255035   1.749   8.631   2.154
51066SOL     OW55036  10.383   4.287   2.694
51066SOL    HW155037  10.372   4.382   2.691
51066SOL    HW255038  10.477   4.274   2.686
51067SOL     OW55039   2.591   2.132  13.644
51067SOL    HW155040   2.658   2.066  13.625
51067SOL    HW255041   2.585   2.132  13.740
51068SOL     OW55042  11.577  14.692  14.300
51068SOL    HW155043  11.585  14.652  14.213
51068SOL    HW255044  11.585  14.618  14.361
51069SOL     OW55045   8.535  11.030   1.271
51069SOL    HW155046   8.474  11.018   1.344
51069SOL    HW255047   8.479  11.031   1.193
51070SOL     OW55048   1.646   6.020   9.471
51070SOL    HW155049   1.573   6.067   9.432
51070SOL    HW255050   1.697   5.987   9.397
51071SOL     OW55051   6.837   0.890  11.472
51071SOL    HW155052   6.878   0.810  11.439
51071SOL    HW255053   6.904   0.958  11.463
51072SOL     OW55054   3.493  13.364   9.319
51072SOL    HW155055   3.463  13.381   9.230
51072SOL    HW255056   3.548  13.439   9.341
51073SOL     OW55057   8.083  11.527   5.920
51073SOL    HW155058   8.093  11.504   5.827
51073SOL    HW255059   8.147  11.472   5.965
51074SOL     OW55060   0.059  14.410  14.078
51074SOL    HW155061  14.837  14.411  14.080
51074SOL    HW255062   0.085  14.448  14.162
51075SOL     OW55063   0.288   7.648   4.284
51075SOL    HW155064   0.298   7.554   4.268
51075SOL    HW255065   0.310   7.659   4.376
51076SOL     OW55066   8.226  10.227   6.298
51076SOL    HW155067   8.311  10.184   6.293
51076SOL    HW255068   8.184  10.187   6.374
51077SOL     OW55069  12.176  13.454   1.291
51077SOL    HW155070  12.230  13.438   1.215
51077SOL    HW255071  12.233  13.438   1.366
51078SOL     OW55072   0.572  11.583  11.798
51078SOL    HW155073   0.582  11.664  11.748
51078SOL    HW255074   0.510  11.604  11.868
51079SOL     OW55075   2.720   3.959   5.313
51079SOL    HW155076   2.812   3.971   5.288
51079SOL    HW255077   2.697   4.039   5.360
51080SOL     OW55078   0.266   2.394   6.335
51080SOL    HW155079   0.319   2.464   6.372
51080SOL    HW255080   0.280   2.400   6.241
51081SOL     OW55081   1.827   0.665   3.689
51081SOL    HW155082   1.777   0.584   3.698
51081SOL    HW255083   1.918   0.640   3.704
51082SOL     OW55084   8.899   7.208  11.999
51082SOL    HW155085   8.874   7.261  12.075
51082SOL    HW255086   8.821   7.157  11.979
51083SOL     OW55087  13.259   0.134   7.948
51083SOL    HW155088  13.274   0.120   8.041
51083SOL    HW255089  13.241   0.047   7.913
51084SOL     OW55090   7.831   5.991   9.321
51084SOL    HW155091   7.853   6.079   9.290
51084SOL    HW255092   7.806   5.943   9.242
51085SOL     OW55093   4.168  10.195   1.850
51085SOL    HW155094   4.246  10.205   1.797
51085SOL    HW255095   4.159  10.100   1.861
51086SOL     OW55096   9.959   2.881  14.320
51086SOL    HW155097   9.924   2.852  14.404
51086SOL    HW255098   9.951   2.804  14.263
51087SOL     OW55099   9.470  13.322   5.608
51087SOL    HW155100   9.444  13.364   5.526
51087SOL    HW255101   9.559  13.289   5.591
51088SOL     OW55102  13.967  11.615   1.612
51088SOL    HW155103  13.959  11.543   1.674
51088SOL    HW255104  14.049  11.658   1.635
51089SOL     OW55105   3.443   7.239  12.749
51089SOL    HW155106   3.424   7.239  12.843
51089SOL    HW255107   3.361   7.265  12.708
51090SOL     OW55108  11.980   0.947   7.944
51090SOL    HW155109  12.033   0.867   7.952
51090SOL    HW255110  12.017   1.007   8.009
51091SOL     OW55111   3.983  14.560  13.523
51091SOL    HW155112   4.010  14.631  13.465
51091SOL    HW255113   3.952  14.492  13.463
51092SOL     OW55114   0.112   3.106  11.715
51092SOL    HW155115   0.047   3.036  11.724
51092SOL    HW255116   0.092   3.145  11.630
51093SOL     OW55117  12.977   6.656   2.397
51093SOL    HW155118  13.049   6.594   2.386
51093SOL    HW255119  12.993   6.696   2.482
51094SOL     OW55120   3.334  13.387   3.756
51094SOL    HW155121   3.368  13.463   3.805
51094SOL    HW255122   3.298  13.425   3.675
51095SOL     OW55123  11.983  10.595   1.203
51095SOL    HW155124  11.948  10.678   1.169
51095SOL    HW255125  12.078  10.609   1.206
51096SOL     OW55126   9.942  13.136   9.441
51096SOL    HW155127  10.021  13.147   9.494
51096SOL    HW255128   9.951  13.049   9.403
51097SOL     OW55129   7.176  11.645   5.417
51097SOL    HW155130   7.131  11.612   5.495
51097SOL    HW255131   7.266  11.661   5.446
51098SOL     OW55132  11.253   2.748   5.156
51098SOL    HW155133  11.288   2.714   5.239
51098SOL    HW255134  11.270   2.678   5.093
51099SOL     OW55135  13.349   0.360  10.848
51099SOL    HW155136  13.335   0.400  10.934
51099SOL    HW255137  13.379   0.271  10.868
51100SOL     OW55138   6.905   7.786  13.875
51100SOL    HW155139   6.949   7.708  13.906
51100SOL    HW255140   6.843   7.809  13.945
51101SOL     OW55141  10.716  11.282   0.598
51101SOL    HW155142  10.718  11.351   0.532
51101SOL    HW255143  10.792  11.299   0.653
51102SOL     OW55144   0.181   9.856   9.926
51102SOL    HW155145   0.253   9.907   9.890
51102SOL    HW255146   0.143   9.912   9.993
51103SOL     OW55147   9.088   4.698   5.121
51103SOL    HW155148   9.025   4.770   5.115
51103SOL    HW255149   9.040   4.621   5.088
51104SOL     OW55150   0.114   5.545  14.037
51104SOL    HW155151   0.144   5.552  14.127
51104SOL    HW255152   0.193   5.529  13.986
51105SOL     OW55153   2.894  13.912  12.753
51105SOL    HW155154   2.867  13.823  12.729
51105SOL    HW255155   2.978  13.923  12.710
51106SOL     OW55156  11.862   2.394   3.059
51106SOL    HW155157  11.768   2.403   3.069
51106SOL    HW255158  11.899   2.453   3.125
51107SOL     OW55159   6.632   9.351   7.609
51107SOL    HW155160   6.673   9.265   7.599
51107SOL    HW255161   6.567   9.355   7.539
51108SOL     OW55162   4.066  10.279  11.721
51108SOL    HW155163   4.073  10.249  11.631
51108SOL    HW255164   4.021  10.363  11.715
51109SOL     OW55165   8.640  13.447   2.032
51109SOL    HW155166   8.615  13.373   2.089
51109SOL    HW255167   8.701  13.498   2.085
51110SOL     OW55168  10.527   8.298   5.704
51110SOL    HW155169  10.558   8.255   5.784
51110SOL    HW255170  10.464   8.236   5.667
51111SOL     OW55171  12.618   5.316  14.455
51111SOL    HW155172  12.530   5.291  14.484
51111SOL    HW255173  12.606   5.399  14.410
51112SOL     OW55174   0.375   1.601   7.400
51112SOL    HW155175   0.382   1.551   7.319
51112SOL    HW255176   0.465   1.626   7.421
51113SOL     OW55177  10.928   1.443   7.797
51113SOL    HW155178  10.869   1.437   7.872
51113SOL    HW255179  10.876   1.410   7.723
51114SOL     OW55180   1.812   4.352   9.257
51114SOL    HW155181   1.876   4.288   9.288
51114SOL    HW255182   1.864   4.421   9.216
51115SOL     OW55183   6.541   6.461   1.382
51115SOL    HW155184   6.599   6.518   1.433
51115SOL    HW255185   6.491   6.413   1.448
51116SOL     OW55186   8.244   7.575   5.518
51116SOL    HW155187   8.279   7.486   5.506
51116SOL    HW255188   8.262   7.595   5.610
51117SOL     OW55189   9.356   2.423   3.104
51117SOL    HW155190   9.364   2.478   3.181
51117SOL    HW255191   9.297   2.472   3.046
51118SOL     OW55192   3.002   2.036   6.188
51118SOL    HW155193   3.089   1.997   6.182
51118SOL    HW255194   2.963   2.022   6.101
51119SOL     OW55195   4.971   8.356  13.873
51119SOL    HW155196   5.044   8.305  13.908
51119SOL    HW255197   4.905   8.292  13.850
51120SOL     OW55198   8.890   8.632   3.383
51120SOL    HW155199   8.977   8.658   3.352
51120SOL    HW255200   8.907   8.575   3.458
51121SOL     OW55201  12.977   0.672   0.562
51121SOL    HW155202  13.045   0.738   0.543
51121SOL    HW255203  13.017   0.616   0.629
51122SOL     OW55204  11.076  13.376   6.961
51122SOL    HW155205  11.032  13.449   7.003
51122SOL    HW255206  11.103  13.409   6.875
51123SOL     OW55207  14.659   2.256   1.504
51123SOL    HW155208  14.672   2.304   1.586
51123SOL    HW255209  14.584   2.199   1.522
51124SOL     OW55210  14.648  10.099   7.109
51124SOL    HW155211  14.555  10.083   7.092
51124SOL    HW255212  14.650  10.183   7.155
51125SOL     OW55213  10.882   8.070   8.194
51125SOL    HW155214  10.886   8.018   8.114
51125SOL    HW255215  10.823   8.143   8.172
51126SOL     OW55216  13.490   8.153  10.295
51126SOL    HW155217  13.487   8.095  10.371
51126SOL    HW255218  13.406   8.138  10.251
51127SOL     OW55219   3.764   4.059  14.231
51127SOL    HW155220   3.675   4.076  14.200
51127SOL    HW255221   3.792   4.141  14.271
51128SOL     OW55222   2.046   3.461   9.159
51128SOL    HW155223   2.131   3.484   9.122
51128SOL    HW255224   2.059   3.376   9.201
51129SOL     OW55225   9.475   8.789   1.413
51129SOL    HW155226   9.458   8.881   1.393
51129SOL    HW255227   9.471   8.744   1.328
51130SOL     OW55228   2.208   8.218  13.132
51130SOL    HW155229   2.261   8.240  13.056
51130SOL    HW255230   2.135   8.166  13.096
51131SOL     OW55231  14.023   3.911  11.334
51131SOL    HW155232  14.116   3.893  11.341
51131SOL    HW255233  13.982   3.824  11.330
51132SOL     OW55234  10.070   1.570   6.013
51132SOL    HW155235  10.041   1.480   6.003
51132SOL    HW255236  10.055   1.590   6.105
51133SOL     OW55237  13.377  13.523  14.166
51133SOL    HW155238  13.354  13.430  14.166
51133SOL    HW255239  13.447  13.531  14.101
51134SOL     OW55240  14.593  13.425  13.786
51134SOL    HW155241  14.671  13.467  13.749
51134SOL    HW255242  14.548  13.494  13.834
51135SOL     OW55243   6.535   7.841   8.486
51135SOL    HW155244   6.571   7.929   8.477
51135SOL    HW255245   6.602   7.792   8.535
51136SOL     OW55246  13.909   8.374   0.331
51136SOL    HW155247  13.936   8.338   0.247
51136SOL    HW255248  13.819   8.405   0.317
51137SOL     OW55249   8.863  13.238   1.910
51137SOL    HW155250   8.798  13.257   1.978
51137SOL    HW255251   8.862  13.316   1.854
51138SOL     OW55252   9.763  14.011   4.475
51138SOL    HW155253   9.791  13.919   4.468
51138SOL    HW255254   9.776  14.046   4.387
51139SOL     OW55255   0.281   9.050   5.614
51139SOL    HW155256   0.337   8.974   5.599
51139SOL    HW255257   0.327   9.123   5.571
51140SOL     OW55258   9.160   3.054  11.067
51140SOL    HW155259   9.168   3.101  11.150
51140SOL    HW255260   9.073   3.075  11.035
51141SOL     OW55261   8.299   0.083   0.887
51141SOL    HW155262   8.342   0.166   0.904
51141SOL    HW255263   8.318   0.030   0.965
51142SOL     OW55264   4.310   3.596   4.541
51142SOL    HW155265   4.344   3.526   4.485
51142SOL    HW255266   4.241   3.554   4.592
51143SOL     OW55267  12.298   6.619   6.915
51143SOL    HW155268  12.249   6.682   6.862
51143SOL    HW255269  12.238   6.594   6.985
51144SOL     OW55270   0.761   9.274   4.792
51144SOL    HW155271   0.754   9.218   4.715
51144SOL    HW255272   0.790   9.215   4.862
51145SOL     OW55273   5.254   2.533  13.639
51145SOL    HW155274   5.285   2.550  13.550
51145SOL    HW255275   5.222   2.442  13.636
51146SOL     OW55276  12.327   8.540   9.687
51146SOL    HW155277  12.406   8.581   9.652
51146SOL    HW255278  12.257   8.601   9.667
51147SOL     OW55279   1.892  11.178  14.467
51147SOL    HW155280   1.797  11.165  14.462
51147SOL    HW255281   1.905  11.270  14.446
51148SOL     OW55282   4.154   1.018   5.206
51148SOL    HW155283   4.088   0.976   5.262
51148SOL    HW255284   4.198   1.080   5.263
51149SOL     OW55285   2.795   9.582  10.917
51149SOL    HW155286   2.758   9.497  10.942
51149SOL    HW255287   2.843   9.610  10.995
51150SOL     OW55288   0.657   3.645   5.706
51150SOL    HW155289   0.731   3.691   5.666
51150SOL    HW255290   0.592   3.639   5.636
51151SOL     OW55291  12.504  13.701   6.564
51151SOL    HW155292  12.536  13.744   6.643
51151SOL    HW255293  12.525  13.608   6.576
51152SOL     OW55294   0.522   8.157   4.649
51152SOL    HW155295   0.438   8.199   4.667
51152SOL    HW255296   0.583   8.230   4.638
51153SOL     OW55297  13.660   5.693  13.064
51153SOL    HW155298  13.602   5.628  13.103
51153SOL    HW255299  13.748   5.664  13.087
51154SOL     OW55300   3.180  10.080   3.651
51154SOL    HW155301   3.109  10.079   3.715
51154SOL    HW255302   3.149  10.140   3.583
51155SOL     OW55303  10.979  11.234   7.673
51155SOL    HW155304  10.899  11.207   7.629
51155SOL    HW255305  10.976  11.330   7.674
51156SOL     OW55306  11.049   8.567   3.960
51156SOL    HW155307  11.060   8.508   4.035
51156SOL    HW255308  10.955   8.569   3.945
51157SOL     OW55309   0.597  10.005   3.956
51157SOL    HW155310   0.639  10.051   4.029
51157SOL    HW255311   0.605  10.065   3.882
51158SOL     OW55312   3.150  10.591   1.512
51158SOL    HW155313   3.163  10.555   1.600
51158SOL    HW255314   3.154  10.686   1.524
51159SOL     OW55315   9.070   5.148  14.054
51159SOL    HW155316   9.049   5.217  13.991
51159SOL    HW255317   9.047   5.186  14.139
51160SOL     OW55318  12.876   6.995   7.503
51160SOL    HW155319  12.833   7.018   7.421
51160SOL    HW255320  12.966   6.974   7.479
51161SOL     OW55321   7.411  14.049  13.461
51161SOL    HW155322   7.425  14.142  13.444
51161SOL    HW255323   7.317  14.036  13.453
51162SOL     OW55324   9.547   5.378  11.807
51162SOL    HW155325   9.454   5.368  11.786
51162SOL    HW255326   9.588   5.402  11.724
51163SOL     OW55327   0.827   9.770   6.418
51163SOL    HW155328   0.782   9.842   6.373
51163SOL    HW255329   0.825   9.698   6.355
51164SOL     OW55330   4.713  11.397   9.582
51164SOL    HW155331   4.771  11.469   9.560
51164SOL    HW255332   4.761  11.345   9.646
51165SOL     OW55333   1.009   8.041   4.048
51165SOL    HW155334   0.993   7.947   4.051
51165SOL    HW255335   0.994   8.066   3.957
51166SOL     OW55336   1.379   5.859   9.084
51166SOL    HW155337   1.383   5.920   9.157
51166SOL    HW255338   1.291   5.868   9.049
51167SOL     OW55339  14.670  11.892  13.947
51167SOL    HW155340  14.722  11.869  13.870
51167SOL    HW255341  14.715  11.850  14.020
51168SOL     OW55342   7.406   1.174  14.072
51168SOL    HW155343   7.324   1.220  14.053
51168SOL    HW255344   7.385   1.119  14.149
51169SOL     OW55345   7.556   8.096  12.601
51169SOL    HW155346   7.610   8.129  12.529
51169SOL    HW255347   7.469   8.134  12.586
51170SOL     OW55348   9.026   2.295  10.231
51170SOL    HW155349   9.092   2.257  10.172
51170SOL    HW255350   8.958   2.227  10.237
51171SOL     OW55351  10.278  10.623   3.387
51171SOL    HW155352  10.183  10.615   3.378
51171SOL    HW255353  10.310  10.620   3.297
51172SOL     OW55354   5.296   3.577   1.201
51172SOL    HW155355   5.221   3.572   1.141
51172SOL    HW255356   5.356   3.638   1.157
51173SOL     OW55357  14.771   2.080   9.248
51173SOL    HW155358  14.763   2.063   9.154
51173SOL    HW255359  14.863   2.064   9.268
51174SOL     OW55360  14.736  13.339  14.085
51174SOL    HW155361  14.737  13.401  14.012
51174SOL    HW255362  14.742  13.393  14.163
51175SOL     OW55363   2.089  13.920   9.199
51175SOL    HW155364   1.993  13.918   9.196
51175SOL    HW255365   2.116  13.867   9.123
51176SOL     OW55366   4.026   3.252   0.475
51176SOL    HW155367   4.031   3.347   0.487
51176SOL    HW255368   4.102   3.218   0.524
51177SOL     OW55369   7.361   5.365  12.520
51177SOL    HW155370   7.270   5.392  12.514
51177SOL    HW255371   7.407   5.421  12.457
51178SOL     OW55372  12.782  14.137  14.095
51178SOL    HW155373  12.868  14.158  14.059
51178SOL    HW255374  12.720  14.181  14.037
51179SOL     OW55375   1.521  12.756  11.636
51179SOL    HW155376   1.555  12.733  11.722
51179SOL    HW255377   1.437  12.710  11.630
51180SOL     OW55378   6.874   2.397  12.489
51180SOL    HW155379   6.902   2.332  12.425
51180SOL    HW255380   6.935   2.385  12.562
51181SOL     OW55381   4.639   8.355   9.092
51181SOL    HW155382   4.593   8.271   9.095
51181SOL    HW255383   4.655   8.377   9.184
51182SOL     OW55384   9.470   3.680   8.961
51182SOL    HW155385   9.482   3.663   9.054
51182SOL    HW255386   9.481   3.594   8.919
51183SOL     OW55387   9.694   4.400   4.970
51183SOL    HW155388   9.768   4.423   4.915
51183SOL    HW255389   9.623   4.381   4.908
51184SOL     OW55390   8.883  11.850   5.912
51184SOL    HW155391   8.936  11.864   5.990
51184SOL    HW255392   8.933  11.786   5.860
51185SOL     OW55393   1.418   5.830   7.267
51185SOL    HW155394   1.367   5.750   7.275
51185SOL    HW255395   1.361   5.898   7.303
51186SOL     OW55396  11.904   8.197   1.312
51186SOL    HW155397  11.841   8.129   1.337
51186SOL    HW255398  11.908   8.255   1.388
51187SOL     OW55399   5.623   7.504   7.697
51187SOL    HW155400   5.595   7.588   7.735
51187SOL    HW255401   5.718   7.510   7.693
51188SOL     OW55402   1.601   2.009  13.399
51188SOL    HW155403   1.576   1.933  13.347
51188SOL    HW255404   1.683   1.983  13.442
51189SOL     OW55405   1.718  11.228   3.304
51189SOL    HW155406   1.665  11.306   3.287
51189SOL    HW255407   1.799  11.244   3.256
51190SOL     OW55408  11.951   5.675   0.411
51190SOL    HW155409  11.983   5.759   0.380
51190SOL    HW255410  12.011   5.611   0.373
51191SOL     OW55411   1.050   6.714   4.654
51191SOL    HW155412   1.007   6.646   4.601
51191SOL    HW255413   1.043   6.682   4.744
51192SOL     OW55414   7.314   6.767  10.154
51192SOL    HW155415   7.407   6.758  10.138
51192SOL    HW255416   7.306   6.771  10.250
51193SOL     OW55417   6.871   6.735  12.255
51193SOL    HW155418   6.848   6.781  12.175
51193SOL    HW255419   6.789   6.730  12.305
51194SOL     OW55420   5.654  11.360   5.565
51194SOL    HW155421   5.692  11.358   5.477
51194SOL    HW255422   5.628  11.269   5.582
51195SOL     OW55423   5.291  12.764   3.908
51195SOL    HW155424   5.276  12.775   4.002
51195SOL    HW255425   5.239  12.833   3.867
51196SOL     OW55426   7.949   5.599  14.869
51196SOL    HW155427   8.024   5.634   0.043
51196SOL    HW255428   7.972   5.508  14.852
51197SOL     OW55429   3.779  13.648   7.297
51197SOL    HW155430   3.815  13.563   7.270
51197SOL    HW255431   3.831  13.712   7.249
51198SOL     OW55432   0.171   7.436   8.542
51198SOL    HW155433   0.078   7.455   8.535
51198SOL    HW255434   0.178   7.378   8.618
51199SOL     OW55435   1.229  14.678  13.766
51199SOL    HW155436   1.259  14.617  13.699
51199SOL    HW255437   1.148  14.714  13.731
51200SOL     OW55438   8.078   7.868  13.561
51200SOL    HW155439   8.035   7.952  13.574
51200SOL    HW255440   8.104   7.841  13.650
51201SOL     OW55441   3.619   2.478   0.930
51201SOL    HW155442   3.601   2.571   0.935
51201SOL    HW255443   3.532   2.436   0.937
51202SOL     OW55444   7.192  11.671   9.281
51202SOL    HW155445   7.271  11.717   9.309
51202SOL    HW255446   7.206  11.580   9.309
51203SOL     OW55447   5.172   6.418   5.322
51203SOL    HW155448   5.099   6.478   5.336
51203SOL    HW255449   5.197   6.431   5.231
51204SOL     OW55450   1.600   8.162  12.667
51204SOL    HW155451   1.509   8.186  12.685
51204SOL    HW255452   1.597   8.119  12.581
51205SOL     OW55453   3.861  11.629   9.914
51205SOL    HW155454   3.826  11.542   9.931
51205SOL    HW255455   3.823  11.684   9.982
51206SOL     OW55456   0.271   5.717   7.051
51206SOL    HW155457   0.177   5.710   7.035
51206SOL    HW255458   0.280   5.799   7.100
51207SOL     OW55459   6.018   9.493  12.089
51207SOL    HW155460   6.038   9.493  12.183
51207SOL    HW255461   6.059   9.573  12.055
51208SOL     OW55462  12.922  10.571   2.266
51208SOL    HW155463  12.949  10.663   2.271
51208SOL    HW255464  12.884  10.552   2.352
51209SOL     OW55465  11.393  10.075  13.582
51209SOL    HW155466  11.347  10.064  13.499
51209SOL    HW255467  11.326  10.106  13.643
51210SOL     OW55468   4.513   9.287  13.666
51210SOL    HW155469   4.465   9.286  13.749
51210SOL    HW255470   4.597   9.246  13.686
51211SOL     OW55471   5.278   2.379   0.401
51211SOL    HW155472   5.296   2.370   0.308
51211SOL    HW255473   5.228   2.300   0.423
51212SOL     OW55474   8.870  10.691   8.006
51212SOL    HW155475   8.913  10.703   7.922
51212SOL    HW255476   8.909  10.611   8.041
51213SOL     OW55477  11.461   5.295  13.079
51213SOL    HW155478  11.486   5.309  12.987
51213SOL    HW255479  11.454   5.382  13.116
51214SOL     OW55480  13.579   5.209  13.873
51214SOL    HW155481  13.562   5.288  13.925
51214SOL    HW255482  13.577   5.239  13.782
51215SOL     OW55483   2.943   6.911   4.272
51215SOL    HW155484   3.014   6.913   4.207
51215SOL    HW255485   2.974   6.849   4.339
51216SOL     OW55486   1.230  12.461  11.012
51216SOL    HW155487   1.144  12.501  11.006
51216SOL    HW255488   1.280  12.500  10.940
51217SOL     OW55489   7.242   0.738  12.224
51217SOL    HW155490   7.159   0.731  12.176
51217SOL    HW255491   7.282   0.651  12.214
51218SOL     OW55492   8.597   6.023   9.653
51218SOL    HW155493   8.549   5.941   9.662
51218SOL    HW255494   8.674   6.000   9.600
51219SOL     OW55495   9.632   2.815  13.805
51219SOL    HW155496   9.614   2.742  13.864
51219SOL    HW255497   9.724   2.802  13.779
51220SOL     OW55498  11.296   5.983   9.003
51220SOL    HW155499  11.255   6.034   8.933
51220SOL    HW255500  11.258   6.019   9.083
51221SOL     OW55501  10.431   2.237   9.189
51221SOL    HW155502  10.527   2.227   9.188
51221SOL    HW255503  10.398   2.147   9.185
51222SOL     OW55504   4.250   2.315  10.839
51222SOL    HW155505   4.298   2.397  10.829
51222SOL    HW255506   4.269   2.286  10.928
51223SOL     OW55507   1.809   5.135   2.470
51223SOL    HW155508   1.739   5.144   2.534
51223SOL    HW255509   1.878   5.087   2.517
51224SOL     OW55510   5.872  13.567   3.079
51224SOL    HW155511   5.848  13.652   3.116
51224SOL    HW255512   5.813  13.557   3.004
51225SOL     OW55513   9.327  14.086   4.695
51225SOL    HW155514   9.401  14.107   4.638
51225SOL    HW255515   9.321  13.991   4.694
51226SOL     OW55516   7.294  14.745  10.050
51226SOL    HW155517   7.229  14.809  10.020
51226SOL    HW255518   7.319  14.776  10.137
51227SOL     OW55519  14.011  12.911  13.521
51227SOL    HW155520  14.042  12.840  13.466
51227SOL    HW255521  14.058  12.900  13.603
51228SOL     OW55522   7.941   1.908   6.919
51228SOL    HW155523   7.869   1.925   6.980
51228SOL    HW255524   7.919   1.959   6.841
51229SOL     OW55525   1.984   1.104   9.229
51229SOL    HW155526   2.038   1.045   9.177
51229SOL    HW255527   1.919   1.138   9.167
51230SOL     OW55528  12.780  10.560   9.601
51230SOL    HW155529  12.700  10.547   9.550
51230SOL    HW255530  12.824  10.475   9.598
51231SOL     OW55531   2.560   4.574   0.082
51231SOL    HW155532   2.491   4.628   0.121
51231SOL    HW255533   2.639   4.597   0.131
51232SOL     OW55534  12.368  12.911   7.791
51232SOL    HW155535  12.411  12.869   7.716
51232SOL    HW255536  12.319  12.840   7.833
51233SOL     OW55537   9.136   6.193   9.062
51233SOL    HW155538   9.193   6.266   9.040
51233SOL    HW255539   9.115   6.153   8.977
51234SOL     OW55540   2.994   5.071  12.094
51234SOL    HW155541   3.055   5.144  12.090
51234SOL    HW255542   2.953   5.077  12.180
51235SOL     OW55543   8.165   3.343   8.880
51235SOL    HW155544   8.255   3.330   8.849
51235SOL    HW255545   8.115   3.361   8.801
51236SOL     OW55546   7.566   1.064   6.427
51236SOL    HW155547   7.650   1.094   6.392
51236SOL    HW255548   7.531   1.141   6.474
51237SOL     OW55549   1.315   8.125  12.159
51237SOL    HW155550   1.403   8.161  12.154
51237SOL    HW255551   1.267   8.169  12.089
51238SOL     OW55552   3.866   6.253  14.736
51238SOL    HW155553   3.938   6.315  14.726
51238SOL    HW255554   3.887   6.204  14.816
51239SOL     OW55555  10.058   3.153  10.565
51239SOL    HW155556  10.102   3.228  10.525
51239SOL    HW255557  10.009   3.113  10.493
51240SOL     OW55558   6.970  11.786   4.097
51240SOL    HW155559   7.037  11.729   4.137
51240SOL    HW255560   6.941  11.842   4.169
51241SOL     OW55561   7.769  10.490   8.311
51241SOL    HW155562   7.683  10.454   8.290
51241SOL    HW255563   7.817  10.417   8.349
51242SOL     OW55564  14.221  12.130   7.788
51242SOL    HW155565  14.196  12.207   7.736
51242SOL    HW255566  14.303  12.156   7.830
51243SOL     OW55567   7.427  13.219   2.573
51243SOL    HW155568   7.454  13.189   2.486
51243SOL    HW255569   7.489  13.178   2.633
51244SOL     OW55570  13.801   8.134   8.186
51244SOL    HW155571  13.728   8.171   8.235
51244SOL    HW255572  13.867   8.204   8.185
51245SOL     OW55573   0.759   4.555   5.843
51245SOL    HW155574   0.765   4.622   5.912
51245SOL    HW255575   0.686   4.584   5.788
51246SOL     OW55576   8.626   6.683  11.871
51246SOL    HW155577   8.694   6.749  11.885
51246SOL    HW255578   8.562   6.725  11.814
51247SOL     OW55579   1.768   9.088   6.400
51247SOL    HW155580   1.840   9.040   6.440
51247SOL    HW255581   1.690   9.059   6.447
51248SOL     OW55582   1.261   0.622   5.869
51248SOL    HW155583   1.351   0.645   5.893
51248SOL    HW255584   1.209   0.698   5.893
51249SOL     OW55585   3.215   4.509   1.167
51249SOL    HW155586   3.253   4.566   1.235
51249SOL    HW255587   3.180   4.570   1.102
51250SOL     OW55588   1.080   7.855  10.359
51250SOL    HW155589   1.020   7.780  10.365
51250SOL    HW255590   1.146   7.838  10.426
51251SOL     OW55591   1.408   1.923   1.407
51251SOL    HW155592   1.369   1.929   1.319
51251SOL    HW255593   1.334   1.938   1.466
51252SOL     OW55594  11.818  11.556  11.115
51252SOL    HW155595  11.891  11.578  11.173
51252SOL    HW255596  11.833  11.609  11.037
51253SOL     OW55597   7.447   8.387  14.006
51253SOL    HW155598   7.425   8.325  13.936
51253SOL    HW255599   7.363   8.407  14.048
51254SOL     OW55600   4.211  11.406   4.377
51254SOL    HW155601   4.297  11.390   4.336
51254SOL    HW255602   4.190  11.496   4.354
51255SOL     OW55603   7.121  11.596   8.593
51255SOL    HW155604   7.201  11.576   8.545
51255SOL    HW255605   7.147  11.591   8.685
51256SOL     OW55606   2.439  10.081   8.865
51256SOL    HW155607   2.371  10.014   8.870
51256SOL    HW255608   2.469  10.079   8.774
51257SOL     OW55609   0.405   1.248  14.795
51257SOL    HW155610   0.384   1.335  14.829
51257SOL    HW255611   0.347   1.237  14.720
51258SOL     OW55612  14.645  11.968   4.981
51258SOL    HW155613  14.696  12.032   5.031
51258SOL    HW255614  14.587  11.929   5.046
51259SOL     OW55615  14.501   3.825   4.810
51259SOL    HW155616  14.539   3.912   4.799
51259SOL    HW255617  14.573   3.771   4.840
51260SOL     OW55618   5.539  10.469   5.135
51260SOL    HW155619   5.534  10.446   5.227
51260SOL    HW255620   5.606  10.538   5.131
51261SOL     OW55621  11.354  12.514   6.613
51261SOL    HW155622  11.416  12.517   6.540
51261SOL    HW255623  11.287  12.579   6.590
51262SOL     OW55624   2.842  11.998  10.207
51262SOL    HW155625   2.913  11.972  10.148
51262SOL    HW255626   2.876  11.983  10.295
51263SOL     OW55627  14.626  13.462   1.662
51263SOL    HW155628  14.647  13.437   1.572
51263SOL    HW255629  14.617  13.379   1.708
51264SOL     OW55630   5.162   6.276  11.423
51264SOL    HW155631   5.135   6.361  11.457
51264SOL    HW255632   5.090   6.217  11.443
51265SOL     OW55633   1.890   6.211   9.351
51265SOL    HW155634   1.886   6.120   9.381
51265SOL    HW255635   1.931   6.205   9.265
51266SOL     OW55636  12.615   0.377  13.070
51266SOL    HW155637  12.569   0.314  13.126
51266SOL    HW255638  12.547   0.411  13.011
51267SOL     OW55639   5.738   9.588   2.475
51267SOL    HW155640   5.805   9.645   2.513
51267SOL    HW255641   5.659   9.606   2.525
51268SOL     OW55642  12.086   0.589   6.915
51268SOL    HW155643  12.177   0.618   6.913
51268SOL    HW255644  12.082   0.525   6.986
51269SOL     OW55645   1.478  13.544   0.331
51269SOL    HW155646   1.412  13.611   0.311
51269SOL    HW255647   1.440  13.494   0.404
51270SOL     OW55648   2.257   3.586   9.358
51270SOL    HW155649   2.350   3.592   9.382
51270SOL    HW255650   2.251   3.634   9.276
51271SOL     OW55651  14.431   9.008   2.999
51271SOL    HW155652  14.410   9.093   2.960
51271SOL    HW255653  14.379   9.004   3.079
51272SOL     OW55654   1.932   7.301  13.045
51272SOL    HW155655   1.921   7.361  12.972
51272SOL    HW255656   1.896   7.218  13.014
51273SOL     OW55657   9.710   6.672   4.738
51273SOL    HW155658   9.677   6.670   4.648
51273SOL    HW255659   9.674   6.592   4.777
51274SOL     OW55660  13.078  13.257   2.678
51274SOL    HW155661  13.013  13.188   2.663
51274SOL    HW255662  13.086  13.263   2.773
51275SOL     OW55663   0.349  13.054   2.535
51275SOL    HW155664   0.286  13.020   2.600
51275SOL    HW255665   0.433  13.054   2.582
51276SOL     OW55666  14.047   3.411   0.872
51276SOL    HW155667  14.052   3.373   0.784
51276SOL    HW255668  14.047   3.336   0.931
51277SOL     OW55669   3.534   9.470  13.850
51277SOL    HW155670   3.536   9.502  13.760
51277SOL    HW255671   3.612   9.508  13.891
51278SOL     OW55672   0.391   8.583  10.785
51278SOL    HW155673   0.381   8.678  10.784
51278SOL    HW255674   0.414   8.563  10.876
51279SOL     OW55675  10.318   9.779   7.801
51279SOL    HW155676  10.313   9.696   7.848
51279SOL    HW255677  10.227   9.810   7.798
51280SOL     OW55678   8.722  13.741   6.334
51280SOL    HW155679   8.753  13.650   6.332
51280SOL    HW255680   8.758  13.781   6.255
51281SOL     OW55681   1.597  13.130   4.885
51281SOL    HW155682   1.539  13.147   4.811
51281SOL    HW255683   1.543  13.143   4.963
51282SOL     OW55684   1.848  12.912  10.864
51282SOL    HW155685   1.941  12.926  10.878
51282SOL    HW255686   1.844  12.829  10.816
51283SOL     OW55687   7.816  11.730   7.953
51283SOL    HW155688   7.747  11.743   8.018
51283SOL    HW255689   7.790  11.785   7.879
51284SOL     OW55690   6.688  12.339  10.459
51284SOL    HW155691   6.708  12.253  10.496
51284SOL    HW255692   6.633  12.321  10.383
51285SOL     OW55693   3.163  14.521   1.287
51285SOL    HW155694   3.073  14.498   1.311
51285SOL    HW255695   3.217  14.455   1.331
51286SOL     OW55696   3.981   3.172   3.550
51286SOL    HW155697   3.892   3.170   3.583
51286SOL    HW255698   3.971   3.168   3.454
51287SOL     OW55699  12.799   4.994   0.010
51287SOL    HW155700  12.885   4.959  14.860
51287SOL    HW255701  12.768   5.037  14.804
51288SOL     OW55702   0.210  11.213   2.758
51288SOL    HW155703   0.194  11.297   2.716
51288SOL    HW255704   0.168  11.148   2.701
51289SOL     OW55705   0.910  13.440   6.355
51289SOL    HW155706   0.935  13.445   6.447
51289SOL    HW255707   0.960  13.510   6.313
51290SOL     OW55708  12.214   0.660  11.029
51290SOL    HW155709  12.267   0.600  11.082
51290SOL    HW255710  12.178   0.722  11.091
51291SOL     OW55711  12.312   2.411  10.994
51291SOL    HW155712  12.264   2.389  10.914
51291SOL    HW255713  12.243   2.426  11.059
51292SOL     OW55714   5.027   8.311   9.502
51292SOL    HW155715   5.069   8.235   9.543
51292SOL    HW255716   4.974   8.274   9.432
51293SOL     OW55717   6.056   7.781   3.555
51293SOL    HW155718   5.973   7.754   3.594
51293SOL    HW255719   6.077   7.711   3.493
51294SOL     OW55720  13.469   1.231  10.537
51294SOL    HW155721  13.401   1.164  10.546
51294SOL    HW255722  13.518   1.226  10.620
51295SOL     OW55723   4.946   5.418  12.333
51295SOL    HW155724   5.019   5.435  12.273
51295SOL    HW255725   4.900   5.502  12.340
51296SOL     OW55726  11.907   3.373   6.410
51296SOL    HW155727  11.847   3.379   6.335
51296SOL    HW255728  11.920   3.279   6.423
51297SOL     OW55729  10.814  10.817   6.281
51297SOL    HW155730  10.770  10.854   6.357
51297SOL    HW255731  10.778  10.729   6.273
51298SOL     OW55732   4.792  11.894  12.397
51298SOL    HW155733   4.784  11.851  12.311
51298SOL    HW255734   4.781  11.823  12.460
51299SOL     OW55735   2.175   5.390   4.105
51299SOL    HW155736   2.216   5.336   4.038
51299SOL    HW255737   2.106   5.438   4.060
51300SOL     OW55738  11.879  13.729   7.174
51300SOL    HW155739  11.930  13.650   7.158
51300SOL    HW255740  11.864  13.765   7.086
51301SOL     OW55741   8.397   2.310   5.588
51301SOL    HW155742   8.469   2.365   5.620
51301SOL    HW255743   8.325   2.372   5.572
51302SOL     OW55744  13.937  10.249   9.660
51302SOL    HW155745  14.022  10.206   9.670
51302SOL    HW255746  13.874  10.177   9.661
51303SOL     OW55747  12.143   3.325  13.565
51303SOL    HW155748  12.234   3.317  13.535
51303SOL    HW255749  12.151   3.336  13.660
51304SOL     OW55750   4.809   2.755   3.286
51304SOL    HW155751   4.731   2.781   3.336
51304SOL    HW255752   4.785   2.766   3.195
51305SOL     OW55753   9.155   2.704   4.567
51305SOL    HW155754   9.148   2.668   4.479
51305SOL    HW255755   9.182   2.630   4.622
51306SOL     OW55756   9.458  14.854  10.353
51306SOL    HW155757   9.441  14.807  10.271
51306SOL    HW255758   9.379  14.839  10.406
51307SOL     OW55759   8.107  10.651  10.997
51307SOL    HW155760   8.155  10.613  10.923
51307SOL    HW255761   8.115  10.585  11.066
51308SOL     OW55762   1.286   8.299   4.648
51308SOL    HW155763   1.365   8.312   4.595
51308SOL    HW255764   1.237   8.381   4.638
51309SOL     OW55765   2.889   0.397   6.707
51309SOL    HW155766   2.945   0.341   6.653
51309SOL    HW255767   2.934   0.401   6.791
51310SOL     OW55768  13.780   0.096   3.593
51310SOL    HW155769  13.699   0.147   3.594
51310SOL    HW255770  13.840   0.145   3.651
51311SOL     OW55771   1.607   8.629  14.132
51311SOL    HW155772   1.560   8.603  14.053
51311SOL    HW255773   1.663   8.554  14.152
51312SOL     OW55774   9.828   9.720  13.384
51312SOL    HW155775   9.837   9.625  13.370
51312SOL    HW255776   9.743   9.741  13.346
51313SOL     OW55777   9.263  13.085   1.268
51313SOL    HW155778   9.208  13.114   1.341
51313SOL    HW255779   9.290  13.166   1.225
51314SOL     OW55780  12.112   1.569   5.304
51314SOL    HW155781  12.196   1.541   5.267
51314SOL    HW255782  12.048   1.509   5.266
51315SOL     OW55783   5.157   9.210   6.666
51315SOL    HW155784   5.083   9.260   6.699
51315SOL    HW255785   5.156   9.226   6.571
51316SOL     OW55786  12.258  10.501   1.672
51316SOL    HW155787  12.247  10.407   1.653
51316SOL    HW255788  12.169  10.535   1.673
51317SOL     OW55789  13.921   7.307   3.476
51317SOL    HW155790  14.009   7.336   3.455
51317SOL    HW255791  13.869   7.329   3.399
51318SOL     OW55792   0.868   9.543  12.104
51318SOL    HW155793   0.847   9.589  12.022
51318SOL    HW255794   0.824   9.594  12.172
51319SOL     OW55795  11.627   2.066   5.158
51319SOL    HW155796  11.534   2.061   5.181
51319SOL    HW255797  11.665   2.126   5.223
51320SOL     OW55798  11.534  14.653   6.906
51320SOL    HW155799  11.575  14.567   6.916
51320SOL    HW255800  11.457  14.636   6.851
51321SOL     OW55801  11.237   2.518   4.958
51321SOL    HW155802  11.256   2.431   4.923
51321SOL    HW255803  11.166   2.551   4.903
51322SOL     OW55804   9.511  11.897   0.090
51322SOL    HW155805   9.493  11.984   0.125
51322SOL    HW255806   9.442  11.841   0.126
51323SOL     OW55807   9.086   4.932   0.862
51323SOL    HW155808   9.118   4.920   0.951
51323SOL    HW255809   9.045   5.019   0.863
51324SOL     OW55810  14.151   6.526   6.391
51324SOL    HW155811  14.212   6.591   6.425
51324SOL    HW255812  14.098   6.501   6.466
51325SOL     OW55813   6.585  11.486   8.685
51325SOL    HW155814   6.564  11.394   8.700
51325SOL    HW255815   6.627  11.515   8.766
51326SOL     OW55816   4.013   9.789   1.498
51326SOL    HW155817   3.964   9.782   1.416
51326SOL    HW255818   4.079   9.721   1.492
51327SOL     OW55819   9.305  12.598   5.273
51327SOL    HW155820   9.394  12.567   5.292
51327SOL    HW255821   9.312  12.639   5.187
51328SOL     OW55822  11.102   9.891   7.673
51328SOL    HW155823  11.025   9.859   7.719
51328SOL    HW255824  11.167   9.822   7.683
51329SOL     OW55825   7.038   9.476  13.984
51329SOL    HW155826   6.946   9.494  14.007
51329SOL    HW255827   7.088   9.508  14.059
51330SOL     OW55828   2.533   3.448  13.296
51330SOL    HW155829   2.457   3.398  13.267
51330SOL    HW255830   2.536   3.523  13.237
51331SOL     OW55831  11.121   5.339   0.063
51331SOL    HW155832  11.100   5.402  14.867
51331SOL    HW255833  11.216   5.345   0.073
51332SOL     OW55834   5.372   0.081   7.129
51332SOL    HW155835   5.381   0.177   7.125
51332SOL    HW255836   5.345   0.057   7.040
51333SOL     OW55837   5.639   0.345  10.222
51333SOL    HW155838   5.642   0.413  10.289
51333SOL    HW255839   5.664   0.390  10.141
51334SOL     OW55840   9.355  14.753   2.003
51334SOL    HW155841   9.422  14.817   1.979
51334SOL    HW255842   9.317  14.725   1.920
51335SOL     OW55843   4.548   7.541   4.401
51335SOL    HW155844   4.641   7.545   4.378
51335SOL    HW255845   4.542   7.594   4.481
51336SOL     OW55846  13.213  14.482  10.381
51336SOL    HW155847  13.128  14.518  10.407
51336SOL    HW255848  13.250  14.547  10.322
51337SOL     OW55849   0.222   8.161  12.928
51337SOL    HW155850   0.266   8.136  12.847
51337SOL    HW255851   0.290   8.202  12.981
51338SOL     OW55852   4.140   1.811   0.343
51338SOL    HW155853   4.044   1.807   0.345
51338SOL    HW255854   4.165   1.750   0.274
51339SOL     OW55855   8.874   7.993  13.898
51339SOL    HW155856   8.813   7.929  13.860
51339SOL    HW255857   8.821   8.072  13.909
51340SOL     OW55858   9.105   8.307  12.442
51340SOL    HW155859   9.129   8.250  12.515
51340SOL    HW255860   9.097   8.248  12.367
51341SOL     OW55861   9.791  12.835  10.152
51341SOL    HW155862   9.721  12.900  10.148
51341SOL    HW255863   9.800  12.814  10.245
51342SOL     OW55864   9.909   6.751   8.833
51342SOL    HW155865   9.910   6.774   8.926
51342SOL    HW255866   9.824   6.782   8.802
51343SOL     OW55867   3.638   2.732  12.924
51343SOL    HW155868   3.559   2.725  12.871
51343SOL    HW255869   3.607   2.748  13.013
51344SOL     OW55870   1.144   0.110   1.485
51344SOL    HW155871   1.166   0.030   1.532
51344SOL    HW255872   1.187   0.100   1.400
51345SOL     OW55873   7.952   6.203   6.261
51345SOL    HW155874   7.955   6.267   6.190
51345SOL    HW255875   7.898   6.132   6.227
51346SOL     OW55876  13.605  14.806   5.181
51346SOL    HW155877  13.634  14.844   5.099
51346SOL    HW255878  13.675  14.745   5.206
51347SOL     OW55879   4.925   5.815   3.072
51347SOL    HW155880   4.973   5.757   3.132
51347SOL    HW255881   4.988   5.834   3.003
51348SOL     OW55882  12.769  13.799   5.360
51348SOL    HW155883  12.675  13.788   5.351
51348SOL    HW255884  12.779  13.864   5.430
51349SOL     OW55885   7.422   9.524   6.907
51349SOL    HW155886   7.483   9.493   6.974
51349SOL    HW255887   7.341   9.476   6.925
51350SOL     OW55888   3.220  13.202   4.462
51350SOL    HW155889   3.147  13.179   4.405
51350SOL    HW255890   3.200  13.291   4.491
51351SOL     OW55891   9.743  12.437   8.911
51351SOL    HW155892   9.653  12.408   8.896
51351SOL    HW255893   9.738  12.532   8.913
51352SOL     OW55894  13.657   6.822   0.525
51352SOL    HW155895  13.583   6.815   0.586
51352SOL    HW255896  13.632   6.892   0.465
51353SOL     OW55897  12.288   0.395   0.179
51353SOL    HW155898  12.252   0.453   0.112
51353SOL    HW255899  12.313   0.453   0.251
51354SOL     OW55900   2.743   4.475   0.437
51354SOL    HW155901   2.817   4.416   0.455
51354SOL    HW255902   2.675   4.448   0.499
51355SOL     OW55903   6.553  12.638   1.662
51355SOL    HW155904   6.539  12.595   1.578
51355SOL    HW255905   6.482  12.607   1.718
51356SOL     OW55906   4.648   3.349  13.674
51356SOL    HW155907   4.568   3.305  13.644
51356SOL    HW255908   4.619   3.438  13.695
51357SOL     OW55909  13.728   4.669   2.866
51357SOL    HW155910  13.734   4.743   2.805
51357SOL    HW255911  13.816   4.661   2.904
51358SOL     OW55912   5.354  13.782   3.057
51358SOL    HW155913   5.320  13.694   3.071
51358SOL    HW255914   5.442  13.780   3.096
51359SOL     OW55915   0.296   4.525  12.060
51359SOL    HW155916   0.225   4.502  12.000
51359SOL    HW255917   0.376   4.508  12.011
51360SOL     OW55918  12.082   7.714   6.301
51360SOL    HW155919  12.148   7.680   6.240
51360SOL    HW255920  11.998   7.697   6.259
51361SOL     OW55921   7.237  11.664   2.098
51361SOL    HW155922   7.274  11.576   2.103
51361SOL    HW255923   7.232  11.683   2.004
51362SOL     OW55924   4.841   5.944  11.710
51362SOL    HW155925   4.776   6.008  11.681
51362SOL    HW255926   4.845   5.881  11.638
51363SOL     OW55927   2.219   7.028  12.201
51363SOL    HW155928   2.286   7.021  12.133
51363SOL    HW255929   2.258   7.083  12.268
51364SOL     OW55930  11.609   0.617   0.776
51364SOL    HW155931  11.677   0.673   0.813
51364SOL    HW255932  11.649   0.530   0.774
51365SOL     OW55933   6.942  13.354   9.456
51365SOL    HW155934   6.888  13.356   9.377
51365SOL    HW255935   6.891  13.303   9.519
51366SOL     OW55936   6.748   5.804   9.509
51366SOL    HW155937   6.752   5.709   9.494
51366SOL    HW255938   6.836   5.835   9.488
51367SOL     OW55939  13.995   6.130   0.995
51367SOL    HW155940  14.087   6.146   1.016
51367SOL    HW255941  13.995   6.049   0.944
51368SOL     OW55942   6.364   2.241  13.385
51368SOL    HW155943   6.403   2.154  13.390
51368SOL    HW255944   6.335   2.249  13.294
51369SOL     OW55945   8.123   9.766   4.489
51369SOL    HW155946   8.208   9.810   4.494
51369SOL    HW255947   8.124   9.720   4.406
51370SOL     OW55948  13.491   2.535  13.709
51370SOL    HW155949  13.497   2.582  13.626
51370SOL    HW255950  13.579   2.538  13.746
51371SOL     OW55951   3.398  12.548   3.362
51371SOL    HW155952   3.443  12.484   3.416
51371SOL    HW255953   3.332  12.498   3.314
51372SOL     OW55954   0.828   7.957  10.251
51372SOL    HW155955   0.794   7.904  10.179
51372SOL    HW255956   0.912   7.918  10.272
51373SOL     OW55957   3.908  10.476   4.794
51373SOL    HW155958   3.841  10.434   4.849
51373SOL    HW255959   3.902  10.569   4.817
51374SOL     OW55960   2.915  14.588   8.999
51374SOL    HW155961   3.001  14.631   9.005
51374SOL    HW255962   2.932  14.508   8.950
51375SOL     OW55963   5.904  13.183   3.700
51375SOL    HW155964   5.932  13.274   3.702
51375SOL    HW255965   5.817  13.186   3.660
51376SOL     OW55966  11.762   1.601   8.447
51376SOL    HW155967  11.726   1.688   8.432
51376SOL    HW255968  11.810   1.608   8.529
51377SOL     OW55969   5.496   6.833   9.888
51377SOL    HW155970   5.413   6.875   9.911
51377SOL    HW255971   5.558   6.905   9.881
51378SOL     OW55972   4.378   9.601   1.227
51378SOL    HW155973   4.472   9.582   1.230
51378SOL    HW255974   4.356   9.597   1.134
51379SOL     OW55975   3.192   1.926  12.861
51379SOL    HW155976   3.222   1.999  12.807
51379SOL    HW255977   3.266   1.908  12.920
51380SOL     OW55978  12.296   6.838   2.776
51380SOL    HW155979  12.313   6.769   2.840
51380SOL    HW255980  12.231   6.894   2.817
51381SOL     OW55981   8.899   8.620  11.840
51381SOL    HW155982   8.806   8.628  11.858
51381SOL    HW255983   8.941   8.632  11.925
51382SOL     OW55984   8.693   7.349   9.530
51382SOL    HW155985   8.743   7.311   9.603
51382SOL    HW255986   8.662   7.433   9.564
51383SOL     OW55987   4.008  13.038   7.197
51383SOL    HW155988   4.077  12.973   7.215
51383SOL    HW255989   4.030  13.071   7.110
51384SOL     OW55990   0.882   8.707  13.196
51384SOL    HW155991   0.880   8.773  13.266
51384SOL    HW255992   0.953   8.736  13.138
51385SOL     OW55993   9.461   3.118   2.751
51385SOL    HW155994   9.483   3.189   2.812
51385SOL    HW255995   9.508   3.042   2.786
51386SOL     OW55996   4.281   9.251   2.275
51386SOL    HW155997   4.223   9.179   2.300
51386SOL    HW255998   4.232   9.330   2.298
51387SOL     OW55999  11.115   5.632   4.759
51387SOL    HW156000  11.108   5.554   4.703
51387SOL    HW256001  11.095   5.600   4.847
51388SOL     OW56002   5.219   2.963   5.332
51388SOL    HW156003   5.172   3.021   5.272
51388SOL    HW256004   5.170   2.881   5.331
51389SOL     OW56005  13.745   9.084   3.161
51389SOL    HW156006  13.765   9.168   3.119
51389SOL    HW256007  13.654   9.093   3.189
51390SOL     OW56008   3.793  11.833  10.393
51390SOL    HW156009   3.721  11.887  10.426
51390SOL    HW256010   3.846  11.815  10.470
51391SOL     OW56011  14.253   8.652   6.814
51391SOL    HW156012  14.210   8.654   6.899
51391SOL    HW256013  14.296   8.566   6.811
51392SOL     OW56014   7.903  12.287  13.738
51392SOL    HW156015   7.996  12.295  13.715
51392SOL    HW256016   7.877  12.375  13.765
51393SOL     OW56017   5.087  13.815   5.914
51393SOL    HW156018   5.168  13.768   5.891
51393SOL    HW256019   5.018  13.766   5.870
51394SOL     OW56020  14.833  12.359   0.804
51394SOL    HW156021  14.854  12.288   0.743
51394SOL    HW256022   0.036  12.366   0.860
51395SOL     OW56023   8.198  10.641   1.701
51395SOL    HW156024   8.135  10.601   1.640
51395SOL    HW256025   8.144  10.673   1.774
51396SOL     OW56026   5.304  11.541  13.873
51396SOL    HW156027   5.249  11.615  13.846
51396SOL    HW256028   5.315  11.553  13.968
51397SOL     OW56029   4.175  10.668   5.591
51397SOL    HW156030   4.118  10.591   5.585
51397SOL    HW256031   4.199  10.686   5.501
51398SOL     OW56032   2.561   3.150   5.114
51398SOL    HW156033   2.517   3.109   5.040
51398SOL    HW256034   2.490   3.174   5.174
51399SOL     OW56035   2.419   7.838   5.359
51399SOL    HW156036   2.357   7.766   5.356
51399SOL    HW256037   2.385   7.902   5.296
51400SOL     OW56038  12.334   8.146   4.392
51400SOL    HW156039  12.258   8.112   4.344
51400SOL    HW256040  12.346   8.235   4.358
51401SOL     OW56041  10.463   0.115   0.863
51401SOL    HW156042  10.546   0.161   0.863
51401SOL    HW256043  10.486   0.023   0.847
51402SOL     OW56044  13.886  12.564   0.041
51402SOL    HW156045  13.912  12.576   0.132
51402SOL    HW256046  13.804  12.515   0.045
51403SOL     OW56047   6.821   5.168   8.959
51403SOL    HW156048   6.901   5.209   8.927
51403SOL    HW256049   6.841   5.141   9.048
51404SOL     OW56050   6.360   0.968  11.435
51404SOL    HW156051   6.408   0.909  11.493
51404SOL    HW256052   6.386   1.056  11.463
51405SOL     OW56053   0.337   1.814   5.818
51405SOL    HW156054   0.392   1.831   5.742
51405SOL    HW256055   0.255   1.781   5.783
51406SOL     OW56056   2.045   8.989  14.391
51406SOL    HW156057   1.993   8.931  14.335
51406SOL    HW256058   2.092   8.930  14.450
51407SOL     OW56059   3.279   1.032   7.988
51407SOL    HW156060   3.184   1.037   7.980
51407SOL    HW256061   3.308   1.123   7.982
51408SOL     OW56062  14.721   0.627   4.366
51408SOL    HW156063  14.657   0.618   4.296
51408SOL    HW256064  14.675   0.673   4.436
51409SOL     OW56065   1.445   7.938   5.818
51409SOL    HW156066   1.424   8.011   5.877
51409SOL    HW256067   1.361   7.915   5.777
51410SOL     OW56068   1.988   1.265   5.208
51410SOL    HW156069   2.075   1.231   5.227
51410SOL    HW256070   1.995   1.359   5.220
51411SOL     OW56071   0.544   7.898   1.940
51411SOL    HW156072   0.639   7.900   1.929
51411SOL    HW256073   0.519   7.990   1.945
51412SOL     OW56074   5.732  13.108   8.771
51412SOL    HW156075   5.814  13.137   8.730
51412SOL    HW256076   5.664  13.136   8.710
51413SOL     OW56077   2.022   9.372   2.285
51413SOL    HW156078   1.930   9.390   2.304
51413SOL    HW256079   2.048   9.440   2.223
51414SOL     OW56080  14.073  12.996   8.585
51414SOL    HW156081  14.145  13.057   8.570
51414SOL    HW256082  14.111  12.910   8.568
51415SOL     OW56083  14.635   8.596   2.955
51415SOL    HW156084  14.667   8.517   2.911
51415SOL    HW256085  14.634   8.663   2.886
51416SOL     OW56086   9.385   1.268   9.241
51416SOL    HW156087   9.294   1.296   9.247
51416SOL    HW256088   9.405   1.269   9.147
51417SOL     OW56089   3.218   0.266  14.263
51417SOL    HW156090   3.287   0.209  14.299
51417SOL    HW256091   3.262   0.314  14.192
51418SOL     OW56092   2.843   0.135   3.232
51418SOL    HW156093   2.766   0.186   3.206
51418SOL    HW256094   2.915   0.199   3.234
51419SOL     OW56095   1.246   9.074   2.145
51419SOL    HW156096   1.178   9.011   2.169
51419SOL    HW256097   1.214   9.158   2.178
51420SOL     OW56098   0.031  12.840   8.103
51420SOL    HW156099  14.862  12.764   8.063
51420SOL    HW256100   0.121  12.811   8.117
51421SOL     OW56101   5.158  12.026   2.110
51421SOL    HW156102   5.209  11.993   2.036
51421SOL    HW256103   5.157  12.121   2.099
51422SOL     OW56104   0.778  12.574  10.884
51422SOL    HW156105   0.735  12.616  10.958
51422SOL    HW256106   0.753  12.629  10.809
51423SOL     OW56107   3.073   0.854  13.114
51423SOL    HW156108   3.168   0.859  13.105
51423SOL    HW256109   3.040   0.909  13.043
51424SOL     OW56110  13.537   3.880   8.886
51424SOL    HW156111  13.483   3.947   8.927
51424SOL    HW256112  13.626   3.916   8.889
51425SOL     OW56113  10.728  10.396   8.127
51425SOL    HW156114  10.816  10.431   8.141
51425SOL    HW256115  10.727  10.314   8.176
51426SOL     OW56116   8.387  13.246   6.857
51426SOL    HW156117   8.336  13.177   6.900
51426SOL    HW256118   8.322  13.297   6.809
51427SOL     OW56119  13.034   3.341  11.242
51427SOL    HW156120  13.075   3.344  11.328
51427SOL    HW256121  13.104   3.315  11.183
51428SOL     OW56122  10.817   5.811   2.135
51428SOL    HW156123  10.756   5.757   2.185
51428SOL    HW256124  10.873   5.748   2.089
51429SOL     OW56125  12.382   7.347   7.365
51429SOL    HW156126  12.297   7.306   7.382
51429SOL    HW256127  12.361   7.427   7.317
51430SOL     OW56128   4.248   9.254   8.139
51430SOL    HW156129   4.276   9.280   8.226
51430SOL    HW256130   4.212   9.333   8.100
51431SOL     OW56131   1.490   5.624   5.983
51431SOL    HW156132   1.427   5.554   5.969
51431SOL    HW256133   1.506   5.624   6.077
51432SOL     OW56134  13.287  12.456  11.300
51432SOL    HW156135  13.235  12.529  11.336
51432SOL    HW256136  13.294  12.477  11.207
51433SOL     OW56137  14.156   5.092  13.753
51433SOL    HW156138  14.219   5.127  13.691
51433SOL    HW256139  14.109   5.024  13.704
51434SOL     OW56140   6.979  11.914  14.044
51434SOL    HW156141   6.987  11.917  13.949
51434SOL    HW256142   6.962  11.822  14.064
51435SOL     OW56143   9.144  13.298   3.372
51435SOL    HW156144   9.070  13.355   3.394
51435SOL    HW256145   9.140  13.288   3.277
51436SOL     OW56146  14.407  12.976  14.703
51436SOL    HW156147  14.330  12.942  14.748
51436SOL    HW256148  14.428  13.057  14.750
51437SOL     OW56149   6.308   2.083   6.289
51437SOL    HW156150   6.299   2.175   6.316
51437SOL    HW256151   6.361   2.043   6.358
51438SOL     OW56152  12.270   9.823   1.001
51438SOL    HW156153  12.280   9.776   0.918
51438SOL    HW256154  12.357   9.859   1.019
51439SOL     OW56155   5.440   9.257  13.798
51439SOL    HW156156   5.383   9.274  13.874
51439SOL    HW256157   5.501   9.330  13.796
51440SOL     OW56158  13.630  12.737   5.262
51440SOL    HW156159  13.646  12.647   5.233
51440SOL    HW256160  13.691  12.790   5.210
51441SOL     OW56161   0.021   2.464   9.481
51441SOL    HW156162   0.030   2.378   9.521
51441SOL    HW256163  14.821   2.504   9.526
51442SOL     OW56164   8.959   5.757   4.668
51442SOL    HW156165   8.932   5.668   4.688
51442SOL    HW256166   8.877   5.805   4.657
51443SOL     OW56167   6.092  14.004   3.178
51443SOL    HW156168   6.093  14.100   3.182
51443SOL    HW256169   6.123  13.976   3.264
51444SOL     OW56170   6.082   4.848   3.568
51444SOL    HW156171   6.045   4.916   3.512
51444SOL    HW256172   6.169   4.880   3.589
51445SOL     OW56173   7.773   1.584   0.631
51445SOL    HW156174   7.828   1.604   0.555
51445SOL    HW256175   7.690   1.628   0.613
51446SOL     OW56176   4.034   7.903   2.751
51446SOL    HW156177   3.989   7.983   2.722
51446SOL    HW256178   4.127   7.921   2.738
51447SOL     OW56179   0.988  10.767  13.458
51447SOL    HW156180   1.080  10.791  13.464
51447SOL    HW256181   0.955  10.774  13.547
51448SOL     OW56182   5.873  13.220   5.521
51448SOL    HW156183   5.952  13.239   5.572
51448SOL    HW256184   5.826  13.154   5.573
51449SOL     OW56185  10.681   1.131   2.398
51449SOL    HW156186  10.702   1.044   2.364
51449SOL    HW256187  10.592   1.122   2.433
51450SOL     OW56188   1.580   9.027   2.530
51450SOL    HW156189   1.605   9.118   2.540
51450SOL    HW256190   1.617   9.001   2.445
51451SOL     OW56191   3.636  12.344   7.799
51451SOL    HW156192   3.547  12.311   7.813
51451SOL    HW256193   3.670  12.293   7.725
51452SOL     OW56194   9.150   8.197  10.292
51452SOL    HW156195   9.208   8.272  10.279
51452SOL    HW256196   9.112   8.211  10.379
51453SOL     OW56197   9.635   8.603   6.249
51453SOL    HW156198   9.631   8.699   6.247
51453SOL    HW256199   9.576   8.576   6.179
51454SOL     OW56200  12.459   2.793   4.195
51454SOL    HW156201  12.508   2.723   4.238
51454SOL    HW256202  12.500   2.803   4.110
51455SOL     OW56203  14.353   3.258   4.385
51455SOL    HW156204  14.427   3.201   4.408
51455SOL    HW256205  14.275   3.203   4.398
51456SOL     OW56206   2.004   9.527  10.829
51456SOL    HW156207   2.075   9.568  10.780
51456SOL    HW256208   1.933   9.591  10.828
51457SOL     OW56209   5.610  13.194   3.019
51457SOL    HW156210   5.664  13.221   2.945
51457SOL    HW256211   5.575  13.109   2.993
51458SOL     OW56212   3.352   9.162   0.331
51458SOL    HW156213   3.312   9.192   0.412
51458SOL    HW256214   3.308   9.212   0.262
51459SOL     OW56215   2.139   8.606  13.799
51459SOL    HW156216   2.111   8.621  13.890
51459SOL    HW256217   2.117   8.514  13.783
51460SOL     OW56218   9.541   7.096   1.904
51460SOL    HW156219   9.446   7.103   1.916
51460SOL    HW256220   9.572   7.046   1.979
51461SOL     OW56221   7.560   6.276   5.635
51461SOL    HW156222   7.491   6.247   5.575
51461SOL    HW256223   7.540   6.232   5.718
51462SOL     OW56224   7.078   1.199   3.712
51462SOL    HW156225   7.025   1.249   3.774
51462SOL    HW256226   7.163   1.189   3.755
51463SOL     OW56227  11.427   3.603   2.969
51463SOL    HW156228  11.503   3.576   3.022
51463SOL    HW256229  11.447   3.692   2.941
51464SOL     OW56230  10.352  13.152   7.854
51464SOL    HW156231  10.350  13.200   7.772
51464SOL    HW256232  10.441  13.165   7.888
51465SOL     OW56233   1.099   3.533   9.793
51465SOL    HW156234   1.145   3.537   9.709
51465SOL    HW256235   1.060   3.619   9.804
51466SOL     OW56236   8.630   8.402   2.386
51466SOL    HW156237   8.594   8.327   2.435
51466SOL    HW256238   8.674   8.362   2.312
51467SOL     OW56239  13.980  10.976   2.761
51467SOL    HW156240  13.932  11.057   2.744
51467SOL    HW256241  13.986  10.934   2.675
51468SOL     OW56242  13.228  12.607  10.167
51468SOL    HW156243  13.222  12.538  10.233
51468SOL    HW256244  13.149  12.660  10.181
51469SOL     OW56245   8.820   1.349   7.416
51469SOL    HW156246   8.863   1.401   7.483
51469SOL    HW256247   8.734   1.329   7.452
51470SOL     OW56248   0.036   9.715   7.269
51470SOL    HW156249   0.062   9.647   7.332
51470SOL    HW256250   0.037   9.796   7.320
51471SOL     OW56251  10.859   4.385  13.947
51471SOL    HW156252  10.950   4.369  13.974
51471SOL    HW256253  10.843   4.320  13.878
51472SOL     OW56254  13.577  12.446   4.552
51472SOL    HW156255  13.501  12.404   4.593
51472SOL    HW256256  13.652  12.412   4.602
51473SOL     OW56257  11.770   8.270   4.268
51473SOL    HW156258  11.843   8.321   4.302
51473SOL    HW256259  11.809   8.186   4.244
51474SOL     OW56260  11.869   1.466   8.055
51474SOL    HW156261  11.789   1.515   8.073
51474SOL    HW256262  11.928   1.488   8.127
51475SOL     OW56263  13.917   9.813   5.873
51475SOL    HW156264  13.846   9.828   5.935
51475SOL    HW256265  13.906   9.722   5.846
51476SOL     OW56266   1.266   5.248  12.739
51476SOL    HW156267   1.356   5.257  12.769
51476SOL    HW256268   1.254   5.320  12.676
51477SOL     OW56269  13.918   6.490   4.277
51477SOL    HW156270  13.865   6.494   4.198
51477SOL    HW256271  13.980   6.563   4.268
51478SOL     OW56272  12.580   4.028   6.209
51478SOL    HW156273  12.671   4.052   6.225
51478SOL    HW256274  12.585   3.947   6.158
51479SOL     OW56275   3.013   0.204   4.173
51479SOL    HW156276   2.947   0.135   4.179
51479SOL    HW256277   3.066   0.193   4.252
51480SOL     OW56278   1.276   7.089   1.120
51480SOL    HW156279   1.213   7.115   1.053
51480SOL    HW256280   1.360   7.121   1.089
51481SOL     OW56281   8.600  10.719   4.831
51481SOL    HW156282   8.684  10.673   4.830
51481SOL    HW256283   8.538  10.655   4.867
51482SOL     OW56284   0.958   0.528   1.401
51482SOL    HW156285   0.939   0.450   1.453
51482SOL    HW256286   0.975   0.494   1.313
51483SOL     OW56287  11.034   3.283  13.816
51483SOL    HW156288  10.938   3.287  13.820
51483SOL    HW256289  11.061   3.375  13.816
51484SOL     OW56290   6.765   4.474  13.561
51484SOL    HW156291   6.830   4.543  13.573
51484SOL    HW256292   6.744   4.446  13.650
51485SOL     OW56293   5.424   5.836   9.759
51485SOL    HW156294   5.437   5.867   9.848
51485SOL    HW256295   5.502   5.783   9.740
51486SOL     OW56296   7.581   4.580   5.427
51486SOL    HW156297   7.493   4.610   5.404
51486SOL    HW256298   7.639   4.623   5.365
51487SOL     OW56299   1.012  12.243   5.613
51487SOL    HW156300   0.952  12.173   5.641
51487SOL    HW256301   1.007  12.241   5.517
51488SOL     OW56302  13.617   8.521  10.577
51488SOL    HW156303  13.666   8.595  10.614
51488SOL    HW256304  13.657   8.444  10.616
51489SOL     OW56305  10.541   8.641   8.363
51489SOL    HW156306  10.602   8.692   8.417
51489SOL    HW256307  10.538   8.556   8.405
51490SOL     OW56308   3.075   1.586   2.969
51490SOL    HW156309   3.094   1.657   2.908
51490SOL    HW256310   3.012   1.624   3.031
51491SOL     OW56311   7.917   7.723   8.122
51491SOL    HW156312   7.947   7.804   8.080
51491SOL    HW256313   7.891   7.667   8.049
51492SOL     OW56314  14.458   9.188   7.096
51492SOL    HW156315  14.501   9.213   7.014
51492SOL    HW256316  14.384   9.249   7.103
51493SOL     OW56317   0.248   0.514  12.514
51493SOL    HW156318   0.175   0.570  12.487
51493SOL    HW256319   0.221   0.479  12.599
51494SOL     OW56320   7.414  10.818   1.937
51494SOL    HW156321   7.414  10.788   1.846
51494SOL    HW256322   7.326  10.796   1.969
51495SOL     OW56323  10.748  11.131   3.827
51495SOL    HW156324  10.666  11.088   3.849
51495SOL    HW256325  10.753  11.206   3.887
51496SOL     OW56326   4.851   4.729  10.089
51496SOL    HW156327   4.883   4.657  10.143
51496SOL    HW256328   4.794   4.779  10.148
51497SOL     OW56329   6.455  10.286  13.588
51497SOL    HW156330   6.520  10.238  13.537
51497SOL    HW256331   6.462  10.250  13.676
51498SOL     OW56332   9.801  13.080  12.747
51498SOL    HW156333   9.800  13.175  12.751
51498SOL    HW256334   9.889  13.057  12.718
51499SOL     OW56335   5.812   8.811  13.871
51499SOL    HW156336   5.752   8.886  13.864
51499SOL    HW256337   5.785   8.753  13.800
51500SOL     OW56338   1.272  13.938   6.434
51500SOL    HW156339   1.255  13.847   6.412
51500SOL    HW256340   1.202  13.987   6.390
51501SOL     OW56341   1.375   6.113   6.054
51501SOL    HW156342   1.458   6.131   6.097
51501SOL    HW256343   1.328   6.196   6.057
51502SOL     OW56344   4.738   2.374   6.588
51502SOL    HW156345   4.810   2.401   6.531
51502SOL    HW256346   4.735   2.278   6.578
51503SOL     OW56347   3.308   5.769  13.208
51503SOL    HW156348   3.257   5.804  13.134
51503SOL    HW256349   3.357   5.845  13.241
51504SOL     OW56350   0.003   9.463  10.938
51504SOL    HW156351  14.854   9.452  10.846
51504SOL    HW256352  14.852   9.380  10.979
51505SOL     OW56353   0.515  12.140   5.471
51505SOL    HW156354   0.469  12.219   5.501
51505SOL    HW256355   0.595  12.173   5.431
51506SOL     OW56356   7.841   1.017   1.166
51506SOL    HW156357   7.893   0.943   1.196
51506SOL    HW256358   7.904   1.077   1.127
51507SOL     OW56359   8.396   5.978  14.222
51507SOL    HW156360   8.448   5.987  14.302
51507SOL    HW256361   8.367   5.887  14.222
51508SOL     OW56362   7.040  11.927  13.073
51508SOL    HW156363   7.123  11.881  13.066
51508SOL    HW256364   7.037  11.959  13.163
51509SOL     OW56365   1.636   6.093   5.446
51509SOL    HW156366   1.600   6.137   5.523
51509SOL    HW256367   1.602   6.003   5.453
51510SOL     OW56368  10.060   9.944  14.030
51510SOL    HW156369  10.133   9.981  14.080
51510SOL    HW256370  10.070   9.980  13.942
51511SOL     OW56371  11.210   1.570   4.708
51511SOL    HW156372  11.225   1.477   4.689
51511SOL    HW256373  11.282   1.594   4.765
51512SOL     OW56374   2.122   0.478   4.000
51512SOL    HW156375   2.149   0.564   3.968
51512SOL    HW256376   2.160   0.416   3.938
51513SOL     OW56377   9.561   2.520  11.326
51513SOL    HW156378   9.469   2.533  11.301
51513SOL    HW256379   9.588   2.605  11.361
51514SOL     OW56380   5.593  10.980   2.831
51514SOL    HW156381   5.574  11.040   2.904
51514SOL    HW256382   5.685  10.958   2.840
51515SOL     OW56383   4.846   6.855   7.730
51515SOL    HW156384   4.839   6.867   7.635
51515SOL    HW256385   4.829   6.762   7.743
51516SOL     OW56386   1.321   5.288   1.957
51516SOL    HW156387   1.389   5.232   1.994
51516SOL    HW256388   1.293   5.344   2.030
51517SOL     OW56389   5.090   0.882   6.756
51517SOL    HW156390   5.074   0.915   6.667
51517SOL    HW256391   5.039   0.801   6.761
51518SOL     OW56392  11.231   5.338  13.721
51518SOL    HW156393  11.268   5.293  13.645
51518SOL    HW256394  11.177   5.271  13.764
51519SOL     OW56395   4.168   9.422  13.904
51519SOL    HW156396   4.240   9.475  13.868
51519SOL    HW256397   4.201   9.332  13.901
51520SOL     OW56398   6.039   2.238  12.879
51520SOL    HW156399   5.966   2.233  12.818
51520SOL    HW256400   6.095   2.307  12.844
51521SOL     OW56401   1.549   2.109   1.539
51521SOL    HW156402   1.634   2.113   1.495
51521SOL    HW256403   1.498   2.046   1.487
51522SOL     OW56404   3.863  11.861   1.345
51522SOL    HW156405   3.894  11.941   1.303
51522SOL    HW256406   3.895  11.867   1.435
51523SOL     OW56407   6.701  10.333   9.307
51523SOL    HW156408   6.668  10.417   9.277
51523SOL    HW256409   6.795  10.335   9.289
51524SOL     OW56410   3.012   5.839   5.354
51524SOL    HW156411   2.965   5.921   5.336
51524SOL    HW256412   2.944   5.772   5.355
51525SOL     OW56413   5.326  11.486   2.216
51525SOL    HW156414   5.348  11.520   2.129
51525SOL    HW256415   5.240  11.523   2.235
51526SOL     OW56416   3.892   6.563  10.572
51526SOL    HW156417   3.939   6.511  10.638
51526SOL    HW256418   3.838   6.623  10.623
51527SOL     OW56419  10.166  12.438   9.954
51527SOL    HW156420  10.189  12.512   9.897
51527SOL    HW256421  10.242  12.425  10.009
51528SOL     OW56422   6.064   8.929   8.503
51528SOL    HW156423   6.092   8.858   8.444
51528SOL    HW256424   6.116   9.004   8.476
51529SOL     OW56425  14.585  14.626   0.924
51529SOL    HW156426  14.525  14.615   0.998
51529SOL    HW256427  14.599  14.537   0.891
51530SOL     OW56428  12.441  13.521   8.401
51530SOL    HW156429  12.435  13.616   8.400
51530SOL    HW256430  12.373  13.492   8.340
51531SOL     OW56431   4.401  11.901  11.280
51531SOL    HW156432   4.393  11.986  11.322
51531SOL    HW256433   4.348  11.908  11.201
51532SOL     OW56434  13.094  14.172   9.220
51532SOL    HW156435  13.028  14.170   9.151
51532SOL    HW256436  13.166  14.223   9.183
51533SOL     OW56437   0.788   6.822   3.063
51533SOL    HW156438   0.737   6.859   3.136
51533SOL    HW256439   0.738   6.843   2.985
51534SOL     OW56440   9.982   7.069  11.040
51534SOL    HW156441   9.889   7.078  11.017
51534SOL    HW256442  10.005   7.154  11.078
51535SOL     OW56443   1.603   1.103   4.462
51535SOL    HW156444   1.647   1.026   4.497
51535SOL    HW256445   1.670   1.171   4.460
51536SOL     OW56446   7.449  10.776   9.440
51536SOL    HW156447   7.491  10.700   9.481
51536SOL    HW256448   7.374  10.739   9.394
51537SOL     OW56449   6.554   0.690  11.081
51537SOL    HW156450   6.638   0.736  11.080
51537SOL    HW256451   6.571   0.608  11.035
51538SOL     OW56452  11.068   6.165   6.695
51538SOL    HW156453  11.124   6.088   6.687
51538SOL    HW256454  11.127   6.235   6.724
51539SOL     OW56455   5.104   2.942  12.248
51539SOL    HW156456   5.151   3.021  12.274
51539SOL    HW256457   5.172   2.885  12.212
51540SOL     OW56458   4.533  13.236  11.618
51540SOL    HW156459   4.558  13.187  11.540
51540SOL    HW256460   4.548  13.176  11.690
51541SOL     OW56461   9.154   6.586  12.748
51541SOL    HW156462   9.161   6.513  12.685
51541SOL    HW256463   9.198   6.554  12.826
51542SOL     OW56464   9.030  12.044   1.532
51542SOL    HW156465   9.088  12.119   1.522
51542SOL    HW256466   8.988  12.035   1.446
51543SOL     OW56467   9.841   2.700   8.929
51543SOL    HW156468   9.932   2.728   8.941
51543SOL    HW256469   9.802   2.707   9.016
51544SOL     OW56470   9.630   6.206  10.098
51544SOL    HW156471   9.686   6.131  10.080
51544SOL    HW256472   9.558   6.199  10.036
51545SOL     OW56473  12.517  10.905   5.283
51545SOL    HW156474  12.574  10.842   5.237
51545SOL    HW256475  12.517  10.875   5.374
51546SOL     OW56476  13.084  13.313   2.103
51546SOL    HW156477  13.150  13.249   2.130
51546SOL    HW256478  13.075  13.300   2.008
51547SOL     OW56479  14.411   6.870   4.861
51547SOL    HW156480  14.373   6.863   4.774
51547SOL    HW256481  14.465   6.791   4.870
51548SOL     OW56482  14.036   2.644   6.782
51548SOL    HW156483  14.018   2.738   6.775
51548SOL    HW256484  14.106   2.638   6.846
51549SOL     OW56485  10.938   0.200   4.925
51549SOL    HW156486  10.902   0.228   5.009
51549SOL    HW256487  10.898   0.114   4.910
51550SOL     OW56488  14.600   2.279   3.007
51550SOL    HW156489  14.511   2.249   3.025
51550SOL    HW256490  14.589   2.344   2.938
51551SOL     OW56491   4.171   9.225   5.404
51551SOL    HW156492   4.244   9.192   5.351
51551SOL    HW256493   4.101   9.240   5.341
51552SOL     OW56494  10.562   9.719  14.003
51552SOL    HW156495  10.498   9.731  13.932
51552SOL    HW256496  10.629   9.785  13.986
51553SOL     OW56497   7.608   3.563  11.614
51553SOL    HW156498   7.680   3.623  11.593
51553SOL    HW256499   7.581   3.589  11.702
51554SOL     OW56500  14.755   7.730  14.656
51554SOL    HW156501  14.737   7.823  14.639
51554SOL    HW256502  14.812   7.704  14.584
51555SOL     OW56503   0.610  10.777   8.272
51555SOL    HW156504   0.648  10.858   8.306
51555SOL    HW256505   0.666  10.754   8.198
51556SOL     OW56506   6.977   7.419   4.266
51556SOL    HW156507   6.975   7.385   4.356
51556SOL    HW256508   7.058   7.383   4.229
51557SOL     OW56509   9.234  13.307  11.033
51557SOL    HW156510   9.247  13.240  11.100
51557SOL    HW256511   9.139  13.319  11.028
51558SOL     OW56512   6.097   5.689   7.563
51558SOL    HW156513   6.040   5.696   7.640
51558SOL    HW256514   6.185   5.683   7.599
51559SOL     OW56515   1.667   0.200  12.621
51559SOL    HW156516   1.758   0.207  12.649
51559SOL    HW256517   1.621   0.268  12.670
51560SOL     OW56518   1.257   2.092   3.494
51560SOL    HW156519   1.172   2.046   3.494
51560SOL    HW256520   1.235   2.181   3.522
51561SOL     OW56521  12.417   2.912   0.485
51561SOL    HW156522  12.458   2.845   0.540
51561SOL    HW256523  12.379   2.974   0.547
51562SOL     OW56524   9.222   3.402  12.725
51562SOL    HW156525   9.153   3.382  12.789
51562SOL    HW256526   9.283   3.459  12.772
51563SOL     OW56527   7.265  12.758   8.379
51563SOL    HW156528   7.231  12.669   8.369
51563SOL    HW256529   7.349  12.748   8.424
51564SOL     OW56530   3.127   8.996  13.002
51564SOL    HW156531   3.122   9.089  12.979
51564SOL    HW256532   3.220   8.975  12.997
51565SOL     OW56533   6.687  12.077  10.505
51565SOL    HW156534   6.611  12.049  10.556
51565SOL    HW256535   6.701  12.006  10.442
51566SOL     OW56536  14.146  11.687  13.380
51566SOL    HW156537  14.204  11.734  13.320
51566SOL    HW256538  14.063  11.735  13.377
51567SOL     OW56539  14.443   9.436   3.125
51567SOL    HW156540  14.533   9.469   3.116
51567SOL    HW256541  14.430   9.428   3.219
51568SOL     OW56542   3.441   7.546   9.771
51568SOL    HW156543   3.512   7.481   9.773
51568SOL    HW256544   3.366   7.499   9.808
51569SOL     OW56545   2.175  12.188   6.163
51569SOL    HW156546   2.084  12.172   6.139
51569SOL    HW256547   2.182  12.283   6.171
51570SOL     OW56548   6.243   7.675   2.348
51570SOL    HW156549   6.234   7.591   2.302
51570SOL    HW256550   6.336   7.697   2.339
51571SOL     OW56551  10.373   5.529   7.547
51571SOL    HW156552  10.359   5.475   7.469
51571SOL    HW256553  10.469   5.531   7.557
51572SOL     OW56554  13.625   9.092   9.974
51572SOL    HW156555  13.530   9.096   9.970
51572SOL    HW256556  13.649   9.019   9.916
51573SOL     OW56557   9.713  14.361  13.580
51573SOL    HW156558   9.756  14.304  13.644
51573SOL    HW256559   9.694  14.304  13.505
51574SOL     OW56560  12.251   6.897  11.991
51574SOL    HW156561  12.310   6.837  11.945
51574SOL    HW256562  12.173   6.844  12.010
51575SOL     OW56563   0.871   6.506   9.949
51575SOL    HW156564   0.955   6.493   9.992
51575SOL    HW256565   0.824   6.568  10.005
51576SOL     OW56566   5.486  11.150  13.356
51576SOL    HW156567   5.535  11.151  13.439
51576SOL    HW256568   5.478  11.242  13.331
51577SOL     OW56569   8.372  11.270  14.001
51577SOL    HW156570   8.372  11.303  13.912
51577SOL    HW256571   8.465  11.266  14.025
51578SOL     OW56572   2.936   3.394  14.804
51578SOL    HW156573   3.005   3.457  14.822
51578SOL    HW256574   2.916   3.406  14.711
51579SOL     OW56575   4.100   6.712   5.687
51579SOL    HW156576   4.184   6.721   5.733
51579SOL    HW256577   4.061   6.633   5.724
51580SOL     OW56578   2.537   4.529  11.618
51580SOL    HW156579   2.616   4.580  11.633
51580SOL    HW256580   2.466   4.584  11.649
51581SOL     OW56581  14.756   9.772   6.001
51581SOL    HW156582  14.747   9.691   5.952
51581SOL    HW256583  14.702   9.760   6.079
51582SOL     OW56584   6.599   2.188  13.147
51582SOL    HW156585   6.675   2.239  13.174
51582SOL    HW256586   6.626   2.147  13.065
51583SOL     OW56587   9.809   4.704  11.129
51583SOL    HW156588   9.760   4.775  11.087
51583SOL    HW256589   9.899   4.735  11.132
51584SOL     OW56590   8.639   7.056  11.160
51584SOL    HW156591   8.663   7.015  11.243
51584SOL    HW256592   8.650   6.986  11.095
51585SOL     OW56593   7.172   9.633   3.562
51585SOL    HW156594   7.115   9.710   3.574
51585SOL    HW256595   7.191   9.604   3.650
51586SOL     OW56596  14.352   1.535  14.040
51586SOL    HW156597  14.276   1.478  14.038
51586SOL    HW256598  14.341   1.588  14.119
51587SOL     OW56599   8.516   1.645  10.735
51587SOL    HW156600   8.496   1.703  10.809
51587SOL    HW256601   8.532   1.705  10.662
51588SOL     OW56602  13.303   8.843   2.241
51588SOL    HW156603  13.213   8.867   2.219
51588SOL    HW256604  13.336   8.801   2.162
51589SOL     OW56605  12.285   1.689   1.202
51589SOL    HW156606  12.206   1.734   1.232
51589SOL    HW256607  12.274   1.598   1.231
51590SOL     OW56608   8.215   2.631   3.258
51590SOL    HW156609   8.139   2.609   3.311
51590SOL    HW256610   8.178   2.662   3.175
51591SOL     OW56611   9.461  10.359   1.219
51591SOL    HW156612   9.415  10.277   1.204
51591SOL    HW256613   9.391  10.421   1.242
51592SOL     OW56614  10.450  11.708   5.233
51592SOL    HW156615  10.491  11.665   5.308
51592SOL    HW256616  10.523  11.734   5.177
51593SOL     OW56617   3.122  14.370   9.390
51593SOL    HW156618   3.107  14.464   9.398
51593SOL    HW256619   3.064  14.343   9.319
51594SOL     OW56620   8.063   1.374   7.450
51594SOL    HW156621   8.012   1.354   7.371
51594SOL    HW256622   7.997   1.389   7.518
51595SOL     OW56623  11.808   6.713  12.583
51595SOL    HW156624  11.809   6.637  12.526
51595SOL    HW256625  11.835   6.786  12.527
51596SOL     OW56626   1.442   1.688  11.295
51596SOL    HW156627   1.407   1.678  11.207
51596SOL    HW256628   1.531   1.722  11.283
51597SOL     OW56629  11.913  14.829  10.786
51597SOL    HW156630  11.902   0.040  10.743
51597SOL    HW256631  11.919  14.850  10.879
51598SOL     OW56632   9.373  10.156   0.455
51598SOL    HW156633   9.281  10.184   0.454
51598SOL    HW256634   9.380  10.100   0.533
51599SOL     OW56635   8.916   2.400   7.367
51599SOL    HW156636   8.946   2.481   7.326
51599SOL    HW256637   8.982   2.382   7.434
51600SOL     OW56638   9.251   4.432   1.876
51600SOL    HW156639   9.203   4.469   1.802
51600SOL    HW256640   9.322   4.494   1.892
51601SOL     OW56641  11.354  11.043   3.262
51601SOL    HW156642  11.357  11.132   3.299
51601SOL    HW256643  11.441  11.007   3.282
51602SOL     OW56644   7.038   9.078  12.958
51602SOL    HW156645   7.013   9.004  13.015
51602SOL    HW256646   6.989   9.063  12.878
51603SOL     OW56647   8.954  12.873   3.945
51603SOL    HW156648   8.969  12.781   3.964
51603SOL    HW256649   9.038  12.905   3.914
51604SOL     OW56650   4.151  14.133  11.342
51604SOL    HW156651   4.219  14.140  11.276
51604SOL    HW256652   4.139  14.222  11.375
51605SOL     OW56653   3.944   7.636   0.879
51605SOL    HW156654   4.033   7.617   0.910
51605SOL    HW256655   3.956   7.660   0.787
51606SOL     OW56656   5.923   6.030  10.678
51606SOL    HW156657   5.913   5.936  10.693
51606SOL    HW256658   5.835   6.061  10.658
51607SOL     OW56659  10.096  10.342   7.806
51607SOL    HW156660  10.042  10.283   7.753
51607SOL    HW256661  10.034  10.383   7.866
51608SOL     OW56662  10.105   6.659  11.957
51608SOL    HW156663  10.193   6.622  11.963
51608SOL    HW256664  10.053   6.608  12.019
51609SOL     OW56665  11.232   8.099   7.848
51609SOL    HW156666  11.228   8.029   7.914
51609SOL    HW256667  11.226   8.053   7.764
51610SOL     OW56668   7.162   4.656   6.183
51610SOL    HW156669   7.227   4.700   6.238
51610SOL    HW256670   7.089   4.640   6.242
51611SOL     OW56671   8.298   6.731   3.748
51611SOL    HW156672   8.375   6.786   3.763
51611SOL    HW256673   8.240   6.784   3.694
51612SOL     OW56674  10.089  10.577   8.184
51612SOL    HW156675  10.162  10.636   8.170
51612SOL    HW256676  10.123  10.510   8.244
51613SOL     OW56677  14.195   5.864   7.469
51613SOL    HW156678  14.148   5.832   7.546
51613SOL    HW256679  14.278   5.816   7.470
51614SOL     OW56680  13.231   8.855   5.995
51614SOL    HW156681  13.141   8.832   6.017
51614SOL    HW256682  13.266   8.777   5.951
51615SOL     OW56683  13.349  12.215   8.985
51615SOL    HW156684  13.438  12.232   9.015
51615SOL    HW256685  13.350  12.123   8.959
51616SOL     OW56686   5.974   1.934  13.893
51616SOL    HW156687   5.894   1.983  13.872
51616SOL    HW256688   5.977   1.865  13.827
51617SOL     OW56689   9.398   2.258  11.953
51617SOL    HW156690   9.427   2.216  12.034
51617SOL    HW256691   9.391   2.350  11.975
51618SOL     OW56692   7.927   7.642   4.457
51618SOL    HW156693   7.957   7.559   4.420
51618SOL    HW256694   7.837   7.624   4.485
51619SOL     OW56695   8.909   8.214   1.092
51619SOL    HW156696   8.890   8.199   0.999
51619SOL    HW256697   8.845   8.161   1.139
51620SOL     OW56698   8.875  10.316   0.846
51620SOL    HW156699   8.930  10.258   0.898
51620SOL    HW256700   8.875  10.278   0.758
51621SOL     OW56701  13.609   0.484   8.504
51621SOL    HW156702  13.681   0.422   8.491
51621SOL    HW256703  13.557   0.478   8.424
51622SOL     OW56704   3.129   6.860   4.698
51622SOL    HW156705   3.077   6.916   4.755
51622SOL    HW256706   3.140   6.910   4.617
51623SOL     OW56707  14.376  13.831   6.648
51623SOL    HW156708  14.395  13.925   6.644
51623SOL    HW256709  14.462  13.789   6.643
51624SOL     OW56710   8.764   1.893   3.716
51624SOL    HW156711   8.780   1.955   3.787
51624SOL    HW256712   8.673   1.907   3.692
51625SOL     OW56713   4.700  10.374  11.534
51625SOL    HW156714   4.625  10.423  11.567
51625SOL    HW256715   4.765  10.379  11.604
51626SOL     OW56716   2.829   8.919  12.956
51626SOL    HW156717   2.765   8.961  12.899
51626SOL    HW256718   2.898   8.888  12.897
51627SOL     OW56719  10.226   9.932   8.094
51627SOL    HW156720  10.207   9.958   8.004
51627SOL    HW256721  10.271  10.008   8.132
51628SOL     OW56722  10.027   4.812   2.805
51628SOL    HW156723  10.045   4.726   2.768
51628SOL    HW256724   9.990   4.794   2.891
51629SOL     OW56725   0.878   2.530  14.386
51629SOL    HW156726   0.952   2.586  14.409
51629SOL    HW256727   0.918   2.447  14.359
51630SOL     OW56728  12.032  14.409  10.246
51630SOL    HW156729  11.990  14.374  10.168
51630SOL    HW256730  12.080  14.486  10.215
51631SOL     OW56731  11.131  13.062   8.929
51631SOL    HW156732  11.043  13.053   8.965
51631SOL    HW256733  11.189  13.040   9.001
51632SOL     OW56734  13.812  13.509  10.570
51632SOL    HW156735  13.852  13.440  10.624
51632SOL    HW256736  13.768  13.462  10.499
51633SOL     OW56737  13.710   2.094  11.786
51633SOL    HW156738  13.696   2.188  11.786
51633SOL    HW256739  13.622   2.057  11.771
51634SOL     OW56740   8.330   9.890   7.549
51634SOL    HW156741   8.392   9.953   7.513
51634SOL    HW256742   8.301   9.840   7.473
51635SOL     OW56743   2.988   3.294   6.955
51635SOL    HW156744   2.920   3.285   7.022
51635SOL    HW256745   2.947   3.261   6.875
51636SOL     OW56746  13.396   6.775  12.140
51636SOL    HW156747  13.395   6.696  12.194
51636SOL    HW256748  13.324   6.763  12.079
51637SOL     OW56749   8.937  14.379  13.628
51637SOL    HW156750   8.930  14.419  13.715
51637SOL    HW256751   8.952  14.452  13.569
51638SOL     OW56752   6.148   6.581   2.541
51638SOL    HW156753   6.217   6.528   2.502
51638SOL    HW256754   6.147   6.556   2.634
51639SOL     OW56755   0.104   6.637   4.644
51639SOL    HW156756   0.038   6.707   4.649
51639SOL    HW256757   0.133   6.626   4.735
51640SOL     OW56758  10.859  11.934  10.115
51640SOL    HW156759  10.867  11.888  10.031
51640SOL    HW256760  10.943  11.978  10.126
51641SOL     OW56761  13.372   8.479  10.877
51641SOL    HW156762  13.413   8.400  10.841
51641SOL    HW256763  13.406   8.485  10.967
51642SOL     OW56764   1.297   0.301  10.026
51642SOL    HW156765   1.213   0.265   9.997
51642SOL    HW256766   1.278   0.341  10.111
51643SOL     OW56767  10.911   3.725  14.674
51643SOL    HW156768  10.876   3.809  14.646
51643SOL    HW256769  10.878   3.662  14.610
51644SOL     OW56770  10.924   0.351  11.218
51644SOL    HW156771  10.832   0.371  11.236
51644SOL    HW256772  10.933   0.259  11.243
51645SOL     OW56773   0.066   0.919  12.601
51645SOL    HW156774   0.136   0.879  12.653
51645SOL    HW256775   0.070   1.012  12.623
51646SOL     OW56776   8.279   3.216  14.772
51646SOL    HW156777   8.222   3.160  14.824
51646SOL    HW256778   8.326   3.156  14.714
51647SOL     OW56779   8.260   2.862   4.283
51647SOL    HW156780   8.296   2.776   4.261
51647SOL    HW256781   8.208   2.847   4.362
51648SOL     OW56782  11.537   1.569   1.321
51648SOL    HW156783  11.600   1.544   1.388
51648SOL    HW256784  11.479   1.494   1.313
51649SOL     OW56785   1.225   2.267   2.775
51649SOL    HW156786   1.253   2.218   2.698
51649SOL    HW256787   1.157   2.212   2.814
51650SOL     OW56788   4.975   6.242   7.038
51650SOL    HW156789   4.899   6.281   7.081
51650SOL    HW256790   5.004   6.309   6.976
51651SOL     OW56791  11.320   9.657   7.796
51651SOL    HW156792  11.230   9.639   7.825
51651SOL    HW256793  11.340   9.585   7.736
51652SOL     OW56794   5.662  14.207   2.319
51652SOL    HW156795   5.718  14.140   2.357
51652SOL    HW256796   5.671  14.282   2.378
51653SOL     OW56797   6.215   3.824  14.860
51653SOL    HW156798   6.143   3.762   0.000
51653SOL    HW256799   6.211   3.883   0.062
51654SOL     OW56800   7.701   7.497   5.666
51654SOL    HW156801   7.646   7.484   5.589
51654SOL    HW256802   7.721   7.591   5.665
51655SOL     OW56803   9.224  10.792   2.825
51655SOL    HW156804   9.298  10.768   2.881
51655SOL    HW256805   9.247  10.758   2.739
51656SOL     OW56806   5.926  14.600   0.523
51656SOL    HW156807   6.019  14.602   0.502
51656SOL    HW256808   5.882  14.604   0.439
51657SOL     OW56809  12.304   6.015   1.335
51657SOL    HW156810  12.329   6.101   1.367
51657SOL    HW256811  12.295   5.961   1.414
51658SOL     OW56812   4.107   0.921   3.709
51658SOL    HW156813   4.018   0.903   3.737
51658SOL    HW256814   4.149   0.835   3.704
51659SOL     OW56815   4.687  14.808  13.304
51659SOL    HW156816   4.751   0.004  13.319
51659SOL    HW256817   4.671  14.810  13.209
51660SOL     OW56818   7.409  14.789   9.145
51660SOL    HW156819   7.459  14.815   9.222
51660SOL    HW256820   7.474  14.754   9.085
51661SOL     OW56821   1.263   8.464   0.068
51661SOL    HW156822   1.269   8.538   0.129
51661SOL    HW256823   1.192   8.411   0.103
51662SOL     OW56824  11.084   8.434  11.872
51662SOL    HW156825  11.175   8.425  11.901
51662SOL    HW256826  11.076   8.525  11.843
51663SOL     OW56827  10.393  11.688   6.514
51663SOL    HW156828  10.436  11.711   6.596
51663SOL    HW256829  10.440  11.738   6.448
51664SOL     OW56830   5.655   9.820  10.218
51664SOL    HW156831   5.630   9.778  10.136
51664SOL    HW256832   5.587   9.886  10.232
51665SOL     OW56833   4.470   6.953  14.358
51665SOL    HW156834   4.415   6.884  14.319
51665SOL    HW256835   4.418   6.985  14.432
51666SOL     OW56836   8.224   3.218   3.914
51666SOL    HW156837   8.281   3.293   3.896
51666SOL    HW256838   8.241   3.196   4.005
51667SOL     OW56839  11.973   4.625  10.623
51667SOL    HW156840  12.046   4.642  10.682
51667SOL    HW256841  11.993   4.539  10.584
51668SOL     OW56842   8.230   1.283   2.959
51668SOL    HW156843   8.209   1.271   3.052
51668SOL    HW256844   8.211   1.375   2.942
51669SOL     OW56845   9.510   3.998  12.233
51669SOL    HW156846   9.546   4.037  12.313
51669SOL    HW256847   9.501   4.071  12.173
51670SOL     OW56848   1.209  13.265  12.634
51670SOL    HW156849   1.122  13.291  12.666
51670SOL    HW256850   1.200  13.173  12.613
51671SOL     OW56851  12.048  12.947   7.475
51671SOL    HW156852  12.010  12.860   7.467
51671SOL    HW256853  12.027  12.991   7.393
51672SOL     OW56854   6.845   2.955  10.607
51672SOL    HW156855   6.779   2.937  10.541
51672SOL    HW256856   6.909   2.885  10.597
51673SOL     OW56857  12.709  13.020   8.548
51673SOL    HW156858  12.622  13.050   8.573
51673SOL    HW256859  12.693  12.960   8.474
51674SOL     OW56860   3.665   9.852   6.488
51674SOL    HW156861   3.683   9.847   6.394
51674SOL    HW256862   3.599   9.920   6.496
51675SOL     OW56863   6.673  14.128   7.015
51675SOL    HW156864   6.699  14.167   7.098
51675SOL    HW256865   6.694  14.035   7.024
51676SOL     OW56866  13.431  12.163  11.917
51676SOL    HW156867  13.376  12.129  11.847
51676SOL    HW256868  13.388  12.245  11.944
51677SOL     OW56869   5.960   3.248   3.146
51677SOL    HW156870   5.905   3.295   3.209
51677SOL    HW256871   5.929   3.158   3.149
51678SOL     OW56872   5.681   8.245   8.870
51678SOL    HW156873   5.748   8.180   8.849
51678SOL    HW256874   5.693   8.314   8.805
51679SOL     OW56875   7.566   0.943  10.020
51679SOL    HW156876   7.518   0.985   9.949
51679SOL    HW256877   7.521   0.970  10.099
51680SOL     OW56878   5.235   1.543   2.970
51680SOL    HW156879   5.180   1.495   3.032
51680SOL    HW256880   5.187   1.624   2.953
51681SOL     OW56881   9.123   8.817   5.932
51681SOL    HW156882   9.185   8.814   6.004
51681SOL    HW256883   9.037   8.815   5.974
51682SOL     OW56884   3.639  12.605   0.445
51682SOL    HW156885   3.607  12.671   0.383
51682SOL    HW256886   3.668  12.656   0.521
51683SOL     OW56887  10.763   4.485   2.640
51683SOL    HW156888  10.765   4.520   2.730
51683SOL    HW256889  10.808   4.552   2.588
51684SOL     OW56890  12.376   1.345   7.725
51684SOL    HW156891  12.401   1.433   7.753
51684SOL    HW256892  12.334   1.306   7.802
51685SOL     OW56893   9.655   5.583   4.712
51685SOL    HW156894   9.571   5.540   4.728
51685SOL    HW256895   9.684   5.550   4.627
51686SOL     OW56896  10.183   9.131   1.147
51686SOL    HW156897  10.147   9.203   1.095
51686SOL    HW256898  10.200   9.061   1.084
51687SOL     OW56899   5.184  13.354  11.083
51687SOL    HW156900   5.107  13.299  11.073
51687SOL    HW256901   5.181  13.383  11.175
51688SOL     OW56902   4.807   5.609   9.917
51688SOL    HW156903   4.902   5.600   9.909
51688SOL    HW256904   4.780   5.529   9.962
51689SOL     OW56905   8.334   5.702  13.970
51689SOL    HW156906   8.429   5.693  13.979
51689SOL    HW256907   8.305   5.617  13.936
51690SOL     OW56908  10.709   6.530   7.975
51690SOL    HW156909  10.630   6.570   8.011
51690SOL    HW256910  10.776   6.545   8.041
51691SOL     OW56911   9.925  10.908  12.089
51691SOL    HW156912  10.003  10.911  12.034
51691SOL    HW256913   9.853  10.931  12.031
51692SOL     OW56914   5.561  11.055  10.764
51692SOL    HW156915   5.578  10.970  10.805
51692SOL    HW256916   5.511  11.103  10.830
51693SOL     OW56917   0.230  12.172   9.764
51693SOL    HW156918   0.321  12.163   9.736
51693SOL    HW256919   0.235  12.206   9.853
51694SOL     OW56920   2.953  10.281   0.774
51694SOL    HW156921   2.923  10.367   0.744
51694SOL    HW256922   3.014  10.301   0.845
51695SOL     OW56923  10.425  13.659   7.353
51695SOL    HW156924  10.425  13.750   7.383
51695SOL    HW256925  10.452  13.608   7.429
51696SOL     OW56926  12.081   0.676   2.772
51696SOL    HW156927  12.074   0.619   2.848
51696SOL    HW256928  12.013   0.646   2.712
51697SOL     OW56929   3.223   2.312   1.789
51697SOL    HW156930   3.314   2.316   1.820
51697SOL    HW256931   3.194   2.403   1.786
51698SOL     OW56932  14.172   3.369  13.482
51698SOL    HW156933  14.117   3.348  13.406
51698SOL    HW256934  14.137   3.315  13.552
51699SOL     OW56935   5.819   9.612  12.308
51699SOL    HW156936   5.896   9.570  12.346
51699SOL    HW256937   5.805   9.567  12.225
51700SOL     OW56938   5.441   2.666   2.569
51700SOL    HW156939   5.431   2.662   2.474
51700SOL    HW256940   5.411   2.581   2.600
51701SOL     OW56941   2.762   6.630   2.722
51701SOL    HW156942   2.742   6.693   2.791
51701SOL    HW256943   2.780   6.684   2.645
51702SOL     OW56944  11.950   9.351  10.468
51702SOL    HW156945  12.013   9.423  10.461
51702SOL    HW256946  12.004   9.274  10.489
51703SOL     OW56947  11.088   0.008   2.635
51703SOL    HW156948  11.123  14.794   2.644
51703SOL    HW256949  11.003   0.005   2.679
51704SOL     OW56950   6.405   3.720   7.595
51704SOL    HW156951   6.323   3.686   7.558
51704SOL    HW256952   6.378   3.765   7.676
51705SOL     OW56953   3.746   2.254   1.051
51705SOL    HW156954   3.704   2.323   1.000
51705SOL    HW256955   3.676   2.191   1.069
51706SOL     OW56956   6.186   4.999   6.069
51706SOL    HW156957   6.109   5.043   6.103
51706SOL    HW256958   6.152   4.937   6.004
51707SOL     OW56959   9.607  10.303   0.503
51707SOL    HW156960   9.515  10.278   0.488
51707SOL    HW256961   9.657  10.227   0.474
51708SOL     OW56962  12.106  14.064  12.864
51708SOL    HW156963  12.097  14.139  12.804
51708SOL    HW256964  12.198  14.041  12.860
51709SOL     OW56965  12.967  11.031  13.462
51709SOL    HW156966  12.938  11.015  13.372
51709SOL    HW256967  12.896  10.998  13.516
51710SOL     OW56968   5.290   9.253  12.729
51710SOL    HW156969   5.245   9.263  12.645
51710SOL    HW256970   5.256   9.325  12.783
51711SOL     OW56971  11.535   5.766   7.240
51711SOL    HW156972  11.542   5.813   7.323
51711SOL    HW256973  11.591   5.689   7.251
51712SOL     OW56974  10.271   5.951  12.136
51712SOL    HW156975  10.304   5.875  12.087
51712SOL    HW256976  10.341   6.015  12.131
51713SOL     OW56977   5.052   0.585  14.004
51713SOL    HW156978   5.031   0.534  13.925
51713SOL    HW256979   5.017   0.672  13.986
51714SOL     OW56980  11.560  13.239   4.232
51714SOL    HW156981  11.491  13.172   4.233
51714SOL    HW256982  11.590  13.239   4.141
51715SOL     OW56983  10.842   0.519  10.028
51715SOL    HW156984  10.833   0.530  10.122
51715SOL    HW256985  10.901   0.591  10.001
51716SOL     OW56986   1.178   3.857   2.910
51716SOL    HW156987   1.258   3.910   2.915
51716SOL    HW256988   1.187   3.809   2.828
51717SOL     OW56989  12.570  11.216   8.696
51717SOL    HW156990  12.542  11.297   8.654
51717SOL    HW256991  12.610  11.244   8.778
51718SOL     OW56992   2.884  10.550  13.882
51718SOL    HW156993   2.803  10.577  13.838
51718SOL    HW256994   2.904  10.464  13.844
51719SOL     OW56995  13.232   7.809   3.605
51719SOL    HW156996  13.277   7.851   3.531
51719SOL    HW256997  13.159   7.866   3.625
51720SOL     OW56998   7.293   4.543  13.357
51720SOL    HW156999   7.206   4.516  13.386
51720SOL    HW257000   7.330   4.590  13.432
51721SOL     OW57001   9.820   7.208  14.308
51721SOL    HW157002   9.896   7.207  14.250
51721SOL    HW257003   9.755   7.153  14.264
51722SOL     OW57004   3.439   0.344   6.080
51722SOL    HW157005   3.486   0.373   6.159
51722SOL    HW257006   3.477   0.396   6.009
51723SOL     OW57007   8.542   8.711   0.747
51723SOL    HW157008   8.540   8.673   0.659
51723SOL    HW257009   8.559   8.637   0.805
51724SOL     OW57010   3.696   7.878   2.386
51724SOL    HW157011   3.644   7.939   2.334
51724SOL    HW257012   3.736   7.819   2.322
51725SOL     OW57013   7.386  10.185   7.788
51725SOL    HW157014   7.467  10.236   7.783
51725SOL    HW257015   7.318  10.246   7.760
51726SOL     OW57016   2.740  13.601  10.737
51726SOL    HW157017   2.739  13.697  10.734
51726SOL    HW257018   2.709  13.574  10.650
51727SOL     OW57019   4.512   8.567   3.639
51727SOL    HW157020   4.500   8.479   3.674
51727SOL    HW257021   4.438   8.617   3.674
51728SOL     OW57022  10.552   7.598   2.880
51728SOL    HW157023  10.538   7.556   2.965
51728SOL    HW257024  10.504   7.544   2.818
51729SOL     OW57025   7.030   5.170  11.315
51729SOL    HW157026   7.005   5.212  11.232
51729SOL    HW257027   7.126   5.167  11.312
51730SOL     OW57028   1.489  12.664  11.896
51730SOL    HW157029   1.453  12.577  11.878
51730SOL    HW257030   1.567  12.648  11.949
51731SOL     OW57031   8.531   0.538   7.226
51731SOL    HW157032   8.547   0.504   7.138
51731SOL    HW257033   8.583   0.619   7.230
51732SOL     OW57034   9.066  11.746   5.718
51732SOL    HW157035   9.119  11.826   5.720
51732SOL    HW257036   9.015  11.753   5.638
51733SOL     OW57037  13.993   4.507   1.907
51733SOL    HW157038  13.906   4.509   1.948
51733SOL    HW257039  14.000   4.418   1.872
51734SOL     OW57040   3.252   4.068  12.890
51734SOL    HW157041   3.206   4.087  12.971
51734SOL    HW257042   3.272   4.154  12.853
51735SOL     OW57043  11.128   0.394   6.011
51735SOL    HW157044  11.132   0.433   5.924
51735SOL    HW257045  11.210   0.420   6.053
51736SOL     OW57046   2.653  11.472   5.614
51736SOL    HW157047   2.645  11.552   5.667
51736SOL    HW257048   2.575  11.471   5.559
51737SOL     OW57049   9.046   0.606   9.517
51737SOL    HW157050   9.054   0.698   9.491
51737SOL    HW257051   8.989   0.568   9.450
51738SOL     OW57052  10.043   5.418  14.530
51738SOL    HW157053  10.050   5.511  14.549
51738SOL    HW257054  10.018   5.378  14.614
51739SOL     OW57055   6.734   3.891   0.927
51739SOL    HW157056   6.739   3.801   0.958
51739SOL    HW257057   6.719   3.884   0.833
51740SOL     OW57058   0.291   0.089   0.029
51740SOL    HW157059   0.203   0.065   0.058
51740SOL    HW257060   0.281   0.110  14.810
51741SOL     OW57061   2.323   3.446   1.205
51741SOL    HW157062   2.351   3.399   1.284
51741SOL    HW257063   2.348   3.389   1.133
51742SOL     OW57064   0.523  14.476   0.507
51742SOL    HW157065   0.542  14.534   0.433
51742SOL    HW257066   0.599  14.487   0.565
51743SOL     OW57067   2.743   4.616   3.450
51743SOL    HW157068   2.784   4.602   3.365
51743SOL    HW257069   2.651   4.593   3.436
51744SOL     OW57070  12.070  13.725   2.993
51744SOL    HW157071  12.129  13.800   3.004
51744SOL    HW257072  12.002  13.757   2.933
51745SOL     OW57073  14.171   6.114  14.003
51745SOL    HW157074  14.154   6.161  14.084
51745SOL    HW257075  14.085   6.101  13.964
51746SOL     OW57076   7.467  13.041  13.258
51746SOL    HW157077   7.446  13.049  13.351
51746SOL    HW257078   7.383  13.050  13.214
51747SOL     OW57079   4.665   9.726   3.594
51747SOL    HW157080   4.715   9.679   3.527
51747SOL    HW257081   4.588   9.759   3.548
51748SOL     OW57082  10.582   2.497   6.318
51748SOL    HW157083  10.509   2.474   6.375
51748SOL    HW257084  10.551   2.573   6.269
51749SOL     OW57085   6.126   3.174   6.722
51749SOL    HW157086   6.188   3.200   6.790
51749SOL    HW257087   6.148   3.230   6.647
51750SOL     OW57088   5.074  11.981   6.264
51750SOL    HW157089   5.119  11.912   6.314
51750SOL    HW257090   5.127  11.990   6.185
51751SOL     OW57091   9.380  13.015  12.136
51751SOL    HW157092   9.451  13.067  12.174
51751SOL    HW257093   9.409  12.995  12.047
51752SOL     OW57094  12.949   0.292  11.944
51752SOL    HW157095  12.929   0.376  11.986
51752SOL    HW257096  12.882   0.283  11.875
51753SOL     OW57097   0.094   1.795   3.443
51753SOL    HW157098   0.052   1.878   3.466
51753SOL    HW257099   0.037   1.728   3.481
51754SOL     OW57100  10.756   3.440   8.548
51754SOL    HW157101  10.712   3.479   8.624
51754SOL    HW257102  10.796   3.514   8.503
51755SOL     OW57103   1.463   2.217   7.634
51755SOL    HW157104   1.467   2.148   7.567
51755SOL    HW257105   1.393   2.274   7.605
51756SOL     OW57106   5.261   7.304   8.434
51756SOL    HW157107   5.181   7.254   8.446
51756SOL    HW257108   5.247   7.353   8.353
51757SOL     OW57109   6.237   8.760   8.054
51757SOL    HW157110   6.233   8.782   7.961
51757SOL    HW257111   6.331   8.751   8.073
51758SOL     OW57112   9.607   8.121   0.443
51758SOL    HW157113   9.688   8.139   0.490
51758SOL    HW257114   9.585   8.204   0.400
51759SOL     OW57115   7.992   0.513   1.672
51759SOL    HW157116   8.022   0.476   1.755
51759SOL    HW257117   8.026   0.454   1.606
51760SOL     OW57118   4.134  14.453  14.471
51760SOL    HW157119   4.198  14.440  14.401
51760SOL    HW257120   4.161  14.533  14.515
51761SOL     OW57121   4.055  11.349   3.450
51761SOL    HW157122   4.013  11.435   3.446
51761SOL    HW257123   3.996  11.291   3.401
51762SOL     OW57124   3.277   5.315   5.769
51762SOL    HW157125   3.287   5.409   5.756
51762SOL    HW257126   3.183   5.300   5.763
51763SOL     OW57127   8.337   0.300   6.234
51763SOL    HW157128   8.319   0.316   6.141
51763SOL    HW257129   8.266   0.344   6.280
51764SOL     OW57130  12.137  11.246   5.842
51764SOL    HW157131  12.092  11.329   5.824
51764SOL    HW257132  12.093  11.212   5.921
51765SOL     OW57133  12.987   7.417   1.300
51765SOL    HW157134  12.915   7.363   1.267
51765SOL    HW257135  13.045   7.354   1.343
51766SOL     OW57136   9.957  12.027  13.632
51766SOL    HW157137   9.948  12.103  13.689
51766SOL    HW257138   9.914  11.956  13.679
51767SOL     OW57139  13.334   2.905   1.877
51767SOL    HW157140  13.273   2.844   1.918
51767SOL    HW257141  13.404   2.850   1.841
51768SOL     OW57142  14.342   2.245   1.728
51768SOL    HW157143  14.366   2.160   1.690
51768SOL    HW257144  14.426   2.291   1.736
51769SOL     OW57145   5.016  12.089  14.384
51769SOL    HW157146   4.924  12.097  14.357
51769SOL    HW257147   5.065  12.096  14.302
51770SOL     OW57148   1.924   3.568   2.439
51770SOL    HW157149   1.855   3.609   2.388
51770SOL    HW257150   1.880   3.533   2.516
51771SOL     OW57151  10.567  13.238  10.550
51771SOL    HW157152  10.561  13.180  10.626
51771SOL    HW257153  10.493  13.297  10.559
51772SOL     OW57154  12.230   1.834   4.031
51772SOL    HW157155  12.311   1.827   3.981
51772SOL    HW257156  12.160   1.835   3.965
51773SOL     OW57157  14.854   4.474   9.654
51773SOL    HW157158   0.024   4.427   9.725
51773SOL    HW257159   0.010   4.431   9.574
51774SOL     OW57160   8.928   7.357  13.713
51774SOL    HW157161   8.951   7.310  13.633
51774SOL    HW257162   8.890   7.290  13.770
51775SOL     OW57163   3.106   4.153  13.104
51775SOL    HW157164   3.042   4.207  13.057
51775SOL    HW257165   3.058   4.120  13.180
51776SOL     OW57166   0.128  10.043   0.160
51776SOL    HW157167   0.106  10.127   0.199
51776SOL    HW257168   0.087   9.978   0.217
51777SOL     OW57169   0.933   4.444   1.645
51777SOL    HW157170   0.903   4.354   1.659
51777SOL    HW257171   0.942   4.481   1.733
51778SOL     OW57172  13.687   7.655   3.632
51778SOL    HW157173  13.642   7.613   3.706
51778SOL    HW257174  13.769   7.688   3.670
51779SOL     OW57175  10.382   8.237   7.029
51779SOL    HW157176  10.368   8.246   6.935
51779SOL    HW257177  10.454   8.174   7.037
51780SOL     OW57178   2.442   6.881   4.895
51780SOL    HW157179   2.375   6.822   4.931
51780SOL    HW257180   2.457   6.847   4.807
51781SOL     OW57181   1.530  14.239   7.979
51781SOL    HW157182   1.531  14.185   8.058
51781SOL    HW257183   1.608  14.211   7.930
51782SOL     OW57184  10.239  13.953   8.095
51782SOL    HW157185  10.172  13.886   8.085
51782SOL    HW257186  10.317  13.905   8.123
51783SOL     OW57187   1.904   4.443  12.361
51783SOL    HW157188   1.960   4.520  12.371
51783SOL    HW257189   1.964   4.374  12.331
51784SOL     OW57190   9.703  12.880  14.591
51784SOL    HW157191   9.690  12.802  14.645
51784SOL    HW257192   9.619  12.893  14.547
51785SOL     OW57193   2.628  11.950  10.010
51785SOL    HW157194   2.695  11.950  10.078
51785SOL    HW257195   2.602  12.042  10.003
51786SOL     OW57196   0.443  12.181  10.196
51786SOL    HW157197   0.468  12.142  10.112
51786SOL    HW257198   0.525  12.181  10.247
51787SOL     OW57199   4.639  13.407   5.215
51787SOL    HW157200   4.631  13.422   5.309
51787SOL    HW257201   4.729  13.432   5.194
51788SOL     OW57202  10.173  14.306   0.752
51788SOL    HW157203  10.231  14.377   0.724
51788SOL    HW257204  10.208  14.278   0.836
51789SOL     OW57205   8.533  11.976   2.510
51789SOL    HW157206   8.620  12.017   2.521
51789SOL    HW257207   8.496  12.020   2.433
51790SOL     OW57208   8.955   9.781   3.683
51790SOL    HW157209   9.024   9.718   3.664
51790SOL    HW257210   9.000   9.853   3.728
51791SOL     OW57211  11.392   2.013   5.304
51791SOL    HW157212  11.428   2.024   5.392
51791SOL    HW257213  11.302   2.046   5.311
51792SOL     OW57214   4.634   2.515  10.593
51792SOL    HW157215   4.543   2.512  10.622
51792SOL    HW257216   4.653   2.425  10.566
51793SOL     OW57217   0.972  10.982   4.650
51793SOL    HW157218   1.013  10.965   4.565
51793SOL    HW257219   0.880  10.997   4.630
51794SOL     OW57220   4.434  11.987   3.867
51794SOL    HW157221   4.385  12.069   3.867
51794SOL    HW257222   4.373  11.922   3.831
51795SOL     OW57223  14.288   9.746  11.856
51795SOL    HW157224  14.196   9.726  11.871
51795SOL    HW257225  14.290   9.839  11.832
51796SOL     OW57226   9.744   9.965  11.105
51796SOL    HW157227   9.710   9.934  11.021
51796SOL    HW257228   9.760   9.884  11.154
51797SOL     OW57229   3.222   9.032   5.038
51797SOL    HW157230   3.206   8.938   5.048
51797SOL    HW257231   3.253   9.060   5.125
51798SOL     OW57232   6.592  11.989   0.897
51798SOL    HW157233   6.668  11.985   0.956
51798SOL    HW257234   6.547  11.906   0.910
51799SOL     OW57235  11.566  10.458   4.041
51799SOL    HW157236  11.605  10.413   3.966
51799SOL    HW257237  11.571  10.551   4.019
51800SOL     OW57238   7.906   1.841   4.518
51800SOL    HW157239   7.813   1.819   4.517
51800SOL    HW257240   7.922   1.870   4.608
51801SOL     OW57241  11.897   1.259  10.677
51801SOL    HW157242  11.820   1.257  10.734
51801SOL    HW257243  11.879   1.329  10.614
51802SOL     OW57244  14.186   6.954  14.322
51802SOL    HW157245  14.110   6.960  14.263
51802SOL    HW257246  14.253   6.910  14.270
51803SOL     OW57247   9.569   8.285   7.730
51803SOL    HW157248   9.554   8.351   7.663
51803SOL    HW257249   9.649   8.241   7.703
51804SOL     OW57250   1.062   8.742  11.138
51804SOL    HW157251   1.019   8.760  11.055
51804SOL    HW257252   1.156   8.745  11.118
51805SOL     OW57253   6.313  12.940   2.887
51805SOL    HW157254   6.236  12.941   2.943
51805SOL    HW257255   6.315  12.852   2.850
51806SOL     OW57256  11.463  12.204  11.689
51806SOL    HW157257  11.430  12.117  11.664
51806SOL    HW257258  11.400  12.235  11.755
51807SOL     OW57259   0.612   1.094   1.316
51807SOL    HW157260   0.606   1.075   1.223
51807SOL    HW257261   0.664   1.175   1.320
51808SOL     OW57262   0.078  10.438  12.950
51808SOL    HW157263   0.171  10.459  12.946
51808SOL    HW257264   0.071  10.368  13.015
51809SOL     OW57265   8.513   3.918   6.876
51809SOL    HW157266   8.530   3.896   6.785
51809SOL    HW257267   8.513   4.013   6.878
51810SOL     OW57268   3.910  14.682   0.558
51810SOL    HW157269   3.961  14.601   0.562
51810SOL    HW257270   3.974  14.751   0.576
51811SOL     OW57271   3.243  12.467  12.845
51811SOL    HW157272   3.175  12.503  12.787
51811SOL    HW257273   3.202  12.462  12.931
51812SOL     OW57274   9.459   1.747   3.206
51812SOL    HW157275   9.459   1.693   3.285
51812SOL    HW257276   9.459   1.837   3.238
51813SOL     OW57277   4.685  11.206  11.783
51813SOL    HW157278   4.697  11.284  11.837
51813SOL    HW257279   4.769  11.160  11.789
51814SOL     OW57280   0.499  13.735   5.266
51814SOL    HW157281   0.480  13.713   5.174
51814SOL    HW257282   0.495  13.830   5.269
51815SOL     OW57283   6.557   5.977   5.153
51815SOL    HW157284   6.590   5.904   5.100
51815SOL    HW257285   6.470   5.995   5.117
51816SOL     OW57286  13.256   5.870  12.564
51816SOL    HW157287  13.173   5.883  12.608
51816SOL    HW257288  13.249   5.920  12.483
51817SOL     OW57289  12.931   0.123   1.656
51817SOL    HW157290  12.865   0.181   1.618
51817SOL    HW257291  12.998   0.116   1.588
51818SOL     OW57292  11.876   8.557  11.002
51818SOL    HW157293  11.905   8.554  10.911
51818SOL    HW257294  11.927   8.488  11.045
51819SOL     OW57295   0.472   0.492   0.048
51819SOL    HW157296   0.391   0.527   0.084
51819SOL    HW257297   0.525   0.570   0.028
51820SOL     OW57298   1.130   9.775   3.631
51820SOL    HW157299   1.182   9.820   3.698
51820SOL    HW257300   1.086   9.846   3.584
51821SOL     OW57301   7.501  14.230   3.961
51821SOL    HW157302   7.557  14.274   4.025
51821SOL    HW257303   7.437  14.182   4.014
51822SOL     OW57304  10.543  12.023  10.467
51822SOL    HW157305  10.499  12.074  10.399
51822SOL    HW257306  10.618  11.984  10.422
51823SOL     OW57307   2.376  13.499   0.984
51823SOL    HW157308   2.373  13.579   1.037
51823SOL    HW257309   2.467  13.470   0.992
51824SOL     OW57310  13.426   0.775  10.611
51824SOL    HW157311  13.480   0.818  10.678
51824SOL    HW257312  13.352   0.739  10.659
51825SOL     OW57313   4.968  12.630  13.467
51825SOL    HW157314   5.023  12.668  13.536
51825SOL    HW257315   4.913  12.566  13.513
51826SOL     OW57316   1.027  12.653   2.382
51826SOL    HW157317   1.020  12.723   2.316
51826SOL    HW257318   1.096  12.682   2.441
51827SOL     OW57319  12.464   0.534   8.286
51827SOL    HW157320  12.445   0.487   8.205
51827SOL    HW257321  12.552   0.504   8.310
51828SOL     OW57322   4.540   2.583  13.144
51828SOL    HW157323   4.599   2.510  13.126
51828SOL    HW257324   4.515   2.615  13.058
51829SOL     OW57325   6.435  11.834  14.684
51829SOL    HW157326   6.513  11.808  14.734
51829SOL    HW257327   6.469  11.891  14.615
51830SOL     OW57328   2.634   9.235   6.512
51830SOL    HW157329   2.686   9.304   6.551
51830SOL    HW257330   2.563   9.220   6.574
51831SOL     OW57331   6.102   5.904   0.947
51831SOL    HW157332   6.171   5.913   1.012
51831SOL    HW257333   6.141   5.937   0.866
51832SOL     OW57334  11.329  11.547   7.241
51832SOL    HW157335  11.403  11.489   7.222
51832SOL    HW257336  11.257  11.487   7.261
51833SOL     OW57337   7.887  13.987  12.193
51833SOL    HW157338   7.839  14.037  12.259
51833SOL    HW257339   7.897  13.900  12.231
51834SOL     OW57340   5.309  10.616  11.975
51834SOL    HW157341   5.387  10.585  12.021
51834SOL    HW257342   5.277  10.689  12.029
51835SOL     OW57343   6.578  14.215  13.772
51835SOL    HW157344   6.607  14.178  13.689
51835SOL    HW257345   6.551  14.140  13.824
51836SOL     OW57346   3.120   7.917  14.820
51836SOL    HW157347   3.196   7.900   0.001
51836SOL    HW257348   3.087   8.001  14.850
51837SOL     OW57349   2.418  14.152  13.374
51837SOL    HW157350   2.509  14.142  13.347
51837SOL    HW257351   2.367  14.124  13.298
51838SOL     OW57352  13.386   4.545  13.266
51838SOL    HW157353  13.458   4.488  13.294
51838SOL    HW257354  13.311   4.486  13.260
51839SOL     OW57355   9.390   6.001   2.653
51839SOL    HW157356   9.396   5.908   2.674
51839SOL    HW257357   9.470   6.040   2.690
51840SOL     OW57358   2.902   9.161  11.342
51840SOL    HW157359   2.898   9.082  11.398
51840SOL    HW257360   2.811   9.175  11.315
51841SOL     OW57361  12.452   8.816   2.597
51841SOL    HW157362  12.479   8.746   2.655
51841SOL    HW257363  12.449   8.776   2.510
51842SOL     OW57364   5.120  14.107  12.177
51842SOL    HW157365   5.199  14.145  12.137
51842SOL    HW257366   5.109  14.023  12.133
51843SOL     OW57367   8.605   2.421  12.788
51843SOL    HW157368   8.696   2.411  12.817
51843SOL    HW257369   8.553   2.408  12.868
51844SOL     OW57370   2.559   7.735   3.968
51844SOL    HW157371   2.646   7.723   3.932
51844SOL    HW257372   2.537   7.650   4.006
51845SOL     OW57373   9.835  13.812  10.739
51845SOL    HW157374   9.746  13.847  10.744
51845SOL    HW257375   9.891  13.890  10.738
51846SOL     OW57376  10.108  13.565   4.836
51846SOL    HW157377  10.055  13.643   4.822
51846SOL    HW257378  10.100  13.547   4.930
51847SOL     OW57379  11.745  12.348   6.050
51847SOL    HW157380  11.674  12.305   6.004
51847SOL    HW257381  11.819  12.287   6.044
51848SOL     OW57382   5.963   3.441  14.174
51848SOL    HW157383   5.940   3.352  14.145
51848SOL    HW257384   6.037   3.465  14.119
51849SOL     OW57385   8.331   1.292  14.003
51849SOL    HW157386   8.261   1.228  14.014
51849SOL    HW257387   8.353   1.288  13.911
51850SOL     OW57388   1.072   8.678   0.966
51850SOL    HW157389   1.043   8.600   0.918
51850SOL    HW257390   1.103   8.738   0.899
51851SOL     OW57391  14.023   6.816   9.861
51851SOL    HW157392  13.958   6.747   9.872
51851SOL    HW257393  13.973   6.890   9.825
51852SOL     OW57394   9.481  12.372   7.959
51852SOL    HW157395   9.536  12.332   8.026
51852SOL    HW257396   9.491  12.315   7.882
51853SOL     OW57397   2.141   4.541  12.567
51853SOL    HW157398   2.138   4.604  12.495
51853SOL    HW257399   2.206   4.577  12.628
51854SOL     OW57400   9.986   8.975   6.213
51854SOL    HW157401   9.975   9.027   6.292
51854SOL    HW257402  10.001   8.886   6.243
51855SOL     OW57403   6.783   0.791   9.944
51855SOL    HW157404   6.745   0.743   9.870
51855SOL    HW257405   6.707   0.812   9.999
51856SOL     OW57406   4.952  14.303  13.465
51856SOL    HW157407   4.934  14.342  13.550
51856SOL    HW257408   4.867  14.279  13.431
51857SOL     OW57409   7.732   6.580   4.424
51857SOL    HW157410   7.671   6.544   4.489
51857SOL    HW257411   7.731   6.516   4.353
51858SOL     OW57412   9.123  13.225   3.672
51858SOL    HW157413   9.038  13.206   3.632
51858SOL    HW257414   9.136  13.319   3.658
51859SOL     OW57415   9.152   3.944   3.254
51859SOL    HW157416   9.102   3.993   3.319
51859SOL    HW257417   9.094   3.872   3.229
51860SOL     OW57418   0.169  14.385   0.669
51860SOL    HW157419   0.086  14.433   0.663
51860SOL    HW257420   0.194  14.393   0.761
51861SOL     OW57421   1.709   0.129   9.471
51861SOL    HW157422   1.650   0.088   9.534
51861SOL    HW257423   1.779   0.065   9.459
51862SOL     OW57424   7.265   2.088   0.315
51862SOL    HW157425   7.263   2.011   0.258
51862SOL    HW257426   7.180   2.130   0.302
51863SOL     OW57427   4.580   2.920   7.449
51863SOL    HW157428   4.607   2.830   7.434
51863SOL    HW257429   4.628   2.947   7.527
51864SOL     OW57430   5.571  11.119   6.392
51864SOL    HW157431   5.642  11.165   6.438
51864SOL    HW257432   5.562  11.036   6.440
51865SOL     OW57433   1.286   7.790  14.522
51865SOL    HW157434   1.265   7.880  14.495
51865SOL    HW257435   1.294   7.742  14.440
51866SOL     OW57436   3.262   3.041  12.732
51866SOL    HW157437   3.333   3.105  12.740
51866SOL    HW257438   3.211   3.071  12.657
51867SOL     OW57439   3.213   7.336   0.823
51867SOL    HW157440   3.153   7.308   0.754
51867SOL    HW257441   3.173   7.305   0.904
51868SOL     OW57442   4.912   8.215  10.476
51868SOL    HW157443   4.931   8.295  10.524
51868SOL    HW257444   4.838   8.176  10.522
51869SOL     OW57445   4.616  14.528   7.004
51869SOL    HW157446   4.672  14.460   7.041
51869SOL    HW257447   4.551  14.546   7.071
51870SOL     OW57448   6.044   8.657   4.293
51870SOL    HW157449   6.074   8.567   4.292
51870SOL    HW257450   6.031   8.677   4.386
51871SOL     OW57451   4.858  14.596  10.990
51871SOL    HW157452   4.938  14.590  11.042
51871SOL    HW257453   4.864  14.680  10.945
51872SOL     OW57454  10.805   3.981   7.169
51872SOL    HW157455  10.755   4.007   7.247
51872SOL    HW257456  10.806   4.059   7.113
51873SOL     OW57457   5.790  11.506   8.826
51873SOL    HW157458   5.851  11.566   8.785
51873SOL    HW257459   5.708  11.517   8.777
51874SOL     OW57460  13.287   4.964   8.096
51874SOL    HW157461  13.367   4.912   8.085
51874SOL    HW257462  13.219   4.900   8.116
51875SOL     OW57463   5.675  10.549   2.663
51875SOL    HW157464   5.715  10.619   2.611
51875SOL    HW257465   5.736  10.535   2.735
51876SOL     OW57466   5.839   9.157   1.056
51876SOL    HW157467   5.837   9.085   0.993
51876SOL    HW257468   5.881   9.229   1.008
51877SOL     OW57469   1.898   9.108   0.618
51877SOL    HW157470   1.945   9.190   0.601
51877SOL    HW257471   1.883   9.107   0.712
51878SOL     OW57472   2.430   0.165   5.891
51878SOL    HW157473   2.494   0.107   5.849
51878SOL    HW257474   2.347   0.145   5.848
51879SOL     OW57475   7.667   3.372   9.417
51879SOL    HW157476   7.668   3.371   9.321
51879SOL    HW257477   7.664   3.465   9.440
51880SOL     OW57478   8.542  10.660   7.690
51880SOL    HW157479   8.465  10.714   7.672
51880SOL    HW257480   8.608  10.722   7.721
51881SOL     OW57481   6.756   7.490   6.310
51881SOL    HW157482   6.813   7.424   6.271
51881SOL    HW257483   6.815   7.561   6.335
51882SOL     OW57484  10.188   8.847   2.275
51882SOL    HW157485  10.165   8.935   2.305
51882SOL    HW257486  10.168   8.790   2.349
51883SOL     OW57487   8.294   4.096  13.379
51883SOL    HW157488   8.339   4.161  13.325
51883SOL    HW257489   8.220   4.067  13.326
51884SOL     OW57490  11.858   4.582   5.462
51884SOL    HW157491  11.812   4.498   5.458
51884SOL    HW257492  11.849   4.610   5.553
51885SOL     OW57493  14.699   8.202  11.270
51885SOL    HW157494  14.736   8.235  11.352
51885SOL    HW257495  14.728   8.111  11.265
51886SOL     OW57496   0.353   5.025  14.394
51886SOL    HW157497   0.440   5.059  14.373
51886SOL    HW257498   0.326   4.979  14.314
51887SOL     OW57499  12.593   3.721  13.287
51887SOL    HW157500  12.657   3.730  13.216
51887SOL    HW257501  12.512   3.696  13.244
51888SOL     OW57502   9.893  12.524   3.717
51888SOL    HW157503   9.864  12.615   3.705
51888SOL    HW257504   9.957  12.529   3.788
51889SOL     OW57505  14.801   4.128  10.863
51889SOL    HW157506  14.715   4.162  10.888
51889SOL    HW257507  14.784   4.070  10.789
51890SOL     OW57508   2.094   1.452  12.336
51890SOL    HW157509   2.153   1.380  12.356
51890SOL    HW257510   2.007   1.412  12.334
51891SOL     OW57511  13.027  12.008  10.163
51891SOL    HW157512  12.949  11.957  10.138
51891SOL    HW257513  13.074  11.951  10.224
51892SOL     OW57514   1.101  14.247   6.158
51892SOL    HW157515   1.029  14.300   6.123
51892SOL    HW257516   1.160  14.234   6.084
51893SOL     OW57517   5.622   1.989  11.587
51893SOL    HW157518   5.686   1.969  11.520
51893SOL    HW257519   5.548   2.028  11.539
51894SOL     OW57520   8.903  11.571   8.756
51894SOL    HW157521   8.963  11.520   8.811
51894SOL    HW257522   8.933  11.554   8.667
51895SOL     OW57523   6.528  14.442   4.952
51895SOL    HW157524   6.621  14.466   4.953
51895SOL    HW257525   6.509  14.417   5.042
51896SOL     OW57526  10.197   8.356  10.717
51896SOL    HW157527  10.195   8.384  10.625
51896SOL    HW257528  10.140   8.418  10.762
51897SOL     OW57529   5.182   9.475  12.827
51897SOL    HW157530   5.209   9.504  12.914
51897SOL    HW257531   5.109   9.532  12.804
51898SOL     OW57532   0.921   6.386   2.785
51898SOL    HW157533   0.956   6.309   2.739
51898SOL    HW257534   0.929   6.364   2.878
51899SOL     OW57535   1.119   3.374   3.448
51899SOL    HW157536   1.100   3.290   3.491
51899SOL    HW257537   1.191   3.411   3.499
51900SOL     OW57538   9.549   6.694   5.511
51900SOL    HW157539   9.518   6.676   5.599
51900SOL    HW257540   9.520   6.783   5.492
51901SOL     OW57541   6.918  12.838   6.418
51901SOL    HW157542   6.851  12.853   6.351
51901SOL    HW257543   6.868  12.814   6.496
51902SOL     OW57544  10.105   8.036   6.218
51902SOL    HW157545  10.093   7.986   6.137
51902SOL    HW257546  10.196   8.022   6.242
51903SOL     OW57547   7.478  13.554   1.995
51903SOL    HW157548   7.438  13.634   1.962
51903SOL    HW257549   7.552  13.584   2.048
51904SOL     OW57550   6.724   1.602   0.805
51904SOL    HW157551   6.684   1.519   0.781
51904SOL    HW257552   6.679   1.667   0.751
51905SOL     OW57553   2.660   5.025   9.388
51905SOL    HW157554   2.596   5.069   9.444
51905SOL    HW257555   2.617   4.944   9.361
51906SOL     OW57556  13.621   3.983   7.930
51906SOL    HW157557  13.602   4.077   7.935
51906SOL    HW257558  13.625   3.964   7.837
51907SOL     OW57559   2.814   3.994   3.534
51907SOL    HW157560   2.797   3.904   3.505
51907SOL    HW257561   2.780   4.049   3.464
51908SOL     OW57562   5.650   2.325   8.981
51908SOL    HW157563   5.669   2.255   8.918
51908SOL    HW257564   5.609   2.280   9.055
51909SOL     OW57565  10.377   8.862   7.407
51909SOL    HW157566  10.443   8.816   7.354
51909SOL    HW257567  10.302   8.802   7.406
51910SOL     OW57568   5.194  13.389   9.794
51910SOL    HW157569   5.201  13.473   9.840
51910SOL    HW257570   5.107  13.390   9.755
51911SOL     OW57571   3.995  10.455   8.698
51911SOL    HW157572   4.062  10.493   8.756
51911SOL    HW257573   3.923  10.432   8.757
51912SOL     OW57574  10.430   7.521  12.346
51912SOL    HW157575  10.406   7.510  12.439
51912SOL    HW257576  10.452   7.614  12.338
51913SOL     OW57577  12.526   0.289   7.373
51913SOL    HW157578  12.547   0.274   7.465
51913SOL    HW257579  12.528   0.384   7.363
51914SOL     OW57580  13.054   3.250   9.481
51914SOL    HW157581  12.978   3.212   9.525
51914SOL    HW257582  13.118   3.179   9.478
51915SOL     OW57583   2.446  12.087   2.306
51915SOL    HW157584   2.491  12.149   2.363
51915SOL    HW257585   2.497  12.088   2.224
51916SOL     OW57586   2.545   5.984  12.446
51916SOL    HW157587   2.547   6.079  12.431
51916SOL    HW257588   2.473   5.953  12.392
51917SOL     OW57589  10.630  11.083  10.894
51917SOL    HW157590  10.604  11.117  10.979
51917SOL    HW257591  10.706  11.027  10.912
51918SOL     OW57592  13.474   7.383  14.115
51918SOL    HW157593  13.410   7.365  14.046
51918SOL    HW257594  13.529   7.452  14.078
51919SOL     OW57595   9.644   1.529  14.242
51919SOL    HW157596   9.613   1.599  14.185
51919SOL    HW257597   9.573   1.514  14.304
51920SOL     OW57598   7.544   2.498  14.354
51920SOL    HW157599   7.489   2.575  14.337
51920SOL    HW257600   7.561   2.461  14.268
51921SOL     OW57601   4.951  10.118  10.958
51921SOL    HW157602   4.965  10.211  10.975
51921SOL    HW257603   5.007  10.099  10.883
51922SOL     OW57604   5.074   7.830  13.562
51922SOL    HW157605   5.076   7.914  13.609
51922SOL    HW257606   5.068   7.854  13.470
51923SOL     OW57607   6.801   7.782  13.217
51923SOL    HW157608   6.708   7.803  13.230
51923SOL    HW257609   6.841   7.865  13.190
51924SOL     OW57610   2.078   6.761  12.905
51924SOL    HW157611   2.146   6.694  12.893
51924SOL    HW257612   2.006   6.732  12.849
51925SOL     OW57613   0.816   8.290   7.660
51925SOL    HW157614   0.739   8.302   7.715
51925SOL    HW257615   0.806   8.355   7.590
51926SOL     OW57616   9.733  11.816   2.395
51926SOL    HW157617   9.655  11.812   2.451
51926SOL    HW257618   9.705  11.861   2.316
51927SOL     OW57619   6.480   9.977  12.706
51927SOL    HW157620   6.567   9.941  12.725
51927SOL    HW257621   6.452   9.931  12.627
51928SOL     OW57622   5.758   5.846   6.432
51928SOL    HW157623   5.778   5.934   6.462
51928SOL    HW257624   5.824   5.790   6.473
51929SOL     OW57625   7.508   9.736   1.798
51929SOL    HW157626   7.562   9.663   1.768
51929SOL    HW257627   7.477   9.777   1.717
51930SOL     OW57628   0.769   3.921  12.549
51930SOL    HW157629   0.831   3.870  12.498
51930SOL    HW257630   0.813   4.004  12.566
51931SOL     OW57631   6.228  10.655   2.853
51931SOL    HW157632   6.286  10.609   2.913
51931SOL    HW257633   6.181  10.585   2.808
51932SOL     OW57634  14.023  14.576  11.056
51932SOL    HW157635  14.055  14.538  11.138
51932SOL    HW257636  13.966  14.509  11.019
51933SOL     OW57637  10.675   4.713  13.128
51933SOL    HW157638  10.689   4.626  13.165
51933SOL    HW257639  10.640   4.765  13.201
51934SOL     OW57640  12.150  13.138   9.842
51934SOL    HW157641  12.092  13.131   9.918
51934SOL    HW257642  12.094  13.120   9.767
51935SOL     OW57643   6.108   4.451   6.561
51935SOL    HW157644   6.039   4.470   6.625
51935SOL    HW257645   6.062   4.403   6.492
51936SOL     OW57646  12.916   9.770   0.556
51936SOL    HW157647  12.853   9.721   0.609
51936SOL    HW257648  12.992   9.780   0.614
51937SOL     OW57649   3.834  12.160   6.755
51937SOL    HW157650   3.897  12.168   6.683
51937SOL    HW257651   3.869  12.089   6.809
51938SOL     OW57652   1.974   0.495   4.228
51938SOL    HW157653   1.929   0.579   4.216
51938SOL    HW257654   2.038   0.492   4.157
51939SOL     OW57655  14.165   4.646   6.662
51939SOL    HW157656  14.242   4.693   6.695
51939SOL    HW257657  14.101   4.652   6.732
51940SOL     OW57658   2.830  10.120   8.233
51940SOL    HW157659   2.863  10.182   8.298
51940SOL    HW257660   2.750  10.085   8.273
51941SOL     OW57661   2.501   4.345  14.422
51941SOL    HW157662   2.594   4.365  14.415
51941SOL    HW257663   2.470   4.400  14.494
51942SOL     OW57664   9.370   4.146  13.682
51942SOL    HW157665   9.311   4.218  13.661
51942SOL    HW257666   9.415   4.127  13.600
51943SOL     OW57667   8.488  13.380   1.058
51943SOL    HW157668   8.486  13.293   1.018
51943SOL    HW257669   8.409  13.424   1.025
51944SOL     OW57670   2.776   6.253  10.677
51944SOL    HW157671   2.689   6.291  10.689
51944SOL    HW257672   2.828   6.322  10.636
51945SOL     OW57673   5.202  11.070  13.413
51945SOL    HW157674   5.204  11.116  13.330
51945SOL    HW257675   5.216  10.978  13.389
51946SOL     OW57676   8.754   7.221   8.944
51946SOL    HW157677   8.682   7.233   8.883
51946SOL    HW257678   8.748   7.296   9.003
51947SOL     OW57679   2.780  14.873   7.315
51947SOL    HW157680   2.814  14.786   7.336
51947SOL    HW257681   2.797   0.008   7.221
51948SOL     OW57682   4.200   6.097   0.208
51948SOL    HW157683   4.259   6.021   0.204
51948SOL    HW257684   4.257   6.170   0.229
51949SOL     OW57685   1.708   5.500  10.643
51949SOL    HW157686   1.759   5.472  10.719
51949SOL    HW257687   1.669   5.583  10.669
51950SOL     OW57688  12.633   6.272   6.602
51950SOL    HW157689  12.614   6.279   6.508
51950SOL    HW257690  12.559   6.317   6.643
51951SOL     OW57691  12.183   7.469   7.134
51951SOL    HW157692  12.200   7.374   7.137
51951SOL    HW257693  12.089   7.476   7.149
51952SOL     OW57694   4.390   7.924   7.094
51952SOL    HW157695   4.441   7.855   7.052
51952SOL    HW257696   4.303   7.918   7.054
51953SOL     OW57697   8.493   7.498  11.343
51953SOL    HW157698   8.476   7.588  11.313
51953SOL    HW257699   8.432   7.485  11.415
51954SOL     OW57700   7.657   0.582   3.890
51954SOL    HW157701   7.662   0.573   3.985
51954SOL    HW257702   7.605   0.661   3.876
51955SOL     OW57703  12.581   9.564  11.614
51955SOL    HW157704  12.518   9.635  11.609
51955SOL    HW257705  12.569   9.515  11.533
51956SOL     OW57706  11.913   3.943   7.753
51956SOL    HW157707  11.949   4.000   7.821
51956SOL    HW257708  11.979   3.945   7.684
51957SOL     OW57709   0.572  13.276  13.634
51957SOL    HW157710   0.522  13.208  13.590
51957SOL    HW257711   0.612  13.232  13.709
51958SOL     OW57712   1.948  14.049   8.895
51958SOL    HW157713   2.036  14.048   8.858
51958SOL    HW257714   1.896  13.992   8.838
51959SOL     OW57715   5.493   7.332   5.862
51959SOL    HW157716   5.422   7.297   5.916
51959SOL    HW257717   5.532   7.254   5.821
51960SOL     OW57718   4.896  10.592   2.358
51960SOL    HW157719   4.894  10.500   2.384
51960SOL    HW257720   4.894  10.641   2.440
51961SOL     OW57721   7.673  14.581  12.274
51961SOL    HW157722   7.604  14.591  12.339
51961SOL    HW257723   7.651  14.500  12.227
51962SOL     OW57724   9.181  14.235  11.994
51962SOL    HW157725   9.138  14.310  11.951
51962SOL    HW257726   9.215  14.271  12.076
51963SOL     OW57727   7.284   1.792  13.616
51963SOL    HW157728   7.239   1.826  13.693
51963SOL    HW257729   7.328   1.713  13.647
51964SOL     OW57730   5.631  12.773  12.089
51964SOL    HW157731   5.578  12.795  12.012
51964SOL    HW257732   5.602  12.686  12.115
51965SOL     OW57733   5.884   1.760   3.179
51965SOL    HW157734   5.907   1.852   3.168
51965SOL    HW257735   5.798   1.762   3.221
51966SOL     OW57736  14.725   1.030   3.820
51966SOL    HW157737  14.759   0.989   3.740
51966SOL    HW257738  14.657   1.090   3.789
51967SOL     OW57739  14.031   0.783   3.203
51967SOL    HW157740  14.107   0.838   3.219
51967SOL    HW257741  13.962   0.820   3.258
51968SOL     OW57742   8.721   8.991  12.303
51968SOL    HW157743   8.682   9.036  12.378
51968SOL    HW257744   8.787   9.053  12.270
51969SOL     OW57745  11.807   6.464  11.320
51969SOL    HW157746  11.840   6.528  11.256
51969SOL    HW257747  11.749   6.408  11.270
51970SOL     OW57748  12.444  12.485   5.339
51970SOL    HW157749  12.533  12.507   5.365
51970SOL    HW257750  12.391  12.505   5.416
51971SOL     OW57751   1.164  11.340  13.648
51971SOL    HW157752   1.069  11.340  13.658
51971SOL    HW257753   1.179  11.379  13.562
51972SOL     OW57754   6.471  10.204   1.058
51972SOL    HW157755   6.460  10.255   1.138
51972SOL    HW257756   6.521  10.261   1.000
51973SOL     OW57757  11.247   5.934   4.881
51973SOL    HW157758  11.337   5.901   4.887
51973SOL    HW257759  11.199   5.887   4.949
51974SOL     OW57760   7.766  11.894  14.187
51974SOL    HW157761   7.787  11.953  14.115
51974SOL    HW257762   7.786  11.807  14.154
51975SOL     OW57763  10.062   7.846  10.327
51975SOL    HW157764  10.012   7.794  10.391
51975SOL    HW257765   9.995   7.881  10.268
51976SOL     OW57766   2.156  14.477   0.801
51976SOL    HW157767   2.141  14.508   0.712
51976SOL    HW257768   2.069  14.476   0.841
51977SOL     OW57769   4.211   4.723   5.479
51977SOL    HW157770   4.238   4.670   5.403
51977SOL    HW257771   4.116   4.729   5.472
51978SOL     OW57772   7.586   4.220  12.586
51978SOL    HW157773   7.559   4.150  12.645
51978SOL    HW257774   7.522   4.217  12.515
51979SOL     OW57775  11.709  11.636   8.522
51979SOL    HW157776  11.772  11.566   8.540
51979SOL    HW257777  11.631  11.611   8.572
51980SOL     OW57778   3.176   6.888   7.964
51980SOL    HW157779   3.159   6.975   7.928
51980SOL    HW257780   3.089   6.848   7.972
51981SOL     OW57781   6.815   7.933   7.995
51981SOL    HW157782   6.860   7.867   8.049
51981SOL    HW257783   6.732   7.948   8.039
51982SOL     OW57784  11.507   9.933   3.823
51982SOL    HW157785  11.560   9.903   3.897
51982SOL    HW257786  11.425   9.963   3.862
51983SOL     OW57787   8.385  10.413   6.414
51983SOL    HW157788   8.335  10.374   6.342
51983SOL    HW257789   8.468  10.365   6.415
51984SOL     OW57790   8.824   8.043  12.085
51984SOL    HW157791   8.768   8.102  12.035
51984SOL    HW257792   8.888   8.101  12.127
51985SOL     OW57793   3.272   6.756   7.093
51985SOL    HW157794   3.340   6.774   7.158
51985SOL    HW257795   3.250   6.841   7.057
51986SOL     OW57796  14.085   3.032   1.539
51986SOL    HW157797  14.013   2.970   1.553
51986SOL    HW257798  14.097   3.033   1.444
51987SOL     OW57799   1.122   3.732   6.390
51987SOL    HW157800   1.158   3.643   6.396
51987SOL    HW257801   1.109   3.745   6.296
51988SOL     OW57802  12.233  11.129   8.536
51988SOL    HW157803  12.235  11.193   8.465
51988SOL    HW257804  12.289  11.057   8.505
51989SOL     OW57805  14.474   3.507   4.662
51989SOL    HW157806  14.383   3.482   4.651
51989SOL    HW257807  14.471   3.595   4.701
51990SOL     OW57808  13.555   8.228   1.246
51990SOL    HW157809  13.622   8.281   1.289
51990SOL    HW257810  13.502   8.291   1.197
51991SOL     OW57811   7.171   9.521   6.633
51991SOL    HW157812   7.250   9.472   6.608
51991SOL    HW257813   7.192   9.558   6.719
51992SOL     OW57814   6.301  10.564  14.587
51992SOL    HW157815   6.327  10.473  14.572
51992SOL    HW257816   6.379  10.615  14.567
51993SOL     OW57817  12.773  13.575   1.948
51993SOL    HW157818  12.828  13.651   1.928
51993SOL    HW257819  12.685  13.611   1.960
51994SOL     OW57820   5.482   1.393  13.178
51994SOL    HW157821   5.405   1.448  13.189
51994SOL    HW257822   5.548   1.451  13.138
51995SOL     OW57823   9.208   7.393   3.448
51995SOL    HW157824   9.123   7.368   3.411
51995SOL    HW257825   9.187   7.454   3.518
51996SOL     OW57826   1.560   7.355   6.015
51996SOL    HW157827   1.497   7.331   6.083
51996SOL    HW257828   1.643   7.316   6.044
51997SOL     OW57829  12.723  11.529   0.713
51997SOL    HW157830  12.775  11.511   0.634
51997SOL    HW257831  12.718  11.625   0.717
51998SOL     OW57832   9.657   0.792   9.994
51998SOL    HW157833   9.604   0.796   9.914
51998SOL    HW257834   9.748   0.789   9.962
51999SOL     OW57835   6.982   5.316   2.089
51999SOL    HW157836   6.975   5.375   2.164
51999SOL    HW257837   7.028   5.239   2.124
52000SOL     OW57838   8.983  10.152  12.087
52000SOL    HW157839   8.903  10.188  12.126
52000SOL    HW257840   9.051  10.167  12.153
52001SOL     OW57841  12.466   5.072   5.523
52001SOL    HW157842  12.493   5.154   5.564
52001SOL    HW257843  12.544   5.016   5.528
52002SOL     OW57844   6.470  11.275  12.730
52002SOL    HW157845   6.410  11.343  12.698
52002SOL    HW257846   6.557  11.314  12.722
52003SOL     OW57847   6.412  14.089   6.592
52003SOL    HW157848   6.350  14.096   6.665
52003SOL    HW257849   6.359  14.055   6.520
52004SOL     OW57850   8.697   6.951   3.356
52004SOL    HW157851   8.712   6.954   3.261
52004SOL    HW257852   8.612   6.994   3.368
52005SOL     OW57853   0.837  11.893   0.776
52005SOL    HW157854   0.859  11.821   0.716
52005SOL    HW257855   0.856  11.858   0.863
52006SOL     OW57856   4.784   1.930   9.513
52006SOL    HW157857   4.828   1.916   9.430
52006SOL    HW257858   4.733   2.010   9.501
52007SOL     OW57859  14.035   3.745   3.231
52007SOL    HW157860  14.018   3.650   3.232
52007SOL    HW257861  13.953   3.783   3.200
52008SOL     OW57862  11.509   9.025   3.763
52008SOL    HW157863  11.506   8.937   3.726
52008SOL    HW257864  11.552   9.079   3.696
52009SOL     OW57865   4.173   8.954  10.306
52009SOL    HW157866   4.188   9.037  10.260
52009SOL    HW257867   4.190   8.887  10.240
52010SOL     OW57868  14.482   5.779  12.852
52010SOL    HW157869  14.519   5.694  12.879
52010SOL    HW257870  14.559   5.833  12.832
52011SOL     OW57871   8.795   7.284  13.091
52011SOL    HW157872   8.750   7.320  13.166
52011SOL    HW257873   8.769   7.339  13.017
52012SOL     OW57874   8.238   6.452  11.030
52012SOL    HW157875   8.304   6.503  11.078
52012SOL    HW257876   8.156   6.469  11.076
52013SOL     OW57877   0.341   6.954   9.077
52013SOL    HW157878   0.316   6.862   9.078
52013SOL    HW257879   0.284   6.996   9.141
52014SOL     OW57880   3.965  12.693   7.317
52014SOL    HW157881   3.938  12.726   7.402
52014SOL    HW257882   3.887  12.648   7.283
52015SOL     OW57883   4.081  11.694   2.958
52015SOL    HW157884   4.065  11.719   3.049
52015SOL    HW257885   4.094  11.777   2.912
52016SOL     OW57886   5.565  12.155   2.471
52016SOL    HW157887   5.587  12.073   2.515
52016SOL    HW257888   5.595  12.224   2.531
52017SOL     OW57889   1.541  12.461  12.813
52017SOL    HW157890   1.592  12.403  12.869
52017SOL    HW257891   1.496  12.403  12.752
52018SOL     OW57892   7.435  11.158   9.629
52018SOL    HW157893   7.505  11.094   9.621
52018SOL    HW257894   7.355  11.105   9.639
52019SOL     OW57895  10.908   6.560   8.166
52019SOL    HW157896  10.916   6.473   8.204
52019SOL    HW257897  10.946   6.619   8.231
52020SOL     OW57898   5.372   0.174   9.435
52020SOL    HW157899   5.284   0.212   9.442
52020SOL    HW257900   5.399   0.158   9.526
52021SOL     OW57901   6.753   4.655   8.150
52021SOL    HW157902   6.681   4.599   8.182
52021SOL    HW257903   6.710   4.734   8.119
52022SOL     OW57904   2.757  13.643   3.000
52022SOL    HW157905   2.756  13.735   3.026
52022SOL    HW257906   2.716  13.597   3.073
52023SOL     OW57907  13.070   2.664  14.836
52023SOL    HW157908  13.116   2.748  14.833
52023SOL    HW257909  12.982   2.686  14.867
52024SOL     OW57910   0.526   7.709  13.719
52024SOL    HW157911   0.610   7.686  13.678
52024SOL    HW257912   0.476   7.627  13.718
52025SOL     OW57913  11.044   6.779   0.504
52025SOL    HW157914  10.950   6.785   0.488
52025SOL    HW257915  11.059   6.688   0.529
52026SOL     OW57916   2.384   3.808   6.500
52026SOL    HW157917   2.424   3.767   6.424
52026SOL    HW257918   2.383   3.739   6.567
52027SOL     OW57919   3.653   7.082   4.296
52027SOL    HW157920   3.634   7.139   4.370
52027SOL    HW257921   3.581   7.019   4.294
52028SOL     OW57922  12.313   0.644  14.307
52028SOL    HW157923  12.338   0.551  14.305
52028SOL    HW257924  12.286   0.663  14.217
52029SOL     OW57925   0.925   2.182   0.872
52029SOL    HW157926   0.967   2.184   0.957
52029SOL    HW257927   0.861   2.112   0.879
52030SOL     OW57928  11.238   1.806   2.620
52030SOL    HW157929  11.202   1.780   2.705
52030SOL    HW257930  11.232   1.728   2.566
52031SOL     OW57931   3.182   7.919   9.961
52031SOL    HW157932   3.087   7.905   9.957
52031SOL    HW257933   3.210   7.918   9.870
52032SOL     OW57934  14.484   4.646   6.957
52032SOL    HW157935  14.489   4.740   6.976
52032SOL    HW257936  14.426   4.611   7.025
52033SOL     OW57937  12.882   9.800   4.888
52033SOL    HW157938  12.851   9.710   4.895
52033SOL    HW257939  12.977   9.793   4.886
52034SOL     OW57940   6.518   1.810   4.770
52034SOL    HW157941   6.529   1.784   4.861
52034SOL    HW257942   6.466   1.740   4.731
52035SOL     OW57943  10.671   0.985   0.122
52035SOL    HW157944  10.746   1.029   0.161
52035SOL    HW257945  10.701   0.896   0.106
52036SOL     OW57946  11.258  14.666   4.000
52036SOL    HW157947  11.302  14.581   3.997
52036SOL    HW257948  11.327  14.729   3.982
52037SOL     OW57949   0.516   1.111   5.543
52037SOL    HW157950   0.447   1.125   5.607
52037SOL    HW257951   0.546   1.022   5.559
52038SOL     OW57952   3.595  12.614   4.353
52038SOL    HW157953   3.540  12.551   4.399
52038SOL    HW257954   3.581  12.697   4.399
52039SOL     OW57955   8.169   3.867  14.677
52039SOL    HW157956   8.249   3.830  14.714
52039SOL    HW257957   8.107   3.794  14.674
52040SOL     OW57958   1.318  12.697  12.702
52040SOL    HW157959   1.288  12.636  12.634
52040SOL    HW257960   1.412  12.708  12.685
52041SOL     OW57961  14.843   6.848   8.358
52041SOL    HW157962  14.842   6.942   8.375
52041SOL    HW257963   0.009   6.840   8.271
52042SOL     OW57964   6.620   3.439  13.584
52042SOL    HW157965   6.638   3.472  13.672
52042SOL    HW257966   6.702   3.397  13.558
52043SOL     OW57967  13.645   5.061  11.116
52043SOL    HW157968  13.673   4.970  11.132
52043SOL    HW257969  13.549   5.058  11.123
52044SOL     OW57970   2.131   5.923   8.346
52044SOL    HW157971   2.212   5.926   8.396
52044SOL    HW257972   2.068   5.884   8.405
52045SOL     OW57973  13.684   7.270   2.421
52045SOL    HW157974  13.614   7.328   2.390
52045SOL    HW257975  13.720   7.231   2.341
52046SOL     OW57976   6.825  10.950  14.465
52046SOL    HW157977   6.839  10.946  14.560
52046SOL    HW257978   6.822  11.044  14.446
52047SOL     OW57979  13.058  11.695  12.755
52047SOL    HW157980  13.057  11.636  12.831
52047SOL    HW257981  13.070  11.636  12.681
52048SOL     OW57982   8.266   8.540   1.776
52048SOL    HW157983   8.211   8.612   1.744
52048SOL    HW257984   8.215   8.499   1.844
52049SOL     OW57985   9.179   8.097   0.194
52049SOL    HW157986   9.206   8.155   0.265
52049SOL    HW257987   9.147   8.156   0.126
52050SOL     OW57988   1.115   2.055   5.323
52050SOL    HW157989   1.098   2.083   5.413
52050SOL    HW257990   1.207   2.031   5.322
52051SOL     OW57991   8.287  12.374  13.963
52051SOL    HW157992   8.244  12.364  14.048
52051SOL    HW257993   8.269  12.292  13.917
52052SOL     OW57994   8.767   3.980   4.328
52052SOL    HW157995   8.722   3.937   4.400
52052SOL    HW257996   8.743   4.073   4.336
52053SOL     OW57997  10.430   0.479  12.864
52053SOL    HW157998  10.508   0.452  12.911
52053SOL    HW257999  10.368   0.503  12.933
52054SOL     OW58000   9.692  12.273   4.597
52054SOL    HW158001   9.739  12.222   4.662
52054SOL    HW258002   9.721  12.238   4.513
52055SOL     OW58003  13.786  12.043  11.453
52055SOL    HW158004  13.840  11.964  11.449
52055SOL    HW258005  13.697  12.010  11.466
52056SOL     OW58006  12.334   9.330   6.908
52056SOL    HW158007  12.385   9.310   6.986
52056SOL    HW258008  12.267   9.261   6.904
52057SOL     OW58009   5.855   0.460  11.568
52057SOL    HW158010   5.936   0.410  11.571
52057SOL    HW258011   5.848   0.488  11.476
52058SOL     OW58012  10.153  11.030   5.729
52058SOL    HW158013  10.126  11.055   5.640
52058SOL    HW258014  10.079  10.980   5.762
52059SOL     OW58015  12.300   4.506  11.671
52059SOL    HW158016  12.351   4.531  11.594
52059SOL    HW258017  12.304   4.410  11.671
52060SOL     OW58018  13.101   7.378   5.419
52060SOL    HW158019  13.011   7.352   5.401
52060SOL    HW258020  13.123   7.439   5.348
52061SOL     OW58021   0.288   2.974   9.526
52061SOL    HW158022   0.203   2.943   9.496
52061SOL    HW258023   0.313   2.912   9.595
52062SOL     OW58024   1.440   9.288  13.853
52062SOL    HW158025   1.396   9.314  13.772
52062SOL    HW258026   1.398   9.341  13.921
52063SOL     OW58027  11.174   9.113   6.863
52063SOL    HW158028  11.252   9.165   6.845
52063SOL    HW258029  11.108   9.146   6.802
52064SOL     OW58030   7.854  11.973   6.265
52064SOL    HW158031   7.808  11.890   6.281
52064SOL    HW258032   7.810  12.010   6.188
52065SOL     OW58033   7.707  14.740   1.611
52065SOL    HW158034   7.757  14.786   1.544
52065SOL    HW258035   7.632  14.703   1.564
52066SOL     OW58036   4.693   7.836   5.739
52066SOL    HW158037   4.648   7.900   5.684
52066SOL    HW258038   4.631   7.818   5.810
52067SOL     OW58039   6.938   1.518   1.382
52067SOL    HW158040   7.009   1.579   1.403
52067SOL    HW258041   6.924   1.468   1.462
52068SOL     OW58042  11.358  11.684   3.450
52068SOL    HW158043  11.263  11.685   3.460
52068SOL    HW258044  11.384  11.596   3.476
52069SOL     OW58045   4.624   4.741   9.109
52069SOL    HW158046   4.706   4.699   9.082
52069SOL    HW258047   4.574   4.750   9.028
52070SOL     OW58048   9.764  10.082   6.246
52070SOL    HW158049   9.759  10.176   6.227
52070SOL    HW258050   9.796  10.078   6.336
52071SOL     OW58051  13.753   9.603   4.293
52071SOL    HW158052  13.718   9.604   4.203
52071SOL    HW258053  13.840   9.641   4.284
52072SOL     OW58054   1.011   2.540  12.198
52072SOL    HW158055   1.088   2.486  12.181
52072SOL    HW258056   1.043   2.610  12.256
52073SOL     OW58057   7.444   1.706   1.426
52073SOL    HW158058   7.465   1.798   1.442
52073SOL    HW258059   7.515   1.657   1.468
52074SOL     OW58060   6.967   0.149  11.974
52074SOL    HW158061   6.985   0.169  12.066
52074SOL    HW258062   6.918   0.225  11.942
52075SOL     OW58063   9.059  14.564   2.404
52075SOL    HW158064   9.082  14.620   2.329
52075SOL    HW258065   9.006  14.621   2.460
52076SOL     OW58066   2.429   6.086   8.018
52076SOL    HW158067   2.489   6.087   8.093
52076SOL    HW258068   2.367   6.016   8.038
52077SOL     OW58069  14.213   6.146  13.174
52077SOL    HW158070  14.208   6.239  13.152
52077SOL    HW258071  14.213   6.101  13.089
52078SOL     OW58072  12.349   5.567   5.680
52078SOL    HW158073  12.324   5.638   5.620
52078SOL    HW258074  12.321   5.487   5.635
52079SOL     OW58075   5.581   4.289   5.406
52079SOL    HW158076   5.593   4.352   5.334
52079SOL    HW258077   5.487   4.289   5.423
52080SOL     OW58078  12.775   8.698   2.917
52080SOL    HW158079  12.775   8.622   2.860
52080SOL    HW258080  12.835   8.760   2.876
52081SOL     OW58081  10.992   9.044   1.055
52081SOL    HW158082  11.041   8.981   1.002
52081SOL    HW258083  10.938   9.092   0.992
52082SOL     OW58084  14.859   2.392   5.300
52082SOL    HW158085  14.775   2.349   5.281
52082SOL    HW258086   0.005   2.441   5.220
52083SOL     OW58087   7.082   9.508   8.585
52083SOL    HW158088   7.127   9.448   8.644
52083SOL    HW258089   7.137   9.587   8.584
52084SOL     OW58090  11.478   0.413   5.852
52084SOL    HW158091  11.416   0.423   5.924
52084SOL    HW258092  11.427   0.431   5.773
52085SOL     OW58093   2.484   0.615   8.187
52085SOL    HW158094   2.547   0.658   8.129
52085SOL    HW258095   2.480   0.525   8.156
52086SOL     OW58096   1.957   1.754  10.220
52086SOL    HW158097   2.046   1.720  10.214
52086SOL    HW258098   1.967   1.840  10.262
52087SOL     OW58099   3.271  13.038  10.427
52087SOL    HW158100   3.336  13.098  10.464
52087SOL    HW258101   3.320  12.957  10.412
52088SOL     OW58102   2.651  12.158  10.316
52088SOL    HW158103   2.636  12.082  10.373
52088SOL    HW258104   2.715  12.127  10.251
52089SOL     OW58105   3.920   0.666   1.793
52089SOL    HW158106   3.864   0.593   1.816
52089SOL    HW258107   3.867   0.744   1.811
52090SOL     OW58108   7.147  14.175   9.954
52090SOL    HW158109   7.231  14.220   9.970
52090SOL    HW258110   7.172  14.086   9.930
52091SOL     OW58111   6.732   6.318   3.059
52091SOL    HW158112   6.654   6.291   3.108
52091SOL    HW258113   6.799   6.255   3.085
52092SOL     OW58114  11.670   5.787   4.717
52092SOL    HW158115  11.691   5.867   4.668
52092SOL    HW258116  11.706   5.716   4.663
52093SOL     OW58117   3.400   9.708   8.954
52093SOL    HW158118   3.344   9.735   9.027
52093SOL    HW258119   3.346   9.647   8.904
52094SOL     OW58120   3.074   8.384  12.390
52094SOL    HW158121   3.147   8.415  12.444
52094SOL    HW258122   2.996   8.401  12.444
52095SOL     OW58123  12.492   9.940  12.769
52095SOL    HW158124  12.469  10.023  12.811
52095SOL    HW258125  12.435   9.936  12.692
52096SOL     OW58126   3.132  10.242   0.374
52096SOL    HW158127   3.058  10.183   0.366
52096SOL    HW258128   3.101  10.313   0.431
52097SOL     OW58129   7.764   6.908  11.942
52097SOL    HW158130   7.786   6.835  12.000
52097SOL    HW258131   7.768   6.871  11.854
52098SOL     OW58132  10.505  14.379   2.073
52098SOL    HW158133  10.534  14.440   2.141
52098SOL    HW258134  10.413  14.363   2.093
52099SOL     OW58135  10.788  13.478   8.286
52099SOL    HW158136  10.856  13.542   8.305
52099SOL    HW258137  10.757  13.449   8.371
52100SOL     OW58138   4.413   0.497   8.086
52100SOL    HW158139   4.448   0.410   8.107
52100SOL    HW258140   4.382   0.490   7.996
52101SOL     OW58141   6.388  14.408   7.458
52101SOL    HW158142   6.397  14.358   7.377
52101SOL    HW258143   6.471  14.393   7.505
52102SOL     OW58144   6.139  13.813  10.129
52102SOL    HW158145   6.210  13.766  10.086
52102SOL    HW258146   6.165  13.905  10.124
52103SOL     OW58147   6.254  13.488   2.077
52103SOL    HW158148   6.302  13.529   2.149
52103SOL    HW258149   6.295  13.523   1.998
52104SOL     OW58150   6.901  12.371   2.714
52104SOL    HW158151   6.951  12.291   2.701
52104SOL    HW258152   6.825  12.362   2.657
52105SOL     OW58153  10.392   9.004   5.716
52105SOL    HW158154  10.343   9.041   5.789
52105SOL    HW258155  10.400   8.911   5.737
52106SOL     OW58156   0.918  13.976   1.263
52106SOL    HW158157   1.005  13.937   1.268
52106SOL    HW258158   0.888  13.957   1.174
52107SOL     OW58159   7.653  10.506  12.581
52107SOL    HW158160   7.607  10.422  12.586
52107SOL    HW258161   7.632  10.540  12.494
52108SOL     OW58162   9.437   5.346  10.232
52108SOL    HW158163   9.514   5.298  10.201
52108SOL    HW258164   9.365   5.314  10.178
52109SOL     OW58165   0.055   8.311  14.212
52109SOL    HW158166   0.136   8.323  14.164
52109SOL    HW258167   0.067   8.229  14.259
52110SOL     OW58168   7.276   5.953  12.502
52110SOL    HW158169   7.235   5.920  12.423
52110SOL    HW258170   7.214   6.016  12.538
52111SOL     OW58171  12.016  12.510   7.929
52111SOL    HW158172  11.934  12.528   7.883
52111SOL    HW258173  12.011  12.565   8.008
52112SOL     OW58174   3.886  14.652   4.565
52112SOL    HW158175   3.939  14.694   4.633
52112SOL    HW258176   3.813  14.713   4.550
52113SOL     OW58177   7.572   4.320   0.143
52113SOL    HW158178   7.582   4.295   0.051
52113SOL    HW258179   7.524   4.403   0.139
52114SOL     OW58180  10.406  12.754   7.762
52114SOL    HW158181  10.385  12.731   7.853
52114SOL    HW258182  10.492  12.795   7.767
52115SOL     OW58183   3.769  14.087  10.650
52115SOL    HW158184   3.749  13.998  10.678
52115SOL    HW258185   3.775  14.137  10.732
52116SOL     OW58186   4.983   2.010   5.607
52116SOL    HW158187   4.900   1.981   5.646
52116SOL    HW258188   4.963   2.023   5.514
52117SOL     OW58189   5.658   6.330  12.047
52117SOL    HW158190   5.576   6.376  12.064
52117SOL    HW258191   5.644   6.285  11.964
52118SOL     OW58192  13.044  10.267   5.365
52118SOL    HW158193  13.138  10.283   5.366
52118SOL    HW258194  13.014  10.304   5.282
52119SOL     OW58195   3.220   5.107   7.789
52119SOL    HW158196   3.195   5.031   7.737
52119SOL    HW258197   3.209   5.079   7.880
52120SOL     OW58198   2.487  11.056  12.954
52120SOL    HW158199   2.505  11.001  12.877
52120SOL    HW258200   2.461  11.141  12.918
52121SOL     OW58201  14.019  13.262  10.398
52121SOL    HW158202  14.107  13.234  10.423
52121SOL    HW258203  13.997  13.208  10.323
52122SOL     OW58204   6.726  11.334  12.736
52122SOL    HW158205   6.794  11.313  12.671
52122SOL    HW258206   6.754  11.417  12.774
52123SOL     OW58207  12.932   5.501   1.657
52123SOL    HW158208  12.948   5.552   1.577
52123SOL    HW258209  12.983   5.421   1.646
52124SOL     OW58210  14.434  11.927   4.229
52124SOL    HW158211  14.429  12.002   4.288
52124SOL    HW258212  14.520  11.889   4.245
52125SOL     OW58213   0.040   9.528   3.902
52125SOL    HW158214   0.097   9.498   3.832
52125SOL    HW258215   0.024   9.450   3.955
52126SOL     OW58216   7.327   9.862   3.770
52126SOL    HW158217   7.330   9.935   3.707
52126SOL    HW258218   7.370   9.790   3.724
52127SOL     OW58219  10.940   6.321   4.219
52127SOL    HW158220  10.874   6.279   4.275
52127SOL    HW258221  11.023   6.303   4.263
52128SOL     OW58222   4.523   3.719   4.736
52128SOL    HW158223   4.508   3.625   4.721
52128SOL    HW258224   4.515   3.759   4.649
52129SOL     OW58225  14.498   6.778  13.066
52129SOL    HW158226  14.434   6.790  13.137
52129SOL    HW258227  14.573   6.735  13.108
52130SOL     OW58228   5.429  11.313   9.107
52130SOL    HW158229   5.412  11.399   9.070
52130SOL    HW258230   5.479  11.331   9.187
52131SOL     OW58231   1.337   1.329  14.695
52131SOL    HW158232   1.416   1.354  14.742
52131SOL    HW258233   1.311   1.245  14.734
52132SOL     OW58234   3.522   9.679   4.282
52132SOL    HW158235   3.536   9.695   4.189
52132SOL    HW258236   3.573   9.747   4.326
52133SOL     OW58237  14.824   3.982   5.768
52133SOL    HW158238  14.755   4.030   5.722
52133SOL    HW258239  14.793   3.975   5.858
52134SOL     OW58240   4.200  11.881  11.079
52134SOL    HW158241   4.111  11.847  11.074
52134SOL    HW258242   4.193  11.961  11.132
52135SOL     OW58243   4.458   3.277  10.868
52135SOL    HW158244   4.487   3.186  10.859
52135SOL    HW258245   4.365   3.275  10.847
52136SOL     OW58246  14.560   3.801   1.184
52136SOL    HW158247  14.474   3.821   1.145
52136SOL    HW258248  14.620   3.861   1.140
52137SOL     OW58249   2.227   7.847   9.380
52137SOL    HW158250   2.184   7.851   9.295
52137SOL    HW258251   2.230   7.938   9.410
52138SOL     OW58252   0.324   9.130  13.566
52138SOL    HW158253   0.237   9.163  13.588
52138SOL    HW258254   0.309   9.068  13.495
52139SOL     OW58255   3.813  10.999   1.133
52139SOL    HW158256   3.750  10.928   1.145
52139SOL    HW258257   3.760  11.074   1.105
52140SOL     OW58258   4.917   0.512   5.589
52140SOL    HW158259   4.986   0.561   5.635
52140SOL    HW258260   4.858   0.483   5.659
52141SOL     OW58261   7.246   4.712  12.411
52141SOL    HW158262   7.285   4.728  12.496
52141SOL    HW258263   7.309   4.747  12.348
52142SOL     OW58264   8.063  11.694   2.867
52142SOL    HW158265   8.130  11.754   2.899
52142SOL    HW258266   8.073  11.696   2.772
52143SOL     OW58267   6.501  14.003  10.236
52143SOL    HW158268   6.481  13.923  10.285
52143SOL    HW258269   6.463  14.074  10.288
52144SOL     OW58270   0.633   2.293   6.599
52144SOL    HW158271   0.657   2.212   6.643
52144SOL    HW258272   0.705   2.310   6.538
52145SOL     OW58273   3.931  14.825  10.576
52145SOL    HW158274   3.900  14.859  10.492
52145SOL    HW258275   4.025  14.840  10.575
52146SOL     OW58276   1.567   8.863  11.161
52146SOL    HW158277   1.518   8.923  11.104
52146SOL    HW258278   1.590   8.790  11.104
52147SOL     OW58279   2.765   6.178  14.707
52147SOL    HW158280   2.774   6.268  14.675
52147SOL    HW258281   2.674   6.171  14.733
52148SOL     OW58282   3.038   7.218   1.744
52148SOL    HW158283   2.974   7.250   1.680
52148SOL    HW258284   3.031   7.279   1.817
52149SOL     OW58285   8.806   7.583  11.942
52149SOL    HW158286   8.791   7.671  11.908
52149SOL    HW258287   8.742   7.528  11.897
52150SOL     OW58288   7.105  10.983  11.395
52150SOL    HW158289   7.049  10.984  11.318
52150SOL    HW258290   7.058  10.930  11.459
52151SOL     OW58291  13.350   2.394  14.659
52151SOL    HW158292  13.258   2.377  14.637
52151SOL    HW258293  13.391   2.307  14.659
52152SOL     OW58294  11.144   9.617   6.162
52152SOL    HW158295  11.155   9.580   6.249
52152SOL    HW258296  11.215   9.578   6.110
52153SOL     OW58297   6.424  11.245   7.823
52153SOL    HW158298   6.487  11.198   7.878
52153SOL    HW258299   6.342  11.244   7.872
52154SOL     OW58300  14.088   6.009   0.246
52154SOL    HW158301  14.136   6.061   0.310
52154SOL    HW258302  14.042   5.943   0.298
52155SOL     OW58303  12.628   5.504  11.310
52155SOL    HW158304  12.603   5.412  11.312
52155SOL    HW258305  12.624   5.533  11.401
52156SOL     OW58306   4.615   7.497  13.097
52156SOL    HW158307   4.690   7.541  13.137
52156SOL    HW258308   4.639   7.404  13.096
52157SOL     OW58309  12.784  10.691   2.007
52157SOL    HW158310  12.818  10.671   2.094
52157SOL    HW258311  12.808  10.782   1.992
52158SOL     OW58312  10.174   6.430   7.842
52158SOL    HW158313  10.144   6.458   7.928
52158SOL    HW258314  10.136   6.343   7.830
52159SOL     OW58315   7.631   1.495   1.539
52159SOL    HW158316   7.624   1.472   1.632
52159SOL    HW258317   7.607   1.415   1.493
52160SOL     OW58318   5.208  10.784  10.364
52160SOL    HW158319   5.253  10.864  10.393
52160SOL    HW258320   5.278  10.730  10.326
52161SOL     OW58321   9.161   8.900   3.721
52161SOL    HW158322   9.229   8.845   3.682
52161SOL    HW258323   9.123   8.947   3.647
52162SOL     OW58324   7.154  13.323   6.395
52162SOL    HW158325   7.161  13.229   6.377
52162SOL    HW258326   7.063  13.344   6.377
52163SOL     OW58327  12.225  10.267   7.388
52163SOL    HW158328  12.273  10.200   7.436
52163SOL    HW258329  12.270  10.274   7.304
52164SOL     OW58330   3.100   4.290   7.345
52164SOL    HW158331   3.126   4.367   7.295
52164SOL    HW258332   3.027   4.253   7.296
52165SOL     OW58333   0.725   8.221   8.434
52165SOL    HW158334   0.785   8.187   8.367
52165SOL    HW258335   0.744   8.314   8.438
52166SOL     OW58336   5.175   2.260   2.427
52166SOL    HW158337   5.115   2.186   2.414
52166SOL    HW258338   5.260   2.226   2.399
52167SOL     OW58339  10.879   5.593  12.112
52167SOL    HW158340  10.809   5.552  12.162
52167SOL    HW258341  10.841   5.609  12.025
52168SOL     OW58342  11.276   4.303   2.459
52168SOL    HW158343  11.261   4.243   2.532
52168SOL    HW258344  11.221   4.269   2.389
52169SOL     OW58345   7.065   8.573   4.708
52169SOL    HW158346   7.075   8.523   4.627
52169SOL    HW258347   7.124   8.648   4.697
52170SOL     OW58348  11.945   5.720  10.570
52170SOL    HW158349  11.905   5.800  10.538
52170SOL    HW258350  11.916   5.653  10.508
52171SOL     OW58351   3.844  11.847  10.141
52171SOL    HW158352   3.769  11.879  10.092
52171SOL    HW258353   3.817  11.850  10.233
52172SOL     OW58354  11.931   1.476  14.383
52172SOL    HW158355  11.919   1.571  14.390
52172SOL    HW258356  11.999   1.465  14.317
52173SOL     OW58357   4.270  12.836   8.527
52173SOL    HW158358   4.355  12.793   8.539
52173SOL    HW258359   4.235  12.798   8.446
52174SOL     OW58360   3.419   8.973   1.735
52174SOL    HW158361   3.502   8.942   1.700
52174SOL    HW258362   3.356   8.906   1.711
52175SOL     OW58363   3.050   7.245   4.791
52175SOL    HW158364   3.051   7.197   4.708
52175SOL    HW258365   2.957   7.261   4.809
52176SOL     OW58366   9.184  10.349  13.928
52176SOL    HW158367   9.157  10.261  13.903
52176SOL    HW258368   9.279  10.350  13.914
52177SOL     OW58369  14.811   1.757   9.293
52177SOL    HW158370  14.865   1.833   9.272
52177SOL    HW258371  14.792   1.766   9.386
52178SOL     OW58372  10.196   1.407   1.328
52178SOL    HW158373  10.103   1.415   1.308
52178SOL    HW258374  10.235   1.374   1.248
52179SOL     OW58375   8.636   9.393  12.687
52179SOL    HW158376   8.650   9.404  12.781
52179SOL    HW258377   8.595   9.474  12.659
52180SOL     OW58378  11.646   6.319   7.160
52180SOL    HW158379  11.605   6.368   7.089
52180SOL    HW258380  11.728   6.288   7.123
52181SOL     OW58381  14.164  12.188   6.436
52181SOL    HW158382  14.258  12.170   6.445
52181SOL    HW258383  14.126  12.158   6.518
52182SOL     OW58384   3.712   6.683   4.798
52182SOL    HW158385   3.762   6.607   4.767
52182SOL    HW258386   3.753   6.707   4.881
52183SOL     OW58387   6.654   4.470   9.403
52183SOL    HW158388   6.736   4.470   9.451
52183SOL    HW258389   6.673   4.420   9.323
52184SOL     OW58390  10.121   1.595   9.476
52184SOL    HW158391  10.151   1.559   9.393
52184SOL    HW258392  10.120   1.690   9.462
52185SOL     OW58393  10.625   9.870   7.006
52185SOL    HW158394  10.592   9.840   6.921
52185SOL    HW258395  10.721   9.864   6.998
52186SOL     OW58396   2.274   2.524  10.049
52186SOL    HW158397   2.263   2.493  10.139
52186SOL    HW258398   2.317   2.609  10.058
52187SOL     OW58399  12.437  12.825  13.987
52187SOL    HW158400  12.423  12.838  14.080
52187SOL    HW258401  12.501  12.754  13.981
52188SOL     OW58402   5.183  13.854   1.024
52188SOL    HW158403   5.118  13.920   1.000
52188SOL    HW258404   5.179  13.849   1.119
52189SOL     OW58405   3.925   8.246   2.082
52189SOL    HW158406   3.883   8.328   2.057
52189SOL    HW258407   3.903   8.186   2.011
52190SOL     OW58408   0.804  11.175   1.904
52190SOL    HW158409   0.844  11.214   1.981
52190SOL    HW258410   0.748  11.244   1.868
52191SOL     OW58411   9.644   5.627  13.271
52191SOL    HW158412   9.682   5.582  13.347
52191SOL    HW258413   9.717   5.634  13.209
52192SOL     OW58414  11.711  10.889   3.752
52192SOL    HW158415  11.735  10.975   3.785
52192SOL    HW258416  11.615  10.888   3.756
52193SOL     OW58417   5.725   2.366   4.861
52193SOL    HW158418   5.806   2.350   4.813
52193SOL    HW258419   5.709   2.460   4.852
52194SOL     OW58420  13.955   2.503  11.900
52194SOL    HW158421  14.043   2.465  11.905
52194SOL    HW258422  13.966   2.581  11.845
52195SOL     OW58423   3.820   5.008  12.165
52195SOL    HW158424   3.767   5.075  12.121
52195SOL    HW258425   3.906   5.049  12.176
52196SOL     OW58426   9.701  10.675   8.054
52196SOL    HW158427   9.723  10.608   8.119
52196SOL    HW258428   9.618  10.710   8.083
52197SOL     OW58429  12.948  11.808   7.226
52197SOL    HW158430  12.923  11.766   7.308
52197SOL    HW258431  12.872  11.861   7.202
52198SOL     OW58432   7.831   9.820  11.191
52198SOL    HW158433   7.799   9.794  11.105
52198SOL    HW258434   7.753   9.852  11.237
52199SOL     OW58435   8.797   7.532  12.960
52199SOL    HW158436   8.723   7.517  12.901
52199SOL    HW258437   8.875   7.515  12.907
52200SOL     OW58438   0.579   6.592  11.235
52200SOL    HW158439   0.623   6.528  11.291
52200SOL    HW258440   0.647   6.622  11.175
52201SOL     OW58441   3.553  14.221   5.569
52201SOL    HW158442   3.631  14.277   5.572
52201SOL    HW258443   3.536  14.209   5.476
52202SOL     OW58444  10.195   5.316  13.121
52202SOL    HW158445  10.147   5.397  13.137
52202SOL    HW258446  10.144   5.270  13.055
52203SOL     OW58447   0.831   3.984   7.226
52203SOL    HW158448   0.877   4.032   7.294
52203SOL    HW258449   0.895   3.975   7.155
52204SOL     OW58450  14.873   2.290  11.090
52204SOL    HW158451  14.828   2.209  11.067
52204SOL    HW258452   0.013   2.334  11.006
52205SOL     OW58453   5.872   4.082   0.558
52205SOL    HW158454   5.915   4.130   0.628
52205SOL    HW258455   5.786   4.123   0.550
52206SOL     OW58456   7.727  13.594   3.303
52206SOL    HW158457   7.669  13.660   3.342
52206SOL    HW258458   7.814  13.631   3.309
52207SOL     OW58459   8.137   0.696   0.327
52207SOL    HW158460   8.197   0.764   0.298
52207SOL    HW258461   8.050   0.732   0.309
52208SOL     OW58462  14.269   9.761   1.774
52208SOL    HW158463  14.262   9.671   1.740
52208SOL    HW258464  14.182   9.780   1.807
52209SOL     OW58465   3.334  14.697   3.754
52209SOL    HW158466   3.304  14.666   3.669
52209SOL    HW258467   3.398  14.632   3.783
52210SOL     OW58468   2.922   0.808   7.043
52210SOL    HW158469   3.002   0.762   7.069
52210SOL    HW258470   2.871   0.741   6.997
52211SOL     OW58471  10.024   3.064   3.954
52211SOL    HW158472  10.116   3.092   3.958
52211SOL    HW258473  10.028   2.969   3.966
52212SOL     OW58474   6.302   0.850   0.227
52212SOL    HW158475   6.302   0.754   0.219
52212SOL    HW258476   6.333   0.867   0.315
52213SOL     OW58477  11.430  13.239  14.281
52213SOL    HW158478  11.352  13.290  14.304
52213SOL    HW258479  11.395  13.152  14.259
52214SOL     OW58480   9.520   9.715   6.598
52214SOL    HW158481   9.464   9.658   6.545
52214SOL    HW258482   9.463   9.789   6.621
52215SOL     OW58483  14.782  14.104   4.825
52215SOL    HW158484  14.853  14.131   4.884
52215SOL    HW258485  14.709  14.083   4.884
52216SOL     OW58486  14.629   2.302   4.020
52216SOL    HW158487  14.650   2.220   3.975
52216SOL    HW258488  14.563   2.277   4.085
52217SOL     OW58489  13.183  13.312   8.245
52217SOL    HW158490  13.226  13.328   8.161
52217SOL    HW258491  13.214  13.225   8.271
52218SOL     OW58492  10.754  14.508   8.312
52218SOL    HW158493  10.771  14.588   8.362
52218SOL    HW258494  10.841  14.474   8.290
52219SOL     OW58495   9.579   3.656   8.446
52219SOL    HW158496   9.511   3.688   8.506
52219SOL    HW258497   9.539   3.580   8.403
52220SOL     OW58498   6.288   4.818   7.767
52220SOL    HW158499   6.363   4.760   7.754
52220SOL    HW258500   6.316   4.901   7.729
52221SOL     OW58501   0.961   1.048   6.774
52221SOL    HW158502   1.020   1.079   6.842
52221SOL    HW258503   0.875   1.081   6.799
52222SOL     OW58504   3.311   1.604   5.208
52222SOL    HW158505   3.333   1.650   5.127
52222SOL    HW258506   3.344   1.660   5.278
52223SOL     OW58507   2.819   5.979   4.347
52223SOL    HW158508   2.778   5.980   4.261
52223SOL    HW258509   2.746   5.983   4.409
52224SOL     OW58510  14.136   0.141  10.766
52224SOL    HW158511  14.106   0.053  10.785
52224SOL    HW258512  14.192   0.132  10.689
52225SOL     OW58513   2.009  12.557  13.918
52225SOL    HW158514   1.946  12.488  13.898
52225SOL    HW258515   2.028  12.547  14.011
52226SOL     OW58516  13.129  10.572   9.173
52226SOL    HW158517  13.086  10.490   9.151
52226SOL    HW258518  13.069  10.616   9.234
52227SOL     OW58519   9.167   3.079  14.370
52227SOL    HW158520   9.239   3.017  14.385
52227SOL    HW258521   9.190   3.155  14.423
52228SOL     OW58522   3.617   5.218  13.290
52228SOL    HW158523   3.609   5.128  13.323
52228SOL    HW258524   3.662   5.265  13.360
52229SOL     OW58525   1.327   7.234   5.312
52229SOL    HW158526   1.420   7.240   5.335
52229SOL    HW258527   1.286   7.305   5.362
52230SOL     OW58528  11.055  11.436   8.074
52230SOL    HW158529  10.968  11.399   8.058
52230SOL    HW258530  11.054  11.459   8.167
52231SOL     OW58531   7.875  12.126   7.523
52231SOL    HW158532   7.931  12.164   7.455
52231SOL    HW258533   7.929  12.128   7.602
52232SOL     OW58534  12.115   7.567  11.411
52232SOL    HW158535  12.139   7.653  11.375
52232SOL    HW258536  12.151   7.569  11.500
52233SOL     OW58537  13.105  11.515  14.661
52233SOL    HW158538  13.124  11.554  14.747
52233SOL    HW258539  13.190  11.492  14.625
52234SOL     OW58540   5.227   4.732  10.047
52234SOL    HW158541   5.229   4.825  10.069
52234SOL    HW258542   5.319   4.708  10.037
52235SOL     OW58543   0.407   1.021  11.527
52235SOL    HW158544   0.334   1.009  11.466
52235SOL    HW258545   0.447   0.934  11.534
52236SOL     OW58546  10.400   2.446   6.079
52236SOL    HW158547  10.449   2.443   5.997
52236SOL    HW258548  10.394   2.355   6.107
52237SOL     OW58549   1.205   4.748  13.645
52237SOL    HW158550   1.300   4.758  13.651
52237SOL    HW258551   1.176   4.825  13.596
52238SOL     OW58552  11.479  10.368   1.004
52238SOL    HW158553  11.464  10.353   0.911
52238SOL    HW258554  11.533  10.447   1.008
52239SOL     OW58555  12.272   2.819   2.915
52239SOL    HW158556  12.282   2.887   2.849
52239SOL    HW258557  12.191   2.774   2.891
52240SOL     OW58558   0.134  12.365   8.959
52240SOL    HW158559   0.054  12.374   9.010
52240SOL    HW258560   0.113  12.404   8.874
52241SOL     OW58561   7.326   2.208   2.683
52241SOL    HW158562   7.301   2.116   2.691
52241SOL    HW258563   7.275   2.253   2.749
52242SOL     OW58564   8.995   8.986   6.710
52242SOL    HW158565   8.970   8.953   6.796
52242SOL    HW258566   9.049   8.916   6.672
52243SOL     OW58567   1.824   0.471   0.336
52243SOL    HW158568   1.916   0.455   0.357
52243SOL    HW258569   1.810   0.563   0.360
52244SOL     OW58570  10.800   7.779   8.513
52244SOL    HW158571  10.707   7.793   8.494
52244SOL    HW258572  10.808   7.684   8.525
52245SOL     OW58573  10.129   3.399   8.374
52245SOL    HW158574  10.192   3.341   8.331
52245SOL    HW258575  10.107   3.354   8.456
52246SOL     OW58576   8.371   9.008  10.727
52246SOL    HW158577   8.330   8.943  10.670
52246SOL    HW258578   8.299   9.066  10.753
52247SOL     OW58579   2.441   5.743  13.302
52247SOL    HW158580   2.367   5.762  13.245
52247SOL    HW258581   2.404   5.737  13.390
52248SOL     OW58582  11.327  11.414   9.614
52248SOL    HW158583  11.314  11.321   9.626
52248SOL    HW258584  11.344  11.448   9.702
52249SOL     OW58585   4.175   9.576  11.208
52249SOL    HW158586   4.184   9.525  11.128
52249SOL    HW258587   4.131   9.657  11.181
52250SOL     OW58588  14.736  10.314   3.390
52250SOL    HW158589  14.742  10.337   3.298
52250SOL    HW258590  14.766  10.391   3.437
52251SOL     OW58591   1.934  11.433  14.353
52251SOL    HW158592   2.009  11.443  14.295
52251SOL    HW258593   1.893  11.520  14.355
52252SOL     OW58594   5.953  14.510  13.233
52252SOL    HW158595   5.991  14.558  13.159
52252SOL    HW258596   5.859  14.510  13.215
52253SOL     OW58597  14.137   2.543  14.836
52253SOL    HW158598  14.200   2.613  14.854
52253SOL    HW258599  14.160   2.473   0.023
52254SOL     OW58600  10.395   2.042   3.647
52254SOL    HW158601  10.354   1.960   3.619
52254SOL    HW258602  10.472   2.050   3.590
52255SOL     OW58603  14.295   1.557   5.872
52255SOL    HW158604  14.378   1.566   5.917
52255SOL    HW258605  14.258   1.645   5.870
52256SOL     OW58606   2.681   7.507  14.488
52256SOL    HW158607   2.741   7.452  14.538
52256SOL    HW258608   2.737   7.554  14.426
52257SOL     OW58609   5.098   8.172   7.274
52257SOL    HW158610   5.146   8.248   7.305
52257SOL    HW258611   5.165   8.116   7.234
52258SOL     OW58612   7.091  14.689  10.809
52258SOL    HW158613   7.079  14.625  10.739
52258SOL    HW258614   7.042  14.766  10.781
52259SOL     OW58615   6.626  10.572   2.420
52259SOL    HW158616   6.563  10.554   2.350
52259SOL    HW258617   6.574  10.567   2.500
52260SOL     OW58618   7.360   2.579   1.636
52260SOL    HW158619   7.443   2.626   1.650
52260SOL    HW258620   7.382   2.512   1.571
52261SOL     OW58621  14.056   9.353   3.904
52261SOL    HW158622  13.985   9.359   3.969
52261SOL    HW258623  14.124   9.410   3.938
52262SOL     OW58624   5.879   7.852   1.666
52262SOL    HW158625   5.917   7.893   1.744
52262SOL    HW258626   5.859   7.925   1.608
52263SOL     OW58627   1.946   6.298   1.161
52263SOL    HW158628   2.032   6.328   1.130
52263SOL    HW258629   1.903   6.263   1.083
52264SOL     OW58630  14.126   5.920  14.342
52264SOL    HW158631  14.079   5.934  14.260
52264SOL    HW258632  14.218   5.934  14.319
52265SOL     OW58633   9.068  14.105  11.213
52265SOL    HW158634   9.003  14.151  11.266
52265SOL    HW258635   9.062  14.014  11.242
52266SOL     OW58636   7.791   2.018   0.703
52266SOL    HW158637   7.835   1.935   0.682
52266SOL    HW258638   7.844   2.085   0.660
52267SOL     OW58639   6.122   4.644   2.151
52267SOL    HW158640   6.048   4.635   2.210
52267SOL    HW258641   6.084   4.677   2.069
52268SOL     OW58642  12.849  12.340   6.835
52268SOL    HW158643  12.848  12.383   6.921
52268SOL    HW258644  12.839  12.412   6.772
52269SOL     OW58645  11.798   7.056   2.028
52269SOL    HW158646  11.875   7.000   2.033
52269SOL    HW258647  11.741   7.014   1.964
52270SOL     OW58648   2.272  12.282   2.039
52270SOL    HW158649   2.269  12.217   1.969
52270SOL    HW258650   2.180  12.295   2.064
52271SOL     OW58651   7.566   0.421   5.061
52271SOL    HW158652   7.585   0.395   4.970
52271SOL    HW258653   7.582   0.515   5.063
52272SOL     OW58654  12.904   1.646  11.919
52272SOL    HW158655  12.962   1.696  11.976
52272SOL    HW258656  12.962   1.611  11.851
52273SOL     OW58657  10.989   5.304   3.545
52273SOL    HW158658  10.968   5.219   3.584
52273SOL    HW258659  10.911   5.357   3.560
52274SOL     OW58660  11.942   0.645   8.436
52274SOL    HW158661  11.965   0.702   8.509
52274SOL    HW258662  11.907   0.704   8.369
52275SOL     OW58663   3.040   8.285   5.620
52275SOL    HW158664   2.957   8.248   5.652
52275SOL    HW258665   3.108   8.232   5.662
52276SOL     OW58666   7.898  13.248   2.623
52276SOL    HW158667   7.975  13.279   2.575
52276SOL    HW258668   7.921  13.159   2.651
52277SOL     OW58669  14.768   4.911  13.385
52277SOL    HW158670  14.737   4.827  13.350
52277SOL    HW258671  14.707   4.932  13.456
52278SOL     OW58672   7.790   1.379  11.529
52278SOL    HW158673   7.748   1.314  11.585
52278SOL    HW258674   7.880   1.384  11.561
52279SOL     OW58675   4.163  13.395  11.327
52279SOL    HW158676   4.103  13.326  11.356
52279SOL    HW258677   4.187  13.440  11.408
52280SOL     OW58678   3.854  12.742   0.988
52280SOL    HW158679   3.948  12.756   1.000
52280SOL    HW258680   3.847  12.649   0.965
52281SOL     OW58681  14.037   0.524  12.389
52281SOL    HW158682  13.951   0.554  12.360
52281SOL    HW258683  14.024   0.432  12.414
52282SOL     OW58684   8.375  12.536  11.758
52282SOL    HW158685   8.422  12.619  11.749
52282SOL    HW258686   8.435  12.479  11.806
52283SOL     OW58687  10.647   5.352   4.972
52283SOL    HW158688  10.638   5.326   4.880
52283SOL    HW258689  10.741   5.355   4.987
52284SOL     OW58690   1.102  14.515   2.341
52284SOL    HW158691   1.033  14.504   2.276
52284SOL    HW258692   1.120  14.609   2.341
52285SOL     OW58693  12.915  12.277   1.259
52285SOL    HW158694  12.845  12.215   1.279
52285SOL    HW258695  12.870  12.359   1.243
52286SOL     OW58696   5.087   3.723   8.687
52286SOL    HW158697   5.138   3.804   8.686
52286SOL    HW258698   5.096   3.687   8.599
52287SOL     OW58699  11.002  13.457  10.526
52287SOL    HW158700  10.945  13.513  10.579
52287SOL    HW258701  10.944  13.388  10.494
52288SOL     OW58702   4.736   8.119   7.059
52288SOL    HW158703   4.723   8.213   7.076
52288SOL    HW258704   4.661   8.077   7.100
52289SOL     OW58705   2.977   1.728  12.425
52289SOL    HW158706   2.990   1.754  12.516
52289SOL    HW258707   2.945   1.638  12.430
52290SOL     OW58708   5.170   5.430  14.118
52290SOL    HW158709   5.189   5.451  14.026
52290SOL    HW258710   5.111   5.499  14.147
52291SOL     OW58711  13.876   2.221   0.703
52291SOL    HW158712  13.944   2.207   0.768
52291SOL    HW258713  13.897   2.306   0.664
52292SOL     OW58714   5.226   2.685  14.553
52292SOL    HW158715   5.134   2.684  14.582
52292SOL    HW258716   5.230   2.616  14.487
52293SOL     OW58717  14.509   5.805   5.749
52293SOL    HW158718  14.567   5.827   5.822
52293SOL    HW258719  14.431   5.859   5.763
52294SOL     OW58720   9.401   6.258  10.977
52294SOL    HW158721   9.447   6.191  10.927
52294SOL    HW258722   9.342   6.299  10.913
52295SOL     OW58723   1.898  14.298   4.017
52295SOL    HW158724   1.834  14.282   4.086
52295SOL    HW258725   1.900  14.216   3.967
52296SOL     OW58726   8.154   9.374   7.829
52296SOL    HW158727   8.240   9.358   7.868
52296SOL    HW258728   8.110   9.289   7.833
52297SOL     OW58729   0.479  13.688   8.992
52297SOL    HW158730   0.420  13.755   9.028
52297SOL    HW258731   0.444  13.606   9.025
52298SOL     OW58732   5.131   3.105  11.070
52298SOL    HW158733   5.101   3.062  10.990
52298SOL    HW258734   5.219   3.136  11.048
52299SOL     OW58735  12.538   6.073  14.308
52299SOL    HW158736  12.588   6.094  14.228
52299SOL    HW258737  12.577   6.128  14.376
52300SOL     OW58738   9.056  11.829   4.750
52300SOL    HW158739   8.961  11.824   4.738
52300SOL    HW258740   9.091  11.831   4.661
52301SOL     OW58741  11.146  14.713   7.173
52301SOL    HW158742  11.163  14.782   7.108
52301SOL    HW258743  11.230  14.699   7.216
52302SOL     OW58744   4.591   3.699  11.323
52302SOL    HW158745   4.531   3.625  11.313
52302SOL    HW258746   4.678   3.661  11.318
52303SOL     OW58747   3.719   7.012   7.700
52303SOL    HW158748   3.737   6.963   7.620
52303SOL    HW258749   3.805   7.038   7.732
52304SOL     OW58750   5.580   4.492  13.318
52304SOL    HW158751   5.547   4.513  13.406
52304SOL    HW258752   5.587   4.576  13.274
52305SOL     OW58753   5.455  11.490   6.450
52305SOL    HW158754   5.428  11.528   6.534
52305SOL    HW258755   5.376  11.451   6.414
52306SOL     OW58756   8.226   0.199   6.563
52306SOL    HW158757   8.193   0.156   6.484
52306SOL    HW258758   8.184   0.153   6.635
52307SOL     OW58759   3.764  11.082   8.984
52307SOL    HW158760   3.826  11.094   9.055
52307SOL    HW258761   3.728  10.994   8.997
52308SOL     OW58762  12.345   4.479   4.495
52308SOL    HW158763  12.416   4.418   4.473
52308SOL    HW258764  12.322   4.521   4.412
52309SOL     OW58765   1.394   8.161   1.885
52309SOL    HW158766   1.463   8.214   1.926
52309SOL    HW258767   1.416   8.071   1.910
52310SOL     OW58768  11.507   0.942  11.710
52310SOL    HW158769  11.416   0.923  11.684
52310SOL    HW258770  11.549   0.856  11.715
52311SOL     OW58771   6.239  14.235   3.898
52311SOL    HW158772   6.277  14.227   3.985
52311SOL    HW258773   6.310  14.212   3.838
52312SOL     OW58774   3.812  13.482  12.880
52312SOL    HW158775   3.813  13.387  12.870
52312SOL    HW258776   3.764  13.514  12.803
52313SOL     OW58777  10.914   4.587  13.059
52313SOL    HW158778  10.841   4.649  13.059
52313SOL    HW258779  10.940   4.581  12.967
52314SOL     OW58780   3.344   9.157   9.767
52314SOL    HW158781   3.356   9.171   9.673
52314SOL    HW258782   3.261   9.202   9.787
52315SOL     OW58783   0.136   4.997  12.327
52315SOL    HW158784   0.155   4.908  12.299
52315SOL    HW258785   0.123   5.046  12.246
52316SOL     OW58786   7.167  12.590  13.497
52316SOL    HW158787   7.145  12.507  13.455
52316SOL    HW258788   7.261  12.600  13.484
52317SOL     OW58789   3.445   0.880   1.202
52317SOL    HW158790   3.398   0.801   1.230
52317SOL    HW258791   3.388   0.919   1.136
52318SOL     OW58792  11.146  12.960  12.845
52318SOL    HW158793  11.121  12.902  12.773
52318SOL    HW258794  11.114  12.914  12.924
52319SOL     OW58795   3.797   1.190  13.228
52319SOL    HW158796   3.840   1.129  13.288
52319SOL    HW258797   3.862   1.258  13.212
52320SOL     OW58798   9.192   6.314  12.088
52320SOL    HW158799   9.147   6.233  12.063
52320SOL    HW258800   9.277   6.284  12.121
52321SOL     OW58801   0.891   6.633  13.625
52321SOL    HW158802   0.933   6.548  13.630
52321SOL    HW258803   0.825   6.623  13.556
52322SOL     OW58804  12.713   0.771  10.807
52322SOL    HW158805  12.807   0.776  10.790
52322SOL    HW258806  12.676   0.739  10.725
52323SOL     OW58807   2.916  13.961   3.612
52323SOL    HW158808   2.905  13.896   3.542
52323SOL    HW258809   2.988  14.016   3.583
52324SOL     OW58810   4.720   4.759   3.151
52324SOL    HW158811   4.717   4.826   3.219
52324SOL    HW258812   4.789   4.788   3.092
52325SOL     OW58813   8.954   6.592   1.102
52325SOL    HW158814   8.942   6.600   1.007
52325SOL    HW258815   9.039   6.631   1.119
52326SOL     OW58816   0.992   1.763  11.274
52326SOL    HW158817   1.052   1.710  11.326
52326SOL    HW258818   1.049   1.817  11.219
52327SOL     OW58819   0.895   8.391  11.537
52327SOL    HW158820   0.933   8.307  11.564
52327SOL    HW258821   0.935   8.409  11.452
52328SOL     OW58822  10.471  10.364   5.296
52328SOL    HW158823  10.505  10.327   5.377
52328SOL    HW258824  10.499  10.303   5.228
52329SOL     OW58825   6.460  13.564   1.902
52329SOL    HW158826   6.555  13.565   1.891
52329SOL    HW258827   6.432  13.654   1.887
52330SOL     OW58828  12.695   5.185   9.188
52330SOL    HW158829  12.692   5.094   9.217
52330SOL    HW258830  12.783   5.198   9.155
52331SOL     OW58831  11.679   0.436  14.021
52331SOL    HW158832  11.720   0.351  14.004
52331SOL    HW258833  11.748   0.500  14.006
52332SOL     OW58834   9.255  14.289   4.877
52332SOL    HW158835   9.275  14.203   4.838
52332SOL    HW258836   9.181  14.321   4.826
52333SOL     OW58837  13.970   4.610  14.445
52333SOL    HW158838  13.999   4.588  14.534
52333SOL    HW258839  13.947   4.703  14.450
52334SOL     OW58840   6.288   3.985   6.880
52334SOL    HW158841   6.369   4.014   6.837
52334SOL    HW258842   6.219   4.004   6.816
52335SOL     OW58843   4.695  13.230  12.008
52335SOL    HW158844   4.640  13.301  12.041
52335SOL    HW258845   4.754  13.272  11.945
52336SOL     OW58846   5.457   2.238   7.516
52336SOL    HW158847   5.510   2.281   7.449
52336SOL    HW258848   5.367   2.246   7.484
52337SOL     OW58849   9.909  10.165   8.137
52337SOL    HW158850   9.913  10.084   8.086
52337SOL    HW258851   9.835  10.214   8.099
52338SOL     OW58852   3.246   8.312   1.326
52338SOL    HW158853   3.263   8.240   1.387
52338SOL    HW258854   3.330   8.328   1.283
52339SOL     OW58855  14.596   6.146   7.114
52339SOL    HW158856  14.646   6.164   7.194
52339SOL    HW258857  14.661   6.151   7.043
52340SOL     OW58858   4.244  13.723   7.827
52340SOL    HW158859   4.334  13.689   7.830
52340SOL    HW258860   4.217  13.725   7.919
52341SOL     OW58861   2.832   8.120  12.503
52341SOL    HW158862   2.739   8.105  12.484
52341SOL    HW258863   2.873   8.128  12.417
52342SOL     OW58864  12.451  10.589   4.019
52342SOL    HW158865  12.546  10.580   4.031
52342SOL    HW258866  12.414  10.572   4.106
52343SOL     OW58867  14.499   7.243  10.569
52343SOL    HW158868  14.458   7.322  10.534
52343SOL    HW258869  14.455   7.228  10.653
52344SOL     OW58870   2.487   8.027   7.151
52344SOL    HW158871   2.490   8.034   7.055
52344SOL    HW258872   2.558   7.966   7.172
52345SOL     OW58873   3.641   9.311  10.434
52345SOL    HW158874   3.693   9.315  10.514
52345SOL    HW258875   3.623   9.218  10.422
52346SOL     OW58876  12.015  12.782   5.439
52346SOL    HW158877  11.967  12.820   5.365
52346SOL    HW258878  11.985  12.831   5.515
52347SOL     OW58879  12.469   2.561   7.374
52347SOL    HW158880  12.450   2.624   7.444
52347SOL    HW258881  12.443   2.606   7.294
52348SOL     OW58882  10.694  14.388   4.652
52348SOL    HW158883  10.777  14.360   4.612
52348SOL    HW258884  10.713  14.389   4.746
52349SOL     OW58885   5.930   7.040   0.657
52349SOL    HW158886   5.992   6.989   0.605
52349SOL    HW258887   5.894   6.978   0.720
52350SOL     OW58888   4.171   6.139   6.137
52350SOL    HW158889   4.105   6.199   6.101
52350SOL    HW258890   4.180   6.070   6.071
52351SOL     OW58891   1.657   2.564  12.911
52351SOL    HW158892   1.670   2.480  12.955
52351SOL    HW258893   1.597   2.611  12.968
52352SOL     OW58894  12.577  12.479  10.654
52352SOL    HW158895  12.661  12.499  10.613
52352SOL    HW258896  12.514  12.539  10.613
52353SOL     OW58897   5.960   6.745   6.049
52353SOL    HW158898   5.989   6.685   5.981
52353SOL    HW258899   5.880   6.705   6.084
52354SOL     OW58900  10.806  12.372   5.946
52354SOL    HW158901  10.869  12.440   5.968
52354SOL    HW258902  10.809  12.366   5.850
52355SOL     OW58903   0.523   6.212  11.239
52355SOL    HW158904   0.483   6.172  11.316
52355SOL    HW258905   0.589   6.271  11.276
52356SOL     OW58906  11.571   8.953  14.367
52356SOL    HW158907  11.639   8.989  14.311
52356SOL    HW258908  11.500   9.017  14.365
52357SOL     OW58909   5.195  11.908   3.479
52357SOL    HW158910   5.246  11.827   3.481
52357SOL    HW258911   5.156  11.910   3.392
52358SOL     OW58912  10.431   7.588   5.345
52358SOL    HW158913  10.514   7.542   5.341
52358SOL    HW258914  10.398   7.586   5.255
52359SOL     OW58915   6.327  13.289   0.388
52359SOL    HW158916   6.245  13.338   0.401
52359SOL    HW258917   6.380  13.309   0.465
52360SOL     OW58918   2.110   2.123   2.434
52360SOL    HW158919   2.122   2.072   2.514
52360SOL    HW258920   2.024   2.096   2.401
52361SOL     OW58921   2.735   5.647   8.697
52361SOL    HW158922   2.766   5.644   8.787
52361SOL    HW258923   2.815   5.654   8.645
52362SOL     OW58924  11.232   6.460  10.308
52362SOL    HW158925  11.247   6.471  10.402
52362SOL    HW258926  11.242   6.366  10.293
52363SOL     OW58927  14.863   5.597   9.572
52363SOL    HW158928  14.825   5.678   9.539
52363SOL    HW258929   0.074   5.623   9.607
52364SOL     OW58930  11.289   0.164  12.831
52364SOL    HW158931  11.255   0.162  12.741
52364SOL    HW258932  11.378   0.130  12.824
52365SOL     OW58933   2.169   0.486   3.225
52365SOL    HW158934   2.139   0.509   3.137
52365SOL    HW258935   2.243   0.545   3.241
52366SOL     OW58936  11.540   6.370   4.023
52366SOL    HW158937  11.536   6.440   3.957
52366SOL    HW258938  11.450   6.338   4.029
52367SOL     OW58939   1.265   8.971  14.512
52367SOL    HW158940   1.224   9.054  14.536
52367SOL    HW258941   1.195   8.921  14.470
52368SOL     OW58942   2.289   2.012   7.812
52368SOL    HW158943   2.228   2.069   7.765
52368SOL    HW258944   2.362   1.999   7.751
52369SOL     OW58945  12.211  12.664   9.367
52369SOL    HW158946  12.272  12.713   9.422
52369SOL    HW258947  12.227  12.572   9.390
52370SOL     OW58948  12.192  10.318  13.077
52370SOL    HW158949  12.187  10.352  12.987
52370SOL    HW258950  12.275  10.351  13.110
52371SOL     OW58951  10.960   2.261   5.200
52371SOL    HW158952  10.908   2.227   5.127
52371SOL    HW258953  10.896   2.289   5.264
52372SOL     OW58954   2.463  10.279   7.578
52372SOL    HW158955   2.436  10.221   7.507
52372SOL    HW258956   2.382  10.300   7.625
52373SOL     OW58957  10.117   9.924   9.339
52373SOL    HW158958  10.207   9.893   9.351
52373SOL    HW258959  10.062   9.856   9.378
52374SOL     OW58960  11.789   2.971   5.969
52374SOL    HW158961  11.782   3.022   5.888
52374SOL    HW258962  11.831   2.889   5.942
52375SOL     OW58963   3.322   4.456  10.430
52375SOL    HW158964   3.334   4.544  10.395
52375SOL    HW258965   3.380   4.401  10.377
52376SOL     OW58966   7.820  13.460  14.629
52376SOL    HW158967   7.841  13.520  14.700
52376SOL    HW258968   7.809  13.516  14.552
52377SOL     OW58969   9.301  11.908   9.233
52377SOL    HW158970   9.214  11.914   9.195
52377SOL    HW258971   9.353  11.974   9.186
52378SOL     OW58972   4.512   0.911   7.042
52378SOL    HW158973   4.568   0.834   7.044
52378SOL    HW258974   4.510   0.938   6.950
52379SOL     OW58975   8.978   8.321   2.331
52379SOL    HW158976   9.026   8.240   2.318
52379SOL    HW258977   9.025   8.386   2.279
52380SOL     OW58978   7.859  13.782   2.798
52380SOL    HW158979   7.939  13.734   2.819
52380SOL    HW258980   7.889  13.856   2.744
52381SOL     OW58981   4.671  13.257   1.976
52381SOL    HW158982   4.621  13.175   1.971
52381SOL    HW258983   4.684  13.271   2.070
52382SOL     OW58984   3.376  10.085  14.442
52382SOL    HW158985   3.318  10.009  14.430
52382SOL    HW258986   3.441  10.077  14.372
52383SOL     OW58987   8.668   9.641  14.808
52383SOL    HW158988   8.578   9.613  14.789
52383SOL    HW258989   8.659   9.708   0.001
52384SOL     OW58990   0.289  14.718   1.057
52384SOL    HW158991   0.296  14.657   1.130
52384SOL    HW258992   0.364  14.777   1.067
52385SOL     OW58993  10.604  14.015   3.860
52385SOL    HW158994  10.617  13.950   3.792
52385SOL    HW258995  10.690  14.053   3.874
52386SOL     OW58996   5.080  10.598  14.631
52386SOL    HW158997   5.069  10.503  14.628
52386SOL    HW258998   5.141  10.617  14.559
52387SOL     OW58999   7.182  10.014   3.953
52387SOL    HW159000   7.252   9.972   3.903
52387SOL    HW259001   7.157  10.090   3.899
52388SOL     OW59002  14.456   0.390  12.696
52388SOL    HW159003  14.366   0.416  12.718
52388SOL    HW259004  14.482   0.451  12.627
52389SOL     OW59005   0.956   2.677   3.870
52389SOL    HW159006   0.876   2.671   3.818
52389SOL    HW259007   0.933   2.639   3.955
52390SOL     OW59008  10.074  10.310   2.420
52390SOL    HW159009  10.020  10.341   2.348
52390SOL    HW259010  10.152  10.274   2.378
52391SOL     OW59011  14.321  11.679   1.923
52391SOL    HW159012  14.369  11.738   1.864
52391SOL    HW259013  14.229  11.694   1.902
52392SOL     OW59014   5.906   3.980  10.197
52392SOL    HW159015   5.904   3.989  10.101
52392SOL    HW259016   5.824   3.936  10.219
52393SOL     OW59017  10.931   1.045   0.178
52393SOL    HW159018  11.016   1.089   0.175
52393SOL    HW259019  10.952   0.952   0.175
52394SOL     OW59020  12.461   2.692  13.992
52394SOL    HW159021  12.535   2.745  14.022
52394SOL    HW259022  12.385   2.728  14.036
52395SOL     OW59023   2.716   3.354   0.533
52395SOL    HW159024   2.710   3.439   0.490
52395SOL    HW259025   2.665   3.295   0.477
52396SOL     OW59026   4.558   6.513   3.972
52396SOL    HW159027   4.501   6.588   3.957
52396SOL    HW259028   4.596   6.529   4.059
52397SOL     OW59029   9.969   2.560  11.569
52397SOL    HW159030   9.985   2.486  11.629
52397SOL    HW259031  10.006   2.636  11.614
52398SOL     OW59032   1.308   6.529   0.022
52398SOL    HW159033   1.224   6.521  14.851
52398SOL    HW259034   1.326   6.623   0.024
52399SOL     OW59035   9.337  12.130   5.874
52399SOL    HW159036   9.285  12.135   5.794
52399SOL    HW259037   9.374  12.218   5.884
52400SOL     OW59038  13.116   1.733  12.067
52400SOL    HW159039  13.075   1.702  12.148
52400SOL    HW259040  13.202   1.691  12.065
52401SOL     OW59041   3.149  14.098   0.468
52401SOL    HW159042   3.103  14.181   0.480
52401SOL    HW259043   3.166  14.065   0.556
52402SOL     OW59044   0.832   1.618  12.444
52402SOL    HW159045   0.858   1.709  12.427
52402SOL    HW259046   0.821   1.580  12.356
52403SOL     OW59047   3.509   4.797   6.985
52403SOL    HW159048   3.530   4.889   7.006
52403SOL    HW259049   3.432   4.777   7.038
52404SOL     OW59050   9.683   6.027   2.303
52404SOL    HW159051   9.757   6.086   2.318
52404SOL    HW259052   9.607   6.077   2.334
52405SOL     OW59053  12.997  11.043   7.040
52405SOL    HW159054  13.023  11.107   6.975
52405SOL    HW259055  13.072  10.985   7.048
52406SOL     OW59056   8.909   7.710  10.157
52406SOL    HW159057   8.873   7.666  10.234
52406SOL    HW259058   8.833   7.748  10.113
52407SOL     OW59059   2.172   7.754   5.276
52407SOL    HW159060   2.217   7.717   5.200
52407SOL    HW259061   2.161   7.846   5.255
52408SOL     OW59062   8.572   4.924  14.275
52408SOL    HW159063   8.483   4.890  14.265
52408SOL    HW259064   8.626   4.846  14.291
52409SOL     OW59065   7.617  10.022   3.070
52409SOL    HW159066   7.598  10.012   3.163
52409SOL    HW259067   7.669   9.945   3.048
52410SOL     OW59068   2.820   4.797   7.546
52410SOL    HW159069   2.881   4.854   7.500
52410SOL    HW259070   2.845   4.708   7.520
52411SOL     OW59071  13.070   0.415  10.011
52411SOL    HW159072  13.134   0.414   9.940
52411SOL    HW259073  12.986   0.432   9.967
52412SOL     OW59074   3.024  14.446   8.129
52412SOL    HW159075   3.104  14.416   8.086
52412SOL    HW259076   3.022  14.540   8.115
52413SOL     OW59077   3.076  14.791   1.448
52413SOL    HW159078   2.983  14.798   1.467
52413SOL    HW259079   3.086  14.705   1.406
52414SOL     OW59080   4.782   0.460   9.938
52414SOL    HW159081   4.744   0.455  10.026
52414SOL    HW259082   4.853   0.396   9.939
52415SOL     OW59083   4.823   4.412  14.353
52415SOL    HW159084   4.731   4.389  14.352
52415SOL    HW259085   4.827   4.494  14.402
52416SOL     OW59086  14.631   4.929   3.972
52416SOL    HW159087  14.689   5.005   3.973
52416SOL    HW259088  14.688   4.856   3.946
52417SOL     OW59089   0.792  14.832   3.759
52417SOL    HW159090   0.735  14.860   3.830
52417SOL    HW259091   0.773  14.739   3.748
52418SOL     OW59092  10.129   3.395   0.867
52418SOL    HW159093  10.218   3.369   0.843
52418SOL    HW259094  10.112   3.348   0.949
52419SOL     OW59095  12.757   3.371   1.416
52419SOL    HW159096  12.792   3.353   1.328
52419SOL    HW259097  12.740   3.284   1.453
52420SOL     OW59098  11.200   6.437   5.149
52420SOL    HW159099  11.106   6.429   5.166
52420SOL    HW259100  11.220   6.364   5.091
52421SOL     OW59101  10.799   7.567   4.474
52421SOL    HW159102  10.763   7.481   4.451
52421SOL    HW259103  10.760   7.627   4.411
52422SOL     OW59104   8.511   2.310  10.758
52422SOL    HW159105   8.420   2.291  10.735
52422SOL    HW259106   8.516   2.405  10.765
52423SOL     OW59107   8.123   2.199   6.155
52423SOL    HW159108   8.064   2.141   6.108
52423SOL    HW259109   8.134   2.158   6.241
52424SOL     OW59110   7.927   7.672   3.988
52424SOL    HW159111   7.893   7.684   3.899
52424SOL    HW259112   7.926   7.577   4.001
52425SOL     OW59113   5.633   9.295   8.431
52425SOL    HW159114   5.563   9.292   8.366
52425SOL    HW259115   5.655   9.203   8.448
52426SOL     OW59116   4.137  14.319   5.104
52426SOL    HW159117   4.079  14.256   5.062
52426SOL    HW259118   4.217  14.268   5.123
52427SOL     OW59119   0.619  14.241   2.215
52427SOL    HW159120   0.611  14.151   2.246
52427SOL    HW259121   0.531  14.277   2.222
52428SOL     OW59122   2.326  12.394   5.268
52428SOL    HW159123   2.356  12.477   5.231
52428SOL    HW259124   2.240  12.414   5.306
52429SOL     OW59125  14.347   0.115  13.520
52429SOL    HW159126  14.292   0.154  13.588
52429SOL    HW259127  14.384   0.037  13.561
52430SOL     OW59128   8.208  11.017   9.043
52430SOL    HW159129   8.222  10.986   8.953
52430SOL    HW259130   8.242  10.946   9.098
52431SOL     OW59131   5.101   8.099   4.041
52431SOL    HW159132   5.023   8.073   4.090
52431SOL    HW259133   5.142   8.166   4.097
52432SOL     OW59134   2.863   6.226  14.277
52432SOL    HW159135   2.816   6.268  14.204
52432SOL    HW259136   2.867   6.134  14.252
52433SOL     OW59137  12.834  12.751   8.897
52433SOL    HW159138  12.791  12.739   8.812
52433SOL    HW259139  12.804  12.677   8.950
52434SOL     OW59140   5.960   3.528   7.050
52434SOL    HW159141   5.908   3.565   6.979
52434SOL    HW259142   5.899   3.470   7.096
52435SOL     OW59143  10.313  11.383   7.670
52435SOL    HW159144  10.383  11.321   7.691
52435SOL    HW259145  10.343  11.466   7.707
52436SOL     OW59146   8.998   1.801   1.162
52436SOL    HW159147   9.067   1.849   1.207
52436SOL    HW259148   9.026   1.710   1.164
52437SOL     OW59149   4.601   7.801   3.344
52437SOL    HW159150   4.671   7.862   3.322
52437SOL    HW259151   4.645   7.725   3.382
52438SOL     OW59152   6.451   7.825  13.281
52438SOL    HW159153   6.472   7.788  13.196
52438SOL    HW259154   6.396   7.900  13.262
52439SOL     OW59155  13.700   5.475   7.718
52439SOL    HW159156  13.704   5.422   7.798
52439SOL    HW259157  13.791   5.505   7.705
52440SOL     OW59158   0.323   9.227   0.871
52440SOL    HW159159   0.366   9.283   0.806
52440SOL    HW259160   0.325   9.139   0.833
52441SOL     OW59161   2.797   5.881  13.889
52441SOL    HW159162   2.874   5.824  13.882
52441SOL    HW259163   2.832   5.970  13.889
52442SOL     OW59164   5.502   4.976   7.715
52442SOL    HW159165   5.505   5.010   7.625
52442SOL    HW259166   5.459   5.045   7.765
52443SOL     OW59167   2.128  14.338  12.303
52443SOL    HW159168   2.049  14.389  12.288
52443SOL    HW259169   2.180  14.351  12.223
52444SOL     OW59170  14.845   2.014   3.138
52444SOL    HW159171   0.003   2.088   3.189
52444SOL    HW259172  14.754   2.004   3.166
52445SOL     OW59173  11.890   2.025   7.180
52445SOL    HW159174  11.965   2.027   7.240
52445SOL    HW259175  11.930   2.024   7.093
52446SOL     OW59176   4.149  12.449  11.050
52446SOL    HW159177   4.059  12.451  11.084
52446SOL    HW259178   4.140  12.415  10.961
52447SOL     OW59179   6.772   0.084   6.840
52447SOL    HW159180   6.715   0.153   6.807
52447SOL    HW259181   6.761   0.012   6.778
52448SOL     OW59182   2.109   0.801   0.197
52448SOL    HW159183   2.161   0.881   0.186
52448SOL    HW259184   2.154   0.752   0.265
52449SOL     OW59185  12.820   2.628  13.886
52449SOL    HW159186  12.752   2.670  13.833
52449SOL    HW259187  12.875   2.701  13.915
52450SOL     OW59188   3.492   7.218  10.189
52450SOL    HW159189   3.415   7.170  10.221
52450SOL    HW259190   3.476   7.230  10.096
52451SOL     OW59191   9.700   0.778  11.407
52451SOL    HW159192   9.690   0.688  11.378
52451SOL    HW259193   9.793   0.786  11.428
52452SOL     OW59194  14.166   0.809   2.650
52452SOL    HW159195  14.243   0.837   2.600
52452SOL    HW259196  14.104   0.882   2.640
52453SOL     OW59197  12.492  14.221  12.120
52453SOL    HW159198  12.479  14.126  12.116
52453SOL    HW259199  12.423  14.257  12.065
52454SOL     OW59200   8.218   0.631   7.678
52454SOL    HW159201   8.183   0.717   7.701
52454SOL    HW259202   8.206   0.625   7.583
52455SOL     OW59203  10.981  11.192   5.971
52455SOL    HW159204  10.962  11.113   6.021
52455SOL    HW259205  10.897  11.237   5.962
52456SOL     OW59206   6.450   5.459   8.518
52456SOL    HW159207   6.407   5.384   8.559
52456SOL    HW259208   6.539   5.458   8.554
52457SOL     OW59209   8.174   3.118  12.559
52457SOL    HW159210   8.228   3.052  12.515
52457SOL    HW259211   8.203   3.116  12.650
52458SOL     OW59212   4.683   7.800   0.971
52458SOL    HW159213   4.649   7.724   0.924
52458SOL    HW259214   4.631   7.873   0.938
52459SOL     OW59215   8.039   9.485  10.600
52459SOL    HW159216   8.100   9.417  10.570
52459SOL    HW259217   8.080   9.520  10.679
52460SOL     OW59218   7.131   8.846   9.904
52460SOL    HW159219   7.180   8.929   9.913
52460SOL    HW259220   7.079   8.858   9.825
52461SOL     OW59221  12.247  11.953  14.600
52461SOL    HW159222  12.227  11.946  14.507
52461SOL    HW259223  12.272  11.864  14.626
52462SOL     OW59224   0.329   6.738   0.565
52462SOL    HW159225   0.395   6.671   0.582
52462SOL    HW259226   0.257   6.691   0.523
52463SOL     OW59227   7.340  10.961   7.182
52463SOL    HW159228   7.327  10.900   7.110
52463SOL    HW259229   7.406  10.921   7.238
52464SOL     OW59230   7.063   6.666   9.365
52464SOL    HW159231   7.153   6.632   9.367
52464SOL    HW259232   7.050   6.704   9.452
52465SOL     OW59233   5.320  13.165   7.433
52465SOL    HW159234   5.272  13.128   7.507
52465SOL    HW259235   5.340  13.089   7.377
52466SOL     OW59236  11.207  13.704   6.787
52466SOL    HW159237  11.258  13.782   6.766
52466SOL    HW259238  11.251  13.667   6.864
52467SOL     OW59239   9.483   8.328  12.371
52467SOL    HW159240   9.415   8.263  12.386
52467SOL    HW259241   9.564   8.284  12.396
52468SOL     OW59242   3.052   1.676  14.424
52468SOL    HW159243   3.066   1.596  14.372
52468SOL    HW259244   3.004   1.734  14.365
52469SOL     OW59245   8.240   1.784  11.685
52469SOL    HW159246   8.170   1.781  11.619
52469SOL    HW259247   8.271   1.694  11.691
52470SOL     OW59248  14.765   0.285   6.972
52470SOL    HW159249  14.692   0.231   6.942
52470SOL    HW259250  14.724   0.354   7.023
52471SOL     OW59251   3.533  12.160   0.327
52471SOL    HW159252   3.586  12.240   0.326
52471SOL    HW259253   3.447  12.188   0.358
52472SOL     OW59254  14.441   6.208  11.179
52472SOL    HW159255  14.372   6.274  11.191
52472SOL    HW259256  14.451   6.201  11.084
52473SOL     OW59257  11.756   4.141  12.870
52473SOL    HW159258  11.850   4.144  12.851
52473SOL    HW259259  11.728   4.056  12.838
52474SOL     OW59260   0.970   5.155   5.785
52474SOL    HW159261   1.057   5.119   5.771
52474SOL    HW259262   0.981   5.216   5.858
52475SOL     OW59263   1.040  10.232   5.982
52475SOL    HW159264   1.104  10.187   5.927
52475SOL    HW259265   1.049  10.191   6.068
52476SOL     OW59266  13.228   6.809   6.221
52476SOL    HW159267  13.322   6.798   6.229
52476SOL    HW259268  13.214   6.838   6.131
52477SOL     OW59269  11.269   0.083   4.343
52477SOL    HW159270  11.242   0.083   4.435
52477SOL    HW259271  11.364   0.071   4.345
52478SOL     OW59272  12.606   1.058   6.248
52478SOL    HW159273  12.597   0.993   6.179
52478SOL    HW259274  12.680   1.027   6.301
52479SOL     OW59275  13.180  11.996   0.428
52479SOL    HW159276  13.189  11.950   0.511
52479SOL    HW259277  13.097  12.043   0.435
52480SOL     OW59278   4.646   9.569   4.449
52480SOL    HW159279   4.653   9.516   4.369
52480SOL    HW259280   4.726   9.551   4.497
52481SOL     OW59281  11.160   6.731  12.396
52481SOL    HW159282  11.110   6.668  12.448
52481SOL    HW259283  11.132   6.816  12.428
52482SOL     OW59284  11.331   8.147  10.544
52482SOL    HW159285  11.360   8.146  10.635
52482SOL    HW259286  11.269   8.220  10.538
52483SOL     OW59287  10.700   0.085  13.421
52483SOL    HW159288  10.719   0.173  13.386
52483SOL    HW259289  10.645   0.045  13.353
52484SOL     OW59290   4.057   3.047   2.456
52484SOL    HW159291   4.041   3.029   2.363
52484SOL    HW259292   4.098   2.967   2.489
52485SOL     OW59293   0.015   1.461   9.783
52485SOL    HW159294   0.061   1.545   9.783
52485SOL    HW259295   0.048   1.415   9.860
52486SOL     OW59296   4.711   2.720   5.433
52486SOL    HW159297   4.715   2.771   5.353
52486SOL    HW259298   4.648   2.767   5.488
52487SOL     OW59299   9.646   3.381   7.864
52487SOL    HW159300   9.701   3.450   7.828
52487SOL    HW259301   9.635   3.405   7.956
52488SOL     OW59302  12.681   1.929   8.911
52488SOL    HW159303  12.753   1.919   8.974
52488SOL    HW259304  12.645   1.841   8.901
52489SOL     OW59305   0.347   8.646   5.327
52489SOL    HW159306   0.333   8.683   5.240
52489SOL    HW259307   0.342   8.551   5.313
52490SOL     OW59308   0.997  14.152   3.145
52490SOL    HW159309   0.991  14.061   3.171
52490SOL    HW259310   0.914  14.170   3.101
52491SOL     OW59311   2.585   2.528   4.518
52491SOL    HW159312   2.606   2.609   4.566
52491SOL    HW259313   2.495   2.508   4.543
52492SOL     OW59314   7.723   5.657  14.704
52492SOL    HW159315   7.804   5.625  14.743
52492SOL    HW259316   7.745   5.744  14.671
52493SOL     OW59317   6.110   8.612   3.044
52493SOL    HW159318   6.178   8.562   2.999
52493SOL    HW259319   6.122   8.590   3.136
52494SOL     OW59320   2.114  12.450  10.220
52494SOL    HW159321   2.039  12.427  10.164
52494SOL    HW259322   2.172  12.374  10.214
52495SOL     OW59323  12.510   6.783   8.081
52495SOL    HW159324  12.560   6.756   8.004
52495SOL    HW259325  12.570   6.769   8.154
52496SOL     OW59326  14.409   6.892   9.412
52496SOL    HW159327  14.455   6.975   9.422
52496SOL    HW259328  14.345   6.891   9.483
52497SOL     OW59329   0.056  14.679   3.871
52497SOL    HW159330   0.075  14.587   3.853
52497SOL    HW259331   0.006  14.678   3.952
52498SOL     OW59332  10.142   8.402   7.427
52498SOL    HW159333  10.169   8.464   7.359
52498SOL    HW259334  10.095   8.456   7.491
52499SOL     OW59335  13.219  12.433   4.956
52499SOL    HW159336  13.150  12.482   5.001
52499SOL    HW259337  13.245  12.490   4.883
52500SOL     OW59338   0.055   4.861   4.471
52500SOL    HW159339   0.123   4.841   4.534
52500SOL    HW259340  14.849   4.869   4.523
52501SOL     OW59341   7.897   5.756   4.135
52501SOL    HW159342   7.804   5.776   4.126
52501SOL    HW259343   7.930   5.757   4.045
52502SOL     OW59344  11.218   2.607   6.872
52502SOL    HW159345  11.159   2.658   6.817
52502SOL    HW259346  11.213   2.518   6.836
52503SOL     OW59347   5.284   2.497   5.810
52503SOL    HW159348   5.262   2.498   5.717
52503SOL    HW259349   5.227   2.431   5.848
52504SOL     OW59350   6.725  11.710  12.272
52504SOL    HW159351   6.680  11.773  12.328
52504SOL    HW259352   6.725  11.751  12.185
52505SOL     OW59353   9.985  13.816   8.028
52505SOL    HW159354   9.990  13.741   8.087
52505SOL    HW259355   9.945  13.781   7.948
52506SOL     OW59356   1.313   7.886  13.714
52506SOL    HW159357   1.219   7.902  13.705
52506SOL    HW259358   1.350   7.912  13.630
52507SOL     OW59359   5.908   8.813   3.196
52507SOL    HW159360   5.958   8.784   3.272
52507SOL    HW259361   5.939   8.758   3.124
52508SOL     OW59362   0.920   4.361   4.508
52508SOL    HW159363   1.003   4.353   4.460
52508SOL    HW259364   0.866   4.417   4.452
52509SOL     OW59365   7.724  13.595   2.144
52509SOL    HW159366   7.765  13.673   2.108
52509SOL    HW259367   7.664  13.628   2.211
52510SOL     OW59368   2.545   5.474   0.572
52510SOL    HW159369   2.561   5.382   0.553
52510SOL    HW259370   2.500   5.474   0.656
52511SOL     OW59371  10.881  13.704  11.759
52511SOL    HW159372  10.957  13.740  11.807
52511SOL    HW259373  10.813  13.697  11.826
52512SOL     OW59374   9.369   4.733  13.964
52512SOL    HW159375   9.401   4.737  13.874
52512SOL    HW259376   9.301   4.665  13.962
52513SOL     OW59377   9.173   5.409   8.555
52513SOL    HW159378   9.085   5.396   8.589
52513SOL    HW259379   9.161   5.462   8.476
52514SOL     OW59380  14.111   9.682   0.733
52514SOL    HW159381  14.072   9.762   0.768
52514SOL    HW259382  14.184   9.663   0.792
52515SOL     OW59383   1.427  12.182   4.265
52515SOL    HW159384   1.423  12.214   4.355
52515SOL    HW259385   1.512  12.210   4.233
52516SOL     OW59386   8.982   4.128   1.607
52516SOL    HW159387   8.922   4.126   1.681
52516SOL    HW259388   9.036   4.050   1.617
52517SOL     OW59389   9.910  10.856   6.975
52517SOL    HW159390   9.874  10.776   7.014
52517SOL    HW259391   9.865  10.864   6.891
52518SOL     OW59392  13.597   8.141  12.804
52518SOL    HW159393  13.582   8.053  12.840
52518SOL    HW259394  13.661   8.127  12.733
52519SOL     OW59395  11.595   8.329   1.335
52519SOL    HW159396  11.510   8.343   1.295
52519SOL    HW259397  11.658   8.357   1.269
52520SOL     OW59398   9.755   4.680   4.416
52520SOL    HW159399   9.740   4.687   4.511
52520SOL    HW259400   9.677   4.634   4.384
52521SOL     OW59401  11.155   1.347   9.756
52521SOL    HW159402  11.216   1.341   9.683
52521SOL    HW259403  11.106   1.265   9.753
52522SOL     OW59404   5.165   0.448   0.668
52522SOL    HW159405   5.145   0.394   0.745
52522SOL    HW259406   5.082   0.454   0.621
52523SOL     OW59407  12.144  14.169  10.980
52523SOL    HW159408  12.089  14.094  11.003
52523SOL    HW259409  12.136  14.228  11.055
52524SOL     OW59410   0.443  11.021  12.474
52524SOL    HW159411   0.454  10.992  12.383
52524SOL    HW259412   0.421  11.114  12.468
52525SOL     OW59413   4.063  10.466   9.709
52525SOL    HW159414   4.009  10.493   9.634
52525SOL    HW259415   4.083  10.374   9.691
52526SOL     OW59416  12.315   6.039   0.724
52526SOL    HW159417  12.276   6.044   0.636
52526SOL    HW259418  12.409   6.025   0.707
52527SOL     OW59419   1.648   6.121   9.738
52527SOL    HW159420   1.720   6.070   9.774
52527SOL    HW259421   1.635   6.086   9.650
52528SOL     OW59422  12.993   8.867   7.135
52528SOL    HW159423  13.033   8.810   7.200
52528SOL    HW259424  12.974   8.809   7.061
52529SOL     OW59425  13.195  12.222  10.132
52529SOL    HW159426  13.180  12.248  10.042
52529SOL    HW259427  13.124  12.162  10.153
52530SOL     OW59428   2.152  10.880   8.199
52530SOL    HW159429   2.239  10.887   8.237
52530SOL    HW259430   2.104  10.822   8.260
52531SOL     OW59431   8.691   5.522   3.016
52531SOL    HW159432   8.645   5.606   3.023
52531SOL    HW259433   8.777   5.538   3.055
52532SOL     OW59434   6.268   8.920   9.728
52532SOL    HW159435   6.345   8.866   9.745
52532SOL    HW259436   6.200   8.858   9.699
52533SOL     OW59437   6.229   8.174   6.123
52533SOL    HW159438   6.262   8.258   6.091
52533SOL    HW259439   6.199   8.129   6.044
52534SOL     OW59440   3.384  13.362   1.479
52534SOL    HW159441   3.379  13.457   1.467
52534SOL    HW259442   3.410  13.329   1.393
52535SOL     OW59443   7.817  10.788   6.590
52535SOL    HW159444   7.728  10.820   6.574
52535SOL    HW259445   7.858  10.788   6.504
52536SOL     OW59446   0.900   0.251   0.084
52536SOL    HW159447   0.898   0.160   0.114
52536SOL    HW259448   0.817   0.287   0.114
52537SOL     OW59449   2.134   8.453  13.222
52537SOL    HW159450   2.217   8.499  13.212
52537SOL    HW259451   2.155   8.361  13.206
52538SOL     OW59452   9.489   2.847  12.213
52538SOL    HW159453   9.549   2.779  12.180
52538SOL    HW259454   9.522   2.866  12.301
52539SOL     OW59455   3.376   9.855  11.366
52539SOL    HW159456   3.333   9.930  11.407
52539SOL    HW259457   3.313   9.783  11.376
52540SOL     OW59458  10.741   6.766  12.451
52540SOL    HW159459  10.670   6.789  12.510
52540SOL    HW259460  10.741   6.670  12.449
52541SOL     OW59461  12.636  14.703  10.002
52541SOL    HW159462  12.662  14.668   9.917
52541SOL    HW259463  12.594  14.629  10.047
52542SOL     OW59464   7.426   1.117  14.854
52542SOL    HW159465   7.520   1.105  14.839
52542SOL    HW259466   7.410   1.076   0.065
52543SOL     OW59467   5.390   8.404   2.541
52543SOL    HW159468   5.464   8.464   2.530
52543SOL    HW259469   5.334   8.421   2.464
52544SOL     OW59470   5.696  10.520   7.674
52544SOL    HW159471   5.766  10.529   7.738
52544SOL    HW259472   5.716  10.438   7.628
52545SOL     OW59473  14.783   0.028   3.779
52545SOL    HW159474  14.819   0.098   3.832
52545SOL    HW259475  14.842  14.828   3.793
52546SOL     OW59476   2.183   7.924  10.916
52546SOL    HW159477   2.276   7.930  10.938
52546SOL    HW259478   2.159   7.833  10.937
52547SOL     OW59479   7.195  13.506   8.606
52547SOL    HW159480   7.264  13.446   8.634
52547SOL    HW259481   7.237  13.562   8.540
52548SOL     OW59482  13.920   0.854   4.979
52548SOL    HW159483  13.875   0.938   4.986
52548SOL    HW259484  13.895   0.821   4.893
52549SOL     OW59485  11.840  13.271   8.929
52549SOL    HW159486  11.818  13.345   8.873
52549SOL    HW259487  11.765  13.262   8.988
52550SOL     OW59488   5.084   0.827   5.551
52550SOL    HW159489   5.133   0.756   5.594
52550SOL    HW259490   4.995   0.818   5.583
52551SOL     OW59491   1.769   9.628   5.629
52551SOL    HW159492   1.841   9.678   5.667
52551SOL    HW259493   1.690   9.666   5.666
52552SOL     OW59494   4.434   1.490   3.850
52552SOL    HW159495   4.503   1.541   3.807
52552SOL    HW259496   4.382   1.455   3.778
52553SOL     OW59497   8.843  11.278   8.440
52553SOL    HW159498   8.899  11.220   8.492
52553SOL    HW259499   8.868  11.367   8.467
52554SOL     OW59500  11.027   4.074   9.578
52554SOL    HW159501  11.122   4.058   9.581
52554SOL    HW259502  10.988   3.995   9.614
52555SOL     OW59503   9.659   8.715   7.610
52555SOL    HW159504   9.737   8.764   7.637
52555SOL    HW259505   9.692   8.653   7.545
52556SOL     OW59506  14.845   8.488   7.441
52556SOL    HW159507  14.869   8.552   7.374
52556SOL    HW259508   0.036   8.502   7.511
52557SOL     OW59509  14.556   5.736   2.837
52557SOL    HW159510  14.625   5.778   2.786
52557SOL    HW259511  14.561   5.776   2.924
52558SOL     OW59512   1.270   2.384   8.134
52558SOL    HW159513   1.236   2.472   8.123
52558SOL    HW259514   1.341   2.377   8.070
52559SOL     OW59515   4.179  10.462   6.812
52559SOL    HW159516   4.091  10.480   6.846
52559SOL    HW259517   4.224  10.547   6.816
52560SOL     OW59518   9.780  10.348   6.233
52560SOL    HW159519   9.820  10.401   6.302
52560SOL    HW259520   9.696  10.389   6.216
52561SOL     OW59521   4.973  10.014   1.862
52561SOL    HW159522   5.054  10.059   1.838
52561SOL    HW259523   5.001   9.926   1.886
52562SOL     OW59524   4.655  10.821  13.568
52562SOL    HW159525   4.724  10.766  13.603
52562SOL    HW259526   4.595  10.760  13.525
52563SOL     OW59527   8.426   6.373  12.865
52563SOL    HW159528   8.437   6.307  12.797
52563SOL    HW259529   8.333   6.371  12.885
52564SOL     OW59530   0.202   8.418  10.226
52564SOL    HW159531   0.219   8.366  10.305
52564SOL    HW259532   0.285   8.418  10.179
52565SOL     OW59533   6.404  12.912  11.035
52565SOL    HW159534   6.467  12.880  10.971
52565SOL    HW259535   6.400  13.007  11.020
52566SOL     OW59536  10.675   1.237   4.106
52566SOL    HW159537  10.731   1.248   4.029
52566SOL    HW259538  10.736   1.236   4.180
52567SOL     OW59539   4.678  14.872   7.682
52567SOL    HW159540   4.684  14.803   7.748
52567SOL    HW259541   4.669  14.825   7.599
52568SOL     OW59542  13.424   0.941   1.247
52568SOL    HW159543  13.506   0.915   1.288
52568SOL    HW259544  13.406   0.873   1.183
52569SOL     OW59545   2.352   8.168   4.524
52569SOL    HW159546   2.293   8.105   4.566
52569SOL    HW259547   2.365   8.133   4.436
52570SOL     OW59548   3.029   4.442  10.768
52570SOL    HW159549   3.031   4.528  10.809
52570SOL    HW259550   2.938   4.432  10.738
52571SOL     OW59551   5.630   0.328   5.965
52571SOL    HW159552   5.719   0.296   5.979
52571SOL    HW259553   5.641   0.412   5.921
52572SOL     OW59554   4.524   4.003   1.940
52572SOL    HW159555   4.573   3.941   1.886
52572SOL    HW259556   4.585   4.026   2.010
52573SOL     OW59557   2.866   1.911  12.212
52573SOL    HW159558   2.881   1.863  12.130
52573SOL    HW259559   2.866   1.844  12.280
52574SOL     OW59560   6.384   4.909  11.829
52574SOL    HW159561   6.427   4.828  11.857
52574SOL    HW259562   6.342   4.942  11.908
52575SOL     OW59563   6.474   9.078  12.352
52575SOL    HW159564   6.529   9.155  12.344
52575SOL    HW259565   6.435   9.067  12.265
52576SOL     OW59566  10.478   5.129  14.556
52576SOL    HW159567  10.438   5.046  14.532
52576SOL    HW259568  10.543   5.145  14.488
52577SOL     OW59569   6.315   0.180   9.786
52577SOL    HW159570   6.267   0.237   9.845
52577SOL    HW259571   6.247   0.133   9.737
52578SOL     OW59572   5.326  12.074   9.775
52578SOL    HW159573   5.364  12.123   9.848
52578SOL    HW259574   5.264  12.013   9.816
52579SOL     OW59575  12.471   9.719   7.114
52579SOL    HW159576  12.550   9.682   7.074
52579SOL    HW259577  12.405   9.715   7.045
52580SOL     OW59578  13.323   9.078   7.007
52580SOL    HW159579  13.356   9.062   6.919
52580SOL    HW259580  13.378   9.023   7.063
52581SOL     OW59581  11.966  10.885  12.659
52581SOL    HW159582  11.953  10.803  12.706
52581SOL    HW259583  11.970  10.861  12.567
52582SOL     OW59584   1.181   8.950  10.263
52582SOL    HW159585   1.109   8.980  10.207
52582SOL    HW259586   1.200   9.025  10.319
52583SOL     OW59587  12.303  11.925   4.335
52583SOL    HW159588  12.264  11.860   4.393
52583SOL    HW259589  12.311  12.004   4.390
52584SOL     OW59590   4.295   2.906   5.915
52584SOL    HW159591   4.342   2.957   5.982
52584SOL    HW259592   4.226   2.861   5.963
52585SOL     OW59593   5.042  10.725   7.786
52585SOL    HW159594   5.123  10.744   7.739
52585SOL    HW259595   4.973  10.756   7.727
52586SOL     OW59596  12.056   4.107  12.841
52586SOL    HW159597  12.123   4.136  12.903
52586SOL    HW259598  12.091   4.131  12.755
52587SOL     OW59599  13.775   3.301   1.566
52587SOL    HW159600  13.695   3.322   1.616
52587SOL    HW259601  13.781   3.372   1.501
52588SOL     OW59602  12.983  10.562   0.981
52588SOL    HW159603  13.042  10.637   0.967
52588SOL    HW259604  12.924  10.563   0.906
52589SOL     OW59605   4.293   3.825   6.317
52589SOL    HW159606   4.209   3.870   6.308
52589SOL    HW259607   4.312   3.792   6.230
52590SOL     OW59608  10.817  12.905  12.429
52590SOL    HW159609  10.811  12.888  12.335
52590SOL    HW259610  10.801  12.821  12.470
52591SOL     OW59611   4.912   7.115   4.020
52591SOL    HW159612   4.829   7.150   3.988
52591SOL    HW259613   4.914   7.024   3.989
52592SOL     OW59614   8.411  10.648   3.470
52592SOL    HW159615   8.486  10.691   3.510
52592SOL    HW259616   8.393  10.573   3.527
52593SOL     OW59617   4.024   8.558  10.845
52593SOL    HW159618   4.059   8.470  10.860
52593SOL    HW259619   4.078   8.615  10.901
52594SOL     OW59620   6.784   7.497  14.211
52594SOL    HW159621   6.871   7.511  14.246
52594SOL    HW259622   6.728   7.490  14.288
52595SOL     OW59623  11.278   9.797   1.654
52595SOL    HW159624  11.221   9.845   1.714
52595SOL    HW259625  11.367   9.815   1.686
52596SOL     OW59626   4.452   3.299   9.167
52596SOL    HW159627   4.484   3.325   9.080
52596SOL    HW259628   4.430   3.382   9.210
52597SOL     OW59629  12.066   9.351   3.139
52597SOL    HW159630  12.017   9.333   3.219
52597SOL    HW259631  12.149   9.305   3.150
52598SOL     OW59632   1.646  12.055  14.393
52598SOL    HW159633   1.684  12.063  14.305
52598SOL    HW259634   1.710  12.004  14.442
52599SOL     OW59635  10.489  11.986  12.055
52599SOL    HW159636  10.577  11.981  12.015
52599SOL    HW259637  10.502  11.958  12.145
52600SOL     OW59638   3.297  13.172  11.573
52600SOL    HW159639   3.245  13.091  11.578
52600SOL    HW259640   3.348  13.172  11.654
52601SOL     OW59641   7.896   6.955  13.421
52601SOL    HW159642   7.940   7.012  13.483
52601SOL    HW259643   7.897   7.004  13.338
52602SOL     OW59644  14.277   2.517   8.754
52602SOL    HW159645  14.223   2.472   8.819
52602SOL    HW259646  14.235   2.498   8.671
52603SOL     OW59647   4.136   2.894   9.029
52603SOL    HW159648   4.067   2.958   9.046
52603SOL    HW259649   4.099   2.810   9.056
52604SOL     OW59650  10.960   3.926   2.939
52604SOL    HW159651  10.940   4.019   2.949
52604SOL    HW259652  10.957   3.891   3.028
52605SOL     OW59653   8.124   6.503   6.844
52605SOL    HW159654   8.084   6.583   6.878
52605SOL    HW259655   8.153   6.455   6.922
52606SOL     OW59656   8.819   8.449   5.789
52606SOL    HW159657   8.734   8.457   5.745
52606SOL    HW259658   8.877   8.506   5.739
52607SOL     OW59659  13.004   5.720   9.410
52607SOL    HW159660  13.068   5.657   9.378
52607SOL    HW259661  12.929   5.666   9.437
52608SOL     OW59662   4.131  13.841  13.677
52608SOL    HW159663   4.064  13.908  13.692
52608SOL    HW259664   4.138  13.796  13.761
52609SOL     OW59665  12.442   8.835   4.775
52609SOL    HW159666  12.418   8.915   4.822
52609SOL    HW259667  12.456   8.770   4.844
52610SOL     OW59668   3.560   7.793   8.533
52610SOL    HW159669   3.622   7.861   8.557
52610SOL    HW259670   3.580   7.774   8.441
52611SOL     OW59671   1.921   7.903   8.928
52611SOL    HW159672   1.826   7.912   8.929
52611SOL    HW259673   1.948   7.927   9.017
52612SOL     OW59674  10.383  10.970  10.896
52612SOL    HW159675  10.354  11.003  10.981
52612SOL    HW259676  10.472  11.003  10.887
52613SOL     OW59677   4.026  11.331   2.470
52613SOL    HW159678   3.939  11.356   2.501
52613SOL    HW259679   4.012  11.305   2.379
52614SOL     OW59680   2.050   0.502   6.916
52614SOL    HW159681   2.054   0.406   6.913
52614SOL    HW259682   2.126   0.530   6.865
52615SOL     OW59683  11.464   9.126   6.106
52615SOL    HW159684  11.463   9.111   6.012
52615SOL    HW259685  11.523   9.201   6.117
52616SOL     OW59686   7.295   7.625   2.307
52616SOL    HW159687   7.304   7.544   2.357
52616SOL    HW259688   7.385   7.650   2.286
52617SOL     OW59689   6.870   7.727   6.217
52617SOL    HW159690   6.850   7.793   6.284
52617SOL    HW259691   6.893   7.778   6.139
52618SOL     OW59692   6.456   3.172   3.318
52618SOL    HW159693   6.379   3.203   3.366
52618SOL    HW259694   6.421   3.112   3.252
52619SOL     OW59695  11.968   5.911   0.786
52619SOL    HW159696  11.937   5.945   0.870
52619SOL    HW259697  12.046   5.860   0.809
52620SOL     OW59698   4.647   1.060   4.581
52620SOL    HW159699   4.633   0.966   4.569
52620SOL    HW259700   4.673   1.092   4.495
52621SOL     OW59701  10.430  14.786   8.468
52621SOL    HW159702  10.504  14.842   8.491
52621SOL    HW259703  10.424  14.722   8.539
52622SOL     OW59704   4.682  13.827  12.002
52622SOL    HW159705   4.760  13.865  12.043
52622SOL    HW259706   4.656  13.756  12.062
52623SOL     OW59707  10.617   5.865  12.395
52623SOL    HW159708  10.559   5.791  12.382
52623SOL    HW259709  10.667   5.872  12.313
52624SOL     OW59710  11.760   6.195  13.912
52624SOL    HW159711  11.837   6.212  13.857
52624SOL    HW259712  11.718   6.119  13.872
52625SOL     OW59713   8.156   0.188  12.802
52625SOL    HW159714   8.124   0.278  12.817
52625SOL    HW259715   8.250   0.198  12.791
52626SOL     OW59716   3.260   5.063   6.306
52626SOL    HW159717   3.222   5.089   6.222
52626SOL    HW259718   3.345   5.106   6.309
52627SOL     OW59719   6.530   0.585  11.543
52627SOL    HW159720   6.614   0.553  11.508
52627SOL    HW259721   6.488   0.628  11.468
52628SOL     OW59722  12.418   7.472  11.903
52628SOL    HW159723  12.457   7.528  11.970
52628SOL    HW259724  12.467   7.492  11.823
52629SOL     OW59725   5.151  12.190   4.568
52629SOL    HW159726   5.198  12.261   4.611
52629SOL    HW259727   5.097  12.152   4.637
52630SOL     OW59728   6.893  13.432   9.007
52630SOL    HW159729   6.836  13.370   9.054
52630SOL    HW259730   6.860  13.431   8.917
52631SOL     OW59731   0.725   2.276  13.802
52631SOL    HW159732   0.724   2.188  13.840
52631SOL    HW259733   0.791   2.272  13.733
52632SOL     OW59734   4.559  12.669   7.241
52632SOL    HW159735   4.464  12.678   7.237
52632SOL    HW259736   4.587  12.734   7.306
52633SOL     OW59737   1.204   3.937   6.892
52633SOL    HW159738   1.231   3.865   6.835
52633SOL    HW259739   1.255   3.926   6.971
52634SOL     OW59740  10.783  11.752   7.158
52634SOL    HW159741  10.781  11.847   7.159
52634SOL    HW259742  10.835  11.730   7.081
52635SOL     OW59743  11.829   4.607  14.555
52635SOL    HW159744  11.818   4.513  14.572
52635SOL    HW259745  11.761   4.649  14.608
52636SOL     OW59746   2.202  13.548  10.107
52636SOL    HW159747   2.160  13.631  10.085
52636SOL    HW259748   2.262  13.569  10.178
52637SOL     OW59749  14.514   0.427   5.482
52637SOL    HW159750  14.508   0.351   5.539
52637SOL    HW259751  14.423   0.457   5.472
52638SOL     OW59752   9.753   8.715  14.164
52638SOL    HW159753   9.769   8.778  14.094
52638SOL    HW259754   9.660   8.691  14.154
52639SOL     OW59755   8.866  14.058   3.432
52639SOL    HW159756   8.823  14.118   3.493
52639SOL    HW259757   8.957  14.087   3.430
52640SOL     OW59758  11.727   7.866   9.406
52640SOL    HW159759  11.757   7.789   9.455
52640SOL    HW259760  11.740   7.842   9.315
52641SOL     OW59761  14.372  12.295   1.499
52641SOL    HW159762  14.280  12.306   1.474
52641SOL    HW259763  14.408  12.383   1.497
52642SOL     OW59764   1.008  12.585  11.009
52642SOL    HW159765   0.935  12.577  10.948
52642SOL    HW259766   0.974  12.553  11.092
52643SOL     OW59767   8.893  12.244   7.328
52643SOL    HW159768   8.954  12.258   7.400
52643SOL    HW259769   8.846  12.163   7.351
52644SOL     OW59770  10.643  13.828   0.983
52644SOL    HW159771  10.579  13.765   1.014
52644SOL    HW259772  10.691  13.782   0.914
52645SOL     OW59773   3.117  12.405   1.454
52645SOL    HW159774   3.053  12.386   1.384
52645SOL    HW259775   3.082  12.360   1.530
52646SOL     OW59776  11.659   5.655  11.840
52646SOL    HW159777  11.604   5.733  11.843
52646SOL    HW259778  11.745   5.688  11.815
52647SOL     OW59779   4.192  14.088   7.515
52647SOL    HW159780   4.229  14.001   7.530
52647SOL    HW259781   4.123  14.095   7.581
52648SOL     OW59782  14.036   4.250  14.658
52648SOL    HW159783  14.063   4.171  14.611
52648SOL    HW259784  13.945   4.263  14.634
52649SOL     OW59785   8.259   3.854   3.593
52649SOL    HW159786   8.207   3.777   3.613
52649SOL    HW259787   8.237   3.917   3.662
52650SOL     OW59788  11.264   8.443   5.639
52650SOL    HW159789  11.259   8.537   5.627
52650SOL    HW259790  11.192   8.408   5.585
52651SOL     OW59791  11.099  10.299   1.711
52651SOL    HW159792  11.164  10.279   1.644
52651SOL    HW259793  11.016  10.270   1.673
52652SOL     OW59794  12.627  13.401  10.659
52652SOL    HW159795  12.633  13.322  10.712
52652SOL    HW259796  12.631  13.473  10.723
52653SOL     OW59797   9.295   1.715   9.705
52653SOL    HW159798   9.236   1.785   9.733
52653SOL    HW259799   9.360   1.759   9.650
52654SOL     OW59800  14.492   2.766   4.597
52654SOL    HW159801  14.411   2.725   4.566
52654SOL    HW259802  14.555   2.751   4.527
52655SOL     OW59803   0.118   3.566   3.685
52655SOL    HW159804   0.125   3.619   3.765
52655SOL    HW259805   0.063   3.492   3.710
52656SOL     OW59806   5.880   2.610   0.219
52656SOL    HW159807   5.801   2.564   0.248
52656SOL    HW259808   5.941   2.601   0.291
52657SOL     OW59809  10.241  10.696  12.311
52657SOL    HW159810  10.316  10.638  12.319
52657SOL    HW259811  10.240  10.722  12.219
52658SOL     OW59812   0.251   0.352  11.090
52658SOL    HW159813   0.219   0.406  11.017
52658SOL    HW259814   0.229   0.263  11.064
52659SOL     OW59815   1.284  10.155  10.147
52659SOL    HW159816   1.258  10.170  10.238
52659SOL    HW259817   1.202  10.139  10.100
52660SOL     OW59818   4.284  11.166  13.602
52660SOL    HW159819   4.251  11.183  13.690
52660SOL    HW259820   4.255  11.242  13.551
52661SOL     OW59821   6.626   0.517   9.579
52661SOL    HW159822   6.631   0.447   9.514
52661SOL    HW259823   6.618   0.471   9.662
52662SOL     OW59824  11.253   9.451  12.947
52662SOL    HW159825  11.302   9.507  12.887
52662SOL    HW259826  11.295   9.365  12.940
52663SOL     OW59827  14.200   1.369   0.278
52663SOL    HW159828  14.191   1.285   0.234
52663SOL    HW259829  14.278   1.359   0.332
52664SOL     OW59830  14.213  14.468   7.858
52664SOL    HW159831  14.157  14.451   7.782
52664SOL    HW259832  14.198  14.560   7.878
52665SOL     OW59833   7.160   2.489  14.503
52665SOL    HW159834   7.205   2.474  14.420
52665SOL    HW259835   7.142   2.583  14.503
52666SOL     OW59836   8.135  10.088   7.294
52666SOL    HW159837   8.230  10.090   7.283
52666SOL    HW259838   8.108  10.002   7.260
52667SOL     OW59839  10.172   7.288   7.201
52667SOL    HW159840  10.239   7.354   7.219
52667SOL    HW259841  10.097   7.338   7.169
52668SOL     OW59842   4.913   0.052  11.832
52668SOL    HW159843   4.867  14.846  11.860
52668SOL    HW259844   4.999   0.046  11.876
52669SOL     OW59845   3.504   5.087  14.105
52669SOL    HW159846   3.436   5.089  14.172
52669SOL    HW259847   3.584   5.116  14.151
52670SOL     OW59848  13.234   0.262   6.509
52670SOL    HW159849  13.242   0.190   6.571
52670SOL    HW259850  13.286   0.234   6.433
52671SOL     OW59851  10.107  10.118  13.499
52671SOL    HW159852  10.175  10.184  13.484
52671SOL    HW259853  10.153  10.035  13.499
52672SOL     OW59854   0.708  14.649   9.231
52672SOL    HW159855   0.636  14.665   9.292
52672SOL    HW259856   0.694  14.560   9.199
52673SOL     OW59857   1.048  11.623   1.564
52673SOL    HW159858   1.051  11.619   1.468
52673SOL    HW259859   1.067  11.534   1.592
52674SOL     OW59860   8.047   9.281   9.893
52674SOL    HW159861   8.032   9.336   9.817
52674SOL    HW259862   8.062   9.342   9.965
52675SOL     OW59863   1.893  14.588  14.356
52675SOL    HW159864   1.831  14.531  14.309
52675SOL    HW259865   1.848  14.611  14.437
52676SOL     OW59866   0.630  14.548   9.842
52676SOL    HW159867   0.707  14.523   9.792
52676SOL    HW259868   0.618  14.642   9.824
52677SOL     OW59869   8.959   3.542  10.518
52677SOL    HW159870   8.942   3.537  10.612
52677SOL    HW259871   8.891   3.488  10.479
52678SOL     OW59872   5.213  10.636   8.572
52678SOL    HW159873   5.232  10.567   8.636
52678SOL    HW259874   5.285  10.698   8.582
52679SOL     OW59875   8.063   9.487   1.573
52679SOL    HW159876   8.138   9.432   1.551
52679SOL    HW259877   8.047   9.469   1.666
52680SOL     OW59878  12.187   1.481   5.695
52680SOL    HW159879  12.161   1.572   5.680
52680SOL    HW259880  12.231   1.455   5.614
52681SOL     OW59881  10.824   7.133  14.411
52681SOL    HW159882  10.867   7.218  14.409
52681SOL    HW259883  10.888   7.074  14.451
52682SOL     OW59884   5.926   2.836   2.602
52682SOL    HW159885   6.003   2.892   2.585
52682SOL    HW259886   5.862   2.896   2.639
52683SOL     OW59887   6.421  13.798   7.127
52683SOL    HW159888   6.423  13.798   7.222
52683SOL    HW259889   6.370  13.721   7.104
52684SOL     OW59890  12.295  14.597   8.282
52684SOL    HW159891  12.217  14.576   8.332
52684SOL    HW259892  12.285  14.690   8.260
52685SOL     OW59893   9.763  12.588  13.052
52685SOL    HW159894   9.772  12.622  12.962
52685SOL    HW259895   9.759  12.667  13.106
52686SOL     OW59896   3.340  12.124  13.130
52686SOL    HW159897   3.314  12.078  13.050
52686SOL    HW259898   3.381  12.057  13.184
52687SOL     OW59899  11.474   3.849   9.586
52687SOL    HW159900  11.568   3.855   9.604
52687SOL    HW259901  11.435   3.915   9.643
52688SOL     OW59902   8.941   3.767  11.969
52688SOL    HW159903   8.868   3.725  12.014
52688SOL    HW259904   8.999   3.797  12.039
52689SOL     OW59905   6.514   6.341  14.793
52689SOL    HW159906   6.603   6.319  14.765
52689SOL    HW259907   6.513   6.323   0.013
52690SOL     OW59908   0.904   9.262  10.822
52690SOL    HW159909   0.896   9.300  10.735
52690SOL    HW259910   0.926   9.337  10.878
52691SOL     OW59911   0.022   5.882   9.994
52691SOL    HW159912  14.873   5.933   9.916
52691SOL    HW259913  14.839   5.917  10.063
52692SOL     OW59914   8.497   5.715  13.018
52692SOL    HW159915   8.548   5.764  12.954
52692SOL    HW259916   8.417   5.692  12.971
52693SOL     OW59917  13.836  10.973   4.785
52693SOL    HW159918  13.835  11.019   4.869
52693SOL    HW259919  13.883  11.032   4.725
52694SOL     OW59920  14.258  13.543   6.363
52694SOL    HW159921  14.294  13.610   6.305
52694SOL    HW259922  14.283  13.460   6.323
52695SOL     OW59923   8.285   0.359  12.301
52695SOL    HW159924   8.369   0.342  12.257
52695SOL    HW259925   8.219   0.348  12.232
52696SOL     OW59926  14.520  11.664   1.639
52696SOL    HW159927  14.585  11.686   1.572
52696SOL    HW259928  14.559  11.590   1.686
52697SOL     OW59929   3.241   4.013   0.354
52697SOL    HW159930   3.154   4.052   0.351
52697SOL    HW259931   3.225   3.919   0.361
52698SOL     OW59932   3.658  10.759  12.907
52698SOL    HW159933   3.620  10.682  12.949
52698SOL    HW259934   3.705  10.804  12.977
52699SOL     OW59935   5.942  13.368   2.496
52699SOL    HW159936   5.866  13.400   2.448
52699SOL    HW259937   5.970  13.290   2.447
52700SOL     OW59938   2.987   4.061  13.341
52700SOL    HW159939   3.003   3.969  13.364
52700SOL    HW259940   2.984   4.107  13.425
52701SOL     OW59941  13.762   9.176  13.051
52701SOL    HW159942  13.749   9.186  13.145
52701SOL    HW259943  13.857   9.179  13.040
52702SOL     OW59944  14.743   2.087   3.591
52702SOL    HW159945  14.827   2.132   3.595
52702SOL    HW259946  14.702   2.120   3.511
52703SOL     OW59947   2.196  11.239  10.934
52703SOL    HW159948   2.273  11.260  10.882
52703SOL    HW259949   2.123  11.277  10.885
52704SOL     OW59950   2.927  12.160   0.606
52704SOL    HW159951   2.976  12.096   0.658
52704SOL    HW259952   2.967  12.157   0.519
52705SOL     OW59953   2.679   5.988   1.679
52705SOL    HW159954   2.688   5.979   1.774
52705SOL    HW259955   2.758   5.948   1.644
52706SOL     OW59956  12.036   4.550   0.079
52706SOL    HW159957  12.130   4.533   0.086
52706SOL    HW259958  12.029   4.641   0.049
52707SOL     OW59959  12.541   3.171  12.385
52707SOL    HW159960  12.582   3.086  12.370
52707SOL    HW259961  12.488   3.186  12.307
52708SOL     OW59962  13.700   6.484   0.704
52708SOL    HW159963  13.765   6.491   0.634
52708SOL    HW259964  13.625   6.534   0.673
52709SOL     OW59965   3.869   7.078   0.536
52709SOL    HW159966   3.863   7.121   0.451
52709SOL    HW259967   3.859   7.149   0.599
52710SOL     OW59968   1.950  14.175   7.552
52710SOL    HW159969   1.976  14.091   7.514
52710SOL    HW259970   1.899  14.218   7.483
52711SOL     OW59971  14.375  10.565   7.516
52711SOL    HW159972  14.454  10.538   7.562
52711SOL    HW259973  14.343  10.640   7.566
52712SOL     OW59974   5.553   1.732  14.634
52712SOL    HW159975   5.589   1.774  14.712
52712SOL    HW259976   5.553   1.638  14.656
52713SOL     OW59977  13.109   3.276  12.255
52713SOL    HW159978  13.044   3.345  12.260
52713SOL    HW259979  13.193   3.321  12.269
52714SOL     OW59980  10.455   9.530   7.318
52714SOL    HW159981  10.427   9.589   7.388
52714SOL    HW259982  10.383   9.466   7.311
52715SOL     OW59983   3.772   5.013   3.094
52715SOL    HW159984   3.853   5.052   3.062
52715SOL    HW259985   3.784   4.919   3.081
52716SOL     OW59986  12.552   0.602   1.078
52716SOL    HW159987  12.524   0.608   1.169
52716SOL    HW259988  12.512   0.678   1.035
52717SOL     OW59989   1.868   4.087   3.791
52717SOL    HW159990   1.874   4.160   3.729
52717SOL    HW259991   1.792   4.107   3.844
52718SOL     OW59992   4.193   3.977  14.823
52718SOL    HW159993   4.150   3.961  14.739
52718SOL    HW259994   4.152   4.057  14.856
52719SOL     OW59995   6.396   4.307   2.992
52719SOL    HW159996   6.393   4.216   3.021
52719SOL    HW259997   6.405   4.302   2.897
52720SOL     OW59998   1.108  13.393   0.978
52720SOL    HW159999   1.022  13.353   0.964
52720SOL    HW260000   1.097  13.447   1.056
52721SOL     OW60001   2.855   6.167   8.554
52721SOL    HW160002   2.845   6.168   8.459
52721SOL    HW260003   2.920   6.235   8.572
52722SOL     OW60004   3.022  10.375   1.112
52722SOL    HW160005   3.013  10.361   1.207
52722SOL    HW260006   3.060  10.294   1.079
52723SOL     OW60007  14.377   6.853   3.154
52723SOL    HW160008  14.443   6.790   3.183
52723SOL    HW260009  14.360   6.907   3.230
52724SOL     OW60010  10.729   7.250   6.225
52724SOL    HW160011  10.760   7.328   6.179
52724SOL    HW260012  10.780   7.178   6.187
52725SOL     OW60013   9.433   2.244  14.839
52725SOL    HW160014   9.401   2.319   0.015
52725SOL    HW260015   9.390   2.252  14.753
52726SOL     OW60016  12.260   7.508  11.164
52726SOL    HW160017  12.203   7.500  11.240
52726SOL    HW260018  12.221   7.578  11.112
52727SOL     OW60019  10.731  12.795   7.294
52727SOL    HW160020  10.704  12.838   7.213
52727SOL    HW260021  10.728  12.701   7.274
52728SOL     OW60022   8.594   0.569  10.540
52728SOL    HW160023   8.559   0.506  10.603
52728SOL    HW260024   8.629   0.640  10.593
52729SOL     OW60025   4.469   6.489   9.814
52729SOL    HW160026   4.479   6.584   9.825
52729SOL    HW260027   4.556   6.458   9.789
52730SOL     OW60028  11.106  12.714   9.999
52730SOL    HW160029  11.061  12.660  10.065
52730SOL    HW260030  11.115  12.656   9.924
52731SOL     OW60031   1.409  12.444  13.315
52731SOL    HW160032   1.430  12.489  13.397
52731SOL    HW260033   1.456  12.493  13.248
52732SOL     OW60034  13.178   3.914   8.812
52732SOL    HW160035  13.222   3.832   8.792
52732SOL    HW260036  13.115   3.892   8.881
52733SOL     OW60037   5.716   6.100  10.932
52733SOL    HW160038   5.806   6.131  10.941
52733SOL    HW260039   5.719   6.007  10.957
52734SOL     OW60040  11.821   0.145   9.318
52734SOL    HW160041  11.835   0.074   9.254
52734SOL    HW260042  11.729   0.167   9.310
52735SOL     OW60043   2.419   6.082  11.169
52735SOL    HW160044   2.374   6.140  11.108
52735SOL    HW260045   2.512   6.101  11.154
52736SOL     OW60046   3.736  12.305   5.959
52736SOL    HW160047   3.795  12.289   6.032
52736SOL    HW260048   3.660  12.348   5.998
52737SOL     OW60049   7.996   6.664  14.085
52737SOL    HW160050   8.041   6.748  14.092
52737SOL    HW260051   7.922   6.680  14.027
52738SOL     OW60052   0.393   2.743   2.843
52738SOL    HW160053   0.443   2.739   2.761
52738SOL    HW260054   0.302   2.737   2.816
52739SOL     OW60055  14.023   4.669   1.194
52739SOL    HW160056  14.059   4.707   1.114
52739SOL    HW260057  14.037   4.736   1.261
52740SOL     OW60058   6.439   6.196  13.203
52740SOL    HW160059   6.453   6.198  13.108
52740SOL    HW260060   6.527   6.204  13.240
52741SOL     OW60061  13.642  13.553  12.134
52741SOL    HW160062  13.568  13.612  12.136
52741SOL    HW260063  13.719  13.610  12.136
52742SOL     OW60064   7.624   7.690  11.399
52742SOL    HW160065   7.694   7.625  11.405
52742SOL    HW260066   7.646   7.743  11.322
52743SOL     OW60067   9.816   1.758   7.577
52743SOL    HW160068   9.746   1.737   7.516
52743SOL    HW260069   9.820   1.854   7.577
52744SOL     OW60070  10.528   9.413   1.870
52744SOL    HW160071  10.474   9.459   1.934
52744SOL    HW260072  10.608   9.465   1.865
52745SOL     OW60073   5.593   4.081   2.444
52745SOL    HW160074   5.519   4.069   2.385
52745SOL    HW260075   5.670   4.055   2.392
52746SOL     OW60076   0.242  14.310   4.653
52746SOL    HW160077   0.247  14.349   4.566
52746SOL    HW260078   0.180  14.237   4.643
52747SOL     OW60079   2.288   5.984   0.502
52747SOL    HW160080   2.347   6.041   0.550
52747SOL    HW260081   2.227   5.949   0.568
52748SOL     OW60082   6.763   9.515   2.409
52748SOL    HW160083   6.767   9.607   2.382
52748SOL    HW260084   6.852   9.483   2.398
52749SOL     OW60085  13.649  12.279  10.800
52749SOL    HW160086  13.732  12.244  10.832
52749SOL    HW260087  13.614  12.329  10.874
52750SOL     OW60088   3.160  12.590  11.279
52750SOL    HW160089   3.208  12.671  11.290
52750SOL    HW260090   3.102  12.586  11.355
52751SOL     OW60091  12.233   6.843  11.603
52751SOL    HW160092  12.282   6.915  11.644
52751SOL    HW260093  12.226   6.868  11.511
52752SOL     OW60094  14.049   6.335   2.768
52752SOL    HW160095  14.091   6.412   2.807
52752SOL    HW260096  14.014   6.286   2.842
52753SOL     OW60097   0.149  10.633   9.463
52753SOL    HW160098   0.145  10.542   9.492
52753SOL    HW260099   0.219  10.672   9.515
52754SOL     OW60100   6.459   9.273   1.060
52754SOL    HW160101   6.551   9.269   1.033
52754SOL    HW260102   6.446   9.192   1.110
52755SOL     OW60103  10.568  10.661  14.186
52755SOL    HW160104  10.604  10.747  14.165
52755SOL    HW260105  10.636  10.619  14.239
52756SOL     OW60106  14.601  12.451  11.538
52756SOL    HW160107  14.621  12.469  11.446
52756SOL    HW260108  14.664  12.384  11.564
52757SOL     OW60109   8.659  12.002   1.942
52757SOL    HW160110   8.731  11.971   1.887
52757SOL    HW260111   8.580  11.963   1.904
52758SOL     OW60112   8.110   9.096  12.555
52758SOL    HW160113   8.154   9.011  12.546
52758SOL    HW260114   8.063   9.107  12.472
52759SOL     OW60115   7.759   0.814   9.680
52759SOL    HW160116   7.695   0.871   9.637
52759SOL    HW260117   7.733   0.725   9.656
52760SOL     OW60118  11.515   7.352   6.646
52760SOL    HW160119  11.587   7.372   6.706
52760SOL    HW260120  11.471   7.277   6.686
52761SOL     OW60121   4.507   0.681   0.191
52761SOL    HW160122   4.503   0.625   0.113
52761SOL    HW260123   4.600   0.699   0.204
52762SOL     OW60124  12.297   2.243  10.126
52762SOL    HW160125  12.296   2.199  10.041
52762SOL    HW260126  12.345   2.184  10.184
52763SOL     OW60127  14.298   1.715   1.811
52763SOL    HW160128  14.369   1.652   1.805
52763SOL    HW260129  14.219   1.662   1.826
52764SOL     OW60130   8.430   7.746  11.263
52764SOL    HW160131   8.355   7.726  11.208
52764SOL    HW260132   8.393   7.769  11.348
52765SOL     OW60133   8.880  13.287  12.566
52765SOL    HW160134   8.868  13.337  12.486
52765SOL    HW260135   8.971  13.303  12.591
52766SOL     OW60136   9.792   3.540   7.231
52766SOL    HW160137   9.776   3.629   7.262
52766SOL    HW260138   9.706   3.497   7.236
52767SOL     OW60139  10.567  12.228   6.400
52767SOL    HW160140  10.538  12.314   6.369
52767SOL    HW260141  10.492  12.170   6.385
52768SOL     OW60142  12.041   2.754   5.529
52768SOL    HW160143  12.009   2.837   5.495
52768SOL    HW260144  12.018   2.755   5.622
52769SOL     OW60145   0.808  14.255   1.445
52769SOL    HW160146   0.808  14.237   1.539
52769SOL    HW260147   0.891  14.300   1.430
52770SOL     OW60148   6.949   6.431   0.486
52770SOL    HW160149   6.865   6.386   0.476
52770SOL    HW260150   6.996   6.379   0.552
52771SOL     OW60151   7.537   5.437   4.171
52771SOL    HW160152   7.558   5.476   4.255
52771SOL    HW260153   7.500   5.352   4.193
52772SOL     OW60154   3.979   6.986  11.099
52772SOL    HW160155   3.942   6.999  11.187
52772SOL    HW260156   3.902   6.972  11.043
52773SOL     OW60157   0.230   9.930  12.144
52773SOL    HW160158   0.255   9.950  12.054
52773SOL    HW260159   0.230   9.834  12.148
52774SOL     OW60160   3.884  11.514   0.775
52774SOL    HW160161   3.926  11.578   0.716
52774SOL    HW260162   3.793  11.511   0.746
52775SOL     OW60163   3.528   0.556   5.855
52775SOL    HW160164   3.534   0.631   5.796
52775SOL    HW260165   3.527   0.480   5.797
52776SOL     OW60166   0.887   7.616   0.749
52776SOL    HW160167   0.973   7.640   0.785
52776SOL    HW260168   0.896   7.522   0.729
52777SOL     OW60169   3.937   4.350  10.361
52777SOL    HW160170   3.860   4.371  10.309
52777SOL    HW260171   3.954   4.429  10.413
52778SOL     OW60172  11.444   6.810  13.788
52778SOL    HW160173  11.429   6.825  13.881
52778SOL    HW260174  11.364   6.768  13.757
52779SOL     OW60175   7.263   6.717   8.308
52779SOL    HW160176   7.264   6.692   8.216
52779SOL    HW260177   7.349   6.756   8.324
52780SOL     OW60178  11.547   2.094   7.078
52780SOL    HW160179  11.546   2.002   7.104
52780SOL    HW260180  11.457   2.112   7.050
52781SOL     OW60181   6.360   5.132   8.104
52781SOL    HW160182   6.304   5.109   8.178
52781SOL    HW260183   6.443   5.158   8.144
52782SOL     OW60184   9.188  10.011  14.368
52782SOL    HW160185   9.231  10.085  14.411
52782SOL    HW260186   9.157   9.957  14.440
52783SOL     OW60187  10.316   2.256  12.212
52783SOL    HW160188  10.348   2.216  12.293
52783SOL    HW260189  10.245   2.314  12.241
52784SOL     OW60190   4.457   7.333   3.647
52784SOL    HW160191   4.550   7.355   3.650
52784SOL    HW260192   4.442   7.304   3.557
52785SOL     OW60193   7.996   6.515  12.645
52785SOL    HW160194   8.028   6.604  12.631
52785SOL    HW260195   7.930   6.502  12.576
52786SOL     OW60196  13.579   6.001   0.698
52786SOL    HW160197  13.599   6.086   0.657
52786SOL    HW260198  13.660   5.951   0.690
52787SOL     OW60199   1.940   3.190  14.574
52787SOL    HW160200   1.905   3.104  14.600
52787SOL    HW260201   1.862   3.245  14.563
52788SOL     OW60202  10.952   2.354   6.421
52788SOL    HW160203  10.872   2.317   6.384
52788SOL    HW260204  10.936   2.357   6.515
52789SOL     OW60205  12.380   9.242  10.268
52789SOL    HW160206  12.456   9.219  10.214
52789SOL    HW260207  12.418   9.287  10.344
52790SOL     OW60208   7.792  14.536   6.272
52790SOL    HW160209   7.855  14.597   6.309
52790SOL    HW260210   7.833  14.450   6.283
52791SOL     OW60211   1.687  11.626   1.252
52791SOL    HW160212   1.737  11.694   1.296
52791SOL    HW260213   1.610  11.672   1.217
52792SOL     OW60214  13.476   3.517   1.059
52792SOL    HW160215  13.404   3.492   1.001
52792SOL    HW260216  13.469   3.612   1.067
52793SOL     OW60217  14.309   7.948   2.070
52793SOL    HW160218  14.307   7.980   2.160
52793SOL    HW260219  14.218   7.926   2.050
52794SOL     OW60220   6.071   3.960   3.058
52794SOL    HW160221   6.086   3.944   3.151
52794SOL    HW260222   5.978   3.978   3.051
52795SOL     OW60223   0.845  13.980   9.725
52795SOL    HW160224   0.827  13.991   9.632
52795SOL    HW260225   0.783  14.038   9.769
52796SOL     OW60226   1.718   8.103  11.428
52796SOL    HW160227   1.665   8.024  11.420
52796SOL    HW260228   1.737   8.129  11.338
52797SOL     OW60229   9.179  14.021  13.211
52797SOL    HW160230   9.110  14.040  13.275
52797SOL    HW260231   9.137  13.962  13.149
52798SOL     OW60232   1.493   5.608  14.008
52798SOL    HW160233   1.528   5.604  13.919
52798SOL    HW260234   1.437   5.687  14.007
52799SOL     OW60235   1.607   2.732  11.440
52799SOL    HW160236   1.582   2.692  11.357
52799SOL    HW260237   1.669   2.801  11.415
52800SOL     OW60238   3.052   4.415  14.098
52800SOL    HW160239   3.046   4.385  14.007
52800SOL    HW260240   3.069   4.335  14.148
52801SOL     OW60241   7.698   2.616  14.636
52801SOL    HW160242   7.658   2.543  14.682
52801SOL    HW260243   7.728   2.675  14.706
52802SOL     OW60244   0.770   1.727   5.278
52802SOL    HW160245   0.845   1.774   5.241
52802SOL    HW260246   0.721   1.794   5.326
52803SOL     OW60247  10.189   3.889   9.012
52803SOL    HW160248  10.099   3.894   9.043
52803SOL    HW260249  10.241   3.922   9.085
52804SOL     OW60250   5.360   6.994   2.998
52804SOL    HW160251   5.297   6.939   2.951
52804SOL    HW260252   5.307   7.066   3.033
52805SOL     OW60253  14.047   4.808  13.855
52805SOL    HW160254  13.988   4.844  13.922
52805SOL    HW260255  14.083   4.729  13.895
52806SOL     OW60256   5.946  14.506   9.879
52806SOL    HW160257   5.856  14.527   9.906
52806SOL    HW260258   5.985  14.466   9.956
52807SOL     OW60259   7.501  13.806   1.439
52807SOL    HW160260   7.426  13.816   1.498
52807SOL    HW260261   7.507  13.889   1.393
52808SOL     OW60262   9.671   1.619   2.588
52808SOL    HW160263   9.760   1.615   2.554
52808SOL    HW260264   9.681   1.612   2.683
52809SOL     OW60265   5.482   7.179   8.776
52809SOL    HW160266   5.388   7.189   8.763
52809SOL    HW260267   5.507   7.255   8.829
52810SOL     OW60268   1.287  13.535   3.707
52810SOL    HW160269   1.323  13.560   3.792
52810SOL    HW260270   1.363  13.507   3.656
52811SOL     OW60271  12.307   5.345   7.651
52811SOL    HW160272  12.269   5.283   7.589
52811SOL    HW260273  12.251   5.422   7.646
52812SOL     OW60274  12.949   2.776  10.283
52812SOL    HW160275  12.885   2.719  10.325
52812SOL    HW260276  13.033   2.749  10.319
52813SOL     OW60277   9.381   5.747   9.907
52813SOL    HW160278   9.354   5.696   9.983
52813SOL    HW260279   9.477   5.740   9.906
52814SOL     OW60280   6.140   9.597  14.184
52814SOL    HW160281   6.117   9.527  14.122
52814SOL    HW260282   6.062   9.652  14.187
52815SOL     OW60283  13.284   8.868  11.148
52815SOL    HW160284  13.272   8.820  11.230
52815SOL    HW260285  13.282   8.960  11.174
52816SOL     OW60286  12.318  13.595  11.783
52816SOL    HW160287  12.367  13.651  11.842
52816SOL    HW260288  12.361  13.607  11.698
52817SOL     OW60289   8.394   3.058   2.559
52817SOL    HW160290   8.340   3.131   2.590
52817SOL    HW260291   8.380   3.057   2.464
52818SOL     OW60292   4.723  12.676   3.542
52818SOL    HW160293   4.771  12.641   3.467
52818SOL    HW260294   4.673  12.601   3.576
52819SOL     OW60295  14.635   9.335  12.836
52819SOL    HW160296  14.623   9.252  12.882
52819SOL    HW260297  14.704   9.380  12.885
52820SOL     OW60298   7.178   5.586  10.000
52820SOL    HW160299   7.161   5.666   9.952
52820SOL    HW260300   7.114   5.523   9.967
52821SOL     OW60301  10.285  13.773   8.512
52821SOL    HW160302  10.334  13.697   8.483
52821SOL    HW260303  10.321  13.846   8.462
52822SOL     OW60304   3.203   5.866  11.436
52822SOL    HW160305   3.131   5.927  11.450
52822SOL    HW260306   3.160   5.785  11.406
52823SOL     OW60307   9.357   8.207   4.494
52823SOL    HW160308   9.272   8.174   4.521
52823SOL    HW260309   9.394   8.246   4.573
52824SOL     OW60310  12.034  10.628   6.438
52824SOL    HW160311  11.980  10.610   6.361
52824SOL    HW260312  11.998  10.570   6.506
52825SOL     OW60313  13.051  11.825   9.286
52825SOL    HW160314  13.032  11.745   9.237
52825SOL    HW260315  13.021  11.896   9.230
52826SOL     OW60316   4.946   5.689   3.671
52826SOL    HW160317   5.040   5.708   3.671
52826SOL    HW260318   4.906   5.765   3.714
52827SOL     OW60319  13.590  11.006  11.893
52827SOL    HW160320  13.666  10.975  11.844
52827SOL    HW260321  13.589  11.101  11.879
52828SOL     OW60322   1.284   8.259   8.013
52828SOL    HW160323   1.282   8.217   7.927
52828SOL    HW260324   1.366   8.308   8.014
52829SOL     OW60325   8.074  12.043   9.362
52829SOL    HW160326   8.092  12.091   9.443
52829SOL    HW260327   8.159  12.030   9.322
52830SOL     OW60328   2.390   9.312   7.484
52830SOL    HW160329   2.448   9.236   7.482
52830SOL    HW260330   2.358   9.315   7.574
52831SOL     OW60331   3.166   1.874   4.838
52831SOL    HW160332   3.115   1.954   4.844
52831SOL    HW260333   3.239   1.896   4.780
52832SOL     OW60334   3.787  13.039   3.597
52832SOL    HW160335   3.770  13.035   3.503
52832SOL    HW260336   3.755  12.956   3.631
52833SOL     OW60337   2.621   4.043  10.252
52833SOL    HW160338   2.630   4.131  10.290
52833SOL    HW260339   2.537   4.046  10.205
52834SOL     OW60340   6.645   5.479   9.857
52834SOL    HW160341   6.570   5.527   9.822
52834SOL    HW260342   6.716   5.542   9.857
52835SOL     OW60343  13.370  12.617   0.249
52835SOL    HW160344  13.440  12.610   0.185
52835SOL    HW260345  13.369  12.532   0.294
52836SOL     OW60346  11.806   5.449   1.811
52836SOL    HW160347  11.846   5.405   1.886
52836SOL    HW260348  11.812   5.385   1.740
52837SOL     OW60349  10.458   9.569  10.930
52837SOL    HW160350  10.463   9.553  10.836
52837SOL    HW260351  10.370   9.542  10.955
52838SOL     OW60352   8.661   9.706   7.972
52838SOL    HW160353   8.733   9.647   7.992
52838SOL    HW260354   8.584   9.663   8.009
52839SOL     OW60355   0.264   8.199   0.364
52839SOL    HW160356   0.266   8.203   0.459
52839SOL    HW260357   0.258   8.290   0.336
52840SOL     OW60358   7.492   9.466  12.800
52840SOL    HW160359   7.565   9.431  12.750
52840SOL    HW260360   7.469   9.548  12.756
52841SOL     OW60361  10.098   7.875   6.984
52841SOL    HW160362  10.157   7.882   7.059
52841SOL    HW260363  10.043   7.953   6.989
52842SOL     OW60364   7.871   0.929   6.917
52842SOL    HW160365   7.959   0.917   6.880
52842SOL    HW260366   7.820   0.858   6.879
52843SOL     OW60367   5.631  10.426   8.096
52843SOL    HW160368   5.682  10.436   8.177
52843SOL    HW260369   5.659  10.342   8.060
52844SOL     OW60370  12.021   2.160  12.457
52844SOL    HW160371  12.064   2.096  12.514
52844SOL    HW260372  11.942   2.185  12.504
52845SOL     OW60373  11.138   1.483   2.761
52845SOL    HW160374  11.226   1.470   2.725
52845SOL    HW260375  11.081   1.491   2.685
52846SOL     OW60376  13.639   7.515   3.867
52846SOL    HW160377  13.579   7.460   3.916
52846SOL    HW260378  13.701   7.454   3.827
52847SOL     OW60379   3.400  10.289   1.202
52847SOL    HW160380   3.495  10.301   1.192
52847SOL    HW260381   3.379  10.333   1.284
52848SOL     OW60382  14.826   6.072   0.191
52848SOL    HW160383  14.792   6.000   0.138
52848SOL    HW260384  14.846   6.033   0.276
52849SOL     OW60385  12.987   1.345   9.645
52849SOL    HW160386  13.045   1.413   9.612
52849SOL    HW260387  13.006   1.268   9.591
52850SOL     OW60388   0.246   8.393   3.917
52850SOL    HW160389   0.276   8.315   3.964
52850SOL    HW260390   0.158   8.369   3.886
52851SOL     OW60391   9.122   3.136  13.037
52851SOL    HW160392   9.197   3.114  12.983
52851SOL    HW260393   9.153   3.128  13.127
52852SOL     OW60394   0.424   9.220   6.856
52852SOL    HW160395   0.503   9.259   6.819
52852SOL    HW260396   0.370   9.199   6.780
52853SOL     OW60397   7.501   4.941   0.465
52853SOL    HW160398   7.538   4.911   0.382
52853SOL    HW260399   7.447   5.016   0.441
52854SOL     OW60400   0.756   4.833  14.065
52854SOL    HW160401   0.842   4.873  14.079
52854SOL    HW260402   0.704   4.902  14.022
52855SOL     OW60403   4.561   7.931  13.638
52855SOL    HW160404   4.613   7.902  13.564
52855SOL    HW260405   4.586   8.023  13.650
52856SOL     OW60406   6.068  14.776   5.650
52856SOL    HW160407   6.027  14.704   5.602
52856SOL    HW260408   6.086  14.738   5.737
52857SOL     OW60409  11.197  11.697   5.881
52857SOL    HW160410  11.262  11.674   5.947
52857SOL    HW260411  11.233  11.665   5.799
52858SOL     OW60412  12.925  14.289  13.119
52858SOL    HW160413  12.908  14.195  13.109
52858SOL    HW260414  12.856  14.319  13.178
52859SOL     OW60415   6.329   5.309  11.689
52859SOL    HW160416   6.364   5.296  11.778
52859SOL    HW260417   6.321   5.403  11.680
52860SOL     OW60418   9.028  14.425   6.494
52860SOL    HW160419   9.015  14.342   6.447
52860SOL    HW260420   9.101  14.407   6.553
52861SOL     OW60421   2.046   0.896   2.747
52861SOL    HW160422   1.979   0.947   2.700
52861SOL    HW260423   2.024   0.906   2.839
52862SOL     OW60424  10.467  12.630   3.661
52862SOL    HW160425  10.469  12.724   3.677
52862SOL    HW260426  10.543  12.596   3.707
52863SOL     OW60427   9.088   9.341   1.635
52863SOL    HW160428   9.065   9.423   1.679
52863SOL    HW260429   9.173   9.358   1.595
52864SOL     OW60430  11.277   9.055   8.969
52864SOL    HW160431  11.184   9.047   8.948
52864SOL    HW260432  11.322   9.047   8.884
52865SOL     OW60433   8.903   9.699   8.243
52865SOL    HW160434   8.961   9.654   8.304
52865SOL    HW260435   8.817   9.697   8.285
52866SOL     OW60436   6.138  12.894   8.708
52866SOL    HW160437   6.189  12.975   8.704
52866SOL    HW260438   6.199  12.829   8.743
52867SOL     OW60439  13.644  10.171  10.170
52867SOL    HW160440  13.677  10.237  10.231
52867SOL    HW260441  13.695  10.184  10.090
52868SOL     OW60442   2.064   5.490  12.930
52868SOL    HW160443   2.017   5.406  12.937
52868SOL    HW260444   2.004   5.547  12.883
52869SOL     OW60445   0.102   6.008   7.088
52869SOL    HW160446   0.077   6.099   7.108
52869SOL    HW260447   0.064   5.991   7.002
52870SOL     OW60448   6.548  10.930   2.364
52870SOL    HW160449   6.517  10.839   2.364
52870SOL    HW260450   6.468  10.982   2.366
52871SOL     OW60451   1.910  11.856   1.317
52871SOL    HW160452   1.968  11.828   1.387
52871SOL    HW260453   1.925  11.951   1.310
52872SOL     OW60454   8.590  10.674   8.917
52872SOL    HW160455   8.547  10.651   8.999
52872SOL    HW260456   8.594  10.769   8.917
52873SOL     OW60457   9.352  11.478  10.240
52873SOL    HW160458   9.407  11.554  10.221
52873SOL    HW260459   9.394  11.406  10.192
52874SOL     OW60460   0.044  14.145   2.290
52874SOL    HW160461  14.824  14.124   2.287
52874SOL    HW260462   0.088  14.062   2.276
52875SOL     OW60463  11.265   8.438   6.947
52875SOL    HW160464  11.171   8.421   6.948
52875SOL    HW260465  11.273   8.528   6.914
52876SOL     OW60466   9.621  13.738   8.753
52876SOL    HW160467   9.573  13.806   8.706
52876SOL    HW260468   9.594  13.656   8.711
52877SOL     OW60469   1.621   2.069   5.287
52877SOL    HW160470   1.574   2.151   5.305
52877SOL    HW260471   1.588   2.041   5.202
52878SOL     OW60472   8.999   9.877   6.862
52878SOL    HW160473   8.936   9.866   6.933
52878SOL    HW260474   9.078   9.832   6.893
52879SOL     OW60475  12.286   5.449   7.952
52879SOL    HW160476  12.339   5.482   7.880
52879SOL    HW260477  12.310   5.504   8.027
52880SOL     OW60478   3.947  10.136   0.783
52880SOL    HW160479   4.026  10.086   0.762
52880SOL    HW260480   3.942  10.202   0.714
52881SOL     OW60481  13.020   2.714  12.084
52881SOL    HW160482  13.104   2.731  12.041
52881SOL    HW260483  13.035   2.734  12.176
52882SOL     OW60484   4.001   4.554  10.958
52882SOL    HW160485   4.017   4.463  10.983
52882SOL    HW260486   4.069   4.603  11.004
52883SOL     OW60487   7.119   6.850  13.297
52883SOL    HW160488   7.180   6.784  13.264
52883SOL    HW260489   7.048   6.800  13.337
52884SOL     OW60490   6.796   1.569  11.127
52884SOL    HW160491   6.848   1.551  11.048
52884SOL    HW260492   6.844   1.640  11.171
52885SOL     OW60493   7.221   3.092   4.118
52885SOL    HW160494   7.232   3.059   4.208
52885SOL    HW260495   7.310   3.106   4.087
52886SOL     OW60496   4.685  14.708   7.952
52886SOL    HW160497   4.739  14.761   8.010
52886SOL    HW260498   4.684  14.621   7.992
52887SOL     OW60499   6.434  11.384   3.511
52887SOL    HW160500   6.515  11.372   3.461
52887SOL    HW260501   6.404  11.295   3.529
52888SOL     OW60502   3.102   2.205   7.584
52888SOL    HW160503   3.063   2.166   7.662
52888SOL    HW260504   3.184   2.157   7.572
52889SOL     OW60505   9.407   3.413   2.791
52889SOL    HW160506   9.317   3.426   2.759
52889SOL    HW260507   9.433   3.498   2.825
52890SOL     OW60508  13.150   2.802  11.169
52890SOL    HW160509  13.076   2.745  11.153
52890SOL    HW260510  13.125   2.885  11.129
52891SOL     OW60511  14.619  11.436  14.786
52891SOL    HW160512  14.635  11.386  14.706
52891SOL    HW260513  14.702  11.433  14.833
52892SOL     OW60514   6.532   0.692  13.858
52892SOL    HW160515   6.456   0.719  13.908
52892SOL    HW260516   6.496   0.656  13.777
52893SOL     OW60517  13.577  10.976   5.620
52893SOL    HW160518  13.491  10.933   5.619
52893SOL    HW260519  13.632  10.918   5.673
52894SOL     OW60520  13.154  11.121  13.648
52894SOL    HW160521  13.113  11.056  13.704
52894SOL    HW260522  13.100  11.123  13.570
52895SOL     OW60523   8.282  13.800  11.588
52895SOL    HW160524   8.217  13.860  11.551
52895SOL    HW260525   8.293  13.732  11.522
52896SOL     OW60526  12.245   3.482   3.327
52896SOL    HW160527  12.160   3.466   3.368
52896SOL    HW260528  12.307   3.431   3.379
52897SOL     OW60529  13.165   3.775  10.424
52897SOL    HW160530  13.097   3.742  10.483
52897SOL    HW260531  13.207   3.845  10.473
52898SOL     OW60532   5.046   2.070   5.917
52898SOL    HW160533   5.132   2.063   5.876
52898SOL    HW260534   5.014   1.980   5.923
52899SOL     OW60535   1.329  13.725   0.997
52899SOL    HW160536   1.296  13.751   0.911
52899SOL    HW260537   1.335  13.629   0.993
52900SOL     OW60538  10.799   9.824   9.419
52900SOL    HW160539  10.827   9.748   9.470
52900SOL    HW260540  10.793   9.895   9.482
52901SOL     OW60541  10.085   3.986   0.853
52901SOL    HW160542  10.150   3.991   0.923
52901SOL    HW260543  10.137   3.980   0.773
52902SOL     OW60544   3.011   8.893   5.923
52902SOL    HW160545   3.008   8.915   6.016
52902SOL    HW260546   2.924   8.857   5.904
52903SOL     OW60547  11.205   7.998   3.138
52903SOL    HW160548  11.213   8.088   3.169
52903SOL    HW260549  11.111   7.980   3.138
52904SOL     OW60550   2.659   6.847   7.988
52904SOL    HW160551   2.640   6.844   8.082
52904SOL    HW260552   2.608   6.921   7.955
52905SOL     OW60553   6.706  10.969  14.068
52905SOL    HW160554   6.735  10.901  14.006
52905SOL    HW260555   6.787  10.998  14.110
52906SOL     OW60556  11.577   8.359  11.119
52906SOL    HW160557  11.555   8.266  11.113
52906SOL    HW260558  11.619   8.368  11.204
52907SOL     OW60559   2.514   3.224  11.005
52907SOL    HW160560   2.541   3.170  11.079
52907SOL    HW260561   2.583   3.212  10.940
52908SOL     OW60562   4.897   3.184   1.307
52908SOL    HW160563   4.929   3.102   1.346
52908SOL    HW260564   4.952   3.252   1.346
52909SOL     OW60565   9.603   6.967   3.659
52909SOL    HW160566   9.535   6.952   3.726
52909SOL    HW260567   9.563   7.029   3.598
52910SOL     OW60568   0.870   5.458  11.949
52910SOL    HW160569   0.930   5.515  11.902
52910SOL    HW260570   0.881   5.482  12.041
52911SOL     OW60571   6.011   1.373   9.888
52911SOL    HW160572   6.029   1.407   9.975
52911SOL    HW260573   5.925   1.410   9.865
52912SOL     OW60574   8.149   0.004   1.405
52912SOL    HW160575   8.166  14.784   1.417
52912SOL    HW260576   8.211   0.031   1.338
52913SOL     OW60577   6.935   4.506   0.725
52913SOL    HW160578   6.976   4.588   0.696
52913SOL    HW260579   6.846   4.533   0.751
52914SOL     OW60580  12.533   6.339   1.615
52914SOL    HW160581  12.548   6.379   1.701
52914SOL    HW260582  12.620   6.331   1.577
52915SOL     OW60583   2.014   2.366   2.766
52915SOL    HW160584   1.984   2.275   2.772
52915SOL    HW260585   2.039   2.389   2.855
52916SOL     OW60586   8.389  14.117   2.125
52916SOL    HW160587   8.376  14.036   2.174
52916SOL    HW260588   8.351  14.100   2.039
52917SOL     OW60589   6.136   2.926  14.262
52917SOL    HW160590   6.226   2.959  14.261
52917SOL    HW260591   6.142   2.838  14.225
52918SOL     OW60592   2.720   1.849  10.879
52918SOL    HW160593   2.654   1.894  10.825
52918SOL    HW260594   2.755   1.918  10.935
52919SOL     OW60595   0.734   1.506  13.423
52919SOL    HW160596   0.674   1.580  13.424
52919SOL    HW260597   0.744   1.485  13.330
52920SOL     OW60598  12.587   6.819   0.748
52920SOL    HW160599  12.640   6.747   0.716
52920SOL    HW260600  12.632   6.848   0.828
52921SOL     OW60601   2.342   5.869   9.616
52921SOL    HW160602   2.343   5.792   9.672
52921SOL    HW260603   2.434   5.892   9.605
52922SOL     OW60604   4.243   5.039   0.931
52922SOL    HW160605   4.230   4.959   0.880
52922SOL    HW260606   4.196   5.022   1.013
52923SOL     OW60607   5.939   4.530   3.968
52923SOL    HW160608   5.918   4.463   3.903
52923SOL    HW260609   6.030   4.554   3.950
52924SOL     OW60610  10.837   0.476   2.543
52924SOL    HW160611  10.924   0.440   2.554
52924SOL    HW260612  10.814   0.511   2.630
52925SOL     OW60613   3.287   7.863  12.895
52925SOL    HW160614   3.296   7.781  12.942
52925SOL    HW260615   3.338   7.850  12.815
52926SOL     OW60616   2.589  11.217  12.699
52926SOL    HW160617   2.677  11.225  12.664
52926SOL    HW260618   2.549  11.302  12.684
52927SOL     OW60619  12.629   0.816   6.099
52927SOL    HW160620  12.653   0.776   6.016
52927SOL    HW260621  12.701   0.878   6.117
52928SOL     OW60622   1.040  11.909   2.461
52928SOL    HW160623   0.972  11.878   2.522
52928SOL    HW260624   1.011  11.878   2.375
52929SOL     OW60625   3.522  10.482   2.707
52929SOL    HW160626   3.551  10.574   2.707
52929SOL    HW260627   3.603  10.431   2.704
52930SOL     OW60628  12.021   2.138  12.037
52930SOL    HW160629  12.018   2.204  12.107
52930SOL    HW260630  12.090   2.078  12.064
52931SOL     OW60631   7.125   2.341   3.431
52931SOL    HW160632   7.123   2.432   3.404
52931SOL    HW260633   7.195   2.301   3.378
52932SOL     OW60634   3.500  14.637  13.611
52932SOL    HW160635   3.420  14.673  13.649
52932SOL    HW260636   3.542  14.713  13.569
52933SOL     OW60637   4.533  12.426  10.885
52933SOL    HW160638   4.520  12.516  10.916
52933SOL    HW260639   4.494  12.371  10.952
52934SOL     OW60640   3.330   9.827   9.594
52934SOL    HW160641   3.387   9.882   9.648
52934SOL    HW260642   3.271   9.785   9.655
52935SOL     OW60643  10.658   5.081   6.483
52935SOL    HW160644  10.632   5.059   6.394
52935SOL    HW260645  10.634   5.173   6.493
52936SOL     OW60646   2.769  11.688   8.726
52936SOL    HW160647   2.829  11.625   8.685
52936SOL    HW260648   2.771  11.665   8.819
52937SOL     OW60649   1.869   6.783   9.900
52937SOL    HW160650   1.883   6.706   9.845
52937SOL    HW260651   1.948   6.835   9.888
52938SOL     OW60652   3.449   9.128   7.901
52938SOL    HW160653   3.432   9.220   7.882
52938SOL    HW260654   3.526   9.107   7.848
52939SOL     OW60655  10.577   3.781   5.370
52939SOL    HW160656  10.608   3.772   5.460
52939SOL    HW260657  10.489   3.819   5.378
52940SOL     OW60658   8.202   2.314  10.823
52940SOL    HW160659   8.168   2.401  10.843
52940SOL    HW260660   8.192   2.266  10.905
52941SOL     OW60661   9.932   2.642  10.067
52941SOL    HW160662  10.001   2.692  10.112
52941SOL    HW260663   9.869   2.709  10.039
52942SOL     OW60664   0.067   8.550  14.719
52942SOL    HW160665  14.860   8.541  14.770
52942SOL    HW260666   0.131   8.500  14.769
52943SOL     OW60667  13.120   7.946   9.447
52943SOL    HW160668  13.036   7.954   9.492
52943SOL    HW260669  13.101   7.891   9.371
52944SOL     OW60670   4.830  12.620   3.227
52944SOL    HW160671   4.761  12.641   3.165
52944SOL    HW260672   4.887  12.697   3.226
52945SOL     OW60673  14.335   2.715   5.523
52945SOL    HW160674  14.371   2.662   5.452
52945SOL    HW260675  14.283   2.782   5.479
52946SOL     OW60676  11.966   2.247   3.565
52946SOL    HW160677  11.935   2.203   3.486
52946SOL    HW260678  11.991   2.334   3.536
52947SOL     OW60679   3.639   6.726   8.413
52947SOL    HW160680   3.610   6.645   8.456
52947SOL    HW260681   3.594   6.796   8.459
52948SOL     OW60682   1.344   5.567   3.010
52948SOL    HW160683   1.303   5.512   2.943
52948SOL    HW260684   1.438   5.552   3.000
52949SOL     OW60685   3.190   2.058   0.488
52949SOL    HW160686   3.132   2.118   0.443
52949SOL    HW260687   3.259   2.038   0.425
52950SOL     OW60688   8.718   7.209   8.067
52950SOL    HW160689   8.724   7.120   8.102
52950SOL    HW260690   8.676   7.259   8.137
52951SOL     OW60691   6.967   1.504   7.439
52951SOL    HW160692   7.007   1.586   7.467
52951SOL    HW260693   6.965   1.509   7.344
52952SOL     OW60694   8.414   1.109   5.166
52952SOL    HW160695   8.461   1.066   5.094
52952SOL    HW260696   8.476   1.109   5.239
52953SOL     OW60697   8.181   5.035  10.368
52953SOL    HW160698   8.267   5.045  10.409
52953SOL    HW260699   8.187   4.952  10.321
52954SOL     OW60700   9.903  12.276   0.473
52954SOL    HW160701   9.816  12.290   0.437
52954SOL    HW260702   9.930  12.362   0.505
52955SOL     OW60703   1.006   9.163   0.176
52955SOL    HW160704   0.980   9.156   0.269
52955SOL    HW260705   1.101   9.166   0.178
52956SOL     OW60706   7.871   6.892   1.113
52956SOL    HW160707   7.960   6.921   1.131
52956SOL    HW260708   7.868   6.878   1.018
52957SOL     OW60709  11.784   0.721   0.444
52957SOL    HW160710  11.859   0.662   0.449
52957SOL    HW260711  11.713   0.666   0.410
52958SOL     OW60712   9.778  14.106  10.407
52958SOL    HW160713   9.761  14.154  10.325
52958SOL    HW260714   9.705  14.045  10.414
52959SOL     OW60715  10.781   2.895   7.215
52959SOL    HW160716  10.808   2.890   7.307
52959SOL    HW260717  10.759   2.987   7.201
52960SOL     OW60718  11.183  14.803   6.443
52960SOL    HW160719  11.205  14.716   6.476
52960SOL    HW260720  11.240  14.814   6.367
52961SOL     OW60721   2.646   1.134  13.162
52961SOL    HW160722   2.617   1.072  13.229
52961SOL    HW260723   2.673   1.079  13.088
52962SOL     OW60724   0.353   0.331  12.268
52962SOL    HW160725   0.327   0.390  12.197
52962SOL    HW260726   0.359   0.386  12.345
52963SOL     OW60727   7.446   9.156  11.996
52963SOL    HW160728   7.428   9.141  12.089
52963SOL    HW260729   7.426   9.072  11.954
52964SOL     OW60730  13.814   9.527   2.786
52964SOL    HW160731  13.866   9.607   2.772
52964SOL    HW260732  13.725   9.558   2.800
52965SOL     OW60733   2.798   9.816   1.434
52965SOL    HW160734   2.817   9.900   1.392
52965SOL    HW260735   2.704   9.818   1.451
52966SOL     OW60736   6.042   6.912  12.963
52966SOL    HW160737   5.977   6.867  12.909
52966SOL    HW260738   6.087   6.843  13.011
52967SOL     OW60739   9.156  14.096   3.146
52967SOL    HW160740   9.118  14.183   3.159
52967SOL    HW260741   9.220  14.108   3.076
52968SOL     OW60742   3.100   3.274  13.560
52968SOL    HW160743   3.065   3.358  13.588
52968SOL    HW260744   3.051   3.253  13.481
52969SOL     OW60745  12.118   7.529  14.454
52969SOL    HW160746  12.064   7.556  14.379
52969SOL    HW260747  12.197   7.582  14.446
52970SOL     OW60748   0.027   3.940   5.286
52970SOL    HW160749   0.013   4.028   5.252
52970SOL    HW260750   0.110   3.912   5.246
52971SOL     OW60751   7.973   9.235  13.450
52971SOL    HW160752   7.895   9.253  13.397
52971SOL    HW260753   8.046   9.242  13.389
52972SOL     OW60754   1.657   5.566  14.389
52972SOL    HW160755   1.593   5.594  14.456
52972SOL    HW260756   1.663   5.641  14.330
52973SOL     OW60757   0.742   0.896   7.459
52973SOL    HW160758   0.781   0.870   7.542
52973SOL    HW260759   0.812   0.882   7.395
52974SOL     OW60760   5.468   0.653   9.834
52974SOL    HW160761   5.382   0.652   9.876
52974SOL    HW260762   5.458   0.597   9.757
52975SOL     OW60763   6.731  10.469   3.059
52975SOL    HW160764   6.752  10.417   2.981
52975SOL    HW260765   6.743  10.408   3.132
52976SOL     OW60766   5.457  10.886  11.144
52976SOL    HW160767   5.476  10.967  11.191
52976SOL    HW260768   5.363  10.890  11.126
52977SOL     OW60769   0.094   0.682  14.140
52977SOL    HW160770   0.068   0.774  14.140
52977SOL    HW260771   0.110   0.661  14.232
52978SOL     OW60772   1.645   2.917   8.961
52978SOL    HW160773   1.712   2.857   8.929
52978SOL    HW260774   1.567   2.863   8.974
52979SOL     OW60775   2.222  13.108   7.741
52979SOL    HW160776   2.162  13.130   7.813
52979SOL    HW260777   2.297  13.068   7.785
52980SOL     OW60778   0.415   9.952  11.882
52980SOL    HW160779   0.456   9.976  11.799
52980SOL    HW260780   0.455   9.868  11.905
52981SOL     OW60781   0.730   4.749   2.681
52981SOL    HW160782   0.642   4.743   2.645
52981SOL    HW260783   0.743   4.667   2.728
52982SOL     OW60784  11.704  12.980   3.567
52982SOL    HW160785  11.713  12.991   3.473
52982SOL    HW260786  11.792  12.960   3.598
52983SOL     OW60787   0.082   5.636   4.952
52983SOL    HW160788   0.052   5.584   5.027
52983SOL    HW260789   0.003   5.679   4.919
52984SOL     OW60790   8.842   5.732  14.712
52984SOL    HW160791   8.883   5.671  14.774
52984SOL    HW260792   8.830   5.681  14.632
52985SOL     OW60793   5.186   5.911   7.948
52985SOL    HW160794   5.096   5.934   7.929
52985SOL    HW260795   5.216   5.980   8.007
52986SOL     OW60796   7.259   3.684   5.891
52986SOL    HW160797   7.222   3.605   5.852
52986SOL    HW260798   7.352   3.681   5.868
52987SOL     OW60799   8.508   5.156   6.456
52987SOL    HW160800   8.538   5.223   6.518
52987SOL    HW260801   8.549   5.180   6.373
52988SOL     OW60802   3.282  12.738  13.497
52988SOL    HW160803   3.196  12.773  13.477
52988SOL    HW260804   3.306  12.686  13.421
52989SOL     OW60805   6.607  12.149   3.158
52989SOL    HW160806   6.512  12.145   3.145
52989SOL    HW260807   6.640  12.187   3.076
52990SOL     OW60808   6.668   1.766   0.109
52990SOL    HW160809   6.730   1.813   0.052
52990SOL    HW260810   6.582   1.785   0.071
52991SOL     OW60811   1.939   2.465  11.675
52991SOL    HW160812   2.030   2.485  11.655
52991SOL    HW260813   1.937   2.458  11.771
52992SOL     OW60814  11.669   3.395   7.460
52992SOL    HW160815  11.601   3.459   7.440
52992SOL    HW260816  11.696   3.361   7.375
52993SOL     OW60817   7.487  13.926   8.306
52993SOL    HW160818   7.479  13.874   8.226
52993SOL    HW260819   7.578  13.956   8.306
52994SOL     OW60820   8.017   8.739   2.745
52994SOL    HW160821   8.021   8.834   2.754
52994SOL    HW260822   8.041   8.723   2.654
52995SOL     OW60823   5.944   1.646   3.437
52995SOL    HW160824   5.986   1.562   3.417
52995SOL    HW260825   5.930   1.686   3.351
52996SOL     OW60826  12.751   5.717   2.395
52996SOL    HW160827  12.838   5.741   2.427
52996SOL    HW260828  12.703   5.800   2.393
52997SOL     OW60829   3.195   7.387  10.152
52997SOL    HW160830   3.122   7.446  10.173
52997SOL    HW260831   3.183   7.312  10.209
52998SOL     OW60832   0.710  10.374  10.828
52998SOL    HW160833   0.655  10.376  10.750
52998SOL    HW260834   0.650  10.354  10.900
52999SOL     OW60835   5.227  11.420   6.323
52999SOL    HW160836   5.156  11.464   6.371
52999SOL    HW260837   5.191  11.403   6.236
53000SOL     OW60838   2.386   9.143   8.955
53000SOL    HW160839   2.294   9.117   8.959
53000SOL    HW260840   2.433   9.075   9.004
53001SOL     OW60841  14.440   7.513   6.914
53001SOL    HW160842  14.391   7.476   6.841
53001SOL    HW260843  14.399   7.474   6.992
53002SOL     OW60844   2.096  14.095  11.603
53002SOL    HW160845   2.137  14.166  11.652
53002SOL    HW260846   2.055  14.138  11.528
53003SOL     OW60847   3.982   7.161   9.886
53003SOL    HW160848   3.963   7.086   9.830
53003SOL    HW260849   4.068   7.143   9.922
53004SOL     OW60850  14.570   7.818   2.555
53004SOL    HW160851  14.553   7.906   2.589
53004SOL    HW260852  14.577   7.764   2.634
53005SOL     OW60853   1.234   2.667  14.075
53005SOL    HW160854   1.179   2.701  14.004
53005SOL    HW260855   1.226   2.732  14.145
53006SOL     OW60856   5.066  10.156   8.547
53006SOL    HW160857   5.011  10.191   8.477
53006SOL    HW260858   5.050  10.214   8.621
53007SOL     OW60859  12.432   0.696  14.801
53007SOL    HW160860  12.459   0.620  14.749
53007SOL    HW260861  12.343   0.675  14.830
53008SOL     OW60862   4.677   4.504   3.327
53008SOL    HW160863   4.744   4.524   3.391
53008SOL    HW260864   4.684   4.575   3.263
53009SOL     OW60865   1.609   7.278   7.024
53009SOL    HW160866   1.638   7.340   7.091
53009SOL    HW260867   1.518   7.261   7.046
53010SOL     OW60868  13.677  12.520   1.009
53010SOL    HW160869  13.708  12.590   0.951
53010SOL    HW260870  13.690  12.440   0.959
53011SOL     OW60871   4.882  10.561   3.743
53011SOL    HW160872   4.824  10.636   3.732
53011SOL    HW260873   4.952  10.575   3.679
53012SOL     OW60874  11.608   6.565   0.924
53012SOL    HW160875  11.556   6.512   0.863
53012SOL    HW260876  11.699   6.553   0.896
53013SOL     OW60877   7.310   4.083   5.772
53013SOL    HW160878   7.237   4.043   5.725
53013SOL    HW260879   7.278   4.170   5.796
53014SOL     OW60880   5.511  10.435   0.545
53014SOL    HW160881   5.488  10.528   0.547
53014SOL    HW260882   5.493  10.408   0.455
53015SOL     OW60883   2.583   9.549  13.286
53015SOL    HW160884   2.530   9.469  13.285
53015SOL    HW260885   2.532   9.611  13.338
53016SOL     OW60886  10.554   9.106  14.437
53016SOL    HW160887  10.580   9.015  14.452
53016SOL    HW260888  10.468   9.101  14.397
53017SOL     OW60889   7.644   9.523  10.128
53017SOL    HW160890   7.657   9.434  10.161
53017SOL    HW260891   7.711   9.576  10.171
53018SOL     OW60892  14.010   1.097   2.590
53018SOL    HW160893  14.039   1.184   2.616
53018SOL    HW260894  13.917   1.095   2.611
53019SOL     OW60895   3.815  11.191   1.485
53019SOL    HW160896   3.871  11.115   1.471
53019SOL    HW260897   3.853  11.260   1.430
53020SOL     OW60898  14.000   3.450   8.389
53020SOL    HW160899  13.929   3.465   8.327
53020SOL    HW260900  13.955   3.431   8.472
53021SOL     OW60901  14.328   3.967  10.054
53021SOL    HW160902  14.340   4.029   9.982
53021SOL    HW260903  14.398   3.903  10.042
53022SOL     OW60904   5.818   1.178  11.027
53022SOL    HW160905   5.839   1.265  11.060
53022SOL    HW260906   5.746   1.148  11.083
53023SOL     OW60907   1.135   7.066   3.214
53023SOL    HW160908   1.164   7.057   3.124
53023SOL    HW260909   1.043   7.091   3.207
53024SOL     OW60910  10.218  14.054   8.381
53024SOL    HW160911  10.152  14.115   8.411
53024SOL    HW260912  10.196  14.038   8.289
53025SOL     OW60913   1.007   7.743   0.087
53025SOL    HW160914   1.016   7.838   0.096
53025SOL    HW260915   1.068   7.719   0.017
53026SOL     OW60916   3.399   8.441   2.857
53026SOL    HW160917   3.347   8.476   2.784
53026SOL    HW260918   3.403   8.347   2.839
53027SOL     OW60919   8.964  12.887   5.695
53027SOL    HW160920   8.939  12.811   5.643
53027SOL    HW260921   9.043  12.859   5.742
53028SOL     OW60922   4.343   4.029  12.728
53028SOL    HW160923   4.358   4.109  12.778
53028SOL    HW260924   4.429   4.007  12.692
53029SOL     OW60925  13.547  13.783  14.199
53029SOL    HW160926  13.480  13.719  14.175
53029SOL    HW260927  13.622  13.761  14.144
53030SOL     OW60928   6.428  14.130  14.220
53030SOL    HW160929   6.390  14.199  14.274
53030SOL    HW260930   6.395  14.049  14.258
53031SOL     OW60931   9.247   6.046   2.993
53031SOL    HW160932   9.220   5.976   3.052
53031SOL    HW260933   9.205   6.027   2.910
53032SOL     OW60934  14.819   3.178   4.195
53032SOL    HW160935  14.840   3.085   4.203
53032SOL    HW260936   0.027   3.219   4.168
53033SOL     OW60937   8.477   8.169   2.468
53033SOL    HW160938   8.421   8.107   2.421
53033SOL    HW260939   8.430   8.187   2.549
53034SOL     OW60940   4.803  12.542  14.843
53034SOL    HW160941   4.891  12.553  14.807
53034SOL    HW260942   4.818  12.497   0.053
53035SOL     OW60943  11.239   7.768   6.840
53035SOL    HW160944  11.172   7.724   6.788
53035SOL    HW260945  11.218   7.744   6.931
53036SOL     OW60946   7.833  11.634  14.588
53036SOL    HW160947   7.918  11.632  14.631
53036SOL    HW260948   7.854  11.641  14.494
53037SOL     OW60949   1.757   6.600   6.199
53037SOL    HW160950   1.680   6.630   6.248
53037SOL    HW260951   1.736   6.621   6.108
53038SOL     OW60952  12.115   9.561  10.418
53038SOL    HW160953  12.113   9.635  10.357
53038SOL    HW260954  12.208   9.540  10.426
53039SOL     OW60955   4.626   9.999  13.579
53039SOL    HW160956   4.706  10.024  13.625
53039SOL    HW260957   4.654   9.938  13.512
53040SOL     OW60958   3.048   1.475   3.662
53040SOL    HW160959   3.033   1.562   3.625
53040SOL    HW260960   2.969   1.425   3.640
53041SOL     OW60961   3.540   7.607   5.528
53041SOL    HW160962   3.512   7.558   5.451
53041SOL    HW260963   3.459   7.622   5.578
53042SOL     OW60964  13.828   0.716  12.262
53042SOL    HW160965  13.845   0.744  12.351
53042SOL    HW260966  13.843   0.794  12.209
53043SOL     OW60967   3.032   1.430   6.800
53043SOL    HW160968   3.099   1.443   6.733
53043SOL    HW260969   2.955   1.477   6.767
53044SOL     OW60970   9.287   9.986  12.583
53044SOL    HW160971   9.220  10.001  12.649
53044SOL    HW260972   9.338   9.912  12.616
53045SOL     OW60973   3.573  10.186   9.160
53045SOL    HW160974   3.605  10.100   9.133
53045SOL    HW260975   3.652  10.239   9.169
53046SOL     OW60976   0.944   4.143   2.907
53046SOL    HW160977   0.883   4.213   2.885
53046SOL    HW260978   0.890   4.064   2.906
53047SOL     OW60979  14.552   4.266   8.390
53047SOL    HW160980  14.552   4.323   8.467
53047SOL    HW260981  14.528   4.324   8.318
53048SOL     OW60982  12.592   1.375  13.290
53048SOL    HW160983  12.587   1.299  13.232
53048SOL    HW260984  12.686   1.385  13.309
53049SOL     OW60985  10.907   2.078   1.716
53049SOL    HW160986  10.993   2.100   1.680
53049SOL    HW260987  10.860   2.161   1.718
53050SOL     OW60988  12.540   1.508   3.433
53050SOL    HW160989  12.624   1.463   3.432
53050SOL    HW260990  12.475   1.438   3.428
53051SOL     OW60991  10.853   9.789   6.408
53051SOL    HW160992  10.949   9.791   6.411
53051SOL    HW260993  10.826   9.872   6.449
53052SOL     OW60994   3.184  11.178   0.678
53052SOL    HW160995   3.274  11.152   0.698
53052SOL    HW260996   3.139  11.174   0.762
53053SOL     OW60997  13.807   5.849   2.957
53053SOL    HW160998  13.724   5.802   2.951
53053SOL    HW260999  13.826   5.875   2.867
53054SOL     OW61000   5.626  12.297  11.712
53054SOL    HW161001   5.708  12.326  11.672
53054SOL    HW261002   5.654  12.237  11.782
53055SOL     OW61003  10.899   6.174  14.592
53055SOL    HW161004  10.831   6.126  14.544
53055SOL    HW261005  10.977   6.120  14.583
53056SOL     OW61006   2.616  10.841  11.756
53056SOL    HW161007   2.542  10.826  11.697
53056SOL    HW261008   2.625  10.936  11.761
53057SOL     OW61009   1.363  12.344  14.307
53057SOL    HW161010   1.329  12.431  14.328
53057SOL    HW261011   1.430  12.327  14.373
53058SOL     OW61012   9.338   7.466   3.025
53058SOL    HW161013   9.408   7.486   2.962
53058SOL    HW261014   9.383   7.460   3.109
53059SOL     OW61015   2.543   7.314   3.586
53059SOL    HW161016   2.529   7.263   3.666
53059SOL    HW261017   2.469   7.376   3.583
53060SOL     OW61018   7.076   6.521   8.376
53060SOL    HW161019   7.037   6.583   8.314
53060SOL    HW261020   7.168   6.545   8.381
53061SOL     OW61021  11.664   8.138   9.461
53061SOL    HW161022  11.709   8.056   9.442
53061SOL    HW261023  11.571   8.118   9.450
53062SOL     OW61024   6.883   8.418   3.318
53062SOL    HW161025   6.921   8.503   3.298
53062SOL    HW261026   6.789   8.433   3.318
53063SOL     OW61027   4.140   6.382   2.248
53063SOL    HW161028   4.229   6.353   2.231
53063SOL    HW261029   4.085   6.320   2.200
53064SOL     OW61030  12.529  13.819   8.101
53064SOL    HW161031  12.437  13.801   8.120
53064SOL    HW261032  12.539  13.801   8.007
53065SOL     OW61033   6.811   0.904  12.667
53065SOL    HW161034   6.786   0.873  12.580
53065SOL    HW261035   6.902   0.934  12.656
53066SOL     OW61036   8.590  12.225   3.682
53066SOL    HW161037   8.619  12.305   3.639
53066SOL    HW261038   8.666  12.195   3.732
53067SOL     OW61039   8.282   1.286   2.039
53067SOL    HW161040   8.343   1.272   2.111
53067SOL    HW261041   8.294   1.210   1.982
53068SOL     OW61042  12.556   3.861   2.620
53068SOL    HW161043  12.580   3.920   2.549
53068SOL    HW261044  12.495   3.911   2.674
53069SOL     OW61045   6.358   6.243  12.511
53069SOL    HW161046   6.354   6.234  12.416
53069SOL    HW261047   6.272   6.278  12.536
53070SOL     OW61048   6.142  11.322   1.601
53070SOL    HW161049   6.163  11.415   1.589
53070SOL    HW261050   6.227  11.281   1.620
53071SOL     OW61051   8.301   5.295  10.684
53071SOL    HW161052   8.371   5.359  10.670
53071SOL    HW261053   8.338   5.212  10.655
53072SOL     OW61054  12.139   7.257   7.418
53072SOL    HW161055  12.069   7.323   7.411
53072SOL    HW261056  12.099   7.177   7.384
53073SOL     OW61057  11.389   7.038   5.736
53073SOL    HW161058  11.303   7.020   5.773
53073SOL    HW261059  11.372   7.069   5.647
53074SOL     OW61060   1.558  12.122   6.069
53074SOL    HW161061   1.608  12.142   6.149
53074SOL    HW261062   1.573  12.198   6.012
53075SOL     OW61063   1.974  13.448   7.657
53075SOL    HW161064   2.062  13.421   7.631
53075SOL    HW261065   1.916  13.400   7.597
53076SOL     OW61066   3.858   4.868   8.893
53076SOL    HW161067   3.806   4.940   8.857
53076SOL    HW261068   3.947   4.886   8.864
53077SOL     OW61069  13.701   1.182  13.703
53077SOL    HW161070  13.749   1.101  13.684
53077SOL    HW261071  13.709   1.234  13.623
53078SOL     OW61072   7.274   3.942  10.349
53078SOL    HW161073   7.343   3.890  10.309
53078SOL    HW261074   7.259   3.901  10.434
53079SOL     OW61075   9.604  10.754   3.482
53079SOL    HW161076   9.694  10.781   3.463
53079SOL    HW261077   9.606  10.728   3.574
53080SOL     OW61078  10.250   5.298   8.902
53080SOL    HW161079  10.344   5.305   8.922
53080SOL    HW261080  10.207   5.336   8.978
53081SOL     OW61081   3.311   8.909   6.959
53081SOL    HW161082   3.331   8.850   7.032
53081SOL    HW261083   3.396   8.946   6.934
53082SOL     OW61084   8.185   5.517  11.463
53082SOL    HW161085   8.195   5.495  11.370
53082SOL    HW261086   8.221   5.442  11.510
53083SOL     OW61087  10.165  10.954  13.352
53083SOL    HW161088  10.131  10.873  13.390
53083SOL    HW261089  10.254  10.962  13.388
53084SOL     OW61090   9.979   2.486   1.606
53084SOL    HW161091   9.987   2.534   1.688
53084SOL    HW261092   9.916   2.536   1.554
53085SOL     OW61093   6.334  13.087   1.477
53085SOL    HW161094   6.366  13.002   1.508
53085SOL    HW261095   6.366  13.150   1.542
53086SOL     OW61096   5.576  12.004   0.789
53086SOL    HW161097   5.552  11.966   0.705
53086SOL    HW261098   5.576  12.099   0.774
53087SOL     OW61099  11.578   6.455  12.298
53087SOL    HW161100  11.485   6.432  12.297
53087SOL    HW261101  11.599   6.477  12.207
53088SOL     OW61102  10.713  12.904   3.486
53088SOL    HW161103  10.646  12.972   3.480
53088SOL    HW261104  10.741  12.906   3.578
53089SOL     OW61105  11.991   9.609  10.665
53089SOL    HW161106  12.070   9.596  10.717
53089SOL    HW261107  12.022   9.619  10.575
53090SOL     OW61108  10.479  14.696   4.511
53090SOL    HW161109  10.525  14.614   4.492
53090SOL    HW261110  10.471  14.698   4.606
53091SOL     OW61111  10.216  13.731   5.586
53091SOL    HW161112  10.294  13.786   5.593
53091SOL    HW261113  10.249  13.645   5.560
53092SOL     OW61114   8.402   8.866  12.081
53092SOL    HW161115   8.413   8.827  12.168
53092SOL    HW261116   8.443   8.803  12.022
53093SOL     OW61117   6.497  10.274   5.701
53093SOL    HW161118   6.588  10.275   5.729
53093SOL    HW261119   6.489  10.349   5.642
53094SOL     OW61120   6.561   8.639  11.101
53094SOL    HW161121   6.652   8.655  11.125
53094SOL    HW261122   6.510   8.690  11.163
53095SOL     OW61123   2.235   7.098   6.171
53095SOL    HW161124   2.276   7.180   6.198
53095SOL    HW261125   2.291   7.066   6.100
53096SOL     OW61126  13.877  12.410   4.354
53096SOL    HW161127  13.791  12.448   4.337
53096SOL    HW261128  13.921  12.474   4.409
53097SOL     OW61129   7.099   4.076   9.208
53097SOL    HW161130   7.143   4.152   9.169
53097SOL    HW261131   7.084   4.101   9.299
53098SOL     OW61132   5.616   1.878   1.980
53098SOL    HW161133   5.635   1.787   1.955
53098SOL    HW261134   5.638   1.881   2.073
53099SOL     OW61135  12.490  10.137  12.953
53099SOL    HW161136  12.461  10.103  13.038
53099SOL    HW261137  12.564  10.194  12.975
53100SOL     OW61138  13.638   3.597  10.555
53100SOL    HW161139  13.703   3.662  10.528
53100SOL    HW261140  13.562   3.649  10.582
53101SOL     OW61141   6.608   2.926  14.056
53101SOL    HW161142   6.546   2.877  14.001
53101SOL    HW261143   6.621   3.009  14.010
53102SOL     OW61144   2.469  13.099   2.212
53102SOL    HW161145   2.409  13.028   2.188
53102SOL    HW261146   2.513  13.122   2.130
53103SOL     OW61147   7.454   8.777   1.582
53103SOL    HW161148   7.376   8.756   1.633
53103SOL    HW261149   7.432   8.859   1.538
53104SOL     OW61150  12.129   8.962   4.158
53104SOL    HW161151  12.118   9.015   4.236
53104SOL    HW261152  12.042   8.926   4.140
53105SOL     OW61153  13.892   0.081   7.078
53105SOL    HW161154  13.834   0.076   7.154
53105SOL    HW261155  13.851   0.023   7.013
53106SOL     OW61156   5.992   6.505  12.024
53106SOL    HW161157   5.964   6.461  12.103
53106SOL    HW261158   5.933   6.580  12.015
53107SOL     OW61159  12.080  14.363   4.362
53107SOL    HW161160  12.060  14.428   4.429
53107SOL    HW261161  12.033  14.284   4.390
53108SOL     OW61162  11.468  13.403  11.035
53108SOL    HW161163  11.539  13.356  11.077
53108SOL    HW261164  11.427  13.339  10.977
53109SOL     OW61165   2.690   1.870   4.495
53109SOL    HW161166   2.699   1.942   4.432
53109SOL    HW261167   2.747   1.801   4.461
53110SOL     OW61168  10.795   2.354   5.664
53110SOL    HW161169  10.826   2.383   5.750
53110SOL    HW261170  10.731   2.420   5.638
53111SOL     OW61171   5.976   9.924  14.597
53111SOL    HW161172   6.023   9.913  14.514
53111SOL    HW261173   5.884   9.932  14.572
53112SOL     OW61174   5.554   5.380   8.518
53112SOL    HW161175   5.622   5.312   8.522
53112SOL    HW261176   5.477   5.339   8.558
53113SOL     OW61177   1.881  13.319  11.897
53113SOL    HW161178   1.790  13.349  11.896
53113SOL    HW261179   1.877  13.230  11.930
53114SOL     OW61180  13.444   9.038   5.345
53114SOL    HW161181  13.442   8.988   5.426
53114SOL    HW261182  13.502   8.989   5.287
53115SOL     OW61183   2.557   3.225   0.949
53115SOL    HW161184   2.485   3.190   1.002
53115SOL    HW261185   2.630   3.232   1.010
53116SOL     OW61186   3.167   4.359   8.308
53116SOL    HW161187   3.246   4.314   8.337
53116SOL    HW261188   3.162   4.341   8.214
53117SOL     OW61189  12.680   9.924   3.837
53117SOL    HW161190  12.632   9.939   3.755
53117SOL    HW261191  12.625   9.964   3.905
53118SOL     OW61192   5.973  14.813   0.828
53118SOL    HW161193   5.969   0.032   0.809
53118SOL    HW261194   6.052  14.803   0.881
53119SOL     OW61195  14.754   3.096  14.782
53119SOL    HW161196  14.836   3.127  14.821
53119SOL    HW261197  14.753   3.136  14.695
53120SOL     OW61198   5.101   8.710   9.660
53120SOL    HW161199   5.093   8.649   9.587
53120SOL    HW261200   5.048   8.671   9.729
53121SOL     OW61201   2.435  14.147   6.523
53121SOL    HW161202   2.511  14.203   6.508
53121SOL    HW261203   2.450  14.109   6.610
53122SOL     OW61204   5.258  11.182   7.495
53122SOL    HW161205   5.172  11.157   7.527
53122SOL    HW261206   5.318  11.123   7.541
53123SOL     OW61207   4.106   6.042  14.577
53123SOL    HW161208   4.171   6.063  14.644
53123SOL    HW261209   4.142   6.079  14.496
53124SOL     OW61210   7.905  14.261   6.297
53124SOL    HW161211   7.833  14.237   6.355
53124SOL    HW261212   7.984  14.241   6.347
53125SOL     OW61213  10.883  12.836   4.881
53125SOL    HW161214  10.934  12.756   4.868
53125SOL    HW261215  10.899  12.860   4.973
53126SOL     OW61216   7.504   3.418   1.537
53126SOL    HW161217   7.549   3.440   1.618
53126SOL    HW261218   7.476   3.502   1.500
53127SOL     OW61219  11.302   0.618   8.884
53127SOL    HW161220  11.396   0.634   8.883
53127SOL    HW261221  11.280   0.593   8.795
53128SOL     OW61222  10.444   3.598   3.114
53128SOL    HW161223  10.393   3.629   3.039
53128SOL    HW261224  10.385   3.609   3.189
53129SOL     OW61225   4.995  10.871   5.978
53129SOL    HW161226   5.074  10.925   5.976
53129SOL    HW261227   5.028  10.781   5.974
53130SOL     OW61228  10.988   2.741  13.200
53130SOL    HW161229  11.021   2.827  13.172
53130SOL    HW261230  11.005   2.684  13.125
53131SOL     OW61231   0.707   0.811   3.534
53131SOL    HW161232   0.740   0.734   3.581
53131SOL    HW261233   0.776   0.831   3.471
53132SOL     OW61234  10.330   0.608   0.429
53132SOL    HW161235  10.284   0.679   0.473
53132SOL    HW261236  10.277   0.530   0.448
53133SOL     OW61237   2.911   7.087   6.370
53133SOL    HW161238   2.823   7.054   6.390
53133SOL    HW261239   2.898   7.179   6.349
53134SOL     OW61240   7.342  14.273   6.319
53134SOL    HW161241   7.363  14.268   6.413
53134SOL    HW261242   7.427  14.289   6.277
53135SOL     OW61243  10.427  14.163  10.813
53135SOL    HW161244  10.366  14.212  10.758
53135SOL    HW261245  10.488  14.122  10.752
53136SOL     OW61246   2.788   2.631  12.377
53136SOL    HW161247   2.738   2.559  12.416
53136SOL    HW261248   2.844   2.589  12.312
53137SOL     OW61249  12.654   1.131  14.115
53137SOL    HW161250  12.705   1.205  14.081
53137SOL    HW261251  12.678   1.058  14.058
53138SOL     OW61252   4.899  12.680   4.499
53138SOL    HW161253   4.829  12.656   4.559
53138SOL    HW261254   4.974  12.628   4.526
53139SOL     OW61255   6.070  13.424   4.268
53139SOL    HW161256   6.011  13.475   4.212
53139SOL    HW261257   6.155  13.429   4.224
53140SOL     OW61258   8.326   9.169  11.690
53140SOL    HW161259   8.260   9.203  11.750
53140SOL    HW261260   8.405   9.218  11.711
53141SOL     OW61261  13.959  12.785   2.489
53141SOL    HW161262  14.023  12.806   2.421
53141SOL    HW261263  13.874  12.807   2.449
53142SOL     OW61264  12.270  12.892  11.336
53142SOL    HW161265  12.295  12.833  11.406
53142SOL    HW261266  12.351  12.936  11.310
53143SOL     OW61267   2.869   8.898   2.901
53143SOL    HW161268   2.921   8.824   2.869
53143SOL    HW261269   2.796   8.905   2.840
53144SOL     OW61270   0.484   9.413   3.294
53144SOL    HW161271   0.571   9.379   3.270
53144SOL    HW261272   0.486   9.416   3.390
53145SOL     OW61273   2.768   3.443   3.842
53145SOL    HW161274   2.843   3.502   3.837
53145SOL    HW261275   2.735   3.452   3.931
53146SOL     OW61276   0.620  10.213   2.596
53146SOL    HW161277   0.619  10.125   2.633
53146SOL    HW261278   0.710  10.226   2.566
53147SOL     OW61279   7.879   6.264   3.190
53147SOL    HW161280   7.945   6.318   3.146
53147SOL    HW261281   7.821   6.327   3.233
53148SOL     OW61282   1.168   4.479   2.124
53148SOL    HW161283   1.166   4.570   2.153
53148SOL    HW261284   1.244   4.441   2.169
53149SOL     OW61285  11.638   4.457   0.176
53149SOL    HW161286  11.705   4.412   0.125
53149SOL    HW261287  11.575   4.487   0.111
53150SOL     OW61288  10.556   9.166   1.142
53150SOL    HW161289  10.523   9.083   1.178
53150SOL    HW261290  10.507   9.178   1.061
53151SOL     OW61291  11.880  12.866   0.499
53151SOL    HW161292  11.889  12.833   0.588
53151SOL    HW261293  11.892  12.789   0.444
53152SOL     OW61294   7.424   5.026   7.447
53152SOL    HW161295   7.501   5.072   7.478
53152SOL    HW261296   7.453   4.935   7.435
53153SOL     OW61297   9.525  12.808  12.984
53153SOL    HW161298   9.568  12.888  12.954
53153SOL    HW261299   9.558  12.740  12.925
53154SOL     OW61300  11.867   0.739   4.653
53154SOL    HW161301  11.950   0.773   4.620
53154SOL    HW261302  11.874   0.644   4.640
53155SOL     OW61303   1.234   1.420   9.373
53155SOL    HW161304   1.272   1.409   9.460
53155SOL    HW261305   1.266   1.505   9.342
53156SOL     OW61306   0.192  10.324   7.512
53156SOL    HW161307   0.164  10.276   7.434
53156SOL    HW261308   0.242  10.259   7.562
53157SOL     OW61309   2.082   2.222   6.233
53157SOL    HW161310   2.136   2.234   6.155
53157SOL    HW261311   2.017   2.156   6.208
53158SOL     OW61312   4.144   3.812   1.777
53158SOL    HW161313   4.060   3.827   1.732
53158SOL    HW261314   4.121   3.808   1.870
53159SOL     OW61315   7.702  12.227   8.452
53159SOL    HW161316   7.714  12.211   8.359
53159SOL    HW261317   7.775  12.182   8.494
53160SOL     OW61318   4.981   1.723   1.613
53160SOL    HW161319   5.007   1.775   1.537
53160SOL    HW261320   4.908   1.770   1.651
53161SOL     OW61321  10.298   5.824  14.696
53161SOL    HW161322  10.219   5.771  14.686
53161SOL    HW261323  10.274   5.891  14.759
53162SOL     OW61324  10.936   0.039  11.259
53162SOL    HW161325  10.970  14.824  11.259
53162SOL    HW261326  10.856   0.035  11.311
53163SOL     OW61327   4.215  12.545  14.344
53163SOL    HW161328   4.219  12.560  14.439
53163SOL    HW261329   4.284  12.600  14.308
53164SOL     OW61330   4.843   1.498   0.282
53164SOL    HW161331   4.754   1.481   0.311
53164SOL    HW261332   4.832   1.536   0.194
53165SOL     OW61333   8.014   9.288   8.862
53165SOL    HW161334   7.977   9.304   8.949
53165SOL    HW261335   7.942   9.249   8.812
53166SOL     OW61336   6.401  13.114  14.221
53166SOL    HW161337   6.312  13.135  14.251
53166SOL    HW261338   6.427  13.039  14.274
53167SOL     OW61339   7.207  11.555   8.864
53167SOL    HW161340   7.177  11.617   8.930
53167SOL    HW261341   7.234  11.478   8.913
53168SOL     OW61342  10.822   8.820   1.684
53168SOL    HW161343  10.819   8.828   1.780
53168SOL    HW261344  10.845   8.908   1.654
53169SOL     OW61345   2.239   1.149  11.397
53169SOL    HW161346   2.188   1.227  11.378
53169SOL    HW261347   2.217   1.128  11.488
53170SOL     OW61348  12.132   1.997  10.743
53170SOL    HW161349  12.083   1.941  10.682
53170SOL    HW261350  12.073   2.008  10.817
53171SOL     OW61351  10.656   9.408   6.865
53171SOL    HW161352  10.641   9.451   6.780
53171SOL    HW261353  10.685   9.479   6.922
53172SOL     OW61354  12.706   1.852  14.207
53172SOL    HW161355  12.793   1.816  14.191
53172SOL    HW261356  12.711   1.887  14.297
53173SOL     OW61357   6.941   6.496   7.633
53173SOL    HW161358   7.028   6.486   7.595
53173SOL    HW261359   6.957   6.525   7.723
53174SOL     OW61360   5.878   2.872  14.366
53174SOL    HW161361   5.840   2.817  14.297
53174SOL    HW261362   5.960   2.904  14.329
53175SOL     OW61363  10.191   4.836   1.191
53175SOL    HW161364  10.232   4.755   1.221
53175SOL    HW261365  10.223   4.903   1.252
53176SOL     OW61366  10.073   3.237  14.150
53176SOL    HW161367  10.109   3.326  14.157
53176SOL    HW261368  10.105   3.204  14.067
53177SOL     OW61369   5.208  10.034   5.759
53177SOL    HW161370   5.201   9.984   5.677
53177SOL    HW261371   5.120  10.071   5.772
53178SOL     OW61372  14.492  13.260  13.393
53178SOL    HW161373  14.553  13.200  13.349
53178SOL    HW261374  14.542  13.341  13.403
53179SOL     OW61375   2.112   5.143   5.459
53179SOL    HW161376   2.063   5.136   5.541
53179SOL    HW261377   2.201   5.166   5.486
53180SOL     OW61378  13.390   4.232   2.119
53180SOL    HW161379  13.478   4.194   2.124
53180SOL    HW261380  13.338   4.180   2.181
53181SOL     OW61381   6.573  12.443   1.455
53181SOL    HW161382   6.663  12.416   1.435
53181SOL    HW261383   6.518  12.388   1.400
53182SOL     OW61384   2.593   4.721  12.490
53182SOL    HW161385   2.645   4.715  12.570
53182SOL    HW261386   2.618   4.804  12.450
53183SOL     OW61387   7.486  10.816   4.330
53183SOL    HW161388   7.455  10.737   4.286
53183SOL    HW261389   7.473  10.797   4.423
53184SOL     OW61390   7.335   9.667  10.334
53184SOL    HW161391   7.411   9.611  10.346
53184SOL    HW261392   7.364   9.734  10.273
53185SOL     OW61393   3.313   9.264   3.357
53185SOL    HW161394   3.379   9.209   3.398
53185SOL    HW261395   3.356   9.299   3.279
53186SOL     OW61396   3.847   2.663   4.595
53186SOL    HW161397   3.757   2.693   4.608
53186SOL    HW261398   3.839   2.571   4.572
53187SOL     OW61399   1.544  10.025   3.054
53187SOL    HW161400   1.568   9.982   2.972
53187SOL    HW261401   1.498   9.958   3.104
53188SOL     OW61402  10.946   4.204   7.536
53188SOL    HW161403  10.862   4.238   7.568
53188SOL    HW261404  10.925   4.168   7.450
53189SOL     OW61405  12.536   3.829   2.166
53189SOL    HW161406  12.502   3.779   2.092
53189SOL    HW261407  12.610   3.878   2.130
53190SOL     OW61408  10.180  14.714   4.474
53190SOL    HW161409  10.235  14.740   4.400
53190SOL    HW261410  10.241  14.688   4.542
53191SOL     OW61411   2.330   3.029  12.306
53191SOL    HW161412   2.274   2.952  12.319
53191SOL    HW261413   2.394   3.023  12.377
53192SOL     OW61414   1.283   4.974   0.417
53192SOL    HW161415   1.296   4.996   0.509
53192SOL    HW261416   1.191   4.947   0.411
53193SOL     OW61417   3.571  14.103  11.712
53193SOL    HW161418   3.641  14.044  11.737
53193SOL    HW261419   3.559  14.089  11.618
53194SOL     OW61420  12.053  13.284   4.412
53194SOL    HW161421  11.976  13.302   4.467
53194SOL    HW261422  12.016  13.241   4.334
53195SOL     OW61423   1.253  10.388  13.372
53195SOL    HW161424   1.308  10.453  13.416
53195SOL    HW261425   1.312  10.342  13.313
53196SOL     OW61426   0.427  11.483   8.632
53196SOL    HW161427   0.446  11.404   8.683
53196SOL    HW261428   0.429  11.453   8.541
53197SOL     OW61429  13.980   7.016   8.367
53197SOL    HW161430  14.031   6.995   8.445
53197SOL    HW261431  14.041   7.064   8.310
53198SOL     OW61432   1.301   9.554   9.168
53198SOL    HW161433   1.378   9.502   9.190
53198SOL    HW261434   1.326   9.601   9.088
53199SOL     OW61435   7.474  13.144   6.685
53199SOL    HW161436   7.393  13.102   6.714
53199SOL    HW261437   7.505  13.191   6.762
53200SOL     OW61438  13.671   5.359   6.769
53200SOL    HW161439  13.678   5.302   6.845
53200SOL    HW261440  13.634   5.440   6.803
53201SOL     OW61441   2.060   5.275  13.229
53201SOL    HW161442   2.089   5.247  13.316
53201SOL    HW261443   1.965   5.287  13.239
53202SOL     OW61444   2.716   8.498  12.313
53202SOL    HW161445   2.706   8.429  12.247
53202SOL    HW261446   2.810   8.499  12.332
53203SOL     OW61447   5.238   6.179   8.065
53203SOL    HW161448   5.185   6.152   8.140
53203SOL    HW261449   5.293   6.250   8.098
53204SOL     OW61450   4.174   9.424   4.265
53204SOL    HW161451   4.102   9.484   4.246
53204SOL    HW261452   4.248   9.458   4.214
53205SOL     OW61453   6.235   9.630   8.617
53205SOL    HW161454   6.302   9.561   8.621
53205SOL    HW261455   6.249   9.681   8.697
53206SOL     OW61456   8.091   1.656   1.784
53206SOL    HW161457   8.001   1.682   1.764
53206SOL    HW261458   8.091   1.561   1.773
53207SOL     OW61459   9.544   3.496   1.900
53207SOL    HW161460   9.609   3.442   1.856
53207SOL    HW261461   9.535   3.457   1.987
53208SOL     OW61462   0.698  10.651   4.980
53208SOL    HW161463   0.643  10.581   4.945
53208SOL    HW261464   0.693  10.641   5.075
53209SOL     OW61465   1.057  13.357   8.506
53209SOL    HW161466   1.058  13.451   8.490
53209SOL    HW261467   0.984  13.324   8.452
53210SOL     OW61468  11.067  14.520   3.025
53210SOL    HW161469  11.007  14.482   2.961
53210SOL    HW261470  11.047  14.613   3.024
53211SOL     OW61471  12.938   8.767   0.079
53211SOL    HW161472  12.917   8.779  14.861
53211SOL    HW261473  12.904   8.680   0.100
53212SOL     OW61474   1.559   6.726   9.201
53212SOL    HW161475   1.481   6.740   9.147
53212SOL    HW261476   1.616   6.672   9.147
53213SOL     OW61477  10.000   5.741   5.495
53213SOL    HW161478   9.997   5.645   5.493
53213SOL    HW261479   9.928   5.766   5.553
53214SOL     OW61480   0.651  11.077   6.592
53214SOL    HW161481   0.673  11.116   6.507
53214SOL    HW261482   0.564  11.112   6.613
53215SOL     OW61483  12.878   3.691   4.802
53215SOL    HW161484  12.830   3.612   4.830
53215SOL    HW261485  12.857   3.756   4.869
53216SOL     OW61486   7.865   9.471   2.633
53216SOL    HW161487   7.927   9.500   2.567
53216SOL    HW261488   7.884   9.378   2.645
53217SOL     OW61489   4.867   2.466   0.946
53217SOL    HW161490   4.809   2.510   0.884
53217SOL    HW261491   4.814   2.457   1.026
53218SOL     OW61492   3.941   1.113  14.239
53218SOL    HW161493   3.983   1.038  14.198
53218SOL    HW261494   3.926   1.086  14.329
53219SOL     OW61495   1.127   1.744  10.476
53219SOL    HW161496   1.119   1.649  10.479
53219SOL    HW261497   1.203   1.764  10.530
53220SOL     OW61498   4.972   9.112   1.662
53220SOL    HW161499   5.013   9.027   1.648
53220SOL    HW261500   5.037   9.175   1.631
53221SOL     OW61501   2.368   0.964   3.990
53221SOL    HW161502   2.463   0.971   3.981
53221SOL    HW261503   2.333   1.028   3.928
53222SOL     OW61504   2.211  13.281  14.398
53222SOL    HW161505   2.269  13.257  14.471
53222SOL    HW261506   2.258  13.252  14.320
53223SOL     OW61507  11.630  12.764   8.998
53223SOL    HW161508  11.578  12.827   8.948
53223SOL    HW261509  11.693  12.818   9.046
53224SOL     OW61510   3.098   5.503   1.231
53224SOL    HW161511   3.111   5.480   1.139
53224SOL    HW261512   3.006   5.528   1.237
53225SOL     OW61513  14.009   5.700   6.803
53225SOL    HW161514  13.914   5.712   6.799
53225SOL    HW261515  14.044   5.786   6.827
53226SOL     OW61516   9.071  13.722   7.212
53226SOL    HW161517   9.034  13.637   7.193
53226SOL    HW261518   9.004  13.785   7.186
53227SOL     OW61519   8.664   6.550   2.121
53227SOL    HW161520   8.723   6.557   2.196
53227SOL    HW261521   8.721   6.526   2.048
53228SOL     OW61522   9.177   4.634   2.546
53228SOL    HW161523   9.171   4.679   2.630
53228SOL    HW261524   9.270   4.637   2.523
53229SOL     OW61525  12.053  14.610   2.042
53229SOL    HW161526  12.142  14.619   2.076
53229SOL    HW261527  11.997  14.601   2.119
53230SOL     OW61528  11.837  13.350   9.902
53230SOL    HW161529  11.793  13.304   9.830
53230SOL    HW261530  11.873  13.429   9.862
53231SOL     OW61531  10.027  12.991   5.653
53231SOL    HW161532  10.063  13.074   5.621
53231SOL    HW261533  10.095  12.927   5.634
53232SOL     OW61534   2.579  11.421   0.249
53232SOL    HW161535   2.518  11.474   0.302
53232SOL    HW261536   2.582  11.467   0.165
53233SOL     OW61537   4.188   8.269   8.946
53233SOL    HW161538   4.184   8.202   9.015
53233SOL    HW261539   4.111   8.323   8.960
53234SOL     OW61540  11.652   2.884   8.955
53234SOL    HW161541  11.705   2.963   8.947
53234SOL    HW261542  11.566   2.914   8.981
53235SOL     OW61543   4.415   9.826  14.234
53235SOL    HW161544   4.467   9.855  14.159
53235SOL    HW261545   4.373   9.906  14.266
53236SOL     OW61546   7.574   9.488  12.122
53236SOL    HW161547   7.592   9.440  12.041
53236SOL    HW261548   7.593   9.579  12.100
53237SOL     OW61549   7.011   9.777  11.326
53237SOL    HW161550   7.100   9.792  11.293
53237SOL    HW261551   6.962   9.855  11.299
53238SOL     OW61552   7.405   4.292  11.958
53238SOL    HW161553   7.343   4.363  11.945
53238SOL    HW261554   7.360   4.231  12.016
53239SOL     OW61555   5.953   1.785   4.556
53239SOL    HW161556   5.942   1.750   4.645
53239SOL    HW261557   6.042   1.761   4.532
53240SOL     OW61558   1.571   2.762  10.341
53240SOL    HW161559   1.642   2.741  10.402
53240SOL    HW261560   1.611   2.819  10.276
53241SOL     OW61561   9.266   2.939  13.647
53241SOL    HW161562   9.322   2.863  13.637
53241SOL    HW261563   9.315   3.011  13.607
53242SOL     OW61564   7.312   2.545   4.251
53242SOL    HW161565   7.275   2.563   4.338
53242SOL    HW261566   7.248   2.580   4.190
53243SOL     OW61567   5.223   5.668   7.024
53243SOL    HW161568   5.257   5.589   7.067
53243SOL    HW261569   5.258   5.664   6.935
53244SOL     OW61570  10.695   0.464   2.768
53244SOL    HW161571  10.744   0.383   2.770
53244SOL    HW261572  10.607   0.440   2.799
53245SOL     OW61573   4.210  12.889   9.497
53245SOL    HW161574   4.141  12.949   9.469
53245SOL    HW261575   4.219  12.826   9.425
53246SOL     OW61576  14.026   3.774   7.051
53246SOL    HW161577  13.998   3.730   6.971
53246SOL    HW261578  13.961   3.749   7.116
53247SOL     OW61579  10.289  13.077   6.917
53247SOL    HW161580  10.384  13.090   6.922
53247SOL    HW261581  10.275  13.038   6.831
53248SOL     OW61582   0.862   1.068   6.054
53248SOL    HW161583   0.926   1.089   6.122
53248SOL    HW261584   0.799   1.011   6.098
53249SOL     OW61585   8.551  14.795   2.306
53249SOL    HW161586   8.517  14.812   2.394
53249SOL    HW261587   8.571  14.701   2.306
53250SOL     OW61588   6.252   5.256   3.477
53250SOL    HW161589   6.246   5.275   3.571
53250SOL    HW261590   6.167   5.217   3.455
53251SOL     OW61591  10.911  14.713   1.438
53251SOL    HW161592  10.985  14.719   1.377
53251SOL    HW261593  10.861  14.793   1.423
53252SOL     OW61594   5.717  13.971  14.602
53252SOL    HW161595   5.725  13.981  14.507
53252SOL    HW261596   5.666  14.047  14.630
53253SOL     OW61597   0.602   2.357   5.693
53253SOL    HW161598   0.506   2.356   5.697
53253SOL    HW261599   0.623   2.327   5.604
53254SOL     OW61600   6.601   3.125   3.713
53254SOL    HW161601   6.666   3.078   3.661
53254SOL    HW261602   6.530   3.062   3.726
53255SOL     OW61603   0.998   5.432  14.025
53255SOL    HW161604   1.077   5.406  14.073
53255SOL    HW261605   0.933   5.366  14.050
53256SOL     OW61606   5.086  10.277   4.754
53256SOL    HW161607   5.141  10.206   4.720
53256SOL    HW261608   5.076  10.337   4.680
53257SOL     OW61609  13.034  14.540  12.203
53257SOL    HW161610  13.010  14.514  12.292
53257SOL    HW261611  13.109  14.597  12.214
53258SOL     OW61612   5.309   9.548   3.236
53258SOL    HW161613   5.253   9.471   3.226
53258SOL    HW261614   5.359   9.532   3.316
53259SOL     OW61615  10.000  11.879   1.768
53259SOL    HW161616   9.973  11.907   1.681
53259SOL    HW261617  10.094  11.863   1.759
53260SOL     OW61618  11.759  14.721   7.340
53260SOL    HW161619  11.811  14.736   7.261
53260SOL    HW261620  11.769  14.628   7.358
53261SOL     OW61621   3.096  14.862   0.119
53261SOL    HW161622   3.036  14.854   0.193
53261SOL    HW261623   3.153   0.061   0.142
53262SOL     OW61624  11.162  13.791   8.235
53262SOL    HW161625  11.233  13.745   8.279
53262SOL    HW261626  11.085  13.777   8.290
53263SOL     OW61627  11.814   6.046   7.050
53263SOL    HW161628  11.865   5.976   7.010
53263SOL    HW261629  11.866   6.125   7.035
53264SOL     OW61630   7.925   1.729   1.434
53264SOL    HW161631   8.016   1.744   1.410
53264SOL    HW261632   7.874   1.786   1.376
53265SOL     OW61633   7.603  11.692   6.902
53265SOL    HW161634   7.596  11.738   6.985
53265SOL    HW261635   7.553  11.611   6.915
53266SOL     OW61636  12.590   4.809   9.981
53266SOL    HW161637  12.502   4.780  10.006
53266SOL    HW261638  12.615   4.870  10.051
53267SOL     OW61639   2.512   9.282   6.828
53267SOL    HW161640   2.606   9.261   6.831
53267SOL    HW261641   2.469   9.197   6.820
53268SOL     OW61642   5.957   8.599  12.825
53268SOL    HW161643   5.966   8.534  12.756
53268SOL    HW261644   5.953   8.683  12.780
53269SOL     OW61645   6.406   5.906   2.240
53269SOL    HW161646   6.452   5.991   2.236
53269SOL    HW261647   6.334   5.916   2.178
53270SOL     OW61648   5.918   2.095   9.908
53270SOL    HW161649   5.941   2.154   9.980
53270SOL    HW261650   5.883   2.152   9.840
53271SOL     OW61651   3.795   8.091  12.205
53271SOL    HW161652   3.876   8.041  12.208
53271SOL    HW261653   3.800   8.140  12.124
53272SOL     OW61654   0.528  11.884   4.341
53272SOL    HW161655   0.534  11.847   4.429
53272SOL    HW261656   0.499  11.974   4.354
53273SOL     OW61657   6.582   5.421  14.678
53273SOL    HW161658   6.556   5.506  14.713
53273SOL    HW261659   6.543   5.357  14.739
53274SOL     OW61660   4.281  13.339  10.427
53274SOL    HW161661   4.311  13.423  10.393
53274SOL    HW261662   4.344  13.316  10.495
53275SOL     OW61663  12.959   7.121  11.019
53275SOL    HW161664  13.005   7.058  10.963
53275SOL    HW261665  12.880   7.143  10.971
53276SOL     OW61666   1.697   5.963   1.497
53276SOL    HW161667   1.686   6.037   1.438
53276SOL    HW261668   1.778   5.921   1.469
53277SOL     OW61669   2.813  11.716  14.645
53277SOL    HW161670   2.816  11.811  14.643
53277SOL    HW261671   2.732  11.693  14.600
53278SOL     OW61672  13.872   3.389   9.108
53278SOL    HW161673  13.814   3.463   9.124
53278SOL    HW261674  13.960   3.423   9.123
53279SOL     OW61675   0.689   8.590  10.320
53279SOL    HW161676   0.636   8.669  10.332
53279SOL    HW261677   0.631   8.530  10.272
53280SOL     OW61678   0.552  14.769   4.583
53280SOL    HW161679   0.485  14.827   4.547
53280SOL    HW261680   0.531  14.683   4.548
53281SOL     OW61681   3.618  11.668   2.445
53281SOL    HW161682   3.625  11.763   2.435
53281SOL    HW261683   3.533  11.655   2.486
53282SOL     OW61684   1.057   1.719   0.855
53282SOL    HW161685   1.069   1.681   0.768
53282SOL    HW261686   1.051   1.644   0.914
53283SOL     OW61687   5.036   8.497   6.256
53283SOL    HW161688   5.042   8.576   6.310
53283SOL    HW261689   5.124   8.484   6.222
53284SOL     OW61690  12.219   9.701   4.693
53284SOL    HW161691  12.313   9.690   4.707
53284SOL    HW261692  12.210   9.713   4.599
53285SOL     OW61693  14.149   0.864  12.441
53285SOL    HW161694  14.092   0.934  12.408
53285SOL    HW261695  14.091   0.807  12.491
53286SOL     OW61696  10.449   7.029  10.240
53286SOL    HW161697  10.371   7.041  10.294
53286SOL    HW261698  10.420   7.050  10.151
53287SOL     OW61699  12.467   3.384   9.732
53287SOL    HW161700  12.429   3.401   9.645
53287SOL    HW261701  12.395   3.347   9.783
53288SOL     OW61702   7.510  13.155   3.526
53288SOL    HW161703   7.444  13.216   3.558
53288SOL    HW261704   7.467  13.107   3.456
53289SOL     OW61705   5.654   4.749   7.638
53289SOL    HW161706   5.598   4.744   7.561
53289SOL    HW261707   5.606   4.806   7.699
53290SOL     OW61708   0.427   9.358   1.581
53290SOL    HW161709   0.332   9.354   1.571
53290SOL    HW261710   0.454   9.426   1.520
53291SOL     OW61711  10.557   8.187   3.865
53291SOL    HW161712  10.646   8.199   3.832
53291SOL    HW261713  10.533   8.274   3.899
53292SOL     OW61714  14.051   5.017  14.355
53292SOL    HW161715  14.072   4.972  14.436
53292SOL    HW261716  14.119   5.085  14.348
53293SOL     OW61717   5.521  11.180   3.541
53293SOL    HW161718   5.488  11.091   3.549
53293SOL    HW261719   5.566  11.197   3.623
53294SOL     OW61720   2.495  10.268  14.449
53294SOL    HW161721   2.583  10.266  14.488
53294SOL    HW261722   2.490  10.187  14.398
53295SOL     OW61723   1.821   7.043   7.607
53295SOL    HW161724   1.815   7.038   7.703
53295SOL    HW261725   1.732   7.024   7.577
53296SOL     OW61726   0.650  14.175   5.454
53296SOL    HW161727   0.663  14.145   5.544
53296SOL    HW261728   0.556  14.166   5.440
53297SOL     OW61729   9.782   9.171   6.674
53297SOL    HW161730   9.747   9.088   6.640
53297SOL    HW261731   9.751   9.237   6.613
53298SOL     OW61732   9.905   0.211   7.458
53298SOL    HW161733   9.953   0.138   7.496
53298SOL    HW261734   9.956   0.289   7.480
53299SOL     OW61735  13.473  10.238  11.908
53299SOL    HW161736  13.403  10.287  11.951
53299SOL    HW261737  13.505  10.178  11.976
53300SOL     OW61738   8.601   2.826  10.496
53300SOL    HW161739   8.677   2.881  10.519
53300SOL    HW261740   8.628   2.779  10.418
53301SOL     OW61741   8.050   8.861   5.083
53301SOL    HW161742   7.979   8.809   5.121
53301SOL    HW261743   8.070   8.817   5.000
53302SOL     OW61744   3.152   2.909   4.725
53302SOL    HW161745   3.118   2.936   4.640
53302SOL    HW261746   3.172   2.991   4.769
53303SOL     OW61747   7.717   5.496   8.172
53303SOL    HW161748   7.810   5.505   8.153
53303SOL    HW261749   7.682   5.585   8.165
53304SOL     OW61750   8.946  11.227   9.540
53304SOL    HW161751   8.887  11.169   9.493
53304SOL    HW261752   8.964  11.182   9.622
53305SOL     OW61753   2.603   6.315   8.576
53305SOL    HW161754   2.589   6.222   8.596
53305SOL    HW261755   2.694   6.331   8.599
53306SOL     OW61756   2.705   3.610   9.186
53306SOL    HW161757   2.746   3.686   9.228
53306SOL    HW261758   2.778   3.563   9.145
53307SOL     OW61759   6.950   9.341  10.827
53307SOL    HW161760   6.891   9.403  10.785
53307SOL    HW261761   6.922   9.340  10.918
53308SOL     OW61762   6.530   1.707  10.423
53308SOL    HW161763   6.591   1.770  10.382
53308SOL    HW261764   6.447   1.723  10.379
53309SOL     OW61765  14.687  10.657   8.727
53309SOL    HW161766  14.609  10.702   8.694
53309SOL    HW261767  14.760  10.709   8.693
53310SOL     OW61768   1.256   8.218   6.314
53310SOL    HW161769   1.252   8.263   6.398
53310SOL    HW261770   1.327   8.155   6.323
53311SOL     OW61771   2.328   8.067   4.170
53311SOL    HW161772   2.251   8.010   4.169
53311SOL    HW261773   2.385   8.031   4.102
53312SOL     OW61774   5.132   9.521  10.403
53312SOL    HW161775   5.130   9.556  10.314
53312SOL    HW261776   5.144   9.426  10.391
53313SOL     OW61777   4.753   5.414  10.893
53313SOL    HW161778   4.786   5.404  10.982
53313SOL    HW261779   4.667   5.456  10.903
53314SOL     OW61780   2.991   8.245   1.188
53314SOL    HW161781   3.016   8.230   1.097
53314SOL    HW261782   3.074   8.257   1.234
53315SOL     OW61783   5.892   3.334  10.717
53315SOL    HW161784   5.878   3.412  10.772
53315SOL    HW261785   5.975   3.351  10.673
53316SOL     OW61786   3.566   6.035   1.355
53316SOL    HW161787   3.539   5.975   1.286
53316SOL    HW261788   3.638   6.085   1.317
53317SOL     OW61789   4.286  10.861  12.993
53317SOL    HW161790   4.305  10.797  13.061
53317SOL    HW261791   4.216  10.820  12.941
53318SOL     OW61792   7.770   0.516   9.239
53318SOL    HW161793   7.851   0.517   9.290
53318SOL    HW261794   7.717   0.449   9.281
53319SOL     OW61795   8.236   8.871   2.606
53319SOL    HW161796   8.178   8.920   2.664
53319SOL    HW261797   8.304   8.933   2.582
53320SOL     OW61798   7.543   6.044   0.425
53320SOL    HW161799   7.572   6.056   0.516
53320SOL    HW261800   7.589   5.965   0.396
53321SOL     OW61801  12.075  13.745   7.669
53321SOL    HW161802  12.143  13.679   7.680
53321SOL    HW261803  11.994  13.695   7.661
53322SOL     OW61804   2.765  14.713   1.791
53322SOL    HW161805   2.856  14.686   1.801
53322SOL    HW261806   2.751  14.778   1.859
53323SOL     OW61807   8.604   5.220   7.200
53323SOL    HW161808   8.583   5.307   7.166
53323SOL    HW261809   8.699   5.216   7.199
53324SOL     OW61810  12.706  14.196   2.632
53324SOL    HW161811  12.701  14.219   2.725
53324SOL    HW261812  12.615  14.191   2.604
53325SOL     OW61813   0.618  10.110   0.310
53325SOL    HW161814   0.655  10.180   0.255
53325SOL    HW261815   0.656  10.030   0.274
53326SOL     OW61816   0.364   1.547   1.501
53326SOL    HW161817   0.296   1.517   1.561
53326SOL    HW261818   0.393   1.468   1.455
53327SOL     OW61819   3.655   5.553   6.695
53327SOL    HW161820   3.641   5.610   6.771
53327SOL    HW261821   3.580   5.493   6.697
53328SOL     OW61822  10.948   7.278  13.570
53328SOL    HW161823  10.991   7.350  13.617
53328SOL    HW261824  10.976   7.289  13.479
53329SOL     OW61825  13.417   8.127   8.064
53329SOL    HW161826  13.402   8.038   8.031
53329SOL    HW261827  13.484   8.163   8.005
53330SOL     OW61828  14.714   8.979   0.395
53330SOL    HW161829  14.806   8.996   0.374
53330SOL    HW261830  14.671   9.064   0.385
53331SOL     OW61831   4.018   1.687  10.316
53331SOL    HW161832   4.047   1.778  10.324
53331SOL    HW261833   4.066   1.640  10.384
53332SOL     OW61834   0.365   8.071  11.536
53332SOL    HW161835   0.454   8.066  11.501
53332SOL    HW261836   0.369   8.023  11.618
53333SOL     OW61837   6.949   3.383  12.659
53333SOL    HW161838   6.966   3.432  12.578
53333SOL    HW261839   7.035   3.374  12.699
53334SOL     OW61840   3.657   9.771   8.883
53334SOL    HW161841   3.681   9.774   8.790
53334SOL    HW261842   3.565   9.745   8.883
53335SOL     OW61843   3.337  13.256   8.698
53335SOL    HW161844   3.419  13.221   8.732
53335SOL    HW261845   3.311  13.323   8.761
53336SOL     OW61846  11.117   2.805   1.538
53336SOL    HW161847  11.122   2.885   1.485
53336SOL    HW261848  11.090   2.835   1.625
53337SOL     OW61849   8.557   3.524   3.700
53337SOL    HW161850   8.509   3.514   3.782
53337SOL    HW261851   8.634   3.468   3.710
53338SOL     OW61852   0.568   0.499  10.785
53338SOL    HW161853   0.545   0.440  10.857
53338SOL    HW261854   0.525   0.582  10.807
53339SOL     OW61855  11.982   0.460   4.692
53339SOL    HW161856  12.071   0.436   4.720
53339SOL    HW261857  11.927   0.390   4.725
53340SOL     OW61858   9.860   2.511   0.891
53340SOL    HW161859   9.931   2.448   0.882
53340SOL    HW261860   9.788   2.474   0.840
53341SOL     OW61861  12.002   7.911  14.504
53341SOL    HW161862  12.096   7.897  14.513
53341SOL    HW261863  11.976   7.956  14.584
53342SOL     OW61864   6.644   3.228   0.921
53342SOL    HW161865   6.673   3.250   1.010
53342SOL    HW261866   6.551   3.206   0.930
53343SOL     OW61867   9.228  12.387   9.316
53343SOL    HW161868   9.284  12.460   9.343
53343SOL    HW261869   9.174  12.368   9.393
53344SOL     OW61870   7.273   5.823   3.231
53344SOL    HW161871   7.282   5.881   3.306
53344SOL    HW261872   7.341   5.851   3.170
53345SOL     OW61873   2.920   4.663   5.541
53345SOL    HW161874   2.916   4.590   5.603
53345SOL    HW261875   2.977   4.631   5.471
53346SOL     OW61876   2.001   6.184   9.104
53346SOL    HW161877   1.952   6.250   9.054
53346SOL    HW261878   2.093   6.212   9.098
53347SOL     OW61879  10.264  11.906   7.628
53347SOL    HW161880  10.225  11.971   7.686
53347SOL    HW261881  10.223  11.922   7.543
53348SOL     OW61882  10.091   1.873  11.888
53348SOL    HW161883  10.045   1.796  11.922
53348SOL    HW261884  10.064   1.878  11.796
53349SOL     OW61885  13.994   0.197   3.712
53349SOL    HW161886  14.053   0.218   3.640
53349SOL    HW261887  14.045   0.139   3.769
53350SOL     OW61888  11.862   3.438  13.684
53350SOL    HW161889  11.818   3.355  13.702
53350SOL    HW261890  11.944   3.414  13.641
53351SOL     OW61891   1.923   5.828   7.438
53351SOL    HW161892   2.019   5.823   7.432
53351SOL    HW261893   1.900   5.912   7.400
53352SOL     OW61894  13.019   5.822   5.978
53352SOL    HW161895  12.942   5.863   6.018
53352SOL    HW261896  13.093   5.873   6.010
53353SOL     OW61897   6.421   7.598   8.764
53353SOL    HW161898   6.362   7.652   8.816
53353SOL    HW261899   6.370   7.573   8.687
53354SOL     OW61900   5.949   6.359   1.442
53354SOL    HW161901   5.976   6.426   1.378
53354SOL    HW261902   6.009   6.370   1.515
53355SOL     OW61903   4.317   0.596  11.787
53355SOL    HW161904   4.237   0.543  11.782
53355SOL    HW261905   4.377   0.554  11.726
53356SOL     OW61906   4.812   3.124  13.623
53356SOL    HW161907   4.807   3.121  13.528
53356SOL    HW261908   4.761   3.201  13.648
53357SOL     OW61909   3.063  10.573  11.825
53357SOL    HW161910   2.986  10.549  11.878
53357SOL    HW261911   3.083  10.493  11.776
53358SOL     OW61912  13.950   4.596  10.094
53358SOL    HW161913  13.897   4.673  10.114
53358SOL    HW261914  14.007   4.586  10.170
53359SOL     OW61915   7.142   0.996  14.463
53359SOL    HW161916   7.146   1.031  14.374
53359SOL    HW261917   7.075   0.928  14.460
53360SOL     OW61918   0.077   1.019  14.701
53360SOL    HW161919   0.112   1.104  14.726
53360SOL    HW261920  14.857   1.034  14.691
53361SOL     OW61921  12.875  10.425  10.388
53361SOL    HW161922  12.952  10.368  10.388
53361SOL    HW261923  12.849  10.432  10.296
53362SOL     OW61924  14.862   6.171   2.892
53362SOL    HW161925  14.783   6.166   2.840
53362SOL    HW261926  14.857   6.095   2.951
53363SOL     OW61927   5.985   9.258   1.332
53363SOL    HW161928   5.922   9.210   1.279
53363SOL    HW261929   5.936   9.333   1.367
53364SOL     OW61930   6.617   8.893   4.805
53364SOL    HW161931   6.694   8.837   4.803
53364SOL    HW261932   6.553   8.850   4.748
53365SOL     OW61933  13.048  10.648   0.445
53365SOL    HW161934  13.110  10.592   0.398
53365SOL    HW261935  12.962  10.609   0.427
53366SOL     OW61936  14.488   2.217  10.119
53366SOL    HW161937  14.471   2.300  10.076
53366SOL    HW261938  14.421   2.211  10.187
53367SOL     OW61939   8.655   4.346  12.403
53367SOL    HW161940   8.707   4.298  12.339
53367SOL    HW261941   8.611   4.415  12.352
53368SOL     OW61942  13.056  10.231  13.120
53368SOL    HW161943  12.985  10.198  13.065
53368SOL    HW261944  13.097  10.299  13.068
53369SOL     OW61945  10.121  12.247   2.217
53369SOL    HW161946  10.166  12.190   2.280
53369SOL    HW261947  10.062  12.188   2.170
53370SOL     OW61948   4.691  12.396  11.173
53370SOL    HW161949   4.748  12.412  11.098
53370SOL    HW261950   4.716  12.309  11.205
53371SOL     OW61951   5.763   1.504   5.043
53371SOL    HW161952   5.699   1.495   4.972
53371SOL    HW261953   5.711   1.531   5.119
53372SOL     OW61954  11.036   1.033   3.869
53372SOL    HW161955  11.031   1.107   3.929
53372SOL    HW261956  10.986   0.964   3.913
53373SOL     OW61957   4.999  10.895  13.638
53373SOL    HW161958   4.989  10.983  13.675
53373SOL    HW261959   4.960  10.901  13.551
53374SOL     OW61960   3.035   1.063  10.166
53374SOL    HW161961   3.090   1.141  10.170
53374SOL    HW261962   3.074   1.009  10.097
53375SOL     OW61963   5.151   0.289  14.079
53375SOL    HW161964   5.085   0.352  14.110
53375SOL    HW261965   5.230   0.342  14.066
53376SOL     OW61966   6.294   1.890   2.130
53376SOL    HW161967   6.287   1.982   2.158
53376SOL    HW261968   6.205   1.855   2.143
53377SOL     OW61969   7.732   5.486   4.912
53377SOL    HW161970   7.741   5.391   4.921
53377SOL    HW261971   7.731   5.519   5.002
53378SOL     OW61972   7.171   3.106   1.381
53378SOL    HW161973   7.077   3.119   1.396
53378SOL    HW261974   7.184   3.012   1.388
53379SOL     OW61975  14.486  10.472   2.584
53379SOL    HW161976  14.549  10.503   2.519
53379SOL    HW261977  14.407  10.454   2.534
53380SOL     OW61978  12.244  13.773   5.285
53380SOL    HW161979  12.169  13.769   5.224
53380SOL    HW261980  12.230  13.853   5.335
53381SOL     OW61981  12.208   8.668   7.974
53381SOL    HW161982  12.225   8.574   7.968
53381SOL    HW261983  12.245   8.694   8.058
53382SOL     OW61984   5.668  13.710   5.908
53382SOL    HW161985   5.592  13.768   5.900
53382SOL    HW261986   5.637  13.638   5.963
53383SOL     OW61987  12.901   8.511   9.925
53383SOL    HW161988  12.842   8.585   9.940
53383SOL    HW261989  12.989   8.549   9.933
53384SOL     OW61990   2.952   1.452  12.091
53384SOL    HW161991   3.009   1.489  12.024
53384SOL    HW261992   3.004   1.384  12.133
53385SOL     OW61993   3.727   5.890   6.933
53385SOL    HW161994   3.663   5.822   6.911
53385SOL    HW261995   3.677   5.955   6.983
53386SOL     OW61996   9.388   6.208  11.263
53386SOL    HW161997   9.376   6.213  11.168
53386SOL    HW261998   9.305   6.239  11.299
53387SOL     OW61999   9.234   1.947  14.118
53387SOL    HW162000   9.149   1.917  14.150
53387SOL    HW262001   9.222   1.959  14.024
53388SOL     OW62002   1.483   1.985  12.979
53388SOL    HW162003   1.427   1.914  13.011
53388SOL    HW262004   1.572   1.951  12.987
53389SOL     OW62005  10.371   1.639   1.341
53389SOL    HW162006  10.424   1.564   1.317
53389SOL    HW262007  10.280   1.610   1.331
53390SOL     OW62008  10.914   2.589   9.408
53390SOL    HW162009  10.845   2.560   9.347
53390SOL    HW262010  10.914   2.685   9.399
53391SOL     OW62011  14.073   8.058  10.619
53391SOL    HW162012  14.088   8.140  10.573
53391SOL    HW262013  13.981   8.037  10.604
53392SOL     OW62014  11.178   0.786  11.833
53392SOL    HW162015  11.221   0.851  11.778
53392SOL    HW262016  11.182   0.824  11.921
53393SOL     OW62017  10.387  14.550  14.759
53393SOL    HW162018  10.421  14.509  14.838
53393SOL    HW262019  10.457  14.610  14.730
53394SOL     OW62020  11.289  12.538   4.025
53394SOL    HW162021  11.290  12.467   3.960
53394SOL    HW262022  11.229  12.603   3.989
53395SOL     OW62023   5.731   9.040  12.694
53395SOL    HW162024   5.776   9.058  12.612
53395SOL    HW262025   5.687   9.122  12.716
53396SOL     OW62026   0.321   0.317   4.001
53396SOL    HW162027   0.251   0.316   3.935
53396SOL    HW262028   0.355   0.227   4.001
53397SOL     OW62029   9.813  11.086   5.938
53397SOL    HW162030   9.760  11.036   6.000
53397SOL    HW262031   9.883  11.124   5.992
53398SOL     OW62032   8.539  10.088   3.898
53398SOL    HW162033   8.461  10.066   3.848
53398SOL    HW262034   8.608  10.034   3.861
53399SOL     OW62035  10.885   8.226  12.023
53399SOL    HW162036  10.977   8.215  11.997
53399SOL    HW262037  10.872   8.157  12.089
53400SOL     OW62038   6.413  13.050  13.972
53400SOL    HW162039   6.397  13.093  14.056
53400SOL    HW262040   6.406  12.957  13.990
53401SOL     OW62041   1.039   2.671  12.642
53401SOL    HW162042   0.968   2.611  12.662
53401SOL    HW262043   1.114   2.614  12.621
53402SOL     OW62044  14.277   9.649  11.045
53402SOL    HW162045  14.318   9.564  11.028
53402SOL    HW262046  14.183   9.632  11.042
53403SOL     OW62047  11.856   8.340   2.844
53403SOL    HW162048  11.770   8.352   2.804
53403SOL    HW262049  11.858   8.248   2.869
53404SOL     OW62050   6.556   5.778   2.420
53404SOL    HW162051   6.577   5.689   2.391
53404SOL    HW262052   6.504   5.815   2.349
53405SOL     OW62053  14.281   0.565  12.281
53405SOL    HW162054  14.329   0.556  12.363
53405SOL    HW262055  14.189   0.560  12.307
53406SOL     OW62056   7.302  11.292  11.065
53406SOL    HW162057   7.263  11.269  11.149
53406SOL    HW262058   7.348  11.374  11.082
53407SOL     OW62059   0.366   9.642  14.600
53407SOL    HW162060   0.424   9.715  14.621
53407SOL    HW262061   0.421   9.564  14.610
53408SOL     OW62062   5.235  10.530   6.012
53408SOL    HW162063   5.320  10.505   6.050
53408SOL    HW262064   5.204  10.450   5.969
53409SOL     OW62065  12.294   4.635   1.470
53409SOL    HW162066  12.257   4.678   1.393
53409SOL    HW262067  12.385   4.618   1.447
53410SOL     OW62068  12.680  10.484   6.578
53410SOL    HW162069  12.592  10.471   6.543
53410SOL    HW262070  12.724  10.400   6.566
53411SOL     OW62071   5.427   2.345   8.814
53411SOL    HW162072   5.501   2.351   8.875
53411SOL    HW262073   5.392   2.434   8.811
53412SOL     OW62074   1.715   6.917   0.672
53412SOL    HW162075   1.691   7.010   0.669
53412SOL    HW262076   1.672   6.879   0.595
53413SOL     OW62077   2.030   0.088   5.862
53413SOL    HW162078   1.969   0.140   5.809
53413SOL    HW262079   2.115   0.097   5.818
53414SOL     OW62080   3.346   5.883   9.056
53414SOL    HW162081   3.367   5.969   9.091
53414SOL    HW262082   3.409   5.824   9.098
53415SOL     OW62083   5.315   0.800   9.609
53415SOL    HW162084   5.249   0.819   9.675
53415SOL    HW262085   5.387   0.860   9.629
53416SOL     OW62086  12.641   7.708   8.815
53416SOL    HW162087  12.608   7.716   8.725
53416SOL    HW262088  12.645   7.798   8.847
53417SOL     OW62089   5.241   6.194   2.175
53417SOL    HW162090   5.274   6.139   2.247
53417SOL    HW262091   5.149   6.168   2.165
53418SOL     OW62092   5.962  12.283   3.304
53418SOL    HW162093   5.949  12.347   3.234
53418SOL    HW262094   6.049  12.304   3.339
53419SOL     OW62095   6.862   4.743   7.495
53419SOL    HW162096   6.877   4.660   7.450
53419SOL    HW262097   6.921   4.740   7.571
53420SOL     OW62098  10.239  13.985   8.898
53420SOL    HW162099  10.273  14.069   8.867
53420SOL    HW262100  10.283  13.971   8.982
53421SOL     OW62101  11.374   5.741  11.041
53421SOL    HW162102  11.422   5.698  10.971
53421SOL    HW262103  11.335   5.669  11.091
53422SOL     OW62104   9.367   8.603   3.749
53422SOL    HW162105   9.398   8.687   3.783
53422SOL    HW262106   9.404   8.598   3.661
53423SOL     OW62107   6.910   2.173   2.637
53423SOL    HW162108   6.941   2.222   2.560
53423SOL    HW262109   6.990   2.146   2.682
53424SOL     OW62110   6.077  10.708   7.538
53424SOL    HW162111   6.104  10.660   7.459
53424SOL    HW262112   6.073  10.641   7.606
53425SOL     OW62113   6.188   8.784   0.560
53425SOL    HW162114   6.139   8.755   0.637
53425SOL    HW262115   6.122   8.790   0.491
53426SOL     OW62116   5.808   4.659   4.176
53426SOL    HW162117   5.857   4.610   4.111
53426SOL    HW262118   5.819   4.751   4.151
53427SOL     OW62119   4.495   1.693   9.045
53427SOL    HW162120   4.415   1.698   9.098
53427SOL    HW262121   4.536   1.611   9.073
53428SOL     OW62122   3.803   0.063  11.669
53428SOL    HW162123   3.870   0.091  11.606
53428SOL    HW262124   3.737   0.133  11.665
53429SOL     OW62125  12.091   1.912  10.094
53429SOL    HW162126  12.127   1.966  10.164
53429SOL    HW262127  12.010   1.875  10.130
53430SOL     OW62128   8.672   0.382  10.129
53430SOL    HW162129   8.714   0.398  10.214
53430SOL    HW262130   8.741   0.343  10.075
53431SOL     OW62131   4.141   3.736  11.327
53431SOL    HW162132   4.217   3.681  11.309
53431SOL    HW262133   4.085   3.726  11.250
53432SOL     OW62134  10.832   7.007  14.023
53432SOL    HW162135  10.836   7.081  13.963
53432SOL    HW262136  10.739   6.983  14.026
53433SOL     OW62137  12.993  11.205   3.430
53433SOL    HW162138  12.899  11.190   3.420
53433SOL    HW262139  13.030  11.187   3.343
53434SOL     OW62140   2.644   6.941   6.697
53434SOL    HW162141   2.698   6.868   6.665
53434SOL    HW262142   2.554   6.912   6.682
53435SOL     OW62143   3.268   4.420   6.622
53435SOL    HW162144   3.219   4.482   6.566
53435SOL    HW262145   3.356   4.458   6.627
53436SOL     OW62146   6.214   9.126   8.407
53436SOL    HW162147   6.285   9.188   8.424
53436SOL    HW262148   6.228   9.098   8.316
53437SOL     OW62149  13.764  12.755   0.448
53437SOL    HW162150  13.701  12.794   0.387
53437SOL    HW262151  13.710  12.715   0.515
53438SOL     OW62152  11.335  10.152  11.523
53438SOL    HW162153  11.384  10.084  11.570
53438SOL    HW262154  11.339  10.229  11.579
53439SOL     OW62155   0.753  11.764   5.069
53439SOL    HW162156   0.695  11.755   5.144
53439SOL    HW262157   0.791  11.677   5.057
53440SOL     OW62158   3.354   1.781   4.999
53440SOL    HW162159   3.423   1.772   4.933
53440SOL    HW262160   3.277   1.809   4.949
53441SOL     OW62161   0.888   1.499   9.176
53441SOL    HW162162   0.946   1.423   9.174
53441SOL    HW262163   0.840   1.496   9.094
53442SOL     OW62164   6.411   0.009   5.211
53442SOL    HW162165   6.417  14.788   5.226
53442SOL    HW262166   6.455   0.048   5.286
53443SOL     OW62167   6.932  14.155   4.749
53443SOL    HW162168   6.994  14.114   4.810
53443SOL    HW262169   6.987  14.201   4.687
53444SOL     OW62170   7.524  10.003   4.156
53444SOL    HW162171   7.577   9.998   4.235
53444SOL    HW262172   7.440   9.964   4.181
53445SOL     OW62173  13.870  12.953  10.112
53445SOL    HW162174  13.863  12.858  10.124
53445SOL    HW262175  13.813  12.972  10.037
53446SOL     OW62176  13.348   9.250   6.174
53446SOL    HW162177  13.388   9.165   6.156
53446SOL    HW262178  13.363   9.264   6.267
53447SOL     OW62179  13.142   9.890   5.255
53447SOL    HW162180  13.221   9.935   5.284
53447SOL    HW262181  13.174   9.817   5.202
53448SOL     OW62182  12.607   7.827   9.617
53448SOL    HW162183  12.517   7.850   9.594
53448SOL    HW262184  12.633   7.763   9.551
53449SOL     OW62185   3.451  10.157   5.872
53449SOL    HW162186   3.523  10.128   5.816
53449SOL    HW262187   3.372  10.131   5.824
53450SOL     OW62188  14.785   8.169  10.844
53450SOL    HW162189  14.710   8.118  10.813
53450SOL    HW262190  14.812   8.125  10.924
53451SOL     OW62191  14.868  12.531   9.548
53451SOL    HW162192  14.872  12.612   9.599
53451SOL    HW262193  14.775  12.515   9.536
53452SOL     OW62194  14.810   1.959  10.722
53452SOL    HW162195   0.015   1.910  10.700
53452SOL    HW262196  14.841   2.029  10.781
53453SOL     OW62197   1.018   8.301  10.041
53453SOL    HW162198   1.080   8.229  10.052
53453SOL    HW262199   0.956   8.291  10.113
53454SOL     OW62200  14.640   6.291  12.566
53454SOL    HW162201  14.694   6.232  12.514
53454SOL    HW262202  14.558   6.299  12.517
53455SOL     OW62203   6.429   3.125   6.382
53455SOL    HW162204   6.396   3.213   6.365
53455SOL    HW262205   6.350   3.071   6.389
53456SOL     OW62206   2.784  14.850  10.165
53456SOL    HW162207   2.811  14.808  10.083
53456SOL    HW262208   2.715   0.036  10.139
53457SOL     OW62209   2.256  13.635   4.362
53457SOL    HW162210   2.307  13.692   4.419
53457SOL    HW262211   2.248  13.553   4.411
53458SOL     OW62212   1.637  13.115   8.360
53458SOL    HW162213   1.643  13.126   8.455
53458SOL    HW262214   1.566  13.052   8.347
53459SOL     OW62215   9.671   7.545  12.620
53459SOL    HW162216   9.628   7.486  12.681
53459SOL    HW262217   9.701   7.489  12.548
53460SOL     OW62218  10.368  13.467   8.811
53460SOL    HW162219  10.371  13.417   8.892
53460SOL    HW262220  10.360  13.558   8.839
53461SOL     OW62221   6.710  14.155  14.237
53461SOL    HW162222   6.618  14.138  14.257
53461SOL    HW262223   6.715  14.249  14.223
53462SOL     OW62224  11.234   9.715   0.476
53462SOL    HW162225  11.268   9.627   0.490
53462SOL    HW262226  11.153   9.701   0.425
53463SOL     OW62227   7.352  12.595   6.366
53463SOL    HW162228   7.281  12.633   6.314
53463SOL    HW262229   7.409  12.552   6.302
53464SOL     OW62230   9.612   7.643   7.890
53464SOL    HW162231   9.644   7.558   7.861
53464SOL    HW262232   9.609   7.696   7.811
53465SOL     OW62233   8.771   7.567   0.355
53465SOL    HW162234   8.757   7.635   0.420
53465SOL    HW262235   8.857   7.530   0.376
53466SOL     OW62236  13.506   5.621   2.370
53466SOL    HW162237  13.503   5.542   2.425
53466SOL    HW262238  13.547   5.591   2.289
53467SOL     OW62239   7.989   5.629   3.265
53467SOL    HW162240   7.931   5.619   3.340
53467SOL    HW262241   8.030   5.543   3.253
53468SOL     OW62242   9.770   2.375   8.211
53468SOL    HW162243   9.745   2.441   8.276
53468SOL    HW262244   9.859   2.350   8.235
53469SOL     OW62245  11.734  13.854  10.796
53469SOL    HW162246  11.814  13.905  10.807
53469SOL    HW262247  11.670  13.916  10.761
53470SOL     OW62248   4.429   8.029  10.967
53470SOL    HW162249   4.471   7.996  11.047
53470SOL    HW262250   4.428   8.124  10.978
53471SOL     OW62251  12.367  12.842  12.848
53471SOL    HW162252  12.306  12.769  12.838
53471SOL    HW262253  12.451  12.808  12.817
53472SOL     OW62254   4.289  13.987   8.885
53472SOL    HW162255   4.266  14.004   8.793
53472SOL    HW262256   4.384  13.999   8.889
53473SOL     OW62257  10.094   6.633  12.362
53473SOL    HW162258  10.106   6.708  12.304
53473SOL    HW262259  10.016   6.653  12.413
53474SOL     OW62260   3.241   3.040   9.897
53474SOL    HW162261   3.317   2.988   9.871
53474SOL    HW262262   3.201   3.066   9.814
53475SOL     OW62263   8.233   4.497  12.150
53475SOL    HW162264   8.255   4.521  12.240
53475SOL    HW262265   8.142   4.467  12.154
53476SOL     OW62266   9.176   3.489  14.281
53476SOL    HW162267   9.087   3.457  14.297
53476SOL    HW262268   9.165   3.583  14.264
53477SOL     OW62269   1.918  10.066   8.982
53477SOL    HW162270   1.944  10.013   8.907
53477SOL    HW262271   1.860  10.133   8.946
53478SOL     OW62272   4.732   2.156   0.044
53478SOL    HW162273   4.675   2.193  14.851
53478SOL    HW262274   4.719   2.213   0.120
53479SOL     OW62275  12.737   2.764   7.788
53479SOL    HW162276  12.747   2.809   7.872
53479SOL    HW262277  12.827   2.746   7.760
53480SOL     OW62278  11.267   7.093   1.049
53480SOL    HW162279  11.351   7.048   1.062
53480SOL    HW262280  11.204   7.040   1.098
53481SOL     OW62281   5.724  13.971   3.831
53481SOL    HW162282   5.808  13.972   3.784
53481SOL    HW262283   5.683  14.055   3.809
53482SOL     OW62284   3.380   0.700   6.823
53482SOL    HW162285   3.374   0.632   6.891
53482SOL    HW262286   3.303   0.755   6.839
53483SOL     OW62287   7.058  11.863   5.620
53483SOL    HW162288   7.060  11.768   5.629
53483SOL    HW262289   7.092  11.896   5.704
53484SOL     OW62290  12.265   7.258   3.566
53484SOL    HW162291  12.224   7.248   3.479
53484SOL    HW262292  12.311   7.176   3.580
53485SOL     OW62293  10.790   1.092  13.628
53485SOL    HW162294  10.816   1.184  13.618
53485SOL    HW262295  10.873   1.043  13.626
53486SOL     OW62296  12.088  11.183   7.521
53486SOL    HW162297  12.007  11.134   7.513
53486SOL    HW262298  12.144  11.129   7.577
53487SOL     OW62299  14.632   1.229   1.658
53487SOL    HW162300  14.704   1.248   1.718
53487SOL    HW262301  14.611   1.137   1.673
53488SOL     OW62302   7.628   0.597   7.413
53488SOL    HW162303   7.723   0.607   7.419
53488SOL    HW262304   7.603   0.650   7.337
53489SOL     OW62305   0.858   3.862   3.485
53489SOL    HW162306   0.853   3.900   3.398
53489SOL    HW262307   0.790   3.795   3.487
53490SOL     OW62308  11.292   8.133  12.614
53490SOL    HW162309  11.277   8.053  12.664
53490SOL    HW262310  11.242   8.121  12.533
53491SOL     OW62311   1.298   2.679   0.358
53491SOL    HW162312   1.232   2.732   0.404
53491SOL    HW262313   1.247   2.624   0.299
53492SOL     OW62314   5.383   8.583  11.434
53492SOL    HW162315   5.412   8.551  11.348
53492SOL    HW262316   5.456   8.564  11.493
53493SOL     OW62317   1.850   4.158   4.905
53493SOL    HW162318   1.816   4.202   4.983
53493SOL    HW262319   1.807   4.072   4.905
53494SOL     OW62320   7.603   9.626  13.419
53494SOL    HW162321   7.638   9.571  13.489
53494SOL    HW262322   7.614   9.716  13.452
53495SOL     OW62323  11.237  10.265  10.367
53495SOL    HW162324  11.309  10.313  10.327
53495SOL    HW262325  11.203  10.325  10.434
53496SOL     OW62326  10.135   4.413   2.309
53496SOL    HW162327  10.093   4.365   2.238
53496SOL    HW262328  10.093   4.499   2.309
53497SOL     OW62329   4.629   7.083  11.387
53497SOL    HW162330   4.599   7.095  11.477
53497SOL    HW262331   4.699   7.148  11.377
53498SOL     OW62332   2.814  10.448   4.868
53498SOL    HW162333   2.835  10.476   4.778
53498SOL    HW262334   2.879  10.380   4.887
53499SOL     OW62335   1.135   4.507  10.344
53499SOL    HW162336   1.087   4.430  10.313
53499SOL    HW262337   1.109   4.577  10.284
53500SOL     OW62338   4.309  13.936   1.769
53500SOL    HW162339   4.329  13.970   1.681
53500SOL    HW262340   4.326  14.010   1.827
53501SOL     OW62341  13.028  13.881  13.882
53501SOL    HW162342  13.011  13.840  13.797
53501SOL    HW262343  12.993  13.819  13.946
53502SOL     OW62344  11.797  11.197   2.136
53502SOL    HW162345  11.703  11.213   2.140
53502SOL    HW262346  11.829  11.215   2.224
53503SOL     OW62347   1.216   3.910   3.796
53503SOL    HW162348   1.182   3.865   3.719
53503SOL    HW262349   1.142   3.961   3.829
53504SOL     OW62350   6.821  14.594  14.606
53504SOL    HW162351   6.837  14.568  14.697
53504SOL    HW262352   6.755  14.662  14.611
53505SOL     OW62353   5.723  10.961   9.856
53505SOL    HW162354   5.685  10.883   9.897
53505SOL    HW262355   5.657  11.029   9.870
53506SOL     OW62356  10.406   5.651  14.871
53506SOL    HW162357  10.323   5.617   0.031
53506SOL    HW262358  10.384   5.690  14.787
53507SOL     OW62359  10.882   7.116   4.450
53507SOL    HW162360  10.957   7.086   4.399
53507SOL    HW262361  10.808   7.066   4.416
53508SOL     OW62362   0.504   3.409   6.882
53508SOL    HW162363   0.500   3.440   6.791
53508SOL    HW262364   0.441   3.337   6.885
53509SOL     OW62365   3.934  14.378  12.808
53509SOL    HW162366   3.999  14.408  12.871
53509SOL    HW262367   3.906  14.292  12.841
53510SOL     OW62368   0.924   6.202  12.507
53510SOL    HW162369   0.926   6.264  12.435
53510SOL    HW262370   0.984   6.238  12.572
53511SOL     OW62371  13.162   9.721   9.708
53511SOL    HW162372  13.233   9.780   9.732
53511SOL    HW262373  13.170   9.648   9.768
53512SOL     OW62374  12.985   8.298   2.379
53512SOL    HW162375  12.985   8.264   2.468
53512SOL    HW262376  12.895   8.285   2.348
53513SOL     OW62377  12.293   6.773   0.219
53513SOL    HW162378  12.315   6.683   0.242
53513SOL    HW262379  12.357   6.797   0.152
53514SOL     OW62380   8.851   7.628   6.040
53514SOL    HW162381   8.785   7.698   6.041
53514SOL    HW262382   8.800   7.547   6.044
53515SOL     OW62383   7.192   0.516   5.421
53515SOL    HW162384   7.149   0.439   5.457
53515SOL    HW262385   7.130   0.587   5.434
53516SOL     OW62386   3.851  12.712  12.680
53516SOL    HW162387   3.774  12.666  12.645
53516SOL    HW262388   3.818  12.758  12.757
53517SOL     OW62389   3.136   8.920  10.277
53517SOL    HW162390   3.229   8.935  10.262
53517SOL    HW262391   3.132   8.870  10.358
53518SOL     OW62392  11.466  10.581   2.349
53518SOL    HW162393  11.454  10.663   2.302
53518SOL    HW262394  11.561  10.574   2.359
53519SOL     OW62395   1.650   6.787   5.972
53519SOL    HW162396   1.566   6.756   6.006
53519SOL    HW262397   1.676   6.857   6.031
53520SOL     OW62398  11.799   4.206  13.770
53520SOL    HW162399  11.834   4.294  13.776
53520SOL    HW262400  11.869   4.150  13.802
53521SOL     OW62401  12.153   7.070  14.120
53521SOL    HW162402  12.129   7.037  14.207
53521SOL    HW262403  12.099   7.018  14.060
53522SOL     OW62404   0.384   1.856  12.374
53522SOL    HW162405   0.436   1.932  12.349
53522SOL    HW262406   0.328   1.886  12.445
53523SOL     OW62407  13.742   9.136  12.625
53523SOL    HW162408  13.827   9.175  12.605
53523SOL    HW262409  13.733   9.064  12.562
53524SOL     OW62410   1.871   3.599  14.473
53524SOL    HW162411   1.833   3.610  14.387
53524SOL    HW262412   1.962   3.574  14.456
53525SOL     OW62413  12.803   0.817  12.366
53525SOL    HW162414  12.890   0.854  12.377
53525SOL    HW262415  12.748   0.865  12.427
53526SOL     OW62416   1.014   4.103  10.676
53526SOL    HW162417   1.003   4.197  10.659
53526SOL    HW262418   1.106   4.094  10.702
53527SOL     OW62419  11.027  10.519   2.310
53527SOL    HW162420  10.998  10.610   2.302
53527SOL    HW262421  11.099  10.523   2.373
53528SOL     OW62422  12.777  10.274   6.333
53528SOL    HW162423  12.768  10.286   6.239
53528SOL    HW262424  12.796  10.180   6.343
53529SOL     OW62425   5.997   2.423  13.207
53529SOL    HW162426   6.048   2.504  13.212
53529SOL    HW262427   5.916   2.449  13.163
53530SOL     OW62428   4.255   1.553   7.344
53530SOL    HW162429   4.247   1.597   7.259
53530SOL    HW262430   4.274   1.624   7.406
53531SOL     OW62431   5.467   2.236   8.158
53531SOL    HW162432   5.505   2.154   8.126
53531SOL    HW262433   5.481   2.233   8.253
53532SOL     OW62434   2.134   8.039   1.171
53532SOL    HW162435   2.051   8.084   1.187
53532SOL    HW262436   2.155   8.058   1.080
53533SOL     OW62437   0.736  13.809   9.070
53533SOL    HW162438   0.707  13.718   9.071
53533SOL    HW262439   0.760  13.826   8.979
53534SOL     OW62440   3.470   6.743  11.387
53534SOL    HW162441   3.506   6.663  11.349
53534SOL    HW262442   3.541   6.807  11.379
53535SOL     OW62443   7.789   6.587  12.800
53535SOL    HW162444   7.841   6.537  12.863
53535SOL    HW262445   7.834   6.575  12.717
53536SOL     OW62446  14.013   0.657   9.603
53536SOL    HW162447  13.989   0.749   9.592
53536SOL    HW262448  13.999   0.638   9.696
53537SOL     OW62449   2.694  11.690   2.779
53537SOL    HW162450   2.605  11.658   2.762
53537SOL    HW262451   2.697  11.702   2.874
53538SOL     OW62452  10.491   6.670   3.414
53538SOL    HW162453  10.470   6.586   3.455
53538SOL    HW262454  10.575   6.655   3.371
53539SOL     OW62455   8.517  14.455   1.747
53539SOL    HW162456   8.519  14.360   1.753
53539SOL    HW262457   8.603  14.479   1.713
53540SOL     OW62458  12.882   3.787   1.441
53540SOL    HW162459  12.817   3.843   1.484
53540SOL    HW262460  12.839   3.759   1.360
53541SOL     OW62461   5.186   6.829  14.553
53541SOL    HW162462   5.212   6.817  14.644
53541SOL    HW262463   5.135   6.910  14.553
53542SOL     OW62464  13.319  14.309  13.791
53542SOL    HW162465  13.407  14.315  13.829
53542SOL    HW262466  13.334  14.317  13.696
53543SOL     OW62467   7.285   0.654   5.663
53543SOL    HW162468   7.350   0.661   5.593
53543SOL    HW262469   7.203   0.636   5.618
53544SOL     OW62470  14.651   4.611   8.911
53544SOL    HW162471  14.623   4.525   8.944
53544SOL    HW262472  14.705   4.591   8.834
53545SOL     OW62473   6.618   9.495   8.228
53545SOL    HW162474   6.600   9.533   8.142
53545SOL    HW262475   6.713   9.479   8.227
53546SOL     OW62476   6.193   4.477   6.280
53546SOL    HW162477   6.261   4.545   6.276
53546SOL    HW262478   6.136   4.504   6.351
53547SOL     OW62479   1.397   8.714   5.478
53547SOL    HW162480   1.469   8.737   5.420
53547SOL    HW262481   1.429   8.641   5.529
53548SOL     OW62482   6.952   6.510   6.286
53548SOL    HW162483   7.016   6.496   6.216
53548SOL    HW262484   6.909   6.593   6.263
53549SOL     OW62485   6.655   7.562  12.316
53549SOL    HW162486   6.685   7.599  12.400
53549SOL    HW262487   6.736   7.541  12.269
53550SOL     OW62488  13.049  12.741  12.274
53550SOL    HW162489  13.013  12.653  12.277
53550SOL    HW262490  13.103  12.748  12.353
53551SOL     OW62491   6.973   8.942   6.551
53551SOL    HW162492   7.045   8.896   6.594
53551SOL    HW262493   7.014   9.017   6.509
53552SOL     OW62494   2.491  11.869  11.567
53552SOL    HW162495   2.580  11.851  11.536
53552SOL    HW262496   2.493  11.842  11.659
53553SOL     OW62497  14.336   6.701  10.865
53553SOL    HW162498  14.241   6.688  10.865
53553SOL    HW262499  14.348   6.791  10.894
53554SOL     OW62500   1.644  14.436  13.206
53554SOL    HW162501   1.654  14.342  13.191
53554SOL    HW262502   1.549  14.449  13.211
53555SOL     OW62503  12.515   4.032   5.785
53555SOL    HW162504  12.445   4.062   5.727
53555SOL    HW262505  12.503   4.082   5.865
53556SOL     OW62506  14.636   7.185   6.201
53556SOL    HW162507  14.590   7.101   6.195
53556SOL    HW262508  14.575   7.248   6.163
53557SOL     OW62509   8.651   9.705   2.840
53557SOL    HW162510   8.588   9.766   2.878
53557SOL    HW262511   8.735   9.751   2.845
53558SOL     OW62512  12.502  10.516   9.477
53558SOL    HW162513  12.478  10.605   9.503
53558SOL    HW262514  12.424  10.481   9.434
53559SOL     OW62515   9.671   2.420   7.495
53559SOL    HW162516   9.713   2.464   7.568
53559SOL    HW262517   9.743   2.386   7.442
53560SOL     OW62518   6.424   3.995  11.376
53560SOL    HW162519   6.493   3.943  11.335
53560SOL    HW262520   6.459   4.084  11.377
53561SOL     OW62521  11.650  14.220   0.051
53561SOL    HW162522  11.621  14.243   0.139
53561SOL    HW262523  11.632  14.298  14.872
53562SOL     OW62524  14.441   3.348  10.182
53562SOL    HW162525  14.509   3.383  10.126
53562SOL    HW262526  14.431   3.413  10.252
53563SOL     OW62527  13.539  11.811   6.206
53563SOL    HW162528  13.455  11.838   6.244
53563SOL    HW262529  13.553  11.872   6.134
53564SOL     OW62530   8.750  10.475   7.256
53564SOL    HW162531   8.755  10.416   7.331
53564SOL    HW262532   8.834  10.521   7.256
53565SOL     OW62533   3.032   5.544   2.189
53565SOL    HW162534   3.046   5.492   2.268
53565SOL    HW262535   3.022   5.480   2.119
53566SOL     OW62536   0.057  10.824  14.443
53566SOL    HW162537   0.042  10.919  14.439
53566SOL    HW262538  14.848  10.785  14.416
53567SOL     OW62539   0.956  12.019  11.275
53567SOL    HW162540   0.897  12.063  11.336
53567SOL    HW262541   1.019  12.086  11.250
53568SOL     OW62542   0.432   4.939  12.941
53568SOL    HW162543   0.491   4.889  12.884
53568SOL    HW262544   0.412   5.018  12.890
53569SOL     OW62545   7.796  12.556   8.081
53569SOL    HW162546   7.720  12.613   8.074
53569SOL    HW262547   7.809  12.544   8.175
53570SOL     OW62548   0.274  10.720   4.573
53570SOL    HW162549   0.297  10.812   4.560
53570SOL    HW262550   0.337  10.671   4.519
53571SOL     OW62551   3.213   8.710   6.074
53571SOL    HW162552   3.246   8.770   6.007
53571SOL    HW262553   3.130   8.678   6.039
53572SOL     OW62554   9.055   8.735   2.903
53572SOL    HW162555   9.046   8.700   2.814
53572SOL    HW262556   9.078   8.827   2.890
53573SOL     OW62557  12.556   7.228   6.522
53573SOL    HW162558  12.522   7.293   6.460
53573SOL    HW262559  12.578   7.279   6.600
53574SOL     OW62560   8.594  13.581   4.542
53574SOL    HW162561   8.541  13.503   4.526
53574SOL    HW262562   8.559  13.618   4.623
53575SOL     OW62563   7.638   0.562   9.665
53575SOL    HW162564   7.546   0.540   9.671
53575SOL    HW262565   7.675   0.498   9.605
53576SOL     OW62566  14.712   7.952   5.614
53576SOL    HW162567  14.677   8.039   5.632
53576SOL    HW262568  14.715   7.908   5.699
53577SOL     OW62569  12.886  11.117   1.318
53577SOL    HW162570  12.886  11.149   1.228
53577SOL    HW262571  12.967  11.066   1.326
53578SOL     OW62572  13.394  10.374   7.876
53578SOL    HW162573  13.436  10.324   7.947
53578SOL    HW262574  13.313  10.406   7.916
53579SOL     OW62575   3.594   8.349  11.240
53579SOL    HW162576   3.616   8.348  11.146
53579SOL    HW262577   3.614   8.438  11.268
53580SOL     OW62578  12.433   3.018   6.835
53580SOL    HW162579  12.430   2.979   6.748
53580SOL    HW262580  12.342   3.016   6.865
53581SOL     OW62581   3.532  11.001  10.266
53581SOL    HW162582   3.609  11.023  10.215
53581SOL    HW262583   3.517  10.908  10.249
53582SOL     OW62584   0.078   3.054  10.366
53582SOL    HW162585   0.035   3.118  10.423
53582SOL    HW262586   0.054   3.081  10.278
53583SOL     OW62587   4.227   7.106   9.990
53583SOL    HW162588   4.236   7.180  10.050
53583SOL    HW262589   4.294   7.121   9.923
53584SOL     OW62590  12.560   9.584   4.208
53584SOL    HW162591  12.577   9.501   4.252
53584SOL    HW262592  12.473   9.574   4.169
53585SOL     OW62593   0.490  11.572   4.039
53585SOL    HW162594   0.462  11.559   4.130
53585SOL    HW262595   0.586  11.568   4.043
53586SOL     OW62596  13.481   2.098   7.264
53586SOL    HW162597  13.502   2.012   7.302
53586SOL    HW262598  13.461   2.154   7.339
53587SOL     OW62599   9.839   3.989  13.876
53587SOL    HW162600   9.835   3.940  13.794
53587SOL    HW262601   9.922   3.961  13.916
53588SOL     OW62602   9.150  12.738  10.963
53588SOL    HW162603   9.105  12.672  10.911
53588SOL    HW262604   9.081  12.800  10.989
53589SOL     OW62605   6.675   1.859   8.950
53589SOL    HW162606   6.762   1.825   8.971
53589SOL    HW262607   6.671   1.944   8.993
53590SOL     OW62608  11.053   8.643  10.623
53590SOL    HW162609  11.017   8.630  10.535
53590SOL    HW262610  11.115   8.571  10.634
53591SOL     OW62611   5.328   0.992   0.790
53591SOL    HW162612   5.331   1.005   0.885
53591SOL    HW262613   5.258   0.928   0.776
53592SOL     OW62614   6.409   5.635   9.349
53592SOL    HW162615   6.478   5.655   9.287
53592SOL    HW262616   6.386   5.544   9.330
53593SOL     OW62617   8.734  12.014   8.357
53593SOL    HW162618   8.779  12.077   8.413
53593SOL    HW262619   8.758  12.039   8.268
53594SOL     OW62620   4.378  13.321   2.453
53594SOL    HW162621   4.313  13.391   2.458
53594SOL    HW262622   4.370  13.288   2.363
53595SOL     OW62623  14.135   0.634   1.470
53595SOL    HW162624  14.160   0.615   1.379
53595SOL    HW262625  14.219   0.641   1.517
53596SOL     OW62626   6.703   0.848   6.703
53596SOL    HW162627   6.724   0.823   6.793
53596SOL    HW262628   6.709   0.766   6.653
53597SOL     OW62629  13.665   4.465   0.477
53597SOL    HW162630  13.728   4.397   0.500
53597SOL    HW262631  13.706   4.513   0.406
53598SOL     OW62632  12.630   5.024   8.384
53598SOL    HW162633  12.693   5.096   8.393
53598SOL    HW262634  12.560   5.046   8.445
53599SOL     OW62635   6.232  12.234   7.504
53599SOL    HW162636   6.284  12.171   7.555
53599SOL    HW262637   6.184  12.285   7.570
53600SOL     OW62638   9.432  11.814   0.724
53600SOL    HW162639   9.450  11.734   0.773
53600SOL    HW262640   9.339  11.831   0.739
53601SOL     OW62641   9.357  11.649   7.449
53601SOL    HW162642   9.410  11.577   7.415
53601SOL    HW262643   9.336  11.702   7.372
53602SOL     OW62644   7.515  13.338   2.971
53602SOL    HW162645   7.428  13.300   2.969
53602SOL    HW262646   7.562  13.296   2.900
53603SOL     OW62647   9.342   6.971   8.290
53603SOL    HW162648   9.365   6.885   8.326
53603SOL    HW262649   9.250   6.983   8.314
53604SOL     OW62650  10.159   9.792   4.489
53604SOL    HW162651  10.179   9.859   4.424
53604SOL    HW262652  10.197   9.711   4.455
53605SOL     OW62653   5.832  13.940   7.230
53605SOL    HW162654   5.883  13.999   7.285
53605SOL    HW262655   5.893  13.912   7.161
53606SOL     OW62656   8.812   4.773  13.937
53606SOL    HW162657   8.747   4.808  13.876
53606SOL    HW262658   8.796   4.679  13.939
53607SOL     OW62659  12.070   3.568   9.630
53607SOL    HW162660  11.996   3.552   9.572
53607SOL    HW262661  12.063   3.499   9.697
53608SOL     OW62662   4.374   7.696   7.596
53608SOL    HW162663   4.362   7.620   7.539
53608SOL    HW262664   4.288   7.708   7.637
53609SOL     OW62665   7.875   6.191   4.135
53609SOL    HW162666   7.846   6.208   4.046
53609SOL    HW262667   7.964   6.159   4.126
53610SOL     OW62668   9.692   9.738   6.341
53610SOL    HW162669   9.603   9.752   6.372
53610SOL    HW262670   9.736   9.822   6.352
53611SOL     OW62671  12.611   6.803   3.126
53611SOL    HW162672  12.664   6.792   3.047
53611SOL    HW262673  12.573   6.890   3.118
53612SOL     OW62674  12.171   2.305  11.800
53612SOL    HW162675  12.155   2.386  11.848
53612SOL    HW262676  12.221   2.250  11.860
53613SOL     OW62677   6.843  12.682   3.879
53613SOL    HW162678   6.784  12.666   3.953
53613SOL    HW262679   6.826  12.773   3.855
53614SOL     OW62680   5.056   3.487  11.426
53614SOL    HW162681   5.012   3.548  11.485
53614SOL    HW262682   5.049   3.402  11.470
53615SOL     OW62683   8.346   8.863  13.864
53615SOL    HW162684   8.395   8.849  13.946
53615SOL    HW262685   8.305   8.779  13.846
53616SOL     OW62686  13.533  13.179   5.309
53616SOL    HW162687  13.587  13.106   5.279
53616SOL    HW262688  13.508  13.154   5.398
53617SOL     OW62689  11.326   8.742   5.806
53617SOL    HW162690  11.336   8.761   5.713
53617SOL    HW262691  11.232   8.748   5.823
53618SOL     OW62692   3.466   3.029   3.782
53618SOL    HW162693   3.554   2.999   3.805
53618SOL    HW262694   3.453   3.108   3.835
53619SOL     OW62695   9.371   1.313  13.769
53619SOL    HW162696   9.423   1.237  13.743
53619SOL    HW262697   9.291   1.277  13.805
53620SOL     OW62698   3.346   7.038   0.899
53620SOL    HW162699   3.366   7.112   0.956
53620SOL    HW262700   3.378   7.066   0.813
53621SOL     OW62701   2.994   7.671   6.641
53621SOL    HW162702   2.965   7.696   6.728
53621SOL    HW262703   2.954   7.586   6.625
53622SOL     OW62704   0.143   2.017   6.414
53622SOL    HW162705   0.179   1.959   6.346
53622SOL    HW262706   0.212   2.080   6.431
53623SOL     OW62707  11.113  12.264  11.195
53623SOL    HW162708  11.071  12.181  11.218
53623SOL    HW262709  11.195  12.265  11.245
53624SOL     OW62710   2.964  12.891   2.622
53624SOL    HW162711   2.909  12.926   2.692
53624SOL    HW262712   3.053  12.898   2.656
53625SOL     OW62713   3.671  10.952   7.038
53625SOL    HW162714   3.748  11.004   7.014
53625SOL    HW262715   3.632  10.929   6.954
53626SOL     OW62716  14.160  10.756  11.453
53626SOL    HW162717  14.183  10.831  11.507
53626SOL    HW262718  14.189  10.680  11.504
53627SOL     OW62719   5.819   8.986   9.826
53627SOL    HW162720   5.724   8.974   9.836
53627SOL    HW262721   5.854   8.897   9.834
53628SOL     OW62722  13.370   6.493  12.310
53628SOL    HW162723  13.279   6.468  12.296
53628SOL    HW262724  13.420   6.430  12.258
53629SOL     OW62725   8.539  13.466  10.835
53629SOL    HW162726   8.499  13.518  10.904
53629SOL    HW262727   8.567  13.530  10.769
53630SOL     OW62728   5.015   1.799   5.981
53630SOL    HW162729   5.033   1.780   5.888
53630SOL    HW262730   5.089   1.760   6.028
53631SOL     OW62731  13.538   8.449   4.695
53631SOL    HW162732  13.451   8.489   4.687
53631SOL    HW262733  13.535   8.374   4.636
53632SOL     OW62734  12.405   7.830  11.876
53632SOL    HW162735  12.369   7.822  11.788
53632SOL    HW262736  12.348   7.893  11.919
53633SOL     OW62737   8.804   7.173   6.166
53633SOL    HW162738   8.781   7.203   6.254
53633SOL    HW262739   8.863   7.241   6.133
53634SOL     OW62740  10.846  12.966   3.116
53634SOL    HW162741  10.790  12.987   3.042
53634SOL    HW262742  10.918  13.028   3.111
53635SOL     OW62743  14.419  13.169   5.026
53635SOL    HW162744  14.454  13.082   5.044
53635SOL    HW262745  14.456  13.192   4.941
53636SOL     OW62746   5.431   6.633   6.022
53636SOL    HW162747   5.444   6.629   6.116
53636SOL    HW262748   5.423   6.541   5.995
53637SOL     OW62749   5.969  12.528  14.318
53637SOL    HW162750   5.965  12.458  14.384
53637SOL    HW262751   5.946  12.484  14.236
53638SOL     OW62752   7.574   4.816  14.432
53638SOL    HW162753   7.564   4.886  14.368
53638SOL    HW262754   7.485   4.800  14.464
53639SOL     OW62755   9.835  11.374   1.442
53639SOL    HW162756   9.877  11.345   1.523
53639SOL    HW262757   9.742  11.382   1.465
53640SOL     OW62758   2.203   1.543   2.310
53640SOL    HW162759   2.158   1.604   2.252
53640SOL    HW262760   2.285   1.523   2.266
53641SOL     OW62761  10.258   8.721  13.792
53641SOL    HW162762  10.255   8.811  13.758
53641SOL    HW262763  10.338   8.684  13.754
53642SOL     OW62764  12.487   5.438   5.273
53642SOL    HW162765  12.398   5.474   5.274
53642SOL    HW262766  12.520   5.458   5.185
53643SOL     OW62767  14.694   6.210  12.018
53643SOL    HW162768  14.695   6.136  11.957
53643SOL    HW262769  14.651   6.281  11.971
53644SOL     OW62770   0.780   4.810  13.584
53644SOL    HW162771   0.810   4.719  13.583
53644SOL    HW262772   0.860   4.862  13.580
53645SOL     OW62773   3.569   7.547   6.356
53645SOL    HW162774   3.637   7.576   6.418
53645SOL    HW262775   3.530   7.628   6.324
53646SOL     OW62776   2.875   4.045   8.623
53646SOL    HW162777   2.953   4.057   8.568
53646SOL    HW262778   2.813   4.000   8.567
53647SOL     OW62779   2.378   4.159  10.175
53647SOL    HW162780   2.323   4.233  10.150
53647SOL    HW262781   2.351   4.138  10.264
53648SOL     OW62782   3.324   7.574   7.209
53648SOL    HW162783   3.409   7.546   7.174
53648SOL    HW262784   3.320   7.668   7.193
53649SOL     OW62785  12.923  13.965   2.774
53649SOL    HW162786  12.912  14.013   2.692
53649SOL    HW262787  12.875  13.883   2.759
53650SOL     OW62788  12.717   2.428  14.761
53650SOL    HW162789  12.797   2.411  14.711
53650SOL    HW262790  12.722   2.521  14.782
53651SOL     OW62791   9.845   8.090   3.249
53651SOL    HW162792   9.791   8.166   3.272
53651SOL    HW262793   9.805   8.055   3.169
53652SOL     OW62794  12.672   9.063   8.351
53652SOL    HW162795  12.607   9.089   8.285
53652SOL    HW262796  12.753   9.106   8.322
53653SOL     OW62797  11.667   1.984   4.898
53653SOL    HW162798  11.647   2.024   4.982
53653SOL    HW262799  11.730   2.043   4.857
53654SOL     OW62800   1.624  13.738  10.171
53654SOL    HW162801   1.655  13.703  10.254
53654SOL    HW262802   1.533  13.763  10.187
53655SOL     OW62803   3.087  14.159  13.170
53655SOL    HW162804   3.007  14.211  13.165
53655SOL    HW262805   3.059  14.070  13.147
53656SOL     OW62806   9.740  14.001   9.438
53656SOL    HW162807   9.807  14.042   9.384
53656SOL    HW262808   9.682  13.958   9.376
53657SOL     OW62809   2.919   0.634  13.140
53657SOL    HW162810   2.911   0.553  13.190
53657SOL    HW262811   3.005   0.670  13.165
53658SOL     OW62812   9.607  10.380   3.668
53658SOL    HW162813   9.693  10.367   3.627
53658SOL    HW262814   9.612  10.466   3.708
53659SOL     OW62815   9.030   8.065  14.112
53659SOL    HW162816   8.960   8.023  14.060
53659SOL    HW262817   8.986   8.137  14.157
53660SOL     OW62818   4.035   1.808   5.739
53660SOL    HW162819   4.120   1.833   5.701
53660SOL    HW262820   3.992   1.891   5.758
53661SOL     OW62821   8.578   2.549  10.117
53661SOL    HW162822   8.538   2.522  10.200
53661SOL    HW262823   8.526   2.503  10.050
53662SOL     OW62824   7.439   1.820   2.798
53662SOL    HW162825   7.400   1.868   2.724
53662SOL    HW262826   7.365   1.794   2.852
53663SOL     OW62827   3.385   7.547   7.480
53663SOL    HW162828   3.328   7.549   7.557
53663SOL    HW262829   3.326   7.545   7.405
53664SOL     OW62830   0.466   3.995  13.200
53664SOL    HW162831   0.390   4.052  13.211
53664SOL    HW262832   0.503   4.020  13.116
53665SOL     OW62833  13.668   0.805   2.381
53665SOL    HW162834  13.747   0.858   2.371
53665SOL    HW262835  13.674   0.740   2.310
53666SOL     OW62836  13.588   3.217   4.333
53666SOL    HW162837  13.499   3.240   4.360
53666SOL    HW262838  13.577   3.138   4.279
53667SOL     OW62839   4.156   9.846   7.727
53667SOL    HW162840   4.135   9.841   7.820
53667SOL    HW262841   4.208   9.768   7.709
53668SOL     OW62842   1.499   3.008   8.136
53668SOL    HW162843   1.569   2.944   8.150
53668SOL    HW262844   1.450   3.008   8.219
53669SOL     OW62845   6.649   4.282   3.133
53669SOL    HW162846   6.625   4.284   3.040
53669SOL    HW262847   6.731   4.234   3.136
53670SOL     OW62848   6.091   9.725   5.137
53670SOL    HW162849   6.117   9.764   5.053
53670SOL    HW262850   6.165   9.744   5.195
53671SOL     OW62851  13.709   6.085  12.276
53671SOL    HW162852  13.639   6.058  12.335
53671SOL    HW262853  13.750   6.159  12.321
53672SOL     OW62854  11.483  14.257   1.167
53672SOL    HW162855  11.391  14.284   1.174
53672SOL    HW262856  11.504  14.225   1.255
53673SOL     OW62857   9.528   3.920  13.092
53673SOL    HW162858   9.538   3.838  13.140
53673SOL    HW262859   9.597   3.976  13.127
53674SOL     OW62860  13.459  10.463   7.621
53674SOL    HW162861  13.384  10.437   7.568
53674SOL    HW262862  13.435  10.437   7.710
53675SOL     OW62863   5.463  13.586   9.508
53675SOL    HW162864   5.526  13.591   9.436
53675SOL    HW262865   5.455  13.676   9.539
53676SOL     OW62866   1.692   4.012   8.762
53676SOL    HW162867   1.781   3.982   8.745
53676SOL    HW262868   1.665   3.965   8.841
53677SOL     OW62869  10.308  11.788  11.944
53677SOL    HW162870  10.229  11.781  11.997
53677SOL    HW262871  10.355  11.863  11.980
53678SOL     OW62872   1.724  14.644   3.991
53678SOL    HW162873   1.683  14.585   4.055
53678SOL    HW262874   1.818  14.630   4.003
53679SOL     OW62875  10.267   5.117   4.860
53679SOL    HW162876  10.277   5.065   4.940
53679SOL    HW262877  10.181   5.092   4.826
53680SOL     OW62878   0.371   3.748  12.591
53680SOL    HW162879   0.435   3.765  12.522
53680SOL    HW262880   0.295   3.800  12.566
53681SOL     OW62881   4.426   8.504  11.219
53681SOL    HW162882   4.458   8.591  11.194
53681SOL    HW262883   4.502   8.460  11.256
53682SOL     OW62884   9.503   8.681   1.150
53682SOL    HW162885   9.564   8.609   1.169
53682SOL    HW262886   9.426   8.638   1.112
53683SOL     OW62887   7.757  10.498   4.385
53683SOL    HW162888   7.680  10.460   4.343
53683SOL    HW262889   7.811  10.528   4.312
53684SOL     OW62890  12.690  12.244   0.276
53684SOL    HW162891  12.659  12.254   0.186
53684SOL    HW262892  12.737  12.325   0.294
53685SOL     OW62893   7.205   0.591   9.799
53685SOL    HW162894   7.246   0.660   9.748
53685SOL    HW262895   7.140   0.636   9.853
53686SOL     OW62896  14.704   6.913  14.026
53686SOL    HW162897  14.693   6.997  13.982
53686SOL    HW262898  14.773   6.929  14.090
53687SOL     OW62899  13.889  10.361   9.011
53687SOL    HW162900  13.898  10.451   9.041
53687SOL    HW262901  13.802  10.357   8.971
53688SOL     OW62902  14.273   2.859   8.914
53688SOL    HW162903  14.209   2.925   8.888
53688SOL    HW262904  14.335   2.905   8.971
53689SOL     OW62905  13.895  13.999   6.117
53689SOL    HW162906  13.804  13.969   6.119
53689SOL    HW262907  13.946  13.918   6.123
53690SOL     OW62908   9.008   3.371   9.569
53690SOL    HW162909   8.959   3.298   9.531
53690SOL    HW262910   9.054   3.331   9.643
53691SOL     OW62911   6.575   6.082   5.985
53691SOL    HW162912   6.582   6.069   5.890
53691SOL    HW262913   6.481   6.080   6.002
53692SOL     OW62914   3.699  13.506  14.172
53692SOL    HW162915   3.708  13.548  14.086
53692SOL    HW262916   3.755  13.429  14.168
53693SOL     OW62917   6.423   5.600   6.453
53693SOL    HW162918   6.368   5.594   6.531
53693SOL    HW262919   6.401   5.521   6.402
53694SOL     OW62920   7.826  14.673   9.163
53694SOL    HW162921   7.741  14.669   9.120
53694SOL    HW262922   7.884  14.710   9.098
53695SOL     OW62923   8.433   5.969  12.079
53695SOL    HW162924   8.413   5.889  12.128
53695SOL    HW262925   8.501   5.942  12.017
53696SOL     OW62926   0.012   4.905   3.443
53696SOL    HW162927   0.073   4.850   3.394
53696SOL    HW262928  14.855   4.848   3.513
53697SOL     OW62929   6.441   7.209  11.518
53697SOL    HW162930   6.467   7.301  11.513
53697SOL    HW262931   6.346   7.210  11.505
53698SOL     OW62932  11.536   4.879   4.674
53698SOL    HW162933  11.537   4.827   4.754
53698SOL    HW262934  11.493   4.822   4.610
53699SOL     OW62935   2.970   8.681   4.819
53699SOL    HW162936   2.963   8.586   4.803
53699SOL    HW262937   2.880   8.709   4.834
53700SOL     OW62938   9.312   1.390  12.705
53700SOL    HW162939   9.384   1.391  12.641
53700SOL    HW262940   9.274   1.478  12.699
53701SOL     OW62941   6.264   2.503   8.824
53701SOL    HW162942   6.303   2.435   8.770
53701SOL    HW262943   6.173   2.477   8.834
53702SOL     OW62944   5.060   3.076   8.093
53702SOL    HW162945   5.069   3.066   7.998
53702SOL    HW262946   5.147   3.104   8.123
53703SOL     OW62947  13.075   2.067   1.730
53703SOL    HW162948  13.097   2.011   1.656
53703SOL    HW262949  13.002   2.022   1.774
53704SOL     OW62950   6.847   0.539   1.967
53704SOL    HW162951   6.822   0.499   1.884
53704SOL    HW262952   6.909   0.607   1.943
53705SOL     OW62953   4.530   7.233   7.304
53705SOL    HW162954   4.623   7.217   7.317
53705SOL    HW262955   4.524   7.325   7.280
53706SOL     OW62956   9.244  12.384  12.075
53706SOL    HW162957   9.227  12.478  12.083
53706SOL    HW262958   9.161  12.347  12.045
53707SOL     OW62959  14.334   1.984   8.105
53707SOL    HW162960  14.343   1.953   8.015
53707SOL    HW262961  14.247   2.023   8.110
53708SOL     OW62962   3.770  11.021  10.142
53708SOL    HW162963   3.784  10.999  10.050
53708SOL    HW262964   3.857  11.043  10.175
53709SOL     OW62965   3.900  11.277   8.575
53709SOL    HW162966   3.914  11.188   8.542
53709SOL    HW262967   3.904  11.332   8.498
53710SOL     OW62968  11.728   2.733   5.717
53710SOL    HW162969  11.660   2.801   5.721
53710SOL    HW262970  11.697   2.673   5.649
53711SOL     OW62971  10.600   4.399   4.404
53711SOL    HW162972  10.535   4.465   4.380
53711SOL    HW262973  10.559   4.315   4.381
53712SOL     OW62974   7.215   4.447   8.435
53712SOL    HW162975   7.134   4.423   8.391
53712SOL    HW262976   7.284   4.405   8.382
53713SOL     OW62977  11.912   0.512  12.837
53713SOL    HW162978  11.898   0.418  12.828
53713SOL    HW262979  11.854   0.552  12.773
53714SOL     OW62980   0.777  13.475  10.231
53714SOL    HW162981   0.854  13.480  10.287
53714SOL    HW262982   0.805  13.421  10.157
53715SOL     OW62983  13.992   9.058  14.615
53715SOL    HW162984  14.039   9.095  14.690
53715SOL    HW262985  14.058   9.008  14.568
53716SOL     OW62986  13.328   1.905   7.458
53716SOL    HW162987  13.421   1.904   7.481
53716SOL    HW262988  13.318   1.830   7.399
53717SOL     OW62989  14.264   3.248   2.019
53717SOL    HW162990  14.202   3.320   2.008
53717SOL    HW262991  14.340   3.273   1.966
53718SOL     OW62992  10.928   4.829  11.159
53718SOL    HW162993  10.905   4.768  11.089
53718SOL    HW262994  10.939   4.914  11.114
53719SOL     OW62995  12.034   1.996   2.308
53719SOL    HW162996  12.001   1.936   2.374
53719SOL    HW262997  12.095   2.053   2.355
53720SOL     OW62998   1.843   4.368   1.740
53720SOL    HW162999   1.923   4.406   1.776
53720SOL    HW263000   1.849   4.275   1.762
53721SOL     OW63001   4.359   4.885   4.028
53721SOL    HW163002   4.277   4.883   3.979
53721SOL    HW263003   4.401   4.802   4.008
53722SOL     OW63004  12.064  14.434  13.719
53722SOL    HW163005  12.033  14.422  13.809
53722SOL    HW263006  12.105  14.350  13.697
53723SOL     OW63007   8.793  14.422   4.099
53723SOL    HW163008   8.704  14.396   4.072
53723SOL    HW263009   8.807  14.376   4.181
53724SOL     OW63010  12.450   0.107   5.195
53724SOL    HW163011  12.501   0.158   5.257
53724SOL    HW263012  12.506   0.033   5.173
53725SOL     OW63013  12.697   2.538   7.524
53725SOL    HW163014  12.628   2.552   7.458
53725SOL    HW263015  12.743   2.460   7.493
53726SOL     OW63016   4.891  13.554   0.429
53726SOL    HW163017   4.897  13.595   0.342
53726SOL    HW263018   4.879  13.627   0.489
53727SOL     OW63019   5.581  10.332   7.294
53727SOL    HW163020   5.551  10.241   7.285
53727SOL    HW263021   5.515  10.384   7.249
53728SOL     OW63022   2.356  14.870   9.383
53728SOL    HW163023   2.269   0.033   9.367
53728SOL    HW263024   2.389   0.045   9.458
53729SOL     OW63025   7.281  12.570   5.200
53729SOL    HW163026   7.357  12.534   5.155
53729SOL    HW263027   7.255  12.645   5.148
53730SOL     OW63028   8.198   2.267   4.677
53730SOL    HW163029   8.171   2.290   4.766
53730SOL    HW263030   8.242   2.182   4.686
53731SOL     OW63031   5.520  11.100  10.150
53731SOL    HW163032   5.604  11.146  10.150
53731SOL    HW263033   5.496  11.093  10.058
53732SOL     OW63034  11.347  14.406   6.118
53732SOL    HW163035  11.321  14.371   6.032
53732SOL    HW263036  11.443  14.398   6.118
53733SOL     OW63037   7.059  14.781   8.435
53733SOL    HW163038   7.030  14.815   8.520
53733SOL    HW263039   6.982  14.735   8.400
53734SOL     OW63040   0.487  11.282   3.966
53734SOL    HW163041   0.462  11.316   4.052
53734SOL    HW263042   0.516  11.193   3.984
53735SOL     OW63043   4.158  10.078  12.326
53735SOL    HW163044   4.062  10.076  12.330
53735SOL    HW263045   4.179  10.028  12.247
53736SOL     OW63046   3.579   9.611   9.797
53736SOL    HW163047   3.578   9.688   9.855
53736SOL    HW263048   3.488   9.601   9.769
53737SOL     OW63049   4.033  10.983   3.594
53737SOL    HW163050   3.993  10.989   3.507
53737SOL    HW263051   4.030  10.889   3.615
53738SOL     OW63052   8.602  13.797   5.833
53738SOL    HW163053   8.552  13.741   5.892
53738SOL    HW263054   8.693  13.789   5.863
53739SOL     OW63055   3.198   0.380   7.624
53739SOL    HW163056   3.153   0.412   7.701
53739SOL    HW263057   3.277   0.337   7.658
53740SOL     OW63058   5.523  12.269  12.724
53740SOL    HW163059   5.617  12.276  12.740
53740SOL    HW263060   5.501  12.180  12.751
53741SOL     OW63061  10.068  12.981   5.314
53741SOL    HW163062  10.140  12.980   5.377
53741SOL    HW263063  10.027  12.895   5.323
53742SOL     OW63064   1.111   9.165  11.471
53742SOL    HW163065   1.085   9.224  11.542
53742SOL    HW263066   1.198   9.135  11.496
53743SOL     OW63067  13.976   1.147   4.822
53743SOL    HW163068  14.014   1.140   4.734
53743SOL    HW263069  14.051   1.143   4.881
53744SOL     OW63070  11.028  11.700  11.684
53744SOL    HW163071  10.998  11.613  11.657
53744SOL    HW263072  11.120  11.687  11.706
53745SOL     OW63073   9.066   6.119   8.556
53745SOL    HW163074   9.112   6.115   8.640
53745SOL    HW263075   9.010   6.196   8.564
53746SOL     OW63076  14.549  12.720  11.566
53746SOL    HW163077  14.528  12.739  11.474
53746SOL    HW263078  14.550  12.624  11.571
53747SOL     OW63079   8.298   5.353   0.102
53747SOL    HW163080   8.227   5.415   0.087
53747SOL    HW263081   8.308   5.351   0.197
53748SOL     OW63082   9.484   8.643  13.229
53748SOL    HW163083   9.431   8.570  13.197
53748SOL    HW263084   9.421   8.710  13.255
53749SOL     OW63085   2.745   7.414  13.666
53749SOL    HW163086   2.710   7.493  13.624
53749SOL    HW263087   2.721   7.342  13.607
53750SOL     OW63088   1.393   4.889  11.147
53750SOL    HW163089   1.323   4.851  11.200
53750SOL    HW263090   1.459   4.916  11.211
53751SOL     OW63091   3.417   2.632   3.882
53751SOL    HW163092   3.479   2.621   3.810
53751SOL    HW263093   3.473   2.642   3.960
53752SOL     OW63094   0.105  12.959   9.952
53752SOL    HW163095   0.186  12.960   9.902
53752SOL    HW263096   0.035  12.968   9.887
53753SOL     OW63097   8.019   7.835   3.044
53753SOL    HW163098   8.112   7.844   3.024
53753SOL    HW263099   7.976   7.846   2.960
53754SOL     OW63100   3.931   1.878   6.706
53754SOL    HW163101   4.020   1.897   6.677
53754SOL    HW263102   3.878   1.949   6.670
53755SOL     OW63103   0.438   0.943  14.408
53755SOL    HW163104   0.486   0.918  14.487
53755SOL    HW263105   0.487   1.017  14.373
53756SOL     OW63106   8.169   7.467   9.677
53756SOL    HW163107   8.256   7.506   9.670
53756SOL    HW263108   8.150   7.435   9.589
53757SOL     OW63109   1.916   5.596   2.485
53757SOL    HW163110   1.894   5.535   2.414
53757SOL    HW263111   1.975   5.547   2.542
53758SOL     OW63112   6.132   0.070   4.563
53758SOL    HW163113   6.097   0.151   4.527
53758SOL    HW263114   6.217   0.095   4.600
53759SOL     OW63115   3.122  11.587   1.319
53759SOL    HW163116   3.110  11.662   1.261
53759SOL    HW263117   3.192  11.614   1.378
53760SOL     OW63118   1.607   7.881   6.008
53760SOL    HW163119   1.614   7.793   6.045
53760SOL    HW263120   1.547   7.871   5.934
53761SOL     OW63121  11.982   8.977   5.516
53761SOL    HW163122  12.075   8.995   5.504
53761SOL    HW263123  11.959   8.920   5.443
53762SOL     OW63124  14.281  12.911   0.287
53762SOL    HW163125  14.307  13.001   0.306
53762SOL    HW263126  14.255  12.912   0.195
53763SOL     OW63127  11.439  12.687  14.288
53763SOL    HW163128  11.433  12.735  14.205
53763SOL    HW263129  11.519  12.721  14.329
53764SOL     OW63130   1.316   4.052   5.139
53764SOL    HW163131   1.277   4.038   5.225
53764SOL    HW263132   1.323   4.147   5.132
53765SOL     OW63133   6.189  14.054   8.045
53765SOL    HW163134   6.121  14.096   7.992
53765SOL    HW263135   6.205  14.115   8.117
53766SOL     OW63136   6.013   5.768  14.058
53766SOL    HW163137   6.108   5.751  14.058
53766SOL    HW263138   5.996   5.808  13.972
53767SOL     OW63139   8.222  10.486   5.805
53767SOL    HW163140   8.280  10.552   5.844
53767SOL    HW263141   8.219  10.416   5.871
53768SOL     OW63142   8.929   0.937   2.941
53768SOL    HW163143   8.945   0.932   3.036
53768SOL    HW263144   8.834   0.931   2.932
53769SOL     OW63145   0.352   3.563   5.194
53769SOL    HW163146   0.292   3.521   5.257
53769SOL    HW263147   0.438   3.530   5.218
53770SOL     OW63148  12.776  10.274   0.139
53770SOL    HW163149  12.725  10.303   0.063
53770SOL    HW263150  12.812  10.190   0.112
53771SOL     OW63151  11.280  10.071  13.310
53771SOL    HW163152  11.297  10.134  13.240
53771SOL    HW263153  11.186  10.054  13.305
53772SOL     OW63154   0.604   4.267   8.931
53772SOL    HW163155   0.616   4.362   8.936
53772SOL    HW263156   0.671   4.231   8.989
53773SOL     OW63157   2.205   1.298   1.551
53773SOL    HW163158   2.180   1.230   1.488
53773SOL    HW263159   2.275   1.258   1.603
53774SOL     OW63160   2.502   3.888  12.236
53774SOL    HW163161   2.533   3.881  12.146
53774SOL    HW263162   2.567   3.944  12.279
53775SOL     OW63163   3.231  14.356   4.582
53775SOL    HW163164   3.284  14.293   4.630
53775SOL    HW263165   3.182  14.304   4.519
53776SOL     OW63166   4.959   3.594   3.737
53776SOL    HW163167   5.054   3.602   3.724
53776SOL    HW263168   4.950   3.532   3.809
53777SOL     OW63169   9.666  12.795  11.816
53777SOL    HW163170   9.746  12.846  11.803
53777SOL    HW263171   9.664  12.733  11.743
53778SOL     OW63172   3.356   9.473  12.288
53778SOL    HW163173   3.450   9.458  12.276
53778SOL    HW263174   3.327   9.506  12.202
53779SOL     OW63175   1.299   5.632   3.298
53779SOL    HW163176   1.361   5.605   3.230
53779SOL    HW263177   1.219   5.653   3.250
53780SOL     OW63178   4.543  11.403  10.791
53780SOL    HW163179   4.548  11.435  10.701
53780SOL    HW263180   4.496  11.320  10.784
53781SOL     OW63181  12.662   4.265   1.924
53781SOL    HW163182  12.700   4.310   1.849
53781SOL    HW263183  12.719   4.190   1.939
53782SOL     OW63184   2.112   4.100   6.905
53782SOL    HW163185   2.157   4.064   6.982
53782SOL    HW263186   2.033   4.140   6.940
53783SOL     OW63187  14.269  10.000   4.878
53783SOL    HW163188  14.325  10.066   4.838
53783SOL    HW263189  14.222   9.960   4.805
53784SOL     OW63190   6.900   0.323   8.952
53784SOL    HW163191   6.826   0.383   8.944
53784SOL    HW263192   6.936   0.317   8.864
53785SOL     OW63193  10.812   4.766   1.750
53785SOL    HW163194  10.821   4.727   1.837
53785SOL    HW263195  10.844   4.698   1.690
53786SOL     OW63196   4.564  14.482  11.916
53786SOL    HW163197   4.504  14.520  11.979
53786SOL    HW263198   4.543  14.526  11.833
53787SOL     OW63199   2.320  12.202   3.929
53787SOL    HW163200   2.365  12.125   3.964
53787SOL    HW263201   2.254  12.224   3.995
53788SOL     OW63202   2.088   3.099  11.990
53788SOL    HW163203   2.040   3.055  11.920
53788SOL    HW263204   2.178   3.066  11.982
53789SOL     OW63205   6.122   5.274   6.196
53789SOL    HW163206   6.167   5.264   6.113
53789SOL    HW263207   6.052   5.208   6.193
53790SOL     OW63208  13.571  11.938   0.442
53790SOL    HW163209  13.571  12.007   0.508
53790SOL    HW263210  13.522  11.974   0.369
53791SOL     OW63211   5.771  12.231  12.814
53791SOL    HW163212   5.842  12.273  12.862
53791SOL    HW263213   5.781  12.137  12.834
53792SOL     OW63214   5.433   3.753   1.044
53792SOL    HW163215   5.463   3.835   1.083
53792SOL    HW263216   5.457   3.759   0.952
53793SOL     OW63217  12.953   1.126   0.471
53793SOL    HW163218  12.895   1.055   0.444
53793SOL    HW263219  13.035   1.107   0.425
53794SOL     OW63220   4.438   1.061   9.974
53794SOL    HW163221   4.442   1.040  10.068
53794SOL    HW263222   4.346   1.082   9.958
53795SOL     OW63223   6.000   0.332   6.502
53795SOL    HW163224   5.966   0.400   6.560
53795SOL    HW263225   6.050   0.381   6.435
53796SOL     OW63226   0.812   8.292   1.431
53796SOL    HW163227   0.878   8.267   1.366
53796SOL    HW263228   0.730   8.296   1.381
53797SOL     OW63229   3.835  11.472  12.331
53797SOL    HW163230   3.745  11.502  12.338
53797SOL    HW263231   3.839  11.393  12.387
53798SOL     OW63232   9.256   4.105   4.679
53798SOL    HW163233   9.309   4.029   4.656
53798SOL    HW263234   9.249   4.100   4.775
53799SOL     OW63235   0.362   8.767   2.453
53799SOL    HW163236   0.278   8.725   2.435
53799SOL    HW263237   0.399   8.784   2.366
53800SOL     OW63238  11.848  12.625   0.409
53800SOL    HW163239  11.805  12.591   0.487
53800SOL    HW263240  11.892  12.549   0.371
53801SOL     OW63241   3.160  12.435   2.725
53801SOL    HW163242   3.088  12.495   2.706
53801SOL    HW263243   3.239  12.489   2.713
53802SOL     OW63244   8.068  13.911   6.116
53802SOL    HW163245   8.159  13.935   6.136
53802SOL    HW263246   8.075  13.853   6.041
53803SOL     OW63247   6.841   3.197  10.293
53803SOL    HW163248   6.774   3.134  10.321
53803SOL    HW263249   6.923   3.146  10.293
53804SOL     OW63250   6.649   0.003  13.968
53804SOL    HW163251   6.679   0.065  13.902
53804SOL    HW263252   6.555  14.868  13.951
53805SOL     OW63253   5.516   7.158   1.583
53805SOL    HW163254   5.600   7.192   1.555
53805SOL    HW263255   5.513   7.069   1.548
53806SOL     OW63256   5.289   6.814  14.819
53806SOL    HW163257   5.313   6.847   0.032
53806SOL    HW263258   5.274   6.721  14.831
53807SOL     OW63259   5.514  10.262  10.973
53807SOL    HW163260   5.554  10.275  10.887
53807SOL    HW263261   5.484  10.171  10.972
53808SOL     OW63262  12.620  13.146  10.794
53808SOL    HW163263  12.649  13.057  10.773
53808SOL    HW263264  12.560  13.136  10.867
53809SOL     OW63265   1.785  11.454   3.617
53809SOL    HW163266   1.693  11.455   3.644
53809SOL    HW263267   1.828  11.398   3.682
53810SOL     OW63268  10.753   5.129  11.954
53810SOL    HW163269  10.721   5.191  11.888
53810SOL    HW263270  10.794   5.184  12.020
53811SOL     OW63271  13.169   8.791  14.410
53811SOL    HW163272  13.209   8.841  14.339
53811SOL    HW263273  13.170   8.850  14.485
53812SOL     OW63274   1.642   9.169   7.094
53812SOL    HW163275   1.643   9.256   7.054
53812SOL    HW263276   1.734   9.143   7.099
53813SOL     OW63277   2.974   4.383  11.281
53813SOL    HW163278   3.041   4.426  11.228
53813SOL    HW263279   2.931   4.454  11.328
53814SOL     OW63280  14.814   0.159  13.606
53814SOL    HW163281  14.773   0.174  13.521
53814SOL    HW263282  14.753   0.197  13.669
53815SOL     OW63283   8.616   6.312   9.018
53815SOL    HW163284   8.551   6.292   9.086
53815SOL    HW263285   8.667   6.384   9.055
53816SOL     OW63286   1.085  11.725   5.839
53816SOL    HW163287   1.105  11.735   5.933
53816SOL    HW263288   0.999  11.685   5.837
53817SOL     OW63289   7.773   9.507  11.242
53817SOL    HW163290   7.812   9.459  11.169
53817SOL    HW263291   7.844   9.561  11.276
53818SOL     OW63292   9.553   4.385   4.316
53818SOL    HW163293   9.462   4.371   4.288
53818SOL    HW263294   9.604   4.377   4.235
53819SOL     OW63295   9.888   3.439  13.481
53819SOL    HW163296   9.921   3.349  13.483
53819SOL    HW263297   9.967   3.493  13.485
53820SOL     OW63298   2.019   4.820   7.588
53820SOL    HW163299   2.034   4.730   7.615
53820SOL    HW263300   1.994   4.866   7.668
53821SOL     OW63301  13.714  13.359   8.506
53821SOL    HW163302  13.652  13.415   8.460
53821SOL    HW263303  13.659  13.303   8.561
53822SOL     OW63304   2.725   7.906   1.079
53822SOL    HW163305   2.784   7.947   1.015
53822SOL    HW263306   2.638   7.938   1.055
53823SOL     OW63307  10.117   0.572   7.346
53823SOL    HW163308  10.077   0.509   7.286
53823SOL    HW263309  10.078   0.552   7.431
53824SOL     OW63310   5.134   7.964   8.909
53824SOL    HW163311   5.066   7.938   8.847
53824SOL    HW263312   5.206   7.903   8.892
53825SOL     OW63313   9.262  11.852  11.587
53825SOL    HW163314   9.273  11.757  11.594
53825SOL    HW263315   9.291  11.886  11.671
53826SOL     OW63316   0.660  14.062  12.675
53826SOL    HW163317   0.727  14.130  12.666
53826SOL    HW263318   0.614  14.061  12.591
53827SOL     OW63319   7.357   8.998   4.951
53827SOL    HW163320   7.424   8.957   4.897
53827SOL    HW263321   7.378   9.091   4.949
53828SOL     OW63322  10.748  11.514   9.006
53828SOL    HW163323  10.743  11.452   8.933
53828SOL    HW263324  10.818  11.574   8.981
53829SOL     OW63325   2.915   7.016  14.190
53829SOL    HW163326   2.863   7.059  14.257
53829SOL    HW263327   3.004   7.050  14.201
53830SOL     OW63328   4.823  13.510   3.754
53830SOL    HW163329   4.799  13.442   3.817
53830SOL    HW263330   4.865  13.578   3.807
53831SOL     OW63331   5.529   1.656   5.853
53831SOL    HW163332   5.440   1.657   5.818
53831SOL    HW263333   5.528   1.586   5.918
53832SOL     OW63334   7.243   2.432   0.738
53832SOL    HW163335   7.265   2.401   0.651
53832SOL    HW263336   7.315   2.402   0.793
53833SOL     OW63337  12.198   0.213   3.062
53833SOL    HW163338  12.118   0.162   3.078
53833SOL    HW263339  12.266   0.167   3.111
53834SOL     OW63340   7.111  14.028   4.395
53834SOL    HW163341   7.091  13.964   4.326
53834SOL    HW263342   7.062  13.997   4.471
53835SOL     OW63343   1.730  13.969   8.094
53835SOL    HW163344   1.723  13.875   8.074
53835SOL    HW263345   1.650  13.988   8.143
53836SOL     OW63346   3.074  10.514   0.451
53836SOL    HW163347   3.161  10.551   0.462
53836SOL    HW263348   3.017  10.570   0.504
53837SOL     OW63349  12.118   7.568   4.687
53837SOL    HW163350  12.089   7.583   4.597
53837SOL    HW263351  12.064   7.495   4.718
53838SOL     OW63352   4.371   2.846  10.862
53838SOL    HW163353   4.443   2.818  10.918
53838SOL    HW263354   4.322   2.908  10.916
53839SOL     OW63355   9.045  10.476   8.040
53839SOL    HW163356   9.071  10.435   8.123
53839SOL    HW263357   9.125  10.477   7.988
53840SOL     OW63358   9.570  12.507   8.681
53840SOL    HW163359   9.551  12.589   8.726
53840SOL    HW263360   9.537  12.439   8.740
53841SOL     OW63361  12.979   9.358   0.544
53841SOL    HW163362  12.993   9.441   0.590
53841SOL    HW263363  13.048   9.301   0.577
53842SOL     OW63364  11.453  10.790   5.832
53842SOL    HW163365  11.421  10.836   5.910
53842SOL    HW263366  11.457  10.858   5.764
53843SOL     OW63367   6.445   4.395   3.940
53843SOL    HW163368   6.460   4.451   3.864
53843SOL    HW263369   6.483   4.444   4.013
53844SOL     OW63370  10.556  12.878  13.026
53844SOL    HW163371  10.598  12.797  12.997
53844SOL    HW263372  10.555  12.934  12.949
53845SOL     OW63373   3.651   2.601  11.962
53845SOL    HW163374   3.610   2.671  12.013
53845SOL    HW263375   3.717   2.645  11.909
53846SOL     OW63376  12.625   8.040  13.041
53846SOL    HW163377  12.719   8.022  13.029
53846SOL    HW263378  12.614   8.129  13.008
53847SOL     OW63379  14.793   3.875   6.036
53847SOL    HW163380  14.778   3.968   6.051
53847SOL    HW263381  14.848   3.847   6.110
53848SOL     OW63382   8.075  13.494   3.216
53848SOL    HW163383   8.111  13.443   3.289
53848SOL    HW263384   8.043  13.429   3.155
53849SOL     OW63385  10.654   3.184  13.885
53849SOL    HW163386  10.689   3.099  13.860
53849SOL    HW263387  10.561   3.169  13.901
53850SOL     OW63388  13.400   9.795   7.422
53850SOL    HW163389  13.397   9.868   7.360
53850SOL    HW263390  13.493   9.775   7.431
53851SOL     OW63391   1.518  12.405   5.462
53851SOL    HW163392   1.527  12.310   5.459
53851SOL    HW263393   1.456  12.425   5.392
53852SOL     OW63394   3.298   4.699  12.810
53852SOL    HW163395   3.276   4.786  12.777
53852SOL    HW263396   3.214   4.654  12.818
53853SOL     OW63397   2.716  10.853  12.271
53853SOL    HW163398   2.689  10.830  12.182
53853SOL    HW263399   2.807  10.827  12.276
53854SOL     OW63400   9.628   3.577  10.441
53854SOL    HW163401   9.620   3.640  10.370
53854SOL    HW263402   9.658   3.497  10.400
53855SOL     OW63403   7.988   4.709   0.534
53855SOL    HW163404   7.962   4.762   0.458
53855SOL    HW263405   8.075   4.677   0.511
53856SOL     OW63406   9.408   6.586   6.045
53856SOL    HW163407   9.327   6.637   6.040
53856SOL    HW263408   9.451   6.616   6.125
53857SOL     OW63409   3.339   9.473   6.297
53857SOL    HW163410   3.286   9.529   6.241
53857SOL    HW263411   3.428   9.485   6.266
53858SOL     OW63412  13.920   0.570   5.374
53858SOL    HW163413  13.851   0.597   5.312
53858SOL    HW263414  13.988   0.636   5.363
53859SOL     OW63415   1.404   7.981   1.437
53859SOL    HW163416   1.398   8.053   1.373
53859SOL    HW263417   1.496   7.979   1.461
53860SOL     OW63418  12.218   5.239   9.659
53860SOL    HW163419  12.205   5.331   9.636
53860SOL    HW263420  12.149   5.220   9.722
53861SOL     OW63421   8.964  11.538   8.507
53861SOL    HW163422   8.952  11.633   8.515
53861SOL    HW263423   8.979  11.524   8.414
53862SOL     OW63424   7.913  11.607   7.644
53862SOL    HW163425   7.897  11.556   7.564
53862SOL    HW263426   7.827  11.612   7.687
53863SOL     OW63427  13.754  14.050   4.901
53863SOL    HW163428  13.757  13.998   4.820
53863SOL    HW263429  13.715  13.991   4.965
53864SOL     OW63430  12.440   0.011   9.866
53864SOL    HW163431  12.506   0.029   9.799
53864SOL    HW263432  12.448  14.790   9.882
53865SOL     OW63433   9.806   8.893   8.025
53865SOL    HW163434   9.724   8.870   7.981
53865SOL    HW263435   9.784   8.892   8.118
53866SOL     OW63436  14.360   2.002  11.196
53866SOL    HW163437  14.409   1.920  11.193
53866SOL    HW263438  14.329   2.009  11.286
53867SOL     OW63439   7.128   5.096   2.218
53867SOL    HW163440   7.096   5.005   2.215
53867SOL    HW263441   7.091   5.132   2.298
53868SOL     OW63442   8.866   0.328   3.247
53868SOL    HW163443   8.808   0.261   3.212
53868SOL    HW263444   8.910   0.285   3.320
53869SOL     OW63445  12.823   1.617  12.875
53869SOL    HW163446  12.822   1.521  12.869
53869SOL    HW263447  12.744   1.638  12.925
53870SOL     OW63448   0.886  11.536   5.029
53870SOL    HW163449   0.944  11.501   5.097
53870SOL    HW263450   0.903  11.482   4.952
53871SOL     OW63451   7.075   8.970   7.242
53871SOL    HW163452   6.992   8.975   7.193
53871SOL    HW263453   7.086   8.877   7.260
53872SOL     OW63454   0.778   9.674   2.910
53872SOL    HW163455   0.703   9.694   2.966
53872SOL    HW263456   0.838   9.626   2.967
53873SOL     OW63457   7.270  11.028   1.207
53873SOL    HW163458   7.328  11.038   1.282
53873SOL    HW263459   7.247  11.117   1.182
53874SOL     OW63460   2.952   6.961   1.450
53874SOL    HW163461   2.973   6.890   1.389
53874SOL    HW263462   2.956   6.920   1.536
53875SOL     OW63463   1.955  14.791   9.176
53875SOL    HW163464   1.876  14.842   9.160
53875SOL    HW263465   1.962  14.732   9.101
53876SOL     OW63466   3.631  11.570  11.809
53876SOL    HW163467   3.716  11.608  11.783
53876SOL    HW263468   3.655  11.494  11.862
53877SOL     OW63469  14.221  13.987   0.322
53877SOL    HW163470  14.287  13.937   0.371
53877SOL    HW263471  14.139  13.969   0.368
53878SOL     OW63472   4.027   6.234   6.772
53878SOL    HW163473   3.940   6.242   6.732
53878SOL    HW263474   4.019   6.280   6.855
53879SOL     OW63475   0.334   2.659   7.672
53879SOL    HW163476   0.293   2.666   7.758
53879SOL    HW263477   0.261   2.657   7.610
53880SOL     OW63478  12.628   5.202   3.926
53880SOL    HW163479  12.667   5.142   3.863
53880SOL    HW263480  12.533   5.187   3.919
53881SOL     OW63481   2.585   5.625  13.096
53881SOL    HW163482   2.528   5.666  13.031
53881SOL    HW263483   2.551   5.654  13.180
53882SOL     OW63484   0.387   3.131  12.143
53882SOL    HW163485   0.338   3.099  12.067
53882SOL    HW263486   0.462   3.176  12.105
53883SOL     OW63487  11.695  10.130  13.856
53883SOL    HW163488  11.640  10.170  13.788
53883SOL    HW263489  11.676  10.182  13.935
53884SOL     OW63490   6.556  11.017   6.849
53884SOL    HW163491   6.493  11.088   6.861
53884SOL    HW263492   6.529  10.974   6.768
53885SOL     OW63493  14.404   0.875   9.394
53885SOL    HW163494  14.322   0.910   9.358
53885SOL    HW263495  14.377   0.809   9.457
53886SOL     OW63496  11.021   3.975  14.288
53886SOL    HW163497  10.948   4.000  14.232
53886SOL    HW263498  11.018   3.879  14.290
53887SOL     OW63499   6.305  10.381  13.387
53887SOL    HW163500   6.331  10.375  13.479
53887SOL    HW263501   6.370  10.438  13.347
53888SOL     OW63502  14.326   7.869  14.578
53888SOL    HW163503  14.359   7.785  14.548
53888SOL    HW263504  14.235   7.871  14.550
53889SOL     OW63505   0.286  14.407   9.480
53889SOL    HW163506   0.327  14.399   9.567
53889SOL    HW263507   0.304  14.323   9.438
53890SOL     OW63508   3.459  13.292   7.869
53890SOL    HW163509   3.425  13.364   7.816
53890SOL    HW263510   3.547  13.321   7.894
53891SOL     OW63511  13.261   7.953  13.865
53891SOL    HW163512  13.273   8.047  13.881
53891SOL    HW263513  13.171   7.936  13.890
53892SOL     OW63514  14.701  10.552  10.151
53892SOL    HW163515  14.689  10.517  10.062
53892SOL    HW263516  14.617  10.594  10.171
53893SOL     OW63517   9.163   8.303   3.920
53893SOL    HW163518   9.157   8.322   4.014
53893SOL    HW263519   9.085   8.344   3.883
53894SOL     OW63520  13.038   6.891   3.111
53894SOL    HW163521  13.064   6.880   3.202
53894SOL    HW263522  12.952   6.849   3.106
53895SOL     OW63523  12.839  14.224   6.451
53895SOL    HW163524  12.920  14.191   6.490
53895SOL    HW263525  12.829  14.174   6.370
53896SOL     OW63526   5.516   8.237  14.863
53896SOL    HW163527   5.587   8.292  14.830
53896SOL    HW263528   5.532   8.151  14.823
53897SOL     OW63529   7.436   8.937  10.529
53897SOL    HW163530   7.458   9.021  10.568
53897SOL    HW263531   7.364   8.956  10.469
53898SOL     OW63532  12.660   9.386   5.585
53898SOL    HW163533  12.647   9.467   5.535
53898SOL    HW263534  12.658   9.414   5.676
53899SOL     OW63535   9.307   0.575   6.668
53899SOL    HW163536   9.342   0.595   6.755
53899SOL    HW263537   9.379   0.529   6.624
53900SOL     OW63538   5.923   9.214   9.734
53900SOL    HW163539   5.894   9.143   9.791
53900SOL    HW263540   5.898   9.186   9.646
53901SOL     OW63541   7.173   1.028   5.328
53901SOL    HW163542   7.136   1.014   5.415
53901SOL    HW263543   7.100   1.066   5.277
53902SOL     OW63544   2.654   1.511   2.772
53902SOL    HW163545   2.562   1.528   2.789
53902SOL    HW263546   2.687   1.476   2.855
53903SOL     OW63547  12.464   0.830   1.546
53903SOL    HW163548  12.419   0.800   1.467
53903SOL    HW263549  12.411   0.796   1.618
53904SOL     OW63550  12.109  13.892   3.340
53904SOL    HW163551  12.165  13.925   3.410
53904SOL    HW263552  12.167  13.885   3.264
53905SOL     OW63553   5.092   4.686   9.147
53905SOL    HW163554   5.083   4.736   9.228
53905SOL    HW263555   5.119   4.599   9.175
53906SOL     OW63556  12.205   7.398   8.589
53906SOL    HW163557  12.240   7.336   8.525
53906SOL    HW263558  12.265   7.393   8.663
53907SOL     OW63559   8.964   7.881   8.363
53907SOL    HW163560   8.935   7.792   8.383
53907SOL    HW263561   8.891   7.936   8.391
53908SOL     OW63562   3.330   0.867  13.862
53908SOL    HW163563   3.294   0.842  13.777
53908SOL    HW263564   3.401   0.928  13.841
53909SOL     OW63565   9.188  10.372   1.077
53909SOL    HW163566   9.178  10.307   1.007
53909SOL    HW263567   9.193  10.456   1.031
53910SOL     OW63568   3.141   7.575  13.342
53910SOL    HW163569   3.166   7.636  13.273
53910SOL    HW263570   3.219   7.567  13.397
53911SOL     OW63571   2.691   6.362  13.570
53911SOL    HW163572   2.665   6.354  13.479
53911SOL    HW263573   2.772   6.414  13.567
53912SOL     OW63574   2.725  14.639   4.847
53912SOL    HW163575   2.744  14.573   4.780
53912SOL    HW263576   2.801  14.637   4.905
53913SOL     OW63577   3.441  13.010   6.859
53913SOL    HW163578   3.427  12.999   6.953
53913SOL    HW263579   3.474  12.926   6.829
53914SOL     OW63580  11.592   7.987  12.374
53914SOL    HW163581  11.523   8.001  12.309
53914SOL    HW263582  11.598   8.070  12.422
53915SOL     OW63583  10.502  11.393   0.899
53915SOL    HW163584  10.434  11.419   0.961
53915SOL    HW263585  10.549  11.473   0.880
53916SOL     OW63586   8.221   6.820  13.586
53916SOL    HW163587   8.158   6.887  13.559
53916SOL    HW263588   8.208   6.748  13.524
53917SOL     OW63589   7.306   9.973   3.048
53917SOL    HW163590   7.324  10.061   3.013
53917SOL    HW263591   7.366   9.915   3.001
53918SOL     OW63592  14.355   2.155   9.163
53918SOL    HW163593  14.344   2.250   9.161
53918SOL    HW263594  14.298   2.123   9.093
53919SOL     OW63595  13.695   3.409  13.342
53919SOL    HW163596  13.700   3.505  13.350
53919SOL    HW263597  13.610   3.393  13.300
53920SOL     OW63598  14.396   4.225  12.414
53920SOL    HW163599  14.416   4.301  12.359
53920SOL    HW263600  14.472   4.217  12.471
53921SOL     OW63601   3.982   1.082   8.695
53921SOL    HW163602   3.906   1.101   8.749
53921SOL    HW263603   4.032   1.018   8.745
53922SOL     OW63604   6.757  12.158   5.146
53922SOL    HW163605   6.810  12.079   5.155
53922SOL    HW263606   6.764  12.202   5.230
53923SOL     OW63607  10.298   0.251  13.659
53923SOL    HW163608  10.288   0.346  13.665
53923SOL    HW263609  10.393   0.237  13.663
53924SOL     OW63610   8.249  10.199  14.209
53924SOL    HW163611   8.248  10.155  14.124
53924SOL    HW263612   8.325  10.163  14.255
53925SOL     OW63613   4.122   8.939  10.700
53925SOL    HW163614   4.153   9.015  10.750
53925SOL    HW263615   4.029   8.934  10.720
53926SOL     OW63616   9.663  11.400  11.238
53926SOL    HW163617   9.721  11.473  11.259
53926SOL    HW263618   9.693  11.328  11.293
53927SOL     OW63619  11.176  14.244   1.196
53927SOL    HW163620  11.111  14.315   1.199
53927SOL    HW263621  11.155  14.196   1.116
53928SOL     OW63622  12.248  10.850   5.175
53928SOL    HW163623  12.304  10.921   5.143
53928SOL    HW263624  12.272  10.840   5.267
53929SOL     OW63625   2.034   7.503   8.290
53929SOL    HW163626   2.119   7.532   8.322
53929SOL    HW263627   2.054   7.425   8.237
53930SOL     OW63628   1.081  10.889   4.420
53930SOL    HW163629   1.019  10.817   4.403
53930SOL    HW263630   1.164  10.858   4.383
53931SOL     OW63631   7.448   7.820   3.242
53931SOL    HW163632   7.372   7.812   3.299
53931SOL    HW263633   7.415   7.801   3.154
53932SOL     OW63634   3.730   0.434  14.360
53932SOL    HW163635   3.726   0.488  14.282
53932SOL    HW263636   3.645   0.446  14.403
53933SOL     OW63637   7.812   2.176  14.599
53933SOL    HW163638   7.765   2.119  14.659
53933SOL    HW263639   7.745   2.236  14.565
53934SOL     OW63640   5.523  12.277  12.015
53934SOL    HW163641   5.531  12.210  11.947
53934SOL    HW263642   5.611  12.286  12.051
53935SOL     OW63643  11.137   6.484   7.818
53935SOL    HW163644  11.151   6.456   7.728
53935SOL    HW263645  11.070   6.424   7.852
53936SOL     OW63646   7.604   3.769  11.065
53936SOL    HW163647   7.555   3.722  10.998
53936SOL    HW263648   7.590   3.718  11.145
53937SOL     OW63649   2.472  12.147   1.051
53937SOL    HW163650   2.467  12.161   1.146
53937SOL    HW263651   2.540  12.080   1.040
53938SOL     OW63652  14.726  14.494  14.816
53938SOL    HW163653  14.680  14.536   0.015
53938SOL    HW263654  14.783  14.430  14.858
53939SOL     OW63655   9.604  10.927   2.730
53939SOL    HW163656   9.657  11.002   2.705
53939SOL    HW263657   9.616  10.918   2.824
53940SOL     OW63658  10.465   0.295   5.541
53940SOL    HW163659  10.447   0.388   5.555
53940SOL    HW263660  10.465   0.258   5.629
53941SOL     OW63661   2.039  13.252   4.481
53941SOL    HW163662   2.122  13.293   4.504
53941SOL    HW263663   2.032  13.263   4.386
53942SOL     OW63664   3.535   6.577   2.331
53942SOL    HW163665   3.608   6.599   2.389
53942SOL    HW263666   3.577   6.538   2.254
53943SOL     OW63667   2.156   7.145   9.151
53943SOL    HW163668   2.132   7.219   9.207
53943SOL    HW263669   2.240   7.170   9.113
53944SOL     OW63670   2.779   8.169   7.629
53944SOL    HW163671   2.820   8.084   7.614
53944SOL    HW263672   2.851   8.228   7.652
53945SOL     OW63673   4.431  12.600  13.980
53945SOL    HW163674   4.347  12.646  13.972
53945SOL    HW263675   4.458  12.585  13.889
53946SOL     OW63676   0.221  12.840   9.064
53946SOL    HW163677   0.134  12.820   9.098
53946SOL    HW263678   0.275  12.856   9.141
53947SOL     OW63679  12.605   8.285  14.353
53947SOL    HW163680  12.602   8.288  14.258
53947SOL    HW263681  12.673   8.348  14.376
53948SOL     OW63682  11.399   1.501   7.015
53948SOL    HW163683  11.423   1.576   7.069
53948SOL    HW263684  11.326   1.460   7.060
53949SOL     OW63685   8.366   5.981  10.897
53949SOL    HW163686   8.423   5.933  10.838
53949SOL    HW263687   8.378   5.940  10.982
53950SOL     OW63688   6.815   7.112   5.737
53950SOL    HW163689   6.750   7.042   5.744
53950SOL    HW263690   6.773   7.188   5.778
53951SOL     OW63691   2.308  14.771  10.218
53951SOL    HW163692   2.392  14.777  10.263
53951SOL    HW263693   2.285  14.678  10.219
53952SOL     OW63694   2.303  10.626   5.075
53952SOL    HW163695   2.359  10.650   5.149
53952SOL    HW263696   2.217  10.661   5.100
53953SOL     OW63697   9.806   9.627  10.249
53953SOL    HW163698   9.880   9.653  10.303
53953SOL    HW263699   9.772   9.548  10.291
53954SOL     OW63700   9.288   0.652   8.443
53954SOL    HW163701   9.298   0.745   8.465
53954SOL    HW263702   9.209   0.649   8.388
53955SOL     OW63703   1.748   7.095   7.288
53955SOL    HW163704   1.683   7.025   7.289
53955SOL    HW263705   1.699   7.172   7.259
53956SOL     OW63706   0.424  12.094   3.461
53956SOL    HW163707   0.459  12.126   3.544
53956SOL    HW263708   0.329  12.103   3.470
53957SOL     OW63709   3.512   5.731   4.885
53957SOL    HW163710   3.489   5.743   4.792
53957SOL    HW263711   3.465   5.802   4.930
53958SOL     OW63712  13.158   5.713   0.971
53958SOL    HW163713  13.138   5.806   0.969
53958SOL    HW263714  13.072   5.670   0.969
53959SOL     OW63715   4.907  10.263   1.323
53959SOL    HW163716   4.841  10.219   1.377
53959SOL    HW263717   4.990  10.232   1.359
53960SOL     OW63718  14.469   7.282   9.885
53960SOL    HW163719  14.425   7.294   9.969
53960SOL    HW263720  14.556   7.320   9.898
53961SOL     OW63721   9.752   2.242  14.293
53961SOL    HW163722   9.674   2.266  14.343
53961SOL    HW263723   9.756   2.307  14.222
53962SOL     OW63724   2.897  12.175   2.675
53962SOL    HW163725   2.879  12.082   2.656
53962SOL    HW263726   2.851  12.192   2.757
53963SOL     OW63727   3.544  12.823  14.649
53963SOL    HW163728   3.467  12.777  14.616
53963SOL    HW263729   3.578  12.872  14.574
53964SOL     OW63730   4.172  14.342   1.153
53964SOL    HW163731   4.139  14.430   1.131
53964SOL    HW263732   4.267  14.350   1.148
53965SOL     OW63733   6.221   0.813  10.339
53965SOL    HW163734   6.176   0.757  10.402
53965SOL    HW263735   6.159   0.821  10.266
53966SOL     OW63736   9.719  13.037   9.595
53966SOL    HW163737   9.660  13.068   9.527
53966SOL    HW263738   9.806  13.063   9.564
53967SOL     OW63739   7.090   5.921   1.605
53967SOL    HW163740   7.060   5.830   1.607
53967SOL    HW263741   7.064   5.955   1.691
53968SOL     OW63742   1.865  14.848  14.245
53968SOL    HW163743   1.884  14.764  14.286
53968SOL    HW263744   1.876   0.039  14.315
53969SOL     OW63745   7.230   3.909  11.779
53969SOL    HW163746   7.253   3.961  11.857
53969SOL    HW263747   7.241   3.818  11.807
53970SOL     OW63748   9.591  10.894   0.687
53970SOL    HW163749   9.543  10.816   0.657
53970SOL    HW263750   9.570  10.961   0.621
53971SOL     OW63751   3.756   4.445   6.657
53971SOL    HW163752   3.803   4.447   6.740
53971SOL    HW263753   3.780   4.362   6.617
53972SOL     OW63754   1.621  14.309   8.985
53972SOL    HW163755   1.560  14.340   8.918
53972SOL    HW263756   1.627  14.215   8.970
53973SOL     OW63757   2.842   7.149   5.978
53973SOL    HW163758   2.926   7.108   5.999
53973SOL    HW263759   2.784   7.123   6.049
53974SOL     OW63760   6.237   2.011   7.556
53974SOL    HW163761   6.274   2.061   7.483
53974SOL    HW263762   6.183   2.074   7.603
53975SOL     OW63763   7.774   2.055  11.663
53975SOL    HW163764   7.807   2.145  11.654
53975SOL    HW263765   7.814   2.023  11.743
53976SOL     OW63766   7.814   4.955  11.154
53976SOL    HW163767   7.872   4.881  11.170
53976SOL    HW263768   7.867   5.017  11.103
53977SOL     OW63769  13.240  12.714   9.638
53977SOL    HW163770  13.168  12.772   9.665
53977SOL    HW263771  13.313  12.738   9.695
53978SOL     OW63772   5.114   4.963   5.032
53978SOL    HW163773   5.165   4.882   5.033
53978SOL    HW263774   5.101   4.983   4.939
53979SOL     OW63775  10.816   7.791  13.878
53979SOL    HW163776  10.757   7.863  13.860
53979SOL    HW263777  10.904   7.827  13.861
53980SOL     OW63778   0.560   6.305   8.545
53980SOL    HW163779   0.493   6.272   8.485
53980SOL    HW263780   0.633   6.244   8.535
53981SOL     OW63781   1.807  12.183   9.353
53981SOL    HW163782   1.756  12.261   9.332
53981SOL    HW263783   1.873  12.178   9.284
53982SOL     OW63784   8.635   1.832   4.207
53982SOL    HW163785   8.597   1.920   4.211
53982SOL    HW263786   8.564   1.774   4.234
53983SOL     OW63787   0.088   5.081  12.070
53983SOL    HW163788   0.179   5.094  12.042
53983SOL    HW263789   0.052   5.019  12.007
53984SOL     OW63790   1.322   0.534   8.137
53984SOL    HW163791   1.294   0.579   8.217
53984SOL    HW263792   1.293   0.443   8.149
53985SOL     OW63793   9.973   5.852   2.237
53985SOL    HW163794   9.965   5.759   2.220
53985SOL    HW263795   9.930   5.865   2.322
53986SOL     OW63796   8.769  12.460   7.184
53986SOL    HW163797   8.689  12.408   7.189
53986SOL    HW263798   8.836  12.405   7.224
53987SOL     OW63799   6.260   5.006  13.863
53987SOL    HW163800   6.228   5.096  13.871
53987SOL    HW263801   6.225   4.976  13.778
53988SOL     OW63802   4.613   3.065   7.209
53988SOL    HW163803   4.635   3.158   7.220
53988SOL    HW263804   4.596   3.033   7.298
53989SOL     OW63805   6.249   0.377  11.407
53989SOL    HW163806   6.212   0.375  11.496
53989SOL    HW263807   6.304   0.454  11.405
53990SOL     OW63808   2.728   2.057   1.858
53990SOL    HW163809   2.820   2.033   1.857
53990SOL    HW263810   2.696   2.032   1.771
53991SOL     OW63811   0.409   7.989   6.831
53991SOL    HW163812   0.380   7.903   6.802
53991SOL    HW263813   0.342   8.050   6.799
53992SOL     OW63814   6.617   1.575  11.320
53992SOL    HW163815   6.664   1.540  11.245
53992SOL    HW263816   6.644   1.666  11.325
53993SOL     OW63817   2.470   1.695   3.187
53993SOL    HW163818   2.388   1.742   3.174
53993SOL    HW263819   2.444   1.603   3.192
53994SOL     OW63820   4.901  13.137   3.678
53994SOL    HW163821   4.977  13.182   3.716
53994SOL    HW263822   4.827  13.168   3.729
53995SOL     OW63823   3.201   1.384   2.144
53995SOL    HW163824   3.277   1.356   2.195
53995SOL    HW263825   3.217   1.347   2.057
53996SOL     OW63826   5.504   5.480   1.346
53996SOL    HW163827   5.506   5.508   1.438
53996SOL    HW263828   5.461   5.551   1.300
53997SOL     OW63829  14.501  10.831   5.790
53997SOL    HW163830  14.557  10.832   5.712
53997SOL    HW263831  14.432  10.894   5.771
53998SOL     OW63832   7.326  13.986   7.243
53998SOL    HW163833   7.247  13.934   7.257
53998SOL    HW263834   7.300  14.076   7.262
53999SOL     OW63835  14.319  12.842   7.571
53999SOL    HW163836  14.241  12.891   7.543
53999SOL    HW263837  14.289  12.751   7.579
54000SOL     OW63838   1.404   6.351   1.124
54000SOL    HW163839   1.386   6.275   1.179
54000SOL    HW263840   1.395   6.319   1.034
54001SOL     OW63841   7.382  14.039   5.859
54001SOL    HW163842   7.350  14.129   5.860
54001SOL    HW263843   7.461  14.041   5.806
54002SOL     OW63844   6.363   7.224   2.029
54002SOL    HW163845   6.288   7.190   2.077
54002SOL    HW263846   6.429   7.155   2.035
54003SOL     OW63847   7.277  10.261   0.130
54003SOL    HW163848   7.250  10.248   0.039
54003SOL    HW263849   7.350  10.322   0.125
54004SOL     OW63850   5.527   9.277   4.533
54004SOL    HW163851   5.578   9.203   4.499
54004SOL    HW263852   5.520   9.260   4.627
54005SOL     OW63853   1.177   7.173   8.257
54005SOL    HW163854   1.186   7.099   8.197
54005SOL    HW263855   1.128   7.238   8.207
54006SOL     OW63856   6.842   5.721  10.380
54006SOL    HW163857   6.928   5.750  10.411
54006SOL    HW263858   6.806   5.797  10.335
54007SOL     OW63859  11.143  10.015   1.172
54007SOL    HW163860  11.104  10.086   1.121
54007SOL    HW263861  11.223   9.992   1.123
54008SOL     OW63862   6.641  14.639   8.802
54008SOL    HW163863   6.619  14.728   8.775
54008SOL    HW263864   6.557  14.596   8.818
54009SOL     OW63865   2.479   5.926   2.055
54009SOL    HW163866   2.392   5.903   2.022
54009SOL    HW263867   2.465   5.947   2.147
54010SOL     OW63868   2.824   0.887  13.561
54010SOL    HW163869   2.871   0.918  13.638
54010SOL    HW263870   2.893   0.873  13.496
54011SOL     OW63871   6.729   7.307   8.672
54011SOL    HW163872   6.767   7.380   8.720
54011SOL    HW263873   6.799   7.241   8.670
54012SOL     OW63874   1.817   7.479  10.539
54012SOL    HW163875   1.887   7.542  10.524
54012SOL    HW263876   1.830   7.412  10.471
54013SOL     OW63877   2.331   0.301   6.401
54013SOL    HW163878   2.290   0.300   6.315
54013SOL    HW263879   2.424   0.288   6.383
54014SOL     OW63880   8.372   6.853  10.691
54014SOL    HW163881   8.331   6.778  10.735
54014SOL    HW263882   8.298   6.911  10.670
54015SOL     OW63883   0.864  14.066   2.138
54015SOL    HW163884   0.951  14.039   2.109
54015SOL    HW263885   0.812  13.985   2.137
54016SOL     OW63886   3.964   1.884   6.989
54016SOL    HW163887   3.951   1.871   6.895
54016SOL    HW263888   4.047   1.930   6.996
54017SOL     OW63889  14.775  11.651   1.466
54017SOL    HW163890  14.839  11.631   1.396
54017SOL    HW263891  14.785  11.745   1.481
54018SOL     OW63892   0.840  12.566  11.933
54018SOL    HW163893   0.879  12.574  12.021
54018SOL    HW263894   0.822  12.656  11.907
54019SOL     OW63895   3.135  13.686   1.952
54019SOL    HW163896   3.077  13.745   2.000
54019SOL    HW263897   3.216  13.684   2.004
54020SOL     OW63898  13.350  13.039  13.229
54020SOL    HW163899  13.427  13.084  13.265
54020SOL    HW263900  13.308  13.000  13.306
54021SOL     OW63901   2.050  13.439   5.158
54021SOL    HW163902   2.000  13.366   5.123
54021SOL    HW263903   1.991  13.482   5.220
54022SOL     OW63904   6.538   2.628   4.478
54022SOL    HW163905   6.580   2.585   4.552
54022SOL    HW263906   6.449   2.646   4.507
54023SOL     OW63907   7.445  11.049   3.435
54023SOL    HW163908   7.423  11.112   3.366
54023SOL    HW263909   7.463  11.103   3.512
54024SOL     OW63910   8.887   5.702   9.786
54024SOL    HW163911   8.797   5.674   9.802
54024SOL    HW263912   8.923   5.718   9.874
54025SOL     OW63913  12.010   9.404   8.209
54025SOL    HW163914  11.935   9.462   8.218
54025SOL    HW263915  12.078   9.458   8.167
54026SOL     OW63916   8.497   6.367   7.242
54026SOL    HW163917   8.554   6.364   7.165
54026SOL    HW263918   8.555   6.346   7.315
54027SOL     OW63919   3.339   4.881   9.747
54027SOL    HW163920   3.274   4.828   9.792
54027SOL    HW263921   3.393   4.818   9.699
54028SOL     OW63922   7.857   3.699  12.297
54028SOL    HW163923   7.789   3.643  12.333
54028SOL    HW263924   7.906   3.642  12.238
54029SOL     OW63925   9.176   5.778   3.102
54029SOL    HW163926   9.193   5.711   3.169
54029SOL    HW263927   9.215   5.742   3.022
54030SOL     OW63928   1.573  14.808   3.808
54030SOL    HW163929   1.621  14.761   3.876
54030SOL    HW263930   1.640  14.831   3.743
54031SOL     OW63931   0.910   6.816  11.962
54031SOL    HW163932   0.975   6.876  11.924
54031SOL    HW263933   0.935   6.810  12.055
54032SOL     OW63934   9.835   1.508  13.311
54032SOL    HW163935   9.873   1.441  13.254
54032SOL    HW263936   9.761   1.465  13.353
54033SOL     OW63937   2.970   3.955   2.570
54033SOL    HW163938   2.937   4.026   2.626
54033SOL    HW263939   2.934   3.974   2.483
54034SOL     OW63940  10.163   8.170   2.566
54034SOL    HW163941  10.120   8.125   2.493
54034SOL    HW263942  10.099   8.169   2.636
54035SOL     OW63943   3.763   5.835   0.166
54035SOL    HW163944   3.836   5.777   0.144
54035SOL    HW263945   3.777   5.859   0.257
54036SOL     OW63946   9.539   7.912  12.798
54036SOL    HW163947   9.575   7.909  12.709
54036SOL    HW263948   9.506   7.824  12.813
54037SOL     OW63949   8.560  10.120  13.610
54037SOL    HW163950   8.637  10.173  13.633
54037SOL    HW263951   8.500  10.181  13.568
54038SOL     OW63952   1.404   6.104   9.826
54038SOL    HW163953   1.497   6.094   9.807
54038SOL    HW263954   1.385   6.196   9.807
54039SOL     OW63955   7.620  10.124  14.753
54039SOL    HW163956   7.683  10.181  14.710
54039SOL    HW263957   7.643  10.036  14.723
54040SOL     OW63958  14.344   8.739   1.860
54040SOL    HW163959  14.434   8.769   1.848
54040SOL    HW263960  14.313   8.717   1.772
54041SOL     OW63961   0.817   4.943   2.170
54041SOL    HW163962   0.832   4.848   2.175
54041SOL    HW263963   0.798   4.970   2.259
54042SOL     OW63964   3.563   9.807   2.571
54042SOL    HW163965   3.600   9.886   2.610
54042SOL    HW263966   3.631   9.777   2.511
54043SOL     OW63967   1.563  12.940   7.518
54043SOL    HW163968   1.602  13.015   7.473
54043SOL    HW263969   1.591  12.949   7.609
54044SOL     OW63970   1.368   3.772   1.061
54044SOL    HW163971   1.333   3.827   1.131
54044SOL    HW263972   1.460   3.798   1.054
54045SOL     OW63973   8.444   4.234   8.368
54045SOL    HW163974   8.539   4.236   8.355
54045SOL    HW263975   8.415   4.322   8.347
54046SOL     OW63976   7.558   4.916  10.515
54046SOL    HW163977   7.556   4.824  10.542
54046SOL    HW263978   7.559   4.913  10.420
54047SOL     OW63979   8.779   1.377  11.268
54047SOL    HW163980   8.806   1.435  11.339
54047SOL    HW263981   8.834   1.403  11.194
54048SOL     OW63982  12.317  13.216   3.921
54048SOL    HW163983  12.241  13.265   3.889
54048SOL    HW263984  12.389  13.279   3.918
54049SOL     OW63985   0.468  14.697   2.278
54049SOL    HW163986   0.471  14.749   2.358
54049SOL    HW263987   0.464  14.761   2.207
54050SOL     OW63988   0.415   5.743   1.866
54050SOL    HW163989   0.482   5.755   1.799
54050SOL    HW263990   0.339   5.791   1.832
54051SOL     OW63991   5.086   5.190  14.514
54051SOL    HW163992   5.015   5.126  14.509
54051SOL    HW263993   5.154   5.147  14.566
54052SOL     OW63994   7.035   4.895   9.163
54052SOL    HW163995   7.084   4.835   9.106
54052SOL    HW263996   6.952   4.852   9.178
54053SOL     OW63997   6.743   5.135   2.635
54053SOL    HW163998   6.790   5.211   2.669
54053SOL    HW263999   6.669   5.171   2.587
54054SOL     OW64000   6.396   2.258  10.911
54054SOL    HW164001   6.312   2.304  10.911
54054SOL    HW264002   6.453   2.313  10.858
54055SOL     OW64003   7.558  11.657   4.824
54055SOL    HW164004   7.516  11.743   4.833
54055SOL    HW264005   7.495  11.605   4.774
54056SOL     OW64006   2.482  13.617  13.202
54056SOL    HW164007   2.578  13.617  13.202
54056SOL    HW264008   2.458  13.674  13.275
54057SOL     OW64009   4.241   5.171   2.762
54057SOL    HW164010   4.310   5.185   2.827
54057SOL    HW264011   4.165   5.217   2.797
54058SOL     OW64012   2.292   9.962   0.816
54058SOL    HW164013   2.259  10.050   0.833
54058SOL    HW264014   2.331   9.967   0.728
54059SOL     OW64015   1.820  14.344   2.602
54059SOL    HW164016   1.897  14.345   2.659
54059SOL    HW264017   1.759  14.405   2.644
54060SOL     OW64018  14.822   9.701   1.819
54060SOL    HW164019   0.021   9.721   1.877
54060SOL    HW264020  14.744   9.706   1.874
54061SOL     OW64021  12.722   3.356   2.945
54061SOL    HW164022  12.767   3.283   2.903
54061SOL    HW264023  12.792   3.411   2.981
54062SOL     OW64024   8.580   7.507   7.281
54062SOL    HW164025   8.576   7.592   7.326
54062SOL    HW264026   8.561   7.443   7.349
54063SOL     OW64027   2.209   1.749   2.536
54063SOL    HW164028   2.208   1.656   2.514
54063SOL    HW264029   2.118   1.777   2.527
54064SOL     OW64030   1.054   5.574   9.618
54064SOL    HW164031   1.035   5.485   9.586
54064SOL    HW264032   1.113   5.561   9.691
54065SOL     OW64033  12.656   3.251   0.695
54065SOL    HW164034  12.570   3.215   0.718
54065SOL    HW264035  12.650   3.343   0.722
54066SOL     OW64036   1.998   2.713   4.487
54066SOL    HW164037   1.910   2.750   4.484
54066SOL    HW264038   2.055   2.789   4.499
54067SOL     OW64039   3.152   3.768   1.451
54067SOL    HW164040   3.166   3.687   1.402
54067SOL    HW264041   3.157   3.743   1.543
54068SOL     OW64042   9.590   9.952  10.592
54068SOL    HW164043   9.512  10.004  10.576
54068SOL    HW264044   9.621   9.926  10.505
54069SOL     OW64045   2.980  11.990  14.576
54069SOL    HW164046   2.949  12.035  14.497
54069SOL    HW264047   3.063  12.034  14.598
54070SOL     OW64048   8.492   8.257  13.358
54070SOL    HW164049   8.414   8.205  13.377
54070SOL    HW264050   8.560   8.219  13.413
54071SOL     OW64051   2.723   3.932   7.938
54071SOL    HW164052   2.717   3.861   7.873
54071SOL    HW264053   2.813   3.928   7.969
54072SOL     OW64054   3.547   4.044   8.986
54072SOL    HW164055   3.635   4.026   9.019
54072SOL    HW264056   3.547   4.010   8.897
54073SOL     OW64057   1.814  10.035  13.799
54073SOL    HW164058   1.787   9.951  13.834
54073SOL    HW264059   1.774  10.040  13.712
54074SOL     OW64060  13.328  11.040   4.084
54074SOL    HW164061  13.422  11.029   4.099
54074SOL    HW264062  13.323  11.082   3.998
54075SOL     OW64063  10.426  11.962   1.589
54075SOL    HW164064  10.437  11.883   1.536
54075SOL    HW264065  10.511  11.976   1.629
54076SOL     OW64066   1.508   4.452   8.414
54076SOL    HW164067   1.520   4.431   8.507
54076SOL    HW264068   1.435   4.396   8.386
54077SOL     OW64069   2.989  11.858  11.359
54077SOL    HW164070   3.083  11.857  11.341
54077SOL    HW264071   2.981  11.906  11.441
54078SOL     OW64072   6.142  13.146  14.305
54078SOL    HW164073   6.093  13.092  14.244
54078SOL    HW264074   6.076  13.199  14.350
54079SOL     OW64075   5.803   5.322  13.299
54079SOL    HW164076   5.723   5.276  13.272
54079SOL    HW264077   5.797   5.325  13.394
54080SOL     OW64078  14.692   1.052  14.695
54080SOL    HW164079  14.694   1.140  14.657
54080SOL    HW264080  14.605   1.018  14.672
54081SOL     OW64081  13.143   3.647  11.548
54081SOL    HW164082  13.204   3.678  11.480
54081SOL    HW264083  13.101   3.727  11.580
54082SOL     OW64084   0.761   1.798   4.566
54082SOL    HW164085   0.832   1.736   4.583
54082SOL    HW264086   0.708   1.758   4.498
54083SOL     OW64087   9.255   4.849   1.764
54083SOL    HW164088   9.194   4.894   1.705
54083SOL    HW264089   9.202   4.780   1.804
54084SOL     OW64090   6.739   1.061   4.897
54084SOL    HW164091   6.818   1.011   4.876
54084SOL    HW264092   6.670   0.994   4.904
54085SOL     OW64093   4.015  12.048   5.533
54085SOL    HW164094   3.922  12.032   5.524
54085SOL    HW264095   4.023  12.143   5.543
54086SOL     OW64096   9.646   5.945  14.072
54086SOL    HW164097   9.697   5.866  14.055
54086SOL    HW264098   9.610   5.932  14.159
54087SOL     OW64099   2.009   8.804   9.841
54087SOL    HW164100   2.001   8.714   9.812
54087SOL    HW264101   1.934   8.849   9.802
54088SOL     OW64102  12.279   0.766  13.204
54088SOL    HW164103  12.358   0.714  13.215
54088SOL    HW264104  12.234   0.759  13.289
54089SOL     OW64105   2.425   7.747   0.474
54089SOL    HW164106   2.413   7.723   0.566
54089SOL    HW264107   2.385   7.833   0.465
54090SOL     OW64108   6.267  10.325   0.707
54090SOL    HW164109   6.191  10.306   0.761
54090SOL    HW264110   6.249  10.411   0.670
54091SOL     OW64111   7.710   8.307   9.638
54091SOL    HW164112   7.652   8.237   9.669
54091SOL    HW264113   7.660   8.350   9.569
54092SOL     OW64114  10.990  14.102   2.883
54092SOL    HW164115  10.952  14.115   2.796
54092SOL    HW264116  10.958  14.015   2.910
54093SOL     OW64117   1.777   5.873  13.564
54093SOL    HW164118   1.818   5.860  13.649
54093SOL    HW264119   1.693   5.828  13.570
54094SOL     OW64120  12.404   3.292   5.343
54094SOL    HW164121  12.392   3.349   5.419
54094SOL    HW264122  12.378   3.205   5.373
54095SOL     OW64123   6.307   7.133   2.649
54095SOL    HW164124   6.317   7.229   2.652
54095SOL    HW264125   6.304   7.107   2.741
54096SOL     OW64126   0.771   2.563  13.849
54096SOL    HW164127   0.763   2.563  13.945
54096SOL    HW264128   0.749   2.474  13.823
54097SOL     OW64129   2.876   9.457  13.124
54097SOL    HW164130   2.905   9.449  13.033
54097SOL    HW264131   2.794   9.409  13.128
54098SOL     OW64132   6.095  14.825   3.311
54098SOL    HW164133   6.065  14.833   3.401
54098SOL    HW264134   6.191  14.829   3.317
54099SOL     OW64135   2.877  13.823   1.946
54099SOL    HW164136   2.925  13.811   2.028
54099SOL    HW264137   2.792  13.784   1.962
54100SOL     OW64138   2.562  12.741   0.036
54100SOL    HW164139   2.536  12.698  14.828
54100SOL    HW264140   2.639  12.793   0.012
54101SOL     OW64141   7.690   2.393  10.901
54101SOL    HW164142   7.752   2.365  10.969
54101SOL    HW264143   7.744   2.440  10.838
54102SOL     OW64144  14.161   7.505   8.254
54102SOL    HW164145  14.114   7.577   8.297
54102SOL    HW264146  14.114   7.491   8.172
54103SOL     OW64147   3.897  12.083  14.026
54103SOL    HW164148   3.860  11.998  14.049
54103SOL    HW264149   3.916  12.124  14.111
54104SOL     OW64150   6.205   2.911  12.217
54104SOL    HW164151   6.264   2.984  12.232
54104SOL    HW264152   6.196   2.869  12.303
54105SOL     OW64153  13.044   6.751   9.974
54105SOL    HW164154  13.137   6.762   9.991
54105SOL    HW264155  13.023   6.816   9.907
54106SOL     OW64156  14.645   5.821   4.961
54106SOL    HW164157  14.666   5.737   5.001
54106SOL    HW264158  14.550   5.827   4.966
54107SOL     OW64159  10.224   2.857   0.515
54107SOL    HW164160  10.238   2.915   0.590
54107SOL    HW264161  10.159   2.794   0.544
54108SOL     OW64162   6.789  14.807  10.275
54108SOL    HW164163   6.804  14.849  10.360
54108SOL    HW264164   6.749   0.001  10.221
54109SOL     OW64165  13.610  13.912   8.108
54109SOL    HW164166  13.705  13.919   8.097
54109SOL    HW264167  13.579  13.874   8.026
54110SOL     OW64168   7.064   2.029   2.065
54110SOL    HW164169   7.098   2.084   2.135
54110SOL    HW264170   6.976   2.004   2.094
54111SOL     OW64171   9.752   0.539   5.601
54111SOL    HW164172   9.723   0.541   5.692
54111SOL    HW264173   9.686   0.588   5.553
54112SOL     OW64174  11.060   2.124  10.668
54112SOL    HW164175  10.972   2.160  10.665
54112SOL    HW264176  11.118   2.201  10.658
54113SOL     OW64177   6.594  10.165   5.382
54113SOL    HW164178   6.681  10.202   5.394
54113SOL    HW264179   6.537  10.240   5.365
54114SOL     OW64180   4.542  13.007  11.397
54114SOL    HW164181   4.456  12.993  11.357
54114SOL    HW264182   4.589  13.061  11.333
54115SOL     OW64183  12.058  10.719   0.837
54115SOL    HW164184  12.131  10.714   0.898
54115SOL    HW264185  12.027  10.629   0.829
54116SOL     OW64186   6.989   7.972  11.734
54116SOL    HW164187   6.917   8.001  11.677
54116SOL    HW264188   7.011   8.049  11.786
54117SOL     OW64189   4.997   8.782   5.805
54117SOL    HW164190   4.964   8.704   5.848
54117SOL    HW264191   4.932   8.850   5.825
54118SOL     OW64192  13.849   5.961   1.275
54118SOL    HW164193  13.893   6.029   1.326
54118SOL    HW264194  13.810   6.007   1.201
54119SOL     OW64195   4.987   6.788   3.190
54119SOL    HW164196   4.979   6.853   3.120
54119SOL    HW264197   5.082   6.779   3.203
54120SOL     OW64198   6.385   3.052   3.990
54120SOL    HW164199   6.369   3.027   3.899
54120SOL    HW264200   6.381   3.148   3.989
54121SOL     OW64201   6.951  10.563   6.564
54121SOL    HW164202   6.911  10.565   6.651
54121SOL    HW264203   6.930  10.649   6.526
54122SOL     OW64204  12.001   6.718  12.006
54122SOL    HW164205  11.925   6.766  12.040
54122SOL    HW264206  12.023   6.657  12.076
54123SOL     OW64207  12.237   0.178   1.017
54123SOL    HW164208  12.303   0.121   1.056
54123SOL    HW264209  12.284   0.229   0.951
54124SOL     OW64210   6.321   7.291   4.609
54124SOL    HW164211   6.398   7.264   4.559
54124SOL    HW264212   6.254   7.307   4.543
54125SOL     OW64213  14.343   0.560   5.909
54125SOL    HW164214  14.271   0.511   5.949
54125SOL    HW264215  14.421   0.511   5.935
54126SOL     OW64216  11.359   2.306  11.900
54126SOL    HW164217  11.282   2.352  11.935
54126SOL    HW264218  11.433   2.360  11.928
54127SOL     OW64219   0.398   1.599  13.234
54127SOL    HW164220   0.384   1.606  13.328
54127SOL    HW264221   0.487   1.566  13.225
54128SOL     OW64222   5.340   0.465   3.998
54128SOL    HW164223   5.332   0.514   3.917
54128SOL    HW264224   5.368   0.377   3.970
54129SOL     OW64225   9.389   5.736   1.294
54129SOL    HW164226   9.411   5.814   1.345
54129SOL    HW264227   9.456   5.672   1.317
54130SOL     OW64228   5.779   5.943   9.541
54130SOL    HW164229   5.796   5.975   9.452
54130SOL    HW264230   5.854   5.887   9.561
54131SOL     OW64231   5.672   9.529  14.539
54131SOL    HW164232   5.741   9.570  14.487
54131SOL    HW264233   5.634   9.462  14.481
54132SOL     OW64234   9.134   9.808   4.781
54132SOL    HW164235   9.219   9.847   4.802
54132SOL    HW264236   9.135   9.723   4.824
54133SOL     OW64237   7.844   6.477  12.141
54133SOL    HW164238   7.798   6.484  12.057
54133SOL    HW264239   7.903   6.402  12.129
54134SOL     OW64240   0.106   4.829   0.913
54134SOL    HW164241   0.058   4.859   0.990
54134SOL    HW264242   0.054   4.858   0.839
54135SOL     OW64243   9.328   4.571   4.474
54135SOL    HW164244   9.376   4.568   4.392
54135SOL    HW264245   9.351   4.656   4.513
54136SOL     OW64246   4.959   4.698   0.751
54136SOL    HW164247   5.020   4.675   0.681
54136SOL    HW264248   4.881   4.644   0.733
54137SOL     OW64249   7.411   6.956  12.182
54137SOL    HW164250   7.415   6.861  12.169
54137SOL    HW264251   7.440   6.993  12.099
54138SOL     OW64252   5.561  12.428   6.140
54138SOL    HW164253   5.543  12.347   6.092
54138SOL    HW264254   5.635  12.406   6.196
54139SOL     OW64255   4.108   5.603   3.201
54139SOL    HW164256   4.076   5.671   3.259
54139SOL    HW264257   4.195   5.633   3.173
54140SOL     OW64258  14.684   7.922  12.884
54140SOL    HW164259  14.747   7.979  12.840
54140SOL    HW264260  14.671   7.963  12.970
54141SOL     OW64261   3.956  10.914   5.531
54141SOL    HW164262   3.949  10.830   5.487
54141SOL    HW264263   4.036  10.954   5.496
54142SOL     OW64264   1.029   6.359  10.951
54142SOL    HW164265   1.065   6.415  11.020
54142SOL    HW264266   1.106   6.319  10.910
54143SOL     OW64267   6.704   0.602   6.544
54143SOL    HW164268   6.723   0.557   6.461
54143SOL    HW264269   6.617   0.572   6.568
54144SOL     OW64270  10.972  12.561   0.279
54144SOL    HW164271  11.053  12.572   0.228
54144SOL    HW264272  10.936  12.478   0.248
54145SOL     OW64273   9.352   7.061   9.585
54145SOL    HW164274   9.332   7.129   9.649
54145SOL    HW264275   9.285   7.070   9.518
54146SOL     OW64276  14.760  13.818   0.900
54146SOL    HW164277  14.807  13.741   0.868
54146SOL    HW264278  14.803  13.841   0.982
54147SOL     OW64279  14.137   7.295   3.720
54147SOL    HW164280  14.201   7.357   3.685
54147SOL    HW264281  14.168   7.210   3.689
54148SOL     OW64282  12.986   6.643   1.062
54148SOL    HW164283  13.053   6.660   0.996
54148SOL    HW264284  12.922   6.587   1.017
54149SOL     OW64285   6.669   4.383   4.527
54149SOL    HW164286   6.681   4.295   4.492
54149SOL    HW264287   6.597   4.375   4.590
54150SOL     OW64288  12.573   0.430   9.035
54150SOL    HW164289  12.502   0.417   8.972
54150SOL    HW264290  12.648   0.385   8.996
54151SOL     OW64291   7.661   2.102   1.740
54151SOL    HW164292   7.747   2.079   1.705
54151SOL    HW264293   7.660   2.197   1.740
54152SOL     OW64294   6.053   1.063   7.866
54152SOL    HW164295   6.125   1.125   7.872
54152SOL    HW264296   6.029   1.063   7.773
54153SOL     OW64297   1.074   7.857  13.211
54153SOL    HW164298   1.153   7.906  13.235
54153SOL    HW264299   1.108   7.773  13.181
54154SOL     OW64300  11.243   4.714   9.967
54154SOL    HW164301  11.275   4.803   9.951
54154SOL    HW264302  11.278   4.663   9.894
54155SOL     OW64303   5.522   0.717   3.437
54155SOL    HW164304   5.490   0.660   3.367
54155SOL    HW264305   5.450   0.778   3.454
54156SOL     OW64306   4.194  12.715   8.302
54156SOL    HW164307   4.277  12.731   8.257
54156SOL    HW264308   4.135  12.684   8.233
54157SOL     OW64309   9.137   6.616   0.580
54157SOL    HW164310   9.209   6.595   0.639
54157SOL    HW264311   9.116   6.533   0.536
54158SOL     OW64312   1.359  11.543  11.990
54158SOL    HW164313   1.369  11.456  12.028
54158SOL    HW264314   1.264  11.554  11.982
54159SOL     OW64315   8.122   8.435  11.573
54159SOL    HW164316   8.168   8.468  11.651
54159SOL    HW264317   8.149   8.494  11.503
54160SOL     OW64318   2.417   0.597   7.363
54160SOL    HW164319   2.380   0.525   7.414
54160SOL    HW264320   2.399   0.675   7.414
54161SOL     OW64321  13.727   9.323  10.607
54161SOL    HW164322  13.768   9.408  10.592
54161SOL    HW264323  13.793   9.259  10.580
54162SOL     OW64324   4.317  10.986  12.351
54162SOL    HW164325   4.349  11.041  12.280
54162SOL    HW264326   4.250  10.931  12.311
54163SOL     OW64327   5.073  10.398   4.987
54163SOL    HW164328   4.988  10.362   5.012
54163SOL    HW264329   5.094  10.355   4.904
54164SOL     OW64330   2.926   0.410  14.495
54164SOL    HW164331   2.975   0.479  14.450
54164SOL    HW264332   2.931   0.334  14.436
54165SOL     OW64333  10.684  14.359   3.483
54165SOL    HW164334  10.701  14.336   3.574
54165SOL    HW264335  10.682  14.455   3.483
54166SOL     OW64336   0.721   0.500   4.674
54166SOL    HW164337   0.775   0.421   4.681
54166SOL    HW264338   0.764   0.552   4.606
54167SOL     OW64339   0.160   5.422   1.154
54167SOL    HW164340   0.116   5.350   1.198
54167SOL    HW264341   0.090   5.478   1.123
54168SOL     OW64342   3.863  13.742  13.486
54168SOL    HW164343   3.847  13.721  13.394
54168SOL    HW264344   3.909  13.665  13.521
54169SOL     OW64345   0.365  12.253   7.189
54169SOL    HW164346   0.397  12.194   7.257
54169SOL    HW264347   0.318  12.196   7.128
54170SOL     OW64348   9.329   8.247  14.774
54170SOL    HW164349   9.328   8.341  14.758
54170SOL    HW264350   9.422   8.225  14.782
54171SOL     OW64351   4.490  10.338   6.600
54171SOL    HW164352   4.564  10.277   6.606
54171SOL    HW264353   4.431  10.312   6.670
54172SOL     OW64354  13.162  13.336  13.650
54172SOL    HW164355  13.075  13.305  13.673
54172SOL    HW264356  13.203  13.357  13.735
54173SOL     OW64357  12.203   3.905   0.537
54173SOL    HW164358  12.112   3.928   0.558
54173SOL    HW264359  12.220   3.825   0.587
54174SOL     OW64360  14.352  14.181   2.614
54174SOL    HW164361  14.278  14.159   2.669
54174SOL    HW264362  14.347  14.120   2.540
54175SOL     OW64363  12.683   3.812  11.711
54175SOL    HW164364  12.664   3.799  11.618
54175SOL    HW264365  12.725   3.731  11.739
54176SOL     OW64366   2.679  12.677   2.977
54176SOL    HW164367   2.689  12.584   2.957
54176SOL    HW264368   2.595  12.701   2.936
54177SOL     OW64369   0.142   8.447   1.600
54177SOL    HW164370   0.161   8.414   1.512
54177SOL    HW264371   0.111   8.536   1.586
54178SOL     OW64372   1.611  11.951  13.927
54178SOL    HW164373   1.656  11.906  13.998
54178SOL    HW264374   1.534  11.990  13.969
54179SOL     OW64375  13.428   2.320   3.777
54179SOL    HW164376  13.479   2.390   3.817
54179SOL    HW264377  13.391   2.359   3.698
54180SOL     OW64378   2.657   1.620  12.552
54180SOL    HW164379   2.693   1.631  12.640
54180SOL    HW264380   2.701   1.543  12.518
54181SOL     OW64381  10.850   1.890  10.485
54181SOL    HW164382  10.806   1.949  10.547
54181SOL    HW264383  10.812   1.912  10.400
54182SOL     OW64384   2.739   2.023   7.682
54182SOL    HW164385   2.824   2.032   7.725
54182SOL    HW264386   2.760   1.991   7.594
54183SOL     OW64387  14.721   8.014   5.229
54183SOL    HW164388  14.720   8.081   5.297
54183SOL    HW264389  14.629   7.990   5.218
54184SOL     OW64390   1.574   8.892   4.300
54184SOL    HW164391   1.619   8.858   4.223
54184SOL    HW264392   1.509   8.825   4.322
54185SOL     OW64393   9.258   8.865  12.519
54185SOL    HW164394   9.318   8.851  12.592
54185SOL    HW264395   9.203   8.787  12.517
54186SOL     OW64396   3.793   7.204   3.079
54186SOL    HW164397   3.876   7.205   3.127
54186SOL    HW264398   3.728   7.230   3.144
54187SOL     OW64399   1.683   5.998   3.150
54187SOL    HW164400   1.766   5.957   3.126
54187SOL    HW264401   1.638   6.011   3.066
54188SOL     OW64402   3.145   7.392  11.880
54188SOL    HW164403   3.136   7.428  11.792
54188SOL    HW264404   3.076   7.326  11.886
54189SOL     OW64405  11.787   3.737  13.463
54189SOL    HW164406  11.723   3.759  13.530
54189SOL    HW264407  11.769   3.645  13.441
54190SOL     OW64408   7.008   8.179   2.174
54190SOL    HW164409   6.988   8.267   2.142
54190SOL    HW264410   6.923   8.140   2.191
54191SOL     OW64411   2.227   9.987   3.696
54191SOL    HW164412   2.285  10.033   3.756
54191SOL    HW264413   2.282   9.921   3.654
54192SOL     OW64414  14.713   8.829   2.085
54192SOL    HW164415  14.678   8.804   2.000
54192SOL    HW264416  14.788   8.885   2.065
54193SOL     OW64417   6.548   8.423   9.809
54193SOL    HW164418   6.466   8.375   9.798
54193SOL    HW264419   6.561   8.467   9.725
54194SOL     OW64420  10.749  10.208   7.201
54194SOL    HW164421  10.768  10.191   7.293
54194SOL    HW264422  10.658  10.180   7.189
54195SOL     OW64423  12.425  13.090  13.206
54195SOL    HW164424  12.402  13.119  13.117
54195SOL    HW264425  12.399  13.163  13.262
54196SOL     OW64426   1.340   1.091   4.365
54196SOL    HW164427   1.336   0.995   4.364
54196SOL    HW264428   1.427   1.111   4.399
54197SOL     OW64429   0.128   2.423   0.581
54197SOL    HW164430   0.200   2.388   0.529
54197SOL    HW264431   0.110   2.355   0.646
54198SOL     OW64432  13.251   0.712   9.990
54198SOL    HW164433  13.296   0.642   9.944
54198SOL    HW264434  13.246   0.783   9.927
54199SOL     OW64435   3.689   3.650   4.012
54199SOL    HW164436   3.674   3.735   4.053
54199SOL    HW264437   3.638   3.589   4.065
54200SOL     OW64438   2.972   0.188  14.348
54200SOL    HW164439   3.057   0.230  14.331
54200SOL    HW264440   2.980   0.101  14.310
54201SOL     OW64441   0.209   8.759  14.157
54201SOL    HW164442   0.256   8.731  14.235
54201SOL    HW264443   0.241   8.848  14.141
54202SOL     OW64444   8.055   1.989   5.443
54202SOL    HW164445   7.962   2.012   5.441
54202SOL    HW264446   8.097   2.064   5.485
54203SOL     OW64447  11.343   7.205   6.445
54203SOL    HW164448  11.426   7.193   6.399
54203SOL    HW264449  11.362   7.272   6.512
54204SOL     OW64450   2.526   0.913   3.478
54204SOL    HW164451   2.587   0.944   3.411
54204SOL    HW264452   2.451   0.972   3.469
54205SOL     OW64453   6.047  10.182  13.032
54205SOL    HW164454   6.081  10.271  13.022
54205SOL    HW264455   6.121  10.126  13.009
54206SOL     OW64456   6.665   0.879  14.202
54206SOL    HW164457   6.683   0.811  14.137
54206SOL    HW264458   6.643   0.832  14.282
54207SOL     OW64459  10.657  10.120  14.681
54207SOL    HW164460  10.655  10.178  14.757
54207SOL    HW264461  10.748  10.092  14.674
54208SOL     OW64462   3.147   3.569   1.982
54208SOL    HW164463   3.218   3.564   2.046
54208SOL    HW264464   3.165   3.497   1.921
54209SOL     OW64465   1.824   5.140  13.100
54209SOL    HW164466   1.802   5.180  13.184
54209SOL    HW264467   1.840   5.048  13.121
54210SOL     OW64468  14.816   2.389   3.788
54210SOL    HW164469  14.753   2.423   3.726
54210SOL    HW264470  14.765   2.375   3.868
54211SOL     OW64471  12.158  14.804   1.157
54211SOL    HW164472  12.117  14.820   1.242
54211SOL    HW264473  12.249  14.833   1.168
54212SOL     OW64474   1.756   2.104   5.548
54212SOL    HW164475   1.719   2.069   5.466
54212SOL    HW264476   1.683   2.102   5.610
54213SOL     OW64477  11.474   6.510   6.560
54213SOL    HW164478  11.511   6.503   6.648
54213SOL    HW264479  11.391   6.556   6.573
54214SOL     OW64480   4.788   0.918   4.058
54214SOL    HW164481   4.840   0.860   4.003
54214SOL    HW264482   4.853   0.973   4.102
54215SOL     OW64483  14.612   1.532   9.278
54215SOL    HW164484  14.678   1.601   9.270
54215SOL    HW264485  14.650   1.468   9.337
54216SOL     OW64486   2.578  13.870   4.883
54216SOL    HW164487   2.610  13.799   4.939
54216SOL    HW264488   2.560  13.828   4.799
54217SOL     OW64489   8.138  12.187   4.104
54217SOL    HW164490   8.184  12.202   4.021
54217SOL    HW264491   8.061  12.136   4.080
54218SOL     OW64492  14.099   0.118   7.768
54218SOL    HW164493  14.008   0.147   7.762
54218SOL    HW264494  14.136   0.136   7.682
54219SOL     OW64495   4.885   6.891  14.337
54219SOL    HW164496   4.963   6.848  14.370
54219SOL    HW264497   4.884   6.870  14.243
54220SOL     OW64498   5.589   4.426  12.497
54220SOL    HW164499   5.646   4.479  12.552
54220SOL    HW264500   5.502   4.434  12.537
54221SOL     OW64501  12.096  10.793  10.661
54221SOL    HW164502  12.103  10.764  10.751
54221SOL    HW264503  12.182  10.777  10.623
54222SOL     OW64504  13.640   0.192   6.893
54222SOL    HW164505  13.589   0.268   6.865
54222SOL    HW264506  13.701   0.226   6.958
54223SOL     OW64507  10.695   9.886  12.384
54223SOL    HW164508  10.652   9.805  12.356
54223SOL    HW264509  10.704   9.876  12.479
54224SOL     OW64510   9.187  10.925  12.324
54224SOL    HW164511   9.176  10.854  12.388
54224SOL    HW264512   9.176  11.005  12.375
54225SOL     OW64513   8.318   2.886   9.224
54225SOL    HW164514   8.253   2.909   9.158
54225SOL    HW264515   8.400   2.881   9.176
54226SOL     OW64516  10.279   8.160   6.776
54226SOL    HW164517  10.280   8.166   6.680
54226SOL    HW264518  10.302   8.069   6.794
54227SOL     OW64519   4.091   6.604   6.540
54227SOL    HW164520   4.070   6.541   6.471
54227SOL    HW264521   4.141   6.553   6.604
54228SOL     OW64522  13.504   9.718   9.596
54228SOL    HW164523  13.453   9.787   9.639
54228SOL    HW264524  13.571   9.694   9.660
54229SOL     OW64525   3.227   7.701   0.547
54229SOL    HW164526   3.270   7.656   0.474
54229SOL    HW264527   3.258   7.791   0.541
54230SOL     OW64528   1.698  12.302  13.488
54230SOL    HW164529   1.779  12.268  13.524
54230SOL    HW264530   1.629  12.263  13.542
54231SOL     OW64531   4.951   8.103   1.659
54231SOL    HW164532   5.012   8.078   1.590
54231SOL    HW264533   4.873   8.051   1.643
54232SOL     OW64534   4.246   8.074  14.449
54232SOL    HW164535   4.315   8.007  14.444
54232SOL    HW264536   4.244   8.111  14.361
54233SOL     OW64537  13.690   1.103  14.493
54233SOL    HW164538  13.781   1.128  14.509
54233SOL    HW264539  13.639   1.160  14.551
54234SOL     OW64540  12.878  14.368   4.502
54234SOL    HW164541  12.949  14.406   4.555
54234SOL    HW264542  12.855  14.438   4.440
54235SOL     OW64543   4.421  13.193   4.594
54235SOL    HW164544   4.340  13.207   4.644
54235SOL    HW264545   4.446  13.281   4.565
54236SOL     OW64546   6.176   5.993   0.506
54236SOL    HW164547   6.114   6.066   0.506
54236SOL    HW264548   6.123   5.916   0.526
54237SOL     OW64549  13.222   4.052   0.324
54237SOL    HW164550  13.144   4.022   0.278
54237SOL    HW264551  13.202   4.141   0.351
54238SOL     OW64552  14.226  14.293   4.888
54238SOL    HW164553  14.144  14.246   4.875
54238SOL    HW264554  14.221  14.367   4.828
54239SOL     OW64555   8.279   5.767  11.526
54239SOL    HW164556   8.241   5.679  11.522
54239SOL    HW264557   8.292   5.791  11.434
54240SOL     OW64558   6.425   1.082   6.836
54240SOL    HW164559   6.453   0.994   6.810
54240SOL    HW264560   6.424   1.079   6.932
54241SOL     OW64561   6.136   8.676   0.041
54241SOL    HW164562   6.218   8.650   0.000
54241SOL    HW264563   6.132   8.771   0.027
54242SOL     OW64564  10.430   5.271  11.879
54242SOL    HW164565  10.509   5.311  11.844
54242SOL    HW264566  10.381   5.344  11.917
54243SOL     OW64567  10.335   1.501   8.946
54243SOL    HW164568  10.300   1.560   8.880
54243SOL    HW264569  10.321   1.413   8.910
54244SOL     OW64570   0.658  13.649   5.630
54244SOL    HW164571   0.620  13.650   5.718
54244SOL    HW264572   0.615  13.576   5.586
54245SOL     OW64573   0.776  13.204   4.082
54245SOL    HW164574   0.719  13.280   4.077
54245SOL    HW264575   0.835  13.213   4.007
54246SOL     OW64576   6.681   7.133   4.061
54246SOL    HW164577   6.684   7.228   4.069
54246SOL    HW264578   6.720   7.100   4.142
54247SOL     OW64579   6.996   4.720  12.554
54247SOL    HW164580   7.003   4.814  12.568
54247SOL    HW264581   7.041   4.704  12.471
54248SOL     OW64582   1.311   3.918   3.443
54248SOL    HW164583   1.318   3.886   3.353
54248SOL    HW264584   1.253   3.855   3.486
54249SOL     OW64585  10.819   9.832   7.835
54249SOL    HW164586  10.725   9.814   7.829
54249SOL    HW264587  10.859   9.765   7.779
54250SOL     OW64588   4.287   8.814  10.523
54250SOL    HW164589   4.255   8.861  10.446
54250SOL    HW264590   4.229   8.842  10.594
54251SOL     OW64591   7.874   3.950   5.072
54251SOL    HW164592   7.834   4.011   5.133
54251SOL    HW264593   7.966   3.946   5.098
54252SOL     OW64594   1.431   7.656   7.059
54252SOL    HW164595   1.377   7.730   7.088
54252SOL    HW264596   1.405   7.642   6.968
54253SOL     OW64597   4.735   5.739   8.502
54253SOL    HW164598   4.736   5.833   8.522
54253SOL    HW264599   4.729   5.696   8.587
54254SOL     OW64600  12.284   3.045   1.571
54254SOL    HW164601  12.201   2.997   1.565
54254SOL    HW264602  12.346   2.991   1.523
54255SOL     OW64603   6.524   8.181   8.257
54255SOL    HW164604   6.603   8.195   8.204
54255SOL    HW264605   6.558   8.151   8.342
54256SOL     OW64606   0.106   4.903  10.930
54256SOL    HW164607   0.101   4.980  10.987
54256SOL    HW264608   0.174   4.926  10.866
54257SOL     OW64609  10.026  11.332   8.837
54257SOL    HW164610  10.050  11.400   8.774
54257SOL    HW264611  10.080  11.351   8.914
54258SOL     OW64612   3.704   0.361   0.584
54258SOL    HW164613   3.795   0.336   0.572
54258SOL    HW264614   3.657   0.315   0.515
54259SOL     OW64615  12.210   7.996   4.126
54259SOL    HW164616  12.151   8.050   4.074
54259SOL    HW264617  12.279   7.968   4.065
54260SOL     OW64618   5.808   0.256   5.661
54260SOL    HW164619   5.816   0.173   5.614
54260SOL    HW264620   5.854   0.319   5.607
54261SOL     OW64621  10.538   9.669   3.479
54261SOL    HW164622  10.615   9.715   3.447
54261SOL    HW264623  10.571   9.586   3.513
54262SOL     OW64624   6.906  12.725   1.310
54262SOL    HW164625   6.914  12.697   1.219
54262SOL    HW264626   6.812  12.722   1.329
54263SOL     OW64627   6.449   3.896   6.509
54263SOL    HW164628   6.403   3.812   6.509
54263SOL    HW264629   6.384   3.958   6.541
54264SOL     OW64630   7.941  12.082   2.397
54264SOL    HW164631   7.904  12.002   2.434
54264SOL    HW264632   8.030  12.086   2.432
54265SOL     OW64633   7.497  13.159   7.461
54265SOL    HW164634   7.425  13.098   7.475
54265SOL    HW264635   7.556  13.113   7.401
54266SOL     OW64636   7.527  13.849   8.023
54266SOL    HW164637   7.469  13.823   7.951
54266SOL    HW264638   7.533  13.945   8.014
54267SOL     OW64639  13.574   6.009   0.294
54267SOL    HW164640  13.596   5.938   0.354
54267SOL    HW264641  13.484   6.033   0.318
54268SOL     OW64642   0.068   5.130   5.053
54268SOL    HW164643   0.139   5.192   5.036
54268SOL    HW264644  14.862   5.178   5.028
54269SOL     OW64645   0.883   5.308   6.669
54269SOL    HW164646   0.811   5.253   6.700
54269SOL    HW264647   0.897   5.371   6.739
54270SOL     OW64648  11.073   9.807   3.135
54270SOL    HW164649  11.078   9.711   3.137
54270SOL    HW264650  11.057   9.831   3.226
54271SOL     OW64651   1.027   2.931   1.006
54271SOL    HW164652   1.069   2.881   0.936
54271SOL    HW264653   1.082   3.009   1.016
54272SOL     OW64654   7.735   9.975  10.654
54272SOL    HW164655   7.683   9.897  10.635
54272SOL    HW264656   7.677  10.049  10.633
54273SOL     OW64657  11.683  12.861   8.709
54273SOL    HW164658  11.588  12.868   8.720
54273SOL    HW264659  11.696  12.860   8.614
54274SOL     OW64660  11.694   8.786   0.230
54274SOL    HW164661  11.663   8.857   0.287
54274SOL    HW264662  11.644   8.709   0.259
54275SOL     OW64663  13.606  11.933   4.989
54275SOL    HW164664  13.691  11.908   5.025
54275SOL    HW264665  13.564  11.984   5.058
54276SOL     OW64666   2.917  10.414   4.247
54276SOL    HW164667   3.004  10.435   4.213
54276SOL    HW264668   2.932  10.392   4.339
54277SOL     OW64669   2.883  12.531   2.421
54277SOL    HW164670   2.939  12.590   2.371
54277SOL    HW264671   2.798  12.576   2.426
54278SOL     OW64672   2.618   8.655  14.573
54278SOL    HW164673   2.590   8.567  14.547
54278SOL    HW264674   2.686   8.640  14.638
54279SOL     OW64675   0.597   5.574   0.054
54279SOL    HW164676   0.590   5.668   0.037
54279SOL    HW264677   0.675   5.565   0.109
54280SOL     OW64678   6.318  14.471  12.205
54280SOL    HW164679   6.384  14.495  12.139
54280SOL    HW264680   6.299  14.379  12.186
54281SOL     OW64681   4.054   8.069   7.079
54281SOL    HW164682   4.015   8.038   7.161
54281SOL    HW264683   4.044   8.164   7.083
54282SOL     OW64684   0.920   6.518   5.780
54282SOL    HW164685   0.969   6.538   5.701
54282SOL    HW264686   0.955   6.577   5.846
54283SOL     OW64687  12.180  11.884   6.887
54283SOL    HW164688  12.105  11.916   6.838
54283SOL    HW264689  12.240  11.850   6.821
54284SOL     OW64690   6.507  10.376   5.983
54284SOL    HW164691   6.509  10.432   6.060
54284SOL    HW264692   6.558  10.423   5.918
54285SOL     OW64693  11.786   2.516   3.567
54285SOL    HW164694  11.710   2.461   3.584
54285SOL    HW264695  11.816   2.543   3.654
54286SOL     OW64696  11.720   3.319   7.713
54286SOL    HW164697  11.726   3.390   7.777
54286SOL    HW264698  11.703   3.364   7.630
54287SOL     OW64699  11.046   1.764  10.981
54287SOL    HW164700  11.034   1.809  10.897
54287SOL    HW264701  11.060   1.835  11.044
54288SOL     OW64702   7.121   9.877   9.098
54288SOL    HW164703   7.100   9.785   9.114
54288SOL    HW264704   7.083   9.896   9.013
54289SOL     OW64705   3.561   5.322   3.286
54289SOL    HW164706   3.613   5.399   3.309
54289SOL    HW264707   3.503   5.352   3.216
54290SOL     OW64708   4.030  11.990   8.748
54290SOL    HW164709   3.991  12.022   8.829
54290SOL    HW264710   3.987  11.905   8.733
54291SOL     OW64711   2.262   0.789   8.231
54291SOL    HW164712   2.322   0.720   8.204
54291SOL    HW264713   2.250   0.774   8.325
54292SOL     OW64714   3.968  10.230  14.177
54292SOL    HW164715   3.873  10.242  14.185
54292SOL    HW264716   3.991  10.275  14.096
54293SOL     OW64717  11.575   1.782   5.437
54293SOL    HW164718  11.640   1.738   5.382
54293SOL    HW264719  11.545   1.856   5.383
54294SOL     OW64720  14.553   5.234  14.234
54294SOL    HW164721  14.588   5.246  14.146
54294SOL    HW264722  14.609   5.290  14.289
54295SOL     OW64723   4.633   5.228   6.334
54295SOL    HW164724   4.633   5.134   6.315
54295SOL    HW264725   4.541   5.253   6.333
54296SOL     OW64726   4.870  10.416  13.671
54296SOL    HW164727   4.874  10.512  13.667
54296SOL    HW264728   4.869  10.396  13.765
54297SOL     OW64729   8.965  12.237  10.731
54297SOL    HW164730   9.008  12.184  10.798
54297SOL    HW264731   8.946  12.176  10.660
54298SOL     OW64732  13.067  14.738   4.589
54298SOL    HW164733  13.006  14.769   4.656
54298SOL    HW264734  13.059  14.643   4.591
54299SOL     OW64735   5.464   3.006  10.371
54299SOL    HW164736   5.433   2.988  10.460
54299SOL    HW264737   5.410   3.079  10.342
54300SOL     OW64738  13.218   4.846   3.755
54300SOL    HW164739  13.239   4.876   3.844
54300SOL    HW264740  13.160   4.913   3.720
54301SOL     OW64741  12.657   6.204  12.396
54301SOL    HW164742  12.617   6.265  12.334
54301SOL    HW264743  12.691   6.134  12.341
54302SOL     OW64744   6.119   4.144  14.483
54302SOL    HW164745   6.171   4.078  14.530
54302SOL    HW264746   6.159   4.147  14.396
54303SOL     OW64747  11.974   7.847  10.376
54303SOL    HW164748  11.910   7.800  10.430
54303SOL    HW264749  12.033   7.779  10.344
54304SOL     OW64750  13.781   4.568   4.102
54304SOL    HW164751  13.776   4.609   4.016
54304SOL    HW264752  13.820   4.482   4.085
54305SOL     OW64753  13.902  11.310   9.010
54305SOL    HW164754  13.921  11.296   8.917
54305SOL    HW264755  13.865  11.227   9.040
54306SOL     OW64756   5.874   5.117   5.646
54306SOL    HW164757   5.881   5.174   5.570
54306SOL    HW264758   5.920   5.165   5.716
54307SOL     OW64759   1.209   9.303   2.265
54307SOL    HW164760   1.122   9.335   2.291
54307SOL    HW264761   1.240   9.255   2.342
54308SOL     OW64762  13.775   6.703  11.223
54308SOL    HW164763  13.856   6.673  11.266
54308SOL    HW264764  13.796   6.703  11.130
54309SOL     OW64765   9.821  10.611  12.839
54309SOL    HW164766   9.726  10.611  12.827
54309SOL    HW264767   9.849  10.522  12.819
54310SOL     OW64768  11.646   9.569  12.830
54310SOL    HW164769  11.733   9.531  12.820
54310SOL    HW264770  11.604   9.517  12.899
54311SOL     OW64771  13.101   9.364   2.061
54311SOL    HW164772  13.007   9.347   2.060
54311SOL    HW264773  13.116   9.413   2.142
54312SOL     OW64774  12.158  11.229  10.880
54312SOL    HW164775  12.102  11.303  10.856
54312SOL    HW264776  12.105  11.152  10.861
54313SOL     OW64777   3.745   0.114  12.317
54313SOL    HW164778   3.824   0.085  12.363
54313SOL    HW264779   3.674   0.065  12.357
54314SOL     OW64780  10.361   9.151   2.181
54314SOL    HW164781  10.293   9.208   2.145
54314SOL    HW264782  10.414   9.209   2.235
54315SOL     OW64783   3.642   9.231   7.445
54315SOL    HW164784   3.726   9.208   7.487
54315SOL    HW264785   3.666   9.297   7.379
54316SOL     OW64786   7.527  13.942   7.543
54316SOL    HW164787   7.471  13.872   7.509
54316SOL    HW264788   7.478  14.023   7.525
54317SOL     OW64789   1.678   0.369   7.378
54317SOL    HW164790   1.750   0.420   7.341
54317SOL    HW264791   1.699   0.278   7.355
54318SOL     OW64792   0.414   3.717  13.689
54318SOL    HW164793   0.344   3.654  13.673
54318SOL    HW264794   0.468   3.714  13.610
54319SOL     OW64795   4.357   3.685   6.766
54319SOL    HW164796   4.392   3.721   6.685
54319SOL    HW264797   4.433   3.676   6.823
54320SOL     OW64798   1.926   8.630  11.553
54320SOL    HW164799   1.915   8.574  11.631
54320SOL    HW264800   1.944   8.717  11.588
54321SOL     OW64801   7.518   4.004   6.409
54321SOL    HW164802   7.496   4.092   6.380
54321SOL    HW264803   7.614   4.000   6.401
54322SOL     OW64804   3.123   1.292   9.422
54322SOL    HW164805   3.060   1.224   9.398
54322SOL    HW264806   3.073   1.374   9.413
54323SOL     OW64807  13.290   8.167   2.727
54323SOL    HW164808  13.248   8.177   2.812
54323SOL    HW264809  13.368   8.114   2.746
54324SOL     OW64810   5.091  13.805  11.745
54324SOL    HW164811   5.092  13.832  11.836
54324SOL    HW264812   5.183  13.809  11.718
54325SOL     OW64813   4.243   7.622   5.795
54325SOL    HW164814   4.242   7.663   5.709
54325SOL    HW264815   4.164   7.654   5.838
54326SOL     OW64816  12.903  14.544   2.483
54326SOL    HW164817  12.911  14.512   2.393
54326SOL    HW264818  12.979  14.509   2.528
54327SOL     OW64819   4.565   8.219  11.450
54327SOL    HW164820   4.527   8.135  11.423
54327SOL    HW264821   4.659   8.209  11.435
54328SOL     OW64822  14.103   7.207  12.832
54328SOL    HW164823  14.092   7.275  12.899
54328SOL    HW264824  14.018   7.163  12.828
54329SOL     OW64825  12.018   4.376  10.503
54329SOL    HW164826  12.091   4.331  10.460
54329SOL    HW264827  11.966   4.305  10.542
54330SOL     OW64828  12.447   3.644   1.964
54330SOL    HW164829  12.403   3.713   1.913
54330SOL    HW264830  12.517   3.613   1.907
54331SOL     OW64831   6.333   2.150  13.740
54331SOL    HW164832   6.343   2.236  13.698
54331SOL    HW264833   6.333   2.170  13.834
54332SOL     OW64834   5.279  10.943  13.056
54332SOL    HW164835   5.296  11.033  13.085
54332SOL    HW264836   5.200  10.917  13.105
54333SOL     OW64837   9.513   4.595   3.467
54333SOL    HW164838   9.476   4.510   3.444
54333SOL    HW264839   9.598   4.597   3.425
54334SOL     OW64840  13.045   6.582   8.029
54334SOL    HW164841  13.099   6.631   7.967
54334SOL    HW264842  13.047   6.634   8.110
54335SOL     OW64843   3.171   2.566  10.944
54335SOL    HW164844   3.103   2.500  10.951
54335SOL    HW264845   3.252   2.517  10.934
54336SOL     OW64846  10.388   8.628   0.975
54336SOL    HW164847  10.377   8.593   0.887
54336SOL    HW264848  10.483   8.633   0.987
54337SOL     OW64849  14.757   4.199   2.882
54337SOL    HW164850  14.838   4.250   2.883
54337SOL    HW264851  14.769   4.133   2.949
54338SOL     OW64852   1.185   0.573   1.620
54338SOL    HW164853   1.220   0.489   1.590
54338SOL    HW264854   1.160   0.619   1.540
54339SOL     OW64855  13.987  11.475   4.641
54339SOL    HW164856  13.899  11.512   4.640
54339SOL    HW264857  13.973  11.380   4.643
54340SOL     OW64858   6.231   1.767   1.193
54340SOL    HW164859   6.272   1.797   1.112
54340SOL    HW264860   6.263   1.828   1.260
54341SOL     OW64861   4.950  12.492   8.597
54341SOL    HW164862   4.889  12.479   8.524
54341SOL    HW264863   5.025  12.534   8.556
54342SOL     OW64864   1.213   4.961  13.434
54342SOL    HW164865   1.285   4.908  13.400
54342SOL    HW264866   1.240   5.052  13.418
54343SOL     OW64867  13.796   1.242   0.445
54343SOL    HW164868  13.787   1.247   0.540
54343SOL    HW264869  13.823   1.330   0.419
54344SOL     OW64870   8.902   0.611   8.824
54344SOL    HW164871   8.911   0.692   8.874
54344SOL    HW264872   8.882   0.641   8.735
54345SOL     OW64873   0.707   3.134   6.313
54345SOL    HW164874   0.683   3.058   6.260
54345SOL    HW264875   0.680   3.209   6.259
54346SOL     OW64876  13.456  13.222  11.197
54346SOL    HW164877  13.373  13.198  11.238
54346SOL    HW264878  13.495  13.285  11.257
54347SOL     OW64879   3.626   9.989   6.916
54347SOL    HW164880   3.551  10.035   6.878
54347SOL    HW264881   3.672  10.057   6.967
54348SOL     OW64882  13.232  14.696   7.387
54348SOL    HW164883  13.161  14.745   7.345
54348SOL    HW264884  13.222  14.606   7.355
54349SOL     OW64885   5.669   0.037   8.725
54349SOL    HW164886   5.727   0.090   8.779
54349SOL    HW264887   5.714   0.030   8.640
54350SOL     OW64888  14.375   6.973   7.373
54350SOL    HW164889  14.336   7.052   7.409
54350SOL    HW264890  14.381   6.913   7.446
54351SOL     OW64891   5.073   6.405   1.672
54351SOL    HW164892   5.059   6.480   1.729
54351SOL    HW264893   5.155   6.367   1.702
54352SOL     OW64894   8.109   2.686   1.953
54352SOL    HW164895   8.119   2.723   2.040
54352SOL    HW264896   8.142   2.597   1.961
54353SOL     OW64897   8.879   4.313   6.122
54353SOL    HW164898   8.875   4.408   6.116
54353SOL    HW264899   8.949   4.288   6.062
54354SOL     OW64900  13.291   1.615   2.810
54354SOL    HW164901  13.343   1.561   2.750
54354SOL    HW264902  13.348   1.631   2.885
54355SOL     OW64903   4.498  13.810   8.336
54355SOL    HW164904   4.524  13.891   8.293
54355SOL    HW264905   4.570  13.792   8.398
54356SOL     OW64906   8.819  10.527   2.214
54356SOL    HW164907   8.725  10.517   2.228
54356SOL    HW264908   8.851  10.438   2.196
54357SOL     OW64909   2.394  12.485  14.370
54357SOL    HW164910   2.461  12.420  14.391
54357SOL    HW264911   2.393  12.489  14.274
54358SOL     OW64912   6.527   8.314  14.438
54358SOL    HW164913   6.531   8.315  14.342
54358SOL    HW264914   6.440   8.279  14.457
54359SOL     OW64915   4.474   4.524   8.905
54359SOL    HW164916   4.565   4.514   8.935
54359SOL    HW264917   4.427   4.560   8.981
54360SOL     OW64918  11.055  13.844  14.653
54360SOL    HW164919  10.968  13.866  14.619
54360SOL    HW264920  11.048  13.751  14.678
54361SOL     OW64921  12.035   8.802  10.059
54361SOL    HW164922  11.979   8.803   9.982
54361SOL    HW264923  11.986   8.851  10.125
54362SOL     OW64924  13.610   0.309   0.676
54362SOL    HW164925  13.613   0.215   0.658
54362SOL    HW264926  13.675   0.347   0.617
54363SOL     OW64927   5.968   8.839   0.364
54363SOL    HW164928   5.886   8.796   0.388
54363SOL    HW264929   5.942   8.908   0.303
54364SOL     OW64930  12.960  10.750   6.841
54364SOL    HW164931  12.929  10.729   6.753
54364SOL    HW264932  12.932  10.841   6.855
54365SOL     OW64933   4.242   5.605  14.311
54365SOL    HW164934   4.208   5.558  14.235
54365SOL    HW264935   4.228   5.698  14.290
54366SOL     OW64936   9.276   5.304   0.833
54366SOL    HW164937   9.340   5.238   0.860
54366SOL    HW264938   9.191   5.266   0.857
54367SOL     OW64939  11.005  13.882   4.031
54367SOL    HW164940  11.051  13.802   4.008
54367SOL    HW264941  10.928  13.853   4.080
54368SOL     OW64942   4.629  13.793   0.937
54368SOL    HW164943   4.722  13.787   0.960
54368SOL    HW264944   4.627  13.805   0.842
54369SOL     OW64945   3.511   4.967   9.931
54369SOL    HW164946   3.573   4.894   9.925
54369SOL    HW264947   3.449   4.952   9.859
54370SOL     OW64948  12.505   6.233  13.688
54370SOL    HW164949  12.470   6.147  13.664
54370SOL    HW264950  12.588   6.213  13.732
54371SOL     OW64951  14.339   3.178   4.806
54371SOL    HW164952  14.256   3.146   4.773
54371SOL    HW264953  14.404   3.145   4.744
54372SOL     OW64954   7.079  11.612   0.063
54372SOL    HW164955   7.093  11.531   0.014
54372SOL    HW264956   7.059  11.583   0.152
54373SOL     OW64957   1.209   4.809  13.948
54373SOL    HW164958   1.192   4.795  13.855
54373SOL    HW264959   1.302   4.833  13.952
54374SOL     OW64960   8.361   9.880   4.574
54374SOL    HW164961   8.418   9.828   4.631
54374SOL    HW264962   8.315   9.939   4.633
54375SOL     OW64963  14.742   8.078   6.628
54375SOL    HW164964  14.666   8.032   6.661
54375SOL    HW264965  14.755   8.150   6.690
54376SOL     OW64966   8.540   2.902  11.989
54376SOL    HW164967   8.495   2.908  11.904
54376SOL    HW264968   8.500   2.827  12.032
54377SOL     OW64969  13.138   2.126  10.021
54377SOL    HW164970  13.192   2.153   9.948
54377SOL    HW264971  13.073   2.067   9.983
54378SOL     OW64972   3.267   3.074   0.437
54378SOL    HW164973   3.211   3.104   0.509
54378SOL    HW264974   3.215   3.090   0.358
54379SOL     OW64975   7.823   0.567   1.030
54379SOL    HW164976   7.876   0.613   0.964
54379SOL    HW264977   7.770   0.635   1.071
54380SOL     OW64978  10.985   9.991  10.697
54380SOL    HW164979  11.026   9.967  10.614
54380SOL    HW264980  11.016   9.926  10.759
54381SOL     OW64981   3.679  12.737   3.188
54381SOL    HW164982   3.722  12.812   3.229
54381SOL    HW264983   3.744  12.702   3.127
54382SOL     OW64984   9.369   8.389   6.896
54382SOL    HW164985   9.279   8.357   6.907
54382SOL    HW264986   9.416   8.313   6.862
54383SOL     OW64987   1.339  13.316   4.845
54383SOL    HW164988   1.378  13.267   4.773
54383SOL    HW264989   1.263  13.360   4.806
54384SOL     OW64990   9.820  12.247   3.807
54384SOL    HW164991   9.886  12.262   3.875
54384SOL    HW264992   9.805  12.333   3.768
54385SOL     OW64993   0.501  13.296   4.127
54385SOL    HW164994   0.427  13.270   4.182
54385SOL    HW264995   0.483  13.255   4.042
54386SOL     OW64996  13.672   8.257   3.419
54386SOL    HW164997  13.642   8.345   3.444
54386SOL    HW264998  13.714   8.223   3.497
54387SOL     OW64999  11.118  14.653   9.024
54387SOL    HW165000  11.097  14.745   9.036
54387SOL    HW265001  11.033  14.611   9.014
54388SOL     OW65002   9.152   7.338   0.998
54388SOL    HW165003   9.188   7.252   1.016
54388SOL    HW265004   9.221   7.384   0.951
54389SOL     OW65005   8.994  12.072   1.800
54389SOL    HW165006   9.019  12.065   1.707
54389SOL    HW265007   8.917  12.016   1.807
54390SOL     OW65008   6.043   6.697   9.116
54390SOL    HW165009   6.023   6.604   9.124
54390SOL    HW265010   6.009   6.721   9.030
54391SOL     OW65011  14.867  11.050  12.794
54391SOL    HW165012   0.026  11.101  12.868
54391SOL    HW265013   0.034  10.964  12.806
54392SOL     OW65014   5.067   1.678   5.300
54392SOL    HW165015   5.105   1.764   5.284
54392SOL    HW265016   4.982   1.696   5.341
54393SOL     OW65017   5.568   3.752   8.598
54393SOL    HW165018   5.635   3.816   8.622
54393SOL    HW265019   5.613   3.691   8.539
54394SOL     OW65020   5.793   6.039  11.557
54394SOL    HW165021   5.784   6.011  11.648
54394SOL    HW265022   5.887   6.036  11.539
54395SOL     OW65023   8.549   7.218   7.747
54395SOL    HW165024   8.515   7.197   7.834
54395SOL    HW265025   8.609   7.291   7.762
54396SOL     OW65026   2.079   5.998   5.564
54396SOL    HW165027   2.117   5.910   5.556
54396SOL    HW265028   1.986   5.983   5.579
54397SOL     OW65029   6.405  10.901   4.805
54397SOL    HW165030   6.368  10.983   4.837
54397SOL    HW265031   6.373  10.834   4.866
54398SOL     OW65032   6.024   1.934   9.730
54398SOL    HW165033   5.992   1.984   9.805
54398SOL    HW265034   6.015   1.993   9.656
54399SOL     OW65035  14.235   7.873   7.656
54399SOL    HW165036  14.257   7.921   7.576
54399SOL    HW265037  14.140   7.878   7.662
54400SOL     OW65038   3.455  12.852  10.355
54400SOL    HW165039   3.449  12.806  10.271
54400SOL    HW265040   3.547  12.844  10.380
54401SOL     OW65041   8.798  14.091   5.961
54401SOL    HW165042   8.733  14.153   5.926
54401SOL    HW265043   8.876  14.106   5.908
54402SOL     OW65044  12.493   3.428  10.482
54402SOL    HW165045  12.418   3.466  10.528
54402SOL    HW265046  12.560   3.416  10.549
54403SOL     OW65047   8.603   5.463   5.733
54403SOL    HW165048   8.646   5.388   5.774
54403SOL    HW265049   8.675   5.516   5.699
54404SOL     OW65050  14.776   4.472  10.051
54404SOL    HW165051  14.774   4.564  10.026
54404SOL    HW265052  14.701   4.433  10.006
54405SOL     OW65053   8.124   3.484   2.744
54405SOL    HW165054   8.118   3.496   2.839
54405SOL    HW265055   8.138   3.572   2.710
54406SOL     OW65056   1.162   3.744   7.577
54406SOL    HW165057   1.093   3.688   7.540
54406SOL    HW265058   1.132   3.761   7.667
54407SOL     OW65059   1.288   7.105   6.233
54407SOL    HW165060   1.309   7.190   6.271
54407SOL    HW265061   1.264   7.124   6.143
54408SOL     OW65062  10.593   7.889  12.144
54408SOL    HW165063  10.614   7.980  12.164
54408SOL    HW265064  10.582   7.886  12.049
54409SOL     OW65065   1.806  14.532   2.082
54409SOL    HW165066   1.867  14.582   2.137
54409SOL    HW265067   1.756  14.479   2.143
54410SOL     OW65068   3.884   9.461   4.630
54410SOL    HW165069   3.978   9.477   4.628
54410SOL    HW265070   3.874   9.388   4.691
54411SOL     OW65071   6.532  13.247   7.959
54411SOL    HW165072   6.526  13.213   8.048
54411SOL    HW265073   6.453  13.300   7.948
54412SOL     OW65074  13.865  12.891  13.876
54412SOL    HW165075  13.948  12.847  13.858
54412SOL    HW265076  13.878  12.934  13.961
54413SOL     OW65077  13.207  11.753   8.740
54413SOL    HW165078  13.176  11.831   8.786
54413SOL    HW265079  13.282  11.723   8.791
54414SOL     OW65080   8.072  13.291   0.772
54414SOL    HW165081   8.137  13.319   0.706
54414SOL    HW265082   8.083  13.196   0.778
54415SOL     OW65083   3.830   0.707   1.364
54415SOL    HW165084   3.796   0.680   1.279
54415SOL    HW265085   3.754   0.744   1.410
54416SOL     OW65086   3.873  12.180  12.783
54416SOL    HW165087   3.938  12.201  12.851
54416SOL    HW265088   3.867  12.085  12.783
54417SOL     OW65089  13.153   8.206   4.944
54417SOL    HW165090  13.187   8.249   5.022
54417SOL    HW265091  13.100   8.134   4.978
54418SOL     OW65092   5.643  10.434  12.579
54418SOL    HW165093   5.694  10.514  12.571
54418SOL    HW265094   5.595  10.444  12.661
54419SOL     OW65095   8.177  11.670   4.449
54419SOL    HW165096   8.261  11.689   4.490
54419SOL    HW265097   8.167  11.737   4.381
54420SOL     OW65098   7.214   5.308  14.723
54420SOL    HW165099   7.226   5.321  14.629
54420SOL    HW265100   7.258   5.383  14.763
54421SOL     OW65101   9.298   0.585   5.254
54421SOL    HW165102   9.211   0.621   5.273
54421SOL    HW265103   9.283   0.492   5.242
54422SOL     OW65104   1.886   7.860  13.126
54422SOL    HW165105   1.847   7.892  13.045
54422SOL    HW265106   1.886   7.765  13.118
54423SOL     OW65107   8.360  13.784  14.801
54423SOL    HW165108   8.368  13.842   0.002
54423SOL    HW265109   8.342  13.842  14.727
54424SOL     OW65110   3.820   5.709  10.585
54424SOL    HW165111   3.744   5.733  10.533
54424SOL    HW265112   3.789   5.712  10.676
54425SOL     OW65113   1.678   3.795   4.406
54425SOL    HW165114   1.707   3.813   4.496
54425SOL    HW265115   1.745   3.835   4.351
54426SOL     OW65116   3.513  12.941   1.576
54426SOL    HW165117   3.432  12.986   1.551
54426SOL    HW265118   3.579  13.010   1.577
54427SOL     OW65119   4.681  11.629   5.712
54427SOL    HW165120   4.671  11.636   5.617
54427SOL    HW265121   4.605  11.577   5.740
54428SOL     OW65122   5.754   8.886   5.649
54428SOL    HW165123   5.670   8.900   5.606
54428SOL    HW265124   5.813   8.859   5.579
54429SOL     OW65125   6.693  14.265   6.785
54429SOL    HW165126   6.702  14.230   6.874
54429SOL    HW265127   6.683  14.187   6.730
54430SOL     OW65128   0.688  12.086   6.992
54430SOL    HW165129   0.661  12.092   6.900
54430SOL    HW265130   0.610  12.054   7.037
54431SOL     OW65131   3.308   6.515  12.421
54431SOL    HW165132   3.309   6.479  12.332
54431SOL    HW265133   3.256   6.594  12.413
54432SOL     OW65134   1.602   8.042   8.096
54432SOL    HW165135   1.663   7.970   8.116
54432SOL    HW265136   1.543   8.005   8.029
54433SOL     OW65137   1.759  11.332  10.711
54433SOL    HW165138   1.677  11.357  10.752
54433SOL    HW265139   1.819  11.315  10.784
54434SOL     OW65140   1.647   6.991   6.920
54434SOL    HW165141   1.660   7.084   6.940
54434SOL    HW265142   1.577   6.963   6.979
54435SOL     OW65143   4.354  13.987   9.509
54435SOL    HW165144   4.443  14.009   9.484
54435SOL    HW265145   4.334  13.906   9.462
54436SOL     OW65146   5.225  10.306   5.890
54436SOL    HW165147   5.271  10.276   5.968
54436SOL    HW265148   5.176  10.230   5.860
54437SOL     OW65149   7.405   7.717   4.877
54437SOL    HW165150   7.425   7.778   4.949
54437SOL    HW265151   7.405   7.772   4.799
54438SOL     OW65152   6.276   2.419  14.824
54438SOL    HW165153   6.193   2.456  14.796
54438SOL    HW265154   6.255   2.369   0.029
54439SOL     OW65155   4.306   9.247  13.188
54439SOL    HW165156   4.357   9.206  13.258
54439SOL    HW265157   4.271   9.327  13.228
54440SOL     OW65158   7.020   1.544   5.738
54440SOL    HW165159   7.093   1.511   5.790
54440SOL    HW265160   7.047   1.531   5.647
54441SOL     OW65161   8.202  14.804   5.455
54441SOL    HW165162   8.153   0.012   5.448
54441SOL    HW265163   8.288  14.830   5.489
54442SOL     OW65164   1.463  14.225   4.957
54442SOL    HW165165   1.421  14.186   5.034
54442SOL    HW265166   1.553  14.240   4.984
54443SOL     OW65167   5.827   2.776   1.016
54443SOL    HW165168   5.780   2.813   0.942
54443SOL    HW265169   5.826   2.846   1.082
54444SOL     OW65170   8.608   5.858  11.878
54444SOL    HW165171   8.643   5.802  11.948
54444SOL    HW265172   8.637   5.815  11.797
54445SOL     OW65173  12.864  10.937   8.093
54445SOL    HW165174  12.897  10.933   8.003
54445SOL    HW265175  12.942  10.950   8.147
54446SOL     OW65176  11.701  12.868  12.041
54446SOL    HW165177  11.607  12.887  12.036
54446SOL    HW265178  11.743  12.953  12.040
54447SOL     OW65179   1.312   1.010   0.253
54447SOL    HW165180   1.404   0.984   0.255
54447SOL    HW265181   1.310   1.092   0.204
54448SOL     OW65182   2.171   8.544   8.363
54448SOL    HW165183   2.163   8.517   8.272
54448SOL    HW265184   2.124   8.628   8.368
54449SOL     OW65185   8.324  10.496  11.357
54449SOL    HW165186   8.412  10.523  11.383
54449SOL    HW265187   8.316  10.407  11.392
54450SOL     OW65188   0.797   6.411   7.677
54450SOL    HW165189   0.875   6.450   7.717
54450SOL    HW265190   0.725   6.469   7.702
54451SOL     OW65191   5.001  12.120   7.022
54451SOL    HW165192   4.986  12.188   7.087
54451SOL    HW265193   5.014  12.167   6.940
54452SOL     OW65194   6.404   1.819   0.032
54452SOL    HW165195   6.376   1.858  14.823
54452SOL    HW265196   6.342   1.854   0.097
54453SOL     OW65197   8.022   8.585   2.255
54453SOL    HW165198   8.087   8.516   2.242
54453SOL    HW265199   8.071   8.657   2.293
54454SOL     OW65200   0.525  13.003   2.024
54454SOL    HW165201   0.432  13.016   2.008
54454SOL    HW265202   0.538  12.909   2.021
54455SOL     OW65203   6.649   1.415  12.115
54455SOL    HW165204   6.632   1.472  12.189
54455SOL    HW265205   6.744   1.399  12.118
54456SOL     OW65206   3.176  10.433   6.873
54456SOL    HW165207   3.270  10.448   6.874
54456SOL    HW265208   3.163  10.367   6.806
54457SOL     OW65209   8.288  14.675   3.478
54457SOL    HW165210   8.254  14.672   3.388
54457SOL    HW265211   8.280  14.767   3.503
54458SOL     OW65212  11.016  13.294  13.878
54458SOL    HW165213  10.930  13.307  13.838
54458SOL    HW265214  11.076  13.290  13.804
54459SOL     OW65215   0.802   7.134   7.102
54459SOL    HW165216   0.796   7.145   7.007
54459SOL    HW265217   0.833   7.219   7.134
54460SOL     OW65218  13.820   2.031   8.069
54460SOL    HW165219  13.765   1.956   8.048
54460SOL    HW265220  13.765   2.107   8.050
54461SOL     OW65221   0.016   9.966   8.919
54461SOL    HW165222  14.822  10.009   8.867
54461SOL    HW265223  14.843   9.928   8.993
54462SOL     OW65224   5.718   0.462   8.921
54462SOL    HW165225   5.734   0.528   8.853
54462SOL    HW265226   5.690   0.511   8.998
54463SOL     OW65227   2.491  11.496   5.040
54463SOL    HW165228   2.548  11.439   4.989
54463SOL    HW265229   2.544  11.524   5.114
54464SOL     OW65230   0.627   5.155   9.755
54464SOL    HW165231   0.684   5.110   9.818
54464SOL    HW265232   0.544   5.108   9.760
54465SOL     OW65233   7.421  13.668   5.745
54465SOL    HW165234   7.511  13.693   5.764
54465SOL    HW265235   7.416  13.576   5.771
54466SOL     OW65236   5.731   1.737   2.443
54466SOL    HW165237   5.786   1.672   2.487
54466SOL    HW265238   5.731   1.812   2.503
54467SOL     OW65239   8.108   1.671  11.996
54467SOL    HW165240   8.127   1.616  11.921
54467SOL    HW265241   8.142   1.757  11.972
54468SOL     OW65242   9.819  13.300   7.690
54468SOL    HW165243   9.901  13.259   7.716
54468SOL    HW265244   9.818  13.294   7.594
54469SOL     OW65245   2.204   9.397   4.665
54469SOL    HW165246   2.293   9.400   4.629
54469SOL    HW265247   2.150   9.360   4.595
54470SOL     OW65248  10.227  10.674   4.214
54470SOL    HW165249  10.256  10.750   4.164
54470SOL    HW265250  10.153  10.706   4.266
54471SOL     OW65251  14.164  11.608   7.456
54471SOL    HW165252  14.116  11.526   7.448
54471SOL    HW265253  14.256  11.581   7.464
54472SOL     OW65254  10.979  12.111   7.264
54472SOL    HW165255  11.031  12.042   7.223
54472SOL    HW265256  10.961  12.079   7.352
54473SOL     OW65257   1.559   5.814  10.240
54473SOL    HW165258   1.522   5.892  10.198
54473SOL    HW265259   1.602   5.847  10.318
54474SOL     OW65260   3.355  11.558   7.808
54474SOL    HW165261   3.368  11.469   7.776
54474SOL    HW265262   3.410  11.565   7.885
54475SOL     OW65263   3.921   3.548   3.946
54475SOL    HW165264   3.980   3.594   4.007
54475SOL    HW265265   3.834   3.582   3.967
54476SOL     OW65266  10.925  14.265   9.783
54476SOL    HW165267  11.019  14.246   9.785
54476SOL    HW265268  10.918  14.357   9.809
54477SOL     OW65269  13.544  12.103   3.386
54477SOL    HW165270  13.631  12.139   3.401
54477SOL    HW265271  13.559  12.025   3.333
54478SOL     OW65272   4.563   2.314   7.950
54478SOL    HW165273   4.582   2.351   7.864
54478SOL    HW265274   4.633   2.250   7.964
54479SOL     OW65275   1.815   7.233  11.032
54479SOL    HW165276   1.908   7.215  11.016
54479SOL    HW265277   1.804   7.325  11.010
54480SOL     OW65278  11.469   5.244  11.481
54480SOL    HW165279  11.469   5.153  11.511
54480SOL    HW265280  11.472   5.295  11.562
54481SOL     OW65281   3.862   1.502   9.741
54481SOL    HW165282   3.901   1.577   9.787
54481SOL    HW265283   3.937   1.452   9.708
54482SOL     OW65284   5.801   6.805   2.971
54482SOL    HW165285   5.827   6.898   2.978
54482SOL    HW265286   5.841   6.775   2.890
54483SOL     OW65287  13.518  14.687   1.797
54483SOL    HW165288  13.494  14.615   1.855
54483SOL    HW265289  13.520  14.764   1.855
54484SOL     OW65290  11.073  14.083   0.991
54484SOL    HW165291  11.043  13.995   1.015
54484SOL    HW265292  11.050  14.091   0.898
54485SOL     OW65293  14.734   0.250  14.853
54485SOL    HW165294  14.717   0.281  14.764
54485SOL    HW265295  14.655   0.274   0.028
54486SOL     OW65296   6.016   7.727   0.149
54486SOL    HW165297   6.098   7.726   0.101
54486SOL    HW265298   5.966   7.799   0.110
54487SOL     OW65299   7.111  10.308   6.098
54487SOL    HW165300   7.040  10.373   6.099
54487SOL    HW265301   7.188  10.358   6.072
54488SOL     OW65302  14.698   5.916   8.837
54488SOL    HW165303  14.753   5.942   8.911
54488SOL    HW265304  14.735   5.963   8.762
54489SOL     OW65305  11.719   4.820   7.794
54489SOL    HW165306  11.704   4.906   7.754
54489SOL    HW265307  11.697   4.757   7.725
54490SOL     OW65308  11.251   6.770   5.922
54490SOL    HW165309  11.318   6.702   5.918
54490SOL    HW265310  11.184   6.734   5.980
54491SOL     OW65311   3.105   4.355  12.831
54491SOL    HW165312   3.114   4.418  12.903
54491SOL    HW265313   3.029   4.302  12.856
54492SOL     OW65314   9.130   9.825  10.095
54492SOL    HW165315   9.148   9.913  10.127
54492SOL    HW265316   9.087   9.839  10.011
54493SOL     OW65317   4.437  10.580   3.683
54493SOL    HW165318   4.401  10.646   3.743
54493SOL    HW265319   4.531  10.584   3.696
54494SOL     OW65320  10.990  13.329   7.343
54494SOL    HW165321  10.915  13.370   7.300
54494SOL    HW265322  11.034  13.401   7.389
54495SOL     OW65323   1.591   5.463   7.533
54495SOL    HW165324   1.673   5.512   7.528
54495SOL    HW265325   1.578   5.430   7.444
54496SOL     OW65326   9.908   8.757  12.704
54496SOL    HW165327   9.816   8.778  12.689
54496SOL    HW265328   9.950   8.843  12.715
54497SOL     OW65329  11.400   6.747   5.087
54497SOL    HW165330  11.420   6.676   5.148
54497SOL    HW265331  11.482   6.798   5.082
54498SOL     OW65332   6.304   9.283   7.790
54498SOL    HW165333   6.384   9.327   7.821
54498SOL    HW265334   6.300   9.304   7.697
54499SOL     OW65335   2.463   8.292  12.005
54499SOL    HW165336   2.381   8.341  12.009
54499SOL    HW265337   2.442   8.213  11.954
54500SOL     OW65338   3.815   8.550   7.885
54500SOL    HW165339   3.757   8.605   7.938
54500SOL    HW265340   3.904   8.575   7.913
54501SOL     OW65341   5.219   1.568   2.151
54501SOL    HW165342   5.130   1.603   2.151
54501SOL    HW265343   5.272   1.637   2.192
54502SOL     OW65344   9.869  11.968   1.225
54502SOL    HW165345   9.870  12.054   1.181
54502SOL    HW265346   9.821  11.911   1.165
54503SOL     OW65347  12.498  14.856   2.044
54503SOL    HW165348  12.467  14.872   2.133
54503SOL    HW265349  12.504   0.069   2.005
54504SOL     OW65350  14.838  10.718   1.083
54504SOL    HW165351  14.777  10.705   1.010
54504SOL    HW265352   0.039  10.663   1.062
54505SOL     OW65353   4.025   2.227   0.924
54505SOL    HW165354   4.031   2.301   0.864
54505SOL    HW265355   3.958   2.253   0.987
54506SOL     OW65356  13.454  14.543   7.952
54506SOL    HW165357  13.441  14.473   7.888
54506SOL    HW265358  13.400  14.518   8.027
54507SOL     OW65359   4.375  13.143   6.440
54507SOL    HW165360   4.367  13.071   6.378
54507SOL    HW265361   4.288  13.182   6.443
54508SOL     OW65362  10.419   8.841   4.240
54508SOL    HW165363  10.396   8.934   4.242
54508SOL    HW265364  10.357   8.800   4.300
54509SOL     OW65365  10.729  10.562   6.252
54509SOL    HW165366  10.791  10.536   6.320
54509SOL    HW265367  10.700  10.480   6.213
54510SOL     OW65368   8.482   0.453   5.309
54510SOL    HW165369   8.523   0.539   5.296
54510SOL    HW265370   8.429   0.440   5.230
54511SOL     OW65371   3.516   2.847  12.044
54511SOL    HW165372   3.542   2.922  11.990
54511SOL    HW265373   3.565   2.858  12.125
54512SOL     OW65374   0.881  10.352   8.782
54512SOL    HW165375   0.826  10.430   8.786
54512SOL    HW265376   0.947  10.366   8.850
54513SOL     OW65377  13.159   9.353  13.483
54513SOL    HW165378  13.151   9.301  13.564
54513SOL    HW265379  13.240   9.402  13.495
54514SOL     OW65380   1.163  10.650   2.135
54514SOL    HW165381   1.142  10.734   2.176
54514SOL    HW265382   1.183  10.592   2.209
54515SOL     OW65383  12.594  10.930   1.286
54515SOL    HW165384  12.602  11.020   1.254
54515SOL    HW265385  12.588  10.877   1.206
54516SOL     OW65386   6.703  12.054   6.365
54516SOL    HW165387   6.668  12.108   6.436
54516SOL    HW265388   6.741  11.978   6.408
54517SOL     OW65389   4.280   4.010   3.376
54517SOL    HW165390   4.298   4.072   3.305
54517SOL    HW265391   4.185   3.994   3.371
54518SOL     OW65392  14.538  13.832   2.742
54518SOL    HW165393  14.558  13.739   2.739
54518SOL    HW265394  14.477  13.846   2.670
54519SOL     OW65395   6.239   9.840   0.678
54519SOL    HW165396   6.218   9.760   0.726
54519SOL    HW265397   6.222   9.819   0.586
54520SOL     OW65398  14.608  12.211   3.371
54520SOL    HW165399  14.625  12.245   3.458
54520SOL    HW265400  14.628  12.117   3.378
54521SOL     OW65401   9.837  12.730  12.078
54521SOL    HW165402   9.866  12.639  12.086
54521SOL    HW265403   9.799  12.736  11.991
54522SOL     OW65404   9.011   0.194   4.079
54522SOL    HW165405   9.073   0.166   4.146
54522SOL    HW265406   9.018   0.127   4.011
54523SOL     OW65407  10.918  10.508   6.457
54523SOL    HW165408  10.984  10.452   6.498
54523SOL    HW265409  10.958  10.595   6.456
54524SOL     OW65410   3.748  11.475   3.806
54524SOL    HW165411   3.710  11.561   3.788
54524SOL    HW265412   3.756  11.433   3.720
54525SOL     OW65413   9.046   7.984   2.556
54525SOL    HW165414   9.039   8.006   2.463
54525SOL    HW265415   9.114   7.917   2.560
54526SOL     OW65416   4.268   0.204   2.000
54526SOL    HW165417   4.210   0.128   1.993
54526SOL    HW265418   4.230   0.268   1.940
54527SOL     OW65419   4.077   9.292   6.900
54527SOL    HW165420   4.032   9.283   6.984
54527SOL    HW265421   4.124   9.375   6.906
54528SOL     OW65422  10.987  11.766  12.184
54528SOL    HW165423  11.005  11.690  12.239
54528SOL    HW265424  10.984  11.731  12.095
54529SOL     OW65425  10.925   7.012   3.847
54529SOL    HW165426  10.897   6.995   3.757
54529SOL    HW265427  10.843   7.026   3.895
54530SOL     OW65428   5.033  11.214   7.228
54530SOL    HW165429   5.051  11.256   7.143
54530SOL    HW265430   4.967  11.148   7.209
54531SOL     OW65431  14.442  11.536  10.817
54531SOL    HW165432  14.514  11.519  10.877
54531SOL    HW265433  14.364  11.506  10.863
54532SOL     OW65434   9.385   7.556   3.317
54532SOL    HW165435   9.477   7.534   3.325
54532SOL    HW265436   9.339   7.485   3.362
54533SOL     OW65437  12.703   4.040  11.463
54533SOL    HW165438  12.646   4.057  11.389
54533SOL    HW265439  12.673   4.101  11.531
54534SOL     OW65440   7.149   9.869  11.855
54534SOL    HW165441   7.084   9.804  11.881
54534SOL    HW265442   7.233   9.824  11.864
54535SOL     OW65443   8.748  10.560   8.691
54535SOL    HW165444   8.708  10.593   8.771
54535SOL    HW265445   8.755  10.466   8.704
54536SOL     OW65446   7.566  11.833   7.124
54536SOL    HW165447   7.481  11.878   7.120
54536SOL    HW265448   7.618  11.886   7.184
54537SOL     OW65449   6.868  11.032   7.583
54537SOL    HW165450   6.894  11.042   7.492
54537SOL    HW265451   6.922  10.960   7.616
54538SOL     OW65452   5.694  10.362   3.533
54538SOL    HW165453   5.676  10.269   3.546
54538SOL    HW265454   5.780  10.365   3.492
54539SOL     OW65455   2.250   0.258   6.126
54539SOL    HW165456   2.183   0.311   6.083
54539SOL    HW265457   2.311   0.234   6.056
54540SOL     OW65458   2.261   3.993   8.453
54540SOL    HW165459   2.197   4.058   8.425
54540SOL    HW265460   2.331   4.044   8.493
54541SOL     OW65461   2.210   7.514   7.933
54541SOL    HW165462   2.156   7.436   7.942
54541SOL    HW265463   2.243   7.509   7.843
54542SOL     OW65464   4.494  12.218  10.168
54542SOL    HW165465   4.436  12.262  10.230
54542SOL    HW265466   4.555  12.286  10.140
54543SOL     OW65467  14.698   8.496   8.303
54543SOL    HW165468  14.656   8.461   8.224
54543SOL    HW265469  14.672   8.588   8.306
54544SOL     OW65470   4.439  11.486   6.810
54544SOL    HW165471   4.395  11.557   6.763
54544SOL    HW265472   4.532  11.500   6.790
54545SOL     OW65473  11.943   9.016   4.657
54545SOL    HW165474  12.017   9.042   4.712
54545SOL    HW265475  11.868   9.062   4.695
54546SOL     OW65476   4.886  11.991   2.225
54546SOL    HW165477   4.829  11.964   2.153
54546SOL    HW265478   4.969  12.013   2.183
54547SOL     OW65479  11.080   5.153   5.620
54547SOL    HW165480  11.083   5.247   5.639
54547SOL    HW265481  11.103   5.146   5.527
54548SOL     OW65482  11.050  12.063   8.528
54548SOL    HW165483  10.998  12.143   8.524
54548SOL    HW265484  11.088  12.055   8.440
54549SOL     OW65485  10.088   2.811  10.235
54549SOL    HW165486  10.049   2.883  10.186
54549SOL    HW265487  10.023   2.790  10.302
54550SOL     OW65488  10.045   7.319  13.015
54550SOL    HW165489   9.972   7.261  13.038
54550SOL    HW265490  10.069   7.294  12.926
54551SOL     OW65491  14.752   2.744  14.794
54551SOL    HW165492  14.768   2.728  14.701
54551SOL    HW265493  14.745   2.657  14.832
54552SOL     OW65494   2.373  12.093  13.707
54552SOL    HW165495   2.370  11.997  13.703
54552SOL    HW265496   2.284  12.121  13.684
54553SOL     OW65497  12.761   2.718   5.804
54553SOL    HW165498  12.803   2.663   5.870
54553SOL    HW265499  12.670   2.688   5.802
54554SOL     OW65500   9.956   7.386   2.602
54554SOL    HW165501   9.995   7.473   2.603
54554SOL    HW265502  10.029   7.327   2.583
54555SOL     OW65503   3.203   5.329  13.587
54555SOL    HW165504   3.159   5.337  13.672
54555SOL    HW265505   3.191   5.237  13.563
54556SOL     OW65506   2.816   7.563   6.363
54556SOL    HW165507   2.821   7.649   6.404
54556SOL    HW265508   2.865   7.572   6.281
54557SOL     OW65509   6.153   5.936   9.132
54557SOL    HW165510   6.181   5.852   9.097
54557SOL    HW265511   6.214   5.954   9.203
54558SOL     OW65512   6.575  14.749  13.337
54558SOL    HW165513   6.665  14.728  13.313
54558SOL    HW265514   6.581  14.831  13.386
54559SOL     OW65515  13.036   9.784   4.376
54559SOL    HW165516  12.974   9.724   4.336
54559SOL    HW265517  12.987   9.827   4.447
54560SOL     OW65518   2.974   1.753   0.740
54560SOL    HW165519   2.996   1.741   0.832
54560SOL    HW265520   3.053   1.726   0.693
54561SOL     OW65521  10.264   7.673   3.171
54561SOL    HW165522  10.199   7.615   3.208
54561SOL    HW265523  10.282   7.737   3.240
54562SOL     OW65524  10.524   4.828  13.327
54562SOL    HW165525  10.443   4.796  13.288
54562SOL    HW265526  10.513   4.814  13.421
54563SOL     OW65527   7.859  10.402   2.217
54563SOL    HW165528   7.909  10.483   2.214
54563SOL    HW265529   7.768  10.429   2.219
54564SOL     OW65530  10.213   5.134   6.667
54564SOL    HW165531  10.144   5.137   6.734
54564SOL    HW265532  10.260   5.217   6.677
54565SOL     OW65533   2.927   4.600   7.387
54565SOL    HW165534   2.875   4.575   7.310
54565SOL    HW265535   3.018   4.592   7.357
54566SOL     OW65536   3.088  13.706   9.773
54566SOL    HW165537   3.160  13.668   9.722
54566SOL    HW265538   3.070  13.642   9.842
54567SOL     OW65539   9.420  14.427   6.415
54567SOL    HW165540   9.384  14.378   6.489
54567SOL    HW265541   9.483  14.487   6.453
54568SOL     OW65542   4.579   8.494  13.144
54568SOL    HW165543   4.617   8.469  13.059
54568SOL    HW265544   4.502   8.438  13.153
54569SOL     OW65545   3.741   4.312   5.265
54569SOL    HW165546   3.761   4.323   5.358
54569SOL    HW265547   3.814   4.261   5.231
54570SOL     OW65548   1.401   2.487  14.711
54570SOL    HW165549   1.414   2.438  14.630
54570SOL    HW265550   1.408   2.579  14.687
54571SOL     OW65551   2.734   5.643   2.440
54571SOL    HW165552   2.806   5.596   2.481
54571SOL    HW265553   2.657   5.621   2.492
54572SOL     OW65554  14.321   2.327   3.057
54572SOL    HW165555  14.318   2.238   3.021
54572SOL    HW265556  14.249   2.373   3.012
54573SOL     OW65557   6.279  11.424   2.700
54573SOL    HW165558   6.276  11.461   2.612
54573SOL    HW265559   6.351  11.361   2.698
54574SOL     OW65560   5.053   3.352   5.343
54574SOL    HW165561   5.019   3.318   5.261
54574SOL    HW265562   4.997   3.313   5.410
54575SOL     OW65563  10.149  13.166   9.631
54575SOL    HW165564  10.213  13.096   9.613
54575SOL    HW265565  10.155  13.180   9.725
54576SOL     OW65566  12.827   1.440   9.399
54576SOL    HW165567  12.790   1.378   9.336
54576SOL    HW265568  12.785   1.418   9.482
54577SOL     OW65569   6.196  14.355  13.365
54577SOL    HW165570   6.130  14.411  13.324
54577SOL    HW265571   6.182  14.269  13.327
54578SOL     OW65572  10.323   7.614   4.725
54578SOL    HW165573  10.325   7.655   4.639
54578SOL    HW265574  10.393   7.656   4.774
54579SOL     OW65575   9.084   6.691  14.372
54579SOL    HW165576   9.013   6.672  14.309
54579SOL    HW265577   9.127   6.768  14.336
54580SOL     OW65578   8.260   0.346   3.524
54580SOL    HW165579   8.294   0.380   3.442
54580SOL    HW265580   8.253   0.422   3.581
54581SOL     OW65581  13.268  10.032  10.775
54581SOL    HW165582  13.189   9.986  10.802
54581SOL    HW265583  13.237  10.106  10.724
54582SOL     OW65584   2.739   8.222   5.237
54582SOL    HW165585   2.684   8.288   5.280
54582SOL    HW265586   2.740   8.148   5.298
54583SOL     OW65587  14.400  11.843  13.882
54583SOL    HW165588  14.369  11.785  13.813
54583SOL    HW265589  14.491  11.862  13.858
54584SOL     OW65590  12.556  11.809  11.753
54584SOL    HW165591  12.634  11.856  11.724
54584SOL    HW265592  12.589  11.725  11.786
54585SOL     OW65593  10.044   7.069   5.689
54585SOL    HW165594  10.011   7.045   5.602
54585SOL    HW265595   9.966   7.073   5.744
54586SOL     OW65596   7.566   5.411   3.557
54586SOL    HW165597   7.533   5.322   3.572
54586SOL    HW265598   7.532   5.462   3.630
54587SOL     OW65599   4.435  10.986  13.380
54587SOL    HW165600   4.503  10.921  13.364
54587SOL    HW265601   4.475  11.049  13.440
54588SOL     OW65602   9.729   0.982  13.497
54588SOL    HW165603   9.657   0.967  13.437
54588SOL    HW265604   9.806   0.945  13.453
54589SOL     OW65605   5.872  11.640   4.815
54589SOL    HW165606   5.802  11.699   4.784
54589SOL    HW265607   5.856  11.631   4.909
54590SOL     OW65608   4.505  12.288   4.921
54590SOL    HW165609   4.439  12.234   4.877
54590SOL    HW265610   4.503  12.259   5.012
54591SOL     OW65611   0.221   3.372   3.291
54591SOL    HW165612   0.165   3.337   3.360
54591SOL    HW265613   0.293   3.309   3.284
54592SOL     OW65614   1.565   6.251   5.665
54592SOL    HW165615   1.547   6.334   5.621
54592SOL    HW265616   1.483   6.202   5.657
54593SOL     OW65617   4.277   2.032   6.230
54593SOL    HW165618   4.368   2.008   6.244
54593SOL    HW265619   4.270   2.122   6.262
54594SOL     OW65620   3.784   4.701  12.752
54594SOL    HW165621   3.770   4.759  12.827
54594SOL    HW265622   3.707   4.715  12.697
54595SOL     OW65623   9.689  10.662   3.749
54595SOL    HW165624   9.667  10.688   3.838
54595SOL    HW265625   9.781  10.637   3.753
54596SOL     OW65626   9.986  11.538  10.662
54596SOL    HW165627   9.923  11.480  10.706
54596SOL    HW265628  10.009  11.603  10.729
54597SOL     OW65629   9.344  13.668  13.841
54597SOL    HW165630   9.391  13.751  13.841
54597SOL    HW265631   9.307  13.661  13.929
54598SOL     OW65632   2.619  10.429   0.476
54598SOL    HW165633   2.702  10.413   0.431
54598SOL    HW265634   2.570  10.347   0.467
54599SOL     OW65635  12.881  10.355  13.485
54599SOL    HW165636  12.876  10.431  13.543
54599SOL    HW265637  12.829  10.288  13.529
54600SOL     OW65638   3.620  11.447   0.759
54600SOL    HW165639   3.561  11.523   0.753
54600SOL    HW265640   3.602  11.397   0.680
54601SOL     OW65641   7.155   8.076  12.693
54601SOL    HW165642   7.147   8.045  12.784
54601SOL    HW265643   7.116   8.005  12.641
54602SOL     OW65644   4.276  11.584   4.837
54602SOL    HW165645   4.347  11.647   4.828
54602SOL    HW265646   4.305  11.522   4.903
54603SOL     OW65647   2.340   9.950  13.772
54603SOL    HW165648   2.347  10.036  13.730
54603SOL    HW265649   2.253   9.919  13.749
54604SOL     OW65650   0.761   5.388  13.545
54604SOL    HW165651   0.786   5.345  13.463
54604SOL    HW265652   0.772   5.481  13.527
54605SOL     OW65653   0.810   8.151  11.200
54605SOL    HW165654   0.823   8.060  11.174
54605SOL    HW265655   0.875   8.167  11.269
54606SOL     OW65656   2.698   6.641   7.827
54606SOL    HW165657   2.676   6.710   7.889
54606SOL    HW265658   2.793   6.632   7.831
54607SOL     OW65659  10.654  13.751   1.769
54607SOL    HW165660  10.594  13.825   1.761
54607SOL    HW265661  10.729  13.786   1.818
54608SOL     OW65662   9.769   1.308   2.164
54608SOL    HW165663   9.829   1.367   2.118
54608SOL    HW265664   9.824   1.264   2.229
54609SOL     OW65665   5.380   9.377   6.661
54609SOL    HW165666   5.359   9.459   6.615
54609SOL    HW265667   5.295   9.332   6.667
54610SOL     OW65668  12.663   3.747   5.311
54610SOL    HW165669  12.690   3.732   5.402
54610SOL    HW265670  12.634   3.838   5.309
54611SOL     OW65671   2.967  14.287   0.953
54611SOL    HW165672   2.886  14.294   0.901
54611SOL    HW265673   2.972  14.370   1.000
54612SOL     OW65674   8.325   3.147   6.289
54612SOL    HW165675   8.285   3.070   6.329
54612SOL    HW265676   8.384   3.112   6.222
54613SOL     OW65677  12.858   0.637   2.437
54613SOL    HW165678  12.884   0.729   2.437
54613SOL    HW265679  12.791   0.631   2.506
54614SOL     OW65680   4.348  10.141   5.886
54614SOL    HW165681   4.273  10.148   5.946
54614SOL    HW265682   4.384  10.229   5.883
54615SOL     OW65683   4.966   9.175   2.838
54615SOL    HW165684   4.950   9.128   2.920
54615SOL    HW265685   4.949   9.109   2.770
54616SOL     OW65686  12.524   8.565  12.556
54616SOL    HW165687  12.528   8.592  12.648
54616SOL    HW265688  12.431   8.545  12.541
54617SOL     OW65689   2.264   4.342   4.115
54617SOL    HW165690   2.343   4.396   4.106
54617SOL    HW265691   2.280   4.267   4.057
54618SOL     OW65692   2.201   3.350  11.833
54618SOL    HW165693   2.211   3.274  11.890
54618SOL    HW265694   2.107   3.364  11.827
54619SOL     OW65695   4.523  12.240   9.539
54619SOL    HW165696   4.530  12.305   9.608
54619SOL    HW265697   4.440  12.259   9.495
54620SOL     OW65698  13.919   5.672   7.104
54620SOL    HW165699  13.853   5.704   7.043
54620SOL    HW265700  13.922   5.577   7.088
54621SOL     OW65701  10.664   0.176   0.271
54621SOL    HW165702  10.635   0.124   0.346
54621SOL    HW265703  10.633   0.127   0.195
54622SOL     OW65704   2.762   0.551   9.906
54622SOL    HW165705   2.805   0.500   9.838
54622SOL    HW265706   2.731   0.486   9.969
54623SOL     OW65707  11.611  12.586   5.176
54623SOL    HW165708  11.593  12.572   5.269
54623SOL    HW265709  11.592  12.501   5.135
54624SOL     OW65710   3.911   1.661   4.249
54624SOL    HW165711   3.866   1.597   4.194
54624SOL    HW265712   3.855   1.671   4.325
54625SOL     OW65713   7.784   1.329   2.189
54625SOL    HW165714   7.704   1.375   2.211
54625SOL    HW265715   7.783   1.323   2.094
54626SOL     OW65716   7.364   6.749  12.927
54626SOL    HW165717   7.284   6.710  12.891
54626SOL    HW265718   7.405   6.793  12.852
54627SOL     OW65719  12.699  13.171  11.679
54627SOL    HW165720  12.754  13.196  11.605
54627SOL    HW265721  12.759  13.126  11.739
54628SOL     OW65722   9.643   8.299  11.558
54628SOL    HW165723   9.722   8.285  11.609
54628SOL    HW265724   9.667   8.366  11.494
54629SOL     OW65725   2.490   4.078   5.731
54629SOL    HW165726   2.523   4.017   5.797
54629SOL    HW265727   2.441   4.022   5.671
54630SOL     OW65728  14.426  10.308  10.015
54630SOL    HW165729  14.338  10.325   9.980
54630SOL    HW265730  14.411  10.250  10.089
54631SOL     OW65731   9.299   3.550   8.131
54631SOL    HW165732   9.368   3.617   8.124
54631SOL    HW265733   9.326   3.497   8.206
54632SOL     OW65734   6.317   5.046   4.882
54632SOL    HW165735   6.265   4.994   4.944
54632SOL    HW265736   6.304   5.003   4.798
54633SOL     OW65737   0.461  13.567  10.833
54633SOL    HW165738   0.384  13.549  10.887
54633SOL    HW265739   0.437  13.646  10.783
54634SOL     OW65740   5.516   9.418   4.966
54634SOL    HW165741   5.491   9.438   5.057
54634SOL    HW265742   5.475   9.487   4.915
54635SOL     OW65743   9.215   0.019  13.399
54635SOL    HW165744   9.251   0.097  13.356
54635SOL    HW265745   9.227  14.823  13.335
54636SOL     OW65746  10.679  11.809   5.861
54636SOL    HW165747  10.765  11.818   5.819
54636SOL    HW265748  10.618  11.848   5.798
54637SOL     OW65749   1.564  12.150   5.543
54637SOL    HW165750   1.481  12.162   5.591
54637SOL    HW265751   1.628  12.129   5.611
54638SOL     OW65752   8.453   4.313   9.500
54638SOL    HW165753   8.392   4.239   9.496
54638SOL    HW265754   8.462   4.332   9.593
54639SOL     OW65755   6.619   6.967   3.059
54639SOL    HW165756   6.713   6.951   3.052
54639SOL    HW265757   6.610   7.062   3.050
54640SOL     OW65758   4.376  14.748   5.797
54640SOL    HW165759   4.425  14.703   5.728
54640SOL    HW265760   4.389  14.841   5.778
54641SOL     OW65761   3.799   8.583  10.437
54641SOL    HW165762   3.882   8.606  10.478
54641SOL    HW265763   3.804   8.621  10.350
54642SOL     OW65764   3.119   7.715   3.070
54642SOL    HW165765   3.176   7.748   3.000
54642SOL    HW265766   3.154   7.753   3.150
54643SOL     OW65767   8.220   3.910  12.583
54643SOL    HW165768   8.155   3.852  12.622
54643SOL    HW265769   8.219   3.889  12.490
54644SOL     OW65770  14.027   4.736   9.343
54644SOL    HW165771  14.075   4.676   9.287
54644SOL    HW265772  13.935   4.717   9.325
54645SOL     OW65773  13.285  10.951   7.050
54645SOL    HW165774  13.263  10.863   7.019
54645SOL    HW265775  13.350  10.982   6.986
54646SOL     OW65776   0.600  12.113   8.178
54646SOL    HW165777   0.669  12.178   8.161
54646SOL    HW265778   0.564  12.139   8.263
54647SOL     OW65779  11.205   7.552   2.775
54647SOL    HW165780  11.188   7.603   2.695
54647SOL    HW265781  11.128   7.568   2.830
54648SOL     OW65782   5.586   0.958  11.928
54648SOL    HW165783   5.556   0.880  11.882
54648SOL    HW265784   5.672   0.977  11.892
54649SOL     OW65785   9.914  14.691   9.048
54649SOL    HW165786   9.823  14.666   9.066
54649SOL    HW265787   9.954  14.700   9.135
54650SOL     OW65788  10.044   5.144   5.309
54650SOL    HW165789   9.999   5.228   5.314
54650SOL    HW265790  10.012   5.104   5.229
54651SOL     OW65791   8.496   3.376  14.714
54651SOL    HW165792   8.419   3.321  14.729
54651SOL    HW265793   8.523   3.356  14.624
54652SOL     OW65794   3.543   9.081   3.428
54652SOL    HW165795   3.592   9.153   3.468
54652SOL    HW265796   3.524   9.022   3.501
54653SOL     OW65797  11.098   9.683  13.710
54653SOL    HW165798  11.057   9.750  13.656
54653SOL    HW265799  11.025   9.644  13.758
54654SOL     OW65800  11.744   1.887   9.444
54654SOL    HW165801  11.830   1.866   9.480
54654SOL    HW265802  11.698   1.933   9.515
54655SOL     OW65803   9.598  13.107   6.540
54655SOL    HW165804   9.692  13.095   6.552
54655SOL    HW265805   9.590  13.150   6.454
54656SOL     OW65806  13.480   2.693   5.957
54656SOL    HW165807  13.543   2.745   5.907
54656SOL    HW265808  13.439   2.636   5.892
54657SOL     OW65809  13.274   9.454   7.071
54657SOL    HW165810  13.320   9.384   7.026
54657SOL    HW265811  13.183   9.444   7.046
54658SOL     OW65812  10.234  10.586   7.685
54658SOL    HW165813  10.231  10.571   7.591
54658SOL    HW265814  10.210  10.502   7.724
54659SOL     OW65815  11.121   9.465   3.760
54659SOL    HW165816  11.161   9.395   3.812
54659SOL    HW265817  11.155   9.545   3.799
54660SOL     OW65818  13.683   7.630  14.341
54660SOL    HW165819  13.777   7.618  14.357
54660SOL    HW265820  13.674   7.621  14.246
54661SOL     OW65821  11.048   0.951   5.036
54661SOL    HW165822  11.056   1.043   5.061
54661SOL    HW265823  11.067   0.951   4.942
54662SOL     OW65824   5.523  11.676   5.506
54662SOL    HW165825   5.472  11.637   5.435
54662SOL    HW265826   5.614  11.654   5.485
54663SOL     OW65827   2.382   1.693   7.629
54663SOL    HW165828   2.393   1.787   7.638
54663SOL    HW265829   2.287   1.679   7.627
54664SOL     OW65830   6.831   7.296  13.688
54664SOL    HW165831   6.912   7.246  13.673
54664SOL    HW265832   6.826   7.304  13.783
54665SOL     OW65833   3.823  10.199  10.654
54665SOL    HW165834   3.871  10.117  10.644
54665SOL    HW265835   3.731  10.173  10.658
54666SOL     OW65836  14.575   4.922   2.089
54666SOL    HW165837  14.526   4.915   2.171
54666SOL    HW265838  14.629   4.843   2.087
54667SOL     OW65839   0.831   3.967   3.207
54667SOL    HW165840   0.784   3.962   3.124
54667SOL    HW265841   0.841   4.061   3.222
54668SOL     OW65842   4.832   6.398   9.030
54668SOL    HW165843   4.902   6.403   8.965
54668SOL    HW265844   4.839   6.480   9.079
54669SOL     OW65845  12.406  10.616   2.539
54669SOL    HW165846  12.334  10.646   2.595
54669SOL    HW265847  12.386  10.524   2.521
54670SOL     OW65848   5.136   1.686   6.929
54670SOL    HW165849   5.227   1.716   6.923
54670SOL    HW265850   5.139   1.612   6.989
54671SOL     OW65851   1.397   6.935   5.401
54671SOL    HW165852   1.367   7.005   5.459
54671SOL    HW265853   1.442   6.981   5.330
54672SOL     OW65854  10.806   3.074   2.328
54672SOL    HW165855  10.877   3.018   2.359
54672SOL    HW265856  10.851   3.147   2.285
54673SOL     OW65857   4.307   2.238  11.525
54673SOL    HW165858   4.347   2.279  11.601
54673SOL    HW265859   4.304   2.307  11.459
54674SOL     OW65860  12.395  12.106   4.790
54674SOL    HW165861  12.425  12.033   4.845
54674SOL    HW265862  12.447  12.100   4.710
54675SOL     OW65863  11.130  14.846   5.860
54675SOL    HW165864  11.120  14.758   5.897
54675SOL    HW265865  11.097   0.030   5.928
54676SOL     OW65866   8.241   2.504   5.508
54676SOL    HW165867   8.278   2.580   5.554
54676SOL    HW265868   8.226   2.535   5.418
54677SOL     OW65869   4.048   0.647   8.377
54677SOL    HW165870   4.050   0.737   8.409
54677SOL    HW265871   4.119   0.643   8.313
54678SOL     OW65872   2.411   2.417   6.364
54678SOL    HW165873   2.409   2.331   6.321
54678SOL    HW265874   2.393   2.397   6.456
54679SOL     OW65875   5.906   2.704   7.086
54679SOL    HW165876   5.890   2.747   7.169
54679SOL    HW265877   5.849   2.626   7.088
54680SOL     OW65878   0.671   6.321  13.180
54680SOL    HW165879   0.601   6.380  13.154
54680SOL    HW265880   0.649   6.238  13.138
54681SOL     OW65881   9.985   0.640  12.738
54681SOL    HW165882  10.054   0.685  12.785
54681SOL    HW265883  10.004   0.656  12.645
54682SOL     OW65884   0.100  11.697  13.501
54682SOL    HW165885   0.191  11.727  13.496
54682SOL    HW265886   0.078  11.675  13.411
54683SOL     OW65887   5.545   7.638  10.441
54683SOL    HW165888   5.569   7.659  10.531
54683SOL    HW265889   5.549   7.542  10.436
54684SOL     OW65890   9.393   9.882   4.667
54684SOL    HW165891   9.439   9.827   4.730
54684SOL    HW265892   9.334   9.822   4.621
54685SOL     OW65893   4.110   0.346   2.208
54685SOL    HW165894   4.029   0.299   2.190
54685SOL    HW265895   4.179   0.279   2.204
54686SOL     OW65896   8.386   7.290   9.791
54686SOL    HW165897   8.294   7.300   9.817
54686SOL    HW265898   8.435   7.311   9.870
54687SOL     OW65899   0.708   4.266  13.043
54687SOL    HW165900   0.799   4.254  13.014
54687SOL    HW265901   0.662   4.189  13.009
54688SOL     OW65902  11.699   8.645   6.535
54688SOL    HW165903  11.639   8.699   6.483
54688SOL    HW265904  11.724   8.573   6.476
54689SOL     OW65905   6.937   5.960   9.677
54689SOL    HW165906   6.986   6.042   9.675
54689SOL    HW265907   7.004   5.892   9.684
54690SOL     OW65908  14.779   0.093   3.503
54690SOL    HW165909  14.781   0.069   3.596
54690SOL    HW265910  14.863   0.136   3.488
54691SOL     OW65911   2.932   4.924  11.877
54691SOL    HW165912   2.914   4.968  11.793
54691SOL    HW265913   2.952   4.996  11.937
54692SOL     OW65914   5.224  10.937   3.914
54692SOL    HW165915   5.232  10.844   3.892
54692SOL    HW265916   5.130  10.955   3.910
54693SOL     OW65917  10.328   5.528   1.181
54693SOL    HW165918  10.302   5.445   1.140
54693SOL    HW265919  10.351   5.504   1.271
54694SOL     OW65920   8.868   1.280   9.621
54694SOL    HW165921   8.933   1.334   9.577
54694SOL    HW265922   8.909   1.256   9.705
54695SOL     OW65923   2.797  11.901   5.533
54695SOL    HW165924   2.868  11.860   5.581
54695SOL    HW265925   2.738  11.935   5.601
54696SOL     OW65926   0.229  13.414  10.149
54696SOL    HW165927   0.135  13.401  10.164
54696SOL    HW265928   0.271  13.377  10.227
54697SOL     OW65929   8.945  10.509   3.231
54697SOL    HW165930   8.859  10.469   3.249
54697SOL    HW265931   9.004  10.464   3.291
54698SOL     OW65932  10.566   1.040  12.303
54698SOL    HW165933  10.492   1.099  12.295
54698SOL    HW265934  10.528   0.953  12.289
54699SOL     OW65935  12.049  12.540   1.604
54699SOL    HW165936  12.108  12.612   1.625
54699SOL    HW265937  12.045  12.488   1.684
54700SOL     OW65938   3.433   1.442   6.704
54700SOL    HW165939   3.455   1.454   6.796
54700SOL    HW265940   3.374   1.515   6.683
54701SOL     OW65941   9.990   9.736   4.997
54701SOL    HW165942  10.005   9.733   4.902
54701SOL    HW265943  10.073   9.765   5.033
54702SOL     OW65944   2.579   9.938  11.530
54702SOL    HW165945   2.558   9.974  11.616
54702SOL    HW265946   2.574  10.012  11.471
54703SOL     OW65947  10.490   3.371   3.863
54703SOL    HW165948  10.579   3.372   3.899
54703SOL    HW265949  10.502   3.396   3.771
54704SOL     OW65950   7.042   7.282   2.152
54704SOL    HW165951   7.049   7.345   2.081
54704SOL    HW265952   7.039   7.197   2.108
54705SOL     OW65953   9.380   9.356  10.706
54705SOL    HW165954   9.459   9.337  10.655
54705SOL    HW265955   9.377   9.286  10.771
54706SOL     OW65956   8.791  11.828   4.757
54706SOL    HW165957   8.757  11.865   4.839
54706SOL    HW265958   8.726  11.851   4.691
54707SOL     OW65959  11.422  11.563   8.155
54707SOL    HW165960  11.377  11.563   8.071
54707SOL    HW265961  11.466  11.648   8.159
54708SOL     OW65962  12.479   4.405   3.843
54708SOL    HW165963  12.432   4.488   3.835
54708SOL    HW265964  12.440   4.348   3.777
54709SOL     OW65965  13.030   0.124   2.673
54709SOL    HW165966  13.091   0.053   2.652
54709SOL    HW265967  13.048   0.145   2.765
54710SOL     OW65968  11.851   5.811  14.537
54710SOL    HW165969  11.760   5.841  14.531
54710SOL    HW265970  11.844   5.720  14.567
54711SOL     OW65971  11.206   4.502   5.506
54711SOL    HW165972  11.195   4.409   5.528
54711SOL    HW265973  11.225   4.502   5.412
54712SOL     OW65974   9.796  13.707  14.514
54712SOL    HW165975   9.798  13.615  14.490
54712SOL    HW265976   9.839  13.712  14.599
54713SOL     OW65977  13.306   3.304   0.465
54713SOL    HW165978  13.392   3.327   0.500
54713SOL    HW265979  13.322   3.281   0.374
54714SOL     OW65980   7.110   9.801   3.162
54714SOL    HW165981   7.120   9.707   3.173
54714SOL    HW265982   7.199   9.833   3.147
54715SOL     OW65983  13.648   6.034  14.139
54715SOL    HW165984  13.654   5.987  14.056
54715SOL    HW265985  13.688   6.119  14.122
54716SOL     OW65986   7.002  12.608   8.689
54716SOL    HW165987   6.999  12.513   8.679
54716SOL    HW265988   7.007  12.622   8.784
54717SOL     OW65989  11.078  10.915  12.008
54717SOL    HW165990  11.000  10.875  12.044
54717SOL    HW265991  11.046  10.997  11.969
54718SOL     OW65992  13.503   5.710   6.291
54718SOL    HW165993  13.448   5.654   6.236
54718SOL    HW265994  13.494   5.797   6.253
54719SOL     OW65995   0.998   5.617   7.882
54719SOL    HW165996   1.014   5.695   7.936
54719SOL    HW265997   1.023   5.644   7.793
54720SOL     OW65998   2.804   9.689  12.062
54720SOL    HW165999   2.843   9.650  12.140
54720SOL    HW266000   2.863   9.761  12.039
54721SOL     OW66001   8.030   6.633   8.470
54721SOL    HW166002   8.063   6.721   8.488
54721SOL    HW266003   8.100   6.591   8.421
54722SOL     OW66004   5.930   3.621   3.249
54722SOL    HW166005   5.939   3.711   3.279
54722SOL    HW266006   5.973   3.569   3.317
54723SOL     OW66007   5.570   4.954  13.628
54723SOL    HW166008   5.546   4.953  13.721
54723SOL    HW266009   5.512   5.019  13.589
54724SOL     OW66010   2.947   7.375   3.908
54724SOL    HW166011   2.857   7.408   3.910
54724SOL    HW266012   2.999   7.450   3.879
54725SOL     OW66013   4.322   8.384  13.472
54725SOL    HW166014   4.281   8.459  13.429
54725SOL    HW266015   4.250   8.333  13.507
54726SOL     OW66016   6.741  14.345   7.962
54726SOL    HW166017   6.791  14.268   7.988
54726SOL    HW266018   6.752  14.350   7.867
54727SOL     OW66019   2.656   0.120   6.210
54727SOL    HW166020   2.633   0.114   6.118
54727SOL    HW266021   2.618   0.042   6.250
54728SOL     OW66022  13.495   5.975   7.277
54728SOL    HW166023  13.512   6.069   7.269
54728SOL    HW266024  13.566   5.942   7.331
54729SOL     OW66025   5.898   8.906   0.722
54729SOL    HW166026   5.850   8.847   0.664
54729SOL    HW266027   5.855   8.896   0.807
54730SOL     OW66028  12.131  14.548  12.480
54730SOL    HW166029  12.189  14.498  12.537
54730SOL    HW266030  12.189  14.583  12.412
54731SOL     OW66031   3.144  11.088  13.152
54731SOL    HW166032   3.145  11.068  13.058
54731SOL    HW266033   3.052  11.103  13.172
54732SOL     OW66034   9.644   4.240  11.026
54732SOL    HW166035   9.619   4.212  11.114
54732SOL    HW266036   9.735   4.213  11.017
54733SOL     OW66037   0.876   5.177   9.026
54733SOL    HW166038   0.810   5.133   9.080
54733SOL    HW266039   0.906   5.110   8.965
54734SOL     OW66040  11.684  11.342   8.730
54734SOL    HW166041  11.606  11.379   8.688
54734SOL    HW266042  11.741  11.317   8.658
54735SOL     OW66043  11.423   5.123   1.518
54735SOL    HW166044  11.439   5.188   1.450
54735SOL    HW266045  11.345   5.154   1.564
54736SOL     OW66046   0.254   8.454  14.083
54736SOL    HW166047   0.214   8.438  13.998
54736SOL    HW266048   0.202   8.525  14.121
54737SOL     OW66049   9.051  14.357   3.151
54737SOL    HW166050   9.098  14.424   3.101
54737SOL    HW266051   9.039  14.397   3.238
54738SOL     OW66052  14.541   5.391  11.808
54738SOL    HW166053  14.558   5.471  11.758
54738SOL    HW266054  14.552   5.417  11.899
54739SOL     OW66055  13.798   3.062   9.546
54739SOL    HW166056  13.774   3.133   9.487
54739SOL    HW266057  13.728   3.060   9.611
54740SOL     OW66058  14.408   0.461   0.188
54740SOL    HW166059  14.476   0.439   0.252
54740SOL    HW266060  14.374   0.376   0.160
54741SOL     OW66061  13.594   8.947   2.208
54741SOL    HW166062  13.512   8.994   2.194
54741SOL    HW266063  13.610   8.953   2.302
54742SOL     OW66064  13.699   2.073  13.181
54742SOL    HW166065  13.777   2.128  13.194
54742SOL    HW266066  13.636   2.131  13.137
54743SOL     OW66067   1.253   6.218  10.518
54743SOL    HW166068   1.161   6.202  10.498
54743SOL    HW266069   1.272   6.302  10.476
54744SOL     OW66070  11.790  11.058   8.798
54744SOL    HW166071  11.839  11.136   8.824
54744SOL    HW266072  11.836  10.986   8.840
54745SOL     OW66073  10.841   2.594   8.371
54745SOL    HW166074  10.782   2.560   8.304
54745SOL    HW266075  10.861   2.683   8.341
54746SOL     OW66076  13.766   1.821   7.042
54746SOL    HW166077  13.754   1.805   6.949
54746SOL    HW266078  13.721   1.904   7.059
54747SOL     OW66079   9.312  12.520  11.796
54747SOL    HW166080   9.338  12.574  11.721
54747SOL    HW266081   9.347  12.566  11.872
54748SOL     OW66082   1.021   4.050   1.069
54748SOL    HW166083   0.965   3.985   1.112
54748SOL    HW266084   1.044   4.010   0.985
54749SOL     OW66085   6.408   8.835   3.978
54749SOL    HW166086   6.320   8.868   3.958
54749SOL    HW266087   6.465   8.888   3.923
54750SOL     OW66088   9.958   6.440   2.755
54750SOL    HW166089   9.942   6.386   2.833
54750SOL    HW266090   9.959   6.530   2.788
54751SOL     OW66091   9.157   6.672   3.215
54751SOL    HW166092   9.153   6.590   3.265
54751SOL    HW266093   9.069   6.709   3.224
54752SOL     OW66094   1.552   2.569   1.313
54752SOL    HW166095   1.566   2.558   1.407
54752SOL    HW266096   1.588   2.490   1.274
54753SOL     OW66097   8.568   9.041   4.927
54753SOL    HW166098   8.558   8.947   4.938
54753SOL    HW266099   8.547   9.077   5.013
54754SOL     OW66100  12.585   1.093  11.998
54754SOL    HW166101  12.610   1.050  12.080
54754SOL    HW266102  12.657   1.152  11.978
54755SOL     OW66103   7.355   0.373  13.743
54755SOL    HW166104   7.315   0.460  13.731
54755SOL    HW266105   7.392   0.376  13.832
54756SOL     OW66106  13.044   5.548   2.791
54756SOL    HW166107  12.972   5.547   2.729
54756SOL    HW266108  13.004   5.571   2.875
54757SOL     OW66109   3.009  11.752   1.122
54757SOL    HW166110   3.069  11.800   1.065
54757SOL    HW266111   2.939  11.814   1.142
54758SOL     OW66112   6.169   6.743   5.646
54758SOL    HW166113   6.181   6.791   5.728
54758SOL    HW266114   6.115   6.801   5.592
54759SOL     OW66115  12.549   2.773  13.079
54759SOL    HW166116  12.496   2.811  13.009
54759SOL    HW266117  12.639   2.797  13.057
54760SOL     OW66118  12.405   7.411   5.355
54760SOL    HW166119  12.318   7.399   5.316
54760SOL    HW266120  12.388   7.460   5.436
54761SOL     OW66121   1.532   8.052  13.609
54761SOL    HW166122   1.551   8.065  13.516
54761SOL    HW266123   1.447   8.093  13.622
54762SOL     OW66124   8.274   0.383   7.464
54762SOL    HW166125   8.361   0.394   7.426
54762SOL    HW266126   8.230   0.466   7.446
54763SOL     OW66127   7.803   4.890  10.071
54763SOL    HW166128   7.876   4.841  10.110
54763SOL    HW266129   7.813   4.876   9.977
54764SOL     OW66130   1.099   7.352   6.971
54764SOL    HW166131   1.120   7.441   6.943
54764SOL    HW266132   1.052   7.364   7.054
54765SOL     OW66133   4.777   5.384   4.624
54765SOL    HW166134   4.868   5.388   4.654
54765SOL    HW266135   4.782   5.406   4.531
54766SOL     OW66136   5.511  11.993  12.762
54766SOL    HW166137   5.546  11.907  12.786
54766SOL    HW266138   5.429  12.000  12.811
54767SOL     OW66139   0.611   0.265   6.319
54767SOL    HW166140   0.683   0.271   6.382
54767SOL    HW266141   0.603   0.354   6.283
54768SOL     OW66142   8.048   6.824   4.363
54768SOL    HW166143   8.090   6.905   4.334
54768SOL    HW266144   7.957   6.848   4.380
54769SOL     OW66145   4.972  11.686   7.118
54769SOL    HW166146   5.064  11.668   7.137
54769SOL    HW266147   4.926  11.605   7.140
54770SOL     OW66148   9.174   0.127   2.770
54770SOL    HW166149   9.213   0.103   2.854
54770SOL    HW266150   9.084   0.151   2.792
54771SOL     OW66151   9.759   8.204  14.526
54771SOL    HW166152   9.746   8.279  14.468
54771SOL    HW266153   9.725   8.129  14.477
54772SOL     OW66154   1.270   5.700   8.203
54772SOL    HW166155   1.329   5.637   8.163
54772SOL    HW266156   1.323   5.743   8.270
54773SOL     OW66157   9.035   7.717  13.864
54773SOL    HW166158   9.040   7.717  13.960
54773SOL    HW266159   9.009   7.807  13.842
54774SOL     OW66160  10.273   5.721  10.832
54774SOL    HW166161  10.343   5.708  10.896
54774SOL    HW266162  10.307   5.788  10.773
54775SOL     OW66163   4.575  12.119   0.176
54775SOL    HW166164   4.667  12.093   0.174
54775SOL    HW266165   4.529  12.040   0.206
54776SOL     OW66166  11.056   8.921   8.093
54776SOL    HW166167  11.004   8.846   8.066
54776SOL    HW266168  10.991   8.988   8.114
54777SOL     OW66169   0.555   7.867   3.165
54777SOL    HW166170   0.640   7.905   3.141
54777SOL    HW266171   0.518   7.929   3.228
54778SOL     OW66172  10.932   5.494   8.371
54778SOL    HW166173  10.970   5.553   8.306
54778SOL    HW266174  10.840   5.520   8.375
54779SOL     OW66175  14.262  11.358   5.883
54779SOL    HW166176  14.283  11.307   5.805
54779SOL    HW266177  14.171  11.337   5.902
54780SOL     OW66178  13.380   7.478   1.687
54780SOL    HW166179  13.345   7.554   1.734
54780SOL    HW266180  13.351   7.490   1.597
54781SOL     OW66181   9.104   8.765   6.568
54781SOL    HW166182   9.198   8.744   6.562
54781SOL    HW266183   9.061   8.698   6.514
54782SOL     OW66184   5.852   5.570   7.188
54782SOL    HW166185   5.784   5.581   7.122
54782SOL    HW266186   5.899   5.491   7.161
54783SOL     OW66187   1.626   4.210  11.271
54783SOL    HW166188   1.716   4.178  11.271
54783SOL    HW266189   1.575   4.137  11.304
54784SOL     OW66190   3.721  14.626  12.498
54784SOL    HW166191   3.665  14.704  12.492
54784SOL    HW266192   3.764  14.634  12.582
54785SOL     OW66193   6.512   5.363  10.338
54785SOL    HW166194   6.581   5.399  10.394
54785SOL    HW266195   6.523   5.408  10.254
54786SOL     OW66196   0.157   3.206  11.430
54786SOL    HW166197   0.097   3.276  11.403
54786SOL    HW266198   0.243   3.249  11.434
54787SOL     OW66199   2.960   5.997   2.398
54787SOL    HW166200   2.911   5.964   2.474
54787SOL    HW266201   2.981   5.919   2.347
54788SOL     OW66202   7.545   1.324   3.812
54788SOL    HW166203   7.461   1.370   3.813
54788SOL    HW266204   7.601   1.373   3.872
54789SOL     OW66205  10.988   3.486   5.093
54789SOL    HW166206  10.934   3.490   5.172
54789SOL    HW266207  11.048   3.560   5.102
54790SOL     OW66208   5.251  11.596  12.132
54790SOL    HW166209   5.321  11.534  12.155
54790SOL    HW266210   5.279  11.634  12.049
54791SOL     OW66211   3.814   2.806   0.848
54791SOL    HW166212   3.786   2.738   0.787
54791SOL    HW266213   3.800   2.767   0.935
54792SOL     OW66214   9.795   9.669   9.928
54792SOL    HW166215   9.881   9.709   9.920
54792SOL    HW266216   9.769   9.685  10.019
54793SOL     OW66217  13.944   7.872   0.320
54793SOL    HW166218  13.943   7.899   0.228
54793SOL    HW266219  14.035   7.851   0.338
54794SOL     OW66220  12.390  14.849   9.168
54794SOL    HW166221  12.388   0.049   9.228
54794SOL    HW266222  12.478  14.812   9.178
54795SOL     OW66223  14.361  11.450   7.162
54795SOL    HW166224  14.306  11.473   7.088
54795SOL    HW266225  14.371  11.355   7.157
54796SOL     OW66226   0.620  12.035   2.397
54796SOL    HW166227   0.619  12.072   2.485
54796SOL    HW266228   0.648  11.944   2.410
54797SOL     OW66229   4.309   2.532   8.542
54797SOL    HW166230   4.338   2.457   8.594
54797SOL    HW266231   4.362   2.527   8.462
54798SOL     OW66232   3.571   6.819   0.535
54798SOL    HW166233   3.486   6.777   0.521
54798SOL    HW266234   3.597   6.792   0.623
54799SOL     OW66235   0.539   6.677   4.444
54799SOL    HW166236   0.527   6.697   4.351
54799SOL    HW266237   0.546   6.763   4.486
54800SOL     OW66238   2.332   3.952   4.489
54800SOL    HW166239   2.238   3.959   4.507
54800SOL    HW266240   2.338   3.936   4.395
54801SOL     OW66241  10.993   2.125   0.948
54801SOL    HW166242  11.079   2.120   0.991
54801SOL    HW266243  10.930   2.127   1.020
54802SOL     OW66244   9.174   6.730   4.430
54802SOL    HW166245   9.245   6.706   4.489
54802SOL    HW266246   9.218   6.775   4.357
54803SOL     OW66247   0.826   2.796   0.118
54803SOL    HW166248   0.893   2.727   0.119
54803SOL    HW266249   0.871   2.872   0.154
54804SOL     OW66250  14.614   8.880   6.100
54804SOL    HW166251  14.574   8.843   6.021
54804SOL    HW266252  14.577   8.828   6.172
54805SOL     OW66253   8.478   1.897   6.596
54805SOL    HW166254   8.394   1.919   6.636
54805SOL    HW266255   8.535   1.874   6.670
54806SOL     OW66256   8.924  12.055   7.829
54806SOL    HW166257   8.857  11.988   7.813
54806SOL    HW266258   8.998  12.006   7.866
54807SOL     OW66259   9.066   1.504   5.931
54807SOL    HW166260   9.024   1.419   5.924
54807SOL    HW266261   9.075   1.534   5.841
54808SOL     OW66262  10.618  12.347   5.228
54808SOL    HW166263  10.528  12.381   5.235
54808SOL    HW266264  10.624  12.314   5.138
54809SOL     OW66265  11.189  13.718   3.965
54809SOL    HW166266  11.249  13.775   3.916
54809SOL    HW266267  11.246  13.651   4.003
54810SOL     OW66268   1.900   1.956   9.623
54810SOL    HW166269   1.829   1.911   9.578
54810SOL    HW266270   1.965   1.888   9.642
54811SOL     OW66271   7.267  11.177  12.026
54811SOL    HW166272   7.247  11.218  12.111
54811SOL    HW266273   7.362  11.171  12.025
54812SOL     OW66274  11.098   8.743   7.711
54812SOL    HW166275  11.030   8.793   7.665
54812SOL    HW266276  11.086   8.653   7.681
54813SOL     OW66277  12.044   7.358   2.532
54813SOL    HW166278  12.036   7.408   2.613
54813SOL    HW266279  11.990   7.405   2.468
54814SOL     OW66280   3.926   4.964   9.594
54814SOL    HW166281   3.842   4.944   9.636
54814SOL    HW266282   3.903   5.026   9.524
54815SOL     OW66283   4.457   3.877   9.098
54815SOL    HW166284   4.370   3.900   9.130
54815SOL    HW266285   4.479   3.945   9.034
54816SOL     OW66286   9.125   9.227  13.769
54816SOL    HW166287   9.209   9.206  13.811
54816SOL    HW266288   9.060   9.209  13.836
54817SOL     OW66289   2.575   3.190   1.813
54817SOL    HW166290   2.487   3.223   1.794
54817SOL    HW266291   2.576   3.102   1.776
54818SOL     OW66292   4.512  11.310   1.940
54818SOL    HW166293   4.526  11.362   2.019
54818SOL    HW266294   4.457  11.238   1.967
54819SOL     OW66295   1.515   9.448  11.571
54819SOL    HW166296   1.550   9.458  11.660
54819SOL    HW266297   1.593   9.448  11.515
54820SOL     OW66298   9.806   7.676  13.858
54820SOL    HW166299   9.715   7.675  13.827
54820SOL    HW266300   9.857   7.701  13.781
54821SOL     OW66301   8.408   7.701   3.685
54821SOL    HW166302   8.423   7.710   3.779
54821SOL    HW266303   8.397   7.791   3.654
54822SOL     OW66304   0.788   3.781   8.856
54822SOL    HW166305   0.750   3.779   8.768
54822SOL    HW266306   0.713   3.779   8.915
54823SOL     OW66307   9.102   0.569   8.250
54823SOL    HW166308   9.075   0.483   8.282
54823SOL    HW266309   9.135   0.553   8.161
54824SOL     OW66310   9.965  13.312   6.757
54824SOL    HW166311   9.923  13.385   6.802
54824SOL    HW266312  10.059  13.330   6.763
54825SOL     OW66313   5.537  10.459   8.986
54825SOL    HW166314   5.624  10.443   8.950
54825SOL    HW266315   5.522  10.552   8.974
54826SOL     OW66316   1.500   0.338  12.786
54826SOL    HW166317   1.444   0.346  12.863
54826SOL    HW266318   1.450   0.285  12.725
54827SOL     OW66319   0.436  11.319  12.495
54827SOL    HW166320   0.431  11.360  12.408
54827SOL    HW266321   0.371  11.366  12.547
54828SOL     OW66322   1.322   1.566   7.681
54828SOL    HW166323   1.352   1.484   7.641
54828SOL    HW266324   1.312   1.626   7.607
54829SOL     OW66325  12.186   5.182  10.187
54829SOL    HW166326  12.153   5.096  10.211
54829SOL    HW266327  12.278   5.181  10.213
54830SOL     OW66328  12.291  11.931   5.509
54830SOL    HW166329  12.328  11.845   5.530
54830SOL    HW266330  12.347  11.993   5.555
54831SOL     OW66331   5.455   4.686   3.534
54831SOL    HW166332   5.448   4.779   3.551
54831SOL    HW266333   5.505   4.651   3.608
54832SOL     OW66334  13.162   6.063   9.559
54832SOL    HW166335  13.132   6.151   9.537
54832SOL    HW266336  13.245   6.077   9.605
54833SOL     OW66337  14.177  14.083   9.770
54833SOL    HW166338  14.269  14.105   9.787
54833SOL    HW266339  14.170  13.991   9.793
54834SOL     OW66340  13.273  14.044   3.152
54834SOL    HW166341  13.298  14.134   3.172
54834SOL    HW266342  13.178  14.048   3.137
54835SOL     OW66343  11.219  12.982   4.999
54835SOL    HW166344  11.173  13.066   4.989
54835SOL    HW266345  11.310  13.003   4.979
54836SOL     OW66346   9.190  12.706   5.812
54836SOL    HW166347   9.156  12.651   5.883
54836SOL    HW266348   9.244  12.647   5.760
54837SOL     OW66349   7.414   6.369   2.206
54837SOL    HW166350   7.347   6.303   2.188
54837SOL    HW266351   7.494   6.333   2.167
54838SOL     OW66352  12.633   6.314   5.554
54838SOL    HW166353  12.546   6.351   5.536
54838SOL    HW266354  12.627   6.223   5.523
54839SOL     OW66355  13.220   4.802   3.056
54839SOL    HW166356  13.243   4.807   3.148
54839SOL    HW266357  13.173   4.884   3.039
54840SOL     OW66358  10.627   4.164  12.587
54840SOL    HW166359  10.713   4.184  12.549
54840SOL    HW266360  10.622   4.069  12.583
54841SOL     OW66361  10.222   5.132   3.644
54841SOL    HW166362  10.275   5.169   3.574
54841SOL    HW266363  10.212   5.203   3.707
54842SOL     OW66364  14.212   5.480  13.901
54842SOL    HW166365  14.193   5.491  13.808
54842SOL    HW266366  14.151   5.413  13.931
54843SOL     OW66367  11.651   6.491   4.262
54843SOL    HW166368  11.640   6.439   4.183
54843SOL    HW266369  11.641   6.428   4.334
54844SOL     OW66370  14.610   6.909   3.744
54844SOL    HW166371  14.608   6.845   3.815
54844SOL    HW266372  14.544   6.973   3.768
54845SOL     OW66373  11.824   4.241   0.952
54845SOL    HW166374  11.855   4.285   1.031
54845SOL    HW266375  11.875   4.281   0.881
54846SOL     OW66376   2.070  13.190   1.397
54846SOL    HW166377   2.009  13.210   1.326
54846SOL    HW266378   2.156  13.217   1.363
54847SOL     OW66379  10.928  11.201   6.261
54847SOL    HW166380  10.968  11.216   6.347
54847SOL    HW266381  10.977  11.128   6.224
54848SOL     OW66382   3.359  11.487   3.120
54848SOL    HW166383   3.367  11.411   3.062
54848SOL    HW266384   3.368  11.562   3.063
54849SOL     OW66385   7.040  10.840  11.841
54849SOL    HW166386   7.035  10.844  11.745
54849SOL    HW266387   6.977  10.773  11.866
54850SOL     OW66388  10.030   9.220   8.927
54850SOL    HW166389  10.025   9.257   9.015
54850SOL    HW266390  10.023   9.295   8.869
54851SOL     OW66391   3.590   7.572   6.893
54851SOL    HW166392   3.684   7.588   6.895
54851SOL    HW266393   3.552   7.654   6.863
54852SOL     OW66394   5.487   2.563   1.618
54852SOL    HW166395   5.502   2.658   1.613
54852SOL    HW266396   5.449   2.540   1.533
54853SOL     OW66397   3.754   1.100   1.581
54853SOL    HW166398   3.694   1.026   1.581
54853SOL    HW266399   3.822   1.075   1.517
54854SOL     OW66400  10.606   8.666   0.572
54854SOL    HW166401  10.667   8.721   0.622
54854SOL    HW266402  10.662   8.603   0.526
54855SOL     OW66403   8.664   4.475   3.998
54855SOL    HW166404   8.653   4.518   3.913
54855SOL    HW266405   8.628   4.388   3.986
54856SOL     OW66406   0.861   8.226  12.754
54856SOL    HW166407   0.889   8.142  12.718
54856SOL    HW266408   0.941   8.267  12.787
54857SOL     OW66409   1.594   5.328  11.460
54857SOL    HW166410   1.612   5.336  11.367
54857SOL    HW266411   1.536   5.402  11.480
54858SOL     OW66412  10.409   4.295  13.405
54858SOL    HW166413  10.341   4.351  13.369
54858SOL    HW266414  10.427   4.332  13.492
54859SOL     OW66415   6.160   2.386   6.004
54859SOL    HW166416   6.165   2.435   6.086
54859SOL    HW266417   6.203   2.303   6.023
54860SOL     OW66418   5.714  11.994   4.293
54860SOL    HW166419   5.711  12.064   4.228
54860SOL    HW266420   5.708  12.039   4.378
54861SOL     OW66421   2.188   7.951  12.203
54861SOL    HW166422   2.225   8.038  12.217
54861SOL    HW266423   2.127   7.962  12.131
54862SOL     OW66424   9.648  12.592   9.350
54862SOL    HW166425   9.721  12.530   9.349
54862SOL    HW266426   9.690  12.677   9.338
54863SOL     OW66427   1.953   6.677   3.976
54863SOL    HW166428   1.993   6.629   3.903
54863SOL    HW266429   1.867   6.703   3.943
54864SOL     OW66430   2.394   7.819   1.027
54864SOL    HW166431   2.411   7.907   0.996
54864SOL    HW266432   2.303   7.821   1.056
54865SOL     OW66433   7.017   3.292   7.927
54865SOL    HW166434   6.944   3.318   7.871
54865SOL    HW266435   7.072   3.371   7.932
54866SOL     OW66436   1.059  10.256   0.760
54866SOL    HW166437   1.007  10.191   0.807
54866SOL    HW266438   1.048  10.234   0.668
54867SOL     OW66439   0.841   1.605   1.331
54867SOL    HW166440   0.904   1.556   1.384
54867SOL    HW266441   0.766   1.618   1.388
54868SOL     OW66442   0.661   1.185  11.347
54868SOL    HW166443   0.743   1.174  11.396
54868SOL    HW266444   0.631   1.096  11.329
54869SOL     OW66445   8.045   7.109  10.392
54869SOL    HW166446   7.966   7.118  10.444
54869SOL    HW266447   8.054   7.192  10.346
54870SOL     OW66448   2.044  12.769   4.666
54870SOL    HW166449   2.079  12.710   4.733
54870SOL    HW266450   2.034  12.714   4.589
54871SOL     OW66451  11.825   2.206   6.310
54871SOL    HW166452  11.879   2.128   6.310
54871SOL    HW266453  11.745   2.180   6.356
54872SOL     OW66454   2.777   1.537  10.711
54872SOL    HW166455   2.683   1.545  10.695
54872SOL    HW266456   2.815   1.609  10.661
54873SOL     OW66457   9.587   3.099   6.215
54873SOL    HW166458   9.643   3.029   6.251
54873SOL    HW266459   9.571   3.157   6.289
54874SOL     OW66460  14.530  12.370   6.176
54874SOL    HW166461  14.470  12.423   6.229
54874SOL    HW266462  14.474  12.331   6.109
54875SOL     OW66463   2.814  11.648  11.087
54875SOL    HW166464   2.781  11.618  11.002
54875SOL    HW266465   2.770  11.732  11.102
54876SOL     OW66466   3.825  10.566   1.399
54876SOL    HW166467   3.808  10.656   1.371
54876SOL    HW266468   3.745  10.540   1.446
54877SOL     OW66469  13.194   0.139   5.259
54877SOL    HW166470  13.168   0.052   5.227
54877SOL    HW266471  13.284   0.128   5.288
54878SOL     OW66472   8.773   6.707   5.610
54878SOL    HW166473   8.779   6.670   5.522
54878SOL    HW266474   8.683   6.692   5.636
54879SOL     OW66475  12.856   2.228   6.299
54879SOL    HW166476  12.948   2.221   6.325
54879SOL    HW266477  12.857   2.220   6.204
54880SOL     OW66478   8.216  13.793  12.792
54880SOL    HW166479   8.121  13.804  12.803
54880SOL    HW266480   8.254  13.869  12.835
54881SOL     OW66481   4.529   9.738   4.076
54881SOL    HW166482   4.489   9.767   3.994
54881SOL    HW266483   4.521   9.813   4.135
54882SOL     OW66484   0.857  11.760   6.321
54882SOL    HW166485   0.874  11.673   6.357
54882SOL    HW266486   0.826  11.811   6.396
54883SOL     OW66487   0.987   4.388  11.736
54883SOL    HW166488   1.020   4.418  11.651
54883SOL    HW266489   1.034   4.441  11.800
54884SOL     OW66490  10.602   1.564   9.101
54884SOL    HW166491  10.553   1.494   9.143
54884SOL    HW266492  10.557   1.578   9.018
54885SOL     OW66493   6.954   8.539   6.545
54885SOL    HW166494   6.865   8.574   6.552
54885SOL    HW266495   6.993   8.587   6.472
54886SOL     OW66496   5.000  14.326  12.586
54886SOL    HW166497   4.959  14.296  12.505
54886SOL    HW266498   5.000  14.422  12.579
54887SOL     OW66499   5.355   7.726  13.170
54887SOL    HW166500   5.314   7.643  13.147
54887SOL    HW266501   5.385   7.762  13.087
54888SOL     OW66502   2.837   7.063  10.501
54888SOL    HW166503   2.827   7.077  10.596
54888SOL    HW266504   2.873   6.975  10.493
54889SOL     OW66505  11.563  13.706   1.602
54889SOL    HW166506  11.641  13.654   1.619
54889SOL    HW266507  11.544  13.692   1.509
54890SOL     OW66508   5.823   5.340   4.502
54890SOL    HW166509   5.823   5.350   4.407
54890SOL    HW266510   5.915   5.340   4.526
54891SOL     OW66511   8.891   9.348   6.742
54891SOL    HW166512   8.881   9.332   6.835
54891SOL    HW266513   8.805   9.381   6.714
54892SOL     OW66514  10.514   7.014   4.642
54892SOL    HW166515  10.480   6.992   4.729
54892SOL    HW266516  10.564   7.094   4.655
54893SOL     OW66517   2.306   9.481  10.997
54893SOL    HW166518   2.300   9.560  11.050
54893SOL    HW266519   2.362   9.506  10.924
54894SOL     OW66520   0.308   4.995   1.706
54894SOL    HW166521   0.230   5.016   1.758
54894SOL    HW266522   0.357   4.933   1.760
54895SOL     OW66523   5.858   7.412   1.653
54895SOL    HW166524   5.886   7.502   1.633
54895SOL    HW266525   5.784   7.422   1.713
54896SOL     OW66526   6.733   9.814   1.720
54896SOL    HW166527   6.721   9.739   1.778
54896SOL    HW266528   6.645   9.841   1.695
54897SOL     OW66529   7.600   0.044   2.767
54897SOL    HW166530   7.551   0.073   2.844
54897SOL    HW266531   7.671   0.108   2.758
54898SOL     OW66532   0.385  10.268   9.562
54898SOL    HW166533   0.343  10.213   9.629
54898SOL    HW266534   0.323  10.269   9.489
54899SOL     OW66535   6.397   7.909   3.889
54899SOL    HW166536   6.429   7.917   3.799
54899SOL    HW266537   6.463   7.953   3.942
54900SOL     OW66538   7.589  11.788   1.066
54900SOL    HW166539   7.543  11.777   0.983
54900SOL    HW266540   7.588  11.883   1.082
54901SOL     OW66541   7.427  11.457   2.103
54901SOL    HW166542   7.497  11.449   2.038
54901SOL    HW266543   7.474  11.466   2.186
54902SOL     OW66544   6.508   0.049   0.112
54902SOL    HW166545   6.569  14.850   0.116
54902SOL    HW266546   6.428   0.013   0.073
54903SOL     OW66547   5.123   3.802   9.550
54903SOL    HW166548   5.148   3.887   9.513
54903SOL    HW266549   5.170   3.798   9.634
54904SOL     OW66550  13.759   4.405   2.340
54904SOL    HW166551  13.671   4.403   2.377
54904SOL    HW266552  13.794   4.317   2.354
54905SOL     OW66553   2.837  12.553   3.541
54905SOL    HW166554   2.874  12.641   3.533
54905SOL    HW266555   2.871  12.505   3.465
54906SOL     OW66556   1.747  10.294   8.440
54906SOL    HW166557   1.702  10.233   8.498
54906SOL    HW266558   1.680  10.359   8.417
54907SOL     OW66559   2.597   7.983   8.755
54907SOL    HW166560   2.574   7.907   8.808
54907SOL    HW266561   2.642   8.041   8.816
54908SOL     OW66562   3.612   7.842   4.662
54908SOL    HW166563   3.593   7.880   4.748
54908SOL    HW266564   3.587   7.750   4.671
54909SOL     OW66565   5.058   1.277   8.257
54909SOL    HW166566   5.005   1.351   8.227
54909SOL    HW266567   5.148   1.308   8.254
54910SOL     OW66568   1.166   3.249   5.032
54910SOL    HW166569   1.187   3.159   5.008
54910SOL    HW266570   1.215   3.303   4.970
54911SOL     OW66571   3.011   0.803  13.373
54911SOL    HW166572   3.107   0.811  13.378
54911SOL    HW266573   2.990   0.827  13.282
54912SOL     OW66574   3.948   6.431  12.009
54912SOL    HW166575   3.955   6.408  12.102
54912SOL    HW266576   4.024   6.486  11.992
54913SOL     OW66577   4.917   5.220  13.384
54913SOL    HW166578   4.885   5.130  13.377
54913SOL    HW266579   4.892   5.261  13.301
54914SOL     OW66580  13.564   7.316   1.443
54914SOL    HW166581  13.604   7.249   1.499
54914SOL    HW266582  13.479   7.280   1.421
54915SOL     OW66583  12.593  12.869   6.582
54915SOL    HW166584  12.607  12.918   6.502
54915SOL    HW266585  12.499  12.850   6.583
54916SOL     OW66586   0.356   3.775  12.000
54916SOL    HW166587   0.334   3.731  11.918
54916SOL    HW266588   0.423   3.719  12.039
54917SOL     OW66589   2.303   3.589   0.639
54917SOL    HW166590   2.302   3.662   0.701
54917SOL    HW266591   2.374   3.610   0.578
54918SOL     OW66592   6.078   0.602  11.943
54918SOL    HW166593   5.993   0.627  11.908
54918SOL    HW266594   6.140   0.621  11.873
54919SOL     OW66595   6.302   4.416   3.382
54919SOL    HW166596   6.235   4.368   3.333
54919SOL    HW266597   6.363   4.349   3.412
54920SOL     OW66598  10.339  12.688   9.522
54920SOL    HW166599  10.273  12.662   9.458
54920SOL    HW266600  10.313  12.645   9.603
54921SOL     OW66601   0.903  11.636   0.709
54921SOL    HW166602   0.892  11.614   0.617
54921SOL    HW266603   0.958  11.567   0.745
54922SOL     OW66604   5.992  10.645   8.126
54922SOL    HW166605   5.991  10.553   8.099
54922SOL    HW266606   6.085  10.670   8.123
54923SOL     OW66607  14.025  10.145  13.707
54923SOL    HW166608  13.938  10.137  13.747
54923SOL    HW266609  14.009  10.136  13.613
54924SOL     OW66610   4.992   6.051  14.326
54924SOL    HW166611   5.076   6.097  14.323
54924SOL    HW266612   4.937   6.107  14.381
54925SOL     OW66613   0.831  13.045   9.393
54925SOL    HW166614   0.738  13.063   9.405
54925SOL    HW266615   0.875  13.105   9.453
54926SOL     OW66616  13.312  11.932   5.849
54926SOL    HW166617  13.298  11.936   5.754
54926SOL    HW266618  13.397  11.975   5.862
54927SOL     OW66619  14.400   6.098  13.890
54927SOL    HW166620  14.441   6.166  13.943
54927SOL    HW266621  14.311   6.090  13.925
54928SOL     OW66622   3.999  11.676   3.787
54928SOL    HW166623   3.955  11.600   3.825
54928SOL    HW266624   3.959  11.752   3.831
54929SOL     OW66625  12.058   8.658   1.575
54929SOL    HW166626  12.041   8.632   1.665
54929SOL    HW266627  11.993   8.727   1.557
54930SOL     OW66628  11.205   9.761  11.813
54930SOL    HW166629  11.155   9.755  11.895
54930SOL    HW266630  11.160   9.701  11.753
54931SOL     OW66631   3.266   7.081   2.102
54931SOL    HW166632   3.226   7.103   2.187
54931SOL    HW266633   3.347   7.037   2.125
54932SOL     OW66634  14.616   0.867   3.997
54932SOL    HW166635  14.645   0.932   3.933
54932SOL    HW266636  14.691   0.856   4.055
54933SOL     OW66637  10.905   6.133  11.849
54933SOL    HW166638  10.999   6.130  11.865
54933SOL    HW266639  10.880   6.223  11.871
54934SOL     OW66640   3.820  10.135   1.128
54934SOL    HW166641   3.900  10.086   1.145
54934SOL    HW266642   3.779  10.088   1.054
54935SOL     OW66643   7.580  12.871   1.716
54935SOL    HW166644   7.490  12.878   1.686
54935SOL    HW266645   7.625  12.943   1.673
54936SOL     OW66646   8.983   4.518   4.879
54936SOL    HW166647   8.953   4.544   4.792
54936SOL    HW266648   8.909   4.469   4.916
54937SOL     OW66649  10.790   2.188   1.134
54937SOL    HW166650  10.765   2.273   1.098
54937SOL    HW266651  10.708   2.150   1.165
54938SOL     OW66652  10.459   8.738   8.119
54938SOL    HW166653  10.478   8.702   8.206
54938SOL    HW266654  10.534   8.795   8.100
54939SOL     OW66655   1.791  14.212   7.330
54939SOL    HW166656   1.832  14.125   7.326
54939SOL    HW266657   1.770  14.233   7.239
54940SOL     OW66658  13.619  10.971   4.095
54940SOL    HW166659  13.646  10.884   4.124
54940SOL    HW266660  13.672  10.988   4.017
54941SOL     OW66661   9.066   3.885   6.110
54941SOL    HW166662   9.060   3.790   6.109
54941SOL    HW266663   9.152   3.904   6.147
54942SOL     OW66664   2.837   3.054  14.864
54942SOL    HW166665   2.841   3.142   0.027
54942SOL    HW266666   2.785   3.064  14.784
54943SOL     OW66667  12.729   8.029   9.748
54943SOL    HW166668  12.658   8.083   9.783
54943SOL    HW266669  12.685   7.960   9.699
54944SOL     OW66670  12.159  10.768   6.934
54944SOL    HW166671  12.234  10.749   6.990
54944SOL    HW266672  12.092  10.801   6.994
54945SOL     OW66673   0.083   9.005   5.338
54945SOL    HW166674   0.020   8.933   5.331
54945SOL    HW266675   0.080   9.049   5.253
54946SOL     OW66676  12.712   0.301  10.023
54946SOL    HW166677  12.634   0.261  10.059
54946SOL    HW266678  12.740   0.363  10.090
54947SOL     OW66679  11.798   7.628   0.395
54947SOL    HW166680  11.818   7.618   0.488
54947SOL    HW266681  11.777   7.721   0.385
54948SOL     OW66682  13.103   3.731  12.490
54948SOL    HW166683  13.188   3.695  12.464
54948SOL    HW266684  13.124   3.794  12.559
54949SOL     OW66685   6.275   4.325  12.110
54949SOL    HW166686   6.345   4.299  12.050
54949SOL    HW266687   6.297   4.280  12.192
54950SOL     OW66688   2.717   2.371  12.381
54950SOL    HW166689   2.653   2.320  12.330
54950SOL    HW266690   2.801   2.331  12.360
54951SOL     OW66691  11.277   9.620   1.200
54951SOL    HW166692  11.338   9.563   1.246
54951SOL    HW266693  11.289   9.706   1.240
54952SOL     OW66694  10.576   3.497   9.814
54952SOL    HW166695  10.509   3.546   9.860
54952SOL    HW266696  10.599   3.551   9.738
54953SOL     OW66697   6.770   1.107  14.706
54953SOL    HW166698   6.837   1.039  14.716
54953SOL    HW266699   6.797   1.157  14.630
54954SOL     OW66700   2.449  10.119   3.423
54954SOL    HW166701   2.511  10.148   3.490
54954SOL    HW266702   2.389  10.193   3.413
54955SOL     OW66703   1.929   8.522   0.276
54955SOL    HW166704   1.947   8.578   0.200
54955SOL    HW266705   2.008   8.470   0.286
54956SOL     OW66706   1.558   2.672   3.795
54956SOL    HW166707   1.624   2.650   3.861
54956SOL    HW266708   1.609   2.694   3.717
54957SOL     OW66709   9.095   4.242  10.564
54957SOL    HW166710   9.128   4.329  10.588
54957SOL    HW266711   9.168   4.201  10.518
54958SOL     OW66712   6.914   7.623   0.222
54958SOL    HW166713   6.890   7.703   0.267
54958SOL    HW266714   6.917   7.556   0.291
54959SOL     OW66715   9.585  11.443  13.189
54959SOL    HW166716   9.644  11.511  13.222
54959SOL    HW266717   9.505  11.453  13.241
54960SOL     OW66718  11.450   6.985   7.579
54960SOL    HW166719  11.505   6.945   7.512
54960SOL    HW266720  11.362   6.981   7.543
54961SOL     OW66721  10.430  11.457  10.575
54961SOL    HW166722  10.423  11.541  10.529
54961SOL    HW266723  10.402  11.392  10.511
54962SOL     OW66724  13.604   3.047  11.498
54962SOL    HW166725  13.545   3.002  11.559
54962SOL    HW266726  13.682   3.065  11.549
54963SOL     OW66727   4.074   3.366   1.827
54963SOL    HW166728   4.035   3.433   1.884
54963SOL    HW266729   4.154   3.407   1.794
54964SOL     OW66730  10.522  14.111  14.222
54964SOL    HW166731  10.490  14.022  14.232
54964SOL    HW266732  10.534  14.122  14.128
54965SOL     OW66733  10.475   5.765  11.036
54965SOL    HW166734  10.462   5.671  11.054
54965SOL    HW266735  10.393   5.806  11.065
54966SOL     OW66736   9.043   5.821   6.368
54966SOL    HW166737   9.114   5.828   6.432
54966SOL    HW266738   8.966   5.854   6.414
54967SOL     OW66739  14.852   9.498   8.032
54967SOL    HW166740  14.872   9.462   7.945
54967SOL    HW266741  14.806   9.428   8.078
54968SOL     OW66742   4.005  13.288  12.776
54968SOL    HW166743   4.028  13.374  12.811
54968SOL    HW266744   4.081  13.262  12.724
54969SOL     OW66745   4.404   7.900   8.281
54969SOL    HW166746   4.402   7.879   8.375
54969SOL    HW266747   4.360   7.985   8.275
54970SOL     OW66748   7.387  14.014   2.938
54970SOL    HW166749   7.480  13.993   2.934
54970SOL    HW266750   7.360  13.991   3.027
54971SOL     OW66751   1.175   7.701  14.758
54971SOL    HW166752   1.214   7.759  14.692
54971SOL    HW266753   1.154   7.621  14.710
54972SOL     OW66754   0.695   9.923   6.872
54972SOL    HW166755   0.714   9.935   6.779
54972SOL    HW266756   0.771   9.961   6.916
54973SOL     OW66757   5.343  13.800   8.040
54973SOL    HW166758   5.415  13.836   7.988
54973SOL    HW266759   5.385  13.736   8.098
54974SOL     OW66760  11.255   8.044  13.657
54974SOL    HW166761  11.230   8.107  13.589
54974SOL    HW266762  11.258   8.096  13.738
54975SOL     OW66763  10.203   6.782   7.076
54975SOL    HW166764  10.201   6.787   6.981
54975SOL    HW266765  10.134   6.843   7.105
54976SOL     OW66766  13.521   8.800   4.777
54976SOL    HW166767  13.509   8.740   4.851
54976SOL    HW266768  13.614   8.794   4.757
54977SOL     OW66769   6.462  10.355   3.430
54977SOL    HW166770   6.388  10.333   3.487
54977SOL    HW266771   6.517  10.276   3.431
54978SOL     OW66772   4.346  10.198  14.594
54978SOL    HW166773   4.333  10.124  14.655
54978SOL    HW266774   4.426  10.240  14.625
54979SOL     OW66775  11.473   2.145   9.258
54979SOL    HW166776  11.483   2.054   9.285
54979SOL    HW266777  11.406   2.143   9.190
54980SOL     OW66778   9.668  11.346   3.983
54980SOL    HW166779   9.750  11.361   3.934
54980SOL    HW266780   9.603  11.398   3.935
54981SOL     OW66781   1.336  14.102  12.718
54981SOL    HW166782   1.398  14.102  12.645
54981SOL    HW266783   1.363  14.175  12.774
54982SOL     OW66784  11.880   3.981  10.759
54982SOL    HW166785  11.947   4.039  10.795
54982SOL    HW266786  11.836   4.033  10.692
54983SOL     OW66787   0.553  12.582   3.893
54983SOL    HW166788   0.600  12.664   3.879
54983SOL    HW266789   0.621  12.514   3.886
54984SOL     OW66790   3.174  14.084   1.119
54984SOL    HW166791   3.222  14.158   1.081
54984SOL    HW266792   3.178  14.016   1.051
54985SOL     OW66793  14.753  14.762   2.614
54985SOL    HW166794  14.767  14.745   2.707
54985SOL    HW266795  14.658  14.773   2.606
54986SOL     OW66796  13.792  14.188  13.984
54986SOL    HW166797  13.826  14.127  13.918
54986SOL    HW266798  13.862  14.252  13.996
54987SOL     OW66799   1.258  13.440   1.239
54987SOL    HW166800   1.283  13.526   1.273
54987SOL    HW266801   1.325  13.420   1.172
54988SOL     OW66802   2.464   1.649   9.092
54988SOL    HW166803   2.535   1.712   9.083
54988SOL    HW266804   2.417   1.675   9.171
54989SOL     OW66805   8.949   4.223  10.996
54989SOL    HW166806   8.935   4.165  11.071
54989SOL    HW266807   8.978   4.306  11.033
54990SOL     OW66808  11.736  14.153  13.320
54990SOL    HW166809  11.691  14.069  13.310
54990SOL    HW266810  11.775  14.169  13.234
54991SOL     OW66811   9.617   2.582   3.091
54991SOL    HW166812   9.573   2.530   3.158
54991SOL    HW266813   9.555   2.584   3.018
54992SOL     OW66814  13.336   7.931  11.327
54992SOL    HW166815  13.319   8.020  11.359
54992SOL    HW266816  13.392   7.892  11.394
54993SOL     OW66817   9.328   3.040   2.544
54993SOL    HW166818   9.359   3.053   2.634
54993SOL    HW266819   9.274   2.961   2.548
54994SOL     OW66820   6.953   8.433   1.986
54994SOL    HW166821   6.949   8.506   2.048
54994SOL    HW266822   7.044   8.430   1.958
54995SOL     OW66823   4.364   4.647   3.873
54995SOL    HW166824   4.286   4.595   3.892
54995SOL    HW266825   4.347   4.684   3.786
54996SOL     OW66826   5.856   1.810   0.543
54996SOL    HW166827   5.802   1.754   0.599
54996SOL    HW266828   5.803   1.889   0.530
54997SOL     OW66829   4.844  10.411   2.725
54997SOL    HW166830   4.785  10.472   2.681
54997SOL    HW266831   4.876  10.354   2.655
54998SOL     OW66832   1.619   4.576  13.738
54998SOL    HW166833   1.560   4.529  13.797
54998SOL    HW266834   1.568   4.653  13.709
54999SOL     OW66835   5.423  14.557   2.756
54999SOL    HW166836   5.331  14.581   2.753
54999SOL    HW266837   5.429  14.491   2.824
55000SOL     OW66838   9.085  13.151   5.694
55000SOL    HW166839   9.007  13.098   5.709
55000SOL    HW266840   9.131  13.108   5.622
55001SOL     OW66841   0.441  11.979   3.185
55001SOL    HW166842   0.451  11.993   3.279
55001SOL    HW266843   0.387  11.900   3.178
55002SOL     OW66844   3.508   1.019   5.453
55002SOL    HW166845   3.595   0.981   5.464
55002SOL    HW266846   3.496   1.073   5.531
55003SOL     OW66847   6.785   0.096   8.570
55003SOL    HW166848   6.726   0.046   8.514
55003SOL    HW266849   6.742   0.096   8.656
55004SOL     OW66850   1.323   8.207  12.624
55004SOL    HW166851   1.376   8.230  12.547
55004SOL    HW266852   1.236   8.190  12.589
55005SOL     OW66853   3.838  12.431   8.852
55005SOL    HW166854   3.889  12.493   8.801
55005SOL    HW266855   3.840  12.350   8.799
55006SOL     OW66856   5.082  12.871   8.110
55006SOL    HW166857   5.037  12.956   8.108
55006SOL    HW266858   5.030  12.819   8.172
55007SOL     OW66859   4.533   5.904   7.708
55007SOL    HW166860   4.506   5.856   7.629
55007SOL    HW266861   4.527   5.838   7.778
55008SOL     OW66862   3.993  12.517   4.862
55008SOL    HW166863   4.022  12.607   4.875
55008SOL    HW266864   3.923  12.505   4.926
55009SOL     OW66865   6.669  11.730   4.366
55009SOL    HW166866   6.603  11.798   4.352
55009SOL    HW266867   6.659  11.671   4.291
55010SOL     OW66868   2.226  11.285   1.873
55010SOL    HW166869   2.155  11.259   1.814
55010SOL    HW266870   2.270  11.203   1.895
55011SOL     OW66871  14.080  12.817   1.988
55011SOL    HW166872  13.987  12.794   1.992
55011SOL    HW266873  14.100  12.820   1.895
55012SOL     OW66874   5.185   4.787   6.738
55012SOL    HW166875   5.156   4.708   6.784
55012SOL    HW266876   5.117   4.852   6.756
55013SOL     OW66877  10.404  10.962  13.491
55013SOL    HW166878  10.449  11.019  13.429
55013SOL    HW266879  10.475  10.917  13.538
55014SOL     OW66880   1.593   0.426   6.885
55014SOL    HW166881   1.632   0.492   6.942
55014SOL    HW266882   1.668   0.378   6.850
55015SOL     OW66883   8.520  13.657  12.044
55015SOL    HW166884   8.551  13.720  12.109
55015SOL    HW266885   8.587  13.590  12.041
55016SOL     OW66886  13.229   0.686   5.736
55016SOL    HW166887  13.249   0.768   5.691
55016SOL    HW266888  13.302   0.628   5.713
55017SOL     OW66889   6.888   4.433   5.519
55017SOL    HW166890   6.896   4.473   5.433
55017SOL    HW266891   6.977   4.432   5.554
55018SOL     OW66892   0.047   3.359   1.472
55018SOL    HW166893   0.106   3.290   1.500
55018SOL    HW266894   0.104   3.429   1.441
55019SOL     OW66895   8.744   9.376  13.435
55019SOL    HW166896   8.654   9.397  13.408
55019SOL    HW266897   8.737   9.358  13.528
55020SOL     OW66898  12.642   0.479  13.947
55020SOL    HW166899  12.651   0.500  14.040
55020SOL    HW266900  12.701   0.404  13.933
55021SOL     OW66901  10.741   4.844   9.199
55021SOL    HW166902  10.666   4.899   9.176
55021SOL    HW266903  10.763   4.870   9.288
55022SOL     OW66904  13.200  13.545   3.830
55022SOL    HW166905  13.129  13.525   3.769
55022SOL    HW266906  13.163  13.608   3.891
55023SOL     OW66907   3.309  12.498   0.137
55023SOL    HW166908   3.394  12.541   0.130
55023SOL    HW266909   3.320  12.416   0.090
55024SOL     OW66910   2.698   3.829   1.230
55024SOL    HW166911   2.748   3.767   1.176
55024SOL    HW266912   2.614   3.787   1.243
55025SOL     OW66913  13.750   7.338   3.250
55025SOL    HW166914  13.716   7.426   3.269
55025SOL    HW266915  13.783   7.344   3.160
55026SOL     OW66916   6.865  11.934   6.078
55026SOL    HW166917   6.812  11.856   6.061
55026SOL    HW266918   6.802  12.005   6.086
55027SOL     OW66919   2.545  13.760   7.112
55027SOL    HW166920   2.593  13.693   7.160
55027SOL    HW266921   2.481  13.711   7.060
55028SOL     OW66922   9.329  14.341   6.168
55028SOL    HW166923   9.260  14.280   6.193
55028SOL    HW266924   9.376  14.360   6.249
55029SOL     OW66925   6.688   3.601   7.184
55029SOL    HW166926   6.769   3.648   7.168
55029SOL    HW266927   6.687   3.531   7.118
55030SOL     OW66928  10.733   4.490  11.052
55030SOL    HW166929  10.661   4.462  10.996
55030SOL    HW266930  10.768   4.568  11.008
55031SOL     OW66931   0.608   9.551   9.031
55031SOL    HW166932   0.636   9.500   8.955
55031SOL    HW266933   0.669   9.526   9.101
55032SOL     OW66934   6.115   8.659   0.876
55032SOL    HW166935   6.039   8.680   0.930
55032SOL    HW266936   6.162   8.592   0.926
55033SOL     OW66937   8.944  12.763   2.250
55033SOL    HW166938   8.866  12.749   2.197
55033SOL    HW266939   8.920  12.833   2.310
55034SOL     OW66940  14.819   6.399   4.988
55034SOL    HW166941  14.766   6.402   4.908
55034SOL    HW266942  14.761   6.430   5.057
55035SOL     OW66943   8.521   0.288   7.332
55035SOL    HW166944   8.533   0.379   7.307
55035SOL    HW266945   8.447   0.258   7.279
55036SOL     OW66946   3.432  12.894   5.293
55036SOL    HW166947   3.504  12.839   5.263
55036SOL    HW266948   3.370  12.894   5.220
55037SOL     OW66949   8.980   2.826   9.183
55037SOL    HW166950   9.055   2.811   9.125
55037SOL    HW266951   9.019   2.849   9.267
55038SOL     OW66952   7.684   1.665   7.359
55038SOL    HW166953   7.777   1.680   7.339
55038SOL    HW266954   7.683   1.582   7.407
55039SOL     OW66955   9.451  14.863   6.095
55039SOL    HW166956   9.399   0.038   6.032
55039SOL    HW266957   9.397  14.787   6.117
55040SOL     OW66958   3.725   6.815  10.481
55040SOL    HW166959   3.672   6.763  10.421
55040SOL    HW266960   3.670   6.826  10.558
55041SOL     OW66961  10.693   8.030  14.249
55041SOL    HW166962  10.770   8.085  14.258
55041SOL    HW266963  10.622   8.091  14.228
55042SOL     OW66964   9.100   1.857   4.649
55042SOL    HW166965   9.082   1.949   4.670
55042SOL    HW266966   9.100   1.854   4.554
55043SOL     OW66967   8.871  11.322  14.743
55043SOL    HW166968   8.950  11.268  14.742
55043SOL    HW266969   8.799  11.260  14.728
55044SOL     OW66970   9.727   9.637   0.912
55044SOL    HW166971   9.816   9.657   0.885
55044SOL    HW266972   9.722   9.541   0.909
55045SOL     OW66973  11.600   1.169   5.350
55045SOL    HW166974  11.624   1.250   5.396
55045SOL    HW266975  11.567   1.111   5.418
55046SOL     OW66976   6.865   8.948   7.084
55046SOL    HW166977   6.775   8.982   7.093
55046SOL    HW266978   6.856   8.853   7.092
55047SOL     OW66979  12.004  12.136   5.053
55047SOL    HW166980  12.086  12.183   5.043
55047SOL    HW266981  11.981  12.146   5.145
55048SOL     OW66982   9.430   0.033   5.218
55048SOL    HW166983   9.409  14.852   5.143
55048SOL    HW266984   9.390  14.863   5.293
55049SOL     OW66985   4.404   6.292   4.701
55049SOL    HW166986   4.457   6.320   4.777
55049SOL    HW266987   4.436   6.204   4.682
55050SOL     OW66988   2.581   5.287   5.327
55050SOL    HW166989   2.507   5.246   5.372
55050SOL    HW266990   2.561   5.380   5.329
55051SOL     OW66991   7.291   6.238   8.746
55051SOL    HW166992   7.349   6.225   8.670
55051SOL    HW266993   7.213   6.187   8.725
55052SOL     OW66994   9.964   1.768   6.825
55052SOL    HW166995   9.973   1.839   6.762
55052SOL    HW266996   9.873   1.739   6.816
55053SOL     OW66997   8.223   3.135  13.348
55053SOL    HW166998   8.198   3.130  13.441
55053SOL    HW266999   8.307   3.180  13.348
55054SOL     OW67000  11.653   0.619   4.302
55054SOL    HW167001  11.741   0.616   4.263
55054SOL    HW267002  11.600   0.563   4.246
55055SOL     OW67003   5.062  10.597   6.201
55055SOL    HW167004   5.091  10.549   6.279
55055SOL    HW267005   5.121  10.566   6.132
55056SOL     OW67006   6.209  13.166   7.020
55056SOL    HW167007   6.152  13.096   7.050
55056SOL    HW267008   6.246  13.133   6.938
55057SOL     OW67009   7.141   4.315   7.542
55057SOL    HW167010   7.082   4.375   7.588
55057SOL    HW267011   7.202   4.286   7.610
55058SOL     OW67012   6.373   2.642   0.152
55058SOL    HW167013   6.400   2.590   0.075
55058SOL    HW267014   6.356   2.729   0.116
55059SOL     OW67015   6.823  12.338   8.068
55059SOL    HW167016   6.867  12.412   8.112
55059SOL    HW267017   6.895  12.279   8.044
55060SOL     OW67018  13.088   3.114   1.853
55060SOL    HW167019  13.069   3.025   1.883
55060SOL    HW267020  13.183   3.121   1.855
55061SOL     OW67021  12.184   5.565   8.962
55061SOL    HW167022  12.187   5.642   9.018
55061SOL    HW267023  12.246   5.585   8.891
55062SOL     OW67024   1.336   4.517   2.818
55062SOL    HW167025   1.345   4.601   2.863
55062SOL    HW267026   1.291   4.539   2.737
55063SOL     OW67027   3.797   1.745   2.113
55063SOL    HW167028   3.712   1.757   2.155
55063SOL    HW267029   3.810   1.825   2.062
55064SOL     OW67030  10.367   4.765   5.038
55064SOL    HW167031  10.335   4.852   5.058
55064SOL    HW267032  10.346   4.752   4.945
55065SOL     OW67033  10.728  11.442   5.291
55065SOL    HW167034  10.683  11.359   5.306
55065SOL    HW267035  10.683  11.505   5.347
55066SOL     OW67036   0.297   7.265   5.168
55066SOL    HW167037   0.325   7.322   5.096
55066SOL    HW267038   0.233   7.205   5.129
55067SOL     OW67039   7.862   2.892   5.217
55067SOL    HW167040   7.790   2.904   5.278
55067SOL    HW267041   7.894   2.981   5.199
55068SOL     OW67042   0.903   6.315   8.176
55068SOL    HW167043   0.964   6.374   8.221
55068SOL    HW267044   0.856   6.371   8.114
55069SOL     OW67045   7.643   6.842  12.712
55069SOL    HW167046   7.668   6.769  12.769
55069SOL    HW267047   7.702   6.836  12.637
55070SOL     OW67048   9.202  10.211   7.691
55070SOL    HW167049   9.111  10.193   7.668
55070SOL    HW267050   9.253  10.171   7.621
55071SOL     OW67051   5.762   1.005  12.732
55071SOL    HW167052   5.671   1.034  12.735
55071SOL    HW267053   5.810   1.072  12.781
55072SOL     OW67054   8.287   2.470   0.362
55072SOL    HW167055   8.237   2.493   0.283
55072SOL    HW267056   8.230   2.410   0.410
55073SOL     OW67057   2.812   2.075  11.024
55073SOL    HW167058   2.747   2.138  11.053
55073SOL    HW267059   2.855   2.046  11.104
55074SOL     OW67060  11.641  11.363   9.847
55074SOL    HW167061  11.673  11.416   9.774
55074SOL    HW267062  11.552  11.396   9.864
55075SOL     OW67063  14.510  11.059   7.752
55075SOL    HW167064  14.430  11.088   7.709
55075SOL    HW267065  14.503  10.964   7.756
55076SOL     OW67066   1.311   6.192   4.024
55076SOL    HW167067   1.273   6.273   4.059
55076SOL    HW267068   1.239   6.148   3.980
55077SOL     OW67069   6.145  14.726   2.628
55077SOL    HW167070   6.185  14.716   2.542
55077SOL    HW267071   6.051  14.734   2.610
55078SOL     OW67072  10.884   6.500  10.308
55078SOL    HW167073  10.908   6.528  10.220
55078SOL    HW267074  10.839   6.417  10.294
55079SOL     OW67075   1.547  14.421  13.661
55079SOL    HW167076   1.630  14.389  13.624
55079SOL    HW267077   1.490  14.432  13.585
55080SOL     OW67078   1.989   0.158   3.878
55080SOL    HW167079   2.063   0.148   3.938
55080SOL    HW267080   1.926   0.212   3.927
55081SOL     OW67081   0.434   7.271  11.507
55081SOL    HW167082   0.416   7.328  11.432
55081SOL    HW267083   0.383   7.192  11.490
55082SOL     OW67084   5.345   4.355   5.455
55082SOL    HW167085   5.292   4.346   5.534
55082SOL    HW267086   5.285   4.335   5.383
55083SOL     OW67087   6.770   2.908  12.473
55083SOL    HW167088   6.825   2.967  12.421
55083SOL    HW267089   6.719   2.860  12.408
55084SOL     OW67090   7.656  13.066  13.607
55084SOL    HW167091   7.714  13.088  13.680
55084SOL    HW267092   7.588  13.011  13.646
55085SOL     OW67093  14.160  11.582  10.434
55085SOL    HW167094  14.107  11.576  10.355
55085SOL    HW267095  14.108  11.539  10.502
55086SOL     OW67096   0.313  14.088   8.661
55086SOL    HW167097   0.368  14.140   8.603
55086SOL    HW267098   0.262  14.032   8.602
55087SOL     OW67099  12.107  14.851   7.952
55087SOL    HW167100  12.202  14.836   7.957
55087SOL    HW267101  12.098   0.047   7.887
55088SOL     OW67102   0.989   3.226   9.534
55088SOL    HW167103   1.021   3.137   9.519
55088SOL    HW267104   1.007   3.271   9.451
55089SOL     OW67105  12.035   7.246   6.938
55089SOL    HW167106  11.950   7.221   6.973
55089SOL    HW267107  12.098   7.209   6.999
55090SOL     OW67108   9.528  12.547   4.408
55090SOL    HW167109   9.530  12.638   4.438
55090SOL    HW267110   9.591  12.502   4.464
55091SOL     OW67111   9.287  13.513  11.289
55091SOL    HW167112   9.289  13.445  11.222
55091SOL    HW267113   9.354  13.488  11.352
55092SOL     OW67114   3.170  10.538  13.175
55092SOL    HW167115   3.188  10.542  13.081
55092SOL    HW267116   3.196  10.450  13.201
55093SOL     OW67117   2.147   5.248   5.942
55093SOL    HW167118   2.145   5.202   5.858
55093SOL    HW267119   2.057   5.247   5.973
55094SOL     OW67120  14.305  11.664  13.113
55094SOL    HW167121  14.372  11.598  13.095
55094SOL    HW267122  14.348  11.747  13.093
55095SOL     OW67123  12.868   3.706   0.698
55095SOL    HW167124  12.916   3.728   0.618
55095SOL    HW267125  12.883   3.781   0.756
55096SOL     OW67126   9.863   0.653   0.809
55096SOL    HW167127   9.808   0.731   0.805
55096SOL    HW267128   9.872   0.635   0.903
55097SOL     OW67129   8.835   9.514   8.042
55097SOL    HW167130   8.917   9.507   7.993
55097SOL    HW267131   8.862   9.540   8.131
55098SOL     OW67132   8.096  14.746  12.958
55098SOL    HW167133   8.032  14.793  13.012
55098SOL    HW267134   8.181  14.774  12.991
55099SOL     OW67135  13.353   0.605  14.090
55099SOL    HW167136  13.329   0.534  14.031
55099SOL    HW267137  13.392   0.672  14.034
55100SOL     OW67138   0.295  12.062  11.915
55100SOL    HW167139   0.201  12.068  11.897
55100SOL    HW267140   0.325  12.153  11.917
55101SOL     OW67141   9.455   4.121   5.128
55101SOL    HW167142   9.535   4.110   5.077
55101SOL    HW267143   9.454   4.214   5.151
55102SOL     OW67144   8.262   0.566  10.239
55102SOL    HW167145   8.338   0.581  10.183
55102SOL    HW267146   8.227   0.653  10.257
55103SOL     OW67147   7.785  10.555   7.513
55103SOL    HW167148   7.698  10.593   7.521
55103SOL    HW267149   7.780  10.498   7.436
55104SOL     OW67150   8.299   8.124   4.980
55104SOL    HW167151   8.384   8.168   4.979
55104SOL    HW267152   8.239   8.190   5.013
55105SOL     OW67153  11.328   9.760   7.457
55105SOL    HW167154  11.418   9.765   7.424
55105SOL    HW267155  11.277   9.727   7.383
55106SOL     OW67156  13.299   1.262  11.774
55106SOL    HW167157  13.210   1.237  11.750
55106SOL    HW267158  13.355   1.196  11.733
55107SOL     OW67159   5.811   8.779   1.601
55107SOL    HW167160   5.890   8.733   1.573
55107SOL    HW267161   5.813   8.774   1.697
55108SOL     OW67162   8.464  11.856   1.409
55108SOL    HW167163   8.395  11.850   1.475
55108SOL    HW267164   8.528  11.916   1.447
55109SOL     OW67165   1.935   9.509  10.477
55109SOL    HW167166   1.947   9.592  10.523
55109SOL    HW267167   1.861   9.525  10.418
55110SOL     OW67168   6.623  12.633  12.870
55110SOL    HW167169   6.639  12.555  12.922
55110SOL    HW267170   6.620  12.602  12.779
55111SOL     OW67171   1.782   9.278  14.380
55111SOL    HW167172   1.740   9.208  14.429
55111SOL    HW267173   1.876   9.258  14.387
55112SOL     OW67174  14.799   7.197   2.012
55112SOL    HW167175  14.802   7.193   1.916
55112SOL    HW267176   0.001   7.251   2.035
55113SOL     OW67177  12.867   2.555   0.814
55113SOL    HW167178  12.793   2.562   0.754
55113SOL    HW267179  12.938   2.602   0.771
55114SOL     OW67180   8.465   1.167  11.935
55114SOL    HW167181   8.385   1.186  11.984
55114SOL    HW267182   8.463   1.072  11.921
55115SOL     OW67183   3.428   2.697   0.980
55115SOL    HW167184   3.431   2.778   0.928
55115SOL    HW267185   3.358   2.645   0.940
55116SOL     OW67186   5.081  10.488   6.920
55116SOL    HW167187   5.008  10.449   6.967
55116SOL    HW267188   5.044  10.566   6.879
55117SOL     OW67189   7.782   1.862  12.124
55117SOL    HW167190   7.810   1.896  12.209
55117SOL    HW267191   7.699   1.907  12.107
55118SOL     OW67192   0.705   2.709   2.888
55118SOL    HW167193   0.682   2.770   2.958
55118SOL    HW267194   0.745   2.634   2.933
55119SOL     OW67195  11.254   1.580   2.461
55119SOL    HW167196  11.303   1.555   2.540
55119SOL    HW267197  11.317   1.573   2.390
55120SOL     OW67198   7.494   6.632   2.261
55120SOL    HW167199   7.470   6.542   2.243
55120SOL    HW267200   7.489   6.676   2.176
55121SOL     OW67201   5.811   6.867   8.268
55121SOL    HW167202   5.717   6.863   8.248
55121SOL    HW267203   5.815   6.918   8.349
55122SOL     OW67204  12.767  11.246  14.356
55122SOL    HW167205  12.801  11.161  14.329
55122SOL    HW267206  12.814  11.267  14.436
55123SOL     OW67207   6.340   9.989   9.453
55123SOL    HW167208   6.416  10.019   9.402
55123SOL    HW267209   6.370   9.909   9.496
55124SOL     OW67210  12.182   3.413  11.007
55124SOL    HW167211  12.238   3.489  10.990
55124SOL    HW267212  12.093   3.445  10.992
55125SOL     OW67213   4.071   9.082  12.651
55125SOL    HW167214   4.152   9.076  12.701
55125SOL    HW267215   4.096   9.129  12.571
55126SOL     OW67216   0.110  10.407   1.195
55126SOL    HW167217   0.130  10.400   1.289
55126SOL    HW267218   0.141  10.324   1.158
55127SOL     OW67219  10.045  13.739  11.635
55127SOL    HW167220  10.052  13.805  11.704
55127SOL    HW267221  10.008  13.786  11.560
55128SOL     OW67222   8.875   3.295  11.739
55128SOL    HW167223   8.893   3.208  11.775
55128SOL    HW267224   8.929   3.354  11.792
55129SOL     OW67225  12.052   0.801  11.195
55129SOL    HW167226  12.015   0.885  11.224
55129SOL    HW267227  12.099   0.767  11.271
55130SOL     OW67228  11.904   0.165  12.237
55130SOL    HW167229  11.870   0.223  12.169
55130SOL    HW267230  11.926   0.084  12.191
55131SOL     OW67231  13.729   2.802   3.961
55131SOL    HW167232  13.694   2.843   4.040
55131SOL    HW267233  13.714   2.865   3.891
55132SOL     OW67234   9.076   1.984   8.171
55132SOL    HW167235   9.077   1.889   8.183
55132SOL    HW267236   9.166   2.006   8.147
55133SOL     OW67237   6.399   5.425  11.125
55133SOL    HW167238   6.352   5.507  11.113
55133SOL    HW267239   6.478   5.435  11.071
55134SOL     OW67240   4.547  11.042   4.202
55134SOL    HW167241   4.580  11.087   4.124
55134SOL    HW267242   4.455  11.067   4.208
55135SOL     OW67243   8.419  14.387   7.365
55135SOL    HW167244   8.509  14.358   7.380
55135SOL    HW267245   8.405  14.375   7.271
55136SOL     OW67246  12.317   2.766  11.831
55136SOL    HW167247  12.285   2.856  11.824
55136SOL    HW267248  12.371   2.766  11.910
55137SOL     OW67249   9.271   1.711   3.006
55137SOL    HW167250   9.277   1.788   2.950
55137SOL    HW267251   9.349   1.714   3.061
55138SOL     OW67252   0.218   9.042   6.596
55138SOL    HW167253   0.265   8.961   6.579
55138SOL    HW267254   0.260   9.107   6.540
55139SOL     OW67255   2.777  14.688   8.046
55139SOL    HW167256   2.811  14.775   8.068
55139SOL    HW267257   2.807  14.673   7.957
55140SOL     OW67258  11.888  12.813   1.697
55140SOL    HW167259  11.875  12.907   1.711
55140SOL    HW267260  11.982  12.803   1.684
55141SOL     OW67261  12.593   3.275   6.627
55141SOL    HW167262  12.639   3.196   6.598
55141SOL    HW267263  12.662   3.342   6.632
55142SOL     OW67264   6.536   3.626  13.140
55142SOL    HW167265   6.559   3.633  13.232
55142SOL    HW267266   6.445   3.596  13.140
55143SOL     OW67267  10.171   7.186   4.772
55143SOL    HW167268  10.239   7.124   4.798
55143SOL    HW267269  10.109   7.135   4.720
55144SOL     OW67270  12.050  11.397   8.774
55144SOL    HW167271  12.040  11.318   8.827
55144SOL    HW267272  12.124  11.379   8.717
55145SOL     OW67273   7.306  11.234   2.326
55145SOL    HW167274   7.305  11.185   2.244
55145SOL    HW267275   7.384  11.290   2.320
55146SOL     OW67276   7.711   2.066  13.395
55146SOL    HW167277   7.627   2.104  13.420
55146SOL    HW267278   7.739   2.117  13.319
55147SOL     OW67279   4.555   2.336  12.615
55147SOL    HW167280   4.631   2.341  12.557
55147SOL    HW267281   4.497   2.406  12.584
55148SOL     OW67282  10.462   0.538   0.160
55148SOL    HW167283  10.402   0.545   0.234
55148SOL    HW267284  10.544   0.507   0.198
55149SOL     OW67285  11.867  13.821   9.717
55149SOL    HW167286  11.863  13.800   9.623
55149SOL    HW267287  11.938  13.885   9.724
55150SOL     OW67288   5.171   5.848   9.458
55150SOL    HW167289   5.105   5.903   9.417
55150SOL    HW267290   5.241   5.908   9.483
55151SOL     OW67291  11.981   6.485   8.625
55151SOL    HW167292  11.993   6.390   8.629
55151SOL    HW267293  11.891   6.499   8.653
55152SOL     OW67294   3.211   2.290   3.890
55152SOL    HW167295   3.236   2.334   3.971
55152SOL    HW267296   3.168   2.357   3.838
55153SOL     OW67297  14.801   7.713  13.292
55153SOL    HW167298  14.752   7.778  13.241
55153SOL    HW267299  14.745   7.694  13.367
55154SOL     OW67300   7.892  12.276   2.208
55154SOL    HW167301   7.948  12.242   2.138
55154SOL    HW267302   7.898  12.211   2.278
55155SOL     OW67303  10.058  13.000  11.455
55155SOL    HW167304  10.111  12.975  11.531
55155SOL    HW267305   9.989  13.056  11.492
55156SOL     OW67306  11.169  14.302  12.716
55156SOL    HW167307  11.075  14.298  12.738
55156SOL    HW267308  11.171  14.296  12.621
55157SOL     OW67309  10.751   8.112  14.674
55157SOL    HW167310  10.802   8.067  14.607
55157SOL    HW267311  10.660   8.090  14.654
55158SOL     OW67312   5.603   3.366   5.183
55158SOL    HW167313   5.666   3.376   5.111
55158SOL    HW267314   5.633   3.288   5.230
55159SOL     OW67315   9.639  11.898   9.352
55159SOL    HW167316   9.572  11.965   9.340
55159SOL    HW267317   9.695  11.932   9.423
55160SOL     OW67318  11.041  11.943   4.938
55160SOL    HW167319  10.971  11.997   4.976
55160SOL    HW267320  11.015  11.853   4.957
55161SOL     OW67321  13.363   2.019   3.423
55161SOL    HW167322  13.441   2.062   3.459
55161SOL    HW267323  13.301   2.091   3.409
55162SOL     OW67324   0.523  14.168   8.421
55162SOL    HW167325   0.491  14.199   8.336
55162SOL    HW267326   0.554  14.079   8.405
55163SOL     OW67327   2.098  13.794   0.621
55163SOL    HW167328   2.051  13.837   0.548
55163SOL    HW267329   2.138  13.867   0.669
55164SOL     OW67330   2.645   8.788   9.283
55164SOL    HW167331   2.695   8.751   9.210
55164SOL    HW267332   2.631   8.714   9.342
55165SOL     OW67333   4.699  12.450   8.939
55165SOL    HW167334   4.713  12.518   8.874
55165SOL    HW267335   4.608  12.462   8.968
55166SOL     OW67336   2.907   0.210   0.248
55166SOL    HW167337   2.950   0.280   0.298
55166SOL    HW267338   2.920   0.131   0.301
55167SOL     OW67339  10.321  12.207   5.821
55167SOL    HW167340  10.226  12.208   5.814
55167SOL    HW267341  10.344  12.293   5.857
55168SOL     OW67342   0.729   9.846   0.851
55168SOL    HW167343   0.672   9.893   0.912
55168SOL    HW267344   0.676   9.772   0.821
55169SOL     OW67345  13.570   7.772   5.811
55169SOL    HW167346  13.504   7.752   5.746
55169SOL    HW267347  13.566   7.698   5.873
55170SOL     OW67348   3.658   8.513   2.309
55170SOL    HW167349   3.642   8.447   2.376
55170SOL    HW267350   3.572   8.549   2.289
55171SOL     OW67351   1.712   7.311  12.433
55171SOL    HW167352   1.658   7.239  12.401
55171SOL    HW267353   1.801   7.288  12.407
55172SOL     OW67354   0.933   8.703   9.949
55172SOL    HW167355   0.925   8.661  10.034
55172SOL    HW267356   0.845   8.736   9.930
55173SOL     OW67357   5.757   0.566  12.549
55173SOL    HW167358   5.835   0.600  12.592
55173SOL    HW267359   5.684   0.611  12.593
55174SOL     OW67360  10.908  11.849   9.839
55174SOL    HW167361  10.962  11.928   9.847
55174SOL    HW267362  10.843  11.871   9.773
55175SOL     OW67363   9.125   2.010  14.444
55175SOL    HW167364   9.121   1.956  14.364
55175SOL    HW267365   9.087   1.954  14.512
55176SOL     OW67366  13.113  12.324  12.642
55176SOL    HW167367  13.175  12.371  12.697
55176SOL    HW267368  13.102  12.240  12.687
55177SOL     OW67369  11.202  12.786  11.130
55177SOL    HW167370  11.275  12.779  11.192
55177SOL    HW267371  11.129  12.820  11.181
55178SOL     OW67372   3.862   1.353   0.479
55178SOL    HW167373   3.818   1.283   0.430
55178SOL    HW267374   3.939   1.311   0.518
55179SOL     OW67375   7.156   0.025  12.339
55179SOL    HW167376   7.180  14.859  12.255
55179SOL    HW267377   7.234   0.073  12.366
55180SOL     OW67378   7.593  10.814   6.998
55180SOL    HW167379   7.562  10.753   6.931
55180SOL    HW267380   7.669  10.856   6.958
55181SOL     OW67381   0.810  13.085   2.184
55181SOL    HW167382   0.845  13.165   2.224
55181SOL    HW267383   0.826  13.097   2.090
55182SOL     OW67384   0.259   3.838   5.192
55182SOL    HW167385   0.226   3.801   5.274
55182SOL    HW267386   0.307   3.766   5.152
55183SOL     OW67387  14.046   9.980   9.203
55183SOL    HW167388  14.005  10.056   9.246
55183SOL    HW267389  14.060  10.008   9.113
55184SOL     OW67390  10.942  12.337   9.665
55184SOL    HW167391  10.911  12.361   9.578
55184SOL    HW267392  10.924  12.415   9.719
55185SOL     OW67393  11.426  11.569   5.327
55185SOL    HW167394  11.486  11.505   5.289
55185SOL    HW267395  11.476  11.611   5.396
55186SOL     OW67396   5.643  13.044  12.173
55186SOL    HW167397   5.616  12.955  12.150
55186SOL    HW267398   5.644  13.045  12.269
55187SOL     OW67399   8.221   4.546  10.217
55187SOL    HW167400   8.275   4.536  10.296
55187SOL    HW267401   8.191   4.458  10.198
55188SOL     OW67402  14.418   6.531  13.564
55188SOL    HW167403  14.508   6.555  13.545
55188SOL    HW267404  14.389   6.483  13.486
55189SOL     OW67405  10.309   9.879  13.201
55189SOL    HW167406  10.220   9.849  13.221
55189SOL    HW267407  10.318   9.868  13.107
55190SOL     OW67408   6.369  12.445   2.126
55190SOL    HW167409   6.338  12.387   2.196
55190SOL    HW267410   6.298  12.508   2.114
55191SOL     OW67411   1.152  12.031  10.608
55191SOL    HW167412   1.228  11.998  10.559
55191SOL    HW267413   1.116  11.954  10.651
55192SOL     OW67414  13.563  13.527  13.973
55192SOL    HW167415  13.563  13.549  13.880
55192SOL    HW267416  13.647  13.482  13.986
55193SOL     OW67417  13.662   9.123  11.638
55193SOL    HW167418  13.707   9.066  11.576
55193SOL    HW267419  13.664   9.209  11.597
55194SOL     OW67420   0.136   2.384   7.247
55194SOL    HW167421   0.148   2.365   7.340
55194SOL    HW267422   0.042   2.384   7.234
55195SOL     OW67423  14.258   5.880   9.022
55195SOL    HW167424  14.166   5.877   9.049
55195SOL    HW267425  14.305   5.905   9.101
55196SOL     OW67426   9.418   8.018  12.509
55196SOL    HW167427   9.472   8.002  12.431
55196SOL    HW267428   9.464   8.087  12.556
55197SOL     OW67429   2.791   7.243   1.153
55197SOL    HW167430   2.714   7.189   1.171
55197SOL    HW267431   2.840   7.242   1.235
55198SOL     OW67432   8.971   4.939   7.166
55198SOL    HW167433   8.919   5.019   7.156
55198SOL    HW267434   8.971   4.921   7.260
55199SOL     OW67435   3.342  11.425   0.526
55199SOL    HW167436   3.330  11.350   0.583
55199SOL    HW267437   3.348  11.500   0.585
55200SOL     OW67438  13.784   0.398   7.004
55200SOL    HW167439  13.856   0.384   7.065
55200SOL    HW267440  13.755   0.488   7.022
55201SOL     OW67441  10.868   2.279   8.743
55201SOL    HW167442  10.922   2.357   8.735
55201SOL    HW267443  10.779   2.311   8.746
55202SOL     OW67444   3.820   3.161  10.620
55202SOL    HW167445   3.808   3.244  10.573
55202SOL    HW267446   3.839   3.097  10.551
55203SOL     OW67447   9.823   8.737   8.383
55203SOL    HW167448   9.793   8.648   8.396
55203SOL    HW267449   9.746   8.792   8.402
55204SOL     OW67450   3.969  12.396   2.195
55204SOL    HW167451   4.046  12.448   2.171
55204SOL    HW267452   3.926  12.376   2.112
55205SOL     OW67453   5.946  13.552  11.820
55205SOL    HW167454   6.005  13.502  11.876
55205SOL    HW267455   5.888  13.597  11.881
55206SOL     OW67456   8.335   9.868  13.118
55206SOL    HW167457   8.381   9.899  13.040
55206SOL    HW267458   8.372   9.920  13.190
55207SOL     OW67459   3.564  14.211  10.481
55207SOL    HW167460   3.568  14.291  10.534
55207SOL    HW267461   3.614  14.146  10.531
55208SOL     OW67462   7.218  14.738  12.617
55208SOL    HW167463   7.192  14.822  12.580
55208SOL    HW267464   7.280  14.702  12.554
55209SOL     OW67465  13.853  13.050  14.518
55209SOL    HW167466  13.855  13.068  14.612
55209SOL    HW267467  13.860  13.137  14.477
55210SOL     OW67468   4.698   8.503   2.064
55210SOL    HW167469   4.747   8.526   1.986
55210SOL    HW267470   4.631   8.441   2.033
55211SOL     OW67471   4.357  14.162  11.149
55211SOL    HW167472   4.394  14.244  11.183
55211SOL    HW267473   4.410  14.093  11.189
55212SOL     OW67474  12.483   1.780   2.148
55212SOL    HW167475  12.398   1.821   2.133
55212SOL    HW267476  12.542   1.853   2.165
55213SOL     OW67477   6.576  10.207  10.886
55213SOL    HW167478   6.580  10.256  10.968
55213SOL    HW267479   6.565  10.274  10.818
55214SOL     OW67480   4.224  14.042   3.287
55214SOL    HW167481   4.276  14.039   3.367
55214SOL    HW267482   4.277  14.093   3.225
55215SOL     OW67483  12.166   6.965  10.769
55215SOL    HW167484  12.107   6.921  10.831
55215SOL    HW267485  12.234   6.901  10.750
55216SOL     OW67486   0.664   4.257  12.393
55216SOL    HW167487   0.655   4.230  12.484
55216SOL    HW267488   0.619   4.342  12.388
55217SOL     OW67489   1.329  14.101   8.412
55217SOL    HW167490   1.407  14.127   8.364
55217SOL    HW267491   1.360  14.035   8.475
55218SOL     OW67492   9.107   4.859   1.196
55218SOL    HW167493   9.185   4.808   1.173
55218SOL    HW267494   9.139   4.924   1.258
55219SOL     OW67495  14.631  14.670  12.656
55219SOL    HW167496  14.575  14.658  12.734
55219SOL    HW267497  14.613  14.593  12.602
55220SOL     OW67498  12.659   6.592  10.179
55220SOL    HW167499  12.622   6.649  10.247
55220SOL    HW267500  12.667   6.507  10.222
55221SOL     OW67501   0.355  13.840   0.461
55221SOL    HW167502   0.360  13.930   0.431
55221SOL    HW267503   0.428  13.796   0.416
55222SOL     OW67504  14.701  11.224   4.959
55222SOL    HW167505  14.625  11.243   4.905
55222SOL    HW267506  14.771  11.204   4.897
55223SOL     OW67507   7.623   7.378   6.688
55223SOL    HW167508   7.708   7.339   6.712
55223SOL    HW267509   7.558   7.317   6.723
55224SOL     OW67510  11.926  13.713   4.912
55224SOL    HW167511  11.835  13.687   4.929
55224SOL    HW267512  11.977  13.662   4.975
55225SOL     OW67513   9.160   0.070  11.212
55225SOL    HW167514   9.086   0.116  11.253
55225SOL    HW267515   9.223   0.057  11.283
55226SOL     OW67516   1.247  10.753   7.858
55226SOL    HW167517   1.320  10.747   7.920
55226SOL    HW267518   1.197  10.673   7.871
55227SOL     OW67519   8.400  13.876  13.710
55227SOL    HW167520   8.306  13.869  13.729
55227SOL    HW267521   8.407  13.955  13.655
55228SOL     OW67522   8.743   4.934  10.977
55228SOL    HW167523   8.661   4.974  11.007
55228SOL    HW267524   8.719   4.889  10.896
55229SOL     OW67525   3.847   2.760   5.654
55229SOL    HW167526   3.755   2.752   5.677
55229SOL    HW267527   3.856   2.850   5.622
55230SOL     OW67528   0.108   0.833   2.852
55230SOL    HW167529   0.169   0.797   2.788
55230SOL    HW267530   0.162   0.887   2.909
55231SOL     OW67531   2.668   2.493   3.788
55231SOL    HW167532   2.745   2.445   3.818
55231SOL    HW267533   2.696   2.535   3.706
55232SOL     OW67534   4.063  12.877  14.734
55232SOL    HW167535   4.030  12.967  14.738
55232SOL    HW267536   4.158  12.887  14.729
55233SOL     OW67537   5.124   5.729  13.122
55233SOL    HW167538   5.033   5.756  13.136
55233SOL    HW267539   5.135   5.650  13.175
55234SOL     OW67540   7.208   7.624  13.417
55234SOL    HW167541   7.255   7.707  13.427
55234SOL    HW267542   7.159   7.633  13.336
55235SOL     OW67543   7.157   3.618  10.825
55235SOL    HW167544   7.193   3.669  10.897
55235SOL    HW267545   7.197   3.656  10.747
55236SOL     OW67546   9.340   2.402   8.891
55236SOL    HW167547   9.428   2.372   8.910
55236SOL    HW267548   9.310   2.442   8.973
55237SOL     OW67549   5.940   8.117   5.975
55237SOL    HW167550   5.937   8.165   6.058
55237SOL    HW267551   5.892   8.174   5.914
55238SOL     OW67552   1.522  13.638   1.855
55238SOL    HW167553   1.498  13.730   1.865
55238SOL    HW267554   1.617  13.640   1.841
55239SOL     OW67555   3.761   7.566  10.463
55239SOL    HW167556   3.808   7.538  10.384
55239SOL    HW267557   3.692   7.501  10.474
55240SOL     OW67558   4.596   2.669  12.632
55240SOL    HW167559   4.613   2.752  12.588
55240SOL    HW267560   4.539   2.622  12.571
55241SOL     OW67561   3.480   8.917   2.070
55241SOL    HW167562   3.407   8.906   2.010
55241SOL    HW267563   3.527   8.993   2.037
55242SOL     OW67564  12.197   0.026   4.577
55242SOL    HW167565  12.106   0.023   4.546
55242SOL    HW267566  12.231  14.813   4.558
55243SOL     OW67567   4.422   2.559  11.012
55243SOL    HW167568   4.363   2.562  11.088
55243SOL    HW267569   4.466   2.644  11.012
55244SOL     OW67570   6.724   7.753   4.070
55244SOL    HW167571   6.778   7.710   4.136
55244SOL    HW267572   6.634   7.726   4.091
55245SOL     OW67573   4.872  13.242   9.838
55245SOL    HW167574   4.882  13.322   9.786
55245SOL    HW267575   4.893  13.171   9.777
55246SOL     OW67576  10.982  12.580   5.987
55246SOL    HW167577  10.954  12.666   5.955
55246SOL    HW267578  11.032  12.600   6.067
55247SOL     OW67579  10.143   3.087   2.927
55247SOL    HW167580  10.128   3.176   2.957
55247SOL    HW267581  10.078   3.073   2.858
55248SOL     OW67582   4.765   4.493   9.465
55248SOL    HW167583   4.705   4.454   9.528
55248SOL    HW267584   4.784   4.423   9.402
55249SOL     OW67585   6.598   4.929   0.102
55249SOL    HW167586   6.526   4.910   0.042
55249SOL    HW267587   6.597   4.856   0.164
55250SOL     OW67588   0.898   8.742   8.245
55250SOL    HW167589   0.886   8.792   8.165
55250SOL    HW267590   0.896   8.807   8.315
55251SOL     OW67591   2.940   3.590   9.039
55251SOL    HW167592   2.946   3.540   8.958
55251SOL    HW267593   2.956   3.525   9.108
55252SOL     OW67594   0.363  13.742  11.209
55252SOL    HW167595   0.342  13.649  11.219
55252SOL    HW267596   0.430  13.759  11.275
55253SOL     OW67597   9.640  10.773   7.748
55253SOL    HW167598   9.590  10.847   7.784
55253SOL    HW267599   9.593  10.695   7.779
55254SOL     OW67600   9.906  10.831  11.053
55254SOL    HW167601   9.962  10.820  10.977
55254SOL    HW267602   9.821  10.798  11.025
55255SOL     OW67603  13.377   4.889   4.310
55255SOL    HW167604  13.454   4.940   4.333
55255SOL    HW267605  13.355   4.917   4.221
55256SOL     OW67606  10.662  10.281  13.509
55256SOL    HW167607  10.739  10.259  13.457
55256SOL    HW267608  10.591  10.231  13.468
55257SOL     OW67609   2.758  12.035  14.353
55257SOL    HW167610   2.732  11.978  14.426
55257SOL    HW267611   2.676  12.075  14.324
55258SOL     OW67612  11.956   1.571   6.259
55258SOL    HW167613  11.861   1.571   6.274
55258SOL    HW267614  11.980   1.479   6.255
55259SOL     OW67615   7.376  10.067  11.096
55259SOL    HW167616   7.457  10.042  11.050
55259SOL    HW267617   7.341  10.140  11.045
55260SOL     OW67618   3.480  10.453   5.417
55260SOL    HW167619   3.566  10.421   5.390
55260SOL    HW267620   3.434  10.376   5.450
55261SOL     OW67621   2.344   0.408   3.783
55261SOL    HW167622   2.368   0.333   3.730
55261SOL    HW267623   2.425   0.458   3.794
55262SOL     OW67624  11.959   8.551  11.420
55262SOL    HW167625  11.932   8.633  11.378
55262SOL    HW267626  12.006   8.579  11.498
55263SOL     OW67627   0.819  10.691   7.844
55263SOL    HW167628   0.862  10.605   7.844
55263SOL    HW267629   0.731  10.673   7.878
55264SOL     OW67630  12.631   5.491  13.929
55264SOL    HW167631  12.683   5.479  13.849
55264SOL    HW267632  12.579   5.569  13.912
55265SOL     OW67633  14.325   2.267  13.096
55265SOL    HW167634  14.344   2.191  13.152
55265SOL    HW267635  14.322   2.341  13.155
55266SOL     OW67636  14.296   7.740   1.635
55266SOL    HW167637  14.245   7.678   1.687
55266SOL    HW267638  14.380   7.746   1.679
55267SOL     OW67639   5.102   2.964  10.812
55267SOL    HW167640   5.161   2.921  10.751
55267SOL    HW267641   5.074   3.044  10.767
55268SOL     OW67642   4.855   5.731   5.075
55268SOL    HW167643   4.927   5.684   5.032
55268SOL    HW267644   4.830   5.798   5.011
55269SOL     OW67645   0.025   6.588  10.633
55269SOL    HW167646   0.010   6.656  10.568
55269SOL    HW267647   0.014   6.631  10.717
55270SOL     OW67648   9.689   0.078  13.473
55270SOL    HW167649   9.776   0.037  13.464
55270SOL    HW267650   9.638   0.039  13.403
55271SOL     OW67651   7.884  11.723  11.191
55271SOL    HW167652   7.877  11.818  11.200
55271SOL    HW267653   7.978  11.705  11.202
55272SOL     OW67654   9.549   7.059   6.629
55272SOL    HW167655   9.512   7.146   6.645
55272SOL    HW267656   9.515   7.034   6.544
55273SOL     OW67657   5.741   2.674  10.080
55273SOL    HW167658   5.789   2.708  10.004
55273SOL    HW267659   5.765   2.733  10.151
55274SOL     OW67660   7.909   0.837  10.185
55274SOL    HW167661   7.853   0.910  10.215
55274SOL    HW267662   7.938   0.864  10.098
55275SOL     OW67663   2.623  10.375   7.758
55275SOL    HW167664   2.600  10.359   7.666
55275SOL    HW267665   2.700  10.431   7.755
55276SOL     OW67666  10.398   0.364   8.316
55276SOL    HW167667  10.368   0.274   8.318
55276SOL    HW267668  10.446   0.375   8.399
55277SOL     OW67669  11.205  13.893  10.505
55277SOL    HW167670  11.163  13.960  10.451
55277SOL    HW267671  11.159  13.812  10.483
55278SOL     OW67672  10.275  12.317  11.676
55278SOL    HW167673  10.255  12.314  11.770
55278SOL    HW267674  10.228  12.394  11.644
55279SOL     OW67675   4.310  11.367  14.703
55279SOL    HW167676   4.233  11.345  14.651
55279SOL    HW267677   4.343  11.448  14.663
55280SOL     OW67678   6.925  13.775   9.629
55280SOL    HW167679   6.981  13.706   9.595
55280SOL    HW267680   6.921  13.758   9.724
55281SOL     OW67681   9.460   5.527   4.306
55281SOL    HW167682   9.504   5.496   4.227
55281SOL    HW267683   9.486   5.463   4.373
55282SOL     OW67684   9.055  11.393   5.050
55282SOL    HW167685   9.036  11.387   5.144
55282SOL    HW267686   8.976  11.432   5.012
55283SOL     OW67687  10.338   7.222  11.295
55283SOL    HW167688  10.378   7.230  11.382
55283SOL    HW267689  10.253   7.180  11.311
55284SOL     OW67690   9.357  14.778   7.157
55284SOL    HW167691   9.413  14.819   7.092
55284SOL    HW267692   9.408  14.779   7.238
55285SOL     OW67693   2.243   0.088  13.850
55285SOL    HW167694   2.179   0.040  13.903
55285SOL    HW267695   2.192   0.156  13.807
55286SOL     OW67696   1.445   7.375   4.988
55286SOL    HW167697   1.430   7.284   4.962
55286SOL    HW267698   1.444   7.373   5.084
55287SOL     OW67699  10.736   7.612  14.525
55287SOL    HW167700  10.655   7.564  14.508
55287SOL    HW267701  10.715   7.702  14.498
55288SOL     OW67702  10.025  14.250   5.245
55288SOL    HW167703   9.953  14.308   5.221
55288SOL    HW267704  10.076  14.300   5.309
55289SOL     OW67705  11.304  13.923   1.233
55289SOL    HW167706  11.254  13.944   1.155
55289SOL    HW267707  11.241  13.877   1.289
55290SOL     OW67708  12.749   8.552   4.774
55290SOL    HW167709  12.707   8.605   4.706
55290SOL    HW267710  12.677   8.505   4.815
55291SOL     OW67711   7.684  14.746  13.489
55291SOL    HW167712   7.769  14.749  13.445
55291SOL    HW267713   7.636  14.821  13.452
55292SOL     OW67714  13.039   5.035   3.647
55292SOL    HW167715  12.966   5.013   3.705
55292SOL    HW267716  12.999   5.046   3.561
55293SOL     OW67717   4.763   3.391   2.342
55293SOL    HW167718   4.802   3.360   2.259
55293SOL    HW267719   4.694   3.327   2.361
55294SOL     OW67720   1.747   2.059  13.055
55294SOL    HW167721   1.738   2.150  13.084
55294SOL    HW267722   1.838   2.037  13.070
55295SOL     OW67723   9.479  10.368   5.623
55295SOL    HW167724   9.499  10.319   5.703
55295SOL    HW267725   9.562  10.407   5.597
55296SOL     OW67726   4.916  11.780   1.189
55296SOL    HW167727   4.852  11.783   1.118
55296SOL    HW267728   4.999  11.757   1.146
55297SOL     OW67729   6.498  10.222   7.001
55297SOL    HW167730   6.524  10.196   7.090
55297SOL    HW267731   6.569  10.190   6.945
55298SOL     OW67732   2.333  12.895   4.614
55298SOL    HW167733   2.422  12.861   4.623
55298SOL    HW267734   2.279  12.833   4.663
55299SOL     OW67735  11.165  11.912   7.181
55299SOL    HW167736  11.239  11.878   7.232
55299SOL    HW267737  11.127  11.836   7.139
55300SOL     OW67738  11.692   0.800   5.282
55300SOL    HW167739  11.674   0.756   5.200
55300SOL    HW267740  11.607   0.835   5.309
55301SOL     OW67741   4.959   0.639  12.480
55301SOL    HW167742   4.882   0.695  12.492
55301SOL    HW267743   4.945   0.597  12.395
55302SOL     OW67744   7.570   9.170  10.348
55302SOL    HW167745   7.592   9.155  10.440
55302SOL    HW267746   7.488   9.221  10.351
55303SOL     OW67747   9.559   8.277   9.023
55303SOL    HW167748   9.584   8.303   8.935
55303SOL    HW267749   9.470   8.241   9.013
55304SOL     OW67750   2.374  13.829  10.106
55304SOL    HW167751   2.419  13.906  10.071
55304SOL    HW267752   2.378  13.765  10.035
55305SOL     OW67753  12.579   7.558  13.264
55305SOL    HW167754  12.535   7.609  13.195
55305SOL    HW267755  12.508   7.511  13.308
55306SOL     OW67756  10.796   3.627  14.441
55306SOL    HW167757  10.748   3.550  14.470
55306SOL    HW267758  10.728   3.688  14.413
55307SOL     OW67759  13.183   6.665  13.951
55307SOL    HW167760  13.179   6.727  13.879
55307SOL    HW267761  13.268   6.683  13.993
55308SOL     OW67762   1.477   0.282   4.768
55308SOL    HW167763   1.500   0.296   4.860
55308SOL    HW267764   1.429   0.360   4.743
55309SOL     OW67765   3.880   4.699  13.802
55309SOL    HW167766   3.891   4.604  13.791
55309SOL    HW267767   3.950   4.724  13.862
55310SOL     OW67768   8.140   4.596   6.259
55310SOL    HW167769   8.143   4.684   6.295
55310SOL    HW267770   8.199   4.598   6.184
55311SOL     OW67771   6.191   6.320   9.922
55311SOL    HW167772   6.121   6.321   9.987
55311SOL    HW267773   6.201   6.227   9.900
55312SOL     OW67774   5.347   7.107   7.642
55312SOL    HW167775   5.394   7.030   7.675
55312SOL    HW267776   5.415   7.172   7.625
55313SOL     OW67777   0.271   1.871   4.578
55313SOL    HW167778   0.196   1.927   4.562
55313SOL    HW267779   0.347   1.927   4.562
55314SOL     OW67780   0.677  10.982  13.287
55314SOL    HW167781   0.723  11.035  13.352
55314SOL    HW267782   0.637  11.046  13.228
55315SOL     OW67783   0.959   2.126   0.450
55315SOL    HW167784   1.015   2.093   0.380
55315SOL    HW267785   1.005   2.102   0.531
55316SOL     OW67786   0.804   5.098  10.112
55316SOL    HW167787   0.900   5.094  10.121
55316SOL    HW267788   0.782   5.026  10.053
55317SOL     OW67789  10.080   7.789   8.445
55317SOL    HW167790  10.010   7.779   8.382
55317SOL    HW267791  10.061   7.723   8.513
55318SOL     OW67792  14.428   6.155   0.335
55318SOL    HW167793  14.339   6.179   0.359
55318SOL    HW267794  14.425   6.141   0.240
55319SOL     OW67795  10.233   2.711   0.938
55319SOL    HW167796  10.187   2.723   0.854
55319SOL    HW267797  10.187   2.769   0.998
55320SOL     OW67798   7.855   4.776  11.605
55320SOL    HW167799   7.909   4.849  11.573
55320SOL    HW267800   7.903   4.698  11.579
55321SOL     OW67801   3.908   9.961   0.294
55321SOL    HW167802   3.955  10.038   0.265
55321SOL    HW267803   3.862   9.929   0.216
55322SOL     OW67804   4.871   7.503  10.316
55322SOL    HW167805   4.895   7.523  10.407
55322SOL    HW267806   4.838   7.587  10.281
55323SOL     OW67807  10.276   5.502  11.103
55323SOL    HW167808  10.223   5.432  11.065
55323SOL    HW267809  10.366   5.468  11.099
55324SOL     OW67810  11.342  10.259   6.265
55324SOL    HW167811  11.381  10.175   6.240
55324SOL    HW267812  11.338  10.308   6.183
55325SOL     OW67813  11.673   5.342   8.286
55325SOL    HW167814  11.748   5.303   8.242
55325SOL    HW267815  11.662   5.291   8.366
55326SOL     OW67816  14.014  12.414   8.121
55326SOL    HW167817  14.066  12.344   8.082
55326SOL    HW267818  13.923  12.390   8.101
55327SOL     OW67819   5.901   8.724   9.953
55327SOL    HW167820   5.956   8.792   9.991
55327SOL    HW267821   5.943   8.642   9.977
55328SOL     OW67822   2.647   1.790   2.783
55328SOL    HW167823   2.606   1.803   2.697
55328SOL    HW267824   2.665   1.696   2.786
55329SOL     OW67825   1.891   4.029   5.760
55329SOL    HW167826   1.875   3.954   5.818
55329SOL    HW267827   1.865   3.999   5.673
55330SOL     OW67828  14.042   5.544   3.895
55330SOL    HW167829  14.124   5.542   3.945
55330SOL    HW267830  14.003   5.458   3.909
55331SOL     OW67831   4.599   3.055  11.161
55331SOL    HW167832   4.552   3.103  11.229
55331SOL    HW267833   4.657   3.120  11.121
55332SOL     OW67834   1.418   3.763   8.781
55332SOL    HW167835   1.345   3.820   8.754
55332SOL    HW267836   1.448   3.724   8.699
55333SOL     OW67837  10.137   5.277  11.387
55333SOL    HW167838  10.118   5.340  11.318
55333SOL    HW267839  10.053   5.265  11.432
55334SOL     OW67840  11.386   6.890   3.556
55334SOL    HW167841  11.437   6.879   3.637
55334SOL    HW267842  11.309   6.939   3.583
55335SOL     OW67843   7.100  12.642   7.914
55335SOL    HW167844   7.032  12.596   7.865
55335SOL    HW267845   7.094  12.733   7.886
55336SOL     OW67846   2.878  10.930   1.725
55336SOL    HW167847   2.889  11.024   1.741
55336SOL    HW267848   2.784  10.918   1.711
55337SOL     OW67849  10.204  14.008   3.449
55337SOL    HW167850  10.260  14.086   3.454
55337SOL    HW267851  10.120  14.042   3.416
55338SOL     OW67852   2.127   8.731   2.659
55338SOL    HW167853   2.072   8.756   2.732
55338SOL    HW267854   2.083   8.767   2.582
55339SOL     OW67855   1.910  13.145   0.950
55339SOL    HW167856   1.868  13.184   0.873
55339SOL    HW267857   1.998  13.123   0.920
55340SOL     OW67858  13.630   7.701   5.137
55340SOL    HW167859  13.653   7.665   5.051
55340SOL    HW267860  13.669   7.640   5.200
55341SOL     OW67861   4.486   4.613  14.536
55341SOL    HW167862   4.412   4.580  14.586
55341SOL    HW267863   4.501   4.702  14.569
55342SOL     OW67864   9.749  13.702   6.592
55342SOL    HW167865   9.686  13.739   6.530
55342SOL    HW267866   9.696  13.669   6.664
55343SOL     OW67867  10.660  13.270   0.389
55343SOL    HW167868  10.739  13.282   0.337
55343SOL    HW267869  10.689  13.281   0.480
55344SOL     OW67870   0.859   4.769  12.110
55344SOL    HW167871   0.913   4.849  12.110
55344SOL    HW267872   0.777   4.795  12.069
55345SOL     OW67873  12.431  14.277   0.871
55345SOL    HW167874  12.496  14.338   0.836
55345SOL    HW267875  12.348  14.324   0.866
55346SOL     OW67876   1.298  11.182   3.276
55346SOL    HW167877   1.318  11.233   3.198
55346SOL    HW267878   1.381  11.139   3.299
55347SOL     OW67879   7.343  10.921  10.345
55347SOL    HW167880   7.308  10.886  10.263
55347SOL    HW267881   7.436  10.934  10.328
55348SOL     OW67882   4.383   1.598  12.939
55348SOL    HW167883   4.346   1.510  12.934
55348SOL    HW267884   4.476   1.585  12.954
55349SOL     OW67885   5.589   0.534  10.891
55349SOL    HW167886   5.631   0.620  10.893
55349SOL    HW267887   5.500   0.549  10.922
55350SOL     OW67888   1.402   4.016   1.770
55350SOL    HW167889   1.443   4.042   1.852
55350SOL    HW267890   1.337   4.085   1.753
55351SOL     OW67891   3.646   3.012  10.816
55351SOL    HW167892   3.646   2.991  10.722
55351SOL    HW267893   3.734   3.045  10.832
55352SOL     OW67894  11.161   3.992   5.765
55352SOL    HW167895  11.152   4.065   5.826
55352SOL    HW267896  11.145   3.914   5.817
55353SOL     OW67897   6.519  12.152   1.401
55353SOL    HW167898   6.516  12.187   1.312
55353SOL    HW267899   6.575  12.075   1.395
55354SOL     OW67900   4.068   8.610  13.513
55354SOL    HW167901   4.108   8.626  13.428
55354SOL    HW267902   4.122   8.658  13.575
55355SOL     OW67903   8.461   1.229   1.245
55355SOL    HW167904   8.474   1.301   1.306
55355SOL    HW267905   8.549   1.196   1.226
55356SOL     OW67906   3.461  13.162  14.146
55356SOL    HW167907   3.390  13.103  14.170
55356SOL    HW267908   3.430  13.249  14.173
55357SOL     OW67909   9.893   3.520   9.563
55357SOL    HW167910   9.933   3.493   9.645
55357SOL    HW267911   9.800   3.498   9.573
55358SOL     OW67912   2.066   3.007   4.611
55358SOL    HW167913   1.974   3.033   4.612
55358SOL    HW267914   2.110   3.079   4.566
55359SOL     OW67915   2.201   0.137  14.626
55359SOL    HW167916   2.245   0.203  14.680
55359SOL    HW267917   2.137   0.097  14.684
55360SOL     OW67918   0.588   3.403   4.933
55360SOL    HW167919   0.605   3.324   4.882
55360SOL    HW267920   0.673   3.446   4.941
55361SOL     OW67921   9.766   1.359   0.633
55361SOL    HW167922   9.744   1.288   0.694
55361SOL    HW267923   9.790   1.432   0.689
55362SOL     OW67924   9.498   7.924   1.338
55362SOL    HW167925   9.570   7.984   1.358
55362SOL    HW267926   9.509   7.853   1.401
55363SOL     OW67927   2.829   2.998  10.430
55363SOL    HW167928   2.919   3.031  10.432
55363SOL    HW267929   2.774   3.076  10.424
55364SOL     OW67930   2.585  14.196   3.379
55364SOL    HW167931   2.557  14.283   3.353
55364SOL    HW267932   2.675  14.189   3.348
55365SOL     OW67933   9.423   3.571   7.615
55365SOL    HW167934   9.381   3.584   7.700
55365SOL    HW267935   9.498   3.630   7.616
55366SOL     OW67936   5.945   5.489  11.857
55366SOL    HW167937   5.926   5.579  11.831
55366SOL    HW267938   5.933   5.488  11.952
55367SOL     OW67939   1.511   2.028  10.667
55367SOL    HW167940   1.573   2.085  10.713
55367SOL    HW267941   1.534   2.037  10.574
55368SOL     OW67942   3.268   5.801   6.536
55368SOL    HW167943   3.353   5.775   6.501
55368SOL    HW267944   3.232   5.860   6.470
55369SOL     OW67945   2.777  10.712   2.374
55369SOL    HW167946   2.836  10.691   2.302
55369SOL    HW267947   2.689  10.700   2.339
55370SOL     OW67948  10.810  13.814   9.633
55370SOL    HW167949  10.771  13.886   9.681
55370SOL    HW267950  10.754  13.803   9.556
55371SOL     OW67951   3.495  13.325  10.027
55371SOL    HW167952   3.556  13.269  10.074
55371SOL    HW267953   3.536  13.411  10.029
55372SOL     OW67954   1.049   5.155   6.541
55372SOL    HW167955   1.043   5.099   6.618
55372SOL    HW267956   0.998   5.233   6.563
55373SOL     OW67957  11.743   5.859   7.537
55373SOL    HW167958  11.796   5.888   7.463
55373SOL    HW267959  11.802   5.804   7.588
55374SOL     OW67960   9.386  12.806   0.636
55374SOL    HW167961   9.310  12.809   0.577
55374SOL    HW267962   9.416  12.897   0.640
55375SOL     OW67963   2.954   5.042   0.206
55375SOL    HW167964   3.035   5.024   0.254
55375SOL    HW267965   2.949   5.137   0.202
55376SOL     OW67966  11.577   0.817   3.466
55376SOL    HW167967  11.668   0.814   3.497
55376SOL    HW267968  11.525   0.789   3.541
55377SOL     OW67969  13.764   0.731  13.305
55377SOL    HW167970  13.825   0.676  13.256
55377SOL    HW267971  13.764   0.815  13.258
55378SOL     OW67972  14.591   9.376   4.891
55378SOL    HW167973  14.608   9.351   4.982
55378SOL    HW267974  14.547   9.461   4.898
55379SOL     OW67975   0.003  10.666   0.198
55379SOL    HW167976   0.074  10.616   0.239
55379SOL    HW267977  14.857  10.736   0.260
55380SOL     OW67978   3.440  12.662   4.664
55380SOL    HW167979   3.475  12.573   4.655
55380SOL    HW267980   3.374  12.655   4.733
55381SOL     OW67981   2.014   4.851  11.690
55381SOL    HW167982   1.919   4.846  11.677
55381SOL    HW267983   2.025   4.927  11.747
55382SOL     OW67984   9.006   0.762  11.852
55382SOL    HW167985   8.974   0.689  11.799
55382SOL    HW267986   8.989   0.840  11.798
55383SOL     OW67987   9.629   0.139  11.651
55383SOL    HW167988   9.584   0.056  11.634
55383SOL    HW267989   9.563   0.206  11.634
55384SOL     OW67990   8.307   2.871   3.066
55384SOL    HW167991   8.230   2.817   3.050
55384SOL    HW267992   8.377   2.829   3.015
55385SOL     OW67993   1.768   0.592  11.261
55385SOL    HW167994   1.772   0.649  11.185
55385SOL    HW267995   1.851   0.544  11.260
55386SOL     OW67996   1.760   6.461  10.893
55386SOL    HW167997   1.689   6.511  10.854
55386SOL    HW267998   1.748   6.372  10.860
55387SOL     OW67999   4.194   5.411   2.116
55387SOL    HW168000   4.133   5.419   2.042
55387SOL    HW268001   4.212   5.501   2.142
55388SOL     OW68002  13.574   1.120  12.971
55388SOL    HW168003  13.559   1.051  13.036
55388SOL    HW268004  13.486   1.152  12.950
55389SOL     OW68005  12.260   9.669   8.723
55389SOL    HW168006  12.244   9.628   8.808
55389SOL    HW268007  12.173   9.682   8.686
55390SOL     OW68008   0.349   5.276  11.836
55390SOL    HW168009   0.341   5.188  11.872
55390SOL    HW268010   0.281   5.281  11.769
55391SOL     OW68011   2.333  13.660  10.668
55391SOL    HW168012   2.261  13.691  10.613
55391SOL    HW268013   2.412  13.697  10.628
55392SOL     OW68014   8.552   7.408   9.984
55392SOL    HW168015   8.553   7.362  10.067
55392SOL    HW268016   8.507   7.491  10.003
55393SOL     OW68017  13.811  12.148   3.171
55393SOL    HW168018  13.831  12.056   3.154
55393SOL    HW268019  13.822  12.157   3.266
55394SOL     OW68020  11.648   1.855   8.381
55394SOL    HW168021  11.655   1.922   8.313
55394SOL    HW268022  11.660   1.903   8.463
55395SOL     OW68023   7.352   7.538  11.202
55395SOL    HW168024   7.388   7.619  11.166
55395SOL    HW268025   7.264   7.563  11.232
55396SOL     OW68026  11.369   2.779   1.484
55396SOL    HW168027  11.278   2.782   1.515
55396SOL    HW268028  11.379   2.690   1.450
55397SOL     OW68029  14.489   9.023   1.922
55397SOL    HW168030  14.508   9.077   1.846
55397SOL    HW268031  14.526   8.937   1.901
55398SOL     OW68032   0.065  10.662  13.658
55398SOL    HW168033   0.064  10.597  13.728
55398SOL    HW268034  14.851  10.658  13.620
55399SOL     OW68035  12.420   5.611   8.569
55399SOL    HW168036  12.483   5.539   8.564
55399SOL    HW268037  12.431   5.658   8.486
55400SOL     OW68038   6.721   9.652   5.503
55400SOL    HW168039   6.747   9.619   5.589
55400SOL    HW268040   6.748   9.744   5.504
55401SOL     OW68041   3.314   6.943   1.153
55401SOL    HW168042   3.346   6.853   1.160
55401SOL    HW268043   3.313   6.961   1.059
55402SOL     OW68044   0.016   2.318  14.602
55402SOL    HW168045   0.037   2.372  14.526
55402SOL    HW268046  14.799   2.340  14.623
55403SOL     OW68047   4.211   6.654  10.724
55403SOL    HW168048   4.253   6.574  10.692
55403SOL    HW268049   4.180   6.631  10.812
55404SOL     OW68050  11.867   6.217  12.056
55404SOL    HW168051  11.898   6.143  12.003
55404SOL    HW268052  11.819   6.176  12.128
55405SOL     OW68053  12.517   0.949   3.598
55405SOL    HW168054  12.573   0.884   3.641
55405SOL    HW268055  12.499   0.912   3.512
55406SOL     OW68056  14.024  10.573  10.604
55406SOL    HW168057  13.992  10.612  10.685
55406SOL    HW268058  13.959  10.599  10.538
55407SOL     OW68059   7.637   5.424   3.254
55407SOL    HW168060   7.656   5.502   3.202
55407SOL    HW268061   7.617   5.458   3.341
55408SOL     OW68062  14.299  14.813  14.661
55408SOL    HW168063  14.284   0.020  14.613
55408SOL    HW268064  14.334  14.841  14.745
55409SOL     OW68065  13.052  10.789   3.952
55409SOL    HW168066  13.100  10.840   3.886
55409SOL    HW268067  12.984  10.744   3.902
55410SOL     OW68068   5.215   4.685  11.821
55410SOL    HW168069   5.256   4.631  11.755
55410SOL    HW268070   5.277   4.756  11.837
55411SOL     OW68071  13.361   0.876   2.790
55411SOL    HW168072  13.327   0.884   2.880
55411SOL    HW268073  13.303   0.812   2.749
55412SOL     OW68074   2.965   3.563   5.231
55412SOL    HW168075   2.954   3.478   5.189
55412SOL    HW268076   2.927   3.551   5.319
55413SOL     OW68077   5.312   1.208  10.686
55413SOL    HW168078   5.275   1.231  10.771
55413SOL    HW268079   5.342   1.118  10.695
55414SOL     OW68080   3.234   1.411   5.495
55414SOL    HW168081   3.268   1.500   5.490
55414SOL    HW268082   3.217   1.396   5.588
55415SOL     OW68083  12.419  13.117   8.785
55415SOL    HW168084  12.512  13.127   8.806
55415SOL    HW268085  12.413  13.138   8.691
55416SOL     OW68086  13.066   1.132   5.019
55416SOL    HW168087  13.034   1.220   5.041
55416SOL    HW268088  13.051   1.080   5.097
55417SOL     OW68089   6.103   3.709   3.841
55417SOL    HW168090   6.061   3.785   3.881
55417SOL    HW268091   6.072   3.709   3.750
55418SOL     OW68092   7.641   1.145   9.407
55418SOL    HW168093   7.579   1.205   9.367
55418SOL    HW268094   7.697   1.200   9.462
55419SOL     OW68095   2.336   8.175  13.659
55419SOL    HW168096   2.354   8.240  13.592
55419SOL    HW268097   2.422   8.146  13.689
55420SOL     OW68098  10.972   6.993   0.974
55420SOL    HW168099  10.953   6.982   0.881
55420SOL    HW268100  11.037   6.925   0.993
55421SOL     OW68101  11.128   7.047   9.069
55421SOL    HW168102  11.084   7.118   9.115
55421SOL    HW268103  11.221   7.066   9.079
55422SOL     OW68104   9.805   1.560   1.530
55422SOL    HW168105   9.837   1.576   1.618
55422SOL    HW268106   9.773   1.469   1.533
55423SOL     OW68107   6.731  10.148  12.490
55423SOL    HW168108   6.792  10.214  12.458
55423SOL    HW268109   6.679  10.124  12.414
55424SOL     OW68110  14.779  11.705   9.665
55424SOL    HW168111  14.702  11.717   9.610
55424SOL    HW268112  14.847  11.673   9.606
55425SOL     OW68113   6.337   9.087  12.652
55425SOL    HW168114   6.278   9.045  12.589
55425SOL    HW268115   6.345   9.177  12.620
55426SOL     OW68116   5.453   0.951   8.771
55426SOL    HW168117   5.363   0.940   8.801
55426SOL    HW268118   5.465   1.045   8.764
55427SOL     OW68119   3.867   2.362   6.396
55427SOL    HW168120   3.902   2.426   6.459
55427SOL    HW268121   3.932   2.291   6.396
55428SOL     OW68122   5.818   3.816   6.132
55428SOL    HW168123   5.756   3.743   6.135
55428SOL    HW268124   5.899   3.781   6.170
55429SOL     OW68125   0.200   0.238   0.432
55429SOL    HW168126   0.168   0.246   0.342
55429SOL    HW268127   0.169   0.152   0.461
55430SOL     OW68128   1.025   9.804   9.215
55430SOL    HW168129   0.940   9.784   9.177
55430SOL    HW268130   1.006   9.848   9.297
55431SOL     OW68131   2.762  12.267   6.391
55431SOL    HW168132   2.850  12.306   6.398
55431SOL    HW268133   2.751  12.249   6.298
55432SOL     OW68134   3.993   2.364   9.057
55432SOL    HW168135   4.071   2.336   9.105
55432SOL    HW268136   4.018   2.359   8.965
55433SOL     OW68137   8.879   0.559   3.014
55433SOL    HW168138   8.918   0.529   3.096
55433SOL    HW268139   8.944   0.619   2.977
55434SOL     OW68140  13.732  13.775   6.691
55434SOL    HW168141  13.792  13.771   6.765
55434SOL    HW268142  13.756  13.701   6.636
55435SOL     OW68143   1.773  14.544   8.990
55435SOL    HW168144   1.725  14.465   8.964
55435SOL    HW268145   1.713  14.590   9.049
55436SOL     OW68146   3.592   4.801   2.344
55436SOL    HW168147   3.637   4.862   2.286
55436SOL    HW268148   3.512   4.847   2.370
55437SOL     OW68149  11.323  14.568  13.329
55437SOL    HW168150  11.385  14.510  13.285
55437SOL    HW268151  11.264  14.509  13.376
55438SOL     OW68152   1.776   7.661   6.797
55438SOL    HW168153   1.866   7.633   6.809
55438SOL    HW268154   1.745   7.680   6.886
55439SOL     OW68155  11.964  11.060  11.135
55439SOL    HW168156  11.898  11.099  11.078
55439SOL    HW268157  12.037  11.038  11.076
55440SOL     OW68158   5.551   1.921   0.782
55440SOL    HW168159   5.475   1.907   0.838
55440SOL    HW268160   5.588   1.834   0.770
55441SOL     OW68161   9.672   2.391   6.903
55441SOL    HW168162   9.610   2.364   6.835
55441SOL    HW268163   9.671   2.319   6.966
55442SOL     OW68164   8.075  12.479   7.770
55442SOL    HW168165   8.129  12.499   7.847
55442SOL    HW268166   7.990  12.518   7.789
55443SOL     OW68167   5.377   9.753   8.803
55443SOL    HW168168   5.459   9.765   8.851
55443SOL    HW268169   5.362   9.658   8.805
55444SOL     OW68170  10.508   4.179   9.662
55444SOL    HW168171  10.429   4.218   9.625
55444SOL    HW268172  10.558   4.253   9.696
55445SOL     OW68173   7.092  11.086   6.697
55445SOL    HW168174   7.000  11.110   6.706
55445SOL    HW268175   7.091  10.991   6.688
55446SOL     OW68176  12.859  10.898   0.975
55446SOL    HW168177  12.945  10.865   0.948
55446SOL    HW268178  12.803  10.880   0.899
55447SOL     OW68179   7.714   7.868  12.937
55447SOL    HW168180   7.723   7.834  13.025
55447SOL    HW268181   7.770   7.812  12.883
55448SOL     OW68182   4.760   3.532   7.105
55448SOL    HW168183   4.835   3.569   7.059
55448SOL    HW268184   4.732   3.601   7.165
55449SOL     OW68185   2.043   9.388   9.867
55449SOL    HW168186   2.072   9.478   9.878
55449SOL    HW268187   2.102   9.351   9.801
55450SOL     OW68188  11.195  11.079   1.980
55450SOL    HW168189  11.212  11.047   1.892
55450SOL    HW268190  11.196  11.000   2.035
55451SOL     OW68191   3.165   7.811   9.628
55451SOL    HW168192   3.152   7.717   9.615
55451SOL    HW268193   3.077   7.845   9.643
55452SOL     OW68194   6.334   4.038   2.612
55452SOL    HW168195   6.271   4.110   2.614
55452SOL    HW268196   6.388   4.055   2.535
55453SOL     OW68197  12.733  14.467   8.787
55453SOL    HW168198  12.737  14.372   8.787
55453SOL    HW268199  12.824  14.495   8.778
55454SOL     OW68200   5.231   4.775  14.026
55454SOL    HW168201   5.216   4.868  14.037
55454SOL    HW268202   5.291   4.752  14.098
55455SOL     OW68203   6.791   1.364   3.339
55455SOL    HW168204   6.749   1.436   3.387
55455SOL    HW268205   6.784   1.289   3.397
55456SOL     OW68206  13.698   9.566   8.093
55456SOL    HW168207  13.629   9.625   8.063
55456SOL    HW268208  13.741   9.614   8.164
55457SOL     OW68209   7.832   1.287   8.845
55457SOL    HW168210   7.898   1.357   8.846
55457SOL    HW268211   7.801   1.281   8.935
55458SOL     OW68212   4.086   4.390   4.294
55458SOL    HW168213   4.152   4.433   4.350
55458SOL    HW268214   4.137   4.329   4.240
55459SOL     OW68215  11.669  11.340  12.266
55459SOL    HW168216  11.594  11.316  12.212
55459SOL    HW268217  11.641  11.418  12.314
55460SOL     OW68218  11.903   6.211   7.417
55460SOL    HW168219  11.967   6.227   7.348
55460SOL    HW268220  11.869   6.298   7.438
55461SOL     OW68221   3.092  14.003  13.539
55461SOL    HW168222   3.129  14.075  13.489
55461SOL    HW268223   3.150  13.994  13.615
55462SOL     OW68224   4.081   8.505   8.373
55462SOL    HW168225   4.064   8.422   8.418
55462SOL    HW268226   4.098   8.480   8.282
55463SOL     OW68227   5.814   9.828   9.397
55463SOL    HW168228   5.906   9.849   9.383
55463SOL    HW268229   5.816   9.748   9.449
55464SOL     OW68230   9.080  13.011   0.219
55464SOL    HW168231   9.009  13.009   0.154
55464SOL    HW268232   9.035  13.021   0.303
55465SOL     OW68233  11.723   3.931  13.229
55465SOL    HW168234  11.708   3.881  13.149
55465SOL    HW268235  11.747   3.866  13.295
55466SOL     OW68236   2.948  13.094  14.541
55466SOL    HW168237   2.988  13.165  14.491
55466SOL    HW268238   2.957  13.120  14.632
55467SOL     OW68239   1.947   5.596  14.612
55467SOL    HW168240   1.886   5.581  14.684
55467SOL    HW268241   1.940   5.690  14.595
55468SOL     OW68242  12.253   0.922   7.099
55468SOL    HW168243  12.261   0.846   7.157
55468SOL    HW268244  12.275   0.997   7.154
55469SOL     OW68245   2.149  12.531  12.411
55469SOL    HW168246   2.164  12.607  12.468
55469SOL    HW268247   2.153  12.456  12.470
55470SOL     OW68248   8.526  13.390   7.658
55470SOL    HW168249   8.537  13.310   7.709
55470SOL    HW268250   8.456  13.438   7.702
55471SOL     OW68251   7.388  13.097   4.391
55471SOL    HW168252   7.436  13.167   4.347
55471SOL    HW268253   7.296  13.116   4.374
55472SOL     OW68254   4.084   3.392  10.525
55472SOL    HW168255   3.993   3.389  10.494
55472SOL    HW268256   4.104   3.486  10.527
55473SOL     OW68257   2.191  11.349   0.388
55473SOL    HW168258   2.161  11.322   0.301
55473SOL    HW268259   2.219  11.440   0.376
55474SOL     OW68260   1.101  12.385   0.053
55474SOL    HW168261   1.039  12.313   0.064
55474SOL    HW268262   1.135  12.374  14.838
55475SOL     OW68263  11.891   8.861   1.521
55475SOL    HW168264  11.860   8.895   1.605
55475SOL    HW268265  11.913   8.940   1.471
55476SOL     OW68266  12.856   3.620   6.877
55476SOL    HW168267  12.852   3.546   6.816
55476SOL    HW268268  12.790   3.599   6.944
55477SOL     OW68269   0.828  10.468  13.683
55477SOL    HW168270   0.858  10.555  13.711
55477SOL    HW268271   0.749  10.486  13.633
55478SOL     OW68272   5.212   6.291   2.707
55478SOL    HW168273   5.251   6.205   2.727
55478SOL    HW268274   5.262   6.352   2.761
55479SOL     OW68275   4.518  11.741   1.153
55479SOL    HW168276   4.551  11.824   1.119
55479SOL    HW268277   4.521  11.681   1.079
55480SOL     OW68278   7.408   8.425  11.994
55480SOL    HW168279   7.498   8.454  12.003
55480SOL    HW268280   7.356   8.491  12.041
55481SOL     OW68281  13.273   8.999   0.307
55481SOL    HW168282  13.315   8.965   0.227
55481SOL    HW268283  13.179   8.985   0.292
55482SOL     OW68284   3.361  10.737  12.853
55482SOL    HW168285   3.322  10.815  12.812
55482SOL    HW268286   3.445  10.767  12.886
55483SOL     OW68287   2.057   4.327   7.933
55483SOL    HW168288   2.077   4.236   7.955
55483SOL    HW268289   1.983   4.321   7.873
55484SOL     OW68290   5.769  12.172   7.536
55484SOL    HW168291   5.781  12.133   7.622
55484SOL    HW268292   5.674  12.182   7.526
55485SOL     OW68293   3.653  10.257  13.065
55485SOL    HW168294   3.612  10.171  13.069
55485SOL    HW268295   3.721  10.248  12.997
55486SOL     OW68296   4.761   0.829   6.599
55486SOL    HW168297   4.677   0.848   6.558
55486SOL    HW268298   4.788   0.745   6.563
55487SOL     OW68299   6.549   0.385   5.656
55487SOL    HW168300   6.484   0.351   5.594
55487SOL    HW268301   6.569   0.310   5.712
55488SOL     OW68302  11.773   4.259  11.665
55488SOL    HW168303  11.775   4.203  11.743
55488SOL    HW268304  11.696   4.230  11.617
55489SOL     OW68305  11.188   4.697  11.858
55489SOL    HW168306  11.232   4.650  11.787
55489SOL    HW268307  11.197   4.789  11.835
55490SOL     OW68308   8.535   1.962  14.418
55490SOL    HW168309   8.581   2.001  14.344
55490SOL    HW268310   8.549   1.868  14.409
55491SOL     OW68311  10.794   0.277   9.944
55491SOL    HW168312  10.801   0.359   9.992
55491SOL    HW268313  10.700   0.263   9.932
55492SOL     OW68314   7.741   5.062  10.853
55492SOL    HW168315   7.650   5.038  10.866
55492SOL    HW268316   7.781   4.985  10.813
55493SOL     OW68317   7.417   2.666  13.330
55493SOL    HW168318   7.419   2.682  13.236
55493SOL    HW268319   7.482   2.727  13.366
55494SOL     OW68320  14.435   5.207   7.571
55494SOL    HW168321  14.388   5.246   7.644
55494SOL    HW268322  14.445   5.115   7.596
55495SOL     OW68323   9.717   7.116   4.932
55495SOL    HW168324   9.809   7.108   4.959
55495SOL    HW268325   9.685   7.025   4.928
55496SOL     OW68326   4.582  10.541   8.762
55496SOL    HW168327   4.549  10.590   8.838
55496SOL    HW268328   4.548  10.589   8.686
55497SOL     OW68329   1.620  10.606  11.817
55497SOL    HW168330   1.619  10.686  11.869
55497SOL    HW268331   1.603  10.536  11.880
55498SOL     OW68332  14.260   1.996   4.928
55498SOL    HW168333  14.318   1.934   4.884
55498SOL    HW268334  14.185   1.943   4.955
55499SOL     OW68335  14.643  11.901   6.008
55499SOL    HW168336  14.605  11.823   6.048
55499SOL    HW268337  14.630  11.971   6.072
55500SOL     OW68338  11.469  12.401   7.133
55500SOL    HW168339  11.408  12.329   7.120
55500SOL    HW268340  11.465  12.451   7.051
55501SOL     OW68341  14.043  12.344   4.104
55501SOL    HW168342  14.092  12.292   4.168
55501SOL    HW268343  13.951  12.333   4.130
55502SOL     OW68344  12.517   1.916   3.522
55502SOL    HW168345  12.461   1.947   3.593
55502SOL    HW268346  12.605   1.917   3.559
55503SOL     OW68347   4.980   0.912  13.380
55503SOL    HW168348   4.916   0.860  13.330
55503SOL    HW268349   5.023   0.848  13.437
55504SOL     OW68350   8.150   2.446   7.303
55504SOL    HW168351   8.119   2.453   7.393
55504SOL    HW268352   8.072   2.457   7.250
55505SOL     OW68353  12.110  10.874   1.724
55505SOL    HW168354  12.151  10.866   1.638
55505SOL    HW268355  12.040  10.938   1.712
55506SOL     OW68356  10.163  12.301   6.171
55506SOL    HW168357  10.101  12.319   6.101
55506SOL    HW268358  10.219  12.231   6.137
55507SOL     OW68359  10.465   3.287  14.288
55507SOL    HW168360  10.470   3.293  14.193
55507SOL    HW268361  10.429   3.372  14.316
55508SOL     OW68362   9.479   3.025   8.122
55508SOL    HW168363   9.497   2.931   8.118
55508SOL    HW268364   9.446   3.047   8.034
55509SOL     OW68365  10.214  13.052  10.035
55509SOL    HW168366  10.149  13.002  10.084
55509SOL    HW268367  10.244  12.991   9.968
55510SOL     OW68368   9.152   1.917   5.054
55510SOL    HW168369   9.078   1.959   5.010
55510SOL    HW268370   9.157   1.961   5.139
55511SOL     OW68371   5.211   8.285  13.972
55511SOL    HW168372   5.256   8.355  13.925
55511SOL    HW268373   5.222   8.307  14.065
55512SOL     OW68374  11.615  10.195   4.061
55512SOL    HW168375  11.523  10.171   4.046
55512SOL    HW268376  11.614  10.289   4.076
55513SOL     OW68377   1.044  13.421   3.417
55513SOL    HW168378   1.080  13.509   3.407
55513SOL    HW268379   1.045  13.384   3.329
55514SOL     OW68380   7.139   4.985   7.632
55514SOL    HW168381   7.208   4.928   7.598
55514SOL    HW268382   7.182   5.069   7.646
55515SOL     OW68383  10.783   6.088   1.184
55515SOL    HW168384  10.828   6.139   1.118
55515SOL    HW268385  10.796   5.997   1.158
55516SOL     OW68386   2.831   8.185   3.154
55516SOL    HW168387   2.817   8.273   3.187
55516SOL    HW268388   2.780   8.180   3.073
55517SOL     OW68389   0.271  11.312   9.864
55517SOL    HW168390   0.195  11.314   9.923
55517SOL    HW268391   0.266  11.394   9.816
55518SOL     OW68392   5.056   6.537  14.719
55518SOL    HW168393   5.029   6.468  14.659
55518SOL    HW268394   5.152   6.529  14.723
55519SOL     OW68395  14.758  11.050   5.781
55519SOL    HW168396  14.757  11.097   5.697
55519SOL    HW268397  14.731  10.961   5.759
55520SOL     OW68398   9.074  12.768   8.640
55520SOL    HW168399   9.114  12.697   8.692
55520SOL    HW268400   9.080  12.845   8.696
55521SOL     OW68401   7.794   4.733   2.492
55521SOL    HW168402   7.875   4.689   2.518
55521SOL    HW268403   7.725   4.674   2.519
55522SOL     OW68404   8.864  12.495  14.285
55522SOL    HW168405   8.839  12.405  14.266
55522SOL    HW268406   8.804  12.522  14.355
55523SOL     OW68407  13.619   3.043  12.731
55523SOL    HW168408  13.669   2.983  12.787
55523SOL    HW268409  13.568   3.096  12.791
55524SOL     OW68410   5.016  12.329   6.205
55524SOL    HW168411   4.948  12.264   6.192
55524SOL    HW268412   5.024  12.337   6.300
55525SOL     OW68413   2.311   4.606  11.151
55525SOL    HW168414   2.289   4.513  11.156
55525SOL    HW268415   2.310   4.636  11.242
55526SOL     OW68416   8.889   7.973   0.913
55526SOL    HW168417   8.886   7.894   0.861
55526SOL    HW268418   8.799   7.986   0.943
55527SOL     OW68419   1.105   3.166   6.764
55527SOL    HW168420   1.186   3.115   6.760
55527SOL    HW268421   1.089   3.178   6.858
55528SOL     OW68422   0.888   2.973   5.355
55528SOL    HW168423   0.884   2.879   5.340
55528SOL    HW268424   0.980   2.990   5.375
55529SOL     OW68425   4.878   3.011   8.293
55529SOL    HW168426   4.927   3.020   8.212
55529SOL    HW268427   4.939   2.967   8.353
55530SOL     OW68428   9.639   5.335  10.947
55530SOL    HW168429   9.687   5.405  10.902
55530SOL    HW268430   9.632   5.265  10.881
55531SOL     OW68431   2.114   2.133   9.728
55531SOL    HW168432   2.164   2.056   9.701
55531SOL    HW268433   2.023   2.110   9.710
55532SOL     OW68434  14.633  12.365  14.567
55532SOL    HW168435  14.626  12.460  14.565
55532SOL    HW268436  14.727  12.348  14.566
55533SOL     OW68437  13.685   4.915  10.485
55533SOL    HW168438  13.704   4.953  10.570
55533SOL    HW268439  13.708   4.823  10.493
55534SOL     OW68440   7.192   3.170   7.651
55534SOL    HW168441   7.118   3.223   7.681
55534SOL    HW268442   7.241   3.228   7.594
55535SOL     OW68443  14.859   2.819   2.437
55535SOL    HW168444   0.025   2.753   2.493
55535SOL    HW268445  14.813   2.768   2.369
55536SOL     OW68446   3.474  11.118   8.330
55536SOL    HW168447   3.551  11.101   8.276
55536SOL    HW268448   3.454  11.211   8.316
55537SOL     OW68449   6.915   7.436   6.074
55537SOL    HW168450   6.933   7.527   6.099
55537SOL    HW268451   6.988   7.412   6.017
55538SOL     OW68452   9.526   1.932   1.243
55538SOL    HW168453   9.595   1.867   1.251
55538SOL    HW268454   9.468   1.897   1.175
55539SOL     OW68455   3.225  14.867   5.177
55539SOL    HW168456   3.156   0.057   5.163
55539SOL    HW268457   3.242  14.831   5.089
55540SOL     OW68458   5.657   9.717  12.476
55540SOL    HW168459   5.696   9.684  12.558
55540SOL    HW268460   5.718   9.689  12.408
55541SOL     OW68461  10.321  13.206   3.658
55541SOL    HW168462  10.230  13.209   3.626
55541SOL    HW268463  10.342  13.298   3.676
55542SOL     OW68464   1.346  12.214   0.111
55542SOL    HW168465   1.317  12.124   0.122
55542SOL    HW268466   1.266  12.266   0.118
55543SOL     OW68467   0.783   2.491   0.699
55543SOL    HW168468   0.819   2.507   0.786
55543SOL    HW268469   0.847   2.529   0.639
55544SOL     OW68470  13.549   8.192   6.534
55544SOL    HW168471  13.561   8.257   6.604
55544SOL    HW268472  13.458   8.165   6.542
55545SOL     OW68473  11.580   5.844   4.415
55545SOL    HW168474  11.665   5.804   4.435
55545SOL    HW268475  11.517   5.772   4.424
55546SOL     OW68476   1.476   8.678  10.380
55546SOL    HW168477   1.528   8.753  10.408
55546SOL    HW268478   1.541   8.613  10.353
55547SOL     OW68479   4.817   8.777   9.969
55547SOL    HW168480   4.863   8.697   9.946
55547SOL    HW268481   4.872   8.819  10.035
55548SOL     OW68482   7.844   4.316   8.637
55548SOL    HW168483   7.850   4.384   8.570
55548SOL    HW268484   7.932   4.277   8.640
55549SOL     OW68485   1.326  13.915   1.871
55549SOL    HW168486   1.303  13.994   1.921
55549SOL    HW268487   1.268  13.847   1.906
55550SOL     OW68488   1.366   5.569   3.552
55550SOL    HW168489   1.297   5.504   3.565
55550SOL    HW268490   1.339   5.618   3.474
55551SOL     OW68491   1.159   2.007   7.047
55551SOL    HW168492   1.254   2.017   7.046
55551SOL    HW268493   1.129   2.066   7.116
55552SOL     OW68494  10.958   3.120   4.337
55552SOL    HW168495  10.959   3.109   4.432
55552SOL    HW268496  10.866   3.107   4.312
55553SOL     OW68497   5.830   9.370   0.483
55553SOL    HW168498   5.873   9.290   0.513
55553SOL    HW268499   5.883   9.441   0.519
55554SOL     OW68500   9.703   6.938   8.829
55554SOL    HW168501   9.658   6.952   8.912
55554SOL    HW268502   9.636   6.948   8.762
55555SOL     OW68503  10.396   3.979   4.029
55555SOL    HW168504  10.360   4.045   4.089
55555SOL    HW268505  10.379   4.013   3.942
55556SOL     OW68506   4.129   0.547   2.813
55556SOL    HW168507   4.120   0.546   2.908
55556SOL    HW268508   4.125   0.640   2.790
55557SOL     OW68509   2.051   9.615   2.150
55557SOL    HW168510   2.113   9.607   2.078
55557SOL    HW268511   2.054   9.707   2.175
55558SOL     OW68512   5.485   6.065   0.222
55558SOL    HW168513   5.465   6.055   0.316
55558SOL    HW268514   5.571   6.107   0.220
55559SOL     OW68515  14.135   3.734  10.037
55559SOL    HW168516  14.148   3.749  10.131
55559SOL    HW268517  14.127   3.822   9.999
55560SOL     OW68518   5.099  10.122   1.445
55560SOL    HW168519   5.092  10.033   1.481
55560SOL    HW268520   5.192  10.142   1.450
55561SOL     OW68521   7.028  10.048   7.602
55561SOL    HW168522   7.015  10.138   7.572
55561SOL    HW268523   7.109  10.020   7.560
55562SOL     OW68524  10.187   0.099  12.017
55562SOL    HW168525  10.257   0.113  11.952
55562SOL    HW268526  10.228   0.043  12.083
55563SOL     OW68527   6.384   5.712   1.581
55563SOL    HW168528   6.439   5.742   1.509
55563SOL    HW268529   6.332   5.789   1.605
55564SOL     OW68530   9.044   5.027   5.233
55564SOL    HW168531   8.987   4.956   5.204
55564SOL    HW268532   9.080   4.996   5.317
55565SOL     OW68533  10.420   0.326   7.390
55565SOL    HW168534  10.506   0.320   7.432
55565SOL    HW268535  10.386   0.411   7.415
55566SOL     OW68536   7.510   3.982  11.897
55566SOL    HW168537   7.572   4.054  11.912
55566SOL    HW268538   7.475   4.000  11.809
55567SOL     OW68539   7.410   3.693   1.423
55567SOL    HW168540   7.399   3.780   1.384
55567SOL    HW268541   7.503   3.687   1.445
55568SOL     OW68542   2.636  14.814   2.134
55568SOL    HW168543   2.634   0.035   2.123
55568SOL    HW268544   2.556  14.783   2.092
55569SOL     OW68545  14.797   3.823   5.520
55569SOL    HW168546  14.832   3.872   5.446
55569SOL    HW268547  14.805   3.882   5.595
55570SOL     OW68548  12.245  12.459   3.664
55570SOL    HW168549  12.171  12.520   3.671
55570SOL    HW268550  12.220  12.399   3.593
55571SOL     OW68551  13.922   6.949   1.108
55571SOL    HW168552  13.994   7.011   1.093
55571SOL    HW268553  13.843   6.998   1.082
55572SOL     OW68554   3.930  12.897  10.708
55572SOL    HW168555   3.898  12.988  10.711
55572SOL    HW268556   4.013  12.903  10.661
55573SOL     OW68557  12.012   7.608   4.438
55573SOL    HW168558  11.918   7.595   4.449
55573SOL    HW268559  12.019   7.689   4.387
55574SOL     OW68560   5.726  12.180   3.397
55574SOL    HW168561   5.767  12.139   3.473
55574SOL    HW268562   5.798  12.208   3.342
55575SOL     OW68563  13.545   3.825  12.829
55575SOL    HW168564  13.639   3.817  12.816
55575SOL    HW268565  13.533   3.812  12.923
55576SOL     OW68566   7.770   3.159   6.362
55576SOL    HW168567   7.706   3.211   6.314
55576SOL    HW268568   7.843   3.219   6.377
55577SOL     OW68569  11.700  11.358   1.053
55577SOL    HW168570  11.776  11.332   1.001
55577SOL    HW268571  11.670  11.441   1.014
55578SOL     OW68572   3.767   4.172   0.059
55578SOL    HW168573   3.679   4.207   0.073
55578SOL    HW268574   3.789   4.129   0.142
55579SOL     OW68575   5.285   8.403  14.832
55579SOL    HW168576   5.326   8.316  14.833
55579SOL    HW268577   5.320   8.445  14.754
55580SOL     OW68578   6.425  14.173   3.632
55580SOL    HW168579   6.501  14.231   3.638
55580SOL    HW268580   6.441  14.106   3.698
55581SOL     OW68581   1.775  10.712   0.148
55581SOL    HW168582   1.863  10.740   0.124
55581SOL    HW268583   1.762  10.631   0.098
55582SOL     OW68584   4.400  10.698  14.285
55582SOL    HW168585   4.368  10.700  14.375
55582SOL    HW268586   4.322  10.714  14.232
55583SOL     OW68587   4.919   0.724   3.869
55583SOL    HW168588   4.835   0.696   3.832
55583SOL    HW268589   4.953   0.646   3.912
55584SOL     OW68590   9.435   8.108  12.944
55584SOL    HW168591   9.395   8.157  12.872
55584SOL    HW268592   9.458   8.024  12.906
55585SOL     OW68593   3.094  14.662  13.163
55585SOL    HW168594   3.009  14.622  13.184
55585SOL    HW268595   3.071  14.740  13.112
55586SOL     OW68596   1.679  10.228   0.331
55586SOL    HW168597   1.764  10.204   0.295
55586SOL    HW268598   1.699  10.295   0.397
55587SOL     OW68599   2.844   7.356  10.074
55587SOL    HW168600   2.879   7.411  10.004
55587SOL    HW268601   2.894   7.381  10.152
55588SOL     OW68602   8.641   4.094  13.709
55588SOL    HW168603   8.632   4.142  13.627
55588SOL    HW268604   8.643   4.001  13.683
55589SOL     OW68605   8.903   9.662  14.681
55589SOL    HW168606   8.966   9.635  14.748
55589SOL    HW268607   8.821   9.674  14.729
55590SOL     OW68608  14.376   4.519   5.404
55590SOL    HW168609  14.401   4.585   5.340
55590SOL    HW268610  14.456   4.470   5.421
55591SOL     OW68611   2.397   1.262  11.213
55591SOL    HW168612   2.340   1.222  11.148
55591SOL    HW268613   2.359   1.237  11.297
55592SOL     OW68614  11.560  10.789  13.441
55592SOL    HW168615  11.621  10.719  13.464
55592SOL    HW268616  11.615  10.865  13.428
55593SOL     OW68617   8.917  13.639   8.566
55593SOL    HW168618   8.987  13.658   8.628
55593SOL    HW268619   8.839  13.680   8.604
55594SOL     OW68620  13.593   7.590  13.833
55594SOL    HW168621  13.609   7.603  13.740
55594SOL    HW268622  13.580   7.678  13.868
55595SOL     OW68623   6.608   8.513  13.401
55595SOL    HW168624   6.535   8.537  13.343
55595SOL    HW268625   6.632   8.424  13.375
55596SOL     OW68626   4.545  12.759   5.857
55596SOL    HW168627   4.539  12.663   5.851
55596SOL    HW268628   4.564  12.787   5.767
55597SOL     OW68629   4.204   7.502   5.328
55597SOL    HW168630   4.139   7.443   5.367
55597SOL    HW268631   4.280   7.496   5.386
55598SOL     OW68632   6.188   0.399  10.292
55598SOL    HW168633   6.138   0.318  10.294
55598SOL    HW268634   6.168   0.443  10.374
55599SOL     OW68635   3.425  13.588  13.939
55599SOL    HW168636   3.348  13.562  13.888
55599SOL    HW268637   3.472  13.506  13.955
55600SOL     OW68638  13.879  11.152   4.116
55600SOL    HW168639  13.862  11.087   4.048
55600SOL    HW268640  13.808  11.216   4.108
55601SOL     OW68641  10.176   1.473  11.041
55601SOL    HW168642  10.146   1.458  11.130
55601SOL    HW268643  10.154   1.564  11.023
55602SOL     OW68644  10.619   0.508   2.176
55602SOL    HW168645  10.609   0.583   2.117
55602SOL    HW268646  10.576   0.436   2.131
55603SOL     OW68647  13.045   1.594  14.811
55603SOL    HW168648  12.994   1.608  14.731
55603SOL    HW268649  13.044   1.679  14.855
55604SOL     OW68650  10.781  10.951   5.354
55604SOL    HW168651  10.779  10.874   5.297
55604SOL    HW268652  10.868  10.988   5.341
55605SOL     OW68653   6.313   9.807   8.826
55605SOL    HW168654   6.404   9.826   8.804
55605SOL    HW268655   6.310   9.810   8.921
55606SOL     OW68656  12.048   9.568   2.753
55606SOL    HW168657  12.002   9.638   2.707
55606SOL    HW268658  12.124   9.550   2.699
55607SOL     OW68659  11.429  10.905   8.374
55607SOL    HW168660  11.353  10.850   8.391
55607SOL    HW268661  11.440  10.901   8.279
55608SOL     OW68662   3.912   1.283   7.034
55608SOL    HW168663   3.987   1.326   7.076
55608SOL    HW268664   3.952   1.216   6.977
55609SOL     OW68665   3.306  11.012   9.829
55609SOL    HW168666   3.387  10.964   9.843
55609SOL    HW268667   3.237  10.946   9.844
55610SOL     OW68668   4.659   8.791   2.465
55610SOL    HW168669   4.713   8.724   2.424
55610SOL    HW268670   4.650   8.762   2.556
55611SOL     OW68671   4.896   6.284   3.769
55611SOL    HW168672   4.837   6.234   3.825
55611SOL    HW268673   4.840   6.348   3.726
55612SOL     OW68674   9.426  12.971   5.633
55612SOL    HW168675   9.490  13.030   5.593
55612SOL    HW268676   9.342  13.000   5.598
55613SOL     OW68677   8.674  13.376   2.955
55613SOL    HW168678   8.592  13.382   3.004
55613SOL    HW268679   8.669  13.293   2.909
55614SOL     OW68680   9.864   2.652  13.746
55614SOL    HW168681   9.875   2.568  13.790
55614SOL    HW268682   9.953   2.682  13.729
55615SOL     OW68683  11.111   8.338   0.576
55615SOL    HW168684  11.069   8.414   0.616
55615SOL    HW268685  11.065   8.263   0.614
55616SOL     OW68686  13.935  13.986   6.673
55616SOL    HW168687  13.861  13.925   6.673
55616SOL    HW268688  13.924  14.037   6.593
55617SOL     OW68689   7.814   7.495  11.459
55617SOL    HW168690   7.841   7.469  11.371
55617SOL    HW268691   7.888   7.545  11.494
55618SOL     OW68692  10.804  10.686  13.109
55618SOL    HW168693  10.827  10.767  13.156
55618SOL    HW268694  10.789  10.715  13.019
55619SOL     OW68695   5.444  13.282   7.137
55619SOL    HW168696   5.413  13.191   7.136
55619SOL    HW268697   5.379  13.329   7.188
55620SOL     OW68698  10.851   1.531  13.780
55620SOL    HW168699  10.822   1.616  13.813
55620SOL    HW268700  10.873   1.481  13.859
55621SOL     OW68701   3.013   1.004   3.760
55621SOL    HW168702   3.095   0.970   3.724
55621SOL    HW268703   3.016   0.982   3.853
55622SOL     OW68704   5.779  13.017   6.304
55622SOL    HW168705   5.749  13.045   6.218
55622SOL    HW268706   5.711  13.049   6.364
55623SOL     OW68707   7.722   4.088   8.563
55623SOL    HW168708   7.649   4.085   8.625
55623SOL    HW268709   7.759   4.175   8.574
55624SOL     OW68710   6.910   5.508   4.540
55624SOL    HW168711   6.908   5.586   4.595
55624SOL    HW268712   6.833   5.457   4.568
55625SOL     OW68713   1.691  13.321   7.917
55625SOL    HW168714   1.601  13.317   7.948
55625SOL    HW268715   1.683  13.328   7.822
55626SOL     OW68716   1.717   5.611   9.072
55626SOL    HW168717   1.778   5.681   9.048
55626SOL    HW268718   1.767   5.530   9.058
55627SOL     OW68719   9.986   3.430   0.656
55627SOL    HW168720  10.025   3.357   0.608
55627SOL    HW268721  10.004   3.411   0.748
55628SOL     OW68722  13.565   6.045   2.795
55628SOL    HW168723  13.530   5.958   2.775
55628SOL    HW268724  13.537   6.099   2.721
55629SOL     OW68725  10.638  10.697  11.631
55629SOL    HW168726  10.675  10.609  11.623
55629SOL    HW268727  10.543  10.682  11.634
55630SOL     OW68728   8.281   9.406   1.921
55630SOL    HW168729   8.305   9.498   1.908
55630SOL    HW268730   8.193   9.399   1.883
55631SOL     OW68731   2.129   0.022   0.016
55631SOL    HW168732   2.169   0.047   0.099
55631SOL    HW268733   2.147  14.803   0.008
55632SOL     OW68734   9.259  13.862   5.748
55632SOL    HW168735   9.300  13.890   5.666
55632SOL    HW268736   9.271  13.767   5.750
55633SOL     OW68737  14.790   5.725   4.267
55633SOL    HW168738  14.702   5.757   4.244
55633SOL    HW268739  14.812   5.772   4.347
55634SOL     OW68740   3.892   0.878   2.878
55634SOL    HW168741   3.958   0.923   2.930
55634SOL    HW268742   3.822   0.858   2.940
55635SOL     OW68743  12.405   0.692   9.124
55635SOL    HW168744  12.353   0.768   9.097
55635SOL    HW268745  12.357   0.617   9.088
55636SOL     OW68746  11.018   3.497   3.500
55636SOL    HW168747  11.054   3.419   3.457
55636SOL    HW268748  10.963   3.538   3.434
55637SOL     OW68749  11.802   3.453  11.799
55637SOL    HW168750  11.825   3.533  11.847
55637SOL    HW268751  11.792   3.482  11.709
55638SOL     OW68752   9.805  12.436  14.827
55638SOL    HW168753   9.766  12.349  14.836
55638SOL    HW268754   9.796  12.474   0.040
55639SOL     OW68755  11.945   1.749   8.597
55639SOL    HW168756  12.012   1.792   8.650
55639SOL    HW268757  11.944   1.799   8.515
55640SOL     OW68758   5.453  14.847  11.238
55640SOL    HW168759   5.542  14.840  11.273
55640SOL    HW268760   5.405  14.779  11.285
55641SOL     OW68761   6.911   9.710  12.791
55641SOL    HW168762   6.912   9.776  12.721
55641SOL    HW268763   6.821   9.713  12.824
55642SOL     OW68764   9.375   7.952  13.768
55642SOL    HW168765   9.314   7.997  13.827
55642SOL    HW268766   9.347   7.979  13.680
55643SOL     OW68767  14.199  14.020   1.957
55643SOL    HW168768  14.190  14.047   1.865
55643SOL    HW268769  14.261  13.948   1.954
55644SOL     OW68770  10.269   1.632  12.919
55644SOL    HW168771  10.319   1.550  12.924
55644SOL    HW268772  10.243   1.638  12.828
55645SOL     OW68773   5.644  11.827   4.736
55645SOL    HW168774   5.661  11.804   4.645
55645SOL    HW268775   5.590  11.907   4.730
55646SOL     OW68776   5.949  12.017   6.205
55646SOL    HW168777   5.998  12.014   6.287
55646SOL    HW268778   5.873  11.961   6.221
55647SOL     OW68779  12.378  12.577   0.423
55647SOL    HW168780  12.423  12.557   0.505
55647SOL    HW268781  12.359  12.491   0.385
55648SOL     OW68782   9.381  10.603  10.822
55648SOL    HW168783   9.378  10.579  10.730
55648SOL    HW268784   9.289  10.612  10.848
55649SOL     OW68785  13.084   5.695   6.657
55649SOL    HW168786  13.111   5.682   6.748
55649SOL    HW268787  12.989   5.688   6.659
55650SOL     OW68788  12.039   8.575   8.319
55650SOL    HW168789  11.982   8.638   8.362
55650SOL    HW268790  12.104   8.552   8.386
55651SOL     OW68791   0.818   2.558   5.684
55651SOL    HW168792   0.757   2.485   5.675
55651SOL    HW268793   0.834   2.564   5.778
55652SOL     OW68794  12.602  11.829   5.826
55652SOL    HW168795  12.513  11.813   5.855
55652SOL    HW268796  12.631  11.747   5.787
55653SOL     OW68797   3.473   8.256   4.043
55653SOL    HW168798   3.466   8.181   4.103
55653SOL    HW268799   3.498   8.329   4.100
55654SOL     OW68800   2.776  14.305   9.480
55654SOL    HW168801   2.748  14.335   9.394
55654SOL    HW268802   2.835  14.375   9.512
55655SOL     OW68803  11.641   3.840  10.123
55655SOL    HW168804  11.639   3.914  10.184
55655SOL    HW268805  11.600   3.768  10.172
55656SOL     OW68806   7.131  12.921   7.953
55656SOL    HW168807   7.093  12.916   7.865
55656SOL    HW268808   7.200  12.987   7.945
55657SOL     OW68809  11.760   7.058   4.311
55657SOL    HW168810  11.708   7.138   4.320
55657SOL    HW268811  11.840   7.088   4.267
55658SOL     OW68812   7.670  12.815  11.104
55658SOL    HW168813   7.691  12.781  11.191
55658SOL    HW268814   7.600  12.758  11.072
55659SOL     OW68815   9.932   9.989   0.919
55659SOL    HW168816  10.007  10.015   0.867
55659SOL    HW268817   9.886   9.924   0.866
55660SOL     OW68818   5.023  14.316   7.137
55660SOL    HW168819   4.940  14.274   7.116
55660SOL    HW268820   5.000  14.409   7.148
55661SOL     OW68821  10.083   1.399   3.920
55661SOL    HW168822  10.005   1.362   3.963
55661SOL    HW268823  10.050   1.476   3.873
55662SOL     OW68824   0.915  13.381   9.391
55662SOL    HW168825   0.966  13.321   9.445
55662SOL    HW268826   0.841  13.407   9.447
55663SOL     OW68827   5.793   6.360   7.351
55663SOL    HW168828   5.866   6.417   7.328
55663SOL    HW268829   5.806   6.282   7.297
55664SOL     OW68830   7.251   5.453  13.894
55664SOL    HW168831   7.278   5.545  13.894
55664SOL    HW268832   7.290   5.417  13.814
55665SOL     OW68833  12.506  11.908  14.300
55665SOL    HW168834  12.441  11.970  14.332
55665SOL    HW268835  12.582  11.921  14.358
55666SOL     OW68836  10.553  14.184   2.754
55666SOL    HW168837  10.506  14.105   2.728
55666SOL    HW268838  10.484  14.248   2.774
55667SOL     OW68839   6.483   9.384   4.330
55667SOL    HW168840   6.547   9.322   4.365
55667SOL    HW268841   6.502   9.466   4.378
55668SOL     OW68842   3.354  12.945   4.879
55668SOL    HW168843   3.338  12.977   4.791
55668SOL    HW268844   3.308  13.007   4.936
55669SOL     OW68845   3.544   4.321  10.320
55669SOL    HW168846   3.545   4.227  10.300
55669SOL    HW268847   3.615   4.357  10.267
55670SOL     OW68848   8.821  14.256   3.633
55670SOL    HW168849   8.834  14.351   3.634
55670SOL    HW268850   8.867  14.225   3.711
55671SOL     OW68851   4.489   5.572   5.536
55671SOL    HW168852   4.441   5.603   5.613
55671SOL    HW268853   4.522   5.486   5.562
55672SOL     OW68854  14.114  14.719   2.714
55672SOL    HW168855  14.077  14.632   2.727
55672SOL    HW268856  14.039  14.773   2.688
55673SOL     OW68857  10.239   9.106  11.219
55673SOL    HW168858  10.282   9.109  11.134
55673SOL    HW268859  10.193   9.022  11.221
55674SOL     OW68860  14.571   1.411   3.869
55674SOL    HW168861  14.657   1.450   3.884
55674SOL    HW268862  14.589   1.327   3.826
55675SOL     OW68863   1.110  10.591  12.279
55675SOL    HW168864   1.025  10.619  12.313
55675SOL    HW268865   1.089  10.533  12.206
55676SOL     OW68866  14.825   9.803   1.471
55676SOL    HW168867  14.806   9.783   1.379
55676SOL    HW268868  14.825   9.898   1.475
55677SOL     OW68869  14.355  14.072   2.957
55677SOL    HW168870  14.443  14.038   2.942
55677SOL    HW268871  14.361  14.165   2.934
55678SOL     OW68872   6.025   1.263   5.809
55678SOL    HW168873   6.008   1.357   5.819
55678SOL    HW268874   6.048   1.233   5.898
55679SOL     OW68875  11.785   9.484   6.115
55679SOL    HW168876  11.855   9.497   6.051
55679SOL    HW268877  11.774   9.570   6.156
55680SOL     OW68878  11.081   0.031   8.560
55680SOL    HW168879  11.143  14.852   8.612
55680SOL    HW268880  11.119   0.119   8.560
55681SOL     OW68881  11.040  14.465   0.401
55681SOL    HW168882  11.105  14.473   0.331
55681SOL    HW268883  10.968  14.417   0.360
55682SOL     OW68884   1.372   4.953   1.506
55682SOL    HW168885   1.341   4.970   1.595
55682SOL    HW268886   1.399   5.039   1.473
55683SOL     OW68887   3.234   3.163  11.338
55683SOL    HW168888   3.307   3.131  11.392
55683SOL    HW268889   3.269   3.242  11.296
55684SOL     OW68890   9.918  13.167  10.168
55684SOL    HW168891   9.949  13.076  10.168
55684SOL    HW268892   9.873  13.177  10.252
55685SOL     OW68893   3.375   9.533   0.285
55685SOL    HW168894   3.368   9.444   0.251
55685SOL    HW268895   3.284   9.559   0.302
55686SOL     OW68896   0.766  10.713   9.097
55686SOL    HW168897   0.761  10.729   9.191
55686SOL    HW268898   0.692  10.655   9.079
55687SOL     OW68899   7.484  11.319   8.538
55687SOL    HW168900   7.575  11.337   8.561
55687SOL    HW268901   7.451  11.403   8.504
55688SOL     OW68902   4.234   3.382  11.141
55688SOL    HW168903   4.183   3.372  11.222
55688SOL    HW268904   4.214   3.304  11.090
55689SOL     OW68905  10.171  10.929  11.955
55689SOL    HW168906  10.220  10.852  11.984
55689SOL    HW268907  10.194  10.938  11.863
55690SOL     OW68908   2.372   0.287   1.233
55690SOL    HW168909   2.372   0.191   1.241
55690SOL    HW268910   2.364   0.319   1.323
55691SOL     OW68911  14.479  13.223   2.808
55691SOL    HW168912  14.400  13.217   2.862
55691SOL    HW268913  14.459  13.170   2.731
55692SOL     OW68914  12.869   4.343  12.069
55692SOL    HW168915  12.942   4.281  12.069
55692SOL    HW268916  12.810   4.310  12.136
55693SOL     OW68917   8.615  13.638   5.063
55693SOL    HW168918   8.536  13.600   5.101
55693SOL    HW268919   8.687  13.595   5.111
55694SOL     OW68920   6.320   2.555  11.762
55694SOL    HW168921   6.225   2.556  11.758
55694SOL    HW268922   6.340   2.499  11.837
55695SOL     OW68923   4.777  11.611   6.560
55695SOL    HW168924   4.823  11.673   6.504
55695SOL    HW268925   4.694  11.596   6.517
55696SOL     OW68926   9.060   4.563   5.888
55696SOL    HW168927   9.154   4.564   5.903
55696SOL    HW268928   9.022   4.543   5.974
55697SOL     OW68929   0.380   2.328   7.150
55697SOL    HW168930   0.380   2.233   7.155
55697SOL    HW268931   0.297   2.354   7.191
55698SOL     OW68932  10.176   2.243   9.512
55698SOL    HW168933  10.269   2.244   9.531
55698SOL    HW268934  10.134   2.273   9.593
55699SOL     OW68935   4.080   6.009   9.872
55699SOL    HW168936   4.061   6.092   9.917
55699SOL    HW268937   3.997   5.961   9.875
55700SOL     OW68938  10.400   8.590   0.717
55700SOL    HW168939  10.484   8.614   0.677
55700SOL    HW268940  10.375   8.509   0.673
55701SOL     OW68941  10.100  13.277   0.092
55701SOL    HW168942  10.047  13.248   0.166
55701SOL    HW268943  10.125  13.196   0.046
55702SOL     OW68944  11.976   4.835   7.355
55702SOL    HW168945  12.031   4.757   7.349
55702SOL    HW268946  11.886   4.802   7.346
55703SOL     OW68947   1.535   1.306   6.727
55703SOL    HW168948   1.576   1.327   6.643
55703SOL    HW268949   1.495   1.220   6.714
55704SOL     OW68950   3.110   7.505   4.414
55704SOL    HW168951   3.165   7.482   4.489
55704SOL    HW268952   3.173   7.532   4.347
55705SOL     OW68953  12.253   4.907   3.468
55705SOL    HW168954  12.291   4.918   3.556
55705SOL    HW268955  12.166   4.870   3.485
55706SOL     OW68956   8.939   0.337   8.639
55706SOL    HW168957   8.918   0.271   8.705
55706SOL    HW268958   8.882   0.411   8.660
55707SOL     OW68959   1.194  12.480  10.287
55707SOL    HW168960   1.277  12.451  10.324
55707SOL    HW268961   1.180  12.423  10.211
55708SOL     OW68962  10.698   8.805   3.647
55708SOL    HW168963  10.720   8.888   3.604
55708SOL    HW268964  10.678   8.746   3.574
55709SOL     OW68965  12.767   6.187  13.780
55709SOL    HW168966  12.832   6.222  13.840
55709SOL    HW268967  12.818   6.159  13.703
55710SOL     OW68968  14.679   5.042   5.251
55710SOL    HW168969  14.721   5.004   5.174
55710SOL    HW268970  14.750   5.089   5.296
55711SOL     OW68971   4.016   0.677  13.501
55711SOL    HW168972   4.014   0.655  13.595
55711SOL    HW268973   4.108   0.674  13.477
55712SOL     OW68974   6.141   1.679   0.575
55712SOL    HW168975   6.053   1.706   0.603
55712SOL    HW268976   6.191   1.761   0.573
55713SOL     OW68977   8.176   6.106   7.044
55713SOL    HW168978   8.248   6.120   6.984
55713SOL    HW268979   8.213   6.122   7.131
55714SOL     OW68980   3.522   9.392   1.800
55714SOL    HW168981   3.481   9.353   1.722
55714SOL    HW268982   3.574   9.322   1.837
55715SOL     OW68983  14.490   1.026   7.992
55715SOL    HW168984  14.518   1.069   8.072
55715SOL    HW268985  14.499   1.093   7.924
55716SOL     OW68986   3.224  13.040  13.568
55716SOL    HW168987   3.135  13.054  13.601
55716SOL    HW268988   3.214  13.039  13.472
55717SOL     OW68989  13.340   2.927  13.729
55717SOL    HW168990  13.427   2.894  13.753
55717SOL    HW268991  13.315   2.985  13.801
55718SOL     OW68992   8.236  12.892   2.377
55718SOL    HW168993   8.309  12.831   2.364
55718SOL    HW268994   8.256  12.934   2.461
55719SOL     OW68995   7.877  12.877   5.783
55719SOL    HW168996   7.786  12.904   5.768
55719SOL    HW268997   7.882  12.790   5.744
55720SOL     OW68998   3.006  10.360   3.824
55720SOL    HW168999   3.072  10.420   3.860
55720SOL    HW269000   3.024  10.276   3.867
55721SOL     OW69001   5.758   9.458  11.997
55721SOL    HW169002   5.752   9.476  11.903
55721SOL    HW269003   5.852   9.450  12.013
55722SOL     OW69004   5.165   4.097  11.211
55722SOL    HW169005   5.180   4.005  11.189
55722SOL    HW269006   5.186   4.103  11.304
55723SOL     OW69007   9.044   3.370  12.922
55723SOL    HW169008   9.076   3.289  12.961
55723SOL    HW269009   9.072   3.439  12.982
55724SOL     OW69010   4.638   2.456   4.844
55724SOL    HW169011   4.649   2.365   4.817
55724SOL    HW269012   4.680   2.507   4.775
55725SOL     OW69013   2.256  11.524  11.818
55725SOL    HW169014   2.351  11.523  11.818
55725SOL    HW269015   2.232  11.553  11.729
55726SOL     OW69016  11.892   4.035   9.880
55726SOL    HW169017  11.859   4.118   9.916
55726SOL    HW269018  11.955   4.061   9.813
55727SOL     OW69019  13.295  11.686  10.603
55727SOL    HW169020  13.209  11.645  10.609
55727SOL    HW269021  13.311  11.719  10.691
55728SOL     OW69022   8.217   7.119  13.395
55728SOL    HW169023   8.204   7.206  13.433
55728SOL    HW269024   8.300   7.089  13.431
55729SOL     OW69025  12.124  12.139  10.729
55729SOL    HW169026  12.136  12.060  10.676
55729SOL    HW269027  12.188  12.130  10.800
55730SOL     OW69028   9.527   8.610   1.601
55730SOL    HW169029   9.503   8.683   1.544
55730SOL    HW269030   9.535   8.536   1.541
55731SOL     OW69031  13.348   7.213   6.062
55731SOL    HW169032  13.335   7.272   5.987
55731SOL    HW269033  13.337   7.125   6.026
55732SOL     OW69034   1.770  10.354   4.309
55732SOL    HW169035   1.863  10.372   4.322
55732SOL    HW269036   1.765  10.316   4.221
55733SOL     OW69037   8.539  12.440   3.033
55733SOL    HW169038   8.618  12.492   3.024
55733SOL    HW269039   8.567  12.359   3.077
55734SOL     OW69040  13.274   2.767   3.518
55734SOL    HW169041  13.349   2.825   3.506
55734SOL    HW269042  13.198   2.821   3.500
55735SOL     OW69043   5.438  12.928   4.670
55735SOL    HW169044   5.400  12.886   4.747
55735SOL    HW269045   5.522  12.884   4.658
55736SOL     OW69046  12.142   7.736  11.080
55736SOL    HW169047  12.132   7.788  11.000
55736SOL    HW269048  12.145   7.801  11.151
55737SOL     OW69049  11.223  14.403  11.983
55737SOL    HW169050  11.224  14.310  11.961
55737SOL    HW269051  11.233  14.406  12.078
55738SOL     OW69052   0.889   8.262   2.873
55738SOL    HW169053   0.929   8.179   2.847
55738SOL    HW269054   0.849   8.244   2.958
55739SOL     OW69055   0.650   8.033   9.304
55739SOL    HW169056   0.576   8.022   9.363
55739SOL    HW269057   0.624   8.105   9.246
55740SOL     OW69058   6.503  11.077  12.474
55740SOL    HW169059   6.432  11.119  12.524
55740SOL    HW269060   6.457  11.022  12.410
55741SOL     OW69061  12.444   4.079   0.063
55741SOL    HW169062  12.529   4.123   0.065
55741SOL    HW269063  12.458   4.004   0.005
55742SOL     OW69064   4.228   7.615  14.867
55742SOL    HW169065   4.267   7.650  14.787
55742SOL    HW269066   4.302   7.598   0.051
55743SOL     OW69067   4.068   9.290   9.302
55743SOL    HW169068   4.003   9.228   9.269
55743SOL    HW269069   4.078   9.267   9.395
55744SOL     OW69070  10.711   2.928   9.253
55744SOL    HW169071  10.671   2.902   9.170
55744SOL    HW269072  10.683   2.862   9.316
55745SOL     OW69073   6.277   9.563   1.090
55745SOL    HW169074   6.217   9.596   1.157
55745SOL    HW269075   6.345   9.517   1.140
55746SOL     OW69076  10.445   1.620   9.569
55746SOL    HW169077  10.473   1.612   9.660
55746SOL    HW269078  10.398   1.704   9.566
55747SOL     OW69079   1.582  12.972   6.147
55747SOL    HW169080   1.494  12.983   6.182
55747SOL    HW269081   1.575  12.997   6.055
55748SOL     OW69082   9.521   4.667   4.226
55748SOL    HW169083   9.487   4.751   4.257
55748SOL    HW269084   9.605   4.688   4.185
55749SOL     OW69085   8.717   7.826   0.517
55749SOL    HW169086   8.660   7.807   0.591
55749SOL    HW269087   8.672   7.897   0.471
55750SOL     OW69088   5.640  13.911   1.852
55750SOL    HW169089   5.680  13.944   1.932
55750SOL    HW269090   5.678  13.824   1.840
55751SOL     OW69091   2.593   2.498   5.103
55751SOL    HW169092   2.606   2.580   5.150
55751SOL    HW269093   2.497   2.489   5.097
55752SOL     OW69094   5.439   5.582  10.593
55752SOL    HW169095   5.363   5.635  10.569
55752SOL    HW269096   5.429   5.501  10.543
55753SOL     OW69097   6.498   2.328  14.409
55753SOL    HW169098   6.589   2.356  14.401
55753SOL    HW269099   6.473   2.352  14.498
55754SOL     OW69100   4.302   6.337   8.731
55754SOL    HW169101   4.302   6.252   8.687
55754SOL    HW269102   4.394   6.365   8.728
55755SOL     OW69103   7.779  12.673   2.659
55755SOL    HW169104   7.832  12.607   2.704
55755SOL    HW269105   7.735  12.721   2.729
55756SOL     OW69106   0.054  10.096   1.438
55756SOL    HW169107  14.855  10.069   1.382
55756SOL    HW269108   0.021  10.173   1.485
55757SOL     OW69109   5.277  13.013   9.873
55757SOL    HW169110   5.293  13.100   9.835
55757SOL    HW269111   5.345  12.957   9.837
55758SOL     OW69112   6.043  10.167   9.507
55758SOL    HW169113   6.044  10.163   9.411
55758SOL    HW269114   5.958  10.130   9.531
55759SOL     OW69115  12.842   0.917   2.900
55759SOL    HW169116  12.900   0.991   2.879
55759SOL    HW269117  12.756   0.945   2.871
55760SOL     OW69118   7.673  12.413  13.041
55760SOL    HW169119   7.731  12.387  13.113
55760SOL    HW269120   7.687  12.347  12.974
55761SOL     OW69121  13.004   9.829  12.693
55761SOL    HW169122  12.992   9.759  12.758
55761SOL    HW269123  12.919   9.873  12.691
55762SOL     OW69124  10.205   1.100   0.806
55762SOL    HW169125  10.278   1.107   0.744
55762SOL    HW269126  10.210   1.010   0.838
55763SOL     OW69127  14.398   4.392   3.498
55763SOL    HW169128  14.453   4.326   3.539
55763SOL    HW269129  14.343   4.344   3.436
55764SOL     OW69130   1.895   7.291   7.936
55764SOL    HW169131   1.916   7.207   7.895
55764SOL    HW269132   1.958   7.300   8.008
55765SOL     OW69133   5.748   3.590  10.844
55765SOL    HW169134   5.659   3.607  10.812
55765SOL    HW269135   5.802   3.656  10.799
55766SOL     OW69136  11.577   2.941   4.582
55766SOL    HW169137  11.545   3.009   4.641
55766SOL    HW269138  11.525   2.864   4.604
55767SOL     OW69139  11.709   1.597  12.530
55767SOL    HW169140  11.662   1.679  12.549
55767SOL    HW269141  11.771   1.621  12.461
55768SOL     OW69142   8.386  13.623  12.656
55768SOL    HW169143   8.345  13.615  12.571
55768SOL    HW269144   8.332  13.686  12.704
55769SOL     OW69145   9.678  13.848  14.310
55769SOL    HW169146   9.735  13.801  14.370
55769SOL    HW269147   9.607  13.786  14.291
55770SOL     OW69148  10.730   6.979   8.965
55770SOL    HW169149  10.724   6.984   8.870
55770SOL    HW269150  10.640   6.989   8.995
55771SOL     OW69151   0.924   6.880   5.214
55771SOL    HW169152   0.988   6.948   5.195
55771SOL    HW269153   0.948   6.847   5.301
55772SOL     OW69154   2.322   2.717   1.826
55772SOL    HW169155   2.232   2.747   1.835
55772SOL    HW269156   2.318   2.623   1.843
55773SOL     OW69157   1.887   0.820   7.673
55773SOL    HW169158   1.914   0.734   7.704
55773SOL    HW269159   1.955   0.879   7.704
55774SOL     OW69160   4.388   0.320  14.487
55774SOL    HW169161   4.451   0.340  14.557
55774SOL    HW269162   4.436   0.263  14.428
55775SOL     OW69163   1.025   7.276   7.681
55775SOL    HW169164   1.043   7.368   7.664
55775SOL    HW269165   0.989   7.243   7.598
55776SOL     OW69166   2.620   1.993  12.177
55776SOL    HW169167   2.714   1.982  12.194
55776SOL    HW269168   2.579   1.920  12.223
55777SOL     OW69169   2.304   8.529   5.042
55777SOL    HW169170   2.310   8.598   4.976
55777SOL    HW269171   2.373   8.549   5.105
55778SOL     OW69172  13.227  13.560   9.368
55778SOL    HW169173  13.214  13.619   9.295
55778SOL    HW269174  13.155  13.497   9.363
55779SOL     OW69175  11.968   1.187  12.036
55779SOL    HW169176  11.943   1.126  12.106
55779SOL    HW269177  12.010   1.260  12.082
55780SOL     OW69178   3.109  14.509   6.896
55780SOL    HW169179   3.164  14.570   6.847
55780SOL    HW269180   3.020  14.542   6.883
55781SOL     OW69181   0.868   2.963   4.161
55781SOL    HW169182   0.817   2.885   4.140
55781SOL    HW269183   0.940   2.962   4.098
55782SOL     OW69184  10.023   0.303   5.744
55782SOL    HW169185   9.952   0.281   5.683
55782SOL    HW269186  10.070   0.375   5.701
55783SOL     OW69187   3.031  13.443   8.972
55783SOL    HW169188   2.999  13.361   8.936
55783SOL    HW269189   2.953  13.485   9.010
55784SOL     OW69190   4.608  11.512  13.269
55784SOL    HW169191   4.645  11.552  13.190
55784SOL    HW269192   4.681  11.508  13.330
55785SOL     OW69193   9.298  10.513   9.035
55785SOL    HW169194   9.303  10.602   9.068
55785SOL    HW269195   9.387  10.479   9.045
55786SOL     OW69196   7.978  12.438   3.809
55786SOL    HW169197   8.039  12.511   3.822
55786SOL    HW269198   7.993  12.411   3.718
55787SOL     OW69199   8.985   6.235   2.988
55787SOL    HW169200   8.894   6.262   3.004
55787SOL    HW269201   8.983   6.139   2.994
55788SOL     OW69202  12.237   2.158   2.411
55788SOL    HW169203  12.280   2.139   2.494
55788SOL    HW269204  12.225   2.253   2.412
55789SOL     OW69205  10.824   1.990   8.165
55789SOL    HW169206  10.904   2.026   8.203
55789SOL    HW269207  10.855   1.925   8.102
55790SOL     OW69208   4.008  10.803  13.406
55790SOL    HW169209   4.093  10.769  13.434
55790SOL    HW269210   4.021  10.897  13.396
55791SOL     OW69211   3.808  13.084   4.511
55791SOL    HW169212   3.728  13.129   4.480
55791SOL    HW269213   3.871  13.098   4.441
55792SOL     OW69214   1.006   9.043   1.318
55792SOL    HW169215   0.974   8.954   1.331
55792SOL    HW269216   1.070   9.035   1.248
55793SOL     OW69217  14.640  14.809   6.337
55793SOL    HW169218  14.700  14.758   6.282
55793SOL    HW269219  14.668   0.026   6.325
55794SOL     OW69220   9.302   6.578  11.646
55794SOL    HW169221   9.376   6.564  11.588
55794SOL    HW269222   9.237   6.514  11.618
55795SOL     OW69223  10.730  13.461   6.456
55795SOL    HW169224  10.671  13.485   6.385
55795SOL    HW269225  10.789  13.535   6.464
55796SOL     OW69226   2.362   4.296  13.040
55796SOL    HW169227   2.337   4.282  12.949
55796SOL    HW269228   2.278   4.299  13.087
55797SOL     OW69229   4.306   2.177   0.832
55797SOL    HW169230   4.289   2.199   0.923
55797SOL    HW269231   4.222   2.193   0.788
55798SOL     OW69232  10.588   6.746   8.159
55798SOL    HW169233  10.606   6.832   8.197
55798SOL    HW269234  10.497   6.752   8.129
55799SOL     OW69235  13.188   2.216   0.920
55799SOL    HW169236  13.111   2.222   0.976
55799SOL    HW269237  13.180   2.130   0.878
55800SOL     OW69238   9.554  13.467   8.713
55800SOL    HW169239   9.496  13.464   8.637
55800SOL    HW269240   9.606  13.387   8.707
55801SOL     OW69241   7.181  10.749   4.092
55801SOL    HW169242   7.166  10.655   4.084
55801SOL    HW269243   7.256  10.766   4.036
55802SOL     OW69244   8.839   8.151   5.837
55802SOL    HW169245   8.826   8.246   5.828
55802SOL    HW269246   8.899   8.129   5.766
55803SOL     OW69247   4.972  11.003  11.755
55803SOL    HW169248   4.916  11.025  11.680
55803SOL    HW269249   5.024  10.929  11.726
55804SOL     OW69250   2.589   3.714  14.485
55804SOL    HW169251   2.503   3.748  14.459
55804SOL    HW269252   2.634   3.697  14.402
55805SOL     OW69253   5.787  13.303  13.166
55805SOL    HW169254   5.726  13.330  13.097
55805SOL    HW269255   5.741  13.235  13.214
55806SOL     OW69256   6.230   6.174   1.371
55806SOL    HW169257   6.158   6.186   1.434
55806SOL    HW269258   6.202   6.102   1.315
55807SOL     OW69259  10.925   6.288  13.761
55807SOL    HW169260  10.967   6.242  13.689
55807SOL    HW269261  10.832   6.290  13.738
55808SOL     OW69262  10.637   2.970  12.369
55808SOL    HW169263  10.597   3.039  12.316
55808SOL    HW269264  10.568   2.904  12.377
55809SOL     OW69265   3.159  14.078   9.335
55809SOL    HW169266   3.231  14.139   9.318
55809SOL    HW269267   3.083  14.134   9.353
55810SOL     OW69268  12.513   2.901  11.442
55810SOL    HW169269  12.424   2.877  11.470
55810SOL    HW269270  12.564   2.903  11.523
55811SOL     OW69271   3.772   8.199   4.717
55811SOL    HW169272   3.813   8.142   4.651
55811SOL    HW269273   3.744   8.139   4.786
55812SOL     OW69274  13.253   4.814   3.319
55812SOL    HW169275  13.203   4.785   3.395
55812SOL    HW269276  13.340   4.775   3.332
55813SOL     OW69277   9.696   7.104   0.837
55813SOL    HW169278   9.702   7.012   0.812
55813SOL    HW269279   9.613   7.134   0.799
55814SOL     OW69280   6.569   2.812  12.007
55814SOL    HW169281   6.491   2.778  12.051
55814SOL    HW269282   6.571   2.767  11.922
55815SOL     OW69283  11.814  13.164   7.727
55815SOL    HW169284  11.893  13.217   7.719
55815SOL    HW269285  11.747  13.214   7.679
55816SOL     OW69286  10.077   7.099   4.231
55816SOL    HW169287  10.115   7.176   4.188
55816SOL    HW269288   9.987   7.125   4.252
55817SOL     OW69289   1.293   9.448   7.845
55817SOL    HW169290   1.287   9.458   7.750
55817SOL    HW269291   1.352   9.373   7.858
55818SOL     OW69292   8.009  11.271  14.758
55818SOL    HW169293   7.988  11.208  14.690
55818SOL    HW269294   7.930  11.323  14.768
55819SOL     OW69295  11.359  12.260   1.870
55819SOL    HW169296  11.400  12.334   1.914
55819SOL    HW269297  11.321  12.297   1.790
55820SOL     OW69298   4.727  10.267  13.309
55820SOL    HW169299   4.670  10.285  13.384
55820SOL    HW269300   4.797  10.212  13.345
55821SOL     OW69301   1.314   1.552   7.297
55821SOL    HW169302   1.279   1.471   7.259
55821SOL    HW269303   1.338   1.605   7.220
55822SOL     OW69304   1.729  11.056   5.044
55822SOL    HW169305   1.713  10.990   5.112
55822SOL    HW269306   1.684  11.021   4.967
55823SOL     OW69307   6.038  12.039   1.531
55823SOL    HW169308   5.989  12.102   1.583
55823SOL    HW269309   5.971  11.979   1.497
55824SOL     OW69310   4.677  10.689   8.065
55824SOL    HW169311   4.584  10.711   8.066
55824SOL    HW269312   4.714  10.741   7.993
55825SOL     OW69313   4.272  13.024   0.599
55825SOL    HW169314   4.335  13.093   0.620
55825SOL    HW269315   4.211  13.064   0.538
55826SOL     OW69316  14.555   4.166   1.257
55826SOL    HW169317  14.465   4.168   1.226
55826SOL    HW269318  14.607   4.147   1.178
55827SOL     OW69319  10.038  11.079   8.958
55827SOL    HW169320  10.001  11.167   8.956
55827SOL    HW269321   9.962  11.022   8.974
55828SOL     OW69322   3.657   1.282   2.810
55828SOL    HW169323   3.697   1.233   2.738
55828SOL    HW269324   3.723   1.281   2.879
55829SOL     OW69325  12.730  11.506   2.259
55829SOL    HW169326  12.756  11.442   2.193
55829SOL    HW269327  12.720  11.588   2.210
55830SOL     OW69328  12.970   5.124  11.658
55830SOL    HW169329  12.921   5.189  11.608
55830SOL    HW269330  12.915   5.045  11.655
55831SOL     OW69331   8.649   0.562  12.380
55831SOL    HW169332   8.628   0.646  12.339
55831SOL    HW269333   8.652   0.581  12.473
55832SOL     OW69334  13.736   9.827   0.566
55832SOL    HW169335  13.735   9.921   0.551
55832SOL    HW269336  13.814   9.796   0.520
55833SOL     OW69337   1.807  11.265   1.859
55833SOL    HW169338   1.788  11.189   1.914
55833SOL    HW269339   1.837  11.332   1.920
55834SOL     OW69340   5.063  11.487   7.371
55834SOL    HW169341   5.092  11.460   7.458
55834SOL    HW269342   5.036  11.405   7.329
55835SOL     OW69343   0.831  13.969   1.006
55835SOL    HW169344   0.819  14.061   0.982
55835SOL    HW269345   0.904  13.939   0.952
55836SOL     OW69346  13.856   2.508   7.439
55836SOL    HW169347  13.826   2.585   7.486
55836SOL    HW269348  13.819   2.516   7.352
55837SOL     OW69349   3.324   7.398   8.417
55837SOL    HW169350   3.228   7.408   8.420
55837SOL    HW269351   3.338   7.317   8.369
55838SOL     OW69352  11.634   9.945   1.015
55838SOL    HW169353  11.665   9.930   1.104
55838SOL    HW269354  11.620   9.858   0.979
55839SOL     OW69355   0.784   1.954   7.406
55839SOL    HW169356   0.697   1.921   7.381
55839SOL    HW269357   0.777   1.971   7.500
55840SOL     OW69358  11.943  14.270  10.028
55840SOL    HW169359  12.031  14.237  10.007
55840SOL    HW269360  11.926  14.337   9.962
55841SOL     OW69361  13.714   2.639   0.664
55841SOL    HW169362  13.734   2.726   0.698
55841SOL    HW269363  13.795   2.589   0.678
55842SOL     OW69364  11.349  10.701   6.145
55842SOL    HW169365  11.323  10.636   6.211
55842SOL    HW269366  11.267  10.728   6.104
55843SOL     OW69367   3.785   8.479  13.117
55843SOL    HW169368   3.867   8.449  13.076
55843SOL    HW269369   3.792   8.574  13.117
55844SOL     OW69370  13.037   9.889   6.219
55844SOL    HW169371  12.992   9.827   6.160
55844SOL    HW269372  13.121   9.846   6.238
55845SOL     OW69373   2.925   8.621   2.381
55845SOL    HW169374   2.983   8.661   2.446
55845SOL    HW269375   2.969   8.636   2.298
55846SOL     OW69376  10.607  13.510  10.318
55846SOL    HW169377  10.655  13.519  10.400
55846SOL    HW269378  10.517  13.490  10.344
55847SOL     OW69379   6.622   9.096   0.132
55847SOL    HW169380   6.588   9.170   0.183
55847SOL    HW269381   6.598   9.019   0.183
55848SOL     OW69382   5.357  12.021  13.891
55848SOL    HW169383   5.444  12.060  13.877
55848SOL    HW269384   5.375  11.938  13.935
55849SOL     OW69385   4.102  10.146   8.674
55849SOL    HW169386   4.134  10.235   8.657
55849SOL    HW269387   4.181  10.092   8.674
55850SOL     OW69388   1.443   8.759   2.037
55850SOL    HW169389   1.406   8.696   1.975
55850SOL    HW269390   1.404   8.843   2.012
55851SOL     OW69391   1.238   1.716   9.703
55851SOL    HW169392   1.254   1.719   9.608
55851SOL    HW269393   1.268   1.628   9.728
55852SOL     OW69394  11.703   4.444   4.114
55852SOL    HW169395  11.667   4.511   4.172
55852SOL    HW269396  11.788   4.478   4.087
55853SOL     OW69397  11.763  12.285   3.132
55853SOL    HW169398  11.765  12.211   3.072
55853SOL    HW269399  11.840  12.337   3.109
55854SOL     OW69400   9.010   3.419  10.022
55854SOL    HW169401   9.036   3.444  10.110
55854SOL    HW269402   8.994   3.502   9.977
55855SOL     OW69403  12.971   7.164   5.919
55855SOL    HW169404  12.934   7.152   5.831
55855SOL    HW269405  13.010   7.252   5.916
55856SOL     OW69406   5.983   0.860   4.724
55856SOL    HW169407   5.920   0.922   4.686
55856SOL    HW269408   5.945   0.837   4.809
55857SOL     OW69409  12.595  10.056   7.615
55857SOL    HW169410  12.579   9.966   7.642
55857SOL    HW269411  12.689  10.069   7.628
55858SOL     OW69412  13.697   7.910   7.157
55858SOL    HW169413  13.671   7.846   7.092
55858SOL    HW269414  13.738   7.981   7.107
55859SOL     OW69415   8.378  12.297   0.442
55859SOL    HW169416   8.331  12.325   0.521
55859SOL    HW269417   8.328  12.337   0.370
55860SOL     OW69418   9.486  12.320   8.855
55860SOL    HW169419   9.486  12.224   8.859
55860SOL    HW269420   9.399  12.345   8.885
55861SOL     OW69421   0.452   6.131   1.657
55861SOL    HW169422   0.482   6.040   1.664
55861SOL    HW269423   0.517   6.181   1.707
55862SOL     OW69424   5.270   3.849  11.124
55862SOL    HW169425   5.248   3.798  11.046
55862SOL    HW269426   5.274   3.784  11.194
55863SOL     OW69427  14.272  13.331   3.641
55863SOL    HW169428  14.349  13.380   3.672
55863SOL    HW269429  14.271  13.252   3.695
55864SOL     OW69430   3.139   6.455   9.725
55864SOL    HW169431   3.075   6.404   9.776
55864SOL    HW269432   3.152   6.535   9.776
55865SOL     OW69433  14.584   6.994   0.879
55865SOL    HW169434  14.533   6.917   0.907
55865SOL    HW269435  14.669   6.982   0.921
55866SOL     OW69436   8.647  14.663  10.847
55866SOL    HW169437   8.699  14.734  10.812
55866SOL    HW269438   8.598  14.629  10.771
55867SOL     OW69439   5.710   6.726   1.581
55867SOL    HW169440   5.717   6.671   1.659
55867SOL    HW269441   5.800   6.737   1.550
55868SOL     OW69442  12.203   5.165  13.558
55868SOL    HW169443  12.260   5.096  13.522
55868SOL    HW269444  12.116   5.124  13.561
55869SOL     OW69445  11.968  11.148   8.561
55869SOL    HW169446  11.906  11.093   8.609
55869SOL    HW269447  12.049  11.098   8.560
55870SOL     OW69448  13.620   5.531   3.931
55870SOL    HW169449  13.645   5.468   3.864
55870SOL    HW269450  13.703   5.561   3.968
55871SOL     OW69451  12.814   1.112   3.926
55871SOL    HW169452  12.884   1.114   3.860
55871SOL    HW269453  12.796   1.019   3.939
55872SOL     OW69454   5.163   6.088  13.685
55872SOL    HW169455   5.070   6.101  13.701
55872SOL    HW269456   5.204   6.167  13.722
55873SOL     OW69457   7.543   3.596   9.883
55873SOL    HW169458   7.493   3.585   9.964
55873SOL    HW269459   7.602   3.669   9.900
55874SOL     OW69460   7.083   6.472   2.658
55874SOL    HW169461   6.992   6.502   2.656
55874SOL    HW269462   7.128   6.531   2.598
55875SOL     OW69463   9.586  14.465   4.637
55875SOL    HW169464   9.672  14.503   4.658
55875SOL    HW269465   9.603  14.406   4.563
55876SOL     OW69466  13.750   9.066   8.199
55876SOL    HW169467  13.682   9.014   8.242
55876SOL    HW269468  13.735   9.051   8.106
55877SOL     OW69469   5.263  12.390  12.701
55877SOL    HW169470   5.347  12.347  12.684
55877SOL    HW269471   5.262  12.466  12.642
55878SOL     OW69472   8.531  11.117   6.162
55878SOL    HW169473   8.536  11.139   6.255
55878SOL    HW269474   8.458  11.170   6.129
55879SOL     OW69475   9.445   6.816   5.855
55879SOL    HW169476   9.531   6.855   5.866
55879SOL    HW269477   9.428   6.769   5.936
55880SOL     OW69478  14.234  14.178   3.455
55880SOL    HW169479  14.270  14.175   3.366
55880SOL    HW269480  14.194  14.092   3.467
55881SOL     OW69481   7.155  11.963   9.225
55881SOL    HW169482   7.215  11.891   9.246
55881SOL    HW269483   7.203  12.042   9.248
55882SOL     OW69484   6.971  13.023  13.224
55882SOL    HW169485   6.912  13.045  13.295
55882SOL    HW269486   6.989  12.930  13.236
55883SOL     OW69487   5.584   6.678   6.321
55883SOL    HW169488   5.612   6.648   6.408
55883SOL    HW269489   5.574   6.773   6.331
55884SOL     OW69490   5.299  13.145   1.423
55884SOL    HW169491   5.343  13.066   1.390
55884SOL    HW269492   5.210  13.138   1.389
55885SOL     OW69493   9.363   9.181   0.011
55885SOL    HW169494   9.427   9.225  14.830
55885SOL    HW269495   9.405   9.098   0.036
55886SOL     OW69496  11.977   5.881   5.351
55886SOL    HW169497  12.069   5.906   5.353
55886SOL    HW269498  11.930   5.961   5.372
55887SOL     OW69499   0.419   5.312  10.114
55887SOL    HW169500   0.343   5.339  10.166
55887SOL    HW269501   0.455   5.237  10.161
55888SOL     OW69502   0.246   2.250   5.839
55888SOL    HW169503   0.256   2.160   5.807
55888SOL    HW269504   0.278   2.304   5.767
55889SOL     OW69505  12.314   6.068   8.559
55889SOL    HW169506  12.371   6.066   8.482
55889SOL    HW269507  12.226   6.059   8.524
55890SOL     OW69508   0.711   8.522  13.095
55890SOL    HW169509   0.712   8.432  13.128
55890SOL    HW269510   0.769   8.570  13.154
55891SOL     OW69511   4.255  13.120   6.092
55891SOL    HW169512   4.342  13.132   6.054
55891SOL    HW269513   4.201  13.187   6.048
55892SOL     OW69514  13.742   8.264  11.473
55892SOL    HW169515  13.783   8.178  11.484
55892SOL    HW269516  13.701   8.261  11.387
55893SOL     OW69517   9.579   0.668   5.424
55893SOL    HW169518   9.531   0.743   5.387
55893SOL    HW269519   9.526   0.592   5.401
55894SOL     OW69520   8.312  11.282  10.184
55894SOL    HW169521   8.300  11.346  10.113
55894SOL    HW269522   8.404  11.256  10.177
55895SOL     OW69523  10.280  12.619   4.040
55895SOL    HW169524  10.346  12.687   4.033
55895SOL    HW269525  10.293  12.581   4.127
55896SOL     OW69526   8.968   0.825   7.353
55896SOL    HW169527   8.954   0.912   7.389
55896SOL    HW269528   8.950   0.833   7.259
55897SOL     OW69529  12.515   2.275  13.008
55897SOL    HW169530  12.426   2.263  13.039
55897SOL    HW269531  12.505   2.305  12.918
55898SOL     OW69532   3.332   6.160   8.154
55898SOL    HW169533   3.395   6.149   8.083
55898SOL    HW269534   3.314   6.071   8.185
55899SOL     OW69535   3.820   7.967   8.533
55899SOL    HW169536   3.855   7.983   8.621
55899SOL    HW269537   3.883   7.907   8.494
55900SOL     OW69538   1.732   9.426   6.958
55900SOL    HW169539   1.685   9.395   6.880
55900SOL    HW269540   1.670   9.483   7.002
55901SOL     OW69541  11.872  11.305   0.840
55901SOL    HW169542  11.805  11.333   0.778
55901SOL    HW269543  11.936  11.258   0.787
55902SOL     OW69544  13.433  10.103   1.760
55902SOL    HW169545  13.412  10.132   1.849
55902SOL    HW269546  13.528  10.092   1.761
55903SOL     OW69547  14.845  11.696  11.294
55903SOL    HW169548  14.809  11.726  11.378
55903SOL    HW269549   0.031  11.766  11.268
55904SOL     OW69550   7.877  14.497   5.271
55904SOL    HW169551   7.786  14.519   5.289
55904SOL    HW269552   7.904  14.446   5.348
55905SOL     OW69553  10.151   7.520  13.840
55905SOL    HW169554  10.223   7.471  13.878
55905SOL    HW269555  10.136   7.593  13.901
55906SOL     OW69556  11.791   3.787   5.570
55906SOL    HW169557  11.850   3.718   5.601
55906SOL    HW269558  11.819   3.865   5.617
55907SOL     OW69559  13.487   7.276   7.274
55907SOL    HW169560  13.417   7.336   7.299
55907SOL    HW269561  13.565   7.312   7.316
55908SOL     OW69562   4.103  13.920   6.579
55908SOL    HW169563   4.044  13.855   6.617
55908SOL    HW269564   4.077  14.002   6.620
55909SOL     OW69565   7.743   4.587   7.583
55909SOL    HW169566   7.778   4.600   7.495
55909SOL    HW269567   7.751   4.493   7.598
55910SOL     OW69568  13.949   3.042  10.190
55910SOL    HW169569  14.004   3.101  10.242
55910SOL    HW269570  13.949   2.960  10.239
55911SOL     OW69571   9.580   1.675   2.284
55911SOL    HW169572   9.618   1.626   2.358
55911SOL    HW269573   9.546   1.608   2.226
55912SOL     OW69574   1.555  11.518   6.833
55912SOL    HW169575   1.478  11.550   6.785
55912SOL    HW269576   1.550  11.423   6.826
55913SOL     OW69577  13.152   5.394   6.334
55913SOL    HW169578  13.162   5.327   6.401
55913SOL    HW269579  13.091   5.356   6.270
55914SOL     OW69580   2.553  11.587   6.842
55914SOL    HW169581   2.596  11.613   6.761
55914SOL    HW269582   2.478  11.535   6.814
55915SOL     OW69583   1.543   2.994   7.568
55915SOL    HW169584   1.468   3.041   7.603
55915SOL    HW269585   1.578   3.052   7.500
55916SOL     OW69586   9.507  12.127   2.550
55916SOL    HW169587   9.464  12.209   2.526
55916SOL    HW269588   9.489  12.117   2.643
55917SOL     OW69589  14.118  13.029  12.735
55917SOL    HW169590  14.192  13.072  12.779
55917SOL    HW269591  14.143  13.027  12.643
55918SOL     OW69592   0.172  14.557   5.559
55918SOL    HW169593   0.176  14.466   5.588
55918SOL    HW269594   0.080  14.571   5.537
55919SOL     OW69595  11.915  10.974  13.980
55919SOL    HW169596  11.820  10.966  13.966
55919SOL    HW269597  11.940  11.050  13.927
55920SOL     OW69598  14.342  14.347  14.823
55920SOL    HW169599  14.361  14.375   0.039
55920SOL    HW269600  14.314  14.427  14.778
55921SOL     OW69601  10.060   6.688   8.601
55921SOL    HW169602  10.000   6.719   8.669
55921SOL    HW269603  10.136   6.655   8.649
55922SOL     OW69604   6.474  14.039  13.288
55922SOL    HW169605   6.423  14.073  13.361
55922SOL    HW269606   6.500  13.952  13.316
55923SOL     OW69607   3.968   5.449   1.940
55923SOL    HW169608   3.903   5.451   2.010
55923SOL    HW269609   3.936   5.382   1.879
55924SOL     OW69610   4.708   4.256  12.560
55924SOL    HW169611   4.644   4.324  12.580
55924SOL    HW269612   4.781   4.303  12.518
55925SOL     OW69613   3.406  13.244   7.272
55925SOL    HW169614   3.456  13.184   7.215
55925SOL    HW269615   3.330  13.193   7.298
55926SOL     OW69616  12.328   7.529   5.610
55926SOL    HW169617  12.251   7.586   5.600
55926SOL    HW269618  12.292   7.446   5.641
55927SOL     OW69619   7.113   2.888  11.943
55927SOL    HW169620   7.062   2.966  11.962
55927SOL    HW269621   7.054   2.831  11.894
55928SOL     OW69622   4.170  14.370  14.183
55928SOL    HW169623   4.218  14.290  14.204
55928SOL    HW269624   4.082  14.340  14.159
55929SOL     OW69625   8.107   7.447   1.326
55929SOL    HW169626   8.062   7.480   1.248
55929SOL    HW269627   8.044   7.386   1.365
55930SOL     OW69628  12.578   7.328   7.626
55930SOL    HW169629  12.503   7.312   7.570
55930SOL    HW269630  12.639   7.377   7.571
55931SOL     OW69631  10.229  12.052   2.376
55931SOL    HW169632  10.165  11.982   2.390
55931SOL    HW269633  10.270  12.065   2.461
55932SOL     OW69634   4.370   5.404  13.616
55932SOL    HW169635   4.399   5.335  13.556
55932SOL    HW269636   4.446   5.460  13.627
55933SOL     OW69637  11.980   6.125  13.518
55933SOL    HW169638  11.990   6.157  13.608
55933SOL    HW269639  11.917   6.184  13.478
55934SOL     OW69640   5.607   0.774   1.336
55934SOL    HW169641   5.543   0.845   1.333
55934SOL    HW269642   5.690   0.817   1.360
55935SOL     OW69643  12.625   0.266  14.421
55935SOL    HW169644  12.673   0.202  14.369
55935SOL    HW269645  12.551   0.291  14.365
55936SOL     OW69646   8.030   8.534   0.361
55936SOL    HW169647   8.082   8.585   0.299
55936SOL    HW269648   8.094   8.497   0.421
55937SOL     OW69649  12.370  12.505   5.080
55937SOL    HW169650  12.330  12.420   5.063
55937SOL    HW269651  12.410  12.496   5.166
55938SOL     OW69652   0.620   7.160   5.748
55938SOL    HW169653   0.651   7.111   5.672
55938SOL    HW269654   0.676   7.238   5.750
55939SOL     OW69655   6.467   4.574   3.710
55939SOL    HW169656   6.513   4.521   3.644
55939SOL    HW269657   6.376   4.546   3.704
55940SOL     OW69658   8.518   2.090   3.103
55940SOL    HW169659   8.601   2.080   3.056
55940SOL    HW269660   8.543   2.092   3.196
55941SOL     OW69661   9.204   1.241   7.207
55941SOL    HW169662   9.263   1.271   7.138
55941SOL    HW269663   9.245   1.272   7.288
55942SOL     OW69664   9.118   8.569   2.183
55942SOL    HW169665   9.184   8.636   2.166
55942SOL    HW269666   9.132   8.543   2.275
55943SOL     OW69667   2.593  13.982   8.044
55943SOL    HW169668   2.673  13.981   7.991
55943SOL    HW269669   2.572  14.075   8.054
55944SOL     OW69670  14.816  11.496   7.541
55944SOL    HW169671  14.869  11.502   7.621
55944SOL    HW269672  14.745  11.436   7.563
55945SOL     OW69673   7.316  13.754   1.092
55945SOL    HW169674   7.228  13.718   1.098
55945SOL    HW269675   7.368  13.700   1.151
55946SOL     OW69676   2.043   2.477  11.936
55946SOL    HW169677   2.118   2.437  11.980
55946SOL    HW269678   1.976   2.483  12.004
55947SOL     OW69679   1.314   5.191   8.512
55947SOL    HW169680   1.395   5.149   8.541
55947SOL    HW269681   1.341   5.248   8.440
55948SOL     OW69682  10.564  11.784  14.261
55948SOL    HW169683  10.565  11.837  14.341
55948SOL    HW269684  10.562  11.694  14.292
55949SOL     OW69685   4.019   3.516  13.522
55949SOL    HW169686   3.983   3.436  13.561
55949SOL    HW269687   4.106   3.490  13.493
55950SOL     OW69688  10.161   0.814   1.571
55950SOL    HW169689  10.144   0.832   1.479
55950SOL    HW269690  10.207   0.730   1.571
55951SOL     OW69691   4.161   4.498   5.292
55951SOL    HW169692   4.249   4.477   5.261
55951SOL    HW269693   4.106   4.495   5.213
55952SOL     OW69694   7.994  13.516   7.731
55952SOL    HW169695   7.901  13.509   7.752
55952SOL    HW269696   8.026  13.587   7.787
55953SOL     OW69697   2.226  13.053   5.496
55953SOL    HW169698   2.254  13.108   5.423
55953SOL    HW269699   2.151  13.004   5.462
55954SOL     OW69700  10.540   2.217   5.229
55954SOL    HW169701  10.618   2.194   5.279
55954SOL    HW269702  10.547   2.312   5.216
55955SOL     OW69703   5.963  11.234  13.390
55955SOL    HW169704   5.890  11.177  13.367
55955SOL    HW269705   6.024  11.176  13.436
55956SOL     OW69706  14.604   9.222   0.425
55956SOL    HW169707  14.662   9.290   0.391
55956SOL    HW269708  14.537   9.270   0.473
55957SOL     OW69709  11.345  10.312   6.872
55957SOL    HW169710  11.359  10.315   6.778
55957SOL    HW269711  11.319  10.401   6.896
55958SOL     OW69712   4.862  13.106   5.119
55958SOL    HW169713   4.810  13.161   5.061
55958SOL    HW269714   4.807  13.029   5.134
55959SOL     OW69715   5.045   3.544   6.972
55959SOL    HW169716   5.129   3.589   6.963
55959SOL    HW269717   5.050   3.472   6.908
55960SOL     OW69718  10.568   5.229   0.671
55960SOL    HW169719  10.561   5.164   0.601
55960SOL    HW269720  10.655   5.216   0.708
55961SOL     OW69721   1.617  14.494   7.296
55961SOL    HW169722   1.585  14.567   7.350
55961SOL    HW269723   1.553  14.424   7.309
55962SOL     OW69724   6.118   7.639   1.203
55962SOL    HW169725   6.110   7.667   1.112
55962SOL    HW269726   6.203   7.673   1.231
55963SOL     OW69727   8.369   8.457   4.984
55963SOL    HW169728   8.303   8.517   5.019
55963SOL    HW269729   8.377   8.389   5.050
55964SOL     OW69730   2.358   6.768   7.777
55964SOL    HW169731   2.299   6.701   7.812
55964SOL    HW269732   2.337   6.847   7.827
55965SOL     OW69733  12.244  10.508   4.530
55965SOL    HW169734  12.279  10.528   4.616
55965SOL    HW269735  12.151  10.530   4.536
55966SOL     OW69736  14.786   2.053  11.848
55966SOL    HW169737  14.780   1.962  11.817
55966SOL    HW269738  14.724   2.056  11.922
55967SOL     OW69739   2.498  13.262   2.488
55967SOL    HW169740   2.500  13.269   2.584
55967SOL    HW269741   2.409  13.235   2.468
55968SOL     OW69742   1.334  10.773   4.387
55968SOL    HW169743   1.385  10.828   4.447
55968SOL    HW269744   1.389  10.768   4.308
55969SOL     OW69745   0.259  12.968   0.905
55969SOL    HW169746   0.223  12.881   0.919
55969SOL    HW269747   0.304  12.989   0.987
55970SOL     OW69748  11.612  11.809   7.432
55970SOL    HW169749  11.588  11.759   7.509
55970SOL    HW269750  11.687  11.763   7.395
55971SOL     OW69751   6.937   0.563   5.160
55971SOL    HW169752   6.973   0.492   5.106
55971SOL    HW269753   6.909   0.520   5.240
55972SOL     OW69754   3.316   1.427   9.561
55972SOL    HW169755   3.338   1.495   9.497
55972SOL    HW269756   3.262   1.365   9.513
55973SOL     OW69757   5.049   1.602  14.097
55973SOL    HW169758   5.039   1.695  14.079
55973SOL    HW269759   5.084   1.566  14.016
55974SOL     OW69760   5.429   8.305   9.085
55974SOL    HW169761   5.504   8.269   9.037
55974SOL    HW269762   5.366   8.233   9.088
55975SOL     OW69763  11.004   7.026   7.208
55975SOL    HW169764  10.908   7.032   7.210
55975SOL    HW269765  11.034   7.099   7.262
55976SOL     OW69766  10.436   4.243   0.947
55976SOL    HW169767  10.375   4.281   0.884
55976SOL    HW269768  10.484   4.318   0.983
55977SOL     OW69769  10.913   4.175   4.951
55977SOL    HW169770  10.873   4.107   4.896
55977SOL    HW269771  10.840   4.208   5.003
55978SOL     OW69772   9.812   8.669   4.530
55978SOL    HW169773   9.754   8.735   4.568
55978SOL    HW269774   9.862   8.635   4.604
55979SOL     OW69775  14.362   6.126  12.109
55979SOL    HW169776  14.415   6.074  12.049
55979SOL    HW269777  14.279   6.079  12.114
55980SOL     OW69778   4.486   8.830   4.630
55980SOL    HW169779   4.440   8.755   4.592
55980SOL    HW269780   4.473   8.901   4.567
55981SOL     OW69781   7.618   2.301   4.485
55981SOL    HW169782   7.698   2.249   4.492
55981SOL    HW269783   7.582   2.278   4.399
55982SOL     OW69784   8.681  12.442   6.606
55982SOL    HW169785   8.626  12.374   6.566
55982SOL    HW269786   8.719  12.400   6.683
55983SOL     OW69787   8.249   6.752   2.769
55983SOL    HW169788   8.231   6.810   2.843
55983SOL    HW269789   8.182   6.774   2.704
55984SOL     OW69790   3.965   8.827   5.696
55984SOL    HW169791   3.870   8.827   5.702
55984SOL    HW269792   3.995   8.787   5.778
55985SOL     OW69793  11.169  13.217   7.172
55985SOL    HW169794  11.156  13.262   7.089
55985SOL    HW269795  11.120  13.269   7.235
55986SOL     OW69796   6.530   6.164   4.241
55986SOL    HW169797   6.474   6.114   4.182
55986SOL    HW269798   6.612   6.173   4.193
55987SOL     OW69799   1.022  13.671   7.453
55987SOL    HW169800   1.001  13.744   7.511
55987SOL    HW269801   1.043  13.712   7.369
55988SOL     OW69802  13.545   2.321   2.031
55988SOL    HW169803  13.481   2.349   1.965
55988SOL    HW269804  13.629   2.351   1.996
55989SOL     OW69805   7.991  11.228   1.437
55989SOL    HW169806   8.053  11.298   1.455
55989SOL    HW269807   7.994  11.217   1.342
55990SOL     OW69808   5.404  13.954  14.694
55990SOL    HW169809   5.368  13.895  14.759
55990SOL    HW269810   5.334  13.965  14.629
55991SOL     OW69811   6.186   7.363   1.665
55991SOL    HW169812   6.101   7.387   1.628
55991SOL    HW269813   6.168   7.287   1.720
55992SOL     OW69814   6.719  14.215   0.655
55992SOL    HW169815   6.681  14.168   0.582
55992SOL    HW269816   6.717  14.153   0.728
55993SOL     OW69817   7.324  11.407   4.702
55993SOL    HW169818   7.400  11.415   4.644
55993SOL    HW269819   7.251  11.389   4.643
55994SOL     OW69820   3.184  13.892   2.286
55994SOL    HW169821   3.234  13.875   2.366
55994SOL    HW269822   3.237  13.954   2.237
55995SOL     OW69823  13.070  14.820   2.399
55995SOL    HW169824  13.090   0.038   2.384
55995SOL    HW269825  12.985  14.821   2.444
55996SOL     OW69826   1.451  11.936   1.979
55996SOL    HW169827   1.410  12.023   1.990
55996SOL    HW269828   1.384  11.875   2.010
55997SOL     OW69829   1.708   5.484   5.571
55997SOL    HW169830   1.677   5.393   5.567
55997SOL    HW269831   1.630   5.534   5.597
55998SOL     OW69832  12.995   8.773  10.795
55998SOL    HW169833  12.988   8.857  10.841
55998SOL    HW269834  13.054   8.721  10.850
55999SOL     OW69835   8.396   4.646  14.016
55999SOL    HW169836   8.384   4.712  14.085
55999SOL    HW269837   8.385   4.562  14.061
56000SOL     OW69838  12.908   9.336   7.181
56000SOL    HW169839  12.934   9.360   7.270
56000SOL    HW269840  12.948   9.251   7.166
56001SOL     OW69841  14.830  12.274   2.979
56001SOL    HW169842  14.834  12.349   3.038
56001SOL    HW269843  14.787  12.308   2.900
56002SOL     OW69844   7.015   4.175   7.361
56002SOL    HW169845   7.096   4.157   7.314
56002SOL    HW269846   7.042   4.227   7.436
56003SOL     OW69847  14.267   0.231   7.966
56003SOL    HW169848  14.297   0.298   7.904
56003SOL    HW269849  14.212   0.173   7.913
56004SOL     OW69850   3.058   1.502   2.687
56004SOL    HW169851   3.109   1.532   2.762
56004SOL    HW269852   3.036   1.582   2.640
56005SOL     OW69853   7.362   3.959   5.144
56005SOL    HW169854   7.323   3.883   5.101
56005SOL    HW269855   7.427   3.922   5.204
56006SOL     OW69856   8.401   9.235  11.025
56006SOL    HW169857   8.424   9.262  11.114
56006SOL    HW269858   8.368   9.146  11.035
56007SOL     OW69859  13.137  12.667  11.383
56007SOL    HW169860  13.043  12.653  11.371
56007SOL    HW269861  13.147  12.677  11.478
56008SOL     OW69862   6.690   2.855  13.104
56008SOL    HW169863   6.693   2.784  13.040
56008SOL    HW269864   6.750   2.828  13.173
56009SOL     OW69865   5.231   6.748  10.162
56009SOL    HW169866   5.217   6.811  10.233
56009SOL    HW269867   5.225   6.801  10.083
56010SOL     OW69868  14.488  10.498   5.460
56010SOL    HW169869  14.441  10.566   5.412
56010SOL    HW269870  14.423  10.463   5.521
56011SOL     OW69871  12.680  11.727   8.724
56011SOL    HW169872  12.617  11.789   8.761
56011SOL    HW269873  12.761  11.776   8.717
56012SOL     OW69874   3.973   1.109   0.624
56012SOL    HW169875   3.944   1.052   0.553
56012SOL    HW269876   4.054   1.149   0.592
56013SOL     OW69877   4.571   1.639   5.029
56013SOL    HW169878   4.566   1.719   4.976
56013SOL    HW269879   4.571   1.671   5.119
56014SOL     OW69880   2.393  12.891   1.752
56014SOL    HW169881   2.482  12.894   1.717
56014SOL    HW269882   2.378  12.979   1.786
56015SOL     OW69883   3.636   6.958  13.117
56015SOL    HW169884   3.695   7.021  13.156
56015SOL    HW269885   3.675   6.938  13.031
56016SOL     OW69886  11.372  11.116  11.443
56016SOL    HW169887  11.283  11.090  11.417
56016SOL    HW269888  11.389  11.067  11.523
56017SOL     OW69889  10.816  12.937   6.179
56017SOL    HW169890  10.805  12.855   6.229
56017SOL    HW269891  10.727  12.963   6.155
56018SOL     OW69892  12.541   5.673   9.037
56018SOL    HW169893  12.479   5.675   8.965
56018SOL    HW269894  12.587   5.756   9.032
56019SOL     OW69895   6.122  11.729  13.811
56019SOL    HW169896   6.061  11.801  13.827
56019SOL    HW269897   6.197  11.748  13.868
56020SOL     OW69898   7.481   5.459   8.712
56020SOL    HW169899   7.424   5.449   8.788
56020SOL    HW269900   7.546   5.389   8.720
56021SOL     OW69901   8.195   1.158  14.676
56021SOL    HW169902   8.263   1.209  14.718
56021SOL    HW269903   8.183   1.198  14.590
56022SOL     OW69904  12.583  13.695   0.709
56022SOL    HW169905  12.545  13.654   0.631
56022SOL    HW269906  12.527  13.771   0.725
56023SOL     OW69907   5.332   4.035   8.768
56023SOL    HW169908   5.240   4.062   8.765
56023SOL    HW269909   5.380   4.112   8.738
56024SOL     OW69910  13.786   7.160   8.993
56024SOL    HW169911  13.717   7.097   9.014
56024SOL    HW269912  13.784   7.168   8.898
56025SOL     OW69913  12.062  11.644   7.224
56025SOL    HW169914  12.046  11.573   7.162
56025SOL    HW269915  12.005  11.624   7.298
56026SOL     OW69916   2.000   2.466   6.384
56026SOL    HW169917   2.042   2.551   6.374
56026SOL    HW269918   2.017   2.421   6.300
56027SOL     OW69919   3.863   3.521   1.499
56027SOL    HW169920   3.895   3.443   1.453
56027SOL    HW269921   3.850   3.585   1.429
56028SOL     OW69922  11.295   5.666   4.100
56028SOL    HW169923  11.324   5.577   4.121
56028SOL    HW269924  11.368   5.704   4.050
56029SOL     OW69925  14.614   4.455   1.619
56029SOL    HW169926  14.540   4.481   1.564
56029SOL    HW269927  14.636   4.367   1.589
56030SOL     OW69928   6.056   8.135   4.579
56030SOL    HW169929   5.982   8.138   4.640
56030SOL    HW269930   6.020   8.097   4.499
56031SOL     OW69931   7.935  11.913   5.080
56031SOL    HW169932   7.950  11.827   5.121
56031SOL    HW269933   8.002  11.970   5.119
56032SOL     OW69934   0.563   3.117  12.375
56032SOL    HW169935   0.559   3.204  12.414
56032SOL    HW269936   0.523   3.127  12.289
56033SOL     OW69937  12.439   3.675  14.837
56033SOL    HW169938  12.507   3.664   0.029
56033SOL    HW269939  12.357   3.669   0.012
56034SOL     OW69940   2.147  11.727   1.768
56034SOL    HW169941   2.105  11.721   1.682
56034SOL    HW269942   2.122  11.813   1.801
56035SOL     OW69943  10.503   2.050  14.328
56035SOL    HW169944  10.517   2.017  14.417
56035SOL    HW269945  10.537   2.140  14.330
56036SOL     OW69946  11.483   2.412  11.002
56036SOL    HW169947  11.439   2.494  11.021
56036SOL    HW269948  11.481   2.363  11.084
56037SOL     OW69949  12.644   1.937  12.882
56037SOL    HW169950  12.666   2.017  12.834
56037SOL    HW269951  12.726   1.910  12.922
56038SOL     OW69952   3.149   7.896   4.487
56038SOL    HW169953   3.080   7.845   4.529
56038SOL    HW269954   3.126   7.897   4.395
56039SOL     OW69955  10.311   0.883   4.481
56039SOL    HW169956  10.283   0.862   4.571
56039SOL    HW269957  10.232   0.868   4.428
56040SOL     OW69958  10.408   3.417   1.054
56040SOL    HW169959  10.492   3.423   1.098
56040SOL    HW269960  10.398   3.500   1.008
56041SOL     OW69961  11.351  14.828   2.442
56041SOL    HW169962  11.284  14.805   2.507
56041SOL    HW269963  11.315  14.796   2.359
56042SOL     OW69964  12.481  14.377   7.061
56042SOL    HW169965  12.425  14.454   7.056
56042SOL    HW269966  12.430  14.312   7.110
56043SOL     OW69967   1.679   8.433   0.559
56043SOL    HW169968   1.729   8.424   0.478
56043SOL    HW269969   1.739   8.402   0.627
56044SOL     OW69970  11.258   4.143  12.494
56044SOL    HW169971  11.328   4.195  12.533
56044SOL    HW269972  11.185   4.152  12.554
56045SOL     OW69973   7.995  12.617   2.325
56045SOL    HW169974   7.944  12.540   2.301
56045SOL    HW269975   8.059  12.585   2.389
56046SOL     OW69976  13.313  12.541  12.294
56046SOL    HW169977  13.255  12.577  12.227
56046SOL    HW269978  13.264  12.467  12.330
56047SOL     OW69979   2.973  10.835   2.552
56047SOL    HW169980   2.930  10.770   2.496
56047SOL    HW269981   3.066  10.823   2.534
56048SOL     OW69982   1.574   8.666   4.771
56048SOL    HW169983   1.510   8.735   4.757
56048SOL    HW269984   1.608   8.647   4.684
56049SOL     OW69985   9.059   1.002  10.852
56049SOL    HW169986   9.142   0.973  10.814
56049SOL    HW269987   9.025   1.067  10.789
56050SOL     OW69988  14.615   5.532   1.477
56050SOL    HW169989  14.684   5.466   1.480
56050SOL    HW269990  14.534   5.481   1.485
56051SOL     OW69991   5.804   5.618   8.348
56051SOL    HW169992   5.753   5.542   8.321
56051SOL    HW269993   5.891   5.603   8.309
56052SOL     OW69994  12.535   6.394  12.820
56052SOL    HW169995  12.604   6.327  12.826
56052SOL    HW269996  12.530   6.413  12.726
56053SOL     OW69997   0.131  13.306  13.623
56053SOL    HW169998   0.131  13.372  13.553
56053SOL    HW269999   0.154  13.356  13.701
56054SOL     OW70000  12.710   0.812  11.364
56054SOL    HW170001  12.754   0.788  11.282
56054SOL    HW270002  12.732   0.905  11.376
56055SOL     OW70003  13.815  11.531  11.356
56055SOL    HW170004  13.871  11.453  11.353
56055SOL    HW270005  13.778  11.537  11.268
56056SOL     OW70006   7.819   1.560  14.123
56056SOL    HW170007   7.911   1.546  14.142
56056SOL    HW270008   7.816   1.645  14.079
56057SOL     OW70009   1.728   2.537   7.168
56057SOL    HW170010   1.656   2.559   7.228
56057SOL    HW270011   1.795   2.602   7.187
56058SOL     OW70012   3.841   4.316   4.134
56058SOL    HW170013   3.850   4.268   4.217
56058SOL    HW270014   3.924   4.299   4.089
56059SOL     OW70015   6.975   1.624  11.494
56059SOL    HW170016   6.882   1.621  11.520
56059SOL    HW270017   7.011   1.542  11.527
56060SOL     OW70018   3.043  14.668   9.412
56060SOL    HW170019   2.988  14.742   9.386
56060SOL    HW270020   2.993  14.624   9.480
56061SOL     OW70021   5.017   1.993  11.721
56061SOL    HW170022   4.989   1.924  11.780
56061SOL    HW270023   5.040   2.066  11.779
56062SOL     OW70024   0.654   6.565   1.867
56062SOL    HW170025   0.739   6.610   1.868
56062SOL    HW270026   0.593   6.628   1.904
56063SOL     OW70027  14.339   7.155   2.348
56063SOL    HW170028  14.422   7.143   2.302
56063SOL    HW270029  14.358   7.130   2.439
56064SOL     OW70030   1.333   1.134   8.841
56064SOL    HW170031   1.268   1.118   8.909
56064SOL    HW270032   1.287   1.188   8.776
56065SOL     OW70033   3.905   8.417   4.937
56065SOL    HW170034   3.943   8.500   4.967
56065SOL    HW270035   3.858   8.440   4.857
56066SOL     OW70036   0.263   4.328   7.231
56066SOL    HW170037   0.331   4.318   7.165
56066SOL    HW270038   0.300   4.287   7.310
56067SOL     OW70039  10.558   1.962  12.212
56067SOL    HW170040  10.478   2.016  12.207
56067SOL    HW270041  10.583   1.964  12.304
56068SOL     OW70042  14.415   3.668   3.642
56068SOL    HW170043  14.337   3.704   3.599
56068SOL    HW270044  14.446   3.600   3.582
56069SOL     OW70045   4.338   3.518   8.404
56069SOL    HW170046   4.281   3.443   8.391
56069SOL    HW270047   4.395   3.493   8.477
56070SOL     OW70048  11.235  13.076   2.042
56070SOL    HW170049  11.162  13.134   2.019
56070SOL    HW270050  11.215  12.993   1.999
56071SOL     OW70051   4.157  13.092   8.231
56071SOL    HW170052   4.093  13.046   8.286
56071SOL    HW270053   4.109  13.168   8.197
56072SOL     OW70054  11.827  12.901   5.238
56072SOL    HW170055  11.736  12.929   5.253
56072SOL    HW270056  11.835  12.898   5.143
56073SOL     OW70057   0.962   6.018   9.280
56073SOL    HW170058   0.882   6.060   9.249
56073SOL    HW270059   0.956   6.021   9.375
56074SOL     OW70060  10.293   3.741  14.633
56074SOL    HW170061  10.301   3.833  14.609
56074SOL    HW270062  10.226   3.740  14.701
56075SOL     OW70063   9.013   7.367   8.473
56075SOL    HW170064   8.992   7.420   8.550
56075SOL    HW270065   9.092   7.319   8.497
56076SOL     OW70066  14.422  11.539   5.170
56076SOL    HW170067  14.365  11.600   5.218
56076SOL    HW270068  14.434  11.580   5.084
56077SOL     OW70069   0.156  12.531   6.204
56077SOL    HW170070   0.135  12.617   6.241
56077SOL    HW270071   0.072  12.486   6.199
56078SOL     OW70072  13.478   4.984  13.979
56078SOL    HW170073  13.509   5.068  13.944
56078SOL    HW270074  13.556   4.945  14.019
56079SOL     OW70075  11.197   4.777   6.762
56079SOL    HW170076  11.107   4.756   6.737
56079SOL    HW270077  11.246   4.772   6.680
56080SOL     OW70078  11.986   6.851   0.646
56080SOL    HW170079  11.919   6.827   0.582
56080SOL    HW270080  12.015   6.768   0.683
56081SOL     OW70081   9.470   5.114   0.550
56081SOL    HW170082   9.399   5.063   0.588
56081SOL    HW270083   9.549   5.063   0.570
56082SOL     OW70084   9.576   4.343   2.596
56082SOL    HW170085   9.576   4.350   2.692
56082SOL    HW270086   9.539   4.256   2.579
56083SOL     OW70087  12.725  11.345   7.469
56083SOL    HW170088  12.722  11.358   7.374
56083SOL    HW270089  12.810  11.303   7.484
56084SOL     OW70090   0.317  13.473   0.146
56084SOL    HW170091   0.345  13.563   0.159
56084SOL    HW270092   0.397  13.426   0.123
56085SOL     OW70093   4.320   7.903   2.452
56085SOL    HW170094   4.225   7.895   2.444
56085SOL    HW270095   4.352   7.896   2.362
56086SOL     OW70096   0.614  12.456   2.325
56086SOL    HW170097   0.640  12.389   2.261
56086SOL    HW270098   0.637  12.418   2.409
56087SOL     OW70099  10.327  11.575  12.740
56087SOL    HW170100  10.367  11.523  12.670
56087SOL    HW270101  10.386  11.564  12.815
56088SOL     OW70102   8.767   4.574   2.770
56088SOL    HW170103   8.844   4.630   2.784
56088SOL    HW270104   8.767   4.515   2.845
56089SOL     OW70105   6.568   1.159  11.058
56089SOL    HW170106   6.649   1.172  11.009
56089SOL    HW270107   6.537   1.073  11.032
56090SOL     OW70108   9.083   3.250  10.273
56090SOL    HW170109   9.176   3.237  10.255
56090SOL    HW270110   9.041   3.168  10.248
56091SOL     OW70111  13.816   0.834   0.905
56091SOL    HW170112  13.781   0.922   0.918
56091SOL    HW270113  13.780   0.783   0.977
56092SOL     OW70114   7.819  13.080   5.160
56092SOL    HW170115   7.858  13.064   5.245
56092SOL    HW270116   7.842  13.171   5.140
56093SOL     OW70117   7.232   4.440   5.067
56093SOL    HW170118   7.210   4.347   5.075
56093SOL    HW270119   7.175   4.472   4.997
56094SOL     OW70120   2.339   7.745  12.419
56094SOL    HW170121   2.309   7.670  12.368
56094SOL    HW270122   2.435   7.740  12.415
56095SOL     OW70123   7.899  13.997   0.654
56095SOL    HW170124   7.910  14.092   0.643
56095SOL    HW270125   7.832  13.974   0.589
56096SOL     OW70126   9.194   6.176  10.654
56096SOL    HW170127   9.265   6.114  10.674
56096SOL    HW270128   9.202   6.243  10.723
56097SOL     OW70129  13.978   9.215  12.211
56097SOL    HW170130  13.976   9.151  12.140
56097SOL    HW270131  14.066   9.253  12.207
56098SOL     OW70132   3.185   3.073   8.989
56098SOL    HW170133   3.165   3.092   8.897
56098SOL    HW270134   3.233   2.990   8.986
56099SOL     OW70135   3.207   1.586   9.994
56099SOL    HW170136   3.118   1.564   9.968
56099SOL    HW270137   3.201   1.673  10.032
56100SOL     OW70138   7.958   0.917   6.159
56100SOL    HW170139   7.999   0.971   6.227
56100SOL    HW270140   8.029   0.862   6.127
56101SOL     OW70141   9.214  10.812  12.742
56101SOL    HW170142   9.239  10.788  12.832
56101SOL    HW270143   9.284  10.870  12.712
56102SOL     OW70144   1.962  13.160   5.043
56102SOL    HW170145   2.040  13.120   5.081
56102SOL    HW270146   1.927  13.093   4.985
56103SOL     OW70147  11.465   9.288   2.358
56103SOL    HW170148  11.382   9.246   2.377
56103SOL    HW270149  11.442   9.366   2.308
56104SOL     OW70150   2.175   7.486   4.432
56104SOL    HW170151   2.172   7.461   4.525
56104SOL    HW270152   2.191   7.403   4.386
56105SOL     OW70153  14.326   9.270  11.907
56105SOL    HW170154  14.328   9.194  11.964
56105SOL    HW270155  14.263   9.248  11.839
56106SOL     OW70156   8.515  10.020   8.605
56106SOL    HW170157   8.457  10.047   8.675
56106SOL    HW270158   8.459   9.971   8.544
56107SOL     OW70159  10.525  12.581   9.748
56107SOL    HW170160  10.471  12.575   9.827
56107SOL    HW270161  10.574  12.498   9.747
56108SOL     OW70162   2.499  11.960   1.866
56108SOL    HW170163   2.512  11.865   1.870
56108SOL    HW270164   2.572  11.992   1.814
56109SOL     OW70165   3.940  14.851   9.252
56109SOL    HW170166   3.961  14.807   9.334
56109SOL    HW270167   3.910   0.064   9.277
56110SOL     OW70168  12.844   4.054   5.965
56110SOL    HW170169  12.835   4.074   6.058
56110SOL    HW270170  12.934   4.022   5.956
56111SOL     OW70171  10.596   4.274  11.379
56111SOL    HW170172  10.587   4.242  11.290
56111SOL    HW270173  10.665   4.340  11.374
56112SOL     OW70174   3.473   9.380   4.845
56112SOL    HW170175   3.434   9.401   4.929
56112SOL    HW270176   3.442   9.291   4.826
56113SOL     OW70177  12.553  14.721   5.113
56113SOL    HW170178  12.501  14.662   5.060
56113SOL    HW270179  12.629  14.670   5.140
56114SOL     OW70180   5.371   2.617   0.170
56114SOL    HW170181   5.277   2.621   0.188
56114SOL    HW270182   5.377   2.577   0.083
56115SOL     OW70183   8.524   8.854  13.229
56115SOL    HW170184   8.484   8.772  13.258
56115SOL    HW270185   8.575   8.830  13.151
56116SOL     OW70186  11.377   9.263   8.478
56116SOL    HW170187  11.388   9.174   8.446
56116SOL    HW270188  11.453   9.279   8.534
56117SOL     OW70189   8.273  10.352   9.475
56117SOL    HW170190   8.226  10.278   9.514
56117SOL    HW270191   8.318  10.393   9.549
56118SOL     OW70192  13.819   1.608   2.620
56118SOL    HW170193  13.832   1.655   2.702
56118SOL    HW270194  13.854   1.668   2.553
56119SOL     OW70195  13.750  11.646   6.188
56119SOL    HW170196  13.807  11.663   6.263
56119SOL    HW270197  13.667  11.688   6.212
56120SOL     OW70198  10.463  10.728   8.809
56120SOL    HW170199  10.371  10.702   8.803
56120SOL    HW270200  10.509  10.647   8.832
56121SOL     OW70201   5.788   8.799   8.414
56121SOL    HW170202   5.850   8.801   8.342
56121SOL    HW270203   5.839   8.767   8.489
56122SOL     OW70204   9.527  14.473   9.731
56122SOL    HW170205   9.467  14.548   9.732
56122SOL    HW270206   9.565  14.474   9.643
56123SOL     OW70207   8.278  10.412   2.268
56123SOL    HW170208   8.220  10.393   2.341
56123SOL    HW270209   8.233  10.481   2.219
56124SOL     OW70210   6.169   9.465  10.110
56124SOL    HW170211   6.169   9.483  10.016
56124SOL    HW270212   6.100   9.521  10.145
56125SOL     OW70213   7.008   4.985   6.295
56125SOL    HW170214   7.045   4.923   6.357
56125SOL    HW270215   6.991   4.933   6.216
56126SOL     OW70216   5.210   2.751   5.882
56126SOL    HW170217   5.245   2.670   5.843
56126SOL    HW270218   5.230   2.819   5.818
56127SOL     OW70219  12.952   0.855  11.974
56127SOL    HW170220  12.927   0.840  11.882
56127SOL    HW270221  13.046   0.842  11.976
56128SOL     OW70222   8.771   0.334   7.066
56128SOL    HW170223   8.701   0.372   7.013
56128SOL    HW270224   8.738   0.248   7.092
56129SOL     OW70225   8.854  14.635  12.244
56129SOL    HW170226   8.793  14.562  12.241
56129SOL    HW270227   8.826  14.693  12.174
56130SOL     OW70228   2.699  10.192   2.865
56130SOL    HW170229   2.624  10.243   2.898
56130SOL    HW270230   2.769  10.257   2.854
56131SOL     OW70231   3.337   9.524  12.837
56131SOL    HW170232   3.413   9.469  12.815
56131SOL    HW270233   3.285   9.470  12.896
56132SOL     OW70234  12.698   4.802   4.123
56132SOL    HW170235  12.789   4.801   4.154
56132SOL    HW270236  12.663   4.884   4.156
56133SOL     OW70237   3.007  11.165   7.645
56133SOL    HW170238   2.954  11.225   7.697
56133SOL    HW270239   3.009  11.205   7.558
56134SOL     OW70240   2.415  11.217  14.536
56134SOL    HW170241   2.423  11.189  14.627
56134SOL    HW270242   2.504  11.215  14.502
56135SOL     OW70243  12.398   9.217  12.828
56135SOL    HW170244  12.490   9.242  12.817
56135SOL    HW270245  12.390   9.133  12.783
56136SOL     OW70246  12.364  11.737   8.402
56136SOL    HW170247  12.450  11.777   8.398
56136SOL    HW270248  12.318  11.770   8.325
56137SOL     OW70249   4.525   8.826   9.191
56137SOL    HW170250   4.595   8.817   9.256
56137SOL    HW270251   4.541   8.756   9.128
56138SOL     OW70252   7.404   7.357  12.095
56138SOL    HW170253   7.328   7.314  12.054
56138SOL    HW270254   7.433   7.294  12.161
56139SOL     OW70255  13.715   4.934   1.045
56139SOL    HW170256  13.747   5.021   1.072
56139SOL    HW270257  13.659   4.952   0.969
56140SOL     OW70258  11.763   6.852   8.835
56140SOL    HW170259  11.788   6.860   8.927
56140SOL    HW270260  11.821   6.913   8.788
56141SOL     OW70261  10.059   0.327   1.566
56141SOL    HW170262  10.123   0.264   1.599
56141SOL    HW270263  10.009   0.278   1.501
56142SOL     OW70264   7.679  12.806   5.252
56142SOL    HW170265   7.642  12.784   5.166
56142SOL    HW270266   7.647  12.894   5.270
56143SOL     OW70267   0.360   7.181   3.823
56143SOL    HW170268   0.438   7.126   3.815
56143SOL    HW270269   0.351   7.222   3.737
56144SOL     OW70270  13.499  12.283  11.242
56144SOL    HW170271  13.575  12.340  11.251
56144SOL    HW270272  13.425  12.337  11.268
56145SOL     OW70273   2.080   7.047   3.833
56145SOL    HW170274   2.078   6.985   3.906
56145SOL    HW270275   2.038   7.126   3.868
56146SOL     OW70276  10.762   2.870   4.881
56146SOL    HW170277  10.854   2.885   4.859
56146SOL    HW270278  10.741   2.939   4.943
56147SOL     OW70279   7.514   7.252   3.741
56147SOL    HW170280   7.559   7.207   3.813
56147SOL    HW270281   7.542   7.206   3.663
56148SOL     OW70282   1.791  13.351   4.548
56148SOL    HW170283   1.795  13.432   4.598
56148SOL    HW270284   1.882  13.321   4.544
56149SOL     OW70285   1.883   7.927  13.520
56149SOL    HW170286   1.909   7.939  13.611
56149SOL    HW270287   1.863   7.834  13.513
56150SOL     OW70288   3.471   5.663   5.468
56150SOL    HW170289   3.537   5.733   5.465
56150SOL    HW270290   3.419   5.676   5.388
56151SOL     OW70291  11.506   5.873   5.807
56151SOL    HW170292  11.568   5.807   5.776
56151SOL    HW270293  11.447   5.887   5.733
56152SOL     OW70294   8.572   1.578  12.681
56152SOL    HW170295   8.494   1.522  12.683
56152SOL    HW270296   8.618   1.553  12.601
56153SOL     OW70297  14.812   9.705   7.700
56153SOL    HW170298  14.863   9.727   7.778
56153SOL    HW270299  14.826   9.612   7.687
56154SOL     OW70300  11.662  13.140  13.018
56154SOL    HW170301  11.665  13.045  13.027
56154SOL    HW270302  11.718  13.159  12.943
56155SOL     OW70303   1.622   5.339  11.205
56155SOL    HW170304   1.550   5.402  11.207
56155SOL    HW270305   1.633   5.318  11.112
56156SOL     OW70306  10.279  13.479   0.633
56156SOL    HW170307  10.219  13.525   0.573
56156SOL    HW270308  10.307  13.402   0.585
56157SOL     OW70309   5.808  13.845   4.076
56157SOL    HW170310   5.784  13.891   3.996
56157SOL    HW270311   5.775  13.901   4.147
56158SOL     OW70312   8.553   0.301   1.396
56158SOL    HW170313   8.466   0.273   1.424
56158SOL    HW270314   8.600   0.321   1.477
56159SOL     OW70315  11.288  14.826   6.128
56159SOL    HW170316  11.239  14.763   6.075
56159SOL    HW270317  11.224   0.021   6.148
56160SOL     OW70318   8.432  14.399  11.522
56160SOL    HW170319   8.502  14.458  11.550
56160SOL    HW270320   8.407  14.431  11.435
56161SOL     OW70321  12.135   6.104   6.877
56161SOL    HW170322  12.204   6.075   6.817
56161SOL    HW270323  12.067   6.037   6.868
56162SOL     OW70324   5.967   5.039   2.516
56162SOL    HW170325   6.018   5.103   2.468
56162SOL    HW270326   6.029   4.970   2.540
56163SOL     OW70327   5.785   0.178  12.750
56163SOL    HW170328   5.778   0.198  12.657
56163SOL    HW270329   5.837   0.250  12.786
56164SOL     OW70330   3.138   9.834   3.492
56164SOL    HW170331   3.062   9.856   3.438
56164SOL    HW270332   3.155   9.913   3.543
56165SOL     OW70333   5.258   3.846  13.832
56165SOL    HW170334   5.297   3.893  13.905
56165SOL    HW270335   5.300   3.884  13.754
56166SOL     OW70336  11.144  12.541   9.021
56166SOL    HW170337  11.200  12.613   9.048
56166SOL    HW270338  11.129  12.491   9.102
56167SOL     OW70339  14.410  14.402   8.670
56167SOL    HW170340  14.424  14.442   8.584
56167SOL    HW270341  14.488  14.349   8.685
56168SOL     OW70342   0.490   9.628   1.518
56168SOL    HW170343   0.532   9.676   1.589
56168SOL    HW270344   0.402   9.665   1.513
56169SOL     OW70345   3.262   3.066  11.843
56169SOL    HW170346   3.248   3.011  11.920
56169SOL    HW270347   3.174   3.092  11.816
56170SOL     OW70348  11.752   5.820   6.152
56170SOL    HW170349  11.740   5.786   6.241
56170SOL    HW270350  11.842   5.851   6.150
56171SOL     OW70351  12.597   6.623   5.158
56171SOL    HW170352  12.686   6.597   5.133
56171SOL    HW270353  12.599   6.628   5.254
56172SOL     OW70354   9.375   8.650  13.891
56172SOL    HW170355   9.331   8.723  13.848
56172SOL    HW270356   9.323   8.573  13.866
56173SOL     OW70357   7.700   2.903   7.313
56173SOL    HW170358   7.648   2.840   7.363
56173SOL    HW270359   7.703   2.866   7.225
56174SOL     OW70360   8.843   2.091   7.311
56174SOL    HW170361   8.903   2.100   7.385
56174SOL    HW270362   8.818   2.181   7.290
56175SOL     OW70363   4.849  10.274   5.063
56175SOL    HW170364   4.843  10.203   5.127
56175SOL    HW270365   4.761  10.311   5.060
56176SOL     OW70366   4.264   6.643   2.137
56176SOL    HW170367   4.257   6.591   2.216
56176SOL    HW270368   4.198   6.606   2.078
56177SOL     OW70369   3.336  11.100   1.298
56177SOL    HW170370   3.401  11.101   1.368
56177SOL    HW270371   3.283  11.179   1.313
56178SOL     OW70372   5.505  10.357  14.179
56178SOL    HW170373   5.479  10.278  14.131
56178SOL    HW270374   5.422  10.402  14.196
56179SOL     OW70375  13.394   0.689  12.550
56179SOL    HW170376  13.446   0.757  12.507
56179SOL    HW270377  13.305   0.702  12.515
56180SOL     OW70378   1.489  10.126   9.565
56180SOL    HW170379   1.428  10.118   9.638
56180SOL    HW270380   1.552  10.056   9.578
56181SOL     OW70381   2.877   2.277   3.647
56181SOL    HW170382   2.881   2.279   3.743
56181SOL    HW270383   2.818   2.205   3.627
56182SOL     OW70384   6.707   6.357  12.863
56182SOL    HW170385   6.641   6.404  12.913
56182SOL    HW270386   6.715   6.406  12.782
56183SOL     OW70387   8.007   5.471  14.505
56183SOL    HW170388   8.047   5.551  14.538
56183SOL    HW270389   7.924   5.499  14.466
56184SOL     OW70390   0.828   8.052  10.919
56184SOL    HW170391   0.785   8.077  10.837
56184SOL    HW270392   0.862   8.134  10.954
56185SOL     OW70393   2.033   0.486   2.316
56185SOL    HW170394   2.062   0.509   2.405
56185SOL    HW270395   1.941   0.462   2.326
56186SOL     OW70396   7.999  10.358  13.456
56186SOL    HW170397   7.950  10.341  13.536
56186SOL    HW270398   7.933  10.366  13.387
56187SOL     OW70399  13.976   8.688   4.862
56187SOL    HW170400  14.024   8.656   4.938
56187SOL    HW270401  13.930   8.612   4.828
56188SOL     OW70402  10.451   4.758  13.600
56188SOL    HW170403  10.402   4.839  13.582
56188SOL    HW270404  10.416   4.727  13.683
56189SOL     OW70405   3.260   8.811   4.417
56189SOL    HW170406   3.191   8.826   4.482
56189SOL    HW270407   3.269   8.895   4.372
56190SOL     OW70408  12.792  13.873   8.096
56190SOL    HW170409  12.805  13.876   8.190
56190SOL    HW270410  12.696  13.870   8.085
56191SOL     OW70411   7.921   4.291   4.955
56191SOL    HW170412   7.827   4.287   4.934
56191SOL    HW270413   7.924   4.333   5.041
56192SOL     OW70414  10.155  11.819  13.750
56192SOL    HW170415  10.138  11.905  13.711
56192SOL    HW270416  10.182  11.764  13.677
56193SOL     OW70417   7.773   2.687   6.504
56193SOL    HW170418   7.797   2.624   6.436
56193SOL    HW270419   7.833   2.761   6.490
56194SOL     OW70420  12.037   1.225   6.563
56194SOL    HW170421  11.962   1.167   6.576
56194SOL    HW270422  12.105   1.168   6.527
56195SOL     OW70423  11.704  13.135   1.633
56195SOL    HW170424  11.686  13.205   1.696
56195SOL    HW270425  11.669  13.167   1.550
56196SOL     OW70426   4.057  14.481   3.907
56196SOL    HW170427   4.135  14.429   3.891
56196SOL    HW270428   3.984  14.422   3.886
56197SOL     OW70429  10.295   4.562  12.138
56197SOL    HW170430  10.387   4.589  12.132
56197SOL    HW270431  10.245   4.641  12.117
56198SOL     OW70432  11.299   1.342   9.520
56198SOL    HW170433  11.239   1.348   9.446
56198SOL    HW270434  11.342   1.428   9.523
56199SOL     OW70435   8.479   5.064   0.440
56199SOL    HW170436   8.477   5.055   0.535
56199SOL    HW270437   8.442   5.151   0.423
56200SOL     OW70438   7.042  10.648  13.860
56200SOL    HW170439   7.047  10.630  13.766
56200SOL    HW270440   7.043  10.561  13.901
56201SOL     OW70441  13.799  10.184   9.913
56201SOL    HW170442  13.886  10.193   9.875
56201SOL    HW270443  13.754  10.122   9.855
56202SOL     OW70444   2.963  14.394   6.401
56202SOL    HW170445   2.992  14.463   6.460
56202SOL    HW270446   2.899  14.436   6.343
56203SOL     OW70447  11.102   2.082   7.102
56203SOL    HW170448  11.071   2.123   7.183
56203SOL    HW270449  11.178   2.133   7.076
56204SOL     OW70450  12.696  12.378   7.696
56204SOL    HW170451  12.656  12.459   7.662
56204SOL    HW270452  12.622  12.327   7.730
56205SOL     OW70453   4.303   6.959   5.542
56205SOL    HW170454   4.348   6.899   5.601
56205SOL    HW270455   4.233   6.907   5.503
56206SOL     OW70456  11.407   4.703   2.891
56206SOL    HW170457  11.397   4.710   2.796
56206SOL    HW270458  11.411   4.794   2.921
56207SOL     OW70459  12.029  10.902   6.397
56207SOL    HW170460  12.003  10.953   6.475
56207SOL    HW270461  12.046  10.814   6.431
56208SOL     OW70462   6.831   3.253   7.349
56208SOL    HW170463   6.776   3.178   7.371
56208SOL    HW270464   6.797   3.284   7.265
56209SOL     OW70465   5.843   4.860   3.739
56209SOL    HW170466   5.938   4.872   3.737
56209SOL    HW270467   5.823   4.814   3.658
56210SOL     OW70468   8.565   8.719   6.475
56210SOL    HW170469   8.518   8.637   6.462
56210SOL    HW270470   8.576   8.755   6.387
56211SOL     OW70471   3.605   7.727  11.674
56211SOL    HW170472   3.647   7.643  11.657
56211SOL    HW270473   3.538   7.707  11.739
56212SOL     OW70474   6.871  14.653  11.744
56212SOL    HW170475   6.821  14.732  11.768
56212SOL    HW270476   6.941  14.649  11.809
56213SOL     OW70477   4.549  13.009   1.299
56213SOL    HW170478   4.609  12.934   1.299
56213SOL    HW270479   4.465  12.972   1.326
56214SOL     OW70480   6.744   6.079   2.773
56214SOL    HW170481   6.684   6.022   2.724
56214SOL    HW270482   6.706   6.083   2.861
56215SOL     OW70483   4.911   5.103   5.724
56215SOL    HW170484   4.883   5.188   5.690
56215SOL    HW270485   5.004   5.115   5.743
56216SOL     OW70486  14.232   0.353   8.349
56216SOL    HW170487  14.242   0.442   8.381
56216SOL    HW270488  14.151   0.355   8.298
56217SOL     OW70489   6.721  13.604   4.774
56217SOL    HW170490   6.715  13.524   4.827
56217SOL    HW270491   6.795  13.651   4.812
56218SOL     OW70492  10.809   8.193  10.571
56218SOL    HW170493  10.773   8.273  10.610
56218SOL    HW270494  10.825   8.136  10.646
56219SOL     OW70495  11.814  10.366   5.398
56219SOL    HW170496  11.788  10.350   5.308
56219SOL    HW270497  11.909  10.381   5.394
56220SOL     OW70498   5.812  13.998   6.779
56220SOL    HW170499   5.830  14.084   6.816
56220SOL    HW270500   5.736  13.965   6.827
56221SOL     OW70501   9.443   0.542  10.919
56221SOL    HW170502   9.473   0.585  10.999
56221SOL    HW270503   9.424   0.452  10.945
56222SOL     OW70504  10.796  14.049   0.327
56222SOL    HW170505  10.717  14.002   0.302
56222SOL    HW270506  10.786  14.136   0.289
56223SOL     OW70507   6.438  13.071  10.323
56223SOL    HW170508   6.361  13.016  10.307
56223SOL    HW270509   6.403  13.159  10.332
56224SOL     OW70510   3.924   5.965   2.516
56224SOL    HW170511   3.907   5.989   2.607
56224SOL    HW270512   4.017   5.984   2.503
56225SOL     OW70513  12.099   9.608   3.932
56225SOL    HW170514  12.133   9.627   3.844
56225SOL    HW270515  12.040   9.680   3.951
56226SOL     OW70516   3.612  11.989  14.824
56226SOL    HW170517   3.583  12.024   0.034
56226SOL    HW270518   3.682  12.048  14.795
56227SOL     OW70519  12.183   1.420  11.632
56227SOL    HW170520  12.187   1.328  11.607
56227SOL    HW270521  12.091   1.443  11.625
56228SOL     OW70522  12.781   7.971  12.450
56228SOL    HW170523  12.876   7.982  12.453
56228SOL    HW270524  12.767   7.878  12.466
56229SOL     OW70525  11.353   1.056   0.383
56229SOL    HW170526  11.445   1.034   0.401
56229SOL    HW270527  11.317   1.081   0.468
56230SOL     OW70528   2.029  12.749   6.209
56230SOL    HW170529   1.994  12.691   6.142
56230SOL    HW270530   1.972  12.826   6.205
56231SOL     OW70531  13.737   0.399   2.753
56231SOL    HW170532  13.831   0.394   2.735
56231SOL    HW270533  13.713   0.489   2.731
56232SOL     OW70534   5.408  10.492   9.222
56232SOL    HW170535   5.485  10.544   9.242
56232SOL    HW270536   5.415  10.473   9.128
56233SOL     OW70537   1.538   9.197   2.097
56233SOL    HW170538   1.598   9.122   2.099
56233SOL    HW270539   1.452   9.157   2.085
56234SOL     OW70540   9.419   6.288   5.284
56234SOL    HW170541   9.456   6.375   5.266
56234SOL    HW270542   9.325   6.303   5.286
56235SOL     OW70543  11.057   8.841   4.386
56235SOL    HW170544  11.091   8.929   4.401
56235SOL    HW270545  11.126   8.797   4.335
56236SOL     OW70546   2.261   3.006   8.955
56236SOL    HW170547   2.247   3.038   9.044
56236SOL    HW270548   2.336   2.947   8.962
56237SOL     OW70549  12.845   3.802   6.199
56237SOL    HW170550  12.800   3.775   6.279
56237SOL    HW270551  12.937   3.804   6.223
56238SOL     OW70552   2.319   2.715   6.386
56238SOL    HW170553   2.340   2.624   6.365
56238SOL    HW270554   2.404   2.756   6.401
56239SOL     OW70555   6.890   3.781   4.300
56239SOL    HW170556   6.973   3.788   4.251
56239SOL    HW270557   6.889   3.859   4.355
56240SOL     OW70558  12.049   4.312  13.586
56240SOL    HW170559  12.082   4.342  13.502
56240SOL    HW270560  12.099   4.232  13.604
56241SOL     OW70561   1.497   4.686  11.965
56241SOL    HW170562   1.564   4.738  11.920
56241SOL    HW270563   1.539   4.659  12.047
56242SOL     OW70564   8.396  14.009  11.206
56242SOL    HW170565   8.332  14.068  11.167
56242SOL    HW270566   8.380  13.925  11.163
56243SOL     OW70567   4.630   6.969   6.885
56243SOL    HW170568   4.723   6.988   6.898
56243SOL    HW270569   4.626   6.935   6.795
56244SOL     OW70570  13.256  11.491  13.933
56244SOL    HW170571  13.176  11.500  13.986
56244SOL    HW270572  13.226  11.447  13.854
56245SOL     OW70573  13.386  10.094   8.925
56245SOL    HW170574  13.407  10.058   8.839
56245SOL    HW270575  13.292  10.079   8.935
56246SOL     OW70576  10.262  14.581   2.660
56246SOL    HW170577  10.169  14.601   2.673
56246SOL    HW270578  10.289  14.640   2.589
56247SOL     OW70579  14.376   7.507  12.262
56247SOL    HW170580  14.342   7.585  12.219
56247SOL    HW270581  14.315   7.437  12.238
56248SOL     OW70582   0.448  10.638   3.591
56248SOL    HW170583   0.475  10.596   3.509
56248SOL    HW270584   0.358  10.667   3.574
56249SOL     OW70585   0.638   3.571   1.343
56249SOL    HW170586   0.605   3.573   1.432
56249SOL    HW270587   0.645   3.477   1.322
56250SOL     OW70588   7.095   9.709   3.946
56250SOL    HW170589   7.118   9.628   3.902
56250SOL    HW270590   7.119   9.778   3.884
56251SOL     OW70591   5.334   7.313  10.905
56251SOL    HW170592   5.272   7.300  10.833
56251SOL    HW270593   5.312   7.400  10.940
56252SOL     OW70594   0.788   4.212  11.348
56252SOL    HW170595   0.753   4.141  11.402
56252SOL    HW270596   0.883   4.207  11.360
56253SOL     OW70597  10.579  10.247   8.801
56253SOL    HW170598  10.489  10.234   8.771
56253SOL    HW270599  10.576  10.326   8.854
56254SOL     OW70600   6.429  10.001   9.089
56254SOL    HW170601   6.503   9.941   9.085
56254SOL    HW270602   6.354   9.945   9.109
56255SOL     OW70603  11.095  12.901  14.829
56255SOL    HW170604  11.073  12.946  14.747
56255SOL    HW270605  11.190  12.892  14.827
56256SOL     OW70606  13.377  12.890   5.581
56256SOL    HW170607  13.343  12.945   5.652
56256SOL    HW270608  13.305  12.831   5.560
56257SOL     OW70609  13.499   4.740  11.355
56257SOL    HW170610  13.429   4.775  11.410
56257SOL    HW270611  13.516   4.653  11.391
56258SOL     OW70612  10.435   9.593   9.450
56258SOL    HW170613  10.495   9.529   9.413
56258SOL    HW270614  10.352   9.546   9.460
56259SOL     OW70615   5.798   6.899   5.604
56259SOL    HW170616   5.855   6.931   5.674
56259SOL    HW270617   5.714   6.885   5.647
56260SOL     OW70618   7.879   5.519  11.475
56260SOL    HW170619   7.888   5.499  11.568
56260SOL    HW270620   7.967   5.546  11.448
56261SOL     OW70621   6.277   5.729   9.041
56261SOL    HW170622   6.365   5.712   9.008
56261SOL    HW270623   6.240   5.642   9.058
56262SOL     OW70624   8.483   6.191   0.838
56262SOL    HW170625   8.502   6.098   0.828
56262SOL    HW270626   8.404   6.194   0.892
56263SOL     OW70627   6.721  11.199   3.975
56263SOL    HW170628   6.698  11.257   3.902
56263SOL    HW270629   6.735  11.114   3.933
56264SOL     OW70630  10.592   5.099   7.825
56264SOL    HW170631  10.605   5.011   7.859
56264SOL    HW270632  10.540   5.143   7.892
56265SOL     OW70633  10.145   8.299   1.717
56265SOL    HW170634  10.138   8.390   1.690
56265SOL    HW270635  10.071   8.286   1.777
56266SOL     OW70636   1.774  11.804   3.701
56266SOL    HW170637   1.798  11.755   3.780
56266SOL    HW270638   1.836  11.877   3.698
56267SOL     OW70639   1.794  12.785   8.888
56267SOL    HW170640   1.834  12.723   8.827
56267SOL    HW270641   1.849  12.863   8.882
56268SOL     OW70642   1.408   2.285  12.203
56268SOL    HW170643   1.471   2.357  12.203
56268SOL    HW270644   1.461   2.206  12.216
56269SOL     OW70645   7.277   3.183  14.269
56269SOL    HW170646   7.277   3.265  14.218
56269SOL    HW270647   7.259   3.211  14.359
56270SOL     OW70648   9.342   6.313   6.012
56270SOL    HW170649   9.371   6.404   6.019
56270SOL    HW270650   9.289   6.311   5.932
56271SOL     OW70651   2.110   8.927   4.847
56271SOL    HW170652   2.193   8.973   4.842
56271SOL    HW270653   2.060   8.960   4.772
56272SOL     OW70654   3.767   6.132  12.763
56272SOL    HW170655   3.714   6.071  12.814
56272SOL    HW270656   3.745   6.113  12.672
56273SOL     OW70657   1.231   1.248   4.142
56273SOL    HW170658   1.267   1.215   4.060
56273SOL    HW270659   1.260   1.186   4.208
56274SOL     OW70660   7.554  12.894   6.225
56274SOL    HW170661   7.623  12.829   6.240
56274SOL    HW270662   7.474  12.841   6.216
56275SOL     OW70663   8.599  13.445   6.785
56275SOL    HW170664   8.573  13.456   6.694
56275SOL    HW270665   8.525  13.399   6.825
56276SOL     OW70666   2.023   2.036   1.762
56276SOL    HW170667   2.024   1.959   1.705
56276SOL    HW270668   2.115   2.047   1.787
56277SOL     OW70669   6.688  12.721  13.342
56277SOL    HW170670   6.671  12.732  13.248
56277SOL    HW270671   6.784  12.721  13.349
56278SOL     OW70672   2.403  14.613   0.846
56278SOL    HW170673   2.394  14.708   0.854
56278SOL    HW270674   2.314  14.580   0.849
56279SOL     OW70675  12.727   6.873  14.095
56279SOL    HW170676  12.683   6.912  14.171
56279SOL    HW270677  12.689   6.786  14.089
56280SOL     OW70678   9.822   6.353   4.320
56280SOL    HW170679   9.792   6.325   4.406
56280SOL    HW270680   9.864   6.275   4.282
56281SOL     OW70681  10.572  11.079  13.317
56281SOL    HW170682  10.602  11.147  13.257
56281SOL    HW270683  10.537  11.011  13.260
56282SOL     OW70684  11.769   2.027  13.256
56282SOL    HW170685  11.852   2.076  13.260
56282SOL    HW270686  11.734   2.046  13.169
56283SOL     OW70687   7.749  10.544   1.538
56283SOL    HW170688   7.675  10.541   1.599
56283SOL    HW270689   7.720  10.491   1.464
56284SOL     OW70690   1.364  10.578  12.865
56284SOL    HW170691   1.363  10.589  12.960
56284SOL    HW270692   1.287  10.626  12.834
56285SOL     OW70693   7.214  12.688  11.231
56285SOL    HW170694   7.158  12.656  11.161
56285SOL    HW270695   7.160  12.751  11.279
56286SOL     OW70696   7.307  14.681  13.986
56286SOL    HW170697   7.403  14.676  13.976
56286SOL    HW270698   7.292  14.650  14.076
56287SOL     OW70699   8.505  12.063   3.909
56287SOL    HW170700   8.456  12.145   3.897
56287SOL    HW270701   8.574  12.067   3.842
56288SOL     OW70702   0.353   4.433   2.833
56288SOL    HW170703   0.310   4.514   2.858
56288SOL    HW270704   0.381   4.447   2.742
56289SOL     OW70705   0.801   7.540   8.071
56289SOL    HW170706   0.717   7.557   8.112
56289SOL    HW270707   0.850   7.622   8.080
56290SOL     OW70708   3.330   4.856   2.432
56290SOL    HW170709   3.284   4.868   2.348
56290SOL    HW270710   3.267   4.887   2.497
56291SOL     OW70711  10.135  11.344   5.644
56291SOL    HW170712  10.191  11.412   5.608
56291SOL    HW270713  10.050  11.359   5.603
56292SOL     OW70714   8.869   0.128   7.863
56292SOL    HW170715   8.783   0.161   7.838
56292SOL    HW270716   8.900   0.081   7.785
56293SOL     OW70717   0.708   6.741  14.731
56293SOL    HW170718   0.796   6.779  14.726
56293SOL    HW270719   0.686   6.745  14.824
56294SOL     OW70720  13.396   7.549   4.800
56294SOL    HW170721  13.346   7.630   4.788
56294SOL    HW270722  13.343   7.482   4.757
56295SOL     OW70723   5.782  10.969   6.560
56295SOL    HW170724   5.873  10.978   6.586
56295SOL    HW270725   5.780  10.889   6.508
56296SOL     OW70726   4.128   8.278  14.615
56296SOL    HW170727   4.195   8.253  14.679
56296SOL    HW270728   4.148   8.226  14.537
56297SOL     OW70729   4.507  13.846   4.554
56297SOL    HW170730   4.570  13.774   4.558
56297SOL    HW270731   4.431  13.814   4.602
56298SOL     OW70732   1.842   6.067  12.674
56298SOL    HW170733   1.907   6.040  12.609
56298SOL    HW270734   1.785   5.990  12.683
56299SOL     OW70735  14.148   2.597   8.468
56299SOL    HW170736  14.146   2.587   8.373
56299SOL    HW270737  14.081   2.537   8.500
56300SOL     OW70738  11.041   5.242   3.868
56300SOL    HW170739  11.041   5.334   3.840
56300SOL    HW270740  10.987   5.198   3.803
56301SOL     OW70741  13.960  13.695  14.463
56301SOL    HW170742  13.987  13.786  14.476
56301SOL    HW270743  13.904  13.698  14.385
56302SOL     OW70744   7.609   6.109   4.177
56302SOL    HW170745   7.701   6.134   4.163
56302SOL    HW270746   7.583   6.068   4.094
56303SOL     OW70747   9.451  12.766   6.325
56303SOL    HW170748   9.415  12.813   6.400
56303SOL    HW270749   9.448  12.829   6.253
56304SOL     OW70750  10.545  13.312   5.957
56304SOL    HW170751  10.532  13.406   5.974
56304SOL    HW270752  10.640  13.300   5.962
56305SOL     OW70753  11.352   6.292  14.680
56305SOL    HW170754  11.333   6.262  14.591
56305SOL    HW270755  11.290   6.364  14.695
56306SOL     OW70756   7.111   2.157   2.318
56306SOL    HW170757   7.195   2.179   2.358
56306SOL    HW270758   7.049   2.219   2.357
56307SOL     OW70759   7.210  10.884   9.053
56307SOL    HW170760   7.154  10.931   9.115
56307SOL    HW270761   7.149  10.837   8.997
56308SOL     OW70762   1.173   0.608   6.599
56308SOL    HW170763   1.217   0.603   6.684
56308SOL    HW270764   1.108   0.677   6.609
56309SOL     OW70765   5.345   1.673   1.911
56309SOL    HW170766   5.263   1.721   1.913
56309SOL    HW270767   5.331   1.598   1.969
56310SOL     OW70768  10.625   5.163  12.473
56310SOL    HW170769  10.675   5.130  12.547
56310SOL    HW270770  10.619   5.258  12.488
56311SOL     OW70771   7.523   9.655   8.785
56311SOL    HW170772   7.537   9.700   8.701
56311SOL    HW270773   7.495   9.725   8.844
56312SOL     OW70774  10.761  14.507   3.154
56312SOL    HW170775  10.814  14.457   3.216
56312SOL    HW270776  10.815  14.510   3.074
56313SOL     OW70777   5.657   8.500   7.604
56313SOL    HW170778   5.715   8.473   7.533
56313SOL    HW270779   5.601   8.567   7.565
56314SOL     OW70780   3.409  12.900  14.397
56314SOL    HW170781   3.475  12.872  14.333
56314SOL    HW270782   3.362  12.970  14.353
56315SOL     OW70783   5.659  14.521   0.654
56315SOL    HW170784   5.672  14.511   0.749
56315SOL    HW270785   5.728  14.582   0.627
56316SOL     OW70786   9.115   7.804   0.014
56316SOL    HW170787   9.185   7.860  14.853
56316SOL    HW270788   9.147   7.715   0.001
56317SOL     OW70789   2.725   5.886   7.097
56317SOL    HW170790   2.731   5.965   7.150
56317SOL    HW270791   2.670   5.911   7.023
56318SOL     OW70792   6.468   1.141   1.861
56318SOL    HW170793   6.450   1.191   1.781
56318SOL    HW270794   6.460   1.049   1.833
56319SOL     OW70795  12.795   2.359   8.641
56319SOL    HW170796  12.775   2.270   8.671
56319SOL    HW270797  12.890   2.367   8.650
56320SOL     OW70798   1.074   8.165  12.534
56320SOL    HW170799   1.016   8.094  12.561
56320SOL    HW270800   1.037   8.196  12.451
56321SOL     OW70801  13.810   7.007  13.478
56321SOL    HW170802  13.843   7.061  13.407
56321SOL    HW270803  13.720   6.985  13.451
56322SOL     OW70804  11.774   3.819   1.837
56322SOL    HW170805  11.869   3.819   1.829
56322SOL    HW270806  11.750   3.912   1.832
56323SOL     OW70807   7.185  10.311  12.445
56323SOL    HW170808   7.178  10.381  12.380
56323SOL    HW270809   7.094  10.286  12.462
56324SOL     OW70810   0.744   5.324  11.584
56324SOL    HW170811   0.830   5.299  11.616
56324SOL    HW270812   0.740   5.419  11.597
56325SOL     OW70813   3.316   1.644   8.399
56325SOL    HW170814   3.347   1.668   8.312
56325SOL    HW270815   3.387   1.669   8.458
56326SOL     OW70816  14.323   9.535   4.709
56326SOL    HW170817  14.276   9.539   4.626
56326SOL    HW270818  14.411   9.507   4.686
56327SOL     OW70819  10.727  11.123   4.762
56327SOL    HW170820  10.652  11.063   4.753
56327SOL    HW270821  10.795  11.069   4.801
56328SOL     OW70822  10.230   1.266   2.206
56328SOL    HW170823  10.211   1.190   2.150
56328SOL    HW270824  10.324   1.280   2.194
56329SOL     OW70825   6.435  14.402   0.574
56329SOL    HW170826   6.506  14.449   0.531
56329SOL    HW270827   6.405  14.338   0.510
56330SOL     OW70828   3.443  12.227   4.985
56330SOL    HW170829   3.350  12.203   4.975
56330SOL    HW270830   3.448  12.263   5.073
56331SOL     OW70831   5.009   1.181  13.325
56331SOL    HW170832   4.994   1.091  13.356
56331SOL    HW270833   5.018   1.233  13.405
56332SOL     OW70834   1.914  11.071  13.051
56332SOL    HW170835   1.824  11.087  13.024
56332SOL    HW270836   1.959  11.044  12.971
56333SOL     OW70837  10.955  13.168   9.323
56333SOL    HW170838  10.894  13.241   9.329
56333SOL    HW270839  10.947  13.123   9.407
56334SOL     OW70840   1.545  11.620   0.468
56334SOL    HW170841   1.454  11.593   0.458
56334SOL    HW270842   1.540  11.716   0.478
56335SOL     OW70843  11.635   8.138   8.347
56335SOL    HW170844  11.543   8.110   8.346
56335SOL    HW270845  11.633   8.226   8.310
56336SOL     OW70846   0.500   6.310  10.994
56336SOL    HW170847   0.486   6.276  11.082
56336SOL    HW270848   0.436   6.263  10.940
56337SOL     OW70849  11.704   9.940   9.622
56337SOL    HW170850  11.671   9.886   9.549
56337SOL    HW270851  11.630   9.994   9.648
56338SOL     OW70852   5.237  12.470   3.416
56338SOL    HW170853   5.328  12.499   3.422
56338SOL    HW270854   5.216  12.438   3.504
56339SOL     OW70855   8.091   3.515   6.223
56339SOL    HW170856   8.061   3.456   6.292
56339SOL    HW270857   8.013   3.563   6.197
56340SOL     OW70858  11.920   6.417  10.735
56340SOL    HW170859  11.908   6.354  10.805
56340SOL    HW270860  11.930   6.364  10.656
56341SOL     OW70861  14.142   5.704   1.429
56341SOL    HW170862  14.212   5.672   1.486
56341SOL    HW270863  14.068   5.720   1.489
56342SOL     OW70864   2.827  13.449   4.711
56342SOL    HW170865   2.919  13.470   4.695
56342SOL    HW270866   2.829  13.368   4.762
56343SOL     OW70867   4.784   4.982   4.035
56343SOL    HW170868   4.695   5.017   4.038
56343SOL    HW270869   4.785   4.925   3.958
56344SOL     OW70870  13.255   7.727  13.720
56344SOL    HW170871  13.314   7.738  13.646
56344SOL    HW270872  13.267   7.806  13.772
56345SOL     OW70873   5.270   3.670  11.356
56345SOL    HW170874   5.231   3.610  11.420
56345SOL    HW270875   5.361   3.679  11.384
56346SOL     OW70876  12.007  13.617   8.473
56346SOL    HW170877  12.037  13.554   8.408
56346SOL    HW270878  11.995  13.565   8.553
56347SOL     OW70879   5.703  12.780  10.993
56347SOL    HW170880   5.715  12.747  10.904
56347SOL    HW270881   5.780  12.834  11.010
56348SOL     OW70882   6.054   6.301   0.340
56348SOL    HW170883   6.024   6.275   0.426
56348SOL    HW270884   6.031   6.394   0.333
56349SOL     OW70885   0.659  10.179  12.760
56349SOL    HW170886   0.622  10.152  12.676
56349SOL    HW270887   0.741  10.223  12.737
56350SOL     OW70888   6.226  14.440   9.268
56350SOL    HW170889   6.224  14.512   9.331
56350SOL    HW270890   6.262  14.366   9.317
56351SOL     OW70891   6.492   4.932   0.664
56351SOL    HW170892   6.581   4.910   0.637
56351SOL    HW270893   6.483   5.025   0.646
56352SOL     OW70894  13.686  12.247   7.266
56352SOL    HW170895  13.776  12.271   7.245
56352SOL    HW270896  13.691  12.154   7.290
56353SOL     OW70897   8.467   0.792   2.243
56353SOL    HW170898   8.443   0.706   2.209
56353SOL    HW270899   8.488   0.777   2.335
56354SOL     OW70900   9.216   5.470   5.630
56354SOL    HW170901   9.278   5.412   5.586
56354SOL    HW270902   9.153   5.410   5.670
56355SOL     OW70903  12.543   8.352   4.721
56355SOL    HW170904  12.490   8.285   4.678
56355SOL    HW270905  12.609   8.375   4.656
56356SOL     OW70906   4.117   5.819   3.417
56356SOL    HW170907   4.211   5.834   3.410
56356SOL    HW270908   4.102   5.801   3.510
56357SOL     OW70909   1.970   8.146  14.277
56357SOL    HW170910   2.044   8.181  14.328
56357SOL    HW270911   1.922   8.093  14.340
56358SOL     OW70912  13.837   9.043   9.098
56358SOL    HW170913  13.792   9.088   9.170
56358SOL    HW270914  13.819   8.950   9.113
56359SOL     OW70915   2.126   3.886  12.636
56359SOL    HW170916   2.035   3.899  12.607
56359SOL    HW270917   2.176   3.951  12.588
56360SOL     OW70918  10.697  14.868  11.870
56360SOL    HW170919  10.700   0.075  11.820
56360SOL    HW270920  10.661   0.020  11.955
56361SOL     OW70921   4.859  11.298   9.825
56361SOL    HW170922   4.809  11.345   9.892
56361SOL    HW270923   4.916  11.365   9.787
56362SOL     OW70924   8.984   3.943   7.305
56362SOL    HW170925   9.015   4.033   7.308
56362SOL    HW270926   8.923   3.936   7.378
56363SOL     OW70927   6.819   2.605   5.169
56363SOL    HW170928   6.859   2.691   5.181
56363SOL    HW270929   6.725   2.622   5.168
56364SOL     OW70930  10.035  11.508  11.186
56364SOL    HW170931  10.036  11.554  11.101
56364SOL    HW270932  10.066  11.420  11.166
56365SOL     OW70933   2.577  13.740   8.179
56365SOL    HW170934   2.589  13.738   8.274
56365SOL    HW270935   2.573  13.833   8.157
56366SOL     OW70936   0.212   8.692  12.677
56366SOL    HW170937   0.281   8.720  12.618
56366SOL    HW270938   0.255   8.630  12.736
56367SOL     OW70939   7.813  10.190   2.033
56367SOL    HW170940   7.873  10.228   2.097
56367SOL    HW270941   7.753  10.261   2.010
56368SOL     OW70942  11.495   2.829   5.441
56368SOL    HW170943  11.406   2.863   5.444
56368SOL    HW270944  11.549   2.903   5.412
56369SOL     OW70945   1.342   7.983   9.798
56369SOL    HW170946   1.331   8.024   9.712
56369SOL    HW270947   1.378   7.897   9.779
56370SOL     OW70948   7.223  13.272   4.107
56370SOL    HW170949   7.271  13.241   4.031
56370SOL    HW270950   7.234  13.367   4.105
56371SOL     OW70951   9.204   8.259  13.123
56371SOL    HW170952   9.133   8.197  13.139
56371SOL    HW270953   9.221   8.252  13.029
56372SOL     OW70954  10.753   6.945  13.747
56372SOL    HW170955  10.800   7.020  13.785
56372SOL    HW270956  10.804   6.923  13.668
56373SOL     OW70957   4.604  10.320  14.702
56373SOL    HW170958   4.693  10.354  14.715
56373SOL    HW270959   4.551  10.368  14.766
56374SOL     OW70960  12.387   5.969  10.944
56374SOL    HW170961  12.448   5.980  11.017
56374SOL    HW270962  12.423   5.896  10.893
56375SOL     OW70963   8.138   6.852   5.760
56375SOL    HW170964   8.126   6.760   5.784
56375SOL    HW270965   8.063   6.897   5.799
56376SOL     OW70966   4.702   8.555   1.745
56376SOL    HW170967   4.692   8.598   1.660
56376SOL    HW270968   4.784   8.590   1.781
56377SOL     OW70969   9.416   8.002   6.467
56377SOL    HW170970   9.500   7.957   6.455
56377SOL    HW270971   9.405   8.004   6.562
56378SOL     OW70972   2.058   4.596   8.091
56378SOL    HW170973   2.014   4.518   8.056
56378SOL    HW270974   2.029   4.667   8.033
56379SOL     OW70975   5.962  13.024   5.751
56379SOL    HW170976   5.935  13.001   5.840
56379SOL    HW270977   5.915  12.963   5.694
56380SOL     OW70978  10.935  11.208  11.088
56380SOL    HW170979  10.850  11.193  11.129
56380SOL    HW270980  10.996  11.216  11.162
56381SOL     OW70981   7.450   5.546   4.700
56381SOL    HW170982   7.458   5.470   4.757
56381SOL    HW270983   7.489   5.519   4.617
56382SOL     OW70984   6.393   2.585  11.483
56382SOL    HW170985   6.402   2.498  11.444
56382SOL    HW270986   6.348   2.569  11.566
56383SOL     OW70987   3.776   0.132  13.309
56383SOL    HW170988   3.689   0.152  13.342
56383SOL    HW270989   3.775   0.165  13.219
56384SOL     OW70990  12.625   1.982   6.441
56384SOL    HW170991  12.581   1.930   6.508
56384SOL    HW270992  12.709   2.006   6.479
56385SOL     OW70993  12.135   9.677  12.740
56385SOL    HW170994  12.222   9.639  12.757
56385SOL    HW270995  12.087   9.607  12.695
56386SOL     OW70996   2.740   3.723   5.625
56386SOL    HW170997   2.644   3.725   5.619
56386SOL    HW270998   2.766   3.654   5.565
56387SOL     OW70999   9.482  14.555  11.568
56387SOL    HW171000   9.472  14.539  11.474
56387SOL    HW271001   9.502  14.469  11.604
56388SOL     OW71002   1.889   3.243   8.857
56388SOL    HW171003   1.809   3.259   8.908
56388SOL    HW271004   1.943   3.320   8.872
56389SOL     OW71005  11.071   2.956   8.836
56389SOL    HW171006  11.051   2.901   8.760
56389SOL    HW271007  11.037   3.042   8.812
56390SOL     OW71008   7.581  13.940   0.188
56390SOL    HW171009   7.514  14.007   0.179
56390SOL    HW271010   7.540  13.860   0.158
56391SOL     OW71011  13.636   3.325   2.337
56391SOL    HW171012  13.596   3.302   2.421
56391SOL    HW271013  13.564   3.361   2.285
56392SOL     OW71014   6.101   2.674  14.176
56392SOL    HW171015   6.006   2.666  14.166
56392SOL    HW271016   6.119   2.637  14.263
56393SOL     OW71017   7.888  12.654   8.368
56393SOL    HW171018   7.954  12.693   8.311
56393SOL    HW271019   7.830  12.726   8.390
56394SOL     OW71020   7.082   9.252   8.912
56394SOL    HW171021   7.128   9.333   8.936
56394SOL    HW271022   7.141   9.209   8.850
56395SOL     OW71023   8.707   7.336  11.438
56395SOL    HW171024   8.647   7.402  11.402
56395SOL    HW271025   8.792   7.360  11.402
56396SOL     OW71026   6.517  14.706  11.147
56396SOL    HW171027   6.528  14.729  11.239
56396SOL    HW271028   6.425  14.725  11.128
56397SOL     OW71029  13.794  13.911  13.514
56397SOL    HW171030  13.881  13.898  13.550
56397SOL    HW271031  13.760  13.987  13.561
56398SOL     OW71032  12.620  11.112   8.145
56398SOL    HW171033  12.602  11.101   8.239
56398SOL    HW271034  12.701  11.063   8.130
56399SOL     OW71035   5.135   6.502   9.366
56399SOL    HW171036   5.157   6.591   9.338
56399SOL    HW271037   5.205   6.477   9.425
56400SOL     OW71038   1.568  11.879   5.924
56400SOL    HW171039   1.613  11.809   5.972
56400SOL    HW271040   1.580  11.957   5.979
56401SOL     OW71041  10.025  11.882  13.406
56401SOL    HW171042  10.026  11.947  13.477
56401SOL    HW271043  10.116  11.855  13.396
56402SOL     OW71044  13.258   4.119  12.959
56402SOL    HW171045  13.342   4.096  12.999
56402SOL    HW271046  13.193   4.093  13.024
56403SOL     OW71047  13.290   9.872   1.797
56403SOL    HW171048  13.302   9.844   1.887
56403SOL    HW271049  13.358   9.938   1.783
56404SOL     OW71050   0.956  11.319   0.010
56404SOL    HW171051   1.048  11.295   0.016
56404SOL    HW271052   0.948  11.395   0.068
56405SOL     OW71053   5.863  11.451  11.698
56405SOL    HW171054   5.802  11.516  11.664
56405SOL    HW271055   5.938  11.455  11.638
56406SOL     OW71056   2.455   6.804   9.588
56406SOL    HW171057   2.448   6.899   9.593
56406SOL    HW271058   2.491   6.787   9.501
56407SOL     OW71059  14.256  11.953   8.955
56407SOL    HW171060  14.270  11.969   8.862
56407SOL    HW271061  14.288  12.032   8.998
56408SOL     OW71062   4.206   9.828   9.654
56408SOL    HW171063   4.135   9.891   9.662
56408SOL    HW271064   4.163   9.742   9.661
56409SOL     OW71065   3.786  14.248   7.913
56409SOL    HW171066   3.791  14.339   7.885
56409SOL    HW271067   3.708  14.213   7.870
56410SOL     OW71068   7.170   6.626   3.667
56410SOL    HW171069   7.139   6.634   3.577
56410SOL    HW271070   7.221   6.705   3.682
56411SOL     OW71071  13.852  12.405  11.067
56411SOL    HW171072  13.882  12.369  10.984
56411SOL    HW271073  13.890  12.348  11.134
56412SOL     OW71074  11.801   2.945  11.709
56412SOL    HW171075  11.728   2.964  11.767
56412SOL    HW271076  11.761   2.902  11.633
56413SOL     OW71077  13.667   4.392   3.206
56413SOL    HW171078  13.704   4.381   3.293
56413SOL    HW271079  13.667   4.486   3.191
56414SOL     OW71080  11.263  14.854  11.849
56414SOL    HW171081  11.272  14.859  11.944
56414SOL    HW271082  11.179   0.022  11.830
56415SOL     OW71083   4.304   7.812   4.673
56415SOL    HW171084   4.260   7.896   4.683
56415SOL    HW271085   4.293   7.768   4.757
56416SOL     OW71086  10.194  13.118  10.441
56416SOL    HW171087  10.128  13.071  10.390
56416SOL    HW271088  10.152  13.199  10.467
56417SOL     OW71089   9.166  12.945   5.021
56417SOL    HW171090   9.128  12.859   5.038
56417SOL    HW271091   9.105  13.007   5.061
56418SOL     OW71092   7.925   2.346  13.525
56418SOL    HW171093   8.018   2.361  13.542
56418SOL    HW271094   7.921   2.310  13.437
56419SOL     OW71095   6.173   4.425   9.622
56419SOL    HW171096   6.266   4.405   9.624
56419SOL    HW271097   6.166   4.500   9.562
56420SOL     OW71098   9.389  10.032   1.252
56420SOL    HW171099   9.462  10.001   1.305
56420SOL    HW271100   9.311   9.994   1.293
56421SOL     OW71101   1.844   2.579   8.665
56421SOL    HW171102   1.921   2.623   8.631
56421SOL    HW271103   1.800   2.645   8.719
56422SOL     OW71104   3.969   2.322   2.054
56422SOL    HW171105   3.905   2.393   2.049
56422SOL    HW271106   4.044   2.354   2.003
56423SOL     OW71107  13.459   3.800  10.502
56423SOL    HW171108  13.406   3.872  10.533
56423SOL    HW271109  13.474   3.819  10.409
56424SOL     OW71110  10.723   6.803   3.007
56424SOL    HW171111  10.696   6.856   3.082
56424SOL    HW271112  10.747   6.719   3.046
56425SOL     OW71113   3.676  12.337  12.649
56425SOL    HW171114   3.706  12.253  12.684
56425SOL    HW271115   3.736  12.401  12.686
56426SOL     OW71116   4.402   9.971  10.780
56426SOL    HW171117   4.483  10.008  10.816
56426SOL    HW271118   4.357   9.934  10.856
56427SOL     OW71119  10.912  11.152  11.812
56427SOL    HW171120  10.844  11.184  11.870
56427SOL    HW271121  10.874  11.157  11.724
56428SOL     OW71122   2.491  12.221  12.825
56428SOL    HW171123   2.582  12.205  12.848
56428SOL    HW271124   2.494  12.260  12.737
56429SOL     OW71125   2.481   4.315   5.875
56429SOL    HW171126   2.560   4.315   5.928
56429SOL    HW271127   2.491   4.241   5.816
56430SOL     OW71128   4.099  11.097   4.742
56430SOL    HW171129   4.161  11.114   4.671
56430SOL    HW271130   4.023  11.059   4.699
56431SOL     OW71131  12.420  11.400  12.199
56431SOL    HW171132  12.334  11.379  12.161
56431SOL    HW271133  12.426  11.344  12.276
56432SOL     OW71134   4.915   1.948   8.184
56432SOL    HW171135   4.889   1.856   8.181
56432SOL    HW271136   4.961   1.957   8.268
56433SOL     OW71137   7.890   8.455   9.772
56433SOL    HW171138   7.923   8.390   9.834
56433SOL    HW271139   7.806   8.420   9.743
56434SOL     OW71140   5.108   3.589   8.420
56434SOL    HW171141   5.045   3.643   8.374
56434SOL    HW271142   5.084   3.499   8.397
56435SOL     OW71143   3.312   5.408   6.208
56435SOL    HW171144   3.284   5.463   6.281
56435SOL    HW271145   3.277   5.451   6.130
56436SOL     OW71146   3.694  11.363  10.980
56436SOL    HW171147   3.600  11.379  10.986
56436SOL    HW271148   3.713  11.304  11.052
56437SOL     OW71149  13.961   3.198   1.022
56437SOL    HW171150  13.897   3.175   0.955
56437SOL    HW271151  13.909   3.209   1.102
56438SOL     OW71152   0.275   4.701   5.038
56438SOL    HW171153   0.195   4.732   5.080
56438SOL    HW271154   0.343   4.764   5.065
56439SOL     OW71155  10.822  14.189   1.113
56439SOL    HW171156  10.891  14.138   1.069
56439SOL    HW271157  10.740  14.156   1.077
56440SOL     OW71158   8.762  11.867   7.721
56440SOL    HW171159   8.734  11.796   7.663
56440SOL    HW271160   8.698  11.866   7.792
56441SOL     OW71161  10.495  12.489   6.303
56441SOL    HW171162  10.493  12.514   6.210
56441SOL    HW271163  10.493  12.572   6.350
56442SOL     OW71164  11.251   3.842  11.510
56442SOL    HW171165  11.202   3.895  11.573
56442SOL    HW271166  11.342   3.851  11.538
56443SOL     OW71167   7.585   2.051   8.198
56443SOL    HW171168   7.543   2.111   8.260
56443SOL    HW271169   7.573   2.093   8.113
56444SOL     OW71170   6.369   3.217   0.973
56444SOL    HW171171   6.287   3.168   0.963
56444SOL    HW271172   6.372   3.275   0.897
56445SOL     OW71173   6.469   6.300   9.454
56445SOL    HW171174   6.519   6.232   9.408
56445SOL    HW271175   6.515   6.381   9.434
56446SOL     OW71176   0.117   0.441   4.631
56446SOL    HW171177   0.109   0.500   4.556
56446SOL    HW271178   0.211   0.440   4.651
56447SOL     OW71179  14.042   4.855   1.387
56447SOL    HW171180  14.084   4.891   1.465
56447SOL    HW271181  13.949   4.874   1.399
56448SOL     OW71182   3.282  12.183  12.843
56448SOL    HW171183   3.266  12.277  12.840
56448SOL    HW271184   3.376  12.174  12.824
56449SOL     OW71185   5.449  12.000   4.745
56449SOL    HW171186   5.374  11.945   4.725
56449SOL    HW271187   5.451  12.065   4.674
56450SOL     OW71188  11.110   6.640   4.486
56450SOL    HW171189  11.130   6.696   4.411
56450SOL    HW271190  11.190   6.590   4.500
56451SOL     OW71191   0.009   6.529  14.463
56451SOL    HW171192  14.860   6.512  14.554
56451SOL    HW271193   0.016   6.442  14.423
56452SOL     OW71194  13.591  12.142   8.245
56452SOL    HW171195  13.664  12.105   8.195
56452SOL    HW271196  13.571  12.076   8.312
56453SOL     OW71197  10.598   2.836   7.858
56453SOL    HW171198  10.522   2.882   7.823
56453SOL    HW271199  10.601   2.859   7.950
56454SOL     OW71200   3.669   8.795   2.972
56454SOL    HW171201   3.718   8.740   3.033
56454SOL    HW271202   3.611   8.847   3.028
56455SOL     OW71203   5.256  12.104   0.089
56455SOL    HW171204   5.196  12.102   0.164
56455SOL    HW271205   5.340  12.077   0.126
56456SOL     OW71206   4.089   0.936   3.093
56456SOL    HW171207   4.182   0.930   3.114
56456SOL    HW271208   4.051   0.857   3.131
56457SOL     OW71209  10.964   1.535   1.046
56457SOL    HW171210  10.921   1.473   0.986
56457SOL    HW271211  11.039   1.567   0.997
56458SOL     OW71212   7.807  12.043   9.292
56458SOL    HW171213   7.893  12.054   9.333
56458SOL    HW271214   7.807  12.105   9.219
56459SOL     OW71215   5.527   2.090   2.984
56459SOL    HW171216   5.578   2.011   2.966
56459SOL    HW271217   5.591   2.151   3.020
56460SOL     OW71218  12.830   0.301   2.664
56460SOL    HW171219  12.797   0.269   2.580
56460SOL    HW271220  12.897   0.238   2.690
56461SOL     OW71221   5.460   4.818   2.297
56461SOL    HW171222   5.372   4.782   2.297
56461SOL    HW271223   5.478   4.841   2.388
56462SOL     OW71224   7.478   3.355  12.264
56462SOL    HW171225   7.439   3.299  12.196
56462SOL    HW271226   7.429   3.333  12.344
56463SOL     OW71227   8.525   5.725  11.052
56463SOL    HW171228   8.596   5.775  11.012
56463SOL    HW271229   8.491   5.672  10.981
56464SOL     OW71230  12.204  12.978   4.106
56464SOL    HW171231  12.262  13.025   4.045
56464SOL    HW271232  12.249  12.984   4.190
56465SOL     OW71233  11.633   7.035  12.277
56465SOL    HW171234  11.547   7.038  12.318
56465SOL    HW271235  11.630   7.102  12.209
56466SOL     OW71236  13.169  13.399   5.660
56466SOL    HW171237  13.123  13.374   5.580
56466SOL    HW271238  13.115  13.364   5.731
56467SOL     OW71239   6.296   6.581  10.196
56467SOL    HW171240   6.368   6.542  10.246
56467SOL    HW271241   6.337   6.609  10.114
56468SOL     OW71242  13.585   4.615   1.873
56468SOL    HW171243  13.672   4.606   1.911
56468SOL    HW271244  13.525   4.594   1.945
56469SOL     OW71245   4.314   3.698   2.077
56469SOL    HW171246   4.240   3.645   2.049
56469SOL    HW271247   4.282   3.788   2.072
56470SOL     OW71248   5.577   8.314   3.236
56470SOL    HW171249   5.490   8.332   3.199
56470SOL    HW271250   5.611   8.400   3.261
56471SOL     OW71251  14.500  12.623   9.713
56471SOL    HW171252  14.428  12.679   9.683
56471SOL    HW271253  14.562  12.684   9.755
56472SOL     OW71254   3.333  13.607  14.549
56472SOL    HW171255   3.411  13.628  14.498
56472SOL    HW271256   3.339  13.512  14.564
56473SOL     OW71257  13.686   4.271  12.503
56473SOL    HW171258  13.628   4.223  12.444
56473SOL    HW271259  13.643   4.355  12.516
56474SOL     OW71260   1.160  10.400   0.244
56474SOL    HW171261   1.219  10.472   0.223
56474SOL    HW271262   1.217  10.330   0.277
56475SOL     OW71263   5.541  14.392  10.538
56475SOL    HW171264   5.550  14.297  10.539
56475SOL    HW271265   5.523  14.415  10.629
56476SOL     OW71266   8.633   3.318   1.947
56476SOL    HW171267   8.629   3.229   1.981
56476SOL    HW271268   8.719   3.350   1.975
56477SOL     OW71269   8.442   7.584   9.101
56477SOL    HW171270   8.398   7.666   9.082
56477SOL    HW271271   8.430   7.531   9.021
56478SOL     OW71272   5.110   0.754  12.984
56478SOL    HW171273   5.074   0.690  12.923
56478SOL    HW271274   5.203   0.759  12.961
56479SOL     OW71275   7.333  13.507   6.333
56479SOL    HW171276   7.399  13.449   6.371
56479SOL    HW271277   7.252  13.456   6.335
56480SOL     OW71278   1.560   9.402   4.587
56480SOL    HW171279   1.562   9.424   4.494
56480SOL    HW271280   1.609   9.472   4.630
56481SOL     OW71281  13.419  12.942  10.973
56481SOL    HW171282  13.427  12.891  11.054
56481SOL    HW271283  13.333  12.983  10.979
56482SOL     OW71284  12.339  13.919   9.341
56482SOL    HW171285  12.299  13.867   9.410
56482SOL    HW271286  12.302  13.885   9.260
56483SOL     OW71287   0.499   4.492   1.828
56483SOL    HW171288   0.558   4.419   1.846
56483SOL    HW271289   0.417   4.451   1.801
56484SOL     OW71290  12.369   1.512   5.175
56484SOL    HW171291  12.379   1.418   5.165
56484SOL    HW271292  12.370   1.547   5.086
56485SOL     OW71293  11.509  14.510  10.714
56485SOL    HW171294  11.459  14.444  10.762
56485SOL    HW271295  11.592  14.467  10.694
56486SOL     OW71296   1.960  14.180   4.912
56486SOL    HW171297   2.035  14.167   4.971
56486SOL    HW271298   1.883  14.162   4.966
56487SOL     OW71299  14.711   7.368  10.317
56487SOL    HW171300  14.804   7.377  10.296
56487SOL    HW271301  14.684   7.456  10.343
56488SOL     OW71302   3.441  14.240   7.079
56488SOL    HW171303   3.367  14.218   7.023
56488SOL    HW271304   3.514  14.189   7.042
56489SOL     OW71305  13.821  11.196   2.746
56489SOL    HW171306  13.770  11.237   2.816
56489SOL    HW271307  13.859  11.269   2.698
56490SOL     OW71308   7.621   2.779   2.900
56490SOL    HW171309   7.531   2.751   2.921
56490SOL    HW271310   7.654   2.710   2.843
56491SOL     OW71311   4.357   7.674  13.346
56491SOL    HW171312   4.284   7.678  13.408
56491SOL    HW271313   4.435   7.686  13.399
56492SOL     OW71314   8.475   4.173   3.179
56492SOL    HW171315   8.470   4.245   3.116
56492SOL    HW271316   8.401   4.187   3.239
56493SOL     OW71317   4.523  14.833  12.783
56493SOL    HW171318   4.611  14.800  12.762
56493SOL    HW271319   4.516   0.040  12.732
56494SOL     OW71320   8.660   6.018   7.581
56494SOL    HW171321   8.753   6.038   7.589
56494SOL    HW271322   8.631   6.001   7.671
56495SOL     OW71323   7.439   5.043   8.981
56495SOL    HW171324   7.469   4.967   9.031
56495SOL    HW271325   7.508   5.058   8.917
56496SOL     OW71326   5.352  10.674   3.526
56496SOL    HW171327   5.260  10.648   3.531
56496SOL    HW271328   5.388  10.620   3.456
56497SOL     OW71329  10.915   9.327   7.972
56497SOL    HW171330  10.824   9.356   7.964
56497SOL    HW271331  10.943   9.310   7.882
56498SOL     OW71332   3.903   2.662   8.659
56498SOL    HW171333   3.857   2.632   8.580
56498SOL    HW271334   3.851   2.625   8.731
56499SOL     OW71335   2.084   4.961   2.265
56499SOL    HW171336   2.028   4.911   2.324
56499SOL    HW271337   2.144   5.008   2.323
56500SOL     OW71338   6.364  10.111  14.301
56500SOL    HW171339   6.414  10.192  14.301
56500SOL    HW271340   6.426  10.043  14.275
56501SOL     OW71341  10.770   9.885  14.039
56501SOL    HW171342  10.781   9.967  13.990
56501SOL    HW271343  10.717   9.909  14.114
56502SOL     OW71344   3.322   6.415  12.925
56502SOL    HW171345   3.349   6.416  12.834
56502SOL    HW271346   3.399   6.447  12.973
56503SOL     OW71347  12.753  12.479   6.559
56503SOL    HW171348  12.788  12.394   6.531
56503SOL    HW271349  12.691  12.503   6.491
56504SOL     OW71350   7.320   8.429  13.375
56504SOL    HW171351   7.246   8.432  13.436
56504SOL    HW271352   7.397   8.418  13.430
56505SOL     OW71353   8.986   2.229  14.370
56505SOL    HW171354   8.953   2.195  14.286
56505SOL    HW271355   9.045   2.161  14.402
56506SOL     OW71356   1.229   1.225  14.035
56506SOL    HW171357   1.293   1.283  13.994
56506SOL    HW271358   1.147   1.275  14.033
56507SOL     OW71359   0.276   2.503  11.592
56507SOL    HW171360   0.213   2.524  11.661
56507SOL    HW271361   0.306   2.588  11.560
56508SOL     OW71362   5.343   5.201   2.750
56508SOL    HW171363   5.279   5.183   2.818
56508SOL    HW271364   5.291   5.232   2.676
56509SOL     OW71365  14.762   6.682  13.166
56509SOL    HW171366  14.737   6.591  13.183
56509SOL    HW271367  14.845   6.675  13.118
56510SOL     OW71368  10.428  14.371   2.487
56510SOL    HW171369  10.358  14.354   2.424
56510SOL    HW271370  10.387  14.425   2.554
56511SOL     OW71371  10.057  10.453   3.560
56511SOL    HW171372  10.038  10.527   3.502
56511SOL    HW271373   9.988  10.389   3.541
56512SOL     OW71374   8.701  13.759   8.049
56512SOL    HW171375   8.652  13.706   7.986
56512SOL    HW271376   8.682  13.720   8.134
56513SOL     OW71377   8.015  10.410  10.852
56513SOL    HW171378   7.952  10.361  10.799
56513SOL    HW271379   8.036  10.487  10.800
56514SOL     OW71380  11.760   3.884   0.283
56514SOL    HW171381  11.776   3.960   0.227
56514SOL    HW271382  11.691   3.911   0.342
56515SOL     OW71383   9.025   7.372   9.586
56515SOL    HW171384   9.038   7.365   9.491
56515SOL    HW271385   9.012   7.465   9.601
56516SOL     OW71386   7.976   4.269  11.882
56516SOL    HW171387   8.024   4.190  11.857
56516SOL    HW271388   8.043   4.337  11.891
56517SOL     OW71389   9.283   0.395  12.279
56517SOL    HW171390   9.351   0.439  12.330
56517SOL    HW271391   9.206   0.452  12.287
56518SOL     OW71392  14.327   2.291   9.652
56518SOL    HW171393  14.328   2.326   9.741
56518SOL    HW271394  14.411   2.246   9.642
56519SOL     OW71395   3.027   7.588  12.339
56519SOL    HW171396   3.118   7.600  12.313
56519SOL    HW271397   3.022   7.623  12.428
56520SOL     OW71398   3.051   3.081  12.051
56520SOL    HW171399   2.967   3.041  12.075
56520SOL    HW271400   3.110   3.058  12.123
56521SOL     OW71401   2.138   4.145   0.744
56521SOL    HW171402   2.199   4.169   0.675
56521SOL    HW271403   2.059   4.116   0.698
56522SOL     OW71404   2.091  14.464  11.204
56522SOL    HW171405   2.163  14.401  11.211
56522SOL    HW271406   2.095  14.495  11.114
56523SOL     OW71407  14.824   4.567  12.769
56523SOL    HW171408   0.015   4.547  12.701
56523SOL    HW271409  14.842   4.503  12.838
56524SOL     OW71410   9.772   5.762   3.596
56524SOL    HW171411   9.801   5.744   3.507
56524SOL    HW271412   9.714   5.838   3.587
56525SOL     OW71413   9.023   9.648   9.046
56525SOL    HW171414   8.997   9.573   8.992
56525SOL    HW271415   8.976   9.635   9.129
56526SOL     OW71416   4.490  10.044   7.135
56526SOL    HW171417   4.504   9.984   7.209
56526SOL    HW271418   4.512   9.992   7.058
56527SOL     OW71419   3.681  10.993   0.437
56527SOL    HW171420   3.622  10.986   0.512
56527SOL    HW271421   3.623  11.004   0.362
56528SOL     OW71422   0.097   2.148   5.213
56528SOL    HW171423   0.086   2.228   5.264
56528SOL    HW271424   0.067   2.078   5.272
56529SOL     OW71425   9.096   6.765   7.029
56529SOL    HW171426   9.172   6.823   7.030
56529SOL    HW271427   9.048   6.786   7.109
56530SOL     OW71428  14.861   2.974  10.666
56530SOL    HW171429  14.770   2.961  10.641
56530SOL    HW271430   0.003   3.067  10.650
56531SOL     OW71431   8.480   2.203   8.498
56531SOL    HW171432   8.395   2.245   8.489
56531SOL    HW271433   8.518   2.207   8.410
56532SOL     OW71434  14.413  14.803   7.034
56532SOL    HW171435  14.376   0.002   6.985
56532SOL    HW271436  14.442  14.741   6.967
56533SOL     OW71437   6.834   6.986   5.168
56533SOL    HW171438   6.779   7.055   5.208
56533SOL    HW271439   6.774   6.939   5.110
56534SOL     OW71440   6.252   6.077  14.680
56534SOL    HW171441   6.284   6.144  14.620
56534SOL    HW271442   6.273   5.994  14.637
56535SOL     OW71443  11.606  12.947   0.653
56535SOL    HW171444  11.651  13.004   0.716
56535SOL    HW271445  11.613  12.993   0.570
56536SOL     OW71446   5.466   2.142   4.617
56536SOL    HW171447   5.518   2.222   4.605
56536SOL    HW271448   5.421   2.129   4.534
56537SOL     OW71449   1.704   9.831   4.724
56537SOL    HW171450   1.734   9.741   4.734
56537SOL    HW271451   1.725   9.873   4.808
56538SOL     OW71452   7.668   2.603   0.900
56538SOL    HW171453   7.757   2.590   0.931
56538SOL    HW271454   7.669   2.691   0.861
56539SOL     OW71455   7.880  10.516   8.812
56539SOL    HW171456   7.845  10.592   8.764
56539SOL    HW271457   7.912  10.457   8.744
56540SOL     OW71458   2.493   4.611   6.766
56540SOL    HW171459   2.416   4.666   6.753
56540SOL    HW271460   2.509   4.615   6.861
56541SOL     OW71461  11.371   0.327  14.391
56541SOL    HW171462  11.278   0.324  14.414
56541SOL    HW271463  11.384   0.254  14.331
56542SOL     OW71464   7.615   5.993   4.669
56542SOL    HW171465   7.529   5.967   4.637
56542SOL    HW271466   7.656   5.911   4.696
56543SOL     OW71467   9.146  13.250   7.549
56543SOL    HW171468   9.134  13.164   7.510
56543SOL    HW271469   9.215  13.291   7.497
56544SOL     OW71470   5.354   4.067   5.129
56544SOL    HW171471   5.355   3.975   5.101
56544SOL    HW271472   5.309   4.066   5.213
56545SOL     OW71473  10.861   1.837   7.491
56545SOL    HW171474  10.850   1.765   7.430
56545SOL    HW271475  10.948   1.824   7.529
56546SOL     OW71476   7.230  10.972   4.255
56546SOL    HW171477   7.307  10.995   4.202
56546SOL    HW271478   7.236  10.877   4.266
56547SOL     OW71479   7.398   5.644   6.373
56547SOL    HW171480   7.322   5.635   6.315
56547SOL    HW271481   7.457   5.573   6.346
56548SOL     OW71482  10.344   4.908   9.170
56548SOL    HW171483  10.263   4.860   9.184
56548SOL    HW271484  10.339   4.936   9.078
56549SOL     OW71485   2.532  10.025   2.697
56549SOL    HW171486   2.537  10.097   2.633
56549SOL    HW271487   2.592  10.051   2.767
56550SOL     OW71488  12.435   5.807   8.143
56550SOL    HW171489  12.494   5.788   8.216
56550SOL    HW271490  12.457   5.896   8.116
56551SOL     OW71491   0.244   7.455   3.606
56551SOL    HW171492   0.308   7.398   3.564
56551SOL    HW271493   0.294   7.534   3.630
56552SOL     OW71494  10.020   9.886  12.343
56552SOL    HW171495  10.002   9.945  12.416
56552SOL    HW271496  10.099   9.922  12.302
56553SOL     OW71497   3.220   5.638   6.027
56553SOL    HW171498   3.297   5.633   5.970
56553SOL    HW271499   3.236   5.714   6.083
56554SOL     OW71500  13.858   8.470   6.399
56554SOL    HW171501  13.852   8.538   6.466
56554SOL    HW271502  13.945   8.481   6.361
56555SOL     OW71503  14.679  13.233   7.547
56555SOL    HW171504  14.626  13.191   7.479
56555SOL    HW271505  14.615  13.263   7.611
56556SOL     OW71506  10.747   4.505   0.809
56556SOL    HW171507  10.800   4.448   0.865
56556SOL    HW271508  10.657   4.489   0.837
56557SOL     OW71509   2.338  14.683   6.212
56557SOL    HW171510   2.354  14.644   6.125
56557SOL    HW271511   2.275  14.753   6.196
56558SOL     OW71512  13.647   9.733   5.077
56558SOL    HW171513  13.683   9.753   4.990
56558SOL    HW271514  13.554   9.714   5.060
56559SOL     OW71515   9.797   3.945   5.217
56559SOL    HW171516   9.829   3.887   5.286
56559SOL    HW271517   9.706   3.964   5.242
56560SOL     OW71518  12.053   7.609   6.548
56560SOL    HW171519  12.109   7.534   6.528
56560SOL    HW271520  12.068   7.671   6.476
56561SOL     OW71521  13.112  13.840   6.930
56561SOL    HW171522  13.109  13.928   6.893
56561SOL    HW271523  13.119  13.853   7.025
56562SOL     OW71524   5.424   0.200   0.962
56562SOL    HW171525   5.342   0.231   0.923
56562SOL    HW271526   5.398   0.131   1.023
56563SOL     OW71527   4.955   4.644   2.321
56563SOL    HW171528   4.899   4.583   2.368
56563SOL    HW271529   4.976   4.712   2.385
56564SOL     OW71530   4.982   0.458  14.252
56564SOL    HW171531   5.007   0.536  14.204
56564SOL    HW271532   5.047   0.451  14.322
56565SOL     OW71533   4.226   4.661  12.845
56565SOL    HW171534   4.167   4.600  12.801
56565SOL    HW271535   4.197   4.661  12.937
56566SOL     OW71536  13.940   0.413  11.708
56566SOL    HW171537  13.940   0.416  11.804
56566SOL    HW271538  13.975   0.498  11.681
56567SOL     OW71539   0.518   6.445  10.421
56567SOL    HW171540   0.575   6.371  10.398
56567SOL    HW271541   0.577   6.507  10.465
56568SOL     OW71542  10.156   6.956   2.041
56568SOL    HW171543  10.242   6.970   2.002
56568SOL    HW271544  10.100   6.931   1.967
56569SOL     OW71545   2.670   9.051   4.691
56569SOL    HW171546   2.763   9.030   4.679
56569SOL    HW271547   2.657   9.134   4.646
56570SOL     OW71548  12.920   4.714   4.819
56570SOL    HW171549  12.918   4.654   4.894
56570SOL    HW271550  12.906   4.801   4.857
56571SOL     OW71551  11.408   9.368   5.125
56571SOL    HW171552  11.401   9.448   5.177
56571SOL    HW271553  11.318   9.351   5.096
56572SOL     OW71554  14.765   9.291   6.668
56572SOL    HW171555  14.696   9.349   6.635
56572SOL    HW271556  14.826   9.350   6.713
56573SOL     OW71557   1.318   1.936   1.150
56573SOL    HW171558   1.243   1.878   1.160
56573SOL    HW271559   1.325   1.950   1.056
56574SOL     OW71560   9.538   5.710   2.998
56574SOL    HW171561   9.575   5.794   3.024
56574SOL    HW271562   9.605   5.670   2.942
56575SOL     OW71563   2.191   2.453  14.257
56575SOL    HW171564   2.151   2.540  14.256
56575SOL    HW271565   2.181   2.423  14.347
56576SOL     OW71566  12.771   5.983   5.339
56576SOL    HW171567  12.723   5.904   5.314
56576SOL    HW271568  12.804   6.019   5.257
56577SOL     OW71569  14.381  11.692   3.676
56577SOL    HW171570  14.320  11.714   3.605
56577SOL    HW271571  14.342  11.732   3.754
56578SOL     OW71572   0.568  13.652  11.649
56578SOL    HW171573   0.659  13.626  11.659
56578SOL    HW271574   0.547  13.699  11.730
56579SOL     OW71575   2.133  10.254  11.798
56579SOL    HW171576   2.177  10.197  11.862
56579SOL    HW271577   2.040  10.246  11.819
56580SOL     OW71578  10.647   4.379   4.663
56580SOL    HW171579  10.563   4.387   4.707
56580SOL    HW271580  10.627   4.390   4.570
56581SOL     OW71581   1.658   0.524  10.855
56581SOL    HW171582   1.728   0.475  10.812
56581SOL    HW271583   1.703   0.576  10.922
56582SOL     OW71584   8.099   0.136   2.778
56582SOL    HW171585   8.052   0.074   2.833
56582SOL    HW271586   8.154   0.081   2.721
56583SOL     OW71587  10.798   8.165   4.199
56583SOL    HW171588  10.857   8.152   4.126
56583SOL    HW271589  10.839   8.235   4.251
56584SOL     OW71590   4.540   5.861   2.102
56584SOL    HW171591   4.549   5.765   2.098
56584SOL    HW271592   4.629   5.893   2.113
56585SOL     OW71593  10.424   1.436  13.576
56585SOL    HW171594  10.469   1.515  13.605
56585SOL    HW271595  10.479   1.401  13.506
56586SOL     OW71596   3.014   4.455   5.158
56586SOL    HW171597   3.106   4.481   5.160
56586SOL    HW271598   2.965   4.537   5.152
56587SOL     OW71599   1.627  13.385   7.619
56587SOL    HW171600   1.619  13.475   7.586
56587SOL    HW271601   1.700  13.348   7.570
56588SOL     OW71602   6.701   0.367   9.366
56588SOL    HW171603   6.656   0.284   9.379
56588SOL    HW271604   6.782   0.344   9.320
56589SOL     OW71605   1.051   4.860   8.159
56589SOL    HW171606   1.004   4.789   8.205
56589SOL    HW271607   1.072   4.923   8.227
56590SOL     OW71608   7.492  11.765   0.780
56590SOL    HW171609   7.439  11.845   0.772
56590SOL    HW271610   7.444  11.700   0.729
56591SOL     OW71611   7.949  11.010   2.736
56591SOL    HW171612   7.936  11.083   2.796
56591SOL    HW271613   8.032  11.030   2.692
56592SOL     OW71614   0.802   1.646  12.735
56592SOL    HW171615   0.868   1.714  12.737
56592SOL    HW271616   0.811   1.605  12.648
56593SOL     OW71617  13.991   6.540   6.624
56593SOL    HW171618  14.036   6.602   6.682
56593SOL    HW271619  13.917   6.590   6.589
56594SOL     OW71620  12.709  13.024   2.052
56594SOL    HW171621  12.791  13.021   2.102
56594SOL    HW271622  12.734  13.064   1.969
56595SOL     OW71623   8.461   6.650   2.638
56595SOL    HW171624   8.445   6.605   2.555
56595SOL    HW271625   8.374   6.682   2.665
56596SOL     OW71626   3.236   7.792   5.403
56596SOL    HW171627   3.259   7.884   5.390
56596SOL    HW271628   3.182   7.770   5.327
56597SOL     OW71629   4.333   0.888   4.393
56597SOL    HW171630   4.384   0.866   4.314
56597SOL    HW271631   4.248   0.846   4.379
56598SOL     OW71632   9.960   3.589   8.249
56598SOL    HW171633  10.008   3.672   8.250
56598SOL    HW271634  10.021   3.525   8.286
56599SOL     OW71635   4.601   3.780  14.592
56599SOL    HW171636   4.529   3.719  14.572
56599SOL    HW271637   4.568   3.834  14.663
56600SOL     OW71638   0.399   9.470  12.424
56600SOL    HW171639   0.447   9.521  12.489
56600SOL    HW271640   0.448   9.484  12.343
56601SOL     OW71641   4.516   4.311   0.871
56601SOL    HW171642   4.441   4.262   0.837
56601SOL    HW271643   4.593   4.267   0.834
56602SOL     OW71644   5.944   6.756  11.877
56602SOL    HW171645   5.970   6.820  11.944
56602SOL    HW271646   6.024   6.708  11.858
56603SOL     OW71647   2.486   9.896   7.300
56603SOL    HW171648   2.399   9.881   7.263
56603SOL    HW271649   2.536   9.817   7.277
56604SOL     OW71650   6.281  12.253   4.901
56604SOL    HW171651   6.283  12.237   4.807
56604SOL    HW271652   6.291  12.347   4.910
56605SOL     OW71653  10.267  14.799   7.843
56605SOL    HW171654  10.250  14.705   7.848
56605SOL    HW271655  10.180  14.838   7.830
56606SOL     OW71656  10.532   3.433  11.473
56606SOL    HW171657  10.468   3.364  11.489
56606SOL    HW271658  10.495   3.483  11.399
56607SOL     OW71659   0.728   9.213   3.895
56607SOL    HW171660   0.817   9.241   3.874
56607SOL    HW271661   0.706   9.259   3.975
56608SOL     OW71662   2.770   6.773  13.743
56608SOL    HW171663   2.863   6.790  13.731
56608SOL    HW271664   2.735   6.765  13.654
56609SOL     OW71665   2.061   1.278  11.800
56609SOL    HW171666   2.019   1.341  11.742
56609SOL    HW271667   2.130   1.328  11.843
56610SOL     OW71668   7.024   5.336   8.893
56610SOL    HW171669   7.026   5.394   8.817
56610SOL    HW271670   7.110   5.346   8.933
56611SOL     OW71671   8.274  12.918  11.486
56611SOL    HW171672   8.286  13.012  11.474
56611SOL    HW271673   8.179  12.906  11.488
56612SOL     OW71674  13.991   1.029   9.788
56612SOL    HW171675  13.995   0.967   9.860
56612SOL    HW271676  14.067   1.086   9.801
56613SOL     OW71677  10.205   2.410  13.807
56613SOL    HW171678  10.224   2.380  13.718
56613SOL    HW271679  10.271   2.366  13.861
56614SOL     OW71680  12.415   5.017  10.689
56614SOL    HW171681  12.407   4.971  10.606
56614SOL    HW271682  12.451   5.103  10.666
56615SOL     OW71683   3.177   2.346   6.290
56615SOL    HW171684   3.195   2.370   6.381
56615SOL    HW271685   3.249   2.286   6.267
56616SOL     OW71686   9.755   6.806  11.308
56616SOL    HW171687   9.849   6.823  11.320
56616SOL    HW271688   9.734   6.739  11.372
56617SOL     OW71689   4.190   4.083   8.235
56617SOL    HW171690   4.170   4.091   8.142
56617SOL    HW271691   4.145   4.157   8.276
56618SOL     OW71692   8.013   3.925  12.343
56618SOL    HW171693   7.961   3.847  12.363
56618SOL    HW271694   7.962   3.998  12.377
56619SOL     OW71695   8.368  10.577   5.561
56619SOL    HW171696   8.339  10.504   5.507
56619SOL    HW271697   8.316  10.571   5.641
56620SOL     OW71698   3.208  12.855  11.253
56620SOL    HW171699   3.284  12.906  11.281
56620SOL    HW271700   3.136  12.886  11.308
56621SOL     OW71701  14.621   3.412   9.936
56621SOL    HW171702  14.618   3.323   9.903
56621SOL    HW271703  14.714   3.433   9.944
56622SOL     OW71704  12.854   4.689   1.423
56622SOL    HW171705  12.945   4.687   1.392
56622SOL    HW271706  12.817   4.767   1.383
56623SOL     OW71707   6.405  14.140   5.687
56623SOL    HW171708   6.346  14.065   5.694
56623SOL    HW271709   6.493  14.103   5.700
56624SOL     OW71710   9.925   7.285   1.617
56624SOL    HW171711   9.913   7.206   1.670
56624SOL    HW271712  10.016   7.280   1.589
56625SOL     OW71713   3.743   7.792  12.194
56625SOL    HW171714   3.786   7.707  12.204
56625SOL    HW271715   3.813   7.855  12.203
56626SOL     OW71716   0.369   7.608   3.884
56626SOL    HW171717   0.462   7.605   3.904
56626SOL    HW271718   0.336   7.522   3.912
56627SOL     OW71719  12.767   6.403   7.989
56627SOL    HW171720  12.830   6.467   7.958
56627SOL    HW271721  12.706   6.392   7.915
56628SOL     OW71722   2.246   6.431   0.129
56628SOL    HW171723   2.192   6.411   0.053
56628SOL    HW271724   2.319   6.482   0.094
56629SOL     OW71725  10.925  13.931   7.763
56629SOL    HW171726  10.885  13.854   7.804
56629SOL    HW271727  10.908  14.002   7.825
56630SOL     OW71728   0.258   2.822  13.577
56630SOL    HW171729   0.212   2.865  13.649
56630SOL    HW271730   0.349   2.848  13.589
56631SOL     OW71731   9.282   0.307  12.029
56631SOL    HW171732   9.275   0.344  12.117
56631SOL    HW271733   9.199   0.328  11.987
56632SOL     OW71734   4.616   3.549  12.831
56632SOL    HW171735   4.677   3.531  12.760
56632SOL    HW271736   4.665   3.606  12.891
56633SOL     OW71737   5.214  12.077   2.997
56633SOL    HW171738   5.185  12.139   2.929
56633SOL    HW271739   5.308  12.095   3.007
56634SOL     OW71740  11.168   5.543  11.119
56634SOL    HW171741  11.202   5.491  11.192
56634SOL    HW271742  11.101   5.598  11.158
56635SOL     OW71743   4.530  13.804  14.529
56635SOL    HW171744   4.574  13.828  14.448
56635SOL    HW271745   4.600  13.770  14.585
56636SOL     OW71746   3.718   1.857  10.830
56636SOL    HW171747   3.735   1.874  10.922
56636SOL    HW271748   3.712   1.944  10.790
56637SOL     OW71749  13.881   2.773   8.533
56637SOL    HW171750  13.902   2.765   8.440
56637SOL    HW271751  13.799   2.823   8.534
56638SOL     OW71752   8.870   0.821  13.727
56638SOL    HW171753   8.941   0.884  13.734
56638SOL    HW271754   8.818   0.851  13.652
56639SOL     OW71755  13.761  10.802   5.067
56639SOL    HW171756  13.810  10.742   5.010
56639SOL    HW271757  13.828  10.839   5.125
56640SOL     OW71758   8.085  14.870   7.660
56640SOL    HW171759   8.057  14.807   7.726
56640SOL    HW271760   8.086   0.080   7.706
56641SOL     OW71761  13.735  12.177   8.773
56641SOL    HW171762  13.800  12.216   8.832
56641SOL    HW271763  13.712  12.094   8.816
56642SOL     OW71764  14.314   5.507  11.098
56642SOL    HW171765  14.266   5.519  11.180
56642SOL    HW271766  14.245   5.496  11.031
56643SOL     OW71767  10.431   1.364  10.949
56643SOL    HW171768  10.517   1.332  10.977
56643SOL    HW271769  10.427   1.454  10.981
56644SOL     OW71770  10.349   4.327   4.675
56644SOL    HW171771  10.336   4.385   4.600
56644SOL    HW271772  10.261   4.313   4.709
56645SOL     OW71773   0.437   2.451  14.406
56645SOL    HW171774   0.378   2.389  14.447
56645SOL    HW271775   0.518   2.445  14.458
56646SOL     OW71776  12.740  13.166  11.187
56646SOL    HW171777  12.767  13.213  11.109
56646SOL    HW271778  12.708  13.234  11.246
56647SOL     OW71779   9.362   7.576   6.266
56647SOL    HW171780   9.324   7.577   6.178
56647SOL    HW271781   9.333   7.659   6.306
56648SOL     OW71782   0.958  12.060   9.577
56648SOL    HW171783   1.031  12.111   9.541
56648SOL    HW271784   0.882  12.117   9.567
56649SOL     OW71785   4.026   8.718   6.679
56649SOL    HW171786   4.099   8.755   6.630
56649SOL    HW271787   4.060   8.704   6.767
56650SOL     OW71788  10.796  10.583   0.346
56650SOL    HW171789  10.861  10.653   0.357
56650SOL    HW271790  10.714  10.629   0.329
56651SOL     OW71791   7.339   5.616  12.869
56651SOL    HW171792   7.379   5.535  12.901
56651SOL    HW271793   7.366   5.683  12.932
56652SOL     OW71794   9.834  12.376   2.559
56652SOL    HW171795   9.814  12.311   2.492
56652SOL    HW271796   9.749  12.411   2.585
56653SOL     OW71797   1.447  12.215   9.350
56653SOL    HW171798   1.431  12.191   9.258
56653SOL    HW271799   1.480  12.305   9.346
56654SOL     OW71800   5.433  12.232  10.612
56654SOL    HW171801   5.393  12.306  10.657
56654SOL    HW271802   5.360  12.187  10.570
56655SOL     OW71803  11.452  10.558   1.392
56655SOL    HW171804  11.539  10.571   1.354
56655SOL    HW271805  11.420  10.478   1.350
56656SOL     OW71806  13.104   3.229   7.310
56656SOL    HW171807  13.137   3.278   7.235
56656SOL    HW271808  13.070   3.297   7.370
56657SOL     OW71809   2.150  11.396   3.214
56657SOL    HW171810   2.172  11.453   3.141
56657SOL    HW271811   2.149  11.453   3.291
56658SOL     OW71812  14.182   7.682  14.217
56658SOL    HW171813  14.239   7.647  14.285
56658SOL    HW271814  14.236   7.745  14.170
56659SOL     OW71815   0.302  14.259   5.212
56659SOL    HW171816   0.346  14.182   5.176
56659SOL    HW271817   0.369  14.301   5.266
56660SOL     OW71818  13.696   2.982   8.968
56660SOL    HW171819  13.610   2.962   9.003
56660SOL    HW271820  13.739   3.032   9.038
56661SOL     OW71821   2.447   8.033   6.866
56661SOL    HW171822   2.388   7.988   6.806
56661SOL    HW271823   2.532   8.034   6.822
56662SOL     OW71824  10.031   1.444  13.064
56662SOL    HW171825  10.080   1.512  13.018
56662SOL    HW271826  10.088   1.418  13.136
56663SOL     OW71827   2.374   0.345  10.922
56663SOL    HW171828   2.465   0.341  10.951
56663SOL    HW271829   2.379   0.354  10.827
56664SOL     OW71830  10.711   2.563   2.297
56664SOL    HW171831  10.650   2.499   2.335
56664SOL    HW271832  10.781   2.571   2.362
56665SOL     OW71833  12.607  11.664  13.863
56665SOL    HW171834  12.672  11.706  13.807
56665SOL    HW271835  12.524  11.706  13.840
56666SOL     OW71836  11.605   5.975   5.455
56666SOL    HW171837  11.553   6.033   5.399
56666SOL    HW271838  11.692   6.015   5.457
56667SOL     OW71839  11.755  12.175   1.414
56667SOL    HW171840  11.718  12.093   1.380
56667SOL    HW271841  11.739  12.172   1.508
56668SOL     OW71842   9.156   2.735   7.061
56668SOL    HW171843   9.096   2.804   7.032
56668SOL    HW271844   9.126   2.656   7.016
56669SOL     OW71845   3.347   8.039  13.090
56669SOL    HW171846   3.305   7.964  13.048
56669SOL    HW271847   3.437   8.010  13.106
56670SOL     OW71848   2.398   9.570   8.800
56670SOL    HW171849   2.417   9.511   8.873
56670SOL    HW271850   2.467   9.553   8.736
56671SOL     OW71851   6.583  11.625   9.894
56671SOL    HW171852   6.642  11.650   9.823
56671SOL    HW271853   6.506  11.588   9.850
56672SOL     OW71854  14.608   3.186   7.384
56672SOL    HW171855  14.692   3.208   7.343
56672SOL    HW271856  14.543   3.205   7.316
56673SOL     OW71857  11.281   7.401   1.629
56673SOL    HW171858  11.340   7.425   1.701
56673SOL    HW271859  11.273   7.480   1.577
56674SOL     OW71860   6.273   4.896   3.031
56674SOL    HW171861   6.328   4.950   2.975
56674SOL    HW271862   6.325   4.817   3.047
56675SOL     OW71863   9.134  10.435   0.630
56675SOL    HW171864   9.111  10.475   0.546
56675SOL    HW271865   9.225  10.407   0.619
56676SOL     OW71866  13.575   9.292   1.877
56676SOL    HW171867  13.632   9.305   1.800
56676SOL    HW271868  13.541   9.203   1.866
56677SOL     OW71869   8.180   9.241   0.012
56677SOL    HW171870   8.250   9.194  14.840
56677SOL    HW271871   8.224   9.281   0.087
56678SOL     OW71872   5.862   9.930   4.386
56678SOL    HW171873   5.820  10.016   4.388
56678SOL    HW271874   5.925   9.933   4.458
56679SOL     OW71875   6.842   4.032  13.538
56679SOL    HW171876   6.817   4.050  13.629
56679SOL    HW271877   6.761   4.040  13.489
56680SOL     OW71878   9.407   9.224  12.402
56680SOL    HW171879   9.385   9.253  12.314
56680SOL    HW271880   9.492   9.263  12.420
56681SOL     OW71881   6.089   2.556  12.384
56681SOL    HW171882   6.011   2.580  12.333
56681SOL    HW271883   6.137   2.496  12.327
56682SOL     OW71884   7.093   0.259  12.562
56682SOL    HW171885   7.071   0.336  12.509
56682SOL    HW271886   7.093   0.290  12.652
56683SOL     OW71887   1.139   5.888   8.620
56683SOL    HW171888   1.224   5.859   8.586
56683SOL    HW271889   1.082   5.812   8.610
56684SOL     OW71890   8.984  12.935   6.137
56684SOL    HW171891   8.982  12.848   6.178
56684SOL    HW271892   9.058  12.979   6.180
56685SOL     OW71893   1.930   3.429  11.891
56685SOL    HW171894   1.968   3.444  11.977
56685SOL    HW271895   1.839   3.404  11.909
56686SOL     OW71896   8.533  11.409   4.096
56686SOL    HW171897   8.489  11.359   4.028
56686SOL    HW271898   8.552  11.345   4.165
56687SOL     OW71899  14.373  12.388  14.467
56687SOL    HW171900  14.468  12.373  14.467
56687SOL    HW271901  14.351  12.398  14.560
56688SOL     OW71902   4.976   3.485  14.269
56688SOL    HW171903   4.952   3.394  14.288
56688SOL    HW271904   4.980   3.489  14.174
56689SOL     OW71905   9.347   0.835   9.518
56689SOL    HW171906   9.385   0.921   9.505
56689SOL    HW271907   9.253   0.849   9.508
56690SOL     OW71908   5.219  12.997   1.061
56690SOL    HW171909   5.188  13.088   1.054
56690SOL    HW271910   5.144  12.944   1.034
56691SOL     OW71911   5.340   4.623   4.792
56691SOL    HW171912   5.246   4.618   4.809
56691SOL    HW271913   5.349   4.596   4.701
56692SOL     OW71914   6.525  13.459  11.925
56692SOL    HW171915   6.523  13.399  12.000
56692SOL    HW271916   6.602  13.431  11.876
56693SOL     OW71917   0.336   8.966  10.157
56693SOL    HW171918   0.297   9.009  10.233
56693SOL    HW271919   0.423   8.938  10.188
56694SOL     OW71920   3.821   7.395   9.337
56694SOL    HW171921   3.762   7.337   9.385
56694SOL    HW271922   3.826   7.474   9.391
56695SOL     OW71923  10.793   1.208  14.670
56695SOL    HW171924  10.732   1.181  14.739
56695SOL    HW271925  10.756   1.171  14.590
56696SOL     OW71926   3.909   1.575   1.189
56696SOL    HW171927   3.870   1.566   1.103
56696SOL    HW271928   3.979   1.640   1.178
56697SOL     OW71929   1.639   4.864   5.152
56697SOL    HW171930   1.715   4.889   5.203
56697SOL    HW271931   1.566   4.909   5.194
56698SOL     OW71932   4.027  14.826   4.738
56698SOL    HW171933   4.122  14.816   4.748
56698SOL    HW271934   3.998  14.862   4.821
56699SOL     OW71935   1.823   8.599  11.312
56699SOL    HW171936   1.871   8.602  11.395
56699SOL    HW271937   1.885   8.632  11.247
56700SOL     OW71938   0.403   5.876   7.433
56700SOL    HW171939   0.469   5.901   7.497
56700SOL    HW271940   0.452   5.830   7.365
56701SOL     OW71941   0.468   6.588   6.602
56701SOL    HW171942   0.389   6.603   6.654
56701SOL    HW271943   0.441   6.607   6.512
56702SOL     OW71944   9.124   5.184   5.515
56702SOL    HW171945   9.206   5.167   5.467
56702SOL    HW271946   9.066   5.223   5.449
56703SOL     OW71947   1.480   3.215  11.387
56703SOL    HW171948   1.501   3.284  11.325
56703SOL    HW271949   1.390   3.191  11.366
56704SOL     OW71950   1.619  11.185  11.157
56704SOL    HW171951   1.664  11.214  11.236
56704SOL    HW271952   1.548  11.248  11.145
56705SOL     OW71953   2.984   5.718   0.878
56705SOL    HW171954   2.937   5.667   0.812
56705SOL    HW271955   2.997   5.804   0.837
56706SOL     OW71956  12.007  12.548   4.841
56706SOL    HW171957  12.051  12.468   4.811
56706SOL    HW271958  12.004  12.539   4.936
56707SOL     OW71959  14.593   5.025   3.183
56707SOL    HW171960  14.567   5.056   3.096
56707SOL    HW271961  14.596   4.929   3.174
56708SOL     OW71962  13.350   3.641   5.101
56708SOL    HW171963  13.262   3.629   5.065
56708SOL    HW271964  13.403   3.575   5.058
56709SOL     OW71965   3.568  11.266   2.247
56709SOL    HW171966   3.649  11.310   2.221
56709SOL    HW271967   3.572  11.263   2.343
56710SOL     OW71968   6.342   5.627   3.583
56710SOL    HW171969   6.379   5.560   3.524
56710SOL    HW271970   6.272   5.581   3.630
56711SOL     OW71971  12.745   3.097  11.592
56711SOL    HW171972  12.799   3.017  11.598
56711SOL    HW271973  12.767   3.133  11.506
56712SOL     OW71974  11.946   0.875   5.257
56712SOL    HW171975  11.855   0.852   5.240
56712SOL    HW271976  11.950   0.970   5.243
56713SOL     OW71977   5.335  14.630   1.647
56713SOL    HW171978   5.349  14.540   1.679
56713SOL    HW271979   5.348  14.685   1.725
56714SOL     OW71980   6.692   4.313   9.702
56714SOL    HW171981   6.742   4.315   9.784
56714SOL    HW271982   6.709   4.226   9.667
56715SOL     OW71983   1.961  11.736  12.945
56715SOL    HW171984   1.928  11.730  12.855
56715SOL    HW271985   2.027  11.667  12.950
56716SOL     OW71986   0.477  13.003   5.705
56716SOL    HW171987   0.455  13.088   5.668
56716SOL    HW271988   0.408  12.986   5.769
56717SOL     OW71989   3.722  12.306   5.224
56717SOL    HW171990   3.724  12.211   5.212
56717SOL    HW271991   3.688  12.319   5.312
56718SOL     OW71992  14.854   4.748   9.086
56718SOL    HW171993  14.794   4.750   9.161
56718SOL    HW271994  14.797   4.727   9.011
56719SOL     OW71995   1.854   9.113   5.852
56719SOL    HW171996   1.797   9.047   5.810
56719SOL    HW271997   1.795   9.161   5.910
56720SOL     OW71998   8.889  11.802   9.376
56720SOL    HW171999   8.859  11.877   9.326
56720SOL    HW272000   8.812  11.771   9.423
56721SOL     OW72001   8.512   7.621  10.295
56721SOL    HW172002   8.564   7.701  10.298
56721SOL    HW272003   8.480   7.617  10.205
56722SOL     OW72004   9.122  13.292  12.301
56722SOL    HW172005   9.056  13.359  12.317
56722SOL    HW272006   9.094  13.250  12.220
56723SOL     OW72007   6.180   5.106   3.775
56723SOL    HW172008   6.161   5.063   3.859
56723SOL    HW272009   6.257   5.160   3.793
56724SOL     OW72010   7.961  13.176  11.654
56724SOL    HW172011   7.965  13.132  11.739
56724SOL    HW272012   8.005  13.116  11.594
56725SOL     OW72013   7.002   5.303   1.091
56725SOL    HW172014   6.913   5.301   1.127
56725SOL    HW272015   7.003   5.380   1.035
56726SOL     OW72016  11.507   9.470   1.314
56726SOL    HW172017  11.588   9.459   1.364
56726SOL    HW272018  11.509   9.401   1.248
56727SOL     OW72019   6.804   2.906   8.298
56727SOL    HW172020   6.897   2.923   8.283
56727SOL    HW272021   6.801   2.824   8.347
56728SOL     OW72022   8.791  12.963   2.376
56728SOL    HW172023   8.707  12.988   2.338
56728SOL    HW272024   8.790  13.002   2.464
56729SOL     OW72025  11.484   9.237  12.643
56729SOL    HW172026  11.457   9.151  12.612
56729SOL    HW272027  11.569   9.223  12.684
56730SOL     OW72028   7.312   5.551  14.793
56730SOL    HW172029   7.241   5.596  14.746
56730SOL    HW272030   7.373   5.620  14.818
56731SOL     OW72031   6.835  12.658   5.070
56731SOL    HW172032   6.884  12.591   5.117
56731SOL    HW272033   6.790  12.708   5.138
56732SOL     OW72034  12.086  11.232  10.529
56732SOL    HW172035  12.047  11.165  10.584
56732SOL    HW272036  12.038  11.312  10.549
56733SOL     OW72037  14.050   4.415  12.650
56733SOL    HW172038  14.001   4.469  12.588
56733SOL    HW272039  14.142   4.428  12.626
56734SOL     OW72040  13.934   7.360   4.965
56734SOL    HW172041  13.852   7.312   4.955
56734SOL    HW272042  13.965   7.338   5.053
56735SOL     OW72043  12.336  11.889   1.971
56735SOL    HW172044  12.255  11.909   1.923
56735SOL    HW272045  12.306  11.844   2.050
56736SOL     OW72046  12.155   1.999  13.608
56736SOL    HW172047  12.109   1.923  13.572
56736SOL    HW272048  12.219   1.962  13.669
56737SOL     OW72049   8.174   9.490  13.158
56737SOL    HW172050   8.106   9.490  13.225
56737SOL    HW272051   8.206   9.400  13.156
56738SOL     OW72052  14.711   7.622  12.520
56738SOL    HW172053  14.661   7.641  12.600
56738SOL    HW272054  14.670   7.544  12.484
56739SOL     OW72055  12.582   7.717   5.506
56739SOL    HW172056  12.497   7.691   5.470
56739SOL    HW272057  12.574   7.812   5.520
56740SOL     OW72058   2.090   2.794   3.941
56740SOL    HW172059   2.070   2.792   3.847
56740SOL    HW272060   2.171   2.744   3.949
56741SOL     OW72061  12.279  10.394   2.828
56741SOL    HW172062  12.236  10.314   2.800
56741SOL    HW272063  12.254  10.404   2.920
56742SOL     OW72064  12.421   1.440   6.306
56742SOL    HW172065  12.388   1.350   6.310
56742SOL    HW272066  12.506   1.432   6.261
56743SOL     OW72067   5.671  12.319   6.517
56743SOL    HW172068   5.584  12.282   6.500
56743SOL    HW272069   5.674  12.329   6.612
56744SOL     OW72070   9.508   9.373   3.316
56744SOL    HW172071   9.474   9.458   3.290
56744SOL    HW272072   9.499   9.371   3.411
56745SOL     OW72073  13.505   3.934   2.064
56745SOL    HW172074  13.470   3.850   2.093
56745SOL    HW272075  13.452   3.957   1.988
56746SOL     OW72076  13.055   6.217   3.743
56746SOL    HW172077  12.960   6.229   3.745
56746SOL    HW272078  13.067   6.123   3.730
56747SOL     OW72079   2.319   2.476   5.166
56747SOL    HW172080   2.328   2.381   5.170
56747SOL    HW272081   2.244   2.496   5.222
56748SOL     OW72082   1.241  10.213   8.352
56748SOL    HW172083   1.311  10.155   8.383
56748SOL    HW272084   1.254  10.294   8.401
56749SOL     OW72085   0.600  10.981   1.978
56749SOL    HW172086   0.515  11.021   1.958
56749SOL    HW272087   0.661  11.055   1.979
56750SOL     OW72088  11.331   6.638   1.456
56750SOL    HW172089  11.305   6.730   1.460
56750SOL    HW272090  11.322   6.615   1.364
56751SOL     OW72091  10.301   3.793   6.315
56751SOL    HW172092  10.206   3.796   6.310
56751SOL    HW272093  10.330   3.871   6.268
56752SOL     OW72094   5.538   9.397  12.467
56752SOL    HW172095   5.475   9.469  12.469
56752SOL    HW272096   5.612   9.428  12.520
56753SOL     OW72097   7.461  10.693   6.496
56753SOL    HW172098   7.370  10.682   6.469
56753SOL    HW272099   7.486  10.780   6.464
56754SOL     OW72100  10.441  10.016   1.680
56754SOL    HW172101  10.357   9.974   1.701
56754SOL    HW272102  10.490   9.949   1.632
56755SOL     OW72103  14.800   3.089   2.423
56755SOL    HW172104  14.721   3.110   2.474
56755SOL    HW272105  14.807   2.994   2.430
56756SOL     OW72106   0.439  12.062   9.955
56756SOL    HW172107   0.474  12.117   9.884
56756SOL    HW272108   0.476  11.976   9.940
56757SOL     OW72109   1.645   3.488   1.100
56757SOL    HW172110   1.637   3.583   1.093
56757SOL    HW272111   1.680   3.460   1.016
56758SOL     OW72112   1.990   9.267   3.208
56758SOL    HW172113   2.002   9.232   3.120
56758SOL    HW272114   2.070   9.317   3.225
56759SOL     OW72115  12.842   6.051  10.746
56759SOL    HW172116  12.787   6.129  10.746
56759SOL    HW272117  12.786   5.982  10.781
56760SOL     OW72118   4.486   9.131  14.517
56760SOL    HW172119   4.500   9.130  14.611
56760SOL    HW272120   4.392   9.143  14.507
56761SOL     OW72121   1.539  12.732   4.584
56761SOL    HW172122   1.494  12.714   4.666
56761SOL    HW272123   1.594  12.655   4.569
56762SOL     OW72124   6.510   9.419   9.442
56762SOL    HW172125   6.557   9.462   9.514
56762SOL    HW272126   6.431   9.471   9.431
56763SOL     OW72127   3.526   5.491   6.347
56763SOL    HW172128   3.456   5.462   6.289
56763SOL    HW272129   3.543   5.417   6.406
56764SOL     OW72130   3.356  10.346   1.464
56764SOL    HW172131   3.285  10.282   1.469
56764SOL    HW272132   3.332  10.414   1.527
56765SOL     OW72133   0.551  10.326   4.430
56765SOL    HW172134   0.537  10.409   4.475
56765SOL    HW272135   0.646  10.322   4.415
56766SOL     OW72136  14.411   9.973  12.578
56766SOL    HW172137  14.371   9.951  12.662
56766SOL    HW272138  14.468  10.047  12.598
56767SOL     OW72139   5.427   9.840   7.340
56767SOL    HW172140   5.352   9.794   7.377
56767SOL    HW272141   5.502   9.785   7.362
56768SOL     OW72142   9.248   4.888   6.198
56768SOL    HW172143   9.287   4.885   6.111
56768SOL    HW272144   9.181   4.956   6.192
56769SOL     OW72145   6.150   5.939   3.162
56769SOL    HW172146   6.209   6.008   3.193
56769SOL    HW272147   6.096   5.982   3.095
56770SOL     OW72148  12.952   5.344  10.212
56770SOL    HW172149  13.012   5.392  10.155
56770SOL    HW272150  12.980   5.366  10.300
56771SOL     OW72151   0.035   5.815   1.243
56771SOL    HW172152   0.044   5.884   1.178
56771SOL    HW272153  14.826   5.772   1.221
56772SOL     OW72154  12.379  11.203  13.399
56772SOL    HW172155  12.433  11.162  13.466
56772SOL    HW272156  12.442  11.239  13.336
56773SOL     OW72157  11.625  11.061  13.701
56773SOL    HW172158  11.597  11.146  13.669
56773SOL    HW272159  11.720  11.059  13.684
56774SOL     OW72160  12.292   9.399   5.071
56774SOL    HW172161  12.332   9.376   5.154
56774SOL    HW272162  12.221   9.336   5.059
56775SOL     OW72163   0.206   9.217   9.804
56775SOL    HW172164   0.245   9.145   9.854
56775SOL    HW272165   0.122   9.233   9.846
56776SOL     OW72166   8.541  10.859   8.130
56776SOL    HW172167   8.517  10.769   8.111
56776SOL    HW272168   8.535  10.866   8.226
56777SOL     OW72169   4.774   7.406   0.405
56777SOL    HW172170   4.851   7.373   0.450
56777SOL    HW272171   4.707   7.338   0.419
56778SOL     OW72172   9.112   5.137  10.667
56778SOL    HW172173   9.030   5.148  10.714
56778SOL    HW272174   9.180   5.167  10.729
56779SOL     OW72175  13.423   4.108   8.975
56779SOL    HW172176  13.442   4.184   9.029
56779SOL    HW272177  13.344   4.132   8.926
56780SOL     OW72178   1.091   5.274  14.457
56780SOL    HW172179   1.139   5.192  14.469
56780SOL    HW272180   1.000   5.250  14.476
56781SOL     OW72181   7.359  13.921  14.672
56781SOL    HW172182   7.437  13.866  14.671
56781SOL    HW272183   7.286  13.860  14.673
56782SOL     OW72184   7.098   5.837  12.312
56782SOL    HW172185   7.122   5.745  12.322
56782SOL    HW272186   7.045   5.839  12.232
56783SOL     OW72187  10.780   1.042  10.611
56783SOL    HW172188  10.785   1.042  10.516
56783SOL    HW272189  10.696   1.084  10.631
56784SOL     OW72190   3.798  10.586   8.346
56784SOL    HW172191   3.831  10.503   8.381
56784SOL    HW272192   3.732  10.560   8.282
56785SOL     OW72193   8.346  10.130  12.453
56785SOL    HW172194   8.312  10.133  12.542
56785SOL    HW272195   8.286  10.073  12.406
56786SOL     OW72196   6.733   7.223   4.657
56786SOL    HW172197   6.771   7.253   4.740
56786SOL    HW272198   6.744   7.128   4.659
56787SOL     OW72199   6.896   7.085   2.930
56787SOL    HW172200   6.833   7.156   2.937
56787SOL    HW272201   6.857   7.023   2.869
56788SOL     OW72202  13.461   5.345   5.438
56788SOL    HW172203  13.448   5.282   5.368
56788SOL    HW272204  13.393   5.411   5.425
56789SOL     OW72205  12.063  12.118  14.725
56789SOL    HW172206  12.121  12.147  14.796
56789SOL    HW272207  12.123  12.086  14.657
56790SOL     OW72208  12.071   3.184   2.593
56790SOL    HW172209  12.067   3.219   2.504
56790SOL    HW272210  11.989   3.135   2.603
56791SOL     OW72211  10.222  11.784   2.060
56791SOL    HW172212  10.309  11.776   2.100
56791SOL    HW272213  10.240  11.814   1.971
56792SOL     OW72214   5.318   4.890   3.777
56792SOL    HW172215   5.335   4.795   3.777
56792SOL    HW272216   5.334   4.916   3.868
56793SOL     OW72217   0.934   6.648  13.330
56793SOL    HW172218   0.910   6.659  13.238
56793SOL    HW272219   1.025   6.679  13.335
56794SOL     OW72220   9.496   7.163  13.902
56794SOL    HW172221   9.483   7.074  13.869
56794SOL    HW272222   9.560   7.202  13.843
56795SOL     OW72223   8.073   9.745   9.372
56795SOL    HW172224   8.117   9.752   9.457
56795SOL    HW272225   7.980   9.737   9.393
56796SOL     OW72226  14.337   4.097   4.913
56796SOL    HW172227  14.419   4.104   4.864
56796SOL    HW272228  14.270   4.079   4.846
56797SOL     OW72229   8.614   9.820   1.824
56797SOL    HW172230   8.704   9.851   1.822
56797SOL    HW272231   8.582   9.834   1.734
56798SOL     OW72232   0.957  10.760   1.143
56798SOL    HW172233   0.881  10.710   1.172
56798SOL    HW272234   1.022  10.747   1.213
56799SOL     OW72235   4.182   6.218   3.349
56799SOL    HW172236   4.145   6.212   3.438
56799SOL    HW272237   4.105   6.229   3.293
56800SOL     OW72238   4.456   3.614   2.304
56800SOL    HW172239   4.412   3.635   2.221
56800SOL    HW272240   4.419   3.530   2.330
56801SOL     OW72241  11.618   9.401  13.776
56801SOL    HW172242  11.562   9.347  13.720
56801SOL    HW272243  11.565   9.479  13.794
56802SOL     OW72244   4.528   3.231   0.017
56802SOL    HW172245   4.578   3.156  14.859
56802SOL    HW272246   4.556   3.304  14.835
56803SOL     OW72247   5.206  10.101   3.338
56803SOL    HW172248   5.292  10.144   3.333
56803SOL    HW272249   5.178  10.115   3.428
56804SOL     OW72250   5.569   9.729   0.847
56804SOL    HW172251   5.499   9.746   0.784
56804SOL    HW272252   5.555   9.638   0.874
56805SOL     OW72253   9.275   4.592   6.428
56805SOL    HW172254   9.230   4.675   6.411
56805SOL    HW272255   9.226   4.528   6.377
56806SOL     OW72256  11.622   6.060   9.548
56806SOL    HW172257  11.558   6.090   9.483
56806SOL    HW272258  11.577   5.992   9.597
56807SOL     OW72259  10.773   5.416  13.016
56807SOL    HW172260  10.744   5.341  13.067
56807SOL    HW272261  10.863   5.395  12.991
56808SOL     OW72262   8.388  11.588   2.773
56808SOL    HW172263   8.345  11.647   2.835
56808SOL    HW272264   8.385  11.502   2.816
56809SOL     OW72265   5.198  11.074   6.803
56809SOL    HW172266   5.290  11.063   6.828
56809SOL    HW272267   5.154  10.995   6.834
56810SOL     OW72268   0.062   0.342   0.190
56810SOL    HW172269   0.140   0.378   0.148
56810SOL    HW272270   0.013   0.303   0.118
56811SOL     OW72271  14.695  14.216  10.867
56811SOL    HW172272  14.602  14.211  10.888
56811SOL    HW272273  14.739  14.184  10.947
56812SOL     OW72274   5.802  11.536  12.494
56812SOL    HW172275   5.800  11.554  12.588
56812SOL    HW272276   5.729  11.588  12.459
56813SOL     OW72277   0.462   5.840   8.109
56813SOL    HW172278   0.462   5.832   8.204
56813SOL    HW272279   0.552   5.818   8.084
56814SOL     OW72280   5.404   3.596   5.925
56814SOL    HW172281   5.425   3.583   6.017
56814SOL    HW272282   5.393   3.507   5.891
56815SOL     OW72283   8.601  10.186  14.557
56815SOL    HW172284   8.573  10.278  14.555
56815SOL    HW272285   8.560  10.150  14.635
56816SOL     OW72286   8.417  13.781   1.918
56816SOL    HW172287   8.404  13.728   1.839
56816SOL    HW272288   8.352  13.851   1.911
56817SOL     OW72289  11.342   7.275  13.119
56817SOL    HW172290  11.376   7.187  13.132
56817SOL    HW272291  11.388   7.328  13.184
56818SOL     OW72292  12.562  12.742   4.709
56818SOL    HW172293  12.527  12.716   4.795
56818SOL    HW272294  12.486  12.738   4.651
56819SOL     OW72295   7.908  13.896   6.390
56819SOL    HW172296   7.969  13.877   6.462
56819SOL    HW272297   7.961  13.886   6.311
56820SOL     OW72298   2.251  14.339   0.075
56820SOL    HW172299   2.322  14.340   0.139
56820SOL    HW272300   2.209  14.253   0.086
56821SOL     OW72301   6.634   1.627   8.337
56821SOL    HW172302   6.605   1.614   8.246
56821SOL    HW272303   6.728   1.613   8.334
56822SOL     OW72304   1.310   5.260   3.941
56822SOL    HW172305   1.330   5.209   3.863
56822SOL    HW272306   1.221   5.291   3.927
56823SOL     OW72307  11.623   8.324   0.121
56823SOL    HW172308  11.640   8.298   0.030
56823SOL    HW272309  11.531   8.302   0.135
56824SOL     OW72310  11.751   1.674  13.753
56824SOL    HW172311  11.731   1.653  13.845
56824SOL    HW272312  11.726   1.766  13.743
56825SOL     OW72313   8.904  12.906  13.773
56825SOL    HW172314   8.829  12.930  13.719
56825SOL    HW272315   8.979  12.947  13.729
56826SOL     OW72316   1.455  10.082   4.372
56826SOL    HW172317   1.546  10.101   4.349
56826SOL    HW272318   1.456   9.990   4.397
56827SOL     OW72319   9.981  10.753   4.285
56827SOL    HW172320   9.904  10.718   4.241
56827SOL    HW272321  10.000  10.835   4.238
56828SOL     OW72322  11.211   8.205   2.266
56828SOL    HW172323  11.197   8.200   2.171
56828SOL    HW272324  11.140   8.153   2.303
56829SOL     OW72325   4.722  14.383   4.306
56829SOL    HW172326   4.777  14.362   4.382
56829SOL    HW272327   4.658  14.312   4.303
56830SOL     OW72328   8.318   4.018  12.125
56830SOL    HW172329   8.359   3.936  12.098
56830SOL    HW272330   8.382   4.058  12.185
56831SOL     OW72331   1.111   0.686   5.215
56831SOL    HW172332   1.193   0.652   5.251
56831SOL    HW272333   1.063   0.718   5.292
56832SOL     OW72334  14.107   7.565   1.774
56832SOL    HW172335  14.049   7.524   1.709
56832SOL    HW272336  14.103   7.505   1.849
56833SOL     OW72337   8.767   2.399  14.192
56833SOL    HW172338   8.777   2.425  14.284
56833SOL    HW272339   8.821   2.321  14.183
56834SOL     OW72340  13.705   1.028   3.471
56834SOL    HW172341  13.661   0.944   3.489
56834SOL    HW272342  13.678   1.084   3.544
56835SOL     OW72343   5.702   0.150   3.522
56835SOL    HW172344   5.634   0.143   3.455
56835SOL    HW272345   5.759   0.221   3.491
56836SOL     OW72346   0.526  10.241  10.995
56836SOL    HW172347   0.469  10.165  10.987
56836SOL    HW272348   0.496  10.286  11.073
56837SOL     OW72349   7.943  13.994  11.922
56837SOL    HW172350   7.866  13.959  11.876
56837SOL    HW272351   7.927  13.973  12.014
56838SOL     OW72352   9.444   5.347   5.433
56838SOL    HW172353   9.402   5.262   5.424
56838SOL    HW272354   9.458   5.377   5.343
56839SOL     OW72355   7.357   5.571   1.062
56839SOL    HW172356   7.315   5.499   1.110
56839SOL    HW272357   7.451   5.558   1.076
56840SOL     OW72358   9.316   3.750   9.767
56840SOL    HW172359   9.289   3.707   9.686
56840SOL    HW272360   9.236   3.755   9.820
56841SOL     OW72361   0.669   7.464   7.203
56841SOL    HW172362   0.591   7.437   7.156
56841SOL    HW272363   0.651   7.554   7.232
56842SOL     OW72364  13.017   8.738   1.564
56842SOL    HW172365  12.943   8.792   1.596
56842SOL    HW272366  12.991   8.648   1.583
56843SOL     OW72367   5.378   3.183  14.572
56843SOL    HW172368   5.451   3.245  14.576
56843SOL    HW272369   5.415   3.101  14.606
56844SOL     OW72370  14.600   4.607   4.752
56844SOL    HW172371  14.529   4.557   4.711
56844SOL    HW272372  14.651   4.541   4.798
56845SOL     OW72373   3.405  11.993   4.526
56845SOL    HW172374   3.332  11.991   4.588
56845SOL    HW272375   3.415  11.901   4.500
56846SOL     OW72376  12.486   7.055   8.067
56846SOL    HW172377  12.461   7.076   7.977
56846SOL    HW272378  12.504   6.961   8.066
56847SOL     OW72379  12.702   9.188   2.715
56847SOL    HW172380  12.704   9.095   2.696
56847SOL    HW272381  12.730   9.194   2.807
56848SOL     OW72382   2.643   1.654   5.007
56848SOL    HW172383   2.731   1.690   5.014
56848SOL    HW272384   2.630   1.608   5.090
56849SOL     OW72385   4.567   2.917   5.608
56849SOL    HW172386   4.590   2.922   5.701
56849SOL    HW272387   4.495   2.980   5.599
56850SOL     OW72388   7.735  10.984  12.187
56850SOL    HW172389   7.781  11.061  12.154
56850SOL    HW272390   7.773  10.910  12.139
56851SOL     OW72391   4.527  14.488   6.049
56851SOL    HW172392   4.489  14.486   5.961
56851SOL    HW272393   4.470  14.432   6.101
56852SOL     OW72394  11.361   8.476   6.478
56852SOL    HW172395  11.304   8.405   6.447
56852SOL    HW272396  11.449   8.448   6.455
56853SOL     OW72397  13.333  12.096   0.216
56853SOL    HW172398  13.297  12.040   0.285
56853SOL    HW272399  13.268  12.092   0.146
56854SOL     OW72400   8.066   6.791   2.553
56854SOL    HW172401   8.039   6.780   2.462
56854SOL    HW272402   8.113   6.874   2.555
56855SOL     OW72403   0.408   5.333  13.838
56855SOL    HW172404   0.410   5.424  13.868
56855SOL    HW272405   0.495   5.317  13.802
56856SOL     OW72406   0.447   4.366  13.893
56856SOL    HW172407   0.361   4.344  13.857
56856SOL    HW272408   0.474   4.444  13.844
56857SOL     OW72409   6.888   5.658   5.323
56857SOL    HW172410   6.849   5.604   5.392
56857SOL    HW272411   6.848   5.744   5.336
56858SOL     OW72412  12.348   8.751   7.058
56858SOL    HW172413  12.395   8.824   7.098
56858SOL    HW272414  12.372   8.675   7.110
56859SOL     OW72415   2.250  11.793  11.463
56859SOL    HW172416   2.195  11.779  11.540
56859SOL    HW272417   2.337  11.814  11.499
56860SOL     OW72418   5.499   4.734   7.148
56860SOL    HW172419   5.465   4.815   7.109
56860SOL    HW272420   5.591   4.732   7.123
56861SOL     OW72421   9.694   5.514   1.074
56861SOL    HW172422   9.606   5.484   1.052
56861SOL    HW272423   9.693   5.526   1.169
56862SOL     OW72424   8.340   5.149   5.379
56862SOL    HW172425   8.377   5.195   5.455
56862SOL    HW272426   8.260   5.197   5.359
56863SOL     OW72427   9.489   7.858  11.310
56863SOL    HW172428   9.536   7.915  11.371
56863SOL    HW272429   9.405   7.902  11.297
56864SOL     OW72430   2.187  13.421   5.834
56864SOL    HW172431   2.098  13.405   5.801
56864SOL    HW272432   2.219  13.493   5.781
56865SOL     OW72433  12.422  10.156   1.815
56865SOL    HW172434  12.453  10.221   1.878
56865SOL    HW272435  12.495  10.095   1.804
56866SOL     OW72436   9.186  13.041   0.749
56866SOL    HW172437   9.160  13.004   0.833
56866SOL    HW272438   9.281  13.034   0.747
56867SOL     OW72439  12.971   5.005   3.358
56867SOL    HW172440  12.951   5.065   3.286
56867SOL    HW272441  12.959   4.918   3.321
56868SOL     OW72442   3.200   4.593  11.511
56868SOL    HW172443   3.281   4.616  11.557
56868SOL    HW272444   3.195   4.498  11.516
56869SOL     OW72445   5.973   3.330  11.659
56869SOL    HW172446   5.980   3.417  11.621
56869SOL    HW272447   6.047   3.282  11.623
56870SOL     OW72448  14.005   9.538   1.904
56870SOL    HW172449  13.928   9.581   1.867
56870SOL    HW272450  14.035   9.597   1.973
56871SOL     OW72451  11.907   3.124   6.866
56871SOL    HW172452  11.928   3.073   6.944
56871SOL    HW272453  11.836   3.076   6.824
56872SOL     OW72454   8.740   7.842  11.883
56872SOL    HW172455   8.645   7.847  11.874
56872SOL    HW272456   8.759   7.890  11.964
56873SOL     OW72457   9.481  13.044  12.441
56873SOL    HW172458   9.419  13.110  12.471
56873SOL    HW272459   9.525  13.084  12.366
56874SOL     OW72460   1.967   1.540   7.556
56874SOL    HW172461   1.927   1.458   7.528
56874SOL    HW272462   1.903   1.578   7.616
56875SOL     OW72463   9.782   0.073   9.714
56875SOL    HW172464   9.792   0.006   9.645
56875SOL    HW272465   9.808   0.155   9.671
56876SOL     OW72466  11.042   1.836   0.798
56876SOL    HW172467  10.971   1.886   0.840
56876SOL    HW272468  11.003   1.751   0.780
56877SOL     OW72469   8.237  11.940   9.902
56877SOL    HW172470   8.142  11.936   9.910
56877SOL    HW272471   8.253  12.014   9.843
56878SOL     OW72472   4.268  14.364   2.661
56878SOL    HW172473   4.235  14.356   2.750
56878SOL    HW272474   4.355  14.324   2.664
56879SOL     OW72475   6.067  12.362   2.212
56879SOL    HW172476   6.010  12.388   2.140
56879SOL    HW272477   6.057  12.267   2.219
56880SOL     OW72478   9.433   7.826   9.029
56880SOL    HW172479   9.494   7.886   8.987
56880SOL    HW272480   9.450   7.741   8.988
56881SOL     OW72481   9.554  11.880   5.297
56881SOL    HW172482   9.498  11.852   5.370
56881SOL    HW272483   9.508  11.849   5.219
56882SOL     OW72484  11.405   2.301   2.763
56882SOL    HW172485  11.333   2.240   2.746
56882SOL    HW272486  11.386   2.339   2.848
56883SOL     OW72487  10.472   4.480  11.830
56883SOL    HW172488  10.522   4.467  11.910
56883SOL    HW272489  10.380   4.474  11.857
56884SOL     OW72490  12.253  10.332   2.109
56884SOL    HW172491  12.332  10.279   2.093
56884SOL    HW272492  12.285  10.423   2.109
56885SOL     OW72493   7.828   1.093   2.399
56885SOL    HW172494   7.735   1.100   2.379
56885SOL    HW272495   7.857   1.184   2.412
56886SOL     OW72496   9.196   3.962   6.517
56886SOL    HW172497   9.257   3.914   6.573
56886SOL    HW272498   9.230   4.051   6.514
56887SOL     OW72499   9.600   7.435   2.923
56887SOL    HW172500   9.594   7.419   2.829
56887SOL    HW272501   9.692   7.453   2.939
56888SOL     OW72502   7.327  13.821  11.956
56888SOL    HW172503   7.300  13.901  12.002
56888SOL    HW272504   7.383  13.775  12.018
56889SOL     OW72505   0.880   1.076   2.684
56889SOL    HW172506   0.974   1.082   2.700
56889SOL    HW272507   0.846   1.162   2.711
56890SOL     OW72508   7.687   3.176  10.003
56890SOL    HW172509   7.591   3.173   9.993
56890SOL    HW272510   7.711   3.085  10.024
56891SOL     OW72511   0.664  14.572  11.859
56891SOL    HW172512   0.710  14.654  11.840
56891SOL    HW272513   0.678  14.557  11.952
56892SOL     OW72514   3.920  13.530   9.479
56892SOL    HW172515   3.960  13.480   9.409
56892SOL    HW272516   3.832  13.551   9.447
56893SOL     OW72517   5.173   7.276   7.189
56893SOL    HW172518   5.194   7.193   7.232
56893SOL    HW272519   5.192   7.343   7.255
56894SOL     OW72520  11.431   8.135   6.595
56894SOL    HW172521  11.493   8.188   6.545
56894SOL    HW272522  11.371   8.100   6.529
56895SOL     OW72523  14.835  10.478   0.676
56895SOL    HW172524  14.807  10.445   0.762
56895SOL    HW272525   0.038  10.531   0.694
56896SOL     OW72526   0.054  11.243   0.117
56896SOL    HW172527   0.083  11.218   0.029
56896SOL    HW272528   0.091  11.176   0.174
56897SOL     OW72529   8.667   6.935   4.142
56897SOL    HW172530   8.703   7.021   4.163
56897SOL    HW272531   8.572   6.948   4.142
56898SOL     OW72532   3.190   7.977   3.900
56898SOL    HW172533   3.201   8.069   3.922
56898SOL    HW272534   3.261   7.958   3.839
56899SOL     OW72535   1.123   7.629   8.521
56899SOL    HW172536   1.117   7.534   8.522
56899SOL    HW272537   1.048   7.658   8.573
56900SOL     OW72538  10.612  11.799   6.860
56900SOL    HW172539  10.567  11.802   6.944
56900SOL    HW272540  10.629  11.706   6.845
56901SOL     OW72541   1.988   6.328   6.030
56901SOL    HW172542   1.978   6.415   5.992
56901SOL    HW272543   1.948   6.269   5.966
56902SOL     OW72544  11.025  13.951  11.970
56902SOL    HW172545  10.937  13.986  11.959
56902SOL    HW272546  11.023  13.906  12.055
56903SOL     OW72547   7.574  10.342   0.839
56903SOL    HW172548   7.625  10.319   0.917
56903SOL    HW272549   7.597  10.276   0.774
56904SOL     OW72550   9.282   5.112   3.737
56904SOL    HW172551   9.348   5.180   3.722
56904SOL    HW272552   9.205   5.141   3.687
56905SOL     OW72553   0.421   7.184   9.843
56905SOL    HW172554   0.331   7.156   9.864
56905SOL    HW272555   0.414   7.225   9.757
56906SOL     OW72556   1.667   5.129   4.392
56906SOL    HW172557   1.659   5.214   4.347
56906SOL    HW272558   1.637   5.147   4.481
56907SOL     OW72559   2.916   0.890  12.722
56907SOL    HW172560   2.918   0.798  12.750
56907SOL    HW272561   2.870   0.888  12.638
56908SOL     OW72562  12.287   2.903   6.132
56908SOL    HW172563  12.235   2.960   6.188
56908SOL    HW272564  12.280   2.942   6.045
56909SOL     OW72565  11.026   9.962  13.703
56909SOL    HW172566  11.074  10.044  13.692
56909SOL    HW272567  11.017   9.952  13.798
56910SOL     OW72568   0.565   9.303   9.962
56910SOL    HW172569   0.628   9.323  10.031
56910SOL    HW272570   0.489   9.269  10.009
56911SOL     OW72571   1.378   3.288   5.892
56911SOL    HW172572   1.456   3.287   5.837
56911SOL    HW272573   1.373   3.200   5.928
56912SOL     OW72574   4.067   3.004  14.546
56912SOL    HW172575   4.069   3.098  14.528
56912SOL    HW272576   4.150   2.986  14.589
56913SOL     OW72577   3.828  12.768   5.006
56913SOL    HW172578   3.744  12.767   4.960
56913SOL    HW272579   3.820  12.840   5.068
56914SOL     OW72580   5.250   8.809   0.036
56914SOL    HW172581   5.340   8.779   0.044
56914SOL    HW272582   5.258   8.897  14.873
56915SOL     OW72583  12.749   6.460  13.772
56915SOL    HW172584  12.722   6.467  13.863
56915SOL    HW272585  12.722   6.372  13.746
56916SOL     OW72586   9.729   5.992   5.407
56916SOL    HW172587   9.663   6.052   5.441
56916SOL    HW272588   9.760   6.033   5.327
56917SOL     OW72589   7.150   3.252  14.791
56917SOL    HW172590   7.233   3.277  14.832
56917SOL    HW272591   7.093   3.328  14.803
56918SOL     OW72592   6.037   7.584   6.578
56918SOL    HW172593   6.016   7.501   6.622
56918SOL    HW272594   6.094   7.558   6.506
56919SOL     OW72595   0.596  13.395   7.493
56919SOL    HW172596   0.684  13.429   7.513
56919SOL    HW272597   0.560  13.458   7.430
56920SOL     OW72598  13.347  13.478   7.749
56920SOL    HW172599  13.381  13.551   7.801
56920SOL    HW272600  13.260  13.508   7.722
56921SOL     OW72601  10.379  11.011   9.672
56921SOL    HW172602  10.318  11.062   9.619
56921SOL    HW272603  10.399  10.934   9.619
56922SOL     OW72604  11.997  13.739   2.490
56922SOL    HW172605  12.039  13.725   2.575
56922SOL    HW272606  12.050  13.689   2.429
56923SOL     OW72607   8.738   5.744   2.341
56923SOL    HW172608   8.732   5.656   2.306
56923SOL    HW272609   8.810   5.785   2.293
56924SOL     OW72610   3.188   8.372   0.748
56924SOL    HW172611   3.154   8.434   0.683
56924SOL    HW272612   3.252   8.423   0.798
56925SOL     OW72613  13.082   1.027   0.168
56925SOL    HW172614  13.046   1.079   0.097
56925SOL    HW272615  13.029   0.948   0.170
56926SOL     OW72616   2.110   8.691  11.190
56926SOL    HW172617   2.105   8.601  11.159
56926SOL    HW272618   2.075   8.743  11.117
56927SOL     OW72619   4.168   8.873   1.385
56927SOL    HW172620   4.105   8.802   1.379
56927SOL    HW272621   4.128   8.945   1.336
56928SOL     OW72622   6.936   8.909   5.158
56928SOL    HW172623   6.991   8.942   5.086
56928SOL    HW272624   6.996   8.902   5.232
56929SOL     OW72625   1.044   8.123  11.373
56929SOL    HW172626   1.115   8.111  11.436
56929SOL    HW272627   0.987   8.047  11.387
56930SOL     OW72628   2.191   7.667  13.433
56930SOL    HW172629   2.202   7.661  13.338
56930SOL    HW272630   2.223   7.754  13.456
56931SOL     OW72631   4.682   9.549  12.657
56931SOL    HW172632   4.635   9.514  12.582
56931SOL    HW272633   4.613   9.585  12.714
56932SOL     OW72634   8.906   3.434   8.927
56932SOL    HW172635   8.816   3.402   8.939
56932SOL    HW272636   8.959   3.355   8.920
56933SOL     OW72637  10.754   4.434   6.232
56933SOL    HW172638  10.767   4.529   6.239
56933SOL    HW272639  10.727   4.420   6.141
56934SOL     OW72640   9.176   6.017  12.363
56934SOL    HW172641   9.253   6.008  12.305
56934SOL    HW272642   9.206   5.985  12.448
56935SOL     OW72643   0.197   7.472   9.875
56935SOL    HW172644   0.225   7.479   9.783
56935SOL    HW272645   0.166   7.560   9.897
56936SOL     OW72646   0.025   7.367  13.042
56936SOL    HW172647   0.108   7.378  12.995
56936SOL    HW272648  14.844   7.439  13.011
56937SOL     OW72649  12.021  11.213  11.785
56937SOL    HW172650  11.977  11.208  11.870
56937SOL    HW272651  12.032  11.122  11.758
56938SOL     OW72652  13.925  13.276  10.700
56938SOL    HW172653  13.998  13.261  10.639
56938SOL    HW272654  13.868  13.201  10.689
56939SOL     OW72655   6.895   4.435  13.937
56939SOL    HW172656   6.912   4.495  13.865
56939SOL    HW272657   6.806   4.402  13.919
56940SOL     OW72658   0.210   2.956   9.969
56940SOL    HW172659   0.279   2.891   9.956
56940SOL    HW272660   0.139   2.907  10.011
56941SOL     OW72661  13.496   7.679   0.097
56941SOL    HW172662  13.432   7.744   0.067
56941SOL    HW272663  13.517   7.706   0.187
56942SOL     OW72664   1.781   2.050  14.575
56942SOL    HW172665   1.730   1.969  14.583
56942SOL    HW272666   1.855   2.026  14.519
56943SOL     OW72667   4.931   9.808   1.233
56943SOL    HW172668   4.875   9.884   1.248
56943SOL    HW272669   4.898   9.768   1.153
56944SOL     OW72670   1.194   5.848   5.681
56944SOL    HW172671   1.192   5.886   5.769
56944SOL    HW272672   1.153   5.762   5.690
56945SOL     OW72673   1.440  14.826   4.891
56945SOL    HW172674   1.438  14.731   4.906
56945SOL    HW272675   1.529  14.852   4.914
56946SOL     OW72676   2.077   7.007   2.511
56946SOL    HW172677   2.070   7.093   2.551
56946SOL    HW272678   2.063   7.022   2.418
56947SOL     OW72679  13.426   0.330  14.701
56947SOL    HW172680  13.463   0.391  14.765
56947SOL    HW272681  13.394   0.387  14.630
56948SOL     OW72682   6.271   6.483   5.609
56948SOL    HW172683   6.222   6.564   5.623
56948SOL    HW272684   6.290   6.482   5.515
56949SOL     OW72685   4.763   6.569   7.759
56949SOL    HW172686   4.820   6.578   7.836
56949SOL    HW272687   4.821   6.534   7.692
56950SOL     OW72688   0.933   5.232  11.192
56950SOL    HW172689   0.991   5.156  11.192
56950SOL    HW272690   0.937   5.266  11.281
56951SOL     OW72691   2.115   7.115   0.285
56951SOL    HW172692   2.152   7.039   0.242
56951SOL    HW272693   2.190   7.174   0.298
56952SOL     OW72694  10.858   2.588   1.290
56952SOL    HW172695  10.769   2.605   1.322
56952SOL    HW272696  10.889   2.515   1.342
56953SOL     OW72697   9.835   5.774  10.302
56953SOL    HW172698   9.863   5.729  10.381
56953SOL    HW272699   9.743   5.797  10.318
56954SOL     OW72700   9.605   9.709   8.335
56954SOL    HW172701   9.610   9.677   8.245
56954SOL    HW272702   9.696   9.715   8.364
56955SOL     OW72703   3.283  12.344   7.124
56955SOL    HW172704   3.244  12.350   7.037
56955SOL    HW272705   3.235  12.409   7.176
56956SOL     OW72706   8.078   3.579   8.473
56956SOL    HW172707   8.035   3.544   8.395
56956SOL    HW272708   8.160   3.531   8.479
56957SOL     OW72709   0.040   0.133   3.170
56957SOL    HW172710   0.104   0.095   3.231
56957SOL    HW272711  14.839   0.075   3.175
56958SOL     OW72712  12.329   3.579   9.926
56958SOL    HW172713  12.234   3.594   9.918
56958SOL    HW272714  12.341   3.486   9.906
56959SOL     OW72715  11.291   2.277   7.059
56959SOL    HW172716  11.358   2.304   7.122
56959SOL    HW272717  11.303   2.337   6.985
56960SOL     OW72718  11.455   5.402   0.968
56960SOL    HW172719  11.546   5.434   0.969
56960SOL    HW272720  11.433   5.395   0.876
56961SOL     OW72721  13.874   3.721   6.826
56961SOL    HW172722  13.789   3.676   6.828
56961SOL    HW272723  13.852   3.814   6.826
56962SOL     OW72724   5.436   2.724   6.313
56962SOL    HW172725   5.387   2.652   6.353
56962SOL    HW272726   5.373   2.766   6.254
56963SOL     OW72727   9.974   6.834   6.429
56963SOL    HW172728   9.925   6.752   6.423
56963SOL    HW272729  10.017   6.843   6.344
56964SOL     OW72730  10.942   8.014   6.235
56964SOL    HW172731  10.950   8.086   6.298
56964SOL    HW272732  10.886   7.950   6.279
56965SOL     OW72733   1.109   4.046   6.642
56965SOL    HW172734   1.130   4.010   6.728
56965SOL    HW272735   1.036   4.106   6.659
56966SOL     OW72736  10.356   3.864   6.898
56966SOL    HW172737  10.271   3.899   6.923
56966SOL    HW272738  10.347   3.769   6.904
56967SOL     OW72739   4.042   4.195  10.169
56967SOL    HW172740   4.137   4.186  10.177
56967SOL    HW272741   4.020   4.267  10.228
56968SOL     OW72742   1.597   8.047   3.280
56968SOL    HW172743   1.578   7.959   3.312
56968SOL    HW272744   1.529   8.102   3.317
56969SOL     OW72745   4.918   9.338  11.689
56969SOL    HW172746   4.911   9.254  11.735
56969SOL    HW272747   4.940   9.401  11.757
56970SOL     OW72748   4.876   0.603   9.126
56970SOL    HW172749   4.879   0.662   9.050
56970SOL    HW272750   4.916   0.522   9.095
56971SOL     OW72751  13.286   8.246   4.381
56971SOL    HW172752  13.232   8.281   4.310
56971SOL    HW272753  13.274   8.152   4.376
56972SOL     OW72754  10.952  14.530   9.813
56972SOL    HW172755  11.038  14.531   9.857
56972SOL    HW272756  10.916  14.616   9.830
56973SOL     OW72757   7.561   8.034   1.848
56973SOL    HW172758   7.582   8.056   1.757
56973SOL    HW272759   7.632   8.074   1.899
56974SOL     OW72760  10.957   3.131   7.966
56974SOL    HW172761  10.955   3.160   8.057
56974SOL    HW272762  11.035   3.076   7.959
56975SOL     OW72763  14.523   1.106   3.636
56975SOL    HW172764  14.539   1.093   3.543
56975SOL    HW272765  14.462   1.036   3.660
56976SOL     OW72766   7.675   6.250  14.683
56976SOL    HW172767   7.742   6.317  14.673
56976SOL    HW272768   7.594   6.300  14.699
56977SOL     OW72769   2.131   2.336   5.921
56977SOL    HW172770   2.217   2.366   5.949
56977SOL    HW272771   2.129   2.353   5.827
56978SOL     OW72772   2.790   9.493   6.617
56978SOL    HW172773   2.716   9.517   6.561
56978SOL    HW272774   2.848   9.569   6.613
56979SOL     OW72775  10.413  10.779   5.709
56979SOL    HW172776  10.422  10.834   5.787
56979SOL    HW272777  10.468  10.822   5.643
56980SOL     OW72778  11.496   3.420   2.768
56980SOL    HW172779  11.592   3.419   2.771
56980SOL    HW272780  11.471   3.478   2.840
56981SOL     OW72781  10.355   9.077  12.528
56981SOL    HW172782  10.412   9.007  12.559
56981SOL    HW272783  10.321   9.044  12.445
56982SOL     OW72784   6.623   4.405  11.871
56982SOL    HW172785   6.585   4.325  11.907
56982SOL    HW272786   6.665   4.447  11.946
56983SOL     OW72787   3.579  14.378   3.955
56983SOL    HW172788   3.554  14.464   3.920
56983SOL    HW272789   3.525  14.367   4.033
56984SOL     OW72790   8.413   1.139   7.969
56984SOL    HW172791   8.383   1.205   8.031
56984SOL    HW272792   8.503   1.165   7.948
56985SOL     OW72793   5.994   3.448  11.931
56985SOL    HW172794   5.948   3.531  11.925
56985SOL    HW272795   5.982   3.406  11.846
56986SOL     OW72796   4.331  12.254   0.215
56986SOL    HW172797   4.303  12.243   0.306
56986SOL    HW272798   4.411  12.202   0.208
56987SOL     OW72799   4.546   1.606  12.651
56987SOL    HW172800   4.510   1.540  12.710
56987SOL    HW272801   4.470   1.637  12.601
56988SOL     OW72802   9.695   0.533   0.589
56988SOL    HW172803   9.697   0.493   0.676
56988SOL    HW272804   9.684   0.626   0.605
56989SOL     OW72805   2.461   2.576  14.182
56989SOL    HW172806   2.394   2.553  14.247
56989SOL    HW272807   2.529   2.620  14.233
56990SOL     OW72808   1.894   6.289  11.854
56990SOL    HW172809   1.851   6.230  11.792
56990SOL    HW272810   1.979   6.309  11.814
56991SOL     OW72811   3.012   7.732  12.605
56991SOL    HW172812   2.921   7.761  12.610
56991SOL    HW272813   3.063   7.811  12.623
56992SOL     OW72814  12.841   7.202  11.950
56992SOL    HW172815  12.878   7.197  11.862
56992SOL    HW272816  12.781   7.277  11.946
56993SOL     OW72817   8.454  10.101   5.014
56993SOL    HW172818   8.369  10.061   5.032
56993SOL    HW272819   8.517  10.028   5.021
56994SOL     OW72820  10.970   4.858  13.743
56994SOL    HW172821  10.984   4.826  13.654
56994SOL    HW272822  10.915   4.792  13.784
56995SOL     OW72823   9.098   1.183   1.953
56995SOL    HW172824   9.127   1.272   1.933
56995SOL    HW272825   9.145   1.160   2.033
56996SOL     OW72826   5.367  10.108   3.770
56996SOL    HW172827   5.451  10.154   3.770
56996SOL    HW272828   5.388  10.018   3.795
56997SOL     OW72829   3.046   7.880   8.445
56997SOL    HW172830   3.123   7.824   8.457
56997SOL    HW272831   3.047   7.937   8.522
56998SOL     OW72832   1.013   2.909  10.108
56998SOL    HW172833   1.100   2.901  10.067
56998SOL    HW272834   0.982   2.995  10.080
56999SOL     OW72835   1.231  12.693  11.658
56999SOL    HW172836   1.220  12.604  11.689
56999SOL    HW272837   1.143  12.720  11.632
57000SOL     OW72838   4.640   0.235   0.375
57000SOL    HW172839   4.682   0.285   0.305
57000SOL    HW272840   4.710   0.182   0.413
57001SOL     OW72841  14.433   5.275   4.959
57001SOL    HW172842  14.398   5.200   4.911
57001SOL    HW272843  14.452   5.241   5.047
57002SOL     OW72844  14.502   4.854   2.600
57002SOL    HW172845  14.465   4.853   2.512
57002SOL    HW272846  14.590   4.816   2.590
57003SOL     OW72847   3.896   8.970   4.229
57003SOL    HW172848   3.865   8.953   4.318
57003SOL    HW272849   3.949   8.893   4.207
57004SOL     OW72850   1.321   3.856   8.102
57004SOL    HW172851   1.288   3.874   8.015
57004SOL    HW272852   1.367   3.772   8.093
57005SOL     OW72853   5.408   2.005   3.244
57005SOL    HW172854   5.432   2.004   3.152
57005SOL    HW272855   5.407   2.098   3.268
57006SOL     OW72856   8.149   3.794  10.548
57006SOL    HW172857   8.110   3.708  10.567
57006SOL    HW272858   8.142   3.842  10.630
57007SOL     OW72859   0.989  12.181  12.715
57007SOL    HW172860   1.076  12.167  12.676
57007SOL    HW272861   0.995  12.141  12.802
57008SOL     OW72862  11.315   8.758   8.412
57008SOL    HW172863  11.339   8.706   8.335
57008SOL    HW272864  11.356   8.712   8.485
57009SOL     OW72865   7.060   3.202  11.606
57009SOL    HW172866   7.075   3.110  11.627
57009SOL    HW272867   6.965   3.209  11.595
57010SOL     OW72868   7.619   8.936   5.684
57010SOL    HW172869   7.699   8.920   5.634
57010SOL    HW272870   7.645   8.923   5.775
57011SOL     OW72871   3.035  11.775   2.179
57011SOL    HW172872   2.986  11.856   2.163
57011SOL    HW272873   2.968  11.710   2.198
57012SOL     OW72874   0.817  14.200   6.594
57012SOL    HW172875   0.878  14.164   6.659
57012SOL    HW272876   0.874  14.235   6.525
57013SOL     OW72877  12.813   0.419   3.657
57013SOL    HW172878  12.893   0.368   3.647
57013SOL    HW272879  12.750   0.357   3.693
57014SOL     OW72880  14.701   1.792   6.395
57014SOL    HW172881  14.756   1.817   6.469
57014SOL    HW272882  14.680   1.875   6.352
57015SOL     OW72883   0.296   2.505   2.252
57015SOL    HW172884   0.276   2.438   2.317
57015SOL    HW272885   0.354   2.462   2.189
57016SOL     OW72886   3.041   5.789   6.966
57016SOL    HW172887   3.008   5.795   7.055
57016SOL    HW272888   3.046   5.879   6.935
57017SOL     OW72889  14.604   3.970  13.321
57017SOL    HW172890  14.594   4.029  13.396
57017SOL    HW272891  14.613   3.883  13.360
57018SOL     OW72892   2.052   9.633   4.748
57018SOL    HW172893   2.098   9.570   4.692
57018SOL    HW272894   2.004   9.579   4.810
57019SOL     OW72895   3.844   6.457   1.256
57019SOL    HW172896   3.748   6.463   1.255
57019SOL    HW272897   3.869   6.481   1.345
57020SOL     OW72898  11.379  12.057  10.601
57020SOL    HW172899  11.400  12.054  10.694
57020SOL    HW272900  11.463  12.077  10.558
57021SOL     OW72901   5.772   0.226   6.296
57021SOL    HW172902   5.822   0.159   6.343
57021SOL    HW272903   5.691   0.181   6.270
57022SOL     OW72904  12.522  14.608  10.568
57022SOL    HW172905  12.580  14.588  10.495
57022SOL    HW272906  12.467  14.680  10.536
57023SOL     OW72907   6.054  14.246   4.679
57023SOL    HW172908   6.128  14.270   4.735
57023SOL    HW272909   6.006  14.328   4.667
57024SOL     OW72910  14.526  10.111   8.228
57024SOL    HW172911  14.518  10.131   8.135
57024SOL    HW272912  14.557  10.193   8.268
57025SOL     OW72913  10.638  10.727  14.790
57025SOL    HW172914  10.632  10.688  14.703
57025SOL    HW272915  10.680  10.660  14.844
57026SOL     OW72916   5.153   4.803   8.395
57026SOL    HW172917   5.202   4.806   8.313
57026SOL    HW272918   5.213   4.839   8.460
57027SOL     OW72919  11.965   3.475  14.277
57027SOL    HW172920  12.021   3.517  14.212
57027SOL    HW272921  12.021   3.464  14.353
57028SOL     OW72922   5.676  13.876  11.759
57028SOL    HW172923   5.748  13.866  11.696
57028SOL    HW272924   5.660  13.787  11.790
57029SOL     OW72925  11.398   4.993  12.817
57029SOL    HW172926  11.320   5.002  12.764
57029SOL    HW272927  11.381   4.918  12.874
57030SOL     OW72928   9.671   5.457   1.887
57030SOL    HW172929   9.595   5.445   1.830
57030SOL    HW272930   9.686   5.371   1.926
57031SOL     OW72931  12.852   0.765   7.370
57031SOL    HW172932  12.784   0.801   7.426
57031SOL    HW272933  12.816   0.770   7.282
57032SOL     OW72934   7.582   6.026  13.299
57032SOL    HW172935   7.665   5.995  13.264
57032SOL    HW272936   7.550   6.089  13.234
57033SOL     OW72937  13.090   7.342   2.826
57033SOL    HW172938  13.003   7.381   2.830
57033SOL    HW272939  13.085   7.266   2.883
57034SOL     OW72940  14.666  10.900  13.760
57034SOL    HW172941  14.633  10.811  13.766
57034SOL    HW272942  14.734  10.905  13.827
57035SOL     OW72943   9.108   4.319   4.016
57035SOL    HW172944   9.035   4.264   4.045
57035SOL    HW272945   9.075   4.362   3.937
57036SOL     OW72946   5.531   7.063   2.319
57036SOL    HW172947   5.569   7.131   2.264
57036SOL    HW272948   5.607   7.019   2.359
57037SOL     OW72949   2.209   6.556   7.906
57037SOL    HW172950   2.126   6.588   7.871
57037SOL    HW272951   2.224   6.473   7.861
57038SOL     OW72952   0.531   7.200   3.252
57038SOL    HW172953   0.460   7.137   3.260
57038SOL    HW272954   0.592   7.159   3.191
57039SOL     OW72955   4.563   5.739  12.759
57039SOL    HW172956   4.476   5.707  12.735
57039SOL    HW272957   4.563   5.831  12.734
57040SOL     OW72958   0.003  13.665   9.719
57040SOL    HW172959   0.080  13.721   9.727
57040SOL    HW272960   0.005  13.632   9.630
57041SOL     OW72961   0.421  12.592   7.599
57041SOL    HW172962   0.496  12.651   7.589
57041SOL    HW272963   0.435  12.524   7.533
57042SOL     OW72964  11.088  13.377  12.698
57042SOL    HW172965  11.037  13.422  12.631
57042SOL    HW272966  11.118  13.297  12.655
57043SOL     OW72967   2.768  14.718   3.537
57043SOL    HW172968   2.786  14.705   3.443
57043SOL    HW272969   2.754  14.812   3.545
57044SOL     OW72970  12.284   0.395   4.354
57044SOL    HW172971  12.261   0.484   4.377
57044SOL    HW272972  12.226   0.373   4.280
57045SOL     OW72973  14.255   9.737   3.372
57045SOL    HW172974  14.327   9.745   3.434
57045SOL    HW272975  14.222   9.827   3.363
57046SOL     OW72976  11.650  12.557   2.956
57046SOL    HW172977  11.716  12.573   3.024
57046SOL    HW272978  11.576  12.518   3.003
57047SOL     OW72979   7.717   0.953  14.069
57047SOL    HW172980   7.784   0.891  14.039
57047SOL    HW272981   7.726   1.027  14.009
57048SOL     OW72982   6.615   5.165   8.264
57048SOL    HW172983   6.645   5.170   8.355
57048SOL    HW272984   6.617   5.071   8.244
57049SOL     OW72985   3.327   5.819   8.524
57049SOL    HW172986   3.250   5.868   8.493
57049SOL    HW272987   3.355   5.865   8.603
57050SOL     OW72988  10.406   5.341   5.793
57050SOL    HW172989  10.358   5.397   5.853
57050SOL    HW272990  10.466   5.401   5.748
57051SOL     OW72991   2.676   2.011   1.593
57051SOL    HW172992   2.607   2.008   1.527
57051SOL    HW272993   2.756   2.031   1.544
57052SOL     OW72994   0.197   3.316   0.744
57052SOL    HW172995   0.287   3.349   0.751
57052SOL    HW272996   0.187   3.255   0.817
57053SOL     OW72997  13.876  10.653  11.498
57053SOL    HW172998  13.867  10.611  11.413
57053SOL    HW272999  13.953  10.709  11.489
57054SOL     OW73000  10.074   0.670  10.752
57054SOL    HW173001  10.165   0.699  10.762
57054SOL    HW273002  10.079   0.575  10.762
57055SOL     OW73003  13.751  13.010   5.165
57055SOL    HW173004  13.717  13.045   5.083
57055SOL    HW273005  13.836  12.974   5.142
57056SOL     OW73006  10.473   1.510  11.616
57056SOL    HW173007  10.446   1.451  11.686
57056SOL    HW273008  10.562   1.536  11.640
57057SOL     OW73009   6.284  13.505   1.583
57057SOL    HW173010   6.348  13.575   1.598
57057SOL    HW273011   6.200  13.550   1.582
57058SOL     OW73012   1.270   4.217  12.167
57058SOL    HW173013   1.362   4.195  12.182
57058SOL    HW273014   1.235   4.143  12.118
57059SOL     OW73015   0.270   5.474   3.510
57059SOL    HW173016   0.209   5.422   3.457
57059SOL    HW273017   0.220   5.498   3.588
57060SOL     OW73018   6.446   6.003   0.095
57060SOL    HW173019   6.388   5.941   0.139
57060SOL    HW273020   6.412   6.009   0.006
57061SOL     OW73021  12.416  10.728  10.097
57061SOL    HW173022  12.388  10.636  10.101
57061SOL    HW273023  12.408  10.751  10.005
57062SOL     OW73024   6.694   9.968   5.079
57062SOL    HW173025   6.656   9.974   5.167
57062SOL    HW273026   6.788   9.959   5.094
57063SOL     OW73027   0.050   1.728  10.059
57063SOL    HW173028   0.008   1.667  10.120
57063SOL    HW273029   0.078   1.802  10.114
57064SOL     OW73030  13.445   0.414   5.928
57064SOL    HW173031  13.532   0.380   5.952
57064SOL    HW273032  13.461   0.472   5.854
57065SOL     OW73033  12.343   5.226   0.067
57065SOL    HW173034  12.352   5.220   0.163
57065SOL    HW273035  12.249   5.226   0.052
57066SOL     OW73036   8.101   1.403   9.593
57066SOL    HW173037   8.182   1.430   9.551
57066SOL    HW273038   8.101   1.308   9.586
57067SOL     OW73039  14.322  10.118   5.855
57067SOL    HW173040  14.406  10.079   5.829
57067SOL    HW273041  14.265  10.043   5.871
57068SOL     OW73042  12.322   3.192   8.264
57068SOL    HW173043  12.351   3.101   8.272
57068SOL    HW273044  12.267   3.193   8.186
57069SOL     OW73045  13.814   4.418   6.019
57069SOL    HW173046  13.859   4.497   5.989
57069SOL    HW273047  13.856   4.347   5.972
57070SOL     OW73048  14.119   7.461   7.506
57070SOL    HW173049  14.055   7.515   7.554
57070SOL    HW273050  14.077   7.445   7.422
57071SOL     OW73051  11.566  11.700   7.673
57071SOL    HW173052  11.590  11.755   7.748
57071SOL    HW273053  11.513  11.630   7.711
57072SOL     OW73054   7.942   2.564  11.100
57072SOL    HW173055   7.914   2.493  11.043
57072SOL    HW273056   8.025   2.534  11.136
57073SOL     OW73057   5.887   4.772   9.349
57073SOL    HW173058   5.837   4.782   9.430
57073SOL    HW273059   5.939   4.851   9.342
57074SOL     OW73060  13.653  14.708   3.529
57074SOL    HW173061  13.625  14.734   3.441
57074SOL    HW273062  13.681  14.790   3.570
57075SOL     OW73063   5.875   9.008   0.164
57075SOL    HW173064   5.784   9.019   0.136
57075SOL    HW273065   5.926   9.057   0.100
57076SOL     OW73066   3.374   0.733   7.212
57076SOL    HW173067   3.416   0.819   7.219
57076SOL    HW273068   3.416   0.691   7.137
57077SOL     OW73069   8.926   8.293   9.824
57077SOL    HW173070   9.000   8.339   9.785
57077SOL    HW273071   8.966   8.234   9.889
57078SOL     OW73072   0.510   8.915   1.618
57078SOL    HW173073   0.572   8.985   1.601
57078SOL    HW273074   0.449   8.951   1.682
57079SOL     OW73075  11.078   7.911  13.093
57079SOL    HW173076  10.983   7.897  13.092
57079SOL    HW273077  11.091   7.981  13.157
57080SOL     OW73078  11.181  13.726   9.160
57080SOL    HW173079  11.153  13.817   9.162
57080SOL    HW273080  11.262  13.725   9.211
57081SOL     OW73081   7.322  12.847   0.051
57081SOL    HW173082   7.354  12.799  14.848
57081SOL    HW273083   7.355  12.936   0.039
57082SOL     OW73084   3.274   8.360  13.869
57082SOL    HW173085   3.217   8.306  13.923
57082SOL    HW273086   3.346   8.384  13.926
57083SOL     OW73087   2.101  11.091   4.108
57083SOL    HW173088   2.076  11.112   4.198
57083SOL    HW273089   2.019  11.064   4.067
57084SOL     OW73090   6.197  12.612   2.341
57084SOL    HW173091   6.160  12.568   2.418
57084SOL    HW273092   6.187  12.548   2.270
57085SOL     OW73093  14.605   1.640  14.446
57085SOL    HW173094  14.573   1.686  14.524
57085SOL    HW273095  14.650   1.708  14.396
57086SOL     OW73096   5.711   6.445   6.010
57086SOL    HW173097   5.765   6.450   6.089
57086SOL    HW273098   5.639   6.387   6.034
57087SOL     OW73099   8.867   7.093   3.701
57087SOL    HW173100   8.812   7.137   3.765
57087SOL    HW273101   8.838   7.127   3.616
57088SOL     OW73102   6.700   9.792   8.275
57088SOL    HW173103   6.779   9.774   8.224
57088SOL    HW273104   6.684   9.886   8.264
57089SOL     OW73105   7.042   2.685   0.680
57089SOL    HW173106   7.036   2.591   0.693
57089SOL    HW273107   6.991   2.702   0.601
57090SOL     OW73108   9.962  11.038   3.909
57090SOL    HW173109   9.951  11.112   3.850
57090SOL    HW273110   9.891  11.047   3.973
57091SOL     OW73111   6.258  11.875   8.139
57091SOL    HW173112   6.199  11.800   8.140
57091SOL    HW273113   6.311  11.866   8.219
57092SOL     OW73114   3.762   4.785  11.424
57092SOL    HW173115   3.781   4.796  11.517
57092SOL    HW273116   3.671   4.756  11.421
57093SOL     OW73117  13.260  13.410  13.918
57093SOL    HW173118  13.173  13.442  13.945
57093SOL    HW273119  13.320  13.480  13.942
57094SOL     OW73120  13.009  10.978   3.176
57094SOL    HW173121  13.024  10.895   3.130
57094SOL    HW273122  13.090  11.027   3.162
57095SOL     OW73123  10.004   4.625   5.328
57095SOL    HW173124  10.007   4.530   5.340
57095SOL    HW273125  10.095   4.649   5.308
57096SOL     OW73126   6.010   6.182   4.633
57096SOL    HW173127   5.975   6.248   4.694
57096SOL    HW273128   5.994   6.099   4.677
57097SOL     OW73129   3.949   7.342   8.677
57097SOL    HW173130   3.997   7.301   8.605
57097SOL    HW273131   3.966   7.436   8.666
57098SOL     OW73132   5.638   2.646   4.772
57098SOL    HW173133   5.591   2.672   4.693
57098SOL    HW273134   5.708   2.711   4.781
57099SOL     OW73135   8.639   5.368   9.431
57099SOL    HW173136   8.672   5.381   9.520
57099SOL    HW273137   8.696   5.300   9.395
57100SOL     OW73138   0.818   6.058   2.221
57100SOL    HW173139   0.877   5.982   2.219
57100SOL    HW273140   0.866   6.124   2.270
57101SOL     OW73141   8.216   0.503  10.505
57101SOL    HW173142   8.232   0.592  10.535
57101SOL    HW273143   8.238   0.504  10.412
57102SOL     OW73144   2.576   9.217   4.037
57102SOL    HW173145   2.548   9.281   3.971
57102SOL    HW273146   2.643   9.263   4.088
57103SOL     OW73147   2.934  14.418   1.410
57103SOL    HW173148   2.973  14.384   1.491
57103SOL    HW273149   2.922  14.340   1.355
57104SOL     OW73150  13.739   3.750   2.640
57104SOL    HW173151  13.812   3.719   2.694
57104SOL    HW273152  13.741   3.694   2.562
57105SOL     OW73153   5.536  10.876   9.341
57105SOL    HW173154   5.595  10.899   9.270
57105SOL    HW273155   5.570  10.793   9.375
57106SOL     OW73156   2.521   4.350   9.758
57106SOL    HW173157   2.440   4.306   9.732
57106SOL    HW273158   2.556   4.294   9.828
57107SOL     OW73159   2.741  12.253   0.874
57107SOL    HW173160   2.675  12.225   0.810
57107SOL    HW273161   2.742  12.349   0.866
57108SOL     OW73162   9.776  11.272   4.832
57108SOL    HW173163   9.713  11.282   4.904
57108SOL    HW273164   9.829  11.196   4.856
57109SOL     OW73165   3.978   0.186   1.099
57109SOL    HW173166   4.004   0.124   1.168
57109SOL    HW273167   3.894   0.153   1.068
57110SOL     OW73168  11.930  10.345   3.986
57110SOL    HW173169  11.885  10.263   4.006
57110SOL    HW273170  11.970  10.370   4.070
57111SOL     OW73171   2.102  12.716   8.801
57111SOL    HW173172   2.047  12.651   8.758
57111SOL    HW273173   2.122  12.678   8.886
57112SOL     OW73174   4.983  13.256   7.869
57112SOL    HW173175   4.956  13.302   7.789
57112SOL    HW273176   4.989  13.326   7.934
57113SOL     OW73177   9.018  12.815   7.236
57113SOL    HW173178   9.040  12.759   7.310
57113SOL    HW273179   9.089  12.801   7.174
57114SOL     OW73180   3.305  13.925   6.199
57114SOL    HW173181   3.217  13.891   6.183
57114SOL    HW273182   3.351  13.852   6.242
57115SOL     OW73183  14.021   3.048   2.843
57115SOL    HW173184  14.050   2.967   2.802
57115SOL    HW273185  13.939   3.026   2.887
57116SOL     OW73186  14.811   7.177   9.297
57116SOL    HW173187  14.769   7.122   9.363
57116SOL    HW273188   0.018   7.132   9.275
57117SOL     OW73189   7.144   8.882  12.290
57117SOL    HW173190   7.180   8.881  12.378
57117SOL    HW273191   7.097   8.799  12.282
57118SOL     OW73192   2.110  13.540   3.741
57118SOL    HW173193   2.088  13.631   3.722
57118SOL    HW273194   2.114  13.536   3.837
57119SOL     OW73195   0.698   5.350   9.292
57119SOL    HW173196   0.700   5.339   9.387
57119SOL    HW273197   0.682   5.262   9.258
57120SOL     OW73198   4.895  11.973   0.880
57120SOL    HW173199   4.875  12.059   0.917
57120SOL    HW273200   4.989  11.962   0.894
57121SOL     OW73201  11.278   3.400  14.577
57121SOL    HW173202  11.251   3.412  14.668
57121SOL    HW273203  11.201   3.362  14.533
57122SOL     OW73204   0.216   3.027   2.700
57122SOL    HW173205   0.169   2.992   2.774
57122SOL    HW273206   0.154   3.086   2.657
57123SOL     OW73207   9.789   2.680   2.107
57123SOL    HW173208   9.693   2.685   2.109
57123SOL    HW273209   9.808   2.587   2.094
57124SOL     OW73210   2.766   1.204   4.664
57124SOL    HW173211   2.742   1.278   4.720
57124SOL    HW273212   2.758   1.237   4.575
57125SOL     OW73213   0.902  12.839   2.778
57125SOL    HW173214   0.850  12.793   2.713
57125SOL    HW273215   0.977  12.873   2.730
57126SOL     OW73216  12.521   3.846  14.194
57126SOL    HW173217  12.484   3.831  14.107
57126SOL    HW273218  12.475   3.784  14.250
57127SOL     OW73219   6.819   4.024   1.651
57127SOL    HW173220   6.903   4.036   1.697
57127SOL    HW273221   6.764   4.096   1.683
57128SOL     OW73222  14.654   3.278   5.331
57128SOL    HW173223  14.731   3.244   5.376
57128SOL    HW273224  14.610   3.201   5.295
57129SOL     OW73225   7.437   9.920  13.253
57129SOL    HW173226   7.523   9.918  13.210
57129SOL    HW273227   7.375   9.928  13.181
57130SOL     OW73228   7.730  13.069  10.074
57130SOL    HW173229   7.760  13.002  10.012
57130SOL    HW273230   7.807  13.086  10.129
57131SOL     OW73231  12.964  10.012   5.402
57131SOL    HW173232  12.996  10.100   5.380
57131SOL    HW273233  13.027   9.953   5.362
57132SOL     OW73234   6.634   7.691   6.450
57132SOL    HW173235   6.676   7.619   6.403
57132SOL    HW273236   6.657   7.675   6.542
57133SOL     OW73237   1.052  13.061   8.379
57133SOL    HW173238   0.996  13.138   8.378
57133SOL    HW273239   1.125  13.086   8.435
57134SOL     OW73240   3.825   1.567   3.552
57134SOL    HW173241   3.906   1.584   3.600
57134SOL    HW273242   3.786   1.493   3.599
57135SOL     OW73243  12.820   9.030  13.109
57135SOL    HW173244  12.899   9.056  13.061
57135SOL    HW273245  12.847   8.952  13.158
57136SOL     OW73246   6.237  11.280  12.488
57136SOL    HW173247   6.220  11.206  12.547
57136SOL    HW273248   6.265  11.351  12.545
57137SOL     OW73249   2.378   9.489   5.144
57137SOL    HW173250   2.293   9.525   5.169
57137SOL    HW273251   2.369   9.467   5.051
57138SOL     OW73252   8.772  13.840  11.235
57138SOL    HW173253   8.711  13.914  11.239
57138SOL    HW273254   8.847  13.868  11.288
57139SOL     OW73255   4.554  13.098  10.666
57139SOL    HW173256   4.547  13.003  10.663
57139SOL    HW273257   4.634  13.118  10.617
57140SOL     OW73258   5.592  10.262   3.800
57140SOL    HW173259   5.666  10.232   3.747
57140SOL    HW273260   5.574  10.350   3.768
57141SOL     OW73261   4.531  13.636   6.131
57141SOL    HW173262   4.512  13.561   6.188
57141SOL    HW273263   4.459  13.637   6.068
57142SOL     OW73264   7.895  12.645   7.418
57142SOL    HW173265   7.824  12.706   7.441
57142SOL    HW273266   7.975  12.690   7.448
57143SOL     OW73267   1.962  12.840  14.071
57143SOL    HW173268   1.973  12.784  13.993
57143SOL    HW273269   1.869  12.834  14.092
57144SOL     OW73270   2.628   8.392  10.403
57144SOL    HW173271   2.564   8.407  10.472
57144SOL    HW273272   2.713   8.392  10.448
57145SOL     OW73273   3.721   2.755   1.741
57145SOL    HW173274   3.637   2.711   1.751
57145SOL    HW273275   3.739   2.752   1.647
57146SOL     OW73276  10.809   5.956   3.296
57146SOL    HW173277  10.836   5.867   3.319
57146SOL    HW273278  10.762   5.946   3.213
57147SOL     OW73279   0.584  13.168   9.378
57147SOL    HW173280   0.597  13.262   9.389
57147SOL    HW273281   0.489  13.158   9.364
57148SOL     OW73282  12.343   7.643   6.704
57148SOL    HW173283  12.296   7.593   6.770
57148SOL    HW273284  12.289   7.637   6.626
57149SOL     OW73285   5.449   3.484  10.727
57149SOL    HW173286   5.489   3.551  10.671
57149SOL    HW273287   5.508   3.409  10.721
57150SOL     OW73288  14.375   8.175   9.173
57150SOL    HW173289  14.286   8.156   9.143
57150SOL    HW273290  14.430   8.110   9.128
57151SOL     OW73291  12.932   5.804  10.031
57151SOL    HW173292  13.001   5.747   9.996
57151SOL    HW273293  12.961   5.893  10.008
57152SOL     OW73294  13.914   8.068  12.869
57152SOL    HW173295  13.862   8.106  12.797
57152SOL    HW273296  13.957   8.143  12.909
57153SOL     OW73297  13.241   2.507   8.353
57153SOL    HW173298  13.211   2.584   8.305
57153SOL    HW273299  13.239   2.533   8.445
57154SOL     OW73300   2.255  12.251   7.442
57154SOL    HW173301   2.277  12.338   7.409
57154SOL    HW273302   2.205  12.268   7.522
57155SOL     OW73303  10.517   3.464   7.183
57155SOL    HW173304  10.466   3.424   7.253
57155SOL    HW273305  10.608   3.453   7.210
57156SOL     OW73306   5.294   0.809   8.178
57156SOL    HW173307   5.365   0.872   8.164
57156SOL    HW273308   5.215   0.862   8.172
57157SOL     OW73309  10.306  13.514   1.367
57157SOL    HW173310  10.262  13.444   1.318
57157SOL    HW273311  10.236  13.577   1.387
57158SOL     OW73312   5.420   7.614   6.334
57158SOL    HW173313   5.391   7.526   6.358
57158SOL    HW273314   5.351   7.672   6.367
57159SOL     OW73315   7.505   5.430  12.996
57159SOL    HW173316   7.544   5.343  12.988
57159SOL    HW273317   7.468   5.432  13.084
57160SOL     OW73318   5.132   9.752  10.745
57160SOL    HW173319   5.176   9.738  10.828
57160SOL    HW273320   5.099   9.666  10.720
57161SOL     OW73321   5.114   3.579   5.690
57161SOL    HW173322   5.088   3.569   5.781
57161SOL    HW273323   5.185   3.643   5.691
57162SOL     OW73324   2.766   4.163  11.633
57162SOL    HW173325   2.827   4.185  11.703
57162SOL    HW273326   2.821   4.147  11.556
57163SOL     OW73327  14.103   7.025   5.808
57163SOL    HW173328  14.052   7.059   5.883
57163SOL    HW273329  14.151   7.101   5.776
57164SOL     OW73330   9.790   4.343   2.973
57164SOL    HW173331   9.756   4.254   2.981
57164SOL    HW273332   9.878   4.331   2.937
57165SOL     OW73333   8.572  14.677   6.017
57165SOL    HW173334   8.583  14.765   5.981
57165SOL    HW273335   8.661  14.641   6.019
57166SOL     OW73336  11.742  10.381   6.153
57166SOL    HW173337  11.776  10.470   6.142
57166SOL    HW273338  11.695  10.383   6.237
57167SOL     OW73339   9.913  13.867  13.092
57167SOL    HW173340   9.983  13.840  13.032
57167SOL    HW273341   9.838  13.813  13.068
57168SOL     OW73342   3.246   5.959   9.761
57168SOL    HW173343   3.312   6.021   9.732
57168SOL    HW273344   3.289   5.874   9.757
57169SOL     OW73345  14.080  10.869  13.186
57169SOL    HW173346  13.993  10.841  13.159
57169SOL    HW273347  14.126  10.788  13.207
57170SOL     OW73348   3.460   4.083  11.642
57170SOL    HW173349   3.458   4.151  11.709
57170SOL    HW273350   3.368   4.059  11.630
57171SOL     OW73351  13.081   4.683  12.669
57171SOL    HW173352  13.114   4.760  12.623
57171SOL    HW273353  13.118   4.609  12.622
57172SOL     OW73354   7.857   8.471  12.816
57172SOL    HW173355   7.798   8.544  12.800
57172SOL    HW273356   7.800   8.398  12.839
57173SOL     OW73357   8.325   4.032   2.853
57173SOL    HW173358   8.325   3.938   2.869
57173SOL    HW273359   8.278   4.069   2.929
57174SOL     OW73360  13.773   6.828   2.317
57174SOL    HW173361  13.679   6.843   2.326
57174SOL    HW273362  13.812   6.916   2.322
57175SOL     OW73363   1.504   6.186   4.505
57175SOL    HW173364   1.493   6.099   4.543
57175SOL    HW273365   1.587   6.217   4.541
57176SOL     OW73366   4.251  11.089   8.824
57176SOL    HW173367   4.186  11.156   8.843
57176SOL    HW273368   4.317  11.100   8.893
57177SOL     OW73369   1.294   6.829  11.028
57177SOL    HW173370   1.346   6.903  11.060
57177SOL    HW273371   1.285   6.772  11.104
57178SOL     OW73372   9.601   5.834   4.833
57178SOL    HW173373   9.540   5.886   4.781
57178SOL    HW273374   9.621   5.758   4.778
57179SOL     OW73375   0.712   2.732   4.622
57179SOL    HW173376   0.624   2.755   4.652
57179SOL    HW273377   0.699   2.650   4.573
57180SOL     OW73378  14.691   7.580   9.772
57180SOL    HW173379  14.716   7.572   9.864
57180SOL    HW273380  14.762   7.630   9.732
57181SOL     OW73381   9.281   0.275  13.341
57181SOL    HW173382   9.371   0.304  13.353
57181SOL    HW273383   9.236   0.352  13.305
57182SOL     OW73384   7.785  13.500  10.530
57182SOL    HW173385   7.841  13.511  10.607
57182SOL    HW273386   7.710  13.557  10.545
57183SOL     OW73387   2.589   0.963  10.637
57183SOL    HW173388   2.656   0.926  10.694
57183SOL    HW273389   2.508   0.921  10.664
57184SOL     OW73390   5.919   0.690   6.428
57184SOL    HW173391   5.875   0.771   6.455
57184SOL    HW273392   5.853   0.622   6.439
57185SOL     OW73393   6.717  13.023  13.936
57185SOL    HW173394   6.626  13.041  13.960
57185SOL    HW273395   6.714  13.006  13.842
57186SOL     OW73396   0.284   7.133   1.638
57186SOL    HW173397   0.258   7.041   1.641
57186SOL    HW273398   0.272   7.164   1.728
57187SOL     OW73399   8.455  14.372   2.058
57187SOL    HW173400   8.399  14.441   2.094
57187SOL    HW273401   8.410  14.291   2.081
57188SOL     OW73402   9.278  12.180  12.288
57188SOL    HW173403   9.319  12.108  12.335
57188SOL    HW273404   9.235  12.138  12.213
57189SOL     OW73405   0.820   1.010  14.724
57189SOL    HW173406   0.823   0.934  14.783
57189SOL    HW273407   0.909   1.045  14.725
57190SOL     OW73408   3.827   1.517  10.166
57190SOL    HW173409   3.883   1.561  10.230
57190SOL    HW273410   3.886   1.459  10.117
57191SOL     OW73411   3.735  14.829   5.670
57191SOL    HW173412   3.731   0.049   5.650
57191SOL    HW273413   3.818  14.818   5.716
57192SOL     OW73414   3.765  11.395   5.382
57192SOL    HW173415   3.773  11.299   5.379
57192SOL    HW273416   3.785  11.417   5.473
57193SOL     OW73417  10.208  11.187   6.987
57193SOL    HW173418  10.244  11.131   6.919
57193SOL    HW273419  10.114  11.165   6.989
57194SOL     OW73420   9.427  13.131  14.128
57194SOL    HW173421   9.347  13.080  14.112
57194SOL    HW273422   9.460  13.153  14.041
57195SOL     OW73423   5.479   1.453   9.181
57195SOL    HW173424   5.504   1.525   9.123
57195SOL    HW273425   5.513   1.479   9.267
57196SOL     OW73426  12.415   9.992  12.488
57196SOL    HW173427  12.402  10.070  12.434
57196SOL    HW273428  12.329   9.976  12.527
57197SOL     OW73429   2.192   7.836   5.920
57197SOL    HW173430   2.234   7.883   5.847
57197SOL    HW273431   2.099   7.838   5.899
57198SOL     OW73432  13.079   6.306   9.451
57198SOL    HW173433  13.102   6.326   9.361
57198SOL    HW273434  13.135   6.364   9.503
57199SOL     OW73435   6.799  10.714   3.172
57199SOL    HW173436   6.887  10.721   3.137
57199SOL    HW273437   6.756  10.649   3.116
57200SOL     OW73438   7.745  12.381   5.647
57200SOL    HW173439   7.742  12.457   5.705
57200SOL    HW273440   7.838  12.358   5.643
57201SOL     OW73441   2.884   0.682   4.616
57201SOL    HW173442   2.816   0.732   4.571
57201SOL    HW273443   2.871   0.700   4.709
57202SOL     OW73444   3.417   0.375  12.515
57202SOL    HW173445   3.338   0.327  12.487
57202SOL    HW273446   3.385   0.441  12.576
57203SOL     OW73447  10.225  12.026   7.085
57203SOL    HW173448  10.187  11.993   7.004
57203SOL    HW273449  10.152  12.070   7.129
57204SOL     OW73450   2.181   2.595   1.177
57204SOL    HW173451   2.095   2.558   1.160
57204SOL    HW273452   2.192   2.664   1.112
57205SOL     OW73453   0.341  11.415   7.145
57205SOL    HW173454   0.266  11.431   7.202
57205SOL    HW273455   0.416  11.414   7.204
57206SOL     OW73456   1.148  13.996   7.440
57206SOL    HW173457   1.070  14.037   7.402
57206SOL    HW273458   1.221  14.045   7.404
57207SOL     OW73459  14.676   4.286  12.544
57207SOL    HW173460  14.639   4.371  12.522
57207SOL    HW273461  14.756   4.281  12.493
57208SOL     OW73462   3.739   5.330   6.885
57208SOL    HW173463   3.795   5.258   6.915
57208SOL    HW273464   3.797   5.385   6.832
57209SOL     OW73465   2.874   0.293   9.354
57209SOL    HW173466   2.817   0.277   9.430
57209SOL    HW273467   2.963   0.286   9.389
57210SOL     OW73468   8.925   7.976   8.068
57210SOL    HW173469   8.895   8.063   8.096
57210SOL    HW273470   8.968   7.940   8.146
57211SOL     OW73471   8.477  14.457   3.377
57211SOL    HW173472   8.427  14.524   3.424
57211SOL    HW273473   8.563  14.497   3.363
57212SOL     OW73474   8.809  11.436   6.173
57212SOL    HW173475   8.804  11.343   6.195
57212SOL    HW273476   8.881  11.442   6.110
57213SOL     OW73477  10.972  13.011   6.480
57213SOL    HW173478  10.903  13.011   6.546
57213SOL    HW273479  10.942  13.073   6.414
57214SOL     OW73480   9.852   0.967   2.622
57214SOL    HW173481   9.854   0.886   2.673
57214SOL    HW273482   9.822   0.940   2.535
57215SOL     OW73483   8.236   6.111   6.278
57215SOL    HW173484   8.147   6.135   6.304
57215SOL    HW273485   8.281   6.092   6.361
57216SOL     OW73486   8.242  11.591  11.463
57216SOL    HW173487   8.163  11.619  11.508
57216SOL    HW273488   8.288  11.536  11.527
57217SOL     OW73489  12.444   5.752  10.807
57217SOL    HW173490  12.476   5.780  10.721
57217SOL    HW273491  12.376   5.688  10.787
57218SOL     OW73492   7.533   0.438  10.759
57218SOL    HW173493   7.495   0.366  10.810
57218SOL    HW273494   7.626   0.434  10.778
57219SOL     OW73495  14.509   8.795  13.968
57219SOL    HW173496  14.432   8.758  14.011
57219SOL    HW273497  14.491   8.888  13.961
57220SOL     OW73498  10.372   0.583   4.657
57220SOL    HW173499  10.437   0.653   4.662
57220SOL    HW273500  10.422   0.507   4.625
57221SOL     OW73501  10.561  10.951   8.307
57221SOL    HW173502  10.582  10.896   8.383
57221SOL    HW273503  10.540  10.889   8.237
57222SOL     OW73504  11.437   2.285   9.802
57222SOL    HW173505  11.400   2.211   9.755
57222SOL    HW273506  11.367   2.313   9.862
57223SOL     OW73507  10.938  10.115   6.616
57223SOL    HW173508  10.845  10.091   6.612
57223SOL    HW273509  10.972  10.096   6.529
57224SOL     OW73510   3.921   9.486  13.783
57224SOL    HW173511   4.004   9.452  13.815
57224SOL    HW273512   3.935   9.580  13.773
57225SOL     OW73513   8.991   9.359   3.206
57225SOL    HW173514   9.054   9.417   3.163
57225SOL    HW273515   9.024   9.349   3.295
57226SOL     OW73516  12.396   0.540  13.848
57226SOL    HW173517  12.481   0.511  13.880
57226SOL    HW273518  12.379   0.485  13.771
57227SOL     OW73519   1.990   6.171   8.340
57227SOL    HW173520   2.062   6.109   8.329
57227SOL    HW273521   1.938   6.162   8.261
57228SOL     OW73522  13.093  10.666  12.840
57228SOL    HW173523  13.026  10.709  12.893
57228SOL    HW273524  13.110  10.727  12.769
57229SOL     OW73525   2.907   0.202  11.338
57229SOL    HW173526   2.892   0.276  11.396
57229SOL    HW273527   3.000   0.181  11.348
57230SOL     OW73528  14.463  12.197  14.719
57230SOL    HW173529  14.548  12.217  14.682
57230SOL    HW273530  14.415  12.155  14.647
57231SOL     OW73531  14.811  12.671   0.393
57231SOL    HW173532  14.867  12.705   0.324
57231SOL    HW273533  14.722  12.693   0.365
57232SOL     OW73534  13.113  12.271   8.137
57232SOL    HW173535  13.160  12.336   8.188
57232SOL    HW273536  13.040  12.245   8.192
57233SOL     OW73537  13.781  12.812   1.131
57233SOL    HW173538  13.736  12.889   1.163
57233SOL    HW273539  13.759  12.743   1.194
57234SOL     OW73540   1.357  13.639   9.714
57234SOL    HW173541   1.429  13.651   9.651
57234SOL    HW273542   1.324  13.727   9.730
57235SOL     OW73543  14.843   6.790  14.709
57235SOL    HW173544   0.052   6.782  14.662
57235SOL    HW273545  14.798   6.862  14.665
57236SOL     OW73546   9.210   6.417  14.327
57236SOL    HW173547   9.194   6.505  14.361
57236SOL    HW273548   9.264   6.374  14.394
57237SOL     OW73549   9.333   5.975   1.693
57237SOL    HW173550   9.391   6.035   1.739
57237SOL    HW273551   9.378   5.958   1.610
57238SOL     OW73552  14.673   2.438   2.039
57238SOL    HW173553  14.641   2.430   2.128
57238SOL    HW273554  14.762   2.473   2.048
57239SOL     OW73555  10.555   7.986   8.046
57239SOL    HW173556  10.606   8.056   8.086
57239SOL    HW273557  10.468   8.024   8.032
57240SOL     OW73558   5.746   4.465   3.041
57240SOL    HW173559   5.656   4.485   3.015
57240SOL    HW273560   5.800   4.522   2.986
57241SOL     OW73561  14.151   0.972  10.769
57241SOL    HW173562  14.242   0.945  10.775
57241SOL    HW273563  14.101   0.891  10.760
57242SOL     OW73564   0.413   0.162   5.960
57242SOL    HW173565   0.332   0.114   5.943
57242SOL    HW273566   0.458   0.112   6.028
57243SOL     OW73567   1.947   7.633   0.026
57243SOL    HW173568   1.994   7.715   0.008
57243SOL    HW273569   1.895   7.617  14.822
57244SOL     OW73570  12.116   6.578   2.934
57244SOL    HW173571  12.153   6.554   2.849
57244SOL    HW273572  12.031   6.533   2.936
57245SOL     OW73573   0.801  14.392  11.359
57245SOL    HW173574   0.734  14.384  11.427
57245SOL    HW273575   0.858  14.317  11.373
57246SOL     OW73576   7.231   7.512   6.129
57246SOL    HW173577   7.267   7.600   6.131
57246SOL    HW273578   7.263   7.474   6.047
57247SOL     OW73579  13.064  14.410   3.448
57247SOL    HW173580  12.996  14.447   3.505
57247SOL    HW273581  13.108  14.487   3.411
57248SOL     OW73582  13.764  11.479   2.135
57248SOL    HW173583  13.740  11.541   2.066
57248SOL    HW273584  13.830  11.524   2.186
57249SOL     OW73585   2.136   1.730   6.743
57249SOL    HW173586   2.191   1.685   6.680
57249SOL    HW273587   2.058   1.755   6.693
57250SOL     OW73588   6.647   6.022   3.044
57250SOL    HW173589   6.730   5.978   3.062
57250SOL    HW273590   6.582   5.952   3.049
57251SOL     OW73591   2.229   3.708  14.082
57251SOL    HW173592   2.309   3.666  14.114
57251SOL    HW273593   2.188   3.643  14.025
57252SOL     OW73594   5.612   6.612   2.600
57252SOL    HW173595   5.699   6.651   2.613
57252SOL    HW273596   5.617   6.570   2.515
57253SOL     OW73597   4.680   7.594  14.618
57253SOL    HW173598   4.748   7.633  14.563
57253SOL    HW273599   4.666   7.507  14.580
57254SOL     OW73600   1.176   2.495   2.076
57254SOL    HW173601   1.221   2.502   2.161
57254SOL    HW273602   1.231   2.435   2.026
57255SOL     OW73603  11.489   5.451   7.246
57255SOL    HW173604  11.557   5.483   7.305
57255SOL    HW273605  11.413   5.506   7.265
57256SOL     OW73606   3.902   5.162   1.877
57256SOL    HW173607   3.898   5.066   1.875
57256SOL    HW273608   3.996   5.181   1.875
57257SOL     OW73609  14.368  11.493   7.836
57257SOL    HW173610  14.358  11.514   7.929
57257SOL    HW273611  14.457  11.460   7.828
57258SOL     OW73612  14.656   8.631  11.368
57258SOL    HW173613  14.734   8.616  11.314
57258SOL    HW273614  14.685   8.614  11.458
57259SOL     OW73615   7.894   4.170   5.600
57259SOL    HW173616   7.840   4.196   5.674
57259SOL    HW273617   7.917   4.078   5.617
57260SOL     OW73618   6.565   4.369   6.541
57260SOL    HW173619   6.536   4.376   6.450
57260SOL    HW273620   6.483   4.361   6.591
57261SOL     OW73621   4.616   8.596  14.267
57261SOL    HW173622   4.672   8.519  14.256
57261SOL    HW273623   4.638   8.652  14.192
57262SOL     OW73624  11.484   0.286  10.113
57262SOL    HW173625  11.423   0.275  10.187
57262SOL    HW273626  11.503   0.198  10.083
57263SOL     OW73627   4.158  13.500  10.030
57263SOL    HW173628   4.246  13.462  10.026
57263SOL    HW273629   4.100  13.428  10.007
57264SOL     OW73630   1.932  10.234  10.993
57264SOL    HW173631   1.974  10.241  11.079
57264SOL    HW273632   1.894  10.146  10.991
57265SOL     OW73633  14.652   3.511  12.925
57265SOL    HW173634  14.699   3.429  12.941
57265SOL    HW273635  14.715   3.565  12.876
57266SOL     OW73636   8.128  10.853   2.179
57266SOL    HW173637   8.144  10.937   2.222
57266SOL    HW273638   8.105  10.877   2.089
57267SOL     OW73639   4.695   1.450   6.976
57267SOL    HW173640   4.640   1.398   7.034
57267SOL    HW273641   4.776   1.399   6.968
57268SOL     OW73642   4.171  13.785  13.168
57268SOL    HW173643   4.214  13.708  13.205
57268SOL    HW273644   4.235  13.855  13.175
57269SOL     OW73645   8.560   6.252   8.378
57269SOL    HW173646   8.638   6.204   8.407
57269SOL    HW273647   8.496   6.183   8.359
57270SOL     OW73648  13.188   8.516  11.567
57270SOL    HW173649  13.252   8.445  11.566
57270SOL    HW273650  13.224   8.581  11.627
57271SOL     OW73651   4.659   0.312  11.440
57271SOL    HW173652   4.723   0.344  11.504
57271SOL    HW273653   4.618   0.237  11.483
57272SOL     OW73654  12.898   0.662  12.179
57272SOL    HW173655  12.889   0.716  12.258
57272SOL    HW273656  12.918   0.723  12.109
57273SOL     OW73657   4.683   0.806  14.867
57273SOL    HW173658   4.738   0.852  14.804
57273SOL    HW273659   4.611   0.868   0.010
57274SOL     OW73660   0.632  11.381   6.119
57274SOL    HW173661   0.585  11.334   6.188
57274SOL    HW273662   0.589  11.353   6.038
57275SOL     OW73663   7.212   5.146   4.689
57275SOL    HW173664   7.178   5.082   4.752
57275SOL    HW273665   7.135   5.175   4.641
57276SOL     OW73666   7.966  13.191  12.644
57276SOL    HW173667   7.985  13.272  12.596
57276SOL    HW273668   8.046  13.139  12.634
57277SOL     OW73669   8.387   4.547   4.391
57277SOL    HW173670   8.423   4.619   4.339
57277SOL    HW273671   8.294   4.567   4.399
57278SOL     OW73672   9.641   1.114   3.482
57278SOL    HW173673   9.669   1.203   3.462
57278SOL    HW273674   9.705   1.059   3.436
57279SOL     OW73675   1.010   8.425  14.231
57279SOL    HW173676   0.971   8.440  14.317
57279SOL    HW273677   0.944   8.375  14.183
57280SOL     OW73678   8.596   3.134  14.545
57280SOL    HW173679   8.578   3.159  14.454
57280SOL    HW273680   8.692   3.137  14.552
57281SOL     OW73681  14.149   1.413   6.855
57281SOL    HW173682  14.144   1.461   6.773
57281SOL    HW273683  14.163   1.481   6.921
57282SOL     OW73684   8.954  10.172   9.301
57282SOL    HW173685   8.892  10.100   9.291
57282SOL    HW273686   9.021  10.156   9.234
57283SOL     OW73687  14.399   6.675  14.561
57283SOL    HW173688  14.446   6.740  14.510
57283SOL    HW273689  14.325   6.650  14.506
57284SOL     OW73690   4.988   0.247  12.630
57284SOL    HW173691   5.026   0.175  12.581
57284SOL    HW273692   5.057   0.312  12.636
57285SOL     OW73693   8.602  12.057   1.530
57285SOL    HW173694   8.676  12.001   1.506
57285SOL    HW273695   8.579  12.102   1.449
57286SOL     OW73696  14.022  11.655   8.870
57286SOL    HW173697  14.112  11.642   8.838
57286SOL    HW273698  14.027  11.633   8.963
57287SOL     OW73699   1.793  10.597  13.035
57287SOL    HW173700   1.789  10.510  13.074
57287SOL    HW273701   1.728  10.594  12.965
57288SOL     OW73702  12.422   0.014  12.988
57288SOL    HW173703  12.436  14.801  13.024
57288SOL    HW273704  12.382   0.064  13.059
57289SOL     OW73705   2.171   8.423  14.841
57289SOL    HW173706   2.206   8.356   0.026
57289SOL    HW273707   2.115   8.374  14.781
57290SOL     OW73708   8.608  11.603  13.226
57290SOL    HW173709   8.599  11.555  13.144
57290SOL    HW273710   8.702  11.602  13.245
57291SOL     OW73711  13.188   6.659  11.282
57291SOL    HW173712  13.216   6.622  11.198
57291SOL    HW273713  13.100   6.625  11.296
57292SOL     OW73714  14.349   3.893   4.510
57292SOL    HW173715  14.378   3.951   4.581
57292SOL    HW273716  14.272   3.848   4.546
57293SOL     OW73717  10.285   3.827  13.850
57293SOL    HW173718  10.213   3.764  13.848
57293SOL    HW273719  10.242   3.912  13.855
57294SOL     OW73720  10.860   0.297   1.219
57294SOL    HW173721  10.844   0.375   1.271
57294SOL    HW273722  10.931   0.322   1.160
57295SOL     OW73723   8.888   3.510   2.409
57295SOL    HW173724   8.933   3.505   2.493
57295SOL    HW273725   8.937   3.576   2.359
57296SOL     OW73726   3.918   0.104   5.939
57296SOL    HW173727   3.992   0.090   5.998
57296SOL    HW273728   3.959   0.120   5.853
57297SOL     OW73729   7.858   3.645   6.162
57297SOL    HW173730   7.791   3.695   6.116
57297SOL    HW273731   7.819   3.623   6.246
57298SOL     OW73732  11.553   4.641  11.764
57298SOL    HW173733  11.518   4.575  11.824
57298SOL    HW273734  11.489   4.644  11.692
57299SOL     OW73735   0.515   4.693   3.812
57299SOL    HW173736   0.540   4.613   3.859
57299SOL    HW273737   0.483   4.752   3.880
57300SOL     OW73738   2.687  11.269  13.022
57300SOL    HW173739   2.645  11.353  13.003
57300SOL    HW273740   2.628  11.204  12.983
57301SOL     OW73741  13.328   9.335  14.824
57301SOL    HW173742  13.372   9.271   0.005
57301SOL    HW273743  13.237   9.334  14.854
57302SOL     OW73744   2.347   8.777   0.201
57302SOL    HW173745   2.379   8.801   0.113
57302SOL    HW273746   2.388   8.842   0.259
57303SOL     OW73747  12.653   8.259   0.231
57303SOL    HW173748  12.560   8.278   0.216
57303SOL    HW273749  12.656   8.165   0.249
57304SOL     OW73750   8.567   7.545  12.546
57304SOL    HW173751   8.511   7.606  12.498
57304SOL    HW273752   8.537   7.458  12.520
57305SOL     OW73753  13.325  14.213   4.565
57305SOL    HW173754  13.347  14.303   4.542
57305SOL    HW273755  13.234  14.203   4.535
57306SOL     OW73756   9.131  10.609  13.183
57306SOL    HW173757   9.170  10.559  13.255
57306SOL    HW273758   9.043  10.632  13.215
57307SOL     OW73759   3.188   8.844   0.909
57307SOL    HW173760   3.125   8.904   0.868
57307SOL    HW273761   3.274   8.879   0.885
57308SOL     OW73762  11.749  11.299  14.315
57308SOL    HW173763  11.835  11.278  14.280
57308SOL    HW273764  11.714  11.215  14.346
57309SOL     OW73765   2.368   7.303   7.268
57309SOL    HW173766   2.387   7.209   7.258
57309SOL    HW273767   2.408   7.343   7.191
57310SOL     OW73768   1.997  10.959  10.363
57310SOL    HW173769   2.081  10.932  10.327
57310SOL    HW273770   1.980  10.898  10.435
57311SOL     OW73771  10.400  10.255   4.153
57311SOL    HW173772  10.382  10.240   4.060
57311SOL    HW273773  10.452  10.179   4.180
57312SOL     OW73774   7.690   1.830   9.711
57312SOL    HW173775   7.710   1.841   9.804
57312SOL    HW273776   7.642   1.747   9.706
57313SOL     OW73777   7.631  14.691  12.754
57313SOL    HW173778   7.684  14.613  12.735
57313SOL    HW273779   7.684  14.740  12.817
57314SOL     OW73780  12.315   8.968   6.113
57314SOL    HW173781  12.408   8.971   6.092
57314SOL    HW273782  12.280   9.050   6.078
57315SOL     OW73783  10.216   2.365   8.648
57315SOL    HW173784  10.127   2.396   8.664
57315SOL    HW273785  10.212   2.271   8.661
57316SOL     OW73786   9.810  11.328   6.532
57316SOL    HW173787   9.717  11.325   6.555
57316SOL    HW273788   9.813  11.368   6.446
57317SOL     OW73789   1.728   0.323   8.051
57317SOL    HW173790   1.748   0.376   8.128
57317SOL    HW273791   1.672   0.253   8.083
57318SOL     OW73792  14.049   1.673   7.108
57318SOL    HW173793  13.985   1.743   7.094
57318SOL    HW273794  14.010   1.617   7.175
57319SOL     OW73795   6.603   8.577  13.047
57319SOL    HW173796   6.629   8.523  13.122
57319SOL    HW273797   6.638   8.664  13.066
57320SOL     OW73798   6.494   9.433  12.924
57320SOL    HW173799   6.567   9.410  12.867
57320SOL    HW273800   6.489   9.363  12.988
57321SOL     OW73801   6.390   0.485   8.939
57321SOL    HW173802   6.398   0.579   8.925
57321SOL    HW273803   6.446   0.446   8.872
57322SOL     OW73804   4.282   2.612  13.243
57322SOL    HW173805   4.312   2.597  13.333
57322SOL    HW273806   4.361   2.602  13.189
57323SOL     OW73807   0.185   2.620   5.736
57323SOL    HW173808   0.150   2.682   5.800
57323SOL    HW273809   0.111   2.563   5.715
57324SOL     OW73810   4.087  13.671   6.956
57324SOL    HW173811   4.114  13.582   6.932
57324SOL    HW273812   4.022  13.659   7.025
57325SOL     OW73813   2.199   5.256   8.443
57325SOL    HW173814   2.287   5.291   8.453
57325SOL    HW273815   2.191   5.238   8.349
57326SOL     OW73816   2.481   4.272   2.832
57326SOL    HW173817   2.422   4.199   2.851
57326SOL    HW273818   2.492   4.316   2.916
57327SOL     OW73819  11.804   4.853   6.718
57327SOL    HW173820  11.793   4.883   6.809
57327SOL    HW273821  11.729   4.795   6.704
57328SOL     OW73822   1.757  14.072  11.216
57328SOL    HW173823   1.735  14.138  11.150
57328SOL    HW273824   1.816  14.117  11.277
57329SOL     OW73825  12.973   3.961  11.466
57329SOL    HW173826  12.882   3.988  11.454
57329SOL    HW273827  13.015   4.034  11.512
57330SOL     OW73828   6.724  12.558   9.508
57330SOL    HW173829   6.661  12.600   9.451
57330SOL    HW273830   6.778  12.629   9.541
57331SOL     OW73831   2.488  11.905   4.866
57331SOL    HW173832   2.574  11.881   4.834
57331SOL    HW273833   2.445  11.822   4.886
57332SOL     OW73834   6.101   2.915   8.787
57332SOL    HW173835   6.154   2.849   8.742
57332SOL    HW273836   6.165   2.977   8.823
57333SOL     OW73837   1.610   2.020   3.775
57333SOL    HW173838   1.549   2.082   3.815
57333SOL    HW273839   1.567   1.990   3.696
57334SOL     OW73840  14.104  13.145   0.029
57334SOL    HW173841  14.070  13.102   0.108
57334SOL    HW273842  14.058  13.102  14.831
57335SOL     OW73843   0.844  11.973  12.985
57335SOL    HW173844   0.832  12.006  13.074
57335SOL    HW273845   0.934  11.997  12.963
57336SOL     OW73846  11.994   6.310   5.625
57336SOL    HW173847  12.056   6.374   5.661
57336SOL    HW273848  11.927   6.300   5.693
57337SOL     OW73849   0.728   6.612  10.159
57337SOL    HW173850   0.752   6.624  10.251
57337SOL    HW273851   0.686   6.695  10.134
57338SOL     OW73852   5.333   6.394  11.004
57338SOL    HW173853   5.291   6.466  10.958
57338SOL    HW273854   5.376   6.342  10.936
57339SOL     OW73855   1.003   2.816   1.590
57339SOL    HW173856   1.014   2.904   1.627
57339SOL    HW273857   1.020   2.827   1.497
57340SOL     OW73858   4.742   9.351   2.153
57340SOL    HW173859   4.807   9.392   2.209
57340SOL    HW273860   4.770   9.373   2.064
57341SOL     OW73861   4.200   1.398   7.764
57341SOL    HW173862   4.116   1.352   7.756
57341SOL    HW273863   4.240   1.392   7.677
57342SOL     OW73864   9.682   1.373   3.376
57342SOL    HW173865   9.629   1.451   3.393
57342SOL    HW273866   9.755   1.405   3.324
57343SOL     OW73867  11.081  10.779   6.473
57343SOL    HW173868  11.038  10.831   6.541
57343SOL    HW273869  11.065  10.828   6.392
57344SOL     OW73870  12.048  13.045   0.276
57344SOL    HW173871  12.061  12.979   0.208
57344SOL    HW273872  12.034  12.994   0.356
57345SOL     OW73873  12.290  12.125   3.877
57345SOL    HW173874  12.258  12.117   3.787
57345SOL    HW273875  12.377  12.085   3.875
57346SOL     OW73876   5.088   4.242   6.606
57346SOL    HW173877   5.027   4.299   6.651
57346SOL    HW273878   5.155   4.222   6.671
57347SOL     OW73879  13.862  12.402   1.659
57347SOL    HW173880  13.787  12.359   1.619
57347SOL    HW273881  13.870  12.362   1.745
57348SOL     OW73882  12.954   2.227   4.563
57348SOL    HW173883  13.031   2.262   4.518
57348SOL    HW273884  12.882   2.241   4.502
57349SOL     OW73885   3.537   3.736   8.851
57349SOL    HW173886   3.582   3.667   8.802
57349SOL    HW273887   3.471   3.770   8.790
57350SOL     OW73888  10.895   9.926   8.122
57350SOL    HW173889  10.884   9.902   8.030
57350SOL    HW273890  10.814   9.895   8.164
57351SOL     OW73891   2.582   5.032   1.007
57351SOL    HW173892   2.621   5.004   0.925
57351SOL    HW273893   2.489   5.043   0.986
57352SOL     OW73894  10.180   5.810   0.340
57352SOL    HW173895  10.100   5.848   0.305
57352SOL    HW273896  10.250   5.857   0.294
57353SOL     OW73897   6.021   2.288   5.094
57353SOL    HW173898   6.084   2.348   5.135
57353SOL    HW273899   6.076   2.222   5.051
57354SOL     OW73900  14.315   9.630  14.360
57354SOL    HW173901  14.323   9.566  14.430
57354SOL    HW273902  14.405   9.653  14.338
57355SOL     OW73903   6.952   1.543  12.249
57355SOL    HW173904   7.040   1.576  12.266
57355SOL    HW273905   6.902   1.620  12.224
57356SOL     OW73906   9.612   5.792   1.728
57356SOL    HW173907   9.541   5.805   1.791
57356SOL    HW273908   9.692   5.802   1.780
57357SOL     OW73909   8.076  12.445   8.289
57357SOL    HW173910   8.148  12.434   8.352
57357SOL    HW273911   8.011  12.496   8.336
57358SOL     OW73912  12.573   9.498  10.730
57358SOL    HW173913  12.580   9.593  10.726
57358SOL    HW273914  12.601   9.468  10.643
57359SOL     OW73915  11.726   0.997   0.996
57359SOL    HW173916  11.785   1.033   0.930
57359SOL    HW273917  11.768   0.915   1.024
57360SOL     OW73918   9.510   1.726   6.359
57360SOL    HW173919   9.475   1.709   6.272
57360SOL    HW273920   9.520   1.821   6.363
57361SOL     OW73921  14.441  12.963   5.458
57361SOL    HW173922  14.396  13.040   5.424
57361SOL    HW273923  14.533  12.978   5.436
57362SOL     OW73924   8.683  11.304   1.835
57362SOL    HW173925   8.772  11.284   1.865
57362SOL    HW273926   8.656  11.381   1.885
57363SOL     OW73927  10.245   8.129   1.508
57363SOL    HW173928  10.295   8.064   1.558
57363SOL    HW273929  10.210   8.189   1.575
57364SOL     OW73930  12.205  10.361   6.586
57364SOL    HW173931  12.129  10.333   6.536
57364SOL    HW273932  12.169  10.410   6.659
57365SOL     OW73933  13.962   0.530   7.617
57365SOL    HW173934  13.913   0.558   7.695
57365SOL    HW273935  14.033   0.476   7.651
57366SOL     OW73936   9.101   8.439  11.741
57366SOL    HW173937   9.124   8.411  11.652
57366SOL    HW273938   9.034   8.506  11.728
57367SOL     OW73939   8.242   1.441   5.496
57367SOL    HW173940   8.337   1.433   5.503
57367SOL    HW273941   8.221   1.518   5.550
57368SOL     OW73942  12.263   8.511  12.529
57368SOL    HW173943  12.222   8.491  12.445
57368SOL    HW273944  12.267   8.427  12.574
57369SOL     OW73945  14.591   6.129  14.273
57369SOL    HW173946  14.561   6.173  14.193
57369SOL    HW273947  14.549   6.178  14.344
57370SOL     OW73948   9.406   7.231  11.835
57370SOL    HW173949   9.336   7.212  11.898
57370SOL    HW273950   9.394   7.323  11.813
57371SOL     OW73951   9.511   7.728  13.677
57371SOL    HW173952   9.469   7.806  13.713
57371SOL    HW273953   9.468   7.655  13.721
57372SOL     OW73954   5.332   1.215  10.207
57372SOL    HW173955   5.374   1.183  10.127
57372SOL    HW273956   5.403   1.218  10.271
57373SOL     OW73957  13.325  10.317   4.777
57373SOL    HW173958  13.245  10.365   4.753
57373SOL    HW273959  13.294  10.249   4.838
57374SOL     OW73960   9.921  12.381  12.872
57374SOL    HW173961   9.987  12.371  12.941
57374SOL    HW273962   9.860  12.446  12.906
57375SOL     OW73963   0.947  10.041  14.647
57375SOL    HW173964   1.030  10.045  14.695
57375SOL    HW273965   0.945   9.952  14.610
57376SOL     OW73966  11.192   2.491   2.589
57376SOL    HW173967  11.153   2.405   2.572
57376SOL    HW273968  11.202   2.494   2.684
57377SOL     OW73969   8.130   7.680   1.539
57377SOL    HW173970   8.187   7.756   1.548
57377SOL    HW273971   8.071   7.702   1.467
57378SOL     OW73972   9.899  13.882   9.868
57378SOL    HW173973   9.910  13.928   9.785
57378SOL    HW273974   9.835  13.813   9.850
57379SOL     OW73975   7.120  12.338   1.456
57379SOL    HW173976   7.194  12.367   1.402
57379SOL    HW273977   7.146  12.253   1.489
57380SOL     OW73978   1.548  11.672   3.755
57380SOL    HW173979   1.543  11.584   3.718
57380SOL    HW273980   1.634  11.704   3.728
57381SOL     OW73981   6.747   2.159   4.438
57381SOL    HW173982   6.701   2.111   4.369
57381SOL    HW273983   6.699   2.136   4.518
57382SOL     OW73984   2.251  12.953  12.473
57382SOL    HW173985   2.229  12.892  12.543
57382SOL    HW273986   2.220  13.038  12.504
57383SOL     OW73987  14.416   1.535   5.242
57383SOL    HW173988  14.354   1.520   5.170
57383SOL    HW273989  14.404   1.460   5.300
57384SOL     OW73990   3.063  11.232   2.176
57384SOL    HW173991   3.033  11.299   2.114
57384SOL    HW273992   3.110  11.281   2.243
57385SOL     OW73993   9.475  10.821  11.590
57385SOL    HW173994   9.390  10.862  11.600
57385SOL    HW273995   9.455  10.728  11.578
57386SOL     OW73996   5.693   9.171  12.113
57386SOL    HW173997   5.777   9.135  12.084
57386SOL    HW273998   5.660   9.221  12.038
57387SOL     OW73999  11.537   6.700   9.540
57387SOL    HW174000  11.497   6.736   9.461
57387SOL    HW274001  11.628   6.728   9.536
57388SOL     OW74002   3.751  12.872  12.868
57388SOL    HW174003   3.727  12.957  12.831
57388SOL    HW274004   3.735  12.882  12.962
57389SOL     OW74005   0.615   6.119   5.348
57389SOL    HW174006   0.650   6.088   5.265
57389SOL    HW274007   0.522   6.132   5.331
57390SOL     OW74008   2.706  11.000   6.691
57390SOL    HW174009   2.659  10.922   6.721
57390SOL    HW274010   2.788  10.967   6.656
57391SOL     OW74011   9.874   9.175  14.470
57391SOL    HW174012   9.969   9.162  14.472
57391SOL    HW274013   9.840   9.094  14.431
57392SOL     OW74014  13.963  12.273   0.923
57392SOL    HW174015  14.009  12.289   0.841
57392SOL    HW274016  13.873  12.254   0.897
57393SOL     OW74017   1.224   9.203   5.690
57393SOL    HW174018   1.223   9.108   5.698
57393SOL    HW274019   1.133   9.227   5.672
57394SOL     OW74020   4.731   6.881   8.765
57394SOL    HW174021   4.694   6.922   8.843
57394SOL    HW274022   4.826   6.880   8.780
57395SOL     OW74023  10.019  12.331   4.422
57395SOL    HW174024  10.052  12.419   4.438
57395SOL    HW274025  10.031  12.285   4.505
57396SOL     OW74026  14.772   0.087  10.204
57396SOL    HW174027  14.792   0.128  10.288
57396SOL    HW274028  14.693   0.036  10.220
57397SOL     OW74029  11.087   8.390  11.343
57397SOL    HW174030  11.017   8.345  11.390
57397SOL    HW274031  11.132   8.321  11.295
57398SOL     OW74032   7.515  12.385   5.455
57398SOL    HW174033   7.573  12.371   5.529
57398SOL    HW274034   7.569  12.431   5.390
57399SOL     OW74035   8.876   6.039   7.887
57399SOL    HW174036   8.846   5.962   7.934
57399SOL    HW274037   8.899   6.008   7.800
57400SOL     OW74038   7.602   5.261  13.980
57400SOL    HW174039   7.608   5.342  13.929
57400SOL    HW274040   7.569   5.289  14.065
57401SOL     OW74041   1.916  10.195   6.740
57401SOL    HW174042   1.832  10.151   6.757
57401SOL    HW274043   1.969  10.128   6.697
57402SOL     OW74044   9.316  14.424   4.512
57402SOL    HW174045   9.393  14.460   4.556
57402SOL    HW274046   9.271  14.500   4.476
57403SOL     OW74047  10.624   6.282   8.233
57403SOL    HW174048  10.715   6.266   8.208
57403SOL    HW274049  10.623   6.374   8.261
57404SOL     OW74050   5.931  11.488   3.692
57404SOL    HW174051   5.895  11.446   3.614
57404SOL    HW274052   5.875  11.564   3.706
57405SOL     OW74053   3.822   5.980   4.086
57405SOL    HW174054   3.734   5.956   4.115
57405SOL    HW274055   3.873   5.985   4.167
57406SOL     OW74056   7.303  13.970   3.680
57406SOL    HW174057   7.271  13.992   3.767
57406SOL    HW274058   7.229  13.989   3.622
57407SOL     OW74059  14.381   3.808   2.333
57407SOL    HW174060  14.428   3.875   2.284
57407SOL    HW274061  14.320   3.857   2.387
57408SOL     OW74062   6.051  13.683   4.086
57408SOL    HW174063   5.972  13.738   4.090
57408SOL    HW274064   6.080  13.690   3.995
57409SOL     OW74065  13.551  11.051   9.418
57409SOL    HW174066  13.540  10.957   9.401
57409SOL    HW274067  13.465  11.079   9.450
57410SOL     OW74068   4.253  11.847   2.406
57410SOL    HW174069   4.266  11.818   2.315
57410SOL    HW274070   4.322  11.803   2.455
57411SOL     OW74071  11.031  13.294  11.951
57411SOL    HW174072  11.105  13.237  11.970
57411SOL    HW274073  11.024  13.295  11.855
57412SOL     OW74074   1.463   1.653  10.414
57412SOL    HW174075   1.426   1.565  10.409
57412SOL    HW274076   1.463   1.684  10.323
57413SOL     OW74077   1.625   9.276  10.399
57413SOL    HW174078   1.638   9.203  10.338
57413SOL    HW274079   1.704   9.278  10.452
57414SOL     OW74080  10.084   2.165   1.477
57414SOL    HW174081  10.116   2.253   1.495
57414SOL    HW274082  10.100   2.153   1.383
57415SOL     OW74083   6.712  14.430  14.235
57415SOL    HW174084   6.759  14.510  14.211
57415SOL    HW274085   6.640  14.460  14.290
57416SOL     OW74086   7.613   5.358   0.872
57416SOL    HW174087   7.692   5.309   0.850
57416SOL    HW274088   7.645   5.443   0.902
57417SOL     OW74089   4.651  10.086   4.272
57417SOL    HW174090   4.704  10.073   4.193
57417SOL    HW274091   4.685  10.021   4.334
57418SOL     OW74092   4.962   1.482  10.587
57418SOL    HW174093   5.010   1.485  10.669
57418SOL    HW274094   5.012   1.537  10.527
57419SOL     OW74095  13.658   7.894   0.689
57419SOL    HW174096  13.668   7.845   0.607
57419SOL    HW274097  13.634   7.982   0.662
57420SOL     OW74098   9.784  13.055   9.862
57420SOL    HW174099   9.742  13.040   9.777
57420SOL    HW274100   9.784  13.150   9.872
57421SOL     OW74101  10.536  13.118   1.918
57421SOL    HW174102  10.583  13.153   1.993
57421SOL    HW274103  10.447  13.102   1.951
57422SOL     OW74104   8.194  11.960   4.355
57422SOL    HW174105   8.133  11.979   4.284
57422SOL    HW274106   8.202  12.042   4.403
57423SOL     OW74107  14.386   8.544   5.736
57423SOL    HW174108  14.339   8.470   5.697
57423SOL    HW274109  14.471   8.543   5.694
57424SOL     OW74110   0.270   7.798   1.888
57424SOL    HW174111   0.234   7.885   1.901
57424SOL    HW274112   0.364   7.807   1.905
57425SOL     OW74113   8.874  11.398   1.075
57425SOL    HW174114   8.782  11.376   1.085
57425SOL    HW274115   8.899  11.441   1.157
57426SOL     OW74116   7.214   7.327  10.232
57426SOL    HW174117   7.224   7.422  10.228
57426SOL    HW274118   7.178   7.310  10.319
57427SOL     OW74119   1.647   4.425   4.106
57427SOL    HW174120   1.687   4.429   4.192
57427SOL    HW274121   1.555   4.448   4.121
57428SOL     OW74122   4.693   5.527   1.001
57428SOL    HW174123   4.612   5.553   0.958
57428SOL    HW274124   4.758   5.588   0.968
57429SOL     OW74125  11.243   4.494  10.398
57429SOL    HW174126  11.287   4.571  10.363
57429SOL    HW274127  11.284   4.478  10.482
57430SOL     OW74128   8.206  12.494   4.501
57430SOL    HW174129   8.249  12.579   4.489
57430SOL    HW274130   8.190  12.462   4.413
57431SOL     OW74131   7.845  12.607  13.378
57431SOL    HW174132   7.830  12.692  13.419
57431SOL    HW274133   7.857  12.626  13.285
57432SOL     OW74134   1.991   1.195   7.077
57432SOL    HW174135   1.921   1.191   7.011
57432SOL    HW274136   2.063   1.242   7.033
57433SOL     OW74137   7.903   0.551  10.575
57433SOL    HW174138   7.899   0.633  10.625
57433SOL    HW274139   7.877   0.575  10.486
57434SOL     OW74140  14.260  13.580  10.671
57434SOL    HW174141  14.189  13.588  10.735
57434SOL    HW274142  14.227  13.626  10.594
57435SOL     OW74143   6.016  11.873   1.987
57435SOL    HW174144   5.928  11.863   2.024
57435SOL    HW274145   6.067  11.914   2.058
57436SOL     OW74146   1.550   0.079   8.031
57436SOL    HW174147   1.520   0.145   7.967
57436SOL    HW274148   1.551  14.871   7.982
57437SOL     OW74149   8.961   5.865  11.142
57437SOL    HW174150   9.017   5.854  11.065
57437SOL    HW274151   9.008   5.927  11.198
57438SOL     OW74152  14.384  13.115   6.719
57438SOL    HW174153  14.307  13.171   6.706
57438SOL    HW274154  14.355  13.050   6.783
57439SOL     OW74155   0.675   1.363  10.147
57439SOL    HW174156   0.724   1.357  10.065
57439SOL    HW274157   0.592   1.405  10.123
57440SOL     OW74158  10.883   6.277   9.221
57440SOL    HW174159  10.904   6.234   9.304
57440SOL    HW274160  10.930   6.360   9.225
57441SOL     OW74161   0.802   5.636  11.119
57441SOL    HW174162   0.718   5.653  11.077
57441SOL    HW274163   0.831   5.552  11.082
57442SOL     OW74164   1.490   1.244   9.057
57442SOL    HW174165   1.501   1.329   9.014
57442SOL    HW274166   1.453   1.188   8.989
57443SOL     OW74167  14.052   5.002   8.421
57443SOL    HW174168  13.962   5.007   8.392
57443SOL    HW274169  14.054   4.930   8.484
57444SOL     OW74170  12.850   8.365   9.683
57444SOL    HW174171  12.809   8.451   9.684
57444SOL    HW274172  12.874   8.349   9.775
57445SOL     OW74173   1.220   5.084   9.636
57445SOL    HW174174   1.249   5.137   9.562
57445SOL    HW274175   1.269   5.118   9.711
57446SOL     OW74176   1.780   4.826  11.086
57446SOL    HW174177   1.729   4.745  11.088
57446SOL    HW274178   1.768   4.864  11.173
57447SOL     OW74179   0.635   5.020  13.684
57447SOL    HW174180   0.557   4.992  13.637
57447SOL    HW274181   0.702   4.956  13.660
57448SOL     OW74182   2.344  13.574   8.847
57448SOL    HW174183   2.429  13.616   8.833
57448SOL    HW274184   2.365  13.490   8.888
57449SOL     OW74185   3.777  13.007   5.160
57449SOL    HW174186   3.691  13.037   5.130
57449SOL    HW274187   3.794  13.058   5.239
57450SOL     OW74188   4.237  11.012  12.749
57450SOL    HW174189   4.179  10.937  12.733
57450SOL    HW274190   4.191  11.087  12.712
57451SOL     OW74191  13.914   9.432  11.182
57451SOL    HW174192  13.897   9.432  11.088
57451SOL    HW274193  13.892   9.521  11.210
57452SOL     OW74194   6.826   2.408  13.123
57452SOL    HW174195   6.762   2.464  13.166
57452SOL    HW274196   6.872   2.364  13.196
57453SOL     OW74197   7.428   9.503   0.225
57453SOL    HW174198   7.344   9.530   0.261
57453SOL    HW274199   7.453   9.575   0.167
57454SOL     OW74200  10.006  12.938  10.336
57454SOL    HW174201   9.920  12.913  10.370
57454SOL    HW274202  10.065  12.868  10.365
57455SOL     OW74203   8.148  12.043   2.623
57455SOL    HW174204   8.234  12.067   2.657
57455SOL    HW274205   8.139  11.950   2.644
57456SOL     OW74206   8.688   6.033  14.554
57456SOL    HW174207   8.609   5.985  14.582
57456SOL    HW274208   8.654   6.101  14.496
57457SOL     OW74209   4.717  10.724  11.602
57457SOL    HW174210   4.802  10.686  11.622
57457SOL    HW274211   4.676  10.738  11.687
57458SOL     OW74212   4.245  11.150   1.413
57458SOL    HW174213   4.156  11.184   1.421
57458SOL    HW274214   4.263  11.112   1.499
57459SOL     OW74215  10.052   0.801  11.966
57459SOL    HW174216   9.963   0.780  11.994
57459SOL    HW274217  10.087   0.855  12.037
57460SOL     OW74218   2.794   6.446  14.607
57460SOL    HW174219   2.801   6.515  14.542
57460SOL    HW274220   2.836   6.482  14.685
57461SOL     OW74221   6.653   5.842   1.672
57461SOL    HW174222   6.659   5.763   1.617
57461SOL    HW274223   6.651   5.914   1.610
57462SOL     OW74224   4.077   9.567   9.306
57462SOL    HW174225   4.124   9.483   9.300
57462SOL    HW274226   4.035   9.577   9.221
57463SOL     OW74227   3.116  12.431   3.415
57463SOL    HW174228   3.146  12.423   3.325
57463SOL    HW274229   3.090  12.342   3.440
57464SOL     OW74230  13.229   6.941   8.970
57464SOL    HW174231  13.169   7.012   8.947
57464SOL    HW274232  13.233   6.943   9.066
57465SOL     OW74233  12.809   3.503   4.434
57465SOL    HW174234  12.747   3.550   4.490
57465SOL    HW274235  12.851   3.572   4.382
57466SOL     OW74236   3.408   8.545   9.919
57466SOL    HW174237   3.417   8.500   9.835
57466SOL    HW274238   3.398   8.637   9.896
57467SOL     OW74239  11.626   7.358  13.674
57467SOL    HW174240  11.534   7.329  13.679
57467SOL    HW274241  11.643   7.397  13.759
57468SOL     OW74242   3.398  12.382  13.111
57468SOL    HW174243   3.460  12.372  13.038
57468SOL    HW274244   3.361  12.294  13.122
57469SOL     OW74245   3.103   1.724   7.687
57469SOL    HW174246   3.165   1.658   7.655
57469SOL    HW274247   3.022   1.675   7.702
57470SOL     OW74248   5.526   3.797   0.783
57470SOL    HW174249   5.521   3.884   0.821
57470SOL    HW274250   5.499   3.808   0.692
57471SOL     OW74251   9.355   7.004   1.215
57471SOL    HW174252   9.321   7.017   1.127
57471SOL    HW274253   9.287   7.040   1.273
57472SOL     OW74254   1.198  10.420   1.079
57472SOL    HW174255   1.241  10.407   1.164
57472SOL    HW274256   1.118  10.367   1.085
57473SOL     OW74257   6.967   5.419   8.138
57473SOL    HW174258   6.946   5.506   8.172
57473SOL    HW274259   6.938   5.422   8.047
57474SOL     OW74260   7.567   5.750   3.249
57474SOL    HW174261   7.618   5.812   3.196
57474SOL    HW274262   7.523   5.695   3.184
57475SOL     OW74263   4.171   2.038   7.030
57475SOL    HW174264   4.257   2.054   6.991
57475SOL    HW274265   4.167   2.097   7.106
57476SOL     OW74266   3.516  14.414   8.307
57476SOL    HW174267   3.523  14.454   8.221
57476SOL    HW274268   3.598  14.436   8.351
57477SOL     OW74269   3.293  14.723  13.762
57477SOL    HW174270   3.329  14.811  13.751
57477SOL    HW274271   3.205  14.728  13.725
57478SOL     OW74272   5.938  14.786  14.849
57478SOL    HW174273   5.996  14.786  14.773
57478SOL    HW274274   5.961  14.706   0.022
57479SOL     OW74275  14.119  13.191   2.252
57479SOL    HW174276  14.146  13.244   2.327
57479SOL    HW274277  14.083  13.111   2.290
57480SOL     OW74278  10.702   8.950   5.076
57480SOL    HW174279  10.657   8.911   5.151
57480SOL    HW274280  10.790   8.912   5.078
57481SOL     OW74281  13.715  12.781   3.626
57481SOL    HW174282  13.695  12.699   3.581
57481SOL    HW274283  13.724  12.757   3.718
57482SOL     OW74284   8.767   8.742  11.407
57482SOL    HW174285   8.707   8.805  11.447
57482SOL    HW274286   8.793   8.783  11.324
57483SOL     OW74287   8.889  13.992   7.470
57483SOL    HW174288   8.924  13.911   7.432
57483SOL    HW274289   8.794  13.982   7.463
57484SOL     OW74290  13.217  13.076   0.086
57484SOL    HW174291  13.271  13.070   0.164
57484SOL    HW274292  13.216  12.987   0.051
57485SOL     OW74293   4.498  14.259   3.460
57485SOL    HW174294   4.470  14.253   3.551
57485SOL    HW274295   4.445  14.330   3.423
57486SOL     OW74296   4.442  14.160   3.193
57486SOL    HW174297   4.479  14.223   3.131
57486SOL    HW274298   4.467  14.195   3.279
57487SOL     OW74299  13.681   7.600   2.232
57487SOL    HW174300  13.728   7.522   2.201
57487SOL    HW274301  13.655   7.645   2.152
57488SOL     OW74302   4.758   3.496   9.321
57488SOL    HW174303   4.773   3.405   9.297
57488SOL    HW274304   4.678   3.520   9.274
57489SOL     OW74305   9.883  12.572   5.115
57489SOL    HW174306   9.945  12.604   5.181
57489SOL    HW274307   9.837  12.651   5.086
57490SOL     OW74308   1.793   0.837  14.280
57490SOL    HW174309   1.861   0.901  14.257
57490SOL    HW274310   1.765   0.801  14.196
57491SOL     OW74311   1.683   0.409   8.785
57491SOL    HW174312   1.598   0.415   8.741
57491SOL    HW274313   1.676   0.470   8.859
57492SOL     OW74314   9.798   5.079  12.394
57492SOL    HW174315   9.867   5.104  12.332
57492SOL    HW274316   9.787   4.985  12.380
57493SOL     OW74317   5.789  11.175  10.798
57493SOL    HW174318   5.779  11.271  10.797
57493SOL    HW274319   5.700  11.143  10.787
57494SOL     OW74320   2.681   6.390   6.602
57494SOL    HW174321   2.662   6.297   6.613
57494SOL    HW274322   2.683   6.403   6.507
57495SOL     OW74323   1.263  13.869   5.531
57495SOL    HW174324   1.198  13.828   5.473
57495SOL    HW274325   1.346  13.856   5.487
57496SOL     OW74326   3.320   4.121  14.847
57496SOL    HW174327   3.313   4.198  14.792
57496SOL    HW274328   3.377   4.147   0.045
57497SOL     OW74329   8.014   0.688  12.632
57497SOL    HW174330   7.931   0.725  12.601
57497SOL    HW274331   7.988   0.619  12.693
57498SOL     OW74332   7.662   9.207  11.359
57498SOL    HW174333   7.731   9.160  11.311
57498SOL    HW274334   7.673   9.298  11.333
57499SOL     OW74335  13.403   3.092   9.039
57499SOL    HW174336  13.409   3.085   8.944
57499SOL    HW274337  13.454   3.170   9.060
57500SOL     OW74338   0.690  12.858   3.811
57500SOL    HW174339   0.662  12.806   3.736
57500SOL    HW274340   0.667  12.948   3.788
57501SOL     OW74341   8.547  12.807   1.589
57501SOL    HW174342   8.605  12.737   1.559
57501SOL    HW274343   8.483  12.763   1.645
57502SOL     OW74344   9.728   7.876  10.455
57502SOL    HW174345   9.721   7.969  10.433
57502SOL    HW274346   9.708   7.831  10.372
57503SOL     OW74347   7.519   9.650   3.678
57503SOL    HW174348   7.521   9.575   3.737
57503SOL    HW274349   7.599   9.699   3.699
57504SOL     OW74350   0.979   8.541   2.283
57504SOL    HW174351   1.054   8.541   2.223
57504SOL    HW274352   0.991   8.461   2.335
57505SOL     OW74353   7.991   2.337  10.557
57505SOL    HW174354   7.959   2.249  10.579
57505SOL    HW274355   8.005   2.378  10.643
57506SOL     OW74356   4.349  14.806  12.331
57506SOL    HW174357   4.268  14.776  12.373
57506SOL    HW274358   4.410  14.820  12.404
57507SOL     OW74359   0.867   7.892  11.421
57507SOL    HW174360   0.862   7.809  11.373
57507SOL    HW274361   0.900   7.867  11.508
57508SOL     OW74362   2.627   4.269  10.448
57508SOL    HW174363   2.539   4.305  10.453
57508SOL    HW274364   2.685   4.345  10.452
57509SOL     OW74365   0.227  10.470   7.758
57509SOL    HW174366   0.145  10.511   7.785
57509SOL    HW274367   0.205  10.423   7.677
57510SOL     OW74368   9.212   8.596   5.089
57510SOL    HW174369   9.189   8.674   5.139
57510SOL    HW274370   9.129   8.549   5.078
57511SOL     OW74371   5.755   4.720   7.366
57511SOL    HW174372   5.776   4.633   7.400
57511SOL    HW274373   5.784   4.780   7.434
57512SOL     OW74374   4.396   0.839  10.753
57512SOL    HW174375   4.479   0.864  10.713
57512SOL    HW274376   4.348   0.793  10.683
57513SOL     OW74377  10.111   2.911  13.571
57513SOL    HW174378  10.163   2.842  13.612
57513SOL    HW274379  10.172   2.955  13.511
57514SOL     OW74380  13.138  14.158  10.881
57514SOL    HW174381  13.080  14.216  10.832
57514SOL    HW274382  13.088  14.078  10.892
57515SOL     OW74383   7.245   3.792   4.465
57515SOL    HW174384   7.226   3.778   4.372
57515SOL    HW274385   7.236   3.706   4.504
57516SOL     OW74386  13.181   9.442   2.513
57516SOL    HW174387  13.257   9.420   2.567
57516SOL    HW274388  13.140   9.358   2.493
57517SOL     OW74389   7.559  14.110  10.202
57517SOL    HW174390   7.653  14.101  10.217
57517SOL    HW274391   7.519  14.052  10.267
57518SOL     OW74392  10.843  14.502   7.373
57518SOL    HW174393  10.923  14.468   7.412
57518SOL    HW274394  10.857  14.492   7.278
57519SOL     OW74395   0.306   2.061  13.648
57519SOL    HW174396   0.251   2.035  13.722
57519SOL    HW274397   0.262   2.025  13.572
57520SOL     OW74398  11.854   3.415   5.949
57520SOL    HW174399  11.933   3.421   5.895
57520SOL    HW274400  11.793   3.364   5.896
57521SOL     OW74401  11.801  12.592   8.848
57521SOL    HW174402  11.819  12.601   8.755
57521SOL    HW274403  11.727  12.651   8.864
57522SOL     OW74404   1.699  10.569  13.464
57522SOL    HW174405   1.733  10.540  13.549
57522SOL    HW274406   1.767  10.544  13.402
57523SOL     OW74407   0.772   5.950   0.022
57523SOL    HW174408   0.837   5.881   0.032
57523SOL    HW274409   0.700   5.909  14.848
57524SOL     OW74410   2.959   5.239   0.940
57524SOL    HW174411   2.915   5.222   1.023
57524SOL    HW274412   3.028   5.302   0.962
57525SOL     OW74413   8.061  10.556   9.592
57525SOL    HW174414   8.139  10.526   9.638
57525SOL    HW274415   8.093  10.583   9.506
57526SOL     OW74416  14.264   7.830  10.760
57526SOL    HW174417  14.178   7.825  10.717
57526SOL    HW274418  14.316   7.762  10.717
57527SOL     OW74419  12.335   3.980   2.252
57527SOL    HW174420  12.414   3.932   2.228
57527SOL    HW274421  12.328   4.049   2.186
57528SOL     OW74422   6.925   3.967  11.324
57528SOL    HW174423   6.968   3.997  11.244
57528SOL    HW274424   6.889   4.046  11.364
57529SOL     OW74425   2.395  14.549  14.586
57529SOL    HW174426   2.381  14.633  14.542
57529SOL    HW274427   2.321  14.540  14.646
57530SOL     OW74428   9.163  12.677  14.068
57530SOL    HW174429   9.184  12.770  14.066
57530SOL    HW274430   9.199  12.646  14.151
57531SOL     OW74431  13.351   7.595  10.911
57531SOL    HW174432  13.303   7.632  10.985
57531SOL    HW274433  13.439   7.577  10.945
57532SOL     OW74434   2.804  13.248   5.532
57532SOL    HW174435   2.772  13.337   5.519
57532SOL    HW274436   2.737  13.193   5.490
57533SOL     OW74437  10.594   7.193  14.506
57533SOL    HW174438  10.686   7.173  14.521
57533SOL    HW274439  10.593   7.282  14.472
57534SOL     OW74440   9.875  14.173   0.443
57534SOL    HW174441   9.961  14.156   0.482
57534SOL    HW274442   9.861  14.267   0.454
57535SOL     OW74443   6.976   7.058   7.894
57535SOL    HW174444   7.028   7.011   7.959
57535SOL    HW274445   6.980   7.003   7.816
57536SOL     OW74446   9.233  11.987  13.057
57536SOL    HW174447   9.181  11.995  13.137
57536SOL    HW274448   9.204  12.061  13.003
57537SOL     OW74449   7.113  12.063   5.139
57537SOL    HW174450   7.079  12.007   5.208
57537SOL    HW274451   7.139  12.144   5.184
57538SOL     OW74452   7.312   5.971   5.737
57538SOL    HW174453   7.366   5.996   5.662
57538SOL    HW274454   7.223   5.995   5.712
57539SOL     OW74455  14.021  13.034  10.993
57539SOL    HW174456  14.043  13.008  10.904
57539SOL    HW274457  14.031  12.953  11.044
57540SOL     OW74458   4.280  14.645   3.129
57540SOL    HW174459   4.207  14.600   3.171
57540SOL    HW274460   4.348  14.578   3.121
57541SOL     OW74461  10.697  12.736   2.441
57541SOL    HW174462  10.682  12.653   2.395
57541SOL    HW274463  10.758  12.714   2.511
57542SOL     OW74464   2.107   3.527  13.841
57542SOL    HW174465   2.106   3.499  13.749
57542SOL    HW274466   2.149   3.455  13.888
57543SOL     OW74467   9.167   5.687  13.984
57543SOL    HW174468   9.168   5.781  14.000
57543SOL    HW274469   9.134   5.678  13.895
57544SOL     OW74470  11.969   9.402   0.006
57544SOL    HW174471  11.873   9.403   0.011
57544SOL    HW274472  11.990   9.327  14.824
57545SOL     OW74473   7.636   1.443   7.753
57545SOL    HW174474   7.601   1.414   7.669
57545SOL    HW274475   7.672   1.363   7.793
57546SOL     OW74476  13.315   1.982  13.246
57546SOL    HW174477  13.369   2.021  13.177
57546SOL    HW274478  13.243   2.044  13.258
57547SOL     OW74479   7.252  13.931   1.522
57547SOL    HW174480   7.177  13.876   1.498
57547SOL    HW274481   7.265  13.988   1.447
57548SOL     OW74482   1.056   8.550   6.679
57548SOL    HW174483   0.993   8.503   6.734
57548SOL    HW274484   1.123   8.581   6.740
57549SOL     OW74485   5.011  13.863   3.626
57549SOL    HW174486   5.069  13.919   3.677
57549SOL    HW274487   4.951  13.924   3.583
57550SOL     OW74488   3.783   4.044   9.780
57550SOL    HW174489   3.856   4.004   9.734
57550SOL    HW274490   3.817   4.128   9.811
57551SOL     OW74491   4.881  10.998   6.649
57551SOL    HW174492   4.919  10.940   6.583
57551SOL    HW274493   4.889  11.086   6.611
57552SOL     OW74494  12.867   9.402  12.142
57552SOL    HW174495  12.932   9.364  12.201
57552SOL    HW274496  12.919   9.448  12.075
57553SOL     OW74497   4.378   2.486   3.732
57553SOL    HW174498   4.307   2.532   3.777
57553SOL    HW274499   4.333   2.426   3.672
57554SOL     OW74500  13.866   5.232   2.663
57554SOL    HW174501  13.960   5.224   2.647
57554SOL    HW274502  13.859   5.297   2.733
57555SOL     OW74503   8.583   2.682   6.149
57555SOL    HW174504   8.594   2.589   6.170
57555SOL    HW274505   8.495   2.688   6.112
57556SOL     OW74506   1.920   4.512  11.259
57556SOL    HW174507   1.954   4.422  11.254
57556SOL    HW274508   1.998   4.566  11.274
57557SOL     OW74509   5.968  11.442   6.072
57557SOL    HW174510   5.878  11.426   6.097
57557SOL    HW274511   5.977  11.402   5.986
57558SOL     OW74512  12.260   0.261  10.752
57558SOL    HW174513  12.243   0.185  10.808
57558SOL    HW274514  12.291   0.329  10.812
57559SOL     OW74515   9.053   9.685   5.729
57559SOL    HW174516   9.131   9.733   5.700
57559SOL    HW274517   9.059   9.686   5.824
57560SOL     OW74518  12.545  13.103   7.511
57560SOL    HW174519  12.459  13.065   7.530
57560SOL    HW274520  12.585  13.118   7.597
57561SOL     OW74521  11.973  12.879   7.751
57561SOL    HW174522  12.027  12.871   7.672
57561SOL    HW274523  11.922  12.959   7.737
57562SOL     OW74524   4.269   9.271   5.849
57562SOL    HW174525   4.277   9.322   5.769
57562SOL    HW274526   4.188   9.302   5.890
57563SOL     OW74527   5.474   1.048  13.734
57563SOL    HW174528   5.387   1.041  13.695
57563SOL    HW274529   5.466   1.000  13.817
57564SOL     OW74530  14.055   8.514   5.658
57564SOL    HW174531  14.065   8.495   5.565
57564SOL    HW274532  14.103   8.596   5.672
57565SOL     OW74533   7.783  10.028  11.678
57565SOL    HW174534   7.851  10.079  11.724
57565SOL    HW274535   7.715  10.013  11.744
57566SOL     OW74536   6.945   6.828   4.739
57566SOL    HW174537   6.906   6.752   4.782
57566SOL    HW274538   7.031   6.798   4.709
57567SOL     OW74539  13.342  14.090   7.299
57567SOL    HW174540  13.418  14.037   7.323
57567SOL    HW274541  13.379  14.167   7.256
57568SOL     OW74542  10.493   7.076  13.401
57568SOL    HW174543  10.480   7.169  13.381
57568SOL    HW274544  10.579   7.055  13.363
57569SOL     OW74545   9.931  11.130   6.999
57569SOL    HW174546   9.840  11.156   6.993
57569SOL    HW274547   9.930  11.035   6.990
57570SOL     OW74548   4.778   1.643   6.005
57570SOL    HW174549   4.816   1.730   5.991
57570SOL    HW274550   4.687   1.659   6.030
57571SOL     OW74551   4.989   3.818   7.859
57571SOL    HW174552   4.990   3.870   7.778
57571SOL    HW274553   5.074   3.774   7.860
57572SOL     OW74554   1.536   5.661   7.850
57572SOL    HW174555   1.522   5.695   7.761
57572SOL    HW274556   1.516   5.568   7.843
57573SOL     OW74557  10.316   1.547   4.264
57573SOL    HW174558  10.364   1.523   4.184
57573SOL    HW274559  10.358   1.627   4.294
57574SOL     OW74560  12.986   6.497   2.902
57574SOL    HW174561  13.040   6.439   2.849
57574SOL    HW274562  12.931   6.439   2.955
57575SOL     OW74563  10.737   7.011   9.693
57575SOL    HW174564  10.749   7.095   9.650
57575SOL    HW274565  10.652   6.979   9.661
57576SOL     OW74566   1.340  12.273   9.909
57576SOL    HW174567   1.413  12.335   9.914
57576SOL    HW274568   1.380  12.192   9.877
57577SOL     OW74569   3.716  12.689   9.417
57577SOL    HW174570   3.794  12.732   9.452
57577SOL    HW274571   3.741  12.598   9.406
57578SOL     OW74572   3.257   2.006   8.684
57578SOL    HW174573   3.181   2.046   8.642
57578SOL    HW274574   3.304   2.079   8.725
57579SOL     OW74575   5.032   7.943  10.011
57579SOL    HW174576   5.076   7.985   9.937
57579SOL    HW274577   4.941   7.971  10.004
57580SOL     OW74578  12.071  13.595  12.381
57580SOL    HW174579  12.150  13.641  12.411
57580SOL    HW274580  12.006  13.613  12.449
57581SOL     OW74581   0.067   5.666   5.600
57581SOL    HW174582   0.144   5.638   5.649
57581SOL    HW274583   0.028   5.735   5.653
57582SOL     OW74584   9.225   2.123  13.307
57582SOL    HW174585   9.268   2.093  13.227
57582SOL    HW274586   9.271   2.204  13.331
57583SOL     OW74587   3.207  11.740  10.165
57583SOL    HW174588   3.265  11.701  10.100
57583SOL    HW274589   3.156  11.804  10.116
57584SOL     OW74590  10.710   2.379  12.197
57584SOL    HW174591  10.667   2.447  12.146
57584SOL    HW274592  10.760   2.426  12.264
57585SOL     OW74593   9.307   9.560  12.954
57585SOL    HW174594   9.246   9.545  13.027
57585SOL    HW274595   9.264   9.519  12.879
57586SOL     OW74596   2.918   8.512   7.795
57586SOL    HW174597   2.999   8.559   7.811
57586SOL    HW274598   2.852   8.557   7.848
57587SOL     OW74599   5.447   4.322   7.333
57587SOL    HW174600   5.402   4.384   7.275
57587SOL    HW274601   5.529   4.365   7.356
57588SOL     OW74602   5.873   6.403  11.116
57588SOL    HW174603   5.847   6.484  11.073
57588SOL    HW274604   5.849   6.334  11.053
57589SOL     OW74605   9.904   0.990   0.623
57589SOL    HW174606   9.969   0.957   0.561
57589SOL    HW274607   9.871   1.071   0.583
57590SOL     OW74608   0.482  12.270   9.361
57590SOL    HW174609   0.429  12.324   9.420
57590SOL    HW274610   0.425  12.252   9.286
57591SOL     OW74611  11.670   4.119   8.447
57591SOL    HW174612  11.689   4.213   8.445
57591SOL    HW274613  11.738   4.080   8.392
57592SOL     OW74614   7.107  11.270   2.022
57592SOL    HW174615   7.112  11.350   2.073
57592SOL    HW274616   7.196  11.237   2.020
57593SOL     OW74617   9.269   6.686  13.433
57593SOL    HW174618   9.218   6.727  13.503
57593SOL    HW274619   9.266   6.749  13.361
57594SOL     OW74620  10.836  14.523  13.396
57594SOL    HW174621  10.844  14.443  13.449
57594SOL    HW274622  10.910  14.519  13.335
57595SOL     OW74623  12.335   2.613   5.611
57595SOL    HW174624  12.249   2.654   5.624
57595SOL    HW274625  12.373   2.661   5.538
57596SOL     OW74626   8.586   4.744   1.432
57596SOL    HW174627   8.554   4.711   1.516
57596SOL    HW274628   8.647   4.814   1.456
57597SOL     OW74629  12.376   9.642  10.941
57597SOL    HW174630  12.320   9.716  10.918
57597SOL    HW274631  12.369   9.582  10.866
57598SOL     OW74632   2.770   7.079  12.583
57598SOL    HW174633   2.830   7.036  12.644
57598SOL    HW274634   2.800   7.170  12.580
57599SOL     OW74635   5.496   1.671  11.447
57599SOL    HW174636   5.472   1.701  11.359
57599SOL    HW274637   5.421   1.692  11.501
57600SOL     OW74638   3.999   6.155   0.905
57600SOL    HW174639   4.051   6.188   0.832
57600SOL    HW274640   3.941   6.228   0.928
57601SOL     OW74641   2.166  10.820   5.252
57601SOL    HW174642   2.210  10.891   5.206
57601SOL    HW274643   2.203  10.822   5.341
57602SOL     OW74644   7.856   6.490   9.893
57602SOL    HW174645   7.783   6.521   9.946
57602SOL    HW274646   7.929   6.546   9.917
57603SOL     OW74647   6.825  11.726  13.206
57603SOL    HW174648   6.865  11.755  13.124
57603SOL    HW274649   6.745  11.779  13.214
57604SOL     OW74650   2.636   5.888   9.625
57604SOL    HW174651   2.707   5.823   9.628
57604SOL    HW274652   2.681   5.972   9.614
57605SOL     OW74653   9.494   3.486   0.992
57605SOL    HW174654   9.585   3.501   0.969
57605SOL    HW274655   9.445   3.506   0.911
57606SOL     OW74656  10.564   4.450   7.491
57606SOL    HW174657  10.470   4.430   7.501
57606SOL    HW274658  10.566   4.530   7.439
57607SOL     OW74659   4.190   7.584  10.444
57607SOL    HW174660   4.112   7.529  10.450
57607SOL    HW274661   4.156   7.673  10.450
57608SOL     OW74662   2.662   4.988   7.345
57608SOL    HW174663   2.713   5.010   7.423
57608SOL    HW274664   2.572   5.008   7.369
57609SOL     OW74665  14.020   0.671   4.564
57609SOL    HW174666  14.016   0.579   4.589
57609SOL    HW274667  14.112   0.694   4.570
57610SOL     OW74668  14.301  10.325   5.690
57610SOL    HW174669  14.309  10.264   5.763
57610SOL    HW274670  14.216  10.304   5.650
57611SOL     OW74671   9.423  12.441   6.112
57611SOL    HW174672   9.370  12.520   6.124
57611SOL    HW274673   9.436  12.408   6.201
57612SOL     OW74674   4.962  12.038   4.082
57612SOL    HW174675   4.999  12.102   4.021
57612SOL    HW274676   4.867  12.054   4.079
57613SOL     OW74677   2.121  14.189  10.461
57613SOL    HW174678   2.183  14.173  10.390
57613SOL    HW274679   2.168  14.161  10.540
57614SOL     OW74680   2.639  13.420  12.026
57614SOL    HW174681   2.631  13.399  11.933
57614SOL    HW274682   2.558  13.466  12.047
57615SOL     OW74683  12.203  12.532  10.473
57615SOL    HW174684  12.129  12.489  10.517
57615SOL    HW274685  12.169  12.551  10.385
57616SOL     OW74686   3.775   1.081   2.074
57616SOL    HW174687   3.718   1.155   2.054
57616SOL    HW274688   3.858   1.120   2.099
57617SOL     OW74689  13.006   7.661   7.298
57617SOL    HW174690  12.939   7.595   7.313
57617SOL    HW274691  13.017   7.665   7.203
57618SOL     OW74692   2.567   4.676   7.535
57618SOL    HW174693   2.655   4.714   7.534
57618SOL    HW274694   2.531   4.701   7.620
57619SOL     OW74695   3.250  13.491  13.022
57619SOL    HW174696   3.238  13.399  12.998
57619SOL    HW274697   3.243  13.538  12.938
57620SOL     OW74698   4.136   2.981   8.061
57620SOL    HW174699   4.225   3.010   8.084
57620SOL    HW274700   4.110   3.038   7.989
57621SOL     OW74701   4.127  11.770  13.653
57621SOL    HW174702   4.057  11.836  13.649
57621SOL    HW274703   4.092  11.702  13.710
57622SOL     OW74704  14.418   9.597   8.123
57622SOL    HW174705  14.480   9.591   8.196
57622SOL    HW274706  14.403   9.506   8.097
57623SOL     OW74707   3.656  14.608  12.943
57623SOL    HW174708   3.603  14.532  12.920
57623SOL    HW274709   3.682  14.592  13.034
57624SOL     OW74710  10.050   5.928   3.974
57624SOL    HW174711  10.087   5.877   4.046
57624SOL    HW274712   9.960   5.897   3.966
57625SOL     OW74713   4.035  11.805  13.037
57625SOL    HW174714   4.111  11.746  13.038
57625SOL    HW274715   4.030  11.840  13.126
57626SOL     OW74716   7.395   5.131   1.341
57626SOL    HW174717   7.373   5.076   1.265
57626SOL    HW274718   7.345   5.093   1.413
57627SOL     OW74719  13.079   6.470  10.098
57627SOL    HW174720  13.063   6.519  10.017
57627SOL    HW274721  13.133   6.396  10.071
57628SOL     OW74722   6.200   9.858   9.080
57628SOL    HW174723   6.174   9.778   9.125
57628SOL    HW274724   6.121   9.888   9.036
57629SOL     OW74725  10.545  12.480   1.760
57629SOL    HW174726  10.503  12.405   1.803
57629SOL    HW274727  10.564  12.541   1.832
57630SOL     OW74728   5.289   4.973   7.395
57630SOL    HW174729   5.329   5.047   7.349
57630SOL    HW274730   5.230   5.014   7.459
57631SOL     OW74731   4.612  10.566   0.404
57631SOL    HW174732   4.613  10.599   0.315
57631SOL    HW274733   4.649  10.637   0.457
57632SOL     OW74734  12.463   1.109   0.194
57632SOL    HW174735  12.525   1.037   0.206
57632SOL    HW274736  12.405   1.080   0.123
57633SOL     OW74737  13.330  12.181   1.699
57633SOL    HW174738  13.340  12.086   1.694
57633SOL    HW274739  13.249  12.194   1.747
57634SOL     OW74740   0.351   6.056   5.950
57634SOL    HW174741   0.368   6.124   5.885
57634SOL    HW274742   0.428   5.999   5.945
57635SOL     OW74743   9.857   0.061   8.580
57635SOL    HW174744   9.905   0.018   8.652
57635SOL    HW274745   9.783   0.104   8.623
57636SOL     OW74746   2.783  13.841  13.202
57636SOL    HW174747   2.867  13.857  13.158
57636SOL    HW274748   2.717  13.868  13.138
57637SOL     OW74749  11.759  11.924   8.537
57637SOL    HW174750  11.786  11.933   8.445
57637SOL    HW274751  11.754  11.830   8.551
57638SOL     OW74752   2.763   2.488   8.145
57638SOL    HW174753   2.690   2.434   8.176
57638SOL    HW274754   2.741   2.577   8.174
57639SOL     OW74755   2.814  14.850   6.494
57639SOL    HW174756   2.836   0.039   6.425
57639SOL    HW274757   2.855  14.768   6.467
57640SOL     OW74758  13.661   5.149  12.428
57640SOL    HW174759  13.603   5.124  12.500
57640SOL    HW274760  13.602   5.180  12.359
57641SOL     OW74761  10.102   8.234  12.942
57641SOL    HW174762  10.060   8.161  12.898
57641SOL    HW274763  10.030   8.288  12.975
57642SOL     OW74764   4.494   8.919   1.715
57642SOL    HW174765   4.583   8.954   1.721
57642SOL    HW274766   4.489   8.881   1.627
57643SOL     OW74767   9.090   9.096   3.198
57643SOL    HW174768   9.038   9.175   3.215
57643SOL    HW274769   9.025   9.028   3.180
57644SOL     OW74770  11.570   2.588  14.177
57644SOL    HW174771  11.602   2.499  14.193
57644SOL    HW274772  11.519   2.581  14.096
57645SOL     OW74773   8.425   8.969   1.042
57645SOL    HW174774   8.511   8.970   1.085
57645SOL    HW274775   8.423   8.885   0.996
57646SOL     OW74776  10.772   5.930   3.011
57646SOL    HW174777  10.829   5.854   3.024
57646SOL    HW274778  10.782   5.952   2.919
57647SOL     OW74779   5.137  13.467   3.377
57647SOL    HW174780   5.051  13.450   3.414
57647SOL    HW274781   5.123  13.539   3.316
57648SOL     OW74782  11.250   3.551   8.776
57648SOL    HW174783  11.197   3.481   8.738
57648SOL    HW274784  11.338   3.537   8.740
57649SOL     OW74785   7.982   3.173   8.256
57649SOL    HW174786   8.002   3.111   8.185
57649SOL    HW274787   8.061   3.176   8.309
57650SOL     OW74788   5.302   1.281   9.083
57650SOL    HW174789   5.366   1.336   9.129
57650SOL    HW274790   5.344   1.196   9.076
57651SOL     OW74791   1.499   3.756   9.216
57651SOL    HW174792   1.436   3.684   9.220
57651SOL    HW274793   1.581   3.719   9.247
57652SOL     OW74794  13.427   5.408   2.520
57652SOL    HW174795  13.438   5.397   2.614
57652SOL    HW274796  13.422   5.320   2.485
57653SOL     OW74797   5.143   5.092  10.318
57653SOL    HW174798   5.103   5.122  10.236
57653SOL    HW274799   5.077   5.109  10.385
57654SOL     OW74800   8.446  11.963   4.219
57654SOL    HW174801   8.455  11.884   4.166
57654SOL    HW274802   8.359  11.956   4.258
57655SOL     OW74803   0.461   7.922   2.227
57655SOL    HW174804   0.502   7.924   2.140
57655SOL    HW274805   0.436   8.012   2.244
57656SOL     OW74806   7.784   6.201   8.573
57656SOL    HW174807   7.770   6.209   8.478
57656SOL    HW274808   7.876   6.224   8.585
57657SOL     OW74809   1.887  12.447   9.290
57657SOL    HW174810   1.868  12.536   9.261
57657SOL    HW274811   1.858  12.445   9.381
57658SOL     OW74812   2.923   8.502   6.847
57658SOL    HW174813   2.855   8.557   6.887
57658SOL    HW274814   3.002   8.520   6.898
57659SOL     OW74815  14.225   3.767  12.690
57659SOL    HW174816  14.154   3.818  12.729
57659SOL    HW274817  14.301   3.825  12.694
57660SOL     OW74818   1.505  13.054   8.099
57660SOL    HW174819   1.474  13.035   8.188
57660SOL    HW274820   1.565  12.982   8.079
57661SOL     OW74821  12.614   4.583  12.181
57661SOL    HW174822  12.573   4.504  12.216
57661SOL    HW274823  12.541   4.641  12.159
57662SOL     OW74824   6.129  14.698   6.062
57662SOL    HW174825   6.085  14.777   6.031
57662SOL    HW274826   6.167  14.659   5.983
57663SOL     OW74827   9.914   4.451   6.097
57663SOL    HW174828   9.950   4.455   6.008
57663SOL    HW274829   9.987   4.478   6.152
57664SOL     OW74830  11.541  10.509  10.832
57664SOL    HW174831  11.526  10.566  10.908
57664SOL    HW274832  11.477  10.538  10.767
57665SOL     OW74833  12.075   3.514   8.414
57665SOL    HW174834  12.038   3.559   8.491
57665SOL    HW274835  12.123   3.440   8.451
57666SOL     OW74836   1.101   3.590  13.790
57666SOL    HW174837   1.145   3.673  13.773
57666SOL    HW274838   1.016   3.599  13.746
57667SOL     OW74839   5.121   6.072   5.915
57667SOL    HW174840   5.137   6.030   6.000
57667SOL    HW274841   5.043   6.126   5.930
57668SOL     OW74842   9.737   2.356  13.655
57668SOL    HW174843   9.781   2.276  13.627
57668SOL    HW274844   9.780   2.380  13.737
57669SOL     OW74845   7.316   2.367   9.351
57669SOL    HW174846   7.317   2.369   9.447
57669SOL    HW274847   7.232   2.406   9.327
57670SOL     OW74848  10.917  14.846   5.668
57670SOL    HW174849  10.968  14.855   5.748
57670SOL    HW274850  10.847  14.785   5.690
57671SOL     OW74851  11.053   5.086   6.216
57671SOL    HW174852  11.129   5.131   6.178
57671SOL    HW274853  10.990   5.080   6.144
57672SOL     OW74854   5.424   1.693   7.360
57672SOL    HW174855   5.332   1.713   7.374
57672SOL    HW274856   5.469   1.777   7.372
57673SOL     OW74857   5.759   8.214  13.046
57673SOL    HW174858   5.707   8.183  12.972
57673SOL    HW274859   5.728   8.302  13.063
57674SOL     OW74860   3.566   4.497   8.424
57674SOL    HW174861   3.598   4.432   8.487
57674SOL    HW274862   3.630   4.568   8.427
57675SOL     OW74863   0.555  14.772   9.430
57675SOL    HW174864   0.580  14.718   9.505
57675SOL    HW274865   0.502  14.843   9.467
57676SOL     OW74866  11.611   2.007  11.846
57676SOL    HW174867  11.540   2.010  11.910
57676SOL    HW274868  11.691   2.007  11.899
57677SOL     OW74869   7.501   4.240   3.367
57677SOL    HW174870   7.522   4.331   3.389
57677SOL    HW274871   7.548   4.225   3.284
57678SOL     OW74872   9.410   1.623  10.149
57678SOL    HW174873   9.495   1.650  10.185
57678SOL    HW274874   9.428   1.606  10.056
57679SOL     OW74875   5.130  10.864   0.500
57679SOL    HW174876   5.142  10.805   0.426
57679SOL    HW274877   5.042  10.844   0.533
57680SOL     OW74878  11.903   2.912  11.119
57680SOL    HW174879  11.981   2.952  11.157
57680SOL    HW274880  11.918   2.914  11.025
57681SOL     OW74881  11.167  11.129  11.716
57681SOL    HW174882  11.217  11.203  11.750
57681SOL    HW274883  11.077  11.147  11.743
57682SOL     OW74884   8.672   0.985  11.620
57682SOL    HW174885   8.666   0.940  11.536
57682SOL    HW274886   8.731   1.059  11.604
57683SOL     OW74887  13.795   0.271   7.472
57683SOL    HW174888  13.798   0.366   7.462
57683SOL    HW274889  13.708   0.253   7.509
57684SOL     OW74890   7.222   3.904  12.770
57684SOL    HW174891   7.292   3.958  12.807
57684SOL    HW274892   7.141   3.946  12.800
57685SOL     OW74893   0.322  10.495   6.284
57685SOL    HW174894   0.344  10.504   6.191
57685SOL    HW274895   0.227  10.506   6.287
57686SOL     OW74896  14.759   5.390   0.510
57686SOL    HW174897  14.814   5.388   0.588
57686SOL    HW274898  14.743   5.483   0.493
57687SOL     OW74899   5.679   3.490   3.225
57687SOL    HW174900   5.757   3.546   3.216
57687SOL    HW274901   5.706   3.421   3.286
57688SOL     OW74902   5.145   4.211   9.710
57688SOL    HW174903   5.218   4.250   9.758
57688SOL    HW274904   5.067   4.244   9.754
57689SOL     OW74905   4.412   6.025   6.696
57689SOL    HW174906   4.466   5.970   6.639
57689SOL    HW274907   4.338   6.051   6.641
57690SOL     OW74908   2.979  12.525   8.256
57690SOL    HW174909   3.040  12.594   8.280
57690SOL    HW274910   2.946  12.551   8.170
57691SOL     OW74911   9.317  12.781   9.666
57691SOL    HW174912   9.226  12.751   9.667
57691SOL    HW274913   9.323  12.838   9.589
57692SOL     OW74914  10.614   4.712  14.090
57692SOL    HW174915  10.562   4.786  14.061
57692SOL    HW274916  10.682   4.702  14.023
57693SOL     OW74917  11.340   0.006   7.768
57693SOL    HW174918  11.331  14.798   7.720
57693SOL    HW274919  11.328  14.856   7.859
57694SOL     OW74920  10.229   4.829   2.389
57694SOL    HW174921  10.291   4.813   2.318
57694SOL    HW274922  10.284   4.848   2.465
57695SOL     OW74923  11.569  10.059  13.388
57695SOL    HW174924  11.640   9.999  13.410
57695SOL    HW274925  11.514  10.061  13.467
57696SOL     OW74926   0.457   4.285   6.708
57696SOL    HW174927   0.494   4.373   6.710
57696SOL    HW274928   0.532   4.228   6.691
57697SOL     OW74929  14.786   0.961   4.943
57697SOL    HW174930   0.006   0.963   4.960
57697SOL    HW274931  14.762   0.869   4.958
57698SOL     OW74932  10.546  11.957   0.218
57698SOL    HW174933  10.626  11.995   0.257
57698SOL    HW274934  10.574  11.872   0.184
57699SOL     OW74935  10.670  12.920   1.044
57699SOL    HW174936  10.700  12.840   1.086
57699SOL    HW274937  10.739  12.941   0.981
57700SOL     OW74938  13.862   5.860   5.384
57700SOL    HW174939  13.818   5.927   5.332
57700SOL    HW274940  13.881   5.790   5.322
57701SOL     OW74941   2.005   0.398   5.058
57701SOL    HW174942   1.973   0.382   4.969
57701SOL    HW274943   1.994   0.492   5.070
57702SOL     OW74944   9.158   6.705  12.408
57702SOL    HW174945   9.179   6.795  12.383
57702SOL    HW274946   9.109   6.714  12.489
57703SOL     OW74947  14.675   9.127   0.709
57703SOL    HW174948  14.747   9.164   0.761
57703SOL    HW274949  14.682   9.171   0.625
57704SOL     OW74950  12.906   1.389   2.155
57704SOL    HW174951  12.856   1.309   2.166
57704SOL    HW274952  12.869   1.431   2.077
57705SOL     OW74953  14.099   3.202  10.353
57705SOL    HW174954  14.184   3.234  10.383
57705SOL    HW274955  14.054   3.280  10.320
57706SOL     OW74956   4.911  14.400   6.195
57706SOL    HW174957   4.863  14.476   6.226
57706SOL    HW274958   4.852  14.326   6.211
57707SOL     OW74959   7.669  13.226   2.768
57707SOL    HW174960   7.709  13.205   2.684
57707SOL    HW274961   7.697  13.156   2.827
57708SOL     OW74962  12.292   0.461  13.135
57708SOL    HW174963  12.255   0.496  13.217
57708SOL    HW274964  12.257   0.518  13.067
57709SOL     OW74965   2.323   9.956   9.943
57709SOL    HW174966   2.246   9.950   9.999
57709SOL    HW274967   2.393   9.984  10.001
57710SOL     OW74968   9.789   0.129   6.817
57710SOL    HW174969   9.698   0.150   6.836
57710SOL    HW274970   9.815   0.191   6.749
57711SOL     OW74971   2.990   6.467   2.790
57711SOL    HW174972   3.057   6.517   2.744
57711SOL    HW274973   2.912   6.523   2.787
57712SOL     OW74974  14.068  10.014  11.820
57712SOL    HW174975  14.041  10.033  11.731
57712SOL    HW274976  14.159  10.043  11.824
57713SOL     OW74977   3.205   1.845  14.248
57713SOL    HW174978   3.176   1.813  14.334
57713SOL    HW274979   3.130   1.892  14.213
57714SOL     OW74980   6.715   4.439   5.947
57714SOL    HW174981   6.747   4.523   5.915
57714SOL    HW274982   6.648   4.463   6.012
57715SOL     OW74983  13.042  13.278  14.861
57715SOL    HW174984  13.074  13.191   0.011
57715SOL    HW274985  13.041  13.327   0.069
57716SOL     OW74986   4.957   1.607   3.710
57716SOL    HW174987   4.922   1.678   3.656
57716SOL    HW274988   4.936   1.632   3.799
57717SOL     OW74989   2.123   8.787  14.571
57717SOL    HW174990   2.037   8.767  14.607
57717SOL    HW274991   2.175   8.708  14.586
57718SOL     OW74992  11.385   5.367  12.301
57718SOL    HW174993  11.408   5.411  12.220
57718SOL    HW274994  11.350   5.283  12.273
57719SOL     OW74995   0.093   3.811  10.985
57719SOL    HW174996   0.097   3.878  11.053
57719SOL    HW274997   0.183   3.778  10.978
57720SOL     OW74998  14.387  14.143   5.215
57720SOL    HW174999  14.400  14.084   5.140
57720SOL    HW275000  14.434  14.100   5.287
57721SOL     OW75001   9.892   2.389   5.317
57721SOL    HW175002   9.988   2.382   5.313
57721SOL    HW275003   9.866   2.397   5.225
57722SOL     OW75004   6.569   5.871  10.407
57722SOL    HW175005   6.612   5.887  10.323
57722SOL    HW275006   6.580   5.953  10.455
57723SOL     OW75007   5.281   4.332  13.377
57723SOL    HW175008   5.279   4.401  13.311
57723SOL    HW275009   5.232   4.367  13.451
57724SOL     OW75010   7.328  11.776   5.141
57724SOL    HW175011   7.344  11.743   5.229
57724SOL    HW275012   7.380  11.720   5.084
57725SOL     OW75013   0.174   6.097  11.214
57725SOL    HW175014   0.225   6.174  11.240
57725SOL    HW275015   0.209   6.026  11.268
57726SOL     OW75016  10.972  11.428   2.263
57726SOL    HW175017  10.906  11.451   2.198
57726SOL    HW275018  10.931  11.445   2.348
57727SOL     OW75019  10.028  12.192   7.240
57727SOL    HW175020   9.996  12.249   7.310
57727SOL    HW275021   9.963  12.202   7.170
57728SOL     OW75022   2.133  12.762  11.090
57728SOL    HW175023   2.110  12.721  11.173
57728SOL    HW275024   2.125  12.692  11.025
57729SOL     OW75025   5.543   2.467  13.427
57729SOL    HW175026   5.580   2.500  13.509
57729SOL    HW275027   5.451   2.492  13.430
57730SOL     OW75028  11.338  10.635  10.702
57730SOL    HW175029  11.371  10.711  10.752
57730SOL    HW275030  11.351  10.659  10.610
57731SOL     OW75031  12.139   4.093   0.051
57731SOL    HW175032  12.229   4.114   0.076
57731SOL    HW275033  12.148   4.042  14.844
57732SOL     OW75034  12.826  12.236   5.327
57732SOL    HW175035  12.914  12.204   5.305
57732SOL    HW275036  12.800  12.290   5.252
57733SOL     OW75037   3.200  14.505  14.554
57733SOL    HW175038   3.288  14.468  14.563
57733SOL    HW275039   3.215  14.598  14.538
57734SOL     OW75040  14.653   6.541   8.271
57734SOL    HW175041  14.737   6.509   8.302
57734SOL    HW275042  14.637   6.621   8.321
57735SOL     OW75043   9.906  13.147   4.132
57735SOL    HW175044   9.893  13.189   4.217
57735SOL    HW275045   9.969  13.204   4.087
57736SOL     OW75046   8.038   0.235   5.809
57736SOL    HW175047   7.994   0.240   5.724
57736SOL    HW275048   8.088   0.153   5.806
57737SOL     OW75049  11.799   9.767   7.956
57737SOL    HW175050  11.758   9.735   8.037
57737SOL    HW275051  11.839   9.689   7.917
57738SOL     OW75052   7.524   2.869   3.186
57738SOL    HW175053   7.600   2.834   3.139
57738SOL    HW275054   7.449   2.829   3.142
57739SOL     OW75055   0.817  12.143  14.482
57739SOL    HW175056   0.893  12.085  14.488
57739SOL    HW275057   0.748  12.095  14.527
57740SOL     OW75058  14.729  10.052   1.906
57740SOL    HW175059  14.676   9.974   1.924
57740SOL    HW275060  14.701  10.080   1.818
57741SOL     OW75061   4.921   6.646   9.446
57741SOL    HW175062   4.914   6.630   9.540
57741SOL    HW275063   4.980   6.578   9.414
57742SOL     OW75064   8.537   3.338   4.590
57742SOL    HW175065   8.486   3.308   4.665
57742SOL    HW275066   8.618   3.286   4.593
57743SOL     OW75067   7.211   2.820   3.323
57743SOL    HW175068   7.188   2.728   3.337
57743SOL    HW275069   7.173   2.842   3.238
57744SOL     OW75070   9.252  10.120   4.592
57744SOL    HW175071   9.326  10.066   4.621
57744SOL    HW275072   9.231  10.174   4.668
57745SOL     OW75073  13.277   1.375   3.700
57745SOL    HW175074  13.351   1.436   3.699
57745SOL    HW275075  13.230   1.392   3.619
57746SOL     OW75076  10.334   8.421   5.979
57746SOL    HW175077  10.242   8.438   6.000
57746SOL    HW275078  10.383   8.457   6.054
57747SOL     OW75079  14.848  12.655  10.730
57747SOL    HW175080   0.065  12.664  10.702
57747SOL    HW275081  14.821  12.744  10.754
57748SOL     OW75082   2.701   3.229   5.829
57748SOL    HW175083   2.711   3.323   5.812
57748SOL    HW275084   2.732   3.218   5.919
57749SOL     OW75085  10.859  10.032   2.471
57749SOL    HW175086  10.885  10.081   2.392
57749SOL    HW275087  10.857  10.098   2.540
57750SOL     OW75088   0.996   6.885   7.672
57750SOL    HW175089   1.001   6.935   7.590
57750SOL    HW275090   0.910   6.844   7.669
57751SOL     OW75091  11.461   1.221   3.868
57751SOL    HW175092  11.535   1.239   3.926
57751SOL    HW275093  11.499   1.209   3.782
57752SOL     OW75094   8.625  12.351  12.213
57752SOL    HW175095   8.549  12.407  12.207
57752SOL    HW275096   8.598  12.279  12.270
57753SOL     OW75097   7.784  10.929  10.801
57753SOL    HW175098   7.824  10.964  10.722
57753SOL    HW275099   7.851  10.872  10.839
57754SOL     OW75100  12.461   8.526  10.511
57754SOL    HW175101  12.433   8.596  10.453
57754SOL    HW275102  12.512   8.570  10.579
57755SOL     OW75103   4.853   0.247  11.205
57755SOL    HW175104   4.768   0.238  11.247
57755SOL    HW275105   4.837   0.225  11.114
57756SOL     OW75106   1.201   0.297  13.267
57756SOL    HW175107   1.106   0.290  13.275
57756SOL    HW275108   1.226   0.358  13.336
57757SOL     OW75109   1.259   0.031   0.179
57757SOL    HW175110   1.258   0.077   0.096
57757SOL    HW275111   1.181   0.062   0.225
57758SOL     OW75112   6.555   9.270   0.710
57758SOL    HW175113   6.549   9.177   0.733
57758SOL    HW275114   6.637   9.300   0.750
57759SOL     OW75115  10.355   1.618   4.637
57759SOL    HW175116  10.410   1.634   4.714
57759SOL    HW275117  10.416   1.621   4.563
57760SOL     OW75118   4.285  13.383   2.198
57760SOL    HW175119   4.352  13.430   2.149
57760SOL    HW275120   4.202  13.415   2.163
57761SOL     OW75121   5.291  10.344   0.682
57761SOL    HW175122   5.261  10.273   0.626
57761SOL    HW275123   5.357  10.390   0.630
57762SOL     OW75124  12.143  12.110   3.230
57762SOL    HW175125  12.064  12.061   3.209
57762SOL    HW275126  12.213  12.064   3.182
57763SOL     OW75127  11.046   5.357   1.826
57763SOL    HW175128  10.976   5.420   1.810
57763SOL    HW275129  11.107   5.403   1.884
57764SOL     OW75130   2.335  14.076   2.251
57764SOL    HW175131   2.317  14.004   2.190
57764SOL    HW275132   2.394  14.038   2.316
57765SOL     OW75133  11.011  14.294   7.712
57765SOL    HW175134  10.999  14.310   7.618
57765SOL    HW275135  11.056  14.210   7.717
57766SOL     OW75136  10.310   9.274  14.524
57766SOL    HW175137  10.295   9.368  14.529
57766SOL    HW275138  10.406   9.265  14.520
57767SOL     OW75139   3.916  13.785   1.763
57767SOL    HW175140   3.872  13.725   1.702
57767SOL    HW275141   3.999  13.741   1.783
57768SOL     OW75142   9.420   1.212   5.301
57768SOL    HW175143   9.505   1.168   5.295
57768SOL    HW275144   9.422   1.254   5.387
57769SOL     OW75145   1.860  13.207  12.761
57769SOL    HW175146   1.771  13.225  12.789
57769SOL    HW275147   1.874  13.114  12.779
57770SOL     OW75148   2.011   7.148   0.525
57770SOL    HW175149   2.018   7.239   0.497
57770SOL    HW275150   2.011   7.098   0.443
57771SOL     OW75151   3.080   9.485   8.240
57771SOL    HW175152   3.115   9.428   8.171
57771SOL    HW275153   3.065   9.426   8.314
57772SOL     OW75154  11.082   9.395   9.417
57772SOL    HW175155  11.155   9.356   9.369
57772SOL    HW275156  11.118   9.416   9.503
57773SOL     OW75157   1.809  13.136   8.112
57773SOL    HW175158   1.732  13.177   8.074
57773SOL    HW275159   1.783  13.112   8.201
57774SOL     OW75160  10.294   5.371   9.550
57774SOL    HW175161  10.367   5.432   9.559
57774SOL    HW275162  10.275   5.371   9.456
57775SOL     OW75163  10.809   4.089   6.205
57775SOL    HW175164  10.747   4.127   6.142
57775SOL    HW275165  10.895   4.104   6.166
57776SOL     OW75166   1.698   7.851   8.673
57776SOL    HW175167   1.736   7.836   8.587
57776SOL    HW275168   1.726   7.777   8.726
57777SOL     OW75169   1.889  11.248   5.980
57777SOL    HW175170   1.910  11.289   5.896
57777SOL    HW275171   1.889  11.154   5.962
57778SOL     OW75172   8.771   5.109  14.293
57778SOL    HW175173   8.703   5.042  14.302
57778SOL    HW275174   8.852   5.062  14.313
57779SOL     OW75175   5.864  13.179   4.251
57779SOL    HW175176   5.844  13.179   4.158
57779SOL    HW275177   5.949  13.134   4.258
57780SOL     OW75178   0.129   5.381  12.209
57780SOL    HW175179   0.192   5.346  12.271
57780SOL    HW275180   0.102   5.465  12.247
57781SOL     OW75181   0.546   5.647   1.293
57781SOL    HW175182   0.488   5.570   1.290
57781SOL    HW275183   0.515   5.704   1.223
57782SOL     OW75184   9.419  12.435   1.100
57782SOL    HW175185   9.383  12.379   1.031
57782SOL    HW275186   9.386  12.523   1.080
57783SOL     OW75187   1.217   1.528   6.939
57783SOL    HW175188   1.150   1.478   6.987
57783SOL    HW275189   1.297   1.478   6.953
57784SOL     OW75190   3.688  10.668   3.676
57784SOL    HW175191   3.779  10.676   3.704
57784SOL    HW275192   3.638  10.712   3.745
57785SOL     OW75193   7.542   0.147  14.125
57785SOL    HW175194   7.603   0.075  14.140
57785SOL    HW275195   7.495   0.157  14.208
57786SOL     OW75196   1.472   5.842  11.143
57786SOL    HW175197   1.495   5.905  11.211
57786SOL    HW275198   1.390   5.875  11.106
57787SOL     OW75199   6.506   8.818   6.874
57787SOL    HW175200   6.510   8.896   6.818
57787SOL    HW275201   6.423   8.827   6.921
57788SOL     OW75202   8.314  11.758   9.532
57788SOL    HW175203   8.230  11.800   9.549
57788SOL    HW275204   8.294  11.689   9.468
57789SOL     OW75205   0.493  10.370  13.349
57789SOL    HW175206   0.436  10.445  13.332
57789SOL    HW275207   0.575  10.392  13.306
57790SOL     OW75208  14.573   3.198   8.040
57790SOL    HW175209  14.614   3.124   8.083
57790SOL    HW275210  14.496   3.217   8.093
57791SOL     OW75211   4.642  14.600   8.320
57791SOL    HW175212   4.706  14.544   8.276
57791SOL    HW275213   4.677  14.611   8.408
57792SOL     OW75214   5.692   5.818   9.897
57792SOL    HW175215   5.734   5.773   9.823
57792SOL    HW275216   5.730   5.777   9.974
57793SOL     OW75217   5.385  14.019   4.628
57793SOL    HW175218   5.355  14.106   4.600
57793SOL    HW275219   5.310  13.980   4.672
57794SOL     OW75220  12.136   3.266  10.234
57794SOL    HW175221  12.214   3.279  10.178
57794SOL    HW275222  12.172   3.252  10.321
57795SOL     OW75223   9.924  14.392  11.275
57795SOL    HW175224   9.841  14.343  11.269
57795SOL    HW275225   9.899  14.483  11.260
57796SOL     OW75226   9.093   6.843  10.423
57796SOL    HW175227   9.023   6.842  10.357
57796SOL    HW275228   9.161   6.788  10.386
57797SOL     OW75229   7.752   1.018   8.320
57797SOL    HW175230   7.839   1.018   8.361
57797SOL    HW275231   7.703   1.084   8.369
57798SOL     OW75232   3.568  10.878   9.878
57798SOL    HW175233   3.588  10.818   9.806
57798SOL    HW275234   3.650  10.925   9.894
57799SOL     OW75235   9.967   9.857   6.539
57799SOL    HW175236   9.912   9.802   6.594
57799SOL    HW275237  10.047   9.805   6.526
57800SOL     OW75238   2.251   9.095  10.681
57800SOL    HW175239   2.198   9.041  10.621
57800SOL    HW275240   2.283   9.166  10.626
57801SOL     OW75241   3.671   7.431   3.973
57801SOL    HW175242   3.761   7.410   3.950
57801SOL    HW275243   3.673   7.446   4.068
57802SOL     OW75244   7.224   5.656   8.294
57802SOL    HW175245   7.134   5.664   8.261
57802SOL    HW275246   7.265   5.592   8.237
57803SOL     OW75247   1.012   5.847   2.193
57803SOL    HW175248   1.079   5.872   2.257
57803SOL    HW275249   1.041   5.761   2.161
57804SOL     OW75250  10.171   1.663  14.692
57804SOL    HW175251  10.243   1.709  14.650
57804SOL    HW275252  10.145   1.596  14.629
57805SOL     OW75253   3.553   3.019   4.866
57805SOL    HW175254   3.486   3.062   4.813
57805SOL    HW275255   3.553   2.928   4.835
57806SOL     OW75256   6.101  11.855  14.347
57806SOL    HW175257   6.099  11.939  14.301
57806SOL    HW275258   6.188  11.819  14.327
57807SOL     OW75259   9.271   1.964   5.453
57807SOL    HW175260   9.248   1.872   5.470
57807SOL    HW275261   9.266   2.006   5.538
57808SOL     OW75262   8.066   0.391   6.300
57808SOL    HW175263   7.978   0.421   6.277
57808SOL    HW275264   8.090   0.445   6.376
57809SOL     OW75265  12.298  13.758   1.479
57809SOL    HW175266  12.290  13.752   1.384
57809SOL    HW275267  12.379  13.806   1.494
57810SOL     OW75268   2.659   2.546   9.558
57810SOL    HW175269   2.716   2.477   9.524
57810SOL    HW275270   2.712   2.625   9.552
57811SOL     OW75271   6.280   4.052  12.975
57811SOL    HW175272   6.331   4.074  12.898
57811SOL    HW275273   6.342   4.057  13.048
57812SOL     OW75274   5.634   5.741  11.156
57812SOL    HW175275   5.675   5.787  11.082
57812SOL    HW275276   5.628   5.807  11.225
57813SOL     OW75277  10.286   0.849   0.871
57813SOL    HW175278  10.260   0.791   0.943
57813SOL    HW275279  10.346   0.796   0.818
57814SOL     OW75280  12.563   8.825  11.899
57814SOL    HW175281  12.538   8.737  11.872
57814SOL    HW275282  12.480   8.872  11.904
57815SOL     OW75283   4.607   5.378   3.752
57815SOL    HW175284   4.561   5.387   3.836
57815SOL    HW275285   4.694   5.412   3.769
57816SOL     OW75286   6.045  13.069   4.702
57816SOL    HW175287   6.055  13.138   4.637
57816SOL    HW275288   6.008  12.995   4.654
57817SOL     OW75289  10.778  13.461   8.593
57817SOL    HW175290  10.780  13.366   8.608
57817SOL    HW275291  10.827  13.498   8.666
57818SOL     OW75292  11.495   1.882   9.314
57818SOL    HW175293  11.472   1.796   9.278
57818SOL    HW275294  11.564   1.863   9.378
57819SOL     OW75295  12.989   7.093   8.209
57819SOL    HW175296  12.944   7.027   8.156
57819SOL    HW275297  13.026   7.153   8.145
57820SOL     OW75298  11.202   1.218   2.178
57820SOL    HW175299  11.211   1.139   2.232
57820SOL    HW275300  11.154   1.280   2.232
57821SOL     OW75301  14.215  13.537  12.083
57821SOL    HW175302  14.209  13.548  11.989
57821SOL    HW275303  14.191  13.446  12.099
57822SOL     OW75304   7.359   4.292  12.921
57822SOL    HW175305   7.336   4.384  12.934
57822SOL    HW275306   7.283   4.243  12.952
57823SOL     OW75307   2.512   7.923   7.497
57823SOL    HW175308   2.560   8.006   7.493
57823SOL    HW275309   2.574   7.857   7.465
57824SOL     OW75310   9.550   9.717   2.942
57824SOL    HW175311   9.552   9.807   2.908
57824SOL    HW275312   9.522   9.727   3.034
57825SOL     OW75313   2.538   6.488  14.644
57825SOL    HW175314   2.504   6.447  14.724
57825SOL    HW275315   2.626   6.453  14.634
57826SOL     OW75316   2.603   3.900   0.911
57826SOL    HW175317   2.560   3.909   0.826
57826SOL    HW275318   2.694   3.880   0.889
57827SOL     OW75319   3.198  13.828   5.347
57827SOL    HW175320   3.262  13.796   5.284
57827SOL    HW275321   3.168  13.749   5.393
57828SOL     OW75322  11.388  11.374   0.873
57828SOL    HW175323  11.403  11.393   0.780
57828SOL    HW275324  11.438  11.441   0.919
57829SOL     OW75325   5.702   9.425   3.089
57829SOL    HW175326   5.780   9.426   3.033
57829SOL    HW275327   5.729   9.376   3.167
57830SOL     OW75328   7.886   7.702   2.454
57830SOL    HW175329   7.907   7.619   2.498
57830SOL    HW275330   7.970   7.734   2.423
57831SOL     OW75331  10.185  10.938   9.954
57831SOL    HW175332  10.168  10.963  10.045
57831SOL    HW275333  10.266  10.887   9.958
57832SOL     OW75334   7.868   2.555  10.186
57832SOL    HW175335   7.912   2.480  10.145
57832SOL    HW275336   7.777   2.548  10.155
57833SOL     OW75337  10.348  14.814   9.609
57833SOL    HW175338  10.414   0.006   9.628
57833SOL    HW275339  10.308  14.796   9.694
57834SOL     OW75340   9.066  12.851   9.412
57834SOL    HW175341   9.048  12.776   9.356
57834SOL    HW275342   9.157  12.841   9.439
57835SOL     OW75343  13.183   7.789   3.023
57835SOL    HW175344  13.157   7.871   3.064
57835SOL    HW275345  13.103   7.759   2.978
57836SOL     OW75346  13.167  11.479   1.616
57836SOL    HW175347  13.238  11.497   1.554
57836SOL    HW275348  13.129  11.396   1.586
57837SOL     OW75349  11.278   4.564  11.639
57837SOL    HW175350  11.298   4.473  11.620
57837SOL    HW275351  11.215   4.589  11.571
57838SOL     OW75352   5.798  11.531   3.933
57838SOL    HW175353   5.725  11.524   3.995
57838SOL    HW275354   5.782  11.460   3.870
57839SOL     OW75355   7.196   6.911  12.409
57839SOL    HW175356   7.120   6.905  12.467
57839SOL    HW275357   7.204   7.004  12.390
57840SOL     OW75358   8.457  11.123   0.126
57840SOL    HW175359   8.459  11.219   0.131
57840SOL    HW275360   8.374  11.103   0.081
57841SOL     OW75361  10.091   9.006   5.230
57841SOL    HW175362  10.006   8.963   5.216
57841SOL    HW275363  10.085   9.044   5.317
57842SOL     OW75364  11.260   0.932  11.326
57842SOL    HW175365  11.355   0.930  11.335
57842SOL    HW275366  11.243   0.885  11.244
57843SOL     OW75367  11.502   5.880  11.829
57843SOL    HW175368  11.505   5.892  11.734
57843SOL    HW275369  11.501   5.969  11.865
57844SOL     OW75370   6.641  13.017  13.241
57844SOL    HW175371   6.573  12.996  13.306
57844SOL    HW275372   6.651  12.936  13.190
57845SOL     OW75373   6.327   3.699   8.445
57845SOL    HW175374   6.316   3.696   8.540
57845SOL    HW275375   6.422   3.700   8.432
57846SOL     OW75376  13.081   4.006   8.282
57846SOL    HW175377  13.013   4.061   8.243
57846SOL    HW275378  13.092   4.040   8.370
57847SOL     OW75379  12.520   3.737   9.607
57847SOL    HW175380  12.607   3.770   9.631
57847SOL    HW275381  12.536   3.647   9.577
57848SOL     OW75382   3.725  13.541   6.214
57848SOL    HW175383   3.760  13.583   6.293
57848SOL    HW275384   3.680  13.612   6.167
57849SOL     OW75385   1.070   9.199   9.044
57849SOL    HW175386   1.030   9.127   9.093
57849SOL    HW275387   1.061   9.274   9.101
57850SOL     OW75388   3.905   7.200   4.994
57850SOL    HW175389   3.914   7.295   4.998
57850SOL    HW275390   3.811   7.184   5.003
57851SOL     OW75391   5.560   8.830   5.073
57851SOL    HW175392   5.648   8.825   5.035
57851SOL    HW275393   5.521   8.745   5.052
57852SOL     OW75394  10.759   3.503   2.532
57852SOL    HW175395  10.846   3.541   2.543
57852SOL    HW275396  10.762   3.421   2.580
57853SOL     OW75397   8.945   0.991   1.200
57853SOL    HW175398   8.895   1.057   1.248
57853SOL    HW275399   8.895   0.976   1.120
57854SOL     OW75400  10.702   2.552   4.096
57854SOL    HW175401  10.647   2.622   4.062
57854SOL    HW275402  10.653   2.472   4.078
57855SOL     OW75403  10.070   1.656   1.029
57855SOL    HW175404  10.021   1.633   1.109
57855SOL    HW275405  10.139   1.716   1.060
57856SOL     OW75406   6.104  14.157  11.573
57856SOL    HW175407   6.081  14.250  11.577
57856SOL    HW275408   6.044  14.115  11.635
57857SOL     OW75409   1.817   8.284   3.924
57857SOL    HW175410   1.753   8.346   3.891
57857SOL    HW275411   1.769   8.202   3.931
57858SOL     OW75412  12.930   2.344   0.615
57858SOL    HW175413  12.846   2.303   0.635
57858SOL    HW275414  12.991   2.305   0.678
57859SOL     OW75415  11.097   4.517   1.063
57859SOL    HW175416  11.167   4.523   0.999
57859SOL    HW275417  11.083   4.606   1.093
57860SOL     OW75418  11.882   9.730  11.657
57860SOL    HW175419  11.822   9.707  11.727
57860SOL    HW275420  11.877   9.825  11.650
57861SOL     OW75421   3.285  14.189   5.803
57861SOL    HW175422   3.271  14.096   5.816
57861SOL    HW275423   3.205  14.219   5.758
57862SOL     OW75424  10.448   2.158   2.174
57862SOL    HW175425  10.525   2.215   2.178
57862SOL    HW275426  10.405   2.182   2.092
57863SOL     OW75427   8.900   3.797  11.421
57863SOL    HW175428   8.893   3.784  11.515
57863SOL    HW275429   8.821   3.845  11.398
57864SOL     OW75430   1.575  12.052   5.295
57864SOL    HW175431   1.583  12.071   5.388
57864SOL    HW275432   1.546  11.960   5.292
57865SOL     OW75433   6.037   9.383  11.392
57865SOL    HW175434   5.996   9.388  11.306
57865SOL    HW275435   6.104   9.452  11.391
57866SOL     OW75436   5.922  11.481   3.102
57866SOL    HW175437   5.837  11.442   3.122
57866SOL    HW275438   5.924  11.488   3.006
57867SOL     OW75439   8.293  11.822  10.532
57867SOL    HW175440   8.372  11.874  10.549
57867SOL    HW275441   8.241  11.876  10.472
57868SOL     OW75442   8.269  11.074  13.794
57868SOL    HW175443   8.239  11.102  13.880
57868SOL    HW275444   8.317  11.150  13.760
57869SOL     OW75445   5.584   3.509   0.850
57869SOL    HW175446   5.587   3.479   0.759
57869SOL    HW275447   5.559   3.601   0.844
57870SOL     OW75448   0.076   3.591   8.492
57870SOL    HW175449   0.111   3.502   8.492
57870SOL    HW275450   0.153   3.648   8.500
57871SOL     OW75451  10.035   9.562   9.665
57871SOL    HW175452  10.074   9.638   9.708
57871SOL    HW275453  10.104   9.495   9.669
57872SOL     OW75454  13.994   1.016   7.440
57872SOL    HW175455  13.981   0.986   7.350
57872SOL    HW275456  14.001   1.112   7.433
57873SOL     OW75457  11.440   8.570   9.767
57873SOL    HW175458  11.384   8.603   9.837
57873SOL    HW275459  11.378   8.539   9.700
57874SOL     OW75460  14.246  11.961   4.919
57874SOL    HW175461  14.240  11.888   4.857
57874SOL    HW275462  14.260  12.038   4.865
57875SOL     OW75463   0.637   8.346   4.013
57875SOL    HW175464   0.608   8.366   4.102
57875SOL    HW275465   0.562   8.369   3.958
57876SOL     OW75466   1.100   8.605  11.410
57876SOL    HW175467   1.045   8.609  11.332
57876SOL    HW275468   1.087   8.690  11.453
57877SOL     OW75469   5.517   5.133   0.590
57877SOL    HW175470   5.508   5.209   0.532
57877SOL    HW275471   5.612   5.125   0.603
57878SOL     OW75472  10.238   2.221   3.495
57878SOL    HW175473  10.282   2.201   3.412
57878SOL    HW275474  10.282   2.165   3.560
57879SOL     OW75475   4.808  10.833   6.192
57879SOL    HW175476   4.836  10.909   6.242
57879SOL    HW275477   4.874  10.822   6.124
57880SOL     OW75478   0.809  14.637   0.345
57880SOL    HW175479   0.824  14.632   0.440
57880SOL    HW275480   0.722  14.599   0.333
57881SOL     OW75481   4.585   0.042   8.216
57881SOL    HW175482   4.518   0.008   8.157
57881SOL    HW275483   4.661  14.859   8.203
57882SOL     OW75484   8.837   1.533   1.552
57882SOL    HW175485   8.774   1.553   1.621
57882SOL    HW275486   8.922   1.558   1.588
57883SOL     OW75487  13.223   4.399  12.983
57883SOL    HW175488  13.242   4.364  13.070
57883SOL    HW275489  13.132   4.376  12.967
57884SOL     OW75490  13.092   8.600   2.401
57884SOL    HW175491  13.148   8.567   2.331
57884SOL    HW275492  13.038   8.525   2.426
57885SOL     OW75493   6.893   6.495  11.971
57885SOL    HW175494   6.870   6.430  11.905
57885SOL    HW275495   6.820   6.493  12.033
57886SOL     OW75496   6.921  12.250   3.525
57886SOL    HW175497   6.974  12.233   3.447
57886SOL    HW275498   6.845  12.192   3.516
57887SOL     OW75499  10.402   4.449   3.816
57887SOL    HW175500  10.495   4.438   3.838
57887SOL    HW275501  10.358   4.451   3.901
57888SOL     OW75502   2.389   5.175   2.792
57888SOL    HW175503   2.468   5.226   2.775
57888SOL    HW275504   2.320   5.241   2.798
57889SOL     OW75505   2.134   8.908   7.195
57889SOL    HW175506   2.102   8.834   7.142
57889SOL    HW275507   2.191   8.956   7.136
57890SOL     OW75508   2.317   4.201  12.761
57890SOL    HW175509   2.240   4.196  12.705
57890SOL    HW275510   2.373   4.129  12.731
57891SOL     OW75511  13.262  11.427   5.580
57891SOL    HW175512  13.252  11.478   5.660
57891SOL    HW275513  13.253  11.336   5.608
57892SOL     OW75514   7.590   5.572   3.959
57892SOL    HW175515   7.659   5.637   3.972
57892SOL    HW275516   7.589   5.522   4.040
57893SOL     OW75517   0.313   1.328   8.056
57893SOL    HW175518   0.357   1.413   8.061
57893SOL    HW275519   0.336   1.294   7.969
57894SOL     OW75520   4.080   9.316   9.584
57894SOL    HW175521   4.012   9.266   9.628
57894SOL    HW275522   4.056   9.408   9.597
57895SOL     OW75523  10.189   1.416   7.131
57895SOL    HW175524  10.212   1.493   7.184
57895SOL    HW275525  10.152   1.453   7.051
57896SOL     OW75526   9.198   9.992   9.734
57896SOL    HW175527   9.262  10.019   9.801
57896SOL    HW275528   9.248   9.938   9.673
57897SOL     OW75529   8.975  11.830   1.277
57897SOL    HW175530   8.938  11.869   1.198
57897SOL    HW275531   9.066  11.860   1.278
57898SOL     OW75532   1.194   1.514  13.332
57898SOL    HW175533   1.289   1.526  13.323
57898SOL    HW275534   1.162   1.507  13.242
57899SOL     OW75535   0.537  13.290   5.745
57899SOL    HW175536   0.545  13.305   5.651
57899SOL    HW275537   0.624  13.260   5.772
57900SOL     OW75538  14.107   1.350   2.008
57900SOL    HW175539  14.176   1.395   2.058
57900SOL    HW275540  14.042   1.325   2.074
57901SOL     OW75541   2.519   0.574  14.436
57901SOL    HW175542   2.435   0.582  14.481
57901SOL    HW275543   2.498   0.578  14.343
57902SOL     OW75544   4.784   5.659   2.408
57902SOL    HW175545   4.829   5.580   2.377
57902SOL    HW275546   4.720   5.626   2.471
57903SOL     OW75547  11.070   8.355   4.146
57903SOL    HW175548  11.055   8.404   4.227
57903SOL    HW275549  11.158   8.318   4.156
57904SOL     OW75550  12.244  14.220  12.017
57904SOL    HW175551  12.156  14.211  12.054
57904SOL    HW275552  12.256  14.141  11.964
57905SOL     OW75553   0.347   6.284  13.638
57905SOL    HW175554   0.329   6.376  13.655
57905SOL    HW275555   0.305   6.267  13.553
57906SOL     OW75556   7.330   4.692  14.529
57906SOL    HW175557   7.260   4.640  14.491
57906SOL    HW275558   7.368   4.637  14.597
57907SOL     OW75559   2.573   5.335   6.837
57907SOL    HW175560   2.659   5.334   6.795
57907SOL    HW275561   2.562   5.247   6.872
57908SOL     OW75562  11.755   7.404   9.987
57908SOL    HW175563  11.664   7.418   9.962
57908SOL    HW275564  11.798   7.378   9.906
57909SOL     OW75565  12.219   1.659   1.841
57909SOL    HW175566  12.188   1.594   1.905
57909SOL    HW275567  12.139   1.693   1.801
57910SOL     OW75568   5.462   0.861  12.265
57910SOL    HW175569   5.466   0.916  12.186
57910SOL    HW275570   5.496   0.916  12.335
57911SOL     OW75571   4.642   7.519  10.869
57911SOL    HW175572   4.659   7.613  10.859
57911SOL    HW275573   4.547   7.511  10.866
57912SOL     OW75574  12.307  13.443   5.443
57912SOL    HW175575  12.293  13.350   5.428
57912SOL    HW275576  12.308  13.482   5.356
57913SOL     OW75577   3.805   7.672   8.634
57913SOL    HW175578   3.725   7.692   8.586
57913SOL    HW275579   3.792   7.709   8.721
57914SOL     OW75580   1.835   1.984   5.177
57914SOL    HW175581   1.769   1.920   5.148
57914SOL    HW275582   1.786   2.047   5.229
57915SOL     OW75583   7.277   2.806   0.132
57915SOL    HW175584   7.298   2.840   0.219
57915SOL    HW275585   7.181   2.802   0.130
57916SOL     OW75586   4.375   6.548   5.299
57916SOL    HW175587   4.308   6.572   5.235
57916SOL    HW275588   4.444   6.505   5.248
57917SOL     OW75589  10.087   4.618   3.255
57917SOL    HW175590  10.047   4.696   3.216
57917SOL    HW275591  10.163   4.651   3.303
57918SOL     OW75592   0.265   3.009   7.921
57918SOL    HW175593   0.335   2.991   7.859
57918SOL    HW275594   0.288   3.093   7.961
57919SOL     OW75595   1.276  11.173   4.109
57919SOL    HW175596   1.232  11.258   4.117
57919SOL    HW275597   1.214  11.110   4.146
57920SOL     OW75598   6.251  12.610  13.461
57920SOL    HW175599   6.288  12.583  13.546
57920SOL    HW275600   6.325  12.649  13.415
57921SOL     OW75601   7.492   5.680  10.928
57921SOL    HW175602   7.427   5.750  10.932
57921SOL    HW275603   7.560   5.713  10.870
57922SOL     OW75604  13.463   0.061  12.967
57922SOL    HW175605  13.473   0.143  12.918
57922SOL    HW275606  13.466  14.866  12.901
57923SOL     OW75607   4.927   4.391  12.454
57923SOL    HW175608   4.966   4.468  12.412
57923SOL    HW275609   4.991   4.321  12.440
57924SOL     OW75610  13.209   5.306   2.800
57924SOL    HW175611  13.124   5.267   2.779
57924SOL    HW275612  13.190   5.399   2.814
57925SOL     OW75613   0.104  12.774  11.023
57925SOL    HW175614   0.051  12.698  11.001
57925SOL    HW275615   0.183  12.766  10.969
57926SOL     OW75616   1.436  14.729  10.695
57926SOL    HW175617   1.481  14.814  10.685
57926SOL    HW275618   1.491  14.667  10.647
57927SOL     OW75619   0.408   0.122  11.752
57927SOL    HW175620   0.383   0.127  11.844
57927SOL    HW275621   0.493   0.078  11.752
57928SOL     OW75622  13.848   8.807   7.674
57928SOL    HW175623  13.780   8.785   7.737
57928SOL    HW275624  13.929   8.775   7.714
57929SOL     OW75625   6.709  12.594  12.559
57929SOL    HW175626   6.672  12.642  12.485
57929SOL    HW275627   6.710  12.503  12.530
57930SOL     OW75628   3.314   3.809   6.277
57930SOL    HW175629   3.362   3.792   6.196
57930SOL    HW275630   3.222   3.795   6.254
57931SOL     OW75631   7.493   2.661   7.463
57931SOL    HW175632   7.413   2.706   7.436
57931SOL    HW275633   7.478   2.637   7.555
57932SOL     OW75634  11.693   8.283   3.756
57932SOL    HW175635  11.662   8.369   3.783
57932SOL    HW275636  11.709   8.237   3.839
57933SOL     OW75637  14.352   6.415   8.712
57933SOL    HW175638  14.334   6.500   8.752
57933SOL    HW275639  14.382   6.361   8.785
57934SOL     OW75640   4.167  12.820   8.871
57934SOL    HW175641   4.126  12.761   8.809
57934SOL    HW275642   4.120  12.805   8.953
57935SOL     OW75643   9.405   7.238   4.566
57935SOL    HW175644   9.420   7.147   4.592
57935SOL    HW275645   9.313   7.240   4.537
57936SOL     OW75646   3.607  11.309   6.143
57936SOL    HW175647   3.659  11.381   6.180
57936SOL    HW275648   3.582  11.257   6.219
57937SOL     OW75649  11.599  12.929   4.850
57937SOL    HW175650  11.643  12.855   4.891
57937SOL    HW275651  11.553  12.891   4.775
57938SOL     OW75652   7.702   8.248  10.446
57938SOL    HW175653   7.794   8.263  10.421
57938SOL    HW275654   7.652   8.307  10.389
57939SOL     OW75655   2.065   8.301  11.480
57939SOL    HW175656   2.072   8.343  11.566
57939SOL    HW275657   2.145   8.250  11.471
57940SOL     OW75658  14.468   3.957   4.208
57940SOL    HW175659  14.399   3.945   4.273
57940SOL    HW275660  14.430   3.922   4.127
57941SOL     OW75661   0.913   4.382  13.697
57941SOL    HW175662   0.861   4.303  13.711
57941SOL    HW275663   0.885   4.415  13.612
57942SOL     OW75664  11.930   7.875  12.949
57942SOL    HW175665  11.915   7.849  12.859
57942SOL    HW275666  12.024   7.868  12.962
57943SOL     OW75667   2.451   5.024  12.237
57943SOL    HW175668   2.538   5.002  12.268
57943SOL    HW275669   2.416   5.085  12.302
57944SOL     OW75670  14.249  14.268   4.493
57944SOL    HW175671  14.344  14.259   4.484
57944SOL    HW275672  14.218  14.292   4.405
57945SOL     OW75673  11.144  11.706   8.283
57945SOL    HW175674  11.059  11.693   8.326
57945SOL    HW275675  11.185  11.620   8.285
57946SOL     OW75676   7.758  11.224   7.173
57946SOL    HW175677   7.710  11.179   7.104
57946SOL    HW275678   7.692  11.245   7.239
57947SOL     OW75679  13.554  13.911   1.583
57947SOL    HW175680  13.474  13.926   1.633
57947SOL    HW275681  13.523  13.875   1.500
57948SOL     OW75682   4.865  10.427  14.328
57948SOL    HW175683   4.801  10.475  14.381
57948SOL    HW275684   4.813  10.389  14.257
57949SOL     OW75685  11.432   7.155   8.918
57949SOL    HW175686  11.362   7.215   8.892
57949SOL    HW275687  11.513   7.199   8.894
57950SOL     OW75688  11.277  14.408   9.016
57950SOL    HW175689  11.247  14.499   9.021
57950SOL    HW275690  11.238  14.374   8.935
57951SOL     OW75691  13.983  10.625   4.511
57951SOL    HW175692  13.896  10.589   4.496
57951SOL    HW275693  14.043  10.563   4.470
57952SOL     OW75694   8.281   0.158  11.755
57952SOL    HW175695   8.334   0.086  11.721
57952SOL    HW275696   8.304   0.164  11.847
57953SOL     OW75697   7.518  13.012   5.959
57953SOL    HW175698   7.495  12.944   6.022
57953SOL    HW275699   7.535  12.964   5.878
57954SOL     OW75700   1.673   8.855  10.489
57954SOL    HW175701   1.650   8.795  10.559
57954SOL    HW275702   1.737   8.915  10.529
57955SOL     OW75703   5.641   0.596   9.505
57955SOL    HW175704   5.733   0.609   9.529
57955SOL    HW275705   5.607   0.685   9.493
57956SOL     OW75706   4.121   9.916   3.259
57956SOL    HW175707   4.129   9.929   3.165
57956SOL    HW275708   4.064   9.987   3.289
57957SOL     OW75709   6.881  11.491   7.209
57957SOL    HW175710   6.957  11.507   7.266
57957SOL    HW275711   6.808  11.534   7.254
57958SOL     OW75712   1.555   0.342   4.377
57958SOL    HW175713   1.648   0.330   4.356
57958SOL    HW275714   1.529   0.260   4.418
57959SOL     OW75715   4.781   3.869   0.941
57959SOL    HW175716   4.795   3.871   1.036
57959SOL    HW275717   4.855   3.917   0.904
57960SOL     OW75718   1.022  14.047  13.964
57960SOL    HW175719   1.074  13.986  13.913
57960SOL    HW275720   1.082  14.120  13.983
57961SOL     OW75721   2.965  10.086   5.277
57961SOL    HW175722   2.992  10.175   5.257
57961SOL    HW275723   2.956  10.085   5.373
57962SOL     OW75724   7.215   1.311  13.489
57962SOL    HW175725   7.156   1.317  13.564
57962SOL    HW275726   7.157   1.292  13.415
57963SOL     OW75727   2.628   3.347   7.433
57963SOL    HW175728   2.714   3.303   7.431
57963SOL    HW275729   2.593   3.336   7.345
57964SOL     OW75730   2.491  11.229   1.754
57964SOL    HW175731   2.516  11.223   1.846
57964SOL    HW275732   2.466  11.321   1.742
57965SOL     OW75733   9.062  13.321  11.780
57965SOL    HW175734   9.154  13.295  11.778
57965SOL    HW275735   9.019  13.262  11.718
57966SOL     OW75736   2.783   9.532   1.372
57966SOL    HW175737   2.761   9.622   1.397
57966SOL    HW275738   2.805   9.489   1.454
57967SOL     OW75739  11.377   8.813   1.008
57967SOL    HW175740  11.432   8.851   1.076
57967SOL    HW275741  11.422   8.731   0.985
57968SOL     OW75742  13.064   0.464   4.915
57968SOL    HW175743  13.048   0.440   5.006
57968SOL    HW275744  13.157   0.445   4.900
57969SOL     OW75745   3.288  13.467  10.710
57969SOL    HW175746   3.291  13.422  10.625
57969SOL    HW275747   3.200  13.450  10.743
57970SOL     OW75748   9.786   4.241   9.472
57970SOL    HW175749   9.812   4.286   9.552
57970SOL    HW275750   9.692   4.261   9.464
57971SOL     OW75751  11.091   4.164   2.247
57971SOL    HW175752  11.000   4.172   2.275
57971SOL    HW275753  11.107   4.070   2.243
57972SOL     OW75754   7.896   1.261   4.852
57972SOL    HW175755   7.986   1.229   4.840
57972SOL    HW275756   7.903   1.323   4.924
57973SOL     OW75757   7.892   4.422   0.234
57973SOL    HW175758   7.817   4.363   0.248
57973SOL    HW275759   7.928   4.435   0.322
57974SOL     OW75760  10.395  11.544   1.094
57974SOL    HW175761  10.303  11.563   1.114
57974SOL    HW275762  10.445  11.610   1.142
57975SOL     OW75763   3.447   2.994   1.708
57975SOL    HW175764   3.389   3.015   1.635
57975SOL    HW275765   3.526   3.045   1.692
57976SOL     OW75766  12.461   6.450  13.067
57976SOL    HW175767  12.365   6.454  13.065
57976SOL    HW275768  12.486   6.436  12.976
57977SOL     OW75769  12.084  12.844   8.399
57977SOL    HW175770  12.081  12.798   8.483
57977SOL    HW275771  12.168  12.819   8.361
57978SOL     OW75772   1.881   6.912   9.260
57978SOL    HW175773   1.808   6.908   9.199
57978SOL    HW275774   1.956   6.939   9.207
57979SOL     OW75775  13.438   1.910   9.789
57979SOL    HW175776  13.343   1.911   9.789
57979SOL    HW275777  13.463   1.910   9.881
57980SOL     OW75778  10.582   8.818   5.326
57980SOL    HW175779  10.591   8.736   5.375
57980SOL    HW275780  10.589   8.886   5.392
57981SOL     OW75781   1.572  14.206   7.503
57981SOL    HW175782   1.647  14.194   7.444
57981SOL    HW275783   1.587  14.291   7.544
57982SOL     OW75784   7.520  14.117   7.984
57982SOL    HW175785   7.524  14.208   8.014
57982SOL    HW275786   7.565  14.118   7.900
57983SOL     OW75787   6.050   3.666  12.952
57983SOL    HW175788   6.086   3.578  12.936
57983SOL    HW275789   5.959   3.660  12.923
57984SOL     OW75790   3.852  10.029   5.347
57984SOL    HW175791   3.885  10.048   5.259
57984SOL    HW275792   3.929  10.040   5.403
57985SOL     OW75793  10.898  12.107   9.306
57985SOL    HW175794  10.956  12.099   9.382
57985SOL    HW275795  10.954  12.140   9.236
57986SOL     OW75796   1.890   6.376   6.274
57986SOL    HW175797   1.930   6.344   6.193
57986SOL    HW275798   1.850   6.460   6.249
57987SOL     OW75799   1.533   5.486   8.772
57987SOL    HW175800   1.540   5.565   8.824
57987SOL    HW275801   1.471   5.509   8.702
57988SOL     OW75802   4.125   9.930   1.830
57988SOL    HW175803   4.066   9.958   1.759
57988SOL    HW275804   4.175   9.858   1.792
57989SOL     OW75805   3.132   6.213  14.364
57989SOL    HW175806   3.037   6.203  14.367
57989SOL    HW275807   3.146   6.292  14.312
57990SOL     OW75808  11.652  12.069   0.099
57990SOL    HW175809  11.686  12.157   0.120
57990SOL    HW275810  11.726  12.024   0.060
57991SOL     OW75811   8.148   5.447  11.877
57991SOL    HW175812   8.148   5.519  11.940
57991SOL    HW275813   8.145   5.368  11.930
57992SOL     OW75814  11.295   2.920   6.675
57992SOL    HW175815  11.207   2.938   6.708
57992SOL    HW275816  11.282   2.865   6.598
57993SOL     OW75817  13.855   6.234  14.165
57993SOL    HW175818  13.817   6.311  14.207
57993SOL    HW275819  13.938   6.220  14.210
57994SOL     OW75820   6.950  12.353  11.410
57994SOL    HW175821   7.031  12.311  11.383
57994SOL    HW275822   6.885  12.322  11.346
57995SOL     OW75823   6.144   4.795   1.549
57995SOL    HW175824   6.182   4.868   1.501
57995SOL    HW275825   6.151   4.721   1.489
57996SOL     OW75826   9.330   3.483   6.859
57996SOL    HW175827   9.395   3.550   6.879
57996SOL    HW275828   9.317   3.437   6.942
57997SOL     OW75829  13.588   9.746   6.730
57997SOL    HW175830  13.512   9.715   6.779
57997SOL    HW275831  13.573   9.840   6.721
57998SOL     OW75832   1.926  12.919  14.622
57998SOL    HW175833   1.834  12.932  14.603
57998SOL    HW275834   1.972  12.966  14.552
57999SOL     OW75835   2.752   4.370  10.703
57999SOL    HW175836   2.707   4.441  10.748
57999SOL    HW275837   2.772   4.405  10.616
58000SOL     OW75838   7.725   3.011   7.866
58000SOL    HW175839   7.672   3.030   7.944
58000SOL    HW275840   7.698   3.077   7.802
58001SOL     OW75841  13.416  11.190   2.848
58001SOL    HW175842  13.327  11.216   2.870
58001SOL    HW275843  13.441  11.129   2.917
58002SOL     OW75844   9.501   9.097  12.662
58002SOL    HW175845   9.499   9.068  12.571
58002SOL    HW275846   9.487   9.192  12.658
58003SOL     OW75847   8.733   0.148  14.534
58003SOL    HW175848   8.722   0.152  14.629
58003SOL    HW275849   8.793   0.075  14.520
58004SOL     OW75850  12.508   0.634   1.952
58004SOL    HW175851  12.482   0.701   2.016
58004SOL    HW275852  12.598   0.655   1.930
58005SOL     OW75853   8.670  14.557   9.532
58005SOL    HW175854   8.623  14.546   9.615
58005SOL    HW275855   8.608  14.605   9.476
58006SOL     OW75856   4.180   8.196  12.174
58006SOL    HW175857   4.195   8.160  12.087
58006SOL    HW275858   4.259   8.175  12.223
58007SOL     OW75859   5.487   2.657  10.652
58007SOL    HW175860   5.549   2.660  10.578
58007SOL    HW275861   5.523   2.591  10.711
58008SOL     OW75862  12.491   6.070   4.956
58008SOL    HW175863  12.408   6.088   5.000
58008SOL    HW275864  12.543   6.149   4.969
58009SOL     OW75865  14.201  14.694  10.287
58009SOL    HW175866  14.159  14.619  10.330
58009SOL    HW275867  14.227  14.661  10.201
58010SOL     OW75868   0.246   9.086  11.717
58010SOL    HW175869   0.242   9.169  11.670
58010SOL    HW275870   0.179   9.094  11.785
58011SOL     OW75871   4.565  13.218  10.280
58011SOL    HW175872   4.512  13.213  10.201
58011SOL    HW275873   4.644  13.264  10.253
58012SOL     OW75874   6.590   9.417  11.171
58012SOL    HW175875   6.622   9.452  11.254
58012SOL    HW275876   6.628   9.329  11.167
58013SOL     OW75877   8.504  13.541   3.201
58013SOL    HW175878   8.467  13.584   3.278
58013SOL    HW275879   8.440  13.555   3.132
58014SOL     OW75880   5.321   5.158   7.101
58014SOL    HW175881   5.277   5.196   7.025
58014SOL    HW275882   5.324   5.065   7.083
58015SOL     OW75883   0.431  13.269   0.582
58015SOL    HW175884   0.338  13.245   0.578
58015SOL    HW275885   0.477  13.190   0.555
58016SOL     OW75886  13.190   2.599   1.692
58016SOL    HW175887  13.195   2.505   1.676
58016SOL    HW275888  13.157   2.636   1.610
58017SOL     OW75889  10.708  11.038   3.542
58017SOL    HW175890  10.622  11.076   3.524
58017SOL    HW275891  10.745  11.094   3.610
58018SOL     OW75892   4.337   6.827   1.479
58018SOL    HW175893   4.422   6.785   1.463
58018SOL    HW275894   4.275   6.776   1.426
58019SOL     OW75895   0.235  11.615   1.297
58019SOL    HW175896   0.321  11.656   1.293
58019SOL    HW275897   0.246  11.541   1.356
58020SOL     OW75898   1.594   4.702   8.335
58020SOL    HW175899   1.682   4.691   8.371
58020SOL    HW275900   1.552   4.617   8.346
58021SOL     OW75901   1.430  10.783   1.101
58021SOL    HW175902   1.402  10.723   1.171
58021SOL    HW275903   1.371  10.764   1.028
58022SOL     OW75904   4.304   1.444   9.571
58022SOL    HW175905   4.247   1.431   9.495
58022SOL    HW275906   4.285   1.369   9.628
58023SOL     OW75907   3.133   9.415   3.729
58023SOL    HW175908   3.069   9.433   3.798
58023SOL    HW275909   3.113   9.480   3.661
58024SOL     OW75910   6.662   7.302   6.679
58024SOL    HW175911   6.706   7.280   6.597
58024SOL    HW275912   6.733   7.308   6.743
58025SOL     OW75913  13.117   4.727   3.526
58025SOL    HW175914  13.160   4.776   3.595
58025SOL    HW275915  13.049   4.676   3.571
58026SOL     OW75916   4.987  10.680  14.234
58026SOL    HW175917   4.950  10.594  14.252
58026SOL    HW275918   4.924  10.722  14.176
58027SOL     OW75919   3.588   5.313   7.280
58027SOL    HW175920   3.678   5.316   7.313
58027SOL    HW275921   3.533   5.316   7.358
58028SOL     OW75922  12.297   1.429  10.999
58028SOL    HW175923  12.333   1.341  11.012
58028SOL    HW275924  12.205   1.415  10.976
58029SOL     OW75925   2.330  14.358   5.434
58029SOL    HW175926   2.238  14.361   5.407
58029SOL    HW275927   2.379  14.366   5.352
58030SOL     OW75928   2.966  12.025   8.847
58030SOL    HW175929   2.964  11.953   8.785
58030SOL    HW275930   2.893  12.082   8.821
58031SOL     OW75931   7.447   7.380   5.339
58031SOL    HW175932   7.415   7.468   5.359
58031SOL    HW275933   7.430   7.369   5.245
58032SOL     OW75934  14.111   6.800  11.950
58032SOL    HW175935  14.165   6.786  12.028
58032SOL    HW275936  14.032   6.843  11.984
58033SOL     OW75937   1.245   1.039   5.908
58033SOL    HW175938   1.195   0.962   5.936
58033SOL    HW275939   1.180   1.096   5.868
58034SOL     OW75940   3.418   9.522   3.749
58034SOL    HW175941   3.326   9.513   3.773
58034SOL    HW275942   3.416   9.577   3.670
58035SOL     OW75943   2.929   6.914   9.687
58035SOL    HW175944   2.953   7.000   9.722
58035SOL    HW275945   2.873   6.876   9.755
58036SOL     OW75946   4.798  14.637   6.347
58036SOL    HW175947   4.748  14.650   6.428
58036SOL    HW275948   4.753  14.692   6.282
58037SOL     OW75949   4.557   2.371   7.533
58037SOL    HW175950   4.490   2.405   7.593
58037SOL    HW275951   4.609   2.312   7.588
58038SOL     OW75952   9.519  10.944   9.073
58038SOL    HW175953   9.545  11.030   9.106
58038SOL    HW275954   9.496  10.960   8.981
58039SOL     OW75955   4.137   8.283  10.920
58039SOL    HW175956   4.231   8.266  10.926
58039SOL    HW275957   4.105   8.274  11.010
58040SOL     OW75958   4.247   2.808   7.785
58040SOL    HW175959   4.207   2.819   7.699
58040SOL    HW275960   4.173   2.795   7.845
58041SOL     OW75961   9.312   5.888  12.976
58041SOL    HW175962   9.400   5.915  12.951
58041SOL    HW275963   9.308   5.795  12.954
58042SOL     OW75964  14.872   6.485  11.022
58042SOL    HW175965   0.087   6.479  10.988
58042SOL    HW275966  14.849   6.395  11.043
58043SOL     OW75967   6.356   5.368   9.296
58043SOL    HW175968   6.328   5.331   9.380
58043SOL    HW275969   6.442   5.331   9.281
58044SOL     OW75970  11.423   3.231   0.173
58044SOL    HW175971  11.344   3.236   0.227
58044SOL    HW275972  11.416   3.308   0.115
58045SOL     OW75973   4.893   7.566   9.077
58045SOL    HW175974   4.805   7.599   9.091
58045SOL    HW275975   4.903   7.565   8.981
58046SOL     OW75976   9.459   4.361  11.662
58046SOL    HW175977   9.492   4.371  11.572
58046SOL    HW275978   9.508   4.287  11.697
58047SOL     OW75979   3.731  10.651  11.272
58047SOL    HW175980   3.646  10.630  11.236
58047SOL    HW275981   3.713  10.682  11.361
58048SOL     OW75982   2.980   4.092   6.304
58048SOL    HW175983   2.947   4.160   6.363
58048SOL    HW275984   3.009   4.022   6.362
58049SOL     OW75985  13.880   6.218   0.727
58049SOL    HW175986  13.896   6.309   0.701
58049SOL    HW275987  13.931   6.206   0.807
58050SOL     OW75988  14.139   3.117  13.092
58050SOL    HW175989  14.184   3.201  13.087
58050SOL    HW275990  14.058   3.131  13.043
58051SOL     OW75991  13.462   3.170  11.294
58051SOL    HW175992  13.455   3.102  11.227
58051SOL    HW275993  13.484   3.123  11.374
58052SOL     OW75994  11.546   8.979   4.541
58052SOL    HW175995  11.579   9.023   4.619
58052SOL    HW275996  11.456   9.011   4.531
58053SOL     OW75997   6.552  12.321  14.317
58053SOL    HW175998   6.573  12.348  14.228
58053SOL    HW275999   6.633  12.283  14.350
58054SOL     OW76000   6.160   5.015   6.403
58054SOL    HW176001   6.187   5.070   6.477
58054SOL    HW276002   6.238   4.964   6.382
58055SOL     OW76003  13.112   4.342   8.059
58055SOL    HW176004  13.028   4.384   8.076
58055SOL    HW276005  13.094   4.248   8.063
58056SOL     OW76006   6.523   5.843   8.033
58056SOL    HW176007   6.549   5.751   8.030
58056SOL    HW276008   6.428   5.841   8.047
58057SOL     OW76009   7.610  12.933   6.847
58057SOL    HW176010   7.521  12.937   6.881
58057SOL    HW276011   7.611  12.994   6.773
58058SOL     OW76012   6.954  13.979   0.951
58058SOL    HW176013   6.870  14.001   0.911
58058SOL    HW276014   6.977  14.056   1.003
58059SOL     OW76015   2.263   0.175   8.891
58059SOL    HW176016   2.188   0.124   8.860
58059SOL    HW276017   2.226   0.238   8.951
58060SOL     OW76018   4.318   3.531   8.872
58060SOL    HW176019   4.395   3.477   8.890
58060SOL    HW276020   4.248   3.468   8.854
58061SOL     OW76021  12.717   7.122  10.890
58061SOL    HW176022  12.679   7.035  10.878
58061SOL    HW276023  12.645   7.182  10.868
58062SOL     OW76024   6.534   0.957   9.771
58062SOL    HW176025   6.462   1.009   9.807
58062SOL    HW276026   6.497   0.870   9.758
58063SOL     OW76027   0.327  10.133  13.001
58063SOL    HW176028   0.407  10.112  13.049
58063SOL    HW276029   0.333  10.226  12.983
58064SOL     OW76030   1.299  11.708   4.725
58064SOL    HW176031   1.240  11.635   4.740
58064SOL    HW276032   1.336  11.693   4.639
58065SOL     OW76033   2.894  14.332  13.115
58065SOL    HW176034   2.892  14.408  13.173
58065SOL    HW276035   2.816  14.341  13.061
58066SOL     OW76036  13.524  13.531   6.869
58066SOL    HW176037  13.489  13.620   6.874
58066SOL    HW276038  13.613  13.538   6.904
58067SOL     OW76039  12.483   6.678  14.115
58067SOL    HW176040  12.467   6.693  14.022
58067SOL    HW276041  12.397   6.693  14.156
58068SOL     OW76042  11.122  12.317   4.169
58068SOL    HW176043  11.207  12.275   4.153
58068SOL    HW276044  11.107  12.370   4.090
58069SOL     OW76045  11.348  11.667   8.843
58069SOL    HW176046  11.427  11.648   8.894
58069SOL    HW276047  11.372  11.743   8.790
58070SOL     OW76048   5.417  13.478   1.032
58070SOL    HW176049   5.483  13.450   1.096
58070SOL    HW276050   5.405  13.402   0.976
58071SOL     OW76051   2.967  11.262   5.833
58071SOL    HW176052   2.871  11.261   5.839
58071SOL    HW276053   2.986  11.313   5.755
58072SOL     OW76054   1.998  10.885  11.213
58072SOL    HW176055   2.029  10.799  11.243
58072SOL    HW276056   2.020  10.887  11.120
58073SOL     OW76057   0.015   2.350   3.044
58073SOL    HW176058   0.048   2.355   2.954
58073SOL    HW276059  14.795   2.332   3.034
58074SOL     OW76060   0.245  13.137  11.300
58074SOL    HW176061   0.189  13.212  11.280
58074SOL    HW276062   0.306  13.132  11.226
58075SOL     OW76063   1.381   4.360   7.809
58075SOL    HW176064   1.398   4.273   7.844
58075SOL    HW276065   1.384   4.418   7.885
58076SOL     OW76066   0.725   1.751   1.794
58076SOL    HW176067   0.815   1.744   1.763
58076SOL    HW276068   0.726   1.711   1.881
58077SOL     OW76069   1.749  10.399   1.215
58077SOL    HW176070   1.692  10.393   1.291
58077SOL    HW276071   1.831  10.435   1.248
58078SOL     OW76072  13.046   0.224   8.076
58078SOL    HW176073  13.122   0.181   8.036
58078SOL    HW276074  13.006   0.274   8.004
58079SOL     OW76075   2.650  14.325  10.254
58079SOL    HW176076   2.698  14.242  10.246
58079SOL    HW276077   2.582  14.319  10.187
58080SOL     OW76078  12.567  14.250   7.549
58080SOL    HW176079  12.556  14.316   7.617
58080SOL    HW276080  12.486  14.199   7.552
58081SOL     OW76081   5.418   7.885   8.517
58081SOL    HW176082   5.438   7.919   8.604
58081SOL    HW276083   5.490   7.826   8.497
58082SOL     OW76084   7.531   0.651   5.497
58082SOL    HW176085   7.602   0.653   5.433
58082SOL    HW276086   7.504   0.559   5.501
58083SOL     OW76087   0.356   0.078   1.609
58083SOL    HW176088   0.308   0.129   1.543
58083SOL    HW276089   0.369  14.866   1.568
58084SOL     OW76090   5.015   4.786   9.823
58084SOL    HW176091   4.981   4.776   9.913
58084SOL    HW276092   4.940   4.766   9.767
58085SOL     OW76093   4.368   8.414  13.985
58085SOL    HW176094   4.375   8.470  13.907
58085SOL    HW276095   4.274   8.410  14.003
58086SOL     OW76096  12.426  10.565   7.980
58086SOL    HW176097  12.443  10.639   7.922
58086SOL    HW276098  12.400  10.494   7.922
58087SOL     OW76099  11.062   6.797   7.379
58087SOL    HW176100  11.111   6.875   7.406
58087SOL    HW276101  10.997   6.785   7.448
58088SOL     OW76102   3.376   6.334   5.929
58088SOL    HW176103   3.295   6.381   5.909
58088SOL    HW276104   3.348   6.257   5.978
58089SOL     OW76105   2.555  14.580   0.292
58089SOL    HW176106   2.569  14.585   0.197
58089SOL    HW276107   2.634  14.619   0.330
58090SOL     OW76108   7.784   5.843  10.171
58090SOL    HW176109   7.874   5.866  10.195
58090SOL    HW276110   7.793   5.773  10.107
58091SOL     OW76111  14.419   6.668   6.102
58091SOL    HW176112  14.398   6.681   6.010
58091SOL    HW276113  14.337   6.685   6.148
58092SOL     OW76114   1.576   0.127  13.458
58092SOL    HW176115   1.585   0.073  13.379
58092SOL    HW276116   1.556   0.065  13.528
58093SOL     OW76117   6.634   0.954   8.901
58093SOL    HW176118   6.688   0.881   8.930
58093SOL    HW276119   6.566   0.914   8.848
58094SOL     OW76120   8.832  11.730  10.366
58094SOL    HW176121   8.893  11.700  10.299
58094SOL    HW276122   8.886  11.779  10.428
58095SOL     OW76123   6.511   5.481   7.078
58095SOL    HW176124   6.598   5.517   7.095
58095SOL    HW276125   6.480   5.526   7.000
58096SOL     OW76126   5.299   7.408   6.438
58096SOL    HW176127   5.292   7.398   6.533
58096SOL    HW276128   5.254   7.332   6.402
58097SOL     OW76129  12.886  11.617   1.863
58097SOL    HW176130  12.981  11.627   1.865
58097SOL    HW276131  12.872  11.543   1.802
58098SOL     OW76132   2.522   2.621   9.285
58098SOL    HW176133   2.487   2.609   9.373
58098SOL    HW276134   2.465   2.569   9.229
58099SOL     OW76135   1.955   9.191   2.918
58099SOL    HW176136   1.869   9.158   2.893
58099SOL    HW276137   1.990   9.230   2.838
58100SOL     OW76138  14.425  12.490   8.091
58100SOL    HW176139  14.444  12.557   8.025
58100SOL    HW276140  14.386  12.539   8.163
58101SOL     OW76141   7.016   2.239   4.716
58101SOL    HW176142   6.938   2.283   4.683
58101SOL    HW276143   6.983   2.159   4.757
58102SOL     OW76144   2.901   5.103  12.393
58102SOL    HW176145   2.994   5.084  12.404
58102SOL    HW276146   2.861   5.078  12.476
58103SOL     OW76147  14.411   8.224  14.107
58103SOL    HW176148  14.438   8.163  14.039
58103SOL    HW276149  14.491   8.269  14.133
58104SOL     OW76150   5.698   7.710   0.080
58104SOL    HW176151   5.642   7.647   0.125
58104SOL    HW276152   5.652   7.794   0.091
58105SOL     OW76153   1.921   9.036   8.695
58105SOL    HW176154   1.869   8.961   8.724
58105SOL    HW276155   1.868   9.112   8.718
58106SOL     OW76156  10.372   4.450   4.086
58106SOL    HW176157  10.462   4.485   4.089
58106SOL    HW276158  10.318   4.523   4.117
58107SOL     OW76159   2.660   8.633   8.865
58107SOL    HW176160   2.568   8.650   8.846
58107SOL    HW276161   2.706   8.710   8.832
58108SOL     OW76162   6.920   0.277  10.959
58108SOL    HW176163   6.992   0.314  11.009
58108SOL    HW276164   6.878   0.353  10.918
58109SOL     OW76165   2.820   9.086  13.947
58109SOL    HW176166   2.809   9.044  14.032
58109SOL    HW276167   2.915   9.095  13.937
58110SOL     OW76168   8.884   0.175   2.842
58110SOL    HW176169   8.847   0.101   2.890
58110SOL    HW276170   8.848   0.252   2.886
58111SOL     OW76171  12.816   7.574   5.502
58111SOL    HW176172  12.737   7.628   5.491
58111SOL    HW276173  12.888   7.634   5.482
58112SOL     OW76174   6.470   7.687   4.128
58112SOL    HW176175   6.469   7.607   4.180
58112SOL    HW276176   6.389   7.732   4.153
58113SOL     OW76177   5.625   4.938  11.489
58113SOL    HW176178   5.630   4.915  11.582
58113SOL    HW276179   5.709   4.910  11.453
58114SOL     OW76180   3.538   5.941  11.766
58114SOL    HW176181   3.553   6.035  11.760
58114SOL    HW276182   3.544   5.909  11.676
58115SOL     OW76183   5.714   1.420  14.202
58115SOL    HW176184   5.804   1.407  14.232
58115SOL    HW276185   5.662   1.359  14.255
58116SOL     OW76186   9.551  14.055   4.001
58116SOL    HW176187   9.510  14.141   3.985
58116SOL    HW276188   9.496  14.014   4.067
58117SOL     OW76189   4.982   4.383  10.829
58117SOL    HW176190   5.052   4.364  10.891
58117SOL    HW276191   5.002   4.470  10.796
58118SOL     OW76192  14.634   9.945   5.324
58118SOL    HW176193  14.596  10.003   5.258
58118SOL    HW276194  14.710   9.992   5.356
58119SOL     OW76195  10.122   1.696  11.218
58119SOL    HW176196  10.126   1.637  11.292
58119SOL    HW276197  10.188   1.763  11.236
58120SOL     OW76198   5.780   5.825  10.931
58120SOL    HW176199   5.821   5.751  10.976
58120SOL    HW276200   5.816   5.823  10.843
58121SOL     OW76201  10.580   5.954  11.651
58121SOL    HW176202  10.578   5.878  11.593
58121SOL    HW276203  10.577   6.029  11.592
58122SOL     OW76204  12.033   4.862  11.220
58122SOL    HW176205  12.100   4.916  11.178
58122SOL    HW276206  11.963   4.924  11.242
58123SOL     OW76207   0.445   5.352   4.249
58123SOL    HW176208   0.367   5.322   4.296
58123SOL    HW276209   0.511   5.285   4.267
58124SOL     OW76210  10.457   0.246   3.616
58124SOL    HW176211  10.519   0.244   3.688
58124SOL    HW276212  10.414   0.160   3.619
58125SOL     OW76213   6.213   8.920   0.832
58125SOL    HW176214   6.236   8.829   0.810
58125SOL    HW276215   6.118   8.922   0.831
58126SOL     OW76216   8.715  13.839   1.001
58126SOL    HW176217   8.789  13.888   1.037
58126SOL    HW276218   8.653  13.832   1.074
58127SOL     OW76219   1.127   9.734   6.726
58127SOL    HW176220   1.172   9.659   6.687
58127SOL    HW276221   1.159   9.810   6.676
58128SOL     OW76222   8.874  10.477   3.628
58128SOL    HW176223   8.888  10.466   3.534
58128SOL    HW276224   8.954  10.520   3.659
58129SOL     OW76225   3.988  12.189  14.256
58129SOL    HW176226   4.069  12.149  14.224
58129SOL    HW276227   4.011  12.224  14.342
58130SOL     OW76228   2.344   6.976  13.808
58130SOL    HW176229   2.334   6.916  13.734
58130SOL    HW276230   2.424   6.947  13.852
58131SOL     OW76231   9.858   8.256  13.937
58131SOL    HW176232   9.795   8.234  14.006
58131SOL    HW276233   9.805   8.268  13.858
58132SOL     OW76234   0.354   4.631   0.015
58132SOL    HW176235   0.309   4.575   0.079
58132SOL    HW276236   0.298   4.708   0.008
58133SOL     OW76237   1.473   9.711   6.831
58133SOL    HW176238   1.402   9.729   6.893
58133SOL    HW276239   1.549   9.756   6.868
58134SOL     OW76240   0.850   8.981   9.161
58134SOL    HW176241   0.853   8.975   9.256
58134SOL    HW276242   0.923   8.926   9.131
58135SOL     OW76243  13.570   3.039   0.998
58135SOL    HW176244  13.623   2.997   1.066
58135SOL    HW276245  13.541   2.967   0.942
58136SOL     OW76246  10.925   9.240   0.858
58136SOL    HW176247  10.866   9.272   0.790
58136SOL    HW276248  10.933   9.313   0.920
58137SOL     OW76249   0.955  10.559   3.535
58137SOL    HW176250   0.941  10.467   3.559
58137SOL    HW276251   1.011  10.555   3.457
58138SOL     OW76252   8.911  13.876   6.157
58138SOL    HW176253   8.927  13.969   6.137
58138SOL    HW276254   8.898  13.836   6.071
58139SOL     OW76255  12.235  13.759  12.570
58139SOL    HW176256  12.213  13.812  12.493
58139SOL    HW276257  12.330  13.752  12.568
58140SOL     OW76258  11.617   1.707  10.236
58140SOL    HW176259  11.529   1.682  10.206
58140SOL    HW276260  11.673   1.635  10.208
58141SOL     OW76261   2.128  14.130   9.614
58141SOL    HW176262   2.198  14.066   9.598
58141SOL    HW276263   2.085  14.140   9.529
58142SOL     OW76264   5.914  14.007   0.598
58142SOL    HW176265   5.917  14.102   0.587
58142SOL    HW276266   5.826  13.990   0.631
58143SOL     OW76267   4.827   0.303  11.902
58143SOL    HW176268   4.829   0.213  11.870
58143SOL    HW276269   4.836   0.356  11.823
58144SOL     OW76270  12.831  12.453   0.377
58144SOL    HW176271  12.911  12.411   0.343
58144SOL    HW276272  12.835  12.543   0.345
58145SOL     OW76273   7.066   7.202   3.984
58145SOL    HW176274   7.054   7.292   3.954
58145SOL    HW276275   7.017   7.149   3.921
58146SOL     OW76276   0.477   9.623  11.102
58146SOL    HW176277   0.551   9.600  11.158
58146SOL    HW276278   0.502   9.706  11.061
58147SOL     OW76279   0.050   6.205   5.156
58147SOL    HW176280   0.028   6.275   5.094
58147SOL    HW276281  14.842   6.187   5.201
58148SOL     OW76282   8.824   7.981   9.771
58148SOL    HW176283   8.745   8.031   9.792
58148SOL    HW276284   8.857   8.020   9.691
58149SOL     OW76285   7.089  13.754  11.828
58149SOL    HW176286   7.060  13.844  11.809
58149SOL    HW276287   7.178  13.765  11.863
58150SOL     OW76288   5.400  12.472   9.497
58150SOL    HW176289   5.394  12.385   9.535
58150SOL    HW276290   5.481  12.509   9.533
58151SOL     OW76291  11.503   7.264   0.358
58151SOL    HW176292  11.567   7.312   0.305
58151SOL    HW276293  11.544   7.180   0.376
58152SOL     OW76294   3.168  10.712   4.490
58152SOL    HW176295   3.128  10.636   4.531
58152SOL    HW276296   3.250  10.724   4.536
58153SOL     OW76297  10.307  14.628   1.910
58153SOL    HW176298  10.238  14.589   1.857
58153SOL    HW276299  10.374  14.559   1.917
58154SOL     OW76300   8.103   7.439   0.337
58154SOL    HW176301   8.153   7.405   0.412
58154SOL    HW276302   8.011   7.424   0.361
58155SOL     OW76303  12.184   3.181   8.787
58155SOL    HW176304  12.206   3.205   8.697
58155SOL    HW276305  12.092   3.157   8.784
58156SOL     OW76306   0.258  10.612   5.591
58156SOL    HW176307   0.318  10.541   5.613
58156SOL    HW276308   0.207  10.578   5.517
58157SOL     OW76309   4.989  10.279   8.776
58157SOL    HW176310   4.933  10.225   8.831
58157SOL    HW276311   4.942  10.362   8.768
58158SOL     OW76312   3.731   1.478   3.213
58158SOL    HW176313   3.651   1.526   3.237
58158SOL    HW276314   3.793   1.547   3.187
58159SOL     OW76315   4.931   3.259   5.123
58159SOL    HW176316   4.973   3.193   5.069
58159SOL    HW276317   4.837   3.245   5.111
58160SOL     OW76318   1.471   9.116   7.295
58160SOL    HW176319   1.535   9.132   7.225
58160SOL    HW276320   1.475   9.022   7.311
58161SOL     OW76321   0.262   0.716   5.023
58161SOL    HW176322   0.246   0.808   5.003
58161SOL    HW276323   0.175   0.677   5.030
58162SOL     OW76324   1.886   1.220   2.860
58162SOL    HW176325   1.974   1.234   2.897
58162SOL    HW276326   1.900   1.162   2.785
58163SOL     OW76327   4.147   3.428   9.808
58163SOL    HW176328   4.075   3.389   9.758
58163SOL    HW276329   4.139   3.390   9.896
58164SOL     OW76330   3.046  10.485   9.012
58164SOL    HW176331   3.105  10.558   8.992
58164SOL    HW276332   3.104  10.411   9.028
58165SOL     OW76333   8.223   9.136  14.501
58165SOL    HW176334   8.238   9.204  14.436
58165SOL    HW276335   8.129   9.121  14.499
58166SOL     OW76336  13.281  12.879  12.242
58166SOL    HW176337  13.281  12.962  12.194
58166SOL    HW276338  13.191  12.846  12.233
58167SOL     OW76339   2.543   1.258   5.063
58167SOL    HW176340   2.620   1.260   5.007
58167SOL    HW276341   2.570   1.206   5.138
58168SOL     OW76342   0.548   3.503   7.136
58168SOL    HW176343   0.481   3.480   7.201
58168SOL    HW276344   0.511   3.476   7.052
58169SOL     OW76345  12.912   2.459   1.774
58169SOL    HW176346  13.006   2.448   1.756
58169SOL    HW276347  12.910   2.518   1.850
58170SOL     OW76348   4.402  13.654   3.280
58170SOL    HW176349   4.395  13.640   3.186
58170SOL    HW276350   4.494  13.641   3.300
58171SOL     OW76351   5.910   8.444   1.014
58171SOL    HW176352   5.947   8.358   0.996
58171SOL    HW276353   5.843   8.456   0.948
58172SOL     OW76354   3.908  13.677   2.871
58172SOL    HW176355   3.989  13.726   2.886
58172SOL    HW276356   3.866  13.672   2.956
58173SOL     OW76357  10.289   4.048   4.658
58173SOL    HW176358  10.314   4.011   4.744
58173SOL    HW276359  10.351   4.120   4.645
58174SOL     OW76360   1.186   7.806  11.616
58174SOL    HW176361   1.132   7.729  11.635
58174SOL    HW276362   1.273   7.771  11.599
58175SOL     OW76363   0.230   1.090   1.358
58175SOL    HW176364   0.257   1.012   1.309
58175SOL    HW276365   0.214   1.059   1.447
58176SOL     OW76366   0.964   5.308   2.097
58176SOL    HW176367   0.998   5.386   2.053
58176SOL    HW276368   0.878   5.294   2.056
58177SOL     OW76369  10.108   6.835  14.350
58177SOL    HW176370  10.150   6.783  14.419
58177SOL    HW276371  10.053   6.897  14.398
58178SOL     OW76372   6.835   0.546  12.717
58178SOL    HW176373   6.784   0.493  12.780
58178SOL    HW276374   6.796   0.526  12.632
58179SOL     OW76375   6.253   3.900  14.598
58179SOL    HW176376   6.221   3.883  14.687
58179SOL    HW276377   6.342   3.934  14.612
58180SOL     OW76378   6.558   9.722   3.775
58180SOL    HW176379   6.530   9.755   3.860
58180SOL    HW276380   6.613   9.646   3.796
58181SOL     OW76381   0.827   5.356  10.165
58181SOL    HW176382   0.918   5.341  10.191
58181SOL    HW276383   0.795   5.269  10.140
58182SOL     OW76384   9.814  13.273   3.570
58182SOL    HW176385   9.761  13.301   3.645
58182SOL    HW276386   9.751  13.248   3.503
58183SOL     OW76387   0.490  12.549   0.004
58183SOL    HW176388   0.570  12.552  14.826
58183SOL    HW276389   0.467  12.456   0.008
58184SOL     OW76390   5.730  13.697  13.490
58184SOL    HW176391   5.667  13.647  13.438
58184SOL    HW276392   5.708  13.789  13.471
58185SOL     OW76393   5.388   2.679   7.971
58185SOL    HW176394   5.421   2.589   7.967
58185SOL    HW276395   5.464   2.733   7.947
58186SOL     OW76396   0.991   0.205  11.848
58186SOL    HW176397   1.054   0.259  11.895
58186SOL    HW276398   1.040   0.125  11.827
58187SOL     OW76399  11.274   1.685   6.827
58187SOL    HW176400  11.188   1.662   6.792
58187SOL    HW276401  11.309   1.603   6.862
58188SOL     OW76402   4.551   6.178   4.473
58188SOL    HW176403   4.631   6.227   4.453
58188SOL    HW276404   4.575   6.087   4.460
58189SOL     OW76405  11.947  10.524   0.504
58189SOL    HW176406  12.019  10.523   0.567
58189SOL    HW276407  11.970  10.456   0.441
58190SOL     OW76408   2.421  12.735   7.546
58190SOL    HW176409   2.474  12.813   7.530
58190SOL    HW276410   2.331  12.763   7.527
58191SOL     OW76411   4.241  13.762   9.425
58191SOL    HW176412   4.168  13.722   9.473
58191SOL    HW276413   4.319  13.722   9.463
58192SOL     OW76414  12.223   8.206   1.317
58192SOL    HW176415  12.254   8.182   1.405
58192SOL    HW276416  12.142   8.156   1.306
58193SOL     OW76417   2.515   7.630   6.173
58193SOL    HW176418   2.520   7.577   6.094
58193SOL    HW276419   2.462   7.706   6.147
58194SOL     OW76420  13.670  10.946   2.113
58194SOL    HW176421  13.708  11.030   2.086
58194SOL    HW276422  13.726  10.880   2.072
58195SOL     OW76423   9.191   9.637   6.732
58195SOL    HW176424   9.111   9.586   6.721
58195SOL    HW276425   9.261   9.572   6.729
58196SOL     OW76426   2.748  14.234   2.174
58196SOL    HW176427   2.702  14.289   2.111
58196SOL    HW276428   2.819  14.193   2.124
58197SOL     OW76429  14.540   2.964   9.630
58197SOL    HW176430  14.538   3.056   9.603
58197SOL    HW276431  14.466   2.924   9.586
58198SOL     OW76432   3.074   2.636  13.837
58198SOL    HW176433   3.066   2.540  13.841
58198SOL    HW276434   2.997   2.664  13.787
58199SOL     OW76435   8.824   3.572   1.581
58199SOL    HW176436   8.897   3.537   1.529
58199SOL    HW276437   8.853   3.565   1.672
58200SOL     OW76438  11.496   5.580   0.286
58200SOL    HW176439  11.574   5.535   0.318
58200SOL    HW276440  11.486   5.550   0.196
58201SOL     OW76441   9.810  11.532  12.930
58201SOL    HW176442   9.768  11.465  12.877
58201SOL    HW276443   9.894  11.493  12.956
58202SOL     OW76444  11.958   2.159   0.570
58202SOL    HW176445  12.030   2.122   0.621
58202SOL    HW276446  11.989   2.247   0.547
58203SOL     OW76447   1.315   7.897   4.559
58203SOL    HW176448   1.361   7.829   4.510
58203SOL    HW276449   1.225   7.863   4.568
58204SOL     OW76450  10.380   7.060   7.998
58204SOL    HW176451  10.404   7.136   7.945
58204SOL    HW276452  10.427   6.987   7.959
58205SOL     OW76453  11.153   3.115   5.357
58205SOL    HW176454  11.125   3.029   5.389
58205SOL    HW276455  11.236   3.131   5.402
58206SOL     OW76456   5.516  14.468  11.195
58206SOL    HW176457   5.452  14.535  11.173
58206SOL    HW276458   5.497  14.446  11.287
58207SOL     OW76459  14.091   6.119   8.638
58207SOL    HW176460  14.123   6.056   8.573
58207SOL    HW276461  14.062   6.194   8.587
58208SOL     OW76462   8.039  12.130   9.614
58208SOL    HW176463   8.005  12.051   9.655
58208SOL    HW276464   8.128  12.138   9.648
58209SOL     OW76465   3.353   9.453   4.176
58209SOL    HW176466   3.431   9.500   4.145
58209SOL    HW276467   3.344   9.479   4.268
58210SOL     OW76468  11.949  10.613  13.663
58210SOL    HW176469  12.013  10.548  13.637
58210SOL    HW276470  11.934  10.596  13.756
58211SOL     OW76471   9.032   8.715  14.788
58211SOL    HW176472   8.959   8.737  14.729
58211SOL    HW276473   9.107   8.762  14.752
58212SOL     OW76474   0.505   0.824   7.354
58212SOL    HW176475   0.445   0.899   7.353
58212SOL    HW276476   0.586   0.859   7.391
58213SOL     OW76477  13.158   0.008   1.829
58213SOL    HW176478  13.151  14.860   1.922
58213SOL    HW276479  13.080   0.062   1.812
58214SOL     OW76480  10.867   1.949   3.329
58214SOL    HW176481  10.915   2.028   3.353
58214SOL    HW276482  10.805   1.978   3.262
58215SOL     OW76483  14.148  10.236   2.626
58215SOL    HW176484  14.106  10.280   2.700
58215SOL    HW276485  14.079  10.182   2.588
58216SOL     OW76486  14.486   2.911   5.666
58216SOL    HW176487  14.461   2.832   5.618
58216SOL    HW276488  14.563   2.944   5.620
58217SOL     OW76489   3.594  13.701   3.985
58217SOL    HW176490   3.685  13.724   3.970
58217SOL    HW276491   3.585  13.699   4.081
58218SOL     OW76492  12.091   6.029  12.752
58218SOL    HW176493  12.087   5.945  12.797
58218SOL    HW276494  12.042   6.015  12.671
58219SOL     OW76495   6.735   1.957  12.449
58219SOL    HW176496   6.831   1.959  12.447
58219SOL    HW276497   6.712   1.892  12.382
58220SOL     OW76498  10.778  13.631  13.396
58220SOL    HW176499  10.748  13.587  13.475
58220SOL    HW276500  10.831  13.566  13.350
58221SOL     OW76501   9.652  12.126   3.994
58221SOL    HW176502   9.571  12.134   3.943
58221SOL    HW276503   9.714  12.185   3.951
58222SOL     OW76504  11.204   1.800  12.122
58222SOL    HW176505  11.140   1.797  12.194
58222SOL    HW276506  11.211   1.709  12.093
58223SOL     OW76507   5.116   3.070   9.576
58223SOL    HW176508   5.033   3.042   9.616
58223SOL    HW276509   5.168   2.990   9.571
58224SOL     OW76510  11.798   5.311   3.024
58224SOL    HW176511  11.743   5.284   3.096
58224SOL    HW276512  11.823   5.401   3.046
58225SOL     OW76513  11.141   6.610   8.313
58225SOL    HW176514  11.143   6.566   8.228
58225SOL    HW276515  11.215   6.572   8.361
58226SOL     OW76516  12.891   2.393   1.027
58226SOL    HW176517  12.849   2.446   0.959
58226SOL    HW276518  12.954   2.453   1.068
58227SOL     OW76519   6.571  10.855   3.951
58227SOL    HW176520   6.557  10.777   4.004
58227SOL    HW276521   6.493  10.909   3.965
58228SOL     OW76522  11.628   9.060  12.867
58228SOL    HW176523  11.631   8.989  12.803
58228SOL    HW276524  11.709   9.108  12.853
58229SOL     OW76525   6.042  13.603  10.825
58229SOL    HW176526   5.951  13.620  10.803
58229SOL    HW276527   6.066  13.528  10.771
58230SOL     OW76528   9.145  11.234   7.342
58230SOL    HW176529   9.082  11.168   7.372
58230SOL    HW276530   9.125  11.247   7.250
58231SOL     OW76531   3.689   8.329   6.062
58231SOL    HW176532   3.650   8.312   5.976
58231SOL    HW276533   3.729   8.245   6.087
58232SOL     OW76534   0.912  12.217   6.895
58232SOL    HW176535   0.862  12.149   6.940
58232SOL    HW276536   1.002  12.187   6.900
58233SOL     OW76537   9.356   5.258   2.719
58233SOL    HW176538   9.408   5.250   2.798
58233SOL    HW276539   9.287   5.321   2.742
58234SOL     OW76540  12.094  11.796  11.303
58234SOL    HW176541  12.107  11.706  11.274
58234SOL    HW276542  12.029  11.790  11.373
58235SOL     OW76543   5.457   0.031   0.556
58235SOL    HW176544   5.462   0.028   0.461
58235SOL    HW276545   5.435   0.122   0.576
58236SOL     OW76546  12.377   8.140   4.696
58236SOL    HW176547  12.296   8.178   4.661
58236SOL    HW276548  12.411   8.086   4.624
58237SOL     OW76549  14.192   4.905   7.457
58237SOL    HW176550  14.269   4.913   7.513
58237SOL    HW276551  14.134   4.976   7.486
58238SOL     OW76552   4.590   3.780   0.554
58238SOL    HW176553   4.626   3.706   0.603
58238SOL    HW276554   4.497   3.760   0.545
58239SOL     OW76555   1.544   2.743  13.832
58239SOL    HW176556   1.627   2.789  13.847
58239SOL    HW276557   1.501   2.744  13.918
58240SOL     OW76558  10.913   8.911  14.007
58240SOL    HW176559  10.823   8.918  13.976
58240SOL    HW276560  10.913   8.956  14.091
58241SOL     OW76561   7.930  13.088  12.937
58241SOL    HW176562   7.968  13.124  12.857
58241SOL    HW276563   7.999  13.033  12.973
58242SOL     OW76564  11.871   9.629   2.403
58242SOL    HW176565  11.908   9.686   2.470
58242SOL    HW276566  11.788   9.598   2.441
58243SOL     OW76567   6.484   2.483   5.539
58243SOL    HW176568   6.450   2.470   5.628
58243SOL    HW276569   6.412   2.459   5.482
58244SOL     OW76570  12.943   5.239   2.807
58244SOL    HW176571  12.900   5.172   2.753
58244SOL    HW276572  12.880   5.311   2.809
58245SOL     OW76573   6.522  12.839   6.986
58245SOL    HW176574   6.495  12.882   6.904
58245SOL    HW276575   6.540  12.911   7.046
58246SOL     OW76576   5.054   6.497  11.572
58246SOL    HW176577   5.096   6.574  11.609
58246SOL    HW276578   4.977   6.531  11.526
58247SOL     OW76579   6.868  10.911   6.061
58247SOL    HW176580   6.907  10.827   6.037
58247SOL    HW276581   6.931  10.951   6.121
58248SOL     OW76582   8.309   2.881  13.572
58248SOL    HW176583   8.292   2.862  13.480
58248SOL    HW276584   8.222   2.892  13.611
58249SOL     OW76585  10.445  13.585  14.551
58249SOL    HW176586  10.404  13.556  14.470
58249SOL    HW276587  10.394  13.541  14.620
58250SOL     OW76588  13.278   2.053   0.074
58250SOL    HW176589  13.248   2.142   0.056
58250SOL    HW276590  13.350   2.039   0.012
58251SOL     OW76591  10.742  11.487  12.737
58251SOL    HW176592  10.732  11.422  12.807
58251SOL    HW276593  10.828  11.527  12.753
58252SOL     OW76594   8.021   9.396   1.206
58252SOL    HW176595   7.983   9.308   1.212
58252SOL    HW276596   8.116   9.380   1.205
58253SOL     OW76597   1.252  10.193  13.098
58253SOL    HW176598   1.259  10.148  13.014
58253SOL    HW276599   1.170  10.241  13.093
58254SOL     OW76600   3.601  13.379   5.647
58254SOL    HW176601   3.590  13.436   5.723
58254SOL    HW276602   3.619  13.293   5.685
58255SOL     OW76603   5.746  12.801   5.400
58255SOL    HW176604   5.770  12.813   5.308
58255SOL    HW276605   5.805  12.732   5.431
58256SOL     OW76606   0.492   1.019   3.130
58256SOL    HW176607   0.508   0.993   3.221
58256SOL    HW276608   0.580   1.029   3.093
58257SOL     OW76609   1.870  12.976   4.538
58257SOL    HW176610   1.863  12.895   4.588
58257SOL    HW276611   1.951  13.016   4.568
58258SOL     OW76612   5.518  11.541   1.624
58258SOL    HW176613   5.603  11.512   1.658
58258SOL    HW276614   5.458  11.469   1.644
58259SOL     OW76615   1.911  12.701   1.609
58259SOL    HW176616   1.930  12.618   1.567
58259SOL    HW276617   1.912  12.765   1.538
58260SOL     OW76618   0.685   5.701   2.579
58260SOL    HW176619   0.680   5.676   2.671
58260SOL    HW276620   0.770   5.743   2.570
58261SOL     OW76621  10.120   1.829   8.029
58261SOL    HW176622  10.077   1.859   7.949
58261SOL    HW276623  10.213   1.832   8.008
58262SOL     OW76624   4.488  11.146   6.776
58262SOL    HW176625   4.572  11.190   6.786
58262SOL    HW276626   4.509  11.061   6.736
58263SOL     OW76627   3.713   2.875   6.106
58263SOL    HW176628   3.628   2.874   6.149
58263SOL    HW276629   3.705   2.811   6.035
58264SOL     OW76630   8.192   0.882   9.862
58264SOL    HW176631   8.103   0.904   9.887
58264SOL    HW276632   8.247   0.922   9.929
58265SOL     OW76633   7.523   5.503  14.463
58265SOL    HW176634   7.493   5.452  14.539
58265SOL    HW276635   7.503   5.594  14.487
58266SOL     OW76636   2.152   0.174   3.644
58266SOL    HW176637   2.226   0.129   3.684
58266SOL    HW276638   2.087   0.182   3.714
58267SOL     OW76639  10.778  12.037   5.329
58267SOL    HW176640  10.818  12.075   5.251
58267SOL    HW276641  10.687  12.022   5.304
58268SOL     OW76642   7.865   5.798   7.842
58268SOL    HW176643   7.832   5.711   7.865
58268SOL    HW276644   7.952   5.782   7.806
58269SOL     OW76645  12.717  10.884   8.595
58269SOL    HW176646  12.783  10.952   8.582
58269SOL    HW276647  12.734  10.851   8.683
58270SOL     OW76648   4.253   6.383   9.966
58270SOL    HW176649   4.181   6.361   9.906
58270SOL    HW276650   4.318   6.426   9.910
58271SOL     OW76651  14.644  11.190   0.836
58271SOL    HW176652  14.675  11.262   0.782
58271SOL    HW276653  14.548  11.195   0.829
58272SOL     OW76654   0.934   1.958   1.415
58272SOL    HW176655   0.977   1.873   1.426
58272SOL    HW276656   0.866   1.959   1.482
58273SOL     OW76657   6.182  14.745   8.081
58273SOL    HW176658   6.176  14.728   7.987
58273SOL    HW276659   6.273  14.725   8.104
58274SOL     OW76660   6.573  11.810  14.239
58274SOL    HW176661   6.620  11.893  14.226
58274SOL    HW276662   6.567  11.802  14.334
58275SOL     OW76663  13.752  10.520   4.439
58275SOL    HW176664  13.705  10.602   4.422
58275SOL    HW276665  13.730  10.464   4.364
58276SOL     OW76666   3.962   5.870  13.882
58276SOL    HW176667   3.942   5.779  13.903
58276SOL    HW276668   3.907   5.890  13.806
58277SOL     OW76669  11.709   9.001  12.056
58277SOL    HW176670  11.682   8.969  11.970
58277SOL    HW276671  11.747   8.924  12.099
58278SOL     OW76672  14.206  11.578   8.589
58278SOL    HW176673  14.226  11.636   8.663
58278SOL    HW276674  14.183  11.636   8.517
58279SOL     OW76675   1.755  10.180  12.071
58279SOL    HW176676   1.796  10.095  12.059
58279SOL    HW276677   1.805  10.239  12.015
58280SOL     OW76678   3.864  13.419   0.220
58280SOL    HW176679   3.785  13.392   0.172
58280SOL    HW276680   3.831  13.448   0.305
58281SOL     OW76681   9.508  14.268   2.174
58281SOL    HW176682   9.477  14.190   2.127
58281SOL    HW276683   9.435  14.329   2.170
58282SOL     OW76684   1.834  10.237   9.297
58282SOL    HW176685   1.781  10.201   9.226
58282SOL    HW276686   1.817  10.331   9.294
58283SOL     OW76687  13.307  13.674   7.466
58283SOL    HW176688  13.263  13.666   7.381
58283SOL    HW276689  13.243  13.640   7.529
58284SOL     OW76690  13.559   1.021   8.859
58284SOL    HW176691  13.572   0.957   8.930
58284SOL    HW276692  13.499   0.977   8.799
58285SOL     OW76693  13.668   1.575   4.093
58285SOL    HW176694  13.642   1.523   4.169
58285SOL    HW276695  13.732   1.521   4.047
58286SOL     OW76696   2.603   0.361   6.388
58286SOL    HW176697   2.588   0.448   6.350
58286SOL    HW276698   2.638   0.309   6.316
58287SOL     OW76699   2.621  12.818  13.402
58287SOL    HW176700   2.587  12.729  13.404
58287SOL    HW276701   2.546  12.871  13.375
58288SOL     OW76702   1.274   0.701   1.826
58288SOL    HW176703   1.248   0.640   1.756
58288SOL    HW276704   1.193   0.718   1.874
58289SOL     OW76705  12.831  10.717   8.409
58289SOL    HW176706  12.903  10.770   8.443
58289SOL    HW276707  12.754  10.772   8.419
58290SOL     OW76708   4.621  12.375   3.221
58290SOL    HW176709   4.696  12.365   3.280
58290SOL    HW276710   4.555  12.421   3.273
58291SOL     OW76711  10.893   2.820  11.954
58291SOL    HW176712  10.804   2.822  11.919
58291SOL    HW276713  10.882   2.844  12.047
58292SOL     OW76714   6.097  11.632  13.533
58292SOL    HW176715   6.090  11.656  13.626
58292SOL    HW276716   6.011  11.651  13.496
58293SOL     OW76717   6.207   6.056   9.951
58293SOL    HW176718   6.176   5.972   9.918
58293SOL    HW276719   6.287   6.035  10.000
58294SOL     OW76720   7.863  11.424  13.437
58294SOL    HW176721   7.894  11.339  13.469
58294SOL    HW276722   7.908  11.436  13.353
58295SOL     OW76723   2.631  14.140  12.535
58295SOL    HW176724   2.615  14.156  12.442
58295SOL    HW276725   2.551  14.095  12.565
58296SOL     OW76726  10.654   9.871  12.648
58296SOL    HW176727  10.701   9.801  12.694
58296SOL    HW276728  10.564   9.866  12.681
58297SOL     OW76729   6.531  11.471   2.828
58297SOL    HW176730   6.448  11.516   2.812
58297SOL    HW276731   6.532  11.399   2.764
58298SOL     OW76732   4.987   1.703  14.477
58298SOL    HW176733   5.000   1.740  14.565
58298SOL    HW276734   4.933   1.767  14.432
58299SOL     OW76735   6.642  13.020  11.327
58299SOL    HW176736   6.690  12.972  11.259
58299SOL    HW276737   6.694  13.009  11.406
58300SOL     OW76738  13.746  14.545  10.673
58300SOL    HW176739  13.735  14.565  10.766
58300SOL    HW276740  13.660  14.562  10.634
58301SOL     OW76741   6.465  11.692  11.376
58301SOL    HW176742   6.533  11.737  11.427
58301SOL    HW276743   6.464  11.736  11.292
58302SOL     OW76744   4.791   6.845  11.510
58302SOL    HW176745   4.851   6.914  11.481
58302SOL    HW276746   4.822   6.823  11.598
58303SOL     OW76747  13.125  10.189   7.467
58303SOL    HW176748  13.146  10.120   7.529
58303SOL    HW276749  13.121  10.145   7.382
58304SOL     OW76750  14.171   8.260   8.739
58304SOL    HW176751  14.225   8.197   8.691
58304SOL    HW276752  14.233   8.330   8.762
58305SOL     OW76753  13.508   9.482  13.677
58305SOL    HW176754  13.524   9.470  13.771
58305SOL    HW276755  13.570   9.549  13.650
58306SOL     OW76756   8.932   2.826   4.641
58306SOL    HW176757   9.022   2.807   4.616
58306SOL    HW276758   8.910   2.906   4.593
58307SOL     OW76759   4.872  12.645   7.368
58307SOL    HW176760   4.808  12.683   7.428
58307SOL    HW276761   4.820  12.586   7.313
58308SOL     OW76762   1.381   4.255   2.800
58308SOL    HW176763   1.363   4.346   2.823
58308SOL    HW276764   1.458   4.259   2.744
58309SOL     OW76765   5.752  12.250  12.163
58309SOL    HW176766   5.825  12.197  12.131
58309SOL    HW276767   5.752  12.237  12.258
58310SOL     OW76768  14.554   4.402  10.281
58310SOL    HW176769  14.640   4.370  10.307
58310SOL    HW276770  14.563   4.497  10.280
58311SOL     OW76771   3.476   3.609   3.049
58311SOL    HW176772   3.564   3.618   3.012
58311SOL    HW276773   3.418   3.624   2.975
58312SOL     OW76774   8.028   4.014  10.302
58312SOL    HW176775   7.937   4.026  10.273
58312SOL    HW276776   8.042   3.920  10.296
58313SOL     OW76777   0.249  10.757   1.926
58313SOL    HW176778   0.298  10.773   1.845
58313SOL    HW276779   0.264  10.665   1.946
58314SOL     OW76780   3.687   7.816   0.648
58314SOL    HW176781   3.780   7.823   0.669
58314SOL    HW276782   3.647   7.894   0.686
58315SOL     OW76783  13.945  10.056   2.542
58315SOL    HW176784  13.902  10.089   2.463
58315SOL    HW276785  13.951   9.962   2.529
58316SOL     OW76786   4.055   7.808   5.982
58316SOL    HW176787   4.116   7.867   5.936
58316SOL    HW276788   3.975   7.859   5.991
58317SOL     OW76789   8.762   3.538   9.346
58317SOL    HW176790   8.708   3.468   9.309
58317SOL    HW276791   8.767   3.604   9.277
58318SOL     OW76792   9.049   0.669  13.027
58318SOL    HW176793   9.029   0.762  13.016
58318SOL    HW276794   9.097   0.665  13.110
58319SOL     OW76795   2.660   5.792   3.428
58319SOL    HW176796   2.612   5.822   3.351
58319SOL    HW276797   2.748   5.829   3.419
58320SOL     OW76798  13.982   4.595  11.853
58320SOL    HW176799  14.022   4.547  11.780
58320SOL    HW276800  13.907   4.640  11.813
58321SOL     OW76801  10.956  10.543   8.104
58321SOL    HW176802  10.993  10.483   8.169
58321SOL    HW276803  10.986  10.509   8.020
58322SOL     OW76804   9.750   2.107   7.932
58322SOL    HW176805   9.736   2.184   7.987
58322SOL    HW276806   9.661   2.079   7.907
58323SOL     OW76807   6.883   9.414   9.574
58323SOL    HW176808   6.811   9.351   9.579
58323SOL    HW276809   6.911   9.426   9.664
58324SOL     OW76810  10.370   7.431   5.886
58324SOL    HW176811  10.323   7.453   5.967
58324SOL    HW276812  10.308   7.454   5.816
58325SOL     OW76813  13.690   5.654   9.825
58325SOL    HW176814  13.763   5.687   9.772
58325SOL    HW276815  13.719   5.666   9.916
58326SOL     OW76816   9.087   3.027   1.300
58326SOL    HW176817   9.046   3.052   1.383
58326SOL    HW276818   9.157   3.091   1.288
58327SOL     OW76819   6.202   0.234   0.567
58327SOL    HW176820   6.128   0.202   0.515
58327SOL    HW276821   6.278   0.217   0.512
58328SOL     OW76822   9.041   1.170  14.356
58328SOL    HW176823   8.989   1.129  14.286
58328SOL    HW276824   9.063   1.097  14.414
58329SOL     OW76825  11.137   9.327  11.699
58329SOL    HW176826  11.057   9.294  11.741
58329SOL    HW276827  11.193   9.354  11.771
58330SOL     OW76828  11.381   4.993   5.591
58330SOL    HW176829  11.368   4.914   5.643
58330SOL    HW276830  11.311   4.991   5.526
58331SOL     OW76831   8.128   4.532   7.463
58331SOL    HW176832   8.180   4.574   7.394
58331SOL    HW276833   8.063   4.480   7.415
58332SOL     OW76834   8.759   2.972   5.972
58332SOL    HW176835   8.720   3.053   6.005
58332SOL    HW276836   8.757   2.913   6.047
58333SOL     OW76837   9.593   2.184   3.880
58333SOL    HW176838   9.530   2.237   3.831
58333SOL    HW276839   9.642   2.137   3.813
58334SOL     OW76840   3.032   9.306   6.484
58334SOL    HW176841   3.087   9.307   6.405
58334SOL    HW276842   2.972   9.380   6.472
58335SOL     OW76843   1.766   6.832   3.828
58335SOL    HW176844   1.748   6.901   3.764
58335SOL    HW276845   1.680   6.794   3.847
58336SOL     OW76846  10.641   8.469  11.133
58336SOL    HW176847  10.662   8.400  11.196
58336SOL    HW276848  10.581   8.527  11.180
58337SOL     OW76849   2.252  11.296  12.492
58337SOL    HW176850   2.310  11.357  12.446
58337SOL    HW276851   2.221  11.345  12.568
58338SOL     OW76852   4.286   3.724   6.055
58338SOL    HW176853   4.358   3.777   6.020
58338SOL    HW276854   4.222   3.720   5.984
58339SOL     OW76855   4.498   3.283  14.069
58339SOL    HW176856   4.456   3.326  13.995
58339SOL    HW276857   4.511   3.353  14.133
58340SOL     OW76858  11.661   3.893  14.749
58340SOL    HW176859  11.623   3.891  14.661
58340SOL    HW276860  11.648   3.983  14.778
58341SOL     OW76861   4.661  13.572  13.200
58341SOL    HW176862   4.590  13.521  13.238
58341SOL    HW276863   4.696  13.516  13.130
58342SOL     OW76864  14.193   3.815  13.035
58342SOL    HW176865  14.165   3.893  12.987
58342SOL    HW276866  14.204   3.748  12.967
58343SOL     OW76867   5.020   3.125   7.266
58343SOL    HW176868   4.967   3.134   7.345
58343SOL    HW276869   5.040   3.215   7.240
58344SOL     OW76870   8.097   1.812   7.352
58344SOL    HW176871   8.106   1.763   7.433
58344SOL    HW276872   8.092   1.904   7.380
58345SOL     OW76873  10.927  12.145   1.060
58345SOL    HW176874  10.979  12.225   1.064
58345SOL    HW276875  10.869  12.158   0.985
58346SOL     OW76876   7.173  12.673  10.786
58346SOL    HW176877   7.218  12.637  10.709
58346SOL    HW276878   7.243  12.710  10.840
58347SOL     OW76879   8.370  14.217   5.341
58347SOL    HW176880   8.457  14.178   5.337
58347SOL    HW276881   8.358  14.261   5.257
58348SOL     OW76882   0.976   4.322  12.978
58348SOL    HW176883   0.978   4.417  12.965
58348SOL    HW276884   1.061   4.301  13.015
58349SOL     OW76885  13.575   3.807  12.159
58349SOL    HW176886  13.519   3.878  12.127
58349SOL    HW276887  13.534   3.779  12.241
58350SOL     OW76888  13.108   7.170  11.482
58350SOL    HW176889  13.076   7.120  11.407
58350SOL    HW276890  13.174   7.114  11.522
58351SOL     OW76891   1.880   4.876   4.844
58351SOL    HW176892   1.849   4.791   4.812
58351SOL    HW276893   1.817   4.939   4.811
58352SOL     OW76894   6.591   0.639   0.578
58352SOL    HW176895   6.670   0.683   0.548
58352SOL    HW276896   6.623   0.560   0.623
58353SOL     OW76897  10.689   1.300   3.378
58353SOL    HW176898  10.724   1.210   3.376
58353SOL    HW276899  10.610   1.296   3.324
58354SOL     OW76900   6.535   3.887   4.372
58354SOL    HW176901   6.541   3.954   4.304
58354SOL    HW276902   6.544   3.936   4.454
58355SOL     OW76903   9.084   3.353  14.677
58355SOL    HW176904   9.103   3.328  14.767
58355SOL    HW276905   9.168   3.348  14.632
58356SOL     OW76906  11.482  11.747  10.474
58356SOL    HW176907  11.510  11.737  10.565
58356SOL    HW276908  11.563  11.764  10.426
58357SOL     OW76909   2.786   5.338   6.697
58357SOL    HW176910   2.864   5.294   6.731
58357SOL    HW276911   2.811   5.430   6.692
58358SOL     OW76912   5.236  12.208   8.981
58358SOL    HW176913   5.158  12.231   9.032
58358SOL    HW276914   5.239  12.274   8.912
58359SOL     OW76915  14.770   7.349   9.954
58359SOL    HW176916  14.804   7.417  10.011
58359SOL    HW276917  14.828   7.349   9.878
58360SOL     OW76918   4.691   0.730   3.736
58360SOL    HW176919   4.599   0.722   3.762
58360SOL    HW276920   4.697   0.817   3.697
58361SOL     OW76921  12.586  10.002   9.282
58361SOL    HW176922  12.569   9.981   9.191
58361SOL    HW276923  12.680   9.989   9.293
58362SOL     OW76924   6.768  14.578   9.049
58362SOL    HW176925   6.720  14.595   8.968
58362SOL    HW276926   6.707  14.603   9.118
58363SOL     OW76927   5.652  11.596  11.571
58363SOL    HW176928   5.557  11.601  11.575
58363SOL    HW276929   5.678  11.668  11.514
58364SOL     OW76930   4.138   0.560   5.402
58364SOL    HW176931   4.223   0.562   5.446
58364SOL    HW276932   4.160   0.551   5.309
58365SOL     OW76933   2.133   2.972   0.916
58365SOL    HW176934   2.088   2.891   0.941
58365SOL    HW276935   2.175   2.951   0.833
58366SOL     OW76936   7.431  14.583   6.191
58366SOL    HW176937   7.389  14.576   6.105
58366SOL    HW276938   7.508  14.638   6.175
58367SOL     OW76939   4.042   4.258   8.444
58367SOL    HW176940   4.013   4.337   8.489
58367SOL    HW276941   3.978   4.246   8.374
58368SOL     OW76942  10.494   1.399  13.260
58368SOL    HW176943  10.406   1.362  13.266
58368SOL    HW276944  10.481   1.487  13.225
58369SOL     OW76945   0.528   5.415   3.096
58369SOL    HW176946   0.454   5.384   3.147
58369SOL    HW276947   0.604   5.369   3.133
58370SOL     OW76948  10.659   3.036   1.073
58370SOL    HW176949  10.643   2.956   1.024
58370SOL    HW276950  10.681   3.101   1.007
58371SOL     OW76951  13.135   1.461   3.469
58371SOL    HW176952  13.132   1.444   3.375
58371SOL    HW276953  13.128   1.556   3.475
58372SOL     OW76954   0.596  14.199   0.191
58372SOL    HW176955   0.561  14.175   0.276
58372SOL    HW276956   0.674  14.144   0.181
58373SOL     OW76957   9.547   4.381   5.230
58373SOL    HW176958   9.629   4.350   5.268
58373SOL    HW276959   9.570   4.404   5.140
58374SOL     OW76960  12.586   7.148   0.696
58374SOL    HW176961  12.587   7.081   0.764
58374SOL    HW276962  12.560   7.228   0.741
58375SOL     OW76963   6.598   8.490  12.806
58375SOL    HW176964   6.651   8.410  12.801
58375SOL    HW276965   6.599   8.514  12.899
58376SOL     OW76966   7.589   8.580   0.156
58376SOL    HW176967   7.656   8.519   0.187
58376SOL    HW276968   7.597   8.655   0.215
58377SOL     OW76969  14.782  10.696   5.781
58377SOL    HW176970  14.845  10.766   5.765
58377SOL    HW276971  14.770  10.653   5.697
58378SOL     OW76972   1.026  10.291   2.836
58378SOL    HW176973   1.097  10.292   2.900
58378SOL    HW276974   1.027  10.379   2.799
58379SOL     OW76975   3.222   9.091   3.082
58379SOL    HW176976   3.139   9.136   3.099
58379SOL    HW276977   3.240   9.043   3.163
58380SOL     OW76978   4.720   9.448  12.178
58380SOL    HW176979   4.708   9.361  12.141
58380SOL    HW276980   4.736   9.504  12.102
58381SOL     OW76981  13.294   7.743   9.888
58381SOL    HW176982  13.266   7.770   9.975
58381SOL    HW276983  13.275   7.818   9.832
58382SOL     OW76984   9.197   9.107  14.606
58382SOL    HW176985   9.271   9.080  14.551
58382SOL    HW276986   9.238   9.147  14.682
58383SOL     OW76987   2.058   6.873   7.607
58383SOL    HW176988   1.983   6.926   7.577
58383SOL    HW276989   2.130   6.936   7.613
58384SOL     OW76990   7.527   6.907   7.476
58384SOL    HW176991   7.432   6.919   7.471
58384SOL    HW276992   7.538   6.822   7.518
58385SOL     OW76993   8.927  11.603   4.898
58385SOL    HW176994   8.994  11.591   4.831
58385SOL    HW276995   8.876  11.678   4.866
58386SOL     OW76996   2.832   1.909   9.545
58386SOL    HW176997   2.865   1.851   9.477
58386SOL    HW276998   2.829   1.855   9.624
58387SOL     OW76999   3.687   9.910   0.043
58387SOL    HW177000   3.618   9.975   0.028
58387SOL    HW277001   3.647   9.845   0.101
58388SOL     OW77002  10.346  13.820   3.613
58388SOL    HW177003  10.436  13.794   3.629
58388SOL    HW277004  10.352  13.889   3.547
58389SOL     OW77005  14.596  11.920   3.359
58389SOL    HW177006  14.577  11.828   3.372
58389SOL    HW277007  14.610  11.929   3.264
58390SOL     OW77008   4.446   1.325  14.201
58390SOL    HW177009   4.530   1.279  14.213
58390SOL    HW277010   4.438   1.380  14.279
58391SOL     OW77011   3.376   4.936  13.171
58391SOL    HW177012   3.403   4.882  13.097
58391SOL    HW277013   3.446   4.924  13.235
58392SOL     OW77014   3.573   7.133   2.326
58392SOL    HW177015   3.614   7.090   2.401
58392SOL    HW277016   3.586   7.073   2.253
58393SOL     OW77017   5.506   4.020   1.116
58393SOL    HW177018   5.479   4.038   1.026
58393SOL    HW277019   5.543   4.103   1.147
58394SOL     OW77020   7.911   7.569  13.794
58394SOL    HW177021   7.870   7.656  13.793
58394SOL    HW277022   7.845   7.512  13.832
58395SOL     OW77023  14.531   5.549   2.650
58395SOL    HW177024  14.553   5.606   2.723
58395SOL    HW277025  14.485   5.475   2.690
58396SOL     OW77026   1.590   8.909   1.822
58396SOL    HW177027   1.570   8.837   1.762
58396SOL    HW277028   1.509   8.958   1.830
58397SOL     OW77029   6.908  14.510   7.493
58397SOL    HW177030   6.842  14.481   7.556
58397SOL    HW277031   6.988  14.518   7.545
58398SOL     OW77032   6.011  13.957   5.106
58398SOL    HW177033   6.099  13.994   5.105
58398SOL    HW277034   5.955  14.030   5.132
58399SOL     OW77035  12.802   5.724   7.484
58399SOL    HW177036  12.747   5.671   7.542
58399SOL    HW277037  12.886   5.678   7.481
58400SOL     OW77038   2.338   5.879  14.635
58400SOL    HW177039   2.306   5.792  14.657
58400SOL    HW277040   2.297   5.937  14.699
58401SOL     OW77041  11.556   9.112   3.062
58401SOL    HW177042  11.586   9.159   2.985
58401SOL    HW277043  11.463   9.095   3.045
58402SOL     OW77044   8.230   9.085   7.049
58402SOL    HW177045   8.264   9.029   6.979
58402SOL    HW277046   8.254   9.174   7.021
58403SOL     OW77047   0.360   0.903   0.582
58403SOL    HW177048   0.345   0.880   0.673
58403SOL    HW277049   0.301   0.846   0.532
58404SOL     OW77050   9.852   8.072   5.250
58404SOL    HW177051   9.854   8.024   5.167
58404SOL    HW277052   9.890   8.012   5.314
58405SOL     OW77053  12.627  12.771  11.695
58405SOL    HW177054  12.605  12.836  11.761
58405SOL    HW277055  12.661  12.696  11.744
58406SOL     OW77056  14.385   6.537   4.707
58406SOL    HW177057  14.347   6.494   4.630
58406SOL    HW277058  14.344   6.624   4.709
58407SOL     OW77059   4.543  10.769   8.541
58407SOL    HW177060   4.603  10.803   8.608
58407SOL    HW277061   4.596  10.764   8.462
58408SOL     OW77062   3.581   1.270  13.438
58408SOL    HW177063   3.652   1.253  13.500
58408SOL    HW277064   3.616   1.336  13.378
58409SOL     OW77065   4.985   5.257  10.585
58409SOL    HW177066   5.074   5.288  10.599
58409SOL    HW277067   4.931   5.337  10.586
58410SOL     OW77068   5.538  12.312   8.892
58410SOL    HW177069   5.463  12.253   8.890
58410SOL    HW277070   5.614  12.255   8.882
58411SOL     OW77071  10.482   9.728   6.763
58411SOL    HW177072  10.409   9.669   6.745
58411SOL    HW277073  10.555   9.691   6.714
58412SOL     OW77074  13.981  14.758  11.470
58412SOL    HW177075  14.031  14.815  11.528
58412SOL    HW277076  14.047  14.716  11.415
58413SOL     OW77077  10.405   3.517   4.115
58413SOL    HW177078  10.404   3.554   4.027
58413SOL    HW277079  10.490   3.474   4.122
58414SOL     OW77080   5.053   8.071  13.686
58414SOL    HW177081   4.983   8.094  13.747
58414SOL    HW277082   5.072   8.153  13.640
58415SOL     OW77083  14.384  13.773   4.278
58415SOL    HW177084  14.334  13.744   4.202
58415SOL    HW277085  14.329  13.840   4.319
58416SOL     OW77086   0.357   1.092  10.743
58416SOL    HW177087   0.310   1.094  10.826
58416SOL    HW277088   0.301   1.142  10.683
58417SOL     OW77089  12.663  10.832   3.809
58417SOL    HW177090  12.678  10.828   3.903
58417SOL    HW277091  12.574  10.797   3.797
58418SOL     OW77092  14.478   8.121  14.590
58418SOL    HW177093  14.557   8.103  14.539
58418SOL    HW277094  14.425   8.041  14.580
58419SOL     OW77095  12.272  12.546  12.361
58419SOL    HW177096  12.251  12.638  12.377
58419SOL    HW277097  12.190  12.499  12.375
58420SOL     OW77098   1.390  10.392   3.199
58420SOL    HW177099   1.455  10.370   3.132
58420SOL    HW277100   1.344  10.469   3.163
58421SOL     OW77101  10.634   6.818   0.816
58421SOL    HW177102  10.554   6.858   0.782
58421SOL    HW277103  10.701   6.885   0.806
58422SOL     OW77104  11.767   7.546  10.909
58422SOL    HW177105  11.831   7.499  10.855
58422SOL    HW277106  11.818   7.583  10.981
58423SOL     OW77107  13.993   8.925   3.409
58423SOL    HW177108  14.069   8.886   3.365
58423SOL    HW277109  14.011   9.019   3.410
58424SOL     OW77110  14.152   4.406   2.326
58424SOL    HW177111  14.204   4.355   2.264
58424SOL    HW277112  14.082   4.347   2.354
58425SOL     OW77113  11.835  11.182  10.939
58425SOL    HW177114  11.796  11.150  10.857
58425SOL    HW277115  11.854  11.274  10.923
58426SOL     OW77116   6.960  14.579   1.954
58426SOL    HW177117   7.024  14.585   2.025
58426SOL    HW277118   6.877  14.558   1.998
58427SOL     OW77119   3.203  12.584   6.497
58427SOL    HW177120   3.267  12.516   6.519
58427SOL    HW277121   3.225  12.657   6.554
58428SOL     OW77122   1.659   6.606   7.638
58428SOL    HW177123   1.643   6.616   7.545
58428SOL    HW277124   1.721   6.534   7.644
58429SOL     OW77125   2.576  10.246   6.138
58429SOL    HW177126   2.508  10.196   6.183
58429SOL    HW277127   2.619  10.182   6.081
58430SOL     OW77128   9.829  11.380   6.816
58430SOL    HW177129   9.807  11.358   6.726
58430SOL    HW277130   9.895  11.316   6.842
58431SOL     OW77131   1.304   9.813  11.684
58431SOL    HW177132   1.338   9.788  11.598
58431SOL    HW277133   1.307   9.732  11.736
58432SOL     OW77134  12.678  14.518  14.143
58432SOL    HW177135  12.771  14.538  14.133
58432SOL    HW277136  12.634  14.578  14.084
58433SOL     OW77137   7.093   3.021   9.624
58433SOL    HW177138   7.068   2.975   9.544
58433SOL    HW277139   7.188   3.031   9.617
58434SOL     OW77140   3.538  13.576  12.799
58434SOL    HW177141   3.532  13.482  12.817
58434SOL    HW277142   3.591  13.582  12.720
58435SOL     OW77143   4.496  14.670   1.445
58435SOL    HW177144   4.515  14.754   1.487
58435SOL    HW277145   4.578  14.621   1.450
58436SOL     OW77146   5.408   6.463  10.219
58436SOL    HW177147   5.406   6.400  10.290
58436SOL    HW277148   5.353   6.536  10.248
58437SOL     OW77149  11.162   0.738   5.639
58437SOL    HW177150  11.097   0.789   5.688
58437SOL    HW277151  11.135   0.745   5.548
58438SOL     OW77152  14.273   7.736  12.797
58438SOL    HW177153  14.277   7.792  12.875
58438SOL    HW277154  14.201   7.675  12.816
58439SOL     OW77155  13.489  13.518   7.330
58439SOL    HW177156  13.432  13.574   7.383
58439SOL    HW277157  13.514  13.572   7.255
58440SOL     OW77158   0.235  11.272  11.681
58440SOL    HW177159   0.237  11.201  11.617
58440SOL    HW277160   0.277  11.346  11.637
58441SOL     OW77161  13.641   1.580   8.655
58441SOL    HW177162  13.657   1.543   8.742
58441SOL    HW277163  13.559   1.629   8.664
58442SOL     OW77164  13.382   8.805   4.545
58442SOL    HW177165  13.434   8.806   4.626
58442SOL    HW277166  13.347   8.716   4.541
58443SOL     OW77167  14.828   7.938   4.986
58443SOL    HW177168  14.802   7.978   5.069
58443SOL    HW277169  14.768   7.975   4.921
58444SOL     OW77170  11.925   7.335   2.052
58444SOL    HW177171  11.875   7.256   2.031
58444SOL    HW277172  11.961   7.363   1.968
58445SOL     OW77173  10.458   3.651   2.227
58445SOL    HW177174  10.376   3.623   2.186
58445SOL    HW277175  10.522   3.648   2.156
58446SOL     OW77176   2.331  10.086   0.219
58446SOL    HW177177   2.321  10.005   0.171
58446SOL    HW277178   2.254  10.138   0.196
58447SOL     OW77179  12.992   4.513  13.920
58447SOL    HW177180  12.956   4.541  14.004
58447SOL    HW277181  12.919   4.472  13.874
58448SOL     OW77182   1.106  11.207  13.002
58448SOL    HW177183   1.185  11.161  13.029
58448SOL    HW277184   1.067  11.152  12.934
58449SOL     OW77185   1.785   2.501   5.666
58449SOL    HW177186   1.800   2.464   5.753
58449SOL    HW277187   1.829   2.442   5.606
58450SOL     OW77188   3.026   6.029   6.859
58450SOL    HW177189   3.111   6.053   6.823
58450SOL    HW277190   2.974   6.110   6.854
58451SOL     OW77191   4.089   0.839   6.822
58451SOL    HW177192   4.019   0.881   6.773
58451SOL    HW277193   4.168   0.855   6.770
58452SOL     OW77194  10.727  13.552   7.708
58452SOL    HW177195  10.762  13.568   7.620
58452SOL    HW277196  10.694  13.463   7.705
58453SOL     OW77197  12.054   6.622   3.314
58453SOL    HW177198  12.022   6.568   3.387
58453SOL    HW277199  11.988   6.612   3.246
58454SOL     OW77200   9.790  12.472   7.916
58454SOL    HW177201   9.771  12.559   7.950
58454SOL    HW277202   9.739  12.465   7.835
58455SOL     OW77203   7.681   4.953   5.875
58455SOL    HW177204   7.695   4.932   5.968
58455SOL    HW277205   7.752   4.906   5.830
58456SOL     OW77206   3.315  14.837   3.318
58456SOL    HW177207   3.358  14.841   3.233
58456SOL    HW277208   3.376   0.007   3.378
58457SOL     OW77209   6.697   3.435   8.285
58457SOL    HW177210   6.747   3.402   8.210
58457SOL    HW277211   6.643   3.361   8.312
58458SOL     OW77212  13.026   0.971   2.638
58458SOL    HW177213  13.053   0.887   2.674
58458SOL    HW277214  13.007   1.025   2.714
58459SOL     OW77215   2.141  14.525   2.386
58459SOL    HW177216   2.125  14.431   2.394
58459SOL    HW277217   2.201  14.545   2.459
58460SOL     OW77218   0.702  11.987  12.328
58460SOL    HW177219   0.734  11.931  12.400
58460SOL    HW277220   0.620  12.023  12.360
58461SOL     OW77221   1.169   1.722   5.582
58461SOL    HW177222   1.079   1.700   5.608
58461SOL    HW277223   1.206   1.639   5.552
58462SOL     OW77224  13.635  11.929   0.918
58462SOL    HW177225  13.550  11.914   0.877
58462SOL    HW277226  13.697  11.886   0.860
58463SOL     OW77227   0.564   6.938  13.453
58463SOL    HW177228   0.652   6.959  13.424
58463SOL    HW277229   0.507   6.998  13.405
58464SOL     OW77230   9.817  11.084  10.769
58464SOL    HW177231   9.762  11.110  10.842
58464SOL    HW277232   9.906  11.107  10.796
58465SOL     OW77233   1.006   9.994  13.606
58465SOL    HW177234   0.946   9.919  13.609
58465SOL    HW277235   0.953  10.069  13.633
58466SOL     OW77236   2.087   1.707   4.496
58466SOL    HW177237   2.065   1.645   4.566
58466SOL    HW277238   2.152   1.660   4.443
58467SOL     OW77239   4.952   5.531   3.450
58467SOL    HW177240   4.865   5.492   3.441
58467SOL    HW277241   4.944   5.591   3.525
58468SOL     OW77242  13.137   4.022   6.007
58468SOL    HW177243  13.223   4.039   6.046
58468SOL    HW277244  13.154   3.954   5.941
58469SOL     OW77245   9.258   7.563   9.163
58469SOL    HW177246   9.281   7.577   9.071
58469SOL    HW277247   9.296   7.638   9.209
58470SOL     OW77248   4.379   3.254   1.233
58470SOL    HW177249   4.404   3.281   1.145
58470SOL    HW277250   4.451   3.283   1.289
58471SOL     OW77251   2.753  13.458   9.920
58471SOL    HW177252   2.734  13.550   9.936
58471SOL    HW277253   2.848  13.450   9.926
58472SOL     OW77254   2.264   0.994  10.023
58472SOL    HW177255   2.254   1.073   9.970
58472SOL    HW277256   2.262   0.922   9.960
58473SOL     OW77257   1.235  12.238   3.864
58473SOL    HW177258   1.221  12.219   3.772
58473SOL    HW277259   1.281  12.323   3.865
58474SOL     OW77260   8.613   1.853  13.833
58474SOL    HW177261   8.631   1.778  13.776
58474SOL    HW277262   8.520   1.870  13.822
58475SOL     OW77263  12.181   6.161  10.361
58475SOL    HW177264  12.161   6.074  10.396
58475SOL    HW277265  12.095   6.203  10.351
58476SOL     OW77266  12.060   8.585   9.577
58476SOL    HW177267  12.022   8.561   9.662
58476SOL    HW277268  12.031   8.516   9.517
58477SOL     OW77269  14.469   4.694  10.552
58477SOL    HW177270  14.554   4.687  10.596
58477SOL    HW277271  14.490   4.685  10.459
58478SOL     OW77272   1.177  11.444   8.913
58478SOL    HW177273   1.219  11.530   8.909
58478SOL    HW277274   1.095  11.459   8.960
58479SOL     OW77275   5.799   5.808  13.682
58479SOL    HW177276   5.873   5.835  13.736
58479SOL    HW277277   5.799   5.713  13.687
58480SOL     OW77278   9.786   1.080   1.214
58480SOL    HW177279   9.861   1.055   1.269
58480SOL    HW277280   9.716   1.098   1.277
58481SOL     OW77281  14.605   0.248   3.344
58481SOL    HW177282  14.582   0.309   3.415
58481SOL    HW277283  14.657   0.180   3.387
58482SOL     OW77284   5.542   5.099  11.759
58482SOL    HW177285   5.518   5.156  11.686
58482SOL    HW277286   5.600   5.153  11.813
58483SOL     OW77287   8.693  10.811   1.680
58483SOL    HW177288   8.665  10.735   1.630
58483SOL    HW277289   8.645  10.805   1.762
58484SOL     OW77290   0.802   9.214   1.287
58484SOL    HW177291   0.780   9.228   1.379
58484SOL    HW277292   0.877   9.154   1.289
58485SOL     OW77293   3.596   2.027  10.628
58485SOL    HW177294   3.664   1.992  10.569
58485SOL    HW277295   3.518   2.035  10.573
58486SOL     OW77296   9.975  13.869  13.990
58486SOL    HW177297   9.889  13.839  13.959
58486SOL    HW277298   9.979  13.841  14.081
58487SOL     OW77299   2.111  11.647   9.013
58487SOL    HW177300   2.048  11.593   8.965
58487SOL    HW277301   2.168  11.585   9.058
58488SOL     OW77302   2.070   5.799   6.146
58488SOL    HW177303   2.014   5.742   6.094
58488SOL    HW277304   2.137   5.741   6.182
58489SOL     OW77305  12.767   5.411  10.575
58489SOL    HW177306  12.727   5.477  10.519
58489SOL    HW277307  12.860   5.414  10.554
58490SOL     OW77308  12.252   9.482  10.735
58490SOL    HW177309  12.282   9.392  10.724
58490SOL    HW277310  12.322   9.536  10.696
58491SOL     OW77311   3.348   4.812   8.785
58491SOL    HW177312   3.266   4.857   8.804
58491SOL    HW277313   3.384   4.792   8.872
58492SOL     OW77314   9.237  11.872   1.144
58492SOL    HW177315   9.309  11.903   1.198
58492SOL    HW277316   9.262  11.783   1.119
58493SOL     OW77317   4.747  10.087   0.396
58493SOL    HW177318   4.772  10.168   0.440
58493SOL    HW277319   4.805  10.083   0.320
58494SOL     OW77320  12.759  10.948  11.772
58494SOL    HW177321  12.835  10.953  11.715
58494SOL    HW277322  12.691  10.907  11.719
58495SOL     OW77323  10.958  14.046  12.468
58495SOL    HW177324  10.917  14.050  12.381
58495SOL    HW277325  11.048  14.076  12.454
58496SOL     OW77326   7.574   0.828  14.598
58496SOL    HW177327   7.651   0.773  14.581
58496SOL    HW277328   7.570   0.888  14.523
58497SOL     OW77329   1.076  13.958   0.867
58497SOL    HW177330   1.060  13.937   0.775
58497SOL    HW277331   1.144  14.025   0.864
58498SOL     OW77332  14.030   8.216   1.527
58498SOL    HW177333  14.020   8.223   1.432
58498SOL    HW277334  13.957   8.161   1.554
58499SOL     OW77335   4.945  11.100   4.144
58499SOL    HW177336   4.930  11.189   4.112
58499SOL    HW277337   4.946  11.046   4.065
58500SOL     OW77338  12.650  13.164   8.254
58500SOL    HW177339  12.568  13.115   8.263
58500SOL    HW277340  12.717  13.105   8.289
58501SOL     OW77341   1.874  13.735   3.444
58501SOL    HW177342   1.809  13.737   3.515
58501SOL    HW277343   1.958  13.720   3.489
58502SOL     OW77344   4.046   7.963  12.549
58502SOL    HW177345   4.134   7.939  12.577
58502SOL    HW277346   3.989   7.894  12.584
58503SOL     OW77347   4.184   4.121  10.718
58503SOL    HW177348   4.206   4.212  10.701
58503SOL    HW277349   4.098   4.110  10.678
58504SOL     OW77350   6.149   9.604  14.462
58504SOL    HW177351   6.190   9.670  14.518
58504SOL    HW277352   6.169   9.632  14.372
58505SOL     OW77353  13.245   1.907   2.753
58505SOL    HW177354  13.156   1.910   2.719
58505SOL    HW277355  13.258   1.816   2.779
58506SOL     OW77356   0.232   2.477   8.484
58506SOL    HW177357   0.180   2.427   8.422
58506SOL    HW277358   0.185   2.470   8.567
58507SOL     OW77359   4.588   5.755  10.279
58507SOL    HW177360   4.562   5.724  10.192
58507SOL    HW277361   4.582   5.850  10.274
58508SOL     OW77362   3.506  13.529   0.901
58508SOL    HW177363   3.491  13.452   0.956
58508SOL    HW277364   3.485  13.603   0.958
58509SOL     OW77365   5.336  13.738  10.137
58509SOL    HW177366   5.391  13.816  10.145
58509SOL    HW277367   5.271  13.748  10.206
58510SOL     OW77368   4.839   8.042  11.079
58510SOL    HW177369   4.928   8.022  11.108
58510SOL    HW277370   4.843   8.036  10.984
58511SOL     OW77371   1.965   3.719  11.855
58511SOL    HW177372   1.962   3.722  11.759
58511SOL    HW277373   1.945   3.629  11.877
58512SOL     OW77374   7.255   8.734   2.922
58512SOL    HW177375   7.190   8.668   2.899
58512SOL    HW277376   7.242   8.804   2.857
58513SOL     OW77377  14.490   2.329   6.554
58513SOL    HW177378  14.581   2.302   6.540
58513SOL    HW277379  14.492   2.377   6.637
58514SOL     OW77380   4.775   6.231   4.310
58514SOL    HW177381   4.837   6.287   4.263
58514SOL    HW277382   4.831   6.174   4.363
58515SOL     OW77383  10.859   8.228   8.501
58515SOL    HW177384  10.859   8.232   8.405
58515SOL    HW277385  10.880   8.137   8.522
58516SOL     OW77386   2.517   0.693   9.944
58516SOL    HW177387   2.529   0.714  10.037
58516SOL    HW277388   2.596   0.646   9.919
58517SOL     OW77389   6.781   9.424  13.794
58517SOL    HW177390   6.720   9.378  13.851
58517SOL    HW277391   6.852   9.362  13.779
58518SOL     OW77392   8.168   8.987  12.097
58518SOL    HW177393   8.261   8.968  12.107
58518SOL    HW277394   8.160   9.080  12.118
58519SOL     OW77395  14.584   2.474   5.569
58519SOL    HW177396  14.492   2.468   5.543
58519SOL    HW277397  14.611   2.562   5.541
58520SOL     OW77398   8.255   8.665   8.443
58520SOL    HW177399   8.220   8.592   8.391
58520SOL    HW277400   8.316   8.709   8.384
58521SOL     OW77401   9.522   3.837  13.584
58521SOL    HW177402   9.479   3.917  13.553
58521SOL    HW277403   9.453   3.790  13.631
58522SOL     OW77404  11.824   0.796   0.711
58522SOL    HW177405  11.843   0.797   0.617
58522SOL    HW277406  11.848   0.884   0.741
58523SOL     OW77407   7.511   5.175  12.338
58523SOL    HW177408   7.572   5.240  12.371
58523SOL    HW277409   7.537   5.093  12.380
58524SOL     OW77410   9.171   8.370  11.499
58524SOL    HW177411   9.252   8.335  11.461
58524SOL    HW277412   9.134   8.423  11.429
58525SOL     OW77413  13.574  12.740  13.869
58525SOL    HW177414  13.659  12.781  13.888
58525SOL    HW277415  13.523  12.754  13.948
58526SOL     OW77416   9.740   8.265   8.497
58526SOL    HW177417   9.732   8.173   8.521
58526SOL    HW277418   9.824   8.292   8.532
58527SOL     OW77419   6.354   1.473  10.384
58527SOL    HW177420   6.393   1.560  10.372
58527SOL    HW277421   6.361   1.456  10.478
58528SOL     OW77422  11.143  10.483  12.665
58528SOL    HW177423  11.199  10.459  12.591
58528SOL    HW277424  11.160  10.415  12.730
58529SOL     OW77425  11.674  14.250  12.687
58529SOL    HW177426  11.708  14.167  12.653
58529SOL    HW277427  11.648  14.231  12.777
58530SOL     OW77428  11.018   2.673   6.703
58530SOL    HW177429  10.940   2.632   6.740
58530SOL    HW277430  11.019   2.644   6.612
58531SOL     OW77431  10.089   1.905  10.026
58531SOL    HW177432  10.048   1.991  10.014
58531SOL    HW277433  10.089   1.867   9.939
58532SOL     OW77434  14.873   8.796   0.647
58532SOL    HW177435  14.852   8.858   0.577
58532SOL    HW277436  14.817   8.720   0.629
58533SOL     OW77437   2.333  14.252   7.403
58533SOL    HW177438   2.308  14.329   7.352
58533SOL    HW277439   2.317  14.178   7.344
58534SOL     OW77440  13.547  14.590   0.628
58534SOL    HW177441  13.519  14.611   0.717
58534SOL    HW277442  13.630  14.543   0.640
58535SOL     OW77443   8.191  10.217   3.536
58535SOL    HW177444   8.145  10.168   3.467
58535SOL    HW277445   8.169  10.170   3.617
58536SOL     OW77446   8.602   4.650  10.065
58536SOL    HW177447   8.556   4.729  10.094
58536SOL    HW277448   8.589   4.588  10.136
58537SOL     OW77449   6.372  12.448  14.492
58537SOL    HW177450   6.433  12.383  14.458
58537SOL    HW277451   6.338  12.409  14.572
58538SOL     OW77452   4.895  13.984   6.017
58538SOL    HW177453   4.966  13.945   5.966
58538SOL    HW277454   4.845  13.909   6.050
58539SOL     OW77455   0.037   8.986   5.689
58539SOL    HW177456   0.123   8.996   5.648
58539SOL    HW277457  14.856   8.947   5.621
58540SOL     OW77458   6.924   2.140  14.747
58540SOL    HW177459   6.994   2.090  14.705
58540SOL    HW277460   6.844   2.096  14.719
58541SOL     OW77461   8.403   7.553   0.054
58541SOL    HW177462   8.472   7.486   0.046
58541SOL    HW277463   8.322   7.506   0.033
58542SOL     OW77464  10.093  13.194   4.438
58542SOL    HW177465  10.104  13.288   4.455
58542SOL    HW277466  10.000  13.184   4.420
58543SOL     OW77467  13.271  11.625   5.197
58543SOL    HW177468  13.270  11.530   5.192
58543SOL    HW277469  13.295  11.644   5.287
58544SOL     OW77470   8.746  12.298  12.910
58544SOL    HW177471   8.757  12.215  12.957
58544SOL    HW277472   8.727  12.362  12.978
58545SOL     OW77473   5.237   3.144  12.373
58545SOL    HW177474   5.268   3.234  12.370
58545SOL    HW277475   5.300   3.098  12.428
58546SOL     OW77476  11.722   2.568   9.607
58546SOL    HW177477  11.711   2.500   9.540
58546SOL    HW277478  11.800   2.616   9.579
58547SOL     OW77479   0.650   1.680   0.777
58547SOL    HW177480   0.689   1.598   0.805
58547SOL    HW277481   0.715   1.747   0.799
58548SOL     OW77482  10.988   9.797  14.460
58548SOL    HW177483  10.985   9.703  14.481
58548SOL    HW277484  11.077   9.811  14.427
58549SOL     OW77485   1.892   8.299   2.448
58549SOL    HW177486   1.884   8.220   2.501
58549SOL    HW277487   1.816   8.352   2.472
58550SOL     OW77488   5.346   8.745   8.400
58550SOL    HW177489   5.304   8.760   8.484
58550SOL    HW277490   5.382   8.830   8.375
58551SOL     OW77491  12.786  14.170  13.633
58551SOL    HW177492  12.865  14.154  13.684
58551SOL    HW277493  12.721  14.199  13.697
58552SOL     OW77494   2.387   5.920  12.242
58552SOL    HW177495   2.400   5.956  12.154
58552SOL    HW277496   2.298   5.885  12.241
58553SOL     OW77497   4.830   9.515   4.684
58553SOL    HW177498   4.887   9.441   4.664
58553SOL    HW277499   4.801   9.500   4.774
58554SOL     OW77500   0.645  12.766  13.139
58554SOL    HW177501   0.715  12.732  13.194
58554SOL    HW277502   0.577  12.793  13.201
58555SOL     OW77503   1.068   1.015  14.103
58555SOL    HW177504   1.141   1.071  14.079
58555SOL    HW277505   1.101   0.926  14.088
58556SOL     OW77506   4.626  12.894   7.385
58556SOL    HW177507   4.663  12.958   7.324
58556SOL    HW277508   4.697  12.875   7.446
58557SOL     OW77509   2.049   9.208   1.545
58557SOL    HW177510   2.016   9.143   1.483
58557SOL    HW277511   1.974   9.265   1.561
58558SOL     OW77512  13.822   4.211   4.793
58558SOL    HW177513  13.884   4.284   4.785
58558SOL    HW277514  13.820   4.172   4.706
58559SOL     OW77515  12.286   5.111   0.689
58559SOL    HW177516  12.247   5.027   0.713
58559SOL    HW277517  12.344   5.091   0.616
58560SOL     OW77518   9.007  10.173   8.175
58560SOL    HW177519   8.916  10.151   8.156
58560SOL    HW277520   9.056  10.137   8.102
58561SOL     OW77521  13.842   6.565   2.740
58561SOL    HW177522  13.854   6.596   2.650
58561SOL    HW277523  13.846   6.470   2.733
58562SOL     OW77524  14.512   6.282   4.168
58562SOL    HW177525  14.488   6.292   4.076
58562SOL    HW277526  14.452   6.216   4.201
58563SOL     OW77527   8.348   2.123  13.915
58563SOL    HW177528   8.295   2.090  13.988
58563SOL    HW277529   8.371   2.044  13.865
58564SOL     OW77530   7.699  10.616  10.225
58564SOL    HW177531   7.716  10.672  10.300
58564SOL    HW277532   7.620  10.652  10.185
58565SOL     OW77533   1.607   4.694  12.234
58565SOL    HW177534   1.604   4.774  12.287
58565SOL    HW277535   1.571   4.626  12.290
58566SOL     OW77536  11.518   9.254   7.432
58566SOL    HW177537  11.437   9.223   7.393
58566SOL    HW277538  11.551   9.179   7.482
58567SOL     OW77539   5.376   5.056  13.357
58567SOL    HW177540   5.329   4.972  13.357
58567SOL    HW277541   5.363   5.090  13.446
58568SOL     OW77542  14.547   9.331   9.752
58568SOL    HW177543  14.455   9.311   9.732
58568SOL    HW277544  14.551   9.426   9.752
58569SOL     OW77545   1.196   6.946   0.337
58569SOL    HW177546   1.181   7.040   0.333
58569SOL    HW277547   1.231   6.931   0.425
58570SOL     OW77548  12.833   7.983  13.560
58570SOL    HW177549  12.745   7.981  13.523
58570SOL    HW277550  12.821   7.954  13.651
58571SOL     OW77551   2.218   4.185   3.491
58571SOL    HW177552   2.235   4.095   3.519
58571SOL    HW277553   2.305   4.218   3.465
58572SOL     OW77554   3.114   5.858   1.871
58572SOL    HW177555   3.117   5.767   1.839
58572SOL    HW277556   3.205   5.884   1.878
58573SOL     OW77557   1.937   2.581   0.646
58573SOL    HW177558   1.921   2.581   0.552
58573SOL    HW277559   1.991   2.503   0.661
58574SOL     OW77560  13.033  13.458   0.928
58574SOL    HW177561  12.968  13.497   0.870
58574SOL    HW277562  12.983  13.430   1.005
58575SOL     OW77563   6.482   8.580  12.027
58575SOL    HW177564   6.458   8.488  12.013
58575SOL    HW277565   6.521   8.608  11.944
58576SOL     OW77566   7.089  11.290   5.635
58576SOL    HW177567   7.050  11.300   5.722
58576SOL    HW277568   7.053  11.208   5.601
58577SOL     OW77569   7.973   4.425  12.114
58577SOL    HW177570   7.902   4.423  12.178
58577SOL    HW277571   7.943   4.368  12.043
58578SOL     OW77572   2.574   7.523   7.683
58578SOL    HW177573   2.511   7.513   7.612
58578SOL    HW277574   2.591   7.617   7.687
58579SOL     OW77575   7.804  13.100   3.419
58579SOL    HW177576   7.873  13.137   3.475
58579SOL    HW277577   7.735  13.167   3.419
58580SOL     OW77578  11.267   6.598   9.545
58580SOL    HW177579  11.352   6.637   9.524
58580SOL    HW277580  11.210   6.673   9.564
58581SOL     OW77581  11.205   7.054   6.277
58581SOL    HW177582  11.199   7.100   6.193
58581SOL    HW277583  11.244   7.119   6.337
58582SOL     OW77584  13.494  11.050   6.922
58582SOL    HW177585  13.558  11.107   6.964
58582SOL    HW277586  13.546  10.995   6.864
58583SOL     OW77587  10.424   0.428   8.049
58583SOL    HW177588  10.446   0.379   8.128
58583SOL    HW277589  10.332   0.409   8.034
58584SOL     OW77590   9.768  11.603   9.561
58584SOL    HW177591   9.794  11.694   9.574
58584SOL    HW277592   9.815  11.577   9.482
58585SOL     OW77593  10.294  12.955   2.994
58585SOL    HW177594  10.240  12.941   2.916
58585SOL    HW277595  10.263  12.889   3.056
58586SOL     OW77596   0.416  11.553   8.934
58586SOL    HW177597   0.456  11.539   8.848
58586SOL    HW277598   0.327  11.519   8.926
58587SOL     OW77599  11.258   7.548  12.215
58587SOL    HW177600  11.211   7.495  12.151
58587SOL    HW277601  11.200   7.621  12.234
58588SOL     OW77602   5.869   2.607   5.266
58588SOL    HW177603   5.868   2.545   5.193
58588SOL    HW277604   5.866   2.552   5.344
58589SOL     OW77605   4.061   8.717   0.484
58589SOL    HW177606   4.035   8.713   0.392
58589SOL    HW277607   4.156   8.729   0.482
58590SOL     OW77608   0.810  13.028   7.529
58590SOL    HW177609   0.770  12.997   7.610
58590SOL    HW277610   0.740  13.023   7.464
58591SOL     OW77611   8.568   8.704  11.173
58591SOL    HW177612   8.609   8.785  11.203
58591SOL    HW277613   8.534   8.724  11.086
58592SOL     OW77614   5.105  13.757   0.748
58592SOL    HW177615   5.174  13.739   0.684
58592SOL    HW277616   5.147  13.809   0.816
58593SOL     OW77617   9.906   0.963  10.308
58593SOL    HW177618   9.874   1.051  10.289
58593SOL    HW277619   9.954   0.972  10.390
58594SOL     OW77620  13.596   0.038   5.790
58594SOL    HW177621  13.532   0.109   5.793
58594SOL    HW277622  13.681   0.082   5.791
58595SOL     OW77623   9.946   5.541   3.027
58595SOL    HW177624  10.002   5.605   2.983
58595SOL    HW277625   9.943   5.466   2.968
58596SOL     OW77626   7.945   2.636   5.139
58596SOL    HW177627   7.909   2.715   5.179
58596SOL    HW277628   7.993   2.594   5.210
58597SOL     OW77629   4.267  11.520  14.127
58597SOL    HW177630   4.334  11.580  14.095
58597SOL    HW277631   4.211  11.575  14.183
58598SOL     OW77632  12.761   0.344   1.823
58598SOL    HW177633  12.851   0.373   1.841
58598SOL    HW277634  12.729   0.405   1.757
58599SOL     OW77635   9.652  12.567  11.547
58599SOL    HW177636   9.641  12.535  11.457
58599SOL    HW277637   9.581  12.631  11.558
58600SOL     OW77638  11.464  13.029   0.068
58600SOL    HW177639  11.459  12.936   0.089
58600SOL    HW277640  11.538  13.061   0.119
58601SOL     OW77641   9.970  14.578  13.173
58601SOL    HW177642   9.954  14.553  13.263
58601SOL    HW277643   9.989  14.496  13.128
58602SOL     OW77644   1.214  11.570  12.462
58602SOL    HW177645   1.280  11.621  12.415
58602SOL    HW277646   1.147  11.634  12.486
58603SOL     OW77647   3.907   2.597   2.955
58603SOL    HW177648   3.839   2.661   2.975
58603SOL    HW277649   3.885   2.521   3.009
58604SOL     OW77650  14.567  14.733   9.476
58604SOL    HW177651  14.623  14.684   9.416
58604SOL    HW277652  14.608  14.819   9.482
58605SOL     OW77653   4.685  14.556  12.974
58605SOL    HW177654   4.740  14.480  12.994
58605SOL    HW277655   4.596  14.523  12.980
58606SOL     OW77656   1.107   2.999   7.058
58606SOL    HW177657   1.040   2.979   7.123
58606SOL    HW277658   1.100   3.093   7.044
58607SOL     OW77659   3.641   4.161   2.254
58607SOL    HW177660   3.572   4.205   2.304
58607SOL    HW277661   3.692   4.115   2.321
58608SOL     OW77662  12.853  11.565   8.873
58608SOL    HW177663  12.927  11.582   8.815
58608SOL    HW277664  12.776  11.586   8.821
58609SOL     OW77665   2.863  11.047   3.725
58609SOL    HW177666   2.880  11.006   3.810
58609SOL    HW277667   2.950  11.061   3.687
58610SOL     OW77668   4.307   9.122   6.457
58610SOL    HW177669   4.322   9.170   6.376
58610SOL    HW277670   4.223   9.079   6.444
58611SOL     OW77671   1.501  11.846   3.038
58611SOL    HW177672   1.523  11.778   2.975
58611SOL    HW277673   1.454  11.912   2.988
58612SOL     OW77674   6.631  11.066   9.357
58612SOL    HW177675   6.686  11.107   9.291
58612SOL    HW277676   6.544  11.103   9.341
58613SOL     OW77677   8.146   6.855  14.577
58613SOL    HW177678   8.175   6.875  14.487
58613SOL    HW277679   8.179   6.767  14.593
58614SOL     OW77680   0.597   6.611   9.812
58614SOL    HW177681   0.668   6.547   9.822
58614SOL    HW277682   0.624   6.665   9.737
58615SOL     OW77683   5.702   3.181   1.609
58615SOL    HW177684   5.760   3.129   1.664
58615SOL    HW277685   5.754   3.257   1.583
58616SOL     OW77686  11.352   1.610  14.067
58616SOL    HW177687  11.348   1.704  14.048
58616SOL    HW277688  11.420   1.577  14.008
58617SOL     OW77689   4.954  12.203  10.159
58617SOL    HW177690   4.983  12.208  10.250
58617SOL    HW277691   5.002  12.128  10.123
58618SOL     OW77692  13.694   9.209   7.893
58618SOL    HW177693  13.756   9.158   7.841
58618SOL    HW277694  13.708   9.300   7.867
58619SOL     OW77695   7.240   2.656   6.265
58619SOL    HW177696   7.217   2.728   6.323
58619SOL    HW277697   7.273   2.587   6.323
58620SOL     OW77698   3.407   1.580  11.657
58620SOL    HW177699   3.363   1.641  11.598
58620SOL    HW277700   3.346   1.507  11.666
58621SOL     OW77701   2.820  14.783   1.537
58621SOL    HW177702   2.783  14.704   1.497
58621SOL    HW277703   2.791  14.780   1.628
58622SOL     OW77704   3.369   7.591   5.006
58622SOL    HW177705   3.280   7.603   5.039
58622SOL    HW277706   3.361   7.524   4.939
58623SOL     OW77707  12.019  11.120  12.800
58623SOL    HW177708  12.004  11.035  12.759
58623SOL    HW277709  12.051  11.100  12.887
58624SOL     OW77710   4.090   3.090  14.185
58624SOL    HW177711   4.155   3.121  14.248
58624SOL    HW277712   4.102   3.148  14.109
58625SOL     OW77713   3.238   5.993  14.697
58625SOL    HW177714   3.220   6.076  14.653
58625SOL    HW277715   3.333   5.992  14.708
58626SOL     OW77716   0.035  13.530   9.422
58626SOL    HW177717   0.096  13.511   9.350
58626SOL    HW277718  14.869  13.613   9.398
58627SOL     OW77719  10.247   9.903   6.047
58627SOL    HW177720  10.254   9.925   5.954
58627SOL    HW277721  10.162   9.936   6.074
58628SOL     OW77722   5.265   4.461   1.510
58628SOL    HW177723   5.233   4.548   1.536
58628SOL    HW277724   5.307   4.427   1.589
58629SOL     OW77725   6.463  10.097   5.964
58629SOL    HW177726   6.509  10.181   5.967
58629SOL    HW277727   6.401  10.106   5.892
58630SOL     OW77728   6.704  14.558   3.233
58630SOL    HW177729   6.795  14.565   3.262
58630SOL    HW277730   6.703  14.599   3.147
58631SOL     OW77731  12.161   0.880  12.095
58631SOL    HW177732  12.204   0.965  12.099
58631SOL    HW277733  12.216   0.823  12.149
58632SOL     OW77734   3.265  14.411   0.804
58632SOL    HW177735   3.291  14.333   0.853
58632SOL    HW277736   3.347  14.444   0.767
58633SOL     OW77737   1.653   4.737   6.905
58633SOL    HW177738   1.584   4.690   6.953
58633SOL    HW277739   1.656   4.694   6.819
58634SOL     OW77740   0.644   6.595   3.758
58634SOL    HW177741   0.573   6.658   3.770
58634SOL    HW277742   0.608   6.529   3.698
58635SOL     OW77743   4.511   0.402   9.041
58635SOL    HW177744   4.506   0.478   8.983
58635SOL    HW277745   4.601   0.370   9.032
58636SOL     OW77746  13.205   9.635   1.599
58636SOL    HW177747  13.270   9.565   1.600
58636SOL    HW277748  13.210   9.673   1.687
58637SOL     OW77749  12.491  12.804   6.319
58637SOL    HW177750  12.414  12.850   6.351
58637SOL    HW277751  12.542  12.872   6.274
58638SOL     OW77752  12.047   2.712   0.461
58638SOL    HW177753  12.065   2.806   0.466
58638SOL    HW277754  11.967   2.700   0.512
58639SOL     OW77755  10.865   5.048   6.031
58639SOL    HW177756  10.860   4.974   5.971
58639SOL    HW277757  10.836   5.123   5.979
58640SOL     OW77758   8.053   3.059   4.906
58640SOL    HW177759   7.966   3.054   4.946
58640SOL    HW277760   8.095   2.977   4.930
58641SOL     OW77761   6.385   6.012  10.149
58641SOL    HW177762   6.470   6.051  10.168
58641SOL    HW277763   6.368   5.954  10.223
58642SOL     OW77764  14.611   5.137  12.413
58642SOL    HW177765  14.689   5.113  12.464
58642SOL    HW277766  14.645   5.157  12.326
58643SOL     OW77767   5.163  12.248   6.734
58643SOL    HW177768   5.205  12.312   6.678
58643SOL    HW277769   5.134  12.178   6.675
58644SOL     OW77770   3.199   4.025   7.955
58644SOL    HW177771   3.165   3.966   7.887
58644SOL    HW277772   3.294   4.018   7.946
58645SOL     OW77773  13.019   0.362  13.855
58645SOL    HW177774  13.089   0.355  13.920
58645SOL    HW277775  12.938   0.354  13.905
58646SOL     OW77776  13.899  10.706  14.246
58646SOL    HW177777  13.990  10.730  14.259
58646SOL    HW277778  13.877  10.740  14.159
58647SOL     OW77779   4.038   2.882  12.065
58647SOL    HW177780   4.079   2.812  12.013
58647SOL    HW277781   3.962   2.909  12.013
58648SOL     OW77782   4.077  12.650  10.518
58648SOL    HW177783   4.115  12.738  10.522
58648SOL    HW277784   4.077  12.620  10.609
58649SOL     OW77785   8.674   3.205   3.653
58649SOL    HW177786   8.674   3.135   3.587
58649SOL    HW277787   8.582   3.219   3.674
58650SOL     OW77788  10.447   9.950   1.203
58650SOL    HW177789  10.487   9.996   1.277
58650SOL    HW277790  10.476   9.998   1.126
58651SOL     OW77791   5.052   4.148  13.741
58651SOL    HW177792   5.082   4.063  13.774
58651SOL    HW277793   4.989   4.126  13.672
58652SOL     OW77794  14.535   4.270  13.945
58652SOL    HW177795  14.493   4.295  14.028
58652SOL    HW277796  14.578   4.350  13.915
58653SOL     OW77797   9.683  13.625   3.971
58653SOL    HW177798   9.687  13.676   4.053
58653SOL    HW277799   9.592  13.595   3.966
58654SOL     OW77800   1.622   5.012   3.564
58654SOL    HW177801   1.712   4.994   3.591
58654SOL    HW277802   1.627   5.021   3.469
58655SOL     OW77803   4.310   5.619   6.222
58655SOL    HW177804   4.221   5.587   6.239
58655SOL    HW277805   4.316   5.700   6.273
58656SOL     OW77806   1.723   7.807   5.034
58656SOL    HW177807   1.747   7.717   5.011
58656SOL    HW277808   1.734   7.856   4.953
58657SOL     OW77809  13.686   5.978  11.227
58657SOL    HW177810  13.633   6.013  11.298
58657SOL    HW277811  13.776   5.982  11.259
58658SOL     OW77812   1.035   3.607   7.226
58658SOL    HW177813   1.080   3.561   7.296
58658SOL    HW277814   0.942   3.598   7.247
58659SOL     OW77815   6.841   7.269   2.325
58659SOL    HW177816   6.840   7.190   2.379
58659SOL    HW277817   6.918   7.260   2.270
58660SOL     OW77818   8.974   4.469   7.117
58660SOL    HW177819   8.923   4.503   7.190
58660SOL    HW277820   8.947   4.377   7.110
58661SOL     OW77821  13.895   5.660   1.583
58661SOL    HW177822  13.890   5.616   1.668
58661SOL    HW277823  13.807   5.695   1.569
58662SOL     OW77824   2.565  10.651  14.145
58662SOL    HW177825   2.620  10.729  14.149
58662SOL    HW277826   2.522  10.656  14.060
58663SOL     OW77827   3.216   9.251  13.316
58663SOL    HW177828   3.208   9.334  13.269
58663SOL    HW277829   3.132   9.206  13.300
58664SOL     OW77830   0.773  12.189  12.125
58664SOL    HW177831   0.721  12.122  12.169
58664SOL    HW277832   0.710  12.258  12.104
58665SOL     OW77833   9.410  13.341   4.358
58665SOL    HW177834   9.448  13.376   4.277
58665SOL    HW277835   9.408  13.415   4.418
58666SOL     OW77836  13.084   2.882   9.494
58666SOL    HW177837  13.132   2.802   9.518
58666SOL    HW277838  13.027   2.898   9.568
58667SOL     OW77839   3.726   8.238  13.270
58667SOL    HW177840   3.637   8.259  13.298
58667SOL    HW277841   3.760   8.320  13.235
58668SOL     OW77842  13.218  14.152   5.704
58668SOL    HW177843  13.132  14.138   5.745
58668SOL    HW277844  13.280  14.109   5.764
58669SOL     OW77845   2.717  14.093  12.851
58669SOL    HW177846   2.683  14.152  12.784
58669SOL    HW277847   2.788  14.046  12.808
58670SOL     OW77848  12.548  13.427  13.626
58670SOL    HW177849  12.489  13.360  13.590
58670SOL    HW277850  12.619  13.433  13.561
58671SOL     OW77851   8.294  13.502  12.020
58671SOL    HW177852   8.347  13.422  12.023
58671SOL    HW277853   8.355  13.571  12.047
58672SOL     OW77854   3.258   1.604   6.538
58672SOL    HW177855   3.346   1.608   6.501
58672SOL    HW277856   3.214   1.683   6.507
58673SOL     OW77857   9.285   2.520  10.941
58673SOL    HW177858   9.289   2.510  10.846
58673SOL    HW277859   9.196   2.551  10.958
58674SOL     OW77860   6.100  11.379  10.881
58674SOL    HW177861   6.163  11.360  10.951
58674SOL    HW277862   6.069  11.293  10.853
58675SOL     OW77863   9.986  13.596   2.745
58675SOL    HW177864  10.078  13.610   2.768
58675SOL    HW277865   9.938  13.649   2.808
58676SOL     OW77866  11.927   4.007   9.354
58676SOL    HW177867  12.021   4.001   9.368
58676SOL    HW277868  11.909   4.101   9.355
58677SOL     OW77869  14.690   9.724   8.092
58677SOL    HW177870  14.756   9.660   8.066
58677SOL    HW277871  14.725   9.808   8.061
58678SOL     OW77872  12.910   0.020   2.956
58678SOL    HW177873  12.919  14.810   2.910
58678SOL    HW277874  12.821   0.018   2.991
58679SOL     OW77875  11.126   7.929  12.819
58679SOL    HW177876  11.186   7.855  12.808
58679SOL    HW277877  11.084   7.914  12.904
58680SOL     OW77878   6.528   1.758   9.999
58680SOL    HW177879   6.464   1.762   9.927
58680SOL    HW277880   6.539   1.664  10.015
58681SOL     OW77881  10.198   4.397   3.138
58681SOL    HW177882  10.137   4.451   3.189
58681SOL    HW277883  10.203   4.441   3.053
58682SOL     OW77884   1.488  14.565   4.977
58682SOL    HW177885   1.535  14.496   4.931
58682SOL    HW277886   1.542  14.585   5.053
58683SOL     OW77887   8.508   1.929   8.825
58683SOL    HW177888   8.506   1.971   8.911
58683SOL    HW277889   8.430   1.963   8.780
58684SOL     OW77890   0.781   3.321  12.914
58684SOL    HW177891   0.692   3.286  12.914
58684SOL    HW277892   0.835   3.248  12.883
58685SOL     OW77893   5.173   4.207   7.345
58685SOL    HW177894   5.168   4.271   7.416
58685SOL    HW277895   5.266   4.202   7.323
58686SOL     OW77896   0.387   3.883   2.412
58686SOL    HW177897   0.445   3.903   2.485
58686SOL    HW277898   0.321   3.824   2.450
58687SOL     OW77899   1.776   6.654  13.647
58687SOL    HW177900   1.730   6.591  13.702
58687SOL    HW277901   1.865   6.657  13.684
58688SOL     OW77902   3.883   9.734   0.868
58688SOL    HW177903   3.927   9.677   0.932
58688SOL    HW277904   3.923   9.710   0.784
58689SOL     OW77905  14.804   8.415  12.600
58689SOL    HW177906  14.777   8.333  12.558
58689SOL    HW277907  14.763   8.412  12.687
58690SOL     OW77908   3.366   4.599  13.386
58690SOL    HW177909   3.387   4.666  13.451
58690SOL    HW277910   3.372   4.645  13.302
58691SOL     OW77911  11.301  10.807   7.442
58691SOL    HW177912  11.358  10.809   7.519
58691SOL    HW277913  11.213  10.794   7.477
58692SOL     OW77914  11.456  12.441   0.237
58692SOL    HW177915  11.489  12.491   0.162
58692SOL    HW277916  11.488  12.489   0.314
58693SOL     OW77917   5.167   1.735  11.842
58693SOL    HW177918   5.071   1.733  11.844
58693SOL    HW277919   5.192   1.644  11.859
58694SOL     OW77920  12.934  14.820  11.583
58694SOL    HW177921  12.861  14.844  11.525
58694SOL    HW277922  12.990  14.764  11.529
58695SOL     OW77923   8.628   3.391   9.591
58695SOL    HW177924   8.701   3.423   9.538
58695SOL    HW277925   8.565   3.358   9.527
58696SOL     OW77926   5.899   0.333   8.022
58696SOL    HW177927   5.909   0.258   8.080
58696SOL    HW277928   5.855   0.399   8.076
58697SOL     OW77929   0.057  13.214   9.263
58697SOL    HW177930  14.848  13.180   9.295
58697SOL    HW277931   0.085  13.152   9.195
58698SOL     OW77932  12.256   2.570  12.857
58698SOL    HW177933  12.333   2.520  12.831
58698SOL    HW277934  12.190   2.547  12.791
58699SOL     OW77935   7.350   7.032   5.538
58699SOL    HW177936   7.262   7.047   5.570
58699SOL    HW277937   7.401   7.107   5.569
58700SOL     OW77938   7.908  10.047  14.763
58700SOL    HW177939   7.837   9.995  14.801
58700SOL    HW277940   7.898  10.034  14.668
58701SOL     OW77941   3.186   1.279  10.327
58701SOL    HW177942   3.220   1.368  10.336
58701SOL    HW277943   3.099   1.283  10.368
58702SOL     OW77944   1.825  10.209   1.485
58702SOL    HW177945   1.889  10.240   1.549
58702SOL    HW277946   1.861  10.126   1.454
58703SOL     OW77947   4.619   2.967   2.587
58703SOL    HW177948   4.553   3.035   2.602
58703SOL    HW277949   4.603   2.903   2.656
58704SOL     OW77950   4.044   0.416   6.917
58704SOL    HW177951   3.974   0.352   6.926
58704SOL    HW277952   4.040   0.444   6.826
58705SOL     OW77953  12.221   4.949   9.822
58705SOL    HW177954  12.302   4.960   9.772
58705SOL    HW277955  12.168   5.025   9.798
58706SOL     OW77956   1.609   2.275   2.487
58706SOL    HW177957   1.576   2.259   2.399
58706SOL    HW277958   1.659   2.197   2.509
58707SOL     OW77959  12.768   6.006  12.212
58707SOL    HW177960  12.840   5.958  12.253
58707SOL    HW277961  12.788   6.004  12.118
58708SOL     OW77962   5.445   1.906   4.021
58708SOL    HW177963   5.428   1.986   4.070
58708SOL    HW277964   5.421   1.927   3.931
58709SOL     OW77965  10.607   7.864  14.440
58709SOL    HW177966  10.512   7.865  14.456
58709SOL    HW277967  10.617   7.906  14.355
58710SOL     OW77968   4.758  11.214   7.678
58710SOL    HW177969   4.742  11.240   7.587
58710SOL    HW277970   4.672  11.193   7.713
58711SOL     OW77971   8.138  14.607   8.402
58711SOL    HW177972   8.152  14.527   8.453
58711SOL    HW277973   8.219  14.657   8.413
58712SOL     OW77974  13.069   6.249   8.554
58712SOL    HW177975  13.144   6.190   8.550
58712SOL    HW277976  13.106   6.333   8.583
58713SOL     OW77977   5.772  14.278  11.951
58713SOL    HW177978   5.727  14.242  12.028
58713SOL    HW277979   5.776  14.372  11.968
58714SOL     OW77980  13.209   2.309   4.419
58714SOL    HW177981  13.172   2.243   4.360
58714SOL    HW277982  13.304   2.301   4.408
58715SOL     OW77983   4.951   9.219   4.934
58715SOL    HW177984   5.006   9.260   5.001
58715SOL    HW277985   4.973   9.126   4.939
58716SOL     OW77986   5.922   2.026  13.540
58716SOL    HW177987   5.912   2.088  13.469
58716SOL    HW277988   6.015   2.030  13.563
58717SOL     OW77989   1.617   5.501   0.777
58717SOL    HW177990   1.614   5.440   0.851
58717SOL    HW277991   1.709   5.526   0.770
58718SOL     OW77992   6.945   8.190   3.150
58718SOL    HW177993   6.954   8.269   3.203
58718SOL    HW277994   6.978   8.119   3.206
58719SOL     OW77995   2.401   5.994  13.501
58719SOL    HW177996   2.484   5.978  13.546
58719SOL    HW277997   2.420   6.066  13.441
58720SOL     OW77998   7.302  14.563  10.629
58720SOL    HW177999   7.301  14.656  10.609
58720SOL    HW278000   7.395  14.540  10.628
58721SOL     OW78001   9.884  10.021  11.476
58721SOL    HW178002   9.818  10.090  11.488
58721SOL    HW278003   9.844   9.943  11.513
58722SOL     OW78004   7.954   7.118   3.707
58722SOL    HW178005   7.859   7.119   3.724
58722SOL    HW278006   7.982   7.208   3.724
58723SOL     OW78007   2.975   9.361   1.852
58723SOL    HW178008   2.980   9.390   1.943
58723SOL    HW278009   3.066   9.363   1.822
58724SOL     OW78010  13.293   6.979  13.169
58724SOL    HW178011  13.280   7.038  13.243
58724SOL    HW278012  13.312   7.037  13.095
58725SOL     OW78013  12.390  14.474   9.716
58725SOL    HW178014  12.325  14.539   9.690
58725SOL    HW278015  12.341  14.392   9.722
58726SOL     OW78016   0.986   2.241   7.958
58726SOL    HW178017   0.938   2.206   7.883
58726SOL    HW278018   0.996   2.334   7.939
58727SOL     OW78019   3.314   3.991   6.504
58727SOL    HW178020   3.239   3.968   6.559
58727SOL    HW278021   3.304   3.937   6.426
58728SOL     OW78022   9.623   6.980   1.276
58728SOL    HW178023   9.655   6.890   1.267
58728SOL    HW278024   9.540   6.982   1.230
58729SOL     OW78025   3.024  12.760   3.898
58729SOL    HW178026   2.977  12.819   3.957
58729SOL    HW278027   3.081  12.818   3.847
58730SOL     OW78028   7.354  13.585  10.592
58730SOL    HW178029   7.434  13.584  10.645
58730SOL    HW278030   7.309  13.503  10.615
58731SOL     OW78031   5.141  12.770   0.658
58731SOL    HW178032   5.051  12.797   0.676
58731SOL    HW278033   5.195  12.840   0.695
58732SOL     OW78034   7.453  12.192   8.833
58732SOL    HW178035   7.363  12.223   8.839
58732SOL    HW278036   7.464  12.135   8.909
58733SOL     OW78037  14.098   1.569   6.633
58733SOL    HW178038  14.082   1.652   6.588
58733SOL    HW278039  14.190   1.574   6.659
58734SOL     OW78040  11.663   2.195  11.638
58734SOL    HW178041  11.747   2.151  11.652
58734SOL    HW278042  11.611   2.175  11.716
58735SOL     OW78043   6.822  10.775  12.088
58735SOL    HW178044   6.770  10.735  12.018
58735SOL    HW278045   6.793  10.866  12.091
58736SOL     OW78046   5.868  13.516   1.337
58736SOL    HW178047   5.877  13.472   1.252
58736SOL    HW278048   5.795  13.577   1.325
58737SOL     OW78049   5.590  12.372   6.775
58737SOL    HW178050   5.547  12.457   6.783
58737SOL    HW278051   5.520  12.311   6.752
58738SOL     OW78052   4.938   7.318   0.605
58738SOL    HW178053   4.996   7.243   0.615
58738SOL    HW278054   4.927   7.352   0.694
58739SOL     OW78055   7.697   1.670   4.619
58739SOL    HW178056   7.651   1.745   4.657
58739SOL    HW278057   7.707   1.609   4.692
58740SOL     OW78058   6.167   2.780   3.090
58740SOL    HW178059   6.096   2.728   3.126
58740SOL    HW278060   6.139   2.802   3.002
58741SOL     OW78061  10.945   2.950   5.638
58741SOL    HW178062  10.890   3.024   5.665
58741SOL    HW278063  10.965   2.905   5.720
58742SOL     OW78064   0.932   1.456  11.175
58742SOL    HW178065   0.901   1.545  11.194
58742SOL    HW278066   0.977   1.429  11.255
58743SOL     OW78067  10.129   6.213   6.795
58743SOL    HW178068  10.115   6.119   6.810
58743SOL    HW278069  10.213   6.218   6.749
58744SOL     OW78070  13.643   0.885   3.058
58744SOL    HW178071  13.617   0.865   2.968
58744SOL    HW278072  13.617   0.807   3.108
58745SOL     OW78073  10.777   0.345  13.366
58745SOL    HW178074  10.825   0.324  13.286
58745SOL    HW278075  10.839   0.394  13.419
58746SOL     OW78076   3.845   9.284   6.308
58746SOL    HW178077   3.770   9.282   6.368
58746SOL    HW278078   3.884   9.370   6.322
58747SOL     OW78079  11.269  11.876   2.333
58747SOL    HW178080  11.229  11.802   2.288
58747SOL    HW278081  11.195  11.930   2.362
58748SOL     OW78082   1.536  11.093   8.296
58748SOL    HW178083   1.481  11.167   8.319
58748SOL    HW278084   1.514  11.026   8.361
58749SOL     OW78085   1.779   1.676   0.992
58749SOL    HW178086   1.773   1.694   1.086
58749SOL    HW278087   1.864   1.634   0.981
58750SOL     OW78088   7.485   4.149  12.301
58750SOL    HW178089   7.494   4.054  12.297
58750SOL    HW278090   7.419   4.170  12.235
58751SOL     OW78091  10.988   9.948   3.394
58751SOL    HW178092  10.922   9.970   3.460
58751SOL    HW278093  11.059   9.907   3.444
58752SOL     OW78094   3.429   8.301   3.244
58752SOL    HW178095   3.483   8.273   3.318
58752SOL    HW278096   3.428   8.225   3.185
58753SOL     OW78097   6.084   9.377  14.023
58753SOL    HW178098   6.117   9.316  14.089
58753SOL    HW278099   6.071   9.323  13.945
58754SOL     OW78100   6.959   0.592   3.657
58754SOL    HW178101   6.872   0.553   3.648
58754SOL    HW278102   6.946   0.665   3.718
58755SOL     OW78103  13.315   3.317   3.372
58755SOL    HW178104  13.383   3.349   3.313
58755SOL    HW278105  13.317   3.378   3.446
58756SOL     OW78106  10.608  13.577  11.895
58756SOL    HW178107  10.638  13.650  11.949
58756SOL    HW278108  10.607  13.613  11.806
58757SOL     OW78109   7.068   1.849   1.248
58757SOL    HW178110   7.156   1.836   1.213
58757SOL    HW278111   7.067   1.940   1.278
58758SOL     OW78112   0.517  12.797   8.958
58758SOL    HW178113   0.578  12.857   8.915
58758SOL    HW278114   0.430  12.831   8.936
58759SOL     OW78115   0.219   5.406  10.970
58759SOL    HW178116   0.297   5.422  11.023
58759SOL    HW278117   0.234   5.319  10.931
58760SOL     OW78118  10.923   9.558  11.832
58760SOL    HW178119  10.945   9.623  11.900
58760SOL    HW278120  10.937   9.604  11.750
58761SOL     OW78121   5.081   2.641   8.955
58761SOL    HW178122   5.096   2.725   8.911
58761SOL    HW278123   5.169   2.608   8.976
58762SOL     OW78124  12.873   2.030  14.753
58762SOL    HW178125  12.923   1.971  14.809
58762SOL    HW278126  12.901   2.118  14.778
58763SOL     OW78127   3.458   5.507  12.479
58763SOL    HW178128   3.493   5.596  12.489
58763SOL    HW278129   3.526   5.460  12.430
58764SOL     OW78130  13.544  13.504   6.123
58764SOL    HW178131  13.546  13.423   6.174
58764SOL    HW278132  13.559  13.574   6.188
58765SOL     OW78133  13.948   6.490   2.120
58765SOL    HW178134  13.859   6.505   2.089
58765SOL    HW278135  14.002   6.546   2.065
58766SOL     OW78136  14.674   7.728   5.086
58766SOL    HW178137  14.746   7.790   5.087
58766SOL    HW278138  14.713   7.645   5.116
58767SOL     OW78139   3.348   9.617  10.261
58767SOL    HW178140   3.404   9.686  10.298
58767SOL    HW278141   3.295   9.587  10.335
58768SOL     OW78142   1.450  11.656   9.784
58768SOL    HW178143   1.456  11.751   9.788
58768SOL    HW278144   1.472  11.627   9.873
58769SOL     OW78145   1.259   7.384   8.033
58769SOL    HW178146   1.327   7.424   7.979
58769SOL    HW278147   1.267   7.429   8.118
58770SOL     OW78148   4.007  13.969  13.452
58770SOL    HW178149   4.097  13.937  13.441
58770SOL    HW278150   3.957  13.891  13.475
58771SOL     OW78151   4.142   3.209   6.044
58771SOL    HW178152   4.074   3.141   6.049
58771SOL    HW278153   4.173   3.218   6.134
58772SOL     OW78154  12.571   2.022   5.531
58772SOL    HW178155  12.597   1.987   5.446
58772SOL    HW278156  12.509   2.092   5.510
58773SOL     OW78157   6.227   2.913   1.835
58773SOL    HW178158   6.280   2.978   1.880
58773SOL    HW278159   6.168   2.880   1.902
58774SOL     OW78160   8.603   8.717  11.958
58774SOL    HW178161   8.572   8.628  11.976
58774SOL    HW278162   8.660   8.738  12.032
58775SOL     OW78163   1.353   0.823   3.589
58775SOL    HW178164   1.417   0.837   3.519
58775SOL    HW278165   1.333   0.911   3.621
58776SOL     OW78166  11.261   9.587  11.396
58776SOL    HW178167  11.285   9.555  11.309
58776SOL    HW278168  11.345   9.612  11.437
58777SOL     OW78169   8.351   5.968   1.621
58777SOL    HW178170   8.261   5.999   1.610
58777SOL    HW278171   8.393   6.037   1.672
58778SOL     OW78172  12.445   6.104   9.552
58778SOL    HW178173  12.504   6.048   9.603
58778SOL    HW278174  12.477   6.098   9.462
58779SOL     OW78175  14.870   0.206  14.434
58779SOL    HW178176   0.025   0.293  14.408
58779SOL    HW278177   0.045   0.187  14.514
58780SOL     OW78178   5.066   4.189   1.799
58780SOL    HW178179   5.113   4.226   1.725
58780SOL    HW278180   5.073   4.255   1.868
58781SOL     OW78181   2.941  12.505   0.062
58781SOL    HW178182   2.929  12.554  14.854
58781SOL    HW278183   2.984  12.567   0.121
58782SOL     OW78184   4.785  13.103   2.609
58782SOL    HW178185   4.880  13.093   2.609
58782SOL    HW278186   4.770  13.197   2.625
58783SOL     OW78187   2.588  10.914   3.736
58783SOL    HW178188   2.676  10.948   3.723
58783SOL    HW278189   2.546  10.924   3.650
58784SOL     OW78190   0.649   1.548   9.547
58784SOL    HW178191   0.686   1.571   9.633
58784SOL    HW278192   0.644   1.453   9.549
58785SOL     OW78193   8.908  12.563  14.025
58785SOL    HW178194   8.853  12.578  14.102
58785SOL    HW278195   8.989  12.610  14.043
58786SOL     OW78196   5.990   8.772   1.989
58786SOL    HW178197   5.938   8.835   2.039
58786SOL    HW278198   5.932   8.696   1.979
58787SOL     OW78199   8.003  14.702   5.950
58787SOL    HW178200   7.949  14.713   5.872
58787SOL    HW278201   8.018  14.608   5.956
58788SOL     OW78202   0.309  10.916   3.233
58788SOL    HW178203   0.252  10.936   3.158
58788SOL    HW278204   0.371  10.851   3.199
58789SOL     OW78205  11.037   1.094   9.277
58789SOL    HW178206  11.052   1.185   9.300
58789SOL    HW278207  11.055   1.045   9.357
58790SOL     OW78208   2.082   5.017  10.009
58790SOL    HW178209   2.007   5.006   9.949
58790SOL    HW278210   2.152   5.049   9.953
58791SOL     OW78211   8.392  14.273   7.745
58791SOL    HW178212   8.390  14.187   7.701
58791SOL    HW278213   8.301  14.302   7.744
58792SOL     OW78214  10.440   5.060   8.923
58792SOL    HW178215  10.451   5.153   8.907
58792SOL    HW278216  10.504   5.039   8.991
58793SOL     OW78217   9.465  10.101   5.539
58793SOL    HW178218   9.385  10.091   5.590
58793SOL    HW278219   9.481  10.196   5.539
58794SOL     OW78220   8.807   3.436   8.193
58794SOL    HW178221   8.736   3.497   8.177
58794SOL    HW278222   8.774   3.352   8.161
58795SOL     OW78223   8.853  13.698   7.571
58795SOL    HW178224   8.781  13.635   7.565
58795SOL    HW278225   8.844  13.734   7.660
58796SOL     OW78226   6.677  11.264   8.459
58796SOL    HW178227   6.752  11.302   8.505
58796SOL    HW278228   6.611  11.253   8.528
58797SOL     OW78229  14.341   8.393   3.610
58797SOL    HW178230  14.306   8.369   3.696
58797SOL    HW278231  14.313   8.483   3.597
58798SOL     OW78232  11.699   8.694  13.031
58798SOL    HW178233  11.740   8.773  13.066
58798SOL    HW278234  11.613   8.691  13.073
58799SOL     OW78235  13.917   0.157  14.264
58799SOL    HW178236  13.948   0.078  14.219
58799SOL    HW278237  13.943   0.229  14.206
58800SOL     OW78238   0.904  11.514   9.597
58800SOL    HW178239   0.902  11.602   9.560
58800SOL    HW278240   0.948  11.525   9.681
58801SOL     OW78241   7.577   6.692   2.885
58801SOL    HW178242   7.491   6.654   2.865
58801SOL    HW278243   7.609   6.725   2.801
58802SOL     OW78244  10.699   1.231   0.290
58802SOL    HW178245  10.761   1.210   0.221
58802SOL    HW278246  10.664   1.317   0.265
58803SOL     OW78247  11.137  12.966  13.581
58803SOL    HW178248  11.204  13.033  13.572
58803SOL    HW278249  11.156  12.924  13.665
58804SOL     OW78250   3.025  10.801   1.907
58804SOL    HW178251   3.090  10.862   1.942
58804SOL    HW278252   2.957  10.857   1.870
58805SOL     OW78253   9.962   6.775   0.903
58805SOL    HW178254  10.038   6.731   0.942
58805SOL    HW278255   9.989   6.867   0.897
58806SOL     OW78256   8.757   8.249  13.892
58806SOL    HW178257   8.662   8.246  13.881
58806SOL    HW278258   8.781   8.335  13.857
58807SOL     OW78259  14.385   1.130   6.614
58807SOL    HW178260  14.343   1.209   6.582
58807SOL    HW278261  14.318   1.086   6.666
58808SOL     OW78262   4.417   2.282   4.525
58808SOL    HW178263   4.504   2.290   4.487
58808SOL    HW278264   4.358   2.316   4.458
58809SOL     OW78265   8.158   3.805   1.616
58809SOL    HW178266   8.195   3.842   1.536
58809SOL    HW278267   8.222   3.739   1.644
58810SOL     OW78268   5.557  10.660   2.011
58810SOL    HW178269   5.614  10.719   1.961
58810SOL    HW278270   5.550  10.701   2.097
58811SOL     OW78271  13.517  13.737   2.276
58811SOL    HW178272  13.610  13.755   2.258
58811SOL    HW278273  13.517  13.696   2.362
58812SOL     OW78274   1.850   0.225   5.700
58812SOL    HW178275   1.779   0.219   5.637
58812SOL    HW278276   1.808   0.250   5.782
58813SOL     OW78277   6.423   7.373   7.284
58813SOL    HW178278   6.483   7.440   7.319
58813SOL    HW278279   6.371   7.345   7.360
58814SOL     OW78280   5.536  11.119  11.254
58814SOL    HW178281   5.482  11.196  11.272
58814SOL    HW278282   5.619  11.137  11.299
58815SOL     OW78283  11.703   9.144   8.150
58815SOL    HW178284  11.668   9.233   8.150
58815SOL    HW278285  11.720   9.125   8.242
58816SOL     OW78286   7.481  13.458   5.271
58816SOL    HW178287   7.549  13.394   5.295
58816SOL    HW278288   7.443  13.485   5.355
58817SOL     OW78289   0.276  13.500  14.499
58817SOL    HW178290   0.212  13.431  14.484
58817SOL    HW278291   0.277  13.551  14.418
58818SOL     OW78292   3.582   6.697  13.176
58818SOL    HW178293   3.605   6.720  13.266
58818SOL    HW278294   3.587   6.780  13.128
58819SOL     OW78295  14.063   9.737  10.221
58819SOL    HW178296  14.007   9.782  10.158
58819SOL    HW278297  14.003   9.691  10.279
58820SOL     OW78298  14.626   9.250   4.650
58820SOL    HW178299  14.716   9.217   4.661
58820SOL    HW278300  14.606   9.290   4.735
58821SOL     OW78301  13.798  12.825   4.226
58821SOL    HW178302  13.796  12.748   4.170
58821SOL    HW278303  13.738  12.805   4.298
58822SOL     OW78304  13.434   9.232  13.657
58822SOL    HW178305  13.463   9.323  13.660
58822SOL    HW278306  13.349   9.231  13.702
58823SOL     OW78307   8.601   0.168  10.590
58823SOL    HW178308   8.517   0.212  10.603
58823SOL    HW278309   8.608   0.157  10.495
58824SOL     OW78310   7.295  10.555  13.336
58824SOL    HW178311   7.368  10.537  13.396
58824SOL    HW278312   7.303  10.648  13.315
58825SOL     OW78313   8.540  14.132   3.092
58825SOL    HW178314   8.630  14.164   3.086
58825SOL    HW278315   8.485  14.210   3.083
58826SOL     OW78316   0.370   3.414   7.331
58826SOL    HW178317   0.367   3.450   7.419
58826SOL    HW278318   0.434   3.344   7.336
58827SOL     OW78319   5.006   6.510   8.314
58827SOL    HW178320   4.955   6.463   8.380
58827SOL    HW278321   4.943   6.529   8.245
58828SOL     OW78322   1.852   9.828   3.718
58828SOL    HW178323   1.782   9.813   3.655
58828SOL    HW278324   1.893   9.743   3.730
58829SOL     OW78325   0.797  11.864   1.356
58829SOL    HW178326   0.891  11.883   1.351
58829SOL    HW278327   0.756  11.936   1.309
58830SOL     OW78328  11.584  13.899  11.042
58830SOL    HW178329  11.636  13.869  10.968
58830SOL    HW278330  11.556  13.819  11.086
58831SOL     OW78331  12.924  12.641   8.264
58831SOL    HW178332  12.893  12.588   8.191
58831SOL    HW278333  12.866  12.619   8.336
58832SOL     OW78334   5.014  12.251   7.810
58832SOL    HW178335   4.936  12.196   7.823
58832SOL    HW278336   5.012  12.275   7.718
58833SOL     OW78337   6.239   1.259  12.200
58833SOL    HW178338   6.154   1.281  12.160
58833SOL    HW278339   6.286   1.212  12.131
58834SOL     OW78340   6.090  12.828  11.464
58834SOL    HW178341   6.052  12.789  11.542
58834SOL    HW278342   6.165  12.771  11.443
58835SOL     OW78343   1.309   4.529   4.506
58835SOL    HW178344   1.262   4.501   4.584
58835SOL    HW278345   1.342   4.448   4.467
58836SOL     OW78346   8.496   4.664   3.039
58836SOL    HW178347   8.444   4.744   3.043
58836SOL    HW278348   8.586   4.694   3.028
58837SOL     OW78349   7.983   6.942   9.193
58837SOL    HW178350   8.019   6.855   9.175
58837SOL    HW278351   7.888   6.931   9.183
58838SOL     OW78352   8.080   5.662   5.393
58838SOL    HW178353   8.123   5.689   5.312
58838SOL    HW278354   8.146   5.674   5.461
58839SOL     OW78355   9.235   5.949  10.295
58839SOL    HW178356   9.155   5.999  10.280
58839SOL    HW278357   9.217   5.900  10.375
58840SOL     OW78358   3.406  11.986   3.367
58840SOL    HW178359   3.477  11.984   3.303
58840SOL    HW278360   3.333  12.029   3.321
58841SOL     OW78361   2.332  14.171   2.951
58841SOL    HW178362   2.400  14.237   2.938
58841SOL    HW278363   2.369  14.111   3.016
58842SOL     OW78364  13.100   1.282   9.878
58842SOL    HW178365  13.131   1.372   9.872
58842SOL    HW278366  13.055   1.267   9.795
58843SOL     OW78367  11.308  12.928   5.414
58843SOL    HW178368  11.386  12.894   5.370
58843SOL    HW278369  11.239  12.924   5.347
58844SOL     OW78370  11.650  13.611   4.138
58844SOL    HW178371  11.695  13.582   4.217
58844SOL    HW278372  11.559  13.581   4.150
58845SOL     OW78373   9.296   7.608   2.129
58845SOL    HW178374   9.202   7.604   2.145
58845SOL    HW278375   9.315   7.527   2.081
58846SOL     OW78376  10.958  12.586   9.794
58846SOL    HW178377  11.015  12.602   9.719
58846SOL    HW278378  10.932  12.674   9.823
58847SOL     OW78379   3.272   7.402   6.448
58847SOL    HW178380   3.362   7.411   6.416
58847SOL    HW278381   3.275   7.431   6.539
58848SOL     OW78382   3.820  12.797  13.490
58848SOL    HW178383   3.807  12.704  13.503
58848SOL    HW278384   3.907  12.804  13.450
58849SOL     OW78385   1.487   9.388   9.634
58849SOL    HW178386   1.567   9.380   9.685
58849SOL    HW278387   1.485   9.479   9.605
58850SOL     OW78388   2.313   5.903   1.089
58850SOL    HW178389   2.260   5.982   1.077
58850SOL    HW278390   2.356   5.891   1.004
58851SOL     OW78391   8.685   3.391  10.920
58851SOL    HW178392   8.590   3.401  10.920
58851SOL    HW278393   8.710   3.406  11.011
58852SOL     OW78394  12.846   2.852   1.483
58852SOL    HW178395  12.865   2.789   1.413
58852SOL    HW278396  12.779   2.809   1.536
58853SOL     OW78397  10.309  13.265   4.881
58853SOL    HW178398  10.288  13.351   4.919
58853SOL    HW278399  10.229  13.238   4.837
58854SOL     OW78400   2.099   8.685   1.613
58854SOL    HW178401   2.020   8.734   1.634
58854SOL    HW278402   2.165   8.752   1.595
58855SOL     OW78403   1.622  11.935   2.659
58855SOL    HW178404   1.551  11.999   2.656
58855SOL    HW278405   1.578  11.850   2.670
58856SOL     OW78406  10.466   3.729   7.323
58856SOL    HW178407  10.493   3.647   7.282
58856SOL    HW278408  10.513   3.796   7.275
58857SOL     OW78409   9.268   1.338  12.969
58857SOL    HW178410   9.298   1.348  12.879
58857SOL    HW278411   9.336   1.285  13.011
58858SOL     OW78412   4.217   4.882  11.566
58858SOL    HW178413   4.311   4.892  11.548
58858SOL    HW278414   4.187   4.822  11.498
58859SOL     OW78415   9.027   0.289   5.209
58859SOL    HW178416   9.017   0.194   5.204
58859SOL    HW278417   9.045   0.307   5.301
58860SOL     OW78418   4.219   5.574   8.421
58860SOL    HW178419   4.208   5.508   8.352
58860SOL    HW278420   4.284   5.634   8.386
58861SOL     OW78421  14.553   5.768   3.343
58861SOL    HW178422  14.495   5.717   3.399
58861SOL    HW278423  14.640   5.730   3.358
58862SOL     OW78424   7.078   6.947   9.913
58862SOL    HW178425   6.993   6.904   9.926
58862SOL    HW278426   7.055   7.038   9.895
58863SOL     OW78427   7.108   7.685   0.693
58863SOL    HW178428   7.071   7.596   0.690
58863SOL    HW278429   7.123   7.708   0.601
58864SOL     OW78430   5.816  13.588  10.108
58864SOL    HW178431   5.767  13.565  10.029
58864SOL    HW278432   5.852  13.675  10.090
58865SOL     OW78433   5.644   3.248  11.725
58865SOL    HW178434   5.586   3.179  11.756
58865SOL    HW278435   5.721   3.202  11.691
58866SOL     OW78436   2.122   5.961  13.508
58866SOL    HW178437   2.212   5.989  13.518
58866SOL    HW278438   2.126   5.882  13.454
58867SOL     OW78439   3.498  14.200  12.158
58867SOL    HW178440   3.461  14.282  12.191
58867SOL    HW278441   3.589  14.221  12.137
58868SOL     OW78442  10.103  10.159   1.093
58868SOL    HW178443  10.077  10.250   1.078
58868SOL    HW278444  10.026  10.108   1.067
58869SOL     OW78445   1.724   8.270   6.381
58869SOL    HW178446   1.710   8.206   6.311
58869SOL    HW278447   1.721   8.219   6.462
58870SOL     OW78448  13.140  10.352  10.409
58870SOL    HW178449  13.174  10.402  10.483
58870SOL    HW278450  13.151  10.409  10.334
58871SOL     OW78451   4.385  10.413  11.113
58871SOL    HW178452   4.298  10.448  11.095
58871SOL    HW278453   4.433  10.486  11.152
58872SOL     OW78454   9.878   7.884   6.663
58872SOL    HW178455   9.825   7.809   6.636
58872SOL    HW278456   9.884   7.938   6.584
58873SOL     OW78457   2.054   2.874   9.829
58873SOL    HW178458   2.108   2.897   9.905
58873SOL    HW278459   1.974   2.926   9.840
58874SOL     OW78460   8.081  10.015   5.399
58874SOL    HW178461   8.046  10.082   5.340
58874SOL    HW278462   8.059   9.932   5.357
58875SOL     OW78463   7.673   8.100   2.813
58875SOL    HW178464   7.578   8.093   2.823
58875SOL    HW278465   7.688   8.190   2.783
58876SOL     OW78466   3.932   3.251   1.636
58876SOL    HW178467   3.864   3.315   1.615
58876SOL    HW278468   3.978   3.290   1.711
58877SOL     OW78469  13.131   9.932   3.740
58877SOL    HW178470  13.111   9.908   3.831
58877SOL    HW278471  13.060   9.990   3.714
58878SOL     OW78472  13.212   4.255   8.454
58878SOL    HW178473  13.198   4.296   8.539
58878SOL    HW278474  13.226   4.163   8.473
58879SOL     OW78475  11.370  10.743   7.872
58879SOL    HW178476  11.382  10.760   7.778
58879SOL    HW278477  11.393  10.825   7.915
58880SOL     OW78478  11.141  13.331   8.862
58880SOL    HW178479  11.056  13.367   8.839
58880SOL    HW278480  11.125  13.236   8.869
58881SOL     OW78481   9.089   6.362   0.494
58881SOL    HW178482   9.000   6.328   0.489
58881SOL    HW278483   9.114   6.381   0.404
58882SOL     OW78484   5.911   0.737   0.740
58882SOL    HW178485   5.887   0.724   0.648
58882SOL    HW278486   5.886   0.655   0.783
58883SOL     OW78487   8.821   4.667   5.701
58883SOL    HW178488   8.871   4.648   5.780
58883SOL    HW278489   8.882   4.648   5.629
58884SOL     OW78490   0.445  10.742   3.941
58884SOL    HW178491   0.417  10.828   3.974
58884SOL    HW278492   0.482  10.761   3.854
58885SOL     OW78493  13.199   0.567  11.334
58885SOL    HW178494  13.143   0.501  11.375
58885SOL    HW278495  13.137   0.623  11.286
58886SOL     OW78496   1.540   5.391  14.163
58886SOL    HW178497   1.496   5.473  14.142
58886SOL    HW278498   1.589   5.410  14.243
58887SOL     OW78499  10.117   6.006   6.054
58887SOL    HW178500  10.071   5.935   6.009
58887SOL    HW278501  10.159   6.056   5.983
58888SOL     OW78502   8.997  13.213  10.633
58888SOL    HW178503   9.012  13.272  10.558
58888SOL    HW278504   8.956  13.136  10.594
58889SOL     OW78505  14.334   8.141  14.815
58889SOL    HW178506  14.369   8.156  14.728
58889SOL    HW278507  14.358   8.050  14.835
58890SOL     OW78508  10.319   8.097   3.215
58890SOL    HW178509  10.354   8.139   3.136
58890SOL    HW278510  10.396   8.064   3.261
58891SOL     OW78511   7.556  14.014  13.678
58891SOL    HW178512   7.645  14.048  13.673
58891SOL    HW278513   7.519  14.029  13.591
58892SOL     OW78514   6.153   2.186   8.838
58892SOL    HW178515   6.164   2.238   8.758
58892SOL    HW278516   6.081   2.126   8.818
58893SOL     OW78517   6.359   5.673  10.864
58893SOL    HW178518   6.439   5.648  10.819
58893SOL    HW278519   6.359   5.769  10.864
58894SOL     OW78520   7.980  12.507  12.361
58894SOL    HW178521   8.062  12.461  12.379
58894SOL    HW278522   8.002  12.567  12.289
58895SOL     OW78523   3.586   0.009  12.877
58895SOL    HW178524   3.607  14.790  12.886
58895SOL    HW278525   3.501   0.019  12.920
58896SOL     OW78526  13.120   8.576   1.266
58896SOL    HW178527  13.086   8.666   1.271
58896SOL    HW278528  13.044   8.520   1.282
58897SOL     OW78529   7.125   3.028   2.158
58897SOL    HW178530   7.139   3.117   2.127
58897SOL    HW278531   7.202   2.980   2.129
58898SOL     OW78532   1.368   7.693   7.441
58898SOL    HW178533   1.456   7.656   7.451
58898SOL    HW278534   1.360   7.709   7.347
58899SOL     OW78535   5.987   2.913   6.944
58899SOL    HW178536   5.943   2.846   6.997
58899SOL    HW278537   6.059   2.944   6.999
58900SOL     OW78538  12.781   3.306   3.313
58900SOL    HW178539  12.871   3.276   3.322
58900SOL    HW278540  12.728   3.228   3.331
58901SOL     OW78541   1.943   2.148  11.958
58901SOL    HW178542   1.962   2.109  12.044
58901SOL    HW278543   1.896   2.080  11.911
58902SOL     OW78544  13.238  10.302   9.145
58902SOL    HW178545  13.308  10.330   9.204
58902SOL    HW278546  13.252  10.208   9.135
58903SOL     OW78547   3.580   0.255  11.342
58903SOL    HW178548   3.581   0.266  11.437
58903SOL    HW278549   3.573   0.344  11.307
58904SOL     OW78550   7.792   3.637   3.654
58904SOL    HW178551   7.773   3.597   3.570
58904SOL    HW278552   7.722   3.702   3.666
58905SOL     OW78553  12.197   0.595  14.052
58905SOL    HW178554  12.176   0.505  14.076
58905SOL    HW278555  12.263   0.586  13.983
58906SOL     OW78556  10.143  14.845   0.057
58906SOL    HW178557  10.181  14.764   0.024
58906SOL    HW278558  10.073  14.817   0.116
58907SOL     OW78559   1.610  10.890  12.876
58907SOL    HW178560   1.615  10.815  12.816
58907SOL    HW278561   1.550  10.951  12.834
58908SOL     OW78562  14.373   3.870   8.375
58908SOL    HW178563  14.288   3.837   8.346
58908SOL    HW278564  14.432   3.795   8.368
58909SOL     OW78565   0.355   3.499  14.550
58909SOL    HW178566   0.304   3.574  14.581
58909SOL    HW278567   0.305   3.465  14.476
58910SOL     OW78568  10.875  12.061  14.116
58910SOL    HW178569  10.830  11.991  14.069
58910SOL    HW278570  10.821  12.075  14.194
58911SOL     OW78571  10.561  14.449   8.962
58911SOL    HW178572  10.528  14.474   9.049
58911SOL    HW278573  10.572  14.533   8.916
58912SOL     OW78574   6.527  14.670   7.023
58912SOL    HW178575   6.572  14.670   6.938
58912SOL    HW278576   6.595  14.694   7.086
58913SOL     OW78577  10.807   8.936  12.767
58913SOL    HW178578  10.846   9.016  12.732
58913SOL    HW278579  10.712   8.949  12.759
58914SOL     OW78580   2.202  11.832  12.384
58914SOL    HW178581   2.144  11.782  12.441
58914SOL    HW278582   2.178  11.923  12.399
58915SOL     OW78583  10.723  14.638   5.655
58915SOL    HW178584  10.773  14.591   5.722
58915SOL    HW278585  10.635  14.599   5.659
58916SOL     OW78586   2.685   3.632  12.910
58916SOL    HW178587   2.655   3.571  12.842
58916SOL    HW278588   2.708   3.712  12.862
58917SOL     OW78589   4.914  13.015   7.590
58917SOL    HW178590   4.871  13.024   7.675
58917SOL    HW278591   5.006  13.000   7.611
58918SOL     OW78592  11.372   1.662  12.681
58918SOL    HW178593  11.310   1.670  12.754
58918SOL    HW278594  11.320   1.683  12.603
58919SOL     OW78595  11.664  11.406  11.270
58919SOL    HW178596  11.720  11.450  11.206
58919SOL    HW278597  11.725  11.371  11.335
58920SOL     OW78598   1.220   4.358   4.073
58920SOL    HW178599   1.133   4.358   4.034
58920SOL    HW278600   1.206   4.330   4.164
58921SOL     OW78601  10.654  14.401  10.602
58921SOL    HW178602  10.562  14.424  10.616
58921SOL    HW278603  10.662  14.390  10.508
58922SOL     OW78604   6.062   1.188   2.573
58922SOL    HW178605   6.043   1.159   2.484
58922SOL    HW278606   6.042   1.113   2.628
58923SOL     OW78607   5.571   6.915  10.268
58923SOL    HW178608   5.553   7.009  10.267
58923SOL    HW278609   5.511   6.879  10.334
58924SOL     OW78610   6.789  13.655   9.880
58924SOL    HW178611   6.806  13.598   9.955
58924SOL    HW278612   6.732  13.724   9.916
58925SOL     OW78613  10.011   5.864  11.721
58925SOL    HW178614   9.989   5.912  11.801
58925SOL    HW278615  10.089   5.814  11.743
58926SOL     OW78616   9.744   6.889   5.692
58926SOL    HW178617   9.703   6.931   5.616
58926SOL    HW278618   9.770   6.963   5.748
58927SOL     OW78619   3.858   3.240   0.056
58927SOL    HW178620   3.891   3.175  14.868
58927SOL    HW278621   3.819   3.188   0.126
58928SOL     OW78622   7.584   9.527   2.815
58928SOL    HW178623   7.617   9.440   2.792
58928SOL    HW278624   7.531   9.512   2.894
58929SOL     OW78625   1.134  10.912   8.668
58929SOL    HW178626   1.115  10.939   8.758
58929SOL    HW278627   1.165  10.822   8.676
58930SOL     OW78628   9.563   7.422   7.247
58930SOL    HW178629   9.567   7.510   7.287
58930SOL    HW278630   9.564   7.438   7.153
58931SOL     OW78631  11.511   9.783  10.796
58931SOL    HW178632  11.439   9.727  10.826
58931SOL    HW278633  11.512   9.856  10.859
58932SOL     OW78634  13.886  14.844  13.777
58932SOL    HW178635  13.885   0.058  13.814
58932SOL    HW278636  13.899  14.857  13.683
58933SOL     OW78637  10.022   5.269   3.882
58933SOL    HW178638  10.000   5.343   3.825
58933SOL    HW278639   9.975   5.286   3.963
58934SOL     OW78640   8.004   2.797   0.711
58934SOL    HW178641   8.032   2.857   0.780
58934SOL    HW278642   8.022   2.710   0.747
58935SOL     OW78643   0.426   4.448  10.206
58935SOL    HW178644   0.357   4.382  10.207
58935SOL    HW278645   0.426   4.480  10.116
58936SOL     OW78646   5.276   3.838   8.949
58936SOL    HW178647   5.312   3.890   8.878
58936SOL    HW278648   5.332   3.761   8.955
58937SOL     OW78649  12.621  10.240  11.530
58937SOL    HW178650  12.666  10.256  11.613
58937SOL    HW278651  12.553  10.308  11.527
58938SOL     OW78652   6.008   0.647   3.792
58938SOL    HW178653   6.062   0.687   3.860
58938SOL    HW278654   5.923   0.633   3.834
58939SOL     OW78655   8.337   3.138  13.923
58939SOL    HW178656   8.355   3.154  13.830
58939SOL    HW278657   8.245   3.162  13.934
58940SOL     OW78658   3.228   4.256  10.905
58940SOL    HW178659   3.138   4.287  10.900
58940SOL    HW278660   3.277   4.315  10.847
58941SOL     OW78661  12.289   2.639  11.270
58941SOL    HW178662  12.298   2.562  11.328
58941SOL    HW278663  12.293   2.714  11.329
58942SOL     OW78664   3.979   9.208  11.892
58942SOL    HW178665   3.990   9.118  11.922
58942SOL    HW278666   3.915   9.246  11.952
58943SOL     OW78667   8.427   9.350  13.124
58943SOL    HW178668   8.521   9.367  13.123
58943SOL    HW278669   8.401   9.360  13.216
58944SOL     OW78670   0.024  12.439  11.762
58944SOL    HW178671   0.020  12.350  11.728
58944SOL    HW278672   0.037  12.495  11.685
58945SOL     OW78673  13.150  13.805  11.778
58945SOL    HW178674  13.077  13.865  11.794
58945SOL    HW278675  13.111  13.732  11.730
58946SOL     OW78676   9.366   4.593   9.837
58946SOL    HW178677   9.290   4.556   9.882
58946SOL    HW278678   9.347   4.581   9.744
58947SOL     OW78679  12.846  12.487  13.904
58947SOL    HW178680  12.852  12.447  13.817
58947SOL    HW278681  12.919  12.548  13.908
58948SOL     OW78682   2.671  11.956   0.741
58948SOL    HW178683   2.666  12.049   0.718
58948SOL    HW278684   2.748  11.949   0.797
58949SOL     OW78685  14.244   4.243   9.884
58949SOL    HW178686  14.266   4.267   9.974
58949SOL    HW278687  14.314   4.281   9.831
58950SOL     OW78688   3.955   8.360   7.056
58950SOL    HW178689   3.977   8.439   7.106
58950SOL    HW278690   3.999   8.371   6.972
58951SOL     OW78691   4.808  13.706  10.540
58951SOL    HW178692   4.739  13.657  10.584
58951SOL    HW278693   4.780  13.711  10.449
58952SOL     OW78694  14.841   5.230   7.043
58952SOL    HW178695  14.782   5.227   6.969
58952SOL    HW278696  14.829   5.318   7.080
58953SOL     OW78697   8.938   4.499   1.222
58953SOL    HW178698   8.989   4.578   1.241
58953SOL    HW278699   8.935   4.452   1.305
58954SOL     OW78700  14.472   8.580   2.478
58954SOL    HW178701  14.530   8.628   2.418
58954SOL    HW278702  14.401   8.642   2.496
58955SOL     OW78703   4.399   9.301  10.397
58955SOL    HW178704   4.396   9.308  10.493
58955SOL    HW278705   4.311   9.273  10.372
58956SOL     OW78706   0.933   6.904   9.098
58956SOL    HW178707   0.840   6.912   9.076
58956SOL    HW278708   0.964   6.994   9.102
58957SOL     OW78709  12.346  13.981  10.515
58957SOL    HW178710  12.373  14.057  10.463
58957SOL    HW278711  12.401  13.985  10.593
58958SOL     OW78712   9.080   9.910   6.475
58958SOL    HW178713   9.104   9.871   6.391
58958SOL    HW278714   9.035   9.839   6.522
58959SOL     OW78715   6.552  11.973   5.340
58959SOL    HW178716   6.619  11.954   5.275
58959SOL    HW278717   6.600  11.976   5.423
58960SOL     OW78718   1.479   9.094   4.050
58960SOL    HW178719   1.398   9.145   4.047
58960SOL    HW278720   1.477   9.041   3.971
58961SOL     OW78721  11.923  13.178   5.008
58961SOL    HW178722  11.915  13.132   4.925
58961SOL    HW278723  12.014  13.167   5.034
58962SOL     OW78724   7.936   7.127  11.930
58962SOL    HW178725   7.880   7.184  11.877
58962SOL    HW278726   7.880   7.052  11.951
58963SOL     OW78727  11.138   9.016  13.499
58963SOL    HW178728  11.103   9.007  13.587
58963SOL    HW278729  11.229   8.987  13.505
58964SOL     OW78730   0.367   2.449  10.559
58964SOL    HW178731   0.381   2.356  10.578
58964SOL    HW278732   0.445   2.475  10.510
58965SOL     OW78733  10.125  11.984   5.078
58965SOL    HW178734  10.150  11.908   5.026
58965SOL    HW278735  10.143  12.060   5.022
58966SOL     OW78736   2.668   1.165   5.325
58966SOL    HW178737   2.743   1.207   5.367
58966SOL    HW278738   2.649   1.090   5.382
58967SOL     OW78739  14.479  14.417   6.203
58967SOL    HW178740  14.402  14.361   6.196
58967SOL    HW278741  14.450  14.503   6.173
58968SOL     OW78742   5.739   1.965  13.769
58968SOL    HW178743   5.659   2.018  13.763
58968SOL    HW278744   5.792   1.994  13.694
58969SOL     OW78745   5.917   0.618  13.395
58969SOL    HW178746   5.900   0.700  13.349
58969SOL    HW278747   5.870   0.552  13.344
58970SOL     OW78748   2.750   9.378  12.535
58970SOL    HW178749   2.780   9.302  12.586
58970SOL    HW278750   2.709   9.435  12.600
58971SOL     OW78751   8.407   4.496   9.318
58971SOL    HW178752   8.417   4.417   9.372
58971SOL    HW278753   8.326   4.537   9.350
58972SOL     OW78754  10.686  13.095   1.692
58972SOL    HW178755  10.745  13.170   1.685
58972SOL    HW278756  10.632  13.114   1.768
58973SOL     OW78757  13.891   9.417  14.216
58973SOL    HW178758  13.942   9.497  14.227
58973SOL    HW278759  13.808   9.435  14.260
58974SOL     OW78760   9.075   0.080   9.895
58974SOL    HW178761   9.088   0.093   9.801
58974SOL    HW278762   9.070  14.859   9.906
58975SOL     OW78763   5.211   5.256   3.210
58975SOL    HW178764   5.306   5.248   3.224
58975SOL    HW278765   5.180   5.303   3.288
58976SOL     OW78766   3.142  13.218   8.144
58976SOL    HW178767   3.148  13.158   8.070
58976SOL    HW278768   3.110  13.300   8.105
58977SOL     OW78769  13.795   3.163   1.247
58977SOL    HW178770  13.724   3.208   1.202
58977SOL    HW278771  13.797   3.203   1.334
58978SOL     OW78772   1.124   5.335   4.670
58978SOL    HW178773   1.053   5.399   4.675
58978SOL    HW278774   1.202   5.387   4.650
58979SOL     OW78775   4.286   4.174   0.772
58979SOL    HW178776   4.280   4.100   0.712
58979SOL    HW278777   4.253   4.140   0.855
58980SOL     OW78778  10.881   4.440  14.425
58980SOL    HW178779  10.818   4.449  14.353
58980SOL    HW278780  10.880   4.525  14.469
58981SOL     OW78781   7.169   0.358  10.560
58981SOL    HW178782   7.215   0.308  10.628
58981SOL    HW278783   7.173   0.302  10.482
58982SOL     OW78784   9.058   7.754   3.789
58982SOL    HW178785   9.085   7.788   3.704
58982SOL    HW278786   9.081   7.824   3.851
58983SOL     OW78787   4.898  10.078  14.257
58983SOL    HW178788   4.990  10.069  14.281
58983SOL    HW278789   4.854  10.008  14.305
58984SOL     OW78790   5.429  14.434  13.274
58984SOL    HW178791   5.428  14.462  13.365
58984SOL    HW278792   5.337  14.436  13.247
58985SOL     OW78793  14.747   2.043  11.055
58985SOL    HW178794  14.777   1.952  11.063
58985SOL    HW278795  14.661   2.036  11.014
58986SOL     OW78796   7.652  14.384   7.058
58986SOL    HW178797   7.665  14.394   7.152
58986SOL    HW278798   7.671  14.292   7.040
58987SOL     OW78799   3.425   7.632   3.877
58987SOL    HW178800   3.508   7.678   3.868
58987SOL    HW278801   3.367   7.696   3.918
58988SOL     OW78802   2.906   3.483   3.478
58988SOL    HW178803   2.987   3.520   3.443
58988SOL    HW278804   2.928   3.394   3.502
58989SOL     OW78805   5.906   2.006   9.061
58989SOL    HW178806   5.874   2.010   8.970
58989SOL    HW278807   5.828   1.985   9.113
58990SOL     OW78808   4.613   3.346   4.137
58990SOL    HW178809   4.610   3.325   4.043
58990SOL    HW278810   4.618   3.442   4.140
58991SOL     OW78811   6.299   4.401   8.461
58991SOL    HW178812   6.234   4.344   8.501
58991SOL    HW278813   6.380   4.350   8.462
58992SOL     OW78814  10.510   1.018  14.746
58992SOL    HW178815  10.520   1.008  14.841
58992SOL    HW278816  10.465   0.938  14.718
58993SOL     OW78817  11.210   1.898   5.824
58993SOL    HW178818  11.285   1.867   5.773
58993SOL    HW278819  11.235   1.986   5.853
58994SOL     OW78820   4.956   6.917   8.177
58994SOL    HW178821   4.968   6.948   8.087
58994SOL    HW278822   4.983   6.825   8.174
58995SOL     OW78823  11.217   1.291  13.000
58995SOL    HW178824  11.273   1.286  13.078
58995SOL    HW278825  11.129   1.303  13.034
58996SOL     OW78826  12.826   4.357  11.572
58996SOL    HW178827  12.884   4.283  11.589
58996SOL    HW278828  12.845   4.419  11.642
58997SOL     OW78829   3.353  13.531   3.200
58997SOL    HW178830   3.357  13.575   3.116
58997SOL    HW278831   3.437  13.486   3.208
58998SOL     OW78832  11.982  12.407   6.392
58998SOL    HW178833  11.918  12.402   6.463
58998SOL    HW278834  12.027  12.322   6.394
58999SOL     OW78835  13.214   7.515   5.622
58999SOL    HW178836  13.183   7.605   5.616
58999SOL    HW278837  13.150   7.464   5.573
59000SOL     OW78838   8.006   1.314   2.336
59000SOL    HW178839   8.035   1.233   2.294
59000SOL    HW278840   7.930   1.342   2.285
59001SOL     OW78841   4.123   4.228   6.335
59001SOL    HW178842   4.175   4.275   6.269
59001SOL    HW278843   4.095   4.148   6.291
59002SOL     OW78844   5.911   0.198   8.901
59002SOL    HW178845   5.855   0.275   8.893
59002SOL    HW278846   5.999   0.230   8.881
59003SOL     OW78847   5.514  12.619  11.091
59003SOL    HW178848   5.589  12.670  11.060
59003SOL    HW278849   5.453  12.618  11.018
59004SOL     OW78850   0.299   0.537   1.968
59004SOL    HW178851   0.391   0.553   1.951
59004SOL    HW278852   0.296   0.450   2.008
59005SOL     OW78853   5.078  11.395  11.929
59005SOL    HW178854   5.141  11.463  11.952
59005SOL    HW278855   5.129  11.315  11.925
59006SOL     OW78856   1.547   5.076   7.149
59006SOL    HW178857   1.558   5.021   7.227
59006SOL    HW278858   1.613   5.045   7.088
59007SOL     OW78859  12.215   3.613   9.023
59007SOL    HW178860  12.159   3.535   9.021
59007SOL    HW278861  12.222   3.634   9.116
59008SOL     OW78862  13.289   1.121   9.778
59008SOL    HW178863  13.228   1.186   9.815
59008SOL    HW278864  13.247   1.037   9.797
59009SOL     OW78865  10.625  14.759   6.030
59009SOL    HW178866  10.577  14.841   6.019
59009SOL    HW278867  10.711  14.775   5.991
59010SOL     OW78868  11.694  10.564   0.160
59010SOL    HW178869  11.702  10.532   0.250
59010SOL    HW278870  11.625  10.511   0.121
59011SOL     OW78871   7.627  10.753   0.365
59011SOL    HW178872   7.676  10.725   0.442
59011SOL    HW278873   7.541  10.778   0.398
59012SOL     OW78874  14.791   5.039   9.869
59012SOL    HW178875  14.702   5.044   9.835
59012SOL    HW278876  14.789   5.087   9.952
59013SOL     OW78877  10.736   2.935   4.040
59013SOL    HW178878  10.722   2.878   3.964
59013SOL    HW278879  10.648   2.963   4.066
59014SOL     OW78880  11.874  14.204  11.108
59014SOL    HW178881  11.823  14.229  11.030
59014SOL    HW278882  11.907  14.117  11.088
59015SOL     OW78883  10.506   7.771  12.354
59015SOL    HW178884  10.478   7.832  12.423
59015SOL    HW278885  10.528   7.827  12.280
59016SOL     OW78886   1.244  10.305   3.932
59016SOL    HW178887   1.224  10.241   3.863
59016SOL    HW278888   1.162  10.352   3.946
59017SOL     OW78889   5.996   8.130   5.181
59017SOL    HW178890   5.910   8.153   5.145
59017SOL    HW278891   5.990   8.151   5.274
59018SOL     OW78892   3.684   9.259  11.705
59018SOL    HW178893   3.662   9.264  11.612
59018SOL    HW278894   3.668   9.167  11.729
59019SOL     OW78895  14.101   9.484  11.624
59019SOL    HW178896  14.104   9.389  11.617
59019SOL    HW278897  14.178   9.514  11.576
59020SOL     OW78898   9.522   9.076   9.216
59020SOL    HW178899   9.615   9.095   9.232
59020SOL    HW278900   9.479   9.096   9.299
59021SOL     OW78901   7.992   5.038  13.627
59021SOL    HW178902   7.950   5.086  13.557
59021SOL    HW278903   8.046   4.973  13.582
59022SOL     OW78904  10.761   6.100  12.590
59022SOL    HW178905  10.710   6.042  12.647
59022SOL    HW278906  10.735   6.188  12.618
59023SOL     OW78907   6.205   1.244  11.630
59023SOL    HW178908   6.279   1.236  11.570
59023SOL    HW278909   6.199   1.338  11.648
59024SOL     OW78910   3.164   8.152   4.632
59024SOL    HW178911   3.186   8.087   4.565
59024SOL    HW278912   3.078   8.125   4.664
59025SOL     OW78913  12.231   9.200   0.251
59025SOL    HW178914  12.156   9.208   0.310
59025SOL    HW278915  12.268   9.288   0.247
59026SOL     OW78916  11.234   0.762   5.127
59026SOL    HW178917  11.158   0.815   5.104
59026SOL    HW278918  11.300   0.785   5.062
59027SOL     OW78919   4.008   4.760   4.892
59027SOL    HW178920   4.033   4.852   4.886
59027SOL    HW278921   3.926   4.754   4.844
59028SOL     OW78922   0.482  13.675   4.559
59028SOL    HW178923   0.463  13.676   4.466
59028SOL    HW278924   0.509  13.765   4.579
59029SOL     OW78925  13.601  10.933   7.445
59029SOL    HW178926  13.517  10.916   7.402
59029SOL    HW278927  13.578  10.968   7.531
59030SOL     OW78928  12.539   3.635   3.748
59030SOL    HW178929  12.529   3.571   3.678
59030SOL    HW278930  12.518   3.587   3.828
59031SOL     OW78931   2.389   9.796   3.592
59031SOL    HW178932   2.447   9.720   3.587
59031SOL    HW278933   2.377   9.823   3.501
59032SOL     OW78934   4.466   7.804   2.230
59032SOL    HW178935   4.433   7.787   2.141
59032SOL    HW278936   4.514   7.724   2.253
59033SOL     OW78937   8.049   1.431   8.599
59033SOL    HW178938   7.980   1.365   8.598
59033SOL    HW278939   8.050   1.463   8.689
59034SOL     OW78940  12.073   5.119  13.958
59034SOL    HW178941  12.130   5.082  14.025
59034SOL    HW278942  12.033   5.042  13.916
59035SOL     OW78943  11.520   8.865   7.365
59035SOL    HW178944  11.583   8.843   7.297
59035SOL    HW278945  11.500   8.782   7.408
59036SOL     OW78946  14.397   4.723  12.592
59036SOL    HW178947  14.358   4.780  12.527
59036SOL    HW278948  14.489   4.748  12.595
59037SOL     OW78949   9.076  10.580   6.726
59037SOL    HW178950   9.022  10.541   6.794
59037SOL    HW278951   9.092  10.508   6.665
59038SOL     OW78952  11.540   5.135   5.738
59038SOL    HW178953  11.469   5.089   5.693
59038SOL    HW278954  11.604   5.066   5.758
59039SOL     OW78955  10.446  12.919   3.708
59039SOL    HW178956  10.529  12.965   3.691
59039SOL    HW278957  10.379  12.984   3.687
59040SOL     OW78958   1.314   2.513   6.686
59040SOL    HW178959   1.351   2.597   6.714
59040SOL    HW278960   1.347   2.450   6.750
59041SOL     OW78961   5.749  13.088  11.940
59041SOL    HW178962   5.665  13.048  11.916
59041SOL    HW278963   5.745  13.095  12.036
59042SOL     OW78964   5.152  11.854   6.882
59042SOL    HW178965   5.236  11.894   6.902
59042SOL    HW278966   5.089  11.925   6.890
59043SOL     OW78967   0.113   6.624   7.424
59043SOL    HW178968   0.028   6.665   7.437
59043SOL    HW278969   0.156   6.680   7.358
59044SOL     OW78970   6.389  10.967  11.557
59044SOL    HW178971   6.297  10.971  11.531
59044SOL    HW278972   6.391  10.998  11.647
59045SOL     OW78973   7.541   3.484   9.052
59045SOL    HW178974   7.510   3.408   9.003
59045SOL    HW278975   7.477   3.497   9.122
59046SOL     OW78976   7.834   8.598   2.072
59046SOL    HW178977   7.884   8.589   2.153
59046SOL    HW278978   7.747   8.566   2.095
59047SOL     OW78979   6.434   9.894  11.060
59047SOL    HW178980   6.515   9.842  11.060
59047SOL    HW278981   6.385   9.860  11.135
59048SOL     OW78982   2.335  12.715   7.853
59048SOL    HW178983   2.348  12.624   7.880
59048SOL    HW278984   2.318  12.710   7.759
59049SOL     OW78985   1.552  12.920   8.843
59049SOL    HW178986   1.639  12.882   8.849
59049SOL    HW278987   1.555  12.972   8.762
59050SOL     OW78988  14.840  11.438  11.597
59050SOL    HW178989   0.054  11.402  11.597
59050SOL    HW278990  14.853  11.533  11.603
59051SOL     OW78991   9.486   2.132   0.846
59051SOL    HW178992   9.463   2.074   0.774
59051SOL    HW278993   9.410   2.131   0.904
59052SOL     OW78994   4.928   8.883   0.746
59052SOL    HW178995   4.921   8.823   0.671
59052SOL    HW278996   4.867   8.954   0.726
59053SOL     OW78997   8.371   9.854  13.421
59053SOL    HW178998   8.347   9.923  13.482
59053SOL    HW278999   8.289   9.812  13.397
59054SOL     OW79000   0.151  10.087  12.613
59054SOL    HW179001   0.080  10.038  12.654
59054SOL    HW279002   0.231  10.044  12.644
59055SOL     OW79003   1.664  14.712   6.024
59055SOL    HW179004   1.677  14.651   6.096
59055SOL    HW279005   1.731  14.779   6.036
59056SOL     OW79006   9.425   6.927   5.092
59056SOL    HW179007   9.459   6.870   5.022
59056SOL    HW279008   9.485   7.001   5.094
59057SOL     OW79009  10.195   2.508   4.301
59057SOL    HW179010  10.147   2.542   4.376
59057SOL    HW279011  10.191   2.578   4.235
59058SOL     OW79012   9.709   3.821   0.844
59058SOL    HW179013   9.693   3.844   0.753
59058SOL    HW279014   9.727   3.727   0.843
59059SOL     OW79015  10.082  10.619  12.024
59059SOL    HW179016  10.062  10.635  11.932
59059SOL    HW279017  10.151  10.553  12.023
59060SOL     OW79018   2.070   5.843   2.480
59060SOL    HW179019   2.064   5.915   2.417
59060SOL    HW279020   2.001   5.782   2.453
59061SOL     OW79021   4.558   5.690  13.048
59061SOL    HW179022   4.585   5.774  13.085
59061SOL    HW279023   4.532   5.711  12.958
59062SOL     OW79024   7.465   4.295  13.333
59062SOL    HW179025   7.416   4.356  13.277
59062SOL    HW279026   7.418   4.212  13.324
59063SOL     OW79027   0.906   3.728   9.766
59063SOL    HW179028   0.963   3.735   9.689
59063SOL    HW279029   0.848   3.804   9.760
59064SOL     OW79030  11.085   2.500   9.592
59064SOL    HW179031  11.067   2.533   9.680
59064SOL    HW279032  11.021   2.545   9.537
59065SOL     OW79033  12.413   7.072   2.426
59065SOL    HW179034  12.349   7.077   2.498
59065SOL    HW279035  12.382   7.137   2.363
59066SOL     OW79036   9.458   6.657   1.968
59066SOL    HW179037   9.451   6.624   2.057
59066SOL    HW279038   9.466   6.579   1.913
59067SOL     OW79039   1.180  14.025   2.121
59067SOL    HW179040   1.239  13.950   2.109
59067SOL    HW279041   1.148  14.016   2.210
59068SOL     OW79042   7.341   2.279  11.117
59068SOL    HW179043   7.354   2.209  11.180
59068SOL    HW279044   7.258   2.320  11.142
59069SOL     OW79045   2.102  10.561  11.955
59069SOL    HW179046   2.011  10.544  11.980
59069SOL    HW279047   2.122  10.646  11.994
59070SOL     OW79048   0.540   8.822   7.389
59070SOL    HW179049   0.607   8.837   7.321
59070SOL    HW279050   0.514   8.910   7.416
59071SOL     OW79051   0.546   9.044  11.901
59071SOL    HW179052   0.579   8.976  11.960
59071SOL    HW279053   0.553   9.005  11.814
59072SOL     OW79054   7.421  13.319   1.799
59072SOL    HW179055   7.428  13.405   1.757
59072SOL    HW279056   7.440  13.336   1.891
59073SOL     OW79057   2.288   6.732   2.723
59073SOL    HW179058   2.268   6.723   2.630
59073SOL    HW279059   2.204   6.721   2.767
59074SOL     OW79060  13.435   2.817  10.293
59074SOL    HW179061  13.487   2.760  10.236
59074SOL    HW279062  13.486   2.898  10.298
59075SOL     OW79063   2.348  11.137   1.549
59075SOL    HW179064   2.384  11.123   1.461
59075SOL    HW279065   2.416  11.185   1.596
59076SOL     OW79066  11.469  10.369   7.567
59076SOL    HW179067  11.474  10.275   7.550
59076SOL    HW279068  11.375  10.389   7.565
59077SOL     OW79069   3.377  13.203   8.274
59077SOL    HW179070   3.400  13.295   8.286
59077SOL    HW279071   3.282  13.204   8.259
59078SOL     OW79072  14.755   6.510   5.785
59078SOL    HW179073  14.747   6.525   5.880
59078SOL    HW279074  14.734   6.418   5.774
59079SOL     OW79075   5.034   0.024   1.373
59079SOL    HW179076   5.092  14.824   1.393
59079SOL    HW279077   4.961   0.014   1.434
59080SOL     OW79078  12.313  13.832   0.961
59080SOL    HW179079  12.225  13.843   0.925
59080SOL    HW279080  12.367  13.894   0.912
59081SOL     OW79081  11.000  14.872   8.113
59081SOL    HW179082  10.964   0.042   8.036
59081SOL    HW279083  11.019  14.783   8.083
59082SOL     OW79084   1.490   8.175   2.244
59082SOL    HW179085   1.551   8.103   2.227
59082SOL    HW279086   1.513   8.207   2.331
59083SOL     OW79087   1.862   0.960  12.757
59083SOL    HW179088   1.951   0.951  12.721
59083SOL    HW279089   1.876   0.983  12.849
59084SOL     OW79090   0.020  12.011   9.713
59084SOL    HW179091   0.098  12.058   9.741
59084SOL    HW279092   0.031  11.923   9.748
59085SOL     OW79093  11.544   6.658   8.344
59085SOL    HW179094  11.456   6.623   8.355
59085SOL    HW279095  11.545   6.739   8.395
59086SOL     OW79096   7.944   2.903   6.819
59086SOL    HW179097   8.026   2.873   6.857
59086SOL    HW279098   7.886   2.827   6.825
59087SOL     OW79099   9.126   3.432   1.106
59087SOL    HW179100   9.079   3.506   1.067
59087SOL    HW279101   9.057   3.376   1.143
59088SOL     OW79102   9.836  11.563   0.181
59088SOL    HW179103   9.829  11.610   0.264
59088SOL    HW279104   9.835  11.632   0.114
59089SOL     OW79105   6.614  10.556  10.246
59089SOL    HW179106   6.656  10.557  10.332
59089SOL    HW279107   6.596  10.463  10.229
59090SOL     OW79108  12.639  13.564  12.921
59090SOL    HW179109  12.713  13.618  12.948
59090SOL    HW279110  12.652  13.481  12.966
59091SOL     OW79111   9.374  10.279   9.842
59091SOL    HW179112   9.453  10.333   9.848
59091SOL    HW279113   9.379  10.238   9.756
59092SOL     OW79114   9.657   1.097   3.760
59092SOL    HW179115   9.631   1.086   3.668
59092SOL    HW279116   9.696   1.184   3.763
59093SOL     OW79117   3.100  12.697   4.459
59093SOL    HW179118   3.163  12.762   4.490
59093SOL    HW279119   3.044  12.679   4.534
59094SOL     OW79120   1.609  10.143  11.699
59094SOL    HW179121   1.620  10.052  11.674
59094SOL    HW279122   1.521  10.147  11.738
59095SOL     OW79123   9.904   9.093  11.248
59095SOL    HW179124   9.896   9.035  11.324
59095SOL    HW279125   9.990   9.072  11.212
59096SOL     OW79126   9.474   9.716  10.729
59096SOL    HW179127   9.391   9.670  10.721
59096SOL    HW279128   9.455   9.806  10.701
59097SOL     OW79129   9.009   2.296   2.542
59097SOL    HW179130   8.950   2.257   2.477
59097SOL    HW279131   8.959   2.293   2.624
59098SOL     OW79132   0.978   5.355  12.757
59098SOL    HW179133   1.063   5.356  12.801
59098SOL    HW279134   0.941   5.441  12.776
59099SOL     OW79135   6.907   0.547   6.052
59099SOL    HW179136   6.870   0.517   5.968
59099SOL    HW279137   6.920   0.641   6.040
59100SOL     OW79138  14.056   5.239   6.083
59100SOL    HW179139  14.063   5.321   6.132
59100SOL    HW279140  14.016   5.177   6.145
59101SOL     OW79141   3.894   2.169   4.552
59101SOL    HW179142   3.989   2.179   4.542
59101SOL    HW279143   3.865   2.252   4.589
59102SOL     OW79144  14.338  14.179  12.685
59102SOL    HW179145  14.350  14.261  12.638
59102SOL    HW279146  14.425  14.139  12.686
59103SOL     OW79147   0.639   8.565  14.268
59103SOL    HW179148   0.567   8.619  14.301
59103SOL    HW279149   0.614   8.543  14.179
59104SOL     OW79150   9.282  11.204   5.176
59104SOL    HW179151   9.264  11.273   5.111
59104SOL    HW279152   9.342  11.144   5.131
59105SOL     OW79153   1.204   7.243   0.288
59105SOL    HW179154   1.268   7.204   0.228
59105SOL    HW279155   1.217   7.337   0.279
59106SOL     OW79156  13.060   9.448   5.901
59106SOL    HW179157  13.121   9.400   5.844
59106SOL    HW279158  13.016   9.509   5.842
59107SOL     OW79159   4.945   1.156   7.742
59107SOL    HW179160   5.004   1.095   7.697
59107SOL    HW279161   4.980   1.163   7.830
59108SOL     OW79162   9.007  11.184   9.830
59108SOL    HW179163   8.953  11.262   9.846
59108SOL    HW279164   9.051  11.167   9.913
59109SOL     OW79165   4.477   4.584  10.430
59109SOL    HW179166   4.511   4.503  10.469
59109SOL    HW279167   4.385   4.585  10.453
59110SOL     OW79168  12.417   9.046   3.325
59110SOL    HW179169  12.403   9.029   3.418
59110SOL    HW279170  12.399   8.963   3.282
59111SOL     OW79171   6.684   6.741  13.633
59111SOL    HW179172   6.752   6.803  13.606
59111SOL    HW279173   6.677   6.753  13.728
59112SOL     OW79174   9.690   8.441   2.504
59112SOL    HW179175   9.764   8.406   2.453
59112SOL    HW279176   9.639   8.490   2.439
59113SOL     OW79177  11.209   7.270   4.839
59113SOL    HW179178  11.130   7.219   4.821
59113SOL    HW279179  11.246   7.289   4.753
59114SOL     OW79180   5.220   6.913   8.232
59114SOL    HW179181   5.141   6.966   8.233
59114SOL    HW279182   5.207   6.848   8.301
59115SOL     OW79183   4.440  12.223   8.343
59115SOL    HW179184   4.470  12.258   8.427
59115SOL    HW279185   4.511  12.241   8.282
59116SOL     OW79186   8.326   3.768  13.016
59116SOL    HW179187   8.312   3.862  13.001
59116SOL    HW279188   8.248   3.740  13.064
59117SOL     OW79189  14.084   7.680   2.407
59117SOL    HW179190  14.139   7.689   2.485
59117SOL    HW279191  14.141   7.707   2.335
59118SOL     OW79192   4.210  11.529  11.138
59118SOL    HW179193   4.156  11.495  11.067
59118SOL    HW279194   4.297  11.495  11.121
59119SOL     OW79195   6.192  10.735  10.397
59119SOL    HW179196   6.131  10.668  10.366
59119SOL    HW279197   6.211  10.788  10.320
59120SOL     OW79198   0.430   4.473   7.737
59120SOL    HW179199   0.398   4.534   7.804
59120SOL    HW279200   0.360   4.471   7.672
59121SOL     OW79201   3.907  10.414   7.925
59121SOL    HW179202   3.941  10.454   8.005
59121SOL    HW279203   3.812  10.416   7.935
59122SOL     OW79204   6.033  14.375  14.489
59122SOL    HW179205   5.967  14.371  14.559
59122SOL    HW279206   6.029  14.466  14.459
59123SOL     OW79207   4.348   2.382  14.488
59123SOL    HW179208   4.382   2.343  14.569
59123SOL    HW279209   4.335   2.308  14.429
59124SOL     OW79210   7.155   3.580   1.290
59124SOL    HW179211   7.200   3.497   1.273
59124SOL    HW279212   7.206   3.620   1.360
59125SOL     OW79213   1.981   4.480  10.913
59125SOL    HW179214   1.964   4.462  11.005
59125SOL    HW279215   1.996   4.394  10.874
59126SOL     OW79216   9.521   4.855   1.835
59126SOL    HW179217   9.574   4.860   1.755
59126SOL    HW279218   9.431   4.858   1.804
59127SOL     OW79219  11.461   2.055  13.335
59127SOL    HW179220  11.523   2.127  13.343
59127SOL    HW279221  11.410   2.074  13.257
59128SOL     OW79222   9.365  14.114   5.823
59128SOL    HW179223   9.440  14.070   5.785
59128SOL    HW279224   9.300  14.045   5.838
59129SOL     OW79225   6.721  11.436   7.805
59129SOL    HW179226   6.758  11.379   7.738
59129SOL    HW279227   6.790  11.500   7.824
59130SOL     OW79228  11.902  11.823  13.580
59130SOL    HW179229  11.897  11.838  13.674
59130SOL    HW279230  11.977  11.876  13.551
59131SOL     OW79231   3.851  13.292  14.247
59131SOL    HW179232   3.794  13.216  14.261
59131SOL    HW279233   3.841  13.344  14.327
59132SOL     OW79234   1.596   2.569   6.432
59132SOL    HW179235   1.578   2.647   6.486
59132SOL    HW279236   1.644   2.511   6.490
59133SOL     OW79237   3.823   7.904   7.049
59133SOL    HW179238   3.910   7.869   7.070
59133SOL    HW279239   3.840   7.994   7.022
59134SOL     OW79240   6.785  11.489  13.351
59134SOL    HW179241   6.785  11.551  13.277
59134SOL    HW279242   6.875  11.458  13.356
59135SOL     OW79243   9.655   7.601   9.661
59135SOL    HW179244   9.698   7.515   9.666
59135SOL    HW279245   9.583   7.588   9.599
59136SOL     OW79246   3.000   5.247  13.030
59136SOL    HW179247   3.055   5.302  12.974
59136SOL    HW279248   3.062   5.204  13.089
59137SOL     OW79249  11.458   4.274   3.641
59137SOL    HW179250  11.527   4.303   3.581
59137SOL    HW279251  11.395   4.229   3.585
59138SOL     OW79252   4.793  10.937   0.365
59138SOL    HW179253   4.699  10.934   0.348
59138SOL    HW279254   4.800  10.981   0.450
59139SOL     OW79255   1.555  11.945   6.655
59139SOL    HW179256   1.574  12.011   6.588
59139SOL    HW279257   1.629  11.885   6.651
59140SOL     OW79258  12.452   9.844   4.200
59140SOL    HW179259  12.499   9.760   4.198
59140SOL    HW279260  12.420   9.855   4.110
59141SOL     OW79261   5.624   1.196  14.361
59141SOL    HW179262   5.672   1.267  14.403
59141SOL    HW279263   5.532   1.219  14.371
59142SOL     OW79264   5.039  12.592  14.722
59142SOL    HW179265   5.091  12.645  14.662
59142SOL    HW279266   5.061  12.502  14.700
59143SOL     OW79267   8.876   7.179   7.723
59143SOL    HW179268   8.810   7.115   7.694
59143SOL    HW279269   8.827   7.261   7.732
59144SOL     OW79270  11.894   6.540   1.471
59144SOL    HW179271  11.798   6.543   1.478
59144SOL    HW279272  11.924   6.560   1.560
59145SOL     OW79273  12.427   0.153   4.348
59145SOL    HW179274  12.361   0.222   4.356
59145SOL    HW279275  12.389   0.079   4.396
59146SOL     OW79276   5.517   9.493  13.325
59146SOL    HW179277   5.513   9.408  13.280
59146SOL    HW279278   5.594   9.487  13.381
59147SOL     OW79279   1.657  13.402  10.447
59147SOL    HW179280   1.596  13.437  10.382
59147SOL    HW279281   1.727  13.361  10.395
59148SOL     OW79282  14.164   4.156   0.397
59148SOL    HW179283  14.187   4.190   0.483
59148SOL    HW279284  14.234   4.094   0.376
59149SOL     OW79285   1.752   8.039   7.541
59149SOL    HW179286   1.780   8.033   7.633
59149SOL    HW279287   1.726   8.130   7.531
59150SOL     OW79288   8.572  10.080   5.728
59150SOL    HW179289   8.514  10.152   5.751
59150SOL    HW279290   8.521  10.001   5.748
59151SOL     OW79291  11.646   1.535   3.577
59151SOL    HW179292  11.700   1.458   3.595
59151SOL    HW279293  11.574   1.530   3.640
59152SOL     OW79294   0.228   2.009   7.458
59152SOL    HW179295   0.184   2.092   7.439
59152SOL    HW279296   0.171   1.942   7.422
59153SOL     OW79297   1.145  13.098   1.170
59153SOL    HW179298   1.112  13.022   1.121
59153SOL    HW279299   1.112  13.085   1.259
59154SOL     OW79300   4.060   0.270   7.621
59154SOL    HW179301   3.985   0.214   7.601
59154SOL    HW279302   4.134   0.210   7.622
59155SOL     OW79303   7.068  10.991  13.057
59155SOL    HW179304   6.977  10.983  13.031
59155SOL    HW279305   7.065  11.014  13.150
59156SOL     OW79306   4.056   3.289   4.412
59156SOL    HW179307   4.096   3.322   4.332
59156SOL    HW279308   4.122   3.231   4.450
59157SOL     OW79309   7.049   0.013   1.372
59157SOL    HW179310   7.029  14.794   1.365
59157SOL    HW279311   6.977   0.057   1.327
59158SOL     OW79312  10.415   8.865   1.779
59158SOL    HW179313  10.471   8.791   1.805
59158SOL    HW279314  10.368   8.889   1.859
59159SOL     OW79315  11.452  13.049  11.175
59159SOL    HW179316  11.364  13.086  11.171
59159SOL    HW279317  11.508  13.122  11.200
59160SOL     OW79318  13.733   3.054   4.528
59160SOL    HW179319  13.689   3.130   4.490
59160SOL    HW279320  13.761   3.083   4.615
59161SOL     OW79321   2.767   3.131   9.082
59161SOL    HW179322   2.772   3.187   9.005
59161SOL    HW279323   2.675   3.131   9.107
59162SOL     OW79324  13.197  11.781  10.846
59162SOL    HW179325  13.250  11.761  10.923
59162SOL    HW279326  13.107  11.760  10.873
59163SOL     OW79327   6.800   8.257  14.853
59163SOL    HW179328   6.851   8.204   0.040
59163SOL    HW279329   6.747   8.313   0.034
59164SOL     OW79330   3.957  10.443  10.649
59164SOL    HW179331   3.930  10.355  10.676
59164SOL    HW279332   3.937  10.446  10.555
59165SOL     OW79333   2.101   0.748   5.610
59165SOL    HW179334   2.023   0.802   5.627
59165SOL    HW279335   2.076   0.660   5.637
59166SOL     OW79336   8.257   6.951   5.124
59166SOL    HW179337   8.199   6.876   5.107
59166SOL    HW279338   8.321   6.949   5.053
59167SOL     OW79339   4.354   4.677   2.486
59167SOL    HW179340   4.341   4.760   2.532
59167SOL    HW279341   4.439   4.686   2.443
59168SOL     OW79342   6.587   5.883   2.664
59168SOL    HW179343   6.628   5.803   2.698
59168SOL    HW279344   6.590   5.873   2.569
59169SOL     OW79345  14.832   1.449   2.676
59169SOL    HW179346  14.846   1.363   2.635
59169SOL    HW279347  14.753   1.483   2.633
59170SOL     OW79348   8.867  11.467   7.170
59170SOL    HW179349   8.932  11.522   7.127
59170SOL    HW279350   8.883  11.379   7.137
59171SOL     OW79351  12.470   1.589   7.883
59171SOL    HW179352  12.550   1.634   7.908
59171SOL    HW279353  12.401   1.653   7.896
59172SOL     OW79354   4.536   6.825   1.148
59172SOL    HW179355   4.536   6.857   1.058
59172SOL    HW279356   4.622   6.847   1.182
59173SOL     OW79357  12.343   0.931   7.792
59173SOL    HW179358  12.343   1.007   7.849
59173SOL    HW279359  12.307   0.860   7.845
59174SOL     OW79360   1.350   6.750  10.207
59174SOL    HW179361   1.401   6.831  10.208
59174SOL    HW279362   1.415   6.681  10.220
59175SOL     OW79363   7.319   8.103   0.813
59175SOL    HW179364   7.298   8.194   0.834
59175SOL    HW279365   7.235   8.064   0.789
59176SOL     OW79366  13.935   6.278  12.317
59176SOL    HW179367  13.903   6.363  12.348
59176SOL    HW279368  13.960   6.232  12.396
59177SOL     OW79369   4.148  13.303   4.192
59177SOL    HW179370   4.060  13.340   4.197
59177SOL    HW279371   4.206  13.378   4.205
59178SOL     OW79372   0.333   2.982   7.429
59178SOL    HW179373   0.309   2.906   7.376
59178SOL    HW279374   0.355   3.049   7.365
59179SOL     OW79375   3.550  12.516   6.629
59179SOL    HW179376   3.463  12.475   6.621
59179SOL    HW279377   3.589  12.474   6.705
59180SOL     OW79378  12.808  10.089  12.396
59180SOL    HW179379  12.861  10.151  12.446
59180SOL    HW279380  12.871  10.046  12.338
59181SOL     OW79381  11.073   0.422   2.953
59181SOL    HW179382  11.150   0.416   3.010
59181SOL    HW279383  11.110   0.437   2.865
59182SOL     OW79384   0.791   7.758   7.166
59182SOL    HW179385   0.760   7.723   7.082
59182SOL    HW279386   0.715   7.750   7.224
59183SOL     OW79387   8.441  14.576   8.394
59183SOL    HW179388   8.536  14.562   8.392
59183SOL    HW279389   8.430  14.663   8.356
59184SOL     OW79390   1.675   7.736   7.076
59184SOL    HW179391   1.587   7.700   7.090
59184SOL    HW279392   1.698   7.775   7.160
59185SOL     OW79393   1.948  12.337  10.015
59185SOL    HW179394   1.895  12.416  10.028
59185SOL    HW279395   1.901  12.287   9.949
59186SOL     OW79396   9.715   8.645   9.107
59186SOL    HW179397   9.765   8.660   9.027
59186SOL    HW279398   9.733   8.554   9.130
59187SOL     OW79399   4.779   1.004   9.661
59187SOL    HW179400   4.768   0.988   9.567
59187SOL    HW279401   4.787   1.099   9.668
59188SOL     OW79402  11.071  12.209   7.822
59188SOL    HW179403  11.028  12.205   7.908
59188SOL    HW279404  11.164  12.217   7.843
59189SOL     OW79405  13.442  12.814  14.678
59189SOL    HW179406  13.413  12.730  14.642
59189SOL    HW279407  13.425  12.878  14.608
59190SOL     OW79408  10.369   2.880   8.178
59190SOL    HW179409  10.437   2.816   8.201
59190SOL    HW279410  10.287   2.839   8.207
59191SOL     OW79411   0.335  10.182   2.992
59191SOL    HW179412   0.259  10.216   2.944
59191SOL    HW279413   0.297  10.132   3.065
59192SOL     OW79414  14.817  13.680  10.490
59192SOL    HW179415  14.867  13.671  10.409
59192SOL    HW279416   0.002  13.650  10.558
59193SOL     OW79417  13.927   2.463   4.434
59193SOL    HW179418  13.881   2.447   4.516
59193SOL    HW279419  13.885   2.405   4.371
59194SOL     OW79420   8.745   8.051   1.751
59194SOL    HW179421   8.835   8.068   1.722
59194SOL    HW279422   8.754   8.014   1.838
59195SOL     OW79423  10.679   8.207   6.490
59195SOL    HW179424  10.657   8.153   6.566
59195SOL    HW279425  10.598   8.252   6.468
59196SOL     OW79426   3.646   8.590   6.288
59196SOL    HW179427   3.715   8.612   6.350
59196SOL    HW279428   3.692   8.547   6.216
59197SOL     OW79429   5.070   8.756  11.023
59197SOL    HW179430   5.133   8.753  11.095
59197SOL    HW279431   4.986   8.737  11.064
59198SOL     OW79432   5.625   0.479  10.632
59198SOL    HW179433   5.691   0.413  10.613
59198SOL    HW279434   5.625   0.485  10.728
59199SOL     OW79435   4.670   1.429  13.407
59199SOL    HW179436   4.591   1.428  13.461
59199SOL    HW279437   4.641   1.396  13.322
59200SOL     OW79438  13.562  12.460  14.052
59200SOL    HW179439  13.560  12.429  13.962
59200SOL    HW279440  13.530  12.550  14.048
59201SOL     OW79441   1.454  13.530   8.390
59201SOL    HW179442   1.428  13.458   8.334
59201SOL    HW279443   1.521  13.492   8.448
59202SOL     OW79444   4.455  14.262   0.093
59202SOL    HW179445   4.497  14.216   0.165
59202SOL    HW279446   4.373  14.294   0.130
59203SOL     OW79447   2.471   2.894   1.996
59203SOL    HW179448   2.402   2.853   1.944
59203SOL    HW279449   2.428   2.918   2.078
59204SOL     OW79450   5.611  13.364   2.084
59204SOL    HW179451   5.643  13.446   2.044
59204SOL    HW279452   5.518  13.379   2.098
59205SOL     OW79453   6.936   2.187  12.298
59205SOL    HW179454   6.957   2.103  12.337
59205SOL    HW279455   6.897   2.165  12.213
59206SOL     OW79456   7.649   1.340   1.119
59206SOL    HW179457   7.684   1.394   1.048
59206SOL    HW279458   7.714   1.349   1.189
59207SOL     OW79459   4.592  13.810   9.762
59207SOL    HW179460   4.533  13.886   9.762
59207SOL    HW279461   4.533  13.734   9.771
59208SOL     OW79462  14.727   7.514   5.935
59208SOL    HW179463  14.763   7.459   6.005
59208SOL    HW279464  14.731   7.458   5.857
59209SOL     OW79465   2.913   6.837   5.490
59209SOL    HW179466   2.961   6.909   5.532
59209SOL    HW279467   2.925   6.762   5.549
59210SOL     OW79468   7.826  14.539  14.858
59210SOL    HW179469   7.841  14.588   0.064
59210SOL    HW279470   7.809  14.450   0.012
59211SOL     OW79471   5.034   2.913   1.424
59211SOL    HW179472   4.963   2.906   1.489
59211SOL    HW279473   5.036   2.827   1.382
59212SOL     OW79474   6.202   4.512  14.381
59212SOL    HW179475   6.178   4.437  14.327
59212SOL    HW279476   6.288   4.490  14.416
59213SOL     OW79477   5.080   9.571  10.129
59213SOL    HW179478   5.042   9.652  10.162
59213SOL    HW279479   5.120   9.596  10.045
59214SOL     OW79480   6.152  11.813  10.987
59214SOL    HW179481   6.232  11.767  11.013
59214SOL    HW279482   6.178  11.905  10.981
59215SOL     OW79483   7.369  13.470  13.081
59215SOL    HW179484   7.325  13.540  13.033
59215SOL    HW279485   7.422  13.426  13.015
59216SOL     OW79486  13.160  12.034   4.816
59216SOL    HW179487  13.243  12.074   4.843
59216SOL    HW279488  13.170  11.942   4.837
59217SOL     OW79489  11.487   6.231   6.926
59217SOL    HW179490  11.491   6.151   6.978
59217SOL    HW279491  11.394   6.254   6.923
59218SOL     OW79492  11.677   2.108  12.941
59218SOL    HW179493  11.736   2.034  12.950
59218SOL    HW279494  11.732   2.179  12.908
59219SOL     OW79495   8.874  12.878   1.330
59219SOL    HW179496   8.797  12.931   1.350
59219SOL    HW279497   8.911  12.919   1.251
59220SOL     OW79498   3.977  12.612   1.836
59220SOL    HW179499   3.890  12.639   1.806
59220SOL    HW279500   3.966  12.597   1.930
59221SOL     OW79501  14.332   8.843   0.345
59221SOL    HW179502  14.312   8.808   0.432
59221SOL    HW279503  14.253   8.827   0.294
59222SOL     OW79504  11.331   9.239   6.302
59222SOL    HW179505  11.262   9.176   6.323
59222SOL    HW279506  11.371   9.205   6.222
59223SOL     OW79507   5.112   2.641  13.899
59223SOL    HW179508   5.167   2.602  13.831
59223SOL    HW279509   5.111   2.576  13.969
59224SOL     OW79510   3.922   0.590   5.519
59224SOL    HW179511   4.009   0.589   5.479
59224SOL    HW279512   3.862   0.588   5.445
59225SOL     OW79513   0.282   9.134   3.075
59225SOL    HW179514   0.323   9.143   2.989
59225SOL    HW279515   0.208   9.075   3.061
59226SOL     OW79516  12.154  10.056   7.077
59226SOL    HW179517  12.085  10.119   7.054
59226SOL    HW279518  12.155   9.994   7.005
59227SOL     OW79519  13.831  14.691   0.745
59227SOL    HW179520  13.830  14.597   0.763
59227SOL    HW279521  13.924  14.712   0.730
59228SOL     OW79522   8.459  11.437   5.726
59228SOL    HW179523   8.496  11.428   5.638
59228SOL    HW279524   8.445  11.531   5.736
59229SOL     OW79525   1.581   8.912  11.726
59229SOL    HW179526   1.501   8.863  11.748
59229SOL    HW279527   1.598   8.889  11.635
59230SOL     OW79528   1.891  12.264  14.284
59230SOL    HW179529   1.971  12.312  14.261
59230SOL    HW279530   1.860  12.228  14.202
59231SOL     OW79531   8.173   6.154   1.950
59231SOL    HW179532   8.199   6.227   1.894
59231SOL    HW279533   8.159   6.081   1.890
59232SOL     OW79534   7.470   2.656   8.263
59232SOL    HW179535   7.510   2.569   8.256
59232SOL    HW279536   7.376   2.639   8.258
59233SOL     OW79537   1.010   3.766   3.114
59233SOL    HW179538   1.070   3.805   3.051
59233SOL    HW279539   0.969   3.841   3.158
59234SOL     OW79540   7.392  10.549  14.242
59234SOL    HW179541   7.308  10.518  14.278
59234SOL    HW279542   7.368  10.619  14.182
59235SOL     OW79543  11.605   1.456   7.272
59235SOL    HW179544  11.561   1.410   7.344
59235SOL    HW279545  11.549   1.532   7.256
59236SOL     OW79546   8.534  14.108   8.084
59236SOL    HW179547   8.605  14.171   8.096
59236SOL    HW279548   8.473  14.128   8.155
59237SOL     OW79549  13.604   9.495  13.381
59237SOL    HW179550  13.570   9.411  13.410
59237SOL    HW279551  13.680   9.473  13.326
59238SOL     OW79552   4.913  13.497  11.487
59238SOL    HW179553   4.957  13.483  11.571
59238SOL    HW279554   4.820  13.487  11.507
59239SOL     OW79555   8.258   1.712  13.376
59239SOL    HW179556   8.353   1.724  13.387
59239SOL    HW279557   8.226   1.692  13.464
59240SOL     OW79558   6.840   7.948   3.562
59240SOL    HW179559   6.870   8.003   3.490
59240SOL    HW279560   6.919   7.925   3.609
59241SOL     OW79561   6.691   0.889   3.249
59241SOL    HW179562   6.740   0.833   3.189
59241SOL    HW279563   6.698   0.977   3.211
59242SOL     OW79564  10.458   8.345   4.079
59242SOL    HW179565  10.525   8.325   4.144
59242SOL    HW279566  10.382   8.373   4.131
59243SOL     OW79567   6.580  14.303   1.539
59243SOL    HW179568   6.576  14.378   1.599
59243SOL    HW279569   6.515  14.324   1.472
59244SOL     OW79570   9.490  13.504  13.662
59244SOL    HW179571   9.554  13.568  13.631
59244SOL    HW279572   9.426  13.556  13.710
59245SOL     OW79573  10.346   2.719   7.289
59245SOL    HW179574  10.423   2.714   7.232
59245SOL    HW279575  10.374   2.772   7.364
59246SOL     OW79576   7.237   6.428   1.189
59246SOL    HW179577   7.267   6.452   1.277
59246SOL    HW279578   7.301   6.467   1.131
59247SOL     OW79579  10.565  10.103   6.756
59247SOL    HW179580  10.604  10.099   6.843
59247SOL    HW279581  10.479  10.063   6.766
59248SOL     OW79582   0.778  10.930  11.493
59248SOL    HW179583   0.753  10.930  11.585
59248SOL    HW279584   0.824  10.846  11.481
59249SOL     OW79585   9.017  13.690  12.055
59249SOL    HW179586   9.038  13.783  12.047
59249SOL    HW279587   8.922  13.687  12.064
59250SOL     OW79588  11.265   1.991   7.391
59250SOL    HW179589  11.200   2.040   7.341
59250SOL    HW279590  11.220   1.970   7.473
59251SOL     OW79591   6.246   9.516  11.905
59251SOL    HW179592   6.159   9.503  11.865
59251SOL    HW279593   6.271   9.604  11.879
59252SOL     OW79594  13.201   4.461   0.142
59252SOL    HW179595  13.162   4.537   0.099
59252SOL    HW279596  13.226   4.403   0.070
59253SOL     OW79597   3.480  10.259  10.336
59253SOL    HW179598   3.475  10.353  10.354
59253SOL    HW279599   3.437  10.218  10.411
59254SOL     OW79600   7.446   5.460  10.022
59254SOL    HW179601   7.444   5.368  10.050
59254SOL    HW279602   7.355   5.487  10.019
59255SOL     OW79603  14.333   6.583   1.523
59255SOL    HW179604  14.281   6.584   1.604
59255SOL    HW279605  14.279   6.631   1.460
59256SOL     OW79606   0.025  11.525  14.748
59256SOL    HW179607   0.101  11.504  14.693
59256SOL    HW279608  14.848  11.586  14.695
59257SOL     OW79609   1.655  13.774   3.033
59257SOL    HW179610   1.706  13.831   3.091
59257SOL    HW279611   1.703  13.691   3.033
59258SOL     OW79612  12.553  11.834   3.377
59258SOL    HW179613  12.548  11.742   3.404
59258SOL    HW279614  12.485  11.878   3.428
59259SOL     OW79615   1.417  10.185   5.995
59259SOL    HW179616   1.354  10.127   5.952
59259SOL    HW279617   1.445  10.245   5.926
59260SOL     OW79618   4.788  13.194   6.843
59260SOL    HW179619   4.695  13.175   6.834
59260SOL    HW279620   4.791  13.280   6.885
59261SOL     OW79621   1.585  13.190   9.750
59261SOL    HW179622   1.646  13.141   9.805
59261SOL    HW279623   1.515  13.216   9.809
59262SOL     OW79624   7.797   0.964   3.901
59262SOL    HW179625   7.747   0.951   3.982
59262SOL    HW279626   7.870   1.021   3.926
59263SOL     OW79627   7.166  10.423  10.705
59263SOL    HW179628   7.261  10.410  10.709
59263SOL    HW279629   7.147  10.483  10.777
59264SOL     OW79630   7.604   3.845   4.332
59264SOL    HW179631   7.681   3.788   4.321
59264SOL    HW279632   7.567   3.853   4.244
59265SOL     OW79633   1.435   0.519  12.427
59265SOL    HW179634   1.472   0.597  12.467
59265SOL    HW279635   1.475   0.516  12.340
59266SOL     OW79636   7.204   4.306   5.898
59266SOL    HW179637   7.223   4.400   5.890
59266SOL    HW279638   7.109   4.300   5.889
59267SOL     OW79639   9.053   3.500   5.377
59267SOL    HW179640   9.060   3.596   5.372
59267SOL    HW279641   8.964   3.484   5.407
59268SOL     OW79642   6.374   5.062  14.277
59268SOL    HW179643   6.352   5.000  14.207
59268SOL    HW279644   6.383   5.008  14.355
59269SOL     OW79645  12.315  12.838   6.647
59269SOL    HW179646  12.336  12.920   6.690
59269SOL    HW279647  12.244  12.801   6.699
59270SOL     OW79648   0.172   5.650   0.302
59270SOL    HW179649   0.243   5.710   0.281
59270SOL    HW279650   0.205   5.563   0.280
59271SOL     OW79651   3.145   9.156   3.807
59271SOL    HW179652   3.147   9.251   3.792
59271SOL    HW279653   3.178   9.118   3.726
59272SOL     OW79654   2.900  14.204  10.940
59272SOL    HW179655   2.939  14.288  10.963
59272SOL    HW279656   2.886  14.160  11.024
59273SOL     OW79657   4.405  10.234   0.652
59273SOL    HW179658   4.408  10.324   0.619
59273SOL    HW279659   4.455  10.183   0.588
59274SOL     OW79660   0.445  12.797   0.078
59274SOL    HW179661   0.466  12.706   0.056
59274SOL    HW279662   0.417  12.794   0.169
59275SOL     OW79663   2.435  12.372   3.117
59275SOL    HW179664   2.368  12.339   3.177
59275SOL    HW279665   2.514  12.378   3.171
59276SOL     OW79666   6.824  11.346  10.356
59276SOL    HW179667   6.742  11.346  10.308
59276SOL    HW279668   6.831  11.435  10.391
59277SOL     OW79669  11.550   5.730   0.993
59277SOL    HW179670  11.599   5.665   0.944
59277SOL    HW279671  11.587   5.814   0.965
59278SOL     OW79672   5.475   4.284  11.403
59278SOL    HW179673   5.535   4.310  11.473
59278SOL    HW279674   5.390   4.276  11.447
59279SOL     OW79675   3.209   5.681  10.201
59279SOL    HW179676   3.195   5.659  10.294
59279SOL    HW279677   3.199   5.598  10.155
59280SOL     OW79678   7.723   6.526  11.880
59280SOL    HW179679   7.632   6.552  11.868
59280SOL    HW279680   7.771   6.570  11.809
59281SOL     OW79681   7.280   4.781   7.529
59281SOL    HW179682   7.273   4.690   7.555
59281SOL    HW279683   7.281   4.779   7.433
59282SOL     OW79684  14.265   8.715   2.569
59282SOL    HW179685  14.240   8.760   2.649
59282SOL    HW279686  14.231   8.770   2.499
59283SOL     OW79687  10.375  13.327   2.317
59283SOL    HW179688  10.353  13.380   2.394
59283SOL    HW279689  10.292  13.317   2.271
59284SOL     OW79690   2.564   3.971  11.734
59284SOL    HW179691   2.492   4.015  11.690
59284SOL    HW279692   2.640   4.026  11.715
59285SOL     OW79693   1.886   2.541  10.144
59285SOL    HW179694   1.825   2.508  10.079
59285SOL    HW279695   1.973   2.525  10.106
59286SOL     OW79696   5.434   0.925   5.491
59286SOL    HW179697   5.470   0.967   5.413
59286SOL    HW279698   5.339   0.926   5.477
59287SOL     OW79699   3.255  13.377   2.401
59287SOL    HW179700   3.284  13.356   2.312
59287SOL    HW279701   3.292  13.306   2.455
59288SOL     OW79702   3.325  14.743   0.811
59288SOL    HW179703   3.362  14.757   0.898
59288SOL    HW279704   3.401  14.725   0.755
59289SOL     OW79705   0.261   2.441  11.304
59289SOL    HW179706   0.267   2.450  11.399
59289SOL    HW279707   0.167   2.444  11.286
59290SOL     OW79708  12.619   8.267   5.573
59290SOL    HW179709  12.701   8.244   5.619
59290SOL    HW279710  12.578   8.333   5.629
59291SOL     OW79711  12.887  12.500  11.647
59291SOL    HW179712  12.819  12.537  11.703
59291SOL    HW279713  12.962  12.486  11.706
59292SOL     OW79714  14.720   8.131   6.328
59292SOL    HW179715  14.680   8.114   6.414
59292SOL    HW279716  14.800   8.180   6.348
59293SOL     OW79717   1.489   6.403   6.689
59293SOL    HW179718   1.471   6.438   6.602
59293SOL    HW279719   1.551   6.465   6.727
59294SOL     OW79720  14.376   9.308   1.411
59294SOL    HW179721  14.332   9.229   1.444
59294SOL    HW279722  14.449   9.274   1.359
59295SOL     OW79723   7.321   3.455   4.359
59295SOL    HW179724   7.325   3.478   4.452
59295SOL    HW279725   7.385   3.385   4.348
59296SOL     OW79726  14.027   9.429   3.152
59296SOL    HW179727  14.086   9.461   3.084
59296SOL    HW279728  14.041   9.488   3.226
59297SOL     OW79729  10.674  13.500  13.102
59297SOL    HW179730  10.701  13.441  13.171
59297SOL    HW279731  10.727  13.475  13.026
59298SOL     OW79732   7.251  11.579  11.313
59298SOL    HW179733   7.317  11.552  11.250
59298SOL    HW279734   7.168  11.577  11.265
59299SOL     OW79735  10.438   3.538   4.596
59299SOL    HW179736  10.426   3.520   4.689
59299SOL    HW279737  10.362   3.590   4.571
59300SOL     OW79738  10.359  12.643   2.921
59300SOL    HW179739  10.316  12.707   2.864
59300SOL    HW279740  10.288  12.600   2.967
59301SOL     OW79741   3.136   9.389   5.973
59301SOL    HW179742   3.226   9.420   5.962
59301SOL    HW279743   3.085   9.441   5.912
59302SOL     OW79744   9.805  10.696   5.352
59302SOL    HW179745   9.732  10.727   5.298
59302SOL    HW279746   9.789  10.735   5.438
59303SOL     OW79747   3.023   0.264   1.834
59303SOL    HW179748   3.045   0.325   1.905
59303SOL    HW279749   3.087   0.193   1.842
59304SOL     OW79750   3.649  13.835   3.063
59304SOL    HW179751   3.639  13.928   3.046
59304SOL    HW279752   3.698  13.830   3.144
59305SOL     OW79753  11.530   8.178  11.581
59305SOL    HW179754  11.619   8.203  11.608
59305SOL    HW279755  11.528   8.195  11.487
59306SOL     OW79756   2.993   8.252  14.721
59306SOL    HW179757   2.936   8.184  14.756
59306SOL    HW279758   2.975   8.329  14.775
59307SOL     OW79759  11.203  12.988   1.250
59307SOL    HW179760  11.149  12.940   1.313
59307SOL    HW279761  11.282  13.011   1.299
59308SOL     OW79762  13.684   2.451   9.809
59308SOL    HW179763  13.696   2.435   9.903
59308SOL    HW279764  13.773   2.448   9.773
59309SOL     OW79765   3.922   4.898  13.194
59309SOL    HW179766   3.973   4.972  13.227
59309SOL    HW279767   3.906   4.843  13.271
59310SOL     OW79768  13.714   5.371   2.420
59310SOL    HW179769  13.784   5.436   2.405
59310SOL    HW279770  13.680   5.393   2.507
59311SOL     OW79771   3.932   6.421  12.594
59311SOL    HW179772   3.927   6.480  12.670
59311SOL    HW279773   3.843   6.389  12.583
59312SOL     OW79774   8.144  10.324   8.364
59312SOL    HW179775   8.183  10.260   8.423
59312SOL    HW279776   8.218  10.376   8.333
59313SOL     OW79777  10.636   3.452   6.917
59313SOL    HW179778  10.594   3.485   6.996
59313SOL    HW279779  10.564   3.418   6.864
59314SOL     OW79780   6.229   7.375  10.954
59314SOL    HW179781   6.198   7.428  10.880
59314SOL    HW279782   6.318   7.406  10.969
59315SOL     OW79783   2.503   5.570   3.782
59315SOL    HW179784   2.467   5.526   3.705
59315SOL    HW279785   2.435   5.634   3.806
59316SOL     OW79786   3.215   4.906   0.158
59316SOL    HW179787   3.298   4.949   0.141
59316SOL    HW279788   3.169   4.907   0.074
59317SOL     OW79789   7.193   7.771   0.970
59317SOL    HW179790   7.111   7.775   1.019
59317SOL    HW279791   7.178   7.707   0.901
59318SOL     OW79792   0.825  12.145  11.484
59318SOL    HW179793   0.776  12.075  11.526
59318SOL    HW279794   0.831  12.213  11.551
59319SOL     OW79795  13.496  10.314   4.495
59319SOL    HW179796  13.526  10.376   4.561
59319SOL    HW279797  13.407  10.342   4.474
59320SOL     OW79798   1.405   5.172   4.198
59320SOL    HW179799   1.499   5.159   4.201
59320SOL    HW279800   1.388   5.197   4.107
59321SOL     OW79801   4.417   5.438   3.563
59321SOL    HW179802   4.472   5.503   3.518
59321SOL    HW279803   4.473   5.403   3.632
59322SOL     OW79804   2.400   2.189   6.217
59322SOL    HW179805   2.420   2.172   6.125
59322SOL    HW279806   2.326   2.131   6.236
59323SOL     OW79807  10.581   6.825   2.470
59323SOL    HW179808  10.510   6.770   2.503
59323SOL    HW279809  10.651   6.816   2.534
59324SOL     OW79810   9.271   4.121  11.161
59324SOL    HW179811   9.176   4.126  11.172
59324SOL    HW279812   9.297   4.210  11.140
59325SOL     OW79813   6.229   3.283   7.941
59325SOL    HW179814   6.230   3.188   7.956
59325SOL    HW279815   6.198   3.292   7.850
59326SOL     OW79816  14.572   4.388   8.151
59326SOL    HW179817  14.584   4.334   8.073
59326SOL    HW279818  14.658   4.390   8.192
59327SOL     OW79819   1.117   4.929  12.017
59327SOL    HW179820   1.188   4.908  12.078
59327SOL    HW279821   1.152   4.909  11.931
59328SOL     OW79822   0.979   1.225   2.206
59328SOL    HW179823   0.921   1.150   2.209
59328SOL    HW279824   0.926   1.298   2.240
59329SOL     OW79825   0.036  11.718  11.603
59329SOL    HW179826   0.087  11.789  11.563
59329SOL    HW279827   0.010  11.753  11.689
59330SOL     OW79828   1.422   0.376  14.855
59330SOL    HW179829   1.408   0.373   0.076
59330SOL    HW279830   1.442   0.468  14.838
59331SOL     OW79831   3.433   2.765  11.752
59331SOL    HW179832   3.419   2.834  11.817
59331SOL    HW279833   3.524   2.739  11.763
59332SOL     OW79834  13.964   4.456  12.086
59332SOL    HW179835  14.013   4.392  12.138
59332SOL    HW279836  14.026   4.485  12.019
59333SOL     OW79837   1.999  13.121   8.570
59333SOL    HW179838   2.041  13.089   8.490
59333SOL    HW279839   2.071  13.131   8.632
59334SOL     OW79840   6.420   2.877   9.376
59334SOL    HW179841   6.391   2.961   9.341
59334SOL    HW279842   6.499   2.897   9.426
59335SOL     OW79843  12.603  10.831   8.276
59335SOL    HW179844  12.662  10.898   8.241
59335SOL    HW279845  12.548  10.879   8.338
59336SOL     OW79846   3.477  11.720   1.705
59336SOL    HW179847   3.492  11.814   1.703
59336SOL    HW279848   3.388  11.711   1.738
59337SOL     OW79849   2.262  13.264   2.324
59337SOL    HW179850   2.345  13.235   2.286
59337SOL    HW279851   2.205  13.279   2.248
59338SOL     OW79852   7.549  13.592   9.867
59338SOL    HW179853   7.476  13.569   9.810
59338SOL    HW279854   7.554  13.687   9.862
59339SOL     OW79855  14.847   9.359   3.567
59339SOL    HW179856  14.846   9.292   3.499
59339SOL    HW279857  14.805   9.318   3.643
59340SOL     OW79858   6.526   3.996   4.848
59340SOL    HW179859   6.520   4.017   4.755
59340SOL    HW279860   6.547   3.903   4.850
59341SOL     OW79861   6.800  14.393   0.419
59341SOL    HW179862   6.894  14.408   0.415
59341SOL    HW279863   6.791  14.305   0.456
59342SOL     OW79864  14.721   7.833   4.346
59342SOL    HW179865  14.717   7.929   4.343
59342SOL    HW279866  14.801   7.811   4.299
59343SOL     OW79867  11.531  12.235   8.457
59343SOL    HW179868  11.503  12.303   8.396
59343SOL    HW279869  11.471  12.241   8.531
59344SOL     OW79870   4.771   3.329   2.758
59344SOL    HW179871   4.759   3.239   2.787
59344SOL    HW279872   4.776   3.380   2.839
59345SOL     OW79873   6.938   6.654  13.431
59345SOL    HW179874   7.007   6.602  13.473
59345SOL    HW279875   6.897   6.703  13.502
59346SOL     OW79876   0.135   6.820   3.365
59346SOL    HW179877   0.185   6.828   3.284
59346SOL    HW279878   0.054   6.868   3.348
59347SOL     OW79879   5.487  12.022  12.500
59347SOL    HW179880   5.415  11.959  12.494
59347SOL    HW279881   5.500  12.036  12.593
59348SOL     OW79882  14.191   6.614  12.192
59348SOL    HW179883  14.270   6.612  12.139
59348SOL    HW279884  14.218   6.584  12.279
59349SOL     OW79885   0.136   7.476   0.131
59349SOL    HW179886   0.146   7.537   0.058
59349SOL    HW279887   0.043   7.480   0.153
59350SOL     OW79888  12.320  11.016   5.769
59350SOL    HW179889  12.338  10.989   5.860
59350SOL    HW279890  12.258  11.088   5.778
59351SOL     OW79891   9.799   7.294   2.403
59351SOL    HW179892   9.839   7.360   2.460
59351SOL    HW279893   9.763   7.228   2.462
59352SOL     OW79894  11.543   7.277   2.334
59352SOL    HW179895  11.588   7.193   2.324
59352SOL    HW279896  11.570   7.309   2.420
59353SOL     OW79897   8.086  14.631  12.415
59353SOL    HW179898   8.074  14.643  12.509
59353SOL    HW279899   8.063  14.716  12.377
59354SOL     OW79900   1.359   1.790  11.870
59354SOL    HW179901   1.328   1.805  11.781
59354SOL    HW279902   1.407   1.870  11.892
59355SOL     OW79903   4.978   4.070   0.862
59355SOL    HW179904   4.993   4.098   0.772
59355SOL    HW279905   4.920   4.137   0.899
59356SOL     OW79906   7.965   2.336  14.785
59356SOL    HW179907   8.027   2.323  14.713
59356SOL    HW279908   7.903   2.264  14.776
59357SOL     OW79909  12.136   2.359   0.814
59357SOL    HW179910  12.157   2.266   0.822
59357SOL    HW279911  12.122   2.372   0.720
59358SOL     OW79912   3.482   6.029   6.637
59358SOL    HW179913   3.507   5.950   6.685
59358SOL    HW279914   3.401   6.059   6.680
59359SOL     OW79915  12.478  10.355  13.504
59359SOL    HW179916  12.460  10.410  13.428
59359SOL    HW279917  12.404  10.294  13.508
59360SOL     OW79918   6.685  13.878  10.045
59360SOL    HW179919   6.612  13.885  10.107
59360SOL    HW279920   6.734  13.959  10.057
59361SOL     OW79921   2.376   1.901   6.785
59361SOL    HW179922   2.352   1.946   6.866
59361SOL    HW279923   2.293   1.870   6.749
59362SOL     OW79924   7.248  11.842  10.989
59362SOL    HW179925   7.179  11.890  10.943
59362SOL    HW279926   7.292  11.909  11.041
59363SOL     OW79927   0.274  12.101   2.267
59363SOL    HW179928   0.266  12.054   2.184
59363SOL    HW279929   0.183  12.111   2.297
59364SOL     OW79930   7.922  11.466   1.789
59364SOL    HW179931   7.952  11.448   1.878
59364SOL    HW279932   7.908  11.380   1.750
59365SOL     OW79933  11.284   5.340   9.025
59365SOL    HW179934  11.320   5.389   8.951
59365SOL    HW279935  11.193   5.371   9.033
59366SOL     OW79936   1.077   1.563   0.176
59366SOL    HW179937   1.004   1.567   0.238
59366SOL    HW279938   1.043   1.512   0.103
59367SOL     OW79939  11.732   6.289  11.529
59367SOL    HW179940  11.770   6.355  11.471
59367SOL    HW279941  11.729   6.209  11.476
59368SOL     OW79942  12.244  14.179   4.245
59368SOL    HW179943  12.307  14.250   4.232
59368SOL    HW279944  12.169  14.220   4.288
59369SOL     OW79945   3.325   8.293  11.147
59369SOL    HW179946   3.412   8.326  11.170
59369SOL    HW279947   3.290   8.359  11.087
59370SOL     OW79948   4.039   9.711   5.580
59370SOL    HW179949   4.080   9.789   5.618
59370SOL    HW279950   4.033   9.649   5.652
59371SOL     OW79951  11.953   2.179  10.487
59371SOL    HW179952  11.920   2.196  10.575
59371SOL    HW279953  11.971   2.266  10.451
59372SOL     OW79954  12.193   3.913  14.718
59372SOL    HW179955  12.196   3.886  14.626
59372SOL    HW279956  12.281   3.897  14.751
59373SOL     OW79957  11.853   3.067  13.147
59373SOL    HW179958  11.935   3.018  13.147
59373SOL    HW279959  11.788   3.006  13.111
59374SOL     OW79960   8.354   5.239   2.273
59374SOL    HW179961   8.376   5.295   2.199
59374SOL    HW279962   8.415   5.264   2.342
59375SOL     OW79963   0.689  13.073   7.033
59375SOL    HW179964   0.622  13.006   7.047
59375SOL    HW279965   0.640  13.151   7.006
59376SOL     OW79966   8.434   7.994   1.174
59376SOL    HW179967   8.346   7.956   1.174
59376SOL    HW279968   8.420   8.088   1.187
59377SOL     OW79969   7.093   6.160  12.916
59377SOL    HW179970   7.101   6.069  12.886
59377SOL    HW279971   6.999   6.174  12.928
59378SOL     OW79972  13.853  13.721   5.322
59378SOL    HW179973  13.764  13.730   5.290
59378SOL    HW279974  13.864  13.794   5.383
59379SOL     OW79975   8.651   5.095  13.578
59379SOL    HW179976   8.676   5.182  13.609
59379SOL    HW279977   8.555   5.096  13.580
59380SOL     OW79978  12.974  10.653   4.780
59380SOL    HW179979  12.992  10.696   4.864
59380SOL    HW279980  12.997  10.561   4.794
59381SOL     OW79981   5.735   5.414   9.200
59381SOL    HW179982   5.753   5.393   9.109
59381SOL    HW279983   5.698   5.334   9.237
59382SOL     OW79984   7.363   8.033   2.866
59382SOL    HW179985   7.325   8.087   2.796
59382SOL    HW279986   7.304   7.958   2.873
59383SOL     OW79987  12.878   5.839  13.911
59383SOL    HW179988  12.955   5.882  13.949
59383SOL    HW279989  12.888   5.851  13.817
59384SOL     OW79990   6.142   7.235   0.730
59384SOL    HW179991   6.193   7.241   0.650
59384SOL    HW279992   6.069   7.177   0.708
59385SOL     OW79993  13.529   5.125   9.029
59385SOL    HW179994  13.543   5.160   9.117
59385SOL    HW279995  13.593   5.172   8.975
59386SOL     OW79996  12.075   2.876  10.228
59386SOL    HW179997  12.108   2.952  10.276
59386SOL    HW279998  12.000   2.909  10.178
59387SOL     OW79999  11.997  10.929   5.589
59387SOL    HW180000  11.941  10.994   5.546
59387SOL    HW280001  12.077  10.928   5.537
59388SOL     OW80002   9.988   1.102   3.601
59388SOL    HW180003  10.038   1.031   3.561
59388SOL    HW280004  10.045   1.135   3.671
59389SOL     OW80005  10.288   4.966   7.588
59389SOL    HW180006  10.327   4.896   7.640
59389SOL    HW280007  10.362   5.010   7.547
59390SOL     OW80008  11.104  13.668   8.640
59390SOL    HW180009  11.146  13.748   8.672
59390SOL    HW280010  11.162  13.637   8.571
59391SOL     OW80011   8.861   0.791   6.361
59391SOL    HW180012   8.795   0.845   6.319
59391SOL    HW280013   8.945   0.834   6.342
59392SOL     OW80014   2.218   2.142  12.324
59392SOL    HW180015   2.295   2.193  12.345
59392SOL    HW280016   2.195   2.096  12.405
59393SOL     OW80017   4.914  14.163  13.966
59393SOL    HW180018   4.845  14.200  14.022
59393SOL    HW280019   4.981  14.134  14.027
59394SOL     OW80020   8.851   6.406   0.008
59394SOL    HW180021   8.805   6.324  14.863
59394SOL    HW280022   8.818   6.432   0.094
59395SOL     OW80023   6.654   1.618   1.363
59395SOL    HW180024   6.625   1.540   1.410
59395SOL    HW280025   6.749   1.607   1.354
59396SOL     OW80026  12.488   5.879   7.396
59396SOL    HW180027  12.403   5.902   7.359
59396SOL    HW280028  12.469   5.857   7.488
59397SOL     OW80029   2.931   1.391   4.828
59397SOL    HW180030   2.948   1.321   4.766
59397SOL    HW280031   3.001   1.455   4.812
59398SOL     OW80032   7.939   4.988   2.152
59398SOL    HW180033   7.964   4.975   2.243
59398SOL    HW280034   8.014   5.034   2.113
59399SOL     OW80035   0.892   0.598   2.507
59399SOL    HW180036   0.835   0.675   2.511
59399SOL    HW280037   0.949   0.607   2.584
59400SOL     OW80038  11.298   0.186   2.901
59400SOL    HW180039  11.289   0.191   2.996
59400SOL    HW280040  11.318   0.094   2.884
59401SOL     OW80041  13.163  10.773   3.053
59401SOL    HW180042  13.244  10.763   3.003
59401SOL    HW280043  13.097  10.727   3.001
59402SOL     OW80044  14.428   7.929  11.158
59402SOL    HW180045  14.470   8.011  11.133
59402SOL    HW280046  14.469   7.905  11.241
59403SOL     OW80047  11.432   5.123  11.222
59403SOL    HW180048  11.421   5.031  11.198
59403SOL    HW280049  11.359   5.142  11.281
59404SOL     OW80050   1.702   9.216  13.926
59404SOL    HW180051   1.684   9.238  14.018
59404SOL    HW280052   1.631   9.257  13.878
59405SOL     OW80053  11.865   5.004   9.767
59405SOL    HW180054  11.860   4.936   9.700
59405SOL    HW280055  11.809   5.074   9.733
59406SOL     OW80056   2.089   3.711   9.846
59406SOL    HW180057   2.151   3.745   9.910
59406SOL    HW280058   2.035   3.787   9.822
59407SOL     OW80059   0.489  11.707   1.347
59407SOL    HW180060   0.497  11.731   1.254
59407SOL    HW280061   0.580  11.699   1.377
59408SOL     OW80062   3.287  13.727  10.780
59408SOL    HW180063   3.313  13.778  10.857
59408SOL    HW280064   3.317  13.638  10.799
59409SOL     OW80065  11.384   8.860   6.149
59409SOL    HW180066  11.296   8.845   6.185
59409SOL    HW280067  11.381   8.951   6.117
59410SOL     OW80068   8.542   9.090  12.116
59410SOL    HW180069   8.599   9.048  12.180
59410SOL    HW280070   8.480   9.022  12.090
59411SOL     OW80071   2.193  10.562  10.568
59411SOL    HW180072   2.120  10.580  10.510
59411SOL    HW280073   2.172  10.479  10.610
59412SOL     OW80074  12.552  13.404  11.660
59412SOL    HW180075  12.633  13.359  11.683
59412SOL    HW280076  12.485  13.361  11.714
59413SOL     OW80077  10.112   2.249   0.599
59413SOL    HW180078  10.130   2.213   0.686
59413SOL    HW280079  10.107   2.172   0.542
59414SOL     OW80080   3.647   6.197   8.800
59414SOL    HW180081   3.724   6.239   8.838
59414SOL    HW280082   3.683   6.129   8.742
59415SOL     OW80083   9.932   4.608   8.003
59415SOL    HW180084  10.001   4.542   8.008
59415SOL    HW280085   9.871   4.574   7.937
59416SOL     OW80086   9.717   8.713   4.257
59416SOL    HW180087   9.709   8.624   4.220
59416SOL    HW280088   9.738   8.699   4.349
59417SOL     OW80089   4.894   9.891  11.921
59417SOL    HW180090   4.859   9.973  11.954
59417SOL    HW280091   4.964   9.916  11.861
59418SOL     OW80092   6.358  13.471  10.655
59418SOL    HW180093   6.265  13.492  10.642
59418SOL    HW280094   6.387  13.532  10.722
59419SOL     OW80095   3.116   5.034  14.568
59419SOL    HW180096   3.199   5.084  14.567
59419SOL    HW280097   3.096   5.026  14.661
59420SOL     OW80098   1.205   7.433   3.382
59420SOL    HW180099   1.170   7.388   3.459
59420SOL    HW280100   1.241   7.514   3.416
59421SOL     OW80101   5.693   9.117  11.186
59421SOL    HW180102   5.694   9.039  11.241
59421SOL    HW280103   5.621   9.103  11.126
59422SOL     OW80104   6.746   1.389   9.885
59422SOL    HW180105   6.676   1.391   9.820
59422SOL    HW280106   6.749   1.298   9.915
59423SOL     OW80107  11.382   7.176   7.385
59423SOL    HW180108  11.448   7.194   7.452
59423SOL    HW280109  11.430   7.128   7.317
59424SOL     OW80110   5.804   5.982   0.337
59424SOL    HW180111   5.785   6.075   0.323
59424SOL    HW280112   5.824   5.976   0.431
59425SOL     OW80113   1.441   9.963   4.668
59425SOL    HW180114   1.463  10.039   4.722
59425SOL    HW280115   1.523   9.914   4.661
59426SOL     OW80116  10.107   2.089   9.310
59426SOL    HW180117  10.191   2.071   9.268
59426SOL    HW280118  10.124   2.166   9.364
59427SOL     OW80119   7.032   6.494   9.661
59427SOL    HW180120   6.984   6.436   9.602
59427SOL    HW280121   6.990   6.579   9.650
59428SOL     OW80122   5.101   1.936   8.477
59428SOL    HW180123   5.048   1.857   8.464
59428SOL    HW280124   5.160   1.913   8.549
59429SOL     OW80125   1.740  13.636   9.664
59429SOL    HW180126   1.666  13.668   9.613
59429SOL    HW280127   1.732  13.680   9.749
59430SOL     OW80128   2.466  14.283  10.970
59430SOL    HW180129   2.420  14.199  10.969
59430SOL    HW280130   2.399  14.347  10.944
59431SOL     OW80131  10.268   1.189  12.025
59431SOL    HW180132  10.323   1.237  11.962
59431SOL    HW280133  10.179   1.220  12.008
59432SOL     OW80134   5.768   1.553  13.311
59432SOL    HW180135   5.748   1.557  13.218
59432SOL    HW280136   5.718   1.625  13.349
59433SOL     OW80137  12.563   5.341   2.562
59433SOL    HW180138  12.475   5.350   2.597
59433SOL    HW280139  12.620   5.346   2.638
59434SOL     OW80140  12.713  12.884   5.771
59434SOL    HW180141  12.714  12.807   5.715
59434SOL    HW280142  12.802  12.887   5.808
59435SOL     OW80143   8.081   6.588   8.184
59435SOL    HW180144   8.096   6.587   8.089
59435SOL    HW280145   8.060   6.679   8.204
59436SOL     OW80146  11.742   3.999  11.273
59436SOL    HW180147  11.773   3.909  11.271
59436SOL    HW280148  11.647   3.991  11.264
59437SOL     OW80149   0.379  11.275  10.274
59437SOL    HW180150   0.285  11.294  10.276
59437SOL    HW280151   0.412  11.309  10.357
59438SOL     OW80152  11.440  14.862   1.381
59438SOL    HW180153  11.516   0.016   1.330
59438SOL    HW280154  11.470  14.784   1.428
59439SOL     OW80155   0.184   3.973  12.622
59439SOL    HW180156   0.089   3.973  12.608
59439SOL    HW280157   0.219   4.023  12.548
59440SOL     OW80158  11.990  14.130   5.665
59440SOL    HW180159  12.009  14.221   5.643
59440SOL    HW280160  11.917  14.106   5.608
59441SOL     OW80161   4.917   3.656   4.254
59441SOL    HW180162   4.923   3.607   4.335
59441SOL    HW280163   4.846   3.718   4.269
59442SOL     OW80164   7.521   1.456   2.421
59442SOL    HW180165   7.572   1.493   2.349
59442SOL    HW280166   7.468   1.388   2.380
59443SOL     OW80167  10.614   7.272   2.108
59443SOL    HW180168  10.634   7.329   2.033
59443SOL    HW280169  10.600   7.186   2.069
59444SOL     OW80170   5.301   4.604   5.858
59444SOL    HW180171   5.322   4.536   5.922
59444SOL    HW280172   5.282   4.557   5.778
59445SOL     OW80173   4.401  12.777   5.377
59445SOL    HW180174   4.350  12.801   5.454
59445SOL    HW280175   4.406  12.681   5.380
59446SOL     OW80176   9.133   0.321   2.270
59446SOL    HW180177   9.215   0.312   2.318
59446SOL    HW280178   9.152   0.383   2.200
59447SOL     OW80179  10.034   1.506   9.724
59447SOL    HW180180  10.061   1.535   9.637
59447SOL    HW280181  10.116   1.501   9.774
59448SOL     OW80182  14.083  13.859  13.531
59448SOL    HW180183  14.109  13.886  13.619
59448SOL    HW280184  14.160  13.875  13.478
59449SOL     OW80185   5.839   5.062   4.302
59449SOL    HW180186   5.777   4.996   4.334
59449SOL    HW280187   5.866   5.030   4.216
59450SOL     OW80188  14.561   0.646  11.468
59450SOL    HW180189  14.603   0.726  11.435
59450SOL    HW280190  14.470   0.654  11.441
59451SOL     OW80191  13.713   9.739   5.343
59451SOL    HW180192  13.804   9.771   5.347
59451SOL    HW280193  13.688   9.751   5.251
59452SOL     OW80194   3.615   0.378   1.430
59452SOL    HW180195   3.644   0.353   1.518
59452SOL    HW280196   3.585   0.469   1.440
59453SOL     OW80197   5.549  13.100   5.076
59453SOL    HW180198   5.482  13.092   5.008
59453SOL    HW280199   5.587  13.187   5.061
59454SOL     OW80200  10.996   3.805  11.847
59454SOL    HW180201  11.034   3.722  11.819
59454SOL    HW280202  10.919   3.780  11.898
59455SOL     OW80203  11.203  11.748   6.627
59455SOL    HW180204  11.255  11.805   6.683
59455SOL    HW280205  11.225  11.776   6.538
59456SOL     OW80206  13.634   6.195   3.373
59456SOL    HW180207  13.672   6.147   3.446
59456SOL    HW280208  13.560   6.243   3.412
59457SOL     OW80209   3.566  11.462   8.732
59457SOL    HW180210   3.647  11.510   8.750
59457SOL    HW280211   3.591  11.370   8.736
59458SOL     OW80212  13.443   7.394  12.331
59458SOL    HW180213  13.361   7.346  12.336
59458SOL    HW280214  13.484   7.382  12.417
59459SOL     OW80215   9.333   7.598  12.563
59459SOL    HW180216   9.405   7.604  12.500
59459SOL    HW280217   9.274   7.670  12.541
59460SOL     OW80218  10.199   1.514   0.041
59460SOL    HW180219  10.286   1.527   0.078
59460SOL    HW280220  10.192   1.580  14.846
59461SOL     OW80221  14.526   5.811   7.658
59461SOL    HW180222  14.501   5.888   7.709
59461SOL    HW280223  14.605   5.838   7.611
59462SOL     OW80224  11.086  10.225   5.667
59462SOL    HW180225  11.055  10.205   5.756
59462SOL    HW280226  11.011  10.268   5.626
59463SOL     OW80227  13.680   8.699  14.066
59463SOL    HW180228  13.670   8.630  14.000
59463SOL    HW280229  13.770   8.689  14.097
59464SOL     OW80230   1.503  14.835   3.392
59464SOL    HW180231   1.557   0.038   3.412
59464SOL    HW280232   1.452  14.861   3.315
59465SOL     OW80233  11.305   9.373   9.231
59465SOL    HW180234  11.346   9.330   9.156
59465SOL    HW280235  11.379   9.410   9.280
59466SOL     OW80236   1.749   7.297  11.930
59466SOL    HW180237   1.741   7.205  11.907
59466SOL    HW280238   1.835   7.303  11.973
59467SOL     OW80239   6.637  10.051  11.983
59467SOL    HW180240   6.699  10.031  12.054
59467SOL    HW280241   6.641  10.147  11.975
59468SOL     OW80242   2.887   7.187   4.299
59468SOL    HW180243   2.954   7.184   4.231
59468SOL    HW280244   2.849   7.100   4.299
59469SOL     OW80245   0.146  12.368   3.401
59469SOL    HW180246   0.180  12.310   3.333
59469SOL    HW280247   0.223  12.397   3.450
59470SOL     OW80248   7.533   2.878  13.464
59470SOL    HW180249   7.596   2.949  13.454
59470SOL    HW280250   7.456   2.920  13.503
59471SOL     OW80251  11.038   1.180   6.775
59471SOL    HW180252  11.104   1.222   6.719
59471SOL    HW280253  11.010   1.249   6.835
59472SOL     OW80254   8.738  14.620   6.361
59472SOL    HW180255   8.653  14.628   6.405
59472SOL    HW280256   8.787  14.697   6.388
59473SOL     OW80257   1.162  14.116  10.387
59473SOL    HW180258   1.179  14.195  10.334
59473SOL    HW280259   1.214  14.048  10.345
59474SOL     OW80260   1.254   0.588   4.763
59474SOL    HW180261   1.326   0.651   4.756
59474SOL    HW280262   1.260   0.555   4.853
59475SOL     OW80263   4.413  13.534   0.037
59475SOL    HW180264   4.342  13.470   0.031
59475SOL    HW280265   4.383  13.597   0.103
59476SOL     OW80266   3.406   8.162   1.126
59476SOL    HW180267   3.347   8.149   1.052
59476SOL    HW280268   3.483   8.205   1.088
59477SOL     OW80269   5.745   2.641   2.135
59477SOL    HW180270   5.724   2.713   2.196
59477SOL    HW280271   5.673   2.643   2.072
59478SOL     OW80272  11.898   3.527   4.024
59478SOL    HW180273  11.844   3.448   4.015
59478SOL    HW280274  11.883   3.556   4.114
59479SOL     OW80275   9.854   2.098  12.374
59479SOL    HW180276   9.895   2.069  12.456
59479SOL    HW280277   9.760   2.091  12.391
59480SOL     OW80278   2.168  11.867   8.335
59480SOL    HW180279   2.162  11.771   8.332
59480SOL    HW280280   2.167  11.893   8.243
59481SOL     OW80281   4.255   2.741   0.583
59481SOL    HW180282   4.238   2.806   0.515
59481SOL    HW280283   4.181   2.750   0.644
59482SOL     OW80284  11.387   3.747   1.673
59482SOL    HW180285  11.349   3.672   1.719
59482SOL    HW280286  11.480   3.727   1.667
59483SOL     OW80287   1.058  11.954  14.435
59483SOL    HW180288   1.146  11.991  14.436
59483SOL    HW280289   1.066  11.870  14.479
59484SOL     OW80290  14.738  10.603   5.517
59484SOL    HW180291  14.808  10.574   5.459
59484SOL    HW280292  14.663  10.549   5.495
59485SOL     OW80293   6.211   1.556  14.086
59485SOL    HW180294   6.124   1.537  14.049
59485SOL    HW280295   6.211   1.651  14.099
59486SOL     OW80296   5.682   9.516   3.481
59486SOL    HW180297   5.752   9.526   3.417
59486SOL    HW280298   5.697   9.586   3.544
59487SOL     OW80299   7.141   6.198   6.574
59487SOL    HW180300   7.091   6.253   6.514
59487SOL    HW280301   7.232   6.209   6.548
59488SOL     OW80302   3.993   8.092   6.370
59488SOL    HW180303   4.087   8.107   6.379
59488SOL    HW280304   3.981   8.001   6.396
59489SOL     OW80305  13.998   1.814   8.172
59489SOL    HW180306  13.985   1.902   8.139
59489SOL    HW280307  14.065   1.824   8.241
59490SOL     OW80308   1.177   3.531   7.016
59490SOL    HW180309   1.130   3.565   7.093
59490SOL    HW280310   1.262   3.574   7.020
59491SOL     OW80311  10.899  13.679   9.047
59491SOL    HW180312  10.962  13.616   9.081
59491SOL    HW280313  10.896  13.748   9.114
59492SOL     OW80314  12.446   6.871   4.324
59492SOL    HW180315  12.375   6.854   4.386
59492SOL    HW280316  12.497   6.790   4.323
59493SOL     OW80317   3.849   9.200   9.707
59493SOL    HW180318   3.774   9.219   9.764
59493SOL    HW280319   3.904   9.141   9.758
59494SOL     OW80320   2.433   0.604   6.475
59494SOL    HW180321   2.520   0.599   6.515
59494SOL    HW280322   2.430   0.528   6.416
59495SOL     OW80323   3.825   6.001   8.666
59495SOL    HW180324   3.786   5.916   8.686
59495SOL    HW280325   3.918   5.990   8.685
59496SOL     OW80326   8.022   1.394  13.688
59496SOL    HW180327   7.965   1.453  13.738
59496SOL    HW280328   8.052   1.329  13.752
59497SOL     OW80329   8.550  13.542   4.238
59497SOL    HW180330   8.516  13.620   4.194
59497SOL    HW280331   8.516  13.547   4.327
59498SOL     OW80332  14.300  12.987   6.964
59498SOL    HW180333  14.287  13.063   7.021
59498SOL    HW280334  14.348  12.924   7.019
59499SOL     OW80335   4.654   4.986   5.897
59499SOL    HW180336   4.653   4.897   5.861
59499SOL    HW280337   4.577   5.028   5.859
59500SOL     OW80338   2.385   6.440   3.217
59500SOL    HW180339   2.426   6.466   3.299
59500SOL    HW280340   2.382   6.521   3.166
59501SOL     OW80341   6.859  11.052   8.593
59501SOL    HW180342   6.867  11.143   8.621
59501SOL    HW280343   6.849  11.058   8.498
59502SOL     OW80344  12.747   6.449   4.159
59502SOL    HW180345  12.757   6.357   4.132
59502SOL    HW280346  12.824   6.467   4.213
59503SOL     OW80347  13.187   1.485  14.524
59503SOL    HW180348  13.230   1.433  14.592
59503SOL    HW280349  13.135   1.549  14.573
59504SOL     OW80350   4.192  12.325   4.725
59504SOL    HW180351   4.101  12.346   4.746
59504SOL    HW280352   4.188  12.271   4.646
59505SOL     OW80353   0.663   5.013   3.318
59505SOL    HW180354   0.663   5.066   3.398
59505SOL    HW280355   0.686   4.925   3.349
59506SOL     OW80356   6.024  11.928   8.291
59506SOL    HW180357   6.103  11.939   8.239
59506SOL    HW280358   5.965  11.877   8.235
59507SOL     OW80359   6.171  10.922   9.228
59507SOL    HW180360   6.158  10.852   9.164
59507SOL    HW280361   6.227  10.884   9.295
59508SOL     OW80362   6.797  13.083   9.391
59508SOL    HW180363   6.723  13.022   9.390
59508SOL    HW280364   6.819  13.093   9.483
59509SOL     OW80365   5.162  13.345  13.988
59509SOL    HW180366   5.071  13.346  13.960
59509SOL    HW280367   5.187  13.437  13.993
59510SOL     OW80368   2.581   5.287  14.853
59510SOL    HW180369   2.511   5.224  14.833
59510SOL    HW280370   2.539   5.372  14.847
59511SOL     OW80371  10.995  10.928   0.194
59511SOL    HW180372  10.908  10.916   0.157
59511SOL    HW280373  11.054  10.890   0.129
59512SOL     OW80374   5.861   7.197  12.031
59512SOL    HW180375   5.800   7.268  12.048
59512SOL    HW280376   5.942   7.240  12.006
59513SOL     OW80377  10.512   6.231  10.955
59513SOL    HW180378  10.531   6.165  10.888
59513SOL    HW280379  10.575   6.301  10.938
59514SOL     OW80380   1.295  10.498   0.528
59514SOL    HW180381   1.330  10.436   0.464
59514SOL    HW280382   1.339  10.476   0.610
59515SOL     OW80383   9.822   7.703   2.677
59515SOL    HW180384   9.794   7.671   2.592
59515SOL    HW280385   9.746   7.749   2.712
59516SOL     OW80386   2.387   8.371   1.161
59516SOL    HW180387   2.402   8.292   1.213
59516SOL    HW280388   2.421   8.442   1.215
59517SOL     OW80389   8.735  12.906   9.836
59517SOL    HW180390   8.715  12.961   9.912
59517SOL    HW280391   8.708  12.818   9.863
59518SOL     OW80392  13.198   3.593  11.141
59518SOL    HW180393  13.124   3.534  11.160
59518SOL    HW280394  13.159   3.665  11.091
59519SOL     OW80395  12.236   2.213  14.838
59519SOL    HW180396  12.210   2.294  14.794
59519SOL    HW280397  12.313   2.237   0.016
59520SOL     OW80398  14.198   8.388   6.653
59520SOL    HW180399  14.212   8.337   6.573
59520SOL    HW280400  14.118   8.438   6.637
59521SOL     OW80401   2.266   0.763   6.878
59521SOL    HW180402   2.298   0.680   6.843
59521SOL    HW280403   2.287   0.759   6.971
59522SOL     OW80404  10.698   1.892  11.235
59522SOL    HW180405  10.603   1.900  11.223
59522SOL    HW280406  10.719   1.806  11.197
59523SOL     OW80407   1.981   8.841   4.390
59523SOL    HW180408   1.966   8.754   4.355
59523SOL    HW280409   1.938   8.900   4.328
59524SOL     OW80410  12.013   4.347   2.581
59524SOL    HW180411  11.996   4.258   2.611
59524SOL    HW280412  12.082   4.380   2.639
59525SOL     OW80413  12.358  11.309   9.071
59525SOL    HW180414  12.273  11.312   9.114
59525SOL    HW280415  12.364  11.221   9.034
59526SOL     OW80416  13.247   7.408  13.147
59526SOL    HW180417  13.177   7.377  13.204
59526SOL    HW280418  13.288   7.480  13.196
59527SOL     OW80419   1.702   2.529   1.817
59527SOL    HW180420   1.777   2.564   1.769
59527SOL    HW280421   1.693   2.439   1.787
59528SOL     OW80422   1.536   2.002   5.693
59528SOL    HW180423   1.485   1.923   5.676
59528SOL    HW280424   1.470   2.072   5.696
59529SOL     OW80425   1.524   4.176  11.907
59529SOL    HW180426   1.612   4.176  11.946
59529SOL    HW280427   1.504   4.268  11.893
59530SOL     OW80428   6.553   2.930   0.679
59530SOL    HW180429   6.553   3.018   0.642
59530SOL    HW280430   6.536   2.944   0.772
59531SOL     OW80431   1.835  14.827   1.940
59531SOL    HW180432   1.869   0.008   2.010
59531SOL    HW280433   1.834  14.739   1.977
59532SOL     OW80434   5.575   4.969   4.728
59532SOL    HW180435   5.519   4.979   4.651
59532SOL    HW280436   5.597   5.058   4.754
59533SOL     OW80437  13.315   2.564   0.704
59533SOL    HW180438  13.281   2.489   0.655
59533SOL    HW280439  13.344   2.526   0.787
59534SOL     OW80440  11.463   5.281   1.866
59534SOL    HW180441  11.456   5.189   1.890
59534SOL    HW280442  11.556   5.302   1.880
59535SOL     OW80443   5.190   5.846  10.056
59535SOL    HW180444   5.112   5.846  10.001
59535SOL    HW280445   5.158   5.824  10.143
59536SOL     OW80446   8.578   2.436   4.720
59536SOL    HW180447   8.540   2.364   4.769
59536SOL    HW280448   8.556   2.515   4.771
59537SOL     OW80449  14.263  14.356   5.561
59537SOL    HW180450  14.317  14.326   5.488
59537SOL    HW280451  14.325  14.384   5.628
59538SOL     OW80452  13.820  12.994   5.913
59538SOL    HW180453  13.853  12.913   5.875
59538SOL    HW280454  13.740  13.012   5.865
59539SOL     OW80455  12.096   4.994   6.244
59539SOL    HW180456  12.122   5.054   6.314
59539SOL    HW280457  12.083   4.910   6.288
59540SOL     OW80458   0.102   9.089   6.011
59540SOL    HW180459   0.167   9.073   6.079
59540SOL    HW280460   0.153   9.119   5.936
59541SOL     OW80461  13.997   4.118   4.176
59541SOL    HW180462  13.945   4.076   4.244
59541SOL    HW280463  13.934   4.171   4.127
59542SOL     OW80464  13.795   5.364   3.148
59542SOL    HW180465  13.735   5.437   3.144
59542SOL    HW280466  13.762   5.309   3.220
59543SOL     OW80467  12.112   3.848   5.900
59543SOL    HW180468  12.138   3.864   5.990
59543SOL    HW280469  12.169   3.777   5.870
59544SOL     OW80470   0.461  12.315   4.639
59544SOL    HW180471   0.548  12.277   4.631
59544SOL    HW280472   0.454  12.341   4.731
59545SOL     OW80473  13.159  11.991  10.689
59545SOL    HW180474  13.146  11.917  10.749
59545SOL    HW280475  13.249  12.019  10.705
59546SOL     OW80476   2.633  14.660  10.856
59546SOL    HW180477   2.654  14.578  10.812
59546SOL    HW280478   2.705  14.674  10.918
59547SOL     OW80479   8.045   6.216  11.503
59547SOL    HW180480   8.107   6.284  11.530
59547SOL    HW280481   8.067   6.200  11.411
59548SOL     OW80482   6.795   1.051   7.677
59548SOL    HW180483   6.863   0.990   7.707
59548SOL    HW280484   6.836   1.137   7.687
59549SOL     OW80485   0.844   5.341   0.692
59549SOL    HW180486   0.834   5.399   0.616
59549SOL    HW280487   0.884   5.396   0.759
59550SOL     OW80488   1.667   3.850  12.167
59550SOL    HW180489   1.735   3.915  12.144
59550SOL    HW280490   1.710   3.794  12.232
59551SOL     OW80491   6.986   9.739   0.653
59551SOL    HW180492   7.066   9.755   0.703
59551SOL    HW280493   6.954   9.826   0.630
59552SOL     OW80494   2.360   6.996   4.597
59552SOL    HW180495   2.421   7.058   4.556
59552SOL    HW280496   2.275   7.038   4.589
59553SOL     OW80497   1.720   9.031  13.174
59553SOL    HW180498   1.736   8.962  13.110
59553SOL    HW280499   1.644   9.078  13.140
59554SOL     OW80500  11.549  14.056   2.883
59554SOL    HW180501  11.524  14.029   2.794
59554SOL    HW280502  11.618  14.121   2.869
59555SOL     OW80503   7.589   9.416   9.557
59555SOL    HW180504   7.561   9.383   9.472
59555SOL    HW280505   7.572   9.345   9.618
59556SOL     OW80506   8.552   9.580   0.372
59556SOL    HW180507   8.540   9.489   0.399
59556SOL    HW280508   8.558   9.629   0.453
59557SOL     OW80509   6.319   2.918   0.083
59557SOL    HW180510   6.296   2.995   0.135
59557SOL    HW280511   6.394   2.947   0.030
59558SOL     OW80512   9.614   9.882   9.833
59558SOL    HW180513   9.684   9.817   9.845
59558SOL    HW280514   9.607   9.892   9.738
59559SOL     OW80515   7.435  12.064  13.334
59559SOL    HW180516   7.479  11.989  13.376
59559SOL    HW280517   7.484  12.078  13.253
59560SOL     OW80518   5.501  11.982   0.216
59560SOL    HW180519   5.458  11.905   0.254
59560SOL    HW280520   5.587  11.950   0.188
59561SOL     OW80521  14.352   3.549   2.260
59561SOL    HW180522  14.360   3.641   2.283
59561SOL    HW280523  14.260   3.538   2.236
59562SOL     OW80524   4.334   6.646   9.273
59562SOL    HW180525   4.425   6.637   9.303
59562SOL    HW280526   4.321   6.740   9.264
59563SOL     OW80527  12.252   7.207   7.141
59563SOL    HW180528  12.323   7.242   7.194
59563SOL    HW280529  12.230   7.123   7.181
59564SOL     OW80530   2.516   1.746   4.672
59564SOL    HW180531   2.441   1.800   4.646
59564SOL    HW280532   2.584   1.768   4.608
59565SOL     OW80533  12.092   9.026  12.740
59565SOL    HW180534  12.045   9.083  12.801
59565SOL    HW280535  12.166   8.992  12.791
59566SOL     OW80536  13.513  12.277  14.497
59566SOL    HW180537  13.449  12.214  14.530
59566SOL    HW280538  13.597  12.244  14.529
59567SOL     OW80539  12.183  10.841   1.460
59567SOL    HW180540  12.240  10.898   1.408
59567SOL    HW280541  12.094  10.862   1.430
59568SOL     OW80542  13.358  14.233   4.850
59568SOL    HW180543  13.316  14.245   4.765
59568SOL    HW280544  13.312  14.159   4.889
59569SOL     OW80545  11.196   4.937   8.353
59569SOL    HW180546  11.120   4.980   8.391
59569SOL    HW280547  11.271   4.976   8.397
59570SOL     OW80548  14.229   0.469   7.739
59570SOL    HW180549  14.254   0.542   7.797
59570SOL    HW280550  14.309   0.417   7.731
59571SOL     OW80551  12.772   0.839   3.966
59571SOL    HW180552  12.701   0.777   3.952
59571SOL    HW280553  12.792   0.832   4.060
59572SOL     OW80554   6.929   7.276   7.364
59572SOL    HW180555   6.859   7.282   7.429
59572SOL    HW280556   6.988   7.348   7.386
59573SOL     OW80557  14.410   1.039   8.999
59573SOL    HW180558  14.443   1.043   8.910
59573SOL    HW280559  14.478   0.992   9.048
59574SOL     OW80560   7.195  14.809  12.084
59574SOL    HW180561   7.112  14.850  12.059
59574SOL    HW280562   7.195  14.726  12.036
59575SOL     OW80563   1.376   9.457   3.920
59575SOL    HW180564   1.302   9.481   3.865
59575SOL    HW280565   1.451   9.456   3.860
59576SOL     OW80566  11.101   2.742   7.509
59576SOL    HW180567  11.148   2.784   7.580
59576SOL    HW280568  11.117   2.797   7.432
59577SOL     OW80569   7.277   9.327  13.464
59577SOL    HW180570   7.228   9.368  13.535
59577SOL    HW280571   7.216   9.263  13.427
59578SOL     OW80572   8.187  13.858   7.079
59578SOL    HW180573   8.215  13.823   7.164
59578SOL    HW280574   8.268  13.890   7.039
59579SOL     OW80575   2.988   4.389  13.528
59579SOL    HW180576   2.993   4.305  13.573
59579SOL    HW280577   2.901   4.389  13.487
59580SOL     OW80578  11.977   5.797  11.285
59580SOL    HW180579  12.006   5.884  11.313
59580SOL    HW280580  12.058   5.748  11.272
59581SOL     OW80581   9.227  13.876   7.902
59581SOL    HW180582   9.175  13.855   7.980
59581SOL    HW280583   9.228  13.971   7.898
59582SOL     OW80584  11.515  14.812   5.487
59582SOL    HW180585  11.489  14.816   5.395
59582SOL    HW280586  11.592  14.869   5.492
59583SOL     OW80587   8.158  13.480  14.766
59583SOL    HW180588   8.186  13.509  14.679
59583SOL    HW280589   8.162  13.384  14.761
59584SOL     OW80590   2.928   7.971  13.416
59584SOL    HW180591   2.987   7.998  13.346
59584SOL    HW280592   2.841   7.988  13.382
59585SOL     OW80593   3.733  10.803   2.507
59585SOL    HW180594   3.814  10.807   2.456
59585SOL    HW280595   3.669  10.851   2.453
59586SOL     OW80596   6.987   8.297   5.432
59586SOL    HW180597   6.969   8.265   5.521
59586SOL    HW280598   7.045   8.373   5.445
59587SOL     OW80599  13.677   1.837   8.575
59587SOL    HW180600  13.724   1.844   8.492
59587SOL    HW280601  13.685   1.744   8.599
59588SOL     OW80602   4.789   8.574   2.334
59588SOL    HW180603   4.744   8.556   2.251
59588SOL    HW280604   4.874   8.532   2.325
59589SOL     OW80605  11.246   2.112  11.742
59589SOL    HW180606  11.247   2.153  11.655
59589SOL    HW280607  11.295   2.172  11.798
59590SOL     OW80608   6.793   7.204  11.827
59590SOL    HW180609   6.860   7.213  11.759
59590SOL    HW280610   6.831   7.142  11.890
59591SOL     OW80611   8.148   3.979   5.102
59591SOL    HW180612   8.141   4.033   5.181
59591SOL    HW280613   8.230   3.930   5.113
59592SOL     OW80614  13.344  10.776   0.282
59592SOL    HW180615  13.417  10.728   0.320
59592SOL    HW280616  13.371  10.868   0.285
59593SOL     OW80617   6.408  13.282  11.540
59593SOL    HW180618   6.430  13.218  11.471
59593SOL    HW280619   6.375  13.228  11.612
59594SOL     OW80620  11.257   7.355  12.500
59594SOL    HW180621  11.217   7.343  12.414
59594SOL    HW280622  11.266   7.450  12.509
59595SOL     OW80623   4.886   9.343   5.507
59595SOL    HW180624   4.827   9.412   5.477
59595SOL    HW280625   4.838   9.262   5.492
59596SOL     OW80626   6.151  10.688   0.641
59596SOL    HW180627   6.140  10.697   0.546
59596SOL    HW280628   6.110  10.604   0.662
59597SOL     OW80629   9.027   9.293  14.502
59597SOL    HW180630   9.083   9.224  14.538
59597SOL    HW280631   8.941   9.277  14.541
59598SOL     OW80632  12.879   4.931   8.914
59598SOL    HW180633  12.875   4.920   8.819
59598SOL    HW280634  12.791   4.909   8.944
59599SOL     OW80635  10.321  11.176   0.716
59599SOL    HW180636  10.406  11.160   0.756
59599SOL    HW280637  10.263  11.196   0.790
59600SOL     OW80638   5.379   5.726   5.791
59600SOL    HW180639   5.442   5.654   5.784
59600SOL    HW280640   5.428   5.796   5.835
59601SOL     OW80641  12.480   8.373   2.960
59601SOL    HW180642  12.485   8.368   3.055
59601SOL    HW280643  12.474   8.282   2.931
59602SOL     OW80644  12.488   0.103   2.453
59602SOL    HW180645  12.455   0.183   2.495
59602SOL    HW280646  12.570   0.084   2.500
59603SOL     OW80647   1.414   7.485   0.749
59603SOL    HW180648   1.332   7.494   0.701
59603SOL    HW280649   1.476   7.453   0.684
59604SOL     OW80650   4.536   7.954  11.397
59604SOL    HW180651   4.627   7.939  11.371
59604SOL    HW280652   4.493   7.869  11.383
59605SOL     OW80653   8.463  14.525  10.146
59605SOL    HW180654   8.526  14.462  10.181
59605SOL    HW280655   8.458  14.504  10.053
59606SOL     OW80656  13.629   7.319   2.061
59606SOL    HW180657  13.570   7.371   2.115
59606SOL    HW280658  13.591   7.322   1.974
59607SOL     OW80659  13.403   2.229  10.472
59607SOL    HW180660  13.331   2.279  10.511
59607SOL    HW280661  13.366   2.191  10.392
59608SOL     OW80662  13.773   7.616  12.291
59608SOL    HW180663  13.685   7.651  12.307
59608SOL    HW280664  13.758   7.535  12.241
59609SOL     OW80665  12.221   6.781   1.843
59609SOL    HW180666  12.184   6.867   1.865
59609SOL    HW280667  12.233   6.784   1.748
59610SOL     OW80668   8.347   0.049  13.691
59610SOL    HW180669   8.318  14.854  13.751
59610SOL    HW280670   8.423   0.088  13.735
59611SOL     OW80671  12.568   8.704  13.738
59611SOL    HW180672  12.585   8.631  13.798
59611SOL    HW280673  12.636   8.768  13.759
59612SOL     OW80674   8.555   3.041   4.741
59612SOL    HW180675   8.502   3.109   4.783
59612SOL    HW280676   8.615   3.012   4.809
59613SOL     OW80677   9.039   2.846  12.282
59613SOL    HW180678   9.111   2.908  12.287
59613SOL    HW280679   8.971   2.884  12.337
59614SOL     OW80680  14.069   3.057   9.456
59614SOL    HW180681  14.096   2.979   9.504
59614SOL    HW280682  13.973   3.058   9.463
59615SOL     OW80683   8.880   5.835   6.099
59615SOL    HW180684   8.847   5.745   6.104
59615SOL    HW280685   8.949   5.840   6.165
59616SOL     OW80686   0.896   2.846  12.503
59616SOL    HW180687   0.936   2.920  12.458
59616SOL    HW280688   0.970   2.789  12.526
59617SOL     OW80689   6.370  13.173   3.240
59617SOL    HW180690   6.293  13.198   3.292
59617SOL    HW280691   6.437  13.152   3.305
59618SOL     OW80692   5.300   6.394   8.645
59618SOL    HW180693   5.380   6.370   8.690
59618SOL    HW280694   5.317   6.481   8.609
59619SOL     OW80695   7.679   3.113  14.462
59619SOL    HW180696   7.662   3.025  14.495
59619SOL    HW280697   7.734   3.154  14.529
59620SOL     OW80698   7.715  10.047   8.369
59620SOL    HW180699   7.795  10.098   8.382
59620SOL    HW280700   7.654  10.109   8.328
59621SOL     OW80701   5.300   8.547   1.590
59621SOL    HW180702   5.336   8.487   1.525
59621SOL    HW280703   5.309   8.501   1.673
59622SOL     OW80704   0.362   6.149  12.971
59622SOL    HW180705   0.365   6.145  13.067
59622SOL    HW280706   0.429   6.212  12.947
59623SOL     OW80707  13.816   4.721  10.649
59623SOL    HW180708  13.799   4.807  10.687
59623SOL    HW280709  13.875   4.678  10.711
59624SOL     OW80710   8.426  13.278   4.988
59624SOL    HW180711   8.444  13.299   5.080
59624SOL    HW280712   8.355  13.213   4.992
59625SOL     OW80713  11.207  11.145  14.498
59625SOL    HW180714  11.133  11.096  14.461
59625SOL    HW280715  11.167  11.217  14.546
59626SOL     OW80716   9.456   1.477   0.513
59626SOL    HW180717   9.426   1.516   0.430
59626SOL    HW280718   9.547   1.504   0.520
59627SOL     OW80719   6.671  10.552   5.830
59627SOL    HW180720   6.733  10.580   5.763
59627SOL    HW280721   6.662  10.626   5.889
59628SOL     OW80722   5.238  12.757   3.075
59628SOL    HW180723   5.214  12.844   3.043
59628SOL    HW280724   5.292  12.773   3.152
59629SOL     OW80725   5.123   8.047   9.560
59629SOL    HW180726   5.080   7.964   9.540
59629SOL    HW280727   5.202   8.047   9.507
59630SOL     OW80728  13.001   9.970  14.371
59630SOL    HW180729  13.022   9.880  14.344
59630SOL    HW280730  12.905   9.975  14.365
59631SOL     OW80731   4.426   1.238  11.149
59631SOL    HW180732   4.510   1.276  11.176
59631SOL    HW280733   4.449   1.159  11.101
59632SOL     OW80734  12.399  13.136   4.859
59632SOL    HW180735  12.357  13.051   4.850
59632SOL    HW280736  12.328  13.200   4.852
59633SOL     OW80737   5.601   3.334   8.213
59633SOL    HW180738   5.516   3.289   8.220
59633SOL    HW280739   5.579   3.427   8.212
59634SOL     OW80740   4.542   5.291   1.128
59634SOL    HW180741   4.583   5.350   1.065
59634SOL    HW280742   4.456   5.273   1.090
59635SOL     OW80743  11.766   1.867  11.663
59635SOL    HW180744  11.682   1.912  11.669
59635SOL    HW280745  11.769   1.812  11.741
59636SOL     OW80746  13.961  11.190  13.629
59636SOL    HW180747  13.894  11.139  13.674
59636SOL    HW280748  13.970  11.150  13.543
59637SOL     OW80749   6.220   9.291   4.619
59637SOL    HW180750   6.315   9.279   4.625
59637SOL    HW280751   6.203   9.376   4.659
59638SOL     OW80752  11.301   9.801   5.487
59638SOL    HW180753  11.268   9.889   5.505
59638SOL    HW280754  11.229   9.743   5.514
59639SOL     OW80755   1.262   3.369   9.956
59639SOL    HW180756   1.225   3.431   9.893
59639SOL    HW280757   1.336   3.415   9.995
59640SOL     OW80758   4.645   3.541   0.677
59640SOL    HW180759   4.651   3.445   0.684
59640SOL    HW280760   4.621   3.569   0.765
59641SOL     OW80761   3.984  14.209   3.080
59641SOL    HW180762   4.019  14.253   3.157
59641SOL    HW280763   4.022  14.257   3.006
59642SOL     OW80764  11.609  14.188  12.944
59642SOL    HW180765  11.612  14.229  13.031
59642SOL    HW280766  11.516  14.188  12.921
59643SOL     OW80767  11.739  13.305   5.181
59643SOL    HW180768  11.798  13.267   5.116
59643SOL    HW280769  11.655  13.314   5.136
59644SOL     OW80770   8.333   8.061  12.064
59644SOL    HW180771   8.393   7.988  12.081
59644SOL    HW280772   8.358   8.127  12.128
59645SOL     OW80773   6.830  14.090   5.333
59645SOL    HW180774   6.875  14.074   5.415
59645SOL    HW280775   6.737  14.095   5.357
59646SOL     OW80776  14.853  12.542   4.311
59646SOL    HW180777  14.774  12.492   4.290
59646SOL    HW280778   0.017  12.562   4.225
59647SOL     OW80779   7.801   2.914  14.774
59647SOL    HW180780   7.881   2.883  14.731
59647SOL    HW280781   7.815   2.893  14.866
59648SOL     OW80782   3.907  11.965   5.985
59648SOL    HW180783   3.960  11.897   5.943
59648SOL    HW280784   3.928  12.045   5.937
59649SOL     OW80785  12.774  10.798   2.381
59649SOL    HW180786  12.774  10.806   2.477
59649SOL    HW280787  12.682  10.785   2.358
59650SOL     OW80788   9.135  12.389   9.574
59650SOL    HW180789   9.071  12.343   9.628
59650SOL    HW280790   9.206  12.410   9.635
59651SOL     OW80791   3.933  11.612   2.002
59651SOL    HW180792   3.929  11.707   2.011
59651SOL    HW280793   3.950  11.581   2.091
59652SOL     OW80794  11.549   1.805   7.838
59652SOL    HW180795  11.584   1.817   7.750
59652SOL    HW280796  11.486   1.734   7.831
59653SOL     OW80797   9.407   4.248   3.175
59653SOL    HW180798   9.495   4.249   3.136
59653SOL    HW280799   9.394   4.158   3.203
59654SOL     OW80800   9.710   1.788   3.825
59654SOL    HW180801   9.621   1.815   3.806
59654SOL    HW280802   9.710   1.693   3.813
59655SOL     OW80803  12.987   4.999   7.348
59655SOL    HW180804  12.895   4.985   7.329
59655SOL    HW280805  13.020   4.913   7.374
59656SOL     OW80806   0.016   5.356   7.808
59656SOL    HW180807  14.836   5.293   7.760
59656SOL    HW280808   0.007   5.330   7.900
59657SOL     OW80809  10.932   4.570   2.911
59657SOL    HW180810  10.937   4.657   2.872
59657SOL    HW280811  11.016   4.559   2.955
59658SOL     OW80812   1.319  11.107   3.700
59658SOL    HW180813   1.346  11.165   3.629
59658SOL    HW280814   1.276  11.165   3.763
59659SOL     OW80815   0.617  14.646   3.380
59659SOL    HW180816   0.704  14.686   3.381
59659SOL    HW280817   0.570  14.692   3.310
59660SOL     OW80818  14.433   9.698   3.569
59660SOL    HW180819  14.455   9.753   3.644
59660SOL    HW280820  14.432   9.609   3.603
59661SOL     OW80821  11.144   0.031   1.217
59661SOL    HW180822  11.083   0.040   1.143
59661SOL    HW280823  11.208  14.840   1.188
59662SOL     OW80824   7.625   9.587  10.754
59662SOL    HW180825   7.582   9.552  10.832
59662SOL    HW280826   7.608   9.681  10.758
59663SOL     OW80827   0.544  10.404   1.623
59663SOL    HW180828   0.560  10.497   1.635
59663SOL    HW280829   0.614  10.374   1.565
59664SOL     OW80830   6.571  12.968   9.496
59664SOL    HW180831   6.561  12.879   9.462
59664SOL    HW280832   6.619  12.957   9.578
59665SOL     OW80833  14.712   2.774   6.707
59665SOL    HW180834  14.684   2.734   6.624
59665SOL    HW280835  14.786   2.720   6.736
59666SOL     OW80836   3.006   8.307   3.561
59666SOL    HW180837   2.957   8.244   3.614
59666SOL    HW280838   3.096   8.275   3.562
59667SOL     OW80839   6.235  13.347   1.063
59667SOL    HW180840   6.241  13.286   0.990
59667SOL    HW280841   6.311  13.327   1.117
59668SOL     OW80842  14.173  12.449  12.638
59668SOL    HW180843  14.162  12.543  12.653
59668SOL    HW280844  14.087  12.420  12.607
59669SOL     OW80845   6.965  11.941   9.742
59669SOL    HW180846   6.956  12.022   9.693
59669SOL    HW280847   7.059  11.922   9.742
59670SOL     OW80848   7.558   6.824   1.512
59670SOL    HW180849   7.592   6.823   1.422
59670SOL    HW280850   7.610   6.757   1.557
59671SOL     OW80851   4.846   0.942   9.404
59671SOL    HW180852   4.930   0.965   9.362
59671SOL    HW280853   4.790   0.916   9.331
59672SOL     OW80854   1.363  10.461  14.737
59672SOL    HW180855   1.430  10.438  14.673
59672SOL    HW280856   1.348  10.555  14.723
59673SOL     OW80857  11.063   1.772   8.483
59673SOL    HW180858  11.049   1.802   8.573
59673SOL    HW280859  10.979   1.737   8.456
59674SOL     OW80860   3.430  14.547   5.128
59674SOL    HW180861   3.505  14.503   5.087
59674SOL    HW280862   3.464  14.631   5.156
59675SOL     OW80863   3.242   8.075   7.118
59675SOL    HW180864   3.324   8.123   7.132
59675SOL    HW280865   3.180   8.142   7.090
59676SOL     OW80866  12.744  11.974   7.120
59676SOL    HW180867  12.810  12.030   7.080
59676SOL    HW280868  12.661  12.016   7.099
59677SOL     OW80869  12.538   6.253   8.985
59677SOL    HW180870  12.455   6.214   8.960
59677SOL    HW280871  12.578   6.279   8.901
59678SOL     OW80872   6.015   1.532   7.140
59678SOL    HW180873   6.097   1.508   7.184
59678SOL    HW280874   5.969   1.449   7.128
59679SOL     OW80875  14.281   6.228   3.411
59679SOL    HW180876  14.356   6.171   3.393
59679SOL    HW280877  14.205   6.180   3.379
59680SOL     OW80878   1.464  10.679   2.680
59680SOL    HW180879   1.472  10.749   2.746
59680SOL    HW280880   1.456  10.599   2.731
59681SOL     OW80881  10.719   7.094   8.268
59681SOL    HW180882  10.778   7.110   8.342
59681SOL    HW280883  10.774   7.049   8.203
59682SOL     OW80884  14.551   2.085   8.957
59682SOL    HW180885  14.503   2.004   8.940
59682SOL    HW280886  14.491   2.138   9.009
59683SOL     OW80887   1.949   7.094  14.625
59683SOL    HW180888   1.936   7.047  14.542
59683SOL    HW280889   2.040   7.122  14.622
59684SOL     OW80890   5.350   6.757   1.988
59684SOL    HW180891   5.274   6.765   1.930
59684SOL    HW280892   5.314   6.728   2.072
59685SOL     OW80893  12.951   1.703  14.134
59685SOL    HW180894  12.971   1.651  14.056
59685SOL    HW280895  13.034   1.706  14.181
59686SOL     OW80896   7.121   7.013   1.141
59686SOL    HW180897   7.204   7.012   1.188
59686SOL    HW280898   7.056   6.988   1.207
59687SOL     OW80899  13.740   3.501  11.126
59687SOL    HW180900  13.724   3.430  11.064
59687SOL    HW280901  13.653   3.523  11.160
59688SOL     OW80902   0.501   7.418   2.499
59688SOL    HW180903   0.593   7.398   2.519
59688SOL    HW280904   0.486   7.380   2.413
59689SOL     OW80905  10.821   8.416   7.573
59689SOL    HW180906  10.726   8.405   7.561
59689SOL    HW280907  10.852   8.329   7.598
59690SOL     OW80908   8.951   7.507   0.736
59690SOL    HW180909   8.969   7.447   0.663
59690SOL    HW280910   8.914   7.451   0.804
59691SOL     OW80911   2.713   5.596  14.749
59691SOL    HW180912   2.800   5.569  14.780
59691SOL    HW280913   2.695   5.538  14.675
59692SOL     OW80914  12.469   9.247  14.107
59692SOL    HW180915  12.375   9.232  14.095
59692SOL    HW280916  12.475   9.294  14.190
59693SOL     OW80917   9.880   6.231  11.780
59693SOL    HW180918   9.910   6.315  11.745
59693SOL    HW280919   9.960   6.186  11.807
59694SOL     OW80920  10.021  14.270   2.958
59694SOL    HW180921  10.055  14.202   2.901
59694SOL    HW280922   9.985  14.335   2.899
59695SOL     OW80923   3.127  10.810   0.424
59695SOL    HW180924   3.211  10.766   0.436
59695SOL    HW280925   3.075  10.784   0.500
59696SOL     OW80926  12.918   4.866   4.256
59696SOL    HW180927  12.966   4.949   4.256
59696SOL    HW280928  12.985   4.799   4.240
59697SOL     OW80929   1.664   1.154  11.301
59697SOL    HW180930   1.608   1.165  11.378
59697SOL    HW280931   1.617   1.199  11.231
59698SOL     OW80932   7.436   5.780   2.771
59698SOL    HW180933   7.409   5.703   2.723
59698SOL    HW280934   7.407   5.854   2.717
59699SOL     OW80935   9.297   2.760  12.447
59699SOL    HW180936   9.343   2.779  12.365
59699SOL    HW280937   9.212   2.727  12.419
59700SOL     OW80938   5.255   4.917   4.335
59700SOL    HW180939   5.258   4.827   4.303
59700SOL    HW280940   5.168   4.949   4.309
59701SOL     OW80941   2.453   1.023  14.845
59701SOL    HW180942   2.393   0.953  14.820
59701SOL    HW280943   2.508   1.036  14.768
59702SOL     OW80944   3.569   5.937  13.467
59702SOL    HW180945   3.531   5.961  13.383
59702SOL    HW280946   3.657   5.976  13.465
59703SOL     OW80947  10.764   8.735  11.941
59703SOL    HW180948  10.726   8.823  11.937
59703SOL    HW280949  10.828   8.741  12.012
59704SOL     OW80950   2.992   1.250  14.498
59704SOL    HW180951   3.068   1.251  14.439
59704SOL    HW280952   2.998   1.332  14.546
59705SOL     OW80953  14.061  12.986   4.308
59705SOL    HW180954  14.123  12.930   4.354
59705SOL    HW280955  13.984  12.930   4.294
59706SOL     OW80956   8.256  12.819  12.480
59706SOL    HW180957   8.261  12.908  12.513
59706SOL    HW280958   8.340  12.779  12.503
59707SOL     OW80959  13.359   7.765   7.533
59707SOL    HW180960  13.401   7.827   7.474
59707SOL    HW280961  13.338   7.689   7.479
59708SOL     OW80962  11.532   2.981   4.034
59708SOL    HW180963  11.592   3.047   3.998
59708SOL    HW280964  11.448   3.000   3.992
59709SOL     OW80965   4.138  10.705  10.491
59709SOL    HW180966   4.171  10.619  10.517
59709SOL    HW280967   4.076  10.687  10.420
59710SOL     OW80968   5.802  14.792  12.798
59710SOL    HW180969   5.832   0.009  12.787
59710SOL    HW280970   5.800  14.780  12.893
59711SOL     OW80971   2.770   8.377   8.796
59711SOL    HW180972   2.865   8.373   8.780
59711SOL    HW280973   2.752   8.471   8.800
59712SOL     OW80974   9.766   4.056   8.731
59712SOL    HW180975   9.716   3.983   8.696
59712SOL    HW280976   9.848   4.018   8.761
59713SOL     OW80977  10.662   5.972  11.916
59713SOL    HW180978  10.617   5.956  11.833
59713SOL    HW280979  10.739   6.023  11.893
59714SOL     OW80980   3.982   1.166   3.454
59714SOL    HW180981   3.982   1.253   3.492
59714SOL    HW280982   3.920   1.116   3.508
59715SOL     OW80983   4.893   3.397  12.404
59715SOL    HW180984   4.957   3.361  12.466
59715SOL    HW280985   4.849   3.320  12.367
59716SOL     OW80986   3.433   7.219   1.462
59716SOL    HW180987   3.366   7.162   1.424
59716SOL    HW280988   3.404   7.233   1.552
59717SOL     OW80989  10.468   7.949  10.383
59717SOL    HW180990  10.493   8.039  10.367
59717SOL    HW280991  10.379   7.943  10.349
59718SOL     OW80992   8.406   5.421   7.547
59718SOL    HW180993   8.497   5.442   7.525
59718SOL    HW280994   8.362   5.507   7.550
59719SOL     OW80995   6.280  13.302  10.024
59719SOL    HW180996   6.216  13.372  10.037
59719SOL    HW280997   6.230  13.233   9.980
59720SOL     OW80998   8.350   6.105  13.963
59720SOL    HW180999   8.397   6.098  14.046
59720SOL    HW281000   8.338   6.014  13.935
59721SOL     OW81001   0.510   2.113   1.167
59721SOL    HW181002   0.460   2.182   1.124
59721SOL    HW281003   0.484   2.117   1.259
59722SOL     OW81004   5.417   7.721   7.092
59722SOL    HW181005   5.413   7.795   7.031
59722SOL    HW281006   5.365   7.749   7.167
59723SOL     OW81007   7.266  13.324   5.082
59723SOL    HW181008   7.257  13.252   5.144
59723SOL    HW281009   7.333  13.381   5.121
59724SOL     OW81010   9.362   3.882   4.578
59724SOL    HW181011   9.309   3.803   4.585
59724SOL    HW281012   9.429   3.871   4.645
59725SOL     OW81013  14.780  11.018   3.677
59725SOL    HW181014  14.708  11.070   3.641
59725SOL    HW281015  14.812  11.070   3.751
59726SOL     OW81016   4.490  11.582   0.290
59726SOL    HW181017   4.460  11.501   0.249
59726SOL    HW281018   4.410  11.630   0.310
59727SOL     OW81019   6.760   7.921   6.384
59727SOL    HW181020   6.846   7.941   6.423
59727SOL    HW281021   6.732   7.842   6.430
59728SOL     OW81022  11.542   2.558   4.405
59728SOL    HW181023  11.551   2.595   4.493
59728SOL    HW281024  11.547   2.634   4.347
59729SOL     OW81025   3.038   6.696  11.465
59729SOL    HW181026   3.032   6.713  11.559
59729SOL    HW281027   3.125   6.728  11.440
59730SOL     OW81028   9.834   8.382  11.387
59730SOL    HW181029   9.919   8.338  11.396
59730SOL    HW281030   9.855   8.465  11.343
59731SOL     OW81031   0.006   7.292   6.080
59731SOL    HW181032  14.834   7.217   6.119
59731SOL    HW281033   0.098   7.267   6.081
59732SOL     OW81034   6.605   7.270   9.291
59732SOL    HW181035   6.609   7.209   9.365
59732SOL    HW281036   6.517   7.261   9.256
59733SOL     OW81037   5.600   7.067  11.254
59733SOL    HW181038   5.590   7.089  11.161
59733SOL    HW281039   5.694   7.075  11.270
59734SOL     OW81040   7.398  12.599  13.711
59734SOL    HW181041   7.463  12.556  13.766
59734SOL    HW281042   7.314  12.562  13.739
59735SOL     OW81043   7.839  10.930   9.040
59735SOL    HW181044   7.867  10.988   9.111
59735SOL    HW281045   7.746  10.914   9.058
59736SOL     OW81046   8.636   0.911   2.867
59736SOL    HW181047   8.588   0.894   2.787
59736SOL    HW281048   8.576   0.964   2.920
59737SOL     OW81049  14.176  13.816   6.371
59737SOL    HW181050  14.171  13.905   6.407
59737SOL    HW281051  14.265  13.787   6.392
59738SOL     OW81052  10.869   1.395  10.447
59738SOL    HW181053  10.798   1.459  10.451
59738SOL    HW281054  10.915   1.404  10.531
59739SOL     OW81055   3.893  10.798   6.511
59739SOL    HW181056   3.922  10.725   6.456
59739SOL    HW281057   3.816  10.764   6.556
59740SOL     OW81058  11.768   4.888   8.973
59740SOL    HW181059  11.805   4.844   9.049
59740SOL    HW281060  11.842   4.933   8.933
59741SOL     OW81061  10.033   5.785   9.266
59741SOL    HW181062  10.123   5.764   9.291
59741SOL    HW281063   9.994   5.822   9.345
59742SOL     OW81064   9.994  10.631   5.160
59742SOL    HW181065   9.923  10.650   5.220
59742SOL    HW281066  10.057  10.701   5.174
59743SOL     OW81067  12.760   4.619  13.360
59743SOL    HW181068  12.818   4.627  13.284
59743SOL    HW281069  12.789   4.687  13.420
59744SOL     OW81070   6.336  12.611   1.785
59744SOL    HW181071   6.366  12.524   1.811
59744SOL    HW281072   6.311  12.653   1.867
59745SOL     OW81073  13.039  13.805   6.055
59745SOL    HW181074  13.056  13.759   5.973
59745SOL    HW281075  13.063  13.743   6.124
59746SOL     OW81076   6.729   8.295   5.816
59746SOL    HW181077   6.773   8.291   5.901
59746SOL    HW281078   6.677   8.376   5.819
59747SOL     OW81079  11.333   2.265   3.179
59747SOL    HW181080  11.316   2.340   3.236
59747SOL    HW281081  11.268   2.271   3.110
59748SOL     OW81082  11.820   5.608   2.522
59748SOL    HW181083  11.872   5.687   2.525
59748SOL    HW281084  11.757   5.623   2.451
59749SOL     OW81085   8.092   8.311   2.466
59749SOL    HW181086   8.142   8.374   2.414
59749SOL    HW281087   8.030   8.365   2.516
59750SOL     OW81088   4.230   6.348   5.854
59750SOL    HW181089   4.263   6.352   5.944
59750SOL    HW281090   4.291   6.402   5.804
59751SOL     OW81091   7.255   0.367  12.060
59751SOL    HW181092   7.300   0.303  12.006
59751SOL    HW281093   7.199   0.315  12.118
59752SOL     OW81094   8.836  12.107   6.264
59752SOL    HW181095   8.767  12.058   6.220
59752SOL    HW281096   8.802  12.196   6.272
59753SOL     OW81097   8.762   9.466  11.210
59753SOL    HW181098   8.733   9.496  11.124
59753SOL    HW281099   8.753   9.371  11.206
59754SOL     OW81100   3.836  12.470   4.378
59754SOL    HW181101   3.851  12.440   4.468
59754SOL    HW281102   3.741  12.474   4.369
59755SOL     OW81103  11.716   7.466   9.336
59755SOL    HW181104  11.774   7.463   9.260
59755SOL    HW281105  11.634   7.503   9.303
59756SOL     OW81106   6.386  10.125   4.540
59756SOL    HW181107   6.364  10.034   4.560
59756SOL    HW281108   6.429  10.121   4.455
59757SOL     OW81109   7.794   1.365   9.482
59757SOL    HW181110   7.832   1.425   9.546
59757SOL    HW281111   7.711   1.406   9.458
59758SOL     OW81112   4.309   4.822  14.067
59758SOL    HW181113   4.279   4.904  14.106
59758SOL    HW281114   4.365   4.783  14.134
59759SOL     OW81115  13.417   2.106   2.827
59759SOL    HW181116  13.490   2.046   2.839
59759SOL    HW281117  13.343   2.049   2.805
59760SOL     OW81118  12.419  11.018   7.699
59760SOL    HW181119  12.424  10.946   7.761
59760SOL    HW281120  12.399  10.977   7.615
59761SOL     OW81121   5.457   3.587   6.193
59761SOL    HW181122   5.551   3.569   6.199
59761SOL    HW281123   5.417   3.527   6.257
59762SOL     OW81124   1.765   5.496  14.768
59762SOL    HW181125   1.783   5.455  14.853
59762SOL    HW281126   1.670   5.503  14.765
59763SOL     OW81127   0.024   4.239   5.470
59763SOL    HW181128   0.109   4.202   5.495
59763SOL    HW281129  14.840   4.217   5.543
59764SOL     OW81130  13.204   4.458  13.541
59764SOL    HW181131  13.124   4.449  13.594
59764SOL    HW281132  13.174   4.495  13.459
59765SOL     OW81133   2.939   2.415  14.672
59765SOL    HW181134   2.997   2.339  14.682
59765SOL    HW281135   2.918   2.441  14.762
59766SOL     OW81136   3.872  10.142   9.172
59766SOL    HW181137   3.839  10.117   9.085
59766SOL    HW281138   3.965  10.155   9.159
59767SOL     OW81139   1.885   6.413  11.399
59767SOL    HW181140   1.873   6.456  11.314
59767SOL    HW281141   1.847   6.473  11.463
59768SOL     OW81142   9.106   5.626  10.285
59768SOL    HW181143   9.091   5.706  10.336
59768SOL    HW281144   9.057   5.558  10.331
59769SOL     OW81145  10.859   7.799   7.315
59769SOL    HW181146  10.933   7.785   7.373
59769SOL    HW281147  10.887   7.762   7.231
59770SOL     OW81148   9.031   5.545  12.080
59770SOL    HW181149   9.065   5.456  12.066
59770SOL    HW281150   9.072   5.597  12.010
59771SOL     OW81151   3.651   7.863   5.558
59771SOL    HW181152   3.608   7.779   5.543
59771SOL    HW281153   3.678   7.893   5.471
59772SOL     OW81154  13.074  14.111   0.905
59772SOL    HW181155  13.000  14.160   0.871
59772SOL    HW281156  13.096  14.155   0.987
59773SOL     OW81157  14.059   9.522  13.935
59773SOL    HW181158  14.154   9.517  13.925
59773SOL    HW281159  14.025   9.449  13.883
59774SOL     OW81160  14.535   5.400   6.906
59774SOL    HW181161  14.591   5.325   6.928
59774SOL    HW281162  14.451   5.380   6.948
59775SOL     OW81163   9.287   6.258   0.656
59775SOL    HW181164   9.227   6.314   0.607
59775SOL    HW281165   9.229   6.204   0.710
59776SOL     OW81166  11.668   6.967   4.037
59776SOL    HW181167  11.722   6.910   4.091
59776SOL    HW281168  11.713   7.051   4.037
59777SOL     OW81169   0.077   3.285   3.783
59777SOL    HW181170   0.020   3.286   3.859
59777SOL    HW281171   0.160   3.249   3.815
59778SOL     OW81172   7.319   6.713   4.233
59778SOL    HW181173   7.299   6.642   4.172
59778SOL    HW281174   7.393   6.759   4.193
59779SOL     OW81175  12.551   8.846  14.083
59779SOL    HW181176  12.596   8.813  14.161
59779SOL    HW281177  12.460   8.857  14.111
59780SOL     OW81178   2.273  11.719  10.205
59780SOL    HW181179   2.271  11.640  10.260
59780SOL    HW281180   2.363  11.724  10.174
59781SOL     OW81181   7.522  10.514   2.309
59781SOL    HW181182   7.432  10.541   2.290
59781SOL    HW281183   7.553  10.576   2.376
59782SOL     OW81184  11.391   2.293  11.586
59782SOL    HW181185  11.466   2.247  11.624
59782SOL    HW281186  11.370   2.362  11.648
59783SOL     OW81187  10.754  10.142  11.977
59783SOL    HW181188  10.681  10.105  12.026
59783SOL    HW281189  10.817  10.168  12.045
59784SOL     OW81190   1.759   8.548  13.813
59784SOL    HW181191   1.825   8.486  13.844
59784SOL    HW281192   1.803   8.600  13.747
59785SOL     OW81193   3.628   1.338   5.954
59785SOL    HW181194   3.688   1.339   5.879
59785SOL    HW281195   3.543   1.362   5.916
59786SOL     OW81196   0.202   0.309   3.734
59786SOL    HW181197   0.163   0.295   3.648
59786SOL    HW281198   0.293   0.334   3.717
59787SOL     OW81199  12.829   4.146   6.222
59787SOL    HW181200  12.838   4.233   6.262
59787SOL    HW281201  12.853   4.085   6.292
59788SOL     OW81202   1.791   1.179  11.896
59788SOL    HW181203   1.870   1.219  11.935
59788SOL    HW281204   1.795   1.205  11.804
59789SOL     OW81205   8.965   7.775   8.806
59789SOL    HW181206   8.889   7.797   8.752
59789SOL    HW281207   8.930   7.764   8.894
59790SOL     OW81208   7.734  12.779  13.969
59790SOL    HW181209   7.756  12.688  13.948
59790SOL    HW281210   7.817  12.818  13.995
59791SOL     OW81211   8.782   5.149  12.873
59791SOL    HW181212   8.785   5.128  12.967
59791SOL    HW281213   8.747   5.238  12.870
59792SOL     OW81214   1.375   8.771   7.889
59792SOL    HW181215   1.386   8.683   7.852
59792SOL    HW281216   1.335   8.821   7.818
59793SOL     OW81217   5.749  12.566  11.673
59793SOL    HW181218   5.791  12.638  11.720
59793SOL    HW281219   5.820  12.504  11.656
59794SOL     OW81220   5.726   7.513   3.209
59794SOL    HW181221   5.747   7.447   3.275
59794SOL    HW281222   5.632   7.528   3.218
59795SOL     OW81223   1.280   2.386  11.980
59795SOL    HW181224   1.322   2.311  11.939
59795SOL    HW281225   1.299   2.376  12.073
59796SOL     OW81226   5.159   7.734   6.615
59796SOL    HW181227   5.164   7.830   6.609
59796SOL    HW281228   5.152   7.705   6.524
59797SOL     OW81229  10.271   3.711   5.962
59797SOL    HW181230  10.322   3.710   5.880
59797SOL    HW281231  10.296   3.793   6.004
59798SOL     OW81232   1.234  10.548   4.772
59798SOL    HW181233   1.232  10.627   4.718
59798SOL    HW281234   1.320  10.510   4.758
59799SOL     OW81235   2.387   0.625   5.438
59799SOL    HW181236   2.380   0.691   5.507
59799SOL    HW281237   2.457   0.657   5.382
59800SOL     OW81238   3.871   5.153   6.622
59800SOL    HW181239   3.902   5.244   6.628
59800SOL    HW281240   3.776   5.160   6.633
59801SOL     OW81241  14.241   1.826   5.612
59801SOL    HW181242  14.178   1.896   5.595
59801SOL    HW281243  14.235   1.810   5.706
59802SOL     OW81244  10.771   6.665   0.520
59802SOL    HW181245  10.732   6.712   0.593
59802SOL    HW281246  10.841   6.613   0.559
59803SOL     OW81247   2.890   7.117   6.664
59803SOL    HW181248   2.942   7.082   6.592
59803SOL    HW281249   2.799   7.096   6.641
59804SOL     OW81250   2.107   0.240   6.867
59804SOL    HW181251   2.166   0.213   6.937
59804SOL    HW281252   2.133   0.188   6.791
59805SOL     OW81253   4.678   3.590   3.917
59805SOL    HW181254   4.758   3.542   3.940
59805SOL    HW281255   4.626   3.589   3.996
59806SOL     OW81256  14.231   2.006   6.691
59806SOL    HW181257  14.235   2.046   6.778
59806SOL    HW281258  14.314   1.961   6.681
59807SOL     OW81259   8.609   1.431   2.803
59807SOL    HW181260   8.673   1.359   2.810
59807SOL    HW281261   8.663   1.509   2.793
59808SOL     OW81262   7.890   1.900  11.479
59808SOL    HW181263   7.813   1.844  11.473
59808SOL    HW281264   7.864   1.971  11.538
59809SOL     OW81265   5.106  11.870  12.883
59809SOL    HW181266   5.019  11.897  12.855
59809SOL    HW281267   5.138  11.815  12.810
59810SOL     OW81268   3.558   6.354  10.553
59810SOL    HW181269   3.607   6.400  10.621
59810SOL    HW281270   3.596   6.386  10.471
59811SOL     OW81271   1.907  14.312   0.854
59811SOL    HW181272   1.939  14.306   0.764
59811SOL    HW281273   1.886  14.222   0.879
59812SOL     OW81274   1.173   1.743   7.897
59812SOL    HW181275   1.241   1.761   7.962
59812SOL    HW281276   1.211   1.675   7.840
59813SOL     OW81277   4.725  11.198   0.145
59813SOL    HW181278   4.791  11.212   0.212
59813SOL    HW281279   4.653  11.155   0.190
59814SOL     OW81280  14.753  11.569  13.899
59814SOL    HW181281  14.766  11.476  13.920
59814SOL    HW281282  14.796  11.616  13.970
59815SOL     OW81283   0.138   9.606   1.632
59815SOL    HW181284   0.094   9.639   1.554
59815SOL    HW281285   0.091   9.645   1.705
59816SOL     OW81286   2.566   6.151   1.340
59816SOL    HW181287   2.509   6.163   1.416
59816SOL    HW281288   2.545   6.064   1.306
59817SOL     OW81289   2.045  10.490   2.383
59817SOL    HW181290   2.090  10.510   2.465
59817SOL    HW281291   2.069  10.562   2.325
59818SOL     OW81292  10.549  13.050   4.731
59818SOL    HW181293  10.566  13.089   4.817
59818SOL    HW281294  10.596  12.967   4.732
59819SOL     OW81295   7.291   8.697   4.049
59819SOL    HW181296   7.366   8.680   3.992
59819SOL    HW281297   7.273   8.612   4.090
59820SOL     OW81298   5.907  11.762  11.120
59820SOL    HW181299   5.993  11.797  11.096
59820SOL    HW281300   5.852  11.840  11.133
59821SOL     OW81301   2.383  11.293   7.123
59821SOL    HW181302   2.446  11.247   7.179
59821SOL    HW281303   2.416  11.383   7.119
59822SOL     OW81304   6.127  11.766   0.609
59822SOL    HW181305   6.145  11.691   0.552
59822SOL    HW281306   6.048  11.742   0.657
59823SOL     OW81307   4.705   5.519  12.167
59823SOL    HW181308   4.665   5.454  12.225
59823SOL    HW281309   4.774   5.558  12.220
59824SOL     OW81310  12.309   6.235   4.052
59824SOL    HW181311  12.402   6.216   4.043
59824SOL    HW281312  12.280   6.258   3.964
59825SOL     OW81313   3.001   4.090   8.136
59825SOL    HW181314   2.957   4.171   8.109
59825SOL    HW281315   3.072   4.080   8.072
59826SOL     OW81316   6.237   0.450  10.693
59826SOL    HW181317   6.303   0.393  10.655
59826SOL    HW281318   6.166   0.390  10.719
59827SOL     OW81319   8.926   5.722  13.292
59827SOL    HW181320   8.907   5.632  13.267
59827SOL    HW281321   8.871   5.775  13.234
59828SOL     OW81322   0.187   1.403  11.712
59828SOL    HW181323   0.237   1.456  11.649
59828SOL    HW281324   0.247   1.391  11.785
59829SOL     OW81325  14.229   6.718   3.818
59829SOL    HW181326  14.197   6.802   3.782
59829SOL    HW281327  14.179   6.652   3.770
59830SOL     OW81328   2.278   5.632  10.733
59830SOL    HW181329   2.327   5.645  10.652
59830SOL    HW281330   2.240   5.544  10.724
59831SOL     OW81331   2.280   8.891   1.557
59831SOL    HW181332   2.329   8.863   1.634
59831SOL    HW281333   2.347   8.918   1.494
59832SOL     OW81334   0.617   7.669   0.728
59832SOL    HW181335   0.603   7.668   0.634
59832SOL    HW281336   0.712   7.657   0.738
59833SOL     OW81337   8.444   8.735  11.679
59833SOL    HW181338   8.407   8.674  11.615
59833SOL    HW281339   8.508   8.684  11.728
59834SOL     OW81340   2.374   2.090   1.605
59834SOL    HW181341   2.348   2.110   1.695
59834SOL    HW281342   2.346   2.165   1.554
59835SOL     OW81343   9.804  11.004   4.963
59835SOL    HW181344   9.823  10.918   4.926
59835SOL    HW281345   9.888  11.034   4.997
59836SOL     OW81346   9.900  12.291  12.590
59836SOL    HW181347   9.882  12.309  12.683
59836SOL    HW281348   9.884  12.197  12.580
59837SOL     OW81349   9.352   2.526   9.763
59837SOL    HW181350   9.403   2.548   9.841
59837SOL    HW281351   9.382   2.438   9.739
59838SOL     OW81352   9.814   3.606   4.593
59838SOL    HW181353   9.839   3.519   4.562
59838SOL    HW281354   9.879   3.664   4.554
59839SOL     OW81355  14.734  14.354   9.203
59839SOL    HW181356  14.671  14.421   9.177
59839SOL    HW281357  14.688  14.300   9.267
59840SOL     OW81358  12.485   1.589   2.491
59840SOL    HW181359  12.519   1.588   2.580
59840SOL    HW281360  12.469   1.682   2.472
59841SOL     OW81361   4.738   4.646  13.380
59841SOL    HW181362   4.808   4.581  13.384
59841SOL    HW281363   4.672   4.615  13.442
59842SOL     OW81364   2.407  10.172   7.937
59842SOL    HW181365   2.317  10.197   7.960
59842SOL    HW281366   2.457  10.253   7.949
59843SOL     OW81367   9.004   5.400  10.389
59843SOL    HW181368   8.993   5.332  10.323
59843SOL    HW281369   9.080   5.373  10.440
59844SOL     OW81370  10.257   8.374  13.236
59844SOL    HW181371  10.206   8.384  13.317
59844SOL    HW281372  10.270   8.280  13.227
59845SOL     OW81373   4.906   4.353   8.622
59845SOL    HW181374   4.949   4.404   8.553
59845SOL    HW281375   4.815   4.385   8.621
59846SOL     OW81376  14.640   9.336   4.205
59846SOL    HW181377  14.725   9.302   4.179
59846SOL    HW281378  14.618   9.289   4.285
59847SOL     OW81379   6.604   6.101  13.945
59847SOL    HW181380   6.559   6.088  14.028
59847SOL    HW281381   6.534   6.109  13.880
59848SOL     OW81382   0.376  10.327  12.495
59848SOL    HW181383   0.373  10.234  12.472
59848SOL    HW281384   0.290  10.345  12.534
59849SOL     OW81385   0.874  11.480   6.083
59849SOL    HW181386   0.944  11.453   6.142
59849SOL    HW281387   0.796  11.434   6.114
59850SOL     OW81388   3.796   6.085   3.429
59850SOL    HW181389   3.859   6.108   3.360
59850SOL    HW281390   3.756   6.168   3.453
59851SOL     OW81391  10.695   6.470   3.556
59851SOL    HW181392  10.659   6.524   3.627
59851SOL    HW281393  10.715   6.386   3.598
59852SOL     OW81394  14.000   5.477   8.287
59852SOL    HW181395  14.016   5.571   8.289
59852SOL    HW281396  14.016   5.452   8.196
59853SOL     OW81397   9.639  12.090   9.682
59853SOL    HW181398   9.668  12.091   9.773
59853SOL    HW281399   9.697  12.027   9.639
59854SOL     OW81400  13.998  11.659   5.114
59854SOL    HW181401  13.940  11.673   5.038
59854SOL    HW281402  14.035  11.571   5.100
59855SOL     OW81403  10.790   5.605  14.356
59855SOL    HW181404  10.739   5.524  14.360
59855SOL    HW281405  10.872   5.580  14.313
59856SOL     OW81406   7.587   6.517  10.196
59856SOL    HW181407   7.652   6.553  10.134
59856SOL    HW281408   7.565   6.591  10.252
59857SOL     OW81409   0.785   4.243   9.563
59857SOL    HW181410   0.744   4.171   9.515
59857SOL    HW281411   0.822   4.299   9.496
59858SOL     OW81412   8.938   2.235   3.072
59858SOL    HW181413   8.901   2.310   3.118
59858SOL    HW281414   9.018   2.214   3.120
59859SOL     OW81415   2.843   1.527   1.075
59859SOL    HW181416   2.807   1.536   0.987
59859SOL    HW281417   2.778   1.568   1.132
59860SOL     OW81418   9.569   6.944   9.726
59860SOL    HW181419   9.509   7.010   9.692
59860SOL    HW281420   9.527   6.860   9.705
59861SOL     OW81421   3.666   7.595   2.277
59861SOL    HW181422   3.746   7.645   2.265
59861SOL    HW281423   3.694   7.516   2.325
59862SOL     OW81424  14.019   5.365  13.377
59862SOL    HW181425  14.007   5.443  13.323
59862SOL    HW281426  14.104   5.329  13.349
59863SOL     OW81427   5.545  11.956   6.835
59863SOL    HW181428   5.583  11.912   6.911
59863SOL    HW281429   5.491  12.026   6.872
59864SOL     OW81430  13.235   2.324   1.396
59864SOL    HW181431  13.305   2.385   1.371
59864SOL    HW281432  13.261   2.241   1.356
59865SOL     OW81433   4.349   2.289  13.801
59865SOL    HW181434   4.418   2.351  13.777
59865SOL    HW281435   4.345   2.294  13.897
59866SOL     OW81436   3.141  11.407   6.298
59866SOL    HW181437   3.167  11.499   6.291
59866SOL    HW281438   3.195  11.373   6.370
59867SOL     OW81439   1.231   0.278  14.349
59867SOL    HW181440   1.217   0.183  14.344
59867SOL    HW281441   1.326   0.288  14.349
59868SOL     OW81442   2.110   8.982   2.986
59868SOL    HW181443   2.060   8.921   2.933
59868SOL    HW281444   2.067   9.067   2.972
59869SOL     OW81445  13.516   8.790  13.446
59869SOL    HW181446  13.457   8.842  13.500
59869SOL    HW281447  13.464   8.765  13.370
59870SOL     OW81448  10.220  14.445   4.334
59870SOL    HW181449  10.314  14.459   4.341
59870SOL    HW281450  10.197  14.395   4.413
59871SOL     OW81451   3.687  12.822   8.189
59871SOL    HW181452   3.674  12.914   8.212
59871SOL    HW281453   3.604  12.795   8.151
59872SOL     OW81454  13.165  11.137  11.071
59872SOL    HW181455  13.169  11.096  10.985
59872SOL    HW281456  13.106  11.212  11.060
59873SOL     OW81457   6.404   3.593   2.499
59873SOL    HW181458   6.343   3.660   2.529
59873SOL    HW281459   6.355   3.543   2.434
59874SOL     OW81460  10.604   3.952   8.734
59874SOL    HW181461  10.511   3.945   8.712
59874SOL    HW281462  10.620   3.877   8.792
59875SOL     OW81463  12.657  12.364  10.895
59875SOL    HW181464  12.605  12.414  10.831
59875SOL    HW281465  12.629  12.398  10.980
59876SOL     OW81466   2.879  11.573   8.334
59876SOL    HW181467   2.909  11.537   8.417
59876SOL    HW281468   2.933  11.651   8.321
59877SOL     OW81469   2.953  14.509   5.011
59877SOL    HW181470   3.009  14.524   5.087
59877SOL    HW281471   3.014  14.487   4.940
59878SOL     OW81472  14.106  13.807   4.829
59878SOL    HW181473  14.145  13.866   4.764
59878SOL    HW281474  14.173  13.742   4.845
59879SOL     OW81475  12.191   1.690   5.522
59879SOL    HW181476  12.151   1.637   5.454
59879SOL    HW281477  12.280   1.706   5.491
59880SOL     OW81478  12.476   9.351  13.425
59880SOL    HW181479  12.389   9.372  13.461
59880SOL    HW281480  12.503   9.430  13.379
59881SOL     OW81481   2.120   2.065   9.063
59881SOL    HW181482   2.083   2.016   8.990
59881SOL    HW281483   2.102   2.011   9.140
59882SOL     OW81484   2.697  12.494  14.047
59882SOL    HW181485   2.741  12.494  13.962
59882SOL    HW281486   2.729  12.415  14.090
59883SOL     OW81487  12.271   1.407   1.015
59883SOL    HW181488  12.254   1.318   0.985
59883SOL    HW281489  12.187   1.437   1.049
59884SOL     OW81490   0.419   6.062  12.666
59884SOL    HW181491   0.353   6.023  12.723
59884SOL    HW281492   0.431   5.997  12.597
59885SOL     OW81493   3.660   9.866   4.411
59885SOL    HW181494   3.735   9.920   4.434
59885SOL    HW281495   3.670   9.787   4.464
59886SOL     OW81496  11.764   8.749  14.190
59886SOL    HW181497  11.670   8.749  14.208
59886SOL    HW281498  11.785   8.842  14.177
59887SOL     OW81499   1.085   9.680   5.037
59887SOL    HW181500   1.054   9.721   4.957
59887SOL    HW281501   1.089   9.752   5.101
59888SOL     OW81502   6.905  13.010   5.317
59888SOL    HW181503   6.841  12.975   5.378
59888SOL    HW281504   6.967  12.938   5.303
59889SOL     OW81505  11.428   1.618   4.862
59889SOL    HW181506  11.486   1.601   4.936
59889SOL    HW281507  11.482   1.605   4.785
59890SOL     OW81508   5.386   5.370   9.605
59890SOL    HW181509   5.335   5.444   9.572
59890SOL    HW281510   5.357   5.360   9.696
59891SOL     OW81511  10.939  13.698   8.421
59891SOL    HW181512  10.908  13.786   8.438
59891SOL    HW281513  10.990  13.674   8.498
59892SOL     OW81514   4.780   7.342   4.655
59892SOL    HW181515   4.752   7.281   4.587
59892SOL    HW281516   4.738   7.310   4.734
59893SOL     OW81517   4.084   7.644   2.552
59893SOL    HW181518   4.019   7.617   2.617
59893SOL    HW281519   4.051   7.727   2.518
59894SOL     OW81520   9.467  13.852   9.551
59894SOL    HW181521   9.390  13.824   9.599
59894SOL    HW281522   9.461  13.948   9.548
59895SOL     OW81523   7.603  13.666  11.528
59895SOL    HW181524   7.547  13.718  11.586
59895SOL    HW281525   7.552  13.588  11.509
59896SOL     OW81526  14.100   3.122   7.360
59896SOL    HW181527  14.034   3.160   7.302
59896SOL    HW281528  14.075   3.153   7.448
59897SOL     OW81529   2.319   2.870   5.420
59897SOL    HW181530   2.344   2.954   5.382
59897SOL    HW281531   2.258   2.832   5.356
59898SOL     OW81532  10.105   9.789   0.407
59898SOL    HW181533  10.130   9.843   0.482
59898SOL    HW281534  10.187   9.764   0.366
59899SOL     OW81535  12.733  14.676   2.874
59899SOL    HW181536  12.669  14.660   2.943
59899SOL    HW281537  12.817  14.650   2.912
59900SOL     OW81538  13.143  12.769   0.257
59900SOL    HW181539  13.147  12.823   0.336
59900SOL    HW281540  13.208  12.700   0.272
59901SOL     OW81541  13.456   9.911  11.186
59901SOL    HW181542  13.374   9.911  11.236
59901SOL    HW281543  13.440   9.974  11.115
59902SOL     OW81544   6.942  13.483   4.155
59902SOL    HW181545   6.915  13.528   4.075
59902SOL    HW281546   6.894  13.400   4.154
59903SOL     OW81547   5.988  12.720   9.002
59903SOL    HW181548   5.984  12.719   9.097
59903SOL    HW281549   5.947  12.638   8.975
59904SOL     OW81550  12.832   1.700   3.735
59904SOL    HW181551  12.916   1.746   3.726
59904SOL    HW281552  12.791   1.709   3.649
59905SOL     OW81553   4.879   1.323  12.844
59905SOL    HW181554   4.894   1.272  12.765
59905SOL    HW281555   4.959   1.311  12.896
59906SOL     OW81556   3.877   1.716   1.788
59906SOL    HW181557   3.827   1.797   1.778
59906SOL    HW281558   3.950   1.739   1.846
59907SOL     OW81559   2.375  13.970   0.548
59907SOL    HW181560   2.337  13.914   0.479
59907SOL    HW281561   2.317  13.957   0.623
59908SOL     OW81562   8.811   1.813  12.922
59908SOL    HW181563   8.795   1.899  12.959
59908SOL    HW281564   8.890   1.824  12.869
59909SOL     OW81565   4.694   4.359  10.603
59909SOL    HW181566   4.638   4.346  10.680
59909SOL    HW281567   4.734   4.444  10.617
59910SOL     OW81568  10.884  11.039  10.193
59910SOL    HW181569  10.857  10.989  10.270
59910SOL    HW281570  10.817  11.107  10.184
59911SOL     OW81571   3.454   3.450  14.280
59911SOL    HW181572   3.430   3.375  14.334
59911SOL    HW281573   3.549   3.458  14.290
59912SOL     OW81574   3.900   4.994  12.604
59912SOL    HW181575   3.816   4.954  12.581
59912SOL    HW281576   3.929   5.036  12.523
59913SOL     OW81577  10.613  10.844  10.690
59913SOL    HW181578  10.624  10.932  10.724
59913SOL    HW281579  10.641  10.849  10.598
59914SOL     OW81580   1.244   0.261  11.939
59914SOL    HW181581   1.268   0.309  11.860
59914SOL    HW281582   1.318   0.202  11.955
59915SOL     OW81583  14.025   0.648   2.364
59915SOL    HW181584  13.991   0.721   2.415
59915SOL    HW281585  13.948   0.599   2.337
59916SOL     OW81586   4.374   9.736   2.326
59916SOL    HW181587   4.423   9.678   2.268
59916SOL    HW281588   4.290   9.750   2.282
59917SOL     OW81589   4.508   5.989  12.026
59917SOL    HW181590   4.487   6.074  12.066
59917SOL    HW281591   4.556   5.941  12.094
59918SOL     OW81592  12.865   1.847   4.770
59918SOL    HW181593  12.935   1.902   4.735
59918SOL    HW281594  12.805   1.908   4.813
59919SOL     OW81595   2.305   4.131   8.189
59919SOL    HW181596   2.359   4.067   8.235
59919SOL    HW281597   2.367   4.182   8.136
59920SOL     OW81598  12.380   0.308  11.690
59920SOL    HW181599  12.309   0.372  11.690
59920SOL    HW281600  12.341   0.230  11.650
59921SOL     OW81601   8.313  11.647   0.980
59921SOL    HW181602   8.341  11.641   1.071
59921SOL    HW281603   8.269  11.563   0.963
59922SOL     OW81604  10.442   7.117   2.724
59922SOL    HW181605  10.395   7.062   2.660
59922SOL    HW281606  10.519   7.148   2.676
59923SOL     OW81607   7.873  14.270   3.918
59923SOL    HW181608   7.846  14.203   3.855
59923SOL    HW281609   7.956  14.303   3.884
59924SOL     OW81610  10.907   6.879  13.481
59924SOL    HW181611  10.888   6.787  13.498
59924SOL    HW281612  10.993   6.878  13.437
59925SOL     OW81613  10.917   7.857   4.503
59925SOL    HW181614  10.986   7.803   4.466
59925SOL    HW281615  10.963   7.925   4.552
59926SOL     OW81616   1.298   1.339   5.043
59926SOL    HW181617   1.294   1.315   4.950
59926SOL    HW281618   1.299   1.256   5.089
59927SOL     OW81619   4.717  11.594   8.177
59927SOL    HW181620   4.703  11.635   8.091
59927SOL    HW281621   4.812  11.597   8.189
59928SOL     OW81622   8.342   1.669   3.569
59928SOL    HW181623   8.415   1.621   3.608
59928SOL    HW281624   8.274   1.603   3.557
59929SOL     OW81625   4.740   8.676   1.475
59929SOL    HW181626   4.762   8.631   1.393
59929SOL    HW281627   4.704   8.760   1.447
59930SOL     OW81628   8.558   7.215   6.759
59930SOL    HW181629   8.464   7.195   6.763
59930SOL    HW281630   8.568   7.293   6.814
59931SOL     OW81631   2.860  14.729   5.652
59931SOL    HW181632   2.835  14.649   5.605
59931SOL    HW281633   2.955  14.723   5.660
59932SOL     OW81634   0.477   7.573   9.094
59932SOL    HW181635   0.550   7.522   9.059
59932SOL    HW281636   0.511   7.663   9.098
59933SOL     OW81637   9.347  13.014   4.127
59933SOL    HW181638   9.306  13.100   4.132
59933SOL    HW281639   9.321  12.979   4.041
59934SOL     OW81640   5.602   3.989   1.433
59934SOL    HW181641   5.665   4.050   1.395
59934SOL    HW281642   5.652   3.908   1.446
59935SOL     OW81643   9.326   0.331   7.714
59935SOL    HW181644   9.350   0.266   7.648
59935SOL    HW281645   9.285   0.281   7.784
59936SOL     OW81646   5.047   1.926  12.097
59936SOL    HW181647   5.133   1.956  12.065
59936SOL    HW281648   5.060   1.833  12.116
59937SOL     OW81649  13.549   7.769  10.006
59937SOL    HW181650  13.486   7.711   9.962
59937SOL    HW281651  13.541   7.746  10.099
59938SOL     OW81652   5.738   8.379   9.642
59938SOL    HW181653   5.795   8.331   9.703
59938SOL    HW281654   5.663   8.320   9.629
59939SOL     OW81655  11.740   1.963   3.052
59939SOL    HW181656  11.783   1.988   2.970
59939SOL    HW281657  11.717   2.046   3.093
59940SOL     OW81658   9.068   2.804   9.454
59940SOL    HW181659   9.126   2.728   9.457
59940SOL    HW281660   9.077   2.844   9.540
59941SOL     OW81661  12.316   4.229  11.664
59941SOL    HW181662  12.396   4.219  11.715
59941SOL    HW281663  12.292   4.140  11.639
59942SOL     OW81664  11.972   0.419  13.754
59942SOL    HW181665  11.939   0.429  13.665
59942SOL    HW281666  12.007   0.505  13.776
59943SOL     OW81667  13.485   1.843  10.678
59943SOL    HW181668  13.455   1.785  10.747
59943SOL    HW281669  13.493   1.786  10.601
59944SOL     OW81670   6.089   7.744   9.472
59944SOL    HW181671   6.158   7.776   9.530
59944SOL    HW281672   6.012   7.797   9.495
59945SOL     OW81673   4.801   2.495   2.131
59945SOL    HW181674   4.750   2.574   2.149
59945SOL    HW281675   4.861   2.522   2.061
59946SOL     OW81676   0.189   4.662   0.536
59946SOL    HW181677   0.125   4.678   0.467
59946SOL    HW281678   0.244   4.740   0.537
59947SOL     OW81679  12.867  10.773   7.616
59947SOL    HW181680  12.882  10.855   7.664
59947SOL    HW281681  12.954  10.747   7.585
59948SOL     OW81682  12.197  12.409   7.728
59948SOL    HW181683  12.145  12.348   7.675
59948SOL    HW281684  12.142  12.428   7.804
59949SOL     OW81685   9.207   9.264   3.390
59949SOL    HW181686   9.207   9.359   3.380
59949SOL    HW281687   9.292   9.235   3.359
59950SOL     OW81688   3.602   7.808  10.865
59950SOL    HW181689   3.575   7.893  10.899
59950SOL    HW281690   3.667   7.829  10.797
59951SOL     OW81691   9.232  10.487  13.409
59951SOL    HW181692   9.318  10.528  13.416
59951SOL    HW281693   9.179  10.528  13.478
59952SOL     OW81694   2.624   0.184   2.050
59952SOL    HW181695   2.681   0.219   1.982
59952SOL    HW281696   2.570   0.259   2.076
59953SOL     OW81697  10.831   5.800   7.021
59953SOL    HW181698  10.772   5.770   7.090
59953SOL    HW281699  10.773   5.831   6.952
59954SOL     OW81700  11.484   7.662   6.195
59954SOL    HW181701  11.474   7.606   6.272
59954SOL    HW281702  11.555   7.723   6.218
59955SOL     OW81703   4.299   5.734   3.971
59955SOL    HW181704   4.238   5.665   3.946
59955SOL    HW281705   4.289   5.742   4.066
59956SOL     OW81706  14.708   7.457   5.216
59956SOL    HW181707  14.767   7.409   5.157
59956SOL    HW281708  14.762   7.478   5.292
59957SOL     OW81709   5.439   7.000  14.726
59957SOL    HW181710   5.386   6.922  14.743
59957SOL    HW281711   5.517   6.989  14.781
59958SOL     OW81712  10.731  10.925  10.454
59958SOL    HW181713  10.730  11.020  10.466
59958SOL    HW281714  10.675  10.910  10.378
59959SOL     OW81715   5.759   8.578   3.024
59959SOL    HW181716   5.669   8.602   3.046
59959SOL    HW281717   5.780   8.629   2.946
59960SOL     OW81718  14.465   9.495   6.274
59960SOL    HW181719  14.378   9.516   6.243
59960SOL    HW281720  14.451   9.427   6.340
59961SOL     OW81721   9.653   5.697   6.291
59961SOL    HW181722   9.560   5.714   6.279
59961SOL    HW281723   9.671   5.620   6.236
59962SOL     OW81724   9.842   8.725   5.637
59962SOL    HW181725   9.793   8.665   5.580
59962SOL    HW281726   9.777   8.788   5.667
59963SOL     OW81727   7.368   4.414   2.313
59963SOL    HW181728   7.387   4.334   2.363
59963SOL    HW281729   7.273   4.416   2.306
59964SOL     OW81730   0.929  11.594  10.094
59964SOL    HW181731   0.948  11.634  10.009
59964SOL    HW281732   0.855  11.643  10.128
59965SOL     OW81733   6.558  10.431   8.712
59965SOL    HW181734   6.571  10.352   8.765
59965SOL    HW281735   6.463  10.445   8.713
59966SOL     OW81736   3.430  11.287  11.488
59966SOL    HW181737   3.372  11.307  11.562
59966SOL    HW281738   3.429  11.366  11.435
59967SOL     OW81739   6.203   2.704   3.470
59967SOL    HW181740   6.292   2.686   3.499
59967SOL    HW281741   6.150   2.699   3.549
59968SOL     OW81742  13.368  14.348   2.604
59968SOL    HW181743  13.367  14.383   2.515
59968SOL    HW281744  13.458  14.360   2.634
59969SOL     OW81745  13.374   1.395   2.211
59969SOL    HW181746  13.451   1.342   2.189
59969SOL    HW281747  13.365   1.387   2.306
59970SOL     OW81748   8.297   4.228   7.331
59970SOL    HW181749   8.322   4.319   7.313
59970SOL    HW281750   8.271   4.193   7.245
59971SOL     OW81751   8.177   4.897   4.409
59971SOL    HW181752   8.157   4.986   4.439
59971SOL    HW281753   8.131   4.840   4.470
59972SOL     OW81754   1.291   9.090   6.018
59972SOL    HW181755   1.228   9.066   5.950
59972SOL    HW281756   1.309   9.183   6.002
59973SOL     OW81757  12.294   1.901   7.686
59973SOL    HW181758  12.212   1.851   7.678
59973SOL    HW281759  12.300   1.922   7.779
59974SOL     OW81760   9.214  14.370  11.198
59974SOL    HW181761   9.229  14.355  11.104
59974SOL    HW281762   9.185  14.286  11.231
59975SOL     OW81763  14.397   9.192   8.308
59975SOL    HW181764  14.443   9.273   8.331
59975SOL    HW281765  14.460   9.122   8.330
59976SOL     OW81766   3.792   6.851   4.110
59976SOL    HW181767   3.815   6.936   4.149
59976SOL    HW281768   3.697   6.857   4.096
59977SOL     OW81769   2.136  13.677  10.471
59977SOL    HW181770   2.085  13.616  10.417
59977SOL    HW281771   2.098  13.763  10.452
59978SOL     OW81772   1.093   1.447   2.869
59978SOL    HW181773   1.003   1.459   2.838
59978SOL    HW281774   1.086   1.452   2.965
59979SOL     OW81775   7.425   9.796   1.098
59979SOL    HW181776   7.348   9.837   1.138
59979SOL    HW281777   7.389   9.740   1.029
59980SOL     OW81778   7.101  10.891  12.683
59980SOL    HW181779   7.075  10.983  12.691
59980SOL    HW281780   7.047  10.857  12.611
59981SOL     OW81781   7.304   6.008   7.899
59981SOL    HW181782   7.287   5.976   7.988
59981SOL    HW281783   7.279   5.936   7.842
59982SOL     OW81784   2.852   3.281  10.146
59982SOL    HW181785   2.932   3.285  10.094
59982SOL    HW281786   2.877   3.317  10.231
59983SOL     OW81787  10.410   1.244  12.258
59983SOL    HW181788  10.397   1.335  12.285
59983SOL    HW281789  10.391   1.245  12.164
59984SOL     OW81790  10.304   5.456   6.013
59984SOL    HW181791  10.374   5.460   6.078
59984SOL    HW281792  10.248   5.531   6.034
59985SOL     OW81793   5.169   0.492   2.258
59985SOL    HW181794   5.084   0.453   2.277
59985SOL    HW281795   5.179   0.562   2.322
59986SOL     OW81796   5.991   9.117   5.634
59986SOL    HW181797   5.918   9.055   5.638
59986SOL    HW281798   5.963   9.184   5.573
59987SOL     OW81799   2.622   7.342  12.035
59987SOL    HW181800   2.622   7.306  11.947
59987SOL    HW281801   2.630   7.437  12.022
59988SOL     OW81802   7.727   5.591  13.019
59988SOL    HW181803   7.777   5.614  12.942
59988SOL    HW281804   7.653   5.539  12.986
59989SOL     OW81805  10.448  14.104   4.317
59989SOL    HW181806  10.482  14.027   4.270
59989SOL    HW281807  10.422  14.164   4.247
59990SOL     OW81808   6.288   4.470   5.254
59990SOL    HW181809   6.228   4.500   5.322
59990SOL    HW281810   6.231   4.439   5.183
59991SOL     OW81811   1.472   2.020  11.210
59991SOL    HW181812   1.516   1.980  11.285
59991SOL    HW281813   1.536   2.015  11.139
59992SOL     OW81814   2.339   1.140   6.080
59992SOL    HW181815   2.263   1.103   6.037
59992SOL    HW281816   2.406   1.146   6.012
59993SOL     OW81817   3.381   6.843   0.122
59993SOL    HW181818   3.473   6.828   0.105
59993SOL    HW281819   3.337   6.823   0.039
59994SOL     OW81820   1.461   8.867   2.762
59994SOL    HW181821   1.497   8.790   2.806
59994SOL    HW281822   1.516   8.879   2.685
59995SOL     OW81823  11.041   2.106  12.791
59995SOL    HW181824  11.042   2.188  12.840
59995SOL    HW281825  11.104   2.120  12.720
59996SOL     OW81826   0.498   9.675   5.917
59996SOL    HW181827   0.458   9.692   6.003
59996SOL    HW281828   0.423   9.656   5.860
59997SOL     OW81829  11.064   4.992   3.984
59997SOL    HW181830  10.971   4.972   3.978
59997SOL    HW281831  11.071   5.083   3.956
59998SOL     OW81832  10.827   0.429  12.463
59998SOL    HW181833  10.748   0.472  12.430
59998SOL    HW281834  10.795   0.349  12.506
59999SOL     OW81835   0.282   4.786  13.929
59999SOL    HW181836   0.328   4.767  13.847
59999SOL    HW281837   0.212   4.846  13.904
60000SOL     OW81838   7.558   7.367  11.140
60000SOL    HW181839   7.517   7.309  11.077
60000SOL    HW281840   7.487   7.421  11.174
60001SOL     OW81841  12.168  10.154   4.941
60001SOL    HW181842  12.174  10.237   4.989
60001SOL    HW281843  12.105  10.102   4.991
60002SOL     OW81844   4.635  11.064   5.207
60002SOL    HW181845   4.635  10.976   5.245
60002SOL    HW281846   4.586  11.117   5.271
60003SOL     OW81847  12.775   5.699   1.767
60003SOL    HW181848  12.812   5.625   1.720
60003SOL    HW281849  12.681   5.692   1.751
60004SOL     OW81850   6.873   4.215   5.062
60004SOL    HW181851   6.948   4.161   5.035
60004SOL    HW281852   6.843   4.175   5.144
60005SOL     OW81853   1.707   9.406   9.824
60005SOL    HW181854   1.801   9.393   9.816
60005SOL    HW281855   1.696   9.451   9.907
60006SOL     OW81856   9.601   8.294   0.976
60006SOL    HW181857   9.583   8.364   0.914
60006SOL    HW281858   9.526   8.234   0.968
60007SOL     OW81859   8.857   3.107  11.055
60007SOL    HW181860   8.778   3.139  11.098
60007SOL    HW281861   8.889   3.181  11.003
60008SOL     OW81862   1.596   4.394   9.023
60008SOL    HW181863   1.526   4.457   9.006
60008SOL    HW281864   1.554   4.326   9.075
60009SOL     OW81865   4.634  12.462   2.351
60009SOL    HW181866   4.624  12.426   2.263
60009SOL    HW281867   4.672  12.391   2.402
60010SOL     OW81868  10.097   9.742   9.877
60010SOL    HW181869  10.124   9.748   9.969
60010SOL    HW281870  10.179   9.745   9.828
60011SOL     OW81871   9.735  12.069   6.449
60011SOL    HW181872   9.708  12.012   6.377
60011SOL    HW281873   9.659  12.124   6.466
60012SOL     OW81874   2.562  14.858  11.513
60012SOL    HW181875   2.516  14.793  11.459
60012SOL    HW281876   2.501   0.058  11.519
60013SOL     OW81877  11.321  14.697  13.090
60013SOL    HW181878  11.412  14.672  13.106
60013SOL    HW281879  11.281  14.698  13.177
60014SOL     OW81880  12.071  14.276  12.676
60014SOL    HW181881  11.998  14.334  12.652
60014SOL    HW281882  12.148  14.332  12.674
60015SOL     OW81883   1.315   5.023   7.421
60015SOL    HW181884   1.411   5.025   7.429
60015SOL    HW281885   1.297   4.940   7.377
60016SOL     OW81886   3.961   5.219  10.040
60016SOL    HW181887   4.052   5.201  10.061
60016SOL    HW281888   3.949   5.182   9.952
60017SOL     OW81889  10.662   6.108   0.293
60017SOL    HW181890  10.698   6.046   0.357
60017SOL    HW281891  10.603   6.055   0.239
60018SOL     OW81892   6.247  14.701   7.099
60018SOL    HW181893   6.331  14.678   7.059
60018SOL    HW281894   6.253  14.670   7.189
60019SOL     OW81895   5.099   2.036   2.738
60019SOL    HW181896   5.096   2.012   2.645
60019SOL    HW281897   5.184   2.003   2.769
60020SOL     OW81898  14.016   7.232  10.854
60020SOL    HW181899  14.099   7.184  10.860
60020SOL    HW281900  13.978   7.224  10.942
60021SOL     OW81901   0.523   2.858  13.596
60021SOL    HW181902   0.575   2.896  13.526
60021SOL    HW281903   0.580   2.861  13.673
60022SOL     OW81904   1.119   8.124   1.404
60022SOL    HW181905   1.092   8.188   1.340
60022SOL    HW281906   1.136   8.175   1.484
60023SOL     OW81907  13.613  11.109  12.307
60023SOL    HW181908  13.619  11.070  12.394
60023SOL    HW281909  13.695  11.084  12.264
60024SOL     OW81910   0.731   0.851  14.485
60024SOL    HW181911   0.743   0.903  14.564
60024SOL    HW281912   0.707   0.915  14.417
60025SOL     OW81913   9.182   8.990   2.875
60025SOL    HW181914   9.208   8.972   2.785
60025SOL    HW281915   9.143   9.078   2.872
60026SOL     OW81916   6.302  11.902   3.626
60026SOL    HW181917   6.242  11.976   3.618
60026SOL    HW281918   6.361  11.910   3.551
60027SOL     OW81919   9.892  10.346  12.803
60027SOL    HW181920   9.931  10.274  12.854
60027SOL    HW281921   9.799  10.324  12.798
60028SOL     OW81922   8.049  12.312   2.663
60028SOL    HW181923   7.956  12.292   2.661
60028SOL    HW281924   8.093  12.229   2.647
60029SOL     OW81925  12.923  12.983  11.723
60029SOL    HW181926  12.936  12.945  11.636
60029SOL    HW281927  13.005  13.027  11.743
60030SOL     OW81928  11.572  11.929  10.056
60030SOL    HW181929  11.653  11.956  10.011
60030SOL    HW281930  11.593  11.844  10.094
60031SOL     OW81931  11.229   2.912  14.612
60031SOL    HW181932  11.269   2.939  14.695
60031SOL    HW281933  11.266   2.973  14.547
60032SOL     OW81934   7.990  11.155   6.324
60032SOL    HW181935   8.029  11.097   6.258
60032SOL    HW281936   8.053  11.228   6.332
60033SOL     OW81937   9.530   4.564   9.362
60033SOL    HW181938   9.474   4.553   9.440
60033SOL    HW281939   9.554   4.656   9.364
60034SOL     OW81940   5.458   1.499   6.198
60034SOL    HW181941   5.425   1.496   6.288
60034SOL    HW281942   5.477   1.407   6.177
60035SOL     OW81943   7.999   8.345  14.075
60035SOL    HW181944   7.940   8.420  14.071
60035SOL    HW281945   7.960   8.281  14.016
60036SOL     OW81946  14.862  11.992   1.860
60036SOL    HW181947   0.082  11.988   1.846
60036SOL    HW281948  14.846  12.083   1.886
60037SOL     OW81949   6.547  14.624   2.730
60037SOL    HW181950   6.527  14.702   2.678
60037SOL    HW281951   6.464  14.576   2.734
60038SOL     OW81952   6.852   9.897   1.968
60038SOL    HW181953   6.791   9.928   2.035
60038SOL    HW281954   6.796   9.877   1.893
60039SOL     OW81955  11.931   7.432   7.641
60039SOL    HW181956  11.961   7.344   7.662
60039SOL    HW281957  11.922   7.433   7.546
60040SOL     OW81958   2.983   4.652   2.503
60040SOL    HW181959   3.015   4.727   2.553
60040SOL    HW281960   2.888   4.654   2.515
60041SOL     OW81961   1.910   4.437  13.404
60041SOL    HW181962   1.880   4.365  13.349
60041SOL    HW281963   1.941   4.395  13.484
60042SOL     OW81964  11.098  14.592  14.291
60042SOL    HW181965  11.125  14.683  14.281
60042SOL    HW281966  11.021  14.583  14.235
60043SOL     OW81967   9.305   1.891   2.105
60043SOL    HW181968   9.345   1.925   2.185
60043SOL    HW281969   9.377   1.852   2.056
60044SOL     OW81970   2.929  14.269   9.233
60044SOL    HW181971   2.903  14.214   9.159
60044SOL    HW281972   2.859  14.334   9.241
60045SOL     OW81973   0.211   0.588   9.144
60045SOL    HW181974   0.290   0.619   9.189
60045SOL    HW281975   0.237   0.504   9.106
60046SOL     OW81976   5.424  14.709   2.373
60046SOL    HW181977   5.473  14.640   2.329
60046SOL    HW281978   5.354  14.732   2.311
60047SOL     OW81979   4.377   5.334  11.379
60047SOL    HW181980   4.440   5.405  11.390
60047SOL    HW281981   4.367   5.325  11.284
60048SOL     OW81982  13.293   7.562   2.808
60048SOL    HW181983  13.242   7.481   2.796
60048SOL    HW281984  13.259   7.600   2.888
60049SOL     OW81985  12.973  13.580  12.558
60049SOL    HW181986  12.891  13.584  12.509
60049SOL    HW281987  13.038  13.551  12.494
60050SOL     OW81988   4.067   0.239   3.394
60050SOL    HW181989   4.151   0.196   3.384
60050SOL    HW281990   4.049   0.236   3.489
60051SOL     OW81991   0.689   1.917   8.649
60051SOL    HW181992   0.603   1.961   8.649
60051SOL    HW281993   0.683   1.854   8.578
60052SOL     OW81994   7.044   7.736   6.702
60052SOL    HW181995   7.012   7.770   6.785
60052SOL    HW281996   7.088   7.811   6.661
60053SOL     OW81997  10.038  13.614  10.736
60053SOL    HW181998  10.049  13.687  10.674
60053SOL    HW281999   9.947  13.620  10.764
60054SOL     OW82000   9.944   3.229   3.394
60054SOL    HW182001   9.901   3.296   3.446
60054SOL    HW282002   9.983   3.169   3.458
60055SOL     OW82003  14.757   6.870   9.185
60055SOL    HW182004  14.813   6.833   9.253
60055SOL    HW282005  14.817   6.898   9.116
60056SOL     OW82006   4.818   5.711  11.523
60056SOL    HW182007   4.767   5.632  11.509
60056SOL    HW282008   4.908   5.686  11.505
60057SOL     OW82009   7.983   9.405   6.901
60057SOL    HW182010   8.009   9.474   6.963
60057SOL    HW282011   7.916   9.447   6.846
60058SOL     OW82012   4.579   0.280   3.753
60058SOL    HW182013   4.504   0.252   3.804
60058SOL    HW282014   4.630   0.200   3.739
60059SOL     OW82015   1.808   6.059   3.524
60059SOL    HW182016   1.746   6.029   3.457
60059SOL    HW282017   1.870   6.114   3.476
60060SOL     OW82018   9.653   9.329   7.734
60060SOL    HW182019   9.584   9.389   7.763
60060SOL    HW282020   9.623   9.296   7.650
60061SOL     OW82021   3.700   6.509   0.808
60061SOL    HW182022   3.760   6.583   0.818
60061SOL    HW282023   3.614   6.550   0.794
60062SOL     OW82024  12.273   8.057   9.006
60062SOL    HW182025  12.272   8.016   8.919
60062SOL    HW282026  12.304   7.989   9.065
60063SOL     OW82027  13.854   8.194   5.424
60063SOL    HW182028  13.867   8.244   5.343
60063SOL    HW282029  13.813   8.113   5.396
60064SOL     OW82030   0.765   1.343  10.558
60064SOL    HW182031   0.696   1.389  10.606
60064SOL    HW282032   0.837   1.336  10.619
60065SOL     OW82033   0.942   1.843   9.786
60065SOL    HW182034   0.946   1.853   9.881
60065SOL    HW282035   1.025   1.801   9.763
60066SOL     OW82036   0.724   5.724   6.901
60066SOL    HW182037   0.638   5.761   6.882
60066SOL    HW282038   0.783   5.800   6.901
60067SOL     OW82039   8.901  11.519   0.822
60067SOL    HW182040   8.864  11.520   0.910
60067SOL    HW282041   8.882  11.606   0.786
60068SOL     OW82042   7.143   0.254   5.506
60068SOL    HW182043   7.207   0.187   5.531
60068SOL    HW282044   7.070   0.205   5.468
60069SOL     OW82045   4.235   1.656   0.594
60069SOL    HW182046   4.281   1.701   0.665
60069SOL    HW282047   4.218   1.725   0.530
60070SOL     OW82048   3.538   1.091   8.726
60070SOL    HW182049   3.499   1.177   8.740
60070SOL    HW282050   3.513   1.067   8.637
60071SOL     OW82051  12.556  13.446   6.649
60071SOL    HW182052  12.595  13.364   6.681
60071SOL    HW282053  12.504  13.420   6.573
60072SOL     OW82054   9.892   5.475   5.484
60072SOL    HW182055   9.952   5.404   5.508
60072SOL    HW282056   9.830   5.435   5.423
60073SOL     OW82057   4.283   0.069  13.439
60073SOL    HW182058   4.302   0.141  13.500
60073SOL    HW282059   4.202   0.096  13.395
60074SOL     OW82060   5.797  13.645   9.821
60074SOL    HW182061   5.840  13.718   9.776
60074SOL    HW282062   5.840  13.567   9.787
60075SOL     OW82063  11.226   4.642  14.397
60075SOL    HW182064  11.296   4.683  14.345
60075SOL    HW282065  11.153   4.704  14.390
60076SOL     OW82066   2.875  11.598   2.581
60076SOL    HW182067   2.799  11.615   2.636
60076SOL    HW282068   2.868  11.505   2.558
60077SOL     OW82069   9.880   9.333   5.413
60077SOL    HW182070   9.951   9.331   5.477
60077SOL    HW282071   9.815   9.271   5.446
60078SOL     OW82072   1.211  12.145  13.433
60078SOL    HW182073   1.116  12.133  13.436
60078SOL    HW282074   1.247  12.063  13.469
60079SOL     OW82075   0.212   2.835   4.345
60079SOL    HW182076   0.291   2.882   4.370
60079SOL    HW282077   0.187   2.786   4.423
60080SOL     OW82078   3.347   9.041  11.246
60080SOL    HW182079   3.385   9.124  11.216
60080SOL    HW282080   3.261   9.038  11.204
60081SOL     OW82081   6.356   6.678   2.000
60081SOL    HW182082   6.283   6.621   1.978
60081SOL    HW282083   6.425   6.618   2.029
60082SOL     OW82084  12.458   5.131  13.074
60082SOL    HW182085  12.394   5.195  13.106
60082SOL    HW282086  12.528   5.133  13.139
60083SOL     OW82087  12.591   3.648   9.939
60083SOL    HW182088  12.628   3.567   9.904
60083SOL    HW282089  12.497   3.632   9.943
60084SOL     OW82090   9.420  12.638   4.726
60084SOL    HW182091   9.474  12.684   4.661
60084SOL    HW282092   9.337  12.621   4.681
60085SOL     OW82093  13.819   8.213   6.481
60085SOL    HW182094  13.825   8.302   6.445
60085SOL    HW282095  13.728   8.205   6.510
60086SOL     OW82096  11.208   7.577   0.439
60086SOL    HW182097  11.298   7.576   0.473
60086SOL    HW282098  11.165   7.503   0.482
60087SOL     OW82099   9.853  13.058   3.880
60087SOL    HW182100   9.758  13.046   3.883
60087SOL    HW282101   9.876  13.093   3.966
60088SOL     OW82102  13.820   4.011  14.476
60088SOL    HW182103  13.795   4.103  14.474
60088SOL    HW282104  13.738   3.963  14.467
60089SOL     OW82105   4.993   3.551  10.331
60089SOL    HW182106   5.042   3.571  10.411
60089SOL    HW282107   5.013   3.460  10.313
60090SOL     OW82108  12.194  10.987   2.561
60090SOL    HW182109  12.191  10.977   2.466
60090SOL    HW282110  12.102  10.994   2.587
60091SOL     OW82111  14.601  10.054   9.808
60091SOL    HW182112  14.532  10.026   9.747
60091SOL    HW282113  14.615  10.147   9.787
60092SOL     OW82114   0.608  14.191   5.749
60092SOL    HW182115   0.607  14.114   5.806
60092SOL    HW282116   0.577  14.262   5.805
60093SOL     OW82117   5.132   6.755   1.814
60093SOL    HW182118   5.064   6.810   1.774
60093SOL    HW282119   5.172   6.710   1.740
60094SOL     OW82120   5.681   5.030   8.885
60094SOL    HW182121   5.622   4.986   8.946
60094SOL    HW282122   5.628   5.103   8.850
60095SOL     OW82123   0.512   6.979   1.097
60095SOL    HW182124   0.573   6.924   1.147
60095SOL    HW282125   0.563   7.057   1.075
60096SOL     OW82126   7.037  12.145  11.058
60096SOL    HW182127   7.012  12.070  11.005
60096SOL    HW282128   7.096  12.195  11.002
60097SOL     OW82129  13.994   0.311   8.609
60097SOL    HW182130  14.083   0.317   8.641
60097SOL    HW282131  13.942   0.360   8.672
60098SOL     OW82132   7.460   7.624  13.116
60098SOL    HW182133   7.469   7.562  13.188
60098SOL    HW282134   7.535   7.683  13.125
60099SOL     OW82135   3.179   1.421  11.661
60099SOL    HW182136   3.168   1.344  11.605
60099SOL    HW282137   3.138   1.397  11.744
60100SOL     OW82138   3.077   1.472  14.839
60100SOL    HW182139   3.101   1.565  14.836
60100SOL    HW282140   2.982   1.472  14.828
60101SOL     OW82141   5.856  12.456   7.524
60101SOL    HW182142   5.864  12.360   7.521
60101SOL    HW282143   5.889  12.485   7.439
60102SOL     OW82144  14.582   7.341   1.697
60102SOL    HW182145  14.538   7.316   1.616
60102SOL    HW282146  14.666   7.295   1.695
60103SOL     OW82147   8.063   9.949   7.519
60103SOL    HW182148   8.090  10.017   7.457
60103SOL    HW282149   8.143   9.898   7.534
60104SOL     OW82150   4.102   7.380   6.181
60104SOL    HW182151   4.007   7.374   6.189
60104SOL    HW282152   4.136   7.332   6.257
60105SOL     OW82153   5.175   9.837  12.449
60105SOL    HW182154   5.249   9.898  12.442
60105SOL    HW282155   5.103   9.890  12.484
60106SOL     OW82156   0.392   9.756   6.542
60106SOL    HW182157   0.398   9.808   6.622
60106SOL    HW282158   0.352   9.814   6.478
60107SOL     OW82159  13.273   2.372   6.847
60107SOL    HW182160  13.182   2.356   6.822
60107SOL    HW282161  13.297   2.295   6.898
60108SOL     OW82162   6.571   4.254   1.161
60108SOL    HW182163   6.621   4.172   1.167
60108SOL    HW282164   6.492   4.237   1.212
60109SOL     OW82165  12.043  10.275  10.196
60109SOL    HW182166  12.004  10.260  10.282
60109SOL    HW282167  12.063  10.188  10.163
60110SOL     OW82168   7.742  14.456   3.454
60110SOL    HW182169   7.722  14.495   3.538
60110SOL    HW282170   7.673  14.390   3.441
60111SOL     OW82171  13.395  11.204   1.619
60111SOL    HW182172  13.321  11.226   1.563
60111SOL    HW282173  13.355  11.184   1.704
60112SOL     OW82174   3.872  11.203  14.711
60112SOL    HW182175   3.884  11.298  14.704
60112SOL    HW282176   3.896  11.183  14.801
60113SOL     OW82177   7.019   7.995   3.332
60113SOL    HW182178   7.070   8.042   3.398
60113SOL    HW282179   7.072   7.919   3.309
60114SOL     OW82180   8.007   7.254   1.935
60114SOL    HW182181   7.943   7.322   1.953
60114SOL    HW282182   7.995   7.232   1.843
60115SOL     OW82183   0.941   8.938   9.536
60115SOL    HW182184   0.937   8.855   9.489
60115SOL    HW282185   0.853   8.975   9.528
60116SOL     OW82186   3.815   5.043   8.317
60116SOL    HW182187   3.778   5.103   8.382
60116SOL    HW282188   3.799   5.085   8.233
60117SOL     OW82189  12.337  10.409   8.907
60117SOL    HW182190  12.338  10.340   8.973
60117SOL    HW282191  12.244  10.430   8.897
60118SOL     OW82192  14.356   2.478  10.419
60118SOL    HW182193  14.282   2.433  10.377
60118SOL    HW282194  14.391   2.535  10.350
60119SOL     OW82195   8.549   5.370   1.298
60119SOL    HW182196   8.636   5.404   1.277
60119SOL    HW282197   8.536   5.297   1.236
60120SOL     OW82198  11.850   8.795  13.325
60120SOL    HW182199  11.791   8.846  13.381
60120SOL    HW282200  11.819   8.705  13.335
60121SOL     OW82201  10.954   7.894  13.363
60121SOL    HW182202  11.014   7.968  13.367
60121SOL    HW282203  10.884   7.916  13.425
60122SOL     OW82204   9.199   2.310   7.484
60122SOL    HW182205   9.294   2.303   7.499
60122SOL    HW282206   9.179   2.237   7.425
60123SOL     OW82207   2.380   7.855   6.147
60123SOL    HW182208   2.390   7.944   6.182
60123SOL    HW282209   2.325   7.866   6.069
60124SOL     OW82210   7.487   1.786   0.254
60124SOL    HW182211   7.466   1.698   0.284
60124SOL    HW282212   7.415   1.810   0.196
60125SOL     OW82213   3.882  12.107   8.128
60125SOL    HW182214   3.834  12.158   8.193
60125SOL    HW282215   3.866  12.016   8.151
60126SOL     OW82216  14.210   5.715   4.283
60126SOL    HW182217  14.182   5.656   4.213
60126SOL    HW282218  14.210   5.802   4.242
60127SOL     OW82219   0.846  11.524   3.589
60127SOL    HW182220   0.838  11.495   3.498
60127SOL    HW282221   0.791  11.603   3.594
60128SOL     OW82222   4.433  11.120  11.658
60128SOL    HW182223   4.514  11.152  11.697
60128SOL    HW282224   4.438  11.146  11.566
60129SOL     OW82225   4.590   5.991   6.467
60129SOL    HW182226   4.651   5.919   6.455
60129SOL    HW282227   4.526   5.981   6.397
60130SOL     OW82228  14.577   6.496   7.494
60130SOL    HW182229  14.659   6.507   7.446
60130SOL    HW282230  14.604   6.461   7.579
60131SOL     OW82231   3.986  10.681   3.697
60131SOL    HW182232   4.001  10.624   3.773
60131SOL    HW282233   3.968  10.621   3.625
60132SOL     OW82234  11.084  13.305   1.971
60132SOL    HW182235  11.044  13.391   1.975
60132SOL    HW282236  11.174  13.322   1.941
60133SOL     OW82237  10.549   7.164  12.484
60133SOL    HW182238  10.458   7.137  12.485
60133SOL    HW282239  10.564   7.202  12.570
60134SOL     OW82240  12.918   1.167   4.622
60134SOL    HW182241  12.958   1.176   4.709
60134SOL    HW282242  12.833   1.211   4.630
60135SOL     OW82243   2.720   8.585  13.055
60135SOL    HW182244   2.752   8.580  13.146
60135SOL    HW282245   2.798   8.605  13.004
60136SOL     OW82246   1.135   4.831   0.209
60136SOL    HW182247   1.226   4.836   0.179
60136SOL    HW282248   1.098   4.917   0.189
60137SOL     OW82249   1.042   8.724  10.424
60137SOL    HW182250   1.079   8.799  10.379
60137SOL    HW282251   1.016   8.664  10.354
60138SOL     OW82252  10.712  13.779   4.532
60138SOL    HW182253  10.701  13.742   4.444
60138SOL    HW282254  10.623  13.795   4.562
60139SOL     OW82255   4.353   2.299   9.570
60139SOL    HW182256   4.378   2.221   9.619
60139SOL    HW282257   4.375   2.372   9.628
60140SOL     OW82258   2.737   8.678   5.123
60140SOL    HW182259   2.642   8.665   5.120
60140SOL    HW282260   2.770   8.637   5.043
60141SOL     OW82261   7.735   9.975   2.194
60141SOL    HW182262   7.733  10.067   2.167
60141SOL    HW282263   7.818   9.942   2.160
60142SOL     OW82264   9.800   6.191   3.322
60142SOL    HW182265   9.746   6.231   3.390
60142SOL    HW282266   9.865   6.258   3.300
60143SOL     OW82267   0.328  14.274   3.195
60143SOL    HW182268   0.322  14.196   3.139
60143SOL    HW282269   0.290  14.247   3.278
60144SOL     OW82270  12.327   6.210   8.200
60144SOL    HW182271  12.348   6.303   8.190
60144SOL    HW282272  12.238   6.209   8.235
60145SOL     OW82273   0.176  12.062   4.293
60145SOL    HW182274   0.194  12.128   4.360
60145SOL    HW282275   0.145  12.111   4.218
60146SOL     OW82276   6.524   7.869   4.526
60146SOL    HW182277   6.609   7.914   4.529
60146SOL    HW282278   6.498   7.860   4.617
60147SOL     OW82279  10.223   3.297  10.389
60147SOL    HW182280  10.288   3.298  10.459
60147SOL    HW282281  10.265   3.246  10.319
60148SOL     OW82282   6.282  11.251   7.430
60148SOL    HW182283   6.313  11.160   7.430
60148SOL    HW282284   6.360  11.304   7.444
60149SOL     OW82285   0.944   1.472   0.409
60149SOL    HW182286   0.851   1.495   0.403
60149SOL    HW282287   0.946   1.377   0.399
60150SOL     OW82288   9.078   4.587  13.050
60150SOL    HW182289   9.018   4.513  13.056
60150SOL    HW282290   9.165   4.550  13.066
60151SOL     OW82291   1.201  11.753  13.302
60151SOL    HW182292   1.110  11.730  13.319
60151SOL    HW282293   1.221  11.821  13.366
60152SOL     OW82294   0.714   7.240  11.557
60152SOL    HW182295   0.621   7.223  11.564
60152SOL    HW282296   0.743   7.187  11.483
60153SOL     OW82297   3.217   6.681  10.349
60153SOL    HW182298   3.228   6.589  10.326
60153SOL    HW282299   3.190   6.723  10.267
60154SOL     OW82300   7.452   4.045  12.868
60154SOL    HW182301   7.417   4.134  12.878
60154SOL    HW282302   7.546   4.055  12.881
60155SOL     OW82303   6.864   6.341   3.614
60155SOL    HW182304   6.869   6.427   3.657
60155SOL    HW282305   6.797   6.294   3.663
60156SOL     OW82306   4.875   2.898   0.553
60156SOL    HW182307   4.785   2.924   0.533
60156SOL    HW282308   4.919   2.981   0.574
60157SOL     OW82309   9.389  11.328  14.556
60157SOL    HW182310   9.392  11.300  14.465
60157SOL    HW282311   9.347  11.414  14.554
60158SOL     OW82312   6.138   9.246   2.215
60158SOL    HW182313   6.090   9.235   2.297
60158SOL    HW282314   6.121   9.336   2.188
60159SOL     OW82315   1.328   8.857  13.731
60159SOL    HW182316   1.372   8.899  13.657
60159SOL    HW282317   1.399   8.829  13.788
60160SOL     OW82318   6.797   9.562  14.083
60160SOL    HW182319   6.801   9.520  14.169
60160SOL    HW282320   6.704   9.576  14.067
60161SOL     OW82321  12.740  11.796  11.465
60161SOL    HW182322  12.787  11.715  11.485
60161SOL    HW282323  12.697  11.779  11.382
60162SOL     OW82324   5.764  10.747   3.344
60162SOL    HW182325   5.858  10.758   3.333
60162SOL    HW282326   5.751  10.652   3.343
60163SOL     OW82327   4.022   1.369  10.853
60163SOL    HW182328   4.093   1.382  10.790
60163SOL    HW282329   4.060   1.392  10.937
60164SOL     OW82330   2.321   5.977   4.397
60164SOL    HW182331   2.355   6.066   4.386
60164SOL    HW282332   2.373   5.923   4.338
60165SOL     OW82333  10.281   8.907  11.421
60165SOL    HW182334  10.268   8.827  11.472
60165SOL    HW282335  10.197   8.954  11.429
60166SOL     OW82336   8.878  10.635  13.307
60166SOL    HW182337   8.846  10.577  13.376
60166SOL    HW282338   8.871  10.723  13.344
60167SOL     OW82339  13.133   9.856   3.409
60167SOL    HW182340  13.145   9.943   3.448
60167SOL    HW282341  13.217   9.812   3.424
60168SOL     OW82342  12.633   2.742   5.094
60168SOL    HW182343  12.705   2.700   5.141
60168SOL    HW282344  12.556   2.690   5.115
60169SOL     OW82345   0.804  12.331   6.114
60169SOL    HW182346   0.811  12.288   6.199
60169SOL    HW282347   0.873  12.290   6.061
60170SOL     OW82348   8.181   5.363   7.093
60170SOL    HW182349   8.202   5.359   7.186
60170SOL    HW282350   8.240   5.430   7.058
60171SOL     OW82351   7.543   1.790   8.050
60171SOL    HW182352   7.601   1.771   7.977
60171SOL    HW282353   7.557   1.883   8.069
60172SOL     OW82354   2.041   2.853  10.216
60172SOL    HW182355   2.059   2.942  10.246
60172SOL    HW282356   2.080   2.797  10.283
60173SOL     OW82357   3.229  10.645   6.155
60173SOL    HW182358   3.277  10.716   6.113
60173SOL    HW282359   3.137  10.668   6.143
60174SOL     OW82360   3.317   9.721   2.601
60174SOL    HW182361   3.404   9.759   2.604
60174SOL    HW282362   3.305   9.682   2.688
60175SOL     OW82363  12.823  12.436   8.130
60175SOL    HW182364  12.858  12.386   8.057
60175SOL    HW282365  12.846  12.385   8.208
60176SOL     OW82366   6.978  10.663   0.013
60176SOL    HW182367   7.016  10.720   0.080
60176SOL    HW282368   6.893  10.638   0.047
60177SOL     OW82369   0.402   8.370  13.045
60177SOL    HW182370   0.467   8.316  13.092
60177SOL    HW282371   0.439   8.381  12.958
60178SOL     OW82372   2.322   5.456   4.908
60178SOL    HW182373   2.302   5.394   4.978
60178SOL    HW282374   2.249   5.518   4.909
60179SOL     OW82375  11.228  14.783   2.182
60179SOL    HW182376  11.143  14.824   2.200
60179SOL    HW282377  11.211  14.689   2.190
60180SOL     OW82378   4.527   5.822  10.011
60180SOL    HW182379   4.559   5.786   9.929
60180SOL    HW282380   4.461   5.887   9.985
60181SOL     OW82381   0.631   2.310  11.756
60181SOL    HW182382   0.651   2.226  11.716
60181SOL    HW282383   0.565   2.290  11.823
60182SOL     OW82384   3.385   4.076   9.261
60182SOL    HW182385   3.359   3.988   9.234
60182SOL    HW282386   3.465   4.093   9.213
60183SOL     OW82387   6.469   1.999   3.558
60183SOL    HW182388   6.500   2.075   3.510
60183SOL    HW282389   6.375   2.013   3.567
60184SOL     OW82390  11.323   3.767   7.230
60184SOL    HW182391  11.387   3.819   7.183
60184SOL    HW282392  11.268   3.729   7.162
60185SOL     OW82393   5.614  10.561  14.627
60185SOL    HW182394   5.594  10.545  14.719
60185SOL    HW282395   5.617  10.474  14.587
60186SOL     OW82396  10.967  11.663  10.843
60186SOL    HW182397  10.984  11.639  10.934
60186SOL    HW282398  11.053  11.679  10.806
60187SOL     OW82399   0.950   9.699   0.390
60187SOL    HW182400   1.015   9.765   0.414
60187SOL    HW282401   0.879   9.711   0.453
60188SOL     OW82402   0.877  14.782  11.952
60188SOL    HW182403   0.871  14.854  12.015
60188SOL    HW282404   0.959  14.797  11.906
60189SOL     OW82405  12.655  14.634   0.237
60189SOL    HW182406  12.702  14.715   0.220
60189SOL    HW282407  12.564  14.653   0.213
60190SOL     OW82408  14.269  10.701  11.788
60190SOL    HW182409  14.261  10.627  11.728
60190SOL    HW282410  14.268  10.660  11.875
60191SOL     OW82411   0.837   4.766   5.358
60191SOL    HW182412   0.876   4.844   5.316
60191SOL    HW282413   0.912   4.717   5.390
60192SOL     OW82414   5.630   6.989  10.803
60192SOL    HW182415   5.613   7.059  10.741
60192SOL    HW282416   5.655   7.033  10.884
60193SOL     OW82417   0.474   1.838  10.069
60193SOL    HW182418   0.490   1.774   9.999
60193SOL    HW282419   0.537   1.908  10.052
60194SOL     OW82420  10.873   0.671   9.142
60194SOL    HW182421  10.860   0.723   9.062
60194SOL    HW282422  10.957   0.701   9.176
60195SOL     OW82423   5.826   5.389   2.525
60195SOL    HW182424   5.732   5.376   2.516
60195SOL    HW282425   5.837   5.441   2.605
60196SOL     OW82426  11.820   1.832   8.909
60196SOL    HW182427  11.906   1.791   8.894
60196SOL    HW282428  11.814   1.843   9.003
60197SOL     OW82429  10.813   5.570   8.943
60197SOL    HW182430  10.833   5.578   8.850
60197SOL    HW282431  10.722   5.542   8.946
60198SOL     OW82432   6.911  10.180  12.891
60198SOL    HW182433   6.917  10.200  12.985
60198SOL    HW282434   6.972  10.108  12.878
60199SOL     OW82435   1.117   1.753   1.180
60199SOL    HW182436   1.043   1.717   1.130
60199SOL    HW282437   1.091   1.743   1.271
60200SOL     OW82438   4.848   1.929   2.828
60200SOL    HW182439   4.936   1.965   2.822
60200SOL    HW282440   4.861   1.835   2.841
60201SOL     OW82441   5.406   2.353   8.433
60201SOL    HW182442   5.412   2.356   8.528
60201SOL    HW282443   5.331   2.409   8.412
60202SOL     OW82444  10.906   4.949   6.391
60202SOL    HW182445  10.961   5.010   6.341
60202SOL    HW282446  10.835   5.003   6.426
60203SOL     OW82447   9.162   6.519  13.251
60203SOL    HW182448   9.132   6.439  13.294
60203SOL    HW282449   9.184   6.578  13.323
60204SOL     OW82450  11.947  10.537   9.558
60204SOL    HW182451  11.961  10.614   9.614
60204SOL    HW282452  11.868  10.496   9.593
60205SOL     OW82453   5.291   2.541  13.342
60205SOL    HW182454   5.277   2.532  13.248
60205SOL    HW282455   5.316   2.633  13.354
60206SOL     OW82456  13.641   8.820   0.916
60206SOL    HW182457  13.694   8.745   0.945
60206SOL    HW282458  13.673   8.893   0.968
60207SOL     OW82459   9.485   9.672   3.211
60207SOL    HW182460   9.503   9.753   3.259
60207SOL    HW282461   9.571   9.638   3.188
60208SOL     OW82462   0.054   8.431   8.467
60208SOL    HW182463   0.076   8.350   8.423
60208SOL    HW282464  14.841   8.454   8.433
60209SOL     OW82465  13.886   4.242   4.497
60209SOL    HW182466  13.857   4.154   4.477
60209SOL    HW282467  13.814   4.299   4.470
60210SOL     OW82468  13.462   4.566   5.233
60210SOL    HW182469  13.477   4.542   5.142
60210SOL    HW282470  13.529   4.519   5.282
60211SOL     OW82471  10.175  12.990   2.485
60211SOL    HW182472  10.207  12.981   2.395
60211SOL    HW282473  10.104  13.055   2.478
60212SOL     OW82474   3.342   0.914   6.057
60212SOL    HW182475   3.249   0.896   6.043
60212SOL    HW282476   3.382   0.828   6.066
60213SOL     OW82477   1.629   9.397   3.788
60213SOL    HW182478   1.666   9.365   3.871
60213SOL    HW282479   1.642   9.324   3.728
60214SOL     OW82480   2.903   2.830   3.913
60214SOL    HW182481   2.931   2.774   3.985
60214SOL    HW282482   2.981   2.839   3.857
60215SOL     OW82483   2.654   5.807   3.729
60215SOL    HW182484   2.621   5.815   3.639
60215SOL    HW282485   2.629   5.719   3.755
60216SOL     OW82486   4.856   3.983  11.893
60216SOL    HW182487   4.845   4.015  11.983
60216SOL    HW282488   4.835   4.059  11.838
60217SOL     OW82489   3.249   9.824   7.422
60217SOL    HW182490   3.162   9.808   7.385
60217SOL    HW282491   3.288   9.737   7.430
60218SOL     OW82492   3.590   4.077  10.256
60218SOL    HW182493   3.597   4.033  10.340
60218SOL    HW282494   3.670   4.053  10.209
60219SOL     OW82495   5.783   9.042  12.414
60219SOL    HW182496   5.780   8.947  12.419
60219SOL    HW282497   5.707   9.066  12.360
60220SOL     OW82498  12.287  11.529   7.716
60220SOL    HW182499  12.278  11.614   7.673
60220SOL    HW282500  12.244  11.467   7.657
60221SOL     OW82501   8.935   3.580   4.840
60221SOL    HW182502   8.936   3.605   4.933
60221SOL    HW282503   8.842   3.567   4.821
60222SOL     OW82504   7.928   2.609   3.635
60222SOL    HW182505   7.952   2.698   3.611
60222SOL    HW282506   8.000   2.580   3.692
60223SOL     OW82507   9.869   9.038   2.277
60223SOL    HW182508   9.809   9.045   2.351
60223SOL    HW282509   9.956   9.048   2.315
60224SOL     OW82510   0.422  13.151   6.296
60224SOL    HW182511   0.387  13.085   6.237
60224SOL    HW282512   0.469  13.212   6.239
60225SOL     OW82513   5.204  10.681   3.835
60225SOL    HW182514   5.187  10.672   3.741
60225SOL    HW282515   5.277  10.622   3.853
60226SOL     OW82516   5.951   1.383  12.189
60226SOL    HW182517   5.929   1.303  12.141
60226SOL    HW282518   5.868   1.428  12.202
60227SOL     OW82519   5.987   6.532   1.220
60227SOL    HW182520   5.899   6.564   1.199
60227SOL    HW282521   6.044   6.575   1.155
60228SOL     OW82522   0.532  10.473  10.303
60228SOL    HW182523   0.562  10.384  10.324
60228SOL    HW282524   0.587  10.500  10.230
60229SOL     OW82525   7.692   2.220   5.995
60229SOL    HW182526   7.715   2.211   5.903
60229SOL    HW282527   7.597   2.205   5.998
60230SOL     OW82528  10.968   4.310  10.797
60230SOL    HW182529  10.908   4.236  10.805
60230SOL    HW282530  10.913   4.383  10.770
60231SOL     OW82531   9.922  11.819   6.419
60231SOL    HW182532   9.844  11.862   6.384
60231SOL    HW282533   9.887  11.745   6.470
60232SOL     OW82534   0.434   4.986   4.104
60232SOL    HW182535   0.438   4.988   4.199
60232SOL    HW282536   0.381   4.909   4.083
60233SOL     OW82537  12.473   8.056   5.215
60233SOL    HW182538  12.489   8.035   5.123
60233SOL    HW282539  12.384   8.091   5.218
60234SOL     OW82540   8.076  13.172   9.933
60234SOL    HW182541   8.108  13.101   9.877
60234SOL    HW282542   8.097  13.251   9.884
60235SOL     OW82543   2.386   8.350   7.517
60235SOL    HW182544   2.296   8.372   7.540
60235SOL    HW282545   2.378   8.287   7.446
60236SOL     OW82546  10.265  13.361  14.505
60236SOL    HW182547  10.312  13.292  14.550
60236SOL    HW282548  10.196  13.389  14.566
60237SOL     OW82549   8.658  14.460  12.270
60237SOL    HW182550   8.569  14.426  12.261
60237SOL    HW282551   8.706  14.425  12.195
60238SOL     OW82552  10.201   4.147  11.835
60238SOL    HW182553  10.259   4.222  11.821
60238SOL    HW282554  10.233   4.107  11.916
60239SOL     OW82555   2.628   5.736   5.995
60239SOL    HW182556   2.723   5.751   5.997
60239SOL    HW282557   2.619   5.642   5.978
60240SOL     OW82558   0.511   2.059   2.417
60240SOL    HW182559   0.560   2.004   2.355
60240SOL    HW282560   0.438   2.093   2.365
60241SOL     OW82561   5.051  13.802   9.562
60241SOL    HW182562   5.085  13.833   9.647
60241SOL    HW282563   4.964  13.767   9.583
60242SOL     OW82564  10.096   2.393  14.161
60242SOL    HW182565  10.190   2.380  14.148
60242SOL    HW282566  10.064   2.308  14.191
60243SOL     OW82567   0.491   4.228  10.920
60243SOL    HW182568   0.491   4.205  11.013
60243SOL    HW282569   0.522   4.319  10.919
60244SOL     OW82570   5.783   0.909   3.197
60244SOL    HW182571   5.760   0.877   3.284
60244SOL    HW282572   5.754   0.840   3.138
60245SOL     OW82573   4.223   9.257  11.797
60245SOL    HW182574   4.224   9.338  11.848
60245SOL    HW282575   4.133   9.226  11.803
60246SOL     OW82576   4.190   1.488   2.196
60246SOL    HW182577   4.101   1.504   2.227
60246SOL    HW282578   4.236   1.452   2.272
60247SOL     OW82579  14.023   4.335   8.238
60247SOL    HW182580  13.957   4.393   8.200
60247SOL    HW282581  14.105   4.381   8.226
60248SOL     OW82582   7.096   0.101   6.664
60248SOL    HW182583   7.178   0.052   6.661
60248SOL    HW282584   7.028   0.035   6.669
60249SOL     OW82585  11.003  11.749   8.982
60249SOL    HW182586  11.029  11.739   9.073
60249SOL    HW282587  11.078  11.717   8.931
60250SOL     OW82588   0.686   0.657  11.696
60250SOL    HW182589   0.705   0.587  11.634
60250SOL    HW282590   0.702   0.619  11.782
60251SOL     OW82591  10.635   3.483   1.180
60251SOL    HW182592  10.672   3.562   1.142
60251SOL    HW282593  10.708   3.441   1.225
60252SOL     OW82594  11.777  14.659   8.287
60252SOL    HW182595  11.815  14.578   8.322
60252SOL    HW282596  11.693  14.632   8.249
60253SOL     OW82597   7.322   0.119  13.914
60253SOL    HW182598   7.347   0.040  13.962
60253SOL    HW282599   7.376   0.188  13.952
60254SOL     OW82600  12.737   4.680   8.566
60254SOL    HW182601  12.772   4.765   8.593
60254SOL    HW282602  12.778   4.617   8.626
60255SOL     OW82603   7.437   3.587   4.148
60255SOL    HW182604   7.389   3.573   4.229
60255SOL    HW282605   7.448   3.682   4.143
60256SOL     OW82606   3.972   6.278   4.103
60256SOL    HW182607   4.065   6.258   4.094
60256SOL    HW282608   3.966   6.372   4.086
60257SOL     OW82609   4.301  10.605   8.535
60257SOL    HW182610   4.377  10.663   8.538
60257SOL    HW282611   4.226  10.662   8.552
60258SOL     OW82612   9.290  12.287   1.596
60258SOL    HW182613   9.257  12.277   1.685
60258SOL    HW282614   9.373  12.333   1.605
60259SOL     OW82615   8.790  14.272  14.476
60259SOL    HW182616   8.716  14.296  14.532
60259SOL    HW282617   8.795  14.177  14.484
60260SOL     OW82618   0.094  10.478  10.959
60260SOL    HW182619   0.149  10.515  11.028
60260SOL    HW282620   0.036  10.551  10.934
60261SOL     OW82621   1.718  13.894   1.428
60261SOL    HW182622   1.761  13.888   1.513
60261SOL    HW282623   1.708  13.804   1.399
60262SOL     OW82624  12.156   9.159  12.521
60262SOL    HW182625  12.142   9.121  12.608
60262SOL    HW282626  12.068   9.176  12.488
60263SOL     OW82627   3.998   6.764   0.068
60263SOL    HW182628   3.947   6.746  14.863
60263SOL    HW282629   3.981   6.689   0.125
60264SOL     OW82630   5.874   1.291   4.564
60264SOL    HW182631   5.874   1.197   4.581
60264SOL    HW282632   5.953   1.306   4.512
60265SOL     OW82633  10.666  11.692  12.371
60265SOL    HW182634  10.755  11.679  12.338
60265SOL    HW282635  10.652  11.786  12.366
60266SOL     OW82636   4.595   3.830   5.978
60266SOL    HW182637   4.676   3.788   5.949
60266SOL    HW282638   4.596   3.820   6.073
60267SOL     OW82639  11.285  10.251   8.468
60267SOL    HW182640  11.374  10.225   8.489
60267SOL    HW282641  11.293  10.340   8.434
60268SOL     OW82642   9.332   9.837   7.937
60268SOL    HW182643   9.270   9.906   7.961
60268SOL    HW282644   9.334   9.839   7.841
60269SOL     OW82645   4.051  13.552   5.272
60269SOL    HW182646   4.058  13.497   5.350
60269SOL    HW282647   4.010  13.633   5.304
60270SOL     OW82648  10.983   6.874  14.207
60270SOL    HW182649  10.955   6.788  14.177
60270SOL    HW282650  10.950   6.935  14.141
60271SOL     OW82651   9.589  14.583   6.537
60271SOL    HW182652   9.616  14.674   6.549
60271SOL    HW282653   9.607  14.541   6.621
60272SOL     OW82654  12.068  14.376   5.380
60272SOL    HW182655  12.001  14.398   5.316
60272SOL    HW282656  12.026  14.388   5.465
60273SOL     OW82657   2.258  10.167   2.736
60273SOL    HW182658   2.237  10.076   2.756
60273SOL    HW282659   2.348  10.178   2.767
60274SOL     OW82660  14.046   2.910   9.096
60274SOL    HW182661  13.996   2.836   9.062
60274SOL    HW282662  13.982   2.982   9.097
60275SOL     OW82663   4.989   6.177   6.595
60275SOL    HW182664   4.983   6.087   6.625
60275SOL    HW282665   5.039   6.222   6.664
60276SOL     OW82666   6.855   0.714   6.925
60276SOL    HW182667   6.815   0.747   7.005
60276SOL    HW282668   6.895   0.631   6.950
60277SOL     OW82669   1.950   1.326   2.265
60277SOL    HW182670   1.865   1.359   2.238
60277SOL    HW282671   1.990   1.399   2.314
60278SOL     OW82672  12.230   2.739   5.166
60278SOL    HW182673  12.178   2.780   5.097
60278SOL    HW282674  12.261   2.658   5.126
60279SOL     OW82675  10.994   0.107   0.991
60279SOL    HW182676  11.039   0.044   0.935
60279SOL    HW282677  11.002   0.191   0.944
60280SOL     OW82678   1.718   8.685   4.496
60280SOL    HW182679   1.800   8.662   4.451
60280SOL    HW282680   1.731   8.775   4.525
60281SOL     OW82681   2.999   4.241   4.278
60281SOL    HW182682   2.921   4.223   4.330
60281SOL    HW282683   3.066   4.265   4.342
60282SOL     OW82684  10.148   3.779   8.347
60282SOL    HW182685  10.235   3.748   8.369
60282SOL    HW282686  10.163   3.860   8.298
60283SOL     OW82687   2.244  11.082  11.168
60283SOL    HW182688   2.215  10.992  11.182
60283SOL    HW282689   2.197  11.111  11.090
60284SOL     OW82690   4.372   9.173   3.716
60284SOL    HW182691   4.289   9.172   3.668
60284SOL    HW282692   4.406   9.261   3.702
60285SOL     OW82693  10.227   5.887   5.716
60285SOL    HW182694  10.282   5.965   5.707
60285SOL    HW282695  10.162   5.895   5.647
60286SOL     OW82696   0.533   1.162  13.373
60286SOL    HW182697   0.597   1.124  13.433
60286SOL    HW282698   0.529   1.254  13.399
60287SOL     OW82699  13.916   9.275  11.894
60287SOL    HW182700  13.898   9.204  11.955
60287SOL    HW282701  14.002   9.254  11.857
60288SOL     OW82702   1.668   2.975   5.192
60288SOL    HW182703   1.703   2.898   5.237
60288SOL    HW282704   1.694   3.049   5.246
60289SOL     OW82705  11.865  10.617   3.891
60289SOL    HW182706  11.787  10.612   3.835
60289SOL    HW282707  11.896  10.526   3.897
60290SOL     OW82708   1.502   8.867  14.742
60290SOL    HW182709   1.479   8.775  14.738
60290SOL    HW282710   1.526   8.882  14.834
60291SOL     OW82711   1.695   1.985   3.360
60291SOL    HW182712   1.630   2.000   3.429
60291SOL    HW282713   1.760   1.927   3.400
60292SOL     OW82714   1.435   6.898   7.054
60292SOL    HW182715   1.409   6.808   7.072
60292SOL    HW282716   1.354   6.943   7.030
60293SOL     OW82717  12.565   7.634   9.442
60293SOL    HW182718  12.540   7.650   9.351
60293SOL    HW282719  12.482   7.629   9.490
60294SOL     OW82720   1.415  13.735  14.573
60294SOL    HW182721   1.457  13.720  14.488
60294SOL    HW282722   1.478  13.789  14.621
60295SOL     OW82723  12.484   9.192   4.597
60295SOL    HW182724  12.562   9.164   4.645
60295SOL    HW282725  12.441   9.110   4.572
60296SOL     OW82726  11.731  12.828   0.092
60296SOL    HW182727  11.821  12.820   0.061
60296SOL    HW282728  11.728  12.912   0.137
60297SOL     OW82729   8.957  14.532   0.030
60297SOL    HW182730   8.971  14.618   0.070
60297SOL    HW282731   8.997  14.470   0.090
60298SOL     OW82732  13.077   6.072  11.498
60298SOL    HW182733  13.134   6.006  11.539
60298SOL    HW282734  12.990   6.051  11.530
60299SOL     OW82735   3.621   5.412   5.171
60299SOL    HW182736   3.714   5.411   5.190
60299SOL    HW282737   3.599   5.505   5.167
60300SOL     OW82738  10.747   9.600  12.511
60300SOL    HW182739  10.792   9.546  12.446
60300SOL    HW282740  10.667   9.551  12.531
60301SOL     OW82741  14.039   6.690  13.664
60301SOL    HW182742  14.037   6.762  13.727
60301SOL    HW282743  13.983   6.623  13.704
60302SOL     OW82744   7.367   4.449   9.272
60302SOL    HW182745   7.447   4.397   9.262
60302SOL    HW282746   7.393   4.538   9.246
60303SOL     OW82747   5.269  10.831   2.662
60303SOL    HW182748   5.199  10.896   2.671
60303SOL    HW282749   5.343  10.880   2.626
60304SOL     OW82750  10.870   0.604  12.803
60304SOL    HW182751  10.877   0.509  12.814
60304SOL    HW282752  10.902   0.640  12.885
60305SOL     OW82753   7.907   6.002   7.520
60305SOL    HW182754   7.902   6.008   7.424
60305SOL    HW282755   7.819   5.977   7.547
60306SOL     OW82756   8.830   1.698   9.598
60306SOL    HW182757   8.877   1.720   9.679
60306SOL    HW282758   8.893   1.716   9.529
60307SOL     OW82759  10.085   5.414   4.591
60307SOL    HW182760  10.109   5.475   4.661
60307SOL    HW282761  10.011   5.365   4.627
60308SOL     OW82762   0.557  12.724  14.519
60308SOL    HW182763   0.500  12.723  14.596
60308SOL    HW282764   0.642  12.753  14.553
60309SOL     OW82765   7.590  12.421  14.604
60309SOL    HW182766   7.632  12.506  14.619
60309SOL    HW282767   7.497  12.441  14.600
60310SOL     OW82768  11.348  11.962   5.359
60310SOL    HW182769  11.279  12.029   5.366
60310SOL    HW282770  11.368  11.959   5.265
60311SOL     OW82771  11.667   3.330   9.603
60311SOL    HW182772  11.586   3.297   9.564
60311SOL    HW282773  11.646   3.420   9.629
60312SOL     OW82774   4.352   3.471  10.173
60312SOL    HW182775   4.374   3.483  10.080
60312SOL    HW282776   4.416   3.525  10.220
60313SOL     OW82777   0.760   6.577   5.371
60313SOL    HW182778   0.839   6.525   5.355
60313SOL    HW282779   0.754   6.583   5.466
60314SOL     OW82780   3.333   6.805   6.109
60314SOL    HW182781   3.355   6.727   6.160
60314SOL    HW282782   3.363   6.878   6.163
60315SOL     OW82783  12.473  13.419   5.643
60315SOL    HW182784  12.454  13.326   5.652
60315SOL    HW282785  12.439  13.442   5.557
60316SOL     OW82786  14.575   2.910   6.910
60316SOL    HW182787  14.649   2.948   6.958
60316SOL    HW282788  14.616   2.855   6.843
60317SOL     OW82789  12.752   1.109   8.183
60317SOL    HW182790  12.701   1.160   8.246
60317SOL    HW282791  12.834   1.157   8.175
60318SOL     OW82792  11.124   4.048   5.063
60318SOL    HW182793  11.087   3.975   5.013
60318SOL    HW282794  11.051   4.109   5.073
60319SOL     OW82795   3.964   1.179   2.630
60319SOL    HW182796   3.948   1.269   2.603
60319SOL    HW282797   4.036   1.184   2.692
60320SOL     OW82798   2.977  11.631   3.241
60320SOL    HW182799   3.030  11.561   3.203
60320SOL    HW282800   2.918  11.586   3.302
60321SOL     OW82801  14.444   8.721   5.936
60321SOL    HW182802  14.423   8.659   5.866
60321SOL    HW282803  14.381   8.702   6.005
60322SOL     OW82804   7.959   7.681   9.507
60322SOL    HW182805   7.931   7.663   9.596
60322SOL    HW282806   8.052   7.703   9.515
60323SOL     OW82807   4.916  14.835   2.134
60323SOL    HW182808   4.864  14.769   2.088
60323SOL    HW282809   4.853   0.009   2.187
60324SOL     OW82810   7.408  14.259   9.986
60324SOL    HW182811   7.468  14.228   9.918
60324SOL    HW282812   7.436  14.214  10.065
60325SOL     OW82813   1.021   8.923   3.684
60325SOL    HW182814   1.006   8.862   3.756
60325SOL    HW282815   1.064   8.998   3.726
60326SOL     OW82816   2.975  13.559   5.281
60326SOL    HW182817   3.021  13.575   5.364
60326SOL    HW282818   2.923  13.638   5.267
60327SOL     OW82819   5.829  11.966  10.784
60327SOL    HW182820   5.841  12.008  10.699
60327SOL    HW282821   5.886  12.014  10.843
60328SOL     OW82822   9.838   0.608   4.875
60328SOL    HW182823   9.778   0.560   4.818
60328SOL    HW282824   9.799   0.601   4.962
60329SOL     OW82825   2.289   8.186  10.374
60329SOL    HW182826   2.262   8.266  10.329
60329SOL    HW282827   2.322   8.216  10.458
60330SOL     OW82828   2.094   8.521   1.361
60330SOL    HW182829   2.073   8.428   1.372
60330SOL    HW282830   2.107   8.553   1.450
60331SOL     OW82831   2.158   3.059   8.089
60331SOL    HW182832   2.174   3.072   8.182
60331SOL    HW282833   2.108   3.136   8.063
60332SOL     OW82834   5.042   8.952   8.327
60332SOL    HW182835   5.107   9.016   8.359
60332SOL    HW282836   5.075   8.927   8.241
60333SOL     OW82837   3.804   8.565   5.989
60333SOL    HW182838   3.786   8.472   6.002
60333SOL    HW282839   3.830   8.572   5.898
60334SOL     OW82840   4.404   9.919  13.742
60334SOL    HW182841   4.345   9.889  13.673
60334SOL    HW282842   4.470   9.972  13.697
60335SOL     OW82843  11.901   4.181   9.641
60335SOL    HW182844  11.966   4.144   9.580
60335SOL    HW282845  11.946   4.254   9.682
60336SOL     OW82846  11.980  11.420   0.474
60336SOL    HW182847  12.029  11.497   0.504
60336SOL    HW282848  11.994  11.355   0.542
60337SOL     OW82849   6.290   2.874   6.864
60337SOL    HW182850   6.236   2.802   6.897
60337SOL    HW282851   6.367   2.874   6.921
60338SOL     OW82852   7.163   3.772   2.012
60338SOL    HW182853   7.135   3.680   2.020
60338SOL    HW282854   7.107   3.819   2.074
60339SOL     OW82855   1.082   1.426   9.633
60339SOL    HW182856   1.107   1.496   9.693
60339SOL    HW282857   1.042   1.471   9.559
60340SOL     OW82858  12.188   4.358   1.873
60340SOL    HW182859  12.153   4.437   1.832
60340SOL    HW282860  12.234   4.391   1.951
60341SOL     OW82861   3.735  10.020   8.958
60341SOL    HW182862   3.771  10.054   8.875
60341SOL    HW282863   3.699   9.935   8.935
60342SOL     OW82864   9.953   9.297   5.134
60342SOL    HW182865   9.948   9.305   5.230
60342SOL    HW282866   9.875   9.342   5.102
60343SOL     OW82867   4.975  11.359  11.130
60343SOL    HW182868   4.901  11.367  11.070
60343SOL    HW282869   5.031  11.434  11.109
60344SOL     OW82870  11.987   0.629  11.871
60344SOL    HW182871  12.014   0.670  11.789
60344SOL    HW282872  11.918   0.567  11.845
60345SOL     OW82873   8.015   2.411   1.136
60345SOL    HW182874   8.081   2.342   1.137
60345SOL    HW282875   7.932   2.364   1.147
60346SOL     OW82876  12.428   2.066  10.255
60346SOL    HW182877  12.347   2.027  10.289
60346SOL    HW282878  12.486   2.069  10.331
60347SOL     OW82879   3.205  12.072  14.679
60347SOL    HW182880   3.244  12.097  14.763
60347SOL    HW282881   3.269  12.099  14.613
60348SOL     OW82882  14.066   4.732  10.743
60348SOL    HW182883  14.127   4.805  10.733
60348SOL    HW282884  14.119   4.655  10.724
60349SOL     OW82885   3.033  12.583  14.422
60349SOL    HW182886   2.942  12.600  14.396
60349SOL    HW282887   3.085  12.639  14.365
60350SOL     OW82888  14.064   5.422   8.017
60350SOL    HW182889  14.125   5.348   8.018
60350SOL    HW282890  14.120   5.499   8.011
60351SOL     OW82891   9.722  13.108   4.640
60351SOL    HW182892   9.677  13.063   4.712
60351SOL    HW282893   9.735  13.040   4.574
60352SOL     OW82894  14.720  11.893  10.371
60352SOL    HW182895  14.740  11.822  10.310
60352SOL    HW282896  14.641  11.934  10.335
60353SOL     OW82897  14.176  12.220   0.209
60353SOL    HW182898  14.230  12.151   0.171
60353SOL    HW282899  14.201  12.299   0.161
60354SOL     OW82900   3.629  13.610   9.389
60354SOL    HW182901   3.626  13.668   9.313
60354SOL    HW282902   3.587  13.659   9.459
60355SOL     OW82903  14.628   5.707   8.522
60355SOL    HW182904  14.709   5.666   8.552
60355SOL    HW282905  14.654   5.795   8.495
60356SOL     OW82906   4.660  14.075   3.863
60356SOL    HW182907   4.622  13.987   3.863
60356SOL    HW282908   4.754  14.060   3.854
60357SOL     OW82909   9.923  10.008   8.736
60357SOL    HW182910   9.877   9.937   8.691
60357SOL    HW282911   9.879  10.014   8.821
60358SOL     OW82912   2.760   9.488   9.095
60358SOL    HW182913   2.784   9.418   9.034
60358SOL    HW282914   2.836   9.548   9.093
60359SOL     OW82915   5.085  14.690  13.018
60359SOL    HW182916   5.076  14.747  12.941
60359SOL    HW282917   5.143  14.620  12.989
60360SOL     OW82918  12.929  13.449   1.180
60360SOL    HW182919  12.925  13.393   1.257
60360SOL    HW282920  12.912  13.537   1.214
60361SOL     OW82921   8.421   4.173   6.901
60361SOL    HW182922   8.377   4.237   6.845
60361SOL    HW282923   8.351   4.140   6.958
60362SOL     OW82924   6.276  10.044  13.021
60362SOL    HW182925   6.306   9.999  13.100
60362SOL    HW282926   6.258   9.974  12.958
60363SOL     OW82927   8.398   3.292   6.534
60363SOL    HW182928   8.302   3.297   6.534
60363SOL    HW282929   8.420   3.254   6.449
60364SOL     OW82930   4.188   7.195   9.594
60364SOL    HW182931   4.137   7.119   9.623
60364SOL    HW282932   4.276   7.180   9.627
60365SOL     OW82933  10.063   5.213   0.772
60365SOL    HW182934  10.119   5.242   0.699
60365SOL    HW282935   9.979   5.256   0.756
60366SOL     OW82936   7.364  11.540   0.693
60366SOL    HW182937   7.292  11.519   0.635
60366SOL    HW282938   7.352  11.483   0.769
60367SOL     OW82939   0.338   9.530   3.128
60367SOL    HW182940   0.401   9.492   3.189
60367SOL    HW282941   0.260   9.475   3.137
60368SOL     OW82942   6.421  14.226   7.259
60368SOL    HW182943   6.380  14.267   7.183
60368SOL    HW282944   6.365  14.151   7.279
60369SOL     OW82945   5.771   3.077   2.670
60369SOL    HW182946   5.841   3.142   2.663
60369SOL    HW282947   5.730   3.096   2.754
60370SOL     OW82948  12.344  10.895   0.048
60370SOL    HW182949  12.342  10.878  14.827
60370SOL    HW282950  12.437  10.906   0.068
60371SOL     OW82951  10.812   5.431   2.141
60371SOL    HW182952  10.784   5.363   2.080
60371SOL    HW282953  10.827   5.508   2.085
60372SOL     OW82954   4.245  10.474  10.705
60372SOL    HW182955   4.158  10.439  10.686
60372SOL    HW282956   4.306  10.412  10.665
60373SOL     OW82957   9.862   4.147   1.276
60373SOL    HW182958   9.775   4.134   1.239
60373SOL    HW282959   9.921   4.144   1.200
60374SOL     OW82960   9.354   9.250  13.920
60374SOL    HW182961   9.445   9.243  13.891
60374SOL    HW282962   9.342   9.343  13.937
60375SOL     OW82963  10.888  13.820  12.575
60375SOL    HW182964  10.825  13.869  12.628
60375SOL    HW282965  10.934  13.887  12.525
60376SOL     OW82966  13.806  12.163   3.464
60376SOL    HW182967  13.859  12.211   3.528
60376SOL    HW282968  13.781  12.082   3.510
60377SOL     OW82969  11.871   1.914  10.709
60377SOL    HW182970  11.801   1.977  10.692
60377SOL    HW282971  11.827   1.842  10.755
60378SOL     OW82972  12.601   2.914   4.881
60378SOL    HW182973  12.509   2.909   4.854
60378SOL    HW282974  12.610   2.847   4.949
60379SOL     OW82975   8.158   3.204   3.099
60379SOL    HW182976   8.140   3.292   3.066
60379SOL    HW282977   8.098   3.194   3.173
60380SOL     OW82978   3.469   4.718  13.915
60380SOL    HW182979   3.406   4.739  13.984
60380SOL    HW282980   3.550   4.760  13.943
60381SOL     OW82981   7.008  12.923   0.951
60381SOL    HW182982   7.081  12.957   0.899
60381SOL    HW282983   6.963  13.001   0.984
60382SOL     OW82984   0.033  14.187   5.095
60382SOL    HW182985   0.107  14.219   5.146
60382SOL    HW282986  14.849  14.263   5.087
60383SOL     OW82987  13.090  12.616   5.543
60383SOL    HW182988  13.116  12.595   5.632
60383SOL    HW282989  13.026  12.687   5.552
60384SOL     OW82990  10.489   3.278  13.618
60384SOL    HW182991  10.414   3.269  13.559
60384SOL    HW282992  10.529   3.191  13.620
60385SOL     OW82993  11.964   4.925   2.322
60385SOL    HW182994  11.951   4.950   2.231
60385SOL    HW282995  12.053   4.953   2.342
60386SOL     OW82996   3.250   7.420   6.945
60386SOL    HW182997   3.258   7.514   6.926
60386SOL    HW282998   3.159   7.399   6.922
60387SOL     OW82999  10.242  11.257  13.888
60387SOL    HW183000  10.337  11.258  13.873
60387SOL    HW283001  10.209  11.193  13.825
60388SOL     OW83002  10.800   0.055  12.747
60388SOL    HW183003  10.889   0.035  12.718
60388SOL    HW283004  10.757  14.843  12.751
60389SOL     OW83005  11.486  11.867   7.059
60389SOL    HW183006  11.554  11.800   7.061
60389SOL    HW283007  11.510  11.928   7.128
60390SOL     OW83008   1.688   3.049   8.710
60390SOL    HW183009   1.777   3.083   8.717
60390SOL    HW283010   1.667   3.019   8.798
60391SOL     OW83011  14.447   9.934  14.213
60391SOL    HW183012  14.395  10.000  14.259
60391SOL    HW283013  14.388   9.897  14.147
60392SOL     OW83014   1.001   2.275   1.152
60392SOL    HW183015   1.091   2.245   1.161
60392SOL    HW283016   1.009   2.370   1.136
60393SOL     OW83017   2.562  12.372   8.676
60393SOL    HW183018   2.491  12.386   8.739
60393SOL    HW283019   2.541  12.432   8.604
60394SOL     OW83020   4.858   4.781  14.839
60394SOL    HW183021   4.894   4.718   0.027
60394SOL    HW283022   4.765   4.760  14.835
60395SOL     OW83023   8.067  10.540  14.458
60395SOL    HW183024   8.004  10.528  14.387
60395SOL    HW283025   8.016  10.579  14.529
60396SOL     OW83026   7.064   7.542  12.947
60396SOL    HW183027   7.154   7.517  12.925
60396SOL    HW283028   7.071   7.581  13.034
60397SOL     OW83029  14.422  10.447   3.259
60397SOL    HW183030  14.514  10.458   3.282
60397SOL    HW283031  14.384  10.399   3.332
60398SOL     OW83032  13.678   5.119   2.499
60398SOL    HW183033  13.739   5.132   2.571
60398SOL    HW283034  13.677   5.203   2.453
60399SOL     OW83035   5.704   8.068   5.380
60399SOL    HW183036   5.621   8.103   5.411
60399SOL    HW283037   5.685   7.976   5.360
60400SOL     OW83038   6.890   6.597   3.698
60400SOL    HW183039   6.985   6.604   3.703
60400SOL    HW283040   6.864   6.668   3.640
60401SOL     OW83041   1.820  13.963   9.126
60401SOL    HW183042   1.875  14.022   9.074
60401SOL    HW283043   1.740  13.953   9.075
60402SOL     OW83044   1.112   4.016   4.175
60402SOL    HW183045   1.140   4.100   4.211
60402SOL    HW283046   1.134   3.951   4.242
60403SOL     OW83047   8.938   7.376  11.293
60403SOL    HW183048   8.928   7.307  11.228
60403SOL    HW283049   8.974   7.450  11.244
60404SOL     OW83050  14.138   3.212   7.911
60404SOL    HW183051  14.101   3.301   7.915
60404SOL    HW283052  14.168   3.195   8.000
60405SOL     OW83053   2.772   8.187   0.853
60405SOL    HW183054   2.867   8.203   0.862
60405SOL    HW283055   2.764   8.141   0.769
60406SOL     OW83056   0.540  10.415   4.895
60406SOL    HW183057   0.514  10.357   4.823
60406SOL    HW283058   0.543  10.357   4.971
60407SOL     OW83059   8.361   2.791   2.011
60407SOL    HW183060   8.449   2.827   2.022
60407SOL    HW283061   8.363   2.747   1.926
60408SOL     OW83062  12.607   1.724  12.171
60408SOL    HW183063  12.604   1.665  12.096
60408SOL    HW283064  12.630   1.809  12.133
60409SOL     OW83065  12.816  13.387   2.174
60409SOL    HW183066  12.781  13.447   2.108
60409SOL    HW283067  12.891  13.346   2.131
60410SOL     OW83068   7.801  11.000   2.409
60410SOL    HW183069   7.831  11.090   2.400
60410SOL    HW283070   7.741  10.988   2.336
60411SOL     OW83071  12.193  12.007   8.911
60411SOL    HW183072  12.248  11.958   8.972
60411SOL    HW283073  12.107  11.965   8.917
60412SOL     OW83074   4.939   6.091   2.978
60412SOL    HW183075   4.951   6.004   3.017
60412SOL    HW283076   5.018   6.139   3.002
60413SOL     OW83077   7.781   4.687  14.573
60413SOL    HW183078   7.720   4.724  14.509
60413SOL    HW283079   7.860   4.741  14.566
60414SOL     OW83080   6.779   4.870   2.636
60414SOL    HW183081   6.735   4.864   2.551
60414SOL    HW283082   6.772   4.963   2.660
60415SOL     OW83083   1.138   3.943   5.961
60415SOL    HW183084   1.122   4.031   5.993
60415SOL    HW283085   1.222   3.949   5.915
60416SOL     OW83086  11.002  13.029   1.072
60416SOL    HW183087  11.071  12.983   1.120
60416SOL    HW283088  10.984  13.108   1.123
60417SOL     OW83089   7.246  12.555   2.788
60417SOL    HW183090   7.320  12.556   2.727
60417SOL    HW283091   7.179  12.607   2.743
60418SOL     OW83092   3.956  12.087   3.189
60418SOL    HW183093   3.968  12.160   3.128
60418SOL    HW283094   3.864  12.093   3.215
60419SOL     OW83095  12.304   5.506   1.434
60419SOL    HW183096  12.221   5.540   1.401
60419SOL    HW283097  12.370   5.565   1.397
60420SOL     OW83098   5.127   5.772  10.283
60420SOL    HW183099   5.196   5.805  10.342
60420SOL    HW283100   5.050   5.764  10.339
60421SOL     OW83101  12.545   5.841   7.694
60421SOL    HW183102  12.613   5.775   7.712
60421SOL    HW283103  12.465   5.802   7.728
60422SOL     OW83104  14.194  10.013   3.635
60422SOL    HW183105  14.222  10.045   3.550
60422SOL    HW283106  14.111  10.058   3.651
60423SOL     OW83107   7.753   8.578   4.082
60423SOL    HW183108   7.783   8.521   4.011
60423SOL    HW283109   7.782   8.535   4.162
60424SOL     OW83110   7.603   9.466  13.754
60424SOL    HW183111   7.573   9.476  13.844
60424SOL    HW283112   7.575   9.378  13.729
60425SOL     OW83113   2.241   8.581   4.599
60425SOL    HW183114   2.257   8.509   4.660
60425SOL    HW283115   2.204   8.539   4.522
60426SOL     OW83116   0.712  11.204  10.614
60426SOL    HW183117   0.774  11.134  10.633
60426SOL    HW283118   0.740  11.277  10.669
60427SOL     OW83119  12.534   3.178   9.123
60427SOL    HW183120  12.559   3.179   9.216
60427SOL    HW283121  12.593   3.115   9.083
60428SOL     OW83122   1.025   1.275   3.796
60428SOL    HW183123   1.024   1.289   3.702
60428SOL    HW283124   0.977   1.193   3.809
60429SOL     OW83125   5.978   8.512   0.161
60429SOL    HW183126   5.991   8.505   0.255
60429SOL    HW283127   6.032   8.587   0.135
60430SOL     OW83128   2.432   5.826   9.088
60430SOL    HW183129   2.339   5.802   9.089
60430SOL    HW283130   2.434   5.914   9.126
60431SOL     OW83131  14.440   2.714   8.720
60431SOL    HW183132  14.388   2.635   8.736
60431SOL    HW283133  14.377   2.779   8.688
60432SOL     OW83134  12.389   5.818   9.953
60432SOL    HW183135  12.472   5.848   9.917
60432SOL    HW283136  12.355   5.893  10.002
60433SOL     OW83137   8.285   5.768  10.516
60433SOL    HW183138   8.217   5.716  10.558
60433SOL    HW283139   8.309   5.834  10.581
60434SOL     OW83140   0.390   0.466   0.423
60434SOL    HW183141   0.363   0.503   0.338
60434SOL    HW283142   0.348   0.380   0.425
60435SOL     OW83143   8.858  12.894   3.475
60435SOL    HW183144   8.868  12.979   3.517
60435SOL    HW283145   8.769  12.896   3.438
60436SOL     OW83146   4.456   5.254   5.064
60436SOL    HW183147   4.437   5.173   5.016
60436SOL    HW283148   4.421   5.324   5.008
60437SOL     OW83149   0.757   7.446   5.081
60437SOL    HW183150   0.708   7.502   5.141
60437SOL    HW283151   0.727   7.470   4.994
60438SOL     OW83152   6.289  10.829   6.544
60438SOL    HW183153   6.327  10.815   6.631
60438SOL    HW283154   6.283  10.924   6.535
60439SOL     OW83155   9.501   6.693  11.824
60439SOL    HW183156   9.496   6.787  11.806
60439SOL    HW283157   9.426   6.656  11.778
60440SOL     OW83158   4.304   6.041   4.339
60440SOL    HW183159   4.379   6.044   4.281
60440SOL    HW283160   4.283   6.133   4.357
60441SOL     OW83161  12.386  12.654  10.213
60441SOL    HW183162  12.470  12.671  10.254
60441SOL    HW283163  12.386  12.708  10.134
60442SOL     OW83164   5.618   2.768  12.661
60442SOL    HW183165   5.659   2.843  12.619
60442SOL    HW283166   5.545   2.744  12.604
60443SOL     OW83167   8.418  10.715   6.380
60443SOL    HW183168   8.418  10.620   6.369
60443SOL    HW283169   8.446  10.749   6.295
60444SOL     OW83170  11.048  10.928   2.634
60444SOL    HW183171  11.061  11.020   2.610
60444SOL    HW283172  10.982  10.930   2.703
60445SOL     OW83173  12.151   0.156   3.559
60445SOL    HW183174  12.236   0.194   3.578
60445SOL    HW283175  12.170   0.083   3.499
60446SOL     OW83176   2.465  13.846  11.015
60446SOL    HW183177   2.545  13.823  11.063
60446SOL    HW283178   2.420  13.762  11.002
60447SOL     OW83179   1.288   9.521   4.486
60447SOL    HW183180   1.254   9.569   4.411
60447SOL    HW283181   1.353   9.462   4.448
60448SOL     OW83182   3.960   7.777   9.422
60448SOL    HW183183   4.055   7.772   9.429
60448SOL    HW283184   3.928   7.704   9.474
60449SOL     OW83185   4.952  11.015   1.914
60449SOL    HW183186   4.947  11.056   1.828
60449SOL    HW283187   5.002  11.078   1.967
60450SOL     OW83188   1.476   9.973   3.660
60450SOL    HW183189   1.537   9.903   3.637
60450SOL    HW283190   1.514  10.051   3.620
60451SOL     OW83191  13.070  12.258   3.409
60451SOL    HW183192  12.993  12.235   3.358
60451SOL    HW283193  13.119  12.176   3.417
60452SOL     OW83194   9.881   2.934   0.066
60452SOL    HW183195   9.807   2.984   0.032
60452SOL    HW283196   9.940   2.925  14.865
60453SOL     OW83197  13.749   6.046  11.928
60453SOL    HW183198  13.726   5.992  11.852
60453SOL    HW283199  13.734   5.989  12.004
60454SOL     OW83200   3.447  13.749   9.673
60454SOL    HW183201   3.398  13.667   9.677
60454SOL    HW283202   3.401  13.801   9.607
60455SOL     OW83203   3.722  13.060  12.111
60455SOL    HW183204   3.709  13.103  12.196
60455SOL    HW283205   3.815  13.039  12.109
60456SOL     OW83206   3.363   1.440   2.450
60456SOL    HW183207   3.391   1.530   2.466
60456SOL    HW283208   3.444   1.394   2.427
60457SOL     OW83209   6.697  11.488   3.181
60457SOL    HW183210   6.634  11.420   3.202
60457SOL    HW283211   6.713  11.477   3.087
60458SOL     OW83212   0.135   6.277   0.326
60458SOL    HW183213   0.106   6.272   0.418
60458SOL    HW283214   0.059   6.246   0.276
60459SOL     OW83215  11.493   3.787   9.253
60459SOL    HW183216  11.408   3.791   9.210
60459SOL    HW283217  11.473   3.792   9.347
60460SOL     OW83218   7.085  14.411   1.528
60460SOL    HW183219   7.045  14.417   1.615
60460SOL    HW283220   7.056  14.327   1.494
60461SOL     OW83221   7.650   2.456   3.755
60461SOL    HW183222   7.742   2.468   3.734
60461SOL    HW283223   7.649   2.381   3.816
60462SOL     OW83224   1.837   5.065   6.695
60462SOL    HW183225   1.811   5.153   6.723
60462SOL    HW283226   1.928   5.056   6.724
60463SOL     OW83227   7.071   6.607   5.382
60463SOL    HW183228   6.992   6.564   5.416
60463SOL    HW283229   7.119   6.634   5.460
60464SOL     OW83230  10.522   8.349   3.337
60464SOL    HW183231  10.501   8.285   3.405
60464SOL    HW283232  10.497   8.433   3.374
60465SOL     OW83233  14.123   6.770   5.796
60465SOL    HW183234  14.144   6.864   5.794
60465SOL    HW283235  14.205   6.728   5.820
60466SOL     OW83236  12.040  12.868   9.290
60466SOL    HW183237  12.083  12.795   9.335
60466SOL    HW283238  12.105  12.939   9.292
60467SOL     OW83239  11.097   3.559   8.323
60467SOL    HW183240  11.141   3.644   8.334
60467SOL    HW283241  11.060   3.540   8.410
60468SOL     OW83242   4.624   6.753   7.974
60468SOL    HW183243   4.677   6.693   8.025
60468SOL    HW283244   4.613   6.710   7.889
60469SOL     OW83245  12.215  11.425   6.192
60469SOL    HW183246  12.184  11.341   6.225
60469SOL    HW283247  12.141  11.459   6.141
60470SOL     OW83248  14.050   5.602   0.665
60470SOL    HW183249  14.123   5.557   0.708
60470SOL    HW283250  13.972   5.561   0.701
60471SOL     OW83251   0.990  14.343   7.201
60471SOL    HW183252   1.066  14.399   7.218
60471SOL    HW283253   0.924  14.373   7.264
60472SOL     OW83254   4.622   6.341   4.850
60472SOL    HW183255   4.707   6.298   4.840
60472SOL    HW283256   4.642   6.435   4.843
60473SOL     OW83257  10.825   5.760  10.366
60473SOL    HW183258  10.895   5.697  10.381
60473SOL    HW283259  10.866   5.830  10.315
60474SOL     OW83260   1.364  14.482   3.782
60474SOL    HW183261   1.406  14.491   3.697
60474SOL    HW283262   1.276  14.450   3.761
60475SOL     OW83263   2.250  10.818   0.651
60475SOL    HW183264   2.282  10.903   0.679
60475SOL    HW283265   2.317  10.784   0.592
60476SOL     OW83266   5.142   1.646   7.421
60476SOL    HW183267   5.107   1.735   7.420
60476SOL    HW283268   5.084   1.597   7.362
60477SOL     OW83269   0.158  11.175  14.758
60477SOL    HW183270   0.237  11.204  14.712
60477SOL    HW283271   0.158  11.080  14.747
60478SOL     OW83272   5.256   1.664   4.891
60478SOL    HW183273   5.236   1.571   4.879
60478SOL    HW283274   5.350   1.666   4.911
60479SOL     OW83275   6.660   9.802  14.496
60479SOL    HW183276   6.581   9.786  14.444
60479SOL    HW283277   6.644   9.885  14.540
60480SOL     OW83278   9.922   8.216   1.333
60480SOL    HW183279   9.899   8.306   1.355
60480SOL    HW283280   9.976   8.224   1.254
60481SOL     OW83281   8.357   0.921  14.151
60481SOL    HW183282   8.348   0.942  14.058
60481SOL    HW283283   8.446   0.887  14.159
60482SOL     OW83284   9.171   1.030   2.877
60482SOL    HW183285   9.088   0.984   2.889
60482SOL    HW283286   9.202   1.049   2.966
60483SOL     OW83287  13.971   6.914  13.816
60483SOL    HW183288  13.956   6.885  13.906
60483SOL    HW283289  13.884   6.913  13.776
60484SOL     OW83290   0.876   2.974   8.853
60484SOL    HW183291   0.905   2.998   8.941
60484SOL    HW283292   0.905   3.047   8.797
60485SOL     OW83293   6.703   9.786  12.468
60485SOL    HW183294   6.614   9.778  12.502
60485SOL    HW283295   6.751   9.833  12.537
60486SOL     OW83296   9.886   8.835  10.073
60486SOL    HW183297   9.816   8.834  10.009
60486SOL    HW283298   9.954   8.779  10.035
60487SOL     OW83299   6.743  14.811   7.120
60487SOL    HW183300   6.798   0.008   7.087
60487SOL    HW283301   6.791  14.776   7.195
60488SOL     OW83302   4.310  13.251   9.188
60488SOL    HW183303   4.220  13.228   9.209
60488SOL    HW283304   4.319  13.230   9.095
60489SOL     OW83305  13.948   7.350   6.126
60489SOL    HW183306  13.868   7.340   6.074
60489SOL    HW283307  13.957   7.444   6.137
60490SOL     OW83308   4.345  10.193  14.309
60490SOL    HW183309   4.349  10.180  14.404
60490SOL    HW283310   4.376  10.282  14.296
60491SOL     OW83311   3.188   3.505   6.953
60491SOL    HW183312   3.258   3.443   6.931
60491SOL    HW283313   3.111   3.449   6.968
60492SOL     OW83314  13.417   5.612  11.891
60492SOL    HW183315  13.378   5.660  11.818
60492SOL    HW283316  13.389   5.521  11.879
60493SOL     OW83317   2.573  12.910   3.413
60493SOL    HW183318   2.615  12.836   3.370
60493SOL    HW283319   2.610  12.987   3.369
60494SOL     OW83320   4.366  14.678   5.464
60494SOL    HW183321   4.390  14.770   5.477
60494SOL    HW283322   4.352  14.670   5.370
60495SOL     OW83323   0.313  10.235   2.036
60495SOL    HW183324   0.394  10.231   2.087
60495SOL    HW283325   0.309  10.151   1.992
60496SOL     OW83326  12.926  11.810  12.488
60496SOL    HW183327  12.850  11.767  12.449
60496SOL    HW283328  12.889  11.873  12.550
60497SOL     OW83329   0.871   6.873   5.799
60497SOL    HW183330   0.949   6.844   5.752
60497SOL    HW283331   0.904   6.904   5.884
60498SOL     OW83332  11.748   2.499   7.391
60498SOL    HW183333  11.825   2.463   7.346
60498SOL    HW283334  11.724   2.431   7.454
60499SOL     OW83335   0.149   5.209   3.439
60499SOL    HW183336   0.128   5.116   3.424
60499SOL    HW283337   0.236   5.208   3.479
60500SOL     OW83338   5.941  12.060   9.695
60500SOL    HW183339   5.877  11.990   9.709
60500SOL    HW283340   5.950  12.066   9.600
60501SOL     OW83341   8.669   7.785   5.715
60501SOL    HW183342   8.644   7.782   5.808
60501SOL    HW283343   8.678   7.694   5.690
60502SOL     OW83344   0.007   3.639  14.082
60502SOL    HW183345  14.805   3.648  14.024
60502SOL    HW283346   0.033   3.729  14.101
60503SOL     OW83347   2.962   1.522   8.625
60503SOL    HW183348   3.008   1.450   8.670
60503SOL    HW283349   3.019   1.598   8.638
60504SOL     OW83350   0.710   1.325   6.931
60504SOL    HW183351   0.787   1.346   6.984
60504SOL    HW283352   0.655   1.273   6.989
60505SOL     OW83353  14.033   1.808   6.487
60505SOL    HW183354  13.991   1.794   6.402
60505SOL    HW283355  14.081   1.890   6.476
60506SOL     OW83356   2.044  11.320   7.662
60506SOL    HW183357   2.059  11.386   7.594
60506SOL    HW283358   2.014  11.371   7.738
60507SOL     OW83359   7.791  14.073   6.086
60507SOL    HW183360   7.881  14.042   6.100
60507SOL    HW283361   7.751  14.069   6.173
60508SOL     OW83362   0.469   5.497   8.229
60508SOL    HW183363   0.445   5.423   8.285
60508SOL    HW283364   0.525   5.552   8.284
60509SOL     OW83365   8.531   7.702   0.237
60509SOL    HW183366   8.475   7.646   0.184
60509SOL    HW283367   8.620   7.676   0.212
60510SOL     OW83368   8.167  10.517   0.163
60510SOL    HW183369   8.113  10.594   0.144
60510SOL    HW283370   8.203  10.491   0.078
60511SOL     OW83371   8.277  11.396  11.061
60511SOL    HW183372   8.321  11.371  10.980
60511SOL    HW283373   8.228  11.318  11.087
60512SOL     OW83374   9.405  10.333   0.774
60512SOL    HW183375   9.344  10.261   0.790
60512SOL    HW283376   9.491  10.297   0.795
60513SOL     OW83377   8.546   9.470   6.912
60513SOL    HW183378   8.461   9.509   6.896
60513SOL    HW283379   8.586   9.462   6.826
60514SOL     OW83380  12.875   2.304   1.484
60514SOL    HW183381  12.927   2.337   1.558
60514SOL    HW283382  12.794   2.272   1.523
60515SOL     OW83383  11.248   4.642   8.948
60515SOL    HW183384  11.212   4.638   9.037
60515SOL    HW283385  11.265   4.551   8.925
60516SOL     OW83386  13.759   7.341   5.703
60516SOL    HW183387  13.845   7.365   5.736
60516SOL    HW283388  13.724   7.281   5.770
60517SOL     OW83389   0.522   4.086  12.956
60517SOL    HW183390   0.574   4.022  12.907
60517SOL    HW283391   0.440   4.092  12.907
60518SOL     OW83392   9.077   7.938   6.236
60518SOL    HW183393   9.059   8.014   6.182
60518SOL    HW283394   9.006   7.936   6.300
60519SOL     OW83395  11.834   3.402   8.859
60519SOL    HW183396  11.784   3.363   8.930
60519SOL    HW283397  11.804   3.493   8.857
60520SOL     OW83398   2.066   6.822  12.020
60520SOL    HW183399   2.051   6.851  12.110
60520SOL    HW283400   2.017   6.884  11.966
60521SOL     OW83401   2.188  12.307  12.575
60521SOL    HW183402   2.169  12.320  12.668
60521SOL    HW283403   2.150  12.222  12.554
60522SOL     OW83404   2.841   4.428   3.696
60522SOL    HW183405   2.877   4.350   3.738
60522SOL    HW283406   2.913   4.491   3.695
60523SOL     OW83407  13.316   5.423  10.567
60523SOL    HW183408  13.382   5.422  10.498
60523SOL    HW283409  13.335   5.346  10.619
60524SOL     OW83410   7.397  14.795   0.326
60524SOL    HW183411   7.407  14.828   0.415
60524SOL    HW283412   7.355  14.709   0.338
60525SOL     OW83413  11.447   3.273  14.226
60525SOL    HW183414  11.385   3.202  14.215
60525SOL    HW283415  11.470   3.272  14.319
60526SOL     OW83416   8.365   4.611   0.770
60526SOL    HW183417   8.292   4.575   0.819
60526SOL    HW283418   8.405   4.675   0.829
60527SOL     OW83419   8.024  13.040   3.094
60527SOL    HW183420   7.999  13.113   3.150
60527SOL    HW283421   8.105  13.068   3.052
60528SOL     OW83422   2.017  12.141   1.446
60528SOL    HW183423   1.934  12.125   1.490
60528SOL    HW283424   1.998  12.208   1.381
60529SOL     OW83425   4.251  11.638  10.333
60529SOL    HW183426   4.220  11.728  10.345
60529SOL    HW283427   4.340  11.647  10.300
60530SOL     OW83428  10.920  13.137  13.661
60530SOL    HW183429  10.992  13.074  13.667
60530SOL    HW283430  10.899  13.141  13.568
60531SOL     OW83431   4.374   7.986  12.416
60531SOL    HW183432   4.449   8.040  12.391
60531SOL    HW283433   4.368   7.995  12.511
60532SOL     OW83434   1.182   0.777  14.079
60532SOL    HW183435   1.243   0.735  14.140
60532SOL    HW283436   1.129   0.706  14.045
60533SOL     OW83437   5.389   3.854  14.546
60533SOL    HW183438   5.335   3.856  14.467
60533SOL    HW283439   5.431   3.768  14.544
60534SOL     OW83440   6.288   3.085   5.835
60534SOL    HW183441   6.237   3.075   5.754
60534SOL    HW283442   6.373   3.048   5.814
60535SOL     OW83443   1.002   6.941   8.324
60535SOL    HW183444   1.024   7.029   8.291
60535SOL    HW283445   1.035   6.941   8.414
60536SOL     OW83446   2.040   0.521  11.265
60536SOL    HW183447   2.096   0.582  11.314
60536SOL    HW283448   2.030   0.446  11.324
60537SOL     OW83449   1.965  14.049   4.659
60537SOL    HW183450   1.937  14.086   4.743
60537SOL    HW283451   1.928  14.107   4.593
60538SOL     OW83452   9.583   7.378  11.591
60538SOL    HW183453   9.657   7.378  11.652
60538SOL    HW283454   9.575   7.286  11.564
60539SOL     OW83455   0.105   3.313  10.746
60539SOL    HW183456   0.194   3.280  10.736
60539SOL    HW283457   0.080   3.288  10.835
60540SOL     OW83458  12.314   1.000  13.953
60540SOL    HW183459  12.268   1.074  13.913
60540SOL    HW283460  12.359   0.958  13.880
60541SOL     OW83461   1.615   8.628   8.603
60541SOL    HW183462   1.540   8.662   8.555
60541SOL    HW283463   1.577   8.581   8.678
60542SOL     OW83464   4.042   1.813  13.443
60542SOL    HW183465   4.051   1.888  13.384
60542SOL    HW283466   4.119   1.759  13.425
60543SOL     OW83467  12.477   0.050  12.054
60543SOL    HW183468  12.422   0.039  11.976
60543SOL    HW283469  12.560   0.008  12.030
60544SOL     OW83470   1.376   3.091  10.977
60544SOL    HW183471   1.299   3.048  10.939
60544SOL    HW283472   1.451   3.047  10.937
60545SOL     OW83473   0.465  12.104   7.900
60545SOL    HW183474   0.473  12.194   7.869
60545SOL    HW283475   0.519  12.101   7.979
60546SOL     OW83476  14.870  11.459   1.247
60546SOL    HW183477  14.793  11.449   1.303
60546SOL    HW283478   0.023  11.369   1.227
60547SOL     OW83479   5.557   9.121   1.885
60547SOL    HW183480   5.592   9.154   1.802
60547SOL    HW283481   5.495   9.188   1.913
60548SOL     OW83482   8.609   9.948   6.677
60548SOL    HW183483   8.568   9.863   6.668
60548SOL    HW283484   8.607   9.985   6.588
60549SOL     OW83485  11.457   8.629   7.476
60549SOL    HW183486  11.365   8.647   7.494
60549SOL    HW283487  11.495   8.612   7.563
60550SOL     OW83488  14.505   1.772   9.121
60550SOL    HW183489  14.416   1.784   9.152
60550SOL    HW283490  14.530   1.685   9.151
60551SOL     OW83491   4.583   8.553   5.516
60551SOL    HW183492   4.535   8.630   5.547
60551SOL    HW283493   4.671   8.564   5.552
60552SOL     OW83494   5.963   4.951  14.769
60552SOL    HW183495   6.018   4.973  14.844
60552SOL    HW283496   6.025   4.927  14.700
60553SOL     OW83497   7.913   7.853  14.809
60553SOL    HW183498   7.873   7.822   0.016
60553SOL    HW283499   7.964   7.779  14.777
60554SOL     OW83500  12.813   1.568  11.324
60554SOL    HW183501  12.842   1.581  11.414
60554SOL    HW283502  12.815   1.656  11.285
60555SOL     OW83503  11.359   7.652   5.134
60555SOL    HW183504  11.389   7.692   5.215
60555SOL    HW283505  11.263   7.648   5.143
60556SOL     OW83506   6.239   4.643  10.188
60556SOL    HW183507   6.199   4.718  10.232
60556SOL    HW283508   6.284   4.680  10.113
60557SOL     OW83509   7.435   3.552   9.640
60557SOL    HW183510   7.518   3.577   9.598
60557SOL    HW283511   7.452   3.562   9.733
60558SOL     OW83512   0.881   4.139   2.178
60558SOL    HW183513   0.823   4.113   2.250
60558SOL    HW283514   0.878   4.066   2.117
60559SOL     OW83515   2.669  13.362  11.522
60559SOL    HW183516   2.722  13.374  11.600
60559SOL    HW283517   2.582  13.340  11.555
60560SOL     OW83518   4.388   6.995   8.567
60560SOL    HW183519   4.369   7.076   8.613
60560SOL    HW283520   4.380   7.018   8.474
60561SOL     OW83521  11.543   1.095   2.252
60561SOL    HW183522  11.494   1.013   2.250
60561SOL    HW283523  11.634   1.069   2.259
60562SOL     OW83524   6.087  10.911   1.658
60562SOL    HW183525   6.045  10.927   1.743
60562SOL    HW283526   6.056  10.982   1.603
60563SOL     OW83527  13.433   6.994  10.204
60563SOL    HW183528  13.349   7.028  10.235
60563SOL    HW283529  13.499   7.040  10.256
60564SOL     OW83530  12.688   5.382   2.805
60564SOL    HW183531  12.665   5.322   2.876
60564SOL    HW283532  12.655   5.467   2.833
60565SOL     OW83533   6.441  10.502   2.626
60565SOL    HW183534   6.352  10.470   2.638
60565SOL    HW283535   6.434  10.597   2.635
60566SOL     OW83536   6.314  10.739  12.493
60566SOL    HW183537   6.229  10.696  12.488
60566SOL    HW283538   6.374  10.669  12.519
60567SOL     OW83539   9.717   5.969  13.040
60567SOL    HW183540   9.656   6.039  13.062
60567SOL    HW283541   9.681   5.930  12.961
60568SOL     OW83542  12.595   3.127   0.222
60568SOL    HW183543  12.610   3.033   0.231
60568SOL    HW283544  12.524   3.133   0.158
60569SOL     OW83545   2.969   3.637   8.187
60569SOL    HW183546   3.014   3.679   8.260
60569SOL    HW283547   2.973   3.543   8.207
60570SOL     OW83548  10.413  10.658  10.946
60570SOL    HW183549  10.484  10.598  10.923
60570SOL    HW283550  10.458  10.730  10.991
60571SOL     OW83551  13.963   2.700  11.146
60571SOL    HW183552  13.899   2.709  11.075
60571SOL    HW283553  14.030   2.642  11.110
60572SOL     OW83554   0.179  12.813   2.985
60572SOL    HW183555   0.240  12.879   3.018
60572SOL    HW283556   0.141  12.774   3.063
60573SOL     OW83557   5.568   4.826  14.861
60573SOL    HW183558   5.556   4.801  14.770
60573SOL    HW283559   5.512   4.765   0.036
60574SOL     OW83560   2.155   5.273   0.059
60574SOL    HW183561   2.183   5.347   0.113
60574SOL    HW283562   2.234   5.247   0.011
60575SOL     OW83563  11.340   8.196   7.064
60575SOL    HW183564  11.418   8.215   7.116
60575SOL    HW283565  11.311   8.280   7.030
60576SOL     OW83566   4.167   7.586  11.969
60576SOL    HW183567   4.221   7.578  12.048
60576SOL    HW283568   4.103   7.515  11.976
60577SOL     OW83569  11.580  11.902   5.711
60577SOL    HW183570  11.561  11.890   5.804
60577SOL    HW283571  11.634  11.981   5.708
60578SOL     OW83572   7.182   5.459   3.812
60578SOL    HW183573   7.113   5.501   3.761
60578SOL    HW283574   7.181   5.367   3.784
60579SOL     OW83575   6.952  14.658  11.203
60579SOL    HW183576   6.871  14.675  11.155
60579SOL    HW283577   6.923  14.628  11.289
60580SOL     OW83578   1.144   5.357   8.641
60580SOL    HW183579   1.135   5.340   8.734
60580SOL    HW283580   1.208   5.293   8.610
60581SOL     OW83581   2.691  14.196   4.372
60581SOL    HW183582   2.637  14.229   4.301
60581SOL    HW283583   2.768  14.252   4.372
60582SOL     OW83584   9.301  11.320   3.602
60582SOL    HW183585   9.237  11.260   3.564
60582SOL    HW283586   9.257  11.405   3.601
60583SOL     OW83587   8.480   7.387   8.851
60583SOL    HW183588   8.546   7.450   8.821
60583SOL    HW283589   8.441   7.352   8.770
60584SOL     OW83590   1.444  11.202   4.335
60584SOL    HW183591   1.480  11.115   4.316
60584SOL    HW283592   1.395  11.226   4.256
60585SOL     OW83593   7.145   2.228  10.606
60585SOL    HW183594   7.077   2.166  10.580
60585SOL    HW283595   7.145   2.294  10.537
60586SOL     OW83596  13.373  11.561  14.205
60586SOL    HW183597  13.359  11.543  14.112
60586SOL    HW283598  13.378  11.657  14.210
60587SOL     OW83599  13.318  12.021  13.390
60587SOL    HW183600  13.231  11.988  13.366
60587SOL    HW283601  13.300  12.097  13.446
60588SOL     OW83602   5.241   7.937   2.587
60588SOL    HW183603   5.201   7.906   2.506
60588SOL    HW283604   5.173   7.989   2.629
60589SOL     OW83605   2.017   2.237   6.536
60589SOL    HW183606   2.032   2.302   6.467
60589SOL    HW283607   2.071   2.266   6.609
60590SOL     OW83608   4.014   5.249   3.823
60590SOL    HW183609   3.925   5.284   3.816
60590SOL    HW283610   4.027   5.235   3.917
60591SOL     OW83611  13.664   9.451   8.564
60591SOL    HW183612  13.680   9.379   8.502
60591SOL    HW283613  13.746   9.499   8.567
60592SOL     OW83614  10.939  13.599   5.223
60592SOL    HW183615  11.011  13.550   5.182
60592SOL    HW283616  10.971  13.619   5.311
60593SOL     OW83617  13.904  10.796  13.994
60593SOL    HW183618  13.851  10.754  13.926
60593SOL    HW283619  13.988  10.749  13.991
60594SOL     OW83620  12.783   6.637  10.745
60594SOL    HW183621  12.870   6.600  10.759
60594SOL    HW283622  12.726   6.562  10.732
60595SOL     OW83623   6.522   1.951   9.240
60595SOL    HW183624   6.455   2.008   9.278
60595SOL    HW283625   6.570   1.917   9.316
60596SOL     OW83626   2.367  11.835   9.325
60596SOL    HW183627   2.387  11.869   9.238
60596SOL    HW283628   2.446  11.789   9.352
60597SOL     OW83629  13.395   7.546  10.555
60597SOL    HW183630  13.334   7.618  10.570
60597SOL    HW283631  13.354   7.471  10.599
60598SOL     OW83632  12.399   4.470   5.871
60598SOL    HW183633  12.305   4.486   5.869
60598SOL    HW283634  12.437   4.548   5.911
60599SOL     OW83635  11.906   1.798  10.243
60599SOL    HW183636  11.833   1.850  10.275
60599SOL    HW283637  11.866   1.732  10.187
60600SOL     OW83638   5.899  14.718   8.040
60600SOL    HW183639   5.842  14.693   7.967
60600SOL    HW283640   5.988  14.704   8.006
60601SOL     OW83641  12.797  11.676   3.645
60601SOL    HW183642  12.716  11.627   3.628
60601SOL    HW283643  12.864  11.609   3.656
60602SOL     OW83644   4.115   3.661   5.805
60602SOL    HW183645   4.044   3.696   5.752
60602SOL    HW283646   4.186   3.724   5.794
60603SOL     OW83647  14.770  11.047   3.985
60603SOL    HW183648  14.822  11.002   3.918
60603SOL    HW283649  14.754  10.980   4.051
60604SOL     OW83650  13.109   9.823   8.142
60604SOL    HW183651  13.092   9.740   8.187
60604SOL    HW283652  13.037   9.831   8.079
60605SOL     OW83653  11.063   4.442   0.460
60605SOL    HW183654  11.099   4.420   0.374
60605SOL    HW283655  11.037   4.358   0.498
60606SOL     OW83656   3.717   7.555   7.200
60606SOL    HW183657   3.761   7.529   7.119
60606SOL    HW283658   3.691   7.472   7.241
60607SOL     OW83659  12.190   7.875  13.042
60607SOL    HW183660  12.239   7.803  13.003
60607SOL    HW283661  12.204   7.865  13.136
60608SOL     OW83662   5.621   6.243   7.516
60608SOL    HW183663   5.694   6.283   7.468
60608SOL    HW283664   5.544   6.259   7.461
60609SOL     OW83665   6.718   4.665   4.418
60609SOL    HW183666   6.735   4.735   4.481
60609SOL    HW283667   6.692   4.590   4.471
60610SOL     OW83668   9.676   4.721   4.655
60610SOL    HW183669   9.662   4.804   4.702
60610SOL    HW283670   9.602   4.667   4.680
60611SOL     OW83671   6.443  10.037   1.780
60611SOL    HW183672   6.418  10.001   1.865
60611SOL    HW283673   6.434  10.132   1.789
60612SOL     OW83674   3.015   1.719   2.542
60612SOL    HW183675   2.956   1.701   2.468
60612SOL    HW283676   3.071   1.790   2.510
60613SOL     OW83677   1.831   2.958   8.254
60613SOL    HW183678   1.887   3.035   8.262
60613SOL    HW283679   1.786   2.953   8.338
60614SOL     OW83680   7.378   7.205  12.558
60614SOL    HW183681   7.342   7.230  12.473
60614SOL    HW283682   7.360   7.280  12.615
60615SOL     OW83683   5.555   8.552   8.081
60615SOL    HW183684   5.639   8.599   8.084
60615SOL    HW283685   5.567   8.479   8.142
60616SOL     OW83686   7.171  14.619  14.448
60616SOL    HW183687   7.245  14.640  14.391
60616SOL    HW283688   7.145  14.703  14.486
60617SOL     OW83689  10.516   8.937   9.524
60617SOL    HW183690  10.558   8.929   9.439
60617SOL    HW283691  10.481   8.850   9.542
60618SOL     OW83692   1.455   0.558   7.904
60618SOL    HW183693   1.517   0.628   7.921
60618SOL    HW283694   1.411   0.544   7.988
60619SOL     OW83695  14.254   6.862   9.999
60619SOL    HW183696  14.306   6.791   9.962
60619SOL    HW283697  14.165   6.845   9.968
60620SOL     OW83698  11.868  14.220   3.242
60620SOL    HW183699  11.962  14.216   3.261
60620SOL    HW283700  11.838  14.129   3.248
60621SOL     OW83701  11.427  13.220  12.761
60621SOL    HW183702  11.431  13.269  12.842
60621SOL    HW283703  11.400  13.132  12.787
60622SOL     OW83704   4.721   2.312   9.001
60622SOL    HW183705   4.717   2.235   8.945
60622SOL    HW283706   4.767   2.378   8.949
60623SOL     OW83707   8.330  11.566   6.286
60623SOL    HW183708   8.367  11.544   6.200
60623SOL    HW283709   8.285  11.649   6.272
60624SOL     OW83710   1.302  13.630  14.243
60624SOL    HW183711   1.209  13.622  14.263
60624SOL    HW283712   1.333  13.700  14.300
60625SOL     OW83713   0.495  11.974  13.181
60625SOL    HW183714   0.443  12.048  13.150
60625SOL    HW283715   0.432  11.901  13.185
60626SOL     OW83716   3.861   3.331  13.662
60626SOL    HW183717   3.829   3.288  13.741
60626SOL    HW283718   3.783   3.373  13.625
60627SOL     OW83719  12.802   1.542   1.954
60627SOL    HW183720  12.707   1.534   1.958
60627SOL    HW283721  12.817   1.599   1.878
60628SOL     OW83722  13.696   7.952   0.395
60628SOL    HW183723  13.647   7.993   0.323
60628SOL    HW283724  13.785   7.943   0.361
60629SOL     OW83725   8.037   3.373  10.981
60629SOL    HW183726   8.108   3.321  11.019
60629SOL    HW283727   8.045   3.459  11.024
60630SOL     OW83728  14.500  14.678  14.535
60630SOL    HW183729  14.544  14.738  14.474
60630SOL    HW283730  14.429  14.730  14.572
60631SOL     OW83731  13.516   8.725  13.776
60631SOL    HW183732  13.542   8.762  13.860
60631SOL    HW283733  13.487   8.801  13.725
60632SOL     OW83734   0.355   4.417   5.281
60632SOL    HW183735   0.365   4.333   5.325
60632SOL    HW283736   0.317   4.396   5.196
60633SOL     OW83737  14.407   6.469  10.964
60633SOL    HW183738  14.381   6.558  10.940
60633SOL    HW283739  14.397   6.419  10.882
60634SOL     OW83740  10.827   0.706  14.100
60634SOL    HW183741  10.761   0.762  14.059
60634SOL    HW283742  10.797   0.617  14.083
60635SOL     OW83743  14.022   0.354   1.635
60635SOL    HW183744  14.090   0.317   1.579
60635SOL    HW283745  14.015   0.446   1.608
60636SOL     OW83746  11.252  14.523  14.046
60636SOL    HW183747  11.198  14.450  14.015
60636SOL    HW283748  11.205  14.558  14.121
60637SOL     OW83749   0.240  14.764  10.123
60637SOL    HW183750   0.195  14.750  10.040
60637SOL    HW283751   0.205  14.696  10.181
60638SOL     OW83752   9.442   4.350   4.870
60638SOL    HW183753   9.348   4.343   4.886
60638SOL    HW283754   9.454   4.436   4.832
60639SOL     OW83755   7.083  14.648   4.163
60639SOL    HW183756   7.127  14.639   4.248
60639SOL    HW283757   6.991  14.626   4.181
60640SOL     OW83758   3.076   8.859  11.067
60640SOL    HW183759   3.013   8.844  11.138
60640SOL    HW283760   3.081   8.954  11.060
60641SOL     OW83761   0.730  14.100  10.167
60641SOL    HW183762   0.694  14.136  10.248
60641SOL    HW283763   0.812  14.148  10.155
60642SOL     OW83764   6.666  11.414   3.801
60642SOL    HW183765   6.707  11.496   3.829
60642SOL    HW283766   6.698  11.401   3.712
60643SOL     OW83767   7.414   8.905   0.265
60643SOL    HW183768   7.379   8.818   0.248
60643SOL    HW283769   7.337   8.958   0.286
60644SOL     OW83770  11.678   8.035  10.321
60644SOL    HW183771  11.616   8.038  10.248
60644SOL    HW283772  11.629   7.998  10.394
60645SOL     OW83773   8.786   6.014   5.443
60645SOL    HW183774   8.831   6.076   5.502
60645SOL    HW283775   8.804   6.048   5.355
60646SOL     OW83776   4.824   7.555   4.353
60646SOL    HW183777   4.814   7.636   4.402
60646SOL    HW283778   4.917   7.534   4.361
60647SOL     OW83779   5.093   6.078   0.740
60647SOL    HW183780   5.029   6.060   0.810
60647SOL    HW283781   5.040   6.104   0.665
60648SOL     OW83782   9.698   4.940   6.793
60648SOL    HW183783   9.792   4.925   6.785
60648SOL    HW283784   9.660   4.893   6.719
60649SOL     OW83785  13.348   2.918   4.898
60649SOL    HW183786  13.384   2.901   4.811
60649SOL    HW283787  13.255   2.901   4.889
60650SOL     OW83788  13.351  13.517  13.293
60650SOL    HW183789  13.291  13.590  13.304
60650SOL    HW283790  13.423  13.536  13.353
60651SOL     OW83791   6.780   4.805  12.748
60651SOL    HW183792   6.851   4.774  12.693
60651SOL    HW283793   6.727   4.860  12.690
60652SOL     OW83794   7.234   7.380   6.684
60652SOL    HW183795   7.253   7.453   6.743
60652SOL    HW283796   7.295   7.311   6.710
60653SOL     OW83797   3.531  14.141   7.840
60653SOL    HW183798   3.537  14.046   7.833
60653SOL    HW283799   3.459  14.166   7.783
60654SOL     OW83800   1.791   0.345   1.185
60654SOL    HW183801   1.825   0.432   1.166
60654SOL    HW283802   1.710   0.361   1.234
60655SOL     OW83803  12.432  11.538   2.297
60655SOL    HW183804  12.526  11.535   2.312
60655SOL    HW283805  12.397  11.467   2.351
60656SOL     OW83806   4.149   2.324   7.873
60656SOL    HW183807   4.214   2.317   7.943
60656SOL    HW283808   4.110   2.236   7.868
60657SOL     OW83809  11.080  12.189   9.102
60657SOL    HW183810  11.163  12.231   9.077
60657SOL    HW283811  11.015  12.228   9.043
60658SOL     OW83812   6.178  14.700  12.167
60658SOL    HW183813   6.215  14.615  12.194
60658SOL    HW283814   6.087  14.697  12.196
60659SOL     OW83815  10.429   3.482  12.367
60659SOL    HW183816  10.376   3.494  12.445
60659SOL    HW283817  10.519   3.488  12.398
60660SOL     OW83818  14.536   9.029   4.813
60660SOL    HW183819  14.518   9.082   4.736
60660SOL    HW283820  14.522   8.939   4.784
60661SOL     OW83821  13.927   9.204  14.059
60661SOL    HW183822  13.929   9.288  14.107
60661SOL    HW283823  13.990   9.215  13.988
60662SOL     OW83824   3.651  13.998  10.077
60662SOL    HW183825   3.576  13.985  10.019
60662SOL    HW283826   3.642  14.088  10.108
60663SOL     OW83827  11.036   2.332  14.716
60663SOL    HW183828  11.119   2.367  14.747
60663SOL    HW283829  10.969   2.379  14.765
60664SOL     OW83830  12.023  10.364  10.908
60664SOL    HW183831  12.107  10.410  10.908
60664SOL    HW283832  12.044  10.275  10.882
60665SOL     OW83833   1.906  11.020  13.795
60665SOL    HW183834   1.955  11.039  13.875
60665SOL    HW283835   1.840  11.089  13.790
60666SOL     OW83836   7.124   8.926   8.726
60666SOL    HW183837   7.142   8.861   8.794
60666SOL    HW283838   7.192   8.993   8.738
60667SOL     OW83839   6.669   1.504   4.478
60667SOL    HW183840   6.689   1.426   4.426
60667SOL    HW283841   6.610   1.554   4.422
60668SOL     OW83842  13.006  14.776   1.314
60668SOL    HW183843  12.932  14.801   1.259
60668SOL    HW283844  12.967  14.748   1.396
60669SOL     OW83845  13.519   1.548  13.095
60669SOL    HW183846  13.582   1.555  13.024
60669SOL    HW283847  13.533   1.628  13.147
60670SOL     OW83848   0.252   5.620   1.551
60670SOL    HW183849   0.164   5.636   1.585
60670SOL    HW283850   0.267   5.526   1.565
60671SOL     OW83851   9.183   4.117   8.809
60671SOL    HW183852   9.193   4.030   8.848
60671SOL    HW283853   9.272   4.153   8.808
60672SOL     OW83854   2.527  10.550   1.323
60672SOL    HW183855   2.513  10.469   1.372
60672SOL    HW283856   2.541  10.521   1.233
60673SOL     OW83857   4.948   6.326   2.773
60673SOL    HW183858   5.037   6.338   2.740
60673SOL    HW283859   4.957   6.266   2.846
60674SOL     OW83860  11.460   9.602   4.776
60674SOL    HW183861  11.374   9.631   4.747
60674SOL    HW283862  11.495   9.676   4.826
60675SOL     OW83863   1.784   7.172   5.248
60675SOL    HW183864   1.845   7.123   5.193
60675SOL    HW283865   1.836   7.200   5.323
60676SOL     OW83866   1.588   0.612   9.906
60676SOL    HW183867   1.598   0.539   9.844
60676SOL    HW283868   1.508   0.656   9.880
60677SOL     OW83869   4.532  10.594  13.419
60677SOL    HW183870   4.555  10.501  13.412
60677SOL    HW283871   4.582  10.636  13.348
60678SOL     OW83872   1.416  12.649   3.699
60678SOL    HW183873   1.463  12.619   3.621
60678SOL    HW283874   1.331  12.678   3.666
60679SOL     OW83875   6.668   7.383   1.515
60679SOL    HW183876   6.689   7.469   1.480
60679SOL    HW283877   6.742   7.327   1.490
60680SOL     OW83878   8.828   2.266   4.480
60680SOL    HW183879   8.849   2.360   4.477
60680SOL    HW283880   8.791   2.247   4.393
60681SOL     OW83881   8.528   7.676   8.414
60681SOL    HW183882   8.543   7.768   8.436
60681SOL    HW283883   8.438   7.673   8.383
60682SOL     OW83884   8.400   0.771   6.788
60682SOL    HW183885   8.467   0.720   6.742
60682SOL    HW283886   8.421   0.862   6.768
60683SOL     OW83887   5.176  14.502   4.407
60683SOL    HW183888   5.221  14.574   4.363
60683SOL    HW283889   5.246  14.443   4.434
60684SOL     OW83890   3.539  14.763  14.106
60684SOL    HW183891   3.613  14.816  14.136
60684SOL    HW283892   3.577  14.706  14.039
60685SOL     OW83893   3.513   8.155   7.112
60685SOL    HW183894   3.543   8.081   7.164
60685SOL    HW283895   3.590   8.185   7.065
60686SOL     OW83896   6.404  10.973   5.800
60686SOL    HW183897   6.322  10.931   5.775
60686SOL    HW283898   6.378  11.057   5.837
60687SOL     OW83899   2.615   5.066   5.631
60687SOL    HW183900   2.656   5.070   5.718
60687SOL    HW283901   2.661   4.995   5.586
60688SOL     OW83902   0.571   9.497  10.349
60688SOL    HW183903   0.593   9.577  10.396
60688SOL    HW283904   0.506   9.454  10.405
60689SOL     OW83905  14.173  13.304  13.672
60689SOL    HW183906  14.256  13.257  13.686
60689SOL    HW283907  14.190  13.393  13.703
60690SOL     OW83908   1.618  11.543   9.596
60690SOL    HW183909   1.670  11.623   9.588
60690SOL    HW283910   1.572  11.552   9.679
60691SOL     OW83911  14.066   1.064   7.712
60691SOL    HW183912  13.998   1.044   7.647
60691SOL    HW283913  14.130   1.117   7.663
60692SOL     OW83914  14.250  14.704  14.049
60692SOL    HW183915  14.240  14.655  13.967
60692SOL    HW283916  14.239  14.638  14.118
60693SOL     OW83917   7.990  12.339   3.558
60693SOL    HW183918   7.929  12.274   3.592
60693SOL    HW283919   7.994  12.322   3.464
60694SOL     OW83920  14.112   8.636  10.476
60694SOL    HW183921  14.101   8.591  10.392
60694SOL    HW283922  14.150   8.570  10.533
60695SOL     OW83923  13.533   9.438   2.473
60695SOL    HW183924  13.628   9.442   2.482
60695SOL    HW283925  13.515   9.479   2.388
60696SOL     OW83926   5.110   2.521   4.883
60696SOL    HW183927   5.124   2.433   4.849
60696SOL    HW283928   5.192   2.543   4.927
60697SOL     OW83929   3.117   8.136  10.779
60697SOL    HW183930   3.085   8.145  10.689
60697SOL    HW283931   3.117   8.042  10.795
60698SOL     OW83932  13.264   3.102   6.246
60698SOL    HW183933  13.210   3.181   6.244
60698SOL    HW283934  13.317   3.110   6.325
60699SOL     OW83935   8.975   4.487   2.416
60699SOL    HW183936   9.020   4.430   2.354
60699SOL    HW283937   9.046   4.536   2.459
60700SOL     OW83938   8.969   0.944   3.213
60700SOL    HW183939   9.039   0.933   3.278
60700SOL    HW283940   8.889   0.926   3.261
60701SOL     OW83941   7.737  13.091   1.581
60701SOL    HW183942   7.821  13.051   1.557
60701SOL    HW283943   7.740  13.178   1.540
60702SOL     OW83944  14.612   4.210   1.507
60702SOL    HW183945  14.700   4.176   1.492
60702SOL    HW283946  14.572   4.213   1.420
60703SOL     OW83947   8.112   3.413   0.760
60703SOL    HW183948   8.172   3.349   0.799
60703SOL    HW283949   8.109   3.389   0.667
60704SOL     OW83950  10.713  13.415   7.350
60704SOL    HW183951  10.694  13.464   7.430
60704SOL    HW283952  10.661  13.458   7.282
60705SOL     OW83953  12.995   7.158  10.213
60705SOL    HW183954  12.919   7.193  10.166
60705SOL    HW283955  12.979   7.064  10.219
60706SOL     OW83956  12.349   9.430   3.463
60706SOL    HW183957  12.304   9.496   3.411
60706SOL    HW283958  12.377   9.363   3.400
60707SOL     OW83959   0.704   1.087   2.090
60707SOL    HW183960   0.641   1.141   2.138
60707SOL    HW283961   0.681   1.100   1.998
60708SOL     OW83962  12.536   4.782   6.879
60708SOL    HW183963  12.546   4.877   6.883
60708SOL    HW283964  12.455   4.765   6.927
60709SOL     OW83965   5.330   5.203   0.069
60709SOL    HW183966   5.304   5.202  14.851
60709SOL    HW283967   5.362   5.292   0.084
60710SOL     OW83968   2.033   5.341  12.104
60710SOL    HW183969   2.065   5.381  12.185
60710SOL    HW283970   2.058   5.249  12.111
60711SOL     OW83971  14.806   4.200  13.921
60711SOL    HW183972  14.835   4.210  14.012
60711SOL    HW283973  14.710   4.192  13.928
60712SOL     OW83974   2.710  14.020   2.385
60712SOL    HW183975   2.710  14.091   2.320
60712SOL    HW283976   2.617  14.008   2.406
60713SOL     OW83977   9.057   8.412   9.117
60713SOL    HW183978   8.964   8.392   9.110
60713SOL    HW283979   9.090   8.404   9.027
60714SOL     OW83980   1.198   3.731   2.012
60714SOL    HW183981   1.127   3.755   2.070
60714SOL    HW283982   1.277   3.742   2.064
60715SOL     OW83983   9.089   9.665  10.325
60715SOL    HW183984   9.076   9.575  10.295
60715SOL    HW283985   9.081   9.718  10.245
60716SOL     OW83986  13.617  12.803  10.479
60716SOL    HW183987  13.536  12.840  10.443
60716SOL    HW283988  13.595  12.779  10.569
60717SOL     OW83989   0.977   9.627  12.446
60717SOL    HW183990   0.889   9.611  12.412
60717SOL    HW283991   0.977   9.719  12.471
60718SOL     OW83992   3.201  12.555   5.541
60718SOL    HW183993   3.191  12.639   5.495
60718SOL    HW283994   3.181  12.576   5.633
60719SOL     OW83995   0.697  10.060  13.194
60719SOL    HW183996   0.627   9.998  13.216
60719SOL    HW283997   0.777  10.017  13.223
60720SOL     OW83998  13.680   8.525   8.103
60720SOL    HW183999  13.606   8.502   8.159
60720SOL    HW284000  13.689   8.452   8.043
60721SOL     OW84001  11.816  10.110   3.539
60721SOL    HW184002  11.861  10.055   3.604
60721SOL    HW284003  11.887  10.154   3.491
60722SOL     OW84004   2.068  12.498   0.507
60722SOL    HW184005   2.001  12.430   0.499
60722SOL    HW284006   2.022  12.579   0.486
60723SOL     OW84007   0.127   1.526   0.673
60723SOL    HW184008   0.139   1.497   0.763
60723SOL    HW284009   0.137   1.622   0.677
60724SOL     OW84010   2.461   6.279   5.688
60724SOL    HW184011   2.461   6.342   5.616
60724SOL    HW284012   2.552   6.250   5.694
60725SOL     OW84013   1.452   6.889  13.876
60725SOL    HW184014   1.362   6.863  13.855
60725SOL    HW284015   1.498   6.884  13.792
60726SOL     OW84016   9.457   9.545   0.746
60726SOL    HW184017   9.508   9.510   0.818
60726SOL    HW284018   9.514   9.538   0.670
60727SOL     OW84019   6.695   9.149   6.264
60727SOL    HW184020   6.767   9.124   6.205
60727SOL    HW284021   6.667   9.067   6.304
60728SOL     OW84022   8.516   9.192   6.955
60728SOL    HW184023   8.523   9.282   6.922
60728SOL    HW284024   8.582   9.186   7.024
60729SOL     OW84025   7.265   8.842   0.826
60729SOL    HW184026   7.247   8.791   0.747
60729SOL    HW284027   7.271   8.776   0.895
60730SOL     OW84028  10.451  10.072   8.289
60730SOL    HW184029  10.463  10.001   8.226
60730SOL    HW284030  10.405  10.140   8.240
60731SOL     OW84031  13.796  12.401   4.709
60731SOL    HW184032  13.872  12.455   4.688
60731SOL    HW284033  13.833  12.322   4.749
60732SOL     OW84034   9.483   2.221   5.561
60732SOL    HW184035   9.398   2.243   5.522
60732SOL    HW284036   9.546   2.272   5.510
60733SOL     OW84037   2.478   0.632  12.872
60733SOL    HW184038   2.436   0.601  12.952
60733SOL    HW284039   2.547   0.691  12.902
60734SOL     OW84040   9.013   5.043   6.395
60734SOL    HW184041   9.049   5.057   6.483
60734SOL    HW284042   8.922   5.016   6.410
60735SOL     OW84043   9.510  10.720   1.270
60735SOL    HW184044   9.510  10.707   1.175
60735SOL    HW284045   9.445  10.657   1.302
60736SOL     OW84046   6.498  11.375   6.865
60736SOL    HW184047   6.541  11.334   6.939
60736SOL    HW284048   6.537  11.462   6.859
60737SOL     OW84049   6.791   8.283   8.144
60737SOL    HW184050   6.825   8.251   8.061
60737SOL    HW284051   6.822   8.220   8.209
60738SOL     OW84052   0.202   9.630   4.391
60738SOL    HW184053   0.227   9.556   4.335
60738SOL    HW284054   0.227   9.708   4.340
60739SOL     OW84055   1.881   4.972   8.690
60739SOL    HW184056   1.867   5.029   8.615
60739SOL    HW284057   1.953   5.013   8.738
60740SOL     OW84058   8.995   9.577   2.078
60740SOL    HW184059   9.017   9.656   2.128
60740SOL    HW284060   9.047   9.585   1.998
60741SOL     OW84061   6.498   4.604   5.633
60741SOL    HW184062   6.434   4.536   5.653
60741SOL    HW284063   6.466   4.643   5.551
60742SOL     OW84064   7.208   4.519   8.904
60742SOL    HW184065   7.140   4.517   8.837
60742SOL    HW284066   7.280   4.469   8.865
60743SOL     OW84067   6.667  10.892   2.656
60743SOL    HW184068   6.619  10.905   2.575
60743SOL    HW284069   6.746  10.844   2.631
60744SOL     OW84070   2.109  12.966  10.908
60744SOL    HW184071   2.127  12.888  10.961
60744SOL    HW284072   2.157  12.951  10.826
60745SOL     OW84073   6.258   5.819  14.570
60745SOL    HW184074   6.240   5.808  14.476
60745SOL    HW284075   6.344   5.780  14.582
60746SOL     OW84076  11.870   7.418   0.226
60746SOL    HW184077  11.872   7.467   0.144
60746SOL    HW284078  11.835   7.481   0.290
60747SOL     OW84079  12.034   2.017   0.983
60747SOL    HW184080  12.054   2.070   1.060
60747SOL    HW284081  12.049   2.077   0.909
60748SOL     OW84082   3.358   9.305  14.020
60748SOL    HW184083   3.285   9.294  13.960
60748SOL    HW284084   3.426   9.346  13.966
60749SOL     OW84085   9.196   1.749   0.211
60749SOL    HW184086   9.213   1.701   0.129
60749SOL    HW284087   9.269   1.810   0.219
60750SOL     OW84088  13.812   7.176  14.160
60750SOL    HW184089  13.845   7.245  14.219
60750SOL    HW284090  13.720   7.166  14.184
60751SOL     OW84091  10.510   6.770   4.271
60751SOL    HW184092  10.467   6.774   4.186
60751SOL    HW284093  10.562   6.690   4.267
60752SOL     OW84094   3.875   2.945   8.556
60752SOL    HW184095   3.820   2.983   8.625
60752SOL    HW284096   3.924   2.876   8.600
60753SOL     OW84097   7.171   3.280   9.088
60753SOL    HW184098   7.100   3.275   9.025
60753SOL    HW284099   7.138   3.335   9.158
60754SOL     OW84100   4.583   8.497  12.373
60754SOL    HW184101   4.666   8.532  12.340
60754SOL    HW284102   4.608   8.419  12.423
60755SOL     OW84103   5.552   3.565   2.277
60755SOL    HW184104   5.552   3.470   2.263
60755SOL    HW284105   5.612   3.599   2.210
60756SOL     OW84106   4.636   7.211   6.991
60756SOL    HW184107   4.722   7.225   7.029
60756SOL    HW284108   4.648   7.138   6.930
60757SOL     OW84109   5.658   1.720  13.488
60757SOL    HW184110   5.680   1.695  13.578
60757SOL    HW284111   5.567   1.694  13.478
60758SOL     OW84112   3.950   1.665   3.153
60758SOL    HW184113   3.944   1.760   3.157
60758SOL    HW284114   4.039   1.645   3.180
60759SOL     OW84115  10.669  11.322   4.011
60759SOL    HW184116  10.723  11.400   4.028
60759SOL    HW284117  10.607  11.351   3.943
60760SOL     OW84118  10.731  13.140   2.602
60760SOL    HW184119  10.661  13.145   2.668
60760SOL    HW284120  10.684  13.125   2.520
60761SOL     OW84121   7.444   8.596  14.733
60761SOL    HW184122   7.427   8.666  14.795
60761SOL    HW284123   7.523   8.553  14.766
60762SOL     OW84124  10.745   4.782  11.777
60762SOL    HW184125  10.686   4.722  11.733
60762SOL    HW284126  10.786   4.832  11.706
60763SOL     OW84127   5.196   2.640  12.551
60763SOL    HW184128   5.184   2.661  12.643
60763SOL    HW284129   5.258   2.705  12.519
60764SOL     OW84130   7.952   2.630   8.784
60764SOL    HW184131   7.933   2.539   8.760
60764SOL    HW284132   7.940   2.632   8.879
60765SOL     OW84133   1.750  13.227   0.413
60765SOL    HW184134   1.724  13.318   0.394
60765SOL    HW284135   1.828  13.236   0.468
60766SOL     OW84136   2.539  10.695   7.016
60766SOL    HW184137   2.570  10.686   7.106
60766SOL    HW284138   2.587  10.627   6.968
60767SOL     OW84139   4.867  11.446   8.939
60767SOL    HW184140   4.772  11.435   8.944
60767SOL    HW284141   4.881  11.540   8.951
60768SOL     OW84142   8.557   9.383  10.005
60768SOL    HW184143   8.501   9.388  10.083
60768SOL    HW284144   8.546   9.468   9.962
60769SOL     OW84145   7.808   2.494   3.112
60769SOL    HW184146   7.795   2.462   3.023
60769SOL    HW284147   7.865   2.429   3.153
60770SOL     OW84148   4.708   4.154   9.095
60770SOL    HW184149   4.796   4.127   9.067
60770SOL    HW284150   4.650   4.124   9.025
60771SOL     OW84151  13.991   4.542  14.754
60771SOL    HW184152  13.919   4.580  14.803
60771SOL    HW284153  13.988   4.448  14.774
60772SOL     OW84154   2.881   8.113   3.694
60772SOL    HW184155   2.858   8.084   3.605
60772SOL    HW284156   2.803   8.095   3.746
60773SOL     OW84157   1.587   0.689   2.561
60773SOL    HW184158   1.580   0.783   2.542
60773SOL    HW284159   1.565   0.646   2.478
60774SOL     OW84160   3.300  12.276   0.429
60774SOL    HW184161   3.258  12.363   0.431
60774SOL    HW284162   3.273  12.238   0.346
60775SOL     OW84163   8.579   8.123   3.415
60775SOL    HW184164   8.533   8.168   3.344
60775SOL    HW284165   8.651   8.077   3.371
60776SOL     OW84166   6.209   2.490   6.248
60776SOL    HW184167   6.141   2.518   6.309
60776SOL    HW284168   6.283   2.467   6.304
60777SOL     OW84169   7.946   0.458   2.352
60777SOL    HW184170   7.944   0.393   2.282
60777SOL    HW284171   7.920   0.540   2.309
60778SOL     OW84172   3.144   0.492  10.840
60778SOL    HW184173   3.113   0.582  10.846
60778SOL    HW284174   3.238   0.500  10.823
60779SOL     OW84175   5.869   0.932  10.343
60779SOL    HW184176   5.845   0.870  10.412
60779SOL    HW284177   5.913   1.003  10.390
60780SOL     OW84178  12.299   0.643   9.431
60780SOL    HW184179  12.254   0.669   9.351
60780SOL    HW284180  12.230   0.636   9.497
60781SOL     OW84181   7.603  13.977   4.309
60781SOL    HW184182   7.684  13.941   4.344
60781SOL    HW284183   7.538  13.962   4.377
60782SOL     OW84184  14.715   0.211   2.899
60782SOL    HW184185  14.630   0.200   2.856
60782SOL    HW284186  14.776   0.164   2.842
60783SOL     OW84187  14.029   3.456   6.578
60783SOL    HW184188  14.092   3.419   6.517
60783SOL    HW284189  14.018   3.388   6.645
60784SOL     OW84190  13.780  10.790   3.482
60784SOL    HW184191  13.800  10.711   3.432
60784SOL    HW284192  13.746  10.851   3.418
60785SOL     OW84193   9.018   1.481   8.148
60785SOL    HW184194   9.034   1.519   8.235
60785SOL    HW284195   9.054   1.545   8.087
60786SOL     OW84196   2.260   9.148  13.889
60786SOL    HW184197   2.245   9.110  13.975
60786SOL    HW284198   2.201   9.101  13.830
60787SOL     OW84199   0.858   1.901  14.419
60787SOL    HW184200   0.805   1.966  14.464
60787SOL    HW284201   0.821   1.817  14.444
60788SOL     OW84202   2.563   5.751   7.518
60788SOL    HW184203   2.598   5.669   7.483
60788SOL    HW284204   2.514   5.725   7.596
60789SOL     OW84205   0.550  13.094   3.718
60789SOL    HW184206   0.505  13.134   3.792
60789SOL    HW284207   0.588  13.168   3.671
60790SOL     OW84208  11.922  11.109   6.895
60790SOL    HW184209  11.910  11.159   6.975
60790SOL    HW284210  11.868  11.031   6.906
60791SOL     OW84211   6.838   8.567  13.549
60791SOL    HW184212   6.788   8.567  13.630
60791SOL    HW284213   6.772   8.555  13.480
60792SOL     OW84214   7.058  13.472   6.856
60792SOL    HW184215   7.117  13.469   6.780
60792SOL    HW284216   6.979  13.516   6.823
60793SOL     OW84217  11.513  11.828   8.139
60793SOL    HW184218  11.443  11.838   8.204
60793SOL    HW284219  11.589  11.799   8.190
60794SOL     OW84220   4.749   8.555   2.996
60794SOL    HW184221   4.816   8.487   3.003
60794SOL    HW284222   4.714   8.544   2.907
60795SOL     OW84223  14.381   7.505   0.043
60795SOL    HW184224  14.441   7.543  14.854
60795SOL    HW284225  14.352   7.423   0.003
60796SOL     OW84226  10.360  11.300  10.368
60796SOL    HW184227  10.316  11.247  10.301
60796SOL    HW284228  10.445  11.320  10.330
60797SOL     OW84229   5.006   9.548  11.867
60797SOL    HW184230   5.068   9.529  11.938
60797SOL    HW284231   5.062   9.560  11.790
60798SOL     OW84232   1.745   6.485   1.755
60798SOL    HW184233   1.811   6.464   1.820
60798SOL    HW284234   1.663   6.487   1.804
60799SOL     OW84235   7.571   7.967   2.263
60799SOL    HW184236   7.586   8.006   2.350
60799SOL    HW284237   7.653   7.922   2.243
60800SOL     OW84238   1.189   5.215  12.236
60800SOL    HW184239   1.136   5.139  12.209
60800SOL    HW284240   1.124   5.282  12.260
60801SOL     OW84241   1.190   7.642  11.156
60801SOL    HW184242   1.242   7.604  11.085
60801SOL    HW284243   1.162   7.727  11.121
60802SOL     OW84244  11.654   7.593   5.274
60802SOL    HW184245  11.656   7.606   5.179
60802SOL    HW284246  11.587   7.653   5.306
60803SOL     OW84247   3.622   7.772   7.685
60803SOL    HW184248   3.686   7.802   7.750
60803SOL    HW284249   3.543   7.753   7.736
60804SOL     OW84250   9.424   2.963  14.442
60804SOL    HW184251   9.472   2.882  14.460
60804SOL    HW284252   9.488   3.019  14.397
60805SOL     OW84253   0.731   2.211   0.571
60805SOL    HW184254   0.802   2.179   0.515
60805SOL    HW284255   0.764   2.294   0.606
60806SOL     OW84256   9.243   2.006   5.720
60806SOL    HW184257   9.167   2.054   5.754
60806SOL    HW284258   9.207   1.922   5.690
60807SOL     OW84259   6.711   0.026   5.159
60807SOL    HW184260   6.659   0.089   5.109
60807SOL    HW284261   6.648  14.833   5.186
60808SOL     OW84262   8.554   1.162   6.528
60808SOL    HW184263   8.491   1.222   6.567
60808SOL    HW284264   8.559   1.189   6.436
60809SOL     OW84265   3.200  14.033   7.981
60809SOL    HW184266   3.218  14.126   7.967
60809SOL    HW284267   3.142  14.031   8.057
60810SOL     OW84268  14.340  12.114   1.698
60810SOL    HW184269  14.267  12.137   1.756
60810SOL    HW284270  14.347  12.188   1.639
60811SOL     OW84271   8.108  13.201   1.320
60811SOL    HW184272   8.024  13.218   1.277
60811SOL    HW284273   8.140  13.288   1.345
60812SOL     OW84274   5.117  11.958   2.416
60812SOL    HW184275   5.044  11.976   2.357
60812SOL    HW284276   5.076  11.931   2.498
60813SOL     OW84277   1.610   3.205   6.552
60813SOL    HW184278   1.699   3.231   6.531
60813SOL    HW284279   1.618   3.115   6.584
60814SOL     OW84280   0.894   5.601  10.034
60814SOL    HW184281   0.978   5.557  10.041
60814SOL    HW284282   0.834   5.547  10.087
60815SOL     OW84283  12.042   2.578  11.012
60815SOL    HW184284  11.950   2.597  11.033
60815SOL    HW284285  12.069   2.516  11.080
60816SOL     OW84286   5.416  11.198   5.975
60816SOL    HW184287   5.483  11.206   5.907
60816SOL    HW284288   5.354  11.134   5.939
60817SOL     OW84289  14.007   8.018   4.700
60817SOL    HW184290  14.102   8.026   4.708
60817SOL    HW284291  13.974   8.104   4.726
60818SOL     OW84292   2.383  10.154   7.347
60818SOL    HW184293   2.435  10.082   7.311
60818SOL    HW284294   2.298  10.114   7.368
60819SOL     OW84295   7.015   6.551   1.611
60819SOL    HW184296   6.971   6.480   1.565
60819SOL    HW284297   7.043   6.611   1.542
60820SOL     OW84298   4.911  10.672   5.314
60820SOL    HW184299   4.872  10.590   5.343
60820SOL    HW284300   4.971  10.646   5.244
60821SOL     OW84301   9.955   4.280   7.231
60821SOL    HW184302   9.888   4.345   7.253
60821SOL    HW284303   9.959   4.223   7.308
60822SOL     OW84304   4.607   1.406  10.987
60822SOL    HW184305   4.579   1.465  11.057
60822SOL    HW284306   4.541   1.418  10.918
60823SOL     OW84307   0.489   5.082   6.274
60823SOL    HW184308   0.403   5.042   6.263
60823SOL    HW284309   0.508   5.074   6.368
60824SOL     OW84310  12.894   9.665  14.400
60824SOL    HW184311  12.838   9.677  14.477
60824SOL    HW284312  12.853   9.594  14.351
60825SOL     OW84313  10.994   1.544  11.485
60825SOL    HW184314  10.964   1.632  11.505
60825SOL    HW284315  10.934   1.513  11.417
60826SOL     OW84316   5.812   6.134   5.320
60826SOL    HW184317   5.889   6.180   5.352
60826SOL    HW284318   5.738   6.180   5.359
60827SOL     OW84319   3.791   5.232   4.171
60827SOL    HW184320   3.768   5.172   4.242
60827SOL    HW284321   3.706   5.263   4.138
60828SOL     OW84322  14.230   0.599   1.205
60828SOL    HW184323  14.175   0.521   1.201
60828SOL    HW284324  14.314   0.573   1.169
60829SOL     OW84325   5.997  10.262  10.662
60829SOL    HW184326   6.052  10.319  10.716
60829SOL    HW284327   5.955  10.203  10.725
60830SOL     OW84328   3.791   1.784   1.458
60830SOL    HW184329   3.879   1.811   1.431
60830SOL    HW284330   3.804   1.701   1.505
60831SOL     OW84331   9.079  13.423   2.757
60831SOL    HW184332   9.166  13.402   2.792
60831SOL    HW284333   9.093  13.437   2.664
60832SOL     OW84334   3.179   6.588   4.696
60832SOL    HW184335   3.171   6.683   4.697
60832SOL    HW284336   3.168   6.564   4.604
60833SOL     OW84337   8.543  14.411  12.939
60833SOL    HW184338   8.534  14.318  12.958
60833SOL    HW284339   8.457  14.436  12.903
60834SOL     OW84340   2.090   2.369  10.666
60834SOL    HW184341   2.117   2.313  10.594
60834SOL    HW284342   2.115   2.321  10.745
60835SOL     OW84343   7.265   8.374   2.050
60835SOL    HW184344   7.338   8.318   2.078
60835SOL    HW284345   7.207   8.377   2.126
60836SOL     OW84346   8.378   7.929   9.129
60836SOL    HW184347   8.435   7.930   9.206
60836SOL    HW284348   8.294   7.896   9.163
60837SOL     OW84349   8.185  12.315  11.049
60837SOL    HW184350   8.171  12.227  11.086
60837SOL    HW284351   8.202  12.370  11.126
60838SOL     OW84352   9.208   4.568  14.409
60838SOL    HW184353   9.271   4.639  14.401
60838SOL    HW284354   9.253   4.492  14.372
60839SOL     OW84355   2.332   8.268   5.260
60839SOL    HW184356   2.294   8.356   5.265
60839SOL    HW284357   2.270   8.219   5.206
60840SOL     OW84358  13.332   8.669  11.364
60840SOL    HW184359  13.382   8.667  11.445
60840SOL    HW284360  13.245   8.637  11.388
60841SOL     OW84361   4.067   5.205   9.779
60841SOL    HW184362   4.004   5.252   9.724
60841SOL    HW284363   4.143   5.263   9.782
60842SOL     OW84364   2.541   7.875  14.191
60842SOL    HW184365   2.546   7.855  14.284
60842SOL    HW284366   2.451   7.855  14.166
60843SOL     OW84367   6.053  12.790  14.081
60843SOL    HW184368   6.122  12.793  14.148
60843SOL    HW284369   5.996  12.863  14.102
60844SOL     OW84370   5.982   5.223   6.948
60844SOL    HW184371   5.898   5.261   6.976
60844SOL    HW284372   6.041   5.298   6.943
60845SOL     OW84373   5.734   4.019  13.726
60845SOL    HW184374   5.741   4.027  13.630
60845SOL    HW284375   5.644   4.045  13.746
60846SOL     OW84376   7.262   2.622   8.936
60846SOL    HW184377   7.304   2.598   9.019
60846SOL    HW284378   7.334   2.649   8.879
60847SOL     OW84379   5.757  11.518   1.773
60847SOL    HW184380   5.814  11.447   1.744
60847SOL    HW284381   5.788  11.595   1.725
60848SOL     OW84382  10.045   9.802  13.241
60848SOL    HW184383   9.966   9.781  13.290
60848SOL    HW284384  10.019   9.794  13.149
60849SOL     OW84385   0.981   0.903   2.464
60849SOL    HW184386   0.986   0.932   2.372
60849SOL    HW284387   0.904   0.948   2.499
60850SOL     OW84388   1.768   4.906  13.707
60850SOL    HW184389   1.796   4.992  13.737
60850SOL    HW284390   1.827   4.844  13.751
60851SOL     OW84391  14.835   4.460  10.835
60851SOL    HW184392   0.056   4.447  10.832
60851SOL    HW284393  14.813   4.494  10.749
60852SOL     OW84394   8.272  12.793   4.578
60852SOL    HW184395   8.271  12.888   4.580
60852SOL    HW284396   8.181  12.767   4.591
60853SOL     OW84397   4.185   2.288   8.855
60853SOL    HW184398   4.264   2.235   8.867
60853SOL    HW284399   4.169   2.286   8.760
60854SOL     OW84400  10.199   6.215   3.036
60854SOL    HW184401  10.248   6.134   3.050
60854SOL    HW284402  10.249   6.261   2.968
60855SOL     OW84403   9.472   2.949  13.215
60855SOL    HW184404   9.389   2.989  13.240
60855SOL    HW284405   9.447   2.866  13.175
60856SOL     OW84406  11.432  11.842   3.666
60856SOL    HW184407  11.394  11.804   3.745
60856SOL    HW284408  11.398  11.789   3.595
60857SOL     OW84409   2.084   5.023   6.794
60857SOL    HW184410   2.171   4.989   6.773
60857SOL    HW284411   2.084   5.028   6.890
60858SOL     OW84412   6.193  10.829  14.568
60858SOL    HW184413   6.284  10.859  14.577
60858SOL    HW284414   6.199  10.734  14.577
60859SOL     OW84415  13.463  14.862   2.023
60859SOL    HW184416  13.441   0.071   1.983
60859SOL    HW284417  13.435  14.870   2.114
60860SOL     OW84418  13.224   6.473   5.183
60860SOL    HW184419  13.266   6.552   5.219
60860SOL    HW284420  13.196   6.499   5.096
60861SOL     OW84421  11.942  12.120   1.612
60861SOL    HW184422  11.956  12.187   1.545
60861SOL    HW284423  11.915  12.169   1.690
60862SOL     OW84424   4.569   8.008   0.831
60862SOL    HW184425   4.476   8.028   0.820
60862SOL    HW284426   4.595   7.969   0.748
60863SOL     OW84427   8.387   9.643  12.386
60863SOL    HW184428   8.316   9.690  12.429
60863SOL    HW284429   8.357   9.552  12.381
60864SOL     OW84430  11.161   3.881   7.987
60864SOL    HW184431  11.162   3.977   7.978
60864SOL    HW284432  11.069   3.860   8.003
60865SOL     OW84433   0.162   6.007   4.037
60865SOL    HW184434   0.193   6.094   4.011
60865SOL    HW284435   0.238   5.950   4.029
60866SOL     OW84436   5.401  14.530  12.612
60866SOL    HW184437   5.393  14.436  12.629
60866SOL    HW284438   5.481  14.556  12.659
60867SOL     OW84439   2.813   2.613   3.560
60867SOL    HW184440   2.906   2.611   3.538
60867SOL    HW284441   2.804   2.687   3.620
60868SOL     OW84442   9.502   6.526   5.758
60868SOL    HW184443   9.582   6.481   5.730
60868SOL    HW284444   9.512   6.535   5.853
60869SOL     OW84445   2.115   0.788   6.423
60869SOL    HW184446   2.144   0.774   6.333
60869SOL    HW284447   2.172   0.859   6.455
60870SOL     OW84448   5.123   6.877  11.470
60870SOL    HW184449   5.097   6.849  11.558
60870SOL    HW284450   5.218   6.890  11.476
60871SOL     OW84451   9.321   7.977  10.742
60871SOL    HW184452   9.378   7.917  10.790
60871SOL    HW284453   9.374   8.006  10.668
60872SOL     OW84454   7.381  12.178   2.609
60872SOL    HW184455   7.345  12.092   2.591
60872SOL    HW284456   7.330  12.211   2.683
60873SOL     OW84457  12.400   8.550   8.992
60873SOL    HW184458  12.381   8.643   8.976
60873SOL    HW284459  12.492   8.540   8.969
60874SOL     OW84460   5.478   7.488   4.760
60874SOL    HW184461   5.403   7.438   4.792
60874SOL    HW284462   5.551   7.461   4.816
60875SOL     OW84463   5.693   2.174   9.483
60875SOL    HW184464   5.707   2.260   9.444
60875SOL    HW284465   5.757   2.117   9.440
60876SOL     OW84466   0.170   2.985   5.182
60876SOL    HW184467   0.166   3.063   5.126
60876SOL    HW284468   0.200   2.915   5.123
60877SOL     OW84469   5.027  10.642   4.937
60877SOL    HW184470   5.051  10.551   4.957
60877SOL    HW284471   5.109  10.682   4.907
60878SOL     OW84472   4.918  10.309   2.414
60878SOL    HW184473   5.005  10.281   2.388
60878SOL    HW284474   4.866  10.228   2.416
60879SOL     OW84475   3.100   3.337   0.940
60879SOL    HW184476   3.116   3.427   0.967
60879SOL    HW284477   3.062   3.344   0.852
60880SOL     OW84478   0.307   4.914   0.544
60880SOL    HW184479   0.309   4.964   0.626
60880SOL    HW284480   0.395   4.875   0.538
60881SOL     OW84481  13.855   4.452   2.689
60881SOL    HW184482  13.815   4.534   2.717
60881SOL    HW284483  13.781   4.399   2.658
60882SOL     OW84484   3.249   4.053  13.715
60882SOL    HW184485   3.250   3.975  13.771
60882SOL    HW284486   3.313   4.035  13.646
60883SOL     OW84487   0.729   5.779   8.024
60883SOL    HW184488   0.823   5.788   8.037
60883SOL    HW284489   0.719   5.770   7.929
60884SOL     OW84490   8.463   3.878   9.091
60884SOL    HW184491   8.498   3.943   9.030
60884SOL    HW284492   8.436   3.805   9.035
60885SOL     OW84493  10.814  11.572  13.050
60885SOL    HW184494  10.760  11.495  13.066
60885SOL    HW284495  10.796  11.630  13.124
60886SOL     OW84496  14.546   7.063  13.639
60886SOL    HW184497  14.533   7.145  13.591
60886SOL    HW284498  14.546   6.995  13.570
60887SOL     OW84499   8.067   6.151   8.206
60887SOL    HW184500   8.030   6.066   8.183
60887SOL    HW284501   7.995   6.198   8.247
60888SOL     OW84502   4.438  11.894   9.162
60888SOL    HW184503   4.481  11.855   9.086
60888SOL    HW284504   4.350  11.916   9.131
60889SOL     OW84505   5.327   6.086   5.157
60889SOL    HW184506   5.417   6.108   5.136
60889SOL    HW284507   5.319   6.103   5.250
60890SOL     OW84508  11.188  12.044   4.740
60890SOL    HW184509  11.172  12.021   4.648
60890SOL    HW284510  11.139  11.978   4.789
60891SOL     OW84511   9.814   8.254   0.577
60891SOL    HW184512   9.822   8.301   0.659
60891SOL    HW284513   9.865   8.306   0.514
60892SOL     OW84514   8.265   4.720   8.368
60892SOL    HW184515   8.256   4.807   8.327
60892SOL    HW284516   8.268   4.738   8.462
60893SOL     OW84517   3.900  11.327   4.562
60893SOL    HW184518   3.969  11.385   4.592
60893SOL    HW284519   3.856  11.375   4.492
60894SOL     OW84520   8.417  10.808   2.122
60894SOL    HW184521   8.323  10.814   2.138
60894SOL    HW284522   8.437  10.885   2.069
60895SOL     OW84523   7.065   6.282   5.125
60895SOL    HW184524   7.006   6.307   5.054
60895SOL    HW284525   7.152   6.306   5.094
60896SOL     OW84526   2.359  14.806   2.741
60896SOL    HW184527   2.440  14.823   2.693
60896SOL    HW284528   2.293  14.860   2.696
60897SOL     OW84529  11.466   6.476   2.307
60897SOL    HW184530  11.413   6.397   2.305
60897SOL    HW284531  11.418   6.537   2.363
60898SOL     OW84532   2.065   4.429  11.825
60898SOL    HW184533   2.120   4.481  11.767
60898SOL    HW284534   1.975   4.457  11.806
60899SOL     OW84535   1.426   8.494   1.364
60899SOL    HW184536   1.501   8.452   1.323
60899SOL    HW284537   1.418   8.579   1.321
60900SOL     OW84538   5.825   7.288   5.270
60900SOL    HW184539   5.913   7.324   5.280
60900SOL    HW284540   5.836   7.216   5.207
60901SOL     OW84541  13.261   4.276   6.691
60901SOL    HW184542  13.344   4.291   6.737
60901SOL    HW284543  13.266   4.332   6.613
60902SOL     OW84544  10.516  10.599   7.528
60902SOL    HW184545  10.516  10.673   7.588
60902SOL    HW284546  10.474  10.528   7.578
60903SOL     OW84547  14.483   0.519   1.148
60903SOL    HW184548  14.531   0.459   1.204
60903SOL    HW284549  14.476   0.473   1.064
60904SOL     OW84550   8.196  14.247   0.708
60904SOL    HW184551   8.103  14.259   0.723
60904SOL    HW284552   8.231  14.218   0.792
60905SOL     OW84553   3.461   9.388   6.517
60905SOL    HW184554   3.522   9.462   6.520
60905SOL    HW284555   3.409   9.404   6.439
60906SOL     OW84556  13.161  12.308  12.363
60906SOL    HW184557  13.124  12.226  12.330
60906SOL    HW284558  13.137  12.311  12.455
60907SOL     OW84559   3.342   3.928   3.174
60907SOL    HW184560   3.251   3.944   3.198
60907SOL    HW284561   3.337   3.894   3.085
60908SOL     OW84562  10.651   8.001  13.768
60908SOL    HW184563  10.652   8.022  13.675
60908SOL    HW284564  10.563   8.027  13.798
60909SOL     OW84565  12.917   5.718  10.593
60909SOL    HW184566  12.997   5.738  10.545
60909SOL    HW284567  12.848   5.716  10.526
60910SOL     OW84568  13.996   8.275   3.542
60910SOL    HW184569  14.024   8.360   3.575
60910SOL    HW284570  14.066   8.215   3.569
60911SOL     OW84571   3.490   2.212  14.089
60911SOL    HW184572   3.425   2.275  14.120
60911SOL    HW284573   3.482   2.138  14.150
60912SOL     OW84574   9.814   1.347   9.765
60912SOL    HW184575   9.901   1.377   9.739
60912SOL    HW284576   9.822   1.252   9.772
60913SOL     OW84577   4.877   3.956  11.568
60913SOL    HW184578   4.848   4.004  11.491
60913SOL    HW284579   4.806   3.967  11.631
60914SOL     OW84580   6.488  12.697   0.461
60914SOL    HW184581   6.531  12.727   0.541
60914SOL    HW284582   6.544  12.728   0.390
60915SOL     OW84583   5.388  12.936   4.396
60915SOL    HW184584   5.471  12.984   4.396
60915SOL    HW284585   5.382  12.897   4.483
60916SOL     OW84586  11.004   5.963  11.430
60916SOL    HW184587  11.010   6.055  11.402
60916SOL    HW284588  10.959   5.919  11.358
60917SOL     OW84589  14.431   6.264   8.911
60917SOL    HW184590  14.444   6.330   8.979
60917SOL    HW284591  14.358   6.211   8.941
60918SOL     OW84592   0.808  13.229   5.814
60918SOL    HW184593   0.802  13.140   5.779
60918SOL    HW284594   0.887  13.265   5.774
60919SOL     OW84595   7.502  12.668   0.662
60919SOL    HW184596   7.427  12.643   0.608
60919SOL    HW284597   7.492  12.618   0.743
60920SOL     OW84598  14.742   9.587   9.031
60920SOL    HW184599  14.688   9.663   9.008
60920SOL    HW284600  14.826   9.624   9.057
60921SOL     OW84601  14.233  12.270   5.685
60921SOL    HW184602  14.262  12.184   5.716
60921SOL    HW284603  14.148  12.284   5.729
60922SOL     OW84604  11.725  14.239  10.859
60922SOL    HW184605  11.675  14.220  10.780
60922SOL    HW284606  11.760  14.328  10.845
60923SOL     OW84607   7.760   5.754  13.829
60923SOL    HW184608   7.746   5.732  13.737
60923SOL    HW284609   7.718   5.840  13.840
60924SOL     OW84610   9.541   2.281   8.507
60924SOL    HW184611   9.473   2.343   8.534
60924SOL    HW284612   9.554   2.226   8.584
60925SOL     OW84613   6.667   8.481   6.266
60925SOL    HW184614   6.739   8.501   6.206
60925SOL    HW284615   6.689   8.395   6.302
60926SOL     OW84616  13.373   6.426  10.720
60926SOL    HW184617  13.323   6.350  10.688
60926SOL    HW284618  13.376   6.485  10.645
60927SOL     OW84619   9.064   2.178   1.161
60927SOL    HW184620   9.072   2.237   1.237
60927SOL    HW284621   9.079   2.091   1.197
60928SOL     OW84622   5.131   4.405   0.804
60928SOL    HW184623   5.105   4.488   0.764
60928SOL    HW284624   5.052   4.376   0.851
60929SOL     OW84625   9.673  14.725  12.767
60929SOL    HW184626   9.728  14.768  12.702
60929SOL    HW284627   9.678  14.632  12.744
60930SOL     OW84628   1.187   1.948   1.602
60930SOL    HW184629   1.228   1.963   1.687
60930SOL    HW284630   1.175   2.035   1.565
60931SOL     OW84631   7.158   5.421   2.674
60931SOL    HW184632   7.229   5.477   2.643
60931SOL    HW284633   7.201   5.350   2.721
60932SOL     OW84634  14.412  12.041   9.905
60932SOL    HW184635  14.451  12.078   9.826
60932SOL    HW284636  14.318  12.036   9.885
60933SOL     OW84637  13.707   0.890   3.866
60933SOL    HW184638  13.699   0.984   3.883
60933SOL    HW284639  13.801   0.875   3.858
60934SOL     OW84640  10.098  11.217  11.120
60934SOL    HW184641  10.188  11.226  11.091
60934SOL    HW284642  10.049  11.197  11.040
60935SOL     OW84643   8.294   9.347  12.601
60935SOL    HW184644   8.288   9.319  12.692
60935SOL    HW284645   8.388   9.340  12.580
60936SOL     OW84646   9.791   0.399   3.916
60936SOL    HW184647   9.764   0.395   4.008
60936SOL    HW284648   9.715   0.434   3.870
60937SOL     OW84649   1.308   3.848   2.353
60937SOL    HW184650   1.365   3.918   2.321
60937SOL    HW284651   1.231   3.893   2.386
60938SOL     OW84652   0.672  11.193   3.539
60938SOL    HW184653   0.722  11.180   3.459
60938SOL    HW284654   0.583  11.167   3.516
60939SOL     OW84655  12.720   0.679   8.680
60939SOL    HW184656  12.744   0.754   8.626
60939SOL    HW284657  12.777   0.685   8.757
60940SOL     OW84658  13.871   4.361   6.317
60940SOL    HW184659  13.916   4.280   6.341
60940SOL    HW284660  13.839   4.345   6.228
60941SOL     OW84661   9.992   4.562   4.490
60941SOL    HW184662  10.041   4.516   4.422
60941SOL    HW284663   9.912   4.591   4.446
60942SOL     OW84664  14.323   5.248   3.916
60942SOL    HW184665  14.412   5.215   3.927
60942SOL    HW284666  14.267   5.173   3.933
60943SOL     OW84667   0.235   4.265   4.766
60943SOL    HW184668   0.176   4.324   4.719
60943SOL    HW284669   0.233   4.184   4.716
60944SOL     OW84670   1.784  14.718   3.337
60944SOL    HW184671   1.761  14.749   3.425
60944SOL    HW284672   1.703  14.681   3.303
60945SOL     OW84673  10.970   3.635   8.561
60945SOL    HW184674  11.039   3.697   8.586
60945SOL    HW284675  10.889   3.686   8.563
60946SOL     OW84676   7.271   9.948  12.086
60946SOL    HW184677   7.256   9.969  11.994
60946SOL    HW284678   7.305   9.858  12.085
60947SOL     OW84679   9.787  14.617   4.795
60947SOL    HW184680   9.739  14.656   4.868
60947SOL    HW284681   9.879  14.634   4.814
60948SOL     OW84682   3.803   7.376  12.049
60948SOL    HW184683   3.856   7.325  12.110
60948SOL    HW284684   3.713   7.347  12.065
60949SOL     OW84685  10.241  11.504   1.482
60949SOL    HW184686  10.203  11.433   1.430
60949SOL    HW284687  10.236  11.473   1.572
60950SOL     OW84688   8.908   8.091   9.523
60950SOL    HW184689   8.940   8.172   9.483
60950SOL    HW284690   8.982   8.031   9.515
60951SOL     OW84691   7.739   0.632   8.923
60951SOL    HW184692   7.688   0.594   8.995
60951SOL    HW284693   7.804   0.565   8.902
60952SOL     OW84694   7.913  12.982   2.671
60952SOL    HW184695   7.917  12.895   2.630
60952SOL    HW284696   7.844  12.973   2.738
60953SOL     OW84697   2.284   7.395  10.866
60953SOL    HW184698   2.308   7.416  10.775
60953SOL    HW284699   2.366   7.365  10.905
60954SOL     OW84700   2.558   0.633   2.023
60954SOL    HW184701   2.601   0.549   2.005
60954SOL    HW284702   2.466   0.618   1.999
60955SOL     OW84703   9.720   5.120   4.591
60955SOL    HW184704   9.738   5.030   4.618
60955SOL    HW284705   9.641   5.113   4.537
60956SOL     OW84706   7.426  12.062   9.105
60956SOL    HW184707   7.388  12.129   9.161
60956SOL    HW284708   7.404  11.979   9.147
60957SOL     OW84709   0.191   5.782   3.452
60957SOL    HW184710   0.182   5.709   3.513
60957SOL    HW284711   0.105   5.789   3.410
60958SOL     OW84712   1.624   9.841  13.953
60958SOL    HW184713   1.668   9.875  14.031
60958SOL    HW284714   1.622   9.746  13.965
60959SOL     OW84715   7.601  12.676  13.160
60959SOL    HW184716   7.513  12.645  13.183
60959SOL    HW284717   7.644  12.599  13.123
60960SOL     OW84718   4.668   0.065   5.130
60960SOL    HW184719   4.641  14.848   5.139
60960SOL    HW284720   4.756   0.061   5.092
60961SOL     OW84721  12.096   1.919   3.082
60961SOL    HW184722  12.042   1.841   3.092
60961SOL    HW284723  12.142   1.907   2.999
60962SOL     OW84724   9.705  14.561   2.639
60962SOL    HW184725   9.741  14.649   2.625
60962SOL    HW284726   9.655  14.568   2.720
60963SOL     OW84727   0.999   9.354   7.818
60963SOL    HW184728   1.093   9.361   7.835
60963SOL    HW284729   0.979   9.261   7.830
60964SOL     OW84730  11.939   7.346   4.698
60964SOL    HW184731  11.914   7.256   4.715
60964SOL    HW284732  11.890   7.371   4.620
60965SOL     OW84733   0.405   9.406   4.530
60965SOL    HW184734   0.465   9.480   4.516
60965SOL    HW284735   0.344   9.437   4.596
60966SOL     OW84736  13.969   8.037  13.454
60966SOL    HW184737  13.955   8.126  13.422
60966SOL    HW284738  14.019   8.047  13.535
60967SOL     OW84739   0.872  10.830   1.570
60967SOL    HW184740   0.813  10.799   1.501
60967SOL    HW284741   0.838  10.917   1.593
60968SOL     OW84742  10.618  14.667   0.337
60968SOL    HW184743  10.639  14.599   0.402
60968SOL    HW284744  10.657  14.747   0.372
60969SOL     OW84745   0.948  14.233  11.827
60969SOL    HW184746   0.919  14.145  11.851
60969SOL    HW284747   0.877  14.268  11.773
60970SOL     OW84748   8.566   6.807   8.685
60970SOL    HW184749   8.475   6.833   8.673
60970SOL    HW284750   8.586   6.828   8.776
60971SOL     OW84751   5.770   8.826   0.942
60971SOL    HW184752   5.833   8.781   0.998
60971SOL    HW284753   5.703   8.858   1.003
60972SOL     OW84754   7.067  13.620   9.883
60972SOL    HW184755   7.073  13.586   9.972
60972SOL    HW284756   6.984  13.587   9.850
60973SOL     OW84757   0.522   1.928  10.567
60973SOL    HW184758   0.539   1.893  10.655
60973SOL    HW284759   0.579   1.877  10.509
60974SOL     OW84760   4.182   4.605   7.197
60974SOL    HW184761   4.213   4.537   7.257
60974SOL    HW284762   4.215   4.579   7.111
60975SOL     OW84763   6.441  14.621   3.281
60975SOL    HW184764   6.530  14.587   3.270
60975SOL    HW284765   6.391  14.546   3.312
60976SOL     OW84766  11.104   3.873   1.281
60976SOL    HW184767  11.145   3.807   1.225
60976SOL    HW284768  11.090   3.828   1.364
60977SOL     OW84769  11.766   9.541  10.048
60977SOL    HW184770  11.701   9.472  10.057
60977SOL    HW284771  11.789   9.563  10.138
60978SOL     OW84772   9.697   0.797   8.864
60978SOL    HW184773   9.702   0.738   8.788
60978SOL    HW284774   9.611   0.779   8.902
60979SOL     OW84775   0.531  11.199   8.646
60979SOL    HW184776   0.453  11.168   8.601
60979SOL    HW284777   0.538  11.144   8.724
60980SOL     OW84778   6.337  10.315   5.293
60980SOL    HW184779   6.356  10.304   5.200
60980SOL    HW284780   6.338  10.410   5.306
60981SOL     OW84781   9.882   8.894   9.646
60981SOL    HW184782   9.834   8.842   9.581
60981SOL    HW284783   9.862   8.853   9.730
60982SOL     OW84784  11.710   9.840   5.173
60982SOL    HW184785  11.632   9.836   5.227
60982SOL    HW284786  11.750   9.925   5.194
60983SOL     OW84787   7.430   6.368   3.944
60983SOL    HW184788   7.491   6.440   3.963
60983SOL    HW284789   7.386   6.396   3.864
60984SOL     OW84790  11.674  13.579  12.165
60984SOL    HW184791  11.605  13.543  12.109
60984SOL    HW284792  11.639  13.664  12.193
60985SOL     OW84793  10.597  10.504  12.699
60985SOL    HW184794  10.651  10.572  12.738
60985SOL    HW284795  10.571  10.448  12.772
60986SOL     OW84796  13.082  10.533  13.330
60986SOL    HW184797  13.026  10.461  13.358
60986SOL    HW284798  13.055  10.550  13.239
60987SOL     OW84799  12.091   4.836   1.876
60987SOL    HW184800  12.085   4.744   1.851
60987SOL    HW284801  12.170   4.842   1.930
60988SOL     OW84802  12.032   8.631   0.860
60988SOL    HW184803  12.019   8.720   0.891
60988SOL    HW284804  12.127   8.621   0.853
60989SOL     OW84805   4.164   2.837   1.900
60989SOL    HW184806   4.222   2.912   1.918
60989SOL    HW284807   4.087   2.877   1.860
60990SOL     OW84808  10.558  14.305  11.469
60990SOL    HW184809  10.574  14.216  11.436
60990SOL    HW284810  10.636  14.325  11.521
60991SOL     OW84811  11.379   4.858  11.239
60991SOL    HW184812  11.406   4.792  11.303
60991SOL    HW284813  11.286   4.841  11.225
60992SOL     OW84814   8.463   9.614  13.874
60992SOL    HW184815   8.427   9.539  13.922
60992SOL    HW284816   8.387   9.657  13.835
60993SOL     OW84817   8.908   1.157   8.366
60993SOL    HW184818   8.995   1.195   8.378
60993SOL    HW284819   8.891   1.165   8.272
60994SOL     OW84820   9.508   0.026   9.530
60994SOL    HW184821   9.576  14.836   9.547
60994SOL    HW284822   9.534   0.104   9.580
60995SOL     OW84823   1.494   1.471   8.844
60995SOL    HW184824   1.524   1.401   8.785
60995SOL    HW284825   1.416   1.506   8.801
60996SOL     OW84826   7.544   3.342  11.452
60996SOL    HW184827   7.551   3.409  11.384
60996SOL    HW284828   7.604   3.370  11.520
60997SOL     OW84829   3.210   4.729   3.276
60997SOL    HW184830   3.285   4.674   3.253
60997SOL    HW284831   3.247   4.816   3.289
60998SOL     OW84832   5.186  13.001   7.624
60998SOL    HW184833   5.203  12.907   7.616
60998SOL    HW284834   5.241  13.029   7.697
60999SOL     OW84835   6.257   3.449   2.283
60999SOL    HW184836   6.298   3.512   2.223
60999SOL    HW284837   6.164   3.467   2.276
61000SOL     OW84838   6.166  11.894   3.311
61000SOL    HW184839   6.110  11.817   3.299
61000SOL    HW284840   6.142  11.929   3.396
61001SOL     OW84841  11.347  10.496  12.943
61001SOL    HW184842  11.301  10.445  13.010
61001SOL    HW284843  11.332  10.448  12.862
61002SOL     OW84844   5.413   9.624  12.411
61002SOL    HW184845   5.344   9.690  12.403
61002SOL    HW284846   5.489   9.673  12.442
61003SOL     OW84847   5.726  14.667   9.608
61003SOL    HW184848   5.783  14.590   9.610
61003SOL    HW284849   5.715  14.687   9.515
61004SOL     OW84850  12.071   6.977   3.799
61004SOL    HW184851  12.137   6.923   3.756
61004SOL    HW284852  12.111   7.002   3.883
61005SOL     OW84853   5.140   9.419   6.959
61005SOL    HW184854   5.229   9.430   6.926
61005SOL    HW284855   5.140   9.464   7.043
61006SOL     OW84856   9.236  10.750   6.292
61006SOL    HW184857   9.227  10.745   6.387
61006SOL    HW284858   9.318  10.704   6.274
61007SOL     OW84859   3.401  12.329   8.213
61007SOL    HW184860   3.454  12.349   8.290
61007SOL    HW284861   3.312  12.320   8.247
61008SOL     OW84862   7.028  13.208   0.673
61008SOL    HW184863   7.073  13.223   0.755
61008SOL    HW284864   7.098  13.199   0.608
61009SOL     OW84865  14.593   3.104   3.682
61009SOL    HW184866  14.590   3.200   3.675
61009SOL    HW284867  14.638   3.088   3.764
61010SOL     OW84868   9.212   6.610   2.578
61010SOL    HW184869   9.247   6.546   2.640
61010SOL    HW284870   9.120   6.618   2.603
61011SOL     OW84871   3.943   3.338   9.129
61011SOL    HW184872   4.024   3.292   9.109
61011SOL    HW284873   3.968   3.431   9.128
61012SOL     OW84874  10.009   6.541   9.949
61012SOL    HW184875  10.043   6.585  10.026
61012SOL    HW284876  10.018   6.605   9.878
61013SOL     OW84877  10.091   1.649   4.650
61013SOL    HW184878  10.185   1.651   4.637
61013SOL    HW284879  10.067   1.557   4.639
61014SOL     OW84880   4.514   4.864  10.931
61014SOL    HW184881   4.515   4.802  11.004
61014SOL    HW284882   4.433   4.844  10.884
61015SOL     OW84883  14.074   2.285   1.756
61015SOL    HW184884  14.051   2.315   1.844
61015SOL    HW284885  14.169   2.276   1.758
61016SOL     OW84886   5.581  10.090   4.031
61016SOL    HW184887   5.599  10.130   3.945
61016SOL    HW284888   5.607  10.157   4.094
61017SOL     OW84889  13.569   0.038  10.046
61017SOL    HW184890  13.554   0.085  10.128
61017SOL    HW284891  13.664   0.031  10.039
61018SOL     OW84892  10.381  13.497   0.175
61018SOL    HW184893  10.456  13.550   0.202
61018SOL    HW284894  10.369  13.434   0.246
61019SOL     OW84895  12.025  12.856   3.940
61019SOL    HW184896  11.998  12.942   3.908
61019SOL    HW284897  12.097  12.874   4.000
61020SOL     OW84898   6.267   9.628   5.393
61020SOL    HW184899   6.209   9.575   5.448
61020SOL    HW284900   6.354   9.590   5.404
61021SOL     OW84901   7.054   0.279   5.185
61021SOL    HW184902   7.029   0.292   5.276
61021SOL    HW284903   7.149   0.284   5.185
61022SOL     OW84904   6.173   6.217  12.271
61022SOL    HW184905   6.238   6.274  12.230
61022SOL    HW284906   6.092   6.234  12.222
61023SOL     OW84907   9.906   3.190   4.784
61023SOL    HW184908   9.882   3.122   4.722
61023SOL    HW284909   9.943   3.260   4.730
61024SOL     OW84910  13.452   9.418   8.185
61024SOL    HW184911  13.456   9.329   8.152
61024SOL    HW284912  13.531   9.460   8.152
61025SOL     OW84913   7.050  12.190  14.091
61025SOL    HW184914   7.084  12.181  14.180
61025SOL    HW284915   7.041  12.100  14.059
61026SOL     OW84916   5.424  13.885   5.044
61026SOL    HW184917   5.383  13.910   4.961
61026SOL    HW284918   5.390  13.797   5.061
61027SOL     OW84919   6.472   1.577   1.589
61027SOL    HW184920   6.518   1.586   1.672
61027SOL    HW284921   6.507   1.648   1.535
61028SOL     OW84922   3.157  14.621   5.195
61028SOL    HW184923   3.189  14.710   5.209
61028SOL    HW284924   3.217  14.585   5.128
61029SOL     OW84925  10.188   9.510   6.776
61029SOL    HW184926  10.149   9.429   6.742
61029SOL    HW284927  10.256   9.479   6.836
61030SOL     OW84928   2.509  10.453   9.827
61030SOL    HW184929   2.427  10.483   9.789
61030SOL    HW284930   2.527  10.369   9.784
61031SOL     OW84931   4.525   1.303   7.129
61031SOL    HW184932   4.575   1.368   7.177
61031SOL    HW284933   4.523   1.226   7.186
61032SOL     OW84934   5.331  11.763   4.948
61032SOL    HW184935   5.298  11.780   4.859
61032SOL    HW284936   5.425  11.751   4.937
61033SOL     OW84937   9.905   3.075  10.363
61033SOL    HW184938   9.947   3.081  10.278
61033SOL    HW284939   9.813   3.057  10.344
61034SOL     OW84940   7.306   3.197  12.461
61034SOL    HW184941   7.230   3.180  12.405
61034SOL    HW284942   7.269   3.239  12.539
61035SOL     OW84943   6.237   7.758   4.246
61035SOL    HW184944   6.187   7.801   4.177
61035SOL    HW284945   6.174   7.742   4.316
61036SOL     OW84946   8.655  11.262  12.505
61036SOL    HW184947   8.661  11.201  12.579
61036SOL    HW284948   8.745  11.289  12.489
61037SOL     OW84949   0.265   0.697  11.558
61037SOL    HW184950   0.173   0.678  11.575
61037SOL    HW284951   0.305   0.611  11.545
61038SOL     OW84952  11.995   0.567  10.541
61038SOL    HW184953  11.918   0.621  10.558
61038SOL    HW284954  12.014   0.525  10.625
61039SOL     OW84955   2.010   4.860   7.330
61039SOL    HW184956   2.013   4.835   7.422
61039SOL    HW284957   1.977   4.950   7.330
61040SOL     OW84958  11.410   1.928  10.394
61040SOL    HW184959  11.331   1.968  10.357
61040SOL    HW284960  11.400   1.834  10.377
61041SOL     OW84961  14.018   1.377   2.622
61041SOL    HW184962  14.104   1.415   2.602
61041SOL    HW284963  13.962   1.452   2.640
61042SOL     OW84964  12.335  13.383   7.859
61042SOL    HW184965  12.425  13.413   7.849
61042SOL    HW284966  12.343  13.294   7.894
61043SOL     OW84967   9.035   0.289   9.351
61043SOL    HW184968   8.986   0.371   9.347
61043SOL    HW284969   9.125   0.315   9.331
61044SOL     OW84970   8.819   3.797   9.778
61044SOL    HW184971   8.822   3.871   9.718
61044SOL    HW284972   8.837   3.721   9.723
61045SOL     OW84973   1.820  10.551   7.180
61045SOL    HW184974   1.901  10.506   7.203
61045SOL    HW284975   1.751  10.492   7.208
61046SOL     OW84976  12.835  13.651   0.328
61046SOL    HW184977  12.894  13.724   0.344
61046SOL    HW284978  12.780  13.680   0.255
61047SOL     OW84979   5.522   6.895   7.698
61047SOL    HW184980   5.488   6.847   7.773
61047SOL    HW284981   5.617   6.882   7.702
61048SOL     OW84982   6.519  10.760   1.217
61048SOL    HW184983   6.446  10.729   1.164
61048SOL    HW284984   6.568  10.680   1.238
61049SOL     OW84985   0.098  13.475   5.530
61049SOL    HW184986   0.008  13.454   5.506
61049SOL    HW284987   0.133  13.392   5.564
61050SOL     OW84988   2.553   8.688   0.578
61050SOL    HW184989   2.595   8.724   0.657
61050SOL    HW284990   2.463   8.670   0.605
61051SOL     OW84991   2.626  10.469  10.223
61051SOL    HW184992   2.713  10.453  10.186
61051SOL    HW284993   2.566  10.423  10.165
61052SOL     OW84994   2.164   2.614   7.412
61052SOL    HW184995   2.181   2.585   7.502
61052SOL    HW284996   2.248   2.602   7.367
61053SOL     OW84997   4.004   3.090  12.669
61053SOL    HW184998   3.946   3.145  12.722
61053SOL    HW284999   4.065   3.052  12.732
61054SOL     OW85000   9.611   5.452  12.394
61054SOL    HW185001   9.593   5.453  12.300
61054SOL    HW285002   9.611   5.360  12.418
61055SOL     OW85003   3.703  14.632   8.730
61055SOL    HW185004   3.732  14.636   8.821
61055SOL    HW285005   3.757  14.697   8.685
61056SOL     OW85006   8.540   5.575   2.775
61056SOL    HW185007   8.456   5.609   2.807
61056SOL    HW285008   8.605   5.634   2.812
61057SOL     OW85009  12.922   8.198   3.796
61057SOL    HW185010  12.955   8.287   3.809
61057SOL    HW285011  12.836   8.211   3.755
61058SOL     OW85012   5.741  14.163  14.086
61058SOL    HW185013   5.796  14.187  14.011
61058SOL    HW285014   5.693  14.243  14.107
61059SOL     OW85015  11.648   3.863   7.752
61059SOL    HW185016  11.605   3.928   7.808
61059SOL    HW285017  11.736   3.898   7.737
61060SOL     OW85018   6.195   0.274   3.376
61060SOL    HW185019   6.211   0.186   3.342
61060SOL    HW285020   6.244   0.331   3.317
61061SOL     OW85021   0.333   4.361  12.300
61061SOL    HW185022   0.422   4.384  12.328
61061SOL    HW285023   0.316   4.419  12.226
61062SOL     OW85024   8.431   4.744  14.851
61062SOL    HW185025   8.459   4.809   0.042
61062SOL    HW285026   8.368   4.690   0.024
61063SOL     OW85027   3.350  11.104   4.651
61063SOL    HW185028   3.366  11.063   4.736
61063SOL    HW285029   3.275  11.161   4.667
61064SOL     OW85030  10.014   0.367   7.225
61064SOL    HW185031   9.959   0.311   7.280
61064SOL    HW285032   9.969   0.368   7.140
61065SOL     OW85033   4.435   1.668   6.386
61065SOL    HW185034   4.500   1.600   6.406
61065SOL    HW285035   4.377   1.668   6.462
61066SOL     OW85036   7.296   6.182   1.312
61066SOL    HW185037   7.321   6.234   1.235
61066SOL    HW285038   7.368   6.193   1.373
61067SOL     OW85039  12.973  10.404   0.270
61067SOL    HW185040  12.897  10.373   0.220
61067SOL    HW285041  12.997  10.487   0.229
61068SOL     OW85042   4.413  10.401   2.149
61068SOL    HW185043   4.393  10.479   2.097
61068SOL    HW285044   4.362  10.331   2.108
61069SOL     OW85045   4.032   8.591   3.933
61069SOL    HW185046   4.037   8.519   3.869
61069SOL    HW285047   4.101   8.652   3.906
61070SOL     OW85048   0.236   5.957  12.829
61070SOL    HW185049   0.297   5.892  12.862
61070SOL    HW285050   0.261   6.038  12.874
61071SOL     OW85051   4.008  14.335   6.005
61071SOL    HW185052   4.015  14.256   6.058
61071SOL    HW285053   3.947  14.391   6.053
61072SOL     OW85054  11.324   2.035   1.416
61072SOL    HW185055  11.369   2.109   1.375
61072SOL    HW285056  11.327   1.965   1.350
61073SOL     OW85057  14.288  10.071   0.048
61073SOL    HW185058  14.365  10.117   0.017
61073SOL    HW285059  14.217  10.102  14.866
61074SOL     OW85060  10.669   2.297   2.058
61074SOL    HW185061  10.712   2.212   2.048
61074SOL    HW285062  10.739   2.361   2.048
61075SOL     OW85063  13.383  12.840   2.989
61075SOL    HW185064  13.436  12.912   3.023
61075SOL    HW285065  13.344  12.800   3.067
61076SOL     OW85066   9.843   2.031   9.195
61076SOL    HW185067   9.817   2.098   9.132
61076SOL    HW285068   9.929   2.059   9.226
61077SOL     OW85069  14.276   2.479   6.982
61077SOL    HW185070  14.318   2.441   7.059
61077SOL    HW285071  14.347   2.523   6.935
61078SOL     OW85072  14.646   1.605  12.119
61078SOL    HW185073  14.650   1.550  12.197
61078SOL    HW285074  14.714   1.570  12.062
61079SOL     OW85075   6.387   7.431   1.875
61079SOL    HW185076   6.379   7.362   1.940
61079SOL    HW285077   6.361   7.389   1.793
61080SOL     OW85078   4.646   4.025   2.432
61080SOL    HW185079   4.661   3.932   2.449
61080SOL    HW285080   4.556   4.040   2.459
61081SOL     OW85081   6.065   2.260   8.163
61081SOL    HW185082   6.031   2.253   8.074
61081SOL    HW285083   6.134   2.327   8.157
61082SOL     OW85084   9.526   4.980   3.356
61082SOL    HW185085   9.602   4.936   3.394
61082SOL    HW285086   9.561   5.064   3.325
61083SOL     OW85087  13.570   9.672   1.740
61083SOL    HW185088  13.556   9.608   1.810
61083SOL    HW285089  13.491   9.664   1.685
61084SOL     OW85090   1.892   1.989  13.498
61084SOL    HW185091   1.966   1.990  13.560
61084SOL    HW285092   1.889   2.078  13.462
61085SOL     OW85093   1.514  11.604   6.226
61085SOL    HW185094   1.509  11.695   6.255
61085SOL    HW285095   1.608  11.585   6.223
61086SOL     OW85096   0.605   5.138  14.356
61086SOL    HW185097   0.612   5.186  14.274
61086SOL    HW285098   0.685   5.087  14.362
61087SOL     OW85099   7.047  10.722   3.066
61087SOL    HW185100   7.051  10.645   3.123
61087SOL    HW285101   7.139  10.747   3.053
61088SOL     OW85102   6.438   0.969  10.272
61088SOL    HW185103   6.411   1.061  10.272
61088SOL    HW285104   6.359   0.920  10.297
61089SOL     OW85105  11.938   4.891   0.426
61089SOL    HW185106  11.984   4.975   0.428
61089SOL    HW285107  11.877   4.899   0.353
61090SOL     OW85108   7.313   5.433   8.953
61090SOL    HW185109   7.373   5.414   9.026
61090SOL    HW285110   7.277   5.519   8.974
61091SOL     OW85111   0.340   8.145   5.043
61091SOL    HW185112   0.294   8.109   4.967
61091SOL    HW285113   0.424   8.099   5.043
61092SOL     OW85114   8.695  12.617  14.480
61092SOL    HW185115   8.609  12.595  14.445
61092SOL    HW285116   8.702  12.712  14.468
61093SOL     OW85117  12.655  14.041   6.514
61093SOL    HW185118  12.714  14.115   6.501
61093SOL    HW285119  12.684  14.000   6.595
61094SOL     OW85120   0.525   2.449  14.143
61094SOL    HW185121   0.525   2.354  14.146
61094SOL    HW285122   0.498   2.476  14.231
61095SOL     OW85123   0.500  13.131  10.570
61095SOL    HW185124   0.525  13.045  10.536
61095SOL    HW285125   0.524  13.192  10.500
61096SOL     OW85126  14.648   6.616  12.093
61096SOL    HW185127  14.659   6.699  12.047
61096SOL    HW285128  14.609   6.641  12.177
61097SOL     OW85129   7.313  11.530   1.665
61097SOL    HW185130   7.391  11.569   1.626
61097SOL    HW285131   7.342  11.445   1.697
61098SOL     OW85132   0.010   5.775  10.486
61098SOL    HW185133   0.003   5.730  10.570
61098SOL    HW285134  14.867   5.867  10.507
61099SOL     OW85135   0.514   5.452   1.637
61099SOL    HW185136   0.502   5.358   1.627
61099SOL    HW285137   0.479   5.473   1.723
61100SOL     OW85138  13.968   4.943   6.743
61100SOL    HW185139  13.931   4.864   6.705
61100SOL    HW285140  14.032   4.973   6.680
61101SOL     OW85141   5.865  11.092  14.586
61101SOL    HW185142   5.885  11.099  14.492
61101SOL    HW285143   5.951  11.086  14.628
61102SOL     OW85144   4.198   8.535   5.781
61102SOL    HW185145   4.263   8.605   5.789
61102SOL    HW285146   4.171   8.517   5.871
61103SOL     OW85147   0.823   6.875   2.284
61103SOL    HW185148   0.917   6.865   2.299
61103SOL    HW285149   0.791   6.919   2.363
61104SOL     OW85150  10.833  10.247  12.214
61104SOL    HW185151  10.917  10.287  12.232
61104SOL    HW285152  10.801  10.217  12.300
61105SOL     OW85153  11.133   8.919   4.713
61105SOL    HW185154  11.189   8.841   4.717
61105SOL    HW285155  11.046   8.887   4.738
61106SOL     OW85156   8.732   6.322  13.453
61106SOL    HW185157   8.676   6.391  13.490
61106SOL    HW285158   8.702   6.314  13.362
61107SOL     OW85159   9.274   4.321  12.240
61107SOL    HW185160   9.257   4.266  12.164
61107SOL    HW285161   9.270   4.262  12.315
61108SOL     OW85162   9.718   6.782  13.087
61108SOL    HW185163   9.648   6.847  13.089
61108SOL    HW285164   9.757   6.791  13.001
61109SOL     OW85165  10.147   7.966  12.421
61109SOL    HW185166  10.228   7.937  12.464
61109SOL    HW285167  10.174   7.991  12.333
61110SOL     OW85168  10.560   5.275   2.041
61110SOL    HW185169  10.567   5.234   1.955
61110SOL    HW285170  10.518   5.359   2.025
61111SOL     OW85171   3.316  10.630  11.499
61111SOL    HW185172   3.377  10.644  11.571
61111SOL    HW285173   3.323  10.709  11.445
61112SOL     OW85174  11.749   2.897   7.297
61112SOL    HW185175  11.805   2.834   7.343
61112SOL    HW285176  11.673   2.908   7.354
61113SOL     OW85177   5.328  12.548   5.288
61113SOL    HW185178   5.381  12.627   5.294
61113SOL    HW285179   5.388  12.481   5.256
61114SOL     OW85180  12.177  11.612   1.714
61114SOL    HW185181  12.162  11.694   1.668
61114SOL    HW285182  12.150  11.544   1.652
61115SOL     OW85183   3.271   5.771   6.804
61115SOL    HW185184   3.245   5.773   6.712
61115SOL    HW285185   3.189   5.785   6.852
61116SOL     OW85186   4.975   9.193   1.980
61116SOL    HW185187   4.977   9.271   2.036
61116SOL    HW285188   4.909   9.136   2.020
61117SOL     OW85189   5.380   8.055   3.674
61117SOL    HW185190   5.473   8.050   3.652
61117SOL    HW285191   5.335   8.060   3.589
61118SOL     OW85192   8.755  14.861  13.543
61118SOL    HW185193   8.807  14.857  13.463
61118SOL    HW285194   8.722   0.077  13.545
61119SOL     OW85195   4.592   6.408   0.672
61119SOL    HW185196   4.598   6.423   0.767
61119SOL    HW285197   4.541   6.328   0.663
61120SOL     OW85198  14.492  11.107   2.936
61120SOL    HW185199  14.478  11.140   3.025
61120SOL    HW285200  14.542  11.176   2.893
61121SOL     OW85201  12.530  14.777  12.517
61121SOL    HW185202  12.518  14.854  12.461
61121SOL    HW285203  12.532  14.703  12.456
61122SOL     OW85204   7.699   2.311   3.511
61122SOL    HW185205   7.681   2.366   3.588
61122SOL    HW285206   7.792   2.292   3.516
61123SOL     OW85207   7.722  12.922  13.223
61123SOL    HW185208   7.686  12.834  13.208
61123SOL    HW285209   7.651  12.981  13.198
61124SOL     OW85210   3.383  14.145   1.603
61124SOL    HW185211   3.352  14.059   1.574
61124SOL    HW285212   3.353  14.151   1.694
61125SOL     OW85213   1.948   3.029  11.747
61125SOL    HW185214   1.900   2.968  11.691
61125SOL    HW285215   2.024   3.055  11.694
61126SOL     OW85216   0.169   4.344   0.485
61126SOL    HW185217   0.078   4.324   0.461
61126SOL    HW285218   0.187   4.428   0.444
61127SOL     OW85219   0.519  11.093   9.137
61127SOL    HW185220   0.578  11.084   9.212
61127SOL    HW285221   0.437  11.124   9.175
61128SOL     OW85222  12.499   3.694  13.636
61128SOL    HW185223  12.580   3.645  13.625
61128SOL    HW285224  12.528   3.786  13.644
61129SOL     OW85225   2.513   4.892   8.766
61129SOL    HW185226   2.488   4.810   8.725
61129SOL    HW285227   2.531   4.951   8.693
61130SOL     OW85228   7.162  13.344  11.561
61130SOL    HW185229   7.223  13.319  11.492
61130SOL    HW285230   7.085  13.290  11.545
61131SOL     OW85231  14.009   9.827  12.013
61131SOL    HW185232  14.009   9.890  11.942
61131SOL    HW285233  13.983   9.744  11.972
61132SOL     OW85234  12.237   1.624  12.179
61132SOL    HW185235  12.288   1.574  12.115
61132SOL    HW285236  12.286   1.615  12.261
61133SOL     OW85237   6.197   5.537   8.698
61133SOL    HW185238   6.262   5.500   8.640
61133SOL    HW285239   6.177   5.467   8.761
61134SOL     OW85240   5.038  11.364   0.042
61134SOL    HW185241   5.109  11.317   0.085
61134SOL    HW285242   4.977  11.386   0.112
61135SOL     OW85243   6.819  10.301   4.578
61135SOL    HW185244   6.730  10.323   4.605
61135SOL    HW285245   6.874  10.368   4.619
61136SOL     OW85246   0.153  10.531  11.687
61136SOL    HW185247   0.141  10.523  11.592
61136SOL    HW285248   0.242  10.500  11.702
61137SOL     OW85249   1.584  11.836   0.116
61137SOL    HW185250   1.506  11.781   0.111
61137SOL    HW285251   1.655  11.776   0.136
61138SOL     OW85252   3.609   4.565   2.163
61138SOL    HW185253   3.632   4.636   2.223
61138SOL    HW285254   3.664   4.581   2.086
61139SOL     OW85255  11.172   4.722   1.914
61139SOL    HW185256  11.178   4.661   1.840
61139SOL    HW285257  11.167   4.808   1.873
61140SOL     OW85258   3.060   0.669   8.331
61140SOL    HW185259   3.128   0.725   8.371
61140SOL    HW285260   2.978   0.703   8.366
61141SOL     OW85261   1.072   7.841   1.404
61141SOL    HW185262   1.157   7.796   1.407
61141SOL    HW285263   1.095   7.934   1.397
61142SOL     OW85264  12.932   8.493  11.074
61142SOL    HW185265  12.905   8.455  11.158
61142SOL    HW285266  12.992   8.429  11.037
61143SOL     OW85267   3.339  14.303   1.383
61143SOL    HW185268   3.354  14.306   1.477
61143SOL    HW285269   3.407  14.244   1.350
61144SOL     OW85270   0.315   5.625   3.010
61144SOL    HW185271   0.240   5.622   3.070
61144SOL    HW285272   0.391   5.610   3.067
61145SOL     OW85273  13.145  11.788  14.849
61145SOL    HW185274  13.156  11.792   0.070
61145SOL    HW285275  13.235  11.788  14.815
61146SOL     OW85276   2.839   9.354   2.542
61146SOL    HW185277   2.810   9.265   2.522
61146SOL    HW285278   2.928   9.358   2.508
61147SOL     OW85279   4.770   6.004   0.801
61147SOL    HW185280   4.683   6.016   0.840
61147SOL    HW285281   4.828   6.058   0.855
61148SOL     OW85282  12.172   3.103   2.260
61148SOL    HW185283  12.200   3.048   2.334
61148SOL    HW285284  12.241   3.092   2.195
61149SOL     OW85285  11.359   1.533  13.025
61149SOL    HW185286  11.433   1.486  12.989
61149SOL    HW285287  11.291   1.467  13.035
61150SOL     OW85288   5.938  10.445   7.831
61150SOL    HW185289   5.958  10.351   7.829
61150SOL    HW285290   6.017  10.488   7.799
61151SOL     OW85291   3.467   7.365   9.408
61151SOL    HW185292   3.524   7.437   9.379
61151SOL    HW285293   3.494   7.291   9.353
61152SOL     OW85294   0.301  10.798   6.762
61152SOL    HW185295   0.396  10.808   6.767
61152SOL    HW285296   0.285  10.767   6.673
61153SOL     OW85297   7.149  10.809   7.683
61153SOL    HW185298   7.144  10.773   7.771
61153SOL    HW285299   7.238  10.843   7.676
61154SOL     OW85300   9.364   7.775   9.289
61154SOL    HW185301   9.369   7.861   9.331
61154SOL    HW285302   9.409   7.787   9.206
61155SOL     OW85303   2.264   7.660   1.398
61155SOL    HW185304   2.284   7.573   1.434
61155SOL    HW285305   2.344   7.685   1.350
61156SOL     OW85306  10.621  10.056   0.592
61156SOL    HW185307  10.682  10.102   0.534
61156SOL    HW285308  10.535  10.086   0.565
61157SOL     OW85309  12.449   3.333   0.394
61157SOL    HW185310  12.518   3.358   0.455
61157SOL    HW285311  12.493   3.281   0.327
61158SOL     OW85312   9.764   0.600   1.725
61158SOL    HW185313   9.700   0.612   1.654
61158SOL    HW285314   9.849   0.619   1.684
61159SOL     OW85315   9.550   9.849   0.568
61159SOL    HW185316   9.488   9.787   0.531
61159SOL    HW285317   9.582   9.900   0.493
61160SOL     OW85318  12.967   5.599  14.641
61160SOL    HW185319  12.916   5.520  14.661
61160SOL    HW285320  13.041   5.595  14.702
61161SOL     OW85321   0.883   0.403  13.742
61161SOL    HW185322   0.791   0.382  13.720
61161SOL    HW285323   0.908   0.468  13.676
61162SOL     OW85324   1.051  13.627  13.133
61162SOL    HW185325   1.134  13.668  13.157
61162SOL    HW285326   1.007  13.693  13.079
61163SOL     OW85327   5.903   3.484   9.990
61163SOL    HW185328   5.854   3.550   9.942
61163SOL    HW285329   5.995   3.501   9.967
61164SOL     OW85330   1.646   5.897   4.534
61164SOL    HW185331   1.630   5.921   4.625
61164SOL    HW285332   1.559   5.887   4.496
61165SOL     OW85333   0.617   0.875   1.547
61165SOL    HW185334   0.709   0.860   1.526
61165SOL    HW285335   0.590   0.945   1.488
61166SOL     OW85336  10.656  12.469   0.003
61166SOL    HW185337  10.706  12.544  14.844
61166SOL    HW285338  10.715  12.395  14.870
61167SOL     OW85339   8.706   2.744  10.257
61167SOL    HW185340   8.637   2.692  10.215
61167SOL    HW285341   8.787   2.713  10.217
61168SOL     OW85342  10.647   6.698  13.789
61168SOL    HW185343  10.636   6.672  13.880
61168SOL    HW285344  10.676   6.789  13.793
61169SOL     OW85345  10.131   1.235  10.319
61169SOL    HW185346  10.169   1.213  10.235
61169SOL    HW285347  10.038   1.247  10.302
61170SOL     OW85348   7.508   2.544  11.911
61170SOL    HW185349   7.497   2.631  11.873
61170SOL    HW285350   7.595   2.517  11.883
61171SOL     OW85351  11.772   2.997  10.121
61171SOL    HW185352  11.695   3.022  10.172
61171SOL    HW285353  11.756   2.905  10.098
61172SOL     OW85354   5.024  13.431   8.098
61172SOL    HW185355   4.972  13.509   8.079
61172SOL    HW285356   5.005  13.411   8.189
61173SOL     OW85357   2.399   0.638   3.134
61173SOL    HW185358   2.369   0.592   3.055
61173SOL    HW285359   2.473   0.691   3.104
61174SOL     OW85360  10.958  14.100   0.732
61174SOL    HW185361  10.880  14.044   0.731
61174SOL    HW285362  10.996  14.090   0.644
61175SOL     OW85363   1.571  14.872   8.418
61175SOL    HW185364   1.620  14.813   8.476
61175SOL    HW285365   1.611   0.084   8.431
61176SOL     OW85366  11.292  14.323  10.676
61176SOL    HW185367  11.263  14.368  10.596
61176SOL    HW285368  11.212  14.313  10.728
61177SOL     OW85369   2.762  10.728   1.921
61177SOL    HW185370   2.745  10.675   1.843
61177SOL    HW285371   2.858  10.726   1.931
61178SOL     OW85372  13.611  13.483  11.858
61178SOL    HW185373  13.702  13.460  11.837
61178SOL    HW285374  13.616  13.522  11.945
61179SOL     OW85375   6.134   1.845  10.422
61179SOL    HW185376   6.054   1.794  10.406
61179SOL    HW285377   6.201   1.801  10.369
61180SOL     OW85378   8.629   3.203   6.001
61180SOL    HW185379   8.587   3.199   6.086
61180SOL    HW285380   8.562   3.241   5.943
61181SOL     OW85381   5.781  12.627   8.754
61181SOL    HW185382   5.749  12.569   8.684
61181SOL    HW285383   5.834  12.569   8.810
61182SOL     OW85384   0.469   6.082   3.381
61182SOL    HW185385   0.476   6.015   3.313
61182SOL    HW285386   0.514   6.158   3.344
61183SOL     OW85387   9.076  12.342   6.960
61183SOL    HW185388   9.021  12.293   6.899
61183SOL    HW285389   9.123  12.405   6.906
61184SOL     OW85390  14.224   0.633  10.254
61184SOL    HW185391  14.168   0.622  10.176
61184SOL    HW285392  14.227   0.545  10.293
61185SOL     OW85393  11.274  11.088   3.779
61185SOL    HW185394  11.193  11.122   3.741
61185SOL    HW285395  11.246  11.023   3.843
61186SOL     OW85396   1.157  13.000   5.405
61186SOL    HW185397   1.110  13.027   5.326
61186SOL    HW285398   1.207  13.078   5.430
61187SOL     OW85399   9.016   3.934   2.757
61187SOL    HW185400   9.050   3.898   2.838
61187SOL    HW285401   8.930   3.969   2.780
61188SOL     OW85402  13.644   0.128  13.998
61188SOL    HW185403  13.737   0.137  13.977
61188SOL    HW285404  13.625   0.201  14.057
61189SOL     OW85405  12.246   7.633  11.623
61189SOL    HW185406  12.337   7.604  11.628
61189SOL    HW285407  12.251   7.728  11.637
61190SOL     OW85408   5.448   3.640   3.276
61190SOL    HW185409   5.373   3.580   3.278
61190SOL    HW285410   5.522   3.585   3.251
61191SOL     OW85411   2.120  14.648   8.422
61191SOL    HW185412   2.066  14.658   8.344
61191SOL    HW285413   2.135  14.738   8.452
61192SOL     OW85414   6.805   1.064   8.638
61192SOL    HW185415   6.757   1.015   8.704
61192SOL    HW285416   6.790   1.155   8.660
61193SOL     OW85417   3.913   5.134   6.932
61193SOL    HW185418   3.971   5.137   7.008
61193SOL    HW285419   3.960   5.080   6.868
61194SOL     OW85420   7.108  11.266   6.141
61194SOL    HW185421   7.201  11.285   6.127
61194SOL    HW285422   7.090  11.297   6.230
61195SOL     OW85423   2.948   5.177   3.862
61195SOL    HW185424   2.931   5.243   3.794
61195SOL    HW285425   2.875   5.116   3.854
61196SOL     OW85426  14.704   0.955   9.070
61196SOL    HW185427  14.702   1.036   9.120
61196SOL    HW285428  14.797   0.931   9.067
61197SOL     OW85429   8.432   9.453   9.230
61197SOL    HW185430   8.376   9.460   9.153
61197SOL    HW285431   8.520   9.437   9.195
61198SOL     OW85432  11.659   0.426  12.083
61198SOL    HW185433  11.647   0.423  12.178
61198SOL    HW285434  11.621   0.343  12.052
61199SOL     OW85435   5.395   1.364   9.489
61199SOL    HW185436   5.310   1.394   9.521
61199SOL    HW285437   5.444   1.444   9.470
61200SOL     OW85438  14.303  13.293   9.698
61200SOL    HW185439  14.234  13.234   9.728
61200SOL    HW285440  14.382  13.262   9.742
61201SOL     OW85441   5.673  12.327  13.062
61201SOL    HW185442   5.642  12.380  12.989
61201SOL    HW285443   5.620  12.247  13.058
61202SOL     OW85444   1.922  12.191   9.628
61202SOL    HW185445   1.898  12.275   9.667
61202SOL    HW285446   1.894  12.199   9.536
61203SOL     OW85447   4.959   3.110   7.547
61203SOL    HW185448   4.877   3.082   7.589
61203SOL    HW285449   5.026   3.097   7.615
61204SOL     OW85450   5.343   5.841   7.721
61204SOL    HW185451   5.285   5.871   7.791
61204SOL    HW285452   5.317   5.893   7.644
61205SOL     OW85453  13.916   6.366   3.912
61205SOL    HW185454  13.936   6.459   3.900
61205SOL    HW285455  13.846   6.365   3.977
61206SOL     OW85456  11.272  11.436   1.825
61206SOL    HW185457  11.202  11.415   1.887
61206SOL    HW285458  11.259  11.529   1.805
61207SOL     OW85459   0.745   4.412   9.867
61207SOL    HW185460   0.680   4.407   9.937
61207SOL    HW285461   0.709   4.356   9.797
61208SOL     OW85462  12.011   9.898   1.900
61208SOL    HW185463  11.966   9.889   1.816
61208SOL    HW285464  12.104   9.897   1.878
61209SOL     OW85465  12.593   8.782   1.777
61209SOL    HW185466  12.540   8.861   1.786
61209SOL    HW285467  12.566   8.726   1.849
61210SOL     OW85468  14.560   2.179   9.633
61210SOL    HW185469  14.555   2.129   9.552
61210SOL    HW285470  14.571   2.113   9.702
61211SOL     OW85471   1.774   1.068   3.457
61211SOL    HW185472   1.821   0.987   3.476
61211SOL    HW285473   1.825   1.110   3.387
61212SOL     OW85474   8.704  10.066  11.525
61212SOL    HW185475   8.789  10.082  11.566
61212SOL    HW285476   8.682   9.976  11.550
61213SOL     OW85477   5.738   0.684   3.043
61213SOL    HW185478   5.804   0.629   3.001
61213SOL    HW285479   5.702   0.737   2.972
61214SOL     OW85480  11.877   2.386   7.054
61214SOL    HW185481  11.935   2.394   6.978
61214SOL    HW285482  11.896   2.299   7.089
61215SOL     OW85483   3.994  10.949   3.042
61215SOL    HW185484   4.019  10.953   2.949
61215SOL    HW285485   4.046  11.018   3.084
61216SOL     OW85486  14.489   3.113   8.441
61216SOL    HW185487  14.544   3.060   8.383
61216SOL    HW285488  14.536   3.195   8.452
61217SOL     OW85489  10.991   4.029   1.571
61217SOL    HW185490  11.069   4.085   1.575
61217SOL    HW285491  11.026   3.940   1.572
61218SOL     OW85492   7.792  11.887   2.899
61218SOL    HW185493   7.883  11.858   2.893
61218SOL    HW285494   7.764  11.862   2.987
61219SOL     OW85495  11.148  14.009  12.241
61219SOL    HW185496  11.089  14.082  12.223
61219SOL    HW285497  11.221  14.023  12.180
61220SOL     OW85498  10.588  10.777  13.552
61220SOL    HW185499  10.650  10.705  13.538
61220SOL    HW285500  10.503  10.740  13.530
61221SOL     OW85501  10.578   1.088   9.086
61221SOL    HW185502  10.557   0.995   9.081
61221SOL    HW285503  10.552   1.123   9.000
61222SOL     OW85504  11.478   4.172   1.937
61222SOL    HW185505  11.418   4.139   1.870
61222SOL    HW285506  11.445   4.135   2.019
61223SOL     OW85507   8.288   8.956   5.015
61223SOL    HW185508   8.206   8.921   5.050
61223SOL    HW285509   8.305   9.034   5.069
61224SOL     OW85510   1.074  13.196   2.132
61224SOL    HW185511   1.133  13.141   2.081
61224SOL    HW285512   1.080  13.282   2.091
61225SOL     OW85513   5.199   5.006  13.040
61225SOL    HW185514   5.236   5.094  13.053
61225SOL    HW285515   5.146   4.990  13.118
61226SOL     OW85516   9.851   5.794   5.166
61226SOL    HW185517   9.820   5.773   5.254
61226SOL    HW285518   9.791   5.749   5.107
61227SOL     OW85519   8.045   6.962   7.232
61227SOL    HW185520   8.120   6.903   7.247
61227SOL    HW285521   8.040   7.015   7.311
61228SOL     OW85522  10.360   3.170   0.957
61228SOL    HW185523  10.343   3.118   1.036
61228SOL    HW285524  10.381   3.257   0.990
61229SOL     OW85525   4.605   4.526   3.885
61229SOL    HW185526   4.580   4.472   3.960
61229SOL    HW285527   4.525   4.573   3.861
61230SOL     OW85528   3.494   0.028   9.360
61230SOL    HW185529   3.411   0.011   9.317
61230SOL    HW285530   3.481  14.874   9.450
61231SOL     OW85531   7.013  12.346  14.706
61231SOL    HW185532   7.009  12.269  14.649
61231SOL    HW285533   6.925  12.353  14.742
61232SOL     OW85534  10.774   1.116  12.441
61232SOL    HW185535  10.725   1.083  12.517
61232SOL    HW285536  10.709   1.122  12.371
61233SOL     OW85537  13.828   3.442   8.167
61233SOL    HW185538  13.756   3.489   8.208
61233SOL    HW285539  13.793   3.355   8.149
61234SOL     OW85540   2.157  12.810   7.216
61234SOL    HW185541   2.149  12.739   7.280
61234SOL    HW285542   2.244  12.797   7.178
61235SOL     OW85543  10.262   0.622   2.156
61235SOL    HW185544  10.289   0.714   2.148
61235SOL    HW285545  10.274   0.585   2.069
61236SOL     OW85546   6.903  10.604   5.694
61236SOL    HW185547   6.900  10.519   5.649
61236SOL    HW285548   6.981  10.647   5.660
61237SOL     OW85549   5.609  14.130  13.760
61237SOL    HW185550   5.548  14.182  13.812
61237SOL    HW285551   5.583  14.146  13.669
61238SOL     OW85552  11.736  14.648   3.357
61238SOL    HW185553  11.746  14.730   3.308
61238SOL    HW285554  11.824  14.611   3.361
61239SOL     OW85555   0.679   9.735   2.077
61239SOL    HW185556   0.738   9.694   2.140
61239SOL    HW285557   0.737   9.773   2.011
61240SOL     OW85558  12.647  10.362  12.828
61240SOL    HW185559  12.629  10.410  12.909
61240SOL    HW285560  12.661  10.430  12.762
61241SOL     OW85561  13.259   4.977  10.002
61241SOL    HW185562  13.249   5.057   9.950
61241SOL    HW285563  13.255   5.007  10.093
61242SOL     OW85564  11.938   4.328   7.735
61242SOL    HW185565  11.960   4.238   7.759
61242SOL    HW285566  12.001   4.351   7.666
61243SOL     OW85567   2.841  11.490   1.249
61243SOL    HW185568   2.782  11.501   1.174
61243SOL    HW285569   2.921  11.536   1.224
61244SOL     OW85570   6.475  13.006   2.463
61244SOL    HW185571   6.504  12.989   2.553
61244SOL    HW285572   6.551  13.049   2.422
61245SOL     OW85573   0.702  13.929   5.626
61245SOL    HW185574   0.664  13.843   5.610
61245SOL    HW285575   0.692  13.942   5.721
61246SOL     OW85576  10.351  10.118   5.474
61246SOL    HW185577  10.370  10.167   5.554
61246SOL    HW285578  10.258  10.134   5.457
61247SOL     OW85579   2.707   9.560   8.756
61247SOL    HW185580   2.673   9.608   8.832
61247SOL    HW285581   2.716   9.470   8.787
61248SOL     OW85582  10.041   0.228   8.237
61248SOL    HW185583  10.123   0.184   8.257
61248SOL    HW285584  10.038   0.234   8.142
61249SOL     OW85585   4.502  13.928  10.906
61249SOL    HW185586   4.461  13.969  10.982
61249SOL    HW285587   4.542  13.848  10.940
61250SOL     OW85588   1.570   7.775   8.273
61250SOL    HW185589   1.654   7.787   8.317
61250SOL    HW285590   1.567   7.681   8.253
61251SOL     OW85591  10.816   5.916  13.627
61251SOL    HW185592  10.816   5.820  13.632
61251SOL    HW285593  10.763   5.944  13.701
61252SOL     OW85594  12.598   9.774   5.841
61252SOL    HW185595  12.610   9.696   5.896
61252SOL    HW285596  12.543   9.832   5.894
61253SOL     OW85597  11.550   3.259   8.437
61253SOL    HW185598  11.581   3.195   8.501
61253SOL    HW285599  11.545   3.211   8.355
61254SOL     OW85600   2.668   0.839   8.583
61254SOL    HW185601   2.683   0.929   8.610
61254SOL    HW285602   2.578   0.838   8.551
61255SOL     OW85603   6.528  14.621   6.611
61255SOL    HW185604   6.575  14.653   6.688
61255SOL    HW285605   6.490  14.537   6.639
61256SOL     OW85606   0.890   0.182   8.938
61256SOL    HW185607   0.841   0.113   8.983
61256SOL    HW285608   0.868   0.169   8.845
61257SOL     OW85609  10.273   0.714   3.232
61257SOL    HW185610  10.350   0.717   3.288
61257SOL    HW285611  10.287   0.637   3.176
61258SOL     OW85612  14.469   1.327   8.481
61258SOL    HW185613  14.492   1.403   8.534
61258SOL    HW285614  14.521   1.255   8.518
61259SOL     OW85615   3.719   3.347  13.038
61259SOL    HW185616   3.649   3.381  12.982
61259SOL    HW285617   3.680   3.274  13.084
61260SOL     OW85618   3.353   9.341   5.105
61260SOL    HW185619   3.263   9.362   5.129
61260SOL    HW285620   3.406   9.405   5.153
61261SOL     OW85621   8.076   6.894  11.996
61261SOL    HW185622   8.035   6.972  11.958
61261SOL    HW285623   8.169   6.904  11.976
61262SOL     OW85624   8.440   7.467   8.573
61262SOL    HW185625   8.509   7.531   8.555
61262SOL    HW285626   8.377   7.480   8.502
61263SOL     OW85627   1.219  14.699   1.556
61263SOL    HW185628   1.310  14.712   1.530
61263SOL    HW285629   1.220  14.616   1.604
61264SOL     OW85630   9.716  11.560  12.402
61264SOL    HW185631   9.752  11.483  12.358
61264SOL    HW285632   9.624  11.540  12.414
61265SOL     OW85633  10.983  13.342  10.974
61265SOL    HW185634  10.979  13.276  10.905
61265SOL    HW285635  10.906  13.324  11.029
61266SOL     OW85636   7.646  13.173   9.456
61266SOL    HW185637   7.674  13.264   9.444
61266SOL    HW285638   7.618  13.169   9.547
61267SOL     OW85639   5.141   8.517   7.980
61267SOL    HW185640   5.069   8.561   8.025
61267SOL    HW285641   5.215   8.524   8.040
61268SOL     OW85642  11.001   7.715   4.222
61268SOL    HW185643  10.992   7.757   4.137
61268SOL    HW285644  10.931   7.752   4.275
61269SOL     OW85645   5.485   6.625   3.765
61269SOL    HW185646   5.433   6.682   3.709
61269SOL    HW285647   5.522   6.560   3.705
61270SOL     OW85648   9.184   0.086   4.274
61270SOL    HW185649   9.250   0.155   4.264
61270SOL    HW285650   9.126   0.117   4.344
61271SOL     OW85651   9.729   6.529   3.692
61271SOL    HW185652   9.640   6.530   3.656
61271SOL    HW285653   9.727   6.461   3.760
61272SOL     OW85654  10.489   1.636   3.150
61272SOL    HW185655  10.474   1.547   3.182
61272SOL    HW285656  10.556   1.671   3.209
61273SOL     OW85657   8.325   0.043   8.589
61273SOL    HW185658   8.332   0.036   8.493
61273SOL    HW285659   8.275   0.123   8.604
61274SOL     OW85660  12.848   4.606   8.804
61274SOL    HW185661  12.796   4.652   8.870
61274SOL    HW285662  12.924   4.574   8.852
61275SOL     OW85663  10.352  14.820  14.165
61275SOL    HW185664  10.348  14.828  14.070
61275SOL    HW285665  10.432  14.770  14.181
61276SOL     OW85666   7.812   9.006   3.478
61276SOL    HW185667   7.758   8.927   3.487
61276SOL    HW285668   7.853   8.997   3.392
61277SOL     OW85669   0.441   7.716   9.798
61277SOL    HW185670   0.428   7.773   9.874
61277SOL    HW285671   0.490   7.641   9.832
61278SOL     OW85672   0.742  10.576   5.925
61278SOL    HW185673   0.773  10.486   5.916
61278SOL    HW285674   0.650  10.572   5.899
61279SOL     OW85675   7.070   5.248   2.454
61279SOL    HW185676   7.026   5.300   2.521
61279SOL    HW285677   7.124   5.310   2.406
61280SOL     OW85678   3.265   1.648   6.097
61280SOL    HW185679   3.172   1.638   6.113
61280SOL    HW285680   3.277   1.742   6.082
61281SOL     OW85681   5.198   3.925  10.765
61281SOL    HW185682   5.264   3.970  10.817
61281SOL    HW285683   5.176   3.847  10.816
61282SOL     OW85684   2.501  13.714  13.938
61282SOL    HW185685   2.567  13.783  13.939
61282SOL    HW285686   2.468  13.711  14.028
61283SOL     OW85687   8.822   6.513   3.172
61283SOL    HW185688   8.780   6.435   3.136
61283SOL    HW285689   8.895   6.480   3.223
61284SOL     OW85690  12.996   9.126   9.069
61284SOL    HW185691  12.979   9.051   9.011
61284SOL    HW285692  13.028   9.086   9.150
61285SOL     OW85693   5.790   1.187   3.254
61285SOL    HW185694   5.790   1.091   3.255
61285SOL    HW285695   5.704   1.210   3.219
61286SOL     OW85696   6.137  13.462  10.269
61286SOL    HW185697   6.111  13.498  10.184
61286SOL    HW285698   6.110  13.371  10.266
61287SOL     OW85699   4.988   9.549  10.651
61287SOL    HW185700   4.918   9.493  10.618
61287SOL    HW285701   5.059   9.539  10.587
61288SOL     OW85702   6.187   9.510   6.234
61288SOL    HW185703   6.199   9.437   6.173
61288SOL    HW285704   6.093   9.508   6.256
61289SOL     OW85705   5.605   4.932   3.178
61289SOL    HW185706   5.624   4.844   3.209
61289SOL    HW285707   5.664   4.944   3.104
61290SOL     OW85708   8.389   4.534   3.287
61290SOL    HW185709   8.457   4.522   3.354
61290SOL    HW285710   8.436   4.568   3.211
61291SOL     OW85711   3.675   3.209  10.278
61291SOL    HW185712   3.664   3.150  10.203
61291SOL    HW285713   3.592   3.204  10.324
61292SOL     OW85714   3.105  11.588   5.445
61292SOL    HW185715   3.192  11.556   5.422
61292SOL    HW285716   3.119  11.679   5.472
61293SOL     OW85717  11.493   4.339   3.186
61293SOL    HW185718  11.494   4.384   3.271
61293SOL    HW285719  11.573   4.368   3.142
61294SOL     OW85720   4.135   1.988   0.996
61294SOL    HW185721   4.174   2.009   1.081
61294SOL    HW285722   4.095   2.070   0.967
61295SOL     OW85723  14.541   6.782   7.756
61295SOL    HW185724  14.614   6.723   7.773
61295SOL    HW285725  14.580   6.855   7.709
61296SOL     OW85726  13.915  14.138   1.783
61296SOL    HW185727  13.925  14.057   1.833
61296SOL    HW285728  13.852  14.116   1.715
61297SOL     OW85729  11.596   2.348  14.719
61297SOL    HW185730  11.650   2.348  14.798
61297SOL    HW285731  11.527   2.285  14.737
61298SOL     OW85732   7.302   6.840   5.237
61298SOL    HW185733   7.264   6.754   5.253
61298SOL    HW285734   7.242   6.901   5.279
61299SOL     OW85735   9.024  14.470   0.584
61299SOL    HW185736   8.998  14.562   0.577
61299SOL    HW285737   9.119  14.472   0.594
61300SOL     OW85738   5.395   9.492   4.612
61300SOL    HW185739   5.321   9.445   4.651
61300SOL    HW285740   5.453   9.422   4.582
61301SOL     OW85741  10.909   2.348   6.712
61301SOL    HW185742  10.861   2.266   6.701
61301SOL    HW285743  10.980   2.327   6.772
61302SOL     OW85744   4.612  11.985   8.212
61302SOL    HW185745   4.625  12.074   8.179
61302SOL    HW285746   4.651  11.986   8.299
61303SOL     OW85747  10.866  10.869   1.371
61303SOL    HW185748  10.868  10.838   1.281
61303SOL    HW285749  10.805  10.942   1.370
61304SOL     OW85750  14.241   7.720   4.899
61304SOL    HW185751  14.237   7.642   4.843
61304SOL    HW285752  14.306   7.776   4.857
61305SOL     OW85753  10.805   9.592   0.452
61305SOL    HW185754  10.896   9.613   0.474
61305SOL    HW285755  10.757   9.604   0.533
61306SOL     OW85756  13.464  13.755   1.361
61306SOL    HW185757  13.371  13.744   1.377
61306SOL    HW285758  13.470  13.794   1.274
61307SOL     OW85759   4.335  12.315  10.362
61307SOL    HW185760   4.332  12.401  10.405
61307SOL    HW285761   4.251  12.309  10.316
61308SOL     OW85762  12.813   0.458   2.223
61308SOL    HW185763  12.846   0.513   2.295
61308SOL    HW285764  12.718   0.465   2.229
61309SOL     OW85765   7.317   8.872  14.441
61309SOL    HW185766   7.239   8.827  14.474
61309SOL    HW285767   7.390   8.819  14.474
61310SOL     OW85768  10.869   6.155   8.547
61310SOL    HW185769  10.888   6.064   8.569
61310SOL    HW285770  10.870   6.200   8.632
61311SOL     OW85771   1.029   9.595   2.510
61311SOL    HW185772   1.020   9.645   2.591
61311SOL    HW285773   1.116   9.617   2.477
61312SOL     OW85774   0.987   5.399  12.268
61312SOL    HW185775   1.043   5.463  12.224
61312SOL    HW285776   0.955   5.444  12.346
61313SOL     OW85777  11.601   3.605   9.662
61313SOL    HW185778  11.686   3.645   9.681
61313SOL    HW285779  11.537   3.668   9.694
61314SOL     OW85780   9.393   0.612   3.383
61314SOL    HW185781   9.459   0.679   3.402
61314SOL    HW285782   9.310   0.660   3.382
61315SOL     OW85783   5.079   7.920   5.649
61315SOL    HW185784   5.080   7.960   5.562
61315SOL    HW285785   5.111   7.988   5.708
61316SOL     OW85786   8.852   0.769  14.489
61316SOL    HW185787   8.908   0.841  14.517
61316SOL    HW285788   8.870   0.699  14.553
61317SOL     OW85789  12.770  10.902  13.587
61317SOL    HW185790  12.748  10.881  13.677
61317SOL    HW285791  12.699  10.864  13.535
61318SOL     OW85792   2.485  14.220   4.117
61318SOL    HW185793   2.470  14.285   4.049
61318SOL    HW285794   2.403  14.172   4.123
61319SOL     OW85795   5.069  11.060  14.597
61319SOL    HW185796   5.068  10.980  14.545
61319SOL    HW285797   4.985  11.060  14.643
61320SOL     OW85798  13.147   7.197   0.023
61320SOL    HW185799  13.175   7.265  14.835
61320SOL    HW285800  13.205   7.208   0.098
61321SOL     OW85801   6.083   2.997   9.201
61321SOL    HW185802   6.023   3.017   9.129
61321SOL    HW285803   6.045   2.920   9.243
61322SOL     OW85804  13.979   0.232   1.875
61322SOL    HW185805  13.899   0.203   1.829
61322SOL    HW285806  14.022   0.290   1.812
61323SOL     OW85807   9.984  12.947  13.512
61323SOL    HW185808  10.036  12.870  13.537
61323SOL    HW285809  10.014  13.016  13.571
61324SOL     OW85810  10.966  13.594   7.087
61324SOL    HW185811  10.878  13.623   7.111
61324SOL    HW285812  11.000  13.663   7.031
61325SOL     OW85813  11.674  10.267  10.919
61325SOL    HW185814  11.611  10.333  10.889
61325SOL    HW285815  11.718  10.308  10.994
61326SOL     OW85816  13.374   4.038  12.410
61326SOL    HW185817  13.444   4.083  12.362
61326SOL    HW285818  13.313   4.010  12.342
61327SOL     OW85819   4.550   7.633   4.639
61327SOL    HW185820   4.500   7.712   4.659
61327SOL    HW285821   4.579   7.600   4.724
61328SOL     OW85822   6.688   0.326   3.272
61328SOL    HW185823   6.702   0.361   3.183
61328SOL    HW285824   6.701   0.401   3.329
61329SOL     OW85825  13.753   7.833   7.457
61329SOL    HW185826  13.718   7.886   7.385
61329SOL    HW285827  13.758   7.893   7.531
61330SOL     OW85828   6.482   2.498   0.531
61330SOL    HW185829   6.530   2.579   0.547
61330SOL    HW285830   6.548   2.429   0.538
61331SOL     OW85831  14.158   6.949   4.174
61331SOL    HW185832  14.076   6.995   4.157
61331SOL    HW285833  14.225   7.002   4.131
61332SOL     OW85834   7.760   7.436   3.056
61332SOL    HW185835   7.665   7.432   3.070
61332SOL    HW285836   7.795   7.362   3.106
61333SOL     OW85837  12.831  12.163  10.274
61333SOL    HW185838  12.908  12.126  10.231
61333SOL    HW285839  12.804  12.096  10.337
61334SOL     OW85840   1.227   3.104   1.108
61334SOL    HW185841   1.316   3.096   1.142
61334SOL    HW285842   1.221   3.194   1.077
61335SOL     OW85843  10.934   4.071   1.228
61335SOL    HW185844  10.859   4.021   1.260
61335SOL    HW285845  11.008   4.011   1.236
61336SOL     OW85846  10.174   7.715  12.726
61336SOL    HW185847  10.243   7.764  12.679
61336SOL    HW285848  10.174   7.754  12.814
61337SOL     OW85849   2.973  13.513   4.415
61337SOL    HW185850   2.940  13.471   4.336
61337SOL    HW285851   2.912  13.487   4.484
61338SOL     OW85852  13.058  11.252   6.879
61338SOL    HW185853  13.152  11.263   6.895
61338SOL    HW285854  13.052  11.229   6.787
61339SOL     OW85855   7.136   9.706  12.498
61339SOL    HW185856   7.213   9.649  12.500
61339SOL    HW285857   7.063   9.648  12.478
61340SOL     OW85858  12.875   1.843  10.509
61340SOL    HW185859  12.952   1.801  10.471
61340SOL    HW285860  12.835   1.775  10.564
61341SOL     OW85861  13.921  13.050   2.758
61341SOL    HW185862  13.855  13.063   2.690
61341SOL    HW285863  13.905  13.121   2.821
61342SOL     OW85864   2.806   0.114   2.761
61342SOL    HW185865   2.828   0.167   2.837
61342SOL    HW285866   2.751   0.171   2.707
61343SOL     OW85867  10.575  11.663  12.859
61343SOL    HW185868  10.630  11.656  12.781
61343SOL    HW285869  10.604  11.745  12.901
61344SOL     OW85870   5.429   6.076  13.577
61344SOL    HW185871   5.335   6.089  13.594
61344SOL    HW285872   5.472   6.144  13.629
61345SOL     OW85873  11.698  13.943  12.947
61345SOL    HW185874  11.660  14.030  12.962
61345SOL    HW285875  11.623  13.885  12.934
61346SOL     OW85876  14.541   2.367   2.741
61346SOL    HW185877  14.527   2.277   2.710
61346SOL    HW285878  14.594   2.407   2.672
61347SOL     OW85879   1.694   5.950   2.689
61347SOL    HW185880   1.732   6.026   2.646
61347SOL    HW285881   1.697   5.880   2.623
61348SOL     OW85882   6.674   3.500  13.841
61348SOL    HW185883   6.748   3.560  13.847
61348SOL    HW285884   6.640   3.496  13.931
61349SOL     OW85885  11.311   4.411   1.775
61349SOL    HW185886  11.260   4.364   1.842
61349SOL    HW285887  11.395   4.429   1.818
61350SOL     OW85888  12.964   2.769   8.601
61350SOL    HW185889  12.959   2.784   8.695
61350SOL    HW285890  12.975   2.857   8.563
61351SOL     OW85891  12.506   4.613   2.809
61351SOL    HW185892  12.433   4.614   2.747
61351SOL    HW285893  12.531   4.521   2.816
61352SOL     OW85894   3.279  13.378   1.027
61352SOL    HW185895   3.340  13.312   0.995
61352SOL    HW285896   3.213  13.384   0.958
61353SOL     OW85897   4.462  14.369   8.837
61353SOL    HW185898   4.461  14.296   8.898
61353SOL    HW285899   4.554  14.376   8.809
61354SOL     OW85900   7.132  10.739   8.814
61354SOL    HW185901   7.048  10.753   8.770
61354SOL    HW285902   7.188  10.809   8.781
61355SOL     OW85903   4.987   1.423   5.237
61355SOL    HW185904   4.905   1.425   5.187
61355SOL    HW285905   4.994   1.511   5.274
61356SOL     OW85906  12.564   4.401   3.412
61356SOL    HW185907  12.634   4.460   3.441
61356SOL    HW285908  12.592   4.315   3.443
61357SOL     OW85909   7.445  14.105   4.683
61357SOL    HW185910   7.421  14.078   4.595
61357SOL    HW285911   7.531  14.065   4.699
61358SOL     OW85912   9.099  10.025   7.937
61358SOL    HW185913   9.040   9.951   7.954
61358SOL    HW285914   9.064  10.064   7.856
61359SOL     OW85915  11.987   4.231  14.684
61359SOL    HW185916  12.068   4.219  14.733
61359SOL    HW285917  12.015   4.271  14.602
61360SOL     OW85918  10.112   6.569   0.614
61360SOL    HW185919  10.110   6.562   0.519
61360SOL    HW285920  10.182   6.633   0.632
61361SOL     OW85921   9.580  11.366   1.553
61361SOL    HW185922   9.567  11.447   1.602
61361SOL    HW285923   9.494  11.325   1.551
61362SOL     OW85924   4.731  13.148  12.683
61362SOL    HW185925   4.739  13.059  12.716
61362SOL    HW285926   4.669  13.190  12.743
61363SOL     OW85927   2.266   5.625   7.049
61363SOL    HW185928   2.175   5.594   7.049
61363SOL    HW285929   2.268   5.693   6.981
61364SOL     OW85930   1.682   1.521   1.950
61364SOL    HW185931   1.620   1.589   1.922
61364SOL    HW285932   1.760   1.570   1.976
61365SOL     OW85933  13.978   9.023  12.041
61365SOL    HW185934  14.042   8.958  12.010
61365SOL    HW285935  13.913   8.972  12.089
61366SOL     OW85936  12.330   2.905   2.382
61366SOL    HW185937  12.376   2.891   2.466
61366SOL    HW285938  12.376   2.848   2.320
61367SOL     OW85939  12.502   7.138  13.142
61367SOL    HW185940  12.525   7.138  13.235
61367SOL    HW285941  12.585   7.120  13.097
61368SOL     OW85942  13.352  10.462   0.253
61368SOL    HW185943  13.269  10.446   0.209
61368SOL    HW285944  13.327  10.490   0.341
61369SOL     OW85945  10.898   3.917   9.036
61369SOL    HW185946  10.913   3.977   9.109
61369SOL    HW285947  10.969   3.854   9.042
61370SOL     OW85948   0.750   1.176  12.025
61370SOL    HW185949   0.683   1.140  11.967
61370SOL    HW285950   0.710   1.173  12.112
61371SOL     OW85951   3.455  12.150   7.147
61371SOL    HW185952   3.409  12.069   7.169
61371SOL    HW285953   3.386  12.217   7.148
61372SOL     OW85954  11.293   5.779   4.453
61372SOL    HW185955  11.254   5.836   4.519
61372SOL    HW285956  11.336   5.710   4.504
61373SOL     OW85957  14.534   2.396   0.157
61373SOL    HW185958  14.492   2.355   0.081
61373SOL    HW285959  14.606   2.446   0.119
61374SOL     OW85960   1.555   0.803   9.367
61374SOL    HW185961   1.566   0.895   9.344
61374SOL    HW285962   1.524   0.803   9.457
61375SOL     OW85963   9.681   9.926   5.571
61375SOL    HW185964   9.635  10.009   5.560
61375SOL    HW285965   9.720   9.908   5.486
61376SOL     OW85966   9.445  12.194   3.850
61376SOL    HW185967   9.458  12.289   3.840
61376SOL    HW285968   9.350  12.183   3.844
61377SOL     OW85969  12.333   2.310   3.193
61377SOL    HW185970  12.324   2.318   3.098
61377SOL    HW285971  12.388   2.385   3.218
61378SOL     OW85972   8.216   3.851   6.596
61378SOL    HW185973   8.195   3.859   6.503
61378SOL    HW285974   8.243   3.760   6.607
61379SOL     OW85975   6.799   4.010   0.260
61379SOL    HW185976   6.741   4.010   0.335
61379SOL    HW285977   6.870   3.951   0.285
61380SOL     OW85978   6.271   9.659   4.433
61380SOL    HW185979   6.178   9.645   4.417
61380SOL    HW285980   6.297   9.585   4.489
61381SOL     OW85981  12.579   8.556  14.563
61381SOL    HW185982  12.672   8.544  14.580
61381SOL    HW285983  12.535   8.496  14.624
61382SOL     OW85984  13.996   9.516  12.711
61382SOL    HW185985  13.948   9.581  12.661
61382SOL    HW285986  14.027   9.453  12.646
61383SOL     OW85987   8.852   3.708   2.042
61383SOL    HW185988   8.903   3.746   1.970
61383SOL    HW285989   8.777   3.667   1.999
61384SOL     OW85990   1.894   4.419   7.408
61384SOL    HW185991   1.809   4.450   7.440
61384SOL    HW285992   1.899   4.329   7.440
61385SOL     OW85993   8.820   7.616   8.127
61385SOL    HW185994   8.730   7.607   8.098
61385SOL    HW285995   8.867   7.646   8.049
61386SOL     OW85996   4.405  12.909   2.591
61386SOL    HW185997   4.478  12.847   2.583
61386SOL    HW285998   4.335  12.870   2.540
61387SOL     OW85999  13.249   7.844  10.151
61387SOL    HW186000  13.291   7.928  10.134
61387SOL    HW286001  13.159   7.866  10.174
61388SOL     OW86002  12.310   7.673   9.840
61388SOL    HW186003  12.406   7.681   9.842
61388SOL    HW286004  12.289   7.617   9.915
61389SOL     OW86005   6.436  10.262   1.362
61389SOL    HW186006   6.484  10.198   1.414
61389SOL    HW286007   6.381  10.308   1.425
61390SOL     OW86008   7.032   8.566  14.323
61390SOL    HW186009   6.948   8.522  14.331
61390SOL    HW286010   7.026   8.640  14.384
61391SOL     OW86011  11.461  11.496   3.734
61391SOL    HW186012  11.547  11.538   3.744
61391SOL    HW286013  11.426  11.494   3.823
61392SOL     OW86014  10.683  11.621   9.771
61392SOL    HW186015  10.740  11.596   9.844
61392SOL    HW286016  10.602  11.572   9.785
61393SOL     OW86017   0.626   2.130  10.776
61393SOL    HW186018   0.583   2.191  10.836
61393SOL    HW286019   0.574   2.050  10.782
61394SOL     OW86020   2.374  13.293   3.505
61394SOL    HW186021   2.364  13.379   3.546
61394SOL    HW286022   2.330  13.233   3.566
61395SOL     OW86023   6.134  14.676   2.066
61395SOL    HW186024   6.175  14.755   2.100
61395SOL    HW286025   6.055  14.708   2.022
61396SOL     OW86026  11.257  11.944  12.038
61396SOL    HW186027  11.332  11.979  12.087
61396SOL    HW286028  11.297  11.905  11.960
61397SOL     OW86029   6.717   0.514   6.273
61397SOL    HW186030   6.784   0.479   6.214
61397SOL    HW286031   6.692   0.597   6.233
61398SOL     OW86032   6.777   9.480   1.206
61398SOL    HW186033   6.683   9.484   1.226
61398SOL    HW286034   6.790   9.391   1.173
61399SOL     OW86035   5.530   5.808   3.078
61399SOL    HW186036   5.449   5.808   3.128
61399SOL    HW286037   5.569   5.894   3.097
61400SOL     OW86038   3.783   8.826   6.648
61400SOL    HW186039   3.873   8.793   6.643
61400SOL    HW286040   3.781   8.880   6.727
61401SOL     OW86041   2.185   7.126   7.423
61401SOL    HW186042   2.181   7.173   7.340
61401SOL    HW286043   2.257   7.167   7.471
61402SOL     OW86044  11.665  10.817   9.454
61402SOL    HW186045  11.742  10.771   9.419
61402SOL    HW286046  11.620  10.849   9.376
61403SOL     OW86047   9.643   1.054   7.034
61403SOL    HW186048   9.563   1.021   7.076
61403SOL    HW286049   9.713   1.035   7.096
61404SOL     OW86050  10.441  11.566   1.923
61404SOL    HW186051  10.389  11.501   1.970
61404SOL    HW286052  10.377  11.627   1.887
61405SOL     OW86053  13.070   4.694   6.668
61405SOL    HW186054  13.120   4.754   6.613
61405SOL    HW286055  13.136   4.651   6.722
61406SOL     OW86056  13.500   7.991   2.630
61406SOL    HW186057  13.539   8.063   2.679
61406SOL    HW286058  13.570   7.926   2.624
61407SOL     OW86059   4.702   4.574  11.686
61407SOL    HW186060   4.757   4.619  11.750
61407SOL    HW286061   4.716   4.623  11.605
61408SOL     OW86062   4.005  10.036  13.066
61408SOL    HW186063   3.927  10.084  13.037
61408SOL    HW286064   3.985  10.009  13.155
61409SOL     OW86065   7.316  12.177   5.445
61409SOL    HW186066   7.360  12.261   5.459
61409SOL    HW286067   7.378  12.112   5.479
61410SOL     OW86068   3.540  10.396   8.436
61410SOL    HW186069   3.531  10.433   8.349
61410SOL    HW286070   3.451  10.374   8.462
61411SOL     OW86071   6.790  10.105   6.106
61411SOL    HW186072   6.885  10.102   6.116
61411SOL    HW286073   6.772  10.048   6.031
61412SOL     OW86074   4.117  12.629  12.883
61412SOL    HW186075   4.200  12.612  12.928
61412SOL    HW286076   4.136  12.611  12.791
61413SOL     OW86077   0.410   2.480   9.018
61413SOL    HW186078   0.465   2.405   9.042
61413SOL    HW286079   0.337   2.441   8.970
61414SOL     OW86080   4.100   2.285   6.846
61414SOL    HW186081   4.009   2.311   6.859
61414SOL    HW286082   4.149   2.333   6.913
61415SOL     OW86083   5.708   3.977   3.129
61415SOL    HW186084   5.738   3.956   3.041
61415SOL    HW286085   5.635   4.038   3.116
61416SOL     OW86086  11.765  11.299  11.547
61416SOL    HW186087  11.792  11.304  11.639
61416SOL    HW286088  11.744  11.206  11.533
61417SOL     OW86089   3.597  10.912   5.577
61417SOL    HW186090   3.545  10.964   5.516
61417SOL    HW286091   3.674  10.886   5.527
61418SOL     OW86092  14.498   8.224  12.526
61418SOL    HW186093  14.433   8.249  12.592
61418SOL    HW286094  14.459   8.252  12.443
61419SOL     OW86095   3.878  10.704   9.909
61419SOL    HW186096   3.971  10.713   9.887
61419SOL    HW286097   3.832  10.746   9.837
61420SOL     OW86098  13.542  12.154  14.096
61420SOL    HW186099  13.551  12.247  14.075
61420SOL    HW286100  13.454  12.146  14.134
61421SOL     OW86101  11.615   5.474   5.949
61421SOL    HW186102  11.677   5.543   5.973
61421SOL    HW286103  11.552   5.518   5.893
61422SOL     OW86104  10.678  13.947   7.162
61422SOL    HW186105  10.761  13.991   7.183
61422SOL    HW286106  10.626  14.013   7.117
61423SOL     OW86107   0.295  12.144  10.441
61423SOL    HW186108   0.371  12.163  10.386
61423SOL    HW286109   0.221  12.145  10.381
61424SOL     OW86110   8.899   1.820   3.497
61424SOL    HW186111   8.830   1.786   3.441
61424SOL    HW286112   8.855   1.846   3.578
61425SOL     OW86113   0.005   9.969   2.771
61425SOL    HW186114   0.072   9.940   2.833
61425SOL    HW286115   0.054  10.005   2.698
61426SOL     OW86116   5.786   6.392   0.699
61426SOL    HW186117   5.700   6.362   0.729
61426SOL    HW286118   5.772   6.484   0.674
61427SOL     OW86119  12.558  13.076   5.550
61427SOL    HW186120  12.568  12.981   5.539
61427SOL    HW286121  12.510  13.086   5.632
61428SOL     OW86122   2.584   9.350   1.546
61428SOL    HW186123   2.523   9.397   1.603
61428SOL    HW286124   2.542   9.265   1.532
61429SOL     OW86125  10.258   8.738   5.905
61429SOL    HW186126  10.171   8.698   5.900
61429SOL    HW286127  10.241   8.831   5.919
61430SOL     OW86128   9.466   3.434   4.372
61430SOL    HW186129   9.428   3.475   4.450
61430SOL    HW286130   9.441   3.491   4.300
61431SOL     OW86131   6.434   6.008   3.364
61431SOL    HW186132   6.463   5.916   3.367
61431SOL    HW286133   6.388   6.020   3.447
61432SOL     OW86134  14.539  13.031  12.378
61432SOL    HW186135  14.501  13.024  12.466
61432SOL    HW286136  14.467  13.065  12.324
61433SOL     OW86137   0.262  10.669   4.930
61433SOL    HW186138   0.288  10.586   4.971
61433SOL    HW286139   0.192  10.644   4.870
61434SOL     OW86140   1.436   9.615   4.157
61434SOL    HW186141   1.528   9.632   4.137
61434SOL    HW286142   1.401   9.577   4.076
61435SOL     OW86143  13.867  12.330   1.311
61435SOL    HW186144  13.906  12.260   1.259
61435SOL    HW286145  13.934  12.350   1.377
61436SOL     OW86146  14.843   9.061   1.924
61436SOL    HW186147  14.852   9.119   1.849
61436SOL    HW286148  14.813   9.118   1.995
61437SOL     OW86149   4.730  13.674  14.188
61437SOL    HW186150   4.809  13.643  14.144
61437SOL    HW286151   4.665  13.606  14.171
61438SOL     OW86152  13.870   6.717   8.609
61438SOL    HW186153  13.836   6.799   8.646
61438SOL    HW286154  13.797   6.681   8.560
61439SOL     OW86155  10.132   9.577   1.248
61439SOL    HW186156  10.117   9.603   1.339
61439SOL    HW286157  10.194   9.505   1.254
61440SOL     OW86158   3.376   3.110   6.555
61440SOL    HW186159   3.391   3.205   6.558
61440SOL    HW286160   3.403   3.084   6.467
61441SOL     OW86161   4.853   4.174   2.566
61441SOL    HW186162   4.914   4.100   2.567
61441SOL    HW286163   4.790   4.152   2.498
61442SOL     OW86164   0.059   5.299   6.119
61442SOL    HW186165   0.139   5.251   6.099
61442SOL    HW286166  14.862   5.244   6.086
61443SOL     OW86167   3.010   9.946  12.628
61443SOL    HW186168   3.067  10.021  12.614
61443SOL    HW286169   3.028   9.888  12.555
61444SOL     OW86170  12.757  13.440   0.449
61444SOL    HW186171  12.678  13.405   0.408
61444SOL    HW286172  12.782  13.514   0.394
61445SOL     OW86173   8.153  12.640   1.466
61445SOL    HW186174   8.181  12.606   1.551
61445SOL    HW286175   8.183  12.730   1.465
61446SOL     OW86176   5.244   0.200   1.254
61446SOL    HW186177   5.166   0.246   1.285
61446SOL    HW286178   5.231   0.109   1.280
61447SOL     OW86179   5.867  10.288   1.306
61447SOL    HW186180   5.823  10.204   1.318
61447SOL    HW286181   5.944  10.267   1.253
61448SOL     OW86182   0.031   3.037   4.512
61448SOL    HW186183   0.000   3.124   4.486
61448SOL    HW286184   0.029   2.986   4.431
61449SOL     OW86185   9.002  13.914   5.780
61449SOL    HW186186   9.090  13.904   5.743
61449SOL    HW286187   8.970  13.997   5.743
61450SOL     OW86188  10.893   9.074   7.340
61450SOL    HW186189  10.831   9.115   7.281
61450SOL    HW286190  10.978   9.107   7.312
61451SOL     OW86191  10.634   5.303   1.178
61451SOL    HW186192  10.662   5.322   1.267
61451SOL    HW286193  10.703   5.246   1.143
61452SOL     OW86194   6.479   6.807  11.556
61452SOL    HW186195   6.536   6.884  11.557
61452SOL    HW286196   6.417   6.822  11.628
61453SOL     OW86197   5.026  12.820   6.142
61453SOL    HW186198   5.068  12.748   6.095
61453SOL    HW286199   4.980  12.779   6.215
61454SOL     OW86200   3.875   0.502   3.998
61454SOL    HW186201   3.845   0.593   4.003
61454SOL    HW286202   3.799   0.450   4.026
61455SOL     OW86203   1.531   6.578   2.223
61455SOL    HW186204   1.530   6.482   2.227
61455SOL    HW286205   1.623   6.602   2.233
61456SOL     OW86206   9.807   8.439  13.677
61456SOL    HW186207   9.780   8.369  13.618
61456SOL    HW286208   9.900   8.451  13.658
61457SOL     OW86209   2.278   2.398  10.299
61457SOL    HW186210   2.286   2.438  10.385
61457SOL    HW286211   2.367   2.368  10.278
61458SOL     OW86212   1.603   9.757   7.577
61458SOL    HW186213   1.588   9.788   7.667
61458SOL    HW286214   1.642   9.831   7.532
61459SOL     OW86215   3.573   3.215   5.346
61459SOL    HW186216   3.597   3.274   5.275
61459SOL    HW286217   3.584   3.267   5.425
61460SOL     OW86218   6.510   2.207   2.329
61460SOL    HW186219   6.435   2.196   2.270
61460SOL    HW286220   6.476   2.188   2.416
61461SOL     OW86221   1.878  10.129   8.263
61461SOL    HW186222   1.957  10.175   8.234
61461SOL    HW286223   1.840  10.186   8.329
61462SOL     OW86224   4.145  12.310  12.658
61462SOL    HW186225   4.215  12.338  12.718
61462SOL    HW286226   4.064  12.332  12.703
61463SOL     OW86227  11.732   7.390   1.414
61463SOL    HW186228  11.821   7.360   1.397
61463SOL    HW286229  11.691   7.319   1.462
61464SOL     OW86230   6.851  12.914   3.696
61464SOL    HW186231   6.844  12.843   3.631
61464SOL    HW286232   6.761  12.927   3.726
61465SOL     OW86233   4.739   3.985   7.469
61465SOL    HW186234   4.688   4.064   7.455
61465SOL    HW286235   4.711   3.952   7.554
61466SOL     OW86236  12.266   0.845   3.947
61466SOL    HW186237  12.294   0.924   3.900
61466SOL    HW286238  12.174   0.862   3.969
61467SOL     OW86239   0.471  12.873   7.993
61467SOL    HW186240   0.515  12.815   8.055
61467SOL    HW286241   0.510  12.959   8.010
61468SOL     OW86242   2.376   8.686   4.843
61468SOL    HW186243   2.336   8.686   4.756
61468SOL    HW286244   2.458   8.734   4.832
61469SOL     OW86245   0.373  14.061   6.684
61469SOL    HW186246   0.396  13.982   6.635
61469SOL    HW286247   0.338  14.028   6.767
61470SOL     OW86248   3.436   5.579   9.387
61470SOL    HW186249   3.356   5.526   9.382
61470SOL    HW286250   3.501   5.521   9.425
61471SOL     OW86251  11.459  11.378  10.954
61471SOL    HW186252  11.484  11.327  11.031
61471SOL    HW286253  11.498  11.464  10.968
61472SOL     OW86254   4.682   2.548  10.148
61472SOL    HW186255   4.682   2.533  10.054
61472SOL    HW286256   4.707   2.464  10.186
61473SOL     OW86257   8.311   5.946   4.349
61473SOL    HW186258   8.280   6.032   4.322
61473SOL    HW286259   8.233   5.903   4.385
61474SOL     OW86260  11.255   7.024   9.349
61474SOL    HW186261  11.281   7.110   9.317
61474SOL    HW286262  11.197   7.041   9.423
61475SOL     OW86263   4.837  10.977   5.633
61475SOL    HW186264   4.773  11.048   5.632
61475SOL    HW286265   4.920  11.019   5.657
61476SOL     OW86266   6.137   2.425  11.322
61476SOL    HW186267   6.109   2.369  11.249
61476SOL    HW286268   6.083   2.503  11.315
61477SOL     OW86269  12.882   2.051   4.058
61477SOL    HW186270  12.893   2.002   4.140
61477SOL    HW286271  12.819   1.999   4.008
61478SOL     OW86272   8.024  13.375  10.988
61478SOL    HW186273   8.045  13.345  10.900
61478SOL    HW286274   7.959  13.444  10.974
61479SOL     OW86275   1.660  14.482  11.103
61479SOL    HW186276   1.644  14.532  11.022
61479SOL    HW286277   1.704  14.403  11.074
61480SOL     OW86278   1.823  14.276   5.610
61480SOL    HW186279   1.824  14.371   5.627
61480SOL    HW286280   1.916  14.252   5.607
61481SOL     OW86281  10.534   1.360   6.467
61481SOL    HW186282  10.558   1.314   6.548
61481SOL    HW286283  10.618   1.389   6.431
61482SOL     OW86284  14.568   9.326  12.586
61482SOL    HW186285  14.607   9.321  12.674
61482SOL    HW286286  14.531   9.414  12.581
61483SOL     OW86287  14.453   4.335   9.750
61483SOL    HW186288  14.468   4.270   9.680
61483SOL    HW286289  14.467   4.419   9.707
61484SOL     OW86290   4.229   1.556   8.473
61484SOL    HW186291   4.250   1.509   8.553
61484SOL    HW286292   4.263   1.501   8.402
61485SOL     OW86293   7.575   6.471   8.451
61485SOL    HW186294   7.624   6.431   8.379
61485SOL    HW286295   7.642   6.503   8.511
61486SOL     OW86296   2.305   9.858  13.081
61486SOL    HW186297   2.327   9.845  12.989
61486SOL    HW286298   2.295   9.953  13.090
61487SOL     OW86299  13.945   4.211  13.113
61487SOL    HW186300  14.011   4.214  13.183
61487SOL    HW286301  13.985   4.258  13.040
61488SOL     OW86302  10.075   8.405   8.987
61488SOL    HW186303  10.049   8.464   8.916
61488SOL    HW286304  10.051   8.452   9.067
61489SOL     OW86305  13.805  10.919   2.966
61489SOL    HW186306  13.791  10.991   3.027
61489SOL    HW286307  13.844  10.959   2.889
61490SOL     OW86308   5.750  10.105   3.655
61490SOL    HW186309   5.805  10.062   3.590
61490SOL    HW286310   5.767  10.057   3.736
61491SOL     OW86311  10.751   6.836   2.736
61491SOL    HW186312  10.756   6.805   2.826
61491SOL    HW286313  10.752   6.932   2.743
61492SOL     OW86314  13.777  12.749   7.744
61492SOL    HW186315  13.803  12.753   7.836
61492SOL    HW286316  13.848  12.701   7.701
61493SOL     OW86317  10.994   5.556  14.172
61493SOL    HW186318  10.992   5.468  14.134
61493SOL    HW286319  11.087   5.580  14.173
61494SOL     OW86320   1.736   5.919  13.269
61494SOL    HW186321   1.642   5.929  13.257
61494SOL    HW286322   1.745   5.896  13.362
61495SOL     OW86323  12.255   8.807  12.132
61495SOL    HW186324  12.206   8.876  12.087
61495SOL    HW286325  12.254   8.833  12.224
61496SOL     OW86326   7.307  11.875   7.484
61496SOL    HW186327   7.368  11.937   7.526
61496SOL    HW286328   7.342  11.865   7.396
61497SOL     OW86329  13.697  13.996   8.869
61497SOL    HW186330  13.759  13.944   8.920
61497SOL    HW286331  13.651  14.049   8.934
61498SOL     OW86332   8.271  13.498   6.155
61498SOL    HW186333   8.287  13.500   6.249
61498SOL    HW286334   8.176  13.495   6.147
61499SOL     OW86335   8.763   0.700  11.730
61499SOL    HW186336   8.709   0.693  11.651
61499SOL    HW286337   8.809   0.783  11.720
61500SOL     OW86338   7.371  12.541  12.541
61500SOL    HW186339   7.363  12.623  12.590
61500SOL    HW286340   7.418  12.483  12.601
61501SOL     OW86341  13.848   2.837   0.003
61501SOL    HW186342  13.883   2.911  14.828
61501SOL    HW286343  13.758   2.827  14.844
61502SOL     OW86344  13.964  11.544  13.846
61502SOL    HW186345  14.026  11.492  13.795
61502SOL    HW286346  14.007  11.557  13.931
61503SOL     OW86347  11.020   1.829  10.262
61503SOL    HW186348  10.975   1.859  10.341
61503SOL    HW286349  11.081   1.762  10.293
61504SOL     OW86350   7.278   6.980  10.841
61504SOL    HW186351   7.316   6.964  10.754
61504SOL    HW286352   7.222   6.904  10.856
61505SOL     OW86353   0.996   6.406  12.781
61505SOL    HW186354   0.937   6.394  12.856
61505SOL    HW286355   1.046   6.485  12.802
61506SOL     OW86356  10.473   7.753   6.502
61506SOL    HW186357  10.438   7.834   6.540
61506SOL    HW286358  10.567   7.758   6.516
61507SOL     OW86359   2.966  13.956  13.820
61507SOL    HW186360   2.987  14.049  13.808
61507SOL    HW286361   3.045  13.919  13.859
61508SOL     OW86362  10.628  13.117   1.238
61508SOL    HW186363  10.641  13.044   1.178
61508SOL    HW286364  10.542  13.101   1.277
61509SOL     OW86365  14.170  14.803   7.133
61509SOL    HW186366  14.264  14.815   7.148
61509SOL    HW286367  14.149  14.865   7.064
61510SOL     OW86368   6.612   2.034  12.871
61510SOL    HW186369   6.602   1.945  12.907
61510SOL    HW286370   6.564   2.032  12.788
61511SOL     OW86371  12.738  12.875   0.763
61511SOL    HW186372  12.660  12.890   0.711
61511SOL    HW286373  12.809  12.914   0.712
61512SOL     OW86374   0.503  12.901   7.341
61512SOL    HW186375   0.539  12.989   7.356
61512SOL    HW286376   0.426  12.916   7.287
61513SOL     OW86377   2.881   6.755   7.312
61513SOL    HW186378   2.871   6.758   7.407
61513SOL    HW286379   2.920   6.669   7.296
61514SOL     OW86380   2.558  12.114  13.466
61514SOL    HW186381   2.532  12.035  13.418
61514SOL    HW286382   2.494  12.121  13.536
61515SOL     OW86383   2.660  13.370  14.711
61515SOL    HW186384   2.729  13.419  14.665
61515SOL    HW286385   2.649  13.291  14.659
61516SOL     OW86386  10.919   0.862   1.260
61516SOL    HW186387  10.824   0.869   1.262
61516SOL    HW286388  10.939   0.799   1.330
61517SOL     OW86389  14.113  12.258   0.642
61517SOL    HW186390  14.136  12.174   0.683
61517SOL    HW286391  14.173  12.321   0.682
61518SOL     OW86392   6.952  10.354   8.725
61518SOL    HW186393   7.015  10.393   8.664
61518SOL    HW286394   6.975  10.390   8.810
61519SOL     OW86395   1.700   8.701  14.393
61519SOL    HW186396   1.633   8.769  14.385
61519SOL    HW286397   1.683   8.643  14.318
61520SOL     OW86398  11.932   5.963   0.342
61520SOL    HW186399  11.855   5.957   0.399
61520SOL    HW286400  11.898   6.003   0.262
61521SOL     OW86401   2.799   0.109   5.612
61521SOL    HW186402   2.792   0.015   5.628
61521SOL    HW286403   2.771   0.150   5.694
61522SOL     OW86404  12.833  13.590   8.089
61522SOL    HW186405  12.819  13.683   8.104
61522SOL    HW286406  12.770  13.546   8.147
61523SOL     OW86407  11.919  11.745   4.503
61523SOL    HW186408  11.868  11.819   4.535
61523SOL    HW286409  11.879  11.669   4.546
61524SOL     OW86410   9.509   5.206   1.181
61524SOL    HW186411   9.582   5.198   1.243
61524SOL    HW286412   9.459   5.281   1.212
61525SOL     OW86413   2.411  12.577  14.708
61525SOL    HW186414   2.368  12.551  14.790
61525SOL    HW286415   2.354  12.646  14.673
61526SOL     OW86416  13.610   3.733   6.680
61526SOL    HW186417  13.524   3.767   6.656
61526SOL    HW286418  13.592   3.659   6.737
61527SOL     OW86419   6.434   7.219   0.232
61527SOL    HW186420   6.417   7.146   0.291
61527SOL    HW286421   6.508   7.190   0.178
61528SOL     OW86422  14.091  14.285   7.420
61528SOL    HW186423  14.183  14.294   7.443
61528SOL    HW286424  14.091  14.278   7.324
61529SOL     OW86425  13.454  10.822   5.907
61529SOL    HW186426  13.477  10.915   5.915
61529SOL    HW286427  13.538  10.776   5.910
61530SOL     OW86428  10.687   1.520  10.784
61530SOL    HW186429  10.759   1.466  10.818
61530SOL    HW286430  10.705   1.528  10.690
61531SOL     OW86431   6.398   6.766   9.364
61531SOL    HW186432   6.355   6.812   9.435
61531SOL    HW286433   6.487   6.803   9.361
61532SOL     OW86434  11.149   8.228  12.367
61532SOL    HW186435  11.064   8.264  12.342
61532SOL    HW286436  11.184   8.290  12.431
61533SOL     OW86437  12.859   5.683   1.387
61533SOL    HW186438  12.771   5.719   1.399
61533SOL    HW286439  12.893   5.729   1.311
61534SOL     OW86440   7.917   0.459   2.630
61534SOL    HW186441   7.951   0.459   2.540
61534SOL    HW286442   7.824   0.440   2.620
61535SOL     OW86443   0.303   0.703  10.995
61535SOL    HW186444   0.394   0.732  11.007
61535SOL    HW286445   0.269   0.695  11.084
61536SOL     OW86446   2.394  11.787   7.325
61536SOL    HW186447   2.377  11.764   7.416
61536SOL    HW286448   2.365  11.877   7.316
61537SOL     OW86449  11.968   0.357   1.686
61537SOL    HW186450  11.922   0.291   1.635
61537SOL    HW286451  11.899   0.414   1.720
61538SOL     OW86452  14.127   8.597   6.454
61538SOL    HW186453  14.130   8.689   6.480
61538SOL    HW286454  14.219   8.571   6.446
61539SOL     OW86455   6.191   1.825  14.067
61539SOL    HW186456   6.128   1.874  14.014
61539SOL    HW286457   6.277   1.860  14.042
61540SOL     OW86458   3.785  12.196  10.248
61540SOL    HW186459   3.792  12.278  10.296
61540SOL    HW286460   3.695  12.167  10.261
61541SOL     OW86461  14.401   2.013  12.439
61541SOL    HW186462  14.388   2.087  12.498
61541SOL    HW286463  14.356   1.940  12.480
61542SOL     OW86464   1.385   2.178   0.419
61542SOL    HW186465   1.443   2.253   0.431
61542SOL    HW286466   1.442   2.106   0.392
61543SOL     OW86467   2.396   2.920  13.673
61543SOL    HW186468   2.301   2.922  13.659
61543SOL    HW286469   2.414   2.831  13.702
61544SOL     OW86470  13.369   9.684   6.898
61544SOL    HW186471  13.287   9.720   6.866
61544SOL    HW286472  13.343   9.612   6.955
61545SOL     OW86473   5.271  14.373   0.721
61545SOL    HW186474   5.330  14.408   0.653
61545SOL    HW286475   5.185  14.376   0.680
61546SOL     OW86476  10.754   0.064  11.069
61546SOL    HW186477  10.692   0.025  11.131
61546SOL    HW286478  10.840   0.033  11.097
61547SOL     OW86479  10.801   3.961  13.231
61547SOL    HW186480  10.766   3.888  13.180
61547SOL    HW286481  10.848   3.919  13.303
61548SOL     OW86482   5.763  14.871   6.094
61548SOL    HW186483   5.738  14.870   6.001
61548SOL    HW286484   5.682   0.020   6.140
61549SOL     OW86485   6.192   1.564  12.520
61549SOL    HW186486   6.218   1.497  12.583
61549SOL    HW286487   6.256   1.556  12.449
61550SOL     OW86488  10.607   0.340   3.389
61550SOL    HW186489  10.696   0.320   3.361
61550SOL    HW286490  10.595   0.288   3.469
61551SOL     OW86491   9.075   9.322   3.708
61551SOL    HW186492   9.074   9.269   3.628
61551SOL    HW286493   9.141   9.280   3.763
61552SOL     OW86494   1.469   7.783   2.966
61552SOL    HW186495   1.431   7.768   2.880
61552SOL    HW286496   1.475   7.878   2.974
61553SOL     OW86497   0.613  13.756   7.466
61553SOL    HW186498   0.671  13.828   7.493
61553SOL    HW286499   0.648  13.679   7.511
61554SOL     OW86500   8.783   5.540  10.476
61554SOL    HW186501   8.814   5.618  10.522
61554SOL    HW286502   8.862   5.504  10.434
61555SOL     OW86503  12.431  13.975  11.627
61555SOL    HW186504  12.463  13.885  11.625
61555SOL    HW286505  12.486  14.021  11.563
61556SOL     OW86506  13.767  12.670  12.302
61556SOL    HW186507  13.680  12.703  12.281
61556SOL    HW286508  13.825  12.746  12.293
61557SOL     OW86509   8.490   2.245   2.165
61557SOL    HW186510   8.479   2.339   2.148
61557SOL    HW286511   8.417   2.222   2.223
61558SOL     OW86512  14.855   7.010   4.217
61558SOL    HW186513  14.848   6.916   4.228
61558SOL    HW286514   0.052   7.021   4.153
61559SOL     OW86515   4.172   9.364   6.615
61559SOL    HW186516   4.172   9.285   6.561
61559SOL    HW286517   4.233   9.345   6.686
61560SOL     OW86518  13.094   8.449  13.722
61560SOL    HW186519  13.121   8.513  13.788
61560SOL    HW286520  13.040   8.498  13.660
61561SOL     OW86521   9.168   8.022  12.906
61561SOL    HW186522   9.168   7.927  12.905
61561SOL    HW286523   9.081   8.046  12.937
61562SOL     OW86524   6.481  12.287  12.901
61562SOL    HW186525   6.553  12.313  12.959
61562SOL    HW286526   6.420  12.361  12.904
61563SOL     OW86527  14.425  12.429  10.229
61563SOL    HW186528  14.428  12.456  10.321
61563SOL    HW286529  14.516  12.427  10.201
61564SOL     OW86530   0.184   3.075  14.659
61564SOL    HW186531   0.148   3.120  14.582
61564SOL    HW286532   0.277   3.066  14.640
61565SOL     OW86533   1.601   9.888  11.582
61565SOL    HW186534   1.682   9.862  11.538
61565SOL    HW286535   1.532   9.848  11.529
61566SOL     OW86536   8.750   7.527  11.093
61566SOL    HW186537   8.773   7.434  11.081
61566SOL    HW286538   8.766   7.544  11.186
61567SOL     OW86539  11.436  13.129   9.733
61567SOL    HW186540  11.430  13.217   9.771
61567SOL    HW286541  11.387  13.135   9.651
61568SOL     OW86542   4.185   0.588  10.986
61568SOL    HW186543   4.267   0.633  10.965
61568SOL    HW286544   4.194   0.503  10.945
61569SOL     OW86545  11.036   5.709   6.227
61569SOL    HW186546  11.128   5.725   6.208
61569SOL    HW286547  10.989   5.739   6.149
61570SOL     OW86548   5.421   1.575   3.239
61570SOL    HW186549   5.461   1.489   3.245
61570SOL    HW286550   5.349   1.565   3.176
61571SOL     OW86551  11.518  14.380   8.671
61571SOL    HW186552  11.579  14.315   8.637
61571SOL    HW286553  11.469  14.410   8.594
61572SOL     OW86554  10.974  11.109  14.719
61572SOL    HW186555  11.020  11.192  14.707
61572SOL    HW286556  10.883  11.134  14.737
61573SOL     OW86557  14.401  10.426   0.199
61573SOL    HW186558  14.398  10.402   0.106
61573SOL    HW286559  14.474  10.487   0.205
61574SOL     OW86560   0.927   3.102  11.660
61574SOL    HW186561   0.848   3.083  11.608
61574SOL    HW286562   0.923   3.041  11.733
61575SOL     OW86563  14.224   8.889   2.792
61575SOL    HW186564  14.300   8.943   2.770
61575SOL    HW286565  14.150   8.933   2.751
61576SOL     OW86566  14.870   8.349   6.458
61576SOL    HW186567   0.051   8.428   6.451
61576SOL    HW286568   0.030   8.303   6.535
61577SOL     OW86569  14.416   1.463  12.916
61577SOL    HW186570  14.422   1.382  12.966
61577SOL    HW286571  14.334   1.454  12.866
61578SOL     OW86572  11.272  13.082   6.538
61578SOL    HW186573  11.192  13.033   6.519
61578SOL    HW286574  11.268  13.099   6.632
61579SOL     OW86575   9.780   0.722  13.729
61579SOL    HW186576   9.718   0.746  13.660
61579SOL    HW286577   9.862   0.763  13.704
61580SOL     OW86578   9.861   6.394  10.177
61580SOL    HW186579   9.933   6.389  10.114
61580SOL    HW286580   9.790   6.345  10.137
61581SOL     OW86581   7.541   6.608  13.820
61581SOL    HW186582   7.460   6.576  13.859
61581SOL    HW286583   7.514   6.647  13.736
61582SOL     OW86584   9.805  11.963   0.825
61582SOL    HW186585   9.753  12.010   0.760
61582SOL    HW286586   9.888  11.945   0.781
61583SOL     OW86587   9.595   6.094   4.384
61583SOL    HW186588   9.643   6.096   4.301
61583SOL    HW286589   9.651   6.043   4.442
61584SOL     OW86590   7.585   7.732  14.387
61584SOL    HW186591   7.583   7.822  14.354
61584SOL    HW286592   7.624   7.681  14.316
61585SOL     OW86593  14.569   7.204   7.217
61585SOL    HW186594  14.535   7.263   7.284
61585SOL    HW286595  14.638   7.155   7.262
61586SOL     OW86596  10.124   9.808   8.368
61586SOL    HW186597  10.219   9.797   8.364
61586SOL    HW286598  10.110   9.900   8.346
61587SOL     OW86599  14.124   9.832  10.495
61587SOL    HW186600  14.086   9.919  10.483
61587SOL    HW286601  14.167   9.812  10.412
61588SOL     OW86602   6.611  14.036   0.474
61588SOL    HW186603   6.630  14.000   0.387
61588SOL    HW286604   6.628  13.964   0.534
61589SOL     OW86605   9.847   6.663   5.835
61589SOL    HW186606   9.837   6.668   5.930
61589SOL    HW286607   9.792   6.734   5.802
61590SOL     OW86608   3.117   9.548  13.829
61590SOL    HW186609   3.125   9.453  13.821
61590SOL    HW286610   3.062   9.561  13.906
61591SOL     OW86611  10.223   1.839   4.418
61591SOL    HW186612  10.170   1.765   4.389
61591SOL    HW286613  10.313   1.812   4.402
61592SOL     OW86614   1.043   8.740  14.648
61592SOL    HW186615   0.957   8.700  14.664
61592SOL    HW286616   1.061   8.789  14.728
61593SOL     OW86617   6.740   5.355   1.218
61593SOL    HW186618   6.649   5.354   1.187
61593SOL    HW286619   6.766   5.447   1.211
61594SOL     OW86620  12.764  13.286   6.137
61594SOL    HW186621  12.818  13.358   6.171
61594SOL    HW286622  12.812  13.255   6.060
61595SOL     OW86623   7.815  10.270   4.135
61595SOL    HW186624   7.850  10.359   4.136
61595SOL    HW286625   7.863  10.225   4.205
61596SOL     OW86626   5.327   7.416   0.693
61596SOL    HW186627   5.247   7.460   0.663
61596SOL    HW286628   5.312   7.323   0.674
61597SOL     OW86629  14.805  10.997   0.986
61597SOL    HW186630  14.734  11.060   0.975
61597SOL    HW286631  14.761  10.912   0.987
61598SOL     OW86632   0.311   2.812  10.529
61598SOL    HW186633   0.252   2.767  10.468
61598SOL    HW286634   0.271   2.799  10.615
61599SOL     OW86635  14.083  12.960   4.907
61599SOL    HW186636  14.166  12.945   4.953
61599SOL    HW286637  14.067  12.878   4.860
61600SOL     OW86638  10.977  11.445   3.150
61600SOL    HW186639  10.892  11.401   3.151
61600SOL    HW286640  10.968  11.518   3.211
61601SOL     OW86641   9.647   2.965   1.113
61601SOL    HW186642   9.735   2.959   1.150
61601SOL    HW286643   9.645   2.899   1.045
61602SOL     OW86644   3.910   7.587  12.243
61602SOL    HW186645   3.938   7.497  12.225
61602SOL    HW286646   3.991   7.637  12.245
61603SOL     OW86647   8.544   3.422  10.604
61603SOL    HW186648   8.453   3.436  10.628
61603SOL    HW286649   8.576   3.508  10.576
61604SOL     OW86650   7.525   8.724   2.188
61604SOL    HW186651   7.547   8.633   2.165
61604SOL    HW286652   7.499   8.719   2.280
61605SOL     OW86653   5.453   7.028   5.604
61605SOL    HW186654   5.487   7.075   5.528
61605SOL    HW286655   5.512   7.052   5.676
61606SOL     OW86656   1.696   1.896  12.476
61606SOL    HW186657   1.705   1.937  12.561
61606SOL    HW286658   1.757   1.822  12.478
61607SOL     OW86659   7.696   2.747   7.815
61607SOL    HW186660   7.704   2.842   7.809
61607SOL    HW286661   7.757   2.722   7.885
61608SOL     OW86662   7.556   0.197   1.650
61608SOL    HW186663   7.581   0.107   1.627
61608SOL    HW286664   7.465   0.204   1.622
61609SOL     OW86665   9.841   8.459   1.395
61609SOL    HW186666   9.819   8.461   1.488
61609SOL    HW286667   9.899   8.535   1.382
61610SOL     OW86668   7.654   4.589  12.912
61610SOL    HW186669   7.644   4.648  12.837
61610SOL    HW286670   7.682   4.506  12.873
61611SOL     OW86671   3.450  14.076   0.929
61611SOL    HW186672   3.455  14.166   0.961
61611SOL    HW286673   3.541  14.050   0.916
61612SOL     OW86674   9.249   2.842  10.903
61612SOL    HW186675   9.232   2.907  10.970
61612SOL    HW286676   9.182   2.775  10.915
61613SOL     OW86677   9.486   5.243  13.143
61613SOL    HW186678   9.483   5.156  13.182
61613SOL    HW286679   9.529   5.230  13.058
61614SOL     OW86680   7.240   0.330   6.364
61614SOL    HW186681   7.212   0.365   6.449
61614SOL    HW286682   7.163   0.337   6.308
61615SOL     OW86683   5.596   7.724  14.637
61615SOL    HW186684   5.624   7.710  14.547
61615SOL    HW286685   5.545   7.646  14.659
61616SOL     OW86686   4.831  14.708  12.766
61616SOL    HW186687   4.860  14.792  12.799
61616SOL    HW286688   4.808  14.658  12.844
61617SOL     OW86689   7.135  10.499  10.028
61617SOL    HW186690   7.052  10.479  10.070
61617SOL    HW286691   7.179  10.560  10.087
61618SOL     OW86692  12.841   6.493   5.438
61618SOL    HW186693  12.921   6.442   5.423
61618SOL    HW286694  12.776   6.428   5.462
61619SOL     OW86695   6.818   2.070   8.189
61619SOL    HW186696   6.807   2.020   8.109
61619SOL    HW286697   6.755   2.032   8.251
61620SOL     OW86698   4.874   9.160   3.400
61620SOL    HW186699   4.785   9.176   3.367
61620SOL    HW286700   4.906   9.086   3.349
61621SOL     OW86701  13.809   1.789   4.373
61621SOL    HW186702  13.722   1.748   4.365
61621SOL    HW286703  13.832   1.778   4.465
61622SOL     OW86704   8.794   7.284   7.115
61622SOL    HW186705   8.739   7.328   7.180
61622SOL    HW286706   8.840   7.354   7.069
61623SOL     OW86707   5.896  11.007  14.311
61623SOL    HW186708   5.827  10.944  14.291
61623SOL    HW286709   5.895  11.068  14.237
61624SOL     OW86710   9.113  11.513  13.219
61624SOL    HW186711   9.171  11.437  13.221
61624SOL    HW286712   9.150  11.571  13.152
61625SOL     OW86713   2.721   6.513  13.313
61625SOL    HW186714   2.640   6.464  13.305
61625SOL    HW286715   2.760   6.512  13.226
61626SOL     OW86716  14.339   9.895   2.098
61626SOL    HW186717  14.345   9.854   2.185
61626SOL    HW286718  14.405   9.965   2.101
61627SOL     OW86719  13.633   5.910  13.881
61627SOL    HW186720  13.680   5.834  13.847
61627SOL    HW286721  13.635   5.973  13.809
61628SOL     OW86722   7.192   8.552  10.332
61628SOL    HW186723   7.161   8.622  10.274
61628SOL    HW286724   7.257   8.506  10.279
61629SOL     OW86725   7.120   0.692   1.675
61629SOL    HW186726   7.169   0.731   1.747
61629SOL    HW286727   7.093   0.766   1.621
61630SOL     OW86728   7.104   7.591   9.545
61630SOL    HW186729   7.113   7.501   9.579
61630SOL    HW286730   7.108   7.581   9.450
61631SOL     OW86731   2.871   4.098   7.499
61631SOL    HW186732   2.966   4.111   7.501
61631SOL    HW286733   2.859   4.003   7.509
61632SOL     OW86734   3.951   6.968   2.687
61632SOL    HW186735   4.000   6.919   2.621
61632SOL    HW286736   3.989   6.939   2.771
61633SOL     OW86737   9.169  14.789  11.714
61633SOL    HW186738   9.116  14.836  11.779
61633SOL    HW286739   9.117  14.791  11.634
61634SOL     OW86740   3.382   9.250   2.482
61634SOL    HW186741   3.472   9.276   2.502
61634SOL    HW286742   3.392   9.167   2.434
61635SOL     OW86743  14.784   4.661   1.688
61635SOL    HW186744  14.730   4.587   1.659
61635SOL    HW286745  14.742   4.738   1.648
61636SOL     OW86746   7.574  11.096   6.998
61636SOL    HW186747   7.582  11.097   6.903
61636SOL    HW286748   7.574  11.003   7.021
61637SOL     OW86749   3.828  11.450   3.323
61637SOL    HW186750   3.787  11.517   3.379
61637SOL    HW286751   3.811  11.480   3.234
61638SOL     OW86752   8.839   1.962   4.470
61638SOL    HW186753   8.930   1.933   4.462
61638SOL    HW286754   8.845   2.054   4.493
61639SOL     OW86755   1.456   4.424  11.904
61639SOL    HW186756   1.455   4.440  11.999
61639SOL    HW286757   1.485   4.507  11.866
61640SOL     OW86758   6.602   9.901   9.593
61640SOL    HW186759   6.657   9.947   9.530
61640SOL    HW286760   6.550   9.969   9.635
61641SOL     OW86761   5.604   2.164   7.765
61641SOL    HW186762   5.571   2.209   7.687
61641SOL    HW286763   5.699   2.173   7.758
61642SOL     OW86764   3.821   2.239   1.644
61642SOL    HW186765   3.851   2.327   1.668
61642SOL    HW286766   3.726   2.240   1.661
61643SOL     OW86767  10.103   9.422   5.912
61643SOL    HW186768  10.160   9.495   5.938
61643SOL    HW286769  10.161   9.346   5.910
61644SOL     OW86770   0.393   1.167  10.111
61644SOL    HW186771   0.487   1.158  10.128
61644SOL    HW286772   0.381   1.259  10.090
61645SOL     OW86773   6.648  10.738  12.392
61645SOL    HW186774   6.666  10.829  12.367
61645SOL    HW286775   6.657  10.737  12.487
61646SOL     OW86776  14.826   8.187   5.930
61646SOL    HW186777  14.871   8.245   5.991
61646SOL    HW286778   0.006   8.108   5.928
61647SOL     OW86779   9.511  12.619  13.179
61647SOL    HW186780   9.592  12.572  13.158
61647SOL    HW286781   9.525  12.707  13.146
61648SOL     OW86782   7.841   9.406  12.226
61648SOL    HW186783   7.862   9.457  12.147
61648SOL    HW286784   7.771   9.347  12.197
61649SOL     OW86785  14.638   2.431   8.296
61649SOL    HW186786  14.616   2.495   8.365
61649SOL    HW286787  14.566   2.368   8.297
61650SOL     OW86788   6.193   5.847  14.300
61650SOL    HW186789   6.216   5.774  14.243
61650SOL    HW286790   6.119   5.889  14.256
61651SOL     OW86791  12.775   3.437  10.362
61651SOL    HW186792  12.687   3.460  10.330
61651SOL    HW286793  12.812   3.382  10.293
61652SOL     OW86794   3.987   4.141   4.413
61652SOL    HW186795   4.045   4.117   4.486
61652SOL    HW286796   4.014   4.230   4.391
61653SOL     OW86797  10.370  10.895   0.014
61653SOL    HW186798  10.336  10.928   0.097
61653SOL    HW286799  10.387  10.802   0.030
61654SOL     OW86800  11.891   8.272   9.194
61654SOL    HW186801  11.940   8.300   9.117
61654SOL    HW286802  11.814   8.227   9.160
61655SOL     OW86803   9.579   3.316  14.754
61655SOL    HW186804   9.544   3.400  14.723
61655SOL    HW286805   9.602   3.332  14.846
61656SOL     OW86806   8.695   7.574   9.712
61656SOL    HW186807   8.735   7.522   9.781
61656SOL    HW286808   8.768   7.617   9.669
61657SOL     OW86809   9.639  12.713  13.501
61657SOL    HW186810   9.546  12.691  13.512
61657SOL    HW286811   9.681  12.630  13.480
61658SOL     OW86812   7.978   0.116   0.165
61658SOL    HW186813   7.901   0.126   0.222
61658SOL    HW286814   8.052   0.143   0.220
61659SOL     OW86815   3.974  13.298  12.016
61659SOL    HW186816   3.994  13.205  12.022
61659SOL    HW286817   3.953  13.324  12.106
61660SOL     OW86818   1.290   3.880   7.854
61660SOL    HW186819   1.256   3.956   7.808
61660SOL    HW286820   1.361   3.848   7.798
61661SOL     OW86821   6.508  13.207   4.383
61661SOL    HW186822   6.580  13.155   4.422
61661SOL    HW286823   6.458  13.237   4.458
61662SOL     OW86824  11.187  13.789   7.738
61662SOL    HW186825  11.096  13.812   7.756
61662SOL    HW286826  11.233  13.873   7.738
61663SOL     OW86827   3.491   8.635   5.565
61663SOL    HW186828   3.476   8.559   5.621
61663SOL    HW286829   3.506   8.598   5.477
61664SOL     OW86830  13.188   2.248  14.491
61664SOL    HW186831  13.133   2.321  14.464
61664SOL    HW286832  13.129   2.173  14.492
61665SOL     OW86833   5.789  13.305  10.467
61665SOL    HW186834   5.774  13.222  10.423
61665SOL    HW286835   5.756  13.371  10.407
61666SOL     OW86836   3.090   4.257   7.767
61666SOL    HW186837   2.996   4.242   7.774
61666SOL    HW286838   3.128   4.205   7.838
61667SOL     OW86839  10.289  13.663   0.858
61667SOL    HW186840  10.300  13.749   0.818
61667SOL    HW286841  10.271  13.605   0.784
61668SOL     OW86842   0.381  11.380  10.534
61668SOL    HW186843   0.382  11.425  10.618
61668SOL    HW286844   0.341  11.295  10.552
61669SOL     OW86845   1.757  12.182   1.887
61669SOL    HW186846   1.717  12.240   1.952
61669SOL    HW286847   1.693  12.112   1.874
61670SOL     OW86848  13.357  12.256   2.383
61670SOL    HW186849  13.394  12.244   2.471
61670SOL    HW286850  13.263  12.240   2.394
61671SOL     OW86851   7.098   9.134  10.179
61671SOL    HW186852   7.064   9.183  10.253
61671SOL    HW286853   7.034   9.148  10.109
61672SOL     OW86854  10.603  14.192  10.350
61672SOL    HW186855  10.676  14.137  10.381
61672SOL    HW286856  10.646  14.271  10.318
61673SOL     OW86857   4.665  12.739   2.667
61673SOL    HW186858   4.712  12.721   2.585
61673SOL    HW286859   4.693  12.827   2.691
61674SOL     OW86860   4.073  10.788   1.975
61674SOL    HW186861   4.108  10.748   1.895
61674SOL    HW286862   4.145  10.839   2.011
61675SOL     OW86863   7.670   3.633  10.341
61675SOL    HW186864   7.724   3.560  10.312
61675SOL    HW286865   7.729   3.688  10.393
61676SOL     OW86866  13.326   7.681  13.290
61676SOL    HW186867  13.359   7.709  13.376
61676SOL    HW286868  13.281   7.757  13.255
61677SOL     OW86869  10.459  14.805   5.218
61677SOL    HW186870  10.547  14.767   5.209
61677SOL    HW286871  10.444  14.851   5.136
61678SOL     OW86872   2.127   2.238   0.519
61678SOL    HW186873   2.175   2.273   0.444
61678SOL    HW286874   2.152   2.295   0.592
61679SOL     OW86875   0.253  13.009   0.622
61679SOL    HW186876   0.161  13.009   0.596
61679SOL    HW286877   0.251  13.010   0.717
61680SOL     OW86878   3.911  12.324   7.902
61680SOL    HW186879   3.817  12.319   7.883
61680SOL    HW286880   3.931  12.243   7.948
61681SOL     OW86881  12.865  12.250  10.785
61681SOL    HW186882  12.789  12.299  10.816
61681SOL    HW286883  12.932  12.266  10.851
61682SOL     OW86884   3.542   4.413   2.376
61682SOL    HW186885   3.580   4.481   2.433
61682SOL    HW286886   3.552   4.448   2.287
61683SOL     OW86887  10.709  10.002   6.532
61683SOL    HW186888  10.672  10.049   6.458
61683SOL    HW286889  10.641  10.007   6.599
61684SOL     OW86890  10.273   6.339  11.249
61684SOL    HW186891  10.323   6.271  11.205
61684SOL    HW286892  10.200   6.357  11.191
61685SOL     OW86893  11.262   3.721   2.389
61685SOL    HW186894  11.305   3.636   2.400
61685SOL    HW286895  11.249   3.752   2.478
61686SOL     OW86896   9.981   3.056   3.641
61686SOL    HW186897  10.033   3.009   3.706
61686SOL    HW286898   9.940   3.128   3.690
61687SOL     OW86899   0.482  11.253   0.202
61687SOL    HW186900   0.434  11.316   0.256
61687SOL    HW286901   0.431  11.172   0.209
61688SOL     OW86902   8.027   3.811   3.952
61688SOL    HW186903   7.996   3.724   3.930
61688SOL    HW286904   8.108   3.796   4.000
61689SOL     OW86905   9.884  14.647  10.641
61689SOL    HW186906   9.874  14.644  10.545
61689SOL    HW286907   9.867  14.739  10.663
61690SOL     OW86908   0.971   7.756   8.041
61690SOL    HW186909   1.029   7.781   8.113
61690SOL    HW286910   1.029   7.743   7.966
61691SOL     OW86911   4.377  13.966  14.676
61691SOL    HW186912   4.426  13.910  14.616
61691SOL    HW286913   4.333  13.906  14.735
61692SOL     OW86914   4.066   7.325  12.619
61692SOL    HW186915   4.116   7.272  12.681
61692SOL    HW286916   4.100   7.300  12.533
61693SOL     OW86917   1.518  14.258   4.686
61693SOL    HW186918   1.507  14.243   4.780
61693SOL    HW286919   1.611  14.278   4.676
61694SOL     OW86920  11.862  14.570   1.087
61694SOL    HW186921  11.911  14.489   1.081
61694SOL    HW286922  11.773  14.543   1.111
61695SOL     OW86923  13.633  14.398  12.259
61695SOL    HW186924  13.653  14.313  12.221
61695SOL    HW286925  13.597  14.449  12.187
61696SOL     OW86926   4.798   6.141   9.538
61696SOL    HW186927   4.817   6.204   9.468
61696SOL    HW286928   4.868   6.154   9.601
61697SOL     OW86929  11.060  12.945   1.464
61697SOL    HW186930  11.111  13.005   1.519
61697SOL    HW286931  10.972  12.983   1.463
61698SOL     OW86932   9.717  11.791   1.011
61698SOL    HW186933   9.782  11.732   0.972
61698SOL    HW286934   9.719  11.869   0.956
61699SOL     OW86935   2.578  13.675  14.522
61699SOL    HW186936   2.611  13.765  14.513
61699SOL    HW286937   2.508  13.681  14.587
61700SOL     OW86938   0.904   1.272   1.907
61700SOL    HW186939   0.948   1.261   1.990
61700SOL    HW286940   0.909   1.186   1.865
61701SOL     OW86941   4.920   8.023   0.655
61701SOL    HW186942   4.924   8.106   0.608
61701SOL    HW286943   4.828   7.998   0.653
61702SOL     OW86944   4.577   2.017   1.554
61702SOL    HW186945   4.581   1.940   1.496
61702SOL    HW286946   4.664   2.057   1.546
61703SOL     OW86947   2.862  10.920   7.533
61703SOL    HW186948   2.898  10.986   7.474
61703SOL    HW286949   2.920  10.844   7.522
61704SOL     OW86950  12.293   9.152  13.613
61704SOL    HW186951  12.270   9.244  13.624
61704SOL    HW286952  12.215   9.112  13.575
61705SOL     OW86953   1.200  10.106   9.713
61705SOL    HW186954   1.105  10.118   9.717
61705SOL    HW286955   1.232  10.139   9.797
61706SOL     OW86956   6.159   0.719  11.210
61706SOL    HW186957   6.173   0.715  11.115
61706SOL    HW286958   6.166   0.812  11.232
61707SOL     OW86959  14.581   8.912  14.504
61707SOL    HW186960  14.578   8.988  14.563
61707SOL    HW286961  14.532   8.940  14.427
61708SOL     OW86962   4.179  13.921   5.956
61708SOL    HW186963   4.145  13.868   6.028
61708SOL    HW286964   4.135  14.006   5.966
61709SOL     OW86965   3.561   9.106   5.036
61709SOL    HW186966   3.532   9.030   5.087
61709SOL    HW286967   3.494   9.173   5.052
61710SOL     OW86968  12.386  12.781   2.589
61710SOL    HW186969  12.425  12.729   2.518
61710SOL    HW286970  12.427  12.867   2.581
61711SOL     OW86971  14.210  12.711  12.770
61711SOL    HW186972  14.130  12.741  12.727
61711SOL    HW286973  14.276  12.775  12.744
61712SOL     OW86974   0.873   4.303  10.203
61712SOL    HW186975   0.959   4.280  10.237
61712SOL    HW286976   0.846   4.227  10.152
61713SOL     OW86977   6.894   6.079   9.051
61713SOL    HW186978   6.941   6.111   9.128
61713SOL    HW286979   6.801   6.093   9.072
61714SOL     OW86980   8.912   7.446   5.125
61714SOL    HW186981   8.962   7.520   5.158
61714SOL    HW286982   8.960   7.369   5.155
61715SOL     OW86983   3.795  11.873   2.863
61715SOL    HW186984   3.845  11.799   2.827
61715SOL    HW286985   3.774  11.847   2.952
61716SOL     OW86986   9.075   5.170   4.783
61716SOL    HW186987   8.981   5.186   4.790
61716SOL    HW286988   9.111   5.193   4.868
61717SOL     OW86989   4.547   1.252   9.808
61717SOL    HW186990   4.518   1.340   9.834
61717SOL    HW286991   4.527   1.197   9.884
61718SOL     OW86992   6.884  14.384   7.253
61718SOL    HW186993   6.819  14.325   7.291
61718SOL    HW286994   6.904  14.446   7.323
61719SOL     OW86995   4.872   0.981  14.813
61719SOL    HW186996   4.960   0.986  14.851
61719SOL    HW286997   4.826   1.056  14.850
61720SOL     OW86998   9.319   2.792   3.994
61720SOL    HW186999   9.310   2.808   3.900
61720SOL    HW287000   9.282   2.869   4.036
61721SOL     OW87001  10.699   3.603   9.581
61721SOL    HW187002  10.733   3.526   9.536
61721SOL    HW287003  10.637   3.641   9.520
61722SOL     OW87004  12.274  14.191   7.142
61722SOL    HW187005  12.218  14.114   7.137
61722SOL    HW287006  12.278  14.224   7.052
61723SOL     OW87007   6.822   1.314   9.246
61723SOL    HW187008   6.809   1.228   9.205
61723SOL    HW287009   6.814   1.297   9.340
61724SOL     OW87010   0.408  12.055   0.357
61724SOL    HW187011   0.437  12.142   0.333
61724SOL    HW287012   0.383  12.013   0.275
61725SOL     OW87013  11.319  13.744  14.723
61725SOL    HW187014  11.251  13.768  14.661
61725SOL    HW287015  11.399  13.783  14.689
61726SOL     OW87016   9.525   3.932   7.988
61726SOL    HW187017   9.608   3.939   8.036
61726SOL    HW287018   9.486   4.019   7.997
61727SOL     OW87019   8.716  11.749   6.134
61727SOL    HW187020   8.769  11.670   6.149
61727SOL    HW287021   8.759  11.794   6.061
61728SOL     OW87022   4.024  14.040  14.842
61728SOL    HW187023   4.041  14.075   0.055
61728SOL    HW287024   4.057  14.107  14.782
61729SOL     OW87025   7.675  13.053   5.503
61729SOL    HW187026   7.654  13.064   5.410
61729SOL    HW287027   7.757  13.100   5.516
61730SOL     OW87028   2.419  12.721   4.087
61730SOL    HW187029   2.495  12.727   4.143
61730SOL    HW287030   2.379  12.637   4.109
61731SOL     OW87031   2.366  13.562   0.521
61731SOL    HW187032   2.434  13.625   0.548
61731SOL    HW287033   2.355  13.505   0.597
61732SOL     OW87034   8.133   9.379   0.880
61732SOL    HW187035   8.069   9.378   0.951
61732SOL    HW287036   8.185   9.300   0.894
61733SOL     OW87037   3.786   9.380  11.279
61733SOL    HW187038   3.880   9.367  11.266
61733SOL    HW287039   3.759   9.435  11.206
61734SOL     OW87040   4.999   1.149   7.226
61734SOL    HW187041   5.055   1.101   7.164
61734SOL    HW287042   4.916   1.161   7.179
61735SOL     OW87043   4.997   2.012  10.146
61735SOL    HW187044   5.034   2.056  10.069
61735SOL    HW287045   5.073   1.972  10.189
61736SOL     OW87046  11.086   8.324  13.785
61736SOL    HW187047  11.058   8.410  13.755
61736SOL    HW287048  11.005   8.274  13.797
61737SOL     OW87049  14.637  10.729   4.470
61737SOL    HW187050  14.674  10.660   4.414
61737SOL    HW287051  14.713  10.780   4.498
61738SOL     OW87052  10.153   6.439  14.658
61738SOL    HW187053  10.065   6.475  14.666
61738SOL    HW287054  10.204   6.508  14.616
61739SOL     OW87055  12.131  10.923  14.336
61739SOL    HW187056  12.072  10.865  14.384
61739SOL    HW287057  12.214  10.876  14.331
61740SOL     OW87058  10.800  11.764  11.806
61740SOL    HW187059  10.724  11.761  11.748
61740SOL    HW287060  10.874  11.739  11.750
61741SOL     OW87061   5.445  11.823   7.789
61741SOL    HW187062   5.355  11.833   7.758
61741SOL    HW287063   5.457  11.728   7.798
61742SOL     OW87064   6.765   4.932   0.899
61742SOL    HW187065   6.735   4.904   0.813
61742SOL    HW287066   6.691   4.917   0.957
61743SOL     OW87067  12.261  10.345  11.244
61743SOL    HW187068  12.188  10.312  11.191
61743SOL    HW287069  12.271  10.279  11.313
61744SOL     OW87070   0.827   1.482   0.731
61744SOL    HW187071   0.801   1.414   0.668
61744SOL    HW287072   0.895   1.532   0.686
61745SOL     OW87073   6.824   3.083  13.571
61745SOL    HW187074   6.850   3.138  13.497
61745SOL    HW287075   6.732   3.104  13.585
61746SOL     OW87076   3.241   3.789  11.161
61746SOL    HW187077   3.273   3.866  11.116
61746SOL    HW287078   3.193   3.823  11.236
61747SOL     OW87079   3.347   6.124   9.176
61747SOL    HW187080   3.340   6.105   9.270
61747SOL    HW287081   3.336   6.219   9.170
61748SOL     OW87082   4.602   0.341   1.633
61748SOL    HW187083   4.571   0.366   1.720
61748SOL    HW287084   4.697   0.351   1.637
61749SOL     OW87085   2.829   6.242  11.700
61749SOL    HW187086   2.774   6.184  11.647
61749SOL    HW287087   2.836   6.322  11.649
61750SOL     OW87088   8.390   8.064  11.281
61750SOL    HW187089   8.471   8.016  11.260
61750SOL    HW287090   8.333   8.049  11.206
61751SOL     OW87091   1.585   5.012   1.997
61751SOL    HW187092   1.638   5.013   2.076
61751SOL    HW287093   1.618   5.085   1.945
61752SOL     OW87094   0.965   8.058  10.542
61752SOL    HW187095   1.029   8.004  10.497
61752SOL    HW287096   0.887   8.003  10.548
61753SOL     OW87097   4.488   9.075   7.636
61753SOL    HW187098   4.568   9.027   7.655
61753SOL    HW287099   4.417   9.013   7.655
61754SOL     OW87100   9.032   9.335   1.262
61754SOL    HW187101   9.015   9.400   1.330
61754SOL    HW287102   8.984   9.257   1.291
61755SOL     OW87103  10.947  12.635   3.570
61755SOL    HW187104  11.004  12.560   3.588
61755SOL    HW287105  10.960  12.653   3.477
61756SOL     OW87106   5.974  10.604  14.668
61756SOL    HW187107   5.940  10.665  14.602
61756SOL    HW287108   5.940  10.636  14.751
61757SOL     OW87109   8.976   8.668  11.577
61757SOL    HW187110   8.905   8.703  11.523
61757SOL    HW287111   8.947   8.681  11.667
61758SOL     OW87112   4.325   7.619   1.554
61758SOL    HW187113   4.299   7.533   1.520
61758SOL    HW287114   4.318   7.610   1.649
61759SOL     OW87115   3.767   6.055   0.721
61759SOL    HW187116   3.775   6.137   0.673
61759SOL    HW287117   3.846   6.051   0.775
61760SOL     OW87118   3.582  11.319   9.080
61760SOL    HW187119   3.599  11.249   9.016
61760SOL    HW287120   3.529  11.277   9.147
61761SOL     OW87121   3.153  13.827   4.779
61761SOL    HW187122   3.212  13.882   4.831
61761SOL    HW287123   3.191  13.828   4.691
61762SOL     OW87124  12.303   3.622   1.450
61762SOL    HW187125  12.350   3.706   1.448
61762SOL    HW287126  12.371   3.556   1.438
61763SOL     OW87127   8.804  14.154  10.166
61763SOL    HW187128   8.898  14.167  10.172
61763SOL    HW287129   8.786  14.148  10.072
61764SOL     OW87130  14.674   7.906  11.342
61764SOL    HW187131  14.637   7.943  11.422
61764SOL    HW287132  14.741   7.845  11.373
61765SOL     OW87133  14.641  10.823  12.841
61765SOL    HW187134  14.684  10.830  12.756
61765SOL    HW287135  14.575  10.892  12.840
61766SOL     OW87136   0.020   2.934  13.227
61766SOL    HW187137   0.010   2.905  13.137
61766SOL    HW287138  14.819   2.991  13.243
61767SOL     OW87139  11.171   3.816   8.278
61767SOL    HW187140  11.254   3.860   8.260
61767SOL    HW287141  11.144   3.850   8.363
61768SOL     OW87142   7.400  12.043   8.435
61768SOL    HW187143   7.492  12.050   8.413
61768SOL    HW287144   7.395  11.974   8.501
61769SOL     OW87145   6.214   2.325  12.247
61769SOL    HW187146   6.285   2.322  12.311
61769SOL    HW287147   6.182   2.235  12.242
61770SOL     OW87148  12.859   8.024  12.031
61770SOL    HW187149  12.885   8.008  12.122
61770SOL    HW287150  12.942   8.029  11.983
61771SOL     OW87151   2.295   3.458  12.109
61771SOL    HW187152   2.375   3.483  12.155
61771SOL    HW287153   2.314   3.474  12.017
61772SOL     OW87154   3.964  13.544   3.146
61772SOL    HW187155   3.927  13.465   3.106
61772SOL    HW287156   4.053  13.519   3.170
61773SOL     OW87157  13.600  13.224   6.844
61773SOL    HW187158  13.520  13.275   6.831
61773SOL    HW287159  13.625  13.196   6.756
61774SOL     OW87160   7.015   3.615   8.185
61774SOL    HW187161   6.946   3.674   8.155
61774SOL    HW287162   7.064   3.593   8.106
61775SOL     OW87163   8.365  10.808   2.556
61775SOL    HW187164   8.420  10.833   2.630
61775SOL    HW287165   8.427  10.781   2.488
61776SOL     OW87166   6.638   2.893  10.416
61776SOL    HW187167   6.613   2.957  10.349
61776SOL    HW287168   6.571   2.902  10.483
61777SOL     OW87169   6.529  14.354  12.432
61777SOL    HW187170   6.535  14.429  12.491
61777SOL    HW287171   6.436  14.331  12.431
61778SOL     OW87172  12.816   0.701  14.638
61778SOL    HW187173  12.736   0.745  14.668
61778SOL    HW287174  12.791   0.661  14.554
61779SOL     OW87175   7.742   9.356   1.074
61779SOL    HW187176   7.747   9.271   1.117
61779SOL    HW287177   7.748   9.337   0.981
61780SOL     OW87178  10.602  14.623  13.295
61780SOL    HW187179  10.538  14.559  13.264
61780SOL    HW287180  10.684  14.575  13.300
61781SOL     OW87181   8.825   7.157  14.377
61781SOL    HW187182   8.917   7.158  14.350
61781SOL    HW287183   8.813   7.238  14.425
61782SOL     OW87184  10.028  11.663   8.944
61782SOL    HW187185  10.059  11.747   8.908
61782SOL    HW287186  10.084  11.647   9.020
61783SOL     OW87187   0.588   0.017   4.281
61783SOL    HW187188   0.546   0.031   4.366
61783SOL    HW287189   0.666   0.072   4.284
61784SOL     OW87190   1.813   4.427   7.129
61784SOL    HW187191   1.848   4.418   7.218
61784SOL    HW287192   1.845   4.513   7.100
61785SOL     OW87193   3.331  13.199   6.172
61785SOL    HW187194   3.409  13.197   6.116
61785SOL    HW287195   3.361  13.166   6.257
61786SOL     OW87196  14.326   7.568   0.377
61786SOL    HW187197  14.332   7.561   0.282
61786SOL    HW287198  14.382   7.498   0.409
61787SOL     OW87199   5.264  13.015   3.722
61787SOL    HW187200   5.228  12.927   3.713
61787SOL    HW287201   5.209  13.057   3.787
61788SOL     OW87202  10.958   8.174   0.784
61788SOL    HW187203  10.866   8.167   0.756
61788SOL    HW287204  10.972   8.096   0.839
61789SOL     OW87205   9.362   8.732   6.516
61789SOL    HW187206   9.407   8.816   6.529
61789SOL    HW287207   9.429   8.667   6.537
61790SOL     OW87208  12.953  10.861   1.729
61790SOL    HW187209  12.888  10.916   1.684
61790SOL    HW287210  12.964  10.786   1.670
61791SOL     OW87211   9.993   8.779   4.839
61791SOL    HW187212  10.010   8.758   4.931
61791SOL    HW287213  10.037   8.710   4.790
61792SOL     OW87214  13.909  11.777  12.265
61792SOL    HW187215  13.985  11.734  12.227
61792SOL    HW287216  13.922  11.771  12.359
61793SOL     OW87217   0.245   9.524   7.435
61793SOL    HW187218   0.331   9.487   7.454
61793SOL    HW287219   0.215   9.477   7.357
61794SOL     OW87220  13.909  11.561   8.342
61794SOL    HW187221  13.916  11.478   8.390
61794SOL    HW287222  13.859  11.618   8.400
61795SOL     OW87223   0.571   5.615   0.565
61795SOL    HW187224   0.531   5.633   0.650
61795SOL    HW287225   0.581   5.519   0.564
61796SOL     OW87226   9.112   1.572  12.809
61796SOL    HW187227   9.090   1.664  12.792
61796SOL    HW287228   9.131   1.570  12.903
61797SOL     OW87229  12.060   2.302  10.225
61797SOL    HW187230  12.141   2.289  10.175
61797SOL    HW287231  12.079   2.378  10.280
61798SOL     OW87232  11.760   8.337   1.787
61798SOL    HW187233  11.683   8.348   1.731
61798SOL    HW287234  11.725   8.300   1.868
61799SOL     OW87235   0.335  10.946  13.157
61799SOL    HW187236   0.419  10.910  13.129
61799SOL    HW287237   0.270  10.883  13.127
61800SOL     OW87238  14.346   3.273  10.454
61800SOL    HW187239  14.382   3.278  10.365
61800SOL    HW287240  14.422   3.268  10.511
61801SOL     OW87241   4.424  10.518   1.311
61801SOL    HW187242   4.452  10.606   1.337
61801SOL    HW287243   4.360  10.534   1.241
61802SOL     OW87244  10.175  14.323   7.525
61802SOL    HW187245  10.247  14.361   7.475
61802SOL    HW287246  10.155  14.241   7.479
61803SOL     OW87247  12.653   5.069   0.316
61803SOL    HW187248  12.653   5.110   0.230
61803SOL    HW287249  12.745   5.061   0.340
61804SOL     OW87250  13.552   2.517   1.552
61804SOL    HW187251  13.517   2.523   1.463
61804SOL    HW287252  13.548   2.423   1.573
61805SOL     OW87253   6.207   4.365   1.053
61805SOL    HW187254   6.257   4.318   1.120
61805SOL    HW287255   6.119   4.374   1.090
61806SOL     OW87256   2.293   3.625   3.470
61806SOL    HW187257   2.333   3.548   3.431
61806SOL    HW287258   2.265   3.679   3.395
61807SOL     OW87259  13.096   1.375   0.322
61807SOL    HW187260  13.167   1.311   0.316
61807SOL    HW287261  13.033   1.337   0.383
61808SOL     OW87262  12.113  12.280   5.908
61808SOL    HW187263  12.073  12.267   5.822
61808SOL    HW287264  12.141  12.372   5.908
61809SOL     OW87265   8.076   0.583  14.868
61809SOL    HW187266   8.018   0.510   0.016
61809SOL    HW287267   8.048   0.654   0.051
61810SOL     OW87268   7.224   7.074   5.987
61810SOL    HW187269   7.307   7.100   5.948
61810SOL    HW287270   7.236   7.089   6.081
61811SOL     OW87271   4.319   2.740   4.838
61811SOL    HW187272   4.337   2.657   4.794
61811SOL    HW287273   4.350   2.727   4.928
61812SOL     OW87274   5.214   8.373   5.836
61812SOL    HW187275   5.128   8.407   5.811
61812SOL    HW287276   5.219   8.389   5.931
61813SOL     OW87277  14.715   4.455   3.992
61813SOL    HW187278  14.741   4.364   3.984
61813SOL    HW287279  14.623   4.452   4.020
61814SOL     OW87280   0.400   8.055  12.741
61814SOL    HW187281   0.444   8.011  12.813
61814SOL    HW287282   0.471   8.091  12.687
61815SOL     OW87283  10.057   4.067   7.811
61815SOL    HW187284   9.965   4.049   7.830
61815SOL    HW287285  10.057   4.155   7.774
61816SOL     OW87286   4.952   3.672  11.619
61816SOL    HW187287   4.951   3.681  11.714
61816SOL    HW287288   4.920   3.755  11.586
61817SOL     OW87289   7.497   3.732   8.753
61817SOL    HW187290   7.586   3.697   8.755
61817SOL    HW287291   7.500   3.809   8.809
61818SOL     OW87292  12.299   7.737   5.844
61818SOL    HW187293  12.331   7.670   5.904
61818SOL    HW287294  12.225   7.695   5.799
61819SOL     OW87295   6.179  11.222  12.210
61819SOL    HW187296   6.119  11.149  12.223
61819SOL    HW287297   6.199  11.252  12.299
61820SOL     OW87298  10.647  10.981   4.346
61820SOL    HW187299  10.659  10.891   4.379
61820SOL    HW287300  10.552  10.991   4.337
61821SOL     OW87301   7.459  10.505   9.541
61821SOL    HW187302   7.413  10.457   9.472
61821SOL    HW287303   7.552  10.497   9.518
61822SOL     OW87304  13.546   8.314   4.435
61822SOL    HW187305  13.454   8.289   4.437
61822SOL    HW287306  13.593   8.233   4.418
61823SOL     OW87307   9.112   8.497  13.973
61823SOL    HW187308   9.038   8.483  14.033
61823SOL    HW287309   9.074   8.543  13.898
61824SOL     OW87310   5.957   6.825   0.264
61824SOL    HW187311   5.998   6.810   0.179
61824SOL    HW287312   5.904   6.746   0.279
61825SOL     OW87313  10.835   6.104  10.917
61825SOL    HW187314  10.767   6.087  10.852
61825SOL    HW287315  10.845   6.199  10.916
61826SOL     OW87316   8.480   7.629  14.261
61826SOL    HW187317   8.422   7.633  14.337
61826SOL    HW287318   8.435   7.681  14.194
61827SOL     OW87319   1.108   9.404   7.306
61827SOL    HW187320   1.012   9.412   7.313
61827SOL    HW287321   1.128   9.432   7.217
61828SOL     OW87322   0.754   9.952   6.605
61828SOL    HW187323   0.742  10.041   6.571
61828SOL    HW287324   0.810   9.910   6.540
61829SOL     OW87325  12.238  14.095  14.740
61829SOL    HW187326  12.253  14.189  14.745
61829SOL    HW287327  12.230  14.067  14.832
61830SOL     OW87328   2.409  12.232  10.945
61830SOL    HW187329   2.487  12.208  10.995
61830SOL    HW287330   2.396  12.325  10.964
61831SOL     OW87331  10.102   1.148   7.218
61831SOL    HW187332  10.124   1.240   7.208
61831SOL    HW287333  10.182   1.101   7.193
61832SOL     OW87334   9.176   5.741  11.930
61832SOL    HW187335   9.195   5.832  11.908
61832SOL    HW287336   9.228   5.725  12.009
61833SOL     OW87337   2.120  14.028   4.079
61833SOL    HW187338   2.157  14.117   4.082
61833SOL    HW287339   2.169  13.980   4.145
61834SOL     OW87340   6.733   0.279   4.727
61834SOL    HW187341   6.745   0.207   4.666
61834SOL    HW287342   6.674   0.245   4.794
61835SOL     OW87343  11.076  13.534   3.731
61835SOL    HW187344  11.124  13.451   3.727
61835SOL    HW287345  11.094  13.568   3.818
61836SOL     OW87346   2.159   2.545  13.325
61836SOL    HW187347   2.196   2.611  13.266
61836SOL    HW287348   2.208   2.556  13.407
61837SOL     OW87349  11.163   9.050   6.443
61837SOL    HW187350  11.237   9.003   6.483
61837SOL    HW287351  11.098   9.055   6.513
61838SOL     OW87352  12.259   9.344  13.056
61838SOL    HW187353  12.323   9.381  13.116
61838SOL    HW287354  12.305   9.335  12.973
61839SOL     OW87355   1.163   9.332  10.283
61839SOL    HW187356   1.148   9.399  10.216
61839SOL    HW287357   1.248   9.295  10.260
61840SOL     OW87358   7.865   9.075   1.217
61840SOL    HW187359   7.786   9.034   1.253
61840SOL    HW287360   7.911   9.004   1.172
61841SOL     OW87361   9.425   5.847   5.903
61841SOL    HW187362   9.506   5.894   5.883
61841SOL    HW287363   9.442   5.757   5.877
61842SOL     OW87364   0.479  10.012   3.601
61842SOL    HW187365   0.388  10.001   3.628
61842SOL    HW287366   0.507   9.925   3.574
61843SOL     OW87367   1.456  12.321   7.298
61843SOL    HW187368   1.419  12.328   7.386
61843SOL    HW287369   1.535  12.375   7.301
61844SOL     OW87370   9.649   3.656   5.730
61844SOL    HW187371   9.685   3.645   5.818
61844SOL    HW287372   9.611   3.571   5.709
61845SOL     OW87373   3.084  12.598   4.981
61845SOL    HW187374   2.991  12.586   4.962
61845SOL    HW287375   3.129  12.551   4.910
61846SOL     OW87376   8.080   3.728  12.719
61846SOL    HW187377   7.988   3.701  12.716
61846SOL    HW287378   8.123   3.658  12.767
61847SOL     OW87379   4.608  12.513   5.446
61847SOL    HW187380   4.562  12.438   5.483
61847SOL    HW287381   4.700  12.486   5.442
61848SOL     OW87382   0.006   5.535   0.911
61848SOL    HW187383  14.856   5.624   0.939
61848SOL    HW287384  14.801   5.502   0.867
61849SOL     OW87385  11.993   2.697  10.419
61849SOL    HW187386  12.061   2.642  10.457
61849SOL    HW287387  12.036   2.741  10.345
61850SOL     OW87388   8.388   3.105   1.467
61850SOL    HW187389   8.418   3.085   1.555
61850SOL    HW287390   8.435   3.044   1.411
61851SOL     OW87391   9.410   8.941   6.807
61851SOL    HW187392   9.360   8.890   6.870
61851SOL    HW287393   9.475   8.987   6.860
61852SOL     OW87394   7.221   3.570   8.754
61852SOL    HW187395   7.143   3.620   8.779
61852SOL    HW287396   7.294   3.619   8.790
61853SOL     OW87397   6.700  13.851   9.019
61853SOL    HW187398   6.677  13.785   9.085
61853SOL    HW287399   6.714  13.931   9.069
61854SOL     OW87400  12.189  14.218   3.250
61854SOL    HW187401  12.216  14.127   3.262
61854SOL    HW287402  12.176  14.226   3.155
61855SOL     OW87403   6.396   3.329   4.032
61855SOL    HW187404   6.425   3.381   4.107
61855SOL    HW287405   6.434   3.375   3.956
61856SOL     OW87406  12.059   4.077  11.814
61856SOL    HW187407  12.120   4.009  11.784
61856SOL    HW287408  12.098   4.159  11.782
61857SOL     OW87409   8.381   7.240   2.487
61857SOL    HW187410   8.396   7.243   2.393
61857SOL    HW287411   8.444   7.176   2.520
61858SOL     OW87412   1.651   9.258   3.535
61858SOL    HW187413   1.633   9.167   3.510
61858SOL    HW287414   1.737   9.277   3.498
61859SOL     OW87415  10.590   9.175  14.747
61859SOL    HW187416  10.495   9.167  14.760
61859SOL    HW287417  10.622   9.085  14.744
61860SOL     OW87418   9.085  10.609   9.473
61860SOL    HW187419   9.152  10.578   9.534
61860SOL    HW287420   9.102  10.562   9.392
61861SOL     OW87421   5.552   4.280   1.168
61861SOL    HW187422   5.553   4.338   1.243
61861SOL    HW287423   5.461   4.280   1.138
61862SOL     OW87424   7.665   8.380   7.501
61862SOL    HW187425   7.720   8.386   7.579
61862SOL    HW287426   7.727   8.375   7.428
61863SOL     OW87427   0.442   8.060   0.214
61863SOL    HW187428   0.503   8.078   0.286
61863SOL    HW287429   0.359   8.096   0.243
61864SOL     OW87430  13.715   6.935   8.263
61864SOL    HW187431  13.800   6.957   8.302
61864SOL    HW287432  13.735   6.914   8.172
61865SOL     OW87433   6.841  12.092   4.017
61865SOL    HW187434   6.802  12.051   3.940
61865SOL    HW287435   6.792  12.173   4.028
61866SOL     OW87436  11.934   0.504   2.636
61866SOL    HW187437  11.999   0.482   2.570
61866SOL    HW287438  11.929   0.427   2.693
61867SOL     OW87439   7.013   2.971  10.357
61867SOL    HW187440   7.025   2.877  10.345
61867SOL    HW287441   7.059   2.991  10.438
61868SOL     OW87442   0.167   8.482   4.768
61868SOL    HW187443   0.192   8.513   4.681
61868SOL    HW287444   0.246   8.490   4.820
61869SOL     OW87445   2.561  12.522   6.885
61869SOL    HW187446   2.466  12.522   6.883
61869SOL    HW287447   2.584  12.586   6.953
61870SOL     OW87448   1.158   2.556   4.250
61870SOL    HW187449   1.187   2.595   4.332
61870SOL    HW287450   1.224   2.581   4.186
61871SOL     OW87451   5.964   7.202  11.715
61871SOL    HW187452   5.998   7.207  11.804
61871SOL    HW287453   5.934   7.290  11.696
61872SOL     OW87454  10.075  10.739   0.106
61872SOL    HW187455   9.990  10.699   0.089
61872SOL    HW287456  10.066  10.830   0.075
61873SOL     OW87457   3.271   6.876   3.534
61873SOL    HW187458   3.362   6.886   3.505
61873SOL    HW287459   3.221   6.939   3.482
61874SOL     OW87460   9.185  11.627  13.482
61874SOL    HW187461   9.149  11.602  13.397
61874SOL    HW287462   9.279  11.636  13.467
61875SOL     OW87463   3.140  13.463  13.436
61875SOL    HW187464   3.171  13.537  13.383
61875SOL    HW287465   3.195  13.390  13.410
61876SOL     OW87466  10.702   0.547   1.040
61876SOL    HW187467  10.638   0.482   1.070
61876SOL    HW287468  10.780   0.495   1.017
61877SOL     OW87469   4.229   1.978   2.477
61877SOL    HW187470   4.269   1.963   2.391
61877SOL    HW287471   4.155   2.035   2.460
61878SOL     OW87472  12.346  10.291   7.132
61878SOL    HW187473  12.384  10.204   7.125
61878SOL    HW287474  12.292  10.300   7.053
61879SOL     OW87475  14.539  13.933   3.340
61879SOL    HW187476  14.620  13.983   3.354
61879SOL    HW287477  14.527  13.884   3.422
61880SOL     OW87478   2.608  11.588   9.753
61880SOL    HW187479   2.611  11.494   9.768
61880SOL    HW287480   2.517  11.613   9.772
61881SOL     OW87481   7.197   6.770   7.692
61881SOL    HW187482   7.228   6.838   7.633
61881SOL    HW287483   7.195   6.690   7.639
61882SOL     OW87484  11.159   1.152   2.885
61882SOL    HW187485  11.120   1.123   2.967
61882SOL    HW287486  11.097   1.217   2.851
61883SOL     OW87487  12.772   1.221   5.918
61883SOL    HW187488  12.694   1.230   5.973
61883SOL    HW287489  12.844   1.250   5.973
61884SOL     OW87490  11.601   3.681  11.755
61884SOL    HW187491  11.647   3.762  11.776
61884SOL    HW287492  11.654   3.640  11.687
61885SOL     OW87493  14.469   2.195   7.436
61885SOL    HW187494  14.379   2.163   7.437
61885SOL    HW287495  14.511   2.154   7.511
61886SOL     OW87496  10.817  11.017   0.625
61886SOL    HW187497  10.730  10.986   0.652
61886SOL    HW287498  10.804  11.109   0.602
61887SOL     OW87499  13.416  11.892   1.743
61887SOL    HW187500  13.469  11.813   1.752
61887SOL    HW287501  13.374  11.884   1.657
61888SOL     OW87502   5.535   2.533   6.853
61888SOL    HW187503   5.444   2.505   6.841
61888SOL    HW287504   5.568   2.546   6.764
61889SOL     OW87505   5.611  13.143   8.440
61889SOL    HW187506   5.593  13.237   8.449
61889SOL    HW287507   5.576  13.121   8.354
61890SOL     OW87508   0.948  14.520  12.380
61890SOL    HW187509   1.033  14.562  12.364
61890SOL    HW287510   0.888  14.593  12.398
61891SOL     OW87511  13.099   0.568  11.747
61891SOL    HW187512  13.102   0.542  11.655
61891SOL    HW287513  13.009   0.547  11.774
61892SOL     OW87514   2.739   6.932  11.039
61892SOL    HW187515   2.781   7.018  11.039
61892SOL    HW287516   2.775   6.887  11.115
61893SOL     OW87517   4.062  11.047   2.426
61893SOL    HW187518   4.101  11.103   2.493
61893SOL    HW287519   4.025  11.109   2.363
61894SOL     OW87520   3.470   8.441  10.962
61894SOL    HW187521   3.439   8.525  10.995
61894SOL    HW287522   3.401   8.412  10.902
61895SOL     OW87523  12.518  14.499   1.812
61895SOL    HW187524  12.466  14.521   1.735
61895SOL    HW287525  12.454  14.466   1.876
61896SOL     OW87526   5.965   3.929   4.947
61896SOL    HW187527   6.024   3.965   4.882
61896SOL    HW287528   5.905   4.001   4.967
61897SOL     OW87529   8.682   6.321   3.733
61897SOL    HW187530   8.680   6.399   3.789
61897SOL    HW287531   8.705   6.250   3.793
61898SOL     OW87532  12.805   0.233   2.398
61898SOL    HW187533  12.790   0.256   2.306
61898SOL    HW287534  12.790   0.138   2.402
61899SOL     OW87535   4.237  10.962  11.756
61899SOL    HW187536   4.304  11.024  11.727
61899SOL    HW287537   4.173  11.016  11.804
61900SOL     OW87538  14.264   9.129  13.722
61900SOL    HW187539  14.254   9.188  13.648
61900SOL    HW287540  14.265   9.042  13.684
61901SOL     OW87541  10.647  12.924   0.558
61901SOL    HW187542  10.638  13.017   0.575
61901SOL    HW287543  10.684  12.888   0.639
61902SOL     OW87544   9.747   0.872   4.873
61902SOL    HW187545   9.789   0.790   4.898
61902SOL    HW287546   9.686   0.848   4.804
61903SOL     OW87547  11.563  10.224  14.154
61903SOL    HW187548  11.510  10.217  14.233
61903SOL    HW287549  11.653  10.234  14.186
61904SOL     OW87550  11.105  13.513   5.491
61904SOL    HW187551  11.186  13.551   5.458
61904SOL    HW287552  11.085  13.443   5.429
61905SOL     OW87553  12.450  14.752  14.534
61905SOL    HW187554  12.438  14.728  14.625
61905SOL    HW287555  12.541  14.783  14.528
61906SOL     OW87556  13.139   7.732  10.529
61906SOL    HW187557  13.150   7.826  10.512
61906SOL    HW287558  13.130   7.693  10.442
61907SOL     OW87559   1.390  12.885   5.875
61907SOL    HW187560   1.333  12.814   5.906
61907SOL    HW287561   1.331  12.943   5.826
61908SOL     OW87562  10.172  11.023   7.685
61908SOL    HW187563  10.149  11.110   7.653
61908SOL    HW287564  10.133  10.963   7.621
61909SOL     OW87565   1.660  10.286   2.406
61909SOL    HW187566   1.661  10.376   2.375
61909SOL    HW287567   1.750  10.255   2.394
61910SOL     OW87568   5.597   7.607   7.385
61910SOL    HW187569   5.677   7.555   7.394
61910SOL    HW287570   5.534   7.547   7.345
61911SOL     OW87571   5.529   2.978   5.911
61911SOL    HW187572   5.470   3.037   5.959
61911SOL    HW287573   5.597   3.036   5.878
61912SOL     OW87574  13.370   8.112   1.483
61912SOL    HW187575  13.390   8.176   1.415
61912SOL    HW287576  13.401   8.029   1.447
61913SOL     OW87577   4.617  13.778   5.173
61913SOL    HW187578   4.679  13.743   5.109
61913SOL    HW287579   4.536  13.789   5.123
61914SOL     OW87580   3.749  14.291  11.286
61914SOL    HW187581   3.706  14.355  11.229
61914SOL    HW287582   3.841  14.295  11.261
61915SOL     OW87583  10.078   3.360   0.256
61915SOL    HW187584  10.036   3.440   0.225
61915SOL    HW287585  10.017   3.323   0.319
61916SOL     OW87586  14.621   6.254  10.698
61916SOL    HW187587  14.627   6.242  10.793
61916SOL    HW287588  14.704   6.219  10.664
61917SOL     OW87589  14.052   9.788  13.839
61917SOL    HW187590  14.032   9.699  13.869
61917SOL    HW287591  13.992   9.844  13.888
61918SOL     OW87592   4.883   7.865  14.174
61918SOL    HW187593   4.890   7.772  14.194
61918SOL    HW287594   4.820   7.870  14.103
61919SOL     OW87595  11.348   2.452   6.221
61919SOL    HW187596  11.281   2.384   6.223
61919SOL    HW287597  11.419   2.414   6.170
61920SOL     OW87598   2.603   5.353  12.363
61920SOL    HW187599   2.586   5.309  12.446
61920SOL    HW287600   2.646   5.435  12.387
61921SOL     OW87601   1.411  12.117   2.626
61921SOL    HW187602   1.334  12.171   2.641
61921SOL    HW287603   1.379  12.044   2.573
61922SOL     OW87604  10.290   6.043   4.339
61922SOL    HW187605  10.287   6.066   4.247
61922SOL    HW287606  10.351   5.969   4.344
61923SOL     OW87607   1.597   5.794   4.224
61923SOL    HW187608   1.520   5.818   4.173
61923SOL    HW287609   1.627   5.877   4.262
61924SOL     OW87610   5.952   7.320   7.252
61924SOL    HW187611   6.035   7.296   7.210
61924SOL    HW287612   5.894   7.341   7.178
61925SOL     OW87613  14.088  14.514   1.423
61925SOL    HW187614  14.026  14.441   1.418
61925SOL    HW287615  14.173  14.474   1.408
61926SOL     OW87616   1.871   2.287  12.869
61926SOL    HW187617   1.776   2.278  12.881
61926SOL    HW287618   1.909   2.218  12.924
61927SOL     OW87619  11.239   4.597   7.401
61927SOL    HW187620  11.305   4.536   7.368
61927SOL    HW287621  11.288   4.677   7.421
61928SOL     OW87622   5.604   1.447   2.513
61928SOL    HW187623   5.608   1.533   2.473
61928SOL    HW287624   5.631   1.462   2.604
61929SOL     OW87625   0.812   5.114   8.696
61929SOL    HW187626   0.747   5.077   8.755
61929SOL    HW287627   0.762   5.171   8.638
61930SOL     OW87628   0.058   5.595   3.709
61930SOL    HW187629   0.118   5.614   3.782
61930SOL    HW287630   0.000   5.527   3.743
61931SOL     OW87631   7.520   5.624   2.967
61931SOL    HW187632   7.490   5.693   2.908
61931SOL    HW287633   7.581   5.572   2.914
61932SOL     OW87634   9.358  12.115   7.791
61932SOL    HW187635   9.275  12.091   7.832
61932SOL    HW287636   9.404  12.032   7.777
61933SOL     OW87637   4.621   9.053   5.112
61933SOL    HW187638   4.612   9.145   5.086
61933SOL    HW287639   4.712   9.045   5.140
61934SOL     OW87640   8.514   9.275  10.746
61934SOL    HW187641   8.491   9.220  10.671
61934SOL    HW287642   8.474   9.230  10.822
61935SOL     OW87643   8.506  12.242  10.701
61935SOL    HW187644   8.496  12.152  10.733
61935SOL    HW287645   8.560  12.233  10.622
61936SOL     OW87646   5.813  12.880   2.262
61936SOL    HW187647   5.802  12.846   2.351
61936SOL    HW287648   5.792  12.806   2.205
61937SOL     OW87649   9.901   8.125   7.026
61937SOL    HW187650   9.860   8.205   6.993
61937SOL    HW287651   9.918   8.143   7.119
61938SOL     OW87652   0.604   5.179   3.980
61938SOL    HW187653   0.608   5.218   4.067
61938SOL    HW287654   0.572   5.090   3.995
61939SOL     OW87655  12.878   5.056  11.022
61939SOL    HW187656  12.876   4.966  11.054
61939SOL    HW287657  12.895   5.048  10.928
61940SOL     OW87658   6.196  10.664   5.588
61940SOL    HW187659   6.242  10.599   5.641
61940SOL    HW287660   6.174  10.734   5.650
61941SOL     OW87661  11.090   8.111  11.385
61941SOL    HW187662  11.084   8.049  11.457
61941SOL    HW287663  11.167   8.164  11.404
61942SOL     OW87664   3.291  13.904   5.588
61942SOL    HW187665   3.260  13.875   5.502
61942SOL    HW287666   3.230  13.973   5.614
61943SOL     OW87667  12.244  10.979   3.237
61943SOL    HW187668  12.266  10.998   3.328
61943SOL    HW287669  12.325  10.995   3.188
61944SOL     OW87670   9.712   6.533  12.476
61944SOL    HW187671   9.694   6.519  12.383
61944SOL    HW287672   9.680   6.454  12.519
61945SOL     OW87673   6.335  10.025  13.439
61945SOL    HW187674   6.311  10.110  13.404
61945SOL    HW287675   6.318   9.964  13.367
61946SOL     OW87676   4.474   8.414   5.285
61946SOL    HW187677   4.512   8.419   5.373
61946SOL    HW287678   4.395   8.468   5.290
61947SOL     OW87679  13.061   9.267   8.179
61947SOL    HW187680  13.047   9.194   8.239
61947SOL    HW287681  13.010   9.245   8.102
61948SOL     OW87682  12.780   4.685  10.751
61948SOL    HW187683  12.740   4.724  10.674
61948SOL    HW287684  12.819   4.604  10.720
61949SOL     OW87685   4.766  14.279   3.417
61949SOL    HW187686   4.671  14.267   3.411
61949SOL    HW287687   4.779  14.318   3.503
61950SOL     OW87688   3.645   1.014   7.988
61950SOL    HW187689   3.600   1.045   7.909
61950SOL    HW287690   3.696   0.939   7.958
61951SOL     OW87691  10.743   2.080  12.695
61951SOL    HW187692  10.839   2.078  12.693
61951SOL    HW287693  10.719   2.012  12.758
61952SOL     OW87694  13.469   2.332   7.945
61952SOL    HW187695  13.439   2.345   8.035
61952SOL    HW287696  13.389   2.310   7.897
61953SOL     OW87697  13.159   7.324  13.800
61953SOL    HW187698  13.135   7.273  13.877
61953SOL    HW287699  13.227   7.385  13.831
61954SOL     OW87700   8.586   6.437   2.819
61954SOL    HW187701   8.524   6.498   2.779
61954SOL    HW287702   8.670   6.456   2.777
61955SOL     OW87703   2.891   5.707   9.624
61955SOL    HW187704   2.853   5.695   9.711
61955SOL    HW287705   2.908   5.618   9.593
61956SOL     OW87706  13.116   3.664   8.138
61956SOL    HW187707  13.117   3.737   8.075
61956SOL    HW287708  13.024   3.639   8.144
61957SOL     OW87709   3.627   9.259  11.458
61957SOL    HW187710   3.537   9.292  11.452
61957SOL    HW287711   3.674   9.305  11.388
61958SOL     OW87712   1.428  10.831   3.054
61958SOL    HW187713   1.394  10.893   3.119
61958SOL    HW287714   1.439  10.883   2.975
61959SOL     OW87715   2.086   1.975  10.289
61959SOL    HW187716   2.043   2.054  10.256
61959SOL    HW287717   2.171   1.974  10.244
61960SOL     OW87718  10.409   4.308   0.510
61960SOL    HW187719  10.443   4.380   0.457
61960SOL    HW287720  10.470   4.236   0.495
61961SOL     OW87721   3.356  13.851   2.512
61961SOL    HW187722   3.375  13.759   2.532
61961SOL    HW287723   3.359  13.895   2.597
61962SOL     OW87724   4.312  13.775  14.125
61962SOL    HW187725   4.344  13.689  14.155
61962SOL    HW287726   4.282  13.818  14.205
61963SOL     OW87727   8.662   6.468  11.700
61963SOL    HW187728   8.661   6.385  11.747
61963SOL    HW287729   8.628   6.532  11.762
61964SOL     OW87730  11.579   8.370   2.749
61964SOL    HW187731  11.579   8.458   2.711
61964SOL    HW287732  11.509   8.324   2.702
61965SOL     OW87733  12.292  11.056  10.721
61965SOL    HW187734  12.245  11.132  10.754
61965SOL    HW287735  12.224  10.990  10.707
61966SOL     OW87736   6.959  10.924   5.166
61966SOL    HW187737   6.900  10.982   5.214
61966SOL    HW287738   6.949  10.950   5.074
61967SOL     OW87739   6.704   2.768   7.850
61967SOL    HW187740   6.736   2.686   7.887
61967SOL    HW287741   6.776   2.801   7.797
61968SOL     OW87742   8.510  14.331  14.531
61968SOL    HW187743   8.511  14.256  14.471
61968SOL    HW287744   8.457  14.301  14.605
61969SOL     OW87745   4.788   3.163  14.302
61969SOL    HW187746   4.735   3.240  14.323
61969SOL    HW287747   4.752   3.094  14.358
61970SOL     OW87748   2.171   3.141   6.536
61970SOL    HW187749   2.131   3.083   6.471
61970SOL    HW287750   2.097   3.188   6.575
61971SOL     OW87751   3.777  12.145   1.427
61971SOL    HW187752   3.866  12.161   1.457
61971SOL    HW287753   3.738  12.232   1.421
61972SOL     OW87754   3.417  10.017   9.938
61972SOL    HW187755   3.336  10.066   9.924
61972SOL    HW287756   3.486  10.083   9.930
61973SOL     OW87757   3.228   8.116   8.163
61973SOL    HW187758   3.224   8.211   8.155
61973SOL    HW287759   3.138   8.089   8.179
61974SOL     OW87760   5.398   1.270  10.950
61974SOL    HW187761   5.452   1.296  11.025
61974SOL    HW287762   5.314   1.245  10.988
61975SOL     OW87763  10.266   4.200   4.119
61975SOL    HW187764  10.297   4.284   4.086
61975SOL    HW287765  10.170   4.205   4.110
61976SOL     OW87766   2.635  12.054  12.538
61976SOL    HW187767   2.623  12.125  12.474
61976SOL    HW287768   2.576  12.076  12.610
61977SOL     OW87769   5.704   7.161  14.621
61977SOL    HW187770   5.697   7.177  14.527
61977SOL    HW287771   5.614   7.160  14.652
61978SOL     OW87772   1.306   0.597   7.679
61978SOL    HW187773   1.344   0.576   7.765
61978SOL    HW287774   1.381   0.598   7.620
61979SOL     OW87775   2.334   4.566   8.530
61979SOL    HW187776   2.418   4.545   8.488
61979SOL    HW287777   2.269   4.528   8.471
61980SOL     OW87778   3.185   7.598   1.380
61980SOL    HW187779   3.182   7.597   1.285
61980SOL    HW287780   3.254   7.535   1.403
61981SOL     OW87781  14.524   9.438   9.136
61981SOL    HW187782  14.481   9.516   9.101
61981SOL    HW287783  14.615   9.466   9.150
61982SOL     OW87784   6.215   9.039   8.160
61982SOL    HW187785   6.228   8.960   8.108
61982SOL    HW287786   6.304   9.067   8.184
61983SOL     OW87787   9.437   4.876   2.541
61983SOL    HW187788   9.439   4.795   2.491
61983SOL    HW287789   9.527   4.908   2.539
61984SOL     OW87790   6.015   2.769  11.641
61984SOL    HW187791   6.033   2.717  11.719
61984SOL    HW287792   6.033   2.859  11.667
61985SOL     OW87793   0.212   2.448   5.399
61985SOL    HW187794   0.119   2.435   5.385
61985SOL    HW287795   0.224   2.543   5.395
61986SOL     OW87796   4.926   9.796   6.950
61986SOL    HW187797   5.019   9.818   6.958
61986SOL    HW287798   4.914   9.721   7.009
61987SOL     OW87799  13.189   3.591   8.591
61987SOL    HW187800  13.112   3.624   8.638
61987SOL    HW287801  13.187   3.636   8.507
61988SOL     OW87802  12.426   6.881   9.500
61988SOL    HW187803  12.347   6.935   9.491
61988SOL    HW287804  12.415   6.837   9.584
61989SOL     OW87805   2.192   6.553  11.791
61989SOL    HW187806   2.151   6.559  11.877
61989SOL    HW287807   2.189   6.642  11.756
61990SOL     OW87808   7.636  11.434   5.563
61990SOL    HW187809   7.718  11.440   5.611
61990SOL    HW287810   7.641  11.505   5.498
61991SOL     OW87811  12.407  13.937  12.192
61991SOL    HW187812  12.463  13.935  12.270
61991SOL    HW287813  12.320  13.915  12.225
61992SOL     OW87814   8.127   9.113   7.626
61992SOL    HW187815   8.166   9.120   7.539
61992SOL    HW287816   8.049   9.059   7.613
61993SOL     OW87817  11.160   6.884  13.367
61993SOL    HW187818  11.134   6.913  13.280
61993SOL    HW287819  11.256   6.885  13.365
61994SOL     OW87820   0.629  10.091   8.581
61994SOL    HW187821   0.540  10.127   8.577
61994SOL    HW287822   0.618  10.004   8.619
61995SOL     OW87823   5.626  11.773   7.490
61995SOL    HW187824   5.559  11.708   7.469
61995SOL    HW287825   5.589  11.822   7.564
61996SOL     OW87826  12.772   6.946  10.274
61996SOL    HW187827  12.765   6.954  10.369
61996SOL    HW287828  12.806   6.857  10.260
61997SOL     OW87829  12.286   9.325   4.261
61997SOL    HW187830  12.350   9.356   4.325
61997SOL    HW287831  12.231   9.264   4.309
61998SOL     OW87832  13.551   5.368   1.274
61998SOL    HW187833  13.531   5.448   1.322
61998SOL    HW287834  13.516   5.383   1.186
61999SOL     OW87835  14.834   4.465  11.158
61999SOL    HW187836   0.050   4.456  11.126
61999SOL    HW287837  14.812   4.556  11.138
62000SOL     OW87838   8.516   4.684   9.160
62000SOL    HW187839   8.506   4.748   9.231
62000SOL    HW287840   8.481   4.603   9.196
62001SOL     OW87841   1.045  14.849  14.766
62001SOL    HW187842   0.954  14.868  14.743
62001SOL    HW287843   1.040  14.768  14.818
62002SOL     OW87844  13.661   8.389   1.449
62002SOL    HW187845  13.682   8.298   1.469
62002SOL    HW287846  13.689   8.438   1.527
62003SOL     OW87847  11.298  12.791   3.064
62003SOL    HW187848  11.259  12.783   2.977
62003SOL    HW287849  11.376  12.844   3.050
62004SOL     OW87850  14.865   7.479   3.213
62004SOL    HW187851   0.021   7.453   3.125
62004SOL    HW287852   0.049   7.433   3.273
62005SOL     OW87853  12.391  14.282   2.810
62005SOL    HW187854  12.468  14.236   2.842
62005SOL    HW287855  12.318  14.242   2.858
62006SOL     OW87856   7.778  12.557   7.754
62006SOL    HW187857   7.798  12.605   7.674
62006SOL    HW287858   7.739  12.623   7.812
62007SOL     OW87859   3.498   8.248   5.841
62007SOL    HW187860   3.492   8.238   5.746
62007SOL    HW287861   3.447   8.327   5.860
62008SOL     OW87862   8.373   4.591   1.791
62008SOL    HW187863   8.286   4.550   1.782
62008SOL    HW287864   8.416   4.574   1.707
62009SOL     OW87865  14.052   1.133   1.439
62009SOL    HW187866  14.064   1.090   1.523
62009SOL    HW287867  14.123   1.099   1.384
62010SOL     OW87868  10.268   3.894   2.365
62010SOL    HW187869  10.181   3.868   2.395
62010SOL    HW287870  10.287   3.836   2.291
62011SOL     OW87871  11.021   2.607   3.616
62011SOL    HW187872  11.033   2.674   3.548
62011SOL    HW287873  11.109   2.592   3.650
62012SOL     OW87874   9.172  12.714   8.387
62012SOL    HW187875   9.200  12.622   8.385
62012SOL    HW287876   9.149  12.730   8.478
62013SOL     OW87877  13.869   1.762   3.524
62013SOL    HW187878  13.845   1.834   3.466
62013SOL    HW287879  13.790   1.708   3.528
62014SOL     OW87880  13.402   8.034   0.517
62014SOL    HW187881  13.446   8.061   0.436
62014SOL    HW287882  13.380   8.116   0.561
62015SOL     OW87883   9.017  13.451   5.283
62015SOL    HW187884   9.065  13.424   5.362
62015SOL    HW287885   9.081  13.499   5.231
62016SOL     OW87886  11.972   5.193   6.833
62016SOL    HW187887  12.051   5.141   6.818
62016SOL    HW287888  11.906   5.129   6.858
62017SOL     OW87889   4.405   5.620   9.622
62017SOL    HW187890   4.483   5.666   9.655
62017SOL    HW287891   4.377   5.672   9.547
62018SOL     OW87892   4.677  14.245   4.704
62018SOL    HW187893   4.583  14.259   4.714
62018SOL    HW287894   4.709  14.233   4.794
62019SOL     OW87895  13.158   1.120   8.227
62019SOL    HW187896  13.123   1.091   8.311
62019SOL    HW287897  13.216   1.048   8.200
62020SOL     OW87898   8.268  12.390   7.318
62020SOL    HW187899   8.268  12.414   7.410
62020SOL    HW287900   8.219  12.308   7.314
62021SOL     OW87901   9.284   2.542   4.731
62021SOL    HW187902   9.287   2.450   4.707
62021SOL    HW287903   9.376   2.568   4.739
62022SOL     OW87904  13.304  11.042  14.284
62022SOL    HW187905  13.357  11.120  14.267
62022SOL    HW287906  13.219  11.062  14.244
62023SOL     OW87907  10.565   9.833   3.763
62023SOL    HW187908  10.540   9.924   3.777
62023SOL    HW287909  10.486   9.791   3.728
62024SOL     OW87910  14.517  13.477  14.608
62024SOL    HW187911  14.611  13.483  14.626
62024SOL    HW287912  14.481  13.559  14.640
62025SOL     OW87913   0.889  12.762   0.325
62025SOL    HW187914   0.817  12.791   0.269
62025SOL    HW287915   0.922  12.683   0.282
62026SOL     OW87916   2.621   2.338   1.392
62026SOL    HW187917   2.592   2.276   1.325
62026SOL    HW287918   2.580   2.421   1.368
62027SOL     OW87919  10.239   2.925   3.724
62027SOL    HW187920  10.262   2.925   3.817
62027SOL    HW287921  10.318   2.894   3.679
62028SOL     OW87922  11.554   9.670   0.994
62028SOL    HW187923  11.617   9.610   0.954
62028SOL    HW287924  11.469   9.643   0.959
62029SOL     OW87925   5.899  12.919  12.214
62029SOL    HW187926   5.818  12.940  12.168
62029SOL    HW287927   5.968  12.938  12.151
62030SOL     OW87928   7.725  10.166  13.246
62030SOL    HW187929   7.763  10.092  13.294
62030SOL    HW287930   7.729  10.140  13.154
62031SOL     OW87931  11.793   1.248  10.182
62031SOL    HW187932  11.801   1.154  10.170
62031SOL    HW287933  11.741   1.277  10.107
62032SOL     OW87934   1.313  11.321   3.537
62032SOL    HW187935   1.294  11.297   3.447
62032SOL    HW287936   1.244  11.384   3.560
62033SOL     OW87937   0.397   0.109   8.019
62033SOL    HW187938   0.443   0.138   8.098
62033SOL    HW287939   0.305   0.101   8.046
62034SOL     OW87940  14.032  11.281   1.559
62034SOL    HW187941  14.045  11.321   1.644
62034SOL    HW287942  13.952  11.229   1.568
62035SOL     OW87943   1.456  10.494   4.369
62035SOL    HW187944   1.529  10.435   4.349
62035SOL    HW287945   1.461  10.562   4.302
62036SOL     OW87946   1.810   7.733   2.003
62036SOL    HW187947   1.807   7.701   2.093
62036SOL    HW287948   1.898   7.771   1.994
62037SOL     OW87949  13.847   5.369  12.359
62037SOL    HW187950  13.929   5.320  12.355
62037SOL    HW287951  13.783   5.307  12.395
62038SOL     OW87952   3.708   7.097  10.307
62038SOL    HW187953   3.648   7.144  10.249
62038SOL    HW287954   3.655   7.071  10.382
62039SOL     OW87955  14.080   0.660  10.029
62039SOL    HW187956  14.026   0.629   9.956
62039SOL    HW287957  14.058   0.752  10.038
62040SOL     OW87958   0.533   8.588   7.943
62040SOL    HW187959   0.573   8.629   7.866
62040SOL    HW287960   0.604   8.538   7.983
62041SOL     OW87961  12.495  11.070   3.112
62041SOL    HW187962  12.574  11.020   3.092
62041SOL    HW287963  12.474  11.116   3.031
62042SOL     OW87964   0.808   7.787  12.898
62042SOL    HW187965   0.843   7.863  12.852
62042SOL    HW287966   0.848   7.712  12.854
62043SOL     OW87967  11.636   6.441   3.557
62043SOL    HW187968  11.638   6.484   3.643
62043SOL    HW287969  11.636   6.513   3.494
62044SOL     OW87970  11.448   5.975   8.369
62044SOL    HW187971  11.442   6.064   8.335
62044SOL    HW287972  11.460   5.920   8.292
62045SOL     OW87973   8.548  12.396   7.449
62045SOL    HW187974   8.544  12.356   7.362
62045SOL    HW287975   8.457  12.417   7.470
62046SOL     OW87976  14.338   9.618   0.040
62046SOL    HW187977  14.408   9.672   0.003
62046SOL    HW287978  14.289   9.587  14.838
62047SOL     OW87979  14.317   2.963   6.968
62047SOL    HW187980  14.401   2.918   6.952
62047SOL    HW287981  14.337   3.029   7.033
62048SOL     OW87982   1.311   3.556   0.925
62048SOL    HW187983   1.373   3.548   0.853
62048SOL    HW287984   1.349   3.622   0.983
62049SOL     OW87985   0.321  14.122  12.707
62049SOL    HW187986   0.325  14.195  12.770
62049SOL    HW287987   0.405  14.125  12.662
62050SOL     OW87988   1.632   3.540   2.583
62050SOL    HW187989   1.714   3.496   2.605
62050SOL    HW287990   1.570   3.510   2.650
62051SOL     OW87991  14.696  14.827  12.205
62051SOL    HW187992  14.624  14.765  12.194
62051SOL    HW287993  14.714  14.827  12.299
62052SOL     OW87994   0.496   9.698  11.963
62052SOL    HW187995   0.443   9.642  11.906
62052SOL    HW287996   0.520   9.642  12.037
62053SOL     OW87997  12.560  10.745   1.090
62053SOL    HW187998  12.538  10.654   1.112
62053SOL    HW287999  12.598  10.740   1.002
62054SOL     OW88000   1.348  14.473  13.209
62054SOL    HW188001   1.262  14.475  13.166
62054SOL    HW288002   1.387  14.558  13.189
62055SOL     OW88003   4.050   7.331  10.407
62055SOL    HW188004   3.998   7.282  10.471
62055SOL    HW288005   4.140   7.302  10.422
62056SOL     OW88006  10.106   7.148   7.692
62056SOL    HW188007  10.093   7.226   7.747
62056SOL    HW288008  10.201   7.142   7.682
62057SOL     OW88009  12.815   7.049   7.224
62057SOL    HW188010  12.787   6.988   7.156
62057SOL    HW288011  12.899   7.082   7.194
62058SOL     OW88012  14.064  10.678   9.844
62058SOL    HW188013  13.978  10.683   9.887
62058SOL    HW288014  14.072  10.761   9.797
62059SOL     OW88015   5.670   0.070  10.525
62059SOL    HW188016   5.627  14.863  10.498
62059SOL    HW288017   5.688   0.058  10.618
62060SOL     OW88018   0.693   5.185   0.201
62060SOL    HW188019   0.657   5.221   0.120
62060SOL    HW288020   0.632   5.116   0.226
62061SOL     OW88021   8.015   5.860   2.764
62061SOL    HW188022   7.965   5.941   2.774
62061SOL    HW288023   8.006   5.816   2.849
62062SOL     OW88024   7.364  11.612   6.593
62062SOL    HW188025   7.364  11.640   6.501
62062SOL    HW288026   7.450  11.638   6.626
62063SOL     OW88027   7.308   4.933  14.744
62063SOL    HW188028   7.252   4.992  14.694
62063SOL    HW288029   7.316   4.855  14.688
62064SOL     OW88030  13.180   6.968  10.368
62064SOL    HW188031  13.201   6.887  10.414
62064SOL    HW288032  13.143   7.025  10.435
62065SOL     OW88033   4.251  13.546   3.494
62065SOL    HW188034   4.294  13.473   3.450
62065SOL    HW288035   4.266  13.621   3.436
62066SOL     OW88036   4.584   3.553   6.292
62066SOL    HW188037   4.610   3.472   6.247
62066SOL    HW288038   4.531   3.523   6.366
62067SOL     OW88039   0.797  12.637   5.707
62067SOL    HW188040   0.864  12.692   5.666
62067SOL    HW288041   0.714  12.675   5.681
62068SOL     OW88042   5.133   4.412  14.797
62068SOL    HW188043   5.202   4.351  14.824
62068SOL    HW288044   5.121   4.396  14.704
62069SOL     OW88045   6.840  13.177   9.665
62069SOL    HW188046   6.917  13.173   9.723
62069SOL    HW288047   6.803  13.089   9.670
62070SOL     OW88048   4.656  14.266   6.246
62070SOL    HW188049   4.707  14.189   6.268
62070SOL    HW288050   4.605  14.240   6.169
62071SOL     OW88051   0.617   8.710  11.842
62071SOL    HW188052   0.608   8.750  11.928
62071SOL    HW288053   0.679   8.767  11.795
62072SOL     OW88054   6.319   2.111   3.946
62072SOL    HW188055   6.308   2.138   3.855
62072SOL    HW288056   6.254   2.043   3.959
62073SOL     OW88057   7.085   4.299   0.118
62073SOL    HW188058   7.058   4.353   0.193
62073SOL    HW288059   7.116   4.218   0.158
62074SOL     OW88060  11.764   6.871  13.035
62074SOL    HW188061  11.769   6.962  13.065
62074SOL    HW288062  11.804   6.872  12.948
62075SOL     OW88063   3.356   1.876   9.207
62075SOL    HW188064   3.404   1.958   9.214
62075SOL    HW288065   3.284   1.895   9.146
62076SOL     OW88066   2.378  11.618  14.819
62076SOL    HW188067   2.351  11.684  14.756
62076SOL    HW288068   2.387  11.666   0.028
62077SOL     OW88069   1.727   3.882  13.285
62077SOL    HW188070   1.755   3.970  13.310
62077SOL    HW288071   1.647   3.896  13.233
62078SOL     OW88072  14.708  14.483   8.260
62078SOL    HW188073  14.800  14.457   8.256
62078SOL    HW288074  14.678  14.481   8.169
62079SOL     OW88075   1.851  13.910  10.566
62079SOL    HW188076   1.798  13.844  10.520
62079SOL    HW288077   1.900  13.954  10.497
62080SOL     OW88078   3.027   8.657   7.056
62080SOL    HW188079   2.966   8.721   7.019
62080SOL    HW288080   3.089   8.709   7.107
62081SOL     OW88081  10.847   4.542   3.888
62081SOL    HW188082  10.879   4.619   3.842
62081SOL    HW288083  10.786   4.500   3.828
62082SOL     OW88084  14.347   9.976  13.457
62082SOL    HW188085  14.277   9.940  13.402
62082SOL    HW288086  14.387  10.044  13.403
62083SOL     OW88087   7.016   5.469   7.558
62083SOL    HW188088   7.008   5.522   7.638
62083SOL    HW288089   7.103   5.489   7.525
62084SOL     OW88090  10.173   1.185   0.071
62084SOL    HW188091  10.268   1.175   0.061
62084SOL    HW288092  10.153   1.266   0.025
62085SOL     OW88093  10.895  14.424   9.113
62085SOL    HW188094  10.928  14.416   9.203
62085SOL    HW288095  10.913  14.338   9.073
62086SOL     OW88096   8.742   1.464   0.104
62086SOL    HW188097   8.713   1.551   0.131
62086SOL    HW288098   8.670   1.406   0.128
62087SOL     OW88099   3.550   0.785   1.895
62087SOL    HW188100   3.521   0.742   1.814
62087SOL    HW288101   3.482   0.850   1.913
62088SOL     OW88102  13.643   8.630  13.169
62088SOL    HW188103  13.722   8.683  13.182
62088SOL    HW288104  13.631   8.583  13.252
62089SOL     OW88105  13.616   4.361  11.699
62089SOL    HW188106  13.665   4.345  11.780
62089SOL    HW288107  13.588   4.452  11.705
62090SOL     OW88108  13.550   7.273   8.093
62090SOL    HW188109  13.481   7.211   8.117
62090SOL    HW288110  13.631   7.223   8.102
62091SOL     OW88111   7.369   2.392   3.245
62091SOL    HW188112   7.435   2.437   3.297
62091SOL    HW288113   7.323   2.461   3.198
62092SOL     OW88114   9.820   6.209  14.765
62092SOL    HW188115   9.899   6.263  14.767
62092SOL    HW288116   9.778   6.224  14.849
62093SOL     OW88117  11.632   6.423   6.783
62093SOL    HW188118  11.698   6.404   6.716
62093SOL    HW288119  11.612   6.338   6.822
62094SOL     OW88120   8.331   4.678  14.514
62094SOL    HW188121   8.417   4.708  14.545
62094SOL    HW288122   8.311   4.603  14.569
62095SOL     OW88123   9.992   7.029   5.436
62095SOL    HW188124  10.050   6.960   5.403
62095SOL    HW288125   9.932   7.047   5.363
62096SOL     OW88126   9.112   2.125   0.745
62096SOL    HW188127   9.161   2.050   0.712
62096SOL    HW288128   9.021   2.096   0.747
62097SOL     OW88129  14.484   9.787  12.370
62097SOL    HW188130  14.446   9.863  12.413
62097SOL    HW288131  14.558   9.821  12.320
62098SOL     OW88132  11.833   2.718   2.193
62098SOL    HW188133  11.857   2.636   2.151
62098SOL    HW288134  11.809   2.693   2.283
62099SOL     OW88135   6.334   6.033   9.338
62099SOL    HW188136   6.346   6.124   9.310
62099SOL    HW288137   6.423   5.998   9.343
62100SOL     OW88138   5.809  11.147   8.743
62100SOL    HW188139   5.883  11.121   8.797
62100SOL    HW288140   5.741  11.172   8.806
62101SOL     OW88141  13.919   9.211   2.461
62101SOL    HW188142  13.840   9.167   2.429
62101SOL    HW288143  13.977   9.213   2.385
62102SOL     OW88144  10.355  14.634   5.479
62102SOL    HW188145  10.306  14.712   5.502
62102SOL    HW288146  10.392  14.603   5.561
62103SOL     OW88147  12.404   3.625   3.191
62103SOL    HW188148  12.334   3.572   3.229
62103SOL    HW288149  12.480   3.567   3.189
62104SOL     OW88150   6.234   4.249   3.911
62104SOL    HW188151   6.204   4.253   4.002
62104SOL    HW288152   6.328   4.266   3.916
62105SOL     OW88153   6.055   4.753   4.505
62105SOL    HW188154   5.976   4.806   4.519
62105SOL    HW288155   6.112   4.808   4.451
62106SOL     OW88156   1.064   9.424   5.365
62106SOL    HW188157   0.983   9.463   5.333
62106SOL    HW288158   1.091   9.365   5.296
62107SOL     OW88159  13.134   1.469   8.963
62107SOL    HW188160  13.142   1.447   9.056
62107SOL    HW288161  13.222   1.455   8.927
62108SOL     OW88162  11.134  10.147  11.333
62108SOL    HW188163  11.174  10.096  11.263
62108SOL    HW288164  11.203  10.155  11.400
62109SOL     OW88165   9.732   8.707  10.757
62109SOL    HW188166   9.722   8.771  10.686
62109SOL    HW288167   9.676   8.634  10.732
62110SOL     OW88168   6.111   9.622  10.532
62110SOL    HW188169   6.108   9.715  10.507
62110SOL    HW288170   6.048   9.615  10.604
62111SOL     OW88171   6.243  13.525  11.848
62111SOL    HW188172   6.242  13.529  11.944
62111SOL    HW288173   6.336  13.516  11.826
62112SOL     OW88174   5.249   6.105   3.840
62112SOL    HW188175   5.323   6.069   3.890
62112SOL    HW288176   5.178   6.112   3.904
62113SOL     OW88177  10.951   5.257   8.706
62113SOL    HW188178  11.011   5.184   8.694
62113SOL    HW288179  10.915   5.245   8.794
62114SOL     OW88180   8.265   3.184  10.112
62114SOL    HW188181   8.221   3.213  10.032
62114SOL    HW288182   8.282   3.264  10.161
62115SOL     OW88183   6.729  13.152  12.043
62115SOL    HW188184   6.789  13.186  12.110
62115SOL    HW288185   6.642  13.164  12.082
62116SOL     OW88186   0.755   8.669   2.330
62116SOL    HW188187   0.720   8.652   2.418
62116SOL    HW288188   0.844   8.634   2.332
62117SOL     OW88189   2.703   0.906   6.350
62117SOL    HW188190   2.645   0.864   6.287
62117SOL    HW288191   2.676   0.997   6.350
62118SOL     OW88192   2.399  12.603  12.739
62118SOL    HW188193   2.355  12.552  12.806
62118SOL    HW288194   2.457  12.540  12.695
62119SOL     OW88195   9.216   3.267  11.498
62119SOL    HW188196   9.124   3.265  11.523
62119SOL    HW288197   9.227   3.192  11.439
62120SOL     OW88198   6.892   1.427   3.849
62120SOL    HW188199   6.914   1.366   3.920
62120SOL    HW288200   6.797   1.431   3.849
62121SOL     OW88201   5.221   1.811   3.364
62121SOL    HW188202   5.291   1.867   3.332
62121SOL    HW288203   5.144   1.867   3.367
62122SOL     OW88204   5.690   8.528   1.220
62122SOL    HW188205   5.699   8.567   1.307
62122SOL    HW288206   5.775   8.491   1.200
62123SOL     OW88207  12.330   7.804   5.427
62123SOL    HW188208  12.258   7.777   5.485
62123SOL    HW288209  12.324   7.899   5.425
62124SOL     OW88210   9.747   1.736   3.147
62124SOL    HW188211   9.719   1.782   3.068
62124SOL    HW288212   9.669   1.689   3.176
62125SOL     OW88213   8.757   1.093  13.922
62125SOL    HW188214   8.707   1.012  13.927
62125SOL    HW288215   8.722   1.139  13.846
62126SOL     OW88216  12.162  13.862   1.710
62126SOL    HW188217  12.197  13.835   1.625
62126SOL    HW288218  12.239  13.882   1.763
62127SOL     OW88219  14.689   0.388   2.288
62127SOL    HW188220  14.622   0.327   2.319
62127SOL    HW288221  14.650   0.429   2.211
62128SOL     OW88222   9.667   2.115   0.431
62128SOL    HW188223   9.739   2.121   0.493
62128SOL    HW288224   9.696   2.052   0.365
62129SOL     OW88225  13.887  14.857  11.237
62129SOL    HW188226  13.953  14.838  11.171
62129SOL    HW288227  13.909  14.799  11.310
62130SOL     OW88228   3.364   7.587   2.834
62130SOL    HW188229   3.327   7.673   2.853
62130SOL    HW288230   3.458   7.601   2.836
62131SOL     OW88231   4.064   0.573   3.078
62131SOL    HW188232   4.116   0.529   3.146
62131SOL    HW288233   4.006   0.632   3.127
62132SOL     OW88234   5.770   9.641   1.825
62132SOL    HW188235   5.763   9.737   1.825
62132SOL    HW288236   5.707   9.613   1.892
62133SOL     OW88237   8.490   8.001  11.544
62133SOL    HW188238   8.493   8.089  11.582
62133SOL    HW288239   8.462   8.014  11.454
62134SOL     OW88240   7.563   3.122   0.801
62134SOL    HW188241   7.500   3.185   0.765
62134SOL    HW288242   7.536   3.111   0.892
62135SOL     OW88243   7.163  10.609  11.108
62135SOL    HW188244   7.202  10.682  11.156
62135SOL    HW288245   7.224  10.536  11.121
62136SOL     OW88246   1.676   9.337   1.915
62136SOL    HW188247   1.613   9.301   1.977
62136SOL    HW288248   1.722   9.405   1.963
62137SOL     OW88249   6.468   0.712  14.873
62137SOL    HW188250   6.501   0.673   0.080
62137SOL    HW288251   6.512   0.796  14.866
62138SOL     OW88252   5.360   8.394  10.069
62138SOL    HW188253   5.451   8.413  10.088
62138SOL    HW288254   5.354   8.298  10.071
62139SOL     OW88255   0.315  13.131   9.385
62139SOL    HW188256   0.246  13.149   9.322
62139SOL    HW288257   0.292  13.185   9.461
62140SOL     OW88258   0.486   7.686   6.465
62140SOL    HW188259   0.562   7.656   6.415
62140SOL    HW288260   0.424   7.715   6.397
62141SOL     OW88261   5.604   6.753   8.962
62141SOL    HW188262   5.514   6.786   8.961
62141SOL    HW288263   5.609   6.700   9.041
62142SOL     OW88264   1.726   6.217  11.432
62142SOL    HW188265   1.654   6.252  11.484
62142SOL    HW288266   1.793   6.286  11.435
62143SOL     OW88267   7.684   4.716   3.628
62143SOL    HW188268   7.762   4.674   3.664
62143SOL    HW288269   7.718   4.773   3.559
62144SOL     OW88270  13.684   0.362   3.172
62144SOL    HW188271  13.702   0.319   3.255
62144SOL    HW288272  13.759   0.338   3.117
62145SOL     OW88273   4.947   2.637  14.648
62145SOL    HW188274   4.965   2.564  14.708
62145SOL    HW288275   4.860   2.667  14.673
62146SOL     OW88276  13.206  13.821   7.844
62146SOL    HW188277  13.162  13.874   7.911
62146SOL    HW288278  13.224  13.738   7.887
62147SOL     OW88279   8.698   3.180   8.214
62147SOL    HW188280   8.736   3.152   8.131
62147SOL    HW288281   8.640   3.107   8.239
62148SOL     OW88282   3.446  14.342   5.316
62148SOL    HW188283   3.420  14.409   5.252
62148SOL    HW288284   3.406  14.261   5.283
62149SOL     OW88285   6.548  13.952  11.435
62149SOL    HW188286   6.513  14.035  11.467
62149SOL    HW288287   6.490  13.927  11.363
62150SOL     OW88288   9.397   1.051  13.440
62150SOL    HW188289   9.303   1.041  13.422
62150SOL    HW288290   9.403   1.048  13.535
62151SOL     OW88291   7.568  14.440   4.810
62151SOL    HW188292   7.484  14.415   4.849
62151SOL    HW288293   7.553  14.433   4.715
62152SOL     OW88294   1.233  11.718   7.837
62152SOL    HW188295   1.160  11.738   7.778
62152SOL    HW288296   1.214  11.631   7.872
62153SOL     OW88297  11.207  11.997   1.382
62153SOL    HW188298  11.246  11.958   1.304
62153SOL    HW288299  11.282  12.023   1.435
62154SOL     OW88300  10.178  11.503   9.814
62154SOL    HW188301  10.113  11.439   9.785
62154SOL    HW288302  10.167  11.507   9.909
62155SOL     OW88303  12.939  12.983   5.166
62155SOL    HW188304  12.922  13.030   5.084
62155SOL    HW288305  13.028  12.949   5.156
62156SOL     OW88306   8.959   5.290  10.828
62156SOL    HW188307   8.902   5.366  10.816
62156SOL    HW288308   9.038   5.325  10.869
62157SOL     OW88309  12.166   1.997   3.523
62157SOL    HW188310  12.105   2.019   3.453
62157SOL    HW288311  12.240   2.057   3.511
62158SOL     OW88312  14.287   3.409   3.652
62158SOL    HW188313  14.206   3.448   3.684
62158SOL    HW288314  14.328   3.372   3.731
62159SOL     OW88315  12.661   5.018  11.447
62159SOL    HW188316  12.735   5.037  11.389
62159SOL    HW288317  12.600   5.089  11.430
62160SOL     OW88318   9.306  10.797  10.023
62160SOL    HW188319   9.306  10.838  10.109
62160SOL    HW288320   9.220  10.820   9.986
62161SOL     OW88321   8.520   3.704   2.214
62161SOL    HW188322   8.569   3.707   2.296
62161SOL    HW288323   8.438   3.749   2.233
62162SOL     OW88324  11.849   2.317   5.045
62162SOL    HW188325  11.851   2.241   4.987
62162SOL    HW288326  11.876   2.282   5.131
62163SOL     OW88327   7.366  10.515   5.118
62163SOL    HW188328   7.363  10.608   5.095
62163SOL    HW288329   7.305  10.473   5.057
62164SOL     OW88330   2.736  12.259   2.195
62164SOL    HW188331   2.661  12.318   2.206
62164SOL    HW288332   2.698  12.177   2.164
62165SOL     OW88333   0.468   2.877   4.650
62165SOL    HW188334   0.453   2.948   4.587
62165SOL    HW288335   0.380   2.841   4.667
62166SOL     OW88336   7.617   2.838   2.603
62166SOL    HW188337   7.548   2.772   2.610
62166SOL    HW288338   7.626   2.873   2.692
62167SOL     OW88339   5.298   2.782  12.791
62167SOL    HW188340   5.273   2.861  12.742
62167SOL    HW288341   5.240   2.782  12.867
62168SOL     OW88342   7.865   6.026  14.110
62168SOL    HW188343   7.956   6.029  14.138
62168SOL    HW288344   7.831   5.945  14.149
62169SOL     OW88345  11.964   8.984   6.361
62169SOL    HW188346  11.906   8.990   6.285
62169SOL    HW288347  11.942   9.061   6.414
62170SOL     OW88348  14.245   7.724   2.637
62170SOL    HW188349  14.335   7.706   2.666
62170SOL    HW288350  14.250   7.811   2.598
62171SOL     OW88351   2.622   7.680   6.710
62171SOL    HW188352   2.625   7.756   6.652
62171SOL    HW288353   2.708   7.640   6.703
62172SOL     OW88354   1.717   2.761   5.807
62172SOL    HW188355   1.745   2.688   5.752
62172SOL    HW288356   1.650   2.724   5.864
62173SOL     OW88357   1.496   5.244   7.676
62173SOL    HW188358   1.408   5.236   7.641
62173SOL    HW288359   1.538   5.311   7.621
62174SOL     OW88360  10.578   5.835   0.106
62174SOL    HW188361  10.513   5.779   0.064
62174SOL    HW288362  10.617   5.780   0.175
62175SOL     OW88363  11.795  10.867   0.279
62175SOL    HW188364  11.782  10.782   0.322
62175SOL    HW288365  11.710  10.911   0.288
62176SOL     OW88366  12.743   7.518   7.044
62176SOL    HW188367  12.701   7.570   6.976
62176SOL    HW288368  12.829   7.495   7.007
62177SOL     OW88369   1.202   5.187  10.892
62177SOL    HW188370   1.146   5.117  10.924
62177SOL    HW288371   1.167   5.266  10.933
62178SOL     OW88372  13.751  11.375   4.356
62178SOL    HW188373  13.811  11.340   4.422
62178SOL    HW288374  13.679  11.312   4.355
62179SOL     OW88375  10.473   6.817   5.477
62179SOL    HW188376  10.404   6.836   5.541
62179SOL    HW288377  10.457   6.880   5.406
62180SOL     OW88378  14.323   2.735   0.001
62180SOL    HW188379  14.408   2.777  14.873
62180SOL    HW288380  14.260   2.807   0.001
62181SOL     OW88381   3.363  11.868  10.606
62181SOL    HW188382   3.441  11.851  10.659
62181SOL    HW288383   3.384  11.833  10.520
62182SOL     OW88384   0.957   3.336   4.651
62182SOL    HW188385   0.920   3.268   4.707
62182SOL    HW288386   1.028   3.374   4.704
62183SOL     OW88387   5.579  14.699   1.904
62183SOL    HW188388   5.500  14.746   1.879
62183SOL    HW288389   5.578  14.620   1.850
62184SOL     OW88390   8.000   8.283  14.336
62184SOL    HW188391   8.005   8.196  14.375
62184SOL    HW288392   7.984   8.267  14.243
62185SOL     OW88393   2.215   7.886   7.065
62185SOL    HW188394   2.179   7.913   6.981
62185SOL    HW288395   2.307   7.913   7.062
62186SOL     OW88396  14.542   6.610   1.220
62186SOL    HW188397  14.597   6.591   1.296
62186SOL    HW288398  14.494   6.528   1.204
62187SOL     OW88399  10.591  10.575   3.083
62187SOL    HW188400  10.567  10.574   3.175
62187SOL    HW288401  10.650  10.651   3.074
62188SOL     OW88402  10.342   3.188   5.759
62188SOL    HW188403  10.414   3.128   5.780
62188SOL    HW288404  10.372   3.234   5.681
62189SOL     OW88405   0.217   0.252  11.613
62189SOL    HW188406   0.285   0.233  11.677
62189SOL    HW288407   0.155   0.307  11.660
62190SOL     OW88408   3.544   9.956   7.416
62190SOL    HW188409   3.561  10.040   7.457
62190SOL    HW288410   3.449   9.943   7.425
62191SOL     OW88411   2.633   2.476   2.465
62191SOL    HW188412   2.600   2.544   2.523
62191SOL    HW288413   2.636   2.397   2.520
62192SOL     OW88414   5.258   5.514   1.908
62192SOL    HW188415   5.212   5.530   1.825
62192SOL    HW288416   5.339   5.471   1.883
62193SOL     OW88417   0.940   5.483   2.598
62193SOL    HW188418   0.952   5.534   2.518
62193SOL    HW288419   0.848   5.457   2.596
62194SOL     OW88420  11.464   6.252   8.305
62194SOL    HW188421  11.559   6.259   8.301
62194SOL    HW288422  11.444   6.255   8.399
62195SOL     OW88423   1.621   6.829   1.534
62195SOL    HW188424   1.601   6.793   1.447
62195SOL    HW288425   1.698   6.779   1.563
62196SOL     OW88426  12.969   5.925  14.873
62196SOL    HW188427  12.922   5.876  14.805
62196SOL    HW288428  12.937   5.888   0.082
62197SOL     OW88429  10.828  10.254   9.361
62197SOL    HW188430  10.900  10.268   9.423
62197SOL    HW288431  10.752  10.240   9.417
62198SOL     OW88432   8.121  13.047   1.859
62198SOL    HW188433   8.064  13.097   1.918
62198SOL    HW288434   8.198  13.026   1.912
62199SOL     OW88435   5.190  14.055   3.740
62199SOL    HW188436   5.152  14.133   3.779
62199SOL    HW288437   5.252  14.022   3.806
62200SOL     OW88438   4.173   3.939   2.068
62200SOL    HW188439   4.226   3.994   2.125
62200SOL    HW288440   4.152   3.995   1.993
62201SOL     OW88441  13.708  14.398   9.424
62201SOL    HW188442  13.681  14.490   9.432
62201SOL    HW288443  13.648  14.351   9.481
62202SOL     OW88444   0.763   2.110  12.494
62202SOL    HW188445   0.806   2.192  12.469
62202SOL    HW288446   0.688   2.103  12.435
62203SOL     OW88447  14.493  14.865  10.645
62203SOL    HW188448  14.557   0.057  10.617
62203SOL    HW288449  14.495  14.868  10.740
62204SOL     OW88450  12.565  12.416   8.132
62204SOL    HW188451  12.660  12.426   8.142
62204SOL    HW288452  12.546  12.453   8.046
62205SOL     OW88453   7.039  13.621  10.740
62205SOL    HW188454   7.016  13.706  10.778
62205SOL    HW288455   7.131  13.610  10.761
62206SOL     OW88456   0.026   1.750  12.663
62206SOL    HW188457   0.080   1.693  12.719
62206SOL    HW288458  14.846   1.799  12.725
62207SOL     OW88459   1.000   4.538   9.931
62207SOL    HW188460   1.090   4.509   9.918
62207SOL    HW288461   0.950   4.456   9.939
62208SOL     OW88462   5.137  13.214  11.878
62208SOL    HW188463   5.214  13.251  11.836
62208SOL    HW288464   5.132  13.124  11.846
62209SOL     OW88465  11.315   5.208   7.203
62209SOL    HW188466  11.307   5.197   7.108
62209SOL    HW288467  11.361   5.291   7.213
62210SOL     OW88468  14.072   8.540   7.544
62210SOL    HW188469  14.161   8.576   7.546
62210SOL    HW288470  14.036   8.562   7.630
62211SOL     OW88471  10.205  12.623   2.411
62211SOL    HW188472  10.183  12.645   2.320
62211SOL    HW288473  10.156  12.542   2.428
62212SOL     OW88474  13.629   0.951   4.362
62212SOL    HW188475  13.626   0.856   4.347
62212SOL    HW288476  13.539   0.976   4.379
62213SOL     OW88477  11.335   8.923   0.100
62213SOL    HW188478  11.326   8.830   0.082
62213SOL    HW288479  11.283   8.937   0.179
62214SOL     OW88480   1.603  10.998   1.243
62214SOL    HW188481   1.577  10.913   1.207
62214SOL    HW288482   1.584  11.060   1.173
62215SOL     OW88483  12.430   3.760   0.365
62215SOL    HW188484  12.359   3.746   0.301
62215SOL    HW288485  12.492   3.689   0.348
62216SOL     OW88486  14.220   8.194   8.062
62216SOL    HW188487  14.215   8.111   8.110
62216SOL    HW288488  14.130   8.227   8.060
62217SOL     OW88489   9.832   0.799   4.275
62217SOL    HW188490   9.921   0.798   4.241
62217SOL    HW288491   9.776   0.787   4.198
62218SOL     OW88492   5.305   0.692   8.599
62218SOL    HW188493   5.338   0.634   8.667
62218SOL    HW288494   5.262   0.763   8.647
62219SOL     OW88495   5.452   6.471   7.152
62219SOL    HW188496   5.429   6.562   7.168
62219SOL    HW288497   5.547   6.468   7.157
62220SOL     OW88498   5.543  13.938  12.143
62220SOL    HW188499   5.610  13.872  12.157
62220SOL    HW288500   5.585  14.021  12.167
62221SOL     OW88501  13.332   6.779   3.571
62221SOL    HW188502  13.342   6.873   3.587
62221SOL    HW288503  13.246   6.770   3.529
62222SOL     OW88504   5.101   0.206   0.039
62222SOL    HW188505   5.103   0.154  14.832
62222SOL    HW288506   5.033   0.165   0.092
62223SOL     OW88507   4.643   9.643   6.176
62223SOL    HW188508   4.626   9.608   6.263
62223SOL    HW288509   4.738   9.654   6.173
62224SOL     OW88510   6.959   2.669  12.133
62224SOL    HW188511   6.979   2.755  12.097
62224SOL    HW288512   7.024   2.656  12.202
62225SOL     OW88513   4.055   0.859   5.423
62225SOL    HW188514   3.983   0.797   5.419
62225SOL    HW288515   4.058   0.888   5.515
62226SOL     OW88516   9.670  11.558   4.457
62226SOL    HW188517   9.731  11.514   4.398
62226SOL    HW288518   9.704  11.540   4.545
62227SOL     OW88519  11.604   9.338   5.972
62227SOL    HW188520  11.653   9.276   5.918
62227SOL    HW288521  11.670   9.398   6.006
62228SOL     OW88522  14.093   7.494   0.529
62228SOL    HW188523  14.148   7.565   0.495
62228SOL    HW288524  14.121   7.417   0.480
62229SOL     OW88525  10.003  10.061  12.597
62229SOL    HW188526  10.060  10.031  12.669
62229SOL    HW288527   9.945  10.125  12.638
62230SOL     OW88528   9.959   3.077  10.077
62230SOL    HW188529  10.046   3.110  10.056
62230SOL    HW288530   9.901   3.152  10.066
62231SOL     OW88531   6.288   7.000   0.404
62231SOL    HW188532   6.221   7.062   0.434
62231SOL    HW288533   6.332   6.972   0.485
62232SOL     OW88534   5.840   4.822  10.212
62232SOL    HW188535   5.839   4.867  10.127
62232SOL    HW288536   5.748   4.814  10.236
62233SOL     OW88537   9.089   1.169   2.535
62233SOL    HW188538   9.032   1.244   2.517
62233SOL    HW288539   9.034   1.093   2.515
62234SOL     OW88540  11.104  10.730   5.635
62234SOL    HW188541  11.145  10.668   5.575
62234SOL    HW288542  11.010  10.723   5.617
62235SOL     OW88543   0.808   8.841  11.664
62235SOL    HW188544   0.869   8.832  11.592
62235SOL    HW288545   0.815   8.933  11.690
62236SOL     OW88546   9.703  12.675   8.090
62236SOL    HW188547   9.719  12.734   8.016
62236SOL    HW288548   9.665  12.732   8.158
62237SOL     OW88549   5.911   1.361   3.479
62237SOL    HW188550   6.001   1.340   3.454
62237SOL    HW288551   5.863   1.280   3.466
62238SOL     OW88552   0.018   7.230   0.904
62238SOL    HW188553   0.038   7.215   0.811
62238SOL    HW288554   0.097   7.272   0.939
62239SOL     OW88555   5.280   9.573   2.053
62239SOL    HW188556   5.311   9.519   2.125
62239SOL    HW288557   5.335   9.652   2.057
62240SOL     OW88558   7.452   5.405  13.237
62240SOL    HW188559   7.378   5.408  13.298
62240SOL    HW288560   7.475   5.312  13.232
62241SOL     OW88561  12.434   9.574  10.303
62241SOL    HW188562  12.427   9.529  10.219
62241SOL    HW288563  12.514   9.540  10.342
62242SOL     OW88564   6.000   5.811   0.556
62242SOL    HW188565   6.039   5.726   0.578
62242SOL    HW288566   5.906   5.796   0.557
62243SOL     OW88567   4.118  11.775   0.008
62243SOL    HW188568   4.203  11.760   0.048
62243SOL    HW288569   4.061  11.802   0.081
62244SOL     OW88570   4.012  12.458   8.287
62244SOL    HW188571   3.998  12.539   8.239
62244SOL    HW288572   4.030  12.486   8.377
62245SOL     OW88573   0.969   9.832   8.550
62245SOL    HW188574   0.994   9.775   8.477
62245SOL    HW288575   0.991   9.920   8.520
62246SOL     OW88576   9.028   8.870  10.400
62246SOL    HW188577   9.096   8.935  10.384
62246SOL    HW288578   8.988   8.896  10.483
62247SOL     OW88579   8.773  14.607   5.647
62247SOL    HW188580   8.803  14.697   5.646
62247SOL    HW288581   8.677  14.613   5.649
62248SOL     OW88582   9.001   7.548   6.263
62248SOL    HW188583   9.059   7.624   6.254
62248SOL    HW288584   8.945   7.552   6.185
62249SOL     OW88585   1.380  12.633   8.676
62249SOL    HW188586   1.471  12.644   8.648
62249SOL    HW288587   1.387  12.583   8.757
62250SOL     OW88588   0.437   8.312  14.797
62250SOL    HW188589   0.428   8.253  14.722
62250SOL    HW288590   0.507   8.275  14.849
62251SOL     OW88591   2.372   7.221  11.588
62251SOL    HW188592   2.386   7.286  11.656
62251SOL    HW288593   2.453   7.170  11.586
62252SOL     OW88594   5.234  10.999   5.897
62252SOL    HW188595   5.267  10.974   5.810
62252SOL    HW288596   5.265  10.929   5.955
62253SOL     OW88597   8.809   0.689   0.736
62253SOL    HW188598   8.722   0.728   0.728
62253SOL    HW288599   8.796   0.615   0.796
62254SOL     OW88600  10.498  10.175   0.342
62254SOL    HW188601  10.592  10.189   0.344
62254SOL    HW288602  10.461  10.255   0.379
62255SOL     OW88603   3.221  11.125   8.098
62255SOL    HW188604   3.178  11.040   8.088
62255SOL    HW288605   3.230  11.158   8.009
62256SOL     OW88606   3.028   6.016  14.084
62256SOL    HW188607   3.097   6.011  14.150
62256SOL    HW288608   3.070   6.055  14.008
62257SOL     OW88609   0.334   4.255   9.081
62257SOL    HW188610   0.424   4.284   9.099
62257SOL    HW288611   0.282   4.335   9.087
62258SOL     OW88612  14.226  13.649   6.984
62258SOL    HW188613  14.223  13.727   6.930
62258SOL    HW288614  14.146  13.602   6.962
62259SOL     OW88615   7.199   6.946   9.373
62259SOL    HW188616   7.245   7.026   9.398
62259SOL    HW288617   7.107   6.966   9.386
62260SOL     OW88618   1.746   7.484   7.673
62260SOL    HW188619   1.776   7.517   7.757
62260SOL    HW288620   1.810   7.416   7.651
62261SOL     OW88621  11.166  10.203   8.705
62261SOL    HW188622  11.189  10.235   8.617
62261SOL    HW288623  11.240  10.227   8.760
62262SOL     OW88624  10.111   5.923   6.818
62262SOL    HW188625  10.171   5.849   6.831
62262SOL    HW288626  10.030   5.894   6.860
62263SOL     OW88627   8.448  11.497   3.450
62263SOL    HW188628   8.472  11.424   3.507
62263SOL    HW288629   8.455  11.462   3.361
62264SOL     OW88630   0.380  10.760  14.142
62264SOL    HW188631   0.429  10.803  14.212
62264SOL    HW288632   0.310  10.713  14.187
62265SOL     OW88633   9.532  11.962  14.675
62265SOL    HW188634   9.511  11.932  14.763
62265SOL    HW288635   9.625  11.986  14.680
62266SOL     OW88636   5.169   5.617   7.306
62266SOL    HW188637   5.114   5.641   7.381
62266SOL    HW288638   5.194   5.700   7.267
62267SOL     OW88639   5.835   9.671  10.702
62267SOL    HW188640   5.856   9.581  10.726
62267SOL    HW288641   5.792   9.664  10.617
62268SOL     OW88642   9.563   5.423   2.190
62268SOL    HW188643   9.622   5.370   2.244
62268SOL    HW288644   9.589   5.513   2.209
62269SOL     OW88645  13.347   1.634  10.801
62269SOL    HW188646  13.381   1.545  10.810
62269SOL    HW288647  13.283   1.643  10.872
62270SOL     OW88648  12.545   0.274  11.911
62270SOL    HW188649  12.506   0.229  11.986
62270SOL    HW288650  12.476   0.278  11.846
62271SOL     OW88651   6.876   7.977   9.285
62271SOL    HW188652   6.844   8.058   9.246
62271SOL    HW288653   6.967   7.971   9.257
62272SOL     OW88654  12.760   6.859  13.320
62272SOL    HW188655  12.808   6.827  13.397
62272SOL    HW288656  12.746   6.781  13.267
62273SOL     OW88657   6.405  12.506  12.271
62273SOL    HW188658   6.375  12.443  12.337
62273SOL    HW288659   6.475  12.555  12.314
62274SOL     OW88660  13.232   4.156  10.962
62274SOL    HW188661  13.157   4.135  10.907
62274SOL    HW288662  13.211   4.241  11.001
62275SOL     OW88663   4.898   4.753   5.393
62275SOL    HW188664   4.809   4.763   5.427
62275SOL    HW288665   4.927   4.843   5.378
62276SOL     OW88666  10.567  14.125   5.140
62276SOL    HW188667  10.617  14.077   5.073
62276SOL    HW288668  10.617  14.111   5.221
62277SOL     OW88669   9.737   8.242   6.124
62277SOL    HW188670   9.788   8.166   6.098
62277SOL    HW288671   9.691   8.268   6.044
62278SOL     OW88672   0.898   6.605  11.776
62278SOL    HW188673   0.814   6.622  11.733
62278SOL    HW288674   0.905   6.671  11.845
62279SOL     OW88675   0.302  14.011   3.076
62279SOL    HW188676   0.236  13.972   3.019
62279SOL    HW288677   0.340  13.936   3.122
62280SOL     OW88678   6.507   4.133   7.966
62280SOL    HW188679   6.441   4.170   8.025
62280SOL    HW288680   6.503   4.188   7.888
62281SOL     OW88681   3.067   4.640  10.401
62281SOL    HW188682   3.029   4.706  10.459
62281SOL    HW288683   3.136   4.598  10.452
62282SOL     OW88684  11.501   7.432  10.776
62282SOL    HW188685  11.465   7.516  10.806
62282SOL    HW288686  11.579   7.420  10.830
62283SOL     OW88687  12.827  11.942  11.788
62283SOL    HW188688  12.898  11.926  11.727
62283SOL    HW288689  12.857  11.903  11.870
62284SOL     OW88690   6.132   5.369   5.012
62284SOL    HW188691   6.196   5.313   4.968
62284SOL    HW288692   6.093   5.421   4.941
62285SOL     OW88693   2.230   2.259   4.170
62285SOL    HW188694   2.235   2.321   4.098
62285SOL    HW288695   2.203   2.311   4.245
62286SOL     OW88696   0.018   0.524   0.388
62286SOL    HW188697   0.040   0.460   0.320
62286SOL    HW288698  14.848   0.595   0.340
62287SOL     OW88699  13.454  11.572   0.287
62287SOL    HW188700  13.389  11.619   0.340
62287SOL    HW288701  13.537  11.617   0.305
62288SOL     OW88702   6.840   3.222   7.055
62288SOL    HW188703   6.865   3.194   6.967
62288SOL    HW288704   6.752   3.260   7.044
62289SOL     OW88705  13.074   4.079   2.054
62289SOL    HW188706  13.106   4.004   2.003
62289SOL    HW288707  13.070   4.047   2.144
62290SOL     OW88708   3.156  10.243  13.574
62290SOL    HW188709   3.085  10.300  13.544
62290SOL    HW288710   3.233  10.273  13.525
62291SOL     OW88711   1.982  13.092   9.237
62291SOL    HW188712   2.020  13.026   9.179
62291SOL    HW288713   1.963  13.167   9.180
62292SOL     OW88714   2.584   4.573   8.776
62292SOL    HW188715   2.641   4.503   8.807
62292SOL    HW288716   2.594   4.572   8.681
62293SOL     OW88717   3.804  13.095  13.338
62293SOL    HW188718   3.836  13.007  13.319
62293SOL    HW288719   3.743  13.084  13.410
62294SOL     OW88720  11.195   6.558  10.043
62294SOL    HW188721  11.106   6.533  10.018
62294SOL    HW288722  11.216   6.503  10.119
62295SOL     OW88723   8.020  13.077   8.296
62295SOL    HW188724   8.016  13.005   8.358
62295SOL    HW288725   7.935  13.074   8.250
62296SOL     OW88726   0.041   1.335  12.492
62296SOL    HW188727   0.086   1.307  12.412
62296SOL    HW288728   0.024   1.428  12.480
62297SOL     OW88729   4.096   8.801  12.715
62297SOL    HW188730   4.071   8.890  12.692
62297SOL    HW288731   4.061   8.789  12.804
62298SOL     OW88732   4.781  12.598  10.305
62298SOL    HW188733   4.748  12.598  10.394
62298SOL    HW288734   4.812  12.687  10.290
62299SOL     OW88735   1.808  11.368   5.461
62299SOL    HW188736   1.903  11.370   5.448
62299SOL    HW288737   1.777  11.450   5.422
62300SOL     OW88738   4.148   3.223   2.670
62300SOL    HW188739   4.122   3.196   2.582
62300SOL    HW288740   4.074   3.200   2.726
62301SOL     OW88741  14.490   2.028   3.703
62301SOL    HW188742  14.484   2.044   3.797
62301SOL    HW288743  14.584   2.031   3.684
62302SOL     OW88744  12.918   0.329   7.382
62302SOL    HW188745  12.860   0.332   7.458
62302SOL    HW288746  12.884   0.259   7.328
62303SOL     OW88747   6.937   1.049   2.680
62303SOL    HW188748   7.003   1.055   2.611
62303SOL    HW288749   6.985   1.071   2.760
62304SOL     OW88750   1.971   4.725   1.026
62304SOL    HW188751   1.907   4.746   0.958
62304SOL    HW288752   1.920   4.680   1.094
62305SOL     OW88753  12.146   4.889   8.455
62305SOL    HW188754  12.207   4.951   8.414
62305SOL    HW288755  12.074   4.881   8.392
62306SOL     OW88756   8.281   2.227   2.335
62306SOL    HW188757   8.239   2.166   2.396
62306SOL    HW288758   8.241   2.312   2.355
62307SOL     OW88759  11.842   8.053   4.860
62307SOL    HW188760  11.867   7.964   4.885
62307SOL    HW288761  11.901   8.075   4.788
62308SOL     OW88762  10.666  11.269  12.962
62308SOL    HW188763  10.665  11.263  13.057
62308SOL    HW288764  10.710  11.189  12.933
62309SOL     OW88765   7.893   5.377   5.205
62309SOL    HW188766   7.855   5.311   5.147
62309SOL    HW288767   7.844   5.457   5.185
62310SOL     OW88768  12.931   4.068  12.556
62310SOL    HW188769  12.875   4.146  12.554
62310SOL    HW288770  13.013   4.098  12.596
62311SOL     OW88771  11.186  12.395   1.707
62311SOL    HW188772  11.158  12.393   1.616
62311SOL    HW288773  11.104  12.401   1.757
62312SOL     OW88774   9.075   6.815   9.435
62312SOL    HW188775   9.109   6.772   9.356
62312SOL    HW288776   9.035   6.744   9.485
62313SOL     OW88777   0.665   7.944   8.545
62313SOL    HW188778   0.677   8.035   8.518
62313SOL    HW288779   0.658   7.896   8.462
62314SOL     OW88780   5.368   9.234   9.287
62314SOL    HW188781   5.274   9.218   9.276
62314SOL    HW288782   5.397   9.262   9.200
62315SOL     OW88783   1.225   3.387  13.905
62315SOL    HW188784   1.174   3.457  13.864
62315SOL    HW288785   1.159   3.331  13.946
62316SOL     OW88786   1.949  13.946   7.383
62316SOL    HW188787   1.974  13.887   7.454
62316SOL    HW288788   1.885  13.896   7.332
62317SOL     OW88789   7.884   8.775   1.322
62317SOL    HW188790   7.840   8.779   1.407
62317SOL    HW288791   7.956   8.714   1.335
62318SOL     OW88792   4.357   4.448   9.192
62318SOL    HW188793   4.319   4.536   9.183
62318SOL    HW288794   4.334   4.421   9.281
62319SOL     OW88795  14.546  10.483  10.424
62319SOL    HW188796  14.632  10.452  10.396
62319SOL    HW288797  14.489  10.406  10.418
62320SOL     OW88798   9.395  10.269  11.323
62320SOL    HW188799   9.368  10.242  11.411
62320SOL    HW288800   9.406  10.364  11.329
62321SOL     OW88801   8.423  12.456   8.171
62321SOL    HW188802   8.465  12.530   8.126
62321SOL    HW288803   8.485  12.384   8.160
62322SOL     OW88804   7.838  14.459  10.264
62322SOL    HW188805   7.787  14.529  10.304
62322SOL    HW288806   7.857  14.490  10.176
62323SOL     OW88807   3.488  14.155   3.208
62323SOL    HW188808   3.579  14.183   3.218
62323SOL    HW288809   3.462  14.185   3.121
62324SOL     OW88810   3.753   8.416   1.110
62324SOL    HW188811   3.778   8.325   1.099
62324SOL    HW288812   3.744   8.428   1.205
62325SOL     OW88813   1.926   2.324  13.723
62325SOL    HW188814   1.988   2.397  13.727
62325SOL    HW288815   1.870   2.336  13.800
62326SOL     OW88816  13.425   8.671  14.276
62326SOL    HW188817  13.366   8.675  14.352
62326SOL    HW288818  13.513   8.674  14.314
62327SOL     OW88819  14.776   7.329   8.247
62327SOL    HW188820  14.714   7.346   8.176
62327SOL    HW288821  14.728   7.273   8.308
62328SOL     OW88822  11.847   4.486   8.605
62328SOL    HW188823  11.808   4.547   8.668
62328SOL    HW288824  11.940   4.510   8.603
62329SOL     OW88825   6.876   5.377   6.967
62329SOL    HW188826   6.881   5.448   7.031
62329SOL    HW288827   6.964   5.339   6.966
62330SOL     OW88828  13.405   4.721   0.303
62330SOL    HW188829  13.379   4.756   0.389
62330SOL    HW288830  13.487   4.766   0.284
62331SOL     OW88831   7.728  10.650   4.621
62331SOL    HW188832   7.758  10.586   4.558
62331SOL    HW288833   7.635  10.661   4.601
62332SOL     OW88834   0.738  13.049   5.234
62332SOL    HW188835   0.747  13.002   5.151
62332SOL    HW288836   0.647  13.077   5.236
62333SOL     OW88837  14.714   6.728   8.927
62333SOL    HW188838  14.686   6.776   9.005
62333SOL    HW288839  14.750   6.794   8.869
62334SOL     OW88840   2.368   5.045   9.913
62334SOL    HW188841   2.430   5.009   9.976
62334SOL    HW288842   2.377   5.140   9.922
62335SOL     OW88843   1.403   0.779  11.510
62335SOL    HW188844   1.430   0.745  11.424
62335SOL    HW288845   1.432   0.713  11.572
62336SOL     OW88846  11.819   6.387   1.797
62336SOL    HW188847  11.853   6.476   1.789
62336SOL    HW288848  11.894   6.331   1.780
62337SOL     OW88849   4.752  11.354  13.596
62337SOL    HW188850   4.692  11.288  13.560
62337SOL    HW288851   4.709  11.385  13.675
62338SOL     OW88852   2.412  14.245   1.652
62338SOL    HW188853   2.469  14.281   1.584
62338SOL    HW288854   2.472  14.198   1.710
62339SOL     OW88855   6.471   7.421  14.759
62339SOL    HW188856   6.445   7.458  14.674
62339SOL    HW288857   6.423   7.338  14.765
62340SOL     OW88858   5.336   1.983   3.791
62340SOL    HW188859   5.355   2.053   3.854
62340SOL    HW288860   5.253   2.008   3.751
62341SOL     OW88861  14.504   1.020   3.161
62341SOL    HW188862  14.544   1.076   3.094
62341SOL    HW288863  14.506   0.932   3.122
62342SOL     OW88864  13.441   2.021   1.678
62342SOL    HW188865  13.457   1.999   1.770
62342SOL    HW288866  13.349   1.997   1.663
62343SOL     OW88867   3.176   3.605   1.061
62343SOL    HW188868   3.244   3.669   1.038
62343SOL    HW288869   3.199   3.578   1.150
62344SOL     OW88870   5.269  12.270  11.465
62344SOL    HW188871   5.266  12.350  11.518
62344SOL    HW288872   5.320  12.208  11.518
62345SOL     OW88873   6.136   3.126   3.831
62345SOL    HW188874   6.130   3.211   3.788
62345SOL    HW288875   6.123   3.145   3.924
62346SOL     OW88876  13.668   8.070   2.355
62346SOL    HW188877  13.712   8.098   2.435
62346SOL    HW288878  13.634   7.983   2.375
62347SOL     OW88879   9.967   0.854  14.215
62347SOL    HW188880   9.897   0.916  14.196
62347SOL    HW288881   9.923   0.770  14.228
62348SOL     OW88882  13.840   4.125  10.613
62348SOL    HW188883  13.825   4.217  10.635
62348SOL    HW288884  13.912   4.098  10.670
62349SOL     OW88885   7.565  10.981  11.779
62349SOL    HW188886   7.644  10.930  11.758
62349SOL    HW288887   7.494  10.934  11.736
62350SOL     OW88888   5.713   9.087  14.168
62350SOL    HW188889   5.783   9.059  14.109
62350SOL    HW288890   5.680   9.168  14.129
62351SOL     OW88891   6.492   5.917   0.821
62351SOL    HW188892   6.515   5.896   0.912
62351SOL    HW288893   6.543   5.854   0.769
62352SOL     OW88894   0.112   7.474   4.579
62352SOL    HW188895   0.071   7.526   4.647
62352SOL    HW288896   0.194   7.519   4.560
62353SOL     OW88897   3.710   9.419   7.843
62353SOL    HW188898   3.799   9.451   7.831
62353SOL    HW288899   3.719   9.324   7.845
62354SOL     OW88900   9.995   0.704   3.688
62354SOL    HW188901   9.932   0.718   3.760
62354SOL    HW288902   9.949   0.647   3.627
62355SOL     OW88903  13.196   8.637  13.897
62355SOL    HW188904  13.125   8.672  13.951
62355SOL    HW288905  13.274   8.680  13.931
62356SOL     OW88906  12.891   1.115   7.723
62356SOL    HW188907  12.953   1.087   7.790
62356SOL    HW288908  12.807   1.118   7.768
62357SOL     OW88909  13.233   2.105   8.108
62357SOL    HW188910  13.201   2.121   8.019
62357SOL    HW288911  13.197   2.178   8.159
62358SOL     OW88912  14.075   8.762   4.400
62358SOL    HW188913  13.997   8.792   4.355
62358SOL    HW288914  14.142   8.828   4.379
62359SOL     OW88915  11.656   8.113   5.716
62359SOL    HW188916  11.738   8.101   5.668
62359SOL    HW288917  11.632   8.205   5.700
62360SOL     OW88918  10.115  14.673   0.464
62360SOL    HW188919  10.073  14.680   0.550
62360SOL    HW288920  10.193  14.729   0.472
62361SOL     OW88921   4.105   6.628   8.880
62361SOL    HW188922   4.150   6.554   8.922
62361SOL    HW288923   4.173   6.672   8.830
62362SOL     OW88924   4.637  12.807   5.601
62362SOL    HW188925   4.666  12.897   5.612
62362SOL    HW288926   4.578  12.809   5.526
62363SOL     OW88927   6.018  13.123   5.296
62363SOL    HW188928   5.970  13.133   5.378
62363SOL    HW288929   6.013  13.029   5.276
62364SOL     OW88930  10.035   9.712   3.275
62364SOL    HW188931  10.075   9.795   3.301
62364SOL    HW288932  10.055   9.652   3.346
62365SOL     OW88933  10.477   8.215   9.681
62365SOL    HW188934  10.447   8.161   9.608
62365SOL    HW288935  10.421   8.292   9.678
62366SOL     OW88936   9.686   1.874  14.455
62366SOL    HW188937   9.696   1.873  14.360
62366SOL    HW288938   9.598   1.908  14.471
62367SOL     OW88939   7.645  11.606   5.347
62367SOL    HW188940   7.687  11.639   5.268
62367SOL    HW288941   7.584  11.539   5.316
62368SOL     OW88942   6.427   5.463   7.348
62368SOL    HW188943   6.463   5.492   7.264
62368SOL    HW288944   6.377   5.384   7.327
62369SOL     OW88945   3.747   8.170   8.346
62369SOL    HW188946   3.775   8.106   8.412
62369SOL    HW288947   3.655   8.186   8.366
62370SOL     OW88948  10.301   6.195  10.697
62370SOL    HW188949  10.319   6.288  10.708
62370SOL    HW288950  10.234   6.191  10.628
62371SOL     OW88951  10.968   6.287  12.207
62371SOL    HW188952  11.041   6.227  12.192
62371SOL    HW288953  10.959   6.335  12.125
62372SOL     OW88954   1.586   5.806  14.803
62372SOL    HW188955   1.657   5.777  14.860
62372SOL    HW288956   1.615   5.890  14.768
62373SOL     OW88957  14.389   6.177   8.344
62373SOL    HW188958  14.418   6.115   8.410
62373SOL    HW288959  14.346   6.247   8.393
62374SOL     OW88960   3.745   8.635   0.948
62374SOL    HW188961   3.839   8.626   0.932
62374SOL    HW288962   3.734   8.611   1.040
62375SOL     OW88963  10.100  10.295  14.718
62375SOL    HW188964  10.136  10.382  14.737
62375SOL    HW288965  10.010  10.299  14.750
62376SOL     OW88966  13.984  12.398   5.742
62376SOL    HW188967  14.053  12.465   5.740
62376SOL    HW288968  13.927  12.424   5.814
62377SOL     OW88969  10.718  10.393   0.889
62377SOL    HW188970  10.778  10.464   0.912
62377SOL    HW288971  10.684  10.416   0.803
62378SOL     OW88972   5.666  11.036  12.747
62378SOL    HW188973   5.716  11.058  12.826
62378SOL    HW288974   5.717  10.967  12.705
62379SOL     OW88975   5.655  12.723   1.085
62379SOL    HW188976   5.689  12.798   1.134
62379SOL    HW288977   5.629  12.760   1.000
62380SOL     OW88978   6.351   8.365  10.716
62380SOL    HW188979   6.266   8.402  10.691
62380SOL    HW288980   6.361   8.390  10.808
62381SOL     OW88981  13.805  13.755  12.880
62381SOL    HW188982  13.874  13.751  12.947
62381SOL    HW288983  13.739  13.814  12.916
62382SOL     OW88984   5.990   1.738   0.310
62382SOL    HW188985   5.932   1.746   0.386
62382SOL    HW288986   6.025   1.648   0.315
62383SOL     OW88987   8.606   2.361   2.474
62383SOL    HW188988   8.551   2.361   2.552
62383SOL    HW288989   8.549   2.325   2.405
62384SOL     OW88990   5.902   8.172   9.473
62384SOL    HW188991   5.830   8.203   9.529
62384SOL    HW288992   5.915   8.244   9.410
62385SOL     OW88993   4.321  14.019   4.189
62385SOL    HW188994   4.368  14.099   4.214
62385SOL    HW288995   4.342  14.007   4.096
62386SOL     OW88996   2.656   2.641  11.064
62386SOL    HW188997   2.678   2.730  11.040
62386SOL    HW288998   2.685   2.588  10.989
62387SOL     OW88999  13.722   5.324   0.058
62387SOL    HW189000  13.685   5.237   0.077
62387SOL    HW289001  13.738   5.361   0.145
62388SOL     OW89002  14.390   9.971  10.305
62388SOL    HW189003  14.370  10.056  10.345
62388SOL    HW289004  14.400   9.990  10.211
62389SOL     OW89005   0.223   1.238   6.046
62389SOL    HW189006   0.161   1.201   6.109
62389SOL    HW289007   0.181   1.223   5.961
62390SOL     OW89008   1.611   5.919   3.403
62390SOL    HW189009   1.611   5.944   3.311
62390SOL    HW289010   1.518   5.907   3.425
62391SOL     OW89011   1.477   1.132   0.705
62391SOL    HW189012   1.396   1.140   0.654
62391SOL    HW289013   1.460   1.058   0.764
62392SOL     OW89014   0.961   2.257  10.933
62392SOL    HW189015   1.004   2.249  10.848
62392SOL    HW289016   1.029   2.291  10.991
62393SOL     OW89017   9.062  12.837  12.907
62393SOL    HW189018   9.139  12.882  12.873
62393SOL    HW289019   9.015  12.905  12.957
62394SOL     OW89020   9.766  12.655  12.599
62394SOL    HW189021   9.745  12.729  12.543
62394SOL    HW289022   9.835  12.608  12.553
62395SOL     OW89023   4.358   4.413  12.668
62395SOL    HW189024   4.347   4.419  12.763
62395SOL    HW289025   4.283   4.360  12.639
62396SOL     OW89026   2.169   0.177  11.622
62396SOL    HW189027   2.162   0.227  11.703
62396SOL    HW289028   2.259   0.191  11.593
62397SOL     OW89029  12.675   8.583   9.045
62397SOL    HW189030  12.691   8.490   9.062
62397SOL    HW289031  12.662   8.621   9.132
62398SOL     OW89032   3.775  13.883   5.941
62398SOL    HW189033   3.832  13.948   5.982
62398SOL    HW289034   3.687  13.919   5.948
62399SOL     OW89035   8.612   4.953   2.757
62399SOL    HW189036   8.610   4.906   2.673
62399SOL    HW289037   8.520   4.968   2.779
62400SOL     OW89038   5.213  11.798   0.522
62400SOL    HW189039   5.215  11.891   0.545
62400SOL    HW289040   5.280  11.789   0.454
62401SOL     OW89041   0.761   3.228  14.698
62401SOL    HW189042   0.669   3.217  14.672
62401SOL    HW289043   0.771   3.322  14.714
62402SOL     OW89044   1.421   5.685  12.151
62402SOL    HW189045   1.434   5.606  12.099
62402SOL    HW289046   1.483   5.748  12.116
62403SOL     OW89047  10.250   9.098  13.209
62403SOL    HW189048  10.229   9.008  13.186
62403SOL    HW289049  10.344   9.097  13.228
62404SOL     OW89050   2.522   7.281   6.992
62404SOL    HW189051   2.528   7.202   7.046
62404SOL    HW289052   2.608   7.323   7.001
62405SOL     OW89053   2.433   7.183  10.132
62405SOL    HW189054   2.387   7.115  10.181
62405SOL    HW289055   2.372   7.208  10.062
62406SOL     OW89056   9.392  10.636   2.328
62406SOL    HW189057   9.472  10.688   2.329
62406SOL    HW289058   9.324  10.697   2.299
62407SOL     OW89059   0.158  10.258  10.785
62407SOL    HW189060   0.186  10.321  10.851
62407SOL    HW289061   0.089  10.207  10.827
62408SOL     OW89062   2.247   9.694   3.827
62408SOL    HW189063   2.282   9.744   3.754
62408SOL    HW289064   2.245   9.604   3.796
62409SOL     OW89065   7.760   3.831  13.668
62409SOL    HW189066   7.790   3.869  13.751
62409SOL    HW289067   7.838   3.831  13.612
62410SOL     OW89068   7.673  13.743   3.790
62410SOL    HW189069   7.643  13.826   3.753
62410SOL    HW289070   7.749  13.767   3.844
62411SOL     OW89071   7.631  13.842  12.625
62411SOL    HW189072   7.666  13.928  12.602
62411SOL    HW289073   7.621  13.845  12.720
62412SOL     OW89074   4.549   5.110   1.361
62412SOL    HW189075   4.492   5.159   1.420
62412SOL    HW289076   4.536   5.151   1.275
62413SOL     OW89077   8.519  10.353   8.794
62413SOL    HW189078   8.588  10.318   8.738
62413SOL    HW289079   8.558  10.358   8.881
62414SOL     OW89080   2.218   0.370  13.550
62414SOL    HW189081   2.217   0.404  13.640
62414SOL    HW289082   2.182   0.281  13.558
62415SOL     OW89083   1.765  13.870   5.617
62415SOL    HW189084   1.735  13.849   5.705
62415SOL    HW289085   1.857  13.843   5.616
62416SOL     OW89086   0.165   2.316   3.980
62416SOL    HW189087   0.112   2.378   3.931
62416SOL    HW289088   0.255   2.338   3.957
62417SOL     OW89089  11.626   9.960   4.325
62417SOL    HW189090  11.718   9.985   4.316
62417SOL    HW289091  11.593  10.016   4.395
62418SOL     OW89092   3.422  13.718   6.368
62418SOL    HW189093   3.374  13.735   6.449
62418SOL    HW289094   3.386  13.636   6.335
62419SOL     OW89095   7.665   6.686   5.883
62419SOL    HW189096   7.593   6.733   5.842
62419SOL    HW289097   7.693   6.743   5.955
62420SOL     OW89098   9.350   4.038   8.463
62420SOL    HW189099   9.286   4.107   8.482
62420SOL    HW289100   9.435   4.082   8.468
62421SOL     OW89101  14.426   0.511   8.636
62421SOL    HW189102  14.446   0.543   8.723
62421SOL    HW289103  14.501   0.538   8.583
62422SOL     OW89104   8.828   3.693  12.870
62422SOL    HW189105   8.778   3.612  12.860
62422SOL    HW289106   8.894   3.689  12.801
62423SOL     OW89107   9.382  13.563   6.242
62423SOL    HW189108   9.447  13.581   6.310
62423SOL    HW289109   9.343  13.479   6.267
62424SOL     OW89110   2.431   7.621   5.903
62424SOL    HW189111   2.350   7.650   5.946
62424SOL    HW289112   2.423   7.653   5.813
62425SOL     OW89113  10.103  13.793   8.738
62425SOL    HW189114  10.152  13.842   8.805
62425SOL    HW289115  10.149  13.812   8.657
62426SOL     OW89116   7.767  10.652   3.643
62426SOL    HW189117   7.797  10.601   3.568
62426SOL    HW289118   7.789  10.743   3.622
62427SOL     OW89119  13.032  11.109  12.469
62427SOL    HW189120  13.066  11.195  12.443
62427SOL    HW289121  12.953  11.098  12.417
62428SOL     OW89122   6.090  10.175  14.284
62428SOL    HW189123   6.180  10.150  14.266
62428SOL    HW289124   6.086  10.184  14.379
62429SOL     OW89125   4.786   5.257   0.894
62429SOL    HW189126   4.795   5.338   0.945
62429SOL    HW289127   4.839   5.193   0.941
62430SOL     OW89128  12.337   9.360   0.517
62430SOL    HW189129  12.427   9.365   0.483
62430SOL    HW289130  12.333   9.274   0.559
62431SOL     OW89131   7.425  10.536   0.005
62431SOL    HW189132   7.490  10.479   0.047
62431SOL    HW289133   7.390  10.589   0.077
62432SOL     OW89134   9.350   5.795   3.532
62432SOL    HW189135   9.423   5.795   3.470
62432SOL    HW289136   9.330   5.888   3.545
62433SOL     OW89137   4.122   3.255  14.550
62433SOL    HW189138   4.207   3.255  14.595
62433SOL    HW289139   4.138   3.302  14.468
62434SOL     OW89140   7.409  12.438   3.193
62434SOL    HW189141   7.382  12.450   3.284
62434SOL    HW289142   7.419  12.526   3.158
62435SOL     OW89143   8.781   9.581   9.626
62435SOL    HW189144   8.855   9.634   9.657
62435SOL    HW289145   8.797   9.494   9.662
62436SOL     OW89146   5.763  14.187  11.447
62436SOL    HW189147   5.786  14.095  11.461
62436SOL    HW289148   5.744  14.193  11.353
62437SOL     OW89149  10.421  11.121   8.475
62437SOL    HW189150  10.485  11.057   8.444
62437SOL    HW289151  10.337  11.085   8.446
62438SOL     OW89152  14.801   4.090  13.177
62438SOL    HW189153  14.856   4.141  13.236
62438SOL    HW289154  14.724   4.068  13.229
62439SOL     OW89155   0.670   8.070   3.586
62439SOL    HW189156   0.583   8.101   3.610
62439SOL    HW289157   0.681   7.988   3.633
62440SOL     OW89158   1.716  12.390   7.316
62440SOL    HW189159   1.709  12.486   7.315
62440SOL    HW289160   1.804  12.372   7.347
62441SOL     OW89161   3.369   5.567   2.830
62441SOL    HW189162   3.398   5.584   2.740
62441SOL    HW289163   3.321   5.484   2.824
62442SOL     OW89164  13.107   2.757   3.876
62442SOL    HW189165  13.033   2.749   3.936
62442SOL    HW289166  13.099   2.846   3.841
62443SOL     OW89167   9.979   9.704   0.819
62443SOL    HW189168  10.034   9.663   0.753
62443SOL    HW289169  10.040   9.750   0.876
62444SOL     OW89170  10.373   8.832   5.110
62444SOL    HW189171  10.384   8.756   5.054
62444SOL    HW289172  10.450   8.830   5.168
62445SOL     OW89173  12.610   2.063   3.178
62445SOL    HW189174  12.641   2.128   3.116
62445SOL    HW289175  12.518   2.086   3.194
62446SOL     OW89176   0.313   2.630   0.215
62446SOL    HW189177   0.247   2.565   0.191
62446SOL    HW289178   0.299   2.646   0.308
62447SOL     OW89179  11.306   6.165   0.303
62447SOL    HW189180  11.397   6.195   0.297
62447SOL    HW289181  11.268   6.189   0.218
62448SOL     OW89182   9.096   7.950   0.705
62448SOL    HW189183   9.030   7.984   0.766
62448SOL    HW289184   9.134   8.029   0.665
62449SOL     OW89185  14.460  12.667  14.036
62449SOL    HW189186  14.529  12.728  14.008
62449SOL    HW289187  14.386  12.724  14.059
62450SOL     OW89188  10.226   1.703   3.044
62450SOL    HW189189  10.194   1.762   3.113
62450SOL    HW289190  10.311   1.673   3.076
62451SOL     OW89191   6.692   8.033   0.364
62451SOL    HW189192   6.739   8.095   0.420
62451SOL    HW289193   6.609   8.077   0.343
62452SOL     OW89194   0.536  13.932  10.073
62452SOL    HW189195   0.624  13.968  10.079
62452SOL    HW289196   0.548  13.846  10.033
62453SOL     OW89197   8.087   0.098   6.344
62453SOL    HW189198   8.078   0.182   6.298
62453SOL    HW289199   8.146   0.047   6.288
62454SOL     OW89200   6.513   4.449   6.998
62454SOL    HW189201   6.505   4.508   6.923
62454SOL    HW289202   6.484   4.501   7.073
62455SOL     OW89203  12.978  10.718  14.421
62455SOL    HW189204  13.014  10.743  14.336
62455SOL    HW289205  13.051  10.728  14.482
62456SOL     OW89206   9.004  12.172   0.341
62456SOL    HW189207   8.980  12.204   0.254
62456SOL    HW289208   9.044  12.248   0.383
62457SOL     OW89209   4.068   8.500   0.699
62457SOL    HW189210   4.041   8.538   0.782
62457SOL    HW289211   4.033   8.559   0.633
62458SOL     OW89212   9.345  11.631   8.478
62458SOL    HW189213   9.440  11.626   8.488
62458SOL    HW289214   9.313  11.548   8.515
62459SOL     OW89215   3.833   0.467   2.967
62459SOL    HW189216   3.879   0.466   2.883
62459SOL    HW289217   3.903   0.469   3.033
62460SOL     OW89218   3.296   1.384   1.539
62460SOL    HW189219   3.239   1.341   1.475
62460SOL    HW289220   3.263   1.356   1.624
62461SOL     OW89221   4.439  13.053   7.851
62461SOL    HW189222   4.440  13.054   7.947
62461SOL    HW289223   4.396  12.971   7.828
62462SOL     OW89224   7.750   7.572  14.197
62462SOL    HW189225   7.711   7.549  14.113
62462SOL    HW289226   7.743   7.493  14.250
62463SOL     OW89227   7.138  10.874   0.161
62463SOL    HW189228   7.059  10.916   0.197
62463SOL    HW289229   7.182  10.836   0.237
62464SOL     OW89230   5.899  11.696   8.683
62464SOL    HW189231   5.931  11.778   8.644
62464SOL    HW289232   5.888  11.637   8.609
62465SOL     OW89233   3.326   6.674   6.793
62465SOL    HW189234   3.236   6.705   6.796
62465SOL    HW289235   3.377   6.743   6.836
62466SOL     OW89236   9.183  11.816   6.816
62466SOL    HW189237   9.137  11.900   6.817
62466SOL    HW289238   9.272  11.837   6.846
62467SOL     OW89239   0.017  14.400  13.543
62467SOL    HW189240   0.053  14.456  13.612
62467SOL    HW289241   0.006  14.314  13.585
62468SOL     OW89242   4.082   5.580   4.874
62468SOL    HW189243   4.003   5.599   4.925
62468SOL    HW289244   4.108   5.665   4.837
62469SOL     OW89245  12.442   0.412   4.020
62469SOL    HW189246  12.353   0.437   4.043
62469SOL    HW289247  12.492   0.493   4.027
62470SOL     OW89248  12.747   9.189   0.561
62470SOL    HW189249  12.818   9.245   0.592
62470SOL    HW289250  12.790   9.109   0.532
62471SOL     OW89251  11.895   0.696  14.035
62471SOL    HW189252  11.964   0.675  13.973
62471SOL    HW289253  11.940   0.708  14.119
62472SOL     OW89254   6.076  11.952   5.626
62472SOL    HW189255   6.083  11.918   5.537
62472SOL    HW289256   6.162  11.937   5.664
62473SOL     OW89257   9.242   9.967   0.208
62473SOL    HW189258   9.187   9.945   0.283
62473SOL    HW289259   9.313   9.902   0.211
62474SOL     OW89260   3.325   9.802   9.204
62474SOL    HW189261   3.260   9.738   9.235
62474SOL    HW289262   3.323   9.872   9.268
62475SOL     OW89263   7.875   4.891   9.474
62475SOL    HW189264   7.876   4.954   9.546
62475SOL    HW289265   7.958   4.906   9.428
62476SOL     OW89266   7.002   3.368   3.110
62476SOL    HW189267   6.959   3.314   3.176
62476SOL    HW289268   7.020   3.307   3.038
62477SOL     OW89269   2.731  12.913   9.106
62477SOL    HW189270   2.682  12.993   9.091
62477SOL    HW289271   2.789  12.905   9.030
62478SOL     OW89272  12.816   4.213  13.578
62478SOL    HW189273  12.722   4.219  13.596
62478SOL    HW289274  12.821   4.174  13.490
62479SOL     OW89275   8.853  13.004  10.529
62479SOL    HW189276   8.889  12.983  10.443
62479SOL    HW289277   8.837  12.919  10.570
62480SOL     OW89278   3.020   4.710  12.462
62480SOL    HW189279   3.048   4.726  12.372
62480SOL    HW289280   2.971   4.628  12.457
62481SOL     OW89281   0.790   3.867  12.088
62481SOL    HW189282   0.798   3.962  12.077
62481SOL    HW289283   0.696   3.851  12.094
62482SOL     OW89284   1.156   9.201  11.925
62482SOL    HW189285   1.209   9.154  11.860
62482SOL    HW289286   1.219   9.244  11.982
62483SOL     OW89287   6.075   5.665   1.109
62483SOL    HW189288   6.013   5.690   1.176
62483SOL    HW289289   6.078   5.740   1.050
62484SOL     OW89290   3.014   7.507  11.026
62484SOL    HW189291   3.007   7.425  11.076
62484SOL    HW289292   3.105   7.533  11.038
62485SOL     OW89293   8.328   1.819   3.884
62485SOL    HW189294   8.247   1.856   3.849
62485SOL    HW289295   8.389   1.893   3.888
62486SOL     OW89296  14.287  10.823   5.108
62486SOL    HW189297  14.250  10.746   5.065
62486SOL    HW289298  14.361  10.848   5.052
62487SOL     OW89299   4.142   3.680  10.475
62487SOL    HW189300   4.210   3.747  10.467
62487SOL    HW289301   4.069   3.724  10.519
62488SOL     OW89302  14.687   6.658  13.938
62488SOL    HW189303  14.698   6.749  13.966
62488SOL    HW289304  14.760   6.641  13.879
62489SOL     OW89305  14.019   1.795  11.153
62489SOL    HW189306  14.034   1.824  11.063
62489SOL    HW289307  14.067   1.712  11.160
62490SOL     OW89308   2.208  12.899   0.599
62490SOL    HW189309   2.214  12.813   0.639
62490SOL    HW289310   2.166  12.954   0.665
62491SOL     OW89311   0.788   0.720   9.776
62491SOL    HW189312   0.702   0.762   9.772
62491SOL    HW289313   0.780   0.654   9.845
62492SOL     OW89314   2.183   5.668  13.130
62492SOL    HW189315   2.189   5.607  13.056
62492SOL    HW289316   2.136   5.743  13.094
62493SOL     OW89317   9.266   6.667  10.936
62493SOL    HW189318   9.207   6.703  11.003
62493SOL    HW289319   9.307   6.745  10.897
62494SOL     OW89320   6.348   4.838  13.503
62494SOL    HW189321   6.362   4.814  13.411
62494SOL    HW289322   6.418   4.794  13.550
62495SOL     OW89323   1.856  10.720  12.098
62495SOL    HW189324   1.924  10.715  12.165
62495SOL    HW289325   1.777  10.687  12.142
62496SOL     OW89326  11.113   2.955   0.556
62496SOL    HW189327  11.176   2.918   0.494
62496SOL    HW289328  11.058   3.012   0.503
62497SOL     OW89329  10.101   4.368   2.031
62497SOL    HW189330  10.185   4.335   2.000
62497SOL    HW289331  10.050   4.290   2.050
62498SOL     OW89332   8.931  11.241   2.655
62498SOL    HW189333   8.901  11.285   2.576
62498SOL    HW289334   9.000  11.183   2.626
62499SOL     OW89335   6.225  12.586  14.012
62499SOL    HW189336   6.191  12.649  14.076
62499SOL    HW289337   6.159  12.518  14.008
62500SOL     OW89338   6.611   5.237   9.272
62500SOL    HW189339   6.627   5.270   9.360
62500SOL    HW289340   6.588   5.145   9.285
62501SOL     OW89341   9.041   6.973   2.569
62501SOL    HW189342   9.094   7.006   2.642
62501SOL    HW289343   9.066   7.028   2.495
62502SOL     OW89344   9.760   1.772  12.493
62502SOL    HW189345   9.754   1.676  12.499
62502SOL    HW289346   9.849   1.789  12.463
62503SOL     OW89347   9.773  13.619  11.010
62503SOL    HW189348   9.807  13.705  11.034
62503SOL    HW289349   9.764  13.622  10.915
62504SOL     OW89350   1.461   6.291   0.050
62504SOL    HW189351   1.483   6.361   0.111
62504SOL    HW289352   1.381   6.320   0.007
62505SOL     OW89353  11.267   5.531  14.143
62505SOL    HW189354  11.298   5.468  14.207
62505SOL    HW289355  11.305   5.501  14.060
62506SOL     OW89356  11.773  11.257  14.571
62506SOL    HW189357  11.734  11.280  14.487
62506SOL    HW289358  11.721  11.182  14.602
62507SOL     OW89359   2.928  14.632   3.761
62507SOL    HW189360   2.845  14.636   3.714
62507SOL    HW289361   2.975  14.559   3.721
62508SOL     OW89362  13.079  10.840  14.202
62508SOL    HW189363  13.104  10.776  14.134
62508SOL    HW289364  13.162  10.874  14.234
62509SOL     OW89365   6.545  10.686  14.517
62509SOL    HW189366   6.553  10.736  14.435
62509SOL    HW289367   6.635  10.661  14.538
62510SOL     OW89368   7.352   9.031   5.914
62510SOL    HW189369   7.339   8.952   5.863
62510SOL    HW289370   7.446   9.033   5.931
62511SOL     OW89371   3.575   0.844   5.000
62511SOL    HW189372   3.531   0.907   5.057
62511SOL    HW289373   3.663   0.835   5.036
62512SOL     OW89374  12.307   6.517   8.274
62512SOL    HW189375  12.218   6.496   8.301
62512SOL    HW289376  12.355   6.528   8.356
62513SOL     OW89377  14.412  11.895   5.125
62513SOL    HW189378  14.365  11.930   5.050
62513SOL    HW289379  14.349  11.838   5.169
62514SOL     OW89380  14.702   2.380  12.880
62514SOL    HW189381  14.649   2.359  12.802
62514SOL    HW289382  14.667   2.322  12.948
62515SOL     OW89383   4.994   0.568   2.663
62515SOL    HW189384   4.903   0.568   2.633
62515SOL    HW289385   5.010   0.479   2.693
62516SOL     OW89386  13.139  13.215   9.859
62516SOL    HW189387  13.207  13.213   9.792
62516SOL    HW289388  13.057  13.208   9.811
62517SOL     OW89389  11.103   1.098   5.425
62517SOL    HW189390  11.187   1.061   5.450
62517SOL    HW289391  11.126   1.173   5.369
62518SOL     OW89392  14.670  10.494   9.005
62518SOL    HW189393  14.636  10.533   8.924
62518SOL    HW289394  14.757  10.533   9.016
62519SOL     OW89395   5.997  11.294   0.518
62519SOL    HW189396   5.941  11.250   0.581
62519SOL    HW289397   6.043  11.223   0.473
62520SOL     OW89398   2.209   8.214  14.418
62520SOL    HW189399   2.249   8.138  14.376
62520SOL    HW289400   2.232   8.206  14.510
62521SOL     OW89401   8.302   6.621  12.161
62521SOL    HW189402   8.307   6.712  12.133
62521SOL    HW289403   8.271   6.624  12.251
62522SOL     OW89404   3.506   1.977  12.007
62522SOL    HW189405   3.527   1.895  12.050
62522SOL    HW289406   3.423   2.004  12.047
62523SOL     OW89407   4.827   2.251   3.292
62523SOL    HW189408   4.830   2.229   3.199
62523SOL    HW289409   4.893   2.319   3.303
62524SOL     OW89410   9.066   1.545   9.805
62524SOL    HW189411   9.053   1.639   9.815
62524SOL    HW289412   9.072   1.531   9.710
62525SOL     OW89413   7.479   1.269   9.168
62525SOL    HW189414   7.410   1.216   9.206
62525SOL    HW289415   7.433   1.335   9.116
62526SOL     OW89416  10.657   7.442   5.387
62526SOL    HW189417  10.614   7.360   5.359
62526SOL    HW289418  10.708   7.417   5.464
62527SOL     OW89419  11.644   4.232   9.703
62527SOL    HW189420  11.728   4.188   9.694
62527SOL    HW289421  11.614   4.209   9.791
62528SOL     OW89422   9.712   7.034   4.001
62528SOL    HW189423   9.761   7.093   4.058
62528SOL    HW289424   9.766   7.029   3.921
62529SOL     OW89425   4.225   9.834  13.999
62529SOL    HW189426   4.237   9.790  14.083
62529SOL    HW289427   4.239   9.927  14.019
62530SOL     OW89428   3.949   3.068   5.659
62530SOL    HW189429   3.935   3.100   5.748
62530SOL    HW289430   4.041   3.041   5.657
62531SOL     OW89431  13.015  11.122   6.208
62531SOL    HW189432  13.016  11.209   6.248
62531SOL    HW289433  12.934  11.082   6.239
62532SOL     OW89434  12.652   4.010   2.406
62532SOL    HW189435  12.609   4.084   2.362
62532SOL    HW289436  12.652   3.940   2.340
62533SOL     OW89437   4.195   5.039  11.231
62533SOL    HW189438   4.164   4.991  11.155
62533SOL    HW289439   4.201   5.130  11.201
62534SOL     OW89440   0.749   5.791   7.721
62534SOL    HW189441   0.702   5.854   7.666
62534SOL    HW289442   0.823   5.763   7.668
62535SOL     OW89443   4.334   7.020   8.296
62535SOL    HW189444   4.291   7.031   8.211
62535SOL    HW289445   4.270   6.973   8.350
62536SOL     OW89446   5.301  11.716   6.198
62536SOL    HW189447   5.357  11.641   6.179
62536SOL    HW289448   5.313  11.733   6.291
62537SOL     OW89449   8.673   9.634   4.798
62537SOL    HW189450   8.666   9.630   4.703
62537SOL    HW289451   8.756   9.590   4.818
62538SOL     OW89452   0.030   0.671   1.506
62538SOL    HW189453   0.084   0.611   1.455
62538SOL    HW289454   0.090   0.740   1.533
62539SOL     OW89455   1.423   9.446  10.047
62539SOL    HW189456   1.428   9.356  10.014
62539SOL    HW289457   1.368   9.492   9.983
62540SOL     OW89458  14.137  11.353   0.949
62540SOL    HW189459  14.184  11.436   0.954
62540SOL    HW289460  14.091  11.347   1.033
62541SOL     OW89461   9.502  11.991  13.714
62541SOL    HW189462   9.502  11.898  13.735
62541SOL    HW289463   9.451  12.032  13.785
62542SOL     OW89464  14.293   7.588   9.249
62542SOL    HW189465  14.294   7.496   9.278
62542SOL    HW289466  14.218   7.626   9.295
62543SOL     OW89467  12.204   0.308   4.677
62543SOL    HW189468  12.203   0.214   4.660
62543SOL    HW289469  12.271   0.342   4.618
62544SOL     OW89470   1.777  12.238  10.778
62544SOL    HW189471   1.753  12.148  10.756
62544SOL    HW289472   1.848  12.228  10.842
62545SOL     OW89473   2.005   7.293   3.941
62545SOL    HW189474   1.942   7.300   4.012
62545SOL    HW289475   1.964   7.341   3.868
62546SOL     OW89476   5.697   6.938   0.288
62546SOL    HW189477   5.789   6.926   0.265
62546SOL    HW289478   5.697   7.003   0.358
62547SOL     OW89479   6.820   1.389   5.172
62547SOL    HW189480   6.738   1.416   5.131
62547SOL    HW289481   6.830   1.447   5.248
62548SOL     OW89482   2.061   0.169   4.472
62548SOL    HW189483   2.156   0.169   4.456
62548SOL    HW289484   2.053   0.186   4.566
62549SOL     OW89485  13.811  13.266   7.032
62549SOL    HW189486  13.742  13.255   6.966
62549SOL    HW289487  13.890  13.236   6.988
62550SOL     OW89488  10.205   3.267   2.640
62550SOL    HW189489  10.155   3.283   2.560
62550SOL    HW289490  10.277   3.210   2.612
62551SOL     OW89491   2.758   0.231   5.861
62551SOL    HW189492   2.809   0.288   5.919
62551SOL    HW289493   2.688   0.287   5.828
62552SOL     OW89494  10.428   6.686   1.503
62552SOL    HW189495  10.339   6.651   1.499
62552SOL    HW289496  10.483   6.615   1.470
62553SOL     OW89497   4.800  13.583   7.190
62553SOL    HW189498   4.751  13.664   7.204
62553SOL    HW289499   4.892  13.609   7.191
62554SOL     OW89500  13.117   2.161  11.185
62554SOL    HW189501  13.113   2.141  11.092
62554SOL    HW289502  13.208   2.185  11.201
62555SOL     OW89503  11.716   5.534   2.764
62555SOL    HW189504  11.745   5.578   2.685
62555SOL    HW289505  11.743   5.443   2.753
62556SOL     OW89506  14.099   3.540   2.540
62556SOL    HW189507  14.073   3.590   2.618
62556SOL    HW289508  14.095   3.604   2.468
62557SOL     OW89509  11.328  11.128   2.381
62557SOL    HW189510  11.345  11.036   2.362
62557SOL    HW289511  11.313  11.168   2.295
62558SOL     OW89512   7.526   5.994   7.357
62558SOL    HW189513   7.511   5.982   7.264
62558SOL    HW289514   7.568   6.080   7.363
62559SOL     OW89515  12.130  11.040  13.390
62559SOL    HW189516  12.192  11.110  13.409
62559SOL    HW289517  12.061  11.083  13.339
62560SOL     OW89518  11.213   7.818   0.941
62560SOL    HW189519  11.239   7.750   0.879
62560SOL    HW289520  11.251   7.790   1.024
62561SOL     OW89521  10.493  12.408   0.736
62561SOL    HW189522  10.401  12.380   0.734
62561SOL    HW289523  10.501  12.456   0.818
62562SOL     OW89524   3.139  11.657   7.446
62562SOL    HW189525   3.076  11.729   7.442
62562SOL    HW289526   3.198  11.680   7.518
62563SOL     OW89527  14.671  10.299   4.982
62563SOL    HW189528  14.616  10.239   5.031
62563SOL    HW289529  14.758  10.258   4.983
62564SOL     OW89530  13.915   8.991   9.710
62564SOL    HW189531  13.982   8.953   9.654
62564SOL    HW289532  13.859   8.917   9.734
62565SOL     OW89533  11.869  14.846   2.008
62565SOL    HW189534  11.947   0.025   2.026
62565SOL    HW289535  11.901  14.756   2.009
62566SOL     OW89536   2.507   4.127   1.051
62566SOL    HW189537   2.546   4.056   0.999
62566SOL    HW289538   2.582   4.172   1.089
62567SOL     OW89539  12.143   7.464   5.298
62567SOL    HW189540  12.126   7.543   5.246
62567SOL    HW289541  12.130   7.392   5.237
62568SOL     OW89542  13.455   5.709  11.568
62568SOL    HW189543  13.440   5.616  11.552
62568SOL    HW289544  13.369   5.750  11.557
62569SOL     OW89545   5.459  11.801   4.436
62569SOL    HW189546   5.377  11.751   4.442
62569SOL    HW289547   5.527  11.735   4.429
62570SOL     OW89548  13.563  10.425   3.105
62570SOL    HW189549  13.523  10.350   3.062
62570SOL    HW289550  13.648  10.435   3.062
62571SOL     OW89551  14.728   8.114   9.437
62571SOL    HW189552  14.695   8.038   9.389
62571SOL    HW289553  14.738   8.182   9.371
62572SOL     OW89554  12.462   9.470   6.703
62572SOL    HW189555  12.457   9.445   6.795
62572SOL    HW289556  12.480   9.388   6.657
62573SOL     OW89557   7.148   5.994   4.866
62573SOL    HW189558   7.057   6.023   4.861
62573SOL    HW289559   7.145   5.915   4.921
62574SOL     OW89560   3.497  14.023  14.656
62574SOL    HW189561   3.495  14.012  14.751
62574SOL    HW289562   3.567  14.087  14.641
62575SOL     OW89563  14.414   1.229   4.072
62575SOL    HW189564  14.393   1.302   4.014
62575SOL    HW289565  14.328   1.193   4.096
62576SOL     OW89566   3.143   6.796  14.711
62576SOL    HW189567   3.234   6.780  14.690
62576SOL    HW289568   3.144   6.820  14.804
62577SOL     OW89569   6.625   3.919   0.020
62577SOL    HW189570   6.708   3.918  14.847
62577SOL    HW289571   6.642   3.971   0.099
62578SOL     OW89572   6.493   1.275   8.244
62578SOL    HW189573   6.549   1.227   8.305
62578SOL    HW289574   6.407   1.274   8.285
62579SOL     OW89575  14.564  10.966  13.262
62579SOL    HW189576  14.513  10.992  13.339
62579SOL    HW289577  14.524  11.012  13.189
62580SOL     OW89578  10.779   7.702  10.423
62580SOL    HW189579  10.864   7.730  10.456
62580SOL    HW289580  10.719   7.714  10.497
62581SOL     OW89581   6.732   9.236  10.476
62581SOL    HW189582   6.640   9.258  10.460
62581SOL    HW289583   6.744   9.249  10.570
62582SOL     OW89584  14.585  10.792  14.819
62582SOL    HW189585  14.680  10.790  14.804
62582SOL    HW289586  14.547  10.797  14.731
62583SOL     OW89587  14.538   8.257  12.200
62583SOL    HW189588  14.495   8.321  12.257
62583SOL    HW289589  14.474   8.186  12.191
62584SOL     OW89590  13.015  10.331  10.092
62584SOL    HW189591  12.927  10.367  10.105
62584SOL    HW289592  13.017  10.252  10.146
62585SOL     OW89593  10.084   3.184   0.553
62585SOL    HW189594  10.042   3.110   0.596
62585SOL    HW289595  10.178   3.171   0.567
62586SOL     OW89596  11.184   2.267   1.111
62586SOL    HW189597  11.117   2.270   1.180
62586SOL    HW289598  11.250   2.207   1.145
62587SOL     OW89599   1.311  12.438  10.704
62587SOL    HW189600   1.361  12.517  10.722
62587SOL    HW289601   1.361  12.367  10.744
62588SOL     OW89602   7.879   2.140   4.521
62588SOL    HW189603   7.920   2.192   4.590
62588SOL    HW289604   7.898   2.049   4.546
62589SOL     OW89605   9.580   8.880   4.089
62589SOL    HW189606   9.650   8.837   4.139
62589SOL    HW289607   9.500   8.859   4.137
62590SOL     OW89608  12.086   8.569   2.225
62590SOL    HW189609  12.015   8.541   2.167
62590SOL    HW289610  12.140   8.491   2.236
62591SOL     OW89611   4.430  12.552   2.655
62591SOL    HW189612   4.494  12.481   2.668
62591SOL    HW289613   4.479  12.632   2.671
62592SOL     OW89614   1.417  13.832  12.928
62592SOL    HW189615   1.337  13.885  12.929
62592SOL    HW289616   1.391  13.751  12.884
62593SOL     OW89617   5.502  14.382  11.476
62593SOL    HW189618   5.490  14.293  11.442
62593SOL    HW289619   5.573  14.375  11.538
62594SOL     OW89620  10.507  11.103  13.894
62594SOL    HW189621  10.530  11.194  13.910
62594SOL    HW289622  10.575  11.071  13.834
62595SOL     OW89623   0.761   6.627   2.410
62595SOL    HW189624   0.740   6.668   2.494
62595SOL    HW289625   0.761   6.699   2.347
62596SOL     OW89626   2.026  13.591   6.532
62596SOL    HW189627   2.037  13.520   6.468
62596SOL    HW289628   1.971  13.655   6.487
62597SOL     OW89629   7.374   3.886   9.989
62597SOL    HW189630   7.425   3.931   9.921
62597SOL    HW289631   7.439   3.865  10.057
62598SOL     OW89632  13.484   3.575  14.603
62598SOL    HW189633  13.554   3.510  14.599
62598SOL    HW289634  13.445   3.573  14.516
62599SOL     OW89635  10.553   8.345   7.683
62599SOL    HW189636  10.592   8.271   7.730
62599SOL    HW289637  10.467   8.356   7.724
62600SOL     OW89638  14.522  14.856   9.965
62600SOL    HW189639  14.487  14.853   9.876
62600SOL    HW289640  14.609   0.021   9.955
62601SOL     OW89641  14.270   8.670   1.614
62601SOL    HW189642  14.200   8.605   1.618
62601SOL    HW289643  14.319   8.647   1.535
62602SOL     OW89644   7.582  10.266   1.570
62602SOL    HW189645   7.568  10.347   1.618
62602SOL    HW289646   7.626  10.208   1.633
62603SOL     OW89647   9.541   6.174   5.478
62603SOL    HW189648   9.466   6.160   5.536
62603SOL    HW289649   9.502   6.200   5.395
62604SOL     OW89650   3.729   3.819  11.593
62604SOL    HW189651   3.729   3.883  11.522
62604SOL    HW289652   3.734   3.871  11.673
62605SOL     OW89653  13.834   6.154   5.853
62605SOL    HW189654  13.793   6.210   5.786
62605SOL    HW289655  13.864   6.078   5.804
62606SOL     OW89656   8.211   3.496  13.272
62606SOL    HW189657   8.126   3.461  13.301
62606SOL    HW289658   8.191   3.583  13.238
62607SOL     OW89659   6.375  11.210   1.731
62607SOL    HW189660   6.457  11.260   1.732
62607SOL    HW289661   6.400  11.123   1.761
62608SOL     OW89662   9.182   2.508  11.982
62608SOL    HW189663   9.127   2.586  11.986
62608SOL    HW289664   9.258   2.535  11.931
62609SOL     OW89665   9.758   5.365   5.815
62609SOL    HW189666   9.827   5.324   5.869
62609SOL    HW289667   9.805   5.429   5.761
62610SOL     OW89668   4.008  11.056   1.739
62610SOL    HW189669   3.937  11.120   1.747
62610SOL    HW289670   3.967  10.980   1.698
62611SOL     OW89671   9.547   4.525   1.006
62611SOL    HW189672   9.472   4.473   0.976
62611SOL    HW289673   9.580   4.478   1.082
62612SOL     OW89674  12.635   0.930  13.413
62612SOL    HW189675  12.725   0.918  13.382
62612SOL    HW289676  12.584   0.865  13.366
62613SOL     OW89677   6.963  10.241  10.807
62613SOL    HW189678   6.883  10.288  10.786
62613SOL    HW289679   7.033  10.297  10.773
62614SOL     OW89680   5.317   4.526   7.191
62614SOL    HW189681   5.272   4.568   7.264
62614SOL    HW289682   5.383   4.589   7.163
62615SOL     OW89683   2.739  10.501   7.451
62615SOL    HW189684   2.798  10.493   7.526
62615SOL    HW289685   2.778  10.445   7.384
62616SOL     OW89686   7.965   4.593   1.480
62616SOL    HW189687   7.893   4.651   1.456
62616SOL    HW289688   7.962   4.588   1.575
62617SOL     OW89689  10.862   1.963   4.247
62617SOL    HW189690  10.913   1.884   4.226
62617SOL    HW289691  10.923   2.018   4.295
62618SOL     OW89692  13.000  14.366   9.824
62618SOL    HW189693  13.048  14.394   9.902
62618SOL    HW289694  12.974  14.276   9.843
62619SOL     OW89695  14.116   7.546  13.726
62619SOL    HW189696  14.119   7.515  13.817
62619SOL    HW289697  14.087   7.470  13.676
62620SOL     OW89698   0.297   7.457  11.990
62620SOL    HW189699   0.203   7.476  11.984
62620SOL    HW289700   0.325   7.443  11.900
62621SOL     OW89701   2.521   6.510  11.294
62621SOL    HW189702   2.465   6.585  11.313
62621SOL    HW289703   2.489   6.441  11.352
62622SOL     OW89704  12.396  13.347   6.433
62622SOL    HW189705  12.391  13.386   6.346
62622SOL    HW289706  12.305  13.336   6.460
62623SOL     OW89707   1.809  11.550  10.016
62623SOL    HW189708   1.897  11.582  10.033
62623SOL    HW289709   1.816  11.455  10.023
62624SOL     OW89710   2.878   9.355   9.307
62624SOL    HW189711   2.842   9.390   9.226
62624SOL    HW289712   2.811   9.293   9.338
62625SOL     OW89713  12.028  10.161   9.156
62625SOL    HW189714  11.983  10.078   9.140
62625SOL    HW289715  11.970  10.228   9.121
62626SOL     OW89716  14.271  14.321   8.101
62626SOL    HW189717  14.236  14.398   8.145
62626SOL    HW289718  14.257  14.337   8.008
62627SOL     OW89719  13.880  14.373   6.589
62627SOL    HW189720  13.789  14.373   6.559
62627SOL    HW289721  13.914  14.459   6.563
62628SOL     OW89722   1.022   1.871   2.673
62628SOL    HW189723   1.050   1.897   2.585
62628SOL    HW289724   0.947   1.813   2.658
62629SOL     OW89725   3.542   9.275  11.979
62629SOL    HW189726   3.572   9.291  11.889
62629SOL    HW289727   3.617   9.234  12.022
62630SOL     OW89728   7.856  11.661   5.549
62630SOL    HW189729   7.897  11.747   5.539
62630SOL    HW289730   7.781  11.662   5.489
62631SOL     OW89731  14.323  12.713   4.012
62631SOL    HW189732  14.315  12.808   4.026
62631SOL    HW289733  14.386  12.706   3.940
62632SOL     OW89734   6.724   5.678  14.014
62632SOL    HW189735   6.704   5.733  14.090
62632SOL    HW289736   6.819   5.680  14.006
62633SOL     OW89737   9.523   0.111   9.899
62633SOL    HW189738   9.604   0.150   9.867
62633SOL    HW289739   9.511   0.150   9.986
62634SOL     OW89740   0.745   6.344   3.535
62634SOL    HW189741   0.684   6.323   3.464
62634SOL    HW289742   0.766   6.260   3.574
62635SOL     OW89743   4.282   2.111   7.472
62635SOL    HW189744   4.189   2.109   7.495
62635SOL    HW289745   4.296   2.199   7.438
62636SOL     OW89746   0.853   9.282   4.435
62636SOL    HW189747   0.868   9.212   4.371
62636SOL    HW289748   0.758   9.283   4.447
62637SOL     OW89749   7.755  12.847   7.547
62637SOL    HW189750   7.711  12.867   7.630
62637SOL    HW289751   7.791  12.932   7.519
62638SOL     OW89752   6.426   3.382   4.532
62638SOL    HW189753   6.426   3.437   4.611
62638SOL    HW289754   6.455   3.296   4.563
62639SOL     OW89755   6.260   0.082  10.118
62639SOL    HW189756   6.295   0.123  10.197
62639SOL    HW289757   6.337   0.057  10.068
62640SOL     OW89758   4.159   6.126   5.724
62640SOL    HW189759   4.192   6.207   5.762
62640SOL    HW289760   4.141   6.070   5.800
62641SOL     OW89761   1.148   2.337  11.127
62641SOL    HW189762   1.203   2.267  11.091
62641SOL    HW289763   1.174   2.414  11.076
62642SOL     OW89764  12.629   2.390   5.405
62642SOL    HW189765  12.571   2.453   5.363
62642SOL    HW289766  12.593   2.378   5.493
62643SOL     OW89767  11.933  13.398  11.409
62643SOL    HW189768  11.991  13.429  11.478
62643SOL    HW289769  11.947  13.459  11.337
62644SOL     OW89770   8.366   4.790  10.461
62644SOL    HW189771   8.414   4.724  10.511
62644SOL    HW289772   8.274   4.762  10.467
62645SOL     OW89773   8.004   2.237   7.098
62645SOL    HW189774   7.972   2.165   7.152
62645SOL    HW289775   8.077   2.274   7.148
62646SOL     OW89776   2.152  10.195   0.826
62646SOL    HW189777   2.190  10.261   0.883
62646SOL    HW289778   2.201  10.204   0.744
62647SOL     OW89779  10.951  12.101   5.677
62647SOL    HW189780  10.855  12.094   5.683
62647SOL    HW289781  10.968  12.195   5.690
62648SOL     OW89782  14.526   3.325  10.657
62648SOL    HW189783  14.616   3.351  10.637
62648SOL    HW289784  14.495   3.393  10.718
62649SOL     OW89785   1.561  10.025   5.278
62649SOL    HW189786   1.509   9.954   5.240
62649SOL    HW289787   1.625   9.980   5.334
62650SOL     OW89788  10.917   1.908   5.353
62650SOL    HW189789  10.979   1.863   5.410
62650SOL    HW289790  10.957   1.994   5.337
62651SOL     OW89791   1.480  14.085   7.727
62651SOL    HW189792   1.464  14.157   7.787
62651SOL    HW289793   1.513  14.126   7.648
62652SOL     OW89794  13.260   9.076  11.431
62652SOL    HW189795  13.243   9.165  11.460
62652SOL    HW289796  13.277   9.027  11.512
62653SOL     OW89797   8.048   0.419   0.254
62653SOL    HW189798   8.130   0.369   0.257
62653SOL    HW289799   8.075   0.510   0.268
62654SOL     OW89800   4.387   7.674   9.732
62654SOL    HW189801   4.436   7.678   9.814
62654SOL    HW289802   4.295   7.681   9.759
62655SOL     OW89803   0.825  10.434  10.410
62655SOL    HW189804   0.782  10.510  10.447
62655SOL    HW289805   0.755  10.371  10.393
62656SOL     OW89806   7.730   1.801  13.995
62656SOL    HW189807   7.766   1.874  14.046
62656SOL    HW289808   7.776   1.805  13.912
62657SOL     OW89809   2.616   8.631   1.147
62657SOL    HW189810   2.531   8.605   1.182
62657SOL    HW289811   2.660   8.549   1.126
62658SOL     OW89812   1.777  14.341  10.666
62658SOL    HW189813   1.828  14.332  10.586
62658SOL    HW289814   1.829  14.400  10.721
62659SOL     OW89815  10.672   2.694  14.362
62659SOL    HW189816  10.681   2.711  14.456
62659SOL    HW289817  10.579   2.676  14.349
62660SOL     OW89818  14.720   7.225  14.564
62660SOL    HW189819  14.731   7.286  14.637
62660SOL    HW289820  14.635   7.248  14.526
62661SOL     OW89821  10.890   3.218  11.159
62661SOL    HW189822  10.830   3.248  11.227
62661SOL    HW289823  10.847   3.140  11.122
62662SOL     OW89824   4.776  14.527  11.609
62662SOL    HW189825   4.759  14.444  11.565
62662SOL    HW289826   4.825  14.503  11.688
62663SOL     OW89827   8.302  11.496  13.093
62663SOL    HW189828   8.311  11.529  13.003
62663SOL    HW289829   8.380  11.441  13.106
62664SOL     OW89830   9.588   0.305   3.382
62664SOL    HW189831   9.647   0.250   3.330
62664SOL    HW289832   9.637   0.324   3.462
62665SOL     OW89833   8.241   6.188   7.308
62665SOL    HW189834   8.206   6.277   7.312
62665SOL    HW289835   8.270   6.169   7.397
62666SOL     OW89836   0.477   2.499   9.840
62666SOL    HW189837   0.403   2.478   9.783
62666SOL    HW289838   0.554   2.486   9.785
62667SOL     OW89839  11.153   6.349   9.365
62667SOL    HW189840  11.162   6.337   9.459
62667SOL    HW289841  11.113   6.435   9.355
62668SOL     OW89842   0.345   1.907   5.170
62668SOL    HW189843   0.378   1.901   5.080
62668SOL    HW289844   0.250   1.902   5.161
62669SOL     OW89845   3.090  13.868   8.976
62669SOL    HW189846   3.054  13.867   9.064
62669SOL    HW289847   3.043  13.799   8.930
62670SOL     OW89848  13.168  14.229   0.491
62670SOL    HW189849  13.246  14.273   0.524
62670SOL    HW289850  13.139  14.283   0.417
62671SOL     OW89851   9.504  13.551   1.593
62671SOL    HW189852   9.545  13.469   1.619
62671SOL    HW289853   9.501  13.603   1.674
62672SOL     OW89854   3.094   3.898   3.876
62672SOL    HW189855   3.170   3.943   3.838
62672SOL    HW289856   3.057   3.960   3.938
62673SOL     OW89857  11.496   8.187   8.629
62673SOL    HW189858  11.578   8.176   8.580
62673SOL    HW289859  11.517   8.252   8.696
62674SOL     OW89860  14.733  11.202   1.889
62674SOL    HW189861  14.731  11.160   1.803
62674SOL    HW289862  14.826  11.205   1.912
62675SOL     OW89863  10.180   4.108  13.514
62675SOL    HW189864  10.276   4.115  13.514
62675SOL    HW289865  10.162   4.040  13.579
62676SOL     OW89866   6.456   0.455   0.980
62676SOL    HW189867   6.535   0.416   0.942
62676SOL    HW289868   6.482   0.480   1.068
62677SOL     OW89869   7.469   5.390   0.094
62677SOL    HW189870   7.414   5.452   0.046
62677SOL    HW289871   7.415   5.312   0.103
62678SOL     OW89872   4.742  14.858  10.631
62678SOL    HW189873   4.708   0.050  10.570
62678SOL    HW289874   4.708   0.011  10.717
62679SOL     OW89875   5.159  11.880   3.199
62679SOL    HW189876   5.165  11.939   3.124
62679SOL    HW289877   5.250  11.866   3.227
62680SOL     OW89878   5.852  12.033  14.793
62680SOL    HW189879   5.891  11.959  14.745
62680SOL    HW289880   5.913  12.105  14.780
62681SOL     OW89881  13.105  12.050   0.921
62681SOL    HW189882  13.014  12.077   0.919
62681SOL    HW289883  13.116  12.010   1.008
62682SOL     OW89884   2.682   3.420   4.240
62682SOL    HW189885   2.720   3.421   4.328
62682SOL    HW289886   2.746   3.468   4.186
62683SOL     OW89887  13.030   8.066  13.035
62683SOL    HW189888  13.028   8.089  13.127
62683SOL    HW289889  13.033   8.150  12.989
62684SOL     OW89890   1.475   6.332  12.290
62684SOL    HW189891   1.540   6.265  12.274
62684SOL    HW289892   1.483   6.392  12.216
62685SOL     OW89893  14.194   6.121  14.541
62685SOL    HW189894  14.130   6.050  14.531
62685SOL    HW289895  14.146   6.190  14.585
62686SOL     OW89896  13.817   3.655   0.664
62686SOL    HW189897  13.773   3.591   0.609
62686SOL    HW289898  13.768   3.654   0.746
62687SOL     OW89899  12.838  12.763   5.505
62687SOL    HW189900  12.889  12.843   5.516
62687SOL    HW289901  12.789  12.777   5.424
62688SOL     OW89902  10.313   2.782   9.427
62688SOL    HW189903  10.241   2.726   9.456
62688SOL    HW289904  10.334   2.836   9.503
62689SOL     OW89905   7.162  12.100   5.721
62689SOL    HW189906   7.182  12.192   5.704
62689SOL    HW289907   7.167  12.058   5.635
62690SOL     OW89908  11.013  10.212   7.077
62690SOL    HW189909  11.071  10.242   7.147
62690SOL    HW289910  10.938  10.173   7.123
62691SOL     OW89911   8.922   3.123   9.442
62691SOL    HW189912   8.867   3.052   9.476
62691SOL    HW289913   8.873   3.158   9.368
62692SOL     OW89914   6.983   3.281   4.419
62692SOL    HW189915   7.005   3.372   4.399
62692SOL    HW289916   7.058   3.250   4.471
62693SOL     OW89917   0.454   1.697   5.566
62693SOL    HW189918   0.505   1.620   5.593
62693SOL    HW289919   0.463   1.699   5.471
62694SOL     OW89920  12.124   3.786   4.194
62694SOL    HW189921  12.131   3.852   4.263
62694SOL    HW289922  12.038   3.746   4.207
62695SOL     OW89923  14.223   8.682   2.105
62695SOL    HW189924  14.259   8.696   2.017
62695SOL    HW289925  14.228   8.767   2.148
62696SOL     OW89926   1.583   1.115   1.130
62696SOL    HW189927   1.550   1.175   1.063
62696SOL    HW289928   1.678   1.114   1.116
62697SOL     OW89929  11.950   5.813   9.017
62697SOL    HW189930  11.913   5.861   9.091
62697SOL    HW289931  12.041   5.797   9.042
62698SOL     OW89932   0.590   3.463  10.443
62698SOL    HW189933   0.577   3.558  10.450
62698SOL    HW289934   0.501   3.427  10.447
62699SOL     OW89935  12.458  13.814  10.948
62699SOL    HW189936  12.382  13.756  10.936
62699SOL    HW289937  12.455  13.873  10.872
62700SOL     OW89938   1.651  11.684  12.240
62700SOL    HW189939   1.724  11.745  12.247
62700SOL    HW289940   1.612  11.704  12.155
62701SOL     OW89941  12.759   5.287   5.363
62701SOL    HW189942  12.771   5.243   5.447
62701SOL    HW289943  12.666   5.307   5.359
62702SOL     OW89944   6.192   7.723  14.831
62702SOL    HW189945   6.288   7.721  14.831
62702SOL    HW289946   6.168   7.669  14.756
62703SOL     OW89947   8.098  12.063   8.373
62703SOL    HW189948   8.115  12.136   8.314
62703SOL    HW289949   8.064  12.104   8.453
62704SOL     OW89950  10.578  13.133  12.844
62704SOL    HW189951  10.508  13.184  12.887
62704SOL    HW289952  10.535  13.093  12.769
62705SOL     OW89953   0.045   9.827   5.605
62705SOL    HW189954   0.094   9.870   5.676
62705SOL    HW289955   0.109   9.772   5.561
62706SOL     OW89956   4.595   2.993   5.927
62706SOL    HW189957   4.666   2.959   5.981
62706SOL    HW289958   4.536   3.036   5.989
62707SOL     OW89959   8.308  12.848   0.647
62707SOL    HW189960   8.266  12.929   0.618
62707SOL    HW289961   8.290  12.785   0.577
62708SOL     OW89962   2.167  10.197   8.671
62708SOL    HW189963   2.082  10.234   8.698
62708SOL    HW289964   2.231  10.256   8.709
62709SOL     OW89965   6.977   4.616   8.010
62709SOL    HW189966   6.889   4.631   8.045
62709SOL    HW289967   7.014   4.704   8.002
62710SOL     OW89968   3.438  11.788   8.158
62710SOL    HW189969   3.348  11.793   8.191
62710SOL    HW289970   3.450  11.697   8.133
62711SOL     OW89971   8.467   4.866   4.455
62711SOL    HW189972   8.383   4.865   4.409
62711SOL    HW289973   8.509   4.947   4.426
62712SOL     OW89974   3.231   3.371   1.791
62712SOL    HW189975   3.185   3.313   1.730
62712SOL    HW289976   3.302   3.317   1.826
62713SOL     OW89977   1.360  10.773   6.936
62713SOL    HW189978   1.414  10.709   6.889
62713SOL    HW289979   1.409  10.792   7.016
62714SOL     OW89980   1.131   6.096   4.627
62714SOL    HW189981   1.065   6.034   4.596
62714SOL    HW289982   1.115   6.103   4.721
62715SOL     OW89983  11.399   7.764  10.636
62715SOL    HW189984  11.480   7.762  10.687
62715SOL    HW289985  11.343   7.697  10.676
62716SOL     OW89986   3.061   2.067   2.684
62716SOL    HW189987   3.049   2.155   2.647
62716SOL    HW289988   3.113   2.021   2.618
62717SOL     OW89989  11.196   6.143   5.350
62717SOL    HW189990  11.286   6.157   5.321
62717SOL    HW289991  11.204   6.122   5.443
62718SOL     OW89992   9.885  10.062   3.331
62718SOL    HW189993   9.840  10.032   3.252
62718SOL    HW289994   9.977  10.040   3.315
62719SOL     OW89995  12.744  10.472   7.096
62719SOL    HW189996  12.676  10.491   7.161
62719SOL    HW289997  12.796  10.402   7.137
62720SOL     OW89998   6.633   5.726   7.553
62720SOL    HW189999   6.695   5.787   7.513
62720SOL    HW290000   6.580   5.780   7.611
62721SOL     OW90001   8.715  13.109   6.374
62721SOL    HW190002   8.752  13.086   6.459
62721SOL    HW290003   8.781  13.164   6.332
62722SOL     OW90004   5.782  14.572  13.513
62722SOL    HW190005   5.770  14.478  13.497
62722SOL    HW290006   5.771  14.581  13.608
62723SOL     OW90007   0.157   8.261  13.908
62723SOL    HW190008   0.180   8.178  13.948
62723SOL    HW290009   0.201   8.260  13.822
62724SOL     OW90010  12.921  11.329  14.579
62724SOL    HW190011  12.974  11.258  14.615
62724SOL    HW290012  12.972  11.408  14.595
62725SOL     OW90013  14.289   4.073   5.475
62725SOL    HW190014  14.196   4.087   5.456
62725SOL    HW290015  14.333   4.091   5.391
62726SOL     OW90016  14.799  13.195   4.817
62726SOL    HW190017   0.013  13.231   4.820
62726SOL    HW290018  14.808  13.115   4.765
62727SOL     OW90019   2.003  13.240   3.978
62727SOL    HW190020   2.000  13.205   4.067
62727SOL    HW290021   2.040  13.170   3.926
62728SOL     OW90022   7.385  14.588   2.708
62728SOL    HW190023   7.334  14.668   2.714
62728SOL    HW290024   7.336  14.533   2.647
62729SOL     OW90025   6.350   6.929   1.885
62729SOL    HW190026   6.345   6.840   1.920
62729SOL    HW290027   6.299   6.926   1.804
62730SOL     OW90028   6.461   2.208  11.928
62730SOL    HW190029   6.474   2.158  12.009
62730SOL    HW290030   6.383   2.170  11.889
62731SOL     OW90031   3.640   3.726  13.939
62731SOL    HW190032   3.731   3.726  13.968
62731SOL    HW290033   3.609   3.815  13.955
62732SOL     OW90034  14.144  10.114   3.969
62732SOL    HW190035  14.135  10.057   3.893
62732SOL    HW290036  14.161  10.201   3.933
62733SOL     OW90037   1.007   7.630   6.026
62733SOL    HW190038   0.968   7.604   6.110
62733SOL    HW290039   0.988   7.724   6.019
62734SOL     OW90040   4.587   4.985   0.498
62734SOL    HW190041   4.522   5.049   0.527
62734SOL    HW290042   4.594   4.924   0.572
62735SOL     OW90043   9.896   8.872   1.251
62735SOL    HW190044   9.933   8.949   1.293
62735SOL    HW290045   9.807   8.866   1.285
62736SOL     OW90046   3.584   3.317   7.212
62736SOL    HW190047   3.623   3.311   7.299
62736SOL    HW290048   3.559   3.409   7.204
62737SOL     OW90049   8.258   3.760   7.734
62737SOL    HW190050   8.175   3.800   7.762
62737SOL    HW290051   8.322   3.830   7.743
62738SOL     OW90052   8.419   5.820   0.605
62738SOL    HW190053   8.345   5.810   0.544
62738SOL    HW290054   8.486   5.864   0.554
62739SOL     OW90055   6.362  12.988  12.977
62739SOL    HW190056   6.400  12.969  12.891
62739SOL    HW290057   6.344  13.082  12.975
62740SOL     OW90058  10.854   3.188   8.537
62740SOL    HW190059  10.867   3.181   8.632
62740SOL    HW290060  10.819   3.277   8.524
62741SOL     OW90061   6.435   5.161  10.789
62741SOL    HW190062   6.398   5.238  10.745
62741SOL    HW290063   6.505   5.197  10.843
62742SOL     OW90064   9.514  10.145   2.351
62742SOL    HW190065   9.449  10.081   2.378
62742SOL    HW290066   9.478  10.230   2.376
62743SOL     OW90067   5.331  13.523   3.613
62743SOL    HW190068   5.316  13.590   3.680
62743SOL    HW290069   5.256  13.532   3.553
62744SOL     OW90070   1.216   7.679  13.449
62744SOL    HW190071   1.218   7.586  13.428
62744SOL    HW290072   1.259   7.685  13.534
62745SOL     OW90073   5.963  14.454   9.595
62745SOL    HW190074   5.960  14.360   9.616
62745SOL    HW290075   5.984  14.497   9.678
62746SOL     OW90076  14.143   2.549   2.485
62746SOL    HW190077  14.190   2.581   2.562
62746SOL    HW290078  14.099   2.627   2.451
62747SOL     OW90079  11.552   0.743   5.962
62747SOL    HW190080  11.591   0.797   5.893
62747SOL    HW290081  11.459   0.765   5.960
62748SOL     OW90082   0.119   6.353   0.606
62748SOL    HW190083   0.141   6.287   0.673
62748SOL    HW290084   0.112   6.435   0.655
62749SOL     OW90085  11.570   5.297  14.180
62749SOL    HW190086  11.548   5.222  14.125
62749SOL    HW290087  11.606   5.362  14.118
62750SOL     OW90088   9.007   7.504  12.767
62750SOL    HW190089   8.982   7.470  12.681
62750SOL    HW290090   9.066   7.438  12.803
62751SOL     OW90091   9.746  14.673  11.511
62751SOL    HW190092   9.739  14.751  11.566
62751SOL    HW290093   9.669  14.621  11.534
62752SOL     OW90094   6.246   7.109  12.729
62752SOL    HW190095   6.159   7.128  12.762
62752SOL    HW290096   6.286   7.195  12.716
62753SOL     OW90097  12.868  12.969   6.636
62753SOL    HW190098  12.780  12.934   6.625
62753SOL    HW290099  12.921  12.923   6.571
62754SOL     OW90100   8.265  10.543   8.669
62754SOL    HW190101   8.351  10.574   8.699
62754SOL    HW290102   8.275  10.535   8.574
62755SOL     OW90103   5.976   1.323   5.054
62755SOL    HW190104   6.023   1.330   5.137
62755SOL    HW290105   5.908   1.391   5.059
62756SOL     OW90106  11.578   1.143  12.585
62756SOL    HW190107  11.513   1.077  12.607
62756SOL    HW290108  11.542   1.225  12.619
62757SOL     OW90109   7.141   4.326   6.651
62757SOL    HW190110   7.125   4.319   6.745
62757SOL    HW290111   7.113   4.242   6.615
62758SOL     OW90112  10.141   0.794   6.633
62758SOL    HW190113  10.175   0.778   6.545
62758SOL    HW290114  10.198   0.863   6.669
62759SOL     OW90115  14.381  10.734   5.362
62759SOL    HW190116  14.389  10.740   5.267
62759SOL    HW290117  14.407  10.820   5.394
62760SOL     OW90118   5.939   5.278   9.369
62760SOL    HW190119   5.968   5.187   9.368
62760SOL    HW290120   5.914   5.296   9.279
62761SOL     OW90121  10.792  10.195   0.429
62761SOL    HW190122  10.872  10.144   0.420
62761SOL    HW290123  10.818  10.272   0.479
62762SOL     OW90124   7.966   2.244   3.242
62762SOL    HW190125   8.015   2.173   3.284
62762SOL    HW290126   7.877   2.210   3.234
62763SOL     OW90127   6.354  10.743   0.990
62763SOL    HW190128   6.320  10.795   0.917
62763SOL    HW290129   6.318  10.656   0.976
62764SOL     OW90130   0.701   5.048   9.196
62764SOL    HW190131   0.620   5.001   9.174
62764SOL    HW290132   0.710   5.036   9.291
62765SOL     OW90133   3.533   4.032  11.987
62765SOL    HW190134   3.608   4.037  11.927
62765SOL    HW290135   3.533   4.116  12.032
62766SOL     OW90136  11.494   2.223   8.336
62766SOL    HW190137  11.457   2.297   8.288
62766SOL    HW290138  11.580   2.254   8.366
62767SOL     OW90139  13.839  10.660   9.970
62767SOL    HW190140  13.829  10.702  10.055
62767SOL    HW290141  13.759  10.609   9.959
62768SOL     OW90142  10.354   3.437   9.401
62768SOL    HW190143  10.320   3.458   9.488
62768SOL    HW290144  10.422   3.502   9.386
62769SOL     OW90145   2.325  11.740   2.113
62769SOL    HW190146   2.312  11.669   2.051
62769SOL    HW290147   2.274  11.813   2.077
62770SOL     OW90148   3.700   1.117   5.679
62770SOL    HW190149   3.755   1.195   5.681
62770SOL    HW290150   3.611   1.150   5.671
62771SOL     OW90151  14.396   8.239  10.271
62771SOL    HW190152  14.404   8.150  10.236
62771SOL    HW290153  14.482   8.258  10.308
62772SOL     OW90154   2.708  14.549   9.924
62772SOL    HW190155   2.634  14.585   9.973
62772SOL    HW290156   2.668  14.515   9.843
62773SOL     OW90157  10.874   6.583   2.471
62773SOL    HW190158  10.810   6.613   2.407
62773SOL    HW290159  10.927   6.518   2.424
62774SOL     OW90160  11.392   0.288   6.326
62774SOL    HW190161  11.333   0.319   6.396
62774SOL    HW290162  11.437   0.213   6.365
62775SOL     OW90163  13.923   4.745   8.535
62775SOL    HW190164  13.900   4.792   8.615
62775SOL    HW290165  14.017   4.729   8.543
62776SOL     OW90166   0.491   6.617   2.547
62776SOL    HW190167   0.494   6.558   2.472
62776SOL    HW290168   0.569   6.596   2.598
62777SOL     OW90169   3.272   3.517  12.980
62777SOL    HW190170   3.318   3.496  13.062
62777SOL    HW290171   3.185   3.547  13.009
62778SOL     OW90172   6.844  12.167   9.333
62778SOL    HW190173   6.764  12.171   9.281
62778SOL    HW290174   6.870  12.075   9.331
62779SOL     OW90175   8.130   1.309   8.379
62779SOL    HW190176   8.155   1.373   8.312
62779SOL    HW290177   8.106   1.361   8.455
62780SOL     OW90178   3.978  10.791   5.789
62780SOL    HW190179   4.007  10.706   5.757
62780SOL    HW290180   3.945  10.837   5.712
62781SOL     OW90181   3.951   7.864  14.249
62781SOL    HW190182   3.994   7.936  14.202
62781SOL    HW290183   4.023   7.815  14.289
62782SOL     OW90184   7.739   5.802   0.927
62782SOL    HW190185   7.772   5.813   0.838
62782SOL    HW290186   7.649   5.835   0.923
62783SOL     OW90187   0.973  11.762  12.232
62783SOL    HW190188   0.969  11.746  12.326
62783SOL    HW290189   0.962  11.856  12.223
62784SOL     OW90190  13.460   7.362   0.463
62784SOL    HW190191  13.448   7.276   0.505
62784SOL    HW290192  13.553   7.366   0.443
62785SOL     OW90193  11.478  13.437   7.289
62785SOL    HW190194  11.518  13.504   7.233
62785SOL    HW290195  11.386  13.434   7.261
62786SOL     OW90196  13.503   8.408   6.742
62786SOL    HW190197  13.513   8.490   6.790
62786SOL    HW290198  13.443   8.429   6.670
62787SOL     OW90199   9.474   7.822   8.233
62787SOL    HW190200   9.464   7.728   8.216
62787SOL    HW290201   9.451   7.864   8.150
62788SOL     OW90202   8.046   3.610   4.888
62788SOL    HW190203   8.066   3.562   4.808
62788SOL    HW290204   8.069   3.550   4.959
62789SOL     OW90205   3.168   8.038   5.675
62789SOL    HW190206   3.259   8.021   5.652
62789SOL    HW290207   3.156   7.994   5.758
62790SOL     OW90208   3.327  12.373   6.655
62790SOL    HW190209   3.330  12.373   6.750
62790SOL    HW290210   3.316  12.281   6.632
62791SOL     OW90211   3.699   8.299  10.879
62791SOL    HW190212   3.619   8.351  10.877
62791SOL    HW290213   3.751   8.338  10.949
62792SOL     OW90214   9.191   8.844   5.211
62792SOL    HW190215   9.114   8.862   5.266
62792SOL    HW290216   9.240   8.925   5.212
62793SOL     OW90217  12.442   7.960  11.534
62793SOL    HW190218  12.512   7.895  11.527
62793SOL    HW290219  12.466   8.027  11.471
62794SOL     OW90220   5.376   6.222   8.948
62794SOL    HW190221   5.341   6.162   8.882
62794SOL    HW290222   5.340   6.190   9.030
62795SOL     OW90223   5.839  12.822   9.278
62795SOL    HW190224   5.809  12.904   9.317
62795SOL    HW290225   5.762  12.787   9.234
62796SOL     OW90226  13.415   6.790   0.738
62796SOL    HW190227  13.444   6.864   0.791
62796SOL    HW290228  13.343   6.751   0.787
62797SOL     OW90229   8.404   1.244   4.462
62797SOL    HW190230   8.396   1.309   4.532
62797SOL    HW290231   8.316   1.206   4.455
62798SOL     OW90232  11.420  11.761   0.558
62798SOL    HW190233  11.479  11.717   0.498
62798SOL    HW290234  11.468  11.765   0.641
62799SOL     OW90235  13.000   4.506   8.539
62799SOL    HW190236  13.032   4.513   8.449
62799SOL    HW290237  13.061   4.560   8.590
62800SOL     OW90238   3.628   9.500  12.327
62800SOL    HW190239   3.710   9.547  12.316
62800SOL    HW290240   3.655   9.411  12.352
62801SOL     OW90241   4.662  12.355  12.637
62801SOL    HW190242   4.730  12.299  12.674
62801SOL    HW290243   4.699  12.384  12.553
62802SOL     OW90244  13.169   5.466  12.966
62802SOL    HW190245  13.155   5.549  13.012
62802SOL    HW290246  13.255   5.475  12.927
62803SOL     OW90247  11.780   6.998   3.768
62803SOL    HW190248  11.875   6.999   3.778
62803SOL    HW290249  11.747   7.056   3.836
62804SOL     OW90250  14.132   1.516   9.500
62804SOL    HW190251  14.227   1.508   9.509
62804SOL    HW290252  14.119   1.565   9.419
62805SOL     OW90253  12.799   7.730   1.528
62805SOL    HW190254  12.765   7.669   1.594
62805SOL    HW290255  12.722   7.754   1.476
62806SOL     OW90256   1.392   3.816  10.023
62806SOL    HW190257   1.327   3.764  10.070
62806SOL    HW290258   1.371   3.805   9.931
62807SOL     OW90259   9.966   7.112  12.704
62807SOL    HW190260   9.897   7.092  12.768
62807SOL    HW290261   9.924   7.101  12.619
62808SOL     OW90262   9.028  14.173  13.478
62808SOL    HW190263   9.122  14.169  13.491
62808SOL    HW290264   9.002  14.259  13.512
62809SOL     OW90265  14.704   7.994   9.700
62809SOL    HW190266  14.701   8.059   9.630
62809SOL    HW290267  14.791   7.956   9.695
62810SOL     OW90268   2.950  10.262   2.815
62810SOL    HW190269   2.986  10.351   2.812
62810SOL    HW290270   2.948  10.240   2.908
62811SOL     OW90271   3.839   0.387  11.085
62811SOL    HW190272   3.879   0.321  11.028
62811SOL    HW290273   3.904   0.456  11.091
62812SOL     OW90274  14.001  14.044  10.065
62812SOL    HW190275  13.958  14.110  10.119
62812SOL    HW290276  14.039  14.093   9.992
62813SOL     OW90277   8.358   8.614   3.237
62813SOL    HW190278   8.450   8.604   3.261
62813SOL    HW290279   8.359   8.617   3.141
62814SOL     OW90280  10.350   0.789  12.695
62814SOL    HW190281  10.445   0.783  12.686
62814SOL    HW290282  10.336   0.818  12.785
62815SOL     OW90283   7.777   5.344   6.710
62815SOL    HW190284   7.863   5.375   6.738
62815SOL    HW290285   7.735   5.314   6.791
62816SOL     OW90286  11.147  12.671   7.137
62816SOL    HW190287  11.142  12.576   7.125
62816SOL    HW290288  11.095  12.707   7.065
62817SOL     OW90289   6.576   8.799   6.030
62817SOL    HW190290   6.486   8.829   6.013
62817SOL    HW290291   6.631   8.867   5.991
62818SOL     OW90292   3.739   9.271   5.635
62818SOL    HW190293   3.808   9.230   5.584
62818SOL    HW290294   3.695   9.198   5.679
62819SOL     OW90295   8.486   6.636   9.504
62819SOL    HW190296   8.446   6.613   9.420
62819SOL    HW290297   8.568   6.586   9.506
62820SOL     OW90298   1.335  12.165   5.199
62820SOL    HW190299   1.288  12.095   5.154
62820SOL    HW290300   1.407  12.120   5.244
62821SOL     OW90301   1.969   7.723   3.851
62821SOL    HW190302   1.899   7.677   3.897
62821SOL    HW290303   1.955   7.701   3.759
62822SOL     OW90304   6.631   8.731   7.702
62822SOL    HW190305   6.574   8.773   7.638
62822SOL    HW290306   6.667   8.804   7.753
62823SOL     OW90307  10.157  10.538  10.934
62823SOL    HW190308  10.222  10.587  10.985
62823SOL    HW290309  10.138  10.461  10.987
62824SOL     OW90310   1.838   1.706   4.986
62824SOL    HW190311   1.844   1.674   5.076
62824SOL    HW290312   1.745   1.704   4.965
62825SOL     OW90313  11.228   0.696  13.647
62825SOL    HW190314  11.193   0.642  13.576
62825SOL    HW290315  11.322   0.700  13.630
62826SOL     OW90316   1.440  11.849   0.842
62826SOL    HW190317   1.468  11.940   0.855
62826SOL    HW290318   1.349  11.856   0.812
62827SOL     OW90319  10.988   8.811   2.688
62827SOL    HW190320  11.066   8.810   2.744
62827SOL    HW290321  10.961   8.719   2.683
62828SOL     OW90322  13.320   7.860   9.089
62828SOL    HW190323  13.312   7.773   9.050
62828SOL    HW290324  13.363   7.845   9.173
62829SOL     OW90325   0.029   9.605  13.652
62829SOL    HW190326  14.854   9.560  13.721
62829SOL    HW290327   0.009   9.698  13.666
62830SOL     OW90328   1.807   0.888   2.315
62830SOL    HW190329   1.728   0.906   2.365
62830SOL    HW290330   1.776   0.856   2.230
62831SOL     OW90331   2.746  11.815   9.788
62831SOL    HW190332   2.699  11.733   9.804
62831SOL    HW290333   2.697  11.880   9.838
62832SOL     OW90334  14.729   6.129   1.322
62832SOL    HW190335  14.672   6.055   1.341
62832SOL    HW290336  14.702   6.159   1.235
62833SOL     OW90337   5.824  13.200   1.998
62833SOL    HW190338   5.893  13.245   2.047
62833SOL    HW290339   5.743  13.235   2.034
62834SOL     OW90340   8.459   3.205  10.435
62834SOL    HW190341   8.412   3.266  10.379
62834SOL    HW290342   8.513   3.260  10.491
62835SOL     OW90343   0.583   0.654  10.296
62835SOL    HW190344   0.626   0.687  10.217
62835SOL    HW290345   0.596   0.722  10.361
62836SOL     OW90346  13.987   0.151   4.385
62836SOL    HW190347  13.921   0.199   4.337
62836SOL    HW290348  13.939   0.083   4.432
62837SOL     OW90349  14.827   9.966  12.740
62837SOL    HW190350  14.767   9.969  12.814
62837SOL    HW290351  14.864   9.877  12.743
62838SOL     OW90352   5.991  13.550  11.095
62838SOL    HW190353   6.017  13.458  11.109
62838SOL    HW290354   6.031  13.573  11.011
62839SOL     OW90355   5.053   1.260   2.923
62839SOL    HW190356   5.028   1.202   2.852
62839SOL    HW290357   5.100   1.331   2.881
62840SOL     OW90358   2.342   3.644   7.721
62840SOL    HW190359   2.395   3.593   7.661
62840SOL    HW290360   2.259   3.656   7.675
62841SOL     OW90361  14.237   9.141   2.530
62841SOL    HW190362  14.168   9.126   2.595
62841SOL    HW290363  14.319   9.134   2.580
62842SOL     OW90364   2.920   0.128  14.809
62842SOL    HW190365   2.959   0.099   0.017
62842SOL    HW290366   2.991   0.173  14.763
62843SOL     OW90367   9.262   3.536   3.277
62843SOL    HW190368   9.231   3.545   3.367
62843SOL    HW290369   9.204   3.471   3.237
62844SOL     OW90370   4.754  14.352   9.212
62844SOL    HW190371   4.684  14.354   9.278
62844SOL    HW290372   4.816  14.287   9.245
62845SOL     OW90373   0.132   1.515   6.945
62845SOL    HW190374   0.085   1.598   6.938
62845SOL    HW290375   0.110   1.468   6.864
62846SOL     OW90376  10.390   6.003  13.384
62846SOL    HW190377  10.410   6.075  13.443
62846SOL    HW290378  10.443   5.930  13.418
62847SOL     OW90379  12.246  11.473  13.535
62847SOL    HW190380  12.298  11.402  13.496
62847SOL    HW290381  12.234  11.446  13.626
62848SOL     OW90382   8.889   2.903   3.196
62848SOL    HW190383   8.855   2.849   3.125
62848SOL    HW290384   8.840   2.984   3.191
62849SOL     OW90385   7.327   0.801   2.024
62849SOL    HW190386   7.352   0.893   2.020
62849SOL    HW290387   7.333   0.778   2.116
62850SOL     OW90388   9.776   6.370  13.414
62850SOL    HW190389   9.735   6.283  13.417
62850SOL    HW290390   9.773   6.394  13.322
62851SOL     OW90391  10.573  12.575   0.994
62851SOL    HW190392  10.500  12.581   1.055
62851SOL    HW290393  10.650  12.601   1.045
62852SOL     OW90394  13.335   3.542   1.939
62852SOL    HW190395  13.426   3.538   1.911
62852SOL    HW290396  13.295   3.464   1.900
62853SOL     OW90397  14.466   8.089   3.664
62853SOL    HW190398  14.465   8.184   3.676
62853SOL    HW290399  14.429   8.076   3.576
62854SOL     OW90400   3.256   0.059   2.951
62854SOL    HW190401   3.266   0.057   2.856
62854SOL    HW290402   3.290   0.144   2.977
62855SOL     OW90403   1.224   6.272  13.897
62855SOL    HW190404   1.233   6.188  13.852
62855SOL    HW290405   1.138   6.268  13.939
62856SOL     OW90406   6.899   6.356  13.072
62856SOL    HW190407   6.834   6.350  13.003
62856SOL    HW290408   6.925   6.448  13.073
62857SOL     OW90409   3.712  14.087  10.983
62857SOL    HW190410   3.728  13.996  10.957
62857SOL    HW290411   3.786  14.108  11.040
62858SOL     OW90412  10.887  14.794   9.899
62858SOL    HW190413  10.807  14.822   9.944
62858SOL    HW290414  10.951  14.861   9.921
62859SOL     OW90415  14.651   3.456   3.668
62859SOL    HW190416  14.582   3.421   3.724
62859SOL    HW290417  14.691   3.526   3.720
62860SOL     OW90418   8.550   5.390   2.444
62860SOL    HW190419   8.612   5.394   2.371
62860SOL    HW290420   8.592   5.331   2.508
62861SOL     OW90421   7.588   9.222   8.854
62861SOL    HW190422   7.574   9.180   8.939
62861SOL    HW290423   7.662   9.174   8.815
62862SOL     OW90424   4.316   9.709  11.709
62862SOL    HW190425   4.407   9.705  11.737
62862SOL    HW290426   4.308   9.793  11.665
62863SOL     OW90427   8.419   2.949  10.132
62863SOL    HW190428   8.358   3.023  10.133
62863SOL    HW290429   8.448   2.940  10.222
62864SOL     OW90430   4.759  12.501   1.184
62864SOL    HW190431   4.744  12.568   1.250
62864SOL    HW290432   4.747  12.546   1.101
62865SOL     OW90433   0.193  12.690   0.501
62865SOL    HW190434   0.101  12.709   0.516
62865SOL    HW290435   0.195  12.600   0.469
62866SOL     OW90436   7.555   8.390  10.255
62866SOL    HW190437   7.639   8.406  10.211
62866SOL    HW290438   7.490   8.403  10.186
62867SOL     OW90439  10.716  11.631  11.073
62867SOL    HW190440  10.680  11.712  11.036
62867SOL    HW290441  10.736  11.577  10.996
62868SOL     OW90442   5.680  14.560   9.913
62868SOL    HW190443   5.655  14.628   9.850
62868SOL    HW290444   5.609  14.496   9.907
62869SOL     OW90445  14.539   1.744   0.913
62869SOL    HW190446  14.468   1.729   0.976
62869SOL    HW290447  14.570   1.656   0.892
62870SOL     OW90448  14.563   3.809   7.882
62870SOL    HW190449  14.496   3.799   7.950
62870SOL    HW290450  14.515   3.837   7.805
62871SOL     OW90451   2.404  11.905  14.775
62871SOL    HW190452   2.316  11.887  14.810
62871SOL    HW290453   2.391  11.914  14.681
62872SOL     OW90454   7.833   1.216   7.412
62872SOL    HW190455   7.760   1.210   7.350
62872SOL    HW290456   7.869   1.128   7.415
62873SOL     OW90457   4.747  11.208   2.485
62873SOL    HW190458   4.798  11.128   2.498
62873SOL    HW290459   4.693  11.215   2.565
62874SOL     OW90460   2.821  12.939   2.104
62874SOL    HW190461   2.745  12.996   2.088
62874SOL    HW290462   2.889  12.972   2.046
62875SOL     OW90463  13.382   8.274   9.147
62875SOL    HW190464  13.290   8.279   9.124
62875SOL    HW290465  13.388   8.203   9.210
62876SOL     OW90466  12.406   7.195  14.153
62876SOL    HW190467  12.454   7.116  14.177
62876SOL    HW290468  12.325   7.162  14.112
62877SOL     OW90469  10.594   6.988   5.037
62877SOL    HW190470  10.563   6.903   5.068
62877SOL    HW290471  10.687   6.990   5.060
62878SOL     OW90472   4.592  14.314   4.023
62878SOL    HW190473   4.617  14.222   4.017
62878SOL    HW290474   4.543  14.320   4.105
62879SOL     OW90475   1.104  11.186  14.645
62879SOL    HW190476   1.162  11.207  14.571
62879SOL    HW290477   1.055  11.109  14.615
62880SOL     OW90478  10.156  11.739   4.964
62880SOL    HW190479  10.189  11.654   4.993
62880SOL    HW290480  10.063  11.724   4.946
62881SOL     OW90481   5.857   8.288   5.797
62881SOL    HW190482   5.853   8.382   5.819
62881SOL    HW290483   5.871   8.286   5.703
62882SOL     OW90484   9.891  10.427  11.778
62882SOL    HW190485   9.867  10.519  11.789
62882SOL    HW290486   9.961  10.427  11.713
62883SOL     OW90487   1.565   0.952   3.901
62883SOL    HW190488   1.483   0.916   3.867
62883SOL    HW290489   1.626   0.947   3.828
62884SOL     OW90490   6.640  11.562   4.572
62884SOL    HW190491   6.697  11.588   4.645
62884SOL    HW290492   6.656  11.629   4.505
62885SOL     OW90493   7.436  13.546   9.016
62885SOL    HW190494   7.433  13.636   9.047
62885SOL    HW290495   7.363  13.503   9.060
62886SOL     OW90496   8.044   3.590   5.430
62886SOL    HW190497   8.027   3.534   5.506
62886SOL    HW290498   8.067   3.675   5.468
62887SOL     OW90499   3.681   3.305   3.813
62887SOL    HW190500   3.711   3.219   3.783
62887SOL    HW290501   3.664   3.354   3.733
62888SOL     OW90502   4.578   3.617   4.191
62888SOL    HW190503   4.618   3.683   4.248
62888SOL    HW290504   4.499   3.658   4.158
62889SOL     OW90505  12.128   8.176  12.754
62889SOL    HW190506  12.159   8.143  12.670
62889SOL    HW290507  12.177   8.125  12.819
62890SOL     OW90508   9.433   6.287   4.271
62890SOL    HW190509   9.340   6.293   4.294
62890SOL    HW290510   9.467   6.219   4.329
62891SOL     OW90511   1.801  14.535   1.545
62891SOL    HW190512   1.803  14.502   1.635
62891SOL    HW290513   1.877  14.592   1.538
62892SOL     OW90514   4.023  10.040   5.579
62892SOL    HW190515   4.024  10.126   5.623
62892SOL    HW290516   4.074   9.983   5.637
62893SOL     OW90517   7.503  11.175   3.659
62893SOL    HW190518   7.541  11.224   3.733
62893SOL    HW290519   7.412  11.160   3.685
62894SOL     OW90520   5.960  13.836   7.845
62894SOL    HW190521   5.989  13.927   7.833
62894SOL    HW290522   5.952  13.802   7.756
62895SOL     OW90523  14.300   9.688   9.662
62895SOL    HW190524  14.238   9.617   9.678
62895SOL    HW290525  14.378   9.663   9.712
62896SOL     OW90526  10.591   6.246   9.274
62896SOL    HW190527  10.541   6.282   9.200
62896SOL    HW290528  10.682   6.268   9.253
62897SOL     OW90529   0.210  12.556   4.655
62897SOL    HW190530   0.132  12.511   4.623
62897SOL    HW290531   0.241  12.606   4.580
62898SOL     OW90532   4.312   1.222   4.852
62898SOL    HW190533   4.290   1.143   4.803
62898SOL    HW290534   4.384   1.261   4.804
62899SOL     OW90535   9.283   9.378   8.570
62899SOL    HW190536   9.314   9.432   8.643
62899SOL    HW290537   9.262   9.294   8.610
62900SOL     OW90538   7.812  11.500   4.300
62900SOL    HW190539   7.835  11.462   4.385
62900SOL    HW290540   7.797  11.592   4.318
62901SOL     OW90541   2.724   9.341  10.999
62901SOL    HW190542   2.702   9.302  11.084
62901SOL    HW290543   2.655   9.310  10.940
62902SOL     OW90544   6.057   9.212   3.024
62902SOL    HW190545   6.091   9.214   3.113
62902SOL    HW290546   6.134   9.221   2.968
62903SOL     OW90547   8.330   0.011   1.202
62903SOL    HW190548   8.411  14.870   1.251
62903SOL    HW290549   8.320  14.807   1.148
62904SOL     OW90550  14.183   6.756   4.397
62904SOL    HW190551  14.272   6.729   4.372
62904SOL    HW290552  14.161   6.825   4.335
62905SOL     OW90553   1.094   8.973   5.753
62905SOL    HW190554   1.064   8.885   5.777
62905SOL    HW290555   1.015   9.017   5.720
62906SOL     OW90556   7.678   5.123   1.208
62906SOL    HW190557   7.587   5.138   1.186
62906SOL    HW290558   7.705   5.201   1.255
62907SOL     OW90559   6.238   3.122   8.866
62907SOL    HW190560   6.269   3.182   8.797
62907SOL    HW290561   6.268   3.161   8.947
62908SOL     OW90562  10.789   0.269  14.221
62908SOL    HW190563  10.758   0.243  14.308
62908SOL    HW290564  10.764   0.196  14.165
62909SOL     OW90565   6.388   1.792   4.164
62909SOL    HW190566   6.329   1.848   4.113
62909SOL    HW290567   6.458   1.769   4.103
62910SOL     OW90568   4.214   4.784  11.307
62910SOL    HW190569   4.204   4.879  11.312
62910SOL    HW290570   4.211   4.765  11.213
62911SOL     OW90571   6.302   8.312   2.462
62911SOL    HW190572   6.386   8.271   2.442
62911SOL    HW290573   6.242   8.277   2.396
62912SOL     OW90574  13.276   7.362   4.343
62912SOL    HW190575  13.365   7.396   4.353
62912SOL    HW290576  13.237   7.416   4.275
62913SOL     OW90577  12.673   3.050   6.515
62913SOL    HW190578  12.732   3.055   6.440
62913SOL    HW290579  12.633   2.963   6.508
62914SOL     OW90580   0.206   3.854   5.658
62914SOL    HW190581   0.177   3.789   5.722
62914SOL    HW290582   0.138   3.921   5.660
62915SOL     OW90583   5.438   8.942  13.333
62915SOL    HW190584   5.503   8.923  13.400
62915SOL    HW290585   5.382   9.010  13.372
62916SOL     OW90586   2.929  10.115  11.382
62916SOL    HW190587   2.899  10.193  11.429
62916SOL    HW290588   2.970  10.150  11.303
62917SOL     OW90589   5.043  10.620   7.443
62917SOL    HW190590   5.079  10.559   7.378
62917SOL    HW290591   5.120  10.659   7.484
62918SOL     OW90592   8.602   6.673  13.879
62918SOL    HW190593   8.520   6.722  13.888
62918SOL    HW290594   8.661   6.715  13.941
62919SOL     OW90595   2.786   7.026   9.276
62919SOL    HW190596   2.753   6.940   9.251
62919SOL    HW290597   2.796   7.073   9.193
62920SOL     OW90598   2.139   2.849  13.599
62920SOL    HW190599   2.054   2.804  13.603
62920SOL    HW290600   2.195   2.790  13.550
62921SOL     OW90601   8.873   1.346   5.607
62921SOL    HW190602   8.863   1.257   5.641
62921SOL    HW290603   8.837   1.343   5.519
62922SOL     OW90604  11.565   9.823   8.148
62922SOL    HW190605  11.529   9.848   8.233
62922SOL    HW290606  11.612   9.901   8.118
62923SOL     OW90607   4.667  10.174   0.974
62923SOL    HW190608   4.673  10.087   1.014
62923SOL    HW290609   4.748  10.184   0.925
62924SOL     OW90610  13.508  11.677   5.073
62924SOL    HW190611  13.440  11.648   5.134
62924SOL    HW290612  13.575  11.718   5.128
62925SOL     OW90613   4.740   3.573  14.428
62925SOL    HW190614   4.740   3.663  14.462
62925SOL    HW290615   4.832   3.546  14.433
62926SOL     OW90616  12.463   6.396   5.793
62926SOL    HW190617  12.439   6.325   5.733
62926SOL    HW290618  12.539   6.363   5.841
62927SOL     OW90619   9.000  12.430   1.440
62927SOL    HW190620   8.986  12.485   1.363
62927SOL    HW290621   9.067  12.477   1.491
62928SOL     OW90622   2.375   5.245   1.195
62928SOL    HW190623   2.405   5.232   1.285
62928SOL    HW290624   2.413   5.329   1.169
62929SOL     OW90625   8.815   2.128   0.645
62929SOL    HW190626   8.849   2.196   0.587
62929SOL    HW290627   8.777   2.063   0.585
62930SOL     OW90628   9.463  11.128   8.698
62930SOL    HW190629   9.545  11.105   8.741
62930SOL    HW290630   9.451  11.221   8.716
62931SOL     OW90631   3.311   9.647   8.263
62931SOL    HW190632   3.220   9.616   8.263
62931SOL    HW290633   3.319   9.698   8.183
62932SOL     OW90634   5.313   8.657  13.148
62932SOL    HW190635   5.273   8.622  13.228
62932SOL    HW290636   5.313   8.583  13.087
62933SOL     OW90637   5.045   3.122   0.517
62933SOL    HW190638   5.081   3.144   0.603
62933SOL    HW290639   4.983   3.192   0.498
62934SOL     OW90640  11.223   2.727   4.038
62934SOL    HW190641  11.140   2.714   4.082
62934SOL    HW290642  11.226   2.821   4.019
62935SOL     OW90643   4.781   7.684   0.470
62935SOL    HW190644   4.769   7.596   0.435
62935SOL    HW290645   4.874   7.702   0.459
62936SOL     OW90646  11.513   8.075  11.063
62936SOL    HW190647  11.588   8.060  11.122
62936SOL    HW290648  11.453   8.004  11.083
62937SOL     OW90649   6.398   6.883   6.678
62937SOL    HW190650   6.463   6.873   6.748
62937SOL    HW290651   6.351   6.963   6.701
62938SOL     OW90652   9.348   0.606  10.248
62938SOL    HW190653   9.297   0.662  10.306
62938SOL    HW290654   9.294   0.528  10.235
62939SOL     OW90655   6.213   8.676   7.537
62939SOL    HW190656   6.202   8.582   7.545
62939SOL    HW290657   6.159   8.713   7.607
62940SOL     OW90658  12.844   9.378   4.398
62940SOL    HW190659  12.931   9.346   4.421
62940SOL    HW290660  12.857   9.424   4.315
62941SOL     OW90661   3.484  13.774   6.745
62941SOL    HW190662   3.495  13.700   6.804
62941SOL    HW290663   3.409  13.750   6.690
62942SOL     OW90664   2.250   6.701   5.560
62942SOL    HW190665   2.301   6.763   5.611
62942SOL    HW290666   2.213   6.640   5.624
62943SOL     OW90667   2.162  12.229   2.537
62943SOL    HW190668   2.244  12.246   2.583
62943SOL    HW290669   2.103  12.299   2.568
62944SOL     OW90670   6.414   2.909   3.726
62944SOL    HW190671   6.468   2.843   3.769
62944SOL    HW290672   6.370   2.861   3.655
62945SOL     OW90673   0.222   7.894   5.001
62945SOL    HW190674   0.215   7.869   5.093
62945SOL    HW290675   0.136   7.929   4.978
62946SOL     OW90676   1.105  12.675   3.067
62946SOL    HW190677   1.086  12.767   3.082
62946SOL    HW290678   1.136  12.643   3.152
62947SOL     OW90679  13.159   4.970   1.816
62947SOL    HW190680  13.074   5.010   1.832
62947SOL    HW290681  13.195   4.954   1.904
62948SOL     OW90682   3.997   6.803   8.664
62948SOL    HW190683   4.046   6.737   8.712
62948SOL    HW290684   3.947   6.754   8.599
62949SOL     OW90685   3.763  11.963   5.489
62949SOL    HW190686   3.749  11.885   5.543
62949SOL    HW290687   3.680  12.009   5.490
62950SOL     OW90688   0.465   1.040   9.395
62950SOL    HW190689   0.543   1.068   9.349
62950SOL    HW290690   0.497   0.980   9.462
62951SOL     OW90691  13.784   0.165   1.715
62951SOL    HW190692  13.781   0.234   1.649
62951SOL    HW290693  13.716   0.104   1.688
62952SOL     OW90694  11.654  12.578   5.716
62952SOL    HW190695  11.563  12.585   5.745
62952SOL    HW290696  11.674  12.485   5.722
62953SOL     OW90697  10.041   6.547   2.059
62953SOL    HW190698  10.045   6.642   2.043
62953SOL    HW290699  10.064   6.537   2.151
62954SOL     OW90700  10.886   1.585   6.655
62954SOL    HW190701  10.833   1.520   6.700
62954SOL    HW290702  10.848   1.669   6.680
62955SOL     OW90703   9.210  14.242   2.865
62955SOL    HW190704   9.224  14.154   2.829
62955SOL    HW290705   9.195  14.297   2.788
62956SOL     OW90706   1.359   7.000   9.234
62956SOL    HW190707   1.359   6.994   9.329
62956SOL    HW290708   1.451   7.007   9.209
62957SOL     OW90709   5.212  13.236  12.642
62957SOL    HW190710   5.117  13.245  12.644
62957SOL    HW290711   5.234  13.197  12.727
62958SOL     OW90712   6.275   5.175  11.449
62958SOL    HW190713   6.258   5.091  11.491
62958SOL    HW290714   6.319   5.227  11.517
62959SOL     OW90715  11.097  10.277  12.320
62959SOL    HW190716  11.184  10.298  12.353
62959SOL    HW290717  11.099  10.302  12.228
62960SOL     OW90718   6.343  14.865   3.372
62960SOL    HW190719   6.396   0.036   3.437
62960SOL    HW290720   6.392  14.784   3.353
62961SOL     OW90721   3.431  13.927  10.997
62961SOL    HW190722   3.499  13.911  11.062
62961SOL    HW290723   3.375  13.995  11.036
62962SOL     OW90724  13.100   1.735   3.428
62962SOL    HW190725  13.092   1.821   3.386
62962SOL    HW290726  13.051   1.744   3.510
62963SOL     OW90727  13.573   9.632  11.974
62963SOL    HW190728  13.617   9.555  11.940
62963SOL    HW290729  13.598   9.635  12.067
62964SOL     OW90730   9.628   9.967   7.112
62964SOL    HW190731   9.566  10.011   7.054
62964SOL    HW290732   9.682   9.913   7.053
62965SOL     OW90733   1.742   2.463   9.914
62965SOL    HW190734   1.816   2.502   9.868
62965SOL    HW290735   1.673   2.529   9.909
62966SOL     OW90736  12.780   9.128   0.072
62966SOL    HW190737  12.762   9.133  14.852
62966SOL    HW290738  12.771   9.218   0.103
62967SOL     OW90739   8.040   8.332  11.135
62967SOL    HW190740   8.080   8.419  11.136
62967SOL    HW290741   7.947   8.348  11.119
62968SOL     OW90742  10.638  11.550   3.601
62968SOL    HW190743  10.625  11.631   3.552
62968SOL    HW290744  10.709  11.506   3.555
62969SOL     OW90745  13.061   6.934   4.093
62969SOL    HW190746  13.127   6.874   4.059
62969SOL    HW290747  13.106   6.983   4.163
62970SOL     OW90748   8.703  13.625   8.978
62970SOL    HW190749   8.742  13.649   9.062
62970SOL    HW290750   8.741  13.541   8.956
62971SOL     OW90751   8.747  14.774   7.024
62971SOL    HW190752   8.823  14.823   6.993
62971SOL    HW290753   8.783  14.691   7.054
62972SOL     OW90754  14.474   7.562  11.467
62972SOL    HW190755  14.538   7.580  11.535
62972SOL    HW290756  14.523   7.565  11.386
62973SOL     OW90757   7.165  13.141  12.753
62973SOL    HW190758   7.260  13.148  12.760
62973SOL    HW290759   7.135  13.118  12.841
62974SOL     OW90760  11.179   0.268   2.652
62974SOL    HW190761  11.208   0.248   2.741
62974SOL    HW290762  11.134   0.189   2.623
62975SOL     OW90763   9.395   9.052   5.779
62975SOL    HW190764   9.301   9.052   5.795
62975SOL    HW290765   9.427   9.132   5.820
62976SOL     OW90766   9.379   3.380   2.379
62976SOL    HW190767   9.423   3.394   2.462
62976SOL    HW290768   9.286   3.383   2.400
62977SOL     OW90769   6.411   2.772  12.583
62977SOL    HW190770   6.421   2.804  12.673
62977SOL    HW290771   6.470   2.697  12.578
62978SOL     OW90772   5.808   1.878   4.863
62978SOL    HW190773   5.835   1.817   4.931
62978SOL    HW290774   5.753   1.942   4.908
62979SOL     OW90775   4.879   4.288   0.044
62979SOL    HW190776   4.838   4.247   0.120
62979SOL    HW290777   4.973   4.269   0.053
62980SOL     OW90778   7.732  10.511   6.618
62980SOL    HW190779   7.696  10.462   6.692
62980SOL    HW290780   7.715  10.603   6.640
62981SOL     OW90781  10.635   3.598  14.056
62981SOL    HW190782  10.701   3.568  14.119
62981SOL    HW290783  10.574   3.525  14.049
62982SOL     OW90784  12.521  11.976   3.832
62982SOL    HW190785  12.558  11.959   3.918
62982SOL    HW290786  12.592  12.019   3.783
62983SOL     OW90787   6.049   5.028   3.125
62983SOL    HW190788   5.974   4.994   3.076
62983SOL    HW290789   6.123   4.973   3.097
62984SOL     OW90790   6.665   6.881   1.349
62984SOL    HW190791   6.603   6.898   1.421
62984SOL    HW290792   6.652   6.789   1.327
62985SOL     OW90793   0.224   4.464  10.744
62985SOL    HW190794   0.287   4.403  10.706
62985SOL    HW290795   0.240   4.546  10.697
62986SOL     OW90796  12.440   5.168   1.795
62986SOL    HW190797  12.468   5.106   1.729
62986SOL    HW290798  12.514   5.229   1.803
62987SOL     OW90799   0.497   1.745   9.426
62987SOL    HW190800   0.547   1.673   9.465
62987SOL    HW290801   0.542   1.766   9.345
62988SOL     OW90802  11.652  13.331   1.873
62988SOL    HW190803  11.599  13.285   1.939
62988SOL    HW290804  11.614  13.419   1.870
62989SOL     OW90805  11.657   7.694  11.917
62989SOL    HW190806  11.731   7.637  11.894
62989SOL    HW290807  11.579   7.642  11.898
62990SOL     OW90808   3.226   7.287   7.189
62990SOL    HW190809   3.223   7.332   7.104
62990SOL    HW290810   3.221   7.357   7.254
62991SOL     OW90811   9.327   8.758   1.931
62991SOL    HW190812   9.373   8.842   1.922
62991SOL    HW290813   9.393   8.693   1.906
62992SOL     OW90814   0.128   8.789   4.755
62992SOL    HW190815   0.142   8.724   4.686
62992SOL    HW290816   0.070   8.745   4.818
62993SOL     OW90817   3.034   6.853   3.018
62993SOL    HW190818   3.097   6.925   3.016
62993SOL    HW290819   3.082   6.777   2.986
62994SOL     OW90820   3.429   5.392   6.671
62994SOL    HW190821   3.350   5.443   6.653
62994SOL    HW290822   3.447   5.346   6.589
62995SOL     OW90823   6.730   5.187  10.172
62995SOL    HW190824   6.802   5.247  10.191
62995SOL    HW290825   6.651   5.242  10.174
62996SOL     OW90826   2.177   9.099   9.282
62996SOL    HW190827   2.135   9.023   9.241
62996SOL    HW290828   2.199   9.070   9.371
62997SOL     OW90829   3.020   9.891  13.510
62997SOL    HW190830   3.016   9.796  13.519
62997SOL    HW290831   2.930   9.920  13.519
62998SOL     OW90832   0.492  14.310   4.998
62998SOL    HW190833   0.567  14.344   5.046
62998SOL    HW290834   0.525  14.231   4.955
62999SOL     OW90835   9.011   9.701  12.806
62999SOL    HW190836   8.923   9.736  12.822
62999SOL    HW290837   8.998   9.608  12.789
63000SOL     OW90838   2.058   4.062   7.913
63000SOL    HW190839   2.129   4.001   7.894
63000SOL    HW290840   1.982   4.026   7.868
63001SOL     OW90841   0.339   5.596   4.363
63001SOL    HW190842   0.396   5.523   4.337
63001SOL    HW290843   0.251   5.558   4.363
63002SOL     OW90844   9.329   4.690  10.180
63002SOL    HW190845   9.291   4.647  10.256
63002SOL    HW290846   9.273   4.665  10.107
63003SOL     OW90847  14.300   4.995   5.619
63003SOL    HW190848  14.303   4.978   5.525
63003SOL    HW290849  14.351   4.924   5.658
63004SOL     OW90850  13.893   3.855   2.213
63004SOL    HW190851  13.942   3.840   2.132
63004SOL    HW290852  13.842   3.935   2.196
63005SOL     OW90853  12.803   9.247   2.998
63005SOL    HW190854  12.893   9.223   3.021
63005SOL    HW290855  12.749   9.187   3.049
63006SOL     OW90856   9.852   7.206  11.689
63006SOL    HW190857   9.854   7.160  11.773
63006SOL    HW290858   9.778   7.168  11.642
63007SOL     OW90859   8.262   6.217   0.998
63007SOL    HW190860   8.176   6.215   0.954
63007SOL    HW290861   8.241   6.215   1.091
63008SOL     OW90862   1.856  12.039  10.327
63008SOL    HW190863   1.950  12.055  10.314
63008SOL    HW290864   1.849  12.007  10.417
63009SOL     OW90865   8.134   2.242   0.477
63009SOL    HW190866   8.149   2.185   0.402
63009SOL    HW290867   8.121   2.182   0.551
63010SOL     OW90868  10.006   3.320   5.359
63010SOL    HW190869  10.083   3.341   5.307
63010SOL    HW290870  10.027   3.351   5.448
63011SOL     OW90871  11.931  14.441   9.400
63011SOL    HW190872  11.957  14.529   9.373
63011SOL    HW290873  12.011  14.401   9.433
63012SOL     OW90874   3.969  14.350   6.528
63012SOL    HW190875   4.062  14.349   6.506
63012SOL    HW290876   3.955  14.272   6.581
63013SOL     OW90877   5.110   8.026  13.093
63013SOL    HW190878   5.138   8.115  13.070
63013SOL    HW290879   5.073   8.035  13.180
63014SOL     OW90880  14.187   7.750  11.849
63014SOL    HW190881  14.272   7.734  11.891
63014SOL    HW290882  14.124   7.704  11.904
63015SOL     OW90883   6.288  10.446   4.605
63015SOL    HW190884   6.339  10.391   4.664
63015SOL    HW290885   6.207  10.465   4.653
63016SOL     OW90886   7.181  13.387   8.110
63016SOL    HW190887   7.243  13.414   8.177
63016SOL    HW290888   7.183  13.457   8.045
63017SOL     OW90889   6.808   1.017   9.697
63017SOL    HW190890   6.727   1.030   9.746
63017SOL    HW290891   6.792   0.936   9.647
63018SOL     OW90892  10.759   6.170   6.726
63018SOL    HW190893  10.749   6.228   6.650
63018SOL    HW290894  10.850   6.182   6.753
63019SOL     OW90895   0.510   3.069   5.865
63019SOL    HW190896   0.458   3.129   5.812
63019SOL    HW290897   0.550   3.009   5.802
63020SOL     OW90898  12.836   7.640   9.771
63020SOL    HW190899  12.876   7.723   9.796
63020SOL    HW290900  12.910   7.578   9.768
63021SOL     OW90901   9.102   6.835   8.477
63021SOL    HW190902   9.066   6.886   8.404
63021SOL    HW290903   9.073   6.746   8.461
63022SOL     OW90904   5.710   8.050   7.583
63022SOL    HW190905   5.625   8.061   7.625
63022SOL    HW290906   5.696   7.984   7.515
63023SOL     OW90907   4.431  14.859   4.162
63023SOL    HW190908   4.522  14.837   4.143
63023SOL    HW290909   4.420  14.837   4.255
63024SOL     OW90910   0.488  14.155   9.220
63024SOL    HW190911   0.462  14.174   9.310
63024SOL    HW290912   0.423  14.200   9.166
63025SOL     OW90913   3.033   5.519   3.028
63025SOL    HW190914   2.967   5.501   3.096
63025SOL    HW290915   3.075   5.601   3.056
63026SOL     OW90916  13.421   4.034   3.371
63026SOL    HW190917  13.396   4.107   3.313
63026SOL    HW290918  13.516   4.030   3.364
63027SOL     OW90919  14.659  11.876   3.084
63027SOL    HW190920  14.634  11.940   3.018
63027SOL    HW290921  14.661  11.793   3.037
63028SOL     OW90922   3.150   8.865   5.703
63028SOL    HW190923   3.084   8.819   5.651
63028SOL    HW290924   3.112   8.870   5.790
63029SOL     OW90925  10.696   2.874   1.740
63029SOL    HW190926  10.690   2.824   1.821
63029SOL    HW290927  10.633   2.946   1.752
63030SOL     OW90928   9.557   1.371  12.574
63030SOL    HW190929   9.578   1.349  12.665
63030SOL    HW290930   9.639   1.403  12.537
63031SOL     OW90931   4.186   6.523   3.321
63031SOL    HW190932   4.238   6.581   3.266
63031SOL    HW290933   4.223   6.436   3.307
63032SOL     OW90934  13.142   3.403   0.651
63032SOL    HW190935  13.199   3.366   0.583
63032SOL    HW290936  13.075   3.336   0.664
63033SOL     OW90937   2.625   0.556   7.195
63033SOL    HW190938   2.686   0.607   7.248
63033SOL    HW290939   2.545   0.551   7.247
63034SOL     OW90940   7.331   3.967   1.352
63034SOL    HW190941   7.263   3.982   1.419
63034SOL    HW290942   7.399   4.030   1.373
63035SOL     OW90943   5.153  10.104   9.584
63035SOL    HW190944   5.211  10.065   9.650
63035SOL    HW290945   5.170  10.198   9.589
63036SOL     OW90946  12.902   5.537   9.787
63036SOL    HW190947  12.987   5.522   9.829
63036SOL    HW290948  12.913   5.505   9.698
63037SOL     OW90949   9.971   7.965   2.924
63037SOL    HW190950   9.888   7.990   2.964
63037SOL    HW290951   9.991   7.879   2.961
63038SOL     OW90952  13.675   5.192  14.242
63038SOL    HW190953  13.707   5.261  14.185
63038SOL    HW290954  13.690   5.111  14.193
63039SOL     OW90955   7.594   5.722   2.102
63039SOL    HW190956   7.498   5.716   2.104
63039SOL    HW290957   7.611   5.808   2.063
63040SOL     OW90958   6.274   4.817   8.044
63040SOL    HW190959   6.265   4.723   8.058
63040SOL    HW290960   6.256   4.829   7.950
63041SOL     OW90961   2.569   1.561   3.627
63041SOL    HW190962   2.522   1.631   3.581
63041SOL    HW290963   2.631   1.607   3.684
63042SOL     OW90964   8.370  11.390   7.802
63042SOL    HW190965   8.389  11.330   7.874
63042SOL    HW290966   8.286  11.430   7.826
63043SOL     OW90967   0.283   0.075   4.769
63043SOL    HW190968   0.368   0.119   4.767
63043SOL    HW290969   0.300  14.867   4.814
63044SOL     OW90970  13.111   2.464   6.511
63044SOL    HW190971  13.093   2.452   6.604
63044SOL    HW290972  13.148   2.380   6.483
63045SOL     OW90973   0.479   5.882  11.041
63045SOL    HW190974   0.544   5.938  11.083
63045SOL    HW290975   0.525   5.801  11.022
63046SOL     OW90976   1.337  11.789  14.512
63046SOL    HW190977   1.367  11.847  14.581
63046SOL    HW290978   1.248  11.764  14.539
63047SOL     OW90979   4.318   3.198   4.713
63047SOL    HW190980   4.339   3.129   4.776
63047SOL    HW290981   4.269   3.154   4.644
63048SOL     OW90982  11.268   5.438  12.818
63048SOL    HW190983  11.329   5.365  12.801
63048SOL    HW290984  11.325   5.514  12.832
63049SOL     OW90985   6.489   7.094  13.506
63049SOL    HW190986   6.550   7.112  13.433
63049SOL    HW290987   6.457   7.180  13.532
63050SOL     OW90988   6.864   6.978   0.780
63050SOL    HW190989   6.837   6.895   0.741
63050SOL    HW290990   6.804   6.990   0.854
63051SOL     OW90991   5.871   9.339  11.146
63051SOL    HW190992   5.841   9.249  11.158
63051SOL    HW290993   5.797   9.383  11.104
63052SOL     OW90994   0.070  11.860   3.147
63052SOL    HW190995   0.097  11.948   3.124
63052SOL    HW290996  14.848  11.861   3.137
63053SOL     OW90997   4.347  12.450  12.878
63053SOL    HW190998   4.436  12.463  12.846
63053SOL    HW290999   4.358  12.404  12.961
63054SOL     OW91000   6.934   1.511  14.298
63054SOL    HW191001   6.913   1.588  14.245
63054SOL    HW291002   7.018   1.533  14.339
63055SOL     OW91003  13.958   2.154   9.258
63055SOL    HW191004  14.017   2.179   9.329
63055SOL    HW291005  13.871   2.150   9.298
63056SOL     OW91006   3.878   3.684   1.250
63056SOL    HW191007   3.966   3.677   1.214
63056SOL    HW291008   3.865   3.779   1.263
63057SOL     OW91009  13.598   6.120  13.411
63057SOL    HW191010  13.671   6.138  13.351
63057SOL    HW291011  13.613   6.030  13.440
63058SOL     OW91012  13.343   7.278   3.390
63058SOL    HW191013  13.378   7.360   3.425
63058SOL    HW291014  13.394   7.210   3.433
63059SOL     OW91015   1.044  10.135   1.704
63059SOL    HW191016   0.989  10.212   1.691
63059SOL    HW291017   1.030  10.111   1.796
63060SOL     OW91018   1.894   4.863   3.841
63060SOL    HW191019   1.820   4.823   3.886
63060SOL    HW291020   1.912   4.943   3.890
63061SOL     OW91021   1.242  13.315  13.650
63061SOL    HW191022   1.149  13.335  13.644
63061SOL    HW291023   1.284  13.378  13.592
63062SOL     OW91024   1.863   7.451   2.878
63062SOL    HW191025   1.895   7.390   2.944
63062SOL    HW291026   1.779   7.482   2.913
63063SOL     OW91027  13.945  12.731  12.640
63063SOL    HW191028  13.878  12.798  12.647
63063SOL    HW291029  13.898  12.648  12.645
63064SOL     OW91030   3.784   9.316   2.586
63064SOL    HW191031   3.714   9.372   2.553
63064SOL    HW291032   3.860   9.373   2.590
63065SOL     OW91033  11.641  13.925  11.466
63065SOL    HW191034  11.697  13.913  11.389
63065SOL    HW291035  11.644  14.019  11.483
63066SOL     OW91036   8.764   2.250  13.755
63066SOL    HW191037   8.747   2.329  13.807
63066SOL    HW291038   8.728   2.271  13.669
63067SOL     OW91039   2.849   8.606  11.393
63067SOL    HW191040   2.756   8.597  11.415
63067SOL    HW291041   2.851   8.619  11.299
63068SOL     OW91042   5.872  12.617  13.937
63068SOL    HW191043   5.785  12.656  13.941
63068SOL    HW291044   5.921  12.662  14.006
63069SOL     OW91045  11.327   5.943   1.058
63069SOL    HW191046  11.343   6.022   1.110
63069SOL    HW291047  11.319   5.873   1.123
63070SOL     OW91048  13.230   3.119   3.117
63070SOL    HW191049  13.204   3.140   3.207
63070SOL    HW291050  13.323   3.097   3.124
63071SOL     OW91051   5.143   8.430   5.292
63071SOL    HW191052   5.063   8.481   5.303
63071SOL    HW291053   5.152   8.381   5.374
63072SOL     OW91054   0.590   6.290   0.498
63072SOL    HW191055   0.660   6.233   0.468
63072SOL    HW291056   0.543   6.314   0.418
63073SOL     OW91057   0.432   7.825  14.351
63073SOL    HW191058   0.490   7.895  14.380
63073SOL    HW291059   0.473   7.791  14.271
63074SOL     OW91060   2.040  10.399  14.410
63074SOL    HW191061   2.069  10.451  14.484
63074SOL    HW291062   2.110  10.409  14.345
63075SOL     OW91063   0.921   4.756   5.740
63075SOL    HW191064   0.871   4.814   5.682
63075SOL    HW291065   0.858   4.690   5.768
63076SOL     OW91066   4.807   2.431   7.785
63076SOL    HW191067   4.773   2.348   7.752
63076SOL    HW291068   4.902   2.421   7.783
63077SOL     OW91069   8.948   9.997   8.476
63077SOL    HW191070   9.022  10.006   8.415
63077SOL    HW291071   8.956  10.072   8.535
63078SOL     OW91072   7.802  10.640  14.574
63078SOL    HW191073   7.844  10.623  14.658
63078SOL    HW291074   7.737  10.569  14.565
63079SOL     OW91075  11.809   2.790   6.592
63079SOL    HW191076  11.770   2.750   6.514
63079SOL    HW291077  11.739   2.789   6.657
63080SOL     OW91078  10.303   9.208   7.003
63080SOL    HW191079  10.334   9.298   7.003
63080SOL    HW291080  10.211   9.215   7.029
63081SOL     OW91081  10.288   8.066   5.251
63081SOL    HW191082  10.247   8.003   5.191
63081SOL    HW291083  10.381   8.064   5.228
63082SOL     OW91084  11.228   7.794  10.028
63082SOL    HW191085  11.213   7.879  10.070
63082SOL    HW291086  11.297   7.810   9.965
63083SOL     OW91087   4.767   2.084   6.867
63083SOL    HW191088   4.721   2.083   6.951
63083SOL    HW291089   4.848   2.036   6.883
63084SOL     OW91090   2.711  14.265   7.366
63084SOL    HW191091   2.660  14.225   7.437
63084SOL    HW291092   2.796  14.221   7.370
63085SOL     OW91093  14.036   8.840   1.675
63085SOL    HW191094  13.999   8.801   1.596
63085SOL    HW291095  14.131   8.827   1.666
63086SOL     OW91096   3.037   3.764  10.725
63086SOL    HW191097   2.963   3.807  10.768
63086SOL    HW291098   3.046   3.809  10.641
63087SOL     OW91099  10.136   8.719   6.315
63087SOL    HW191100  10.115   8.702   6.407
63087SOL    HW291101  10.206   8.784   6.318
63088SOL     OW91102  10.842  12.691   0.736
63088SOL    HW191103  10.870  12.738   0.814
63088SOL    HW291104  10.919  12.693   0.678
63089SOL     OW91105  14.750   2.286   3.367
63089SOL    HW191106  14.720   2.227   3.299
63089SOL    HW291107  14.697   2.365   3.357
63090SOL     OW91108   0.391   8.821  12.051
63090SOL    HW191109   0.357   8.773  12.126
63090SOL    HW291110   0.317   8.824  11.989
63091SOL     OW91111   4.956   8.491   0.175
63091SOL    HW191112   4.907   8.544   0.238
63091SOL    HW291113   4.967   8.549   0.099
63092SOL     OW91114   2.687   4.153   8.809
63092SOL    HW191115   2.743   4.123   8.737
63092SOL    HW291116   2.675   4.076   8.864
63093SOL     OW91117  14.718   1.242   0.170
63093SOL    HW191118  14.668   1.282   0.098
63093SOL    HW291119  14.651   1.210   0.230
63094SOL     OW91120   1.099   6.098   3.511
63094SOL    HW191121   1.165   6.122   3.446
63094SOL    HW291122   1.120   6.008   3.536
63095SOL     OW91123   3.004  14.856   7.119
63095SOL    HW191124   3.049  14.806   7.187
63095SOL    HW291125   3.041  14.823   7.037
63096SOL     OW91126  14.516   2.177   2.504
63096SOL    HW191127  14.506   2.091   2.464
63096SOL    HW291128  14.591   2.215   2.458
63097SOL     OW91129   8.568  12.281  11.958
63097SOL    HW191130   8.564  12.193  11.996
63097SOL    HW291131   8.582  12.339  12.032
63098SOL     OW91132   4.979  10.486  12.692
63098SOL    HW191133   5.069  10.488  12.724
63098SOL    HW291134   4.986  10.517  12.601
63099SOL     OW91135  12.229   2.732   6.531
63099SOL    HW191136  12.183   2.785   6.596
63099SOL    HW291137  12.160   2.690   6.480
63100SOL     OW91138  12.326   5.236   0.348
63100SOL    HW191139  12.274   5.285   0.412
63100SOL    HW291140  12.350   5.155   0.394
63101SOL     OW91141   7.642   0.342   1.025
63101SOL    HW191142   7.726   0.388   1.020
63101SOL    HW291143   7.595   0.386   1.096
63102SOL     OW91144  14.835  12.351   6.192
63102SOL    HW191145  14.768  12.394   6.139
63102SOL    HW291146  14.789  12.322   6.271
63103SOL     OW91147   0.508  11.668  12.425
63103SOL    HW191148   0.555  11.653  12.343
63103SOL    HW291149   0.576  11.695  12.487
63104SOL     OW91150   5.755   5.701   0.256
63104SOL    HW191151   5.681   5.730   0.203
63104SOL    HW291152   5.783   5.779   0.303
63105SOL     OW91153  12.598   5.497   3.814
63105SOL    HW191154  12.687   5.491   3.779
63105SOL    HW291155  12.553   5.419   3.780
63106SOL     OW91156  10.441  14.197   7.990
63106SOL    HW191157  10.372  14.256   8.018
63106SOL    HW291158  10.430  14.191   7.895
63107SOL     OW91159   8.626   1.695  10.216
63107SOL    HW191160   8.616   1.699  10.121
63107SOL    HW291161   8.659   1.781  10.241
63108SOL     OW91162   5.714   1.980  12.786
63108SOL    HW191163   5.669   2.011  12.708
63108SOL    HW291164   5.644   1.948  12.843
63109SOL     OW91165   9.221   8.397   6.180
63109SOL    HW191166   9.142   8.389   6.234
63109SOL    HW291167   9.280   8.329   6.213
63110SOL     OW91168   6.342   5.704   6.153
63110SOL    HW191169   6.363   5.617   6.188
63110SOL    HW291170   6.247   5.704   6.144
63111SOL     OW91171   5.783  10.788   6.797
63111SOL    HW191172   5.768  10.701   6.833
63111SOL    HW291173   5.696  10.819   6.772
63112SOL     OW91174   8.433  11.429  12.085
63112SOL    HW191175   8.419  11.394  11.997
63112SOL    HW291176   8.525  11.413  12.103
63113SOL     OW91177   7.727   0.422   4.140
63113SOL    HW191178   7.734   0.327   4.145
63113SOL    HW291179   7.815   0.452   4.120
63114SOL     OW91180  11.142   3.407   1.653
63114SOL    HW191181  11.170   3.450   1.734
63114SOL    HW291182  11.214   3.348   1.631
63115SOL     OW91183   4.273   8.468  12.019
63115SOL    HW191184   4.213   8.506  12.083
63115SOL    HW291185   4.339   8.424  12.071
63116SOL     OW91186   4.050  11.509   7.179
63116SOL    HW191187   4.066  11.506   7.084
63116SOL    HW291188   4.081  11.424   7.210
63117SOL     OW91189   5.901   0.510  10.088
63117SOL    HW191190   5.817   0.490  10.046
63117SOL    HW291191   5.941   0.425  10.103
63118SOL     OW91192   9.905  12.271   0.774
63118SOL    HW191193  10.000  12.280   0.771
63118SOL    HW291194   9.883  12.226   0.692
63119SOL     OW91195   9.405  10.709   3.026
63119SOL    HW191196   9.410  10.636   3.089
63119SOL    HW291197   9.451  10.677   2.949
63120SOL     OW91198   3.487  11.429   1.062
63120SOL    HW191199   3.418  11.408   1.126
63120SOL    HW291200   3.440  11.455   0.983
63121SOL     OW91201  13.506  12.820   0.792
63121SOL    HW191202  13.434  12.869   0.830
63121SOL    HW291203  13.585  12.861   0.827
63122SOL     OW91204   6.419   3.869  11.626
63122SOL    HW191205   6.433   3.916  11.543
63122SOL    HW291206   6.453   3.929  11.693
63123SOL     OW91207   5.210   4.469   3.400
63123SOL    HW191208   5.158   4.452   3.322
63123SOL    HW291209   5.294   4.426   3.383
63124SOL     OW91210   4.702   6.600   8.732
63124SOL    HW191211   4.796   6.616   8.741
63124SOL    HW291212   4.662   6.687   8.732
63125SOL     OW91213  14.020  14.621   9.291
63125SOL    HW191214  13.962  14.612   9.215
63125SOL    HW291215  14.081  14.547   9.284
63126SOL     OW91216  13.805   6.972   7.149
63126SOL    HW191217  13.859   6.993   7.225
63126SOL    HW291218  13.747   6.902   7.180
63127SOL     OW91219   9.277   9.552  12.540
63127SOL    HW191220   9.336   9.509  12.478
63127SOL    HW291221   9.250   9.482  12.599
63128SOL     OW91222   0.807   3.494   9.644
63128SOL    HW191223   0.874   3.444   9.597
63128SOL    HW291224   0.857   3.551   9.703
63129SOL     OW91225   1.560   8.278  12.106
63129SOL    HW191226   1.566   8.200  12.051
63129SOL    HW291227   1.647   8.317  12.102
63130SOL     OW91228   0.498   3.853   2.859
63130SOL    HW191229   0.492   3.773   2.912
63130SOL    HW291230   0.437   3.914   2.900
63131SOL     OW91231  10.885   7.607   7.948
63131SOL    HW191232  10.818   7.561   7.898
63131SOL    HW291233  10.839   7.638   8.027
63132SOL     OW91234   7.329  14.349   4.870
63132SOL    HW191235   7.302  14.315   4.955
63132SOL    HW291236   7.280  14.296   4.807
63133SOL     OW91237   1.170   3.609   7.909
63133SOL    HW191238   1.248   3.606   7.965
63133SOL    HW291239   1.137   3.698   7.919
63134SOL     OW91240   3.815   8.720   2.433
63134SOL    HW191241   3.785   8.657   2.368
63134SOL    HW291242   3.897   8.754   2.399
63135SOL     OW91243   7.022   1.218  13.302
63135SOL    HW191244   7.039   1.177  13.217
63135SOL    HW291245   6.936   1.184  13.328
63136SOL     OW91246   0.578  14.045   7.758
63136SOL    HW191247   0.660  14.038   7.709
63136SOL    HW291248   0.574  14.136   7.786
63137SOL     OW91249  14.306   6.096  12.690
63137SOL    HW191250  14.395   6.120  12.715
63137SOL    HW291251  14.267   6.178  12.658
63138SOL     OW91252  12.921  14.554   4.302
63138SOL    HW191253  12.895  14.493   4.233
63138SOL    HW291254  12.977  14.618   4.258
63139SOL     OW91255   1.280  10.600   7.486
63139SOL    HW191256   1.223  10.584   7.410
63139SOL    HW291257   1.263  10.691   7.510
63140SOL     OW91258   0.784   7.169  11.285
63140SOL    HW191259   0.833   7.088  11.267
63140SOL    HW291260   0.695   7.149  11.258
63141SOL     OW91261  10.200   0.715  13.434
63141SOL    HW191262  10.234   0.796  13.397
63141SOL    HW291263  10.238   0.646  13.379
63142SOL     OW91264   6.621   1.878  11.973
63142SOL    HW191265   6.586   1.941  12.036
63142SOL    HW291266   6.691   1.926  11.928
63143SOL     OW91267  12.543   1.886   7.911
63143SOL    HW191268  12.493   1.968   7.914
63143SOL    HW291269  12.557   1.870   7.817
63144SOL     OW91270   4.153   2.507   3.205
63144SOL    HW191271   4.114   2.589   3.236
63144SOL    HW291272   4.088   2.470   3.146
63145SOL     OW91273  11.561  14.621   8.106
63145SOL    HW191274  11.542  14.566   8.030
63145SOL    HW291275  11.475  14.636   8.146
63146SOL     OW91276  13.573   7.883  12.902
63146SOL    HW191277  13.497   7.895  12.958
63146SOL    HW291278  13.552   7.805  12.850
63147SOL     OW91279  10.308  12.307   4.574
63147SOL    HW191280  10.356  12.224   4.584
63147SOL    HW291281  10.230  12.295   4.628
63148SOL     OW91282  14.561   8.329   4.742
63148SOL    HW191283  14.605   8.413   4.756
63148SOL    HW291284  14.501   8.346   4.669
63149SOL     OW91285   3.492   4.977   9.463
63149SOL    HW191286   3.430   5.038   9.424
63149SOL    HW291287   3.498   4.906   9.399
63150SOL     OW91288   7.710   9.803  13.577
63150SOL    HW191289   7.765   9.758  13.641
63150SOL    HW291290   7.769   9.828  13.506
63151SOL     OW91291   8.018   5.778   4.698
63151SOL    HW191292   8.070   5.856   4.716
63151SOL    HW291293   8.070   5.727   4.636
63152SOL     OW91294   1.880  12.964   7.563
63152SOL    HW191295   1.821  12.898   7.526
63152SOL    HW291296   1.830  13.006   7.633
63153SOL     OW91297   4.681   1.421   4.216
63153SOL    HW191298   4.613   1.440   4.152
63153SOL    HW291299   4.669   1.328   4.236
63154SOL     OW91300  12.553  14.306   4.686
63154SOL    HW191301  12.583  14.391   4.716
63154SOL    HW291302  12.594  14.293   4.601
63155SOL     OW91303  11.982  13.426  14.239
63155SOL    HW191304  12.065  13.400  14.278
63155SOL    HW291305  11.932  13.464  14.311
63156SOL     OW91306   9.321  14.862  12.508
63156SOL    HW191307   9.303   0.014  12.599
63156SOL    HW291308   9.410   0.017  12.492
63157SOL     OW91309   2.473  11.157   5.540
63157SOL    HW191310   2.567  11.140   5.534
63157SOL    HW291311   2.441  11.089   5.600
63158SOL     OW91312  14.792   3.331   9.142
63158SOL    HW191313  14.778   3.357   9.051
63158SOL    HW291314  14.780   3.236   9.142
63159SOL     OW91315   4.015  14.461  13.827
63159SOL    HW191316   4.040  14.388  13.771
63159SOL    HW291317   4.001  14.534  13.767
63160SOL     OW91318  12.451   2.566   6.627
63160SOL    HW191319  12.370   2.615   6.615
63160SOL    HW291320  12.515   2.611   6.572
63161SOL     OW91321  12.133   7.238   7.785
63161SOL    HW191322  12.048   7.212   7.819
63161SOL    HW291323  12.193   7.226   7.859
63162SOL     OW91324   2.289   1.418   6.235
63162SOL    HW191325   2.316   1.344   6.181
63162SOL    HW291326   2.221   1.462   6.185
63163SOL     OW91327   0.894   5.741  11.342
63163SOL    HW191328   0.986   5.720  11.361
63163SOL    HW291329   0.881   5.708  11.253
63164SOL     OW91330   7.051   7.034   3.509
63164SOL    HW191331   7.144   7.055   3.509
63164SOL    HW291332   7.009   7.111   3.470
63165SOL     OW91333  10.415   5.534   2.070
63165SOL    HW191334  10.341   5.503   2.017
63165SOL    HW291335  10.427   5.625   2.045
63166SOL     OW91336  14.402   3.576   9.925
63166SOL    HW191337  14.479   3.521   9.908
63166SOL    HW291338  14.428   3.631   9.999
63167SOL     OW91339  14.605   3.379  12.657
63167SOL    HW191340  14.619   3.457  12.602
63167SOL    HW291341  14.613   3.411  12.747
63168SOL     OW91342   5.828   7.593   7.925
63168SOL    HW191343   5.852   7.501   7.925
63168SOL    HW291344   5.884   7.633   7.858
63169SOL     OW91345  14.720  12.977  10.027
63169SOL    HW191346  14.660  13.043  10.063
63169SOL    HW291347  14.735  12.916  10.100
63170SOL     OW91348   8.271   7.287   4.103
63170SOL    HW191349   8.274   7.242   4.018
63170SOL    HW291350   8.218   7.365   4.087
63171SOL     OW91351  12.170   2.921  10.867
63171SOL    HW191352  12.219   2.865  10.927
63171SOL    HW291353  12.219   3.003  10.865
63172SOL     OW91354   0.129  10.346  12.677
63172SOL    HW191355   0.121  10.257  12.643
63172SOL    HW291356   0.106  10.338  12.770
63173SOL     OW91357  14.093   8.719  13.868
63173SOL    HW191358  14.113   8.663  13.793
63173SOL    HW291359  14.119   8.807  13.840
63174SOL     OW91360   2.124  10.288   1.268
63174SOL    HW191361   2.069  10.354   1.311
63174SOL    HW291362   2.099  10.293   1.176
63175SOL     OW91363   3.087   2.110   9.235
63175SOL    HW191364   3.082   2.202   9.261
63175SOL    HW291365   3.093   2.061   9.317
63176SOL     OW91366   3.497   4.181  12.434
63176SOL    HW191367   3.436   4.107  12.434
63176SOL    HW291368   3.584   4.140  12.426
63177SOL     OW91369  14.489   6.489   1.953
63177SOL    HW191370  14.494   6.424   2.023
63177SOL    HW291371  14.440   6.446   1.883
63178SOL     OW91372   9.952   2.892   9.486
63178SOL    HW191373   9.985   2.868   9.573
63178SOL    HW291374   9.858   2.902   9.498
63179SOL     OW91375   6.624  13.368  12.283
63179SOL    HW191376   6.682  13.293  12.292
63179SOL    HW291377   6.676  13.434  12.237
63180SOL     OW91378  10.804  14.570  13.870
63180SOL    HW191379  10.861  14.560  13.793
63180SOL    HW291380  10.747  14.493  13.867
63181SOL     OW91381   9.170  12.888   6.510
63181SOL    HW191382   9.121  12.918   6.587
63181SOL    HW291383   9.258  12.871   6.544
63182SOL     OW91384   9.562   2.072  13.491
63182SOL    HW191385   9.595   1.987  13.463
63182SOL    HW291386   9.616   2.136  13.444
63183SOL     OW91387  11.290   1.486  14.869
63183SOL    HW191388  11.304   1.392   0.003
63183SOL    HW291389  11.273   1.515   0.085
63184SOL     OW91390  14.779  11.683  10.225
63184SOL    HW191391  14.794  11.677  10.131
63184SOL    HW291392  14.706  11.623  10.242
63185SOL     OW91393   4.622  14.108   9.474
63185SOL    HW191394   4.685  14.050   9.430
63185SOL    HW291395   4.634  14.089   9.567
63186SOL     OW91396  10.756   9.214   8.313
63186SOL    HW191397  10.709   9.160   8.376
63186SOL    HW291398  10.845   9.219   8.347
63187SOL     OW91399   0.016   4.665   3.166
63187SOL    HW191400   0.099   4.657   3.213
63187SOL    HW291401  14.853   4.577   3.167
63188SOL     OW91402   1.052   3.122   6.499
63188SOL    HW191403   1.008   3.198   6.461
63188SOL    HW291404   1.061   3.142   6.592
63189SOL     OW91405   6.714   3.291   6.511
63189SOL    HW191406   6.620   3.293   6.527
63189SOL    HW291407   6.721   3.279   6.416
63190SOL     OW91408  14.628  14.330  12.356
63190SOL    HW191409  14.682  14.341  12.277
63190SOL    HW291410  14.649  14.241  12.386
63191SOL     OW91411  13.699   3.264  11.015
63191SOL    HW191412  13.761   3.242  10.945
63191SOL    HW291413  13.669   3.179  11.048
63192SOL     OW91414  13.294  13.685   2.148
63192SOL    HW191415  13.367  13.703   2.208
63192SOL    HW291416  13.217  13.718   2.194
63193SOL     OW91417   0.030   4.686   5.279
63193SOL    HW191418   0.109   4.683   5.333
63193SOL    HW291419   0.035   4.769   5.232
63194SOL     OW91420   7.496   2.777  10.861
63194SOL    HW191421   7.431   2.847  10.856
63194SOL    HW291422   7.450   2.699  10.829
63195SOL     OW91423   7.539   2.487   6.591
63195SOL    HW191424   7.631   2.505   6.609
63195SOL    HW291425   7.493   2.568   6.613
63196SOL     OW91426   4.146  12.094   7.059
63196SOL    HW191427   4.201  12.028   7.102
63196SOL    HW291428   4.157  12.077   6.966
63197SOL     OW91429   7.610  10.803   3.081
63197SOL    HW191430   7.605  10.894   3.108
63197SOL    HW291431   7.700  10.793   3.048
63198SOL     OW91432   7.377   4.458   3.123
63198SOL    HW191433   7.465   4.431   3.147
63198SOL    HW291434   7.365   4.427   3.033
63199SOL     OW91435   7.847   9.679  12.640
63199SOL    HW191436   7.875   9.588  12.653
63199SOL    HW291437   7.821   9.682  12.548
63200SOL     OW91438   5.087  14.209   4.464
63200SOL    HW191439   5.156  14.273   4.483
63200SOL    HW291440   5.006  14.261   4.463
63201SOL     OW91441  10.969   0.219   7.160
63201SOL    HW191442  10.935   0.149   7.216
63201SOL    HW291443  11.061   0.229   7.186
63202SOL     OW91444   5.968   3.874   8.629
63202SOL    HW191445   5.914   3.805   8.668
63202SOL    HW291446   5.935   3.955   8.667
63203SOL     OW91447   4.757   1.222   5.618
63203SOL    HW191448   4.790   1.162   5.684
63203SOL    HW291449   4.702   1.283   5.667
63204SOL     OW91450  12.269  10.337  14.510
63204SOL    HW191451  12.246  10.398  14.580
63204SOL    HW291452  12.355  10.303  14.535
63205SOL     OW91453   4.009  12.599  13.160
63205SOL    HW191454   3.958  12.519  13.173
63205SOL    HW291455   4.046  12.589  13.072
63206SOL     OW91456   8.214   1.274   5.125
63206SOL    HW191457   8.163   1.254   5.203
63206SOL    HW291458   8.282   1.206   5.122
63207SOL     OW91459   5.596   8.357   8.264
63207SOL    HW191460   5.684   8.378   8.297
63207SOL    HW291461   5.544   8.342   8.343
63208SOL     OW91462   6.806   0.776  13.060
63208SOL    HW191463   6.798   0.804  13.151
63208SOL    HW291464   6.720   0.739  13.040
63209SOL     OW91465   6.023  13.190  13.027
63209SOL    HW191466   5.949  13.248  13.046
63209SOL    HW291467   6.092  13.249  12.998
63210SOL     OW91468  14.542   2.066   7.664
63210SOL    HW191469  14.566   1.979   7.632
63210SOL    HW291470  14.461   2.051   7.713
63211SOL     OW91471   5.564   2.914   8.135
63211SOL    HW191472   5.617   2.834   8.126
63211SOL    HW291473   5.495   2.890   8.197
63212SOL     OW91474   8.833   5.526   8.886
63212SOL    HW191475   8.914   5.508   8.934
63212SOL    HW291476   8.818   5.620   8.898
63213SOL     OW91477   0.831  14.853   0.616
63213SOL    HW191478   0.861  14.805   0.693
63213SOL    HW291479   0.844   0.071   0.638
63214SOL     OW91480   4.864  11.781   5.007
63214SOL    HW191481   4.905  11.816   4.929
63214SOL    HW291482   4.816  11.855   5.045
63215SOL     OW91483   5.799   8.812   2.573
63215SOL    HW191484   5.764   8.818   2.662
63215SOL    HW291485   5.771   8.894   2.531
63216SOL     OW91486  11.947  12.876  13.677
63216SOL    HW191487  11.956  12.875  13.773
63216SOL    HW291488  11.954  12.784  13.651
63217SOL     OW91489  11.757   6.801   2.305
63217SOL    HW191490  11.796   6.889   2.309
63217SOL    HW291491  11.673   6.814   2.262
63218SOL     OW91492   4.179   7.457   8.356
63218SOL    HW191493   4.136   7.372   8.363
63218SOL    HW291494   4.135   7.512   8.421
63219SOL     OW91495   0.774  14.761  12.589
63219SOL    HW191496   0.699  14.719  12.547
63219SOL    HW291497   0.739  14.796  12.671
63220SOL     OW91498   3.790   2.210  11.708
63220SOL    HW191499   3.815   2.284  11.764
63220SOL    HW291500   3.854   2.212  11.637
63221SOL     OW91501   0.096  14.136  13.937
63221SOL    HW191502   0.170  14.083  13.965
63221SOL    HW291503   0.114  14.223  13.972
63222SOL     OW91504   6.997  14.513   6.281
63222SOL    HW191505   7.027  14.599   6.254
63222SOL    HW291506   7.065  14.480   6.340
63223SOL     OW91507   4.695  11.995   8.492
63223SOL    HW191508   4.652  11.909   8.489
63223SOL    HW291509   4.684  12.025   8.582
63224SOL     OW91510   7.175   6.895  14.585
63224SOL    HW191511   7.190   6.941  14.668
63224SOL    HW291512   7.089   6.926  14.557
63225SOL     OW91513   7.011   7.474   7.672
63225SOL    HW191514   6.924   7.463   7.711
63225SOL    HW291515   7.064   7.511   7.742
63226SOL     OW91516   5.459  13.181   1.123
63226SOL    HW191517   5.463  13.086   1.136
63226SOL    HW291518   5.435  13.192   1.031
63227SOL     OW91519   9.743   6.889   7.906
63227SOL    HW191520   9.825   6.931   7.930
63227SOL    HW291521   9.676   6.957   7.919
63228SOL     OW91522  13.034   2.546   9.642
63228SOL    HW191523  13.013   2.570   9.552
63228SOL    HW291524  13.129   2.554   9.647
63229SOL     OW91525   4.572   3.865   1.206
63229SOL    HW191526   4.575   3.770   1.219
63229SOL    HW291527   4.484   3.881   1.172
63230SOL     OW91528   3.129   1.299   2.481
63230SOL    HW191529   3.201   1.348   2.439
63230SOL    HW291530   3.093   1.361   2.545
63231SOL     OW91531  13.591   2.586  11.249
63231SOL    HW191532  13.622   2.585  11.340
63231SOL    HW291533  13.497   2.595  11.256
63232SOL     OW91534  11.156   4.827   0.408
63232SOL    HW191535  11.069   4.834   0.448
63232SOL    HW291536  11.194   4.749   0.449
63233SOL     OW91537   6.965   3.514   6.668
63233SOL    HW191538   7.047   3.557   6.643
63233SOL    HW291539   6.897   3.576   6.643
63234SOL     OW91540   9.601   5.482  12.116
63234SOL    HW191541   9.556   5.567  12.112
63234SOL    HW291542   9.596   5.448  12.026
63235SOL     OW91543  11.216  11.637   5.030
63235SOL    HW191544  11.168  11.647   4.947
63235SOL    HW291545  11.296  11.591   5.006
63236SOL     OW91546   2.289   9.501  10.518
63236SOL    HW191547   2.203   9.459  10.529
63236SOL    HW291548   2.275   9.592  10.545
63237SOL     OW91549   8.130   9.625   8.390
63237SOL    HW191550   8.096   9.714   8.399
63237SOL    HW291551   8.060   9.569   8.425
63238SOL     OW91552   4.736  13.890   9.360
63238SOL    HW191553   4.786  13.891   9.278
63238SOL    HW291554   4.763  13.809   9.403
63239SOL     OW91555   7.942   1.355   0.940
63239SOL    HW191556   7.979   1.296   1.004
63239SOL    HW291557   7.943   1.441   0.983
63240SOL     OW91558   5.181   8.882   3.444
63240SOL    HW191559   5.114   8.892   3.511
63240SOL    HW291560   5.264   8.880   3.493
63241SOL     OW91561   3.927  11.072   0.114
63241SOL    HW191562   3.849  11.115   0.149
63241SOL    HW291563   3.979  11.049   0.191
63242SOL     OW91564   1.335  11.905  12.871
63242SOL    HW191565   1.417  11.867  12.839
63242SOL    HW291566   1.363  11.968  12.937
63243SOL     OW91567   3.850   6.444   0.399
63243SOL    HW191568   3.881   6.529   0.433
63243SOL    HW291569   3.926   6.387   0.408
63244SOL     OW91570  11.021   1.980   2.531
63244SOL    HW191571  11.054   1.892   2.513
63244SOL    HW291572  10.945   1.989   2.474
63245SOL     OW91573  10.470   8.587  12.790
63245SOL    HW191574  10.418   8.666  12.802
63245SOL    HW291575  10.407   8.515  12.797
63246SOL     OW91576   8.451   4.322  13.775
63246SOL    HW191577   8.510   4.264  13.728
63246SOL    HW291578   8.465   4.301  13.868
63247SOL     OW91579  10.174   8.705   5.285
63247SOL    HW191580  10.228   8.763   5.232
63247SOL    HW291581  10.112   8.666   5.223
63248SOL     OW91582   6.420   6.698  10.644
63248SOL    HW191583   6.455   6.742  10.567
63248SOL    HW291584   6.326   6.689  10.626
63249SOL     OW91585  13.400   2.049  14.235
63249SOL    HW191586  13.408   1.978  14.299
63249SOL    HW291587  13.484   2.051  14.190
63250SOL     OW91588  14.750  12.115  12.470
63250SOL    HW191589  14.691  12.155  12.533
63250SOL    HW291590  14.819  12.179  12.457
63251SOL     OW91591   5.028   5.335   0.396
63251SOL    HW191592   4.936   5.326   0.420
63251SOL    HW291593   5.058   5.245   0.385
63252SOL     OW91594   0.665   1.450   7.606
63252SOL    HW191595   0.633   1.371   7.650
63252SOL    HW291596   0.758   1.433   7.591
63253SOL     OW91597  10.025  14.331  10.469
63253SOL    HW191598   9.999  14.242  10.444
63253SOL    HW291599  10.005  14.338  10.562
63254SOL     OW91600  13.980   1.803  10.757
63254SOL    HW191601  14.043   1.825  10.825
63254SOL    HW291602  13.896   1.836  10.790
63255SOL     OW91603   5.710   4.149   5.610
63255SOL    HW191604   5.658   4.196   5.545
63255SOL    HW291605   5.784   4.207   5.628
63256SOL     OW91606  13.696   2.095  13.522
63256SOL    HW191607  13.721   2.090  13.430
63256SOL    HW291608  13.680   2.005  13.548
63257SOL     OW91609  12.886  13.518   6.238
63257SOL    HW191610  12.814  13.574   6.209
63257SOL    HW291611  12.930  13.569   6.306
63258SOL     OW91612   9.460   3.025   7.135
63258SOL    HW191613   9.451   2.930   7.141
63258SOL    HW291614   9.546   3.044   7.173
63259SOL     OW91615   2.429   8.944   0.400
63259SOL    HW191616   2.412   9.020   0.343
63259SOL    HW291617   2.476   8.981   0.475
63260SOL     OW91618   6.012  12.749   6.109
63260SOL    HW191619   5.983  12.709   6.190
63260SOL    HW291620   6.055  12.678   6.061
63261SOL     OW91621  13.481  11.321  13.982
63261SOL    HW191622  13.405  11.374  13.960
63261SOL    HW291623  13.556  11.378  13.964
63262SOL     OW91624   7.173   6.146  10.510
63262SOL    HW191625   7.175   6.056  10.544
63262SOL    HW291626   7.258   6.156  10.465
63263SOL     OW91627   7.846   2.197  11.992
63263SOL    HW191628   7.903   2.250  12.048
63263SOL    HW291629   7.818   2.124  12.049
63264SOL     OW91630  11.453   5.399   2.159
63264SOL    HW191631  11.541   5.422   2.130
63264SOL    HW291632  11.427   5.326   2.102
63265SOL     OW91633   9.178   4.317   9.832
63265SOL    HW191634   9.097   4.325   9.782
63265SOL    HW291635   9.238   4.271   9.774
63266SOL     OW91636   7.367   4.379  10.115
63266SOL    HW191637   7.423   4.422  10.050
63266SOL    HW291638   7.323   4.310  10.065
63267SOL     OW91639   0.325   1.430   3.871
63267SOL    HW191640   0.279   1.364   3.819
63267SOL    HW291641   0.354   1.383   3.949
63268SOL     OW91642   7.600   3.552   1.775
63268SOL    HW191643   7.672   3.615   1.775
63268SOL    HW291644   7.530   3.597   1.824
63269SOL     OW91645   2.889   1.355   2.347
63269SOL    HW191646   2.979   1.328   2.365
63269SOL    HW291647   2.854   1.379   2.433
63270SOL     OW91648  13.036   0.693   9.329
63270SOL    HW191649  13.026   0.606   9.291
63270SOL    HW291650  12.967   0.745   9.288
63271SOL     OW91651   4.476  10.679   6.679
63271SOL    HW191652   4.413  10.680   6.606
63271SOL    HW291653   4.534  10.752   6.660
63272SOL     OW91654   3.060  11.050   2.949
63272SOL    HW191655   2.994  11.018   2.888
63272SOL    HW291656   3.112  10.973   2.970
63273SOL     OW91657  12.629  12.153  13.665
63273SOL    HW191658  12.652  12.074  13.714
63273SOL    HW291659  12.701  12.214  13.683
63274SOL     OW91660   7.328   0.316  12.373
63274SOL    HW191661   7.355   0.226  12.355
63274SOL    HW291662   7.265   0.308  12.444
63275SOL     OW91663   7.459  11.528  11.712
63275SOL    HW191664   7.531  11.550  11.771
63275SOL    HW291665   7.501  11.515  11.627
63276SOL     OW91666   6.509  13.905   5.079
63276SOL    HW191667   6.468  13.876   4.998
63276SOL    HW291668   6.603  13.897   5.061
63277SOL     OW91669  11.487  13.275   2.885
63277SOL    HW191670  11.568  13.272   2.935
63277SOL    HW291671  11.450  13.187   2.893
63278SOL     OW91672   6.346   7.443  10.619
63278SOL    HW191673   6.346   7.538  10.624
63278SOL    HW291674   6.436   7.417  10.640
63279SOL     OW91675   4.114  12.039   0.681
63279SOL    HW191676   4.118  12.005   0.770
63279SOL    HW291677   4.170  12.117   0.682
63280SOL     OW91678   9.440   3.438  11.392
63280SOL    HW191679   9.384   3.455  11.468
63280SOL    HW291680   9.504   3.509  11.393
63281SOL     OW91681  10.252   5.593  11.490
63281SOL    HW191682  10.180   5.566  11.433
63281SOL    HW291683  10.214   5.596  11.578
63282SOL     OW91684   6.851   7.722   3.137
63282SOL    HW191685   6.908   7.779   3.085
63282SOL    HW291686   6.791   7.781   3.181
63283SOL     OW91687  10.790  13.212  14.603
63283SOL    HW191688  10.719  13.216  14.538
63283SOL    HW291689  10.749  13.238  14.685
63284SOL     OW91690   0.612   7.996   6.297
63284SOL    HW191691   0.640   7.984   6.388
63284SOL    HW291692   0.670   8.063   6.262
63285SOL     OW91693  12.845  14.343   9.245
63285SOL    HW191694  12.802  14.344   9.159
63285SOL    HW291695  12.782  14.301   9.303
63286SOL     OW91696   6.548  11.267  14.255
63286SOL    HW191697   6.541  11.276  14.160
63286SOL    HW291698   6.471  11.314  14.288
63287SOL     OW91699  10.821  14.451  12.868
63287SOL    HW191700  10.836  14.371  12.919
63287SOL    HW291701  10.906  14.470  12.828
63288SOL     OW91702  13.193  13.684   6.225
63288SOL    HW191703  13.257  13.616   6.244
63288SOL    HW291704  13.197  13.743   6.301
63289SOL     OW91705  13.944   8.490  14.660
63289SOL    HW191706  13.896   8.497  14.577
63289SOL    HW291707  13.971   8.580  14.679
63290SOL     OW91708  12.011   8.701  14.314
63290SOL    HW191709  11.931   8.696  14.262
63290SOL    HW291710  12.013   8.619  14.363
63291SOL     OW91711  10.465  14.667   4.810
63291SOL    HW191712  10.467  14.761   4.830
63291SOL    HW291713  10.533  14.629   4.866
63292SOL     OW91714  13.192  10.003   0.014
63292SOL    HW191715  13.194  10.098   0.022
63292SOL    HW291716  13.170   9.987  14.796
63293SOL     OW91717  14.552   2.349  14.314
63293SOL    HW191718  14.497   2.274  14.337
63293SOL    HW291719  14.497   2.426  14.331
63294SOL     OW91720   2.902   4.389   9.914
63294SOL    HW191721   2.911   4.439   9.833
63294SOL    HW291722   2.883   4.300   9.886
63295SOL     OW91723   1.742  14.834  10.210
63295SOL    HW191724   1.831  14.856  10.185
63295SOL    HW291725   1.701   0.045  10.231
63296SOL     OW91726   0.399  12.005   8.621
63296SOL    HW191727   0.389  11.911   8.612
63296SOL    HW291728   0.421  12.018   8.713
63297SOL     OW91729  12.089   6.936  12.938
63297SOL    HW191730  12.088   6.895  13.025
63297SOL    HW291731  12.003   6.918  12.901
63298SOL     OW91732  12.961   6.789   4.868
63298SOL    HW191733  12.865   6.786   4.863
63298SOL    HW291734  12.980   6.811   4.959
63299SOL     OW91735  14.280   1.276   1.190
63299SOL    HW191736  14.374   1.260   1.188
63299SOL    HW291737  14.265   1.348   1.129
63300SOL     OW91738   9.014   7.336  10.778
63300SOL    HW191739   9.036   7.423  10.810
63300SOL    HW291740   8.934   7.312  10.827
63301SOL     OW91741   1.798  13.372   9.636
63301SOL    HW191742   1.735  13.308   9.669
63301SOL    HW291743   1.773  13.454   9.678
63302SOL     OW91744   5.598   2.637   8.895
63302SOL    HW191745   5.663   2.584   8.850
63302SOL    HW291746   5.649   2.695   8.951
63303SOL     OW91747   0.477   4.964   0.004
63303SOL    HW191748   0.490   4.951  14.784
63303SOL    HW291749   0.495   4.877   0.042
63304SOL     OW91750   5.159  14.429   3.195
63304SOL    HW191751   5.144  14.445   3.288
63304SOL    HW291752   5.187  14.337   3.191
63305SOL     OW91753   5.056  12.963   2.669
63305SOL    HW191754   5.150  12.947   2.661
63305SOL    HW291755   5.047  13.017   2.748
63306SOL     OW91756  11.253  14.139   3.976
63306SOL    HW191757  11.223  14.067   3.920
63306SOL    HW291758  11.280  14.097   4.058
63307SOL     OW91759   3.841  13.383  10.312
63307SOL    HW191760   3.905  13.439  10.269
63307SOL    HW291761   3.891  13.336  10.379
63308SOL     OW91762   7.973   9.364  14.084
63308SOL    HW191763   8.004   9.454  14.073
63308SOL    HW291764   8.038   9.311  14.038
63309SOL     OW91765   6.039   6.462  10.127
63309SOL    HW191766   6.104   6.527  10.152
63309SOL    HW291767   6.072   6.380  10.165
63310SOL     OW91768   5.108   5.223   6.884
63310SOL    HW191769   5.061   5.306   6.899
63310SOL    HW291770   5.044   5.156   6.906
63311SOL     OW91771   3.736   3.758   7.295
63311SOL    HW191772   3.666   3.721   7.348
63311SOL    HW291773   3.712   3.736   7.205
63312SOL     OW91774   9.972  12.502   5.463
63312SOL    HW191775   9.951  12.415   5.429
63312SOL    HW291776   9.956  12.495   5.557
63313SOL     OW91777   2.910  10.414   1.621
63313SOL    HW191778   2.868  10.498   1.638
63313SOL    HW291779   2.989  10.416   1.675
63314SOL     OW91780   7.051  12.285  12.721
63314SOL    HW191781   7.073  12.367  12.676
63314SOL    HW291782   7.134  12.238  12.728
63315SOL     OW91783  13.611  12.487  10.090
63315SOL    HW191784  13.558  12.433  10.149
63315SOL    HW291785  13.633  12.429  10.017
63316SOL     OW91786  10.575   4.434   2.473
63316SOL    HW191787  10.622   4.453   2.554
63316SOL    HW291788  10.622   4.359   2.435
63317SOL     OW91789  12.944  13.026   5.436
63317SOL    HW191790  12.938  13.024   5.341
63317SOL    HW291791  12.905  13.110   5.461
63318SOL     OW91792   5.244   3.316  13.232
63318SOL    HW191793   5.204   3.401  13.252
63318SOL    HW291794   5.267   3.280  13.318
63319SOL     OW91795  14.079   3.052   3.636
63319SOL    HW191796  14.167   3.016   3.644
63319SOL    HW291797  14.078   3.098   3.553
63320SOL     OW91798   8.291   6.815   6.267
63320SOL    HW191799   8.334   6.769   6.338
63320SOL    HW291800   8.344   6.894   6.254
63321SOL     OW91801  12.371   6.012  12.799
63321SOL    HW191802  12.293   6.067  12.789
63321SOL    HW291803  12.354   5.959  12.877
63322SOL     OW91804  11.430  13.608  13.688
63322SOL    HW191805  11.517  13.578  13.662
63322SOL    HW291806  11.444  13.657  13.769
63323SOL     OW91807   9.071   0.507   3.757
63323SOL    HW191808   9.097   0.574   3.694
63323SOL    HW291809   8.977   0.495   3.742
63324SOL     OW91810   4.680   3.880   3.118
63324SOL    HW191811   4.745   3.836   3.063
63324SOL    HW291812   4.596   3.859   3.079
63325SOL     OW91813   4.863   8.967   4.555
63325SOL    HW191814   4.816   8.949   4.637
63325SOL    HW291815   4.810   9.034   4.512
63326SOL     OW91816   1.000   4.739   0.539
63326SOL    HW191817   1.079   4.773   0.581
63326SOL    HW291818   0.955   4.690   0.607
63327SOL     OW91819  14.191  10.745   0.778
63327SOL    HW191820  14.159  10.676   0.719
63327SOL    HW291821  14.242  10.803   0.722
63328SOL     OW91822   5.137   8.969   3.004
63328SOL    HW191823   5.130   8.977   3.099
63328SOL    HW291824   5.219   9.013   2.983
63329SOL     OW91825   1.687  13.809   0.517
63329SOL    HW191826   1.630  13.732   0.511
63329SOL    HW291827   1.712  13.813   0.609
63330SOL     OW91828   5.997   7.397   6.802
63330SOL    HW191829   5.947   7.337   6.858
63330SOL    HW291830   6.042   7.454   6.864
63331SOL     OW91831   9.135  14.368   2.629
63331SOL    HW191832   9.056  14.317   2.615
63331SOL    HW291833   9.117  14.452   2.586
63332SOL     OW91834  12.415   2.874   1.372
63332SOL    HW191835  12.360   2.853   1.297
63332SOL    HW291836  12.478   2.938   1.338
63333SOL     OW91837  13.432  12.779   1.488
63333SOL    HW191838  13.497  12.737   1.545
63333SOL    HW291839  13.415  12.715   1.419
63334SOL     OW91840   8.863   1.888  12.146
63334SOL    HW191841   8.889   1.798  12.162
63334SOL    HW291842   8.901   1.911  12.062
63335SOL     OW91843  14.107  14.150   4.301
63335SOL    HW191844  14.068  14.065   4.323
63335SOL    HW291845  14.051  14.185   4.232
63336SOL     OW91846  11.659  14.550   2.209
63336SOL    HW191847  11.574  14.530   2.248
63336SOL    HW291848  11.652  14.642   2.183
63337SOL     OW91849  11.824   7.684   6.222
63337SOL    HW191850  11.787   7.622   6.159
63337SOL    HW291851  11.758   7.689   6.292
63338SOL     OW91852   0.174  10.625  14.239
63338SOL    HW191853   0.158  10.536  14.272
63338SOL    HW291854   0.136  10.682  14.306
63339SOL     OW91855  11.618  10.789  13.802
63339SOL    HW191856  11.617  10.858  13.736
63339SOL    HW291857  11.552  10.727  13.773
63340SOL     OW91858   6.855  14.503   5.428
63340SOL    HW191859   6.760  14.511   5.414
63340SOL    HW291860   6.874  14.567   5.497
63341SOL     OW91861   4.668  12.917   9.330
63341SOL    HW191862   4.706  12.934   9.416
63341SOL    HW291863   4.651  13.003   9.293
63342SOL     OW91864   9.206   1.205  10.161
63342SOL    HW191865   9.276   1.228  10.101
63342SOL    HW291866   9.143   1.277  10.154
63343SOL     OW91867  13.600  10.767   0.053
63343SOL    HW191868  13.546  10.724  14.862
63343SOL    HW291869  13.610  10.857   0.021
63344SOL     OW91870   3.504   1.608   3.631
63344SOL    HW191871   3.472   1.590   3.542
63344SOL    HW291872   3.599   1.611   3.621
63345SOL     OW91873   2.970   0.435   8.268
63345SOL    HW191874   3.003   0.522   8.288
63345SOL    HW291875   2.915   0.447   8.190
63346SOL     OW91876   2.586  14.696   5.508
63346SOL    HW191877   2.643  14.627   5.472
63346SOL    HW291878   2.601  14.692   5.602
63347SOL     OW91879  14.593   5.709  14.468
63347SOL    HW191880  14.570   5.706  14.561
63347SOL    HW291881  14.622   5.620  14.447
63348SOL     OW91882   6.622   1.748   5.764
63348SOL    HW191883   6.668   1.832   5.772
63348SOL    HW291884   6.534   1.766   5.796
63349SOL     OW91885   5.296   2.852  10.609
63349SOL    HW191886   5.332   2.767  10.633
63349SOL    HW291887   5.222   2.831  10.552
63350SOL     OW91888   6.708  12.631   8.795
63350SOL    HW191889   6.780  12.614   8.735
63350SOL    HW291890   6.729  12.716   8.834
63351SOL     OW91891  11.130  14.190  13.237
63351SOL    HW191892  11.110  14.213  13.146
63351SOL    HW291893  11.063  14.125  13.259
63352SOL     OW91894   7.399   4.109   2.731
63352SOL    HW191895   7.382   4.093   2.824
63352SOL    HW291896   7.401   4.022   2.692
63353SOL     OW91897   5.778   7.438  13.053
63353SOL    HW191898   5.803   7.368  13.113
63353SOL    HW291899   5.751   7.393  12.974
63354SOL     OW91900   6.646  11.642   1.977
63354SOL    HW191901   6.575  11.703   1.955
63354SOL    HW291902   6.624  11.611   2.064
63355SOL     OW91903   2.611   6.974   7.436
63355SOL    HW191904   2.678   7.019   7.488
63355SOL    HW291905   2.585   6.900   7.490
63356SOL     OW91906  14.363   5.782  10.298
63356SOL    HW191907  14.329   5.852  10.352
63356SOL    HW291908  14.415   5.826  10.230
63357SOL     OW91909   6.540   9.134   7.991
63357SOL    HW191910   6.499   9.216   7.966
63357SOL    HW291911   6.499   9.111   8.074
63358SOL     OW91912   9.781   9.608  11.811
63358SOL    HW191913   9.731   9.541  11.764
63358SOL    HW291914   9.752   9.600  11.902
63359SOL     OW91915  10.381   8.560  11.637
63359SOL    HW191916  10.314   8.558  11.568
63359SOL    HW291917  10.411   8.651  11.637
63360SOL     OW91918   6.615   2.699   4.222
63360SOL    HW191919   6.550   2.767   4.202
63360SOL    HW291920   6.597   2.675   4.313
63361SOL     OW91921   1.421   9.656   4.700
63361SOL    HW191922   1.395   9.594   4.632
63361SOL    HW291923   1.419   9.741   4.656
63362SOL     OW91924   9.046  11.610   2.998
63362SOL    HW191925   8.955  11.587   3.018
63362SOL    HW291926   9.098  11.548   3.050
63363SOL     OW91927  13.263   3.335   6.785
63363SOL    HW191928  13.252   3.429   6.801
63363SOL    HW291929  13.206   3.317   6.710
63364SOL     OW91930   8.813  14.201   9.472
63364SOL    HW191931   8.858  14.258   9.410
63364SOL    HW291932   8.769  14.260   9.532
63365SOL     OW91933   1.636   9.692  12.562
63365SOL    HW191934   1.658   9.636  12.637
63365SOL    HW291935   1.612   9.630  12.493
63366SOL     OW91936   6.870   4.419   9.163
63366SOL    HW191937   6.964   4.419   9.184
63366SOL    HW291938   6.835   4.343   9.208
63367SOL     OW91939   3.214   4.474   8.777
63367SOL    HW191940   3.258   4.475   8.692
63367SOL    HW291941   3.121   4.472   8.756
63368SOL     OW91942   8.256   1.825  14.222
63368SOL    HW191943   8.236   1.732  14.224
63368SOL    HW291944   8.350   1.829  14.205
63369SOL     OW91945  14.495   2.118   4.697
63369SOL    HW191946  14.570   2.063   4.676
63369SOL    HW291947  14.431   2.057   4.734
63370SOL     OW91948   3.800   1.139   3.949
63370SOL    HW191949   3.709   1.171   3.953
63370SOL    HW291950   3.823   1.122   4.041
63371SOL     OW91951   4.856   7.754  13.705
63371SOL    HW191952   4.874   7.673  13.753
63371SOL    HW291953   4.936   7.771  13.656
63372SOL     OW91954  13.632  13.017   3.486
63372SOL    HW191955  13.618  13.091   3.545
63372SOL    HW291956  13.655  12.944   3.544
63373SOL     OW91957   0.532   6.346  12.875
63373SOL    HW191958   0.511   6.391  12.793
63373SOL    HW291959   0.513   6.410  12.943
63374SOL     OW91960   0.846   1.342   5.913
63374SOL    HW191961   0.807   1.298   5.989
63374SOL    HW291962   0.771   1.359   5.855
63375SOL     OW91963  10.515   7.768  13.680
63375SOL    HW191964  10.563   7.848  13.702
63375SOL    HW291965  10.520   7.714  13.759
63376SOL     OW91966   9.110  11.904   8.665
63376SOL    HW191967   9.200  11.883   8.689
63376SOL    HW291968   9.059  11.886   8.744
63377SOL     OW91969   1.329   1.373   9.909
63377SOL    HW191970   1.391   1.402   9.842
63377SOL    HW291971   1.380   1.315   9.965
63378SOL     OW91972  12.725   9.572   7.929
63378SOL    HW191973  12.713   9.501   7.865
63378SOL    HW291974  12.651   9.561   7.990
63379SOL     OW91975  14.582  10.201   1.373
63379SOL    HW191976  14.499  10.207   1.421
63379SOL    HW291977  14.583  10.278   1.317
63380SOL     OW91978   5.666   3.327   9.698
63380SOL    HW191979   5.649   3.315   9.604
63380SOL    HW291980   5.610   3.262   9.741
63381SOL     OW91981   1.684   3.946  10.928
63381SOL    HW191982   1.649   3.931  11.016
63381SOL    HW291983   1.623   3.899  10.870
63382SOL     OW91984  11.476   6.771   0.345
63382SOL    HW191985  11.524   6.750   0.265
63382SOL    HW291986  11.486   6.693   0.400
63383SOL     OW91987   4.260   4.297   7.174
63383SOL    HW191988   4.346   4.277   7.137
63383SOL    HW291989   4.198   4.252   7.117
63384SOL     OW91990  14.365  14.720  12.075
63384SOL    HW191991  14.435  14.718  12.011
63384SOL    HW291992  14.372  14.635  12.120
63385SOL     OW91993  14.815  12.835  11.661
63385SOL    HW191994  14.741  12.775  11.650
63385SOL    HW291995  14.818  12.884  11.579
63386SOL     OW91996   1.673  10.375   6.625
63386SOL    HW191997   1.604  10.322   6.583
63386SOL    HW291998   1.747  10.315   6.632
63387SOL     OW91999   0.174  13.837   8.057
63387SOL    HW192000   0.141  13.926   8.063
63387SOL    HW292001   0.230  13.836   7.979
63388SOL     OW92002  14.410   6.669  10.226
63388SOL    HW192003  14.357   6.611  10.172
63388SOL    HW292004  14.489   6.685  10.174
63389SOL     OW92005   2.670   1.984  10.462
63389SOL    HW192006   2.757   2.006  10.495
63389SOL    HW292007   2.615   1.978  10.540
63390SOL     OW92008   5.793  13.207  11.704
63390SOL    HW192009   5.759  13.131  11.752
63390SOL    HW292010   5.716  13.260  11.686
63391SOL     OW92011   0.376   7.535   9.389
63391SOL    HW192012   0.441   7.466   9.403
63391SOL    HW292013   0.361   7.535   9.295
63392SOL     OW92014  12.514   2.589  11.697
63392SOL    HW192015  12.593   2.621  11.739
63392SOL    HW292016  12.450   2.660  11.707
63393SOL     OW92017   9.580  13.778   3.431
63393SOL    HW192018   9.662  13.743   3.464
63393SOL    HW292019   9.583  13.761   3.337
63394SOL     OW92020  10.968   3.944   0.680
63394SOL    HW192021  10.941   3.981   0.764
63394SOL    HW292022  11.052   3.902   0.698
63395SOL     OW92023  12.751   6.906   5.050
63395SOL    HW192024  12.703   6.989   5.041
63395SOL    HW292025  12.685   6.838   5.041
63396SOL     OW92026   7.303   6.664   7.249
63396SOL    HW192027   7.382   6.691   7.202
63396SOL    HW292028   7.274   6.584   7.205
63397SOL     OW92029   3.129   9.449   3.357
63397SOL    HW192030   3.194   9.380   3.366
63397SOL    HW292031   3.096   9.463   3.446
63398SOL     OW92032   5.174   9.204   0.671
63398SOL    HW192033   5.180   9.123   0.621
63398SOL    HW292034   5.219   9.269   0.617
63399SOL     OW92035   3.380   1.920  10.040
63399SOL    HW192036   3.412   1.862   9.971
63399SOL    HW292037   3.284   1.911  10.036
63400SOL     OW92038   2.001   8.790  10.174
63400SOL    HW192039   1.964   8.786  10.086
63400SOL    HW292040   1.989   8.880  10.201
63401SOL     OW92041   3.625   9.786   1.740
63401SOL    HW192042   3.635   9.855   1.806
63401SOL    HW292043   3.623   9.833   1.656
63402SOL     OW92044   4.566   5.505   0.182
63402SOL    HW192045   4.588   5.589   0.141
63402SOL    HW292046   4.584   5.519   0.275
63403SOL     OW92047   3.116   9.017  11.522
63403SOL    HW192048   3.098   9.085  11.587
63403SOL    HW292049   3.192   9.051  11.473
63404SOL     OW92050  13.718   2.151   5.492
63404SOL    HW192051  13.625   2.151   5.471
63404SOL    HW292052  13.722   2.183   5.583
63405SOL     OW92053  10.817   8.621   5.294
63405SOL    HW192054  10.762   8.668   5.231
63405SOL    HW292055  10.760   8.606   5.369
63406SOL     OW92056   8.427   8.542  12.270
63406SOL    HW192057   8.489   8.611  12.294
63406SOL    HW292058   8.366   8.537  12.344
63407SOL     OW92059   1.959   5.138   7.284
63407SOL    HW192060   1.938   5.224   7.248
63407SOL    HW292061   1.988   5.156   7.374
63408SOL     OW92062   6.233   1.399   0.285
63408SOL    HW192063   6.221   1.340   0.359
63408SOL    HW292064   6.296   1.355   0.228
63409SOL     OW92065   7.926  14.274  13.635
63409SOL    HW192066   7.866  14.346  13.614
63409SOL    HW292067   8.011  14.305  13.604
63410SOL     OW92068   6.165   8.642   8.723
63410SOL    HW192069   6.203   8.576   8.782
63410SOL    HW292070   6.227   8.715   8.727
63411SOL     OW92071  14.538   6.688  12.692
63411SOL    HW192072  14.592   6.752  12.740
63411SOL    HW292073  14.456   6.685  12.742
63412SOL     OW92074   0.372   0.740   3.960
63412SOL    HW192075   0.292   0.785   3.935
63412SOL    HW292076   0.402   0.697   3.879
63413SOL     OW92077   9.868   8.889  13.021
63413SOL    HW192078   9.819   8.968  13.043
63413SOL    HW292079   9.907   8.909  12.936
63414SOL     OW92080   9.704  12.348   8.425
63414SOL    HW192081   9.644  12.412   8.386
63414SOL    HW292082   9.789  12.392   8.425
63415SOL     OW92083   8.724  14.590  14.764
63415SOL    HW192084   8.807  14.573  14.808
63415SOL    HW292085   8.660  14.538  14.813
63416SOL     OW92086  10.466   4.987  11.720
63416SOL    HW192087  10.393   5.046  11.738
63416SOL    HW292088  10.536   5.044  11.688
63417SOL     OW92089   2.944   3.377   8.343
63417SOL    HW192090   2.866   3.386   8.287
63417SOL    HW292091   2.911   3.387   8.432
63418SOL     OW92092   3.895  13.784   0.834
63418SOL    HW192093   3.925  13.719   0.898
63418SOL    HW292094   3.974  13.830   0.807
63419SOL     OW92095  13.663   4.026   2.929
63419SOL    HW192096  13.602   3.962   2.968
63419SOL    HW292097  13.610   4.074   2.866
63420SOL     OW92098  13.037   7.256   5.168
63420SOL    HW192099  13.072   7.216   5.088
63420SOL    HW292100  13.063   7.196   5.238
63421SOL     OW92101   5.968  14.850  13.041
63421SOL    HW192102   6.005  14.762  13.035
63421SOL    HW292103   6.035   0.034  13.005
63422SOL     OW92104  14.645   6.970  14.694
63422SOL    HW192105  14.601   6.926  14.622
63422SOL    HW292106  14.662   7.058  14.661
63423SOL     OW92107   9.995  10.667   3.395
63423SOL    HW192108  10.011  10.753   3.433
63423SOL    HW292109   9.957  10.686   3.309
63424SOL     OW92110   6.382  12.060   6.460
63424SOL    HW192111   6.447  12.130   6.451
63424SOL    HW292112   6.378  12.042   6.554
63425SOL     OW92113   7.631   8.297  12.818
63425SOL    HW192114   7.634   8.268  12.727
63425SOL    HW292115   7.548   8.343  12.827
63426SOL     OW92116  14.130   6.838   2.587
63426SOL    HW192117  14.083   6.798   2.660
63426SOL    HW292118  14.096   6.928   2.582
63427SOL     OW92119  10.925   0.190   3.009
63427SOL    HW192120  10.978   0.265   2.984
63427SOL    HW292121  10.870   0.222   3.081
63428SOL     OW92122   4.335   3.854   8.129
63428SOL    HW192123   4.273   3.791   8.092
63428SOL    HW292124   4.281   3.923   8.167
63429SOL     OW92125   7.164   8.887  12.556
63429SOL    HW192126   7.132   8.948  12.622
63429SOL    HW292127   7.161   8.802  12.598
63430SOL     OW92128   2.239  14.077   5.553
63430SOL    HW192129   2.167  14.127   5.591
63430SOL    HW292130   2.282  14.138   5.494
63431SOL     OW92131   0.830  12.873  13.895
63431SOL    HW192132   0.817  12.949  13.838
63431SOL    HW292133   0.747  12.825  13.890
63432SOL     OW92134  14.772  13.778   0.537
63432SOL    HW192135  14.854  13.820   0.511
63432SOL    HW292136  14.758  13.806   0.628
63433SOL     OW92137   6.317   3.988  10.713
63433SOL    HW192138   6.394   3.986  10.771
63433SOL    HW292139   6.345   4.042  10.639
63434SOL     OW92140  11.267  14.776   2.877
63434SOL    HW192141  11.183  14.781   2.922
63434SOL    HW292142  11.250  14.719   2.801
63435SOL     OW92143   2.953  13.293   0.619
63435SOL    HW192144   2.867  13.335   0.607
63435SOL    HW292145   2.953  13.220   0.557
63436SOL     OW92146   6.922   8.526  11.081
63436SOL    HW192147   6.907   8.551  11.172
63436SOL    HW292148   6.995   8.582  11.053
63437SOL     OW92149   7.976   3.452   9.666
63437SOL    HW192150   8.044   3.415   9.610
63437SOL    HW292151   7.894   3.414   9.633
63438SOL     OW92152   3.222   2.064  11.438
63438SOL    HW192153   3.223   2.114  11.519
63438SOL    HW292154   3.299   2.093  11.390
63439SOL     OW92155   6.970  14.444   8.959
63439SOL    HW192156   6.895  14.479   9.008
63439SOL    HW292157   6.936  14.431   8.870
63440SOL     OW92158  13.308  14.009   1.179
63440SOL    HW192159  13.369  14.067   1.134
63440SOL    HW292160  13.331  14.016   1.271
63441SOL     OW92161   8.165   0.145   5.186
63441SOL    HW192162   8.100   0.195   5.135
63441SOL    HW292163   8.133   0.055   5.184
63442SOL     OW92164  10.858   2.248  10.504
63442SOL    HW192165  10.798   2.174  10.497
63442SOL    HW292166  10.876   2.273  10.413
63443SOL     OW92167  13.014   1.788   9.498
63443SOL    HW192168  12.965   1.813   9.419
63443SOL    HW292169  13.076   1.722   9.467
63444SOL     OW92170   7.559   6.027   3.867
63444SOL    HW192171   7.569   6.117   3.836
63444SOL    HW292172   7.499   5.986   3.804
63445SOL     OW92173   7.057   0.617   9.448
63445SOL    HW192174   7.143   0.658   9.444
63445SOL    HW292175   7.045   0.579   9.361
63446SOL     OW92176  12.836  13.172   3.456
63446SOL    HW192177  12.755  13.204   3.416
63446SOL    HW292178  12.838  13.212   3.543
63447SOL     OW92179  14.081  12.900  14.563
63447SOL    HW192180  14.063  12.817  14.607
63447SOL    HW292181  13.998  12.926  14.523
63448SOL     OW92182   4.139   1.374  10.321
63448SOL    HW192183   4.199   1.403  10.252
63448SOL    HW292184   4.058   1.350  10.274
63449SOL     OW92185  13.351  10.514   0.545
63449SOL    HW192186  13.298  10.483   0.618
63449SOL    HW292187  13.379  10.602   0.572
63450SOL     OW92188   0.278  10.836  14.825
63450SOL    HW192189   0.313  10.823  14.738
63450SOL    HW292190   0.273  10.749  14.863
63451SOL     OW92191  13.026   4.440   2.487
63451SOL    HW192192  12.979   4.360   2.462
63451SOL    HW292193  13.117   4.412   2.495
63452SOL     OW92194   8.306   0.542   8.221
63452SOL    HW192195   8.290   0.533   8.127
63452SOL    HW292196   8.263   0.466   8.259
63453SOL     OW92197  11.280   3.857  14.702
63453SOL    HW192198  11.289   3.812  14.618
63453SOL    HW292199  11.250   3.945  14.680
63454SOL     OW92200   4.293   3.638  14.779
63454SOL    HW192201   4.307   3.609  14.689
63454SOL    HW292202   4.329   3.727  14.780
63455SOL     OW92203   3.162   7.468  12.989
63455SOL    HW192204   3.157   7.418  12.908
63455SOL    HW292205   3.244   7.441  13.029
63456SOL     OW92206   9.465   0.801   0.260
63456SOL    HW192207   9.539   0.775   0.205
63456SOL    HW292208   9.497   0.876   0.310
63457SOL     OW92209   8.056  10.159   0.481
63457SOL    HW192210   8.025  10.242   0.445
63457SOL    HW292211   8.078  10.107   0.404
63458SOL     OW92212   5.954   4.960  14.279
63458SOL    HW192213   5.868   4.979  14.240
63458SOL    HW292214   5.933   4.907  14.356
63459SOL     OW92215  11.439   6.519   5.964
63459SOL    HW192216  11.435   6.424   5.960
63459SOL    HW292217  11.518   6.542   5.915
63460SOL     OW92218  11.299  11.268   0.012
63460SOL    HW192219  11.374  11.217   0.042
63460SOL    HW292220  11.239  11.270   0.087
63461SOL     OW92221   3.994  13.171   9.693
63461SOL    HW192222   3.994  13.232   9.766
63461SOL    HW292223   4.049  13.212   9.627
63462SOL     OW92224   8.226   5.703   1.400
63462SOL    HW192225   8.254   5.629   1.454
63462SOL    HW292226   8.136   5.681   1.375
63463SOL     OW92227   0.287   9.837  13.670
63463SOL    HW192228   0.233   9.916  13.674
63463SOL    HW292229   0.247   9.784  13.601
63464SOL     OW92230   8.058   5.353   3.314
63464SOL    HW192231   8.138   5.363   3.366
63464SOL    HW292232   8.080   5.284   3.250
63465SOL     OW92233   9.948  11.762   7.894
63465SOL    HW192234   9.918  11.689   7.839
63465SOL    HW292235   9.960  11.723   7.980
63466SOL     OW92236   5.886  13.066  10.024
63466SOL    HW192237   5.798  13.029  10.024
63466SOL    HW292238   5.900  13.094   9.933
63467SOL     OW92239   4.678   4.298   5.116
63467SOL    HW192240   4.637   4.237   5.055
63467SOL    HW292241   4.605   4.334   5.167
63468SOL     OW92242  12.742  14.468   6.321
63468SOL    HW192243  12.786  14.416   6.389
63468SOL    HW292244  12.667  14.415   6.295
63469SOL     OW92245   6.729  14.328   2.958
63469SOL    HW192246   6.661  14.275   2.916
63469SOL    HW292247   6.809  14.276   2.949
63470SOL     OW92248   4.511   8.768  12.640
63470SOL    HW192249   4.438   8.708  12.621
63470SOL    HW292250   4.503   8.836  12.574
63471SOL     OW92251   4.504   4.186   0.241
63471SOL    HW192252   4.478   4.095   0.254
63471SOL    HW292253   4.423   4.231   0.218
63472SOL     OW92254   7.876   6.472   0.859
63472SOL    HW192255   7.820   6.476   0.937
63472SOL    HW292256   7.919   6.557   0.856
63473SOL     OW92257   4.260  11.789   7.695
63473SOL    HW192258   4.192  11.747   7.747
63473SOL    HW292259   4.315  11.834   7.758
63474SOL     OW92260   1.445   9.384   7.199
63474SOL    HW192261   1.417   9.302   7.241
63474SOL    HW292262   1.383   9.396   7.128
63475SOL     OW92263  13.084  12.615   1.428
63475SOL    HW192264  13.122  12.700   1.449
63475SOL    HW292265  13.101  12.604   1.334
63476SOL     OW92266   9.938   8.700   3.926
63476SOL    HW192267   9.851   8.700   3.888
63476SOL    HW292268   9.974   8.615   3.903
63477SOL     OW92269  14.774   3.845  10.013
63477SOL    HW192270  14.857   3.799  10.026
63477SOL    HW292271  14.783   3.887   9.927
63478SOL     OW92272   4.226  13.163   7.467
63478SOL    HW192273   4.188  13.075   7.464
63478SOL    HW292274   4.305  13.153   7.520
63479SOL     OW92275   5.774   9.591   4.577
63479SOL    HW192276   5.849   9.611   4.633
63479SOL    HW292277   5.738   9.510   4.613
63480SOL     OW92278  10.913   9.158   4.244
63480SOL    HW192279  11.001   9.121   4.250
63480SOL    HW292280  10.856   9.085   4.269
63481SOL     OW92281   6.085   7.653   2.098
63481SOL    HW192282   5.999   7.695   2.099
63481SOL    HW292283   6.105   7.635   2.190
63482SOL     OW92284  11.537   0.130   2.378
63482SOL    HW192285  11.479   0.201   2.350
63482SOL    HW292286  11.479   0.066   2.419
63483SOL     OW92287  10.067   4.884  11.133
63483SOL    HW192288  10.107   4.955  11.184
63483SOL    HW292289  10.139   4.849  11.080
63484SOL     OW92290   3.916   6.489   3.705
63484SOL    HW192291   3.991   6.435   3.730
63484SOL    HW292292   3.934   6.516   3.615
63485SOL     OW92293   3.848   2.111   3.794
63485SOL    HW192294   3.835   2.021   3.765
63485SOL    HW292295   3.760   2.142   3.817
63486SOL     OW92296  12.711  14.615   7.228
63486SOL    HW192297  12.649  14.558   7.274
63486SOL    HW292298  12.660  14.693   7.206
63487SOL     OW92299   7.121  13.854   9.180
63487SOL    HW192300   7.204  13.807   9.178
63487SOL    HW292301   7.144  13.942   9.207
63488SOL     OW92302   0.709   9.255   1.805
63488SOL    HW192303   0.663   9.226   1.884
63488SOL    HW292304   0.715   9.350   1.814
63489SOL     OW92305   2.485  10.227  10.993
63489SOL    HW192306   2.433  10.296  10.950
63489SOL    HW292307   2.559  10.273  11.031
63490SOL     OW92308  14.237   9.400   2.453
63490SOL    HW192309  14.225   9.312   2.490
63490SOL    HW292310  14.160   9.413   2.397
63491SOL     OW92311   9.038  11.513  12.368
63491SOL    HW192312   8.949  11.497  12.338
63491SOL    HW292313   9.090  11.518  12.287
63492SOL     OW92314   6.825   8.542  14.085
63492SOL    HW192315   6.818   8.471  14.148
63492SOL    HW292316   6.809   8.621  14.135
63493SOL     OW92317   1.374  10.794   9.660
63493SOL    HW192318   1.414  10.738   9.594
63493SOL    HW292319   1.446  10.820   9.717
63494SOL     OW92320  10.334   0.031  11.751
63494SOL    HW192321  10.368  14.819  11.727
63494SOL    HW292322  10.240   0.025  11.733
63495SOL     OW92323   3.882  14.065   8.397
63495SOL    HW192324   3.951  14.130   8.387
63495SOL    HW292325   3.829  14.074   8.318
63496SOL     OW92326   6.801   9.290   4.764
63496SOL    HW192327   6.725   9.249   4.805
63496SOL    HW292328   6.849   9.218   4.723
63497SOL     OW92329   5.076   4.382  14.502
63497SOL    HW192330   5.017   4.392  14.427
63497SOL    HW292331   5.163   4.378  14.464
63498SOL     OW92332   2.155   4.720  14.847
63498SOL    HW192333   2.089   4.662   0.010
63498SOL    HW292334   2.161   4.693  14.755
63499SOL     OW92335   1.775   7.171   3.273
63499SOL    HW192336   1.747   7.080   3.265
63499SOL    HW292337   1.709   7.212   3.327
63500SOL     OW92338   8.777   1.107   9.935
63500SOL    HW192339   8.719   1.109   9.859
63500SOL    HW292340   8.760   1.190   9.980
63501SOL     OW92341  11.192  11.339  11.894
63501SOL    HW192342  11.223  11.324  11.983
63501SOL    HW292343  11.107  11.381  11.904
63502SOL     OW92344   9.880   4.525   1.164
63502SOL    HW192345   9.803   4.488   1.208
63502SOL    HW292346   9.885   4.477   1.081
63503SOL     OW92347   7.470  10.376   6.704
63503SOL    HW192348   7.536  10.306   6.712
63503SOL    HW292349   7.405  10.341   6.643
63504SOL     OW92350   3.299  11.771   7.632
63504SOL    HW192351   3.318  11.692   7.684
63504SOL    HW292352   3.385  11.806   7.610
63505SOL     OW92353  10.845   6.998  10.524
63505SOL    HW192354  10.843   6.916  10.474
63505SOL    HW292355  10.760   7.039  10.506
63506SOL     OW92356   7.775  10.064  12.533
63506SOL    HW192357   7.720   9.986  12.534
63506SOL    HW292358   7.713  10.137  12.530
63507SOL     OW92359  11.044   9.004  14.472
63507SOL    HW192360  11.042   8.961  14.557
63507SOL    HW292361  10.996   8.944  14.414
63508SOL     OW92362  11.506  11.025   1.315
63508SOL    HW192363  11.424  10.976   1.322
63508SOL    HW292364  11.482  11.108   1.274
63509SOL     OW92365  12.538   6.614   6.465
63509SOL    HW192366  12.566   6.661   6.387
63509SOL    HW292367  12.443   6.609   6.457
63510SOL     OW92368  11.969  11.181   4.065
63510SOL    HW192369  12.024  11.102   4.068
63510SOL    HW292370  11.945  11.198   4.156
63511SOL     OW92371  10.423   9.328  12.296
63511SOL    HW192372  10.368   9.384  12.350
63511SOL    HW292373  10.466   9.269  12.358
63512SOL     OW92374   5.805   7.310   1.221
63512SOL    HW192375   5.795   7.336   1.130
63512SOL    HW292376   5.897   7.325   1.241
63513SOL     OW92377   1.413   4.900   8.364
63513SOL    HW192378   1.478   4.829   8.359
63513SOL    HW292379   1.331   4.855   8.383
63514SOL     OW92380  12.422  11.148   0.631
63514SOL    HW192381  12.384  11.098   0.704
63514SOL    HW292382  12.400  11.098   0.553
63515SOL     OW92383   9.436   2.614   7.695
63515SOL    HW192384   9.495   2.690   7.695
63515SOL    HW292385   9.395   2.616   7.782
63516SOL     OW92386   9.074  14.744   7.471
63516SOL    HW192387   9.117  14.718   7.552
63516SOL    HW292388   9.011  14.674   7.454
63517SOL     OW92389   4.130   0.177   5.158
63517SOL    HW192390   4.224   0.193   5.165
63517SOL    HW292391   4.091   0.263   5.175
63518SOL     OW92392   4.976  12.891  11.235
63518SOL    HW192393   5.055  12.846  11.205
63518SOL    HW292394   4.910  12.823  11.244
63519SOL     OW92395  11.782   8.931   4.416
63519SOL    HW192396  11.830   8.939   4.498
63519SOL    HW292397  11.691   8.950   4.439
63520SOL     OW92398   7.739  12.838  14.377
63520SOL    HW192399   7.710  12.903  14.313
63520SOL    HW292400   7.752  12.888  14.457
63521SOL     OW92401  12.212  10.570   9.420
63521SOL    HW192402  12.212  10.614   9.335
63521SOL    HW292403  12.120  10.557   9.441
63522SOL     OW92404   3.182  12.690   8.307
63522SOL    HW192405   3.177  12.678   8.402
63522SOL    HW292406   3.196  12.784   8.295
63523SOL     OW92407   5.561   0.519   7.549
63523SOL    HW192408   5.550   0.430   7.585
63523SOL    HW292409   5.479   0.536   7.503
63524SOL     OW92410   3.721   1.183  10.120
63524SOL    HW192411   3.627   1.176  10.137
63524SOL    HW292412   3.728   1.231  10.038
63525SOL     OW92413   7.812   7.875   4.129
63525SOL    HW192414   7.875   7.902   4.196
63525SOL    HW292415   7.861   7.817   4.071
63526SOL     OW92416   3.749  13.944  13.969
63526SOL    HW192417   3.673  13.899  13.932
63526SOL    HW292418   3.763  14.019  13.912
63527SOL     OW92419   1.444   3.288  12.760
63527SOL    HW192420   1.486   3.282  12.845
63527SOL    HW292421   1.358   3.248  12.772
63528SOL     OW92422   8.369   1.878   6.945
63528SOL    HW192423   8.315   1.925   6.882
63528SOL    HW292424   8.310   1.815   6.985
63529SOL     OW92425   2.728   4.412  13.393
63529SOL    HW192426   2.730   4.507  13.382
63529SOL    HW292427   2.640   4.393  13.425
63530SOL     OW92428   0.742   5.992   4.676
63530SOL    HW192429   0.792   5.915   4.650
63530SOL    HW292430   0.666   5.956   4.722
63531SOL     OW92431  13.410   6.314   0.821
63531SOL    HW192432  13.479   6.360   0.869
63531SOL    HW292433  13.404   6.360   0.737
63532SOL     OW92434   8.413   2.281  12.642
63532SOL    HW192435   8.426   2.201  12.692
63532SOL    HW292436   8.478   2.342  12.676
63533SOL     OW92437   2.079   8.137   9.571
63533SOL    HW192438   2.152   8.144   9.509
63533SOL    HW292439   2.071   8.224   9.609
63534SOL     OW92440   3.940   6.049   7.017
63534SOL    HW192441   4.008   6.042   6.951
63534SOL    HW292442   3.876   5.983   6.993
63535SOL     OW92443   8.274   7.244   9.522
63535SOL    HW192444   8.348   7.240   9.583
63535SOL    HW292445   8.204   7.197   9.567
63536SOL     OW92446   4.527  13.929   6.731
63536SOL    HW192447   4.433  13.910   6.737
63536SOL    HW292448   4.539  13.965   6.643
63537SOL     OW92449   0.479  10.612   1.315
63537SOL    HW192450   0.489  10.649   1.403
63537SOL    HW292451   0.404  10.657   1.278
63538SOL     OW92452   4.746  11.765   3.284
63538SOL    HW192453   4.712  11.849   3.253
63538SOL    HW292454   4.710  11.700   3.223
63539SOL     OW92455  13.661   9.675  14.035
63539SOL    HW192456  13.722   9.701  14.104
63539SOL    HW292457  13.594   9.624  14.080
63540SOL     OW92458  14.248  11.638   9.423
63540SOL    HW192459  14.187  11.687   9.477
63540SOL    HW292460  14.285  11.704   9.363
63541SOL     OW92461   7.330   3.280   8.440
63541SOL    HW192462   7.271   3.350   8.411
63541SOL    HW292463   7.352   3.302   8.530
63542SOL     OW92464   5.962  11.837   6.853
63542SOL    HW192465   6.025  11.834   6.925
63542SOL    HW292466   5.887  11.885   6.887
63543SOL     OW92467   6.110  14.571  14.312
63543SOL    HW192468   6.166  14.645  14.338
63543SOL    HW292469   6.104  14.578  14.217
63544SOL     OW92470   5.404   2.842   6.596
63544SOL    HW192471   5.396   2.758   6.552
63544SOL    HW292472   5.492   2.843   6.632
63545SOL     OW92473  11.600   7.864   6.389
63545SOL    HW192474  11.678   7.858   6.444
63545SOL    HW292475  11.527   7.859   6.451
63546SOL     OW92476  10.171   7.162   3.389
63546SOL    HW192477  10.242   7.097   3.383
63546SOL    HW292478  10.097   7.112   3.423
63547SOL     OW92479   0.343   3.955   0.988
63547SOL    HW192480   0.341   3.882   1.050
63547SOL    HW292481   0.254   3.959   0.952
63548SOL     OW92482  13.282   9.948  12.345
63548SOL    HW192483  13.276   9.938  12.440
63548SOL    HW292484  13.375   9.959  12.328
63549SOL     OW92485   9.636   1.065  10.994
63549SOL    HW192486   9.712   1.036  11.044
63549SOL    HW292487   9.619   0.993  10.933
63550SOL     OW92488   0.829   5.449  10.473
63550SOL    HW192489   0.818   5.464  10.379
63550SOL    HW292490   0.827   5.354  10.483
63551SOL     OW92491   9.285  13.879   3.549
63551SOL    HW192492   9.195  13.907   3.529
63551SOL    HW292493   9.334  13.894   3.469
63552SOL     OW92494   7.489  14.581  11.923
63552SOL    HW192495   7.547  14.658  11.924
63552SOL    HW292496   7.501  14.544  11.836
63553SOL     OW92497   9.109   7.858   4.388
63553SOL    HW192498   9.015   7.844   4.376
63553SOL    HW292499   9.135   7.790   4.451
63554SOL     OW92500   5.849  14.282  10.895
63554SOL    HW192501   5.890  14.295  10.810
63554SOL    HW292502   5.773  14.226  10.877
63555SOL     OW92503   7.961   3.285  12.472
63555SOL    HW192504   7.884   3.229  12.482
63555SOL    HW292505   8.032   3.235  12.513
63556SOL     OW92506   6.112   2.946   3.383
63556SOL    HW192507   6.153   2.860   3.380
63556SOL    HW292508   6.047   2.939   3.453
63557SOL     OW92509   0.242   1.324   1.959
63557SOL    HW192510   0.172   1.381   1.991
63557SOL    HW292511   0.278   1.284   2.038
63558SOL     OW92512  11.721   0.942   9.955
63558SOL    HW192513  11.806   0.984   9.957
63558SOL    HW292514  11.693   0.939  10.047
63559SOL     OW92515   3.816   1.761  12.867
63559SOL    HW192516   3.808   1.666  12.862
63559SOL    HW292517   3.858   1.785  12.784
63560SOL     OW92518   2.155  11.502  14.675
63560SOL    HW192519   2.219  11.541  14.734
63560SOL    HW292520   2.086  11.568  14.666
63561SOL     OW92521   5.847  10.016   7.230
63561SOL    HW192522   5.888   9.933   7.206
63561SOL    HW292523   5.892  10.044   7.310
63562SOL     OW92524   3.041   9.516   0.952
63562SOL    HW192525   2.994   9.551   1.028
63562SOL    HW292526   2.980   9.528   0.879
63563SOL     OW92527   3.846   3.798  14.689
63563SOL    HW192528   3.797   3.717  14.704
63563SOL    HW292529   3.799   3.864  14.739
63564SOL     OW92530  12.550   9.043   2.002
63564SOL    HW192531  12.586   9.099   1.934
63564SOL    HW292532  12.456   9.049   1.992
63565SOL     OW92533   6.211   5.663   4.548
63565SOL    HW192534   6.260   5.676   4.467
63565SOL    HW292535   6.253   5.720   4.611
63566SOL     OW92536   7.658  12.727   3.107
63566SOL    HW192537   7.726  12.660   3.106
63566SOL    HW292538   7.677  12.780   3.184
63567SOL     OW92539   6.902   6.107   3.800
63567SOL    HW192540   6.836   6.074   3.739
63567SOL    HW292541   6.857   6.176   3.850
63568SOL     OW92542  12.379   0.913   1.214
63568SOL    HW192543  12.436   0.913   1.137
63568SOL    HW292544  12.413   0.983   1.270
63569SOL     OW92545  14.064   7.124   1.883
63569SOL    HW192546  14.127   7.062   1.846
63569SOL    HW292547  13.992   7.068   1.915
63570SOL     OW92548  13.220   8.418   6.605
63570SOL    HW192549  13.196   8.332   6.570
63570SOL    HW292550  13.219   8.407   6.700
63571SOL     OW92551  11.086  13.992   2.318
63571SOL    HW192552  11.167  14.029   2.354
63571SOL    HW292553  11.039  14.067   2.282
63572SOL     OW92554  13.473   5.295  10.296
63572SOL    HW192555  13.539   5.226  10.285
63572SOL    HW292556  13.449   5.320  10.207
63573SOL     OW92557  11.090   1.462   1.760
63573SOL    HW192558  11.114   1.490   1.848
63573SOL    HW292559  11.026   1.393   1.774
63574SOL     OW92560   7.554   2.295   9.253
63574SOL    HW192561   7.532   2.224   9.193
63574SOL    HW292562   7.474   2.311   9.303
63575SOL     OW92563   5.042   3.739  13.383
63575SOL    HW192564   5.018   3.816  13.436
63575SOL    HW292565   4.963   3.719  13.333
63576SOL     OW92566   6.651   5.770   7.134
63576SOL    HW192567   6.662   5.865   7.134
63576SOL    HW292568   6.565   5.756   7.175
63577SOL     OW92569  12.281   6.053  11.587
63577SOL    HW192570  12.327   6.128  11.549
63577SOL    HW292571  12.285   6.067  11.682
63578SOL     OW92572   5.568   8.851   1.140
63578SOL    HW192573   5.573   8.934   1.187
63578SOL    HW292574   5.601   8.786   1.203
63579SOL     OW92575   0.535   1.107   2.787
63579SOL    HW192576   0.511   1.123   2.878
63579SOL    HW292577   0.546   1.011   2.782
63580SOL     OW92578   5.940   5.213  14.047
63580SOL    HW192579   6.010   5.226  13.983
63580SOL    HW292580   5.985   5.198  14.130
63581SOL     OW92581   2.719   8.787   1.725
63581SOL    HW192582   2.679   8.856   1.778
63581SOL    HW292583   2.674   8.707   1.752
63582SOL     OW92584   5.890   0.511   1.957
63582SOL    HW192585   5.847   0.443   2.009
63582SOL    HW292586   5.959   0.545   2.014
63583SOL     OW92587   5.884   0.462   0.844
63583SOL    HW192588   5.904   0.371   0.864
63583SOL    HW292589   5.869   0.503   0.929
63584SOL     OW92590  10.804  13.972   4.710
63584SOL    HW192591  10.775  14.041   4.650
63584SOL    HW292592  10.768  13.891   4.673
63585SOL     OW92593   6.333  14.715   8.914
63585SOL    HW192594   6.266  14.746   8.854
63585SOL    HW292595   6.373  14.794   8.950
63586SOL     OW92596   3.158   1.825  12.023
63586SOL    HW192597   3.065   1.805  12.034
63586SOL    HW292598   3.165   1.852  11.931
63587SOL     OW92599  10.354   4.439   7.853
63587SOL    HW192600  10.319   4.457   7.940
63587SOL    HW292601  10.310   4.502   7.796
63588SOL     OW92602   8.934   7.489   7.504
63588SOL    HW192603   8.847   7.518   7.533
63588SOL    HW292604   8.931   7.497   7.409
63589SOL     OW92605  11.081   5.908  10.620
63589SOL    HW192606  11.081   5.986  10.676
63589SOL    HW292607  11.127   5.935  10.541
63590SOL     OW92608  14.133   2.841   4.010
63590SOL    HW192609  14.105   2.781   3.941
63590SOL    HW292610  14.092   2.808   4.089
63591SOL     OW92611  12.787   1.307   0.173
63591SOL    HW192612  12.722   1.291   0.242
63591SOL    HW292613  12.739   1.356   0.106
63592SOL     OW92614   1.638   1.509  11.025
63592SOL    HW192615   1.589   1.429  11.049
63592SOL    HW292616   1.584   1.551  10.958
63593SOL     OW92617  13.756  13.427   3.084
63593SOL    HW192618  13.671  13.416   3.041
63593SOL    HW292619  13.745  13.387   3.170
63594SOL     OW92620   3.446  10.639   9.544
63594SOL    HW192621   3.359  10.628   9.582
63594SOL    HW292622   3.474  10.551   9.520
63595SOL     OW92623   1.401   3.878   0.746
63595SOL    HW192624   1.441   3.800   0.709
63595SOL    HW292625   1.459   3.903   0.818
63596SOL     OW92626   2.725   0.305   9.580
63596SOL    HW192627   2.790   0.354   9.630
63596SOL    HW292628   2.680   0.252   9.646
63597SOL     OW92629   4.034   1.999   0.027
63597SOL    HW192630   4.119   2.042   0.024
63597SOL    HW292631   3.970   2.070   0.034
63598SOL     OW92632  11.318  11.956  13.767
63598SOL    HW192633  11.244  12.006  13.732
63598SOL    HW292634  11.293  11.865  13.756
63599SOL     OW92635  13.797  13.105   0.609
63599SOL    HW192636  13.728  13.083   0.547
63599SOL    HW292637  13.858  13.160   0.560
63600SOL     OW92638   9.653   9.083   1.409
63600SOL    HW192639   9.711   9.133   1.352
63600SOL    HW292640   9.697   9.083   1.494
63601SOL     OW92641   2.719  14.871   4.718
63601SOL    HW192642   2.695  14.792   4.768
63601SOL    HW292643   2.640   0.020   4.669
63602SOL     OW92644   9.465   9.608   8.571
63602SOL    HW192645   9.546   9.575   8.611
63602SOL    HW292646   9.488   9.624   8.479
63603SOL     OW92647  12.656  11.178  11.885
63603SOL    HW192648  12.676  11.089  11.857
63603SOL    HW292649  12.574  11.199  11.841
63604SOL     OW92650   3.025  14.348   1.647
63604SOL    HW192651   2.954  14.362   1.710
63604SOL    HW292652   3.095  14.407   1.677
63605SOL     OW92653   0.998  11.630  11.396
63605SOL    HW192654   0.913  11.627  11.354
63605SOL    HW292655   0.983  11.600  11.486
63606SOL     OW92656   5.153   5.513  10.840
63606SOL    HW192657   5.074   5.512  10.894
63606SOL    HW292658   5.209   5.579  10.882
63607SOL     OW92659   8.577   0.321   1.870
63607SOL    HW192660   8.561   0.229   1.851
63607SOL    HW292661   8.494   0.365   1.852
63608SOL     OW92662   9.168   5.515   8.293
63608SOL    HW192663   9.163   5.429   8.251
63608SOL    HW292664   9.087   5.560   8.266
63609SOL     OW92665   6.057  13.269  11.139
63609SOL    HW192666   6.049  13.203  11.070
63609SOL    HW292667   6.074  13.219  11.219
63610SOL     OW92668   3.758   5.464   2.102
63610SOL    HW192669   3.766   5.538   2.163
63610SOL    HW292670   3.687   5.490   2.043
63611SOL     OW92671  13.450  11.279  14.257
63611SOL    HW192672  13.462  11.273  14.162
63611SOL    HW292673  13.390  11.353  14.269
63612SOL     OW92674   6.212   3.438   4.950
63612SOL    HW192675   6.268   3.490   4.892
63612SOL    HW292676   6.187   3.498   5.020
63613SOL     OW92677   3.870  12.002   8.514
63613SOL    HW192678   3.926  12.049   8.576
63613SOL    HW292679   3.833  12.071   8.458
63614SOL     OW92680   8.970   6.326   3.634
63614SOL    HW192681   8.928   6.399   3.680
63614SOL    HW292682   8.900   6.285   3.584
63615SOL     OW92683   3.371   9.039  10.455
63615SOL    HW192684   3.465   9.052  10.447
63615SOL    HW292685   3.360   8.978  10.527
63616SOL     OW92686   2.766  13.427  11.776
63616SOL    HW192687   2.849  13.380  11.772
63616SOL    HW292688   2.784  13.504  11.830
63617SOL     OW92689  13.571   3.589   4.894
63617SOL    HW192690  13.610   3.647   4.828
63617SOL    HW292691  13.645   3.559   4.947
63618SOL     OW92692  12.504  11.825  12.116
63618SOL    HW192693  12.545  11.889  12.057
63618SOL    HW292694  12.516  11.741  12.072
63619SOL     OW92695  14.817  10.482  13.345
63619SOL    HW192696  14.796  10.502  13.437
63619SOL    HW292697  14.800  10.564  13.299
63620SOL     OW92698  13.883   2.299   0.216
63620SOL    HW192699  13.885   2.368   0.151
63620SOL    HW292700  13.968   2.256   0.208
63621SOL     OW92701   4.815   3.297   7.403
63621SOL    HW192702   4.866   3.376   7.418
63621SOL    HW292703   4.848   3.234   7.468
63622SOL     OW92704   1.771   6.007   7.655
63622SOL    HW192705   1.851   5.993   7.705
63622SOL    HW292706   1.766   5.932   7.596
63623SOL     OW92707   0.268   6.520   3.157
63623SOL    HW192708   0.245   6.456   3.090
63623SOL    HW292709   0.203   6.508   3.226
63624SOL     OW92710   0.689  14.647  14.774
63624SOL    HW192711   0.614  14.697  14.807
63624SOL    HW292712   0.686  14.566  14.825
63625SOL     OW92713  10.475  12.079   4.649
63625SOL    HW192714  10.475  12.013   4.581
63625SOL    HW292715  10.548  12.055   4.707
63626SOL     OW92716   5.540  13.334  14.399
63626SOL    HW192717   5.531  13.341  14.304
63626SOL    HW292718   5.469  13.277  14.426
63627SOL     OW92719  14.096  14.350  14.031
63627SOL    HW192720  14.026  14.358  13.966
63627SOL    HW292721  14.074  14.415  14.098
63628SOL     OW92722   2.292  14.004  13.150
63628SOL    HW192723   2.197  14.005  13.151
63628SOL    HW292724   2.315  13.937  13.086
63629SOL     OW92725   8.791  13.274  13.835
63629SOL    HW192726   8.766  13.326  13.759
63629SOL    HW292727   8.734  13.304  13.905
63630SOL     OW92728   9.675   2.901   7.739
63630SOL    HW192729   9.728   2.980   7.738
63630SOL    HW292730   9.738   2.829   7.745
63631SOL     OW92731   6.248  13.822  10.577
63631SOL    HW192732   6.279  13.834  10.487
63631SOL    HW292733   6.176  13.759  10.570
63632SOL     OW92734   7.016   6.196   2.549
63632SOL    HW192735   7.061   6.280   2.553
63632SOL    HW292736   6.927   6.217   2.521
63633SOL     OW92737  13.849   5.303   5.674
63633SOL    HW192738  13.916   5.263   5.730
63633SOL    HW292739  13.870   5.396   5.675
63634SOL     OW92740   9.284   5.409   5.980
63634SOL    HW192741   9.320   5.324   5.956
63634SOL    HW292742   9.231   5.392   6.058
63635SOL     OW92743   0.046   9.464  14.629
63635SOL    HW192744   0.110   9.462  14.558
63635SOL    HW292745   0.061   9.383  14.678
63636SOL     OW92746   4.627  12.449   1.844
63636SOL    HW192747   4.578  12.513   1.895
63636SOL    HW292748   4.630  12.371   1.900
63637SOL     OW92749  13.460  14.048  14.169
63637SOL    HW192750  13.471  13.953  14.170
63637SOL    HW292751  13.532  14.080  14.115
63638SOL     OW92752   3.871  14.278   0.380
63638SOL    HW192753   3.904  14.359   0.420
63638SOL    HW292754   3.822  14.236   0.450
63639SOL     OW92755  14.753   7.421   8.541
63639SOL    HW192756  14.777   7.378   8.624
63639SOL    HW292757  14.705   7.354   8.492
63640SOL     OW92758   3.193  10.852  12.072
63640SOL    HW192759   3.211  10.945  12.090
63640SOL    HW292760   3.262  10.825  12.011
63641SOL     OW92761   4.252   7.909  10.771
63641SOL    HW192762   4.315   7.954  10.828
63641SOL    HW292763   4.188   7.872  10.831
63642SOL     OW92764  12.669  11.153   0.835
63642SOL    HW192765  12.717  11.115   0.761
63642SOL    HW292766  12.603  11.088   0.858
63643SOL     OW92767  12.362  13.984  12.835
63643SOL    HW192768  12.382  14.027  12.918
63643SOL    HW292769  12.403  13.898  12.842
63644SOL     OW92770  13.771   1.720  11.703
63644SOL    HW192771  13.832   1.654  11.669
63644SOL    HW292772  13.751   1.775  11.627
63645SOL     OW92773   3.995   6.239   8.671
63645SOL    HW192774   4.078   6.192   8.681
63645SOL    HW292775   3.930   6.170   8.660
63646SOL     OW92776   0.989  12.753   6.601
63646SOL    HW192777   1.059  12.729   6.662
63646SOL    HW292778   0.931  12.809   6.653
63647SOL     OW92779  13.554  12.970   1.368
63647SOL    HW192780  13.503  12.971   1.287
63647SOL    HW292781  13.517  12.897   1.418
63648SOL     OW92782   9.980  11.383  13.760
63648SOL    HW192783   9.985  11.463  13.812
63648SOL    HW292784  10.021  11.316  13.814
63649SOL     OW92785   3.295   2.264  13.166
63649SOL    HW192786   3.289   2.360  13.163
63649SOL    HW292787   3.366   2.243  13.105
63650SOL     OW92788   6.783   8.809   8.105
63650SOL    HW192789   6.724   8.747   8.148
63650SOL    HW292790   6.846   8.834   8.173
63651SOL     OW92791   0.675  12.996   8.813
63651SOL    HW192792   0.590  13.017   8.774
63651SOL    HW292793   0.731  13.071   8.791
63652SOL     OW92794   6.330  12.796   1.534
63652SOL    HW192795   6.267  12.726   1.519
63652SOL    HW292796   6.397  12.756   1.589
63653SOL     OW92797   5.274  13.111   0.233
63653SOL    HW192798   5.288  13.047   0.303
63653SOL    HW292799   5.351  13.167   0.236
63654SOL     OW92800  10.978   6.809  12.872
63654SOL    HW192801  11.015   6.897  12.867
63654SOL    HW292802  10.996   6.780  12.962
63655SOL     OW92803   6.289   2.094   4.687
63655SOL    HW192804   6.311   2.180   4.653
63655SOL    HW292805   6.212   2.067   4.637
63656SOL     OW92806   3.981  11.651   3.511
63656SOL    HW192807   3.988  11.746   3.522
63656SOL    HW292808   4.020  11.615   3.590
63657SOL     OW92809  11.849  13.226   8.155
63657SOL    HW192810  11.796  13.173   8.214
63657SOL    HW292811  11.785  13.268   8.097
63658SOL     OW92812   5.590   7.006   2.840
63658SOL    HW192813   5.527   7.001   2.912
63658SOL    HW292814   5.645   6.928   2.850
63659SOL     OW92815   2.823   8.909   2.274
63659SOL    HW192816   2.770   8.846   2.323
63659SOL    HW292817   2.912   8.897   2.307
63660SOL     OW92818   0.554   1.841  10.902
63660SOL    HW192819   0.569   1.749  10.922
63660SOL    HW292820   0.488   1.869  10.965
63661SOL     OW92821   4.473   5.304   7.137
63661SOL    HW192822   4.377   5.300   7.143
63661SOL    HW292823   4.491   5.389   7.098
63662SOL     OW92824   4.740  13.418   4.391
63662SOL    HW192825   4.799  13.353   4.429
63662SOL    HW292826   4.759  13.416   4.297
63663SOL     OW92827  10.025   8.383   1.141
63663SOL    HW192828   9.969   8.404   1.067
63663SOL    HW292829  10.010   8.453   1.204
63664SOL     OW92830   5.320  14.632  11.348
63664SOL    HW192831   5.290  14.666  11.432
63664SOL    HW292832   5.305  14.538  11.353
63665SOL     OW92833  12.179   1.210   2.243
63665SOL    HW192834  12.094   1.247   2.216
63665SOL    HW292835  12.233   1.287   2.261
63666SOL     OW92836  12.069  13.033  11.018
63666SOL    HW192837  12.005  12.980  10.970
63666SOL    HW292838  12.147  12.978  11.022
63667SOL     OW92839   9.431   1.390   4.013
63667SOL    HW192840   9.402   1.475   4.044
63667SOL    HW292841   9.525   1.387   4.035
63668SOL     OW92842   4.149   5.586   8.042
63668SOL    HW192843   4.093   5.518   8.007
63668SOL    HW292844   4.183   5.549   8.124
63669SOL     OW92845   2.125   3.471  11.570
63669SOL    HW192846   2.049   3.528  11.561
63669SOL    HW292847   2.141   3.466  11.664
63670SOL     OW92848   8.255  13.587  12.426
63670SOL    HW192849   8.249  13.513  12.366
63670SOL    HW292850   8.169  13.629  12.421
63671SOL     OW92851  13.504  11.026   0.838
63671SOL    HW192852  13.557  11.069   0.771
63671SOL    HW292853  13.539  11.058   0.921
63672SOL     OW92854   5.084   2.912  14.650
63672SOL    HW192855   5.137   2.982  14.689
63672SOL    HW292856   5.146   2.859  14.602
63673SOL     OW92857   0.824  10.405   6.416
63673SOL    HW192858   0.782  10.372   6.337
63673SOL    HW292859   0.789  10.351   6.487
63674SOL     OW92860   2.593   7.867   3.237
63674SOL    HW192861   2.667   7.809   3.254
63674SOL    HW292862   2.572   7.853   3.145
63675SOL     OW92863  14.529   1.525   5.994
63675SOL    HW192864  14.566   1.503   5.908
63675SOL    HW292865  14.576   1.469   6.056
63676SOL     OW92866   0.457  13.120   5.175
63676SOL    HW192867   0.443  13.105   5.082
63676SOL    HW292868   0.429  13.211   5.189
63677SOL     OW92869  10.152  14.320   7.813
63677SOL    HW192870  10.096  14.246   7.833
63677SOL    HW292871  10.143  14.333   7.719
63678SOL     OW92872  13.403   6.391   2.367
63678SOL    HW192873  13.409   6.347   2.282
63678SOL    HW292874  13.494   6.407   2.392
63679SOL     OW92875   7.142   6.794  10.422
63679SOL    HW192876   7.192   6.859  10.471
63679SOL    HW292877   7.092   6.846  10.358
63680SOL     OW92878   5.974   4.874  10.563
63680SOL    HW192879   5.934   4.890  10.648
63680SOL    HW292880   6.001   4.782  10.565
63681SOL     OW92881   6.568   9.855   7.734
63681SOL    HW192882   6.548   9.938   7.690
63681SOL    HW292883   6.664   9.853   7.738
63682SOL     OW92884   7.614   1.900   2.346
63682SOL    HW192885   7.546   1.959   2.312
63682SOL    HW292886   7.641   1.849   2.270
63683SOL     OW92887   5.792   7.252   0.920
63683SOL    HW192888   5.823   7.255   0.829
63683SOL    HW292889   5.720   7.315   0.923
63684SOL     OW92890   2.108   7.826   6.770
63684SOL    HW192891   2.049   7.752   6.759
63684SOL    HW292892   2.195   7.787   6.776
63685SOL     OW92893  14.819   2.897   2.812
63685SOL    HW192894  14.803   2.907   2.906
63685SOL    HW292895  14.740   2.854   2.778
63686SOL     OW92896   4.214   7.636   9.270
63686SOL    HW192897   4.204   7.561   9.329
63686SOL    HW292898   4.274   7.606   9.202
63687SOL     OW92899   7.757   9.270  10.165
63687SOL    HW192900   7.699   9.235  10.232
63687SOL    HW292901   7.732   9.224  10.085
63688SOL     OW92902  13.277   8.456  10.072
63688SOL    HW192903  13.295   8.548  10.094
63688SOL    HW292904  13.193   8.438  10.114
63689SOL     OW92905  13.200  13.891   0.824
63689SOL    HW192906  13.140  13.957   0.859
63689SOL    HW292907  13.203  13.910   0.730
63690SOL     OW92908   4.883   9.559   3.748
63690SOL    HW192909   4.875   9.625   3.680
63690SOL    HW292910   4.849   9.602   3.827
63691SOL     OW92911   3.786   3.090  14.202
63691SOL    HW192912   3.768   3.066  14.293
63691SOL    HW292913   3.882   3.094  14.197
63692SOL     OW92914   3.311  10.219   7.886
63692SOL    HW192915   3.251  10.263   7.826
63692SOL    HW292916   3.318  10.279   7.961
63693SOL     OW92917   5.297   6.161   5.462
63693SOL    HW192918   5.240   6.149   5.538
63693SOL    HW292919   5.294   6.255   5.444
63694SOL     OW92920  12.163   1.374   6.760
63694SOL    HW192921  12.104   1.330   6.700
63694SOL    HW292922  12.199   1.447   6.710
63695SOL     OW92923  14.464   8.579  12.688
63695SOL    HW192924  14.404   8.601  12.760
63695SOL    HW292925  14.442   8.488  12.666
63696SOL     OW92926   2.551   2.033  10.035
63696SOL    HW192927   2.609   1.977   9.985
63696SOL    HW292928   2.553   2.117   9.988
63697SOL     OW92929  10.321   5.184   4.239
63697SOL    HW192930  10.396   5.226   4.280
63697SOL    HW292931  10.256   5.254   4.231
63698SOL     OW92932   7.972  11.635   8.390
63698SOL    HW192933   7.961  11.664   8.481
63698SOL    HW292934   7.985  11.716   8.341
63699SOL     OW92935   3.643   4.724  14.662
63699SOL    HW192936   3.702   4.798  14.668
63699SOL    HW292937   3.609   4.713  14.751
63700SOL     OW92938   8.195  13.253   3.303
63700SOL    HW192939   8.268  13.238   3.243
63700SOL    HW292940   8.175  13.166   3.338
63701SOL     OW92941   2.647   2.440   7.415
63701SOL    HW192942   2.681   2.515   7.366
63701SOL    HW292943   2.706   2.432   7.490
63702SOL     OW92944  10.860  10.498   1.840
63702SOL    HW192945  10.908  10.426   1.799
63702SOL    HW292946  10.768  10.472   1.837
63703SOL     OW92947   1.241   2.541   2.739
63703SOL    HW192948   1.211   2.456   2.770
63703SOL    HW292949   1.299   2.572   2.808
63704SOL     OW92950   7.444  11.860   2.536
63704SOL    HW192951   7.366  11.874   2.590
63704SOL    HW292952   7.412  11.812   2.459
63705SOL     OW92953  11.846   1.695   1.192
63705SOL    HW192954  11.776   1.758   1.174
63705SOL    HW292955  11.847   1.638   1.115
63706SOL     OW92956  14.303  13.931  10.835
63706SOL    HW192957  14.388  13.912  10.796
63706SOL    HW292958  14.320  13.937  10.929
63707SOL     OW92959   0.413   3.949   1.957
63707SOL    HW192960   0.332   3.928   2.003
63707SOL    HW292961   0.396   3.926   1.866
63708SOL     OW92962  13.376   9.158   3.483
63708SOL    HW192963  13.360   9.251   3.494
63708SOL    HW292964  13.436   9.136   3.555
63709SOL     OW92965   0.092  13.787  10.231
63709SOL    HW192966   0.157  13.825  10.290
63709SOL    HW292967   0.110  13.827  10.146
63710SOL     OW92968  11.533   3.539  13.858
63710SOL    HW192969  11.582   3.459  13.838
63710SOL    HW292970  11.531   3.542  13.954
63711SOL     OW92971  14.419   0.728   8.243
63711SOL    HW192972  14.355   0.663   8.274
63711SOL    HW292973  14.391   0.748   8.154
63712SOL     OW92974   8.077   0.459   1.172
63712SOL    HW192975   8.123   0.531   1.128
63712SOL    HW292976   7.995   0.449   1.123
63713SOL     OW92977  13.982   4.167   5.616
63713SOL    HW192978  14.067   4.155   5.658
63713SOL    HW292979  13.919   4.150   5.686
63714SOL     OW92980   6.246   5.887   1.191
63714SOL    HW192981   6.213   5.799   1.212
63714SOL    HW292982   6.331   5.891   1.235
63715SOL     OW92983   3.925   2.305   7.314
63715SOL    HW192984   3.923   2.400   7.326
63715SOL    HW292985   4.010   2.289   7.271
63716SOL     OW92986  12.560   0.310   7.652
63716SOL    HW192987  12.643   0.353   7.672
63716SOL    HW292988  12.576   0.217   7.668
63717SOL     OW92989  13.833   3.549   5.072
63717SOL    HW192990  13.889   3.625   5.055
63717SOL    HW292991  13.806   3.560   5.163
63718SOL     OW92992  11.349  13.480  11.719
63718SOL    HW192993  11.420  13.506  11.660
63718SOL    HW292994  11.339  13.386  11.704
63719SOL     OW92995   5.780  12.112   0.334
63719SOL    HW192996   5.761  12.018   0.340
63719SOL    HW292997   5.875  12.116   0.324
63720SOL     OW92998   9.517  12.618   3.616
63720SOL    HW192999   9.510  12.547   3.680
63720SOL    HW293000   9.582  12.678   3.654
63721SOL     OW93001  14.269  14.696   1.782
63721SOL    HW193002  14.265  14.611   1.739
63721SOL    HW293003  14.182  14.734   1.767
63722SOL     OW93004  10.802   1.671  11.111
63722SOL    HW193005  10.842   1.611  11.173
63722SOL    HW293006  10.876   1.708  11.062
63723SOL     OW93007   3.862  13.026   8.746
63723SOL    HW193008   3.806  12.954   8.775
63723SOL    HW293009   3.887  13.002   8.657
63724SOL     OW93010   4.536   8.166   3.531
63724SOL    HW193011   4.503   8.230   3.593
63724SOL    HW293012   4.467   8.159   3.465
63725SOL     OW93013   7.644   0.118   5.183
63725SOL    HW193014   7.628   0.190   5.122
63725SOL    HW293015   7.600   0.146   5.264
63726SOL     OW93016   8.388   2.771   6.938
63726SOL    HW193017   8.469   2.777   6.989
63726SOL    HW293018   8.391   2.848   6.880
63727SOL     OW93019  10.145  14.027   7.856
63727SOL    HW193020  10.175  14.027   7.947
63727SOL    HW293021  10.155  13.937   7.827
63728SOL     OW93022  11.064   2.753   6.187
63728SOL    HW193023  11.038   2.706   6.266
63728SOL    HW293024  11.159   2.764   6.195
63729SOL     OW93025   4.860   7.285   6.599
63729SOL    HW193026   4.855   7.273   6.693
63729SOL    HW293027   4.783   7.338   6.577
63730SOL     OW93028  10.012   2.058   2.636
63730SOL    HW193029   9.952   2.121   2.675
63730SOL    HW293030  10.043   2.006   2.710
63731SOL     OW93031  10.716   1.824   9.230
63731SOL    HW193032  10.663   1.869   9.296
63731SOL    HW293033  10.670   1.741   9.217
63732SOL     OW93034   2.813   8.166   5.750
63732SOL    HW193035   2.721   8.186   5.765
63732SOL    HW293036   2.845   8.135   5.835
63733SOL     OW93037  14.857  12.420   4.571
63733SOL    HW193038  14.782  12.370   4.603
63733SOL    HW293039  14.849  12.419   4.476
63734SOL     OW93040  14.508  14.162  14.485
63734SOL    HW193041  14.465  14.094  14.538
63734SOL    HW293042  14.541  14.225  14.549
63735SOL     OW93043  14.658   6.554   0.222
63735SOL    HW193044  14.682   6.547   0.129
63735SOL    HW293045  14.670   6.466   0.257
63736SOL     OW93046   3.632   4.863   1.698
63736SOL    HW193047   3.631   4.955   1.672
63736SOL    HW293048   3.719   4.850   1.736
63737SOL     OW93049   1.193   6.551  12.084
63737SOL    HW193050   1.282   6.552  12.120
63737SOL    HW293051   1.162   6.462  12.099
63738SOL     OW93052   3.895   5.151   2.757
63738SOL    HW193053   3.913   5.243   2.775
63738SOL    HW293054   3.910   5.107   2.841
63739SOL     OW93055  14.714   3.126   7.048
63739SOL    HW193056  14.642   3.183   7.077
63739SOL    HW293057  14.741   3.079   7.128
63740SOL     OW93058   3.372   9.039   4.284
63740SOL    HW193059   3.358   9.076   4.197
63740SOL    HW293060   3.451   9.082   4.316
63741SOL     OW93061   7.604   1.244   9.770
63741SOL    HW193062   7.697   1.224   9.765
63741SOL    HW293063   7.599   1.319   9.830
63742SOL     OW93064   5.396   3.618   9.743
63742SOL    HW193065   5.351   3.630   9.827
63742SOL    HW293066   5.447   3.698   9.731
63743SOL     OW93067  11.606   4.435  10.057
63743SOL    HW193068  11.648   4.521  10.050
63743SOL    HW293069  11.585   4.426  10.150
63744SOL     OW93070   3.689   2.871   3.498
63744SOL    HW193071   3.683   2.913   3.412
63744SOL    HW293072   3.614   2.812   3.501
63745SOL     OW93073   6.669   0.275   5.390
63745SOL    HW193074   6.599   0.213   5.405
63745SOL    HW293075   6.749   0.226   5.408
63746SOL     OW93076   6.459   2.116  14.784
63746SOL    HW193077   6.541   2.103  14.738
63746SOL    HW293078   6.395   2.133  14.714
63747SOL     OW93079   8.737  11.264   5.064
63747SOL    HW193080   8.688  11.213   5.129
63747SOL    HW293081   8.821  11.217   5.056
63748SOL     OW93082   9.149  11.229  10.092
63748SOL    HW193083   9.159  11.296  10.159
63748SOL    HW293084   9.238  11.214  10.059
63749SOL     OW93085  10.789   3.790  12.802
63749SOL    HW193086  10.793   3.696  12.817
63749SOL    HW293087  10.758   3.826  12.886
63750SOL     OW93088   5.907  13.298   6.276
63750SOL    HW193089   5.812  13.298   6.270
63750SOL    HW293090   5.926  13.307   6.370
63751SOL     OW93091   3.431   5.769   4.611
63751SOL    HW193092   3.347   5.808   4.587
63751SOL    HW293093   3.486   5.781   4.534
63752SOL     OW93094   5.501  11.563   7.876
63752SOL    HW193095   5.583  11.610   7.861
63752SOL    HW293096   5.517  11.475   7.844
63753SOL     OW93097  13.147  14.355  11.084
63753SOL    HW193098  13.176  14.337  10.995
63753SOL    HW293099  13.170  14.447  11.099
63754SOL     OW93100  11.741   7.733   1.547
63754SOL    HW193101  11.770   7.725   1.638
63754SOL    HW293102  11.657   7.777   1.553
63755SOL     OW93103   0.706   6.143   0.192
63755SOL    HW193104   0.719   6.072   0.129
63755SOL    HW293105   0.722   6.102   0.277
63756SOL     OW93106  12.100   1.898   3.778
63756SOL    HW193107  12.107   1.866   3.688
63756SOL    HW293108  12.113   1.993   3.771
63757SOL     OW93109  13.505   8.445   9.818
63757SOL    HW193110  13.438   8.440   9.751
63757SOL    HW293111  13.483   8.375   9.880
63758SOL     OW93112   7.068   3.999   5.666
63758SOL    HW193113   7.066   4.019   5.572
63758SOL    HW293114   6.989   4.040   5.701
63759SOL     OW93115  14.341   8.955   4.588
63759SOL    HW193116  14.279   8.938   4.659
63759SOL    HW293117  14.398   8.878   4.589
63760SOL     OW93118   2.534  10.462   3.963
63760SOL    HW193119   2.590  10.396   4.004
63760SOL    HW293120   2.496  10.418   3.887
63761SOL     OW93121   9.188   4.481  10.296
63761SOL    HW193122   9.201   4.405  10.238
63761SOL    HW293123   9.094   4.497  10.293
63762SOL     OW93124  13.116   4.198  12.166
63762SOL    HW193125  13.159   4.255  12.230
63762SOL    HW293126  13.157   4.113  12.178
63763SOL     OW93127   0.779  12.963   2.457
63763SOL    HW193128   0.781  13.009   2.373
63763SOL    HW293129   0.861  12.989   2.500
63764SOL     OW93130   6.333   3.414  12.934
63764SOL    HW193131   6.371   3.341  12.982
63764SOL    HW293132   6.300   3.473  13.002
63765SOL     OW93133  12.430   0.316   2.622
63765SOL    HW193134  12.354   0.303   2.679
63765SOL    HW293135  12.502   0.275   2.670
63766SOL     OW93136   2.624   9.771  12.626
63766SOL    HW193137   2.582   9.848  12.587
63766SOL    HW293138   2.717   9.786  12.615
63767SOL     OW93139   1.753   8.853   9.708
63767SOL    HW193140   1.657   8.849   9.704
63767SOL    HW293141   1.774   8.944   9.690
63768SOL     OW93142   0.866   4.880   6.800
63768SOL    HW193143   0.850   4.866   6.894
63768SOL    HW293144   0.959   4.900   6.794
63769SOL     OW93145   5.381  12.668  12.562
63769SOL    HW193146   5.394  12.678  12.468
63769SOL    HW293147   5.309  12.727  12.583
63770SOL     OW93148   2.479   9.712   9.322
63770SOL    HW193149   2.530   9.790   9.342
63770SOL    HW293150   2.409   9.743   9.264
63771SOL     OW93151   3.545   9.593   1.961
63771SOL    HW193152   3.546   9.671   1.904
63771SOL    HW293153   3.542   9.519   1.900
63772SOL     OW93154   1.540   4.529   4.709
63772SOL    HW193155   1.542   4.567   4.621
63772SOL    HW293156   1.471   4.578   4.754
63773SOL     OW93157   3.847   9.844  10.836
63773SOL    HW193158   3.758   9.864  10.808
63773SOL    HW293159   3.872   9.918  10.892
63774SOL     OW93160   8.299   5.162  13.258
63774SOL    HW193161   8.286   5.102  13.184
63774SOL    HW293162   8.391   5.188  13.252
63775SOL     OW93163  10.222  12.273   3.637
63775SOL    HW193164  10.226  12.346   3.698
63775SOL    HW293165  10.164  12.304   3.567
63776SOL     OW93166  14.273   0.757   6.234
63776SOL    HW193167  14.353   0.711   6.212
63776SOL    HW293168  14.302   0.832   6.286
63777SOL     OW93169  10.881  14.523   2.034
63777SOL    HW193170  10.931  14.538   1.954
63777SOL    HW293171  10.792  14.505   2.004
63778SOL     OW93172   8.592   0.168   3.954
63778SOL    HW193173   8.649   0.143   3.881
63778SOL    HW293174   8.605   0.262   3.963
63779SOL     OW93175  11.581   3.520  12.511
63779SOL    HW193176  11.542   3.505  12.597
63779SOL    HW293177  11.597   3.433  12.476
63780SOL     OW93178   3.749   3.314   2.334
63780SOL    HW193179   3.674   3.320   2.275
63780SOL    HW293180   3.710   3.294   2.420
63781SOL     OW93181   9.724   4.755  11.838
63781SOL    HW193182   9.815   4.730  11.854
63781SOL    HW293183   9.702   4.812  11.911
63782SOL     OW93184   9.178   2.071  11.460
63782SOL    HW193185   9.087   2.072  11.429
63782SOL    HW293186   9.230   2.086  11.381
63783SOL     OW93187   5.481   9.598  11.716
63783SOL    HW193188   5.452   9.547  11.641
63783SOL    HW293189   5.409   9.592  11.779
63784SOL     OW93190   0.842   9.582   6.872
63784SOL    HW193191   0.913   9.643   6.893
63784SOL    HW293192   0.793   9.625   6.802
63785SOL     OW93193   3.143   9.938   6.047
63785SOL    HW193194   3.199   9.916   5.973
63785SOL    HW293195   3.153  10.033   6.057
63786SOL     OW93196   0.270   7.074  11.442
63786SOL    HW193197   0.238   7.000  11.494
63786SOL    HW293198   0.198   7.095  11.382
63787SOL     OW93199  10.905  14.094   7.221
63787SOL    HW193200  10.850  14.078   7.298
63787SOL    HW293201  10.992  14.110   7.257
63788SOL     OW93202  11.375  10.455   4.234
63788SOL    HW193203  11.287  10.481   4.208
63788SOL    HW293204  11.429  10.471   4.157
63789SOL     OW93205   3.847   2.281   7.702
63789SOL    HW193206   3.790   2.325   7.637
63789SOL    HW293207   3.854   2.344   7.774
63790SOL     OW93208   5.761   3.285   3.366
63790SOL    HW193209   5.716   3.207   3.333
63790SOL    HW293210   5.770   3.270   3.460
63791SOL     OW93211   9.396   7.671  12.826
63791SOL    HW193212   9.370   7.638  12.740
63791SOL    HW293213   9.313   7.692  12.870
63792SOL     OW93214   6.110   2.618   9.205
63792SOL    HW193215   6.041   2.581   9.150
63792SOL    HW293216   6.065   2.680   9.263
63793SOL     OW93217   8.248   3.831  13.441
63793SOL    HW193218   8.158   3.817  13.412
63793SOL    HW293219   8.273   3.914  13.399
63794SOL     OW93220   2.687   4.217   7.020
63794SOL    HW193221   2.665   4.285   6.956
63794SOL    HW293222   2.747   4.260   7.081
63795SOL     OW93223   4.397   3.388   8.121
63795SOL    HW193224   4.446   3.448   8.065
63795SOL    HW293225   4.334   3.443   8.167
63796SOL     OW93226  10.063  11.830   1.348
63796SOL    HW193227  10.006  11.884   1.293
63796SOL    HW293228  10.009  11.753   1.370
63797SOL     OW93229  13.601   4.159   7.203
63797SOL    HW193230  13.560   4.167   7.117
63797SOL    HW293231  13.527   4.153   7.264
63798SOL     OW93232   9.334   2.279   4.936
63798SOL    HW193233   9.344   2.300   5.029
63798SOL    HW293234   9.260   2.332   4.907
63799SOL     OW93235   1.931   7.313   4.676
63799SOL    HW193236   1.976   7.237   4.641
63799SOL    HW293237   1.843   7.282   4.697
63800SOL     OW93238   8.879   6.302  10.033
63800SOL    HW193239   8.801   6.250  10.013
63800SOL    HW293240   8.949   6.237  10.044
63801SOL     OW93241  12.369   9.655   6.319
63801SOL    HW193242  12.339   9.579   6.369
63801SOL    HW293243  12.329   9.645   6.233
63802SOL     OW93244   5.146   8.562  14.395
63802SOL    HW193245   5.136   8.470  14.374
63802SOL    HW293246   5.150   8.565  14.490
63803SOL     OW93247  14.724  11.236  14.616
63803SOL    HW193248  14.814  11.260  14.596
63803SOL    HW293249  14.729  11.149  14.655
63804SOL     OW93250   1.314   8.255   7.623
63804SOL    HW193251   1.344   8.260   7.532
63804SOL    HW293252   1.354   8.175   7.657
63805SOL     OW93253  12.993   8.185  13.781
63805SOL    HW193254  13.033   8.139  13.855
63805SOL    HW293255  13.050   8.261  13.767
63806SOL     OW93256   1.448  11.004   8.601
63806SOL    HW193257   1.529  11.048   8.626
63806SOL    HW293258   1.384  11.032   8.666
63807SOL     OW93259   9.424  12.848   6.581
63807SOL    HW193260   9.472  12.931   6.581
63807SOL    HW293261   9.474  12.791   6.639
63808SOL     OW93262   5.719  12.169  12.434
63808SOL    HW193263   5.788  12.103  12.430
63808SOL    HW293264   5.641  12.121  12.460
63809SOL     OW93265   3.269   1.531  10.344
63809SOL    HW193266   3.348   1.560  10.390
63809SOL    HW293267   3.270   1.579  10.262
63810SOL     OW93268   1.821   3.158   4.582
63810SOL    HW193269   1.738   3.164   4.536
63810SOL    HW293270   1.826   3.238   4.634
63811SOL     OW93271  13.702  13.040   7.642
63811SOL    HW193272  13.735  12.966   7.693
63811SOL    HW293273  13.720  13.017   7.551
63812SOL     OW93274   8.379   3.910   4.375
63812SOL    HW193275   8.285   3.928   4.382
63812SOL    HW293276   8.419   3.967   4.440
63813SOL     OW93277   2.940  13.991   2.870
63813SOL    HW193278   2.874  13.980   2.802
63813SOL    HW293279   3.006  14.047   2.830
63814SOL     OW93280   9.468   1.947   2.324
63814SOL    HW193281   9.506   1.859   2.316
63814SOL    HW293282   9.540   2.002   2.353
63815SOL     OW93283   7.737   4.154  11.436
63815SOL    HW193284   7.724   4.143  11.342
63815SOL    HW293285   7.669   4.216  11.463
63816SOL     OW93286   5.732  13.997  10.306
63816SOL    HW193287   5.811  13.977  10.356
63816SOL    HW293288   5.738  14.090  10.286
63817SOL     OW93289  11.127  10.248   7.930
63817SOL    HW193290  11.200  10.186   7.936
63817SOL    HW293291  11.167  10.329   7.898
63818SOL     OW93292   5.567   3.790  11.120
63818SOL    HW193293   5.544   3.849  11.192
63818SOL    HW293294   5.494   3.796  11.059
63819SOL     OW93295   4.104  10.903  10.696
63819SOL    HW193296   4.062  10.981  10.660
63819SOL    HW293297   4.136  10.856  10.618
63820SOL     OW93298   4.604   4.005  12.640
63820SOL    HW193299   4.679   3.964  12.683
63820SOL    HW293300   4.638   4.087  12.606
63821SOL     OW93301   3.462   4.434   5.375
63821SOL    HW193302   3.553   4.459   5.356
63821SOL    HW293303   3.470   4.356   5.431
63822SOL     OW93304  14.079   5.213   7.783
63822SOL    HW193305  14.172   5.235   7.789
63822SOL    HW293306  14.069   5.169   7.699
63823SOL     OW93307   8.581   2.516   6.543
63823SOL    HW193308   8.668   2.507   6.582
63823SOL    HW293309   8.549   2.600   6.576
63824SOL     OW93310   3.521   9.087   6.815
63824SOL    HW193311   3.608   9.051   6.836
63824SOL    HW293312   3.534   9.181   6.812
63825SOL     OW93313   7.475   7.325  11.772
63825SOL    HW193314   7.386   7.296  11.752
63825SOL    HW293315   7.531   7.257  11.735
63826SOL     OW93316  11.611  11.595   0.028
63826SOL    HW193317  11.536  11.570   0.081
63826SOL    HW293318  11.581  11.668  14.849
63827SOL     OW93319   9.135   6.920  10.913
63827SOL    HW193320   9.185   7.002  10.916
63827SOL    HW293321   9.089   6.923  10.829
63828SOL     OW93322   0.322  11.457   5.604
63828SOL    HW193323   0.326  11.492   5.515
63828SOL    HW293324   0.413  11.446   5.631
63829SOL     OW93325  12.562   8.079  13.323
63829SOL    HW193326  12.598   8.152  13.372
63829SOL    HW293327  12.616   8.074  13.244
63830SOL     OW93328  14.567   1.969   3.184
63830SOL    HW193329  14.526   1.893   3.227
63830SOL    HW293330  14.506   1.992   3.114
63831SOL     OW93331   4.473  13.614   2.147
63831SOL    HW193332   4.395  13.653   2.185
63831SOL    HW293333   4.473  13.644   2.056
63832SOL     OW93334   5.303   2.564  10.096
63832SOL    HW193335   5.372   2.585  10.034
63832SOL    HW293336   5.336   2.595  10.180
63833SOL     OW93337   4.866  14.465  14.669
63833SOL    HW193338   4.796  14.461  14.605
63833SOL    HW293339   4.925  14.534  14.638
63834SOL     OW93340  14.688   0.336   7.972
63834SOL    HW193341  14.689   0.241   7.987
63834SOL    HW293342  14.758   0.351   7.909
63835SOL     OW93343   7.484   0.665  13.873
63835SOL    HW193344   7.407   0.648  13.819
63835SOL    HW293345   7.455   0.730  13.937
63836SOL     OW93346  14.841   3.792  13.771
63836SOL    HW193347  14.800   3.708  13.748
63836SOL    HW293348  14.807   3.813  13.857
63837SOL     OW93349   1.308   3.494   3.880
63837SOL    HW193350   1.244   3.428   3.907
63837SOL    HW293351   1.334   3.536   3.962
63838SOL     OW93352   7.102  11.392   2.712
63838SOL    HW193353   7.040  11.442   2.764
63838SOL    HW293354   7.056  11.311   2.691
63839SOL     OW93355   2.884   9.895   2.440
63839SOL    HW193356   2.896   9.978   2.486
63839SOL    HW293357   2.905   9.828   2.505
63840SOL     OW93358   0.034   9.832   9.686
63840SOL    HW193359   0.012   9.925   9.691
63840SOL    HW293360   0.091   9.817   9.761
63841SOL     OW93361   2.604  12.244  13.208
63841SOL    HW193362   2.620  12.202  13.292
63841SOL    HW293363   2.532  12.305  13.225
63842SOL     OW93364   3.015  13.053   4.259
63842SOL    HW193365   3.015  13.087   4.169
63842SOL    HW293366   3.034  12.960   4.250
63843SOL     OW93367   0.027   3.553  12.535
63843SOL    HW193368   0.047   3.478  12.591
63843SOL    HW293369  14.847   3.610  12.589
63844SOL     OW93370   6.688  14.372  11.113
63844SOL    HW193371   6.604  14.332  11.092
63844SOL    HW293372   6.718  14.409  11.030
63845SOL     OW93373   8.389  13.651   2.172
63845SOL    HW193374   8.378  13.727   2.230
63845SOL    HW293375   8.424  13.688   2.091
63846SOL     OW93376   1.254  13.443  11.650
63846SOL    HW193377   1.159  13.444  11.648
63846SOL    HW293378   1.277  13.425  11.741
63847SOL     OW93379  13.025   3.898   0.204
63847SOL    HW193380  13.013   3.942   0.119
63847SOL    HW293381  13.010   3.806   0.185
63848SOL     OW93382   1.810   7.805   1.039
63848SOL    HW193383   1.816   7.730   0.979
63848SOL    HW293384   1.721   7.838   1.028
63849SOL     OW93385  13.666   1.660  12.872
63849SOL    HW193386  13.757   1.684  12.851
63849SOL    HW293387  13.633   1.620  12.792
63850SOL     OW93388   9.274   2.031   7.708
63850SOL    HW193389   9.264   1.952   7.760
63850SOL    HW293390   9.317   2.002   7.627
63851SOL     OW93391  12.527  14.212   9.219
63851SOL    HW193392  12.562  14.124   9.204
63851SOL    HW293393  12.554  14.262   9.141
63852SOL     OW93394  10.204   3.729  10.919
63852SOL    HW193395  10.162   3.748  11.003
63852SOL    HW293396  10.272   3.665  10.939
63853SOL     OW93397   8.032  10.942   9.541
63853SOL    HW193398   7.968  10.877   9.510
63853SOL    HW293399   7.978  11.015   9.573
63854SOL     OW93400   3.267  14.093   7.380
63854SOL    HW193401   3.202  14.145   7.333
63854SOL    HW293402   3.350  14.113   7.337
63855SOL     OW93403   0.296  10.123   6.723
63855SOL    HW193404   0.354  10.168   6.661
63855SOL    HW293405   0.328  10.032   6.724
63856SOL     OW93406   3.628  12.809  11.231
63856SOL    HW193407   3.640  12.739  11.295
63856SOL    HW293408   3.694  12.790  11.163
63857SOL     OW93409   6.002  12.374  13.947
63857SOL    HW193410   6.036  12.344  13.863
63857SOL    HW293411   5.948  12.450  13.925
63858SOL     OW93412  11.000   7.389  11.176
63858SOL    HW193413  10.972   7.318  11.233
63858SOL    HW293414  10.998   7.467  11.232
63859SOL     OW93415  14.283  14.578   4.535
63859SOL    HW193416  14.236  14.495   4.541
63859SOL    HW293417  14.230  14.631   4.475
63860SOL     OW93418  12.166  13.885  12.331
63860SOL    HW193419  12.079  13.867  12.295
63860SOL    HW293420  12.162  13.977  12.358
63861SOL     OW93421   2.569   5.163  11.658
63861SOL    HW193422   2.619   5.086  11.684
63861SOL    HW293423   2.480   5.145  11.689
63862SOL     OW93424   4.440   0.113   3.938
63862SOL    HW193425   4.424   0.060   4.015
63862SOL    HW293426   4.448   0.050   3.866
63863SOL     OW93427   8.106   8.497   1.144
63863SOL    HW193428   8.100   8.590   1.124
63863SOL    HW293429   8.053   8.454   1.076
63864SOL     OW93430   5.318   8.414   7.010
63864SOL    HW193431   5.278   8.414   6.923
63864SOL    HW293432   5.260   8.467   7.064
63865SOL     OW93433  11.252   8.575  13.062
63865SOL    HW193434  11.179   8.635  13.048
63865SOL    HW293435  11.210   8.494  13.092
63866SOL     OW93436   1.561  13.713  13.486
63866SOL    HW193437   1.496  13.783  13.474
63866SOL    HW293438   1.606  13.708  13.402
63867SOL     OW93439   1.231   1.352   6.619
63867SOL    HW193440   1.308   1.303   6.648
63867SOL    HW293441   1.201   1.399   6.697
63868SOL     OW93442   4.904  13.908   9.147
63868SOL    HW193443   4.960  13.960   9.089
63868SOL    HW293444   4.926  13.817   9.125
63869SOL     OW93445   7.003  13.255   1.093
63869SOL    HW193446   6.917  13.240   1.133
63869SOL    HW293447   6.988  13.324   1.029
63870SOL     OW93448   7.502   9.688   9.512
63870SOL    HW193449   7.550   9.628   9.569
63870SOL    HW293450   7.487   9.638   9.432
63871SOL     OW93451  12.822  11.691   7.456
63871SOL    HW193452  12.782  11.610   7.425
63871SOL    HW293453  12.819  11.685   7.552
63872SOL     OW93454  11.758  13.550  10.136
63872SOL    HW193455  11.758  13.556  10.041
63872SOL    HW293456  11.849  13.533  10.160
63873SOL     OW93457   8.047   4.268   1.821
63873SOL    HW193458   8.033   4.188   1.771
63873SOL    HW293459   8.140   4.266   1.845
63874SOL     OW93460  12.718   4.584  11.207
63874SOL    HW193461  12.676   4.651  11.262
63874SOL    HW293462  12.683   4.600  11.119
63875SOL     OW93463   5.444   4.995   9.676
63875SOL    HW193464   5.361   4.987   9.628
63875SOL    HW293465   5.433   4.937   9.752
63876SOL     OW93466   0.637   7.692  10.492
63876SOL    HW193467   0.542   7.690  10.483
63876SOL    HW293468   0.657   7.778  10.527
63877SOL     OW93469   1.409   7.589  10.633
63877SOL    HW193470   1.401   7.539  10.552
63877SOL    HW293471   1.471   7.539  10.686
63878SOL     OW93472   8.808  12.433   8.879
63878SOL    HW193473   8.737  12.455   8.819
63878SOL    HW293474   8.876  12.396   8.822
63879SOL     OW93475   3.655   6.722   2.783
63879SOL    HW193476   3.569   6.759   2.803
63879SOL    HW293477   3.638   6.628   2.773
63880SOL     OW93478   1.978   5.840   8.601
63880SOL    HW193479   2.000   5.931   8.622
63880SOL    HW293480   1.882   5.839   8.597
63881SOL     OW93481   1.551  13.340   0.163
63881SOL    HW193482   1.600  13.349   0.082
63881SOL    HW293483   1.547  13.429   0.199
63882SOL     OW93484  11.846   4.080   2.267
63882SOL    HW193485  11.928   4.077   2.315
63882SOL    HW293486  11.850   4.003   2.210
63883SOL     OW93487  13.496   1.573   6.630
63883SOL    HW193488  13.563   1.558   6.564
63883SOL    HW293489  13.418   1.529   6.596
63884SOL     OW93490  11.455  12.921  11.943
63884SOL    HW193491  11.392  12.855  11.913
63884SOL    HW293492  11.508  12.941  11.866
63885SOL     OW93493   3.881  14.247   4.132
63885SOL    HW193494   3.963  14.216   4.093
63885SOL    HW293495   3.880  14.341   4.113
63886SOL     OW93496   9.824   1.370  11.582
63886SOL    HW193497   9.826   1.435  11.512
63886SOL    HW293498   9.822   1.286  11.537
63887SOL     OW93499  13.367   8.150   3.228
63887SOL    HW193500  13.282   8.160   3.272
63887SOL    HW293501  13.414   8.231   3.247
63888SOL     OW93502  12.155  10.599  13.932
63888SOL    HW193503  12.083  10.619  13.992
63888SOL    HW293504  12.233  10.636  13.974
63889SOL     OW93505   5.046   2.878  12.942
63889SOL    HW193506   4.951   2.875  12.947
63889SOL    HW293507   5.069   2.968  12.965
63890SOL     OW93508  11.468   7.777   5.371
63890SOL    HW193509  11.487   7.856   5.421
63890SOL    HW293510  11.417   7.722   5.431
63891SOL     OW93511   5.738   4.299  12.836
63891SOL    HW193512   5.816   4.282  12.888
63891SOL    HW293513   5.698   4.213  12.822
63892SOL     OW93514   4.759   5.900  12.474
63892SOL    HW193515   4.698   5.941  12.535
63892SOL    HW293516   4.844   5.906  12.519
63893SOL     OW93517   8.808   2.472   3.211
63893SOL    HW193518   8.740   2.538   3.226
63893SOL    HW293519   8.856   2.469   3.295
63894SOL     OW93520   9.885  11.765  14.167
63894SOL    HW193521   9.827  11.841  14.160
63894SOL    HW293522   9.965  11.791  14.122
63895SOL     OW93523   0.110  12.191   6.459
63895SOL    HW193524   0.026  12.151   6.478
63895SOL    HW293525   0.105  12.278   6.497
63896SOL     OW93526  14.865   7.285   2.965
63896SOL    HW193527   0.020   7.364   2.921
63896SOL    HW293528  14.773   7.275   2.940
63897SOL     OW93529   7.984   2.651   0.982
63897SOL    HW193530   8.040   2.727   0.998
63897SOL    HW293531   8.001   2.593   1.057
63898SOL     OW93532   6.194   0.857   8.595
63898SOL    HW193533   6.104   0.826   8.587
63898SOL    HW293534   6.203   0.921   8.524
63899SOL     OW93535  10.604   9.656   0.176
63899SOL    HW193536  10.614   9.575   0.128
63899SOL    HW293537  10.515   9.686   0.156
63900SOL     OW93538   1.943   2.983   8.782
63900SOL    HW193539   2.012   3.008   8.721
63900SOL    HW293540   1.927   3.061   8.835
63901SOL     OW93541   4.402  11.398   0.102
63901SOL    HW193542   4.422  11.306   0.119
63901SOL    HW293543   4.332  11.396   0.037
63902SOL     OW93544  13.202   5.391   3.718
63902SOL    HW193545  13.244   5.309   3.745
63902SOL    HW293546  13.184   5.436   3.800
63903SOL     OW93547  10.165   6.647   5.484
63903SOL    HW193548  10.110   6.707   5.536
63903SOL    HW293549  10.191   6.699   5.408
63904SOL     OW93550   9.727  14.733   6.082
63904SOL    HW193551   9.638  14.767   6.073
63904SOL    HW293552   9.765  14.740   5.994
63905SOL     OW93553   7.978   9.591  13.328
63905SOL    HW193554   7.886   9.579  13.303
63905SOL    HW293555   8.000   9.678  13.295
63906SOL     OW93556   4.834  11.459   7.181
63906SOL    HW193557   4.744  11.439   7.154
63906SOL    HW293558   4.833  11.449   7.277
63907SOL     OW93559   6.452  11.421   4.024
63907SOL    HW193560   6.427  11.437   3.933
63907SOL    HW293561   6.437  11.328   4.037
63908SOL     OW93562   5.525  13.356  14.738
63908SOL    HW193563   5.486  13.280  14.782
63908SOL    HW293564   5.465  13.376  14.666
63909SOL     OW93565  14.123  12.533  12.309
63909SOL    HW193566  14.080  12.496  12.386
63909SOL    HW293567  14.127  12.460  12.247
63910SOL     OW93568  13.984   1.189  14.453
63910SOL    HW193569  13.954   1.278  14.437
63910SOL    HW293570  14.047   1.171  14.383
63911SOL     OW93571   8.712   1.199   1.130
63911SOL    HW193572   8.654   1.154   1.069
63911SOL    HW293573   8.798   1.197   1.088
63912SOL     OW93574   1.609   5.225   1.671
63912SOL    HW193575   1.597   5.272   1.588
63912SOL    HW293576   1.576   5.285   1.737
63913SOL     OW93577   3.161   4.530   8.511
63913SOL    HW193578   3.167   4.452   8.455
63913SOL    HW293579   3.236   4.583   8.485
63914SOL     OW93580   7.806   1.379   8.038
63914SOL    HW193581   7.873   1.312   8.050
63914SOL    HW293582   7.831   1.450   8.098
63915SOL     OW93583   6.031   0.080   6.015
63915SOL    HW193584   6.022   0.175   6.026
63915SOL    HW293585   5.943   0.046   6.027
63916SOL     OW93586   7.793   6.573   8.599
63916SOL    HW193587   7.869   6.588   8.542
63916SOL    HW293588   7.830   6.564   8.687
63917SOL     OW93589   8.174   5.061   9.728
63917SOL    HW193590   8.205   4.996   9.791
63917SOL    HW293591   8.213   5.143   9.757
63918SOL     OW93592   8.371   6.975  11.486
63918SOL    HW193593   8.370   7.065  11.455
63918SOL    HW293594   8.296   6.933  11.444
63919SOL     OW93595   6.778   1.430   8.100
63919SOL    HW193596   6.818   1.504   8.055
63919SOL    HW293597   6.804   1.440   8.191
63920SOL     OW93598   3.920  11.030   8.497
63920SOL    HW193599   3.963  10.974   8.432
63920SOL    HW293600   3.858  10.972   8.542
63921SOL     OW93601  14.436  12.238   7.933
63921SOL    HW193602  14.501  12.264   7.867
63921SOL    HW293603  14.419  12.319   7.982
63922SOL     OW93604  11.842  13.843   4.423
63922SOL    HW193605  11.754  13.807   4.425
63922SOL    HW293606  11.878  13.825   4.510
63923SOL     OW93607   9.067   1.524   5.664
63923SOL    HW193608   9.141   1.474   5.630
63923SOL    HW293609   8.993   1.464   5.659
63924SOL     OW93610   3.771  13.869  14.869
63924SOL    HW193611   3.811  13.862   0.082
63924SOL    HW293612   3.820  13.939  14.826
63925SOL     OW93613   3.374  12.211  14.864
63925SOL    HW193614   3.373  12.282  14.800
63925SOL    HW293615   3.467  12.192   0.004
63926SOL     OW93616  13.696  12.885  12.720
63926SOL    HW193617  13.650  12.952  12.770
63926SOL    HW293618  13.673  12.903  12.629
63927SOL     OW93619  13.073   2.600   5.007
63927SOL    HW193620  13.091   2.694   5.013
63927SOL    HW293621  13.020   2.591   4.927
63928SOL     OW93622  14.410   2.974  10.421
63928SOL    HW193623  14.357   3.037  10.470
63928SOL    HW293624  14.398   2.999  10.329
63929SOL     OW93625   5.838   9.173  10.812
63929SOL    HW193626   5.762   9.120  10.789
63929SOL    HW293627   5.890   9.117  10.869
63930SOL     OW93628   7.256  14.572   8.060
63930SOL    HW193629   7.194  14.505   8.090
63930SOL    HW293630   7.268  14.629   8.136
63931SOL     OW93631  12.508   6.638   2.231
63931SOL    HW193632  12.562   6.634   2.152
63931SOL    HW293633  12.549   6.707   2.284
63932SOL     OW93634  13.206   1.344   6.984
63932SOL    HW193635  13.212   1.325   6.890
63932SOL    HW293636  13.140   1.412   6.991
63933SOL     OW93637  14.391   6.974   5.812
63933SOL    HW193638  14.471   7.025   5.826
63933SOL    HW293639  14.331   7.003   5.881
63934SOL     OW93640   5.658   5.496  11.674
63934SOL    HW193641   5.737   5.460  11.634
63934SOL    HW293642   5.586   5.445  11.637
63935SOL     OW93643   8.693   2.901   7.619
63935SOL    HW193644   8.722   2.986   7.586
63935SOL    HW293645   8.621   2.921   7.677
63936SOL     OW93646   3.941  14.769   3.023
63936SOL    HW193647   3.877  14.820   2.973
63936SOL    HW293648   4.023  14.782   2.976
63937SOL     OW93649  10.333  12.910   8.029
63937SOL    HW193650  10.245  12.872   8.029
63937SOL    HW293651  10.321  12.999   7.996
63938SOL     OW93652   5.631   0.956  13.399
63938SOL    HW193653   5.590   0.899  13.465
63938SOL    HW293654   5.586   1.040  13.409
63939SOL     OW93655   9.497  13.258   4.925
63939SOL    HW193656   9.410  13.248   4.885
63939SOL    HW293657   9.482  13.241   5.018
63940SOL     OW93658  12.741  13.546   2.376
63940SOL    HW193659  12.770  13.635   2.358
63940SOL    HW293660  12.788  13.492   2.313
63941SOL     OW93661   0.956   2.633   0.891
63941SOL    HW193662   0.987   2.614   0.980
63941SOL    HW293663   0.892   2.703   0.903
63942SOL     OW93664   9.125   0.634   3.488
63942SOL    HW193665   9.149   0.543   3.472
63942SOL    HW293666   9.031   0.632   3.505
63943SOL     OW93667  11.328  14.133   7.115
63943SOL    HW193668  11.324  14.227   7.100
63943SOL    HW293669  11.355  14.124   7.206
63944SOL     OW93670   0.311  13.499  11.553
63944SOL    HW193671   0.379  13.550  11.597
63944SOL    HW293672   0.230  13.527  11.595
63945SOL     OW93673  11.755   6.580  13.412
63945SOL    HW193674  11.728   6.636  13.485
63945SOL    HW293675  11.679   6.578  13.355
63946SOL     OW93676   7.035  11.709   8.277
63946SOL    HW193677   7.093  11.683   8.349
63946SOL    HW293678   6.954  11.661   8.294
63947SOL     OW93679   7.718   5.064   0.032
63947SOL    HW193680   7.720   5.122  14.831
63947SOL    HW293681   7.639   5.012   0.021
63948SOL     OW93682   0.725   4.185   5.579
63948SOL    HW193683   0.706   4.106   5.529
63948SOL    HW293684   0.728   4.156   5.670
63949SOL     OW93685  12.006  10.543   3.329
63949SOL    HW193686  12.045  10.469   3.377
63949SOL    HW293687  12.080  10.599   3.308
63950SOL     OW93688   5.238  12.501   9.904
63950SOL    HW193689   5.217  12.417   9.865
63950SOL    HW293690   5.245  12.483   9.998
63951SOL     OW93691   7.649   1.875  10.268
63951SOL    HW193692   7.568   1.847  10.226
63951SOL    HW293693   7.661   1.966  10.240
63952SOL     OW93694   8.108  10.220   5.885
63952SOL    HW193695   8.101  10.217   5.790
63952SOL    HW293696   8.114  10.128   5.911
63953SOL     OW93697   3.456   8.833   8.768
63953SOL    HW193698   3.463   8.864   8.677
63953SOL    HW293699   3.391   8.763   8.765
63954SOL     OW93700  11.438   4.866   6.854
63954SOL    HW193701  11.460   4.829   6.940
63954SOL    HW293702  11.349   4.836   6.838
63955SOL     OW93703   0.146  13.295  12.023
63955SOL    HW193704   0.230  13.269  12.060
63955SOL    HW293705   0.151  13.390  12.015
63956SOL     OW93706  12.294   4.463   6.551
63956SOL    HW193707  12.230   4.513   6.500
63956SOL    HW293708  12.244   4.390   6.587
63957SOL     OW93709   9.569   0.867   6.039
63957SOL    HW193710   9.652   0.900   6.005
63957SOL    HW293711   9.595   0.812   6.114
63958SOL     OW93712   4.147   0.896  12.756
63958SOL    HW193713   4.154   0.986  12.724
63958SOL    HW293714   4.056   0.889  12.786
63959SOL     OW93715   1.431   5.093  12.198
63959SOL    HW193716   1.342   5.127  12.208
63959SOL    HW293717   1.421   4.998  12.203
63960SOL     OW93718   0.115  14.388   8.203
63960SOL    HW193719   0.186  14.433   8.248
63960SOL    HW293720   0.129  14.407   8.110
63961SOL     OW93721   8.059   2.758   7.794
63961SOL    HW193722   8.000   2.721   7.859
63961SOL    HW293723   8.024   2.846   7.777
63962SOL     OW93724   7.912  11.173   2.938
63962SOL    HW193725   7.862  11.250   2.965
63962SOL    HW293726   7.947  11.137   3.019
63963SOL     OW93727   9.160  11.293   8.750
63963SOL    HW193728   9.095  11.224   8.763
63963SOL    HW293729   9.150  11.350   8.826
63964SOL     OW93730   8.552   0.100   7.039
63964SOL    HW193731   8.590   0.044   7.106
63964SOL    HW293732   8.585   0.065   6.956
63965SOL     OW93733  10.671  14.681  12.739
63965SOL    HW193734  10.578  14.658  12.738
63965SOL    HW293735  10.712  14.613  12.793
63966SOL     OW93736   2.449  14.080   0.170
63966SOL    HW193737   2.452  14.165   0.214
63966SOL    HW293738   2.358  14.070   0.143
63967SOL     OW93739   1.215   2.081   4.445
63967SOL    HW193740   1.242   1.991   4.428
63967SOL    HW293741   1.120   2.076   4.456
63968SOL     OW93742   7.598   6.713  11.574
63968SOL    HW193743   7.562   6.625  11.574
63968SOL    HW293744   7.560   6.755  11.496
63969SOL     OW93745  10.251   5.071  13.284
63969SOL    HW193746  10.243   5.145  13.224
63969SOL    HW293747  10.164   5.031  13.284
63970SOL     OW93748   6.380  14.421   8.629
63970SOL    HW193749   6.308  14.479   8.606
63970SOL    HW293750   6.409  14.384   8.546
63971SOL     OW93751  10.566   5.229  13.509
63971SOL    HW193752  10.512   5.151  13.499
63971SOL    HW293753  10.656   5.195  13.517
63972SOL     OW93754   5.061   9.433   6.120
63972SOL    HW193755   5.065   9.458   6.027
63972SOL    HW293756   5.127   9.486   6.163
63973SOL     OW93757   8.695   0.762   4.284
63973SOL    HW193758   8.759   0.719   4.341
63973SOL    HW293759   8.650   0.824   4.342
63974SOL     OW93760  14.498   4.271  13.265
63974SOL    HW193761  14.532   4.340  13.322
63974SOL    HW293762  14.451   4.212  13.323
63975SOL     OW93763  11.145  14.453   4.211
63975SOL    HW193764  11.208  14.402   4.262
63975SOL    HW293765  11.127  14.531   4.265
63976SOL     OW93766  11.236   0.991  14.868
63976SOL    HW193767  11.155   1.014  14.823
63976SOL    HW293768  11.296   1.063  14.848
63977SOL     OW93769   8.466  10.564  12.316
63977SOL    HW193770   8.411  10.562  12.395
63977SOL    HW293771   8.450  10.479  12.274
63978SOL     OW93772   8.125   6.537   9.767
63978SOL    HW193773   8.073   6.457   9.767
63978SOL    HW293774   8.096   6.585   9.690
63979SOL     OW93775   0.364  12.992   1.158
63979SOL    HW193776   0.303  13.014   1.229
63979SOL    HW293777   0.448  13.026   1.187
63980SOL     OW93778  11.926   3.791   6.586
63980SOL    HW193779  11.971   3.706   6.589
63980SOL    HW293780  11.837   3.770   6.559
63981SOL     OW93781  13.767  11.583   4.926
63981SOL    HW193782  13.679  11.588   4.963
63981SOL    HW293783  13.777  11.491   4.902
63982SOL     OW93784   4.016   7.032  11.391
63982SOL    HW193785   4.043   7.108  11.339
63982SOL    HW293786   4.087   7.019  11.454
63983SOL     OW93787   3.981  13.661   2.578
63983SOL    HW193788   3.976  13.620   2.664
63983SOL    HW293789   4.020  13.747   2.594
63984SOL     OW93790   2.989   7.321   8.710
63984SOL    HW193791   3.018   7.230   8.708
63984SOL    HW293792   2.926   7.329   8.638
63985SOL     OW93793   0.089   7.418  10.528
63985SOL    HW193794   0.154   7.480  10.562
63985SOL    HW293795   0.116   7.333  10.563
63986SOL     OW93796   6.527  10.597  12.872
63986SOL    HW193797   6.549  10.526  12.932
63986SOL    HW293798   6.469  10.557  12.807
63987SOL     OW93799   7.426  13.803  13.322
63987SOL    HW193800   7.443  13.870  13.389
63987SOL    HW293801   7.443  13.720  13.367
63988SOL     OW93802   9.909   2.991   5.633
63988SOL    HW193803   9.939   2.928   5.567
63988SOL    HW293804   9.989   3.025   5.673
63989SOL     OW93805  13.355  14.858   2.275
63989SOL    HW193806  13.371   0.050   2.343
63989SOL    HW293807  13.261  14.861   2.260
63990SOL     OW93808   2.388   8.031  11.902
63990SOL    HW193809   2.452   7.990  11.843
63990SOL    HW293810   2.316   8.057  11.844
63991SOL     OW93811   2.158   3.575  14.644
63991SOL    HW193812   2.250   3.592  14.662
63991SOL    HW293813   2.157   3.537  14.556
63992SOL     OW93814  11.704   7.186   8.921
63992SOL    HW193815  11.798   7.196   8.901
63992SOL    HW293816  11.691   7.092   8.931
63993SOL     OW93817  12.982  11.438   9.548
63993SOL    HW193818  13.073  11.468   9.549
63993SOL    HW293819  12.984  11.359   9.494
63994SOL     OW93820   1.375   2.955  14.051
63994SOL    HW193821   1.317   2.931  14.123
63994SOL    HW293822   1.316   2.994  13.985
63995SOL     OW93823   0.327   5.537  10.462
63995SOL    HW193824   0.294   5.543  10.373
63995SOL    HW293825   0.411   5.583  10.459
63996SOL     OW93826  13.720   6.759   9.833
63996SOL    HW193827  13.757   6.816   9.765
63996SOL    HW293828  13.674   6.819   9.892
63997SOL     OW93829  12.075  12.249   6.710
63997SOL    HW193830  12.097  12.173   6.657
63997SOL    HW293831  11.982  12.265   6.693
63998SOL     OW93832   8.507  10.543   7.225
63998SOL    HW193833   8.532  10.625   7.267
63998SOL    HW293834   8.586  10.490   7.224
63999SOL     OW93835   4.431  13.607  11.688
63999SOL    HW193836   4.464  13.688  11.726
63999SOL    HW293837   4.436  13.544  11.760
64000SOL     OW93838  12.443   8.369   3.243
64000SOL    HW193839  12.470   8.371   3.335
64000SOL    HW293840  12.364   8.423   3.241
64001SOL     OW93841   5.532   7.937   3.957
64001SOL    HW193842   5.515   8.027   3.986
64001SOL    HW293843   5.613   7.943   3.907
64002SOL     OW93844  13.986   7.370   9.828
64002SOL    HW193845  14.028   7.455   9.845
64002SOL    HW293846  14.057   7.315   9.795
64003SOL     OW93847   8.658   7.261   3.048
64003SOL    HW193848   8.621   7.204   2.980
64003SOL    HW293849   8.595   7.333   3.056
64004SOL     OW93850   1.785   5.088  11.255
64004SOL    HW193851   1.751   5.177  11.241
64004SOL    HW293852   1.710   5.040  11.291
64005SOL     OW93853  14.169  10.969   9.431
64005SOL    HW193854  14.174  10.970   9.527
64005SOL    HW293855  14.242  11.024   9.402
64006SOL     OW93856   3.458  12.659   1.644
64006SOL    HW193857   3.445  12.753   1.627
64006SOL    HW293858   3.408  12.642   1.723
64007SOL     OW93859   9.543  12.447  14.361
64007SOL    HW193860   9.483  12.407  14.424
64007SOL    HW293861   9.586  12.372  14.319
64008SOL     OW93862   6.791   5.930   5.321
64008SOL    HW193863   6.729   5.981   5.269
64008SOL    HW293864   6.871   5.982   5.321
64009SOL     OW93865  12.204   7.175   3.937
64009SOL    HW193866  12.241   7.216   4.016
64009SOL    HW293867  12.279   7.133   3.895
64010SOL     OW93868   0.990   9.064  12.122
64010SOL    HW193869   1.068   9.098  12.080
64010SOL    HW293870   0.933   9.037  12.050
64011SOL     OW93871  10.717   2.578   9.621
64011SOL    HW193872  10.762   2.584   9.537
64011SOL    HW293873  10.710   2.669   9.652
64012SOL     OW93874  14.633   7.853  13.729
64012SOL    HW193875  14.704   7.879  13.671
64012SOL    HW293876  14.620   7.760  13.713
64013SOL     OW93877   3.797   8.934   1.449
64013SOL    HW193878   3.758   8.892   1.525
64013SOL    HW293879   3.862   8.994   1.485
64014SOL     OW93880   3.089   8.501   5.276
64014SOL    HW193881   3.023   8.474   5.211
64014SOL    HW293882   3.064   8.591   5.297
64015SOL     OW93883   6.363   3.502   6.958
64015SOL    HW193884   6.293   3.568   6.958
64015SOL    HW293885   6.441   3.551   6.931
64016SOL     OW93886   7.504  14.068  10.655
64016SOL    HW193887   7.441  14.136  10.682
64016SOL    HW293888   7.474  14.042  10.568
64017SOL     OW93889  14.600  12.307   7.730
64017SOL    HW193890  14.585  12.261   7.647
64017SOL    HW293891  14.681  12.270   7.763
64018SOL     OW93892   9.439   7.937  13.192
64018SOL    HW193893   9.417   7.998  13.262
64018SOL    HW293894   9.440   7.990  13.112
64019SOL     OW93895  10.642  11.202   5.321
64019SOL    HW193896  10.680  11.122   5.285
64019SOL    HW293897  10.548  11.191   5.311
64020SOL     OW93898   5.340   0.930   4.124
64020SOL    HW193899   5.352   0.995   4.193
64020SOL    HW293900   5.396   0.960   4.052
64021SOL     OW93901  13.285   1.492  14.276
64021SOL    HW193902  13.280   1.475  14.371
64021SOL    HW293903  13.250   1.413  14.236
64022SOL     OW93904   8.242  10.904   0.331
64022SOL    HW193905   8.246  10.903   0.235
64022SOL    HW293906   8.234  10.997   0.353
64023SOL     OW93907   8.966   0.909   2.576
64023SOL    HW193908   9.057   0.898   2.602
64023SOL    HW293909   8.919   0.843   2.627
64024SOL     OW93910   1.178  12.690   2.618
64024SOL    HW193911   1.187  12.638   2.698
64024SOL    HW293912   1.267  12.697   2.584
64025SOL     OW93913   9.093   3.074   6.829
64025SOL    HW193914   9.040   3.153   6.818
64025SOL    HW293915   9.184   3.104   6.819
64026SOL     OW93916   8.084   0.192  11.215
64026SOL    HW193917   8.166   0.145  11.232
64026SOL    HW293918   8.031   0.177  11.293
64027SOL     OW93919  12.820   4.893  11.639
64027SOL    HW193920  12.810   4.797  11.639
64027SOL    HW293921  12.737   4.926  11.606
64028SOL     OW93922   8.323   0.038   0.125
64028SOL    HW193923   8.314  14.822   0.094
64028SOL    HW293924   8.380   0.080   0.062
64029SOL     OW93925   9.900  12.931  14.759
64029SOL    HW193926   9.826  12.940  14.700
64029SOL    HW293927   9.916  12.837  14.764
64030SOL     OW93928   1.920   1.370  14.295
64030SOL    HW193929   1.829   1.354  14.321
64030SOL    HW293930   1.969   1.300  14.338
64031SOL     OW93931  13.662   3.484  14.003
64031SOL    HW193932  13.743   3.536  13.995
64031SOL    HW293933  13.599   3.529  13.946
64032SOL     OW93934   8.560   7.906  10.541
64032SOL    HW193935   8.597   7.864  10.463
64032SOL    HW293936   8.566   8.000  10.524
64033SOL     OW93937   2.996   6.346   3.540
64033SOL    HW193938   2.920   6.379   3.491
64033SOL    HW293939   3.063   6.334   3.473
64034SOL     OW93940   3.114   8.248  14.137
64034SOL    HW193941   3.145   8.180  14.077
64034SOL    HW293942   3.168   8.237  14.216
64035SOL     OW93943   9.691   9.112   2.691
64035SOL    HW193944   9.693   9.064   2.608
64035SOL    HW293945   9.613   9.079   2.736
64036SOL     OW93946   2.746   1.349   4.421
64036SOL    HW193947   2.828   1.308   4.394
64036SOL    HW293948   2.692   1.349   4.342
64037SOL     OW93949  10.578   1.578   7.503
64037SOL    HW193950  10.528   1.516   7.556
64037SOL    HW293951  10.570   1.545   7.414
64038SOL     OW93952   8.411   8.261   5.698
64038SOL    HW193953   8.402   8.190   5.762
64038SOL    HW293954   8.399   8.218   5.613
64039SOL     OW93955  14.623   1.746  14.055
64039SOL    HW193956  14.642   1.653  14.065
64039SOL    HW293957  14.647   1.786  14.138
64040SOL     OW93958  14.645  13.335  12.264
64040SOL    HW193959  14.625  13.358  12.173
64040SOL    HW293960  14.701  13.257  12.256
64041SOL     OW93961  10.150   7.664   5.752
64041SOL    HW193962  10.163   7.590   5.693
64041SOL    HW293963  10.128   7.624   5.836
64042SOL     OW93964   0.712   8.952  13.004
64042SOL    HW193965   0.686   8.860  12.997
64042SOL    HW293966   0.782   8.963  12.940
64043SOL     OW93967   0.263  13.867  10.414
64043SOL    HW193968   0.228  13.945  10.458
64043SOL    HW293969   0.353  13.892  10.391
64044SOL     OW93970  14.142   6.442   8.980
64044SOL    HW193971  14.145   6.356   8.939
64044SOL    HW293972  14.067   6.486   8.940
64045SOL     OW93973  12.315  13.957  14.517
64045SOL    HW193974  12.278  14.024  14.574
64045SOL    HW293975  12.263  13.878  14.535
64046SOL     OW93976   7.304  13.278  10.403
64046SOL    HW193977   7.242  13.349  10.386
64046SOL    HW293978   7.281  13.211  10.339
64047SOL     OW93979   8.727   4.489   9.523
64047SOL    HW193980   8.632   4.493   9.513
64047SOL    HW293981   8.749   4.563   9.579
64048SOL     OW93982   5.114  13.637  13.497
64048SOL    HW193983   5.049  13.653  13.428
64048SOL    HW293984   5.074  13.672  13.576
64049SOL     OW93985   3.212   5.211   6.011
64049SOL    HW193986   3.289   5.214   5.955
64049SOL    HW293987   3.142   5.251   5.959
64050SOL     OW93988   7.954  10.375   7.856
64050SOL    HW193989   7.974  10.336   7.771
64050SOL    HW293990   8.024  10.343   7.913
64051SOL     OW93991   5.777  11.656   0.561
64051SOL    HW193992   5.760  11.561   0.558
64051SOL    HW293993   5.842  11.666   0.630
64052SOL     OW93994   8.996   3.486  12.174
64052SOL    HW193995   8.912   3.527  12.195
64052SOL    HW293996   8.980   3.392  12.182
64053SOL     OW93997  11.401   1.491   5.643
64053SOL    HW193998  11.443   1.478   5.558
64053SOL    HW293999  11.461   1.453   5.706
64054SOL     OW94000  11.459   8.779   9.597
64054SOL    HW194001  11.491   8.717   9.663
64054SOL    HW294002  11.390   8.827   9.641
64055SOL     OW94003   4.133  11.542   1.212
64055SOL    HW194004   4.153  11.529   1.119
64055SOL    HW294005   4.094  11.629   1.216
64056SOL     OW94006  10.905   2.318  13.163
64056SOL    HW194007  10.878   2.287  13.076
64056SOL    HW294008  10.844   2.389  13.183
64057SOL     OW94009   2.082   9.112  11.610
64057SOL    HW194010   2.073   9.177  11.680
64057SOL    HW294011   2.165   9.133  11.568
64058SOL     OW94012   9.483  12.373   6.707
64058SOL    HW194013   9.569  12.416   6.708
64058SOL    HW294014   9.476  12.336   6.619
64059SOL     OW94015   5.142   5.198   5.172
64059SOL    HW194016   5.118   5.121   5.120
64059SOL    HW294017   5.190   5.254   5.111
64060SOL     OW94018  11.820   7.931   7.017
64060SOL    HW194019  11.875   7.854   7.030
64060SOL    HW294020  11.765   7.936   7.095
64061SOL     OW94021  12.920   8.292   5.156
64061SOL    HW194022  12.925   8.224   5.222
64061SOL    HW294023  12.971   8.365   5.192
64062SOL     OW94024  13.834   8.612   9.661
64062SOL    HW194025  13.827   8.518   9.646
64062SOL    HW294026  13.798   8.625   9.749
64063SOL     OW94027   0.651   5.846   9.270
64063SOL    HW194028   0.564   5.840   9.309
64063SOL    HW294029   0.701   5.773   9.307
64064SOL     OW94030   3.242   2.793   3.249
64064SOL    HW194031   3.307   2.857   3.279
64064SOL    HW294032   3.285   2.749   3.176
64065SOL     OW94033  12.070   3.550  10.301
64065SOL    HW194034  12.081   3.462  10.265
64065SOL    HW294035  12.154   3.594  10.283
64066SOL     OW94036   4.599  11.953  14.463
64066SOL    HW194037   4.589  11.971  14.556
64066SOL    HW294038   4.645  11.869  14.459
64067SOL     OW94039   8.196  14.654  13.326
64067SOL    HW194040   8.280  14.640  13.369
64067SOL    HW294041   8.219  14.683  13.237
64068SOL     OW94042  11.189   1.982   2.015
64068SOL    HW194043  11.252   1.974   2.086
64068SOL    HW294044  11.158   2.073   2.020
64069SOL     OW94045  12.946   3.864   2.251
64069SOL    HW194046  12.970   3.815   2.330
64069SOL    HW294047  12.955   3.956   2.277
64070SOL     OW94048  12.808  14.595   5.728
64070SOL    HW194049  12.783  14.567   5.817
64070SOL    HW294050  12.728  14.632   5.692
64071SOL     OW94051  11.404  14.395   1.918
64071SOL    HW194052  11.453  14.352   1.988
64071SOL    HW294053  11.357  14.325   1.875
64072SOL     OW94054  12.481   9.150   0.013
64072SOL    HW194055  12.482   9.067   0.059
64072SOL    HW294056  12.445   9.212   0.077
64073SOL     OW94057   2.169  14.701   7.441
64073SOL    HW194058   2.079  14.689   7.410
64073SOL    HW294059   2.165  14.780   7.496
64074SOL     OW94060   4.033  11.015  12.972
64074SOL    HW194061   4.126  11.010  12.950
64074SOL    HW294062   3.995  10.937  12.932
64075SOL     OW94063   1.158   1.025   4.783
64075SOL    HW194064   1.231   1.076   4.816
64075SOL    HW294065   1.197   0.965   4.720
64076SOL     OW94066  11.899   1.505   3.828
64076SOL    HW194067  11.874   1.567   3.896
64076SOL    HW294068  11.993   1.492   3.841
64077SOL     OW94069  13.528   1.971   6.760
64077SOL    HW194070  13.568   2.042   6.811
64077SOL    HW294071  13.602   1.923   6.724
64078SOL     OW94072   3.409   9.281  11.151
64078SOL    HW194073   3.483   9.288  11.090
64078SOL    HW294074   3.345   9.343  11.118
64079SOL     OW94075   3.429   4.511   8.183
64079SOL    HW194076   3.382   4.590   8.157
64079SOL    HW294077   3.461   4.529   8.272
64080SOL     OW94078   2.008   1.243  12.621
64080SOL    HW194079   2.093   1.247  12.665
64080SOL    HW294080   1.944   1.253  12.691
64081SOL     OW94081  12.005   8.170  13.710
64081SOL    HW194082  11.989   8.081  13.679
64081SOL    HW294083  12.092   8.192  13.676
64082SOL     OW94084   6.099   3.819  10.279
64082SOL    HW194085   6.023   3.874  10.262
64082SOL    HW294086   6.146   3.864  10.348
64083SOL     OW94087  10.017   3.416   2.934
64083SOL    HW194088   9.979   3.497   2.902
64083SOL    HW294089  10.106   3.416   2.901
64084SOL     OW94090   8.275   7.938  14.666
64084SOL    HW194091   8.302   7.989  14.743
64084SOL    HW294092   8.259   7.850  14.700
64085SOL     OW94093   8.206   5.911   6.638
64085SOL    HW194094   8.257   5.919   6.719
64085SOL    HW294095   8.255   5.963   6.574
64086SOL     OW94096   9.216   1.833  13.420
64086SOL    HW194097   9.194   1.826  13.513
64086SOL    HW294098   9.197   1.925  13.399
64087SOL     OW94099  11.743  11.683   5.847
64087SOL    HW194100  11.701  11.664   5.931
64087SOL    HW294101  11.670  11.689   5.785
64088SOL     OW94102  14.151   2.435  12.144
64088SOL    HW194103  14.233   2.460  12.099
64088SOL    HW294104  14.169   2.349  12.181
64089SOL     OW94105   4.328   2.094   8.982
64089SOL    HW194106   4.284   2.154   9.042
64089SOL    HW294107   4.421   2.102   9.003
64090SOL     OW94108   5.348   1.888  10.049
64090SOL    HW194109   5.360   1.954  10.117
64090SOL    HW294110   5.421   1.902   9.989
64091SOL     OW94111   5.120  11.068   2.941
64091SOL    HW194112   5.166  11.150   2.922
64091SOL    HW294113   5.141  11.049   3.033
64092SOL     OW94114  13.826   0.333   9.024
64092SOL    HW194115  13.831   0.353   8.931
64092SOL    HW294116  13.813   0.418   9.066
64093SOL     OW94117   2.806   6.145  13.837
64093SOL    HW194118   2.805   6.223  13.892
64093SOL    HW294119   2.893   6.147  13.795
64094SOL     OW94120   7.449  14.779   9.580
64094SOL    HW194121   7.399  14.858   9.561
64094SOL    HW294122   7.386  14.708   9.573
64095SOL     OW94123   6.095   0.886   2.765
64095SOL    HW194124   6.144   0.804   2.771
64095SOL    HW294125   6.061   0.901   2.853
64096SOL     OW94126  11.737   8.580   3.587
64096SOL    HW194127  11.755   8.571   3.493
64096SOL    HW294128  11.822   8.569   3.629
64097SOL     OW94129  12.307   8.804  13.851
64097SOL    HW194130  12.295   8.716  13.886
64097SOL    HW294131  12.379   8.795  13.789
64098SOL     OW94132  10.287  11.665   7.727
64098SOL    HW194133  10.276  11.749   7.683
64098SOL    HW294134  10.284  11.686   7.821
64099SOL     OW94135   6.492   3.670  10.031
64099SOL    HW194136   6.411   3.710  10.063
64099SOL    HW294137   6.491   3.581  10.066
64100SOL     OW94138   2.741   8.871   4.107
64100SOL    HW194139   2.732   8.901   4.017
64100SOL    HW294140   2.679   8.798   4.114
64101SOL     OW94141   1.400   9.779   4.401
64101SOL    HW194142   1.352   9.752   4.323
64101SOL    HW294143   1.481   9.728   4.400
64102SOL     OW94144  13.587   8.835   8.906
64102SOL    HW194145  13.527   8.909   8.907
64102SOL    HW294146  13.550   8.775   8.842
64103SOL     OW94147   5.858   4.989  11.248
64103SOL    HW194148   5.945   5.023  11.225
64103SOL    HW294149   5.857   4.990  11.344
64104SOL     OW94150  10.870   1.806  11.564
64104SOL    HW194151  10.916   1.878  11.606
64104SOL    HW294152  10.778   1.835  11.561
64105SOL     OW94153   2.012   0.915  11.389
64105SOL    HW194154   2.025   0.822  11.410
64105SOL    HW294155   2.023   0.960  11.472
64106SOL     OW94156   1.535  14.715  10.970
64106SOL    HW194157   1.493  14.691  10.887
64106SOL    HW294158   1.534  14.810  10.970
64107SOL     OW94159  13.989   8.010  14.116
64107SOL    HW194160  14.037   8.059  14.049
64107SOL    HW294161  13.985   7.921  14.082
64108SOL     OW94162  13.464   9.603   7.941
64108SOL    HW194163  13.396   9.664   7.913
64108SOL    HW294164  13.512   9.582   7.861
64109SOL     OW94165   7.049   4.951   4.794
64109SOL    HW194166   6.998   5.012   4.847
64109SOL    HW294167   6.993   4.874   4.786
64110SOL     OW94168  11.239   2.739   4.497
64110SOL    HW194169  11.303   2.710   4.562
64110SOL    HW294170  11.228   2.832   4.513
64111SOL     OW94171  14.097   5.695  14.830
64111SOL    HW194172  14.144   5.766  14.787
64111SOL    HW294173  14.004   5.713  14.813
64112SOL     OW94174   1.530  10.625  14.152
64112SOL    HW194175   1.518  10.540  14.110
64112SOL    HW294176   1.565  10.604  14.238
64113SOL     OW94177   7.948  12.123  10.749
64113SOL    HW194178   7.884  12.056  10.726
64113SOL    HW294179   7.966  12.168  10.666
64114SOL     OW94180   5.487   0.105  11.942
64114SOL    HW194181   5.563   0.164  11.941
64114SOL    HW294182   5.510   0.036  11.880
64115SOL     OW94183   0.509   1.217   6.020
64115SOL    HW194184   0.427   1.254   6.053
64115SOL    HW294185   0.576   1.281   6.044
64116SOL     OW94186   1.180   4.048  13.648
64116SOL    HW194187   1.218   4.133  13.628
64116SOL    HW294188   1.192   3.997  13.568
64117SOL     OW94189  14.098  12.159   8.035
64117SOL    HW194190  14.117  12.127   7.947
64117SOL    HW294191  14.178  12.143   8.084
64118SOL     OW94192   4.714   1.972  13.973
64118SOL    HW194193   4.696   1.893  14.022
64118SOL    HW294194   4.787   1.948  13.915
64119SOL     OW94195  13.833   9.448  13.241
64119SOL    HW194196  13.830   9.472  13.148
64119SOL    HW294197  13.897   9.376  13.245
64120SOL     OW94198  13.443   9.277   4.002
64120SOL    HW194199  13.385   9.216   3.956
64120SOL    HW294200  13.468   9.230   4.081
64121SOL     OW94201  12.491   8.658   5.874
64121SOL    HW194202  12.422   8.711   5.835
64121SOL    HW294203  12.444   8.598   5.933
64122SOL     OW94204  10.725   6.095   2.189
64122SOL    HW194205  10.738   6.000   2.189
64122SOL    HW294206  10.736   6.121   2.281
64123SOL     OW94207   9.487  12.047   8.771
64123SOL    HW194208   9.572  12.027   8.810
64123SOL    HW294209   9.432  11.971   8.793
64124SOL     OW94210   2.769   1.130   0.485
64124SOL    HW194211   2.674   1.127   0.478
64124SOL    HW294212   2.797   1.191   0.417
64125SOL     OW94213   1.647   7.872  11.070
64125SOL    HW194214   1.730   7.834  11.098
64125SOL    HW294215   1.667   7.917  10.988
64126SOL     OW94216  13.722   0.675   6.295
64126SOL    HW194217  13.803   0.649   6.251
64126SOL    HW294218  13.747   0.752   6.346
64127SOL     OW94219  12.861   0.496   8.112
64127SOL    HW194220  12.870   0.403   8.133
64127SOL    HW294221  12.823   0.535   8.191
64128SOL     OW94222  12.578  10.926  11.396
64128SOL    HW194223  12.611  10.994  11.455
64128SOL    HW294224  12.650  10.910  11.335
64129SOL     OW94225  10.491   7.740   4.892
64129SOL    HW194226  10.446   7.821   4.918
64129SOL    HW294227  10.555   7.770   4.827
64130SOL     OW94228   9.856   6.556   1.844
64130SOL    HW194229   9.950   6.573   1.850
64130SOL    HW294230   9.837   6.501   1.920
64131SOL     OW94231  13.043   7.790   4.003
64131SOL    HW194232  13.137   7.790   3.984
64131SOL    HW294233  13.003   7.814   3.920
64132SOL     OW94234  13.970  14.824  14.076
64132SOL    HW194235  13.912  14.802  14.003
64132SOL    HW294236  14.057  14.801  14.045
64133SOL     OW94237   2.370  10.244  12.727
64133SOL    HW194238   2.298  10.302  12.702
64133SOL    HW294239   2.429  10.300  12.779
64134SOL     OW94240  13.303  10.710   6.177
64134SOL    HW194241  13.241  10.782   6.189
64134SOL    HW294242  13.250  10.631   6.176
64135SOL     OW94243   8.602   2.893  12.357
64135SOL    HW194244   8.534   2.911  12.421
64135SOL    HW294245   8.558   2.842  12.289
64136SOL     OW94246   8.083   4.894  14.259
64136SOL    HW194247   8.111   4.985  14.253
64136SOL    HW294248   7.992   4.895  14.229
64137SOL     OW94249   1.121   2.401   2.470
64137SOL    HW194250   1.048   2.407   2.533
64137SOL    HW294251   1.183   2.467   2.500
64138SOL     OW94252  10.800   0.100   1.393
64138SOL    HW194253  10.707   0.118   1.412
64138SOL    HW294254  10.825   0.168   1.331
64139SOL     OW94255   5.914   1.590   2.562
64139SOL    HW194256   5.934   1.498   2.547
64139SOL    HW294257   5.997   1.629   2.591
64140SOL     OW94258   5.475   1.638  13.825
64140SOL    HW194259   5.410   1.603  13.886
64140SOL    HW294260   5.458   1.592  13.743
64141SOL     OW94261   6.707   0.447   0.239
64141SOL    HW194262   6.662   0.385   0.181
64141SOL    HW294263   6.783   0.399   0.270
64142SOL     OW94264   7.235  11.829   8.804
64142SOL    HW194265   7.312  11.835   8.747
64142SOL    HW294266   7.272  11.805   8.889
64143SOL     OW94267   1.061   9.493   8.590
64143SOL    HW194268   1.110   9.411   8.596
64143SOL    HW294269   1.039   9.514   8.681
64144SOL     OW94270   7.052   2.125  11.718
64144SOL    HW194271   7.070   2.183  11.645
64144SOL    HW294272   7.106   2.159  11.789
64145SOL     OW94273   1.378   0.503   3.051
64145SOL    HW194274   1.445   0.541   3.108
64145SOL    HW294275   1.428   0.449   2.989
64146SOL     OW94276  10.809   0.570   8.747
64146SOL    HW194277  10.715   0.587   8.751
64146SOL    HW294278  10.818   0.476   8.758
64147SOL     OW94279   0.394   0.254   2.092
64147SOL    HW194280   0.417   0.163   2.110
64147SOL    HW294281   0.324   0.248   2.027
64148SOL     OW94282   9.483   6.460  14.764
64148SOL    HW194283   9.411   6.450  14.827
64148SOL    HW294284   9.562   6.458  14.818
64149SOL     OW94285   4.414   0.220   5.176
64149SOL    HW194286   4.449   0.303   5.208
64149SOL    HW294287   4.489   0.174   5.140
64150SOL     OW94288   4.954  13.597  14.075
64150SOL    HW194289   4.937  13.570  13.984
64150SOL    HW294290   5.049  13.594  14.084
64151SOL     OW94291   6.164   0.632   1.278
64151SOL    HW194292   6.256   0.657   1.268
64151SOL    HW294293   6.162   0.577   1.357
64152SOL     OW94294   3.224   0.855   8.479
64152SOL    HW194295   3.245   0.830   8.569
64152SOL    HW294296   3.286   0.806   8.425
64153SOL     OW94297   4.475  10.492  14.858
64153SOL    HW194298   4.512  10.553   0.048
64153SOL    HW294299   4.382  10.515  14.854
64154SOL     OW94300  12.066   8.266   1.986
64154SOL    HW194301  11.991   8.219   2.023
64154SOL    HW294302  12.027   8.325   1.921
64155SOL     OW94303   2.373   4.881   5.505
64155SOL    HW194304   2.427   4.942   5.555
64155SOL    HW294305   2.338   4.933   5.433
64156SOL     OW94306   1.501  11.637  10.064
64156SOL    HW194307   1.565  11.574  10.030
64156SOL    HW294308   1.443  11.585  10.120
64157SOL     OW94309   8.105   7.096   0.357
64157SOL    HW194310   8.094   7.030   0.289
64157SOL    HW294311   8.016   7.120   0.383
64158SOL     OW94312   0.909  11.121   5.637
64158SOL    HW194313   0.936  11.201   5.681
64158SOL    HW294314   0.990  11.083   5.603
64159SOL     OW94315   3.013   1.710   1.011
64159SOL    HW194316   2.952   1.639   1.030
64159SOL    HW294317   3.096   1.683   1.051
64160SOL     OW94318  10.931   5.232  10.411
64160SOL    HW194319  10.974   5.293  10.351
64160SOL    HW294320  10.913   5.155  10.358
64161SOL     OW94321   6.067   3.443   3.408
64161SOL    HW194322   6.160   3.438   3.431
64161SOL    HW294323   6.036   3.353   3.417
64162SOL     OW94324  13.960  10.751   6.073
64162SOL    HW194325  13.916  10.686   6.128
64162SOL    HW294326  13.893  10.779   6.011
64163SOL     OW94327   8.722   0.114   4.500
64163SOL    HW194328   8.695   0.206   4.502
64163SOL    HW294329   8.662   0.070   4.560
64164SOL     OW94330   1.438   8.887   8.381
64164SOL    HW194331   1.355   8.910   8.341
64164SOL    HW294332   1.490   8.850   8.310
64165SOL     OW94333   6.637   7.834   1.326
64165SOL    HW194334   6.685   7.758   1.358
64165SOL    HW294335   6.608   7.811   1.238
64166SOL     OW94336   2.061  12.903  13.291
64166SOL    HW194337   2.032  12.902  13.382
64166SOL    HW294338   1.997  12.847  13.246
64167SOL     OW94339   5.919   3.291   8.146
64167SOL    HW194340   5.856   3.355   8.180
64167SOL    HW294341   5.868   3.212   8.131
64168SOL     OW94342   0.434  13.177  14.795
64168SOL    HW194343   0.392  13.147  14.715
64168SOL    HW294344   0.379  13.140  14.865
64169SOL     OW94345   0.627   3.741  10.522
64169SOL    HW194346   0.533   3.760  10.513
64169SOL    HW294347   0.667   3.779  10.444
64170SOL     OW94348  10.048  12.782  13.040
64170SOL    HW194349   9.993  12.819  13.109
64170SOL    HW294350   9.991  12.775  12.964
64171SOL     OW94351   3.465   0.354   5.665
64171SOL    HW194352   3.406   0.412   5.618
64171SOL    HW294353   3.408   0.303   5.723
64172SOL     OW94354   8.938   9.385   7.076
64172SOL    HW194355   8.850   9.369   7.109
64172SOL    HW294356   8.989   9.309   7.103
64173SOL     OW94357   9.199  10.290   1.657
64173SOL    HW194358   9.154  10.232   1.595
64173SOL    HW294359   9.172  10.258   1.743
64174SOL     OW94360  14.079   4.421   5.142
64174SOL    HW194361  14.159   4.370   5.127
64174SOL    HW294362  14.086   4.449   5.233
64175SOL     OW94363  10.549   6.524   8.342
64175SOL    HW194364  10.578   6.605   8.301
64175SOL    HW294365  10.602   6.518   8.422
64176SOL     OW94366  10.173   6.276  11.840
64176SOL    HW194367  10.156   6.340  11.771
64176SOL    HW294368  10.237   6.216  11.802
64177SOL     OW94369  13.154   5.224   7.207
64177SOL    HW194370  13.230   5.244   7.260
64177SOL    HW294371  13.105   5.159   7.258
64178SOL     OW94372   3.263  14.033   4.952
64178SOL    HW194373   3.343  13.991   4.985
64178SOL    HW294374   3.276  14.126   4.970
64179SOL     OW94375   4.875   2.099   4.604
64179SOL    HW194376   4.868   2.168   4.538
64179SOL    HW294377   4.970   2.085   4.613
64180SOL     OW94378   0.396  14.326   6.151
64180SOL    HW194379   0.388  14.418   6.175
64180SOL    HW294380   0.351  14.279   6.221
64181SOL     OW94381   2.258  10.983   9.743
64181SOL    HW194382   2.230  10.909   9.796
64181SOL    HW294383   2.182  11.006   9.691
64182SOL     OW94384   3.436  11.502   6.016
64182SOL    HW194385   3.489  11.424   6.030
64182SOL    HW294386   3.380  11.507   6.094
64183SOL     OW94387  12.500  13.619   1.912
64183SOL    HW194388  12.459  13.540   1.947
64183SOL    HW294389  12.446  13.644   1.837
64184SOL     OW94390  14.695   7.146  12.366
64184SOL    HW194391  14.702   7.236  12.334
64184SOL    HW294392  14.641   7.102  12.300
64185SOL     OW94393   6.378  11.930   3.116
64185SOL    HW194394   6.353  12.006   3.063
64185SOL    HW294395   6.297  11.902   3.158
64186SOL     OW94396   1.587  11.988  13.201
64186SOL    HW194397   1.654  12.050  13.230
64186SOL    HW294398   1.634  11.923  13.150
64187SOL     OW94399   7.602   4.027   1.508
64187SOL    HW194400   7.642   3.941   1.516
64187SOL    HW294401   7.556   4.040   1.591
64188SOL     OW94402  12.837  10.739   6.186
64188SOL    HW194403  12.795  10.778   6.109
64188SOL    HW294404  12.763  10.709   6.240
64189SOL     OW94405   9.915   2.142  13.771
64189SOL    HW194406   9.876   2.078  13.831
64189SOL    HW294407   9.904   2.226  13.815
64190SOL     OW94408  13.733   8.633   4.673
64190SOL    HW194409  13.651   8.587   4.656
64190SOL    HW294410  13.801   8.572   4.642
64191SOL     OW94411   1.089   8.607   4.419
64191SOL    HW194412   1.160   8.631   4.479
64191SOL    HW294413   1.045   8.534   4.463
64192SOL     OW94414   0.971   7.446  14.095
64192SOL    HW194415   0.929   7.521  14.052
64192SOL    HW294416   1.019   7.485  14.168
64193SOL     OW94417   0.836  12.701   8.045
64193SOL    HW194418   0.758  12.651   8.070
64193SOL    HW294419   0.893  12.636   8.002
64194SOL     OW94420   6.903   4.544   5.264
64194SOL    HW194421   6.811   4.566   5.250
64194SOL    HW294422   6.916   4.462   5.216
64195SOL     OW94423   4.100   0.350  11.720
64195SOL    HW194424   4.156   0.286  11.764
64195SOL    HW294425   4.029   0.298  11.683
64196SOL     OW94426   2.878   4.382   8.326
64196SOL    HW194427   2.972   4.377   8.344
64196SOL    HW294428   2.870   4.354   8.235
64197SOL     OW94429   3.262   8.578   9.626
64197SOL    HW194430   3.347   8.536   9.641
64197SOL    HW294431   3.216   8.567   9.709
64198SOL     OW94432  14.843   9.117  11.508
64198SOL    HW194433  14.862   9.196  11.457
64198SOL    HW294434  14.872   9.045  11.453
64199SOL     OW94435   9.541   5.165  12.432
64199SOL    HW194436   9.630   5.129  12.439
64199SOL    HW294437   9.485   5.099  12.473
64200SOL     OW94438  11.163   3.018  12.824
64200SOL    HW194439  11.093   2.975  12.871
64200SOL    HW294440  11.146   3.112  12.835
64201SOL     OW94441   5.218   7.377   8.116
64201SOL    HW194442   5.125   7.360   8.131
64201SOL    HW294443   5.250   7.298   8.073
64202SOL     OW94444   3.291   6.525   2.453
64202SOL    HW194445   3.270   6.445   2.406
64202SOL    HW294446   3.370   6.558   2.411
64203SOL     OW94447   9.236   5.685  14.695
64203SOL    HW194448   9.290   5.682  14.774
64203SOL    HW294449   9.150   5.654  14.724
64204SOL     OW94450   9.575   7.568   0.593
64204SOL    HW194451   9.666   7.576   0.620
64204SOL    HW294452   9.566   7.626   0.518
64205SOL     OW94453  11.134   8.401   5.170
64205SOL    HW194454  11.185   8.469   5.125
64205SOL    HW294455  11.109   8.340   5.101
64206SOL     OW94456  10.348  10.117  10.936
64206SOL    HW194457  10.268  10.073  10.966
64206SOL    HW294458  10.389  10.148  11.017
64207SOL     OW94459  14.029  10.449  12.785
64207SOL    HW194460  14.031  10.382  12.853
64207SOL    HW294461  13.996  10.527  12.829
64208SOL     OW94462   0.302  11.940   8.089
64208SOL    HW194463   0.273  11.990   8.012
64208SOL    HW294464   0.281  11.997   8.163
64209SOL     OW94465   6.436  12.460   6.613
64209SOL    HW194466   6.464  12.441   6.703
64209SOL    HW294467   6.413  12.553   6.614
64210SOL     OW94468   1.809   4.788   9.274
64210SOL    HW194469   1.775   4.849   9.209
64210SOL    HW294470   1.879   4.837   9.318
64211SOL     OW94471   7.980   5.751   1.743
64211SOL    HW194472   8.070   5.724   1.727
64211SOL    HW294473   7.928   5.673   1.721
64212SOL     OW94474   8.649   0.057   9.224
64212SOL    HW194475   8.739   0.087   9.214
64212SOL    HW294476   8.630   0.011   9.142
64213SOL     OW94477  11.824   5.690   0.057
64213SOL    HW194478  11.820   5.611   0.111
64213SOL    HW294479  11.874   5.663  14.854
64214SOL     OW94480   0.397  11.832  12.187
64214SOL    HW194481   0.368  11.923  12.191
64214SOL    HW294482   0.419  11.809  12.277
64215SOL     OW94483   4.186  10.023   2.806
64215SOL    HW194484   4.260  10.079   2.831
64215SOL    HW294485   4.226   9.952   2.756
64216SOL     OW94486   1.911  10.776   8.337
64216SOL    HW194487   1.831  10.729   8.314
64216SOL    HW294488   1.882  10.864   8.358
64217SOL     OW94489  11.991   4.526   9.716
64217SOL    HW194490  12.001   4.551   9.808
64217SOL    HW294491  11.930   4.592   9.680
64218SOL     OW94492   9.586   9.214   4.930
64218SOL    HW194493   9.615   9.285   4.986
64218SOL    HW294494   9.583   9.252   4.842
64219SOL     OW94495  12.595   8.890  10.749
64219SOL    HW194496  12.579   8.848  10.833
64219SOL    HW294497  12.620   8.818  10.691
64220SOL     OW94498  12.243   4.914   5.497
64220SOL    HW194499  12.304   4.988   5.505
64220SOL    HW294500  12.157   4.955   5.489
64221SOL     OW94501   8.873  14.080   2.372
64221SOL    HW194502   8.786  14.086   2.333
64221SOL    HW294503   8.921  14.154   2.335
64222SOL     OW94504   6.713   0.590   3.379
64222SOL    HW194505   6.797   0.633   3.395
64222SOL    HW294506   6.662   0.607   3.458
64223SOL     OW94507   3.320  14.008   3.827
64223SOL    HW194508   3.248  13.945   3.824
64223SOL    HW294509   3.326  14.042   3.738
64224SOL     OW94510  12.202  14.197   6.850
64224SOL    HW194511  12.122  14.150   6.828
64224SOL    HW294512  12.186  14.287   6.824
64225SOL     OW94513   5.685   5.814   8.211
64225SOL    HW194514   5.712   5.759   8.285
64225SOL    HW294515   5.684   5.903   8.245
64226SOL     OW94516  12.670   5.118  13.228
64226SOL    HW194517  12.718   5.038  13.206
64226SOL    HW294518  12.732   5.169  13.281
64227SOL     OW94519   7.526  10.275  12.541
64227SOL    HW194520   7.445  10.269  12.592
64227SOL    HW294521   7.497  10.275  12.450
64228SOL     OW94522  11.991   2.236   2.168
64228SOL    HW194523  12.003   2.152   2.213
64228SOL    HW294524  11.897   2.253   2.174
64229SOL     OW94525   7.908   9.100  13.145
64229SOL    HW194526   7.836   9.133  13.199
64229SOL    HW294527   7.931   9.017  13.185
64230SOL     OW94528   8.220   6.656   9.994
64230SOL    HW194529   8.194   6.608   9.915
64230SOL    HW294530   8.144   6.649  10.052
64231SOL     OW94531   8.215   1.933   6.711
64231SOL    HW194532   8.181   2.006   6.763
64231SOL    HW294533   8.150   1.863   6.723
64232SOL     OW94534   4.995   0.435   3.993
64232SOL    HW194535   4.908   0.414   3.959
64232SOL    HW294536   5.044   0.353   3.984
64233SOL     OW94537  13.483  12.171   7.554
64233SOL    HW194538  13.473  12.266   7.550
64233SOL    HW294539  13.418  12.137   7.493
64234SOL     OW94540   4.066  10.200   1.360
64234SOL    HW194541   4.137  10.141   1.384
64234SOL    HW294542   3.987  10.154   1.386
64235SOL     OW94543  11.400   5.558   6.861
64235SOL    HW194544  11.358   5.635   6.900
64235SOL    HW294545  11.487   5.590   6.834
64236SOL     OW94546  14.321  11.661  13.655
64236SOL    HW194547  14.302  11.669  13.562
64236SOL    HW294548  14.238  11.632  13.694
64237SOL     OW94549   0.533   1.476   2.861
64237SOL    HW194550   0.589   1.454   2.786
64237SOL    HW294551   0.510   1.568   2.847
64238SOL     OW94552  14.356   3.231  14.613
64238SOL    HW194553  14.286   3.296  14.609
64238SOL    HW294554  14.404   3.253  14.693
64239SOL     OW94555  13.723  13.711   1.710
64239SOL    HW194556  13.717  13.661   1.628
64239SOL    HW294557  13.667  13.788   1.695
64240SOL     OW94558   5.392  11.532   5.691
64240SOL    HW194559   5.468  11.482   5.718
64240SOL    HW294560   5.421  11.581   5.614
64241SOL     OW94561   6.740  13.436   7.450
64241SOL    HW194562   6.675  13.482   7.397
64241SOL    HW294563   6.755  13.493   7.525
64242SOL     OW94564  14.821   9.260   5.452
64242SOL    HW194565   0.039   9.285   5.460
64242SOL    HW294566  14.820   9.166   5.467
64243SOL     OW94567  10.973   1.424  14.773
64243SOL    HW194568  11.064   1.399  14.758
64243SOL    HW294569  10.922   1.350  14.741
64244SOL     OW94570   3.351   7.012  10.860
64244SOL    HW194571   3.401   7.094  10.866
64244SOL    HW294572   3.340   6.985  10.951
64245SOL     OW94573   7.662  13.794   6.107
64245SOL    HW194574   7.705  13.719   6.066
64245SOL    HW294575   7.702  13.870   6.064
64246SOL     OW94576   4.724   3.237   9.253
64246SOL    HW194577   4.631   3.247   9.235
64246SOL    HW294578   4.728   3.189   9.336
64247SOL     OW94579  10.495  14.375  13.201
64247SOL    HW194580  10.409  14.347  13.230
64247SOL    HW294581  10.554  14.307  13.233
64248SOL     OW94582   9.724  13.613   8.397
64248SOL    HW194583   9.779  13.537   8.376
64248SOL    HW294584   9.772  13.658   8.467
64249SOL     OW94585   6.320   1.543   8.209
64249SOL    HW194586   6.293   1.635   8.218
64249SOL    HW294587   6.387   1.545   8.142
64250SOL     OW94588  11.995  14.579  10.764
64250SOL    HW194589  12.088  14.604  10.761
64250SOL    HW294590  11.948  14.662  10.759
64251SOL     OW94591   5.540   3.761  13.618
64251SOL    HW194592   5.485   3.831  13.584
64251SOL    HW294593   5.619   3.763  13.564
64252SOL     OW94594   8.984  14.091  10.640
64252SOL    HW194595   9.026  14.174  10.617
64252SOL    HW294596   8.893  14.102  10.613
64253SOL     OW94597   4.299   2.269   1.863
64253SOL    HW194598   4.380   2.292   1.909
64253SOL    HW294599   4.328   2.237   1.777
64254SOL     OW94600   1.992  14.359  11.781
64254SOL    HW194601   1.970  14.279  11.733
64254SOL    HW294602   2.005  14.425  11.713
64255SOL     OW94603   4.176   7.636   6.164
64255SOL    HW194604   4.120   7.683   6.103
64255SOL    HW294605   4.142   7.547   6.165
64256SOL     OW94606   3.411   1.701   5.469
64256SOL    HW194607   3.473   1.773   5.458
64256SOL    HW294608   3.402   1.692   5.564
64257SOL     OW94609   5.694   7.684   6.012
64257SOL    HW194610   5.605   7.667   6.043
64257SOL    HW294611   5.730   7.744   6.076
64258SOL     OW94612  11.492  12.582   3.247
64258SOL    HW194613  11.500  12.596   3.341
64258SOL    HW294614  11.459  12.665   3.213
64259SOL     OW94615   2.575  12.253   7.448
64259SOL    HW194616   2.495  12.281   7.403
64259SOL    HW294617   2.555  12.166   7.482
64260SOL     OW94618   4.592   2.765   9.699
64260SOL    HW194619   4.665   2.751   9.638
64260SOL    HW294620   4.634   2.779   9.784
64261SOL     OW94621  11.118   1.028   7.215
64261SOL    HW194622  11.136   1.079   7.294
64261SOL    HW294623  11.081   0.946   7.247
64262SOL     OW94624   9.812  12.946   5.913
64262SOL    HW194625   9.733  12.909   5.953
64262SOL    HW294626   9.820  12.901   5.830
64263SOL     OW94627   5.988   1.124   4.348
64263SOL    HW194628   5.915   1.127   4.286
64263SOL    HW294629   5.975   1.042   4.397
64264SOL     OW94630  11.334   5.837  13.489
64264SOL    HW194631  11.279   5.911  13.463
64264SOL    HW294632  11.318   5.827  13.582
64265SOL     OW94633   9.809   8.314  10.809
64265SOL    HW194634   9.810   8.391  10.866
64265SOL    HW294635   9.749   8.253  10.851
64266SOL     OW94636   0.168   2.417   0.089
64266SOL    HW194637   0.261   2.406   0.066
64266SOL    HW294638   0.124   2.344   0.047
64267SOL     OW94639   4.138   4.542   7.616
64267SOL    HW194640   4.170   4.480   7.551
64267SOL    HW294641   4.216   4.588   7.646
64268SOL     OW94642   3.138   7.614  10.503
64268SOL    HW194643   3.170   7.550  10.566
64268SOL    HW294644   3.215   7.664  10.478
64269SOL     OW94645   6.751  14.247   0.116
64269SOL    HW194646   6.765  14.310   0.186
64269SOL    HW294647   6.838  14.234   0.078
64270SOL     OW94648   6.687  10.093   4.825
64270SOL    HW194649   6.622  10.161   4.808
64270SOL    HW294650   6.683  10.079   4.920
64271SOL     OW94651   2.671  10.665   9.941
64271SOL    HW194652   2.635  10.678  10.029
64271SOL    HW294653   2.605  10.613   9.895
64272SOL     OW94654   2.108   4.215  13.134
64272SOL    HW194655   2.132   4.140  13.080
64272SOL    HW294656   2.055   4.270  13.078
64273SOL     OW94657  13.850   1.246   2.152
64273SOL    HW194658  13.838   1.154   2.127
64273SOL    HW294659  13.764   1.286   2.135
64274SOL     OW94660  11.599   7.462   8.328
64274SOL    HW194661  11.632   7.451   8.239
64274SOL    HW294662  11.602   7.557   8.343
64275SOL     OW94663  14.509   7.031   9.677
64275SOL    HW194664  14.479   6.946   9.709
64275SOL    HW294665  14.511   7.088   9.754
64276SOL     OW94666   4.040   6.216  13.348
64276SOL    HW194667   3.973   6.264  13.300
64276SOL    HW294668   4.033   6.247  13.438
64277SOL     OW94669   3.358  14.517  10.138
64277SOL    HW194670   3.282  14.575  10.147
64277SOL    HW294671   3.359  14.492  10.046
64278SOL     OW94672   4.184   2.144   4.535
64278SOL    HW194673   4.272   2.180   4.526
64278SOL    HW294674   4.192   2.053   4.507
64279SOL     OW94675   3.034   2.480   4.069
64279SOL    HW194676   2.983   2.551   4.108
64279SOL    HW294677   3.125   2.506   4.085
64280SOL     OW94678  10.325   6.278  10.178
64280SOL    HW194679  10.327   6.327  10.260
64280SOL    HW294680  10.239   6.236  10.177
64281SOL     OW94681  14.092   2.035   0.253
64281SOL    HW194682  14.090   1.957   0.308
64281SOL    HW294683  14.168   2.084   0.284
64282SOL     OW94684   2.341   2.962   2.204
64282SOL    HW194685   2.256   3.007   2.197
64282SOL    HW294686   2.365   2.971   2.296
64283SOL     OW94687  12.414   7.701   7.178
64283SOL    HW194688  12.335   7.649   7.197
64283SOL    HW294689  12.393   7.747   7.097
64284SOL     OW94690   6.519  13.815  13.441
64284SOL    HW194691   6.446  13.840  13.498
64284SOL    HW294692   6.564  13.746  13.489
64285SOL     OW94693   8.905   1.061   6.786
64285SOL    HW194694   8.974   0.997   6.801
64285SOL    HW294695   8.939   1.117   6.716
64286SOL     OW94696  13.436  12.674  10.681
64286SOL    HW194697  13.344  12.691  10.704
64286SOL    HW294698  13.436  12.587  10.643
64287SOL     OW94699   5.746  14.140   3.161
64287SOL    HW194700   5.764  14.105   3.073
64287SOL    HW294701   5.652  14.125   3.174
64288SOL     OW94702   9.097   4.682  10.002
64288SOL    HW194703   9.015   4.650  10.039
64288SOL    HW294704   9.071   4.747   9.938
64289SOL     OW94705   1.701  12.854   1.305
64289SOL    HW194706   1.647  12.890   1.234
64289SOL    HW294707   1.738  12.774   1.268
64290SOL     OW94708  13.990   4.597  11.217
64290SOL    HW194709  14.061   4.586  11.154
64290SOL    HW294710  14.007   4.532  11.284
64291SOL     OW94711   6.381   1.710  11.423
64291SOL    HW194712   6.444   1.639  11.406
64291SOL    HW294713   6.346   1.731  11.336
64292SOL     OW94714  12.378  10.805  14.333
64292SOL    HW194715  12.445  10.863  14.366
64292SOL    HW294716  12.384  10.727  14.388
64293SOL     OW94717   7.634  11.652   7.476
64293SOL    HW194718   7.611  11.602   7.554
64293SOL    HW294719   7.627  11.744   7.503
64294SOL     OW94720  13.852   9.088   4.778
64294SOL    HW194721  13.875   9.154   4.713
64294SOL    HW294722  13.854   9.005   4.730
64295SOL     OW94723  12.032   2.997   0.998
64295SOL    HW194724  12.121   2.986   1.031
64295SOL    HW294725  11.989   2.914   1.017
64296SOL     OW94726  13.932   8.655  14.122
64296SOL    HW194727  14.013   8.654  14.070
64296SOL    HW294728  13.959   8.625  14.209
64297SOL     OW94729   7.899   5.232   3.526
64297SOL    HW194730   7.948   5.258   3.448
64297SOL    HW294731   7.960   5.176   3.575
64298SOL     OW94732  11.483   3.595  11.991
64298SOL    HW194733  11.541   3.597  11.914
64298SOL    HW294734  11.422   3.668  11.976
64299SOL     OW94735   1.805  13.400   0.874
64299SOL    HW194736   1.860  13.457   0.819
64299SOL    HW294737   1.817  13.434   0.962
64300SOL     OW94738  14.550   7.595   1.693
64300SOL    HW194739  14.527   7.620   1.782
64300SOL    HW294740  14.569   7.502   1.698
64301SOL     OW94741   3.930   0.963   6.637
64301SOL    HW194742   3.835   0.971   6.627
64301SOL    HW294743   3.964   1.050   6.616
64302SOL     OW94744   0.417   4.449  14.690
64302SOL    HW194745   0.391   4.527  14.738
64302SOL    HW294746   0.393   4.376  14.747
64303SOL     OW94747   4.010   7.774   3.679
64303SOL    HW194748   4.053   7.714   3.617
64303SOL    HW294749   4.069   7.849   3.685
64304SOL     OW94750   4.995  11.162  13.675
64304SOL    HW194751   5.057  11.213  13.727
64304SOL    HW294752   4.951  11.227  13.620
64305SOL     OW94753  14.096  10.443   4.128
64305SOL    HW194754  14.060  10.527   4.158
64305SOL    HW294755  14.099  10.451   4.033
64306SOL     OW94756   1.709   3.953   1.650
64306SOL    HW194757   1.663   3.937   1.567
64306SOL    HW294758   1.645   3.932   1.718
64307SOL     OW94759   2.706  11.165  11.826
64307SOL    HW194760   2.644  11.208  11.885
64307SOL    HW294761   2.754  11.104  11.881
64308SOL     OW94762   9.943   0.883  13.330
64308SOL    HW194763  10.025   0.871  13.281
64308SOL    HW294764   9.875   0.857  13.268
64309SOL     OW94765  10.804  13.589   3.782
64309SOL    HW194766  10.898  13.573   3.797
64309SOL    HW294767  10.778  13.518   3.723
64310SOL     OW94768   7.056   4.814   0.017
64310SOL    HW194769   7.055   4.897  14.843
64310SOL    HW294770   7.024   4.750  14.828
64311SOL     OW94771   9.314   4.348  14.287
64311SOL    HW194772   9.395   4.297  14.285
64311SOL    HW294773   9.290   4.358  14.195
64312SOL     OW94774   9.282   1.206   2.248
64312SOL    HW194775   9.367   1.231   2.211
64312SOL    HW294776   9.305   1.147   2.320
64313SOL     OW94777   4.599   0.043   9.791
64313SOL    HW194778   4.538   0.109   9.758
64313SOL    HW294779   4.543  14.842   9.813
64314SOL     OW94780   2.253   7.954   1.595
64314SOL    HW194781   2.259   7.996   1.509
64314SOL    HW294782   2.327   7.989   1.644
64315SOL     OW94783  10.680   5.031  12.702
64315SOL    HW194784  10.594   4.990  12.699
64315SOL    HW294785  10.731   4.976  12.762
64316SOL     OW94786   3.399   2.847   0.528
64316SOL    HW194787   3.493   2.862   0.530
64316SOL    HW294788   3.361   2.934   0.512
64317SOL     OW94789  11.080   2.293   5.567
64317SOL    HW194790  10.999   2.331   5.533
64317SOL    HW294791  11.052   2.241   5.643
64318SOL     OW94792   6.016  14.710   3.081
64318SOL    HW194793   6.022  14.758   3.164
64318SOL    HW294794   6.011  14.779   3.014
64319SOL     OW94795   1.091   8.470   2.854
64319SOL    HW194796   1.126   8.472   2.765
64319SOL    HW294797   1.017   8.410   2.850
64320SOL     OW94798  10.873   2.038   3.849
64320SOL    HW194799  10.825   1.970   3.801
64320SOL    HW294800  10.963   2.007   3.851
64321SOL     OW94801   8.500   5.501   7.823
64321SOL    HW194802   8.586   5.469   7.796
64321SOL    HW294803   8.440   5.430   7.799
64322SOL     OW94804   8.760  13.440   6.370
64322SOL    HW194805   8.799  13.416   6.286
64322SOL    HW294806   8.667  13.417   6.361
64323SOL     OW94807   6.197   3.787  12.334
64323SOL    HW194808   6.181   3.726  12.407
64323SOL    HW294809   6.154   3.868  12.360
64324SOL     OW94810   4.346   9.152   3.266
64324SOL    HW194811   4.369   9.230   3.216
64324SOL    HW294812   4.414   9.145   3.333
64325SOL     OW94813   9.300  12.074   6.202
64325SOL    HW194814   9.363  12.052   6.133
64325SOL    HW294815   9.231  12.123   6.156
64326SOL     OW94816   8.155  10.966  13.085
64326SOL    HW194817   8.146  10.889  13.029
64326SOL    HW294818   8.216  11.022  13.037
64327SOL     OW94819   5.298   4.503   6.592
64327SOL    HW194820   5.351   4.504   6.512
64327SOL    HW294821   5.300   4.594   6.623
64328SOL     OW94822   8.052   1.403  13.415
64328SOL    HW194823   8.134   1.354  13.423
64328SOL    HW294824   8.018   1.408  13.504
64329SOL     OW94825  13.919   3.597  14.022
64329SOL    HW194826  13.955   3.591  13.933
64329SOL    HW294827  13.994   3.622  14.076
64330SOL     OW94828   5.892   0.575   9.303
64330SOL    HW194829   5.930   0.539   9.223
64330SOL    HW294830   5.886   0.501   9.363
64331SOL     OW94831   4.552   4.014   5.781
64331SOL    HW194832   4.621   3.992   5.718
64331SOL    HW294833   4.579   3.970   5.862
64332SOL     OW94834   1.368  14.043   8.904
64332SOL    HW194835   1.361  14.041   8.999
64332SOL    HW294836   1.285  14.008   8.873
64333SOL     OW94837   2.867   1.615   7.746
64333SOL    HW194838   2.833   1.603   7.657
64333SOL    HW294839   2.833   1.540   7.795
64334SOL     OW94840  12.048   6.427   6.337
64334SOL    HW194841  11.973   6.448   6.282
64334SOL    HW294842  12.043   6.332   6.351
64335SOL     OW94843  10.953  10.880   2.198
64335SOL    HW194844  10.882  10.816   2.191
64335SOL    HW294845  10.930  10.935   2.272
64336SOL     OW94846  12.299   8.276   6.353
64336SOL    HW194847  12.267   8.187   6.343
64336SOL    HW294848  12.225   8.331   6.325
64337SOL     OW94849   0.910  14.054  14.529
64337SOL    HW194850   0.926  14.098  14.445
64337SOL    HW294851   0.820  14.077  14.552
64338SOL     OW94852   2.430   6.261   4.480
64338SOL    HW194853   2.375   6.281   4.557
64338SOL    HW294854   2.519   6.265   4.514
64339SOL     OW94855   4.566   3.613   9.189
64339SOL    HW194856   4.511   3.682   9.152
64339SOL    HW294857   4.633   3.597   9.122
64340SOL     OW94858   0.871  10.796  13.710
64340SOL    HW194859   0.791  10.841  13.736
64340SOL    HW294860   0.935  10.820  13.777
64341SOL     OW94861   5.139   6.573   0.595
64341SOL    HW194862   5.166   6.483   0.608
64341SOL    HW294863   5.043   6.569   0.594
64342SOL     OW94864   7.510   8.801  11.640
64342SOL    HW194865   7.426   8.758  11.661
64342SOL    HW294866   7.485   8.879  11.590
64343SOL     OW94867   1.951  13.253   2.984
64343SOL    HW194868   2.006  13.316   3.031
64343SOL    HW294869   1.988  13.249   2.896
64344SOL     OW94870   1.270  10.343   6.228
64344SOL    HW194871   1.197  10.400   6.203
64344SOL    HW294872   1.266  10.270   6.166
64345SOL     OW94873  10.729   9.966   5.547
64345SOL    HW194874  10.743   9.887   5.599
64345SOL    HW294875  10.815  10.005   5.538
64346SOL     OW94876   9.374   4.656   8.454
64346SOL    HW194877   9.318   4.652   8.377
64346SOL    HW294878   9.374   4.748   8.480
64347SOL     OW94879   0.463   4.958   9.087
64347SOL    HW194880   0.405   5.012   9.141
64347SOL    HW294881   0.405   4.889   9.053
64348SOL     OW94882   3.792   4.320   7.440
64348SOL    HW194883   3.697   4.315   7.431
64348SOL    HW294884   3.818   4.393   7.383
64349SOL     OW94885  10.408   6.463   0.495
64349SOL    HW194886  10.341   6.397   0.478
64349SOL    HW294887  10.392   6.531   0.430
64350SOL     OW94888   3.926   5.390   3.287
64350SOL    HW194889   3.988   5.458   3.258
64350SOL    HW294890   3.866   5.435   3.346
64351SOL     OW94891  13.757   5.916   5.672
64351SOL    HW194892  13.671   5.958   5.670
64351SOL    HW294893  13.766   5.873   5.587
64352SOL     OW94894   7.719  11.608   0.867
64352SOL    HW194895   7.632  11.636   0.837
64352SOL    HW294896   7.735  11.526   0.820
64353SOL     OW94897  13.744   4.223   8.112
64353SOL    HW194898  13.739   4.211   8.207
64353SOL    HW294899  13.690   4.300   8.095
64354SOL     OW94900   3.957  14.139  12.002
64354SOL    HW194901   3.955  14.130  11.907
64354SOL    HW294902   3.886  14.199  12.023
64355SOL     OW94903   0.485   6.265   0.747
64355SOL    HW194904   0.508   6.267   0.655
64355SOL    HW294905   0.568   6.270   0.794
64356SOL     OW94906   5.273   0.349   3.342
64356SOL    HW194907   5.267   0.344   3.437
64356SOL    HW294908   5.277   0.257   3.313
64357SOL     OW94909  12.782   9.011   5.591
64357SOL    HW194910  12.836   8.932   5.587
64357SOL    HW294911  12.830   9.069   5.650
64358SOL     OW94912   5.233   1.576   4.507
64358SOL    HW194913   5.220   1.595   4.414
64358SOL    HW294914   5.306   1.513   4.508
64359SOL     OW94915  10.966   3.982  11.108
64359SOL    HW194916  10.917   3.944  11.181
64359SOL    HW294917  11.040   4.027  11.149
64360SOL     OW94918  11.332  14.400   3.960
64360SOL    HW194919  11.368  14.373   4.045
64360SOL    HW294920  11.285  14.322   3.929
64361SOL     OW94921  12.655   7.851   1.123
64361SOL    HW194922  12.706   7.922   1.083
64361SOL    HW294923  12.718   7.779   1.132
64362SOL     OW94924   9.125  13.737   5.355
64362SOL    HW194925   9.070  13.755   5.278
64362SOL    HW294926   9.213  13.763   5.327
64363SOL     OW94927  13.546  10.321   8.109
64363SOL    HW194928  13.617  10.272   8.151
64363SOL    HW294929  13.553  10.409   8.146
64364SOL     OW94930  10.169   4.697  13.541
64364SOL    HW194931  10.139   4.735  13.458
64364SOL    HW294932  10.264   4.700  13.537
64365SOL     OW94933   4.820   7.570   8.804
64365SOL    HW194934   4.727   7.557   8.821
64365SOL    HW294935   4.829   7.551   8.710
64366SOL     OW94936   3.655   7.758   1.993
64366SOL    HW194937   3.690   7.800   1.915
64366SOL    HW294938   3.727   7.704   2.027
64367SOL     OW94939   5.910   1.449   7.825
64367SOL    HW194940   5.826   1.414   7.855
64367SOL    HW294941   5.975   1.399   7.874
64368SOL     OW94942   3.539   7.399  10.410
64368SOL    HW194943   3.471   7.344  10.449
64368SOL    HW294944   3.558   7.356  10.326
64369SOL     OW94945   0.394  14.705   0.037
64369SOL    HW194946   0.352  14.792   0.035
64369SOL    HW294947   0.321  14.644   0.042
64370SOL     OW94948  12.016  12.943  10.368
64370SOL    HW194949  12.056  12.866  10.408
64370SOL    HW294950  11.923  12.921  10.361
64371SOL     OW94951  10.531   5.497   0.518
64371SOL    HW194952  10.440   5.521   0.501
64371SOL    HW294953  10.526   5.405   0.544
64372SOL     OW94954   0.078   7.575   8.808
64372SOL    HW194955   0.097   7.615   8.723
64372SOL    HW294956  14.864   7.604   8.829
64373SOL     OW94957   6.577   7.635   3.077
64373SOL    HW194958   6.616   7.706   3.127
64373SOL    HW294959   6.618   7.555   3.111
64374SOL     OW94960   4.347   1.541   4.892
64374SOL    HW194961   4.392   1.531   4.808
64374SOL    HW294962   4.409   1.588   4.947
64375SOL     OW94963  14.754   4.564   6.512
64375SOL    HW194964  14.760   4.563   6.608
64375SOL    HW294965  14.665   4.594   6.494
64376SOL     OW94966   5.691   8.979   3.134
64376SOL    HW194967   5.732   9.010   3.052
64376SOL    HW294968   5.756   8.919   3.171
64377SOL     OW94969  14.042   2.034   3.800
64377SOL    HW194970  14.118   2.027   3.743
64377SOL    HW294971  14.004   2.119   3.779
64378SOL     OW94972   5.239  10.438   0.083
64378SOL    HW194973   5.233  10.379   0.008
64378SOL    HW294974   5.180  10.400   0.148
64379SOL     OW94975  12.455  11.616  11.199
64379SOL    HW194976  12.433  11.708  11.213
64379SOL    HW294977  12.478  11.584  11.286
64380SOL     OW94978   1.021   7.847  14.163
64380SOL    HW194979   0.959   7.777  14.182
64380SOL    HW294980   0.989   7.922  14.213
64381SOL     OW94981  10.787  10.562   0.086
64381SOL    HW194982  10.879  10.589   0.085
64381SOL    HW294983  10.766  10.550   0.179
64382SOL     OW94984   9.160  13.366   3.065
64382SOL    HW194985   9.138  13.323   2.982
64382SOL    HW294986   9.089  13.428   3.079
64383SOL     OW94987  13.498   4.553  12.394
64383SOL    HW194988  13.538   4.565  12.480
64383SOL    HW294989  13.566   4.510  12.341
64384SOL     OW94990   1.638  10.794   6.806
64384SOL    HW194991   1.693  10.738   6.752
64384SOL    HW294992   1.646  10.757   6.894
64385SOL     OW94993   7.592   9.868   9.838
64385SOL    HW194994   7.685   9.853   9.853
64385SOL    HW294995   7.559   9.784   9.806
64386SOL     OW94996  13.281   8.227   0.675
64386SOL    HW194997  13.317   8.204   0.761
64386SOL    HW294998  13.198   8.178   0.671
64387SOL     OW94999  14.781   9.475   5.968
64387SOL    HW195000  14.847   9.470   6.037
64387SOL    HW295001  14.728   9.396   5.980
64388SOL     OW95002   3.216   7.392  11.436
64388SOL    HW195003   3.279   7.396  11.365
64388SOL    HW295004   3.254   7.331  11.499
64389SOL     OW95005   3.954   6.408  10.258
64389SOL    HW195006   3.982   6.497  10.238
64389SOL    HW295007   3.992   6.389  10.343
64390SOL     OW95008  11.783   2.851   5.195
64390SOL    HW195009  11.769   2.914   5.124
64390SOL    HW295010  11.793   2.767   5.150
64391SOL     OW95011  14.277   0.722   5.586
64391SOL    HW195012  14.220   0.653   5.552
64391SOL    HW295013  14.275   0.709   5.681
64392SOL     OW95014   6.736  11.788  14.523
64392SOL    HW195015   6.787  11.759  14.599
64392SOL    HW295016   6.744  11.883  14.523
64393SOL     OW95017   7.518  10.082   2.287
64393SOL    HW195018   7.584  10.015   2.270
64393SOL    HW295019   7.454  10.039   2.343
64394SOL     OW95020  12.358   6.958   7.215
64394SOL    HW195021  12.406   6.875   7.223
64394SOL    HW295022  12.423   7.024   7.237
64395SOL     OW95023  12.436   4.507  14.457
64395SOL    HW195024  12.355   4.459  14.476
64395SOL    HW295025  12.446   4.568  14.530
64396SOL     OW95026  10.751   1.069   5.160
64396SOL    HW195027  10.826   1.125   5.182
64396SOL    HW295028  10.790   0.986   5.133
64397SOL     OW95029  14.355  10.645   6.532
64397SOL    HW195030  14.352  10.592   6.612
64397SOL    HW295031  14.405  10.723   6.557
64398SOL     OW95032   8.841  14.451   6.928
64398SOL    HW195033   8.826  14.461   6.834
64398SOL    HW295034   8.922  14.400   6.934
64399SOL     OW95035  10.505   1.194   4.953
64399SOL    HW195036  10.538   1.105   4.962
64399SOL    HW295037  10.425   1.185   4.901
64400SOL     OW95038  13.367  14.174  11.531
64400SOL    HW195039  13.333  14.200  11.446
64400SOL    HW295040  13.296  14.195  11.593
64401SOL     OW95041   9.301   0.372   4.096
64401SOL    HW195042   9.343   0.342   4.016
64401SOL    HW295043   9.355   0.337   4.167
64402SOL     OW95044   1.065  12.068   3.577
64402SOL    HW195045   1.147  12.105   3.609
64402SOL    HW295046   1.037  12.128   3.508
64403SOL     OW95047   8.003  12.362  13.081
64403SOL    HW195048   7.949  12.371  13.159
64403SOL    HW295049   7.993  12.270  13.055
64404SOL     OW95050   1.010  14.326   2.829
64404SOL    HW195051   0.951  14.314   2.903
64404SOL    HW295052   0.963  14.385   2.770
64405SOL     OW95053  13.040   3.700   2.769
64405SOL    HW195054  13.042   3.775   2.829
64405SOL    HW295055  12.976   3.640   2.807
64406SOL     OW95056   8.114  10.729   5.271
64406SOL    HW195057   8.201  10.760   5.248
64406SOL    HW295058   8.055  10.785   5.220
64407SOL     OW95059   5.641   2.855  13.856
64407SOL    HW195060   5.606   2.944  13.852
64407SOL    HW295061   5.725   2.860  13.810
64408SOL     OW95062   7.968   9.269   9.349
64408SOL    HW195063   8.053   9.227   9.344
64408SOL    HW295064   7.910   9.204   9.388
64409SOL     OW95065   0.479  14.772   1.449
64409SOL    HW195066   0.507  14.842   1.390
64409SOL    HW295067   0.559  14.741   1.490
64410SOL     OW95068   5.612  11.177   8.945
64410SOL    HW195069   5.665  11.240   8.995
64410SOL    HW295070   5.522  11.198   8.967
64411SOL     OW95071   5.939  12.140   8.448
64411SOL    HW195072   5.998  12.216   8.440
64411SOL    HW295073   5.975  12.076   8.387
64412SOL     OW95074  10.734  11.199   6.932
64412SOL    HW195075  10.751  11.249   6.852
64412SOL    HW295076  10.821  11.173   6.963
64413SOL     OW95077  10.044  13.271   1.816
64413SOL    HW195078  10.049  13.176   1.824
64413SOL    HW295079   9.964  13.294   1.864
64414SOL     OW95080   5.434   5.735   2.795
64414SOL    HW195081   5.422   5.828   2.810
64414SOL    HW295082   5.403   5.693   2.875
64415SOL     OW95083   0.305   0.955  10.249
64415SOL    HW195084   0.347   1.036  10.220
64415SOL    HW295085   0.235   0.985  10.308
64416SOL     OW95086   2.604   5.676  13.970
64416SOL    HW195087   2.587   5.739  14.040
64416SOL    HW295088   2.639   5.729  13.899
64417SOL     OW95089   0.278  10.999  13.748
64417SOL    HW195090   0.228  10.929  13.789
64417SOL    HW295091   0.337  10.955  13.688
64418SOL     OW95092   9.947  12.337   1.241
64418SOL    HW195093   9.875  12.391   1.275
64418SOL    HW295094   9.906  12.281   1.175
64419SOL     OW95095   9.970   0.269   7.955
64419SOL    HW195096   9.876   0.282   7.941
64419SOL    HW295097   9.977   0.181   7.992
64420SOL     OW95098  11.151   8.662   1.642
64420SOL    HW195099  11.164   8.667   1.548
64420SOL    HW295100  11.134   8.752   1.669
64421SOL     OW95101  12.144  12.521  11.704
64421SOL    HW195102  12.137  12.441  11.755
64421SOL    HW295103  12.057  12.560  11.707
64422SOL     OW95104  10.256   1.953  14.721
64422SOL    HW195105  10.226   2.040  14.746
64422SOL    HW295106  10.249   1.952  14.625
64423SOL     OW95107   8.324   3.083   5.763
64423SOL    HW195108   8.339   3.020   5.692
64423SOL    HW295109   8.237   3.118   5.746
64424SOL     OW95110   1.464   8.293   8.836
64424SOL    HW195111   1.462   8.204   8.800
64424SOL    HW295112   1.418   8.346   8.772
64425SOL     OW95113   9.481   8.359   1.385
64425SOL    HW195114   9.545   8.392   1.322
64425SOL    HW295115   9.428   8.297   1.336
64426SOL     OW95116   5.434  11.207  10.940
64426SOL    HW195117   5.480  11.267  10.999
64426SOL    HW295118   5.368  11.165  10.994
64427SOL     OW95119   5.655  14.102   9.478
64427SOL    HW195120   5.647  14.181   9.425
64427SOL    HW295121   5.580  14.048   9.453
64428SOL     OW95122  13.963   5.992   0.567
64428SOL    HW195123  13.941   6.069   0.619
64428SOL    HW295124  14.058   5.988   0.569
64429SOL     OW95125   1.245   3.929   0.499
64429SOL    HW195126   1.155   3.921   0.530
64429SOL    HW295127   1.298   3.891   0.569
64430SOL     OW95128   5.868   0.808  14.802
64430SOL    HW195129   5.906   0.808  14.714
64430SOL    HW295130   5.942   0.788  14.859
64431SOL     OW95131   4.004   3.307   2.319
64431SOL    HW195132   3.909   3.311   2.309
64431SOL    HW295133   4.019   3.236   2.381
64432SOL     OW95134   2.668   4.282  13.843
64432SOL    HW195135   2.653   4.374  13.821
64432SOL    HW295136   2.753   4.283  13.889
64433SOL     OW95137   8.809   7.538   1.140
64433SOL    HW195138   8.722   7.577   1.144
64433SOL    HW295139   8.864   7.605   1.101
64434SOL     OW95140  12.189   3.704   5.488
64434SOL    HW195141  12.220   3.731   5.402
64434SOL    HW295142  12.253   3.740   5.550
64435SOL     OW95143  14.502   5.939   1.020
64435SOL    HW195144  14.579   5.896   0.983
64435SOL    HW295145  14.512   5.929   1.114
64436SOL     OW95146   7.622  10.195   9.093
64436SOL    HW195147   7.601  10.120   9.038
64436SOL    HW295148   7.593  10.271   9.042
64437SOL     OW95149   7.587  11.506  11.458
64437SOL    HW195150   7.596  11.592  11.416
64437SOL    HW295151   7.676  11.483  11.485
64438SOL     OW95152   4.596   6.292  10.670
64438SOL    HW195153   4.612   6.226  10.737
64438SOL    HW295154   4.681   6.332  10.655
64439SOL     OW95155   3.521   9.477   5.247
64439SOL    HW195156   3.454   9.474   5.316
64439SOL    HW295157   3.564   9.562   5.261
64440SOL     OW95158   5.558   1.289  13.606
64440SOL    HW195159   5.642   1.330  13.625
64440SOL    HW295160   5.563   1.204  13.649
64441SOL     OW95161  14.566  14.764   0.696
64441SOL    HW195162  14.552  14.715   0.778
64441SOL    HW295163  14.660  14.781   0.695
64442SOL     OW95164   1.937   4.370   8.436
64442SOL    HW195165   1.909   4.461   8.430
64442SOL    HW295166   1.899   4.339   8.518
64443SOL     OW95167  10.435   8.168   2.507
64443SOL    HW195168  10.442   8.230   2.435
64443SOL    HW295169  10.341   8.165   2.528
64444SOL     OW95170   9.314  13.519  10.054
64444SOL    HW195171   9.392  13.527   9.998
64444SOL    HW295172   9.290  13.610  10.072
64445SOL     OW95173   3.998   8.648   4.194
64445SOL    HW195174   4.014   8.630   4.102
64445SOL    HW295175   3.908   8.619   4.209
64446SOL     OW95176  11.068   3.178   7.677
64446SOL    HW195177  11.137   3.111   7.672
64446SOL    HW295178  11.058   3.194   7.771
64447SOL     OW95179  14.710   9.349  13.194
64447SOL    HW195180  14.768   9.372  13.266
64447SOL    HW295181  14.727   9.257  13.178
64448SOL     OW95182   5.041  11.407  10.180
64448SOL    HW195183   5.134  11.414  10.199
64448SOL    HW295184   5.033  11.432  10.088
64449SOL     OW95185  12.616   1.773   9.466
64449SOL    HW195186  12.601   1.866   9.482
64449SOL    HW295187  12.552   1.749   9.399
64450SOL     OW95188   6.102   2.561   6.552
64450SOL    HW195189   6.182   2.514   6.576
64450SOL    HW295190   6.130   2.652   6.541
64451SOL     OW95191  13.860   4.602  13.508
64451SOL    HW195192  13.855   4.642  13.421
64451SOL    HW295193  13.771   4.610  13.543
64452SOL     OW95194   2.056   2.845   3.686
64452SOL    HW195195   2.063   2.934   3.650
64452SOL    HW295196   2.121   2.795   3.636
64453SOL     OW95197   9.124  11.271   6.123
64453SOL    HW195198   9.116  11.258   6.028
64453SOL    HW295199   9.102  11.186   6.161
64454SOL     OW95200  12.793   2.401   0.168
64454SOL    HW195201  12.728   2.333   0.185
64454SOL    HW295202  12.848   2.365   0.099
64455SOL     OW95203   4.822  13.300   7.237
64455SOL    HW195204   4.792  13.266   7.321
64455SOL    HW295205   4.795  13.392   7.237
64456SOL     OW95206   4.345  13.995  10.693
64456SOL    HW195207   4.371  13.921  10.638
64456SOL    HW295208   4.404  13.990  10.768
64457SOL     OW95209   2.414  12.493   8.892
64457SOL    HW195210   2.476  12.556   8.931
64457SOL    HW295211   2.328  12.534   8.903
64458SOL     OW95212  12.675   6.515   7.628
64458SOL    HW195213  12.620   6.467   7.690
64458SOL    HW295214  12.759   6.470   7.629
64459SOL     OW95215   1.862  11.230  11.324
64459SOL    HW195216   1.930  11.167  11.346
64459SOL    HW295217   1.908  11.298  11.275
64460SOL     OW95218   2.509  14.678  11.088
64460SOL    HW195219   2.545  14.686  11.000
64460SOL    HW295220   2.517  14.585  11.109
64461SOL     OW95221  10.651   1.541  12.952
64461SOL    HW195222  10.678   1.633  12.950
64461SOL    HW295223  10.724   1.494  12.912
64462SOL     OW95224   6.919   1.622   4.503
64462SOL    HW195225   6.838   1.572   4.489
64462SOL    HW295226   6.889   1.711   4.521
64463SOL     OW95227   6.107  10.594  12.307
64463SOL    HW195228   6.131  10.623  12.219
64463SOL    HW295229   6.098  10.499  12.299
64464SOL     OW95230   2.976   2.569   7.366
64464SOL    HW195231   2.905   2.611   7.318
64464SOL    HW295232   2.954   2.583   7.458
64465SOL     OW95233   0.538  11.885   5.425
64465SOL    HW195234   0.554  11.979   5.420
64465SOL    HW295235   0.576  11.858   5.509
64466SOL     OW95236   1.207   7.157  13.352
64466SOL    HW195237   1.285   7.103  13.341
64466SOL    HW295238   1.167   7.124  13.432
64467SOL     OW95239   6.118   8.512   8.459
64467SOL    HW195240   6.197   8.461   8.476
64467SOL    HW295241   6.115   8.576   8.529
64468SOL     OW95242  13.568  14.357  13.910
64468SOL    HW195243  13.569  14.429  13.974
64468SOL    HW295244  13.635  14.297  13.941
64469SOL     OW95245  10.509  14.517   6.031
64469SOL    HW195246  10.560  14.450   6.077
64469SOL    HW295247  10.554  14.599   6.051
64470SOL     OW95248   8.998   6.476  10.223
64470SOL    HW195249   9.005   6.416  10.297
64470SOL    HW295250   8.929   6.439  10.168
64471SOL     OW95251  10.694   3.708   6.344
64471SOL    HW195252  10.668   3.617   6.330
64471SOL    HW295253  10.720   3.711   6.436
64472SOL     OW95254   6.805  13.200   8.214
64472SOL    HW195255   6.782  13.178   8.124
64472SOL    HW295256   6.818  13.295   8.213
64473SOL     OW95257  11.042  10.557  13.248
64473SOL    HW195258  11.069  10.601  13.329
64473SOL    HW295259  10.959  10.599  13.224
64474SOL     OW95260  12.431   0.342   0.534
64474SOL    HW195261  12.382   0.272   0.489
64474SOL    HW295262  12.469   0.300   0.611
64475SOL     OW95263   6.599   2.215   5.624
64475SOL    HW195264   6.629   2.235   5.535
64475SOL    HW295265   6.516   2.169   5.611
64476SOL     OW95266  14.182   2.543  13.827
64476SOL    HW195267  14.171   2.519  13.919
64476SOL    HW295268  14.236   2.623  13.829
64477SOL     OW95269   4.117  14.569  10.185
64477SOL    HW195270   4.102  14.631  10.113
64477SOL    HW295271   4.037  14.572  10.236
64478SOL     OW95272   3.170   8.830   9.351
64478SOL    HW195273   3.100   8.841   9.415
64478SOL    HW295274   3.229   8.904   9.366
64479SOL     OW95275   7.810  11.424   2.183
64479SOL    HW195276   7.739  11.477   2.146
64479SOL    HW295277   7.889  11.473   2.162
64480SOL     OW95278   2.329   3.073  14.536
64480SOL    HW195279   2.320   3.020  14.615
64480SOL    HW295280   2.417   3.055  14.505
64481SOL     OW95281   8.040  10.477   6.408
64481SOL    HW195282   8.135  10.470   6.404
64481SOL    HW295283   8.023  10.571   6.412
64482SOL     OW95284   9.047   3.262   3.934
64482SOL    HW195285   8.989   3.335   3.957
64482SOL    HW295286   9.040   3.202   4.008
64483SOL     OW95287   5.331   0.570  10.733
64483SOL    HW195288   5.425   0.576  10.715
64483SOL    HW295289   5.309   0.655  10.771
64484SOL     OW95290   8.619  12.734  13.312
64484SOL    HW195291   8.601  12.824  13.339
64484SOL    HW295292   8.661  12.743  13.226
64485SOL     OW95293  12.548   9.909   8.468
64485SOL    HW195294  12.583   9.997   8.458
64485SOL    HW295295  12.458   9.915   8.434
64486SOL     OW95296   3.542   5.162   2.979
64486SOL    HW195297   3.619   5.106   2.985
64486SOL    HW295298   3.577   5.251   2.982
64487SOL     OW95299   5.049  10.298   3.155
64487SOL    HW195300   4.975  10.309   3.096
64487SOL    HW295301   5.074  10.206   3.147
64488SOL     OW95302   7.754   3.086   6.798
64488SOL    HW195303   7.828   3.027   6.781
64488SOL    HW295304   7.677   3.033   6.777
64489SOL     OW95305   7.167   0.152  13.261
64489SOL    HW195306   7.190   0.076  13.208
64489SOL    HW295307   7.199   0.227  13.211
64490SOL     OW95308   0.675  14.811   6.910
64490SOL    HW195309   0.618  14.776   6.979
64490SOL    HW295310   0.617  14.865   6.857
64491SOL     OW95311   0.850   6.408   0.749
64491SOL    HW195312   0.868   6.474   0.682
64491SOL    HW295313   0.853   6.325   0.703
64492SOL     OW95314   4.139   2.169   3.353
64492SOL    HW195315   4.175   2.241   3.301
64492SOL    HW295316   4.145   2.200   3.444
64493SOL     OW95317   3.656   2.050  12.631
64493SOL    HW195318   3.616   2.127  12.672
64493SOL    HW295319   3.625   2.052  12.541
64494SOL     OW95320   2.956   9.069   4.518
64494SOL    HW195321   2.996   8.990   4.553
64494SOL    HW295322   3.029   9.127   4.497
64495SOL     OW95323   0.943   5.746   6.404
64495SOL    HW195324   1.012   5.791   6.355
64495SOL    HW295325   0.988   5.711   6.481
64496SOL     OW95326  12.663   3.685  11.327
64496SOL    HW195327  12.664   3.722  11.238
64496SOL    HW295328  12.592   3.733  11.371
64497SOL     OW95329   7.058  13.802   4.239
64497SOL    HW195330   7.097  13.722   4.275
64497SOL    HW295331   6.964  13.787   4.244
64498SOL     OW95332   6.021  12.859   7.321
64498SOL    HW195333   6.116  12.870   7.318
64498SOL    HW295334   5.987  12.948   7.327
64499SOL     OW95335  14.865   3.142  10.935
64499SOL    HW195336   0.046   3.064  10.924
64499SOL    HW295337  14.785   3.109  10.976
64500SOL     OW95338   0.825  12.308   9.888
64500SOL    HW195339   0.915  12.338   9.897
64500SOL    HW295340   0.831  12.222   9.847
64501SOL     OW95341   4.229   9.702   9.978
64501SOL    HW195342   4.209   9.611   9.955
64501SOL    HW295343   4.149   9.750   9.956
64502SOL     OW95344   7.283   4.877  13.208
64502SOL    HW195345   7.362   4.857  13.157
64502SOL    HW295346   7.211   4.856  13.148
64503SOL     OW95347  14.764   5.832   7.547
64503SOL    HW195348  14.781   5.767   7.615
64503SOL    HW295349  14.844   5.832   7.494
64504SOL     OW95350  14.281  12.578   7.594
64504SOL    HW195351  14.329  12.505   7.555
64504SOL    HW295352  14.287  12.564   7.688
64505SOL     OW95353   1.289   1.605  11.046
64505SOL    HW195354   1.235   1.594  10.967
64505SOL    HW295355   1.302   1.517  11.079
64506SOL     OW95356   7.363   1.985   2.220
64506SOL    HW195357   7.343   2.075   2.194
64506SOL    HW295358   7.420   1.952   2.150
64507SOL     OW95359   7.744  13.805  10.294
64507SOL    HW195360   7.777  13.847  10.373
64507SOL    HW295361   7.668  13.754  10.324
64508SOL     OW95362  13.999   7.096   7.719
64508SOL    HW195363  14.060   7.034   7.679
64508SOL    HW295364  13.958   7.140   7.645
64509SOL     OW95365   3.161   1.536  11.917
64509SOL    HW195366   3.245   1.502  11.949
64509SOL    HW295367   3.163   1.629  11.936
64510SOL     OW95368   8.533   5.749  10.056
64510SOL    HW195369   8.618   5.790  10.076
64510SOL    HW295370   8.471   5.796  10.112
64511SOL     OW95371   9.009   5.309  14.312
64511SOL    HW195372   9.041   5.348  14.394
64511SOL    HW295373   8.914   5.311  14.320
64512SOL     OW95374   2.278  10.420   3.141
64512SOL    HW195375   2.288  10.513   3.124
64512SOL    HW295376   2.284  10.411   3.236
64513SOL     OW95377   2.548   4.041  10.687
64513SOL    HW195378   2.494   4.110  10.650
64513SOL    HW295379   2.611   4.087  10.743
64514SOL     OW95380   8.262   5.671   1.032
64514SOL    HW195381   8.208   5.751   1.033
64514SOL    HW295382   8.346   5.699   1.069
64515SOL     OW95383   4.276  14.218  13.276
64515SOL    HW195384   4.354  14.272  13.290
64515SOL    HW295385   4.306  14.128  13.290
64516SOL     OW95386   0.837   3.149   1.758
64516SOL    HW195387   0.761   3.134   1.701
64516SOL    HW295388   0.895   3.206   1.706
64517SOL     OW95389   0.590  13.699   9.929
64517SOL    HW195390   0.673  13.694   9.976
64517SOL    HW295391   0.527  13.658   9.988
64518SOL     OW95392   8.734   3.879  10.012
64518SOL    HW195393   8.660   3.835  10.053
64518SOL    HW295394   8.768   3.816   9.948
64519SOL     OW95395   0.835   2.893   9.395
64519SOL    HW195396   0.822   2.808   9.351
64519SOL    HW295397   0.747   2.931   9.396
64520SOL     OW95398   6.597   1.516  13.424
64520SOL    HW195399   6.615   1.425  13.445
64520SOL    HW295400   6.517   1.513  13.371
64521SOL     OW95401  11.319   4.415  13.305
64521SOL    HW195402  11.369   4.496  13.302
64521SOL    HW295403  11.342   4.376  13.389
64522SOL     OW95404   2.144  11.884   9.861
64522SOL    HW195405   2.229  11.904   9.822
64522SOL    HW295406   2.131  11.954   9.926
64523SOL     OW95407   9.384   8.329   2.515
64523SOL    HW195408   9.439   8.260   2.478
64523SOL    HW295409   9.365   8.299   2.604
64524SOL     OW95410   2.847  12.621  12.169
64524SOL    HW195411   2.841  12.534  12.128
64524SOL    HW295412   2.901  12.672  12.108
64525SOL     OW95413   3.769   4.132   2.674
64525SOL    HW195414   3.771   4.054   2.618
64525SOL    HW295415   3.695   4.183   2.642
64526SOL     OW95416  11.707  13.404   5.464
64526SOL    HW195417  11.759  13.378   5.388
64526SOL    HW295418  11.764  13.387   5.539
64527SOL     OW95419   1.110  11.840   7.521
64527SOL    HW195420   1.055  11.872   7.449
64527SOL    HW295421   1.066  11.872   7.600
64528SOL     OW95422  14.739  11.572   0.406
64528SOL    HW195423  14.773  11.568   0.317
64528SOL    HW295424  14.651  11.534   0.400
64529SOL     OW95425  11.348  14.063   4.227
64529SOL    HW195426  11.331  14.140   4.281
64529SOL    HW295427  11.436  14.076   4.193
64530SOL     OW95428   7.299   3.184  12.099
64530SOL    HW195429   7.216   3.203  12.056
64530SOL    HW295430   7.334   3.108  12.052
64531SOL     OW95431  11.771   7.129   6.941
64531SOL    HW195432  11.793   7.103   6.852
64531SOL    HW295433  11.697   7.074   6.965
64532SOL     OW95434  14.050   3.564   9.444
64532SOL    HW195435  14.139   3.560   9.407
64532SOL    HW295436  14.064   3.561   9.538
64533SOL     OW95437  13.731   6.486  13.008
64533SOL    HW195438  13.682   6.428  12.950
64533SOL    HW295439  13.700   6.465  13.096
64534SOL     OW95440  12.433   4.902   6.279
64534SOL    HW195441  12.484   4.851   6.341
64534SOL    HW295442  12.345   4.864   6.281
64535SOL     OW95443   8.743  10.421   6.936
64535SOL    HW195444   8.827  10.466   6.934
64535SOL    HW295445   8.753  10.349   6.873
64536SOL     OW95446   3.485   6.219   0.663
64536SOL    HW195447   3.566   6.256   0.628
64536SOL    HW295448   3.480   6.131   0.626
64537SOL     OW95449   1.457  12.676  10.503
64537SOL    HW195450   1.416  12.615  10.442
64537SOL    HW295451   1.448  12.761  10.461
64538SOL     OW95452   8.707  14.043   4.217
64538SOL    HW195453   8.790  14.039   4.264
64538SOL    HW295454   8.713  13.973   4.152
64539SOL     OW95455  10.513  12.954   8.230
64539SOL    HW195456  10.469  13.039   8.231
64539SOL    HW295457  10.460  12.900   8.172
64540SOL     OW95458   0.399  12.888  14.214
64540SOL    HW195459   0.333  12.857  14.276
64540SOL    HW295460   0.353  12.954  14.161
64541SOL     OW95461   2.956  10.793  10.636
64541SOL    HW195462   3.031  10.838  10.676
64541SOL    HW295463   2.884  10.855  10.644
64542SOL     OW95464   8.541   6.188  12.686
64542SOL    HW195465   8.589   6.269  12.672
64542SOL    HW295466   8.600   6.119  12.656
64543SOL     OW95467  13.116   3.568   4.979
64543SOL    HW195468  13.098   3.523   4.896
64543SOL    HW295469  13.056   3.643   4.978
64544SOL     OW95470  11.102   5.311  13.235
64544SOL    HW195471  11.198   5.309  13.230
64544SOL    HW295472  11.075   5.349  13.152
64545SOL     OW95473  13.063  14.388   6.695
64545SOL    HW195474  13.136  14.443   6.667
64545SOL    HW295475  12.995  14.403   6.629
64546SOL     OW95476   3.815   4.395   3.618
64546SOL    HW195477   3.794   4.445   3.697
64546SOL    HW295478   3.772   4.310   3.633
64547SOL     OW95479  11.670   8.443   4.595
64547SOL    HW195480  11.684   8.469   4.504
64547SOL    HW295481  11.735   8.375   4.611
64548SOL     OW95482  12.198   1.966   5.570
64548SOL    HW195483  12.163   1.933   5.652
64548SOL    HW295484  12.233   1.889   5.525
64549SOL     OW95485  13.141   6.421   0.514
64549SOL    HW195486  13.236   6.417   0.505
64549SOL    HW295487  13.120   6.514   0.500
64550SOL     OW95488  11.109  13.499   6.646
64550SOL    HW195489  11.146  13.579   6.683
64550SOL    HW295490  11.184  13.456   6.604
64551SOL     OW95491   2.153   9.850  11.432
64551SOL    HW195492   2.205   9.899  11.368
64551SOL    HW295493   2.079   9.907  11.452
64552SOL     OW95494  11.557   2.837  12.741
64552SOL    HW195495  11.479   2.859  12.793
64552SOL    HW295496  11.597   2.922  12.721
64553SOL     OW95497  10.818   7.873  10.201
64553SOL    HW195498  10.803   7.810  10.271
64553SOL    HW295499  10.816   7.958  10.245
64554SOL     OW95500   9.752   5.073   9.010
64554SOL    HW195501   9.792   4.997   8.967
64554SOL    HW295502   9.824   5.134   9.023
64555SOL     OW95503   7.979   5.176   0.288
64555SOL    HW195504   7.907   5.235   0.308
64555SOL    HW295505   7.983   5.174   0.192
64556SOL     OW95506   6.011   5.142  10.917
64556SOL    HW195507   5.968   5.225  10.896
64556SOL    HW295508   6.011   5.138  11.013
64557SOL     OW95509   2.132  14.618   3.381
64557SOL    HW195510   2.087  14.689   3.335
64557SOL    HW295511   2.209  14.660   3.420
64558SOL     OW95512   9.206   1.462   1.972
64558SOL    HW195513   9.193   1.480   2.065
64558SOL    HW295514   9.300   1.442   1.964
64559SOL     OW95515  10.476  14.086   5.681
64559SOL    HW195516  10.404  14.102   5.620
64559SOL    HW295517  10.553  14.079   5.626
64560SOL     OW95518   5.868   0.631   9.653
64560SOL    HW195519   5.912   0.691   9.713
64560SOL    HW295520   5.902   0.544   9.675
64561SOL     OW95521   7.925   5.029   0.578
64561SOL    HW195522   7.899   4.973   0.505
64561SOL    HW295523   7.999   4.984   0.619
64562SOL     OW95524  14.275   2.874   8.105
64562SOL    HW195525  14.200   2.829   8.067
64562SOL    HW295526  14.324   2.906   8.029
64563SOL     OW95527  11.725  12.172   6.824
64563SOL    HW195528  11.651  12.111   6.831
64563SOL    HW295529  11.750  12.190   6.914
64564SOL     OW95530   7.205   1.491   4.871
64564SOL    HW195531   7.162   1.557   4.818
64564SOL    HW295532   7.183   1.408   4.828
64565SOL     OW95533  14.071   5.154   7.484
64565SOL    HW195534  14.001   5.176   7.423
64565SOL    HW295535  14.150   5.190   7.444
64566SOL     OW95536   0.720   2.312   1.113
64566SOL    HW195537   0.803   2.273   1.086
64566SOL    HW295538   0.675   2.242   1.161
64567SOL     OW95539  12.411  13.371  14.162
64567SOL    HW195540  12.355  13.448  14.169
64567SOL    HW295541  12.442  13.372  14.072
64568SOL     OW95542   5.766   5.721  11.505
64568SOL    HW195543   5.700   5.680  11.562
64568SOL    HW295544   5.721   5.798  11.468
64569SOL     OW95545   1.745  12.340  12.930
64569SOL    HW195546   1.809  12.411  12.921
64569SOL    HW295547   1.742  12.324  13.025
64570SOL     OW95548  13.829   1.391  13.340
64570SOL    HW195549  13.919   1.370  13.365
64570SOL    HW295550  13.838   1.455  13.269
64571SOL     OW95551   0.110  11.228   1.185
64571SOL    HW195552   0.055  11.256   1.112
64571SOL    HW295553   0.145  11.143   1.158
64572SOL     OW95554   5.675  10.583   4.785
64572SOL    HW195555   5.591  10.615   4.818
64572SOL    HW295556   5.654  10.537   4.704
64573SOL     OW95557   9.431   1.237   8.547
64573SOL    HW195558   9.349   1.206   8.587
64573SOL    HW295559   9.483   1.270   8.621
64574SOL     OW95560   3.889   1.500  12.809
64574SOL    HW195561   3.915   1.527  12.721
64574SOL    HW295562   3.967   1.457  12.844
64575SOL     OW95563   0.629  12.600   8.781
64575SOL    HW195564   0.611  12.655   8.858
64575SOL    HW295565   0.591  12.515   8.803
64576SOL     OW95566  13.652   3.825  10.791
64576SOL    HW195567  13.605   3.791  10.867
64576SOL    HW295568  13.603   3.903  10.765
64577SOL     OW95569   4.503   7.862   6.267
64577SOL    HW195570   4.502   7.856   6.171
64577SOL    HW295571   4.549   7.945   6.284
64578SOL     OW95572   6.013  11.258   5.444
64578SOL    HW195573   6.091  11.268   5.389
64578SOL    HW295574   5.940  11.260   5.382
64579SOL     OW95575   6.389  13.324   7.208
64579SOL    HW195576   6.371  13.264   7.135
64579SOL    HW295577   6.332  13.294   7.278
64580SOL     OW95578   9.127   7.984   1.865
64580SOL    HW195579   9.079   7.901   1.863
64580SOL    HW295580   9.075   8.042   1.809
64581SOL     OW95581  14.020  11.278   8.764
64581SOL    HW195582  13.994  11.196   8.722
64581SOL    HW295583  14.088  11.314   8.707
64582SOL     OW95584   0.310   4.691  10.335
64582SOL    HW195585   0.355   4.609  10.314
64582SOL    HW295586   0.378   4.758  10.325
64583SOL     OW95587   8.722   6.330   6.139
64583SOL    HW195588   8.661   6.293   6.075
64583SOL    HW295589   8.792   6.368   6.085
64584SOL     OW95590   3.432   7.816   9.726
64584SOL    HW195591   3.440   7.722   9.739
64584SOL    HW295592   3.360   7.826   9.665
64585SOL     OW95593   3.214   7.877   1.427
64585SOL    HW195594   3.200   7.783   1.412
64585SOL    HW295595   3.292   7.898   1.376
64586SOL     OW95596   0.256   3.653   2.882
64586SOL    HW195597   0.329   3.609   2.926
64586SOL    HW295598   0.189   3.585   2.873
64587SOL     OW95599   0.854   4.615   5.074
64587SOL    HW195600   0.891   4.697   5.106
64587SOL    HW295601   0.759   4.630   5.073
64588SOL     OW95602   3.188   4.459   4.893
64588SOL    HW195603   3.106   4.433   4.935
64588SOL    HW295604   3.255   4.442   4.958
64589SOL     OW95605   3.539   6.142   7.978
64589SOL    HW195606   3.604   6.213   7.975
64589SOL    HW295607   3.591   6.062   7.975
64590SOL     OW95608   9.033   5.456  14.032
64590SOL    HW195609   9.086   5.531  14.057
64590SOL    HW295610   8.943   5.488  14.037
64591SOL     OW95611   7.196   7.220   2.863
64591SOL    HW195612   7.157   7.283   2.803
64591SOL    HW295613   7.123   7.188   2.915
64592SOL     OW95614  10.934  11.897   8.710
64592SOL    HW195615  10.969  11.959   8.646
64592SOL    HW295616  10.885  11.950   8.773
64593SOL     OW95617   6.865   4.480  14.846
64593SOL    HW195618   6.809   4.404  14.861
64593SOL    HW295619   6.953   4.449  14.869
64594SOL     OW95620   3.372   3.941  13.513
64594SOL    HW195621   3.318   3.965  13.438
64594SOL    HW295622   3.385   3.847  13.504
64595SOL     OW95623   3.227   5.343   2.954
64595SOL    HW195624   3.142   5.386   2.968
64595SOL    HW295625   3.274   5.355   3.036
64596SOL     OW95626  12.975   1.264  11.475
64596SOL    HW195627  12.977   1.169  11.484
64596SOL    HW295628  12.904   1.280  11.412
64597SOL     OW95629  12.682   3.463  14.772
64597SOL    HW195630  12.722   3.383  14.738
64597SOL    HW295631  12.600   3.434  14.813
64598SOL     OW95632   8.566   0.877  13.892
64598SOL    HW195633   8.477   0.914  13.890
64598SOL    HW295634   8.565   0.811  13.823
64599SOL     OW95635  13.770   3.887  11.118
64599SOL    HW195636  13.830   3.849  11.181
64599SOL    HW295637  13.826   3.932  11.055
64600SOL     OW95638  11.217   8.695   8.040
64600SOL    HW195639  11.212   8.790   8.050
64600SOL    HW295640  11.148   8.673   7.978
64601SOL     OW95641   3.111  10.806   3.146
64601SOL    HW195642   3.204  10.817   3.126
64601SOL    HW295643   3.107  10.725   3.196
64602SOL     OW95644   5.631   5.730  13.973
64602SOL    HW195645   5.621   5.800  13.908
64602SOL    HW295646   5.610   5.773  14.056
64603SOL     OW95647  10.737   7.369   2.749
64603SOL    HW195648  10.721   7.445   2.692
64603SOL    HW295649  10.743   7.295   2.689
64604SOL     OW95650  13.512   5.385   8.171
64604SOL    HW195651  13.524   5.334   8.251
64604SOL    HW295652  13.491   5.319   8.104
64605SOL     OW95653   3.161  13.421   4.132
64605SOL    HW195654   3.068  13.404   4.124
64605SOL    HW295655   3.182  13.474   4.055
64606SOL     OW95656   1.236   3.431  11.081
64606SOL    HW195657   1.282   3.460  11.002
64606SOL    HW295658   1.297   3.371  11.124
64607SOL     OW95659   4.195   2.313   4.309
64607SOL    HW195660   4.112   2.267   4.320
64607SOL    HW295661   4.223   2.290   4.221
64608SOL     OW95662   0.549   8.362   6.359
64608SOL    HW195663   0.506   8.317   6.432
64608SOL    HW295664   0.610   8.298   6.323
64609SOL     OW95665   6.497   5.708   6.844
64609SOL    HW195666   6.583   5.716   6.802
64609SOL    HW295667   6.459   5.796   6.839
64610SOL     OW95668   3.664  10.754  14.254
64610SOL    HW195669   3.683  10.690  14.184
64610SOL    HW295670   3.613  10.704  14.318
64611SOL     OW95671   4.900  12.155   4.724
64611SOL    HW195672   4.823  12.191   4.678
64611SOL    HW295673   4.912  12.213   4.799
64612SOL     OW95674   0.360   5.441  12.879
64612SOL    HW195675   0.308   5.361  12.867
64612SOL    HW295676   0.330   5.477  12.963
64613SOL     OW95677   0.807   0.922   4.260
64613SOL    HW195678   0.818   0.898   4.352
64613SOL    HW295679   0.712   0.916   4.246
64614SOL     OW95680   0.560   3.756  12.175
64614SOL    HW195681   0.560   3.788  12.265
64614SOL    HW295682   0.631   3.692  12.172
64615SOL     OW95683  12.111   7.149   8.220
64615SOL    HW195684  12.114   7.085   8.292
64615SOL    HW295685  12.037   7.206   8.242
64616SOL     OW95686   0.894  11.298   4.664
64616SOL    HW195687   0.927  11.323   4.578
64616SOL    HW295688   0.801  11.322   4.662
64617SOL     OW95689   5.220   0.945   2.599
64617SOL    HW195690   5.262   0.962   2.514
64617SOL    HW295691   5.200   1.031   2.634
64618SOL     OW95692   9.383   2.975   6.092
64618SOL    HW195693   9.415   2.925   6.017
64618SOL    HW295694   9.457   3.030   6.118
64619SOL     OW95695  12.844   5.753  12.934
64619SOL    HW195696  12.909   5.700  12.982
64619SOL    HW295697  12.813   5.816  12.999
64620SOL     OW95698   7.829   6.661   5.286
64620SOL    HW195699   7.741   6.674   5.322
64620SOL    HW295700   7.880   6.733   5.321
64621SOL     OW95701   1.130   9.536  10.120
64621SOL    HW195702   1.089   9.513  10.037
64621SOL    HW295703   1.108   9.628  10.134
64622SOL     OW95704   7.629   0.188   5.461
64622SOL    HW195705   7.641   0.177   5.555
64622SOL    HW295706   7.561   0.255   5.453
64623SOL     OW95707   4.075  13.352  13.203
64623SOL    HW195708   3.999  13.406  13.224
64623SOL    HW295709   4.053  13.313  13.118
64624SOL     OW95710  10.401   0.132  10.224
64624SOL    HW195711  10.336   0.066  10.248
64624SOL    HW295712  10.485   0.092  10.249
64625SOL     OW95713   3.465  10.319   6.094
64625SOL    HW195714   3.450  10.266   6.016
64625SOL    HW295715   3.518  10.392   6.063
64626SOL     OW95716   8.631   0.226  11.140
64626SOL    HW195717   8.549   0.266  11.167
64626SOL    HW295718   8.668   0.286  11.076
64627SOL     OW95719  13.230   3.701   7.711
64627SOL    HW195720  13.172   3.721   7.784
64627SOL    HW295721  13.266   3.615   7.732
64628SOL     OW95722   0.008  14.148  13.664
64628SOL    HW195723   0.025  14.072  13.608
64628SOL    HW295724   0.067  14.138  13.738
64629SOL     OW95725   1.772   6.328   2.890
64629SOL    HW195726   1.835   6.279   2.943
64629SOL    HW295727   1.687   6.298   2.921
64630SOL     OW95728  12.715   7.498   4.606
64630SOL    HW195729  12.807   7.475   4.613
64630SOL    HW295730  12.675   7.424   4.560
64631SOL     OW95731  13.259  14.612   6.242
64631SOL    HW195732  13.338  14.636   6.290
64631SOL    HW295733  13.289  14.546   6.179
64632SOL     OW95734  11.489   1.413  10.942
64632SOL    HW195735  11.541   1.423  11.022
64632SOL    HW295736  11.501   1.495  10.895
64633SOL     OW95737   5.842  12.881  11.350
64633SOL    HW195738   5.855  12.866  11.256
64633SOL    HW295739   5.928  12.869  11.388
64634SOL     OW95740  10.780   4.857  14.760
64634SOL    HW195741  10.766   4.950  14.779
64634SOL    HW295742  10.874   4.844  14.775
64635SOL     OW95743   3.809   6.022   9.628
64635SOL    HW195744   3.805   5.971   9.708
64635SOL    HW295745   3.808   6.113   9.657
64636SOL     OW95746  10.396   6.471  10.655
64636SOL    HW195747  10.379   6.493  10.746
64636SOL    HW295748  10.435   6.550  10.617
64637SOL     OW95749   0.158  10.162   1.031
64637SOL    HW195750   0.209  10.127   1.104
64637SOL    HW295751   0.083  10.103   1.023
64638SOL     OW95752   1.005   0.675   3.511
64638SOL    HW195753   1.065   0.728   3.564
64638SOL    HW295754   1.062   0.614   3.463
64639SOL     OW95755  13.090  14.768   2.120
64639SOL    HW195756  13.015  14.821   2.094
64639SOL    HW295757  13.089  14.770   2.216
64640SOL     OW95758   0.115   4.185   3.932
64640SOL    HW195759   0.192   4.184   3.876
64640SOL    HW295760   0.147   4.156   4.017
64641SOL     OW95761   0.245   5.970   5.454
64641SOL    HW195762   0.180   5.919   5.406
64641SOL    HW295763   0.319   5.910   5.465
64642SOL     OW95764   3.197   0.237   1.347
64642SOL    HW195765   3.135   0.165   1.350
64642SOL    HW295766   3.186   0.282   1.431
64643SOL     OW95767  14.177  12.829   9.904
64643SOL    HW195768  14.107  12.772   9.936
64643SOL    HW295769  14.237  12.837   9.978
64644SOL     OW95770  12.144  11.120   2.895
64644SOL    HW195771  12.051  11.103   2.879
64644SOL    HW295772  12.168  11.185   2.828
64645SOL     OW95773  10.167   0.278  10.318
64645SOL    HW195774  10.112   0.250  10.245
64645SOL    HW295775  10.256   0.257  10.289
64646SOL     OW95776   2.732   6.410   3.471
64646SOL    HW195777   2.728   6.383   3.379
64646SOL    HW295778   2.641   6.413   3.499
64647SOL     OW95779  14.351  11.435   9.085
64647SOL    HW195780  14.445  11.444   9.099
64647SOL    HW295781  14.317  11.402   9.168
64648SOL     OW95782  12.363  12.458  11.561
64648SOL    HW195783  12.367  12.365  11.539
64648SOL    HW295784  12.270  12.476  11.575
64649SOL     OW95785  10.605   8.147   5.932
64649SOL    HW195786  10.544   8.073   5.931
64649SOL    HW295787  10.627   8.158   6.025
64650SOL     OW95788  10.303  13.357   5.814
64650SOL    HW195789  10.366  13.342   5.884
64650SOL    HW295790  10.225  13.391   5.858
64651SOL     OW95791   0.754  13.528   9.072
64651SOL    HW195792   0.723  13.451   9.120
64651SOL    HW295793   0.763  13.498   8.982
64652SOL     OW95794  12.358   2.042   6.928
64652SOL    HW195795  12.318   1.988   6.860
64652SOL    HW295796  12.336   1.998   7.010
64653SOL     OW95797   9.733   5.386   4.468
64653SOL    HW195798   9.794   5.315   4.490
64653SOL    HW295799   9.647   5.353   4.495
64654SOL     OW95800  11.215   1.615   1.319
64654SOL    HW195801  11.300   1.603   1.276
64654SOL    HW295802  11.237   1.640   1.409
64655SOL     OW95803   4.799   2.216  11.781
64655SOL    HW195804   4.793   2.259  11.696
64655SOL    HW295805   4.892   2.196  11.792
64656SOL     OW95806   5.049  12.061   8.592
64656SOL    HW195807   5.104  12.137   8.606
64656SOL    HW295808   4.966  12.083   8.633
64657SOL     OW95809   5.669   8.663  10.076
64657SOL    HW195810   5.661   8.754  10.104
64657SOL    HW295811   5.749   8.661  10.024
64658SOL     OW95812   7.179   1.585  14.400
64658SOL    HW195813   7.232   1.610  14.476
64658SOL    HW295814   7.226   1.511  14.361
64659SOL     OW95815  10.580  12.153  13.650
64659SOL    HW195816  10.524  12.190  13.719
64659SOL    HW295817  10.594  12.226  13.589
64660SOL     OW95818  14.182  11.846   1.462
64660SOL    HW195819  14.255  11.884   1.414
64660SOL    HW295820  14.125  11.921   1.482
64661SOL     OW95821  14.226   0.363  10.908
64661SOL    HW195822  14.178   0.298  10.856
64661SOL    HW295823  14.236   0.438  10.849
64662SOL     OW95824   5.841   6.769   2.685
64662SOL    HW195825   5.859   6.863   2.682
64662SOL    HW295826   5.912   6.730   2.634
64663SOL     OW95827  13.412   2.653   2.916
64663SOL    HW195828  13.480   2.646   2.849
64663SOL    HW295829  13.460   2.651   2.999
64664SOL     OW95830   6.066   9.363  10.424
64664SOL    HW195831   5.996   9.370  10.359
64664SOL    HW295832   6.093   9.454  10.439
64665SOL     OW95833  11.735   5.593   7.320
64665SOL    HW195834  11.825   5.619   7.301
64665SOL    HW295835  11.727   5.605   7.415
64666SOL     OW95836   5.701  11.312   9.553
64666SOL    HW195837   5.740  11.225   9.541
64666SOL    HW295838   5.687  11.319   9.648
64667SOL     OW95839   6.766  11.561  11.548
64667SOL    HW195840   6.858  11.534  11.547
64667SOL    HW295841   6.758  11.615  11.626
64668SOL     OW95842   8.045   8.091   4.133
64668SOL    HW195843   8.017   8.052   4.216
64668SOL    HW295844   8.136   8.116   4.148
64669SOL     OW95845  11.049   5.362   0.310
64669SOL    HW195846  11.064   5.347   0.217
64669SOL    HW295847  11.004   5.447   0.314
64670SOL     OW95848   5.391   3.596   8.719
64670SOL    HW195849   5.466   3.653   8.706
64670SOL    HW295850   5.358   3.618   8.806
64671SOL     OW95851   7.880   9.797  10.021
64671SOL    HW195852   7.971   9.775  10.041
64671SOL    HW295853   7.835   9.794  10.106
64672SOL     OW95854   4.238   8.346   4.972
64672SOL    HW195855   4.278   8.428   4.999
64672SOL    HW295856   4.295   8.278   5.008
64673SOL     OW95857  11.779  14.841  14.577
64673SOL    HW195858  11.689  14.872  14.575
64673SOL    HW295859  11.797  14.814  14.487
64674SOL     OW95860   6.768   0.219   6.031
64674SOL    HW195861   6.737   0.129   6.020
64674SOL    HW295862   6.712   0.270   5.973
64675SOL     OW95863   0.559  11.956   7.578
64675SOL    HW195864   0.557  11.917   7.491
64675SOL    HW295865   0.633  12.017   7.576
64676SOL     OW95866   5.534  10.165   2.290
64676SOL    HW195867   5.544  10.079   2.250
64676SOL    HW295868   5.454  10.159   2.342
64677SOL     OW95869   4.368   1.965  14.172
64677SOL    HW195870   4.292   1.984  14.228
64677SOL    HW295871   4.333   1.965  14.083
64678SOL     OW95872   7.711   9.033  10.011
64678SOL    HW195873   7.638   9.081   9.972
64678SOL    HW295874   7.698   8.942   9.985
64679SOL     OW95875  10.019   7.201   0.733
64679SOL    HW195876   9.927   7.187   0.754
64679SOL    HW295877  10.040   7.285   0.773
64680SOL     OW95878   9.504   3.805  10.751
64680SOL    HW195879   9.432   3.750  10.781
64680SOL    HW295880   9.480   3.894  10.780
64681SOL     OW95881   5.488   0.745  14.576
64681SOL    HW195882   5.478   0.669  14.518
64681SOL    HW295883   5.508   0.818  14.518
64682SOL     OW95884   4.941   4.637  12.310
64682SOL    HW195885   4.967   4.657  12.220
64682SOL    HW295886   4.882   4.709  12.334
64683SOL     OW95887   5.505   8.597   4.973
64683SOL    HW195888   5.518   8.578   4.880
64683SOL    HW295889   5.420   8.558   4.994
64684SOL     OW95890  10.248  14.389   8.934
64684SOL    HW195891  10.329  14.341   8.914
64684SOL    HW295892  10.267  14.433   9.017
64685SOL     OW95893   4.037   4.164   9.219
64685SOL    HW195894   4.085   4.227   9.165
64685SOL    HW295895   3.955   4.150   9.172
64686SOL     OW95896   9.154  13.406   1.645
64686SOL    HW195897   9.232  13.398   1.590
64686SOL    HW295898   9.084  13.365   1.593
64687SOL     OW95899   9.083   2.775   3.341
64687SOL    HW195900   9.019   2.825   3.290
64687SOL    HW295901   9.044   2.768   3.428
64688SOL     OW95902   6.710  14.288   3.394
64688SOL    HW195903   6.707  14.288   3.489
64688SOL    HW295904   6.647  14.355   3.368
64689SOL     OW95905   1.312   4.455   1.516
64689SOL    HW195906   1.284   4.469   1.425
64689SOL    HW295907   1.272   4.527   1.564
64690SOL     OW95908   6.055   4.043   5.621
64690SOL    HW195909   6.013   4.017   5.540
64690SOL    HW295910   6.001   4.004   5.690
64691SOL     OW95911   0.198  14.477  11.524
64691SOL    HW195912   0.148  14.410  11.477
64691SOL    HW295913   0.152  14.486  11.608
64692SOL     OW95914   1.425   4.524   6.526
64692SOL    HW195915   1.466   4.534   6.440
64692SOL    HW295916   1.494   4.487   6.581
64693SOL     OW95917   0.308  10.276  11.177
64693SOL    HW195918   0.319  10.370  11.166
64693SOL    HW295919   0.220  10.257  11.145
64694SOL     OW95920   2.316   9.517   0.193
64694SOL    HW195921   2.410   9.505   0.183
64694SOL    HW295922   2.305   9.609   0.218
64695SOL     OW95923   5.399   9.987  12.432
64695SOL    HW195924   5.419  10.079  12.415
64695SOL    HW295925   5.469   9.957  12.489
64696SOL     OW95926   1.022  14.050   9.976
64696SOL    HW195927   0.976  14.127  10.009
64696SOL    HW295928   0.969  14.021   9.901
64697SOL     OW95929   3.406  13.207   3.562
64697SOL    HW195930   3.335  13.225   3.624
64697SOL    HW295931   3.387  13.119   3.529
64698SOL     OW95932  14.289   3.213   6.102
64698SOL    HW195933  14.373   3.245   6.133
64698SOL    HW295934  14.242   3.186   6.180
64699SOL     OW95935   1.740   6.785   8.443
64699SOL    HW195936   1.687   6.865   8.443
64699SOL    HW295937   1.725   6.747   8.530
64700SOL     OW95938   6.429  12.033   7.589
64700SOL    HW195939   6.455  12.080   7.668
64700SOL    HW295940   6.451  11.942   7.607
64701SOL     OW95941   0.428   4.819   3.574
64701SOL    HW195942   0.488   4.894   3.571
64701SOL    HW295943   0.464   4.762   3.642
64702SOL     OW95944   8.756   7.716  13.480
64702SOL    HW195945   8.769   7.683  13.569
64702SOL    HW295946   8.823   7.671  13.428
64703SOL     OW95947   5.023  14.239   2.296
64703SOL    HW195948   5.108  14.218   2.259
64703SOL    HW295949   5.013  14.176   2.368
64704SOL     OW95950   0.839  11.162  14.513
64704SOL    HW195951   0.879  11.205  14.588
64704SOL    HW295952   0.812  11.234  14.455
64705SOL     OW95953   8.770  12.746   4.199
64705SOL    HW195954   8.687  12.707   4.224
64705SOL    HW295955   8.799  12.693   4.124
64706SOL     OW95956  13.765   3.005   2.926
64706SOL    HW195957  13.703   2.991   2.854
64706SOL    HW295958  13.720   3.064   2.986
64707SOL     OW95959   7.890  12.222  11.392
64707SOL    HW195960   7.804  12.225  11.434
64707SOL    HW295961   7.910  12.314  11.372
64708SOL     OW95962   8.999  12.664   4.337
64708SOL    HW195963   9.014  12.727   4.408
64708SOL    HW295964   8.916  12.691   4.298
64709SOL     OW95965   6.720  10.507  12.222
64709SOL    HW195966   6.705  10.602  12.225
64709SOL    HW295967   6.676  10.474  12.301
64710SOL     OW95968   8.153   6.894  14.046
64710SOL    HW195969   8.095   6.971  14.053
64710SOL    HW295970   8.239   6.927  14.069
64711SOL     OW95971   1.646   7.233   4.320
64711SOL    HW195972   1.573   7.261   4.375
64711SOL    HW295973   1.686   7.161   4.368
64712SOL     OW95974   8.425   6.312   0.316
64712SOL    HW195975   8.424   6.386   0.256
64712SOL    HW295976   8.419   6.351   0.403
64713SOL     OW95977  11.478   7.643   7.935
64713SOL    HW195978  11.413   7.588   7.979
64713SOL    HW295979  11.555   7.586   7.927
64714SOL     OW95980   0.139   3.418   0.486
64714SOL    HW195981   0.195   3.495   0.481
64714SOL    HW295982   0.150   3.386   0.576
64715SOL     OW95983  11.386  12.320   0.919
64715SOL    HW195984  11.366  12.234   0.882
64715SOL    HW295985  11.322  12.379   0.877
64716SOL     OW95986   1.760   4.798   3.291
64716SOL    HW195987   1.667   4.780   3.306
64716SOL    HW295988   1.785   4.738   3.221
64717SOL     OW95989   9.861   9.511   5.860
64717SOL    HW195990   9.889   9.583   5.804
64717SOL    HW295991   9.938   9.456   5.868
64718SOL     OW95992   5.281   5.687   8.867
64718SOL    HW195993   5.375   5.681   8.846
64718SOL    HW295994   5.276   5.662   8.959
64719SOL     OW95995   4.438  14.383   5.800
64719SOL    HW195996   4.388  14.381   5.718
64719SOL    HW295997   4.519  14.337   5.780
64720SOL     OW95998   7.045  10.001  10.054
64720SOL    HW195999   7.093  10.080  10.032
64720SOL    HW296000   7.052   9.946   9.975
64721SOL     OW96001  12.119  11.717   0.518
64721SOL    HW196002  12.140  11.776   0.590
64721SOL    HW296003  12.073  11.771   0.454
64722SOL     OW96004   1.923  12.440  14.816
64722SOL    HW196005   1.979  12.517  14.827
64722SOL    HW296006   1.946  12.407  14.730
64723SOL     OW96007   8.107   3.832   3.093
64723SOL    HW196008   8.193   3.796   3.071
64723SOL    HW296009   8.090   3.801   3.182
64724SOL     OW96010   9.366   0.335   2.400
64724SOL    HW196011   9.418   0.407   2.435
64724SOL    HW296012   9.360   0.272   2.472
64725SOL     OW96013  12.396   9.145  12.094
64725SOL    HW196014  12.465   9.200  12.057
64725SOL    HW296015  12.335   9.206  12.135
64726SOL     OW96016   8.136   4.270  13.697
64726SOL    HW196017   8.232   4.275  13.702
64726SOL    HW296018   8.118   4.177  13.682
64727SOL     OW96019   1.510   3.371  14.355
64727SOL    HW196020   1.497   3.450  14.302
64727SOL    HW296021   1.443   3.376  14.423
64728SOL     OW96022  14.505   0.511   4.203
64728SOL    HW196023  14.422   0.528   4.157
64728SOL    HW296024  14.487   0.436   4.260
64729SOL     OW96025   6.759   9.864  13.586
64729SOL    HW196026   6.803   9.924  13.645
64729SOL    HW296027   6.828   9.832  13.528
64730SOL     OW96028   4.457   5.862  13.337
64730SOL    HW196029   4.515   5.891  13.267
64730SOL    HW296030   4.473   5.923  13.409
64731SOL     OW96031   4.490   6.543   7.800
64731SOL    HW196032   4.491   6.473   7.865
64731SOL    HW296033   4.579   6.545   7.765
64732SOL     OW96034   3.637  14.704   4.443
64732SOL    HW196035   3.606  14.635   4.503
64732SOL    HW296036   3.572  14.773   4.451
64733SOL     OW96037   8.135   6.726   7.551
64733SOL    HW196038   8.179   6.769   7.479
64733SOL    HW296039   8.044   6.756   7.545
64734SOL     OW96040   3.844   2.768   4.998
64734SOL    HW196041   3.934   2.761   5.029
64734SOL    HW296042   3.845   2.842   4.937
64735SOL     OW96043   1.200  11.878   7.146
64735SOL    HW196044   1.289  11.850   7.166
64735SOL    HW296045   1.208  11.971   7.128
64736SOL     OW96046   2.398  10.533   5.713
64736SOL    HW196047   2.468  10.551   5.651
64736SOL    HW296048   2.439  10.482   5.782
64737SOL     OW96049   1.126   3.924   1.607
64737SOL    HW196050   1.052   3.949   1.552
64737SOL    HW296051   1.147   4.002   1.657
64738SOL     OW96052   6.250   4.173   4.279
64738SOL    HW196053   6.228   4.251   4.229
64738SOL    HW296054   6.220   4.192   4.368
64739SOL     OW96055   6.858   5.850   3.073
64739SOL    HW196056   6.950   5.825   3.079
64739SOL    HW296057   6.816   5.774   3.032
64740SOL     OW96058  13.774   8.083   4.039
64740SOL    HW196059  13.863   8.058   4.063
64740SOL    HW296060  13.740   8.009   3.989
64741SOL     OW96061  11.005  10.162   0.998
64741SOL    HW196062  10.922  10.172   0.951
64741SOL    HW296063  11.066  10.219   0.950
64742SOL     OW96064  13.544   3.424   0.542
64742SOL    HW196065  13.603   3.395   0.473
64742SOL    HW296066  13.545   3.520   0.537
64743SOL     OW96067  12.713  11.944  12.639
64743SOL    HW196068  12.618  11.930  12.634
64743SOL    HW296069  12.723  12.031  12.677
64744SOL     OW96070   8.254  11.574   1.906
64744SOL    HW196071   8.235  11.482   1.887
64744SOL    HW296072   8.334  11.593   1.858
64745SOL     OW96073  10.334   4.449   9.379
64745SOL    HW196074  10.312   4.425   9.469
64745SOL    HW296075  10.265   4.410   9.326
64746SOL     OW96076  10.621   2.151   9.934
64746SOL    HW196077  10.652   2.198   9.856
64746SOL    HW296078  10.653   2.204  10.008
64747SOL     OW96079  11.182  11.060   1.023
64747SOL    HW196080  11.161  10.968   1.043
64747SOL    HW296081  11.169  11.106   1.106
64748SOL     OW96082   7.554   9.227   2.593
64748SOL    HW196083   7.625   9.253   2.534
64748SOL    HW296084   7.591   9.236   2.681
64749SOL     OW96085   7.928   3.891  14.440
64749SOL    HW196086   7.992   3.963  14.439
64749SOL    HW296087   7.869   3.913  14.511
64750SOL     OW96088   4.837   4.124  10.587
64750SOL    HW196089   4.780   4.199  10.601
64750SOL    HW296090   4.810   4.061  10.653
64751SOL     OW96091   5.510   3.977  11.832
64751SOL    HW196092   5.527   3.957  11.924
64751SOL    HW296093   5.597   3.983  11.793
64752SOL     OW96094   1.434  10.962   1.458
64752SOL    HW196095   1.489  10.990   1.385
64752SOL    HW296096   1.491  10.968   1.535
64753SOL     OW96097   0.979  14.258   9.293
64753SOL    HW196098   0.913  14.301   9.348
64753SOL    HW296099   1.063  14.288   9.328
64754SOL     OW96100   2.633  11.553   7.455
64754SOL    HW196101   2.672  11.495   7.390
64754SOL    HW296102   2.541  11.525   7.460
64755SOL     OW96103   6.119  13.717  11.267
64755SOL    HW196104   6.164  13.661  11.331
64755SOL    HW296105   6.063  13.657  11.219
64756SOL     OW96106   6.660  11.550   4.151
64756SOL    HW196107   6.587  11.513   4.102
64756SOL    HW296108   6.713  11.595   4.085
64757SOL     OW96109   0.826   9.382   7.589
64757SOL    HW196110   0.894   9.390   7.655
64757SOL    HW296111   0.858   9.433   7.515
64758SOL     OW96112   4.542  11.371   7.192
64758SOL    HW196113   4.514  11.461   7.175
64758SOL    HW296114   4.501  11.320   7.122
64759SOL     OW96115  11.129   1.488   6.344
64759SOL    HW196116  11.149   1.550   6.273
64759SOL    HW296117  11.191   1.416   6.332
64760SOL     OW96118  10.293   6.528   6.369
64760SOL    HW196119  10.374   6.483   6.346
64760SOL    HW296120  10.236   6.460   6.403
64761SOL     OW96121   7.960  13.399   0.109
64761SOL    HW196122   8.016  13.419   0.033
64761SOL    HW296123   7.921  13.314   0.088
64762SOL     OW96124  12.254   8.467   4.468
64762SOL    HW196125  12.237   8.534   4.535
64762SOL    HW296126  12.334   8.496   4.425
64763SOL     OW96127  14.751   6.090   0.856
64763SOL    HW196128  14.815   6.154   0.824
64763SOL    HW296129  14.670   6.114   0.812
64764SOL     OW96130  11.870  14.445   7.111
64764SOL    HW196131  11.869  14.487   7.025
64764SOL    HW296132  11.963  14.428   7.128
64765SOL     OW96133   5.863   3.016   7.448
64765SOL    HW196134   5.825   2.956   7.512
64765SOL    HW296135   5.875   2.962   7.370
64766SOL     OW96136   6.091   4.003   0.172
64766SOL    HW196137   6.028   4.044   0.232
64766SOL    HW296138   6.043   3.930   0.133
64767SOL     OW96139  13.141  11.909   6.506
64767SOL    HW196140  13.069  11.937   6.562
64767SOL    HW296141  13.212  11.889   6.566
64768SOL     OW96142   2.228  11.847   4.514
64768SOL    HW196143   2.300  11.870   4.456
64768SOL    HW296144   2.182  11.776   4.469
64769SOL     OW96145  10.787  11.348   7.336
64769SOL    HW196146  10.724  11.311   7.274
64769SOL    HW296147  10.772  11.302   7.418
64770SOL     OW96148   7.426   3.482   6.449
64770SOL    HW196149   7.335   3.492   6.422
64770SOL    HW296150   7.424   3.492   6.545
64771SOL     OW96151   9.770   8.736  11.633
64771SOL    HW196152   9.748   8.763  11.722
64771SOL    HW296153   9.699   8.677  11.608
64772SOL     OW96154  12.045   0.870   4.505
64772SOL    HW196155  12.066   0.961   4.527
64772SOL    HW296156  12.052   0.866   4.410
64773SOL     OW96157   3.434  12.600   7.048
64773SOL    HW196158   3.424  12.509   7.076
64773SOL    HW296159   3.366  12.647   7.097
64774SOL     OW96160   5.596   8.137   4.398
64774SOL    HW196161   5.551   8.219   4.416
64774SOL    HW296162   5.688   8.156   4.417
64775SOL     OW96163  13.959   0.573   3.934
64775SOL    HW196164  13.870   0.576   3.970
64775SOL    HW296165  13.956   0.505   3.867
64776SOL     OW96166   6.098   5.251  14.520
64776SOL    HW196167   6.188   5.230  14.545
64776SOL    HW296168   6.054   5.166  14.518
64777SOL     OW96169  10.168   1.780   5.667
64777SOL    HW196170  10.193   1.865   5.631
64777SOL    HW296171  10.073   1.775   5.652
64778SOL     OW96172   0.415   1.818   9.683
64778SOL    HW196173   0.416   1.842   9.590
64778SOL    HW296174   0.438   1.899   9.729
64779SOL     OW96175   2.139   2.730   3.195
64779SOL    HW196176   2.116   2.647   3.236
64779SOL    HW296177   2.109   2.721   3.104
64780SOL     OW96178  10.043   1.724   3.394
64780SOL    HW196179   9.967   1.769   3.431
64780SOL    HW296180  10.101   1.794   3.364
64781SOL     OW96181  13.829   5.578   7.338
64781SOL    HW196182  13.904   5.521   7.350
64781SOL    HW296183  13.845   5.623   7.255
64782SOL     OW96184   3.793   3.583   8.328
64782SOL    HW196185   3.708   3.553   8.361
64782SOL    HW296186   3.856   3.552   8.392
64783SOL     OW96187  11.549  14.078  13.809
64783SOL    HW196188  11.567  14.150  13.870
64783SOL    HW296189  11.561  14.117  13.722
64784SOL     OW96190   9.046   6.564   8.431
64784SOL    HW196191   9.045   6.482   8.481
64784SOL    HW296192   9.062   6.536   8.341
64785SOL     OW96193  14.848  13.814  12.645
64785SOL    HW196194  14.770  13.844  12.691
64785SOL    HW296195  14.848  13.719  12.656
64786SOL     OW96196  14.601   9.182  14.646
64786SOL    HW196197  14.628   9.196  14.737
64786SOL    HW296198  14.585   9.270  14.612
64787SOL     OW96199   3.365   9.984   1.292
64787SOL    HW196200   3.283  10.028   1.270
64787SOL    HW296201   3.420   9.995   1.214
64788SOL     OW96202   2.764   8.132   4.378
64788SOL    HW196203   2.687   8.180   4.347
64788SOL    HW296204   2.838   8.189   4.358
64789SOL     OW96205   2.846   9.523   7.486
64789SOL    HW196206   2.931   9.479   7.483
64789SOL    HW296207   2.783   9.454   7.461
64790SOL     OW96208  11.325   5.722   2.917
64790SOL    HW196209  11.229   5.720   2.913
64790SOL    HW296210  11.348   5.637   2.956
64791SOL     OW96211  14.286   9.064   3.221
64791SOL    HW196212  14.227   9.115   3.166
64791SOL    HW296213  14.302   9.121   3.297
64792SOL     OW96214   3.287  10.625   2.807
64792SOL    HW196215   3.364  10.601   2.755
64792SOL    HW296216   3.292  10.721   2.814
64793SOL     OW96217   1.302   1.837  14.748
64793SOL    HW196218   1.381   1.820  14.799
64793SOL    HW296219   1.311   1.928  14.720
64794SOL     OW96220  13.169   5.192   4.406
64794SOL    HW196221  13.151   5.102   4.433
64794SOL    HW296222  13.260   5.207   4.433
64795SOL     OW96223   2.056   9.748   2.768
64795SOL    HW196224   2.066   9.686   2.840
64795SOL    HW296225   2.020   9.695   2.696
64796SOL     OW96226  10.473  14.640   3.354
64796SOL    HW196227  10.391  14.659   3.399
64796SOL    HW296228  10.541  14.653   3.420
64797SOL     OW96229   6.323  10.119   3.156
64797SOL    HW196230   6.385  10.053   3.187
64797SOL    HW296231   6.260  10.071   3.103
64798SOL     OW96232  11.703  10.530   0.939
64798SOL    HW196233  11.724  10.454   0.885
64798SOL    HW296234  11.687  10.601   0.876
64799SOL     OW96235   5.158  12.519  13.830
64799SOL    HW196236   5.082  12.484  13.784
64799SOL    HW296237   5.230  12.510  13.767
64800SOL     OW96238  10.253  13.429   7.738
64800SOL    HW196239  10.182  13.486   7.709
64800SOL    HW296240  10.262  13.447   7.832
64801SOL     OW96241   2.229   8.630   5.640
64801SOL    HW196242   2.313   8.585   5.651
64801SOL    HW296243   2.167   8.559   5.621
64802SOL     OW96244   9.532   6.817  10.432
64802SOL    HW196245   9.455   6.870  10.410
64802SOL    HW296246   9.538   6.754  10.360
64803SOL     OW96247   8.379   5.644  14.530
64803SOL    HW196248   8.377   5.573  14.594
64803SOL    HW296249   8.411   5.603  14.449
64804SOL     OW96250   4.271  14.341  10.118
64804SOL    HW196251   4.184  14.300  10.110
64804SOL    HW296252   4.254  14.425  10.161
64805SOL     OW96253   2.870   9.232  10.291
64805SOL    HW196254   2.823   9.153  10.317
64805SOL    HW296255   2.962   9.212  10.308
64806SOL     OW96256  14.501   4.634  11.488
64806SOL    HW196257  14.472   4.651  11.578
64806SOL    HW296258  14.580   4.581  11.499
64807SOL     OW96259   7.210   6.043   0.637
64807SOL    HW196260   7.269   5.969   0.622
64807SOL    HW296261   7.227   6.069   0.728
64808SOL     OW96262   9.060  11.227   2.923
64808SOL    HW196263   9.021  11.251   3.007
64808SOL    HW296264   8.986  11.226   2.862
64809SOL     OW96265   9.776  11.766   9.848
64809SOL    HW196266   9.812  11.695   9.901
64809SOL    HW296267   9.682  11.764   9.866
64810SOL     OW96268   0.211   6.935  13.645
64810SOL    HW196269   0.121   6.944  13.615
64810SOL    HW296270   0.232   7.020  13.684
64811SOL     OW96271  11.075   5.372  10.219
64811SOL    HW196272  11.037   5.340  10.137
64811SOL    HW296273  11.166   5.392  10.196
64812SOL     OW96274   4.938  12.706   9.051
64812SOL    HW196275   5.025  12.686   9.086
64812SOL    HW296276   4.878  12.691   9.124
64813SOL     OW96277   6.258  12.444   9.199
64813SOL    HW196278   6.286  12.353   9.189
64813SOL    HW296279   6.216  12.447   9.284
64814SOL     OW96280   0.345   0.586   0.718
64814SOL    HW196281   0.277   0.519   0.731
64814SOL    HW296282   0.375   0.572   0.629
64815SOL     OW96283   3.286  14.461  11.025
64815SOL    HW196284   3.322  14.523  11.089
64815SOL    HW296285   3.341  14.384  11.034
64816SOL     OW96286  13.831   5.835   2.105
64816SOL    HW196287  13.757   5.889   2.132
64816SOL    HW296288  13.871   5.883   2.032
64817SOL     OW96289  13.390   2.480   5.263
64817SOL    HW196290  13.299   2.497   5.288
64817SOL    HW296291  13.439   2.482   5.345
64818SOL     OW96292   4.836  11.031   7.164
64818SOL    HW196293   4.867  10.956   7.112
64818SOL    HW296294   4.798  11.091   7.100
64819SOL     OW96295  14.245   0.955   3.279
64819SOL    HW196296  14.190   1.005   3.340
64819SOL    HW296297  14.332   0.994   3.288
64820SOL     OW96298   0.736  11.541   6.990
64820SOL    HW196299   0.740  11.476   7.060
64820SOL    HW296300   0.826  11.573   6.982
64821SOL     OW96301  14.007   7.889   7.329
64821SOL    HW196302  14.034   7.969   7.375
64821SOL    HW296303  13.917   7.874   7.359
64822SOL     OW96304   3.421  14.081   4.070
64822SOL    HW196305   3.371  14.079   3.989
64822SOL    HW296306   3.488  14.013   4.059
64823SOL     OW96307   6.798   0.920   0.778
64823SOL    HW196308   6.865   0.858   0.805
64823SOL    HW296309   6.843   1.005   0.776
64824SOL     OW96310  14.039   7.195   0.223
64824SOL    HW196311  13.981   7.122   0.245
64824SOL    HW296312  13.989   7.273   0.242
64825SOL     OW96313   2.977  13.417   1.970
64825SOL    HW196314   3.005  13.508   1.979
64825SOL    HW296315   3.008  13.390   1.884
64826SOL     OW96316  12.706   7.941   6.574
64826SOL    HW196317  12.669   7.855   6.553
64826SOL    HW296318  12.739   7.931   6.664
64827SOL     OW96319   8.904  11.745   5.502
64827SOL    HW196320   8.842  11.684   5.462
64827SOL    HW296321   8.984  11.735   5.451
64828SOL     OW96322  14.498   3.054  12.343
64828SOL    HW196323  14.431   2.997  12.305
64828SOL    HW296324  14.453   3.137  12.360
64829SOL     OW96325   8.215   9.617   7.080
64829SOL    HW196326   8.235   9.526   7.102
64829SOL    HW296327   8.261   9.632   6.997
64830SOL     OW96328   8.112  12.385   4.730
64830SOL    HW196329   8.162  12.411   4.653
64830SOL    HW296330   8.178  12.375   4.799
64831SOL     OW96331   0.386   4.870   2.330
64831SOL    HW196332   0.310   4.880   2.272
64831SOL    HW296333   0.457   4.842   2.273
64832SOL     OW96334   7.596  14.361   1.762
64832SOL    HW196335   7.558  14.428   1.819
64832SOL    HW296336   7.691  14.371   1.773
64833SOL     OW96337   3.133   1.107  12.534
64833SOL    HW196338   3.224   1.134  12.543
64833SOL    HW296339   3.138   1.012  12.519
64834SOL     OW96340   9.093   3.457   4.642
64834SOL    HW196341   9.087   3.482   4.734
64834SOL    HW296342   9.003   3.455   4.611
64835SOL     OW96343   8.607   4.745   8.719
64835SOL    HW196344   8.671   4.803   8.678
64835SOL    HW296345   8.607   4.769   8.811
64836SOL     OW96346  12.488   8.502   1.042
64836SOL    HW196347  12.560   8.440   1.035
64836SOL    HW296348  12.421   8.455   1.092
64837SOL     OW96349   9.895  10.684  12.246
64837SOL    HW196350   9.882  10.773  12.213
64837SOL    HW296351   9.966  10.648  12.191
64838SOL     OW96352   9.779   1.282   4.736
64838SOL    HW196353   9.794   1.238   4.652
64838SOL    HW296354   9.684   1.277   4.749
64839SOL     OW96355   7.144  12.584   9.488
64839SOL    HW196356   7.096  12.539   9.418
64839SOL    HW296357   7.157  12.516   9.554
64840SOL     OW96358  11.669   7.737   4.577
64840SOL    HW196359  11.719   7.751   4.657
64840SOL    HW296360  11.601   7.674   4.601
64841SOL     OW96361   9.255   5.584   1.757
64841SOL    HW196362   9.241   5.526   1.831
64841SOL    HW296363   9.255   5.672   1.794
64842SOL     OW96364   7.571   0.003   5.896
64842SOL    HW196365   7.509   0.061   5.939
64842SOL    HW296366   7.618  14.835   5.968
64843SOL     OW96367   1.403   0.190   2.320
64843SOL    HW196368   1.411   0.254   2.249
64843SOL    HW296369   1.314   0.203   2.354
64844SOL     OW96370  12.693   3.592   1.921
64844SOL    HW196371  12.773   3.643   1.911
64844SOL    HW296372  12.701   3.550   2.006
64845SOL     OW96373   8.022  11.947   9.032
64845SOL    HW196374   7.949  11.908   8.984
64845SOL    HW296375   8.053  11.878   9.090
64846SOL     OW96376   0.092   5.769   7.773
64846SOL    HW196377   0.074   5.678   7.749
64846SOL    HW296378   0.167   5.793   7.719
64847SOL     OW96379   1.299   8.688  14.556
64847SOL    HW196380   1.321   8.781  14.543
64847SOL    HW296381   1.204   8.688  14.568
64848SOL     OW96382  12.916  12.679   2.119
64848SOL    HW196383  12.976  12.626   2.067
64848SOL    HW296384  12.839  12.623   2.131
64849SOL     OW96385   4.293   7.572   1.816
64849SOL    HW196386   4.278   7.623   1.895
64849SOL    HW296387   4.273   7.482   1.842
64850SOL     OW96388   2.107   8.923  10.506
64850SOL    HW196389   2.139   8.845  10.460
64850SOL    HW296390   2.056   8.970  10.439
64851SOL     OW96391  10.074   1.693  10.182
64851SOL    HW196392  10.072   1.778  10.138
64851SOL    HW296393   9.983   1.676  10.206
64852SOL     OW96394  14.759   7.285  11.350
64852SOL    HW196395  14.743   7.254  11.261
64852SOL    HW296396  14.781   7.205  11.398
64853SOL     OW96397   2.756  12.825   7.684
64853SOL    HW196398   2.720  12.762   7.746
64853SOL    HW296399   2.737  12.910   7.722
64854SOL     OW96400  12.594   3.152   8.792
64854SOL    HW196401  12.613   3.141   8.885
64854SOL    HW296402  12.635   3.077   8.750
64855SOL     OW96403   0.668   6.028   7.000
64855SOL    HW196404   0.697   6.027   7.091
64855SOL    HW296405   0.577   5.996   7.004
64856SOL     OW96406   5.979   6.542  13.945
64856SOL    HW196407   5.940   6.524  13.859
64856SOL    HW296408   5.906   6.570  13.999
64857SOL     OW96409   3.602   0.977   2.778
64857SOL    HW196410   3.689   0.962   2.741
64857SOL    HW296411   3.603   0.931   2.862
64858SOL     OW96412   7.863   3.856   1.083
64858SOL    HW196413   7.904   3.799   1.017
64858SOL    HW296414   7.776   3.874   1.048
64859SOL     OW96415   8.282   3.019   3.295
64859SOL    HW196416   8.206   3.077   3.293
64859SOL    HW296417   8.278   2.970   3.214
64860SOL     OW96418  11.408   5.964  10.037
64860SOL    HW196419  11.427   5.937  10.127
64860SOL    HW296420  11.491   5.956   9.991
64861SOL     OW96421  10.363   9.448  13.825
64861SOL    HW196422  10.385   9.415  13.913
64861SOL    HW296423  10.317   9.531  13.841
64862SOL     OW96424   1.535   7.508   3.989
64862SOL    HW196425   1.528   7.460   3.907
64862SOL    HW296426   1.629   7.527   3.997
64863SOL     OW96427   5.882   6.102   2.463
64863SOL    HW196428   5.944   6.150   2.408
64863SOL    HW296429   5.796   6.128   2.430
64864SOL     OW96430   3.921   1.312   9.379
64864SOL    HW196431   3.929   1.244   9.313
64864SOL    HW296432   3.860   1.375   9.341
64865SOL     OW96433   9.097   1.695   1.613
64865SOL    HW196434   9.030   1.763   1.623
64865SOL    HW296435   9.148   1.701   1.694
64866SOL     OW96436  13.362   3.462   0.003
64866SOL    HW196437  13.268   3.484   0.005
64866SOL    HW296438  13.397   3.514  14.805
64867SOL     OW96439   9.396   1.136   5.844
64867SOL    HW196440   9.338   1.186   5.786
64867SOL    HW296441   9.358   1.049   5.845
64868SOL     OW96442   6.651  13.744   5.955
64868SOL    HW196443   6.708  13.771   6.026
64868SOL    HW296444   6.563  13.749   5.992
64869SOL     OW96445   1.408   7.629  10.091
64869SOL    HW196446   1.429   7.607  10.000
64869SOL    HW296447   1.469   7.699  10.113
64870SOL     OW96448   2.243   6.497   2.241
64870SOL    HW196449   2.249   6.571   2.179
64870SOL    HW296450   2.316   6.512   2.302
64871SOL     OW96451  13.440  11.233  12.823
64871SOL    HW196452  13.375  11.188  12.877
64871SOL    HW296453  13.390  11.274  12.753
64872SOL     OW96454   2.853   4.208   9.283
64872SOL    HW196455   2.912   4.174   9.216
64872SOL    HW296456   2.909   4.258   9.342
64873SOL     OW96457   2.148   9.875   5.507
64873SOL    HW196458   2.080   9.808   5.501
64873SOL    HW296459   2.108   9.954   5.471
64874SOL     OW96460   1.217  10.235  11.556
64874SOL    HW196461   1.186  10.209  11.469
64874SOL    HW296462   1.309  10.209  11.557
64875SOL     OW96463   3.641   9.052   7.121
64875SOL    HW196464   3.585   9.123   7.153
64875SOL    HW296465   3.585   8.975   7.125
64876SOL     OW96466  14.374   8.669   4.272
64876SOL    HW196467  14.352   8.761   4.289
64876SOL    HW296468  14.290   8.627   4.255
64877SOL     OW96469  14.613   1.498   3.181
64877SOL    HW196470  14.625   1.428   3.117
64877SOL    HW296471  14.671   1.475   3.254
64878SOL     OW96472   1.726   2.198  10.716
64878SOL    HW196473   1.710   2.293  10.711
64878SOL    HW296474   1.804   2.184  10.664
64879SOL     OW96475   9.930   5.064  10.207
64879SOL    HW196476   9.938   5.152  10.244
64879SOL    HW296477   9.982   5.067  10.126
64880SOL     OW96478   1.878  11.338  14.710
64880SOL    HW196479   1.970  11.323  14.731
64880SOL    HW296480   1.866  11.298  14.624
64881SOL     OW96481  11.762   5.390   0.013
64881SOL    HW196482  11.755   5.299  14.858
64881SOL    HW296483  11.755   5.385   0.108
64882SOL     OW96484   5.948   6.146   6.222
64882SOL    HW196485   5.975   6.197   6.146
64882SOL    HW296486   5.890   6.078   6.186
64883SOL     OW96487  10.177   5.043   8.609
64883SOL    HW196488  10.146   5.013   8.524
64883SOL    HW296489  10.220   5.126   8.592
64884SOL     OW96490  10.529   9.723  13.195
64884SOL    HW196491  10.613   9.765  13.215
64884SOL    HW296492  10.464   9.792  13.209
64885SOL     OW96493   2.152   6.821  11.002
64885SOL    HW196494   2.110   6.742  10.966
64885SOL    HW296495   2.169   6.799  11.093
64886SOL     OW96496   6.401   8.557   8.231
64886SOL    HW196497   6.405   8.512   8.315
64886SOL    HW296498   6.490   8.589   8.217
64887SOL     OW96499   6.850   5.599   4.161
64887SOL    HW196500   6.825   5.687   4.132
64887SOL    HW296501   6.796   5.540   4.107
64888SOL     OW96502   5.252   1.649   6.031
64888SOL    HW196503   5.300   1.636   5.949
64888SOL    HW296504   5.275   1.574   6.085
64889SOL     OW96505   0.288  13.513   6.899
64889SOL    HW196506   0.217  13.556   6.851
64889SOL    HW296507   0.312  13.439   6.844
64890SOL     OW96508   3.715   2.415   7.116
64890SOL    HW196509   3.771   2.481   7.073
64890SOL    HW296510   3.749   2.409   7.205
64891SOL     OW96511   7.579   2.139   7.219
64891SOL    HW196512   7.643   2.084   7.264
64891SOL    HW296513   7.502   2.082   7.208
64892SOL     OW96514  12.677   3.742   3.289
64892SOL    HW196515  12.612   3.675   3.269
64892SOL    HW296516  12.680   3.746   3.385
64893SOL     OW96517   2.827   8.098   8.469
64893SOL    HW196518   2.872   8.057   8.394
64893SOL    HW296519   2.861   8.187   8.471
64894SOL     OW96520  13.856   5.039  14.688
64894SOL    HW196521  13.821   4.951  14.669
64894SOL    HW296522  13.908   5.027  14.768
64895SOL     OW96523   8.934   0.582   6.187
64895SOL    HW196524   8.903   0.645   6.253
64895SOL    HW296525   9.026   0.605   6.173
64896SOL     OW96526  10.187   2.980   1.473
64896SOL    HW196527  10.193   2.972   1.568
64896SOL    HW296528  10.122   3.049   1.459
64897SOL     OW96529  14.636   2.747   1.804
64897SOL    HW196530  14.591   2.830   1.786
64897SOL    HW296531  14.659   2.751   1.897
64898SOL     OW96532   7.313   8.690  12.118
64898SOL    HW196533   7.372   8.745  12.169
64898SOL    HW296534   7.296   8.615  12.175
64899SOL     OW96535  11.224   8.261   6.394
64899SOL    HW196536  11.128   8.257   6.402
64899SOL    HW296537  11.250   8.172   6.372
64900SOL     OW96538   8.920   4.161   4.140
64900SOL    HW196539   8.840   4.191   4.183
64900SOL    HW296540   8.973   4.126   4.211
64901SOL     OW96541   1.710  12.695   3.328
64901SOL    HW196542   1.714  12.769   3.388
64901SOL    HW296543   1.617  12.684   3.308
64902SOL     OW96544   1.995  14.372   4.722
64902SOL    HW196545   1.977  14.316   4.798
64902SOL    HW296546   1.928  14.347   4.658
64903SOL     OW96547   7.063   9.355  12.954
64903SOL    HW196548   7.113   9.370  12.874
64903SOL    HW296549   7.060   9.260  12.963
64904SOL     OW96550   2.710   1.414  14.195
64904SOL    HW196551   2.715   1.510  14.201
64904SOL    HW296552   2.656   1.398  14.117
64905SOL     OW96553   7.753   7.138   1.636
64905SOL    HW196554   7.741   7.140   1.731
64905SOL    HW296555   7.843   7.169   1.623
64906SOL     OW96556  12.696   9.189   4.067
64906SOL    HW196557  12.775   9.217   4.114
64906SOL    HW296558  12.679   9.259   4.004
64907SOL     OW96559   5.863   0.267   4.950
64907SOL    HW196560   5.948   0.227   4.932
64907SOL    HW296561   5.816   0.201   5.000
64908SOL     OW96562   0.488   4.058   0.788
64908SOL    HW196563   0.492   4.153   0.776
64908SOL    HW296564   0.433   4.046   0.866
64909SOL     OW96565   9.338  10.931   3.166
64909SOL    HW196566   9.380  10.864   3.111
64909SOL    HW296567   9.249  10.936   3.133
64910SOL     OW96568  14.459   0.883   2.568
64910SOL    HW196569  14.410   0.963   2.584
64910SOL    HW296570  14.531   0.911   2.511
64911SOL     OW96571   1.892  11.638   8.674
64911SOL    HW196572   1.984  11.664   8.670
64911SOL    HW296573   1.882  11.600   8.761
64912SOL     OW96574  13.995   5.305   9.658
64912SOL    HW196575  14.071   5.356   9.685
64912SOL    HW296576  13.984   5.239   9.727
64913SOL     OW96577   0.395  12.729   5.167
64913SOL    HW196578   0.351  12.645   5.150
64913SOL    HW296579   0.404  12.770   5.081
64914SOL     OW96580   5.014   7.392  10.128
64914SOL    HW196581   4.964   7.405  10.047
64914SOL    HW296582   4.960   7.433  10.196
64915SOL     OW96583   9.002  11.291  11.693
64915SOL    HW196584   8.975  11.299  11.601
64915SOL    HW296585   9.097  11.289  11.690
64916SOL     OW96586   3.441  14.546   8.775
64916SOL    HW196587   3.462  14.457   8.805
64916SOL    HW296588   3.524  14.580   8.741
64917SOL     OW96589   9.658   9.943  12.125
64917SOL    HW196590   9.665   9.992  12.043
64917SOL    HW296591   9.737   9.966  12.174
64918SOL     OW96592  12.259   1.112   4.607
64918SOL    HW196593  12.302   1.080   4.528
64918SOL    HW296594  12.307   1.071   4.679
64919SOL     OW96595   7.675   6.441   4.680
64919SOL    HW196596   7.728   6.515   4.711
64919SOL    HW296597   7.669   6.383   4.756
64920SOL     OW96598  10.567   1.257   6.714
64920SOL    HW196599  10.626   1.201   6.664
64920SOL    HW296600  10.611   1.271   6.798
64921SOL     OW96601   4.877   0.937  12.897
64921SOL    HW196602   4.969   0.911  12.887
64921SOL    HW296603   4.878   1.007  12.963
64922SOL     OW96604   7.436   1.158  10.741
64922SOL    HW196605   7.347   1.187  10.760
64922SOL    HW296606   7.463   1.110  10.819
64923SOL     OW96607  10.488   3.551  11.217
64923SOL    HW196608  10.400   3.525  11.190
64923SOL    HW296609  10.514   3.618  11.154
64924SOL     OW96610   8.112   1.921  12.889
64924SOL    HW196611   8.038   1.947  12.943
64924SOL    HW296612   8.171   1.875  12.949
64925SOL     OW96613  10.340   7.718   1.198
64925SOL    HW196614  10.384   7.654   1.252
64925SOL    HW296615  10.371   7.803   1.230
64926SOL     OW96616   3.226   5.564   6.389
64926SOL    HW196617   3.138   5.577   6.354
64926SOL    HW296618   3.226   5.611   6.472
64927SOL     OW96619  10.366   0.295   0.438
64927SOL    HW196620  10.323   0.251   0.512
64927SOL    HW296621  10.456   0.310   0.468
64928SOL     OW96622   9.194   3.808   0.265
64928SOL    HW196623   9.145   3.832   0.187
64928SOL    HW296624   9.216   3.891   0.307
64929SOL     OW96625   3.295  14.231  12.529
64929SOL    HW196626   3.343  14.152  12.505
64929SOL    HW296627   3.362  14.291  12.561
64930SOL     OW96628   8.114   3.726  13.188
64930SOL    HW196629   8.083   3.816  13.195
64930SOL    HW296630   8.063   3.688  13.117
64931SOL     OW96631   0.728   2.781   6.263
64931SOL    HW196632   0.733   2.803   6.170
64931SOL    HW296633   0.807   2.820   6.301
64932SOL     OW96634   6.658   5.955  13.287
64932SOL    HW196635   6.691   6.045  13.278
64932SOL    HW296636   6.717   5.913  13.349
64933SOL     OW96637  11.154   4.679  11.266
64933SOL    HW196638  11.143   4.595  11.312
64933SOL    HW296639  11.065   4.705  11.243
64934SOL     OW96640   5.491   4.748  12.579
64934SOL    HW196641   5.512   4.673  12.635
64934SOL    HW296642   5.543   4.735  12.500
64935SOL     OW96643  12.609  11.038  12.134
64935SOL    HW196644  12.627  11.101  12.064
64935SOL    HW296645  12.514  11.038  12.142
64936SOL     OW96646  13.269   7.225   1.384
64936SOL    HW196647  13.260   7.137   1.346
64936SOL    HW296648  13.215   7.222   1.463
64937SOL     OW96649  10.376   2.378  14.117
64937SOL    HW196650  10.454   2.419  14.080
64937SOL    HW296651  10.394   2.372  14.211
64938SOL     OW96652   7.769   2.947  13.705
64938SOL    HW196653   7.784   3.004  13.630
64938SOL    HW296654   7.689   2.980  13.745
64939SOL     OW96655   5.847  11.211   0.731
64939SOL    HW196656   5.832  11.267   0.807
64939SOL    HW296657   5.789  11.136   0.745
64940SOL     OW96658  12.174  10.507   5.920
64940SOL    HW196659  12.199  10.599   5.917
64940SOL    HW296660  12.148  10.492   6.011
64941SOL     OW96661   3.014   7.208   9.112
64941SOL    HW196662   2.987   7.282   9.166
64941SOL    HW296663   3.074   7.159   9.168
64942SOL     OW96664   4.970   0.381   5.372
64942SOL    HW196665   4.925   0.302   5.403
64942SOL    HW296666   4.973   0.439   5.448
64943SOL     OW96667   9.059   5.004  13.257
64943SOL    HW196668   9.069   5.066  13.185
64943SOL    HW296669   9.005   4.934  13.221
64944SOL     OW96670   9.264   6.934   2.321
64944SOL    HW196671   9.256   6.904   2.231
64944SOL    HW296672   9.191   6.994   2.333
64945SOL     OW96673   9.975   4.895   1.487
64945SOL    HW196674   9.974   4.913   1.393
64945SOL    HW296675   9.913   4.824   1.499
64946SOL     OW96676  11.119   1.346   9.317
64946SOL    HW196677  11.026   1.368   9.313
64946SOL    HW296678  11.159   1.399   9.248
64947SOL     OW96679   9.483   0.538  11.420
64947SOL    HW196680   9.462   0.465  11.479
64947SOL    HW296681   9.565   0.513  11.379
64948SOL     OW96682   2.930   2.552   0.827
64948SOL    HW196683   2.856   2.531   0.884
64948SOL    HW296684   2.891   2.560   0.740
64949SOL     OW96685   9.436   4.219   8.823
64949SOL    HW196686   9.408   4.279   8.891
64949SOL    HW296687   9.468   4.275   8.752
64950SOL     OW96688   1.204  10.837   7.605
64950SOL    HW196689   1.139  10.788   7.555
64950SOL    HW296690   1.204  10.795   7.691
64951SOL     OW96691   7.862  14.216  11.304
64951SOL    HW196692   7.835  14.152  11.370
64951SOL    HW296693   7.788  14.220  11.243
64952SOL     OW96694  12.838   9.947   2.187
64952SOL    HW196695  12.792   9.888   2.127
64952SOL    HW296696  12.922   9.964   2.145
64953SOL     OW96697  14.091   4.674  13.051
64953SOL    HW196698  14.105   4.647  12.960
64953SOL    HW296699  14.111   4.597  13.103
64954SOL     OW96700   8.197  10.385  13.249
64954SOL    HW196701   8.273  10.443  13.256
64954SOL    HW296702   8.153  10.391  13.333
64955SOL     OW96703  10.499   2.130  13.096
64955SOL    HW196704  10.521   2.210  13.143
64955SOL    HW296705  10.403   2.132  13.088
64956SOL     OW96706   2.872   0.959  12.433
64956SOL    HW196707   2.927   1.014  12.378
64956SOL    HW296708   2.928   0.886  12.459
64957SOL     OW96709   0.087   7.389  12.278
64957SOL    HW196710   0.154   7.428  12.334
64957SOL    HW296711   0.011   7.446  12.287
64958SOL     OW96712  10.734  14.627   6.580
64958SOL    HW196713  10.821  14.594   6.603
64958SOL    HW296714  10.740  14.722   6.593
64959SOL     OW96715   7.005   4.008   3.679
64959SOL    HW196716   6.995   3.916   3.656
64959SOL    HW296717   6.998   4.010   3.774
64960SOL     OW96718   9.267   5.591   6.614
64960SOL    HW196719   9.356   5.612   6.587
64960SOL    HW296720   9.278   5.526   6.684
64961SOL     OW96721  14.128   4.226  13.327
64961SOL    HW196722  14.198   4.177  13.370
64961SOL    HW296723  14.089   4.280  13.396
64962SOL     OW96724   8.786   4.119   0.455
64962SOL    HW196725   8.763   4.048   0.515
64962SOL    HW296726   8.810   4.075   0.373
64963SOL     OW96727   2.340   2.057   7.361
64963SOL    HW196728   2.287   2.064   7.440
64963SOL    HW296729   2.295   1.992   7.307
64964SOL     OW96730  10.192  13.557   9.081
64964SOL    HW196731  10.238  13.523   9.158
64964SOL    HW296732  10.249  13.627   9.048
64965SOL     OW96733   0.939  13.064   8.662
64965SOL    HW196734   1.012  13.035   8.717
64965SOL    HW296735   0.914  12.987   8.612
64966SOL     OW96736   8.115   7.627   0.856
64966SOL    HW196737   8.203   7.590   0.846
64966SOL    HW296738   8.126   7.720   0.836
64967SOL     OW96739  11.954  11.462   4.228
64967SOL    HW196740  11.900  11.538   4.252
64967SOL    HW296741  11.903  11.386   4.257
64968SOL     OW96742  12.845  14.818   0.118
64968SOL    HW196743  12.887  14.808   0.033
64968SOL    HW296744  12.912  14.858   0.174
64969SOL     OW96745   6.749   2.332   4.001
64969SOL    HW196746   6.778   2.419   4.029
64969SOL    HW296747   6.749   2.280   4.081
64970SOL     OW96748   6.367   7.791   7.111
64970SOL    HW196749   6.427   7.851   7.068
64970SOL    HW296750   6.413   7.707   7.111
64971SOL     OW96751  12.089   3.084   0.753
64971SOL    HW196752  12.067   3.055   0.841
64971SOL    HW296753  12.138   3.012   0.715
64972SOL     OW96754   7.978   4.483   4.631
64972SOL    HW196755   7.950   4.407   4.580
64972SOL    HW296756   7.959   4.458   4.722
64973SOL     OW96757  12.659  10.028   0.437
64973SOL    HW196758  12.663  10.031   0.342
64973SOL    HW296759  12.633   9.938   0.457
64974SOL     OW96760  10.781   7.432   6.015
64974SOL    HW196761  10.786   7.518   5.973
64974SOL    HW296762  10.740   7.376   5.949
64975SOL     OW96763  10.775   7.528   8.687
64975SOL    HW196764  10.853   7.485   8.722
64975SOL    HW296765  10.724   7.554   8.764
64976SOL     OW96766   7.778  10.335   1.065
64976SOL    HW196767   7.774  10.360   1.158
64976SOL    HW296768   7.746  10.245   1.063
64977SOL     OW96769   9.435   1.479  14.462
64977SOL    HW196770   9.397   1.556  14.419
64977SOL    HW296771   9.406   1.486  14.553
64978SOL     OW96772   5.036   4.264   3.750
64978SOL    HW196773   4.942   4.281   3.755
64978SOL    HW296774   5.076   4.336   3.798
64979SOL     OW96775   8.505   6.623   6.701
64979SOL    HW196776   8.508   6.577   6.785
64979SOL    HW296777   8.575   6.688   6.707
64980SOL     OW96778   4.977   1.248   0.953
64980SOL    HW196779   4.948   1.159   0.934
64980SOL    HW296780   5.068   1.250   0.925
64981SOL     OW96781   5.166   4.654   4.411
64981SOL    HW196782   5.242   4.629   4.464
64981SOL    HW296783   5.098   4.673   4.476
64982SOL     OW96784  10.537  12.851   1.786
64982SOL    HW196785  10.551  12.803   1.869
64982SOL    HW296786  10.518  12.940   1.813
64983SOL     OW96787   8.406   1.332   6.699
64983SOL    HW196788   8.335   1.337   6.635
64983SOL    HW296789   8.370   1.370   6.779
64984SOL     OW96790   4.192   6.290  12.133
64984SOL    HW196791   4.194   6.382  12.158
64984SOL    HW296792   4.283   6.265  12.124
64985SOL     OW96793   7.466   0.499  14.846
64985SOL    HW196794   7.436   0.551  14.773
64985SOL    HW296795   7.555   0.471  14.821
64986SOL     OW96796   9.002   0.187  10.365
64986SOL    HW196797   9.092   0.218  10.370
64986SOL    HW296798   8.954   0.242  10.427
64987SOL     OW96799  14.470   0.878   4.395
64987SOL    HW196800  14.404   0.820   4.433
64987SOL    HW296801  14.551   0.854   4.441
64988SOL     OW96802   4.108   6.978   0.213
64988SOL    HW196803   4.198   6.967   0.182
64988SOL    HW296804   4.060   6.905   0.172
64989SOL     OW96805   4.059   5.599   1.255
64989SOL    HW196806   3.972   5.596   1.216
64989SOL    HW296807   4.073   5.691   1.275
64990SOL     OW96808   8.814   1.715   9.164
64990SOL    HW196809   8.742   1.660   9.194
64990SOL    HW296810   8.787   1.745   9.077
64991SOL     OW96811   2.841   2.770  10.775
64991SOL    HW196812   2.900   2.761  10.850
64991SOL    HW296813   2.829   2.681  10.743
64992SOL     OW96814  14.552   7.377   1.120
64992SOL    HW196815  14.606   7.441   1.075
64992SOL    HW296816  14.490   7.429   1.171
64993SOL     OW96817   5.034   8.858   0.989
64993SOL    HW196818   5.127   8.843   1.008
64993SOL    HW296819   5.033   8.893   0.900
64994SOL     OW96820   0.395   6.739  13.505
64994SOL    HW196821   0.323   6.795  13.533
64994SOL    HW296822   0.471   6.798  13.500
64995SOL     OW96823   9.887   2.785  14.547
64995SOL    HW196824   9.963   2.792  14.605
64995SOL    HW296825   9.850   2.699  14.565
64996SOL     OW96826  10.212  10.856   2.485
64996SOL    HW196827  10.122  10.838   2.511
64996SOL    HW296828  10.243  10.774   2.445
64997SOL     OW96829  11.643   7.657   2.568
64997SOL    HW196830  11.638   7.663   2.663
64997SOL    HW296831  11.703   7.727   2.542
64998SOL     OW96832   2.888  14.070   8.767
64998SOL    HW196833   2.862  13.982   8.738
64998SOL    HW296834   2.871  14.070   8.861
64999SOL     OW96835  12.459   1.799   1.853
64999SOL    HW196836  12.458   1.732   1.922
64999SOL    HW296837  12.376   1.788   1.807
65000SOL     OW96838  11.313   2.129   5.921
65000SOL    HW196839  11.304   2.149   6.014
65000SOL    HW296840  11.378   2.192   5.889
65001SOL     OW96841  11.274   9.135   4.547
65001SOL    HW196842  11.226   9.218   4.545
65001SOL    HW296843  11.220   9.077   4.600
65002SOL     OW96844   0.775   2.400   2.945
65002SOL    HW196845   0.737   2.381   3.031
65002SOL    HW296846   0.700   2.416   2.888
65003SOL     OW96847  12.339   2.228  12.599
65003SOL    HW196848  12.280   2.157  12.623
65003SOL    HW296849  12.360   2.212  12.507
65004SOL     OW96850  10.601   9.768   0.904
65004SOL    HW196851  10.586   9.690   0.958
65004SOL    HW296852  10.629   9.835   0.966
65005SOL     OW96853   0.667   4.413   6.267
65005SOL    HW196854   0.646   4.507   6.264
65005SOL    HW296855   0.698   4.399   6.356
65006SOL     OW96856   6.514   3.428   8.830
65006SOL    HW196857   6.432   3.415   8.781
65006SOL    HW296858   6.532   3.343   8.870
65007SOL     OW96859   1.806   6.141   0.076
65007SOL    HW196860   1.754   6.085   0.019
65007SOL    HW296861   1.804   6.227   0.034
65008SOL     OW96862  12.158   9.137   6.945
65008SOL    HW196863  12.155   9.055   6.896
65008SOL    HW296864  12.145   9.110   7.036
65009SOL     OW96865   5.642  11.357  11.425
65009SOL    HW196866   5.610  11.424  11.485
65009SOL    HW296867   5.737  11.370  11.422
65010SOL     OW96868   9.747   5.654  12.710
65010SOL    HW196869   9.769   5.566  12.741
65010SOL    HW296870   9.740   5.645  12.615
65011SOL     OW96871  10.660   9.430  10.250
65011SOL    HW196872  10.678   9.461  10.339
65011SOL    HW296873  10.567   9.411  10.250
65012SOL     OW96874   2.080   8.754  12.234
65012SOL    HW196875   2.109   8.697  12.306
65012SOL    HW296876   2.040   8.829  12.278
65013SOL     OW96877   2.303   9.605   4.447
65013SOL    HW196878   2.345   9.652   4.519
65013SOL    HW296879   2.342   9.518   4.448
65014SOL     OW96880   3.922   0.599  12.232
65014SOL    HW196881   4.016   0.587  12.248
65014SOL    HW296882   3.916   0.622  12.139
65015SOL     OW96883   8.642   8.927   7.095
65015SOL    HW196884   8.692   8.952   7.173
65015SOL    HW296885   8.708   8.892   7.035
65016SOL     OW96886  12.720   5.194  12.539
65016SOL    HW196887  12.681   5.120  12.492
65016SOL    HW296888  12.814   5.185  12.524
65017SOL     OW96889   7.321   2.939   8.219
65017SOL    HW196890   7.375   2.927   8.142
65017SOL    HW296891   7.288   3.029   8.212
65018SOL     OW96892  11.042  11.307   4.057
65018SOL    HW196893  11.113  11.302   4.121
65018SOL    HW296894  11.086  11.332   3.975
65019SOL     OW96895   5.358   2.772  12.160
65019SOL    HW196896   5.423   2.703  12.144
65019SOL    HW296897   5.363   2.828  12.082
65020SOL     OW96898   1.956   5.116   0.798
65020SOL    HW196899   1.871   5.145   0.764
65020SOL    HW296900   1.952   5.021   0.793
65021SOL     OW96901  11.896  12.248   7.884
65021SOL    HW196902  11.930  12.257   7.795
65021SOL    HW296903  11.942  12.316   7.934
65022SOL     OW96904  13.925  10.071   8.972
65022SOL    HW196905  13.833  10.045   8.966
65022SOL    HW296906  13.924  10.166   8.978
65023SOL     OW96907  14.515  13.732   0.879
65023SOL    HW196908  14.516  13.678   0.800
65023SOL    HW296909  14.607  13.748   0.898
65024SOL     OW96910  11.995   1.556  11.870
65024SOL    HW196911  12.004   1.460  11.872
65024SOL    HW296912  11.908   1.573  11.905
65025SOL     OW96913   4.234  12.979   5.266
65025SOL    HW196914   4.281  12.906   5.305
65025SOL    HW296915   4.177  13.011   5.336
65026SOL     OW96916  13.838  13.691   8.498
65026SOL    HW196917  13.888  13.707   8.578
65026SOL    HW296918  13.891  13.628   8.449
65027SOL     OW96919  14.299   8.455  10.124
65027SOL    HW196920  14.297   8.370  10.167
65027SOL    HW296921  14.230   8.505  10.167
65028SOL     OW96922   9.001   0.187   4.432
65028SOL    HW196923   8.993   0.278   4.462
65028SOL    HW296924   8.913   0.164   4.402
65029SOL     OW96925  13.300  12.532   9.210
65029SOL    HW196926  13.392  12.522   9.187
65029SOL    HW296927  13.286  12.627   9.213
65030SOL     OW96928   0.372   8.772  13.182
65030SOL    HW196929   0.410   8.762  13.095
65030SOL    HW296930   0.341   8.684  13.205
65031SOL     OW96931   0.576  12.698  14.131
65031SOL    HW196932   0.500  12.753  14.150
65031SOL    HW296933   0.567  12.623  14.190
65032SOL     OW96934   2.629  12.961   2.483
65032SOL    HW196935   2.570  12.960   2.407
65032SOL    HW296936   2.685  13.038   2.469
65033SOL     OW96937   6.895   3.871   2.922
65033SOL    HW196938   6.825   3.904   2.978
65033SOL    HW296939   6.859   3.790   2.885
65034SOL     OW96940   7.836   6.742  12.188
65034SOL    HW196941   7.874   6.655  12.197
65034SOL    HW296942   7.910   6.802  12.198
65035SOL     OW96943   5.624   3.161   9.929
65035SOL    HW196944   5.541   3.175   9.973
65035SOL    HW296945   5.605   3.099   9.859
65036SOL     OW96946   2.280   4.151  13.827
65036SOL    HW196947   2.209   4.135  13.890
65036SOL    HW296948   2.286   4.069  13.777
65037SOL     OW96949   2.985  14.421  14.440
65037SOL    HW196950   2.969  14.488  14.373
65037SOL    HW296951   3.064  14.451  14.486
65038SOL     OW96952  12.314   0.888   5.093
65038SOL    HW196953  12.277   0.809   5.132
65038SOL    HW296954  12.326   0.866   5.000
65039SOL     OW96955  13.980  11.059   3.649
65039SOL    HW196956  14.028  11.101   3.578
65039SOL    HW296957  13.976  10.967   3.623
65040SOL     OW96958  10.410  13.922   6.827
65040SOL    HW196959  10.368  14.008   6.829
65040SOL    HW296960  10.337  13.860   6.832
65041SOL     OW96961   1.105   8.409  10.345
65041SOL    HW196962   1.170   8.459  10.394
65041SOL    HW296963   1.145   8.323  10.331
65042SOL     OW96964   7.590  10.990  13.525
65042SOL    HW196965   7.675  10.946  13.519
65042SOL    HW296966   7.570  11.017  13.436
65043SOL     OW96967  14.873   2.715   5.240
65043SOL    HW196968  14.816   2.654   5.195
65043SOL    HW296969  14.850   2.801   5.205
65044SOL     OW96970   8.780   4.884   8.293
65044SOL    HW196971   8.692   4.864   8.261
65044SOL    HW296972   8.816   4.942   8.226
65045SOL     OW96973   6.329   8.261   4.867
65045SOL    HW196974   6.415   8.303   4.865
65045SOL    HW296975   6.308   8.255   4.960
65046SOL     OW96976   9.811  12.796   3.079
65046SOL    HW196977   9.726  12.805   3.123
65046SOL    HW296978   9.808  12.709   3.039
65047SOL     OW96979   0.851   5.031  14.399
65047SOL    HW196980   0.873   4.942  14.372
65047SOL    HW296981   0.857   5.028  14.495
65048SOL     OW96982   0.337   0.039   4.447
65048SOL    HW196983   0.305  14.852   4.379
65048SOL    HW296984   0.266   0.041   4.511
65049SOL     OW96985   1.367   3.272   5.497
65049SOL    HW196986   1.321   3.323   5.564
65049SOL    HW296987   1.460   3.292   5.512
65050SOL     OW96988  10.077   1.818   9.772
65050SOL    HW196989  10.140   1.882   9.738
65050SOL    HW296990  10.052   1.766   9.696
65051SOL     OW96991   0.954   1.778  10.957
65051SOL    HW196992   0.889   1.709  10.966
65051SOL    HW296993   0.904   1.856  10.935
65052SOL     OW96994   8.651  13.453   9.773
65052SOL    HW196995   8.637  13.543   9.745
65052SOL    HW296996   8.645  13.402   9.692
65053SOL     OW96997   8.725  11.548   9.261
65053SOL    HW196998   8.738  11.601   9.183
65053SOL    HW296999   8.800  11.489   9.263
65054SOL     OW97000   8.676   7.943   2.105
65054SOL    HW197001   8.730   7.985   2.172
65054SOL    HW297002   8.599   7.911   2.153
65055SOL     OW97003  14.341  13.931   7.825
65055SOL    HW197004  14.312  14.020   7.804
65055SOL    HW297005  14.382  13.939   7.911
65056SOL     OW97006  14.040   9.039   4.528
65056SOL    HW197007  14.091   9.028   4.608
65056SOL    HW297008  13.986   8.960   4.523
65057SOL     OW97009   1.506   1.961   3.545
65057SOL    HW197010   1.425   2.012   3.542
65057SOL    HW297011   1.486   1.882   3.495
65058SOL     OW97012   8.649   5.488   8.519
65058SOL    HW197013   8.640   5.567   8.465
65058SOL    HW297014   8.565   5.482   8.566
65059SOL     OW97015   0.658  11.204   5.494
65059SOL    HW197016   0.626  11.121   5.459
65059SOL    HW297017   0.753  11.200   5.483
65060SOL     OW97018   5.443   0.689   1.591
65060SOL    HW197019   5.414   0.646   1.510
65060SOL    HW297020   5.407   0.634   1.661
65061SOL     OW97021   1.097   5.391   3.883
65061SOL    HW197022   1.022   5.340   3.913
65061SOL    HW297023   1.061   5.477   3.862
65062SOL     OW97024   1.039  14.725   9.635
65062SOL    HW197025   1.015  14.720   9.542
65062SOL    HW297026   1.097  14.651   9.649
65063SOL     OW97027  12.767   2.291  14.398
65063SOL    HW197028  12.734   2.301  14.309
65063SOL    HW297029  12.782   2.197  14.407
65064SOL     OW97030  10.347   6.493  10.936
65064SOL    HW197031  10.350   6.442  11.017
65064SOL    HW297032  10.275   6.554  10.948
65065SOL     OW97033   1.081   6.088   5.402
65065SOL    HW197034   1.048   6.124   5.484
65065SOL    HW297035   1.006   6.092   5.342
65066SOL     OW97036  11.068   0.740   0.465
65066SOL    HW197037  11.064   0.835   0.480
65066SOL    HW297038  10.978   0.714   0.449
65067SOL     OW97039  14.361  11.967   6.248
65067SOL    HW197040  14.300  12.031   6.211
65067SOL    HW297041  14.304  11.901   6.289
65068SOL     OW97042   0.355   5.226   6.079
65068SOL    HW197043   0.380   5.313   6.047
65068SOL    HW297044   0.422   5.204   6.144
65069SOL     OW97045  10.062   0.417   9.168
65069SOL    HW197046  10.005   0.423   9.244
65069SOL    HW297047  10.060   0.325   9.142
65070SOL     OW97048   3.467  10.841  11.717
65070SOL    HW197049   3.399  10.908  11.707
65070SOL    HW297050   3.517  10.869  11.793
65071SOL     OW97051   3.263  11.793  14.546
65071SOL    HW197052   3.354  11.807  14.519
65071SOL    HW297053   3.243  11.869  14.601
65072SOL     OW97054   0.457   3.888   0.569
65072SOL    HW197055   0.370   3.848   0.573
65072SOL    HW297056   0.466   3.935   0.652
65073SOL     OW97057  12.313   3.525  11.582
65073SOL    HW197058  12.319   3.484  11.496
65073SOL    HW297059  12.227   3.500  11.615
65074SOL     OW97060   1.815   1.725   8.674
65074SOL    HW197061   1.804   1.725   8.579
65074SOL    HW297062   1.728   1.747   8.709
65075SOL     OW97063  10.658   5.611   3.500
65075SOL    HW197064  10.735   5.652   3.460
65075SOL    HW297065  10.687   5.522   3.521
65076SOL     OW97066   2.084   6.285   4.899
65076SOL    HW197067   2.032   6.356   4.861
65076SOL    HW297068   2.175   6.314   4.887
65077SOL     OW97069   4.639   0.486   8.374
65077SOL    HW197070   4.723   0.532   8.370
65077SOL    HW297071   4.631   0.444   8.289
65078SOL     OW97072   0.880   4.461   6.670
65078SOL    HW197073   0.971   4.480   6.645
65078SOL    HW297074   0.880   4.367   6.688
65079SOL     OW97075  10.366  14.516   0.712
65079SOL    HW197076  10.370  14.566   0.794
65079SOL    HW297077  10.329  14.577   0.649
65080SOL     OW97078   0.348   1.242  12.569
65080SOL    HW197079   0.344   1.321  12.515
65080SOL    HW297080   0.259   1.229  12.599
65081SOL     OW97081   9.522  13.010  11.894
65081SOL    HW197082   9.530  13.090  11.841
65081SOL    HW297083   9.579  12.947  11.850
65082SOL     OW97084   1.861  10.066  14.698
65082SOL    HW197085   1.933  10.062  14.761
65082SOL    HW297086   1.840  10.159  14.691
65083SOL     OW97087   9.378  14.226  12.245
65083SOL    HW197088   9.383  14.171  12.323
65083SOL    HW297089   9.381  14.316  12.279
65084SOL     OW97090  11.107   0.722   9.280
65084SOL    HW197091  11.097   0.646   9.338
65084SOL    HW297092  11.177   0.774   9.320
65085SOL     OW97093   0.374   2.271   0.555
65085SOL    HW197094   0.431   2.198   0.578
65085SOL    HW297095   0.426   2.349   0.573
65086SOL     OW97096   1.479  14.705   1.496
65086SOL    HW197097   1.554  14.694   1.437
65086SOL    HW297098   1.475  14.800   1.511
65087SOL     OW97099  14.443  10.392  13.160
65087SOL    HW197100  14.389  10.446  13.102
65087SOL    HW297101  14.509  10.354  13.102
65088SOL     OW97102   4.477   0.018   1.152
65088SOL    HW197103   4.557   0.069   1.161
65088SOL    HW297104   4.442   0.012   1.241
65089SOL     OW97105   7.346   2.190   1.059
65089SOL    HW197106   7.283   2.243   1.107
65089SOL    HW297107   7.404   2.254   1.017
65090SOL     OW97108   2.025   6.400   3.754
65090SOL    HW197109   2.098   6.449   3.792
65090SOL    HW297110   2.004   6.334   3.820
65091SOL     OW97111   9.247   6.919   8.687
65091SOL    HW197112   9.203   6.901   8.604
65091SOL    HW297113   9.267   7.013   8.683
65092SOL     OW97114   5.453   7.460   4.437
65092SOL    HW197115   5.375   7.432   4.390
65092SOL    HW297116   5.426   7.463   4.529
65093SOL     OW97117  11.799   8.126   2.527
65093SOL    HW197118  11.781   8.037   2.496
65093SOL    HW297119  11.715   8.157   2.561
65094SOL     OW97120   5.264   3.482  11.770
65094SOL    HW197121   5.298   3.567  11.741
65094SOL    HW297122   5.314   3.417  11.721
65095SOL     OW97123  11.553  14.429   8.935
65095SOL    HW197124  11.468  14.397   8.966
65095SOL    HW297125  11.556  14.401   8.844
65096SOL     OW97126   1.922  12.062   0.947
65096SOL    HW197127   2.005  12.024   0.976
65096SOL    HW297128   1.911  12.139   1.002
65097SOL     OW97129   0.540   3.181  13.392
65097SOL    HW197130   0.636   3.182  13.390
65097SOL    HW297131   0.516   3.261  13.438
65098SOL     OW97132  10.742  10.721  12.812
65098SOL    HW197133  10.674  10.787  12.798
65098SOL    HW297134  10.818  10.754  12.765
65099SOL     OW97135   3.144  12.914   0.171
65099SOL    HW197136   3.232  12.903   0.136
65099SOL    HW297137   3.131  13.009   0.174
65100SOL     OW97138   4.123  12.587   0.464
65100SOL    HW197139   4.190  12.656   0.461
65100SOL    HW297140   4.111  12.561   0.373
65101SOL     OW97141   8.254   1.865   2.523
65101SOL    HW197142   8.206   1.792   2.485
65101SOL    HW297143   8.337   1.868   2.476
65102SOL     OW97144   2.023   7.411   0.472
65102SOL    HW197145   2.096   7.426   0.412
65102SOL    HW297146   2.034   7.476   0.542
65103SOL     OW97147  12.545  13.148   6.050
65103SOL    HW197148  12.618  13.186   6.099
65103SOL    HW297149  12.467  13.187   6.089
65104SOL     OW97150   0.585   8.376   0.482
65104SOL    HW197151   0.667   8.413   0.450
65104SOL    HW297152   0.567   8.424   0.563
65105SOL     OW97153  10.485   3.034  12.853
65105SOL    HW197154  10.490   2.955  12.907
65105SOL    HW297155  10.461   3.003  12.766
65106SOL     OW97156  14.653   2.736   7.869
65106SOL    HW197157  14.564   2.766   7.848
65106SOL    HW297158  14.687   2.701   7.787
65107SOL     OW97159  11.620  13.613   3.451
65107SOL    HW197160  11.709  13.587   3.429
65107SOL    HW297161  11.600  13.569   3.533
65108SOL     OW97162   1.905   5.432   8.879
65108SOL    HW197163   1.917   5.526   8.868
65108SOL    HW297164   1.975   5.392   8.826
65109SOL     OW97165   5.091   0.155  14.630
65109SOL    HW197166   5.066   0.245  14.610
65109SOL    HW297167   5.116   0.118  14.545
65110SOL     OW97168   0.501   6.238   7.240
65110SOL    HW197169   0.419   6.254   7.286
65110SOL    HW297170   0.564   6.220   7.309
65111SOL     OW97171   7.629   2.585   0.210
65111SOL    HW197172   7.722   2.582   0.187
65111SOL    HW297173   7.592   2.654   0.156
65112SOL     OW97174  14.536   1.218   9.172
65112SOL    HW197175  14.485   1.159   9.117
65112SOL    HW297176  14.610   1.244   9.116
65113SOL     OW97177   3.881   6.083  11.609
65113SOL    HW197178   3.851   5.994  11.629
65113SOL    HW297179   3.911   6.118  11.693
65114SOL     OW97180  12.793   9.443  11.246
65114SOL    HW197181  12.751   9.513  11.297
65114SOL    HW297182  12.870   9.419  11.297
65115SOL     OW97183  14.756  10.792  12.354
65115SOL    HW197184  14.749  10.857  12.284
65115SOL    HW297185  14.761  10.845  12.434
65116SOL     OW97186   3.884   4.592   0.255
65116SOL    HW197187   3.939   4.569   0.330
65116SOL    HW297188   3.946   4.607   0.184
65117SOL     OW97189   5.827   6.104  11.192
65117SOL    HW197190   5.802   6.134  11.280
65117SOL    HW297191   5.916   6.136  11.180
65118SOL     OW97192  11.115  11.511   9.232
65118SOL    HW197193  11.078  11.577   9.291
65118SOL    HW297194  11.056  11.436   9.241
65119SOL     OW97195   4.832   4.495   5.445
65119SOL    HW197196   4.889   4.569   5.426
65119SOL    HW297197   4.848   4.434   5.373
65120SOL     OW97198  14.481  14.177   8.379
65120SOL    HW197199  14.441  14.264   8.385
65120SOL    HW297200  14.555  14.181   8.440
65121SOL     OW97201   3.126  14.795   7.576
65121SOL    HW197202   3.075   0.000   7.593
65121SOL    HW297203   3.160  14.807   7.487
65122SOL     OW97204   6.790  11.992   3.742
65122SOL    HW197205   6.751  12.044   3.672
65122SOL    HW297206   6.732  11.917   3.752
65123SOL     OW97207  10.761   3.070  10.245
65123SOL    HW197208  10.715   3.125  10.182
65123SOL    HW297209  10.819   3.016  10.192
65124SOL     OW97210   8.768  10.847  14.308
65124SOL    HW197211   8.797  10.769  14.355
65124SOL    HW297212   8.676  10.831  14.287
65125SOL     OW97213  11.094   3.983   3.205
65125SOL    HW197214  11.147   3.964   3.283
65125SOL    HW297215  11.018   4.030   3.238
65126SOL     OW97216   9.547   1.523  13.027
65126SOL    HW197217   9.590   1.563  13.102
65126SOL    HW297218   9.534   1.432  13.053
65127SOL     OW97219   8.549   2.653   4.900
65127SOL    HW197220   8.635   2.635   4.937
65127SOL    HW297221   8.490   2.655   4.975
65128SOL     OW97222   0.947   3.386   8.400
65128SOL    HW197223   0.932   3.479   8.415
65128SOL    HW297224   0.876   3.342   8.447
65129SOL     OW97225   8.335   7.158  13.849
65129SOL    HW197226   8.422   7.198  13.850
65129SOL    HW297227   8.351   7.064  13.839
65130SOL     OW97228  11.785  12.962  10.574
65130SOL    HW197229  11.782  13.040  10.519
65130SOL    HW297230  11.693  12.941  10.592
65131SOL     OW97231   7.030  12.670  14.474
65131SOL    HW197232   6.949  12.631  14.508
65131SOL    HW297233   7.053  12.616  14.399
65132SOL     OW97234  12.042  11.552  13.385
65132SOL    HW197235  11.960  11.523  13.426
65132SOL    HW297236  12.110  11.524  13.445
65133SOL     OW97237  10.948   9.899   4.618
65133SOL    HW197238  10.932   9.820   4.566
65133SOL    HW297239  11.035   9.928   4.592
65134SOL     OW97240  12.995   5.802   8.332
65134SOL    HW197241  12.913   5.840   8.301
65134SOL    HW297242  13.063   5.859   8.296
65135SOL     OW97243   1.167  12.722   5.784
65135SOL    HW197244   1.183  12.630   5.765
65135SOL    HW297245   1.090  12.744   5.730
65136SOL     OW97246  11.000   0.747   1.650
65136SOL    HW197247  10.907   0.727   1.662
65136SOL    HW297248  11.002   0.841   1.632
65137SOL     OW97249   2.266   5.374  12.743
65137SOL    HW197250   2.213   5.295  12.729
65137SOL    HW297251   2.231   5.412  12.823
65138SOL     OW97252   7.243   6.265  14.264
65138SOL    HW197253   7.288   6.280  14.181
65138SOL    HW297254   7.166   6.214  14.241
65139SOL     OW97255   2.612   6.844   2.088
65139SOL    HW197256   2.693   6.817   2.132
65139SOL    HW297257   2.612   6.939   2.093
65140SOL     OW97258  10.932  10.971  12.605
65140SOL    HW197259  10.932  10.877  12.622
65140SOL    HW297260  10.983  10.981  12.525
65141SOL     OW97261   2.069   7.435  13.276
65141SOL    HW197262   2.051   7.376  13.202
65141SOL    HW297263   2.138   7.493  13.244
65142SOL     OW97264   8.374   0.814   5.192
65142SOL    HW197265   8.335   0.875   5.255
65142SOL    HW297266   8.451   0.779   5.238
65143SOL     OW97267   9.989   7.652  12.510
65143SOL    HW197268  10.048   7.689  12.445
65143SOL    HW297269  10.019   7.688  12.594
65144SOL     OW97270  11.514   5.730   6.043
65144SOL    HW197271  11.514   5.772   5.957
65144SOL    HW297272  11.604   5.739   6.074
65145SOL     OW97273  12.543  10.465   2.762
65145SOL    HW197274  12.559  10.552   2.799
65145SOL    HW297275  12.450  10.450   2.776
65146SOL     OW97276   9.649  14.158   4.752
65146SOL    HW197277   9.704  14.236   4.755
65146SOL    HW297278   9.610  14.159   4.665
65147SOL     OW97279  13.808  10.359   4.655
65147SOL    HW197280  13.780  10.425   4.593
65147SOL    HW297281  13.866  10.302   4.605
65148SOL     OW97282   8.874   8.879  10.058
65148SOL    HW197283   8.917   8.924   9.985
65148SOL    HW297284   8.799   8.934  10.080
65149SOL     OW97285   5.435  11.045  10.395
65149SOL    HW197286   5.510  11.031  10.452
65149SOL    HW297287   5.473  11.059  10.308
65150SOL     OW97288   1.653  14.690  13.962
65150SOL    HW197289   1.588  14.625  13.988
65150SOL    HW297290   1.624  14.720  13.876
65151SOL     OW97291  10.969   0.501   6.977
65151SOL    HW197292  10.977   0.423   6.922
65151SOL    HW297293  11.041   0.493   7.040
65152SOL     OW97294   5.163   9.788  11.393
65152SOL    HW197295   5.080   9.832  11.411
65152SOL    HW297296   5.139   9.696  11.382
65153SOL     OW97297  10.631  10.100   3.840
65153SOL    HW197298  10.635  10.150   3.921
65153SOL    HW297299  10.722  10.086   3.816
65154SOL     OW97300   3.032   4.745  11.360
65154SOL    HW197301   3.101   4.789  11.311
65154SOL    HW297302   3.078   4.677  11.410
65155SOL     OW97303   3.678   4.839   3.463
65155SOL    HW197304   3.760   4.829   3.415
65155SOL    HW297305   3.631   4.909   3.418
65156SOL     OW97306   1.698   1.060   1.947
65156SOL    HW197307   1.737   1.147   1.946
65156SOL    HW297308   1.603   1.076   1.949
65157SOL     OW97309   6.845   4.615   4.182
65157SOL    HW197310   6.764   4.570   4.159
65157SOL    HW297311   6.823   4.665   4.261
65158SOL     OW97312   7.701   7.323  11.988
65158SOL    HW197313   7.678   7.239  11.950
65158SOL    HW297314   7.702   7.308  12.083
65159SOL     OW97315  11.614  10.729   4.005
65159SOL    HW197316  11.696  10.770   3.980
65159SOL    HW297317  11.555  10.745   3.932
65160SOL     OW97318  10.684  13.435   1.859
65160SOL    HW197319  10.613  13.422   1.923
65160SOL    HW297320  10.679  13.528   1.838
65161SOL     OW97321   8.597   6.703  10.568
65161SOL    HW197322   8.506   6.732  10.565
65161SOL    HW297323   8.596   6.624  10.621
65162SOL     OW97324  12.910   9.877   4.613
65162SOL    HW197325  12.816   9.892   4.606
65162SOL    HW297326  12.933   9.905   4.702
65163SOL     OW97327   9.584  10.618   5.799
65163SOL    HW197328   9.578  10.530   5.836
65163SOL    HW297329   9.512  10.667   5.838
65164SOL     OW97330  13.134   5.543   8.989
65164SOL    HW197331  13.129   5.472   8.925
65164SOL    HW297332  13.144   5.499   9.073
65165SOL     OW97333  10.029   7.390   4.598
65165SOL    HW197334  10.081   7.346   4.666
65165SOL    HW297335  10.092   7.448   4.554
65166SOL     OW97336  11.106  12.690  10.721
65166SOL    HW197337  11.190  12.707  10.764
65166SOL    HW297338  11.051  12.656  10.791
65167SOL     OW97339   4.687  12.044   4.063
65167SOL    HW197340   4.645  12.105   4.124
65167SOL    HW297341   4.615  12.000   4.019
65168SOL     OW97342  14.093   7.617   5.334
65168SOL    HW197343  14.028   7.579   5.275
65168SOL    HW297344  14.047   7.629   5.416
65169SOL     OW97345  10.610   8.577   4.313
65169SOL    HW197346  10.564   8.635   4.373
65169SOL    HW297347  10.664   8.636   4.260
65170SOL     OW97348   1.021   0.971   2.925
65170SOL    HW197349   1.086   1.038   2.903
65170SOL    HW297350   1.057   0.890   2.888
65171SOL     OW97351   3.731   5.136  14.364
65171SOL    HW197352   3.783   5.198  14.416
65171SOL    HW297353   3.757   5.154  14.274
65172SOL     OW97354   1.473   1.207   7.316
65172SOL    HW197355   1.520   1.162   7.386
65172SOL    HW297356   1.519   1.290   7.306
65173SOL     OW97357   8.638  12.240   5.799
65173SOL    HW197358   8.616  12.238   5.706
65173SOL    HW297359   8.631  12.332   5.824
65174SOL     OW97360   1.848   8.483   9.414
65174SOL    HW197361   1.923   8.441   9.373
65174SOL    HW297362   1.777   8.420   9.407
65175SOL     OW97363   8.032   7.083  11.002
65175SOL    HW197364   8.043   7.142  11.076
65175SOL    HW297365   7.964   7.123  10.948
65176SOL     OW97366   0.888  13.422   1.851
65176SOL    HW197367   0.859  13.453   1.765
65176SOL    HW297368   0.825  13.353   1.874
65177SOL     OW97369   9.188   3.765   5.439
65177SOL    HW197370   9.278   3.733   5.430
65177SOL    HW297371   9.188   3.814   5.521
65178SOL     OW97372   4.352   2.853   1.518
65178SOL    HW197373   4.300   2.854   1.438
65178SOL    HW297374   4.374   2.945   1.534
65179SOL     OW97375   4.332   0.703   1.812
65179SOL    HW197376   4.365   0.771   1.870
65179SOL    HW297377   4.239   0.722   1.802
65180SOL     OW97378   8.724   4.715   4.435
65180SOL    HW197379   8.733   4.688   4.343
65180SOL    HW297380   8.631   4.737   4.444
65181SOL     OW97381  12.189  10.606   5.395
65181SOL    HW197382  12.142  10.544   5.451
65181SOL    HW297383  12.128  10.625   5.324
65182SOL     OW97384   1.750   2.510   9.189
65182SOL    HW197385   1.669   2.460   9.204
65182SOL    HW297386   1.804   2.451   9.136
65183SOL     OW97387  13.790  13.457  14.462
65183SOL    HW197388  13.713  13.511  14.445
65183SOL    HW297389  13.862  13.519  14.469
65184SOL     OW97390   6.404   2.244   1.198
65184SOL    HW197391   6.356   2.165   1.219
65184SOL    HW297392   6.353   2.315   1.237
65185SOL     OW97393   3.297  10.135   4.115
65185SOL    HW197394   3.367  10.131   4.180
65185SOL    HW297395   3.237  10.065   4.140
65186SOL     OW97396  14.092   4.719   9.631
65186SOL    HW197397  14.104   4.624   9.629
65186SOL    HW297398  14.063   4.741   9.543
65187SOL     OW97399   3.639   2.997   1.017
65187SOL    HW197400   3.705   2.960   0.958
65187SOL    HW297401   3.611   2.923   1.071
65188SOL     OW97402   0.367  12.654   7.870
65188SOL    HW197403   0.407  12.739   7.889
65188SOL    HW297404   0.390  12.636   7.779
65189SOL     OW97405   5.404   4.762  14.232
65189SOL    HW197406   5.385   4.840  14.284
65189SOL    HW297407   5.465   4.711  14.286
65190SOL     OW97408   1.618   8.292  14.753
65190SOL    HW197409   1.668   8.371  14.731
65190SOL    HW297410   1.622   8.288  14.849
65191SOL     OW97411   0.904   9.616  11.618
65191SOL    HW197412   0.876   9.624  11.526
65191SOL    HW297413   0.927   9.524  11.628
65192SOL     OW97414   2.623   3.588  10.759
65192SOL    HW197415   2.656   3.630  10.680
65192SOL    HW297416   2.695   3.532  10.789
65193SOL     OW97417   0.189   4.723  12.962
65193SOL    HW197418   0.188   4.724  12.866
65193SOL    HW297419   0.228   4.807  12.986
65194SOL     OW97420   8.686  13.468  13.198
65194SOL    HW197421   8.620  13.526  13.236
65194SOL    HW297422   8.751  13.527  13.160
65195SOL     OW97423   7.867   8.805   5.862
65195SOL    HW197424   7.951   8.848   5.844
65195SOL    HW297425   7.891   8.719   5.897
65196SOL     OW97426   8.916  10.347  13.917
65196SOL    HW197427   9.009  10.370  13.920
65196SOL    HW297428   8.888  10.351  14.009
65197SOL     OW97429  10.053  11.845  10.468
65197SOL    HW197430  10.007  11.761  10.469
65197SOL    HW297431  10.120  11.837  10.536
65198SOL     OW97432   3.087   2.816   3.695
65198SOL    HW197433   3.103   2.732   3.739
65198SOL    HW297434   3.099   2.796   3.602
65199SOL     OW97435   0.270   8.329   7.958
65199SOL    HW197436   0.185   8.370   7.941
65199SOL    HW297437   0.326   8.361   7.887
65200SOL     OW97438   2.987   7.098  13.554
65200SOL    HW197439   3.030   7.148  13.623
65200SOL    HW297440   2.905   7.146  13.538
65201SOL     OW97441  14.075  10.339  10.095
65201SOL    HW197442  14.106  10.350  10.005
65201SOL    HW297443  14.099  10.249  10.118
65202SOL     OW97444   6.017   0.239  12.339
65202SOL    HW197445   5.957   0.260  12.411
65202SOL    HW297446   6.072   0.168  12.373
65203SOL     OW97447  10.904   7.865   6.928
65203SOL    HW197448  10.937   7.935   6.985
65203SOL    HW297449  10.935   7.889   6.841
65204SOL     OW97450   2.157  11.873  13.091
65204SOL    HW197451   2.190  11.957  13.058
65204SOL    HW297452   2.081  11.854  13.036
65205SOL     OW97453   6.182  10.408  12.986
65205SOL    HW197454   6.205  10.501  12.992
65205SOL    HW297455   6.250  10.370  12.931
65206SOL     OW97456   2.683   8.717   2.424
65206SOL    HW197457   2.646   8.692   2.509
65206SOL    HW297458   2.768   8.674   2.421
65207SOL     OW97459   9.300   0.820   5.626
65207SOL    HW197460   9.345   0.837   5.543
65207SOL    HW297461   9.213   0.791   5.600
65208SOL     OW97462   0.127  11.828   9.909
65208SOL    HW197463   0.152  11.867   9.993
65208SOL    HW297464   0.210  11.815   9.864
65209SOL     OW97465  10.154  13.172   6.511
65209SOL    HW197466  10.217  13.146   6.444
65209SOL    HW297467  10.204  13.226   6.572
65210SOL     OW97468   3.294   9.886   8.594
65210SOL    HW197469   3.265   9.804   8.557
65210SOL    HW297470   3.270   9.952   8.529
65211SOL     OW97471   7.530  11.499  12.344
65211SOL    HW197472   7.586  11.454  12.407
65211SOL    HW297473   7.486  11.567  12.395
65212SOL     OW97474   2.076   7.093   4.586
65212SOL    HW197475   1.991   7.050   4.589
65212SOL    HW297476   2.086   7.121   4.495
65213SOL     OW97477   2.963   2.081  12.563
65213SOL    HW197478   2.902   2.058  12.633
65213SOL    HW297479   3.029   2.011  12.565
65214SOL     OW97480   8.722  10.317   3.308
65214SOL    HW197481   8.759  10.231   3.287
65214SOL    HW297482   8.697  10.311   3.400
65215SOL     OW97483   4.526   0.583  10.105
65215SOL    HW197484   4.564   0.664  10.073
65215SOL    HW297485   4.470   0.552  10.033
65216SOL     OW97486   1.264   0.353   1.489
65216SOL    HW197487   1.213   0.272   1.482
65216SOL    HW297488   1.351   0.324   1.518
65217SOL     OW97489   6.154   3.247   2.082
65217SOL    HW197490   6.164   3.308   2.154
65217SOL    HW297491   6.065   3.211   2.092
65218SOL     OW97492  11.828  13.571  10.786
65218SOL    HW197493  11.815  13.503  10.721
65218SOL    HW297494  11.766  13.640  10.762
65219SOL     OW97495   9.666   3.886   1.509
65219SOL    HW197496   9.732   3.945   1.546
65219SOL    HW297497   9.586   3.908   1.556
65220SOL     OW97498   5.370   2.391   7.789
65220SOL    HW197499   5.360   2.308   7.741
65220SOL    HW297500   5.346   2.458   7.726
65221SOL     OW97501   3.806   6.177   6.623
65221SOL    HW197502   3.786   6.271   6.630
65221SOL    HW297503   3.731   6.140   6.576
65222SOL     OW97504  11.430   0.498   7.599
65222SOL    HW197505  11.458   0.425   7.654
65222SOL    HW297506  11.344   0.472   7.565
65223SOL     OW97507   9.849  12.011  12.588
65223SOL    HW197508   9.801  11.941  12.544
65223SOL    HW297509   9.862  11.979  12.677
65224SOL     OW97510  14.408   6.969   5.511
65224SOL    HW197511  14.391   6.978   5.605
65224SOL    HW297512  14.397   7.057   5.476
65225SOL     OW97513   1.431   4.921   9.333
65225SOL    HW197514   1.407   4.977   9.406
65225SOL    HW297515   1.421   4.976   9.256
65226SOL     OW97516  12.503  12.896   5.939
65226SOL    HW197517  12.535  12.980   5.972
65226SOL    HW297518  12.567  12.870   5.873
65227SOL     OW97519  12.408   3.341   7.878
65227SOL    HW197520  12.314   3.360   7.877
65227SOL    HW297521  12.441   3.378   7.796
65228SOL     OW97522   3.205  11.877  11.633
65228SOL    HW197523   3.294  11.867  11.597
65228SOL    HW297524   3.172  11.787  11.638
65229SOL     OW97525   4.236   2.767   3.088
65229SOL    HW197526   4.268   2.826   3.156
65229SOL    HW297527   4.307   2.704   3.076
65230SOL     OW97528   9.120   3.290   4.372
65230SOL    HW197529   9.164   3.350   4.312
65230SOL    HW297530   9.176   3.286   4.449
65231SOL     OW97531   4.244   8.882   0.320
65231SOL    HW197532   4.293   8.813   0.276
65231SOL    HW297533   4.190   8.921   0.251
65232SOL     OW97534   1.100  14.316   2.518
65232SOL    HW197535   1.125  14.362   2.599
65232SOL    HW297536   1.093  14.386   2.453
65233SOL     OW97537   4.924   8.294   2.513
65233SOL    HW197538   4.965   8.301   2.427
65233SOL    HW297539   4.865   8.219   2.505
65234SOL     OW97540   1.638  11.857   1.441
65234SOL    HW197541   1.722  11.900   1.423
65234SOL    HW297542   1.572  11.923   1.422
65235SOL     OW97543  12.385   1.741  10.204
65235SOL    HW197544  12.313   1.679  10.217
65235SOL    HW297545  12.383   1.760  10.110
65236SOL     OW97546  13.521   2.436  13.310
65236SOL    HW197547  13.476   2.353  13.325
65236SOL    HW297548  13.509   2.452  13.216
65237SOL     OW97549   5.587   5.923  14.662
65237SOL    HW197550   5.645   5.991  14.695
65237SOL    HW297551   5.527   5.905  14.734
65238SOL     OW97552  12.916  13.735  13.674
65238SOL    HW197553  12.890  13.809  13.619
65238SOL    HW297554  12.973  13.682  13.618
65239SOL     OW97555  11.167  13.541   7.460
65239SOL    HW197556  11.141  13.633   7.471
65239SOL    HW297557  11.227  13.524   7.532
65240SOL     OW97558   2.602   4.905   6.903
65240SOL    HW197559   2.518   4.921   6.947
65240SOL    HW297560   2.668   4.924   6.968
65241SOL     OW97561   0.757  10.106   4.636
65241SOL    HW197562   0.816  10.154   4.694
65241SOL    HW297563   0.693  10.171   4.608
65242SOL     OW97564  12.246   0.164   8.676
65242SOL    HW197565  12.174   0.118   8.632
65242SOL    HW297566  12.253   0.121   8.761
65243SOL     OW97567   6.266   4.745   1.118
65243SOL    HW197568   6.236   4.821   1.069
65243SOL    HW297569   6.222   4.752   1.203
65244SOL     OW97570  10.069  13.283  11.253
65244SOL    HW197571  10.007  13.318  11.316
65244SOL    HW297572  10.014  13.239  11.188
65245SOL     OW97573   9.856   9.816   8.418
65245SOL    HW197574   9.951   9.809   8.414
65245SOL    HW297575   9.837   9.905   8.391
65246SOL     OW97576  11.904   5.913   1.067
65246SOL    HW197577  11.834   5.925   1.131
65246SOL    HW297578  11.890   5.825   1.031
65247SOL     OW97579   3.520  12.371  13.910
65247SOL    HW197580   3.583  12.415  13.968
65247SOL    HW297581   3.445  12.353  13.966
65248SOL     OW97582   6.629   7.422  12.770
65248SOL    HW197583   6.573   7.441  12.695
65248SOL    HW297584   6.695   7.491  12.770
65249SOL     OW97585   0.281  11.717  12.590
65249SOL    HW197586   0.360  11.765  12.564
65249SOL    HW297587   0.295  11.629  12.554
65250SOL     OW97588   7.513   5.961  13.542
65250SOL    HW197589   7.423   5.931  13.554
65250SOL    HW297590   7.521   5.977  13.448
65251SOL     OW97591   4.232   4.436   2.473
65251SOL    HW197592   4.177   4.470   2.544
65251SOL    HW297593   4.287   4.510   2.448
65252SOL     OW97594   4.769   6.121   8.991
65252SOL    HW197595   4.843   6.074   8.954
65252SOL    HW297596   4.800   6.211   9.000
65253SOL     OW97597   2.294  12.560   0.933
65253SOL    HW197598   2.246  12.487   0.971
65253SOL    HW297599   2.234  12.634   0.940
65254SOL     OW97600  10.198   2.412   1.492
65254SOL    HW197601  10.200   2.440   1.401
65254SOL    HW297602  10.118   2.450   1.527
65255SOL     OW97603   9.497   0.454  13.408
65255SOL    HW197604   9.575   0.434  13.460
65255SOL    HW297605   9.532   0.486  13.324
65256SOL     OW97606   6.395   0.996  14.159
65256SOL    HW197607   6.365   0.928  14.099
65256SOL    HW297608   6.464   0.954  14.211
65257SOL     OW97609   2.267   3.300  13.422
65257SOL    HW197610   2.224   3.358  13.359
65257SOL    HW297611   2.312   3.359  13.482
65258SOL     OW97612  10.727   1.536   8.599
65258SOL    HW197613  10.732   1.601   8.529
65258SOL    HW297614  10.760   1.455   8.559
65259SOL     OW97615   4.301   0.140   7.551
65259SOL    HW197616   4.354   0.219   7.540
65259SOL    HW297617   4.362   0.069   7.531
65260SOL     OW97618   5.715   6.617  11.038
65260SOL    HW197619   5.724   6.709  11.061
65260SOL    HW297620   5.623   6.605  11.017
65261SOL     OW97621   0.817  11.376   2.875
65261SOL    HW197622   0.867  11.296   2.857
65261SOL    HW297623   0.882  11.445   2.871
65262SOL     OW97624  12.344   2.076  14.026
65262SOL    HW197625  12.391   2.095  14.107
65262SOL    HW297626  12.411   2.045  13.965
65263SOL     OW97627   0.575   7.673   5.189
65263SOL    HW197628   0.603   7.712   5.272
65263SOL    HW297629   0.508   7.610   5.214
65264SOL     OW97630  10.902  12.225  11.468
65264SOL    HW197631  10.860  12.203  11.551
65264SOL    HW297632  10.943  12.310  11.484
65265SOL     OW97633   6.556   4.245   0.515
65265SOL    HW197634   6.512   4.328   0.535
65265SOL    HW297635   6.645   4.270   0.491
65266SOL     OW97636  13.391   6.312   1.849
65266SOL    HW197637  13.449   6.248   1.808
65266SOL    HW297638  13.347   6.356   1.776
65267SOL     OW97639   4.321   9.042   2.921
65267SOL    HW197640   4.343   8.959   2.964
65267SOL    HW297641   4.262   9.086   2.982
65268SOL     OW97642  10.875  13.679   7.454
65268SOL    HW197643  10.952  13.698   7.401
65268SOL    HW297644  10.826  13.761   7.455
65269SOL     OW97645   7.186  11.427   0.519
65269SOL    HW197646   7.262  11.384   0.480
65269SOL    HW297647   7.113  11.368   0.503
65270SOL     OW97648   2.791   8.087   9.966
65270SOL    HW197649   2.829   8.168   9.933
65270SOL    HW297650   2.722   8.116  10.026
65271SOL     OW97651   4.956   9.639   4.396
65271SOL    HW197652   5.027   9.685   4.351
65271SOL    HW297653   4.968   9.547   4.372
65272SOL     OW97654   0.192   5.105  13.086
65272SOL    HW197655   0.207   5.113  13.180
65272SOL    HW297656   0.097   5.096  13.078
65273SOL     OW97657   8.595  13.626   5.584
65273SOL    HW197658   8.506  13.606   5.556
65273SOL    HW297659   8.584  13.692   5.653
65274SOL     OW97660   0.288   5.643   2.224
65274SOL    HW197661   0.276   5.728   2.267
65274SOL    HW297662   0.381   5.639   2.204
65275SOL     OW97663  14.149  11.144  10.713
65275SOL    HW197664  14.137  11.062  10.666
65275SOL    HW297665  14.234  11.176  10.685
65276SOL     OW97666  10.711   7.517   7.702
65276SOL    HW197667  10.664   7.559   7.630
65276SOL    HW297668  10.651   7.449   7.734
65277SOL     OW97669  12.596  10.689   1.431
65277SOL    HW197670  12.584  10.754   1.362
65277SOL    HW297671  12.512  10.686   1.477
65278SOL     OW97672   9.444   9.094   3.713
65278SOL    HW197673   9.509   9.147   3.666
65278SOL    HW297674   9.396   9.048   3.644
65279SOL     OW97675   1.937  12.541  12.866
65279SOL    HW197676   2.008  12.597  12.898
65279SOL    HW297677   1.980  12.460  12.840
65280SOL     OW97678  14.431   5.330   1.832
65280SOL    HW197679  14.374   5.405   1.851
65280SOL    HW297680  14.505   5.340   1.890
65281SOL     OW97681  10.114  11.430  11.440
65281SOL    HW197682  10.106  11.338  11.417
65281SOL    HW297683  10.077  11.477  11.366
65282SOL     OW97684   3.022   0.466  12.526
65282SOL    HW197685   3.095   0.509  12.570
65282SOL    HW297686   2.976   0.536  12.481
65283SOL     OW97687  12.941  14.836  14.754
65283SOL    HW197688  12.938   0.056  14.735
65283SOL    HW297689  13.031  14.811  14.736
65284SOL     OW97690   1.753   1.099   6.375
65284SOL    HW197691   1.760   1.056   6.460
65284SOL    HW297692   1.768   1.192   6.393
65285SOL     OW97693  14.514  11.873  11.161
65285SOL    HW197694  14.466  11.955  11.177
65285SOL    HW297695  14.454  11.821  11.107
65286SOL     OW97696  11.241   2.807   8.043
65286SOL    HW197697  11.252   2.902   8.040
65286SOL    HW297698  11.328   2.773   8.059
65287SOL     OW97699  12.807   9.677   7.566
65287SOL    HW197700  12.756   9.612   7.517
65287SOL    HW297701  12.742   9.724   7.618
65288SOL     OW97702   4.620  10.949   0.993
65288SOL    HW197703   4.667  11.023   1.032
65288SOL    HW297704   4.544  10.937   1.048
65289SOL     OW97705   8.913  12.238   8.468
65289SOL    HW197706   8.864  12.313   8.503
65289SOL    HW297707   8.917  12.255   8.374
65290SOL     OW97708  14.637   9.682   5.299
65290SOL    HW197709  14.639   9.776   5.316
65290SOL    HW297710  14.548   9.656   5.321
65291SOL     OW97711  10.456   2.215   9.620
65291SOL    HW197712  10.524   2.280   9.637
65291SOL    HW297713  10.483   2.172   9.539
65292SOL     OW97714   5.307   4.621  10.628
65292SOL    HW197715   5.228   4.598  10.676
65292SOL    HW297716   5.362   4.666  10.693
65293SOL     OW97717  14.267   2.625   4.527
65293SOL    HW197718  14.258   2.575   4.445
65293SOL    HW297719  14.226   2.569   4.593
65294SOL     OW97720   5.892   7.125   9.656
65294SOL    HW197721   5.876   7.050   9.714
65294SOL    HW297722   5.890   7.087   9.568
65295SOL     OW97723   2.635   1.884  12.859
65295SOL    HW197724   2.646   1.922  12.947
65295SOL    HW297725   2.680   1.799  12.864
65296SOL     OW97726   9.721   1.810  11.660
65296SOL    HW197727   9.687   1.895  11.690
65296SOL    HW297728   9.695   1.806  11.568
65297SOL     OW97729  10.854  13.830   9.293
65297SOL    HW197730  10.770  13.833   9.339
65297SOL    HW297731  10.909  13.893   9.339
65298SOL     OW97732  13.071  13.776  11.489
65298SOL    HW197733  13.142  13.832  11.457
65298SOL    HW297734  12.992  13.829  11.479
65299SOL     OW97735  11.520  13.377  12.999
65299SOL    HW197736  11.555  13.291  13.022
65299SOL    HW297737  11.511  13.423  13.082
65300SOL     OW97738   9.294  13.415  14.333
65300SOL    HW197739   9.298  13.500  14.377
65300SOL    HW297740   9.304  13.351  14.404
65301SOL     OW97741   9.166  14.472   0.232
65301SOL    HW197742   9.232  14.408   0.261
65301SOL    HW297743   9.199  14.556   0.262
65302SOL     OW97744  12.134   7.575   8.052
65302SOL    HW197745  12.221   7.597   8.018
65302SOL    HW297746  12.074   7.632   8.004
65303SOL     OW97747   3.905   7.095  10.581
65303SOL    HW197748   3.962   7.047  10.640
65303SOL    HW297749   3.852   7.150  10.639
65304SOL     OW97750  10.971   5.071   8.425
65304SOL    HW197751  11.020   5.152   8.430
65304SOL    HW297752  10.890   5.095   8.379
65305SOL     OW97753   3.308  11.194   7.485
65305SOL    HW197754   3.396  11.168   7.460
65305SOL    HW297755   3.258  11.192   7.404
65306SOL     OW97756   0.432  11.022  14.035
65306SOL    HW197757   0.401  10.996  13.948
65306SOL    HW297758   0.504  10.963  14.053
65307SOL     OW97759   6.304   3.622   1.722
65307SOL    HW197760   6.276   3.581   1.804
65307SOL    HW297761   6.357   3.555   1.679
65308SOL     OW97762   5.484   6.320   0.454
65308SOL    HW197763   5.531   6.369   0.521
65308SOL    HW297764   5.469   6.234   0.493
65309SOL     OW97765  14.442   1.212   8.211
65309SOL    HW197766  14.423   1.306   8.218
65309SOL    HW297767  14.502   1.195   8.283
65310SOL     OW97768  10.806   1.183   6.592
65310SOL    HW197769  10.848   1.155   6.511
65310SOL    HW297770  10.875   1.178   6.658
65311SOL     OW97771   6.834  10.211   0.044
65311SOL    HW197772   6.868  10.137  14.868
65311SOL    HW297773   6.742  10.190   0.059
65312SOL     OW97774  10.075   7.293   5.505
65312SOL    HW197775   9.987   7.307   5.470
65312SOL    HW297776  10.093   7.201   5.489
65313SOL     OW97777  14.706  14.424  11.283
65313SOL    HW197778  14.653  14.479  11.339
65313SOL    HW297779  14.653  14.412  11.204
65314SOL     OW97780  10.531  10.412  12.958
65314SOL    HW197781  10.529  10.435  13.051
65314SOL    HW297782  10.444  10.374  12.941
65315SOL     OW97783   4.707   5.843   3.459
65315SOL    HW197784   4.702   5.803   3.372
65315SOL    HW297785   4.800   5.841   3.481
65316SOL     OW97786   2.672   8.812   3.258
65316SOL    HW197787   2.693   8.825   3.351
65316SOL    HW297788   2.755   8.786   3.218
65317SOL     OW97789   0.727  14.778   6.280
65317SOL    HW197790   0.739  14.864   6.320
65317SOL    HW297791   0.708  14.720   6.354
65318SOL     OW97792  12.566   8.631   5.439
65318SOL    HW197793  12.545   8.554   5.386
65318SOL    HW297794  12.659   8.645   5.424
65319SOL     OW97795   5.741  13.447   0.067
65319SOL    HW197796   5.727  13.540   0.048
65319SOL    HW297797   5.664  13.404   0.030
65320SOL     OW97798  11.477   6.140   6.565
65320SOL    HW197799  11.502   6.223   6.607
65320SOL    HW297800  11.465   6.079   6.638
65321SOL     OW97801   8.145   3.802   9.904
65321SOL    HW197802   8.154   3.773   9.994
65321SOL    HW297803   8.079   3.744   9.866
65322SOL     OW97804  10.353   7.392   4.889
65322SOL    HW197805  10.294   7.324   4.858
65322SOL    HW297806  10.351   7.459   4.821
65323SOL     OW97807  11.287   7.517   3.611
65323SOL    HW197808  11.343   7.505   3.534
65323SOL    HW297809  11.253   7.429   3.630
65324SOL     OW97810  12.607   6.051  13.434
65324SOL    HW197811  12.609   6.139  13.397
65324SOL    HW297812  12.610   5.993  13.358
65325SOL     OW97813   4.046   1.770   7.460
65325SOL    HW197814   3.968   1.788   7.407
65325SOL    HW297815   4.088   1.856   7.470
65326SOL     OW97816   6.889  10.283   9.859
65326SOL    HW197817   6.931  10.335   9.791
65326SOL    HW297818   6.902  10.334   9.939
65327SOL     OW97819   1.559   7.504  13.000
65327SOL    HW197820   1.614   7.485  12.924
65327SOL    HW297821   1.478   7.539  12.963
65328SOL     OW97822   2.380   0.645   3.426
65328SOL    HW197823   2.302   0.699   3.437
65328SOL    HW297824   2.408   0.663   3.336
65329SOL     OW97825   1.626   9.556  13.990
65329SOL    HW197826   1.705   9.533  14.039
65329SOL    HW297827   1.571   9.479  13.996
65330SOL     OW97828   6.734   6.535   7.314
65330SOL    HW197829   6.698   6.526   7.226
65330SOL    HW297830   6.753   6.446   7.342
65331SOL     OW97831   7.297   4.070   8.425
65331SOL    HW197832   7.328   4.148   8.379
65331SOL    HW297833   7.201   4.077   8.422
65332SOL     OW97834   6.457   0.176   0.402
65332SOL    HW197835   6.467   0.112   0.333
65332SOL    HW297836   6.537   0.169   0.454
65333SOL     OW97837  13.703   0.873  11.787
65333SOL    HW197838  13.794   0.849  11.802
65333SOL    HW297839  13.696   0.963  11.818
65334SOL     OW97840  14.548  11.018   7.344
65334SOL    HW197841  14.544  11.045   7.252
65334SOL    HW297842  14.582  10.929   7.342
65335SOL     OW97843   6.049   7.121   3.762
65335SOL    HW197844   6.063   7.076   3.846
65335SOL    HW297845   6.118   7.188   3.759
65336SOL     OW97846  10.136   9.064   4.177
65336SOL    HW197847  10.199   9.120   4.223
65336SOL    HW297848  10.129   9.102   4.090
65337SOL     OW97849   8.099  11.766   2.046
65337SOL    HW197850   8.019  11.781   1.996
65337SOL    HW297851   8.163  11.737   1.980
65338SOL     OW97852   8.578  13.304   3.354
65338SOL    HW197853   8.555  13.397   3.357
65338SOL    HW297854   8.515  13.266   3.293
65339SOL     OW97855   3.838   3.199   9.928
65339SOL    HW197856   3.771   3.141   9.966
65339SOL    HW297857   3.917   3.180   9.978
65340SOL     OW97858   5.513   4.331   2.720
65340SOL    HW197859   5.552   4.366   2.639
65340SOL    HW297860   5.430   4.379   2.728
65341SOL     OW97861   3.763  11.518   9.156
65341SOL    HW197862   3.699  11.446   9.154
65341SOL    HW297863   3.711  11.595   9.181
65342SOL     OW97864   7.896  11.805   2.474
65342SOL    HW197865   7.962  11.817   2.406
65342SOL    HW297866   7.904  11.712   2.498
65343SOL     OW97867  14.436   2.289  11.766
65343SOL    HW197868  14.506   2.236  11.729
65343SOL    HW297869  14.481   2.345  11.830
65344SOL     OW97870   4.175   5.940   5.931
65344SOL    HW197871   4.200   5.854   5.897
65344SOL    HW297872   4.082   5.933   5.951
65345SOL     OW97873  13.455   6.689  13.862
65345SOL    HW197874  13.424   6.750  13.796
65345SOL    HW297875  13.546   6.714  13.877
65346SOL     OW97876   7.362   1.476   5.471
65346SOL    HW197877   7.392   1.553   5.519
65346SOL    HW297878   7.437   1.451   5.418
65347SOL     OW97879   0.969   4.126   8.041
65347SOL    HW197880   0.874   4.115   8.032
65347SOL    HW297881   0.989   4.201   7.984
65348SOL     OW97882   3.838  13.324   6.787
65348SOL    HW197883   3.809  13.280   6.867
65348SOL    HW297884   3.923  13.361   6.808
65349SOL     OW97885  10.441  11.528  13.038
65349SOL    HW197886  10.469  11.436  13.032
65349SOL    HW297887  10.515  11.577  13.003
65350SOL     OW97888  11.254   0.236  13.378
65350SOL    HW197889  11.338   0.196  13.355
65350SOL    HW297890  11.189   0.169  13.357
65351SOL     OW97891  14.215   2.716  13.517
65351SOL    HW197892  14.216   2.733  13.422
65351SOL    HW297893  14.139   2.765  13.549
65352SOL     OW97894   3.096   3.194  11.644
65352SOL    HW197895   3.180   3.238  11.637
65352SOL    HW297896   3.048   3.243  11.710
65353SOL     OW97897   3.180   6.414   2.231
65353SOL    HW197898   3.210   6.436   2.143
65353SOL    HW297899   3.181   6.319   2.234
65354SOL     OW97900  14.775  13.812   3.069
65354SOL    HW197901  14.795  13.761   3.148
65354SOL    HW297902  14.796  13.902   3.093
65355SOL     OW97903   5.780   1.596   0.148
65355SOL    HW197904   5.817   1.680   0.174
65355SOL    HW297905   5.855   1.536   0.146
65356SOL     OW97906   1.955   5.876   3.199
65356SOL    HW197907   2.015   5.948   3.218
65356SOL    HW297908   2.009   5.797   3.204
65357SOL     OW97909   7.138   4.413   5.622
65357SOL    HW197910   7.138   4.463   5.704
65357SOL    HW297911   7.216   4.358   5.627
65358SOL     OW97912  11.966  11.574   3.940
65358SOL    HW197913  11.992  11.657   3.901
65358SOL    HW297914  11.967  11.591   4.035
65359SOL     OW97915  14.665  13.161   7.146
65359SOL    HW197916  14.705  13.247   7.155
65359SOL    HW297917  14.647  13.153   7.052
65360SOL     OW97918   1.304   0.011  12.071
65360SOL    HW197919   1.306  14.799  12.112
65360SOL    HW297920   1.250   0.065  12.128
65361SOL     OW97921   9.794   6.081  11.083
65361SOL    HW197922   9.844   6.126  11.016
65361SOL    HW297923   9.729   6.145  11.113
65362SOL     OW97924   3.635  13.046   6.176
65362SOL    HW197925   3.721  13.007   6.157
65362SOL    HW297926   3.646  13.139   6.155
65363SOL     OW97927   1.893  12.527  11.233
65363SOL    HW197928   1.897  12.432  11.247
65363SOL    HW297929   1.843  12.537  11.152
65364SOL     OW97930   4.491   5.928  13.645
65364SOL    HW197931   4.548   5.963  13.714
65364SOL    HW297932   4.513   5.835  13.641
65365SOL     OW97933   2.414   4.037   5.439
65365SOL    HW197934   2.378   4.109   5.386
65365SOL    HW297935   2.509   4.046   5.430
65366SOL     OW97936   9.300  12.683   1.824
65366SOL    HW197937   9.273  12.591   1.821
65366SOL    HW297938   9.281  12.711   1.913
65367SOL     OW97939  13.719   4.499  13.824
65367SOL    HW197940  13.676   4.570  13.778
65367SOL    HW297941  13.664   4.483  13.901
65368SOL     OW97942   9.945   1.619  14.258
65368SOL    HW197943   9.941   1.527  14.284
65368SOL    HW297944   9.858   1.653  14.279
65369SOL     OW97945   2.359   6.900   6.348
65369SOL    HW197946   2.302   6.959   6.299
65369SOL    HW297947   2.343   6.922   6.440
65370SOL     OW97948   8.827   5.332  12.146
65370SOL    HW197949   8.732   5.332  12.155
65370SOL    HW297950   8.856   5.404  12.201
65371SOL     OW97951   5.784   2.924   2.016
65371SOL    HW197952   5.854   2.859   2.016
65371SOL    HW297953   5.716   2.887   1.959
65372SOL     OW97954  10.497  11.551  13.522
65372SOL    HW197955  10.450  11.548  13.438
65372SOL    HW297956  10.530  11.462  13.534
65373SOL     OW97957   0.225   1.956   0.202
65373SOL    HW197958   0.316   1.983   0.216
65373SOL    HW297959   0.177   1.995   0.276
65374SOL     OW97960  10.801   7.630   2.164
65374SOL    HW197961  10.773   7.633   2.073
65374SOL    HW297962  10.730   7.670   2.213
65375SOL     OW97963   4.225   5.201   7.566
65375SOL    HW197964   4.145   5.155   7.594
65375SOL    HW297965   4.219   5.202   7.471
65376SOL     OW97966  12.170   2.053  10.336
65376SOL    HW197967  12.130   2.134  10.369
65376SOL    HW297968  12.128   1.984  10.388
65377SOL     OW97969  12.603   3.311   4.388
65377SOL    HW197970  12.670   3.366   4.429
65377SOL    HW297971  12.535   3.372   4.359
65378SOL     OW97972   8.714   6.491   4.052
65378SOL    HW197973   8.635   6.521   4.009
65378SOL    HW297974   8.729   6.555   4.122
65379SOL     OW97975  11.474  14.594   4.291
65379SOL    HW197976  11.410  14.559   4.353
65379SOL    HW297977  11.516  14.517   4.254
65380SOL     OW97978   2.941   6.164   9.153
65380SOL    HW197979   2.927   6.069   9.158
65380SOL    HW297980   2.986   6.177   9.070
65381SOL     OW97981   4.912   5.894   2.353
65381SOL    HW197982   4.849   5.962   2.376
65381SOL    HW297983   4.872   5.813   2.383
65382SOL     OW97984   5.617   7.840   5.027
65382SOL    HW197985   5.703   7.880   5.038
65382SOL    HW297986   5.581   7.835   5.115
65383SOL     OW97987   9.158   4.772   5.704
65383SOL    HW197988   9.184   4.694   5.654
65383SOL    HW297989   9.090   4.740   5.763
65384SOL     OW97990   3.262   3.467   5.113
65384SOL    HW197991   3.171   3.464   5.083
65384SOL    HW297992   3.256   3.468   5.209
65385SOL     OW97993   9.827   1.303   3.722
65385SOL    HW197994   9.863   1.221   3.688
65385SOL    HW297995   9.901   1.363   3.725
65386SOL     OW97996  10.311   4.655   1.758
65386SOL    HW197997  10.295   4.589   1.690
65386SOL    HW297998  10.381   4.709   1.721
65387SOL     OW97999  11.257   6.462   3.248
65387SOL    HW198000  11.242   6.542   3.297
65387SOL    HW298001  11.333   6.421   3.289
65388SOL     OW98002  13.733   0.133  10.511
65388SOL    HW198003  13.646   0.166  10.532
65388SOL    HW298004  13.756   0.077  10.586
65389SOL     OW98005   0.540   2.902   4.921
65389SOL    HW198006   0.539   2.885   4.827
65389SOL    HW298007   0.472   2.844   4.957
65390SOL     OW98008   8.682  14.781   8.669
65390SOL    HW198009   8.741  14.742   8.605
65390SOL    HW298010   8.635  14.848   8.621
65391SOL     OW98011   2.232   3.976  12.930
65391SOL    HW198012   2.184   3.932  12.859
65391SOL    HW298013   2.273   4.052  12.887
65392SOL     OW98014  11.559   4.126   9.937
65392SOL    HW198015  11.634   4.068   9.952
65392SOL    HW298016  11.533   4.154  10.025
65393SOL     OW98017   1.748  10.167   7.150
65393SOL    HW198018   1.790  10.098   7.201
65393SOL    HW298019   1.731  10.237   7.212
65394SOL     OW98020   6.005   5.578   6.797
65394SOL    HW198021   5.978   5.616   6.713
65394SOL    HW298022   6.101   5.573   6.791
65395SOL     OW98023   6.031   9.528  12.747
65395SOL    HW198024   6.082   9.488  12.818
65395SOL    HW298025   5.980   9.456  12.710
65396SOL     OW98026   6.284   7.391   1.166
65396SOL    HW198027   6.215   7.457   1.181
65396SOL    HW298028   6.324   7.379   1.253
65397SOL     OW98029   6.722   8.468   6.998
65397SOL    HW198030   6.779   8.528   7.046
65397SOL    HW298031   6.634   8.504   7.009
65398SOL     OW98032  10.752   1.141  10.348
65398SOL    HW198033  10.808   1.101  10.282
65398SOL    HW298034  10.803   1.215  10.381
65399SOL     OW98035   9.782   2.849   4.686
65399SOL    HW198036   9.699   2.849   4.640
65399SOL    HW298037   9.759   2.844   4.779
65400SOL     OW98038   1.162   0.433  14.736
65400SOL    HW198039   1.154   0.450  14.830
65400SOL    HW298040   1.088   0.377  14.715
65401SOL     OW98041   4.519   1.285   4.002
65401SOL    HW198042   4.452   1.332   3.952
65401SOL    HW298043   4.487   1.194   4.005
65402SOL     OW98044   4.020   9.169   5.653
65402SOL    HW198045   3.969   9.110   5.598
65402SOL    HW298046   4.100   9.186   5.604
65403SOL     OW98047   2.343   7.278   0.239
65403SOL    HW198048   2.413   7.238   0.188
65403SOL    HW298049   2.310   7.349   0.184
65404SOL     OW98050  12.552  13.430  14.381
65404SOL    HW198051  12.515  13.385  14.305
65404SOL    HW298052  12.556  13.522  14.354
65405SOL     OW98053   1.762   2.516  12.583
65405SOL    HW198054   1.755   2.480  12.672
65405SOL    HW298055   1.820   2.591  12.593
65406SOL     OW98056  14.306   7.894   3.493
65406SOL    HW198057  14.330   7.952   3.422
65406SOL    HW298058  14.374   7.826   3.494
65407SOL     OW98059  10.594  12.275   8.272
65407SOL    HW198060  10.522  12.212   8.272
65407SOL    HW298061  10.666  12.230   8.227
65408SOL     OW98062  10.112   2.269   9.922
65408SOL    HW198063  10.193   2.218   9.917
65408SOL    HW298064  10.076   2.248  10.008
65409SOL     OW98065   5.891   6.715   5.414
65409SOL    HW198066   5.867   6.782   5.478
65409SOL    HW298067   5.876   6.632   5.459
65410SOL     OW98068  14.831  14.408  12.142
65410SOL    HW198069  14.850  14.452  12.059
65410SOL    HW298070   0.036  14.360  12.163
65411SOL     OW98071  14.678  11.042   6.277
65411SOL    HW198072  14.709  11.115   6.331
65411SOL    HW298073  14.645  11.084   6.197
65412SOL     OW98074   7.914   4.852   5.493
65412SOL    HW198075   7.979   4.847   5.422
65412SOL    HW298076   7.843   4.794   5.465
65413SOL     OW98077   8.515   8.071   6.998
65413SOL    HW198078   8.550   8.133   6.934
65413SOL    HW298079   8.457   8.123   7.054
65414SOL     OW98080  12.957  12.375   1.561
65414SOL    HW198081  12.970  12.357   1.468
65414SOL    HW298082  12.988  12.464   1.573
65415SOL     OW98083   7.237   2.551  11.978
65415SOL    HW198084   7.326   2.534  11.949
65415SOL    HW298085   7.217   2.639  11.945
65416SOL     OW98086  14.499   0.611  14.446
65416SOL    HW198087  14.589   0.589  14.470
65416SOL    HW298088  14.507   0.657  14.362
65417SOL     OW98089   0.098   7.332   7.944
65417SOL    HW198090   0.131   7.329   7.855
65417SOL    HW298091   0.169   7.369   7.996
65418SOL     OW98092   3.278   3.426   9.796
65418SOL    HW198093   3.196   3.386   9.825
65418SOL    HW298094   3.255   3.475   9.717
65419SOL     OW98095   0.745  14.184  11.057
65419SOL    HW198096   0.659  14.173  11.015
65419SOL    HW298097   0.751  14.112  11.119
65420SOL     OW98098   2.446   8.420   4.022
65420SOL    HW198099   2.361   8.435   4.065
65420SOL    HW298100   2.423   8.384   3.936
65421SOL     OW98101  13.093   7.608   4.396
65421SOL    HW198102  13.099   7.703   4.381
65421SOL    HW298103  13.081   7.571   4.308
65422SOL     OW98104   9.180   9.109  10.321
65422SOL    HW198105   9.226   9.186  10.354
65422SOL    HW298106   9.096   9.143  10.289
65423SOL     OW98107  11.450   0.410   9.277
65423SOL    HW198108  11.440   0.506   9.276
65423SOL    HW298109  11.481   0.389   9.189
65424SOL     OW98110  13.652   5.366  12.153
65424SOL    HW198111  13.683   5.417  12.078
65424SOL    HW298112  13.713   5.390  12.223
65425SOL     OW98113   0.419  12.344   7.781
65425SOL    HW198114   0.382  12.431   7.762
65425SOL    HW298115   0.462  12.318   7.700
65426SOL     OW98116   6.586   6.668   1.203
65426SOL    HW198117   6.545   6.607   1.265
65426SOL    HW298118   6.655   6.616   1.161
65427SOL     OW98119  13.047   9.958   9.813
65427SOL    HW198120  13.079  10.030   9.868
65427SOL    HW298121  13.079   9.879   9.858
65428SOL     OW98122  13.032   4.177   9.487
65428SOL    HW198123  13.065   4.260   9.453
65428SOL    HW298124  13.110   4.125   9.506
65429SOL     OW98125   7.224   7.741   7.035
65429SOL    HW198126   7.307   7.724   7.079
65429SOL    HW298127   7.182   7.655   7.028
65430SOL     OW98128   9.865  11.663  12.112
65430SOL    HW198129   9.777  11.666  12.075
65430SOL    HW298130   9.897  11.575  12.090
65431SOL     OW98131   4.287   6.601   8.646
65431SOL    HW198132   4.296   6.523   8.701
65431SOL    HW298133   4.278   6.567   8.557
65432SOL     OW98134  12.079   5.625   0.655
65432SOL    HW198135  12.134   5.678   0.713
65432SOL    HW298136  12.022   5.688   0.612
65433SOL     OW98137   4.616   2.885  12.474
65433SOL    HW198138   4.568   2.859  12.396
65433SOL    HW298139   4.606   2.980  12.479
65434SOL     OW98140  11.437   7.846   7.414
65434SOL    HW198141  11.391   7.801   7.343
65434SOL    HW298142  11.368   7.893   7.461
65435SOL     OW98143   9.897   2.522   3.080
65435SOL    HW198144   9.910   2.564   3.166
65435SOL    HW298145   9.805   2.541   3.059
65436SOL     OW98146  11.451   6.217  10.437
65436SOL    HW198147  11.476   6.303  10.404
65436SOL    HW298148  11.393   6.234  10.511
65437SOL     OW98149  11.203  12.235  11.799
65437SOL    HW198150  11.229  12.234  11.891
65437SOL    HW298151  11.122  12.184  11.796
65438SOL     OW98152  11.890  12.855   5.711
65438SOL    HW198153  11.981  12.831   5.728
65438SOL    HW298154  11.886  12.949   5.730
65439SOL     OW98155   1.880   6.715  12.710
65439SOL    HW198156   1.921   6.737  12.627
65439SOL    HW298157   1.792   6.686  12.687
65440SOL     OW98158   9.658   5.931   2.045
65440SOL    HW198159   9.641   5.842   2.076
65440SOL    HW298160   9.704   5.973   2.117
65441SOL     OW98161   3.793  11.989  10.851
65441SOL    HW198162   3.757  11.902  10.840
65441SOL    HW298163   3.789  12.004  10.946
65442SOL     OW98164   9.457   7.941  11.737
65442SOL    HW198165   9.371   7.921  11.700
65442SOL    HW298166   9.516   7.939  11.662
65443SOL     OW98167   6.257   1.796   6.869
65443SOL    HW198168   6.230   1.704   6.865
65443SOL    HW298169   6.285   1.808   6.960
65444SOL     OW98170  12.642   9.302  12.044
65444SOL    HW198171  12.654   9.279  11.952
65444SOL    HW298172  12.727   9.337  12.072
65445SOL     OW98173   1.091   6.964   7.955
65445SOL    HW198174   1.106   6.933   7.866
65445SOL    HW298175   1.000   6.995   7.955
65446SOL     OW98176   9.326  14.064  14.079
65446SOL    HW198177   9.274  13.988  14.105
65446SOL    HW298178   9.390  14.074  14.150
65447SOL     OW98179  12.656   3.269   8.262
65447SOL    HW198180  12.667   3.211   8.338
65447SOL    HW298181  12.617   3.348   8.299
65448SOL     OW98182   7.116   8.806  10.179
65448SOL    HW198183   7.023   8.821  10.161
65448SOL    HW298184   7.155   8.796  10.092
65449SOL     OW98185   1.207   5.773   1.996
65449SOL    HW198186   1.128   5.821   1.970
65449SOL    HW298187   1.275   5.805   1.936
65450SOL     OW98188   9.529   6.279   3.765
65450SOL    HW198189   9.471   6.344   3.724
65450SOL    HW298190   9.575   6.327   3.833
65451SOL     OW98191   5.675  14.521  13.188
65451SOL    HW198192   5.667  14.607  13.229
65451SOL    HW298193   5.597  14.473  13.217
65452SOL     OW98194   8.258   4.453  14.695
65452SOL    HW198195   8.312   4.441  14.773
65452SOL    HW298196   8.293   4.390  14.632
65453SOL     OW98197   6.159   5.337   9.517
65453SOL    HW198198   6.158   5.248   9.552
65453SOL    HW298199   6.083   5.341   9.459
65454SOL     OW98200  11.383   0.441   6.724
65454SOL    HW198201  11.314   0.401   6.671
65454SOL    HW298202  11.356   0.532   6.733
65455SOL     OW98203   6.499   2.396   9.253
65455SOL    HW198204   6.539   2.378   9.168
65455SOL    HW298205   6.469   2.487   9.247
65456SOL     OW98206   4.448   2.879   0.794
65456SOL    HW198207   4.471   2.878   0.701
65456SOL    HW298208   4.376   2.817   0.803
65457SOL     OW98209  13.904   6.344  11.110
65457SOL    HW198210  13.978   6.321  11.053
65457SOL    HW298211  13.931   6.315  11.197
65458SOL     OW98212   6.058   4.309   2.986
65458SOL    HW198213   6.107   4.258   2.921
65458SOL    HW298214   6.102   4.394   2.987
65459SOL     OW98215   3.522   9.403   4.565
65459SOL    HW198216   3.533   9.365   4.652
65459SOL    HW298217   3.530   9.329   4.505
65460SOL     OW98218   9.469   0.596   5.705
65460SOL    HW198219   9.490   0.684   5.675
65460SOL    HW298220   9.524   0.584   5.783
65461SOL     OW98221   7.635  14.787   7.957
65461SOL    HW198222   7.623  14.723   8.028
65461SOL    HW298223   7.550  14.789   7.913
65462SOL     OW98224   1.390   9.803   5.192
65462SOL    HW198225   1.428   9.766   5.113
65462SOL    HW298226   1.336   9.732   5.228
65463SOL     OW98227   0.473  12.908  11.009
65463SOL    HW198228   0.430  12.989  11.036
65463SOL    HW298229   0.405  12.860  10.962
65464SOL     OW98230   2.712   6.160  11.992
65464SOL    HW198231   2.790   6.112  12.019
65464SOL    HW298232   2.741   6.216  11.920
65465SOL     OW98233   3.810   8.743  13.497
65465SOL    HW198234   3.882   8.682  13.488
65465SOL    HW298235   3.743   8.711  13.436
65466SOL     OW98236   8.808   0.028   3.115
65466SOL    HW198237   8.766  14.848   3.048
65466SOL    HW298238   8.762   0.007   3.196
65467SOL     OW98239   2.030   6.157  10.321
65467SOL    HW198240   2.086   6.109  10.261
65467SOL    HW298241   1.993   6.090  10.379
65468SOL     OW98242   8.620   8.506  14.203
65468SOL    HW198243   8.711   8.536  14.199
65468SOL    HW298244   8.574   8.576  14.249
65469SOL     OW98245   1.491   3.344   2.717
65469SOL    HW198246   1.499   3.248   2.723
65469SOL    HW298247   1.412   3.365   2.766
65470SOL     OW98248   3.095   1.595   4.778
65470SOL    HW198249   3.130   1.681   4.800
65470SOL    HW298250   3.168   1.548   4.738
65471SOL     OW98251  13.431   5.187   9.666
65471SOL    HW198252  13.349   5.187   9.716
65471SOL    HW298253  13.485   5.254   9.710
65472SOL     OW98254   4.045   6.220   5.505
65472SOL    HW198255   4.119   6.195   5.449
65472SOL    HW298256   4.072   6.194   5.593
65473SOL     OW98257   1.021   9.851   3.045
65473SOL    HW198258   0.938   9.805   3.060
65473SOL    HW298259   1.002   9.913   2.975
65474SOL     OW98260   4.524  10.391   2.419
65474SOL    HW198261   4.501  10.396   2.326
65474SOL    HW298262   4.581  10.314   2.425
65475SOL     OW98263   7.849   6.622   6.817
65475SOL    HW198264   7.787   6.693   6.836
65475SOL    HW298265   7.839   6.561   6.890
65476SOL     OW98266   6.261   7.301   3.776
65476SOL    HW198267   6.234   7.374   3.832
65476SOL    HW298268   6.354   7.289   3.795
65477SOL     OW98269  10.560  12.833   4.375
65477SOL    HW198270  10.501  12.889   4.323
65477SOL    HW298271  10.632  12.812   4.315
65478SOL     OW98272   6.557   8.814   9.921
65478SOL    HW198273   6.536   8.731   9.963
65478SOL    HW298274   6.521   8.807   9.833
65479SOL     OW98275   6.895   4.465  11.791
65479SOL    HW198276   6.941   4.403  11.847
65479SOL    HW298277   6.804   4.459  11.818
65480SOL     OW98278   6.030   1.648   5.442
65480SOL    HW198279   6.043   1.732   5.397
65480SOL    HW298280   5.982   1.670   5.521
65481SOL     OW98281   0.026   6.594  12.840
65481SOL    HW198282  14.813   6.633  12.854
65481SOL    HW298283   0.026   6.569  12.748
65482SOL     OW98284   6.723   1.947   8.685
65482SOL    HW198285   6.798   2.001   8.711
65482SOL    HW298286   6.694   1.906   8.767
65483SOL     OW98287  12.768  12.396   9.616
65483SOL    HW198288  12.696  12.443   9.657
65483SOL    HW298289  12.830  12.464   9.591
65484SOL     OW98290   6.834   6.752   6.137
65484SOL    HW198291   6.770   6.798   6.191
65484SOL    HW298292   6.913   6.806   6.141
65485SOL     OW98293  12.641   4.466   0.719
65485SOL    HW198294  12.730   4.476   0.752
65485SOL    HW298295  12.604   4.395   0.772
65486SOL     OW98296   5.995   5.981   7.595
65486SOL    HW198297   6.038   5.899   7.617
65486SOL    HW298298   6.027   6.003   7.507
65487SOL     OW98299   1.501  11.175   5.205
65487SOL    HW198300   1.572  11.226   5.166
65487SOL    HW298301   1.510  11.088   5.168
65488SOL     OW98302   6.721   6.027   3.618
65488SOL    HW198303   6.631   6.049   3.595
65488SOL    HW298304   6.760   5.996   3.537
65489SOL     OW98305   8.819   8.147  12.744
65489SOL    HW198306   8.867   8.132  12.826
65489SOL    HW298307   8.746   8.203  12.769
65490SOL     OW98308  12.253   7.814   2.087
65490SOL    HW198309  12.272   7.748   2.154
65490SOL    HW298310  12.329   7.810   2.028
65491SOL     OW98311   8.026   4.824  14.827
65491SOL    HW198312   7.954   4.767  14.857
65491SOL    HW298313   8.027   4.812  14.732
65492SOL     OW98314  13.911  14.067   3.414
65492SOL    HW198315  13.928  14.160   3.404
65492SOL    HW298316  13.930  14.049   3.506
65493SOL     OW98317   7.941   9.773  12.877
65493SOL    HW198318   7.944   9.699  12.936
65493SOL    HW298319   7.910   9.737  12.794
65494SOL     OW98320   4.357   8.376  10.296
65494SOL    HW198321   4.284   8.438  10.294
65494SOL    HW298322   4.393   8.378  10.207
65495SOL     OW98323  13.445   2.105   5.467
65495SOL    HW198324  13.431   2.021   5.424
65495SOL    HW298325  13.387   2.103   5.543
65496SOL     OW98326   4.094  12.062   0.246
65496SOL    HW198327   4.126  12.147   0.215
65496SOL    HW298328   3.999  12.066   0.232
65497SOL     OW98329  13.946   4.806  12.053
65497SOL    HW198330  13.956   4.801  12.148
65497SOL    HW298331  13.935   4.714  12.026
65498SOL     OW98332  14.228   6.761  12.899
65498SOL    HW198333  14.302   6.746  12.957
65498SOL    HW298334  14.241   6.850  12.866
65499SOL     OW98335  10.573  13.133   6.184
65499SOL    HW198336  10.506  13.148   6.251
65499SOL    HW298337  10.531  13.153   6.101
65500SOL     OW98338  12.086   3.383   9.004
65500SOL    HW198339  11.992   3.391   8.986
65500SOL    HW298340  12.120   3.329   8.933
65501SOL     OW98341  10.302   8.970  12.245
65501SOL    HW198342  10.312   9.029  12.171
65501SOL    HW298343  10.367   8.901  12.230
65502SOL     OW98344   4.834   9.956   4.817
65502SOL    HW198345   4.909  10.016   4.819
65502SOL    HW298346   4.838   9.914   4.732
65503SOL     OW98347   1.581   9.896   2.818
65503SOL    HW198348   1.675   9.895   2.802
65503SOL    HW298349   1.554   9.805   2.810
65504SOL     OW98350  12.117   7.909  13.837
65504SOL    HW198351  12.177   7.906  13.763
65504SOL    HW298352  12.150   7.979  13.892
65505SOL     OW98353   4.056   3.637  14.443
65505SOL    HW198354   4.101   3.597  14.369
65505SOL    HW298355   3.996   3.700  14.403
65506SOL     OW98356   3.242  14.720   6.745
65506SOL    HW198357   3.212  14.805   6.777
65506SOL    HW298358   3.289  14.739   6.664
65507SOL     OW98359  12.804   7.840   8.131
65507SOL    HW198360  12.713   7.861   8.113
65507SOL    HW298361  12.809   7.834   8.227
65508SOL     OW98362   5.836   3.146   0.688
65508SOL    HW198363   5.900   3.136   0.618
65508SOL    HW298364   5.838   3.239   0.710
65509SOL     OW98365  14.068   3.077   4.455
65509SOL    HW198366  14.024   3.033   4.382
65509SOL    HW298367  14.132   3.014   4.487
65510SOL     OW98368  11.139   6.017  13.335
65510SOL    HW198369  11.122   5.965  13.257
65510SOL    HW298370  11.193   6.090  13.304
65511SOL     OW98371   7.296   0.380   3.932
65511SOL    HW198372   7.221   0.329   3.960
65511SOL    HW298373   7.306   0.448   3.999
65512SOL     OW98374  12.815  11.816  10.459
65512SOL    HW198375  12.784  11.902  10.486
65512SOL    HW298376  12.799  11.760  10.536
65513SOL     OW98377   2.935   2.168   9.531
65513SOL    HW198378   2.896   2.081   9.529
65513SOL    HW298379   2.990   2.168   9.609
65514SOL     OW98380   9.713   8.616   6.940
65514SOL    HW198381   9.723   8.642   6.848
65514SOL    HW298382   9.784   8.661   6.985
65515SOL     OW98383   7.069   4.183  13.244
65515SOL    HW198384   7.092   4.172  13.336
65515SOL    HW298385   7.009   4.111  13.225
65516SOL     OW98386   3.539   2.329  14.414
65516SOL    HW198387   3.628   2.325  14.377
65516SOL    HW298388   3.536   2.257  14.477
65517SOL     OW98389   0.442   4.764   0.816
65517SOL    HW198390   0.386   4.841   0.825
65517SOL    HW298391   0.522   4.797   0.774
65518SOL     OW98392  12.425  13.160   5.766
65518SOL    HW198393  12.336  13.123   5.767
65518SOL    HW298394  12.448  13.169   5.858
65519SOL     OW98395   8.234  10.544   7.104
65519SOL    HW198396   8.217  10.571   7.194
65519SOL    HW298397   8.298  10.473   7.112
65520SOL     OW98398   1.085  13.452   2.035
65520SOL    HW198399   1.019  13.445   1.966
65520SOL    HW298400   1.059  13.529   2.085
65521SOL     OW98401   2.523   5.415  13.427
65521SOL    HW198402   2.535   5.324  13.456
65521SOL    HW298403   2.429   5.422  13.409
65522SOL     OW98404   5.312   6.451   6.906
65522SOL    HW198405   5.351   6.533   6.875
65522SOL    HW298406   5.361   6.429   6.985
65523SOL     OW98407   4.843   9.304   7.259
65523SOL    HW198408   4.808   9.227   7.303
65523SOL    HW298409   4.847   9.371   7.327
65524SOL     OW98410   8.668  11.950  11.819
65524SOL    HW198411   8.680  11.868  11.770
65524SOL    HW298412   8.727  12.012  11.777
65525SOL     OW98413   3.616   0.561   3.112
65525SOL    HW198414   3.526   0.544   3.084
65525SOL    HW298415   3.669   0.548   3.033
65526SOL     OW98416  11.540   8.445  12.198
65526SOL    HW198417  11.575   8.374  12.145
65526SOL    HW298418  11.576   8.525  12.159
65527SOL     OW98419  11.284   6.019   5.916
65527SOL    HW198420  11.203   5.974   5.891
65527SOL    HW298421  11.353   5.960   5.887
65528SOL     OW98422   5.304   2.550   5.078
65528SOL    HW198423   5.338   2.462   5.096
65528SOL    HW298424   5.381   2.601   5.055
65529SOL     OW98425   9.478  12.728   5.505
65529SOL    HW198426   9.473  12.816   5.542
65529SOL    HW298427   9.566  12.698   5.528
65530SOL     OW98428  11.189  12.956   6.208
65530SOL    HW198429  11.280  12.930   6.219
65530SOL    HW298430  11.169  13.011   6.284
65531SOL     OW98431   8.932   6.869   3.560
65531SOL    HW198432   8.869   6.809   3.599
65531SOL    HW298433   8.926   6.949   3.611
65532SOL     OW98434   5.947   1.283  13.896
65532SOL    HW198435   5.934   1.366  13.943
65532SOL    HW298436   6.028   1.248  13.933
65533SOL     OW98437   0.250   2.844   5.954
65533SOL    HW198438   0.243   2.934   5.986
65533SOL    HW298439   0.336   2.840   5.913
65534SOL     OW98440   0.263  13.703   3.541
65534SOL    HW198441   0.250  13.717   3.635
65534SOL    HW298442   0.204  13.630   3.521
65535SOL     OW98443   2.148  10.705   2.271
65535SOL    HW198444   2.205  10.745   2.206
65535SOL    HW298445   2.109  10.779   2.318
65536SOL     OW98446  10.444   2.349   1.558
65536SOL    HW198447  10.479   2.437   1.566
65536SOL    HW298448  10.351   2.361   1.540
65537SOL     OW98449   8.419   8.805  14.807
65537SOL    HW198450   8.364   8.777  14.734
65537SOL    HW298451   8.425   8.901  14.798
65538SOL     OW98452   6.773   3.349   1.821
65538SOL    HW198453   6.680   3.356   1.838
65538SOL    HW298454   6.802   3.275   1.875
65539SOL     OW98455  10.451  11.360   7.009
65539SOL    HW198456  10.385  11.307   7.053
65539SOL    HW298457  10.533  11.337   7.052
65540SOL     OW98458   9.150   0.981  13.759
65540SOL    HW198459   9.167   1.075  13.756
65540SOL    HW298460   9.184   0.953  13.844
65541SOL     OW98461   7.362   5.191   2.093
65541SOL    HW198462   7.416   5.233   2.161
65541SOL    HW298463   7.276   5.180   2.134
65542SOL     OW98464  14.634   0.921  14.361
65542SOL    HW198465  14.706   0.970  14.322
65542SOL    HW298466  14.564   0.986  14.372
65543SOL     OW98467   6.037  11.125  10.007
65543SOL    HW198468   6.061  11.172   9.928
65543SOL    HW298469   6.076  11.038   9.996
65544SOL     OW98470   1.986   4.132  10.062
65544SOL    HW198471   1.993   4.105  10.154
65544SOL    HW298472   2.014   4.223  10.061
65545SOL     OW98473   8.856   5.388   6.851
65545SOL    HW198474   8.803   5.324   6.898
65545SOL    HW298475   8.929   5.408   6.910
65546SOL     OW98476   8.455  14.667  14.029
65546SOL    HW198477   8.528  14.722  14.002
65546SOL    HW298478   8.496  14.593  14.074
65547SOL     OW98479   7.245   9.509   8.958
65547SOL    HW198480   7.261   9.491   8.865
65547SOL    HW298481   7.317   9.466   9.004
65548SOL     OW98482  10.135   2.793   6.926
65548SOL    HW198483  10.083   2.873   6.922
65548SOL    HW298484  10.219   2.821   6.965
65549SOL     OW98485   5.203  14.276  10.332
65549SOL    HW198486   5.131  14.224  10.297
65549SOL    HW298487   5.160  14.354  10.367
65550SOL     OW98488   4.088  10.334   7.192
65550SOL    HW198489   4.173  10.355   7.152
65550SOL    HW298490   4.031  10.314   7.118
65551SOL     OW98491   6.879   6.347   1.467
65551SOL    HW198492   6.908   6.391   1.387
65551SOL    HW298493   6.919   6.260   1.463
65552SOL     OW98494  14.126   2.403   2.272
65552SOL    HW198495  14.148   2.469   2.338
65552SOL    HW298496  14.144   2.319   2.316
65553SOL     OW98497   9.454  11.773   5.773
65553SOL    HW198498   9.438  11.751   5.681
65553SOL    HW298499   9.372  11.814   5.802
65554SOL     OW98500   3.907  13.249   3.723
65554SOL    HW198501   3.980  13.279   3.668
65554SOL    HW298502   3.836  13.233   3.661
65555SOL     OW98503   2.048   7.623   7.524
65555SOL    HW198504   2.123   7.665   7.565
65555SOL    HW298505   2.061   7.529   7.540
65556SOL     OW98506   5.557  11.600   7.035
65556SOL    HW198507   5.468  11.573   7.013
65556SOL    HW298508   5.611  11.522   7.019
65557SOL     OW98509  11.482  10.134  14.674
65557SOL    HW198510  11.391  10.162  14.663
65557SOL    HW298511  11.476  10.050  14.720
65558SOL     OW98512   8.882   3.803  13.769
65558SOL    HW198513   8.914   3.875  13.714
65558SOL    HW298514   8.788   3.799  13.751
65559SOL     OW98515  10.295   9.504   7.888
65559SOL    HW198516  10.227   9.492   7.822
65559SOL    HW298517  10.248   9.532   7.966
65560SOL     OW98518  10.547   6.479   2.314
65560SOL    HW198519  10.464   6.444   2.346
65560SOL    HW298520  10.568   6.424   2.239
65561SOL     OW98521   0.999  12.724  14.681
65561SOL    HW198522   1.014  12.636  14.649
65561SOL    HW298523   1.086  12.761  14.693
65562SOL     OW98524   7.162   3.461  12.164
65562SOL    HW198525   7.234   3.476  12.102
65562SOL    HW298526   7.126   3.376  12.137
65563SOL     OW98527   8.619   7.006  12.019
65563SOL    HW198528   8.621   7.047  11.933
65563SOL    HW298529   8.691   6.942  12.016
65564SOL     OW98530   2.513   2.215  10.799
65564SOL    HW198531   2.578   2.260  10.746
65564SOL    HW298532   2.555   2.204  10.885
65565SOL     OW98533  13.679   6.755  13.040
65565SOL    HW198534  13.716   6.668  13.024
65565SOL    HW298535  13.600   6.738  13.091
65566SOL     OW98536   0.040   1.299   7.987
65566SOL    HW198537   0.120   1.308   8.038
65566SOL    HW298538   0.064   1.241   7.915
65567SOL     OW98539   4.540   8.810  13.994
65567SOL    HW198540   4.455   8.819  14.036
65567SOL    HW298541   4.592   8.884  14.028
65568SOL     OW98542   9.286   3.460   8.869
65568SOL    HW198543   9.249   3.421   8.790
65568SOL    HW298544   9.240   3.418   8.941
65569SOL     OW98545   0.485   3.921   3.960
65569SOL    HW198546   0.524   3.972   3.889
65569SOL    HW298547   0.512   3.966   4.040
65570SOL     OW98548   9.168  12.833  11.328
65570SOL    HW198549   9.216  12.915  11.342
65570SOL    HW298550   9.099  12.835  11.394
65571SOL     OW98551  13.400   5.293   7.046
65571SOL    HW198552  13.412   5.338   7.130
65571SOL    HW298553  13.311   5.316   7.020
65572SOL     OW98554   0.136   8.980   6.900
65572SOL    HW198555   0.090   8.995   6.817
65572SOL    HW298556   0.223   8.948   6.873
65573SOL     OW98557  14.094   6.241   4.534
65573SOL    HW198558  14.051   6.198   4.460
65573SOL    HW298559  14.034   6.312   4.558
65574SOL     OW98560   8.112   5.294  10.360
65574SOL    HW198561   8.133   5.203  10.343
65574SOL    HW298562   8.066   5.293  10.444
65575SOL     OW98563   7.457   2.765   8.632
65575SOL    HW198564   7.454   2.848   8.584
65575SOL    HW298565   7.400   2.707   8.583
65576SOL     OW98566  10.887  10.302  13.756
65576SOL    HW198567  10.887  10.289  13.662
65576SOL    HW298568  10.859  10.393  13.768
65577SOL     OW98569  12.977   5.105  13.341
65577SOL    HW198570  13.021   5.024  13.366
65577SOL    HW298571  12.938   5.086  13.255
65578SOL     OW98572  11.234   5.026   6.974
65578SOL    HW198573  11.228   5.121   6.963
65578SOL    HW298574  11.324   5.004   6.948
65579SOL     OW98575   2.908   0.998  10.391
65579SOL    HW198576   2.954   0.926  10.434
65579SOL    HW298577   2.968   1.029  10.323
65580SOL     OW98578  13.085   5.948   4.047
65580SOL    HW198579  13.177   5.964   4.067
65580SOL    HW298580  13.052   5.902   4.124
65581SOL     OW98581   1.431   5.616   9.453
65581SOL    HW198582   1.352   5.669   9.440
65581SOL    HW298583   1.404   5.527   9.432
65582SOL     OW98584   9.000   4.733   6.942
65582SOL    HW198585   9.022   4.786   7.019
65582SOL    HW298586   8.997   4.643   6.976
65583SOL     OW98587  11.499   0.578   1.088
65583SOL    HW198588  11.428   0.635   1.060
65583SOL    HW298589  11.577   0.633   1.086
65584SOL     OW98590   3.768  10.847  11.068
65584SOL    HW198591   3.789  10.795  11.145
65584SOL    HW298592   3.715  10.789  11.013
65585SOL     OW98593  12.483  13.879   2.301
65585SOL    HW198594  12.494  13.785   2.288
65585SOL    HW298595  12.409  13.886   2.361
65586SOL     OW98596   6.659   1.519   9.170
65586SOL    HW198597   6.720   1.445   9.180
65586SOL    HW298598   6.654   1.532   9.075
65587SOL     OW98599  11.503   2.081   2.054
65587SOL    HW198600  11.413   2.078   2.022
65587SOL    HW298601  11.557   2.070   1.975
65588SOL     OW98602  13.806   9.758   7.794
65588SOL    HW198603  13.787   9.665   7.803
65588SOL    HW298604  13.785   9.796   7.879
65589SOL     OW98605   1.376   1.736   3.865
65589SOL    HW198606   1.309   1.668   3.865
65589SOL    HW298607   1.427   1.720   3.785
65590SOL     OW98608  13.613   5.786   1.720
65590SOL    HW198609  13.665   5.758   1.795
65590SOL    HW298610  13.566   5.707   1.692
65591SOL     OW98611  13.495   3.025   3.210
65591SOL    HW198612  13.437   3.045   3.284
65591SOL    HW298613  13.551   2.954   3.241
65592SOL     OW98614   2.265   7.520   8.913
65592SOL    HW198615   2.336   7.505   8.975
65592SOL    HW298616   2.293   7.476   8.833
65593SOL     OW98617   7.900   3.191  11.419
65593SOL    HW198618   7.875   3.128  11.487
65593SOL    HW298619   7.917   3.138  11.341
65594SOL     OW98620  11.994   7.916   5.188
65594SOL    HW198621  12.012   8.008   5.173
65594SOL    HW298622  11.931   7.914   5.260
65595SOL     OW98623   9.584   7.847   2.932
65595SOL    HW198624   9.647   7.790   2.977
65595SOL    HW298625   9.502   7.835   2.980
65596SOL     OW98626  11.227   4.192  10.367
65596SOL    HW198627  11.306   4.153  10.403
65596SOL    HW298628  11.254   4.278  10.337
65597SOL     OW98629   0.623  10.496   0.318
65597SOL    HW198630   0.699  10.466   0.368
65597SOL    HW298631   0.627  10.447   0.236
65598SOL     OW98632  13.533   7.556  13.046
65598SOL    HW198633  13.472   7.627  13.061
65598SOL    HW298634  13.560   7.567  12.955
65599SOL     OW98635  10.220   3.191  13.872
65599SOL    HW198636  10.293   3.135  13.900
65599SOL    HW298637  10.142   3.137  13.883
65600SOL     OW98638  11.864   8.088   2.964
65600SOL    HW198639  11.867   8.073   3.058
65600SOL    HW298640  11.771   8.089   2.942
65601SOL     OW98641   0.198   4.738  10.628
65601SOL    HW198642   0.221   4.727  10.536
65601SOL    HW298643   0.155   4.824  10.631
65602SOL     OW98644   5.663   7.107   5.415
65602SOL    HW198645   5.743   7.157   5.402
65602SOL    HW298646   5.672   7.031   5.357
65603SOL     OW98647   0.432  14.090   1.530
65603SOL    HW198648   0.478  14.135   1.459
65603SOL    HW298649   0.391  14.015   1.487
65604SOL     OW98650   6.789  12.484  12.299
65604SOL    HW198651   6.734  12.541  12.245
65604SOL    HW298652   6.861  12.459  12.241
65605SOL     OW98653   1.471  14.205   6.288
65605SOL    HW198654   1.496  14.188   6.197
65605SOL    HW298655   1.388  14.159   6.298
65606SOL     OW98656   9.020   1.033  14.736
65606SOL    HW198657   9.075   1.099  14.779
65606SOL    HW298658   9.064   1.016  14.653
65607SOL     OW98659   2.770   8.470   3.524
65607SOL    HW198660   2.833   8.408   3.562
65607SOL    HW298661   2.816   8.554   3.527
65608SOL     OW98662   9.732   9.210   3.526
65608SOL    HW198663   9.770   9.125   3.506
65608SOL    HW298664   9.803   9.272   3.511
65609SOL     OW98665   3.101   0.175   0.906
65609SOL    HW198666   3.104   0.117   0.829
65609SOL    HW298667   3.184   0.221   0.904
65610SOL     OW98668   7.571   0.382   8.054
65610SOL    HW198669   7.495   0.435   8.081
65610SOL    HW298670   7.541   0.334   7.977
65611SOL     OW98671   2.996   5.471   4.361
65611SOL    HW198672   3.039   5.465   4.276
65611SOL    HW298673   2.903   5.464   4.341
65612SOL     OW98674   9.316   3.680   5.781
65612SOL    HW198675   9.268   3.597   5.780
65612SOL    HW298676   9.352   3.686   5.870
65613SOL     OW98677  13.419   5.008   2.022
65613SOL    HW198678  13.454   5.032   1.936
65613SOL    HW298679  13.460   5.069   2.082
65614SOL     OW98680   8.735   6.837   4.464
65614SOL    HW198681   8.721   6.837   4.559
65614SOL    HW298682   8.683   6.910   4.432
65615SOL     OW98683   0.930   9.343   6.001
65615SOL    HW198684   0.965   9.381   5.920
65615SOL    HW298685   0.836   9.335   5.985
65616SOL     OW98686   1.922   7.106   8.545
65616SOL    HW198687   1.913   7.024   8.593
65616SOL    HW298688   2.014   7.110   8.522
65617SOL     OW98689   4.111   6.936   4.183
65617SOL    HW198690   4.027   6.980   4.194
65617SOL    HW298691   4.170   7.003   4.149
65618SOL     OW98692   1.781   0.684   3.227
65618SOL    HW198693   1.700   0.693   3.175
65618SOL    HW298694   1.790   0.590   3.240
65619SOL     OW98695   2.524  10.328   1.483
65619SOL    HW198696   2.613  10.307   1.455
65619SOL    HW298697   2.531  10.341   1.578
65620SOL     OW98698   5.792   7.179   6.347
65620SOL    HW198699   5.875   7.131   6.341
65620SOL    HW298700   5.728   7.121   6.304
65621SOL     OW98701  14.683  10.303   3.109
65621SOL    HW198702  14.598  10.285   3.067
65621SOL    HW298703  14.712  10.218   3.141
65622SOL     OW98704   2.365   1.126   4.583
65622SOL    HW198705   2.369   1.177   4.665
65622SOL    HW298706   2.279   1.085   4.585
65623SOL     OW98707   8.322   6.980   8.699
65623SOL    HW198708   8.253   7.018   8.754
65623SOL    HW298709   8.386   7.050   8.688
65624SOL     OW98710   4.400  11.769  12.002
65624SOL    HW198711   4.483  11.785  11.958
65624SOL    HW298712   4.339  11.830  11.960
65625SOL     OW98713   5.333   6.437   5.543
65625SOL    HW198714   5.277   6.444   5.466
65625SOL    HW298715   5.277   6.465   5.616
65626SOL     OW98716   0.744   7.818  10.002
65626SOL    HW198717   0.721   7.846   9.913
65626SOL    HW298718   0.680   7.751  10.024
65627SOL     OW98719   3.685   7.722   8.277
65627SOL    HW198720   3.703   7.798   8.222
65627SOL    HW298721   3.595   7.696   8.256
65628SOL     OW98722   9.388   6.715   8.806
65628SOL    HW198723   9.438   6.668   8.739
65628SOL    HW298724   9.325   6.767   8.756
65629SOL     OW98725   0.668   6.293   2.190
65629SOL    HW198726   0.604   6.298   2.118
65629SOL    HW298727   0.699   6.203   2.188
65630SOL     OW98728   4.490   5.178  12.076
65630SOL    HW198729   4.540   5.196  11.997
65630SOL    HW298730   4.457   5.263  12.105
65631SOL     OW98731  12.803   1.264  10.860
65631SOL    HW198732  12.824   1.302  10.946
65631SOL    HW298733  12.730   1.205  10.877
65632SOL     OW98734   1.410   9.621   6.544
65632SOL    HW198735   1.453   9.639   6.628
65632SOL    HW298736   1.407   9.706   6.500
65633SOL     OW98737   0.333   0.995   2.145
65633SOL    HW198738   0.303   1.079   2.180
65633SOL    HW298739   0.353   0.943   2.223
65634SOL     OW98740  11.001   5.994   7.746
65634SOL    HW198741  10.978   6.075   7.791
65634SOL    HW298742  10.957   6.000   7.662
65635SOL     OW98743   5.790   4.715  12.935
65635SOL    HW198744   5.851   4.744  12.867
65635SOL    HW298745   5.783   4.790  12.995
65636SOL     OW98746   3.637   8.363   5.033
65636SOL    HW198747   3.728   8.377   5.009
65636SOL    HW298748   3.596   8.331   4.952
65637SOL     OW98749   3.186   0.181   4.839
65637SOL    HW198750   3.197   0.210   4.749
65637SOL    HW298751   3.092   0.171   4.850
65638SOL     OW98752   7.146   2.610   4.057
65638SOL    HW198753   7.097   2.659   4.123
65638SOL    HW298754   7.154   2.672   3.984
65639SOL     OW98755   0.124   1.162  12.705
65639SOL    HW198756   0.070   1.227  12.660
65639SOL    HW298757   0.166   1.211  12.776
65640SOL     OW98758   4.071  14.050   9.045
65640SOL    HW198759   4.150  14.055   8.992
65640SOL    HW298760   4.088  13.978   9.106
65641SOL     OW98761  12.564   0.841  14.054
65641SOL    HW198762  12.491   0.871  14.000
65641SOL    HW298763  12.533   0.851  14.144
65642SOL     OW98764   6.060  13.488   9.998
65642SOL    HW198765   5.982  13.520  10.044
65642SOL    HW298766   6.026  13.454   9.915
65643SOL     OW98767  10.127   6.634   1.049
65643SOL    HW198768  10.156   6.694   1.117
65643SOL    HW298769  10.207   6.613   1.000
65644SOL     OW98770   7.735  12.375  10.714
65644SOL    HW198771   7.687  12.458  10.715
65644SOL    HW298772   7.822  12.399  10.746
65645SOL     OW98773   1.759  10.062  13.536
65645SOL    HW198774   1.667  10.088  13.535
65645SOL    HW298775   1.762   9.982  13.484
65646SOL     OW98776   2.154   2.634  12.712
65646SOL    HW198777   2.149   2.576  12.788
65646SOL    HW298778   2.247   2.636  12.689
65647SOL     OW98779   1.856  12.794  13.132
65647SOL    HW198780   1.801  12.717  13.114
65647SOL    HW298781   1.795  12.857  13.169
65648SOL     OW98782   3.673   7.833  14.288
65648SOL    HW198783   3.758   7.870  14.262
65648SOL    HW298784   3.643   7.785  14.210
65649SOL     OW98785  10.407   8.192   4.354
65649SOL    HW198786  10.413   8.122   4.419
65649SOL    HW298787  10.371   8.149   4.276
65650SOL     OW98788   7.566  14.831   3.601
65650SOL    HW198789   7.618  14.812   3.679
65650SOL    HW298790   7.613  14.788   3.530
65651SOL     OW98791   9.287   5.408   6.808
65651SOL    HW198792   9.323   5.328   6.770
65651SOL    HW298793   9.195   5.387   6.826
65652SOL     OW98794   8.777   2.331   3.557
65652SOL    HW198795   8.838   2.398   3.528
65652SOL    HW298796   8.785   2.262   3.491
65653SOL     OW98797  14.112   6.784   8.869
65653SOL    HW198798  14.058   6.707   8.849
65653SOL    HW298799  14.109   6.837   8.790
65654SOL     OW98800  13.240   3.877   2.676
65654SOL    HW198801  13.158   3.827   2.676
65654SOL    HW298802  13.304   3.818   2.716
65655SOL     OW98803   4.374  12.600   2.395
65655SOL    HW198804   4.458  12.583   2.354
65655SOL    HW298805   4.378  12.555   2.480
65656SOL     OW98806  13.878  11.907   5.531
65656SOL    HW198807  13.954  11.927   5.477
65656SOL    HW298808  13.857  11.990   5.575
65657SOL     OW98809   2.611  13.159  13.871
65657SOL    HW198810   2.608  13.238  13.924
65657SOL    HW298811   2.633  13.190  13.783
65658SOL     OW98812   2.942  10.582   9.934
65658SOL    HW198813   2.985  10.667   9.944
65658SOL    HW298814   2.848  10.602   9.938
65659SOL     OW98815   1.742   8.127  11.159
65659SOL    HW198816   1.688   8.204  11.145
65659SOL    HW298817   1.683   8.053  11.147
65660SOL     OW98818   8.042   1.950   1.081
65660SOL    HW198819   7.952   1.921   1.072
65660SOL    HW298820   8.090   1.871   1.107
65661SOL     OW98821   7.993  14.645   3.562
65661SOL    HW198822   7.930  14.678   3.498
65661SOL    HW298823   8.078  14.673   3.529
65662SOL     OW98824   9.760   7.103   1.751
65662SOL    HW198825   9.685   7.105   1.810
65662SOL    HW298826   9.762   7.014   1.717
65663SOL     OW98827  12.976   1.204   6.110
65663SOL    HW198828  13.035   1.196   6.185
65663SOL    HW298829  13.033   1.230   6.037
65664SOL     OW98830   8.232   8.676  13.641
65664SOL    HW198831   8.142   8.703  13.662
65664SOL    HW298832   8.238   8.685  13.546
65665SOL     OW98833  11.352   0.932   5.949
65665SOL    HW198834  11.333   1.003   5.888
65665SOL    HW298835  11.278   0.873   5.942
65666SOL     OW98836   2.656   2.726   4.267
65666SOL    HW198837   2.576   2.722   4.319
65666SOL    HW298838   2.628   2.761   4.182
65667SOL     OW98839  10.321   6.053  14.049
65667SOL    HW198840  10.386   5.991  14.017
65667SOL    HW298841  10.256   6.058  13.978
65668SOL     OW98842  10.525   7.757   3.471
65668SOL    HW198843  10.543   7.821   3.402
65668SOL    HW298844  10.612   7.721   3.493
65669SOL     OW98845   3.246   5.947   2.880
65669SOL    HW198846   3.243   5.902   2.796
65669SOL    HW298847   3.248   6.040   2.858
65670SOL     OW98848  12.165  13.116   2.033
65670SOL    HW198849  12.181  13.163   2.115
65670SOL    HW298850  12.252  13.107   1.994
65671SOL     OW98851   8.268   7.446   2.613
65671SOL    HW198852   8.190   7.429   2.560
65671SOL    HW298853   8.328   7.375   2.590
65672SOL     OW98854   5.771  14.565   6.701
65672SOL    HW198855   5.757  14.660   6.708
65672SOL    HW298856   5.781  14.549   6.607
65673SOL     OW98857   3.796  11.229  13.337
65673SOL    HW198858   3.710  11.195  13.361
65673SOL    HW298859   3.785  11.324  13.338
65674SOL     OW98860   9.022  12.465   2.834
65674SOL    HW198861   9.066  12.479   2.918
65674SOL    HW298862   9.092  12.472   2.769
65675SOL     OW98863   1.008   7.867   0.903
65675SOL    HW198864   1.047   7.796   0.955
65675SOL    HW298865   1.057   7.866   0.821
65676SOL     OW98866  13.806  14.554   6.237
65676SOL    HW198867  13.848  14.563   6.322
65676SOL    HW298868  13.824  14.464   6.210
65677SOL     OW98869   2.425   1.057   3.224
65677SOL    HW198870   2.520   1.059   3.231
65677SOL    HW298871   2.408   1.041   3.132
65678SOL     OW98872   8.440   5.504   9.614
65678SOL    HW198873   8.361   5.521   9.564
65678SOL    HW298874   8.436   5.410   9.635
65679SOL     OW98875   4.090   0.243   2.971
65679SOL    HW198876   4.027   0.232   3.042
65679SOL    HW298877   4.168   0.279   3.014
65680SOL     OW98878   4.222   1.237   1.902
65680SOL    HW198879   4.315   1.254   1.919
65680SOL    HW298880   4.217   1.224   1.808
65681SOL     OW98881   3.843   6.958   3.538
65681SOL    HW198882   3.926   6.989   3.573
65681SOL    HW298883   3.857   6.954   3.443
65682SOL     OW98884   1.399   2.038   7.421
65682SOL    HW198885   1.304   2.025   7.421
65682SOL    HW298886   1.423   2.037   7.329
65683SOL     OW98887   4.331   6.371   6.119
65683SOL    HW198888   4.426   6.373   6.134
65683SOL    HW298889   4.309   6.278   6.118
65684SOL     OW98890   8.910   0.991  13.276
65684SOL    HW198891   8.960   1.033  13.346
65684SOL    HW298892   8.866   1.064  13.232
65685SOL     OW98893  12.345  11.664   4.144
65685SOL    HW198894  12.286  11.732   4.109
65685SOL    HW298895  12.412  11.713   4.191
65686SOL     OW98896   3.058  12.325   9.185
65686SOL    HW198897   3.122  12.352   9.119
65686SOL    HW298898   3.009  12.405   9.206
65687SOL     OW98899   5.024   6.041   9.300
65687SOL    HW198900   4.942   6.085   9.277
65687SOL    HW298901   5.093   6.098   9.266
65688SOL     OW98902   2.482   7.163   6.525
65688SOL    HW198903   2.443   7.247   6.548
65688SOL    HW298904   2.420   7.098   6.558
65689SOL     OW98905  14.118   8.114   9.132
65689SOL    HW198906  14.100   8.058   9.208
65689SOL    HW298907  14.103   8.203   9.164
65690SOL     OW98908   7.119  13.187   7.706
65690SOL    HW198909   7.100  13.267   7.657
65690SOL    HW298910   7.034  13.159   7.741
65691SOL     OW98911   1.467  12.656   7.293
65691SOL    HW198912   1.501  12.601   7.222
65691SOL    HW298913   1.402  12.713   7.251
65692SOL     OW98914  13.416   1.917   8.354
65692SOL    HW198915  13.469   1.850   8.396
65692SOL    HW298916  13.429   1.903   8.260
65693SOL     OW98917   7.697   7.183  11.670
65693SOL    HW198918   7.677   7.193  11.577
65693SOL    HW298919   7.763   7.113  11.674
65694SOL     OW98920   0.122  13.303   4.260
65694SOL    HW198921   0.049  13.246   4.236
65694SOL    HW298922   0.191  13.243   4.288
65695SOL     OW98923   9.818   0.894   5.897
65695SOL    HW198924   9.876   0.965   5.869
65695SOL    HW298925   9.873   0.816   5.895
65696SOL     OW98926   4.600   9.898   7.351
65696SOL    HW198927   4.683   9.940   7.372
65696SOL    HW298928   4.624   9.811   7.319
65697SOL     OW98929  11.404   2.238   0.779
65697SOL    HW198930  11.425   2.151   0.745
65697SOL    HW298931  11.487   2.272   0.812
65698SOL     OW98932  14.518   1.243   5.784
65698SOL    HW198933  14.587   1.264   5.722
65698SOL    HW298934  14.559   1.184   5.846
65699SOL     OW98935   6.876  10.446  10.166
65699SOL    HW198936   6.783  10.466  10.175
65699SOL    HW298937   6.891  10.374  10.227
65700SOL     OW98938  13.291   6.351  11.993
65700SOL    HW198939  13.366   6.334  12.051
65700SOL    HW298940  13.322   6.422  11.935
65701SOL     OW98941  10.544  14.525   5.235
65701SOL    HW198942  10.512  14.604   5.278
65701SOL    HW298943  10.581  14.472   5.306
65702SOL     OW98944   4.261  12.736  13.401
65702SOL    HW198945   4.249  12.818  13.448
65702SOL    HW298946   4.312  12.761  13.323
65703SOL     OW98947   3.713  11.838   8.681
65703SOL    HW198948   3.771  11.903   8.641
65703SOL    HW298949   3.658  11.808   8.609
65704SOL     OW98950  10.531   1.517   8.129
65704SOL    HW198951  10.460   1.521   8.064
65704SOL    HW298952  10.578   1.600   8.118
65705SOL     OW98953   0.495   6.057   9.710
65705SOL    HW198954   0.555   5.983   9.718
65705SOL    HW298955   0.535   6.113   9.643
65706SOL     OW98956   8.663   3.759  14.456
65706SOL    HW198957   8.735   3.783  14.516
65706SOL    HW298958   8.691   3.677  14.417
65707SOL     OW98959   9.181  12.219  12.901
65707SOL    HW198960   9.242  12.263  12.961
65707SOL    HW298961   9.110  12.281  12.889
65708SOL     OW98962   1.629   1.277   5.164
65708SOL    HW198963   1.586   1.359   5.190
65708SOL    HW298964   1.617   1.273   5.069
65709SOL     OW98965   2.266   8.858   9.033
65709SOL    HW198966   2.234   8.793   9.095
65709SOL    HW298967   2.194   8.922   9.026
65710SOL     OW98968  11.104   7.696   6.050
65710SOL    HW198969  11.013   7.710   6.025
65710SOL    HW298970  11.118   7.602   6.037
65711SOL     OW98971   1.100   3.921   5.036
65711SOL    HW198972   1.033   3.980   5.002
65711SOL    HW298973   1.166   3.978   5.075
65712SOL     OW98974   7.263   1.716   3.788
65712SOL    HW198975   7.287   1.648   3.851
65712SOL    HW298976   7.300   1.686   3.705
65713SOL     OW98977   6.752  12.362  14.778
65713SOL    HW198978   6.665  12.351  14.818
65713SOL    HW298979   6.802  12.411  14.844
65714SOL     OW98980   9.698   9.694  12.662
65714SOL    HW198981   9.678   9.721  12.752
65714SOL    HW298982   9.717   9.776  12.616
65715SOL     OW98983   8.399   9.117   0.801
65715SOL    HW198984   8.408   9.067   0.883
65715SOL    HW298985   8.469   9.084   0.745
65716SOL     OW98986   9.765  14.345   8.096
65716SOL    HW198987   9.753  14.365   8.003
65716SOL    HW298988   9.850  14.302   8.101
65717SOL     OW98989  13.660  14.813  14.265
65717SOL    HW198990  13.657   0.013  14.206
65717SOL    HW298991  13.741  14.823  14.314
65718SOL     OW98992   5.509   9.338  14.384
65718SOL    HW198993   5.458   9.287  14.446
65718SOL    HW298994   5.511   9.285  14.305
65719SOL     OW98995   2.489   7.759   9.711
65719SOL    HW198996   2.477   7.850   9.736
65719SOL    HW298997   2.544   7.723   9.781
65720SOL     OW98998   8.910   1.049   7.485
65720SOL    HW198999   8.906   1.062   7.580
65720SOL    HW299000   8.950   1.129   7.452
65721SOL     OW99001   4.332   5.553   0.532
65721SOL    HW199002   4.333   5.463   0.498
65721SOL    HW299003   4.247   5.562   0.574
65722SOL     OW99004   5.014   0.213   2.079
65722SOL    HW199005   5.021   0.263   2.160
65722SOL    HW299006   4.985   0.126   2.107
65723SOL     OW99007   7.114  10.146   2.532
65723SOL    HW199008   7.144  10.121   2.619
65723SOL    HW299009   7.118  10.241   2.531
65724SOL     OW99010   3.554   9.407   2.170
65724SOL    HW199011   3.631   9.350   2.162
65724SOL    HW299012   3.582   9.490   2.133
65725SOL     OW99013   3.049   3.378  11.337
65725SOL    HW199014   3.111   3.342  11.400
65725SOL    HW299015   2.963   3.351  11.370
65726SOL     OW99016  13.199   1.057   8.989
65726SOL    HW199017  13.177   1.069   8.897
65726SOL    HW299018  13.262   0.985   8.990
65727SOL     OW99019   6.153  11.408  10.568
65727SOL    HW199020   6.060  11.415  10.544
65727SOL    HW299021   6.158  11.328  10.621
65728SOL     OW99022   4.765   2.996  10.160
65728SOL    HW199023   4.719   3.067  10.206
65728SOL    HW299024   4.813   3.041  10.090
65729SOL     OW99025   7.667   0.841   2.273
65729SOL    HW199026   7.720   0.912   2.309
65729SOL    HW299027   7.657   0.863   2.180
65730SOL     OW99028  12.029   8.358   6.534
65730SOL    HW199029  11.984   8.441   6.520
65730SOL    HW299030  12.119   8.383   6.554
65731SOL     OW99031  14.171   9.742   8.467
65731SOL    HW199032  14.144   9.804   8.400
65731SOL    HW299033  14.134   9.776   8.548
65732SOL     OW99034  11.313   0.667   8.504
65732SOL    HW199035  11.374   0.740   8.500
65732SOL    HW299036  11.229   0.706   8.526
65733SOL     OW99037   9.404   2.686  13.181
65733SOL    HW199038   9.455   2.620  13.228
65733SOL    HW299039   9.313   2.667  13.204
65734SOL     OW99040  13.085  13.498  14.353
65734SOL    HW199041  13.102  13.414  14.396
65734SOL    HW299042  13.167  13.521  14.310
65735SOL     OW99043   7.127   5.985  10.117
65735SOL    HW199044   7.143   5.949  10.204
65735SOL    HW299045   7.055   6.047  10.130
65736SOL     OW99046   1.008  12.458  11.458
65736SOL    HW199047   1.005  12.534  11.516
65736SOL    HW299048   0.959  12.485  11.380
65737SOL     OW99049   2.229   0.482   0.737
65737SOL    HW199050   2.249   0.403   0.788
65737SOL    HW299051   2.313   0.528   0.731
65738SOL     OW99052   2.018   8.703   7.050
65738SOL    HW199053   2.041   8.612   7.036
65738SOL    HW299054   1.934   8.714   7.004
65739SOL     OW99055  10.391   4.547   0.050
65739SOL    HW199056  10.329   4.576   0.116
65739SOL    HW299057  10.337   4.515  14.852
65740SOL     OW99058   7.152  13.543  10.119
65740SOL    HW199059   7.119  13.620  10.166
65740SOL    HW299060   7.248  13.550  10.126
65741SOL     OW99061  11.563   0.107  14.664
65741SOL    HW199062  11.511   0.176  14.622
65741SOL    HW299063  11.603   0.151  14.740
65742SOL     OW99064   2.991   6.162   7.818
65742SOL    HW199065   3.026   6.165   7.729
65742SOL    HW299066   2.896   6.158   7.807
65743SOL     OW99067   1.090   4.194  10.319
65743SOL    HW199068   1.053   4.124  10.372
65743SOL    HW299069   1.158   4.152  10.267
65744SOL     OW99070  13.209  11.593   8.392
65744SOL    HW199071  13.197  11.671   8.338
65744SOL    HW299072  13.259  11.623   8.467
65745SOL     OW99073   6.581   2.535   2.220
65745SOL    HW199074   6.511   2.510   2.280
65745SOL    HW299075   6.618   2.615   2.259
65746SOL     OW99076  13.328   9.637   9.217
65746SOL    HW199077  13.299   9.607   9.131
65746SOL    HW299078  13.250   9.630   9.272
65747SOL     OW99079   0.049  12.475   3.158
65747SOL    HW199080   0.104  12.496   3.082
65747SOL    HW299081   0.110  12.477   3.232
65748SOL     OW99082  11.606   1.132   7.326
65748SOL    HW199083  11.624   1.159   7.416
65748SOL    HW299084  11.651   1.197   7.272
65749SOL     OW99085   4.630   4.012  12.969
65749SOL    HW199086   4.619   4.032  12.876
65749SOL    HW299087   4.584   3.929  12.981
65750SOL     OW99088   0.215  12.849  14.416
65750SOL    HW199089   0.162  12.913  14.463
65750SOL    HW299090   0.209  12.769  14.469
65751SOL     OW99091  12.692   6.603  13.257
65751SOL    HW199092  12.612   6.557  13.231
65751SOL    HW299093  12.696   6.591  13.352
65752SOL     OW99094  13.898  11.999  13.909
65752SOL    HW199095  13.841  11.923  13.908
65752SOL    HW299096  13.971  11.975  13.852
65753SOL     OW99097   1.099   6.976   4.009
65753SOL    HW199098   1.189   7.008   4.019
65753SOL    HW299099   1.108   6.881   4.007
65754SOL     OW99100   5.591   4.385   5.931
65754SOL    HW199101   5.647   4.329   5.984
65754SOL    HW299102   5.501   4.360   5.954
65755SOL     OW99103   6.509   3.853   5.758
65755SOL    HW199104   6.599   3.820   5.767
65755SOL    HW299105   6.476   3.810   5.679
65756SOL     OW99106  13.383   2.905   0.475
65756SOL    HW199107  13.465   2.956   0.473
65756SOL    HW299108  13.411   2.814   0.473
65757SOL     OW99109   4.311  10.986   3.145
65757SOL    HW199110   4.323  10.908   3.091
65757SOL    HW299111   4.269  10.954   3.225
65758SOL     OW99112   4.134   3.724   2.499
65758SOL    HW199113   4.145   3.646   2.554
65758SOL    HW299114   4.165   3.796   2.553
65759SOL     OW99115   1.841   5.366   4.823
65759SOL    HW199116   1.892   5.289   4.799
65759SOL    HW299117   1.888   5.404   4.897
65760SOL     OW99118  12.655  11.606   5.701
65760SOL    HW199119  12.672  11.551   5.778
65760SOL    HW299120  12.724  11.583   5.639
65761SOL     OW99121   4.166  14.826  11.051
65761SOL    HW199122   4.194  14.742  11.088
65761SOL    HW299123   4.229  14.844  10.982
65762SOL     OW99124   2.407   7.024  14.332
65762SOL    HW199125   2.351   6.948  14.316
65762SOL    HW299126   2.397   7.078  14.253
65763SOL     OW99127  13.953  14.285   9.384
65763SOL    HW199128  13.875  14.340   9.374
65763SOL    HW299129  13.955  14.264   9.478
65764SOL     OW99130   9.661   5.592   1.362
65764SOL    HW199131   9.694   5.676   1.393
65764SOL    HW299132   9.675   5.532   1.436
65765SOL     OW99133   3.168  12.581   9.888
65765SOL    HW199134   3.251  12.628   9.876
65765SOL    HW299135   3.183  12.496   9.847
65766SOL     OW99136   2.357   7.402   6.584
65766SOL    HW199137   2.426   7.442   6.531
65766SOL    HW299138   2.306   7.477   6.617
65767SOL     OW99139   1.092   7.393  11.005
65767SOL    HW199140   1.094   7.435  11.091
65767SOL    HW299141   1.151   7.446  10.951
65768SOL     OW99142   2.437  10.821  10.933
65768SOL    HW199143   2.448  10.914  10.952
65768SOL    HW299144   2.395  10.819  10.847
65769SOL     OW99145   6.785   3.976   6.503
65769SOL    HW199146   6.795   4.065   6.536
65769SOL    HW299147   6.750   3.985   6.415
65770SOL     OW99148   7.659  10.664   4.056
65770SOL    HW199149   7.585  10.633   4.108
65770SOL    HW299150   7.735  10.620   4.095
65771SOL     OW99151  11.353   7.781   4.286
65771SOL    HW199152  11.367   7.834   4.209
65771SOL    HW299153  11.287   7.829   4.337
65772SOL     OW99154  13.560   3.348   1.286
65772SOL    HW199155  13.517   3.379   1.206
65772SOL    HW299156  13.643   3.396   1.289
65773SOL     OW99157   4.056   4.449   9.862
65773SOL    HW199158   4.028   4.495   9.941
65773SOL    HW299159   4.150   4.467   9.857
65774SOL     OW99160   7.132  12.715  12.747
65774SOL    HW199161   7.221  12.738  12.720
65774SOL    HW299162   7.118  12.763  12.829
65775SOL     OW99163   4.968   8.653   1.791
65775SOL    HW199164   5.021   8.579   1.759
65775SOL    HW299165   5.025   8.700   1.851
65776SOL     OW99166   1.029   8.308   6.881
65776SOL    HW199167   1.122   8.299   6.902
65776SOL    HW299168   0.995   8.367   6.949
65777SOL     OW99169   4.540  10.043   0.537
65777SOL    HW199170   4.621  10.073   0.494
65777SOL    HW299171   4.515   9.965   0.487
65778SOL     OW99172  10.295  13.038   0.283
65778SOL    HW199173  10.386  13.023   0.256
65778SOL    HW299174  10.248  13.045   0.200
65779SOL     OW99175   2.605   3.898  11.986
65779SOL    HW199176   2.569   3.919  11.899
65779SOL    HW299177   2.684   3.847  11.968
65780SOL     OW99178  10.436  13.771   2.790
65780SOL    HW199179  10.376  13.702   2.820
65780SOL    HW299180  10.475  13.804   2.871
65781SOL     OW99181  12.240   0.643  11.514
65781SOL    HW199182  12.318   0.656  11.568
65781SOL    HW299183  12.177   0.706  11.549
65782SOL     OW99184  14.549   9.002  11.596
65782SOL    HW199185  14.526   9.085  11.637
65782SOL    HW299186  14.623   8.969  11.648
65783SOL     OW99187   1.374  13.545  11.419
65783SOL    HW199188   1.439  13.481  11.390
65783SOL    HW299189   1.336  13.506  11.498
65784SOL     OW99190  12.993  11.501   0.392
65784SOL    HW199191  12.903  11.476   0.368
65784SOL    HW299192  13.044  11.483   0.313
65785SOL     OW99193  12.403   1.874  12.706
65785SOL    HW199194  12.390   1.914  12.792
65785SOL    HW299195  12.498   1.860  12.700
65786SOL     OW99196   9.592   2.788   0.916
65786SOL    HW199197   9.524   2.754   0.973
65786SOL    HW299198   9.598   2.725   0.844
65787SOL     OW99199  11.057   7.379  13.316
65787SOL    HW199200  11.037   7.355  13.226
65787SOL    HW299201  11.060   7.475  13.316
65788SOL     OW99202  11.335   8.818   9.116
65788SOL    HW199203  11.348   8.760   9.041
65788SOL    HW299204  11.296   8.898   9.078
65789SOL     OW99205  14.413   4.271   7.036
65789SOL    HW199206  14.470   4.254   6.961
65789SOL    HW299207  14.465   4.326   7.094
65790SOL     OW99208   5.437  13.349   0.232
65790SOL    HW199209   5.420  13.434   0.193
65790SOL    HW299210   5.518  13.362   0.282
65791SOL     OW99211   6.744   9.902   9.116
65791SOL    HW199212   6.814   9.858   9.164
65791SOL    HW299213   6.696   9.832   9.073
65792SOL     OW99214   6.689   9.083   5.152
65792SOL    HW199215   6.630   9.009   5.167
65792SOL    HW299216   6.777   9.048   5.169
65793SOL     OW99217   4.552   1.781   4.095
65793SOL    HW199218   4.645   1.793   4.113
65793SOL    HW299219   4.511   1.864   4.122
65794SOL     OW99220   1.748   5.334   5.863
65794SOL    HW199221   1.742   5.239   5.869
65794SOL    HW299222   1.683   5.366   5.926
65795SOL     OW99223   3.039   8.493   1.454
65795SOL    HW199224   2.961   8.544   1.434
65795SOL    HW299225   3.051   8.435   1.378
65796SOL     OW99226  10.457   1.342   2.087
65796SOL    HW199227  10.521   1.388   2.141
65796SOL    HW299228  10.508   1.273   2.044
65797SOL     OW99229   3.259   8.547  10.767
65797SOL    HW199230   3.206   8.484  10.814
65797SOL    HW299231   3.254   8.627  10.819
65798SOL     OW99232  14.667   2.022  12.522
65798SOL    HW199233  14.739   2.028  12.459
65798SOL    HW299234  14.589   2.006  12.469
65799SOL     OW99235  14.151   9.888   4.674
65799SOL    HW199236  14.153   9.940   4.594
65799SOL    HW299237  14.191   9.805   4.649
65800SOL     OW99238  13.197   1.396   1.999
65800SOL    HW199239  13.119   1.358   2.040
65800SOL    HW299240  13.258   1.410   2.072
65801SOL     OW99241  13.673  12.743   6.043
65801SOL    HW199242  13.658  12.754   5.949
65801SOL    HW299243  13.697  12.830   6.074
65802SOL     OW99244  10.845  11.608   8.704
65802SOL    HW199245  10.862  11.703   8.705
65802SOL    HW299246  10.932  11.569   8.715
65803SOL     OW99247  14.664  13.149   9.360
65803SOL    HW199248  14.624  13.150   9.273
65803SOL    HW299249  14.616  13.082   9.408
65804SOL     OW99250  10.989  12.975  14.313
65804SOL    HW199251  11.075  12.952  14.349
65804SOL    HW299252  11.008  13.043  14.248
65805SOL     OW99253  13.894  13.391  11.994
65805SOL    HW199254  13.868  13.354  11.910
65805SOL    HW299255  13.856  13.479  11.995
65806SOL     OW99256   4.941   5.793  10.937
65806SOL    HW199257   4.949   5.709  10.981
65806SOL    HW299258   4.956   5.858  11.007
65807SOL     OW99259  14.179   3.826   5.875
65807SOL    HW199260  14.087   3.810   5.896
65807SOL    HW299261  14.222   3.836   5.960
65808SOL     OW99262   8.958   8.828   4.534
65808SOL    HW199263   9.036   8.789   4.573
65808SOL    HW299264   8.978   8.832   4.440
65809SOL     OW99265  11.890  14.226   0.843
65809SOL    HW199266  11.826  14.168   0.800
65809SOL    HW299267  11.866  14.314   0.814
65810SOL     OW99268  10.213   5.448  13.416
65810SOL    HW199269  10.172   5.369  13.450
65810SOL    HW299270  10.283   5.416  13.359
65811SOL     OW99271   0.863  10.081  11.417
65811SOL    HW199272   0.859  10.062  11.510
65811SOL    HW299273   0.773  10.073  11.386
65812SOL     OW99274   8.251   9.349  14.326
65812SOL    HW199275   8.162   9.376  14.349
65812SOL    HW299276   8.306   9.391  14.392
65813SOL     OW99277   4.766   0.792  13.210
65813SOL    HW199278   4.686   0.746  13.235
65813SOL    HW299279   4.781   0.767  13.119
65814SOL     OW99280   0.010   7.424   4.340
65814SOL    HW199281   0.041   7.443   4.429
65814SOL    HW299282   0.089   7.425   4.287
65815SOL     OW99283   0.944  11.430   3.855
65815SOL    HW199284   0.918  11.338   3.850
65815SOL    HW299285   0.932  11.464   3.766
65816SOL     OW99286   1.656   7.647  10.294
65816SOL    HW199287   1.729   7.608  10.246
65816SOL    HW299288   1.682   7.739  10.306
65817SOL     OW99289   0.997   0.350   6.904
65817SOL    HW199290   0.949   0.400   6.838
65817SOL    HW299291   1.089   0.368   6.884
65818SOL     OW99292  10.418   3.363   6.744
65818SOL    HW199293  10.447   3.384   6.655
65818SOL    HW299294  10.341   3.309   6.732
65819SOL     OW99295   0.851   6.330  10.748
65819SOL    HW199296   0.929   6.332  10.804
65819SOL    HW299297   0.848   6.241  10.713
65820SOL     OW99298   3.605   2.830   4.569
65820SOL    HW199299   3.586   2.910   4.519
65820SOL    HW299300   3.529   2.819   4.626
65821SOL     OW99301  11.127   5.302   8.401
65821SOL    HW199302  11.142   5.266   8.314
65821SOL    HW299303  11.052   5.360   8.390
65822SOL     OW99304   2.798   4.798   5.811
65822SOL    HW199305   2.763   4.776   5.725
65822SOL    HW299306   2.829   4.715   5.847
65823SOL     OW99307  12.786   9.145  14.668
65823SOL    HW199308  12.782   9.103  14.582
65823SOL    HW299309  12.837   9.225  14.653
65824SOL     OW99310  10.013   5.471   6.362
65824SOL    HW199311   9.976   5.424   6.287
65824SOL    HW299312   9.955   5.547   6.373
65825SOL     OW99313   0.098  11.416   7.313
65825SOL    HW199314   0.105  11.464   7.395
65825SOL    HW299315   0.037  11.344   7.332
65826SOL     OW99316   6.028   3.870  11.774
65826SOL    HW199317   6.120   3.844  11.782
65826SOL    HW299318   5.981   3.788  11.759
65827SOL     OW99319   8.824   6.967   2.857
65827SOL    HW199320   8.888   6.920   2.803
65827SOL    HW299321   8.743   6.918   2.846
65828SOL     OW99322  11.929   3.524   7.468
65828SOL    HW199323  11.842   3.496   7.498
65828SOL    HW299324  11.988   3.456   7.501
65829SOL     OW99325   7.622  14.319   4.376
65829SOL    HW199326   7.695  14.271   4.414
65829SOL    HW299327   7.636  14.313   4.282
65830SOL     OW99328   4.654   4.013   1.483
65830SOL    HW199329   4.591   4.075   1.521
65830SOL    HW299330   4.737   4.034   1.526
65831SOL     OW99331  12.347  12.454   5.621
65831SOL    HW199332  12.349  12.525   5.684
65831SOL    HW299333  12.410  12.389   5.654
65832SOL     OW99334   3.953   0.636  13.820
65832SOL    HW199335   3.962   0.547  13.853
65832SOL    HW299336   4.012   0.688  13.875
65833SOL     OW99337   2.646  13.270   3.532
65833SOL    HW199338   2.630  13.288   3.625
65833SOL    HW299339   2.559  13.266   3.493
65834SOL     OW99340  12.627   3.751  13.915
65834SOL    HW199341  12.664   3.668  13.945
65834SOL    HW299342  12.693   3.816  13.939
65835SOL     OW99343   7.267   4.824  12.062
65835SOL    HW199344   7.295   4.841  11.973
65835SOL    HW299345   7.177   4.793  12.053
65836SOL     OW99346   1.287  14.413   5.282
65836SOL    HW199347   1.368  14.369   5.254
65836SOL    HW299348   1.232  14.342   5.314
65837SOL     OW99349  12.299   1.172   9.281
65837SOL    HW199350  12.270   1.229   9.353
65837SOL    HW299351  12.255   1.208   9.204
65838SOL     OW99352   2.139   1.931  11.204
65838SOL    HW199353   2.086   1.868  11.253
65838SOL    HW299354   2.212   1.879  11.170
65839SOL     OW99355   6.502   4.736   1.553
65839SOL    HW199356   6.597   4.729   1.541
65839SOL    HW299357   6.477   4.815   1.504
65840SOL     OW99358   5.067   0.740  13.635
65840SOL    HW199359   4.981   0.744  13.675
65840SOL    HW299360   5.080   0.648  13.613
65841SOL     OW99361   1.311   2.116   9.883
65841SOL    HW199362   1.319   2.211   9.874
65841SOL    HW299363   1.246   2.104   9.952
65842SOL     OW99364  12.549  13.751   1.081
65842SOL    HW199365  12.460  13.771   1.052
65842SOL    HW299366  12.587  13.837   1.102
65843SOL     OW99367   3.506   3.363  12.324
65843SOL    HW199368   3.599   3.339  12.329
65843SOL    HW299369   3.503   3.455  12.351
65844SOL     OW99370  11.836   5.400   2.278
65844SOL    HW199371  11.768   5.358   2.331
65844SOL    HW299372  11.918   5.359   2.307
65845SOL     OW99373  14.115  12.306   7.589
65845SOL    HW199374  14.197  12.314   7.539
65845SOL    HW299375  14.047  12.331   7.526
65846SOL     OW99376  14.051   4.715   6.019
65846SOL    HW199377  14.089   4.665   5.946
65846SOL    HW299378  13.957   4.712   6.004
65847SOL     OW99379   3.437  11.390  10.414
65847SOL    HW199380   3.489  11.455  10.367
65847SOL    HW299381   3.501  11.330  10.452
65848SOL     OW99382  12.249   9.988   7.788
65848SOL    HW199383  12.279   9.899   7.809
65848SOL    HW299384  12.272  10.000   7.696
65849SOL     OW99385   6.964   1.336   6.459
65849SOL    HW199386   6.958   1.429   6.480
65849SOL    HW299387   6.892   1.320   6.399
65850SOL     OW99388   5.200   9.392  10.816
65850SOL    HW199389   5.223   9.380  10.908
65850SOL    HW299390   5.105   9.401  10.817
65851SOL     OW99391   9.505   8.644   3.502
65851SOL    HW199392   9.505   8.634   3.407
65851SOL    HW299393   9.597   8.662   3.524
65852SOL     OW99394  12.101   4.006   1.161
65852SOL    HW199395  12.177   3.962   1.124
65852SOL    HW299396  12.130   4.096   1.175
65853SOL     OW99397  12.002   4.953  14.413
65853SOL    HW199398  12.052   5.035  14.412
65853SOL    HW299399  12.058   4.893  14.462
65854SOL     OW99400  10.799   5.698  11.843
65854SOL    HW199401  10.871   5.643  11.815
65854SOL    HW299402  10.800   5.772  11.783
65855SOL     OW99403  11.970   1.760   1.763
65855SOL    HW199404  11.978   1.822   1.691
65855SOL    HW299405  11.902   1.699   1.735
65856SOL     OW99406  14.083   5.374  10.928
65856SOL    HW199407  14.080   5.302  10.991
65856SOL    HW299408  14.127   5.337  10.852
65857SOL     OW99409   7.288   3.314   2.332
65857SOL    HW199410   7.232   3.304   2.256
65857SOL    HW299411   7.377   3.309   2.296
65858SOL     OW99412   2.036   9.938   1.621
65858SOL    HW199413   2.126   9.915   1.598
65858SOL    HW299414   2.000   9.977   1.541
65859SOL     OW99415   5.329   1.257  11.337
65859SOL    HW199416   5.328   1.181  11.394
65859SOL    HW299417   5.239   1.292  11.342
65860SOL     OW99418   7.790   7.306  13.762
65860SOL    HW199419   7.732   7.272  13.830
65860SOL    HW299420   7.844   7.231  13.737
65861SOL     OW99421  14.026  14.455   6.034
65861SOL    HW199422  13.989  14.402   6.105
65861SOL    HW299423  13.950  14.491   5.988
65862SOL     OW99424   7.755  14.291   9.048
65862SOL    HW199425   7.680  14.296   8.989
65862SOL    HW299426   7.731  14.348   9.121
65863SOL     OW99427   2.789   3.712   3.557
65863SOL    HW199428   2.696   3.720   3.536
65863SOL    HW299429   2.811   3.622   3.533
65864SOL     OW99430  13.888  12.345   6.223
65864SOL    HW199431  13.828  12.420   6.218
65864SOL    HW299432  13.934  12.357   6.306
65865SOL     OW99433   3.793   0.771  10.590
65865SOL    HW199434   3.789   0.866  10.578
65865SOL    HW299435   3.864   0.758  10.653
65866SOL     OW99436  11.060   1.316  14.122
65866SOL    HW199437  11.015   1.401  14.121
65866SOL    HW299438  11.014   1.265  14.189
65867SOL     OW99439   8.104   6.859  12.262
65867SOL    HW199440   8.105   6.881  12.169
65867SOL    HW299441   8.043   6.921  12.301
65868SOL     OW99442   1.668   9.674   4.062
65868SOL    HW199443   1.717   9.756   4.059
65868SOL    HW299444   1.736   9.606   4.066
65869SOL     OW99445   1.132  12.944   8.805
65869SOL    HW199446   1.057  12.888   8.824
65869SOL    HW299447   1.146  12.993   8.886
65870SOL     OW99448   1.003   7.102   5.909
65870SOL    HW199449   1.014   7.173   5.845
65870SOL    HW299450   1.014   7.145   5.994
65871SOL     OW99451   2.303   2.076  10.136
65871SOL    HW199452   2.396   2.093  10.124
65871SOL    HW299453   2.260   2.131  10.071
65872SOL     OW99454   5.079   5.736  11.455
65872SOL    HW199455   5.099   5.783  11.373
65872SOL    HW299456   5.160   5.692  11.477
65873SOL     OW99457   5.572   3.708  10.630
65873SOL    HW199458   5.654   3.708  10.580
65873SOL    HW299459   5.548   3.800  10.638
65874SOL     OW99460  12.117  12.421   1.852
65874SOL    HW199461  12.134  12.440   1.944
65874SOL    HW299462  12.194  12.373   1.822
65875SOL     OW99463  10.010   0.220  14.454
65875SOL    HW199464  10.016   0.193  14.546
65875SOL    HW299465  10.082   0.174  14.411
65876SOL     OW99466   8.087   7.610   9.997
65876SOL    HW199467   8.082   7.515   9.990
65876SOL    HW299468   8.062   7.630  10.087
65877SOL     OW99469  12.031   3.646   9.970
65877SOL    HW199470  11.960   3.678   9.913
65877SOL    HW299471  12.036   3.710  10.040
65878SOL     OW99472   8.389   1.066   6.835
65878SOL    HW199473   8.394   1.114   6.917
65878SOL    HW299474   8.479   1.042   6.815
65879SOL     OW99475   0.298   0.716   5.751
65879SOL    HW199476   0.234   0.686   5.686
65879SOL    HW299477   0.249   0.773   5.810
65880SOL     OW99478  13.851   0.218   7.743
65880SOL    HW199479  13.785   0.250   7.804
65880SOL    HW299480  13.811   0.225   7.657
65881SOL     OW99481   1.593  10.896   0.575
65881SOL    HW199482   1.521  10.849   0.618
65881SOL    HW299483   1.581  10.987   0.603
65882SOL     OW99484  13.649   7.656  13.594
65882SOL    HW199485  13.628   7.662  13.501
65882SOL    HW299486  13.744   7.667  13.597
65883SOL     OW99487   6.067   4.363  12.354
65883SOL    HW199488   6.009   4.370  12.278
65883SOL    HW299489   6.061   4.271  12.381
65884SOL     OW99490   0.745   2.425  11.491
65884SOL    HW199491   0.820   2.464  11.536
65884SOL    HW299492   0.687   2.396  11.562
65885SOL     OW99493   9.118  13.381   5.513
65885SOL    HW199494   9.031  13.407   5.541
65885SOL    HW299495   9.146  13.315   5.577
65886SOL     OW99496  10.976   2.536   9.136
65886SOL    HW199497  10.975   2.511   9.228
65886SOL    HW299498  10.991   2.630   9.137
65887SOL     OW99499   6.456  10.912   5.357
65887SOL    HW199500   6.476  10.855   5.431
65887SOL    HW299501   6.527  10.976   5.356
65888SOL     OW99502   1.702   5.400   2.361
65888SOL    HW199503   1.732   5.311   2.381
65888SOL    HW299504   1.761   5.430   2.292
65889SOL     OW99505   1.636  13.780   6.353
65889SOL    HW199506   1.730  13.786   6.332
65889SOL    HW299507   1.628  13.825   6.437
65890SOL     OW99508  12.394   0.516   7.747
65890SOL    HW199509  12.442   0.449   7.698
65890SOL    HW299510  12.310   0.525   7.701
65891SOL     OW99511  13.580   9.684  10.288
65891SOL    HW199512  13.558   9.730  10.369
65891SOL    HW299513  13.521   9.609  10.285
65892SOL     OW99514  13.002   4.136  10.823
65892SOL    HW199515  13.021   4.124  10.730
65892SOL    HW299516  12.953   4.057  10.847
65893SOL     OW99517   0.903   8.465   3.303
65893SOL    HW199518   0.831   8.470   3.365
65893SOL    HW299519   0.864   8.486   3.218
65894SOL     OW99520   1.311   1.442  10.356
65894SOL    HW199521   1.298   1.356  10.398
65894SOL    HW299522   1.261   1.437  10.275
65895SOL     OW99523   4.361   8.736  10.847
65895SOL    HW199524   4.352   8.823  10.810
65895SOL    HW299525   4.300   8.735  10.921
65896SOL     OW99526   8.222  11.577   9.363
65896SOL    HW199527   8.162  11.545   9.296
65896SOL    HW299528   8.228  11.504   9.425
65897SOL     OW99529  11.254  11.430  10.643
65897SOL    HW199530  11.345  11.400  10.633
65897SOL    HW299531  11.246  11.502  10.580
65898SOL     OW99532   0.213  14.421  10.004
65898SOL    HW199533   0.194  14.384   9.918
65898SOL    HW299534   0.149  14.491  10.015
65899SOL     OW99535   0.040  14.675  12.687
65899SOL    HW199536  14.820  14.663  12.677
65899SOL    HW299537   0.059  14.642  12.775
65900SOL     OW99538   4.517   7.124   1.725
65900SOL    HW199539   4.568   7.148   1.802
65900SOL    HW299540   4.433   7.169   1.736
65901SOL     OW99541   0.481   1.655   9.094
65901SOL    HW199542   0.460   1.602   9.017
65901SOL    HW299543   0.477   1.594   9.168
65902SOL     OW99544   4.445  11.203  12.220
65902SOL    HW199545   4.492  11.271  12.171
65902SOL    HW299546   4.458  11.226  12.312
65903SOL     OW99547   0.470   2.093  13.022
65903SOL    HW199548   0.417   2.036  13.078
65903SOL    HW299549   0.483   2.172  13.074
65904SOL     OW99550  13.185   5.558  11.713
65904SOL    HW199551  13.161   5.467  11.729
65904SOL    HW299552  13.172   5.570  11.619
65905SOL     OW99553   0.541  11.001   5.347
65905SOL    HW199554   0.478  10.952   5.400
65905SOL    HW299555   0.488  11.060   5.293
65906SOL     OW99556  13.084  11.574  12.481
65906SOL    HW199557  13.033  11.654  12.492
65906SOL    HW299558  13.118  11.579  12.391
65907SOL     OW99559   9.003   4.493   3.652
65907SOL    HW199560   8.963   4.579   3.659
65907SOL    HW299561   9.089   4.503   3.692
65908SOL     OW99562   8.285   0.528   0.508
65908SOL    HW199563   8.200   0.556   0.473
65908SOL    HW299564   8.265   0.490   0.593
65909SOL     OW99565   8.011   6.519   0.234
65909SOL    HW199566   8.065   6.441   0.221
65909SOL    HW299567   7.935   6.505   0.177
65910SOL     OW99568   3.151  12.317   8.333
65910SOL    HW199569   3.095  12.368   8.274
65910SOL    HW299570   3.113  12.229   8.331
65911SOL     OW99571  13.233  14.356  14.538
65911SOL    HW199572  13.294  14.327  14.470
65911SOL    HW299573  13.215  14.277  14.589
65912SOL     OW99574   8.324  14.052   2.779
65912SOL    HW199575   8.354  14.014   2.697
65912SOL    HW299576   8.293  14.140   2.754
65913SOL     OW99577  14.011   3.731   1.958
65913SOL    HW199578  13.929   3.682   1.971
65913SOL    HW299579  14.037   3.709   1.868
65914SOL     OW99580   8.896   9.804   0.052
65914SOL    HW199581   8.850   9.876   0.094
65914SOL    HW299582   8.891   9.732   0.114
65915SOL     OW99583   3.957  14.291   1.590
65915SOL    HW199584   3.929  14.202   1.611
65915SOL    HW299585   4.046  14.298   1.624
65916SOL     OW99586   7.713  10.537  10.646
65916SOL    HW199587   7.763  10.455  10.652
65916SOL    HW299588   7.677  10.549  10.734
65917SOL     OW99589  12.298   8.090   1.967
65917SOL    HW199590  12.252   8.009   1.986
65917SOL    HW299591  12.232   8.159   1.977
65918SOL     OW99592  10.759  10.392  10.265
65918SOL    HW199593  10.844  10.408  10.224
65918SOL    HW299594  10.750  10.461  10.330
65919SOL     OW99595   0.518  11.786   1.792
65919SOL    HW199596   0.575  11.755   1.722
65919SOL    HW299597   0.540  11.879   1.801
65920SOL     OW99598   0.922   3.653   1.170
65920SOL    HW199599   0.957   3.652   1.259
65920SOL    HW299600   0.945   3.567   1.134
65921SOL     OW99601   9.852   7.039   4.406
65921SOL    HW199602   9.762   7.011   4.421
65921SOL    HW299603   9.847   7.135   4.401
65922SOL     OW99604   3.010   8.366   8.467
65922SOL    HW199605   2.979   8.451   8.435
65922SOL    HW299606   3.045   8.323   8.389
65923SOL     OW99607  14.765   8.220   3.568
65923SOL    HW199608  14.785   8.163   3.494
65923SOL    HW299609  14.710   8.289   3.531
65924SOL     OW99610   8.153   1.647   4.548
65924SOL    HW199611   8.152   1.555   4.572
65924SOL    HW299612   8.189   1.691   4.625
65925SOL     OW99613  12.842   8.627   5.383
65925SOL    HW199614  12.817   8.604   5.294
65925SOL    HW299615  12.926   8.672   5.373
65926SOL     OW99616   8.525   1.769   0.746
65926SOL    HW199617   8.546   1.847   0.797
65926SOL    HW299618   8.610   1.732   0.723
65927SOL     OW99619   8.450  12.649   7.815
65927SOL    HW199620   8.475  12.704   7.888
65927SOL    HW299621   8.533  12.617   7.779
65928SOL     OW99622   8.280   7.380  12.593
65928SOL    HW199623   8.348   7.379  12.526
65928SOL    HW299624   8.198   7.394  12.544
65929SOL     OW99625  10.532   9.279   3.405
65929SOL    HW199626  10.457   9.269   3.463
65929SOL    HW299627  10.584   9.349   3.445
65930SOL     OW99628   5.426   1.143  14.773
65930SOL    HW199629   5.481   1.212  14.736
65930SOL    HW299630   5.483   1.066  14.774
65931SOL     OW99631   4.772   1.324   0.771
65931SOL    HW199632   4.825   1.301   0.848
65931SOL    HW299633   4.822   1.393   0.727
65932SOL     OW99634   1.042   9.734   6.973
65932SOL    HW199635   1.075   9.726   6.884
65932SOL    HW299636   1.048   9.828   6.993
65933SOL     OW99637   0.255   9.480  13.739
65933SOL    HW199638   0.170   9.504  13.702
65933SOL    HW299639   0.318   9.510  13.673
65934SOL     OW99640  10.116   2.634   3.276
65934SOL    HW199641  10.135   2.626   3.183
65934SOL    HW299642  10.105   2.543   3.305
65935SOL     OW99643   9.247   7.019   1.603
65935SOL    HW199644   9.210   6.973   1.528
65935SOL    HW299645   9.262   7.108   1.573
65936SOL     OW99646   7.649   5.845   2.520
65936SOL    HW199647   7.743   5.830   2.530
65936SOL    HW299648   7.617   5.768   2.473
65937SOL     OW99649  12.120  12.316   3.449
65937SOL    HW199650  12.148  12.275   3.367
65937SOL    HW299651  12.026  12.328   3.440
65938SOL     OW99652  12.832  14.159  12.129
65938SOL    HW199653  12.768  14.179  12.198
65938SOL    HW299654  12.850  14.243  12.088
65939SOL     OW99655   1.631  10.689   7.038
65939SOL    HW199656   1.675  10.615   7.080
65939SOL    HW299657   1.584  10.733   7.109
65940SOL     OW99658   1.036  10.302   9.429
65940SOL    HW199659   1.126  10.332   9.415
65940SOL    HW299660   0.982  10.376   9.400
65941SOL     OW99661  10.100   2.976  11.505
65941SOL    HW199662  10.172   2.986  11.442
65941SOL    HW299663  10.040   2.915  11.462
65942SOL     OW99664  14.842   8.673  13.744
65942SOL    HW199665  14.840   8.768  13.752
65942SOL    HW299666  14.797   8.641  13.822
65943SOL     OW99667   1.579   1.400   9.804
65943SOL    HW199668   1.642   1.335   9.836
65943SOL    HW299669   1.632   1.478   9.786
65944SOL     OW99670   8.100   2.857   8.588
65944SOL    HW199671   8.043   2.805   8.644
65944SOL    HW299672   8.185   2.814   8.593
65945SOL     OW99673  13.471  10.012   0.211
65945SOL    HW199674  13.471  10.100   0.248
65945SOL    HW299675  13.464   9.954   0.286
65946SOL     OW99676  11.684   2.429   3.308
65946SOL    HW199677  11.701   2.431   3.402
65946SOL    HW299678  11.672   2.520   3.283
65947SOL     OW99679   7.170   6.900   5.767
65947SOL    HW199680   7.143   6.968   5.705
65947SOL    HW299681   7.210   6.949   5.839
65948SOL     OW99682   4.288   6.103  12.447
65948SOL    HW199683   4.270   6.073  12.536
65948SOL    HW299684   4.383   6.098  12.438
65949SOL     OW99685  14.257  13.591  14.018
65949SOL    HW199686  14.329  13.535  14.048
65949SOL    HW299687  14.190  13.580  14.085
65950SOL     OW99688   6.216   5.958   3.931
65950SOL    HW199689   6.140   5.958   3.872
65950SOL    HW299690   6.243   5.866   3.935
65951SOL     OW99691   0.414   2.193   5.439
65951SOL    HW199692   0.483   2.259   5.430
65951SOL    HW299693   0.343   2.225   5.383
65952SOL     OW99694  10.564   5.390   2.316
65952SOL    HW199695  10.595   5.364   2.229
65952SOL    HW299696  10.549   5.485   2.308
65953SOL     OW99697   3.511   7.133  10.531
65953SOL    HW199698   3.486   7.053  10.577
65953SOL    HW299699   3.580   7.171  10.585
65954SOL     OW99700   5.767   5.012   0.068
65954SOL    HW199701   5.835   4.991   0.004
65954SOL    HW299702   5.701   4.943   0.057
65955SOL     OW99703   1.603   1.618   9.434
65955SOL    HW199704   1.692   1.643   9.409
65955SOL    HW299705   1.558   1.606   9.350
65956SOL     OW99706  11.367   4.412   4.842
65956SOL    HW199707  11.391   4.359   4.918
65956SOL    HW299708  11.442   4.471   4.829
65957SOL     OW99709   7.520  12.921  11.440
65957SOL    HW199710   7.574  12.952  11.513
65957SOL    HW299711   7.546  12.977  11.366
65958SOL     OW99712   2.391   1.283   6.812
65958SOL    HW199713   2.459   1.329   6.765
65958SOL    HW299714   2.355   1.221   6.748
65959SOL     OW99715   9.792  14.208   2.118
65959SOL    HW199716   9.698  14.221   2.133
65959SOL    HW299717   9.803  14.113   2.113
65960SOL     OW99718   6.231  11.545   2.442
65960SOL    HW199719   6.168  11.615   2.460
65960SOL    HW299720   6.266  11.565   2.355
65961SOL     OW99721   6.958   2.642  14.241
65961SOL    HW199722   6.883   2.697  14.263
65961SOL    HW299723   7.034   2.696  14.263
65962SOL     OW99724  13.771   0.394  12.949
65962SOL    HW199725  13.808   0.482  12.940
65962SOL    HW299726  13.773   0.377  13.043
65963SOL     OW99727  11.350   5.125   9.719
65963SOL    HW199728  11.286   5.195   9.733
65963SOL    HW299729  11.307   5.065   9.658
65964SOL     OW99730   8.304  12.082  14.608
65964SOL    HW199731   8.217  12.054  14.578
65964SOL    HW299732   8.349  12.112  14.529
65965SOL     OW99733   3.772   4.010  11.833
65965SOL    HW199734   3.743   4.100  11.816
65965SOL    HW299735   3.862   4.019  11.862
65966SOL     OW99736  13.293  13.206   6.795
65966SOL    HW199737  13.254  13.228   6.880
65966SOL    HW299738  13.263  13.116   6.778
65967SOL     OW99739  11.580   6.676   3.033
65967SOL    HW199740  11.558   6.769   3.030
65967SOL    HW299741  11.508   6.633   2.987
65968SOL     OW99742   5.489  10.934   1.150
65968SOL    HW199743   5.398  10.919   1.176
65968SOL    HW299744   5.536  10.857   1.181
65969SOL     OW99745   1.829   7.417   6.166
65969SOL    HW199746   1.883   7.470   6.225
65969SOL    HW299747   1.753   7.393   6.219
65970SOL     OW99748   7.165   1.900  10.049
65970SOL    HW199749   7.089   1.852  10.083
65970SOL    HW299750   7.223   1.832  10.015
65971SOL     OW99751   0.581   5.785  13.674
65971SOL    HW199752   0.586   5.771  13.769
65971SOL    HW299753   0.584   5.881  13.665
65972SOL     OW99754   0.189   7.344   7.327
65972SOL    HW199755   0.202   7.319   7.236
65972SOL    HW299756   0.108   7.396   7.327
65973SOL     OW99757   5.391   2.423  10.414
65973SOL    HW199758   5.448   2.419  10.490
65973SOL    HW299759   5.388   2.516  10.390
65974SOL     OW99760  13.096   7.828   8.709
65974SOL    HW199761  13.166   7.889   8.733
65974SOL    HW299762  13.061   7.798   8.793
65975SOL     OW99763  13.110   1.072  13.325
65975SOL    HW199764  13.165   1.112  13.392
65975SOL    HW299765  13.172   1.036  13.261
65976SOL     OW99766   0.774   6.657  10.437
65976SOL    HW199767   0.720   6.611  10.501
65976SOL    HW299768   0.828   6.717  10.488
65977SOL     OW99769   5.319  14.621  13.935
65977SOL    HW199770   5.333  14.679  14.010
65977SOL    HW299771   5.286  14.540  13.973
65978SOL     OW99772   6.070  13.533   3.462
65978SOL    HW199773   5.981  13.569   3.461
65978SOL    HW299774   6.124  13.604   3.498
65979SOL     OW99775   3.543   5.838  11.514
65979SOL    HW199776   3.537   5.742  11.507
65979SOL    HW299777   3.607   5.863  11.447
65980SOL     OW99778  11.126  13.567   4.929
65980SOL    HW199779  11.061  13.531   4.868
65980SOL    HW299780  11.138  13.658   4.902
65981SOL     OW99781   4.084   8.388   7.730
65981SOL    HW199782   4.098   8.371   7.823
65981SOL    HW299783   4.016   8.326   7.704
65982SOL     OW99784  14.499   8.936   8.970
65982SOL    HW199785  14.530   8.894   9.050
65982SOL    HW299786  14.571   8.991   8.941
65983SOL     OW99787   1.433   5.506  13.124
65983SOL    HW199788   1.524   5.476  13.124
65983SOL    HW299789   1.438   5.599  13.144
65984SOL     OW99790  11.961   1.133   9.053
65984SOL    HW199791  11.939   1.227   9.057
65984SOL    HW299792  11.957   1.112   8.960
65985SOL     OW99793   1.791  13.676   1.872
65985SOL    HW199794   1.816  13.725   1.794
65985SOL    HW299795   1.775  13.742   1.939
65986SOL     OW99796   7.015  11.344   8.197
65986SOL    HW199797   6.963  11.266   8.177
65986SOL    HW299798   6.974  11.382   8.274
65987SOL     OW99799  14.045   5.154  10.764
65987SOL    HW199800  14.091   5.122  10.842
65987SOL    HW299801  13.954   5.126  10.777
65988SOL     OW99802   9.157   0.124  14.293
65988SOL    HW199803   9.249   0.098  14.296
65988SOL    HW299804   9.147   0.183  14.369
65989SOL     OW99805  10.600   0.983  13.788
65989SOL    HW199806  10.660   1.029  13.729
65989SOL    HW299807  10.611   1.027  13.872
65990SOL     OW99808   1.727  14.456   4.870
65990SOL    HW199809   1.730  14.516   4.795
65990SOL    HW299810   1.810  14.470   4.915
65991SOL     OW99811   8.947   2.793  13.391
65991SOL    HW199812   8.856   2.767  13.378
65991SOL    HW299813   8.953   2.816  13.484
65992SOL     OW99814   6.536  12.864   8.977
65992SOL    HW199815   6.502  12.790   8.927
65992SOL    HW299816   6.568  12.825   9.059
65993SOL     OW99817   8.373   6.133   5.569
65993SOL    HW199818   8.403   6.214   5.529
65993SOL    HW299819   8.451   6.094   5.607
65994SOL     OW99820  10.071   0.171  13.538
65994SOL    HW199821  10.157   0.185  13.577
65994SOL    HW299822  10.009   0.191  13.609
65995SOL     OW99823   3.903   7.985   0.694
65995SOL    HW199824   3.888   8.066   0.742
65995SOL    HW299825   3.931   8.013   0.607
65996SOL     OW99826   9.802  14.036   3.889
65996SOL    HW199827   9.859  14.076   3.954
65996SOL    HW299828   9.714  14.045   3.925
65997SOL     OW99829  10.862  10.671   6.837
65997SOL    HW199830  10.951  10.706   6.850
65997SOL    HW299831  10.860  10.592   6.891
65998SOL     OW99832   5.763   1.709   6.793
65998SOL    HW199833   5.806   1.686   6.711
65998SOL    HW299834   5.671   1.685   6.779
65999SOL     OW99835   8.870   3.724   8.583
65999SOL    HW199836   8.830   3.795   8.533
65999SOL    HW299837   8.909   3.667   8.518
66000SOL     OW99838  11.287  10.085   3.925
66000SOL    HW199839  11.194  10.064   3.926
66000SOL    HW299840  11.313  10.080   4.016
66001SOL     OW99841  11.734   1.000  11.623
66001SOL    HW199842  11.643   0.984  11.648
66001SOL    HW299843  11.762   1.073  11.677
66002SOL     OW99844   6.297   9.325   8.662
66002SOL    HW199845   6.359   9.294   8.728
66002SOL    HW299846   6.213   9.328   8.706
66003SOL     OW99847   6.022   8.792   7.695
66003SOL    HW199848   5.959   8.720   7.699
66003SOL    HW299849   6.025   8.826   7.784
66004SOL     OW99850   0.406   2.727   0.700
66004SOL    HW199851   0.436   2.794   0.762
66004SOL    HW299852   0.315   2.751   0.682
66005SOL     OW99853   7.879  11.212   8.538
66005SOL    HW199854   7.944  11.144   8.558
66005SOL    HW299855   7.915  11.291   8.577
66006SOL     OW99856  14.505   5.836  13.496
66006SOL    HW199857  14.430   5.810  13.549
66006SOL    HW299858  14.470   5.905  13.438
66007SOL     OW99859  11.736   7.256  12.852
66007SOL    HW199860  11.645   7.265  12.824
66007SOL    HW299861  11.730   7.224  12.943
66008SOL     OW99862   1.522   9.664   9.545
66008SOL    HW199863   1.497   9.754   9.567
66008SOL    HW299864   1.481   9.648   9.460
66009SOL     OW99865  11.644  10.781  14.157
66009SOL    HW199866  11.669  10.852  14.216
66009SOL    HW299867  11.611  10.712  14.215
66010SOL     OW99868   2.548   0.034   0.510
66010SOL    HW199869   2.586   0.067   0.428
66010SOL    HW299870   2.584   0.090   0.578
66011SOL     OW99871  14.646   4.432  14.703
66011SOL    HW199872  14.627   4.458  14.793
66011SOL    HW299873  14.719   4.489  14.677
66012SOL     OW99874   5.609   9.014   3.643
66012SOL    HW199875   5.664   9.083   3.605
66012SOL    HW299876   5.536   9.061   3.683
66013SOL     OW99877  11.334  14.069   6.457
66013SOL    HW199878  11.363  14.160   6.448
66013SOL    HW299879  11.288  14.052   6.375
66014SOL     OW99880   2.019   5.279   2.118
66014SOL    HW199881   2.007   5.184   2.121
66014SOL    HW299882   2.112   5.290   2.098
66015SOL     OW99883   1.322  12.366   6.820
66015SOL    HW199884   1.268  12.291   6.795
66015SOL    HW299885   1.396  12.327   6.867
66016SOL     OW99886   6.035   6.175   5.520
66016SOL    HW199887   6.007   6.265   5.530
66016SOL    HW299888   6.019   6.134   5.605
66017SOL     OW99889   3.959   8.904  14.134
66017SOL    HW199890   3.866   8.903  14.154
66017SOL    HW299891   3.984   8.811  14.131
66018SOL     OW99892   9.536   5.458   8.684
66018SOL    HW199893   9.604   5.412   8.733
66018SOL    HW299894   9.488   5.389   8.639
66019SOL     OW99895  11.660  14.151   5.924
66019SOL    HW199896  11.712  14.192   5.855
66019SOL    HW299897  11.725  14.122   5.988
66020SOL     OW99898  14.150   0.942  12.063
66020SOL    HW199899  14.091   0.958  12.136
66020SOL    HW299900  14.096   0.897  11.998
66021SOL     OW99901  11.422   6.592   1.207
66021SOL    HW199902  11.486   6.635   1.152
66021SOL    HW299903  11.370   6.539   1.147
66022SOL     OW99904   7.266   4.796   7.205
66022SOL    HW199905   7.204   4.723   7.199
66022SOL    HW299906   7.240   4.856   7.136
66023SOL     OW99907   7.629  14.787   0.171
66023SOL    HW199908   7.545  14.783   0.216
66023SOL    HW299909   7.614  14.742   0.088
66024SOL     OW99910   1.354   1.310   2.396
66024SOL    HW199911   1.420   1.338   2.459
66024SOL    HW299912   1.399   1.307   2.312
66025SOL     OW99913  10.016   7.016   4.643
66025SOL    HW199914   9.983   6.935   4.683
66025SOL    HW299915   9.962   7.027   4.564
66026SOL     OW99916  11.237   6.012   0.679
66026SOL    HW199917  11.168   5.962   0.724
66026SOL    HW299918  11.219   6.000   0.586
66027SOL     OW99919   6.083   6.776   7.574
66027SOL    HW199920   6.158   6.808   7.524
66027SOL    HW299921   6.069   6.687   7.541
66028SOL     OW99922   5.477   5.728   0.522
66028SOL    HW199923   5.480   5.676   0.442
66028SOL    HW299924   5.426   5.676   0.584
66029SOL     OW99925  12.121   9.742   0.466
66029SOL    HW199926  12.144   9.829   0.499
66029SOL    HW299927  12.193   9.686   0.494
66030SOL     OW99928   2.229  12.868   8.191
66030SOL    HW199929   2.165  12.802   8.216
66030SOL    HW299930   2.304  12.819   8.160
66031SOL     OW99931  12.244   4.830   1.242
66031SOL    HW199932  12.252   4.792   1.155
66031SOL    HW299933  12.298   4.909   1.239
66032SOL     OW99934  10.485   8.944   3.371
66032SOL    HW199935  10.561   8.885   3.375
66032SOL    HW299936  10.411   8.888   3.395
66033SOL     OW99937  10.954   6.910  10.175
66033SOL    HW199938  10.904   6.883  10.252
66033SOL    HW299939  10.892   6.959  10.122
66034SOL     OW99940  10.745   6.834   7.850
66034SOL    HW199941  10.690   6.773   7.899
66034SOL    HW299942  10.830   6.792   7.844
66035SOL     OW99943  12.287   8.167   0.095
66035SOL    HW199944  12.325   8.238   0.146
66035SOL    HW299945  12.194   8.168   0.119
66036SOL     OW99946   1.324   3.801   7.142
66036SOL    HW199947   1.327   3.807   7.238
66036SOL    HW299948   1.416   3.800   7.116
66037SOL     OW99949   1.669  12.932   5.660
66037SOL    HW199950   1.753  12.949   5.701
66037SOL    HW299951   1.689  12.868   5.591
66038SOL     OW99952   2.313   0.958  10.301
66038SOL    HW199953   2.398   1.002  10.305
66038SOL    HW299954   2.292   0.955  10.208
66039SOL     OW99955  12.592  14.457   0.725
66039SOL    HW199956  12.537  14.483   0.651
66039SOL    HW299957  12.676  14.500   0.709
66040SOL     OW99958  13.809   3.964   4.963
66040SOL    HW199959  13.737   3.928   5.014
66040SOL    HW299960  13.770   4.034   4.911
66041SOL     OW99961   7.275   5.107   1.584
66041SOL    HW199962   7.269   5.148   1.670
66041SOL    HW299963   7.204   5.146   1.533
66042SOL     OW99964   1.578  12.485  11.543
66042SOL    HW199965   1.573  12.490  11.448
66042SOL    HW299966   1.579  12.576  11.573
66043SOL     OW99967  13.742   7.936  14.231
66043SOL    HW199968  13.748   7.853  14.183
66043SOL    HW299969  13.814   7.989  14.198
66044SOL     OW99970   8.604  11.553   1.967
66044SOL    HW199971   8.610  11.593   2.054
66044SOL    HW299972   8.571  11.622   1.910
66045SOL     OW99973   1.036   5.529   1.937
66045SOL    HW199974   1.047   5.547   1.844
66045SOL    HW299975   1.125   5.520   1.971
66046SOL     OW99976   0.186   4.941   5.205
66046SOL    HW199977   0.135   5.012   5.166
66046SOL    HW299978   0.246   4.986   5.265
66047SOL     OW99979  10.129  14.076   2.793
66047SOL    HW199980  10.058  14.012   2.788
66047SOL    HW299981  10.185  14.055   2.718
66048SOL     OW99982  11.192   9.942  14.687
66048SOL    HW199983  11.124   9.910  14.746
66048SOL    HW299984  11.253   9.869  14.678
66049SOL     OW99985  13.877  14.287  11.709
66049SOL    HW199986  13.834  14.292  11.794
66049SOL    HW299987  13.969  14.305  11.728
66050SOL     OW99988  12.846   3.747   5.109
66050SOL    HW199989  12.926   3.770   5.157
66050SOL    HW299990  12.779   3.743   5.177
66051SOL     OW99991   4.329   8.982   8.814
66051SOL    HW199992   4.343   8.970   8.908
66051SOL    HW299993   4.396   8.929   8.772
66052SOL     OW99994   7.692   3.156  13.000
66052SOL    HW199995   7.742   3.230  13.034
66052SOL    HW299996   7.603   3.172  13.029
66053SOL     OW99997   8.840   0.042   4.962
66053SOL    HW199998   8.831  14.828   4.926
66053SOL    HW299999   8.875   0.029   5.050
66054SOL     OW    0   3.645  14.755   1.831
66054SOL    HW1    1   3.618  14.673   1.872
66054SOL    HW2    2   3.737  14.742   1.810
66055SOL     OW    3   3.306  13.784   1.413
66055SOL    HW1    4   3.295  13.837   1.492
66055SOL    HW2    5   3.225  13.732   1.408
66056SOL     OW    6  12.874  10.444   8.930
66056SOL    HW1    7  12.901  10.389   9.003
66056SOL    HW2    8  12.779  10.443   8.933
66057SOL     OW    9   6.402   5.461  13.542
66057SOL    HW1   10   6.485   5.459  13.589
66057SOL    HW2   11   6.426   5.492  13.454
66058SOL     OW   12   9.113   5.759  10.798
66058SOL    HW1   13   9.116   5.838  10.852
66058SOL    HW2   14   9.049   5.702  10.842
66059SOL     OW   15  11.953  12.459  14.691
66059SOL    HW1   16  11.997  12.434  14.610
66059SOL    HW2   17  11.875  12.404  14.695
66060SOL     OW   18   7.002  13.067  10.467
66060SOL    HW1   19   6.935  13.006  10.436
66060SOL    HW2   20   6.965  13.153  10.448
66061SOL     OW   21   8.449  12.381   2.592
66061SOL    HW1   22   8.516  12.317   2.568
66061SOL    HW2   23   8.410  12.408   2.509
66062SOL     OW   24   2.551   8.038  11.514
66062SOL    HW1   25   2.641   8.011  11.531
66062SOL    HW2   26   2.553   8.134  11.519
66063SOL     OW   27   3.238   3.808   5.385
66063SOL    HW1   28   3.149   3.815   5.419
66063SOL    HW2   29   3.230   3.827   5.292
66064SOL     OW   30  13.014   6.773  10.258
66064SOL    HW1   31  13.083   6.839  10.259
66064SOL    HW2   32  13.003   6.750  10.166
66065SOL     OW   33   1.327   6.581   8.079
66065SOL    HW1   34   1.355   6.618   7.996
66065SOL    HW2   35   1.236   6.608   8.089
66066SOL     OW   36   7.538   5.307  11.384
66066SOL    HW1   37   7.603   5.367  11.348
66066SOL    HW2   38   7.569   5.290  11.473
66067SOL     OW   39   5.232   1.654  11.088
66067SOL    HW1   40   5.270   1.656  11.000
66067SOL    HW2   41   5.289   1.711  11.140
66068SOL     OW   42   4.590   6.267   2.945
66068SOL    HW1   43   4.655   6.326   2.908
66068SOL    HW2   44   4.616   6.258   3.037
66069SOL     OW   45   3.664  14.037  12.784
66069SOL    HW1   46   3.741  14.078  12.823
66069SOL    HW2   47   3.603  14.028  12.857
66070SOL     OW   48  12.636  12.302   0.020
66070SOL    HW1   49  12.576  12.248  14.843
66070SOL    HW2   50  12.644  12.383  14.844
66071SOL     OW   51   6.133   3.525   4.200
66071SOL    HW1   52   6.123   3.451   4.259
66071SOL    HW2   53   6.154   3.599   4.257
66072SOL     OW   54   2.941   1.457   1.338
66072SOL    HW1   55   2.861   1.435   1.386
66072SOL    HW2   56   2.910   1.498   1.257
66073SOL     OW   57  14.067  11.799   8.180
66073SOL    HW1   58  14.131  11.821   8.113
66073SOL    HW2   59  14.037  11.712   8.157
66074SOL     OW   60   4.260  14.379   6.021
66074SOL    HW1   61   4.166  14.366   6.007
66074SOL    HW2   62   4.301  14.351   5.939
66075SOL     OW   63  10.931   6.181   0.947
66075SOL    HW1   64  10.925   6.264   0.994
66075SOL    HW2   65  10.902   6.201   0.858
66076SOL     OW   66   1.508   6.228   6.377
66076SOL    HW1   67   1.575   6.221   6.310
66076SOL    HW2   68   1.490   6.322   6.384
66077SOL     OW   69  13.066   0.569   7.391
66077SOL    HW1   70  13.025   0.483   7.381
66077SOL    HW2   71  12.996   0.631   7.371
66078SOL     OW   72  10.811   4.441  11.300
66078SOL    HW1   73  10.783   4.427  11.210
66078SOL    HW2   74  10.783   4.530  11.320
66079SOL     OW   75   3.241   4.240   1.205
66079SOL    HW1   76   3.240   4.255   1.299
66079SOL    HW2   77   3.242   4.328   1.167
66080SOL     OW   78   8.690   2.719   6.923
66080SOL    HW1   79   8.733   2.766   6.994
66080SOL    HW2   80   8.649   2.643   6.966
66081SOL     OW   81   7.519  11.297   6.365
66081SOL    HW1   82   7.432  11.261   6.380
66081SOL    HW2   83   7.510  11.352   6.287
66082SOL     OW   84   5.436  10.211  11.307
66082SOL    HW1   85   5.500  10.166  11.252
66082SOL    HW2   86   5.411  10.145  11.372
66083SOL     OW   87   6.803   9.426   1.499
66083SOL    HW1   88   6.793   9.419   1.404
66083SOL    HW2   89   6.896   9.444   1.512
66084SOL     OW   90   1.231   2.562  10.494
66084SOL    HW1   91   1.262   2.570  10.585
66084SOL    HW2   92   1.136   2.569  10.501
66085SOL     OW   93  14.078   5.204   0.599
66085SOL    HW1   94  14.119   5.118   0.600
66085SOL    HW2   95  14.140   5.259   0.551
66086SOL     OW   96   1.880   7.877   1.294
66086SOL    HW1   97   1.856   7.869   1.201
66086SOL    HW2   98   1.956   7.934   1.294
66087SOL     OW   99   7.773   7.789   0.153
66087SOL    HW1  100   7.768   7.749   0.240
66087SOL    HW2  101   7.698   7.849   0.150
66088SOL     OW  102   3.603   4.298  13.173
66088SOL    HW1  103   3.626   4.390  13.157
66088SOL    HW2  104   3.508   4.297  13.170
66089SOL     OW  105   1.806  10.670   9.560
66089SOL    HW1  106   1.856  10.723   9.622
66089SOL    HW2  107   1.791  10.728   9.485
66090SOL     OW  108  12.062   6.544   3.972
66090SOL    HW1  109  12.063   6.462   4.021
66090SOL    HW2  110  12.155   6.565   3.960
66091SOL     OW  111   6.788   3.635   1.144
66091SOL    HW1  112   6.744   3.553   1.120
66091SOL    HW2  113   6.776   3.641   1.239
66092SOL     OW  114  11.590   0.026   8.625
66092SOL    HW1  115  11.617   0.093   8.689
66092SOL    HW2  116  11.598  14.818   8.672
66093SOL     OW  117  14.100   4.970   1.160
66093SOL    HW1  118  14.025   5.020   1.126
66093SOL    HW2  119  14.066   4.927   1.238
66094SOL     OW  120  10.043   0.484  12.444
66094SOL    HW1  121   9.965   0.490  12.389
66094SOL    HW2  122  10.039   0.397  12.483
66095SOL     OW  123  12.679   9.407   9.806
66095SOL    HW1  124  12.624   9.330   9.820
66095SOL    HW2  125  12.618   9.479   9.794
66096SOL     OW  126  12.777   7.945   0.088
66096SOL    HW1  127  12.717   8.008   0.047
66096SOL    HW2  128  12.730   7.913   0.164
66097SOL     OW  129   0.329  10.386   9.064
66097SOL    HW1  130   0.326  10.367   8.970
66097SOL    HW2  131   0.293  10.308   9.105
66098SOL     OW  132   4.316   7.651   2.680
66098SOL    HW1  133   4.358   7.565   2.670
66098SOL    HW2  134   4.235   7.644   2.629
66099SOL     OW  135   6.581   6.970   5.763
66099SOL    HW1  136   6.557   7.006   5.849
66099SOL    HW2  137   6.543   6.883   5.763
66100SOL     OW  138  13.755   3.208   8.467
66100SOL    HW1  139  13.696   3.179   8.397
66100SOL    HW2  140  13.700   3.264   8.522
66101SOL     OW  141   3.172   0.130  11.323
66101SOL    HW1  142   3.168   0.039  11.295
66101SOL    HW2  143   3.193   0.179  11.243
66102SOL     OW  144   3.250   0.877   2.177
66102SOL    HW1  145   3.225   0.945   2.239
66102SOL    HW2  146   3.345   0.885   2.169
66103SOL     OW  147  11.457  13.385   9.849
66103SOL    HW1  148  11.402  13.463   9.861
66103SOL    HW2  149  11.497  13.371   9.935
66104SOL     OW  150  10.959   6.848   1.490
66104SOL    HW1  151  11.048   6.860   1.457
66104SOL    HW2  152  10.903   6.875   1.418
66105SOL     OW  153  10.605   1.105   8.508
66105SOL    HW1  154  10.632   1.131   8.420
66105SOL    HW2  155  10.604   1.186   8.558
66106SOL     OW  156  10.991   1.134   2.025
66106SOL    HW1  157  11.027   1.050   1.996
66106SOL    HW2  158  11.060   1.172   2.080
66107SOL     OW  159  11.599  10.813  11.430
66107SOL    HW1  160  11.505  10.820  11.416
66107SOL    HW2  161  11.635  10.889  11.384
66108SOL     OW  162   5.026  10.542   8.408
66108SOL    HW1  163   5.096  10.579   8.463
66108SOL    HW2  164   5.002  10.614   8.349
66109SOL     OW  165   8.263   6.840   8.992
66109SOL    HW1  166   8.175   6.804   9.006
66109SOL    HW2  167   8.262   6.868   8.900
66110SOL     OW  168  11.871  10.739   0.019
66110SOL    HW1  169  11.804  10.679   0.052
66110SOL    HW2  170  11.920  10.766   0.097
66111SOL     OW  171   1.282  11.170  13.489
66111SOL    HW1  172   1.239  11.252  13.515
66111SOL    HW2  173   1.332  11.144  13.566
66112SOL     OW  174   2.651   9.484   7.066
66112SOL    HW1  175   2.630   9.411   7.007
66112SOL    HW2  176   2.734   9.518   7.034
66113SOL     OW  177  13.252  11.974   5.192
66113SOL    HW1  178  13.283  11.922   5.265
66113SOL    HW2  179  13.260  11.916   5.116
66114SOL     OW  180  11.625   7.805  12.908
66114SOL    HW1  181  11.586   7.879  12.953
66114SOL    HW2  182  11.588   7.808  12.820
66115SOL     OW  183  14.409   7.297  10.179
66115SOL    HW1  184  14.407   7.201  10.176
66115SOL    HW2  185  14.491   7.317  10.224
66116SOL     OW  186   8.286   7.249  11.428
66116SOL    HW1  187   8.273   7.343  11.418
66116SOL    HW2  188   8.199   7.215  11.449
66117SOL     OW  189   4.393  11.781  13.607
66117SOL    HW1  190   4.393  11.860  13.661
66117SOL    HW2  191   4.301  11.761  13.593
66118SOL     OW  192   6.641   3.300  10.582
66118SOL    HW1  193   6.664   3.227  10.640
66118SOL    HW2  194   6.602   3.366  10.639
66119SOL     OW  195  11.995   6.717   7.547
66119SOL    HW1  196  12.029   6.741   7.460
66119SOL    HW2  197  12.027   6.787   7.605
66120SOL     OW  198  13.658   7.416  12.147
66120SOL    HW1  199  13.648   7.350  12.078
66120SOL    HW2  200  13.577   7.409  12.199
66121SOL     OW  201   7.979  11.646  12.133
66121SOL    HW1  202   7.988  11.712  12.064
66121SOL    HW2  203   8.046  11.580  12.113
66122SOL     OW  204   2.194  10.772  10.264
66122SOL    HW1  205   2.277  10.725  10.263
66122SOL    HW2  206   2.129  10.707  10.289
66123SOL     OW  207   1.371   4.848   1.991
66123SOL    HW1  208   1.369   4.770   2.047
66123SOL    HW2  209   1.459   4.884   2.005
66124SOL     OW  210   3.089  13.182   7.147
66124SOL    HW1  211   3.128  13.114   7.201
66124SOL    HW2  212   3.092  13.147   7.058
66125SOL     OW  213   6.939   3.338  11.250
66125SOL    HW1  214   6.918   3.405  11.186
66125SOL    HW2  215   6.980   3.385  11.323
66126SOL     OW  216  12.525   7.576  11.623
66126SOL    HW1  217  12.566   7.657  11.593
66126SOL    HW2  218  12.585   7.507  11.594
66127SOL     OW  219   0.341   3.350   2.721
66127SOL    HW1  220   0.393   3.347   2.641
66127SOL    HW2  221   0.250   3.345   2.691
66128SOL     OW  222   9.993   8.851  13.601
66128SOL    HW1  223  10.076   8.891  13.578
66128SOL    HW2  224   9.942   8.853  13.520
66129SOL     OW  225   7.323   7.010  10.012
66129SOL    HW1  226   7.267   6.933  10.002
66129SOL    HW2  227   7.268   7.083   9.984
66130SOL     OW  228   9.287   0.776  11.120
66130SOL    HW1  229   9.357   0.808  11.177
66130SOL    HW2  230   9.273   0.847  11.057
66131SOL     OW  231   4.884   5.587   1.520
66131SOL    HW1  232   4.838   5.671   1.522
66131SOL    HW2  233   4.969   5.607   1.482
66132SOL     OW  234  14.364   0.790   2.881
66132SOL    HW1  235  14.320   0.735   2.946
66132SOL    HW2  236  14.310   0.781   2.802
66133SOL     OW  237   0.984  14.208   0.717
66133SOL    HW1  238   1.049  14.255   0.770
66133SOL    HW2  239   0.917  14.181   0.780
66134SOL     OW  240  11.659   1.039  14.867
66134SOL    HW1  241  11.630   1.042  14.776
66134SOL    HW2  242  11.615   1.114   0.034
66135SOL     OW  243  13.346   7.806   0.662
66135SOL    HW1  244  13.409   7.735   0.652
66135SOL    HW2  245  13.387   7.882   0.622
66136SOL     OW  246  11.633   6.318   8.079
66136SOL    HW1  247  11.601   6.406   8.060
66136SOL    HW2  248  11.650   6.280   7.992
66137SOL     OW  249   6.697   0.179   2.239
66137SOL    HW1  250   6.787   0.193   2.268
66137SOL    HW2  251   6.702   0.188   2.143
66138SOL     OW  252  13.891   7.301   8.059
66138SOL    HW1  253  13.849   7.251   7.990
66138SOL    HW2  254  13.985   7.296   8.039
66139SOL     OW  255  14.639  10.172  11.573
66139SOL    HW1  256  14.589  10.127  11.505
66139SOL    HW2  257  14.685  10.242  11.526
66140SOL     OW  258   6.087   9.510   2.145
66140SOL    HW1  259   6.028   9.585   2.142
66140SOL    HW2  260   6.163   9.542   2.194
66141SOL     OW  261   6.563  14.204  11.708
66141SOL    HW1  262   6.596  14.291  11.730
66141SOL    HW2  263   6.639  14.147  11.710
66142SOL     OW  264   3.739   9.438   4.939
66142SOL    HW1  265   3.723   9.398   5.025
66142SOL    HW2  266   3.652   9.450   4.902
66143SOL     OW  267  11.542   5.356  10.682
66143SOL    HW1  268  11.470   5.299  10.707
66143SOL    HW2  269  11.555   5.339  10.588
66144SOL     OW  270   3.195  14.372   5.498
66144SOL    HW1  271   3.147  14.329   5.427
66144SOL    HW2  272   3.287  14.358   5.476
66145SOL     OW  273   6.217  10.951   5.267
66145SOL    HW1  274   6.239  11.044   5.277
66145SOL    HW2  275   6.297  10.905   5.293
66146SOL     OW  276   2.522  14.354  13.947
66146SOL    HW1  277   2.442  14.394  13.981
66146SOL    HW2  278   2.585  14.362  14.019
66147SOL     OW  279  14.798   9.727   6.470
66147SOL    HW1  280  14.769   9.676   6.546
66147SOL    HW2  281  14.721   9.730   6.413
66148SOL     OW  282   7.152  14.568   1.092
66148SOL    HW1  283   7.104  14.607   1.164
66148SOL    HW2  284   7.091  14.505   1.053
66149SOL     OW  285   9.974  10.728   9.683
66149SOL    HW1  286   9.986  10.641   9.723
66149SOL    HW2  287  10.035  10.729   9.610
66150SOL     OW  288   8.765   2.187   2.091
66150SOL    HW1  289   8.669   2.187   2.096
66150SOL    HW2  290   8.785   2.122   2.023
66151SOL     OW  291   0.933  11.783  11.036
66151SOL    HW1  292   0.838  11.775  11.031
66151SOL    HW2  293   0.948  11.859  11.093
66152SOL     OW  294  12.387   9.346   1.042
66152SOL    HW1  295  12.363   9.283   0.974
66152SOL    HW2  296  12.452   9.301   1.095
66153SOL     OW  297   6.509  10.678  13.447
66153SOL    HW1  298   6.493  10.642  13.360
66153SOL    HW2  299   6.516  10.772  13.434
66154SOL     OW  300   4.901  12.151   8.365
66154SOL    HW1  301   4.972  12.088   8.367
66154SOL    HW2  302   4.823  12.100   8.387
66155SOL     OW  303   1.021   8.892   0.745
66155SOL    HW1  304   0.964   8.962   0.776
66155SOL    HW2  305   0.964   8.835   0.695
66156SOL     OW  306  13.729   8.441   8.540
66156SOL    HW1  307  13.786   8.394   8.600
66156SOL    HW2  308  13.688   8.374   8.486
66157SOL     OW  309   3.068   2.327   5.718
66157SOL    HW1  310   3.000   2.338   5.652
66157SOL    HW2  311   3.039   2.380   5.792
66158SOL     OW  312   1.343   0.291   8.909
66158SOL    HW1  313   1.307   0.262   8.825
66158SOL    HW2  314   1.267   0.298   8.966
66159SOL     OW  315   4.663   7.021   4.994
66159SOL    HW1  316   4.732   6.970   4.952
66159SOL    HW2  317   4.709   7.076   5.057
66160SOL     OW  318   9.878   5.352   6.592
66160SOL    HW1  319   9.914   5.382   6.508
66160SOL    HW2  320   9.904   5.419   6.655
66161SOL     OW  321  14.629  12.606  11.861
66161SOL    HW1  322  14.567  12.534  11.875
66161SOL    HW2  323  14.695  12.570  11.803
66162SOL     OW  324  13.051   3.321   0.104
66162SOL    HW1  325  12.984   3.322   0.172
66162SOL    HW2  326  13.002   3.304   0.023
66163SOL     OW  327   8.473   3.844  14.657
66163SOL    HW1  328   8.535   3.843  14.584
66163SOL    HW2  329   8.442   3.754  14.663
66164SOL     OW  330   7.009  14.014   3.196
66164SOL    HW1  331   6.943  14.000   3.264
66164SOL    HW2  332   7.079  13.952   3.217
66165SOL     OW  333  14.330   2.123  13.708
66165SOL    HW1  334  14.420   2.118  13.676
66165SOL    HW2  335  14.302   2.032  13.720
66166SOL     OW  336  13.978   4.317   6.622
66166SOL    HW1  337  14.060   4.356   6.592
66166SOL    HW2  338  13.998   4.224   6.633
66167SOL     OW  339   8.979  14.009   0.165
66167SOL    HW1  340   8.912  13.977   0.105
66167SOL    HW2  341   9.049  13.945   0.158
66168SOL     OW  342   8.664   3.500   3.030
66168SOL    HW1  343   8.669   3.577   3.086
66168SOL    HW2  344   8.606   3.440   3.076
66169SOL     OW  345   7.519  13.095   5.260
66169SOL    HW1  346   7.548  13.144   5.183
66169SOL    HW2  347   7.427  13.119   5.271
66170SOL     OW  348  10.108  14.816   0.965
66170SOL    HW1  349  10.169   0.000   1.011
66170SOL    HW2  350  10.022  14.840   1.000
66171SOL     OW  351   3.811  13.007   3.259
66171SOL    HW1  352   3.863  13.079   3.295
66171SOL    HW2  353   3.728  13.046   3.235
66172SOL     OW  354  10.378  14.852  12.882
66172SOL    HW1  355  10.395  14.759  12.897
66172SOL    HW2  356  10.424   0.022  12.954
66173SOL     OW  357  12.365   1.789   0.638
66173SOL    HW1  358  12.368   1.858   0.573
66173SOL    HW2  359  12.372   1.835   0.722
66174SOL     OW  360   1.464  14.429   6.411
66174SOL    HW1  361   1.466  14.339   6.378
66174SOL    HW2  362   1.555  14.458   6.408
66175SOL     OW  363  11.891  10.639  10.525
66175SOL    HW1  364  11.893  10.609  10.616
66175SOL    HW2  365  11.961  10.704  10.520
66176SOL     OW  366   1.810   2.397  10.422
66176SOL    HW1  367   1.838   2.466  10.361
66176SOL    HW2  368   1.725   2.369  10.388
66177SOL     OW  369   7.139   4.471   4.797
66177SOL    HW1  370   7.052   4.449   4.763
66177SOL    HW2  371   7.196   4.402   4.764
66178SOL     OW  372   2.521   2.204   4.097
66178SOL    HW1  373   2.570   2.285   4.087
66178SOL    HW2  374   2.430   2.228   4.084
66179SOL     OW  375  10.502   8.307   7.397
66179SOL    HW1  376  10.443   8.290   7.470
66179SOL    HW2  377  10.553   8.226   7.389
66180SOL     OW  378   0.773   0.152   8.091
66180SOL    HW1  379   0.825   0.160   8.011
66180SOL    HW2  380   0.755   0.242   8.117
66181SOL     OW  381  14.473   1.572  11.923
66181SOL    HW1  382  14.525   1.586  12.002
66181SOL    HW2  383  14.485   1.653  11.872
66182SOL     OW  384  11.021  11.874  12.636
66182SOL    HW1  385  11.039  11.887  12.729
66182SOL    HW2  386  10.926  11.864  12.631
66183SOL     OW  387   1.941   7.545   3.271
66183SOL    HW1  388   1.878   7.612   3.297
66183SOL    HW2  389   2.026   7.589   3.277
66184SOL     OW  390   2.051  14.782   7.138
66184SOL    HW1  391   2.110  14.855   7.118
66184SOL    HW2  392   2.101  14.704   7.114
66185SOL     OW  393  12.537   3.149  10.892
66185SOL    HW1  394  12.507   3.093  10.963
66185SOL    HW2  395  12.568   3.089  10.824
66186SOL     OW  396   8.074   4.287  11.165
66186SOL    HW1  397   8.149   4.338  11.195
66186SOL    HW2  398   8.026   4.266  11.246
66187SOL     OW  399  13.759   1.419   2.875
66187SOL    HW1  400  13.825   1.363   2.834
66187SOL    HW2  401  13.698   1.439   2.803
66188SOL     OW  402  13.497  13.463   8.393
66188SOL    HW1  403  13.438  13.535   8.370
66188SOL    HW2  404  13.451  13.415   8.462
66189SOL     OW  405   6.369   8.640   4.399
66189SOL    HW1  406   6.372   8.556   4.447
66189SOL    HW2  407   6.331   8.617   4.314
66190SOL     OW  408   9.047   1.928   2.084
66190SOL    HW1  409   9.131   1.925   2.128
66190SOL    HW2  410   8.995   1.859   2.126
66191SOL     OW  411  13.853  14.817   4.826
66191SOL    HW1  412  13.857   0.006   4.898
66191SOL    HW2  413  13.857  14.731   4.869
66192SOL     OW  414   4.412   7.298  14.486
66192SOL    HW1  415   4.407   7.211  14.526
66192SOL    HW2  416   4.503   7.325  14.498
66193SOL     OW  417   1.332  14.051   0.783
66193SOL    HW1  418   1.348  14.061   0.877
66193SOL    HW2  419   1.356  13.961   0.764
66194SOL     OW  420  13.536   6.506   6.190
66194SOL    HW1  421  13.442   6.491   6.199
66194SOL    HW2  422  13.549   6.596   6.219
66195SOL     OW  423   3.365   5.711   9.635
66195SOL    HW1  424   3.415   5.662   9.570
66195SOL    HW2  425   3.298   5.649   9.665
66196SOL     OW  426  11.698   0.708   9.784
66196SOL    HW1  427  11.792   0.704   9.800
66196SOL    HW2  428  11.666   0.775   9.845
66197SOL     OW  429   0.834  12.068   2.727
66197SOL    HW1  430   0.742  12.086   2.708
66197SOL    HW2  431   0.851  12.112   2.810
66198SOL     OW  432   4.372  12.269   3.574
66198SOL    HW1  433   4.307  12.254   3.642
66198SOL    HW2  434   4.394  12.182   3.541
66199SOL     OW  435   1.254   2.857  12.108
66199SOL    HW1  436   1.259   2.790  12.040
66199SOL    HW2  437   1.237   2.939  12.061
66200SOL     OW  438   7.707  14.705   3.360
66200SOL    HW1  439   7.724  14.612   3.372
66200SOL    HW2  440   7.628  14.708   3.306
66201SOL     OW  441   1.839  12.350  13.799
66201SOL    HW1  442   1.843  12.298  13.719
66201SOL    HW2  443   1.780  12.422  13.779
66202SOL     OW  444   6.062  12.539   0.011
66202SOL    HW1  445   6.022  12.580  14.808
66202SOL    HW2  446   6.083  12.450  14.857
66203SOL     OW  447   1.467  12.888   1.164
66203SOL    HW1  448   1.448  12.959   1.103
66203SOL    HW2  449   1.462  12.808   1.111
66204SOL     OW  450   9.633  13.824  12.163
66204SOL    HW1  451   9.662  13.909  12.130
66204SOL    HW2  452   9.695  13.761  12.126
66205SOL     OW  453   9.711  14.208  10.702
66205SOL    HW1  454   9.728  14.252  10.785
66205SOL    HW2  455   9.617  14.217  10.688
66206SOL     OW  456   7.338   0.804   3.334
66206SOL    HW1  457   7.299   0.883   3.371
66206SOL    HW2  458   7.432   0.821   3.335
66207SOL     OW  459  13.190  10.962   9.858
66207SOL    HW1  460  13.118  10.907   9.889
66207SOL    HW2  461  13.148  11.043   9.829
66208SOL     OW  462   6.649   0.846   5.472
66208SOL    HW1  463   6.714   0.810   5.533
66208SOL    HW2  464   6.658   0.941   5.482
66209SOL     OW  465   6.115   4.260   8.642
66209SOL    HW1  466   6.141   4.219   8.724
66209SOL    HW2  467   6.085   4.347   8.668
66210SOL     OW  468  12.335   4.402   3.590
66210SOL    HW1  469  12.320   4.308   3.580
66210SOL    HW2  470  12.402   4.422   3.524
66211SOL     OW  471   6.286  14.632  13.633
66211SOL    HW1  472   6.301  14.558  13.573
66211SOL    HW2  473   6.197  14.661  13.614
66212SOL     OW  474  11.637   5.986  14.472
66212SOL    HW1  475  11.692   6.054  14.509
66212SOL    HW2  476  11.602   6.023  14.391
66213SOL     OW  477   9.826   6.856   9.681
66213SOL    HW1  478   9.744   6.905   9.681
66213SOL    HW2  479   9.852   6.853   9.774
66214SOL     OW  480   8.508  12.217  11.266
66214SOL    HW1  481   8.548  12.129  11.266
66214SOL    HW2  482   8.433  12.209  11.325
66215SOL     OW  483  10.951   0.362  12.004
66215SOL    HW1  484  10.957   0.328  12.094
66215SOL    HW2  485  10.858   0.360  11.984
66216SOL     OW  486  14.851   3.271   7.611
66216SOL    HW1  487  14.762   3.305   7.623
66216SOL    HW2  488  14.855   3.246   7.518
66217SOL     OW  489  10.934   7.929   3.066
66217SOL    HW1  490  10.947   8.024   3.061
66217SOL    HW2  491  10.839   7.918   3.056
66218SOL     OW  492   0.980   0.596  14.066
66218SOL    HW1  493   0.921   0.631  13.999
66218SOL    HW2  494   0.938   0.619  14.149
66219SOL     OW  495   2.077   0.225   1.115
66219SOL    HW1  496   2.035   0.153   1.163
66219SOL    HW2  497   2.020   0.241   1.040
66220SOL     OW  498  11.738   1.991  10.351
66220SOL    HW1  499  11.669   1.928  10.372
66220SOL    HW2  500  11.760   2.031  10.435
66221SOL     OW  501   4.628   1.592   3.487
66221SOL    HW1  502   4.623   1.605   3.581
66221SOL    HW2  503   4.604   1.677   3.449
66222SOL     OW  504  12.177   6.622   3.673
66222SOL    HW1  505  12.194   6.606   3.766
66222SOL    HW2  506  12.198   6.714   3.660
66223SOL     OW  507   9.922  11.719  14.510
66223SOL    HW1  508   9.949  11.808  14.533
66223SOL    HW2  509   9.855  11.730  14.443
66224SOL     OW  510   7.685  14.354   4.098
66224SOL    HW1  511   7.689  14.449   4.085
66224SOL    HW2  512   7.748  14.319   4.035
66225SOL     OW  513   1.333   0.438  11.280
66225SOL    HW1  514   1.406   0.459  11.221
66225SOL    HW2  515   1.278   0.378  11.230
66226SOL     OW  516   3.429   0.592   1.711
66226SOL    HW1  517   3.353   0.640   1.743
66226SOL    HW2  518   3.418   0.503   1.745
66227SOL     OW  519   6.518   0.093   1.421
66227SOL    HW1  520   6.513   0.188   1.428
66227SOL    HW2  521   6.577   0.067   1.492
66228SOL     OW  522  11.411   5.737   7.584
66228SOL    HW1  523  11.384   5.800   7.651
66228SOL    HW2  524  11.418   5.788   7.504
66229SOL     OW  525  11.558   4.771   2.371
66229SOL    HW1  526  11.576   4.688   2.326
66229SOL    HW2  527  11.556   4.836   2.300
66230SOL     OW  528   8.009   7.062  13.679
66230SOL    HW1  529   8.000   7.045  13.773
66230SOL    HW2  530   8.048   7.149  13.674
66231SOL     OW  531   6.674  13.867   9.603
66231SOL    HW1  532   6.668  13.818   9.521
66231SOL    HW2  533   6.764  13.855   9.632
66232SOL     OW  534   8.751   8.924  11.822
66232SOL    HW1  535   8.840   8.926  11.859
66232SOL    HW2  536   8.703   8.865  11.880
66233SOL     OW  537  13.951   1.998   1.423
66233SOL    HW1  538  13.865   2.015   1.385
66233SOL    HW2  539  13.955   2.056   1.499
66234SOL     OW  540   7.670  14.051   3.388
66234SOL    HW1  541   7.716  14.132   3.411
66234SOL    HW2  542   7.708  14.025   3.304
66235SOL     OW  543  13.866   8.577   0.940
66235SOL    HW1  544  13.786   8.554   0.989
66235SOL    HW2  545  13.897   8.493   0.906
66236SOL     OW  546  11.287   5.976   3.224
66236SOL    HW1  547  11.323   5.997   3.137
66236SOL    HW2  548  11.201   6.018   3.225
66237SOL     OW  549  14.683   0.922   6.470
66237SOL    HW1  550  14.690   0.849   6.532
66237SOL    HW2  551  14.771   0.959   6.465
66238SOL     OW  552  10.496  11.911   4.104
66238SOL    HW1  553  10.564  11.954   4.052
66238SOL    HW2  554  10.525  11.820   4.110
66239SOL     OW  555   3.216   9.185   8.276
66239SOL    HW1  556   3.159   9.157   8.348
66239SOL    HW2  557   3.290   9.228   8.319
66240SOL     OW  558  12.961   0.099   0.874
66240SOL    HW1  559  12.972   0.004   0.870
66240SOL    HW2  560  12.892   0.112   0.940
66241SOL     OW  561   4.650   8.243  14.527
66241SOL    HW1  562   4.585   8.240  14.457
66241SOL    HW2  563   4.633   8.164  14.579
66242SOL     OW  564   4.761  10.592  12.833
66242SOL    HW1  565   4.739  10.525  12.897
66242SOL    HW2  566   4.842  10.561  12.792
66243SOL     OW  567   5.289  12.328   4.730
66243SOL    HW1  568   5.381  12.320   4.757
66243SOL    HW2  569   5.273  12.422   4.729
66244SOL     OW  570   3.279   3.077   2.578
66244SOL    HW1  571   3.303   3.153   2.526
66244SOL    HW2  572   3.227   3.112   2.651
66245SOL     OW  573   9.623  10.316   3.312
66245SOL    HW1  574   9.699  10.313   3.370
66245SOL    HW2  575   9.550  10.286   3.367
66246SOL     OW  576   7.528   8.419  13.106
66246SOL    HW1  577   7.466   8.365  13.155
66246SOL    HW2  578   7.598   8.437  13.169
66247SOL     OW  579  14.857  11.201  11.747
66247SOL    HW1  580   0.078  11.199  11.737
66247SOL    HW2  581  14.827  11.256  11.675
66248SOL     OW  582  14.140   3.060   2.475
66248SOL    HW1  583  14.188   3.129   2.428
66248SOL    HW2  584  14.120   3.099   2.560
66249SOL     OW  585  10.394   7.435  10.075
66249SOL    HW1  586  10.406   7.525  10.103
66249SOL    HW2  587  10.309   7.409  10.109
66250SOL     OW  588   0.225   7.838   1.312
66250SOL    HW1  589   0.306   7.864   1.355
66250SOL    HW2  590   0.158   7.846   1.380
66251SOL     OW  591   6.245   8.665   2.117
66251SOL    HW1  592   6.209   8.601   2.178
66251SOL    HW2  593   6.170   8.716   2.088
66252SOL     OW  594   8.074   0.535   3.801
66252SOL    HW1  595   8.049   0.467   3.738
66252SOL    HW2  596   8.169   0.541   3.794
66253SOL     OW  597  11.555   8.765   1.950
66253SOL    HW1  598  11.509   8.802   2.026
66253SOL    HW2  599  11.517   8.810   1.875
66254SOL     OW  600   1.097   2.703  11.456
66254SOL    HW1  601   1.073   2.796  11.466
66254SOL    HW2  602   1.193   2.703  11.457
66255SOL     OW  603   7.778   3.564   8.089
66255SOL    HW1  604   7.711   3.630   8.070
66255SOL    HW2  605   7.732   3.498   8.141
66256SOL     OW  606  13.361  14.004   5.380
66256SOL    HW1  607  13.299  14.070   5.349
66256SOL    HW2  608  13.407  14.046   5.453
66257SOL     OW  609   9.335   4.307   9.061
66257SOL    HW1  610   9.275   4.379   9.040
66257SOL    HW2  611   9.278   4.230   9.070
66258SOL     OW  612   8.893   0.143   8.353
66258SOL    HW1  613   8.861   0.088   8.281
66258SOL    HW2  614   8.912   0.081   8.423
66259SOL     OW  615  13.927   3.004   7.852
66259SOL    HW1  616  13.998   3.058   7.887
66259SOL    HW2  617  13.879   3.064   7.795
66260SOL     OW  618  12.853   9.811   6.053
66260SOL    HW1  619  12.895   9.725   6.067
66260SOL    HW2  620  12.760   9.794   6.067
66261SOL     OW  621   5.780   0.062   5.142
66261SOL    HW1  622   5.686   0.044   5.132
66261SOL    HW2  623   5.820  14.851   5.153
66262SOL     OW  624   0.285  13.790   3.284
66262SOL    HW1  625   0.237  13.872   3.269
66262SOL    HW2  626   0.292  13.784   3.379
66263SOL     OW  627   4.522  10.635   4.750
66263SOL    HW1  628   4.495  10.699   4.684
66263SOL    HW2  629   4.467  10.654   4.826
66264SOL     OW  630   4.905   5.801   5.932
66264SOL    HW1  631   4.820   5.811   5.889
66264SOL    HW2  632   4.969   5.825   5.866
66265SOL     OW  633   4.842  11.437   1.056
66265SOL    HW1  634   4.840  11.532   1.054
66265SOL    HW2  635   4.781  11.413   1.126
66266SOL     OW  636  12.854   0.372  12.576
66266SOL    HW1  637  12.837   0.309  12.506
66266SOL    HW2  638  12.826   0.456  12.540
66267SOL     OW  639   0.095   6.577   0.777
66267SOL    HW1  640   0.070   6.554   0.867
66267SOL    HW2  641   0.184   6.612   0.785
66268SOL     OW  642   6.576   2.497   2.713
66268SOL    HW1  643   6.548   2.406   2.728
66268SOL    HW2  644   6.651   2.489   2.654
66269SOL     OW  645  12.783   5.396   4.101
66269SOL    HW1  646  12.757   5.334   4.032
66269SOL    HW2  647  12.863   5.436   4.069
66270SOL     OW  648  12.112   4.621  11.091
66270SOL    HW1  649  12.038   4.584  11.043
66270SOL    HW2  650  12.073   4.693  11.142
66271SOL     OW  651  13.880   6.516  13.774
66271SOL    HW1  652  13.832   6.461  13.712
66271SOL    HW2  653  13.831   6.509  13.856
66272SOL     OW  654   8.097   7.071   6.331
66272SOL    HW1  655   8.161   7.064   6.402
66272SOL    HW2  656   8.137   7.025   6.257
66273SOL     OW  657   8.536  14.800   1.382
66273SOL    HW1  658   8.590  14.857   1.437
66273SOL    HW2  659   8.518  14.724   1.437
66274SOL     OW  660   6.473   8.251   8.928
66274SOL    HW1  661   6.490   8.164   8.963
66274SOL    HW2  662   6.471   8.240   8.833
66275SOL     OW  663   5.879   1.677   9.514
66275SOL    HW1  664   5.967   1.712   9.497
66275SOL    HW2  665   5.894   1.582   9.523
66276SOL     OW  666   1.456  10.818   8.398
66276SOL    HW1  667   1.444  10.852   8.486
66276SOL    HW2  668   1.367  10.802   8.366
66277SOL     OW  669   9.239   8.558   9.244
66277SOL    HW1  670   9.171   8.500   9.210
66277SOL    HW2  671   9.218   8.568   9.337
66278SOL     OW  672   1.623   6.378  11.648
66278SOL    HW1  673   1.588   6.337  11.728
66278SOL    HW2  674   1.582   6.464  11.645
66279SOL     OW  675   5.920   7.244  13.190
66279SOL    HW1  676   5.964   7.180  13.134
66279SOL    HW2  677   5.866   7.191  13.249
66280SOL     OW  678   8.981   2.848  14.448
66280SOL    HW1  679   9.014   2.930  14.411
66280SOL    HW2  680   8.950   2.871  14.535
66281SOL     OW  681   5.305   3.786  10.545
66281SOL    HW1  682   5.277   3.832  10.624
66281SOL    HW2  683   5.387   3.743  10.570
66282SOL     OW  684   1.889   6.538   5.117
66282SOL    HW1  685   1.845   6.458   5.146
66282SOL    HW2  686   1.913   6.582   5.199
66283SOL     OW  687  10.398  13.017   4.240
66283SOL    HW1  688  10.428  13.090   4.186
66283SOL    HW2  689  10.392  13.054   4.328
66284SOL     OW  690   4.885   6.589   9.748
66284SOL    HW1  691   4.976   6.575   9.723
66284SOL    HW2  692   4.857   6.505   9.783
66285SOL     OW  693   7.459   7.076   5.863
66285SOL    HW1  694   7.438   7.031   5.781
66285SOL    HW2  695   7.549   7.107   5.850
66286SOL     OW  696   3.593   0.195   9.009
66286SOL    HW1  697   3.514   0.147   8.984
66286SOL    HW2  698   3.616   0.245   8.931
66287SOL     OW  699   3.793  13.498   8.984
66287SOL    HW1  700   3.739  13.576   8.971
66287SOL    HW2  701   3.879  13.531   9.008
66288SOL     OW  702  10.192   1.195   9.248
66288SOL    HW1  703  10.099   1.192   9.268
66288SOL    HW2  704  10.236   1.186   9.333
66289SOL     OW  705  10.145  11.349   3.731
66289SOL    HW1  706  10.119  11.292   3.658
66289SOL    HW2  707  10.070  11.407   3.743
66290SOL     OW  708   4.052   3.840   8.014
66290SOL    HW1  709   3.988   3.864   8.081
66290SOL    HW2  710   4.030   3.897   7.940
66291SOL     OW  711   9.822   1.981  13.954
66291SOL    HW1  712   9.909   1.943  13.969
66291SOL    HW2  713   9.782   1.983  14.041
66292SOL     OW  714   3.175   5.372  12.868
66292SOL    HW1  715   3.269   5.359  12.880
66292SOL    HW2  716   3.166   5.466  12.850
66293SOL     OW  717   4.746  10.121   3.621
66293SOL    HW1  718   4.789  10.068   3.554
66293SOL    HW2  719   4.681  10.172   3.574
66294SOL     OW  720   5.146   4.621   6.974
66294SOL    HW1  721   5.200   4.542   6.984
66294SOL    HW2  722   5.095   4.625   7.055
66295SOL     OW  723   3.405   4.975  12.717
66295SOL    HW1  724   3.349   4.958  12.642
66295SOL    HW2  725   3.487   4.929  12.697
66296SOL     OW  726  10.893   1.636   8.808
66296SOL    HW1  727  10.857   1.601   8.727
66296SOL    HW2  728  10.932   1.719   8.783
66297SOL     OW  729   6.258   6.037   0.754
66297SOL    HW1  730   6.339   5.986   0.745
66297SOL    HW2  731   6.208   6.017   0.675
66298SOL     OW  732  11.194   8.736   0.511
66298SOL    HW1  733  11.243   8.684   0.447
66298SOL    HW2  734  11.212   8.693   0.595
66299SOL     OW  735   4.253  14.545   1.738
66299SOL    HW1  736   4.267  14.633   1.704
66299SOL    HW2  737   4.198  14.557   1.816
66300SOL     OW  738  10.426   5.456   5.071
66300SOL    HW1  739  10.455   5.547   5.073
66300SOL    HW2  740  10.499   5.409   5.031
66301SOL     OW  741   4.500   3.604   5.369
66301SOL    HW1  742   4.449   3.540   5.320
66301SOL    HW2  743   4.571   3.628   5.310
66302SOL     OW  744   0.991   3.490   5.572
66302SOL    HW1  745   0.950   3.415   5.614
66302SOL    HW2  746   1.059   3.451   5.517
66303SOL     OW  747  14.430  11.459   2.336
66303SOL    HW1  748  14.466  11.505   2.261
66303SOL    HW2  749  14.503  11.455   2.398
66304SOL     OW  750   3.363   3.395  10.980
66304SOL    HW1  751   3.305   3.470  10.992
66304SOL    HW2  752   3.353   3.370  10.888
66305SOL     OW  753   4.752  10.394   6.779
66305SOL    HW1  754   4.727  10.324   6.718
66305SOL    HW2  755   4.805  10.350   6.845
66306SOL     OW  756  14.247   3.930   1.340
66306SOL    HW1  757  14.308   3.912   1.268
66306SOL    HW2  758  14.237   4.025   1.339
66307SOL     OW  759   6.863   6.708   4.395
66307SOL    HW1  760   6.882   6.793   4.436
66307SOL    HW2  761   6.837   6.652   4.468
66308SOL     OW  762   0.679  12.322  10.838
66308SOL    HW1  763   0.589  12.353  10.840
66308SOL    HW2  764   0.732  12.401  10.851
66309SOL     OW  765   9.040  10.464  12.350
66309SOL    HW1  766   8.984  10.445  12.425
66309SOL    HW2  767   9.015  10.553  12.324
66310SOL     OW  768  12.041   9.079  11.153
66310SOL    HW1  769  11.952   9.110  11.136
66310SOL    HW2  770  12.085   9.083  11.068
66311SOL     OW  771   2.012   5.151   8.926
66311SOL    HW1  772   2.047   5.186   8.844
66311SOL    HW2  773   2.086   5.106   8.966
66312SOL     OW  774   7.738   5.037  11.496
66312SOL    HW1  775   7.662   4.994  11.535
66312SOL    HW2  776   7.710   5.058  11.407
66313SOL     OW  777   4.562   8.633  12.077
66313SOL    HW1  778   4.486   8.683  12.107
66313SOL    HW2  779   4.530   8.580  12.005
66314SOL     OW  780   7.265  10.266   7.254
66314SOL    HW1  781   7.248  10.174   7.232
66314SOL    HW2  782   7.187  10.312   7.221
66315SOL     OW  783  10.288  13.156  14.154
66315SOL    HW1  784  10.316  13.083  14.099
66315SOL    HW2  785  10.192  13.157  14.146
66316SOL     OW  786  13.978   8.060   6.361
66316SOL    HW1  787  13.973   7.974   6.402
66316SOL    HW2  788  13.928   8.117   6.420
66317SOL     OW  789  11.072  14.807   1.676
66317SOL    HW1  790  11.156  14.766   1.698
66317SOL    HW2  791  11.093  14.867   1.604
66318SOL     OW  792   5.432  13.842   5.922
66318SOL    HW1  793   5.465  13.904   5.858
66318SOL    HW2  794   5.411  13.895   5.999
66319SOL     OW  795  11.670   8.933   8.635
66319SOL    HW1  796  11.710   8.987   8.702
66319SOL    HW2  797  11.576   8.936   8.654
66320SOL     OW  798  11.879   9.252  12.534
66320SOL    HW1  799  11.813   9.319  12.553
66320SOL    HW2  800  11.863   9.184  12.600
66321SOL     OW  801   8.216   3.222   7.518
66321SOL    HW1  802   8.248   3.141   7.480
66321SOL    HW2  803   8.203   3.281   7.443
66322SOL     OW  804  13.409   6.276   7.017
66322SOL    HW1  805  13.445   6.338   6.953
66322SOL    HW2  806  13.383   6.200   6.966
66323SOL     OW  807   0.531   5.256   2.136
66323SOL    HW1  808   0.543   5.213   2.221
66323SOL    HW2  809   0.460   5.319   2.150
66324SOL     OW  810   6.513   6.284  10.260
66324SOL    HW1  811   6.555   6.367  10.281
66324SOL    HW2  812   6.517   6.233  10.341
66325SOL     OW  813   4.603  14.349   1.634
66325SOL    HW1  814   4.523  14.369   1.585
66325SOL    HW2  815   4.642  14.275   1.587
66326SOL     OW  816  14.775   7.067  11.048
66326SOL    HW1  817  14.764   7.037  10.958
66326SOL    HW2  818  14.750   6.991  11.102
66327SOL     OW  819  11.250   9.482  13.590
66327SOL    HW1  820  11.238   9.490  13.495
66327SOL    HW2  821  11.191   9.547  13.627
66328SOL     OW  822   8.724  13.276   4.481
66328SOL    HW1  823   8.789  13.244   4.418
66328SOL    HW2  824   8.663  13.203   4.491
66329SOL     OW  825   4.323   1.729  12.563
66329SOL    HW1  826   4.255   1.690  12.507
66329SOL    HW2  827   4.360   1.798  12.509
66330SOL     OW  828  14.582  13.993  11.201
66330SOL    HW1  829  14.539  14.060  11.148
66330SOL    HW2  830  14.675  14.003  11.181
66331SOL     OW  831  10.969   3.653   0.848
66331SOL    HW1  832  11.010   3.592   0.786
66331SOL    HW2  833  11.036   3.667   0.915
66332SOL     OW  834   3.658   2.437  13.820
66332SOL    HW1  835   3.692   2.494  13.751
66332SOL    HW2  836   3.730   2.376  13.838
66333SOL     OW  837   0.564   3.690   7.551
66333SOL    HW1  838   0.632   3.717   7.613
66333SOL    HW2  839   0.588   3.733   7.469
66334SOL     OW  840   1.027   0.268  12.723
66334SOL    HW1  841   0.940   0.240  12.692
66334SOL    HW2  842   1.023   0.363  12.722
66335SOL     OW  843  14.087   8.183   8.416
66335SOL    HW1  844  14.156   8.183   8.483
66335SOL    HW2  845  14.103   8.263   8.365
66336SOL     OW  846  11.670   4.996   2.801
66336SOL    HW1  847  11.658   4.901   2.799
66336SOL    HW2  848  11.765   5.008   2.809
66337SOL     OW  849  12.678   6.954   3.492
66337SOL    HW1  850  12.732   6.932   3.569
66337SOL    HW2  851  12.654   6.869   3.454
66338SOL     OW  852   8.739   4.451  12.127
66338SOL    HW1  853   8.833   4.443  12.141
66338SOL    HW2  854   8.712   4.525  12.180
66339SOL     OW  855   8.037  13.386  12.462
66339SOL    HW1  856   8.077  13.357  12.380
66339SOL    HW2  857   7.955  13.428  12.436
66340SOL     OW  858   8.945   6.661  13.410
66340SOL    HW1  859   8.873   6.697  13.462
66340SOL    HW2  860   9.020   6.661  13.469
66341SOL     OW  861  13.648   3.101  14.775
66341SOL    HW1  862  13.683   3.092  14.686
66341SOL    HW2  863  13.647   3.195  14.791
66342SOL     OW  864  12.063   1.417  11.364
66342SOL    HW1  865  12.041   1.494  11.415
66342SOL    HW2  866  12.023   1.433  11.278
66343SOL     OW  867   1.185   0.753  13.702
66343SOL    HW1  868   1.258   0.706  13.743
66343SOL    HW2  869   1.206   0.845  13.713
66344SOL     OW  870   4.024  13.286   1.877
66344SOL    HW1  871   4.103  13.325   1.840
66344SOL    HW2  872   3.980  13.359   1.922
66345SOL     OW  873   5.897  13.143   9.756
66345SOL    HW1  874   5.962  13.106   9.696
66345SOL    HW2  875   5.817  13.093   9.739
66346SOL     OW  876   5.063  12.353   0.587
66346SOL    HW1  877   5.106  12.268   0.596
66346SOL    HW2  878   5.132  12.417   0.603
66347SOL     OW  879   0.346   3.749   5.942
66347SOL    HW1  880   0.257   3.741   5.909
66347SOL    HW2  881   0.394   3.793   5.872
66348SOL     OW  882  11.529   9.316   6.474
66348SOL    HW1  883  11.446   9.293   6.431
66348SOL    HW2  884  11.593   9.317   6.403
66349SOL     OW  885  12.685   3.015   2.420
66349SOL    HW1  886  12.667   2.968   2.501
66349SOL    HW2  887  12.671   3.107   2.443
66350SOL     OW  888  14.354   0.386   3.888
66350SOL    HW1  889  14.446   0.396   3.912
66350SOL    HW2  890  14.314   0.470   3.912
66351SOL     OW  891   5.324   5.205  14.655
66351SOL    HW1  892   5.373   5.281  14.622
66351SOL    HW2  893   5.369   5.129  14.619
66352SOL     OW  894   4.366  14.104   1.548
66352SOL    HW1  895   4.429  14.170   1.521
66352SOL    HW2  896   4.294  14.154   1.587
66353SOL     OW  897   2.862   3.580   1.585
66353SOL    HW1  898   2.849   3.675   1.580
66353SOL    HW2  899   2.941   3.569   1.637
66354SOL     OW  900   0.877   8.435  10.473
66354SOL    HW1  901   0.818   8.504  10.443
66354SOL    HW2  902   0.958   8.451  10.424
66355SOL     OW  903   7.497   0.812  11.898
66355SOL    HW1  904   7.418   0.832  11.848
66355SOL    HW2  905   7.473   0.827  11.989
66356SOL     OW  906   9.166  14.790   8.296
66356SOL    HW1  907   9.083  14.815   8.257
66356SOL    HW2  908   9.229  14.793   8.223
66357SOL     OW  909   4.257   3.528   2.664
66357SOL    HW1  910   4.191   3.523   2.732
66357SOL    HW2  911   4.340   3.513   2.709
66358SOL     OW  912   2.848   9.113   5.158
66358SOL    HW1  913   2.850   9.180   5.226
66358SOL    HW2  914   2.776   9.056   5.182
66359SOL     OW  915   1.755   1.266   0.345
66359SOL    HW1  916   1.790   1.330   0.407
66359SOL    HW2  917   1.832   1.214   0.318
66360SOL     OW  918   0.681  10.822  11.744
66360SOL    HW1  919   0.618  10.790  11.809
66360SOL    HW2  920   0.748  10.754  11.739
66361SOL     OW  921   0.538   8.723   6.636
66361SOL    HW1  922   0.614   8.728   6.579
66361SOL    HW2  923   0.574   8.726   6.724
66362SOL     OW  924   3.732  12.749  10.388
66362SOL    HW1  925   3.720  12.706  10.472
66362SOL    HW2  926   3.747  12.678  10.326
66363SOL     OW  927   8.931   6.917  11.327
66363SOL    HW1  928   8.865   6.938  11.393
66363SOL    HW2  929   8.991   6.991  11.329
66364SOL     OW  930   4.573   2.063   8.641
66364SOL    HW1  931   4.635   2.085   8.711
66364SOL    HW2  932   4.575   1.968   8.636
66365SOL     OW  933   6.098  14.103  13.247
66365SOL    HW1  934   6.084  14.009  13.256
66365SOL    HW2  935   6.100  14.118  13.152
66366SOL     OW  936   1.847   4.075  13.631
66366SOL    HW1  937   1.902   4.023  13.689
66366SOL    HW2  938   1.906   4.108  13.564
66367SOL     OW  939  11.460  11.347   2.842
66367SOL    HW1  940  11.446  11.427   2.892
66367SOL    HW2  941  11.523  11.372   2.774
66368SOL     OW  942   4.894   0.375   9.665
66368SOL    HW1  943   4.893   0.307   9.598
66368SOL    HW2  944   4.802   0.388   9.688
66369SOL     OW  945  12.499   3.401   7.619
66369SOL    HW1  946  12.464   3.361   7.540
66369SOL    HW2  947  12.570   3.342   7.646
66370SOL     OW  948   6.767   2.812   9.609
66370SOL    HW1  949   6.845   2.854   9.572
66370SOL    HW2  950   6.741   2.747   9.544
66371SOL     OW  951   6.483   6.265   6.527
66371SOL    HW1  952   6.472   6.264   6.622
66371SOL    HW2  953   6.482   6.173   6.501
66372SOL     OW  954   2.169   6.237   2.503
66372SOL    HW1  955   2.104   6.217   2.436
66372SOL    HW2  956   2.170   6.333   2.507
66373SOL     OW  957  12.663   6.687   4.797
66373SOL    HW1  958  12.628   6.743   4.727
66373SOL    HW2  959  12.596   6.620   4.809
66374SOL     OW  960   8.170   0.925   4.199
66374SOL    HW1  961   8.237   0.985   4.167
66374SOL    HW2  962   8.151   0.869   4.124
66375SOL     OW  963   1.602   5.594   1.654
66375SOL    HW1  964   1.661   5.554   1.718
66375SOL    HW2  965   1.599   5.532   1.582
66376SOL     OW  966   9.042  12.828   4.572
66376SOL    HW1  967   9.016  12.834   4.663
66376SOL    HW2  968   9.032  12.917   4.538
66377SOL     OW  969   9.786   4.743   2.558
66377SOL    HW1  970   9.825   4.715   2.641
66377SOL    HW2  971   9.841   4.701   2.491
66378SOL     OW  972   7.204   5.754   0.496
66378SOL    HW1  973   7.124   5.798   0.524
66378SOL    HW2  974   7.271   5.786   0.556
66379SOL     OW  975   4.445   6.065   1.119
66379SOL    HW1  976   4.350   6.054   1.114
66379SOL    HW2  977   4.479   6.010   1.049
66380SOL     OW  978   5.771   5.877   4.280
66380SOL    HW1  979   5.742   5.957   4.323
66380SOL    HW2  980   5.763   5.897   4.186
66381SOL     OW  981  10.591   8.233   8.624
66381SOL    HW1  982  10.645   8.292   8.572
66381SOL    HW2  983  10.543   8.180   8.560
66382SOL     OW  984  13.089   4.564  11.523
66382SOL    HW1  985  13.050   4.633  11.469
66382SOL    HW2  986  13.022   4.496  11.527
66383SOL     OW  987  10.478  11.010   4.704
66383SOL    HW1  988  10.478  10.917   4.680
66383SOL    HW2  989  10.421  11.052   4.639
66384SOL     OW  990   3.625   1.456  11.239
66384SOL    HW1  991   3.558   1.473  11.172
66384SOL    HW2  992   3.707   1.455  11.190
66385SOL     OW  993   8.458   3.061   1.757
66385SOL    HW1  994   8.446   3.090   1.847
66385SOL    HW2  995   8.515   2.984   1.764
66386SOL     OW  996   0.065   4.755  11.633
66386SOL    HW1  997   0.006   4.690  11.671
66386SOL    HW2  998   0.153   4.723  11.652
66387SOL     OW  999  12.291  11.603   7.998
66387SOL    HW1 1000  12.269  11.562   7.914
66387SOL    HW2 1001  12.245  11.550   8.063
66388SOL     OW 1002   4.386   9.888   4.266
66388SOL    HW1 1003   4.454   9.935   4.314
66388SOL    HW2 1004   4.384   9.801   4.305
66389SOL     OW 1005   5.059  13.177   6.882
66389SOL    HW1 1006   4.966  13.169   6.864
66389SOL    HW2 1007   5.103  13.154   6.800
66390SOL     OW 1008   7.414   0.915   5.179
66390SOL    HW1 1009   7.456   1.001   5.181
66390SOL    HW2 1010   7.324   0.931   5.204
66391SOL     OW 1011  11.965  14.546   3.808
66391SOL    HW1 1012  12.053  14.515   3.831
66391SOL    HW2 1013  11.939  14.492   3.733
66392SOL     OW 1014   6.200   5.883   0.026
66392SOL    HW1 1015   6.214   5.874  14.805
66392SOL    HW2 1016   6.132   5.950   0.033
66393SOL     OW 1017   4.432  13.560  10.271
66393SOL    HW1 1018   4.360  13.602  10.319
66393SOL    HW2 1019   4.506  13.620  10.280
66394SOL     OW 1020   9.012   9.380   5.851
66394SOL    HW1 1021   8.979   9.315   5.912
66394SOL    HW2 1022   8.981   9.351   5.765
66395SOL     OW 1023  12.903  10.026  11.402
66395SOL    HW1 1024  12.884  10.117  11.424
66395SOL    HW2 1025  12.998  10.019  11.412
66396SOL     OW 1026  10.048   2.744   3.678
66396SOL    HW1 1027  10.080   2.654   3.689
66396SOL    HW2 1028  10.128   2.797   3.672
66397SOL     OW 1029   5.732   3.728  14.602
66397SOL    HW1 1030   5.802   3.692  14.547
66397SOL    HW2 1031   5.726   3.666  14.675
66398SOL     OW 1032   3.171  12.729  14.780
66398SOL    HW1 1033   3.078  12.718  14.796
66398SOL    HW2 1034   3.182  12.708  14.687
66399SOL     OW 1035   3.925   4.787   3.370
66399SOL    HW1 1036   3.953   4.719   3.309
66399SOL    HW2 1037   3.972   4.767   3.451
66400SOL     OW 1038   9.838  12.178   3.536
66400SOL    HW1 1039   9.883  12.154   3.617
66400SOL    HW2 1040   9.745  12.165   3.556
66401SOL     OW 1041   3.753   4.457  10.186
66401SOL    HW1 1042   3.838   4.488  10.153
66401SOL    HW2 1043   3.699   4.536  10.191
66402SOL     OW 1044   8.297   1.926   2.813
66402SOL    HW1 1045   8.373   1.964   2.768
66402SOL    HW2 1046   8.303   1.832   2.795
66403SOL     OW 1047   8.411   5.325   0.382
66403SOL    HW1 1048   8.480   5.389   0.366
66403SOL    HW2 1049   8.339   5.376   0.420
66404SOL     OW 1050   7.700   3.960  13.337
66404SOL    HW1 1051   7.609   3.968  13.365
66404SOL    HW2 1052   7.750   4.011  13.402
66405SOL     OW 1053   2.769   4.866   4.057
66405SOL    HW1 1054   2.857   4.832   4.066
66405SOL    HW2 1055   2.749   4.858   3.964
66406SOL     OW 1056  10.852   2.710  10.603
66406SOL    HW1 1057  10.859   2.766  10.681
66406SOL    HW2 1058  10.765   2.728  10.569
66407SOL     OW 1059  13.997   6.893  11.043
66407SOL    HW1 1060  13.921   6.951  11.046
66407SOL    HW2 1061  13.969   6.820  10.987
66408SOL     OW 1062  11.543   1.219   7.989
66408SOL    HW1 1063  11.581   1.132   7.982
66408SOL    HW2 1064  11.596   1.273   7.929
66409SOL     OW 1065   9.425   3.742   0.398
66409SOL    HW1 1066   9.349   3.764   0.344
66409SOL    HW2 1067   9.414   3.796   0.477
66410SOL     OW 1068   6.439  13.767   8.677
66410SOL    HW1 1069   6.493  13.722   8.742
66410SOL    HW2 1070   6.440  13.859   8.706
66411SOL     OW 1071  12.227  11.515  14.038
66411SOL    HW1 1072  12.191  11.602  14.025
66411SOL    HW2 1073  12.293  11.526  14.106
66412SOL     OW 1074   3.877  14.354  14.474
66412SOL    HW1 1075   3.963  14.396  14.483
66412SOL    HW2 1076   3.831  14.407  14.410
66413SOL     OW 1077   5.696   0.590  14.821
66413SOL    HW1 1078   5.758   0.558   0.013
66413SOL    HW2 1079   5.742   0.662  14.778
66414SOL     OW 1080   7.700   9.347   0.170
66414SOL    HW1 1081   7.658   9.399   0.239
66414SOL    HW2 1082   7.784   9.322   0.207
66415SOL     OW 1083   1.100   5.012   3.867
66415SOL    HW1 1084   1.162   5.057   3.925
66415SOL    HW2 1085   1.138   4.926   3.852
66416SOL     OW 1086   6.611   6.026   1.096
66416SOL    HW1 1087   6.654   6.108   1.119
66416SOL    HW2 1088   6.684   5.966   1.079
66417SOL     OW 1089   6.142  12.357  13.371
66417SOL    HW1 1090   6.179  12.443  13.392
66417SOL    HW2 1091   6.189  12.329  13.293
66418SOL     OW 1092   7.020   7.284  12.205
66418SOL    HW1 1093   7.062   7.242  12.129
66418SOL    HW2 1094   6.952   7.340  12.167
66419SOL     OW 1095   8.543   4.893   8.985
66419SOL    HW1 1096   8.548   4.819   9.046
66419SOL    HW2 1097   8.450   4.904   8.967
66420SOL     OW 1098  10.213   3.135   4.583
66420SOL    HW1 1099  10.174   3.048   4.595
66420SOL    HW2 1100  10.298   3.129   4.626
66421SOL     OW 1101   0.090   9.915   4.211
66421SOL    HW1 1102   0.184   9.916   4.229
66421SOL    HW2 1103   0.073   9.828   4.175
66422SOL     OW 1104   9.843  10.263   3.527
66422SOL    HW1 1105   9.892  10.244   3.607
66422SOL    HW2 1106   9.854  10.184   3.473
66423SOL     OW 1107  11.328  13.265   5.202
66423SOL    HW1 1108  11.404  13.279   5.146
66423SOL    HW2 1109  11.263  13.226   5.144
66424SOL     OW 1110  13.024   2.147  13.489
66424SOL    HW1 1111  13.013   2.152  13.584
66424SOL    HW2 1112  12.947   2.099  13.459
66425SOL     OW 1113  13.640   0.304   0.940
66425SOL    HW1 1114  13.685   0.220   0.956
66425SOL    HW2 1115  13.612   0.299   0.848
66426SOL     OW 1116  10.131   6.971   8.442
66426SOL    HW1 1117  10.104   7.061   8.428
66426SOL    HW2 1118  10.081   6.942   8.519
66427SOL     OW 1119   8.535   8.209   2.056
66427SOL    HW1 1120   8.585   8.128   2.063
66427SOL    HW2 1121   8.590   8.275   2.098
66428SOL     OW 1122   6.395   3.487   7.233
66428SOL    HW1 1123   6.406   3.465   7.140
66428SOL    HW2 1124   6.477   3.530   7.257
66429SOL     OW 1125   1.754   9.772  13.152
66429SOL    HW1 1126   1.836   9.803  13.113
66429SOL    HW2 1127   1.773   9.765  13.245
66430SOL     OW 1128   4.511   8.959   2.104
66430SOL    HW1 1129   4.476   8.982   2.189
66430SOL    HW2 1130   4.508   8.863   2.102
66431SOL     OW 1131   3.534   8.126   7.905
66431SOL    HW1 1132   3.454   8.076   7.923
66431SOL    HW2 1133   3.578   8.131   7.990
66432SOL     OW 1134   7.719   3.107   9.387
66432SOL    HW1 1135   7.701   3.095   9.294
66432SOL    HW2 1136   7.676   3.189   9.410
66433SOL     OW 1137  13.829   5.686   4.035
66433SOL    HW1 1138  13.896   5.627   4.001
66433SOL    HW2 1139  13.869   5.773   4.028
66434SOL     OW 1140   4.578  11.725   8.535
66434SOL    HW1 1141   4.672  11.711   8.524
66434SOL    HW2 1142   4.537  11.668   8.470
66435SOL     OW 1143   8.827   0.848  10.677
66435SOL    HW1 1144   8.770   0.914  10.716
66435SOL    HW2 1145   8.863   0.891  10.599
66436SOL     OW 1146  13.151   2.612  10.011
66436SOL    HW1 1147  13.230   2.585   9.965
66436SOL    HW2 1148  13.161   2.577  10.099
66437SOL     OW 1149   9.588   0.267  14.045
66437SOL    HW1 1150   9.645   0.344  14.053
66437SOL    HW2 1151   9.625   0.218  13.972
66438SOL     OW 1152   1.808  10.683  11.301
66438SOL    HW1 1153   1.897  10.687  11.264
66438SOL    HW2 1154   1.803  10.759  11.359
66439SOL     OW 1155  11.499   2.378  10.106
66439SOL    HW1 1156  11.553   2.443  10.150
66439SOL    HW2 1157  11.523   2.295  10.147
66440SOL     OW 1158   7.802   7.823  13.779
66440SOL    HW1 1159   7.769   7.878  13.850
66440SOL    HW2 1160   7.896   7.841  13.776
66441SOL     OW 1161  10.823   0.345   4.246
66441SOL    HW1 1162  10.883   0.347   4.320
66441SOL    HW2 1163  10.862   0.281   4.186
66442SOL     OW 1164   7.082   1.763   1.522
66442SOL    HW1 1165   7.108   1.827   1.456
66442SOL    HW2 1166   7.005   1.802   1.563
66443SOL     OW 1167   8.008  10.022  13.850
66443SOL    HW1 1168   7.914  10.024  13.870
66443SOL    HW2 1169   8.024  10.103  13.801
66444SOL     OW 1170  12.496   9.450   3.227
66444SOL    HW1 1171  12.453   9.534   3.209
66444SOL    HW2 1172  12.576   9.452   3.175
66445SOL     OW 1173  11.229   5.817  11.696
66445SOL    HW1 1174  11.147   5.861  11.717
66445SOL    HW2 1175  11.269   5.871  11.628
66446SOL     OW 1176   7.427   2.596   9.180
66446SOL    HW1 1177   7.457   2.661   9.245
66446SOL    HW2 1178   7.401   2.521   9.233
66447SOL     OW 1179   5.616  12.015   1.208
66447SOL    HW1 1180   5.588  11.927   1.234
66447SOL    HW2 1181   5.548  12.044   1.147
66448SOL     OW 1182   0.014  10.578   6.540
66448SOL    HW1 1183   0.108  10.589   6.526
66448SOL    HW2 1184  14.848  10.601   6.456
66449SOL     OW 1185   9.682   9.117  11.828
66449SOL    HW1 1186   9.707   9.152  11.743
66449SOL    HW2 1187   9.688   9.192  11.887
66450SOL     OW 1188   0.044   7.438   6.327
66450SOL    HW1 1189  14.863   7.429   6.248
66450SOL    HW2 1190  14.860   7.412   6.399
66451SOL     OW 1191  14.382   3.683  13.208
66451SOL    HW1 1192  14.308   3.722  13.162
66451SOL    HW2 1193  14.436   3.758  13.234
66452SOL     OW 1194   5.227  10.115  13.880
66452SOL    HW1 1195   5.215  10.204  13.846
66452SOL    HW2 1196   5.249  10.127  13.972
66453SOL     OW 1197  10.583  11.582   7.562
66453SOL    HW1 1198  10.644  11.511   7.583
66453SOL    HW2 1199  10.559  11.619   7.647
66454SOL     OW 1200   6.910   2.247   6.472
66454SOL    HW1 1201   6.922   2.324   6.528
66454SOL    HW2 1202   6.890   2.283   6.386
66455SOL     OW 1203  13.577   1.106  11.074
66455SOL    HW1 1204  13.651   1.048  11.057
66455SOL    HW2 1205  13.507   1.047  11.103
66456SOL     OW 1206   8.282   5.712   1.719
66456SOL    HW1 1207   8.326   5.786   1.677
66456SOL    HW2 1208   8.313   5.713   1.809
66457SOL     OW 1209   1.151   5.410   3.529
66457SOL    HW1 1210   1.056   5.413   3.534
66457SOL    HW2 1211   1.173   5.317   3.522
66458SOL     OW 1212   1.100   3.020  11.908
66458SOL    HW1 1213   1.011   3.042  11.934
66458SOL    HW2 1214   1.090   2.943  11.852
66459SOL     OW 1215   2.233  14.488   7.300
66459SOL    HW1 1216   2.157  14.497   7.242
66459SOL    HW2 1217   2.227  14.563   7.358
66460SOL     OW 1218   9.262  12.104  12.673
66460SOL    HW1 1219   9.224  12.128  12.758
66460SOL    HW2 1220   9.200  12.137  12.609
66461SOL     OW 1221  10.026   9.100   4.467
66461SOL    HW1 1222  10.066   9.015   4.445
66461SOL    HW2 1223   9.978   9.084   4.548
66462SOL     OW 1224  11.010  11.796   1.492
66462SOL    HW1 1225  11.082  11.848   1.457
66462SOL    HW2 1226  11.002  11.722   1.431
66463SOL     OW 1227   3.732   2.834   6.428
66463SOL    HW1 1228   3.795   2.850   6.358
66463SOL    HW2 1229   3.703   2.744   6.415
66464SOL     OW 1230   6.337   4.274   8.145
66464SOL    HW1 1231   6.284   4.335   8.093
66464SOL    HW2 1232   6.272   4.222   8.193
66465SOL     OW 1233  12.712  13.204   8.937
66465SOL    HW1 1234  12.762  13.136   8.890
66465SOL    HW2 1235  12.770  13.230   9.009
66466SOL     OW 1236  12.141   4.281   8.480
66466SOL    HW1 1237  12.081   4.213   8.449
66466SOL    HW2 1238  12.113   4.298   8.570
66467SOL     OW 1239  14.581   9.610  12.974
66467SOL    HW1 1240  14.569   9.657  13.056
66467SOL    HW2 1241  14.543   9.524  12.990
66468SOL     OW 1242   8.740  11.608  13.997
66468SOL    HW1 1243   8.782  11.691  14.022
66468SOL    HW2 1244   8.654  11.633  13.965
66469SOL     OW 1245  10.515  11.965   8.137
66469SOL    HW1 1246  10.449  12.013   8.087
66469SOL    HW2 1247  10.469  11.938   8.217
66470SOL     OW 1248   6.028  12.585   0.328
66470SOL    HW1 1249   6.109  12.565   0.374
66470SOL    HW2 1250   6.046  12.560   0.237
66471SOL     OW 1251   8.352  13.277   9.612
66471SOL    HW1 1252   8.382  13.355   9.565
66471SOL    HW2 1253   8.415  13.266   9.683
66472SOL     OW 1254  12.341   2.421  12.165
66472SOL    HW1 1255  12.405   2.467  12.111
66472SOL    HW2 1256  12.291   2.491  12.208
66473SOL     OW 1257   4.746   7.744  10.115
66473SOL    HW1 1258   4.745   7.801  10.192
66473SOL    HW2 1259   4.839   7.727  10.099
66474SOL     OW 1260   8.731   3.992  11.073
66474SOL    HW1 1261   8.670   3.919  11.064
66474SOL    HW2 1262   8.675   4.070  11.070
66475SOL     OW 1263   2.588   8.315   3.382
66475SOL    HW1 1264   2.562   8.370   3.307
66475SOL    HW2 1265   2.642   8.373   3.436
66476SOL     OW 1266   5.143  13.596   7.232
66476SOL    HW1 1267   5.139  13.541   7.311
66476SOL    HW2 1268   5.162  13.534   7.161
66477SOL     OW 1269   0.406   5.651  12.718
66477SOL    HW1 1270   0.399   5.715  12.789
66477SOL    HW2 1271   0.408   5.566  12.762
66478SOL     OW 1272   8.366   2.331   3.033
66478SOL    HW1 1273   8.382   2.357   3.124
66478SOL    HW2 1274   8.408   2.246   3.024
66479SOL     OW 1275  10.097   7.441   9.040
66479SOL    HW1 1276  10.159   7.403   8.978
66479SOL    HW2 1277  10.148   7.504   9.090
66480SOL     OW 1278  10.057   0.353   3.920
66480SOL    HW1 1279  10.094   0.429   3.876
66480SOL    HW2 1280   9.962   0.362   3.909
66481SOL     OW 1281   7.349  14.188  11.918
66481SOL    HW1 1282   7.379  14.220  12.003
66481SOL    HW2 1283   7.304  14.106  11.938
66482SOL     OW 1284   7.923  12.698  10.607
66482SOL    HW1 1285   7.843  12.731  10.648
66482SOL    HW2 1286   7.927  12.744  10.522
66483SOL     OW 1287  13.874   9.059  10.108
66483SOL    HW1 1288  13.836   9.114  10.176
66483SOL    HW2 1289  13.800   9.027  10.058
66484SOL     OW 1290  11.650   2.124   2.757
66484SOL    HW1 1291  11.611   2.051   2.708
66484SOL    HW2 1292  11.578   2.185   2.771
66485SOL     OW 1293  12.238   6.934   6.468
66485SOL    HW1 1294  12.327   6.969   6.467
66485SOL    HW2 1295  12.244   6.851   6.420
66486SOL     OW 1296   4.912   1.636   5.617
66486SOL    HW1 1297   4.994   1.673   5.647
66486SOL    HW2 1298   4.893   1.566   5.679
66487SOL     OW 1299  13.723   5.905   9.617
66487SOL    HW1 1300  13.655   5.871   9.559
66487SOL    HW2 1301  13.784   5.833   9.627
66488SOL     OW 1302   0.417   8.831   1.347
66488SOL    HW1 1303   0.435   8.838   1.441
66488SOL    HW2 1304   0.323   8.812   1.342
66489SOL     OW 1305   4.924   8.717   6.709
66489SOL    HW1 1306   4.936   8.634   6.663
66489SOL    HW2 1307   4.914   8.782   6.639
66490SOL     OW 1308   8.613  13.172   3.592
66490SOL    HW1 1309   8.585  13.224   3.517
66490SOL    HW2 1310   8.534  13.125   3.620
66491SOL     OW 1311   2.416  13.892   9.756
66491SOL    HW1 1312   2.491  13.840   9.728
66491SOL    HW2 1313   2.358  13.895   9.679
66492SOL     OW 1314  11.440   2.802  10.923
66492SOL    HW1 1315  11.355   2.776  10.957
66492SOL    HW2 1316  11.461   2.883  10.970
66493SOL     OW 1317  11.124  12.176  13.073
66493SOL    HW1 1318  11.219  12.179  13.057
66493SOL    HW2 1319  11.115  12.120  13.151
66494SOL     OW 1320  10.882  13.560  10.764
66494SOL    HW1 1321  10.944  13.627  10.792
66494SOL    HW2 1322  10.896  13.487  10.825
66495SOL     OW 1323  10.602  13.596   6.071
66495SOL    HW1 1324  10.669  13.665   6.074
66495SOL    HW2 1325  10.585  13.576   6.163
66496SOL     OW 1326  10.479   9.697   4.333
66496SOL    HW1 1327  10.467   9.631   4.402
66496SOL    HW2 1328  10.391   9.733   4.319
66497SOL     OW 1329   6.247   2.491  12.030
66497SOL    HW1 1330   6.204   2.450  12.105
66497SOL    HW2 1331   6.340   2.480  12.046
66498SOL     OW 1332   2.719   7.467   9.585
66498SOL    HW1 1333   2.760   7.430   9.663
66498SOL    HW2 1334   2.706   7.392   9.527
66499SOL     OW 1335   0.147   2.971   5.447
66499SOL    HW1 1336   0.152   2.980   5.352
66499SOL    HW2 1337   0.213   2.906   5.469
66500SOL     OW 1338  10.310   7.579   3.546
66500SOL    HW1 1339  10.243   7.639   3.580
66500SOL    HW2 1340  10.384   7.636   3.524
66501SOL     OW 1341   0.318   5.114   9.272
66501SOL    HW1 1342   0.223   5.108   9.277
66501SOL    HW2 1343   0.349   5.079   9.356
66502SOL     OW 1344   9.527  13.916  13.871
66502SOL    HW1 1345   9.548  13.962  13.790
66502SOL    HW2 1346   9.526  13.985  13.938
66503SOL     OW 1347  12.823   3.028   6.742
66503SOL    HW1 1348  12.755   3.025   6.675
66503SOL    HW2 1349  12.895   2.977   6.705
66504SOL     OW 1350  10.778  13.015   1.449
66504SOL    HW1 1351  10.744  13.024   1.538
66504SOL    HW2 1352  10.713  13.061   1.394
66505SOL     OW 1353   1.851   3.547   1.800
66505SOL    HW1 1354   1.778   3.501   1.841
66505SOL    HW2 1355   1.816   3.579   1.717
66506SOL     OW 1356   2.952  11.811   5.980
66506SOL    HW1 1357   2.992  11.856   6.054
66506SOL    HW2 1358   2.941  11.878   5.913
66507SOL     OW 1359   0.222   6.322   7.658
66507SOL    HW1 1360   0.239   6.230   7.638
66507SOL    HW2 1361   0.248   6.333   7.749
66508SOL     OW 1362   1.306  11.658   0.204
66508SOL    HW1 1363   1.334  11.627   0.290
66508SOL    HW2 1364   1.285  11.578   0.156
66509SOL     OW 1365   3.355   3.528   2.479
66509SOL    HW1 1366   3.284   3.573   2.526
66509SOL    HW2 1367   3.328   3.436   2.476
66510SOL     OW 1368  10.328  13.300  11.125
66510SOL    HW1 1369  10.374  13.240  11.184
66510SOL    HW2 1370  10.236  13.293  11.152
66511SOL     OW 1371   8.565   6.330   1.331
66511SOL    HW1 1372   8.632   6.263   1.341
66511SOL    HW2 1373   8.608   6.401   1.283
66512SOL     OW 1374   3.895   7.075   6.362
66512SOL    HW1 1375   3.871   7.017   6.289
66512SOL    HW2 1376   3.972   7.033   6.401
66513SOL     OW 1377   9.254   3.827   8.249
66513SOL    HW1 1378   9.304   3.755   8.287
66513SOL    HW2 1379   9.284   3.904   8.297
66514SOL     OW 1380   3.364   8.233  10.814
66514SOL    HW1 1381   3.272   8.208  10.817
66514SOL    HW2 1382   3.402   8.178  10.746
66515SOL     OW 1383   2.718  10.230   6.841
66515SOL    HW1 1384   2.687  10.181   6.766
66515SOL    HW2 1385   2.732  10.164   6.909
66516SOL     OW 1386   3.493   8.548   8.057
66516SOL    HW1 1387   3.462   8.627   8.013
66516SOL    HW2 1388   3.506   8.485   7.986
66517SOL     OW 1389   4.990   1.823  10.834
66517SOL    HW1 1390   4.988   1.729  10.846
66517SOL    HW2 1391   4.900   1.852  10.852
66518SOL     OW 1392   1.473   7.958   4.193
66518SOL    HW1 1393   1.397   7.900   4.183
66518SOL    HW2 1394   1.548   7.905   4.165
66519SOL     OW 1395   6.298  13.382   8.978
66519SOL    HW1 1396   6.347  13.390   9.059
66519SOL    HW2 1397   6.281  13.288   8.969
66520SOL     OW 1398  14.451   7.973   3.912
66520SOL    HW1 1399  14.473   8.014   3.829
66520SOL    HW2 1400  14.356   7.974   3.916
66521SOL     OW 1401   3.660   3.548   1.151
66521SOL    HW1 1402   3.607   3.554   1.230
66521SOL    HW2 1403   3.739   3.598   1.170
66522SOL     OW 1404  10.407  14.226   3.759
66522SOL    HW1 1405  10.383  14.160   3.823
66522SOL    HW2 1406  10.503  14.232   3.767
66523SOL     OW 1407  13.468   3.078   7.694
66523SOL    HW1 1408  13.514   3.158   7.719
66523SOL    HW2 1409  13.539   3.016   7.674
66524SOL     OW 1410   7.891   4.533  14.282
66524SOL    HW1 1411   7.878   4.467  14.351
66524SOL    HW2 1412   7.977   4.511  14.244
66525SOL     OW 1413   4.188   0.364   8.612
66525SOL    HW1 1414   4.102   0.403   8.597
66525SOL    HW2 1415   4.241   0.435   8.647
66526SOL     OW 1416   1.249   6.360   3.145
66526SOL    HW1 1417   1.203   6.431   3.189
66526SOL    HW2 1418   1.316   6.403   3.093
66527SOL     OW 1419  11.881  14.190   4.192
66527SOL    HW1 1420  11.890  14.225   4.103
66527SOL    HW2 1421  11.869  14.096   4.180
66528SOL     OW 1422  12.452   7.114  10.737
66528SOL    HW1 1423  12.433   7.172  10.664
66528SOL    HW2 1424  12.400   7.149  10.810
66529SOL     OW 1425   3.544  14.146   2.644
66529SOL    HW1 1426   3.471  14.150   2.582
66529SOL    HW2 1427   3.513  14.089   2.714
66530SOL     OW 1428   7.494   4.588   8.273
66530SOL    HW1 1429   7.584   4.585   8.242
66530SOL    HW2 1430   7.459   4.669   8.236
66531SOL     OW 1431  13.573   0.390   4.860
66531SOL    HW1 1432  13.657   0.426   4.832
66531SOL    HW2 1433  13.531   0.462   4.907
66532SOL     OW 1434   5.250   8.809   2.418
66532SOL    HW1 1435   5.270   8.896   2.451
66532SOL    HW2 1436   5.334   8.763   2.418
66533SOL     OW 1437   9.579   0.877  10.813
66533SOL    HW1 1438   9.548   0.788  10.796
66533SOL    HW2 1439   9.656   0.887  10.756
66534SOL     OW 1440  12.663   1.881   4.299
66534SOL    HW1 1441  12.642   1.953   4.358
66534SOL    HW2 1442  12.590   1.820   4.309
66535SOL     OW 1443   6.644   7.333   6.048
66535SOL    HW1 1444   6.728   7.376   6.064
66535SOL    HW2 1445   6.638   7.325   5.953
66536SOL     OW 1446  14.128   3.096   3.222
66536SOL    HW1 1447  14.111   3.141   3.139
66536SOL    HW2 1448  14.222   3.108   3.238
66537SOL     OW 1449  14.551   1.209   1.128
66537SOL    HW1 1450  14.575   1.147   1.197
66537SOL    HW2 1451  14.624   1.207   1.067
66538SOL     OW 1452   4.373   3.922   7.765
66538SOL    HW1 1453   4.346   3.837   7.801
66538SOL    HW2 1454   4.447   3.900   7.708
66539SOL     OW 1455   3.743   5.652   7.638
66539SOL    HW1 1456   3.817   5.692   7.683
66539SOL    HW2 1457   3.783   5.584   7.583
66540SOL     OW 1458   0.591  14.023  11.369
66540SOL    HW1 1459   0.670  14.045  11.320
66540SOL    HW2 1460   0.593  13.928  11.376
66541SOL     OW 1461   3.320  10.127   4.872
66541SOL    HW1 1462   3.340  10.033   4.872
66541SOL    HW2 1463   3.301  10.147   4.781
66542SOL     OW 1464   2.745  13.055   4.899
66542SOL    HW1 1465   2.672  13.103   4.861
66542SOL    HW2 1466   2.752  13.086   4.989
66543SOL     OW 1467  14.424   3.595  12.503
66543SOL    HW1 1468  14.458   3.674  12.546
66543SOL    HW2 1469  14.478   3.584  12.425
66544SOL     OW 1470   9.713   9.887   0.757
66544SOL    HW1 1471   9.723   9.800   0.795
66544SOL    HW2 1472   9.653   9.875   0.684
66545SOL     OW 1473   3.914   9.556   2.663
66545SOL    HW1 1474   3.983   9.570   2.597
66545SOL    HW2 1475   3.899   9.643   2.700
66546SOL     OW 1476   0.242   1.657   3.753
66546SOL    HW1 1477   0.272   1.639   3.664
66546SOL    HW2 1478   0.287   1.593   3.808
66547SOL     OW 1479  10.328   3.987  11.365
66547SOL    HW1 1480  10.272   4.052  11.323
66547SOL    HW2 1481  10.350   3.925  11.296
66548SOL     OW 1482  14.478  14.782   7.987
66548SOL    HW1 1483  14.454  14.696   8.022
66548SOL    HW2 1484  14.394  14.825   7.968
66549SOL     OW 1485   7.125  13.322   1.361
66549SOL    HW1 1486   7.082  13.278   1.288
66549SOL    HW2 1487   7.150  13.251   1.420
66550SOL     OW 1488   4.904   9.308   2.431
66550SOL    HW1 1489   4.888   9.372   2.500
66550SOL    HW2 1490   4.862   9.228   2.463
66551SOL     OW 1491   0.066   1.600  11.420
66551SOL    HW1 1492   0.003   1.539  11.458
66551SOL    HW2 1493   0.077   1.667  11.488
66552SOL     OW 1494   5.070   1.783   2.958
66552SOL    HW1 1495   4.991   1.728   2.958
66552SOL    HW2 1496   5.043   1.866   2.997
66553SOL     OW 1497   4.405   8.514   1.752
66553SOL    HW1 1498   4.480   8.545   1.804
66553SOL    HW2 1499   4.329   8.539   1.804
66554SOL     OW 1500  11.998   0.424   7.877
66554SOL    HW1 1501  11.997   0.470   7.960
66554SOL    HW2 1502  11.978   0.490   7.812
66555SOL     OW 1503  10.980   3.506   7.774
66555SOL    HW1 1504  11.036   3.520   7.698
66555SOL    HW2 1505  11.042   3.488   7.845
66556SOL     OW 1506  12.372  11.276   7.220
66556SOL    HW1 1507  12.427  11.203   7.194
66556SOL    HW2 1508  12.416  11.313   7.297
66557SOL     OW 1509   0.571   9.828  13.402
66557SOL    HW1 1510   0.512   9.786  13.465
66557SOL    HW2 1511   0.655   9.833  13.449
66558SOL     OW 1512  10.868  12.639   5.552
66558SOL    HW1 1513  10.954  12.677   5.533
66558SOL    HW2 1514  10.806  12.693   5.502
66559SOL     OW 1515   2.123   6.912   9.825
66559SOL    HW1 1516   2.103   6.876   9.738
66559SOL    HW2 1517   2.194   6.973   9.810
66560SOL     OW 1518  13.277   8.330   7.197
66560SOL    HW1 1519  13.304   8.422   7.205
66560SOL    HW2 1520  13.288   8.294   7.285
66561SOL     OW 1521   1.814   2.017   1.132
66561SOL    HW1 1522   1.906   2.001   1.111
66561SOL    HW2 1523   1.773   2.036   1.048
66562SOL     OW 1524   9.039   1.578   3.603
66562SOL    HW1 1525   8.989   1.640   3.550
66562SOL    HW2 1526   9.018   1.603   3.694
66563SOL     OW 1527   0.579   3.337   1.728
66563SOL    HW1 1528   0.570   3.258   1.675
66563SOL    HW2 1529   0.583   3.409   1.666
66564SOL     OW 1530   5.165   9.149   9.971
66564SOL    HW1 1531   5.161   9.129   9.878
66564SOL    HW2 1532   5.241   9.206   9.980
66565SOL     OW 1533   8.765   6.411  14.365
66565SOL    HW1 1534   8.800   6.435  14.450
66565SOL    HW2 1535   8.829   6.443  14.301
66566SOL     OW 1536  14.622  11.352   0.613
66566SOL    HW1 1537  14.708  11.326   0.580
66566SOL    HW2 1538  14.597  11.427   0.559
66567SOL     OW 1539   5.613   0.918  14.365
66567SOL    HW1 1540   5.608   1.007  14.331
66567SOL    HW2 1541   5.615   0.862  14.288
66568SOL     OW 1542  10.882   2.144  14.590
66568SOL    HW1 1543  10.916   2.223  14.632
66568SOL    HW2 1544  10.909   2.153  14.498
66569SOL     OW 1545  13.267   6.126  10.680
66569SOL    HW1 1546  13.353   6.134  10.721
66569SOL    HW2 1547  13.282   6.144  10.588
66570SOL     OW 1548   8.581  10.373   3.795
66570SOL    HW1 1549   8.523  10.389   3.869
66570SOL    HW2 1550   8.657  10.330   3.833
66571SOL     OW 1551  10.301   4.437  14.700
66571SOL    HW1 1552  10.352   4.357  14.694
66571SOL    HW2 1553  10.218   4.417  14.658
66572SOL     OW 1554  14.410  13.986  12.030
66572SOL    HW1 1555  14.317  13.984  12.009
66572SOL    HW2 1556  14.415  14.038  12.110
66573SOL     OW 1557   5.889   9.917   4.890
66573SOL    HW1 1558   5.807   9.952   4.855
66573SOL    HW2 1559   5.905   9.969   4.968
66574SOL     OW 1560   6.861   5.791  14.653
66574SOL    HW1 1561   6.916   5.854  14.700
66574SOL    HW2 1562   6.840   5.724  14.718
66575SOL     OW 1563   1.799   3.067   9.553
66575SOL    HW1 1564   1.766   3.084   9.465
66575SOL    HW2 1565   1.879   3.119   9.560
66576SOL     OW 1566   1.276   2.356   0.233
66576SOL    HW1 1567   1.210   2.318   0.175
66576SOL    HW2 1568   1.291   2.289   0.300
66577SOL     OW 1569   1.636   5.869  10.940
66577SOL    HW1 1570   1.582   5.872  11.019
66577SOL    HW2 1571   1.718   5.910  10.966
66578SOL     OW 1572   5.399   6.174  14.675
66578SOL    HW1 1573   5.396   6.116  14.751
66578SOL    HW2 1574   5.308   6.188  14.651
66579SOL     OW 1575   3.868  10.865   8.232
66579SOL    HW1 1576   3.792  10.872   8.289
66579SOL    HW2 1577   3.843  10.800   8.166
66580SOL     OW 1578   1.887   3.028   2.154
66580SOL    HW1 1579   1.859   2.940   2.129
66580SOL    HW2 1580   1.929   3.062   2.075
66581SOL     OW 1581  13.107  13.539   0.163
66581SOL    HW1 1582  13.026  13.560   0.209
66581SOL    HW2 1583  13.091  13.563   0.072
66582SOL     OW 1584   5.954   9.388   6.028
66582SOL    HW1 1585   5.980   9.410   5.938
66582SOL    HW2 1586   6.016   9.320   6.055
66583SOL     OW 1587   7.722   5.780   8.220
66583SOL    HW1 1588   7.692   5.745   8.304
66583SOL    HW2 1589   7.662   5.853   8.202
66584SOL     OW 1590   5.674  10.784  11.892
66584SOL    HW1 1591   5.735  10.851  11.921
66584SOL    HW2 1592   5.589  10.828  11.889
66585SOL     OW 1593  14.318   9.179  13.443
66585SOL    HW1 1594  14.393   9.136  13.402
66585SOL    HW2 1595  14.328   9.272  13.421
66586SOL     OW 1596   4.707   2.700   0.753
66586SOL    HW1 1597   4.794   2.735   0.772
66586SOL    HW2 1598   4.649   2.776   0.757
66587SOL     OW 1599  10.283   2.156   1.930
66587SOL    HW1 1600  10.211   2.099   1.901
66587SOL    HW2 1601  10.264   2.240   1.889
66588SOL     OW 1602   3.684   5.107   5.568
66588SOL    HW1 1603   3.759   5.156   5.535
66588SOL    HW2 1604   3.624   5.174   5.601
66589SOL     OW 1605  12.938  13.396   7.127
66589SOL    HW1 1606  12.979  13.399   7.213
66589SOL    HW2 1607  12.990  13.457   7.074
66590SOL     OW 1608   8.754  10.369   4.960
66590SOL    HW1 1609   8.760  10.278   4.989
66590SOL    HW2 1610   8.746  10.364   4.865
66591SOL     OW 1611  12.192   0.112   5.894
66591SOL    HW1 1612  12.098   0.114   5.873
66591SOL    HW2 1613  12.200   0.039   5.956
66592SOL     OW 1614   8.744   4.758  10.392
66592SOL    HW1 1615   8.672   4.799  10.345
66592SOL    HW2 1616   8.777   4.827  10.450
66593SOL     OW 1617   6.154   7.518   5.274
66593SOL    HW1 1618   6.128   7.429   5.297
66593SOL    HW2 1619   6.215   7.508   5.201
66594SOL     OW 1620  13.296   2.423   4.679
66594SOL    HW1 1621  13.279   2.389   4.591
66594SOL    HW2 1622  13.209   2.443   4.715
66595SOL     OW 1623   5.446  12.580   6.420
66595SOL    HW1 1624   5.472  12.488   6.414
66595SOL    HW2 1625   5.350  12.578   6.416
66596SOL     OW 1626   6.242  12.552   0.475
66596SOL    HW1 1627   6.234  12.509   0.560
66596SOL    HW2 1628   6.334  12.579   0.471
66597SOL     OW 1629   6.161  10.534   2.049
66597SOL    HW1 1630   6.234  10.555   1.991
66597SOL    HW2 1631   6.098  10.489   1.992
66598SOL     OW 1632  10.183   9.988  13.776
66598SOL    HW1 1633  10.212   9.974  13.686
66598SOL    HW2 1634  10.209  10.078  13.796
66599SOL     OW 1635   1.550   3.725   5.660
66599SOL    HW1 1636   1.503   3.726   5.576
66599SOL    HW2 1637   1.611   3.798   5.654
66600SOL     OW 1638   8.612   1.761   6.824
66600SOL    HW1 1639   8.547   1.762   6.894
66600SOL    HW2 1640   8.608   1.672   6.789
66601SOL     OW 1641   5.896   7.779   4.991
66601SOL    HW1 1642   5.967   7.718   4.969
66601SOL    HW2 1643   5.880   7.764   5.084
66602SOL     OW 1644   2.848  13.605  12.759
66602SOL    HW1 1645   2.841  13.515  12.727
66602SOL    HW2 1646   2.846  13.598  12.854
66603SOL     OW 1647   9.312   7.900   2.398
66603SOL    HW1 1648   9.271   7.845   2.465
66603SOL    HW2 1649   9.405   7.895   2.417
66604SOL     OW 1650   2.149   9.647   9.971
66604SOL    HW1 1651   2.130   9.732  10.012
66604SOL    HW2 1652   2.180   9.593  10.044
66605SOL     OW 1653   4.144   6.295  10.451
66605SOL    HW1 1654   4.171   6.254  10.368
66605SOL    HW2 1655   4.071   6.241  10.481
66606SOL     OW 1656   3.375   7.199  11.541
66606SOL    HW1 1657   3.340   7.124  11.589
66606SOL    HW2 1658   3.459   7.168  11.507
66607SOL     OW 1659   6.338  11.100   2.353
66607SOL    HW1 1660   6.371  11.188   2.332
66607SOL    HW2 1661   6.281  11.078   2.280
66608SOL     OW 1662  13.120   0.351   3.597
66608SOL    HW1 1663  13.070   0.403   3.535
66608SOL    HW2 1664  13.181   0.301   3.543
66609SOL     OW 1665   2.203  12.058   5.564
66609SOL    HW1 1666   2.185  12.094   5.651
66609SOL    HW2 1667   2.290  12.018   5.571
66610SOL     OW 1668   3.946  12.764   6.982
66610SOL    HW1 1669   3.990  12.848   6.997
66610SOL    HW2 1670   3.878  12.761   7.049
66611SOL     OW 1671  10.074  11.380   2.621
66611SOL    HW1 1672  10.150  11.417   2.666
66611SOL    HW2 1673  10.048  11.447   2.558
66612SOL     OW 1674   0.530   2.179  12.777
66612SOL    HW1 1675   0.576   2.109  12.732
66612SOL    HW2 1676   0.516   2.146  12.866
66613SOL     OW 1677   1.575   5.955   5.137
66613SOL    HW1 1678   1.492   5.971   5.183
66613SOL    HW2 1679   1.611   6.042   5.122
66614SOL     OW 1680   1.847   6.831   2.495
66614SOL    HW1 1681   1.928   6.861   2.536
66614SOL    HW2 1682   1.799   6.911   2.474
66615SOL     OW 1683  13.306  10.723   4.548
66615SOL    HW1 1684  13.252  10.797   4.521
66615SOL    HW2 1685  13.283  10.654   4.486
66616SOL     OW 1686   1.036   6.117   8.068
66616SOL    HW1 1687   1.095   6.119   8.143
66616SOL    HW2 1688   0.986   6.199   8.074
66617SOL     OW 1689   5.699  14.057   1.641
66617SOL    HW1 1690   5.669  14.019   1.724
66617SOL    HW2 1691   5.795  14.057   1.648
66618SOL     OW 1692  10.017  12.426   2.804
66618SOL    HW1 1693  10.050  12.425   2.714
66618SOL    HW2 1694   9.966  12.344   2.811
66619SOL     OW 1695   6.145  14.367  10.539
66619SOL    HW1 1696   6.205  14.334  10.605
66619SOL    HW2 1697   6.192  14.440  10.498
66620SOL     OW 1698   6.722   3.041   0.093
66620SOL    HW1 1699   6.669   3.000   0.025
66620SOL    HW2 1700   6.693   3.001   0.174
66621SOL     OW 1701  13.043   4.188  13.805
66621SOL    HW1 1702  12.995   4.270  13.795
66621SOL    HW2 1703  13.135   4.213  13.806
66622SOL     OW 1704   8.490  10.053   3.581
66622SOL    HW1 1705   8.509  10.018   3.494
66622SOL    HW2 1706   8.561  10.019   3.636
66623SOL     OW 1707   3.338   8.561   0.885
66623SOL    HW1 1708   3.253   8.604   0.877
66623SOL    HW2 1709   3.350   8.548   0.979
66624SOL     OW 1710   8.107  10.064   9.482
66624SOL    HW1 1711   8.163  10.056   9.559
66624SOL    HW2 1712   8.064   9.979   9.474
66625SOL     OW 1713   7.079  14.258   5.775
66625SOL    HW1 1714   7.084  14.342   5.820
66625SOL    HW2 1715   7.093  14.193   5.843
66626SOL     OW 1716   9.332  13.354  13.393
66626SOL    HW1 1717   9.278  13.321  13.321
66626SOL    HW2 1718   9.416  13.311  13.380
66627SOL     OW 1719   3.133   9.722   3.992
66627SOL    HW1 1720   3.116   9.631   4.013
66627SOL    HW2 1721   3.054   9.752   3.947
66628SOL     OW 1722   1.723  11.311   0.033
66628SOL    HW1 1723   1.777  11.316  14.828
66628SOL    HW2 1724   1.752  11.232   0.078
66629SOL     OW 1725   9.489   2.539   5.086
66629SOL    HW1 1726   9.536   2.508   5.008
66629SOL    HW2 1727   9.474   2.461   5.138
66630SOL     OW 1728   5.298   2.338   9.215
66630SOL    HW1 1729   5.328   2.250   9.193
66630SOL    HW2 1730   5.209   2.342   9.180
66631SOL     OW 1731   9.630   2.528   4.356
66631SOL    HW1 1732   9.706   2.557   4.407
66631SOL    HW2 1733   9.619   2.597   4.290
66632SOL     OW 1734  11.173   0.726  12.823
66632SOL    HW1 1735  11.181   0.741  12.729
66632SOL    HW2 1736  11.110   0.792  12.852
66633SOL     OW 1737   6.148  13.612  14.272
66633SOL    HW1 1738   6.228  13.636  14.317
66633SOL    HW2 1739   6.169  13.619  14.179
66634SOL     OW 1740   3.900  10.375   0.630
66634SOL    HW1 1741   3.907  10.427   0.550
66634SOL    HW2 1742   3.807  10.381   0.654
66635SOL     OW 1743  14.423  13.829   1.967
66635SOL    HW1 1744  14.391  13.745   2.001
66635SOL    HW2 1745  14.478  13.805   1.893
66636SOL     OW 1746   0.975   0.019  10.845
66636SOL    HW1 1747   0.997  14.823  10.906
66636SOL    HW2 1748   0.882   0.035  10.859
66637SOL     OW 1749   8.852   4.528   9.991
66637SOL    HW1 1750   8.873   4.538   9.898
66637SOL    HW2 1751   8.768   4.572  10.002
66638SOL     OW 1752  11.759   8.600   4.324
66638SOL    HW1 1753  11.835   8.541   4.325
66638SOL    HW2 1754  11.797   8.688   4.328
66639SOL     OW 1755  10.175   8.952   0.909
66639SOL    HW1 1756  10.262   8.937   0.873
66639SOL    HW2 1757  10.143   8.865   0.932
66640SOL     OW 1758   6.506  11.057   9.924
66640SOL    HW1 1759   6.555  10.975   9.939
66640SOL    HW2 1760   6.515  11.073   9.830
66641SOL     OW 1761   0.258   5.376   2.115
66641SOL    HW1 1762   0.250   5.447   2.179
66641SOL    HW2 1763   0.173   5.375   2.070
66642SOL     OW 1764  13.883   2.584   9.414
66642SOL    HW1 1765  13.891   2.537   9.331
66642SOL    HW2 1766  13.909   2.673   9.393
66643SOL     OW 1767   4.749  11.194   1.452
66643SOL    HW1 1768   4.706  11.250   1.517
66643SOL    HW2 1769   4.831  11.238   1.432
66644SOL     OW 1770  12.469   0.345   9.830
66644SOL    HW1 1771  12.431   0.308   9.750
66644SOL    HW2 1772  12.563   0.327   9.821
66645SOL     OW 1773  13.143   1.791  13.065
66645SOL    HW1 1774  13.058   1.831  13.044
66645SOL    HW2 1775  13.194   1.863  13.102
66646SOL     OW 1776   5.007   2.468   3.161
66646SOL    HW1 1777   5.046   2.413   3.229
66646SOL    HW2 1778   5.059   2.548   3.163
66647SOL     OW 1779  12.416   9.689   9.039
66647SOL    HW1 1780  12.366   9.769   9.057
66647SOL    HW2 1781  12.497   9.720   8.999
66648SOL     OW 1782  11.556   7.207  13.333
66648SOL    HW1 1783  11.470   7.168  13.351
66648SOL    HW2 1784  11.537   7.297  13.308
66649SOL     OW 1785   6.353   5.391   6.268
66649SOL    HW1 1786   6.266   5.357   6.286
66649SOL    HW2 1787   6.388   5.334   6.199
66650SOL     OW 1788   6.142   7.132   5.961
66650SOL    HW1 1789   6.162   7.145   6.054
66650SOL    HW2 1790   6.200   7.194   5.915
66651SOL     OW 1791  14.816   9.138  10.481
66651SOL    HW1 1792  14.805   9.140  10.576
66651SOL    HW2 1793  14.804   9.046  10.457
66652SOL     OW 1794   1.512  13.250   3.488
66652SOL    HW1 1795   1.576  13.241   3.418
66652SOL    HW2 1796   1.502  13.345   3.499
66653SOL     OW 1797  11.174  10.226   9.217
66653SOL    HW1 1798  11.115  10.162   9.256
66653SOL    HW2 1799  11.209  10.183   9.139
66654SOL     OW 1800   3.133  13.582   1.543
66654SOL    HW1 1801   3.080  13.581   1.463
66654SOL    HW2 1802   3.086  13.642   1.602
66655SOL     OW 1803   1.060   9.827   5.277
66655SOL    HW1 1804   1.146   9.806   5.315
66655SOL    HW2 1805   0.998   9.807   5.348
66656SOL     OW 1806   8.793  13.998   9.098
66656SOL    HW1 1807   8.713  14.042   9.128
66656SOL    HW2 1808   8.812  13.934   9.166
66657SOL     OW 1809   2.205  13.772   1.069
66657SOL    HW1 1810   2.175  13.809   1.152
66657SOL    HW2 1811   2.125  13.738   1.028
66658SOL     OW 1812   3.290   3.466  14.767
66658SOL    HW1 1813   3.375   3.496  14.800
66658SOL    HW2 1814   3.236   3.545  14.764
66659SOL     OW 1815   4.899  13.344  13.527
66659SOL    HW1 1816   4.893  13.428  13.481
66659SOL    HW2 1817   4.988  13.313  13.510
66660SOL     OW 1818   1.811   8.395  11.986
66660SOL    HW1 1819   1.857   8.312  11.979
66660SOL    HW2 1820   1.880   8.459  12.007
66661SOL     OW 1821  12.284  10.729  13.643
66661SOL    HW1 1822  12.213  10.785  13.675
66661SOL    HW2 1823  12.266  10.720  13.549
66662SOL     OW 1824  13.207   5.352   2.305
66662SOL    HW1 1825  13.246   5.385   2.386
66662SOL    HW2 1826  13.113   5.347   2.323
66663SOL     OW 1827  11.655  13.556  14.040
66663SOL    HW1 1828  11.593  13.627  14.057
66663SOL    HW2 1829  11.604  13.476  14.047
66664SOL     OW 1830  12.523   8.527   4.452
66664SOL    HW1 1831  12.563   8.599   4.501
66664SOL    HW2 1832  12.580   8.452   4.468
66665SOL     OW 1833  11.224   8.233   8.589
66665SOL    HW1 1834  11.315   8.204   8.590
66665SOL    HW2 1835  11.199   8.231   8.497
66666SOL     OW 1836  11.211   7.957   0.291
66666SOL    HW1 1837  11.146   7.886   0.295
66666SOL    HW2 1838  11.222   7.984   0.382
66667SOL     OW 1839   6.241   3.034   5.493
66667SOL    HW1 1840   6.208   3.071   5.412
66667SOL    HW2 1841   6.227   2.940   5.484
66668SOL     OW 1842  11.531  10.089   0.687
66668SOL    HW1 1843  11.584  10.009   0.692
66668SOL    HW2 1844  11.456  10.064   0.633
66669SOL     OW 1845  13.235   1.621   0.855
66669SOL    HW1 1846  13.258   1.677   0.781
66669SOL    HW2 1847  13.296   1.646   0.924
66670SOL     OW 1848   4.699   0.680   8.107
66670SOL    HW1 1849   4.723   0.622   8.035
66670SOL    HW2 1850   4.606   0.664   8.121
66671SOL     OW 1851  11.472  13.518   3.196
66671SOL    HW1 1852  11.410  13.577   3.238
66671SOL    HW2 1853  11.502  13.461   3.267
66672SOL     OW 1854   0.717   1.317   0.511
66672SOL    HW1 1855   0.699   1.302   0.418
66672SOL    HW2 1856   0.672   1.399   0.531
66673SOL     OW 1857   9.984  13.975  13.344
66673SOL    HW1 1858   9.959  14.065  13.326
66673SOL    HW2 1859   9.972  13.929  13.261
66674SOL     OW 1860  14.503  14.161  13.225
66674SOL    HW1 1861  14.560  14.097  13.180
66674SOL    HW2 1862  14.556  14.192  13.298
66675SOL     OW 1863   2.061   7.951  10.224
66675SOL    HW1 1864   1.966   7.952  10.237
66675SOL    HW2 1865   2.095   8.013  10.288
66676SOL     OW 1866  11.314   0.998   3.904
66676SOL    HW1 1867  11.220   0.998   3.883
66676SOL    HW2 1868  11.343   1.088   3.889
66677SOL     OW 1869   3.721   0.432  14.677
66677SOL    HW1 1870   3.755   0.404  14.592
66677SOL    HW2 1871   3.627   0.444  14.662
66678SOL     OW 1872  10.935  12.966   5.658
66678SOL    HW1 1873  10.920  13.059   5.644
66678SOL    HW2 1874  11.017  12.947   5.611
66679SOL     OW 1875  13.794  10.287  11.376
66679SOL    HW1 1876  13.715  10.247  11.412
66679SOL    HW2 1877  13.819  10.228  11.304
66680SOL     OW 1878   6.517  10.307  11.777
66680SOL    HW1 1879   6.531  10.397  11.805
66680SOL    HW2 1880   6.424  10.302  11.756
66681SOL     OW 1881  10.717   9.478  13.858
66681SOL    HW1 1882  10.655   9.462  13.787
66681SOL    HW2 1883  10.671   9.446  13.936
66682SOL     OW 1884  13.430  14.805   3.732
66682SOL    HW1 1885  13.343  14.801   3.694
66682SOL    HW2 1886  13.486  14.758   3.670
66683SOL     OW 1887  11.914   9.208  10.233
66683SOL    HW1 1888  11.999   9.219  10.191
66683SOL    HW2 1889  11.916   9.269  10.307
66684SOL     OW 1890   5.592  14.781   7.130
66684SOL    HW1 1891   5.621  14.786   7.039
66684SOL    HW2 1892   5.513  14.835   7.133
66685SOL     OW 1893  14.542   4.440  13.458
66685SOL    HW1 1894  14.495   4.459  13.539
66685SOL    HW2 1895  14.610   4.377  13.484
66686SOL     OW 1896  13.272  12.341  10.799
66686SOL    HW1 1897  13.273  12.246  10.787
66686SOL    HW2 1898  13.290  12.377  10.712
66687SOL     OW 1899   0.119   6.003  13.546
66687SOL    HW1 1900   0.075   5.951  13.479
66687SOL    HW2 1901   0.211   5.976  13.541
66688SOL     OW 1902   9.138   3.840   5.190
66688SOL    HW1 1903   9.233   3.848   5.187
66688SOL    HW2 1904   9.120   3.792   5.271
66689SOL     OW 1905  14.871   0.662   6.100
66689SOL    HW1 1906  14.868   0.632   6.009
66689SOL    HW2 1907   0.024   0.585   6.150
66690SOL     OW 1908  12.729   2.425   6.810
66690SOL    HW1 1909  12.690   2.400   6.893
66690SOL    HW2 1910  12.686   2.371   6.745
66691SOL     OW 1911   8.555  13.814   3.404
66691SOL    HW1 1912   8.527  13.877   3.338
66691SOL    HW2 1913   8.476  13.763   3.424
66692SOL     OW 1914   4.611   1.062  12.063
66692SOL    HW1 1915   4.566   1.140  12.096
66692SOL    HW2 1916   4.620   1.078  11.969
66693SOL     OW 1917  13.635   2.198   0.355
66693SOL    HW1 1918  13.633   2.272   0.415
66693SOL    HW2 1919  13.722   2.202   0.315
66694SOL     OW 1920   6.879   0.977   7.118
66694SOL    HW1 1921   6.936   1.022   7.181
66694SOL    HW2 1922   6.922   0.990   7.034
66695SOL     OW 1923   9.258  11.760   3.492
66695SOL    HW1 1924   9.212  11.684   3.529
66695SOL    HW2 1925   9.190  11.810   3.447
66696SOL     OW 1926   8.165   2.208   1.418
66696SOL    HW1 1927   8.087   2.178   1.371
66696SOL    HW2 1928   8.236   2.153   1.384
66697SOL     OW 1929   7.141   6.642   6.915
66697SOL    HW1 1930   7.226   6.622   6.954
66697SOL    HW2 1931   7.078   6.622   6.984
66698SOL     OW 1932  14.633   4.547   6.088
66698SOL    HW1 1933  14.544   4.514   6.105
66698SOL    HW2 1934  14.621   4.641   6.077
66699SOL     OW 1935   5.279   5.874   4.971
66699SOL    HW1 1936   5.296   5.939   5.039
66699SOL    HW2 1937   5.327   5.796   5.000
66700SOL     OW 1938  11.999  13.071   1.357
66700SOL    HW1 1939  12.028  13.113   1.276
66700SOL    HW2 1940  11.906  13.093   1.363
66701SOL     OW 1941  11.604   6.550   7.004
66701SOL    HW1 1942  11.514   6.582   7.017
66701SOL    HW2 1943  11.602   6.510   6.917
66702SOL     OW 1944  12.727  11.812  14.087
66702SOL    HW1 1945  12.698  11.762  14.011
66702SOL    HW2 1946  12.698  11.761  14.163
66703SOL     OW 1947  11.008   2.644  14.808
66703SOL    HW1 1948  11.093   2.613  14.777
66703SOL    HW2 1949  11.028   2.722  14.859
66704SOL     OW 1950  11.961  12.527   2.294
66704SOL    HW1 1951  12.026  12.468   2.255
66704SOL    HW2 1952  11.976  12.520   2.388
66705SOL     OW 1953   0.935   2.293   7.238
66705SOL    HW1 1954   0.879   2.240   7.182
66705SOL    HW2 1955   1.024   2.275   7.207
66706SOL     OW 1956   0.470   6.993  12.451
66706SOL    HW1 1957   0.444   6.921  12.510
66706SOL    HW2 1958   0.387   7.027  12.418
66707SOL     OW 1959   5.288   3.909   1.297
66707SOL    HW1 1960   5.239   3.893   1.216
66707SOL    HW2 1961   5.357   3.969   1.272
66708SOL     OW 1962   1.842   0.549   2.627
66708SOL    HW1 1963   1.776   0.617   2.619
66708SOL    HW2 1964   1.853   0.537   2.722
66709SOL     OW 1965   6.357  14.154   1.583
66709SOL    HW1 1966   6.317  14.151   1.496
66709SOL    HW2 1967   6.445  14.188   1.569
66710SOL     OW 1968   7.734   2.676   1.208
66710SOL    HW1 1969   7.740   2.590   1.166
66710SOL    HW2 1970   7.668   2.723   1.156
66711SOL     OW 1971   2.642   3.908   8.564
66711SOL    HW1 1972   2.693   3.842   8.517
66711SOL    HW2 1973   2.617   3.866   8.646
66712SOL     OW 1974   3.719   4.834  13.976
66712SOL    HW1 1975   3.749   4.921  13.950
66712SOL    HW2 1976   3.763   4.774  13.915
66713SOL     OW 1977   2.891   1.944   0.986
66713SOL    HW1 1978   2.922   1.864   1.029
66713SOL    HW2 1979   2.969   1.999   0.979
66714SOL     OW 1980   5.131   1.231   1.325
66714SOL    HW1 1981   5.148   1.281   1.245
66714SOL    HW2 1982   5.198   1.163   1.325
66715SOL     OW 1983   4.798   5.975   2.118
66715SOL    HW1 1984   4.852   5.920   2.174
66715SOL    HW2 1985   4.812   6.064   2.150
66716SOL     OW 1986   8.907   8.649   5.610
66716SOL    HW1 1987   8.832   8.702   5.637
66716SOL    HW2 1988   8.918   8.667   5.517
66717SOL     OW 1989   4.742   3.736  13.288
66717SOL    HW1 1990   4.679   3.664  13.296
66717SOL    HW2 1991   4.728   3.788  13.367
66718SOL     OW 1992   5.878   2.873   0.134
66718SOL    HW1 1993   5.885   2.782   0.162
66718SOL    HW2 1994   5.933   2.879   0.055
66719SOL     OW 1995   2.311   7.755   6.564
66719SOL    HW1 1996   2.393   7.803   6.558
66719SOL    HW2 1997   2.320   7.702   6.644
66720SOL     OW 1998   1.428   4.129   7.951
66720SOL    HW1 1999   1.425   4.034   7.938
66720SOL    HW2 2000   1.494   4.143   8.018
66721SOL     OW 2001   0.232  10.285  14.572
66721SOL    HW1 2002   0.207  10.209  14.625
66721SOL    HW2 2003   0.319  10.264  14.538
66722SOL     OW 2004   0.896  12.964  13.597
66722SOL    HW1 2005   0.940  13.039  13.637
66722SOL    HW2 2006   0.956  12.936  13.528
66723SOL     OW 2007   1.924  12.083   5.525
66723SOL    HW1 2008   1.894  12.123   5.606
66723SOL    HW2 2009   2.017  12.065   5.540
66724SOL     OW 2010   1.056  14.238   9.603
66724SOL    HW1 2011   1.114  14.300   9.559
66724SOL    HW2 2012   1.085  14.152   9.571
66725SOL     OW 2013   0.327   3.469   4.290
66725SOL    HW1 2014   0.413   3.480   4.331
66725SOL    HW2 2015   0.279   3.549   4.313
66726SOL     OW 2016   7.292  10.629  11.434
66726SOL    HW1 2017   7.290  10.706  11.376
66726SOL    HW2 2018   7.383  10.622  11.461
66727SOL     OW 2019   7.701   0.827   5.786
66727SOL    HW1 2020   7.669   0.877   5.710
66727SOL    HW2 2021   7.746   0.892   5.840
66728SOL     OW 2022   2.644  13.431   0.904
66728SOL    HW1 2023   2.634  13.370   0.830
66728SOL    HW2 2024   2.723  13.401   0.948
66729SOL     OW 2025  12.881  13.584  14.524
66729SOL    HW1 2026  12.943  13.594  14.596
66729SOL    HW2 2027  12.933  13.551  14.451
66730SOL     OW 2028  13.088   7.267   9.727
66730SOL    HW1 2029  12.997   7.252   9.753
66730SOL    HW2 2030  13.090   7.245   9.633
66731SOL     OW 2031   6.767  13.055   1.875
66731SOL    HW1 2032   6.769  13.032   1.968
66731SOL    HW2 2033   6.677  13.038   1.848
66732SOL     OW 2034   7.254   4.890   6.767
66732SOL    HW1 2035   7.208   4.940   6.699
66732SOL    HW2 2036   7.229   4.799   6.751
66733SOL     OW 2037  12.342   1.180  11.079
66733SOL    HW1 2038  12.379   1.101  11.040
66733SOL    HW2 2039  12.249   1.162  11.087
66734SOL     OW 2040   3.295   4.326   8.044
66734SOL    HW1 2041   3.352   4.382   8.097
66734SOL    HW2 2042   3.354   4.263   8.003
66735SOL     OW 2043   1.326   1.204   9.276
66735SOL    HW1 2044   1.280   1.283   9.305
66735SOL    HW2 2045   1.370   1.230   9.196
66736SOL     OW 2046   8.997   6.684   4.781
66736SOL    HW1 2047   8.987   6.777   4.762
66736SOL    HW2 2048   8.963   6.640   4.703
66737SOL     OW 2049  14.617  12.940   1.180
66737SOL    HW1 2050  14.699  12.894   1.200
66737SOL    HW2 2051  14.624  12.963   1.087
66738SOL     OW 2052   8.743  10.806   6.044
66738SOL    HW1 2053   8.792  10.774   6.119
66738SOL    HW2 2054   8.810  10.827   5.978
66739SOL     OW 2055   7.238  11.142   8.669
66739SOL    HW1 2056   7.289  11.223   8.665
66739SOL    HW2 2057   7.227  11.117   8.577
66740SOL     OW 2058   3.964  11.583   2.279
66740SOL    HW1 2059   3.893  11.545   2.331
66740SOL    HW2 2060   3.975  11.671   2.315
66741SOL     OW 2061   6.414   2.710   7.156
66741SOL    HW1 2062   6.484   2.677   7.100
66741SOL    HW2 2063   6.334   2.695   7.104
66742SOL     OW 2064   6.140   3.394   6.468
66742SOL    HW1 2065   6.216   3.394   6.411
66742SOL    HW2 2066   6.176   3.411   6.556
66743SOL     OW 2067   3.254   3.759   4.149
66743SOL    HW1 2068   3.261   3.695   4.078
66743SOL    HW2 2069   3.181   3.816   4.123
66744SOL     OW 2070   0.623   8.944  14.449
66744SOL    HW1 2071   0.554   9.009  14.461
66744SOL    HW2 2072   0.699   8.995  14.422
66745SOL     OW 2073   3.031   5.960   3.796
66745SOL    HW1 2074   3.081   5.945   3.877
66745SOL    HW2 2075   2.958   6.016   3.824
66746SOL     OW 2076  14.005   6.302  14.666
66746SOL    HW1 2077  14.036   6.377  14.716
66746SOL    HW2 2078  13.919   6.283  14.702
66747SOL     OW 2079   1.413   4.309  10.730
66747SOL    HW1 2080   1.387   4.255  10.804
66747SOL    HW2 2081   1.492   4.267  10.696
66748SOL     OW 2082  14.449   1.799   9.766
66748SOL    HW1 2083  14.435   1.885   9.726
66748SOL    HW2 2084  14.534   1.806   9.810
66749SOL     OW 2085   3.714   3.108  14.484
66749SOL    HW1 2086   3.706   3.019  14.520
66749SOL    HW2 2087   3.624   3.140  14.480
66750SOL     OW 2088  13.966   3.818  14.636
66750SOL    HW1 2089  13.924   3.733  14.624
66750SOL    HW2 2090  13.905   3.881  14.598
66751SOL     OW 2091   8.666   3.447  11.664
66751SOL    HW1 2092   8.730   3.375  11.660
66751SOL    HW2 2093   8.595   3.413  11.717
66752SOL     OW 2094   8.570  10.512  14.856
66752SOL    HW1 2095   8.548  10.605  14.853
66752SOL    HW2 2096   8.555  10.482  14.766
66753SOL     OW 2097   8.877  13.726   9.549
66753SOL    HW1 2098   8.825  13.805   9.562
66753SOL    HW2 2099   8.816  13.654   9.559
66754SOL     OW 2100   6.651   7.481   3.344
66754SOL    HW1 2101   6.734   7.485   3.297
66754SOL    HW2 2102   6.666   7.530   3.425
66755SOL     OW 2103   0.502   8.934   8.771
66755SOL    HW1 2104   0.464   9.019   8.791
66755SOL    HW2 2105   0.498   8.885   8.853
66756SOL     OW 2106   0.337   7.546   1.942
66756SOL    HW1 2107   0.426   7.557   1.908
66756SOL    HW2 2108   0.300   7.635   1.940
66757SOL     OW 2109   6.703   5.232   5.517
66757SOL    HW1 2110   6.732   5.186   5.438
66757SOL    HW2 2111   6.719   5.170   5.588
66758SOL     OW 2112   1.799  12.695  11.913
66758SOL    HW1 2113   1.825  12.727  11.999
66758SOL    HW2 2114   1.818  12.768  11.853
66759SOL     OW 2115  11.638   3.066  13.717
66759SOL    HW1 2116  11.710   3.085  13.657
66759SOL    HW2 2117  11.640   3.138  13.780
66760SOL     OW 2118   8.507  12.007   5.204
66760SOL    HW1 2119   8.501  12.103   5.208
66760SOL    HW2 2120   8.550  11.982   5.286
66761SOL     OW 2121   5.550   3.108   3.257
66761SOL    HW1 2122   5.512   3.053   3.325
66761SOL    HW2 2123   5.475   3.147   3.213
66762SOL     OW 2124  13.058  13.148   7.022
66762SOL    HW1 2125  13.032  13.112   7.107
66762SOL    HW2 2126  13.034  13.241   7.027
66763SOL     OW 2127   2.173  12.926   4.386
66763SOL    HW1 2128   2.168  12.831   4.400
66763SOL    HW2 2129   2.208  12.960   4.469
66764SOL     OW 2130   1.143  10.471  13.659
66764SOL    HW1 2131   1.165  10.531  13.588
66764SOL    HW2 2132   1.211  10.404  13.655
66765SOL     OW 2133  14.839   7.938  11.045
66765SOL    HW1 2134   0.031   7.926  11.113
66765SOL    HW2 2135  14.768   7.879  11.069
66766SOL     OW 2136  12.210   0.508   9.011
66766SOL    HW1 2137  12.251   0.552   8.936
66766SOL    HW2 2138  12.225   0.414   8.995
66767SOL     OW 2139  14.475   0.487  14.784
66767SOL    HW1 2140  14.458   0.481   0.004
66767SOL    HW2 2141  14.472   0.581  14.765
66768SOL     OW 2142  13.513  10.559  13.511
66768SOL    HW1 2143  13.603  10.530  13.525
66768SOL    HW2 2144  13.505  10.637  13.566
66769SOL     OW 2145  13.430   0.593   2.937
66769SOL    HW1 2146  13.377   0.666   2.969
66769SOL    HW2 2147  13.467   0.554   3.016
66770SOL     OW 2148   5.036  12.782   4.082
66770SOL    HW1 2149   4.969  12.805   4.146
66770SOL    HW2 2150   5.117  12.777   4.132
66771SOL     OW 2151   7.114   4.485  10.212
66771SOL    HW1 2152   7.209   4.494  10.204
66771SOL    HW2 2153   7.102   4.398  10.249
66772SOL     OW 2154  10.666   2.700  13.493
66772SOL    HW1 2155  10.734   2.697  13.560
66772SOL    HW2 2156  10.647   2.608  13.474
66773SOL     OW 2157   4.059  14.728   9.964
66773SOL    HW1 2158   4.147  14.765   9.964
66773SOL    HW2 2159   4.002  14.802   9.943
66774SOL     OW 2160   4.995   3.863   5.606
66774SOL    HW1 2161   5.050   3.794   5.568
66774SOL    HW2 2162   5.049   3.942   5.601
66775SOL     OW 2163   1.173  11.433  11.303
66775SOL    HW1 2164   1.103  11.498  11.309
66775SOL    HW2 2165   1.237  11.472  11.243
66776SOL     OW 2166   8.424   7.933   9.612
66776SOL    HW1 2167   8.487   7.898   9.551
66776SOL    HW2 2168   8.428   8.028   9.599
66777SOL     OW 2169   8.029  11.205  13.236
66777SOL    HW1 2170   8.060  11.134  13.179
66777SOL    HW2 2171   7.981  11.160  13.305
66778SOL     OW 2172   2.858   4.434   7.632
66778SOL    HW1 2173   2.849   4.439   7.537
66778SOL    HW2 2174   2.800   4.362   7.658
66779SOL     OW 2175   6.461   5.190  14.847
66779SOL    HW1 2176   6.382   5.148   0.005
66779SOL    HW2 2177   6.481   5.258   0.037
66780SOL     OW 2178   4.533   2.036   9.174
66780SOL    HW1 2179   4.611   1.987   9.147
66780SOL    HW2 2180   4.565   2.098   9.239
66781SOL     OW 2181   8.550   3.181   9.928
66781SOL    HW1 2182   8.639   3.200   9.957
66781SOL    HW2 2183   8.498   3.181  10.009
66782SOL     OW 2184   2.380  12.443  12.289
66782SOL    HW1 2185   2.445  12.489  12.342
66782SOL    HW2 2186   2.299  12.493  12.301
66783SOL     OW 2187   6.249   7.672   1.887
66783SOL    HW1 2188   6.286   7.584   1.888
66783SOL    HW2 2189   6.193   7.675   1.964
66784SOL     OW 2190   7.776  12.111  13.978
66784SOL    HW1 2191   7.792  12.146  13.890
66784SOL    HW2 2192   7.753  12.188  14.031
66785SOL     OW 2193   0.040  14.062   8.001
66785SOL    HW1 2194  14.863  14.143   7.994
66785SOL    HW2 2195  14.856  13.995   7.966
66786SOL     OW 2196   6.957   6.951  12.602
66786SOL    HW1 2197   6.869   6.928  12.571
66786SOL    HW2 2198   6.942   7.020  12.667
66787SOL     OW 2199  13.299  10.776   1.620
66787SOL    HW1 2200  13.333  10.763   1.532
66787SOL    HW2 2201  13.204  10.784   1.610
66788SOL     OW 2202  14.821  11.199   7.386
66788SOL    HW1 2203  14.761  11.217   7.459
66788SOL    HW2 2204  14.771  11.141   7.329
66789SOL     OW 2205   5.198  11.967  13.492
66789SOL    HW1 2206   5.207  12.059  13.516
66789SOL    HW2 2207   5.287  11.932  13.500
66790SOL     OW 2208   3.287   8.708   1.934
66790SOL    HW1 2209   3.243   8.695   1.850
66790SOL    HW2 2210   3.375   8.674   1.921
66791SOL     OW 2211  14.196  10.671   9.351
66791SOL    HW1 2212  14.204  10.766   9.360
66791SOL    HW2 2213  14.209  10.655   9.258
66792SOL     OW 2214   9.853   2.268  10.801
66792SOL    HW1 2215   9.902   2.234  10.727
66792SOL    HW2 2216   9.788   2.327  10.763
66793SOL     OW 2217   9.592   9.290  14.174
66793SOL    HW1 2218   9.641   9.311  14.253
66793SOL    HW2 2219   9.657   9.290  14.104
66794SOL     OW 2220   7.274   5.627  11.273
66794SOL    HW1 2221   7.323   5.631  11.191
66794SOL    HW2 2222   7.183   5.618  11.247
66795SOL     OW 2223  13.167   4.585   5.240
66795SOL    HW1 2224  13.193   4.650   5.304
66795SOL    HW2 2225  13.242   4.580   5.180
66796SOL     OW 2226   2.156   2.792  12.364
66796SOL    HW1 2227   2.209   2.716  12.340
66796SOL    HW2 2228   2.078   2.785  12.309
66797SOL     OW 2229   8.770  14.158   1.639
66797SOL    HW1 2230   8.772  14.076   1.687
66797SOL    HW2 2231   8.688  14.155   1.589
66798SOL     OW 2232   1.722   1.755  10.525
66798SOL    HW1 2233   1.648   1.707  10.486
66798SOL    HW2 2234   1.746   1.820  10.459
66799SOL     OW 2235   2.637   2.747  14.362
66799SOL    HW1 2236   2.699   2.788  14.302
66799SOL    HW2 2237   2.688   2.680  14.407
66800SOL     OW 2238   0.837   3.521   2.437
66800SOL    HW1 2239   0.789   3.497   2.358
66800SOL    HW2 2240   0.862   3.438   2.476
66801SOL     OW 2241  11.291   8.643  10.221
66801SOL    HW1 2242  11.320   8.626  10.131
66801SOL    HW2 2243  11.254   8.731  10.218
66802SOL     OW 2244   2.712   5.434   9.027
66802SOL    HW1 2245   2.778   5.414   8.961
66802SOL    HW2 2246   2.699   5.529   9.021
66803SOL     OW 2247  11.447   3.329   6.291
66803SOL    HW1 2248  11.540   3.350   6.289
66803SOL    HW2 2249  11.432   3.278   6.211
66804SOL     OW 2250   4.325   8.373   7.976
66804SOL    HW1 2251   4.379   8.355   8.053
66804SOL    HW2 2252   4.375   8.337   7.903
66805SOL     OW 2253   4.719   6.655   2.501
66805SOL    HW1 2254   4.739   6.627   2.590
66805SOL    HW2 2255   4.635   6.613   2.480
66806SOL     OW 2256   7.630  11.497   1.936
66806SOL    HW1 2257   7.643  11.585   1.971
66806SOL    HW2 2258   7.701  11.485   1.874
66807SOL     OW 2259   8.588   6.451   7.681
66807SOL    HW1 2260   8.513   6.422   7.732
66807SOL    HW2 2261   8.568   6.541   7.657
66808SOL     OW 2262   1.831   6.376  13.552
66808SOL    HW1 2263   1.834   6.464  13.588
66808SOL    HW2 2264   1.914   6.367  13.504
66809SOL     OW 2265  12.979   2.803  14.037
66809SOL    HW1 2266  12.965   2.845  14.121
66809SOL    HW2 2267  13.067   2.764  14.044
66810SOL     OW 2268  10.011  10.599  14.290
66810SOL    HW1 2269  10.092  10.555  14.317
66810SOL    HW2 2270   9.958  10.601  14.370
66811SOL     OW 2271   7.664   5.838   4.057
66811SOL    HW1 2272   7.671   5.911   3.996
66811SOL    HW2 2273   7.570   5.821   4.064
66812SOL     OW 2274   0.880   1.577   1.042
66812SOL    HW1 2275   0.854   1.578   1.134
66812SOL    HW2 2276   0.885   1.484   1.020
66813SOL     OW 2277   8.516   1.625   9.322
66813SOL    HW1 2278   8.431   1.604   9.361
66813SOL    HW2 2279   8.577   1.564   9.363
66814SOL     OW 2280   0.783   9.079  11.029
66814SOL    HW1 2281   0.827   9.137  10.967
66814SOL    HW2 2282   0.691   9.107  11.025
66815SOL     OW 2283  14.578  14.480   4.384
66815SOL    HW1 2284  14.672  14.476   4.402
66815SOL    HW2 2285  14.536  14.451   4.465
66816SOL     OW 2286   1.391   9.826  14.674
66816SOL    HW1 2287   1.446   9.773  14.616
66816SOL    HW2 2288   1.415   9.916  14.655
66817SOL     OW 2289  13.371   5.862  10.855
66817SOL    HW1 2290  13.308   5.790  10.848
66817SOL    HW2 2291  13.317   5.939  10.873
66818SOL     OW 2292   9.687   2.032  10.936
66818SOL    HW1 2293   9.767   2.084  10.944
66818SOL    HW2 2294   9.619   2.087  10.975
66819SOL     OW 2295   4.722  13.849  11.060
66819SOL    HW1 2296   4.772  13.896  10.993
66819SOL    HW2 2297   4.707  13.913  11.129
66820SOL     OW 2298   8.378   3.754  13.786
66820SOL    HW1 2299   8.300   3.704  13.762
66820SOL    HW2 2300   8.349   3.808  13.860
66821SOL     OW 2301   6.921  11.863  10.503
66821SOL    HW1 2302   6.911  11.955  10.480
66821SOL    HW2 2303   6.854  11.847  10.570
66822SOL     OW 2304   4.344   5.232   6.350
66822SOL    HW1 2305   4.274   5.292   6.379
66822SOL    HW2 2306   4.317   5.146   6.384
66823SOL     OW 2307   5.301   5.509   3.004
66823SOL    HW1 2308   5.375   5.450   3.023
66823SOL    HW2 2309   5.274   5.542   3.089
66824SOL     OW 2310  12.235   4.239   1.178
66824SOL    HW1 2311  12.327   4.213   1.185
66824SOL    HW2 2312  12.238   4.324   1.134
66825SOL     OW 2313  12.592   1.964   8.555
66825SOL    HW1 2314  12.649   1.941   8.481
66825SOL    HW2 2315  12.646   2.021   8.610
66826SOL     OW 2316  14.552  12.763  11.298
66826SOL    HW1 2317  14.506  12.812  11.230
66826SOL    HW2 2318  14.633  12.735  11.256
66827SOL     OW 2319   9.626   8.635  13.702
66827SOL    HW1 2320   9.644   8.687  13.780
66827SOL    HW2 2321   9.688   8.562  13.706
66828SOL     OW 2322  12.069  12.866   8.002
66828SOL    HW1 2323  12.162  12.842   8.005
66828SOL    HW2 2324  12.052  12.884   7.910
66829SOL     OW 2325  11.877   9.178  12.837
66829SOL    HW1 2326  11.894   9.271  12.821
66829SOL    HW2 2327  11.932   9.156  12.912
66830SOL     OW 2328  13.578   9.843  14.653
66830SOL    HW1 2329  13.583   9.748  14.662
66830SOL    HW2 2330  13.510   9.869  14.715
66831SOL     OW 2331   8.397   5.060   1.317
66831SOL    HW1 2332   8.314   5.106   1.321
66831SOL    HW2 2333   8.420   5.044   1.409
66832SOL     OW 2334   1.745   2.335  14.667
66832SOL    HW1 2335   1.788   2.283  14.598
66832SOL    HW2 2336   1.677   2.277  14.701
66833SOL     OW 2337   8.781   1.869  11.651
66833SOL    HW1 2338   8.861   1.905  11.612
66833SOL    HW2 2339   8.730   1.838  11.576
66834SOL     OW 2340   8.294   3.653   0.851
66834SOL    HW1 2341   8.232   3.586   0.820
66834SOL    HW2 2342   8.239   3.715   0.900
66835SOL     OW 2343   0.518  12.609  10.390
66835SOL    HW1 2344   0.480  12.641  10.308
66835SOL    HW2 2345   0.596  12.560  10.363
66836SOL     OW 2346  11.621   8.857   3.072
66836SOL    HW1 2347  11.544   8.820   3.029
66836SOL    HW2 2348  11.596   8.946   3.095
66837SOL     OW 2349   5.527   9.031   9.810
66837SOL    HW1 2350   5.527   9.101   9.746
66837SOL    HW2 2351   5.437   9.000   9.813
66838SOL     OW 2352   4.221  12.352   7.165
66838SOL    HW1 2353   4.213  12.258   7.148
66838SOL    HW2 2354   4.174  12.394   7.093
66839SOL     OW 2355   0.853   7.336   1.467
66839SOL    HW1 2356   0.930   7.382   1.434
66839SOL    HW2 2357   0.868   7.327   1.561
66840SOL     OW 2358   4.177   5.768   1.043
66840SOL    HW1 2359   4.137   5.850   1.011
66840SOL    HW2 2360   4.208   5.790   1.131
66841SOL     OW 2361   6.753   5.072  14.566
66841SOL    HW1 2362   6.766   5.123  14.487
66841SOL    HW2 2363   6.752   4.981  14.537
66842SOL     OW 2364   5.951   4.906   0.942
66842SOL    HW1 2365   6.041   4.938   0.949
66842SOL    HW2 2366   5.916   4.951   0.865
66843SOL     OW 2367  14.212  12.116  12.735
66843SOL    HW1 2368  14.253  12.178  12.674
66843SOL    HW2 2369  14.121  12.146  12.742
66844SOL     OW 2370   5.549   7.824   5.284
66844SOL    HW1 2371   5.607   7.764   5.332
66844SOL    HW2 2372   5.477   7.841   5.345
66845SOL     OW 2373  11.390  14.819   0.853
66845SOL    HW1 2374  11.478  14.783   0.866
66845SOL    HW2 2375  11.340  14.786   0.928
66846SOL     OW 2376   8.524  11.269   8.852
66846SOL    HW1 2377   8.533  11.355   8.811
66846SOL    HW2 2378   8.608  11.225   8.833
66847SOL     OW 2379   8.137  11.518  12.522
66847SOL    HW1 2380   8.164  11.453  12.458
66847SOL    HW2 2381   8.094  11.468  12.592
66848SOL     OW 2382   5.530   2.752   0.828
66848SOL    HW1 2383   5.582   2.833   0.828
66848SOL    HW2 2384   5.488   2.751   0.742
66849SOL     OW 2385   3.753  14.036  12.406
66849SOL    HW1 2386   3.717  14.121  12.377
66849SOL    HW2 2387   3.807  14.007  12.333
66850SOL     OW 2388   8.767   4.913  11.371
66850SOL    HW1 2389   8.820   4.917  11.450
66850SOL    HW2 2390   8.743   4.821  11.363
66851SOL     OW 2391   9.151   4.986   8.142
66851SOL    HW1 2392   9.175   4.940   8.061
66851SOL    HW2 2393   9.083   4.931   8.181
66852SOL     OW 2394   5.659  11.158   5.128
66852SOL    HW1 2395   5.577  11.154   5.079
66852SOL    HW2 2396   5.635  11.130   5.217
66853SOL     OW 2397  11.022  13.569  12.516
66853SOL    HW1 2398  11.011  13.541  12.426
66853SOL    HW2 2399  10.980  13.655  12.521
66854SOL     OW 2400  13.655   3.298   7.788
66854SOL    HW1 2401  13.650   3.386   7.751
66854SOL    HW2 2402  13.734   3.260   7.751
66855SOL     OW 2403   3.474   4.063  14.138
66855SOL    HW1 2404   3.499   4.144  14.182
66855SOL    HW2 2405   3.430   4.092  14.058
66856SOL     OW 2406  11.976   4.494   1.540
66856SOL    HW1 2407  11.975   4.407   1.499
66856SOL    HW2 2408  11.965   4.554   1.467
66857SOL     OW 2409   0.182   4.772  14.227
66857SOL    HW1 2410   0.229   4.787  14.145
66857SOL    HW2 2411   0.090   4.788  14.206
66858SOL     OW 2412   8.200   1.277  12.243
66858SOL    HW1 2413   8.207   1.188  12.209
66858SOL    HW2 2414   8.251   1.275  12.325
66859SOL     OW 2415   4.645   0.967  13.374
66859SOL    HW1 2416   4.715   0.926  13.322
66859SOL    HW2 2417   4.686   0.985  13.459
66860SOL     OW 2418  12.335   0.138  14.709
66860SOL    HW1 2419  12.347   0.181  14.794
66860SOL    HW2 2420  12.408   0.168  14.656
66861SOL     OW 2421   1.861   0.072   7.812
66861SOL    HW1 2422   1.785   0.110   7.768
66861SOL    HW2 2423   1.914   0.147   7.837
66862SOL     OW 2424   8.194   1.549   2.976
66862SOL    HW1 2425   8.131   1.572   3.045
66862SOL    HW2 2426   8.270   1.604   2.994
66863SOL     OW 2427  13.771   5.836   9.162
66863SOL    HW1 2428  13.784   5.925   9.128
66863SOL    HW2 2429  13.850   5.819   9.214
66864SOL     OW 2430   5.603   1.327   7.024
66864SOL    HW1 2431   5.561   1.411   7.040
66864SOL    HW2 2432   5.532   1.263   7.030
66865SOL     OW 2433   2.265  14.254   4.726
66865SOL    HW1 2434   2.256  14.160   4.707
66865SOL    HW2 2435   2.175  14.285   4.737
66866SOL     OW 2436   3.310  10.883  14.334
66866SOL    HW1 2437   3.307  10.963  14.386
66866SOL    HW2 2438   3.252  10.900  14.259
66867SOL     OW 2439  10.241   6.464  12.666
66867SOL    HW1 2440  10.210   6.479  12.577
66867SOL    HW2 2441  10.210   6.376  12.688
66868SOL     OW 2442   6.848   9.108  11.331
66868SOL    HW1 2443   6.933   9.069  11.349
66868SOL    HW2 2444   6.785   9.049  11.373
66869SOL     OW 2445   3.792  11.883   4.571
66869SOL    HW1 2446   3.771  11.796   4.605
66869SOL    HW2 2447   3.802  11.870   4.477
66870SOL     OW 2448   1.233   4.513  13.083
66870SOL    HW1 2449   1.208   4.541  13.171
66870SOL    HW2 2450   1.156   4.533  13.029
66871SOL     OW 2451   8.916   5.771   9.360
66871SOL    HW1 2452   8.957   5.698   9.406
66871SOL    HW2 2453   8.985   5.806   9.304
66872SOL     OW 2454  12.324   6.052  14.489
66872SOL    HW1 2455  12.252   6.100  14.449
66872SOL    HW2 2456  12.394   6.055  14.423
66873SOL     OW 2457  11.628  13.154   3.937
66873SOL    HW1 2458  11.659  13.166   3.847
66873SOL    HW2 2459  11.656  13.066   3.961
66874SOL     OW 2460   3.900   6.385  13.136
66874SOL    HW1 2461   3.988   6.359  13.110
66874SOL    HW2 2462   3.898   6.480  13.124
66875SOL     OW 2463   9.680   0.498   4.434
66875SOL    HW1 2464   9.642   0.468   4.516
66875SOL    HW2 2465   9.699   0.590   4.448
66876SOL     OW 2466   5.909   4.518  13.095
66876SOL    HW1 2467   5.923   4.585  13.162
66876SOL    HW2 2468   5.847   4.557  13.034
66877SOL     OW 2469   9.739   6.492   1.401
66877SOL    HW1 2470   9.733   6.420   1.337
66877SOL    HW2 2471   9.723   6.450   1.485
66878SOL     OW 2472   9.375   6.888   4.293
66878SOL    HW1 2473   9.436   6.843   4.236
66878SOL    HW2 2474   9.375   6.979   4.262
66879SOL     OW 2475   1.514   5.959   6.420
66879SOL    HW1 2476   1.582   5.957   6.487
66879SOL    HW2 2477   1.524   6.045   6.379
66880SOL     OW 2478   9.141  13.204  12.653
66880SOL    HW1 2479   9.207  13.244  12.596
66880SOL    HW2 2480   9.188  13.133  12.698
66881SOL     OW 2481  12.993  11.098  12.758
66881SOL    HW1 2482  12.900  11.087  12.778
66881SOL    HW2 2483  12.994  11.144  12.674
66882SOL     OW 2484   1.017  12.026  12.224
66882SOL    HW1 2485   0.953  12.086  12.186
66882SOL    HW2 2486   1.030  12.057  12.313
66883SOL     OW 2487  13.272   0.045  13.749
66883SOL    HW1 2488  13.269   0.133  13.710
66883SOL    HW2 2489  13.365   0.021  13.746
66884SOL     OW 2490   6.230   2.626   2.141
66884SOL    HW1 2491   6.204   2.541   2.176
66884SOL    HW2 2492   6.272   2.606   2.057
66885SOL     OW 2493   1.668   5.702   1.994
66885SOL    HW1 2494   1.656   5.761   2.069
66885SOL    HW2 2495   1.763   5.688   1.990
66886SOL     OW 2496   3.271  14.447   9.047
66886SOL    HW1 2497   3.224  14.530   9.058
66886SOL    HW2 2498   3.363  14.472   9.038
66887SOL     OW 2499  14.684   1.156   8.548
66887SOL    HW1 2500  14.742   1.201   8.487
66887SOL    HW2 2501  14.656   1.077   8.501
66888SOL     OW 2502   4.847   4.276   8.291
66888SOL    HW1 2503   4.910   4.346   8.275
66888SOL    HW2 2504   4.765   4.321   8.310
66889SOL     OW 2505   9.722  13.784   4.203
66889SOL    HW1 2506   9.685  13.872   4.208
66889SOL    HW2 2507   9.801  13.787   4.257
66890SOL     OW 2508   4.668   3.397  14.724
66890SOL    HW1 2509   4.713   3.321  14.689
66890SOL    HW2 2510   4.675   3.463  14.655
66891SOL     OW 2511   8.740   6.330   0.327
66891SOL    HW1 2512   8.793   6.258   0.293
66891SOL    HW2 2513   8.655   6.291   0.346
66892SOL     OW 2514   5.773   1.646   0.761
66892SOL    HW1 2515   5.823   1.706   0.815
66892SOL    HW2 2516   5.819   1.562   0.769
66893SOL     OW 2517   2.224  11.384  14.434
66893SOL    HW1 2518   2.194  11.431  14.512
66893SOL    HW2 2519   2.297  11.331  14.465
66894SOL     OW 2520  11.473   6.342   3.362
66894SOL    HW1 2521  11.533   6.273   3.333
66894SOL    HW2 2522  11.525   6.395   3.423
66895SOL     OW 2523   6.987   3.520  11.952
66895SOL    HW1 2524   6.967   3.553  12.039
66895SOL    HW2 2525   6.939   3.577  11.893
66896SOL     OW 2526   8.699   3.245   1.403
66896SOL    HW1 2527   8.631   3.308   1.429
66896SOL    HW2 2528   8.742   3.221   1.485
66897SOL     OW 2529  13.387  11.758  14.728
66897SOL    HW1 2530  13.443  11.824  14.770
66897SOL    HW2 2531  13.423  11.748  14.640
66898SOL     OW 2532   3.413   0.798   3.792
66898SOL    HW1 2533   3.339   0.769   3.738
66898SOL    HW2 2534   3.473   0.724   3.793
66899SOL     OW 2535  10.607   7.280   7.025
66899SOL    HW1 2536  10.640   7.199   7.063
66899SOL    HW2 2537  10.518   7.288   7.060
66900SOL     OW 2538  10.725   3.751  10.094
66900SOL    HW1 2539  10.779   3.748  10.015
66900SOL    HW2 2540  10.782   3.792  10.159
66901SOL     OW 2541  14.118   0.977   4.390
66901SOL    HW1 2542  14.175   0.910   4.428
66901SOL    HW2 2543  14.130   1.053   4.447
66902SOL     OW 2544  13.765   7.132   7.872
66902SOL    HW1 2545  13.833   7.141   7.805
66902SOL    HW2 2546  13.692   7.185   7.839
66903SOL     OW 2547  13.680  11.520   7.724
66903SOL    HW1 2548  13.668  11.615   7.734
66903SOL    HW2 2549  13.773  11.506   7.741
66904SOL     OW 2550   9.164   7.972   6.748
66904SOL    HW1 2551   9.078   7.952   6.709
66904SOL    HW2 2552   9.144   8.010   6.833
66905SOL     OW 2553   1.008   1.334  11.657
66905SOL    HW1 2554   0.988   1.398  11.725
66905SOL    HW2 2555   0.968   1.253  11.687
66906SOL     OW 2556  13.602   6.021   2.165
66906SOL    HW1 2557  13.628   6.110   2.187
66906SOL    HW2 2558  13.538   6.030   2.094
66907SOL     OW 2559   1.818   4.701  10.420
66907SOL    HW1 2560   1.853   4.789  10.439
66907SOL    HW2 2561   1.747   4.690  10.484
66908SOL     OW 2562   8.669  11.666  13.620
66908SOL    HW1 2563   8.688  11.760  13.616
66908SOL    HW2 2564   8.753  11.624  13.601
66909SOL     OW 2565   5.037  11.982  10.690
66909SOL    HW1 2566   4.990  11.939  10.618
66909SOL    HW2 2567   4.989  12.064  10.704
66910SOL     OW 2568   0.080  13.970  11.629
66910SOL    HW1 2569   0.035  13.897  11.672
66910SOL    HW2 2570   0.024  13.992  11.555
66911SOL     OW 2571   0.673  13.350  11.469
66911SOL    HW1 2572   0.707  13.313  11.550
66911SOL    HW2 2573   0.588  13.308  11.457
66912SOL     OW 2574  14.411   0.106   0.409
66912SOL    HW1 2575  14.470   0.141   0.342
66912SOL    HW2 2576  14.347   0.054   0.361
66913SOL     OW 2577   8.527  13.083   5.999
66913SOL    HW1 2578   8.621  13.083   6.014
66913SOL    HW2 2579   8.492  13.147   6.061
66914SOL     OW 2580   8.202   7.700   4.064
66914SOL    HW1 2581   8.111   7.671   4.071
66914SOL    HW2 2582   8.243   7.673   4.146
66915SOL     OW 2583  12.852   7.190   8.646
66915SOL    HW1 2584  12.809   7.186   8.561
66915SOL    HW2 2585  12.868   7.283   8.661
66916SOL     OW 2586   6.259   3.814   9.106
66916SOL    HW1 2587   6.168   3.791   9.126
66916SOL    HW2 2588   6.255   3.852   9.018
66917SOL     OW 2589  10.513   9.644  14.686
66917SOL    HW1 2590  10.565   9.568  14.658
66917SOL    HW2 2591  10.436   9.643  14.628
66918SOL     OW 2592  11.573   8.377   9.215
66918SOL    HW1 2593  11.593   8.438   9.286
66918SOL    HW2 2594  11.655   8.329   9.202
66919SOL     OW 2595   2.158  11.290  14.190
66919SOL    HW1 2596   2.181  11.333  14.273
66919SOL    HW2 2597   2.223  11.220  14.181
66920SOL     OW 2598   8.328  11.116   6.697
66920SOL    HW1 2599   8.328  11.120   6.793
66920SOL    HW2 2600   8.375  11.035   6.677
66921SOL     OW 2601   0.245   7.617   0.531
66921SOL    HW1 2602   0.293   7.590   0.609
66921SOL    HW2 2603   0.263   7.548   0.466
66922SOL     OW 2604  10.005   3.694  11.484
66922SOL    HW1 2605  10.075   3.631  11.496
66922SOL    HW2 2606   9.965   3.702  11.571
66923SOL     OW 2607  10.837  12.978   4.337
66923SOL    HW1 2608  10.794  12.952   4.256
66923SOL    HW2 2609  10.899  13.047   4.311
66924SOL     OW 2610   3.179   7.398  13.995
66924SOL    HW1 2611   3.149   7.487  13.975
66924SOL    HW2 2612   3.170   7.392  14.091
66925SOL     OW 2613   2.856  13.950   6.195
66925SOL    HW1 2614   2.835  13.925   6.105
66925SOL    HW2 2615   2.905  13.875   6.230
66926SOL     OW 2616  12.390   4.981  13.926
66926SOL    HW1 2617  12.443   4.903  13.911
66926SOL    HW2 2618  12.401   4.999  14.020
66927SOL     OW 2619   9.763  11.103   4.088
66927SOL    HW1 2620   9.726  11.189   4.068
66927SOL    HW2 2621   9.702  11.064   4.150
66928SOL     OW 2622  12.632   9.772   2.018
66928SOL    HW1 2623  12.598   9.756   2.106
66928SOL    HW2 2624  12.652   9.685   1.984
66929SOL     OW 2625  11.215   1.834   9.491
66929SOL    HW1 2626  11.268   1.912   9.506
66929SOL    HW2 2627  11.140   1.865   9.439
66930SOL     OW 2628   6.268  12.517  10.030
66930SOL    HW1 2629   6.352  12.504   9.985
66930SOL    HW2 2630   6.274  12.605  10.067
66931SOL     OW 2631   5.828   9.665   0.763
66931SOL    HW1 2632   5.862   9.602   0.827
66931SOL    HW2 2633   5.748   9.699   0.803
66932SOL     OW 2634  12.888   1.916   1.914
66932SOL    HW1 2635  12.913   1.875   1.997
66932SOL    HW2 2636  12.890   1.845   1.850
66933SOL     OW 2637   8.799   8.552   6.050
66933SOL    HW1 2638   8.804   8.645   6.030
66933SOL    HW2 2639   8.835   8.509   5.972
66934SOL     OW 2640  10.202  11.673  13.046
66934SOL    HW1 2641  10.262  11.601  13.026
66934SOL    HW2 2642  10.116  11.641  13.016
66935SOL     OW 2643  13.729  14.856  11.714
66935SOL    HW1 2644  13.806   0.034  11.693
66935SOL    HW2 2645  13.730  14.784  11.650
66936SOL     OW 2646   9.293   8.826   4.921
66936SOL    HW1 2647   9.297   8.767   4.996
66936SOL    HW2 2648   9.382   8.859   4.911
66937SOL     OW 2649   8.298   1.973  13.155
66937SOL    HW1 2650   8.234   1.962  13.225
66937SOL    HW2 2651   8.298   1.889  13.109
66938SOL     OW 2652  11.619  14.127   6.788
66938SOL    HW1 2653  11.579  14.064   6.848
66938SOL    HW2 2654  11.680  14.076   6.736
66939SOL     OW 2655  11.980  11.330  11.393
66939SOL    HW1 2656  11.942  11.293  11.314
66939SOL    HW2 2657  11.924  11.299  11.464
66940SOL     OW 2658  14.126   9.070   7.042
66940SOL    HW1 2659  14.135   9.019   7.122
66940SOL    HW2 2660  14.039   9.048   7.009
66941SOL     OW 2661  12.734  14.769  14.519
66941SOL    HW1 2662  12.762  14.783  14.610
66941SOL    HW2 2663  12.813  14.787  14.467
66942SOL     OW 2664  13.598   7.158   4.363
66942SOL    HW1 2665  13.510   7.196   4.361
66942SOL    HW2 2666  13.656   7.231   4.339
66943SOL     OW 2667   4.642   1.089   5.158
66943SOL    HW1 2668   4.711   1.154   5.169
66943SOL    HW2 2669   4.625   1.056   5.246
66944SOL     OW 2670  10.611  11.083   9.833
66944SOL    HW1 2671  10.588  11.165   9.876
66944SOL    HW2 2672  10.564  11.085   9.751
66945SOL     OW 2673   6.969  11.298   9.037
66945SOL    HW1 2674   6.949  11.367   8.974
66945SOL    HW2 2675   7.056  11.320   9.071
66946SOL     OW 2676   5.856   6.622   6.749
66946SOL    HW1 2677   5.811   6.665   6.822
66946SOL    HW2 2678   5.922   6.685   6.721
66947SOL     OW 2679  12.175  10.842   6.656
66947SOL    HW1 2680  12.133  10.761   6.627
66947SOL    HW2 2681  12.195  10.828   6.748
66948SOL     OW 2682   4.281   1.151   5.408
66948SOL    HW1 2683   4.283   1.243   5.382
66948SOL    HW2 2684   4.372   1.124   5.409
66949SOL     OW 2685   4.921  10.725   2.599
66949SOL    HW1 2686   4.910  10.745   2.692
66949SOL    HW2 2687   4.966  10.801   2.563
66950SOL     OW 2688  12.577  14.333   9.960
66950SOL    HW1 2689  12.542  14.270   9.896
66950SOL    HW2 2690  12.633  14.391   9.908
66951SOL     OW 2691   6.521   1.278   5.743
66951SOL    HW1 2692   6.442   1.289   5.690
66951SOL    HW2 2693   6.496   1.212   5.808
66952SOL     OW 2694  14.414   9.977   1.576
66952SOL    HW1 2695  14.436   9.924   1.652
66952SOL    HW2 2696  14.403  10.066   1.611
66953SOL     OW 2697   3.858  10.297  13.268
66953SOL    HW1 2698   3.806  10.221  13.295
66953SOL    HW2 2699   3.792  10.360  13.236
66954SOL     OW 2700   4.019  11.229   7.595
66954SOL    HW1 2701   4.064  11.203   7.516
66954SOL    HW2 2702   4.087  11.268   7.650
66955SOL     OW 2703  12.652   5.388  11.875
66955SOL    HW1 2704  12.623   5.440  11.950
66955SOL    HW2 2705  12.696   5.451  11.817
66956SOL     OW 2706   6.591   8.054  14.749
66956SOL    HW1 2707   6.672   8.103  14.764
66956SOL    HW2 2708   6.610   7.966  14.780
66957SOL     OW 2709   5.225   6.009   7.506
66957SOL    HW1 2710   5.251   5.995   7.415
66957SOL    HW2 2711   5.130   6.024   7.501
66958SOL     OW 2712  12.265   7.048   7.581
66958SOL    HW1 2713  12.325   7.045   7.506
66958SOL    HW2 2714  12.231   7.137   7.580
66959SOL     OW 2715  14.322   1.488   9.160
66959SOL    HW1 2716  14.400   1.454   9.205
66959SOL    HW2 2717  14.271   1.410   9.138
66960SOL     OW 2718  11.600   2.143   3.467
66960SOL    HW1 2719  11.622   2.184   3.383
66960SOL    HW2 2720  11.668   2.078   3.480
66961SOL     OW 2721  10.981   7.163   4.719
66961SOL    HW1 2722  10.967   7.089   4.777
66961SOL    HW2 2723  10.950   7.133   4.633
66962SOL     OW 2724   0.980   8.293   5.138
66962SOL    HW1 2725   0.965   8.198   5.137
66962SOL    HW2 2726   1.066   8.303   5.181
66963SOL     OW 2727  12.382   4.494   2.085
66963SOL    HW1 2728  12.356   4.560   2.149
66963SOL    HW2 2729  12.336   4.415   2.113
66964SOL     OW 2730  13.750   4.301  14.735
66964SOL    HW1 2731  13.690   4.227  14.725
66964SOL    HW2 2732  13.749   4.321  14.828
66965SOL     OW 2733   0.079   0.413   2.277
66965SOL    HW1 2734  14.862   0.382   2.269
66965SOL    HW2 2735   0.126   0.339   2.315
66966SOL     OW 2736   0.843  13.834   7.230
66966SOL    HW1 2737   0.799  13.797   7.307
66966SOL    HW2 2738   0.852  13.927   7.251
66967SOL     OW 2739  12.389  13.683  12.893
66967SOL    HW1 2740  12.377  13.664  12.986
66967SOL    HW2 2741  12.469  13.637  12.868
66968SOL     OW 2742   0.968   8.499  12.463
66968SOL    HW1 2743   0.891   8.451  12.491
66968SOL    HW2 2744   0.989   8.462  12.377
66969SOL     OW 2745  14.118  11.964   5.398
66969SOL    HW1 2746  14.150  12.054   5.396
66969SOL    HW2 2747  14.165  11.924   5.471
66970SOL     OW 2748  11.971  13.657   6.886
66970SOL    HW1 2749  11.956  13.614   6.802
66970SOL    HW2 2750  12.053  13.620   6.919
66971SOL     OW 2751  10.806   4.826   8.210
66971SOL    HW1 2752  10.890   4.789   8.238
66971SOL    HW2 2753  10.825   4.919   8.193
66972SOL     OW 2754  10.406  14.354  14.473
66972SOL    HW1 2755  10.324  14.313  14.500
66972SOL    HW2 2756  10.462  14.347  14.551
66973SOL     OW 2757  12.981   9.580   8.137
66973SOL    HW1 2758  12.899   9.538   8.112
66973SOL    HW2 2759  13.049   9.525   8.097
66974SOL     OW 2760   9.599   9.026   8.202
66974SOL    HW1 2761   9.509   9.017   8.170
66974SOL    HW2 2762   9.600   8.980   8.286
66975SOL     OW 2763  14.263   0.192  13.751
66975SOL    HW1 2764  14.280   0.170  13.842
66975SOL    HW2 2765  14.185   0.247  13.753
66976SOL     OW 2766   5.989   2.264  11.809
66976SOL    HW1 2767   6.047   2.320  11.757
66976SOL    HW2 2768   5.920   2.239  11.748
66977SOL     OW 2769  11.349   3.767  13.859
66977SOL    HW1 2770  11.387   3.709  13.925
66977SOL    HW2 2771  11.424   3.797  13.808
66978SOL     OW 2772  13.049   0.373   5.191
66978SOL    HW1 2773  12.991   0.394   5.264
66978SOL    HW2 2774  13.089   0.290   5.215
66979SOL     OW 2775   7.642   3.530  11.240
66979SOL    HW1 2776   7.669   3.489  11.158
66979SOL    HW2 2777   7.722   3.531  11.293
66980SOL     OW 2778   1.073   2.218  13.826
66980SOL    HW1 2779   1.142   2.156  13.847
66980SOL    HW2 2780   1.015   2.171  13.765
66981SOL     OW 2781   6.277   6.885   9.582
66981SOL    HW1 2782   6.348   6.930   9.626
66981SOL    HW2 2783   6.204   6.887   9.645
66982SOL     OW 2784   3.765   7.791   8.891
66982SOL    HW1 2785   3.846   7.841   8.900
66982SOL    HW2 2786   3.753   7.747   8.975
66983SOL     OW 2787   4.327   7.892  13.760
66983SOL    HW1 2788   4.350   7.852  13.844
66983SOL    HW2 2789   4.407   7.885  13.708
66984SOL     OW 2790  10.396   5.191   1.550
66984SOL    HW1 2791  10.397   5.278   1.512
66984SOL    HW2 2792  10.367   5.134   1.479
66985SOL     OW 2793   9.330   0.950  13.111
66985SOL    HW1 2794   9.338   0.890  13.185
66985SOL    HW2 2795   9.250   0.999  13.128
66986SOL     OW 2796   3.429  12.573  10.446
66986SOL    HW1 2797   3.371  12.625  10.390
66986SOL    HW2 2798   3.443  12.627  10.524
66987SOL     OW 2799   4.088   2.080  12.849
66987SOL    HW1 2800   4.180   2.104  12.863
66987SOL    HW2 2801   4.073   2.008  12.910
66988SOL     OW 2802   1.559  14.510  10.523
66988SOL    HW1 2803   1.508  14.442  10.565
66988SOL    HW2 2804   1.586  14.472  10.439
66989SOL     OW 2805  14.538   1.136  10.050
66989SOL    HW1 2806  14.562   1.186  10.128
66989SOL    HW2 2807  14.619   1.131   9.999
66990SOL     OW 2808   2.759   0.156   7.565
66990SOL    HW1 2809   2.765   0.117   7.477
66990SOL    HW2 2810   2.670   0.135   7.594
66991SOL     OW 2811   0.083  11.691  12.779
66991SOL    HW1 2812   0.022  11.757  12.745
66991SOL    HW2 2813   0.148  11.680  12.710
66992SOL     OW 2814  11.085  12.898  12.569
66992SOL    HW1 2815  11.116  12.879  12.480
66992SOL    HW2 2816  10.997  12.862  12.572
66993SOL     OW 2817  10.849   2.197   0.746
66993SOL    HW1 2818  10.891   2.170   0.828
66993SOL    HW2 2819  10.808   2.117   0.713
66994SOL     OW 2820   7.355   3.880  13.739
66994SOL    HW1 2821   7.396   3.893  13.825
66994SOL    HW2 2822   7.428   3.889  13.677
66995SOL     OW 2823   9.809   9.182  14.740
66995SOL    HW1 2824   9.759   9.102  14.757
66995SOL    HW2 2825   9.817   9.185  14.645
66996SOL     OW 2826   2.463  12.442   9.300
66996SOL    HW1 2827   2.446  12.352   9.328
66996SOL    HW2 2828   2.552  12.440   9.265
66997SOL     OW 2829   1.014   6.199  14.058
66997SOL    HW1 2830   1.043   6.154  14.138
66997SOL    HW2 2831   0.962   6.272  14.090
66998SOL     OW 2832   3.178   4.096   0.677
66998SOL    HW1 2833   3.176   4.024   0.740
66998SOL    HW2 2834   3.233   4.065   0.606
66999SOL     OW 2835  12.827   2.778   3.327
66999SOL    HW1 2836  12.810   2.734   3.244
66999SOL    HW2 2837  12.837   2.706   3.390
67000SOL     OW 2838  12.126   3.254  13.009
67000SOL    HW1 2839  12.097   3.301  13.088
67000SOL    HW2 2840  12.185   3.187  13.042
67001SOL     OW 2841   3.771   7.108  14.185
67001SOL    HW1 2842   3.809   7.080  14.102
67001SOL    HW2 2843   3.813   7.193  14.202
67002SOL     OW 2844   5.300   3.172   2.631
67002SOL    HW1 2845   5.308   3.090   2.583
67002SOL    HW2 2846   5.217   3.165   2.677
67003SOL     OW 2847   0.752   4.163  14.156
67003SOL    HW1 2848   0.843   4.136  14.144
67003SOL    HW2 2849   0.705   4.125  14.082
67004SOL     OW 2850   7.435  13.588   3.182
67004SOL    HW1 2851   7.502  13.601   3.115
67004SOL    HW2 2852   7.463  13.643   3.255
67005SOL     OW 2853   8.021   1.396  14.586
67005SOL    HW1 2854   8.084   1.379  14.656
67005SOL    HW2 2855   7.942   1.348  14.612
67006SOL     OW 2856   9.954   8.390   5.535
67006SOL    HW1 2857  10.021   8.447   5.574
67006SOL    HW2 2858   9.904   8.357   5.610
67007SOL     OW 2859   4.556   0.479  11.691
67007SOL    HW1 2860   4.651   0.472  11.682
67007SOL    HW2 2861   4.526   0.389  11.704
67008SOL     OW 2862   1.834  12.662   6.993
67008SOL    HW1 2863   1.901  12.649   7.061
67008SOL    HW2 2864   1.788  12.741   7.020
67009SOL     OW 2865   7.093   4.642   0.519
67009SOL    HW1 2866   7.177   4.676   0.550
67009SOL    HW2 2867   7.031   4.714   0.534
67010SOL     OW 2868  10.291   6.712  13.024
67010SOL    HW1 2869  10.279   6.707  13.119
67010SOL    HW2 2870  10.213   6.758  12.993
67011SOL     OW 2871   7.344  10.499   0.850
67011SOL    HW1 2872   7.379  10.411   0.836
67011SOL    HW2 2873   7.397  10.534   0.922
67012SOL     OW 2874   7.805   0.322   9.578
67012SOL    HW1 2875   7.728   0.268   9.562
67012SOL    HW2 2876   7.876   0.277   9.532
67013SOL     OW 2877   6.419   5.286  12.895
67013SOL    HW1 2878   6.354   5.218  12.880
67013SOL    HW2 2879   6.433   5.285  12.990
67014SOL     OW 2880   0.362   5.062   9.845
67014SOL    HW1 2881   0.370   4.975   9.884
67014SOL    HW2 2882   0.274   5.063   9.808
67015SOL     OW 2883  13.081   8.710   9.963
67015SOL    HW1 2884  13.170   8.741   9.979
67015SOL    HW2 2885  13.029   8.750  10.033
67016SOL     OW 2886  14.061   8.284   2.099
67016SOL    HW1 2887  14.156   8.301   2.096
67016SOL    HW2 2888  14.022   8.370   2.114
67017SOL     OW 2889   6.905  12.604  13.888
67017SOL    HW1 2890   6.897  12.665  13.962
67017SOL    HW2 2891   6.888  12.658  13.811
67018SOL     OW 2892   2.485   9.985   9.697
67018SOL    HW1 2893   2.409   9.986   9.755
67018SOL    HW2 2894   2.497   9.893   9.675
67019SOL     OW 2895   5.776   1.974   4.419
67019SOL    HW1 2896   5.813   1.896   4.459
67019SOL    HW2 2897   5.686   1.977   4.450
67020SOL     OW 2898   0.031   2.966   7.575
67020SOL    HW1 2899   0.090   3.036   7.547
67020SOL    HW2 2900  14.833   3.012   7.617
67021SOL     OW 2901   7.950   7.286  12.201
67021SOL    HW1 2902   7.855   7.277  12.204
67021SOL    HW2 2903   7.976   7.299  12.292
67022SOL     OW 2904  12.983  10.294   2.590
67022SOL    HW1 2905  12.905  10.240   2.596
67022SOL    HW2 2906  13.046  10.252   2.649
67023SOL     OW 2907   3.835   1.816   4.841
67023SOL    HW1 2908   3.925   1.804   4.811
67023SOL    HW2 2909   3.828   1.763   4.920
67024SOL     OW 2910  14.569  14.039  12.354
67024SOL    HW1 2911  14.644  14.054  12.297
67024SOL    HW2 2912  14.571  13.945  12.373
67025SOL     OW 2913   3.178  11.381   3.370
67025SOL    HW1 2914   3.237  11.307   3.383
67025SOL    HW2 2915   3.150  11.375   3.279
67026SOL     OW 2916   2.247   3.121   9.197
67026SOL    HW1 2917   2.190   3.066   9.251
67026SOL    HW2 2918   2.261   3.200   9.249
67027SOL     OW 2919   9.049  12.445  12.724
67027SOL    HW1 2920   9.077  12.400  12.645
67027SOL    HW2 2921   9.127  12.492  12.754
67028SOL     OW 2922   3.873  12.337   9.891
67028SOL    HW1 2923   3.909  12.262   9.938
67028SOL    HW2 2924   3.945  12.367   9.835
67029SOL     OW 2925   9.143   1.921   0.472
67029SOL    HW1 2926   9.214   1.979   0.444
67029SOL    HW2 2927   9.188   1.841   0.499
67030SOL     OW 2928   8.848   7.318  10.280
67030SOL    HW1 2929   8.770   7.267  10.259
67030SOL    HW2 2930   8.817   7.385  10.341
67031SOL     OW 2931  13.820   8.864   4.590
67031SOL    HW1 2932  13.803   8.773   4.613
67031SOL    HW2 2933  13.771   8.878   4.509
67032SOL     OW 2934   2.618   6.849   1.144
67032SOL    HW1 2935   2.639   6.874   1.234
67032SOL    HW2 2936   2.552   6.780   1.152
67033SOL     OW 2937   0.415   7.035  10.714
67033SOL    HW1 2938   0.452   6.946  10.715
67033SOL    HW2 2939   0.486   7.090  10.747
67034SOL     OW 2940   2.609  11.439   2.219
67034SOL    HW1 2941   2.650  11.525   2.222
67034SOL    HW2 2942   2.625  11.402   2.306
67035SOL     OW 2943  12.645  14.608  10.321
67035SOL    HW1 2944  12.705  14.545  10.281
67035SOL    HW2 2945  12.559  14.586  10.285
67036SOL     OW 2946   0.640   0.903   5.235
67036SOL    HW1 2947   0.621   0.866   5.321
67036SOL    HW2 2948   0.607   0.839   5.172
67037SOL     OW 2949   0.887   0.134  12.141
67037SOL    HW1 2950   0.885   0.166  12.051
67037SOL    HW2 2951   0.955   0.185  12.183
67038SOL     OW 2952   0.239   9.193   3.956
67038SOL    HW1 2953   0.264   9.185   3.864
67038SOL    HW2 2954   0.315   9.233   3.998
67039SOL     OW 2955   2.976  12.054   3.021
67039SOL    HW1 2956   3.071  12.051   3.027
67039SOL    HW2 2957   2.951  11.970   2.982
67040SOL     OW 2958  10.132   3.024   5.813
67040SOL    HW1 2959  10.191   2.956   5.844
67040SOL    HW2 2960  10.190   3.096   5.786
67041SOL     OW 2961  14.592   5.152   2.371
67041SOL    HW1 2962  14.678   5.111   2.364
67041SOL    HW2 2963  14.604   5.240   2.338
67042SOL     OW 2964   1.012  10.081   5.216
67042SOL    HW1 2965   1.062  10.131   5.280
67042SOL    HW2 2966   1.037   9.990   5.233
67043SOL     OW 2967   6.009   6.964  12.051
67043SOL    HW1 2968   6.063   6.971  12.130
67043SOL    HW2 2969   5.967   7.049  12.043
67044SOL     OW 2970   0.575  12.178   3.690
67044SOL    HW1 2971   0.664  12.170   3.723
67044SOL    HW2 2972   0.544  12.261   3.724
67045SOL     OW 2973   8.737   2.346  11.544
67045SOL    HW1 2974   8.799   2.378  11.609
67045SOL    HW2 2975   8.669   2.413  11.541
67046SOL     OW 2976   0.237  12.349   0.135
67046SOL    HW1 2977   0.246  12.377   0.044
67046SOL    HW2 2978   0.191  12.264   0.129
67047SOL     OW 2979   9.578   6.747   4.214
67047SOL    HW1 2980   9.673   6.745   4.229
67047SOL    HW2 2981   9.553   6.655   4.207
67048SOL     OW 2982  10.269  10.034   9.738
67048SOL    HW1 2983  10.330  10.045   9.811
67048SOL    HW2 2984  10.305   9.961   9.687
67049SOL     OW 2985   3.628   6.079  14.372
67049SOL    HW1 2986   3.722   6.058  14.373
67049SOL    HW2 2987   3.599   6.064  14.462
67050SOL     OW 2988  12.109   6.892   5.214
67050SOL    HW1 2989  12.181   6.832   5.233
67050SOL    HW2 2990  12.042   6.871   5.279
67051SOL     OW 2991   5.339   2.289   6.473
67051SOL    HW1 2992   5.429   2.261   6.490
67051SOL    HW2 2993   5.296   2.283   6.559
67052SOL     OW 2994  14.186   2.775  10.452
67052SOL    HW1 2995  14.279   2.793  10.445
67052SOL    HW2 2996  14.181   2.691  10.497
67053SOL     OW 2997  14.117  12.242   9.881
67053SOL    HW1 2998  14.158  12.272   9.962
67053SOL    HW2 2999  14.052  12.178   9.910
67054SOL     OW 3000  10.212  14.168   0.965
67054SOL    HW1 3001  10.134  14.114   0.952
67054SOL    HW2 3002  10.266  14.117   1.026
67055SOL     OW 3003   2.276   5.470   0.188
67055SOL    HW1 3004   2.228   5.543   0.226
67055SOL    HW2 3005   2.330   5.509   0.119
67056SOL     OW 3006   9.714  10.399  11.558
67056SOL    HW1 3007   9.733  10.348  11.479
67056SOL    HW2 3008   9.800  10.416  11.596
67057SOL     OW 3009   3.422   2.018   8.234
67057SOL    HW1 3010   3.363   1.952   8.269
67057SOL    HW2 3011   3.415   2.092   8.295
67058SOL     OW 3012  11.692   6.991  11.823
67058SOL    HW1 3013  11.736   6.955  11.901
67058SOL    HW2 3014  11.631   7.056  11.858
67059SOL     OW 3015  14.407   3.485  14.835
67059SOL    HW1 3016  14.341   3.488   0.030
67059SOL    HW2 3017  14.444   3.396  14.841
67060SOL     OW 3018   1.581   3.914   1.397
67060SOL    HW1 3019   1.642   3.909   1.323
67060SOL    HW2 3020   1.505   3.864   1.368
67061SOL     OW 3021  10.256  14.265   6.221
67061SOL    HW1 3022  10.182  14.319   6.249
67061SOL    HW2 3023  10.309  14.254   6.300
67062SOL     OW 3024   3.586   7.261  12.141
67062SOL    HW1 3025   3.618   7.184  12.189
67062SOL    HW2 3026   3.598   7.333  12.202
67063SOL     OW 3027  13.756  13.487  13.176
67063SOL    HW1 3028  13.830  13.535  13.213
67063SOL    HW2 3029  13.695  13.477  13.248
67064SOL     OW 3030   2.065   6.565  13.107
67064SOL    HW1 3031   2.056   6.651  13.066
67064SOL    HW2 3032   2.105   6.584  13.192
67065SOL     OW 3033  14.770   5.330   9.509
67065SOL    HW1 3034  14.848   5.276   9.498
67065SOL    HW2 3035  14.803   5.419   9.518
67066SOL     OW 3036  11.262   4.611   0.559
67066SOL    HW1 3037  11.196   4.551   0.524
67066SOL    HW2 3038  11.331   4.553   0.593
67067SOL     OW 3039  13.908  14.232  13.211
67067SOL    HW1 3040  13.886  14.139  13.216
67067SOL    HW2 3041  13.974  14.245  13.279
67068SOL     OW 3042  12.945   3.694  12.096
67068SOL    HW1 3043  12.970   3.738  12.177
67068SOL    HW2 3044  12.929   3.766  12.034
67069SOL     OW 3045  10.985   7.170   9.858
67069SOL    HW1 3046  10.944   7.254   9.878
67069SOL    HW2 3047  10.918   7.105   9.878
67070SOL     OW 3048  12.414   1.438  12.061
67070SOL    HW1 3049  12.490   1.472  12.014
67070SOL    HW2 3050  12.366   1.387  11.997
67071SOL     OW 3051  14.198   1.355  10.401
67071SOL    HW1 3052  14.159   1.318  10.321
67071SOL    HW2 3053  14.129   1.349  10.467
67072SOL     OW 3054   1.534  12.200   0.960
67072SOL    HW1 3055   1.488  12.181   1.042
67072SOL    HW2 3056   1.480  12.267   0.917
67073SOL     OW 3057  12.616   7.736   4.508
67073SOL    HW1 3058  12.652   7.655   4.544
67073SOL    HW2 3059  12.693   7.786   4.479
67074SOL     OW 3060   6.398   6.418   3.440
67074SOL    HW1 3061   6.466   6.449   3.500
67074SOL    HW2 3062   6.444   6.355   3.384
67075SOL     OW 3063   6.895  11.149   1.847
67075SOL    HW1 3064   6.916  11.194   1.929
67075SOL    HW2 3065   6.974  11.157   1.794
67076SOL     OW 3066  13.841   2.896   2.555
67076SOL    HW1 3067  13.826   2.932   2.468
67076SOL    HW2 3068  13.776   2.939   2.611
67077SOL     OW 3069   2.712  11.582  10.855
67077SOL    HW1 3070   2.708  11.542  10.768
67077SOL    HW2 3071   2.724  11.675  10.838
67078SOL     OW 3072  10.858   6.265   3.685
67078SOL    HW1 3073  10.932   6.205   3.689
67078SOL    HW2 3074  10.833   6.278   3.776
67079SOL     OW 3075  13.167   4.481  10.790
67079SOL    HW1 3076  13.113   4.550  10.829
67079SOL    HW2 3077  13.105   4.409  10.774
67080SOL     OW 3078  11.329   8.907   1.423
67080SOL    HW1 3079  11.272   8.842   1.384
67080SOL    HW2 3080  11.283   8.990   1.410
67081SOL     OW 3081   7.296  11.153  14.674
67081SOL    HW1 3082   7.273  11.070  14.716
67081SOL    HW2 3083   7.333  11.128  14.590
67082SOL     OW 3084   6.203   2.626   6.994
67082SOL    HW1 3085   6.140   2.615   7.065
67082SOL    HW2 3086   6.248   2.542   6.988
67083SOL     OW 3087  13.534   8.694   6.823
67083SOL    HW1 3088  13.561   8.775   6.781
67083SOL    HW2 3089  13.553   8.708   6.916
67084SOL     OW 3090   3.816   8.089   1.883
67084SOL    HW1 3091   3.730   8.053   1.862
67084SOL    HW2 3092   3.877   8.043   1.825
67085SOL     OW 3093   1.738  13.448   6.153
67085SOL    HW1 3094   1.676  13.455   6.226
67085SOL    HW2 3095   1.824  13.454   6.194
67086SOL     OW 3096  10.622  10.996  11.986
67086SOL    HW1 3097  10.624  10.998  12.081
67086SOL    HW2 3098  10.625  11.088  11.960
67087SOL     OW 3099  13.534  13.684  10.570
67087SOL    HW1 3100  13.473  13.755  10.549
67087SOL    HW2 3101  13.544  13.688  10.665
67088SOL     OW 3102   7.341   9.335   4.238
67088SOL    HW1 3103   7.308   9.370   4.155
67088SOL    HW2 3104   7.307   9.394   4.305
67089SOL     OW 3105   2.414  11.883   8.596
67089SOL    HW1 3106   2.407  11.789   8.616
67089SOL    HW2 3107   2.341  11.901   8.538
67090SOL     OW 3108  10.570   2.559   1.263
67090SOL    HW1 3109  10.533   2.608   1.337
67090SOL    HW2 3110  10.546   2.611   1.186
67091SOL     OW 3111   5.871   8.875   7.172
67091SOL    HW1 3112   5.842   8.784   7.183
67091SOL    HW2 3113   5.799   8.928   7.206
67092SOL     OW 3114   7.006   8.376   0.939
67092SOL    HW1 3115   7.086   8.358   0.890
67092SOL    HW2 3116   6.992   8.470   0.929
67093SOL     OW 3117  14.776   7.875  14.083
67093SOL    HW1 3118  14.725   7.828  14.150
67093SOL    HW2 3119  14.718   7.946  14.055
67094SOL     OW 3120   0.170   5.070   7.584
67094SOL    HW1 3121   0.115   5.060   7.662
67094SOL    HW2 3122   0.224   5.148   7.602
67095SOL     OW 3123  10.959   1.327   0.422
67095SOL    HW1 3124  10.984   1.295   0.335
67095SOL    HW2 3125  11.042   1.353   0.462
67096SOL     OW 3126   6.718  14.531  12.881
67096SOL    HW1 3127   6.741  14.624  12.876
67096SOL    HW2 3128   6.784  14.487  12.827
67097SOL     OW 3129  11.680  10.627  12.268
67097SOL    HW1 3130  11.729  10.572  12.329
67097SOL    HW2 3131  11.746  10.654  12.203
67098SOL     OW 3132  12.854   3.863  10.875
67098SOL    HW1 3133  12.810   3.779  10.891
67098SOL    HW2 3134  12.787   3.918  10.835
67099SOL     OW 3135   3.842  12.887   1.639
67099SOL    HW1 3136   3.788  12.966   1.632
67099SOL    HW2 3137   3.783  12.820   1.674
67100SOL     OW 3138   3.682   8.540  14.797
67100SOL    HW1 3139   3.756   8.504  14.749
67100SOL    HW2 3140   3.683   8.633  14.778
67101SOL     OW 3141  12.927   4.086  13.000
67101SOL    HW1 3142  12.953   4.079  12.909
67101SOL    HW2 3143  12.950   4.175  13.026
67102SOL     OW 3144   5.551   7.726   4.615
67102SOL    HW1 3145   5.521   7.636   4.619
67102SOL    HW2 3146   5.546   7.749   4.522
67103SOL     OW 3147  13.609  13.487   4.048
67103SOL    HW1 3148  13.589  13.528   4.132
67103SOL    HW2 3149  13.543  13.418   4.039
67104SOL     OW 3150   1.151  12.561   4.337
67104SOL    HW1 3151   1.166  12.635   4.395
67104SOL    HW2 3152   1.064  12.529   4.361
67105SOL     OW 3153   6.620   1.546  13.875
67105SOL    HW1 3154   6.715   1.539  13.884
67105SOL    HW2 3155   6.587   1.543  13.965
67106SOL     OW 3156   8.013   9.927   1.560
67106SOL    HW1 3157   7.932   9.969   1.532
67106SOL    HW2 3158   8.009   9.839   1.523
67107SOL     OW 3159  11.648  10.531  13.005
67107SOL    HW1 3160  11.675  10.444  12.975
67107SOL    HW2 3161  11.556  10.520  13.030
67108SOL     OW 3162   0.691   3.583   0.348
67108SOL    HW1 3163   0.685   3.623   0.435
67108SOL    HW2 3164   0.668   3.653   0.288
67109SOL     OW 3165   2.423  11.975   3.269
67109SOL    HW1 3166   2.407  11.882   3.252
67109SOL    HW2 3167   2.503  11.994   3.221
67110SOL     OW 3168   2.111   2.842   9.561
67110SOL    HW1 3169   2.078   2.884   9.640
67110SOL    HW2 3170   2.190   2.796   9.589
67111SOL     OW 3171  13.127  14.847  10.654
67111SOL    HW1 3172  13.044  14.802  10.667
67111SOL    HW2 3173  13.110   0.034  10.583
67112SOL     OW 3174  11.560   9.223   7.805
67112SOL    HW1 3175  11.580   9.307   7.847
67112SOL    HW2 3176  11.624   9.216   7.734
67113SOL     OW 3177   8.918   4.088   0.981
67113SOL    HW1 3178   8.853   4.110   0.914
67113SOL    HW2 3179   8.935   3.995   0.967
67114SOL     OW 3180   3.777  12.387  13.224
67114SOL    HW1 3181   3.711  12.384  13.293
67114SOL    HW2 3182   3.781  12.297  13.191
67115SOL     OW 3183   5.274   8.203   4.207
67115SOL    HW1 3184   5.250   8.293   4.187
67115SOL    HW2 3185   5.305   8.207   4.298
67116SOL     OW 3186   5.356   1.635  13.153
67116SOL    HW1 3187   5.389   1.713  13.198
67116SOL    HW2 3188   5.261   1.648  13.151
67117SOL     OW 3189   1.011   9.968  12.996
67117SOL    HW1 3190   1.088  10.011  13.033
67117SOL    HW2 3191   0.971   9.923  13.071
67118SOL     OW 3192   1.383  14.665   0.180
67118SOL    HW1 3193   1.349  14.753   0.165
67118SOL    HW2 3194   1.463  14.661   0.127
67119SOL     OW 3195  11.065  11.133  13.076
67119SOL    HW1 3196  11.059  11.225  13.101
67119SOL    HW2 3197  11.121  11.094  13.143
67120SOL     OW 3198   8.348   5.702   6.951
67120SOL    HW1 3199   8.282   5.755   6.995
67120SOL    HW2 3200   8.404   5.765   6.906
67121SOL     OW 3201  11.996   5.968   8.773
67121SOL    HW1 3202  12.027   5.888   8.730
67121SOL    HW2 3203  12.008   5.951   8.867
67122SOL     OW 3204  12.289   0.806   0.381
67122SOL    HW1 3205  12.215   0.823   0.323
67122SOL    HW2 3206  12.325   0.723   0.350
67123SOL     OW 3207   2.953   8.021   3.382
67123SOL    HW1 3208   3.017   8.091   3.374
67123SOL    HW2 3209   2.881   8.047   3.324
67124SOL     OW 3210   9.476   4.696   2.897
67124SOL    HW1 3211   9.382   4.684   2.883
67124SOL    HW2 3212   9.496   4.779   2.855
67125SOL     OW 3213   6.023  11.739   1.111
67125SOL    HW1 3214   6.087  11.764   1.179
67125SOL    HW2 3215   6.044  11.796   1.037
67126SOL     OW 3216  12.455   9.373  14.385
67126SOL    HW1 3217  12.449   9.313  14.460
67126SOL    HW2 3218  12.370   9.417  14.383
67127SOL     OW 3219   8.160  11.328   0.781
67127SOL    HW1 3220   8.150  11.363   0.870
67127SOL    HW2 3221   8.073  11.339   0.741
67128SOL     OW 3222  12.201   1.130   8.797
67128SOL    HW1 3223  12.241   1.127   8.711
67128SOL    HW2 3224  12.108   1.110   8.781
67129SOL     OW 3225  10.707   7.642  12.934
67129SOL    HW1 3226  10.631   7.592  12.964
67129SOL    HW2 3227  10.782   7.590  12.961
67130SOL     OW 3228   8.007   0.057  10.274
67130SOL    HW1 3229   7.986   0.148  10.298
67130SOL    HW2 3230   8.102   0.052  10.282
67131SOL     OW 3231   7.578   5.350   7.612
67131SOL    HW1 3232   7.657   5.367   7.662
67131SOL    HW2 3233   7.580   5.414   7.541
67132SOL     OW 3234  13.957  10.918   1.726
67132SOL    HW1 3235  13.900  10.987   1.691
67132SOL    HW2 3236  14.038  10.963   1.748
67133SOL     OW 3237  11.455  13.834  12.933
67133SOL    HW1 3238  11.438  13.751  12.977
67133SOL    HW2 3239  11.369  13.861  12.900
67134SOL     OW 3240   2.455   1.371  13.580
67134SOL    HW1 3241   2.398   1.390  13.506
67134SOL    HW2 3242   2.419   1.292  13.619
67135SOL     OW 3243   6.271   4.571   4.628
67135SOL    HW1 3244   6.338   4.633   4.598
67135SOL    HW2 3245   6.189   4.617   4.612
67136SOL     OW 3246   4.542   3.245  11.382
67136SOL    HW1 3247   4.468   3.225  11.439
67136SOL    HW2 3248   4.616   3.201  11.425
67137SOL     OW 3249   1.834   4.778   4.237
67137SOL    HW1 3250   1.913   4.821   4.206
67137SOL    HW2 3251   1.866   4.707   4.293
67138SOL     OW 3252   7.110   7.369   5.897
67138SOL    HW1 3253   7.139   7.400   5.811
67138SOL    HW2 3254   7.156   7.286   5.909
67139SOL     OW 3255   3.046   9.064   0.850
67139SOL    HW1 3256   2.952   9.070   0.867
67139SOL    HW2 3257   3.059   9.110   0.768
67140SOL     OW 3258   6.478   2.512   7.537
67140SOL    HW1 3259   6.520   2.589   7.499
67140SOL    HW2 3260   6.404   2.495   7.480
67141SOL     OW 3261  14.210   0.250   5.223
67141SOL    HW1 3262  14.241   0.211   5.141
67141SOL    HW2 3263  14.288   0.286   5.263
67142SOL     OW 3264   9.761  11.755  13.768
67142SOL    HW1 3265   9.833  11.701  13.800
67142SOL    HW2 3266   9.742  11.814  13.841
67143SOL     OW 3267  11.175   8.166   7.394
67143SOL    HW1 3268  11.226   8.245   7.376
67143SOL    HW2 3269  11.091   8.181   7.350
67144SOL     OW 3270  14.547   4.155   4.761
67144SOL    HW1 3271  14.631   4.169   4.804
67144SOL    HW2 3272  14.561   4.186   4.671
67145SOL     OW 3273  10.447  10.242   5.685
67145SOL    HW1 3274  10.400  10.307   5.738
67145SOL    HW2 3275  10.507  10.201   5.747
67146SOL     OW 3276  10.805   0.576   4.857
67146SOL    HW1 3277  10.815   0.578   4.762
67146SOL    HW2 3278  10.736   0.511   4.872
67147SOL     OW 3279   0.794   5.057   1.192
67147SOL    HW1 3280   0.735   5.007   1.136
67147SOL    HW2 3281   0.740   5.128   1.227
67148SOL     OW 3282   1.732   8.515   7.334
67148SOL    HW1 3283   1.694   8.527   7.421
67148SOL    HW2 3284   1.814   8.563   7.336
67149SOL     OW 3285  12.620   2.553   9.181
67149SOL    HW1 3286  12.706   2.528   9.147
67149SOL    HW2 3287  12.568   2.473   9.175
67150SOL     OW 3288  11.410   5.369   0.704
67150SOL    HW1 3289  11.490   5.353   0.654
67150SOL    HW2 3290  11.347   5.398   0.639
67151SOL     OW 3291   8.106  11.432  10.741
67151SOL    HW1 3292   8.159  11.389  10.674
67151SOL    HW2 3293   8.095  11.366  10.809
67152SOL     OW 3294  10.792   1.535   3.455
67152SOL    HW1 3295  10.750   1.450   3.442
67152SOL    HW2 3296  10.822   1.533   3.546
67153SOL     OW 3297   5.934  10.533   8.490
67153SOL    HW1 3298   5.889  10.490   8.562
67153SOL    HW2 3299   6.019  10.559   8.526
67154SOL     OW 3300  14.429   3.320  13.475
67154SOL    HW1 3301  14.427   3.239  13.424
67154SOL    HW2 3302  14.342   3.358  13.463
67155SOL     OW 3303   4.726  14.815   9.263
67155SOL    HW1 3304   4.772  14.731   9.255
67155SOL    HW2 3305   4.743  14.859   9.179
67156SOL     OW 3306   9.249   7.537   6.023
67156SOL    HW1 3307   9.226   7.614   5.971
67156SOL    HW2 3308   9.279   7.472   5.960
67157SOL     OW 3309   0.574   3.583   2.600
67157SOL    HW1 3310   0.669   3.596   2.597
67157SOL    HW2 3311   0.545   3.642   2.670
67158SOL     OW 3312  11.346  11.108   5.371
67158SOL    HW1 3313  11.338  11.013   5.383
67158SOL    HW2 3314  11.327  11.122   5.278
67159SOL     OW 3315  12.928  10.858  11.978
67159SOL    HW1 3316  13.009  10.902  11.953
67159SOL    HW2 3317  12.861  10.894  11.919
67160SOL     OW 3318   8.615  11.275   1.027
67160SOL    HW1 3319   8.601  11.182   1.010
67160SOL    HW2 3320   8.581  11.319   0.950
67161SOL     OW 3321  14.522   7.092  14.261
67161SOL    HW1 3322  14.449   7.140  14.299
67161SOL    HW2 3323  14.481   7.015  14.221
67162SOL     OW 3324  14.542   9.165   4.415
67162SOL    HW1 3325  14.540   9.070   4.431
67162SOL    HW2 3326  14.560   9.203   4.501
67163SOL     OW 3327   6.669   1.023   2.777
67163SOL    HW1 3328   6.756   1.050   2.749
67163SOL    HW2 3329   6.637   1.096   2.830
67164SOL     OW 3330  13.559   3.762   9.442
67164SOL    HW1 3331  13.615   3.801   9.509
67164SOL    HW2 3332  13.475   3.750   9.486
67165SOL     OW 3333   8.966  12.858  11.124
67165SOL    HW1 3334   9.025  12.862  11.199
67165SOL    HW2 3335   8.910  12.935  11.133
67166SOL     OW 3336   6.087   8.406   4.149
67166SOL    HW1 3337   5.996   8.412   4.121
67166SOL    HW2 3338   6.106   8.312   4.150
67167SOL     OW 3339   6.079   8.666   1.496
67167SOL    HW1 3340   6.159   8.636   1.540
67167SOL    HW2 3341   6.036   8.586   1.466
67168SOL     OW 3342   7.211   8.034   2.044
67168SOL    HW1 3343   7.142   7.978   2.009
67168SOL    HW2 3344   7.167   8.115   2.067
67169SOL     OW 3345   4.735   8.425   7.021
67169SOL    HW1 3346   4.812   8.391   7.067
67169SOL    HW2 3347   4.748   8.520   7.019
67170SOL     OW 3348   6.640  13.596   4.499
67170SOL    HW1 3349   6.676  13.510   4.475
67170SOL    HW2 3350   6.682  13.617   4.583
67171SOL     OW 3351   5.885   0.699   7.283
67171SOL    HW1 3352   5.932   0.664   7.208
67171SOL    HW2 3353   5.915   0.789   7.291
67172SOL     OW 3354   1.648   5.418   3.029
67172SOL    HW1 3355   1.738   5.398   3.004
67172SOL    HW2 3356   1.655   5.492   3.090
67173SOL     OW 3357  14.861   4.774   7.592
67173SOL    HW1 3358   0.025   4.788   7.680
67173SOL    HW2 3359  14.804   4.850   7.579
67174SOL     OW 3360  10.771   7.189   1.064
67174SOL    HW1 3361  10.811   7.166   0.980
67174SOL    HW2 3362  10.839   7.239   1.110
67175SOL     OW 3363   6.014   2.301   9.195
67175SOL    HW1 3364   5.936   2.253   9.224
67175SOL    HW2 3365   5.979   2.379   9.151
67176SOL     OW 3366  12.853   4.584   7.292
67176SOL    HW1 3367  12.842   4.542   7.377
67176SOL    HW2 3368  12.864   4.510   7.231
67177SOL     OW 3369  10.310   0.620   8.342
67177SOL    HW1 3370  10.329   0.526   8.337
67177SOL    HW2 3371  10.362   0.659   8.271
67178SOL     OW 3372   9.917   3.749   5.015
67178SOL    HW1 3373   9.852   3.694   4.971
67178SOL    HW2 3374   9.866   3.802   5.076
67179SOL     OW 3375  14.642   5.148   6.835
67179SOL    HW1 3376  14.611   5.164   6.746
67179SOL    HW2 3377  14.653   5.054   6.840
67180SOL     OW 3378  14.472   6.837   9.138
67180SOL    HW1 3379  14.433   6.838   9.225
67180SOL    HW2 3380  14.562   6.868   9.152
67181SOL     OW 3381   7.775  11.254  11.372
67181SOL    HW1 3382   7.682  11.253  11.396
67181SOL    HW2 3383   7.804  11.164  11.384
67182SOL     OW 3384  12.676   0.302   4.117
67182SOL    HW1 3385  12.588   0.323   4.083
67182SOL    HW2 3386  12.733   0.368   4.078
67183SOL     OW 3387  12.892  12.605   7.355
67183SOL    HW1 3388  12.938  12.629   7.435
67183SOL    HW2 3389  12.799  12.619   7.375
67184SOL     OW 3390   2.582   8.392  13.236
67184SOL    HW1 3391   2.651   8.441  13.279
67184SOL    HW2 3392   2.536   8.456  13.182
67185SOL     OW 3393  14.704  13.623   9.949
67185SOL    HW1 3394  14.621  13.638   9.904
67185SOL    HW2 3395  14.771  13.650   9.886
67186SOL     OW 3396   0.577  12.715   1.325
67186SOL    HW1 3397   0.645  12.754   1.379
67186SOL    HW2 3398   0.586  12.759   1.240
67187SOL     OW 3399  13.402   8.242   0.083
67187SOL    HW1 3400  13.407   8.311   0.017
67187SOL    HW2 3401  13.321   8.260   0.130
67188SOL     OW 3402   4.178   1.996  11.599
67188SOL    HW1 3403   4.212   2.076  11.559
67188SOL    HW2 3404   4.170   2.017  11.692
67189SOL     OW 3405   7.299   8.267   7.685
67189SOL    HW1 3406   7.269   8.341   7.737
67189SOL    HW2 3407   7.253   8.274   7.602
67190SOL     OW 3408   2.214  12.673  13.238
67190SOL    HW1 3409   2.175  12.755  13.207
67190SOL    HW2 3410   2.140  12.616  13.257
67191SOL     OW 3411   5.195  14.727  10.442
67191SOL    HW1 3412   5.280  14.770  10.435
67191SOL    HW2 3413   5.198  14.681  10.526
67192SOL     OW 3414   1.032   8.029   7.627
67192SOL    HW1 3415   1.048   8.045   7.534
67192SOL    HW2 3416   1.007   8.115   7.662
67193SOL     OW 3417   5.529   5.962   5.975
67193SOL    HW1 3418   5.534   6.051   6.011
67193SOL    HW2 3419   5.472   5.915   6.035
67194SOL     OW 3420  14.692   0.590  10.182
67194SOL    HW1 3421  14.629   0.652  10.144
67194SOL    HW2 3422  14.722   0.538  10.107
67195SOL     OW 3423   8.124  10.795   1.363
67195SOL    HW1 3424   8.074  10.771   1.284
67195SOL    HW2 3425   8.118  10.717   1.418
67196SOL     OW 3426   1.757   2.922  10.569
67196SOL    HW1 3427   1.814   2.856  10.529
67196SOL    HW2 3428   1.816   2.984  10.611
67197SOL     OW 3429   0.342   2.363   6.082
67197SOL    HW1 3430   0.291   2.442   6.062
67197SOL    HW2 3431   0.318   2.301   6.014
67198SOL     OW 3432  10.898   3.539  12.155
67198SOL    HW1 3433  10.977   3.546  12.102
67198SOL    HW2 3434  10.927   3.559  12.244
67199SOL     OW 3435   9.243  10.942   7.010
67199SOL    HW1 3436   9.152  10.924   6.986
67199SOL    HW2 3437   9.294  10.901   6.940
67200SOL     OW 3438   1.308   3.515  13.456
67200SOL    HW1 3439   1.387   3.462  13.465
67200SOL    HW2 3440   1.323   3.567  13.377
67201SOL     OW 3441  12.479   2.912  13.326
67201SOL    HW1 3442  12.510   2.848  13.262
67201SOL    HW2 3443  12.433   2.978  13.275
67202SOL     OW 3444   0.734   1.952  13.868
67202SOL    HW1 3445   0.712   1.895  13.795
67202SOL    HW2 3446   0.799   1.904  13.918
67203SOL     OW 3447   4.615  12.607  10.053
67203SOL    HW1 3448   4.686  12.544  10.044
67203SOL    HW2 3449   4.641  12.663  10.126
67204SOL     OW 3450  14.036  13.681   2.631
67204SOL    HW1 3451  14.127  13.668   2.602
67204SOL    HW2 3452  14.007  13.594   2.657
67205SOL     OW 3453   5.645  14.645  11.626
67205SOL    HW1 3454   5.650  14.550  11.613
67205SOL    HW2 3455   5.692  14.661  11.708
67206SOL     OW 3456   7.325   4.259   4.790
67206SOL    HW1 3457   7.392   4.223   4.732
67206SOL    HW2 3458   7.346   4.222   4.876
67207SOL     OW 3459   7.385  14.374   0.080
67207SOL    HW1 3460   7.375  14.279   0.075
67207SOL    HW2 3461   7.328  14.408   0.011
67208SOL     OW 3462   5.639   5.405   7.561
67208SOL    HW1 3463   5.699   5.456   7.506
67208SOL    HW2 3464   5.553   5.446   7.546
67209SOL     OW 3465   7.773   6.290   8.945
67209SOL    HW1 3466   7.722   6.351   8.998
67209SOL    HW2 3467   7.720   6.211   8.941
67210SOL     OW 3468  11.462  10.374   2.600
67210SOL    HW1 3469  11.503  10.432   2.664
67210SOL    HW2 3470  11.535  10.343   2.546
67211SOL     OW 3471  11.386  13.978   4.912
67211SOL    HW1 3472  11.392  13.891   4.951
67211SOL    HW2 3473  11.294  14.002   4.921
67212SOL     OW 3474   1.917   5.019   5.633
67212SOL    HW1 3475   1.885   4.929   5.628
67212SOL    HW2 3476   1.881   5.054   5.714
67213SOL     OW 3477  14.691  13.294   8.445
67213SOL    HW1 3478  14.777  13.257   8.465
67213SOL    HW2 3479  14.676  13.360   8.512
67214SOL     OW 3480  13.188   9.829   1.359
67214SOL    HW1 3481  13.222   9.755   1.409
67214SOL    HW2 3482  13.264   9.886   1.346
67215SOL     OW 3483   1.561   4.244   9.532
67215SOL    HW1 3484   1.536   4.307   9.465
67215SOL    HW2 3485   1.581   4.297   9.609
67216SOL     OW 3486   0.958   4.983   3.397
67216SOL    HW1 3487   0.980   5.076   3.394
67216SOL    HW2 3488   0.912   4.971   3.480
67217SOL     OW 3489   6.136   7.671   8.595
67217SOL    HW1 3490   6.212   7.649   8.541
67217SOL    HW2 3491   6.174   7.714   8.672
67218SOL     OW 3492   4.285  14.738  11.916
67218SOL    HW1 3493   4.344  14.699  11.981
67218SOL    HW2 3494   4.210  14.679  11.913
67219SOL     OW 3495   4.100  12.955  13.011
67219SOL    HW1 3496   4.181  12.989  12.972
67219SOL    HW2 3497   4.075  12.881  12.955
67220SOL     OW 3498   1.980   0.627  14.133
67220SOL    HW1 3499   1.894   0.664  14.117
67220SOL    HW2 3500   2.041   0.693  14.101
67221SOL     OW 3501  11.126  13.587  11.042
67221SOL    HW1 3502  11.139  13.570  11.135
67221SOL    HW2 3503  11.096  13.503  11.007
67222SOL     OW 3504   6.738   6.670   7.608
67222SOL    HW1 3505   6.670   6.628   7.661
67222SOL    HW2 3506   6.805   6.602   7.596
67223SOL     OW 3507   0.738  11.006   0.885
67223SOL    HW1 3508   0.805  11.052   0.835
67223SOL    HW2 3509   0.696  11.075   0.936
67224SOL     OW 3510  12.893   8.727  10.462
67224SOL    HW1 3511  12.987   8.738  10.469
67224SOL    HW2 3512  12.878   8.705  10.370
67225SOL     OW 3513  10.458   3.710   8.102
67225SOL    HW1 3514  10.472   3.741   8.012
67225SOL    HW2 3515  10.379   3.656   8.096
67226SOL     OW 3516   4.670  11.408   5.416
67226SOL    HW1 3517   4.751  11.423   5.368
67226SOL    HW2 3518   4.642  11.495   5.443
67227SOL     OW 3519   0.419   3.395  13.827
67227SOL    HW1 3520   0.352   3.444  13.874
67227SOL    HW2 3521   0.395   3.303  13.838
67228SOL     OW 3522   9.521   8.334   9.461
67228SOL    HW1 3523   9.515   8.389   9.383
67228SOL    HW2 3524   9.430   8.324   9.490
67229SOL     OW 3525   1.142   5.858  14.454
67229SOL    HW1 3526   1.101   5.788  14.402
67229SOL    HW2 3527   1.075   5.926  14.458
67230SOL     OW 3528  14.833  12.255  11.511
67230SOL    HW1 3529   0.048  12.222  11.525
67230SOL    HW2 3530  14.836  12.294  11.424
67231SOL     OW 3531  11.766   9.585   8.247
67231SOL    HW1 3532  11.685   9.628   8.221
67231SOL    HW2 3533  11.805   9.644   8.312
67232SOL     OW 3534  12.049  13.289   9.071
67232SOL    HW1 3535  12.109  13.216   9.055
67232SOL    HW2 3536  11.990  13.289   8.996
67233SOL     OW 3537   8.072  13.428  13.328
67233SOL    HW1 3538   7.985  13.414  13.366
67233SOL    HW2 3539   8.058  13.423  13.233
67234SOL     OW 3540   6.879  14.027   9.255
67234SOL    HW1 3541   6.852  14.092   9.191
67234SOL    HW2 3542   6.951  13.980   9.213
67235SOL     OW 3543   0.542   7.675   4.705
67235SOL    HW1 3544   0.583   7.595   4.736
67235SOL    HW2 3545   0.487   7.705   4.777
67236SOL     OW 3546   7.476   5.547   5.204
67236SOL    HW1 3547   7.500   5.488   5.276
67236SOL    HW2 3548   7.409   5.499   5.155
67237SOL     OW 3549   5.640   5.077  10.568
67237SOL    HW1 3550   5.575   5.085  10.498
67237SOL    HW2 3551   5.721   5.110  10.529
67238SOL     OW 3552   4.625   7.719   6.765
67238SOL    HW1 3553   4.641   7.701   6.672
67238SOL    HW2 3554   4.711   7.712   6.806
67239SOL     OW 3555  10.418  11.623  10.065
67239SOL    HW1 3556  10.495  11.605  10.119
67239SOL    HW2 3557  10.420  11.718  10.050
67240SOL     OW 3558   2.016   1.941   4.373
67240SOL    HW1 3559   2.036   1.865   4.428
67240SOL    HW2 3560   2.098   1.958   4.326
67241SOL     OW 3561  10.749   1.792  12.957
67241SOL    HW1 3562  10.745   1.841  13.039
67241SOL    HW2 3563  10.683   1.833  12.901
67242SOL     OW 3564   3.774   9.384  12.872
67242SOL    HW1 3565   3.860   9.388  12.832
67242SOL    HW2 3566   3.739   9.473  12.863
67243SOL     OW 3567  14.075  13.414  12.747
67243SOL    HW1 3568  14.032  13.498  12.730
67243SOL    HW2 3569  14.006  13.357  12.780
67244SOL     OW 3570   9.261   9.094  13.372
67244SOL    HW1 3571   9.176   9.105  13.414
67244SOL    HW2 3572   9.324   9.109  13.442
67245SOL     OW 3573  13.342   3.121   2.830
67245SOL    HW1 3574  13.333   3.051   2.765
67245SOL    HW2 3575  13.272   3.105   2.893
67246SOL     OW 3576  10.527  13.072  14.833
67246SOL    HW1 3577  10.590  13.004  14.809
67246SOL    HW2 3578  10.516  13.062   0.053
67247SOL     OW 3579   6.152   9.090   4.802
67247SOL    HW1 3580   6.184   9.108   4.714
67247SOL    HW2 3581   6.168   8.996   4.814
67248SOL     OW 3582   1.068   0.408   9.740
67248SOL    HW1 3583   1.018   0.468   9.685
67248SOL    HW2 3584   1.052   0.321   9.701
67249SOL     OW 3585   6.174  14.145  11.262
67249SOL    HW1 3586   6.245  14.084  11.280
67249SOL    HW2 3587   6.113  14.133  11.335
67250SOL     OW 3588   6.474   1.131  12.386
67250SOL    HW1 3589   6.439   1.043  12.401
67250SOL    HW2 3590   6.418   1.168  12.317
67251SOL     OW 3591  13.740  14.433   0.776
67251SOL    HW1 3592  13.762  14.340   0.783
67251SOL    HW2 3593  13.716  14.459   0.865
67252SOL     OW 3594   4.407   5.893   3.437
67252SOL    HW1 3595   4.400   5.973   3.488
67252SOL    HW2 3596   4.430   5.922   3.349
67253SOL     OW 3597  10.515   4.504   1.050
67253SOL    HW1 3598  10.555   4.571   1.105
67253SOL    HW2 3599  10.489   4.551   0.970
67254SOL     OW 3600   5.275   9.031  10.833
67254SOL    HW1 3601   5.187   8.997  10.821
67254SOL    HW2 3602   5.331   8.954  10.834
67255SOL     OW 3603  13.466   2.228   5.206
67255SOL    HW1 3604  13.427   2.316   5.205
67255SOL    HW2 3605  13.446   2.195   5.294
67256SOL     OW 3606   0.162   4.298   2.976
67256SOL    HW1 3607   0.141   4.333   3.063
67256SOL    HW2 3608   0.203   4.371   2.930
67257SOL     OW 3609   3.906   4.202  13.510
67257SOL    HW1 3610   3.822   4.220  13.551
67257SOL    HW2 3611   3.913   4.266  13.439
67258SOL     OW 3612   4.014   4.082  11.969
67258SOL    HW1 3613   4.056   4.080  11.883
67258SOL    HW2 3614   4.013   4.175  11.992
67259SOL     OW 3615  12.308  10.376   7.823
67259SOL    HW1 3616  12.217  10.375   7.853
67259SOL    HW2 3617  12.305  10.425   7.741
67260SOL     OW 3618   1.642  12.005  10.708
67260SOL    HW1 3619   1.675  11.930  10.660
67260SOL    HW2 3620   1.597  11.967  10.784
67261SOL     OW 3621  13.838   3.680   1.123
67261SOL    HW1 3622  13.862   3.688   1.215
67261SOL    HW2 3623  13.745   3.657   1.124
67262SOL     OW 3624   6.091   9.224   6.476
67262SOL    HW1 3625   6.021   9.243   6.414
67262SOL    HW2 3626   6.060   9.260   6.559
67263SOL     OW 3627  14.312  11.670  11.095
67263SOL    HW1 3628  14.282  11.715  11.016
67263SOL    HW2 3629  14.255  11.704  11.164
67264SOL     OW 3630  11.348   8.876   6.547
67264SOL    HW1 3631  11.399   8.881   6.627
67264SOL    HW2 3632  11.408   8.840   6.482
67265SOL     OW 3633   6.494   4.700  12.413
67265SOL    HW1 3634   6.417   4.643  12.411
67265SOL    HW2 3635   6.508   4.717  12.506
67266SOL     OW 3636   3.203   0.728   3.615
67266SOL    HW1 3637   3.193   0.739   3.520
67266SOL    HW2 3638   3.153   0.648   3.635
67267SOL     OW 3639   4.519   2.186   1.241
67267SOL    HW1 3640   4.586   2.135   1.196
67267SOL    HW2 3641   4.562   2.219   1.320
67268SOL     OW 3642   9.288  11.400   6.747
67268SOL    HW1 3643   9.368  11.348   6.746
67268SOL    HW2 3644   9.219  11.338   6.772
67269SOL     OW 3645  11.361   0.797   1.982
67269SOL    HW1 3646  11.435   0.736   1.973
67269SOL    HW2 3647  11.384   0.871   1.926
67270SOL     OW 3648   3.911  13.281  12.270
67270SOL    HW1 3649   3.886  13.192  12.297
67270SOL    HW2 3650   3.878  13.338  12.339
67271SOL     OW 3651   8.480   4.858  10.224
67271SOL    HW1 3652   8.452   4.853  10.316
67271SOL    HW2 3653   8.399   4.869  10.175
67272SOL     OW 3654   6.739   1.710   2.131
67272SOL    HW1 3655   6.653   1.670   2.148
67272SOL    HW2 3656   6.719   1.802   2.116
67273SOL     OW 3657   7.620  10.377   4.612
67273SOL    HW1 3658   7.657  10.416   4.533
67273SOL    HW2 3659   7.581  10.295   4.582
67274SOL     OW 3660  14.595   5.208   0.640
67274SOL    HW1 3661  14.635   5.275   0.585
67274SOL    HW2 3662  14.531   5.165   0.584
67275SOL     OW 3663   7.272  10.516   1.203
67275SOL    HW1 3664   7.319  10.524   1.285
67275SOL    HW2 3665   7.267  10.422   1.187
67276SOL     OW 3666   2.786  10.455  10.966
67276SOL    HW1 3667   2.879  10.473  10.968
67276SOL    HW2 3668   2.747  10.532  10.924
67277SOL     OW 3669  13.749   0.968   2.115
67277SOL    HW1 3670  13.824   0.923   2.078
67277SOL    HW2 3671  13.673   0.923   2.077
67278SOL     OW 3672   8.738   3.161   4.583
67278SOL    HW1 3673   8.689   3.125   4.657
67278SOL    HW2 3674   8.829   3.157   4.610
67279SOL     OW 3675  10.083   0.890  11.706
67279SOL    HW1 3676  10.066   0.842  11.787
67279SOL    HW2 3677  10.099   0.980  11.733
67280SOL     OW 3678  11.923  14.283   3.917
67280SOL    HW1 3679  11.897  14.276   3.825
67280SOL    HW2 3680  12.010  14.241   3.920
67281SOL     OW 3681   0.396  12.299   6.761
67281SOL    HW1 3682   0.401  12.232   6.693
67281SOL    HW2 3683   0.484  12.303   6.798
67282SOL     OW 3684   5.383  11.576   4.050
67282SOL    HW1 3685   5.446  11.558   3.980
67282SOL    HW2 3686   5.347  11.662   4.029
67283SOL     OW 3687   7.599  14.269   0.360
67283SOL    HW1 3688   7.513  14.298   0.394
67283SOL    HW2 3689   7.625  14.199   0.420
67284SOL     OW 3690   9.016  12.993  10.050
67284SOL    HW1 3691   8.980  12.944   9.976
67284SOL    HW2 3692   8.991  13.084  10.033
67285SOL     OW 3693   7.927   8.667  11.538
67285SOL    HW1 3694   8.009   8.679  11.490
67285SOL    HW2 3695   7.865   8.725  11.493
67286SOL     OW 3696  10.137   7.114   6.873
67286SOL    HW1 3697  10.067   7.093   6.935
67286SOL    HW2 3698  10.108   7.076   6.790
67287SOL     OW 3699  12.281   8.984   2.022
67287SOL    HW1 3700  12.249   9.066   2.061
67287SOL    HW2 3701  12.218   8.918   2.051
67288SOL     OW 3702   0.306   9.663   9.487
67288SOL    HW1 3703   0.352   9.637   9.567
67288SOL    HW2 3704   0.236   9.598   9.478
67289SOL     OW 3705   5.741  10.964   1.751
67289SOL    HW1 3706   5.793  11.015   1.813
67289SOL    HW2 3707   5.744  10.875   1.785
67290SOL     OW 3708  13.587   8.467  13.696
67290SOL    HW1 3709  13.563   8.555  13.726
67290SOL    HW2 3710  13.619   8.423  13.774
67291SOL     OW 3711  14.843   8.518  11.833
67291SOL    HW1 3712  14.804   8.470  11.907
67291SOL    HW2 3713  14.811   8.607  11.843
67292SOL     OW 3714  14.101   7.593  14.716
67292SOL    HW1 3715  14.147   7.509  14.716
67292SOL    HW2 3716  14.010   7.571  14.696
67293SOL     OW 3717   2.713   5.571  11.099
67293SOL    HW1 3718   2.694   5.478  11.114
67293SOL    HW2 3719   2.629   5.608  11.071
67294SOL     OW 3720   9.491   4.963  12.789
67294SOL    HW1 3721   9.469   4.968  12.882
67294SOL    HW2 3722   9.586   4.976  12.786
67295SOL     OW 3723   4.517   4.538   1.037
67295SOL    HW1 3724   4.430   4.554   1.075
67295SOL    HW2 3725   4.504   4.461   0.981
67296SOL     OW 3726  13.207   9.987   4.304
67296SOL    HW1 3727  13.155   9.915   4.340
67296SOL    HW2 3728  13.276  10.001   4.369
67297SOL     OW 3729  13.682  12.703   4.456
67297SOL    HW1 3730  13.667  12.614   4.423
67297SOL    HW2 3731  13.596  12.732   4.486
67298SOL     OW 3732  12.608   8.008   8.826
67298SOL    HW1 3733  12.568   8.093   8.846
67298SOL    HW2 3734  12.701   8.027   8.816
67299SOL     OW 3735   9.526  13.335  10.638
67299SOL    HW1 3736   9.574  13.418  10.637
67299SOL    HW2 3737   9.439  13.357  10.604
67300SOL     OW 3738  12.403   7.035   6.776
67300SOL    HW1 3739  12.427   6.946   6.751
67300SOL    HW2 3740  12.478   7.066   6.829
67301SOL     OW 3741  14.184   6.233   2.043
67301SOL    HW1 3742  14.158   6.316   2.003
67301SOL    HW2 3743  14.134   6.229   2.124
67302SOL     OW 3744   0.867   6.082   9.525
67302SOL    HW1 3745   0.861   5.994   9.563
67302SOL    HW2 3746   0.778   6.117   9.532
67303SOL     OW 3747  10.046   7.952   0.037
67303SOL    HW1 3748  10.097   7.914   0.109
67303SOL    HW2 3749   9.974   7.890   0.024
67304SOL     OW 3750  10.315   8.974  14.281
67304SOL    HW1 3751  10.287   8.927  14.360
67304SOL    HW2 3752  10.341   8.906  14.220
67305SOL     OW 3753   4.696   9.287  11.312
67305SOL    HW1 3754   4.625   9.229  11.339
67305SOL    HW2 3755   4.671   9.373  11.347
67306SOL     OW 3756  10.093   9.300   1.533
67306SOL    HW1 3757  10.123   9.299   1.624
67306SOL    HW2 3758  10.161   9.349   1.486
67307SOL     OW 3759   0.440   3.355  12.479
67307SOL    HW1 3760   0.443   3.448  12.458
67307SOL    HW2 3761   0.353   3.327  12.452
67308SOL     OW 3762   9.173   4.495   7.958
67308SOL    HW1 3763   9.247   4.547   7.927
67308SOL    HW2 3764   9.101   4.520   7.900
67309SOL     OW 3765  11.481  13.051   3.310
67309SOL    HW1 3766  11.517  12.977   3.261
67309SOL    HW2 3767  11.447  13.012   3.391
67310SOL     OW 3768  13.827  13.333   9.109
67310SOL    HW1 3769  13.844  13.359   9.199
67310SOL    HW2 3770  13.903  13.281   9.083
67311SOL     OW 3771   8.772  13.775  12.129
67311SOL    HW1 3772   8.763  13.843  12.063
67311SOL    HW2 3773   8.743  13.816  12.211
67312SOL     OW 3774  14.410  13.746   5.474
67312SOL    HW1 3775  14.402  13.725   5.381
67312SOL    HW2 3776  14.429  13.663   5.517
67313SOL     OW 3777   6.899   3.022   3.118
67313SOL    HW1 3778   6.969   3.046   3.179
67313SOL    HW2 3779   6.819   3.031   3.169
67314SOL     OW 3780   9.429   5.107   2.189
67314SOL    HW1 3781   9.504   5.052   2.167
67314SOL    HW2 3782   9.446   5.137   2.278
67315SOL     OW 3783   1.499   2.153   2.248
67315SOL    HW1 3784   1.486   2.107   2.165
67315SOL    HW2 3785   1.416   2.198   2.264
67316SOL     OW 3786  13.058  12.270  10.978
67316SOL    HW1 3787  13.148  12.293  10.955
67316SOL    HW2 3788  13.062  12.179  11.006
67317SOL     OW 3789   0.921   6.178   5.124
67317SOL    HW1 3790   0.903   6.253   5.180
67317SOL    HW2 3791   0.845   6.173   5.065
67318SOL     OW 3792   7.179   1.831   2.978
67318SOL    HW1 3793   7.212   1.837   3.067
67318SOL    HW2 3794   7.102   1.775   2.985
67319SOL     OW 3795  12.168  14.311   0.808
67319SOL    HW1 3796  12.199  14.290   0.720
67319SOL    HW2 3797  12.079  14.275   0.812
67320SOL     OW 3798   7.148   6.184   3.298
67320SOL    HW1 3799   7.146   6.176   3.202
67320SOL    HW2 3800   7.164   6.277   3.314
67321SOL     OW 3801  10.038   0.415   0.012
67321SOL    HW1 3802  10.090   0.473  14.831
67321SOL    HW2 3803  10.089   0.405   0.092
67322SOL     OW 3804   4.784   2.859   6.632
67322SOL    HW1 3805   4.777   2.781   6.687
67322SOL    HW2 3806   4.771   2.827   6.543
67323SOL     OW 3807   5.410   3.793   0.460
67323SOL    HW1 3808   5.459   3.874   0.474
67323SOL    HW2 3809   5.344   3.817   0.394
67324SOL     OW 3810  11.565   2.807  12.433
67324SOL    HW1 3811  11.624   2.869  12.476
67324SOL    HW2 3812  11.523   2.759  12.504
67325SOL     OW 3813   5.534  12.065   0.492
67325SOL    HW1 3814   5.535  12.037   0.401
67325SOL    HW2 3815   5.590  12.142   0.495
67326SOL     OW 3816   0.368   5.926  13.527
67326SOL    HW1 3817   0.432   5.997  13.534
67326SOL    HW2 3818   0.410   5.851  13.568
67327SOL     OW 3819   8.152   8.594  11.103
67327SOL    HW1 3820   8.217   8.545  11.053
67327SOL    HW2 3821   8.146   8.678  11.059
67328SOL     OW 3822  12.291   8.175  14.670
67328SOL    HW1 3823  12.203   8.149  14.644
67328SOL    HW2 3824  12.297   8.149  14.762
67329SOL     OW 3825   3.560  12.104  12.857
67329SOL    HW1 3826   3.605  12.189  12.854
67329SOL    HW2 3827   3.591  12.064  12.939
67330SOL     OW 3828   7.623   5.652  13.611
67330SOL    HW1 3829   7.573   5.711  13.555
67330SOL    HW2 3830   7.592   5.565  13.588
67331SOL     OW 3831  12.146   2.214   7.152
67331SOL    HW1 3832  12.230   2.169   7.151
67331SOL    HW2 3833  12.128   2.232   7.059
67332SOL     OW 3834   5.143   4.423   9.215
67332SOL    HW1 3835   5.082   4.351   9.231
67332SOL    HW2 3836   5.222   4.380   9.181
67333SOL     OW 3837  14.340   0.450   9.704
67333SOL    HW1 3838  14.338   0.393   9.627
67333SOL    HW2 3839  14.295   0.399   9.772
67334SOL     OW 3840   2.026   2.794   0.399
67334SOL    HW1 3841   1.980   2.875   0.380
67334SOL    HW2 3842   2.116   2.811   0.372
67335SOL     OW 3843  14.281  12.992   8.382
67335SOL    HW1 3844  14.229  12.931   8.329
67335SOL    HW2 3845  14.242  13.078   8.364
67336SOL     OW 3846   3.465   0.062   0.428
67336SOL    HW1 3847   3.444   0.154   0.442
67336SOL    HW2 3848   3.501   0.032   0.511
67337SOL     OW 3849  11.628   3.666   5.099
67337SOL    HW1 3850  11.687   3.645   5.027
67337SOL    HW2 3851  11.681   3.655   5.178
67338SOL     OW 3852  10.586   1.024  13.456
67338SOL    HW1 3853  10.628   1.020  13.370
67338SOL    HW2 3854  10.658   1.041  13.517
67339SOL     OW 3855   3.487   5.603   7.645
67339SOL    HW1 3856   3.437   5.668   7.695
67339SOL    HW2 3857   3.578   5.629   7.656
67340SOL     OW 3858   4.079   9.956  11.482
67340SOL    HW1 3859   4.159   9.965  11.535
67340SOL    HW2 3860   4.102   9.891  11.415
67341SOL     OW 3861   2.981  13.764   1.681
67341SOL    HW1 3862   2.952  13.744   1.769
67341SOL    HW2 3863   2.971  13.858   1.673
67342SOL     OW 3864   3.003  14.135   3.975
67342SOL    HW1 3865   3.032  14.090   4.054
67342SOL    HW2 3866   2.910  14.114   3.968
67343SOL     OW 3867   1.364   4.226   8.436
67343SOL    HW1 3868   1.293   4.242   8.374
67343SOL    HW2 3869   1.390   4.135   8.419
67344SOL     OW 3870   9.049   3.023   4.339
67344SOL    HW1 3871   9.112   2.980   4.281
67344SOL    HW2 3872   9.080   3.114   4.343
67345SOL     OW 3873  13.371  13.468  10.490
67345SOL    HW1 3874  13.423  13.547  10.507
67345SOL    HW2 3875  13.406  13.403  10.552
67346SOL     OW 3876  10.326   3.886   8.775
67346SOL    HW1 3877  10.279   3.849   8.701
67346SOL    HW2 3878  10.268   3.872   8.850
67347SOL     OW 3879   3.128  12.562   9.019
67347SOL    HW1 3880   3.170  12.525   8.941
67347SOL    HW2 3881   3.043  12.594   8.987
67348SOL     OW 3882  12.665   0.121  10.612
67348SOL    HW1 3883  12.575   0.149  10.591
67348SOL    HW2 3884  12.700   0.091  10.528
67349SOL     OW 3885   2.867  10.544   0.980
67349SOL    HW1 3886   2.911  10.624   1.009
67349SOL    HW2 3887   2.918  10.473   1.020
67350SOL     OW 3888   4.880   0.794   0.197
67350SOL    HW1 3889   4.838   0.874   0.231
67350SOL    HW2 3890   4.852   0.789   0.106
67351SOL     OW 3891   9.675  14.091   9.693
67351SOL    HW1 3892   9.759  14.131   9.714
67351SOL    HW2 3893   9.687  14.051   9.607
67352SOL     OW 3894  13.725   3.809   3.570
67352SOL    HW1 3895  13.704   3.808   3.664
67352SOL    HW2 3896  13.821   3.801   3.567
67353SOL     OW 3897  10.984  14.790   4.680
67353SOL    HW1 3898  10.928  14.720   4.647
67353SOL    HW2 3899  10.953  14.806   4.769
67354SOL     OW 3900   6.848   8.155   1.282
67354SOL    HW1 3901   6.788   8.184   1.350
67354SOL    HW2 3902   6.917   8.107   1.328
67355SOL     OW 3903   0.300   6.423  13.954
67355SOL    HW1 3904   0.325   6.473  14.032
67355SOL    HW2 3905   0.256   6.345  13.988
67356SOL     OW 3906   1.939   3.615  14.793
67356SOL    HW1 3907   1.871   3.640  14.730
67356SOL    HW2 3908   2.017   3.601  14.740
67357SOL     OW 3909  12.141   6.234   0.829
67357SOL    HW1 3910  12.178   6.146   0.818
67357SOL    HW2 3911  12.186   6.269   0.906
67358SOL     OW 3912   2.635   7.645   2.649
67358SOL    HW1 3913   2.668   7.686   2.729
67358SOL    HW2 3914   2.656   7.708   2.580
67359SOL     OW 3915   9.255   0.164  12.740
67359SOL    HW1 3916   9.207   0.244  12.764
67359SOL    HW2 3917   9.345   0.181  12.767
67360SOL     OW 3918   7.360   8.491  10.099
67360SOL    HW1 3919   7.295   8.429  10.065
67360SOL    HW2 3920   7.366   8.559  10.031
67361SOL     OW 3921  13.656   2.810   3.304
67361SOL    HW1 3922  13.598   2.735   3.297
67361SOL    HW2 3923  13.709   2.806   3.224
67362SOL     OW 3924  12.524   4.108   3.723
67362SOL    HW1 3925  12.478   4.029   3.749
67362SOL    HW2 3926  12.495   4.174   3.786
67363SOL     OW 3927   3.805  13.158  11.077
67363SOL    HW1 3928   3.747  13.189  11.146
67363SOL    HW2 3929   3.747  13.114  11.014
67364SOL     OW 3930   9.517   7.202   5.096
67364SOL    HW1 3931   9.519   7.265   5.168
67364SOL    HW2 3932   9.609   7.192   5.072
67365SOL     OW 3933   4.897   0.745   8.917
67365SOL    HW1 3934   4.934   0.828   8.948
67365SOL    HW2 3935   4.809   0.768   8.887
67366SOL     OW 3936  11.515   2.404  12.319
67366SOL    HW1 3937  11.496   2.487  12.277
67366SOL    HW2 3938  11.432   2.356  12.318
67367SOL     OW 3939   3.316   4.190   5.523
67367SOL    HW1 3940   3.312   4.162   5.615
67367SOL    HW2 3941   3.232   4.165   5.486
67368SOL     OW 3942   6.514  13.609  10.490
67368SOL    HW1 3943   6.444  13.553  10.523
67368SOL    HW2 3944   6.580  13.608  10.560
67369SOL     OW 3945  14.825  12.737   6.080
67369SOL    HW1 3946  14.839  12.766   5.990
67369SOL    HW2 3947  14.730  12.723   6.086
67370SOL     OW 3948  12.556   8.183   3.957
67370SOL    HW1 3949  12.530   8.269   3.991
67370SOL    HW2 3950  12.566   8.198   3.863
67371SOL     OW 3951   7.924   8.525   3.386
67371SOL    HW1 3952   8.010   8.486   3.376
67371SOL    HW2 3953   7.885   8.479   3.460
67372SOL     OW 3954   5.468  12.801   9.312
67372SOL    HW1 3955   5.375  12.824   9.318
67372SOL    HW2 3956   5.469  12.720   9.262
67373SOL     OW 3957   9.397  13.126   3.623
67373SOL    HW1 3958   9.439  13.211   3.634
67373SOL    HW2 3959   9.303  13.145   3.622
67374SOL     OW 3960   9.579  12.026   3.642
67374SOL    HW1 3961   9.506  11.984   3.687
67374SOL    HW2 3962   9.579  12.116   3.676
67375SOL     OW 3963   3.655   2.364  10.647
67375SOL    HW1 3964   3.633   2.273  10.666
67375SOL    HW2 3965   3.699   2.361  10.562
67376SOL     OW 3966   0.900  13.123  11.820
67376SOL    HW1 3967   0.949  13.083  11.893
67376SOL    HW2 3968   0.815  13.147  11.859
67377SOL     OW 3969  12.674   1.246   9.962
67377SOL    HW1 3970  12.728   1.300   9.905
67377SOL    HW2 3971  12.720   1.245  10.045
67378SOL     OW 3972  13.032  14.276   5.105
67378SOL    HW1 3973  13.069  14.191   5.081
67378SOL    HW2 3974  12.985  14.304   5.026
67379SOL     OW 3975  11.669   8.510   8.476
67379SOL    HW1 3976  11.653   8.461   8.395
67379SOL    HW2 3977  11.582   8.528   8.510
67380SOL     OW 3978   2.458   6.042   4.884
67380SOL    HW1 3979   2.403   5.977   4.839
67380SOL    HW2 3980   2.486   5.997   4.964
67381SOL     OW 3981   4.335   5.665  12.579
67381SOL    HW1 3982   4.303   5.580  12.606
67381SOL    HW2 3983   4.274   5.728  12.619
67382SOL     OW 3984   8.217   0.738   6.580
67382SOL    HW1 3985   8.301   0.725   6.623
67382SOL    HW2 3986   8.192   0.651   6.549
67383SOL     OW 3987   6.128  14.791   0.293
67383SOL    HW1 3988   6.140  14.833   0.208
67383SOL    HW2 3989   6.126  14.863   0.355
67384SOL     OW 3990   3.028   2.745   6.056
67384SOL    HW1 3991   3.028   2.815   5.991
67384SOL    HW2 3992   3.062   2.786   6.135
67385SOL     OW 3993   3.332  10.443   6.296
67385SOL    HW1 3994   3.294  10.523   6.259
67385SOL    HW2 3995   3.361  10.393   6.220
67386SOL     OW 3996   2.709   7.629  10.656
67386SOL    HW1 3997   2.681   7.541  10.633
67386SOL    HW2 3998   2.649   7.686  10.608
67387SOL     OW 3999  13.556   9.252  14.547
67387SOL    HW1 4000  13.618   9.227  14.616
67387SOL    HW2 4001  13.592   9.332  14.510
67388SOL     OW 4002  11.626   3.328   5.809
67388SOL    HW1 4003  11.659   3.360   5.725
67388SOL    HW2 4004  11.554   3.269   5.785
67389SOL     OW 4005   7.715   1.498  13.049
67389SOL    HW1 4006   7.741   1.570  12.992
67389SOL    HW2 4007   7.771   1.507  13.126
67390SOL     OW 4008   1.365   3.300   8.237
67390SOL    HW1 4009   1.361   3.274   8.145
67390SOL    HW2 4010   1.458   3.294   8.260
67391SOL     OW 4011   8.486   0.365   9.760
67391SOL    HW1 4012   8.461   0.454   9.783
67391SOL    HW2 4013   8.551   0.376   9.690
67392SOL     OW 4014  10.344   7.131   7.048
67392SOL    HW1 4015  10.300   7.150   7.130
67392SOL    HW2 4016  10.275   7.135   6.982
67393SOL     OW 4017  10.617   4.730   1.222
67393SOL    HW1 4018  10.642   4.772   1.304
67393SOL    HW2 4019  10.623   4.800   1.156
67394SOL     OW 4020   0.297   2.992   3.151
67394SOL    HW1 4021   0.233   2.936   3.194
67394SOL    HW2 4022   0.358   3.017   3.222
67395SOL     OW 4023   2.371   6.588  13.096
67395SOL    HW1 4024   2.456   6.572  13.054
67395SOL    HW2 4025   2.345   6.675  13.065
67396SOL     OW 4026   1.176   7.790   0.678
67396SOL    HW1 4027   1.205   7.737   0.604
67396SOL    HW2 4028   1.189   7.733   0.754
67397SOL     OW 4029   4.828  13.571  13.422
67397SOL    HW1 4030   4.830  13.598  13.331
67397SOL    HW2 4031   4.739  13.593  13.451
67398SOL     OW 4032  12.985  13.471  13.281
67398SOL    HW1 4033  12.959  13.381  13.259
67398SOL    HW2 4034  13.047  13.496  13.213
67399SOL     OW 4035   7.660  13.256  14.760
67399SOL    HW1 4036   7.728  13.293  14.704
67399SOL    HW2 4037   7.601  13.329  14.779
67400SOL     OW 4038  13.512  13.089   7.827
67400SOL    HW1 4039  13.560  13.068   7.747
67400SOL    HW2 4040  13.580  13.095   7.895
67401SOL     OW 4041   4.896  14.595   1.061
67401SOL    HW1 4042   4.939  14.679   1.046
67401SOL    HW2 4043   4.968  14.532   1.069
67402SOL     OW 4044  11.578  10.941   3.413
67402SOL    HW1 4045  11.633  11.014   3.440
67402SOL    HW2 4046  11.499  10.950   3.467
67403SOL     OW 4047   8.198   9.237  13.976
67403SOL    HW1 4048   8.276   9.293  13.983
67403SOL    HW2 4049   8.221   9.174  13.908
67404SOL     OW 4050  13.130  13.895   2.526
67404SOL    HW1 4051  13.046  13.941   2.525
67404SOL    HW2 4052  13.192  13.961   2.558
67405SOL     OW 4053   3.531  11.334   5.086
67405SOL    HW1 4054   3.532  11.407   5.148
67405SOL    HW2 4055   3.623  11.308   5.078
67406SOL     OW 4056  14.769   0.890   3.262
67406SOL    HW1 4057  14.809   0.811   3.226
67406SOL    HW2 4058  14.686   0.899   3.216
67407SOL     OW 4059  13.336   0.595   4.075
67407SOL    HW1 4060  13.353   0.502   4.058
67407SOL    HW2 4061  13.386   0.641   4.008
67408SOL     OW 4062   0.143   2.670  13.896
67408SOL    HW1 4063   0.135   2.728  13.821
67408SOL    HW2 4064   0.186   2.592  13.862
67409SOL     OW 4065   2.778   9.342   8.144
67409SOL    HW1 4066   2.747   9.352   8.234
67409SOL    HW2 4067   2.747   9.420   8.099
67410SOL     OW 4068   4.069   4.117   2.681
67410SOL    HW1 4069   3.974   4.122   2.686
67410SOL    HW2 4070   4.093   4.039   2.731
67411SOL     OW 4071   4.398   8.235   4.330
67411SOL    HW1 4072   4.374   8.149   4.294
67411SOL    HW2 4073   4.447   8.214   4.409
67412SOL     OW 4074  13.164   1.966   6.509
67412SOL    HW1 4075  13.176   1.911   6.586
67412SOL    HW2 4076  13.251   2.002   6.491
67413SOL     OW 4077   6.094  14.276   8.367
67413SOL    HW1 4078   6.050  14.342   8.313
67413SOL    HW2 4079   6.043  14.272   8.447
67414SOL     OW 4080   4.316   8.965   4.287
67414SOL    HW1 4081   4.326   9.022   4.211
67414SOL    HW2 4082   4.337   9.020   4.362
67415SOL     OW 4083   8.098  11.494   8.174
67415SOL    HW1 4084   8.027  11.446   8.133
67415SOL    HW2 4085   8.056  11.542   8.246
67416SOL     OW 4086   0.757   3.324   1.114
67416SOL    HW1 4087   0.741   3.394   1.052
67416SOL    HW2 4088   0.736   3.244   1.066
67417SOL     OW 4089  12.757   7.141   1.667
67417SOL    HW1 4090  12.711   7.188   1.737
67417SOL    HW2 4091  12.704   7.158   1.589
67418SOL     OW 4092  10.977   1.010  10.802
67418SOL    HW1 4093  10.984   0.915  10.796
67418SOL    HW2 4094  10.907   1.033  10.741
67419SOL     OW 4095   8.038   6.277   7.631
67419SOL    HW1 4096   8.087   6.354   7.603
67419SOL    HW2 4097   7.962   6.275   7.574
67420SOL     OW 4098   6.229  10.555   4.100
67420SOL    HW1 4099   6.315  10.595   4.113
67420SOL    HW2 4100   6.247  10.470   4.060
67421SOL     OW 4101   2.846   7.582   2.074
67421SOL    HW1 4102   2.798   7.573   2.156
67421SOL    HW2 4103   2.938   7.577   2.101
67422SOL     OW 4104   0.553   8.602   5.768
67422SOL    HW1 4105   0.506   8.552   5.701
67422SOL    HW2 4106   0.530   8.560   5.850
67423SOL     OW 4107   4.402   6.412  12.355
67423SOL    HW1 4108   4.471   6.411  12.420
67423SOL    HW2 4109   4.322   6.391  12.404
67424SOL     OW 4110   9.385   5.002   4.925
67424SOL    HW1 4111   9.324   4.934   4.897
67424SOL    HW2 4112   9.330   5.078   4.944
67425SOL     OW 4113   8.417   4.303   9.097
67425SOL    HW1 4114   8.428   4.372   9.163
67425SOL    HW2 4115   8.421   4.222   9.147
67426SOL     OW 4116   9.233   4.864   0.380
67426SOL    HW1 4117   9.166   4.835   0.443
67426SOL    HW2 4118   9.203   4.950   0.351
67427SOL     OW 4119  10.362   3.779  10.648
67427SOL    HW1 4120  10.309   3.856  10.630
67427SOL    HW2 4121  10.316   3.708  10.603
67428SOL     OW 4122   4.005  13.100   1.437
67428SOL    HW1 4123   3.963  13.028   1.485
67428SOL    HW2 4124   4.055  13.147   1.504
67429SOL     OW 4125   7.099  12.115   7.053
67429SOL    HW1 4126   7.119  12.182   7.119
67429SOL    HW2 4127   7.003  12.109   7.054
67430SOL     OW 4128  14.212   4.558  14.339
67430SOL    HW1 4129  14.280   4.578  14.403
67430SOL    HW2 4130  14.131   4.587  14.380
67431SOL     OW 4131   9.240   8.541   2.457
67431SOL    HW1 4132   9.291   8.460   2.466
67431SOL    HW2 4133   9.301   8.603   2.417
67432SOL     OW 4134   5.278   3.456   9.086
67432SOL    HW1 4135   5.215   3.475   9.017
67432SOL    HW2 4136   5.285   3.537   9.136
67433SOL     OW 4137   7.619   1.460   8.695
67433SOL    HW1 4138   7.696   1.516   8.681
67433SOL    HW2 4139   7.547   1.521   8.708
67434SOL     OW 4140   5.432   0.556   3.244
67434SOL    HW1 4141   5.375   0.480   3.257
67434SOL    HW2 4142   5.431   0.571   3.150
67435SOL     OW 4143  11.150  13.067  10.312
67435SOL    HW1 4144  11.109  13.149  10.286
67435SOL    HW2 4145  11.236  13.093  10.347
67436SOL     OW 4146   3.875   8.370   8.875
67436SOL    HW1 4147   3.796   8.370   8.928
67436SOL    HW2 4148   3.922   8.449   8.903
67437SOL     OW 4149  11.219   4.746   7.988
67437SOL    HW1 4150  11.263   4.683   8.045
67437SOL    HW2 4151  11.136   4.705   7.967
67438SOL     OW 4152  13.948   3.643   3.941
67438SOL    HW1 4153  13.873   3.611   3.991
67438SOL    HW2 4154  13.947   3.738   3.952
67439SOL     OW 4155   8.487   8.394   0.226
67439SOL    HW1 4156   8.540   8.343   0.164
67439SOL    HW2 4157   8.488   8.483   0.190
67440SOL     OW 4158   8.182   7.637   8.976
67440SOL    HW1 4159   8.141   7.689   8.907
67440SOL    HW2 4160   8.178   7.547   8.944
67441SOL     OW 4161  10.658   1.115   7.971
67441SOL    HW1 4162  10.678   1.082   7.883
67441SOL    HW2 4163  10.563   1.119   7.974
67442SOL     OW 4164   1.108   6.610  14.655
67442SOL    HW1 4165   1.179   6.567  14.608
67442SOL    HW2 4166   1.064   6.663  14.588
67443SOL     OW 4167   2.750   9.102   9.338
67443SOL    HW1 4168   2.670   9.127   9.292
67443SOL    HW2 4169   2.741   9.140   9.425
67444SOL     OW 4170   4.011   4.011  11.136
67444SOL    HW1 4171   4.012   4.015  11.232
67444SOL    HW2 4172   4.061   3.932  11.115
67445SOL     OW 4173  11.834   3.341   0.711
67445SOL    HW1 4174  11.762   3.292   0.671
67445SOL    HW2 4175  11.829   3.319   0.804
67446SOL     OW 4176   0.272  14.579  14.258
67446SOL    HW1 4177   0.309  14.662  14.287
67446SOL    HW2 4178   0.178  14.587  14.275
67447SOL     OW 4179   1.101   2.035   8.870
67447SOL    HW1 4180   1.178   2.040   8.814
67447SOL    HW2 4181   1.071   2.125   8.878
67448SOL     OW 4182   0.862   4.764  12.592
67448SOL    HW1 4183   0.858   4.670  12.578
67448SOL    HW2 4184   0.906   4.799  12.515
67449SOL     OW 4185   6.529  11.350  12.255
67449SOL    HW1 4186   6.617  11.358  12.219
67449SOL    HW2 4187   6.539  11.370  12.348
67450SOL     OW 4188  11.116   5.135   0.671
67450SOL    HW1 4189  11.109   5.163   0.580
67450SOL    HW2 4190  11.172   5.200   0.712
67451SOL     OW 4191   6.111  11.076   0.791
67451SOL    HW1 4192   6.041  11.134   0.762
67451SOL    HW2 4193   6.067  11.010   0.845
67452SOL     OW 4194  13.740  11.217   2.133
67452SOL    HW1 4195  13.759  11.311   2.133
67452SOL    HW2 4196  13.749  11.190   2.224
67453SOL     OW 4197   9.771  13.692   6.215
67453SOL    HW1 4198   9.782  13.598   6.223
67453SOL    HW2 4199   9.701  13.714   6.277
67454SOL     OW 4200  11.261   6.609   3.956
67454SOL    HW1 4201  11.193   6.675   3.959
67454SOL    HW2 4202  11.215   6.525   3.965
67455SOL     OW 4203   9.345   5.187  14.557
67455SOL    HW1 4204   9.342   5.281  14.570
67455SOL    HW2 4205   9.254   5.162  14.540
67456SOL     OW 4206   3.911   0.141   3.885
67456SOL    HW1 4207   3.888   0.172   3.798
67456SOL    HW2 4208   3.997   0.180   3.903
67457SOL     OW 4209   7.414  14.856  13.705
67457SOL    HW1 4210   7.450   0.052  13.651
67457SOL    HW2 4211   7.369   0.027  13.777
67458SOL     OW 4212  11.894   3.710   5.993
67458SOL    HW1 4213  11.885   3.615   5.989
67458SOL    HW2 4214  11.987   3.725   5.978
67459SOL     OW 4215   8.641   2.547   1.299
67459SOL    HW1 4216   8.583   2.603   1.247
67459SOL    HW2 4217   8.595   2.537   1.383
67460SOL     OW 4218  14.032   3.572   9.751
67460SOL    HW1 4219  14.011   3.533   9.836
67460SOL    HW2 4220  14.005   3.663   9.759
67461SOL     OW 4221  11.435   5.953   8.009
67461SOL    HW1 4222  11.421   5.872   8.058
67461SOL    HW2 4223  11.474   5.925   7.926
67462SOL     OW 4224   2.166   7.153  11.754
67462SOL    HW1 4225   2.084   7.201  11.741
67462SOL    HW2 4226   2.229   7.198  11.698
67463SOL     OW 4227   6.096   1.184   1.278
67463SOL    HW1 4228   6.118   1.233   1.199
67463SOL    HW2 4229   6.078   1.095   1.247
67464SOL     OW 4230  14.432  13.064   8.808
67464SOL    HW1 4231  14.362  13.022   8.858
67464SOL    HW2 4232  14.477  12.992   8.764
67465SOL     OW 4233   3.185  12.566  13.787
67465SOL    HW1 4234   3.143  12.507  13.724
67465SOL    HW2 4235   3.277  12.570  13.759
67466SOL     OW 4236   9.615  14.284  13.267
67466SOL    HW1 4237   9.603  14.237  13.184
67466SOL    HW2 4238   9.558  14.360  13.260
67467SOL     OW 4239   7.081   0.443  11.122
67467SOL    HW1 4240   7.002   0.494  11.105
67467SOL    HW2 4241   7.097   0.455  11.216
67468SOL     OW 4242  14.044   7.562  11.006
67468SOL    HW1 4243  14.001   7.589  10.925
67468SOL    HW2 4244  14.092   7.640  11.035
67469SOL     OW 4245  10.354   4.281   8.181
67469SOL    HW1 4246  10.446   4.302   8.200
67469SOL    HW2 4247  10.346   4.188   8.199
67470SOL     OW 4248   6.200   9.253   6.130
67470SOL    HW1 4249   6.289   9.237   6.098
67470SOL    HW2 4250   6.187   9.188   6.199
67471SOL     OW 4251   6.720  14.172  13.174
67471SOL    HW1 4252   6.782  14.100  13.188
67471SOL    HW2 4253   6.643  14.148  13.224
67472SOL     OW 4254   1.123   5.054  11.169
67472SOL    HW1 4255   1.208   5.098  11.159
67472SOL    HW2 4256   1.146   4.962  11.183
67473SOL     OW 4257  13.853   7.721   4.379
67473SOL    HW1 4258  13.931   7.700   4.328
67473SOL    HW2 4259  13.866   7.811   4.408
67474SOL     OW 4260   4.066   9.579  10.739
67474SOL    HW1 4261   4.021   9.587  10.655
67474SOL    HW2 4262   4.125   9.654  10.743
67475SOL     OW 4263   3.473   8.930  12.577
67475SOL    HW1 4264   3.548   8.872  12.590
67475SOL    HW2 4265   3.493   9.006  12.631
67476SOL     OW 4266  11.984  14.599   4.482
67476SOL    HW1 4267  11.951  14.657   4.414
67476SOL    HW2 4268  11.906  14.575   4.533
67477SOL     OW 4269  14.559   0.933   9.782
67477SOL    HW1 4270  14.473   0.972   9.791
67477SOL    HW2 4271  14.543   0.838   9.782
67478SOL     OW 4272   1.875   1.269  13.435
67478SOL    HW1 4273   1.862   1.363  13.449
67478SOL    HW2 4274   1.946   1.264  13.372
67479SOL     OW 4275   8.933  11.260  12.237
67479SOL    HW1 4276   8.986  11.211  12.174
67479SOL    HW2 4277   8.979  11.249  12.320
67480SOL     OW 4278  11.203   8.637   6.633
67480SOL    HW1 4279  11.206   8.728   6.603
67480SOL    HW2 4280  11.271   8.593   6.581
67481SOL     OW 4281  11.056   9.196  14.253
67481SOL    HW1 4282  11.097   9.270  14.298
67481SOL    HW2 4283  11.054   9.126  14.318
67482SOL     OW 4284   1.202   4.048   4.762
67482SOL    HW1 4285   1.110   4.072   4.761
67482SOL    HW2 4286   1.208   3.972   4.703
67483SOL     OW 4287   4.000   6.139   0.442
67483SOL    HW1 4288   4.048   6.098   0.370
67483SOL    HW2 4289   3.940   6.071   0.473
67484SOL     OW 4290  11.243   1.961   0.948
67484SOL    HW1 4291  11.310   1.992   0.887
67484SOL    HW2 4292  11.171   1.933   0.892
67485SOL     OW 4293  13.723   2.830  11.742
67485SOL    HW1 4294  13.716   2.817  11.837
67485SOL    HW2 4295  13.785   2.902  11.731
67486SOL     OW 4296   5.876  12.415   2.027
67486SOL    HW1 4297   5.853  12.435   1.936
67486SOL    HW2 4298   5.826  12.336   2.047
67487SOL     OW 4299   9.325   6.130  14.835
67487SOL    HW1 4300   9.261   6.085   0.015
67487SOL    HW2 4301   9.369   6.191   0.021
67488SOL     OW 4302  12.379  10.789  11.274
67488SOL    HW1 4303  12.317  10.755  11.339
67488SOL    HW2 4304  12.458  10.807  11.324
67489SOL     OW 4305   6.950  11.442   0.248
67489SOL    HW1 4306   6.987  11.372   0.301
67489SOL    HW2 4307   6.869  11.405   0.213
67490SOL     OW 4308  13.105  13.987   0.250
67490SOL    HW1 4309  13.080  14.072   0.288
67490SOL    HW2 4310  13.054  13.923   0.298
67491SOL     OW 4311   8.685   8.848   4.522
67491SOL    HW1 4312   8.680   8.920   4.584
67491SOL    HW2 4313   8.778   8.827   4.517
67492SOL     OW 4314  13.360  10.937   6.604
67492SOL    HW1 4315  13.396  10.862   6.651
67492SOL    HW2 4316  13.273  10.909   6.576
67493SOL     OW 4317   1.326   6.741   6.641
67493SOL    HW1 4318   1.323   6.820   6.587
67493SOL    HW2 4319   1.419   6.731   6.663
67494SOL     OW 4320  13.586   0.033   9.380
67494SOL    HW1 4321  13.522   0.068   9.442
67494SOL    HW2 4322  13.604   0.106   9.321
67495SOL     OW 4323  14.157  13.083   9.815
67495SOL    HW1 4324  14.158  12.991   9.841
67495SOL    HW2 4325  14.138  13.130   9.896
67496SOL     OW 4326   8.194  10.787   4.782
67496SOL    HW1 4327   8.254  10.747   4.719
67496SOL    HW2 4328   8.164  10.714   4.836
67497SOL     OW 4329   3.423   8.174   2.365
67497SOL    HW1 4330   3.470   8.123   2.299
67497SOL    HW2 4331   3.462   8.261   2.361
67498SOL     OW 4332  13.789  12.989  11.792
67498SOL    HW1 4333  13.757  12.925  11.855
67498SOL    HW2 4334  13.747  12.966  11.710
67499SOL     OW 4335   8.749   2.627  13.152
67499SOL    HW1 4336   8.716   2.653  13.238
67499SOL    HW2 4337   8.673   2.635  13.094
67500SOL     OW 4338  10.793  13.846  11.399
67500SOL    HW1 4339  10.887  13.866  11.391
67500SOL    HW2 4340  10.791  13.762  11.444
67501SOL     OW 4341  13.237   4.409   6.474
67501SOL    HW1 4342  13.286   4.488   6.450
67501SOL    HW2 4343  13.277   4.339   6.423
67502SOL     OW 4344  13.184   1.154  10.166
67502SOL    HW1 4345  13.218   1.189  10.248
67502SOL    HW2 4346  13.262   1.145  10.111
67503SOL     OW 4347   5.545  14.107  10.500
67503SOL    HW1 4348   5.597  14.048  10.445
67503SOL    HW2 4349   5.454  14.087  10.477
67504SOL     OW 4350   1.408   0.726  14.857
67504SOL    HW1 4351   1.491   0.680  14.850
67504SOL    HW2 4352   1.420   0.786   0.057
67505SOL     OW 4353   0.975   2.399  13.156
67505SOL    HW1 4354   1.004   2.394  13.247
67505SOL    HW2 4355   0.891   2.353  13.154
67506SOL     OW 4356   3.660   0.273   5.474
67506SOL    HW1 4357   3.618   0.298   5.556
67506SOL    HW2 4358   3.590   0.234   5.421
67507SOL     OW 4359   2.217   2.469   0.716
67507SOL    HW1 4360   2.261   2.538   0.666
67507SOL    HW2 4361   2.282   2.440   0.779
67508SOL     OW 4362   9.386  13.282   6.274
67508SOL    HW1 4363   9.478  13.256   6.268
67508SOL    HW2 4364   9.377  13.319   6.361
67509SOL     OW 4365  10.544  11.161  12.708
67509SOL    HW1 4366  10.502  11.240  12.672
67509SOL    HW2 4367  10.596  11.194  12.782
67510SOL     OW 4368   8.884   7.714   1.979
67510SOL    HW1 4369   8.918   7.724   1.890
67510SOL    HW2 4370   8.943   7.765   2.034
67511SOL     OW 4371   2.337   7.509   9.741
67511SOL    HW1 4372   2.380   7.594   9.741
67511SOL    HW2 4373   2.299   7.501   9.828
67512SOL     OW 4374   0.641   6.827   1.316
67512SOL    HW1 4375   0.592   6.838   1.398
67512SOL    HW2 4376   0.713   6.769   1.339
67513SOL     OW 4377  12.354   9.812   9.870
67513SOL    HW1 4378  12.273   9.838   9.827
67513SOL    HW2 4379  12.402   9.761   9.805
67514SOL     OW 4380   4.912  12.647  11.326
67514SOL    HW1 4381   4.819  12.631  11.343
67514SOL    HW2 4382   4.950  12.660  11.413
67515SOL     OW 4383  11.311  11.514   6.280
67515SOL    HW1 4384  11.243  11.468   6.230
67515SOL    HW2 4385  11.288  11.498   6.371
67516SOL     OW 4386  12.251   8.610   5.213
67516SOL    HW1 4387  12.216   8.593   5.301
67516SOL    HW2 4388  12.322   8.673   5.227
67517SOL     OW 4389   9.286   8.104  14.189
67517SOL    HW1 4390   9.199   8.107  14.149
67517SOL    HW2 4391   9.313   8.012  14.181
67518SOL     OW 4392  11.202   4.938   9.591
67518SOL    HW1 4393  11.151   4.959   9.512
67518SOL    HW2 4394  11.139   4.944   9.662
67519SOL     OW 4395   9.650   6.320  14.570
67519SOL    HW1 4396   9.709   6.282  14.636
67519SOL    HW2 4397   9.610   6.395  14.613
67520SOL     OW 4398  12.062  13.080   5.775
67520SOL    HW1 4399  12.124  13.063   5.846
67520SOL    HW2 4400  11.979  13.097   5.820
67521SOL     OW 4401   1.916   6.878   8.687
67521SOL    HW1 4402   1.844   6.821   8.659
67521SOL    HW2 4403   1.981   6.818   8.724
67522SOL     OW 4404   1.702   5.113   1.167
67522SOL    HW1 4405   1.682   5.020   1.179
67522SOL    HW2 4406   1.782   5.114   1.114
67523SOL     OW 4407   1.889  10.494  14.112
67523SOL    HW1 4408   1.914  10.403  14.101
67523SOL    HW2 4409   1.966  10.536  14.150
67524SOL     OW 4410   9.553   3.993   3.203
67524SOL    HW1 4411   9.512   3.908   3.189
67524SOL    HW2 4412   9.530   4.016   3.293
67525SOL     OW 4413   9.787  12.087  11.781
67525SOL    HW1 4414   9.774  12.173  11.823
67525SOL    HW2 4415   9.808  12.107  11.690
67526SOL     OW 4416  10.236   0.144   2.524
67526SOL    HW1 4417  10.151   0.187   2.509
67526SOL    HW2 4418  10.296   0.188   2.464
67527SOL     OW 4419   7.368   8.341  12.791
67527SOL    HW1 4420   7.300   8.408  12.795
67527SOL    HW2 4421   7.354   8.297  12.707
67528SOL     OW 4422   9.693   1.529   4.563
67528SOL    HW1 4423   9.669   1.505   4.473
67528SOL    HW2 4424   9.767   1.472   4.583
67529SOL     OW 4425   2.322   3.125  10.566
67529SOL    HW1 4426   2.306   3.108  10.658
67529SOL    HW2 4427   2.353   3.041  10.531
67530SOL     OW 4428   7.872   8.747   0.484
67530SOL    HW1 4429   7.784   8.713   0.469
67530SOL    HW2 4430   7.931   8.676   0.459
67531SOL     OW 4431  12.673   5.075   9.513
67531SOL    HW1 4432  12.619   5.137   9.561
67531SOL    HW2 4433  12.672   4.996   9.567
67532SOL     OW 4434   5.783  12.198   4.979
67532SOL    HW1 4435   5.762  12.173   5.069
67532SOL    HW2 4436   5.861  12.253   4.987
67533SOL     OW 4437   6.214   2.879  12.871
67533SOL    HW1 4438   6.140   2.822  12.846
67533SOL    HW2 4439   6.204   2.956  12.815
67534SOL     OW 4440  13.699   0.614  14.017
67534SOL    HW1 4441  13.657   0.696  13.993
67534SOL    HW2 4442  13.687   0.557  13.941
67535SOL     OW 4443  11.775  14.278   2.978
67535SOL    HW1 4444  11.817  14.286   3.064
67535SOL    HW2 4445  11.777  14.366   2.942
67536SOL     OW 4446   1.642   8.624   7.976
67536SOL    HW1 4447   1.725   8.593   8.012
67536SOL    HW2 4448   1.640   8.717   7.998
67537SOL     OW 4449   7.770   8.641  12.534
67537SOL    HW1 4450   7.773   8.711  12.469
67537SOL    HW2 4451   7.756   8.686  12.618
67538SOL     OW 4452   5.141  12.884  10.061
67538SOL    HW1 4453   5.175  12.939   9.991
67538SOL    HW2 4454   5.097  12.812  10.017
67539SOL     OW 4455   4.550   8.355   6.159
67539SOL    HW1 4456   4.552   8.267   6.121
67539SOL    HW2 4457   4.634   8.394   6.135
67540SOL     OW 4458  13.113   0.868   6.144
67540SOL    HW1 4459  13.108   0.829   6.231
67540SOL    HW2 4460  13.023   0.891   6.122
67541SOL     OW 4461  12.484  13.009   2.474
67541SOL    HW1 4462  12.524  13.094   2.495
67541SOL    HW2 4463  12.395  13.031   2.445
67542SOL     OW 4464   5.566  14.377   9.435
67542SOL    HW1 4465   5.512  14.433   9.379
67542SOL    HW2 4466   5.531  14.391   9.523
67543SOL     OW 4467   9.520   2.058   9.766
67543SOL    HW1 4468   9.460   2.110   9.714
67543SOL    HW2 4469   9.539   1.981   9.711
67544SOL     OW 4470  14.018   8.493  12.367
67544SOL    HW1 4471  14.072   8.484  12.289
67544SOL    HW2 4472  13.944   8.546  12.339
67545SOL     OW 4473   2.148   3.765   5.615
67545SOL    HW1 4474   2.116   3.691   5.668
67545SOL    HW2 4475   2.148   3.731   5.525
67546SOL     OW 4476  11.569   4.847  13.096
67546SOL    HW1 4477  11.512   4.834  13.172
67546SOL    HW2 4478  11.519   4.814  13.022
67547SOL     OW 4479  13.403  14.283  14.313
67547SOL    HW1 4480  13.492  14.314  14.299
67547SOL    HW2 4481  13.398  14.202  14.263
67548SOL     OW 4482  11.859  14.748   9.936
67548SOL    HW1 4483  11.849  14.792  10.021
67548SOL    HW2 4484  11.879  14.819   9.875
67549SOL     OW 4485   1.138  12.656   1.729
67549SOL    HW1 4486   1.081  12.616   1.664
67549SOL    HW2 4487   1.224  12.658   1.687
67550SOL     OW 4488   9.333   5.079  11.988
67550SOL    HW1 4489   9.301   5.005  12.040
67550SOL    HW2 4490   9.277   5.080  11.911
67551SOL     OW 4491   4.057  10.323   6.591
67551SOL    HW1 4492   4.101  10.371   6.661
67551SOL    HW2 4493   4.044  10.235   6.626
67552SOL     OW 4494   5.507   2.789   3.413
67552SOL    HW1 4495   5.480   2.880   3.428
67552SOL    HW2 4496   5.463   2.739   3.482
67553SOL     OW 4497   6.916   4.972   6.883
67553SOL    HW1 4498   6.940   5.014   6.801
67553SOL    HW2 4499   6.836   5.017   6.911
67554SOL     OW 4500  13.285   9.643   3.881
67554SOL    HW1 4501  13.204   9.692   3.899
67554SOL    HW2 4502  13.287   9.575   3.948
67555SOL     OW 4503  12.474  14.265   1.216
67555SOL    HW1 4504  12.444  14.292   1.129
67555SOL    HW2 4505  12.513  14.345   1.253
67556SOL     OW 4506  12.285   1.387   3.229
67556SOL    HW1 4507  12.372   1.423   3.209
67556SOL    HW2 4508  12.301   1.295   3.249
67557SOL     OW 4509   5.360   0.398   9.679
67557SOL    HW1 4510   5.299   0.358   9.740
67557SOL    HW2 4511   5.309   0.414   9.600
67558SOL     OW 4512   8.902  13.680  10.394
67558SOL    HW1 4513   8.808  13.693  10.407
67558SOL    HW2 4514   8.908  13.621  10.318
67559SOL     OW 4515  12.512   3.176   2.889
67559SOL    HW1 4516  12.584   3.233   2.915
67559SOL    HW2 4517  12.533   3.091   2.929
67560SOL     OW 4518  11.201   3.837  13.120
67560SOL    HW1 4519  11.181   3.929  13.102
67560SOL    HW2 4520  11.206   3.832  13.215
67561SOL     OW 4521  12.802  12.678   4.252
67561SOL    HW1 4522  12.806  12.746   4.320
67561SOL    HW2 4523  12.710  12.652   4.249
67562SOL     OW 4524   3.796   7.045   4.738
67562SOL    HW1 4525   3.727   7.012   4.680
67562SOL    HW2 4526   3.823   6.969   4.789
67563SOL     OW 4527  10.967   2.926  14.590
67563SOL    HW1 4528  11.050   2.935  14.543
67563SOL    HW2 4529  10.979   2.848  14.645
67564SOL     OW 4530   2.389   8.841  14.796
67564SOL    HW1 4531   2.335   8.916  14.772
67564SOL    HW2 4532   2.358   8.770  14.740
67565SOL     OW 4533   0.394  14.147  11.500
67565SOL    HW1 4534   0.394  14.097  11.582
67565SOL    HW2 4535   0.483  14.137  11.466
67566SOL     OW 4536  13.303   2.175   6.150
67566SOL    HW1 4537  13.394   2.160   6.125
67566SOL    HW2 4538  13.273   2.244   6.090
67567SOL     OW 4539   4.629  11.255  13.143
67567SOL    HW1 4540   4.604  11.344  13.167
67567SOL    HW2 4541   4.558  11.224  13.087
67568SOL     OW 4542   8.406  12.231  14.223
67568SOL    HW1 4543   8.429  12.217  14.315
67568SOL    HW2 4544   8.333  12.171  14.208
67569SOL     OW 4545   7.806   1.280   8.558
67569SOL    HW1 4546   7.734   1.235   8.513
67569SOL    HW2 4547   7.767   1.310   8.640
67570SOL     OW 4548  12.747   1.314  13.716
67570SOL    HW1 4549  12.812   1.322  13.646
67570SOL    HW2 4550  12.668   1.283  13.671
67571SOL     OW 4551   1.812  14.793  12.676
67571SOL    HW1 4552   1.815   0.010  12.707
67571SOL    HW2 4553   1.860  14.794  12.594
67572SOL     OW 4554   1.664  13.924   4.631
67572SOL    HW1 4555   1.645  13.952   4.721
67572SOL    HW2 4556   1.689  13.832   4.639
67573SOL     OW 4557   1.231  12.845   3.567
67573SOL    HW1 4558   1.228  12.910   3.637
67573SOL    HW2 4559   1.279  12.888   3.496
67574SOL     OW 4560   6.663   9.177   3.813
67574SOL    HW1 4561   6.684   9.088   3.841
67574SOL    HW2 4562   6.742   9.228   3.829
67575SOL     OW 4563  10.914   5.465  11.223
67575SOL    HW1 4564  10.853   5.517  11.171
67575SOL    HW2 4565  10.957   5.408  11.159
67576SOL     OW 4566   2.334   0.838  10.707
67576SOL    HW1 4567   2.372   0.847  10.795
67576SOL    HW2 4568   2.247   0.802  10.722
67577SOL     OW 4569  14.276   0.066   9.029
67577SOL    HW1 4570  14.244   0.087   9.117
67577SOL    HW2 4571  14.370   0.078   9.034
67578SOL     OW 4572  10.491   3.099   6.970
67578SOL    HW1 4573  10.435   3.169   7.004
67578SOL    HW2 4574  10.486   3.109   6.875
67579SOL     OW 4575   3.035   1.895   8.416
67579SOL    HW1 4576   3.051   1.855   8.502
67579SOL    HW2 4577   2.969   1.839   8.375
67580SOL     OW 4578  11.696  12.005  12.288
67580SOL    HW1 4579  11.713  11.952  12.366
67580SOL    HW2 4580  11.704  11.943  12.215
67581SOL     OW 4581  14.043   4.075   8.298
67581SOL    HW1 4582  14.036   4.170   8.292
67581SOL    HW2 4583  13.952   4.045   8.304
67582SOL     OW 4584  10.077   0.815  13.033
67582SOL    HW1 4585   9.982   0.822  13.019
67582SOL    HW2 4586  10.108   0.906  13.030
67583SOL     OW 4587   9.706  12.878   7.177
67583SOL    HW1 4588   9.722  12.933   7.254
67583SOL    HW2 4589   9.791  12.871   7.134
67584SOL     OW 4590   8.187   6.555   2.155
67584SOL    HW1 4591   8.268   6.520   2.119
67584SOL    HW2 4592   8.133   6.478   2.174
67585SOL     OW 4593  13.102  13.163   0.985
67585SOL    HW1 4594  13.170  13.179   0.919
67585SOL    HW2 4595  13.076  13.251   1.014
67586SOL     OW 4596   4.959  11.057   9.879
67586SOL    HW1 4597   4.893  11.028   9.943
67586SOL    HW2 4598   4.926  11.140   9.846
67587SOL     OW 4599   6.862  14.574   5.165
67587SOL    HW1 4600   6.938  14.630   5.152
67587SOL    HW2 4601   6.878  14.529   5.248
67588SOL     OW 4602   8.753  12.656  11.419
67588SOL    HW1 4603   8.676  12.712  11.430
67588SOL    HW2 4604   8.717  12.570  11.398
67589SOL     OW 4605   8.594   6.335   9.850
67589SOL    HW1 4606   8.508   6.321   9.810
67589SOL    HW2 4607   8.627   6.247   9.867
67590SOL     OW 4608   1.421   6.515  12.500
67590SOL    HW1 4609   1.396   6.589  12.445
67590SOL    HW2 4610   1.462   6.453  12.440
67591SOL     OW 4611   2.484   6.797  12.751
67591SOL    HW1 4612   2.528   6.789  12.836
67591SOL    HW2 4613   2.433   6.716  12.744
67592SOL     OW 4614  13.908  10.181   9.291
67592SOL    HW1 4615  13.957  10.260   9.265
67592SOL    HW2 4616  13.830  10.182   9.235
67593SOL     OW 4617   0.486  10.319   5.993
67593SOL    HW1 4618   0.548  10.392   5.980
67593SOL    HW2 4619   0.413  10.339   5.934
67594SOL     OW 4620   1.142   6.782   1.953
67594SOL    HW1 4621   1.148   6.775   1.858
67594SOL    HW2 4622   1.229   6.809   1.981
67595SOL     OW 4623   6.185  13.518   8.194
67595SOL    HW1 4624   6.245  13.592   8.200
67595SOL    HW2 4625   6.109  13.552   8.147
67596SOL     OW 4626  13.790   6.462   6.904
67596SOL    HW1 4627  13.859   6.527   6.913
67596SOL    HW2 4628  13.770   6.436   6.994
67597SOL     OW 4629   7.446   6.172   7.732
67597SOL    HW1 4630   7.408   6.103   7.786
67597SOL    HW2 4631   7.372   6.212   7.687
67598SOL     OW 4632   6.969   9.758   2.897
67598SOL    HW1 4633   6.906   9.704   2.945
67598SOL    HW2 4634   7.031   9.788   2.964
67599SOL     OW 4635  13.607  10.586   0.972
67599SOL    HW1 4636  13.678  10.592   1.036
67599SOL    HW2 4637  13.634  10.516   0.913
67600SOL     OW 4638  12.073   4.123   7.890
67600SOL    HW1 4639  12.077   4.144   7.983
67600SOL    HW2 4640  12.154   4.158   7.853
67601SOL     OW 4641   6.253  11.805   4.572
67601SOL    HW1 4642   6.308  11.746   4.623
67601SOL    HW2 4643   6.195  11.845   4.637
67602SOL     OW 4644   8.328  10.211   2.106
67602SOL    HW1 4645   8.241  10.237   2.078
67602SOL    HW2 4646   8.374  10.294   2.121
67603SOL     OW 4647   9.693   0.355  14.375
67603SOL    HW1 4648   9.722   0.330  14.463
67603SOL    HW2 4649   9.623   0.418  14.390
67604SOL     OW 4650   8.103  11.822   2.305
67604SOL    HW1 4651   8.093  11.833   2.210
67604SOL    HW2 4652   8.132  11.732   2.316
67605SOL     OW 4653   7.936   2.280  11.676
67605SOL    HW1 4654   7.971   2.268  11.764
67605SOL    HW2 4655   8.007   2.252  11.618
67606SOL     OW 4656   8.253  12.043   8.915
67606SOL    HW1 4657   8.260  11.979   8.845
67606SOL    HW2 4658   8.192  12.004   8.978
67607SOL     OW 4659   2.626   3.062  11.382
67607SOL    HW1 4660   2.690   3.021  11.440
67607SOL    HW2 4661   2.610   2.996  11.314
67608SOL     OW 4662  12.360   3.388   2.806
67608SOL    HW1 4663  12.404   3.306   2.826
67608SOL    HW2 4664  12.317   3.412   2.888
67609SOL     OW 4665  12.534   4.324  10.545
67609SOL    HW1 4666  12.458   4.361  10.590
67609SOL    HW2 4667  12.497   4.272  10.474
67610SOL     OW 4668   3.153  10.933   7.624
67610SOL    HW1 4669   3.082  10.997   7.633
67610SOL    HW2 4670   3.232  10.987   7.616
67611SOL     OW 4671  14.753  12.786   7.237
67611SOL    HW1 4672  14.823  12.721   7.239
67611SOL    HW2 4673  14.728  12.798   7.329
67612SOL     OW 4674   8.958   7.784   0.226
67612SOL    HW1 4675   9.026   7.808   0.163
67612SOL    HW2 4676   8.997   7.712   0.276
67613SOL     OW 4677   0.579   5.222   1.174
67613SOL    HW1 4678   0.496   5.228   1.220
67613SOL    HW2 4679   0.601   5.313   1.152
67614SOL     OW 4680   8.535   6.849  11.671
67614SOL    HW1 4681   8.604   6.909  11.699
67614SOL    HW2 4682   8.473   6.903  11.623
67615SOL     OW 4683   3.882   9.250   4.811
67615SOL    HW1 4684   3.968   9.252   4.853
67615SOL    HW2 4685   3.835   9.324   4.848
67616SOL     OW 4686   2.199  13.670   9.340
67616SOL    HW1 4687   2.179  13.760   9.364
67616SOL    HW2 4688   2.118  13.622   9.356
67617SOL     OW 4689   2.729  14.629   7.086
67617SOL    HW1 4690   2.683  14.552   7.118
67617SOL    HW2 4691   2.668  14.702   7.103
67618SOL     OW 4692   4.222   4.804  12.589
67618SOL    HW1 4693   4.238   4.761  12.673
67618SOL    HW2 4694   4.159   4.873  12.609
67619SOL     OW 4695   7.572  14.668  10.334
67619SOL    HW1 4696   7.641  14.711  10.283
67619SOL    HW2 4697   7.501  14.733  10.338
67620SOL     OW 4698   2.349   8.789   8.579
67620SOL    HW1 4699   2.301   8.871   8.588
67620SOL    HW2 4700   2.353   8.753   8.668
67621SOL     OW 4701   2.117  14.528   6.251
67621SOL    HW1 4702   2.198  14.579   6.248
67621SOL    HW2 4703   2.104  14.510   6.345
67622SOL     OW 4704   2.022   6.913   8.199
67622SOL    HW1 4705   2.007   6.842   8.262
67622SOL    HW2 4706   2.109   6.895   8.163
67623SOL     OW 4707  14.537   9.337   3.358
67623SOL    HW1 4708  14.548   9.377   3.445
67623SOL    HW2 4709  14.518   9.245   3.376
67624SOL     OW 4710  14.677   6.067   2.087
67624SOL    HW1 4711  14.587   6.045   2.111
67624SOL    HW2 4712  14.683   6.041   1.994
67625SOL     OW 4713  11.551  12.581   6.089
67625SOL    HW1 4714  11.620  12.515   6.085
67625SOL    HW2 4715  11.480  12.545   6.035
67626SOL     OW 4716   6.984   6.615   7.149
67626SOL    HW1 4717   6.931   6.584   7.223
67626SOL    HW2 4718   6.942   6.697   7.122
67627SOL     OW 4719   9.718   7.117  13.325
67627SOL    HW1 4720   9.806   7.113  13.362
67627SOL    HW2 4721   9.701   7.211  13.316
67628SOL     OW 4722   8.134   3.031   2.878
67628SOL    HW1 4723   8.049   2.986   2.874
67628SOL    HW2 4724   8.145   3.052   2.970
67629SOL     OW 4725   4.211   2.224   9.908
67629SOL    HW1 4726   4.174   2.245   9.994
67629SOL    HW2 4727   4.241   2.134   9.916
67630SOL     OW 4728  11.154   9.019  12.626
67630SOL    HW1 4729  11.250   9.011  12.626
67630SOL    HW2 4730  11.135   9.079  12.697
67631SOL     OW 4731   1.120   8.946   1.072
67631SOL    HW1 4732   1.115   8.850   1.066
67631SOL    HW2 4733   1.214   8.964   1.078
67632SOL     OW 4734   5.142   2.460   4.515
67632SOL    HW1 4735   5.177   2.418   4.436
67632SOL    HW2 4736   5.177   2.408   4.587
67633SOL     OW 4737  11.300   7.924  12.086
67633SOL    HW1 4738  11.337   7.990  12.145
67633SOL    HW2 4739  11.354   7.846  12.100
67634SOL     OW 4740  13.063   0.121   9.835
67634SOL    HW1 4741  13.006   0.093   9.907
67634SOL    HW2 4742  13.150   0.088   9.858
67635SOL     OW 4743  12.749   1.454   5.548
67635SOL    HW1 4744  12.681   1.440   5.615
67635SOL    HW2 4745  12.707   1.512   5.484
67636SOL     OW 4746   7.765  11.430   9.435
67636SOL    HW1 4747   7.745  11.353   9.382
67636SOL    HW2 4748   7.758  11.503   9.374
67637SOL     OW 4749   4.693   4.519   5.663
67637SOL    HW1 4750   4.717   4.440   5.712
67637SOL    HW2 4751   4.736   4.509   5.578
67638SOL     OW 4752  12.801   9.262   2.160
67638SOL    HW1 4753  12.795   9.217   2.243
67638SOL    HW2 4754  12.770   9.351   2.178
67639SOL     OW 4755  14.261  11.044   7.274
67639SOL    HW1 4756  14.356  11.049   7.274
67639SOL    HW2 4757  14.232  11.131   7.247
67640SOL     OW 4758   7.620   5.293   3.922
67640SOL    HW1 4759   7.612   5.388   3.908
67640SOL    HW2 4760   7.659   5.285   4.009
67641SOL     OW 4761   5.701   9.673   7.652
67641SOL    HW1 4762   5.767   9.709   7.593
67641SOL    HW2 4763   5.677   9.589   7.612
67642SOL     OW 4764  14.536   5.217   8.315
67642SOL    HW1 4765  14.444   5.201   8.336
67642SOL    HW2 4766  14.558   5.148   8.252
67643SOL     OW 4767   7.077   0.391   7.354
67643SOL    HW1 4768   7.132   0.354   7.285
67643SOL    HW2 4769   7.089   0.486   7.345
67644SOL     OW 4770  10.617   0.304   2.555
67644SOL    HW1 4771  10.627   0.272   2.644
67644SOL    HW2 4772  10.700   0.347   2.535
67645SOL     OW 4773  12.662   1.592   4.091
67645SOL    HW1 4774  12.567   1.580   4.096
67645SOL    HW2 4775  12.697   1.503   4.085
67646SOL     OW 4776  14.116  13.622   0.419
67646SOL    HW1 4777  14.175  13.631   0.344
67646SOL    HW2 4778  14.174  13.613   0.494
67647SOL     OW 4779   0.006   3.777  14.465
67647SOL    HW1 4780  14.806   3.792  14.524
67647SOL    HW2 4781  14.854   3.701  14.413
67648SOL     OW 4782   3.448  11.653   4.198
67648SOL    HW1 4783   3.428  11.559   4.192
67648SOL    HW2 4784   3.396  11.693   4.129
67649SOL     OW 4785   8.146   5.651   9.227
67649SOL    HW1 4786   8.108   5.595   9.159
67649SOL    HW2 4787   8.231   5.677   9.193
67650SOL     OW 4788  12.862  14.400   7.557
67650SOL    HW1 4789  12.786  14.365   7.511
67650SOL    HW2 4790  12.937  14.352   7.521
67651SOL     OW 4791  11.374   4.966  11.835
67651SOL    HW1 4792  11.322   5.015  11.898
67651SOL    HW2 4793  11.465   4.984  11.861
67652SOL     OW 4794   3.300   1.135  13.012
67652SOL    HW1 4795   3.370   1.091  13.060
67652SOL    HW2 4796   3.249   1.064  12.973
67653SOL     OW 4797   4.054  11.745   6.916
67653SOL    HW1 4798   4.064  11.653   6.893
67653SOL    HW2 4799   4.121  11.761   6.982
67654SOL     OW 4800   0.126  14.523   8.573
67654SOL    HW1 4801   0.046  14.576   8.576
67654SOL    HW2 4802   0.145  14.503   8.665
67655SOL     OW 4803  10.020  14.502   4.996
67655SOL    HW1 4804  10.052  14.575   5.049
67655SOL    HW2 4805  10.095  14.477   4.942
67656SOL     OW 4806   5.490   8.855   5.544
67656SOL    HW1 4807   5.410   8.864   5.597
67656SOL    HW2 4808   5.474   8.777   5.491
67657SOL     OW 4809   4.965   0.208   0.445
67657SOL    HW1 4810   4.973   0.187   0.352
67657SOL    HW2 4811   5.048   0.179   0.484
67658SOL     OW 4812   8.434  12.520   6.229
67658SOL    HW1 4813   8.510  12.558   6.185
67658SOL    HW2 4814   8.422  12.573   6.307
67659SOL     OW 4815   6.007   6.897  14.444
67659SOL    HW1 4816   6.054   6.962  14.393
67659SOL    HW2 4817   5.921   6.891  14.402
67660SOL     OW 4818   6.116  11.181  12.949
67660SOL    HW1 4819   6.118  11.248  13.018
67660SOL    HW2 4820   6.207  11.152  12.941
67661SOL     OW 4821  12.880  12.741   9.240
67661SOL    HW1 4822  12.813  12.770   9.178
67661SOL    HW2 4823  12.888  12.647   9.225
67662SOL     OW 4824   6.432  14.048   1.830
67662SOL    HW1 4825   6.410  14.088   1.745
67662SOL    HW2 4826   6.501  14.104   1.866
67663SOL     OW 4827  13.123  11.209   1.162
67663SOL    HW1 4828  13.050  11.221   1.102
67663SOL    HW2 4829  13.132  11.115   1.171
67664SOL     OW 4830   5.551   2.181   9.209
67664SOL    HW1 4831   5.583   2.090   9.205
67664SOL    HW2 4832   5.594   2.217   9.287
67665SOL     OW 4833  12.554   4.830   3.144
67665SOL    HW1 4834  12.648   4.845   3.153
67665SOL    HW2 4835  12.541   4.812   3.051
67666SOL     OW 4836   7.598  10.239   3.720
67666SOL    HW1 4837   7.642  10.185   3.786
67666SOL    HW2 4838   7.582  10.323   3.764
67667SOL     OW 4839  12.994   1.065  10.650
67667SOL    HW1 4840  12.970   0.973  10.647
67667SOL    HW2 4841  12.911   1.112  10.660
67668SOL     OW 4842   6.817  11.145   1.374
67668SOL    HW1 4843   6.804  11.068   1.430
67668SOL    HW2 4844   6.752  11.134   1.304
67669SOL     OW 4845   0.404   1.907   6.754
67669SOL    HW1 4846   0.317   1.931   6.724
67669SOL    HW2 4847   0.390   1.873   6.843
67670SOL     OW 4848   5.964  13.636  12.186
67670SOL    HW1 4849   6.005  13.668  12.267
67670SOL    HW2 4850   5.915  13.710  12.153
67671SOL     OW 4851   3.404  11.673  14.782
67671SOL    HW1 4852   3.386  11.749  14.727
67671SOL    HW2 4853   3.384  11.598  14.726
67672SOL     OW 4854   0.707  13.043  13.120
67672SOL    HW1 4855   0.700  12.948  13.112
67672SOL    HW2 4856   0.722  13.059  13.213
67673SOL     OW 4857  10.095   7.860   1.524
67673SOL    HW1 4858  10.111   7.917   1.449
67673SOL    HW2 4859  10.142   7.779   1.504
67674SOL     OW 4860   0.899  11.631   8.779
67674SOL    HW1 4861   0.935  11.712   8.816
67674SOL    HW2 4862   0.900  11.570   8.853
67675SOL     OW 4863   5.349  13.832  11.662
67675SOL    HW1 4864   5.421  13.794  11.713
67675SOL    HW2 4865   5.335  13.769  11.591
67676SOL     OW 4866   0.587   7.583   1.830
67676SOL    HW1 4867   0.636   7.663   1.813
67676SOL    HW2 4868   0.569   7.546   1.744
67677SOL     OW 4869   4.490   5.670  13.563
67677SOL    HW1 4870   4.568   5.616  13.553
67677SOL    HW2 4871   4.469   5.699  13.474
67678SOL     OW 4872  12.075  10.421  13.514
67678SOL    HW1 4873  12.076  10.476  13.436
67678SOL    HW2 4874  12.142  10.354  13.498
67679SOL     OW 4875   1.891   4.258   9.814
67679SOL    HW1 4876   1.801   4.292   9.817
67679SOL    HW2 4877   1.886   4.175   9.860
67680SOL     OW 4878   8.489   6.470  10.063
67680SOL    HW1 4879   8.396   6.465  10.044
67680SOL    HW2 4880   8.530   6.411   9.999
67681SOL     OW 4881   3.011   6.458  12.703
67681SOL    HW1 4882   3.093   6.505  12.716
67681SOL    HW2 4883   3.016   6.384  12.764
67682SOL     OW 4884   4.301   2.272   2.861
67682SOL    HW1 4885   4.271   2.344   2.806
67682SOL    HW2 4886   4.348   2.215   2.801
67683SOL     OW 4887  14.201  11.511  12.873
67683SOL    HW1 4888  14.212  11.585  12.933
67683SOL    HW2 4889  14.274  11.519  12.811
67684SOL     OW 4890   3.421   8.598  10.241
67684SOL    HW1 4891   3.425   8.588  10.337
67684SOL    HW2 4892   3.444   8.689  10.225
67685SOL     OW 4893  11.358  12.400  10.466
67685SOL    HW1 4894  11.423  12.354  10.413
67685SOL    HW2 4895  11.296  12.435  10.402
67686SOL     OW 4896  14.754  11.283  13.929
67686SOL    HW1 4897  14.705  11.202  13.939
67686SOL    HW2 4898  14.840  11.257  13.897
67687SOL     OW 4899   0.633  12.685  11.674
67687SOL    HW1 4900   0.689  12.762  11.685
67687SOL    HW2 4901   0.563  12.697  11.738
67688SOL     OW 4902   6.370   5.306   3.774
67688SOL    HW1 4903   6.393   5.370   3.841
67688SOL    HW2 4904   6.454   5.275   3.740
67689SOL     OW 4905   9.308   4.447   9.570
67689SOL    HW1 4906   9.339   4.392   9.643
67689SOL    HW2 4907   9.286   4.384   9.501
67690SOL     OW 4908   9.486   2.205  10.379
67690SOL    HW1 4909   9.414   2.148  10.350
67690SOL    HW2 4910   9.448   2.293  10.379
67691SOL     OW 4911  12.787  14.409   6.665
67691SOL    HW1 4912  12.779  14.411   6.760
67691SOL    HW2 4913  12.714  14.355   6.636
67692SOL     OW 4914   7.286   4.089  12.118
67692SOL    HW1 4915   7.266   3.997  12.097
67692SOL    HW2 4916   7.202   4.125  12.148
67693SOL     OW 4917   0.409   8.695   2.988
67693SOL    HW1 4918   0.326   8.684   2.940
67693SOL    HW2 4919   0.403   8.633   3.061
67694SOL     OW 4920  10.107   3.263   8.625
67694SOL    HW1 4921  10.102   3.272   8.720
67694SOL    HW2 4922  10.099   3.169   8.609
67695SOL     OW 4923   8.364   4.508   5.509
67695SOL    HW1 4924   8.276   4.472   5.499
67695SOL    HW2 4925   8.422   4.434   5.492
67696SOL     OW 4926  13.586   5.393   7.454
67696SOL    HW1 4927  13.577   5.418   7.546
67696SOL    HW2 4928  13.654   5.451   7.420
67697SOL     OW 4929   3.484   2.363  11.973
67697SOL    HW1 4930   3.449   2.353  12.061
67697SOL    HW2 4931   3.535   2.444  11.976
67698SOL     OW 4932   1.633   1.027   0.459
67698SOL    HW1 4933   1.674   1.102   0.416
67698SOL    HW2 4934   1.587   1.065   0.535
67699SOL     OW 4935   1.666   1.965   9.037
67699SOL    HW1 4936   1.698   1.973   9.127
67699SOL    HW2 4937   1.617   2.046   9.022
67700SOL     OW 4938   1.643   8.888   1.009
67700SOL    HW1 4939   1.575   8.929   1.062
67700SOL    HW2 4940   1.722   8.892   1.063
67701SOL     OW 4941  14.772   4.810   4.736
67701SOL    HW1 4942  14.706   4.879   4.740
67701SOL    HW2 4943  14.724   4.731   4.712
67702SOL     OW 4944  14.655   3.717   6.608
67702SOL    HW1 4945  14.613   3.793   6.569
67702SOL    HW2 4946  14.588   3.677   6.662
67703SOL     OW 4947   8.944   2.135   5.542
67703SOL    HW1 4948   8.983   2.120   5.628
67703SOL    HW2 4949   8.903   2.051   5.519
67704SOL     OW 4950   3.834  10.849   1.604
67704SOL    HW1 4951   3.870  10.850   1.515
67704SOL    HW2 4952   3.740  10.840   1.591
67705SOL     OW 4953   4.774   2.524   5.087
67705SOL    HW1 4954   4.746   2.470   5.161
67705SOL    HW2 4955   4.725   2.489   5.013
67706SOL     OW 4956   0.099   2.718   8.876
67706SOL    HW1 4957   0.043   2.790   8.905
67706SOL    HW2 4958   0.152   2.697   8.953
67707SOL     OW 4959   4.207   5.043  14.192
67707SOL    HW1 4960   4.192   5.124  14.143
67707SOL    HW2 4961   4.158   5.055  14.274
67708SOL     OW 4962  11.895   2.805   7.733
67708SOL    HW1 4963  11.874   2.768   7.646
67708SOL    HW2 4964  11.895   2.899   7.719
67709SOL     OW 4965   5.016   7.228   3.313
67709SOL    HW1 4966   5.009   7.323   3.328
67709SOL    HW2 4967   4.927   7.195   3.325
67710SOL     OW 4968  13.015   7.833   7.001
67710SOL    HW1 4969  12.946   7.831   6.934
67710SOL    HW2 4970  12.998   7.912   7.051
67711SOL     OW 4971   1.995  13.638   4.358
67711SOL    HW1 4972   2.091  13.632   4.363
67711SOL    HW2 4973   1.966  13.622   4.448
67712SOL     OW 4974   9.081  13.072  13.650
67712SOL    HW1 4975   9.048  13.081  13.561
67712SOL    HW2 4976   9.160  13.126  13.652
67713SOL     OW 4977  10.630   1.996   9.488
67713SOL    HW1 4978  10.719   1.979   9.519
67713SOL    HW2 4979  10.573   1.946   9.546
67714SOL     OW 4980  12.874   6.326   4.860
67714SOL    HW1 4981  12.921   6.361   4.783
67714SOL    HW2 4982  12.934   6.260   4.896
67715SOL     OW 4983   1.954   3.509  10.647
67715SOL    HW1 4984   2.043   3.491  10.678
67715SOL    HW2 4985   1.914   3.422  10.638
67716SOL     OW 4986   0.083   1.386   2.345
67716SOL    HW1 4987   0.102   1.452   2.412
67716SOL    HW2 4988   0.012   1.333   2.383
67717SOL     OW 4989   6.910  11.656   3.666
67717SOL    HW1 4990   6.877  11.609   3.590
67717SOL    HW2 4991   6.933  11.743   3.633
67718SOL     OW 4992  12.213  11.651   4.749
67718SOL    HW1 4993  12.180  11.615   4.831
67718SOL    HW2 4994  12.307  11.635   4.751
67719SOL     OW 4995   8.710   1.796   7.387
67719SOL    HW1 4996   8.624   1.836   7.372
67719SOL    HW2 4997   8.752   1.797   7.302
67720SOL     OW 4998   4.233   5.851  10.169
67720SOL    HW1 4999   4.257   5.807  10.251
67720SOL    HW2 5000   4.138   5.854  10.171
67721SOL     OW 5001   3.774   9.118   1.148
67721SOL    HW1 5002   3.780   9.186   1.216
67721SOL    HW2 5003   3.680   9.107   1.134
67722SOL     OW 5004   0.856  11.929   4.595
67722SOL    HW1 5005   0.914  11.955   4.666
67722SOL    HW2 5006   0.868  11.834   4.587
67723SOL     OW 5007  10.172  12.435   9.073
67723SOL    HW1 5008  10.251  12.382   9.058
67723SOL    HW2 5009  10.173  12.500   9.002
67724SOL     OW 5010   0.347   1.694  13.791
67724SOL    HW1 5011   0.382   1.619  13.839
67724SOL    HW2 5012   0.376   1.770  13.841
67725SOL     OW 5013   3.878   5.814   7.822
67725SOL    HW1 5014   3.878   5.785   7.913
67725SOL    HW2 5015   3.967   5.846   7.806
67726SOL     OW 5016  11.820  12.603  11.159
67726SOL    HW1 5017  11.914  12.617  11.150
67726SOL    HW2 5018  11.783  12.692  11.160
67727SOL     OW 5019   9.313   6.562   8.281
67727SOL    HW1 5020   9.396   6.515   8.293
67727SOL    HW2 5021   9.253   6.496   8.246
67728SOL     OW 5022  14.622   8.908  10.150
67728SOL    HW1 5023  14.640   8.968  10.078
67728SOL    HW2 5024  14.653   8.823  10.120
67729SOL     OW 5025   4.688   3.785   4.393
67729SOL    HW1 5026   4.609   3.816   4.437
67729SOL    HW2 5027   4.759   3.838   4.431
67730SOL     OW 5028  14.560   6.431  13.809
67730SOL    HW1 5029  14.589   6.511  13.853
67730SOL    HW2 5030  14.505   6.461  13.737
67731SOL     OW 5031  12.378  11.502  10.909
67731SOL    HW1 5032  12.472  11.491  10.895
67731SOL    HW2 5033  12.356  11.436  10.975
67732SOL     OW 5034   2.629   7.385   0.643
67732SOL    HW1 5035   2.635   7.337   0.725
67732SOL    HW2 5036   2.538   7.375   0.615
67733SOL     OW 5037   4.655   1.576  13.021
67733SOL    HW1 5038   4.675   1.504  13.081
67733SOL    HW2 5039   4.723   1.571  12.954
67734SOL     OW 5040  13.615   1.496  12.657
67734SOL    HW1 5041  13.649   1.409  12.678
67734SOL    HW2 5042  13.528   1.480  12.622
67735SOL     OW 5043  13.018   1.678   2.885
67735SOL    HW1 5044  12.992   1.706   2.973
67735SOL    HW2 5045  13.113   1.664   2.891
67736SOL     OW 5046  11.378  12.074   0.084
67736SOL    HW1 5047  11.349  12.085  14.868
67736SOL    HW2 5048  11.471  12.052   0.077
67737SOL     OW 5049   9.278   8.192   9.656
67737SOL    HW1 5050   9.330   8.121   9.694
67737SOL    HW2 5051   9.260   8.162   9.567
67738SOL     OW 5052   9.364  10.619   5.511
67738SOL    HW1 5053   9.397  10.531   5.526
67738SOL    HW2 5054   9.269  10.610   5.513
67739SOL     OW 5055   7.699   4.297   5.777
67739SOL    HW1 5056   7.669   4.384   5.752
67739SOL    HW2 5057   7.736   4.308   5.865
67740SOL     OW 5058   8.770   8.863  11.148
67740SOL    HW1 5059   8.759   8.893  11.058
67740SOL    HW2 5060   8.836   8.921  11.184
67741SOL     OW 5061   9.413  12.489  14.712
67741SOL    HW1 5062   9.397  12.458  14.623
67741SOL    HW2 5063   9.329  12.525  14.740
67742SOL     OW 5064  13.525   5.584  10.949
67742SOL    HW1 5065  13.442   5.591  10.902
67742SOL    HW2 5066  13.520   5.651  11.017
67743SOL     OW 5067   5.245  13.343  12.381
67743SOL    HW1 5068   5.167  13.369  12.333
67743SOL    HW2 5069   5.212  13.304  12.462
67744SOL     OW 5070  13.799   4.842   2.660
67744SOL    HW1 5071  13.875   4.836   2.603
67744SOL    HW2 5072  13.741   4.906   2.618
67745SOL     OW 5073   5.713   3.113   8.432
67745SOL    HW1 5074   5.785   3.057   8.462
67745SOL    HW2 5075   5.728   3.124   8.338
67746SOL     OW 5076  10.962   2.876   5.932
67746SOL    HW1 5077  10.995   2.798   5.976
67746SOL    HW2 5078  10.871   2.882   5.961
67747SOL     OW 5079   0.594   2.200  11.070
67747SOL    HW1 5080   0.532   2.258  11.113
67747SOL    HW2 5081   0.680   2.238  11.092
67748SOL     OW 5082  12.623  13.480   2.601
67748SOL    HW1 5083  12.660  13.495   2.513
67748SOL    HW2 5084  12.569  13.557   2.617
67749SOL     OW 5085  10.923   7.983   7.562
67749SOL    HW1 5086  10.853   7.926   7.595
67749SOL    HW2 5087  10.940   8.045   7.633
67750SOL     OW 5088   1.842  13.188   2.205
67750SOL    HW1 5089   1.859  13.208   2.297
67750SOL    HW2 5090   1.801  13.268   2.171
67751SOL     OW 5091  12.487   8.135   9.322
67751SOL    HW1 5092  12.438   8.070   9.272
67751SOL    HW2 5093  12.454   8.127   9.411
67752SOL     OW 5094  14.449   4.119  10.326
67752SOL    HW1 5095  14.456   4.127  10.231
67752SOL    HW2 5096  14.514   4.181  10.360
67753SOL     OW 5097   4.959  11.588   5.752
67753SOL    HW1 5098   4.963  11.500   5.790
67753SOL    HW2 5099   4.865  11.607   5.744
67754SOL     OW 5100   1.609  12.434   0.374
67754SOL    HW1 5101   1.694  12.415   0.335
67754SOL    HW2 5102   1.575  12.347   0.399
67755SOL     OW 5103   1.539  14.744   7.471
67755SOL    HW1 5104   1.624  14.719   7.508
67755SOL    HW2 5105   1.531  14.837   7.492
67756SOL     OW 5106   8.077   1.377   4.274
67756SOL    HW1 5107   8.118   1.377   4.187
67756SOL    HW2 5108   8.050   1.468   4.288
67757SOL     OW 5109   7.396   1.753  12.562
67757SOL    HW1 5110   7.466   1.786  12.619
67757SOL    HW2 5111   7.426   1.665  12.537
67758SOL     OW 5112   6.587   9.918   5.328
67758SOL    HW1 5113   6.652   9.891   5.392
67758SOL    HW2 5114   6.564  10.007   5.354
67759SOL     OW 5115   1.354   0.817   5.545
67759SOL    HW1 5116   1.275   0.835   5.595
67759SOL    HW2 5117   1.426   0.830   5.607
67760SOL     OW 5118  11.891   9.798   7.114
67760SOL    HW1 5119  11.966   9.778   7.169
67760SOL    HW2 5120  11.853   9.713   7.093
67761SOL     OW 5121   0.453   5.933   4.767
67761SOL    HW1 5122   0.453   5.994   4.693
67761SOL    HW2 5123   0.365   5.895   4.766
67762SOL     OW 5124   3.213   8.893   8.606
67762SOL    HW1 5125   3.240   8.979   8.639
67762SOL    HW2 5126   3.176   8.912   8.519
67763SOL     OW 5127  12.523   1.214   5.090
67763SOL    HW1 5128  12.540   1.125   5.058
67763SOL    HW2 5129  12.443   1.205   5.142
67764SOL     OW 5130   0.027   5.797  13.284
67764SOL    HW1 5131   0.027   5.831  13.195
67764SOL    HW2 5132  14.813   5.760  13.295
67765SOL     OW 5133   7.026   4.745   2.746
67765SOL    HW1 5134   6.949   4.798   2.726
67765SOL    HW2 5135   7.099   4.793   2.706
67766SOL     OW 5136  14.850   1.788  11.030
67766SOL    HW1 5137  14.855   1.731  11.107
67766SOL    HW2 5138  14.837   1.728  10.957
67767SOL     OW 5139  11.973   3.217   1.831
67767SOL    HW1 5140  11.927   3.168   1.763
67767SOL    HW2 5141  12.016   3.150   1.885
67768SOL     OW 5142   3.165   6.522  14.397
67768SOL    HW1 5143   3.244   6.571  14.419
67768SOL    HW2 5144   3.177   6.497  14.306
67769SOL     OW 5145  13.848  11.738   7.405
67769SOL    HW1 5146  13.934  11.745   7.364
67769SOL    HW2 5147  13.825  11.828   7.429
67770SOL     OW 5148   2.100   4.927  13.025
67770SOL    HW1 5149   2.012   4.915  13.060
67770SOL    HW2 5150   2.091   4.907  12.932
67771SOL     OW 5151   9.631   0.526   0.081
67771SOL    HW1 5152   9.549   0.478   0.090
67771SOL    HW2 5153   9.674   0.517   0.166
67772SOL     OW 5154   7.399  12.346  10.356
67772SOL    HW1 5155   7.494  12.350  10.364
67772SOL    HW2 5156   7.373  12.437  10.342
67773SOL     OW 5157  13.637   5.317   5.895
67773SOL    HW1 5158  13.637   5.397   5.948
67773SOL    HW2 5159  13.728   5.303   5.872
67774SOL     OW 5160  13.525   6.711   2.875
67774SOL    HW1 5161  13.470   6.768   2.928
67774SOL    HW2 5162  13.600   6.765   2.850
67775SOL     OW 5163   9.708   2.409  11.727
67775SOL    HW1 5164   9.648   2.376  11.660
67775SOL    HW2 5165   9.788   2.358  11.714
67776SOL     OW 5166   2.151   1.518   4.025
67776SOL    HW1 5167   2.144   1.522   4.121
67776SOL    HW2 5168   2.061   1.502   3.995
67777SOL     OW 5169  12.436  14.414  12.903
67777SOL    HW1 5170  12.498  14.440  12.972
67777SOL    HW2 5171  12.350  14.422  12.945
67778SOL     OW 5172   5.341   1.822   7.722
67778SOL    HW1 5173   5.284   1.898   7.733
67778SOL    HW2 5174   5.282   1.747   7.720
67779SOL     OW 5175   0.991   8.661  12.215
67779SOL    HW1 5176   0.932   8.589  12.194
67779SOL    HW2 5177   1.021   8.694  12.130
67780SOL     OW 5178   8.317   5.281   3.409
67780SOL    HW1 5179   8.388   5.294   3.346
67780SOL    HW2 5180   8.315   5.362   3.460
67781SOL     OW 5181   9.107  11.219   7.063
67781SOL    HW1 5182   9.173  11.171   7.013
67781SOL    HW2 5183   9.025  11.174   7.044
67782SOL     OW 5184   5.775  11.231  10.067
67782SOL    HW1 5185   5.771  11.264   9.977
67782SOL    HW2 5186   5.858  11.184  10.071
67783SOL     OW 5187   4.603  12.031  14.746
67783SOL    HW1 5188   4.626  11.952  14.795
67783SOL    HW2 5189   4.568  12.091  14.812
67784SOL     OW 5190   0.235   1.917   8.120
67784SOL    HW1 5191   0.314   1.925   8.174
67784SOL    HW2 5192   0.173   1.978   8.158
67785SOL     OW 5193   7.615  12.222   7.808
67785SOL    HW1 5194   7.524  12.222   7.837
67785SOL    HW2 5195   7.612  12.265   7.722
67786SOL     OW 5196   3.591   9.300  14.731
67786SOL    HW1 5197   3.582   9.312  14.637
67786SOL    HW2 5198   3.539   9.371  14.769
67787SOL     OW 5199   1.729   0.087  14.032
67787SOL    HW1 5200   1.802   0.070  14.091
67787SOL    HW2 5201   1.683   0.003  14.025
67788SOL     OW 5202   9.984   4.607  10.678
67788SOL    HW1 5203   9.931   4.583  10.754
67788SOL    HW2 5204   9.957   4.546  10.609
67789SOL     OW 5205   9.980  14.323   9.025
67789SOL    HW1 5206   9.997  14.358   9.112
67789SOL    HW2 5207  10.065  14.321   8.983
67790SOL     OW 5208  10.778   8.977   3.993
67790SOL    HW1 5209  10.854   8.935   3.952
67790SOL    HW2 5210  10.726   8.905   4.028
67791SOL     OW 5211   9.775  13.072  11.724
67791SOL    HW1 5212   9.799  13.164  11.716
67791SOL    HW2 5213   9.755  13.045  11.634
67792SOL     OW 5214   3.874   0.561  13.269
67792SOL    HW1 5215   3.782   0.551  13.293
67792SOL    HW2 5216   3.917   0.590  13.350
67793SOL     OW 5217   3.208  10.515   3.522
67793SOL    HW1 5218   3.168  10.573   3.587
67793SOL    HW2 5219   3.275  10.467   3.570
67794SOL     OW 5220   1.289  11.759  14.098
67794SOL    HW1 5221   1.248  11.845  14.110
67794SOL    HW2 5222   1.380  11.779  14.076
67795SOL     OW 5223   8.667   7.396   1.790
67795SOL    HW1 5224   8.606   7.465   1.765
67795SOL    HW2 5225   8.730   7.392   1.718
67796SOL     OW 5226   6.508   6.327   5.591
67796SOL    HW1 5227   6.436   6.361   5.644
67796SOL    HW2 5228   6.499   6.371   5.506
67797SOL     OW 5229  11.449  10.043   6.135
67797SOL    HW1 5230  11.436  10.055   6.040
67797SOL    HW2 5231  11.434   9.950   6.149
67798SOL     OW 5232  14.328   4.703   7.701
67798SOL    HW1 5233  14.249   4.670   7.745
67798SOL    HW2 5234  14.389   4.630   7.702
67799SOL     OW 5235  12.288   4.036   5.233
67799SOL    HW1 5236  12.334   4.096   5.174
67799SOL    HW2 5237  12.321   3.949   5.209
67800SOL     OW 5238   7.273   4.223   2.503
67800SOL    HW1 5239   7.249   4.137   2.466
67800SOL    HW2 5240   7.318   4.202   2.585
67801SOL     OW 5241  11.350  10.088  10.851
67801SOL    HW1 5242  11.270  10.139  10.846
67801SOL    HW2 5243  11.405  10.122  10.781
67802SOL     OW 5244  12.198   8.072   7.292
67802SOL    HW1 5245  12.135   8.137   7.259
67802SOL    HW2 5246  12.146   7.993   7.306
67803SOL     OW 5247   5.940   0.268   6.909
67803SOL    HW1 5248   6.032   0.256   6.883
67803SOL    HW2 5249   5.945   0.291   7.002
67804SOL     OW 5250  12.858   9.904  13.544
67804SOL    HW1 5251  12.826   9.817  13.568
67804SOL    HW2 5252  12.953   9.898  13.549
67805SOL     OW 5253  14.722  10.088   3.693
67805SOL    HW1 5254  14.795  10.135   3.734
67805SOL    HW2 5255  14.761  10.010   3.655
67806SOL     OW 5256   3.066  12.176   3.513
67806SOL    HW1 5257   3.141  12.134   3.555
67806SOL    HW2 5258   3.015  12.104   3.477
67807SOL     OW 5259   1.557   0.391   1.306
67807SOL    HW1 5260   1.547   0.464   1.367
67807SOL    HW2 5261   1.468   0.361   1.290
67808SOL     OW 5262   8.986  11.600   2.484
67808SOL    HW1 5263   8.922  11.671   2.471
67808SOL    HW2 5264   8.966  11.567   2.571
67809SOL     OW 5265   3.222  12.175   8.707
67809SOL    HW1 5266   3.206  12.081   8.692
67809SOL    HW2 5267   3.148  12.219   8.666
67810SOL     OW 5268   6.143  14.605  13.060
67810SOL    HW1 5269   6.233  14.603  13.091
67810SOL    HW2 5270   6.150  14.628  12.967
67811SOL     OW 5271   8.531  10.817   3.996
67811SOL    HW1 5272   8.558  10.728   4.014
67811SOL    HW2 5273   8.550  10.865   4.076
67812SOL     OW 5274  10.947  13.485  12.259
67812SOL    HW1 5275  10.867  13.472  12.209
67812SOL    HW2 5276  11.013  13.431  12.214
67813SOL     OW 5277  12.345   5.692  13.597
67813SOL    HW1 5278  12.273   5.720  13.654
67813SOL    HW2 5279  12.323   5.602  13.574
67814SOL     OW 5280   7.410  13.692   4.347
67814SOL    HW1 5281   7.486  13.641   4.320
67814SOL    HW2 5282   7.337  13.631   4.340
67815SOL     OW 5283  12.632  10.903  14.399
67815SOL    HW1 5284  12.705  10.943  14.351
67815SOL    HW2 5285  12.647  10.809  14.390
67816SOL     OW 5286   0.727   1.347   8.164
67816SOL    HW1 5287   0.723   1.324   8.071
67816SOL    HW2 5288   0.708   1.441   8.166
67817SOL     OW 5289   2.169   5.792   0.021
67817SOL    HW1 5290   2.088   5.747   0.045
67817SOL    HW2 5291   2.215   5.804   0.105
67818SOL     OW 5292  14.571  13.325   4.076
67818SOL    HW1 5293  14.533  13.249   4.121
67818SOL    HW2 5294  14.525  13.400   4.112
67819SOL     OW 5295  14.243  14.153  12.941
67819SOL    HW1 5296  14.230  14.248  12.948
67819SOL    HW2 5297  14.301  14.143  12.865
67820SOL     OW 5298  12.364   7.855  13.294
67820SOL    HW1 5299  12.412   7.823  13.218
67820SOL    HW2 5300  12.419   7.924  13.331
67821SOL     OW 5301   4.632   1.870   2.654
67821SOL    HW1 5302   4.686   1.906   2.725
67821SOL    HW2 5303   4.690   1.873   2.578
67822SOL     OW 5304   1.102  13.432   4.735
67822SOL    HW1 5305   1.100  13.504   4.798
67822SOL    HW2 5306   1.066  13.468   4.655
67823SOL     OW 5307   5.288  10.712   0.146
67823SOL    HW1 5308   5.278  10.628   0.102
67823SOL    HW2 5309   5.257  10.776   0.082
67824SOL     OW 5310  12.439  11.224   2.869
67824SOL    HW1 5311  12.367  11.282   2.845
67824SOL    HW2 5312  12.438  11.156   2.803
67825SOL     OW 5313   3.167   9.732   2.911
67825SOL    HW1 5314   3.109   9.659   2.934
67825SOL    HW2 5315   3.233   9.733   2.980
67826SOL     OW 5316   2.291   8.556   0.366
67826SOL    HW1 5317   2.283   8.593   0.454
67826SOL    HW2 5318   2.308   8.632   0.309
67827SOL     OW 5319   6.805  14.500   3.566
67827SOL    HW1 5320   6.839  14.507   3.477
67827SOL    HW2 5321   6.881  14.513   3.622
67828SOL     OW 5322  10.219   1.632  12.640
67828SOL    HW1 5323  10.236   1.723  12.618
67828SOL    HW2 5324  10.171   1.597  12.565
67829SOL     OW 5325  14.177  12.432   3.874
67829SOL    HW1 5326  14.092  12.405   3.909
67829SOL    HW2 5327  14.215  12.485   3.944
67830SOL     OW 5328   3.368  12.531   5.306
67830SOL    HW1 5329   3.317  12.597   5.259
67830SOL    HW2 5330   3.341  12.541   5.397
67831SOL     OW 5331  11.369  13.927  12.030
67831SOL    HW1 5332  11.449  13.937  11.977
67831SOL    HW2 5333  11.394  13.867  12.100
67832SOL     OW 5334   3.994  11.622  10.167
67832SOL    HW1 5335   3.954  11.702  10.131
67832SOL    HW2 5336   4.082  11.649  10.194
67833SOL     OW 5337  10.855   7.359  12.138
67833SOL    HW1 5338  10.906   7.424  12.186
67833SOL    HW2 5339  10.774   7.350  12.188
67834SOL     OW 5340  14.601   5.505   0.813
67834SOL    HW1 5341  14.562   5.584   0.775
67834SOL    HW2 5342  14.545   5.434   0.781
67835SOL     OW 5343   4.492  10.558  11.955
67835SOL    HW1 5344   4.433  10.600  11.891
67835SOL    HW2 5345   4.503  10.624  12.024
67836SOL     OW 5346   7.557   2.609  12.851
67836SOL    HW1 5347   7.470   2.602  12.812
67836SOL    HW2 5348   7.616   2.618  12.776
67837SOL     OW 5349   1.202   5.779  13.249
67837SOL    HW1 5350   1.266   5.838  13.209
67837SOL    HW2 5351   1.118   5.804  13.210
67838SOL     OW 5352  10.394   1.384   3.217
67838SOL    HW1 5353  10.330   1.341   3.273
67838SOL    HW2 5354  10.422   1.317   3.155
67839SOL     OW 5355   0.464  13.552  13.456
67839SOL    HW1 5356   0.459  13.535  13.550
67839SOL    HW2 5357   0.472  13.647  13.449
67840SOL     OW 5358   9.430   7.107  10.575
67840SOL    HW1 5359   9.374   7.142  10.507
67840SOL    HW2 5360   9.378   7.113  10.655
67841SOL     OW 5361   8.616   6.189   5.705
67841SOL    HW1 5362   8.588   6.281   5.707
67841SOL    HW2 5363   8.703   6.190   5.665
67842SOL     OW 5364   9.625   1.761  13.809
67842SOL    HW1 5365   9.718   1.780  13.798
67842SOL    HW2 5366   9.588   1.842  13.845
67843SOL     OW 5367   9.233  11.607  13.885
67843SOL    HW1 5368   9.191  11.632  13.967
67843SOL    HW2 5369   9.230  11.685  13.830
67844SOL     OW 5370   5.058   9.907  14.690
67844SOL    HW1 5371   5.125   9.867  14.746
67844SOL    HW2 5372   5.055   9.851  14.612
67845SOL     OW 5373   0.564   4.044   9.096
67845SOL    HW1 5374   0.492   4.102   9.069
67845SOL    HW2 5375   0.622   4.100   9.147
67846SOL     OW 5376   9.771   9.052   1.645
67846SOL    HW1 5377   9.823   9.120   1.689
67846SOL    HW2 5378   9.752   8.988   1.713
67847SOL     OW 5379   7.333   5.290   2.860
67847SOL    HW1 5380   7.332   5.209   2.808
67847SOL    HW2 5381   7.426   5.311   2.867
67848SOL     OW 5382   6.984  10.277   7.477
67848SOL    HW1 5383   6.924  10.350   7.461
67848SOL    HW2 5384   6.971  10.219   7.402
67849SOL     OW 5385   6.220   5.965  10.443
67849SOL    HW1 5386   6.249   5.875  10.433
67849SOL    HW2 5387   6.127   5.963  10.424
67850SOL     OW 5388   2.701   1.532   0.372
67850SOL    HW1 5389   2.693   1.621   0.337
67850SOL    HW2 5390   2.623   1.486   0.340
67851SOL     OW 5391   1.244   1.589   9.036
67851SOL    HW1 5392   1.172   1.530   9.059
67851SOL    HW2 5393   1.290   1.544   8.966
67852SOL     OW 5394   7.096   8.322   2.694
67852SOL    HW1 5395   7.033   8.329   2.765
67852SOL    HW2 5396   7.086   8.404   2.645
67853SOL     OW 5397  11.624   9.864   5.536
67853SOL    HW1 5398  11.611   9.947   5.582
67853SOL    HW2 5399  11.539   9.846   5.495
67854SOL     OW 5400   6.455  11.938  10.677
67854SOL    HW1 5401   6.444  12.002  10.749
67854SOL    HW2 5402   6.371  11.893  10.673
67855SOL     OW 5403  13.413  11.888   4.313
67855SOL    HW1 5404  13.350  11.959   4.313
67855SOL    HW2 5405  13.459  11.896   4.230
67856SOL     OW 5406   1.413  11.969  11.433
67856SOL    HW1 5407   1.475  11.902  11.401
67856SOL    HW2 5408   1.328  11.925  11.429
67857SOL     OW 5409  12.744   4.629   5.249
67857SOL    HW1 5410  12.791   4.610   5.167
67857SOL    HW2 5411  12.657   4.593   5.235
67858SOL     OW 5412   8.524   9.626   9.870
67858SOL    HW1 5413   8.619   9.640   9.861
67858SOL    HW2 5414   8.486   9.712   9.856
67859SOL     OW 5415   4.745   5.189   1.809
67859SOL    HW1 5416   4.742   5.117   1.746
67859SOL    HW2 5417   4.782   5.262   1.759
67860SOL     OW 5418  13.010   5.509  12.742
67860SOL    HW1 5419  13.089   5.555  12.713
67860SOL    HW2 5420  13.028   5.486  12.833
67861SOL     OW 5421  12.764   1.321   6.967
67861SOL    HW1 5422  12.767   1.245   7.024
67861SOL    HW2 5423  12.671   1.340   6.957
67862SOL     OW 5424   4.836  13.609  11.107
67862SOL    HW1 5425   4.794  13.555  11.174
67862SOL    HW2 5426   4.776  13.683  11.096
67863SOL     OW 5427   8.020   1.108   0.038
67863SOL    HW1 5428   8.010   1.013   0.044
67863SOL    HW2 5429   8.058   1.123  14.825
67864SOL     OW 5430   9.910   7.885   3.878
67864SOL    HW1 5431   9.866   7.902   3.961
67864SOL    HW2 5432   9.847   7.913   3.811
67865SOL     OW 5433   2.676   7.836  13.948
67865SOL    HW1 5434   2.615   7.806  13.880
67865SOL    HW2 5435   2.620   7.857  14.023
67866SOL     OW 5436   7.800  13.177   6.780
67866SOL    HW1 5437   7.843  13.095   6.801
67866SOL    HW2 5438   7.727  13.183   6.842
67867SOL     OW 5439   9.286  13.966  13.674
67867SOL    HW1 5440   9.290  14.059  13.651
67867SOL    HW2 5441   9.290  13.965  13.770
67868SOL     OW 5442  13.363   0.562   9.280
67868SOL    HW1 5443  13.317   0.533   9.201
67868SOL    HW2 5444  13.452   0.528   9.268
67869SOL     OW 5445  12.660   6.826   8.884
67869SOL    HW1 5446  12.736   6.842   8.940
67869SOL    HW2 5447  12.641   6.910   8.844
67870SOL     OW 5448   2.985  10.722   4.868
67870SOL    HW1 5449   2.921  10.698   4.801
67870SOL    HW2 5450   3.070  10.704   4.827
67871SOL     OW 5451   9.955   1.208   5.192
67871SOL    HW1 5452   9.956   1.184   5.100
67871SOL    HW2 5453   9.973   1.302   5.193
67872SOL     OW 5454   7.485   7.760   3.565
67872SOL    HW1 5455   7.567   7.764   3.517
67872SOL    HW2 5456   7.424   7.717   3.505
67873SOL     OW 5457   3.091   9.010   7.327
67873SOL    HW1 5458   3.069   9.077   7.263
67873SOL    HW2 5459   3.134   9.058   7.398
67874SOL     OW 5460   8.550  14.098  11.823
67874SOL    HW1 5461   8.494  14.028  11.855
67874SOL    HW2 5462   8.552  14.086  11.728
67875SOL     OW 5463   5.984  13.155   3.174
67875SOL    HW1 5464   6.023  13.243   3.179
67875SOL    HW2 5465   5.900  13.165   3.219
67876SOL     OW 5466   6.085  12.674   6.596
67876SOL    HW1 5467   6.032  12.677   6.517
67876SOL    HW2 5468   6.049  12.602   6.647
67877SOL     OW 5469   5.203   9.649   9.896
67877SOL    HW1 5470   5.151   9.607   9.828
67877SOL    HW2 5471   5.159   9.733   9.911
67878SOL     OW 5472  12.823   1.788   2.727
67878SOL    HW1 5473  12.872   1.743   2.795
67878SOL    HW2 5474  12.888   1.839   2.680
67879SOL     OW 5475  10.844   1.292   8.494
67879SOL    HW1 5476  10.911   1.264   8.556
67879SOL    HW2 5477  10.893   1.311   8.413
67880SOL     OW 5478  11.819   0.299   0.569
67880SOL    HW1 5479  11.807   0.352   0.647
67880SOL    HW2 5480  11.805   0.360   0.496
67881SOL     OW 5481  14.812   2.918  11.820
67881SOL    HW1 5482  14.804   2.823  11.809
67881SOL    HW2 5483  14.725   2.951  11.798
67882SOL     OW 5484  11.176   6.587   3.539
67882SOL    HW1 5485  11.222   6.646   3.480
67882SOL    HW2 5486  11.097   6.635   3.564
67883SOL     OW 5487   7.292  11.371  10.269
67883SOL    HW1 5488   7.282  11.458  10.307
67883SOL    HW2 5489   7.381  11.371  10.232
67884SOL     OW 5490   5.601  14.179   6.423
67884SOL    HW1 5491   5.508  14.201   6.418
67884SOL    HW2 5492   5.632  14.185   6.332
67885SOL     OW 5493  12.023  11.803   9.809
67885SOL    HW1 5494  12.107  11.759   9.797
67885SOL    HW2 5495  12.023  11.828   9.902
67886SOL     OW 5496   1.625   8.124   6.158
67886SOL    HW1 5497   1.612   8.177   6.080
67886SOL    HW2 5498   1.611   8.034   6.129
67887SOL     OW 5499  14.151  13.898  12.906
67887SOL    HW1 5500  14.199  13.980  12.900
67887SOL    HW2 5501  14.157  13.860  12.818
67888SOL     OW 5502   8.292   7.137   1.302
67888SOL    HW1 5503   8.276   7.139   1.396
67888SOL    HW2 5504   8.279   7.227   1.273
67889SOL     OW 5505   2.094   4.477   1.820
67889SOL    HW1 5506   2.158   4.408   1.803
67889SOL    HW2 5507   2.107   4.539   1.749
67890SOL     OW 5508   6.962   2.228  14.280
67890SOL    HW1 5509   6.982   2.275  14.361
67890SOL    HW2 5510   6.994   2.286  14.210
67891SOL     OW 5511  14.219  12.845  14.869
67891SOL    HW1 5512  14.269  12.768   0.022
67891SOL    HW2 5513  14.130  12.812  14.854
67892SOL     OW 5514  12.342   7.448  13.393
67892SOL    HW1 5515  12.320   7.360  13.423
67892SOL    HW2 5516  12.269   7.474  13.336
67893SOL     OW 5517  11.361   5.446   2.944
67893SOL    HW1 5518  11.377   5.402   2.860
67893SOL    HW2 5519  11.337   5.375   3.004
67894SOL     OW 5520  12.168  12.045   6.523
67894SOL    HW1 5521  12.260  12.056   6.547
67894SOL    HW2 5522  12.159  12.091   6.440
67895SOL     OW 5523   8.987   9.701   2.616
67895SOL    HW1 5524   8.998   9.785   2.571
67895SOL    HW2 5525   8.961   9.640   2.546
67896SOL     OW 5526   4.953  14.731   3.776
67896SOL    HW1 5527   4.986  14.710   3.863
67896SOL    HW2 5528   4.932  14.824   3.780
67897SOL     OW 5529   8.800   0.738  13.984
67897SOL    HW1 5530   8.824   0.744  13.891
67897SOL    HW2 5531   8.704   0.746  13.984
67898SOL     OW 5532   0.842   1.853  14.098
67898SOL    HW1 5533   0.784   1.799  14.152
67898SOL    HW2 5534   0.911   1.882  14.158
67899SOL     OW 5535   4.308  13.069  12.848
67899SOL    HW1 5536   4.338  12.986  12.811
67899SOL    HW2 5537   4.302  13.128  12.772
67900SOL     OW 5538   5.892   3.470   6.436
67900SOL    HW1 5539   5.854   3.473   6.524
67900SOL    HW2 5540   5.984   3.450   6.451
67901SOL     OW 5541  12.764   1.409   3.125
67901SOL    HW1 5542  12.698   1.386   3.060
67901SOL    HW2 5543  12.758   1.504   3.134
67902SOL     OW 5544  11.870   0.940   1.326
67902SOL    HW1 5545  11.831   0.862   1.287
67902SOL    HW2 5546  11.929   0.974   1.258
67903SOL     OW 5547   8.323   9.199   2.859
67903SOL    HW1 5548   8.398   9.258   2.851
67903SOL    HW2 5549   8.337   9.154   2.942
67904SOL     OW 5550   2.165   1.040   1.726
67904SOL    HW1 5551   2.235   1.035   1.792
67904SOL    HW2 5552   2.108   1.110   1.758
67905SOL     OW 5553  12.952  14.373  14.440
67905SOL    HW1 5554  13.026  14.357  14.498
67905SOL    HW2 5555  12.992  14.386  14.354
67906SOL     OW 5556   5.414  10.460   1.165
67906SOL    HW1 5557   5.487  10.520   1.150
67906SOL    HW2 5558   5.373  10.492   1.245
67907SOL     OW 5559  13.249   4.038  14.040
67907SOL    HW1 5560  13.188   3.982  14.088
67907SOL    HW2 5561  13.197   4.114  14.014
67908SOL     OW 5562  11.351   2.027   3.448
67908SOL    HW1 5563  11.326   2.069   3.530
67908SOL    HW2 5564  11.439   2.060   3.430
67909SOL     OW 5565   7.663  12.681  12.804
67909SOL    HW1 5566   7.702  12.636  12.879
67909SOL    HW2 5567   7.685  12.627  12.729
67910SOL     OW 5568   6.946   4.364   2.139
67910SOL    HW1 5569   6.885   4.408   2.197
67910SOL    HW2 5570   6.892   4.304   2.087
67911SOL     OW 5571  13.648   1.519  11.923
67911SOL    HW1 5572  13.621   1.526  11.831
67911SOL    HW2 5573  13.715   1.586  11.934
67912SOL     OW 5574   6.468   9.508   0.682
67912SOL    HW1 5575   6.492   9.547   0.766
67912SOL    HW2 5576   6.516   9.425   0.680
67913SOL     OW 5577   6.022   6.206   0.907
67913SOL    HW1 5578   6.101   6.154   0.923
67913SOL    HW2 5579   5.986   6.169   0.826
67914SOL     OW 5580   3.974  11.759   1.119
67914SOL    HW1 5581   3.897  11.775   1.064
67914SOL    HW2 5582   3.948  11.789   1.206
67915SOL     OW 5583  10.483  12.503   2.404
67915SOL    HW1 5584  10.397  12.538   2.427
67915SOL    HW2 5585  10.503  12.542   2.319
67916SOL     OW 5586   0.205  14.186  11.091
67916SOL    HW1 5587   0.201  14.272  11.132
67916SOL    HW2 5588   0.206  14.124  11.164
67917SOL     OW 5589  13.202   2.339   0.553
67917SOL    HW1 5590  13.268   2.288   0.506
67917SOL    HW2 5591  13.170   2.402   0.488
67918SOL     OW 5592   1.203  11.753   8.651
67918SOL    HW1 5593   1.146  11.829   8.661
67918SOL    HW2 5594   1.151  11.691   8.599
67919SOL     OW 5595  10.692   8.581   2.879
67919SOL    HW1 5596  10.696   8.580   2.783
67919SOL    HW2 5597  10.697   8.488   2.904
67920SOL     OW 5598   8.393   2.175  12.260
67920SOL    HW1 5599   8.438   2.120  12.195
67920SOL    HW2 5600   8.463   2.207  12.317
67921SOL     OW 5601  10.864   7.616   6.496
67921SOL    HW1 5602  10.903   7.596   6.411
67921SOL    HW2 5603  10.785   7.562   6.499
67922SOL     OW 5604   0.822   1.402   6.477
67922SOL    HW1 5605   0.823   1.487   6.434
67922SOL    HW2 5606   0.885   1.410   6.548
67923SOL     OW 5607   5.251   8.843   5.736
67923SOL    HW1 5608   5.172   8.813   5.781
67923SOL    HW2 5609   5.304   8.884   5.804
67924SOL     OW 5610   8.124   9.716  11.609
67924SOL    HW1 5611   8.060   9.695  11.541
67924SOL    HW2 5612   8.150   9.631  11.644
67925SOL     OW 5613   6.837  10.557   6.841
67925SOL    HW1 5614   6.873  10.545   6.929
67925SOL    HW2 5615   6.773  10.487   6.831
67926SOL     OW 5616   4.522  14.566  10.211
67926SOL    HW1 5617   4.581  14.624  10.260
67926SOL    HW2 5618   4.483  14.510  10.278
67927SOL     OW 5619   7.776   5.959   3.557
67927SOL    HW1 5620   7.852   5.904   3.576
67927SOL    HW2 5621   7.704   5.897   3.547
67928SOL     OW 5622  13.230   6.195   7.262
67928SOL    HW1 5623  13.318   6.221   7.289
67928SOL    HW2 5624  13.242   6.155   7.176
67929SOL     OW 5625   6.969   9.771  11.017
67929SOL    HW1 5626   6.966   9.866  11.004
67929SOL    HW2 5627   6.901   9.753  11.081
67930SOL     OW 5628   8.177   6.445  11.703
67930SOL    HW1 5629   8.143   6.534  11.713
67930SOL    HW2 5630   8.249   6.453  11.641
67931SOL     OW 5631   8.089   8.520  10.371
67931SOL    HW1 5632   8.148   8.451  10.402
67931SOL    HW2 5633   8.090   8.586  10.440
67932SOL     OW 5634   6.925   3.228  14.559
67932SOL    HW1 5635   6.892   3.246  14.647
67932SOL    HW2 5636   6.909   3.309  14.511
67933SOL     OW 5637   4.402   4.880   8.284
67933SOL    HW1 5638   4.334   4.820   8.255
67933SOL    HW2 5639   4.467   4.825   8.327
67934SOL     OW 5640  14.211   0.203  14.623
67934SOL    HW1 5641  14.287   0.249  14.659
67934SOL    HW2 5642  14.172   0.266  14.562
67935SOL     OW 5643   6.555  13.536   2.807
67935SOL    HW1 5644   6.535  13.588   2.885
67935SOL    HW2 5645   6.650  13.538   2.800
67936SOL     OW 5646  11.701   2.033  11.330
67936SOL    HW1 5647  11.724   1.941  11.321
67936SOL    HW2 5648  11.621   2.033  11.382
67937SOL     OW 5649  13.482   2.557   6.197
67937SOL    HW1 5650  13.420   2.579   6.266
67937SOL    HW2 5651  13.466   2.622   6.128
67938SOL     OW 5652   3.345  10.462   3.115
67938SOL    HW1 5653   3.414  10.396   3.122
67938SOL    HW2 5654   3.289  10.432   3.044
67939SOL     OW 5655   4.826   6.978  12.337
67939SOL    HW1 5656   4.810   6.889  12.306
67939SOL    HW2 5657   4.785   7.034  12.271
67940SOL     OW 5658  10.576   9.887   4.521
67940SOL    HW1 5659  10.495   9.934   4.540
67940SOL    HW2 5660  10.551   9.823   4.454
67941SOL     OW 5661   2.002   4.377   2.067
67941SOL    HW1 5662   2.062   4.304   2.084
67941SOL    HW2 5663   2.038   4.419   1.989
67942SOL     OW 5664  14.653   7.258  12.014
67942SOL    HW1 5665  14.641   7.335  11.959
67942SOL    HW2 5666  14.660   7.185  11.953
67943SOL     OW 5667   5.259   9.535  11.994
67943SOL    HW1 5668   5.255   9.629  11.973
67943SOL    HW2 5669   5.346   9.523  12.032
67944SOL     OW 5670   5.776  10.197  12.918
67944SOL    HW1 5671   5.762  10.285  12.954
67944SOL    HW2 5672   5.871  10.191  12.908
67945SOL     OW 5673   3.632  11.330  13.931
67945SOL    HW1 5674   3.699  11.269  13.899
67945SOL    HW2 5675   3.636  11.321  14.027
67946SOL     OW 5676   5.180  10.860   9.480
67946SOL    HW1 5677   5.206  10.923   9.548
67946SOL    HW2 5678   5.164  10.913   9.402
67947SOL     OW 5679   4.094   4.277  13.988
67947SOL    HW1 5680   4.132   4.241  13.908
67947SOL    HW2 5681   4.005   4.240  13.992
67948SOL     OW 5682  12.870  14.252   5.974
67948SOL    HW1 5683  12.928  14.322   6.003
67948SOL    HW2 5684  12.824  14.290   5.898
67949SOL     OW 5685   7.280  12.513   4.844
67949SOL    HW1 5686   7.185  12.502   4.839
67949SOL    HW2 5687   7.313  12.426   4.867
67950SOL     OW 5688   4.109  11.039  14.748
67950SOL    HW1 5689   4.180  11.028  14.811
67950SOL    HW2 5690   4.029  11.037  14.802
67951SOL     OW 5691   9.258  11.003   8.934
67951SOL    HW1 5692   9.311  11.053   8.872
67951SOL    HW2 5693   9.188  11.062   8.960
67952SOL     OW 5694   5.162   9.810   6.641
67952SOL    HW1 5695   5.091   9.779   6.696
67952SOL    HW2 5696   5.134   9.898   6.614
67953SOL     OW 5697   3.740   5.665   9.798
67953SOL    HW1 5698   3.716   5.649   9.707
67953SOL    HW2 5699   3.825   5.622   9.808
67954SOL     OW 5700  10.899   6.325   9.790
67954SOL    HW1 5701  10.835   6.311   9.860
67954SOL    HW2 5702  10.971   6.266   9.811
67955SOL     OW 5703  13.968   7.638   7.639
67955SOL    HW1 5704  14.001   7.656   7.727
67955SOL    HW2 5705  13.901   7.704   7.625
67956SOL     OW 5706  11.938   3.826  14.712
67956SOL    HW1 5707  11.851   3.860  14.731
67956SOL    HW2 5708  11.998   3.895  14.739
67957SOL     OW 5709   3.826   3.742   0.180
67957SOL    HW1 5710   3.818   3.654   0.218
67957SOL    HW2 5711   3.899   3.735   0.119
67958SOL     OW 5712   3.450   8.382  10.462
67958SOL    HW1 5713   3.370   8.391  10.410
67958SOL    HW2 5714   3.490   8.301  10.431
67959SOL     OW 5715  14.697  11.646   7.366
67959SOL    HW1 5716  14.745  11.597   7.301
67959SOL    HW2 5717  14.712  11.599   7.448
67960SOL     OW 5718   8.351   7.227   0.284
67960SOL    HW1 5719   8.390   7.314   0.279
67960SOL    HW2 5720   8.276   7.237   0.343
67961SOL     OW 5721   5.670   9.692   7.350
67961SOL    HW1 5722   5.662   9.600   7.374
67961SOL    HW2 5723   5.753   9.719   7.390
67962SOL     OW 5724   9.341   4.177   9.429
67962SOL    HW1 5725   9.400   4.162   9.356
67962SOL    HW2 5726   9.286   4.098   9.433
67963SOL     OW 5727   6.169   9.416   1.587
67963SOL    HW1 5728   6.108   9.343   1.594
67963SOL    HW2 5729   6.148   9.474   1.660
67964SOL     OW 5730   3.784   0.864  10.888
67964SOL    HW1 5731   3.832   0.782  10.889
67964SOL    HW2 5732   3.850   0.931  10.872
67965SOL     OW 5733  14.841   2.404  11.551
67965SOL    HW1 5734  14.781   2.408  11.477
67965SOL    HW2 5735   0.028   2.334  11.529
67966SOL     OW 5736   7.333   7.515   0.128
67966SOL    HW1 5737   7.270   7.582   0.099
67966SOL    HW2 5738   7.413   7.535   0.080
67967SOL     OW 5739   3.598   7.294   6.230
67967SOL    HW1 5740   3.509   7.261   6.232
67967SOL    HW2 5741   3.591   7.384   6.262
67968SOL     OW 5742   3.740   3.367   7.474
67968SOL    HW1 5743   3.676   3.389   7.542
67968SOL    HW2 5744   3.814   3.426   7.491
67969SOL     OW 5745   9.065   0.140   0.329
67969SOL    HW1 5746   9.105   0.129   0.415
67969SOL    HW2 5747   8.971   0.140   0.346
67970SOL     OW 5748  13.164   5.397   2.048
67970SOL    HW1 5749  13.232   5.451   2.008
67970SOL    HW2 5750  13.198   5.376   2.135
67971SOL     OW 5751   8.330   7.129   2.801
67971SOL    HW1 5752   8.273   7.071   2.852
67971SOL    HW2 5753   8.363   7.074   2.730
67972SOL     OW 5754   3.404   6.588   6.280
67972SOL    HW1 5755   3.397   6.493   6.293
67972SOL    HW2 5756   3.351   6.626   6.351
67973SOL     OW 5757  14.753   0.537  14.510
67973SOL    HW1 5758  14.836   0.514  14.467
67973SOL    HW2 5759  14.770   0.622  14.551
67974SOL     OW 5760  10.797  13.291   8.091
67974SOL    HW1 5761  10.759  13.219   8.141
67974SOL    HW2 5762  10.815  13.359   8.156
67975SOL     OW 5763   7.655   9.696  14.254
67975SOL    HW1 5764   7.626   9.681  14.344
67975SOL    HW2 5765   7.578   9.733  14.210
67976SOL     OW 5766   4.266   6.041   7.163
67976SOL    HW1 5767   4.277   5.947   7.180
67976SOL    HW2 5768   4.185   6.064   7.208
67977SOL     OW 5769   9.888   9.697   5.622
67977SOL    HW1 5770   9.813   9.641   5.602
67977SOL    HW2 5771   9.853   9.786   5.622
67978SOL     OW 5772   1.588   7.453   2.251
67978SOL    HW1 5773   1.571   7.547   2.242
67978SOL    HW2 5774   1.590   7.421   2.161
67979SOL     OW 5775   0.863   2.183   3.266
67979SOL    HW1 5776   0.910   2.148   3.191
67979SOL    HW2 5777   0.782   2.219   3.229
67980SOL     OW 5778  10.091   3.911  14.431
67980SOL    HW1 5779  10.108   3.927  14.338
67980SOL    HW2 5780   9.999   3.888  14.435
67981SOL     OW 5781  12.474   2.641   1.753
67981SOL    HW1 5782  12.460   2.648   1.658
67981SOL    HW2 5783  12.569   2.639   1.763
67982SOL     OW 5784  11.367   8.042   9.857
67982SOL    HW1 5785  11.395   8.103   9.789
67982SOL    HW2 5786  11.403   7.957   9.830
67983SOL     OW 5787   7.964   4.713   5.066
67983SOL    HW1 5788   8.046   4.682   5.026
67983SOL    HW2 5789   7.899   4.707   4.996
67984SOL     OW 5790   2.136   0.959   4.604
67984SOL    HW1 5791   2.120   0.877   4.556
67984SOL    HW2 5792   2.063   1.016   4.580
67985SOL     OW 5793  13.979   5.581  11.785
67985SOL    HW1 5794  14.070   5.579  11.814
67985SOL    HW2 5795  13.936   5.639  11.848
67986SOL     OW 5796   3.417   1.007   5.170
67986SOL    HW1 5797   3.334   1.049   5.150
67986SOL    HW2 5798   3.432   1.026   5.263
67987SOL     OW 5799   1.059   1.750   7.068
67987SOL    HW1 5800   1.145   1.712   7.049
67987SOL    HW2 5801   1.069   1.843   7.049
67988SOL     OW 5802   5.091   1.041   6.535
67988SOL    HW1 5803   5.180   1.075   6.525
67988SOL    HW2 5804   5.047   1.106   6.589
67989SOL     OW 5805  12.023   8.656   4.118
67989SOL    HW1 5806  11.967   8.579   4.122
67989SOL    HW2 5807  11.969   8.728   4.149
67990SOL     OW 5808   1.530   4.770   3.038
67990SOL    HW1 5809   1.438   4.774   3.012
67990SOL    HW2 5810   1.529   4.778   3.134
67991SOL     OW 5811   9.524  13.061  13.645
67991SOL    HW1 5812   9.445  13.017  13.677
67991SOL    HW2 5813   9.510  13.069  13.550
67992SOL     OW 5814   1.666   8.189  10.681
67992SOL    HW1 5815   1.761   8.196  10.688
67992SOL    HW2 5816   1.640   8.129  10.751
67993SOL     OW 5817  13.601   5.960   8.786
67993SOL    HW1 5818  13.637   6.028   8.729
67993SOL    HW2 5819  13.510   5.986   8.801
67994SOL     OW 5820   6.262  11.089   4.918
67994SOL    HW1 5821   6.208  11.156   4.878
67994SOL    HW2 5822   6.200  11.021   4.945
67995SOL     OW 5823   0.627  13.752  13.782
67995SOL    HW1 5824   0.629  13.833  13.731
67995SOL    HW2 5825   0.654  13.779  13.870
67996SOL     OW 5826   1.886   7.770  11.154
67996SOL    HW1 5827   1.953   7.758  11.221
67996SOL    HW2 5828   1.915   7.846  11.104
67997SOL     OW 5829   0.929   3.880   0.081
67997SOL    HW1 5830   0.968   3.915   0.001
67997SOL    HW2 5831   0.866   3.947   0.108
67998SOL     OW 5832   7.473   5.935   6.644
67998SOL    HW1 5833   7.551   5.977   6.609
67998SOL    HW2 5834   7.503   5.888   6.721
67999SOL     OW 5835   0.440  10.264   6.997
67999SOL    HW1 5836   0.346  10.256   7.008
67999SOL    HW2 5837   0.453  10.285   6.904
68000SOL     OW 5838   0.956   6.540   8.309
68000SOL    HW1 5839   1.022   6.550   8.378
68000SOL    HW2 5840   0.876   6.573   8.348
68001SOL     OW 5841   6.446  11.935   9.708
68001SOL    HW1 5842   6.531  11.977   9.724
68001SOL    HW2 5843   6.381  11.999   9.736
68002SOL     OW 5844   3.948   6.067  11.335
68002SOL    HW1 5845   3.970   6.150  11.293
68002SOL    HW2 5846   3.947   6.087  11.429
68003SOL     OW 5847   0.929   0.234   7.843
68003SOL    HW1 5848   1.006   0.184   7.868
68003SOL    HW2 5849   0.962   0.307   7.792
68004SOL     OW 5850   5.012  10.834   8.239
68004SOL    HW1 5851   5.035  10.801   8.152
68004SOL    HW2 5852   5.051  10.921   8.242
68005SOL     OW 5853   3.308   4.386   1.724
68005SOL    HW1 5854   3.317   4.346   1.811
68005SOL    HW2 5855   3.396   4.418   1.704
68006SOL     OW 5856   3.450   7.388   8.685
68006SOL    HW1 5857   3.409   7.413   8.603
68006SOL    HW2 5858   3.527   7.337   8.659
68007SOL     OW 5859   3.147   9.427  10.634
68007SOL    HW1 5860   3.176   9.436  10.543
68007SOL    HW2 5861   3.180   9.506  10.677
68008SOL     OW 5862  13.641  12.244   6.716
68008SOL    HW1 5863  13.608  12.244   6.626
68008SOL    HW2 5864  13.571  12.282   6.768
68009SOL     OW 5865  10.447   3.375  14.030
68009SOL    HW1 5866  10.373   3.419  14.071
68009SOL    HW2 5867  10.443   3.401  13.938
68010SOL     OW 5868   8.120   2.699  14.466
68010SOL    HW1 5869   8.187   2.748  14.419
68010SOL    HW2 5870   8.043   2.703  14.410
68011SOL     OW 5871   9.088  10.133   3.250
68011SOL    HW1 5872   9.108  10.132   3.344
68011SOL    HW2 5873   8.993  10.125   3.245
68012SOL     OW 5874  14.608   1.524   7.938
68012SOL    HW1 5875  14.698   1.521   7.905
68012SOL    HW2 5876  14.601   1.609   7.981
68013SOL     OW 5877   3.808   2.095   0.342
68013SOL    HW1 5878   3.874   2.089   0.273
68013SOL    HW2 5879   3.826   2.179   0.386
68014SOL     OW 5880   8.504  14.706   9.381
68014SOL    HW1 5881   8.417  14.730   9.349
68014SOL    HW2 5882   8.564  14.737   9.314
68015SOL     OW 5883  10.790   1.461  11.324
68015SOL    HW1 5884  10.801   1.368  11.305
68015SOL    HW2 5885  10.696   1.474  11.326
68016SOL     OW 5886  12.525   4.711   1.933
68016SOL    HW1 5887  12.611   4.711   1.975
68016SOL    HW2 5888  12.476   4.643   1.979
68017SOL     OW 5889   5.406  11.285   8.699
68017SOL    HW1 5890   5.451  11.335   8.631
68017SOL    HW2 5891   5.417  11.193   8.672
68018SOL     OW 5892   8.578   4.188  10.014
68018SOL    HW1 5893   8.611   4.117   9.960
68018SOL    HW2 5894   8.656   4.230  10.049
68019SOL     OW 5895  14.773  12.005   6.491
68019SOL    HW1 5896  14.732  12.062   6.556
68019SOL    HW2 5897  14.722  12.021   6.411
68020SOL     OW 5898  10.177   4.610   8.447
68020SOL    HW1 5899  10.271   4.595   8.435
68020SOL    HW2 5900  10.161   4.593   8.540
68021SOL     OW 5901   6.433   4.185  13.859
68021SOL    HW1 5902   6.478   4.233  13.929
68021SOL    HW2 5903   6.389   4.113  13.904
68022SOL     OW 5904   2.733   6.385  10.268
68022SOL    HW1 5905   2.826   6.366  10.256
68022SOL    HW2 5906   2.722   6.474  10.234
68023SOL     OW 5907  13.677  13.982   5.914
68023SOL    HW1 5908  13.668  13.887   5.919
68023SOL    HW2 5909  13.763  13.995   5.874
68024SOL     OW 5910   7.066   0.889   7.441
68024SOL    HW1 5911   7.014   0.815   7.410
68024SOL    HW2 5912   7.118   0.915   7.364
68025SOL     OW 5913   1.753  10.626   5.438
68025SOL    HW1 5914   1.715  10.637   5.525
68025SOL    HW2 5915   1.827  10.687   5.436
68026SOL     OW 5916   5.612   6.085   8.810
68026SOL    HW1 5917   5.603   5.993   8.784
68026SOL    HW2 5918   5.534   6.102   8.863
68027SOL     OW 5919   3.321   6.388   6.538
68027SOL    HW1 5920   3.308   6.469   6.587
68027SOL    HW2 5921   3.410   6.393   6.505
68028SOL     OW 5922   2.801  13.720   9.018
68028SOL    HW1 5923   2.773  13.720   9.110
68028SOL    HW2 5924   2.807  13.628   8.994
68029SOL     OW 5925  13.776  14.263  12.463
68029SOL    HW1 5926  13.691  14.233  12.495
68029SOL    HW2 5927  13.755  14.330  12.398
68030SOL     OW 5928   1.166   2.818  11.147
68030SOL    HW1 5929   1.117   2.890  11.188
68030SOL    HW2 5930   1.254   2.824  11.183
68031SOL     OW 5931   3.875   0.655   4.523
68031SOL    HW1 5932   3.812   0.663   4.596
68031SOL    HW2 5933   3.863   0.565   4.492
68032SOL     OW 5934   3.434   3.794  10.853
68032SOL    HW1 5935   3.456   3.823  10.942
68032SOL    HW2 5936   3.363   3.731  10.865
68033SOL     OW 5937   9.311  14.771   3.653
68033SOL    HW1 5938   9.393  14.732   3.683
68033SOL    HW2 5939   9.286  14.831   3.724
68034SOL     OW 5940   4.621   1.400  10.383
68034SOL    HW1 5941   4.664   1.465  10.438
68034SOL    HW2 5942   4.692   1.348  10.347
68035SOL     OW 5943   6.343   1.158   7.350
68035SOL    HW1 5944   6.365   1.105   7.427
68035SOL    HW2 5945   6.280   1.223   7.383
68036SOL     OW 5946   4.778   7.259   4.294
68036SOL    HW1 5947   4.851   7.313   4.265
68036SOL    HW2 5948   4.704   7.288   4.240
68037SOL     OW 5949   1.097   5.394  11.008
68037SOL    HW1 5950   1.092   5.361  11.098
68037SOL    HW2 5951   1.006   5.402  10.981
68038SOL     OW 5952   4.669   3.503  10.099
68038SOL    HW1 5953   4.734   3.474  10.035
68038SOL    HW2 5954   4.586   3.498  10.051
68039SOL     OW 5955   2.819   4.528   4.273
68039SOL    HW1 5956   2.870   4.452   4.303
68039SOL    HW2 5957   2.767   4.494   4.200
68040SOL     OW 5958  13.509   9.090   3.718
68040SOL    HW1 5959  13.538   9.000   3.729
68040SOL    HW2 5960  13.424   9.093   3.762
68041SOL     OW 5961   6.550   1.094   5.997
68041SOL    HW1 5962   6.629   1.061   6.041
68041SOL    HW2 5963   6.505   1.144   6.065
68042SOL     OW 5964   6.886   3.716  13.549
68042SOL    HW1 5965   6.806   3.686  13.505
68042SOL    HW2 5966   6.884   3.811  13.539
68043SOL     OW 5967  13.939   5.301   3.949
68043SOL    HW1 5968  13.854   5.266   3.923
68043SOL    HW2 5969  13.991   5.223   3.969
68044SOL     OW 5970  14.541   7.940   9.101
68044SOL    HW1 5971  14.488   7.862   9.082
68044SOL    HW2 5972  14.595   7.914   9.175
68045SOL     OW 5973   5.264   9.530   6.299
68045SOL    HW1 5974   5.350   9.520   6.260
68045SOL    HW2 5975   5.280   9.537   6.393
68046SOL     OW 5976   5.364   8.652   4.287
68046SOL    HW1 5977   5.316   8.600   4.223
68046SOL    HW2 5978   5.306   8.726   4.306
68047SOL     OW 5979  10.769  11.465  13.723
68047SOL    HW1 5980  10.684  11.445  13.763
68047SOL    HW2 5981  10.828  11.478  13.797
68048SOL     OW 5982  12.916   9.718  12.242
68048SOL    HW1 5983  12.966   9.796  12.267
68048SOL    HW2 5984  12.911   9.666  12.323
68049SOL     OW 5985  14.767   5.509   6.141
68049SOL    HW1 5986  14.822   5.435   6.166
68049SOL    HW2 5987  14.815   5.552   6.071
68050SOL     OW 5988   6.728  14.767   5.617
68050SOL    HW1 5989   6.782  14.825   5.670
68050SOL    HW2 5990   6.743  14.680   5.654
68051SOL     OW 5991   8.766   0.684   4.025
68051SOL    HW1 5992   8.726   0.706   4.109
68051SOL    HW2 5993   8.859   0.672   4.045
68052SOL     OW 5994   0.907  11.725   9.421
68052SOL    HW1 5995   0.911  11.819   9.404
68052SOL    HW2 5996   0.819  11.699   9.391
68053SOL     OW 5997   7.919  11.215   9.560
68053SOL    HW1 5998   7.830  11.188   9.537
68053SOL    HW2 5999   7.913  11.309   9.572
68054SOL     OW 6000  11.160   8.015  10.142
68054SOL    HW1 6001  11.202   8.011  10.228
68054SOL    HW2 6002  11.199   8.092  10.100
68055SOL     OW 6003   3.807  13.675   4.255
68055SOL    HW1 6004   3.870  13.747   4.246
68055SOL    HW2 6005   3.724  13.717   4.275
68056SOL     OW 6006   2.189   0.412   7.436
68056SOL    HW1 6007   2.203   0.447   7.349
68056SOL    HW2 6008   2.155   0.486   7.487
68057SOL     OW 6009   4.435   3.888   7.402
68057SOL    HW1 6010   4.348   3.887   7.442
68057SOL    HW2 6011   4.475   3.970   7.432
68058SOL     OW 6012   2.328   9.122   4.401
68058SOL    HW1 6013   2.349   9.041   4.447
68058SOL    HW2 6014   2.329   9.098   4.308
68059SOL     OW 6015  11.313   4.414  10.018
68059SOL    HW1 6016  11.295   4.443   9.928
68059SOL    HW2 6017  11.408   4.417  10.026
68060SOL     OW 6018   7.069  12.148  10.480
68060SOL    HW1 6019   7.161  12.172  10.491
68060SOL    HW2 6020   7.024  12.232  10.467
68061SOL     OW 6021  11.958   8.496   9.812
68061SOL    HW1 6022  11.875   8.531   9.777
68061SOL    HW2 6023  11.938   8.474   9.903
68062SOL     OW 6024   8.114   4.629   4.852
68062SOL    HW1 6025   8.077   4.629   4.763
68062SOL    HW2 6026   8.151   4.541   4.862
68063SOL     OW 6027   2.222   7.779  11.879
68063SOL    HW1 6028   2.169   7.840  11.931
68063SOL    HW2 6029   2.301   7.830  11.858
68064SOL     OW 6030  10.157   5.254   8.112
68064SOL    HW1 6031  10.092   5.183   8.114
68064SOL    HW2 6032  10.202   5.247   8.196
68065SOL     OW 6033  13.121   4.806  14.555
68065SOL    HW1 6034  13.111   4.787  14.461
68065SOL    HW2 6035  13.140   4.900  14.558
68066SOL     OW 6036   0.865   3.104  12.025
68066SOL    HW1 6037   0.847   3.067  12.112
68066SOL    HW2 6038   0.779   3.126  11.990
68067SOL     OW 6039  14.298  12.794   5.920
68067SOL    HW1 6040  14.362  12.842   5.867
68067SOL    HW2 6041  14.219  12.848   5.917
68068SOL     OW 6042   3.399  12.872  10.833
68068SOL    HW1 6043   3.445  12.807  10.780
68068SOL    HW2 6044   3.325  12.825  10.872
68069SOL     OW 6045  10.300   1.270  10.631
68069SOL    HW1 6046  10.349   1.351  10.620
68069SOL    HW2 6047  10.274   1.245  10.542
68070SOL     OW 6048   5.420   5.619   8.153
68070SOL    HW1 6049   5.416   5.530   8.117
68070SOL    HW2 6050   5.512   5.644   8.145
68071SOL     OW 6051  10.534   0.047   0.030
68071SOL    HW1 6052  10.508  14.847  14.849
68071SOL    HW2 6053  10.464   0.111   0.018
68072SOL     OW 6054   5.890   4.784   2.705
68072SOL    HW1 6055   5.959   4.786   2.640
68072SOL    HW2 6056   5.936   4.781   2.789
68073SOL     OW 6057   6.840  11.112   8.302
68073SOL    HW1 6058   6.782  11.179   8.339
68073SOL    HW2 6059   6.780  11.049   8.261
68074SOL     OW 6060   1.851   7.027  11.854
68074SOL    HW1 6061   1.863   6.999  11.764
68074SOL    HW2 6062   1.784   6.967  11.889
68075SOL     OW 6063   1.101  12.096  12.936
68075SOL    HW1 6064   1.184  12.053  12.916
68075SOL    HW2 6065   1.119  12.148  13.014
68076SOL     OW 6066   7.655   9.670   7.372
68076SOL    HW1 6067   7.629   9.639   7.458
68076SOL    HW2 6068   7.581   9.648   7.315
68077SOL     OW 6069   6.765  11.884   5.169
68077SOL    HW1 6070   6.791  11.846   5.085
68077SOL    HW2 6071   6.837  11.864   5.228
68078SOL     OW 6072   2.695   2.862  12.478
68078SOL    HW1 6073   2.738   2.780  12.451
68078SOL    HW2 6074   2.700   2.861  12.573
68079SOL     OW 6075   1.202   7.699   2.196
68079SOL    HW1 6076   1.129   7.718   2.137
68079SOL    HW2 6077   1.175   7.734   2.281
68080SOL     OW 6078  11.108  10.442   4.925
68080SOL    HW1 6079  11.191  10.395   4.938
68080SOL    HW2 6080  11.060  10.429   5.007
68081SOL     OW 6081   4.703  13.350  10.810
68081SOL    HW1 6082   4.787  13.395  10.811
68081SOL    HW2 6083   4.656  13.389  10.736
68082SOL     OW 6084   7.029  14.691   7.033
68082SOL    HW1 6085   7.025  14.702   7.128
68082SOL    HW2 6086   7.021  14.780   6.998
68083SOL     OW 6087   0.359  12.505  11.707
68083SOL    HW1 6088   0.433  12.494  11.648
68083SOL    HW2 6089   0.283  12.509  11.649
68084SOL     OW 6090   2.902   3.666  12.039
68084SOL    HW1 6091   2.932   3.606  12.108
68084SOL    HW2 6092   2.973   3.730  12.032
68085SOL     OW 6093   3.482   0.957   9.642
68085SOL    HW1 6094   3.459   0.921   9.727
68085SOL    HW2 6095   3.452   0.892   9.579
68086SOL     OW 6096   5.018   1.192   9.149
68086SOL    HW1 6097   5.087   1.258   9.142
68086SOL    HW2 6098   5.051   1.130   9.214
68087SOL     OW 6099   1.666   0.971   9.862
68087SOL    HW1 6100   1.709   0.915   9.798
68087SOL    HW2 6101   1.712   0.953   9.944
68088SOL     OW 6102   9.669   0.708   8.175
68088SOL    HW1 6103   9.718   0.647   8.119
68088SOL    HW2 6104   9.594   0.657   8.205
68089SOL     OW 6105   9.318  14.690   1.272
68089SOL    HW1 6106   9.400  14.702   1.224
68089SOL    HW2 6107   9.267  14.631   1.217
68090SOL     OW 6108   4.661   4.057   5.354
68090SOL    HW1 6109   4.715   4.045   5.276
68090SOL    HW2 6110   4.573   4.028   5.327
68091SOL     OW 6111  14.195  13.971  14.015
68091SOL    HW1 6112  14.169  13.958  13.924
68091SOL    HW2 6113  14.242  14.055  14.015
68092SOL     OW 6114  11.727   3.938   3.409
68092SOL    HW1 6115  11.791   4.001   3.442
68092SOL    HW2 6116  11.720   3.873   3.478
68093SOL     OW 6117  10.130  11.656   1.150
68093SOL    HW1 6118  10.070  11.584   1.135
68093SOL    HW2 6119  10.083  11.716   1.207
68094SOL     OW 6120   9.794   1.608  11.397
68094SOL    HW1 6121   9.729   1.541  11.377
68094SOL    HW2 6122   9.765   1.686  11.348
68095SOL     OW 6123   3.975   2.780   9.981
68095SOL    HW1 6124   3.919   2.832   9.924
68095SOL    HW2 6125   3.941   2.691   9.972
68096SOL     OW 6126   7.054  14.409  13.050
68096SOL    HW1 6127   7.106  14.468  13.105
68096SOL    HW2 6128   7.063  14.444  12.962
68097SOL     OW 6129   7.605   5.396   9.360
68097SOL    HW1 6130   7.633   5.386   9.450
68097SOL    HW2 6131   7.510   5.411   9.365
68098SOL     OW 6132   2.123  12.321   6.908
68098SOL    HW1 6133   2.176  12.247   6.877
68098SOL    HW2 6134   2.099  12.297   6.998
68099SOL     OW 6135   7.611   4.115   7.192
68099SOL    HW1 6136   7.625   4.171   7.115
68099SOL    HW2 6137   7.676   4.146   7.255
68100SOL     OW 6138   5.647   9.797   9.929
68100SOL    HW1 6139   5.582   9.867   9.937
68100SOL    HW2 6140   5.608   9.736   9.866
68101SOL     OW 6141   5.564  10.772   0.108
68101SOL    HW1 6142   5.568  10.863   0.140
68101SOL    HW2 6143   5.475  10.763   0.074
68102SOL     OW 6144   8.160  11.486   3.467
68102SOL    HW1 6145   8.255  11.498   3.471
68102SOL    HW2 6146   8.128  11.515   3.553
68103SOL     OW 6147  12.991   9.222  10.007
68103SOL    HW1 6148  13.078   9.228   9.968
68103SOL    HW2 6149  12.940   9.172   9.942
68104SOL     OW 6150   9.320  12.162   9.719
68104SOL    HW1 6151   9.321  12.126   9.630
68104SOL    HW2 6152   9.335  12.256   9.707
68105SOL     OW 6153   9.048   8.873  10.900
68105SOL    HW1 6154   9.003   8.951  10.931
68105SOL    HW2 6155   9.048   8.881  10.805
68106SOL     OW 6156  10.238  12.693   0.331
68106SOL    HW1 6157  10.181  12.722   0.402
68106SOL    HW2 6158  10.320  12.740   0.345
68107SOL     OW 6159   3.391  10.326  11.849
68107SOL    HW1 6160   3.474  10.313  11.802
68107SOL    HW2 6161   3.365  10.238  11.876
68108SOL     OW 6162  11.658   9.522   7.379
68108SOL    HW1 6163  11.668   9.559   7.467
68108SOL    HW2 6164  11.606   9.443   7.392
68109SOL     OW 6165   7.261  10.428   1.821
68109SOL    HW1 6166   7.249  10.336   1.842
68109SOL    HW2 6167   7.173  10.463   1.814
68110SOL     OW 6168   9.769  14.741   0.043
68110SOL    HW1 6169   9.691  14.686   0.047
68110SOL    HW2 6170   9.790  14.760   0.135
68111SOL     OW 6171   8.282   4.925   5.562
68111SOL    HW1 6172   8.239   5.000   5.520
68111SOL    HW2 6173   8.314   4.872   5.489
68112SOL     OW 6174   1.220   7.903   8.808
68112SOL    HW1 6175   1.235   7.865   8.722
68112SOL    HW2 6176   1.293   7.871   8.861
68113SOL     OW 6177   4.156  14.242   8.478
68113SOL    HW1 6178   4.194  14.329   8.484
68113SOL    HW2 6179   4.154  14.223   8.384
68114SOL     OW 6180  12.798   5.164  12.949
68114SOL    HW1 6181  12.721   5.140  13.001
68114SOL    HW2 6182  12.864   5.189  13.013
68115SOL     OW 6183   8.635   1.303   7.981
68115SOL    HW1 6184   8.614   1.395   7.999
68115SOL    HW2 6185   8.695   1.307   7.907
68116SOL     OW 6186   4.082   5.635  11.531
68116SOL    HW1 6187   4.152   5.686  11.571
68116SOL    HW2 6188   4.059   5.683  11.451
68117SOL     OW 6189   8.870  14.264  12.122
68117SOL    HW1 6190   8.857  14.279  12.028
68117SOL    HW2 6191   8.944  14.320  12.145
68118SOL     OW 6192   6.288   3.700   6.626
68118SOL    HW1 6193   6.248   3.632   6.681
68118SOL    HW2 6194   6.375   3.666   6.606
68119SOL     OW 6195   9.063   4.786  10.805
68119SOL    HW1 6196   9.046   4.694  10.824
68119SOL    HW2 6197   9.004   4.806  10.732
68120SOL     OW 6198   5.283   7.602  10.039
68120SOL    HW1 6199   5.356   7.664  10.048
68120SOL    HW2 6200   5.283   7.555  10.122
68121SOL     OW 6201   4.583  10.483   8.355
68121SOL    HW1 6202   4.498  10.439   8.358
68121SOL    HW2 6203   4.569  10.559   8.299
68122SOL     OW 6204  14.333   9.026   6.847
68122SOL    HW1 6205  14.276   9.030   6.770
68122SOL    HW2 6206  14.279   9.059   6.919
68123SOL     OW 6207   6.823   9.947   2.520
68123SOL    HW1 6208   6.856   9.858   2.537
68123SOL    HW2 6209   6.901   9.998   2.499
68124SOL     OW 6210   4.723   4.174   0.751
68124SOL    HW1 6211   4.745   4.082   0.735
68124SOL    HW2 6212   4.777   4.223   0.689
68125SOL     OW 6213   2.572   0.947   5.061
68125SOL    HW1 6214   2.566   0.979   4.971
68125SOL    HW2 6215   2.488   0.972   5.100
68126SOL     OW 6216   8.493  10.006   3.294
68126SOL    HW1 6217   8.446   9.923   3.298
68126SOL    HW2 6218   8.433  10.065   3.246
68127SOL     OW 6219   5.960  13.323   6.531
68127SOL    HW1 6220   5.924  13.282   6.610
68127SOL    HW2 6221   5.948  13.417   6.546
68128SOL     OW 6222   7.707  14.805  14.190
68128SOL    HW1 6223   7.800  14.825  14.199
68128SOL    HW2 6224   7.674  14.806  14.280
68129SOL     OW 6225   9.339   5.734  14.248
68129SOL    HW1 6226   9.290   5.750  14.167
68129SOL    HW2 6227   9.271   5.708  14.311
68130SOL     OW 6228  14.178   6.456  11.205
68130SOL    HW1 6229  14.266   6.479  11.236
68130SOL    HW2 6230  14.135   6.541  11.191
68131SOL     OW 6231  11.571  11.712   0.328
68131SOL    HW1 6232  11.511  11.661   0.274
68131SOL    HW2 6233  11.656  11.668   0.318
68132SOL     OW 6234   1.478  10.132   4.889
68132SOL    HW1 6235   1.553  10.147   4.947
68132SOL    HW2 6236   1.404  10.126   4.949
68133SOL     OW 6237   6.644   2.634   9.457
68133SOL    HW1 6238   6.549   2.620   9.453
68133SOL    HW2 6239   6.670   2.645   9.365
68134SOL     OW 6240   6.459  12.104  11.742
68134SOL    HW1 6241   6.522  12.081  11.674
68134SOL    HW2 6242   6.506  12.090  11.824
68135SOL     OW 6243   5.741   9.155   6.028
68135SOL    HW1 6244   5.821   9.116   5.994
68135SOL    HW2 6245   5.671   9.118   5.975
68136SOL     OW 6246  11.282  11.059   4.080
68136SOL    HW1 6247  11.260  11.005   4.156
68136SOL    HW2 6248  11.359  11.109   4.106
68137SOL     OW 6249  13.945  13.821  10.257
68137SOL    HW1 6250  13.997  13.900  10.245
68137SOL    HW2 6251  13.987  13.755  10.202
68138SOL     OW 6252  11.867  13.167  12.843
68138SOL    HW1 6253  11.955  13.139  12.869
68138SOL    HW2 6254  11.873  13.175  12.747
68139SOL     OW 6255   2.446   3.808   3.892
68139SOL    HW1 6256   2.431   3.764   3.808
68139SOL    HW2 6257   2.405   3.893   3.881
68140SOL     OW 6258   8.357   6.380  10.442
68140SOL    HW1 6259   8.389   6.450  10.385
68140SOL    HW2 6260   8.262   6.395  10.446
68141SOL     OW 6261   7.761   1.182  11.721
68141SOL    HW1 6262   7.688   1.141  11.767
68141SOL    HW2 6263   7.811   1.227  11.789
68142SOL     OW 6264   9.410   8.419   5.535
68142SOL    HW1 6265   9.319   8.433   5.561
68142SOL    HW2 6266   9.411   8.436   5.440
68143SOL     OW 6267   0.768   3.362   6.983
68143SOL    HW1 6268   0.768   3.394   7.073
68143SOL    HW2 6269   0.686   3.395   6.946
68144SOL     OW 6270   0.915   5.447  13.125
68144SOL    HW1 6271   0.888   5.507  13.195
68144SOL    HW2 6272   1.010   5.454  13.123
68145SOL     OW 6273   1.554   3.924   6.185
68145SOL    HW1 6274   1.577   3.906   6.094
68145SOL    HW2 6275   1.462   3.896   6.193
68146SOL     OW 6276   6.374  12.260  13.563
68146SOL    HW1 6277   6.364  12.188  13.501
68146SOL    HW2 6278   6.285  12.290  13.580
68147SOL     OW 6279  13.173   5.462   9.770
68147SOL    HW1 6280  13.241   5.521   9.737
68147SOL    HW2 6281  13.108   5.460   9.700
68148SOL     OW 6282   8.122   7.830   5.529
68148SOL    HW1 6283   8.183   7.880   5.584
68148SOL    HW2 6284   8.162   7.743   5.523
68149SOL     OW 6285   5.878  12.459   8.936
68149SOL    HW1 6286   5.898  12.429   9.025
68149SOL    HW2 6287   5.846  12.381   8.891
68150SOL     OW 6288  11.490   4.724   1.948
68150SOL    HW1 6289  11.416   4.741   2.006
68150SOL    HW2 6290  11.489   4.629   1.935
68151SOL     OW 6291  12.990  11.624   8.623
68151SOL    HW1 6292  13.069  11.638   8.675
68151SOL    HW2 6293  12.951  11.711   8.614
68152SOL     OW 6294  12.784   8.931  13.419
68152SOL    HW1 6295  12.706   8.967  13.376
68152SOL    HW2 6296  12.810   8.998  13.482
68153SOL     OW 6297   5.616   0.686   5.431
68153SOL    HW1 6298   5.621   0.782   5.437
68153SOL    HW2 6299   5.563   0.661   5.507
68154SOL     OW 6300   3.310   8.731   0.184
68154SOL    HW1 6301   3.218   8.708   0.196
68154SOL    HW2 6302   3.338   8.680   0.108
68155SOL     OW 6303   2.909   6.824   1.715
68155SOL    HW1 6304   2.936   6.733   1.705
68155SOL    HW2 6305   2.956   6.854   1.793
68156SOL     OW 6306  11.404  12.350  14.402
68156SOL    HW1 6307  11.360  12.288  14.460
68156SOL    HW2 6308  11.494  12.354  14.435
68157SOL     OW 6309   9.961  13.736   5.692
68157SOL    HW1 6310  10.042  13.707   5.651
68157SOL    HW2 6311   9.975  13.720   5.786
68158SOL     OW 6312   8.678   1.288   8.807
68158SOL    HW1 6313   8.699   1.295   8.714
68158SOL    HW2 6314   8.685   1.194   8.825
68159SOL     OW 6315   8.965   2.057   4.164
68159SOL    HW1 6316   8.977   2.017   4.249
68159SOL    HW2 6317   9.026   2.131   4.163
68160SOL     OW 6318   9.439   8.221  10.863
68160SOL    HW1 6319   9.510   8.162  10.889
68160SOL    HW2 6320   9.372   8.164  10.827
68161SOL     OW 6321   4.463  11.143  14.313
68161SOL    HW1 6322   4.373  11.170  14.293
68161SOL    HW2 6323   4.456  11.099  14.398
68162SOL     OW 6324   4.264   0.701   8.203
68162SOL    HW1 6325   4.320   0.644   8.150
68162SOL    HW2 6326   4.245   0.775   8.145
68163SOL     OW 6327  14.212   9.473   8.644
68163SOL    HW1 6328  14.162   9.550   8.672
68163SOL    HW2 6329  14.199   9.469   8.549
68164SOL     OW 6330  13.741   2.797   4.868
68164SOL    HW1 6331  13.804   2.750   4.924
68164SOL    HW2 6332  13.671   2.823   4.928
68165SOL     OW 6333  13.174   3.855   5.811
68165SOL    HW1 6334  13.222   3.892   5.737
68165SOL    HW2 6335  13.206   3.765   5.817
68166SOL     OW 6336   8.963   8.222   1.998
68166SOL    HW1 6337   9.002   8.261   1.920
68166SOL    HW2 6338   9.037   8.183   2.046
68167SOL     OW 6339   9.989   8.437   8.590
68167SOL    HW1 6340  10.027   8.525   8.595
68167SOL    HW2 6341  10.048   8.389   8.532
68168SOL     OW 6342   4.280   9.603  12.403
68168SOL    HW1 6343   4.350   9.540  12.390
68168SOL    HW2 6344   4.204   9.550  12.426
68169SOL     OW 6345   5.354  12.869   8.024
68169SOL    HW1 6346   5.397  12.886   8.108
68169SOL    HW2 6347   5.263  12.895   8.037
68170SOL     OW 6348   4.115  14.130   7.001
68170SOL    HW1 6349   4.028  14.155   6.971
68170SOL    HW2 6350   4.103  14.103   7.092
68171SOL     OW 6351   1.417   4.614   3.532
68171SOL    HW1 6352   1.373   4.531   3.514
68171SOL    HW2 6353   1.409   4.626   3.627
68172SOL     OW 6354   4.885  10.817  14.027
68172SOL    HW1 6355   4.929  10.901  14.015
68172SOL    HW2 6356   4.796  10.840  14.052
68173SOL     OW 6357   8.897  11.358   3.555
68173SOL    HW1 6358   8.856  11.335   3.472
68173SOL    HW2 6359   8.965  11.292   3.567
68174SOL     OW 6360   6.954   0.340   5.707
68174SOL    HW1 6361   7.028   0.382   5.752
68174SOL    HW2 6362   6.994   0.297   5.632
68175SOL     OW 6363  10.025  10.427   0.201
68175SOL    HW1 6364  10.093  10.449   0.264
68175SOL    HW2 6365   9.994  10.341   0.228
68176SOL     OW 6366  14.308   0.185  11.837
68176SOL    HW1 6367  14.248   0.150  11.903
68176SOL    HW2 6368  14.305   0.279  11.850
68177SOL     OW 6369  12.985   3.395  10.080
68177SOL    HW1 6370  13.019   3.479  10.047
68177SOL    HW2 6371  13.052   3.365  10.142
68178SOL     OW 6372  14.561   1.369  14.849
68178SOL    HW1 6373  14.610   1.430  14.795
68178SOL    HW2 6374  14.472   1.402  14.849
68179SOL     OW 6375  12.204   0.135   9.821
68179SOL    HW1 6376  12.181   0.148   9.913
68179SOL    HW2 6377  12.293   0.100   9.824
68180SOL     OW 6378  14.843  12.423   2.638
68180SOL    HW1 6379  14.773  12.361   2.660
68180SOL    HW2 6380   0.033  12.371   2.589
68181SOL     OW 6381  10.182  12.224  14.312
68181SOL    HW1 6382  10.206  12.274  14.390
68181SOL    HW2 6383  10.164  12.291  14.246
68182SOL     OW 6384   2.802   3.324   7.842
68182SOL    HW1 6385   2.708   3.340   7.836
68182SOL    HW2 6386   2.810   3.251   7.904
68183SOL     OW 6387   8.211   9.906   0.799
68183SOL    HW1 6388   8.148   9.835   0.783
68183SOL    HW2 6389   8.176   9.952   0.875
68184SOL     OW 6390   6.574   1.088   8.456
68184SOL    HW1 6391   6.609   1.029   8.389
68184SOL    HW2 6392   6.650   1.110   8.510
68185SOL     OW 6393   5.577   4.513   8.963
68185SOL    HW1 6394   5.520   4.447   9.001
68185SOL    HW2 6395   5.602   4.569   9.036
68186SOL     OW 6396   6.102  14.686   7.808
68186SOL    HW1 6397   6.068  14.622   7.745
68186SOL    HW2 6398   6.129  14.760   7.754
68187SOL     OW 6399   7.669  12.205  10.096
68187SOL    HW1 6400   7.722  12.197  10.017
68187SOL    HW2 6401   7.654  12.299  10.105
68188SOL     OW 6402  11.702  12.206  13.158
68188SOL    HW1 6403  11.789  12.239  13.182
68188SOL    HW2 6404  11.715  12.112  13.145
68189SOL     OW 6405   2.654  14.401  13.447
68189SOL    HW1 6406   2.642  14.313  13.410
68189SOL    HW2 6407   2.600  14.401  13.525
68190SOL     OW 6408  12.209   1.273   7.510
68190SOL    HW1 6409  12.260   1.290   7.590
68190SOL    HW2 6410  12.160   1.194   7.529
68191SOL     OW 6411   3.353   2.232   5.221
68191SOL    HW1 6412   3.414   2.245   5.293
68191SOL    HW2 6413   3.311   2.148   5.239
68192SOL     OW 6414   6.159   3.093  12.688
68192SOL    HW1 6415   6.244   3.124  12.656
68192SOL    HW2 6416   6.126   3.164  12.741
68193SOL     OW 6417   9.567   5.764  14.541
68193SOL    HW1 6418   9.484   5.794  14.579
68193SOL    HW2 6419   9.573   5.671  14.565
68194SOL     OW 6420  11.082   7.950  12.513
68194SOL    HW1 6421  11.035   7.984  12.589
68194SOL    HW2 6422  11.023   7.964  12.439
68195SOL     OW 6423   3.676   1.561  12.074
68195SOL    HW1 6424   3.593   1.609  12.082
68195SOL    HW2 6425   3.743   1.627  12.090
68196SOL     OW 6426   2.794   0.020  12.846
68196SOL    HW1 6427   2.741   0.090  12.810
68196SOL    HW2 6428   2.775   0.021  12.940
68197SOL     OW 6429   8.817  11.148  14.472
68197SOL    HW1 6430   8.744  11.177  14.527
68197SOL    HW2 6431   8.794  11.179  14.384
68198SOL     OW 6432  12.225  12.359   6.950
68198SOL    HW1 6433  12.240  12.355   6.855
68198SOL    HW2 6434  12.146  12.308   6.964
68199SOL     OW 6435   7.196   0.453   3.684
68199SOL    HW1 6436   7.114   0.502   3.697
68199SOL    HW2 6437   7.233   0.444   3.771
68200SOL     OW 6438   0.609   0.001   8.679
68200SOL    HW1 6439   0.687   0.057   8.673
68200SOL    HW2 6440   0.566   0.030   8.759
68201SOL     OW 6441   6.061  10.879   4.895
68201SOL    HW1 6442   6.011  10.828   4.831
68201SOL    HW2 6443   6.059  10.826   4.975
68202SOL     OW 6444   9.301   1.228   4.258
68202SOL    HW1 6445   9.222   1.265   4.219
68202SOL    HW2 6446   9.373   1.262   4.204
68203SOL     OW 6447   7.567   0.301  13.539
68203SOL    HW1 6448   7.487   0.248  13.532
68203SOL    HW2 6449   7.550   0.377  13.484
68204SOL     OW 6450   8.013   0.784   3.643
68204SOL    HW1 6451   8.016   0.694   3.675
68204SOL    HW2 6452   8.104   0.813   3.641
68205SOL     OW 6453   6.660   4.990  12.276
68205SOL    HW1 6454   6.569   4.960  12.281
68205SOL    HW2 6455   6.696   4.945  12.200
68206SOL     OW 6456  12.434   6.878  14.870
68206SOL    HW1 6457  12.521   6.914   0.012
68206SOL    HW2 6458  12.414   6.902  14.780
68207SOL     OW 6459   6.650  12.605   4.063
68207SOL    HW1 6460   6.616  12.557   4.139
68207SOL    HW2 6461   6.642  12.698   4.088
68208SOL     OW 6462   6.595   1.390   0.752
68208SOL    HW1 6463   6.578   1.296   0.748
68208SOL    HW2 6464   6.511   1.431   0.733
68209SOL     OW 6465  12.058   5.207   6.446
68209SOL    HW1 6466  11.994   5.164   6.502
68209SOL    HW2 6467  12.009   5.232   6.368
68210SOL     OW 6468   3.995  13.212   9.095
68210SOL    HW1 6469   4.034  13.216   9.008
68210SOL    HW2 6470   3.932  13.141   9.090
68211SOL     OW 6471  11.428  12.362   0.607
68211SOL    HW1 6472  11.338  12.390   0.591
68211SOL    HW2 6473  11.480  12.439   0.584
68212SOL     OW 6474   1.912  14.416   3.392
68212SOL    HW1 6475   1.946  14.506   3.393
68212SOL    HW2 6476   1.883  14.402   3.302
68213SOL     OW 6477  11.323  13.148   4.519
68213SOL    HW1 6478  11.310  13.109   4.432
68213SOL    HW2 6479  11.249  13.117   4.570
68214SOL     OW 6480   5.886   9.507  13.286
68214SOL    HW1 6481   5.863   9.580  13.229
68214SOL    HW2 6482   5.841   9.526  13.368
68215SOL     OW 6483   9.356   9.060   5.498
68215SOL    HW1 6484   9.400   9.042   5.581
68215SOL    HW2 6485   9.427   9.088   5.440
68216SOL     OW 6486  12.487   1.140  14.339
68216SOL    HW1 6487  12.532   1.123  14.256
68216SOL    HW2 6488  12.535   1.213  14.378
68217SOL     OW 6489   7.339  14.185  14.703
68217SOL    HW1 6490   7.294  14.241  14.639
68217SOL    HW2 6491   7.337  14.098  14.664
68218SOL     OW 6492  12.399   0.103  12.304
68218SOL    HW1 6493  12.427   0.192  12.328
68218SOL    HW2 6494  12.427   0.093  12.213
68219SOL     OW 6495   8.336   2.049   5.045
68219SOL    HW1 6496   8.299   2.117   4.989
68219SOL    HW2 6497   8.372   2.096   5.120
68220SOL     OW 6498  12.625  13.576  10.427
68220SOL    HW1 6499  12.636  13.498  10.482
68220SOL    HW2 6500  12.712  13.591  10.389
68221SOL     OW 6501   0.775   1.951   9.602
68221SOL    HW1 6502   0.770   1.872   9.547
68221SOL    HW2 6503   0.817   1.921   9.682
68222SOL     OW 6504  10.720   1.605  10.521
68222SOL    HW1 6505  10.792   1.668  10.524
68222SOL    HW2 6506  10.671   1.627  10.442
68223SOL     OW 6507  14.545   6.161   4.771
68223SOL    HW1 6508  14.622   6.216   4.759
68223SOL    HW2 6509  14.533   6.156   4.866
68224SOL     OW 6510   2.755   2.040   4.300
68224SOL    HW1 6511   2.760   2.024   4.206
68224SOL    HW2 6512   2.845   2.052   4.328
68225SOL     OW 6513  12.435   3.815  10.408
68225SOL    HW1 6514  12.398   3.882  10.466
68225SOL    HW2 6515  12.460   3.863  10.329
68226SOL     OW 6516   6.360  10.188   2.759
68226SOL    HW1 6517   6.347  10.256   2.825
68226SOL    HW2 6518   6.341  10.233   2.676
68227SOL     OW 6519   4.818   8.846   7.280
68227SOL    HW1 6520   4.848   8.758   7.302
68227SOL    HW2 6521   4.857   8.864   7.195
68228SOL     OW 6522  14.299   9.001   7.976
68228SOL    HW1 6523  14.342   9.086   7.986
68228SOL    HW2 6524  14.308   8.981   7.883
68229SOL     OW 6525   7.892   3.096   7.433
68229SOL    HW1 6526   7.817   3.044   7.404
68229SOL    HW2 6527   7.967   3.038   7.422
68230SOL     OW 6528   9.537  14.071  14.291
68230SOL    HW1 6529   9.597  14.000  14.268
68230SOL    HW2 6530   9.589  14.131  14.344
68231SOL     OW 6531   7.638   6.014   7.607
68231SOL    HW1 6532   7.576   6.082   7.635
68231SOL    HW2 6533   7.606   5.986   7.521
68232SOL     OW 6534  11.343   7.003   7.128
68232SOL    HW1 6535  11.362   6.923   7.177
68232SOL    HW2 6536  11.252   7.025   7.152
68233SOL     OW 6537   4.045   6.666   0.423
68233SOL    HW1 6538   3.969   6.709   0.384
68233SOL    HW2 6539   4.095   6.736   0.463
68234SOL     OW 6540  13.767  12.229   4.119
68234SOL    HW1 6541  13.795  12.233   4.210
68234SOL    HW2 6542  13.762  12.135   4.100
68235SOL     OW 6543  10.226  12.994   5.075
68235SOL    HW1 6544  10.218  12.988   4.980
68235SOL    HW2 6545  10.144  12.959   5.109
68236SOL     OW 6546   8.082   5.826  13.836
68236SOL    HW1 6547   8.143   5.781  13.894
68236SOL    HW2 6548   8.004   5.770  13.835
68237SOL     OW 6549  10.166   0.638   3.881
68237SOL    HW1 6550  10.106   0.644   3.806
68237SOL    HW2 6551  10.235   0.700   3.861
68238SOL     OW 6552   0.403   3.130  13.750
68238SOL    HW1 6553   0.401   3.082  13.667
68238SOL    HW2 6554   0.460   3.078  13.806
68239SOL     OW 6555   9.642   0.913   9.724
68239SOL    HW1 6556   9.580   0.964   9.673
68239SOL    HW2 6557   9.727   0.933   9.685
68240SOL     OW 6558   3.631  10.842   6.780
68240SOL    HW1 6559   3.726  10.833   6.787
68240SOL    HW2 6560   3.600  10.754   6.756
68241SOL     OW 6561   0.404  13.710   4.279
68241SOL    HW1 6562   0.369  13.631   4.238
68241SOL    HW2 6563   0.355  13.782   4.240
68242SOL     OW 6564   4.773   4.163   0.297
68242SOL    HW1 6565   4.679   4.182   0.297
68242SOL    HW2 6566   4.783   4.090   0.358
68243SOL     OW 6567   4.199   3.261  11.974
68243SOL    HW1 6568   4.242   3.339  11.941
68243SOL    HW2 6569   4.263   3.191  11.960
68244SOL     OW 6570   4.310  11.407   1.711
68244SOL    HW1 6571   4.394  11.443   1.684
68244SOL    HW2 6572   4.251  11.426   1.639
68245SOL     OW 6573  12.773   2.631   8.880
68245SOL    HW1 6574  12.820   2.577   8.944
68245SOL    HW2 6575  12.812   2.719   8.890
68246SOL     OW 6576   2.513   2.529   9.785
68246SOL    HW1 6577   2.455   2.601   9.812
68246SOL    HW2 6578   2.567   2.567   9.716
68247SOL     OW 6579   3.125  11.513  13.016
68247SOL    HW1 6580   3.154  11.424  12.992
68247SOL    HW2 6581   3.179  11.536  13.092
68248SOL     OW 6582   6.311   0.633   0.545
68248SOL    HW1 6583   6.266   0.571   0.603
68248SOL    HW2 6584   6.404   0.621   0.565
68249SOL     OW 6585   9.766  14.320   4.047
68249SOL    HW1 6586   9.740  14.318   3.955
68249SOL    HW2 6587   9.847  14.372   4.048
68250SOL     OW 6588   3.606  10.488   1.554
68250SOL    HW1 6589   3.579  10.398   1.569
68250SOL    HW2 6590   3.680  10.501   1.614
68251SOL     OW 6591   6.195  10.340   4.322
68251SOL    HW1 6592   6.197  10.405   4.251
68251SOL    HW2 6593   6.227  10.388   4.399
68252SOL     OW 6594  12.991  13.316   0.502
68252SOL    HW1 6595  12.917  13.375   0.486
68252SOL    HW2 6596  13.069  13.368   0.480
68253SOL     OW 6597  13.814   2.850   6.205
68253SOL    HW1 6598  13.783   2.838   6.295
68253SOL    HW2 6599  13.886   2.788   6.195
68254SOL     OW 6600  10.459   3.913   9.559
68254SOL    HW1 6601  10.364   3.900   9.562
68254SOL    HW2 6602  10.472   4.003   9.588
68255SOL     OW 6603  12.347  13.525   4.636
68255SOL    HW1 6604  12.438  13.497   4.625
68255SOL    HW2 6605  12.347  13.616   4.607
68256SOL     OW 6606  13.265  11.923  10.322
68256SOL    HW1 6607  13.338  11.935  10.383
68256SOL    HW2 6608  13.218  11.846  10.355
68257SOL     OW 6609   6.258   6.848   5.903
68257SOL    HW1 6610   6.198   6.849   5.977
68257SOL    HW2 6611   6.283   6.940   5.892
68258SOL     OW 6612   3.008   4.324  11.703
68258SOL    HW1 6613   3.017   4.332  11.608
68258SOL    HW2 6614   2.988   4.412  11.734
68259SOL     OW 6615   4.380   6.740  11.244
68259SOL    HW1 6616   4.470   6.769  11.226
68259SOL    HW2 6617   4.387   6.690  11.325
68260SOL     OW 6618   3.152   7.640   6.409
68260SOL    HW1 6619   3.094   7.644   6.485
68260SOL    HW2 6620   3.184   7.550   6.408
68261SOL     OW 6621   7.590   4.615   0.723
68261SOL    HW1 6622   7.682   4.634   0.738
68261SOL    HW2 6623   7.576   4.528   0.760
68262SOL     OW 6624   3.104   2.836   7.071
68262SOL    HW1 6625   3.012   2.842   7.045
68262SOL    HW2 6626   3.109   2.881   7.155
68263SOL     OW 6627   9.854   4.479   5.781
68263SOL    HW1 6628   9.900   4.404   5.745
68263SOL    HW2 6629   9.865   4.548   5.716
68264SOL     OW 6630   8.800  12.849  14.413
68264SOL    HW1 6631   8.891  12.822  14.420
68264SOL    HW2 6632   8.796  12.902  14.334
68265SOL     OW 6633  13.919  13.048   7.424
68265SOL    HW1 6634  13.965  13.124   7.388
68265SOL    HW2 6635  13.964  13.029   7.506
68266SOL     OW 6636   2.833   9.340  10.052
68266SOL    HW1 6637   2.887   9.317  10.127
68266SOL    HW2 6638   2.891   9.389   9.994
68267SOL     OW 6639  13.236  10.896   2.780
68267SOL    HW1 6640  13.328  10.921   2.780
68267SOL    HW2 6641  13.189  10.978   2.795
68268SOL     OW 6642  13.386   8.977  12.580
68268SOL    HW1 6643  13.461   8.928  12.549
68268SOL    HW2 6644  13.389   8.967  12.676
68269SOL     OW 6645  14.630   8.035  14.348
68269SOL    HW1 6646  14.557   7.974  14.361
68269SOL    HW2 6647  14.614   8.075  14.262
68270SOL     OW 6648  12.254   9.157   2.900
68270SOL    HW1 6649  12.258   9.185   2.991
68270SOL    HW2 6650  12.174   9.105   2.894
68271SOL     OW 6651   5.011  12.642   0.437
68271SOL    HW1 6652   5.066  12.676   0.507
68271SOL    HW2 6653   5.071  12.627   0.364
68272SOL     OW 6654  13.174   1.531   9.483
68272SOL    HW1 6655  13.251   1.577   9.517
68272SOL    HW2 6656  13.209   1.473   9.416
68273SOL     OW 6657  13.506   8.674   7.378
68273SOL    HW1 6658  13.472   8.642   7.461
68273SOL    HW2 6659  13.563   8.604   7.347
68274SOL     OW 6660   0.624   8.012  14.378
68274SOL    HW1 6661   0.707   8.037  14.337
68274SOL    HW2 6662   0.613   8.074  14.449
68275SOL     OW 6663   4.143  12.311  10.804
68275SOL    HW1 6664   4.101  12.226  10.790
68275SOL    HW2 6665   4.218  12.311  10.745
68276SOL     OW 6666  11.842   0.746   1.067
68276SOL    HW1 6667  11.865   0.673   1.124
68276SOL    HW2 6668  11.891   0.729   0.986
68277SOL     OW 6669   7.939  14.592   3.830
68277SOL    HW1 6670   8.014  14.540   3.860
68277SOL    HW2 6671   7.960  14.613   3.738
68278SOL     OW 6672   5.488   0.914   3.162
68278SOL    HW1 6673   5.529   0.915   3.249
68278SOL    HW2 6674   5.425   0.842   3.167
68279SOL     OW 6675   1.136  10.619  14.546
68279SOL    HW1 6676   1.075  10.549  14.570
68279SOL    HW2 6677   1.174  10.591  14.463
68280SOL     OW 6678   9.867   1.625   1.795
68280SOL    HW1 6679   9.948   1.672   1.810
68280SOL    HW2 6680   9.830   1.611   1.882
68281SOL     OW 6681  11.417   2.831   0.269
68281SOL    HW1 6682  11.351   2.796   0.329
68281SOL    HW2 6683  11.500   2.803   0.307
68282SOL     OW 6684  12.206   5.495  10.315
68282SOL    HW1 6685  12.120   5.456  10.301
68282SOL    HW2 6686  12.250   5.489  10.230
68283SOL     OW 6687   7.027   7.028   7.482
68283SOL    HW1 6688   7.057   7.109   7.523
68283SOL    HW2 6689   6.995   6.974   7.555
68284SOL     OW 6690  14.692  11.826   7.907
68284SOL    HW1 6691  14.717  11.863   7.822
68284SOL    HW2 6692  14.719  11.734   7.901
68285SOL     OW 6693  13.835   6.658   6.221
68285SOL    HW1 6694  13.816   6.751   6.231
68285SOL    HW2 6695  13.839   6.644   6.126
68286SOL     OW 6696  13.136   1.958  12.685
68286SOL    HW1 6697  13.227   1.935  12.671
68286SOL    HW2 6698  13.093   1.876  12.709
68287SOL     OW 6699   9.648   7.307   3.822
68287SOL    HW1 6700   9.719   7.249   3.793
68287SOL    HW2 6701   9.570   7.271   3.781
68288SOL     OW 6702   0.261   1.230   3.686
68288SOL    HW1 6703   0.273   1.246   3.592
68288SOL    HW2 6704   0.213   1.147   3.690
68289SOL     OW 6705   3.386   7.641  14.347
68289SOL    HW1 6706   3.380   7.660  14.254
68289SOL    HW2 6707   3.474   7.603  14.359
68290SOL     OW 6708  11.825   1.115  12.751
68290SOL    HW1 6709  11.753   1.106  12.688
68290SOL    HW2 6710  11.843   1.209  12.754
68291SOL     OW 6711   7.570  10.257   6.088
68291SOL    HW1 6712   7.529  10.171   6.097
68291SOL    HW2 6713   7.555  10.299   6.172
68292SOL     OW 6714   6.008   1.652   6.240
68292SOL    HW1 6715   5.970   1.734   6.271
68292SOL    HW2 6716   6.095   1.649   6.280
68293SOL     OW 6717   3.861   9.824   1.234
68293SOL    HW1 6718   3.768   9.804   1.236
68293SOL    HW2 6719   3.898   9.759   1.174
68294SOL     OW 6720   2.846  13.607   6.090
68294SOL    HW1 6721   2.763  13.636   6.051
68294SOL    HW2 6722   2.851  13.514   6.068
68295SOL     OW 6723   8.637   9.806   9.105
68295SOL    HW1 6724   8.712   9.865   9.106
68295SOL    HW2 6725   8.574   9.845   9.165
68296SOL     OW 6726  14.229  12.471   4.484
68296SOL    HW1 6727  14.151  12.524   4.469
68296SOL    HW2 6728  14.200  12.402   4.544
68297SOL     OW 6729  14.273   7.295   5.179
68297SOL    HW1 6730  14.288   7.220   5.120
68297SOL    HW2 6731  14.178   7.300   5.186
68298SOL     OW 6732   1.669  14.618   6.860
68298SOL    HW1 6733   1.635  14.551   6.801
68298SOL    HW2 6734   1.661  14.699   6.811
68299SOL     OW 6735   2.666   3.362  13.511
68299SOL    HW1 6736   2.611   3.409  13.449
68299SOL    HW2 6737   2.748   3.412  13.513
68300SOL     OW 6738  12.481  12.949   3.927
68300SOL    HW1 6739  12.567  12.907   3.925
68300SOL    HW2 6740  12.500  13.043   3.933
68301SOL     OW 6741  10.330   2.373   0.367
68301SOL    HW1 6742  10.293   2.320   0.297
68301SOL    HW2 6743  10.415   2.401   0.333
68302SOL     OW 6744   9.361  13.311   1.134
68302SOL    HW1 6745   9.386  13.380   1.196
68302SOL    HW2 6746   9.284  13.346   1.089
68303SOL     OW 6747   4.793  13.130   9.035
68303SOL    HW1 6748   4.711  13.091   9.064
68303SOL    HW2 6749   4.847  13.056   9.007
68304SOL     OW 6750   5.165   8.676   0.326
68304SOL    HW1 6751   5.225   8.698   0.255
68304SOL    HW2 6752   5.185   8.585   0.348
68305SOL     OW 6753   4.211   5.269   4.452
68305SOL    HW1 6754   4.197   5.197   4.390
68305SOL    HW2 6755   4.293   5.309   4.423
68306SOL     OW 6756   9.401   4.068   4.376
68306SOL    HW1 6757   9.469   4.119   4.420
68306SOL    HW2 6758   9.381   3.997   4.436
68307SOL     OW 6759  12.481  13.951   7.773
68307SOL    HW1 6760  12.488  13.864   7.810
68307SOL    HW2 6761  12.510  14.010   7.843
68308SOL     OW 6762  12.648   9.719   0.057
68308SOL    HW1 6763  12.734   9.721   0.016
68308SOL    HW2 6764  12.666   9.704   0.150
68309SOL     OW 6765   9.401   9.279   7.299
68309SOL    HW1 6766   9.341   9.218   7.344
68309SOL    HW2 6767   9.359   9.364   7.308
68310SOL     OW 6768   3.425   1.753  12.679
68310SOL    HW1 6769   3.375   1.768  12.759
68310SOL    HW2 6770   3.410   1.831  12.626
68311SOL     OW 6771  11.943   6.417   8.020
68311SOL    HW1 6772  11.981   6.368   8.093
68311SOL    HW2 6773  11.931   6.352   7.951
68312SOL     OW 6774   7.324   1.504   7.067
68312SOL    HW1 6775   7.376   1.433   7.031
68312SOL    HW2 6776   7.308   1.479   7.158
68313SOL     OW 6777   6.620   7.496   8.935
68313SOL    HW1 6778   6.553   7.542   8.884
68313SOL    HW2 6779   6.702   7.512   8.887
68314SOL     OW 6780   8.814   3.553   5.954
68314SOL    HW1 6781   8.777   3.618   6.013
68314SOL    HW2 6782   8.742   3.531   5.895
68315SOL     OW 6783   1.752   9.262   8.763
68315SOL    HW1 6784   1.806   9.323   8.713
68315SOL    HW2 6785   1.662   9.286   8.741
68316SOL     OW 6786   0.458   5.829   6.523
68316SOL    HW1 6787   0.531   5.795   6.472
68316SOL    HW2 6788   0.396   5.756   6.528
68317SOL     OW 6789   5.224  12.946   9.305
68317SOL    HW1 6790   5.167  12.887   9.354
68317SOL    HW2 6791   5.174  13.027   9.297
68318SOL     OW 6792   6.325  12.217   3.048
68318SOL    HW1 6793   6.326  12.311   3.069
68318SOL    HW2 6794   6.232  12.195   3.044
68319SOL     OW 6795  13.429  11.891   3.578
68319SOL    HW1 6796  13.512  11.844   3.578
68319SOL    HW2 6797  13.441  11.961   3.514
68320SOL     OW 6798   1.919   5.678   4.877
68320SOL    HW1 6799   1.925   5.621   4.953
68320SOL    HW2 6800   1.832   5.716   4.881
68321SOL     OW 6801   6.385  12.981   5.891
68321SOL    HW1 6802   6.367  13.041   5.963
68321SOL    HW2 6803   6.299  12.952   5.862
68322SOL     OW 6804   7.930   4.755   6.551
68322SOL    HW1 6805   7.970   4.831   6.595
68322SOL    HW2 6806   7.876   4.715   6.619
68323SOL     OW 6807   6.353   4.491   2.164
68323SOL    HW1 6808   6.402   4.551   2.108
68323SOL    HW2 6809   6.266   4.529   2.169
68324SOL     OW 6810  11.463  10.094   4.785
68324SOL    HW1 6811  11.481  10.001   4.790
68324SOL    HW2 6812  11.368  10.101   4.793
68325SOL     OW 6813   4.426   8.066  14.163
68325SOL    HW1 6814   4.448   8.091  14.074
68325SOL    HW2 6815   4.424   7.970  14.161
68326SOL     OW 6816   4.253  11.509   0.658
68326SOL    HW1 6817   4.209  11.594   0.661
68326SOL    HW2 6818   4.205  11.459   0.592
68327SOL     OW 6819   9.273  11.097  11.244
68327SOL    HW1 6820   9.285  11.185  11.281
68327SOL    HW2 6821   9.187  11.069  11.275
68328SOL     OW 6822   9.462   3.313  12.345
68328SOL    HW1 6823   9.556   3.326  12.355
68328SOL    HW2 6824   9.453   3.245  12.279
68329SOL     OW 6825   4.062   9.619   0.552
68329SOL    HW1 6826   4.057   9.527   0.528
68329SOL    HW2 6827   4.079   9.665   0.469
68330SOL     OW 6828   7.845   1.252  10.797
68330SOL    HW1 6829   7.790   1.225  10.871
68330SOL    HW2 6830   7.803   1.331  10.763
68331SOL     OW 6831  13.694   6.768  13.655
68331SOL    HW1 6832  13.723   6.792  13.743
68331SOL    HW2 6833  13.604   6.800  13.650
68332SOL     OW 6834   3.120  10.840  13.729
68332SOL    HW1 6835   3.175  10.778  13.777
68332SOL    HW2 6836   3.088  10.900  13.797
68333SOL     OW 6837   9.077   4.657   9.286
68333SOL    HW1 6838   9.041   4.733   9.240
68333SOL    HW2 6839   9.114   4.603   9.216
68334SOL     OW 6840   9.041  14.197   6.282
68334SOL    HW1 6841   9.029  14.231   6.194
68334SOL    HW2 6842   9.115  14.137   6.275
68335SOL     OW 6843   4.330   2.881   7.412
68335SOL    HW1 6844   4.422   2.886   7.435
68335SOL    HW2 6845   4.318   2.947   7.344
68336SOL     OW 6846   9.703   6.124  13.343
68336SOL    HW1 6847   9.663   6.141  13.258
68336SOL    HW2 6848   9.700   6.029  13.352
68337SOL     OW 6849   0.941   0.528  12.738
68337SOL    HW1 6850   0.874   0.593  12.717
68337SOL    HW2 6851   1.022   0.578  12.743
68338SOL     OW 6852   6.640   6.610  12.092
68338SOL    HW1 6853   6.594   6.541  12.046
68338SOL    HW2 6854   6.651   6.679  12.027
68339SOL     OW 6855   2.915   9.465   3.207
68339SOL    HW1 6856   2.997   9.468   3.257
68339SOL    HW2 6857   2.848   9.494   3.269
68340SOL     OW 6858  12.531  10.562   8.233
68340SOL    HW1 6859  12.556  10.650   8.261
68340SOL    HW2 6860  12.505  10.572   8.142
68341SOL     OW 6861   1.084   7.451  12.232
68341SOL    HW1 6862   1.141   7.448  12.155
68341SOL    HW2 6863   0.999   7.419  12.199
68342SOL     OW 6864   5.947  10.089  11.873
68342SOL    HW1 6865   5.870  10.143  11.856
68342SOL    HW2 6866   5.930  10.007  11.827
68343SOL     OW 6867  13.985  10.674   4.173
68343SOL    HW1 6868  14.041  10.751   4.185
68343SOL    HW2 6869  13.962  10.674   4.081
68344SOL     OW 6870   0.039   3.242   6.899
68344SOL    HW1 6871   0.022   3.188   6.822
68344SOL    HW2 6872  14.868   3.197   6.971
68345SOL     OW 6873   7.823   7.510  14.647
68345SOL    HW1 6874   7.884   7.493  14.719
68345SOL    HW2 6875   7.756   7.567  14.684
68346SOL     OW 6876  14.805   6.008  13.772
68346SOL    HW1 6877  14.852   5.985  13.852
68346SOL    HW2 6878  14.870   5.998  13.702
68347SOL     OW 6879   5.180   9.987   0.044
68347SOL    HW1 6880   5.256   9.947   0.002
68347SOL    HW2 6881   5.137  10.036  14.848
68348SOL     OW 6882   5.951   2.045   4.700
68348SOL    HW1 6883   5.898   2.009   4.770
68348SOL    HW2 6884   5.980   1.969   4.650
68349SOL     OW 6885   7.238  11.934   2.684
68349SOL    HW1 6886   7.268  12.004   2.743
68349SOL    HW2 6887   7.158  11.900   2.726
68350SOL     OW 6888   5.848   1.383   9.531
68350SOL    HW1 6889   5.778   1.325   9.500
68350SOL    HW2 6890   5.927   1.329   9.530
68351SOL     OW 6891   2.012   4.882   0.299
68351SOL    HW1 6892   2.058   4.928   0.230
68351SOL    HW2 6893   2.021   4.938   0.376
68352SOL     OW 6894  14.206   7.072  12.401
68352SOL    HW1 6895  14.287   7.031  12.432
68352SOL    HW2 6896  14.234   7.150  12.354
68353SOL     OW 6897   0.717   5.768   4.075
68353SOL    HW1 6898   0.726   5.674   4.063
68353SOL    HW2 6899   0.680   5.800   3.993
68354SOL     OW 6900   1.433   8.467   0.787
68354SOL    HW1 6901   1.477   8.393   0.830
68354SOL    HW2 6902   1.503   8.529   0.769
68355SOL     OW 6903   9.548  13.815  12.421
68355SOL    HW1 6904   9.562  13.828  12.327
68355SOL    HW2 6905   9.471  13.868  12.442
68356SOL     OW 6906   9.633   2.232  11.162
68356SOL    HW1 6907   9.725   2.244  11.137
68356SOL    HW2 6908   9.636   2.221  11.257
68357SOL     OW 6909   2.660  11.470  13.289
68357SOL    HW1 6910   2.721  11.543  13.279
68357SOL    HW2 6911   2.625  11.456  13.201
68358SOL     OW 6912   1.475   3.334   3.177
68358SOL    HW1 6913   1.512   3.421   3.188
68358SOL    HW2 6914   1.382   3.349   3.160
68359SOL     OW 6915  13.674  10.788   9.670
68359SOL    HW1 6916  13.736  10.851   9.633
68359SOL    HW2 6917  13.676  10.714   9.610
68360SOL     OW 6918   4.654   0.543  14.705
68360SOL    HW1 6919   4.613   0.487  14.771
68360SOL    HW2 6920   4.650   0.631  14.742
68361SOL     OW 6921   8.994   2.748   3.643
68361SOL    HW1 6922   8.927   2.699   3.690
68361SOL    HW2 6923   8.973   2.840   3.659
68362SOL     OW 6924   2.924   6.121   0.067
68362SOL    HW1 6925   2.860   6.145  14.874
68362SOL    HW2 6926   2.891   6.038   0.102
68363SOL     OW 6927   3.694  12.672   8.455
68363SOL    HW1 6928   3.786  12.695   8.468
68363SOL    HW2 6929   3.664  12.733   8.387
68364SOL     OW 6930   9.454   3.538  12.577
68364SOL    HW1 6931   9.490   3.478  12.511
68364SOL    HW2 6932   9.419   3.611  12.526
68365SOL     OW 6933  13.865   5.102   0.483
68365SOL    HW1 6934  13.796   5.114   0.547
68365SOL    HW2 6935  13.925   5.175   0.497
68366SOL     OW 6936  11.303   6.876  13.050
68366SOL    HW1 6937  11.366   6.896  13.119
68366SOL    HW2 6938  11.252   6.803  13.085
68367SOL     OW 6939   2.295   7.777   7.898
68367SOL    HW1 6940   2.342   7.753   7.818
68367SOL    HW2 6941   2.248   7.697   7.923
68368SOL     OW 6942   1.952   6.621  10.716
68368SOL    HW1 6943   1.988   6.691  10.661
68368SOL    HW2 6944   1.941   6.547  10.656
68369SOL     OW 6945   5.639   8.844   3.928
68369SOL    HW1 6946   5.601   8.766   3.969
68369SOL    HW2 6947   5.563   8.890   3.892
68370SOL     OW 6948  12.470  12.707  11.492
68370SOL    HW1 6949  12.439  12.620  11.518
68370SOL    HW2 6950  12.522  12.737  11.566
68371SOL     OW 6951   0.589  11.124   8.132
68371SOL    HW1 6952   0.656  11.099   8.196
68371SOL    HW2 6953   0.631  11.112   8.047
68372SOL     OW 6954   5.105  10.452   7.741
68372SOL    HW1 6955   5.045  10.521   7.712
68372SOL    HW2 6956   5.192  10.487   7.722
68373SOL     OW 6957   9.848   6.071   7.615
68373SOL    HW1 6958   9.903   6.000   7.648
68373SOL    HW2 6959   9.759   6.038   7.623
68374SOL     OW 6960   2.063   3.526   1.153
68374SOL    HW1 6961   2.154   3.508   1.176
68374SOL    HW2 6962   2.021   3.440   1.153
68375SOL     OW 6963   1.512   3.611   6.943
68375SOL    HW1 6964   1.526   3.594   7.036
68375SOL    HW2 6965   1.517   3.706   6.935
68376SOL     OW 6966   1.021   4.678  10.182
68376SOL    HW1 6967   1.059   4.766  10.174
68376SOL    HW2 6968   1.031   4.640  10.095
68377SOL     OW 6969   8.599  10.944  14.512
68377SOL    HW1 6970   8.664  10.966  14.446
68377SOL    HW2 6971   8.576  11.027  14.553
68378SOL     OW 6972   3.378  13.907   9.472
68378SOL    HW1 6973   3.462  13.952   9.479
68378SOL    HW2 6974   3.323  13.966   9.420
68379SOL     OW 6975   8.328   9.972   6.854
68379SOL    HW1 6976   8.235   9.987   6.866
68379SOL    HW2 6977   8.342   9.980   6.760
68380SOL     OW 6978  10.371  14.036  11.049
68380SOL    HW1 6979  10.365  14.085  10.967
68380SOL    HW2 6980  10.418  13.956  11.025
68381SOL     OW 6981  10.011   7.129   5.013
68381SOL    HW1 6982  10.038   7.129   4.921
68381SOL    HW2 6983  10.033   7.217   5.044
68382SOL     OW 6984   4.940  12.623  12.427
68382SOL    HW1 6985   5.024  12.621  12.382
68382SOL    HW2 6986   4.893  12.546  12.394
68383SOL     OW 6987  11.279   7.899   2.549
68383SOL    HW1 6988  11.228   7.978   2.529
68383SOL    HW2 6989  11.212   7.830   2.559
68384SOL     OW 6990   0.086   0.656   3.784
68384SOL    HW1 6991   0.018   0.630   3.846
68384SOL    HW2 6992   0.062   0.612   3.702
68385SOL     OW 6993   0.134   8.653   3.659
68385SOL    HW1 6994   0.122   8.682   3.750
68385SOL    HW2 6995   0.056   8.601   3.640
68386SOL     OW 6996   7.562  11.727  12.923
68386SOL    HW1 6997   7.630  11.747  12.987
68386SOL    HW2 6998   7.580  11.637  12.896
68387SOL     OW 6999   2.427  12.004  12.179
68387SOL    HW1 7000   2.390  12.052  12.254
68387SOL    HW2 7001   2.351  11.974  12.130
68388SOL     OW 7002   1.337  12.256   2.302
68388SOL    HW1 7003   1.324  12.340   2.259
68388SOL    HW2 7004   1.404  12.273   2.369
68389SOL     OW 7005  14.642   0.473   2.965
68389SOL    HW1 7006  14.665   0.512   2.881
68389SOL    HW2 7007  14.658   0.380   2.954
68390SOL     OW 7008   0.440   4.652   4.682
68390SOL    HW1 7009   0.443   4.568   4.635
68390SOL    HW2 7010   0.350   4.682   4.674
68391SOL     OW 7011  10.717   7.772   9.232
68391SOL    HW1 7012  10.702   7.865   9.219
68391SOL    HW2 7013  10.774   7.767   9.309
68392SOL     OW 7014   5.664   1.965   8.005
68392SOL    HW1 7015   5.667   2.020   7.926
68392SOL    HW2 7016   5.586   1.911   7.993
68393SOL     OW 7017  11.442  14.731  14.779
68393SOL    HW1 7018  11.491  14.801  14.737
68393SOL    HW2 7019  11.419  14.671  14.708
68394SOL     OW 7020   4.602  11.069   8.298
68394SOL    HW1 7021   4.512  11.077   8.330
68394SOL    HW2 7022   4.600  10.995   8.238
68395SOL     OW 7023  13.241  14.456   8.120
68395SOL    HW1 7024  13.211  14.374   8.158
68395SOL    HW2 7025  13.178  14.521   8.152
68396SOL     OW 7026  13.219  11.574   9.112
68396SOL    HW1 7027  13.131  11.578   9.151
68396SOL    HW2 7028  13.273  11.531   9.178
68397SOL     OW 7029   0.898  13.672   3.020
68397SOL    HW1 7030   0.835  13.615   3.066
68397SOL    HW2 7031   0.925  13.735   3.087
68398SOL     OW 7032   0.627  14.521   6.974
68398SOL    HW1 7033   0.685  14.569   7.032
68398SOL    HW2 7034   0.678  14.510   6.893
68399SOL     OW 7035   4.290   5.940  14.861
68399SOL    HW1 7036   4.343   6.020  14.863
68399SOL    HW2 7037   4.345   5.875  14.817
68400SOL     OW 7038   3.299   6.427   7.736
68400SOL    HW1 7039   3.292   6.480   7.815
68400SOL    HW2 7040   3.292   6.336   7.767
68401SOL     OW 7041   7.044   2.835  10.828
68401SOL    HW1 7042   7.134   2.841  10.795
68401SOL    HW2 7043   7.016   2.926  10.838
68402SOL     OW 7044   2.951   3.962   9.679
68402SOL    HW1 7045   2.869   3.913   9.683
68402SOL    HW2 7046   2.959   4.003   9.766
68403SOL     OW 7047  11.596   2.687   3.232
68403SOL    HW1 7048  11.546   2.676   3.313
68403SOL    HW2 7049  11.680   2.724   3.260
68404SOL     OW 7050   4.206   0.847   5.857
68404SOL    HW1 7051   4.169   0.846   5.769
68404SOL    HW2 7052   4.134   0.819   5.913
68405SOL     OW 7053   0.983   9.059   6.026
68405SOL    HW1 7054   1.050   9.058   6.094
68405SOL    HW2 7055   0.948   9.148   6.028
68406SOL     OW 7056  11.636   4.962   3.877
68406SOL    HW1 7057  11.610   5.051   3.899
68406SOL    HW2 7058  11.571   4.933   3.814
68407SOL     OW 7059   9.362  14.606   3.953
68407SOL    HW1 7060   9.375  14.519   3.992
68407SOL    HW2 7061   9.385  14.667   4.023
68408SOL     OW 7062   8.203   0.783   2.750
68408SOL    HW1 7063   8.207   0.771   2.655
68408SOL    HW2 7064   8.124   0.735   2.777
68409SOL     OW 7065  11.601  12.032  13.697
68409SOL    HW1 7066  11.660  11.979  13.750
68409SOL    HW2 7067  11.515  11.991  13.709
68410SOL     OW 7068   8.658  14.070   2.216
68410SOL    HW1 7069   8.672  14.048   2.124
68410SOL    HW2 7070   8.563  14.061   2.229
68411SOL     OW 7071   5.263  10.541   2.567
68411SOL    HW1 7072   5.286  10.628   2.599
68411SOL    HW2 7073   5.221  10.557   2.483
68412SOL     OW 7074   6.137   0.386  11.640
68412SOL    HW1 7075   6.158   0.471  11.677
68412SOL    HW2 7076   6.119   0.330  11.716
68413SOL     OW 7077   2.519  12.832  11.201
68413SOL    HW1 7078   2.512  12.762  11.265
68413SOL    HW2 7079   2.474  12.907  11.241
68414SOL     OW 7080   1.055   4.840   2.822
68414SOL    HW1 7081   1.014   4.754   2.828
68414SOL    HW2 7082   1.025   4.875   2.738
68415SOL     OW 7083   0.456   7.463  13.991
68415SOL    HW1 7084   0.422   7.492  13.906
68415SOL    HW2 7085   0.378   7.447  14.043
68416SOL     OW 7086  11.826  12.869   8.163
68416SOL    HW1 7087  11.767  12.943   8.147
68416SOL    HW2 7088  11.903  12.888   8.109
68417SOL     OW 7089   6.700   9.187  12.025
68417SOL    HW1 7090   6.751   9.111  11.995
68417SOL    HW2 7091   6.708   9.185  12.120
68418SOL     OW 7092   8.313  13.397   1.794
68418SOL    HW1 7093   8.235  13.381   1.741
68418SOL    HW2 7094   8.278  13.423   1.880
68419SOL     OW 7095   1.312   7.715   1.381
68419SOL    HW1 7096   1.362   7.797   1.381
68419SOL    HW2 7097   1.379   7.646   1.384
68420SOL     OW 7098   0.519   7.150  11.188
68420SOL    HW1 7099   0.446   7.212  11.181
68420SOL    HW2 7100   0.477   7.065  11.199
68421SOL     OW 7101   7.325  11.605  12.036
68421SOL    HW1 7102   7.323  11.645  11.949
68421SOL    HW2 7103   7.390  11.536  12.030
68422SOL     OW 7104   2.621   7.633  13.540
68422SOL    HW1 7105   2.572   7.710  13.571
68422SOL    HW2 7106   2.712   7.662  13.537
68423SOL     OW 7107   3.659   7.009   1.551
68423SOL    HW1 7108   3.747   7.026   1.518
68423SOL    HW2 7109   3.608   7.085   1.524
68424SOL     OW 7110   8.681   0.529   2.399
68424SOL    HW1 7111   8.766   0.572   2.395
68424SOL    HW2 7112   8.697   0.440   2.367
68425SOL     OW 7113  14.487   3.491   2.936
68425SOL    HW1 7114  14.522   3.442   2.862
68425SOL    HW2 7115  14.534   3.575   2.933
68426SOL     OW 7116   5.327   5.223   4.163
68426SOL    HW1 7117   5.311   5.312   4.131
68426SOL    HW2 7118   5.279   5.167   4.102
68427SOL     OW 7119   4.435   2.011   5.589
68427SOL    HW1 7120   4.384   2.048   5.661
68427SOL    HW2 7121   4.452   1.920   5.616
68428SOL     OW 7122   2.666  14.654   9.106
68428SOL    HW1 7123   2.594  14.667   9.044
68428SOL    HW2 7124   2.745  14.654   9.052
68429SOL     OW 7125  13.982  13.017   0.777
68429SOL    HW1 7126  13.995  12.927   0.746
68429SOL    HW2 7127  13.913  13.052   0.722
68430SOL     OW 7128   1.124   9.731  14.643
68430SOL    HW1 7129   1.202   9.782  14.663
68430SOL    HW2 7130   1.091   9.769  14.562
68431SOL     OW 7131   2.415   2.858   1.296
68431SOL    HW1 7132   2.404   2.844   1.202
68431SOL    HW2 7133   2.502   2.896   1.305
68432SOL     OW 7134   6.933  10.517   4.351
68432SOL    HW1 7135   6.872  10.569   4.403
68432SOL    HW2 7136   6.906  10.531   4.260
68433SOL     OW 7137  10.245   9.044   8.042
68433SOL    HW1 7138  10.179   9.078   7.982
68433SOL    HW2 7139  10.325   9.037   7.990
68434SOL     OW 7140   1.760   4.349   2.399
68434SOL    HW1 7141   1.683   4.391   2.438
68434SOL    HW2 7142   1.826   4.349   2.468
68435SOL     OW 7143   5.705   2.282   3.098
68435SOL    HW1 7144   5.679   2.372   3.113
68435SOL    HW2 7145   5.787   2.288   3.050
68436SOL     OW 7146   4.169  10.194  10.916
68436SOL    HW1 7147   4.174  10.271  10.859
68436SOL    HW2 7148   4.259  10.179  10.944
68437SOL     OW 7149   5.130   0.524  12.175
68437SOL    HW1 7150   5.051   0.475  12.198
68437SOL    HW2 7151   5.200   0.481  12.225
68438SOL     OW 7152  12.949   3.807  11.249
68438SOL    HW1 7153  12.956   3.857  11.330
68438SOL    HW2 7154  12.855   3.801  11.233
68439SOL     OW 7155   1.613  11.171   9.235
68439SOL    HW1 7156   1.580  11.113   9.165
68439SOL    HW2 7157   1.544  11.237   9.245
68440SOL     OW 7158   0.832  14.835   2.410
68440SOL    HW1 7159   0.757  14.818   2.467
68440SOL    HW2 7160   0.838  14.758   2.353
68441SOL     OW 7161   3.369   9.329   9.142
68441SOL    HW1 7162   3.414   9.384   9.207
68441SOL    HW2 7163   3.295   9.382   9.114
68442SOL     OW 7164   0.869   6.244   8.774
68442SOL    HW1 7165   0.931   6.237   8.702
68442SOL    HW2 7166   0.825   6.159   8.776
68443SOL     OW 7167  12.877   7.140   0.662
68443SOL    HW1 7168  12.893   7.064   0.718
68443SOL    HW2 7169  12.782   7.153   0.666
68444SOL     OW 7170   9.537  11.315  12.951
68444SOL    HW1 7171   9.560  11.354  12.867
68444SOL    HW2 7172   9.593  11.360  13.014
68445SOL     OW 7173  13.406   1.181  13.822
68445SOL    HW1 7174  13.418   1.132  13.903
68445SOL    HW2 7175  13.494   1.205  13.794
68446SOL     OW 7176   9.823  14.746  14.381
68446SOL    HW1 7177   9.915  14.755  14.356
68446SOL    HW2 7178   9.811  14.810  14.451
68447SOL     OW 7179   8.304  10.385   9.210
68447SOL    HW1 7180   8.283  10.372   9.302
68447SOL    HW2 7181   8.220  10.400   9.167
68448SOL     OW 7182   9.520   8.630   9.779
68448SOL    HW1 7183   9.469   8.561   9.736
68448SOL    HW2 7184   9.496   8.710   9.732
68449SOL     OW 7185   2.960   5.856   4.580
68449SOL    HW1 7186   2.993   5.766   4.577
68449SOL    HW2 7187   2.921   5.871   4.494
68450SOL     OW 7188   5.912   2.611   3.995
68450SOL    HW1 7189   5.850   2.545   3.964
68450SOL    HW2 7190   5.998   2.579   3.967
68451SOL     OW 7191   9.140   8.416   1.501
68451SOL    HW1 7192   9.199   8.482   1.539
68451SOL    HW2 7193   9.058   8.464   1.484
68452SOL     OW 7194   0.947   8.367   3.932
68452SOL    HW1 7195   0.987   8.426   3.996
68452SOL    HW2 7196   0.855   8.361   3.958
68453SOL     OW 7197   6.759   1.119  14.139
68453SOL    HW1 7198   6.675   1.160  14.119
68453SOL    HW2 7199   6.739   1.026  14.150
68454SOL     OW 7200   3.339   8.248  11.953
68454SOL    HW1 7201   3.308   8.315  11.893
68454SOL    HW2 7202   3.289   8.263  12.034
68455SOL     OW 7203  11.115  13.017  12.218
68455SOL    HW1 7204  11.178  13.076  12.177
68455SOL    HW2 7205  11.036  13.071  12.229
68456SOL     OW 7206   2.004  14.526  13.456
68456SOL    HW1 7207   2.084  14.473  13.459
68456SOL    HW2 7208   1.970  14.523  13.545
68457SOL     OW 7209   0.871  13.428   2.424
68457SOL    HW1 7210   0.868  13.428   2.519
68457SOL    HW2 7211   0.933  13.359   2.401
68458SOL     OW 7212   9.355  10.580  11.573
68458SOL    HW1 7213   9.285  10.588  11.508
68458SOL    HW2 7214   9.338  10.495  11.615
68459SOL     OW 7215   8.502  10.468  14.578
68459SOL    HW1 7216   8.479  10.560  14.568
68459SOL    HW2 7217   8.429  10.420  14.541
68460SOL     OW 7218   5.096  14.867   9.221
68460SOL    HW1 7219   5.057  14.864   9.134
68460SOL    HW2 7220   5.071  14.783   9.261
68461SOL     OW 7221   5.600   9.981  12.636
68461SOL    HW1 7222   5.625   9.890  12.653
68461SOL    HW2 7223   5.682  10.023  12.610
68462SOL     OW 7224   8.646   2.525   8.236
68462SOL    HW1 7225   8.580   2.586   8.202
68462SOL    HW2 7226   8.683   2.570   8.312
68463SOL     OW 7227   2.236  12.520   4.052
68463SOL    HW1 7228   2.165  12.537   4.114
68463SOL    HW2 7229   2.256  12.427   4.064
68464SOL     OW 7230  12.564   1.551   5.391
68464SOL    HW1 7231  12.546   1.644   5.403
68464SOL    HW2 7232  12.479   1.513   5.370
68465SOL     OW 7233   8.402   9.467  14.496
68465SOL    HW1 7234   8.445   9.551  14.478
68465SOL    HW2 7235   8.474   9.405  14.506
68466SOL     OW 7236  14.755   8.157  12.508
68466SOL    HW1 7237  14.766   8.162  12.413
68466SOL    HW2 7238  14.660   8.156  12.522
68467SOL     OW 7239  11.424  12.591   9.011
68467SOL    HW1 7240  11.451  12.505   8.979
68467SOL    HW2 7241  11.503  12.645   9.003
68468SOL     OW 7242  13.361   6.081   5.760
68468SOL    HW1 7243  13.421   6.045   5.695
68468SOL    HW2 7244  13.354   6.174   5.737
68469SOL     OW 7245  11.339   9.469   2.189
68469SOL    HW1 7246  11.427   9.495   2.163
68469SOL    HW2 7247  11.286   9.547   2.174
68470SOL     OW 7248   7.192   1.881   0.572
68470SOL    HW1 7249   7.273   1.933   0.573
68470SOL    HW2 7250   7.171   1.871   0.479
68471SOL     OW 7251   7.950   1.450   5.046
68471SOL    HW1 7252   7.932   1.523   5.105
68471SOL    HW2 7253   8.036   1.470   5.010
68472SOL     OW 7254   1.658   8.543   5.000
68472SOL    HW1 7255   1.630   8.578   4.916
68472SOL    HW2 7256   1.738   8.495   4.980
68473SOL     OW 7257  14.047   6.103   3.293
68473SOL    HW1 7258  13.960   6.069   3.271
68473SOL    HW2 7259  14.091   6.111   3.208
68474SOL     OW 7260   5.281  11.610  12.581
68474SOL    HW1 7261   5.210  11.610  12.516
68474SOL    HW2 7262   5.299  11.702  12.597
68475SOL     OW 7263   3.298  14.183   2.478
68475SOL    HW1 7264   3.227  14.243   2.458
68475SOL    HW2 7265   3.316  14.139   2.395
68476SOL     OW 7266   7.274  11.315  13.326
68476SOL    HW1 7267   7.279  11.290  13.234
68476SOL    HW2 7268   7.311  11.240  13.373
68477SOL     OW 7269  12.338   3.470   8.241
68477SOL    HW1 7270  12.363   3.379   8.229
68477SOL    HW2 7271  12.276   3.469   8.313
68478SOL     OW 7272   7.185   1.597   1.725
68478SOL    HW1 7273   7.231   1.667   1.772
68478SOL    HW2 7274   7.154   1.639   1.645
68479SOL     OW 7275   9.632   0.704   6.772
68479SOL    HW1 7276   9.686   0.632   6.740
68479SOL    HW2 7277   9.549   0.663   6.797
68480SOL     OW 7278   8.425  12.833   5.098
68480SOL    HW1 7279   8.405  12.877   5.015
68480SOL    HW2 7280   8.363  12.871   5.160
68481SOL     OW 7281   8.541   8.522   1.853
68481SOL    HW1 7282   8.455   8.498   1.820
68481SOL    HW2 7283   8.600   8.454   1.818
68482SOL     OW 7284   1.443   0.816  12.682
68482SOL    HW1 7285   1.511   0.757  12.714
68482SOL    HW2 7286   1.400   0.848  12.762
68483SOL     OW 7287   3.199  14.666  10.741
68483SOL    HW1 7288   3.210  14.573  10.763
68483SOL    HW2 7289   3.208  14.669  10.645
68484SOL     OW 7290   0.261   7.109   7.429
68484SOL    HW1 7291   0.325   7.088   7.361
68484SOL    HW2 7292   0.228   7.196   7.406
68485SOL     OW 7293   4.394  11.779   6.261
68485SOL    HW1 7294   4.370  11.871   6.251
68485SOL    HW2 7295   4.402  11.747   6.171
68486SOL     OW 7296   3.514   5.541   1.609
68486SOL    HW1 7297   3.574   5.489   1.556
68486SOL    HW2 7298   3.428   5.504   1.591
68487SOL     OW 7299   1.497  13.622  10.613
68487SOL    HW1 7300   1.436  13.692  10.590
68487SOL    HW2 7301   1.465  13.545  10.565
68488SOL     OW 7302   6.450   4.476  13.546
68488SOL    HW1 7303   6.433   4.514  13.459
68488SOL    HW2 7304   6.484   4.549  13.598
68489SOL     OW 7305   1.263   5.169   5.148
68489SOL    HW1 7306   1.255   5.172   5.053
68489SOL    HW2 7307   1.258   5.261   5.176
68490SOL     OW 7308   4.404   3.135   9.546
68490SOL    HW1 7309   4.399   3.040   9.552
68490SOL    HW2 7310   4.496   3.154   9.529
68491SOL     OW 7311  14.522   8.321  13.288
68491SOL    HW1 7312  14.484   8.331  13.201
68491SOL    HW2 7313  14.461   8.366  13.346
68492SOL     OW 7314   7.859  13.578   8.986
68492SOL    HW1 7315   7.816  13.528   9.056
68492SOL    HW2 7316   7.814  13.551   8.906
68493SOL     OW 7317  12.918  11.159   2.436
68493SOL    HW1 7318  12.907  11.099   2.362
68493SOL    HW2 7319  12.865  11.235   2.414
68494SOL     OW 7320   9.109   5.559  11.162
68494SOL    HW1 7321   9.185   5.503  11.179
68494SOL    HW2 7322   9.041   5.526  11.220
68495SOL     OW 7323  14.022  11.957   4.524
68495SOL    HW1 7324  13.929  11.935   4.521
68495SOL    HW2 7325  14.067  11.873   4.518
68496SOL     OW 7326  10.243   6.896   3.311
68496SOL    HW1 7327  10.285   6.828   3.258
68496SOL    HW2 7328  10.266   6.874   3.402
68497SOL     OW 7329   9.481   4.386  10.189
68497SOL    HW1 7330   9.476   4.345  10.103
68497SOL    HW2 7331   9.396   4.368  10.229
68498SOL     OW 7332  12.547   6.348   0.462
68498SOL    HW1 7333  12.628   6.390   0.434
68498SOL    HW2 7334  12.497   6.418   0.503
68499SOL     OW 7335  14.822  12.807   2.840
68499SOL    HW1 7336  14.873  12.850   2.909
68499SOL    HW2 7337  14.733  12.840   2.852
68500SOL     OW 7338   5.231   4.144  12.032
68500SOL    HW1 7339   5.174   4.211  12.069
68500SOL    HW2 7340   5.191   4.120  11.949
68501SOL     OW 7341   7.129   0.218  10.320
68501SOL    HW1 7342   7.116   0.124  10.325
68501SOL    HW2 7343   7.189   0.230  10.246
68502SOL     OW 7344   7.372  12.084   1.818
68502SOL    HW1 7345   7.374  12.050   1.907
68502SOL    HW2 7346   7.430  12.160   1.820
68503SOL     OW 7347  14.571   6.118   9.619
68503SOL    HW1 7348  14.514   6.042   9.602
68503SOL    HW2 7349  14.512   6.193   9.618
68504SOL     OW 7350  11.342   5.058   7.417
68504SOL    HW1 7351  11.260   5.013   7.437
68504SOL    HW2 7352  11.325   5.105   7.335
68505SOL     OW 7353  11.388   8.039   8.335
68505SOL    HW1 7354  11.355   8.129   8.332
68505SOL    HW2 7355  11.318   7.986   8.296
68506SOL     OW 7356   4.151   8.296  14.280
68506SOL    HW1 7357   4.164   8.386  14.309
68506SOL    HW2 7358   4.079   8.263  14.334
68507SOL     OW 7359  13.949  14.438   1.115
68507SOL    HW1 7360  13.971  14.451   1.207
68507SOL    HW2 7361  14.033  14.421   1.072
68508SOL     OW 7362  10.282   0.118   8.331
68508SOL    HW1 7363  10.332   0.058   8.388
68508SOL    HW2 7364  10.285   0.077   8.245
68509SOL     OW 7365   6.486   7.113  13.054
68509SOL    HW1 7366   6.492   7.021  13.078
68509SOL    HW2 7367   6.520   7.117  12.965
68510SOL     OW 7368  10.405  11.809  12.574
68510SOL    HW1 7369  10.374  11.784  12.661
68510SOL    HW2 7370  10.374  11.739  12.517
68511SOL     OW 7371   3.686  10.758   1.226
68511SOL    HW1 7372   3.617  10.722   1.171
68511SOL    HW2 7373   3.642  10.776   1.310
68512SOL     OW 7374  14.423   6.959  10.985
68512SOL    HW1 7375  14.331   6.986  10.982
68512SOL    HW2 7376  14.457   7.000  11.065
68513SOL     OW 7377   7.539   9.441  10.985
68513SOL    HW1 7378   7.489   9.369  11.022
68513SOL    HW2 7379   7.631   9.413  10.992
68514SOL     OW 7380  10.239   9.130  13.926
68514SOL    HW1 7381  10.249   9.196  13.994
68514SOL    HW2 7382  10.180   9.170  13.862
68515SOL     OW 7383   3.782   4.713   7.044
68515SOL    HW1 7384   3.830   4.784   7.002
68515SOL    HW2 7385   3.691   4.728   7.019
68516SOL     OW 7386   9.324   0.076   3.859
68516SOL    HW1 7387   9.418   0.070   3.839
68516SOL    HW2 7388   9.301   0.166   3.838
68517SOL     OW 7389   7.824  11.823   9.964
68517SOL    HW1 7390   7.842  11.822   9.870
68517SOL    HW2 7391   7.879  11.893   9.999
68518SOL     OW 7392   9.691   6.620  11.502
68518SOL    HW1 7393   9.763   6.569  11.540
68518SOL    HW2 7394   9.630   6.555  11.469
68519SOL     OW 7395  11.996   2.092   5.419
68519SOL    HW1 7396  12.017   2.028   5.487
68519SOL    HW2 7397  11.996   2.176   5.465
68520SOL     OW 7398   8.821   9.394   5.191
68520SOL    HW1 7399   8.734   9.429   5.173
68520SOL    HW2 7400   8.834   9.327   5.124
68521SOL     OW 7401  14.435   4.484   0.633
68521SOL    HW1 7402  14.415   4.485   0.727
68521SOL    HW2 7403  14.531   4.476   0.629
68522SOL     OW 7404  10.865  10.820   8.104
68522SOL    HW1 7405  10.883  10.726   8.102
68522SOL    HW2 7406  10.943  10.861   8.068
68523SOL     OW 7407  13.643   8.481  13.395
68523SOL    HW1 7408  13.733   8.505  13.418
68523SOL    HW2 7409  13.593   8.499  13.474
68524SOL     OW 7410  11.452   8.998  13.242
68524SOL    HW1 7411  11.531   8.960  13.204
68524SOL    HW2 7412  11.444   9.084  13.199
68525SOL     OW 7413   2.019   7.369   1.542
68525SOL    HW1 7414   1.931   7.332   1.541
68525SOL    HW2 7415   2.006   7.462   1.522
68526SOL     OW 7416   3.795   0.321   3.652
68526SOL    HW1 7417   3.737   0.355   3.585
68526SOL    HW2 7418   3.816   0.397   3.706
68527SOL     OW 7419   9.415  10.584  11.195
68527SOL    HW1 7420   9.330  10.624  11.178
68527SOL    HW2 7421   9.448  10.629  11.273
68528SOL     OW 7422   4.930  13.555   4.789
68528SOL    HW1 7423   4.925  13.570   4.694
68528SOL    HW2 7424   5.016  13.516   4.802
68529SOL     OW 7425  12.048   6.335  11.748
68529SOL    HW1 7426  12.052   6.430  11.758
68529SOL    HW2 7427  12.114   6.303  11.810
68530SOL     OW 7428   4.847  14.063  11.840
68530SOL    HW1 7429   4.795  13.995  11.797
68530SOL    HW2 7430   4.791  14.141  11.838
68531SOL     OW 7431  14.529   4.292  11.683
68531SOL    HW1 7432  14.475   4.215  11.668
68531SOL    HW2 7433  14.619   4.262  11.666
68532SOL     OW 7434   7.786   7.082   2.813
68532SOL    HW1 7435   7.835   7.056   2.734
68532SOL    HW2 7436   7.695   7.062   2.792
68533SOL     OW 7437   6.973  10.921   4.012
68533SOL    HW1 7438   7.049  10.874   4.047
68533SOL    HW2 7439   6.993  11.013   4.029
68534SOL     OW 7440   3.376   1.191  12.614
68534SOL    HW1 7441   3.398   1.256  12.682
68534SOL    HW2 7442   3.458   1.177  12.567
68535SOL     OW 7443   1.776   9.395  13.665
68535SOL    HW1 7444   1.819   9.312  13.686
68535SOL    HW2 7445   1.799   9.412  13.574
68536SOL     OW 7446  14.809   7.765   6.017
68536SOL    HW1 7447   0.022   7.768   5.977
68536SOL    HW2 7448  14.780   7.675   6.002
68537SOL     OW 7449   5.765  12.498  12.470
68537SOL    HW1 7450   5.816  12.510  12.389
68537SOL    HW2 7451   5.769  12.404  12.487
68538SOL     OW 7452   6.707   9.260  12.336
68538SOL    HW1 7453   6.725   9.354  12.339
68538SOL    HW2 7454   6.763   9.222  12.403
68539SOL     OW 7455  12.382   2.072   9.561
68539SOL    HW1 7456  12.373   2.139   9.494
68539SOL    HW2 7457  12.469   2.035   9.546
68540SOL     OW 7458   3.636  10.590  14.013
68540SOL    HW1 7459   3.701  10.653  13.982
68540SOL    HW2 7460   3.552  10.629  13.992
68541SOL     OW 7461  11.850   2.729   8.449
68541SOL    HW1 7462  11.781   2.713   8.384
68541SOL    HW2 7463  11.804   2.727   8.533
68542SOL     OW 7464   6.003  14.523   0.979
68542SOL    HW1 7465   6.030  14.613   0.998
68542SOL    HW2 7466   5.908  14.523   0.995
68543SOL     OW 7467  12.010   8.095   7.725
68543SOL    HW1 7468  11.984   8.086   7.634
68543SOL    HW2 7469  11.929   8.116   7.772
68544SOL     OW 7470   8.424  12.073   4.803
68544SOL    HW1 7471   8.365  11.998   4.811
68544SOL    HW2 7472   8.411  12.103   4.713
68545SOL     OW 7473  13.062  13.216   3.889
68545SOL    HW1 7474  12.997  13.149   3.910
68545SOL    HW2 7475  13.076  13.262   3.971
68546SOL     OW 7476   9.575   3.913   5.689
68546SOL    HW1 7477   9.584   3.820   5.712
68546SOL    HW2 7478   9.577   3.958   5.773
68547SOL     OW 7479  11.951   1.420  11.106
68547SOL    HW1 7480  11.864   1.381  11.106
68547SOL    HW2 7481  11.973   1.432  11.013
68548SOL     OW 7482   2.809   1.804  14.726
68548SOL    HW1 7483   2.729   1.802  14.780
68548SOL    HW2 7484   2.780   1.778  14.639
68549SOL     OW 7485   5.300   7.833  11.032
68549SOL    HW1 7486   5.228   7.874  11.080
68549SOL    HW2 7487   5.295   7.871  10.945
68550SOL     OW 7488   0.171  14.498   7.658
68550SOL    HW1 7489   0.079  14.492   7.632
68550SOL    HW2 7490   0.205  14.409   7.645
68551SOL     OW 7491   6.716   8.411   2.714
68551SOL    HW1 7492   6.743   8.360   2.790
68551SOL    HW2 7493   6.665   8.483   2.751
68552SOL     OW 7494   2.079   3.996   9.833
68552SOL    HW1 7495   2.171   3.992   9.856
68552SOL    HW2 7496   2.040   4.053   9.899
68553SOL     OW 7497  13.978  13.357  10.980
68553SOL    HW1 7498  13.975  13.327  10.889
68553SOL    HW2 7499  13.946  13.282  11.030
68554SOL     OW 7500  10.914  14.801  14.429
68554SOL    HW1 7501  10.952  14.849  14.356
68554SOL    HW2 7502  10.869  14.867  14.482
68555SOL     OW 7503   8.315  12.452  12.645
68555SOL    HW1 7504   8.239  12.473  12.698
68555SOL    HW2 7505   8.321  12.524  12.582
68556SOL     OW 7506  10.777  13.165   7.188
68556SOL    HW1 7507  10.688  13.171   7.155
68556SOL    HW2 7508  10.774  13.204   7.275
68557SOL     OW 7509   2.411   8.020   9.733
68557SOL    HW1 7510   2.424   8.083   9.804
68557SOL    HW2 7511   2.347   8.061   9.675
68558SOL     OW 7512   6.334  12.723  11.363
68558SOL    HW1 7513   6.325  12.641  11.410
68558SOL    HW2 7514   6.398  12.704  11.294
68559SOL     OW 7515  14.862   2.370   4.906
68559SOL    HW1 7516  14.864   2.394   4.813
68559SOL    HW2 7517  14.769   2.362   4.926
68560SOL     OW 7518   2.302  14.850   4.725
68560SOL    HW1 7519   2.286   0.033   4.801
68560SOL    HW2 7520   2.321   0.036   4.653
68561SOL     OW 7521  12.627   0.035   6.192
68561SOL    HW1 7522  12.545   0.084   6.188
68561SOL    HW2 7523  12.635  14.867   6.106
68562SOL     OW 7524   5.168  13.596  12.191
68562SOL    HW1 7525   5.117  13.622  12.267
68562SOL    HW2 7526   5.142  13.506  12.173
68563SOL     OW 7527   1.325  14.174  14.710
68563SOL    HW1 7528   1.292  14.258  14.741
68563SOL    HW2 7529   1.367  14.135  14.786
68564SOL     OW 7530   1.378   2.149  12.792
68564SOL    HW1 7531   1.306   2.183  12.845
68564SOL    HW2 7532   1.406   2.069  12.838
68565SOL     OW 7533   4.336   5.057   9.302
68565SOL    HW1 7534   4.378   5.047   9.217
68565SOL    HW2 7535   4.330   4.967   9.336
68566SOL     OW 7536  10.628   9.415   5.711
68566SOL    HW1 7537  10.597   9.325   5.701
68566SOL    HW2 7538  10.723   9.408   5.698
68567SOL     OW 7539   8.358  14.359   8.238
68567SOL    HW1 7540   8.401  14.432   8.282
68567SOL    HW2 7541   8.378  14.283   8.293
68568SOL     OW 7542  13.359   9.489   4.362
68568SOL    HW1 7543  13.408   9.549   4.418
68568SOL    HW2 7544  13.411   9.482   4.282
68569SOL     OW 7545   4.769  13.022   3.929
68569SOL    HW1 7546   4.751  12.954   3.865
68569SOL    HW2 7547   4.847  12.992   3.976
68570SOL     OW 7548   4.026   1.860  13.007
68570SOL    HW1 7549   3.939   1.820  12.999
68570SOL    HW2 7550   4.083   1.802  12.957
68571SOL     OW 7551   6.456   3.478  12.124
68571SOL    HW1 7552   6.412   3.563  12.115
68571SOL    HW2 7553   6.516   3.490  12.197
68572SOL     OW 7554   5.070  11.273   6.639
68572SOL    HW1 7555   5.122  11.198   6.669
68572SOL    HW2 7556   5.132  11.346   6.637
68573SOL     OW 7557   0.907   0.038   1.035
68573SOL    HW1 7558   0.864   0.046   1.120
68573SOL    HW2 7559   0.840   0.062   0.972
68574SOL     OW 7560   1.014   0.944  11.074
68574SOL    HW1 7561   1.054   0.912  11.155
68574SOL    HW2 7562   1.089   0.965  11.018
68575SOL     OW 7563   3.020   6.382   8.728
68575SOL    HW1 7564   2.950   6.443   8.706
68575SOL    HW2 7565   3.100   6.424   8.695
68576SOL     OW 7566   2.026   1.732  10.919
68576SOL    HW1 7567   2.053   1.813  10.964
68576SOL    HW2 7568   1.931   1.741  10.909
68577SOL     OW 7569  10.466  13.865   4.651
68577SOL    HW1 7570  10.491  13.926   4.721
68577SOL    HW2 7571  10.413  13.918   4.591
68578SOL     OW 7572   0.003   0.400  10.611
68578SOL    HW1 7573   0.032   0.429  10.524
68578SOL    HW2 7574   0.007   0.479  10.664
68579SOL     OW 7575  11.191  14.261   9.222
68579SOL    HW1 7576  11.218  14.302   9.140
68579SOL    HW2 7577  11.251  14.295   9.288
68580SOL     OW 7578  11.502   1.208   2.523
68580SOL    HW1 7579  11.574   1.155   2.554
68580SOL    HW2 7580  11.507   1.202   2.427
68581SOL     OW 7581  13.762   4.551   0.780
68581SOL    HW1 7582  13.769   4.458   0.801
68581SOL    HW2 7583  13.695   4.555   0.711
68582SOL     OW 7584   1.526   8.297  11.075
68582SOL    HW1 7585   1.505   8.244  10.999
68582SOL    HW2 7586   1.477   8.378  11.063
68583SOL     OW 7587   0.949  12.890   5.919
68583SOL    HW1 7588   0.933  12.820   5.983
68583SOL    HW2 7589   0.864  12.907   5.880
68584SOL     OW 7590  13.734   5.661   4.321
68584SOL    HW1 7591  13.779   5.602   4.261
68584SOL    HW2 7592  13.657   5.691   4.272
68585SOL     OW 7593  12.794  11.477   9.291
68585SOL    HW1 7594  12.743  11.504   9.367
68585SOL    HW2 7595  12.826  11.390   9.313
68586SOL     OW 7596  13.189  14.781   8.416
68586SOL    HW1 7597  13.265  14.729   8.442
68586SOL    HW2 7598  13.131  14.779   8.493
68587SOL     OW 7599   6.218   9.154  12.969
68587SOL    HW1 7600   6.164   9.075  12.980
68587SOL    HW2 7601   6.301   9.133  13.011
68588SOL     OW 7602   0.541   0.724   1.216
68588SOL    HW1 7603   0.567   0.643   1.171
68588SOL    HW2 7604   0.624   0.767   1.238
68589SOL     OW 7605  10.688  12.226  11.267
68589SOL    HW1 7606  10.769  12.262  11.303
68589SOL    HW2 7607  10.635  12.302  11.246
68590SOL     OW 7608  10.634  12.634   5.762
68590SOL    HW1 7609  10.704  12.570   5.751
68590SOL    HW2 7610  10.666  12.713   5.717
68591SOL     OW 7611   4.276   5.788   6.434
68591SOL    HW1 7612   4.269   5.883   6.437
68591SOL    HW2 7613   4.196   5.756   6.476
68592SOL     OW 7614   6.022   8.238   3.019
68592SOL    HW1 7615   5.940   8.276   3.051
68592SOL    HW2 7616   6.025   8.260   2.926
68593SOL     OW 7617  13.565   7.072   5.500
68593SOL    HW1 7618  13.545   7.060   5.407
68593SOL    HW2 7619  13.489   7.121   5.534
68594SOL     OW 7620  13.168   7.423  11.790
68594SOL    HW1 7621  13.170   7.455  11.880
68594SOL    HW2 7622  13.203   7.334  11.796
68595SOL     OW 7623   8.167   1.202   4.863
68595SOL    HW1 7624   8.231   1.133   4.848
68595SOL    HW2 7625   8.179   1.227   4.955
68596SOL     OW 7626   0.027  14.297  11.405
68596SOL    HW1 7627   0.013  14.203  11.420
68596SOL    HW2 7628  14.824  14.325  11.356
68597SOL     OW 7629   0.301  10.333   8.805
68597SOL    HW1 7630   0.287  10.374   8.720
68597SOL    HW2 7631   0.335  10.245   8.784
68598SOL     OW 7632  12.938   3.676   9.685
68598SOL    HW1 7633  12.940   3.643   9.595
68598SOL    HW2 7634  13.019   3.644   9.724
68599SOL     OW 7635  11.355   5.021  14.260
68599SOL    HW1 7636  11.379   5.043  14.170
68599SOL    HW2 7637  11.261   5.003  14.256
68600SOL     OW 7638   1.337   0.961  12.444
68600SOL    HW1 7639   1.356   0.913  12.525
68600SOL    HW2 7640   1.337   0.894  12.376
68601SOL     OW 7641  11.087   4.054   6.137
68601SOL    HW1 7642  11.161   4.018   6.088
68601SOL    HW2 7643  11.105   4.032   6.228
68602SOL     OW 7644   8.474  12.052   8.399
68602SOL    HW1 7645   8.564  12.023   8.412
68602SOL    HW2 7646   8.438  11.990   8.335
68603SOL     OW 7647   8.184  11.277   4.884
68603SOL    HW1 7648   8.092  11.289   4.908
68603SOL    HW2 7649   8.185  11.193   4.836
68604SOL     OW 7650   9.991   4.281  12.936
68604SOL    HW1 7651   9.928   4.239  12.995
68604SOL    HW2 7652   9.956   4.266  12.848
68605SOL     OW 7653   6.782  14.200   6.297
68605SOL    HW1 7654   6.834  14.230   6.222
68605SOL    HW2 7655   6.846  14.190   6.368
68606SOL     OW 7656  12.486  12.412  11.798
68606SOL    HW1 7657  12.426  12.459  11.740
68606SOL    HW2 7658  12.460  12.321  11.790
68607SOL     OW 7659   6.205   9.179   5.050
68607SOL    HW1 7660   6.192   9.273   5.063
68607SOL    HW2 7661   6.174   9.163   4.961
68608SOL     OW 7662   4.387   1.061   5.868
68608SOL    HW1 7663   4.339   0.978   5.858
68608SOL    HW2 7664   4.333   1.114   5.925
68609SOL     OW 7665  14.472   7.715   0.149
68609SOL    HW1 7666  14.427   7.638   0.116
68609SOL    HW2 7667  14.457   7.782   0.083
68610SOL     OW 7668  10.227   5.906  11.100
68610SOL    HW1 7669  10.136   5.877  11.092
68610SOL    HW2 7670  10.233   5.984  11.045
68611SOL     OW 7671  10.164  14.298   4.058
68611SOL    HW1 7672  10.258  14.310   4.072
68611SOL    HW2 7673  10.124  14.379   4.090
68612SOL     OW 7674   0.956   4.011  13.767
68612SOL    HW1 7675   1.041   4.019  13.724
68612SOL    HW2 7676   0.917   3.932  13.729
68613SOL     OW 7677   2.975   7.073   2.623
68613SOL    HW1 7678   2.944   7.158   2.656
68613SOL    HW2 7679   2.916   7.053   2.550
68614SOL     OW 7680   5.315  13.712   0.600
68614SOL    HW1 7681   5.318  13.720   0.505
68614SOL    HW2 7682   5.342  13.798   0.632
68615SOL     OW 7683   7.124   3.499  13.878
68615SOL    HW1 7684   7.076   3.459  13.950
68615SOL    HW2 7685   7.203   3.446  13.868
68616SOL     OW 7686  10.930  11.031   4.275
68616SOL    HW1 7687  10.835  11.024   4.276
68616SOL    HW2 7688  10.950  11.093   4.345
68617SOL     OW 7689   5.167   3.997   3.149
68617SOL    HW1 7690   5.095   4.052   3.179
68617SOL    HW2 7691   5.150   3.984   3.055
68618SOL     OW 7692   8.568   2.415   3.693
68618SOL    HW1 7693   8.499   2.413   3.627
68618SOL    HW2 7694   8.640   2.365   3.655
68619SOL     OW 7695   3.851  13.475   2.433
68619SOL    HW1 7696   3.801  13.439   2.507
68619SOL    HW2 7697   3.890  13.555   2.468
68620SOL     OW 7698   6.240  13.152   9.781
68620SOL    HW1 7699   6.194  13.142   9.697
68620SOL    HW2 7700   6.288  13.070   9.792
68621SOL     OW 7701  12.831   9.590   5.330
68621SOL    HW1 7702  12.811   9.506   5.289
68621SOL    HW2 7703  12.797   9.655   5.269
68622SOL     OW 7704   8.752   9.963   8.781
68622SOL    HW1 7705   8.672   9.977   8.731
68622SOL    HW2 7706   8.806   9.908   8.724
68623SOL     OW 7707   9.952   6.752   8.333
68623SOL    HW1 7708   9.925   6.844   8.339
68623SOL    HW2 7709  10.006   6.738   8.411
68624SOL     OW 7710  11.624   2.669  13.807
68624SOL    HW1 7711  11.708   2.684  13.850
68624SOL    HW2 7712  11.559   2.690  13.874
68625SOL     OW 7713   5.015   2.333   9.185
68625SOL    HW1 7714   4.971   2.276   9.247
68625SOL    HW2 7715   4.997   2.295   9.099
68626SOL     OW 7716   9.157   9.575   0.047
68626SOL    HW1 7717   9.176   9.519   0.123
68626SOL    HW2 7718   9.122   9.656   0.085
68627SOL     OW 7719   2.313  14.448  10.521
68627SOL    HW1 7720   2.242  14.504  10.552
68627SOL    HW2 7721   2.318  14.377  10.584
68628SOL     OW 7722  11.834  14.529  11.920
68628SOL    HW1 7723  11.840  14.505  11.827
68628SOL    HW2 7724  11.915  14.576  11.938
68629SOL     OW 7725   0.099   4.241   6.715
68629SOL    HW1 7726   0.134   4.194   6.640
68629SOL    HW2 7727   0.010   4.266   6.689
68630SOL     OW 7728   3.309   8.233   5.139
68630SOL    HW1 7729   3.228   8.210   5.185
68630SOL    HW2 7730   3.281   8.257   5.051
68631SOL     OW 7731   5.266   6.803   3.305
68631SOL    HW1 7732   5.249   6.896   3.319
68631SOL    HW2 7733   5.350   6.800   3.260
68632SOL     OW 7734   6.241   4.537  14.011
68632SOL    HW1 7735   6.243   4.476  13.937
68632SOL    HW2 7736   6.173   4.600  13.988
68633SOL     OW 7737   5.321   6.713   0.959
68633SOL    HW1 7738   5.275   6.701   1.041
68633SOL    HW2 7739   5.383   6.640   0.955
68634SOL     OW 7740   3.670   2.801   5.266
68634SOL    HW1 7741   3.632   2.786   5.179
68634SOL    HW2 7742   3.717   2.884   5.257
68635SOL     OW 7743   3.595   0.427   3.505
68635SOL    HW1 7744   3.532   0.417   3.577
68635SOL    HW2 7745   3.625   0.517   3.511
68636SOL     OW 7746   8.964   6.698   2.531
68636SOL    HW1 7747   9.015   6.779   2.521
68636SOL    HW2 7748   8.890   6.708   2.472
68637SOL     OW 7749  12.166   8.827   9.691
68637SOL    HW1 7750  12.087   8.847   9.742
68637SOL    HW2 7751  12.139   8.755   9.633
68638SOL     OW 7752   6.273   2.048   1.340
68638SOL    HW1 7753   6.178   2.054   1.334
68638SOL    HW2 7754   6.292   2.053   1.433
68639SOL     OW 7755  11.820   8.970   1.776
68639SOL    HW1 7756  11.811   8.918   1.856
68639SOL    HW2 7757  11.912   8.996   1.773
68640SOL     OW 7758   0.238   8.421   9.467
68640SOL    HW1 7759   0.224   8.339   9.514
68640SOL    HW2 7760   0.298   8.398   9.396
68641SOL     OW 7761   0.754   0.321   8.393
68641SOL    HW1 7762   0.791   0.409   8.385
68641SOL    HW2 7763   0.685   0.318   8.327
68642SOL     OW 7764  12.600   7.664   9.919
68642SOL    HW1 7765  12.647   7.594   9.965
68642SOL    HW2 7766  12.661   7.693   9.851
68643SOL     OW 7767   8.701   1.482   6.265
68643SOL    HW1 7768   8.786   1.438   6.270
68643SOL    HW2 7769   8.638   1.410   6.260
68644SOL     OW 7770  10.141  10.803   1.603
68644SOL    HW1 7771  10.218  10.799   1.545
68644SOL    HW2 7772  10.070  10.765   1.551
68645SOL     OW 7773   6.259   2.281   7.923
68645SOL    HW1 7774   6.312   2.356   7.895
68645SOL    HW2 7775   6.320   2.207   7.923
68646SOL     OW 7776   2.931   6.415   5.760
68646SOL    HW1 7777   2.865   6.347   5.773
68646SOL    HW2 7778   2.983   6.383   5.685
68647SOL     OW 7779  13.005   3.248  13.623
68647SOL    HW1 7780  12.943   3.319  13.610
68647SOL    HW2 7781  13.046   3.267  13.708
68648SOL     OW 7782   0.478  10.910  11.520
68648SOL    HW1 7783   0.541  10.966  11.474
68648SOL    HW2 7784   0.397  10.961  11.521
68649SOL     OW 7785   8.314   2.836   8.000
68649SOL    HW1 7786   8.325   2.799   8.088
68649SOL    HW2 7787   8.298   2.760   7.944
68650SOL     OW 7788   5.310  13.145   5.760
68650SOL    HW1 7789   5.324  13.050   5.756
68650SOL    HW2 7790   5.366  13.181   5.691
68651SOL     OW 7791   9.493   3.317   6.712
68651SOL    HW1 7792   9.488   3.257   6.787
68651SOL    HW2 7793   9.470   3.402   6.749
68652SOL     OW 7794   9.688   7.593   3.331
68652SOL    HW1 7795   9.759   7.550   3.379
68652SOL    HW2 7796   9.682   7.680   3.370
68653SOL     OW 7797   1.458  12.042   9.833
68653SOL    HW1 7798   1.549  12.016   9.847
68653SOL    HW2 7799   1.433  12.000   9.750
68654SOL     OW 7800   3.104   4.725   0.334
68654SOL    HW1 7801   3.141   4.806   0.300
68654SOL    HW2 7802   3.062   4.750   0.416
68655SOL     OW 7803  10.213   8.807   8.188
68655SOL    HW1 7804  10.185   8.880   8.133
68655SOL    HW2 7805  10.307   8.799   8.171
68656SOL     OW 7806   0.454  10.641   5.854
68656SOL    HW1 7807   0.474  10.733   5.835
68656SOL    HW2 7808   0.510  10.592   5.794
68657SOL     OW 7809  10.551   2.608   1.590
68657SOL    HW1 7810  10.588   2.689   1.553
68657SOL    HW2 7811  10.485   2.638   1.652
68658SOL     OW 7812   5.661  11.440  10.184
68658SOL    HW1 7813   5.680  11.519  10.132
68658SOL    HW2 7814   5.701  11.369  10.134
68659SOL     OW 7815   4.918  14.592  12.046
68659SOL    HW1 7816   5.008  14.567  12.064
68659SOL    HW2 7817   4.899  14.553  11.960
68660SOL     OW 7818  13.231  11.039   0.816
68660SOL    HW1 7819  13.200  11.125   0.843
68660SOL    HW2 7820  13.321  11.034   0.848
68661SOL     OW 7821   1.697   3.669  12.572
68661SOL    HW1 7822   1.604   3.689  12.572
68661SOL    HW2 7823   1.706   3.591  12.518
68662SOL     OW 7824   5.659   3.332   3.996
68662SOL    HW1 7825   5.662   3.388   3.918
68662SOL    HW2 7826   5.714   3.257   3.974
68663SOL     OW 7827   1.894   0.956   6.156
68663SOL    HW1 7828   1.837   0.984   6.228
68663SOL    HW2 7829   1.969   1.015   6.161
68664SOL     OW 7830   2.049  12.313  13.096
68664SOL    HW1 7831   2.069  12.359  13.178
68664SOL    HW2 7832   2.106  12.235  13.098
68665SOL     OW 7833   9.232   0.559   1.371
68665SOL    HW1 7834   9.253   0.637   1.424
68665SOL    HW2 7835   9.149   0.581   1.328
68666SOL     OW 7836   9.058   6.473   2.321
68666SOL    HW1 7837   9.033   6.397   2.373
68666SOL    HW2 7838   9.071   6.543   2.385
68667SOL     OW 7839  10.600   5.187  10.628
68667SOL    HW1 7840  10.678   5.235  10.655
68667SOL    HW2 7841  10.542   5.191  10.705
68668SOL     OW 7842   6.468  12.522  11.044
68668SOL    HW1 7843   6.483  12.595  10.984
68668SOL    HW2 7844   6.471  12.444  10.988
68669SOL     OW 7845   9.866   6.138  10.401
68669SOL    HW1 7846   9.798   6.092  10.351
68669SOL    HW2 7847   9.881   6.219  10.351
68670SOL     OW 7848   3.130  11.286   9.144
68670SOL    HW1 7849   3.152  11.377   9.165
68670SOL    HW2 7850   3.192  11.234   9.195
68671SOL     OW 7851   9.636   0.381   8.154
68671SOL    HW1 7852   9.560   0.437   8.170
68671SOL    HW2 7853   9.683   0.379   8.238
68672SOL     OW 7854  13.174   4.530  12.207
68672SOL    HW1 7855  13.086   4.544  12.172
68672SOL    HW2 7856  13.211   4.618  12.213
68673SOL     OW 7857  11.013  10.581   2.751
68673SOL    HW1 7858  11.034  10.665   2.792
68673SOL    HW2 7859  11.093  10.528   2.763
68674SOL     OW 7860  14.329   0.925  12.249
68674SOL    HW1 7861  14.268   0.884  12.310
68674SOL    HW2 7862  14.280   0.931  12.167
68675SOL     OW 7863   3.192  12.124  13.731
68675SOL    HW1 7864   3.184  12.053  13.668
68675SOL    HW2 7865   3.173  12.203  13.680
68676SOL     OW 7866  12.797   6.089   6.706
68676SOL    HW1 7867  12.795   6.001   6.670
68676SOL    HW2 7868  12.734   6.138   6.654
68677SOL     OW 7869   2.482   6.621  10.735
68677SOL    HW1 7870   2.497   6.539  10.688
68677SOL    HW2 7871   2.506   6.601  10.826
68678SOL     OW 7872  14.171   4.670  11.001
68678SOL    HW1 7873  14.257   4.682  10.963
68678SOL    HW2 7874  14.110   4.695  10.931
68679SOL     OW 7875   0.258  13.938  10.052
68679SOL    HW1 7876   0.349  13.915  10.073
68679SOL    HW2 7877   0.243  14.020  10.100
68680SOL     OW 7878   1.478   1.759  14.077
68680SOL    HW1 7879   1.439   1.757  13.990
68680SOL    HW2 7880   1.411   1.721  14.134
68681SOL     OW 7881  13.487   5.352   0.303
68681SOL    HW1 7882  13.449   5.395   0.380
68681SOL    HW2 7883  13.556   5.411   0.274
68682SOL     OW 7884   4.648   0.592   8.657
68682SOL    HW1 7885   4.642   0.600   8.561
68682SOL    HW2 7886   4.592   0.663   8.690
68683SOL     OW 7887   7.499   5.719   8.434
68683SOL    HW1 7888   7.469   5.809   8.432
68683SOL    HW2 7889   7.439   5.672   8.376
68684SOL     OW 7890   5.255   3.344   4.256
68684SOL    HW1 7891   5.323   3.332   4.190
68684SOL    HW2 7892   5.260   3.436   4.281
68685SOL     OW 7893  10.080   5.916  13.340
68685SOL    HW1 7894  10.006   5.923  13.401
68685SOL    HW2 7895  10.128   5.838  13.369
68686SOL     OW 7896   7.423  14.364  13.151
68686SOL    HW1 7897   7.450  14.305  13.080
68686SOL    HW2 7898   7.484  14.343  13.222
68687SOL     OW 7899   0.332   0.614   9.645
68687SOL    HW1 7900   0.258   0.673   9.660
68687SOL    HW2 7901   0.378   0.611   9.728
68688SOL     OW 7902  13.346   8.835   3.607
68688SOL    HW1 7903  13.325   8.763   3.547
68688SOL    HW2 7904  13.272   8.895   3.599
68689SOL     OW 7905   0.687   3.301  13.835
68689SOL    HW1 7906   0.592   3.307  13.824
68689SOL    HW2 7907   0.699   3.261  13.921
68690SOL     OW 7908   8.957  11.840   8.458
68690SOL    HW1 7909   8.956  11.883   8.373
68690SOL    HW2 7910   9.018  11.892   8.511
68691SOL     OW 7911   9.276   8.515   1.076
68691SOL    HW1 7912   9.190   8.475   1.088
68691SOL    HW2 7913   9.335   8.441   1.059
68692SOL     OW 7914   1.755  13.280  14.092
68692SOL    HW1 7915   1.833  13.227  14.077
68692SOL    HW2 7916   1.765  13.355  14.033
68693SOL     OW 7917   4.396  12.611   6.061
68693SOL    HW1 7918   4.435  12.693   6.032
68693SOL    HW2 7919   4.467  12.547   6.053
68694SOL     OW 7920   7.246   1.212   9.949
68694SOL    HW1 7921   7.170   1.245   9.902
68694SOL    HW2 7922   7.210   1.153  10.016
68695SOL     OW 7923   5.437  12.716  12.825
68695SOL    HW1 7924   5.427  12.672  12.741
68695SOL    HW2 7925   5.529  12.742  12.829
68696SOL     OW 7926   0.679  11.881   8.043
68696SOL    HW1 7927   0.618  11.942   8.085
68696SOL    HW2 7928   0.658  11.796   8.081
68697SOL     OW 7929   3.720   6.384  12.835
68697SOL    HW1 7930   3.726   6.290  12.819
68697SOL    HW2 7931   3.811   6.413  12.842
68698SOL     OW 7932  10.058   8.611   8.282
68698SOL    HW1 7933  10.129   8.668   8.253
68698SOL    HW2 7934   9.987   8.671   8.303
68699SOL     OW 7935   2.283   9.120   4.794
68699SOL    HW1 7936   2.293   9.141   4.887
68699SOL    HW2 7937   2.254   9.202   4.754
68700SOL     OW 7938   6.754  10.652   5.184
68700SOL    HW1 7939   6.677  10.702   5.157
68700SOL    HW2 7940   6.825  10.688   5.132
68701SOL     OW 7941  14.713   7.789   1.654
68701SOL    HW1 7942  14.652   7.844   1.606
68701SOL    HW2 7943  14.659   7.720   1.692
68702SOL     OW 7944   5.105  13.319   3.760
68702SOL    HW1 7945   5.143  13.322   3.848
68702SOL    HW2 7946   5.072  13.408   3.745
68703SOL     OW 7947  11.340   7.401  10.252
68703SOL    HW1 7948  11.294   7.476  10.290
68703SOL    HW2 7949  11.278   7.328  10.259
68704SOL     OW 7950  13.240  14.369   5.534
68704SOL    HW1 7951  13.262  14.296   5.591
68704SOL    HW2 7952  13.178  14.422   5.585
68705SOL     OW 7953  10.022   2.491   0.536
68705SOL    HW1 7954   9.940   2.485   0.487
68705SOL    HW2 7955  10.065   2.407   0.523
68706SOL     OW 7956   8.517   8.323  10.555
68706SOL    HW1 7957   8.610   8.321  10.532
68706SOL    HW2 7958   8.510   8.264  10.630
68707SOL     OW 7959   5.611   0.961   6.857
68707SOL    HW1 7960   5.664   1.011   6.920
68707SOL    HW2 7961   5.618   0.870   6.886
68708SOL     OW 7962   5.277  14.860   4.101
68708SOL    HW1 7963   5.295  14.783   4.155
68708SOL    HW2 7964   5.340   0.051   4.131
68709SOL     OW 7965   9.509   1.793   1.978
68709SOL    HW1 7966   9.513   1.756   1.890
68709SOL    HW2 7967   9.600   1.801   2.006
68710SOL     OW 7968  12.887   5.906   1.217
68710SOL    HW1 7969  12.880   5.976   1.282
68710SOL    HW2 7970  12.954   5.936   1.156
68711SOL     OW 7971  12.797   8.040   2.170
68711SOL    HW1 7972  12.707   8.068   2.150
68711SOL    HW2 7973  12.824   7.989   2.093
68712SOL     OW 7974  10.338  12.516   4.307
68712SOL    HW1 7975  10.249  12.513   4.343
68712SOL    HW2 7976  10.394  12.493   4.381
68713SOL     OW 7977  12.656  11.373  14.801
68713SOL    HW1 7978  12.735  11.359  14.749
68713SOL    HW2 7979  12.604  11.294  14.790
68714SOL     OW 7980   6.167   6.084   6.422
68714SOL    HW1 7981   6.251   6.071   6.379
68714SOL    HW2 7982   6.110   6.119   6.353
68715SOL     OW 7983  13.716   1.349   7.494
68715SOL    HW1 7984  13.770   1.384   7.564
68715SOL    HW2 7985  13.642   1.409   7.487
68716SOL     OW 7986   2.117   0.855  12.597
68716SOL    HW1 7987   2.137   0.938  12.554
68716SOL    HW2 7988   2.138   0.788  12.532
68717SOL     OW 7989   2.445   9.766   7.009
68717SOL    HW1 7990   2.539   9.781   6.995
68717SOL    HW2 7991   2.422   9.695   6.949
68718SOL     OW 7992   5.549   4.281  13.995
68718SOL    HW1 7993   5.556   4.320  14.082
68718SOL    HW2 7994   5.483   4.334  13.950
68719SOL     OW 7995   7.783  10.052   1.461
68719SOL    HW1 7996   7.806  10.138   1.428
68719SOL    HW2 7997   7.726  10.014   1.393
68720SOL     OW 7998   5.912  10.385  14.520
68720SOL    HW1 7999   5.989  10.336  14.547
68720SOL    HW2 8000   5.911  10.462  14.577
68721SOL     OW 8001  10.787  13.204   0.928
68721SOL    HW1 8002  10.832  13.288   0.941
68721SOL    HW2 8003  10.786  13.165   1.015
68722SOL     OW 8004   1.019  10.935   0.961
68722SOL    HW1 8005   1.007  10.870   1.031
68722SOL    HW2 8006   0.982  10.894   0.883
68723SOL     OW 8007  14.860   1.666   7.595
68723SOL    HW1 8008  14.806   1.613   7.536
68723SOL    HW2 8009  14.862   1.616   7.677
68724SOL     OW 8010   4.123   0.753  11.509
68724SOL    HW1 8011   4.203   0.791  11.472
68724SOL    HW2 8012   4.128   0.660  11.487
68725SOL     OW 8013   8.068  11.196  14.053
68725SOL    HW1 8014   8.094  11.288  14.058
68725SOL    HW2 8015   8.019  11.181  14.134
68726SOL     OW 8016  12.058   4.632  12.191
68726SOL    HW1 8017  12.079   4.613  12.282
68726SOL    HW2 8018  11.964   4.653  12.191
68727SOL     OW 8019  12.639  14.589   3.868
68727SOL    HW1 8020  12.596  14.504   3.863
68727SOL    HW2 8021  12.577  14.645   3.914
68728SOL     OW 8022   1.805   8.538   3.334
68728SOL    HW1 8023   1.722   8.517   3.292
68728SOL    HW2 8024   1.813   8.633   3.328
68729SOL     OW 8025   7.886   8.117   9.109
68729SOL    HW1 8026   7.830   8.193   9.095
68729SOL    HW2 8027   7.826   8.043   9.114
68730SOL     OW 8028   7.355   6.083  14.440
68730SOL    HW1 8029   7.324   6.147  14.376
68730SOL    HW2 8030   7.400   6.017  14.388
68731SOL     OW 8031   4.544   6.568   9.013
68731SOL    HW1 8032   4.553   6.557   8.918
68731SOL    HW2 8033   4.631   6.595   9.042
68732SOL     OW 8034   6.922   2.189   7.653
68732SOL    HW1 8035   6.909   2.152   7.566
68732SOL    HW2 8036   7.012   2.221   7.653
68733SOL     OW 8037   1.846   3.319   6.816
68733SOL    HW1 8038   1.804   3.401   6.841
68733SOL    HW2 8039   1.785   3.251   6.847
68734SOL     OW 8040  12.931   4.805   0.475
68734SOL    HW1 8041  13.001   4.740   0.463
68734SOL    HW2 8042  12.914   4.837   0.386
68735SOL     OW 8043   3.463   3.558  10.130
68735SOL    HW1 8044   3.552   3.526  10.122
68735SOL    HW2 8045   3.448   3.609  10.050
68736SOL     OW 8046  10.062  12.621  14.509
68736SOL    HW1 8047   9.971  12.594  14.502
68736SOL    HW2 8048  10.112  12.541  14.496
68737SOL     OW 8049   1.221   9.839  13.787
68737SOL    HW1 8050   1.201   9.792  13.706
68737SOL    HW2 8051   1.144   9.894  13.802
68738SOL     OW 8052   1.238   5.397   6.712
68738SOL    HW1 8053   1.320   5.441   6.690
68738SOL    HW2 8054   1.265   5.309   6.739
68739SOL     OW 8055   4.055   0.930   8.446
68739SOL    HW1 8056   4.022   1.000   8.503
68739SOL    HW2 8057   4.034   0.959   8.358
68740SOL     OW 8058   4.824   8.603   4.813
68740SOL    HW1 8059   4.774   8.684   4.808
68740SOL    HW2 8060   4.763   8.540   4.851
68741SOL     OW 8061   1.271   2.696   2.526
68741SOL    HW1 8062   1.221   2.659   2.599
68741SOL    HW2 8063   1.252   2.790   2.530
68742SOL     OW 8064  11.882   1.423   9.106
68742SOL    HW1 8065  11.937   1.440   9.183
68742SOL    HW2 8066  11.936   1.451   9.032
68743SOL     OW 8067   7.667  11.799   9.685
68743SOL    HW1 8068   7.653  11.884   9.726
68743SOL    HW2 8069   7.662  11.737   9.758
68744SOL     OW 8070   8.761   0.802  12.174
68744SOL    HW1 8071   8.710   0.805  12.255
68744SOL    HW2 8072   8.722   0.870  12.119
68745SOL     OW 8073   0.587   3.290   8.296
68745SOL    HW1 8074   0.653   3.298   8.365
68745SOL    HW2 8075   0.511   3.251   8.340
68746SOL     OW 8076   1.517   6.505   7.054
68746SOL    HW1 8077   1.577   6.430   7.060
68746SOL    HW2 8078   1.570   6.575   7.016
68747SOL     OW 8079   4.395   9.666   4.446
68747SOL    HW1 8080   4.485   9.639   4.428
68747SOL    HW2 8081   4.377   9.635   4.535
68748SOL     OW 8082  11.811   0.900   5.801
68748SOL    HW1 8083  11.821   0.856   5.717
68748SOL    HW2 8084  11.820   0.830   5.866
68749SOL     OW 8085  10.278  10.295  12.225
68749SOL    HW1 8086  10.287  10.202  12.247
68749SOL    HW2 8087  10.196  10.301  12.176
68750SOL     OW 8088  13.750   0.980  10.285
68750SOL    HW1 8089  13.798   0.991  10.367
68750SOL    HW2 8090  13.672   0.930  10.308
68751SOL     OW 8091  10.414  13.764   2.264
68751SOL    HW1 8092  10.489  13.766   2.323
68751SOL    HW2 8093  10.438  13.820   2.190
68752SOL     OW 8094   3.202   3.636   7.634
68752SOL    HW1 8095   3.193   3.578   7.559
68752SOL    HW2 8096   3.297   3.651   7.642
68753SOL     OW 8097  13.342   0.482   3.711
68753SOL    HW1 8098  13.316   0.566   3.673
68753SOL    HW2 8099  13.288   0.417   3.665
68754SOL     OW 8100  11.450   3.920  12.262
68754SOL    HW1 8101  11.456   3.940  12.169
68754SOL    HW2 8102  11.466   4.004  12.306
68755SOL     OW 8103  13.205   1.022   2.413
68755SOL    HW1 8104  13.265   1.083   2.456
68755SOL    HW2 8105  13.132   1.014   2.474
68756SOL     OW 8106   3.623   3.127  11.564
68756SOL    HW1 8107   3.615   3.134  11.469
68756SOL    HW2 8108   3.717   3.135  11.581
68757SOL     OW 8109  11.492   4.713  12.411
68757SOL    HW1 8110  11.580   4.677  12.404
68757SOL    HW2 8111  11.492   4.789  12.353
68758SOL     OW 8112   7.715   2.615   9.815
68758SOL    HW1 8113   7.785   2.669   9.779
68758SOL    HW2 8114   7.755   2.530   9.832
68759SOL     OW 8115   8.128   6.191   3.979
68759SOL    HW1 8116   8.195   6.245   3.937
68759SOL    HW2 8117   8.149   6.196   4.073
68760SOL     OW 8118   2.585   1.958   4.010
68760SOL    HW1 8119   2.618   1.904   4.081
68760SOL    HW2 8120   2.582   2.046   4.046
68761SOL     OW 8121   6.127  10.889   3.033
68761SOL    HW1 8122   6.138  10.982   3.010
68761SOL    HW2 8123   6.177  10.879   3.114
68762SOL     OW 8124   5.444   9.198   7.178
68762SOL    HW1 8125   5.395   9.174   7.099
68762SOL    HW2 8126   5.377   9.213   7.244
68763SOL     OW 8127   7.244   1.280  14.369
68763SOL    HW1 8128   7.318   1.334  14.341
68763SOL    HW2 8129   7.281   1.221  14.435
68764SOL     OW 8130   1.414   6.135   9.267
68764SOL    HW1 8131   1.343   6.136   9.203
68764SOL    HW2 8132   1.370   6.114   9.350
68765SOL     OW 8133  11.639   8.428  13.998
68765SOL    HW1 8134  11.709   8.462  13.941
68765SOL    HW2 8135  11.560   8.432  13.944
68766SOL     OW 8136   1.993   5.543   3.270
68766SOL    HW1 8137   2.044   5.559   3.350
68766SOL    HW2 8138   1.916   5.496   3.300
68767SOL     OW 8139   7.948   2.335   1.973
68767SOL    HW1 8140   7.879   2.286   2.016
68767SOL    HW2 8141   7.992   2.271   1.917
68768SOL     OW 8142   5.958   8.901   5.119
68768SOL    HW1 8143   5.939   8.923   5.028
68768SOL    HW2 8144   6.044   8.940   5.135
68769SOL     OW 8145  10.235   9.541   5.403
68769SOL    HW1 8146  10.204   9.628   5.429
68769SOL    HW2 8147  10.208   9.532   5.312
68770SOL     OW 8148   4.958   3.619   0.826
68770SOL    HW1 8149   4.988   3.667   0.903
68770SOL    HW2 8150   4.906   3.682   0.776
68771SOL     OW 8151   0.888  11.239  13.977
68771SOL    HW1 8152   0.844  11.154  13.990
68771SOL    HW2 8153   0.971  11.229  14.025
68772SOL     OW 8154   9.392   4.753  14.439
68772SOL    HW1 8155   9.354   4.801  14.513
68772SOL    HW2 8156   9.478   4.795  14.425
68773SOL     OW 8157  12.841  13.875  12.238
68773SOL    HW1 8158  12.882  13.834  12.161
68773SOL    HW2 8159  12.828  13.966  12.212
68774SOL     OW 8160  11.212   0.258  11.957
68774SOL    HW1 8161  11.229   0.278  11.865
68774SOL    HW2 8162  11.117   0.253  11.964
68775SOL     OW 8163  10.483   4.786  10.719
68775SOL    HW1 8164  10.534   4.783  10.638
68775SOL    HW2 8165  10.393   4.799  10.691
68776SOL     OW 8166  14.128  12.263   4.659
68776SOL    HW1 8167  14.199  12.213   4.699
68776SOL    HW2 8168  14.048  12.218   4.686
68777SOL     OW 8169  12.516  14.664   6.858
68777SOL    HW1 8170  12.578  14.595   6.879
68777SOL    HW2 8171  12.548  14.701   6.776
68778SOL     OW 8172   4.543   5.488   2.927
68778SOL    HW1 8173   4.494   5.536   2.860
68778SOL    HW2 8174   4.626   5.535   2.934
68779SOL     OW 8175  12.498   3.063  11.716
68779SOL    HW1 8176  12.450   3.073  11.634
68779SOL    HW2 8177  12.590   3.061  11.690
68780SOL     OW 8178  12.391  12.126   5.682
68780SOL    HW1 8179  12.458  12.193   5.670
68780SOL    HW2 8180  12.366  12.133   5.775
68781SOL     OW 8181   5.272  11.983  14.443
68781SOL    HW1 8182   5.333  12.056  14.455
68781SOL    HW2 8183   5.187  12.019  14.469
68782SOL     OW 8184   6.425   1.022   4.957
68782SOL    HW1 8185   6.332   1.034   4.975
68782SOL    HW2 8186   6.438   0.927   4.962
68783SOL     OW 8187  11.700   5.704   5.749
68783SOL    HW1 8188  11.757   5.634   5.782
68783SOL    HW2 8189  11.713   5.704   5.655
68784SOL     OW 8190   3.548   2.123  10.139
68784SOL    HW1 8191   3.511   2.112  10.226
68784SOL    HW2 8192   3.498   2.062  10.084
68785SOL     OW 8193   7.257  11.044   0.468
68785SOL    HW1 8194   7.234  11.079   0.382
68785SOL    HW2 8195   7.195  11.086   0.528
68786SOL     OW 8196   3.361   9.948   0.086
68786SOL    HW1 8197   3.364  10.021   0.024
68786SOL    HW2 8198   3.332   9.988   0.168
68787SOL     OW 8199   6.867  14.114   1.259
68787SOL    HW1 8200   6.817  14.195   1.248
68787SOL    HW2 8201   6.804  14.044   1.245
68788SOL     OW 8202  12.844   8.258  13.486
68788SOL    HW1 8203  12.848   8.326  13.554
68788SOL    HW2 8204  12.840   8.176  13.535
68789SOL     OW 8205   6.450   6.897   8.267
68789SOL    HW1 8206   6.468   6.957   8.195
68789SOL    HW2 8207   6.495   6.936   8.342
68790SOL     OW 8208   4.789   3.962   0.529
68790SOL    HW1 8209   4.712   3.905   0.528
68790SOL    HW2 8210   4.863   3.903   0.513
68791SOL     OW 8211  13.302  11.184   9.512
68791SOL    HW1 8212  13.209  11.189   9.536
68791SOL    HW2 8213  13.348  11.217   9.589
68792SOL     OW 8214   0.498  13.411   0.811
68792SOL    HW1 8215   0.413  13.366   0.815
68792SOL    HW2 8216   0.532  13.391   0.724
68793SOL     OW 8217  14.406  14.852  12.639
68793SOL    HW1 8218  14.427  14.784  12.575
68793SOL    HW2 8219  14.324   0.016  12.607
68794SOL     OW 8220  11.678  12.656  10.680
68794SOL    HW1 8221  11.640  12.714  10.746
68794SOL    HW2 8222  11.631  12.574  10.689
68795SOL     OW 8223   9.357  10.150  11.086
68795SOL    HW1 8224   9.375  10.218  11.021
68795SOL    HW2 8225   9.356  10.198  11.169
68796SOL     OW 8226   0.757   9.863   3.674
68796SOL    HW1 8227   0.756   9.906   3.760
68796SOL    HW2 8228   0.838   9.895   3.633
68797SOL     OW 8229   5.042   9.013  14.281
68797SOL    HW1 8230   4.980   8.943  14.258
68797SOL    HW2 8231   5.100   9.019  14.205
68798SOL     OW 8232   5.531  14.667   8.784
68798SOL    HW1 8233   5.547  14.756   8.751
68798SOL    HW2 8234   5.523  14.677   8.878
68799SOL     OW 8235   7.870   6.646   5.623
68799SOL    HW1 8236   7.903   6.560   5.596
68799SOL    HW2 8237   7.775   6.638   5.616
68800SOL     OW 8238   5.382  11.013  12.123
68800SOL    HW1 8239   5.459  11.062  12.152
68800SOL    HW2 8240   5.315  11.033  12.188
68801SOL     OW 8241   2.071   1.934   0.314
68801SOL    HW1 8242   2.053   1.978   0.397
68801SOL    HW2 8243   2.131   1.863   0.337
68802SOL     OW 8244  10.718   4.586   5.701
68802SOL    HW1 8245  10.748   4.497   5.720
68802SOL    HW2 8246  10.797   4.633   5.674
68803SOL     OW 8247   3.643   8.195  10.584
68803SOL    HW1 8248   3.672   8.235  10.665
68803SOL    HW2 8249   3.722   8.187  10.530
68804SOL     OW 8250   5.967  14.441  10.340
68804SOL    HW1 8251   6.021  14.418  10.264
68804SOL    HW2 8252   6.021  14.418  10.415
68805SOL     OW 8253  14.446   7.455  12.511
68805SOL    HW1 8254  14.437   7.474  12.418
68805SOL    HW2 8255  14.361   7.419  12.536
68806SOL     OW 8256   8.494  13.186   2.764
68806SOL    HW1 8257   8.510  13.114   2.703
68806SOL    HW2 8258   8.399  13.189   2.772
68807SOL     OW 8259  13.657   1.502   8.935
68807SOL    HW1 8260  13.605   1.581   8.953
68807SOL    HW2 8261  13.727   1.505   9.000
68808SOL     OW 8262   7.423   1.469  14.350
68808SOL    HW1 8263   7.515   1.443  14.356
68808SOL    HW2 8264   7.425   1.559  14.318
68809SOL     OW 8265  12.956  10.684  14.734
68809SOL    HW1 8266  13.014  10.618  14.773
68809SOL    HW2 8267  13.016  10.746  14.692
68810SOL     OW 8268   6.873   2.524   6.948
68810SOL    HW1 8269   6.886   2.432   6.928
68810SOL    HW2 8270   6.947   2.547   7.004
68811SOL     OW 8271  10.369   7.455   2.726
68811SOL    HW1 8272  10.424   7.380   2.748
68811SOL    HW2 8273  10.353   7.446   2.632
68812SOL     OW 8274  13.702   2.176   8.474
68812SOL    HW1 8275  13.715   2.230   8.552
68812SOL    HW2 8276  13.778   2.118   8.472
68813SOL     OW 8277  10.386   5.347  10.128
68813SOL    HW1 8278  10.393   5.353  10.223
68813SOL    HW2 8279  10.418   5.260  10.106
68814SOL     OW 8280   6.472   6.620   1.734
68814SOL    HW1 8281   6.454   6.698   1.681
68814SOL    HW2 8282   6.444   6.644   1.822
68815SOL     OW 8283  12.421   0.261   9.286
68815SOL    HW1 8284  12.465   0.289   9.206
68815SOL    HW2 8285  12.335   0.301   9.281
68816SOL     OW 8286   5.293  14.819   4.887
68816SOL    HW1 8287   5.245  14.770   4.953
68816SOL    HW2 8288   5.384  14.817   4.919
68817SOL     OW 8289   2.268   5.484   5.210
68817SOL    HW1 8290   2.197   5.511   5.268
68817SOL    HW2 8291   2.346   5.483   5.266
68818SOL     OW 8292   6.330   3.465   3.501
68818SOL    HW1 8293   6.408   3.428   3.541
68818SOL    HW2 8294   6.363   3.527   3.436
68819SOL     OW 8295   1.456   5.132  11.810
68819SOL    HW1 8296   1.510   5.148  11.887
68819SOL    HW2 8297   1.385   5.197  11.817
68820SOL     OW 8298   9.001  10.792   7.800
68820SOL    HW1 8299   9.048  10.739   7.735
68820SOL    HW2 8300   9.038  10.880   7.789
68821SOL     OW 8301   7.331   9.118   7.100
68821SOL    HW1 8302   7.404   9.061   7.124
68821SOL    HW2 8303   7.258   9.058   7.086
68822SOL     OW 8304   9.493   4.497   7.151
68822SOL    HW1 8305   9.527   4.426   7.097
68822SOL    HW2 8306   9.398   4.490   7.143
68823SOL     OW 8307   7.206   5.250   5.685
68823SOL    HW1 8308   7.195   5.338   5.649
68823SOL    HW2 8309   7.186   5.260   5.778
68824SOL     OW 8310   7.091   0.491  12.981
68824SOL    HW1 8311   7.043   0.564  12.942
68824SOL    HW2 8312   7.068   0.415  12.927
68825SOL     OW 8313  14.713   5.265   4.970
68825SOL    HW1 8314  14.721   5.262   4.875
68825SOL    HW2 8315  14.625   5.231   4.987
68826SOL     OW 8316   1.690  11.186  12.940
68826SOL    HW1 8317   1.598  11.159  12.939
68826SOL    HW2 8318   1.686  11.281  12.952
68827SOL     OW 8319   7.195   7.442   0.990
68827SOL    HW1 8320   7.171   7.498   1.065
68827SOL    HW2 8321   7.288   7.425   1.002
68828SOL     OW 8322   4.112  13.271   6.518
68828SOL    HW1 8323   4.068  13.337   6.572
68828SOL    HW2 8324   4.043  13.210   6.495
68829SOL     OW 8325   0.765   7.040   6.074
68829SOL    HW1 8326   0.800   7.002   6.155
68829SOL    HW2 8327   0.841   7.045   6.016
68830SOL     OW 8328  11.968  12.073   2.627
68830SOL    HW1 8329  12.026  12.103   2.696
68830SOL    HW2 8330  11.955  12.150   2.571
68831SOL     OW 8331   3.453   1.954  13.337
68831SOL    HW1 8332   3.490   2.003  13.263
68831SOL    HW2 8333   3.529   1.935  13.392
68832SOL     OW 8334   5.139   3.803   6.658
68832SOL    HW1 8335   5.161   3.792   6.750
68832SOL    HW2 8336   5.056   3.850   6.659
68833SOL     OW 8337  12.343   8.070   7.541
68833SOL    HW1 8338  12.410   8.002   7.527
68833SOL    HW2 8339  12.293   8.070   7.459
68834SOL     OW 8340   1.321  12.881  11.120
68834SOL    HW1 8341   1.376  12.956  11.142
68834SOL    HW2 8342   1.381  12.818  11.079
68835SOL     OW 8343  14.840  13.896   6.859
68835SOL    HW1 8344  14.781  13.940   6.798
68835SOL    HW2 8345  14.791  13.893   6.941
68836SOL     OW 8346   8.829  10.174   5.773
68836SOL    HW1 8347   8.847  10.237   5.703
68836SOL    HW2 8348   8.735  10.158   5.768
68837SOL     OW 8349   1.977  11.963   3.547
68837SOL    HW1 8350   1.927  11.909   3.486
68837SOL    HW2 8351   1.957  12.053   3.522
68838SOL     OW 8352   1.006   2.069  14.126
68838SOL    HW1 8353   0.922   2.089  14.085
68838SOL    HW2 8354   1.070   2.080  14.055
68839SOL     OW 8355  12.717   4.129   0.796
68839SOL    HW1 8356  12.645   4.119   0.859
68839SOL    HW2 8357  12.686   4.084   0.717
68840SOL     OW 8358   2.662   4.163   6.703
68840SOL    HW1 8359   2.604   4.236   6.723
68840SOL    HW2 8360   2.623   4.122   6.626
68841SOL     OW 8361  13.119   4.476   4.019
68841SOL    HW1 8362  13.057   4.404   4.006
68841SOL    HW2 8363  13.136   4.509   3.931
68842SOL     OW 8364  11.312   0.711  14.718
68842SOL    HW1 8365  11.301   0.724  14.624
68842SOL    HW2 8366  11.289   0.796  14.756
68843SOL     OW 8367  13.238  11.677  11.444
68843SOL    HW1 8368  13.276  11.765  11.439
68843SOL    HW2 8369  13.298  11.627  11.499
68844SOL     OW 8370   9.341   1.851   6.757
68844SOL    HW1 8371   9.348   1.760   6.730
68844SOL    HW2 8372   9.317   1.898   6.677
68845SOL     OW 8373  12.570  13.948   6.158
68845SOL    HW1 8374  12.508  13.937   6.086
68845SOL    HW2 8375  12.516  13.972   6.233
68846SOL     OW 8376   0.889   3.066   8.119
68846SOL    HW1 8377   0.863   3.158   8.126
68846SOL    HW2 8378   0.865   3.041   8.030
68847SOL     OW 8379   6.014   0.172   2.579
68847SOL    HW1 8380   5.942   0.145   2.522
68847SOL    HW2 8381   6.092   0.134   2.538
68848SOL     OW 8382   9.164   7.309   7.474
68848SOL    HW1 8383   9.072   7.326   7.495
68848SOL    HW2 8384   9.185   7.372   7.404
68849SOL     OW 8385   1.335  11.786   5.053
68849SOL    HW1 8386   1.279  11.855   5.018
68849SOL    HW2 8387   1.330  11.797   5.148
68850SOL     OW 8388  11.325  13.313   4.730
68850SOL    HW1 8389  11.290  13.392   4.689
68850SOL    HW2 8390  11.345  13.254   4.657
68851SOL     OW 8391  13.957  13.790   3.344
68851SOL    HW1 8392  13.968  13.881   3.370
68851SOL    HW2 8393  14.002  13.784   3.260
68852SOL     OW 8394   3.133   1.593  14.165
68852SOL    HW1 8395   3.165   1.670  14.117
68852SOL    HW2 8396   3.113   1.529  14.096
68853SOL     OW 8397   3.154   9.130   1.468
68853SOL    HW1 8398   3.183   9.221   1.477
68853SOL    HW2 8399   3.131   9.121   1.376
68854SOL     OW 8400   9.038   6.861   3.856
68854SOL    HW1 8401   9.093   6.845   3.779
68854SOL    HW2 8402   9.055   6.787   3.913
68855SOL     OW 8403   5.313   3.793   8.509
68855SOL    HW1 8404   5.320   3.700   8.486
68855SOL    HW2 8405   5.394   3.811   8.556
68856SOL     OW 8406  14.813  10.440   7.997
68856SOL    HW1 8407  14.851  10.514   7.949
68856SOL    HW2 8408  14.771  10.387   7.929
68857SOL     OW 8409   8.702   7.452   7.799
68857SOL    HW1 8410   8.713   7.526   7.739
68857SOL    HW2 8411   8.654   7.488   7.874
68858SOL     OW 8412   7.194   2.895  10.596
68858SOL    HW1 8413   7.229   2.832  10.534
68858SOL    HW2 8414   7.271   2.943  10.628
68859SOL     OW 8415  10.095   9.292   0.958
68859SOL    HW1 8416  10.169   9.347   0.934
68859SOL    HW2 8417  10.020   9.332   0.913
68860SOL     OW 8418  14.035  10.059  10.372
68860SOL    HW1 8419  14.042  10.148  10.406
68860SOL    HW2 8420  14.083  10.060  10.290
68861SOL     OW 8421  10.322   1.871   6.937
68861SOL    HW1 8422  10.392   1.902   6.995
68861SOL    HW2 8423  10.294   1.949   6.889
68862SOL     OW 8424  10.967   2.146   5.792
68862SOL    HW1 8425  10.960   2.080   5.861
68862SOL    HW2 8426  10.913   2.219   5.823
68863SOL     OW 8427   9.202   8.517   0.076
68863SOL    HW1 8428   9.123   8.471   0.102
68863SOL    HW2 8429   9.174   8.574   0.004
68864SOL     OW 8430   9.287   2.528  11.309
68864SOL    HW1 8431   9.311   2.561  11.396
68864SOL    HW2 8432   9.195   2.504  11.317
68865SOL     OW 8433  14.449  13.528   7.598
68865SOL    HW1 8434  14.453  13.442   7.642
68865SOL    HW2 8435  14.541  13.556   7.592
68866SOL     OW 8436   5.094   3.662   5.327
68866SOL    HW1 8437   5.043   3.690   5.251
68866SOL    HW2 8438   5.076   3.569   5.336
68867SOL     OW 8439  12.284   0.313  12.064
68867SOL    HW1 8440  12.289   0.405  12.089
68867SOL    HW2 8441  12.260   0.267  12.145
68868SOL     OW 8442   3.835   5.148   4.630
68868SOL    HW1 8443   3.869   5.234   4.655
68868SOL    HW2 8444   3.779   5.166   4.554
68869SOL     OW 8445   3.478   4.677   9.645
68869SOL    HW1 8446   3.496   4.609   9.710
68869SOL    HW2 8447   3.489   4.633   9.561
68870SOL     OW 8448   4.287   4.815   7.535
68870SOL    HW1 8449   4.350   4.862   7.481
68870SOL    HW2 8450   4.219   4.787   7.473
68871SOL     OW 8451  14.245   0.895   7.491
68871SOL    HW1 8452  14.168   0.951   7.501
68871SOL    HW2 8453  14.299   0.914   7.568
68872SOL     OW 8454   4.719   5.952   4.410
68872SOL    HW1 8455   4.746   5.973   4.499
68872SOL    HW2 8456   4.631   5.914   4.420
68873SOL     OW 8457  10.641   4.491  12.333
68873SOL    HW1 8458  10.643   4.580  12.367
68873SOL    HW2 8459  10.632   4.502  12.238
68874SOL     OW 8460   2.126   6.360  13.661
68874SOL    HW1 8461   2.090   6.411  13.733
68874SOL    HW2 8462   2.180   6.293  13.703
68875SOL     OW 8463  14.215  12.877   8.871
68875SOL    HW1 8464  14.175  12.817   8.934
68875SOL    HW2 8465  14.195  12.839   8.786
68876SOL     OW 8466  11.233   6.157   6.397
68876SOL    HW1 8467  11.305   6.116   6.445
68876SOL    HW2 8468  11.216   6.096   6.325
68877SOL     OW 8469  11.781   6.640   7.924
68877SOL    HW1 8470  11.813   6.553   7.947
68877SOL    HW2 8471  11.704   6.653   7.978
68878SOL     OW 8472  12.956   0.814   8.228
68878SOL    HW1 8473  12.890   0.826   8.160
68878SOL    HW2 8474  13.040   0.820   8.181
68879SOL     OW 8475  12.830  11.546   4.483
68879SOL    HW1 8476  12.737  11.528   4.469
68879SOL    HW2 8477  12.872  11.516   4.403
68880SOL     OW 8478   0.865   0.318   6.451
68880SOL    HW1 8479   0.810   0.378   6.501
68880SOL    HW2 8480   0.901   0.371   6.380
68881SOL     OW 8481   7.334  14.531   1.330
68881SOL    HW1 8482   7.305  14.554   1.242
68881SOL    HW2 8483   7.255  14.498   1.373
68882SOL     OW 8484  13.147   4.842   8.880
68882SOL    HW1 8485  13.172   4.825   8.970
68882SOL    HW2 8486  13.059   4.880   8.886
68883SOL     OW 8487  11.139  10.937   0.771
68883SOL    HW1 8488  11.216  10.984   0.805
68883SOL    HW2 8489  11.159  10.923   0.678
68884SOL     OW 8490  13.537   9.330   0.500
68884SOL    HW1 8491  13.478   9.254   0.503
68884SOL    HW2 8492  13.479   9.405   0.511
68885SOL     OW 8493   1.027   5.654   0.853
68885SOL    HW1 8494   1.057   5.707   0.927
68885SOL    HW2 8495   1.108   5.620   0.814
68886SOL     OW 8496  12.161   3.124   6.242
68886SOL    HW1 8497  12.196   3.195   6.188
68886SOL    HW2 8498  12.200   3.139   6.328
68887SOL     OW 8499  14.673  12.864  14.080
68887SOL    HW1 8500  14.691  12.922  14.154
68887SOL    HW2 8501  14.634  12.920  14.014
68888SOL     OW 8502   9.743   3.250   5.643
68888SOL    HW1 8503   9.816   3.293   5.688
68888SOL    HW2 8504   9.775   3.161   5.625
68889SOL     OW 8505   6.806  14.427   2.676
68889SOL    HW1 8506   6.728  14.476   2.648
68889SOL    HW2 8507   6.773  14.363   2.739
68890SOL     OW 8508  11.625   7.370   5.409
68890SOL    HW1 8509  11.539   7.353   5.369
68890SOL    HW2 8510  11.659   7.445   5.361
68891SOL     OW 8511  11.384   0.366  14.846
68891SOL    HW1 8512  11.352   0.442   0.020
68891SOL    HW2 8513  11.332   0.364  14.766
68892SOL     OW 8514  12.550  14.265   4.235
68892SOL    HW1 8515  12.524  14.357   4.237
68892SOL    HW2 8516  12.547  14.238   4.327
68893SOL     OW 8517   6.747  13.337  11.817
68893SOL    HW1 8518   6.823  13.395  11.820
68893SOL    HW2 8519   6.761  13.277  11.890
68894SOL     OW 8520   7.295  12.228   0.376
68894SOL    HW1 8521   7.338  12.191   0.299
68894SOL    HW2 8522   7.205  12.196   0.372
68895SOL     OW 8523   2.700   0.187   0.694
68895SOL    HW1 8524   2.753   0.266   0.705
68895SOL    HW2 8525   2.712   0.138   0.775
68896SOL     OW 8526  14.444   7.862   9.699
68896SOL    HW1 8527  14.532   7.896   9.688
68896SOL    HW2 8528  14.388   7.919   9.647
68897SOL     OW 8529  11.540  14.849  10.082
68897SOL    HW1 8530  11.588  14.767  10.082
68897SOL    HW2 8531  11.511  14.860   9.991
68898SOL     OW 8532  12.452   0.934   9.593
68898SOL    HW1 8533  12.529   0.916   9.539
68898SOL    HW2 8534  12.483   1.000   9.656
68899SOL     OW 8535  13.330  12.888  12.995
68899SOL    HW1 8536  13.418  12.860  12.968
68899SOL    HW2 8537  13.345  12.940  13.074
68900SOL     OW 8538   8.206   7.221  10.828
68900SOL    HW1 8539   8.279   7.202  10.886
68900SOL    HW2 8540   8.130   7.182  10.870
68901SOL     OW 8541   5.355  13.933   0.734
68901SOL    HW1 8542   5.314  13.986   0.802
68901SOL    HW2 8543   5.448  13.958   0.736
68902SOL     OW 8544  11.339   0.998  12.964
68902SOL    HW1 8545  11.263   0.976  13.018
68902SOL    HW2 8546  11.392   1.055  13.019
68903SOL     OW 8547   1.990   3.930   8.698
68903SOL    HW1 8548   2.024   3.974   8.620
68903SOL    HW2 8549   2.062   3.931   8.760
68904SOL     OW 8550   8.310  11.747  11.745
68904SOL    HW1 8551   8.330  11.832  11.705
68904SOL    HW2 8552   8.393  11.720  11.786
68905SOL     OW 8553   8.126   7.996  12.614
68905SOL    HW1 8554   8.089   8.084  12.629
68905SOL    HW2 8555   8.181   8.006  12.537
68906SOL     OW 8556  14.722  11.917   8.921
68906SOL    HW1 8557  14.746  11.839   8.870
68906SOL    HW2 8558  14.806  11.957   8.943
68907SOL     OW 8559  14.205  10.197  12.919
68907SOL    HW1 8560  14.216  10.114  12.965
68907SOL    HW2 8561  14.183  10.171  12.829
68908SOL     OW 8562  14.430   3.119   8.710
68908SOL    HW1 8563  14.451   3.110   8.617
68908SOL    HW2 8564  14.334   3.125   8.713
68909SOL     OW 8565   6.510   4.384  14.867
68909SOL    HW1 8566   6.445   4.317   0.012
68909SOL    HW2 8567   6.582   4.365   0.053
68910SOL     OW 8568   3.177   2.617   0.848
68910SOL    HW1 8569   3.081   2.614   0.844
68910SOL    HW2 8570   3.199   2.705   0.817
68911SOL     OW 8571   9.025   3.618   2.211
68911SOL    HW1 8572   8.971   3.662   2.145
68911SOL    HW2 8573   9.040   3.530   2.176
68912SOL     OW 8574   0.231  11.300   3.504
68912SOL    HW1 8575   0.281  11.369   3.462
68912SOL    HW2 8576   0.284  11.221   3.493
68913SOL     OW 8577   7.050   7.556   1.530
68913SOL    HW1 8578   7.053   7.465   1.500
68913SOL    HW2 8579   7.103   7.557   1.610
68914SOL     OW 8580  10.535   0.387  12.275
68914SOL    HW1 8581  10.508   0.443  12.348
68914SOL    HW2 8582  10.463   0.325  12.264
68915SOL     OW 8583  10.241  11.122  14.791
68915SOL    HW1 8584  10.289  11.040  14.802
68915SOL    HW2 8585  10.252  11.144  14.698
68916SOL     OW 8586   8.487   3.116   4.079
68916SOL    HW1 8587   8.569   3.139   4.035
68916SOL    HW2 8588   8.433   3.078   4.009
68917SOL     OW 8589   7.146   6.869   0.513
68917SOL    HW1 8590   7.071   6.877   0.453
68917SOL    HW2 8591   7.182   6.958   0.518
68918SOL     OW 8592   0.834   7.049   1.913
68918SOL    HW1 8593   0.758   7.052   1.855
68918SOL    HW2 8594   0.810   6.985   1.980
68919SOL     OW 8595  13.300  10.331   1.586
68919SOL    HW1 8596  13.327  10.297   1.501
68919SOL    HW2 8597  13.372  10.309   1.645
68920SOL     OW 8598   7.851  14.522   6.888
68920SOL    HW1 8599   7.787  14.483   6.947
68920SOL    HW2 8600   7.819  14.611   6.874
68921SOL     OW 8601  12.233  12.114   1.396
68921SOL    HW1 8602  12.179  12.179   1.441
68921SOL    HW2 8603  12.187  12.098   1.313
68922SOL     OW 8604   0.603  11.736  14.723
68922SOL    HW1 8605   0.653  11.654  14.724
68922SOL    HW2 8606   0.628  11.780  14.804
68923SOL     OW 8607   9.818  13.421   6.283
68923SOL    HW1 8608   9.899  13.382   6.252
68923SOL    HW2 8609   9.836  13.445   6.374
68924SOL     OW 8610   0.872  12.395  13.704
68924SOL    HW1 8611   0.835  12.365  13.621
68924SOL    HW2 8612   0.953  12.439  13.680
68925SOL     OW 8613  12.901   2.616   6.427
68925SOL    HW1 8614  12.920   2.655   6.342
68925SOL    HW2 8615  12.984   2.575   6.453
68926SOL     OW 8616  12.530   9.967   3.634
68926SOL    HW1 8617  12.459   9.935   3.578
68926SOL    HW2 8618  12.608   9.961   3.580
68927SOL     OW 8619   9.332   0.928   8.507
68927SOL    HW1 8620   9.417   0.914   8.548
68927SOL    HW2 8621   9.315   1.021   8.518
68928SOL     OW 8622  10.454  13.745  10.156
68928SOL    HW1 8623  10.463  13.744  10.061
68928SOL    HW2 8624  10.485  13.659  10.184
68929SOL     OW 8625  14.143   9.955   2.837
68929SOL    HW1 8626  14.120  10.030   2.782
68929SOL    HW2 8627  14.124   9.984   2.926
68930SOL     OW 8628  12.396   2.164   8.479
68930SOL    HW1 8629  12.424   2.172   8.388
68930SOL    HW2 8630  12.422   2.076   8.505
68931SOL     OW 8631   2.988   3.485   2.461
68931SOL    HW1 8632   3.016   3.576   2.457
68931SOL    HW2 8633   2.902   3.488   2.503
68932SOL     OW 8634   8.970   4.772  14.745
68932SOL    HW1 8635   8.998   4.861  14.767
68932SOL    HW2 8636   8.945   4.733  14.829
68933SOL     OW 8637   8.638   9.068  13.353
68933SOL    HW1 8638   8.730   9.041  13.357
68933SOL    HW2 8639   8.593   8.994  13.312
68934SOL     OW 8640  12.914   9.290   7.813
68934SOL    HW1 8641  12.836   9.332   7.775
68934SOL    HW2 8642  12.883   9.253   7.895
68935SOL     OW 8643   8.047  10.722   8.968
68935SOL    HW1 8644   7.996  10.802   8.984
68935SOL    HW2 8645   7.987  10.664   8.921
68936SOL     OW 8646  12.525  12.263  14.570
68936SOL    HW1 8647  12.592  12.285  14.505
68936SOL    HW2 8648  12.442  12.278  14.525
68937SOL     OW 8649   3.395   4.631   9.058
68937SOL    HW1 8650   3.345   4.557   9.092
68937SOL    HW2 8651   3.444   4.595   8.984
68938SOL     OW 8652   6.084  13.749   7.229
68938SOL    HW1 8653   6.030  13.674   7.254
68938SOL    HW2 8654   6.129  13.774   7.310
68939SOL     OW 8655   8.280   6.383   5.876
68939SOL    HW1 8656   8.325   6.393   5.960
68939SOL    HW2 8657   8.349   6.358   5.815
68940SOL     OW 8658   3.820   4.379   9.590
68940SOL    HW1 8659   3.733   4.355   9.621
68940SOL    HW2 8660   3.868   4.405   9.669
68941SOL     OW 8661   3.991   3.520  14.675
68941SOL    HW1 8662   3.938   3.443  14.656
68941SOL    HW2 8663   4.017   3.553  14.589
68942SOL     OW 8664   3.279   2.618   0.180
68942SOL    HW1 8665   3.282   2.523   0.176
68942SOL    HW2 8666   3.227   2.644   0.103
68943SOL     OW 8667   6.093   7.445   3.026
68943SOL    HW1 8668   6.177   7.471   3.066
68943SOL    HW2 8669   6.076   7.358   3.062
68944SOL     OW 8670   5.822  14.351  12.827
68944SOL    HW1 8671   5.826  14.301  12.909
68944SOL    HW2 8672   5.897  14.411  12.832
68945SOL     OW 8673   0.980  12.987   4.882
68945SOL    HW1 8674   1.040  12.914   4.867
68945SOL    HW2 8675   1.014  13.057   4.827
68946SOL     OW 8676   6.795   3.311   9.168
68946SOL    HW1 8677   6.835   3.277   9.088
68946SOL    HW2 8678   6.761   3.233   9.213
68947SOL     OW 8679   3.809  13.520   0.981
68947SOL    HW1 8680   3.874  13.573   1.028
68947SOL    HW2 8681   3.728  13.533   1.031
68948SOL     OW 8682   9.800   6.481  10.435
68948SOL    HW1 8683   9.713   6.442  10.427
68948SOL    HW2 8684   9.846   6.453  10.356
68949SOL     OW 8685  13.684  14.372  14.297
68949SOL    HW1 8686  13.737  14.298  14.326
68949SOL    HW2 8687  13.667  14.422  14.378
68950SOL     OW 8688   5.365   8.284   2.765
68950SOL    HW1 8689   5.418   8.344   2.817
68950SOL    HW2 8690   5.369   8.319   2.676
68951SOL     OW 8691   6.848   7.623  12.816
68951SOL    HW1 8692   6.824   7.697  12.871
68951SOL    HW2 8693   6.924   7.584  12.860
68952SOL     OW 8694  13.570  14.371   2.283
68952SOL    HW1 8695  13.596  14.360   2.191
68952SOL    HW2 8696  13.597  14.460   2.305
68953SOL     OW 8697  13.655   0.489   6.517
68953SOL    HW1 8698  13.685   0.549   6.448
68953SOL    HW2 8699  13.561   0.482   6.503
68954SOL     OW 8700   5.223  10.682  14.389
68954SOL    HW1 8701   5.242  10.588  14.386
68954SOL    HW2 8702   5.181  10.700  14.305
68955SOL     OW 8703   1.299  10.200  12.325
68955SOL    HW1 8704   1.343  10.160  12.251
68955SOL    HW2 8705   1.251  10.128  12.367
68956SOL     OW 8706  13.735  10.238  11.793
68956SOL    HW1 8707  13.640  10.248  11.790
68956SOL    HW2 8708  13.767  10.321  11.829
68957SOL     OW 8709  14.202   2.272   6.309
68957SOL    HW1 8710  14.286   2.317   6.322
68957SOL    HW2 8711  14.206   2.239   6.219
68958SOL     OW 8712   5.516   6.047  11.131
68958SOL    HW1 8713   5.566   6.035  11.211
68958SOL    HW2 8714   5.581   6.070  11.065
68959SOL     OW 8715   2.393  11.545   6.550
68959SOL    HW1 8716   2.300  11.537   6.573
68959SOL    HW2 8717   2.401  11.634   6.514
68960SOL     OW 8718  12.805  13.224   4.243
68960SOL    HW1 8719  12.865  13.292   4.273
68960SOL    HW2 8720  12.862  13.151   4.219
68961SOL     OW 8721  10.494   2.623  12.782
68961SOL    HW1 8722  10.451   2.598  12.864
68961SOL    HW2 8723  10.568   2.678  12.810
68962SOL     OW 8724   9.810   1.419   2.928
68962SOL    HW1 8725   9.828   1.398   2.836
68962SOL    HW2 8726   9.894   1.450   2.962
68963SOL     OW 8727   5.925   2.226   8.420
68963SOL    HW1 8728   5.961   2.297   8.366
68963SOL    HW2 8729   5.982   2.151   8.403
68964SOL     OW 8730   0.318   8.423  14.421
68964SOL    HW1 8731   0.357   8.507  14.397
68964SOL    HW2 8732   0.231   8.447  14.455
68965SOL     OW 8733   8.338   0.550   3.785
68965SOL    HW1 8734   8.415   0.541   3.728
68965SOL    HW2 8735   8.375   0.563   3.873
68966SOL     OW 8736  13.119  10.255  12.706
68966SOL    HW1 8737  13.144  10.302  12.786
68966SOL    HW2 8738  13.059  10.314  12.661
68967SOL     OW 8739  13.597   6.711   3.488
68967SOL    HW1 8740  13.647   6.716   3.569
68967SOL    HW2 8741  13.506   6.706   3.516
68968SOL     OW 8742  14.816   9.638   4.466
68968SOL    HW1 8743   0.033   9.643   4.437
68968SOL    HW2 8744  14.766   9.684   4.397
68969SOL     OW 8745   5.864   1.002   8.033
68969SOL    HW1 8746   5.784   0.983   7.985
68969SOL    HW2 8747   5.925   1.036   7.967
68970SOL     OW 8748   0.159   6.631   1.814
68970SOL    HW1 8749   0.185   6.556   1.869
68970SOL    HW2 8750   0.189   6.607   1.726
68971SOL     OW 8751  13.043   5.762  11.544
68971SOL    HW1 8752  12.962   5.810  11.561
68971SOL    HW2 8753  13.034   5.729  11.455
68972SOL     OW 8754   1.386   0.137   3.804
68972SOL    HW1 8755   1.391   0.148   3.899
68972SOL    HW2 8756   1.436   0.057   3.786
68973SOL     OW 8757   0.444   1.418  11.895
68973SOL    HW1 8758   0.470   1.389  11.807
68973SOL    HW2 8759   0.526   1.441  11.938
68974SOL     OW 8760   1.206  13.900  12.543
68974SOL    HW1 8761   1.121  13.941  12.529
68974SOL    HW2 8762   1.248  13.954  12.611
68975SOL     OW 8763   5.880  12.347  10.927
68975SOL    HW1 8764   5.928  12.430  10.923
68975SOL    HW2 8765   5.795  12.367  10.889
68976SOL     OW 8766   2.519  11.334   9.220
68976SOL    HW1 8767   2.472  11.333   9.304
68976SOL    HW2 8768   2.450  11.338   9.154
68977SOL     OW 8769   4.416   9.264   9.489
68977SOL    HW1 8770   4.399   9.343   9.437
68977SOL    HW2 8771   4.331   9.221   9.494
68978SOL     OW 8772  14.142   4.996   6.562
68978SOL    HW1 8773  14.093   5.050   6.500
68978SOL    HW2 8774  14.211   5.054   6.596
68979SOL     OW 8775  14.416   2.052  10.779
68979SOL    HW1 8776  14.475   1.978  10.794
68979SOL    HW2 8777  14.465   2.129  10.809
68980SOL     OW 8778  10.714  11.566   6.192
68980SOL    HW1 8779  10.768  11.628   6.242
68980SOL    HW2 8780  10.769  11.542   6.118
68981SOL     OW 8781  10.994  12.884  11.559
68981SOL    HW1 8782  10.950  12.957  11.515
68981SOL    HW2 8783  10.922  12.833  11.595
68982SOL     OW 8784   4.596   6.838   9.977
68982SOL    HW1 8785   4.581   6.845  10.072
68982SOL    HW2 8786   4.650   6.915   9.956
68983SOL     OW 8787  13.689   6.909   4.430
68983SOL    HW1 8788  13.720   6.895   4.340
68983SOL    HW2 8789  13.651   6.996   4.429
68984SOL     OW 8790   2.383   0.457   1.020
68984SOL    HW1 8791   2.322   0.529   1.035
68984SOL    HW2 8792   2.384   0.408   1.102
68985SOL     OW 8793  11.933   3.129  12.495
68985SOL    HW1 8794  11.968   3.165  12.577
68985SOL    HW2 8795  11.992   3.163  12.427
68986SOL     OW 8796   0.291   2.861   8.629
68986SOL    HW1 8797   0.285   2.829   8.539
68986SOL    HW2 8798   0.241   2.797   8.680
68987SOL     OW 8799   1.494  12.775   2.033
68987SOL    HW1 8800   1.502  12.731   2.117
68987SOL    HW2 8801   1.399  12.787   2.021
68988SOL     OW 8802   0.362  12.885   8.474
68988SOL    HW1 8803   0.406  12.846   8.398
68988SOL    HW2 8804   0.271  12.855   8.467
68989SOL     OW 8805   9.543  13.722   2.684
68989SOL    HW1 8806   9.488  13.725   2.762
68989SOL    HW2 8807   9.533  13.809   2.645
68990SOL     OW 8808   4.668   9.996   6.257
68990SOL    HW1 8809   4.628  10.083   6.253
68990SOL    HW2 8810   4.604   9.939   6.213
68991SOL     OW 8811  13.060   6.285   6.713
68991SOL    HW1 8812  13.074   6.198   6.677
68991SOL    HW2 8813  12.975   6.280   6.758
68992SOL     OW 8814   5.141  14.419  13.275
68992SOL    HW1 8815   5.097  14.353  13.328
68992SOL    HW2 8816   5.079  14.492  13.270
68993SOL     OW 8817   3.758   2.223  12.301
68993SOL    HW1 8818   3.836   2.277  12.312
68993SOL    HW2 8819   3.752   2.208  12.206
68994SOL     OW 8820  13.936   0.850  14.293
68994SOL    HW1 8821  13.886   0.790  14.348
68994SOL    HW2 8822  13.871   0.894  14.238
68995SOL     OW 8823   3.727   3.128   3.598
68995SOL    HW1 8824   3.727   3.035   3.577
68995SOL    HW2 8825   3.708   3.171   3.514
68996SOL     OW 8826  13.445   5.158   2.272
68996SOL    HW1 8827  13.506   5.216   2.226
68996SOL    HW2 8828  13.365   5.209   2.280
68997SOL     OW 8829   8.514   3.623  10.289
68997SOL    HW1 8830   8.538   3.657  10.203
68997SOL    HW2 8831   8.579   3.556  10.307
68998SOL     OW 8832  13.877   7.658   5.522
68998SOL    HW1 8833  13.823   7.590   5.562
68998SOL    HW2 8834  13.895   7.719   5.594
68999SOL     OW 8835  10.134  14.647   8.456
68999SOL    HW1 8836  10.169  14.566   8.494
68999SOL    HW2 8837  10.192  14.716   8.489
69000SOL     OW 8838   2.492   6.861   6.131
69000SOL    HW1 8839   2.469   6.774   6.100
69000SOL    HW2 8840   2.441   6.873   6.211
69001SOL     OW 8841  10.610  11.520   8.599
69001SOL    HW1 8842  10.618  11.492   8.508
69001SOL    HW2 8843  10.700  11.529   8.629
69002SOL     OW 8844  12.611   3.153   1.953
69002SOL    HW1 8845  12.701   3.185   1.943
69002SOL    HW2 8846  12.567   3.179   1.872
69003SOL     OW 8847  13.427   5.114   0.434
69003SOL    HW1 8848  13.347   5.157   0.463
69003SOL    HW2 8849  13.459   5.167   0.362
69004SOL     OW 8850  12.830   2.651   8.238
69004SOL    HW1 8851  12.798   2.570   8.198
69004SOL    HW2 8852  12.817   2.639   8.332
69005SOL     OW 8853   7.309   1.162  12.522
69005SOL    HW1 8854   7.361   1.216  12.581
69005SOL    HW2 8855   7.219   1.192  12.535
69006SOL     OW 8856   6.090  11.551   9.548
69006SOL    HW1 8857   6.168  11.606   9.559
69006SOL    HW2 8858   6.121  11.462   9.564
69007SOL     OW 8859  10.403  12.216   7.468
69007SOL    HW1 8860  10.372  12.133   7.432
69007SOL    HW2 8861  10.498  12.215   7.452
69008SOL     OW 8862   6.831  12.152   7.605
69008SOL    HW1 8863   6.799  12.111   7.524
69008SOL    HW2 8864   6.760  12.139   7.668
69009SOL     OW 8865  11.528   3.228  14.503
69009SOL    HW1 8866  11.531   3.140  14.540
69009SOL    HW2 8867  11.491   3.282  14.573
69010SOL     OW 8868   7.033   4.988  12.515
69010SOL    HW1 8869   7.128   4.984  12.519
69010SOL    HW2 8870   7.007   5.031  12.596
69011SOL     OW 8871   1.921   0.170  12.753
69011SOL    HW1 8872   1.931   0.201  12.843
69011SOL    HW2 8873   1.987   0.219  12.704
69012SOL     OW 8874  13.097   7.841   7.510
69012SOL    HW1 8875  13.191   7.849   7.528
69012SOL    HW2 8876  13.092   7.779   7.438
69013SOL     OW 8877  12.499   3.119  11.984
69013SOL    HW1 8878  12.486   3.098  11.891
69013SOL    HW2 8879  12.573   3.180  11.984
69014SOL     OW 8880   1.817   5.619  13.141
69014SOL    HW1 8881   1.750   5.687  13.143
69014SOL    HW2 8882   1.896   5.663  13.111
69015SOL     OW 8883   2.646  11.876   2.370
69015SOL    HW1 8884   2.647  11.968   2.345
69015SOL    HW2 8885   2.555  11.859   2.397
69016SOL     OW 8886   6.493   4.605   1.223
69016SOL    HW1 8887   6.497   4.648   1.308
69016SOL    HW2 8888   6.422   4.650   1.176
69017SOL     OW 8889   4.722  11.356   8.458
69017SOL    HW1 8890   4.816  11.342   8.473
69017SOL    HW2 8891   4.679  11.289   8.512
69018SOL     OW 8892   8.289   4.961   3.390
69018SOL    HW1 8893   8.350   4.944   3.462
69018SOL    HW2 8894   8.285   5.056   3.384
69019SOL     OW 8895   4.804   4.230  11.792
69019SOL    HW1 8896   4.865   4.284  11.742
69019SOL    HW2 8897   4.743   4.292  11.831
69020SOL     OW 8898  13.848   0.104   5.901
69020SOL    HW1 8899  13.824   0.044   5.971
69020SOL    HW2 8900  13.924   0.063   5.859
69021SOL     OW 8901   8.093   9.880  11.240
69021SOL    HW1 8902   8.000   9.873  11.217
69021SOL    HW2 8903   8.128   9.945  11.179
69022SOL     OW 8904  12.267   4.478   9.772
69022SOL    HW1 8905  12.209   4.500   9.699
69022SOL    HW2 8906  12.330   4.551   9.775
69023SOL     OW 8907   5.631   9.019   0.706
69023SOL    HW1 8908   5.665   8.930   0.713
69023SOL    HW2 8909   5.644   9.042   0.614
69024SOL     OW 8910  11.104  13.617  14.395
69024SOL    HW1 8911  11.082  13.569  14.475
69024SOL    HW2 8912  11.025  13.668  14.376
69025SOL     OW 8913  12.498   8.298  13.698
69025SOL    HW1 8914  12.473   8.389  13.710
69025SOL    HW2 8915  12.590   8.294  13.724
69026SOL     OW 8916   1.359  13.797   0.216
69026SOL    HW1 8917   1.405  13.881   0.216
69026SOL    HW2 8918   1.290  13.807   0.281
69027SOL     OW 8919   7.336  14.043  12.507
69027SOL    HW1 8920   7.251  14.018  12.471
69027SOL    HW2 8921   7.382  13.961  12.520
69028SOL     OW 8922   2.980   6.122   5.976
69028SOL    HW1 8923   3.038   6.124   6.052
69028SOL    HW2 8924   2.908   6.181   5.999
69029SOL     OW 8925  13.467   5.754   2.792
69029SOL    HW1 8926  13.398   5.723   2.733
69029SOL    HW2 8927  13.430   5.745   2.880
69030SOL     OW 8928   7.601   7.181   1.855
69030SOL    HW1 8929   7.507   7.166   1.870
69030SOL    HW2 8930   7.644   7.106   1.896
69031SOL     OW 8931   3.476   4.925   0.038
69031SOL    HW1 8932   3.543   4.984   0.074
69031SOL    HW2 8933   3.461   4.958  14.823
69032SOL     OW 8934  14.663   6.126  13.560
69032SOL    HW1 8935  14.688   6.062  13.627
69032SOL    HW2 8936  14.590   6.084  13.513
69033SOL     OW 8937   8.654   6.042  11.258
69033SOL    HW1 8938   8.567   6.036  11.220
69033SOL    HW2 8939   8.672   5.955  11.293
69034SOL     OW 8940   0.680   0.280   3.989
69034SOL    HW1 8941   0.663   0.186   3.988
69034SOL    HW2 8942   0.613   0.316   4.047
69035SOL     OW 8943   6.373  10.173   3.626
69035SOL    HW1 8944   6.323  10.103   3.668
69035SOL    HW2 8945   6.453  10.130   3.595
69036SOL     OW 8946  14.299  12.108  13.087
69036SOL    HW1 8947  14.231  12.176  13.078
69036SOL    HW2 8948  14.250  12.026  13.092
69037SOL     OW 8949  14.517  13.538  10.683
69037SOL    HW1 8950  14.422  13.550  10.679
69037SOL    HW2 8951  14.546  13.540  10.592
69038SOL     OW 8952   6.830  14.518  10.597
69038SOL    HW1 8953   6.881  14.569  10.534
69038SOL    HW2 8954   6.895  14.473  10.651
69039SOL     OW 8955   6.814   0.206   7.332
69039SOL    HW1 8956   6.857   0.179   7.251
69039SOL    HW2 8957   6.872   0.176   7.401
69040SOL     OW 8958  13.448   9.041   3.234
69040SOL    HW1 8959  13.423   9.114   3.177
69040SOL    HW2 8960  13.428   9.071   3.322
69041SOL     OW 8961  12.825   0.753   0.186
69041SOL    HW1 8962  12.912   0.720   0.206
69041SOL    HW2 8963  12.790   0.692   0.121
69042SOL     OW 8964   6.203  13.527  12.123
69042SOL    HW1 8965   6.111  13.541  12.148
69042SOL    HW2 8966   6.253  13.568  12.193
69043SOL     OW 8967  11.564   4.743  10.489
69043SOL    HW1 8968  11.508   4.801  10.438
69043SOL    HW2 8969  11.523   4.737  10.575
69044SOL     OW 8970  10.644   6.618  10.599
69044SOL    HW1 8971  10.597   6.691  10.639
69044SOL    HW2 8972  10.677   6.567  10.673
69045SOL     OW 8973   9.457   7.064   7.686
69045SOL    HW1 8974   9.388   7.012   7.646
69045SOL    HW2 8975   9.433   7.070   7.779
69046SOL     OW 8976   8.571   6.710   7.556
69046SOL    HW1 8977   8.521   6.691   7.477
69046SOL    HW2 8978   8.506   6.742   7.618
69047SOL     OW 8979  11.677   5.528  13.670
69047SOL    HW1 8980  11.729   5.589  13.723
69047SOL    HW2 8981  11.718   5.443  13.684
69048SOL     OW 8982  12.869   3.265  13.190
69048SOL    HW1 8983  12.806   3.227  13.128
69048SOL    HW2 8984  12.835   3.242  13.276
69049SOL     OW 8985   7.702   3.666   8.455
69049SOL    HW1 8986   7.670   3.589   8.501
69049SOL    HW2 8987   7.623   3.713   8.429
69050SOL     OW 8988   4.391  11.104   2.894
69050SOL    HW1 8989   4.365  11.069   2.979
69050SOL    HW2 8990   4.482  11.131   2.906
69051SOL     OW 8991   7.206  12.850   5.062
69051SOL    HW1 8992   7.165  12.855   5.148
69051SOL    HW2 8993   7.133  12.836   5.002
69052SOL     OW 8994  11.186   2.712  10.955
69052SOL    HW1 8995  11.108   2.766  10.964
69052SOL    HW2 8996  11.166   2.652  10.883
69053SOL     OW 8997   5.533   3.724   2.508
69053SOL    HW1 8998   5.500   3.665   2.576
69053SOL    HW2 8999   5.552   3.668   2.434
69054SOL     OW 9000   6.372  13.933   0.647
69054SOL    HW1 9001   6.370  14.028   0.661
69054SOL    HW2 9002   6.287  13.913   0.606
69055SOL     OW 9003  11.177   5.003   5.407
69055SOL    HW1 9004  11.228   5.027   5.330
69055SOL    HW2 9005  11.117   4.936   5.376
69056SOL     OW 9006   4.955  13.810   8.428
69056SOL    HW1 9007   4.945  13.896   8.388
69056SOL    HW2 9008   5.028  13.770   8.381
69057SOL     OW 9009   2.464   1.878   9.767
69057SOL    HW1 9010   2.505   1.799   9.733
69057SOL    HW2 9011   2.535   1.943   9.769
69058SOL     OW 9012   1.747   1.232  10.586
69058SOL    HW1 9013   1.672   1.192  10.541
69058SOL    HW2 9014   1.808   1.256  10.516
69059SOL     OW 9015  12.619   7.613  14.007
69059SOL    HW1 9016  12.575   7.613  13.922
69059SOL    HW2 9017  12.570   7.549  14.059
69060SOL     OW 9018   0.891  13.624   5.477
69060SOL    HW1 9019   0.839  13.593   5.403
69060SOL    HW2 9020   0.826  13.645   5.544
69061SOL     OW 9021   1.428  14.652   6.990
69061SOL    HW1 9022   1.380  14.640   6.908
69061SOL    HW2 9023   1.518  14.668   6.963
69062SOL     OW 9024  13.616  13.901   5.112
69062SOL    HW1 9025  13.531  13.937   5.085
69062SOL    HW2 9026  13.594  13.820   5.159
69063SOL     OW 9027   4.786   3.688  13.017
69063SOL    HW1 9028   4.762   3.708  13.107
69063SOL    HW2 9029   4.880   3.673  13.019
69064SOL     OW 9030   5.530  13.339  12.203
69064SOL    HW1 9031   5.486  13.282  12.265
69064SOL    HW2 9032   5.623  13.335  12.228
69065SOL     OW 9033   3.403  13.122  14.844
69065SOL    HW1 9034   3.466  13.127  14.772
69065SOL    HW2 9035   3.338  13.058  14.815
69066SOL     OW 9036   4.300   9.976  11.632
69066SOL    HW1 9037   4.340  10.030  11.564
69066SOL    HW2 9038   4.339  10.008  11.714
69067SOL     OW 9039  12.563   6.589   4.002
69067SOL    HW1 9040  12.608   6.563   3.922
69067SOL    HW2 9041  12.615   6.549   4.072
69068SOL     OW 9042  10.764   3.594   7.621
69068SOL    HW1 9043  10.849   3.561   7.651
69068SOL    HW2 9044  10.784   3.679   7.582
69069SOL     OW 9045   8.929   4.248   8.862
69069SOL    HW1 9046   8.933   4.301   8.782
69069SOL    HW2 9047   9.011   4.199   8.862
69070SOL     OW 9048   5.488   5.594  14.327
69070SOL    HW1 9049   5.553   5.645  14.279
69070SOL    HW2 9050   5.410   5.597  14.271
69071SOL     OW 9051  11.687  14.008   1.044
69071SOL    HW1 9052  11.648  14.071   0.984
69071SOL    HW2 9053  11.730  14.061   1.111
69072SOL     OW 9054   3.703   4.571   3.804
69072SOL    HW1 9055   3.661   4.531   3.880
69072SOL    HW2 9056   3.642   4.640   3.777
69073SOL     OW 9057  12.394  14.808  10.416
69073SOL    HW1 9058  12.451  14.784  10.343
69073SOL    HW2 9059  12.384   0.029  10.409
69074SOL     OW 9060   0.864   4.824   8.892
69074SOL    HW1 9061   0.924   4.833   8.966
69074SOL    HW2 9062   0.791   4.881   8.912
69075SOL     OW 9063   7.511   1.297   7.036
69075SOL    HW1 9064   7.466   1.261   7.112
69075SOL    HW2 9065   7.596   1.254   7.036
69076SOL     OW 9066   9.187  13.298  10.098
69076SOL    HW1 9067   9.250  13.234  10.065
69076SOL    HW2 9068   9.237  13.379  10.106
69077SOL     OW 9069  12.862  10.193  10.726
69077SOL    HW1 9070  12.956  10.213  10.725
69077SOL    HW2 9071  12.837  10.201  10.818
69078SOL     OW 9072   8.401  13.846  11.832
69078SOL    HW1 9073   8.441  13.773  11.880
69078SOL    HW2 9074   8.374  13.808  11.749
69079SOL     OW 9075  14.378   3.356  12.921
69079SOL    HW1 9076  14.453   3.413  12.936
69079SOL    HW2 9077  14.377   3.341  12.827
69080SOL     OW 9078  13.084  11.146   4.175
69080SOL    HW1 9079  13.177  11.159   4.157
69080SOL    HW2 9080  13.072  11.051   4.169
69081SOL     OW 9081  13.769   9.205   1.311
69081SOL    HW1 9082  13.827   9.177   1.382
69081SOL    HW2 9083  13.770   9.131   1.250
69082SOL     OW 9084  11.888   9.652   6.520
69082SOL    HW1 9085  11.795   9.631   6.510
69082SOL    HW2 9086  11.889   9.738   6.563
69083SOL     OW 9087  13.377   6.699  11.556
69083SOL    HW1 9088  13.299   6.717  11.503
69083SOL    HW2 9089  13.448   6.694  11.493
69084SOL     OW 9090   7.782  14.031  10.642
69084SOL    HW1 9091   7.835  14.041  10.720
69084SOL    HW2 9092   7.692  14.035  10.673
69085SOL     OW 9093   8.688  11.685   5.784
69085SOL    HW1 9094   8.600  11.717   5.765
69085SOL    HW2 9095   8.731  11.758   5.826
69086SOL     OW 9096   1.348   8.870  12.334
69086SOL    HW1 9097   1.287   8.918  12.389
69086SOL    HW2 9098   1.311   8.782  12.327
69087SOL     OW 9099   0.051   7.807   7.072
69087SOL    HW1 9100  14.873   7.726   7.068
69087SOL    HW2 9101   0.068   7.820   7.165
69088SOL     OW 9102   6.426   8.785   2.784
69088SOL    HW1 9103   6.364   8.780   2.711
69088SOL    HW2 9104   6.393   8.856   2.839
69089SOL     OW 9105   9.553   6.293   7.807
69089SOL    HW1 9106   9.513   6.323   7.888
69089SOL    HW2 9107   9.590   6.207   7.829
69090SOL     OW 9108   8.613   5.254  10.928
69090SOL    HW1 9109   8.560   5.193  10.981
69090SOL    HW2 9110   8.678   5.289  10.989
69091SOL     OW 9111   0.884  12.840  12.816
69091SOL    HW1 9112   0.950  12.849  12.885
69091SOL    HW2 9113   0.921  12.774  12.757
69092SOL     OW 9114  14.285  10.441  12.654
69092SOL    HW1 9115  14.193  10.460  12.675
69092SOL    HW2 9116  14.319  10.522  12.616
69093SOL     OW 9117   9.385   4.941   2.821
69093SOL    HW1 9118   9.454   4.956   2.886
69093SOL    HW2 9119   9.427   4.958   2.737
69094SOL     OW 9120  13.323   7.203   9.883
69094SOL    HW1 9121  13.252   7.191   9.819
69094SOL    HW2 9122  13.281   7.190   9.968
69095SOL     OW 9123   9.048  13.909  13.978
69095SOL    HW1 9124   8.957  13.885  13.958
69095SOL    HW2 9125   9.061  13.992  13.932
69096SOL     OW 9126   8.971  10.029   4.747
69096SOL    HW1 9127   9.027  10.073   4.684
69096SOL    HW2 9128   9.025   9.957   4.780
69097SOL     OW 9129   4.871  12.106   3.240
69097SOL    HW1 9130   4.882  12.062   3.324
69097SOL    HW2 9131   4.926  12.185   3.246
69098SOL     OW 9132   4.625  14.626   2.949
69098SOL    HW1 9133   4.637  14.682   3.026
69098SOL    HW2 9134   4.702  14.643   2.895
69099SOL     OW 9135   8.640  11.576  10.466
69099SOL    HW1 9136   8.582  11.568  10.389
69099SOL    HW2 9137   8.705  11.641  10.440
69100SOL     OW 9138  13.135   6.577   4.891
69100SOL    HW1 9139  13.084   6.653   4.862
69100SOL    HW2 9140  13.104   6.505   4.837
69101SOL     OW 9141  11.752  10.014  12.019
69101SOL    HW1 9142  11.769   9.986  12.109
69101SOL    HW2 9143  11.828  10.068  11.995
69102SOL     OW 9144   9.598  14.176   0.611
69102SOL    HW1 9145   9.685  14.137   0.623
69102SOL    HW2 9146   9.538  14.102   0.621
69103SOL     OW 9147   6.309  11.434   5.007
69103SOL    HW1 9148   6.330  11.373   4.936
69103SOL    HW2 9149   6.230  11.480   4.977
69104SOL     OW 9150   2.188  11.010  13.700
69104SOL    HW1 9151   2.175  10.936  13.641
69104SOL    HW2 9152   2.100  11.044  13.716
69105SOL     OW 9153   9.517  10.105   3.514
69105SOL    HW1 9154   9.436  10.086   3.560
69105SOL    HW2 9155   9.586  10.088   3.579
69106SOL     OW 9156   7.063   4.072   1.229
69106SOL    HW1 9157   7.133   4.110   1.281
69106SOL    HW2 9158   7.005   4.030   1.293
69107SOL     OW 9159  14.401   1.819   4.766
69107SOL    HW1 9160  14.496   1.825   4.768
69107SOL    HW2 9161  14.380   1.810   4.673
69108SOL     OW 9162   3.293   9.358   2.260
69108SOL    HW1 9163   3.315   9.323   2.347
69108SOL    HW2 9164   3.378   9.380   2.222
69109SOL     OW 9165   6.442  13.781   9.816
69109SOL    HW1 9166   6.451  13.875   9.800
69109SOL    HW2 9167   6.512  13.741   9.764
69110SOL     OW 9168   9.535  12.979  12.733
69110SOL    HW1 9169   9.627  13.000  12.716
69110SOL    HW2 9170   9.501  12.946  12.650
69111SOL     OW 9171   9.082   5.821   4.418
69111SOL    HW1 9172   9.073   5.823   4.514
69111SOL    HW2 9173   9.038   5.740   4.392
69112SOL     OW 9174  10.194   5.064   5.979
69112SOL    HW1 9175  10.252   5.130   6.017
69112SOL    HW2 9176  10.245   5.024   5.909
69113SOL     OW 9177  13.597   2.253   6.802
69113SOL    HW1 9178  13.679   2.276   6.759
69113SOL    HW2 9179  13.581   2.325   6.863
69114SOL     OW 9180   2.491  13.689   6.712
69114SOL    HW1 9181   2.422  13.644   6.760
69114SOL    HW2 9182   2.515  13.629   6.642
69115SOL     OW 9183   4.862  12.670  12.685
69115SOL    HW1 9184   4.911  12.746  12.715
69115SOL    HW2 9185   4.895  12.653  12.597
69116SOL     OW 9186   3.205   6.177   3.736
69116SOL    HW1 9187   3.184   6.093   3.777
69116SOL    HW2 9188   3.120   6.216   3.718
69117SOL     OW 9189   1.280   4.593  14.760
69117SOL    HW1 9190   1.266   4.589  14.665
69117SOL    HW2 9191   1.191   4.591  14.796
69118SOL     OW 9192   4.147   9.494   2.217
69118SOL    HW1 9193   4.176   9.474   2.128
69118SOL    HW2 9194   4.158   9.589   2.226
69119SOL     OW 9195   4.831  11.906  12.843
69119SOL    HW1 9196   4.756  11.963  12.859
69119SOL    HW2 9197   4.843  11.859  12.926
69120SOL     OW 9198   3.148  11.322   9.759
69120SOL    HW1 9199   3.238  11.308   9.791
69120SOL    HW2 9200   3.152  11.297   9.667
69121SOL     OW 9201   3.160   4.532   7.237
69121SOL    HW1 9202   3.239   4.581   7.256
69121SOL    HW2 9203   3.147   4.541   7.142
69122SOL     OW 9204  13.178   7.960   5.918
69122SOL    HW1 9205  13.208   8.047   5.943
69122SOL    HW2 9206  13.086   7.957   5.945
69123SOL     OW 9207   5.151   9.489   5.388
69123SOL    HW1 9208   5.169   9.402   5.425
69123SOL    HW2 9209   5.134   9.544   5.465
69124SOL     OW 9210  13.507  13.765  10.840
69124SOL    HW1 9211  13.575  13.828  10.816
69124SOL    HW2 9212  13.484  13.786  10.930
69125SOL     OW 9213  13.906   6.402   9.979
69125SOL    HW1 9214  13.948   6.317   9.966
69125SOL    HW2 9215  13.954   6.442  10.051
69126SOL     OW 9216  11.328   3.813  11.956
69126SOL    HW1 9217  11.399   3.878  11.950
69126SOL    HW2 9218  11.249   3.865  11.972
69127SOL     OW 9219   9.178   7.951   8.789
69127SOL    HW1 9220   9.111   8.018   8.774
69127SOL    HW2 9221   9.128   7.873   8.815
69128SOL     OW 9222   2.804   7.193   1.598
69128SOL    HW1 9223   2.758   7.160   1.675
69128SOL    HW2 9224   2.810   7.118   1.540
69129SOL     OW 9225   3.755  12.181   5.710
69129SOL    HW1 9226   3.848  12.161   5.723
69129SOL    HW2 9227   3.726  12.215   5.794
69130SOL     OW 9228  11.288   5.164  14.628
69130SOL    HW1 9229  11.336   5.210  14.559
69130SOL    HW2 9230  11.352   5.152  14.698
69131SOL     OW 9231   8.053  13.013  13.285
69131SOL    HW1 9232   8.013  13.038  13.369
69131SOL    HW2 9233   7.996  12.943  13.252
69132SOL     OW 9234  11.029  11.630  11.121
69132SOL    HW1 9235  11.056  11.589  11.203
69132SOL    HW2 9236  10.950  11.679  11.143
69133SOL     OW 9237   6.187  13.584   1.180
69133SOL    HW1 9238   6.187  13.491   1.158
69133SOL    HW2 9239   6.261  13.595   1.238
69134SOL     OW 9240   3.475  11.610   5.469
69134SOL    HW1 9241   3.502  11.536   5.524
69134SOL    HW2 9242   3.485  11.686   5.527
69135SOL     OW 9243   4.782   0.370   1.982
69135SOL    HW1 9244   4.841   0.392   2.055
69135SOL    HW2 9245   4.831   0.393   1.904
69136SOL     OW 9246   4.312  14.648   5.151
69136SOL    HW1 9247   4.228  14.686   5.123
69136SOL    HW2 9248   4.323  14.571   5.096
69137SOL     OW 9249   2.574   0.655  10.232
69137SOL    HW1 9250   2.515   0.699  10.292
69137SOL    HW2 9251   2.655   0.645  10.281
69138SOL     OW 9252   7.505  11.255  11.376
69138SOL    HW1 9253   7.419  11.224  11.405
69138SOL    HW2 9254   7.504  11.349  11.393
69139SOL     OW 9255   2.897   4.994   5.246
69139SOL    HW1 9256   2.816   4.995   5.195
69139SOL    HW2 9257   2.872   4.957   5.331
69140SOL     OW 9258  12.377  13.338   6.958
69140SOL    HW1 9259  12.412  13.427   6.950
69140SOL    HW2 9260  12.405  13.309   7.045
69141SOL     OW 9261   4.061  13.493  10.575
69141SOL    HW1 9262   4.055  13.416  10.518
69141SOL    HW2 9263   4.121  13.467  10.644
69142SOL     OW 9264  13.371   3.975   1.158
69142SOL    HW1 9265  13.444   3.932   1.115
69142SOL    HW2 9266  13.345   4.045   1.098
69143SOL     OW 9267  10.098  10.069   8.352
69143SOL    HW1 9268  10.059  10.116   8.279
69143SOL    HW2 9269  10.052  10.100   8.430
69144SOL     OW 9270  10.467  10.246  11.921
69144SOL    HW1 9271  10.552  10.231  11.963
69144SOL    HW2 9272  10.426  10.160  11.916
69145SOL     OW 9273   6.964   1.140  10.631
69145SOL    HW1 9274   6.985   1.056  10.590
69145SOL    HW2 9275   6.961   1.202  10.558
69146SOL     OW 9276   9.706  12.596   5.515
69146SOL    HW1 9277   9.679  12.530   5.450
69146SOL    HW2 9278   9.758  12.547   5.579
69147SOL     OW 9279  14.435   2.330   1.307
69147SOL    HW1 9280  14.515   2.294   1.343
69147SOL    HW2 9281  14.369   2.314   1.374
69148SOL     OW 9282   3.053   0.659   2.405
69148SOL    HW1 9283   3.075   0.729   2.466
69148SOL    HW2 9284   3.057   0.701   2.318
69149SOL     OW 9285  12.380   6.316  11.503
69149SOL    HW1 9286  12.295   6.311  11.461
69149SOL    HW2 9287  12.376   6.393  11.559
69150SOL     OW 9288   9.656  10.799  13.795
69150SOL    HW1 9289   9.697  10.842  13.720
69150SOL    HW2 9290   9.563  10.815  13.784
69151SOL     OW 9291  14.427   8.930   5.061
69151SOL    HW1 9292  14.344   8.961   5.096
69151SOL    HW2 9293  14.459   9.003   5.007
69152SOL     OW 9294  11.770   6.883   9.526
69152SOL    HW1 9295  11.795   6.923   9.609
69152SOL    HW2 9296  11.716   6.949   9.483
69153SOL     OW 9297   8.805   1.355   5.331
69153SOL    HW1 9298   8.723   1.398   5.307
69153SOL    HW2 9299   8.872   1.399   5.278
69154SOL     OW 9300  10.165   2.638   4.580
69154SOL    HW1 9301  10.203   2.671   4.661
69154SOL    HW2 9302  10.176   2.543   4.585
69155SOL     OW 9303   3.005  12.709  11.952
69155SOL    HW1 9304   3.070  12.669  11.894
69155SOL    HW2 9305   3.057  12.754  12.019
69156SOL     OW 9306   4.125   2.382  11.919
69156SOL    HW1 9307   4.180   2.336  11.856
69156SOL    HW2 9308   4.177   2.383  12.000
69157SOL     OW 9309  10.775  12.785   8.628
69157SOL    HW1 9310  10.867  12.784   8.603
69157SOL    HW2 9311  10.728  12.798   8.545
69158SOL     OW 9312   8.930   2.573   6.379
69158SOL    HW1 9313   8.864   2.513   6.343
69158SOL    HW2 9314   8.913   2.656   6.334
69159SOL     OW 9315   8.830   0.963   0.043
69159SOL    HW1 9316   8.904   0.934  14.864
69159SOL    HW2 9317   8.784   1.027  14.862
69160SOL     OW 9318   3.797   3.655  10.969
69160SOL    HW1 9319   3.726   3.688  11.024
69160SOL    HW2 9320   3.777   3.688  10.881
69161SOL     OW 9321   2.020  13.783   5.571
69161SOL    HW1 9322   2.029  13.825   5.485
69161SOL    HW2 9323   2.051  13.693   5.556
69162SOL     OW 9324   0.780   3.890   9.247
69162SOL    HW1 9325   0.755   3.925   9.332
69162SOL    HW2 9326   0.719   3.930   9.185
69163SOL     OW 9327  12.655  13.127   5.049
69163SOL    HW1 9328  12.697  13.051   5.009
69163SOL    HW2 9329  12.580  13.145   4.993
69164SOL     OW 9330   6.480   9.874  13.611
69164SOL    HW1 9331   6.569   9.890  13.643
69164SOL    HW2 9332   6.468   9.939  13.542
69165SOL     OW 9333   6.197   2.482   5.176
69165SOL    HW1 9334   6.290   2.490   5.154
69165SOL    HW2 9335   6.159   2.566   5.150
69166SOL     OW 9336   7.942   7.749  14.053
69166SOL    HW1 9337   7.855   7.715  14.030
69166SOL    HW2 9338   7.943   7.749  14.149
69167SOL     OW 9339   9.538  10.747  13.146
69167SOL    HW1 9340   9.612  10.772  13.090
69167SOL    HW2 9341   9.558  10.787  13.231
69168SOL     OW 9342   1.370   9.996  12.657
69168SOL    HW1 9343   1.430   9.933  12.698
69168SOL    HW2 9344   1.357   9.961  12.568
69169SOL     OW 9345  13.033   7.743   0.979
69169SOL    HW1 9346  13.071   7.689   0.909
69169SOL    HW2 9347  12.968   7.797   0.934
69170SOL     OW 9348   2.106  12.444   5.418
69170SOL    HW1 9349   2.030  12.473   5.366
69170SOL    HW2 9350   2.071  12.376   5.475
69171SOL     OW 9351   4.724   4.843   6.992
69171SOL    HW1 9352   4.683   4.929   7.004
69171SOL    HW2 9353   4.656   4.780   7.014
69172SOL     OW 9354  13.066   5.014   3.027
69172SOL    HW1 9355  13.016   5.015   2.946
69172SOL    HW2 9356  13.033   5.089   3.077
69173SOL     OW 9357   1.107   7.067   1.328
69173SOL    HW1 9358   1.020   7.033   1.308
69173SOL    HW2 9359   1.153   7.065   1.244
69174SOL     OW 9360   6.768   7.613   5.105
69174SOL    HW1 9361   6.696   7.606   5.043
69174SOL    HW2 9362   6.765   7.703   5.135
69175SOL     OW 9363   4.725   6.484   2.184
69175SOL    HW1 9364   4.687   6.510   2.267
69175SOL    HW2 9365   4.688   6.544   2.119
69176SOL     OW 9366   6.891   3.984   7.811
69176SOL    HW1 9367   6.815   3.944   7.770
69176SOL    HW2 9368   6.863   4.073   7.834
69177SOL     OW 9369  13.204   1.251  12.658
69177SOL    HW1 9370  13.128   1.303  12.686
69177SOL    HW2 9371  13.214   1.185  12.727
69178SOL     OW 9372   2.018   0.829   7.160
69178SOL    HW1 9373   2.107   0.799   7.179
69178SOL    HW2 9374   1.988   0.867   7.243
69179SOL     OW 9375   4.994   3.794   1.483
69179SOL    HW1 9376   4.978   3.879   1.525
69179SOL    HW2 9377   5.086   3.776   1.501
69180SOL     OW 9378   9.446  13.783   4.699
69180SOL    HW1 9379   9.380  13.714   4.707
69180SOL    HW2 9380   9.528  13.742   4.728
69181SOL     OW 9381  14.395   4.693  11.785
69181SOL    HW1 9382  14.439   4.777  11.798
69181SOL    HW2 9383  14.428   4.637  11.855
69182SOL     OW 9384  12.188   1.147  12.684
69182SOL    HW1 9385  12.157   1.076  12.740
69182SOL    HW2 9386  12.176   1.226  12.737
69183SOL     OW 9387   5.463   8.317   2.094
69183SOL    HW1 9388   5.429   8.288   2.179
69183SOL    HW2 9389   5.471   8.237   2.043
69184SOL     OW 9390   1.885   1.765   1.933
69184SOL    HW1 9391   1.866   1.714   2.012
69184SOL    HW2 9392   1.866   1.855   1.958
69185SOL     OW 9393   6.617   6.872  11.217
69185SOL    HW1 9394   6.616   6.788  11.264
69185SOL    HW2 9395   6.671   6.856  11.140
69186SOL     OW 9396   5.596  12.700   4.687
69186SOL    HW1 9397   5.675  12.653   4.714
69186SOL    HW2 9398   5.580  12.670   4.597
69187SOL     OW 9399   0.168  13.940   5.202
69187SOL    HW1 9400   0.103  14.001   5.168
69187SOL    HW2 9401   0.124  13.855   5.201
69188SOL     OW 9402   0.976  13.484  11.449
69188SOL    HW1 9403   0.940  13.404  11.490
69188SOL    HW2 9404   0.917  13.501  11.375
69189SOL     OW 9405  11.810   9.990   0.110
69189SOL    HW1 9406  11.774  10.004   0.198
69189SOL    HW2 9407  11.897   9.954   0.125
69190SOL     OW 9408   9.680   6.839   0.781
69190SOL    HW1 9409   9.658   6.782   0.856
69190SOL    HW2 9410   9.774   6.825   0.768
69191SOL     OW 9411   1.149   4.901  10.145
69191SOL    HW1 9412   1.227   4.897  10.201
69191SOL    HW2 9413   1.178   4.864  10.061
69192SOL     OW 9414   7.723  13.885   2.103
69192SOL    HW1 9415   7.632  13.876   2.076
69192SOL    HW2 9416   7.719  13.912   2.194
69193SOL     OW 9417  11.154  13.266  13.219
69193SOL    HW1 9418  11.238  13.222  13.208
69193SOL    HW2 9419  11.132  13.297  13.132
69194SOL     OW 9420   8.350   5.511  10.426
69194SOL    HW1 9421   8.286   5.452  10.386
69194SOL    HW2 9422   8.300   5.590  10.446
69195SOL     OW 9423   9.553  12.727  14.275
69195SOL    HW1 9424   9.617  12.748  14.207
69195SOL    HW2 9425   9.557  12.632  14.283
69196SOL     OW 9426   9.732   5.180  14.279
69196SOL    HW1 9427   9.802   5.179  14.344
69196SOL    HW2 9428   9.703   5.272  14.277
69197SOL     OW 9429  10.870  14.291  11.873
69197SOL    HW1 9430  10.947  14.302  11.818
69197SOL    HW2 9431  10.905  14.265  11.959
69198SOL     OW 9432  10.685   1.982   0.735
69198SOL    HW1 9433  10.721   1.957   0.650
69198SOL    HW2 9434  10.645   1.902   0.769
69199SOL     OW 9435  12.958  10.957  11.593
69199SOL    HW1 9436  12.973  10.865  11.570
69199SOL    HW2 9437  12.982  11.006  11.515
69200SOL     OW 9438   6.795  10.936   3.559
69200SOL    HW1 9439   6.791  11.029   3.580
69200SOL    HW2 9440   6.801  10.892   3.644
69201SOL     OW 9441   7.720   1.230  11.035
69201SOL    HW1 9442   7.641   1.283  11.019
69201SOL    HW2 9443   7.690   1.159  11.092
69202SOL     OW 9444   5.978  10.518  10.312
69202SOL    HW1 9445   5.954  10.521  10.405
69202SOL    HW2 9446   5.915  10.576  10.269
69203SOL     OW 9447   1.270  10.604   3.076
69203SOL    HW1 9448   1.199  10.641   3.130
69203SOL    HW2 9449   1.332  10.676   3.064
69204SOL     OW 9450  10.662  13.621   2.749
69204SOL    HW1 9451  10.612  13.702   2.739
69204SOL    HW2 9452  10.626  13.581   2.829
69205SOL     OW 9453   3.594   3.978  10.528
69205SOL    HW1 9454   3.536   4.013  10.596
69205SOL    HW2 9455   3.645   3.910  10.573
69206SOL     OW 9456  10.117   6.240   3.780
69206SOL    HW1 9457  10.085   6.270   3.696
69206SOL    HW2 9458  10.184   6.175   3.758
69207SOL     OW 9459  13.521   3.447   3.205
69207SOL    HW1 9460  13.571   3.444   3.123
69207SOL    HW2 9461  13.585   3.478   3.270
69208SOL     OW 9462   1.669   9.548   7.227
69208SOL    HW1 9463   1.590   9.495   7.212
69208SOL    HW2 9464   1.741   9.488   7.208
69209SOL     OW 9465   8.382   9.849   9.899
69209SOL    HW1 9466   8.311   9.799   9.940
69209SOL    HW2 9467   8.419   9.900   9.971
69210SOL     OW 9468   8.564  12.598   2.206
69210SOL    HW1 9469   8.594  12.577   2.117
69210SOL    HW2 9470   8.469  12.584   2.203
69211SOL     OW 9471   9.719   7.562   8.844
69211SOL    HW1 9472   9.786   7.495   8.828
69211SOL    HW2 9473   9.747   7.606   8.924
69212SOL     OW 9474   8.854   2.567   6.762
69212SOL    HW1 9475   8.800   2.626   6.815
69212SOL    HW2 9476   8.842   2.481   6.803
69213SOL     OW 9477  12.246   6.096   5.103
69213SOL    HW1 9478  12.157   6.083   5.070
69213SOL    HW2 9479  12.242   6.181   5.148
69214SOL     OW 9480   1.101   6.642  12.884
69214SOL    HW1 9481   1.163   6.671  12.817
69214SOL    HW2 9482   1.026   6.700  12.874
69215SOL     OW 9483   2.359  11.418   4.248
69215SOL    HW1 9484   2.418  11.490   4.270
69215SOL    HW2 9485   2.417  11.347   4.219
69216SOL     OW 9486  13.348  14.032  10.785
69216SOL    HW1 9487  13.288  14.081  10.841
69216SOL    HW2 9488  13.424  14.089  10.775
69217SOL     OW 9489   3.188  10.677   9.632
69217SOL    HW1 9490   3.110  10.685   9.576
69217SOL    HW2 9491   3.171  10.737   9.705
69218SOL     OW 9492  13.546  13.630   5.096
69218SOL    HW1 9493  13.594  13.565   5.148
69218SOL    HW2 9494  13.460  13.590   5.083
69219SOL     OW 9495  10.173  11.274  14.162
69219SOL    HW1 9496  10.218  11.211  14.219
69219SOL    HW2 9497  10.217  11.266  14.078
69220SOL     OW 9498   9.777  11.985  10.158
69220SOL    HW1 9499   9.864  12.017  10.183
69220SOL    HW2 9500   9.764  11.908  10.213
69221SOL     OW 9501   7.294   9.469  12.438
69221SOL    HW1 9502   7.217   9.439  12.391
69221SOL    HW2 9503   7.366   9.416  12.404
69222SOL     OW 9504  10.758  12.018   6.019
69222SOL    HW1 9505  10.693  12.086   6.001
69222SOL    HW2 9506  10.728  11.943   5.968
69223SOL     OW 9507  12.788   7.200   8.379
69223SOL    HW1 9508  12.728   7.125   8.380
69223SOL    HW2 9509  12.859   7.172   8.321
69224SOL     OW 9510  12.529   2.509   3.175
69224SOL    HW1 9511  12.507   2.537   3.086
69224SOL    HW2 9512  12.529   2.589   3.227
69225SOL     OW 9513   0.485   7.260  13.042
69225SOL    HW1 9514   0.413   7.287  12.985
69225SOL    HW2 9515   0.546   7.334  13.042
69226SOL     OW 9516   9.442   8.736  10.020
69226SOL    HW1 9517   9.353   8.719  10.049
69226SOL    HW2 9518   9.457   8.675   9.948
69227SOL     OW 9519   7.281   3.651  12.786
69227SOL    HW1 9520   7.357   3.706  12.805
69227SOL    HW2 9521   7.214   3.712  12.755
69228SOL     OW 9522   7.570  10.381   2.064
69228SOL    HW1 9523   7.494  10.345   2.019
69228SOL    HW2 9524   7.540  10.395   2.154
69229SOL     OW 9525   6.909   4.386   4.688
69229SOL    HW1 9526   6.883   4.296   4.707
69229SOL    HW2 9527   6.849   4.415   4.620
69230SOL     OW 9528   3.803  14.546  10.236
69230SOL    HW1 9529   3.718  14.561  10.278
69230SOL    HW2 9530   3.782  14.533  10.144
69231SOL     OW 9531   9.949   3.040   4.407
69231SOL    HW1 9532   9.965   2.971   4.471
69231SOL    HW2 9533   9.905   2.995   4.334
69232SOL     OW 9534   7.231   6.508   8.814
69232SOL    HW1 9535   7.271   6.428   8.780
69232SOL    HW2 9536   7.191   6.482   8.896
69233SOL     OW 9537   2.218   9.390   8.601
69233SOL    HW1 9538   2.177   9.376   8.687
69233SOL    HW2 9539   2.312   9.394   8.620
69234SOL     OW 9540   9.941   5.520   6.011
69234SOL    HW1 9541   9.967   5.429   6.027
69234SOL    HW2 9542   9.932   5.527   5.916
69235SOL     OW 9543   8.306  14.540  12.852
69235SOL    HW1 9544   8.232  14.572  12.903
69235SOL    HW2 9545   8.295  14.581  12.766
69236SOL     OW 9546  12.724  10.163  13.592
69236SOL    HW1 9547  12.785  10.092  13.574
69236SOL    HW2 9548  12.638  10.128  13.566
69237SOL     OW 9549   6.938   5.889   4.346
69237SOL    HW1 9550   6.979   5.935   4.420
69237SOL    HW2 9551   6.990   5.809   4.337
69238SOL     OW 9552   7.180  10.803   6.606
69238SOL    HW1 9553   7.193  10.743   6.534
69238SOL    HW2 9554   7.158  10.747   6.681
69239SOL     OW 9555  13.681   5.584  11.272
69239SOL    HW1 9556  13.635   5.643  11.212
69239SOL    HW2 9557  13.656   5.496  11.245
69240SOL     OW 9558  12.709   2.054   7.414
69240SOL    HW1 9559  12.686   2.142   7.385
69240SOL    HW2 9560  12.737   2.065   7.505
69241SOL     OW 9561   9.734   3.618   3.327
69241SOL    HW1 9562   9.751   3.688   3.264
69241SOL    HW2 9563   9.698   3.547   3.274
69242SOL     OW 9564   0.448   2.995   2.062
69242SOL    HW1 9565   0.405   2.959   2.140
69242SOL    HW2 9566   0.510   3.059   2.098
69243SOL     OW 9567   4.179   0.110   8.456
69243SOL    HW1 9568   4.228   0.049   8.512
69243SOL    HW2 9569   4.187   0.195   8.500
69244SOL     OW 9570   0.055  10.666   7.881
69244SOL    HW1 9571   0.103  10.695   7.958
69244SOL    HW2 9572   0.051  10.742   7.823
69245SOL     OW 9573   5.237  12.934   8.645
69245SOL    HW1 9574   5.291  12.886   8.708
69245SOL    HW2 9575   5.273  13.023   8.646
69246SOL     OW 9576   0.328   0.020   7.482
69246SOL    HW1 9577   0.251  14.840   7.499
69246SOL    HW2 9578   0.293   0.108   7.467
69247SOL     OW 9579   2.414   0.460  11.604
69247SOL    HW1 9580   2.421   0.550  11.572
69247SOL    HW2 9581   2.353   0.466  11.677
69248SOL     OW 9582   7.695  11.842   3.144
69248SOL    HW1 9583   7.761  11.790   3.189
69248SOL    HW2 9584   7.632  11.866   3.212
69249SOL     OW 9585   8.549   5.547   4.010
69249SOL    HW1 9586   8.579   5.628   4.051
69249SOL    HW2 9587   8.458   5.564   3.985
69250SOL     OW 9588   3.528   4.733  11.027
69250SOL    HW1 9589   3.506   4.656  10.976
69250SOL    HW2 9590   3.567   4.699  11.107
69251SOL     OW 9591   1.109  11.515   2.216
69251SOL    HW1 9592   1.107  11.599   2.171
69251SOL    HW2 9593   1.200  11.504   2.243
69252SOL     OW 9594   5.089   9.621   5.643
69252SOL    HW1 9595   5.177   9.587   5.663
69252SOL    HW2 9596   5.032   9.582   5.709
69253SOL     OW 9597  12.157  11.432   7.486
69253SOL    HW1 9598  12.154  11.442   7.391
69253SOL    HW2 9599  12.146  11.338   7.500
69254SOL     OW 9600   5.504   9.310   4.011
69254SOL    HW1 9601   5.491   9.254   4.087
69254SOL    HW2 9602   5.581   9.363   4.034
69255SOL     OW 9603   5.653  12.060  11.903
69255SOL    HW1 9604   5.681  12.021  11.820
69255SOL    HW2 9605   5.733  12.066  11.955
69256SOL     OW 9606   9.780   8.116   4.881
69256SOL    HW1 9607   9.705   8.066   4.848
69256SOL    HW2 9608   9.857   8.072   4.844
69257SOL     OW 9609  11.463  10.091   1.455
69257SOL    HW1 9610  11.489  10.014   1.504
69257SOL    HW2 9611  11.543  10.144   1.451
69258SOL     OW 9612   0.084   1.342   5.527
69258SOL    HW1 9613   0.121   1.422   5.492
69258SOL    HW2 9614   0.066   1.287   5.451
69259SOL     OW 9615   4.280   4.980   5.777
69259SOL    HW1 9616   4.190   4.962   5.751
69259SOL    HW2 9617   4.283   4.954   5.870
69260SOL     OW 9618   1.588   5.449   2.612
69260SOL    HW1 9619   1.642   5.433   2.534
69260SOL    HW2 9620   1.642   5.507   2.667
69261SOL     OW 9621   4.616   6.873   6.618
69261SOL    HW1 9622   4.537   6.896   6.569
69261SOL    HW2 9623   4.633   6.782   6.594
69262SOL     OW 9624   0.675   9.074  11.457
69262SOL    HW1 9625   0.747   9.071  11.519
69262SOL    HW2 9626   0.705   9.020  11.383
69263SOL     OW 9627  14.553  12.678  10.088
69263SOL    HW1 9628  14.530  12.593  10.051
69263SOL    HW2 9629  14.602  12.657  10.168
69264SOL     OW 9630  12.659   6.335   0.193
69264SOL    HW1 9631  12.664   6.343   0.098
69264SOL    HW2 9632  12.746   6.304   0.219
69265SOL     OW 9633   6.331   0.795   3.513
69265SOL    HW1 9634   6.399   0.782   3.446
69265SOL    HW2 9635   6.337   0.888   3.535
69266SOL     OW 9636  13.478  11.037  13.194
69266SOL    HW1 9637  13.385  11.044  13.216
69266SOL    HW2 9638  13.479  11.004  13.104
69267SOL     OW 9639   6.797   0.726   3.057
69267SOL    HW1 9640   6.802   0.631   3.065
69267SOL    HW2 9641   6.869   0.749   2.998
69268SOL     OW 9642   1.529  10.701   4.202
69268SOL    HW1 9643   1.584  10.662   4.134
69268SOL    HW2 9644   1.572  10.784   4.222
69269SOL     OW 9645  12.956  11.135  10.064
69269SOL    HW1 9646  12.950  11.053  10.015
69269SOL    HW2 9647  12.965  11.107  10.155
69270SOL     OW 9648   0.983  13.616   9.959
69270SOL    HW1 9649   1.064  13.639  10.004
69270SOL    HW2 9650   0.914  13.649  10.016
69271SOL     OW 9651   6.501   3.041  14.783
69271SOL    HW1 9652   6.536   3.129  14.768
69271SOL    HW2 9653   6.460   3.017  14.700
69272SOL     OW 9654   3.611   9.621  12.772
69272SOL    HW1 9655   3.679   9.682  12.800
69272SOL    HW2 9656   3.611   9.628  12.676
69273SOL     OW 9657   2.578  12.655   9.044
69273SOL    HW1 9658   2.648  12.713   9.072
69273SOL    HW2 9659   2.511  12.664   9.112
69274SOL     OW 9660  12.539   2.110  13.380
69274SOL    HW1 9661  12.490   2.037  13.419
69274SOL    HW2 9662  12.472   2.165  13.340
69275SOL     OW 9663  12.408   4.252   5.661
69275SOL    HW1 9664  12.317   4.221   5.656
69275SOL    HW2 9665  12.410   4.308   5.738
69276SOL     OW 9666  11.762   1.637   2.633
69276SOL    HW1 9667  11.818   1.582   2.689
69276SOL    HW2 9668  11.681   1.647   2.683
69277SOL     OW 9669   0.212  14.813   5.372
69277SOL    HW1 9670   0.202  14.747   5.441
69277SOL    HW2 9671   0.195  14.765   5.291
69278SOL     OW 9672  14.696  12.765   4.132
69278SOL    HW1 9673  14.772  12.714   4.104
69278SOL    HW2 9674  14.651  12.789   4.052
69279SOL     OW 9675   9.061   9.383   9.325
69279SOL    HW1 9676   9.055   9.351   9.235
69279SOL    HW2 9677   8.992   9.449   9.331
69280SOL     OW 9678   0.496   1.837  13.963
69280SOL    HW1 9679   0.563   1.897  13.930
69280SOL    HW2 9680   0.495   1.852  14.058
69281SOL     OW 9681  11.579   1.812   6.297
69281SOL    HW1 9682  11.625   1.749   6.241
69281SOL    HW2 9683  11.546   1.761   6.370
69282SOL     OW 9684   5.502   5.917  13.096
69282SOL    HW1 9685   5.417   5.940  13.057
69282SOL    HW2 9686   5.506   5.822  13.088
69283SOL     OW 9687  14.221   2.963  13.767
69283SOL    HW1 9688  14.133   2.978  13.734
69283SOL    HW2 9689  14.278   2.976  13.691
69284SOL     OW 9690   5.472  13.861  13.821
69284SOL    HW1 9691   5.523  13.903  13.891
69284SOL    HW2 9692   5.384  13.896  13.832
69285SOL     OW 9693   5.322  11.635  10.150
69285SOL    HW1 9694   5.315  11.686  10.069
69285SOL    HW2 9695   5.342  11.546  10.122
69286SOL     OW 9696   6.805  14.042  11.570
69286SOL    HW1 9697   6.850  13.974  11.519
69286SOL    HW2 9698   6.720  14.051  11.526
69287SOL     OW 9699  14.245   1.750   6.142
69287SOL    HW1 9700  14.185   1.676   6.151
69287SOL    HW2 9701  14.303   1.743   6.217
69288SOL     OW 9702  11.255  13.920   8.589
69288SOL    HW1 9703  11.342  13.930   8.627
69288SOL    HW2 9704  11.255  13.979   8.513
69289SOL     OW 9705  11.790  10.317  11.471
69289SOL    HW1 9706  11.725  10.267  11.421
69289SOL    HW2 9707  11.872  10.268  11.460
69290SOL     OW 9708   5.132   6.916  12.753
69290SOL    HW1 9709   5.132   6.948  12.663
69290SOL    HW2 9710   5.206   6.959  12.795
69291SOL     OW 9711   4.938  12.441  13.670
69291SOL    HW1 9712   4.919  12.348  13.661
69291SOL    HW2 9713   4.867  12.475  13.724
69292SOL     OW 9714   7.328   9.194   9.670
69292SOL    HW1 9715   7.336   9.289   9.662
69292SOL    HW2 9716   7.235   9.176   9.657
69293SOL     OW 9717   4.215   8.964  13.284
69293SOL    HW1 9718   4.187   9.046  13.244
69293SOL    HW2 9719   4.267   8.921  13.217
69294SOL     OW 9720   7.638   7.740   2.794
69294SOL    HW1 9721   7.631   7.731   2.699
69294SOL    HW2 9722   7.728   7.767   2.809
69295SOL     OW 9723  11.409   8.030   5.551
69295SOL    HW1 9724  11.444   8.071   5.630
69295SOL    HW2 9725  11.315   8.047   5.555
69296SOL     OW 9726   1.245   6.705   7.505
69296SOL    HW1 9727   1.198   6.781   7.537
69296SOL    HW2 9728   1.279   6.662   7.583
69297SOL     OW 9729   3.666  10.901   4.575
69297SOL    HW1 9730   3.693  10.845   4.502
69297SOL    HW2 9731   3.731  10.972   4.576
69298SOL     OW 9732  14.539   8.849   0.764
69298SOL    HW1 9733  14.549   8.800   0.682
69298SOL    HW2 9734  14.586   8.931   0.749
69299SOL     OW 9735  11.928   2.058   9.860
69299SOL    HW1 9736  11.928   1.967   9.888
69299SOL    HW2 9737  11.907   2.108   9.939
69300SOL     OW 9738   4.219   1.933   8.151
69300SOL    HW1 9739   4.202   1.854   8.099
69300SOL    HW2 9740   4.291   1.909   8.209
69301SOL     OW 9741   1.578   9.605   0.556
69301SOL    HW1 9742   1.606   9.657   0.632
69301SOL    HW2 9743   1.501   9.652   0.523
69302SOL     OW 9744   8.000  14.026   5.251
69302SOL    HW1 9745   7.937  14.045   5.181
69302SOL    HW2 9746   8.086  14.045   5.213
69303SOL     OW 9747  10.097  10.256   3.105
69303SOL    HW1 9748  10.171  10.273   3.164
69303SOL    HW2 9749  10.101  10.161   3.089
69304SOL     OW 9750  12.752   9.879   5.248
69304SOL    HW1 9751  12.742   9.946   5.180
69304SOL    HW2 9752  12.831   9.905   5.295
69305SOL     OW 9753   0.018   8.854   9.348
69305SOL    HW1 9754  14.808   8.866   9.305
69305SOL    HW2 9755   0.037   8.760   9.338
69306SOL     OW 9756   3.091   6.616   2.608
69306SOL    HW1 9757   3.020   6.620   2.543
69306SOL    HW2 9758   3.167   6.585   2.558
69307SOL     OW 9759  11.407   3.686   8.101
69307SOL    HW1 9760  11.390   3.732   8.018
69307SOL    HW2 9761  11.327   3.699   8.152
69308SOL     OW 9762   7.148  14.169  12.957
69308SOL    HW1 9763   7.107  14.253  12.980
69308SOL    HW2 9764   7.224  14.163  13.014
69309SOL     OW 9765   8.505   2.258  11.994
69309SOL    HW1 9766   8.467   2.196  11.932
69309SOL    HW2 9767   8.543   2.203  12.063
69310SOL     OW 9768   1.712   8.519  13.460
69310SOL    HW1 9769   1.684   8.595  13.511
69310SOL    HW2 9770   1.773   8.555  13.396
69311SOL     OW 9771  12.737   3.673  14.601
69311SOL    HW1 9772  12.805   3.725  14.644
69311SOL    HW2 9773  12.702   3.618  14.672
69312SOL     OW 9774  13.764   1.657   8.206
69312SOL    HW1 9775  13.788   1.564   8.209
69312SOL    HW2 9776  13.847   1.703   8.204
69313SOL     OW 9777   9.768   6.246   5.004
69313SOL    HW1 9778   9.830   6.225   5.074
69313SOL    HW2 9779   9.757   6.164   4.957
69314SOL     OW 9780  11.128  14.422   6.899
69314SOL    HW1 9781  11.068  14.359   6.857
69314SOL    HW2 9782  11.136  14.492   6.834
69315SOL     OW 9783   8.248   9.394   6.813
69315SOL    HW1 9784   8.153   9.386   6.808
69315SOL    HW2 9785   8.280   9.305   6.799
69316SOL     OW 9786  10.527   5.244  12.210
69316SOL    HW1 9787  10.559   5.181  12.145
69316SOL    HW2 9788  10.568   5.216  12.292
69317SOL     OW 9789   9.072  11.137   3.518
69317SOL    HW1 9790   9.118  11.060   3.550
69317SOL    HW2 9791   9.000  11.102   3.466
69318SOL     OW 9792   0.328  10.911   4.972
69318SOL    HW1 9793   0.412  10.931   4.931
69318SOL    HW2 9794   0.315  10.817   4.956
69319SOL     OW 9795   8.923   2.560  13.753
69319SOL    HW1 9796   8.937   2.653  13.773
69319SOL    HW2 9797   8.846   2.560  13.695
69320SOL     OW 9798  14.502  12.506   5.841
69320SOL    HW1 9799  14.525  12.569   5.909
69320SOL    HW2 9800  14.410  12.486   5.857
69321SOL     OW 9801   9.947  12.850  14.409
69321SOL    HW1 9802   9.995  12.774  14.440
69321SOL    HW2 9803   9.869  12.854  14.465
69322SOL     OW 9804   7.626  12.327   9.428
69322SOL    HW1 9805   7.720  12.329   9.409
69322SOL    HW2 9806   7.598  12.418   9.416
69323SOL     OW 9807   1.483  11.609  12.443
69323SOL    HW1 9808   1.527  11.631  12.360
69323SOL    HW2 9809   1.487  11.514  12.447
69324SOL     OW 9810   9.201   4.130  12.818
69324SOL    HW1 9811   9.172   4.096  12.903
69324SOL    HW2 9812   9.283   4.085  12.801
69325SOL     OW 9813   5.711   5.750   0.676
69325SOL    HW1 9814   5.634   5.800   0.646
69325SOL    HW2 9815   5.706   5.667   0.629
69326SOL     OW 9816  11.920   4.070   3.532
69326SOL    HW1 9817  11.891   4.147   3.581
69326SOL    HW2 9818  11.987   4.030   3.588
69327SOL     OW 9819   1.334   5.420   5.934
69327SOL    HW1 9820   1.354   5.341   5.984
69327SOL    HW2 9821   1.284   5.388   5.858
69328SOL     OW 9822   5.977   8.012   8.565
69328SOL    HW1 9823   6.038   8.072   8.522
69328SOL    HW2 9824   5.963   8.051   8.651
69329SOL     OW 9825  13.487  12.347   5.992
69329SOL    HW1 9826  13.411  12.354   6.049
69329SOL    HW2 9827  13.558  12.317   6.048
69330SOL     OW 9828   1.609   4.120  13.471
69330SOL    HW1 9829   1.687   4.133  13.526
69330SOL    HW2 9830   1.567   4.206  13.469
69331SOL     OW 9831  11.824   7.190  13.580
69331SOL    HW1 9832  11.767   7.172  13.505
69331SOL    HW2 9833  11.768   7.234  13.643
69332SOL     OW 9834   0.192   5.863  11.378
69332SOL    HW1 9835   0.131   5.838  11.309
69332SOL    HW2 9836   0.146   5.841  11.459
69333SOL     OW 9837   4.922  14.191   1.976
69333SOL    HW1 9838   4.913  14.193   2.071
69333SOL    HW2 9839   4.957  14.104   1.957
69334SOL     OW 9840   0.111  14.207   6.677
69334SOL    HW1 9841   0.170  14.148   6.723
69334SOL    HW2 9842   0.030  14.205   6.728
69335SOL     OW 9843   8.421  13.930   6.943
69335SOL    HW1 9844   8.425  13.990   6.869
69335SOL    HW2 9845   8.483  13.860   6.922
69336SOL     OW 9846   7.820   9.074   2.248
69336SOL    HW1 9847   7.759   9.054   2.177
69336SOL    HW2 9848   7.906   9.051   2.213
69337SOL     OW 9849  13.799   4.188   5.826
69337SOL    HW1 9850  13.845   4.164   5.906
69337SOL    HW2 9851  13.744   4.112   5.806
69338SOL     OW 9852  13.016   4.942   2.321
69338SOL    HW1 9853  13.023   4.847   2.322
69338SOL    HW2 9854  12.978   4.962   2.236
69339SOL     OW 9855   0.654  10.776  12.060
69339SOL    HW1 9856   0.630  10.760  12.151
69339SOL    HW2 9857   0.601  10.714  12.010
69340SOL     OW 9858   3.597   5.072   6.014
69340SOL    HW1 9859   3.686   5.098   5.990
69340SOL    HW2 9860   3.583   4.989   5.969
69341SOL     OW 9861  10.078   8.264  11.259
69341SOL    HW1 9862  10.067   8.334  11.194
69341SOL    HW2 9863  10.052   8.184  11.214
69342SOL     OW 9864   2.493   8.857   2.300
69342SOL    HW1 9865   2.567   8.802   2.325
69342SOL    HW2 9866   2.475   8.911   2.377
69343SOL     OW 9867  13.174   4.717  13.107
69343SOL    HW1 9868  13.244   4.653  13.113
69343SOL    HW2 9869  13.201   4.776  13.037
69344SOL     OW 9870  14.181   2.475   9.855
69344SOL    HW1 9871  14.178   2.387   9.892
69344SOL    HW2 9872  14.129   2.529   9.915
69345SOL     OW 9873   7.434   1.176   6.787
69345SOL    HW1 9874   7.469   1.087   6.779
69345SOL    HW2 9875   7.494   1.220   6.847
69346SOL     OW 9876   7.244  11.207   6.395
69346SOL    HW1 9877   7.253  11.152   6.473
69346SOL    HW2 9878   7.174  11.269   6.417
69347SOL     OW 9879   4.257   3.470   0.628
69347SOL    HW1 9880   4.267   3.500   0.719
69347SOL    HW2 9881   4.274   3.376   0.631
69348SOL     OW 9882   9.817  12.800   3.680
69348SOL    HW1 9883   9.872  12.851   3.738
69348SOL    HW2 9884   9.791  12.861   3.611
69349SOL     OW 9885   0.961   6.792  14.800
69349SOL    HW1 9886   1.021   6.726  14.764
69349SOL    HW2 9887   0.957   6.772   0.020
69350SOL     OW 9888   3.891   2.334   3.635
69350SOL    HW1 9889   3.883   2.240   3.647
69350SOL    HW2 9890   3.848   2.372   3.712
69351SOL     OW 9891  14.177   2.593  10.657
69351SOL    HW1 9892  14.198   2.520  10.714
69351SOL    HW2 9893  14.082   2.602  10.664
69352SOL     OW 9894   6.758  12.522   5.409
69352SOL    HW1 9895   6.694  12.586   5.377
69352SOL    HW2 9896   6.710  12.471   5.474
69353SOL     OW 9897   8.126   8.222   9.459
69353SOL    HW1 9898   8.107   8.161   9.388
69353SOL    HW2 9899   8.053   8.210   9.521
69354SOL     OW 9900   0.162   5.707   2.698
69354SOL    HW1 9901   0.148   5.775   2.631
69354SOL    HW2 9902   0.256   5.689   2.696
69355SOL     OW 9903   9.075   7.079   6.661
69355SOL    HW1 9904   9.021   7.146   6.620
69355SOL    HW2 9905   9.014   7.012   6.690
69356SOL     OW 9906   3.293   1.877  10.483
69356SOL    HW1 9907   3.356   1.811  10.454
69356SOL    HW2 9908   3.249   1.837  10.558
69357SOL     OW 9909   1.207  12.288   7.159
69357SOL    HW1 9910   1.176  12.363   7.108
69357SOL    HW2 9911   1.289  12.318   7.198
69358SOL     OW 9912   8.812   0.741   4.815
69358SOL    HW1 9913   8.833   0.823   4.771
69358SOL    HW2 9914   8.719   0.728   4.796
69359SOL     OW 9915   0.228   2.592   6.029
69359SOL    HW1 9916   0.172   2.638   6.093
69359SOL    HW2 9917   0.256   2.661   5.969
69360SOL     OW 9918  12.926  12.069   4.157
69360SOL    HW1 9919  12.960  11.999   4.213
69360SOL    HW2 9920  13.002  12.102   4.110
69361SOL     OW 9921   1.745   4.476   2.054
69361SOL    HW1 9922   1.758   4.552   2.111
69361SOL    HW2 9923   1.827   4.427   2.061
69362SOL     OW 9924   0.178   8.682   8.356
69362SOL    HW1 9925   0.126   8.610   8.392
69362SOL    HW2 9926   0.244   8.638   8.302
69363SOL     OW 9927   3.765   9.927  11.968
69363SOL    HW1 9928   3.764   9.939  11.873
69363SOL    HW2 9929   3.852   9.957  11.995
69364SOL     OW 9930   1.783   5.144   9.473
69364SOL    HW1 9931   1.729   5.172   9.399
69364SOL    HW2 9932   1.835   5.071   9.439
69365SOL     OW 9933  14.161   2.999   8.715
69365SOL    HW1 9934  14.113   3.055   8.655
69365SOL    HW2 9935  14.214   2.942   8.658
69366SOL     OW 9936   9.457   6.702   8.481
69366SOL    HW1 9937   9.387   6.654   8.438
69366SOL    HW2 9938   9.502   6.638   8.536
69367SOL     OW 9939   9.372  10.141   0.052
69367SOL    HW1 9940   9.339  10.098  14.846
69367SOL    HW2 9941   9.334  10.090   0.123
69368SOL     OW 9942  14.637   4.157   9.306
69368SOL    HW1 9943  14.705   4.102   9.265
69368SOL    HW2 9944  14.555   4.121   9.274
69369SOL     OW 9945   3.440   0.777   5.717
69369SOL    HW1 9946   3.408   0.718   5.648
69369SOL    HW2 9947   3.385   0.855   5.708
69370SOL     OW 9948   2.577   6.485   4.731
69370SOL    HW1 9949   2.544   6.574   4.720
69370SOL    HW2 9950   2.501   6.429   4.716
69371SOL     OW 9951  14.194  10.462   9.524
69371SOL    HW1 9952  14.126  10.480   9.589
69371SOL    HW2 9953  14.197  10.540   9.469
69372SOL     OW 9954   3.732   9.991  10.280
69372SOL    HW1 9955   3.808   9.960  10.232
69372SOL    HW2 9956   3.684  10.045  10.217
69373SOL     OW 9957   8.279  13.417   1.286
69373SOL    HW1 9958   8.369  13.385   1.292
69373SOL    HW2 9959   8.255  13.406   1.194
69374SOL     OW 9960   5.204   8.144   5.225
69374SOL    HW1 9961   5.195   8.237   5.247
69374SOL    HW2 9962   5.168   8.136   5.137
69375SOL     OW 9963   9.120   6.468   1.532
69375SOL    HW1 9964   9.214   6.458   1.519
69375SOL    HW2 9965   9.083   6.386   1.498
69376SOL     OW 9966   6.426   9.211   5.734
69376SOL    HW1 9967   6.360   9.276   5.709
69376SOL    HW2 9968   6.383   9.127   5.719
69377SOL     OW 9969   3.305   5.458   2.015
69377SOL    HW1 9970   3.353   5.379   1.993
69377SOL    HW2 9971   3.323   5.472   2.108
69378SOL     OW 9972  14.209   2.766   4.942
69378SOL    HW1 9973  14.189   2.830   4.874
69378SOL    HW2 9974  14.124   2.730   4.967
69379SOL     OW 9975  10.219   5.722   6.590
69379SOL    HW1 9976  10.139   5.672   6.605
69379SOL    HW2 9977  10.267   5.672   6.524
69380SOL     OW 9978   1.242   3.380   1.278
69380SOL    HW1 9979   1.230   3.330   1.359
69380SOL    HW2 9980   1.336   3.373   1.259
69381SOL     OW 9981   5.082   0.686   3.599
69381SOL    HW1 9982   4.999   0.639   3.589
69381SOL    HW2 9983   5.067   0.770   3.555
69382SOL     OW 9984  11.365   9.864   8.678
69382SOL    HW1 9985  11.368   9.768   8.677
69382SOL    HW2 9986  11.312   9.887   8.602
69383SOL     OW 9987   7.707   2.110   5.427
69383SOL    HW1 9988   7.614   2.106   5.407
69383SOL    HW2 9989   7.725   2.203   5.440
69384SOL     OW 9990   2.487  11.324   3.900
69384SOL    HW1 9991   2.415  11.261   3.895
69384SOL    HW2 9992   2.558  11.277   3.944
69385SOL     OW 9993   3.895  13.880   9.768
69385SOL    HW1 9994   3.945  13.808   9.729
69385SOL    HW2 9995   3.941  13.959   9.743
69386SOL     OW 9996  10.508   8.662   8.816
69386SOL    HW1 9997  10.456   8.585   8.841
69386SOL    HW2 9998  10.461   8.699   8.741
69387SOL     OW 9999   3.729  13.920   3.423
69387SOL    HW110000   3.751  13.865   3.498
69387SOL    HW210001   3.786  13.888   3.353
69388SOL     OW10002   4.014  13.893   0.381
69388SOL    HW110003   3.919  13.881   0.385
69388SOL    HW210004   4.044  13.880   0.471
69389SOL     OW10005  11.320   5.628   1.084
69389SOL    HW110006  11.395   5.675   1.047
69389SOL    HW210007  11.332   5.537   1.055
69390SOL     OW10008   6.331   9.328  11.219
69390SOL    HW110009   6.356   9.301  11.308
69390SOL    HW210010   6.400   9.387  11.192
69391SOL     OW10011   8.422   0.271  13.967
69391SOL    HW110012   8.399   0.255  14.058
69391SOL    HW210013   8.490   0.338  13.971
69392SOL     OW10014  11.329   0.825   8.101
69392SOL    HW110015  11.392   0.817   8.030
69392SOL    HW210016  11.351   0.909   8.142
69393SOL     OW10017   7.672  12.043   3.396
69393SOL    HW110018   7.583  12.020   3.420
69393SOL    HW210019   7.675  12.139   3.400
69394SOL     OW10020   5.692   6.486   3.517
69394SOL    HW110021   5.709   6.397   3.550
69394SOL    HW210022   5.672   6.474   3.425
69395SOL     OW10023  12.061   4.068   4.732
69395SOL    HW110024  11.981   4.015   4.738
69395SOL    HW210025  12.030   4.159   4.733
69396SOL     OW10026   2.571  10.683  11.188
69396SOL    HW110027   2.602  10.692  11.098
69396SOL    HW210028   2.481  10.717  11.186
69397SOL     OW10029   3.782   0.990  13.954
69397SOL    HW110030   3.806   0.915  14.009
69397SOL    HW210031   3.840   0.984  13.878
69398SOL     OW10032   2.260  12.398   1.368
69398SOL    HW110033   2.342  12.415   1.321
69398SOL    HW210034   2.285  12.398   1.461
69399SOL     OW10035   3.951   7.475  11.141
69399SOL    HW110036   3.970   7.430  11.058
69399SOL    HW210037   3.997   7.424  11.207
69400SOL     OW10038   4.212   9.597   6.159
69400SOL    HW110039   4.290   9.567   6.113
69400SOL    HW210040   4.244   9.665   6.218
69401SOL     OW10041  11.149   2.204   4.022
69401SOL    HW110042  11.105   2.136   3.971
69401SOL    HW210043  11.177   2.158   4.102
69402SOL     OW10044   9.646   9.541   2.726
69402SOL    HW110045   9.618   9.582   2.807
69402SOL    HW210046   9.599   9.458   2.723
69403SOL     OW10047  12.611  13.846   9.764
69403SOL    HW110048  12.592  13.752   9.765
69403SOL    HW210049  12.589  13.874   9.675
69404SOL     OW10050   1.922   3.635   7.793
69404SOL    HW110051   1.939   3.542   7.777
69404SOL    HW210052   1.948   3.649   7.884
69405SOL     OW10053   8.166   9.928  12.842
69405SOL    HW110054   8.233   9.891  12.785
69405SOL    HW210055   8.095   9.863  12.841
69406SOL     OW10056   6.829   4.713   6.829
69406SOL    HW110057   6.856   4.656   6.901
69406SOL    HW210058   6.866   4.798   6.851
69407SOL     OW10059   7.293  14.843   3.573
69407SOL    HW110060   7.249   0.054   3.580
69407SOL    HW210061   7.386  14.865   3.568
69408SOL     OW10062  11.717   0.773  10.820
69408SOL    HW110063  11.695   0.737  10.733
69408SOL    HW210064  11.812   0.766  10.825
69409SOL     OW10065  11.309   9.976   0.599
69409SOL    HW110066  11.300   9.903   0.538
69409SOL    HW210067  11.219  10.001   0.620
69410SOL     OW10068  11.766   6.147  12.677
69410SOL    HW110069  11.836   6.200  12.640
69410SOL    HW210070  11.689   6.167  12.624
69411SOL     OW10071   5.403  13.581  13.145
69411SOL    HW110072   5.421  13.675  13.141
69411SOL    HW210073   5.401  13.552  13.054
69412SOL     OW10074   2.360   1.426   9.502
69412SOL    HW110075   2.280   1.376   9.488
69412SOL    HW210076   2.405   1.380   9.573
69413SOL     OW10077  11.519   6.487  14.334
69413SOL    HW110078  11.544   6.553  14.398
69413SOL    HW210079  11.514   6.535  14.251
69414SOL     OW10080   9.579   9.500   9.557
69414SOL    HW110081   9.658   9.507   9.610
69414SOL    HW210082   9.508   9.492   9.621
69415SOL     OW10083  12.698   0.817   9.820
69415SOL    HW110084  12.718   0.791   9.730
69415SOL    HW210085  12.602   0.826   9.821
69416SOL     OW10086   5.564   9.472   1.593
69416SOL    HW110087   5.608   9.396   1.631
69416SOL    HW210088   5.517   9.436   1.517
69417SOL     OW10089   4.703   4.153   3.865
69417SOL    HW110090   4.724   4.231   3.814
69417SOL    HW210091   4.695   4.083   3.800
69418SOL     OW10092   7.976  13.633   2.366
69418SOL    HW110093   7.907  13.696   2.345
69418SOL    HW210094   7.934  13.548   2.359
69419SOL     OW10095  11.582  11.228   6.484
69419SOL    HW110096  11.487  11.238   6.490
69419SOL    HW210097  11.614  11.315   6.462
69420SOL     OW10098   8.331  14.159   8.957
69420SOL    HW110099   8.247  14.162   8.911
69420SOL    HW210100   8.335  14.242   9.004
69421SOL     OW10101   5.440  12.405   2.805
69421SOL    HW110102   5.396  12.327   2.772
69421SOL    HW210103   5.447  12.390   2.900
69422SOL     OW10104  11.568   2.693   8.486
69422SOL    HW110105  11.515   2.616   8.506
69422SOL    HW210106  11.505   2.763   8.472
69423SOL     OW10107   1.515   3.153   0.651
69423SOL    HW110108   1.530   3.232   0.704
69423SOL    HW210109   1.432   3.118   0.685
69424SOL     OW10110   3.394   0.428   7.015
69424SOL    HW110111   3.459   0.417   6.945
69424SOL    HW210112   3.360   0.340   7.031
69425SOL     OW10113   0.011  10.209  11.416
69425SOL    HW110114   0.063  10.165  11.349
69425SOL    HW210115   0.025  10.302  11.401
69426SOL     OW10116   4.250   4.250   8.643
69426SOL    HW110117   4.164   4.239   8.603
69426SOL    HW210118   4.311   4.236   8.571
69427SOL     OW10119   8.057  11.458  13.219
69427SOL    HW110120   8.125  11.485  13.158
69427SOL    HW210121   8.053  11.362  13.210
69428SOL     OW10122   7.195  11.277   3.592
69428SOL    HW110123   7.166  11.209   3.653
69428SOL    HW210124   7.189  11.359   3.641
69429SOL     OW10125   7.407  14.084   9.038
69429SOL    HW110126   7.435  14.155   8.980
69429SOL    HW210127   7.376  14.129   9.116
69430SOL     OW10128   4.790  13.813  12.459
69430SOL    HW110129   4.801  13.793  12.552
69430SOL    HW210130   4.696  13.804  12.443
69431SOL     OW10131   3.012   6.061  11.478
69431SOL    HW110132   2.976   6.133  11.426
69431SOL    HW210133   3.072   6.103  11.538
69432SOL     OW10134   9.179   4.956  14.363
69432SOL    HW110135   9.273   4.950  14.347
69432SOL    HW210136   9.139   4.923  14.283
69433SOL     OW10137   9.279   1.312   9.881
69433SOL    HW110138   9.191   1.286   9.908
69433SOL    HW210139   9.298   1.258   9.805
69434SOL     OW10140   2.958  12.498   7.542
69434SOL    HW110141   2.884  12.444   7.570
69434SOL    HW210142   2.991  12.537   7.623
69435SOL     OW10143   9.837   2.068   9.900
69435SOL    HW110144   9.869   2.127   9.968
69435SOL    HW210145   9.758   2.109   9.867
69436SOL     OW10146   6.717   2.671  13.985
69436SOL    HW110147   6.741   2.757  14.021
69436SOL    HW210148   6.658   2.691  13.913
69437SOL     OW10149  13.561  12.174   3.061
69437SOL    HW110150  13.646  12.156   3.102
69437SOL    HW210151  13.497  12.140   3.123
69438SOL     OW10152   3.695   1.825   7.681
69438SOL    HW110153   3.760   1.777   7.733
69438SOL    HW210154   3.681   1.906   7.730
69439SOL     OW10155   6.556   5.278  14.334
69439SOL    HW110156   6.586   5.293  14.244
69439SOL    HW210157   6.505   5.197  14.329
69440SOL     OW10158   4.607   1.811   4.822
69440SOL    HW110159   4.556   1.823   4.742
69440SOL    HW210160   4.681   1.756   4.796
69441SOL     OW10161  12.085   4.678   5.292
69441SOL    HW110162  12.162   4.706   5.342
69441SOL    HW210163  12.033   4.628   5.354
69442SOL     OW10164   0.279   8.088   7.093
69442SOL    HW110165   0.192   8.066   7.059
69442SOL    HW210166   0.337   8.080   7.017
69443SOL     OW10167  10.217  11.241   3.980
69443SOL    HW110168  10.159  11.289   4.039
69443SOL    HW210169  10.202  11.281   3.894
69444SOL     OW10170  11.043  10.970   4.010
69444SOL    HW110171  11.119  11.017   4.043
69444SOL    HW210172  10.982  10.968   4.084
69445SOL     OW10173   3.585   2.851  10.565
69445SOL    HW110174   3.603   2.783  10.630
69445SOL    HW210175   3.503   2.890  10.593
69446SOL     OW10176   6.663   1.939   9.479
69446SOL    HW110177   6.581   1.977   9.511
69446SOL    HW210178   6.668   1.853   9.522
69447SOL     OW10179   3.110   0.745   3.937
69447SOL    HW110180   3.168   0.732   4.012
69447SOL    HW210181   3.162   0.795   3.874
69448SOL     OW10182   6.351   3.164  10.926
69448SOL    HW110183   6.415   3.093  10.925
69448SOL    HW210184   6.300   3.151  10.845
69449SOL     OW10185   9.054   6.046   4.196
69449SOL    HW110186   9.147   6.057   4.177
69449SOL    HW210187   9.050   6.030   4.290
69450SOL     OW10188   6.067   6.849  10.448
69450SOL    HW110189   6.089   6.759  10.470
69450SOL    HW210190   6.039   6.846  10.356
69451SOL     OW10191   5.795   0.469  11.104
69451SOL    HW110192   5.818   0.490  11.194
69451SOL    HW210193   5.745   0.545  11.074
69452SOL     OW10194   1.659   7.806   5.631
69452SOL    HW110195   1.619   7.813   5.717
69452SOL    HW210196   1.651   7.893   5.593
69453SOL     OW10197   6.356   0.720   1.071
69453SOL    HW110198   6.393   0.640   1.033
69453SOL    HW210199   6.284   0.743   1.012
69454SOL     OW10200   7.323  10.078   7.506
69454SOL    HW110201   7.411  10.103   7.535
69454SOL    HW210202   7.338  10.012   7.439
69455SOL     OW10203   3.194   7.096  11.351
69455SOL    HW110204   3.265   7.135  11.402
69455SOL    HW210205   3.197   7.003  11.373
69456SOL     OW10206   6.277   9.577   0.515
69456SOL    HW110207   6.317   9.617   0.438
69456SOL    HW210208   6.349   9.537   0.563
69457SOL     OW10209   8.415   0.300  14.282
69457SOL    HW110210   8.503   0.264  14.273
69457SOL    HW210211   8.423   0.364  14.354
69458SOL     OW10212   3.070   7.799   1.881
69458SOL    HW110213   3.020   7.880   1.876
69458SOL    HW210214   3.138   7.809   1.814
69459SOL     OW10215  13.757  13.275  12.297
69459SOL    HW110216  13.806  13.322  12.229
69459SOL    HW210217  13.708  13.344  12.342
69460SOL     OW10218   8.848  10.619   4.899
69460SOL    HW110219   8.833  10.642   4.991
69460SOL    HW210220   8.852  10.524   4.898
69461SOL     OW10221   5.535   1.839   9.417
69461SOL    HW110222   5.459   1.792   9.453
69461SOL    HW210223   5.543   1.917   9.472
69462SOL     OW10224  11.456   5.786   1.310
69462SOL    HW110225  11.475   5.731   1.235
69462SOL    HW210226  11.481   5.874   1.282
69463SOL     OW10227   0.785   5.179   3.110
69463SOL    HW110228   0.727   5.124   3.162
69463SOL    HW210229   0.838   5.117   3.059
69464SOL     OW10230   0.860   2.561   7.433
69464SOL    HW110231   0.912   2.592   7.359
69464SOL    HW210232   0.787   2.513   7.393
69465SOL     OW10233   2.403   9.745   5.449
69465SOL    HW110234   2.327   9.768   5.502
69465SOL    HW210235   2.401   9.807   5.375
69466SOL     OW10236  11.963   5.417   5.636
69466SOL    HW110237  11.895   5.393   5.573
69466SOL    HW210238  11.959   5.513   5.640
69467SOL     OW10239   5.583   1.492   4.856
69467SOL    HW110240   5.577   1.577   4.813
69467SOL    HW210241   5.587   1.428   4.785
69468SOL     OW10242  12.005  14.699   5.946
69468SOL    HW110243  11.950  14.753   6.002
69468SOL    HW210244  12.093  14.733   5.959
69469SOL     OW10245   1.328   4.396  14.184
69469SOL    HW110246   1.250   4.433  14.143
69469SOL    HW210247   1.325   4.303  14.161
69470SOL     OW10248   6.527  12.250   4.573
69470SOL    HW110249   6.545  12.315   4.640
69470SOL    HW210250   6.584  12.176   4.595
69471SOL     OW10251   4.616   3.512   4.524
69471SOL    HW110252   4.650   3.589   4.479
69471SOL    HW210253   4.554   3.473   4.461
69472SOL     OW10254   9.908   9.370   3.885
69472SOL    HW110255   9.932   9.372   3.978
69472SOL    HW210256   9.984   9.333   3.841
69473SOL     OW10257   7.366   7.352  14.591
69473SOL    HW110258   7.343   7.441  14.564
69473SOL    HW210259   7.293   7.298  14.561
69474SOL     OW10260   0.570  10.034  12.531
69474SOL    HW110261   0.588   9.941  12.518
69474SOL    HW210262   0.547  10.066  12.443
69475SOL     OW10263   4.381   5.140   7.759
69475SOL    HW110264   4.453   5.107   7.706
69475SOL    HW210265   4.318   5.175   7.695
69476SOL     OW10266   4.655  14.780  10.355
69476SOL    HW110267   4.699  14.846  10.300
69476SOL    HW210268   4.702  14.784  10.438
69477SOL     OW10269  10.841  13.657   2.388
69477SOL    HW110270  10.817  13.642   2.480
69477SOL    HW210271  10.897  13.583   2.365
69478SOL     OW10272  10.374   5.641  10.486
69478SOL    HW110273  10.392   5.641  10.392
69478SOL    HW210274  10.408   5.725  10.517
69479SOL     OW10275   3.164   3.577  11.740
69479SOL    HW110276   3.216   3.535  11.672
69479SOL    HW210277   3.197   3.540  11.822
69480SOL     OW10278   1.174   4.468  13.750
69480SOL    HW110279   1.182   4.557  13.717
69480SOL    HW210280   1.087   4.439  13.723
69481SOL     OW10281   1.514   5.515   5.106
69481SOL    HW110282   1.480   5.531   5.019
69481SOL    HW210283   1.568   5.436   5.096
69482SOL     OW10284   7.802  11.959  13.062
69482SOL    HW110285   7.718  12.004  13.061
69482SOL    HW210286   7.783  11.873  13.101
69483SOL     OW10287   0.827   8.451   0.360
69483SOL    HW110288   0.847   8.450   0.266
69483SOL    HW210289   0.913   8.452   0.402
69484SOL     OW10290  11.226  12.973   7.052
69484SOL    HW110291  11.175  13.039   7.099
69484SOL    HW210292  11.170  12.896   7.052
69485SOL     OW10293   2.548   2.886   8.782
69485SOL    HW110294   2.591   2.890   8.868
69485SOL    HW210295   2.607   2.832   8.728
69486SOL     OW10296   4.662  11.732  12.209
69486SOL    HW110297   4.589  11.740  12.271
69486SOL    HW210298   4.620  11.716  12.125
69487SOL     OW10299  14.809  13.088  12.175
69487SOL    HW110300  14.831  13.042  12.094
69487SOL    HW210301  14.826  13.025  12.244
69488SOL     OW10302   5.013   6.459  10.872
69488SOL    HW110303   5.097   6.503  10.859
69488SOL    HW210304   4.952   6.531  10.893
69489SOL     OW10305  12.064   6.571   4.646
69489SOL    HW110306  12.116   6.507   4.696
69489SOL    HW210307  12.126   6.639   4.623
69490SOL     OW10308   9.253  10.342   3.098
69490SOL    HW110309   9.185  10.362   3.032
69490SOL    HW210310   9.209  10.284   3.160
69491SOL     OW10311   0.174  11.115   4.485
69491SOL    HW110312   0.138  11.187   4.433
69491SOL    HW210313   0.227  11.158   4.552
69492SOL     OW10314   3.587  13.108   7.635
69492SOL    HW110315   3.633  13.082   7.715
69492SOL    HW210316   3.613  13.042   7.570
69493SOL     OW10317  10.637  10.838   5.974
69493SOL    HW110318  10.660  10.875   6.059
69493SOL    HW210319  10.718  10.840   5.924
69494SOL     OW10320  14.390   1.544   9.812
69494SOL    HW110321  14.390   1.639   9.799
69494SOL    HW210322  14.471   1.515   9.770
69495SOL     OW10323   1.985  10.622   5.894
69495SOL    HW110324   1.916  10.627   5.960
69495SOL    HW210325   2.049  10.687   5.922
69496SOL     OW10326  11.962   8.985   9.077
69496SOL    HW110327  12.030   8.918   9.079
69496SOL    HW210328  11.928   8.988   9.167
69497SOL     OW10329   2.541   4.275   0.659
69497SOL    HW110330   2.483   4.344   0.627
69497SOL    HW210331   2.622   4.319   0.684
69498SOL     OW10332   5.445  12.272  11.199
69498SOL    HW110333   5.368  12.320  11.227
69498SOL    HW210334   5.497  12.261  11.279
69499SOL     OW10335   7.935   4.146   9.753
69499SOL    HW110336   7.884   4.085   9.699
69499SOL    HW210337   7.899   4.135   9.841
69500SOL     OW10338   4.026   1.166   5.848
69500SOL    HW110339   4.045   1.135   5.760
69500SOL    HW210340   3.933   1.189   5.847
69501SOL     OW10341   4.905  10.283   1.706
69501SOL    HW110342   4.980  10.275   1.765
69501SOL    HW210343   4.944  10.308   1.621
69502SOL     OW10344   3.508   5.306   3.577
69502SOL    HW110345   3.495   5.313   3.482
69502SOL    HW210346   3.598   5.275   3.586
69503SOL     OW10347   5.726   3.873   8.825
69503SOL    HW110348   5.736   3.795   8.879
69503SOL    HW210349   5.719   3.945   8.887
69504SOL     OW10350   6.247  11.770  10.603
69504SOL    HW110351   6.157  11.744  10.623
69504SOL    HW210352   6.285  11.693  10.560
69505SOL     OW10353   0.103   2.432   1.111
69505SOL    HW110354   0.057   2.349   1.101
69505SOL    HW210355   0.079   2.483   1.034
69506SOL     OW10356   1.556   1.630   4.922
69506SOL    HW110357   1.463   1.636   4.943
69506SOL    HW210358   1.558   1.600   4.831
69507SOL     OW10359   3.718   8.758   1.265
69507SOL    HW110360   3.681   8.797   1.185
69507SOL    HW210361   3.752   8.833   1.314
69508SOL     OW10362   9.578  14.840   8.548
69508SOL    HW110363   9.582  14.793   8.632
69508SOL    HW210364   9.525  14.784   8.492
69509SOL     OW10365   2.377   4.499   8.979
69509SOL    HW110366   2.432   4.544   8.915
69509SOL    HW210367   2.298   4.553   8.986
69510SOL     OW10368   7.398   2.833   4.620
69510SOL    HW110369   7.442   2.916   4.601
69510SOL    HW210370   7.383   2.835   4.715
69511SOL     OW10371   3.126  14.691   1.080
69511SOL    HW110372   3.115  14.632   1.154
69511SOL    HW210373   3.221  14.700   1.070
69512SOL     OW10374  14.372  10.957   9.087
69512SOL    HW110375  14.375  10.937   9.181
69512SOL    HW210376  14.366  11.053   9.084
69513SOL     OW10377   8.299  12.583  10.413
69513SOL    HW110378   8.306  12.490  10.433
69513SOL    HW210379   8.350  12.627  10.480
69514SOL     OW10380   3.653  13.937  10.339
69514SOL    HW110381   3.613  13.918  10.254
69514SOL    HW210382   3.667  14.031  10.338
69515SOL     OW10383   8.662   5.498   7.486
69515SOL    HW110384   8.675   5.592   7.498
69515SOL    HW210385   8.718   5.458   7.553
69516SOL     OW10386   6.077   0.947   7.037
69516SOL    HW110387   6.051   0.898   6.959
69516SOL    HW210388   6.152   0.900   7.073
69517SOL     OW10389   8.264  14.407   9.078
69517SOL    HW110390   8.235  14.466   9.008
69517SOL    HW210391   8.208  14.430   9.153
69518SOL     OW10392   2.546   3.082   3.122
69518SOL    HW110393   2.547   3.069   3.027
69518SOL    HW210394   2.471   3.139   3.138
69519SOL     OW10395   1.148   2.796   3.610
69519SOL    HW110396   1.067   2.805   3.561
69519SOL    HW210397   1.123   2.811   3.701
69520SOL     OW10398  12.096   6.481  13.674
69520SOL    HW110399  12.168   6.442  13.625
69520SOL    HW210400  12.030   6.502  13.608
69521SOL     OW10401   5.573   0.316   0.689
69521SOL    HW110402   5.601   0.357   0.770
69521SOL    HW210403   5.530   0.386   0.640
69522SOL     OW10404   3.448   7.943   3.741
69522SOL    HW110405   3.484   8.029   3.762
69522SOL    HW210406   3.499   7.882   3.795
69523SOL     OW10407   8.908   5.299  11.890
69523SOL    HW110408   8.991   5.347  11.886
69523SOL    HW210409   8.868   5.327  11.972
69524SOL     OW10410  13.076  14.294   1.099
69524SOL    HW110411  13.079  14.281   1.194
69524SOL    HW210412  12.988  14.329   1.083
69525SOL     OW10413  13.130  14.070   1.709
69525SOL    HW110414  13.042  14.035   1.706
69525SOL    HW210415  13.118  14.165   1.719
69526SOL     OW10416  14.204   0.036  10.041
69526SOL    HW110417  14.141   0.077  10.100
69526SOL    HW210418  14.151   0.005   9.968
69527SOL     OW10419   0.657   0.451   5.222
69527SOL    HW110420   0.738   0.487   5.187
69527SOL    HW210421   0.599   0.526   5.232
69528SOL     OW10422   6.694   2.480  10.045
69528SOL    HW110423   6.628   2.545  10.070
69528SOL    HW210424   6.713   2.500   9.953
69529SOL     OW10425   3.267   8.556   4.003
69529SOL    HW110426   3.216   8.515   3.933
69529SOL    HW210427   3.210   8.550   4.080
69530SOL     OW10428   6.472   2.585   3.610
69530SOL    HW110429   6.454   2.555   3.699
69530SOL    HW210430   6.507   2.508   3.566
69531SOL     OW10431  11.943   6.274   7.075
69531SOL    HW110432  11.931   6.362   7.038
69531SOL    HW210433  12.026   6.279   7.122
69532SOL     OW10434   8.487  13.057  11.259
69532SOL    HW110435   8.472  13.082  11.168
69532SOL    HW210436   8.432  13.116  11.310
69533SOL     OW10437   5.186  13.999   0.105
69533SOL    HW110438   5.132  13.924   0.079
69533SOL    HW210439   5.180  14.060   0.031
69534SOL     OW10440   4.060  13.570   8.249
69534SOL    HW110441   4.031  13.636   8.312
69534SOL    HW210442   4.149  13.549   8.275
69535SOL     OW10443   5.612   7.035   4.014
69535SOL    HW110444   5.606   7.090   3.936
69535SOL    HW210445   5.646   6.951   3.981
69536SOL     OW10446   1.010  11.668  13.568
69536SOL    HW110447   1.000  11.629  13.655
69536SOL    HW210448   1.053  11.599  13.516
69537SOL     OW10449   9.838  10.290   5.174
69537SOL    HW110450   9.777  10.226   5.136
69537SOL    HW210451   9.789  10.330   5.246
69538SOL     OW10452   9.382   5.416  10.484
69538SOL    HW110453   9.382   5.407  10.389
69538SOL    HW210454   9.362   5.328  10.517
69539SOL     OW10455   3.235   4.284   8.992
69539SOL    HW110456   3.199   4.362   8.950
69539SOL    HW210457   3.328   4.304   9.004
69540SOL     OW10458   0.784   7.995   3.345
69540SOL    HW110459   0.759   7.903   3.336
69540SOL    HW210460   0.732   8.027   3.418
69541SOL     OW10461   0.007  14.246  10.350
69541SOL    HW110462  14.810  14.309  10.344
69541SOL    HW210463  14.840  14.162  10.330
69542SOL     OW10464   2.604   2.730  10.274
69542SOL    HW110465   2.690   2.764  10.250
69542SOL    HW210466   2.555   2.727  10.192
69543SOL     OW10467   8.797   2.423  12.514
69543SOL    HW110468   8.845   2.402  12.594
69543SOL    HW210469   8.856   2.397  12.443
69544SOL     OW10470   9.683  11.238   7.018
69544SOL    HW110471   9.712  11.328   7.001
69544SOL    HW210472   9.615  11.222   6.952
69545SOL     OW10473  10.089   9.838  14.625
69545SOL    HW110474  10.108   9.921  14.669
69545SOL    HW210475  10.154   9.833  14.555
69546SOL     OW10476   7.289   8.738   4.680
69546SOL    HW110477   7.325   8.694   4.757
69546SOL    HW210478   7.346   8.815   4.668
69547SOL     OW10479  14.823   4.419   6.286
69547SOL    HW110480  14.764   4.456   6.220
69547SOL    HW210481  14.798   4.463   6.367
69548SOL     OW10482   5.729   0.736  11.199
69548SOL    HW110483   5.658   0.694  11.247
69548SOL    HW210484   5.775   0.789  11.265
69549SOL     OW10485   2.601   6.383   3.772
69549SOL    HW110486   2.535   6.407   3.706
69549SOL    HW210487   2.561   6.409   3.856
69550SOL     OW10488   7.442   0.833  11.535
69550SOL    HW110489   7.465   0.862  11.624
69550SOL    HW210490   7.384   0.758  11.550
69551SOL     OW10491   7.606  11.707   6.636
69551SOL    HW110492   7.680  11.646   6.629
69551SOL    HW210493   7.598  11.725   6.730
69552SOL     OW10494  10.374  13.445  10.563
69552SOL    HW110495  10.364  13.537  10.585
69552SOL    HW210496  10.320  13.433  10.485
69553SOL     OW10497   1.388   6.320   4.814
69553SOL    HW110498   1.400   6.305   4.908
69553SOL    HW210499   1.294   6.314   4.800
69554SOL     OW10500  11.097   2.221   7.593
69554SOL    HW110501  11.089   2.310   7.627
69554SOL    HW210502  11.088   2.165   7.670
69555SOL     OW10503   6.810   2.467   9.634
69555SOL    HW110504   6.777   2.546   9.591
69555SOL    HW210505   6.750   2.398   9.606
69556SOL     OW10506   0.958  10.953  10.152
69556SOL    HW110507   0.969  10.897  10.075
69556SOL    HW210508   0.871  10.992  10.142
69557SOL     OW10509   6.618   3.512  10.349
69557SOL    HW110510   6.603   3.487  10.258
69557SOL    HW210511   6.612   3.431  10.398
69558SOL     OW10512   0.197   0.356   9.565
69558SOL    HW110513   0.120   0.384   9.516
69558SOL    HW210514   0.247   0.436   9.582
69559SOL     OW10515  12.922   6.392  11.617
69559SOL    HW110516  12.978   6.377  11.541
69559SOL    HW210517  12.962   6.340  11.686
69560SOL     OW10518  14.788   5.256   0.251
69560SOL    HW110519  14.827   5.342   0.240
69560SOL    HW210520  14.811   5.231   0.341
69561SOL     OW10521   6.856  13.635  12.721
69561SOL    HW110522   6.883  13.549  12.689
69561SOL    HW210523   6.768  13.648  12.685
69562SOL     OW10524  10.781   5.457   7.787
69562SOL    HW110525  10.828   5.457   7.703
69562SOL    HW210526  10.812   5.378   7.832
69563SOL     OW10527   5.974   5.930  12.808
69563SOL    HW110528   6.028   5.925  12.729
69563SOL    HW210529   6.036   5.954  12.878
69564SOL     OW10530  13.474  13.895   6.678
69564SOL    HW110531  13.559  13.873   6.640
69564SOL    HW210532  13.480  13.989   6.697
69565SOL     OW10533   9.712   5.795  11.158
69565SOL    HW110534   9.660   5.799  11.078
69565SOL    HW210535   9.753   5.881  11.164
69566SOL     OW10536   5.939   3.562   2.986
69566SOL    HW110537   5.978   3.476   3.002
69566SOL    HW210538   5.951   3.610   3.067
69567SOL     OW10539  10.651   8.816   8.994
69567SOL    HW110540  10.596   8.778   8.925
69567SOL    HW210541  10.697   8.742   9.032
69568SOL     OW10542  14.857  12.675   1.463
69568SOL    HW110543  14.858  12.580   1.448
69568SOL    HW210544   0.074  12.702   1.452
69569SOL     OW10545   0.133  13.072  11.646
69569SOL    HW110546   0.161  13.163  11.640
69569SOL    HW210547   0.040  13.074  11.627
69570SOL     OW10548   6.170   8.950  14.844
69570SOL    HW110549   6.096   8.943  14.784
69570SOL    HW210550   6.247   8.945  14.788
69571SOL     OW10551  11.828  12.306   3.844
69571SOL    HW110552  11.823  12.213   3.819
69571SOL    HW210553  11.922  12.324   3.847
69572SOL     OW10554   1.657   9.359   5.511
69572SOL    HW110555   1.627   9.433   5.458
69572SOL    HW210556   1.597   9.288   5.489
69573SOL     OW10557   2.997   7.320   6.886
69573SOL    HW110558   2.931   7.326   6.955
69573SOL    HW210559   2.975   7.240   6.838
69574SOL     OW10560  11.524   4.714   8.604
69574SOL    HW110561  11.447   4.659   8.598
69574SOL    HW210562  11.592   4.656   8.639
69575SOL     OW10563  11.205  12.781   0.779
69575SOL    HW110564  11.197  12.875   0.765
69575SOL    HW210565  11.230  12.772   0.871
69576SOL     OW10566   3.367   2.428   7.314
69576SOL    HW110567   3.325   2.442   7.399
69576SOL    HW210568   3.419   2.507   7.300
69577SOL     OW10569  13.794   8.022  10.672
69577SOL    HW110570  13.769   7.986  10.757
69577SOL    HW210571  13.756   7.961  10.608
69578SOL     OW10572  10.375   2.941  12.084
69578SOL    HW110573  10.418   2.987  12.013
69578SOL    HW210574  10.400   2.849  12.072
69579SOL     OW10575  10.128   3.805   2.675
69579SOL    HW110576  10.150   3.778   2.764
69579SOL    HW210577  10.149   3.899   2.673
69580SOL     OW10578  13.454   3.606  12.673
69580SOL    HW110579  13.362   3.600  12.647
69580SOL    HW210580  13.473   3.700  12.675
69581SOL     OW10581   9.842   8.817   7.275
69581SOL    HW110582   9.814   8.757   7.344
69581SOL    HW210583   9.768   8.876   7.262
69582SOL     OW10584   5.705   1.123   1.227
69582SOL    HW110585   5.757   1.174   1.165
69582SOL    HW210586   5.631   1.180   1.250
69583SOL     OW10587  12.485   6.876   0.446
69583SOL    HW110588  12.511   6.831   0.366
69583SOL    HW210589  12.410   6.825   0.478
69584SOL     OW10590   8.163   2.367   8.083
69584SOL    HW110591   8.227   2.299   8.103
69584SOL    HW210592   8.155   2.417   8.164
69585SOL     OW10593   4.745   4.587   4.139
69585SOL    HW110594   4.712   4.590   4.049
69585SOL    HW210595   4.834   4.553   4.131
69586SOL     OW10596   7.417   8.418   1.726
69586SOL    HW110597   7.502   8.442   1.761
69586SOL    HW210598   7.437   8.367   1.647
69587SOL     OW10599  12.264   9.927   9.037
69587SOL    HW110600  12.234   9.914   9.127
69587SOL    HW210601  12.232  10.013   9.013
69588SOL     OW10602  11.602  13.191   9.403
69588SOL    HW110603  11.510  13.205   9.426
69588SOL    HW210604  11.648  13.190   9.487
69589SOL     OW10605   2.815   5.621  12.124
69589SOL    HW110606   2.841   5.530  12.141
69589SOL    HW210607   2.730   5.630  12.167
69590SOL     OW10608   8.578   5.190   1.825
69590SOL    HW110609   8.611   5.103   1.847
69590SOL    HW210610   8.483   5.178   1.815
69591SOL     OW10611   3.289   3.857  13.922
69591SOL    HW110612   3.347   3.911  13.976
69591SOL    HW210613   3.255   3.791  13.982
69592SOL     OW10614  11.649   2.009   1.048
69592SOL    HW110615  11.709   1.956   0.996
69592SOL    HW210616  11.573   1.953   1.062
69593SOL     OW10617  12.175  10.615  12.526
69593SOL    HW110618  12.241  10.646  12.588
69593SOL    HW210619  12.224  10.563  12.462
69594SOL     OW10620   6.653  11.036   1.811
69594SOL    HW110621   6.650  10.947   1.774
69594SOL    HW210622   6.745  11.048   1.834
69595SOL     OW10623   8.722   1.093  12.086
69595SOL    HW110624   8.798   1.084  12.029
69595SOL    HW210625   8.660   1.146  12.036
69596SOL     OW10626  12.271   1.098  13.321
69596SOL    HW110627  12.289   1.005  13.312
69596SOL    HW210628  12.285   1.117  13.414
69597SOL     OW10629   0.244  14.011  11.314
69597SOL    HW110630   0.256  13.919  11.337
69597SOL    HW210631   0.302  14.059  11.373
69598SOL     OW10632   8.502   4.955   6.069
69598SOL    HW110633   8.478   5.002   5.989
69598SOL    HW210634   8.500   5.022   6.137
69599SOL     OW10635  13.646   4.627   7.301
69599SOL    HW110636  13.733   4.605   7.334
69599SOL    HW210637  13.638   4.580   7.218
69600SOL     OW10638   7.391   7.000   8.038
69600SOL    HW110639   7.383   7.036   8.126
69600SOL    HW210640   7.342   7.061   7.983
69601SOL     OW10641   9.250   8.187   0.666
69601SOL    HW110642   9.256   8.265   0.722
69601SOL    HW210643   9.327   8.135   0.689
69602SOL     OW10644  10.763   5.864   5.355
69602SOL    HW110645  10.744   5.958   5.366
69602SOL    HW210646  10.733   5.843   5.267
69603SOL     OW10647   9.922  14.492  13.470
69603SOL    HW110648   9.956  14.560  13.529
69603SOL    HW210649   9.845  14.457  13.515
69604SOL     OW10650   8.325   5.887  11.790
69604SOL    HW110651   8.324   5.827  11.715
69604SOL    HW210652   8.417   5.894  11.814
69605SOL     OW10653   3.263  10.036   1.640
69605SOL    HW110654   3.260   9.984   1.721
69605SOL    HW210655   3.253   9.972   1.570
69606SOL     OW10656   6.072   4.266   3.292
69606SOL    HW110657   6.064   4.219   3.209
69606SOL    HW210658   5.993   4.319   3.297
69607SOL     OW10659  12.138   4.613   7.365
69607SOL    HW110660  12.103   4.525   7.368
69607SOL    HW210661  12.166   4.631   7.455
69608SOL     OW10662   9.404   9.957   6.920
69608SOL    HW110663   9.373   9.941   6.831
69608SOL    HW210664   9.425   9.870   6.954
69609SOL     OW10665   5.059   3.392  10.006
69609SOL    HW110666   5.137   3.383   9.952
69609SOL    HW210667   4.996   3.438   9.951
69610SOL     OW10668   2.189   8.397  10.195
69610SOL    HW110669   2.189   8.462  10.125
69610SOL    HW210670   2.111   8.344  10.179
69611SOL     OW10671  12.071   8.707   3.278
69611SOL    HW110672  11.976   8.722   3.280
69611SOL    HW210673  12.096   8.720   3.187
69612SOL     OW10674   2.924  13.094   1.891
69612SOL    HW110675   2.879  13.173   1.920
69612SOL    HW210676   2.987  13.124   1.825
69613SOL     OW10677   3.717  12.889  13.129
69613SOL    HW110678   3.695  12.798  13.145
69613SOL    HW210679   3.807  12.899  13.161
69614SOL     OW10680   0.178   9.427  14.398
69614SOL    HW110681   0.266   9.395  14.378
69614SOL    HW210682   0.121   9.383  14.334
69615SOL     OW10683   8.881   3.904  12.471
69615SOL    HW110684   8.940   3.874  12.539
69615SOL    HW210685   8.797   3.864  12.493
69616SOL     OW10686   9.620   8.267   1.617
69616SOL    HW110687   9.607   8.298   1.527
69616SOL    HW210688   9.647   8.176   1.607
69617SOL     OW10689   2.349   8.581  12.850
69617SOL    HW110690   2.299   8.641  12.904
69617SOL    HW210691   2.441   8.595  12.876
69618SOL     OW10692   8.419   4.866   3.711
69618SOL    HW110693   8.429   4.775   3.684
69618SOL    HW210694   8.480   4.914   3.656
69619SOL     OW10695  13.981  11.164   6.393
69619SOL    HW110696  14.059  11.113   6.413
69619SOL    HW210697  14.001  11.207   6.310
69620SOL     OW10698  12.023   9.874  14.329
69620SOL    HW110699  12.003   9.834  14.414
69620SOL    HW210700  12.052   9.962  14.350
69621SOL     OW10701   9.878   0.345  14.175
69621SOL    HW110702   9.815   0.324  14.244
69621SOL    HW210703   9.889   0.264  14.126
69622SOL     OW10704  13.181   0.173  11.947
69622SOL    HW110705  13.106   0.232  11.945
69622SOL    HW210706  13.235   0.205  12.020
69623SOL     OW10707   2.264   5.065  13.741
69623SOL    HW110708   2.255   5.158  13.761
69623SOL    HW210709   2.308   5.027  13.817
69624SOL     OW10710   9.740   4.273  13.415
69624SOL    HW110711   9.654   4.232  13.405
69624SOL    HW210712   9.747   4.293  13.508
69625SOL     OW10713   1.520   3.908  14.622
69625SOL    HW110714   1.569   3.990  14.631
69625SOL    HW210715   1.584   3.839  14.642
69626SOL     OW10716   9.174  12.739   1.302
69626SOL    HW110717   9.119  12.704   1.232
69626SOL    HW210718   9.125  12.722   1.382
69627SOL     OW10719   8.506  12.294   5.259
69627SOL    HW110720   8.569  12.285   5.187
69627SOL    HW210721   8.504  12.389   5.276
69628SOL     OW10722   4.867   1.615   2.810
69628SOL    HW110723   4.824   1.537   2.844
69628SOL    HW210724   4.871   1.600   2.715
69629SOL     OW10725   8.368  13.108  10.067
69629SOL    HW110726   8.327  13.036  10.019
69629SOL    HW210727   8.326  13.106  10.153
69630SOL     OW10728  12.226   6.379   0.023
69630SOL    HW110729  12.240   6.298   0.072
69630SOL    HW210730  12.280   6.369  14.819
69631SOL     OW10731   7.107   5.905  11.865
69631SOL    HW110732   7.027   5.863  11.834
69631SOL    HW210733   7.083   5.997  11.878
69632SOL     OW10734   3.224   3.832  12.309
69632SOL    HW110735   3.230   3.803  12.400
69632SOL    HW210736   3.252   3.924  12.312
69633SOL     OW10737   4.155   8.138   9.156
69633SOL    HW110738   4.191   8.060   9.198
69633SOL    HW210739   4.114   8.186   9.228
69634SOL     OW10740  13.677   6.500  11.753
69634SOL    HW110741  13.682   6.514  11.848
69634SOL    HW210742  13.704   6.409  11.741
69635SOL     OW10743  13.224  10.531  10.596
69635SOL    HW110744  13.299  10.539  10.537
69635SOL    HW210745  13.204  10.621  10.621
69636SOL     OW10746  13.758   0.982  12.124
69636SOL    HW110747  13.666   0.987  12.098
69636SOL    HW210748  13.799   1.058  12.082
69637SOL     OW10749   5.096   7.350   2.487
69637SOL    HW110750   5.186   7.347   2.521
69637SOL    HW210751   5.106   7.389   2.399
69638SOL     OW10752   5.181   5.328   1.311
69638SOL    HW110753   5.105   5.274   1.333
69638SOL    HW210754   5.196   5.311   1.218
69639SOL     OW10755   9.543   6.711   6.966
69639SOL    HW110756   9.555   6.802   6.991
69639SOL    HW210757   9.530   6.664   7.048
69640SOL     OW10758   2.234  12.098   6.750
69640SOL    HW110759   2.176  12.116   6.677
69640SOL    HW210760   2.231  12.002   6.759
69641SOL     OW10761  10.933   0.191   0.396
69641SOL    HW110762  10.855   0.214   0.345
69641SOL    HW210763  10.959   0.274   0.437
69642SOL     OW10764   3.158   6.491   5.894
69642SOL    HW110765   3.087   6.457   5.841
69642SOL    HW210766   3.116   6.551   5.956
69643SOL     OW10767   3.773   6.152   5.430
69643SOL    HW110768   3.861   6.159   5.467
69643SOL    HW210769   3.729   6.233   5.457
69644SOL     OW10770   6.892   3.701   9.222
69644SOL    HW110771   6.953   3.695   9.149
69644SOL    HW210772   6.887   3.612   9.257
69645SOL     OW10773  10.036   5.069   8.942
69645SOL    HW110774  10.020   5.110   8.857
69645SOL    HW210775  10.024   5.140   9.005
69646SOL     OW10776   1.972  10.925   1.861
69646SOL    HW110777   2.025  10.869   1.804
69646SOL    HW210778   1.921  10.979   1.800
69647SOL     OW10779   2.043   6.746   4.782
69647SOL    HW110780   1.991   6.667   4.800
69647SOL    HW210781   2.101   6.753   4.858
69648SOL     OW10782   0.063  12.766   0.157
69648SOL    HW110783   0.035  12.826   0.088
69648SOL    HW210784   0.013  12.686   0.141
69649SOL     OW10785  14.366  12.965   2.289
69649SOL    HW110786  14.380  13.020   2.366
69649SOL    HW210787  14.370  13.026   2.215
69650SOL     OW10788   4.075   3.906   5.975
69650SOL    HW110789   4.068   3.908   6.070
69650SOL    HW210790   4.133   3.979   5.954
69651SOL     OW10791  13.818   2.614   1.412
69651SOL    HW110792  13.744   2.557   1.394
69651SOL    HW210793  13.781   2.702   1.413
69652SOL     OW10794   4.038   3.919   9.780
69652SOL    HW110795   4.099   3.846   9.790
69652SOL    HW210796   4.072   3.987   9.839
69653SOL     OW10797   5.463   0.291  13.755
69653SOL    HW110798   5.518   0.264  13.828
69653SOL    HW210799   5.379   0.248  13.772
69654SOL     OW10800   1.876  10.508  10.578
69654SOL    HW110801   1.928  10.526  10.656
69654SOL    HW210802   1.856  10.415  10.584
69655SOL     OW10803   1.480  14.818  11.861
69655SOL    HW110804   1.420  14.823  11.935
69655SOL    HW210805   1.546   0.011  11.878
69656SOL     OW10806   8.565   3.169   7.334
69656SOL    HW110807   8.604   3.163   7.421
69656SOL    HW210808   8.549   3.078   7.309
69657SOL     OW10809   7.884  13.125   7.508
69657SOL    HW110810   7.898  13.219   7.497
69657SOL    HW210811   7.954  13.085   7.457
69658SOL     OW10812   4.195   0.130  12.698
69658SOL    HW110813   4.144   0.058  12.736
69658SOL    HW210814   4.240   0.169  12.772
69659SOL     OW10815   6.181   0.633   6.653
69659SOL    HW110816   6.088   0.608   6.657
69659SOL    HW210817   6.179   0.725   6.627
69660SOL     OW10818   2.202  11.213   5.006
69660SOL    HW110819   2.248  11.129   5.013
69660SOL    HW210820   2.110  11.190   4.993
69661SOL     OW10821   7.492   7.922   5.032
69661SOL    HW110822   7.540   8.004   5.019
69661SOL    HW210823   7.499   7.904   5.126
69662SOL     OW10824  11.056   6.564  11.601
69662SOL    HW110825  11.024   6.598  11.685
69662SOL    HW210826  11.146   6.597  11.594
69663SOL     OW10827   7.991   5.336   9.261
69663SOL    HW110828   8.010   5.383   9.342
69663SOL    HW210829   8.006   5.400   9.191
69664SOL     OW10830   7.654   4.097   2.173
69664SOL    HW110831   7.711   4.173   2.182
69664SOL    HW210832   7.711   4.022   2.191
69665SOL     OW10833  10.134  12.622   8.244
69665SOL    HW110834  10.215  12.661   8.210
69665SOL    HW210835  10.077  12.616   8.168
69666SOL     OW10836   2.282   4.771   0.418
69666SOL    HW110837   2.196   4.811   0.425
69666SOL    HW210838   2.294   4.725   0.501
69667SOL     OW10839   3.368  13.403  14.259
69667SOL    HW110840   3.309  13.423  14.186
69667SOL    HW210841   3.397  13.488  14.291
69668SOL     OW10842  14.493  10.441  14.023
69668SOL    HW110843  14.437  10.410  13.953
69668SOL    HW210844  14.521  10.362  14.069
69669SOL     OW10845  13.980   0.274   2.441
69669SOL    HW110846  13.988   0.180   2.451
69669SOL    HW210847  14.003   0.310   2.527
69670SOL     OW10848  14.518  10.044  13.833
69670SOL    HW110849  14.483  10.094  13.760
69670SOL    HW210850  14.448   9.982  13.856
69671SOL     OW10851   4.200  13.587   6.376
69671SOL    HW110852   4.135  13.614   6.441
69671SOL    HW210853   4.196  13.492   6.375
69672SOL     OW10854  12.376   0.923  10.011
69672SOL    HW110855  12.313   0.938  10.082
69672SOL    HW210856  12.345   0.844   9.968
69673SOL     OW10857  12.681   9.507   3.038
69673SOL    HW110858  12.724   9.445   2.979
69673SOL    HW210859  12.611   9.545   2.986
69674SOL     OW10860   3.865   0.002   8.733
69674SOL    HW110861   3.961   0.005   8.728
69674SOL    HW210862   3.847  14.857   8.825
69675SOL     OW10863   0.837   2.670   9.626
69675SOL    HW110864   0.905   2.720   9.583
69675SOL    HW210865   0.786   2.735   9.675
69676SOL     OW10866   6.136   5.739   5.713
69676SOL    HW110867   6.045   5.717   5.732
69676SOL    HW210868   6.155   5.692   5.632
69677SOL     OW10869   4.697   6.174  12.225
69677SOL    HW110870   4.754   6.174  12.148
69677SOL    HW210871   4.609   6.165  12.190
69678SOL     OW10872  13.128  13.330   3.452
69678SOL    HW110873  13.196  13.396   3.449
69678SOL    HW210874  13.132  13.296   3.542
69679SOL     OW10875   2.383  11.004  12.175
69679SOL    HW110876   2.324  10.942  12.132
69679SOL    HW210877   2.434  10.950  12.236
69680SOL     OW10878   5.444  12.513   2.141
69680SOL    HW110879   5.371  12.462   2.174
69680SOL    HW210880   5.423  12.529   2.049
69681SOL     OW10881  14.678   6.490   5.506
69681SOL    HW110882  14.710   6.504   5.595
69681SOL    HW210883  14.597   6.542   5.501
69682SOL     OW10884   1.611   6.151   9.087
69682SOL    HW110885   1.570   6.215   9.028
69682SOL    HW210886   1.546   6.136   9.155
69683SOL     OW10887  12.992   4.840  13.975
69683SOL    HW110888  13.038   4.897  13.914
69683SOL    HW210889  13.057   4.775  14.002
69684SOL     OW10890  12.835   9.282  13.374
69684SOL    HW110891  12.864   9.216  13.311
69684SOL    HW210892  12.778   9.234  13.434
69685SOL     OW10893   0.691   0.222   5.365
69685SOL    HW110894   0.672   0.309   5.329
69685SOL    HW210895   0.608   0.175   5.358
69686SOL     OW10896   5.086   5.540   3.218
69686SOL    HW110897   5.057   5.455   3.185
69686SOL    HW210898   5.040   5.551   3.301
69687SOL     OW10899   2.537   0.968   1.692
69687SOL    HW110900   2.502   1.051   1.726
69687SOL    HW210901   2.577   0.926   1.769
69688SOL     OW10902   6.994   1.346   8.556
69688SOL    HW110903   7.056   1.375   8.488
69688SOL    HW210904   7.040   1.276   8.602
69689SOL     OW10905  13.716   8.158   0.634
69689SOL    HW110906  13.794   8.191   0.588
69689SOL    HW210907  13.643   8.186   0.579
69690SOL     OW10908  14.021   6.508   8.182
69690SOL    HW110909  13.982   6.589   8.152
69690SOL    HW210910  13.947   6.456   8.215
69691SOL     OW10911   5.778   0.106   0.566
69691SOL    HW110912   5.746   0.015   0.557
69691SOL    HW210913   5.720   0.145   0.631
69692SOL     OW10914  11.471   3.751  13.056
69692SOL    HW110915  11.400   3.741  12.992
69692SOL    HW210916  11.425   3.757  13.140
69693SOL     OW10917   9.901   1.187   9.242
69693SOL    HW110918   9.826   1.235   9.278
69693SOL    HW210919   9.868   1.149   9.160
69694SOL     OW10920  14.295   9.552   5.952
69694SOL    HW110921  14.269   9.625   6.008
69694SOL    HW210922  14.374   9.583   5.907
69695SOL     OW10923   2.034   7.455   7.096
69695SOL    HW110924   2.008   7.384   7.155
69695SOL    HW210925   2.005   7.535   7.139
69696SOL     OW10926   0.552   7.015   2.708
69696SOL    HW110927   0.528   7.038   2.618
69696SOL    HW210928   0.498   7.072   2.763
69697SOL     OW10929   2.773   2.422   8.784
69697SOL    HW110930   2.791   2.438   8.692
69697SOL    HW210931   2.747   2.330   8.787
69698SOL     OW10932   3.840   2.474  14.157
69698SOL    HW110933   3.796   2.554  14.187
69698SOL    HW210934   3.879   2.497  14.073
69699SOL     OW10935   2.003  12.461   4.241
69699SOL    HW110936   2.014  12.387   4.182
69699SOL    HW210937   2.016  12.424   4.329
69700SOL     OW10938   3.891   3.017  14.774
69700SOL    HW110939   3.943   3.052  14.701
69700SOL    HW210940   3.825   2.963  14.732
69701SOL     OW10941  12.846  12.071   2.376
69701SOL    HW110942  12.785  12.002   2.349
69701SOL    HW210943  12.810  12.105   2.457
69702SOL     OW10944   4.448  12.220   1.765
69702SOL    HW110945   4.428  12.287   1.700
69702SOL    HW210946   4.392  12.241   1.839
69703SOL     OW10947  12.731  11.419  14.165
69703SOL    HW110948  12.728  11.345  14.225
69703SOL    HW210949  12.658  11.474  14.191
69704SOL     OW10950  14.667  13.800   4.124
69704SOL    HW110951  14.749  13.821   4.080
69704SOL    HW210952  14.601  13.854   4.079
69705SOL     OW10953   6.766  14.314   2.329
69705SOL    HW110954   6.704  14.366   2.380
69705SOL    HW210955   6.761  14.350   2.240
69706SOL     OW10956   8.725  11.642   3.794
69706SOL    HW110957   8.653  11.587   3.763
69706SOL    HW210958   8.790  11.579   3.826
69707SOL     OW10959   3.562   2.929   7.252
69707SOL    HW110960   3.505   2.973   7.189
69707SOL    HW210961   3.588   2.998   7.313
69708SOL     OW10962   6.246  14.302   6.426
69708SOL    HW110963   6.211  14.377   6.379
69708SOL    HW210964   6.206  14.307   6.513
69709SOL     OW10965   2.059   3.237   9.641
69709SOL    HW110966   2.046   3.331   9.630
69709SOL    HW210967   2.054   3.223   9.736
69710SOL     OW10968   7.791  13.046   2.924
69710SOL    HW110969   7.867  13.020   2.977
69710SOL    HW210970   7.737  12.967   2.920
69711SOL     OW10971   0.685   9.789  10.894
69711SOL    HW110972   0.677   9.710  10.839
69711SOL    HW210973   0.771   9.780  10.935
69712SOL     OW10974   7.256  13.426   6.652
69712SOL    HW110975   7.260  13.400   6.560
69712SOL    HW210976   7.339  13.471   6.668
69713SOL     OW10977  14.576   4.990  13.965
69713SOL    HW110978  14.530   4.910  13.938
69713SOL    HW210979  14.605   4.971  14.054
69714SOL     OW10980   4.005  14.548   9.639
69714SOL    HW110981   4.043  14.636   9.638
69714SOL    HW210982   3.967  14.538   9.552
69715SOL     OW10983   0.681   1.092  10.677
69715SOL    HW110984   0.772   1.088  10.648
69715SOL    HW210985   0.685   1.077  10.771
69716SOL     OW10986  10.560   7.818   5.409
69716SOL    HW110987  10.517   7.892   5.367
69716SOL    HW210988  10.500   7.745   5.396
69717SOL     OW10989   7.176   6.367   3.746
69717SOL    HW110990   7.095   6.331   3.710
69717SOL    HW210991   7.179   6.457   3.715
69718SOL     OW10992   8.554  10.754   0.765
69718SOL    HW110993   8.588  10.671   0.731
69718SOL    HW210994   8.623  10.787   0.822
69719SOL     OW10995  10.383   5.492  12.667
69719SOL    HW110996  10.304   5.539  12.641
69719SOL    HW210997  10.432   5.555  12.720
69720SOL     OW10998  13.463   7.335  13.832
69720SOL    HW110999  13.501   7.423  13.832
69720SOL    HW211000  13.486   7.299  13.746
69721SOL     OW11001  13.035  10.389   9.806
69721SOL    HW111002  13.090  10.464   9.781
69721SOL    HW211003  13.065  10.367   9.894
69722SOL     OW11004   1.495   6.995  13.313
69722SOL    HW111005   1.490   6.916  13.260
69722SOL    HW211006   1.571   7.042  13.280
69723SOL     OW11007  14.831   8.008   0.391
69723SOL    HW111008  14.836   8.010   0.486
69723SOL    HW211009   0.025   7.946   0.365
69724SOL     OW11010   7.548   3.314   4.444
69724SOL    HW111011   7.635   3.289   4.412
69724SOL    HW211012   7.554   3.301   4.539
69725SOL     OW11013  12.219  12.039   7.419
69725SOL    HW111014  12.243  12.132   7.413
69725SOL    HW211015  12.200  12.014   7.329
69726SOL     OW11016   7.850   1.585  13.810
69726SOL    HW111017   7.777   1.556  13.865
69726SOL    HW211018   7.809   1.640  13.743
69727SOL     OW11019   4.424  12.549  11.984
69727SOL    HW111020   4.464  12.512  11.905
69727SOL    HW211021   4.497  12.592  12.029
69728SOL     OW11022   9.754   7.399   1.114
69728SOL    HW111023   9.795   7.368   1.195
69728SOL    HW211024   9.660   7.393   1.132
69729SOL     OW11025  12.853  10.014   0.133
69729SOL    HW111026  12.865   9.978   0.221
69729SOL    HW211027  12.847   9.937   0.076
69730SOL     OW11028   9.252   7.446   4.421
69730SOL    HW111029   9.288   7.501   4.352
69730SOL    HW211030   9.313   7.457   4.494
69731SOL     OW11031   9.641   7.106  11.557
69731SOL    HW111032   9.559   7.057  11.552
69731SOL    HW211033   9.690   7.079  11.479
69732SOL     OW11034   8.741   3.612   4.509
69732SOL    HW111035   8.660   3.648   4.544
69732SOL    HW211036   8.745   3.645   4.419
69733SOL     OW11037   9.212   5.536   9.783
69733SOL    HW111038   9.234   5.586   9.704
69733SOL    HW211039   9.253   5.585   9.854
69734SOL     OW11040   2.610   8.977   3.835
69734SOL    HW111041   2.550   9.022   3.895
69734SOL    HW211042   2.560   8.903   3.803
69735SOL     OW11043   9.835   4.306  13.678
69735SOL    HW111044   9.778   4.256  13.737
69735SOL    HW211045   9.917   4.316  13.727
69736SOL     OW11046   9.916  13.788   5.227
69736SOL    HW111047   9.830  13.793   5.185
69736SOL    HW211048   9.963  13.864   5.194
69737SOL     OW11049  11.084   8.184   1.635
69737SOL    HW111050  11.041   8.120   1.691
69737SOL    HW211051  11.124   8.246   1.696
69738SOL     OW11052   4.844   1.245   8.482
69738SOL    HW111053   4.756   1.266   8.453
69738SOL    HW211054   4.894   1.233   8.401
69739SOL     OW11055  14.037  10.165   2.239
69739SOL    HW111056  14.130  10.185   2.230
69739SOL    HW211057  14.000  10.240   2.286
69740SOL     OW11058  12.548   7.749   7.593
69740SOL    HW111059  12.494   7.755   7.672
69740SOL    HW211060  12.638   7.745   7.627
69741SOL     OW11061  14.867   2.557  13.188
69741SOL    HW111062   0.027   2.623  13.248
69741SOL    HW211063   0.071   2.522  13.145
69742SOL     OW11064   9.584   5.437  13.949
69742SOL    HW111065   9.611   5.355  13.908
69742SOL    HW211066   9.506   5.464  13.899
69743SOL     OW11067   0.994   3.600   8.792
69743SOL    HW111068   0.932   3.661   8.832
69743SOL    HW211069   1.021   3.643   8.710
69744SOL     OW11070   5.635   0.697   6.909
69744SOL    HW111071   5.545   0.697   6.877
69744SOL    HW211072   5.680   0.634   6.853
69745SOL     OW11073   9.187   7.500  13.051
69745SOL    HW111074   9.228   7.470  13.132
69745SOL    HW211075   9.164   7.420  13.005
69746SOL     OW11076   4.575  14.149   0.311
69746SOL    HW111077   4.640  14.210   0.348
69746SOL    HW211078   4.548  14.094   0.385
69747SOL     OW11079   0.997   0.167   5.103
69747SOL    HW111080   1.092   0.163   5.097
69747SOL    HW211081   0.980   0.229   5.173
69748SOL     OW11082   0.598   5.175  12.173
69748SOL    HW111083   0.639   5.154  12.089
69748SOL    HW211084   0.629   5.263  12.194
69749SOL     OW11085  11.582   2.093  14.054
69749SOL    HW111086  11.493   2.063  14.068
69749SOL    HW211087  11.637   2.017  14.072
69750SOL     OW11088  13.447   7.214   9.209
69750SOL    HW111089  13.478   7.212   9.300
69750SOL    HW211090  13.486   7.138   9.168
69751SOL     OW11091   3.656   7.992   2.743
69751SOL    HW111092   3.595   7.951   2.682
69751SOL    HW211093   3.710   7.920   2.776
69752SOL     OW11094  11.499   8.996   0.803
69752SOL    HW111095  11.447   8.999   0.722
69752SOL    HW211096  11.448   8.941   0.862
69753SOL     OW11097   9.617   5.903  12.534
69753SOL    HW111098   9.568   5.832  12.494
69753SOL    HW211099   9.697   5.910  12.482
69754SOL     OW11100   7.249   3.031   7.206
69754SOL    HW111101   7.341   3.054   7.216
69754SOL    HW211102   7.206   3.072   7.281
69755SOL     OW11103  12.468   9.475  13.734
69755SOL    HW111104  12.396   9.522  13.776
69755SOL    HW211105  12.525   9.449  13.805
69756SOL     OW11106   7.422   1.107  13.773
69756SOL    HW111107   7.340   1.059  13.759
69756SOL    HW211108   7.399   1.177  13.835
69757SOL     OW11109   2.948  10.224   3.132
69757SOL    HW111110   2.991  10.141   3.111
69757SOL    HW211111   2.855  10.204   3.129
69758SOL     OW11112  13.812   1.762  14.737
69758SOL    HW111113  13.868   1.820  14.789
69758SOL    HW211114  13.866   1.684  14.724
69759SOL     OW11115   6.280   4.170  11.741
69759SOL    HW111116   6.222   4.225  11.794
69759SOL    HW211117   6.223   4.133  11.673
69760SOL     OW11118   7.306  12.156  12.764
69760SOL    HW111119   7.350  12.093  12.820
69760SOL    HW211120   7.368  12.228  12.753
69761SOL     OW11121   3.850   3.039   2.688
69761SOL    HW111122   3.832   2.967   2.627
69761SOL    HW211123   3.907   3.000   2.755
69762SOL     OW11124   6.936   9.249   5.210
69762SOL    HW111125   6.920   9.222   5.301
69762SOL    HW211126   6.946   9.344   5.214
69763SOL     OW11127   9.941  12.974   3.238
69763SOL    HW111128   9.894  12.911   3.184
69763SOL    HW211129  10.032  12.946   3.234
69764SOL     OW11130   0.647   0.545   7.564
69764SOL    HW111131   0.723   0.509   7.518
69764SOL    HW211132   0.572   0.518   7.512
69765SOL     OW11133  13.649   0.164   4.979
69765SOL    HW111134  13.693   0.218   5.044
69765SOL    HW211135  13.619   0.225   4.912
69766SOL     OW11136   7.156   2.203  10.891
69766SOL    HW111137   7.156   2.249  10.807
69766SOL    HW211138   7.162   2.273  10.956
69767SOL     OW11139  14.500   0.227  10.834
69767SOL    HW111140  14.445   0.269  10.900
69767SOL    HW211141  14.503   0.290  10.762
69768SOL     OW11142  10.348   1.661  14.460
69768SOL    HW111143  10.291   1.737  14.446
69768SOL    HW211144  10.415   1.691  14.521
69769SOL     OW11145   7.455   2.304  12.924
69769SOL    HW111146   7.398   2.242  12.971
69769SOL    HW211147   7.394   2.357  12.873
69770SOL     OW11148   1.730  12.601   8.120
69770SOL    HW111149   1.822  12.582   8.099
69770SOL    HW211150   1.712  12.548   8.198
69771SOL     OW11151   8.136  13.748   6.515
69771SOL    HW111152   8.197  13.821   6.508
69771SOL    HW211153   8.131  13.713   6.425
69772SOL     OW11154  11.878   3.010   2.535
69772SOL    HW111155  11.794   2.981   2.500
69772SOL    HW211156  11.937   2.937   2.520
69773SOL     OW11157  14.309  14.404   7.077
69773SOL    HW111158  14.283  14.474   7.137
69773SOL    HW211159  14.404  14.409   7.073
69774SOL     OW11160  11.273  11.389   7.612
69774SOL    HW111161  11.178  11.379   7.618
69774SOL    HW211162  11.301  11.401   7.702
69775SOL     OW11163   6.793   5.496   0.208
69775SOL    HW111164   6.733   5.426   0.236
69775SOL    HW211165   6.876   5.475   0.251
69776SOL     OW11166   3.942   1.951   3.295
69776SOL    HW111167   3.987   1.942   3.379
69776SOL    HW211168   3.975   2.033   3.259
69777SOL     OW11169   9.341   9.840   9.569
69777SOL    HW111170   9.432   9.853   9.544
69777SOL    HW211171   9.303   9.791   9.497
69778SOL     OW11172   3.037  11.151   5.502
69778SOL    HW111173   2.989  11.119   5.426
69778SOL    HW211174   3.028  11.246   5.497
69779SOL     OW11175   7.074   0.992  12.611
69779SOL    HW111176   7.089   0.912  12.561
69779SOL    HW211177   7.068   1.061  12.544
69780SOL     OW11178  13.243   9.867  12.038
69780SOL    HW111179  13.238   9.909  12.124
69780SOL    HW211180  13.256   9.774  12.057
69781SOL     OW11181   0.092  13.888   4.316
69781SOL    HW111182   0.055  13.883   4.404
69781SOL    HW211183   0.145  13.968   4.317
69782SOL     OW11184   5.267  11.902   7.452
69782SOL    HW111185   5.187  11.896   7.505
69782SOL    HW211186   5.295  11.811   7.441
69783SOL     OW11187   7.841   0.186  13.581
69783SOL    HW111188   7.772   0.252  13.580
69783SOL    HW211189   7.808   0.119  13.641
69784SOL     OW11190  13.309  11.510  11.691
69784SOL    HW111191  13.339  11.423  11.665
69784SOL    HW211192  13.253  11.495  11.767
69785SOL     OW11193  10.987   4.746  13.493
69785SOL    HW111194  10.921   4.794  13.443
69785SOL    HW211195  10.992   4.660  13.451
69786SOL     OW11196  14.239   5.587   6.992
69786SOL    HW111197  14.218   5.551   6.905
69786SOL    HW211198  14.153   5.603   7.032
69787SOL     OW11199  10.813  14.767   6.992
69787SOL    HW111200  10.726  14.800   6.970
69787SOL    HW211201  10.799  14.673   7.008
69788SOL     OW11202   4.202   9.692  14.413
69788SOL    HW111203   4.282   9.692  14.362
69788SOL    HW211204   4.137   9.651  14.356
69789SOL     OW11205   9.208  14.577   6.356
69789SOL    HW111206   9.136  14.531   6.400
69789SOL    HW211207   9.284  14.520   6.369
69790SOL     OW11208   0.744   0.238  12.682
69790SOL    HW111209   0.742   0.269  12.591
69790SOL    HW211210   0.677   0.289  12.727
69791SOL     OW11211   6.738   1.327   8.684
69791SOL    HW111212   6.676   1.386   8.640
69791SOL    HW211213   6.822   1.345   8.644
69792SOL     OW11214   1.289   8.775  10.985
69792SOL    HW111215   1.259   8.766  10.895
69792SOL    HW211216   1.306   8.869  10.996
69793SOL     OW11217   1.925   3.791   7.161
69793SOL    HW111218   1.902   3.767   7.250
69793SOL    HW211219   1.864   3.861   7.138
69794SOL     OW11220   0.429   9.890   2.244
69794SOL    HW111221   0.456   9.980   2.223
69794SOL    HW211222   0.483   9.835   2.187
69795SOL     OW11223   4.741   5.509   4.369
69795SOL    HW111224   4.824   5.555   4.383
69795SOL    HW211225   4.731   5.505   4.274
69796SOL     OW11226   8.774  10.394  11.943
69796SOL    HW111227   8.750  10.464  12.004
69796SOL    HW211228   8.744  10.314  11.986
69797SOL     OW11229   2.852   2.473  11.228
69797SOL    HW111230   2.795   2.550  11.228
69797SOL    HW211231   2.822   2.421  11.303
69798SOL     OW11232  11.674   4.244  12.136
69798SOL    HW111233  11.682   4.193  12.217
69798SOL    HW211234  11.599   4.301  12.151
69799SOL     OW11235   7.791   6.831   6.098
69799SOL    HW111236   7.843   6.814   6.176
69799SOL    HW211237   7.717   6.883   6.129
69800SOL     OW11238   3.371  10.892   6.020
69800SOL    HW111239   3.416  10.847   5.949
69800SOL    HW211240   3.416  10.976   6.028
69801SOL     OW11241   8.438  14.666   7.790
69801SOL    HW111242   8.501  14.714   7.844
69801SOL    HW211243   8.419  14.587   7.841
69802SOL     OW11244   9.021  10.454   4.680
69802SOL    HW111245   8.934  10.467   4.717
69802SOL    HW211246   9.041  10.537   4.636
69803SOL     OW11247  13.338   2.166   4.768
69803SOL    HW111248  13.354   2.235   4.703
69803SOL    HW211249  13.327   2.214   4.850
69804SOL     OW11250   6.645   1.412  14.320
69804SOL    HW111251   6.739   1.422  14.304
69804SOL    HW211252   6.639   1.348  14.391
69805SOL     OW11253   3.496   8.038   8.293
69805SOL    HW111254   3.479   8.051   8.387
69805SOL    HW211255   3.429   8.090   8.249
69806SOL     OW11256   7.701  10.142   7.919
69806SOL    HW111257   7.679  10.162   7.828
69806SOL    HW211258   7.690  10.226   7.964
69807SOL     OW11259   1.614   1.045   7.059
69807SOL    HW111260   1.586   1.107   7.126
69807SOL    HW211261   1.618   0.961   7.105
69808SOL     OW11262  11.041   4.974  14.155
69808SOL    HW111263  11.068   4.934  14.072
69808SOL    HW211264  11.018   4.900  14.210
69809SOL     OW11265   3.712   8.655   9.847
69809SOL    HW111266   3.640   8.646   9.785
69809SOL    HW211267   3.730   8.565   9.876
69810SOL     OW11268   5.766   0.941   1.827
69810SOL    HW111269   5.709   0.884   1.879
69810SOL    HW211270   5.838   0.884   1.799
69811SOL     OW11271   1.477   2.122   5.990
69811SOL    HW111272   1.407   2.171   6.035
69811SOL    HW211273   1.444   2.109   5.902
69812SOL     OW11274   3.586  13.335   7.478
69812SOL    HW111275   3.552  13.290   7.555
69812SOL    HW211276   3.531  13.305   7.406
69813SOL     OW11277  13.860   0.312  12.718
69813SOL    HW111278  13.947   0.280  12.740
69813SOL    HW211279  13.818   0.328  12.802
69814SOL     OW11280   2.848   3.451   1.281
69814SOL    HW111281   2.832   3.484   1.369
69814SOL    HW211282   2.850   3.529   1.226
69815SOL     OW11283   1.907   9.180   7.084
69815SOL    HW111284   1.980   9.121   7.101
69815SOL    HW211285   1.948   9.265   7.068
69816SOL     OW11286  14.118   4.206   3.590
69816SOL    HW111287  14.133   4.230   3.499
69816SOL    HW211288  14.184   4.139   3.609
69817SOL     OW11289   7.586   6.622   9.307
69817SOL    HW111290   7.616   6.551   9.364
69817SOL    HW211291   7.573   6.696   9.366
69818SOL     OW11292   9.025  11.037  11.384
69818SOL    HW111293   9.015  11.131  11.400
69818SOL    HW211294   8.938  11.008  11.359
69819SOL     OW11295   6.240   5.837   8.054
69819SOL    HW111296   6.187   5.790   7.989
69819SOL    HW211297   6.197   5.818   8.137
69820SOL     OW11298   9.574   3.055  13.943
69820SOL    HW111299   9.589   2.967  13.907
69820SOL    HW211300   9.503   3.043  14.006
69821SOL     OW11301  12.044   2.315  12.251
69821SOL    HW111302  12.036   2.260  12.329
69821SOL    HW211303  12.081   2.397  12.284
69822SOL     OW11304  10.528  14.423   6.455
69822SOL    HW111305  10.589  14.484   6.498
69822SOL    HW211306  10.442  14.458   6.476
69823SOL     OW11307   0.780   1.972   3.396
69823SOL    HW111308   0.737   1.932   3.321
69823SOL    HW211309   0.808   2.058   3.364
69824SOL     OW11310   2.016   2.912   2.875
69824SOL    HW111311   1.948   2.891   2.811
69824SOL    HW211312   2.086   2.848   2.856
69825SOL     OW11313   9.851  10.775   6.341
69825SOL    HW111314   9.878  10.701   6.394
69825SOL    HW211315   9.774  10.810   6.386
69826SOL     OW11316   3.354   7.059   6.672
69826SOL    HW111317   3.386   7.147   6.650
69826SOL    HW211318   3.415   7.027   6.738
69827SOL     OW11319   4.673   3.384   6.064
69827SOL    HW111320   4.697   3.414   5.977
69827SOL    HW211321   4.756   3.380   6.112
69828SOL     OW11322   0.961   4.301   5.376
69828SOL    HW111323   0.973   4.327   5.467
69828SOL    HW211324   1.042   4.328   5.332
69829SOL     OW11325   1.305   5.031   9.115
69829SOL    HW111326   1.228   5.088   9.115
69829SOL    HW211327   1.323   5.015   9.022
69830SOL     OW11328   2.646  10.232  10.704
69830SOL    HW111329   2.584  10.290  10.749
69830SOL    HW211330   2.638  10.255  10.612
69831SOL     OW11331   0.135  13.848   2.272
69831SOL    HW111332   0.124  13.754   2.284
69831SOL    HW211333   0.219  13.857   2.226
69832SOL     OW11334   4.218   2.666   3.820
69832SOL    HW111335   4.206   2.759   3.842
69832SOL    HW211336   4.132   2.627   3.833
69833SOL     OW11337  12.637   1.563  11.950
69833SOL    HW111338  12.713   1.614  11.921
69833SOL    HW211339  12.640   1.484  11.896
69834SOL     OW11340   0.698   9.487   0.351
69834SOL    HW111341   0.721   9.479   0.443
69834SOL    HW211342   0.743   9.413   0.309
69835SOL     OW11343   5.128   5.203   1.727
69835SOL    HW111344   5.197   5.187   1.663
69835SOL    HW211345   5.066   5.260   1.681
69836SOL     OW11346   5.012   9.819  13.410
69836SOL    HW111347   5.044   9.845  13.497
69836SOL    HW211348   4.922   9.852  13.406
69837SOL     OW11349   2.548   4.949  10.130
69837SOL    HW111350   2.626   4.997  10.101
69837SOL    HW211351   2.564   4.859  10.102
69838SOL     OW11352   6.748   0.490   8.108
69838SOL    HW111353   6.817   0.435   8.071
69838SOL    HW211354   6.737   0.459   8.197
69839SOL     OW11355  13.140   9.972   0.287
69839SOL    HW111356  13.224   9.955   0.331
69839SOL    HW211357  13.159   9.960   0.194
69840SOL     OW11358  12.573   7.896  13.810
69840SOL    HW111359  12.525   7.975  13.833
69840SOL    HW211360  12.506   7.828  13.801
69841SOL     OW11361   1.049  11.488  12.860
69841SOL    HW111362   1.073  11.407  12.817
69841SOL    HW211363   1.119  11.504  12.923
69842SOL     OW11364  13.883   6.049  13.003
69842SOL    HW111365  13.975   6.045  12.976
69842SOL    HW211366  13.843   6.109  12.941
69843SOL     OW11367   1.019   6.957   7.397
69843SOL    HW111368   1.030   6.898   7.323
69843SOL    HW211369   1.073   7.034   7.375
69844SOL     OW11370   5.368   1.988  14.692
69844SOL    HW111371   5.423   1.978  14.614
69844SOL    HW211372   5.376   2.081  14.715
69845SOL     OW11373   0.270   0.873  14.835
69845SOL    HW111374   0.206   0.812  14.871
69845SOL    HW211375   0.217   0.938  14.788
69846SOL     OW11376   8.577   2.014  13.258
69846SOL    HW111377   8.485   2.036  13.245
69846SOL    HW211378   8.624   2.095  13.242
69847SOL     OW11379  12.607   7.839   2.904
69847SOL    HW111380  12.634   7.918   2.857
69847SOL    HW211381  12.539   7.800   2.850
69848SOL     OW11382   3.445   8.948   0.140
69848SOL    HW111383   3.403   8.865   0.163
69848SOL    HW211384   3.408   9.012   0.201
69849SOL     OW11385   3.578  12.026   1.289
69849SOL    HW111386   3.667  12.057   1.308
69849SOL    HW211387   3.580  12.000   1.197
69850SOL     OW11388   4.269   2.291   2.365
69850SOL    HW111389   4.223   2.245   2.295
69850SOL    HW211390   4.280   2.380   2.333
69851SOL     OW11391   5.909   5.729   8.075
69851SOL    HW111392   5.898   5.635   8.064
69851SOL    HW211393   5.852   5.753   8.147
69852SOL     OW11394   7.220   8.246  14.802
69852SOL    HW111395   7.151   8.181  14.794
69852SOL    HW211396   7.177   8.329  14.778
69853SOL     OW11397  11.168   8.583  12.182
69853SOL    HW111398  11.193   8.501  12.141
69853SOL    HW211399  11.251   8.626  12.202
69854SOL     OW11400   1.489   5.343  12.259
69854SOL    HW111401   1.482   5.248  12.269
69854SOL    HW211402   1.425   5.379  12.321
69855SOL     OW11403  13.097  11.929  13.246
69855SOL    HW111404  13.092  11.894  13.157
69855SOL    HW211405  13.053  11.863  13.300
69856SOL     OW11406  13.246   6.172   0.977
69856SOL    HW111407  13.279   6.221   0.902
69856SOL    HW211408  13.233   6.237   1.045
69857SOL     OW11409  14.551   9.429   3.909
69857SOL    HW111410  14.618   9.401   3.847
69857SOL    HW211411  14.567   9.377   3.988
69858SOL     OW11412   6.115   0.987  10.056
69858SOL    HW111413   6.040   1.044  10.072
69858SOL    HW211414   6.089   0.903  10.093
69859SOL     OW11415  10.981   7.140   8.622
69859SOL    HW111416  10.903   7.094   8.653
69859SOL    HW211417  11.046   7.071   8.606
69860SOL     OW11418   1.433   2.816   9.245
69860SOL    HW111419   1.467   2.826   9.334
69860SOL    HW211420   1.392   2.900   9.225
69861SOL     OW11421   6.862   9.164   0.206
69861SOL    HW111422   6.847   9.199   0.294
69861SOL    HW211423   6.778   9.172   0.162
69862SOL     OW11424   8.491   5.703   3.080
69862SOL    HW111425   8.399   5.678   3.068
69862SOL    HW211426   8.513   5.671   3.168
69863SOL     OW11427   7.404  13.115   0.025
69863SOL    HW111428   7.365  13.194   0.062
69863SOL    HW211429   7.494  13.139   0.005
69864SOL     OW11430   5.883   6.298   2.993
69864SOL    HW111431   5.942   6.230   2.961
69864SOL    HW211432   5.937   6.350   3.054
69865SOL     OW11433   4.721  13.868   7.196
69865SOL    HW111434   4.809  13.847   7.164
69865SOL    HW211435   4.669  13.880   7.116
69866SOL     OW11436   7.022   3.182  13.733
69866SOL    HW111437   6.979   3.265  13.750
69866SOL    HW211438   6.955   3.129  13.689
69867SOL     OW11439   2.184  12.815   8.467
69867SOL    HW111440   2.112  12.801   8.405
69867SOL    HW211441   2.239  12.880   8.424
69868SOL     OW11442   1.628   4.637   4.466
69868SOL    HW111443   1.712   4.677   4.489
69868SOL    HW211444   1.593   4.693   4.396
69869SOL     OW11445   4.176  10.561   2.231
69869SOL    HW111446   4.255  10.508   2.240
69869SOL    HW211447   4.139  10.535   2.147
69870SOL     OW11448   8.676   7.074   6.975
69870SOL    HW111449   8.640   7.113   6.896
69870SOL    HW211450   8.701   7.149   7.030
69871SOL     OW11451  11.248  12.678  13.073
69871SOL    HW111452  11.302  12.754  13.094
69871SOL    HW211453  11.254  12.669  12.978
69872SOL     OW11454   8.738   6.202   1.808
69872SOL    HW111455   8.743   6.146   1.731
69872SOL    HW211456   8.773   6.148   1.879
69873SOL     OW11457  14.779   1.236   6.465
69873SOL    HW111458  14.695   1.237   6.420
69873SOL    HW211459  14.816   1.323   6.448
69874SOL     OW11460   1.094   5.160   0.986
69874SOL    HW111461   1.037   5.104   0.934
69874SOL    HW211462   1.042   5.239   1.003
69875SOL     OW11463   3.639   2.649   3.713
69875SOL    HW111464   3.686   2.731   3.727
69875SOL    HW211465   3.705   2.581   3.726
69876SOL     OW11466  10.149  11.399   7.342
69876SOL    HW111467  10.116  11.416   7.254
69876SOL    HW211468  10.221  11.460   7.354
69877SOL     OW11469   6.465   5.159   3.052
69877SOL    HW111470   6.528   5.097   3.089
69877SOL    HW211471   6.434   5.117   2.972
69878SOL     OW11472   3.371   6.267   3.035
69878SOL    HW111473   3.326   6.202   3.090
69878SOL    HW211474   3.364   6.232   2.946
69879SOL     OW11475  12.335   8.103   3.139
69879SOL    HW111476  12.388   8.024   3.153
69879SOL    HW211477  12.389   8.175   3.170
69880SOL     OW11478  12.360   0.286   6.965
69880SOL    HW111479  12.332   0.357   7.024
69880SOL    HW211480  12.409   0.227   7.022
69881SOL     OW11481   2.287  13.357   6.394
69881SOL    HW111482   2.323  13.425   6.337
69881SOL    HW211483   2.270  13.283   6.336
69882SOL     OW11484  14.786   1.152   9.952
69882SOL    HW111485  14.835   1.230   9.979
69882SOL    HW211486  14.804   1.143   9.859
69883SOL     OW11487   0.809   3.782   3.926
69883SOL    HW111488   0.729   3.769   3.876
69883SOL    HW211489   0.784   3.765   4.017
69884SOL     OW11490  13.132   4.724   4.157
69884SOL    HW111491  13.227   4.715   4.162
69884SOL    HW211492  13.107   4.675   4.079
69885SOL     OW11493  10.744   8.393  11.396
69885SOL    HW111494  10.757   8.363  11.486
69885SOL    HW211495  10.713   8.483  11.406
69886SOL     OW11496   7.621   2.627   1.655
69886SOL    HW111497   7.683   2.584   1.715
69886SOL    HW211498   7.671   2.641   1.575
69887SOL     OW11499  10.488   3.939   6.583
69887SOL    HW111500  10.525   3.931   6.671
69887SOL    HW211501  10.562   3.970   6.529
69888SOL     OW11502   3.162   9.290   8.043
69888SOL    HW111503   3.255   9.287   8.022
69888SOL    HW211504   3.153   9.240   8.124
69889SOL     OW11505  13.275   6.724   9.262
69889SOL    HW111506  13.206   6.668   9.297
69889SOL    HW211507  13.238   6.813   9.267
69890SOL     OW11508  14.102  13.936  12.002
69890SOL    HW111509  14.064  14.011  12.047
69890SOL    HW211510  14.100  13.866  12.067
69891SOL     OW11511   0.651  10.168  14.170
69891SOL    HW111512   0.668  10.173  14.076
69891SOL    HW211513   0.577  10.109  14.178
69892SOL     OW11514   8.981   3.571  11.248
69892SOL    HW111515   8.987   3.660  11.284
69892SOL    HW211516   9.071   3.537  11.253
69893SOL     OW11517   8.491   8.929  14.132
69893SOL    HW111518   8.518   9.017  14.105
69893SOL    HW211519   8.430   8.944  14.204
69894SOL     OW11520   6.392   2.708   8.977
69894SOL    HW111521   6.328   2.718   9.047
69894SOL    HW211522   6.363   2.630   8.929
69895SOL     OW11523   2.338   9.393  11.761
69895SOL    HW111524   2.245   9.371  11.765
69895SOL    HW211525   2.383   9.310  11.779
69896SOL     OW11526   5.428   3.730   7.629
69896SOL    HW111527   5.457   3.663   7.567
69896SOL    HW211528   5.500   3.736   7.692
69897SOL     OW11529  11.900   8.874   9.782
69897SOL    HW111530  11.838   8.910   9.846
69897SOL    HW211531  11.845   8.841   9.711
69898SOL     OW11532   7.155   7.889  13.862
69898SOL    HW111533   7.182   7.885  13.770
69898SOL    HW211534   7.065   7.856  13.861
69899SOL     OW11535   5.806   1.327   2.723
69899SOL    HW111536   5.824   1.306   2.632
69899SOL    HW211537   5.837   1.251   2.772
69900SOL     OW11538  13.743   8.637   9.971
69900SOL    HW111539  13.677   8.632  10.039
69900SOL    HW211540  13.803   8.565   9.990
69901SOL     OW11541   3.976  10.628   4.439
69901SOL    HW111542   3.979  10.641   4.534
69901SOL    HW211543   4.066  10.645   4.411
69902SOL     OW11544   7.511   3.838  10.208
69902SOL    HW111545   7.544   3.754  10.243
69902SOL    HW211546   7.583   3.899  10.223
69903SOL     OW11547   9.076  11.242  14.397
69903SOL    HW111548   9.000  11.214  14.449
69903SOL    HW211549   9.142  11.175  14.414
69904SOL     OW11550   8.911   3.325   1.248
69904SOL    HW111551   8.878   3.308   1.160
69904SOL    HW211552   8.840   3.296   1.306
69905SOL     OW11553  13.596   3.079   0.484
69905SOL    HW111554  13.678   3.094   0.531
69905SOL    HW211555  13.607   3.126   0.401
69906SOL     OW11556   7.647   2.495   9.013
69906SOL    HW111557   7.580   2.497   9.082
69906SOL    HW211558   7.621   2.565   8.954
69907SOL     OW11559   2.422  13.344   9.261
69907SOL    HW111560   2.332  13.328   9.290
69907SOL    HW211561   2.452  13.418   9.314
69908SOL     OW11562   4.451   1.734   0.291
69908SOL    HW111563   4.375   1.770   0.337
69908SOL    HW211564   4.523   1.794   0.313
69909SOL     OW11565  14.080   6.451   5.950
69909SOL    HW111566  14.069   6.546   5.958
69909SOL    HW211567  14.077   6.419   6.040
69910SOL     OW11568   0.049   2.589   3.231
69910SOL    HW111569   0.048   2.504   3.187
69910SOL    HW211570  14.834   2.623   3.218
69911SOL     OW11571  11.543  10.764   2.639
69911SOL    HW111572  11.451  10.766   2.613
69911SOL    HW211573  11.566  10.856   2.653
69912SOL     OW11574   4.545  13.466  12.944
69912SOL    HW111575   4.550  13.370  12.937
69912SOL    HW211576   4.455  13.483  12.970
69913SOL     OW11577  11.201   5.514   5.752
69913SOL    HW111578  11.274   5.529   5.691
69913SOL    HW211579  11.223   5.432   5.796
69914SOL     OW11580   5.188   9.609   1.738
69914SOL    HW111581   5.151   9.569   1.817
69914SOL    HW211582   5.116   9.608   1.675
69915SOL     OW11583   2.777   2.142   0.217
69915SOL    HW111584   2.855   2.167   0.267
69915SOL    HW211585   2.804   2.065   0.166
69916SOL     OW11586   2.815   9.682  14.430
69916SOL    HW111587   2.818   9.657  14.338
69916SOL    HW211588   2.727   9.658  14.459
69917SOL     OW11589  12.318   3.871   3.346
69917SOL    HW111590  12.374   3.800   3.314
69917SOL    HW211591  12.266   3.831   3.416
69918SOL     OW11592   6.265  12.968   4.442
69918SOL    HW111593   6.283  13.020   4.363
69918SOL    HW211594   6.188  12.917   4.420
69919SOL     OW11595   6.673   0.655   4.573
69919SOL    HW111596   6.767   0.663   4.587
69919SOL    HW211597   6.658   0.561   4.567
69920SOL     OW11598  10.120   1.093  13.053
69920SOL    HW111599  10.150   1.157  13.119
69920SOL    HW211600  10.048   1.136  13.009
69921SOL     OW11601   4.684   9.035  14.153
69921SOL    HW111602   4.710   9.044  14.244
69921SOL    HW211603   4.766   9.027  14.105
69922SOL     OW11604   2.470   0.659   0.765
69922SOL    HW111605   2.493   0.577   0.808
69922SOL    HW211606   2.541   0.719   0.788
69923SOL     OW11607   2.520  14.721   8.461
69923SOL    HW111608   2.499  14.811   8.487
69923SOL    HW211609   2.615  14.717   8.462
69924SOL     OW11610   6.149   2.173   6.648
69924SOL    HW111611   6.216   2.241   6.634
69924SOL    HW211612   6.102   2.168   6.565
69925SOL     OW11613  14.026   1.299   2.357
69925SOL    HW111614  14.007   1.331   2.445
69925SOL    HW211615  13.953   1.330   2.304
69926SOL     OW11616  11.313   1.334  14.229
69926SOL    HW111617  11.327   1.428  14.235
69926SOL    HW211618  11.230   1.324  14.184
69927SOL     OW11619  13.657   8.713  14.412
69927SOL    HW111620  13.752   8.727  14.413
69927SOL    HW211621  13.627   8.740  14.499
69928SOL     OW11622  11.547   7.570   0.015
69928SOL    HW111623  11.498   7.603   0.090
69928SOL    HW211624  11.481   7.529  14.833
69929SOL     OW11625  11.145  14.548   4.709
69929SOL    HW111626  11.177  14.527   4.796
69929SOL    HW211627  11.139  14.644   4.708
69930SOL     OW11628  12.994  12.864   9.694
69930SOL    HW111629  12.899  12.854   9.693
69930SOL    HW211630  13.016  12.881   9.786
69931SOL     OW11631  10.388   3.486   4.870
69931SOL    HW111632  10.309   3.451   4.911
69931SOL    HW211633  10.459   3.435   4.908
69932SOL     OW11634   7.846   8.314   4.675
69932SOL    HW111635   7.863   8.399   4.634
69932SOL    HW211636   7.759   8.323   4.713
69933SOL     OW11637   7.766   1.277   9.107
69933SOL    HW111638   7.680   1.247   9.137
69933SOL    HW211639   7.769   1.370   9.131
69934SOL     OW11640  10.223  14.313  10.136
69934SOL    HW111641  10.294  14.266  10.179
69934SOL    HW211642  10.143  14.270  10.167
69935SOL     OW11643  13.952   8.469   4.643
69935SOL    HW111644  13.971   8.378   4.621
69935SOL    HW211645  14.038   8.511   4.650
69936SOL     OW11646   4.694   5.781  10.557
69936SOL    HW111647   4.610   5.743  10.584
69936SOL    HW211648   4.685   5.795  10.463
69937SOL     OW11649  11.547   2.711  10.667
69937SOL    HW111650  11.499   2.718  10.750
69937SOL    HW211651  11.626   2.661  10.690
69938SOL     OW11652   4.676   0.868   8.772
69938SOL    HW111653   4.637   0.952   8.795
69938SOL    HW211654   4.751   0.890   8.717
69939SOL     OW11655   3.168  10.880   1.281
69939SOL    HW111656   3.119  10.862   1.361
69939SOL    HW211657   3.211  10.964   1.297
69940SOL     OW11658   8.505  12.489  10.009
69940SOL    HW111659   8.454  12.557   9.964
69940SOL    HW211660   8.527  12.527  10.094
69941SOL     OW11661   5.428   1.526  12.583
69941SOL    HW111662   5.437   1.474  12.503
69941SOL    HW211663   5.421   1.461  12.653
69942SOL     OW11664   0.276   6.662  11.679
69942SOL    HW111665   0.309   6.712  11.754
69942SOL    HW211666   0.191   6.701  11.659
69943SOL     OW11667   4.481   5.064   3.122
69943SOL    HW111668   4.554   5.035   3.069
69943SOL    HW211669   4.434   5.126   3.067
69944SOL     OW11670   9.902  10.951  14.693
69944SOL    HW111671   9.830  10.889  14.699
69944SOL    HW211672   9.902  10.996  14.778
69945SOL     OW11673   1.887  11.524   3.354
69945SOL    HW111674   1.981  11.538   3.346
69945SOL    HW211675   1.875  11.494   3.444
69946SOL     OW11676   5.803  11.181  11.120
69946SOL    HW111677   5.847  11.264  11.138
69946SOL    HW211678   5.721  11.206  11.078
69947SOL     OW11679   7.029   5.476   5.197
69947SOL    HW111680   7.101   5.469   5.260
69947SOL    HW211681   6.972   5.545   5.232
69948SOL     OW11682  12.037   8.078  14.742
69948SOL    HW111683  11.994   7.997  14.770
69948SOL    HW211684  12.075   8.114  14.821
69949SOL     OW11685   5.657  11.885   9.363
69949SOL    HW111686   5.691  11.855   9.279
69949SOL    HW211687   5.591  11.950   9.341
69950SOL     OW11688   9.131   5.663   0.517
69950SOL    HW111689   9.125   5.619   0.602
69950SOL    HW211690   9.107   5.596   0.453
69951SOL     OW11691   8.608   7.327   4.844
69951SOL    HW111692   8.552   7.374   4.782
69951SOL    HW211693   8.644   7.254   4.793
69952SOL     OW11694   8.065   5.433  12.684
69952SOL    HW111695   8.118   5.512  12.687
69952SOL    HW211696   8.093   5.383  12.761
69953SOL     OW11697   1.861  12.096  12.931
69953SOL    HW111698   1.859  12.189  12.910
69953SOL    HW211699   1.870  12.093  13.027
69954SOL     OW11700   5.587   7.347   8.347
69954SOL    HW111701   5.646   7.329   8.420
69954SOL    HW211702   5.644   7.365   8.272
69955SOL     OW11703   8.110   0.813  12.975
69955SOL    HW111704   8.091   0.904  12.954
69955SOL    HW211705   8.190   0.793  12.927
69956SOL     OW11706   6.349   7.216   9.207
69956SOL    HW111707   6.296   7.196   9.130
69956SOL    HW211708   6.302   7.174   9.279
69957SOL     OW11709   1.783  13.383   5.017
69957SOL    HW111710   1.804  13.296   4.984
69957SOL    HW211711   1.847  13.440   4.976
69958SOL     OW11712  11.249  13.299   0.464
69958SOL    HW111713  11.274  13.211   0.492
69958SOL    HW211714  11.290  13.309   0.378
69959SOL     OW11715   0.448   2.160   0.260
69959SOL    HW111716   0.448   2.153   0.165
69959SOL    HW211717   0.441   2.254   0.277
69960SOL     OW11718   2.288   4.883   8.401
69960SOL    HW111719   2.322   4.798   8.375
69960SOL    HW211720   2.301   4.939   8.324
69961SOL     OW11721  11.781   1.919   9.174
69961SOL    HW111722  11.733   1.920   9.257
69961SOL    HW211723  11.845   1.990   9.183
69962SOL     OW11724  10.979   3.029  13.200
69962SOL    HW111725  11.009   3.101  13.255
69962SOL    HW211726  10.967   3.068  13.113
69963SOL     OW11727   5.451   3.687  13.134
69963SOL    HW111728   5.377   3.748  13.133
69963SOL    HW211729   5.528   3.742  13.125
69964SOL     OW11730  10.120   0.486  13.957
69964SOL    HW111731  10.092   0.396  13.970
69964SOL    HW211732  10.044   0.539  13.984
69965SOL     OW11733   5.460   0.259   3.885
69965SOL    HW111734   5.433   0.196   3.818
69965SOL    HW211735   5.545   0.227   3.916
69966SOL     OW11736   0.985   5.480   6.861
69966SOL    HW111737   1.067   5.439   6.832
69966SOL    HW211738   0.975   5.452   6.952
69967SOL     OW11739   1.958  12.501   6.769
69967SOL    HW111740   2.015  12.439   6.814
69967SOL    HW211741   1.907  12.543   6.838
69968SOL     OW11742  12.169  11.104   1.326
69968SOL    HW111743  12.244  11.159   1.348
69968SOL    HW211744  12.093  11.156   1.351
69969SOL     OW11745   0.256  12.416  14.098
69969SOL    HW111746   0.231  12.426  14.006
69969SOL    HW211747   0.351  12.418  14.097
69970SOL     OW11748   2.651  12.143   5.627
69970SOL    HW111749   2.630  12.216   5.568
69970SOL    HW211750   2.578  12.082   5.616
69971SOL     OW11751  14.474   1.292   7.836
69971SOL    HW111752  14.542   1.348   7.873
69971SOL    HW211753  14.392   1.337   7.857
69972SOL     OW11754  14.610   1.765   1.794
69972SOL    HW111755  14.583   1.780   1.703
69972SOL    HW211756  14.602   1.671   1.806
69973SOL     OW11757   6.513  11.536   1.604
69973SOL    HW111758   6.554  11.496   1.527
69973SOL    HW211759   6.546  11.485   1.678
69974SOL     OW11760   5.405  10.887   4.247
69974SOL    HW111761   5.368  10.823   4.307
69974SOL    HW211762   5.332  10.945   4.226
69975SOL     OW11763   8.287   1.001   5.463
69975SOL    HW111764   8.237   1.072   5.422
69975SOL    HW211765   8.229   0.925   5.457
69976SOL     OW11766   5.692  11.858  13.498
69976SOL    HW111767   5.718  11.945  13.529
69976SOL    HW211768   5.597  11.855  13.512
69977SOL     OW11769   3.472   4.889   6.724
69977SOL    HW111770   3.476   4.849   6.811
69977SOL    HW211771   3.380   4.917   6.715
69978SOL     OW11772  11.911  13.938   0.324
69978SOL    HW111773  11.816  13.947   0.323
69978SOL    HW211774  11.941  13.998   0.256
69979SOL     OW11775   0.404   7.554   3.220
69979SOL    HW111776   0.397   7.649   3.224
69979SOL    HW211777   0.354   7.529   3.143
69980SOL     OW11778  14.533   4.726  14.474
69980SOL    HW111779  14.617   4.772  14.467
69980SOL    HW211780  14.539   4.655  14.411
69981SOL     OW11781  14.553  12.231  12.205
69981SOL    HW111782  14.621  12.179  12.246
69981SOL    HW211783  14.550  12.312  12.255
69982SOL     OW11784  14.193   6.738   4.680
69982SOL    HW111785  14.179   6.736   4.585
69982SOL    HW211786  14.105   6.751   4.717
69983SOL     OW11787  11.485   9.104   5.124
69983SOL    HW111788  11.472   9.196   5.102
69983SOL    HW211789  11.561   9.077   5.072
69984SOL     OW11790   5.737   8.204   5.051
69984SOL    HW111791   5.651   8.190   5.090
69984SOL    HW211792   5.730   8.164   4.964
69985SOL     OW11793  11.348   8.003   6.285
69985SOL    HW111794  11.438   8.035   6.292
69985SOL    HW211795  11.326   8.013   6.192
69986SOL     OW11796  14.535   8.683  11.802
69986SOL    HW111797  14.530   8.593  11.771
69986SOL    HW211798  14.458   8.726  11.764
69987SOL     OW11799   6.273  12.795   7.187
69987SOL    HW111800   6.215  12.724   7.159
69987SOL    HW211801   6.327  12.814   7.110
69988SOL     OW11802   2.425  14.305   8.651
69988SOL    HW111803   2.457  14.386   8.611
69988SOL    HW211804   2.473  14.299   8.733
69989SOL     OW11805   9.869   5.591   2.477
69989SOL    HW111806   9.777   5.575   2.456
69989SOL    HW211807   9.917   5.534   2.417
69990SOL     OW11808   9.182   2.000   8.735
69990SOL    HW111809   9.179   2.091   8.705
69990SOL    HW211810   9.204   2.006   8.828
69991SOL     OW11811  11.940  10.210   6.903
69991SOL    HW111812  11.862  10.156   6.912
69991SOL    HW211813  11.907  10.299   6.891
69992SOL     OW11814  12.070   3.454  11.993
69992SOL    HW111815  12.165   3.464  11.996
69992SOL    HW211816  12.039   3.533  11.949
69993SOL     OW11817  14.579   2.773   9.356
69993SOL    HW111818  14.616   2.726   9.281
69993SOL    HW211819  14.532   2.706   9.406
69994SOL     OW11820  13.258  14.714  12.213
69994SOL    HW111821  13.289  14.701  12.123
69994SOL    HW211822  13.279  14.632  12.258
69995SOL     OW11823   2.618   8.633   4.625
69995SOL    HW111824   2.527   8.647   4.601
69995SOL    HW211825   2.638   8.545   4.595
69996SOL     OW11826   7.385   3.235  10.824
69996SOL    HW111827   7.389   3.258  10.916
69996SOL    HW211828   7.293   3.248  10.801
69997SOL     OW11829   2.522   9.341  12.391
69997SOL    HW111830   2.508   9.254  12.429
69997SOL    HW211831   2.589   9.381  12.447
69998SOL     OW11832   1.449  13.023   6.601
69998SOL    HW111833   1.480  13.071   6.524
69998SOL    HW211834   1.503  13.055   6.673
69999SOL     OW11835  12.217  11.426   4.119
69999SOL    HW111836  12.127  11.439   4.149
69999SOL    HW211837  12.263  11.507   4.143
70000SOL     OW11838   3.687  14.805   2.887
70000SOL    HW111839   3.678  14.710   2.882
70000SOL    HW211840   3.633  14.839   2.815
70001SOL     OW11841   7.143  13.024   6.345
70001SOL    HW111842   7.157  13.014   6.251
70001SOL    HW211843   7.060  12.980   6.362
70002SOL     OW11844   5.322  10.408  10.672
70002SOL    HW111845   5.313  10.319  10.639
70002SOL    HW211846   5.269  10.461  10.612
70003SOL     OW11847   9.292   1.423  11.066
70003SOL    HW111848   9.333   1.489  11.121
70003SOL    HW211849   9.282   1.346  11.122
70004SOL     OW11850   9.174  11.573   0.421
70004SOL    HW111851   9.163  11.479   0.410
70004SOL    HW211852   9.161  11.587   0.515
70005SOL     OW11853   5.415   4.167   8.070
70005SOL    HW111854   5.326   4.200   8.059
70005SOL    HW211855   5.426   4.160   8.165
70006SOL     OW11856   3.774  11.561  13.299
70006SOL    HW111857   3.719  11.565  13.378
70006SOL    HW211858   3.858  11.596  13.328
70007SOL     OW11859   5.792   1.467   6.206
70007SOL    HW111860   5.763   1.506   6.124
70007SOL    HW211861   5.863   1.524   6.236
70008SOL     OW11862  14.682  13.898  13.418
70008SOL    HW111863  14.706  13.935  13.334
70008SOL    HW211864  14.764  13.891  13.466
70009SOL     OW11865   7.662   1.437   0.081
70009SOL    HW111866   7.692   1.352   0.113
70009SOL    HW211867   7.604   1.470   0.150
70010SOL     OW11868  10.268   5.467  12.271
70010SOL    HW111869  10.271   5.377  12.304
70010SOL    HW211870  10.198   5.509  12.323
70011SOL     OW11871   8.330  11.957  12.370
70011SOL    HW111872   8.344  11.877  12.320
70011SOL    HW211873   8.276  11.930  12.445
70012SOL     OW11874   7.387  11.921  11.905
70012SOL    HW111875   7.472  11.961  11.921
70012SOL    HW211876   7.325  11.978  11.950
70013SOL     OW11877  10.932   5.425   7.563
70013SOL    HW111878  10.907   5.474   7.484
70013SOL    HW211879  11.021   5.454   7.581
70014SOL     OW11880   5.494  10.790  13.872
70014SOL    HW111881   5.427  10.822  13.812
70014SOL    HW211882   5.447  10.766  13.951
70015SOL     OW11883   3.281   9.057   6.671
70015SOL    HW111884   3.312   9.055   6.580
70015SOL    HW211885   3.360   9.043   6.723
70016SOL     OW11886  14.267   2.007  14.475
70016SOL    HW111887  14.208   2.075  14.507
70016SOL    HW211888  14.267   1.940  14.543
70017SOL     OW11889   1.245   3.703   2.674
70017SOL    HW111890   1.228   3.671   2.585
70017SOL    HW211891   1.327   3.752   2.667
70018SOL     OW11892  12.751  11.955   1.675
70018SOL    HW111893  12.771  11.984   1.764
70018SOL    HW211894  12.836  11.932   1.638
70019SOL     OW11895   7.424   7.449   3.403
70019SOL    HW111896   7.433   7.356   3.379
70019SOL    HW211897   7.514   7.478   3.417
70020SOL     OW11898   2.856   9.216   0.313
70020SOL    HW111899   2.875   9.127   0.342
70020SOL    HW211900   2.784   9.245   0.370
70021SOL     OW11901   4.793   2.582  11.014
70021SOL    HW111902   4.711   2.630  11.005
70021SOL    HW211903   4.861   2.650  11.013
70022SOL     OW11904  13.482   7.216   1.134
70022SOL    HW111905  13.468   7.277   1.207
70022SOL    HW211906  13.424   7.247   1.065
70023SOL     OW11907   1.777  10.698   2.142
70023SOL    HW111908   1.735  10.613   2.150
70023SOL    HW211909   1.766  10.738   2.229
70024SOL     OW11910  14.113   7.376   1.967
70024SOL    HW111911  14.181   7.360   2.032
70024SOL    HW211912  14.098   7.291   1.925
70025SOL     OW11913   0.313   0.319   6.951
70025SOL    HW111914   0.249   0.248   6.953
70025SOL    HW211915   0.398   0.275   6.960
70026SOL     OW11916   8.036   3.137  14.027
70026SOL    HW111917   7.987   3.211  13.990
70026SOL    HW211918   7.981   3.105  14.098
70027SOL     OW11919   1.657   8.191  13.129
70027SOL    HW111920   1.568   8.177  13.160
70027SOL    HW211921   1.713   8.163  13.201
70028SOL     OW11922   1.750  11.006   2.066
70028SOL    HW111923   1.795  10.936   2.018
70028SOL    HW211924   1.662  10.972   2.080
70029SOL     OW11925   5.194   2.576   7.660
70029SOL    HW111926   5.201   2.604   7.569
70029SOL    HW211927   5.213   2.654   7.711
70030SOL     OW11928  13.614   0.855   5.842
70030SOL    HW111929  13.540   0.804   5.874
70030SOL    HW211930  13.678   0.851   5.912
70031SOL     OW11931  12.712   3.522   9.453
70031SOL    HW111932  12.807   3.532   9.447
70031SOL    HW211933  12.688   3.473   9.374
70032SOL     OW11934   4.390  10.445   9.509
70032SOL    HW111935   4.476  10.447   9.550
70032SOL    HW211936   4.341  10.515   9.552
70033SOL     OW11937   6.556  14.713   7.907
70033SOL    HW111938   6.552  14.777   7.978
70033SOL    HW211939   6.567  14.766   7.827
70034SOL     OW11940   0.380   0.592   3.723
70034SOL    HW111941   0.288   0.598   3.747
70034SOL    HW211942   0.393   0.660   3.657
70035SOL     OW11943   8.098   0.641   7.409
70035SOL    HW111944   8.069   0.622   7.320
70035SOL    HW211945   8.192   0.656   7.402
70036SOL     OW11946  11.651  12.461   1.637
70036SOL    HW111947  11.690  12.481   1.722
70036SOL    HW211948  11.671  12.538   1.583
70037SOL     OW11949   4.934   8.028  14.665
70037SOL    HW111950   4.985   7.997  14.590
70037SOL    HW211951   4.942   8.124  14.661
70038SOL     OW11952   0.662   2.457  14.568
70038SOL    HW111953   0.730   2.499  14.516
70038SOL    HW211954   0.669   2.498  14.654
70039SOL     OW11955   6.767  10.868  13.297
70039SOL    HW111956   6.813  10.949  13.278
70039SOL    HW211957   6.803  10.840  13.382
70040SOL     OW11958  10.041   2.952   9.252
70040SOL    HW111959  10.019   2.913   9.337
70040SOL    HW211960   9.984   3.028   9.245
70041SOL     OW11961  13.328  13.797  11.074
70041SOL    HW111962  13.272  13.804  10.997
70041SOL    HW211963  13.284  13.733  11.130
70042SOL     OW11964   0.063   0.900   2.449
70042SOL    HW111965   0.157   0.881   2.453
70042SOL    HW211966   0.021   0.817   2.468
70043SOL     OW11967   1.762   6.931  12.460
70043SOL    HW111968   1.785   7.002  12.400
70043SOL    HW211969   1.836   6.927  12.522
70044SOL     OW11970   4.440   9.196   4.895
70044SOL    HW111971   4.446   9.114   4.847
70044SOL    HW211972   4.527   9.236   4.884
70045SOL     OW11973  10.758   9.592   1.818
70045SOL    HW111974  10.817   9.605   1.745
70045SOL    HW211975  10.697   9.666   1.813
70046SOL     OW11976  11.150   1.309   1.118
70046SOL    HW111977  11.114   1.348   1.197
70046SOL    HW211978  11.085   1.330   1.050
70047SOL     OW11979   7.379   9.908   9.209
70047SOL    HW111980   7.287   9.912   9.182
70047SOL    HW211981   7.398   9.814   9.215
70048SOL     OW11982   2.797  11.241  10.340
70048SOL    HW111983   2.843  11.212  10.419
70048SOL    HW211984   2.835  11.326  10.319
70049SOL     OW11985  14.515   3.498   5.276
70049SOL    HW111986  14.561   3.415   5.266
70049SOL    HW211987  14.569   3.548   5.338
70050SOL     OW11988   9.772   6.777   3.307
70050SOL    HW111989   9.691   6.726   3.309
70050SOL    HW211990   9.774   6.814   3.219
70051SOL     OW11991   7.398   1.115   0.617
70051SOL    HW111992   7.388   1.065   0.536
70051SOL    HW211993   7.390   1.050   0.687
70052SOL     OW11994   1.759   2.318  13.148
70052SOL    HW111995   1.850   2.317  13.119
70052SOL    HW211996   1.760   2.378  13.223
70053SOL     OW11997  12.837   9.288  11.678
70053SOL    HW111998  12.745   9.297  11.701
70053SOL    HW211999  12.870   9.378  11.673
70054SOL     OW12000   9.135  13.778   3.032
70054SOL    HW112001   9.056  13.743   2.991
70054SOL    HW212002   9.103  13.828   3.108
70055SOL     OW12003   8.100   2.266   4.930
70055SOL    HW112004   8.127   2.253   5.021
70055SOL    HW212005   8.007   2.242   4.929
70056SOL     OW12006   7.819   4.441   7.903
70056SOL    HW112007   7.760   4.424   7.830
70056SOL    HW212008   7.905   4.413   7.871
70057SOL     OW12009  10.787  12.575  14.148
70057SOL    HW112010  10.780  12.495  14.200
70057SOL    HW212011  10.754  12.644  14.205
70058SOL     OW12012   0.675   8.807  12.111
70058SOL    HW112013   0.704   8.788  12.200
70058SOL    HW212014   0.580   8.818  12.119
70059SOL     OW12015  12.140   7.149  10.957
70059SOL    HW112016  12.045   7.160  10.954
70059SOL    HW212017  12.163   7.105  10.876
70060SOL     OW12018   2.994  12.472   9.635
70060SOL    HW112019   2.995  12.489   9.729
70060SOL    HW212020   3.056  12.535   9.598
70061SOL     OW12021   2.248   4.980  10.234
70061SOL    HW112022   2.326   4.938  10.197
70061SOL    HW212023   2.186   4.983  10.161
70062SOL     OW12024   3.280   0.722  11.553
70062SOL    HW112025   3.189   0.723  11.583
70062SOL    HW212026   3.277   0.763  11.467
70063SOL     OW12027   3.624   7.389   5.738
70063SOL    HW112028   3.554   7.426   5.791
70063SOL    HW212029   3.592   7.302   5.712
70064SOL     OW12030  13.644   3.551   7.649
70064SOL    HW112031  13.640   3.558   7.554
70064SOL    HW212032  13.702   3.622   7.676
70065SOL     OW12033   6.900  14.546   9.396
70065SOL    HW112034   6.899  14.479   9.328
70065SOL    HW212035   6.937  14.502   9.472
70066SOL     OW12036   3.711   6.278   3.181
70066SOL    HW112037   3.682   6.269   3.272
70066SOL    HW212038   3.686   6.367   3.158
70067SOL     OW12039   1.394   6.112   1.260
70067SOL    HW112040   1.419   6.138   1.349
70067SOL    HW212041   1.350   6.027   1.272
70068SOL     OW12042  13.051  10.474   4.463
70068SOL    HW112043  12.995  10.421   4.405
70068SOL    HW212044  13.126  10.498   4.409
70069SOL     OW12045   2.745   8.903   8.782
70069SOL    HW112046   2.693   8.982   8.795
70069SOL    HW212047   2.801   8.924   8.706
70070SOL     OW12048   8.934   3.236  12.187
70070SOL    HW112049   9.004   3.185  12.147
70070SOL    HW212050   8.858   3.178  12.187
70071SOL     OW12051  14.538   9.914   1.340
70071SOL    HW112052  14.532   9.893   1.433
70071SOL    HW212053  14.552  10.009   1.337
70072SOL     OW12054  11.220   0.948   0.820
70072SOL    HW112055  11.276   0.875   0.796
70072SOL    HW212056  11.184   0.925   0.906
70073SOL     OW12057   0.289   1.700  10.922
70073SOL    HW112058   0.323   1.695  11.012
70073SOL    HW212059   0.226   1.772  10.924
70074SOL     OW12060  12.748   7.394   3.789
70074SOL    HW112061  12.738   7.313   3.839
70074SOL    HW212062  12.668   7.444   3.808
70075SOL     OW12063   8.862  12.763   7.836
70075SOL    HW112064   8.783  12.751   7.785
70075SOL    HW212065   8.930  12.718   7.786
70076SOL     OW12066   1.506   0.714  12.005
70076SOL    HW112067   1.552   0.650  12.060
70076SOL    HW212068   1.534   0.799  12.039
70077SOL     OW12069   3.544   1.694   5.812
70077SOL    HW112070   3.615   1.749   5.779
70077SOL    HW212071   3.466   1.750   5.808
70078SOL     OW12072   0.883  12.210  10.237
70078SOL    HW112073   0.858  12.290  10.192
70078SOL    HW212074   0.979  12.211  10.237
70079SOL     OW12075   1.835   5.569   7.458
70079SOL    HW112076   1.842   5.664   7.452
70079SOL    HW212077   1.922   5.541   7.486
70080SOL     OW12078   9.686  10.408   4.364
70080SOL    HW112079   9.611  10.351   4.381
70080SOL    HW212080   9.758  10.347   4.346
70081SOL     OW12081   8.624  13.762  14.760
70081SOL    HW112082   8.530  13.754  14.775
70081SOL    HW212083   8.636  13.733  14.669
70082SOL     OW12084   3.904   1.059   9.920
70082SOL    HW112085   3.833   1.020   9.868
70082SOL    HW212086   3.860   1.098   9.995
70083SOL     OW12087   9.138  12.198   9.145
70083SOL    HW112088   9.048  12.222   9.164
70083SOL    HW212089   9.191  12.261   9.194
70084SOL     OW12090   6.616   4.286  11.627
70084SOL    HW112091   6.627   4.348  11.700
70084SOL    HW212092   6.523   4.265  11.627
70085SOL     OW12093  12.337   2.727   7.572
70085SOL    HW112094  12.409   2.703   7.630
70085SOL    HW212095  12.286   2.790   7.622
70086SOL     OW12096   6.932   2.709  11.066
70086SOL    HW112097   6.900   2.719  11.156
70086SOL    HW212098   7.013   2.759  11.064
70087SOL     OW12099   3.026  13.420  10.746
70087SOL    HW112100   2.955  13.462  10.698
70087SOL    HW212101   2.985  13.344  10.788
70088SOL     OW12102  12.115   7.690   5.557
70088SOL    HW112103  12.058   7.719   5.628
70088SOL    HW212104  12.056   7.655   5.490
70089SOL     OW12105  13.429   0.721   5.958
70089SOL    HW112106  13.350   0.707   5.905
70089SOL    HW212107  13.436   0.642   6.011
70090SOL     OW12108  11.460   1.193   2.906
70090SOL    HW112109  11.367   1.169   2.906
70090SOL    HW212110  11.460   1.283   2.873
70091SOL     OW12111  13.849   2.499   7.138
70091SOL    HW112112  13.887   2.435   7.079
70091SOL    HW212113  13.756   2.477   7.141
70092SOL     OW12114  14.705   4.634   5.481
70092SOL    HW112115  14.661   4.719   5.485
70092SOL    HW212116  14.733   4.626   5.389
70093SOL     OW12117   0.204   8.077   5.265
70093SOL    HW112118   0.258   8.109   5.193
70093SOL    HW212119   0.242   7.991   5.287
70094SOL     OW12120  14.057   4.779  11.473
70094SOL    HW112121  14.085   4.764  11.383
70094SOL    HW212122  14.014   4.865  11.471
70095SOL     OW12123  11.668   7.454   0.667
70095SOL    HW112124  11.693   7.362   0.654
70095SOL    HW212125  11.598   7.451   0.732
70096SOL     OW12126  11.592   0.660   2.100
70096SOL    HW112127  11.653   0.691   2.167
70096SOL    HW212128  11.542   0.591   2.143
70097SOL     OW12129   4.591  13.897  14.277
70097SOL    HW112130   4.523  13.939  14.224
70097SOL    HW212131   4.621  13.823  14.224
70098SOL     OW12132  11.403  10.252   8.899
70098SOL    HW112133  11.497  10.248   8.914
70098SOL    HW212134  11.385  10.345   8.882
70099SOL     OW12135   9.605  12.799   8.299
70099SOL    HW112136   9.620  12.869   8.363
70099SOL    HW212137   9.542  12.741   8.342
70100SOL     OW12138   8.538   5.754   9.566
70100SOL    HW112139   8.512   5.662   9.565
70100SOL    HW212140   8.520   5.785   9.478
70101SOL     OW12141  11.961   4.253   8.737
70101SOL    HW112142  11.905   4.204   8.797
70101SOL    HW212143  11.899   4.302   8.682
70102SOL     OW12144   1.601  14.589  12.748
70102SOL    HW112145   1.678  14.637  12.718
70102SOL    HW212146   1.536  14.657  12.765
70103SOL     OW12147  12.482   4.054  11.009
70103SOL    HW112148  12.401   4.103  10.995
70103SOL    HW212149  12.544   4.118  11.044
70104SOL     OW12150  10.402  14.722  13.810
70104SOL    HW112151  10.454  14.675  13.875
70104SOL    HW212152  10.401  14.665  13.733
70105SOL     OW12153   9.028  10.964  12.120
70105SOL    HW112154   9.085  10.940  12.193
70105SOL    HW212155   9.069  11.042  12.083
70106SOL     OW12156   3.607  13.584  14.415
70106SOL    HW112157   3.653  13.542  14.342
70106SOL    HW212158   3.603  13.676  14.391
70107SOL     OW12159   2.537   9.539  11.173
70107SOL    HW112160   2.561   9.607  11.110
70107SOL    HW212161   2.599   9.468  11.157
70108SOL     OW12162   6.134  14.828   7.449
70108SOL    HW112163   6.201  14.835   7.517
70108SOL    HW212164   6.109  14.736   7.449
70109SOL     OW12165  12.941  10.658   2.944
70109SOL    HW112166  12.880  10.588   2.965
70109SOL    HW212167  12.951  10.655   2.849
70110SOL     OW12168  10.666   2.799   8.136
70110SOL    HW112169  10.684   2.831   8.224
70110SOL    HW212170  10.689   2.706   8.139
70111SOL     OW12171   0.269  10.418  10.226
70111SOL    HW112172   0.271  10.330  10.188
70111SOL    HW212173   0.360  10.439  10.244
70112SOL     OW12174  12.889  12.417   8.693
70112SOL    HW112175  12.982  12.394   8.692
70112SOL    HW212176  12.888  12.508   8.725
70113SOL     OW12177   9.629   8.834   4.638
70113SOL    HW112178   9.549   8.842   4.586
70113SOL    HW212179   9.613   8.889   4.715
70114SOL     OW12180   2.463   2.877   5.883
70114SOL    HW112181   2.496   2.935   5.813
70114SOL    HW212182   2.541   2.850   5.931
70115SOL     OW12183  14.670   3.692   6.994
70115SOL    HW112184  14.753   3.733   7.018
70115SOL    HW212185  14.608   3.765   6.990
70116SOL     OW12186   1.805   8.101  11.936
70116SOL    HW112187   1.775   8.010  11.938
70116SOL    HW212188   1.746   8.144  11.874
70117SOL     OW12189  11.979  13.270   7.414
70117SOL    HW112190  11.910  13.241   7.473
70117SOL    HW212191  11.981  13.366   7.424
70118SOL     OW12192  11.843   1.133   0.466
70118SOL    HW112193  11.922   1.087   0.493
70118SOL    HW212194  11.788   1.065   0.427
70119SOL     OW12195   1.624   9.744  11.821
70119SOL    HW112196   1.622   9.797  11.741
70119SOL    HW212197   1.574   9.795  11.885
70120SOL     OW12198  13.591   9.656   2.951
70120SOL    HW112199  13.536   9.580   2.936
70120SOL    HW212200  13.530   9.730   2.956
70121SOL     OW12201   8.599   3.857   5.800
70121SOL    HW112202   8.667   3.925   5.796
70121SOL    HW212203   8.569   3.858   5.891
70122SOL     OW12204  12.546  11.533   6.484
70122SOL    HW112205  12.593  11.520   6.402
70122SOL    HW212206  12.586  11.471   6.545
70123SOL     OW12207   6.459  12.704   1.141
70123SOL    HW112208   6.412  12.787   1.145
70123SOL    HW212209   6.391  12.638   1.129
70124SOL     OW12210   0.171  10.616   0.949
70124SOL    HW112211   0.210  10.695   0.911
70124SOL    HW212212   0.215  10.543   0.904
70125SOL     OW12213  11.701   5.826  11.319
70125SOL    HW112214  11.657   5.755  11.272
70125SOL    HW212215  11.792   5.798  11.325
70126SOL     OW12216  11.126   1.017  13.829
70126SOL    HW112217  11.056   1.080  13.848
70126SOL    HW212218  11.084   0.952  13.772
70127SOL     OW12219   8.447  12.553  14.409
70127SOL    HW112220   8.412  12.467  14.387
70127SOL    HW212221   8.370  12.604  14.434
70128SOL     OW12222   0.725  12.547   1.893
70128SOL    HW112223   0.737  12.634   1.855
70128SOL    HW212224   0.762  12.554   1.981
70129SOL     OW12225   8.527  10.572   9.231
70129SOL    HW112226   8.575  10.569   9.314
70129SOL    HW212227   8.454  10.511   9.244
70130SOL     OW12228  10.710   1.692  11.898
70130SOL    HW112229  10.800   1.703  11.928
70130SOL    HW212230  10.671   1.779  11.906
70131SOL     OW12231  11.187   8.892   2.869
70131SOL    HW112232  11.207   8.831   2.940
70131SOL    HW212233  11.204   8.978   2.905
70132SOL     OW12234   3.876  12.281   2.632
70132SOL    HW112235   3.901  12.190   2.618
70132SOL    HW212236   3.834  12.307   2.550
70133SOL     OW12237   0.616   7.142  10.894
70133SOL    HW112238   0.677   7.215  10.903
70133SOL    HW212239   0.607   7.107  10.982
70134SOL     OW12240   4.305   6.891   0.026
70134SOL    HW112241   4.213   6.908   0.009
70134SOL    HW212242   4.310   6.798   0.047
70135SOL     OW12243  13.868  13.356   1.615
70135SOL    HW112244  13.800  13.292   1.639
70135SOL    HW212245  13.914  13.314   1.542
70136SOL     OW12246   6.378   7.366  14.506
70136SOL    HW112247   6.364   7.369  14.412
70136SOL    HW212248   6.327   7.290  14.535
70137SOL     OW12249   7.267   6.804   9.758
70137SOL    HW112250   7.223   6.866   9.816
70137SOL    HW212251   7.341   6.854   9.722
70138SOL     OW12252   2.869   2.064   1.361
70138SOL    HW112253   2.918   2.132   1.408
70138SOL    HW212254   2.936   2.001   1.333
70139SOL     OW12255   7.410   9.325  10.763
70139SOL    HW112256   7.458   9.328  10.845
70139SOL    HW212257   7.349   9.399  10.769
70140SOL     OW12258   0.739   8.357  12.543
70140SOL    HW112259   0.706   8.298  12.476
70140SOL    HW212260   0.756   8.300  12.619
70141SOL     OW12261  10.003   6.221  10.889
70141SOL    HW112262   9.973   6.246  10.801
70141SOL    HW212263  10.011   6.304  10.936
70142SOL     OW12264   6.263   2.224   3.716
70142SOL    HW112265   6.346   2.272   3.713
70142SOL    HW212266   6.196   2.292   3.709
70143SOL     OW12267   3.780   1.565   2.725
70143SOL    HW112268   3.832   1.513   2.787
70143SOL    HW212269   3.690   1.536   2.738
70144SOL     OW12270  10.798   5.341   9.506
70144SOL    HW112271  10.717   5.295   9.483
70144SOL    HW212272  10.838   5.285   9.573
70145SOL     OW12273   5.288  10.744   0.946
70145SOL    HW112274   5.195  10.756   0.929
70145SOL    HW212275   5.328  10.825   0.916
70146SOL     OW12276  13.830  12.012  10.211
70146SOL    HW112277  13.737  12.031  10.198
70146SOL    HW212278  13.850  12.052  10.296
70147SOL     OW12279   3.043  11.542   9.302
70147SOL    HW112280   3.028  11.573   9.392
70147SOL    HW212281   2.957  11.544   9.261
70148SOL     OW12282  12.540  13.589   6.914
70148SOL    HW112283  12.566  13.580   6.822
70148SOL    HW212284  12.599  13.530   6.961
70149SOL     OW12285   7.012   6.899   3.762
70149SOL    HW112286   6.919   6.905   3.782
70149SOL    HW212287   7.023   6.949   3.682
70150SOL     OW12288   0.475  12.798  10.589
70150SOL    HW112289   0.558  12.823  10.629
70150SOL    HW212290   0.499  12.737  10.519
70151SOL     OW12291  14.172   3.948   3.265
70151SOL    HW112292  14.125   3.867   3.246
70151SOL    HW212293  14.200   3.980   3.180
70152SOL     OW12294   2.237  14.029   9.916
70152SOL    HW112295   2.284  13.956   9.876
70152SOL    HW212296   2.294  14.105   9.901
70153SOL     OW12297  11.761   8.507   6.314
70153SOL    HW112298  11.857   8.508   6.322
70153SOL    HW212299  11.745   8.522   6.221
70154SOL     OW12300   6.448   8.701   9.696
70154SOL    HW112301   6.426   8.631   9.634
70154SOL    HW212302   6.493   8.766   9.643
70155SOL     OW12303   7.979   6.968   2.028
70155SOL    HW112304   8.023   6.970   2.113
70155SOL    HW212305   8.028   7.031   1.975
70156SOL     OW12306   8.460   3.785  11.344
70156SOL    HW112307   8.539   3.826  11.378
70156SOL    HW212308   8.485   3.752  11.257
70157SOL     OW12309   4.521   8.232   1.207
70157SOL    HW112310   4.580   8.194   1.142
70157SOL    HW212311   4.563   8.315   1.232
70158SOL     OW12312   8.132  11.302   7.046
70158SOL    HW112313   8.059  11.305   6.984
70158SOL    HW212314   8.168  11.214   7.036
70159SOL     OW12315   0.394   1.177   6.391
70159SOL    HW112316   0.420   1.173   6.483
70159SOL    HW212317   0.474   1.156   6.342
70160SOL     OW12318  11.626   8.817   8.099
70160SOL    HW112319  11.632   8.908   8.070
70160SOL    HW212320  11.690   8.770   8.044
70161SOL     OW12321   6.073  12.729  13.000
70161SOL    HW112322   6.156  12.736  13.046
70161SOL    HW212323   6.029  12.654  13.041
70162SOL     OW12324  14.746  12.108   5.181
70162SOL    HW112325  14.726  12.188   5.229
70162SOL    HW212326  14.738  12.038   5.247
70163SOL     OW12327   9.232  14.584  14.779
70163SOL    HW112328   9.198  14.548  14.861
70163SOL    HW212329   9.326  14.594  14.794
70164SOL     OW12330   6.171  11.482   7.359
70164SOL    HW112331   6.241  11.476   7.295
70164SOL    HW212332   6.186  11.409   7.418
70165SOL     OW12333  13.567  14.142   1.157
70165SOL    HW112334  13.564  14.235   1.134
70165SOL    HW212335  13.519  14.137   1.240
70166SOL     OW12336   2.029   2.375   9.474
70166SOL    HW112337   2.109   2.381   9.525
70166SOL    HW212338   2.006   2.465   9.453
70167SOL     OW12339   3.334   9.881  13.361
70167SOL    HW112340   3.300   9.870  13.272
70167SOL    HW212341   3.343   9.792  13.395
70168SOL     OW12342   8.201   3.444  12.710
70168SOL    HW112343   8.279   3.498  12.697
70168SOL    HW212344   8.190   3.397  12.628
70169SOL     OW12345   6.829   7.023   9.750
70169SOL    HW112346   6.842   7.107   9.706
70169SOL    HW212347   6.830   7.044   9.843
70170SOL     OW12348   5.922  10.577   5.998
70170SOL    HW112349   5.938  10.514   6.068
70170SOL    HW212350   5.836  10.553   5.962
70171SOL     OW12351   1.312  13.390   8.202
70171SOL    HW112352   1.343  13.335   8.129
70171SOL    HW212353   1.222  13.412   8.178
70172SOL     OW12354   2.612   1.148   2.817
70172SOL    HW112355   2.612   1.216   2.884
70172SOL    HW212356   2.543   1.174   2.756
70173SOL     OW12357   7.332   3.720   7.145
70173SOL    HW112358   7.256   3.747   7.095
70173SOL    HW212359   7.398   3.788   7.128
70174SOL     OW12360   9.863   3.990  12.162
70174SOL    HW112361   9.810   4.064  12.132
70174SOL    HW212362   9.951   4.027  12.171
70175SOL     OW12363   8.423   7.558   5.032
70175SOL    HW112364   8.517   7.538   5.035
70175SOL    HW212365   8.402   7.589   5.120
70176SOL     OW12366   3.674   5.049   1.377
70176SOL    HW112367   3.694   5.126   1.325
70176SOL    HW212368   3.614   5.080   1.445
70177SOL     OW12369  11.630   0.016  13.065
70177SOL    HW112370  11.714   0.016  13.019
70177SOL    HW212371  11.580  14.820  13.024
70178SOL     OW12372  14.326  13.488  10.259
70178SOL    HW112373  14.398  13.426  10.264
70178SOL    HW212374  14.306  13.493  10.165
70179SOL     OW12375  13.531   0.064  13.225
70179SOL    HW112376  13.606   0.123  13.219
70179SOL    HW212377  13.499   0.056  13.135
70180SOL     OW12378   1.478   5.167   1.343
70180SOL    HW112379   1.543   5.165   1.273
70180SOL    HW212380   1.397   5.193   1.300
70181SOL     OW12381   4.106  11.937  10.248
70181SOL    HW112382   4.052  11.946  10.327
70181SOL    HW212383   4.042  11.929  10.177
70182SOL     OW12384   1.130  14.806   0.539
70182SOL    HW112385   1.038  14.782   0.551
70182SOL    HW212386   1.127   0.013   0.488
70183SOL     OW12387   4.218  10.734  10.060
70183SOL    HW112388   4.254  10.779  10.137
70183SOL    HW212389   4.258  10.647  10.063
70184SOL     OW12390   9.942   4.647  14.821
70184SOL    HW112391   9.987   4.572  14.783
70184SOL    HW212392   9.949   4.715  14.755
70185SOL     OW12393   6.690   5.096  13.025
70185SOL    HW112394   6.754   5.161  12.996
70185SOL    HW212395   6.614   5.148  13.050
70186SOL     OW12396   1.328   2.593   0.856
70186SOL    HW112397   1.257   2.534   0.879
70186SOL    HW212398   1.405   2.556   0.898
70187SOL     OW12399  14.026  13.133   4.699
70187SOL    HW112400  14.061  13.084   4.773
70187SOL    HW212401  14.101  13.149   4.642
70188SOL     OW12402  11.396   0.178  14.159
70188SOL    HW112403  11.415   0.242  14.090
70188SOL    HW212404  11.482   0.148  14.188
70189SOL     OW12405  13.304  14.320   9.128
70189SOL    HW112406  13.358  14.341   9.052
70189SOL    HW212407  13.363  14.275   9.188
70190SOL     OW12408   3.991   5.900   5.058
70190SOL    HW112409   3.908   5.905   5.010
70190SOL    HW212410   3.973   5.842   5.132
70191SOL     OW12411   8.635   1.023  14.363
70191SOL    HW112412   8.565   1.078  14.329
70191SOL    HW212413   8.715   1.065  14.332
70192SOL     OW12414  14.058  12.946  11.772
70192SOL    HW112415  14.062  12.852  11.790
70192SOL    HW212416  13.966  12.969  11.785
70193SOL     OW12417   8.752   4.143   8.592
70193SOL    HW112418   8.739   4.051   8.566
70193SOL    HW212419   8.663   4.177   8.605
70194SOL     OW12420   4.156   2.466  13.719
70194SOL    HW112421   4.224   2.403  13.744
70194SOL    HW212422   4.090   2.459  13.788
70195SOL     OW12423  11.530  10.761   7.614
70195SOL    HW112424  11.574  10.676   7.621
70195SOL    HW212425  11.600  10.825   7.626
70196SOL     OW12426  12.724  14.533   9.491
70196SOL    HW112427  12.662  14.567   9.426
70196SOL    HW212428  12.703  14.439   9.496
70197SOL     OW12429  14.029   9.249  11.367
70197SOL    HW112430  14.115   9.237  11.327
70197SOL    HW212431  13.980   9.301  11.303
70198SOL     OW12432   6.642   5.088   6.190
70198SOL    HW112433   6.685   5.167   6.157
70198SOL    HW212434   6.694   5.016   6.153
70199SOL     OW12435   9.189   2.640   0.017
70199SOL    HW112436   9.241   2.705  14.843
70199SOL    HW212437   9.136   2.598  14.824
70200SOL     OW12438  12.971   4.426  14.362
70200SOL    HW112439  12.915   4.447  14.287
70200SOL    HW212440  13.046   4.484  14.352
70201SOL     OW12441  12.034   6.001  10.786
70201SOL    HW112442  11.999   5.966  10.868
70201SOL    HW212443  11.988   5.951  10.718
70202SOL     OW12444   6.904   2.834   5.676
70202SOL    HW112445   6.882   2.874   5.760
70202SOL    HW212446   6.887   2.741   5.689
70203SOL     OW12447   0.233  10.903   8.825
70203SOL    HW112448   0.156  10.850   8.848
70203SOL    HW212449   0.299  10.839   8.798
70204SOL     OW12450  13.197  14.599   0.219
70204SOL    HW112451  13.232  14.684   0.193
70204SOL    HW212452  13.144  14.618   0.297
70205SOL     OW12453   1.893  13.177   5.976
70205SOL    HW112454   1.918  13.144   6.062
70205SOL    HW212455   1.803  13.149   5.964
70206SOL     OW12456   8.527  12.633   0.662
70206SOL    HW112457   8.441  12.591   0.669
70206SOL    HW212458   8.587  12.572   0.703
70207SOL     OW12459   8.928   5.318  12.496
70207SOL    HW112460   9.024   5.326  12.490
70207SOL    HW212461   8.912   5.224  12.488
70208SOL     OW12462   5.090   4.844  14.551
70208SOL    HW112463   5.166   4.839  14.492
70208SOL    HW212464   5.015   4.850  14.492
70209SOL     OW12465   8.036  10.688   4.572
70209SOL    HW112466   7.954  10.702   4.619
70209SOL    HW212467   8.103  10.688   4.640
70210SOL     OW12468  12.122   7.878   0.244
70210SOL    HW112469  12.065   7.874   0.168
70210SOL    HW212470  12.086   7.949   0.298
70211SOL     OW12471   7.434   2.731   6.704
70211SOL    HW112472   7.449   2.825   6.693
70211SOL    HW212473   7.373   2.725   6.778
70212SOL     OW12474   4.288   5.482   1.197
70212SOL    HW112475   4.208   5.523   1.230
70212SOL    HW212476   4.265   5.453   1.108
70213SOL     OW12477  12.573  13.802   9.220
70213SOL    HW112478  12.479  13.810   9.210
70213SOL    HW212479  12.609  13.878   9.173
70214SOL     OW12480   2.507   9.274   3.355
70214SOL    HW112481   2.548   9.323   3.284
70214SOL    HW212482   2.570   9.204   3.375
70215SOL     OW12483   1.972  14.685  13.217
70215SOL    HW112484   1.961  14.615  13.283
70215SOL    HW212485   1.897  14.673  13.158
70216SOL     OW12486  10.018   8.460  10.495
70216SOL    HW112487   9.979   8.547  10.487
70216SOL    HW212488  10.110   8.473  10.470
70217SOL     OW12489   1.190   5.680   1.535
70217SOL    HW112490   1.204   5.613   1.601
70217SOL    HW212491   1.274   5.724   1.526
70218SOL     OW12492  10.281   4.146   2.979
70218SOL    HW112493  10.339   4.200   2.926
70218SOL    HW212494  10.234   4.208   3.035
70219SOL     OW12495  13.227   3.653   4.463
70219SOL    HW112496  13.149   3.665   4.408
70219SOL    HW212497  13.192   3.628   4.549
70220SOL     OW12498  14.636   6.437  10.498
70220SOL    HW112499  14.670   6.516  10.541
70220SOL    HW212500  14.621   6.376  10.570
70221SOL     OW12501  11.828   6.953  12.464
70221SOL    HW112502  11.901   7.009  12.440
70221SOL    HW212503  11.758   6.977  12.403
70222SOL     OW12504   7.921  14.292   1.663
70222SOL    HW112505   7.923  14.381   1.628
70222SOL    HW212506   7.853  14.247   1.612
70223SOL     OW12507  14.128   1.746   4.442
70223SOL    HW112508  14.220   1.755   4.467
70223SOL    HW212509  14.126   1.667   4.387
70224SOL     OW12510   9.499   1.349   8.781
70224SOL    HW112511   9.451   1.302   8.849
70224SOL    HW212512   9.499   1.440   8.810
70225SOL     OW12513  13.754  12.031  14.301
70225SOL    HW112514  13.820  12.066  14.240
70225SOL    HW212515  13.693  11.982  14.245
70226SOL     OW12516  11.576   6.493  13.655
70226SOL    HW112517  11.584   6.461  13.745
70226SOL    HW212518  11.570   6.588  13.665
70227SOL     OW12519   6.283   6.044   5.976
70227SOL    HW112520   6.223   5.991   5.923
70227SOL    HW212521   6.273   6.133   5.942
70228SOL     OW12522   7.588   4.483   9.931
70228SOL    HW112523   7.599   4.429   9.852
70228SOL    HW212524   7.577   4.572   9.897
70229SOL     OW12525   9.188  13.094   8.147
70229SOL    HW112526   9.248  13.022   8.167
70229SOL    HW212527   9.153  13.072   8.060
70230SOL     OW12528   4.501   4.975   7.404
70230SOL    HW112529   4.560   5.045   7.378
70230SOL    HW212530   4.556   4.897   7.408
70231SOL     OW12531   0.698  11.644  13.225
70231SOL    HW112532   0.631  11.627  13.292
70231SOL    HW212533   0.648  11.650  13.144
70232SOL     OW12534  10.585   8.031   9.172
70232SOL    HW112535  10.519   8.040   9.103
70232SOL    HW212536  10.552   8.085   9.244
70233SOL     OW12537  11.454  10.566  13.759
70233SOL    HW112538  11.445  10.544  13.851
70233SOL    HW212539  11.495  10.489  13.719
70234SOL     OW12540   3.331   5.331   8.285
70234SOL    HW112541   3.281   5.356   8.208
70234SOL    HW212542   3.280   5.364   8.359
70235SOL     OW12543   9.939   1.500   1.259
70235SOL    HW112544   9.978   1.564   1.318
70235SOL    HW212545   9.869   1.459   1.310
70236SOL     OW12546   5.356   4.537  11.629
70236SOL    HW112547   5.319   4.465  11.579
70236SOL    HW212548   5.440   4.556  11.585
70237SOL     OW12549   8.233  11.815   6.276
70237SOL    HW112550   8.174  11.890   6.269
70237SOL    HW212551   8.307  11.848   6.327
70238SOL     OW12552   3.636   1.822   4.086
70238SOL    HW112553   3.669   1.860   4.004
70238SOL    HW212554   3.597   1.739   4.060
70239SOL     OW12555   4.727  12.618  13.308
70239SOL    HW112556   4.812  12.617  13.352
70239SOL    HW212557   4.693  12.705  13.324
70240SOL     OW12558  13.174   0.786  14.713
70240SOL    HW112559  13.188   0.870  14.755
70240SOL    HW212560  13.254   0.736  14.729
70241SOL     OW12561   9.842   8.606   8.877
70241SOL    HW112562   9.933   8.607   8.848
70241SOL    HW212563   9.800   8.677   8.828
70242SOL     OW12564  11.611  14.079   9.435
70242SOL    HW112565  11.649  14.134   9.367
70242SOL    HW212566  11.589  14.140   9.505
70243SOL     OW12567   0.664   6.234   7.491
70243SOL    HW112568   0.649   6.299   7.561
70243SOL    HW212569   0.743   6.264   7.447
70244SOL     OW12570   1.513  12.904   0.283
70244SOL    HW112571   1.452  12.969   0.246
70244SOL    HW212572   1.599  12.933   0.252
70245SOL     OW12573   8.895   6.216   1.348
70245SOL    HW112574   8.936   6.191   1.431
70245SOL    HW212575   8.958   6.276   1.308
70246SOL     OW12576   5.410   8.571   9.143
70246SOL    HW112577   5.501   8.567   9.112
70246SOL    HW212578   5.376   8.482   9.129
70247SOL     OW12579  12.105  14.552   7.961
70247SOL    HW112580  12.019  14.558   8.004
70247SOL    HW212581  12.119  14.640   7.925
70248SOL     OW12582   3.027  10.465  13.505
70248SOL    HW112583   3.063  10.552  13.487
70248SOL    HW212584   2.940  10.482  13.540
70249SOL     OW12585   7.024  13.972   8.101
70249SOL    HW112586   7.070  13.967   8.185
70249SOL    HW212587   7.094  13.969   8.036
70250SOL     OW12588   5.443   7.996   7.693
70250SOL    HW112589   5.357   8.035   7.679
70250SOL    HW212590   5.450   7.929   7.626
70251SOL     OW12591   9.534   4.042  11.510
70251SOL    HW112592   9.561   4.063  11.600
70251SOL    HW212593   9.502   3.952  11.515
70252SOL     OW12594   0.545   3.905  14.766
70252SOL    HW112595   0.623   3.950  14.733
70252SOL    HW212596   0.491   3.891  14.688
70253SOL     OW12597   5.461   1.775   7.956
70253SOL    HW112598   5.494   1.690   7.927
70253SOL    HW212599   5.410   1.808   7.882
70254SOL     OW12600   6.582   5.335   0.354
70254SOL    HW112601   6.597   5.389   0.431
70254SOL    HW212602   6.492   5.353   0.329
70255SOL     OW12603  11.531  10.976  11.888
70255SOL    HW112604  11.545  10.888  11.922
70255SOL    HW212605  11.463  10.966  11.822
70256SOL     OW12606   0.437   6.110  14.191
70256SOL    HW112607   0.409   6.153  14.110
70256SOL    HW212608   0.387   6.028  14.193
70257SOL     OW12609   5.052   7.794   4.883
70257SOL    HW112610   5.102   7.833   4.811
70257SOL    HW212611   5.107   7.804   4.960
70258SOL     OW12612  13.074  12.326   6.116
70258SOL    HW112613  13.098  12.246   6.069
70258SOL    HW212614  12.992  12.305   6.160
70259SOL     OW12615  11.644  11.376   4.804
70259SOL    HW112616  11.638  11.301   4.863
70259SOL    HW212617  11.735  11.404   4.808
70260SOL     OW12618   5.031   5.339   4.621
70260SOL    HW112619   5.101   5.276   4.640
70260SOL    HW212620   5.062   5.386   4.543
70261SOL     OW12621  13.880   5.497  13.066
70261SOL    HW112622  13.871   5.484  12.971
70261SOL    HW212623  13.975   5.507  13.079
70262SOL     OW12624  11.511   4.637  12.050
70262SOL    HW112625  11.580   4.675  11.997
70262SOL    HW212626  11.455   4.711  12.074
70263SOL     OW12627  11.275  12.546   6.289
70263SOL    HW112628  11.204  12.610   6.280
70263SOL    HW212629  11.232  12.462   6.273
70264SOL     OW12630   9.152   5.751  14.440
70264SOL    HW112631   9.213   5.738  14.512
70264SOL    HW212632   9.111   5.835  14.458
70265SOL     OW12633   4.819   8.687   6.973
70265SOL    HW112634   4.852   8.776   6.987
70265SOL    HW212635   4.843   8.667   6.883
70266SOL     OW12636  12.145  11.513  11.509
70266SOL    HW112637  12.085  11.457  11.460
70266SOL    HW212638  12.227  11.507  11.460
70267SOL     OW12639   0.665   4.738   3.372
70267SOL    HW112640   0.647   4.664   3.315
70267SOL    HW212641   0.740   4.711   3.425
70268SOL     OW12642  12.347  13.888  14.252
70268SOL    HW112643  12.331  13.929  14.337
70268SOL    HW212644  12.290  13.936  14.192
70269SOL     OW12645   7.641  10.296   2.438
70269SOL    HW112646   7.617  10.225   2.379
70269SOL    HW212647   7.610  10.375   2.394
70270SOL     OW12648   5.995   2.055   1.194
70270SOL    HW112649   5.964   1.967   1.175
70270SOL    HW212650   5.925   2.095   1.246
70271SOL     OW12651   5.410  12.560   6.725
70271SOL    HW112652   5.384  12.622   6.794
70271SOL    HW212653   5.438  12.616   6.652
70272SOL     OW12654   1.788  11.904   4.450
70272SOL    HW112655   1.783  11.826   4.504
70272SOL    HW212656   1.779  11.872   4.360
70273SOL     OW12657  11.949   3.774  11.253
70273SOL    HW112658  11.989   3.841  11.198
70273SOL    HW212659  12.023   3.720  11.282
70274SOL     OW12660  10.554  10.189   5.959
70274SOL    HW112661  10.635  10.241   5.956
70274SOL    HW212662  10.497  10.237   6.019
70275SOL     OW12663  10.349  11.656   6.124
70275SOL    HW112664  10.378  11.725   6.184
70275SOL    HW212665  10.352  11.576   6.177
70276SOL     OW12666  14.154   9.597  10.645
70276SOL    HW112667  14.248   9.602  10.629
70276SOL    HW212668  14.120   9.680  10.610
70277SOL     OW12669   9.094   6.370  13.580
70277SOL    HW112670   9.099   6.318  13.500
70277SOL    HW212671   9.018   6.335  13.627
70278SOL     OW12672   1.072   9.253  12.967
70278SOL    HW112673   1.084   9.323  12.903
70278SOL    HW212674   1.106   9.175  12.923
70279SOL     OW12675  11.751   4.188   0.626
70279SOL    HW112676  11.675   4.170   0.681
70279SOL    HW212677  11.714   4.218   0.543
70280SOL     OW12678   5.496   5.427  13.260
70280SOL    HW112679   5.469   5.444  13.350
70280SOL    HW212680   5.521   5.335  13.260
70281SOL     OW12681   3.942  11.830  11.170
70281SOL    HW112682   3.900  11.899  11.222
70281SOL    HW212683   3.992  11.779  11.233
70282SOL     OW12684   6.763   9.551  13.133
70282SOL    HW112685   6.743   9.643  13.120
70282SOL    HW212686   6.748   9.511  13.047
70283SOL     OW12687   2.898   2.002   4.914
70283SOL    HW112688   2.824   2.025   4.970
70283SOL    HW212689   2.884   2.050   4.833
70284SOL     OW12690  10.762  11.989   4.393
70284SOL    HW112691  10.829  12.046   4.355
70284SOL    HW212692  10.793  11.900   4.377
70285SOL     OW12693   1.855  11.887   5.139
70285SOL    HW112694   1.847  11.917   5.230
70285SOL    HW212695   1.827  11.962   5.087
70286SOL     OW12696   1.608   1.279   4.875
70286SOL    HW112697   1.700   1.260   4.854
70286SOL    HW212698   1.562   1.197   4.857
70287SOL     OW12699   1.761   5.384  13.978
70287SOL    HW112700   1.838   5.430  14.011
70287SOL    HW212701   1.690   5.412  14.035
70288SOL     OW12702   5.374  10.509  10.924
70288SOL    HW112703   5.390  10.425  10.968
70288SOL    HW212704   5.346  10.484  10.836
70289SOL     OW12705   9.226   1.849   9.285
70289SOL    HW112706   9.248   1.938   9.313
70289SOL    HW212707   9.310   1.808   9.265
70290SOL     OW12708   4.299  11.744   6.688
70290SOL    HW112709   4.350  11.693   6.624
70290SOL    HW212710   4.209  11.714   6.676
70291SOL     OW12711  14.261   4.692   3.124
70291SOL    HW112712  14.346   4.711   3.163
70291SOL    HW212713  14.278   4.623   3.060
70292SOL     OW12714  10.222   8.997   9.543
70292SOL    HW112715  10.306   8.982   9.588
70292SOL    HW212716  10.159   9.009   9.614
70293SOL     OW12717  10.752  10.475   7.131
70293SOL    HW112718  10.753  10.385   7.165
70293SOL    HW212719  10.737  10.465   7.037
70294SOL     OW12720   3.113   2.379  12.787
70294SOL    HW112721   3.128   2.285  12.794
70294SOL    HW212722   3.084   2.405  12.874
70295SOL     OW12723  10.229   5.008   0.837
70295SOL    HW112724  10.233   5.103   0.836
70295SOL    HW212725  10.215   4.986   0.929
70296SOL     OW12726   9.526  10.525  14.787
70296SOL    HW112727   9.485  10.500  14.704
70296SOL    HW212728   9.535  10.442  14.835
70297SOL     OW12729  10.994  10.061  13.317
70297SOL    HW112730  10.961   9.998  13.381
70297SOL    HW212731  10.972  10.146  13.353
70298SOL     OW12732   9.136   9.224   6.668
70298SOL    HW112733   9.051   9.265   6.685
70298SOL    HW212734   9.116   9.130   6.661
70299SOL     OW12735   0.366   2.812   1.350
70299SOL    HW112736   0.391   2.745   1.286
70299SOL    HW212737   0.270   2.815   1.345
70300SOL     OW12738  10.877   8.245   2.690
70300SOL    HW112739  10.845   8.284   2.771
70300SOL    HW212740  10.843   8.155   2.692
70301SOL     OW12741   9.051   0.533  12.254
70301SOL    HW112742   9.072   0.619  12.217
70301SOL    HW212743   8.988   0.551  12.323
70302SOL     OW12744  14.716   8.650   4.571
70302SOL    HW112745  14.756   8.606   4.646
70302SOL    HW212746  14.717   8.585   4.501
70303SOL     OW12747   6.440   2.069  10.517
70303SOL    HW112748   6.503   2.054  10.446
70303SOL    HW212749   6.484   2.035  10.595
70304SOL     OW12750   3.622   9.290  10.954
70304SOL    HW112751   3.624   9.383  10.931
70304SOL    HW212752   3.561   9.251  10.891
70305SOL     OW12753   8.685  12.537   7.696
70305SOL    HW112754   8.700  12.481   7.621
70305SOL    HW212755   8.683  12.478   7.771
70306SOL     OW12756   7.552   9.697  14.522
70306SOL    HW112757   7.463   9.710  14.488
70306SOL    HW212758   7.571   9.605  14.503
70307SOL     OW12759  13.303   9.821   8.850
70307SOL    HW112760  13.214   9.850   8.827
70307SOL    HW212761  13.291   9.737   8.894
70308SOL     OW12762   9.051   7.745  13.253
70308SOL    HW112763   9.041   7.652  13.270
70308SOL    HW212764   9.090   7.749  13.165
70309SOL     OW12765   5.592   6.050   2.139
70309SOL    HW112766   5.552   5.966   2.164
70309SOL    HW212767   5.533   6.116   2.174
70310SOL     OW12768   7.632  10.491   3.326
70310SOL    HW112769   7.566  10.550   3.289
70310SOL    HW212770   7.583  10.434   3.385
70311SOL     OW12771  12.558  14.206   7.912
70311SOL    HW112772  12.641  14.244   7.883
70311SOL    HW212773  12.499  14.281   7.921
70312SOL     OW12774   8.114   3.165   9.162
70312SOL    HW112775   8.082   3.227   9.097
70312SOL    HW212776   8.045   3.099   9.169
70313SOL     OW12777   7.447   0.402   4.694
70313SOL    HW112778   7.397   0.387   4.774
70313SOL    HW212779   7.458   0.314   4.656
70314SOL     OW12780  13.718   9.293   8.335
70314SOL    HW112781  13.749   9.367   8.284
70314SOL    HW212782  13.736   9.217   8.280
70315SOL     OW12783  11.253  10.522   7.959
70315SOL    HW112784  11.311  10.594   7.935
70315SOL    HW212785  11.165  10.555   7.942
70316SOL     OW12786   2.880   6.744   5.066
70316SOL    HW112787   2.800   6.715   5.023
70316SOL    HW212788   2.850   6.796   5.141
70317SOL     OW12789   0.260  11.511  13.968
70317SOL    HW112790   0.217  11.515  13.883
70317SOL    HW212791   0.258  11.418  13.992
70318SOL     OW12792   2.250  10.600   1.506
70318SOL    HW112793   2.322  10.648   1.465
70318SOL    HW212794   2.279  10.509   1.506
70319SOL     OW12795  12.147   8.619  11.952
70319SOL    HW112796  12.079   8.677  11.917
70319SOL    HW212797  12.197   8.675  12.012
70320SOL     OW12798   0.012   6.703   6.561
70320SOL    HW112799  14.837   6.630   6.522
70320SOL    HW212800   0.057   6.744   6.487
70321SOL     OW12801   1.691  11.702   6.673
70321SOL    HW112802   1.743  11.651   6.611
70321SOL    HW212803   1.675  11.642   6.746
70322SOL     OW12804   5.495   5.009   2.119
70322SOL    HW112805   5.484   4.945   2.190
70322SOL    HW212806   5.556   5.074   2.155
70323SOL     OW12807  10.041   9.623   2.678
70323SOL    HW112808  10.034   9.675   2.598
70323SOL    HW212809  10.026   9.533   2.650
70324SOL     OW12810   1.351   0.645   9.688
70324SOL    HW112811   1.350   0.739   9.668
70324SOL    HW212812   1.287   0.635   9.758
70325SOL     OW12813  11.124  12.350   2.615
70325SOL    HW112814  11.217  12.339   2.595
70325SOL    HW212815  11.080  12.330   2.533
70326SOL     OW12816   6.459   8.007  13.946
70326SOL    HW112817   6.522   8.021  14.017
70326SOL    HW212818   6.389   7.956  13.987
70327SOL     OW12819   5.006   3.640  11.964
70327SOL    HW112820   5.024   3.601  12.050
70327SOL    HW212821   5.092   3.660  11.928
70328SOL     OW12822  13.233   8.677   3.833
70328SOL    HW112823  13.267   8.720   3.754
70328SOL    HW212824  13.167   8.737   3.867
70329SOL     OW12825   4.194   7.046   8.050
70329SOL    HW112826   4.165   7.137   8.057
70329SOL    HW212827   4.219   7.036   7.958
70330SOL     OW12828   6.779   3.528   7.555
70330SOL    HW112829   6.701   3.518   7.609
70330SOL    HW212830   6.767   3.466   7.483
70331SOL     OW12831   1.116  13.666   6.961
70331SOL    HW112832   1.078  13.672   7.049
70331SOL    HW212833   1.192  13.610   6.972
70332SOL     OW12834  10.777  13.334  10.147
70332SOL    HW112835  10.752  13.294  10.064
70332SOL    HW212836  10.706  13.395  10.166
70333SOL     OW12837   9.024   8.778   0.576
70333SOL    HW112838   9.113   8.809   0.561
70333SOL    HW212839   8.991   8.832   0.648
70334SOL     OW12840   9.494  10.306   6.177
70334SOL    HW112841   9.421  10.252   6.148
70334SOL    HW212842   9.482  10.389   6.131
70335SOL     OW12843   2.016   7.065  12.754
70335SOL    HW112844   2.029   7.157  12.732
70335SOL    HW212845   2.081   7.047  12.822
70336SOL     OW12846   8.374   3.719   2.843
70336SOL    HW112847   8.380   3.685   2.933
70336SOL    HW212848   8.465   3.729   2.816
70337SOL     OW12849   3.842   3.174   7.245
70337SOL    HW112850   3.764   3.158   7.191
70337SOL    HW212851   3.819   3.248   7.300
70338SOL     OW12852   0.420   0.191   8.272
70338SOL    HW112853   0.418   0.186   8.367
70338SOL    HW212854   0.444   0.281   8.252
70339SOL     OW12855   0.650   0.295   9.912
70339SOL    HW112856   0.556   0.303   9.925
70339SOL    HW212857   0.680   0.245   9.988
70340SOL     OW12858  14.491   5.694   4.294
70340SOL    HW112859  14.408   5.727   4.260
70340SOL    HW212860  14.489   5.716   4.388
70341SOL     OW12861   5.082   0.819  12.683
70341SOL    HW112862   5.065   0.740  12.734
70341SOL    HW212863   5.120   0.787  12.600
70342SOL     OW12864   8.442   6.281   5.003
70342SOL    HW112865   8.415   6.315   5.088
70342SOL    HW212866   8.385   6.324   4.940
70343SOL     OW12867   3.687  11.943   2.389
70343SOL    HW112868   3.741  11.978   2.460
70343SOL    HW212869   3.734  11.968   2.309
70344SOL     OW12870   6.254   5.050  12.995
70344SOL    HW112871   6.241   5.091  13.080
70344SOL    HW212872   6.226   4.959  13.009
70345SOL     OW12873   6.726   4.948   9.226
70345SOL    HW112874   6.672   4.928   9.150
70345SOL    HW212875   6.714   4.874   9.285
70346SOL     OW12876   5.710   2.628   6.309
70346SOL    HW112877   5.757   2.704   6.343
70346SOL    HW212878   5.618   2.648   6.324
70347SOL     OW12879  10.618   2.304   8.378
70347SOL    HW112880  10.644   2.212   8.373
70347SOL    HW212881  10.561   2.317   8.302
70348SOL     OW12882   9.354   9.405   6.747
70348SOL    HW112883   9.374   9.353   6.669
70348SOL    HW212884   9.310   9.344   6.806
70349SOL     OW12885   4.828  12.909  14.815
70349SOL    HW112886   4.903  12.879  14.763
70349SOL    HW212887   4.860  12.909   0.031
70350SOL     OW12888   4.243  11.781   7.095
70350SOL    HW112889   4.263  11.840   7.167
70350SOL    HW212890   4.325  11.772   7.047
70351SOL     OW12891  12.526  13.910   1.458
70351SOL    HW112892  12.511  14.003   1.438
70351SOL    HW212893  12.620  13.898   1.444
70352SOL     OW12894   8.113   6.755   5.012
70352SOL    HW112895   8.097   6.794   4.926
70352SOL    HW212896   8.096   6.661   5.000
70353SOL     OW12897   7.234   4.720   4.716
70353SOL    HW112898   7.163   4.784   4.713
70353SOL    HW212899   7.192   4.639   4.745
70354SOL     OW12900  12.253  11.017  12.203
70354SOL    HW112901  12.219  11.048  12.287
70354SOL    HW212902  12.221  10.927  12.196
70355SOL     OW12903   0.037  14.534  13.789
70355SOL    HW112904  14.865  14.594  13.847
70355SOL    HW212905   0.097  14.486  13.846
70356SOL     OW12906   3.878   2.400   1.252
70356SOL    HW112907   3.815   2.352   1.198
70356SOL    HW212908   3.827   2.469   1.293
70357SOL     OW12909  14.744   8.492   9.877
70357SOL    HW112910  14.670   8.484   9.937
70357SOL    HW212911  14.819   8.461   9.928
70358SOL     OW12912   1.095  13.702   4.851
70358SOL    HW112913   1.089  13.694   4.947
70358SOL    HW212914   1.122  13.792   4.836
70359SOL     OW12915   2.486   8.729   3.769
70359SOL    HW112916   2.523   8.644   3.746
70359SOL    HW212917   2.392   8.717   3.762
70360SOL     OW12918  11.112   3.439   5.995
70360SOL    HW112919  11.086   3.423   5.904
70360SOL    HW212920  11.103   3.355   6.038
70361SOL     OW12921   8.679   6.321   7.476
70361SOL    HW112922   8.650   6.359   7.559
70361SOL    HW212923   8.710   6.234   7.499
70362SOL     OW12924  13.525   6.836   7.041
70362SOL    HW112925  13.492   6.777   7.109
70362SOL    HW212926  13.510   6.789   6.959
70363SOL     OW12927  14.832  14.261   5.873
70363SOL    HW112928  14.823  14.208   5.794
70363SOL    HW212929  14.742  14.283   5.898
70364SOL     OW12930  10.768   5.742   8.237
70364SOL    HW112931  10.770   5.836   8.219
70364SOL    HW212932  10.713   5.705   8.168
70365SOL     OW12933   6.722   1.905   9.869
70365SOL    HW112934   6.709   1.848   9.793
70365SOL    HW212935   6.683   1.856   9.942
70366SOL     OW12936  14.061   9.298   0.594
70366SOL    HW112937  14.004   9.374   0.602
70366SOL    HW212938  14.146   9.328   0.627
70367SOL     OW12939   1.270   8.601   6.382
70367SOL    HW112940   1.338   8.570   6.322
70367SOL    HW212941   1.258   8.528   6.444
70368SOL     OW12942  14.289  13.595   4.841
70368SOL    HW112943  14.250  13.534   4.904
70368SOL    HW212944  14.275  13.553   4.756
70369SOL     OW12945   3.346   1.495   4.741
70369SOL    HW112946   3.373   1.575   4.696
70369SOL    HW212947   3.428   1.449   4.759
70370SOL     OW12948   0.598   6.507   8.973
70370SOL    HW112949   0.589   6.548   8.887
70370SOL    HW212950   0.528   6.441   8.975
70371SOL     OW12951   6.504   7.333  12.260
70371SOL    HW112952   6.558   7.331  12.181
70371SOL    HW212953   6.549   7.396  12.317
70372SOL     OW12954   4.788  10.498  11.933
70372SOL    HW112955   4.817  10.584  11.903
70372SOL    HW212956   4.693  10.503  11.933
70373SOL     OW12957  14.099   0.019   9.388
70373SOL    HW112958  14.030   0.036   9.452
70373SOL    HW212959  14.091  14.800   9.368
70374SOL     OW12960   2.671   7.810   7.730
70374SOL    HW112961   2.748   7.773   7.774
70374SOL    HW212962   2.702   7.834   7.643
70375SOL     OW12963   1.951   0.516  12.563
70375SOL    HW112964   2.038   0.476  12.559
70375SOL    HW212965   1.953   0.571  12.641
70376SOL     OW12966   8.275   1.666  14.632
70376SOL    HW112967   8.327   1.605  14.579
70376SOL    HW212968   8.286   1.751  14.588
70377SOL     OW12969   4.240   7.339   1.241
70377SOL    HW112970   4.332   7.318   1.258
70377SOL    HW212971   4.207   7.263   1.193
70378SOL     OW12972  13.446   0.650   6.319
70378SOL    HW112973  13.540   0.665   6.331
70378SOL    HW212974  13.419   0.604   6.399
70379SOL     OW12975   3.794   1.467   4.093
70379SOL    HW112976   3.721   1.516   4.055
70379SOL    HW212977   3.752   1.401   4.149
70380SOL     OW12978   9.167  14.334   5.756
70380SOL    HW112979   9.189  14.427   5.759
70380SOL    HW212980   9.252  14.289   5.756
70381SOL     OW12981   5.212  14.307   1.946
70381SOL    HW112982   5.131  14.348   1.976
70381SOL    HW212983   5.223  14.231   2.002
70382SOL     OW12984   5.608   3.081   7.551
70382SOL    HW112985   5.607   3.080   7.455
70382SOL    HW212986   5.636   2.993   7.575
70383SOL     OW12987   5.564  14.692  10.497
70383SOL    HW112988   5.530  14.696  10.407
70383SOL    HW212989   5.607  14.607  10.503
70384SOL     OW12990  13.715   5.547   8.105
70384SOL    HW112991  13.622   5.526   8.110
70384SOL    HW212992  13.759   5.474   8.149
70385SOL     OW12993   1.833   4.632   8.468
70385SOL    HW112994   1.872   4.709   8.426
70385SOL    HW212995   1.803   4.664   8.553
70386SOL     OW12996  13.031   7.866   4.272
70386SOL    HW112997  13.000   7.812   4.200
70386SOL    HW212998  12.957   7.923   4.294
70387SOL     OW12999   4.527   4.754  14.259
70387SOL    HW113000   4.556   4.816  14.326
70387SOL    HW213001   4.476   4.689  14.306
70388SOL     OW13002  13.843  13.621   4.487
70388SOL    HW113003  13.889  13.598   4.407
70388SOL    HW213004  13.905  13.602   4.557
70389SOL     OW13005   6.876  12.779  12.029
70389SOL    HW113006   6.958  12.741  11.996
70389SOL    HW213007   6.902  12.830  12.105
70390SOL     OW13008   7.435   9.672  13.674
70390SOL    HW113009   7.506   9.614  13.700
70390SOL    HW213010   7.422   9.655  13.581
70391SOL     OW13011   0.574   3.227   6.057
70391SOL    HW113012   0.553   3.169   5.984
70391SOL    HW213013   0.610   3.305   6.016
70392SOL     OW13014  13.654  10.103  12.136
70392SOL    HW113015  13.596  10.064  12.202
70392SOL    HW213016  13.742  10.078  12.163
70393SOL     OW13017  11.216  14.151  11.943
70393SOL    HW113018  11.291  14.114  11.988
70393SOL    HW213019  11.151  14.081  11.943
70394SOL     OW13020  12.024   3.742   2.408
70394SOL    HW113021  12.063   3.820   2.448
70394SOL    HW213022  12.094   3.677   2.408
70395SOL     OW13023   7.468   4.675  10.903
70395SOL    HW113024   7.446   4.632  10.820
70395SOL    HW213025   7.396   4.737  10.917
70396SOL     OW13026  11.717   2.632   6.359
70396SOL    HW113027  11.642   2.681   6.394
70396SOL    HW213028  11.699   2.541   6.382
70397SOL     OW13029   2.286  12.153   1.574
70397SOL    HW113030   2.197  12.133   1.546
70397SOL    HW213031   2.282  12.244   1.603
70398SOL     OW13032   3.755   0.222   8.203
70398SOL    HW113033   3.715   0.237   8.289
70398SOL    HW213034   3.813   0.296   8.190
70399SOL     OW13035   3.058   7.066   8.682
70399SOL    HW113036   2.996   7.016   8.628
70399SOL    HW213037   3.135   7.009   8.689
70400SOL     OW13038   3.986  13.426   6.121
70400SOL    HW113039   3.918  13.493   6.118
70400SOL    HW213040   3.952  13.360   6.182
70401SOL     OW13041  11.055  11.267   6.509
70401SOL    HW113042  11.018  11.344   6.467
70401SOL    HW213043  11.146  11.291   6.526
70402SOL     OW13044   7.878   7.274   4.853
70402SOL    HW113045   7.841   7.361   4.869
70402SOL    HW213046   7.901   7.241   4.940
70403SOL     OW13047  11.617   1.579  13.482
70403SOL    HW113048  11.643   1.641  13.551
70403SOL    HW213049  11.601   1.633  13.405
70404SOL     OW13050   1.223   3.489   9.542
70404SOL    HW113051   1.187   3.433   9.474
70404SOL    HW213052   1.305   3.521   9.506
70405SOL     OW13053   9.956   8.423   8.114
70405SOL    HW113054   9.998   8.461   8.191
70405SOL    HW213055   9.872   8.469   8.108
70406SOL     OW13056   4.705   5.118   9.603
70406SOL    HW113057   4.666   5.091   9.520
70406SOL    HW213058   4.693   5.213   9.604
70407SOL     OW13059  12.146   3.888  10.405
70407SOL    HW113060  12.079   3.913  10.341
70407SOL    HW213061  12.223   3.868  10.353
70408SOL     OW13062   8.749   8.987   0.969
70408SOL    HW113063   8.694   8.992   0.891
70408SOL    HW213064   8.730   8.900   1.005
70409SOL     OW13065  13.919  12.414   9.812
70409SOL    HW113066  13.943  12.436   9.722
70409SOL    HW213067  13.990  12.357   9.843
70410SOL     OW13068   6.943  14.467   5.959
70410SOL    HW113069   6.855  14.457   5.995
70410SOL    HW213070   7.001  14.458   6.035
70411SOL     OW13071  13.571   3.792   1.095
70411SOL    HW113072  13.614   3.819   1.014
70411SOL    HW213073  13.612   3.846   1.163
70412SOL     OW13074   7.574   1.115   7.334
70412SOL    HW113075   7.511   1.075   7.395
70412SOL    HW213076   7.605   1.043   7.281
70413SOL     OW13077   0.463   6.732  12.585
70413SOL    HW113078   0.479   6.639  12.599
70413SOL    HW213079   0.433   6.764  12.671
70414SOL     OW13080   5.132   1.791   5.741
70414SOL    HW113081   5.222   1.762   5.725
70414SOL    HW213082   5.130   1.882   5.710
70415SOL     OW13083   6.067  13.393   7.048
70415SOL    HW113084   6.112  13.310   7.061
70415SOL    HW213085   6.068  13.435   7.134
70416SOL     OW13086  12.349   5.874   3.363
70416SOL    HW113087  12.360   5.842   3.274
70416SOL    HW213088  12.413   5.825   3.415
70417SOL     OW13089   3.001   0.919   8.073
70417SOL    HW113090   2.993   0.958   8.160
70417SOL    HW213091   2.911   0.904   8.045
70418SOL     OW13092   1.681   0.670   6.169
70418SOL    HW113093   1.615   0.645   6.105
70418SOL    HW213094   1.660   0.761   6.191
70419SOL     OW13095   9.151   3.111   8.297
70419SOL    HW113096   9.201   3.063   8.230
70419SOL    HW213097   9.063   3.118   8.260
70420SOL     OW13098   3.239   2.889  10.448
70420SOL    HW113099   3.234   2.981  10.421
70420SOL    HW213100   3.286   2.846  10.377
70421SOL     OW13101   8.757  13.327   9.176
70421SOL    HW113102   8.773  13.233   9.188
70421SOL    HW213103   8.770  13.341   9.082
70422SOL     OW13104   1.545   1.229   7.926
70422SOL    HW113105   1.561   1.318   7.896
70422SOL    HW213106   1.507   1.239   8.013
70423SOL     OW13107  11.307   0.393   4.482
70423SOL    HW113108  11.298   0.373   4.575
70423SOL    HW213109  11.379   0.456   4.478
70424SOL     OW13110   0.552   0.258   1.034
70424SOL    HW113111   0.495   0.331   1.008
70424SOL    HW213112   0.496   0.200   1.085
70425SOL     OW13113  13.987   5.652   8.945
70425SOL    HW113114  14.010   5.745   8.950
70425SOL    HW213115  13.923   5.640   9.014
70426SOL     OW13116   2.417  12.405   4.286
70426SOL    HW113117   2.452  12.448   4.365
70426SOL    HW213118   2.373  12.327   4.319
70427SOL     OW13119   7.811   2.846   1.738
70427SOL    HW113120   7.859   2.777   1.783
70427SOL    HW213121   7.743   2.801   1.689
70428SOL     OW13122  13.424   3.757   7.974
70428SOL    HW113123  13.420   3.852   7.978
70428SOL    HW213124  13.515   3.736   7.994
70429SOL     OW13125   7.088  13.707   7.672
70429SOL    HW113126   7.089  13.618   7.636
70429SOL    HW213127   7.066  13.763   7.597
70430SOL     OW13128  10.550   1.274   1.369
70430SOL    HW113129  10.478   1.243   1.425
70430SOL    HW213130  10.627   1.229   1.403
70431SOL     OW13131  12.769   7.173   2.178
70431SOL    HW113132  12.811   7.229   2.243
70431SOL    HW213133  12.689   7.220   2.154
70432SOL     OW13134   0.960   2.317   7.508
70432SOL    HW113135   0.918   2.402   7.495
70432SOL    HW213136   0.981   2.287   7.419
70433SOL     OW13137   0.378   0.863   3.642
70433SOL    HW113138   0.445   0.896   3.703
70433SOL    HW213139   0.295   0.891   3.681
70434SOL     OW13140   3.069   6.206   7.330
70434SOL    HW113141   3.145   6.186   7.275
70434SOL    HW213142   3.005   6.244   7.270
70435SOL     OW13143   9.891   6.402  10.683
70435SOL    HW113144   9.863   6.415  10.592
70435SOL    HW213145   9.976   6.447  10.688
70436SOL     OW13146  11.788  12.691   4.300
70436SOL    HW113147  11.774  12.654   4.213
70436SOL    HW213148  11.883  12.702   4.307
70437SOL     OW13149   7.861   2.930   2.887
70437SOL    HW113150   7.829   3.015   2.855
70437SOL    HW213151   7.782   2.882   2.912
70438SOL     OW13152   1.626   5.113   4.026
70438SOL    HW113153   1.678   5.178   3.978
70438SOL    HW213154   1.690   5.052   4.061
70439SOL     OW13155   6.607   2.796   5.066
70439SOL    HW113156   6.536   2.857   5.087
70439SOL    HW213157   6.675   2.851   5.029
70440SOL     OW13158  11.201   2.583   7.266
70440SOL    HW113159  11.155   2.529   7.203
70440SOL    HW213160  11.139   2.594   7.339
70441SOL     OW13161  10.742   1.554  14.711
70441SOL    HW113162  10.829   1.541  14.749
70441SOL    HW213163  10.702   1.467  14.713
70442SOL     OW13164   8.494   2.044   5.689
70442SOL    HW113165   8.448   1.983   5.747
70442SOL    HW213166   8.425   2.101   5.655
70443SOL     OW13167   8.305  13.642  10.627
70443SOL    HW113168   8.390  13.672  10.656
70443SOL    HW213169   8.274  13.710  10.567
70444SOL     OW13170   9.683  14.059  11.856
70444SOL    HW113171   9.626  14.088  11.926
70444SOL    HW213172   9.671  13.964  11.853
70445SOL     OW13173   5.461   4.081  13.726
70445SOL    HW113174   5.397   4.084  13.655
70445SOL    HW213175   5.444   4.161  13.776
70446SOL     OW13176   0.761   9.834   4.729
70446SOL    HW113177   0.846   9.853   4.768
70446SOL    HW213178   0.727   9.919   4.701
70447SOL     OW13179   1.827   0.019   0.933
70447SOL    HW113180   1.867   0.083   0.874
70447SOL    HW213181   1.733   0.027   0.918
70448SOL     OW13182   3.809   0.989   7.382
70448SOL    HW113183   3.803   1.036   7.299
70448SOL    HW213184   3.830   0.899   7.357
70449SOL     OW13185  13.784   6.247  14.800
70449SOL    HW113186  13.762   6.161  14.837
70449SOL    HW213187  13.763   6.309  14.870
70450SOL     OW13188   9.517   4.036   3.499
70450SOL    HW113189   9.540   3.948   3.527
70450SOL    HW213190   9.453   4.065   3.564
70451SOL     OW13191   4.213   4.904  13.666
70451SOL    HW113192   4.300   4.935  13.641
70451SOL    HW213193   4.194   4.833  13.605
70452SOL     OW13194   0.989  10.798   8.023
70452SOL    HW113195   0.908  10.784   7.974
70452SOL    HW213196   1.058  10.766   7.965
70453SOL     OW13197  10.021   3.497  12.907
70453SOL    HW113198  10.028   3.541  12.823
70453SOL    HW213199   9.943   3.443  12.899
70454SOL     OW13200   8.473   0.596  10.085
70454SOL    HW113201   8.539   0.526  10.089
70454SOL    HW213202   8.524   0.677  10.095
70455SOL     OW13203   4.801  12.386   6.697
70455SOL    HW113204   4.789  12.304   6.647
70455SOL    HW213205   4.760  12.368   6.781
70456SOL     OW13206   5.104  12.453   6.908
70456SOL    HW113207   5.127  12.379   6.852
70456SOL    HW213208   5.172  12.455   6.976
70457SOL     OW13209   1.830   7.665  14.415
70457SOL    HW113210   1.855   7.582  14.375
70457SOL    HW213211   1.851   7.655  14.508
70458SOL     OW13212   6.295  11.198   5.208
70458SOL    HW113213   6.327  11.287   5.193
70458SOL    HW213214   6.265  11.169   5.121
70459SOL     OW13215   3.905   3.689  13.993
70459SOL    HW113216   3.960   3.612  14.007
70459SOL    HW213217   3.965   3.756  13.962
70460SOL     OW13218   3.862  13.289   3.097
70460SOL    HW113219   3.895  13.258   3.182
70460SOL    HW213220   3.884  13.218   3.036
70461SOL     OW13221  11.021   2.604   3.171
70461SOL    HW113222  10.987   2.539   3.232
70461SOL    HW213223  11.016   2.561   3.085
70462SOL     OW13224   6.167  10.889   5.739
70462SOL    HW113225   6.110  10.924   5.670
70462SOL    HW213226   6.112  10.886   5.817
70463SOL     OW13227  11.273   9.863   0.855
70463SOL    HW113228  11.283   9.908   0.771
70463SOL    HW213229  11.304   9.925   0.920
70464SOL     OW13230   1.700  13.767   9.905
70464SOL    HW113231   1.651  13.848   9.893
70464SOL    HW213232   1.673  13.736   9.992
70465SOL     OW13233   3.024   5.730   0.348
70465SOL    HW113234   3.013   5.820   0.377
70465SOL    HW213235   2.936   5.700   0.326
70466SOL     OW13236   6.230   5.749  13.561
70466SOL    HW113237   6.285   5.678  13.527
70466SOL    HW213238   6.289   5.824  13.568
70467SOL     OW13239   6.873  10.616  11.138
70467SOL    HW113240   6.964  10.593  11.122
70467SOL    HW213241   6.827  10.587  11.059
70468SOL     OW13242   7.178   0.059   8.125
70468SOL    HW113243   7.152  14.843   8.146
70468SOL    HW213244   7.206   0.095   8.209
70469SOL     OW13245   1.637   9.237   6.036
70469SOL    HW113246   1.610   9.240   5.945
70469SOL    HW213247   1.602   9.318   6.075
70470SOL     OW13248   5.649  11.187  13.568
70470SOL    HW113249   5.720  11.156  13.623
70470SOL    HW213250   5.589  11.231  13.628
70471SOL     OW13251  10.425   4.813   8.284
70471SOL    HW113252  10.500   4.866   8.313
70471SOL    HW213253  10.424   4.738   8.344
70472SOL     OW13254   1.654  10.395   7.318
70472SOL    HW113255   1.616  10.478   7.347
70472SOL    HW213256   1.667  10.345   7.399
70473SOL     OW13257  11.275   9.054   8.142
70473SOL    HW113258  11.279   9.146   8.117
70473SOL    HW213259  11.185   9.027   8.121
70474SOL     OW13260   0.408  11.680   8.273
70474SOL    HW113261   0.496  11.644   8.278
70474SOL    HW213262   0.373  11.646   8.191
70475SOL     OW13263   8.013  12.538   0.779
70475SOL    HW113264   7.936  12.555   0.724
70475SOL    HW213265   7.978  12.501   0.860
70476SOL     OW13266   8.394  11.205   5.880
70476SOL    HW113267   8.420  11.272   5.817
70476SOL    HW213268   8.393  11.124   5.830
70477SOL     OW13269   8.708  10.486  10.084
70477SOL    HW113270   8.739  10.541  10.012
70477SOL    HW213271   8.619  10.461  10.058
70478SOL     OW13272   7.157   1.531  13.809
70478SOL    HW113273   7.195   1.615  13.834
70478SOL    HW213274   7.134   1.541  13.716
70479SOL     OW13275   1.498   0.110   7.084
70479SOL    HW113276   1.465   0.038   7.137
70479SOL    HW213277   1.427   0.131   7.024
70480SOL     OW13278   6.757  12.153  11.602
70480SOL    HW113279   6.808  12.231  11.624
70480SOL    HW213280   6.814  12.102  11.545
70481SOL     OW13281  10.881   8.868   5.878
70481SOL    HW113282  10.898   8.962   5.881
70481SOL    HW213283  10.843   8.847   5.963
70482SOL     OW13284  11.127   7.152   5.103
70482SOL    HW113285  11.084   7.190   5.180
70482SOL    HW213286  11.141   7.227   5.045
70483SOL     OW13287  13.351   3.777  14.765
70483SOL    HW113288  13.397   3.712  14.713
70483SOL    HW213289  13.404   3.787  14.844
70484SOL     OW13290   2.173   6.389  10.407
70484SOL    HW113291   2.114   6.341  10.349
70484SOL    HW213292   2.150   6.481  10.394
70485SOL     OW13293   9.209  12.872   1.657
70485SOL    HW113294   9.236  12.791   1.700
70485SOL    HW213295   9.290  12.922   1.645
70486SOL     OW13296   8.174   9.935   5.947
70486SOL    HW113297   8.161   9.878   5.871
70486SOL    HW213298   8.266   9.961   5.942
70487SOL     OW13299   4.508   6.506   2.415
70487SOL    HW113300   4.456   6.524   2.493
70487SOL    HW213301   4.503   6.412   2.403
70488SOL     OW13302   1.988   7.073   6.267
70488SOL    HW113303   1.967   6.981   6.287
70488SOL    HW213304   2.077   7.070   6.233
70489SOL     OW13305  13.662  13.336  14.711
70489SOL    HW113306  13.707  13.360  14.631
70489SOL    HW213307  13.644  13.420  14.755
70490SOL     OW13308   7.141   4.239  14.725
70490SOL    HW113309   7.198   4.309  14.695
70490SOL    HW213310   7.129   4.256  14.819
70491SOL     OW13311  11.905  12.617   3.382
70491SOL    HW113312  11.855  12.637   3.462
70491SOL    HW213313  11.942  12.530   3.398
70492SOL     OW13314   5.414  12.736  10.083
70492SOL    HW113315   5.338  12.794  10.078
70492SOL    HW213316   5.399  12.673  10.012
70493SOL     OW13317   5.583   6.234  11.797
70493SOL    HW113318   5.618   6.274  11.717
70493SOL    HW213319   5.565   6.144  11.772
70494SOL     OW13320  14.546  10.605  13.812
70494SOL    HW113321  14.473  10.642  13.863
70494SOL    HW213322  14.579  10.533  13.865
70495SOL     OW13323   4.494   4.491  12.172
70495SOL    HW113324   4.519   4.497  12.264
70495SOL    HW213325   4.503   4.580  12.139
70496SOL     OW13326  13.593   2.214  11.534
70496SOL    HW113327  13.582   2.258  11.618
70496SOL    HW213328  13.506   2.216  11.495
70497SOL     OW13329   2.700  14.458  14.119
70497SOL    HW113330   2.745  14.537  14.149
70497SOL    HW213331   2.728  14.390  14.181
70498SOL     OW13332   3.752  13.726  12.996
70498SOL    HW113333   3.693  13.769  12.934
70498SOL    HW213334   3.756  13.635  12.967
70499SOL     OW13335  11.439   0.009   8.951
70499SOL    HW113336  11.370   0.048   9.004
70499SOL    HW213337  11.412   0.026   8.861
70500SOL     OW13338   6.235   8.672  12.566
70500SOL    HW113339   6.281   8.617  12.502
70500SOL    HW213340   6.145   8.641  12.564
70501SOL     OW13341  13.868  11.035  12.226
70501SOL    HW113342  13.904  11.066  12.142
70501SOL    HW213343  13.893  10.943  12.230
70502SOL     OW13344  11.935   8.978  13.898
70502SOL    HW113345  11.844   8.973  13.870
70502SOL    HW213346  11.946   9.068  13.929
70503SOL     OW13347   3.181  14.273   9.630
70503SOL    HW113348   3.116  14.203   9.624
70503SOL    HW213349   3.164  14.328   9.554
70504SOL     OW13350   4.821   4.414  12.143
70504SOL    HW113351   4.847   4.460  12.223
70504SOL    HW213352   4.799   4.484  12.082
70505SOL     OW13353   6.003   1.453  14.582
70505SOL    HW113354   6.012   1.366  14.622
70505SOL    HW213355   6.069   1.507  14.626
70506SOL     OW13356  14.337   9.865   8.050
70506SOL    HW113357  14.247   9.833   8.042
70506SOL    HW213358  14.387   9.787   8.073
70507SOL     OW13359   2.538   1.827   3.417
70507SOL    HW113360   2.517   1.761   3.350
70507SOL    HW213361   2.465   1.822   3.479
70508SOL     OW13362  12.364   7.562   0.688
70508SOL    HW113363  12.448   7.591   0.724
70508SOL    HW213364  12.380   7.554   0.594
70509SOL     OW13365   3.301  12.262  12.008
70509SOL    HW113366   3.290  12.207  11.930
70509SOL    HW213367   3.388  12.241  12.041
70510SOL     OW13368  10.195   4.781   0.481
70510SOL    HW113369  10.141   4.851   0.518
70510SOL    HW213370  10.197   4.713   0.549
70511SOL     OW13371   3.201   2.706   9.709
70511SOL    HW113372   3.275   2.742   9.758
70511SOL    HW213373   3.144   2.670   9.777
70512SOL     OW13374   0.671  12.742   4.408
70512SOL    HW113375   0.604  12.809   4.397
70512SOL    HW213376   0.623  12.661   4.425
70513SOL     OW13377   1.204   4.541   7.119
70513SOL    HW113378   1.199   4.449   7.093
70513SOL    HW213379   1.113   4.566   7.136
70514SOL     OW13380  13.432  14.623   9.188
70514SOL    HW113381  13.522  14.643   9.162
70514SOL    HW213382  13.434  14.530   9.210
70515SOL     OW13383   7.498  13.225  12.146
70515SOL    HW113384   7.571  13.198  12.201
70515SOL    HW213385   7.450  13.289  12.199
70516SOL     OW13386  14.001   5.576   0.397
70516SOL    HW113387  14.032   5.564   0.487
70516SOL    HW213388  13.981   5.670   0.392
70517SOL     OW13389   7.793   3.758   6.793
70517SOL    HW113390   7.828   3.736   6.879
70517SOL    HW213391   7.708   3.797   6.810
70518SOL     OW13392  12.261   4.380   5.205
70518SOL    HW113393  12.208   4.301   5.207
70518SOL    HW213394  12.265   4.404   5.112
70519SOL     OW13395  14.113   7.475   4.756
70519SOL    HW113396  14.155   7.403   4.708
70519SOL    HW213397  14.070   7.433   4.830
70520SOL     OW13398   2.608  11.255   7.551
70520SOL    HW113399   2.580  11.213   7.470
70520SOL    HW213400   2.531  11.250   7.608
70521SOL     OW13401  14.686   3.892   1.683
70521SOL    HW113402  14.695   3.855   1.771
70521SOL    HW213403  14.642   3.976   1.697
70522SOL     OW13404  10.564   2.114   1.242
70522SOL    HW113405  10.529   2.028   1.266
70522SOL    HW213406  10.500   2.177   1.275
70523SOL     OW13407   8.934   9.655   0.998
70523SOL    HW113408   9.028   9.645   0.982
70523SOL    HW213409   8.893   9.610   0.923
70524SOL     OW13410   2.730   0.124   6.922
70524SOL    HW113411   2.663   0.071   6.965
70524SOL    HW213412   2.769   0.175   6.992
70525SOL     OW13413   5.718   7.163  10.262
70525SOL    HW113414   5.738   7.078  10.303
70525SOL    HW213415   5.803   7.198  10.237
70526SOL     OW13416   6.355   6.678  13.567
70526SOL    HW113417   6.263   6.695  13.544
70526SOL    HW213418   6.375   6.743  13.634
70527SOL     OW13419   1.864  13.052   1.719
70527SOL    HW113420   1.842  13.141   1.746
70527SOL    HW213421   1.956  13.056   1.694
70528SOL     OW13422  10.888   2.054   0.090
70528SOL    HW113423  10.955   2.112   0.128
70528SOL    HW213424  10.810   2.109   0.082
70529SOL     OW13425  14.040  10.381   1.644
70529SOL    HW113426  13.965  10.372   1.703
70529SOL    HW213427  14.001  10.381   1.557
70530SOL     OW13428  10.069  11.385  12.974
70530SOL    HW113429  10.037  11.395  13.063
70530SOL    HW213430  10.149  11.333  12.982
70531SOL     OW13431   0.319  13.257   4.647
70531SOL    HW113432   0.405  13.259   4.690
70531SOL    HW213433   0.258  13.288   4.714
70532SOL     OW13434   6.354  11.795   3.860
70532SOL    HW113435   6.339  11.845   3.780
70532SOL    HW213436   6.280  11.735   3.865
70533SOL     OW13437   5.206   1.579   7.688
70533SOL    HW113438   5.202   1.606   7.596
70533SOL    HW213439   5.247   1.493   7.686
70534SOL     OW13440   6.102   5.108  11.191
70534SOL    HW113441   6.191   5.072  11.190
70534SOL    HW213442   6.108   5.183  11.251
70535SOL     OW13443   7.458   8.551   7.560
70535SOL    HW113444   7.487   8.591   7.641
70535SOL    HW213445   7.524   8.484   7.541
70536SOL     OW13446   3.774   7.378   0.982
70536SOL    HW113447   3.708   7.375   0.913
70536SOL    HW213448   3.830   7.452   0.958
70537SOL     OW13449   3.172   3.444  13.991
70537SOL    HW113450   3.263   3.420  14.011
70537SOL    HW213451   3.158   3.527  14.037
70538SOL     OW13452   5.050   9.866   8.645
70538SOL    HW113453   5.045   9.808   8.569
70538SOL    HW213454   5.094   9.944   8.613
70539SOL     OW13455   9.192   2.592   3.619
70539SOL    HW113456   9.266   2.645   3.592
70539SOL    HW213457   9.121   2.655   3.633
70540SOL     OW13458   4.304   1.984  10.658
70540SOL    HW113459   4.237   1.966  10.592
70540SOL    HW213460   4.266   2.053  10.713
70541SOL     OW13461   9.314   9.554   8.302
70541SOL    HW113462   9.247   9.522   8.363
70541SOL    HW213463   9.378   9.483   8.297
70542SOL     OW13464   6.611  14.299   5.190
70542SOL    HW113465   6.607  14.259   5.277
70542SOL    HW213466   6.550  14.248   5.137
70543SOL     OW13467   3.003   0.446   8.575
70543SOL    HW113468   2.917   0.483   8.596
70543SOL    HW213469   3.002   0.438   8.480
70544SOL     OW13470   9.439   0.772   8.028
70544SOL    HW113471   9.406   0.829   8.097
70544SOL    HW213472   9.448   0.686   8.069
70545SOL     OW13473  14.571   0.462   3.538
70545SOL    HW113474  14.538   0.467   3.628
70545SOL    HW213475  14.512   0.518   3.488
70546SOL     OW13476   9.285   9.303   1.078
70546SOL    HW113477   9.206   9.345   1.113
70546SOL    HW213478   9.282   9.214   1.114
70547SOL     OW13479   7.940   9.582   1.009
70547SOL    HW113480   7.960   9.501   1.055
70547SOL    HW213481   7.873   9.625   1.063
70548SOL     OW13482   5.022   2.415  12.563
70548SOL    HW113483   5.106   2.380  12.532
70548SOL    HW213484   5.028   2.509  12.551
70549SOL     OW13485   9.529  11.412  12.081
70549SOL    HW113486   9.474  11.369  12.146
70549SOL    HW213487   9.609  11.360  12.080
70550SOL     OW13488   2.172   0.871  12.946
70550SOL    HW113489   2.250   0.828  12.982
70550SOL    HW213490   2.162   0.950  12.998
70551SOL     OW13491   3.199   2.418  11.325
70551SOL    HW113492   3.253   2.395  11.401
70551SOL    HW213493   3.192   2.514  11.330
70552SOL     OW13494  12.265   8.228  13.607
70552SOL    HW113495  12.353   8.242  13.640
70552SOL    HW213496  12.272   8.241  13.512
70553SOL     OW13497   8.423   6.445  11.546
70553SOL    HW113498   8.495   6.447  11.609
70553SOL    HW213499   8.440   6.518  11.487
70554SOL     OW13500   6.476  10.830   2.085
70554SOL    HW113501   6.484  10.855   1.993
70554SOL    HW213502   6.548  10.875   2.129
70555SOL     OW13503   5.366  11.567  11.576
70555SOL    HW113504   5.333  11.485  11.612
70555SOL    HW213505   5.296  11.631  11.592
70556SOL     OW13506   7.950  11.480  13.883
70556SOL    HW113507   8.037  11.509  13.912
70556SOL    HW213508   7.922  11.419  13.952
70557SOL     OW13509  10.253  13.561   2.837
70557SOL    HW113510  10.253  13.567   2.932
70557SOL    HW213511  10.230  13.470   2.818
70558SOL     OW13512  10.584  12.107   2.748
70558SOL    HW113513  10.674  12.093   2.778
70558SOL    HW213514  10.539  12.146   2.822
70559SOL     OW13515   4.449  12.505   5.764
70559SOL    HW113516   4.412  12.435   5.818
70559SOL    HW213517   4.496  12.460   5.695
70560SOL     OW13518   3.077   9.175  11.783
70560SOL    HW113519   3.120   9.260  11.781
70560SOL    HW213520   3.148   9.113  11.803
70561SOL     OW13521  10.248   8.915   3.718
70561SOL    HW113522  10.335   8.923   3.758
70561SOL    HW213523  10.189   8.903   3.793
70562SOL     OW13524   6.445   0.725   9.700
70562SOL    HW113525   6.513   0.667   9.666
70562SOL    HW213526   6.363   0.683   9.674
70563SOL     OW13527  14.806   5.510   0.191
70563SOL    HW113528  14.847   5.505   0.104
70563SOL    HW213529  14.860   5.572   0.239
70564SOL     OW13530   2.763   2.065   8.997
70564SOL    HW113531   2.754   2.137   9.059
70564SOL    HW213532   2.854   2.035   9.008
70565SOL     OW13533   6.927   7.178   9.990
70565SOL    HW113534   6.864   7.233  10.036
70565SOL    HW213535   7.004   7.234   9.977
70566SOL     OW13536   8.971   4.695   8.387
70566SOL    HW113537   8.912   4.763   8.356
70566SOL    HW213538   8.914   4.629   8.425
70567SOL     OW13539  11.582   2.663  13.213
70567SOL    HW113540  11.636   2.588  13.238
70567SOL    HW213541  11.496   2.625  13.193
70568SOL     OW13542   6.568  14.686  11.703
70568SOL    HW113543   6.594  14.653  11.617
70568SOL    HW213544   6.637  14.655  11.762
70569SOL     OW13545   0.922   1.078  12.921
70569SOL    HW113546   0.926   0.997  12.871
70569SOL    HW213547   0.972   1.141  12.870
70570SOL     OW13548  12.964   8.913  10.106
70570SOL    HW113549  12.896   8.944  10.045
70570SOL    HW213550  13.016   8.991  10.126
70571SOL     OW13551   1.235   7.873  12.056
70571SOL    HW113552   1.229   7.872  11.961
70571SOL    HW213553   1.253   7.964  12.079
70572SOL     OW13554   2.366   4.080   6.496
70572SOL    HW113555   2.286   4.087   6.445
70572SOL    HW213556   2.393   3.988   6.486
70573SOL     OW13557  13.382   7.052  11.089
70573SOL    HW113558  13.398   6.997  11.012
70573SOL    HW213559  13.363   6.991  11.160
70574SOL     OW13560   7.239   2.692  14.301
70574SOL    HW113561   7.299   2.694  14.226
70574SOL    HW213562   7.294   2.711  14.377
70575SOL     OW13563  13.744   0.557  14.269
70575SOL    HW113564  13.662   0.593  14.302
70575SOL    HW213565  13.749   0.586  14.178
70576SOL     OW13566   3.353  12.042   6.690
70576SOL    HW113567   3.414  12.042   6.764
70576SOL    HW213568   3.327  11.950   6.681
70577SOL     OW13569  12.579   6.897   4.601
70577SOL    HW113570  12.591   6.912   4.507
70577SOL    HW213571  12.547   6.980   4.635
70578SOL     OW13572   3.130   5.892  12.724
70578SOL    HW113573   3.063   5.839  12.768
70578SOL    HW213574   3.152   5.842  12.645
70579SOL     OW13575  12.649   3.676  12.457
70579SOL    HW113576  12.677   3.630  12.378
70579SOL    HW213577  12.571   3.724  12.430
70580SOL     OW13578  14.168   5.438  14.389
70580SOL    HW113579  14.080   5.410  14.364
70580SOL    HW213580  14.217   5.356  14.398
70581SOL     OW13581   1.611   1.694  13.753
70581SOL    HW113582   1.579   1.604  13.744
70581SOL    HW213583   1.552   1.733  13.818
70582SOL     OW13584   6.970   3.187   8.459
70582SOL    HW113585   6.964   3.236   8.377
70582SOL    HW213586   6.995   3.252   8.524
70583SOL     OW13587   8.637   5.260   2.975
70583SOL    HW113588   8.718   5.222   2.940
70583SOL    HW213589   8.660   5.349   2.999
70584SOL     OW13590  10.987   8.981   5.225
70584SOL    HW113591  10.998   9.024   5.310
70584SOL    HW213592  11.050   8.909   5.226
70585SOL     OW13593  10.330   4.010   8.180
70585SOL    HW113594  10.240   3.996   8.151
70585SOL    HW213595  10.378   3.935   8.145
70586SOL     OW13596   7.424   2.194   6.350
70586SOL    HW113597   7.374   2.273   6.371
70586SOL    HW213598   7.506   2.226   6.314
70587SOL     OW13599   3.610  12.792   4.858
70587SOL    HW113600   3.545  12.857   4.885
70587SOL    HW213601   3.567  12.743   4.788
70588SOL     OW13602   1.024   1.158  10.635
70588SOL    HW113603   1.005   1.231  10.694
70588SOL    HW213604   1.114   1.132  10.658
70589SOL     OW13605   7.048   3.980   6.551
70589SOL    HW113606   6.954   3.981   6.570
70589SOL    HW213607   7.055   4.018   6.463
70590SOL     OW13608   0.852   8.503   8.372
70590SOL    HW113609   0.923   8.446   8.345
70590SOL    HW213610   0.877   8.590   8.339
70591SOL     OW13611   6.697   8.083   1.968
70591SOL    HW113612   6.783   8.091   1.927
70591SOL    HW213613   6.713   8.097   2.061
70592SOL     OW13614   0.710  14.603  11.184
70592SOL    HW113615   0.761  14.554  11.249
70592SOL    HW213616   0.747  14.576  11.100
70593SOL     OW13617  11.055   0.870   8.146
70593SOL    HW113618  11.014   0.912   8.222
70593SOL    HW213619  11.131   0.825   8.182
70594SOL     OW13620   4.876  12.129  14.806
70594SOL    HW113621   4.882  12.104   0.024
70594SOL    HW213622   4.786  12.109  14.782
70595SOL     OW13623  13.931   4.208   1.390
70595SOL    HW113624  13.910   4.257   1.311
70595SOL    HW213625  14.022   4.231   1.409
70596SOL     OW13626  14.320   6.792  13.276
70596SOL    HW113627  14.233   6.832  13.267
70596SOL    HW213628  14.365   6.847  13.340
70597SOL     OW13629  10.393   3.037   7.769
70597SOL    HW113630  10.339   3.031   7.848
70597SOL    HW213631  10.478   3.070   7.801
70598SOL     OW13632   6.503   6.182  11.278
70598SOL    HW113633   6.526   6.089  11.273
70598SOL    HW213634   6.418   6.183  11.322
70599SOL     OW13635   4.209  13.354   8.558
70599SOL    HW113636   4.281  13.364   8.496
70599SOL    HW213637   4.224  13.423   8.623
70600SOL     OW13638  11.135   0.943  13.129
70600SOL    HW113639  11.135   0.993  13.210
70600SOL    HW213640  11.147   0.852  13.156
70601SOL     OW13641  12.690   3.859   2.864
70601SOL    HW113642  12.689   3.951   2.890
70601SOL    HW213643  12.654   3.859   2.775
70602SOL     OW13644   1.391   8.155  13.237
70602SOL    HW113645   1.335   8.154  13.160
70602SOL    HW213646   1.362   8.079  13.288
70603SOL     OW13647   9.664  13.358  13.481
70603SOL    HW113648   9.610  13.342  13.558
70603SOL    HW213649   9.684  13.452  13.485
70604SOL     OW13650  10.315  11.667   7.988
70604SOL    HW113651  10.244  11.602   7.994
70604SOL    HW213652  10.308  11.716   8.070
70605SOL     OW13653   6.558  13.590  10.883
70605SOL    HW113654   6.617  13.594  10.807
70605SOL    HW213655   6.591  13.517  10.934
70606SOL     OW13656  12.735   7.656   5.180
70606SOL    HW113657  12.780   7.574   5.201
70606SOL    HW213658  12.642   7.636   5.190
70607SOL     OW13659  12.858   8.450  14.638
70607SOL    HW113660  12.815   8.418  14.717
70607SOL    HW213661  12.932   8.390  14.625
70608SOL     OW13662   6.009  11.704   0.309
70608SOL    HW113663   5.967  11.653   0.378
70608SOL    HW213664   6.103  11.689   0.322
70609SOL     OW13665  12.242   9.853  13.899
70609SOL    HW113666  12.250   9.872  13.993
70609SOL    HW213667  12.193   9.927  13.863
70610SOL     OW13668  14.727  14.143   3.413
70610SOL    HW113669  14.741  14.115   3.504
70610SOL    HW213670  14.650  14.200   3.418
70611SOL     OW13671  10.856  12.422   4.404
70611SOL    HW113672  10.849  12.517   4.401
70611SOL    HW213673  10.786  12.395   4.464
70612SOL     OW13674   5.572   3.323  12.856
70612SOL    HW113675   5.498   3.262  12.853
70612SOL    HW213676   5.551   3.382  12.927
70613SOL     OW13677  14.212   8.326   3.362
70613SOL    HW113678  14.251   8.349   3.447
70613SOL    HW213679  14.153   8.253   3.383
70614SOL     OW13680   3.838  13.023  10.028
70614SOL    HW113681   3.783  13.032  10.106
70614SOL    HW213682   3.902  12.956  10.053
70615SOL     OW13683   4.717   1.318  13.097
70615SOL    HW113684   4.788   1.317  13.033
70615SOL    HW213685   4.661   1.244  13.071
70616SOL     OW13686   8.583   0.709   5.315
70616SOL    HW113687   8.610   0.790   5.359
70616SOL    HW213688   8.632   0.640   5.359
70617SOL     OW13689  12.181  13.098   3.247
70617SOL    HW113690  12.142  13.019   3.209
70617SOL    HW213691  12.198  13.076   3.338
70618SOL     OW13692   8.143   5.310  10.922
70618SOL    HW113693   8.050   5.322  10.903
70618SOL    HW213694   8.187   5.333  10.841
70619SOL     OW13695   3.535  12.081   7.795
70619SOL    HW113696   3.439  12.080   7.792
70619SOL    HW213697   3.555  12.114   7.883
70620SOL     OW13698   1.004   8.562   7.528
70620SOL    HW113699   1.033   8.626   7.593
70620SOL    HW213700   1.084   8.534   7.484
70621SOL     OW13701  10.530   4.547  10.833
70621SOL    HW113702  10.452   4.500  10.863
70621SOL    HW213703  10.497   4.632  10.803
70622SOL     OW13704   0.571  12.131   5.118
70622SOL    HW113705   0.615  12.144   5.202
70622SOL    HW213706   0.636  12.086   5.064
70623SOL     OW13707   8.162  10.832   5.527
70623SOL    HW113708   8.119  10.786   5.455
70623SOL    HW213709   8.141  10.780   5.605
70624SOL     OW13710  14.094   4.939  10.430
70624SOL    HW113711  14.156   4.981  10.370
70624SOL    HW213712  14.149   4.898  10.497
70625SOL     OW13713   5.650  13.514   3.736
70625SOL    HW113714   5.737  13.540   3.766
70625SOL    HW213715   5.650  13.535   3.643
70626SOL     OW13716   9.983  10.530   2.753
70626SOL    HW113717   9.938  10.447   2.767
70626SOL    HW213718  10.062  10.524   2.806
70627SOL     OW13719  11.466   5.259   9.950
70627SOL    HW113720  11.437   5.171   9.923
70627SOL    HW213721  11.535   5.281   9.887
70628SOL     OW13722   5.666   9.914  14.118
70628SOL    HW113723   5.623   9.925  14.033
70628SOL    HW213724   5.678  10.003  14.151
70629SOL     OW13725  13.070   6.347   7.914
70629SOL    HW113726  13.054   6.269   7.967
70629SOL    HW213727  13.049   6.420   7.971
70630SOL     OW13728   8.255   6.205  14.394
70630SOL    HW113729   8.188   6.140  14.411
70630SOL    HW213730   8.216   6.264  14.329
70631SOL     OW13731  13.964   8.394   3.200
70631SOL    HW113732  13.916   8.476   3.214
70631SOL    HW213733  14.032   8.394   3.267
70632SOL     OW13734   4.550   6.085   9.309
70632SOL    HW113735   4.485   6.131   9.363
70632SOL    HW213736   4.621   6.147   9.298
70633SOL     OW13737   1.347   7.559   6.826
70633SOL    HW113738   1.376   7.613   6.753
70633SOL    HW213739   1.252   7.560   6.820
70634SOL     OW13740  13.598  13.351   2.263
70634SOL    HW113741  13.543  13.402   2.204
70634SOL    HW213742  13.681  13.340   2.216
70635SOL     OW13743   0.263   4.440   6.871
70635SOL    HW113744   0.343   4.389   6.861
70635SOL    HW213745   0.194   4.383   6.836
70636SOL     OW13746   6.257   2.304   8.587
70636SOL    HW113747   6.276   2.368   8.519
70636SOL    HW213748   6.278   2.220   8.547
70637SOL     OW13749   4.742   3.200  10.673
70637SOL    HW113750   4.740   3.294  10.690
70637SOL    HW213751   4.702   3.190  10.586
70638SOL     OW13752   4.073   7.199   8.459
70638SOL    HW113753   4.122   7.127   8.418
70638SOL    HW213754   3.983   7.187   8.429
70639SOL     OW13755  11.454   2.053  11.064
70639SOL    HW113756  11.508   2.120  11.105
70639SOL    HW213757  11.387   2.101  11.016
70640SOL     OW13758   3.091  10.516   1.819
70640SOL    HW113759   3.087  10.609   1.843
70640SOL    HW213760   3.058  10.470   1.897
70641SOL     OW13761   6.796   8.861  14.599
70641SOL    HW113762   6.831   8.945  14.570
70641SOL    HW213763   6.770   8.816  14.519
70642SOL     OW13764  11.428  14.398   5.114
70642SOL    HW113765  11.464  14.310   5.125
70642SOL    HW213766  11.413  14.429   5.204
70643SOL     OW13767  14.206   0.949  10.372
70643SOL    HW113768  14.215   0.960  10.278
70643SOL    HW213769  14.169   0.861  10.383
70644SOL     OW13770   0.149  14.069  13.054
70644SOL    HW113771   0.169  14.003  12.988
70644SOL    HW213772   0.189  14.035  13.135
70645SOL     OW13773   3.167  11.516  13.324
70645SOL    HW113774   3.100  11.500  13.390
70645SOL    HW213775   3.234  11.450  13.342
70646SOL     OW13776  14.316   1.199  10.673
70646SOL    HW113777  14.292   1.292  10.666
70646SOL    HW213778  14.234   1.155  10.696
70647SOL     OW13779   3.790   1.273   6.304
70647SOL    HW113780   3.701   1.268   6.269
70647SOL    HW213781   3.809   1.366   6.308
70648SOL     OW13782   3.249   9.836   3.179
70648SOL    HW113783   3.286   9.759   3.223
70648SOL    HW213784   3.293   9.910   3.220
70649SOL     OW13785   5.097  14.555   3.625
70649SOL    HW113786   5.040  14.612   3.675
70649SOL    HW213787   5.136  14.496   3.690
70650SOL     OW13788   3.275   0.181   8.463
70650SOL    HW113789   3.356   0.230   8.446
70650SOL    HW213790   3.286   0.100   8.413
70651SOL     OW13791   6.267   9.338   1.310
70651SOL    HW113792   6.285   9.338   1.404
70651SOL    HW213793   6.182   9.294   1.301
70652SOL     OW13794   9.103  14.332   6.969
70652SOL    HW113795   9.194  14.311   6.946
70652SOL    HW213796   9.108  14.358   7.061
70653SOL     OW13797   1.867   6.212   6.683
70653SOL    HW113798   1.776   6.185   6.689
70653SOL    HW213799   1.885   6.217   6.589
70654SOL     OW13800   0.720   2.754   1.594
70654SOL    HW113801   0.742   2.785   1.682
70654SOL    HW213802   0.796   2.702   1.568
70655SOL     OW13803  11.090   7.314  12.700
70655SOL    HW113804  11.154   7.324  12.630
70655SOL    HW213805  11.005   7.330  12.659
70656SOL     OW13806   7.483   8.614  12.907
70656SOL    HW113807   7.418   8.666  12.953
70656SOL    HW213808   7.506   8.543  12.967
70657SOL     OW13809  13.564   3.196   2.997
70657SOL    HW113810  13.487   3.175   2.945
70657SOL    HW213811  13.559   3.137   3.072
70658SOL     OW13812   3.331  14.091   3.556
70658SOL    HW113813   3.396  14.158   3.576
70658SOL    HW213814   3.355  14.057   3.470
70659SOL     OW13815  10.572  11.365   1.225
70659SOL    HW113816  10.517  11.434   1.188
70659SOL    HW213817  10.551  11.366   1.319
70660SOL     OW13818   7.608   2.994   2.093
70660SOL    HW113819   7.633   2.974   2.184
70660SOL    HW213820   7.678   3.051   2.061
70661SOL     OW13821   6.053  14.729  13.858
70661SOL    HW113822   6.124  14.673  13.890
70661SOL    HW213823   6.039  14.700  13.768
70662SOL     OW13824   5.594   3.483  11.845
70662SOL    HW113825   5.608   3.399  11.801
70662SOL    HW213826   5.522   3.524  11.798
70663SOL     OW13827   7.928   3.246   4.468
70663SOL    HW113828   7.936   3.305   4.393
70663SOL    HW213829   7.862   3.182   4.442
70664SOL     OW13830  13.169  11.620   2.894
70664SOL    HW113831  13.124  11.704   2.904
70664SOL    HW213832  13.136  11.584   2.812
70665SOL     OW13833  13.086  13.476   4.717
70665SOL    HW113834  13.148  13.549   4.719
70665SOL    HW213835  13.141  13.398   4.730
70666SOL     OW13836   4.880  14.367  13.040
70666SOL    HW113837   4.845  14.286  13.075
70666SOL    HW213838   4.958  14.340  12.991
70667SOL     OW13839  10.224   1.225   9.674
70667SOL    HW113840  10.252   1.163   9.741
70667SOL    HW213841  10.198   1.303   9.723
70668SOL     OW13842   1.555   1.116  14.539
70668SOL    HW113843   1.529   1.119  14.631
70668SOL    HW213844   1.502   1.046  14.502
70669SOL     OW13845  13.718   8.757  11.858
70669SOL    HW113846  13.777   8.829  11.836
70669SOL    HW213847  13.775   8.679  11.859
70670SOL     OW13848   4.325  12.012   5.989
70670SOL    HW113849   4.261  11.972   6.048
70670SOL    HW213850   4.286  12.002   5.902
70671SOL     OW13851   1.022  12.733  10.677
70671SOL    HW113852   1.062  12.794  10.739
70671SOL    HW213853   1.065  12.753  10.593
70672SOL     OW13854  14.170   9.510   6.282
70672SOL    HW113855  14.117   9.466   6.215
70672SOL    HW213856  14.190   9.441   6.345
70673SOL     OW13857   8.047   5.528   6.405
70673SOL    HW113858   8.070   5.517   6.498
70673SOL    HW213859   8.120   5.488   6.358
70674SOL     OW13860   9.657  14.138   5.160
70674SOL    HW113861   9.722  14.181   5.105
70674SOL    HW213862   9.596  14.207   5.185
70675SOL     OW13863  10.693   4.463  13.399
70675SOL    HW113864  10.642   4.445  13.320
70675SOL    HW213865  10.741   4.382  13.415
70676SOL     OW13866   1.165  11.773   0.782
70676SOL    HW113867   1.170  11.678   0.787
70676SOL    HW213868   1.091  11.797   0.839
70677SOL     OW13869   1.623  11.904   2.185
70677SOL    HW113870   1.706  11.888   2.141
70677SOL    HW213871   1.559  11.911   2.114
70678SOL     OW13872  13.790   4.078  10.019
70678SOL    HW113873  13.754   4.141  10.082
70678SOL    HW213874  13.847   4.022  10.072
70679SOL     OW13875   5.931  14.850  14.547
70679SOL    HW113876   5.950   0.065  14.518
70679SOL    HW213877   5.935  14.797  14.467
70680SOL     OW13878   1.752   0.323  14.587
70680SOL    HW113879   1.742   0.267  14.664
70680SOL    HW213880   1.668   0.368  14.578
70681SOL     OW13881   2.995   9.949  11.573
70681SOL    HW113882   2.952  10.006  11.510
70681SOL    HW213883   2.977   9.990  11.658
70682SOL     OW13884   4.662   1.768   8.043
70682SOL    HW113885   4.755   1.746   8.049
70682SOL    HW213886   4.648   1.792   7.951
70683SOL     OW13887   9.865   9.982   0.556
70683SOL    HW113888   9.814   9.948   0.629
70683SOL    HW213889   9.957   9.968   0.582
70684SOL     OW13890   2.057   4.151   8.360
70684SOL    HW113891   2.101   4.202   8.293
70684SOL    HW213892   1.989   4.209   8.394
70685SOL     OW13893   3.700   2.747  10.107
70685SOL    HW113894   3.756   2.798  10.166
70685SOL    HW213895   3.688   2.804  10.031
70686SOL     OW13896   0.727   4.222   1.328
70686SOL    HW113897   0.725   4.158   1.257
70686SOL    HW213898   0.671   4.184   1.396
70687SOL     OW13899   1.000   3.382  11.208
70687SOL    HW113900   1.079   3.392  11.155
70687SOL    HW213901   1.029   3.335  11.286
70688SOL     OW13902   8.058   0.852   7.705
70688SOL    HW113903   7.964   0.854   7.692
70688SOL    HW213904   8.079   0.936   7.746
70689SOL     OW13905  11.101   1.977   6.254
70689SOL    HW113906  11.073   1.906   6.195
70689SOL    HW213907  11.081   1.944   6.342
70690SOL     OW13908   9.693   7.994   8.240
70690SOL    HW113909   9.634   7.918   8.241
70690SOL    HW213910   9.691   8.026   8.330
70691SOL     OW13911   8.129  12.026   3.053
70691SOL    HW113912   8.046  12.072   3.064
70691SOL    HW213913   8.193  12.083   3.096
70692SOL     OW13914  11.192   4.214   4.667
70692SOL    HW113915  11.150   4.241   4.585
70692SOL    HW213916  11.230   4.294   4.702
70693SOL     OW13917  10.085   8.579   7.600
70693SOL    HW113918  10.047   8.578   7.687
70693SOL    HW213919  10.163   8.634   7.608
70694SOL     OW13920   1.229   3.773   4.650
70694SOL    HW113921   1.321   3.786   4.627
70694SOL    HW213922   1.199   3.704   4.590
70695SOL     OW13923   9.207  12.331   8.903
70695SOL    HW113924   9.151  12.295   8.971
70695SOL    HW213925   9.188  12.278   8.825
70696SOL     OW13926   9.980  10.756   1.816
70696SOL    HW113927   9.960  10.663   1.813
70696SOL    HW213928  10.046  10.768   1.747
70697SOL     OW13929  10.214   0.975   5.683
70697SOL    HW113930  10.308   0.959   5.672
70697SOL    HW213931  10.182   0.992   5.595
70698SOL     OW13932   8.416  11.636   0.510
70698SOL    HW113933   8.485  11.585   0.468
70698SOL    HW213934   8.461  11.683   0.580
70699SOL     OW13935   0.362  11.203   2.502
70699SOL    HW113936   0.284  11.148   2.507
70699SOL    HW213937   0.435  11.142   2.498
70700SOL     OW13938  12.241  12.667  13.094
70700SOL    HW113939  12.251  12.761  13.081
70700SOL    HW213940  12.221  12.633  13.007
70701SOL     OW13941   0.673   4.321  10.649
70701SOL    HW113942   0.711   4.368  10.723
70701SOL    HW213943   0.670   4.230  10.678
70702SOL     OW13944   5.227   9.609   8.177
70702SOL    HW113945   5.148   9.556   8.176
70702SOL    HW213946   5.284   9.567   8.242
70703SOL     OW13947   6.514  12.387  14.043
70703SOL    HW113948   6.517  12.360  13.951
70703SOL    HW213949   6.526  12.482  14.040
70704SOL     OW13950   5.313   7.379   1.021
70704SOL    HW113951   5.278   7.461   1.055
70704SOL    HW213952   5.236   7.331   0.990
70705SOL     OW13953   0.519   4.055   3.733
70705SOL    HW113954   0.434   4.100   3.733
70705SOL    HW213955   0.568   4.097   3.662
70706SOL     OW13956   2.514   9.445   9.420
70706SOL    HW113957   2.518   9.373   9.356
70706SOL    HW213958   2.489   9.521   9.368
70707SOL     OW13959   4.310   1.276   0.871
70707SOL    HW113960   4.383   1.331   0.903
70707SOL    HW213961   4.239   1.338   0.856
70708SOL     OW13962   5.673   4.240   0.907
70708SOL    HW113963   5.697   4.313   0.850
70708SOL    HW213964   5.646   4.282   0.989
70709SOL     OW13965   3.441   8.129  10.280
70709SOL    HW113966   3.371   8.191  10.258
70709SOL    HW213967   3.394   8.048  10.301
70710SOL     OW13968   7.637   4.124   0.352
70710SOL    HW113969   7.542   4.109   0.351
70710SOL    HW213970   7.650   4.201   0.297
70711SOL     OW13971   6.115   9.376  11.006
70711SOL    HW113972   6.179   9.324  11.054
70711SOL    HW213973   6.030   9.352  11.044
70712SOL     OW13974   7.250   6.761   3.136
70712SOL    HW113975   7.163   6.744   3.099
70712SOL    HW213976   7.297   6.808   3.067
70713SOL     OW13977  14.692   6.634  13.516
70713SOL    HW113978  14.733   6.606  13.598
70713SOL    HW213979  14.746   6.707  13.487
70714SOL     OW13980  13.503  12.277   5.519
70714SOL    HW113981  13.513  12.371   5.531
70714SOL    HW213982  13.490  12.265   5.425
70715SOL     OW13983   8.631  11.112   6.816
70715SOL    HW113984   8.652  11.053   6.889
70715SOL    HW213985   8.708  11.107   6.759
70716SOL     OW13986  10.056  13.347  12.185
70716SOL    HW113987  10.124  13.348  12.118
70716SOL    HW213988  10.034  13.254  12.196
70717SOL     OW13989   6.808  11.642  11.005
70717SOL    HW113990   6.742  11.653  10.936
70717SOL    HW213991   6.862  11.569  10.975
70718SOL     OW13992   8.522   5.680  13.684
70718SOL    HW113993   8.580   5.756  13.679
70718SOL    HW213994   8.437   5.712  13.654
70719SOL     OW13995   0.602   4.766  11.998
70719SOL    HW113996   0.554   4.802  12.073
70719SOL    HW213997   0.535   4.728  11.942
70720SOL     OW13998   6.291   3.407  10.205
70720SOL    HW113999   6.267   3.476  10.266
70720SOL    HW214000   6.371   3.370  10.242
70721SOL     OW14001  13.975  10.842   2.184
70721SOL    HW114002  13.963  10.918   2.242
70721SOL    HW214003  13.938  10.769   2.233
70722SOL     OW14004  13.884   9.726   3.653
70722SOL    HW114005  13.894   9.761   3.565
70722SOL    HW214006  13.821   9.654   3.643
70723SOL     OW14007   4.590   4.416   4.366
70723SOL    HW114008   4.613   4.496   4.412
70723SOL    HW214009   4.672   4.367   4.360
70724SOL     OW14010   5.095   6.349  13.328
70724SOL    HW114011   5.150   6.367  13.403
70724SOL    HW214012   5.022   6.411  13.336
70725SOL     OW14013   0.651   6.923   1.729
70725SOL    HW114014   0.626   6.937   1.638
70725SOL    HW214015   0.730   6.869   1.725
70726SOL     OW14016  13.688   7.639  11.924
70726SOL    HW114017  13.622   7.581  11.887
70726SOL    HW214018  13.732   7.586  11.991
70727SOL     OW14019  13.791   6.939  14.774
70727SOL    HW114020  13.876   6.953  14.732
70727SOL    HW214021  13.809   6.878  14.845
70728SOL     OW14022   2.489   3.876  13.572
70728SOL    HW114023   2.488   3.970  13.560
70728SOL    HW214024   2.424   3.860  13.641
70729SOL     OW14025  11.795   6.907  10.201
70729SOL    HW114026  11.795   6.969  10.274
70729SOL    HW214027  11.741   6.950  10.134
70730SOL     OW14028   9.928   7.622   7.969
70730SOL    HW114029   9.933   7.665   7.884
70730SOL    HW214030   9.837   7.636   7.997
70731SOL     OW14031   5.057   0.429   4.775
70731SOL    HW114032   5.028   0.454   4.687
70731SOL    HW214033   4.978   0.433   4.829
70732SOL     OW14034   8.508  14.051   0.750
70732SOL    HW114035   8.571  14.036   0.821
70732SOL    HW214036   8.455  13.971   0.748
70733SOL     OW14037   3.431  13.293   4.186
70733SOL    HW114038   3.434  13.380   4.145
70733SOL    HW214039   3.356  13.250   4.146
70734SOL     OW14040   1.866  13.930  13.047
70734SOL    HW114041   1.893  13.860  13.107
70734SOL    HW214042   1.772  13.940  13.063
70735SOL     OW14043  13.384   2.847   1.486
70735SOL    HW114044  13.352   2.807   1.405
70735SOL    HW214045  13.425   2.929   1.457
70736SOL     OW14046   5.555  10.279   3.084
70736SOL    HW114047   5.640  10.254   3.047
70736SOL    HW214048   5.552  10.374   3.073
70737SOL     OW14049  10.003  12.083  12.350
70737SOL    HW114050   9.941  12.073  12.421
70737SOL    HW214051  10.014  11.995  12.314
70738SOL     OW14052  14.106   0.700   5.087
70738SOL    HW114053  14.046   0.767   5.054
70738SOL    HW214054  14.115   0.720   5.180
70739SOL     OW14055   4.501   5.473  10.273
70739SOL    HW114056   4.543   5.553  10.303
70739SOL    HW214057   4.563   5.434  10.211
70740SOL     OW14058  14.352   6.708   2.106
70740SOL    HW114059  14.367   6.786   2.053
70740SOL    HW214060  14.408   6.641   2.066
70741SOL     OW14061  13.864  14.734   2.152
70741SOL    HW114062  13.949  14.769   2.125
70741SOL    HW214063  13.881  14.643   2.174
70742SOL     OW14064   0.437   3.075   7.141
70742SOL    HW114065   0.522   3.089   7.098
70742SOL    HW214066   0.399   3.001   7.094
70743SOL     OW14067   7.504   4.506   7.349
70743SOL    HW114068   7.538   4.590   7.380
70743SOL    HW214069   7.545   4.495   7.263
70744SOL     OW14070   0.380   7.944  10.242
70744SOL    HW114071   0.424   8.012  10.294
70744SOL    HW214072   0.425   7.946  10.157
70745SOL     OW14073  11.268   9.401   8.756
70745SOL    HW114074  11.261   9.309   8.728
70745SOL    HW214075  11.197   9.412   8.819
70746SOL     OW14076   8.710  14.106  14.097
70746SOL    HW114077   8.800  14.107  14.128
70746SOL    HW214078   8.707  14.036  14.032
70747SOL     OW14079  11.413  11.412   0.575
70747SOL    HW114080  11.412  11.359   0.495
70747SOL    HW214081  11.339  11.472   0.564
70748SOL     OW14082   9.727  11.364  10.039
70748SOL    HW114083   9.648  11.405  10.003
70748SOL    HW214084   9.710  11.356  10.133
70749SOL     OW14085   7.115   7.807  14.584
70749SOL    HW114086   7.096   7.888  14.632
70749SOL    HW214087   7.116   7.739  14.651
70750SOL     OW14088   9.576   0.601   2.253
70750SOL    HW114089   9.583   0.547   2.332
70750SOL    HW214090   9.543   0.685   2.285
70751SOL     OW14091   6.322  12.673  12.640
70751SOL    HW114092   6.338  12.599  12.581
70751SOL    HW214093   6.245  12.717  12.604
70752SOL     OW14094   2.517  14.178  12.295
70752SOL    HW114095   2.454  14.152  12.227
70752SOL    HW214096   2.542  14.267  12.272
70753SOL     OW14097   0.023   4.522  13.412
70753SOL    HW114098  14.870   4.564  13.331
70753SOL    HW214099  14.845   4.442  13.416
70754SOL     OW14100  11.497   9.569   8.325
70754SOL    HW114101  11.406   9.567   8.357
70754SOL    HW214102  11.530   9.654   8.354
70755SOL     OW14103   4.618   4.625   2.377
70755SOL    HW114104   4.660   4.642   2.293
70755SOL    HW214105   4.662   4.547   2.410
70756SOL     OW14106   5.966   2.532  12.624
70756SOL    HW114107   6.031   2.482  12.673
70756SOL    HW214108   6.006   2.546  12.538
70757SOL     OW14109   8.208   2.030   3.177
70757SOL    HW114110   8.299   2.037   3.146
70757SOL    HW214111   8.165   1.975   3.111
70758SOL     OW14112  12.459  10.739   3.438
70758SOL    HW114113  12.403  10.816   3.451
70758SOL    HW214114  12.485  10.714   3.527
70759SOL     OW14115   4.080   2.483   5.568
70759SOL    HW114116   4.049   2.535   5.493
70759SOL    HW214117   4.044   2.527   5.644
70760SOL     OW14118   7.453   9.335   5.892
70760SOL    HW114119   7.399   9.265   5.929
70760SOL    HW214120   7.482   9.300   5.807
70761SOL     OW14121   6.466   5.955   9.817
70761SOL    HW114122   6.441   6.041   9.784
70761SOL    HW214123   6.556   5.966   9.847
70762SOL     OW14124   7.566   7.776   6.523
70762SOL    HW114125   7.473   7.792   6.508
70762SOL    HW214126   7.610   7.818   6.449
70763SOL     OW14127   8.835  10.330  14.203
70763SOL    HW114128   8.850  10.304  14.294
70763SOL    HW214129   8.878  10.415  14.196
70764SOL     OW14130  12.190   4.800   5.924
70764SOL    HW114131  12.182   4.721   5.977
70764SOL    HW214132  12.284   4.805   5.903
70765SOL     OW14133   0.811  10.682  10.891
70765SOL    HW114134   0.768  10.627  10.826
70765SOL    HW214135   0.905  10.664  10.879
70766SOL     OW14136   2.325   2.313   0.313
70766SOL    HW114137   2.332   2.408   0.326
70766SOL    HW214138   2.401   2.291   0.259
70767SOL     OW14139   6.328   0.278   5.497
70767SOL    HW114140   6.261   0.210   5.500
70767SOL    HW214141   6.366   0.270   5.409
70768SOL     OW14142   1.500   1.782   1.810
70768SOL    HW114143   1.419   1.738   1.837
70768SOL    HW214144   1.513   1.754   1.720
70769SOL     OW14145  11.493   7.865   1.539
70769SOL    HW114146  11.473   7.928   1.470
70769SOL    HW214147  11.502   7.919   1.618
70770SOL     OW14148  12.553  11.674  14.782
70770SOL    HW114149  12.478  11.626  14.818
70770SOL    HW214150  12.608  11.606  14.744
70771SOL     OW14151   3.325   8.851   9.096
70771SOL    HW114152   3.386   8.903   9.149
70771SOL    HW214153   3.243   8.852   9.146
70772SOL     OW14154   4.406   8.966   1.055
70772SOL    HW114155   4.452   8.883   1.067
70772SOL    HW214156   4.359   8.956   0.972
70773SOL     OW14157  11.963   4.444  13.891
70773SOL    HW114158  11.904   4.479  13.957
70773SOL    HW214159  11.997   4.363  13.930
70774SOL     OW14160  11.677   0.099   2.874
70774SOL    HW114161  11.681   0.123   2.781
70774SOL    HW214162  11.619   0.022   2.876
70775SOL     OW14163   5.043   4.327   4.950
70775SOL    HW114164   5.063   4.356   4.861
70775SOL    HW214165   5.103   4.254   4.965
70776SOL     OW14166   5.458   7.751   7.586
70776SOL    HW114167   5.374   7.707   7.594
70776SOL    HW214168   5.503   7.705   7.515
70777SOL     OW14169   4.843  10.679  13.716
70777SOL    HW114170   4.876  10.766  13.693
70777SOL    HW214171   4.803  10.691  13.802
70778SOL     OW14172   2.052   4.186   0.990
70778SOL    HW114173   2.101   4.189   0.907
70778SOL    HW214174   2.008   4.271   0.995
70779SOL     OW14175   2.375  12.848   2.626
70779SOL    HW114176   2.280  12.861   2.618
70779SOL    HW214177   2.413  12.929   2.595
70780SOL     OW14178   1.538  12.272   7.002
70780SOL    HW114179   1.596  12.267   7.077
70780SOL    HW214180   1.498  12.185   6.996
70781SOL     OW14181   4.739   2.014   2.157
70781SOL    HW114182   4.690   2.088   2.191
70781SOL    HW214183   4.824   2.051   2.132
70782SOL     OW14184   1.126   3.340   4.030
70782SOL    HW114185   1.193   3.344   4.098
70782SOL    HW214186   1.070   3.415   4.046
70783SOL     OW14187   2.958  13.157   7.869
70783SOL    HW114188   3.018  13.097   7.913
70783SOL    HW214189   3.012  13.203   7.805
70784SOL     OW14190  10.254   7.906   7.200
70784SOL    HW114191  10.202   7.874   7.273
70784SOL    HW214192  10.264   8.000   7.217
70785SOL     OW14193   9.592   8.200  14.760
70785SOL    HW114194   9.643   8.194  14.680
70785SOL    HW214195   9.625   8.130  14.816
70786SOL     OW14196   9.579  13.732   3.144
70786SOL    HW114197   9.639  13.659   3.163
70786SOL    HW214198   9.635  13.799   3.105
70787SOL     OW14199  14.547   0.375  13.438
70787SOL    HW114200  14.550   0.292  13.390
70787SOL    HW214201  14.479   0.426  13.394
70788SOL     OW14202  10.779   8.851   0.712
70788SOL    HW114203  10.783   8.929   0.656
70788SOL    HW214204  10.716   8.874   0.780
70789SOL     OW14205   8.128   9.453  11.432
70789SOL    HW114206   8.069   9.430  11.505
70789SOL    HW214207   8.193   9.383  11.431
70790SOL     OW14208  14.294   7.380   2.733
70790SOL    HW114209  14.334   7.465   2.749
70790SOL    HW214210  14.281   7.378   2.638
70791SOL     OW14211   5.070  14.140   6.812
70791SOL    HW114212   5.163  14.133   6.789
70791SOL    HW214213   5.025  14.120   6.730
70792SOL     OW14214   9.950  14.404   2.248
70792SOL    HW114215   9.902  14.321   2.238
70792SOL    HW214216   9.898  14.467   2.199
70793SOL     OW14217   3.502   3.631   7.411
70793SOL    HW114218   3.492   3.655   7.503
70793SOL    HW214219   3.414   3.604   7.384
70794SOL     OW14220   6.037   6.521   4.649
70794SOL    HW114221   6.108   6.573   4.611
70794SOL    HW214222   5.967   6.523   4.583
70795SOL     OW14223  10.980   3.339   3.156
70795SOL    HW114224  11.034   3.414   3.134
70795SOL    HW214225  10.923   3.370   3.227
70796SOL     OW14226   5.958   5.852   1.807
70796SOL    HW114227   5.954   5.884   1.897
70796SOL    HW214228   6.042   5.883   1.774
70797SOL     OW14229   9.885   2.714   7.836
70797SOL    HW114230   9.883   2.783   7.903
70797SOL    HW214231   9.849   2.637   7.880
70798SOL     OW14232   3.230   1.782  13.904
70798SOL    HW114233   3.159   1.781  13.839
70798SOL    HW214234   3.309   1.767  13.852
70799SOL     OW14235   8.411  11.332  10.858
70799SOL    HW114236   8.345  11.292  10.801
70799SOL    HW214237   8.437  11.412  10.811
70800SOL     OW14238   4.034   9.042   9.061
70800SOL    HW114239   4.125   9.028   9.088
70800SOL    HW214240   3.986   9.051   9.143
70801SOL     OW14241   7.882   9.767   8.646
70801SOL    HW114242   7.872   9.727   8.559
70801SOL    HW214243   7.881   9.693   8.706
70802SOL     OW14244   8.715   3.916   8.462
70802SOL    HW114245   8.629   3.892   8.497
70802SOL    HW214246   8.706   3.905   8.367
70803SOL     OW14247  11.559  10.435  11.949
70803SOL    HW114248  11.568  10.347  11.913
70803SOL    HW214249  11.502  10.480  11.886
70804SOL     OW14250   3.556   4.760   8.177
70804SOL    HW114251   3.525   4.744   8.088
70804SOL    HW214252   3.652   4.759   8.169
70805SOL     OW14253   5.283  12.796  10.705
70805SOL    HW114254   5.310  12.750  10.626
70805SOL    HW214255   5.322  12.883  10.696
70806SOL     OW14256   0.908  11.906   8.877
70806SOL    HW114257   0.817  11.927   8.856
70806SOL    HW214258   0.926  11.954   8.957
70807SOL     OW14259   6.482   3.514  10.742
70807SOL    HW114260   6.412   3.562  10.698
70807SOL    HW214261   6.471   3.536  10.835
70808SOL     OW14262   0.517   0.249   4.432
70808SOL    HW114263   0.444   0.196   4.463
70808SOL    HW214264   0.516   0.327   4.487
70809SOL     OW14265   1.386   8.100   9.260
70809SOL    HW114266   1.363   8.193   9.259
70809SOL    HW214267   1.308   8.056   9.226
70810SOL     OW14268   0.447   7.185   1.409
70810SOL    HW114269   0.407   7.181   1.496
70810SOL    HW214270   0.536   7.150   1.423
70811SOL     OW14271   2.689   3.724  13.375
70811SOL    HW114272   2.606   3.751  13.414
70811SOL    HW214273   2.666   3.698  13.285
70812SOL     OW14274  14.824   4.520  14.086
70812SOL    HW114275  14.832   4.616  14.086
70812SOL    HW214276   0.014   4.491  14.151
70813SOL     OW14277  12.868   5.724  11.851
70813SOL    HW114278  12.920   5.701  11.928
70813SOL    HW214279  12.854   5.641  11.806
70814SOL     OW14280   6.787   0.106   1.647
70814SOL    HW114281   6.712   0.127   1.703
70814SOL    HW214282   6.770   0.017   1.618
70815SOL     OW14283   8.859  11.977  10.028
70815SOL    HW114284   8.874  11.978   9.933
70815SOL    HW214285   8.842  12.069  10.050
70816SOL     OW14286  11.624   4.296  10.963
70816SOL    HW114287  11.532   4.281  10.981
70816SOL    HW214288  11.667   4.291  11.048
70817SOL     OW14289  12.726   2.806   7.261
70817SOL    HW114290  12.718   2.757   7.178
70817SOL    HW214291  12.785   2.753   7.314
70818SOL     OW14292   4.589  13.174   9.483
70818SOL    HW114293   4.632  13.115   9.545
70818SOL    HW214294   4.658  13.196   9.420
70819SOL     OW14295   5.767   9.804   6.950
70819SOL    HW114296   5.840   9.803   7.012
70819SOL    HW214297   5.712   9.731   6.977
70820SOL     OW14298  11.768  13.167  10.218
70820SOL    HW114299  11.732  13.202  10.298
70820SOL    HW214300  11.762  13.072  10.228
70821SOL     OW14301   5.169   0.836  10.786
70821SOL    HW114302   5.257   0.873  10.785
70821SOL    HW214303   5.127   0.871  10.707
70822SOL     OW14304   4.719  12.724   2.385
70822SOL    HW114305   4.711  12.628   2.382
70822SOL    HW214306   4.709  12.752   2.294
70823SOL     OW14307   4.446   1.183  12.672
70823SOL    HW114308   4.412   1.133  12.598
70823SOL    HW214309   4.532   1.146  12.690
70824SOL     OW14310   4.574  11.887  10.756
70824SOL    HW114311   4.490  11.896  10.800
70824SOL    HW214312   4.577  11.795  10.730
70825SOL     OW14313   8.208  13.949   1.076
70825SOL    HW114314   8.113  13.941   1.071
70825SOL    HW214315   8.225  14.041   1.054
70826SOL     OW14316   2.954   4.963  13.204
70826SOL    HW114317   2.897   5.014  13.261
70826SOL    HW214318   3.027   5.021  13.183
70827SOL     OW14319  13.920  14.336   5.171
70827SOL    HW114320  13.842  14.325   5.226
70827SOL    HW214321  13.953  14.247   5.159
70828SOL     OW14322  13.619   3.938  13.538
70828SOL    HW114323  13.689   3.994  13.571
70828SOL    HW214324  13.543   3.995  13.530
70829SOL     OW14325   5.215   6.031  12.345
70829SOL    HW114326   5.264   5.954  12.315
70829SOL    HW214327   5.231   6.097  12.278
70830SOL     OW14328   6.980   1.229   8.977
70830SOL    HW114329   7.073   1.223   8.957
70830SOL    HW214330   6.966   1.320   9.003
70831SOL     OW14331   4.278   2.520   8.229
70831SOL    HW114332   4.192   2.513   8.188
70831SOL    HW214333   4.283   2.445   8.289
70832SOL     OW14334   3.418   3.218  10.386
70832SOL    HW114335   3.370   3.298  10.407
70832SOL    HW214336   3.455   3.190  10.470
70833SOL     OW14337   7.509   7.957  13.756
70833SOL    HW114338   7.568   7.962  13.832
70833SOL    HW214339   7.504   7.864  13.736
70834SOL     OW14340   4.516   4.673   7.051
70834SOL    HW114341   4.575   4.602   7.029
70834SOL    HW214342   4.456   4.679   6.977
70835SOL     OW14343   8.116   5.168   8.535
70835SOL    HW114344   8.182   5.139   8.598
70835SOL    HW214345   8.040   5.113   8.554
70836SOL     OW14346  11.031   8.217  11.723
70836SOL    HW114347  11.032   8.288  11.787
70836SOL    HW214348  11.114   8.227  11.676
70837SOL     OW14349  13.584   9.109  12.851
70837SOL    HW114350  13.628   9.125  12.935
70837SOL    HW214351  13.654   9.103  12.787
70838SOL     OW14352  12.308  11.172   8.799
70838SOL    HW114353  12.287  11.166   8.706
70838SOL    HW214354  12.403  11.178   8.802
70839SOL     OW14355  12.138   5.293  10.825
70839SOL    HW114356  12.155   5.375  10.873
70839SOL    HW214357  12.171   5.311  10.737
70840SOL     OW14358  11.093   0.930   6.528
70840SOL    HW114359  11.165   0.947   6.589
70840SOL    HW214360  11.019   0.908   6.584
70841SOL     OW14361  14.519  12.730   5.216
70841SOL    HW114362  14.539  12.824   5.218
70841SOL    HW214363  14.586  12.690   5.272
70842SOL     OW14364   8.045   2.060   8.497
70842SOL    HW114365   7.982   2.039   8.427
70842SOL    HW214366   8.120   2.098   8.451
70843SOL     OW14367   5.904   0.034   1.290
70843SOL    HW114368   5.960   0.108   1.264
70843SOL    HW214369   5.853   0.066   1.364
70844SOL     OW14370  13.814   9.317  12.388
70844SOL    HW114371  13.723   9.295  12.371
70844SOL    HW214372  13.864   9.265  12.324
70845SOL     OW14373   5.241   3.301   8.668
70845SOL    HW114374   5.241   3.378   8.724
70845SOL    HW214375   5.288   3.234   8.719
70846SOL     OW14376   8.510   0.271   4.267
70846SOL    HW114377   8.593   0.318   4.262
70846SOL    HW214378   8.476   0.293   4.354
70847SOL     OW14379  12.893  12.360   7.232
70847SOL    HW114380  12.904  12.455   7.232
70847SOL    HW214381  12.834  12.343   7.306
70848SOL     OW14382   9.898  12.519   8.613
70848SOL    HW114383   9.885  12.574   8.535
70848SOL    HW214384   9.809  12.504   8.647
70849SOL     OW14385   8.670  12.022   0.290
70849SOL    HW114386   8.721  11.991   0.365
70849SOL    HW214387   8.580  11.996   0.309
70850SOL     OW14388   6.482   4.296   6.252
70850SOL    HW114389   6.463   4.311   6.159
70850SOL    HW214390   6.481   4.201   6.262
70851SOL     OW14391   6.638  12.145   1.665
70851SOL    HW114392   6.591  12.159   1.583
70851SOL    HW214393   6.571  12.114   1.726
70852SOL     OW14394   4.461   1.778   4.587
70852SOL    HW114395   4.399   1.786   4.514
70852SOL    HW214396   4.458   1.686   4.611
70853SOL     OW14397   4.382   5.209   2.086
70853SOL    HW114398   4.395   5.168   2.172
70853SOL    HW214399   4.325   5.284   2.103
70854SOL     OW14400  12.258  12.680   7.889
70854SOL    HW114401  12.182  12.642   7.932
70854SOL    HW214402  12.330  12.619   7.906
70855SOL     OW14403  12.624   0.687  13.720
70855SOL    HW114404  12.641   0.620  13.653
70855SOL    HW214405  12.651   0.646  13.802
70856SOL     OW14406  10.309   3.143  10.774
70856SOL    HW114407  10.392   3.114  10.735
70856SOL    HW214408  10.255   3.169  10.700
70857SOL     OW14409  12.159   8.986  10.858
70857SOL    HW114410  12.228   9.044  10.892
70857SOL    HW214411  12.151   8.917  10.924
70858SOL     OW14412   2.326  12.779  13.643
70858SOL    HW114413   2.415  12.787  13.677
70858SOL    HW214414   2.304  12.867  13.614
70859SOL     OW14415   2.035   7.658  10.492
70859SOL    HW114416   2.128   7.661  10.517
70859SOL    HW214417   1.991   7.711  10.559
70860SOL     OW14418   4.193  12.496   3.834
70860SOL    HW114419   4.259  12.566   3.835
70860SOL    HW214420   4.114  12.537   3.869
70861SOL     OW14421   9.594   9.799  13.279
70861SOL    HW114422   9.542   9.879  13.284
70861SOL    HW214423   9.532   9.732  13.249
70862SOL     OW14424   8.054   5.892   8.728
70862SOL    HW114425   8.103   5.867   8.806
70862SOL    HW214426   8.062   5.987   8.724
70863SOL     OW14427  12.047  11.790   6.542
70863SOL    HW114428  12.052  11.885   6.551
70863SOL    HW214429  12.112  11.769   6.476
70864SOL     OW14430  10.963   6.545   0.669
70864SOL    HW114431  10.968   6.568   0.761
70864SOL    HW214432  11.025   6.472   0.659
70865SOL     OW14433  14.030   2.299   3.743
70865SOL    HW114434  14.097   2.355   3.783
70865SOL    HW214435  13.948   2.346   3.759
70866SOL     OW14436   7.845   9.589   5.846
70866SOL    HW114437   7.797   9.507   5.851
70866SOL    HW214438   7.922   9.576   5.902
70867SOL     OW14439   4.992  11.223   0.591
70867SOL    HW114440   4.994  11.312   0.626
70867SOL    HW214441   5.083  11.193   0.596
70868SOL     OW14442   3.099   1.529   4.413
70868SOL    HW114443   3.146   1.603   4.451
70868SOL    HW214444   3.114   1.457   4.473
70869SOL     OW14445   7.858  14.381  13.260
70869SOL    HW114446   7.843  14.405  13.351
70869SOL    HW214447   7.935  14.325  13.262
70870SOL     OW14448   2.150  12.358   1.125
70870SOL    HW114449   2.159  12.268   1.094
70870SOL    HW214450   2.168  12.353   1.218
70871SOL     OW14451   1.615   1.860   0.575
70871SOL    HW114452   1.531   1.818   0.561
70871SOL    HW214453   1.620   1.927   0.506
70872SOL     OW14454   7.571   7.002  10.977
70872SOL    HW114455   7.492   7.042  11.012
70872SOL    HW214456   7.574   7.031  10.885
70873SOL     OW14457   1.644  12.417   8.672
70873SOL    HW114458   1.629  12.439   8.580
70873SOL    HW214459   1.690  12.333   8.670
70874SOL     OW14460  12.736   1.520   9.030
70874SOL    HW114461  12.788   1.597   9.050
70874SOL    HW214462  12.778   1.449   9.080
70875SOL     OW14463   6.556  10.751   2.952
70875SOL    HW114464   6.529  10.660   2.935
70875SOL    HW214465   6.651  10.750   2.945
70876SOL     OW14466  12.262  12.631   9.072
70876SOL    HW114467  12.181  12.602   9.029
70876SOL    HW214468  12.259  12.590   9.158
70877SOL     OW14469  12.999  13.608   5.367
70877SOL    HW114470  13.089  13.640   5.359
70877SOL    HW214471  12.944  13.684   5.345
70878SOL     OW14472  13.850   6.874  10.616
70878SOL    HW114473  13.822   6.962  10.593
70878SOL    HW214474  13.946   6.878  10.614
70879SOL     OW14475   9.679   6.573   0.964
70879SOL    HW114476   9.629   6.558   0.884
70879SOL    HW214477   9.770   6.575   0.936
70880SOL     OW14478   5.205   0.683   4.805
70880SOL    HW114479   5.161   0.613   4.854
70880SOL    HW214480   5.233   0.745   4.872
70881SOL     OW14481   2.575   0.829   5.960
70881SOL    HW114482   2.504   0.802   6.018
70881SOL    HW214483   2.620   0.748   5.937
70882SOL     OW14484  11.519   5.818  13.935
70882SOL    HW114485  11.571   5.889  13.898
70882SOL    HW214486  11.581   5.746  13.946
70883SOL     OW14487   2.342   8.615   0.937
70883SOL    HW114488   2.289   8.660   0.871
70883SOL    HW214489   2.424   8.664   0.940
70884SOL     OW14490  12.814   1.745   9.717
70884SOL    HW114491  12.725   1.757   9.683
70884SOL    HW214492  12.870   1.754   9.640
70885SOL     OW14493  11.927   8.660   7.319
70885SOL    HW114494  11.991   8.678   7.387
70885SOL    HW214495  11.879   8.583   7.350
70886SOL     OW14496   4.660   0.950   1.221
70886SOL    HW114497   4.625   0.957   1.310
70886SOL    HW214498   4.674   1.041   1.195
70887SOL     OW14499   8.547   7.341  14.643
70887SOL    HW114500   8.539   7.247  14.627
70887SOL    HW214501   8.641   7.354  14.659
70888SOL     OW14502  14.512  11.275  12.099
70888SOL    HW114503  14.594  11.311  12.067
70888SOL    HW214504  14.517  11.181  12.078
70889SOL     OW14505   3.151   1.994   0.111
70889SOL    HW114506   3.228   1.971   0.059
70889SOL    HW214507   3.182   2.064   0.169
70890SOL     OW14508   0.097  10.363   9.858
70890SOL    HW114509   0.050  10.444   9.839
70890SOL    HW214510   0.067  10.338   9.945
70891SOL     OW14511   2.423   4.003   1.589
70891SOL    HW114512   2.334   4.000   1.554
70891SOL    HW214513   2.478   4.019   1.513
70892SOL     OW14514  12.118  10.757   7.531
70892SOL    HW114515  12.121  10.696   7.458
70892SOL    HW214516  12.024  10.775   7.543
70893SOL     OW14517  13.101   7.156   6.170
70893SOL    HW114518  13.195   7.169   6.157
70893SOL    HW214519  13.072   7.108   6.093
70894SOL     OW14520   1.056   0.468   1.155
70894SOL    HW114521   1.089   0.394   1.104
70894SOL    HW214522   1.014   0.525   1.091
70895SOL     OW14523   5.831  11.485  13.062
70895SOL    HW114524   5.820  11.477  13.157
70895SOL    HW214525   5.907  11.431  13.042
70896SOL     OW14526  14.173  13.372   2.453
70896SOL    HW114527  14.128  13.391   2.535
70896SOL    HW214528  14.129  13.428   2.388
70897SOL     OW14529   4.062   8.606   9.388
70897SOL    HW114530   4.059   8.526   9.441
70897SOL    HW214531   4.070   8.575   9.298
70898SOL     OW14532  12.089  10.972   0.112
70898SOL    HW114533  12.173  10.928   0.099
70898SOL    HW214534  12.077  10.973   0.207
70899SOL     OW14535   6.555   5.556   7.911
70899SOL    HW114536   6.588   5.481   7.960
70899SOL    HW214537   6.584   5.540   7.821
70900SOL     OW14538  11.638   7.284   4.230
70900SOL    HW114539  11.707   7.267   4.166
70900SOL    HW214540  11.558   7.294   4.178
70901SOL     OW14541   5.950  12.403   0.824
70901SOL    HW114542   5.937  12.490   0.861
70901SOL    HW214543   6.044  12.400   0.805
70902SOL     OW14544   4.254   3.887  11.043
70902SOL    HW114545   4.335   3.885  11.094
70902SOL    HW214546   4.236   3.795  11.023
70903SOL     OW14547  14.470   7.686   4.601
70903SOL    HW114548  14.497   7.597   4.578
70903SOL    HW214549  14.374   7.683   4.600
70904SOL     OW14550  13.413   9.864   2.974
70904SOL    HW114551  13.373   9.911   2.901
70904SOL    HW214552  13.348   9.867   3.043
70905SOL     OW14553  12.992  14.836  12.057
70905SOL    HW114554  13.080  14.873  12.055
70905SOL    HW214555  12.977  14.804  11.968
70906SOL     OW14556   6.204  13.174   0.826
70906SOL    HW114557   6.116  13.190   0.791
70906SOL    HW214558   6.199  13.087   0.865
70907SOL     OW14559  10.486   4.162   2.309
70907SOL    HW114560  10.501   4.118   2.393
70907SOL    HW214561  10.391   4.166   2.300
70908SOL     OW14562   6.035  10.856   6.745
70908SOL    HW114563   6.065  10.767   6.724
70908SOL    HW214564   5.940  10.848   6.752
70909SOL     OW14565   7.469  12.795   5.030
70909SOL    HW114566   7.466  12.809   4.936
70909SOL    HW214567   7.383  12.823   5.062
70910SOL     OW14568   2.080  10.999  11.470
70910SOL    HW114569   2.058  10.997  11.377
70910SOL    HW214570   2.140  11.073  11.479
70911SOL     OW14571   3.289   9.970  10.278
70911SOL    HW114572   3.257  10.060  10.276
70911SOL    HW214573   3.217   9.919  10.317
70912SOL     OW14574   1.523   7.132  12.341
70912SOL    HW114575   1.504   7.047  12.381
70912SOL    HW214576   1.438   7.177  12.339
70913SOL     OW14577  14.569   5.285   8.585
70913SOL    HW114578  14.592   5.261   8.495
70913SOL    HW214579  14.529   5.371   8.577
70914SOL     OW14580   3.672  13.580   1.219
70914SOL    HW114581   3.679  13.501   1.272
70914SOL    HW214582   3.578  13.600   1.218
70915SOL     OW14583   8.795   9.347   9.838
70915SOL    HW114584   8.727   9.348   9.905
70915SOL    HW214585   8.854   9.418   9.861
70916SOL     OW14586  10.722   7.268   0.214
70916SOL    HW114587  10.695   7.247   0.125
70916SOL    HW214588  10.737   7.182   0.255
70917SOL     OW14589   6.383   3.257   9.868
70917SOL    HW114590   6.377   3.199   9.945
70917SOL    HW214591   6.306   3.236   9.816
70918SOL     OW14592  11.134   4.908   7.603
70918SOL    HW114593  11.212   4.855   7.625
70918SOL    HW214594  11.137   4.981   7.665
70919SOL     OW14595  13.926  11.994   6.389
70919SOL    HW114596  13.831  12.006   6.383
70919SOL    HW214597  13.948  12.027   6.476
70920SOL     OW14598   1.752   8.399   4.183
70920SOL    HW114599   1.694   8.328   4.208
70920SOL    HW214600   1.796   8.368   4.104
70921SOL     OW14601   4.440  12.874   8.856
70921SOL    HW114602   4.356  12.830   8.846
70921SOL    HW214603   4.432  12.954   8.803
70922SOL     OW14604   5.158  10.449   0.893
70922SOL    HW114605   5.205  10.513   0.945
70922SOL    HW214606   5.202  10.449   0.808
70923SOL     OW14607   8.758   0.451   4.823
70923SOL    HW114608   8.695   0.413   4.885
70923SOL    HW214609   8.754   0.545   4.840
70924SOL     OW14610   8.242   0.854   8.873
70924SOL    HW114611   8.251   0.871   8.780
70924SOL    HW214612   8.178   0.919   8.904
70925SOL     OW14613   2.109   0.435   1.277
70925SOL    HW114614   2.094   0.365   1.213
70925SOL    HW214615   2.177   0.401   1.335
70926SOL     OW14616   5.750   8.192   7.155
70926SOL    HW114617   5.692   8.244   7.100
70926SOL    HW214618   5.692   8.143   7.213
70927SOL     OW14619   2.525   4.727   0.872
70927SOL    HW114620   2.602   4.759   0.919
70927SOL    HW214621   2.454   4.732   0.936
70928SOL     OW14622  13.716   9.840  12.539
70928SOL    HW114623  13.775   9.767  12.519
70928SOL    HW214624  13.644   9.800  12.587
70929SOL     OW14625  13.316   2.769   9.025
70929SOL    HW114626  13.294   2.854   9.063
70929SOL    HW214627  13.386   2.735   9.080
70930SOL     OW14628   6.154  10.430   9.135
70930SOL    HW114629   6.240  10.389   9.139
70930SOL    HW214630   6.092  10.357   9.132
70931SOL     OW14631  14.688   4.800   5.978
70931SOL    HW114632  14.712   4.844   5.896
70931SOL    HW214633  14.598   4.826   5.993
70932SOL     OW14634   4.717   0.165   1.145
70932SOL    HW114635   4.779   0.166   1.072
70932SOL    HW214636   4.738   0.085   1.194
70933SOL     OW14637  10.940   9.948   1.556
70933SOL    HW114638  11.016   9.975   1.608
70933SOL    HW214639  10.926   9.856   1.580
70934SOL     OW14640   7.894   4.829   7.949
70934SOL    HW114641   7.905   4.797   8.039
70934SOL    HW214642   7.963   4.784   7.900
70935SOL     OW14643  10.033   1.990   8.251
70935SOL    HW114644  10.061   1.977   8.160
70935SOL    HW214645   9.985   2.073   8.250
70936SOL     OW14646   2.301  14.697  13.526
70936SOL    HW114647   2.356  14.640  13.472
70936SOL    HW214648   2.231  14.724  13.468
70937SOL     OW14649  14.672  12.146  12.988
70937SOL    HW114650  14.672  12.179  13.078
70937SOL    HW214651  14.720  12.212  12.938
70938SOL     OW14652   5.222   7.223   1.229
70938SOL    HW114653   5.242   7.267   1.147
70938SOL    HW214654   5.170   7.147   1.204
70939SOL     OW14655   9.362   8.847   7.091
70939SOL    HW114656   9.348   8.775   7.153
70939SOL    HW214657   9.275   8.867   7.057
70940SOL     OW14658   2.673  13.684   0.892
70940SOL    HW114659   2.662  13.589   0.899
70940SOL    HW214660   2.591  13.720   0.925
70941SOL     OW14661  14.690   5.397   2.283
70941SOL    HW114662  14.782   5.422   2.282
70941SOL    HW214663  14.647   5.465   2.335
70942SOL     OW14664   0.552   5.128  13.368
70942SOL    HW114665   0.519   5.217  13.380
70942SOL    HW214666   0.577   5.125  13.275
70943SOL     OW14667   3.624  14.106  11.439
70943SOL    HW114668   3.663  14.183  11.397
70943SOL    HW214669   3.685  14.035  11.419
70944SOL     OW14670   1.160  12.354  13.637
70944SOL    HW114671   1.215  12.322  13.709
70944SOL    HW214672   1.197  12.313  13.559
70945SOL     OW14673   6.179  10.303   4.004
70945SOL    HW114674   6.100  10.285   4.054
70945SOL    HW214675   6.193  10.224   3.951
70946SOL     OW14676   5.667  12.872  13.680
70946SOL    HW114677   5.610  12.894  13.754
70946SOL    HW214678   5.737  12.937  13.684
70947SOL     OW14679   1.651  11.820   8.880
70947SOL    HW114680   1.720  11.787   8.821
70947SOL    HW214681   1.648  11.757   8.951
70948SOL     OW14682   7.400  11.394   0.927
70948SOL    HW114683   7.471  11.431   0.980
70948SOL    HW214684   7.415  11.300   0.928
70949SOL     OW14685  11.078   4.125   2.612
70949SOL    HW114686  11.151   4.080   2.656
70949SOL    HW214687  11.022   4.155   2.683
70950SOL     OW14688   9.850  11.721   5.245
70950SOL    HW114689   9.888  11.809   5.245
70950SOL    HW214690   9.757  11.735   5.266
70951SOL     OW14691   8.148  12.995  14.236
70951SOL    HW114692   8.169  12.964  14.148
70951SOL    HW214693   8.234  13.014  14.276
70952SOL     OW14694   2.466  10.741  12.413
70952SOL    HW114695   2.555  10.771  12.399
70952SOL    HW214696   2.465  10.651  12.379
70953SOL     OW14697   8.895   1.515   2.300
70953SOL    HW114698   8.873   1.593   2.249
70953SOL    HW214699   8.991   1.510   2.296
70954SOL     OW14700  10.243  13.043  13.625
70954SOL    HW114701  10.269  13.055  13.534
70954SOL    HW214702  10.211  13.129  13.653
70955SOL     OW14703   2.140  14.609  14.845
70955SOL    HW114704   2.067  14.566  14.802
70955SOL    HW214705   2.196  14.537   0.001
70956SOL     OW14706  11.867  11.659   1.338
70956SOL    HW114707  11.889  11.708   1.418
70956SOL    HW214708  11.809  11.589   1.368
70957SOL     OW14709   5.135   7.240   1.667
70957SOL    HW114710   5.182   7.161   1.643
70957SOL    HW214711   5.071   7.253   1.596
70958SOL     OW14712   1.481   4.086   4.003
70958SOL    HW114713   1.505   4.003   3.961
70958SOL    HW214714   1.562   4.138   4.003
70959SOL     OW14715  14.485   1.745   3.342
70959SOL    HW114716  14.488   1.774   3.434
70959SOL    HW214717  14.526   1.659   3.343
70960SOL     OW14718   8.646   7.893  11.256
70960SOL    HW114719   8.578   7.825  11.256
70960SOL    HW214720   8.711   7.862  11.192
70961SOL     OW14721  14.030   5.894  11.325
70961SOL    HW114722  13.987   5.965  11.372
70961SOL    HW214723  14.041   5.825  11.390
70962SOL     OW14724   1.194  13.678   8.096
70962SOL    HW114725   1.183  13.713   8.008
70962SOL    HW214726   1.148  13.740   8.152
70963SOL     OW14727  10.405   6.208  12.581
70963SOL    HW114728  10.423   6.223  12.674
70963SOL    HW214729  10.483   6.242  12.537
70964SOL     OW14730   3.518   2.187   6.996
70964SOL    HW114731   3.611   2.169   7.012
70964SOL    HW214732   3.500   2.146   6.911
70965SOL     OW14733  12.299   4.646  12.793
70965SOL    HW114734  12.226   4.604  12.840
70965SOL    HW214735  12.286   4.740  12.808
70966SOL     OW14736  10.933   7.041   7.686
70966SOL    HW114737  11.027   7.053   7.694
70966SOL    HW214738  10.918   7.026   7.593
70967SOL     OW14739  14.562   2.695  14.134
70967SOL    HW114740  14.523   2.739  14.059
70967SOL    HW214741  14.537   2.603  14.124
70968SOL     OW14742   0.232   7.088  10.925
70968SOL    HW114743   0.286   7.075  10.847
70968SOL    HW214744   0.180   7.165  10.905
70969SOL     OW14745   5.585   9.796   6.425
70969SOL    HW114746   5.604   9.794   6.331
70969SOL    HW214747   5.671   9.796   6.467
70970SOL     OW14748   3.601  13.533   2.261
70970SOL    HW114749   3.696  13.520   2.262
70970SOL    HW214750   3.568  13.474   2.328
70971SOL     OW14751   4.212   1.667   1.502
70971SOL    HW114752   4.150   1.729   1.463
70971SOL    HW214753   4.161   1.619   1.567
70972SOL     OW14754  12.284   8.965  14.050
70972SOL    HW114755  12.293   8.910  13.973
70972SOL    HW214756  12.206   9.018  14.032
70973SOL     OW14757   9.128   3.327   0.553
70973SOL    HW114758   9.126   3.410   0.505
70973SOL    HW214759   9.036   3.303   0.565
70974SOL     OW14760   3.685  13.680   9.729
70974SOL    HW114761   3.736  13.761   9.737
70974SOL    HW214762   3.597  13.709   9.705
70975SOL     OW14763   8.723   6.584   1.254
70975SOL    HW114764   8.768   6.604   1.336
70975SOL    HW214765   8.793   6.556   1.195
70976SOL     OW14766  12.794  10.894  11.223
70976SOL    HW114767  12.749  10.818  11.187
70976SOL    HW214768  12.882  10.890  11.185
70977SOL     OW14769   2.500   6.600   4.341
70977SOL    HW114770   2.576   6.659   4.343
70977SOL    HW214771   2.431   6.649   4.386
70978SOL     OW14772   8.337  13.650   1.666
70978SOL    HW114773   8.337  13.559   1.693
70978SOL    HW214774   8.308  13.649   1.575
70979SOL     OW14775   9.619   6.457   4.181
70979SOL    HW114776   9.552   6.393   4.207
70979SOL    HW214777   9.686   6.450   4.249
70980SOL     OW14778  13.395   4.879  10.255
70980SOL    HW114779  13.476   4.896  10.303
70980SOL    HW214780  13.423   4.838  10.173
70981SOL     OW14781  11.331  10.330   6.014
70981SOL    HW114782  11.410  10.309   5.964
70981SOL    HW214783  11.293  10.406   5.970
70982SOL     OW14784  10.870   9.455  11.502
70982SOL    HW114785  10.885   9.399  11.425
70982SOL    HW214786  10.958   9.479  11.531
70983SOL     OW14787  14.717  14.093   5.674
70983SOL    HW114788  14.728  13.998   5.683
70983SOL    HW214789  14.776  14.117   5.602
70984SOL     OW14790   0.225   6.008   9.759
70984SOL    HW114791   0.321   6.008   9.754
70984SOL    HW214792   0.206   5.975   9.848
70985SOL     OW14793  13.711  14.302   5.364
70985SOL    HW114794  13.696  14.208   5.357
70985SOL    HW214795  13.633  14.342   5.325
70986SOL     OW14796  12.502   2.368   1.322
70986SOL    HW114797  12.558   2.293   1.303
70986SOL    HW214798  12.447   2.339   1.395
70987SOL     OW14799   5.907   1.848   0.901
70987SOL    HW114800   5.908   1.823   0.994
70987SOL    HW214801   5.932   1.940   0.901
70988SOL     OW14802  14.372  10.792   7.163
70988SOL    HW114803  14.347  10.873   7.207
70988SOL    HW214804  14.437  10.820   7.097
70989SOL     OW14805   0.459  14.433   4.048
70989SOL    HW114806   0.476  14.441   3.954
70989SOL    HW214807   0.494  14.514   4.086
70990SOL     OW14808  12.151  11.290   9.626
70990SOL    HW114809  12.111  11.216   9.582
70990SOL    HW214810  12.081  11.326   9.681
70991SOL     OW14811  10.586  13.241   3.250
70991SOL    HW114812  10.667  13.203   3.215
70991SOL    HW214813  10.557  13.179   3.317
70992SOL     OW14814  14.465   6.913  11.503
70992SOL    HW114815  14.391   6.904  11.563
70992SOL    HW214816  14.487   7.006  11.506
70993SOL     OW14817   5.579  12.888  13.151
70993SOL    HW114818   5.646  12.953  13.131
70993SOL    HW214819   5.623  12.804  13.136
70994SOL     OW14820   0.529   6.946   5.311
70994SOL    HW114821   0.583   6.878   5.272
70994SOL    HW214822   0.449   6.901   5.339
70995SOL     OW14823   3.502   4.606   1.697
70995SOL    HW114824   3.424   4.634   1.745
70995SOL    HW214825   3.558   4.683   1.696
70996SOL     OW14826   2.079  10.667   1.778
70996SOL    HW114827   2.046  10.664   1.867
70996SOL    HW214828   2.174  10.666   1.787
70997SOL     OW14829   5.076   3.347  12.586
70997SOL    HW114830   5.159   3.372  12.546
70997SOL    HW214831   5.097   3.268  12.637
70998SOL     OW14832   0.865   4.814   1.010
70998SOL    HW114833   0.816   4.870   1.069
70998SOL    HW214834   0.908   4.750   1.068
70999SOL     OW14835   9.956   2.079   3.229
70999SOL    HW114836   9.918   2.157   3.191
70999SOL    HW214837  10.047   2.079   3.198
71000SOL     OW14838   0.589   5.856  10.123
71000SOL    HW114839   0.675   5.875  10.085
71000SOL    HW214840   0.588   5.760  10.130
71001SOL     OW14841   2.526   1.187   2.082
71001SOL    HW114842   2.617   1.162   2.063
71001SOL    HW214843   2.527   1.212   2.175
71002SOL     OW14844  13.385   0.749   8.382
71002SOL    HW114845  13.389   0.693   8.460
71002SOL    HW214846  13.476   0.753   8.351
71003SOL     OW14847   6.116   4.641   9.444
71003SOL    HW114848   6.165   4.721   9.465
71003SOL    HW214849   6.027   4.672   9.426
71004SOL     OW14850   8.676   6.106   5.048
71004SOL    HW114851   8.634   6.177   5.000
71004SOL    HW214852   8.616   6.032   5.040
71005SOL     OW14853   1.216  14.614  12.314
71005SOL    HW114854   1.201  14.708  12.324
71005SOL    HW214855   1.244  14.604  12.223
71006SOL     OW14856   3.884   3.222   6.521
71006SOL    HW114857   3.850   3.311   6.526
71006SOL    HW214858   3.863   3.193   6.432
71007SOL     OW14859  12.257  11.669   6.118
71007SOL    HW114860  12.258  11.578   6.150
71007SOL    HW214861  12.164  11.690   6.112
71008SOL     OW14862   8.835  10.395   5.979
71008SOL    HW114863   8.831  10.324   5.915
71008SOL    HW214864   8.842  10.351   6.063
71009SOL     OW14865   5.889   1.005   8.314
71009SOL    HW114866   5.975   0.965   8.330
71009SOL    HW214867   5.878   1.000   8.219
71010SOL     OW14868   8.212   1.539   1.473
71010SOL    HW114869   8.197   1.535   1.378
71010SOL    HW214870   8.162   1.465   1.508
71011SOL     OW14871  11.074   0.344  14.321
71011SOL    HW114872  11.090   0.428  14.279
71011SOL    HW214873  11.021   0.295  14.258
71012SOL     OW14874   8.457  13.487   8.765
71012SOL    HW114875   8.363  13.476   8.779
71012SOL    HW214876   8.487  13.529   8.846
71013SOL     OW14877   1.440   2.259   6.581
71013SOL    HW114878   1.456   2.352   6.566
71013SOL    HW214879   1.352   2.256   6.619
71014SOL     OW14880  13.380   1.978   4.377
71014SOL    HW114881  13.297   2.018   4.351
71014SOL    HW214882  13.418   1.947   4.294
71015SOL     OW14883   1.107   1.206   7.695
71015SOL    HW114884   1.160   1.246   7.764
71015SOL    HW214885   1.170   1.183   7.627
71016SOL     OW14886   5.945   0.296   9.416
71016SOL    HW114887   5.907   0.226   9.469
71016SOL    HW214888   5.987   0.251   9.343
71017SOL     OW14889   6.087  12.303  14.434
71017SOL    HW114890   6.160  12.260  14.478
71017SOL    HW214891   6.123  12.330  14.349
71018SOL     OW14892   6.243   3.265  14.462
71018SOL    HW114893   6.228   3.273  14.556
71018SOL    HW214894   6.156   3.250  14.426
71019SOL     OW14895  11.750   2.304   2.275
71019SOL    HW114896  11.657   2.320   2.262
71019SOL    HW214897  11.757   2.276   2.366
71020SOL     OW14898   7.086   1.567   2.707
71020SOL    HW114899   7.064   1.643   2.653
71020SOL    HW214900   7.060   1.592   2.796
71021SOL     OW14901   5.999  10.350  12.578
71021SOL    HW114902   6.025  10.349  12.485
71021SOL    HW214903   5.927  10.288  12.583
71022SOL     OW14904   8.297   6.655  13.953
71022SOL    HW114905   8.300   6.565  13.923
71022SOL    HW214906   8.204   6.671  13.971
71023SOL     OW14907  10.115   7.848   1.797
71023SOL    HW114908  10.106   7.839   1.703
71023SOL    HW214909  10.028   7.876   1.828
71024SOL     OW14910   2.511   6.600   6.080
71024SOL    HW114911   2.428   6.560   6.054
71024SOL    HW214912   2.578   6.538   6.049
71025SOL     OW14913   3.962   7.749   5.403
71025SOL    HW114914   3.967   7.658   5.433
71025SOL    HW214915   3.893   7.748   5.337
71026SOL     OW14916   4.350   2.279  13.225
71026SOL    HW114917   4.260   2.300  13.250
71026SOL    HW214918   4.396   2.270  13.308
71027SOL     OW14919   4.164   6.645   4.216
71027SOL    HW114920   4.073   6.617   4.213
71027SOL    HW214921   4.160   6.741   4.217
71028SOL     OW14922   2.174   3.252   7.184
71028SOL    HW114923   2.228   3.218   7.256
71028SOL    HW214924   2.197   3.345   7.179
71029SOL     OW14925   5.127   0.044   0.643
71029SOL    HW114926   5.176   0.063   0.563
71029SOL    HW214927   5.145  14.826   0.660
71030SOL     OW14928   2.266  10.456   6.691
71030SOL    HW114929   2.302  10.545   6.693
71030SOL    HW214930   2.172  10.469   6.680
71031SOL     OW14931   5.051  11.551   2.219
71031SOL    HW114932   4.969  11.503   2.230
71031SOL    HW214933   5.041  11.598   2.136
71032SOL     OW14934   6.134   6.890   9.819
71032SOL    HW114935   6.164   6.867   9.906
71032SOL    HW214936   6.160   6.982   9.808
71033SOL     OW14937  12.900   0.017   6.977
71033SOL    HW114938  12.887  14.814   6.923
71033SOL    HW214939  12.983   0.054   6.948
71034SOL     OW14940   4.643  14.643   3.510
71034SOL    HW114941   4.739  14.637   3.505
71034SOL    HW214942   4.625  14.737   3.501
71035SOL     OW14943   0.966   9.341   5.618
71035SOL    HW114944   1.007   9.362   5.534
71035SOL    HW214945   0.880   9.383   5.613
71036SOL     OW14946   1.845   0.083  13.551
71036SOL    HW114947   1.769   0.101  13.496
71036SOL    HW214948   1.832   0.137  13.629
71037SOL     OW14949   0.114  14.639  10.511
71037SOL    HW114950   0.202  14.677  10.505
71037SOL    HW214951   0.124  14.565  10.572
71038SOL     OW14952  12.976  11.514   0.975
71038SOL    HW114953  12.907  11.474   1.027
71038SOL    HW214954  13.045  11.535   1.037
71039SOL     OW14955  11.295  11.588  10.420
71039SOL    HW114956  11.286  11.610  10.327
71039SOL    HW214957  11.383  11.619  10.443
71040SOL     OW14958  14.581   8.405   8.091
71040SOL    HW114959  14.509   8.356   8.130
71040SOL    HW214960  14.570   8.392   7.996
71041SOL     OW14961   1.915   9.063  14.048
71041SOL    HW114962   1.844   9.004  14.071
71041SOL    HW214963   1.871   9.141  14.013
71042SOL     OW14964   5.654  14.763   9.350
71042SOL    HW114965   5.573  14.813   9.335
71042SOL    HW214966   5.690  14.749   9.263
71043SOL     OW14967   3.875   3.581  12.975
71043SOL    HW114968   3.794   3.633  12.972
71043SOL    HW214969   3.847   3.494  13.003
71044SOL     OW14970  13.477   5.437  11.543
71044SOL    HW114971  13.572   5.439  11.551
71044SOL    HW214972  13.448   5.386  11.619
71045SOL     OW14973   3.791  10.189   5.851
71045SOL    HW114974   3.871  10.205   5.800
71045SOL    HW214975   3.729  10.152   5.788
71046SOL     OW14976   5.846   6.096   8.118
71046SOL    HW114977   5.756   6.084   8.149
71046SOL    HW214978   5.900   6.049   8.181
71047SOL     OW14979   8.558   7.051   9.713
71047SOL    HW114980   8.522   7.112   9.776
71047SOL    HW214981   8.645   7.086   9.692
71048SOL     OW14982   8.916   3.769  13.429
71048SOL    HW114983   8.822   3.763  13.412
71048SOL    HW214984   8.939   3.685  13.469
71049SOL     OW14985  12.052  12.561   9.731
71049SOL    HW114986  12.107  12.496   9.689
71049SOL    HW214987  12.091  12.645   9.708
71050SOL     OW14988   5.003   2.578   6.271
71050SOL    HW114989   5.007   2.657   6.326
71050SOL    HW214990   4.984   2.611   6.183
71051SOL     OW14991  13.761   1.947  10.268
71051SOL    HW114992  13.829   2.014  10.268
71051SOL    HW214993  13.798   1.875  10.216
71052SOL     OW14994   9.905   9.402   0.769
71052SOL    HW114995   9.852   9.348   0.710
71052SOL    HW214996   9.963   9.451   0.712
71053SOL     OW14997   5.344   9.893   1.391
71053SOL    HW114998   5.342   9.988   1.382
71053SOL    HW214999   5.252   9.867   1.391
71054SOL     OW15000  12.485   2.425   0.500
71054SOL    HW115001  12.499   2.496   0.437
71054SOL    HW215002  12.390   2.411   0.498
71055SOL     OW15003   6.837   4.544   7.284
71055SOL    HW115004   6.759   4.598   7.275
71055SOL    HW215005   6.808   4.465   7.329
71056SOL     OW15006   2.735   7.746   2.867
71056SOL    HW115007   2.765   7.795   2.944
71056SOL    HW215008   2.796   7.673   2.859
71057SOL     OW15009   3.236   0.542  12.669
71057SOL    HW115010   3.208   0.524  12.759
71057SOL    HW215011   3.278   0.628  12.674
71058SOL     OW15012   6.883  12.654   1.999
71058SOL    HW115013   6.921  12.711   1.932
71058SOL    HW215014   6.832  12.590   1.950
71059SOL     OW15015   3.685  10.798   0.757
71059SOL    HW115016   3.741  10.742   0.811
71059SOL    HW215017   3.601  10.801   0.803
71060SOL     OW15018   6.242   5.666   2.333
71060SOL    HW115019   6.268   5.754   2.303
71060SOL    HW215020   6.153   5.655   2.299
71061SOL     OW15021  13.980  14.825   0.196
71061SOL    HW115022  13.919  14.838   0.269
71061SOL    HW215023  13.978   0.034   0.148
71062SOL     OW15024  10.842   4.945   0.331
71062SOL    HW115025  10.791   5.015   0.290
71062SOL    HW215026  10.799   4.931   0.416
71063SOL     OW15027  13.984   9.018   2.652
71063SOL    HW115028  13.935   8.944   2.617
71063SOL    HW215029  13.956   9.093   2.600
71064SOL     OW15030  14.117   9.612  12.363
71064SOL    HW115031  14.146   9.693  12.320
71064SOL    HW215032  14.192   9.553  12.354
71065SOL     OW15033   1.500  10.117  13.475
71065SOL    HW115034   1.455  10.037  13.448
71065SOL    HW215035   1.497  10.173  13.397
71066SOL     OW15036   0.966  12.214   9.240
71066SOL    HW115037   1.014  12.202   9.322
71066SOL    HW215038   1.033  12.237   9.176
71067SOL     OW15039   9.791  11.591   2.115
71067SOL    HW115040   9.754  11.537   2.045
71067SOL    HW215041   9.730  11.581   2.188
71068SOL     OW15042   0.327   6.572  12.061
71068SOL    HW115043   0.346   6.648  12.007
71068SOL    HW215044   0.408   6.521  12.059
71069SOL     OW15045   1.581   3.766  13.482
71069SOL    HW115046   1.541   3.694  13.433
71069SOL    HW215047   1.634   3.813  13.418
71070SOL     OW15048   2.051  10.627  11.252
71070SOL    HW115049   2.122  10.582  11.207
71070SOL    HW215050   2.083  10.641  11.341
71071SOL     OW15051   9.767  10.044   2.227
71071SOL    HW115052   9.780  10.137   2.210
71071SOL    HW215053   9.672  10.032   2.221
71072SOL     OW15054  14.412  10.995  12.838
71072SOL    HW115055  14.351  11.056  12.878
71072SOL    HW215056  14.474  11.050  12.790
71073SOL     OW15057  11.580  10.501  12.565
71073SOL    HW115058  11.653  10.502  12.504
71073SOL    HW215059  11.552  10.592  12.571
71074SOL     OW15060  13.554   9.645   2.237
71074SOL    HW115061  13.563   9.594   2.157
71074SOL    HW215062  13.644   9.654   2.270
71075SOL     OW15063   2.147   7.197   3.555
71075SOL    HW115064   2.182   7.219   3.641
71075SOL    HW215065   2.167   7.274   3.501
71076SOL     OW15066   1.995   5.478  12.591
71076SOL    HW115067   2.086   5.508  12.595
71076SOL    HW215068   1.955   5.512  12.671
71077SOL     OW15069   9.483  11.466   3.817
71077SOL    HW115070   9.524  11.535   3.766
71077SOL    HW215071   9.482  11.390   3.758
71078SOL     OW15072   8.274  10.913  13.345
71078SOL    HW115073   8.225  10.932  13.265
71078SOL    HW215074   8.226  10.959  13.414
71079SOL     OW15075   4.120  11.007   5.893
71079SOL    HW115076   4.068  11.078   5.854
71079SOL    HW215077   4.074  10.927   5.867
71080SOL     OW15078   2.412  13.750   9.186
71080SOL    HW115079   2.326  13.717   9.215
71080SOL    HW215080   2.471  13.728   9.258
71081SOL     OW15081  14.631   7.724  11.085
71081SOL    HW115082  14.571   7.794  11.112
71081SOL    HW215083  14.592   7.644  11.122
71082SOL     OW15084   8.271   5.828  14.762
71082SOL    HW115085   8.182   5.852  14.739
71082SOL    HW215086   8.296   5.762  14.698
71083SOL     OW15087  12.311   6.580   1.514
71083SOL    HW115088  12.286   6.667   1.547
71083SOL    HW215089  12.394   6.595   1.469
71084SOL     OW15090   1.736  13.236   3.306
71084SOL    HW115091   1.749  13.185   3.226
71084SOL    HW215092   1.821  13.235   3.349
71085SOL     OW15093   2.391   1.701   9.383
71085SOL    HW115094   2.333   1.648   9.437
71085SOL    HW215095   2.474   1.652   9.381
71086SOL     OW15096   4.593  10.352  12.904
71086SOL    HW115097   4.507  10.334  12.943
71086SOL    HW215098   4.586  10.317  12.815
71087SOL     OW15099   1.804  11.709   0.134
71087SOL    HW115100   1.800  11.629   0.187
71087SOL    HW215101   1.838  11.679   0.049
71088SOL     OW15102  13.704   6.465   1.295
71088SOL    HW115103  13.770   6.532   1.311
71088SOL    HW215104  13.753   6.393   1.254
71089SOL     OW15105   5.480   7.120   8.527
71089SOL    HW115106   5.418   7.175   8.479
71089SOL    HW215107   5.475   7.153   8.617
71090SOL     OW15108   3.397  14.360   2.256
71090SOL    HW115109   3.320  14.401   2.293
71090SOL    HW215110   3.465  14.371   2.322
71091SOL     OW15111   4.533  12.039   9.749
71091SOL    HW115112   4.477  12.095   9.802
71091SOL    HW215113   4.474  12.004   9.681
71092SOL     OW15114   1.830  13.340   1.536
71092SOL    HW115115   1.883  13.263   1.521
71092SOL    HW215116   1.832  13.352   1.631
71093SOL     OW15117   0.784  12.038  10.672
71093SOL    HW115118   0.819  12.112  10.722
71093SOL    HW215119   0.689  12.051  10.673
71094SOL     OW15120  13.034   3.893   5.250
71094SOL    HW115121  13.126   3.907   5.275
71094SOL    HW215122  12.995   3.980   5.254
71095SOL     OW15123   2.929  11.183   5.105
71095SOL    HW115124   2.907  11.139   5.187
71095SOL    HW215125   2.918  11.114   5.038
71096SOL     OW15126   5.886  11.416   7.233
71096SOL    HW115127   5.881  11.501   7.278
71096SOL    HW215128   5.974  11.385   7.251
71097SOL     OW15129   2.960   1.877   5.227
71097SOL    HW115130   2.919   1.817   5.164
71097SOL    HW215131   3.014   1.820   5.282
71098SOL     OW15132   8.106   2.749   6.983
71098SOL    HW115133   8.094   2.820   7.046
71098SOL    HW215134   8.191   2.768   6.943
71099SOL     OW15135  14.815  13.595   7.321
71099SOL    HW115136  14.773  13.567   7.402
71099SOL    HW215137   0.034  13.575   7.333
71100SOL     OW15138   6.382  12.630  11.747
71100SOL    HW115139   6.372  12.578  11.667
71100SOL    HW215140   6.473  12.661  11.744
71101SOL     OW15141   9.883   4.684   9.530
71101SOL    HW115142   9.807   4.719   9.575
71101SOL    HW215143   9.921   4.622   9.592
71102SOL     OW15144  12.737   5.659   5.761
71102SOL    HW115145  12.686   5.626   5.688
71102SOL    HW215146  12.827   5.630   5.743
71103SOL     OW15147  11.488  13.673   5.015
71103SOL    HW115148  11.577  13.658   5.049
71103SOL    HW215149  11.435  13.687   5.094
71104SOL     OW15150   5.135  10.234  13.264
71104SOL    HW115151   5.072  10.229  13.192
71104SOL    HW215152   5.218  10.256  13.222
71105SOL     OW15153   6.154   2.943   7.483
71105SOL    HW115154   6.199   3.010   7.432
71105SOL    HW215155   6.224   2.897   7.529
71106SOL     OW15156   3.241  13.250   3.183
71106SOL    HW115157   3.245  13.315   3.112
71106SOL    HW215158   3.280  13.294   3.258
71107SOL     OW15159   1.889   9.590  11.762
71107SOL    HW115160   1.974   9.586  11.718
71107SOL    HW215161   1.875   9.684  11.778
71108SOL     OW15162   7.689   4.337   7.682
71108SOL    HW115163   7.600   4.330   7.648
71108SOL    HW215164   7.712   4.249   7.710
71109SOL     OW15165   9.132   8.919   1.119
71109SOL    HW115166   9.151   8.974   1.044
71109SOL    HW215167   9.209   8.927   1.176
71110SOL     OW15168   4.011   4.199   9.506
71110SOL    HW115169   3.948   4.271   9.509
71110SOL    HW215170   4.032   4.189   9.413
71111SOL     OW15171   7.597   6.231   1.810
71111SOL    HW115172   7.661   6.216   1.740
71111SOL    HW215173   7.513   6.237   1.764
71112SOL     OW15174   9.574   7.489  14.209
71112SOL    HW115175   9.632   7.480  14.284
71112SOL    HW215176   9.547   7.400  14.188
71113SOL     OW15177   9.634  10.217   6.621
71113SOL    HW115178   9.721  10.196   6.657
71113SOL    HW215179   9.601  10.134   6.588
71114SOL     OW15180  14.802  12.563   7.470
71114SOL    HW115181   0.012  12.601   7.443
71114SOL    HW215182  14.804  12.474   7.437
71115SOL     OW15183   2.201   2.179   5.463
71115SOL    HW115184   2.218   2.186   5.369
71115SOL    HW215185   2.131   2.114   5.470
71116SOL     OW15186  12.774   7.042  13.118
71116SOL    HW115187  12.760   6.976  13.186
71116SOL    HW215188  12.867   7.036  13.098
71117SOL     OW15189  11.306   5.751   6.226
71117SOL    HW115190  11.373   5.723   6.163
71117SOL    HW215191  11.349   5.742   6.312
71118SOL     OW15192   6.624   4.243  10.059
71118SOL    HW115193   6.566   4.195  10.118
71118SOL    HW215194   6.566   4.304  10.013
71119SOL     OW15195   7.916  13.888   7.091
71119SOL    HW115196   8.007  13.859   7.084
71119SOL    HW215197   7.881  13.880   7.002
71120SOL     OW15198  14.323   3.576   5.833
71120SOL    HW115199  14.304   3.486   5.862
71120SOL    HW215200  14.255   3.629   5.875
71121SOL     OW15201   6.199   2.108  11.868
71121SOL    HW115202   6.167   2.018  11.876
71121SOL    HW215203   6.121   2.162  11.872
71122SOL     OW15204   6.123   7.304  13.685
71122SOL    HW115205   6.119   7.211  13.662
71122SOL    HW215206   6.210   7.332  13.657
71123SOL     OW15207   0.158  11.225   7.080
71123SOL    HW115208   0.123  11.307   7.116
71123SOL    HW215209   0.228  11.200   7.140
71124SOL     OW15210   2.809  12.797   8.341
71124SOL    HW115211   2.893  12.821   8.380
71124SOL    HW215212   2.780  12.722   8.392
71125SOL     OW15213  11.870   7.307   3.716
71125SOL    HW115214  11.903   7.220   3.737
71125SOL    HW215215  11.946   7.354   3.681
71126SOL     OW15216   2.079  13.091   9.802
71126SOL    HW115217   2.075  13.017   9.742
71126SOL    HW215218   2.162  13.081   9.848
71127SOL     OW15219   0.322  11.839  11.094
71127SOL    HW115220   0.347  11.927  11.064
71127SOL    HW215221   0.268  11.804  11.023
71128SOL     OW15222   4.787   1.279   9.648
71128SOL    HW115223   4.694   1.295   9.665
71128SOL    HW215224   4.825   1.366   9.640
71129SOL     OW15225   6.325  12.630  13.132
71129SOL    HW115226   6.333  12.714  13.177
71129SOL    HW215227   6.385  12.572  13.179
71130SOL     OW15228   2.870  11.336   1.540
71130SOL    HW115229   2.926  11.410   1.560
71130SOL    HW215230   2.790  11.375   1.504
71131SOL     OW15231  10.230   5.018  11.455
71131SOL    HW115232  10.211   5.100  11.410
71131SOL    HW215233  10.266   5.044  11.539
71132SOL     OW15234  11.322  10.624   3.268
71132SOL    HW115235  11.280  10.538   3.269
71132SOL    HW215236  11.412  10.607   3.239
71133SOL     OW15237   1.654   8.433   6.783
71133SOL    HW115238   1.672   8.502   6.847
71133SOL    HW215239   1.563   8.448   6.757
71134SOL     OW15240   1.901  12.134   2.267
71134SOL    HW115241   1.861  12.052   2.297
71134SOL    HW215242   1.994  12.123   2.284
71135SOL     OW15243  12.050   4.093   6.105
71135SOL    HW115244  12.096   4.126   6.182
71135SOL    HW215245  11.992   4.025   6.138
71136SOL     OW15246   9.085  13.048  14.378
71136SOL    HW115247   9.022  13.048  14.306
71136SOL    HW215248   9.082  12.958  14.412
71137SOL     OW15249   9.468   6.129  12.584
71137SOL    HW115250   9.390   6.085  12.615
71137SOL    HW215251   9.531   6.059  12.568
71138SOL     OW15252   9.478   4.603  12.919
71138SOL    HW115253   9.419   4.527  12.928
71138SOL    HW215254   9.454   4.660  12.993
71139SOL     OW15255   4.490   3.421   7.050
71139SOL    HW115256   4.465   3.411   7.142
71139SOL    HW215257   4.586   3.421   7.051
71140SOL     OW15258   3.152   0.081   6.849
71140SOL    HW115259   3.196   0.146   6.795
71140SOL    HW215260   3.063   0.078   6.815
71141SOL     OW15261   9.679  12.174   7.380
71141SOL    HW115262   9.643  12.190   7.292
71141SOL    HW215263   9.689  12.079   7.385
71142SOL     OW15264  13.302  12.105   7.384
71142SOL    HW115265  13.293  12.052   7.305
71142SOL    HW215266  13.225  12.161   7.384
71143SOL     OW15267  11.801   9.549  10.327
71143SOL    HW115268  11.765   9.582  10.410
71143SOL    HW215269  11.876   9.496  10.353
71144SOL     OW15270   3.938  10.938  12.669
71144SOL    HW115271   3.964  11.029  12.684
71144SOL    HW215272   3.959  10.922  12.577
71145SOL     OW15273  13.225   4.547  14.368
71145SOL    HW115274  13.239   4.531  14.274
71145SOL    HW215275  13.246   4.639  14.380
71146SOL     OW15276   9.019   4.041   2.483
71146SOL    HW115277   9.040   3.996   2.565
71146SOL    HW215278   8.925   4.027   2.471
71147SOL     OW15279   4.356  12.776   3.114
71147SOL    HW115280   4.302  12.833   3.058
71147SOL    HW215281   4.292  12.731   3.170
71148SOL     OW15282   2.047   7.318  10.609
71148SOL    HW115283   2.134   7.341  10.576
71148SOL    HW215284   1.989   7.387  10.576
71149SOL     OW15285  11.136   5.047   1.387
71149SOL    HW115286  11.165   5.104   1.459
71149SOL    HW215287  11.215   4.999   1.362
71150SOL     OW15288  13.620   7.458   1.810
71150SOL    HW115289  13.531   7.485   1.790
71150SOL    HW215290  13.673   7.535   1.793
71151SOL     OW15291   6.706   4.744   5.920
71151SOL    HW115292   6.735   4.786   6.001
71151SOL    HW215293   6.767   4.775   5.853
71152SOL     OW15294  11.727  10.764   5.225
71152SOL    HW115295  11.715  10.858   5.210
71152SOL    HW215296  11.696  10.749   5.314
71153SOL     OW15297   9.538  10.418   4.809
71153SOL    HW115298   9.587  10.480   4.863
71153SOL    HW215299   9.533  10.339   4.863
71154SOL     OW15300   3.841  13.375  13.916
71154SOL    HW115301   3.832  13.367  13.821
71154SOL    HW215302   3.799  13.458  13.938
71155SOL     OW15303   0.107  13.337  11.733
71155SOL    HW115304   0.126  13.307  11.821
71155SOL    HW215305   0.095  13.431  11.741
71156SOL     OW15306  13.949   3.595   8.813
71156SOL    HW115307  14.025   3.631   8.857
71156SOL    HW215308  13.977   3.508   8.782
71157SOL     OW15309  12.873   7.164   5.682
71157SOL    HW115310  12.919   7.118   5.612
71157SOL    HW215311  12.812   7.222   5.637
71158SOL     OW15312   3.058   1.862   1.300
71158SOL    HW115313   3.113   1.934   1.268
71158SOL    HW215314   3.119   1.803   1.344
71159SOL     OW15315   7.634   3.628   0.124
71159SOL    HW115316   7.696   3.693   0.092
71159SOL    HW215317   7.680   3.581   0.193
71160SOL     OW15318  14.668  13.884   6.003
71160SOL    HW115319  14.655  13.813   6.065
71160SOL    HW215320  14.586  13.889   5.954
71161SOL     OW15321   2.270   9.440   2.617
71161SOL    HW115322   2.280   9.412   2.708
71161SOL    HW215323   2.267   9.358   2.567
71162SOL     OW15324   7.675   8.839   4.485
71162SOL    HW115325   7.720   8.924   4.478
71162SOL    HW215326   7.666   8.809   4.395
71163SOL     OW15327   9.107   3.716   3.011
71163SOL    HW115328   9.199   3.691   3.010
71163SOL    HW215329   9.061   3.636   3.036
71164SOL     OW15330   3.677  10.170   8.500
71164SOL    HW115331   3.634  10.249   8.467
71164SOL    HW215332   3.607  10.119   8.540
71165SOL     OW15333  10.492  14.626   7.219
71165SOL    HW115334  10.410  14.673   7.237
71165SOL    HW215335  10.560  14.692   7.232
71166SOL     OW15336   8.110   9.030   1.720
71166SOL    HW115337   8.029   9.014   1.671
71166SOL    HW215338   8.089   9.106   1.775
71167SOL     OW15339   5.654   7.898   9.101
71167SOL    HW115340   5.737   7.945   9.108
71167SOL    HW215341   5.593   7.963   9.065
71168SOL     OW15342  12.252   5.715  11.266
71168SOL    HW115343  12.253   5.789  11.205
71168SOL    HW215344  12.271   5.754  11.352
71169SOL     OW15345  14.452  14.798  10.903
71169SOL    HW115346  14.373  14.845  10.880
71169SOL    HW215347  14.423  14.733  10.968
71170SOL     OW15348  10.981   0.445  10.937
71170SOL    HW115349  10.946   0.415  11.021
71170SOL    HW215350  11.059   0.391  10.923
71171SOL     OW15351   2.740  11.259   6.596
71171SOL    HW115352   2.808  11.246   6.530
71171SOL    HW215353   2.719  11.171   6.627
71172SOL     OW15354  14.597   2.237  13.074
71172SOL    HW115355  14.610   2.280  13.158
71172SOL    HW215356  14.503   2.243  13.057
71173SOL     OW15357   1.313   9.769   8.454
71173SOL    HW115358   1.269   9.728   8.529
71173SOL    HW215359   1.243   9.812   8.406
71174SOL     OW15360   4.197   6.420  12.556
71174SOL    HW115361   4.259   6.386  12.620
71174SOL    HW215362   4.114   6.377  12.578
71175SOL     OW15363   2.127   9.999  12.274
71175SOL    HW115364   2.144   9.906  12.261
71175SOL    HW215365   2.162  10.042  12.196
71176SOL     OW15366   6.045  14.424   2.193
71176SOL    HW115367   6.120  14.375   2.227
71176SOL    HW215368   6.081  14.510   2.170
71177SOL     OW15369   1.538   1.594  10.764
71177SOL    HW115370   1.464   1.643  10.728
71177SOL    HW215371   1.615   1.648  10.745
71178SOL     OW15372  11.854   3.519   6.909
71178SOL    HW115373  11.947   3.496   6.901
71178SOL    HW215374  11.822   3.465   6.981
71179SOL     OW15375  10.475   9.561  14.206
71179SOL    HW115376  10.381   9.578  14.212
71179SOL    HW215377  10.510   9.638  14.161
71180SOL     OW15378   7.552  10.690   2.538
71180SOL    HW115379   7.518  10.758   2.596
71180SOL    HW215380   7.644  10.682   2.563
71181SOL     OW15381   7.460  12.415   8.360
71181SOL    HW115382   7.507  12.498   8.360
71181SOL    HW215383   7.453  12.390   8.452
71182SOL     OW15384  13.648  11.263  14.836
71182SOL    HW115385  13.622  11.341  14.788
71182SOL    HW215386  13.743  11.258  14.824
71183SOL     OW15387   0.433   9.221   9.614
71183SOL    HW115388   0.355   9.195   9.663
71183SOL    HW215389   0.472   9.291   9.666
71184SOL     OW15390   4.925   3.112   0.890
71184SOL    HW115391   4.957   3.179   0.830
71184SOL    HW215392   4.833   3.099   0.864
71185SOL     OW15393   2.200  11.887  13.466
71185SOL    HW115394   2.204  11.802  13.511
71185SOL    HW215395   2.279  11.889  13.412
71186SOL     OW15396   9.360   6.340  12.418
71186SOL    HW115397   9.442   6.372  12.380
71186SOL    HW215398   9.387   6.267  12.474
71187SOL     OW15399  12.203   6.009   1.664
71187SOL    HW115400  12.257   6.074   1.708
71187SOL    HW215401  12.180   5.947   1.733
71188SOL     OW15402  11.964   2.538   7.809
71188SOL    HW115403  11.948   2.632   7.806
71188SOL    HW215404  12.059   2.529   7.801
71189SOL     OW15405   6.534   8.563   1.686
71189SOL    HW115406   6.584   8.610   1.619
71189SOL    HW215407   6.599   8.507   1.728
71190SOL     OW15408   2.128   4.699   3.198
71190SOL    HW115409   2.099   4.761   3.264
71190SOL    HW215410   2.154   4.754   3.124
71191SOL     OW15411   9.754   0.786  11.958
71191SOL    HW115412   9.757   0.713  11.896
71191SOL    HW215413   9.687   0.844  11.923
71192SOL     OW15414   1.936  12.592   2.838
71192SOL    HW115415   1.868  12.552   2.893
71192SOL    HW215416   1.911  12.684   2.834
71193SOL     OW15417   3.386   3.033   2.928
71193SOL    HW115418   3.349   3.121   2.932
71193SOL    HW215419   3.311   2.974   2.930
71194SOL     OW15420   8.469   9.750   0.170
71194SOL    HW115421   8.432   9.799   0.244
71194SOL    HW215422   8.503   9.670   0.209
71195SOL     OW15423   3.723   1.069  12.925
71195SOL    HW115424   3.761   1.142  12.877
71195SOL    HW215425   3.690   1.108  13.006
71196SOL     OW15426   9.496   3.940   9.809
71196SOL    HW115427   9.417   3.887   9.798
71196SOL    HW215428   9.548   3.922   9.731
71197SOL     OW15429  14.241   5.091   8.757
71197SOL    HW115430  14.328   5.096   8.798
71197SOL    HW215431  14.208   5.181   8.762
71198SOL     OW15432   1.545   2.364  10.340
71198SOL    HW115433   1.500   2.286  10.307
71198SOL    HW215434   1.513   2.435  10.285
71199SOL     OW15435  11.774  13.530   8.587
71199SOL    HW115436  11.800  13.464   8.523
71199SOL    HW215437  11.842  13.525   8.655
71200SOL     OW15438   7.480  11.143   0.880
71200SOL    HW115439   7.548  11.101   0.933
71200SOL    HW215440   7.473  11.089   0.802
71201SOL     OW15441   4.675  12.769   5.253
71201SOL    HW115442   4.647  12.779   5.162
71201SOL    HW215443   4.594  12.757   5.302
71202SOL     OW15444   1.554  13.309  13.082
71202SOL    HW115445   1.486  13.254  13.121
71202SOL    HW215446   1.536  13.397  13.116
71203SOL     OW15447   6.315   5.032   1.905
71203SOL    HW115448   6.256   5.056   1.976
71203SOL    HW215449   6.374   5.107   1.896
71204SOL     OW15450   8.552  12.503  12.833
71204SOL    HW115451   8.562  12.456  12.916
71204SOL    HW215452   8.494  12.446  12.781
71205SOL     OW15453  14.354   8.436   2.222
71205SOL    HW115454  14.312   8.519   2.200
71205SOL    HW215455  14.308   8.404   2.299
71206SOL     OW15456   8.023  10.832   7.022
71206SOL    HW115457   7.942  10.860   6.979
71206SOL    HW215458   8.007  10.845   7.115
71207SOL     OW15459  14.320   1.762   7.358
71207SOL    HW115460  14.384   1.827   7.385
71207SOL    HW215461  14.239   1.788   7.403
71208SOL     OW15462   3.251   9.201   0.990
71208SOL    HW115463   3.217   9.290   0.980
71208SOL    HW215464   3.186   9.145   0.947
71209SOL     OW15465  12.096  13.887   9.903
71209SOL    HW115466  12.016  13.908   9.951
71209SOL    HW215467  12.127  13.805   9.943
71210SOL     OW15468  11.909  13.763  12.951
71210SOL    HW115469  11.837  13.825  12.966
71210SOL    HW215470  11.949  13.793  12.869
71211SOL     OW15471   2.254  12.086   1.836
71211SOL    HW115472   2.343  12.053   1.842
71211SOL    HW215473   2.241  12.102   1.743
71212SOL     OW15474   8.432   4.330  10.504
71212SOL    HW115475   8.431   4.240  10.470
71212SOL    HW215476   8.385   4.326  10.587
71213SOL     OW15477   1.868   5.064  14.096
71213SOL    HW115478   1.933   5.115  14.145
71213SOL    HW215479   1.878   5.092  14.005
71214SOL     OW15480  12.490   7.412   6.356
71214SOL    HW115481  12.543   7.492   6.350
71214SOL    HW215482  12.484   7.381   6.266
71215SOL     OW15483   5.445   5.722  10.083
71215SOL    HW115484   5.371   5.780  10.068
71215SOL    HW215485   5.464   5.684   9.997
71216SOL     OW15486   9.927  14.315   1.152
71216SOL    HW115487   9.992  14.255   1.188
71216SOL    HW215488   9.857  14.258   1.119
71217SOL     OW15489  12.733   5.191   5.103
71217SOL    HW115490  12.744   5.227   5.191
71217SOL    HW215491  12.710   5.266   5.048
71218SOL     OW15492   9.659   0.087   4.290
71218SOL    HW115493   9.749   0.117   4.301
71218SOL    HW215494   9.640   0.041   4.371
71219SOL     OW15495   5.726   3.128   9.266
71219SOL    HW115496   5.782   3.199   9.235
71219SOL    HW215497   5.683   3.164   9.344
71220SOL     OW15498  13.125   4.893   8.509
71220SOL    HW115499  13.195   4.838   8.543
71220SOL    HW215500  13.169   4.960   8.457
71221SOL     OW15501   4.196  14.136   6.267
71221SOL    HW115502   4.196  14.226   6.299
71221SOL    HW215503   4.263  14.092   6.319
71222SOL     OW15504   3.015   5.144  13.466
71222SOL    HW115505   2.934   5.179  13.429
71222SOL    HW215506   2.991   5.057  13.497
71223SOL     OW15507   5.779  10.627   7.102
71223SOL    HW115508   5.803  10.575   7.025
71223SOL    HW215509   5.840  10.597   7.170
71224SOL     OW15510  14.447   6.457  14.808
71224SOL    HW115511  14.514   6.522  14.787
71224SOL    HW215512  14.434   6.409  14.727
71225SOL     OW15513  12.253   4.432   8.290
71225SOL    HW115514  12.302   4.355   8.263
71225SOL    HW215515  12.212   4.407   8.374
71226SOL     OW15516   3.524   2.894   8.683
71226SOL    HW115517   3.542   2.926   8.595
71226SOL    HW215518   3.605   2.912   8.732
71227SOL     OW15519   2.752   0.392   4.714
71227SOL    HW115520   2.768   0.413   4.622
71227SOL    HW215521   2.839   0.377   4.751
71228SOL     OW15522  12.011   2.964   9.199
71228SOL    HW115523  12.027   3.052   9.233
71228SOL    HW215524  11.918   2.949   9.215
71229SOL     OW15525  11.267   0.881   9.996
71229SOL    HW115526  11.304   0.868   9.908
71229SOL    HW215527  11.324   0.832  10.054
71230SOL     OW15528  10.642   7.552   1.106
71230SOL    HW115529  10.574   7.580   1.167
71230SOL    HW215530  10.603   7.477   1.060
71231SOL     OW15531   9.574   1.998   6.394
71231SOL    HW115532   9.537   1.987   6.482
71231SOL    HW215533   9.603   2.089   6.392
71232SOL     OW15534   1.816   9.953  10.088
71232SOL    HW115535   1.792   9.861  10.097
71232SOL    HW215536   1.749   9.990  10.030
71233SOL     OW15537  13.323   2.451   3.282
71233SOL    HW115538  13.331   2.372   3.228
71233SOL    HW215539  13.246   2.496   3.248
71234SOL     OW15540   6.125  11.564   3.940
71234SOL    HW115541   6.038  11.533   3.914
71234SOL    HW215542   6.185  11.524   3.878
71235SOL     OW15543  14.696  14.238   9.754
71235SOL    HW115544  14.742  14.159   9.727
71235SOL    HW215545  14.733  14.259   9.840
71236SOL     OW15546  12.818   1.822  12.363
71236SOL    HW115547  12.762   1.852  12.291
71236SOL    HW215548  12.883   1.891  12.374
71237SOL     OW15549   0.850   6.317   9.044
71237SOL    HW115550   0.844   6.314   8.948
71237SOL    HW215551   0.938   6.353   9.061
71238SOL     OW15552   7.853  14.142   4.718
71238SOL    HW115553   7.841  14.097   4.801
71238SOL    HW215554   7.777  14.116   4.665
71239SOL     OW15555  10.663   3.159   4.591
71239SOL    HW115556  10.624   3.108   4.662
71239SOL    HW215557  10.596   3.224   4.568
71240SOL     OW15558   9.950  12.904   7.099
71240SOL    HW115559  10.010  12.852   7.153
71240SOL    HW215560   9.978  12.886   7.009
71241SOL     OW15561  11.400   4.027   2.141
71241SOL    HW115562  11.306   4.017   2.157
71241SOL    HW215563  11.428   3.943   2.106
71242SOL     OW15564   1.447   1.520  13.258
71242SOL    HW115565   1.520   1.470  13.220
71242SOL    HW215566   1.488   1.577  13.322
71243SOL     OW15567   0.416   9.907   9.454
71243SOL    HW115568   0.415   9.887   9.361
71243SOL    HW215569   0.377   9.830   9.496
71244SOL     OW15570   3.560  14.120   4.992
71244SOL    HW115571   3.572  14.089   5.081
71244SOL    HW215572   3.566  14.041   4.938
71245SOL     OW15573   4.545  10.464   5.460
71245SOL    HW115574   4.559  10.552   5.495
71245SOL    HW215575   4.497  10.478   5.379
71246SOL     OW15576  14.209   8.561  11.561
71246SOL    HW115577  14.248   8.570  11.474
71246SOL    HW215578  14.136   8.500  11.548
71247SOL     OW15579  10.209   8.739  13.463
71247SOL    HW115580  10.244   8.817  13.420
71247SOL    HW215581  10.114   8.747  13.452
71248SOL     OW15582   4.871  13.813   1.458
71248SOL    HW115583   4.796  13.753   1.456
71248SOL    HW215584   4.852  13.871   1.532
71249SOL     OW15585  11.299   9.329   2.661
71249SOL    HW115586  11.206   9.313   2.651
71249SOL    HW215587  11.340   9.243   2.652
71250SOL     OW15588   7.209  13.590   5.285
71250SOL    HW115589   7.146  13.660   5.265
71250SOL    HW215590   7.267  13.629   5.350
71251SOL     OW15591  14.805   8.966   6.262
71251SOL    HW115592  14.743   8.949   6.191
71251SOL    HW215593   0.011   8.921   6.236
71252SOL     OW15594  13.403   9.693   8.251
71252SOL    HW115595  13.380   9.752   8.179
71252SOL    HW215596  13.454   9.623   8.210
71253SOL     OW15597  13.677   9.801  10.058
71253SOL    HW115598  13.611   9.857  10.099
71253SOL    HW215599  13.663   9.715  10.096
71254SOL     OW15600   9.625   5.452  14.239
71254SOL    HW115601   9.546   5.501  14.261
71254SOL    HW215602   9.627   5.451  14.144
71255SOL     OW15603   0.816  11.270   8.718
71255SOL    HW115604   0.791  11.316   8.798
71255SOL    HW215605   0.734  11.261   8.670
71256SOL     OW15606  13.904  12.670   8.796
71256SOL    HW115607  13.970  12.601   8.804
71256SOL    HW215608  13.868  12.659   8.708
71257SOL     OW15609   5.699  12.818  10.056
71257SOL    HW115610   5.655  12.902  10.063
71257SOL    HW215611   5.631  12.758  10.023
71258SOL     OW15612   3.300   7.548   2.434
71258SOL    HW115613   3.377   7.587   2.476
71258SOL    HW215614   3.230   7.613   2.447
71259SOL     OW15615   4.820   3.423   1.671
71259SOL    HW115616   4.736   3.425   1.717
71259SOL    HW215617   4.880   3.471   1.728
71260SOL     OW15618   4.915   2.155  11.046
71260SOL    HW115619   4.942   2.226  11.104
71260SOL    HW215620   4.854   2.103  11.099
71261SOL     OW15621  10.947   4.494   5.319
71261SOL    HW115622  10.943   4.455   5.232
71261SOL    HW215623  10.930   4.422   5.379
71262SOL     OW15624  13.777   6.010   0.086
71262SOL    HW115625  13.691   6.000   0.124
71262SOL    HW215626  13.837   6.008   0.160
71263SOL     OW15627  11.066   0.466  12.584
71263SOL    HW115628  10.991   0.463  12.525
71263SOL    HW215629  11.046   0.537  12.645
71264SOL     OW15630   3.344   4.618   2.136
71264SOL    HW115631   3.338   4.525   2.116
71264SOL    HW215632   3.436   4.634   2.154
71265SOL     OW15633   2.105   8.554   2.965
71265SOL    HW115634   2.153   8.608   3.027
71265SOL    HW215635   2.078   8.615   2.896
71266SOL     OW15636   9.685  12.280  12.313
71266SOL    HW115637   9.591  12.288  12.298
71266SOL    HW215638   9.695  12.196  12.358
71267SOL     OW15639   4.256   1.629   3.168
71267SOL    HW115640   4.295   1.715   3.154
71267SOL    HW215641   4.262   1.614   3.262
71268SOL     OW15642   5.479   8.828  10.923
71268SOL    HW115643   5.432   8.751  10.891
71268SOL    HW215644   5.519   8.799  11.005
71269SOL     OW15645   7.679   4.674   1.522
71269SOL    HW115646   7.662   4.765   1.549
71269SOL    HW215647   7.680   4.678   1.426
71270SOL     OW15648   9.527   1.161  13.019
71270SOL    HW115649   9.561   1.182  13.106
71270SOL    HW215650   9.490   1.074  13.028
71271SOL     OW15651   9.231  10.650  11.816
71271SOL    HW115652   9.278  10.625  11.736
71271SOL    HW215653   9.138  10.641  11.793
71272SOL     OW15654   6.695   6.671   4.611
71272SOL    HW115655   6.611   6.713   4.625
71272SOL    HW215656   6.692   6.592   4.666
71273SOL     OW15657   2.573   2.631  12.908
71273SOL    HW115658   2.589   2.724  12.895
71273SOL    HW215659   2.658   2.594  12.933
71274SOL     OW15660   6.193   7.771  14.076
71274SOL    HW115661   6.199   7.680  14.107
71274SOL    HW215662   6.099   7.786  14.065
71275SOL     OW15663   2.324  10.660  12.659
71275SOL    HW115664   2.415  10.686  12.649
71275SOL    HW215665   2.275  10.742  12.654
71276SOL     OW15666   2.280   2.892   7.181
71276SOL    HW115667   2.271   2.802   7.213
71276SOL    HW215668   2.191   2.926   7.180
71277SOL     OW15669   9.082  11.950   9.072
71277SOL    HW115670   9.106  12.042   9.084
71277SOL    HW215671   9.017  11.951   9.002
71278SOL     OW15672   1.394   1.288   0.172
71278SOL    HW115673   1.411   1.352   0.242
71278SOL    HW215674   1.353   1.339   0.102
71279SOL     OW15675   4.778  14.098  11.169
71279SOL    HW115676   4.746  14.146  11.092
71279SOL    HW215677   4.725  14.130  11.242
71280SOL     OW15678  10.545  13.741   0.530
71280SOL    HW115679  10.564  13.664   0.584
71280SOL    HW215680  10.549  13.708   0.440
71281SOL     OW15681   0.673   8.832   0.863
71281SOL    HW115682   0.587   8.847   0.822
71281SOL    HW215683   0.653   8.819   0.956
71282SOL     OW15684   6.045  11.170  10.710
71282SOL    HW115685   6.108  11.098  10.701
71282SOL    HW215686   5.968  11.129  10.750
71283SOL     OW15687   7.634  12.351   2.385
71283SOL    HW115688   7.600  12.384   2.469
71283SOL    HW215689   7.707  12.295   2.410
71284SOL     OW15690   2.290   5.850  14.180
71284SOL    HW115691   2.238   5.854  14.100
71284SOL    HW215692   2.361   5.911  14.166
71285SOL     OW15693   0.734  14.574   5.295
71285SOL    HW115694   0.743  14.506   5.229
71285SOL    HW215695   0.820  14.615   5.301
71286SOL     OW15696   0.904   3.284   2.557
71286SOL    HW115697   0.991   3.248   2.577
71286SOL    HW215698   0.861   3.290   2.642
71287SOL     OW15699   6.283  13.959  11.735
71287SOL    HW115700   6.275  14.011  11.656
71287SOL    HW215701   6.226  13.883  11.720
71288SOL     OW15702  11.004  10.883   8.626
71288SOL    HW115703  11.013  10.867   8.720
71288SOL    HW215704  11.003  10.796   8.586
71289SOL     OW15705   6.106  11.777   9.295
71289SOL    HW115706   6.026  11.754   9.247
71289SOL    HW215707   6.080  11.776   9.387
71290SOL     OW15708   3.478   3.861   1.861
71290SOL    HW115709   3.466   3.921   1.934
71290SOL    HW215710   3.454   3.775   1.897
71291SOL     OW15711  11.695   7.339   8.072
71291SOL    HW115712  11.779   7.293   8.074
71291SOL    HW215713  11.710   7.412   8.012
71292SOL     OW15714   1.764   8.829   8.771
71292SOL    HW115715   1.729   8.862   8.854
71292SOL    HW215716   1.689   8.785   8.730
71293SOL     OW15717   5.091   1.248   4.354
71293SOL    HW115718   5.186   1.247   4.368
71293SOL    HW215719   5.077   1.317   4.289
71294SOL     OW15720   4.118  13.133   5.686
71294SOL    HW115721   4.123  13.154   5.779
71294SOL    HW215722   4.189  13.184   5.646
71295SOL     OW15723   7.944   0.237   2.128
71295SOL    HW115724   7.917   0.171   2.065
71295SOL    HW215725   7.879   0.232   2.198
71296SOL     OW15726   7.228  11.300   1.128
71296SOL    HW115727   7.297  11.361   1.100
71296SOL    HW215728   7.146  11.344   1.105
71297SOL     OW15729   6.699  10.690  12.650
71297SOL    HW115730   6.761  10.622  12.677
71297SOL    HW215731   6.635  10.693  12.721
71298SOL     OW15732  12.206   4.071  13.628
71298SOL    HW115733  12.216   3.976  13.625
71298SOL    HW215734  12.295   4.105  13.640
71299SOL     OW15735   0.342   8.044   6.305
71299SOL    HW115736   0.430   8.026   6.339
71299SOL    HW215737   0.284   8.031   6.379
71300SOL     OW15738   2.554   8.833  10.724
71300SOL    HW115739   2.600   8.750  10.713
71300SOL    HW215740   2.548   8.869  10.636
71301SOL     OW15741  14.060   7.141  11.780
71301SOL    HW115742  14.013   7.200  11.839
71301SOL    HW215743  14.016   7.151  11.696
71302SOL     OW15744   2.872  12.925   3.278
71302SOL    HW115745   2.960  12.940   3.314
71302SOL    HW215746   2.859  12.831   3.285
71303SOL     OW15747  13.230   7.743  14.188
71303SOL    HW115748  13.199   7.679  14.252
71303SOL    HW215749  13.236   7.825  14.237
71304SOL     OW15750  12.187  12.668   2.762
71304SOL    HW115751  12.248  12.726   2.715
71304SOL    HW215752  12.148  12.724   2.829
71305SOL     OW15753   6.553   1.742  13.656
71305SOL    HW115754   6.645   1.768  13.653
71305SOL    HW215755   6.554   1.651  13.687
71306SOL     OW15756  10.183  10.274   9.698
71306SOL    HW115757  10.172  10.269   9.603
71306SOL    HW215758  10.231  10.195   9.720
71307SOL     OW15759  14.711   1.622  10.214
71307SOL    HW115760  14.688   1.674  10.292
71307SOL    HW215761  14.636   1.634  10.155
71308SOL     OW15762  12.982   9.716  13.264
71308SOL    HW115763  12.936   9.763  13.193
71308SOL    HW215764  12.913   9.695  13.327
71309SOL     OW15765  10.714   8.694   5.722
71309SOL    HW115766  10.628   8.685   5.765
71309SOL    HW215767  10.751   8.773   5.760
71310SOL     OW15768   4.314  14.799  10.243
71310SOL    HW115769   4.372  14.724  10.234
71310SOL    HW215770   4.295  14.825  10.153
71311SOL     OW15771   5.274   2.574   6.502
71311SOL    HW115772   5.190   2.604   6.538
71311SOL    HW215773   5.263   2.480   6.491
71312SOL     OW15774   6.960   9.282   2.774
71312SOL    HW115775   6.960   9.225   2.851
71312SOL    HW215776   6.986   9.224   2.702
71313SOL     OW15777  14.253   6.911  11.735
71313SOL    HW115778  14.198   6.852  11.786
71313SOL    HW215779  14.223   6.998  11.759
71314SOL     OW15780  10.798   0.789   0.954
71314SOL    HW115781  10.811   0.791   0.859
71314SOL    HW215782  10.760   0.703   0.971
71315SOL     OW15783   7.025   3.883  10.231
71315SOL    HW115784   7.016   3.805  10.177
71315SOL    HW215785   7.118   3.887  10.252
71316SOL     OW15786   4.128   2.568  10.495
71316SOL    HW115787   4.116   2.536  10.405
71316SOL    HW215788   4.096   2.496  10.550
71317SOL     OW15789   4.952   2.791   0.043
71317SOL    HW115790   5.000   2.821  14.840
71317SOL    HW215791   4.867   2.764   0.008
71318SOL     OW15792  13.775   1.659  10.147
71318SOL    HW115793  13.808   1.650  10.058
71318SOL    HW215794  13.716   1.584  10.159
71319SOL     OW15795  11.240   8.963   2.370
71319SOL    HW115796  11.279   9.049   2.356
71319SOL    HW215797  11.253   8.945   2.463
71320SOL     OW15798   2.899  10.549   0.072
71320SOL    HW115799   2.859  10.545  14.859
71320SOL    HW215800   2.932  10.639   0.080
71321SOL     OW15801  10.218  13.251   3.017
71321SOL    HW115802  10.304  13.294   3.016
71321SOL    HW215803  10.235  13.161   2.988
71322SOL     OW15804   3.985   7.404  12.982
71322SOL    HW115805   4.045   7.465  12.939
71322SOL    HW215806   4.025   7.318  12.971
71323SOL     OW15807  14.483   7.704   9.401
71323SOL    HW115808  14.422   7.656   9.345
71323SOL    HW215809  14.427   7.743   9.468
71324SOL     OW15810  11.831   4.095   1.432
71324SOL    HW115811  11.897   4.164   1.423
71324SOL    HW215812  11.793   4.087   1.345
71325SOL     OW15813   6.096   4.421   1.954
71325SOL    HW115814   6.115   4.514   1.946
71325SOL    HW215815   6.014   4.417   2.004
71326SOL     OW15816   1.172   2.038   9.620
71326SOL    HW115817   1.203   2.059   9.708
71326SOL    HW215818   1.161   1.943   9.620
71327SOL     OW15819  13.116   6.848   7.872
71327SOL    HW115820  13.150   6.933   7.900
71327SOL    HW215821  13.024   6.865   7.852
71328SOL     OW15822   2.563   1.855   6.032
71328SOL    HW115823   2.513   1.937   6.030
71328SOL    HW215824   2.505   1.792   6.075
71329SOL     OW15825  12.528   0.829   0.177
71329SOL    HW115826  12.497   0.780   0.101
71329SOL    HW215827  12.622   0.811   0.181
71330SOL     OW15828   7.553   8.370   0.489
71330SOL    HW115829   7.489   8.390   0.557
71330SOL    HW215830   7.510   8.305   0.433
71331SOL     OW15831  10.080   2.092  14.249
71331SOL    HW115832  10.025   2.077  14.325
71331SOL    HW215833  10.045   2.033  14.182
71332SOL     OW15834   9.716  11.827   4.463
71332SOL    HW115835   9.638  11.843   4.517
71332SOL    HW215836   9.710  11.735   4.439
71333SOL     OW15837  10.020  14.525   4.166
71333SOL    HW115838  10.090  14.502   4.228
71333SOL    HW215839   9.971  14.595   4.210
71334SOL     OW15840  10.302  13.533  11.888
71334SOL    HW115841  10.395  13.555  11.879
71334SOL    HW215842  10.297  13.483  11.969
71335SOL     OW15843   8.188   4.962   0.319
71335SOL    HW115844   8.270   4.975   0.271
71335SOL    HW215845   8.142   5.046   0.312
71336SOL     OW15846   6.904  11.184   0.986
71336SOL    HW115847   6.933  11.244   0.918
71336SOL    HW215848   6.840  11.233   1.036
71337SOL     OW15849   2.641  13.341   1.823
71337SOL    HW115850   2.707  13.352   1.755
71337SOL    HW215851   2.558  13.342   1.776
71338SOL     OW15852   3.158   2.901   5.561
71338SOL    HW115853   3.242   2.856   5.551
71338SOL    HW215854   3.113   2.852   5.631
71339SOL     OW15855  14.192   3.759   4.821
71339SOL    HW115856  14.284   3.762   4.847
71339SOL    HW215857  14.168   3.851   4.809
71340SOL     OW15858   0.410   9.601  13.493
71340SOL    HW115859   0.348   9.632  13.428
71340SOL    HW215860   0.452   9.525  13.453
71341SOL     OW15861  13.460   8.394   3.885
71341SOL    HW115862  13.514   8.461   3.843
71341SOL    HW215863  13.373   8.406   3.848
71342SOL     OW15864   1.249  11.378   0.667
71342SOL    HW115865   1.320  11.417   0.717
71342SOL    HW215866   1.254  11.285   0.688
71343SOL     OW15867  11.212   5.419   1.475
71343SOL    HW115868  11.213   5.414   1.379
71343SOL    HW215869  11.300   5.447   1.499
71344SOL     OW15870   0.423   5.133  11.557
71344SOL    HW115871   0.438   5.070  11.628
71344SOL    HW215872   0.333   5.163  11.571
71345SOL     OW15873   3.142  10.423   9.810
71345SOL    HW115874   3.190  10.429   9.727
71345SOL    HW215875   3.077  10.493   9.805
71346SOL     OW15876  14.850   4.983  12.817
71346SOL    HW115877   0.059   4.968  12.862
71346SOL    HW215878  14.786   4.935  12.869
71347SOL     OW15879   9.474   3.136   8.387
71347SOL    HW115880   9.509   3.101   8.305
71347SOL    HW215881   9.422   3.065   8.424
71348SOL     OW15882   2.882   0.512   8.023
71348SOL    HW115883   2.856   0.443   7.962
71348SOL    HW215884   2.854   0.593   7.980
71349SOL     OW15885   9.577   2.386  14.496
71349SOL    HW115886   9.491   2.372  14.458
71349SOL    HW215887   9.619   2.450  14.438
71350SOL     OW15888   3.041   2.094   5.368
71350SOL    HW115889   3.098   2.049   5.430
71350SOL    HW215890   3.001   2.023   5.317
71351SOL     OW15891   3.161   5.063  12.453
71351SOL    HW115892   3.205   5.041  12.371
71351SOL    HW215893   3.146   4.979  12.496
71352SOL     OW15894   2.336   2.207  11.557
71352SOL    HW115895   2.297   2.142  11.498
71352SOL    HW215896   2.289   2.195  11.639
71353SOL     OW15897  14.563   9.943   7.332
71353SOL    HW115898  14.556   9.996   7.253
71353SOL    HW215899  14.627   9.875   7.311
71354SOL     OW15900   8.769   0.395   5.461
71354SOL    HW115901   8.690   0.348   5.488
71354SOL    HW215902   8.837   0.329   5.461
71355SOL     OW15903   6.589   3.308   2.502
71355SOL    HW115904   6.638   3.344   2.429
71355SOL    HW215905   6.571   3.218   2.477
71356SOL     OW15906  12.671   6.786  11.516
71356SOL    HW115907  12.762   6.761  11.499
71356SOL    HW215908  12.669   6.881  11.499
71357SOL     OW15909  10.190  12.177   1.913
71357SOL    HW115910  10.100  12.190   1.942
71357SOL    HW215911  10.236  12.147   1.992
71358SOL     OW15912  13.679  12.830  13.332
71358SOL    HW115913  13.722  12.914  13.316
71358SOL    HW215914  13.697  12.811  13.424
71359SOL     OW15915   8.582   7.726   1.078
71359SOL    HW115916   8.569   7.805   1.025
71359SOL    HW215917   8.511   7.729   1.142
71360SOL     OW15918   9.152  10.882  11.557
71360SOL    HW115919   9.103  10.943  11.501
71360SOL    HW215920   9.142  10.797  11.514
71361SOL     OW15921   5.413  11.502   8.926
71361SOL    HW115922   5.480  11.538   8.867
71361SOL    HW215923   5.364  11.441   8.872
71362SOL     OW15924   9.142   6.972  11.934
71362SOL    HW115925   9.137   6.963  11.839
71362SOL    HW215926   9.137   7.066  11.950
71363SOL     OW15927  11.116   3.037  13.831
71363SOL    HW115928  11.206   3.051  13.861
71363SOL    HW215929  11.074   3.122  13.840
71364SOL     OW15930  10.795  10.245   2.118
71364SOL    HW115931  10.867  10.296   2.080
71364SOL    HW215932  10.787  10.280   2.207
71365SOL     OW15933   8.501  14.264   9.768
71365SOL    HW115934   8.415  14.257   9.810
71365SOL    HW215935   8.537  14.347   9.800
71366SOL     OW15936   3.238  10.615   8.220
71366SOL    HW115937   3.200  10.595   8.306
71366SOL    HW215938   3.278  10.701   8.232
71367SOL     OW15939   1.335   8.044   9.543
71367SOL    HW115940   1.375   8.036   9.457
71367SOL    HW215941   1.292   8.130   9.542
71368SOL     OW15942   0.881   3.809   1.878
71368SOL    HW115943   0.843   3.737   1.929
71368SOL    HW215944   0.931   3.766   1.809
71369SOL     OW15945   7.916  10.722   7.677
71369SOL    HW115946   7.890  10.809   7.647
71369SOL    HW215947   7.865  10.662   7.623
71370SOL     OW15948  11.987  13.195  12.035
71370SOL    HW115949  11.901  13.157  12.054
71370SOL    HW215950  12.014  13.235  12.118
71371SOL     OW15951   0.293   0.894   0.862
71371SOL    HW115952   0.298   0.952   0.937
71371SOL    HW215953   0.322   0.808   0.895
71372SOL     OW15954  14.582   0.838  13.127
71372SOL    HW115955  14.595   0.743  13.129
71372SOL    HW215956  14.540   0.858  13.211
71373SOL     OW15957  13.682   3.974   1.258
71373SOL    HW115958  13.664   3.990   1.351
71373SOL    HW215959  13.674   4.060   1.217
71374SOL     OW15960   3.809  13.485   6.505
71374SOL    HW115961   3.845  13.574   6.515
71374SOL    HW215962   3.791  13.456   6.594
71375SOL     OW15963   0.488   9.677  10.591
71375SOL    HW115964   0.529   9.750  10.638
71375SOL    HW215965   0.521   9.599  10.634
71376SOL     OW15966   7.900  11.243   4.224
71376SOL    HW115967   7.976  11.295   4.198
71376SOL    HW215968   7.832  11.308   4.242
71377SOL     OW15969   0.054   1.373   6.738
71377SOL    HW115970   0.062   1.388   6.644
71377SOL    HW215971  14.840   1.338   6.750
71378SOL     OW15972   7.161   8.630   5.659
71378SOL    HW115973   7.202   8.656   5.576
71378SOL    HW215974   7.089   8.573   5.633
71379SOL     OW15975  10.835  10.386   5.543
71379SOL    HW115976  10.781  10.440   5.600
71379SOL    HW215977  10.776  10.316   5.514
71380SOL     OW15978   6.835   4.729   8.834
71380SOL    HW115979   6.783   4.810   8.840
71380SOL    HW215980   6.925   4.760   8.821
71381SOL     OW15981  14.102   9.720  13.578
71381SOL    HW115982  14.023   9.671  13.554
71381SOL    HW215983  14.095   9.732  13.672
71382SOL     OW15984   0.204  11.139   7.490
71382SOL    HW115985   0.116  11.158   7.458
71382SOL    HW215986   0.229  11.058   7.446
71383SOL     OW15987   1.456   6.636  13.318
71383SOL    HW115988   1.463   6.542  13.331
71383SOL    HW215989   1.543   6.663  13.289
71384SOL     OW15990   5.173  10.396  14.423
71384SOL    HW115991   5.183  10.301  14.423
71384SOL    HW215992   5.083  10.410  14.393
71385SOL     OW15993   1.141  13.698  13.599
71385SOL    HW115994   1.052  13.733  13.588
71385SOL    HW215995   1.137  13.648  13.680
71386SOL     OW15996   8.381   9.070   0.138
71386SOL    HW115997   8.432   8.989   0.130
71386SOL    HW215998   8.434   9.136   0.095
71387SOL     OW15999   0.072   8.908   8.232
71387SOL    HW116000   0.086   8.998   8.262
71387SOL    HW216001   0.125   8.855   8.291
71388SOL     OW16002   0.768  12.113   5.345
71388SOL    HW116003   0.843  12.172   5.345
71388SOL    HW216004   0.805  12.028   5.370
71389SOL     OW16005  12.892   6.155   2.197
71389SOL    HW116006  12.852   6.201   2.123
71389SOL    HW216007  12.886   6.062   2.173
71390SOL     OW16008  12.347  13.154   9.625
71390SOL    HW116009  12.417  13.089   9.617
71390SOL    HW216010  12.325  13.154   9.718
71391SOL     OW16011  14.784   9.616  10.051
71391SOL    HW116012  14.830   9.673  10.112
71391SOL    HW216013  14.698   9.602  10.091
71392SOL     OW16014   0.417  11.292   7.513
71392SOL    HW116015   0.342  11.237   7.491
71392SOL    HW216016   0.414  11.364   7.450
71393SOL     OW16017   8.889  10.742   5.145
71393SOL    HW116018   8.819  10.786   5.192
71393SOL    HW216019   8.936  10.812   5.101
71394SOL     OW16020   6.530   4.670   0.233
71394SOL    HW116021   6.467   4.615   0.186
71394SOL    HW216022   6.483   4.700   0.310
71395SOL     OW16023  13.175   7.118  10.637
71395SOL    HW116024  13.116   7.173  10.586
71395SOL    HW216025  13.263   7.145  10.611
71396SOL     OW16026   8.102   9.801   2.324
71396SOL    HW116027   8.162   9.865   2.363
71396SOL    HW216028   8.071   9.843   2.244
71397SOL     OW16029  12.586   9.519   2.164
71397SOL    HW116030  12.563   9.599   2.211
71397SOL    HW216031  12.556   9.448   2.221
71398SOL     OW16032  11.699   0.781  13.137
71398SOL    HW116033  11.782   0.733  13.138
71398SOL    HW216034  11.683   0.800  13.045
71399SOL     OW16035   8.299   3.423   8.475
71399SOL    HW116036   8.364   3.434   8.406
71399SOL    HW216037   8.349   3.430   8.556
71400SOL     OW16038  12.477   9.601   9.743
71400SOL    HW116039  12.509   9.616   9.654
71400SOL    HW216040  12.413   9.530   9.733
71401SOL     OW16041   1.676   4.133  10.265
71401SOL    HW116042   1.689   4.197  10.196
71401SOL    HW216043   1.763   4.116  10.300
71402SOL     OW16044  14.493   3.000   1.771
71402SOL    HW116045  14.506   3.082   1.723
71402SOL    HW216046  14.399   2.995   1.786
71403SOL     OW16047   6.876   3.319   3.365
71403SOL    HW116048   6.794   3.296   3.320
71403SOL    HW216049   6.850   3.388   3.427
71404SOL     OW16050   2.742   2.091   5.142
71404SOL    HW116051   2.815   2.031   5.154
71404SOL    HW216052   2.717   2.116   5.231
71405SOL     OW16053  11.633   6.943   0.496
71405SOL    HW116054  11.679   6.860   0.483
71405SOL    HW216055  11.543   6.925   0.468
71406SOL     OW16056   5.195  12.904  13.858
71406SOL    HW116057   5.247  12.866  13.929
71406SOL    HW216058   5.260  12.949  13.802
71407SOL     OW16059   1.380   5.636   0.796
71407SOL    HW116060   1.459   5.592   0.766
71407SOL    HW216061   1.409   5.691   0.868
71408SOL     OW16062  13.059   5.744   1.845
71408SOL    HW116063  13.049   5.688   1.922
71408SOL    HW216064  12.974   5.738   1.800
71409SOL     OW16065  13.767  14.493   2.458
71409SOL    HW116066  13.855  14.502   2.421
71409SOL    HW216067  13.728  14.580   2.447
71410SOL     OW16068   1.047   6.546   9.736
71410SOL    HW116069   1.077   6.636   9.755
71410SOL    HW216070   1.002   6.519   9.816
71411SOL     OW16071  10.208   6.977  10.948
71411SOL    HW116072  10.270   6.981  11.020
71411SOL    HW216073  10.125   7.005  10.987
71412SOL     OW16074   3.088  13.754  10.146
71412SOL    HW116075   3.171  13.731  10.187
71412SOL    HW216076   3.083  13.850  10.154
71413SOL     OW16077  10.858   5.033   1.755
71413SOL    HW116078  10.860   5.050   1.660
71413SOL    HW216079  10.852   4.938   1.762
71414SOL     OW16080   7.210   9.657  12.899
71414SOL    HW116081   7.205   9.613  12.984
71414SOL    HW216082   7.120   9.682  12.880
71415SOL     OW16083  11.845   3.096  13.532
71415SOL    HW116084  11.849   3.151  13.454
71415SOL    HW216085  11.925   3.044  13.529
71416SOL     OW16086  11.299  12.237  12.377
71416SOL    HW116087  11.371  12.300  12.374
71416SOL    HW216088  11.227  12.282  12.333
71417SOL     OW16089   5.778  14.171   3.622
71417SOL    HW116090   5.867  14.137   3.611
71417SOL    HW216091   5.757  14.212   3.538
71418SOL     OW16092   0.405   9.284  13.896
71418SOL    HW116093   0.478   9.231  13.864
71418SOL    HW216094   0.409   9.365  13.844
71419SOL     OW16095   1.333   8.313   3.245
71419SOL    HW116096   1.242   8.303   3.217
71419SOL    HW216097   1.335   8.282   3.335
71420SOL     OW16098   3.091  14.692   3.198
71420SOL    HW116099   3.166  14.745   3.226
71420SOL    HW216100   3.125  14.603   3.196
71421SOL     OW16101  10.566   2.635   7.585
71421SOL    HW116102  10.512   2.710   7.562
71421SOL    HW216103  10.648   2.648   7.537
71422SOL     OW16104   7.521   6.913   0.545
71422SOL    HW116105   7.544   6.975   0.615
71422SOL    HW216106   7.565   6.946   0.468
71423SOL     OW16107   0.233   8.848   7.734
71423SOL    HW116108   0.230   8.831   7.828
71423SOL    HW216109   0.303   8.913   7.723
71424SOL     OW16110   5.834  13.284   1.537
71424SOL    HW116111   5.915  13.281   1.587
71424SOL    HW216112   5.855  13.338   1.461
71425SOL     OW16113  10.571  10.594  14.564
71425SOL    HW116114  10.499  10.657  14.557
71425SOL    HW216115  10.528  10.509  14.566
71426SOL     OW16116   4.479   0.148  12.585
71426SOL    HW116117   4.414   0.201  12.537
71426SOL    HW216118   4.555   0.145  12.527
71427SOL     OW16119   3.813  12.504   1.462
71427SOL    HW116120   3.830  12.597   1.451
71427SOL    HW216121   3.861  12.479   1.541
71428SOL     OW16122   6.386   2.283  11.563
71428SOL    HW116123   6.479   2.306  11.560
71428SOL    HW216124   6.379   2.205  11.508
71429SOL     OW16125   2.617   2.985   4.449
71429SOL    HW116126   2.635   3.020   4.362
71429SOL    HW216127   2.610   3.062   4.505
71430SOL     OW16128   9.933   5.188  11.654
71430SOL    HW116129   9.935   5.102  11.612
71430SOL    HW216130   9.975   5.175  11.739
71431SOL     OW16131  14.232   7.415  13.319
71431SOL    HW116132  14.260   7.324  13.308
71431SOL    HW216133  14.178   7.414  13.398
71432SOL     OW16134   9.194  11.455   3.167
71432SOL    HW116135   9.263  11.443   3.232
71432SOL    HW216136   9.232  11.421   3.086
71433SOL     OW16137  13.462   2.461   1.288
71433SOL    HW116138  13.483   2.371   1.263
71433SOL    HW216139  13.483   2.513   1.210
71434SOL     OW16140   6.761   0.268  13.519
71434SOL    HW116141   6.789   0.274  13.611
71434SOL    HW216142   6.683   0.212  13.521
71435SOL     OW16143  11.715   0.042   3.667
71435SOL    HW116144  11.685  14.825   3.663
71435SOL    HW216145  11.807   0.035   3.694
71436SOL     OW16146  10.486   1.004   5.592
71436SOL    HW116147  10.542   0.945   5.541
71436SOL    HW216148  10.506   1.091   5.558
71437SOL     OW16149  13.635   7.248   8.750
71437SOL    HW116150  13.648   7.207   8.665
71437SOL    HW216151  13.543   7.271   8.753
71438SOL     OW16152  14.438   4.148   7.417
71438SOL    HW116153  14.533   4.135   7.417
71438SOL    HW216154  14.427   4.241   7.440
71439SOL     OW16155  12.706   3.894  13.610
71439SOL    HW116156  12.742   3.907  13.522
71439SOL    HW216157  12.782   3.877  13.665
71440SOL     OW16158   6.758   5.159  11.040
71440SOL    HW116159   6.679   5.111  11.063
71440SOL    HW216160   6.793   5.113  10.963
71441SOL     OW16161  14.670   5.579  11.507
71441SOL    HW116162  14.734   5.649  11.516
71441SOL    HW216163  14.616   5.604  11.432
71442SOL     OW16164  13.486   6.560   8.541
71442SOL    HW116165  13.559   6.595   8.489
71442SOL    HW216166  13.407   6.590   8.495
71443SOL     OW16167   9.339  13.378   9.158
71443SOL    HW116168   9.262  13.416   9.115
71443SOL    HW216169   9.413  13.406   9.103
71444SOL     OW16170   9.386   7.221   5.561
71444SOL    HW116171   9.295   7.248   5.548
71444SOL    HW216172   9.380   7.142   5.614
71445SOL     OW16173   4.420   7.943   5.879
71445SOL    HW116174   4.331   7.961   5.847
71445SOL    HW216175   4.425   7.848   5.883
71446SOL     OW16176   8.164   1.350   4.011
71446SOL    HW116177   8.208   1.434   4.002
71446SOL    HW216178   8.099   1.350   3.941
71447SOL     OW16179  10.464  13.032   5.318
71447SOL    HW116180  10.547  13.077   5.304
71447SOL    HW216181  10.417  13.042   5.235
71448SOL     OW16182  10.848  10.121  13.960
71448SOL    HW116183  10.940  10.096  13.970
71448SOL    HW216184  10.851  10.198  13.902
71449SOL     OW16185  11.328  10.236   0.177
71449SOL    HW116186  11.271  10.212   0.104
71449SOL    HW216187  11.277  10.216   0.256
71450SOL     OW16188   0.856  14.461  13.287
71450SOL    HW116189   0.946  14.489  13.273
71450SOL    HW216190   0.811  14.540  13.317
71451SOL     OW16191   2.366   0.228   2.325
71451SOL    HW116192   2.449   0.262   2.290
71451SOL    HW216193   2.383   0.135   2.341
71452SOL     OW16194  10.451  12.932   2.371
71452SOL    HW116195  10.387  12.877   2.416
71452SOL    HW216196  10.531  12.879   2.369
71453SOL     OW16197   0.640  14.734   2.596
71453SOL    HW116198   0.553  14.710   2.627
71453SOL    HW216199   0.678  14.787   2.666
71454SOL     OW16200   7.415  14.415   3.450
71454SOL    HW116201   7.448  14.434   3.538
71454SOL    HW216202   7.391  14.323   3.452
71455SOL     OW16203   5.375  12.366  10.860
71455SOL    HW116204   5.326  12.438  10.900
71455SOL    HW216205   5.464  12.377  10.893
71456SOL     OW16206   5.179   6.528   5.749
71456SOL    HW116207   5.084   6.527   5.759
71456SOL    HW216208   5.203   6.620   5.762
71457SOL     OW16209   6.186   0.770   1.686
71457SOL    HW116210   6.096   0.789   1.660
71457SOL    HW216211   6.212   0.845   1.741
71458SOL     OW16212  13.070   3.472   2.206
71458SOL    HW116213  12.993   3.512   2.164
71458SOL    HW216214  13.133   3.462   2.135
71459SOL     OW16215  12.756   1.063   1.399
71459SOL    HW116216  12.743   0.974   1.430
71459SOL    HW216217  12.837   1.091   1.441
71460SOL     OW16218   3.415   3.587   1.805
71460SOL    HW116219   3.486   3.594   1.741
71460SOL    HW216220   3.362   3.513   1.774
71461SOL     OW16221  14.078  11.237   5.483
71461SOL    HW116222  14.080  11.310   5.544
71461SOL    HW216223  14.036  11.166   5.532
71462SOL     OW16224   9.283   0.117   1.066
71462SOL    HW116225   9.284   0.212   1.079
71462SOL    HW216226   9.374   0.090   1.073
71463SOL     OW16227  12.992   4.324  14.834
71463SOL    HW116228  12.933   4.350  14.762
71463SOL    HW216229  12.944   4.348   0.039
71464SOL     OW16230   4.148  13.796   5.702
71464SOL    HW116231   4.162  13.854   5.777
71464SOL    HW216232   4.181  13.845   5.627
71465SOL     OW16233   3.519   9.926  11.151
71465SOL    HW116234   3.495   9.891  11.236
71465SOL    HW216235   3.479   9.866  11.088
71466SOL     OW16236   0.444   7.734   5.653
71466SOL    HW116237   0.429   7.646   5.619
71466SOL    HW216238   0.452   7.722   5.748
71467SOL     OW16239  13.567   9.590   9.333
71467SOL    HW116240  13.497   9.615   9.272
71467SOL    HW216241  13.572   9.662   9.395
71468SOL     OW16242  13.796   3.707   7.174
71468SOL    HW116243  13.769   3.792   7.207
71468SOL    HW216244  13.735   3.689   7.102
71469SOL     OW16245   6.429  13.990  13.894
71469SOL    HW116246   6.457  13.941  13.971
71469SOL    HW216247   6.351  14.038  13.922
71470SOL     OW16248  13.234   5.612  14.197
71470SOL    HW116249  13.214   5.654  14.281
71470SOL    HW216250  13.329   5.596  14.201
71471SOL     OW16251   0.166  10.075   5.281
71471SOL    HW116252   0.163  10.140   5.351
71471SOL    HW216253   0.101  10.104   5.217
71472SOL     OW16254  12.479   0.555   5.508
71472SOL    HW116255  12.475   0.651   5.500
71472SOL    HW216256  12.558   0.539   5.559
71473SOL     OW16257   0.481   6.436   2.363
71473SOL    HW116258   0.460   6.343   2.356
71473SOL    HW216259   0.560   6.447   2.309
71474SOL     OW16260   0.963   6.938  14.199
71474SOL    HW116261   0.926   7.026  14.196
71474SOL    HW216262   1.057   6.951  14.188
71475SOL     OW16263  10.171   2.976   2.073
71475SOL    HW116264  10.122   3.033   2.014
71475SOL    HW216265  10.247   2.948   2.023
71476SOL     OW16266   8.820   3.799   0.951
71476SOL    HW116267   8.758   3.800   0.879
71476SOL    HW216268   8.766   3.816   1.029
71477SOL     OW16269   5.138   9.810  14.253
71477SOL    HW116270   5.116   9.744  14.319
71477SOL    HW216271   5.073   9.798  14.185
71478SOL     OW16272   1.358  11.110   6.684
71478SOL    HW116273   1.399  11.030   6.652
71478SOL    HW216274   1.271  11.111   6.645
71479SOL     OW16275  11.215  10.416  13.461
71479SOL    HW116276  11.295  10.371  13.432
71479SOL    HW216277  11.242  10.508  13.469
71480SOL     OW16278   2.921   6.648  14.453
71480SOL    HW116279   2.893   6.700  14.377
71480SOL    HW216280   2.989   6.590  14.419
71481SOL     OW16281  12.784   7.024   6.058
71481SOL    HW116282  12.865   7.070   6.040
71481SOL    HW216283  12.790   6.942   6.008
71482SOL     OW16284   6.231   1.533   2.013
71482SOL    HW116285   6.285   1.456   1.999
71482SOL    HW216286   6.287   1.607   1.988
71483SOL     OW16287   3.757   0.112   0.970
71483SOL    HW116288   3.663   0.109   0.987
71483SOL    HW216289   3.774   0.039   0.911
71484SOL     OW16290  10.811  13.193   8.646
71484SOL    HW116291  10.893  13.154   8.613
71484SOL    HW216292  10.742  13.138   8.609
71485SOL     OW16293   6.454   1.871   2.527
71485SOL    HW116294   6.523   1.858   2.591
71485SOL    HW216295   6.426   1.962   2.538
71486SOL     OW16296  13.884   3.364   6.953
71486SOL    HW116297  13.953   3.335   6.893
71486SOL    HW216298  13.857   3.449   6.919
71487SOL     OW16299   8.953  14.422   1.903
71487SOL    HW116300   8.976  14.394   1.991
71487SOL    HW216301   8.867  14.463   1.912
71488SOL     OW16302   6.864   5.521   4.960
71488SOL    HW116303   6.882   5.562   4.875
71488SOL    HW216304   6.949   5.514   5.002
71489SOL     OW16305   9.674  10.339   7.691
71489SOL    HW116306   9.730  10.362   7.617
71489SOL    HW216307   9.700  10.249   7.714
71490SOL     OW16308   2.779   7.977  10.648
71490SOL    HW116309   2.865   7.936  10.654
71490SOL    HW216310   2.760   7.978  10.554
71491SOL     OW16311   7.707   1.349   5.205
71491SOL    HW116312   7.737   1.353   5.296
71491SOL    HW216313   7.772   1.399   5.156
71492SOL     OW16314   9.744  10.431   9.660
71492SOL    HW116315   9.700  10.439   9.745
71492SOL    HW216316   9.701  10.497   9.605
71493SOL     OW16317   4.962  14.113   6.537
71493SOL    HW116318   4.891  14.111   6.473
71493SOL    HW216319   5.025  14.177   6.502
71494SOL     OW16320   9.006  14.059   7.709
71494SOL    HW116321   8.976  14.012   7.631
71494SOL    HW216322   9.079  14.007   7.742
71495SOL     OW16323   0.318  10.321   5.638
71495SOL    HW116324   0.307  10.234   5.676
71495SOL    HW216325   0.383  10.308   5.568
71496SOL     OW16326  11.461   3.877   6.586
71496SOL    HW116327  11.421   3.799   6.625
71496SOL    HW216328  11.430   3.949   6.641
71497SOL     OW16329   0.186  12.141  11.503
71497SOL    HW116330   0.237  12.178  11.431
71497SOL    HW216331   0.247  12.139  11.577
71498SOL     OW16332  12.350  14.478   9.208
71498SOL    HW116333  12.291  14.524   9.149
71498SOL    HW216334  12.331  14.385   9.193
71499SOL     OW16335   4.025   6.289  11.238
71499SOL    HW116336   4.119   6.274  11.240
71499SOL    HW216337   4.015   6.380  11.212
71500SOL     OW16338   3.671   3.118   1.650
71500SOL    HW116339   3.735   3.155   1.711
71500SOL    HW216340   3.724   3.070   1.587
71501SOL     OW16341   2.082  11.758   0.530
71501SOL    HW116342   2.011  11.755   0.594
71501SOL    HW216343   2.061  11.689   0.467
71502SOL     OW16344  13.316   2.148   7.014
71502SOL    HW116345  13.354   2.064   6.988
71502SOL    HW216346  13.344   2.159   7.104
71503SOL     OW16347   8.275   1.406  12.003
71503SOL    HW116348   8.321   1.452  12.073
71503SOL    HW216349   8.195   1.373  12.045
71504SOL     OW16350  10.579   7.433   6.713
71504SOL    HW116351  10.548   7.351   6.751
71504SOL    HW216352  10.588   7.415   6.620
71505SOL     OW16353   5.496   7.418   3.393
71505SOL    HW116354   5.426   7.477   3.366
71505SOL    HW216355   5.477   7.335   3.351
71506SOL     OW16356   1.296   2.490   1.556
71506SOL    HW116357   1.252   2.522   1.634
71506SOL    HW216358   1.386   2.521   1.565
71507SOL     OW16359  11.096  10.819   6.875
71507SOL    HW116360  11.160  10.825   6.946
71507SOL    HW216361  11.067  10.909   6.861
71508SOL     OW16362   4.296   8.359   6.281
71508SOL    HW116363   4.369   8.369   6.220
71508SOL    HW216364   4.286   8.265   6.292
71509SOL     OW16365   9.057  13.437   8.150
71509SOL    HW116366   9.077  13.462   8.060
71509SOL    HW216367   9.118  13.366   8.169
71510SOL     OW16368  11.384   9.006  11.274
71510SOL    HW116369  11.452   8.940  11.288
71510SOL    HW216370  11.351   9.025  11.362
71511SOL     OW16371   7.612   1.902  14.511
71511SOL    HW116372   7.631   1.918  14.604
71511SOL    HW216373   7.591   1.988  14.476
71512SOL     OW16374   7.174  11.894   1.310
71512SOL    HW116375   7.095  11.948   1.315
71512SOL    HW216376   7.192  11.888   1.216
71513SOL     OW16377  11.919   0.126   5.820
71513SOL    HW116378  11.848   0.114   5.757
71513SOL    HW216379  11.876   0.159   5.899
71514SOL     OW16380   9.579  12.999   3.812
71514SOL    HW116381   9.538  13.082   3.787
71514SOL    HW216382   9.614  12.964   3.730
71515SOL     OW16383  10.874   9.274   9.534
71515SOL    HW116384  10.903   9.185   9.553
71515SOL    HW216385  10.950   9.316   9.494
71516SOL     OW16386   0.453   5.975   2.091
71516SOL    HW116387   0.455   5.935   2.004
71516SOL    HW216388   0.441   6.068   2.075
71517SOL     OW16389   4.863   4.234   4.072
71517SOL    HW116390   4.818   4.170   4.017
71517SOL    HW216391   4.867   4.313   4.018
71518SOL     OW16392   5.426  13.437   0.571
71518SOL    HW116393   5.364  13.444   0.644
71518SOL    HW216394   5.438  13.527   0.541
71519SOL     OW16395   9.133   2.256   7.977
71519SOL    HW116396   9.078   2.246   8.055
71519SOL    HW216397   9.094   2.197   7.913
71520SOL     OW16398  12.714   8.885  12.104
71520SOL    HW116399  12.655   8.914  12.173
71520SOL    HW216400  12.656   8.858  12.033
71521SOL     OW16401   4.904  14.070  14.515
71521SOL    HW116402   4.996  14.067  14.541
71521SOL    HW216403   4.880  13.978  14.503
71522SOL     OW16404   7.323  11.527   4.423
71522SOL    HW116405   7.415  11.537   4.449
71522SOL    HW216406   7.327  11.515   4.328
71523SOL     OW16407   0.712  11.762   8.368
71523SOL    HW116408   0.709  11.763   8.463
71523SOL    HW216409   0.751  11.678   8.346
71524SOL     OW16410   2.020   4.532   2.310
71524SOL    HW116411   1.980   4.464   2.255
71524SOL    HW216412   1.962   4.607   2.302
71525SOL     OW16413  14.316  11.197   4.314
71525SOL    HW116414  14.385  11.218   4.377
71525SOL    HW216415  14.328  11.104   4.295
71526SOL     OW16416  11.056  10.565   8.859
71526SOL    HW116417  11.092  10.529   8.940
71526SOL    HW216418  11.059  10.660   8.872
71527SOL     OW16419   1.603  13.118   5.899
71527SOL    HW116420   1.570  13.069   5.824
71527SOL    HW216421   1.557  13.202   5.895
71528SOL     OW16422  11.269  11.707   1.275
71528SOL    HW116423  11.318  11.699   1.357
71528SOL    HW216424  11.189  11.657   1.289
71529SOL     OW16425  14.466  13.318   5.240
71529SOL    HW116426  14.416  13.273   5.308
71529SOL    HW216427  14.469  13.256   5.167
71530SOL     OW16428   9.378   7.683  10.634
71530SOL    HW116429   9.453   7.629  10.657
71530SOL    HW216430   9.397   7.713  10.545
71531SOL     OW16431   6.726   7.194   0.162
71531SOL    HW116432   6.772   7.178   0.080
71531SOL    HW216433   6.705   7.287   0.160
71532SOL     OW16434   0.470   4.583   9.269
71532SOL    HW116435   0.389   4.619   9.233
71532SOL    HW216436   0.500   4.650   9.331
71533SOL     OW16437   6.100  13.830  12.366
71533SOL    HW116438   6.114  13.875  12.449
71533SOL    HW216439   6.064  13.896  12.307
71534SOL     OW16440   4.783   4.247   2.836
71534SOL    HW116441   4.691   4.269   2.824
71534SOL    HW216442   4.807   4.197   2.759
71535SOL     OW16443  13.057  13.402   5.098
71535SOL    HW116444  13.045  13.428   5.190
71535SOL    HW216445  13.139  13.353   5.098
71536SOL     OW16446   0.023  10.251   9.235
71536SOL    HW116447  14.824  10.275   9.178
71536SOL    HW216448   0.089  10.318   9.220
71537SOL     OW16449  11.954   9.358   3.386
71537SOL    HW116450  12.014   9.432   3.395
71537SOL    HW216451  11.995   9.287   3.436
71538SOL     OW16452  14.445   6.504  11.295
71538SOL    HW116453  14.527   6.457  11.310
71538SOL    HW216454  14.469   6.596  11.296
71539SOL     OW16455   6.152   6.499  14.775
71539SOL    HW116456   6.134   6.467  14.686
71539SOL    HW216457   6.172   6.420  14.826
71540SOL     OW16458   5.874   1.824   2.701
71540SOL    HW116459   5.913   1.810   2.787
71540SOL    HW216460   5.884   1.740   2.657
71541SOL     OW16461   7.971   3.241   7.089
71541SOL    HW116462   8.038   3.224   7.022
71541SOL    HW216463   8.019   3.281   7.161
71542SOL     OW16464   2.149  12.573  11.390
71542SOL    HW116465   2.079  12.553  11.328
71542SOL    HW216466   2.153  12.498  11.448
71543SOL     OW16467  13.356  14.025   2.894
71543SOL    HW116468  13.302  13.955   2.857
71543SOL    HW216469  13.323  14.035   2.984
71544SOL     OW16470   1.425  10.121   9.901
71544SOL    HW116471   1.364  10.123   9.975
71544SOL    HW216472   1.444  10.213   9.883
71545SOL     OW16473   0.219   4.250  11.214
71545SOL    HW116474   0.160   4.189  11.170
71545SOL    HW216475   0.218   4.328  11.159
71546SOL     OW16476  12.354  10.925   7.455
71546SOL    HW116477  12.444  10.891   7.457
71546SOL    HW216478  12.299  10.848   7.471
71547SOL     OW16479  13.381   8.716   9.999
71547SOL    HW116480  13.454   8.684  10.052
71547SOL    HW216481  13.388   8.666   9.917
71548SOL     OW16482   6.884   9.207   9.076
71548SOL    HW116483   6.958   9.202   9.015
71548SOL    HW216484   6.888   9.125   9.124
71549SOL     OW16485   6.750   6.423   7.071
71549SOL    HW116486   6.730   6.491   7.006
71549SOL    HW216487   6.669   6.371   7.076
71550SOL     OW16488   3.765   5.637   4.816
71550SOL    HW116489   3.772   5.694   4.739
71550SOL    HW216490   3.677   5.653   4.850
71551SOL     OW16491  13.072  14.176   4.472
71551SOL    HW116492  13.032  14.263   4.463
71551SOL    HW216493  13.014  14.118   4.423
71552SOL     OW16494  10.132   4.139   8.367
71552SOL    HW116495  10.209   4.195   8.371
71552SOL    HW216496  10.073   4.173   8.434
71553SOL     OW16497   2.307  13.125   1.871
71553SOL    HW116498   2.339  13.215   1.874
71553SOL    HW216499   2.227  13.126   1.924
71554SOL     OW16500   5.118   0.940   3.790
71554SOL    HW116501   5.080   0.860   3.827
71554SOL    HW216502   5.093   0.938   3.698
71555SOL     OW16503  13.775   1.577   7.811
71555SOL    HW116504  13.681   1.590   7.817
71555SOL    HW216505  13.787   1.482   7.814
71556SOL     OW16506   8.846   3.307   0.512
71556SOL    HW116507   8.821   3.283   0.423
71556SOL    HW216508   8.823   3.230   0.565
71557SOL     OW16509   4.196   2.446  12.929
71557SOL    HW116510   4.213   2.536  12.958
71557SOL    HW216511   4.281   2.404  12.930
71558SOL     OW16512  13.237   1.299   1.726
71558SOL    HW116513  13.235   1.344   1.811
71558SOL    HW216514  13.299   1.349   1.674
71559SOL     OW16515  13.103  13.356   7.358
71559SOL    HW116516  13.044  13.347   7.433
71559SOL    HW216517  13.141  13.269   7.347
71560SOL     OW16518  13.085  14.474  10.754
71560SOL    HW116519  13.176  14.505  10.751
71560SOL    HW216520  13.048  14.516  10.831
71561SOL     OW16521   6.162   5.697  10.353
71561SOL    HW116522   6.070   5.710  10.377
71561SOL    HW216523   6.159   5.664  10.263
71562SOL     OW16524  11.275   2.964  12.411
71562SOL    HW116525  11.258   3.025  12.339
71562SOL    HW216526  11.286   2.879  12.367
71563SOL     OW16527  11.973  13.676   3.476
71563SOL    HW116528  11.962  13.619   3.400
71563SOL    HW216529  12.022  13.751   3.442
71564SOL     OW16530   9.517  11.629   4.756
71564SOL    HW116531   9.598  11.618   4.706
71564SOL    HW216532   9.541  11.612   4.847
71565SOL     OW16533   1.466   7.570   7.959
71565SOL    HW116534   1.452   7.570   7.865
71565SOL    HW216535   1.559   7.550   7.971
71566SOL     OW16536  14.590   2.270   4.495
71566SOL    HW116537  14.643   2.206   4.447
71566SOL    HW216538  14.530   2.217   4.547
71567SOL     OW16539   9.073   7.404  14.425
71567SOL    HW116540   8.984   7.439  14.416
71567SOL    HW216541   9.126   7.461  14.368
71568SOL     OW16542   6.896  12.260  12.966
71568SOL    HW116543   6.926  12.238  12.878
71568SOL    HW216544   6.967  12.232  13.024
71569SOL     OW16545   7.830   8.096   6.631
71569SOL    HW116546   7.818   8.152   6.555
71569SOL    HW216547   7.781   8.140   6.701
71570SOL     OW16548   3.199   2.366  13.868
71570SOL    HW116549   3.206   2.380  13.962
71570SOL    HW216550   3.286   2.337  13.841
71571SOL     OW16551  11.835   3.795   6.948
71571SOL    HW116552  11.917   3.841   6.970
71571SOL    HW216553  11.863   3.709   6.917
71572SOL     OW16554   3.641   3.635   5.819
71572SOL    HW116555   3.718   3.647   5.874
71572SOL    HW216556   3.653   3.697   5.748
71573SOL     OW16557   9.176  13.123   9.585
71573SOL    HW116558   9.136  13.040   9.561
71573SOL    HW216559   9.121  13.157   9.656
71574SOL     OW16560  11.833  13.813  13.964
71574SOL    HW116561  11.748  13.809  13.920
71574SOL    HW216562  11.867  13.724  13.959
71575SOL     OW16563   1.609   9.257   0.047
71575SOL    HW116564   1.590   9.290   0.135
71575SOL    HW216565   1.563   9.318  14.863
71576SOL     OW16566   7.832   5.140  12.295
71576SOL    HW116567   7.780   5.102  12.224
71576SOL    HW216568   7.912   5.087  12.297
71577SOL     OW16569   6.633   3.556   9.419
71577SOL    HW116570   6.725   3.532   9.406
71577SOL    HW216571   6.593   3.476   9.454
71578SOL     OW16572  13.478   7.643   8.706
71578SOL    HW116573  13.563   7.607   8.680
71578SOL    HW216574  13.498   7.705   8.776
71579SOL     OW16575   9.662   3.725   4.309
71579SOL    HW116576   9.686   3.668   4.382
71579SOL    HW216577   9.715   3.804   4.321
71580SOL     OW16578   9.433   6.082   1.146
71580SOL    HW116579   9.394   6.006   1.103
71580SOL    HW216580   9.394   6.157   1.104
71581SOL     OW16581  14.570   2.231  12.682
71581SOL    HW116582  14.489   2.231  12.631
71581SOL    HW216583  14.624   2.163  12.641
71582SOL     OW16584   5.246  11.064   6.473
71582SOL    HW116585   5.298  11.069   6.393
71582SOL    HW216586   5.278  11.137   6.527
71583SOL     OW16587  13.801  10.680   1.253
71583SOL    HW116588  13.883  10.729   1.263
71583SOL    HW216589  13.826  10.601   1.205
71584SOL     OW16590   8.070   7.734   0.253
71584SOL    HW116591   7.997   7.767   0.305
71584SOL    HW216592   8.053   7.641   0.243
71585SOL     OW16593   9.710   8.047   1.416
71585SOL    HW116594   9.783   8.100   1.383
71585SOL    HW216595   9.752   7.973   1.459
71586SOL     OW16596   2.939  10.909  10.983
71586SOL    HW116597   3.032  10.924  10.968
71586SOL    HW216598   2.932  10.814  10.996
71587SOL     OW16599   9.472  11.076   4.971
71587SOL    HW116600   9.541  11.010   4.984
71587SOL    HW216601   9.409  11.035   4.913
71588SOL     OW16602   2.087   2.501   3.020
71588SOL    HW116603   2.009   2.479   3.070
71588SOL    HW216604   2.156   2.446   3.057
71589SOL     OW16605   1.343   6.047   0.657
71589SOL    HW116606   1.353   6.091   0.573
71589SOL    HW216607   1.250   6.060   0.680
71590SOL     OW16608   9.961  11.549  10.390
71590SOL    HW116609   9.961  11.560  10.485
71590SOL    HW216610  10.018  11.474  10.375
71591SOL     OW16611   5.502  10.875   6.743
71591SOL    HW116612   5.502  10.921   6.827
71591SOL    HW216613   5.515  10.783   6.766
71592SOL     OW16614  12.007   5.153   8.546
71592SOL    HW116615  12.073   5.132   8.479
71592SOL    HW216616  12.052   5.208   8.609
71593SOL     OW16617   4.445   3.900   5.283
71593SOL    HW116618   4.383   3.878   5.353
71593SOL    HW216619   4.467   3.817   5.243
71594SOL     OW16620  12.166   6.534  10.854
71594SOL    HW116621  12.080   6.499  10.875
71594SOL    HW216622  12.222   6.456  10.847
71595SOL     OW16623  13.375  13.755   6.898
71595SOL    HW116624  13.280  13.768   6.901
71595SOL    HW216625  13.404  13.810   6.825
71596SOL     OW16626  11.459   2.369   5.846
71596SOL    HW116627  11.385   2.428   5.830
71596SOL    HW216628  11.535   2.415   5.811
71597SOL     OW16629   3.272   0.891  14.533
71597SOL    HW116630   3.264   0.797  14.514
71597SOL    HW216631   3.275   0.932  14.447
71598SOL     OW16632   0.426  13.218  11.531
71598SOL    HW116633   0.371  13.296  11.537
71598SOL    HW216634   0.370  13.153  11.488
71599SOL     OW16635   7.605  11.488   0.576
71599SOL    HW116636   7.643  11.441   0.650
71599SOL    HW216637   7.527  11.531   0.612
71600SOL     OW16638  10.501  13.481  11.328
71600SOL    HW116639  10.430  13.427  11.362
71600SOL    HW216640  10.458  13.542  11.268
71601SOL     OW16641  13.127   7.818   7.820
71601SOL    HW116642  13.078   7.772   7.889
71601SOL    HW216643  13.067   7.821   7.745
71602SOL     OW16644   4.061   4.202   4.044
71602SOL    HW116645   4.064   4.121   3.993
71602SOL    HW216646   4.139   4.250   4.018
71603SOL     OW16647   8.152  11.307   5.439
71603SOL    HW116648   8.104  11.256   5.374
71603SOL    HW216649   8.227  11.344   5.391
71604SOL     OW16650   3.007   2.514  10.201
71604SOL    HW116651   3.056   2.434  10.184
71604SOL    HW216652   3.040   2.576  10.135
71605SOL     OW16653   1.376   7.350   9.896
71605SOL    HW116654   1.385   7.369   9.802
71605SOL    HW216655   1.292   7.305   9.903
71606SOL     OW16656   5.082   0.178  10.255
71606SOL    HW116657   5.022   0.243  10.290
71606SOL    HW216658   5.165   0.194  10.300
71607SOL     OW16659   4.902  12.884   4.314
71607SOL    HW116660   4.904  12.829   4.392
71607SOL    HW216661   4.847  12.959   4.338
71608SOL     OW16662   4.544   3.530   9.652
71608SOL    HW116663   4.543   3.453   9.710
71608SOL    HW216664   4.560   3.604   9.711
71609SOL     OW16665   1.155   2.133   0.088
71609SOL    HW116666   1.234   2.152   0.038
71609SOL    HW216667   1.171   2.047   0.127
71610SOL     OW16668   1.848   1.488   6.738
71610SOL    HW116669   1.817   1.539   6.813
71610SOL    HW216670   1.924   1.440   6.772
71611SOL     OW16671   8.818  13.781   3.502
71611SOL    HW116672   8.859  13.865   3.482
71611SOL    HW216673   8.724  13.799   3.498
71612SOL     OW16674  12.364  10.084   9.668
71612SOL    HW116675  12.426  10.040   9.609
71612SOL    HW216676  12.286  10.029   9.667
71613SOL     OW16677   2.712  11.788   1.675
71613SOL    HW116678   2.726  11.778   1.581
71613SOL    HW216679   2.776  11.853   1.702
71614SOL     OW16680   6.400  12.368  10.661
71614SOL    HW116681   6.422  12.354  10.753
71614SOL    HW216682   6.483  12.395  10.621
71615SOL     OW16683   6.916   1.520  10.562
71615SOL    HW116684   6.897   1.552  10.651
71615SOL    HW216685   6.996   1.468  10.572
71616SOL     OW16686   4.653   0.797  10.648
71616SOL    HW116687   4.663   0.746  10.728
71616SOL    HW216688   4.727   0.857  10.647
71617SOL     OW16689   7.296  10.593   0.232
71617SOL    HW116690   7.310  10.671   0.287
71617SOL    HW216691   7.203  10.595   0.210
71618SOL     OW16692   0.168  10.203   7.028
71618SOL    HW116693   0.160  10.107   7.029
71618SOL    HW216694   0.158  10.227   6.935
71619SOL     OW16695  10.092   5.761  14.408
71619SOL    HW116696  10.126   5.687  14.357
71619SOL    HW216697  10.127   5.838  14.365
71620SOL     OW16698   3.241   2.266   7.135
71620SOL    HW116699   3.161   2.284   7.184
71620SOL    HW216700   3.309   2.316   7.180
71621SOL     OW16701   2.272   8.807   4.400
71621SOL    HW116702   2.328   8.798   4.477
71621SOL    HW216703   2.185   8.826   4.435
71622SOL     OW16704   9.291   1.399   9.477
71622SOL    HW116705   9.358   1.463   9.500
71622SOL    HW216706   9.321   1.362   9.393
71623SOL     OW16707  11.338  10.826   5.081
71623SOL    HW116708  11.424  10.840   5.042
71623SOL    HW216709  11.354  10.816   5.174
71624SOL     OW16710  11.338  14.746  12.546
71624SOL    HW116711  11.279  14.686  12.499
71624SOL    HW216712  11.423  14.733  12.504
71625SOL     OW16713   7.253   8.340  11.775
71625SOL    HW116714   7.338   8.307  11.746
71625SOL    HW216715   7.273   8.393  11.852
71626SOL     OW16716  13.202  11.244   0.116
71626SOL    HW116717  13.166  11.333   0.111
71626SOL    HW216718  13.292  11.256   0.145
71627SOL     OW16719   1.749   5.234   5.313
71627SOL    HW116720   1.720   5.213   5.224
71627SOL    HW216721   1.667   5.246   5.363
71628SOL     OW16722   5.174   4.710   7.322
71628SOL    HW116723   5.086   4.725   7.358
71628SOL    HW216724   5.213   4.797   7.316
71629SOL     OW16725   0.541   2.839  11.174
71629SOL    HW116726   0.589   2.905  11.125
71629SOL    HW216727   0.488   2.889  11.236
71630SOL     OW16728   6.779   7.293   9.676
71630SOL    HW116729   6.688   7.309   9.700
71630SOL    HW216730   6.827   7.367   9.713
71631SOL     OW16731  10.518   5.946   2.407
71631SOL    HW116732  10.536   5.917   2.496
71631SOL    HW216733  10.568   6.027   2.397
71632SOL     OW16734   9.605   0.313   6.948
71632SOL    HW116735   9.525   0.365   6.935
71632SOL    HW216736   9.587   0.262   7.027
71633SOL     OW16737   7.344   4.014  12.555
71633SOL    HW116738   7.294   3.951  12.606
71633SOL    HW216739   7.404   3.961  12.503
71634SOL     OW16740  11.669   7.783   6.858
71634SOL    HW116741  11.697   7.842   6.929
71634SOL    HW216742  11.744   7.725   6.844
71635SOL     OW16743   6.323   9.408   8.171
71635SOL    HW116744   6.330   9.498   8.140
71635SOL    HW216745   6.258   9.411   8.241
71636SOL     OW16746  11.388   3.114   1.737
71636SOL    HW116747  11.388   3.153   1.650
71636SOL    HW216748  11.383   3.020   1.722
71637SOL     OW16749  11.272   9.437  11.923
71637SOL    HW116750  11.359   9.448  11.962
71637SOL    HW216751  11.215   9.416  11.998
71638SOL     OW16752   0.267   3.581   6.749
71638SOL    HW116753   0.230   3.669   6.755
71638SOL    HW216754   0.343   3.591   6.692
71639SOL     OW16755   5.714  12.966   5.624
71639SOL    HW116756   5.653  12.935   5.690
71639SOL    HW216757   5.709  12.901   5.554
71640SOL     OW16758   2.148  10.735  13.541
71640SOL    HW116759   2.159  10.641  13.554
71640SOL    HW216760   2.054  10.750  13.548
71641SOL     OW16761   0.304   6.571   4.212
71641SOL    HW116762   0.395   6.546   4.195
71641SOL    HW216763   0.258   6.487   4.221
71642SOL     OW16764  10.576   9.399   0.101
71642SOL    HW116765  10.594   9.340   0.027
71642SOL    HW216766  10.491   9.437   0.081
71643SOL     OW16767  12.531   0.955   4.199
71643SOL    HW116768  12.624   0.933   4.197
71643SOL    HW216769  12.522   1.024   4.133
71644SOL     OW16770  10.248   6.267   0.831
71644SOL    HW116771  10.306   6.224   0.893
71644SOL    HW216772  10.177   6.303   0.885
71645SOL     OW16773   9.671   7.387   7.823
71645SOL    HW116774   9.711   7.401   7.736
71645SOL    HW216775   9.635   7.299   7.819
71646SOL     OW16776   5.173   8.171  10.411
71646SOL    HW116777   5.084   8.179  10.444
71646SOL    HW216778   5.163   8.132  10.324
71647SOL     OW16779   5.867   6.446   5.503
71647SOL    HW116780   5.834   6.480   5.586
71647SOL    HW216781   5.801   6.382   5.476
71648SOL     OW16782  12.656   4.221  14.543
71648SOL    HW116783  12.696   4.134  14.544
71648SOL    HW216784  12.718   4.276  14.591
71649SOL     OW16785   4.524   3.792  12.194
71649SOL    HW116786   4.546   3.704  12.163
71649SOL    HW216787   4.446   3.780  12.249
71650SOL     OW16788   8.973  12.800   1.558
71650SOL    HW116789   9.047  12.860   1.571
71650SOL    HW216790   8.932  12.830   1.476
71651SOL     OW16791  12.159   3.409  14.495
71651SOL    HW116792  12.103   3.439  14.567
71651SOL    HW216793  12.246   3.443  14.517
71652SOL     OW16794   1.670   1.180   3.690
71652SOL    HW116795   1.674   1.128   3.610
71652SOL    HW216796   1.615   1.255   3.668
71653SOL     OW16797   6.420  10.839   7.856
71653SOL    HW116798   6.413  10.854   7.761
71653SOL    HW216799   6.515  10.836   7.872
71654SOL     OW16800   5.399   4.895  11.920
71654SOL    HW116801   5.434   4.972  11.875
71654SOL    HW216802   5.474   4.835  11.927
71655SOL     OW16803  14.306  11.691   3.011
71655SOL    HW116804  14.331  11.769   2.961
71655SOL    HW216805  14.381  11.673   3.067
71656SOL     OW16806  12.560  11.864   9.443
71656SOL    HW116807  12.550  11.868   9.538
71656SOL    HW216808  12.505  11.935   9.410
71657SOL     OW16809   0.950   2.390  10.214
71657SOL    HW116810   0.983   2.467  10.168
71657SOL    HW216811   1.023   2.363  10.270
71658SOL     OW16812  12.125  11.349   7.157
71658SOL    HW116813  12.119  11.409   7.083
71658SOL    HW216814  12.218  11.344   7.177
71659SOL     OW16815  14.213   9.878   4.166
71659SOL    HW116816  14.282   9.816   4.190
71659SOL    HW216817  14.259   9.959   4.146
71660SOL     OW16818   2.454   5.607  11.969
71660SOL    HW116819   2.514   5.612  12.044
71660SOL    HW216820   2.425   5.697  11.955
71661SOL     OW16821  14.314   3.824   1.080
71661SOL    HW116822  14.297   3.896   1.020
71661SOL    HW216823  14.234   3.772   1.080
71662SOL     OW16824  12.907   1.369   8.508
71662SOL    HW116825  12.888   1.391   8.599
71662SOL    HW216826  13.003   1.365   8.503
71663SOL     OW16827  11.448   5.979   3.629
71663SOL    HW116828  11.496   5.921   3.570
71663SOL    HW216829  11.491   6.064   3.619
71664SOL     OW16830   6.943  10.552   4.690
71664SOL    HW116831   6.903  10.624   4.640
71664SOL    HW216832   7.029  10.584   4.715
71665SOL     OW16833   2.331   7.293  13.766
71665SOL    HW116834   2.342   7.351  13.691
71665SOL    HW216835   2.419   7.261  13.785
71666SOL     OW16836   0.237  13.488   0.667
71666SOL    HW116837   0.330  13.497   0.644
71666SOL    HW216838   0.230  13.402   0.708
71667SOL     OW16839   5.396   3.281   2.859
71667SOL    HW116840   5.466   3.224   2.889
71667SOL    HW216841   5.358   3.235   2.784
71668SOL     OW16842   6.772  13.565  13.394
71668SOL    HW116843   6.743  13.612  13.316
71668SOL    HW216844   6.704  13.499  13.408
71669SOL     OW16845   5.217   8.671   8.943
71669SOL    HW116846   5.278   8.623   8.999
71669SOL    HW216847   5.144   8.610   8.931
71670SOL     OW16848   1.103   0.012   9.267
71670SOL    HW116849   1.046   0.089   9.264
71670SOL    HW216850   1.156   0.024   9.345
71671SOL     OW16851  10.401   9.621   1.549
71671SOL    HW116852  10.319   9.588   1.513
71671SOL    HW216853  10.447   9.543   1.580
71672SOL     OW16854   1.698   1.936   0.891
71672SOL    HW116855   1.705   1.862   0.952
71672SOL    HW216856   1.678   1.895   0.807
71673SOL     OW16857  12.718   8.282   2.319
71673SOL    HW116858  12.647   8.280   2.255
71673SOL    HW216859  12.740   8.190   2.334
71674SOL     OW16860   3.020   7.852  10.577
71674SOL    HW116861   3.066   7.871  10.660
71674SOL    HW216862   3.029   7.758  10.566
71675SOL     OW16863   2.380   9.887  14.019
71675SOL    HW116864   2.326   9.810  14.004
71675SOL    HW216865   2.368   9.940  13.940
71676SOL     OW16866   4.982   8.983   2.619
71676SOL    HW116867   4.989   8.889   2.635
71676SOL    HW216868   4.897   8.994   2.576
71677SOL     OW16869   7.976   9.358  13.696
71677SOL    HW116870   7.973   9.294  13.767
71677SOL    HW216871   7.956   9.307  13.617
71678SOL     OW16872  12.128   5.968   2.638
71678SOL    HW116873  12.175   5.933   2.714
71678SOL    HW216874  12.082   6.045   2.672
71679SOL     OW16875   0.453   4.451  11.574
71679SOL    HW116876   0.500   4.479  11.495
71679SOL    HW216877   0.361   4.448  11.548
71680SOL     OW16878   2.915   3.664   1.120
71680SOL    HW116879   3.005   3.645   1.096
71680SOL    HW216880   2.863   3.604   1.066
71681SOL     OW16881  10.323   1.874  11.153
71681SOL    HW116882  10.357   1.931  11.222
71681SOL    HW216883  10.303   1.933  11.081
71682SOL     OW16884   8.099   8.038   1.340
71682SOL    HW116885   8.051   8.065   1.262
71682SOL    HW216886   8.180   8.090   1.338
71683SOL     OW16887   9.338   0.654   4.477
71683SOL    HW116888   9.290   0.617   4.402
71683SOL    HW216889   9.410   0.703   4.437
71684SOL     OW16890   8.347   2.935   3.877
71684SOL    HW116891   8.282   2.866   3.866
71684SOL    HW216892   8.299   3.016   3.865
71685SOL     OW16893  12.110   4.272  11.185
71685SOL    HW116894  12.202   4.269  11.214
71685SOL    HW216895  12.060   4.283  11.266
71686SOL     OW16896   7.062  11.292   4.936
71686SOL    HW116897   7.033  11.202   4.950
71686SOL    HW216898   6.992  11.345   4.974
71687SOL     OW16899  10.244   8.110   1.239
71687SOL    HW116900  10.241   8.154   1.324
71687SOL    HW216901  10.247   8.182   1.175
71688SOL     OW16902  10.872  14.767  13.524
71688SOL    HW116903  10.815  14.837  13.493
71688SOL    HW216904  10.844  14.690  13.475
71689SOL     OW16905  14.034   8.372  11.524
71689SOL    HW116906  13.952   8.400  11.565
71689SOL    HW216907  14.029   8.276  11.525
71690SOL     OW16908   8.063   9.534   2.432
71690SOL    HW116909   8.072   9.619   2.389
71690SOL    HW216910   8.056   9.472   2.359
71691SOL     OW16911  13.201   6.389   1.128
71691SOL    HW116912  13.246   6.447   1.067
71691SOL    HW216913  13.185   6.442   1.205
71692SOL     OW16914  13.366   4.195   6.336
71692SOL    HW116915  13.363   4.179   6.242
71692SOL    HW216916  13.459   4.205   6.356
71693SOL     OW16917  12.834  13.651   3.002
71693SOL    HW116918  12.896  13.612   3.064
71693SOL    HW216919  12.887  13.676   2.927
71694SOL     OW16920   1.989  13.113  14.103
71694SOL    HW116921   1.964  13.025  14.075
71694SOL    HW216922   2.078  13.125  14.068
71695SOL     OW16923  12.992   2.363   6.755
71695SOL    HW116924  12.922   2.400   6.809
71695SOL    HW216925  12.948   2.301   6.697
71696SOL     OW16926  14.419   2.451   9.990
71696SOL    HW116927  14.341   2.488   9.947
71696SOL    HW216928  14.453   2.523  10.043
71697SOL     OW16929   4.831   9.734   9.031
71697SOL    HW116930   4.844   9.814   9.081
71697SOL    HW216931   4.895   9.673   9.066
71698SOL     OW16932  14.368  11.065   5.432
71698SOL    HW116933  14.462  11.084   5.438
71698SOL    HW216934  14.336  11.120   5.361
71699SOL     OW16935  10.585   1.933  12.472
71699SOL    HW116936  10.658   1.880  12.439
71699SOL    HW216937  10.627   2.014  12.501
71700SOL     OW16938   8.107  13.440  14.313
71700SOL    HW116939   8.028  13.492  14.328
71700SOL    HW216940   8.077  13.362  14.266
71701SOL     OW16941   5.587  14.504   0.074
71701SOL    HW116942   5.537  14.429   0.107
71701SOL    HW216943   5.584  14.495  14.853
71702SOL     OW16944   5.745   8.662   4.780
71702SOL    HW116945   5.652   8.650   4.762
71702SOL    HW216946   5.789   8.594   4.729
71703SOL     OW16947   4.702   3.230   1.995
71703SOL    HW116948   4.766   3.207   2.063
71703SOL    HW216949   4.653   3.149   1.980
71704SOL     OW16950   2.440   8.960   4.621
71704SOL    HW116951   2.387   8.982   4.698
71704SOL    HW216952   2.521   9.010   4.631
71705SOL     OW16953   1.422   4.654   3.808
71705SOL    HW116954   1.513   4.649   3.840
71705SOL    HW216955   1.400   4.747   3.815
71706SOL     OW16956   9.177  10.081  12.329
71706SOL    HW116957   9.157  10.055  12.419
71706SOL    HW216958   9.204  10.173  12.336
71707SOL     OW16959   8.212   7.738  14.848
71707SOL    HW116960   8.159   7.762   0.050
71707SOL    HW216961   8.288   7.693   0.011
71708SOL     OW16962   4.641  10.403  14.099
71708SOL    HW116963   4.585  10.395  14.022
71708SOL    HW216964   4.589  10.453  14.162
71709SOL     OW16965   2.308  12.643   2.365
71709SOL    HW116966   2.336  12.688   2.445
71709SOL    HW216967   2.224  12.603   2.388
71710SOL     OW16968  12.091  14.109  13.124
71710SOL    HW116969  12.070  14.102  13.031
71710SOL    HW216970  12.121  14.021  13.148
71711SOL     OW16971   3.157   0.701   8.070
71711SOL    HW116972   3.154   0.678   8.163
71711SOL    HW216973   3.107   0.782   8.063
71712SOL     OW16974  10.459   2.821   0.395
71712SOL    HW116975  10.377   2.841   0.440
71712SOL    HW216976  10.498   2.750   0.446
71713SOL     OW16977   1.557   0.941   9.017
71713SOL    HW116978   1.579   0.988   9.097
71713SOL    HW216979   1.462   0.928   9.022
71714SOL     OW16980  14.158   1.671   9.254
71714SOL    HW116981  14.214   1.622   9.195
71714SOL    HW216982  14.200   1.757   9.260
71715SOL     OW16983  13.787   7.666  11.652
71715SOL    HW116984  13.758   7.686  11.741
71715SOL    HW216985  13.882   7.654  11.660
71716SOL     OW16986  12.162   1.462   2.031
71716SOL    HW116987  12.227   1.401   1.998
71716SOL    HW216988  12.108   1.409   2.091
71717SOL     OW16989  12.321  12.240  12.231
71717SOL    HW116990  12.232  12.205  12.220
71717SOL    HW216991  12.310  12.335  12.220
71718SOL     OW16992   0.659   4.282   1.978
71718SOL    HW116993   0.723   4.354   1.986
71718SOL    HW216994   0.713   4.204   1.963
71719SOL     OW16995   4.299  13.496  14.233
71719SOL    HW116996   4.308  13.424  14.171
71719SOL    HW216997   4.219  13.541  14.208
71720SOL     OW16998  10.600   7.254   5.809
71720SOL    HW116999  10.563   7.177   5.765
71720SOL    HW217000  10.524   7.297   5.849
71721SOL     OW17001   3.419  12.965   7.134
71721SOL    HW117002   3.436  12.950   7.227
71721SOL    HW217003   3.334  12.925   7.117
71722SOL     OW17004   1.743   0.534   4.779
71722SOL    HW117005   1.720   0.494   4.862
71722SOL    HW217006   1.781   0.619   4.803
71723SOL     OW17007   4.010   4.961   5.661
71723SOL    HW117008   3.994   4.872   5.629
71723SOL    HW217009   4.035   5.010   5.583
71724SOL     OW17010   9.422   8.949  10.627
71724SOL    HW117011   9.414   9.019  10.562
71724SOL    HW217012   9.484   8.887  10.588
71725SOL     OW17013  10.668  14.642   3.573
71725SOL    HW117014  10.598  14.602   3.624
71725SOL    HW217015  10.728  14.678   3.639
71726SOL     OW17016   6.184   7.698  13.054
71726SOL    HW117017   6.148   7.694  13.142
71726SOL    HW217018   6.136   7.630  13.006
71727SOL     OW17019  12.787   7.162   4.839
71727SOL    HW117020  12.754   7.252   4.834
71727SOL    HW217021  12.720   7.116   4.891
71728SOL     OW17022  12.020   9.415   4.093
71728SOL    HW117023  11.978   9.343   4.046
71728SOL    HW217024  12.049   9.475   4.023
71729SOL     OW17025   3.015  10.748   1.082
71729SOL    HW117026   2.965  10.827   1.103
71729SOL    HW217027   3.098  10.759   1.128
71730SOL     OW17028   7.629   7.046   8.327
71730SOL    HW117029   7.536   7.021   8.329
71730SOL    HW217030   7.674   6.973   8.368
71731SOL     OW17031   9.482  13.821   3.718
71731SOL    HW117032   9.534  13.901   3.731
71731SOL    HW217033   9.430  13.840   3.640
71732SOL     OW17034   8.738   4.081   3.098
71732SOL    HW117035   8.775   4.154   3.148
71732SOL    HW217036   8.644   4.091   3.106
71733SOL     OW17037  10.604   4.624  11.628
71733SOL    HW117038  10.540   4.577  11.682
71733SOL    HW217039  10.569   4.620  11.540
71734SOL     OW17040  10.393   4.426   1.901
71734SOL    HW117041  10.487   4.410   1.897
71734SOL    HW217042  10.381   4.514   1.865
71735SOL     OW17043  11.955   6.133  14.216
71735SOL    HW117044  11.947   6.038  14.212
71735SOL    HW217045  11.866   6.166  14.201
71736SOL     OW17046   8.163  13.291   2.497
71736SOL    HW117047   8.221  13.364   2.515
71736SOL    HW217048   8.219  13.213   2.499
71737SOL     OW17049  14.758   6.850   1.676
71737SOL    HW117050  14.728   6.764   1.704
71737SOL    HW217051  14.762   6.901   1.757
71738SOL     OW17052   7.126   6.106  14.045
71738SOL    HW117053   7.060   6.048  14.007
71738SOL    HW217054   7.200   6.102  13.984
71739SOL     OW17055  10.636   1.850  14.173
71739SOL    HW117056  10.621   1.936  14.212
71739SOL    HW217057  10.731   1.844  14.163
71740SOL     OW17058  10.273   2.832   0.199
71740SOL    HW117059  10.243   2.920   0.224
71740SOL    HW217060  10.356   2.821   0.245
71741SOL     OW17061  11.885   8.916   9.356
71741SOL    HW117062  11.823   8.924   9.428
71741SOL    HW217063  11.837   8.866   9.289
71742SOL     OW17064   8.610   1.007  14.706
71742SOL    HW117065   8.526   0.969  14.678
71742SOL    HW217066   8.669   0.989  14.633
71743SOL     OW17067   5.252   9.902  13.579
71743SOL    HW117068   5.343   9.877  13.593
71743SOL    HW217069   5.253   9.998  13.580
71744SOL     OW17070   5.470   9.050   3.271
71744SOL    HW117071   5.549   9.016   3.228
71744SOL    HW217072   5.401   8.989   3.244
71745SOL     OW17073   5.353  11.547   5.341
71745SOL    HW117074   5.372  11.456   5.315
71745SOL    HW217075   5.259  11.556   5.326
71746SOL     OW17076   8.981   2.692  10.120
71746SOL    HW117077   8.991   2.753  10.047
71746SOL    HW217078   9.054   2.630  10.110
71747SOL     OW17079   4.332  10.694   2.747
71747SOL    HW117080   4.288  10.686   2.662
71747SOL    HW217081   4.412  10.642   2.737
71748SOL     OW17082  10.172   8.865  14.826
71748SOL    HW117083  10.222   8.873  14.745
71748SOL    HW217084  10.195   8.943   0.003
71749SOL     OW17085  13.782  10.607   6.290
71749SOL    HW117086  13.701  10.581   6.246
71749SOL    HW217087  13.778  10.703   6.294
71750SOL     OW17088   5.426  14.456  14.362
71750SOL    HW117089   5.511  14.493  14.339
71750SOL    HW217090   5.364  14.528  14.350
71751SOL     OW17091   0.114   2.471  14.399
71751SOL    HW117092   0.161   2.468  14.315
71751SOL    HW217093   0.148   2.550  14.442
71752SOL     OW17094   9.523  12.948   0.030
71752SOL    HW117095   9.487  12.945  14.816
71752SOL    HW217096   9.593  12.883   0.030
71753SOL     OW17097  14.252   5.614  10.769
71753SOL    HW117098  14.212   5.634  10.684
71753SOL    HW217099  14.227   5.523  10.786
71754SOL     OW17100   9.713   8.173  10.172
71754SOL    HW117101   9.750   8.208  10.253
71754SOL    HW217102   9.788   8.163  10.113
71755SOL     OW17103   6.222   5.153  13.263
71755SOL    HW117104   6.283   5.227  13.266
71755SOL    HW217105   6.174   5.158  13.345
71756SOL     OW17106   8.299  12.606   9.595
71756SOL    HW117107   8.367  12.561   9.544
71756SOL    HW217108   8.231  12.626   9.531
71757SOL     OW17109   6.757  12.794   4.378
71757SOL    HW117110   6.730  12.773   4.468
71757SOL    HW217111   6.828  12.732   4.360
71758SOL     OW17112   7.265   6.160   1.904
71758SOL    HW117113   7.188   6.134   1.854
71758SOL    HW217114   7.314   6.218   1.845
71759SOL     OW17115  13.861  10.336   0.449
71759SOL    HW117116  13.822  10.423   0.462
71759SOL    HW217117  13.888  10.336   0.357
71760SOL     OW17118  10.023   9.096  10.043
71760SOL    HW117119  10.050   9.106  10.134
71760SOL    HW217120   9.928   9.083  10.047
71761SOL     OW17121   2.578  11.864   7.867
71761SOL    HW117122   2.639  11.793   7.888
71761SOL    HW217123   2.623  11.915   7.799
71762SOL     OW17124   2.713   8.069   9.596
71762SOL    HW117125   2.620   8.050   9.597
71762SOL    HW217126   2.718   8.165   9.591
71763SOL     OW17127   2.636  11.731  12.003
71763SOL    HW117128   2.583  11.803  11.969
71763SOL    HW217129   2.678  11.768  12.081
71764SOL     OW17130   5.767   6.225  10.079
71764SOL    HW117131   5.858   6.195  10.077
71764SOL    HW217132   5.750   6.255   9.990
71765SOL     OW17133   9.610   2.728  11.529
71765SOL    HW117134   9.523   2.705  11.560
71765SOL    HW217135   9.613   2.824  11.536
71766SOL     OW17136   1.689   2.146  13.747
71766SOL    HW117137   1.740   2.171  13.670
71766SOL    HW217138   1.705   2.215  13.811
71767SOL     OW17139  13.304   0.954   7.533
71767SOL    HW117140  13.236   0.980   7.471
71767SOL    HW217141  13.262   0.890   7.590
71768SOL     OW17142  10.672  10.933  14.096
71768SOL    HW117143  10.611  10.980  14.039
71768SOL    HW217144  10.706  11.001  14.155
71769SOL     OW17145   1.712  10.104   0.689
71769SOL    HW117146   1.632  10.089   0.637
71769SOL    HW217147   1.681  10.147   0.768
71770SOL     OW17148   0.315   9.807   7.392
71770SOL    HW117149   0.240   9.840   7.344
71770SOL    HW217150   0.291   9.717   7.415
71771SOL     OW17151   2.432  11.693  10.516
71771SOL    HW117152   2.404  11.619  10.463
71771SOL    HW217153   2.355  11.717  10.567
71772SOL     OW17154   4.923  12.654   1.561
71772SOL    HW117155   4.837  12.613   1.564
71772SOL    HW217156   4.917  12.726   1.624
71773SOL     OW17157   1.472   7.789   3.328
71773SOL    HW117158   1.434   7.721   3.384
71773SOL    HW217159   1.415   7.790   3.251
71774SOL     OW17160   3.527  11.030   4.058
71774SOL    HW117161   3.446  11.076   4.078
71774SOL    HW217162   3.527  10.955   4.117
71775SOL     OW17163  14.263   4.888  10.642
71775SOL    HW117164  14.345   4.838  10.635
71775SOL    HW217165  14.290   4.979  10.638
71776SOL     OW17166   2.517  13.945  14.276
71776SOL    HW117167   2.611  13.934  14.293
71776SOL    HW217168   2.507  14.040  14.265
71777SOL     OW17169   7.528  13.561  12.357
71777SOL    HW117170   7.607  13.506  12.354
71777SOL    HW217171   7.456  13.498  12.365
71778SOL     OW17172  13.824   5.301   7.923
71778SOL    HW117173  13.867   5.356   7.988
71778SOL    HW217174  13.884   5.300   7.849
71779SOL     OW17175   9.843   7.361   4.419
71779SOL    HW117176   9.908   7.363   4.489
71779SOL    HW217177   9.763   7.393   4.459
71780SOL     OW17178   1.734  13.605  12.586
71780SOL    HW117179   1.708  13.647  12.504
71780SOL    HW217180   1.774  13.675  12.637
71781SOL     OW17181  13.265   1.573   7.726
71781SOL    HW117182  13.232   1.483   7.734
71781SOL    HW217183  13.205   1.614   7.663
71782SOL     OW17184  14.245   0.639   2.185
71782SOL    HW117185  14.291   0.719   2.210
71782SOL    HW217186  14.169   0.636   2.244
71783SOL     OW17187  13.128   5.315   9.210
71783SOL    HW117188  13.198   5.251   9.195
71783SOL    HW217189  13.060   5.291   9.147
71784SOL     OW17190   2.317  12.814  11.737
71784SOL    HW117191   2.229  12.819  11.700
71784SOL    HW217192   2.314  12.872  11.813
71785SOL     OW17193  12.798   9.300   6.101
71785SOL    HW117194  12.759   9.291   6.187
71785SOL    HW217195  12.892   9.285   6.115
71786SOL     OW17196  13.406   8.365  11.632
71786SOL    HW117197  13.482   8.419  11.611
71786SOL    HW217198  13.387   8.318  11.551
71787SOL     OW17199   8.962  11.402   7.495
71787SOL    HW117200   8.942  11.329   7.553
71787SOL    HW217201   9.015  11.364   7.425
71788SOL     OW17202  11.722   9.689   1.834
71788SOL    HW117203  11.668   9.761   1.804
71788SOL    HW217204  11.758   9.720   1.918
71789SOL     OW17205   2.556   4.806   6.357
71789SOL    HW117206   2.523   4.721   6.386
71789SOL    HW217207   2.586   4.791   6.268
71790SOL     OW17208   5.324  12.717   7.690
71790SOL    HW117209   5.252  12.720   7.753
71790SOL    HW217210   5.401  12.697   7.744
71791SOL     OW17211   0.853  13.125  10.342
71791SOL    HW117212   0.790  13.187  10.306
71791SOL    HW217213   0.799  13.054  10.377
71792SOL     OW17214   0.263   9.022   7.470
71792SOL    HW117215   0.311   9.084   7.524
71792SOL    HW217216   0.179   9.064   7.454
71793SOL     OW17217   6.623   2.275   4.840
71793SOL    HW117218   6.687   2.282   4.911
71793SOL    HW217219   6.546   2.235   4.881
71794SOL     OW17220  14.638   7.522   1.410
71794SOL    HW117221  14.732   7.504   1.415
71794SOL    HW217222  14.624   7.593   1.473
71795SOL     OW17223  11.454   7.267   9.701
71795SOL    HW117224  11.429   7.275   9.793
71795SOL    HW217225  11.377   7.296   9.652
71796SOL     OW17226   4.556   6.702   9.489
71796SOL    HW117227   4.600   6.741   9.565
71796SOL    HW217228   4.599   6.618   9.477
71797SOL     OW17229  12.161   0.996   6.378
71797SOL    HW117230  12.181   0.917   6.428
71797SOL    HW217231  12.070   0.986   6.351
71798SOL     OW17232   6.920   7.459   0.471
71798SOL    HW117233   6.872   7.389   0.515
71798SOL    HW217234   6.962   7.508   0.542
71799SOL     OW17235  14.120   5.607  12.818
71799SOL    HW117236  14.165   5.593  12.902
71799SOL    HW217237  14.164   5.683  12.780
71800SOL     OW17238  10.442   0.584   9.108
71800SOL    HW117239  10.480   0.548   9.188
71800SOL    HW217240  10.351   0.554   9.109
71801SOL     OW17241   4.944  11.770  11.034
71801SOL    HW117242   4.993  11.814  11.104
71801SOL    HW217243   5.007  11.708  10.996
71802SOL     OW17244  10.521   1.646  12.520
71802SOL    HW117245  10.605   1.600  12.516
71802SOL    HW217246  10.537   1.719  12.579
71803SOL     OW17247  10.194   8.920   6.576
71803SOL    HW117248  10.247   8.971   6.638
71803SOL    HW217249  10.145   8.986   6.527
71804SOL     OW17250  11.113   5.018   5.843
71804SOL    HW117251  11.040   4.956   5.837
71804SOL    HW217252  11.107   5.069   5.762
71805SOL     OW17253   0.596   8.990   4.979
71805SOL    HW117254   0.683   9.018   4.953
71805SOL    HW217255   0.570   8.927   4.912
71806SOL     OW17256   1.857   4.475  13.835
71806SOL    HW117257   1.799   4.523  13.776
71806SOL    HW217258   1.918   4.429  13.777
71807SOL     OW17259   2.451  12.113   9.281
71807SOL    HW117260   2.372  12.068   9.310
71807SOL    HW217261   2.424  12.164   9.205
71808SOL     OW17262   7.321  13.549   9.708
71808SOL    HW117263   7.239  13.593   9.687
71808SOL    HW217264   7.308  13.459   9.681
71809SOL     OW17265   4.864   4.923   8.886
71809SOL    HW117266   4.934   4.925   8.952
71809SOL    HW217267   4.901   4.969   8.811
71810SOL     OW17268  10.789   5.869   8.718
71810SOL    HW117269  10.735   5.916   8.655
71810SOL    HW217270  10.784   5.777   8.689
71811SOL     OW17271  14.032   5.607   3.294
71811SOL    HW117272  14.116   5.571   3.322
71811SOL    HW217273  13.994   5.540   3.238
71812SOL     OW17274  12.281  14.585   1.372
71812SOL    HW117275  12.227  14.596   1.293
71812SOL    HW217276  12.267  14.666   1.421
71813SOL     OW17277   3.954  13.912   4.302
71813SOL    HW117278   4.015  13.858   4.353
71813SOL    HW217279   3.995  13.999   4.301
71814SOL     OW17280   8.104   1.696   5.442
71814SOL    HW117281   8.082   1.789   5.437
71814SOL    HW217282   8.025   1.650   5.414
71815SOL     OW17283   8.805   6.802   9.210
71815SOL    HW117284   8.739   6.852   9.257
71815SOL    HW217285   8.831   6.859   9.137
71816SOL     OW17286   9.360   8.426   5.271
71816SOL    HW117287   9.393   8.475   5.196
71816SOL    HW217288   9.274   8.393   5.243
71817SOL     OW17289   0.382  10.939   7.852
71817SOL    HW117290   0.439  11.010   7.824
71817SOL    HW217291   0.371  10.885   7.774
71818SOL     OW17292  13.999   7.647   7.954
71818SOL    HW117293  13.931   7.638   8.021
71818SOL    HW217294  14.032   7.558   7.941
71819SOL     OW17295  14.830  10.983  13.214
71819SOL    HW117296  14.871  10.933  13.284
71819SOL    HW217297  14.736  10.969  13.226
71820SOL     OW17298   4.718   2.274   1.747
71820SOL    HW117299   4.809   2.303   1.745
71820SOL    HW217300   4.674   2.329   1.682
71821SOL     OW17301   9.390  13.462  11.561
71821SOL    HW117302   9.359  13.552  11.563
71821SOL    HW217303   9.409  13.440  11.652
71822SOL     OW17304  10.250  14.447   0.330
71822SOL    HW117305  10.211  14.522   0.375
71822SOL    HW217306  10.181  14.416   0.272
71823SOL     OW17307   0.687   8.997   4.638
71823SOL    HW117308   0.727   8.935   4.577
71823SOL    HW217309   0.635   9.055   4.583
71824SOL     OW17310   5.043   8.371   1.751
71824SOL    HW117311   4.979   8.300   1.758
71824SOL    HW217312   5.033   8.403   1.661
71825SOL     OW17313  11.447   8.643   8.180
71825SOL    HW117314  11.370   8.673   8.131
71825SOL    HW217315  11.510   8.714   8.173
71826SOL     OW17316   7.896  14.259   6.598
71826SOL    HW117317   7.805  14.241   6.623
71826SOL    HW217318   7.903  14.355   6.602
71827SOL     OW17319   4.421   7.640   6.930
71827SOL    HW117320   4.472   7.690   6.866
71827SOL    HW217321   4.459   7.552   6.927
71828SOL     OW17322   5.422   3.142   6.911
71828SOL    HW117323   5.464   3.154   6.826
71828SOL    HW217324   5.478   3.189   6.972
71829SOL     OW17325   2.575   2.404   2.981
71829SOL    HW117326   2.640   2.335   2.995
71829SOL    HW217327   2.627   2.481   2.957
71830SOL     OW17328   5.965   9.128  12.056
71830SOL    HW117329   6.021   9.177  11.996
71830SOL    HW217330   5.998   9.038  12.051
71831SOL     OW17331   3.282   4.725   1.877
71831SOL    HW117332   3.328   4.695   1.956
71831SOL    HW217333   3.193   4.742   1.907
71832SOL     OW17334   4.932   1.433  12.330
71832SOL    HW117335   4.944   1.339  12.333
71832SOL    HW217336   4.869   1.447  12.259
71833SOL     OW17337  12.060  14.817   8.553
71833SOL    HW117338  11.988   0.005   8.540
71833SOL    HW217339  12.086  14.791   8.464
71834SOL     OW17340  13.331   0.741   6.668
71834SOL    HW117341  13.422   0.736   6.638
71834SOL    HW217342  13.285   0.674   6.616
71835SOL     OW17343   5.668   5.166   6.594
71835SOL    HW117344   5.707   5.107   6.658
71835SOL    HW217345   5.575   5.142   6.593
71836SOL     OW17346   5.617  14.304   1.970
71836SOL    HW117347   5.708  14.284   1.992
71836SOL    HW217348   5.620  14.334   1.879
71837SOL     OW17349   8.908   0.283   9.917
71837SOL    HW117350   8.969   0.210   9.921
71837SOL    HW217351   8.864   0.273   9.833
71838SOL     OW17352   6.078  11.177   7.284
71838SOL    HW117353   6.138  11.194   7.356
71838SOL    HW217354   6.028  11.101   7.312
71839SOL     OW17355   0.355   2.389  12.786
71839SOL    HW117356   0.360   2.401  12.691
71839SOL    HW217357   0.414   2.315  12.804
71840SOL     OW17358   4.229   8.620  13.315
71840SOL    HW117359   4.315   8.639  13.351
71840SOL    HW217360   4.221   8.680  13.240
71841SOL     OW17361   5.308   8.342   4.818
71841SOL    HW117362   5.236   8.361   4.757
71841SOL    HW217363   5.297   8.407   4.888
71842SOL     OW17364   9.661  13.372   4.589
71842SOL    HW117365   9.673  13.286   4.630
71842SOL    HW217366   9.643  13.352   4.497
71843SOL     OW17367  11.065   5.301  11.434
71843SOL    HW117368  11.032   5.390  11.419
71843SOL    HW217369  11.154   5.302  11.400
71844SOL     OW17370  11.180   2.166  12.565
71844SOL    HW117371  11.227   2.244  12.533
71844SOL    HW217372  11.112   2.152  12.499
71845SOL     OW17373   7.545  12.446   6.574
71845SOL    HW117374   7.492  12.510   6.621
71845SOL    HW217375   7.488  12.370   6.565
71846SOL     OW17376   2.988  14.240  13.819
71846SOL    HW117377   2.905  14.218  13.778
71846SOL    HW217378   2.965  14.293  13.895
71847SOL     OW17379   6.331   3.853   6.050
71847SOL    HW117380   6.386   3.916   6.096
71847SOL    HW217381   6.243   3.890   6.057
71848SOL     OW17382   4.705   1.857  10.834
71848SOL    HW117383   4.654   1.907  10.898
71848SOL    HW217384   4.695   1.906  10.752
71849SOL     OW17385   2.499   3.943   0.290
71849SOL    HW117386   2.415   3.973   0.324
71849SOL    HW217387   2.483   3.926   0.197
71850SOL     OW17388   2.979   3.628   9.885
71850SOL    HW117389   2.996   3.658   9.796
71850SOL    HW217390   2.976   3.709   9.937
71851SOL     OW17391  10.684  14.506   6.883
71851SOL    HW117392  10.591  14.511   6.861
71851SOL    HW217393  10.727  14.481   6.802
71852SOL     OW17394   2.428  10.025  12.534
71852SOL    HW117395   2.403  10.096  12.593
71852SOL    HW217396   2.523  10.033  12.525
71853SOL     OW17397   7.753   4.348  12.259
71853SOL    HW117398   7.686   4.280  12.271
71853SOL    HW217399   7.820   4.327  12.323
71854SOL     OW17400   4.419  14.279  13.587
71854SOL    HW117401   4.492  14.320  13.633
71854SOL    HW217402   4.444  14.187  13.578
71855SOL     OW17403   8.980  12.610   1.777
71855SOL    HW117404   9.046  12.553   1.738
71855SOL    HW217405   8.970  12.681   1.714
71856SOL     OW17406   5.473   6.283   6.284
71856SOL    HW117407   5.478   6.197   6.326
71856SOL    HW217408   5.516   6.270   6.200
71857SOL     OW17409   1.485   0.267   7.830
71857SOL    HW117410   1.537   0.260   7.750
71857SOL    HW217411   1.462   0.360   7.836
71858SOL     OW17412  13.843   0.682  12.984
71858SOL    HW117413  13.937   0.696  12.973
71858SOL    HW217414  13.802   0.753  12.934
71859SOL     OW17415   4.191   9.715   4.740
71859SOL    HW117416   4.166   9.674   4.658
71859SOL    HW217417   4.169   9.808   4.729
71860SOL     OW17418   6.996  13.279  14.325
71860SOL    HW117419   6.951  13.336  14.387
71860SOL    HW217420   6.926  13.231  14.281
71861SOL     OW17421   1.527   5.038   4.922
71861SOL    HW117422   1.503   5.005   4.835
71861SOL    HW217423   1.558   4.961   4.969
71862SOL     OW17424  10.502   2.362  13.253
71862SOL    HW117425  10.569   2.398  13.195
71862SOL    HW217426  10.422   2.410  13.231
71863SOL     OW17427   5.468  13.202  10.212
71863SOL    HW117428   5.452  13.289  10.249
71863SOL    HW217429   5.526  13.218  10.138
71864SOL     OW17430   3.671   2.004   8.534
71864SOL    HW117431   3.729   1.940   8.491
71864SOL    HW217432   3.728   2.078   8.553
71865SOL     OW17433   7.149   0.571   3.087
71865SOL    HW117434   7.235   0.530   3.092
71865SOL    HW217435   7.155   0.629   3.011
71866SOL     OW17436   4.818   2.963  11.935
71866SOL    HW117437   4.793   3.024  12.005
71866SOL    HW217438   4.869   3.016  11.874
71867SOL     OW17439   9.484   0.210   0.366
71867SOL    HW117440   9.410   0.264   0.338
71867SOL    HW217441   9.518   0.172   0.285
71868SOL     OW17442  11.423   8.978  12.643
71868SOL    HW117443  11.469   8.956  12.724
71868SOL    HW217444  11.480   8.943  12.574
71869SOL     OW17445   8.781   3.238  10.058
71869SOL    HW117446   8.812   3.165  10.005
71869SOL    HW217447   8.851   3.303  10.052
71870SOL     OW17448  11.080  10.972  12.369
71870SOL    HW117449  11.155  11.032  12.365
71870SOL    HW217450  11.118  10.885  12.361
71871SOL     OW17451   3.018  13.168  10.913
71871SOL    HW117452   3.110  13.170  10.885
71871SOL    HW217453   3.005  13.080  10.948
71872SOL     OW17454   0.513  14.739  12.476
71872SOL    HW117455   0.508  14.834  12.461
71872SOL    HW217456   0.428  14.716  12.513
71873SOL     OW17457  13.435   0.552   5.669
71873SOL    HW117458  13.525   0.550   5.637
71873SOL    HW217459  13.389   0.490   5.612
71874SOL     OW17460   6.422   1.232   6.228
71874SOL    HW117461   6.352   1.296   6.218
71874SOL    HW217462   6.398   1.182   6.306
71875SOL     OW17463   6.973   1.968  10.986
71875SOL    HW117464   6.897   2.002  10.940
71875SOL    HW217465   7.035   2.042  10.988
71876SOL     OW17466  13.375   6.294  14.507
71876SOL    HW117467  13.283   6.275  14.525
71876SOL    HW217468  13.383   6.285  14.412
71877SOL     OW17469   4.712   8.001   9.560
71877SOL    HW117470   4.667   7.966   9.638
71877SOL    HW217471   4.804   7.982   9.575
71878SOL     OW17472   3.021   6.526   7.320
71878SOL    HW117473   2.956   6.468   7.358
71878SOL    HW217474   3.090   6.532   7.387
71879SOL     OW17475  14.684   1.181   4.132
71879SOL    HW117476  14.604   1.200   4.082
71879SOL    HW217477  14.653   1.169   4.222
71880SOL     OW17478   9.459   6.830   9.280
71880SOL    HW117479   9.458   6.811   9.373
71880SOL    HW217480   9.368   6.819   9.252
71881SOL     OW17481   5.166   5.675  14.411
71881SOL    HW117482   5.227   5.741  14.445
71881SOL    HW217483   5.202   5.650  14.327
71882SOL     OW17484   3.763   9.037   3.682
71882SOL    HW117485   3.687   9.088   3.652
71882SOL    HW217486   3.762   9.047   3.777
71883SOL     OW17487   1.031   1.107   1.417
71883SOL    HW117488   1.042   1.107   1.512
71883SOL    HW217489   1.077   1.029   1.387
71884SOL     OW17490  14.288   6.839   3.540
71884SOL    HW117491  14.328   6.755   3.562
71884SOL    HW217492  14.218   6.817   3.479
71885SOL     OW17493  11.417   6.906   1.581
71885SOL    HW117494  11.511   6.892   1.595
71885SOL    HW217495  11.376   6.879   1.663
71886SOL     OW17496   3.360  14.563  11.903
71886SOL    HW117497   3.312  14.589  11.825
71886SOL    HW217498   3.386  14.645  11.944
71887SOL     OW17499   7.832   1.017   5.937
71887SOL    HW117500   7.868   1.003   6.024
71887SOL    HW217501   7.778   1.096   5.945
71888SOL     OW17502   6.458   5.678   9.781
71888SOL    HW117503   6.455   5.771   9.801
71888SOL    HW217504   6.439   5.673   9.688
71889SOL     OW17505  13.351   6.765   3.187
71889SOL    HW117506  13.393   6.689   3.226
71889SOL    HW217507  13.288   6.729   3.125
71890SOL     OW17508  14.648   4.838  11.356
71890SOL    HW117509  14.624   4.786  11.433
71890SOL    HW217510  14.565   4.871  11.324
71891SOL     OW17511   7.619  13.490   8.446
71891SOL    HW117512   7.652  13.535   8.368
71891SOL    HW217513   7.685  13.508   8.513
71892SOL     OW17514   0.453  12.923   7.021
71892SOL    HW117515   0.405  13.001   7.047
71892SOL    HW217516   0.477  12.938   6.930
71893SOL     OW17517   9.273   4.941  12.991
71893SOL    HW117518   9.229   5.022  13.017
71893SOL    HW217519   9.234   4.919  12.906
71894SOL     OW17520  14.558   7.721  11.709
71894SOL    HW117521  14.472   7.744  11.674
71894SOL    HW217522  14.608   7.802  11.702
71895SOL     OW17523   7.302   9.092   3.671
71895SOL    HW117524   7.285   9.038   3.594
71895SOL    HW217525   7.390   9.126   3.658
71896SOL     OW17526  11.963  14.482   4.130
71896SOL    HW117527  12.006  14.424   4.193
71896SOL    HW217528  11.972  14.437   4.046
71897SOL     OW17529   6.797  11.928   5.525
71897SOL    HW117530   6.747  11.847   5.527
71897SOL    HW217531   6.882  11.905   5.563
71898SOL     OW17532   5.072  10.971   4.499
71898SOL    HW117533   5.001  11.027   4.469
71898SOL    HW217534   5.029  10.892   4.532
71899SOL     OW17535   5.214  12.482   9.296
71899SOL    HW117536   5.280  12.478   9.226
71899SOL    HW217537   5.265  12.479   9.377
71900SOL     OW17538  14.183   4.517   9.231
71900SOL    HW117539  14.175   4.464   9.152
71900SOL    HW217540  14.276   4.540   9.235
71901SOL     OW17541   0.304   3.697   1.105
71901SOL    HW117542   0.277   3.660   1.189
71901SOL    HW217543   0.398   3.679   1.100
71902SOL     OW17544   3.071   1.808  10.349
71902SOL    HW117545   3.144   1.853  10.392
71902SOL    HW217546   3.061   1.726  10.398
71903SOL     OW17547   2.572   2.649  13.288
71903SOL    HW117548   2.615   2.709  13.228
71903SOL    HW217549   2.633   2.641  13.362
71904SOL     OW17550   1.230  13.466   9.101
71904SOL    HW117551   1.195  13.523   9.033
71904SOL    HW217552   1.236  13.521   9.178
71905SOL     OW17553   0.730   7.985   7.888
71905SOL    HW117554   0.667   8.000   7.817
71905SOL    HW217555   0.772   8.069   7.901
71906SOL     OW17556   2.390   0.855   6.330
71906SOL    HW117557   2.333   0.823   6.260
71906SOL    HW217558   2.425   0.775   6.371
71907SOL     OW17559   5.984   0.970  10.918
71907SOL    HW117560   5.920   1.027  10.961
71907SOL    HW217561   6.057   1.028  10.896
71908SOL     OW17562   1.425   1.976   8.185
71908SOL    HW117563   1.377   1.988   8.103
71908SOL    HW217564   1.389   2.042   8.244
71909SOL     OW17565   0.144   2.082   0.442
71909SOL    HW117566   0.210   2.128   0.494
71909SOL    HW217567   0.060   2.108   0.480
71910SOL     OW17568   1.925   4.490  10.239
71910SOL    HW117569   1.879   4.557  10.290
71910SOL    HW217570   1.879   4.489  10.154
71911SOL     OW17571  10.552   0.540   6.988
71911SOL    HW117572  10.483   0.493   7.035
71911SOL    HW217573  10.597   0.590   7.055
71912SOL     OW17574   6.242   6.855  12.618
71912SOL    HW117575   6.159   6.815  12.590
71912SOL    HW217576   6.216   6.924  12.678
71913SOL     OW17577   6.166   8.781   2.661
71913SOL    HW117578   6.203   8.693   2.652
71913SOL    HW217579   6.194   8.826   2.581
71914SOL     OW17580  11.054   7.987   2.366
71914SOL    HW117581  10.991   7.991   2.438
71914SOL    HW217582  11.069   7.894   2.351
71915SOL     OW17583   6.454  10.515  13.757
71915SOL    HW117584   6.444  10.432  13.803
71915SOL    HW217585   6.422  10.498  13.668
71916SOL     OW17586   2.512   6.486   7.963
71916SOL    HW117587   2.498   6.401   7.920
71916SOL    HW217588   2.545   6.542   7.893
71917SOL     OW17589   0.651   6.914  11.990
71917SOL    HW117590   0.635   6.911  12.085
71917SOL    HW217591   0.739   6.878  11.980
71918SOL     OW17592  11.393  13.304   0.871
71918SOL    HW117593  11.386  13.370   0.940
71918SOL    HW217594  11.411  13.354   0.791
71919SOL     OW17595   3.189   0.800   9.461
71919SOL    HW117596   3.281   0.778   9.452
71919SOL    HW217597   3.189   0.891   9.492
71920SOL     OW17598   7.382  12.999  11.137
71920SOL    HW117599   7.468  12.997  11.179
71920SOL    HW217600   7.396  13.051  11.058
71921SOL     OW17601   4.756  14.275   7.054
71921SOL    HW117602   4.772  14.243   6.965
71921SOL    HW217603   4.708  14.205   7.097
71922SOL     OW17604  12.580   6.682   2.802
71922SOL    HW117605  12.561   6.641   2.718
71922SOL    HW217606  12.497   6.679   2.850
71923SOL     OW17607  10.658  11.641   0.803
71923SOL    HW117608  10.721  11.699   0.845
71923SOL    HW217609  10.586  11.699   0.778
71924SOL     OW17610  12.621   2.697  14.496
71924SOL    HW117611  12.592   2.606  14.504
71924SOL    HW217612  12.662   2.701  14.410
71925SOL     OW17613   3.749   2.079  13.266
71925SOL    HW117614   3.827   2.126  13.237
71925SOL    HW217615   3.740   2.101  13.359
71926SOL     OW17616   7.562   7.903   5.283
71926SOL    HW117617   7.514   7.948   5.352
71926SOL    HW217618   7.647   7.947   5.280
71927SOL     OW17619   4.316   8.029  11.993
71927SOL    HW117620   4.267   7.981  11.926
71927SOL    HW217621   4.299   7.981  12.074
71928SOL     OW17622   8.466   2.019   0.175
71928SOL    HW117623   8.434   1.951   0.116
71928SOL    HW217624   8.522   2.075   0.120
71929SOL     OW17625   5.030  14.607   9.754
71929SOL    HW117626   4.994  14.576   9.837
71929SOL    HW217627   5.012  14.537   9.692
71930SOL     OW17628  12.606  10.306   8.582
71930SOL    HW117629  12.641  10.387   8.618
71930SOL    HW217630  12.539  10.334   8.520
71931SOL     OW17631   2.217  11.607  12.696
71931SOL    HW117632   2.277  11.648  12.758
71931SOL    HW217633   2.216  11.515  12.721
71932SOL     OW17634   9.704   4.999   0.639
71932SOL    HW117635   9.764   4.999   0.714
71932SOL    HW217636   9.659   4.914   0.644
71933SOL     OW17637   3.286   3.854   2.881
71933SOL    HW117638   3.358   3.812   2.834
71933SOL    HW217639   3.207   3.819   2.840
71934SOL     OW17640  14.627   4.588   2.364
71934SOL    HW117641  14.543   4.600   2.409
71934SOL    HW217642  14.631   4.495   2.345
71935SOL     OW17643   5.683   0.044   8.401
71935SOL    HW117644   5.656   0.131   8.372
71935SOL    HW217645   5.603  14.866   8.400
71936SOL     OW17646   1.594   0.545   4.028
71936SOL    HW117647   1.524   0.523   3.966
71936SOL    HW217648   1.602   0.640   4.022
71937SOL     OW17649   4.426  10.374   4.768
71937SOL    HW117650   4.486  10.318   4.817
71937SOL    HW217651   4.477  10.453   4.749
71938SOL     OW17652   7.252   9.046   2.393
71938SOL    HW117653   7.176   8.989   2.393
71938SOL    HW217654   7.279   9.049   2.301
71939SOL     OW17655  13.438   0.768  11.481
71939SOL    HW117656  13.526   0.732  11.489
71939SOL    HW217657  13.380   0.695  11.505
71940SOL     OW17658   9.379   2.043   6.102
71940SOL    HW117659   9.384   1.949   6.121
71940SOL    HW217660   9.469   2.074   6.111
71941SOL     OW17661   8.191   2.308  13.593
71941SOL    HW117662   8.180   2.213  13.599
71941SOL    HW217663   8.220   2.335  13.680
71942SOL     OW17664   7.963   7.603  10.263
71942SOL    HW117665   7.951   7.668  10.332
71942SOL    HW217666   7.919   7.525  10.296
71943SOL     OW17667   4.750   1.231   9.150
71943SOL    HW117668   4.843   1.232   9.173
71943SOL    HW217669   4.726   1.138   9.151
71944SOL     OW17670   9.755   3.401   2.370
71944SOL    HW117671   9.792   3.314   2.352
71944SOL    HW217672   9.695   3.387   2.443
71945SOL     OW17673   2.462  13.223  13.024
71945SOL    HW117674   2.470  13.145  13.078
71945SOL    HW217675   2.412  13.284  13.078
71946SOL     OW17676  11.655   6.448  10.918
71946SOL    HW117677  11.638   6.505  10.842
71946SOL    HW217678  11.648   6.359  10.883
71947SOL     OW17679   8.483   5.170   4.642
71947SOL    HW117680   8.518   5.164   4.553
71947SOL    HW217681   8.482   5.263   4.662
71948SOL     OW17682  11.814   0.333   8.970
71948SOL    HW117683  11.817   0.351   9.064
71948SOL    HW217684  11.878   0.392   8.932
71949SOL     OW17685   4.472   3.441   4.728
71949SOL    HW117686   4.526   3.463   4.652
71949SOL    HW217687   4.424   3.363   4.701
71950SOL     OW17688   1.043  11.925   7.762
71950SOL    HW117689   0.966  11.982   7.760
71950SOL    HW217690   1.105  11.971   7.819
71951SOL     OW17691   8.807   6.398  12.872
71951SOL    HW117692   8.814   6.458  12.798
71951SOL    HW217693   8.891   6.352  12.874
71952SOL     OW17694  12.583   2.660  12.437
71952SOL    HW117695  12.584   2.733  12.375
71952SOL    HW217696  12.618   2.696  12.518
71953SOL     OW17697   9.236   3.139  13.280
71953SOL    HW117698   9.152   3.140  13.326
71953SOL    HW217699   9.273   3.226  13.298
71954SOL     OW17700   0.710   7.774   7.475
71954SOL    HW117701   0.707   7.866   7.449
71954SOL    HW217702   0.771   7.771   7.548
71955SOL     OW17703   5.962   6.074   1.364
71955SOL    HW117704   5.925   6.157   1.394
71955SOL    HW217705   5.966   6.082   1.269
71956SOL     OW17706   8.692  14.083   7.731
71956SOL    HW117707   8.620  14.028   7.761
71956SOL    HW217708   8.771  14.030   7.744
71957SOL     OW17709   8.019   3.790   7.943
71957SOL    HW117710   7.955   3.860   7.928
71957SOL    HW217711   8.016   3.776   8.038
71958SOL     OW17712  11.901   5.661   0.981
71958SOL    HW117713  11.987   5.620   0.993
71958SOL    HW217714  11.848   5.594   0.939
71959SOL     OW17715  12.820   5.663   0.858
71959SOL    HW117716  12.865   5.635   0.778
71959SOL    HW217717  12.764   5.735   0.829
71960SOL     OW17718  11.716  11.908  10.899
71960SOL    HW117719  11.678  11.902  10.987
71960SOL    HW217720  11.762  11.992  10.899
71961SOL     OW17721  14.236   5.384   4.171
71961SOL    HW117722  14.229   5.313   4.107
71961SOL    HW217723  14.322   5.371   4.211
71962SOL     OW17724   7.998   4.076   8.197
71962SOL    HW117725   8.083   4.032   8.204
71962SOL    HW217726   7.937   4.006   8.173
71963SOL     OW17727  13.481  12.224  10.423
71963SOL    HW117728  13.475  12.258  10.333
71963SOL    HW217729  13.498  12.131  10.412
71964SOL     OW17730  14.790   0.527  14.024
71964SOL    HW117731  14.860   0.570  14.073
71964SOL    HW217732  14.757   0.595  13.965
71965SOL     OW17733   3.554   7.560  12.037
71965SOL    HW117734   3.641   7.543  12.002
71965SOL    HW217735   3.525   7.639  11.990
71966SOL     OW17736  14.643   9.504  11.383
71966SOL    HW117737  14.644   9.411  11.361
71966SOL    HW217738  14.553   9.532  11.365
71967SOL     OW17739   4.062   1.653  13.844
71967SOL    HW117740   3.988   1.673  13.901
71967SOL    HW217741   4.075   1.733  13.793
71968SOL     OW17742   6.100   6.849   0.548
71968SOL    HW117743   6.088   6.862   0.454
71968SOL    HW217744   6.192   6.868   0.563
71969SOL     OW17745   5.096   8.743   6.374
71969SOL    HW117746   5.152   8.789   6.311
71969SOL    HW217747   5.026   8.805   6.394
71970SOL     OW17748   8.573   4.002   8.078
71970SOL    HW117749   8.632   3.943   8.125
71970SOL    HW217750   8.629   4.045   8.013
71971SOL     OW17751   3.220  13.076   9.356
71971SOL    HW117752   3.192  12.987   9.376
71971SOL    HW217753   3.139  13.128   9.358
71972SOL     OW17754   5.260   8.962  11.305
71972SOL    HW117755   5.297   8.891  11.253
71972SOL    HW217756   5.275   8.936  11.396
71973SOL     OW17757   7.432  12.631   1.499
71973SOL    HW117758   7.350  12.681   1.502
71973SOL    HW217759   7.412  12.548   1.542
71974SOL     OW17760   6.208   3.238   5.255
71974SOL    HW117761   6.272   3.306   5.276
71974SOL    HW217762   6.235   3.204   5.170
71975SOL     OW17763   9.244   7.101   3.431
71975SOL    HW117764   9.254   7.194   3.452
71975SOL    HW217765   9.152   7.092   3.406
71976SOL     OW17766  11.849   6.365  13.147
71976SOL    HW117767  11.829   6.457  13.127
71976SOL    HW217768  11.869   6.326  13.062
71977SOL     OW17769  10.741  12.375   2.853
71977SOL    HW117770  10.763  12.449   2.909
71977SOL    HW217771  10.658  12.398   2.812
71978SOL     OW17772  10.549   8.048  11.405
71978SOL    HW117773  10.639   8.072  11.428
71978SOL    HW217774  10.495   8.089  11.473
71979SOL     OW17775   0.116  10.480  14.708
71979SOL    HW117776   0.024  10.470  14.682
71979SOL    HW217777   0.162  10.412  14.659
71980SOL     OW17778   8.958  10.453   1.543
71980SOL    HW117779   8.999  10.377   1.502
71980SOL    HW217780   8.864  10.433   1.542
71981SOL     OW17781   4.194   4.157   1.047
71981SOL    HW117782   4.178   4.252   1.046
71981SOL    HW217783   4.280   4.148   1.088
71982SOL     OW17784   0.270   7.198   6.032
71982SOL    HW117785   0.288   7.186   5.939
71982SOL    HW217786   0.357   7.194   6.074
71983SOL     OW17787   0.312  10.963   9.978
71983SOL    HW117788   0.232  11.003   9.944
71983SOL    HW217789   0.351  10.921   9.901
71984SOL     OW17790   6.358   2.202  14.001
71984SOL    HW117791   6.444   2.232  14.031
71984SOL    HW217792   6.303   2.205  14.079
71985SOL     OW17793   6.901  12.093  14.821
71985SOL    HW117794   6.852  12.165  14.859
71985SOL    HW217795   6.845  12.016  14.832
71986SOL     OW17796   2.108   1.974   3.538
71986SOL    HW117797   2.163   2.038   3.493
71986SOL    HW217798   2.075   2.021   3.615
71987SOL     OW17799   2.016  13.321  13.718
71987SOL    HW117800   2.107  13.351  13.715
71987SOL    HW217801   2.021  13.231  13.751
71988SOL     OW17802   4.631   2.462   8.574
71988SOL    HW117803   4.590   2.487   8.490
71988SOL    HW217804   4.623   2.540   8.628
71989SOL     OW17805   3.104  10.036  14.626
71989SOL    HW117806   3.074  10.091  14.698
71989SOL    HW217807   3.027  10.026  14.569
71990SOL     OW17808   3.253  14.803   9.287
71990SOL    HW117809   3.198  14.758   9.351
71990SOL    HW217810   3.223  14.770   9.202
71991SOL     OW17811   6.985   8.912  13.170
71991SOL    HW117812   6.919   8.960  13.220
71991SOL    HW217813   7.035   8.865  13.236
71992SOL     OW17814  11.472   8.642   5.989
71992SOL    HW117815  11.466   8.718   6.048
71992SOL    HW217816  11.419   8.666   5.913
71993SOL     OW17817   4.230   0.418   7.292
71993SOL    HW117818   4.161   0.449   7.350
71993SOL    HW217819   4.296   0.487   7.294
71994SOL     OW17820  14.531   5.322   0.218
71994SOL    HW117821  14.520   5.402   0.269
71994SOL    HW217822  14.626   5.308   0.216
71995SOL     OW17823  13.981   0.626  14.046
71995SOL    HW117824  13.983   0.713  14.087
71995SOL    HW217825  13.888   0.612  14.026
71996SOL     OW17826   7.475  13.198   1.560
71996SOL    HW117827   7.566  13.173   1.545
71996SOL    HW217828   7.471  13.219   1.654
71997SOL     OW17829  10.028   2.257  13.373
71997SOL    HW117830  10.060   2.176  13.412
71997SOL    HW217831  10.012   2.234  13.281
71998SOL     OW17832   7.253   9.641   2.187
71998SOL    HW117833   7.181   9.695   2.219
71998SOL    HW217834   7.331   9.680   2.227
71999SOL     OW17835   4.919  11.724   0.737
71999SOL    HW117836   4.911  11.811   0.774
71999SOL    HW217837   4.931  11.738   0.643
72000SOL     OW17838   5.437   5.919   5.394
72000SOL    HW117839   5.382   5.986   5.434
72000SOL    HW217840   5.385   5.839   5.398
72001SOL     OW17841   2.545   7.223   3.829
72001SOL    HW117842   2.610   7.177   3.881
72001SOL    HW217843   2.470   7.234   3.888
72002SOL     OW17844   7.456   4.983   7.032
72002SOL    HW117845   7.375   4.980   6.981
72002SOL    HW217846   7.428   5.007   7.120
72003SOL     OW17847   8.202  13.075  12.743
72003SOL    HW117848   8.245  13.034  12.818
72003SOL    HW217849   8.237  13.164  12.740
72004SOL     OW17850   4.194   7.380   8.920
72004SOL    HW117851   4.227   7.324   8.991
72004SOL    HW217852   4.099   7.368   8.922
72005SOL     OW17853  14.698   3.995   9.721
72005SOL    HW117854  14.742   4.060   9.775
72005SOL    HW217855  14.606   4.021   9.722
72006SOL     OW17856  12.341  10.035   7.512
72006SOL    HW117857  12.428  10.052   7.548
72006SOL    HW217858  12.355  10.021   7.419
72007SOL     OW17859   0.820   9.474   6.518
72007SOL    HW117860   0.842   9.406   6.454
72007SOL    HW217861   0.856   9.554   6.480
72008SOL     OW17862   8.162   0.995  12.104
72008SOL    HW117863   8.203   0.915  12.070
72008SOL    HW217864   8.130   1.041  12.027
72009SOL     OW17865   1.286  14.539   9.708
72009SOL    HW117866   1.297  14.537   9.613
72009SOL    HW217867   1.368  14.574   9.742
72010SOL     OW17868   4.093  12.495  13.988
72010SOL    HW117869   4.165  12.473  13.929
72010SOL    HW217870   4.069  12.412  14.029
72011SOL     OW17871   3.380   9.306   3.033
72011SOL    HW117872   3.305   9.256   3.002
72011SOL    HW217873   3.409   9.356   2.957
72012SOL     OW17874   2.352   5.332   8.923
72012SOL    HW117875   2.431   5.293   8.960
72012SOL    HW217876   2.368   5.427   8.927
72013SOL     OW17877   7.298  13.030   8.391
72013SOL    HW117878   7.277  12.941   8.365
72013SOL    HW217879   7.215  13.077   8.385
72014SOL     OW17880  11.117  10.899  14.793
72014SOL    HW117881  11.192  10.893  14.735
72014SOL    HW217882  11.067  10.974  14.761
72015SOL     OW17883   4.376   5.424  12.796
72015SOL    HW117884   4.337   5.505  12.829
72015SOL    HW217885   4.319   5.355  12.829
72016SOL     OW17886  11.745   4.928   4.486
72016SOL    HW117887  11.690   4.920   4.564
72016SOL    HW217888  11.802   4.851   4.488
72017SOL     OW17889  13.472   3.825   1.640
72017SOL    HW117890  13.424   3.758   1.590
72017SOL    HW217891  13.476   3.900   1.581
72018SOL     OW17892   2.260   3.861   7.861
72018SOL    HW117893   2.342   3.897   7.895
72018SOL    HW217894   2.287   3.788   7.805
72019SOL     OW17895   4.257  10.679   6.183
72019SOL    HW117896   4.346  10.673   6.150
72019SOL    HW217897   4.202  10.646   6.111
72020SOL     OW17898   0.102   4.000   4.379
72020SOL    HW117899   0.021   4.039   4.345
72020SOL    HW217900   0.147   3.967   4.301
72021SOL     OW17901   8.627   6.674   9.967
72021SOL    HW117902   8.593   6.716   9.889
72021SOL    HW217903   8.564   6.604   9.986
72022SOL     OW17904   9.996   5.100  13.069
72022SOL    HW117905   9.937   5.173  13.049
72022SOL    HW217906   9.973   5.033  13.005
72023SOL     OW17907  14.000   6.064   9.915
72023SOL    HW117908  14.068   6.120   9.877
72023SOL    HW217909  14.042   5.979   9.926
72024SOL     OW17910  11.330   3.537   0.150
72024SOL    HW117911  11.329   3.562   0.057
72024SOL    HW217912  11.333   3.620   0.197
72025SOL     OW17913   1.299   2.139  13.149
72025SOL    HW117914   1.377   2.109  13.102
72025SOL    HW217915   1.333   2.181  13.228
72026SOL     OW17916  13.571   6.528   9.549
72026SOL    HW117917  13.631   6.522   9.623
72026SOL    HW217918  13.579   6.444   9.504
72027SOL     OW17919   9.247   3.909  11.878
72027SOL    HW117920   9.220   3.817  11.882
72027SOL    HW217921   9.197   3.945  11.805
72028SOL     OW17922   0.031  14.723   7.887
72028SOL    HW117923  14.868  14.742   7.973
72028SOL    HW217924  14.845  14.762   7.825
72029SOL     OW17925   5.062   1.001   8.213
72029SOL    HW117926   4.980   0.953   8.217
72029SOL    HW217927   5.039   1.092   8.231
72030SOL     OW17928  13.075   8.779   5.300
72030SOL    HW117929  13.115   8.860   5.269
72030SOL    HW217930  13.125   8.755   5.377
72031SOL     OW17931   5.762  14.697  11.860
72031SOL    HW117932   5.767  14.621  11.918
72031SOL    HW217933   5.798  14.769  11.913
72032SOL     OW17934   6.627  14.194  12.159
72032SOL    HW117935   6.652  14.152  12.242
72032SOL    HW217936   6.538  14.162  12.142
72033SOL     OW17937  10.146   1.656  14.100
72033SOL    HW117938  10.081   1.636  14.168
72033SOL    HW217939  10.230   1.630  14.140
72034SOL     OW17940   8.037   5.166  11.152
72034SOL    HW117941   7.948   5.200  11.158
72034SOL    HW217942   8.088   5.237  11.112
72035SOL     OW17943  13.087   6.864   6.921
72035SOL    HW117944  13.037   6.795   6.965
72035SOL    HW217945  13.178   6.834   6.927
72036SOL     OW17946   0.269   0.617   7.032
72036SOL    HW117947   0.321   0.653   6.961
72036SOL    HW217948   0.263   0.523   7.012
72037SOL     OW17949   2.174   4.718  13.912
72037SOL    HW117950   2.172   4.677  13.999
72037SOL    HW217951   2.084   4.747  13.898
72038SOL     OW17952   5.336   3.624  10.964
72038SOL    HW117953   5.405   3.603  10.901
72038SOL    HW217954   5.342   3.556  11.030
72039SOL     OW17955   8.904   4.925  14.448
72039SOL    HW117956   8.996   4.944  14.432
72039SOL    HW217957   8.894   4.931  14.543
72040SOL     OW17958  12.598  14.249   0.534
72040SOL    HW117959  12.638  14.254   0.447
72040SOL    HW217960  12.591  14.340   0.562
72041SOL     OW17961  14.249   2.437   9.172
72041SOL    HW117962  14.164   2.465   9.205
72041SOL    HW217963  14.295   2.518   9.150
72042SOL     OW17964   6.228   3.779   1.524
72042SOL    HW117965   6.144   3.750   1.489
72042SOL    HW217966   6.249   3.715   1.592
72043SOL     OW17967  10.913   4.877   2.864
72043SOL    HW117968  10.855   4.936   2.816
72043SOL    HW217969  11.000   4.894   2.827
72044SOL     OW17970   2.434   2.079   0.021
72044SOL    HW117971   2.342   2.053   0.030
72044SOL    HW217972   2.454   2.127   0.101
72045SOL     OW17973   5.389   1.887   5.296
72045SOL    HW117974   5.469   1.939   5.309
72045SOL    HW217975   5.318   1.948   5.314
72046SOL     OW17976   0.184   1.220  12.265
72046SOL    HW117977   0.123   1.205  12.193
72046SOL    HW217978   0.251   1.277  12.228
72047SOL     OW17979  12.680  12.181  11.237
72047SOL    HW117980  12.610  12.246  11.240
72047SOL    HW217981  12.675  12.138  11.323
72048SOL     OW17982  10.559   3.353  10.826
72048SOL    HW117983  10.508   3.293  10.880
72048SOL    HW217984  10.650   3.331  10.845
72049SOL     OW17985   3.711   3.367  10.935
72049SOL    HW117986   3.760   3.441  10.972
72049SOL    HW217987   3.619   3.393  10.941
72050SOL     OW17988   3.993  12.184  12.442
72050SOL    HW117989   3.997  12.175  12.538
72050SOL    HW217990   3.988  12.278  12.427
72051SOL     OW17991   6.284  11.451  11.362
72051SOL    HW117992   6.358  11.391  11.356
72051SOL    HW217993   6.324  11.537  11.377
72052SOL     OW17994  10.409  14.180   3.486
72052SOL    HW117995  10.412  14.186   3.582
72052SOL    HW217996  10.496  14.208   3.457
72053SOL     OW17997   0.714  12.276   9.055
72053SOL    HW117998   0.709  12.368   9.082
72053SOL    HW217999   0.807  12.263   9.035
72054SOL     OW18000  11.166  13.131  11.178
72054SOL    HW118001  11.184  13.214  11.134
72054SOL    HW218002  11.156  13.067  11.108
72055SOL     OW18003   4.927   5.558   9.171
72055SOL    HW118004   4.875   5.478   9.168
72055SOL    HW218005   5.005   5.534   9.221
72056SOL     OW18006   5.269  12.520  11.544
72056SOL    HW118007   5.337  12.531  11.611
72056SOL    HW218008   5.305  12.561  11.466
72057SOL     OW18009   9.986   4.337   4.205
72057SOL    HW118010  10.027   4.333   4.119
72057SOL    HW218011   9.905   4.386   4.191
72058SOL     OW18012  10.359   5.060  12.090
72058SOL    HW118013  10.318   5.134  12.134
72058SOL    HW218014  10.418   5.100  12.027
72059SOL     OW18015   0.415  13.491   2.265
72059SOL    HW118016   0.448  13.435   2.194
72059SOL    HW218017   0.328  13.518   2.235
72060SOL     OW18018   2.878   8.187   6.033
72060SOL    HW118019   2.897   8.262   6.089
72060SOL    HW218020   2.912   8.112   6.082
72061SOL     OW18021  13.613  13.069  12.218
72061SOL    HW118022  13.681  13.006  12.193
72061SOL    HW218023  13.659  13.153  12.223
72062SOL     OW18024  13.589   2.818  14.798
72062SOL    HW118025  13.497   2.794  14.815
72062SOL    HW218026  13.591   2.913  14.808
72063SOL     OW18027   3.419   5.230   1.399
72063SOL    HW118028   3.440   5.307   1.347
72063SOL    HW218029   3.351   5.185   1.350
72064SOL     OW18030   1.029   1.997  11.786
72064SOL    HW118031   0.959   1.980  11.723
72064SOL    HW218032   1.065   2.082  11.759
72065SOL     OW18033  13.778  13.791  13.812
72065SOL    HW118034  13.845  13.858  13.797
72065SOL    HW218035  13.696  13.834  13.789
72066SOL     OW18036   9.022   7.573  14.203
72066SOL    HW118037   9.020   7.517  14.126
72066SOL    HW218038   8.931   7.577  14.233
72067SOL     OW18039   0.534   5.814  14.796
72067SOL    HW118040   0.552   5.754  14.724
72067SOL    HW218041   0.469   5.875  14.761
72068SOL     OW18042   4.077   0.169   6.767
72068SOL    HW118043   4.045   0.218   6.691
72068SOL    HW218044   4.097   0.236   6.832
72069SOL     OW18045   6.895   2.049  12.079
72069SOL    HW118046   6.861   2.044  11.989
72069SOL    HW218047   6.989   2.036  12.070
72070SOL     OW18048  13.877   7.121  11.583
72070SOL    HW118049  13.792   7.077  11.577
72070SOL    HW218050  13.861   7.210  11.553
72071SOL     OW18051   6.776  14.750   9.526
72071SOL    HW118052   6.812  14.672   9.482
72071SOL    HW218053   6.696  14.718   9.567
72072SOL     OW18054   2.921  10.457   2.437
72072SOL    HW118055   2.829  10.456   2.464
72072SOL    HW218056   2.919  10.477   2.343
72073SOL     OW18057  10.511   7.749   8.169
72073SOL    HW118058  10.416   7.755   8.176
72073SOL    HW218059  10.536   7.828   8.121
72074SOL     OW18060   5.288  13.357  11.695
72074SOL    HW118061   5.252  13.307  11.622
72074SOL    HW218062   5.379  13.329  11.700
72075SOL     OW18063   5.716   1.532  13.047
72075SOL    HW118064   5.664   1.521  12.968
72075SOL    HW218065   5.785   1.593  13.023
72076SOL     OW18066   8.164   6.480   2.827
72076SOL    HW118067   8.090   6.502   2.884
72076SOL    HW218068   8.211   6.563   2.816
72077SOL     OW18069   6.771   3.031   9.129
72077SOL    HW118070   6.810   3.056   9.045
72077SOL    HW218071   6.780   2.935   9.131
72078SOL     OW18072  13.759   5.937   2.438
72078SOL    HW118073  13.688   5.970   2.382
72078SOL    HW218074  13.723   5.858   2.479
72079SOL     OW18075   5.126   3.011   7.769
72079SOL    HW118076   5.193   3.079   7.756
72079SOL    HW218077   5.152   2.969   7.851
72080SOL     OW18078  10.409   6.035   5.385
72080SOL    HW118079  10.317   6.059   5.394
72080SOL    HW218080  10.456   6.097   5.441
72081SOL     OW18081   3.415   7.015   4.978
72081SOL    HW118082   3.477   6.946   5.000
72081SOL    HW218083   3.329   6.973   4.985
72082SOL     OW18084   9.078   0.392  11.261
72082SOL    HW118085   9.169   0.421  11.264
72082SOL    HW218086   9.064   0.366  11.170
72083SOL     OW18087   9.037   1.446   9.538
72083SOL    HW118088   9.028   1.532   9.497
72083SOL    HW218089   9.129   1.423   9.527
72084SOL     OW18090   3.863  10.464   6.233
72084SOL    HW118091   3.907  10.549   6.229
72084SOL    HW218092   3.863  10.434   6.142
72085SOL     OW18093   1.135   4.657  14.150
72085SOL    HW118094   1.097   4.587  14.098
72085SOL    HW218095   1.169   4.719  14.086
72086SOL     OW18096   5.837  13.388  12.123
72086SOL    HW118097   5.893  13.466  12.122
72086SOL    HW218098   5.850  13.349  12.209
72087SOL     OW18099  10.113   4.199  14.421
72087SOL    HW118100  10.147   4.126  14.474
72087SOL    HW218101  10.191   4.238  14.382
72088SOL     OW18102  10.584   1.748   8.769
72088SOL    HW118103  10.632   1.667   8.750
72088SOL    HW218104  10.504   1.741   8.717
72089SOL     OW18105   7.405   3.869   4.128
72089SOL    HW118106   7.323   3.864   4.079
72089SOL    HW218107   7.389   3.933   4.197
72090SOL     OW18108   8.577  11.720   7.098
72090SOL    HW118109   8.568  11.705   7.004
72090SOL    HW218110   8.487  11.728   7.130
72091SOL     OW18111   0.841   5.597  12.397
72091SOL    HW118112   0.828   5.634  12.310
72091SOL    HW218113   0.770   5.634  12.449
72092SOL     OW18114   1.473   6.728   9.751
72092SOL    HW118115   1.488   6.646   9.799
72092SOL    HW218116   1.548   6.782   9.772
72093SOL     OW18117   1.208  10.907   9.876
72093SOL    HW118118   1.259  10.844   9.825
72093SOL    HW218119   1.120  10.870   9.879
72094SOL     OW18120   9.784   7.209   3.369
72094SOL    HW118121   9.808   7.122   3.401
72094SOL    HW218122   9.859   7.236   3.315
72095SOL     OW18123   6.266  12.304  11.136
72095SOL    HW118124   6.311  12.319  11.219
72095SOL    HW218125   6.194  12.368  11.137
72096SOL     OW18126   4.691   8.634   8.029
72096SOL    HW118127   4.658   8.722   8.011
72096SOL    HW218128   4.615   8.587   8.064
72097SOL     OW18129  10.582   2.287  10.964
72097SOL    HW118130  10.504   2.334  10.995
72097SOL    HW218131  10.641   2.286  11.039
72098SOL     OW18132   8.285  11.861  11.264
72098SOL    HW118133   8.238  11.782  11.238
72098SOL    HW218134   8.356  11.830  11.320
72099SOL     OW18135  13.406   9.377   5.924
72099SOL    HW118136  13.417   9.284   5.904
72099SOL    HW218137  13.393   9.381   6.019
72100SOL     OW18138   6.948  12.275   6.212
72100SOL    HW118139   6.894  12.309   6.283
72100SOL    HW218140   6.982  12.192   6.245
72101SOL     OW18141  10.565   9.703   1.300
72101SOL    HW118142  10.547   9.792   1.269
72101SOL    HW218143  10.495   9.686   1.363
72102SOL     OW18144  14.298   0.744  14.554
72102SOL    HW118145  14.225   0.705  14.505
72102SOL    HW218146  14.375   0.695  14.526
72103SOL     OW18147   3.556   7.543   4.773
72103SOL    HW118148   3.522   7.588   4.850
72103SOL    HW218149   3.623   7.483   4.809
72104SOL     OW18150   0.254  13.412   6.425
72104SOL    HW118151   0.294  13.349   6.366
72104SOL    HW218152   0.316  13.485   6.429
72105SOL     OW18153   7.937  12.353   6.440
72105SOL    HW118154   7.934  12.427   6.500
72105SOL    HW218155   8.014  12.368   6.386
72106SOL     OW18156  10.229   1.159  13.355
72106SOL    HW118157  10.137   1.167  13.381
72106SOL    HW218158  10.270   1.108  13.425
72107SOL     OW18159  11.206  12.463  14.258
72107SOL    HW118160  11.236  12.551  14.237
72107SOL    HW218161  11.281  12.420  14.298
72108SOL     OW18162   5.561   7.569   7.974
72108SOL    HW118163   5.549   7.578   8.068
72108SOL    HW218164   5.652   7.596   7.958
72109SOL     OW18165   7.458   8.780   8.520
72109SOL    HW118166   7.418   8.728   8.590
72109SOL    HW218167   7.483   8.715   8.454
72110SOL     OW18168   7.820   6.507   5.045
72110SOL    HW118169   7.815   6.569   5.118
72110SOL    HW218170   7.759   6.437   5.068
72111SOL     OW18171  12.249   7.224  13.186
72111SOL    HW118172  12.341   7.202  13.173
72111SOL    HW218173  12.237   7.220  13.281
72112SOL     OW18174   7.133   2.769   9.996
72112SOL    HW118175   7.108   2.677   9.987
72112SOL    HW218176   7.200   2.770  10.065
72113SOL     OW18177   0.034  12.486   9.953
72113SOL    HW118178   0.128  12.474   9.938
72113SOL    HW218179  14.866  12.424   9.894
72114SOL     OW18180   5.451   2.624  13.911
72114SOL    HW118181   5.502   2.702  13.892
72114SOL    HW218182   5.425   2.591  13.825
72115SOL     OW18183  11.923   8.237   7.257
72115SOL    HW118184  11.876   8.314   7.223
72115SOL    HW218185  11.942   8.185   7.179
72116SOL     OW18186   0.403   9.168   5.024
72116SOL    HW118187   0.456   9.240   4.990
72116SOL    HW218188   0.434   9.091   4.977
72117SOL     OW18189  12.053   9.364   3.749
72117SOL    HW118190  12.099   9.445   3.770
72117SOL    HW218191  12.121   9.306   3.715
72118SOL     OW18192   3.360  12.968   3.420
72118SOL    HW118193   3.360  12.895   3.482
72118SOL    HW218194   3.272  13.004   3.425
72119SOL     OW18195   4.522   7.163   1.278
72119SOL    HW118196   4.449   7.132   1.331
72119SOL    HW218197   4.597   7.160   1.336
72120SOL     OW18198   8.685   7.232   5.352
72120SOL    HW118199   8.720   7.146   5.329
72120SOL    HW218200   8.718   7.291   5.284
72121SOL     OW18201   0.627  12.144  10.371
72121SOL    HW118202   0.624  12.203  10.447
72121SOL    HW218203   0.719  12.141  10.347
72122SOL     OW18204   0.864   9.886  10.706
72122SOL    HW118205   0.920   9.828  10.759
72122SOL    HW218206   0.812   9.934  10.770
72123SOL     OW18207   3.956   1.620  14.667
72123SOL    HW118208   4.045   1.591  14.686
72123SOL    HW218209   3.912   1.621  14.752
72124SOL     OW18210   7.730   1.408   5.492
72124SOL    HW118211   7.687   1.440   5.571
72124SOL    HW218212   7.799   1.350   5.524
72125SOL     OW18213   7.609  12.439   7.593
72125SOL    HW118214   7.668  12.479   7.658
72125SOL    HW218215   7.660  12.440   7.512
72126SOL     OW18216  12.006   4.852   3.506
72126SOL    HW118217  11.961   4.918   3.558
72126SOL    HW218218  12.013   4.776   3.563
72127SOL     OW18219   3.823   5.466  10.100
72127SOL    HW118220   3.744   5.467  10.047
72127SOL    HW218221   3.863   5.381  10.081
72128SOL     OW18222   1.825  12.657   6.012
72128SOL    HW118223   1.762  12.718   5.975
72128SOL    HW218224   1.785  12.630   6.095
72129SOL     OW18225   5.166   2.091  13.183
72129SOL    HW118226   5.100   2.087  13.114
72129SOL    HW218227   5.116   2.102  13.264
72130SOL     OW18228   4.347   4.098   2.644
72130SOL    HW118229   4.257   4.127   2.661
72130SOL    HW218230   4.337   4.017   2.596
72131SOL     OW18231  10.452   9.981  13.935
72131SOL    HW118232  10.409   9.957  14.017
72131SOL    HW218233  10.464  10.076  13.940
72132SOL     OW18234   9.951   3.778   9.516
72132SOL    HW118235   9.931   3.684   9.517
72132SOL    HW218236   9.920   3.808   9.430
72133SOL     OW18237   7.771   2.930   2.389
72133SOL    HW118238   7.842   2.984   2.424
72133SOL    HW218239   7.718   2.909   2.466
72134SOL     OW18240   8.531  13.076  14.045
72134SOL    HW118241   8.469  13.142  14.013
72134SOL    HW218242   8.561  13.031  13.966
72135SOL     OW18243   5.170  10.389   9.128
72135SOL    HW118244   5.247  10.428   9.170
72135SOL    HW218245   5.139  10.457   9.068
72136SOL     OW18246  11.811  12.043   9.967
72136SOL    HW118247  11.884  12.028  10.027
72136SOL    HW218248  11.850  12.037   9.880
72137SOL     OW18249   5.893   3.399   9.190
72137SOL    HW118250   5.937   3.336   9.247
72137SOL    HW218251   5.962   3.429   9.130
72138SOL     OW18252   2.069   8.406  11.733
72138SOL    HW118253   2.080   8.373  11.822
72138SOL    HW218254   2.126   8.483  11.728
72139SOL     OW18255   1.378  11.939  13.545
72139SOL    HW118256   1.452  11.991  13.578
72139SOL    HW218257   1.335  11.906  13.624
72140SOL     OW18258   2.553  12.227   4.666
72140SOL    HW118259   2.588  12.145   4.630
72140SOL    HW218260   2.544  12.209   4.760
72141SOL     OW18261  12.287  14.566   7.041
72141SOL    HW118262  12.354  14.609   6.987
72141SOL    HW218263  12.299  14.603   7.128
72142SOL     OW18264   9.926   8.815   3.503
72142SOL    HW118265   9.896   8.812   3.412
72142SOL    HW218266   9.994   8.883   3.503
72143SOL     OW18267   4.534  13.420  14.428
72143SOL    HW118268   4.480  13.342  14.422
72143SOL    HW218269   4.475  13.492  14.407
72144SOL     OW18270   5.409   0.246   3.070
72144SOL    HW118271   5.419   0.151   3.066
72144SOL    HW218272   5.323   0.263   3.030
72145SOL     OW18273   7.273   9.797   9.642
72145SOL    HW118274   7.348   9.779   9.585
72145SOL    HW218275   7.215   9.853   9.589
72146SOL     OW18276   8.603   0.407   5.787
72146SOL    HW118277   8.526   0.379   5.738
72146SOL    HW218278   8.568   0.457   5.861
72147SOL     OW18279   0.893   6.807  13.835
72147SOL    HW118280   0.888   6.748  13.759
72147SOL    HW218281   0.865   6.753  13.909
72148SOL     OW18282   1.055   0.171   9.975
72148SOL    HW118283   0.994   0.218  10.031
72148SOL    HW218284   1.086   0.098  10.029
72149SOL     OW18285  11.823  13.436  11.046
72149SOL    HW118286  11.832  13.488  10.965
72149SOL    HW218287  11.842  13.498  11.116
72150SOL     OW18288   9.126   8.329   1.779
72150SOL    HW118289   9.187   8.402   1.776
72150SOL    HW218290   9.147   8.276   1.702
72151SOL     OW18291   4.795  11.471   3.789
72151SOL    HW118292   4.743  11.549   3.807
72151SOL    HW218293   4.732  11.406   3.759
72152SOL     OW18294   8.318  11.849  13.927
72152SOL    HW118295   8.413  11.854  13.922
72152SOL    HW218296   8.288  11.891  13.845
72153SOL     OW18297   8.747   7.197  10.768
72153SOL    HW118298   8.765   7.106  10.747
72153SOL    HW218299   8.674   7.221  10.711
72154SOL     OW18300  10.761  13.967   9.997
72154SOL    HW118301  10.853  13.991   9.997
72154SOL    HW218302  10.741  13.943  10.087
72155SOL     OW18303  14.393   4.263   0.052
72155SOL    HW118304  14.372   4.306  14.843
72155SOL    HW218305  14.448   4.327   0.098
72156SOL     OW18306   6.852  13.099   4.760
72156SOL    HW118307   6.769  13.137   4.732
72156SOL    HW218308   6.842  13.085   4.854
72157SOL     OW18309   1.309   6.802  11.676
72157SOL    HW118310   1.353   6.860  11.613
72157SOL    HW218311   1.244   6.755  11.623
72158SOL     OW18312   7.977   7.397  14.458
72158SOL    HW118313   7.902   7.355  14.415
72158SOL    HW218314   7.939   7.442  14.534
72159SOL     OW18315   6.398  13.319   5.703
72159SOL    HW118316   6.354  13.339   5.786
72159SOL    HW218317   6.487  13.292   5.729
72160SOL     OW18318   1.199   1.951   3.933
72160SOL    HW118319   1.265   1.882   3.936
72160SOL    HW218320   1.240   2.026   3.976
72161SOL     OW18321   9.574  10.291   5.871
72161SOL    HW118322   9.563  10.297   5.966
72161SOL    HW218323   9.667  10.274   5.858
72162SOL     OW18324  13.647  12.788  10.836
72162SOL    HW118325  13.588  12.728  10.791
72162SOL    HW218326  13.592  12.862  10.861
72163SOL     OW18327   8.119  13.623   2.119
72163SOL    HW118328   8.214  13.620   2.121
72163SOL    HW218329   8.093  13.632   2.210
72164SOL     OW18330   3.874  10.564  13.089
72164SOL    HW118331   3.779  10.569  13.089
72164SOL    HW218332   3.902  10.636  13.146
72165SOL     OW18333   5.117  11.503   8.766
72165SOL    HW118334   5.103  11.419   8.810
72165SOL    HW218335   5.065  11.565   8.817
72166SOL     OW18336  10.986   4.637  10.344
72166SOL    HW118337  11.081   4.640  10.332
72166SOL    HW218338  10.967   4.544  10.359
72167SOL     OW18339  10.573  12.599   8.760
72167SOL    HW118340  10.514  12.618   8.687
72167SOL    HW218341  10.645  12.661   8.748
72168SOL     OW18342   3.713   3.359  12.046
72168SOL    HW118343   3.793   3.318  12.014
72168SOL    HW218344   3.703   3.326  12.135
72169SOL     OW18345  10.086   2.686   6.664
72169SOL    HW118346  10.100   2.711   6.755
72169SOL    HW218347  10.009   2.629   6.666
72170SOL     OW18348  12.686   2.011   5.922
72170SOL    HW118349  12.639   1.972   5.996
72170SOL    HW218350  12.619   2.024   5.855
72171SOL     OW18351   3.984   3.704   5.388
72171SOL    HW118352   3.968   3.610   5.378
72171SOL    HW218353   3.940   3.744   5.313
72172SOL     OW18354   0.335  10.273   3.509
72172SOL    HW118355   0.298  10.185   3.513
72172SOL    HW218356   0.390  10.272   3.430
72173SOL     OW18357   9.822   3.354   6.394
72173SOL    HW118358   9.864   3.331   6.477
72173SOL    HW218359   9.781   3.438   6.411
72174SOL     OW18360   1.386  13.445   0.949
72174SOL    HW118361   1.296  13.416   0.938
72174SOL    HW218362   1.435  13.397   0.883
72175SOL     OW18363   3.336   3.611  12.196
72175SOL    HW118364   3.404   3.576  12.253
72175SOL    HW218365   3.293   3.680  12.248
72176SOL     OW18366   2.854   7.478   0.918
72176SOL    HW118367   2.907   7.511   0.845
72176SOL    HW218368   2.803   7.406   0.879
72177SOL     OW18369   0.091  11.760  12.369
72177SOL    HW118370   0.146  11.771  12.447
72177SOL    HW218371   0.144  11.707  12.310
72178SOL     OW18372  10.591  11.189   7.947
72178SOL    HW118373  10.537  11.117   7.914
72178SOL    HW218374  10.641  11.150   8.019
72179SOL     OW18375   0.350   4.117  11.421
72179SOL    HW118376   0.349   4.205  11.461
72179SOL    HW218377   0.271   4.115  11.367
72180SOL     OW18378   8.881   6.226   5.600
72180SOL    HW118379   8.966   6.229   5.644
72180SOL    HW218380   8.874   6.311   5.556
72181SOL     OW18381   0.533  12.215   9.764
72181SOL    HW118382   0.611  12.159   9.768
72181SOL    HW218383   0.565  12.299   9.733
72182SOL     OW18384   1.844   9.953   2.725
72182SOL    HW118385   1.907   9.881   2.729
72182SOL    HW218386   1.828   9.966   2.632
72183SOL     OW18387   1.186  12.938  12.588
72183SOL    HW118388   1.248  12.894  12.646
72183SOL    HW218389   1.186  12.886  12.508
72184SOL     OW18390  11.168   2.685   3.376
72184SOL    HW118391  11.135   2.676   3.286
72184SOL    HW218392  11.263   2.688   3.367
72185SOL     OW18393   7.302   6.407   3.386
72185SOL    HW118394   7.353   6.393   3.307
72185SOL    HW218395   7.365   6.403   3.458
72186SOL     OW18396   8.535   6.555  14.312
72186SOL    HW118397   8.527   6.499  14.234
72186SOL    HW218398   8.613   6.521  14.357
72187SOL     OW18399   0.509  13.608   8.663
72187SOL    HW118400   0.505  13.546   8.735
72187SOL    HW218401   0.502  13.694   8.705
72188SOL     OW18402   4.800   2.181  14.620
72188SOL    HW118403   4.722   2.127  14.602
72188SOL    HW218404   4.873   2.130  14.585
72189SOL     OW18405  10.730  10.458   8.999
72189SOL    HW118406  10.789  10.402   8.949
72189SOL    HW218407  10.739  10.544   8.958
72190SOL     OW18408   9.726   4.435  10.725
72190SOL    HW118409   9.746   4.347  10.757
72190SOL    HW218410   9.666   4.421  10.652
72191SOL     OW18411  13.696  13.411   5.214
72191SOL    HW118412  13.766  13.437   5.273
72191SOL    HW218413  13.646  13.346   5.263
72192SOL     OW18414   8.300  12.459   6.578
72192SOL    HW118415   8.237  12.446   6.649
72192SOL    HW218416   8.333  12.372   6.558
72193SOL     OW18417   5.719  12.610   2.725
72193SOL    HW118418   5.625  12.626   2.737
72193SOL    HW218419   5.761  12.660   2.795
72194SOL     OW18420   3.073  14.141   4.398
72194SOL    HW118421   3.009  14.075   4.424
72194SOL    HW218422   3.115  14.105   4.320
72195SOL     OW18423  14.163  13.213   6.575
72195SOL    HW118424  14.177  13.254   6.489
72195SOL    HW218425  14.079  13.249   6.605
72196SOL     OW18426  12.266   5.833   5.163
72196SOL    HW118427  12.305   5.782   5.092
72196SOL    HW218428  12.275   5.924   5.134
72197SOL     OW18429  12.100   2.437   3.377
72197SOL    HW118430  12.061   2.500   3.316
72197SOL    HW218431  12.145   2.374   3.320
72198SOL     OW18432  12.544   8.661  11.304
72198SOL    HW118433  12.590   8.717  11.366
72198SOL    HW218434  12.562   8.701  11.219
72199SOL     OW18435  13.379   6.410  10.993
72199SOL    HW118436  13.384   6.428  10.899
72199SOL    HW218437  13.350   6.319  10.999
72200SOL     OW18438   4.464   3.403   3.871
72200SOL    HW118439   4.555   3.375   3.859
72200SOL    HW218440   4.443   3.450   3.790
72201SOL     OW18441   3.595   6.154   6.079
72201SOL    HW118442   3.548   6.108   6.009
72201SOL    HW218443   3.667   6.095   6.101
72202SOL     OW18444  13.865   7.751  12.729
72202SOL    HW118445  13.886   7.777  12.819
72202SOL    HW218446  13.901   7.663  12.720
72203SOL     OW18447   4.270   2.425  11.322
72203SOL    HW118448   4.201   2.471  11.369
72203SOL    HW218449   4.315   2.493  11.273
72204SOL     OW18450  12.358   3.129  14.016
72204SOL    HW118451  12.268   3.115  14.046
72204SOL    HW218452  12.361   3.221  13.989
72205SOL     OW18453   1.637  10.499  12.577
72205SOL    HW118454   1.573  10.490  12.507
72205SOL    HW218455   1.710  10.442  12.551
72206SOL     OW18456   2.361   2.823   9.164
72206SOL    HW118457   2.353   2.904   9.215
72206SOL    HW218458   2.436   2.778   9.203
72207SOL     OW18459   4.403   0.255   4.504
72207SOL    HW118460   4.449   0.330   4.541
72207SOL    HW218461   4.312   0.285   4.495
72208SOL     OW18462   5.766   1.124   5.846
72208SOL    HW118463   5.811   1.056   5.796
72208SOL    HW218464   5.837   1.176   5.885
72209SOL     OW18465   7.507   7.301   5.037
72209SOL    HW118466   7.513   7.349   4.954
72209SOL    HW218467   7.479   7.213   5.012
72210SOL     OW18468   5.803   6.552   9.481
72210SOL    HW118469   5.846   6.620   9.532
72210SOL    HW218470   5.795   6.589   9.393
72211SOL     OW18471   4.635  14.198   5.764
72211SOL    HW118472   4.712  14.146   5.787
72211SOL    HW218473   4.561  14.151   5.802
72212SOL     OW18474   0.892   3.648  13.318
72212SOL    HW118475   0.818   3.664  13.377
72212SOL    HW218476   0.940   3.576  13.359
72213SOL     OW18477   5.653   6.938  14.872
72213SOL    HW118478   5.734   6.989  14.862
72213SOL    HW218479   5.649   6.918   0.092
72214SOL     OW18480   3.203   5.948  14.300
72214SOL    HW118481   3.153   5.888  14.356
72214SOL    HW218482   3.178   6.035  14.329
72215SOL     OW18483   2.799   2.206  10.123
72215SOL    HW118484   2.779   2.299  10.110
72215SOL    HW218485   2.719   2.170  10.162
72216SOL     OW18486   0.883   1.140   3.280
72216SOL    HW118487   0.938   1.104   3.350
72216SOL    HW218488   0.942   1.148   3.205
72217SOL     OW18489  13.772   3.188   8.090
72217SOL    HW118490  13.705   3.172   8.024
72217SOL    HW218491  13.816   3.104   8.101
72218SOL     OW18492  10.943  13.314  14.386
72218SOL    HW118493  10.889  13.314  14.465
72218SOL    HW218494  10.888  13.273  14.319
72219SOL     OW18495  11.194   5.559  10.612
72219SOL    HW118496  11.196   5.469  10.647
72219SOL    HW218497  11.186   5.614  10.690
72220SOL     OW18498   7.992  11.694   0.700
72220SOL    HW118499   8.053  11.758   0.663
72220SOL    HW218500   7.952  11.739   0.775
72221SOL     OW18501   1.810  12.652   9.914
72221SOL    HW118502   1.792  12.621  10.003
72221SOL    HW218503   1.779  12.743   9.913
72222SOL     OW18504   4.196  14.437  11.640
72222SOL    HW118505   4.105  14.417  11.622
72222SOL    HW218506   4.202  14.439  11.735
72223SOL     OW18507  14.267   5.266  13.016
72223SOL    HW118508  14.340   5.293  12.960
72223SOL    HW218509  14.231   5.189  12.973
72224SOL     OW18510  14.800  12.863  13.168
72224SOL    HW118511  14.785  12.771  13.146
72224SOL    HW218512  14.718  12.907  13.147
72225SOL     OW18513  10.219   9.610   2.237
72225SOL    HW118514  10.127   9.622   2.214
72225SOL    HW218515  10.230   9.659   2.318
72226SOL     OW18516   3.973   7.395   2.369
72226SOL    HW118517   3.890   7.348   2.379
72226SOL    HW218518   3.961   7.476   2.417
72227SOL     OW18519  12.641   1.659   6.537
72227SOL    HW118520  12.716   1.711   6.507
72227SOL    HW218521  12.590   1.721   6.589
72228SOL     OW18522   1.661   8.973   4.597
72228SOL    HW118523   1.629   8.958   4.508
72228SOL    HW218524   1.599   9.035   4.635
72229SOL     OW18525   9.604   5.152   9.545
72229SOL    HW118526   9.584   5.245   9.540
72229SOL    HW218527   9.528   5.109   9.507
72230SOL     OW18528   5.299  14.271  12.672
72230SOL    HW118529   5.209  14.282  12.643
72230SOL    HW218530   5.300  14.186  12.716
72231SOL     OW18531  12.992   3.546   7.875
72231SOL    HW118532  12.912   3.558   7.824
72231SOL    HW218533  12.960   3.519   7.962
72232SOL     OW18534   6.732  12.312   0.842
72232SOL    HW118535   6.766  12.246   0.781
72232SOL    HW218536   6.784  12.301   0.921
72233SOL     OW18537   2.609   7.575   4.942
72233SOL    HW118538   2.587   7.503   5.001
72233SOL    HW218539   2.572   7.652   4.983
72234SOL     OW18540   0.761  10.582   3.185
72234SOL    HW118541   0.715  10.535   3.254
72234SOL    HW218542   0.741  10.534   3.105
72235SOL     OW18543   4.092   7.792  11.006
72235SOL    HW118544   4.094   7.701  10.974
72235SOL    HW218545   4.173   7.801  11.057
72236SOL     OW18546   0.347   3.566   6.147
72236SOL    HW118547   0.405   3.530   6.080
72236SOL    HW218548   0.312   3.646   6.109
72237SOL     OW18549  12.967   7.568   8.565
72237SOL    HW118550  12.899   7.607   8.510
72237SOL    HW218551  12.977   7.479   8.532
72238SOL     OW18552   8.171  12.786   3.668
72238SOL    HW118553   8.226  12.794   3.590
72238SOL    HW218554   8.098  12.730   3.640
72239SOL     OW18555   2.732  12.598   1.727
72239SOL    HW118556   2.704  12.663   1.791
72239SOL    HW218557   2.747  12.518   1.779
72240SOL     OW18558   7.767   3.152  13.537
72240SOL    HW118559   7.810   3.237  13.536
72240SOL    HW218560   7.768   3.123  13.446
72241SOL     OW18561   1.746  11.845  14.140
72241SOL    HW118562   1.840  11.864  14.149
72241SOL    HW218563   1.742  11.749  14.143
72242SOL     OW18564   5.289   0.661   3.804
72242SOL    HW118565   5.304   0.725   3.873
72242SOL    HW218566   5.233   0.706   3.741
72243SOL     OW18567   9.546   8.809   8.429
72243SOL    HW118568   9.457   8.814   8.394
72243SOL    HW218569   9.572   8.718   8.415
72244SOL     OW18570  12.569  14.863   9.624
72244SOL    HW118571  12.535  14.783   9.585
72244SOL    HW218572  12.661  14.845   9.640
72245SOL     OW18573   6.994  11.188   4.063
72245SOL    HW118574   7.064  11.218   4.005
72245SOL    HW218575   6.914  11.226   4.025
72246SOL     OW18576   6.347   6.408   0.336
72246SOL    HW118577   6.380   6.408   0.426
72246SOL    HW218578   6.252   6.419   0.345
72247SOL     OW18579   7.656  11.113  10.955
72247SOL    HW118580   7.726  11.179  10.961
72247SOL    HW218581   7.698  11.038  10.912
72248SOL     OW18582   0.588   1.714  12.174
72248SOL    HW118583   0.601   1.792  12.121
72248SOL    HW218584   0.513   1.736  12.230
72249SOL     OW18585   5.315   3.824   6.446
72249SOL    HW118586   5.405   3.815   6.479
72249SOL    HW218587   5.260   3.819   6.524
72250SOL     OW18588  10.375   5.163  13.897
72250SOL    HW118589  10.321   5.087  13.874
72250SOL    HW218590  10.328   5.205  13.969
72251SOL     OW18591   0.573  10.497   5.660
72251SOL    HW118592   0.623  10.555   5.603
72251SOL    HW218593   0.529  10.437   5.600
72252SOL     OW18594   7.907   9.299  14.339
72252SOL    HW118595   7.911   9.308  14.244
72252SOL    HW218596   7.833   9.354  14.365
72253SOL     OW18597   9.809   1.868   6.083
72253SOL    HW118598   9.861   1.791   6.065
72253SOL    HW218599   9.729   1.856   6.031
72254SOL     OW18600   8.867   3.947   9.005
72254SOL    HW118601   8.794   3.975   8.950
72254SOL    HW218602   8.917   3.888   8.949
72255SOL     OW18603   3.101   7.273  11.180
72255SOL    HW118604   3.143   7.237  11.258
72255SOL    HW218605   3.167   7.332  11.142
72256SOL     OW18606   1.830   0.313   6.761
72256SOL    HW118607   1.830   0.234   6.708
72256SOL    HW218608   1.853   0.284   6.849
72257SOL     OW18609   9.744   3.881   6.714
72257SOL    HW118610   9.703   3.809   6.762
72257SOL    HW218611   9.831   3.889   6.754
72258SOL     OW18612  14.614   9.018  12.872
72258SOL    HW118613  14.621   8.937  12.822
72258SOL    HW218614  14.677   9.009  12.943
72259SOL     OW18615   6.791   1.044   8.003
72259SOL    HW118616   6.722   1.108   7.989
72259SOL    HW218617   6.838   1.040   7.919
72260SOL     OW18618   9.753  11.231  13.681
72260SOL    HW118619   9.669  11.274  13.665
72260SOL    HW218620   9.813  11.302  13.704
72261SOL     OW18621  13.917   9.399   7.971
72261SOL    HW118622  13.841   9.435   8.015
72261SOL    HW218623  13.891   9.395   7.879
72262SOL     OW18624  13.019   8.175   0.913
72262SOL    HW118625  13.069   8.149   0.836
72262SOL    HW218626  13.084   8.184   0.982
72263SOL     OW18627   8.310   8.019   8.890
72263SOL    HW118628   8.353   8.095   8.927
72263SOL    HW218629   8.303   7.957   8.962
72264SOL     OW18630  14.085  14.636  12.800
72264SOL    HW118631  14.068  14.696  12.727
72264SOL    HW218632  13.999  14.599  12.820
72265SOL     OW18633  10.608  11.534   6.877
72265SOL    HW118634  10.550  11.465   6.907
72265SOL    HW218635  10.662  11.493   6.810
72266SOL     OW18636   2.358   9.083   9.508
72266SOL    HW118637   2.408   9.026   9.566
72266SOL    HW218638   2.422   9.146   9.476
72267SOL     OW18639  10.974   0.090   0.671
72267SOL    HW118640  11.052   0.040   0.648
72267SOL    HW218641  10.956   0.143   0.594
72268SOL     OW18642   1.894   9.020   1.121
72268SOL    HW118643   1.890   9.045   1.213
72268SOL    HW218644   1.970   8.962   1.115
72269SOL     OW18645   2.224   4.228   6.698
72269SOL    HW118646   2.265   4.157   6.649
72269SOL    HW218647   2.168   4.184   6.762
72270SOL     OW18648  10.250   2.562  11.393
72270SOL    HW118649  10.211   2.605  11.469
72270SOL    HW218650  10.301   2.491  11.431
72271SOL     OW18651   9.337  13.424  14.045
72271SOL    HW118652   9.335  13.328  14.050
72271SOL    HW218653   9.343  13.453  14.136
72272SOL     OW18654   2.143   8.482   1.781
72272SOL    HW118655   2.114   8.553   1.723
72272SOL    HW218656   2.065   8.429   1.796
72273SOL     OW18657   9.361   7.395  11.021
72273SOL    HW118658   9.414   7.356  11.091
72273SOL    HW218659   9.279   7.421  11.064
72274SOL     OW18660  13.118   7.153   2.497
72274SOL    HW118661  13.198   7.202   2.517
72274SOL    HW218662  13.084   7.128   2.583
72275SOL     OW18663   5.579   6.202  12.343
72275SOL    HW118664   5.625   6.256  12.279
72275SOL    HW218665   5.642   6.191  12.415
72276SOL     OW18666  13.770  11.415   1.434
72276SOL    HW118667  13.858  11.392   1.465
72276SOL    HW218668  13.751  11.350   1.367
72277SOL     OW18669   6.050  12.516   1.755
72277SOL    HW118670   6.098  12.460   1.694
72277SOL    HW218671   6.118  12.565   1.801
72278SOL     OW18672   4.039   1.680   3.678
72278SOL    HW118673   4.090   1.740   3.623
72278SOL    HW218674   4.103   1.644   3.739
72279SOL     OW18675  14.386  11.519  12.681
72279SOL    HW118676  14.375  11.575  12.603
72279SOL    HW218677  14.379  11.430  12.647
72280SOL     OW18678  12.311   0.415   8.706
72280SOL    HW118679  12.289   0.324   8.725
72280SOL    HW218680  12.237   0.448   8.655
72281SOL     OW18681   7.088   1.094   2.903
72281SOL    HW118682   7.175   1.124   2.878
72281SOL    HW218683   7.104   1.030   2.972
72282SOL     OW18684   4.108   8.067   2.177
72282SOL    HW118685   4.040   8.132   2.159
72282SOL    HW218686   4.180   8.090   2.119
72283SOL     OW18687  12.338   0.660  10.653
72283SOL    HW118688  12.278   0.636  10.724
72283SOL    HW218689  12.319   0.753  10.637
72284SOL     OW18690  10.412  11.844   0.799
72284SOL    HW118691  10.338  11.831   0.858
72284SOL    HW218692  10.425  11.939   0.797
72285SOL     OW18693   4.857   3.007   9.705
72285SOL    HW118694   4.834   3.048   9.788
72285SOL    HW218695   4.869   2.915   9.725
72286SOL     OW18696   4.175  13.685   1.820
72286SOL    HW118697   4.239  13.619   1.795
72286SOL    HW218698   4.219  13.769   1.801
72287SOL     OW18699  12.714   2.951   8.657
72287SOL    HW118700  12.770   2.928   8.731
72287SOL    HW218701  12.693   2.867   8.616
72288SOL     OW18702  13.172  10.428  12.950
72288SOL    HW118703  13.265  10.441  12.970
72288SOL    HW218704  13.143  10.512  12.914
72289SOL     OW18705   9.729  10.412   1.124
72289SOL    HW118706   9.739  10.322   1.093
72289SOL    HW218707   9.637  10.420   1.147
72290SOL     OW18708   8.935   3.564   4.244
72290SOL    HW118709   8.851   3.611   4.242
72290SOL    HW218710   8.981   3.600   4.320
72291SOL     OW18711   2.607  10.198   2.220
72291SOL    HW118712   2.518  10.195   2.184
72291SOL    HW218713   2.640  10.108   2.212
72292SOL     OW18714   5.282   8.737   2.935
72292SOL    HW118715   5.216   8.673   2.906
72292SOL    HW218716   5.231   8.806   2.977
72293SOL     OW18717   1.183   5.374   5.643
72293SOL    HW118718   1.151   5.316   5.573
72293SOL    HW218719   1.216   5.451   5.596
72294SOL     OW18720   1.379  13.823  12.225
72294SOL    HW118721   1.284  13.828  12.234
72294SOL    HW218722   1.411  13.907  12.257
72295SOL     OW18723  14.684   3.226   8.879
72295SOL    HW118724  14.611   3.201   8.824
72295SOL    HW218725  14.760   3.224   8.821
72296SOL     OW18726  10.733  14.626   8.034
72296SOL    HW118727  10.829  14.618   8.028
72296SOL    HW218728  10.711  14.584   8.117
72297SOL     OW18729  12.371   9.195   5.908
72297SOL    HW118730  12.379   9.217   5.815
72297SOL    HW218731  12.350   9.278   5.950
72298SOL     OW18732  11.871  13.741  12.513
72298SOL    HW118733  11.923  13.762  12.590
72298SOL    HW218734  11.791  13.702  12.548
72299SOL     OW18735  13.180   5.768   9.931
72299SOL    HW118736  13.259   5.821   9.918
72299SOL    HW218737  13.120   5.798   9.863
72300SOL     OW18738  14.532   7.411   7.380
72300SOL    HW118739  14.620   7.431   7.411
72300SOL    HW218740  14.474   7.467   7.432
72301SOL     OW18741   2.323   7.961   5.674
72301SOL    HW118742   2.288   8.040   5.634
72301SOL    HW218743   2.418   7.967   5.660
72302SOL     OW18744   9.837   3.658   6.195
72302SOL    HW118745   9.753   3.620   6.173
72302SOL    HW218746   9.862   3.709   6.118
72303SOL     OW18747   3.566   3.464   9.029
72303SOL    HW118748   3.471   3.463   9.013
72303SOL    HW218749   3.576   3.518   9.107
72304SOL     OW18750   6.223   8.428  13.489
72304SOL    HW118751   6.280   8.359  13.455
72304SOL    HW218752   6.135   8.402  13.462
72305SOL     OW18753  14.751   4.041   7.147
72305SOL    HW118754  14.834   4.004   7.175
72305SOL    HW218755  14.770   4.084   7.064
72306SOL     OW18756  14.621   4.873   7.874
72306SOL    HW118757  14.667   4.847   7.953
72306SOL    HW218758  14.571   4.795   7.849
72307SOL     OW18759   2.945   1.275   3.212
72307SOL    HW118760   2.964   1.324   3.132
72307SOL    HW218761   2.883   1.331   3.260
72308SOL     OW18762  13.651   6.147   4.316
72308SOL    HW118763  13.648   6.103   4.401
72308SOL    HW218764  13.630   6.238   4.336
72309SOL     OW18765  13.195  13.209   0.717
72309SOL    HW118766  13.117  13.191   0.664
72309SOL    HW218767  13.234  13.287   0.677
72310SOL     OW18768   0.507   0.425   4.185
72310SOL    HW118769   0.519   0.353   4.247
72310SOL    HW218770   0.432   0.398   4.132
72311SOL     OW18771   9.009  13.252   9.781
72311SOL    HW118772   8.966  13.242   9.865
72311SOL    HW218773   9.048  13.339   9.784
72312SOL     OW18774   1.406   9.840   0.085
72312SOL    HW118775   1.411   9.754   0.127
72312SOL    HW218776   1.369   9.822  14.872
72313SOL     OW18777   8.541   3.766  14.163
72313SOL    HW118778   8.550   3.753  14.257
72313SOL    HW218779   8.455   3.807  14.152
72314SOL     OW18780   0.548  11.652   7.494
72314SOL    HW118781   0.559  11.718   7.426
72314SOL    HW218782   0.637  11.637   7.527
72315SOL     OW18783   6.186   9.445   5.088
72315SOL    HW118784   6.275   9.425   5.118
72315SOL    HW218785   6.147   9.495   5.160
72316SOL     OW18786   8.022   4.797   8.795
72316SOL    HW118787   7.960   4.853   8.749
72316SOL    HW218788   8.043   4.727   8.733
72317SOL     OW18789   3.060   7.704   5.726
72317SOL    HW118790   3.006   7.688   5.803
72317SOL    HW218791   3.017   7.777   5.681
72318SOL     OW18792   0.656   8.536   2.105
72318SOL    HW118793   0.669   8.441   2.098
72318SOL    HW218794   0.700   8.560   2.187
72319SOL     OW18795   6.950   4.277   5.878
72319SOL    HW118796   6.928   4.189   5.846
72319SOL    HW218797   6.869   4.327   5.868
72320SOL     OW18798  13.342   1.684  10.017
72320SOL    HW118799  13.396   1.762  10.031
72320SOL    HW218800  13.269   1.715   9.962
72321SOL     OW18801   5.052   9.050  10.300
72321SOL    HW118802   5.016   8.977  10.251
72321SOL    HW218803   5.083   9.012  10.382
72322SOL     OW18804   8.207  14.827  11.333
72322SOL    HW118805   8.157  14.824  11.414
72322SOL    HW218806   8.166  14.761  11.277
72323SOL     OW18807  11.624   2.924   2.367
72323SOL    HW118808  11.685   2.966   2.306
72323SOL    HW218809  11.552   2.894   2.311
72324SOL     OW18810   3.013   2.888   5.030
72324SOL    HW118811   2.965   2.963   5.067
72324SOL    HW218812   2.983   2.813   5.082
72325SOL     OW18813  12.672   7.410  11.969
72325SOL    HW118814  12.579   7.393  11.982
72325SOL    HW218815  12.690   7.489  12.021
72326SOL     OW18816   5.405   9.165  14.566
72326SOL    HW118817   5.452   9.102  14.620
72326SOL    HW218818   5.378   9.115  14.488
72327SOL     OW18819  13.641   8.085   6.290
72327SOL    HW118820  13.582   8.063   6.362
72327SOL    HW218821  13.729   8.081   6.327
72328SOL     OW18822   2.673  14.164   9.798
72328SOL    HW118823   2.641  14.245   9.759
72328SOL    HW218824   2.595  14.110   9.809
72329SOL     OW18825  11.977  12.634   9.046
72329SOL    HW118826  11.925  12.597   8.975
72329SOL    HW218827  11.933  12.604   9.126
72330SOL     OW18828   1.749   3.315   2.380
72330SOL    HW118829   1.726   3.404   2.406
72330SOL    HW218830   1.795   3.279   2.456
72331SOL     OW18831   7.732   6.831   3.083
72331SOL    HW118832   7.696   6.801   2.999
72331SOL    HW218833   7.771   6.916   3.063
72332SOL     OW18834   0.620   4.666  13.099
72332SOL    HW118835   0.543   4.696  13.149
72332SOL    HW218836   0.692   4.720  13.131
72333SOL     OW18837  13.840   9.870  12.215
72333SOL    HW118838  13.875   9.904  12.298
72333SOL    HW218839  13.915   9.868  12.156
72334SOL     OW18840   9.603   9.878   1.836
72334SOL    HW118841   9.523   9.928   1.821
72334SOL    HW218842   9.652   9.885   1.755
72335SOL     OW18843   0.501   4.928   3.106
72335SOL    HW118844   0.565   4.938   3.176
72335SOL    HW218845   0.474   5.017   3.085
72336SOL     OW18846  11.503   2.611   9.367
72336SOL    HW118847  11.504   2.569   9.281
72336SOL    HW218848  11.444   2.557   9.420
72337SOL     OW18849   6.507   9.110   6.736
72337SOL    HW118850   6.447   9.176   6.700
72337SOL    HW218851   6.589   9.124   6.689
72338SOL     OW18852  10.380   7.005   2.436
72338SOL    HW118853  10.464   6.960   2.433
72338SOL    HW218854  10.400   7.094   2.407
72339SOL     OW18855  14.590   8.433   2.692
72339SOL    HW118856  14.506   8.429   2.737
72339SOL    HW218857  14.567   8.447   2.600
72340SOL     OW18858   4.053   3.719   0.031
72340SOL    HW118859   4.077   3.672  14.826
72340SOL    HW218860   4.079   3.810   0.014
72341SOL     OW18861  11.550   7.940  14.241
72341SOL    HW118862  11.493   7.865  14.253
72341SOL    HW218863  11.596   7.949  14.325
72342SOL     OW18864  14.038   9.794   2.450
72342SOL    HW118865  14.111   9.840   2.409
72342SOL    HW218866  14.072   9.764   2.535
72343SOL     OW18867   7.391  12.576  12.143
72343SOL    HW118868   7.313  12.616  12.181
72343SOL    HW218869   7.385  12.484  12.168
72344SOL     OW18870   9.920   2.345   8.665
72344SOL    HW118871   9.938   2.283   8.595
72344SOL    HW218872   9.945   2.299   8.746
72345SOL     OW18873   7.559   0.691  14.308
72345SOL    HW118874   7.623   0.761  14.319
72345SOL    HW218875   7.476   0.735  14.294
72346SOL     OW18876   4.186   9.934  14.565
72346SOL    HW118877   4.190   9.860  14.505
72346SOL    HW218878   4.139  10.002  14.517
72347SOL     OW18879   7.687   1.014  14.842
72347SOL    HW118880   7.705   0.920  14.842
72347SOL    HW218881   7.721   1.046   0.051
72348SOL     OW18882  13.545  13.018   0.051
72348SOL    HW118883  13.543  13.113   0.038
72348SOL    HW218884  13.553  12.982  14.837
72349SOL     OW18885   2.346  13.700  14.660
72349SOL    HW118886   2.391  13.639  14.718
72349SOL    HW218887   2.255  13.671  14.660
72350SOL     OW18888  10.627   7.946   4.168
72350SOL    HW118889  10.684   8.021   4.157
72350SOL    HW218890  10.539   7.978   4.145
72351SOL     OW18891   7.140   0.146   3.380
72351SOL    HW118892   7.149   0.169   3.472
72351SOL    HW218893   7.222   0.174   3.340
72352SOL     OW18894   2.905   9.831   0.633
72352SOL    HW118895   3.001   9.838   0.629
72352SOL    HW218896   2.879   9.809   0.543
72353SOL     OW18897  13.609   3.800   3.829
72353SOL    HW118898  13.549   3.867   3.798
72353SOL    HW218899  13.552   3.732   3.866
72354SOL     OW18900   5.569   6.789   9.417
72354SOL    HW118901   5.544   6.730   9.488
72354SOL    HW218902   5.541   6.875   9.446
72355SOL     OW18903  13.635   9.408   9.033
72355SOL    HW118904  13.662   9.406   9.125
72355SOL    HW218905  13.657   9.496   9.003
72356SOL     OW18906   6.068  11.272   1.082
72356SOL    HW118907   5.989  11.219   1.077
72356SOL    HW218908   6.037  11.359   1.106
72357SOL     OW18909   3.069  13.878   6.601
72357SOL    HW118910   3.121  13.950   6.566
72357SOL    HW218911   3.005  13.858   6.533
72358SOL     OW18912   9.270   7.579  13.890
72358SOL    HW118913   9.312   7.534  13.817
72358SOL    HW218914   9.196   7.625  13.851
72359SOL     OW18915   4.198   4.801   6.949
72359SOL    HW118916   4.271   4.750   6.914
72359SOL    HW218917   4.132   4.799   6.880
72360SOL     OW18918  11.306  13.524   6.397
72360SOL    HW118919  11.238  13.563   6.343
72360SOL    HW218920  11.371  13.593   6.407
72361SOL     OW18921   5.546   2.186  12.324
72361SOL    HW118922   5.598   2.113  12.292
72361SOL    HW218923   5.589   2.264  12.288
72362SOL     OW18924  14.159   2.455   3.483
72362SOL    HW118925  14.083   2.441   3.427
72362SOL    HW218926  14.220   2.504   3.428
72363SOL     OW18927   4.692   6.962   9.019
72363SOL    HW118928   4.788   6.964   9.014
72363SOL    HW218929   4.674   6.927   9.106
72364SOL     OW18930   2.521   1.509   4.792
72364SOL    HW118931   2.499   1.598   4.766
72364SOL    HW218932   2.574   1.520   4.871
72365SOL     OW18933   3.263   6.239   1.705
72365SOL    HW118934   3.172   6.270   1.703
72365SOL    HW218935   3.281   6.211   1.615
72366SOL     OW18936   9.054  10.942   7.401
72366SOL    HW118937   9.145  10.951   7.372
72366SOL    HW218938   9.005  10.923   7.321
72367SOL     OW18939   5.469   4.779  10.783
72367SOL    HW118940   5.463   4.875  10.791
72367SOL    HW218941   5.557   4.763  10.750
72368SOL     OW18942   8.634   7.755   7.402
72368SOL    HW118943   8.580   7.820   7.357
72368SOL    HW218944   8.707   7.805   7.437
72369SOL     OW18945   8.182  14.165  12.689
72369SOL    HW118946   8.233  14.244  12.706
72369SOL    HW218947   8.147  14.177  12.600
72370SOL     OW18948   8.962   2.208  13.572
72370SOL    HW118949   8.918   2.152  13.508
72370SOL    HW218950   8.926   2.181  13.657
72371SOL     OW18951  10.562   5.056  13.058
72371SOL    HW118952  10.516   5.136  13.033
72371SOL    HW218953  10.497   4.987  13.049
72372SOL     OW18954  14.282   3.861  11.434
72372SOL    HW118955  14.347   3.872  11.365
72372SOL    HW218956  14.234   3.783  11.409
72373SOL     OW18957  12.977   8.690   6.933
72373SOL    HW118958  12.938   8.642   6.861
72373SOL    HW218959  13.067   8.705   6.906
72374SOL     OW18960  14.566  12.148  11.517
72374SOL    HW118961  14.660  12.163  11.530
72374SOL    HW218962  14.533  12.128  11.605
72375SOL     OW18963   4.129   4.786  10.268
72375SOL    HW118964   4.140   4.732  10.346
72375SOL    HW218965   4.218   4.794  10.233
72376SOL     OW18966  13.257   3.943   4.772
72376SOL    HW118967  13.205   3.920   4.849
72376SOL    HW218968  13.198   3.995   4.718
72377SOL     OW18969   5.910   4.849   8.303
72377SOL    HW118970   5.944   4.771   8.346
72377SOL    HW218971   5.840   4.816   8.246
72378SOL     OW18972  12.955   9.947   1.547
72378SOL    HW118973  12.977   9.988   1.631
72378SOL    HW218974  13.035   9.905   1.519
72379SOL     OW18975   8.146   4.067   0.357
72379SOL    HW118976   8.111   4.059   0.268
72379SOL    HW218977   8.188   4.153   0.359
72380SOL     OW18978   1.852  13.209  11.158
72380SOL    HW118979   1.762  13.216  11.128
72380SOL    HW218980   1.905  13.230  11.081
72381SOL     OW18981   6.474   6.146  10.492
72381SOL    HW118982   6.476   6.162  10.587
72381SOL    HW218983   6.396   6.092  10.479
72382SOL     OW18984   4.996   7.029   1.168
72382SOL    HW118985   4.909   7.069   1.176
72382SOL    HW218986   5.023   7.012   1.258
72383SOL     OW18987  13.601   5.440  10.072
72383SOL    HW118988  13.506   5.424  10.071
72383SOL    HW218989  13.639   5.358  10.041
72384SOL     OW18990   9.498  12.830  11.316
72384SOL    HW118991   9.592  12.841  11.300
72384SOL    HW218992   9.461  12.814  11.229
72385SOL     OW18993   0.201  12.091   4.669
72385SOL    HW118994   0.129  12.046   4.714
72385SOL    HW218995   0.280  12.045   4.698
72386SOL     OW18996  13.740   3.017   5.536
72386SOL    HW118997  13.717   3.072   5.462
72386SOL    HW218998  13.835   3.011   5.534
72387SOL     OW18999  14.581   8.905  12.112
72387SOL    HW119000  14.634   8.904  12.192
72387SOL    HW219001  14.633   8.858  12.048
72388SOL     OW19002   8.024   9.385   2.204
72388SOL    HW119003   7.957   9.405   2.138
72388SOL    HW219004   8.057   9.298   2.181
72389SOL     OW19005   1.349  13.033   6.233
72389SOL    HW119006   1.347  13.118   6.275
72389SOL    HW219007   1.273  12.986   6.268
72390SOL     OW19008  10.635  12.657  12.825
72390SOL    HW119009  10.557  12.602  12.833
72390SOL    HW219010  10.617  12.714  12.751
72391SOL     OW19011  10.285   4.796   3.393
72391SOL    HW119012  10.359   4.737   3.378
72391SOL    HW219013  10.259   4.779   3.483
72392SOL     OW19014   4.560   0.289   2.702
72392SOL    HW119015   4.598   0.365   2.746
72392SOL    HW219016   4.466   0.295   2.718
72393SOL     OW19017   6.239   8.968   6.264
72393SOL    HW119018   6.298   8.944   6.336
72393SOL    HW219019   6.290   8.950   6.185
72394SOL     OW19020  13.285   9.251   5.146
72394SOL    HW119021  13.364   9.272   5.096
72394SOL    HW219022  13.318   9.207   5.224
72395SOL     OW19023  13.700  11.038  10.286
72395SOL    HW119024  13.714  11.099  10.213
72395SOL    HW219025  13.734  11.085  10.362
72396SOL     OW19026   5.017   0.553  11.903
72396SOL    HW119027   5.049   0.544  11.993
72396SOL    HW219028   4.931   0.596  11.912
72397SOL     OW19029   7.367   1.431  11.232
72397SOL    HW119030   7.323   1.516  11.233
72397SOL    HW219031   7.360   1.399  11.321
72398SOL     OW19032  13.172   9.189  13.744
72398SOL    HW119033  13.201   9.104  13.776
72398SOL    HW219034  13.138   9.233  13.822
72399SOL     OW19035   6.292   7.236  14.762
72399SOL    HW119036   6.209   7.276  14.788
72399SOL    HW219037   6.287   7.147  14.795
72400SOL     OW19038  13.547   5.007   8.510
72400SOL    HW119039  13.465   5.020   8.462
72400SOL    HW219040  13.520   5.001   8.601
72401SOL     OW19041   8.729  11.334  10.545
72401SOL    HW119042   8.694  11.423  10.543
72401SOL    HW219043   8.652  11.278  10.533
72402SOL     OW19044   5.559   4.862   8.057
72402SOL    HW119045   5.639   4.810   8.052
72402SOL    HW219046   5.589   4.953   8.067
72403SOL     OW19047   9.629  12.751   4.578
72403SOL    HW119048   9.656  12.816   4.513
72403SOL    HW219049   9.696  12.683   4.572
72404SOL     OW19050   0.135  11.049  12.310
72404SOL    HW119051   0.074  11.025  12.240
72404SOL    HW219052   0.222  11.034  12.273
72405SOL     OW19053   8.937   1.226   7.195
72405SOL    HW119054   8.907   1.294   7.255
72405SOL    HW219055   9.032   1.225   7.205
72406SOL     OW19056   1.752  14.582  13.410
72406SOL    HW119057   1.710  14.528  13.344
72406SOL    HW219058   1.841  14.547  13.418
72407SOL     OW19059   1.474   2.662  12.703
72407SOL    HW119060   1.562   2.653  12.741
72407SOL    HW219061   1.488   2.654  12.609
72408SOL     OW19062   8.098  10.412   3.308
72408SOL    HW119063   8.087  10.328   3.351
72408SOL    HW219064   8.178  10.402   3.256
72409SOL     OW19065  11.673   4.165   4.594
72409SOL    HW119066  11.710   4.243   4.635
72409SOL    HW219067  11.614   4.128   4.660
72410SOL     OW19068   5.474   5.854  10.687
72410SOL    HW119069   5.444   5.899  10.765
72410SOL    HW219070   5.471   5.761  10.709
72411SOL     OW19071  14.061   7.897   5.943
72411SOL    HW119072  14.074   7.988   5.969
72411SOL    HW219073  13.967   7.890   5.927
72412SOL     OW19074  14.353   7.040   7.735
72412SOL    HW119075  14.440   7.049   7.696
72412SOL    HW219076  14.329   6.948   7.720
72413SOL     OW19077  10.432   8.783  10.780
72413SOL    HW119078  10.513   8.833  10.786
72413SOL    HW219079  10.461   8.693  10.762
72414SOL     OW19080   0.353   6.397  12.419
72414SOL    HW119081   0.278   6.438  12.375
72414SOL    HW219082   0.320   6.311  12.445
72415SOL     OW19083   6.946  12.371   6.700
72415SOL    HW119084   6.881  12.442   6.705
72415SOL    HW219085   7.004  12.397   6.629
72416SOL     OW19086   2.171  12.059  11.000
72416SOL    HW119087   2.213  12.144  10.989
72416SOL    HW219088   2.231  12.009  11.056
72417SOL     OW19089  10.538  10.841   7.661
72417SOL    HW119090  10.481  10.890   7.720
72417SOL    HW219091  10.544  10.897   7.583
72418SOL     OW19092   9.026  12.535  13.362
72418SOL    HW119093   9.116  12.567  13.373
72418SOL    HW219094   9.031  12.475  13.287
72419SOL     OW19095   5.076   2.337   5.596
72419SOL    HW119096   5.031   2.276   5.655
72419SOL    HW219097   5.046   2.311   5.508
72420SOL     OW19098   8.855   6.866  11.975
72420SOL    HW119099   8.933   6.849  11.921
72420SOL    HW219100   8.890   6.876  12.064
72421SOL     OW19101   4.254   8.541  10.626
72421SOL    HW119102   4.166   8.562  10.594
72421SOL    HW219103   4.298   8.626  10.635
72422SOL     OW19104   2.637   5.470   8.490
72422SOL    HW119105   2.681   5.543   8.534
72422SOL    HW219106   2.554   5.460   8.537
72423SOL     OW19107  13.264   4.567   3.790
72423SOL    HW119108  13.236   4.658   3.781
72423SOL    HW219109  13.359   4.569   3.784
72424SOL     OW19110  11.809   8.624   5.818
72424SOL    HW119111  11.821   8.532   5.794
72424SOL    HW219112  11.897   8.655   5.838
72425SOL     OW19113   2.688   5.274   7.715
72425SOL    HW119114   2.769   5.246   7.672
72425SOL    HW219115   2.702   5.367   7.734
72426SOL     OW19116   2.895   9.575   6.980
72426SOL    HW119117   2.968   9.633   6.959
72426SOL    HW219118   2.925   9.488   6.955
72427SOL     OW19119   4.574   9.726  11.744
72427SOL    HW119120   4.601   9.634  11.742
72427SOL    HW219121   4.643   9.772  11.696
72428SOL     OW19122  11.123  14.011  10.841
72428SOL    HW119123  11.211  14.044  10.825
72428SOL    HW219124  11.088  14.069  10.909
72429SOL     OW19125   6.707   4.831  13.425
72429SOL    HW119126   6.658   4.752  13.449
72429SOL    HW219127   6.787   4.798  13.385
72430SOL     OW19128  12.637   5.772   8.316
72430SOL    HW119129  12.693   5.695   8.329
72430SOL    HW219130  12.697   5.842   8.292
72431SOL     OW19131   8.388   9.839   8.181
72431SOL    HW119132   8.392   9.917   8.124
72431SOL    HW219133   8.369   9.767   8.121
72432SOL     OW19134   1.553  11.532   4.738
72432SOL    HW119135   1.481  11.508   4.680
72432SOL    HW219136   1.522  11.612   4.781
72433SOL     OW19137   2.053   7.128  14.257
72433SOL    HW119138   2.081   7.067  14.189
72433SOL    HW219139   1.997   7.075  14.315
72434SOL     OW19140  10.066  14.242   6.821
72434SOL    HW119141  10.029  14.157   6.800
72434SOL    HW219142  10.012  14.275   6.893
72435SOL     OW19143   2.841   0.615   6.138
72435SOL    HW119144   2.879   0.541   6.090
72435SOL    HW219145   2.864   0.692   6.085
72436SOL     OW19146   6.006  11.667   9.017
72436SOL    HW119147   6.058  11.688   8.940
72436SOL    HW219148   6.003  11.572   9.021
72437SOL     OW19149  11.501  11.914   3.130
72437SOL    HW119150  11.528  11.985   3.188
72437SOL    HW219151  11.411  11.894   3.157
72438SOL     OW19152   8.504  13.549  11.564
72438SOL    HW119153   8.439  13.511  11.622
72438SOL    HW219154   8.454  13.588  11.492
72439SOL     OW19155  14.202   1.249   7.543
72439SOL    HW119156  14.147   1.253   7.464
72439SOL    HW219157  14.220   1.341   7.564
72440SOL     OW19158  12.516   4.708   5.945
72440SOL    HW119159  12.535   4.799   5.923
72440SOL    HW219160  12.499   4.709   6.039
72441SOL     OW19161   4.960   6.332  11.783
72441SOL    HW119162   4.991   6.405  11.729
72441SOL    HW219163   4.884   6.297  11.736
72442SOL     OW19164   6.380   8.462  10.966
72442SOL    HW119165   6.439   8.526  11.007
72442SOL    HW219166   6.294   8.504  10.968
72443SOL     OW19167   3.659   4.299   0.470
72443SOL    HW119168   3.746   4.261   0.486
72443SOL    HW219169   3.602   4.224   0.458
72444SOL     OW19170  11.532   3.035   6.292
72444SOL    HW119171  11.619   3.009   6.263
72444SOL    HW219172  11.485   3.056   6.211
72445SOL     OW19173   6.219   4.600  12.378
72445SOL    HW119174   6.167   4.679  12.363
72445SOL    HW219175   6.161   4.528  12.353
72446SOL     OW19176  10.667   0.930  11.399
72446SOL    HW119177  10.762   0.924  11.382
72446SOL    HW219178  10.628   0.873  11.334
72447SOL     OW19179   6.305   9.834  14.550
72447SOL    HW119180   6.373   9.828  14.483
72447SOL    HW219181   6.347   9.882  14.622
72448SOL     OW19182   1.388  10.590  13.464
72448SOL    HW119183   1.479  10.611  13.483
72448SOL    HW219184   1.348  10.674  13.441
72449SOL     OW19185   3.803  10.277   2.377
72449SOL    HW119186   3.814  10.227   2.296
72449SOL    HW219187   3.787  10.367   2.349
72450SOL     OW19188  13.648   0.242   5.485
72450SOL    HW119189  13.657   0.329   5.523
72450SOL    HW219190  13.713   0.189   5.531
72451SOL     OW19191   3.174  12.473  10.696
72451SOL    HW119192   3.180  12.557  10.742
72451SOL    HW219193   3.213  12.490  10.610
72452SOL     OW19194   1.144  12.930   9.094
72452SOL    HW119195   1.195  13.011   9.099
72452SOL    HW219196   1.206  12.865   9.061
72453SOL     OW19197   3.623   8.537   1.411
72453SOL    HW119198   3.653   8.625   1.389
72453SOL    HW219199   3.527   8.546   1.418
72454SOL     OW19200   0.360   3.252   5.729
72454SOL    HW119201   0.380   3.249   5.636
72454SOL    HW219202   0.264   3.256   5.733
72455SOL     OW19203  11.826   9.437   8.839
72455SOL    HW119204  11.734   9.448   8.867
72455SOL    HW219205  11.865   9.384   8.909
72456SOL     OW19206  11.008   3.514  11.132
72456SOL    HW119207  10.920   3.541  11.159
72456SOL    HW219208  11.060   3.517  11.212
72457SOL     OW19209   1.821   1.523   3.003
72457SOL    HW119210   1.876   1.601   3.010
72457SOL    HW219211   1.855   1.463   3.069
72458SOL     OW19212   6.285  11.341   4.732
72458SOL    HW119213   6.209  11.370   4.681
72458SOL    HW219214   6.344  11.304   4.667
72459SOL     OW19215   9.835  11.520   7.845
72459SOL    HW119216   9.909  11.506   7.785
72459SOL    HW219217   9.856  11.466   7.921
72460SOL     OW19218   5.627  14.516  10.797
72460SOL    HW119219   5.717  14.537  10.772
72460SOL    HW219220   5.633  14.431  10.840
72461SOL     OW19221   2.581   3.539   1.526
72461SOL    HW119222   2.675   3.518   1.525
72461SOL    HW219223   2.573   3.608   1.592
72462SOL     OW19224  13.761   8.737  13.531
72462SOL    HW119225  13.774   8.716  13.624
72462SOL    HW219226  13.668   8.757  13.524
72463SOL     OW19227   1.976   6.772   0.462
72463SOL    HW119228   2.054   6.826   0.474
72463SOL    HW219229   1.954   6.742   0.550
72464SOL     OW19230  14.274   3.540   9.028
72464SOL    HW119231  14.305   3.463   9.076
72464SOL    HW219232  14.228   3.592   9.093
72465SOL     OW19233   2.494   2.582   5.541
72465SOL    HW119234   2.444   2.501   5.551
72465SOL    HW219235   2.428   2.649   5.524
72466SOL     OW19236  11.274   4.362   0.273
72466SOL    HW119237  11.302   4.290   0.329
72466SOL    HW219238  11.215   4.322   0.210
72467SOL     OW19239   4.565  13.429   5.479
72467SOL    HW119240   4.553  13.476   5.562
72467SOL    HW219241   4.477  13.402   5.453
72468SOL     OW19242  13.724  11.396   9.228
72468SOL    HW119243  13.744  11.366   9.317
72468SOL    HW219244  13.804  11.377   9.178
72469SOL     OW19245   6.562  12.304   5.041
72469SOL    HW119246   6.643  12.261   5.070
72469SOL    HW219247   6.493  12.257   5.088
72470SOL     OW19248   1.131   3.772   3.569
72470SOL    HW119249   1.041   3.792   3.542
72470SOL    HW219250   1.126   3.684   3.606
72471SOL     OW19251   5.953  10.796  13.711
72471SOL    HW119252   5.877  10.753  13.751
72471SOL    HW219253   6.006  10.724  13.676
72472SOL     OW19254   3.250  10.147   6.390
72472SOL    HW119255   3.297  10.206   6.331
72472SOL    HW219256   3.162  10.141   6.354
72473SOL     OW19257  14.529   9.252  11.712
72473SOL    HW119258  14.614   9.293  11.701
72473SOL    HW219259  14.496   9.286  11.795
72474SOL     OW19260   0.387  12.001  14.451
72474SOL    HW119261   0.353  12.091  14.453
72474SOL    HW219262   0.314  11.950  14.415
72475SOL     OW19263   6.566   6.239   7.994
72475SOL    HW119264   6.489   6.189   8.023
72475SOL    HW219265   6.563   6.320   8.044
72476SOL     OW19266   3.592  11.104  13.116
72476SOL    HW119267   3.581  11.140  13.204
72476SOL    HW219268   3.579  11.009  13.127
72477SOL     OW19269   4.335  11.986   7.247
72477SOL    HW119270   4.426  12.013   7.233
72477SOL    HW219271   4.323  11.991   7.342
72478SOL     OW19272  14.259   3.688   0.580
72478SOL    HW119273  14.253   3.724   0.492
72478SOL    HW219274  14.353   3.679   0.596
72479SOL     OW19275  10.258   7.871   8.207
72479SOL    HW119276  10.172   7.830   8.215
72479SOL    HW219277  10.242   7.950   8.154
72480SOL     OW19278   9.001   9.209  11.496
72480SOL    HW119279   8.999   9.303  11.517
72480SOL    HW219280   9.093   9.184  11.505
72481SOL     OW19281  14.609  11.655   3.527
72481SOL    HW119282  14.539  11.675   3.589
72481SOL    HW219283  14.689  11.679   3.573
72482SOL     OW19284   4.255  13.551  13.274
72482SOL    HW119285   4.259  13.586  13.363
72482SOL    HW219286   4.219  13.462  13.285
72483SOL     OW19287   8.471   4.297   4.336
72483SOL    HW119288   8.433   4.240   4.402
72483SOL    HW219289   8.428   4.381   4.349
72484SOL     OW19290  13.936   3.181  12.041
72484SOL    HW119291  13.956   3.192  12.134
72484SOL    HW219292  13.886   3.259  12.017
72485SOL     OW19293  14.065   9.414   5.708
72485SOL    HW119294  14.116   9.368   5.774
72485SOL    HW219295  13.999   9.351   5.681
72486SOL     OW19296  13.500   7.047  13.934
72486SOL    HW119297  13.416   7.074  13.973
72486SOL    HW219298  13.520   7.117  13.872
72487SOL     OW19299  11.866   9.570  13.795
72487SOL    HW119300  11.871   9.564  13.890
72487SOL    HW219301  11.808   9.498  13.770
72488SOL     OW19302   1.821   6.160   5.850
72488SOL    HW119303   1.743   6.209   5.823
72488SOL    HW219304   1.801   6.069   5.826
72489SOL     OW19305  13.335  13.621  14.686
72489SOL    HW119306  13.416  13.638  14.734
72489SOL    HW219307  13.364  13.597  14.597
72490SOL     OW19308   0.206   7.977   2.929
72490SOL    HW119309   0.206   7.919   3.005
72490SOL    HW219310   0.158   8.055   2.958
72491SOL     OW19311   4.296   6.516   2.608
72491SOL    HW119312   4.317   6.466   2.687
72491SOL    HW219313   4.234   6.582   2.638
72492SOL     OW19314   1.320   1.833   5.355
72492SOL    HW119315   1.392   1.773   5.376
72492SOL    HW219316   1.250   1.808   5.416
72493SOL     OW19317   1.796   1.386  13.935
72493SOL    HW119318   1.776   1.336  14.014
72493SOL    HW219319   1.870   1.341  13.895
72494SOL     OW19320   6.388   5.181  12.184
72494SOL    HW119321   6.439   5.141  12.254
72494SOL    HW219322   6.337   5.250  12.228
72495SOL     OW19323   2.175   7.320  11.413
72495SOL    HW119324   2.227   7.251  11.454
72495SOL    HW219325   2.217   7.402  11.441
72496SOL     OW19326   7.548   7.001   2.682
72496SOL    HW119327   7.505   6.971   2.602
72496SOL    HW219328   7.508   6.949   2.752
72497SOL     OW19329   4.649  14.301  11.481
72497SOL    HW119330   4.593  14.368  11.441
72497SOL    HW219331   4.609  14.284  11.566
72498SOL     OW19332  13.718  14.356  14.767
72498SOL    HW119333  13.799  14.368  14.717
72498SOL    HW219334  13.664  14.299  14.712
72499SOL     OW19335   9.504   0.353   2.969
72499SOL    HW119336   9.440   0.373   3.038
72499SOL    HW219337   9.564   0.427   2.969
72500SOL     OW19338   4.982   7.368   5.530
72500SOL    HW119339   5.037   7.358   5.452
72500SOL    HW219340   4.930   7.288   5.533
72501SOL     OW19341   2.895   4.924   8.752
72501SOL    HW119342   2.910   4.839   8.711
72501SOL    HW219343   2.869   4.981   8.680
72502SOL     OW19344   3.439   8.017  10.600
72502SOL    HW119345   3.516   8.073  10.597
72502SOL    HW219346   3.448   7.961  10.523
72503SOL     OW19347   5.024   0.034  13.573
72503SOL    HW119348   5.063  14.856  13.502
72503SOL    HW219349   5.039  14.857  13.652
72504SOL     OW19350  13.299   8.812   8.468
72504SOL    HW119351  13.264   8.724   8.477
72504SOL    HW219352  13.313   8.824   8.374
72505SOL     OW19353   6.380   8.379   5.517
72505SOL    HW119354   6.386   8.434   5.439
72505SOL    HW219355   6.307   8.320   5.501
72506SOL     OW19356   2.015   1.845  10.529
72506SOL    HW119357   2.014   1.897  10.448
72506SOL    HW219358   1.927   1.809  10.536
72507SOL     OW19359  11.523   9.011   5.595
72507SOL    HW119360  11.573   9.041   5.519
72507SOL    HW219361  11.587   8.964   5.648
72508SOL     OW19362  13.788   4.981   7.604
72508SOL    HW119363  13.843   5.047   7.561
72508SOL    HW219364  13.750   5.027   7.679
72509SOL     OW19365  10.634   3.165   6.172
72509SOL    HW119366  10.597   3.240   6.125
72509SOL    HW219367  10.686   3.205   6.242
72510SOL     OW19368  13.487   5.954   4.535
72510SOL    HW119369  13.471   6.042   4.570
72510SOL    HW219370  13.536   5.910   4.605
72511SOL     OW19371  11.321   4.023   3.050
72511SOL    HW119372  11.378   4.016   3.126
72511SOL    HW219373  11.233   4.011   3.085
72512SOL     OW19374  11.964   3.450   4.748
72512SOL    HW119375  11.973   3.465   4.654
72512SOL    HW219376  12.040   3.397   4.771
72513SOL     OW19377   7.049   2.945   8.538
72513SOL    HW119378   7.082   2.906   8.457
72513SOL    HW219379   7.014   3.030   8.511
72514SOL     OW19380   0.721   4.392   8.254
72514SOL    HW119381   0.784   4.383   8.326
72514SOL    HW219382   0.644   4.344   8.285
72515SOL     OW19383   0.862  11.578   1.081
72515SOL    HW119384   0.882  11.484   1.089
72515SOL    HW219385   0.795  11.582   1.013
72516SOL     OW19386   1.566   3.684   2.026
72516SOL    HW119387   1.609   3.764   2.054
72516SOL    HW219388   1.514   3.657   2.102
72517SOL     OW19389   1.171  10.058  14.803
72517SOL    HW119390   1.252  10.040  14.756
72517SOL    HW219391   1.158  10.153  14.792
72518SOL     OW19392   4.392   1.043  12.457
72518SOL    HW119393   4.307   1.004  12.437
72518SOL    HW219394   4.427   1.068  12.372
72519SOL     OW19395   2.308   5.733   3.851
72519SOL    HW119396   2.248   5.782   3.796
72519SOL    HW219397   2.260   5.718   3.933
72520SOL     OW19398   4.417  12.472  12.572
72520SOL    HW119399   4.505  12.443  12.595
72520SOL    HW219400   4.415  12.471  12.477
72521SOL     OW19401   4.590   4.966   6.242
72521SOL    HW119402   4.665   4.937   6.191
72521SOL    HW219403   4.552   4.886   6.278
72522SOL     OW19404  11.417  12.661  10.435
72522SOL    HW119405  11.401  12.567  10.446
72522SOL    HW219406  11.375  12.683  10.353
72523SOL     OW19407  12.957  12.752  11.890
72523SOL    HW119408  12.903  12.750  11.969
72523SOL    HW219409  12.920  12.823  11.837
72524SOL     OW19410  11.058  10.637   0.127
72524SOL    HW119411  11.149  10.655   0.104
72524SOL    HW219412  11.050  10.542   0.119
72525SOL     OW19413   7.788  11.999   7.819
72525SOL    HW119414   7.874  12.040   7.811
72525SOL    HW219415   7.736  12.062   7.869
72526SOL     OW19416   0.075   5.721   8.047
72526SOL    HW119417  14.858   5.694   8.063
72526SOL    HW219418   0.076   5.749   7.956
72527SOL     OW19419   2.445  14.846   7.333
72527SOL    HW119420   2.500  14.772   7.361
72527SOL    HW219421   2.357  14.821   7.361
72528SOL     OW19422  11.624   2.567  10.269
72528SOL    HW119423  11.718   2.583  10.265
72528SOL    HW219424  11.610   2.521  10.352
72529SOL     OW19425   4.473   5.294   1.844
72529SOL    HW119426   4.561   5.327   1.862
72529SOL    HW219427   4.435   5.279   1.931
72530SOL     OW19428   5.189   4.965   9.508
72530SOL    HW119429   5.206   4.878   9.473
72530SOL    HW219430   5.108   4.955   9.559
72531SOL     OW19431  13.232  14.263   6.183
72531SOL    HW119432  13.159  14.319   6.210
72531SOL    HW219433  13.201  14.174   6.198
72532SOL     OW19434  14.140   2.610  10.074
72532SOL    HW119435  14.052   2.610  10.114
72532SOL    HW219436  14.190   2.672  10.127
72533SOL     OW19437   2.835   8.957   7.530
72533SOL    HW119438   2.795   8.877   7.497
72533SOL    HW219439   2.909   8.927   7.582
72534SOL     OW19440  10.244   5.734   3.806
72534SOL    HW119441  10.204   5.711   3.890
72534SOL    HW219442  10.331   5.694   3.809
72535SOL     OW19443   3.946  12.690   8.156
72535SOL    HW119444   3.864  12.740   8.166
72535SOL    HW219445   3.947  12.663   8.065
72536SOL     OW19446  10.711  10.634   4.692
72536SOL    HW119447  10.776  10.565   4.708
72536SOL    HW219448  10.731  10.701   4.757
72537SOL     OW19449   7.156  11.627   2.958
72537SOL    HW119450   7.063  11.649   2.961
72537SOL    HW219451   7.201  11.702   2.997
72538SOL     OW19452   1.063  13.388   8.112
72538SOL    HW119453   1.057  13.422   8.023
72538SOL    HW219454   1.011  13.447   8.166
72539SOL     OW19455  10.375   0.792   3.752
72539SOL    HW119456  10.448   0.839   3.792
72539SOL    HW219457  10.367   0.829   3.664
72540SOL     OW19458   8.663  13.136   0.798
72540SOL    HW119459   8.612  13.134   0.717
72540SOL    HW219460   8.633  13.060   0.847
72541SOL     OW19461  14.861  11.679   4.681
72541SOL    HW119462   0.024  11.674   4.593
72541SOL    HW219463   0.002  11.769   4.708
72542SOL     OW19464   5.808  14.659   9.156
72542SOL    HW119465   5.831  14.726   9.091
72542SOL    HW219466   5.884  14.600   9.157
72543SOL     OW19467   3.916   5.307  11.163
72543SOL    HW119468   3.991   5.302  11.222
72543SOL    HW219469   3.854   5.365  11.208
72544SOL     OW19470   6.690   8.204   3.328
72544SOL    HW119471   6.778   8.176   3.304
72544SOL    HW219472   6.648   8.223   3.244
72545SOL     OW19473  14.320   9.518   4.412
72545SOL    HW119474  14.318   9.483   4.323
72545SOL    HW219475  14.406   9.494   4.446
72546SOL     OW19476   4.391  14.105   2.281
72546SOL    HW119477   4.474  14.068   2.251
72546SOL    HW219478   4.368  14.169   2.214
72547SOL     OW19479  11.322   0.150   3.760
72547SOL    HW119480  11.246   0.187   3.715
72547SOL    HW219481  11.326   0.059   3.731
72548SOL     OW19482  11.918  10.727  10.089
72548SOL    HW119483  11.968  10.724  10.008
72548SOL    HW219484  11.907  10.635  10.114
72549SOL     OW19485   8.675   9.519   4.185
72549SOL    HW119486   8.672   9.479   4.271
72549SOL    HW219487   8.729   9.460   4.133
72550SOL     OW19488   5.726   5.640  13.459
72550SOL    HW119489   5.636   5.621  13.485
72550SOL    HW219490   5.739   5.590  13.378
72551SOL     OW19491   2.667  13.553   4.379
72551SOL    HW119492   2.614  13.512   4.310
72551SOL    HW219493   2.682  13.643   4.347
72552SOL     OW19494   3.534   6.300   2.515
72552SOL    HW119495   3.605   6.292   2.451
72552SOL    HW219496   3.463   6.247   2.479
72553SOL     OW19497   7.737   8.726   1.563
72553SOL    HW119498   7.644   8.707   1.577
72553SOL    HW219499   7.782   8.683   1.635
72554SOL     OW19500   8.652   9.191   8.845
72554SOL    HW119501   8.693   9.220   8.763
72554SOL    HW219502   8.678   9.100   8.854
72555SOL     OW19503   8.578   1.210   1.911
72555SOL    HW119504   8.663   1.201   1.867
72555SOL    HW219505   8.588   1.161   1.993
72556SOL     OW19506  13.199  13.599   7.226
72556SOL    HW119507  13.180  13.516   7.270
72556SOL    HW219508  13.225  13.575   7.138
72557SOL     OW19509   1.487   0.393   2.779
72557SOL    HW119510   1.473   0.485   2.803
72557SOL    HW219511   1.544   0.396   2.702
72558SOL     OW19512   7.337  12.653   1.819
72558SOL    HW119513   7.306  12.563   1.829
72558SOL    HW219514   7.399  12.666   1.891
72559SOL     OW19515   8.164  12.073   5.571
72559SOL    HW119516   8.154  12.165   5.596
72559SOL    HW219517   8.119  12.024   5.640
72560SOL     OW19518   9.625   5.711   7.854
72560SOL    HW119519   9.694   5.754   7.904
72560SOL    HW219520   9.652   5.720   7.763
72561SOL     OW19521   9.353   9.400  14.171
72561SOL    HW119522   9.302   9.319  14.176
72561SOL    HW219523   9.444   9.372  14.175
72562SOL     OW19524  14.377   7.010  10.186
72562SOL    HW119525  14.350   6.961  10.109
72562SOL    HW219526  14.466   6.979  10.205
72563SOL     OW19527   9.352  12.213  10.498
72563SOL    HW119528   9.425  12.176  10.549
72563SOL    HW219529   9.280  12.217  10.561
72564SOL     OW19530  10.564   0.099   2.266
72564SOL    HW119531  10.497   0.165   2.284
72564SOL    HW219532  10.531   0.054   2.188
72565SOL     OW19533  11.118   2.905   2.817
72565SOL    HW119534  11.196   2.931   2.769
72565SOL    HW219535  11.081   2.987   2.850
72566SOL     OW19536  12.844   3.150   1.764
72566SOL    HW119537  12.839   3.245   1.747
72566SOL    HW219538  12.934   3.137   1.796
72567SOL     OW19539   1.160   0.764   8.070
72567SOL    HW119540   1.160   0.669   8.063
72567SOL    HW219541   1.150   0.782   8.163
72568SOL     OW19542   2.086  12.360  14.595
72568SOL    HW119543   2.114  12.436  14.544
72568SOL    HW219544   2.166  12.333  14.642
72569SOL     OW19545   3.508   6.981  12.385
72569SOL    HW119546   3.522   7.072  12.412
72569SOL    HW219547   3.577   6.964  12.321
72570SOL     OW19548   8.207  11.767   5.795
72570SOL    HW119549   8.141  11.833   5.815
72570SOL    HW219550   8.163  11.684   5.811
72571SOL     OW19551  14.086   1.292  12.200
72571SOL    HW119552  14.155   1.350  12.166
72571SOL    HW219553  14.008   1.316  12.150
72572SOL     OW19554   8.941   5.187  10.211
72572SOL    HW119555   8.958   5.097  10.242
72572SOL    HW219556   8.981   5.190  10.124
72573SOL     OW19557   5.052  12.303  14.675
72573SOL    HW119558   5.111  12.316  14.749
72573SOL    HW219559   4.986  12.241  14.707
72574SOL     OW19560   9.602  10.603   8.405
72574SOL    HW119561   9.685  10.636   8.370
72574SOL    HW219562   9.598  10.512   8.375
72575SOL     OW19563   3.024   5.350   3.577
72575SOL    HW119564   3.061   5.427   3.620
72575SOL    HW219565   2.971   5.385   3.505
72576SOL     OW19566   7.006  13.980  14.753
72576SOL    HW119567   7.010  13.996  14.659
72576SOL    HW219568   7.043  13.892  14.765
72577SOL     OW19569  12.666   2.962   3.056
72577SOL    HW119570  12.723   3.020   3.106
72577SOL    HW219571  12.726   2.903   3.009
72578SOL     OW19572  11.112  13.591  13.927
72578SOL    HW119573  11.063  13.564  14.005
72578SOL    HW219574  11.161  13.513  13.902
72579SOL     OW19575   5.537   1.396  11.295
72579SOL    HW119576   5.473   1.325  11.302
72579SOL    HW219577   5.488   1.469  11.257
72580SOL     OW19578   8.060   9.803   7.235
72580SOL    HW119579   8.100   9.746   7.169
72580SOL    HW219580   8.095   9.773   7.318
72581SOL     OW19581  13.758   3.303   5.828
72581SOL    HW119582  13.768   3.357   5.906
72581SOL    HW219583  13.823   3.337   5.767
72582SOL     OW19584  12.776   6.988  12.404
72582SOL    HW119585  12.729   7.044  12.342
72582SOL    HW219586  12.865   7.024  12.406
72583SOL     OW19587   7.493   5.721   0.001
72583SOL    HW119588   7.587   5.738   0.007
72583SOL    HW219589   7.452   5.797   0.043
72584SOL     OW19590  11.914   6.840   3.508
72584SOL    HW119591  11.850   6.769   3.500
72584SOL    HW219592  11.918   6.858   3.601
72585SOL     OW19593  12.512   2.914  12.640
72585SOL    HW119594  12.593   2.878  12.677
72585SOL    HW219595  12.541   2.979  12.576
72586SOL     OW19596   9.723   4.212   7.689
72586SOL    HW119597   9.644   4.260   7.715
72586SOL    HW219598   9.793   4.277   7.696
72587SOL     OW19599   9.189   3.093   7.125
72587SOL    HW119600   9.279   3.064   7.142
72587SOL    HW219601   9.183   3.096   7.029
72588SOL     OW19602  12.026   4.609   8.284
72588SOL    HW119603  12.009   4.639   8.373
72588SOL    HW219604  12.111   4.564   8.290
72589SOL     OW19605  10.562  10.303   6.308
72589SOL    HW119606  10.523  10.273   6.226
72589SOL    HW219607  10.498  10.364   6.344
72590SOL     OW19608   8.620   9.520  14.258
72590SOL    HW119609   8.676   9.576  14.204
72590SOL    HW219610   8.653   9.532  14.347
72591SOL     OW19611   6.541   3.908  13.040
72591SOL    HW119612   6.528   3.819  13.073
72591SOL    HW219613   6.515   3.964  13.114
72592SOL     OW19614  10.537   1.416   5.812
72592SOL    HW119615  10.537   1.392   5.904
72592SOL    HW219616  10.446   1.442   5.794
72593SOL     OW19617   1.114  10.043   6.187
72593SOL    HW119618   1.191   9.992   6.213
72593SOL    HW219619   1.049  10.022   6.254
72594SOL     OW19620   7.081   7.293   8.736
72594SOL    HW119621   7.063   7.387   8.734
72594SOL    HW219622   7.064   7.264   8.647
72595SOL     OW19623  13.369   9.550   0.198
72595SOL    HW119624  13.372   9.454   0.199
72595SOL    HW219625  13.294   9.571   0.143
72596SOL     OW19626  10.436   2.889  10.151
72596SOL    HW119627  10.504   2.822  10.151
72596SOL    HW219628  10.405   2.891  10.060
72597SOL     OW19629  13.622  12.105   8.558
72597SOL    HW119630  13.565  12.031   8.573
72597SOL    HW219631  13.638  12.141   8.645
72598SOL     OW19632   5.749   6.521   5.726
72598SOL    HW119633   5.724   6.500   5.816
72598SOL    HW219634   5.668   6.552   5.686
72599SOL     OW19635   2.920  11.987   6.206
72599SOL    HW119636   2.938  11.898   6.238
72599SOL    HW219637   3.005  12.031   6.207
72600SOL     OW19638  12.626   2.303   9.947
72600SOL    HW119639  12.560   2.369   9.925
72600SOL    HW219640  12.699   2.354   9.982
72601SOL     OW19641  13.472   2.174  13.024
72601SOL    HW119642  13.520   2.173  12.940
72601SOL    HW219643  13.381   2.186  12.999
72602SOL     OW19644  10.122  12.980  11.029
72602SOL    HW119645  10.172  13.003  11.108
72602SOL    HW219646  10.039  13.025  11.040
72603SOL     OW19647   2.304  12.182   8.760
72603SOL    HW119648   2.263  12.257   8.719
72603SOL    HW219649   2.237  12.114   8.758
72604SOL     OW19650   4.406   8.828  13.089
72604SOL    HW119651   4.462   8.850  13.014
72604SOL    HW219652   4.462   8.773  13.145
72605SOL     OW19653  12.156   4.575   6.029
72605SOL    HW119654  12.094   4.557   6.100
72605SOL    HW219655  12.134   4.512   5.961
72606SOL     OW19656   2.234   7.431   4.700
72606SOL    HW119657   2.327   7.409   4.689
72606SOL    HW219658   2.223   7.440   4.795
72607SOL     OW19659  13.236  11.386   3.993
72607SOL    HW119660  13.325  11.420   3.984
72607SOL    HW219661  13.194  11.445   4.056
72608SOL     OW19662  10.605   8.413  14.390
72608SOL    HW119663  10.601   8.405  14.486
72608SOL    HW219664  10.640   8.501  14.375
72609SOL     OW19665   5.780   2.100  11.187
72609SOL    HW119666   5.747   2.189  11.204
72609SOL    HW219667   5.710   2.057  11.138
72610SOL     OW19668   5.309   4.267   2.083
72610SOL    HW119669   5.254   4.258   2.161
72610SOL    HW219670   5.300   4.358   2.057
72611SOL     OW19671   6.378   3.144  11.190
72611SOL    HW119672   6.345   3.141  11.100
72611SOL    HW219673   6.463   3.187  11.183
72612SOL     OW19674   8.492   2.555  10.403
72612SOL    HW119675   8.465   2.622  10.465
72612SOL    HW219676   8.420   2.492  10.402
72613SOL     OW19677   7.499   7.254   5.608
72613SOL    HW119678   7.461   7.341   5.598
72613SOL    HW219679   7.568   7.250   5.542
72614SOL     OW19680   5.488   5.340  13.737
72614SOL    HW119681   5.439   5.344  13.819
72614SOL    HW219682   5.580   5.342  13.764
72615SOL     OW19683   4.026  11.638  12.115
72615SOL    HW119684   3.991  11.632  12.026
72615SOL    HW219685   4.028  11.732  12.134
72616SOL     OW19686   6.813  11.136   4.626
72616SOL    HW119687   6.764  11.185   4.692
72616SOL    HW219688   6.753  11.130   4.551
72617SOL     OW19689   1.530  13.674   9.507
72617SOL    HW119690   1.540  13.607   9.439
72617SOL    HW219691   1.520  13.756   9.459
72618SOL     OW19692  11.511   6.589   3.862
72618SOL    HW119693  11.519   6.653   3.792
72618SOL    HW219694  11.423   6.602   3.897
72619SOL     OW19695   9.517   4.281   7.861
72619SOL    HW119696   9.438   4.266   7.808
72619SOL    HW219697   9.496   4.244   7.947
72620SOL     OW19698  14.776   8.878  10.379
72620SOL    HW119699  14.733   8.898  10.296
72620SOL    HW219700  14.831   8.802  10.359
72621SOL     OW19701   0.646  13.819   3.271
72621SOL    HW119702   0.739  13.802   3.256
72621SOL    HW219703   0.601  13.772   3.201
72622SOL     OW19704   9.038   9.221   8.183
72622SOL    HW119705   9.018   9.309   8.153
72622SOL    HW219706   9.005   9.164   8.113
72623SOL     OW19707   5.765  13.705  14.805
72623SOL    HW119708   5.842  13.649  14.816
72623SOL    HW219709   5.733  13.684  14.717
72624SOL     OW19710   6.113  12.737  12.489
72624SOL    HW119711   6.137  12.729  12.397
72624SOL    HW219712   6.098  12.831  12.503
72625SOL     OW19713   5.921  13.456  12.600
72625SOL    HW119714   5.937  13.365  12.623
72625SOL    HW219715   5.835  13.456  12.558
72626SOL     OW19716  10.440   4.563  14.266
72626SOL    HW119717  10.476   4.624  14.203
72626SOL    HW219718  10.488   4.581  14.347
72627SOL     OW19719   0.029   5.920  11.883
72627SOL    HW119720   0.003   5.906  11.974
72627SOL    HW219721   0.076   5.840  11.859
72628SOL     OW19722  11.968   9.584   7.867
72628SOL    HW119723  11.940   9.495   7.890
72628SOL    HW219724  11.994   9.579   7.775
72629SOL     OW19725   8.958   9.645   0.552
72629SOL    HW119726   8.924   9.556   0.549
72629SOL    HW219727   8.882   9.701   0.536
72630SOL     OW19728   5.643  13.151   2.385
72630SOL    HW119729   5.731  13.114   2.372
72630SOL    HW219730   5.651  13.242   2.355
72631SOL     OW19731   6.827   8.092   8.318
72631SOL    HW119732   6.775   8.094   8.399
72631SOL    HW219733   6.868   8.005   8.319
72632SOL     OW19734   4.876  10.373  13.943
72632SOL    HW119735   4.817  10.402  14.014
72632SOL    HW219736   4.873  10.278  13.947
72633SOL     OW19737   7.834   5.998   3.145
72633SOL    HW119738   7.840   6.091   3.167
72633SOL    HW219739   7.793   5.996   3.059
72634SOL     OW19740   8.447   2.019   9.084
72634SOL    HW119741   8.467   2.067   9.165
72634SOL    HW219742   8.444   1.927   9.112
72635SOL     OW19743  14.568  14.210   9.404
72635SOL    HW119744  14.514  14.167   9.471
72635SOL    HW219745  14.608  14.137   9.356
72636SOL     OW19746   3.245  11.534   5.087
72636SOL    HW119747   3.153  11.517   5.107
72636SOL    HW219748   3.275  11.454   5.044
72637SOL     OW19749  12.916  13.256  12.971
72637SOL    HW119750  12.970  13.178  12.959
72637SOL    HW219751  12.956  13.322  12.915
72638SOL     OW19752  12.132   8.406   3.128
72638SOL    HW119753  12.155   8.320   3.161
72638SOL    HW219754  12.048   8.427   3.169
72639SOL     OW19755   5.902  11.754  14.091
72639SOL    HW119756   5.948  11.835  14.069
72639SOL    HW219757   5.859  11.772  14.174
72640SOL     OW19758   5.898   3.635   0.370
72640SOL    HW119759   5.848   3.670   0.444
72640SOL    HW219760   5.882   3.697   0.299
72641SOL     OW19761   6.631  12.216   8.470
72641SOL    HW119762   6.619  12.301   8.429
72641SOL    HW219763   6.684  12.166   8.408
72642SOL     OW19764  14.559  10.335   6.412
72642SOL    HW119765  14.474  10.293   6.401
72642SOL    HW219766  14.540  10.429   6.414
72643SOL     OW19767   1.248   8.142  10.007
72643SOL    HW119768   1.262   8.071   9.944
72643SOL    HW219769   1.336   8.175  10.025
72644SOL     OW19770   9.818   5.639  13.042
72644SOL    HW119771   9.763   5.597  12.975
72644SOL    HW219772   9.809   5.733  13.025
72645SOL     OW19773   7.728   3.078   3.901
72645SOL    HW119774   7.668   3.096   3.828
72645SOL    HW219775   7.805   3.038   3.860
72646SOL     OW19776   2.721   0.338  12.318
72646SOL    HW119777   2.797   0.326  12.261
72646SOL    HW219778   2.666   0.262  12.301
72647SOL     OW19779   9.906   4.701   9.273
72647SOL    HW119780   9.825   4.698   9.222
72647SOL    HW219781   9.877   4.700   9.364
72648SOL     OW19782   5.022   8.132   8.121
72648SOL    HW119783   5.045   8.074   8.194
72648SOL    HW219784   5.078   8.103   8.049
72649SOL     OW19785  11.691   0.294   9.791
72649SOL    HW119786  11.743   0.350   9.848
72649SOL    HW219787  11.670   0.349   9.715
72650SOL     OW19788   7.753  10.200  11.197
72650SOL    HW119789   7.783  10.196  11.288
72650SOL    HW219790   7.788  10.283  11.164
72651SOL     OW19791   3.729  10.715   3.258
72651SOL    HW119792   3.694  10.671   3.181
72651SOL    HW219793   3.659  10.709   3.323
72652SOL     OW19794   3.704  13.347   7.986
72652SOL    HW119795   3.711  13.392   8.070
72652SOL    HW219796   3.773  13.281   7.989
72653SOL     OW19797  14.852   6.814  10.502
72653SOL    HW119798  14.769   6.806  10.455
72653SOL    HW219799   0.019   6.892  10.465
72654SOL     OW19800   0.621  12.030   6.724
72654SOL    HW119801   0.651  11.940   6.717
72654SOL    HW219802   0.614  12.060   6.634
72655SOL     OW19803  11.037  13.322  11.686
72655SOL    HW119804  11.031  13.271  11.605
72655SOL    HW219805  11.038  13.413  11.658
72656SOL     OW19806  10.627   0.259  10.931
72656SOL    HW119807  10.687   0.197  10.975
72656SOL    HW219808  10.584   0.206  10.864
72657SOL     OW19809   2.485   4.493   3.428
72657SOL    HW119810   2.488   4.410   3.475
72657SOL    HW219811   2.404   4.489   3.376
72658SOL     OW19812   5.441   6.394   9.779
72658SOL    HW119813   5.504   6.324   9.762
72658SOL    HW219814   5.475   6.438   9.857
72659SOL     OW19815   2.545  12.391  12.618
72659SOL    HW119816   2.637  12.415  12.604
72659SOL    HW219817   2.504  12.398  12.532
72660SOL     OW19818  11.222   5.882   3.465
72660SOL    HW119819  11.290   5.856   3.528
72660SOL    HW219820  11.265   5.946   3.408
72661SOL     OW19821   6.115  10.932   8.481
72661SOL    HW119822   6.209  10.911   8.475
72661SOL    HW219823   6.105  10.971   8.567
72662SOL     OW19824  12.342   2.930   4.802
72662SOL    HW119825  12.318   2.983   4.726
72662SOL    HW219826  12.299   2.972   4.876
72663SOL     OW19827  13.539  14.130   8.590
72663SOL    HW119828  13.538  14.188   8.513
72663SOL    HW219829  13.591  14.055   8.562
72664SOL     OW19830   7.479   5.194  10.117
72664SOL    HW119831   7.492   5.194  10.211
72664SOL    HW219832   7.413   5.125  10.102
72665SOL     OW19833  10.196  10.900   7.133
72665SOL    HW119834  10.173  10.970   7.195
72665SOL    HW219835  10.114  10.882   7.087
72666SOL     OW19836  10.054   0.733   7.119
72666SOL    HW119837  10.076   0.682   7.196
72666SOL    HW219838  10.034   0.668   7.052
72667SOL     OW19839   2.179  13.097  12.782
72667SOL    HW119840   2.247  13.030  12.791
72667SOL    HW219841   2.216  13.161  12.721
72668SOL     OW19842  10.438  13.853  10.785
72668SOL    HW119843  10.496  13.844  10.860
72668SOL    HW219844  10.494  13.886  10.715
72669SOL     OW19845   0.633  10.191   3.742
72669SOL    HW119846   0.601  10.121   3.685
72669SOL    HW219847   0.578  10.267   3.722
72670SOL     OW19848   2.466   1.206   4.324
72670SOL    HW119849   2.477   1.294   4.362
72670SOL    HW219850   2.436   1.152   4.397
72671SOL     OW19851   9.041   9.478   8.395
72671SOL    HW119852   8.951   9.498   8.420
72671SOL    HW219853   9.079   9.435   8.472
72672SOL     OW19854   1.387   4.349   4.848
72672SOL    HW119855   1.308   4.376   4.801
72672SOL    HW219856   1.458   4.399   4.808
72673SOL     OW19857   2.596   5.587  12.513
72673SOL    HW119858   2.611   5.524  12.584
72673SOL    HW219859   2.501   5.582  12.497
72674SOL     OW19860   8.788   6.511   5.911
72674SOL    HW119861   8.773   6.605   5.904
72674SOL    HW219862   8.883   6.502   5.925
72675SOL     OW19863   4.222   8.943   7.162
72675SOL    HW119864   4.256   8.853   7.169
72675SOL    HW219865   4.127   8.933   7.170
72676SOL     OW19866  12.146   4.310   9.127
72676SOL    HW119867  12.078   4.310   9.195
72676SOL    HW219868  12.227   4.328   9.175
72677SOL     OW19869   0.201   4.682   8.542
72677SOL    HW119870   0.160   4.649   8.462
72677SOL    HW219871   0.286   4.716   8.513
72678SOL     OW19872   4.330   2.048   4.922
72678SOL    HW119873   4.395   2.029   4.989
72678SOL    HW219874   4.374   2.029   4.839
72679SOL     OW19875   0.330  10.054   4.564
72679SOL    HW119876   0.350   9.964   4.540
72679SOL    HW219877   0.294  10.093   4.484
72680SOL     OW19878   3.651   9.395  13.119
72680SOL    HW119879   3.700   9.403  13.037
72680SOL    HW219880   3.562   9.373  13.092
72681SOL     OW19881  14.192   7.802  11.032
72681SOL    HW119882  14.215   7.829  10.943
72681SOL    HW219883  14.270   7.822  11.084
72682SOL     OW19884  14.648  13.662   1.207
72682SOL    HW119885  14.556  13.661   1.179
72682SOL    HW219886  14.698  13.657   1.126
72683SOL     OW19887  12.462   1.447   6.718
72683SOL    HW119888  12.412   1.504   6.660
72683SOL    HW219889  12.551   1.447   6.682
72684SOL     OW19890  14.753   9.603  12.206
72684SOL    HW119891  14.659   9.611  12.192
72684SOL    HW219892  14.782   9.541  12.139
72685SOL     OW19893   2.194   1.590   5.760
72685SOL    HW119894   2.160   1.679   5.751
72685SOL    HW219895   2.288   1.599   5.749
72686SOL     OW19896   5.949   4.592   5.753
72686SOL    HW119897   5.891   4.598   5.830
72686SOL    HW219898   5.955   4.681   5.720
72687SOL     OW19899   7.194  14.226   4.648
72687SOL    HW119900   7.260  14.216   4.580
72687SOL    HW219901   7.163  14.138   4.665
72688SOL     OW19902  10.479  13.296   4.063
72688SOL    HW119903  10.396  13.341   4.052
72688SOL    HW219904  10.507  13.316   4.152
72689SOL     OW19905   4.839  10.087  13.724
72689SOL    HW119906   4.928  10.051  13.720
72689SOL    HW219907   4.821  10.095  13.818
72690SOL     OW19908   1.055   9.367  13.785
72690SOL    HW119909   1.138   9.407  13.759
72690SOL    HW219910   1.057   9.370  13.881
72691SOL     OW19911  14.384  14.603  10.087
72691SOL    HW119912  14.453  14.538  10.075
72691SOL    HW219913  14.366  14.637  10.000
72692SOL     OW19914   4.500   2.537   6.862
72692SOL    HW119915   4.556   2.473   6.906
72692SOL    HW219916   4.546   2.620   6.870
72693SOL     OW19917  13.367  10.537  12.414
72693SOL    HW119918  13.344  10.451  12.449
72693SOL    HW219919  13.384  10.591  12.491
72694SOL     OW19920  10.800  13.877  10.865
72694SOL    HW119921  10.842  13.796  10.838
72694SOL    HW219922  10.871  13.941  10.871
72695SOL     OW19923  12.005  13.674   8.973
72695SOL    HW119924  11.933  13.674   9.037
72695SOL    HW219925  12.069  13.613   9.009
72696SOL     OW19926   9.743  12.069   1.499
72696SOL    HW119927   9.723  12.036   1.412
72696SOL    HW219928   9.839  12.073   1.502
72697SOL     OW19929  10.275   1.876  12.510
72697SOL    HW119930  10.309   1.964  12.498
72697SOL    HW219931  10.348   1.827  12.550
72698SOL     OW19932  14.548   7.657   6.612
72698SOL    HW119933  14.544   7.714   6.535
72698SOL    HW219934  14.465   7.611   6.612
72699SOL     OW19935   1.838  12.978   3.797
72699SOL    HW119936   1.773  13.049   3.794
72699SOL    HW219937   1.921  13.023   3.809
72700SOL     OW19938   0.445  13.866  12.212
72700SOL    HW119939   0.379  13.911  12.160
72700SOL    HW219940   0.451  13.778  12.173
72701SOL     OW19941   7.320   2.804  12.809
72701SOL    HW119942   7.251   2.854  12.765
72701SOL    HW219943   7.375   2.771  12.739
72702SOL     OW19944   4.856   3.222   3.212
72702SOL    HW119945   4.877   3.131   3.233
72702SOL    HW219946   4.940   3.261   3.188
72703SOL     OW19947  10.261   6.252  13.587
72703SOL    HW119948  10.297   6.338  13.566
72703SOL    HW219949  10.290   6.236  13.677
72704SOL     OW19950  14.283   5.758   5.519
72704SOL    HW119951  14.295   5.776   5.613
72704SOL    HW219952  14.191   5.778   5.503
72705SOL     OW19953   5.746   8.761  12.448
72705SOL    HW119954   5.829   8.720  12.423
72705SOL    HW219955   5.702   8.696  12.501
72706SOL     OW19956   2.254  14.170  14.266
72706SOL    HW119957   2.243  14.249  14.213
72706SOL    HW219958   2.174  14.166  14.319
72707SOL     OW19959   3.444   7.280   7.474
72707SOL    HW119960   3.420   7.372   7.462
72707SOL    HW219961   3.474   7.251   7.388
72708SOL     OW19962   9.971   2.194   0.094
72708SOL    HW119963   9.946   2.284   0.073
72708SOL    HW219964   9.921   2.174   0.173
72709SOL     OW19965   5.586   8.462   1.526
72709SOL    HW119966   5.569   8.549   1.490
72709SOL    HW219967   5.635   8.478   1.607
72710SOL     OW19968   0.637  11.012   3.875
72710SOL    HW119969   0.703  10.947   3.899
72710SOL    HW219970   0.687  11.082   3.833
72711SOL     OW19971   3.575  10.230   1.418
72711SOL    HW119972   3.608  10.290   1.351
72711SOL    HW219973   3.489  10.265   1.442
72712SOL     OW19974   0.704   6.627  12.324
72712SOL    HW119975   0.723   6.561  12.391
72712SOL    HW219976   0.776   6.618  12.261
72713SOL     OW19977   2.987  11.477   7.576
72713SOL    HW119978   3.039  11.521   7.509
72713SOL    HW219979   2.954  11.398   7.533
72714SOL     OW19980   8.446  14.344   5.868
72714SOL    HW119981   8.362  14.301   5.854
72714SOL    HW219982   8.461  14.338   5.962
72715SOL     OW19983   1.753   8.432  14.254
72715SOL    HW119984   1.806   8.424  14.334
72715SOL    HW219985   1.702   8.351  14.251
72716SOL     OW19986  13.637   6.191   6.275
72716SOL    HW119987  13.697   6.244   6.327
72716SOL    HW219988  13.688   6.165   6.198
72717SOL     OW19989   2.917   8.341   9.186
72717SOL    HW119990   2.920   8.419   9.130
72717SOL    HW219991   2.996   8.292   9.163
72718SOL     OW19992   8.782   4.175  14.154
72718SOL    HW119993   8.825   4.260  14.167
72718SOL    HW219994   8.848   4.111  14.180
72719SOL     OW19995   4.278   5.805  12.889
72719SOL    HW119996   4.315   5.889  12.915
72719SOL    HW219997   4.210   5.788  12.955
72720SOL     OW19998  14.295  14.577  11.680
72720SOL    HW119999  14.269  14.621  11.761
72720SOL    HW220000  14.246  14.495  11.681
72721SOL     OW20001   3.798   6.755   7.857
72721SOL    HW120002   3.789   6.683   7.919
72721SOL    HW220003   3.848   6.821   7.905
72722SOL     OW20004   2.359  10.760   1.197
72722SOL    HW120005   2.377  10.678   1.243
72722SOL    HW220006   2.444  10.788   1.164
72723SOL     OW20007   8.748   4.090   7.669
72723SOL    HW120008   8.777   4.162   7.614
72723SOL    HW220009   8.774   4.011   7.622
72724SOL     OW20010   5.185  12.192   5.350
72724SOL    HW120011   5.213  12.112   5.393
72724SOL    HW220012   5.256  12.214   5.291
72725SOL     OW20013   8.256  10.781  10.505
72725SOL    HW120014   8.292  10.726  10.435
72725SOL    HW220015   8.274  10.871  10.476
72726SOL     OW20016   1.739   6.543  10.084
72726SOL    HW120017   1.829   6.547  10.118
72726SOL    HW220018   1.737   6.461  10.033
72727SOL     OW20019  11.395   6.410  10.773
72727SOL    HW120020  11.453   6.475  10.734
72727SOL    HW220021  11.454   6.341  10.804
72728SOL     OW20022   6.066  10.266  13.400
72728SOL    HW120023   6.149  10.308  13.378
72728SOL    HW220024   6.089  10.199  13.464
72729SOL     OW20025   4.035  14.225   8.053
72729SOL    HW120026   3.948  14.228   8.012
72729SOL    HW220027   4.058  14.317   8.066
72730SOL     OW20028   8.001  11.973   5.775
72730SOL    HW120029   7.938  11.977   5.847
72730SOL    HW220030   7.947  11.958   5.697
72731SOL     OW20031   0.888  12.942  11.138
72731SOL    HW120032   0.905  12.922  11.046
72731SOL    HW220033   0.925  12.868  11.186
72732SOL     OW20034  12.101  12.758   2.179
72732SOL    HW120035  12.043  12.711   2.239
72732SOL    HW220036  12.043  12.795   2.113
72733SOL     OW20037   3.328   0.438   3.408
72733SOL    HW120038   3.292   0.399   3.487
72733SOL    HW220039   3.423   0.426   3.416
72734SOL     OW20040   0.884   2.399   9.893
72734SOL    HW120041   0.968   2.444   9.888
72734SOL    HW220042   0.833   2.435   9.820
72735SOL     OW20043   8.611   7.648   4.779
72735SOL    HW120044   8.681   7.687   4.728
72735SOL    HW220045   8.647   7.639   4.867
72736SOL     OW20046   5.333   6.751   5.333
72736SOL    HW120047   5.314   6.767   5.425
72736SOL    HW220048   5.247   6.732   5.294
72737SOL     OW20049   5.557   1.908  10.421
72737SOL    HW120050   5.474   1.889  10.465
72737SOL    HW220051   5.576   1.829  10.371
72738SOL     OW20052   9.122   9.824  13.189
72738SOL    HW120053   9.137   9.730  13.198
72738SOL    HW220054   9.068   9.847  13.265
72739SOL     OW20055  10.602  10.732   6.933
72739SOL    HW120056  10.695  10.710   6.923
72739SOL    HW220057  10.562  10.709   6.849
72740SOL     OW20058   4.996   9.295   4.653
72740SOL    HW120059   5.091   9.300   4.647
72740SOL    HW220060   4.978   9.279   4.745
72741SOL     OW20061  12.510  10.672   2.975
72741SOL    HW120062  12.422  10.681   3.011
72741SOL    HW220063  12.564  10.647   3.050
72742SOL     OW20064   5.754   7.289  12.819
72742SOL    HW120065   5.756   7.359  12.753
72742SOL    HW220066   5.688   7.227  12.785
72743SOL     OW20067   1.167  10.846   6.731
72743SOL    HW120068   1.257  10.838   6.762
72743SOL    HW220069   1.175  10.877   6.641
72744SOL     OW20070   1.544   9.422   4.308
72744SOL    HW120071   1.626   9.427   4.259
72744SOL    HW220072   1.481   9.470   4.255
72745SOL     OW20073   7.211   1.553  12.881
72745SOL    HW120074   7.302   1.582  12.890
72745SOL    HW220075   7.198   1.492  12.955
72746SOL     OW20076  14.379  10.614   8.860
72746SOL    HW120077  14.357  10.521   8.851
72746SOL    HW220078  14.301  10.661   8.830
72747SOL     OW20079  11.717   2.626   7.158
72747SOL    HW120080  11.696   2.607   7.250
72747SOL    HW220081  11.772   2.552   7.131
72748SOL     OW20082  11.905  10.877   1.364
72748SOL    HW120083  11.871  10.966   1.368
72748SOL    HW220084  11.894  10.851   1.273
72749SOL     OW20085   6.883  10.057   8.904
72749SOL    HW120086   6.859  10.025   8.817
72749SOL    HW220087   6.845   9.993   8.964
72750SOL     OW20088   8.085  10.136  10.992
72750SOL    HW120089   8.016  10.075  10.965
72750SOL    HW220090   8.038  10.214  11.022
72751SOL     OW20091   6.161  12.172   4.115
72751SOL    HW120092   6.129  12.109   4.049
72751SOL    HW220093   6.109  12.153   4.193
72752SOL     OW20094  11.189   6.139  14.851
72752SOL    HW120095  11.262   6.185  14.811
72752SOL    HW220096  11.147   6.204   0.033
72753SOL     OW20097  13.740  11.130   8.071
72753SOL    HW120098  13.717  11.037   8.077
72753SOL    HW220099  13.661  11.172   8.037
72754SOL     OW20100   4.001   7.825   6.409
72754SOL    HW120101   4.089   7.788   6.395
72754SOL    HW220102   3.947   7.783   6.343
72755SOL     OW20103  11.161   4.936  12.383
72755SOL    HW120104  11.227   4.949  12.315
72755SOL    HW220105  11.122   5.022  12.396
72756SOL     OW20106   1.077   6.385   3.814
72756SOL    HW120107   1.085   6.361   3.906
72756SOL    HW220108   1.150   6.341   3.771
72757SOL     OW20109   5.326   3.796   2.005
72757SOL    HW120110   5.285   3.790   1.919
72757SOL    HW220111   5.352   3.888   2.013
72758SOL     OW20112   4.552  12.818   4.472
72758SOL    HW120113   4.577  12.758   4.542
72758SOL    HW220114   4.506  12.889   4.517
72759SOL     OW20115  12.157  14.381   8.170
72759SOL    HW120116  12.169  14.432   8.090
72759SOL    HW220117  12.225  14.314   8.166
72760SOL     OW20118   6.572   1.661  11.007
72760SOL    HW120119   6.587   1.641  10.915
72760SOL    HW220120   6.658   1.648  11.049
72761SOL     OW20121   4.523  11.582   1.606
72761SOL    HW120122   4.531  11.647   1.675
72761SOL    HW220123   4.506  11.633   1.526
72762SOL     OW20124   1.751   3.429  14.872
72762SOL    HW120125   1.671   3.446   0.047
72762SOL    HW220126   1.809   3.502   0.019
72763SOL     OW20127   8.660  11.800   2.149
72763SOL    HW120128   8.571  11.791   2.114
72763SOL    HW220129   8.683  11.892   2.131
72764SOL     OW20130   0.499   3.291  14.613
72764SOL    HW120131   0.459   3.220  14.565
72764SOL    HW220132   0.450   3.369  14.586
72765SOL     OW20133  13.821   0.134  12.491
72765SOL    HW120134  13.839   0.192  12.564
72765SOL    HW220135  13.898   0.140  12.435
72766SOL     OW20136   5.515   1.037  12.479
72766SOL    HW120137   5.545   1.018  12.568
72766SOL    HW220138   5.442   1.098  12.491
72767SOL     OW20139   9.628   7.718  13.210
72767SOL    HW120140   9.587   7.803  13.197
72767SOL    HW220141   9.615   7.699  13.303
72768SOL     OW20142   1.520   9.258  12.799
72768SOL    HW120143   1.598   9.306  12.769
72768SOL    HW220144   1.452   9.325  12.803
72769SOL     OW20145   6.302   7.595  12.763
72769SOL    HW120146   6.343   7.620  12.681
72769SOL    HW220147   6.223   7.648  12.769
72770SOL     OW20148  11.463   9.666  11.695
72770SOL    HW120149  11.377   9.649  11.732
72770SOL    HW220150  11.516   9.694  11.769
72771SOL     OW20151  13.330   0.034   2.901
72771SOL    HW120152  13.287   0.119   2.901
72771SOL    HW220153  13.356   0.020   2.810
72772SOL     OW20154   8.962   7.282   6.388
72772SOL    HW120155   9.041   7.256   6.340
72772SOL    HW220156   8.957   7.377   6.375
72773SOL     OW20157   3.825   3.261  12.794
72773SOL    HW120158   3.905   3.310  12.811
72773SOL    HW220159   3.784   3.252  12.880
72774SOL     OW20160   1.796  14.051  14.815
72774SOL    HW120161   1.827  13.992   0.009
72774SOL    HW220162   1.847  14.029  14.738
72775SOL     OW20163  14.048   9.748   6.301
72775SOL    HW120164  13.962   9.713   6.279
72775SOL    HW220165  14.103   9.670   6.311
72776SOL     OW20166   9.468   0.723   5.043
72776SOL    HW120167   9.402   0.793   5.049
72776SOL    HW220168   9.442   0.660   5.110
72777SOL     OW20169   1.307   9.521   9.817
72777SOL    HW120170   1.215   9.546   9.810
72777SOL    HW220171   1.318   9.451   9.752
72778SOL     OW20172   7.893   7.570   9.770
72778SOL    HW120173   7.976   7.591   9.812
72778SOL    HW220174   7.900   7.478   9.746
72779SOL     OW20175  12.974   1.355   4.192
72779SOL    HW120176  12.919   1.387   4.264
72779SOL    HW220177  13.063   1.381   4.216
72780SOL     OW20178  13.165   5.104  11.481
72780SOL    HW120179  13.109   5.117  11.558
72780SOL    HW220180  13.254   5.111  11.515
72781SOL     OW20181   4.764   6.960  10.270
72781SOL    HW120182   4.676   6.931  10.296
72781SOL    HW220183   4.820   6.934  10.342
72782SOL     OW20184  11.812  10.189   4.485
72782SOL    HW120185  11.845  10.212   4.572
72782SOL    HW220186  11.724  10.227   4.482
72783SOL     OW20187  12.187   4.868  10.061
72783SOL    HW120188  12.209   4.892   9.971
72783SOL    HW220189  12.259   4.812  10.089
72784SOL     OW20190  11.800  12.608   2.714
72784SOL    HW120191  11.781  12.602   2.807
72784SOL    HW220192  11.731  12.664   2.679
72785SOL     OW20193  13.372   4.648  12.746
72785SOL    HW120194  13.334   4.658  12.833
72785SOL    HW220195  13.299   4.660  12.685
72786SOL     OW20196  12.960   5.416   7.442
72786SOL    HW120197  13.006   5.498   7.457
72786SOL    HW220198  12.959   5.406   7.347
72787SOL     OW20199  12.195   7.510  13.138
72787SOL    HW120200  12.109   7.542  13.111
72787SOL    HW220201  12.193   7.416  13.121
72788SOL     OW20202   9.494  12.948   9.196
72788SOL    HW120203   9.416  12.972   9.146
72788SOL    HW220204   9.540  13.032   9.208
72789SOL     OW20205  13.163  14.799   8.737
72789SOL    HW120206  13.250  14.784   8.774
72789SOL    HW220207  13.149   0.019   8.748
72790SOL     OW20208   4.158   6.695   9.690
72790SOL    HW120209   4.214   6.719   9.764
72790SOL    HW220210   4.198   6.615   9.656
72791SOL     OW20211   1.762   9.469   3.298
72791SOL    HW120212   1.841   9.453   3.246
72791SOL    HW220213   1.793   9.512   3.377
72792SOL     OW20214   7.334   0.535   8.129
72792SOL    HW120215   7.265   0.587   8.088
72792SOL    HW220216   7.323   0.551   8.223
72793SOL     OW20217   0.492   1.648  11.117
72793SOL    HW120218   0.416   1.606  11.158
72793SOL    HW220219   0.549   1.672  11.190
72794SOL     OW20220  10.951  10.500   1.010
72794SOL    HW120221  11.027  10.519   1.066
72794SOL    HW220222  10.920  10.415   1.040
72795SOL     OW20223   4.640   2.582  12.353
72795SOL    HW120224   4.704   2.521  12.390
72795SOL    HW220225   4.584   2.527  12.298
72796SOL     OW20226   4.868  10.446   0.177
72796SOL    HW120227   4.875  10.541   0.183
72796SOL    HW220228   4.920  10.413   0.250
72797SOL     OW20229  14.146   5.817   9.969
72797SOL    HW120230  14.072   5.787  10.022
72797SOL    HW220231  14.170   5.741   9.917
72798SOL     OW20232   3.986  13.313   9.946
72798SOL    HW120233   3.964  13.228   9.983
72798SOL    HW220234   3.907  13.341   9.900
72799SOL     OW20235  12.138   1.335   3.802
72799SOL    HW120236  12.142   1.388   3.722
72799SOL    HW220237  12.222   1.352   3.846
72800SOL     OW20238   8.551  14.553  10.626
72800SOL    HW120239   8.572  14.578  10.536
72800SOL    HW220240   8.455  14.552  10.630
72801SOL     OW20241   9.728  13.541   1.355
72801SOL    HW120242   9.747  13.450   1.378
72801SOL    HW220243   9.633  13.545   1.351
72802SOL     OW20244   3.930  11.505   8.072
72802SOL    HW120245   3.885  11.466   7.997
72802SOL    HW220246   3.940  11.433   8.134
72803SOL     OW20247   4.114   9.013   4.997
72803SOL    HW120248   4.124   8.935   5.052
72803SOL    HW220249   4.135   8.983   4.909
72804SOL     OW20250  13.680   5.784   7.429
72804SOL    HW120251  13.725   5.703   7.406
72804SOL    HW220252  13.745   5.834   7.478
72805SOL     OW20253   1.437   7.435   7.720
72805SOL    HW120254   1.400   7.376   7.653
72805SOL    HW220255   1.530   7.440   7.698
72806SOL     OW20256   8.977   2.679   7.420
72806SOL    HW120257   9.028   2.628   7.483
72806SOL    HW220258   9.043   2.727   7.370
72807SOL     OW20259   5.960   9.168  10.049
72807SOL    HW120260   5.870   9.134  10.044
72807SOL    HW220261   5.991   9.164   9.958
72808SOL     OW20262  14.171  12.609   1.539
72808SOL    HW120263  14.145  12.664   1.464
72808SOL    HW220264  14.266  12.602   1.530
72809SOL     OW20265  10.382   4.571  12.426
72809SOL    HW120266  10.422   4.616  12.352
72809SOL    HW220267  10.448   4.575  12.495
72810SOL     OW20268   7.485   8.638  12.592
72810SOL    HW120269   7.502   8.610  12.682
72810SOL    HW220270   7.533   8.575  12.539
72811SOL     OW20271  12.551   3.392  14.061
72811SOL    HW120272  12.615   3.463  14.059
72811SOL    HW220273  12.580   3.335  14.132
72812SOL     OW20274  11.706   9.334   1.660
72812SOL    HW120275  11.644   9.291   1.601
72812SOL    HW220276  11.683   9.301   1.747
72813SOL     OW20277  12.741   9.443  14.353
72813SOL    HW120278  12.658   9.491  14.351
72813SOL    HW220279  12.734   9.380  14.281
72814SOL     OW20280  13.272  11.878   1.504
72814SOL    HW120281  13.321  11.919   1.433
72814SOL    HW220282  13.212  11.817   1.461
72815SOL     OW20283  13.505   0.700  14.316
72815SOL    HW120284  13.495   0.795  14.322
72815SOL    HW220285  13.442   0.673  14.249
72816SOL     OW20286   0.434   0.537   0.962
72816SOL    HW120287   0.392   0.600   1.021
72816SOL    HW220288   0.415   0.570   0.874
72817SOL     OW20289  12.824  13.083   1.777
72817SOL    HW120290  12.738  13.106   1.743
72817SOL    HW220291  12.824  12.988   1.781
72818SOL     OW20292   3.616  13.358   3.639
72818SOL    HW120293   3.545  13.301   3.608
72818SOL    HW220294   3.574  13.443   3.654
72819SOL     OW20295   6.761  13.346   4.469
72819SOL    HW120296   6.736  13.257   4.446
72819SOL    HW220297   6.834  13.337   4.529
72820SOL     OW20298  12.776   7.917   6.894
72820SOL    HW120299  12.749   7.988   6.952
72820SOL    HW220300  12.702   7.855   6.896
72821SOL     OW20301  14.541   4.427   1.888
72821SOL    HW120302  14.546   4.465   1.800
72821SOL    HW220303  14.587   4.490   1.944
72822SOL     OW20304   1.135  10.960   3.282
72822SOL    HW120305   1.053  10.982   3.238
72822SOL    HW220306   1.182  11.044   3.289
72823SOL     OW20307   8.659   6.725   3.170
72823SOL    HW120308   8.655   6.718   3.266
72823SOL    HW220309   8.731   6.667   3.145
72824SOL     OW20310   9.045   8.205   2.687
72824SOL    HW120311   8.974   8.265   2.663
72824SOL    HW220312   9.032   8.129   2.630
72825SOL     OW20313   0.595   8.150   8.097
72825SOL    HW120314   0.688   8.158   8.076
72825SOL    HW220315   0.561   8.088   8.032
72826SOL     OW20316  10.133  13.456  13.146
72826SOL    HW120317  10.103  13.395  13.079
72826SOL    HW220318  10.215  13.492  13.110
72827SOL     OW20319  14.481   2.250  11.230
72827SOL    HW120320  14.516   2.160  11.233
72827SOL    HW220321  14.403   2.243  11.174
72828SOL     OW20322   2.698   8.774  10.339
72828SOL    HW120323   2.779   8.730  10.314
72828SOL    HW220324   2.712   8.800  10.430
72829SOL     OW20325   5.720   2.125   8.821
72829SOL    HW120326   5.809   2.097   8.800
72829SOL    HW220327   5.690   2.170   8.742
72830SOL     OW20328   5.727   6.071  14.185
72830SOL    HW120329   5.748   6.058  14.092
72830SOL    HW220330   5.750   6.162  14.202
72831SOL     OW20331   6.783  12.889   5.505
72831SOL    HW120332   6.832  12.833   5.565
72831SOL    HW220333   6.712  12.925   5.557
72832SOL     OW20334  11.731   9.523  14.520
72832SOL    HW120335  11.664   9.456  14.504
72832SOL    HW220336  11.699   9.570  14.597
72833SOL     OW20337  10.540   0.369  14.735
72833SOL    HW120338  10.633   0.373  14.755
72833SOL    HW220339  10.505   0.304  14.795
72834SOL     OW20340   5.501   9.603   9.718
72834SOL    HW120341   5.415   9.561   9.713
72834SOL    HW220342   5.539   9.590   9.632
72835SOL     OW20343   7.328   0.566  10.387
72835SOL    HW120344   7.385   0.504  10.342
72835SOL    HW220345   7.268   0.512  10.437
72836SOL     OW20346   3.859   7.447   6.951
72836SOL    HW120347   3.940   7.498   6.946
72836SOL    HW220348   3.854   7.402   6.867
72837SOL     OW20349   8.598   5.052   4.901
72837SOL    HW120350   8.597   5.107   4.822
72837SOL    HW220351   8.673   5.083   4.951
72838SOL     OW20352  14.569   9.533   6.566
72838SOL    HW120353  14.513   9.510   6.640
72838SOL    HW220354  14.517   9.510   6.489
72839SOL     OW20355  14.034   8.415  11.220
72839SOL    HW120356  14.046   8.413  11.315
72839SOL    HW220357  14.060   8.328  11.191
72840SOL     OW20358  13.071   2.307   8.279
72840SOL    HW120359  13.121   2.367   8.335
72840SOL    HW220360  13.060   2.353   8.197
72841SOL     OW20361  12.024   7.548   9.922
72841SOL    HW120362  11.999   7.459   9.897
72841SOL    HW220363  12.119   7.548   9.919
72842SOL     OW20364   9.685  13.359  10.204
72842SOL    HW120365   9.696  13.305  10.283
72842SOL    HW220366   9.620  13.424  10.229
72843SOL     OW20367   1.960   9.528   1.160
72843SOL    HW120368   2.023   9.517   1.232
72843SOL    HW220369   2.014   9.537   1.082
72844SOL     OW20370  14.661   3.280  12.152
72844SOL    HW120371  14.608   3.252  12.227
72844SOL    HW220372  14.743   3.311  12.190
72845SOL     OW20373   6.409  13.203  12.351
72845SOL    HW120374   6.468  13.275  12.326
72845SOL    HW220375   6.375  13.229  12.437
72846SOL     OW20376   3.895  12.038   9.754
72846SOL    HW120377   3.987  12.019   9.738
72846SOL    HW220378   3.891  12.063   9.846
72847SOL     OW20379   5.963   9.045   5.906
72847SOL    HW120380   5.970   8.950   5.899
72847SOL    HW220381   6.005   9.079   5.827
72848SOL     OW20382  14.231  11.007  14.528
72848SOL    HW120383  14.265  11.009  14.438
72848SOL    HW220384  14.138  11.025  14.518
72849SOL     OW20385   0.087   6.202  14.003
72849SOL    HW120386   0.018   6.222  13.940
72849SOL    HW220387   0.042   6.156  14.074
72850SOL     OW20388   3.766   5.035  10.124
72850SOL    HW120389   3.835   5.098  10.145
72850SOL    HW220390   3.731   5.065  10.040
72851SOL     OW20391  10.738  11.073   8.151
72851SOL    HW120392  10.670  11.059   8.217
72851SOL    HW220393  10.764  10.985   8.125
72852SOL     OW20394   8.259  14.637   2.598
72852SOL    HW120395   8.254  14.541   2.598
72852SOL    HW220396   8.175  14.665   2.562
72853SOL     OW20397   0.528   6.697   6.088
72853SOL    HW120398   0.445   6.651   6.096
72853SOL    HW220399   0.592   6.640   6.130
72854SOL     OW20400   7.452   8.201   2.116
72854SOL    HW120401   7.418   8.139   2.052
72854SOL    HW220402   7.506   8.149   2.175
72855SOL     OW20403   4.722   1.290   6.445
72855SOL    HW120404   4.746   1.214   6.391
72855SOL    HW220405   4.721   1.363   6.384
72856SOL     OW20406   4.386   3.382   5.182
72856SOL    HW120407   4.354   3.361   5.270
72856SOL    HW220408   4.322   3.342   5.123
72857SOL     OW20409   5.313   5.405  10.410
72857SOL    HW120410   5.280   5.392  10.499
72857SOL    HW220411   5.376   5.334  10.398
72858SOL     OW20412  11.822  13.871   1.408
72858SOL    HW120413  11.838  13.862   1.502
72858SOL    HW220414  11.855  13.789   1.370
72859SOL     OW20415   4.609   4.696   1.377
72859SOL    HW120416   4.533   4.717   1.431
72859SOL    HW220417   4.640   4.612   1.411
72860SOL     OW20418   0.823  10.784   4.431
72860SOL    HW120419   0.832  10.709   4.491
72860SOL    HW220420   0.803  10.858   4.489
72861SOL     OW20421   7.340  13.405   9.320
72861SOL    HW120422   7.256  13.408   9.275
72861SOL    HW220423   7.398  13.357   9.262
72862SOL     OW20424   8.888   2.183  11.883
72862SOL    HW120425   8.916   2.230  11.805
72862SOL    HW220426   8.794   2.171  11.872
72863SOL     OW20427   3.045   6.569   1.676
72863SOL    HW120428   3.051   6.602   1.586
72863SOL    HW220429   3.037   6.474   1.666
72864SOL     OW20430   7.341  13.017   3.243
72864SOL    HW120431   7.303  12.931   3.260
72864SOL    HW220432   7.279  13.059   3.183
72865SOL     OW20433   3.516   6.769   7.219
72865SOL    HW120434   3.577   6.763   7.146
72865SOL    HW220435   3.571   6.786   7.295
72866SOL     OW20436   1.462   9.712  10.927
72866SOL    HW120437   1.504   9.630  10.899
72866SOL    HW220438   1.503   9.779  10.873
72867SOL     OW20439   8.347  11.462   6.030
72867SOL    HW120440   8.398  11.390   5.995
72867SOL    HW220441   8.399  11.540   6.012
72868SOL     OW20442  14.551  11.169  10.110
72868SOL    HW120443  14.559  11.136  10.021
72868SOL    HW220444  14.580  11.097  10.165
72869SOL     OW20445   5.716   7.432   6.422
72869SOL    HW120446   5.752   7.356   6.377
72869SOL    HW220447   5.735   7.506   6.364
72870SOL     OW20448  11.601  11.641   6.640
72870SOL    HW120449  11.510  11.642   6.611
72870SOL    HW220450  11.648  11.596   6.569
72871SOL     OW20451  14.351  12.878  10.120
72871SOL    HW120452  14.369  12.904  10.210
72871SOL    HW220453  14.429  12.830  10.093
72872SOL     OW20454   3.494   7.962   5.925
72872SOL    HW120455   3.471   7.978   5.834
72872SOL    HW220456   3.494   8.049   5.966
72873SOL     OW20457   7.494   0.733   1.578
72873SOL    HW120458   7.558   0.705   1.512
72873SOL    HW220459   7.483   0.827   1.562
72874SOL     OW20460  10.729  14.158   2.142
72874SOL    HW120461  10.673  14.232   2.121
72874SOL    HW220462  10.691  14.122   2.223
72875SOL     OW20463   3.748   0.348   5.226
72875SOL    HW120464   3.777   0.329   5.315
72875SOL    HW220465   3.828   0.364   5.178
72876SOL     OW20466   9.624  13.331   3.371
72876SOL    HW120467   9.532  13.352   3.386
72876SOL    HW220468   9.633  13.329   3.276
72877SOL     OW20469   7.030   7.751   7.569
72877SOL    HW120470   7.043   7.659   7.590
72877SOL    HW220471   7.072   7.799   7.640
72878SOL     OW20472   7.600   6.382   7.685
72878SOL    HW120473   7.586   6.433   7.764
72878SOL    HW220474   7.546   6.304   7.697
72879SOL     OW20475  14.178   2.332  11.306
72879SOL    HW120476  14.110   2.363  11.364
72879SOL    HW220477  14.259   2.342  11.356
72880SOL     OW20478   3.665  14.577   8.118
72880SOL    HW120479   3.729  14.528   8.168
72880SOL    HW220480   3.683  14.669   8.139
72881SOL     OW20481   7.783  10.385   7.286
72881SOL    HW120482   7.707  10.329   7.294
72881SOL    HW220483   7.847  10.332   7.238
72882SOL     OW20484   0.180   0.432   5.757
72882SOL    HW120485   0.160   0.431   5.663
72882SOL    HW220486   0.096   0.452   5.799
72883SOL     OW20487   4.070  13.520   4.722
72883SOL    HW120488   4.036  13.529   4.811
72883SOL    HW220489   4.016  13.580   4.670
72884SOL     OW20490   0.890  12.669   1.013
72884SOL    HW120491   0.884  12.662   0.918
72884SOL    HW220492   0.838  12.746   1.034
72885SOL     OW20493  10.450   3.504   8.798
72885SOL    HW120494  10.404   3.489   8.715
72885SOL    HW220495  10.380   3.513   8.862
72886SOL     OW20496   1.886  10.252  12.870
72886SOL    HW120497   1.832  10.190  12.822
72886SOL    HW220498   1.947  10.287  12.805
72887SOL     OW20499   8.631   2.203   1.477
72887SOL    HW120500   8.686   2.233   1.405
72887SOL    HW220501   8.617   2.110   1.460
72888SOL     OW20502  11.787  11.929   1.228
72888SOL    HW120503  11.850  11.953   1.160
72888SOL    HW220504  11.822  11.850   1.267
72889SOL     OW20505   7.763  12.424   7.347
72889SOL    HW120506   7.726  12.396   7.263
72889SOL    HW220507   7.824  12.494   7.324
72890SOL     OW20508  11.062   3.082   1.345
72890SOL    HW120509  11.013   3.146   1.395
72890SOL    HW220510  10.999   3.013   1.325
72891SOL     OW20511  10.012  13.407   5.922
72891SOL    HW120512   9.921  13.381   5.940
72891SOL    HW220513  10.013  13.501   5.937
72892SOL     OW20514   9.966   1.799   7.101
72892SOL    HW120515   9.914   1.722   7.125
72892SOL    HW220516   9.951   1.809   7.007
72893SOL     OW20517   5.633   0.717   0.210
72893SOL    HW120518   5.646   0.681   0.298
72893SOL    HW220519   5.693   0.668   0.155
72894SOL     OW20520   9.303   0.372   5.741
72894SOL    HW120521   9.356   0.451   5.740
72894SOL    HW220522   9.218   0.399   5.708
72895SOL     OW20523   3.535   3.623  12.394
72895SOL    HW120524   3.604   3.602  12.457
72895SOL    HW220525   3.485   3.694  12.435
72896SOL     OW20526   1.625   2.245  11.944
72896SOL    HW120527   1.614   2.219  12.036
72896SOL    HW220528   1.720   2.248  11.931
72897SOL     OW20529   7.634   0.370   5.987
72897SOL    HW120530   7.632   0.460   6.017
72897SOL    HW220531   7.560   0.328   6.032
72898SOL     OW20532  12.567   1.681  12.970
72898SOL    HW120533  12.473   1.674  12.982
72898SOL    HW220534  12.584   1.776  12.970
72899SOL     OW20535   6.227   1.376   4.092
72899SOL    HW120536   6.232   1.286   4.061
72899SOL    HW220537   6.173   1.421   4.028
72900SOL     OW20538  14.850   6.126   2.293
72900SOL    HW120539  14.803   6.185   2.352
72900SOL    HW220540  14.783   6.099   2.229
72901SOL     OW20541   4.239   9.952   9.001
72901SOL    HW120542   4.214   9.910   9.083
72901SOL    HW220543   4.208   9.893   8.932
72902SOL     OW20544  11.362  13.554   4.098
72902SOL    HW120545  11.337  13.500   4.173
72902SOL    HW220546  11.403  13.493   4.037
72903SOL     OW20547   3.370   6.825  10.542
72903SOL    HW120548   3.369   6.801  10.449
72903SOL    HW220549   3.367   6.741  10.588
72904SOL     OW20550  11.485  11.228  13.302
72904SOL    HW120551  11.394  11.201  13.311
72904SOL    HW220552  11.513  11.247  13.392
72905SOL     OW20553  14.035   4.046  13.887
72905SOL    HW120554  13.969   3.977  13.892
72905SOL    HW220555  14.022   4.086  13.801
72906SOL     OW20556   0.351   8.488  10.028
72906SOL    HW120557   0.395   8.568  10.056
72906SOL    HW220558   0.319   8.508   9.940
72907SOL     OW20559   9.389   1.783   6.102
72907SOL    HW120560   9.323   1.727   6.061
72907SOL    HW220561   9.470   1.763   6.055
72908SOL     OW20562  10.840   9.550   5.180
72908SOL    HW120563  10.773   9.544   5.111
72908SOL    HW220564  10.881   9.464   5.181
72909SOL     OW20565  14.793   1.575  14.729
72909SOL    HW120566  14.794   1.634  14.654
72909SOL    HW220567  14.865   1.605  14.785
72910SOL     OW20568   7.542  11.676  14.669
72910SOL    HW120569   7.624  11.720  14.647
72910SOL    HW220570   7.542  11.672  14.765
72911SOL     OW20571   6.093   5.394   0.088
72911SOL    HW120572   6.089   5.483   0.124
72911SOL    HW220573   6.031   5.395   0.015
72912SOL     OW20574  10.937   1.240   8.840
72912SOL    HW120575  10.888   1.309   8.885
72912SOL    HW220576  11.007   1.217   8.901
72913SOL     OW20577   3.577   2.328   8.149
72913SOL    HW120578   3.636   2.253   8.148
72913SOL    HW220579   3.489   2.290   8.142
72914SOL     OW20580   3.083  14.611  12.442
72914SOL    HW120581   3.065  14.632  12.534
72914SOL    HW220582   3.090  14.695  12.398
72915SOL     OW20583   3.887   5.548   9.029
72915SOL    HW120584   3.855   5.466   8.991
72915SOL    HW220585   3.822   5.613   9.003
72916SOL     OW20586   7.388   8.796   2.473
72916SOL    HW120587   7.460   8.817   2.533
72916SOL    HW220588   7.359   8.881   2.441
72917SOL     OW20589  12.380   2.291   9.414
72917SOL    HW120590  12.430   2.369   9.438
72917SOL    HW220591  12.289   2.320   9.412
72918SOL     OW20592   2.787  12.542  10.205
72918SOL    HW120593   2.789  12.483  10.281
72918SOL    HW220594   2.877  12.574  10.198
72919SOL     OW20595  13.604   1.547  14.068
72919SOL    HW120596  13.542   1.611  14.033
72919SOL    HW220597  13.640   1.504  13.991
72920SOL     OW20598  13.367   9.525   9.845
72920SOL    HW120599  13.414   9.512   9.763
72920SOL    HW220600  13.415   9.471   9.909
72921SOL     OW20601   8.255   6.315   4.746
72921SOL    HW120602   8.242   6.384   4.680
72921SOL    HW220603   8.310   6.250   4.702
72922SOL     OW20604  12.444   3.806   8.612
72922SOL    HW120605  12.537   3.813   8.591
72922SOL    HW220606  12.408   3.892   8.590
72923SOL     OW20607   1.816   1.722   4.262
72923SOL    HW120608   1.767   1.654   4.309
72923SOL    HW220609   1.903   1.721   4.302
72924SOL     OW20610   7.060   4.139   6.319
72924SOL    HW120611   7.108   4.071   6.271
72924SOL    HW220612   7.089   4.221   6.281
72925SOL     OW20613  11.535  14.444   7.480
72925SOL    HW120614  11.499  14.371   7.530
72925SOL    HW220615  11.629  14.430   7.481
72926SOL     OW20616   4.214   4.018   6.887
72926SOL    HW120617   4.284   3.976   6.937
72926SOL    HW220618   4.251   4.100   6.856
72927SOL     OW20619   3.602   9.475   2.476
72927SOL    HW120620   3.573   9.469   2.385
72927SOL    HW220621   3.580   9.565   2.502
72928SOL     OW20622   4.022  10.097   6.789
72928SOL    HW120623   3.987  10.016   6.752
72928SOL    HW220624   4.095  10.068   6.844
72929SOL     OW20625  11.289   9.783  13.075
72929SOL    HW120626  11.220   9.779  13.141
72929SOL    HW220627  11.369   9.797  13.126
72930SOL     OW20628   7.289  14.258  10.725
72930SOL    HW120629   7.201  14.286  10.750
72930SOL    HW220630   7.329  14.335  10.685
72931SOL     OW20631  13.314  11.371  12.607
72931SOL    HW120632  13.393  11.422  12.591
72931SOL    HW220633  13.266  11.376  12.524
72932SOL     OW20634  14.842   5.551   1.861
72932SOL    HW120635  14.849   5.581   1.770
72932SOL    HW220636  14.842   5.631   1.913
72933SOL     OW20637   2.783  12.923   9.397
72933SOL    HW120638   2.779  12.945   9.304
72933SOL    HW220639   2.742  12.997   9.442
72934SOL     OW20640  12.340   6.801   0.654
72934SOL    HW120641  12.425   6.809   0.699
72934SOL    HW220642  12.276   6.825   0.721
72935SOL     OW20643   6.284   8.988  11.851
72935SOL    HW120644   6.248   9.077  11.850
72935SOL    HW220645   6.274   8.958  11.942
72936SOL     OW20646   6.335   5.560  12.899
72936SOL    HW120647   6.257   5.577  12.951
72936SOL    HW220648   6.382   5.493  12.947
72937SOL     OW20649   0.726   0.007  13.191
72937SOL    HW120650   0.822   0.005  13.190
72937SOL    HW220651   0.704   0.098  13.206
72938SOL     OW20652   8.082   0.396   3.098
72938SOL    HW120653   8.025   0.473   3.095
72938SOL    HW220654   8.078   0.359   3.010
72939SOL     OW20655   5.725   7.810   5.760
72939SOL    HW120656   5.702   7.766   5.842
72939SOL    HW220657   5.734   7.903   5.785
72940SOL     OW20658   0.328   4.289  14.350
72940SOL    HW120659   0.362   4.263  14.264
72940SOL    HW220660   0.395   4.348  14.385
72941SOL     OW20661   9.419  11.391   4.357
72941SOL    HW120662   9.498  11.388   4.412
72941SOL    HW220663   9.433  11.465   4.298
72942SOL     OW20664  14.676   1.699  13.257
72942SOL    HW120665  14.650   1.679  13.168
72942SOL    HW220666  14.729   1.624  13.284
72943SOL     OW20667   5.215   5.728   3.695
72943SOL    HW120668   5.236   5.752   3.785
72943SOL    HW220669   5.282   5.770   3.642
72944SOL     OW20670  14.769   8.210   8.067
72944SOL    HW120671  14.697   8.151   8.043
72944SOL    HW220672  14.726   8.291   8.093
72945SOL     OW20673   8.150   2.616  10.813
72945SOL    HW120674   8.182   2.667  10.888
72945SOL    HW220675   8.159   2.675  10.738
72946SOL     OW20676  10.907   4.975   2.511
72946SOL    HW120677  10.878   4.969   2.420
72946SOL    HW220678  10.973   5.044   2.511
72947SOL     OW20679   7.836   6.890  10.145
72947SOL    HW120680   7.874   6.912  10.060
72947SOL    HW220681   7.742   6.896  10.132
72948SOL     OW20682   6.262  10.587   8.270
72948SOL    HW120683   6.256  10.502   8.226
72948SOL    HW220684   6.311  10.642   8.209
72949SOL     OW20685   2.078   6.262   9.568
72949SOL    HW120686   2.080   6.169   9.543
72949SOL    HW220687   1.985   6.282   9.578
72950SOL     OW20688   6.497   8.595   0.747
72950SOL    HW120689   6.570   8.656   0.743
72950SOL    HW220690   6.512   8.545   0.827
72951SOL     OW20691  12.603   4.698   0.278
72951SOL    HW120692  12.539   4.628   0.268
72951SOL    HW220693  12.640   4.685   0.365
72952SOL     OW20694   2.979   3.807  10.098
72952SOL    HW120695   3.040   3.817  10.172
72952SOL    HW220696   2.895   3.786  10.138
72953SOL     OW20697   3.047   5.385  11.855
72953SOL    HW120698   2.955   5.408  11.855
72953SOL    HW220699   3.093   5.468  11.869
72954SOL     OW20700   4.110   8.402   3.134
72954SOL    HW120701   4.154   8.357   3.063
72954SOL    HW220702   4.122   8.495   3.115
72955SOL     OW20703   9.487  11.740   3.338
72955SOL    HW120704   9.565  11.793   3.349
72955SOL    HW220705   9.430  11.765   3.411
72956SOL     OW20706  13.305  14.775   6.000
72956SOL    HW120707  13.326  14.785   6.093
72956SOL    HW220708  13.227  14.830   5.987
72957SOL     OW20709  14.486  10.534   4.789
72957SOL    HW120710  14.535  10.600   4.838
72957SOL    HW220711  14.551  10.490   4.734
72958SOL     OW20712  12.293  10.225   9.083
72958SOL    HW120713  12.210  10.193   9.119
72958SOL    HW220714  12.346  10.243   9.160
72959SOL     OW20715  11.687  13.663   3.867
72959SOL    HW120716  11.620  13.613   3.821
72959SOL    HW220717  11.669  13.648   3.960
72960SOL     OW20718   6.007   3.491   2.199
72960SOL    HW120719   5.984   3.525   2.113
72960SOL    HW220720   5.932   3.511   2.255
72961SOL     OW20721  13.503  13.566   2.506
72961SOL    HW120722  13.431  13.506   2.489
72961SOL    HW220723  13.561  13.519   2.566
72962SOL     OW20724   2.176  12.610   9.024
72962SOL    HW120725   2.207  12.650   9.105
72962SOL    HW220726   2.150  12.522   9.050
72963SOL     OW20727  13.978   7.020   2.709
72963SOL    HW120728  13.931   7.091   2.664
72963SOL    HW220729  14.049   7.065   2.756
72964SOL     OW20730   9.598   8.688   8.063
72964SOL    HW120731   9.596   8.626   7.990
72964SOL    HW220732   9.625   8.636   8.138
72965SOL     OW20733  14.017   8.463   5.388
72965SOL    HW120734  14.049   8.383   5.347
72965SOL    HW220735  13.946   8.434   5.445
72966SOL     OW20736   9.277  10.767   6.804
72966SOL    HW120737   9.276  10.695   6.868
72966SOL    HW220738   9.227  10.734   6.730
72967SOL     OW20739  13.897  10.351   2.363
72967SOL    HW120740  13.934  10.397   2.438
72967SOL    HW220741  13.802  10.358   2.374
72968SOL     OW20742   4.176   8.292   0.545
72968SOL    HW120743   4.154   8.308   0.453
72968SOL    HW220744   4.122   8.353   0.594
72969SOL     OW20745   0.036   8.263  10.501
72969SOL    HW120746   0.068   8.192  10.557
72969SOL    HW220747   0.086   8.340  10.529
72970SOL     OW20748  11.188   7.156  10.257
72970SOL    HW120749  11.109   7.148  10.310
72970SOL    HW220750  11.180   7.086  10.192
72971SOL     OW20751   8.145  11.089   7.640
72971SOL    HW120752   8.168  10.996   7.634
72971SOL    HW220753   8.050  11.091   7.634
72972SOL     OW20754   3.411   6.616  10.958
72972SOL    HW120755   3.462   6.535  10.958
72972SOL    HW220756   3.371   6.618  10.870
72973SOL     OW20757  10.770   0.464  14.019
72973SOL    HW120758  10.707   0.430  13.956
72973SOL    HW220759  10.782   0.394  14.082
72974SOL     OW20760   6.309   7.474   2.185
72974SOL    HW120761   6.390   7.440   2.224
72974SOL    HW220762   6.275   7.401   2.133
72975SOL     OW20763  10.493  14.526  11.356
72975SOL    HW120764  10.508  14.448  11.410
72975SOL    HW220765  10.530  14.598  11.407
72976SOL     OW20766  11.686  12.134  11.861
72976SOL    HW120767  11.650  12.164  11.777
72976SOL    HW220768  11.756  12.074  11.836
72977SOL     OW20769   3.892  12.493  11.494
72977SOL    HW120770   3.834  12.444  11.552
72977SOL    HW220771   3.834  12.555  11.450
72978SOL     OW20772   4.257   1.431   3.655
72978SOL    HW120773   4.275   1.462   3.566
72978SOL    HW220774   4.216   1.346   3.643
72979SOL     OW20775  11.963  12.842   0.770
72979SOL    HW120776  12.019  12.863   0.845
72979SOL    HW220777  11.974  12.748   0.757
72980SOL     OW20778  14.770   5.502   3.949
72980SOL    HW120779  14.806   5.452   4.022
72980SOL    HW220780  14.791   5.593   3.970
72981SOL     OW20781  14.154  10.008   4.426
72981SOL    HW120782  14.197   9.929   4.393
72981SOL    HW220783  14.104  10.042   4.352
72982SOL     OW20784   4.755  14.030  10.842
72982SOL    HW120785   4.673  13.981  10.842
72982SOL    HW220786   4.780  14.037  10.750
72983SOL     OW20787   8.416   7.824   6.680
72983SOL    HW120788   8.373   7.854   6.760
72983SOL    HW220789   8.419   7.902   6.624
72984SOL     OW20790   7.987  12.441   0.441
72984SOL    HW120791   7.911  12.442   0.383
72984SOL    HW220792   7.960  12.387   0.516
72985SOL     OW20793  10.091  11.610   2.961
72985SOL    HW120794  10.109  11.638   2.871
72985SOL    HW220795  10.169  11.639   3.010
72986SOL     OW20796   5.941   6.969   5.820
72986SOL    HW120797   5.992   7.044   5.850
72986SOL    HW220798   5.895   6.938   5.898
72987SOL     OW20799   6.166  14.093  14.424
72987SOL    HW120800   6.088  14.064  14.376
72987SOL    HW220801   6.146  14.181  14.453
72988SOL     OW20802  12.890  13.658   7.218
72988SOL    HW120803  12.857  13.643   7.306
72988SOL    HW220804  12.983  13.637   7.223
72989SOL     OW20805   4.211   5.731   5.330
72989SOL    HW120806   4.283   5.669   5.319
72989SOL    HW220807   4.252   5.817   5.324
72990SOL     OW20808   2.902   9.026   5.569
72990SOL    HW120809   2.944   9.104   5.532
72990SOL    HW220810   2.846   9.059   5.639
72991SOL     OW20811  12.463  11.275   5.823
72991SOL    HW120812  12.376  11.250   5.792
72991SOL    HW220813  12.448  11.316   5.908
72992SOL     OW20814   0.418  14.275  13.308
72992SOL    HW120815   0.491  14.326  13.342
72992SOL    HW220816   0.459  14.198  13.269
72993SOL     OW20817   8.633  13.605   8.287
72993SOL    HW120818   8.699  13.542   8.256
72993SOL    HW220819   8.594  13.563   8.363
72994SOL     OW20820   7.427  10.797   8.476
72994SOL    HW120821   7.512  10.797   8.434
72994SOL    HW220822   7.435  10.858   8.549
72995SOL     OW20823   7.200  12.112   1.594
72995SOL    HW120824   7.146  12.034   1.602
72995SOL    HW220825   7.272  12.098   1.655
72996SOL     OW20826   2.480   0.755   0.508
72996SOL    HW120827   2.566   0.781   0.538
72996SOL    HW220828   2.465   0.669   0.549
72997SOL     OW20829   5.213   9.551  13.118
72997SOL    HW120830   5.243   9.547  13.209
72997SOL    HW220831   5.141   9.615  13.120
72998SOL     OW20832  11.289   5.429   5.209
72998SOL    HW120833  11.292   5.524   5.216
72998SOL    HW220834  11.375   5.400   5.240
72999SOL     OW20835   5.575  11.733  12.812
72999SOL    HW120836   5.539  11.661  12.864
72999SOL    HW220837   5.654  11.697  12.773
73000SOL     OW20838   7.442  10.528   9.917
73000SOL    HW120839   7.458  10.561  10.006
73000SOL    HW220840   7.354  10.560   9.896
73001SOL     OW20841   1.684  10.496   5.857
73001SOL    HW120842   1.688  10.569   5.919
73001SOL    HW220843   1.775  10.466   5.850
73002SOL     OW20844   3.524   2.109  14.596
73002SOL    HW120845   3.474   2.082  14.673
73002SOL    HW220846   3.616   2.104  14.623
73003SOL     OW20847   8.212  11.829   0.602
73003SOL    HW120848   8.264  11.883   0.661
73003SOL    HW220849   8.261  11.746   0.596
73004SOL     OW20850   7.651   1.574   6.605
73004SOL    HW120851   7.621   1.504   6.662
73004SOL    HW220852   7.606   1.558   6.522
73005SOL     OW20853   8.012   4.188   2.840
73005SOL    HW120854   8.073   4.160   2.908
73005SOL    HW220855   8.046   4.273   2.811
73006SOL     OW20856   8.553   2.561  11.531
73006SOL    HW120857   8.590   2.647  11.548
73006SOL    HW220858   8.469   2.562  11.577
73007SOL     OW20859   7.956   1.559   8.161
73007SOL    HW120860   8.033   1.524   8.116
73007SOL    HW220861   7.991   1.600   8.240
73008SOL     OW20862   5.175   9.873   7.040
73008SOL    HW120863   5.186   9.961   7.077
73008SOL    HW220864   5.242   9.867   6.972
73009SOL     OW20865   7.001   0.297   6.846
73009SOL    HW120866   7.016   0.208   6.812
73009SOL    HW220867   6.948   0.340   6.779
73010SOL     OW20868   2.620  10.231  12.926
73010SOL    HW120869   2.618  10.146  12.970
73010SOL    HW220870   2.712  10.243  12.902
73011SOL     OW20871   8.141   8.183   0.995
73011SOL    HW120872   8.073   8.243   1.024
73011SOL    HW220873   8.197   8.236   0.938
73012SOL     OW20874  11.106  13.055   7.424
73012SOL    HW120875  11.077  13.123   7.363
73012SOL    HW220876  11.042  12.985   7.413
73013SOL     OW20877   8.537   0.099   5.954
73013SOL    HW120878   8.514   0.186   5.922
73013SOL    HW220879   8.615   0.074   5.904
73014SOL     OW20880   1.344  11.432   7.108
73014SOL    HW120881   1.337  11.385   7.191
73014SOL    HW220882   1.414  11.495   7.122
73015SOL     OW20883   6.465  11.264  10.674
73015SOL    HW120884   6.508  11.233  10.754
73015SOL    HW220885   6.483  11.196  10.609
73016SOL     OW20886   0.129   2.456  12.914
73016SOL    HW120887   0.054   2.397  12.912
73016SOL    HW220888   0.196   2.412  12.861
73017SOL     OW20889   2.733   2.769   8.630
73017SOL    HW120890   2.687   2.694   8.591
73017SOL    HW220891   2.826   2.751   8.614
73018SOL     OW20892  10.692   2.441   9.263
73018SOL    HW120893  10.666   2.465   9.173
73018SOL    HW220894  10.702   2.346   9.261
73019SOL     OW20895   1.627  13.067  12.953
73019SOL    HW120896   1.624  13.117  13.035
73019SOL    HW220897   1.679  12.989  12.974
73020SOL     OW20898   8.557  11.936  10.564
73020SOL    HW120899   8.558  12.020  10.518
73020SOL    HW220900   8.602  11.876  10.504
73021SOL     OW20901   4.940   8.566   1.014
73021SOL    HW120902   4.998   8.633   0.978
73021SOL    HW220903   4.885   8.612   1.077
73022SOL     OW20904  12.905   9.322   5.474
73022SOL    HW120905  12.823   9.358   5.507
73022SOL    HW220906  12.897   9.326   5.379
73023SOL     OW20907   9.429  13.232   9.561
73023SOL    HW120908   9.338  13.202   9.563
73023SOL    HW220909   9.456  13.234   9.652
73024SOL     OW20910  14.273  10.605  13.683
73024SOL    HW120911  14.232  10.668  13.624
73024SOL    HW220912  14.340  10.655  13.729
73025SOL     OW20913   0.879   4.707  11.321
73025SOL    HW120914   0.907   4.643  11.386
73025SOL    HW220915   0.857   4.655  11.244
73026SOL     OW20916   2.914   4.456   4.705
73026SOL    HW120917   2.851   4.527   4.720
73026SOL    HW220918   2.999   4.501   4.702
73027SOL     OW20919  13.438   2.186  13.466
73027SOL    HW120920  13.396   2.101  13.474
73027SOL    HW220921  13.522   2.177  13.510
73028SOL     OW20922   6.868  10.728   7.273
73028SOL    HW120923   6.903  10.709   7.360
73028SOL    HW220924   6.894  10.653   7.220
73029SOL     OW20925  12.213   5.040   4.619
73029SOL    HW120926  12.233   5.126   4.655
73029SOL    HW220927  12.225   4.980   4.693
73030SOL     OW20928   1.484   7.422  11.461
73030SOL    HW120929   1.428   7.500  11.458
73030SOL    HW220930   1.470   7.386  11.549
73031SOL     OW20931   1.874   5.865   0.826
73031SOL    HW120932   1.782   5.865   0.798
73031SOL    HW220933   1.870   5.868   0.922
73032SOL     OW20934   0.501   6.836   8.403
73032SOL    HW120935   0.412   6.866   8.383
73032SOL    HW220936   0.495   6.795   8.489
73033SOL     OW20937  10.684  10.507  11.254
73033SOL    HW120938  10.768  10.546  11.279
73033SOL    HW220939  10.644  10.571  11.195
73034SOL     OW20940  11.225  11.250   2.935
73034SOL    HW120941  11.226  11.310   3.010
73034SOL    HW220942  11.300  11.278   2.882
73035SOL     OW20943  12.896   7.342  12.482
73035SOL    HW120944  12.854   7.350  12.568
73035SOL    HW220945  12.921   7.250  12.476
73036SOL     OW20946  14.309   4.404   7.793
73036SOL    HW120947  14.272   4.351   7.864
73036SOL    HW220948  14.259   4.377   7.715
73037SOL     OW20949   0.085   3.877   2.870
73037SOL    HW120950   0.138   3.947   2.909
73037SOL    HW220951   0.145   3.802   2.865
73038SOL     OW20952  12.771  13.232   5.453
73038SOL    HW120953  12.712  13.182   5.509
73038SOL    HW220954  12.791  13.311   5.503
73039SOL     OW20955   2.845  11.102  12.324
73039SOL    HW120956   2.770  11.044  12.337
73039SOL    HW220957   2.912  11.070  12.383
73040SOL     OW20958  12.738   6.447   2.482
73040SOL    HW120959  12.811   6.392   2.452
73040SOL    HW220960  12.771   6.537   2.474
73041SOL     OW20961  11.745   4.158   4.032
73041SOL    HW120962  11.688   4.187   4.104
73041SOL    HW220963  11.729   4.222   3.963
73042SOL     OW20964  10.410   2.836   6.996
73042SOL    HW120965  10.432   2.925   7.025
73042SOL    HW220966  10.461   2.780   7.054
73043SOL     OW20967   9.741  14.338   3.766
73043SOL    HW120968   9.808  14.309   3.704
73043SOL    HW220969   9.697  14.411   3.722
73044SOL     OW20970   5.589   2.132   1.611
73044SOL    HW120971   5.619   2.159   1.524
73044SOL    HW220972   5.511   2.185   1.626
73045SOL     OW20973  12.496   8.214  11.404
73045SOL    HW120974  12.553   8.266  11.461
73045SOL    HW220975  12.418   8.269  11.392
73046SOL     OW20976  14.108  12.222  12.256
73046SOL    HW120977  14.107  12.281  12.181
73046SOL    HW220978  14.193  12.180  12.252
73047SOL     OW20979  10.527   7.480  13.233
73047SOL    HW120980  10.521   7.487  13.329
73047SOL    HW220981  10.591   7.410  13.218
73048SOL     OW20982   4.529   2.435   3.309
73048SOL    HW120983   4.469   2.449   3.235
73048SOL    HW220984   4.616   2.442   3.271
73049SOL     OW20985  10.727   8.723  12.265
73049SOL    HW120986  10.798   8.775  12.228
73049SOL    HW220987  10.765   8.681  12.342
73050SOL     OW20988   9.637   8.336   8.782
73050SOL    HW120989   9.671   8.423   8.759
73050SOL    HW220990   9.712   8.277   8.770
73051SOL     OW20991   2.626  10.231   9.730
73051SOL    HW120992   2.583  10.157   9.687
73051SOL    HW220993   2.647  10.199   9.818
73052SOL     OW20994  12.459  11.187   5.217
73052SOL    HW120995  12.492  11.193   5.307
73052SOL    HW220996  12.447  11.094   5.201
73053SOL     OW20997   0.034  11.693   5.006
73053SOL    HW120998  14.816  11.690   5.032
73053SOL    HW220999   0.076  11.752   5.069
73054SOL     OW21000  10.621   3.440  14.540
73054SOL    HW121001  10.616   3.404  14.629
73054SOL    HW221002  10.536   3.481  14.527
73055SOL     OW21003   8.497   1.634   8.706
73055SOL    HW121004   8.487   1.714   8.757
73055SOL    HW221005   8.493   1.564   8.771
73056SOL     OW21006   4.190   9.514   6.974
73056SOL    HW121007   4.245   9.589   6.999
73056SOL    HW221008   4.143   9.492   7.055
73057SOL     OW21009   3.304   9.911   4.356
73057SOL    HW121010   3.288   9.951   4.442
73057SOL    HW221011   3.383   9.859   4.368
73058SOL     OW21012   8.450   7.353  12.360
73058SOL    HW121013   8.476   7.269  12.322
73058SOL    HW221014   8.478   7.418  12.295
73059SOL     OW21015   6.466   0.505   1.848
73059SOL    HW121016   6.431   0.585   1.885
73059SOL    HW221017   6.510   0.461   1.921
73060SOL     OW21018   9.713   3.650  12.321
73060SOL    HW121019   9.705   3.624  12.229
73060SOL    HW221020   9.699   3.569  12.370
73061SOL     OW21021  14.546   3.546   6.804
73061SOL    HW121022  14.573   3.588   6.885
73061SOL    HW221023  14.539   3.453   6.826
73062SOL     OW21024   5.490   4.713   0.835
73062SOL    HW121025   5.486   4.750   0.747
73062SOL    HW221026   5.401   4.720   0.868
73063SOL     OW21027   0.671   3.712  11.376
73063SOL    HW121028   0.589   3.734  11.332
73063SOL    HW221029   0.705   3.636  11.329
73064SOL     OW21030  13.466   2.311   2.302
73064SOL    HW121031  13.394   2.373   2.315
73064SOL    HW221032  13.483   2.313   2.208
73065SOL     OW21033   8.303  12.330   1.559
73065SOL    HW121034   8.376  12.293   1.609
73065SOL    HW221035   8.261  12.391   1.620
73066SOL     OW21036   9.723   1.724   1.199
73066SOL    HW121037   9.748   1.782   1.128
73066SOL    HW221038   9.796   1.663   1.208
73067SOL     OW21039  14.142   1.832   8.955
73067SOL    HW121040  14.072   1.839   9.020
73067SOL    HW221041  14.141   1.741   8.927
73068SOL     OW21042   2.116  12.012   2.701
73068SOL    HW121043   2.124  12.081   2.635
73068SOL    HW221044   2.024  12.014   2.727
73069SOL     OW21045   5.741   7.184  14.340
73069SOL    HW121046   5.695   7.181  14.256
73069SOL    HW221047   5.829   7.216  14.318
73070SOL     OW21048   9.696   2.530   9.665
73070SOL    HW121049   9.646   2.607   9.692
73070SOL    HW221050   9.726   2.551   9.576
73071SOL     OW21051   8.312  11.679  10.893
73071SOL    HW121052   8.230  11.710  10.854
73071SOL    HW221053   8.285  11.614  10.957
73072SOL     OW21054   2.837   2.703   3.097
73072SOL    HW121055   2.787   2.760   3.155
73072SOL    HW221056   2.774   2.674   3.031
73073SOL     OW21057  11.777   3.621   2.185
73073SOL    HW121058  11.825   3.587   2.261
73073SOL    HW221059  11.820   3.581   2.110
73074SOL     OW21060   6.052   5.000   0.539
73074SOL    HW121061   6.028   4.940   0.468
73074SOL    HW221062   6.119   4.953   0.589
73075SOL     OW21063  12.325  14.844   3.732
73075SOL    HW121064  12.355   0.051   3.690
73075SOL    HW221065  12.317  14.866   3.824
73076SOL     OW21066   8.406   7.033  10.370
73076SOL    HW121067   8.348   7.073  10.435
73076SOL    HW221068   8.350   6.971  10.323
73077SOL     OW21069  13.011   3.088  10.280
73077SOL    HW121070  12.917   3.109  10.279
73077SOL    HW221071  13.014   2.994  10.264
73078SOL     OW21072   8.659   5.977   0.478
73078SOL    HW121073   8.714   5.929   0.541
73078SOL    HW221074   8.665   6.068   0.507
73079SOL     OW21075   7.700   7.862   0.566
73079SOL    HW121076   7.639   7.905   0.626
73079SOL    HW221077   7.672   7.770   0.564
73080SOL     OW21078  11.303   0.427  11.162
73080SOL    HW121079  11.244   0.448  11.235
73080SOL    HW221080  11.281   0.337  11.139
73081SOL     OW21081   3.475   1.596   6.361
73081SOL    HW121082   3.520   1.675   6.332
73081SOL    HW221083   3.416   1.574   6.289
73082SOL     OW21084  13.184  14.764  10.217
73082SOL    HW121085  13.167  14.716  10.136
73082SOL    HW221086  13.105  14.816  10.230
73083SOL     OW21087   5.565   0.346   5.105
73083SOL    HW121088   5.648   0.338   5.152
73083SOL    HW221089   5.499   0.349   5.174
73084SOL     OW21090   4.789  12.676  10.958
73084SOL    HW121091   4.804  12.716  10.873
73084SOL    HW221092   4.843  12.597  10.957
73085SOL     OW21093  11.456   9.204  11.082
73085SOL    HW121094  11.550   9.204  11.064
73085SOL    HW221095  11.447   9.163  11.167
73086SOL     OW21096   0.778   9.784  14.765
73086SOL    HW121097   0.858   9.798  14.817
73086SOL    HW221098   0.805   9.804  14.675
73087SOL     OW21099   4.778   9.843   2.158
73087SOL    HW121100   4.702   9.899   2.146
73087SOL    HW221101   4.847   9.902   2.190
73088SOL     OW21102   5.292   2.629  10.875
73088SOL    HW121103   5.337   2.689  10.815
73088SOL    HW221104   5.285   2.547  10.825
73089SOL     OW21105   3.626  11.303  12.950
73089SOL    HW121106   3.637  11.231  13.011
73089SOL    HW221107   3.666  11.378  12.994
73090SOL     OW21108  12.380  11.626   2.916
73090SOL    HW121109  12.448  11.586   2.971
73090SOL    HW221110  12.397  11.591   2.829
73091SOL     OW21111   6.848   8.065  13.717
73091SOL    HW121112   6.902   8.104  13.786
73091SOL    HW221113   6.764   8.112  13.723
73092SOL     OW21114  11.788   1.220  11.405
73092SOL    HW121115  11.716   1.269  11.445
73092SOL    HW221116  11.860   1.228  11.468
73093SOL     OW21117  11.671   3.269  12.784
73093SOL    HW121118  11.631   3.221  12.857
73093SOL    HW221119  11.621   3.350  12.778
73094SOL     OW21120  12.919   8.827   1.332
73094SOL    HW121121  12.990   8.860   1.277
73094SOL    HW221122  12.958   8.814   1.418
73095SOL     OW21123  12.601  11.488   3.028
73095SOL    HW121124  12.695  11.469   3.032
73095SOL    HW221125  12.563  11.433   3.095
73096SOL     OW21126   5.078   4.016  10.538
73096SOL    HW121127   5.113   3.979  10.619
73096SOL    HW221128   4.995   4.058  10.564
73097SOL     OW21129  12.619   8.657   3.350
73097SOL    HW121130  12.618   8.696   3.437
73097SOL    HW221131  12.550   8.702   3.302
73098SOL     OW21132   4.001  11.076   7.270
73098SOL    HW121133   4.031  10.986   7.267
73098SOL    HW221134   3.906  11.070   7.275
73099SOL     OW21135   6.842  13.463  14.473
73099SOL    HW121136   6.843  13.537  14.412
73099SOL    HW221137   6.858  13.503  14.559
73100SOL     OW21138  10.511  13.024   5.032
73100SOL    HW121139  10.416  13.036   5.026
73100SOL    HW221140  10.526  12.934   5.006
73101SOL     OW21141   2.482   3.260   7.659
73101SOL    HW121142   2.534   3.316   7.601
73101SOL    HW221143   2.519   3.172   7.647
73102SOL     OW21144   3.881   4.451   2.056
73102SOL    HW121145   3.968   4.439   2.017
73102SOL    HW221146   3.831   4.374   2.028
73103SOL     OW21147   5.292   1.873  10.569
73103SOL    HW121148   5.214   1.841  10.524
73103SOL    HW221149   5.290   1.830  10.655
73104SOL     OW21150   2.249   0.212   5.347
73104SOL    HW121151   2.170   0.171   5.310
73104SOL    HW221152   2.237   0.205   5.441
73105SOL     OW21153   3.752   3.774   2.962
73105SOL    HW121154   3.671   3.816   2.934
73105SOL    HW221155   3.783   3.727   2.885
73106SOL     OW21156  12.652  12.039   4.080
73106SOL    HW121157  12.610  12.122   4.104
73106SOL    HW221158  12.745  12.054   4.094
73107SOL     OW21159   1.598  12.782   7.984
73107SOL    HW121160   1.626  12.712   8.043
73107SOL    HW221161   1.510  12.757   7.957
73108SOL     OW21162  10.610  11.398  10.300
73108SOL    HW121163  10.615  11.493  10.304
73108SOL    HW221164  10.651  11.368  10.381
73109SOL     OW21165   0.083   8.679   2.476
73109SOL    HW121166   0.057   8.587   2.470
73109SOL    HW221167   0.001   8.727   2.474
73110SOL     OW21168  14.848   8.275   3.828
73110SOL    HW121169  14.762   8.265   3.867
73110SOL    HW221170  14.844   8.223   3.747
73111SOL     OW21171  10.100   7.362   2.868
73111SOL    HW121172  10.172   7.347   2.929
73111SOL    HW221173  10.141   7.401   2.791
73112SOL     OW21174   8.478  12.626   0.321
73112SOL    HW121175   8.490  12.721   0.320
73112SOL    HW221176   8.492  12.601   0.412
73113SOL     OW21177   1.910  14.497   7.358
73113SOL    HW121178   1.960  14.433   7.307
73113SOL    HW221179   1.819  14.477   7.338
73114SOL     OW21180   9.649   5.400   1.550
73114SOL    HW121181   9.567   5.384   1.598
73114SOL    HW221182   9.718   5.371   1.610
73115SOL     OW21183   2.457  11.916  11.870
73115SOL    HW121184   2.428  12.006  11.854
73115SOL    HW221185   2.378  11.870  11.899
73116SOL     OW21186   2.642   3.244   8.697
73116SOL    HW121187   2.630   3.281   8.609
73116SOL    HW221188   2.705   3.173   8.685
73117SOL     OW21189  12.320   1.281   1.613
73117SOL    HW121190  12.324   1.224   1.536
73117SOL    HW221191  12.401   1.261   1.661
73118SOL     OW21192   4.895   4.410   0.946
73118SOL    HW121193   4.829   4.429   0.879
73118SOL    HW221194   4.868   4.327   0.984
73119SOL     OW21195  14.145  14.236   0.399
73119SOL    HW121196  14.192  14.161   0.363
73119SOL    HW221197  14.213  14.290   0.440
73120SOL     OW21198   5.345  12.939   6.662
73120SOL    HW121199   5.271  13.000   6.658
73120SOL    HW221200   5.309  12.856   6.632
73121SOL     OW21201   9.285  10.141   2.711
73121SOL    HW121202   9.372  10.167   2.743
73121SOL    HW221203   9.224  10.186   2.769
73122SOL     OW21204   6.142  12.713   1.189
73122SOL    HW121205   6.173  12.636   1.141
73122SOL    HW221206   6.127  12.682   1.278
73123SOL     OW21207  12.906   0.902  13.377
73123SOL    HW121208  12.944   0.815  13.391
73123SOL    HW221209  12.981   0.960  13.366
73124SOL     OW21210   1.634  14.122   3.798
73124SOL    HW121211   1.624  14.029   3.779
73124SOL    HW221212   1.678  14.125   3.883
73125SOL     OW21213  10.936   8.569   7.186
73125SOL    HW121214  10.843   8.582   7.167
73125SOL    HW221215  10.972   8.658   7.185
73126SOL     OW21216   5.017   9.191   3.619
73126SOL    HW121217   4.966   9.172   3.540
73126SOL    HW221218   5.042   9.106   3.653
73127SOL     OW21219   4.427   0.843  12.630
73127SOL    HW121220   4.414   0.916  12.569
73127SOL    HW221221   4.346   0.838  12.680
73128SOL     OW21222  10.436   1.744  13.910
73128SOL    HW121223  10.434   1.722  14.003
73128SOL    HW221224  10.345   1.734  13.881
73129SOL     OW21225   4.793   9.878  12.599
73129SOL    HW121226   4.757   9.793  12.572
73129SOL    HW221227   4.719   9.938  12.594
73130SOL     OW21228  12.739   8.851   5.941
73130SOL    HW121229  12.687   8.780   5.903
73130SOL    HW221230  12.674   8.915   5.969
73131SOL     OW21231   1.151  14.566  13.047
73131SOL    HW121232   1.218  14.628  13.018
73131SOL    HW221233   1.080  14.576  12.984
73132SOL     OW21234   4.403   2.664   5.102
73132SOL    HW121235   4.361   2.579   5.114
73132SOL    HW221236   4.399   2.705   5.188
73133SOL     OW21237   5.785   3.675   4.031
73133SOL    HW121238   5.820   3.585   4.028
73133SOL    HW221239   5.734   3.679   4.112
73134SOL     OW21240   4.015   6.376  14.303
73134SOL    HW121241   3.974   6.360  14.218
73134SOL    HW221242   4.027   6.289  14.341
73135SOL     OW21243  13.831   9.727  14.283
73135SOL    HW121244  13.826   9.816  14.248
73135SOL    HW221245  13.922   9.700  14.266
73136SOL     OW21246   9.230   5.555   6.319
73136SOL    HW121247   9.242   5.646   6.293
73136SOL    HW221248   9.232   5.557   6.415
73137SOL     OW21249   7.918  13.920  13.649
73137SOL    HW121250   7.911  13.827  13.667
73137SOL    HW221251   7.911  13.962  13.735
73138SOL     OW21252   8.443   8.253   8.983
73138SOL    HW121253   8.506   8.321   8.960
73138SOL    HW221254   8.376   8.299   9.035
73139SOL     OW21255  11.974  13.615  11.238
73139SOL    HW121256  12.000  13.621  11.146
73139SOL    HW221257  12.057  13.620  11.286
73140SOL     OW21258   3.124   4.014   7.035
73140SOL    HW121259   3.131   3.989   6.943
73140SOL    HW221260   3.215   4.031   7.062
73141SOL     OW21261   2.418   2.814   4.368
73141SOL    HW121262   2.379   2.796   4.454
73141SOL    HW221263   2.475   2.889   4.383
73142SOL     OW21264   1.473   6.504   6.405
73142SOL    HW121265   1.382   6.497   6.376
73142SOL    HW221266   1.495   6.596   6.394
73143SOL     OW21267   0.305   0.895   1.182
73143SOL    HW121268   0.384   0.840   1.189
73143SOL    HW221269   0.237   0.835   1.153
73144SOL     OW21270   4.711   0.731  14.135
73144SOL    HW121271   4.651   0.658  14.125
73144SOL    HW221272   4.655   0.808  14.142
73145SOL     OW21273   8.073   7.348   8.914
73145SOL    HW121274   8.048   7.382   8.828
73145SOL    HW221275   7.990   7.322   8.954
73146SOL     OW21276  14.368  14.688   2.833
73146SOL    HW121277  14.276  14.707   2.814
73146SOL    HW221278  14.415  14.712   2.753
73147SOL     OW21279   3.907   0.029   6.930
73147SOL    HW121280   3.968   0.052   6.860
73147SOL    HW221281   3.838   0.095   6.926
73148SOL     OW21282   3.373  13.487   4.660
73148SOL    HW121283   3.278  13.477   4.659
73148SOL    HW221284   3.397  13.499   4.568
73149SOL     OW21285   4.445  12.286   2.950
73149SOL    HW121286   4.403  12.248   2.873
73149SOL    HW221287   4.525  12.325   2.916
73150SOL     OW21288  10.744   0.061   6.623
73150SOL    HW121289  10.835   0.062   6.593
73150SOL    HW221290  10.748   0.091   6.713
73151SOL     OW21291   3.948   9.630   3.548
73151SOL    HW121292   3.913   9.541   3.549
73151SOL    HW221293   3.910   9.671   3.626
73152SOL     OW21294   4.780   7.975  10.634
73152SOL    HW121295   4.767   7.894  10.585
73152SOL    HW221296   4.693   8.013  10.640
73153SOL     OW21297   6.910  13.658   9.167
73153SOL    HW121298   6.991  13.708   9.158
73153SOL    HW221299   6.906  13.603   9.089
73154SOL     OW21300  10.685  13.557   4.380
73154SOL    HW121301  10.716  13.497   4.447
73154SOL    HW221302  10.702  13.512   4.297
73155SOL     OW21303   6.760   7.505   7.797
73155SOL    HW121304   6.761   7.598   7.818
73155SOL    HW221305   6.721   7.463   7.874
73156SOL     OW21306  12.432  10.462  13.153
73156SOL    HW121307  12.449  10.545  13.198
73156SOL    HW221308  12.511  10.411  13.166
73157SOL     OW21309  11.236   4.480  12.340
73157SOL    HW121310  11.268   4.497  12.429
73157SOL    HW221311  11.233   4.567  12.299
73158SOL     OW21312   6.699  14.558   1.361
73158SOL    HW121313   6.610  14.582   1.336
73158SOL    HW221314   6.705  14.465   1.338
73159SOL     OW21315  12.952  13.385   9.593
73159SOL    HW121316  12.953  13.316   9.659
73159SOL    HW221317  12.982  13.463   9.640
73160SOL     OW21318  13.693  10.121   3.836
73160SOL    HW121319  13.612  10.108   3.884
73160SOL    HW221320  13.746  10.177   3.893
73161SOL     OW21321  14.542   1.969   8.684
73161SOL    HW121322  14.575   1.993   8.598
73161SOL    HW221323  14.547   2.049   8.736
73162SOL     OW21324  12.636   1.384   1.513
73162SOL    HW121325  12.707   1.339   1.559
73162SOL    HW221326  12.677   1.417   1.433
73163SOL     OW21327   3.730  12.756   8.809
73163SOL    HW121328   3.712  12.743   8.902
73163SOL    HW221329   3.808  12.705   8.792
73164SOL     OW21330   9.601  12.808   7.657
73164SOL    HW121331   9.532  12.853   7.610
73164SOL    HW221332   9.628  12.737   7.598
73165SOL     OW21333  14.763   8.651   8.998
73165SOL    HW121334  14.729   8.564   8.978
73165SOL    HW221335  14.718   8.676   9.078
73166SOL     OW21336   9.968   1.825  10.445
73166SOL    HW121337   9.910   1.796  10.515
73166SOL    HW221338   9.939   1.776  10.368
73167SOL     OW21339  11.317  11.897   5.623
73167SOL    HW121340  11.336  11.902   5.529
73167SOL    HW221341  11.403  11.893   5.664
73168SOL     OW21342   4.196   3.942   9.161
73168SOL    HW121343   4.123   3.902   9.113
73168SOL    HW221344   4.160   4.026   9.192
73169SOL     OW21345   6.460   9.769  14.326
73169SOL    HW121346   6.483   9.796  14.237
73169SOL    HW221347   6.431   9.678  14.317
73170SOL     OW21348   0.189   3.899   4.849
73170SOL    HW121349   0.204   3.804   4.843
73170SOL    HW221350   0.274   3.934   4.877
73171SOL     OW21351  14.375  12.852  12.574
73171SOL    HW121352  14.300  12.874  12.518
73171SOL    HW221353  14.400  12.764  12.545
73172SOL     OW21354   8.970   4.957   0.547
73172SOL    HW121355   8.910   4.911   0.488
73172SOL    HW221356   8.913   5.009   0.603
73173SOL     OW21357   7.835  14.355   5.982
73173SOL    HW121358   7.851  14.277   6.035
73173SOL    HW221359   7.904  14.417   6.009
73174SOL     OW21360   1.160   6.494  11.155
73174SOL    HW121361   1.172   6.584  11.183
73174SOL    HW221362   1.176   6.442  11.234
73175SOL     OW21363   0.296  12.806   0.279
73175SOL    HW121364   0.273  12.781   0.369
73175SOL    HW221365   0.217  12.791   0.228
73176SOL     OW21366   4.982   5.135   3.623
73176SOL    HW121367   4.979   5.165   3.714
73176SOL    HW221368   4.890   5.117   3.601
73177SOL     OW21369   8.189   4.863   2.638
73177SOL    HW121370   8.252   4.927   2.670
73177SOL    HW221371   8.135   4.841   2.714
73178SOL     OW21372   0.135  10.377  14.349
73178SOL    HW121373   0.095  10.295  14.318
73178SOL    HW221374   0.185  10.352  14.427
73179SOL     OW21375  12.682   3.970   4.748
73179SOL    HW121376  12.740   3.989   4.821
73179SOL    HW221377  12.645   3.884   4.767
73180SOL     OW21378   9.097   5.485   0.201
73180SOL    HW121379   9.183   5.448   0.181
73180SOL    HW221380   9.066   5.435   0.277
73181SOL     OW21381  10.436   1.400  14.384
73181SOL    HW121382  10.380   1.470  14.417
73181SOL    HW221383  10.375   1.337  14.345
73182SOL     OW21384  11.813  12.736   7.154
73182SOL    HW121385  11.824  12.811   7.212
73182SOL    HW221386  11.766  12.770   7.079
73183SOL     OW21387   0.092  13.051  12.728
73183SOL    HW121388   0.129  13.139  12.724
73183SOL    HW221389   0.008  13.061  12.773
73184SOL     OW21390   3.389  11.049  13.641
73184SOL    HW121391   3.383  11.086  13.730
73184SOL    HW221392   3.339  11.111  13.587
73185SOL     OW21393   7.980   1.426   6.503
73185SOL    HW121394   7.925   1.361   6.547
73185SOL    HW221395   7.936   1.442   6.420
73186SOL     OW21396  13.874  14.859  10.309
73186SOL    HW121397  13.849   0.018  10.395
73186SOL    HW221398  13.970  14.867  10.307
73187SOL     OW21399   8.922   9.449  12.768
73187SOL    HW121400   8.863   9.451  12.843
73187SOL    HW221401   8.873   9.402  12.700
73188SOL     OW21402  14.398   8.423   6.824
73188SOL    HW121403  14.350   8.398   6.746
73188SOL    HW221404  14.414   8.341   6.870
73189SOL     OW21405   9.556  12.966   0.347
73189SOL    HW121406   9.602  13.050   0.335
73189SOL    HW221407   9.466  12.985   0.319
73190SOL     OW21408  13.619   3.062   2.074
73190SOL    HW121409  13.685   3.122   2.108
73190SOL    HW221410  13.536   3.094   2.109
73191SOL     OW21411  10.254   7.222   5.244
73191SOL    HW121412  10.332   7.267   5.215
73191SOL    HW221413  10.181   7.272   5.207
73192SOL     OW21414   2.663   9.807   6.211
73192SOL    HW121415   2.604   9.875   6.244
73192SOL    HW221416   2.736   9.855   6.172
73193SOL     OW21417  10.934   0.694  12.092
73193SOL    HW121418  11.026   0.683  12.067
73193SOL    HW221419  10.913   0.616  12.142
73194SOL     OW21420  14.237   2.098   8.912
73194SOL    HW121421  14.254   2.116   8.819
73194SOL    HW221422  14.199   2.011   8.913
73195SOL     OW21423   1.399   4.542   4.172
73195SOL    HW121424   1.343   4.605   4.218
73195SOL    HW221425   1.339   4.475   4.140
73196SOL     OW21426  12.305   2.683  13.513
73196SOL    HW121427  12.280   2.615  13.450
73196SOL    HW221428  12.391   2.655  13.546
73197SOL     OW21429   8.641  10.453  12.897
73197SOL    HW121430   8.634  10.530  12.952
73197SOL    HW221431   8.686  10.388  12.952
73198SOL     OW21432   7.571   5.150   7.854
73198SOL    HW121433   7.519   5.070   7.856
73198SOL    HW221434   7.629   5.140   7.778
73199SOL     OW21435   4.351  10.368   6.131
73199SOL    HW121436   4.279  10.306   6.121
73199SOL    HW221437   4.336  10.409   6.216
73200SOL     OW21438  12.726  11.827   0.770
73200SOL    HW121439  12.745  11.853   0.861
73200SOL    HW221440  12.808  11.787   0.740
73201SOL     OW21441   5.714   2.520   7.064
73201SOL    HW121442   5.653   2.562   7.124
73201SOL    HW221443   5.666   2.513   6.982
73202SOL     OW21444  12.312  11.854   9.877
73202SOL    HW121445  12.341  11.937   9.915
73202SOL    HW221446  12.305  11.795   9.952
73203SOL     OW21447  13.303   9.628  10.124
73203SOL    HW121448  13.374   9.612  10.063
73203SOL    HW221449  13.259   9.543  10.133
73204SOL     OW21450  13.127  14.666   0.478
73204SOL    HW121451  13.169  14.618   0.549
73204SOL    HW221452  13.125  14.757   0.508
73205SOL     OW21453   3.413  14.450   3.024
73205SOL    HW121454   3.333  14.459   3.076
73205SOL    HW221455   3.405  14.365   2.981
73206SOL     OW21456   7.344   5.206   8.114
73206SOL    HW121457   7.362   5.137   8.178
73206SOL    HW221458   7.287   5.163   8.049
73207SOL     OW21459   1.656   1.299   8.298
73207SOL    HW121460   1.581   1.259   8.254
73207SOL    HW221461   1.733   1.256   8.259
73208SOL     OW21462   7.891   4.958   9.191
73208SOL    HW121463   7.972   5.008   9.187
73208SOL    HW221464   7.828   5.018   9.231
73209SOL     OW21465   1.572   5.554   9.660
73209SOL    HW121466   1.544   5.597   9.579
73209SOL    HW221467   1.543   5.613   9.730
73210SOL     OW21468   2.367  13.751   4.150
73210SOL    HW121469   2.381  13.837   4.190
73210SOL    HW221470   2.329  13.698   4.219
73211SOL     OW21471  10.677   4.130   9.451
73211SOL    HW121472  10.613   4.147   9.520
73211SOL    HW221473  10.659   4.197   9.385
73212SOL     OW21474   0.053   7.482   1.442
73212SOL    HW121475   0.036   7.388   1.450
73212SOL    HW221476   0.072   7.510   1.531
73213SOL     OW21477   0.557   3.843  12.427
73213SOL    HW121478   0.640   3.846  12.475
73213SOL    HW221479   0.537   3.935  12.410
73214SOL     OW21480   2.779  12.346   4.619
73214SOL    HW121481   2.690  12.319   4.639
73214SOL    HW221482   2.794  12.315   4.529
73215SOL     OW21483   6.624  14.158   4.110
73215SOL    HW121484   6.572  14.084   4.142
73215SOL    HW221485   6.667  14.125   4.031
73216SOL     OW21486  12.499  13.406   3.881
73216SOL    HW121487  12.594  13.414   3.879
73216SOL    HW221488  12.473  13.443   3.965
73217SOL     OW21489   1.723   6.009   7.331
73217SOL    HW121490   1.647   6.003   7.388
73217SOL    HW221491   1.725   5.926   7.283
73218SOL     OW21492   3.469   1.037   9.339
73218SOL    HW121493   3.559   1.054   9.313
73218SOL    HW221494   3.464   0.942   9.349
73219SOL     OW21495  10.045  14.056  10.450
73219SOL    HW121496   9.949  14.059  10.442
73219SOL    HW221497  10.061  14.038  10.543
73220SOL     OW21498  14.692   3.072   0.719
73220SOL    HW121499  14.786   3.057   0.716
73220SOL    HW221500  14.672   3.078   0.812
73221SOL     OW21501  13.894  10.411   6.422
73221SOL    HW121502  13.839  10.482   6.391
73221SOL    HW221503  13.913  10.359   6.344
73222SOL     OW21504  14.827   2.062   8.956
73222SOL    HW121505  14.731   2.058   8.949
73222SOL    HW221506  14.858   2.003   8.887
73223SOL     OW21507   6.677  10.908   3.311
73223SOL    HW121508   6.727  10.919   3.392
73223SOL    HW221509   6.709  10.825   3.275
73224SOL     OW21510   9.938  13.189   7.152
73224SOL    HW121511   9.854  13.224   7.122
73224SOL    HW221512   9.931  13.094   7.137
73225SOL     OW21513   5.107   2.942   4.845
73225SOL    HW121514   5.056   2.870   4.808
73225SOL    HW221515   5.130   2.912   4.933
73226SOL     OW21516  12.175   5.480  13.903
73226SOL    HW121517  12.216   5.537  13.967
73226SOL    HW221518  12.239   5.410  13.887
73227SOL     OW21519  11.862   0.924   6.402
73227SOL    HW121520  11.772   0.909   6.372
73227SOL    HW221521  11.855   0.938   6.496
73228SOL     OW21522   1.329   4.546   6.077
73228SOL    HW121523   1.239   4.575   6.065
73228SOL    HW221524   1.359   4.522   5.989
73229SOL     OW21525  14.064   7.191   1.104
73229SOL    HW121526  14.066   7.275   1.059
73229SOL    HW221527  14.055   7.213   1.196
73230SOL     OW21528   8.995   0.268   5.560
73230SOL    HW121529   9.043   0.217   5.626
73230SOL    HW221530   9.056   0.339   5.537
73231SOL     OW21531  13.713  13.357  12.908
73231SOL    HW121532  13.744  13.407  12.984
73231SOL    HW221533  13.772  13.282  12.903
73232SOL     OW21534  11.366   6.286  14.403
73232SOL    HW121535  11.292   6.326  14.358
73232SOL    HW221536  11.438   6.348  14.392
73233SOL     OW21537   9.682  13.686   5.314
73233SOL    HW121538   9.655  13.723   5.230
73233SOL    HW221539   9.752  13.625   5.293
73234SOL     OW21540   4.281   4.797   4.609
73234SOL    HW121541   4.356   4.836   4.564
73234SOL    HW221542   4.216   4.867   4.613
73235SOL     OW21543   8.859   0.224  12.885
73235SOL    HW121544   8.871   0.139  12.926
73235SOL    HW221545   8.865   0.287  12.957
73236SOL     OW21546   0.509   4.283   4.786
73236SOL    HW121547   0.414   4.292   4.790
73236SOL    HW221548   0.535   4.255   4.874
73237SOL     OW21549   5.451   1.619   8.707
73237SOL    HW121550   5.462   1.705   8.667
73237SOL    HW221551   5.540   1.595   8.735
73238SOL     OW21552   9.797  10.649  11.887
73238SOL    HW121553   9.729  10.590  11.921
73238SOL    HW221554   9.836  10.688  11.966
73239SOL     OW21555   3.914  13.065   7.508
73239SOL    HW121556   3.974  13.059   7.433
73239SOL    HW221557   3.930  12.986   7.559
73240SOL     OW21558  13.326  14.832   4.598
73240SOL    HW121559  13.354  14.770   4.666
73240SOL    HW221560  13.239  14.803   4.574
73241SOL     OW21561  14.801   4.369   0.363
73241SOL    HW121562  14.818   4.441   0.302
73241SOL    HW221563  14.736   4.315   0.318
73242SOL     OW21564  13.231  13.976  13.101
73242SOL    HW121565  13.237  14.059  13.147
73242SOL    HW221566  13.258  13.996  13.011
73243SOL     OW21567   3.842   1.363   2.992
73243SOL    HW121568   3.796   1.387   3.072
73243SOL    HW221569   3.933   1.349   3.019
73244SOL     OW21570   1.369  12.416   0.572
73244SOL    HW121571   1.407  12.336   0.537
73244SOL    HW221572   1.367  12.476   0.497
73245SOL     OW21573   8.678   7.713   7.076
73245SOL    HW121574   8.678   7.631   7.126
73245SOL    HW221575   8.655   7.780   7.140
73246SOL     OW21576   0.713   0.714  12.670
73246SOL    HW121577   0.762   0.788  12.633
73246SOL    HW221578   0.651   0.690  12.601
73247SOL     OW21579   4.600   0.471  12.031
73247SOL    HW121580   4.679   0.526  12.025
73247SOL    HW221581   4.621   0.395  11.977
73248SOL     OW21582   0.791  11.873   1.965
73248SOL    HW121583   0.812  11.799   1.909
73248SOL    HW221584   0.730  11.926   1.914
73249SOL     OW21585   5.533   6.970   9.633
73249SOL    HW121586   5.551   6.882   9.667
73249SOL    HW221587   5.572   7.029   9.698
73250SOL     OW21588   9.650   1.269  12.803
73250SOL    HW121589   9.738   1.261  12.841
73250SOL    HW221590   9.591   1.240  12.872
73251SOL     OW21591   9.356   2.340  14.354
73251SOL    HW121592   9.372   2.426  14.315
73251SOL    HW221593   9.323   2.286  14.282
73252SOL     OW21594  14.689   1.312   2.185
73252SOL    HW121595  14.627   1.271   2.125
73252SOL    HW221596  14.769   1.260   2.178
73253SOL     OW21597  11.067   6.115  10.066
73253SOL    HW121598  11.083   6.144   9.976
73253SOL    HW221599  11.144   6.143  10.115
73254SOL     OW21600  11.217   0.532   2.067
73254SOL    HW121601  11.225   0.596   1.996
73254SOL    HW221602  11.246   0.450   2.028
73255SOL     OW21603   0.694   9.508   1.096
73255SOL    HW121604   0.773   9.501   1.148
73255SOL    HW221605   0.717   9.566   1.024
73256SOL     OW21606  13.809   0.279  12.127
73256SOL    HW121607  13.747   0.248  12.061
73256SOL    HW221608  13.779   0.368  12.148
73257SOL     OW21609   2.831   7.574   7.299
73257SOL    HW121610   2.742   7.599   7.274
73257SOL    HW221611   2.886   7.606   7.228
73258SOL     OW21612   5.582   2.342  10.238
73258SOL    HW121613   5.664   2.391  10.251
73258SOL    HW221614   5.526   2.370  10.310
73259SOL     OW21615   1.275   6.722  12.365
73259SOL    HW121616   1.263   6.711  12.271
73259SOL    HW221617   1.355   6.774  12.373
73260SOL     OW21618   3.149  12.570   7.781
73260SOL    HW121619   3.215  12.599   7.718
73260SOL    HW221620   3.093  12.647   7.793
73261SOL     OW21621  12.652  12.704  13.917
73261SOL    HW121622  12.700  12.786  13.929
73261SOL    HW221623  12.719  12.636  13.914
73262SOL     OW21624  13.558  12.479  14.693
73262SOL    HW121625  13.552  12.468  14.599
73262SOL    HW221626  13.640  12.435  14.717
73263SOL     OW21627   5.955   7.512  13.497
73263SOL    HW121628   5.974   7.441  13.558
73263SOL    HW221629   5.862   7.502  13.478
73264SOL     OW21630   7.746  13.294  12.975
73264SOL    HW121631   7.798  13.218  13.003
73264SOL    HW221632   7.694  13.316  13.052
73265SOL     OW21633  14.053   7.062  10.086
73265SOL    HW121634  14.129   7.040  10.033
73265SOL    HW221635  14.004   7.125  10.033
73266SOL     OW21636   3.483   8.826  14.082
73266SOL    HW121637   3.499   8.805  14.175
73266SOL    HW221638   3.486   8.921  14.078
73267SOL     OW21639   0.512   2.419   2.900
73267SOL    HW121640   0.466   2.356   2.955
73267SOL    HW221641   0.499   2.503   2.943
73268SOL     OW21642   3.375   9.107  10.184
73268SOL    HW121643   3.369   9.198  10.157
73268SOL    HW221644   3.392   9.110  10.278
73269SOL     OW21645   9.436  14.087   0.221
73269SOL    HW121646   9.493  14.055   0.292
73269SOL    HW221647   9.477  14.168   0.193
73270SOL     OW21648   7.140   4.016   2.889
73270SOL    HW121649   7.071   3.988   2.830
73270SOL    HW221650   7.144   4.111   2.878
73271SOL     OW21651  12.377  10.521   7.598
73271SOL    HW121652  12.363  10.507   7.505
73271SOL    HW221653  12.471  10.529   7.608
73272SOL     OW21654   5.815  11.967   8.001
73272SOL    HW121655   5.763  11.890   8.022
73272SOL    HW221656   5.795  12.030   8.070
73273SOL     OW21657  14.254   0.242   1.518
73273SOL    HW121658  14.324   0.304   1.540
73273SOL    HW221659  14.271   0.166   1.574
73274SOL     OW21660   2.153   1.268   7.673
73274SOL    HW121661   2.235   1.280   7.624
73274SOL    HW221662   2.144   1.347   7.726
73275SOL     OW21663  14.291  10.716  12.792
73275SOL    HW121664  14.326  10.795  12.832
73275SOL    HW221665  14.336  10.710  12.707
73276SOL     OW21666  12.806   8.520   2.692
73276SOL    HW121667  12.760   8.550   2.613
73276SOL    HW221668  12.898   8.540   2.674
73277SOL     OW21669  13.973  13.318   8.557
73277SOL    HW121670  13.879  13.307   8.542
73277SOL    HW221671  13.989  13.411   8.541
73278SOL     OW21672  11.944   9.857  13.223
73278SOL    HW121673  11.879   9.828  13.287
73278SOL    HW221674  12.024   9.810  13.246
73279SOL     OW21675   8.184  13.131   8.806
73279SOL    HW121676   8.089  13.128   8.810
73279SOL    HW221677   8.206  13.223   8.819
73280SOL     OW21678   3.550   9.008   3.168
73280SOL    HW121679   3.458   9.028   3.149
73280SOL    HW221680   3.557   9.015   3.263
73281SOL     OW21681   4.577  11.750  13.117
73281SOL    HW121682   4.655  11.783  13.162
73281SOL    HW221683   4.549  11.822  13.061
73282SOL     OW21684   2.958   2.064   7.248
73282SOL    HW121685   3.032   2.031   7.299
73282SOL    HW221686   2.950   2.156   7.274
73283SOL     OW21687   7.845   4.824   4.114
73283SOL    HW121688   7.926   4.872   4.135
73283SOL    HW221689   7.874   4.733   4.105
73284SOL     OW21690   7.947   4.080   1.381
73284SOL    HW121691   7.986   4.167   1.377
73284SOL    HW221692   7.857   4.092   1.350
73285SOL     OW21693   2.183   4.868   4.296
73285SOL    HW121694   2.266   4.911   4.277
73285SOL    HW221695   2.185   4.852   4.390
73286SOL     OW21696   4.217   1.758  11.421
73286SOL    HW121697   4.178   1.682  11.464
73286SOL    HW221698   4.205   1.830  11.483
73287SOL     OW21699   2.155   7.765   1.142
73287SOL    HW121700   2.179   7.728   1.227
73287SOL    HW221701   2.130   7.855   1.161
73288SOL     OW21702   7.579   0.963   6.729
73288SOL    HW121703   7.636   0.952   6.652
73288SOL    HW221704   7.579   0.878   6.771
73289SOL     OW21705   8.301   0.048   1.934
73289SOL    HW121706   8.223   0.034   1.880
73289SOL    HW221707   8.372   0.060   1.871
73290SOL     OW21708   1.946   4.114  10.343
73290SOL    HW121709   1.959   4.175  10.416
73290SOL    HW221710   1.994   4.036  10.368
73291SOL     OW21711   8.832   2.158   2.367
73291SOL    HW121712   8.827   2.195   2.278
73291SOL    HW221713   8.815   2.065   2.354
73292SOL     OW21714   7.395   1.145  13.347
73292SOL    HW121715   7.346   1.064  13.330
73292SOL    HW221716   7.351   1.184  13.422
73293SOL     OW21717  11.658   3.631   1.674
73293SOL    HW121718  11.701   3.698   1.726
73293SOL    HW221719  11.721   3.560   1.669
73294SOL     OW21720  10.529  10.309  14.535
73294SOL    HW121721  10.487  10.263  14.462
73294SOL    HW221722  10.582  10.242  14.577
73295SOL     OW21723  12.547   4.351   4.866
73295SOL    HW121724  12.547   4.427   4.924
73295SOL    HW221725  12.496   4.378   4.790
73296SOL     OW21726   4.428   1.819  13.177
73296SOL    HW121727   4.467   1.776  13.253
73296SOL    HW221728   4.475   1.783  13.102
73297SOL     OW21729   3.311   1.060   3.858
73297SOL    HW121730   3.251   1.080   3.929
73297SOL    HW221731   3.326   0.966   3.864
73298SOL     OW21732  13.780   2.358  14.288
73298SOL    HW121733  13.796   2.435  14.342
73298SOL    HW221734  13.703   2.382  14.236
73299SOL     OW21735   6.951   3.619   2.338
73299SOL    HW121736   7.035   3.594   2.377
73299SOL    HW221737   6.886   3.577   2.393
73300SOL     OW21738  12.921   9.521   1.206
73300SOL    HW121739  12.947   9.481   1.289
73300SOL    HW221740  12.887   9.607   1.231
73301SOL     OW21741   4.362   5.860  10.560
73301SOL    HW121742   4.324   5.841  10.474
73301SOL    HW221743   4.435   5.919  10.541
73302SOL     OW21744  13.159   5.286   8.894
73302SOL    HW121745  13.180   5.221   8.961
73302SOL    HW221746  13.228   5.276   8.828
73303SOL     OW21747   9.774   6.225   0.178
73303SOL    HW121748   9.820   6.231   0.262
73303SOL    HW221749   9.698   6.170   0.196
73304SOL     OW21750   1.299   8.402  11.392
73304SOL    HW121751   1.234   8.473  11.389
73304SOL    HW221752   1.376   8.442  11.431
73305SOL     OW21753  13.652   3.535   3.439
73305SOL    HW121754  13.646   3.616   3.490
73305SOL    HW221755  13.701   3.475   3.496
73306SOL     OW21756   6.512  12.330  12.064
73306SOL    HW121757   6.490  12.392  12.133
73306SOL    HW221758   6.593  12.362  12.026
73307SOL     OW21759   0.432   4.976  14.102
73307SOL    HW121760   0.417   4.894  14.056
73307SOL    HW221761   0.502   5.019  14.053
73308SOL     OW21762   3.962  10.214   9.436
73308SOL    HW121763   4.057  10.211   9.424
73308SOL    HW221764   3.928  10.228   9.347
73309SOL     OW21765   1.746   2.530   8.406
73309SOL    HW121766   1.754   2.546   8.500
73309SOL    HW221767   1.827   2.564   8.369
73310SOL     OW21768   6.342   1.842  13.018
73310SOL    HW121769   6.276   1.902  12.983
73310SOL    HW221770   6.305   1.809  13.100
73311SOL     OW21771   1.160   5.322   7.884
73311SOL    HW121772   1.100   5.348   7.815
73311SOL    HW221773   1.104   5.300   7.958
73312SOL     OW21774   7.132  14.274  12.500
73312SOL    HW121775   7.121  14.179  12.493
73312SOL    HW221776   7.053  14.310  12.459
73313SOL     OW21777   4.238   1.919   4.408
73313SOL    HW121778   4.214   1.835   4.368
73313SOL    HW221779   4.311   1.951   4.355
73314SOL     OW21780   6.650   5.989  14.649
73314SOL    HW121781   6.713   5.922  14.621
73314SOL    HW221782   6.615   6.024  14.567
73315SOL     OW21783  12.349   1.546   8.732
73315SOL    HW121784  12.269   1.562   8.783
73315SOL    HW221785  12.403   1.624   8.748
73316SOL     OW21786  12.592  14.125  11.037
73316SOL    HW121787  12.650  14.157  11.106
73316SOL    HW221788  12.634  14.156  10.956
73317SOL     OW21789  10.126   2.117  12.864
73317SOL    HW121790  10.073   2.069  12.801
73317SOL    HW221791  10.062   2.159  12.922
73318SOL     OW21792   3.915   5.397  12.833
73318SOL    HW121793   3.919   5.327  12.768
73318SOL    HW221794   3.892   5.352  12.915
73319SOL     OW21795   5.350   1.987  12.935
73319SOL    HW121796   5.346   2.080  12.911
73319SOL    HW221797   5.361   1.941  12.852
73320SOL     OW21798   8.719   0.074   1.580
73320SOL    HW121799   8.809   0.040   1.572
73320SOL    HW221800   8.730   0.168   1.592
73321SOL     OW21801   4.376   5.290   2.992
73321SOL    HW121802   4.320   5.329   3.060
73321SOL    HW221803   4.441   5.358   2.972
73322SOL     OW21804   5.851   3.403   1.471
73322SOL    HW121805   5.939   3.369   1.482
73322SOL    HW221806   5.838   3.408   1.376
73323SOL     OW21807  14.186   2.626   3.070
73323SOL    HW121808  14.219   2.702   3.023
73323SOL    HW221809  14.213   2.640   3.161
73324SOL     OW21810  11.297   7.559  13.548
73324SOL    HW121811  11.322   7.637  13.598
73324SOL    HW221812  11.242   7.593  13.477
73325SOL     OW21813   5.867   1.312   7.152
73325SOL    HW121814   5.856   1.231   7.201
73325SOL    HW221815   5.800   1.308   7.083
73326SOL     OW21816  14.357  10.018  11.850
73326SOL    HW121817  14.374  10.110  11.834
73326SOL    HW221818  14.421   9.992  11.917
73327SOL     OW21819   4.485   5.527   2.529
73327SOL    HW121820   4.425   5.530   2.603
73327SOL    HW221821   4.564   5.487   2.565
73328SOL     OW21822  14.491   8.179   7.977
73328SOL    HW121823  14.401   8.195   8.002
73328SOL    HW221824  14.487   8.105   7.916
73329SOL     OW21825   6.108  11.649   8.101
73329SOL    HW121826   6.070  11.608   8.024
73329SOL    HW221827   6.117  11.578   8.164
73330SOL     OW21828  14.333   5.200   2.077
73330SOL    HW121829  14.294   5.283   2.049
73330SOL    HW221830  14.394   5.225   2.146
73331SOL     OW21831   4.038   0.355   7.897
73331SOL    HW121832   4.079   0.320   7.819
73331SOL    HW221833   3.953   0.311   7.902
73332SOL     OW21834   5.498   1.249   1.371
73332SOL    HW121835   5.543   1.328   1.341
73332SOL    HW221836   5.474   1.268   1.462
73333SOL     OW21837  10.216   2.685  12.299
73333SOL    HW121838  10.267   2.607  12.275
73333SOL    HW221839  10.156   2.698  12.226
73334SOL     OW21840  10.726   8.151   6.784
73334SOL    HW121841  10.703   8.224   6.841
73334SOL    HW221842  10.817   8.165   6.761
73335SOL     OW21843   6.628   2.039   4.666
73335SOL    HW121844   6.565   1.972   4.693
73335SOL    HW221845   6.617   2.109   4.730
73336SOL     OW21846  12.225   8.397  14.463
73336SOL    HW121847  12.239   8.477  14.514
73336SOL    HW221848  12.241   8.326  14.525
73337SOL     OW21849   5.212   7.474   9.312
73337SOL    HW121850   5.249   7.562   9.324
73337SOL    HW221851   5.147   7.465   9.382
73338SOL     OW21852   0.685   3.688  12.785
73338SOL    HW121853   0.656   3.688  12.876
73338SOL    HW221854   0.742   3.765  12.778
73339SOL     OW21855   6.336   5.827   1.909
73339SOL    HW121856   6.295   5.742   1.925
73339SOL    HW221857   6.286   5.863   1.836
73340SOL     OW21858  14.760   9.868   8.525
73340SOL    HW121859  14.679   9.886   8.477
73340SOL    HW221860  14.750   9.778   8.556
73341SOL     OW21861  14.041  11.013  11.361
73341SOL    HW121862  14.068  10.964  11.439
73341SOL    HW221863  14.040  10.948  11.291
73342SOL     OW21864   8.620   5.001   3.970
73342SOL    HW121865   8.571   5.082   3.985
73342SOL    HW221866   8.574   4.935   4.022
73343SOL     OW21867   8.965   6.052   9.890
73343SOL    HW121868   8.958   5.958   9.908
73343SOL    HW221869   8.875   6.085   9.898
73344SOL     OW21870  12.492  11.130   9.545
73344SOL    HW121871  12.538  11.214   9.544
73344SOL    HW221872  12.555  11.068   9.580
73345SOL     OW21873   9.615   1.387  11.773
73345SOL    HW121874   9.692   1.385  11.716
73345SOL    HW221875   9.633   1.458  11.835
73346SOL     OW21876  10.391   9.008   9.170
73346SOL    HW121877  10.470   8.970   9.208
73346SOL    HW221878  10.420   9.090   9.130
73347SOL     OW21879   7.753   6.400   9.450
73347SOL    HW121880   7.845   6.396   9.423
73347SOL    HW221881   7.756   6.422   9.543
73348SOL     OW21882  11.084   8.893  10.478
73348SOL    HW121883  11.074   8.846  10.561
73348SOL    HW221884  11.144   8.964  10.497
73349SOL     OW21885   4.067  12.036  14.553
73349SOL    HW121886   4.070  12.132  14.545
73349SOL    HW221887   4.147  12.015  14.601
73350SOL     OW21888  13.218   4.041   7.755
73350SOL    HW121889  13.289   3.978   7.743
73350SOL    HW221890  13.205   4.081   7.669
73351SOL     OW21891   7.571  13.425  10.328
73351SOL    HW121892   7.552  13.334  10.351
73351SOL    HW221893   7.664  13.436  10.347
73352SOL     OW21894  12.419  11.553   4.440
73352SOL    HW121895  12.436  11.521   4.351
73352SOL    HW221896  12.343  11.503   4.469
73353SOL     OW21897  13.469   6.988   3.091
73353SOL    HW121898  13.426   6.906   3.117
73353SOL    HW221899  13.562   6.970   3.104
73354SOL     OW21900   1.450   4.068   2.272
73354SOL    HW121901   1.364   4.102   2.247
73354SOL    HW221902   1.512   4.120   2.221
73355SOL     OW21903  10.780   3.406  13.860
73355SOL    HW121904  10.707   3.345  13.849
73355SOL    HW221905  10.770   3.468  13.787
73356SOL     OW21906  12.613   2.063   7.009
73356SOL    HW121907  12.529   2.063   6.963
73356SOL    HW221908  12.679   2.065   6.940
73357SOL     OW21909  11.277   2.727  14.407
73357SOL    HW121910  11.311   2.644  14.440
73357SOL    HW221911  11.227   2.763  14.481
73358SOL     OW21912   1.628   3.505  13.171
73358SOL    HW121913   1.569   3.529  13.100
73358SOL    HW221914   1.716   3.511  13.133
73359SOL     OW21915   7.741   2.053  12.833
73359SOL    HW121916   7.708   2.132  12.875
73359SOL    HW221917   7.800   2.015  12.898
73360SOL     OW21918  10.524   2.433  14.832
73360SOL    HW121919  10.429   2.424  14.844
73360SOL    HW221920  10.538   2.527  14.822
73361SOL     OW21921   9.570  10.539  14.092
73361SOL    HW121922   9.664  10.556  14.087
73361SOL    HW221923   9.548  10.552  14.184
73362SOL     OW21924  12.089  12.256  13.482
73362SOL    HW121925  12.135  12.305  13.551
73362SOL    HW221926  12.013  12.310  13.461
73363SOL     OW21927   9.178   1.428   0.741
73363SOL    HW121928   9.236   1.373   0.793
73363SOL    HW221929   9.129   1.366   0.686
73364SOL     OW21930   2.074   9.636   6.685
73364SOL    HW121931   2.129   9.558   6.676
73364SOL    HW221932   2.044   9.634   6.776
73365SOL     OW21933   7.222   9.510  11.337
73365SOL    HW121934   7.224   9.562  11.257
73365SOL    HW221935   7.136   9.528  11.375
73366SOL     OW21936   1.534  13.506  13.666
73366SOL    HW121937   1.550  13.584  13.613
73366SOL    HW221938   1.445  13.479  13.641
73367SOL     OW21939   5.181  13.750   3.453
73367SOL    HW121940   5.189  13.825   3.394
73367SOL    HW221941   5.118  13.780   3.519
73368SOL     OW21942  10.170   3.961   5.721
73368SOL    HW121943  10.085   3.943   5.682
73368SOL    HW221944  10.151   4.008   5.802
73369SOL     OW21945   9.277   2.157  10.161
73369SOL    HW121946   9.302   2.091  10.224
73369SOL    HW221947   9.350   2.160  10.099
73370SOL     OW21948   2.216   1.756  13.160
73370SOL    HW121949   2.264   1.673  13.168
73370SOL    HW221950   2.220   1.776  13.066
73371SOL     OW21951   4.189  13.722   5.076
73371SOL    HW121952   4.189  13.781   5.151
73371SOL    HW221953   4.120  13.658   5.095
73372SOL     OW21954   5.332   0.297   8.268
73372SOL    HW121955   5.332   0.393   8.268
73372SOL    HW221956   5.369   0.273   8.353
73373SOL     OW21957   8.995   2.988   7.289
73373SOL    HW121958   9.073   3.032   7.257
73373SOL    HW221959   9.026   2.932   7.360
73374SOL     OW21960   5.954  12.391  11.691
73374SOL    HW121961   5.995  12.477  11.699
73374SOL    HW221962   6.007  12.346  11.624
73375SOL     OW21963   5.729   9.003   8.970
73375SOL    HW121964   5.678   8.934   8.928
73375SOL    HW221965   5.800   8.958   9.015
73376SOL     OW21966   0.553   6.574   0.617
73376SOL    HW121967   0.612   6.500   0.602
73376SOL    HW221968   0.481   6.537   0.667
73377SOL     OW21969   9.215   8.773   1.577
73377SOL    HW121970   9.188   8.784   1.486
73377SOL    HW221971   9.178   8.849   1.622
73378SOL     OW21972  12.369   8.835   3.139
73378SOL    HW121973  12.362   8.740   3.143
73378SOL    HW221974  12.437   8.852   3.074
73379SOL     OW21975   6.855   8.702   0.239
73379SOL    HW121976   6.932   8.755   0.222
73379SOL    HW221977   6.796   8.721   0.166
73380SOL     OW21978   6.234   8.188   8.356
73380SOL    HW121979   6.328   8.202   8.344
73380SOL    HW221980   6.226   8.164   8.448
73381SOL     OW21981  13.478   1.819  14.375
73381SOL    HW121982  13.483   1.732  14.415
73381SOL    HW221983  13.568   1.839  14.350
73382SOL     OW21984   0.062   5.469   2.289
73382SOL    HW121985   0.095   5.410   2.357
73382SOL    HW221986   0.115   5.549   2.300
73383SOL     OW21987   6.953  11.912  10.883
73383SOL    HW121988   6.912  11.825  10.887
73383SOL    HW221989   6.979  11.921  10.791
73384SOL     OW21990   2.834   4.511   7.140
73384SOL    HW121991   2.903   4.453   7.108
73384SOL    HW221992   2.787   4.538   7.062
73385SOL     OW21993   0.482   7.101   7.590
73385SOL    HW121994   0.390   7.102   7.564
73385SOL    HW221995   0.503   7.192   7.610
73386SOL     OW21996   4.541   7.768  10.814
73386SOL    HW121997   4.458   7.752  10.769
73386SOL    HW221998   4.545   7.863  10.825
73387SOL     OW21999  11.558   8.020   3.847
73387SOL    HW122000  11.602   7.938   3.824
73387SOL    HW222001  11.609   8.054   3.920
73388SOL     OW22002   3.898   7.454  14.575
73388SOL    HW122003   3.957   7.441  14.500
73388SOL    HW222004   3.932   7.395  14.643
73389SOL     OW22005   2.420   8.638  11.943
73389SOL    HW122006   2.376   8.715  11.979
73389SOL    HW222007   2.465   8.599  12.018
73390SOL     OW22008   7.518   2.768   2.325
73390SOL    HW122009   7.468   2.840   2.362
73390SOL    HW222010   7.599   2.766   2.376
73391SOL     OW22011  10.983   6.440  14.457
73391SOL    HW122012  10.934   6.358  14.467
73391SOL    HW222013  11.042   6.443  14.533
73392SOL     OW22014   0.715   4.626  10.225
73392SOL    HW122015   0.783   4.610  10.160
73392SOL    HW222016   0.707   4.543  10.273
73393SOL     OW22017   4.017   2.656  13.213
73393SOL    HW122018   3.979   2.642  13.126
73393SOL    HW222019   4.105   2.619  13.207
73394SOL     OW22020   8.749   0.911   8.010
73394SOL    HW122021   8.656   0.891   8.022
73394SOL    HW222022   8.773   0.868   7.928
73395SOL     OW22023  12.169  13.073   8.153
73395SOL    HW122024  12.112  12.998   8.139
73395SOL    HW222025  12.157  13.127   8.074
73396SOL     OW22026  12.450  12.626  12.079
73396SOL    HW122027  12.369  12.624  12.028
73396SOL    HW222028  12.487  12.538  12.069
73397SOL     OW22029   3.712   1.861  10.417
73397SOL    HW122030   3.748   1.839  10.331
73397SOL    HW222031   3.789   1.884  10.470
73398SOL     OW22032   5.313   8.802   1.005
73398SOL    HW122033   5.317   8.722   0.952
73398SOL    HW222034   5.397   8.804   1.051
73399SOL     OW22035   4.733  11.520   7.526
73399SOL    HW122036   4.723  11.425   7.522
73399SOL    HW222037   4.644  11.553   7.511
73400SOL     OW22038  13.377   8.768   5.085
73400SOL    HW122039  13.413   8.808   5.164
73400SOL    HW222040  13.343   8.842   5.034
73401SOL     OW22041  11.377  12.740   0.084
73401SOL    HW122042  11.469  12.717   0.095
73401SOL    HW222043  11.344  12.677   0.020
73402SOL     OW22044   8.431   7.601   0.463
73402SOL    HW122045   8.499   7.630   0.401
73402SOL    HW222046   8.367   7.672   0.464
73403SOL     OW22047  12.763  14.460   8.354
73403SOL    HW122048  12.676  14.424   8.374
73403SOL    HW222049  12.818  14.383   8.339
73404SOL     OW22050  13.097   8.678   5.735
73404SOL    HW122051  13.065   8.766   5.754
73404SOL    HW222052  13.180   8.693   5.689
73405SOL     OW22053   3.680   5.776   6.529
73405SOL    HW122054   3.713   5.693   6.563
73405SOL    HW222055   3.725   5.843   6.580
73406SOL     OW22056  10.498   7.953   1.279
73406SOL    HW122057  10.569   7.999   1.322
73406SOL    HW222058  10.423   8.013   1.285
73407SOL     OW22059   9.939   6.956   2.345
73407SOL    HW122060   9.847   6.940   2.326
73407SOL    HW222061   9.978   6.980   2.261
73408SOL     OW22062  13.987   3.741   3.555
73408SOL    HW122063  13.993   3.704   3.466
73408SOL    HW222064  14.003   3.666   3.612
73409SOL     OW22065   7.167   7.814   0.410
73409SOL    HW122066   7.261   7.811   0.424
73409SOL    HW222067   7.154   7.883   0.345
73410SOL     OW22068  12.983  12.211   9.674
73410SOL    HW122069  12.901  12.257   9.655
73410SOL    HW222070  12.979  12.132   9.620
73411SOL     OW22071   1.998   5.150  11.688
73411SOL    HW122072   2.033   5.121  11.772
73411SOL    HW222073   1.903   5.150  11.701
73412SOL     OW22074   7.667   4.819   0.250
73412SOL    HW122075   7.626   4.734   0.236
73412SOL    HW222076   7.642   4.871   0.173
73413SOL     OW22077   8.669  14.563  12.758
73413SOL    HW122078   8.691  14.510  12.681
73413SOL    HW222079   8.641  14.499  12.824
73414SOL     OW22080  13.459  10.277   9.695
73414SOL    HW122081  13.393  10.245   9.756
73414SOL    HW222082  13.455  10.372   9.703
73415SOL     OW22083   9.941  13.971   6.025
73415SOL    HW122084   9.852  14.002   6.040
73415SOL    HW222085   9.981  14.038   5.971
73416SOL     OW22086   3.482   2.524   4.765
73416SOL    HW122087   3.424   2.455   4.796
73416SOL    HW222088   3.549   2.532   4.834
73417SOL     OW22089   6.514   2.636   8.528
73417SOL    HW122090   6.503   2.707   8.465
73417SOL    HW222091   6.608   2.619   8.529
73418SOL     OW22092   6.695   8.354   4.674
73418SOL    HW122093   6.765   8.307   4.720
73418SOL    HW222094   6.735   8.438   4.650
73419SOL     OW22095   6.401   4.739   8.685
73419SOL    HW122096   6.412   4.799   8.759
73419SOL    HW222097   6.486   4.698   8.674
73420SOL     OW22098   7.794  14.767  10.206
73420SOL    HW122099   7.826  14.851  10.241
73420SOL    HW222100   7.874  14.719  10.182
73421SOL     OW22101   4.597  13.318   6.433
73421SOL    HW122102   4.621  13.304   6.342
73421SOL    HW222103   4.521  13.262   6.447
73422SOL     OW22104   2.034   1.044  11.640
73422SOL    HW122105   1.961   0.992  11.673
73422SOL    HW222106   2.033   1.124  11.693
73423SOL     OW22107  12.950   8.794   9.141
73423SOL    HW122108  12.955   8.832   9.053
73423SOL    HW222109  12.869   8.830   9.178
73424SOL     OW22110   5.810   9.630  11.616
73424SOL    HW122111   5.738   9.656  11.674
73424SOL    HW222112   5.776   9.553  11.570
73425SOL     OW22113   7.216  11.452   2.458
73425SOL    HW122114   7.196  11.441   2.551
73425SOL    HW222115   7.228  11.363   2.426
73426SOL     OW22116  13.929   3.946   1.506
73426SOL    HW122117  13.942   4.030   1.462
73426SOL    HW222118  13.947   3.964   1.598
73427SOL     OW22119   4.932   7.798   9.579
73427SOL    HW122120   4.919   7.718   9.630
73427SOL    HW222121   4.960   7.767   9.493
73428SOL     OW22122   9.482  14.688  14.624
73428SOL    HW122123   9.496  14.782  14.620
73428SOL    HW222124   9.492  14.666  14.716
73429SOL     OW22125   2.904   3.948   6.082
73429SOL    HW122126   2.966   3.878   6.099
73429SOL    HW222127   2.922   4.013   6.149
73430SOL     OW22128   3.868   6.991   6.788
73430SOL    HW122129   3.883   6.911   6.738
73430SOL    HW222130   3.791   6.971   6.841
73431SOL     OW22131   5.395  10.496   3.350
73431SOL    HW122132   5.401  10.401   3.352
73431SOL    HW222133   5.367  10.516   3.260
73432SOL     OW22134  11.747   9.766   6.236
73432SOL    HW122135  11.682   9.727   6.295
73432SOL    HW222136  11.819   9.791   6.294
73433SOL     OW22137  13.142  11.450   2.372
73433SOL    HW122138  13.161  11.528   2.320
73433SOL    HW222139  13.051  11.460   2.399
73434SOL     OW22140   8.119   6.446   7.338
73434SOL    HW122141   8.025   6.459   7.340
73434SOL    HW222142   8.144   6.439   7.430
73435SOL     OW22143  10.122  12.905   7.752
73435SOL    HW122144  10.061  12.839   7.719
73435SOL    HW222145  10.207  12.861   7.752
73436SOL     OW22146  14.103   9.475   9.622
73436SOL    HW122147  14.100   9.491   9.527
73436SOL    HW222148  14.151   9.392   9.630
73437SOL     OW22149  12.890   1.752   8.697
73437SOL    HW122150  12.845   1.751   8.612
73437SOL    HW222151  12.898   1.660   8.721
73438SOL     OW22152  11.192   9.793  14.301
73438SOL    HW122153  11.183   9.828  14.212
73438SOL    HW222154  11.285   9.771  14.309
73439SOL     OW22155   7.111   2.503   9.957
73439SOL    HW122156   7.073   2.430   9.908
73439SOL    HW222157   7.110   2.474  10.048
73440SOL     OW22158   2.766   5.621   6.385
73440SOL    HW122159   2.766   5.572   6.303
73440SOL    HW222160   2.693   5.585   6.435
73441SOL     OW22161   0.369  12.289  14.477
73441SOL    HW122162   0.291  12.296  14.422
73441SOL    HW222163   0.434  12.345  14.433
73442SOL     OW22164  13.507   0.123   0.224
73442SOL    HW122165  13.435   0.179   0.251
73442SOL    HW222166  13.519   0.063   0.298
73443SOL     OW22167  13.301  10.020   2.772
73443SOL    HW122168  13.302  10.050   2.681
73443SOL    HW222169  13.217  10.050   2.807
73444SOL     OW22170   6.550  14.533   1.696
73444SOL    HW122171   6.601  14.596   1.643
73444SOL    HW222172   6.483  14.587   1.738
73445SOL     OW22173  13.485   3.246   8.006
73445SOL    HW122174  13.448   3.333   8.021
73445SOL    HW222175  13.535   3.256   7.925
73446SOL     OW22176   3.865   1.035  14.476
73446SOL    HW122177   3.772   1.056  14.487
73446SOL    HW222178   3.876   0.951  14.519
73447SOL     OW22179  13.385  11.540  12.847
73447SOL    HW122180  13.363  11.496  12.766
73447SOL    HW222181  13.470  11.504  12.872
73448SOL     OW22182   8.295   6.544   8.994
73448SOL    HW122183   8.256   6.630   8.976
73448SOL    HW222184   8.307   6.505   8.907
73449SOL     OW22185   3.810  10.196  12.862
73449SOL    HW122186   3.859  10.138  12.804
73449SOL    HW222187   3.820  10.283  12.823
73450SOL     OW22188   9.497   8.951  14.867
73450SOL    HW122189   9.520   8.947  14.774
73450SOL    HW222190   9.581   8.952   0.039
73451SOL     OW22191  12.057  13.085   8.668
73451SOL    HW122192  12.089  13.165   8.711
73451SOL    HW222193  11.997  13.046   8.731
73452SOL     OW22194   9.776   2.682   0.422
73452SOL    HW122195   9.855   2.707   0.374
73452SOL    HW222196   9.785   2.588   0.435
73453SOL     OW22197   7.504  13.738  11.017
73453SOL    HW122198   7.549  13.791  10.951
73453SOL    HW222199   7.573  13.683  11.054
73454SOL     OW22200   1.734   8.739   8.271
73454SOL    HW122201   1.774   8.695   8.346
73454SOL    HW222202   1.640   8.722   8.280
73455SOL     OW22203   8.099   2.546   8.292
73455SOL    HW122204   8.122   2.638   8.279
73455SOL    HW222205   8.013   2.549   8.333
73456SOL     OW22206   2.381   7.331   3.137
73456SOL    HW122207   2.434   7.302   3.211
73456SOL    HW222208   2.432   7.307   3.059
73457SOL     OW22209  14.810  14.199   4.319
73457SOL    HW122210   0.025  14.177   4.345
73457SOL    HW222211  14.758  14.122   4.343
73458SOL     OW22212   6.104   1.529   1.276
73458SOL    HW122213   6.166   1.594   1.244
73458SOL    HW222214   6.057   1.573   1.348
73459SOL     OW22215   1.209   8.396  13.773
73459SOL    HW122216   1.205   8.339  13.696
73459SOL    HW222217   1.151   8.469  13.751
73460SOL     OW22218   4.765   5.988   8.662
73460SOL    HW122219   4.779   6.078   8.693
73460SOL    HW222220   4.852   5.960   8.632
73461SOL     OW22221  11.688   8.922   9.528
73461SOL    HW122222  11.618   8.857   9.520
73461SOL    HW222223  11.644   9.001   9.561
73462SOL     OW22224   0.036  10.698  10.457
73462SOL    HW122225  14.854  10.721  10.532
73462SOL    HW222226   0.009  10.610  10.433
73463SOL     OW22227  12.938   8.730   0.737
73463SOL    HW122228  12.858   8.692   0.775
73463SOL    HW222229  12.958   8.805   0.793
73464SOL     OW22230  10.565   3.433   2.907
73464SOL    HW122231  10.557   3.452   3.000
73464SOL    HW222232  10.562   3.518   2.864
73465SOL     OW22233  10.883   0.347   5.188
73465SOL    HW122234  10.944   0.316   5.254
73465SOL    HW222235  10.928   0.421   5.146
73466SOL     OW22236  12.819   7.796  12.793
73466SOL    HW122237  12.734   7.753  12.783
73466SOL    HW222238  12.828   7.812  12.887
73467SOL     OW22239   8.156   8.142   2.985
73467SOL    HW122240   8.152   8.133   2.890
73467SOL    HW222241   8.065   8.142   3.013
73468SOL     OW22242   4.291   9.039   6.859
73468SOL    HW122243   4.250   9.125   6.866
73468SOL    HW222244   4.254   8.989   6.931
73469SOL     OW22245  14.248  11.583   6.688
73469SOL    HW122246  14.332  11.626   6.668
73469SOL    HW222247  14.256  11.496   6.650
73470SOL     OW22248   7.621   3.062   8.624
73470SOL    HW122249   7.636   2.970   8.646
73470SOL    HW222250   7.542   3.061   8.570
73471SOL     OW22251   2.486   3.732   0.515
73471SOL    HW122252   2.543   3.761   0.586
73471SOL    HW222253   2.484   3.806   0.454
73472SOL     OW22254  14.187   2.476  12.911
73472SOL    HW122255  14.254   2.423  12.954
73472SOL    HW222256  14.105   2.428  12.927
73473SOL     OW22257   3.993  12.720   9.059
73473SOL    HW122258   3.902  12.704   9.083
73473SOL    HW222259   4.022  12.787   9.121
73474SOL     OW22260   0.130  14.064   8.960
73474SOL    HW122261   0.144  14.077   8.866
73474SOL    HW222262   0.060  14.126   8.983
73475SOL     OW22263   3.659   1.933   8.834
73475SOL    HW122264   3.731   1.995   8.828
73475SOL    HW222265   3.629   1.921   8.744
73476SOL     OW22266   1.430   8.152  10.327
73476SOL    HW122267   1.335   8.156  10.314
73476SOL    HW222268   1.443   8.187  10.415
73477SOL     OW22269   6.764  14.229   9.532
73477SOL    HW122270   6.785  14.259   9.444
73477SOL    HW222271   6.827  14.159   9.549
73478SOL     OW22272   9.788   7.599   0.960
73478SOL    HW122273   9.704   7.633   0.930
73478SOL    HW222274   9.765   7.520   1.009
73479SOL     OW22275  12.362   6.603  14.533
73479SOL    HW122276  12.401   6.540  14.594
73479SOL    HW222277  12.285   6.558  14.498
73480SOL     OW22278   7.278  13.415   2.162
73480SOL    HW122279   7.267  13.331   2.116
73480SOL    HW222280   7.350  13.458   2.116
73481SOL     OW22281   1.452   6.413   8.611
73481SOL    HW122282   1.447   6.439   8.703
73481SOL    HW222283   1.545   6.418   8.589
73482SOL     OW22284   1.670   3.378  12.048
73482SOL    HW122285   1.700   3.297  12.008
73482SOL    HW222286   1.689   3.367  12.141
73483SOL     OW22287  10.338   9.134  11.746
73483SOL    HW122288  10.265   9.079  11.718
73483SOL    HW222289  10.396   9.138  11.670
73484SOL     OW22290   6.950   2.874   1.076
73484SOL    HW122291   7.025   2.857   1.020
73484SOL    HW222292   6.954   2.969   1.093
73485SOL     OW22293   6.617   1.520   3.456
73485SOL    HW122294   6.529   1.550   3.433
73485SOL    HW222295   6.661   1.598   3.489
73486SOL     OW22296   2.873   1.224   5.552
73486SOL    HW122297   2.838   1.152   5.605
73486SOL    HW222298   2.961   1.196   5.529
73487SOL     OW22299   8.192  10.978  12.061
73487SOL    HW122300   8.275  11.023  12.047
73487SOL    HW222301   8.183  10.972  12.156
73488SOL     OW22302  11.696   2.390  13.145
73488SOL    HW122303  11.760   2.377  13.075
73488SOL    HW222304  11.622   2.433  13.103
73489SOL     OW22305  12.865   6.981   9.381
73489SOL    HW122306  12.838   7.071   9.400
73489SOL    HW222307  12.928   6.990   9.309
73490SOL     OW22308   8.862   8.334   0.821
73490SOL    HW122309   8.904   8.417   0.798
73490SOL    HW222310   8.839   8.295   0.736
73491SOL     OW22311  10.965  10.424   4.331
73491SOL    HW122312  10.877  10.427   4.292
73491SOL    HW222313  11.018  10.479   4.273
73492SOL     OW22314   5.246   8.972   2.129
73492SOL    HW122315   5.180   9.006   2.189
73492SOL    HW222316   5.309   8.927   2.185
73493SOL     OW22317   9.600   4.507   5.902
73493SOL    HW122318   9.594   4.435   5.965
73493SOL    HW222319   9.687   4.498   5.863
73494SOL     OW22320   6.988  10.845   2.402
73494SOL    HW122321   6.937  10.925   2.400
73494SOL    HW222322   7.075  10.872   2.431
73495SOL     OW22323   2.152   1.122   3.293
73495SOL    HW122324   2.165   1.095   3.383
73495SOL    HW222325   2.239   1.117   3.253
73496SOL     OW22326   5.645  12.242   9.717
73496SOL    HW122327   5.621  12.158   9.678
73496SOL    HW222328   5.672  12.220   9.806
73497SOL     OW22329   1.954   5.489  11.138
73497SOL    HW122330   2.003   5.555  11.089
73497SOL    HW222331   1.936   5.531  11.222
73498SOL     OW22332  14.712   8.539   1.913
73498SOL    HW122333  14.760   8.557   1.994
73498SOL    HW222334  14.647   8.473   1.937
73499SOL     OW22335   1.419   4.135   4.623
73499SOL    HW122336   1.484   4.162   4.688
73499SOL    HW222337   1.337   4.130   4.673
73500SOL     OW22338   6.106  10.564  11.623
73500SOL    HW122339   6.130  10.647  11.666
73500SOL    HW222340   6.012  10.571  11.611
73501SOL     OW22341   9.001   9.790   8.660
73501SOL    HW122342   9.004   9.854   8.589
73501SOL    HW222343   9.089   9.753   8.663
73502SOL     OW22344  13.841   5.981   3.225
73502SOL    HW122345  13.810   5.968   3.135
73502SOL    HW222346  13.778   6.042   3.263
73503SOL     OW22347   9.123   2.644  13.271
73503SOL    HW122348   9.087   2.720  13.317
73503SOL    HW222349   9.119   2.573  13.335
73504SOL     OW22350   0.745  12.232   2.196
73504SOL    HW122351   0.746  12.170   2.269
73504SOL    HW222352   0.836  12.240   2.169
73505SOL     OW22353   2.176  12.725  12.613
73505SOL    HW122354   2.233  12.657  12.649
73505SOL    HW222355   2.111  12.740  12.681
73506SOL     OW22356   9.795  13.485   1.024
73506SOL    HW122357   9.841  13.464   0.943
73506SOL    HW222358   9.797  13.405   1.075
73507SOL     OW22359   4.884   0.073   8.664
73507SOL    HW122360   4.956   0.110   8.614
73507SOL    HW222361   4.834   0.149   8.695
73508SOL     OW22362   6.294   9.155   0.101
73508SOL    HW122363   6.248   9.085   0.055
73508SOL    HW222364   6.275   9.140   0.194
73509SOL     OW22365   5.245   6.464  14.408
73509SOL    HW122366   5.161   6.454  14.454
73509SOL    HW222367   5.225   6.444  14.317
73510SOL     OW22368  10.924  10.612   0.755
73510SOL    HW122369  10.869  10.689   0.769
73510SOL    HW222370  10.933  10.572   0.841
73511SOL     OW22371  10.906   4.887   7.470
73511SOL    HW122372  10.935   4.931   7.390
73511SOL    HW222373  10.985   4.878   7.523
73512SOL     OW22374   1.410   8.151  11.283
73512SOL    HW122375   1.363   8.226  11.318
73512SOL    HW222376   1.486   8.188  11.239
73513SOL     OW22377   5.094  11.559   6.501
73513SOL    HW122378   5.061  11.566   6.590
73513SOL    HW222379   5.078  11.646   6.462
73514SOL     OW22380   3.223   2.970   5.991
73514SOL    HW122381   3.193   3.017   6.068
73514SOL    HW222382   3.149   2.976   5.929
73515SOL     OW22383   5.107   9.577   2.510
73515SOL    HW122384   5.015   9.601   2.493
73515SOL    HW222385   5.134   9.634   2.582
73516SOL     OW22386  12.183  14.225   5.010
73516SOL    HW122387  12.246  14.158   4.984
73516SOL    HW222388  12.236  14.304   5.024
73517SOL     OW22389  14.654   8.341  14.159
73517SOL    HW122390  14.748   8.331  14.150
73517SOL    HW222391  14.643   8.419  14.214
73518SOL     OW22392  11.281   5.874   5.650
73518SOL    HW122393  11.192   5.910   5.655
73518SOL    HW222394  11.269   5.783   5.623
73519SOL     OW22395  13.736  12.574   1.263
73519SOL    HW122396  13.717  12.566   1.169
73519SOL    HW222397  13.817  12.524   1.275
73520SOL     OW22398  12.271   7.796   4.987
73520SOL    HW122399  12.268   7.714   4.938
73520SOL    HW222400  12.202   7.787   5.053
73521SOL     OW22401  11.864   9.953   3.265
73521SOL    HW122402  11.830   9.943   3.176
73521SOL    HW222403  11.835  10.040   3.292
73522SOL     OW22404  11.774   8.001   5.356
73522SOL    HW122405  11.733   8.082   5.328
73522SOL    HW222406  11.772   8.004   5.452
73523SOL     OW22407  10.953   1.117  11.589
73523SOL    HW122408  10.888   1.185  11.572
73523SOL    HW222409  10.966   1.119  11.684
73524SOL     OW22410   6.195   1.602  12.143
73524SOL    HW122411   6.221   1.588  12.052
73524SOL    HW222412   6.115   1.550  12.153
73525SOL     OW22413  11.895  14.293   8.187
73525SOL    HW122414  11.982  14.329   8.206
73525SOL    HW222415  11.890  14.214   8.242
73526SOL     OW22416   7.697  11.339   2.721
73526SOL    HW122417   7.768  11.320   2.660
73526SOL    HW222418   7.739  11.343   2.807
73527SOL     OW22419   2.793   5.859   5.599
73527SOL    HW122420   2.763   5.822   5.516
73527SOL    HW222421   2.799   5.784   5.659
73528SOL     OW22422  14.223   3.703   1.492
73528SOL    HW122423  14.237   3.788   1.451
73528SOL    HW222424  14.303   3.687   1.542
73529SOL     OW22425  13.758   4.365   0.135
73529SOL    HW122426  13.730   4.317   0.213
73529SOL    HW222427  13.852   4.351   0.129
73530SOL     OW22428   0.108   3.104   8.944
73530SOL    HW122429   0.054   3.164   8.893
73530SOL    HW222430   0.048   3.035   8.971
73531SOL     OW22431   8.222   0.038   4.716
73531SOL    HW122432   8.177  14.856   4.779
73531SOL    HW222433   8.315   0.024   4.734
73532SOL     OW22434   3.359   4.086  14.502
73532SOL    HW122435   3.269   4.109  14.523
73532SOL    HW222436   3.379   4.014  14.563
73533SOL     OW22437  11.055   6.593   0.103
73533SOL    HW122438  11.087   6.681   0.122
73533SOL    HW222439  10.961   6.604   0.088
73534SOL     OW22440  11.815  10.252   0.549
73534SOL    HW122441  11.793  10.317   0.616
73534SOL    HW222442  11.894  10.209   0.581
73535SOL     OW22443  12.768   0.142  11.795
73535SOL    HW122444  12.794   0.060  11.837
73535SOL    HW222445  12.698   0.175  11.851
73536SOL     OW22446   9.314   2.605  11.568
73536SOL    HW122447   9.328   2.514  11.594
73536SOL    HW222448   9.256   2.640  11.635
73537SOL     OW22449   3.023   2.792   6.317
73537SOL    HW122450   2.990   2.708   6.285
73537SOL    HW222451   3.083   2.768   6.388
73538SOL     OW22452   3.544  12.366   9.593
73538SOL    HW122453   3.613  12.392   9.532
73538SOL    HW222454   3.482  12.316   9.540
73539SOL     OW22455   6.544  10.616   0.485
73539SOL    HW122456   6.513  10.600   0.574
73539SOL    HW222457   6.470  10.657   0.440
73540SOL     OW22458   6.334   7.895   1.744
73540SOL    HW122459   6.416   7.902   1.793
73540SOL    HW222460   6.287   7.822   1.785
73541SOL     OW22461   9.480  13.266   1.992
73541SOL    HW122462   9.385  13.268   1.979
73541SOL    HW222463   9.498  13.341   2.048
73542SOL     OW22464   6.794   5.912   5.632
73542SOL    HW122465   6.802   5.958   5.549
73542SOL    HW222466   6.712   5.943   5.670
73543SOL     OW22467   7.207   5.207   0.112
73543SOL    HW122468   7.111   5.211   0.114
73543SOL    HW222469   7.228   5.199   0.019
73544SOL     OW22470   3.565  11.989   3.155
73544SOL    HW122471   3.626  11.916   3.164
73544SOL    HW222472   3.554  12.000   3.061
73545SOL     OW22473   3.484   6.560   6.018
73545SOL    HW122474   3.453   6.567   6.108
73545SOL    HW222475   3.433   6.488   5.980
73546SOL     OW22476   6.324   5.893  13.869
73546SOL    HW122477   6.336   5.909  13.776
73546SOL    HW222478   6.265   5.963  13.898
73547SOL     OW22479  14.103  14.346  13.391
73547SOL    HW122480  14.128  14.438  13.396
73547SOL    HW222481  14.166  14.306  13.331
73548SOL     OW22482   9.530   2.381  10.954
73548SOL    HW122483   9.453   2.424  10.991
73548SOL    HW222484   9.579   2.350  11.030
73549SOL     OW22485   2.686   5.912  11.301
73549SOL    HW122486   2.705   5.983  11.240
73549SOL    HW222487   2.733   5.837  11.266
73550SOL     OW22488   5.845   4.820   1.182
73550SOL    HW122489   5.876   4.843   1.094
73550SOL    HW222490   5.816   4.730   1.175
73551SOL     OW22491  11.633  13.143   6.992
73551SOL    HW122492  11.670  13.218   7.039
73551SOL    HW222493  11.604  13.178   6.908
73552SOL     OW22494   1.370  12.511   8.919
73552SOL    HW122495   1.432  12.446   8.951
73552SOL    HW222496   1.290  12.462   8.901
73553SOL     OW22497  11.372   6.863   8.167
73553SOL    HW122498  11.354   6.952   8.198
73553SOL    HW222499  11.466   6.852   8.178
73554SOL     OW22500   9.550   9.152   5.342
73554SOL    HW122501   9.526   9.245   5.340
73554SOL    HW222502   9.628   9.148   5.398
73555SOL     OW22503   4.973   1.052   4.199
73555SOL    HW122504   4.947   0.986   4.263
73555SOL    HW222505   5.020   1.118   4.251
73556SOL     OW22506   9.812  10.127   6.843
73556SOL    HW122507   9.773  10.056   6.792
73556SOL    HW222508   9.906  10.111   6.839
73557SOL     OW22509   9.766  12.492   0.843
73557SOL    HW122510   9.679  12.510   0.807
73557SOL    HW222511   9.792  12.409   0.803
73558SOL     OW22512   4.591  10.860   2.763
73558SOL    HW122513   4.610  10.838   2.672
73558SOL    HW222514   4.509  10.814   2.782
73559SOL     OW22515   2.132  12.852   4.969
73559SOL    HW122516   2.100  12.825   5.055
73559SOL    HW222517   2.128  12.773   4.915
73560SOL     OW22518  13.716   2.438   3.433
73560SOL    HW122519  13.712   2.528   3.463
73560SOL    HW222520  13.805   2.428   3.399
73561SOL     OW22521   7.768   6.800   2.693
73561SOL    HW122522   7.705   6.838   2.632
73561SOL    HW222523   7.850   6.797   2.643
73562SOL     OW22524   2.126   6.785   3.653
73562SOL    HW122525   2.088   6.854   3.708
73562SOL    HW222526   2.050   6.746   3.608
73563SOL     OW22527   6.889  10.006   1.605
73563SOL    HW122528   6.838   9.944   1.657
73563SOL    HW222529   6.824  10.066   1.569
73564SOL     OW22530  12.964   5.393  11.447
73564SOL    HW122531  12.917   5.340  11.382
73564SOL    HW222532  13.001   5.466  11.396
73565SOL     OW22533   7.083   8.751  11.216
73565SOL    HW122534   7.056   8.806  11.143
73565SOL    HW222535   7.005   8.701  11.239
73566SOL     OW22536  10.706   3.753   8.894
73566SOL    HW122537  10.670   3.694   8.961
73566SOL    HW222538  10.769   3.807   8.941
73567SOL     OW22539   1.426   5.124  12.511
73567SOL    HW122540   1.360   5.183  12.476
73567SOL    HW222541   1.451   5.162  12.595
73568SOL     OW22542   6.795   2.453  12.143
73568SOL    HW122543   6.834   2.410  12.219
73568SOL    HW222544   6.822   2.544  12.150
73569SOL     OW22545   0.974   5.957   0.447
73569SOL    HW122546   1.052   5.902   0.461
73569SOL    HW222547   1.008   6.046   0.440
73570SOL     OW22548  10.264   0.234   4.813
73570SOL    HW122549  10.174   0.215   4.784
73570SOL    HW222550  10.318   0.217   4.737
73571SOL     OW22551   3.903   3.039   5.202
73571SOL    HW122552   3.958   2.985   5.144
73571SOL    HW222553   3.831   3.068   5.145
73572SOL     OW22554   2.087  11.389   5.418
73572SOL    HW122555   2.151  11.346   5.362
73572SOL    HW222556   2.065  11.469   5.371
73573SOL     OW22557  14.524  11.228  11.205
73573SOL    HW122558  14.454  11.290  11.227
73573SOL    HW222559  14.600  11.260  11.253
73574SOL     OW22560   7.069   2.664   2.011
73574SOL    HW122561   7.067   2.727   1.939
73574SOL    HW222562   7.014   2.703   2.078
73575SOL     OW22563  10.782  13.401   3.546
73575SOL    HW122564  10.689  13.398   3.569
73575SOL    HW222565  10.786  13.462   3.472
73576SOL     OW22566   4.188  14.648   2.194
73576SOL    HW122567   4.278  14.674   2.171
73576SOL    HW222568   4.199  14.591   2.270
73577SOL     OW22569   9.776   4.068   4.572
73577SOL    HW122570   9.706   4.132   4.579
73577SOL    HW222571   9.856   4.118   4.587
73578SOL     OW22572   1.160   3.208  14.728
73578SOL    HW122573   1.090   3.209  14.794
73578SOL    HW222574   1.204   3.124  14.741
73579SOL     OW22575   0.510   7.612   7.611
73579SOL    HW122576   0.584   7.659   7.571
73579SOL    HW222577   0.441   7.616   7.545
73580SOL     OW22578   4.971   8.971   7.823
73580SOL    HW122579   4.889   8.947   7.780
73580SOL    HW222580   5.033   8.982   7.751
73581SOL     OW22581  13.693   7.953  11.905
73581SOL    HW122582  13.636   7.939  11.830
73581SOL    HW222583  13.693   7.870  11.952
73582SOL     OW22584  10.139  14.137   7.092
73582SOL    HW122585  10.065  14.197   7.092
73582SOL    HW222586  10.145  14.106   7.002
73583SOL     OW22587   0.609   9.733   5.173
73583SOL    HW122588   0.607   9.720   5.079
73583SOL    HW222589   0.554   9.662   5.208
73584SOL     OW22590  10.207  13.441  13.817
73584SOL    HW122591  10.250  13.470  13.898
73584SOL    HW222592  10.160  13.518  13.786
73585SOL     OW22593   2.541   7.888   6.516
73585SOL    HW122594   2.571   7.973   6.550
73585SOL    HW222595   2.594   7.874   6.438
73586SOL     OW22596   5.611   3.752   4.251
73586SOL    HW122597   5.689   3.802   4.275
73586SOL    HW222598   5.548   3.819   4.224
73587SOL     OW22599   2.883   9.381  12.081
73587SOL    HW122600   2.868   9.293  12.115
73587SOL    HW222601   2.890   9.436  12.159
73588SOL     OW22602  12.071  13.808   8.292
73588SOL    HW122603  12.045  13.736   8.350
73588SOL    HW222604  12.025  13.790   8.210
73589SOL     OW22605   5.406  11.418  13.247
73589SOL    HW122606   5.478  11.458  13.296
73589SOL    HW222607   5.391  11.477  13.174
73590SOL     OW22608  14.471   4.654   4.066
73590SOL    HW122609  14.528   4.730   4.054
73590SOL    HW222610  14.382   4.690   4.066
73591SOL     OW22611   9.572   2.204   8.968
73591SOL    HW122612   9.549   2.153   9.045
73591SOL    HW222613   9.657   2.243   8.989
73592SOL     OW22614   1.226   1.667  14.165
73592SOL    HW122615   1.157   1.630  14.220
73592SOL    HW222616   1.180   1.704  14.090
73593SOL     OW22617   6.432   8.939   0.474
73593SOL    HW122618   6.424   9.017   0.419
73593SOL    HW222619   6.342   8.914   0.494
73594SOL     OW22620   2.783   4.614   0.218
73594SOL    HW122621   2.809   4.553   0.149
73594SOL    HW222622   2.761   4.558   0.292
73595SOL     OW22623  13.567   4.972   6.837
73595SOL    HW122624  13.598   4.998   6.750
73595SOL    HW222625  13.622   4.898   6.861
73596SOL     OW22626   4.137  14.610  12.383
73596SOL    HW122627   4.203  14.549  12.418
73596SOL    HW222628   4.099  14.563  12.309
73597SOL     OW22629   9.049  14.220  12.441
73597SOL    HW122630   9.059  14.153  12.373
73597SOL    HW222631   9.064  14.303  12.394
73598SOL     OW22632   0.517   4.305   8.407
73598SOL    HW122633   0.442   4.252   8.378
73598SOL    HW222634   0.484   4.354   8.482
73599SOL     OW22635   4.086   0.946  10.252
73599SOL    HW122636   4.091   1.002  10.174
73599SOL    HW222637   4.124   0.998  10.322
73600SOL     OW22638   4.820  12.168  13.656
73600SOL    HW122639   4.903  12.137  13.691
73600SOL    HW222640   4.769  12.088  13.640
73601SOL     OW22641   9.146  10.945  11.818
73601SOL    HW122642   9.135  10.917  11.727
73601SOL    HW222643   9.104  10.876  11.870
73602SOL     OW22644   7.760   5.211   8.613
73602SOL    HW122645   7.715   5.157   8.548
73602SOL    HW222646   7.762   5.299   8.574
73603SOL     OW22647  11.090   7.383   0.601
73603SOL    HW122648  10.999   7.358   0.582
73603SOL    HW222649  11.108   7.343   0.686
73604SOL     OW22650   3.392  13.548   1.256
73604SOL    HW122651   3.346  13.501   1.187
73604SOL    HW222652   3.344  13.630   1.267
73605SOL     OW22653   4.544   9.593  10.267
73605SOL    HW122654   4.470   9.536  10.286
73605SOL    HW222655   4.529   9.622  10.177
73606SOL     OW22656  13.292   8.682   9.724
73606SOL    HW122657  13.236   8.730   9.664
73606SOL    HW222658  13.279   8.590   9.702
73607SOL     OW22659   6.807   2.403   1.307
73607SOL    HW122660   6.764   2.485   1.284
73607SOL    HW222661   6.815   2.355   1.224
73608SOL     OW22662   7.040   3.199   2.892
73608SOL    HW122663   6.978   3.130   2.869
73608SOL    HW222664   7.058   3.245   2.809
73609SOL     OW22665   2.763   6.089   0.504
73609SOL    HW122666   2.717   6.005   0.515
73609SOL    HW222667   2.826   6.073   0.434
73610SOL     OW22668   0.156   0.261   9.816
73610SOL    HW122669   0.138   0.292   9.728
73610SOL    HW222670   0.073   0.221   9.845
73611SOL     OW22671   4.020   4.522  10.668
73611SOL    HW122672   4.010   4.522  10.763
73611SOL    HW222673   3.963   4.592  10.638
73612SOL     OW22674  12.244  12.952  11.676
73612SOL    HW122675  12.313  12.976  11.614
73612SOL    HW222676  12.282  12.968  11.762
73613SOL     OW22677  14.543   1.010   8.384
73613SOL    HW122678  14.475   1.005   8.451
73613SOL    HW222679  14.553   0.920   8.353
73614SOL     OW22680   0.162   6.300   5.782
73614SOL    HW122681   0.174   6.395   5.784
73614SOL    HW222682   0.251   6.266   5.768
73615SOL     OW22683   6.203   1.186  13.757
73615SOL    HW122684   6.157   1.158  13.836
73615SOL    HW222685   6.186   1.280  13.752
73616SOL     OW22686   0.950   0.296  14.676
73616SOL    HW122687   0.962   0.264  14.765
73616SOL    HW222688   0.861   0.269  14.653
73617SOL     OW22689  10.419  12.579  13.997
73617SOL    HW122690  10.498  12.575  13.944
73617SOL    HW222691  10.358  12.633  13.946
73618SOL     OW22692   9.154   9.855   5.344
73618SOL    HW122693   9.244   9.884   5.357
73618SOL    HW222694   9.161   9.762   5.324
73619SOL     OW22695   7.142   2.698   6.599
73619SOL    HW122696   7.194   2.771   6.566
73619SOL    HW222697   7.185   2.673   6.681
73620SOL     OW22698  12.228   7.526   7.691
73620SOL    HW122699  12.136   7.504   7.703
73620SOL    HW222700  12.271   7.441   7.676
73621SOL     OW22701   2.097   9.702   3.364
73621SOL    HW122702   2.016   9.733   3.323
73621SOL    HW222703   2.162   9.768   3.343
73622SOL     OW22704  10.855   0.755   5.993
73622SOL    HW122705  10.822   0.844   5.981
73622SOL    HW222706  10.818   0.726   6.076
73623SOL     OW22707   5.772   0.196   7.789
73623SOL    HW122708   5.839   0.249   7.831
73623SOL    HW222709   5.720   0.161   7.862
73624SOL     OW22710  14.455  11.710  10.234
73624SOL    HW122711  14.388  11.647  10.260
73624SOL    HW222712  14.479  11.684  10.145
73625SOL     OW22713  11.086  13.100  14.642
73625SOL    HW122714  11.031  13.150  14.581
73625SOL    HW222715  11.175  13.129  14.624
73626SOL     OW22716  14.617   2.246   0.392
73626SOL    HW122717  14.603   2.289   0.308
73626SOL    HW222718  14.626   2.317   0.455
73627SOL     OW22719   9.657   3.828   4.697
73627SOL    HW122720   9.705   3.904   4.662
73627SOL    HW222721   9.707   3.752   4.668
73628SOL     OW22722  14.203  10.794   3.795
73628SOL    HW122723  14.243  10.867   3.843
73628SOL    HW222724  14.231  10.808   3.704
73629SOL     OW22725  11.947  10.945   9.193
73629SOL    HW122726  11.874  10.975   9.246
73629SOL    HW222727  11.917  10.954   9.103
73630SOL     OW22728  10.933  11.700   6.640
73630SOL    HW122729  10.895  11.693   6.553
73630SOL    HW222730  11.027  11.685   6.626
73631SOL     OW22731   8.781  13.568  11.255
73631SOL    HW122732   8.865  13.566  11.299
73631SOL    HW222733   8.758  13.661  11.250
73632SOL     OW22734  12.656   4.951  12.435
73632SOL    HW122735  12.696   4.893  12.371
73632SOL    HW222736  12.574   4.907  12.459
73633SOL     OW22737   9.758   1.969   5.579
73633SOL    HW122738   9.675   1.993   5.621
73633SOL    HW222739   9.750   2.003   5.490
73634SOL     OW22740   1.601  12.037  13.655
73634SOL    HW122741   1.602  11.985  13.735
73634SOL    HW222742   1.564  12.121  13.681
73635SOL     OW22743   4.574   3.380   6.764
73635SOL    HW122744   4.614   3.296   6.744
73635SOL    HW222745   4.544   3.371   6.855
73636SOL     OW22746  12.683   4.796   2.892
73636SOL    HW122747  12.622   4.741   2.843
73636SOL    HW222748  12.759   4.805   2.836
73637SOL     OW22749   7.391  13.730   6.482
73637SOL    HW122750   7.416  13.695   6.567
73637SOL    HW222751   7.359  13.654   6.433
73638SOL     OW22752   6.530   7.021   5.255
73638SOL    HW122753   6.535   7.115   5.273
73638SOL    HW222754   6.483   6.984   5.330
73639SOL     OW22755  13.400   9.462   1.591
73639SOL    HW122756  13.360   9.402   1.655
73639SOL    HW222757  13.459   9.407   1.541
73640SOL     OW22758   9.304  12.537  13.357
73640SOL    HW122759   9.331  12.587  13.434
73640SOL    HW222760   9.377  12.548  13.296
73641SOL     OW22761  12.050  14.617  10.476
73641SOL    HW122762  12.118  14.551  10.471
73641SOL    HW222763  12.006  14.600  10.560
73642SOL     OW22764  12.442   5.184  12.788
73642SOL    HW122765  12.474   5.113  12.733
73642SOL    HW222766  12.455   5.153  12.877
73643SOL     OW22767  10.714  13.413   5.298
73643SOL    HW122768  10.770  13.477   5.254
73643SOL    HW222769  10.636  13.409   5.243
73644SOL     OW22770   8.372   5.343   8.626
73644SOL    HW122771   8.378   5.269   8.567
73644SOL    HW222772   8.298   5.322   8.683
73645SOL     OW22773  13.684   2.546   9.175
73645SOL    HW122774  13.633   2.467   9.193
73645SOL    HW222775  13.773   2.514   9.161
73646SOL     OW22776   8.860   4.600   4.662
73646SOL    HW122777   8.801   4.658   4.615
73646SOL    HW222778   8.879   4.529   4.601
73647SOL     OW22779   7.051   7.124   5.626
73647SOL    HW122780   6.962   7.117   5.660
73647SOL    HW222781   7.052   7.204   5.574
73648SOL     OW22782  12.153   4.473   2.797
73648SOL    HW122783  12.104   4.550   2.827
73648SOL    HW222784  12.209   4.450   2.871
73649SOL     OW22785   6.023   3.932   4.552
73649SOL    HW122786   5.998   4.020   4.526
73649SOL    HW222787   6.118   3.931   4.549
73650SOL     OW22788   5.149  12.221   1.054
73650SOL    HW122789   5.069  12.249   1.099
73650SOL    HW222790   5.178  12.143   1.101
73651SOL     OW22791  11.824  12.221  14.637
73651SOL    HW122792  11.766  12.148  14.661
73651SOL    HW222793  11.912  12.190  14.658
73652SOL     OW22794   4.052   1.877  13.707
73652SOL    HW122795   4.079   1.968  13.695
73652SOL    HW222796   4.033   1.846  13.619
73653SOL     OW22797  14.792  11.340   8.993
73653SOL    HW122798  14.744  11.289   8.928
73653SOL    HW222799  14.724  11.375   9.050
73654SOL     OW22800   6.476   4.052  14.679
73654SOL    HW122801   6.444   4.095  14.758
73654SOL    HW222802   6.548   3.997  14.709
73655SOL     OW22803   8.072   9.530   0.194
73655SOL    HW122804   7.990   9.527   0.145
73655SOL    HW222805   8.136   9.566   0.132
73656SOL     OW22806  13.603   1.726   5.125
73656SOL    HW122807  13.585   1.814   5.158
73656SOL    HW222808  13.656   1.740   5.047
73657SOL     OW22809   2.059   2.311   9.978
73657SOL    HW122810   2.055   2.261   9.896
73657SOL    HW222811   2.123   2.380   9.962
73658SOL     OW22812   5.966  12.393   5.688
73658SOL    HW122813   6.053  12.352   5.691
73658SOL    HW222814   5.912  12.340   5.746
73659SOL     OW22815   0.509   8.382   4.284
73659SOL    HW122816   0.564   8.388   4.362
73659SOL    HW222817   0.473   8.293   4.287
73660SOL     OW22818   2.088   7.859   8.419
73660SOL    HW122819   2.075   7.903   8.335
73660SOL    HW222820   2.182   7.842   8.423
73661SOL     OW22821  13.988   5.939  12.741
73661SOL    HW122822  13.900   5.917  12.769
73661SOL    HW222823  14.044   5.906  12.812
73662SOL     OW22824  10.387  12.879   8.643
73662SOL    HW122825  10.354  12.833   8.720
73662SOL    HW222826  10.322  12.863   8.575
73663SOL     OW22827  13.784  11.790   8.518
73663SOL    HW122828  13.821  11.822   8.600
73663SOL    HW222829  13.803  11.858   8.454
73664SOL     OW22830  12.045   5.636   7.888
73664SOL    HW122831  12.034   5.656   7.981
73664SOL    HW222832  12.129   5.592   7.883
73665SOL     OW22833   2.924  10.883   2.814
73665SOL    HW122834   2.839  10.924   2.827
73665SOL    HW222835   2.939  10.887   2.720
73666SOL     OW22836  14.484   7.500   3.742
73666SOL    HW122837  14.529   7.416   3.737
73666SOL    HW222838  14.544   7.557   3.790
73667SOL     OW22839   1.034  11.305  10.909
73667SOL    HW122840   1.018  11.245  10.982
73667SOL    HW222841   1.090  11.373  10.946
73668SOL     OW22842   4.763   3.541   3.269
73668SOL    HW122843   4.756   3.619   3.214
73668SOL    HW222844   4.849   3.546   3.309
73669SOL     OW22845  14.102   3.512   2.181
73669SOL    HW122846  14.025   3.567   2.162
73669SOL    HW222847  14.140   3.494   2.095
73670SOL     OW22848   4.271  12.246   0.836
73670SOL    HW122849   4.208  12.313   0.810
73670SOL    HW222850   4.247  12.223   0.925
73671SOL     OW22851  13.677  11.535   6.750
73671SOL    HW122852  13.660  11.532   6.656
73671SOL    HW222853  13.763  11.575   6.758
73672SOL     OW22854   4.054  10.304   7.462
73672SOL    HW122855   4.037  10.332   7.372
73672SOL    HW222856   4.059  10.209   7.457
73673SOL     OW22857   6.521   7.352   8.511
73673SOL    HW122858   6.579   7.338   8.585
73673SOL    HW222859   6.576   7.340   8.434
73674SOL     OW22860  10.104  14.012   3.711
73674SOL    HW122861  10.168  14.017   3.782
73674SOL    HW222862  10.147  13.960   3.643
73675SOL     OW22863   6.727   8.840  11.251
73675SOL    HW122864   6.797   8.862  11.190
73675SOL    HW222865   6.750   8.754  11.285
73676SOL     OW22866   6.989   5.653  14.025
73676SOL    HW122867   7.079   5.659  13.992
73676SOL    HW222868   6.991   5.698  14.110
73677SOL     OW22869   0.610   7.094  14.543
73677SOL    HW122870   0.576   7.059  14.626
73677SOL    HW222871   0.699   7.059  14.538
73678SOL     OW22872   7.716  12.370   0.379
73678SOL    HW122873   7.690  12.301   0.440
73678SOL    HW222874   7.661  12.445   0.402
73679SOL     OW22875   8.888   2.523   4.460
73679SOL    HW122876   8.824   2.533   4.389
73679SOL    HW222877   8.893   2.610   4.501
73680SOL     OW22878   4.145  13.345   6.980
73680SOL    HW122879   4.122  13.328   7.071
73680SOL    HW222880   4.235  13.315   6.972
73681SOL     OW22881   2.746  11.155   5.538
73681SOL    HW122882   2.793  11.154   5.454
73681SOL    HW222883   2.793  11.219   5.591
73682SOL     OW22884  11.154   6.772   6.959
73682SOL    HW122885  11.170   6.852   7.009
73682SOL    HW222886  11.060   6.756   6.969
73683SOL     OW22887   6.309   9.956   8.335
73683SOL    HW122888   6.338   9.909   8.257
73683SOL    HW222889   6.215   9.936   8.341
73684SOL     OW22890  13.768   8.598   5.439
73684SOL    HW122891  13.817   8.611   5.358
73684SOL    HW222892  13.787   8.676   5.491
73685SOL     OW22893   1.982   3.724  12.273
73685SOL    HW122894   2.070   3.761  12.281
73685SOL    HW222895   1.973   3.668  12.351
73686SOL     OW22896   5.548   3.070  11.023
73686SOL    HW122897   5.617   3.119  10.979
73686SOL    HW222898   5.467   3.108  10.989
73687SOL     OW22899  13.706   9.038  11.248
73687SOL    HW122900  13.680   9.130  11.236
73687SOL    HW222901  13.641   9.003  11.309
73688SOL     OW22902   5.011   7.057   0.710
73688SOL    HW122903   5.009   7.000   0.787
73688SOL    HW222904   4.981   7.002   0.638
73689SOL     OW22905   3.684   8.135  11.933
73689SOL    HW122906   3.732   8.052  11.935
73689SOL    HW222907   3.729   8.188  11.867
73690SOL     OW22908  10.326  14.690  11.203
73690SOL    HW122909  10.381  14.630  11.254
73690SOL    HW222910  10.240  14.686  11.244
73691SOL     OW22911   7.226  10.724   4.372
73691SOL    HW122912   7.232  10.638   4.414
73691SOL    HW222913   7.186  10.707   4.287
73692SOL     OW22914   2.437   0.325  13.076
73692SOL    HW122915   2.424   0.414  13.042
73692SOL    HW222916   2.449   0.337  13.170
73693SOL     OW22917   1.608   7.138   8.216
73693SOL    HW122918   1.604   7.181   8.130
73693SOL    HW222919   1.701   7.134   8.237
73694SOL     OW22920   9.731   1.163   8.141
73694SOL    HW122921   9.725   1.212   8.059
73694SOL    HW222922   9.695   1.223   8.207
73695SOL     OW22923   6.328   4.242   4.990
73695SOL    HW122924   6.389   4.187   5.039
73695SOL    HW222925   6.259   4.263   5.052
73696SOL     OW22926   7.692   0.023  12.952
73696SOL    HW122927   7.649   0.105  12.927
73696SOL    HW222928   7.776   0.051  12.990
73697SOL     OW22929  12.735   6.576  13.527
73697SOL    HW122930  12.763   6.667  13.528
73697SOL    HW222931  12.746   6.546  13.617
73698SOL     OW22932   1.572   0.482   8.412
73698SOL    HW122933   1.522   0.550   8.368
73698SOL    HW222934   1.535   0.478   8.501
73699SOL     OW22935   3.605   8.688  11.493
73699SOL    HW122936   3.641   8.634  11.562
73699SOL    HW222937   3.519   8.650  11.475
73700SOL     OW22938   0.311   1.080  11.177
73700SOL    HW122939   0.406   1.074  11.185
73700SOL    HW222940   0.280   1.091  11.267
73701SOL     OW22941  14.605   4.376  11.299
73701SOL    HW122942  14.523   4.409  11.262
73701SOL    HW222943  14.674   4.425  11.254
73702SOL     OW22944  10.324   4.345   5.607
73702SOL    HW122945  10.260   4.416   5.608
73702SOL    HW222946  10.386   4.367   5.677
73703SOL     OW22947   5.629   5.569  12.390
73703SOL    HW122948   5.548   5.606  12.423
73703SOL    HW222949   5.686   5.645  12.375
73704SOL     OW22950   8.530   0.336  12.125
73704SOL    HW122951   8.556   0.268  12.062
73704SOL    HW222952   8.607   0.392  12.133
73705SOL     OW22953  11.769   8.476  14.299
73705SOL    HW122954  11.741   8.497  14.209
73705SOL    HW222955  11.775   8.561  14.342
73706SOL     OW22956   2.402   9.859  10.655
73706SOL    HW122957   2.393   9.883  10.562
73706SOL    HW222958   2.496   9.846  10.667
73707SOL     OW22959   4.562   5.591   6.345
73707SOL    HW122960   4.601   5.537   6.277
73707SOL    HW222961   4.470   5.600   6.320
73708SOL     OW22962   0.242   9.240   5.799
73708SOL    HW122963   0.252   9.156   5.754
73708SOL    HW222964   0.302   9.298   5.753
73709SOL     OW22965   1.228   8.333   2.306
73709SOL    HW122966   1.223   8.401   2.239
73709SOL    HW222967   1.281   8.264   2.267
73710SOL     OW22968  13.911   7.965   0.054
73710SOL    HW122969  13.953   8.048   0.028
73710SOL    HW222970  13.831   7.962   0.001
73711SOL     OW22971  14.150   2.530   4.741
73711SOL    HW122972  14.107   2.557   4.822
73711SOL    HW222973  14.176   2.439   4.756
73712SOL     OW22974   4.149   0.619   2.302
73712SOL    HW122975   4.160   0.530   2.271
73712SOL    HW222976   4.098   0.662   2.233
73713SOL     OW22977   5.967   2.189   2.154
73713SOL    HW122978   5.973   2.284   2.139
73713SOL    HW222979   5.964   2.151   2.066
73714SOL     OW22980   0.984   4.121  12.023
73714SOL    HW122981   1.016   4.129  11.934
73714SOL    HW222982   0.907   4.179  12.026
73715SOL     OW22983  12.369   0.639   7.006
73715SOL    HW122984  12.371   0.673   7.095
73715SOL    HW222985  12.461   0.622   6.985
73716SOL     OW22986   5.685   3.785   3.342
73716SOL    HW122987   5.608   3.746   3.301
73716SOL    HW222988   5.719   3.846   3.277
73717SOL     OW22989   2.660   4.279  12.247
73717SOL    HW122990   2.620   4.326  12.320
73717SOL    HW222991   2.587   4.259  12.188
73718SOL     OW22992  13.904  11.668   2.564
73718SOL    HW122993  13.857  11.652   2.482
73718SOL    HW222994  13.984  11.713   2.537
73719SOL     OW22995   1.924  12.764   0.798
73719SOL    HW122996   1.900  12.673   0.783
73719SOL    HW222997   1.842  12.813   0.788
73720SOL     OW22998  12.467  10.074   9.936
73720SOL    HW122999  12.421  10.086   9.853
73720SOL    HW223000  12.464   9.980   9.951
73721SOL     OW23001  13.793   8.846   2.059
73721SOL    HW123002  13.870   8.866   2.112
73721SOL    HW223003  13.719   8.874   2.113
73722SOL     OW23004   7.871   5.985   1.532
73722SOL    HW123005   7.812   5.911   1.539
73722SOL    HW223006   7.862   6.015   1.442
73723SOL     OW23007   5.681  10.647   5.422
73723SOL    HW123008   5.611  10.654   5.488
73723SOL    HW223009   5.720  10.734   5.421
73724SOL     OW23010   3.345   9.684  13.873
73724SOL    HW123011   3.411   9.624  13.838
73724SOL    HW223012   3.262   9.649  13.841
73725SOL     OW23013  11.232   2.962  10.177
73725SOL    HW123014  11.306   2.905  10.159
73725SOL    HW223015  11.267   3.029  10.237
73726SOL     OW23016   6.479  11.535  13.218
73726SOL    HW123017   6.462  11.442  13.209
73726SOL    HW223018   6.548  11.541  13.285
73727SOL     OW23019   1.849   9.616   2.992
73727SOL    HW123020   1.781   9.594   2.928
73727SOL    HW223021   1.917   9.549   2.979
73728SOL     OW23022   1.693   8.388   0.152
73728SOL    HW123023   1.786   8.400   0.172
73728SOL    HW223024   1.648   8.449   0.210
73729SOL     OW23025   6.572   9.893   4.312
73729SOL    HW123026   6.525   9.976   4.320
73729SOL    HW223027   6.663   9.918   4.300
73730SOL     OW23028   3.149   1.865  11.734
73730SOL    HW123029   3.094   1.935  11.699
73730SOL    HW223030   3.098   1.785  11.720
73731SOL     OW23031   9.843   3.671   1.145
73731SOL    HW123032   9.904   3.744   1.143
73731SOL    HW223033   9.820   3.660   1.237
73732SOL     OW23034   1.956  14.110   2.511
73732SOL    HW123035   2.041  14.151   2.498
73732SOL    HW223036   1.900  14.181   2.545
73733SOL     OW23037   1.612   4.464   1.012
73733SOL    HW123038   1.610   4.545   1.063
73733SOL    HW223039   1.530   4.420   1.034
73734SOL     OW23040   2.344  13.955   9.467
73734SOL    HW123041   2.353  13.882   9.407
73734SOL    HW223042   2.392  14.027   9.426
73735SOL     OW23043  13.437  14.650   8.561
73735SOL    HW123044  13.415  14.557   8.548
73735SOL    HW223045  13.528  14.657   8.534
73736SOL     OW23046   3.472   5.454  12.902
73736SOL    HW123047   3.480   5.445  12.997
73736SOL    HW223048   3.530   5.386  12.866
73737SOL     OW23049   7.443  14.312  10.367
73737SOL    HW123050   7.477  14.260  10.294
73737SOL    HW223051   7.439  14.401  10.333
73738SOL     OW23052   9.982   2.419   4.472
73738SOL    HW123053   9.968   2.354   4.403
73738SOL    HW223054  10.060   2.388   4.518
73739SOL     OW23055   1.007   1.846   5.191
73739SOL    HW123056   0.954   1.888   5.124
73739SOL    HW223057   1.040   1.919   5.244
73740SOL     OW23058   0.341   8.372   8.502
73740SOL    HW123059   0.299   8.458   8.497
73740SOL    HW223060   0.376   8.357   8.415
73741SOL     OW23061   6.898   5.875   2.600
73741SOL    HW123062   6.855   5.790   2.612
73741SOL    HW223063   6.832   5.939   2.628
73742SOL     OW23064   1.373   4.102  10.276
73742SOL    HW123065   1.460   4.062  10.270
73742SOL    HW223066   1.318   4.035  10.316
73743SOL     OW23067   7.957   1.622   1.023
73743SOL    HW123068   7.909   1.699   1.052
73743SOL    HW223069   8.003   1.650   0.944
73744SOL     OW23070  13.513   5.756  11.154
73744SOL    HW123071  13.424   5.768  11.188
73744SOL    HW223072  13.555   5.841  11.164
73745SOL     OW23073   9.739   4.868   9.665
73745SOL    HW123074   9.784   4.887   9.748
73745SOL    HW223075   9.659   4.821   9.691
73746SOL     OW23076   6.866   4.057   4.196
73746SOL    HW123077   6.854   4.110   4.118
73746SOL    HW223078   6.824   3.973   4.175
73747SOL     OW23079   5.209  11.048   3.402
73747SOL    HW123080   5.133  11.074   3.350
73747SOL    HW223081   5.201  11.098   3.483
73748SOL     OW23082   0.260  14.439  11.210
73748SOL    HW123083   0.333  14.500  11.218
73748SOL    HW223084   0.211  14.449  11.291
73749SOL     OW23085   9.015  10.574   5.875
73749SOL    HW123086   8.953  10.515   5.917
73749SOL    HW223087   9.089  10.518   5.851
73750SOL     OW23088   8.996   6.654   5.231
73750SOL    HW123089   9.090   6.658   5.216
73750SOL    HW223090   8.980   6.716   5.302
73751SOL     OW23091   0.118  10.258  13.410
73751SOL    HW123092   0.149  10.337  13.365
73751SOL    HW223093   0.048  10.224  13.355
73752SOL     OW23094  11.870   6.523   6.971
73752SOL    HW123095  11.880   6.563   6.885
73752SOL    HW223096  11.776   6.527   6.988
73753SOL     OW23097   5.160  10.944   7.355
73753SOL    HW123098   5.174  11.037   7.372
73753SOL    HW223099   5.234  10.919   7.300
73754SOL     OW23100   2.409   4.849  11.724
73754SOL    HW123101   2.497   4.849  11.762
73754SOL    HW223102   2.403   4.931  11.676
73755SOL     OW23103  14.098   5.560   4.925
73755SOL    HW123104  14.172   5.590   4.977
73755SOL    HW223105  14.081   5.632   4.864
73756SOL     OW23106   8.450   2.108   7.243
73756SOL    HW123107   8.389   2.163   7.195
73756SOL    HW223108   8.520   2.167   7.269
73757SOL     OW23109   6.346   4.542   2.515
73757SOL    HW123110   6.385   4.524   2.429
73757SOL    HW223111   6.421   4.559   2.572
73758SOL     OW23112   4.779   9.803  12.886
73758SOL    HW123113   4.802   9.797  12.793
73758SOL    HW223114   4.861   9.827  12.930
73759SOL     OW23115   3.364   2.053  10.969
73759SOL    HW123116   3.396   1.996  10.899
73759SOL    HW223117   3.300   2.000  11.016
73760SOL     OW23118   2.374   9.908   5.232
73760SOL    HW123119   2.467   9.930   5.228
73760SOL    HW223120   2.330   9.993   5.238
73761SOL     OW23121  12.575   6.893  10.892
73761SOL    HW123122  12.524   6.924  10.817
73761SOL    HW223123  12.563   6.798  10.892
73762SOL     OW23124  11.095   2.377  11.930
73762SOL    HW123125  11.014   2.335  11.902
73762SOL    HW223126  11.085   2.468  11.902
73763SOL     OW23127  12.986   5.527   5.685
73763SOL    HW123128  13.012   5.457   5.745
73763SOL    HW223129  13.025   5.501   5.601
73764SOL     OW23130   5.769  11.890  13.893
73764SOL    HW123131   5.799  11.858  13.808
73764SOL    HW223132   5.810  11.832  13.957
73765SOL     OW23133   7.390   4.729  12.642
73765SOL    HW123134   7.349   4.743  12.727
73765SOL    HW223135   7.483   4.722  12.660
73766SOL     OW23136   0.429   1.505   8.860
73766SOL    HW123137   0.380   1.432   8.896
73766SOL    HW223138   0.392   1.519   8.773
73767SOL     OW23139   0.288   5.618   6.501
73767SOL    HW123140   0.258   5.606   6.411
73767SOL    HW223141   0.297   5.529   6.536
73768SOL     OW23142  12.048   7.997   9.241
73768SOL    HW123143  11.972   7.993   9.298
73768SOL    HW223144  12.080   8.087   9.249
73769SOL     OW23145   5.994   1.069  11.564
73769SOL    HW123146   5.917   1.092  11.615
73769SOL    HW223147   6.064   1.124  11.600
73770SOL     OW23148   9.257   0.412   2.704
73770SOL    HW123149   9.330   0.399   2.765
73770SOL    HW223150   9.217   0.326   2.695
73771SOL     OW23151   4.082  10.860   3.906
73771SOL    HW123152   4.043  10.837   3.822
73771SOL    HW223153   4.025  10.821   3.972
73772SOL     OW23154   5.380   2.117   2.124
73772SOL    HW123155   5.392   2.073   2.040
73772SOL    HW223156   5.310   2.180   2.108
73773SOL     OW23157   0.370   3.323   8.660
73773SOL    HW123158   0.369   3.240   8.707
73773SOL    HW223159   0.299   3.316   8.597
73774SOL     OW23160   7.527  13.541   3.927
73774SOL    HW123161   7.567  13.598   3.860
73774SOL    HW223162   7.544  13.452   3.896
73775SOL     OW23163   6.692  13.202  14.707
73775SOL    HW123164   6.606  13.205  14.749
73775SOL    HW223165   6.704  13.289  14.670
73776SOL     OW23166  13.553   4.651  11.090
73776SOL    HW123167  13.511   4.705  11.157
73776SOL    HW223168  13.545   4.562  11.123
73777SOL     OW23169  12.005   2.265   7.845
73777SOL    HW123170  11.919   2.227   7.866
73777SOL    HW223171  11.987   2.357   7.829
73778SOL     OW23172   6.713  12.977   8.627
73778SOL    HW123173   6.629  12.949   8.662
73778SOL    HW223174   6.778  12.931   8.682
73779SOL     OW23175   7.512  10.996  12.620
73779SOL    HW123176   7.575  10.950  12.565
73779SOL    HW223177   7.453  10.928  12.651
73780SOL     OW23178  11.764  13.133  12.142
73780SOL    HW123179  11.708  13.205  12.172
73780SOL    HW223180  11.816  13.109  12.219
73781SOL     OW23181   9.742  12.679   1.793
73781SOL    HW123182   9.701  12.668   1.707
73781SOL    HW223183   9.811  12.614   1.795
73782SOL     OW23184   7.139  13.264  10.171
73782SOL    HW123185   7.131  13.358  10.190
73782SOL    HW223186   7.050  13.231  10.176
73783SOL     OW23187  11.535   6.927   2.956
73783SOL    HW123188  11.608   6.984   2.934
73783SOL    HW223189  11.457   6.980   2.937
73784SOL     OW23190  14.859  10.721  14.767
73784SOL    HW123191   0.037  10.663  14.712
73784SOL    HW223192   0.026  10.714  14.854
73785SOL     OW23193   3.452   9.027   2.337
73785SOL    HW123194   3.477   8.999   2.249
73785SOL    HW223195   3.495   8.964   2.395
73786SOL     OW23196  13.212   1.938  10.631
73786SOL    HW123197  13.186   1.855  10.590
73786SOL    HW223198  13.307   1.932  10.640
73787SOL     OW23199  11.895   0.340   9.963
73787SOL    HW123200  11.913   0.247   9.949
73787SOL    HW223201  11.975   0.385   9.936
73788SOL     OW23202   1.548  12.487   5.008
73788SOL    HW123203   1.494  12.445   4.941
73788SOL    HW223204   1.548  12.425   5.081
73789SOL     OW23205  14.008   6.785   8.170
73789SOL    HW123206  14.071   6.830   8.225
73789SOL    HW223207  13.968   6.854   8.117
73790SOL     OW23208   9.861   1.750  13.667
73790SOL    HW123209   9.919   1.820  13.640
73790SOL    HW223210   9.905   1.709  13.741
73791SOL     OW23211   9.912  11.408  12.046
73791SOL    HW123212   9.981  11.354  12.006
73791SOL    HW223213   9.857  11.346  12.093
73792SOL     OW23214  14.675   0.308  13.846
73792SOL    HW123215  14.581   0.318  13.829
73792SOL    HW223216  14.695   0.376  13.910
73793SOL     OW23217   4.501   9.304   6.585
73793SOL    HW123218   4.474   9.327   6.675
73793SOL    HW223219   4.418   9.293   6.538
73794SOL     OW23220   1.650   3.199  12.964
73794SOL    HW123221   1.740   3.230  12.949
73794SOL    HW223222   1.648   3.177  13.057
73795SOL     OW23223   0.352   7.853   8.687
73795SOL    HW123224   0.317   7.823   8.771
73795SOL    HW223225   0.442   7.879   8.706
73796SOL     OW23226   4.836   0.424  11.640
73796SOL    HW123227   4.887   0.504  11.624
73796SOL    HW223228   4.884   0.355  11.594
73797SOL     OW23229   4.440   4.476   5.263
73797SOL    HW123230   4.499   4.549   5.285
73797SOL    HW223231   4.435   4.478   5.167
73798SOL     OW23232  11.591  12.937   1.828
73798SOL    HW123233  11.641  12.982   1.760
73798SOL    HW223234  11.565  13.006   1.889
73799SOL     OW23235  10.902  12.326  12.093
73799SOL    HW123236  10.938  12.238  12.080
73799SOL    HW223237  10.884  12.357  12.004
73800SOL     OW23238   6.580  10.301  14.584
73800SOL    HW123239   6.629  10.362  14.639
73800SOL    HW223240   6.646  10.238  14.554
73801SOL     OW23241   2.519  11.308   3.078
73801SOL    HW123242   2.534  11.370   3.150
73801SOL    HW223243   2.539  11.222   3.115
73802SOL     OW23244   9.943  13.143  10.693
73802SOL    HW123245  10.034  13.115  10.706
73802SOL    HW223246   9.949  13.222  10.639
73803SOL     OW23247   9.263   0.579   0.267
73803SOL    HW123248   9.326   0.650   0.279
73803SOL    HW223249   9.178   0.622   0.273
73804SOL     OW23250   8.218  13.959   8.371
73804SOL    HW123251   8.140  13.904   8.375
73804SOL    HW223252   8.291  13.897   8.361
73805SOL     OW23253  11.940   6.296   3.310
73805SOL    HW123254  12.022   6.247   3.306
73805SOL    HW223255  11.951   6.355   3.385
73806SOL     OW23256   4.092   1.945  10.334
73806SOL    HW123257   4.082   1.972  10.242
73806SOL    HW223258   4.017   1.983  10.378
73807SOL     OW23259   8.620   9.476   7.337
73807SOL    HW123260   8.681   9.549   7.342
73807SOL    HW223261   8.599   9.455   7.428
73808SOL     OW23262  13.307   2.070  10.257
73808SOL    HW123263  13.264   2.064  10.172
73808SOL    HW223264  13.399   2.089  10.236
73809SOL     OW23265   0.229   8.132   9.597
73809SOL    HW123266   0.184   8.067   9.545
73809SOL    HW223267   0.199   8.116   9.687
73810SOL     OW23268   8.190   4.689   3.344
73810SOL    HW123269   8.261   4.646   3.298
73810SOL    HW223270   8.231   4.766   3.384
73811SOL     OW23271   6.503   0.735  13.274
73811SOL    HW123272   6.426   0.763  13.323
73811SOL    HW223273   6.476   0.654  13.230
73812SOL     OW23274   1.831   9.303  12.409
73812SOL    HW123275   1.782   9.292  12.328
73812SOL    HW223276   1.769   9.347  12.469
73813SOL     OW23277   3.527   9.583   6.135
73813SOL    HW123278   3.621   9.589   6.122
73813SOL    HW223279   3.494   9.671   6.116
73814SOL     OW23280   9.758   0.049  10.273
73814SOL    HW123281   9.764   0.062  10.178
73814SOL    HW223282   9.665   0.060  10.293
73815SOL     OW23283  10.587  13.689   6.809
73815SOL    HW123284  10.540  13.770   6.788
73815SOL    HW223285  10.592  13.690   6.905
73816SOL     OW23286   0.756   4.419   2.416
73816SOL    HW123287   0.799   4.356   2.474
73816SOL    HW223288   0.795   4.403   2.330
73817SOL     OW23289   9.040   1.558   9.021
73817SOL    HW123290   9.057   1.591   8.933
73817SOL    HW223291   8.958   1.601   9.047
73818SOL     OW23292   3.421   8.100  14.080
73818SOL    HW123293   3.464   8.133  14.159
73818SOL    HW223294   3.358   8.036  14.113
73819SOL     OW23295  14.240  13.718  11.785
73819SOL    HW123296  14.168  13.782  11.785
73819SOL    HW223297  14.289  13.736  11.705
73820SOL     OW23298  10.998  13.127   0.631
73820SOL    HW123299  11.055  13.080   0.570
73820SOL    HW223300  11.058  13.174   0.688
73821SOL     OW23301  10.994   8.341   9.329
73821SOL    HW123302  10.964   8.279   9.395
73821SOL    HW223303  10.993   8.291   9.247
73822SOL     OW23304  13.968  13.222   6.755
73822SOL    HW123305  13.925  13.206   6.671
73822SOL    HW223306  13.965  13.138   6.800
73823SOL     OW23307   5.047  14.165   4.846
73823SOL    HW123308   5.085  14.252   4.832
73823SOL    HW223309   5.097  14.129   4.920
73824SOL     OW23310  14.734  12.809   6.783
73824SOL    HW123311  14.768  12.881   6.836
73824SOL    HW223312  14.729  12.735   6.844
73825SOL     OW23313   0.432  12.192  11.636
73825SOL    HW123314   0.429  12.206  11.731
73825SOL    HW223315   0.470  12.273  11.601
73826SOL     OW23316  12.102  12.323   2.190
73826SOL    HW123317  12.194  12.303   2.177
73826SOL    HW223318  12.056  12.243   2.166
73827SOL     OW23319  12.376  13.114   5.305
73827SOL    HW123320  12.468  13.124   5.327
73827SOL    HW223321  12.338  13.064   5.378
73828SOL     OW23322   3.645  12.490  14.624
73828SOL    HW123323   3.559  12.449  14.616
73828SOL    HW223324   3.707  12.420  14.605
73829SOL     OW23325   7.528   6.145   5.859
73829SOL    HW123326   7.548   6.053   5.839
73829SOL    HW223327   7.432   6.148   5.861
73830SOL     OW23328   5.252   9.683   7.470
73830SOL    HW123329   5.276   9.733   7.548
73830SOL    HW223330   5.196   9.612   7.503
73831SOL     OW23331  11.081   5.382  14.615
73831SOL    HW123332  11.134   5.454  14.580
73831SOL    HW223333  11.138   5.305  14.607
73832SOL     OW23334   2.226   0.817   2.577
73832SOL    HW123335   2.185   0.812   2.491
73832SOL    HW223336   2.155   0.844   2.636
73833SOL     OW23337  12.651  13.460   7.903
73833SOL    HW123338  12.745  13.470   7.887
73833SOL    HW223339  12.642  13.462   7.999
73834SOL     OW23340   1.942   7.327   3.107
73834SOL    HW123341   1.882   7.268   3.153
73834SOL    HW223342   1.938   7.408   3.158
73835SOL     OW23343   0.544   4.632   8.731
73835SOL    HW123344   0.491   4.712   8.732
73835SOL    HW223345   0.605   4.645   8.659
73836SOL     OW23346  11.585  13.359   8.286
73836SOL    HW123347  11.503  13.390   8.324
73836SOL    HW223348  11.594  13.270   8.319
73837SOL     OW23349   7.513   1.673   8.951
73837SOL    HW123350   7.522   1.585   8.987
73837SOL    HW223351   7.469   1.660   8.867
73838SOL     OW23352  11.193  12.732   4.272
73838SOL    HW123353  11.183  12.775   4.187
73838SOL    HW223354  11.269  12.674   4.261
73839SOL     OW23355   4.750   5.460  14.383
73839SOL    HW123356   4.674   5.518  14.386
73839SOL    HW223357   4.768   5.438  14.474
73840SOL     OW23358   2.961   7.125   5.339
73840SOL    HW123359   3.037   7.097   5.390
73840SOL    HW223360   2.993   7.129   5.249
73841SOL     OW23361   2.600   0.197   3.784
73841SOL    HW123362   2.643   0.184   3.700
73841SOL    HW223363   2.525   0.138   3.782
73842SOL     OW23364   7.061   1.636  13.553
73842SOL    HW123365   7.156   1.637  13.541
73842SOL    HW223366   7.042   1.715  13.603
73843SOL     OW23367   8.760   6.818   1.083
73843SOL    HW123368   8.739   6.781   0.998
73843SOL    HW223369   8.808   6.749   1.128
73844SOL     OW23370   6.361   1.065   2.795
73844SOL    HW123371   6.296   1.011   2.751
73844SOL    HW223372   6.416   1.100   2.725
73845SOL     OW23373   3.555   0.365   4.323
73845SOL    HW123374   3.586   0.403   4.405
73845SOL    HW223375   3.466   0.398   4.313
73846SOL     OW23376   9.422  11.719   0.447
73846SOL    HW123377   9.451  11.737   0.537
73846SOL    HW223378   9.328  11.699   0.456
73847SOL     OW23379   5.414   3.568   2.710
73847SOL    HW123380   5.336   3.616   2.742
73847SOL    HW223381   5.418   3.490   2.766
73848SOL     OW23382  14.096  10.445   7.956
73848SOL    HW123383  14.174  10.486   7.992
73848SOL    HW223384  14.065  10.507   7.890
73849SOL     OW23385  10.689   0.175   5.383
73849SOL    HW123386  10.637   0.188   5.304
73849SOL    HW223387  10.650   0.234   5.447
73850SOL     OW23388   6.141   4.761   2.537
73850SOL    HW123389   6.184   4.808   2.466
73850SOL    HW223390   6.210   4.706   2.575
73851SOL     OW23391  13.475   7.305  10.249
73851SOL    HW123392  13.547   7.297  10.187
73851SOL    HW223393  13.397   7.315  10.195
73852SOL     OW23394  12.823   8.721  10.216
73852SOL    HW123395  12.743   8.704  10.166
73852SOL    HW223396  12.865   8.793  10.170
73853SOL     OW23397  11.747   5.862  12.337
73853SOL    HW123398  11.665   5.835  12.296
73853SOL    HW223399  11.748   5.817  12.421
73854SOL     OW23400   1.824   8.097  13.288
73854SOL    HW123401   1.855   8.067  13.374
73854SOL    HW223402   1.826   8.019  13.233
73855SOL     OW23403  12.374  11.177   8.023
73855SOL    HW123404  12.451  11.125   8.045
73855SOL    HW223405  12.408  11.265   8.006
73856SOL     OW23406  12.119   1.221   5.463
73856SOL    HW123407  12.040   1.221   5.409
73856SOL    HW223408  12.099   1.163   5.535
73857SOL     OW23409  11.416   2.382   4.119
73857SOL    HW123410  11.349   2.443   4.152
73857SOL    HW223411  11.401   2.302   4.169
73858SOL     OW23412  11.746  14.570  12.184
73858SOL    HW123413  11.704  14.486  12.198
73858SOL    HW223414  11.746  14.582  12.089
73859SOL     OW23415  14.532   5.383   4.267
73859SOL    HW123416  14.620   5.349   4.249
73859SOL    HW223417  14.539   5.477   4.246
73860SOL     OW23418   4.897   3.082  12.709
73860SOL    HW123419   4.832   3.152  12.703
73860SOL    HW223420   4.872   3.020  12.640
73861SOL     OW23421  11.299   9.584   0.864
73861SOL    HW123422  11.240   9.611   0.935
73861SOL    HW223423  11.319   9.666   0.818
73862SOL     OW23424   2.321   9.597  12.001
73862SOL    HW123425   2.230   9.583  12.025
73862SOL    HW223426   2.360   9.510  12.002
73863SOL     OW23427  10.041   9.097   5.535
73863SOL    HW123428  10.103   9.143   5.593
73863SOL    HW223429  10.082   9.012   5.519
73864SOL     OW23430  10.249   1.468   9.852
73864SOL    HW123431  10.243   1.500   9.942
73864SOL    HW223432  10.339   1.437   9.844
73865SOL     OW23433   3.187   8.575  10.086
73865SOL    HW123434   3.191   8.669  10.064
73865SOL    HW223435   3.278   8.548  10.093
73866SOL     OW23436   9.905  11.568  12.662
73866SOL    HW123437   9.859  11.606  12.736
73866SOL    HW223438   9.842  11.570  12.590
73867SOL     OW23439  13.968   2.341   4.994
73867SOL    HW123440  14.014   2.309   5.072
73867SOL    HW223441  13.878   2.313   5.007
73868SOL     OW23442   7.635  14.360  13.723
73868SOL    HW123443   7.603  14.449  13.739
73868SOL    HW223444   7.644  14.322  13.811
73869SOL     OW23445  10.408  10.824   5.317
73869SOL    HW123446  10.496  10.856   5.339
73869SOL    HW223447  10.413  10.730   5.333
73870SOL     OW23448   2.664   7.012  14.678
73870SOL    HW123449   2.719   6.954  14.624
73870SOL    HW223450   2.587   6.960  14.699
73871SOL     OW23451  14.127  12.365  11.037
73871SOL    HW123452  14.197  12.409  11.085
73871SOL    HW223453  14.080  12.314  11.103
73872SOL     OW23454   7.790   1.388   3.620
73872SOL    HW123455   7.714   1.397   3.678
73872SOL    HW223456   7.777   1.454   3.553
73873SOL     OW23457  14.737  11.288   2.889
73873SOL    HW123458  14.804  11.229   2.853
73873SOL    HW223459  14.758  11.294   2.982
73874SOL     OW23460   1.243  12.849   8.580
73874SOL    HW123461   1.216  12.889   8.663
73874SOL    HW223462   1.289  12.769   8.606
73875SOL     OW23463   8.775  14.758   3.644
73875SOL    HW123464   8.718  14.787   3.573
73875SOL    HW223465   8.793  14.837   3.695
73876SOL     OW23466   9.672  10.179  11.292
73876SOL    HW123467   9.693  10.106  11.233
73876SOL    HW223468   9.577  10.175  11.303
73877SOL     OW23469   0.083   5.161   8.479
73877SOL    HW123470   0.065   5.252   8.453
73877SOL    HW223471  14.872   5.127   8.506
73878SOL     OW23472   3.916   8.041   4.568
73878SOL    HW123473   3.958   8.100   4.506
73878SOL    HW223474   3.888   7.966   4.516
73879SOL     OW23475   5.230  10.622  10.096
73879SOL    HW123476   5.201  10.533  10.113
73879SOL    HW223477   5.318  10.626  10.132
73880SOL     OW23478   9.395   8.748   5.795
73880SOL    HW123479   9.416   8.838   5.819
73880SOL    HW223480   9.300   8.741   5.807
73881SOL     OW23481   8.669  13.665  14.498
73881SOL    HW123482   8.703  13.754  14.489
73881SOL    HW223483   8.730  13.611  14.448
73882SOL     OW23484   3.700  10.686   9.666
73882SOL    HW123485   3.784  10.723   9.638
73882SOL    HW223486   3.641  10.700   9.592
73883SOL     OW23487   3.310   7.212   6.241
73883SOL    HW123488   3.312   7.141   6.305
73883SOL    HW223489   3.271   7.285   6.287
73884SOL     OW23490   6.937  11.075  14.202
73884SOL    HW123491   7.007  11.034  14.252
73884SOL    HW223492   6.881  11.116  14.268
73885SOL     OW23493   4.896  12.880  13.404
73885SOL    HW123494   4.926  12.790  13.412
73885SOL    HW223495   4.815  12.883  13.455
73886SOL     OW23496  11.120  14.602  12.388
73886SOL    HW123497  11.126  14.687  12.344
73886SOL    HW223498  11.030  14.599  12.422
73887SOL     OW23499  10.104   8.839   5.546
73887SOL    HW123500  10.100   8.776   5.473
73887SOL    HW223501  10.031   8.814   5.603
73888SOL     OW23502   3.856   1.655  10.714
73888SOL    HW123503   3.940   1.678  10.674
73888SOL    HW223504   3.833   1.732  10.766
73889SOL     OW23505  13.682  12.382   0.422
73889SOL    HW123506  13.711  12.452   0.481
73889SOL    HW223507  13.755  12.370   0.361
73890SOL     OW23508   1.257   2.092   7.952
73890SOL    HW123509   1.312   2.169   7.940
73890SOL    HW223510   1.171   2.127   7.974
73891SOL     OW23511   3.546   7.639   2.538
73891SOL    HW123512   3.598   7.692   2.478
73891SOL    HW223513   3.610   7.602   2.599
73892SOL     OW23514   3.180   0.657   3.345
73892SOL    HW123515   3.229   0.680   3.266
73892SOL    HW223516   3.205   0.566   3.363
73893SOL     OW23517   5.112   1.351   5.969
73893SOL    HW123518   5.063   1.350   6.051
73893SOL    HW223519   5.168   1.273   5.973
73894SOL     OW23520   7.524   6.607   0.492
73894SOL    HW123521   7.570   6.690   0.478
73894SOL    HW223522   7.590   6.548   0.527
73895SOL     OW23523   2.695  14.131   5.821
73895SOL    HW123524   2.771  14.187   5.834
73895SOL    HW223525   2.654  14.163   5.741
73896SOL     OW23526   7.503   1.410   0.577
73896SOL    HW123527   7.586   1.418   0.530
73896SOL    HW223528   7.478   1.318   0.566
73897SOL     OW23529   4.727   2.254  10.258
73897SOL    HW123530   4.812   2.298  10.256
73897SOL    HW223531   4.733   2.186  10.191
73898SOL     OW23532   8.620   0.922   6.234
73898SOL    HW123533   8.564   0.888   6.165
73898SOL    HW223534   8.697   0.957   6.188
73899SOL     OW23535   8.021   7.096   4.699
73899SOL    HW123536   7.967   7.102   4.621
73899SOL    HW223537   7.987   7.164   4.757
73900SOL     OW23538   2.353   9.099  11.532
73900SOL    HW123539   2.343   9.140  11.446
73900SOL    HW223540   2.428   9.145  11.572
73901SOL     OW23541   9.407   7.549   2.378
73901SOL    HW123542   9.321   7.553   2.419
73901SOL    HW223543   9.399   7.605   2.300
73902SOL     OW23544   8.310  10.154  12.098
73902SOL    HW123545   8.265  10.070  12.107
73902SOL    HW223546   8.358  10.146  12.016
73903SOL     OW23547  14.722  13.514  14.302
73903SOL    HW123548  14.663  13.580  14.338
73903SOL    HW223549  14.806  13.559  14.294
73904SOL     OW23550  14.199   3.750   5.316
73904SOL    HW123551  14.219   3.815   5.249
73904SOL    HW223552  14.209   3.666   5.271
73905SOL     OW23553   1.852   2.738   8.900
73905SOL    HW123554   1.917   2.676   8.933
73905SOL    HW223555   1.903   2.798   8.845
73906SOL     OW23556   3.525   8.008   6.538
73906SOL    HW123557   3.543   7.956   6.460
73906SOL    HW223558   3.453   8.066   6.512
73907SOL     OW23559   1.540  11.567   7.195
73907SOL    HW123560   1.547  11.531   7.283
73907SOL    HW223561   1.620  11.537   7.150
73908SOL     OW23562   3.704   1.021  11.343
73908SOL    HW123563   3.735   0.942  11.386
73908SOL    HW223564   3.759   1.030  11.266
73909SOL     OW23565   6.922   8.478  10.482
73909SOL    HW123566   7.005   8.499  10.439
73909SOL    HW223567   6.855   8.514  10.423
73910SOL     OW23568   5.468   9.955  10.062
73910SOL    HW123569   5.465  10.043  10.025
73910SOL    HW223570   5.399   9.954  10.129
73911SOL     OW23571   1.081   8.905  13.864
73911SOL    HW123572   1.015   8.862  13.809
73911SOL    HW223573   1.156   8.918  13.806
73912SOL     OW23574  13.987   9.496   8.922
73912SOL    HW123575  13.954   9.458   8.841
73912SOL    HW223576  13.966   9.430   8.989
73913SOL     OW23577   3.282  12.325  14.013
73913SOL    HW123578   3.192  12.357  14.001
73913SOL    HW223579   3.271  12.237  14.049
73914SOL     OW23580   6.525   9.721   2.231
73914SOL    HW123581   6.456   9.664   2.266
73914SOL    HW223582   6.502   9.734   2.140
73915SOL     OW23583   3.122  13.609  12.023
73915SOL    HW123584   3.106  13.700  12.047
73915SOL    HW223585   3.037  13.576  11.995
73916SOL     OW23586   4.398   0.845   3.841
73916SOL    HW123587   4.380   0.828   3.749
73916SOL    HW223588   4.365   0.767   3.886
73917SOL     OW23589   1.152   2.428   5.685
73917SOL    HW123590   1.228   2.428   5.743
73917SOL    HW223591   1.089   2.370   5.728
73918SOL     OW23592   6.285  11.790   6.819
73918SOL    HW123593   6.244  11.794   6.905
73918SOL    HW223594   6.230  11.731   6.768
73919SOL     OW23595   7.375   4.017   3.031
73919SOL    HW123596   7.290   4.002   2.989
73919SOL    HW223597   7.377   3.954   3.103
73920SOL     OW23598   0.902  11.362  13.726
73920SOL    HW123599   0.883  11.301  13.798
73920SOL    HW223600   0.818  11.401  13.704
73921SOL     OW23601  11.384   3.586  11.632
73921SOL    HW123602  11.428   3.523  11.576
73921SOL    HW223603  11.454   3.626  11.683
73922SOL     OW23604   2.439   9.250   8.250
73922SOL    HW123605   2.346   9.265   8.265
73922SOL    HW223606   2.476   9.337   8.236
73923SOL     OW23607  13.599   4.489  13.500
73923SOL    HW123608  13.554   4.569  13.529
73923SOL    HW223609  13.557   4.419  13.550
73924SOL     OW23610  11.728  10.347  14.360
73924SOL    HW123611  11.654  10.369  14.416
73924SOL    HW223612  11.751  10.429  14.317
73925SOL     OW23613   6.464   7.696  13.007
73925SOL    HW123614   6.374   7.663  13.008
73925SOL    HW223615   6.471   7.742  12.923
73926SOL     OW23616  10.786   9.974   8.476
73926SOL    HW123617  10.774   9.913   8.550
73926SOL    HW223618  10.745  10.055   8.505
73927SOL     OW23619  13.117   6.319   4.048
73927SOL    HW123620  13.084   6.277   3.968
73927SOL    HW223621  13.178   6.256   4.084
73928SOL     OW23622   1.548  11.739  11.994
73928SOL    HW123623   1.497  11.795  11.936
73928SOL    HW223624   1.489  11.668  12.019
73929SOL     OW23625   0.699  13.498   4.008
73929SOL    HW123626   0.640  13.490   3.933
73929SOL    HW223627   0.657  13.563   4.064
73930SOL     OW23628  11.071  13.063   7.923
73930SOL    HW123629  11.135  13.005   7.965
73930SOL    HW223630  11.007  13.003   7.885
73931SOL     OW23631   6.186  10.366   6.775
73931SOL    HW123632   6.235  10.449   6.776
73931SOL    HW223633   6.113  10.382   6.716
73932SOL     OW23634   5.310   9.163   0.020
73932SOL    HW123635   5.247   9.129  14.831
73932SOL    HW223636   5.300   9.258   0.015
73933SOL     OW23637   8.869  10.270  12.779
73933SOL    HW123638   8.864  10.336  12.710
73933SOL    HW223639   8.802  10.206  12.756
73934SOL     OW23640   3.861   9.939  14.440
73934SOL    HW123641   3.866   9.858  14.390
73934SOL    HW223642   3.933   9.992  14.406
73935SOL     OW23643  13.218  13.174   7.752
73935SOL    HW123644  13.237  13.237   7.822
73935SOL    HW223645  13.288  13.188   7.688
73936SOL     OW23646   4.071   2.813   2.889
73936SOL    HW123647   4.023   2.734   2.916
73936SOL    HW223648   4.142   2.820   2.952
73937SOL     OW23649   5.939   6.359   4.855
73937SOL    HW123650   5.969   6.423   4.790
73937SOL    HW223651   5.906   6.412   4.928
73938SOL     OW23652  11.866  13.858  10.087
73938SOL    HW123653  11.779  13.819  10.096
73938SOL    HW223654  11.914  13.826  10.164
73939SOL     OW23655   1.208   7.134  12.527
73939SOL    HW123656   1.274   7.101  12.587
73939SOL    HW223657   1.245   7.216  12.494
73940SOL     OW23658   5.358   6.695  14.142
73940SOL    HW123659   5.399   6.781  14.139
73940SOL    HW223660   5.421   6.636  14.100
73941SOL     OW23661  11.680   9.092   7.146
73941SOL    HW123662  11.715   9.004   7.132
73941SOL    HW223663  11.728   9.126   7.222
73942SOL     OW23664   2.836   2.072   5.787
73942SOL    HW123665   2.840   2.125   5.866
73942SOL    HW223666   2.779   2.122   5.728
73943SOL     OW23667   9.328   1.232  14.314
73943SOL    HW123668   9.338   1.286  14.392
73943SOL    HW223669   9.237   1.202  14.317
73944SOL     OW23670   0.388  11.513   4.587
73944SOL    HW123671   0.305  11.508   4.635
73944SOL    HW223672   0.449  11.461   4.639
73945SOL     OW23673   6.497   2.635   4.921
73945SOL    HW123674   6.553   2.705   4.953
73945SOL    HW223675   6.492   2.573   4.993
73946SOL     OW23676   4.408   8.976  13.638
73946SOL    HW123677   4.399   8.886  13.670
73946SOL    HW223678   4.481   8.972  13.576
73947SOL     OW23679   6.457   0.974   3.836
73947SOL    HW123680   6.450   0.881   3.854
73947SOL    HW223681   6.504   1.009   3.912
73948SOL     OW23682   0.348  11.158  12.834
73948SOL    HW123683   0.270  11.150  12.890
73948SOL    HW223684   0.329  11.231  12.775
73949SOL     OW23685   4.604   8.560   8.732
73949SOL    HW123686   4.629   8.575   8.641
73949SOL    HW223687   4.650   8.480   8.757
73950SOL     OW23688  10.721   6.561   4.227
73950SOL    HW123689  10.790   6.627   4.227
73950SOL    HW223690  10.763   6.482   4.262
73951SOL     OW23691   4.780   5.112   9.911
73951SOL    HW123692   4.729   5.047   9.959
73951SOL    HW223693   4.753   5.101   9.819
73952SOL     OW23694   5.506   1.066   4.686
73952SOL    HW123695   5.412   1.054   4.700
73952SOL    HW223696   5.541   0.978   4.680
73953SOL     OW23697  12.230  14.706  12.263
73953SOL    HW123698  12.288  14.775  12.231
73953SOL    HW223699  12.150  14.752  12.288
73954SOL     OW23700   9.299   7.326  12.589
73954SOL    HW123701   9.314   7.418  12.613
73954SOL    HW223702   9.246   7.330  12.510
73955SOL     OW23703   8.014   3.302  10.465
73955SOL    HW123704   7.977   3.331  10.548
73955SOL    HW223705   7.979   3.213  10.454
73956SOL     OW23706   5.880   9.241   6.324
73956SOL    HW123707   5.867   9.288   6.242
73956SOL    HW223708   5.796   9.247   6.369
73957SOL     OW23709  13.626   3.844  10.162
73957SOL    HW123710  13.611   3.903  10.089
73957SOL    HW223711  13.538   3.816  10.189
73958SOL     OW23712   7.939  11.706   6.093
73958SOL    HW123713   8.013  11.736   6.146
73958SOL    HW223714   7.977  11.648   6.027
73959SOL     OW23715   4.749   0.208   3.031
73959SOL    HW123716   4.781   0.291   2.995
73959SOL    HW223717   4.653   0.214   3.025
73960SOL     OW23718  11.187   5.903  13.065
73960SOL    HW123719  11.118   5.898  12.998
73960SOL    HW223720  11.206   5.812  13.087
73961SOL     OW23721   9.393  10.973   2.545
73961SOL    HW123722   9.321  10.912   2.561
73961SOL    HW223723   9.455  10.958   2.616
73962SOL     OW23724   6.079   4.923   8.856
73962SOL    HW123725   6.171   4.943   8.875
73962SOL    HW223726   6.073   4.828   8.866
73963SOL     OW23727  10.362  13.071   1.330
73963SOL    HW123728  10.320  13.140   1.278
73963SOL    HW223729  10.321  12.990   1.299
73964SOL     OW23730   8.042  10.210  12.266
73964SOL    HW123731   8.107  10.141  12.277
73964SOL    HW223732   7.994  10.186  12.187
73965SOL     OW23733   7.492   9.954   0.714
73965SOL    HW123734   7.555  10.026   0.721
73965SOL    HW223735   7.539   9.887   0.664
73966SOL     OW23736   3.988   9.688   0.055
73966SOL    HW123737   3.899   9.654   0.040
73966SOL    HW223738   4.044   9.611   0.049
73967SOL     OW23739  12.604  11.320   1.844
73967SOL    HW123740  12.529  11.310   1.902
73967SOL    HW223741  12.680  11.315   1.903
73968SOL     OW23742  10.433   8.633   3.171
73968SOL    HW123743  10.389   8.580   3.104
73968SOL    HW223744  10.405   8.722   3.154
73969SOL     OW23745   7.848  12.502   1.322
73969SOL    HW123746   7.825  12.564   1.391
73969SOL    HW223747   7.926  12.541   1.281
73970SOL     OW23748   0.458  12.067  11.355
73970SOL    HW123749   0.498  11.982  11.341
73970SOL    HW223750   0.449  12.074  11.450
73971SOL     OW23751   7.569   7.416   7.980
73971SOL    HW123752   7.611   7.339   8.020
73971SOL    HW223753   7.641   7.467   7.943
73972SOL     OW23754   5.507   1.552   4.373
73972SOL    HW123755   5.559   1.550   4.293
73972SOL    HW223756   5.514   1.463   4.408
73973SOL     OW23757   2.358  14.293  11.298
73973SOL    HW123758   2.339  14.199  11.305
73973SOL    HW223759   2.448  14.296  11.265
73974SOL     OW23760  13.555   1.528  14.347
73974SOL    HW123761  13.472   1.480  14.342
73974SOL    HW223762  13.580   1.541  14.255
73975SOL     OW23763   5.918   9.989   0.364
73975SOL    HW123764   5.872   9.932   0.426
73975SOL    HW223765   6.008   9.957   0.366
73976SOL     OW23766   3.181   1.350  14.309
73976SOL    HW123767   3.170   1.442  14.282
73976SOL    HW223768   3.265   1.324  14.271
73977SOL     OW23769   4.245   3.169   7.748
73977SOL    HW123770   4.230   3.204   7.660
73977SOL    HW223771   4.326   3.119   7.741
73978SOL     OW23772   3.725   6.566   9.829
73978SOL    HW123773   3.699   6.481   9.793
73978SOL    HW223774   3.805   6.588   9.781
73979SOL     OW23775   1.081  11.836   1.271
73979SOL    HW123776   1.158  11.781   1.290
73979SOL    HW223777   1.106  11.923   1.301
73980SOL     OW23778  13.409  12.975  11.747
73980SOL    HW123779  13.447  13.058  11.716
73980SOL    HW223780  13.336  13.002  11.803
73981SOL     OW23781   8.571   3.641   5.378
73981SOL    HW123782   8.624   3.648   5.457
73981SOL    HW223783   8.507   3.573   5.397
73982SOL     OW23784   4.203   5.872   1.298
73982SOL    HW123785   4.178   5.955   1.257
73982SOL    HW223786   4.168   5.879   1.387
73983SOL     OW23787   4.976   1.091   1.934
73983SOL    HW123788   4.927   1.056   2.008
73983SOL    HW223789   5.062   1.049   1.940
73984SOL     OW23790   7.154   2.335   3.976
73984SOL    HW123791   7.157   2.426   4.008
73984SOL    HW223792   7.243   2.318   3.944
73985SOL     OW23793  10.456  11.975   3.052
73985SOL    HW123794  10.366  11.994   3.025
73985SOL    HW223795  10.508  12.045   3.014
73986SOL     OW23796   1.213  10.211  14.351
73986SOL    HW123797   1.190  10.128  14.393
73986SOL    HW223798   1.216  10.191  14.258
73987SOL     OW23799  13.177   4.845   4.477
73987SOL    HW123800  13.108   4.781   4.459
73987SOL    HW223801  13.241   4.833   4.407
73988SOL     OW23802   8.271  14.061  10.702
73988SOL    HW123803   8.234  14.114  10.631
73988SOL    HW223804   8.365  14.077  10.697
73989SOL     OW23805  13.474  12.032  12.725
73989SOL    HW123806  13.503  12.066  12.640
73989SOL    HW223807  13.388  11.995  12.707
73990SOL     OW23808   2.397  13.474  11.313
73990SOL    HW123809   2.488  13.501  11.327
73990SOL    HW223810   2.403  13.381  11.292
73991SOL     OW23811   4.058   6.270   2.904
73991SOL    HW123812   4.152   6.267   2.883
73991SOL    HW223813   4.017   6.303   2.824
73992SOL     OW23814  12.426   2.725   5.389
73992SOL    HW123815  12.352   2.739   5.330
73992SOL    HW223816  12.495   2.782   5.354
73993SOL     OW23817   6.122   3.263   4.764
73993SOL    HW123818   6.148   3.336   4.820
73993SOL    HW223819   6.106   3.190   4.825
73994SOL     OW23820  14.602  11.420   9.635
73994SOL    HW123821  14.563  11.486   9.692
73994SOL    HW223822  14.553  11.340   9.654
73995SOL     OW23823  11.435  13.472   9.297
73995SOL    HW123824  11.472  13.451   9.212
73995SOL    HW223825  11.340  13.468   9.284
73996SOL     OW23826   8.318   1.051   1.550
73996SOL    HW123827   8.410   1.037   1.529
73996SOL    HW223828   8.296   0.981   1.612
73997SOL     OW23829   6.325   8.253   7.550
73997SOL    HW123830   6.318   8.207   7.466
73997SOL    HW223831   6.395   8.208   7.596
73998SOL     OW23832   9.919   7.619  14.171
73998SOL    HW123833   9.895   7.707  14.201
73998SOL    HW223834   9.837   7.582  14.137
73999SOL     OW23835  12.016   1.470   0.551
73999SOL    HW123836  11.972   1.540   0.502
73999SOL    HW223837  12.048   1.410   0.484
74000SOL     OW23838   3.078  11.019   6.209
74000SOL    HW123839   2.986  11.043   6.201
74000SOL    HW223840   3.117  11.043   6.125
74001SOL     OW23841  10.078   2.687   2.986
74001SOL    HW123842  10.013   2.619   3.005
74001SOL    HW223843  10.152   2.639   2.949
74002SOL     OW23844  11.843   4.196   3.781
74002SOL    HW123845  11.773   4.133   3.768
74002SOL    HW223846  11.891   4.164   3.858
74003SOL     OW23847  10.150  11.187   4.841
74003SOL    HW123848  10.113  11.167   4.927
74003SOL    HW223849  10.175  11.101   4.806
74004SOL     OW23850  11.015  10.368   0.069
74004SOL    HW123851  11.042  10.276   0.072
74004SOL    HW223852  10.961  10.375  14.864
74005SOL     OW23853  12.639  10.174   5.186
74005SOL    HW123854  12.680  10.141   5.106
74005SOL    HW223855  12.680  10.259   5.201
74006SOL     OW23856   1.384  12.043  14.083
74006SOL    HW123857   1.382  12.026  14.177
74006SOL    HW223858   1.327  12.118  14.070
74007SOL     OW23859   0.885   4.830   4.771
74007SOL    HW123860   0.906   4.854   4.862
74007SOL    HW223861   0.914   4.739   4.763
74008SOL     OW23862  10.079   0.370   5.007
74008SOL    HW123863  10.083   0.455   4.964
74008SOL    HW223864  10.146   0.318   4.962
74009SOL     OW23865  13.379   7.714   1.294
74009SOL    HW123866  13.315   7.649   1.324
74009SOL    HW223867  13.376   7.708   1.198
74010SOL     OW23868   0.768   7.427   5.453
74010SOL    HW123869   0.841   7.438   5.392
74010SOL    HW223870   0.703   7.377   5.404
74011SOL     OW23871  13.393  12.499   1.023
74011SOL    HW123872  13.487  12.517   1.022
74011SOL    HW223873  13.387  12.403   1.015
74012SOL     OW23874   9.209   6.150   8.776
74012SOL    HW123875   9.284   6.091   8.769
74012SOL    HW223876   9.246   6.233   8.808
74013SOL     OW23877   5.149   4.873  11.473
74013SOL    HW123878   5.240   4.893  11.455
74013SOL    HW223879   5.119   4.943  11.530
74014SOL     OW23880  11.255   7.505   2.305
74014SOL    HW123881  11.283   7.447   2.376
74014SOL    HW223882  11.173   7.467   2.275
74015SOL     OW23883   5.685   5.073   9.663
74015SOL    HW123884   5.594   5.045   9.652
74015SOL    HW223885   5.688   5.161   9.624
74016SOL     OW23886   8.709   4.623   6.856
74016SOL    HW123887   8.678   4.540   6.893
74016SOL    HW223888   8.804   4.611   6.846
74017SOL     OW23889  10.231   9.764   3.043
74017SOL    HW123890  10.192   9.777   3.129
74017SOL    HW223891  10.307   9.709   3.058
74018SOL     OW23892  10.441   8.813  11.683
74018SOL    HW123893  10.417   8.819  11.775
74018SOL    HW223894  10.535   8.833  11.681
74019SOL     OW23895  13.121   5.728   5.218
74019SOL    HW123896  13.100   5.782   5.294
74019SOL    HW223897  13.035   5.703   5.182
74020SOL     OW23898  14.587  12.167  10.951
74020SOL    HW123899  14.673  12.143  10.916
74020SOL    HW223900  14.528  12.163  10.876
74021SOL     OW23901  12.955  12.909  14.691
74021SOL    HW123902  12.867  12.892  14.724
74021SOL    HW223903  13.013  12.865  14.754
74022SOL     OW23904   1.306  13.747   8.451
74022SOL    HW123905   1.347  13.783   8.530
74022SOL    HW223906   1.364  13.676   8.424
74023SOL     OW23907   0.457   1.361   4.402
74023SOL    HW123908   0.396   1.314   4.458
74023SOL    HW223909   0.429   1.338   4.313
74024SOL     OW23910   1.030   8.490  13.291
74024SOL    HW123911   1.114   8.497  13.336
74024SOL    HW223912   1.000   8.580  13.281
74025SOL     OW23913   4.063   0.758   0.012
74025SOL    HW123914   3.977   0.761   0.054
74025SOL    HW223915   4.077   0.665  14.867
74026SOL     OW23916   8.284   3.789   0.193
74026SOL    HW123917   8.251   3.711   0.149
74026SOL    HW223918   8.233   3.861   0.158
74027SOL     OW23919  11.234  11.681   7.560
74027SOL    HW123920  11.275  11.719   7.482
74027SOL    HW223921  11.234  11.586   7.544
74028SOL     OW23922   5.900   4.718   8.990
74028SOL    HW123923   5.843   4.682   9.058
74028SOL    HW223924   5.841   4.744   8.920
74029SOL     OW23925  14.712   1.615   0.648
74029SOL    HW123926  14.757   1.580   0.571
74029SOL    HW223927  14.714   1.710   0.635
74030SOL     OW23928  14.257  11.043   1.551
74030SOL    HW123929  14.232  11.039   1.644
74030SOL    HW223930  14.260  11.136   1.531
74031SOL     OW23931  13.055   9.999   5.939
74031SOL    HW123932  13.014  10.085   5.931
74031SOL    HW223933  13.035   9.972   6.029
74032SOL     OW23934  11.248  11.806  14.861
74032SOL    HW123935  11.168  11.771   0.027
74032SOL    HW223936  11.298  11.841   0.061
74033SOL     OW23937  13.817  12.846   4.649
74033SOL    HW123938  13.762  12.920   4.621
74033SOL    HW223939  13.776  12.769   4.610
74034SOL     OW23940  13.499   4.043  10.671
74034SOL    HW123941  13.499   4.114  10.735
74034SOL    HW223942  13.407   4.021  10.660
74035SOL     OW23943  13.282  11.128   1.861
74035SOL    HW123944  13.337  11.183   1.917
74035SOL    HW223945  13.284  11.042   1.903
74036SOL     OW23946   6.163   5.266   6.569
74036SOL    HW123947   6.126   5.353   6.559
74036SOL    HW223948   6.258   5.280   6.568
74037SOL     OW23949   6.481   4.461   9.887
74037SOL    HW123950   6.520   4.434   9.804
74037SOL    HW223951   6.411   4.522   9.863
74038SOL     OW23952   3.855   9.796   0.540
74038SOL    HW123953   3.867   9.845   0.459
74038SOL    HW223954   3.911   9.719   0.531
74039SOL     OW23955  13.957   8.330   0.827
74039SOL    HW123956  13.950   8.235   0.839
74039SOL    HW223957  13.967   8.342   0.732
74040SOL     OW23958  14.028  13.649  10.062
74040SOL    HW123959  13.964  13.669   9.994
74040SOL    HW223960  14.025  13.554  10.070
74041SOL     OW23961  10.222   7.984   4.541
74041SOL    HW123962  10.173   7.934   4.476
74041SOL    HW223963  10.313   7.960   4.527
74042SOL     OW23964  13.335  10.973  13.506
74042SOL    HW123965  13.267  11.015  13.559
74042SOL    HW223966  13.305  10.983  13.416
74043SOL     OW23967   0.225  12.602   5.786
74043SOL    HW123968   0.274  12.547   5.847
74043SOL    HW223969   0.149  12.548   5.762
74044SOL     OW23970  14.671   2.971   3.047
74044SOL    HW123971  14.693   3.026   3.122
74044SOL    HW223972  14.645   3.033   2.979
74045SOL     OW23973  14.569   4.543  14.273
74045SOL    HW123974  14.638   4.549  14.207
74045SOL    HW223975  14.540   4.452  14.268
74046SOL     OW23976  13.467   0.804  14.667
74046SOL    HW123977  13.546   0.815  14.720
74046SOL    HW223978  13.469   0.876  14.604
74047SOL     OW23979   5.833   7.892   6.764
74047SOL    HW123980   5.903   7.937   6.811
74047SOL    HW223981   5.755   7.943   6.783
74048SOL     OW23982   8.399   1.937  12.603
74048SOL    HW123983   8.419   1.879  12.530
74048SOL    HW223984   8.440   1.895  12.679
74049SOL     OW23985   4.488  14.698   9.890
74049SOL    HW123986   4.478  14.623   9.950
74049SOL    HW223987   4.490  14.659   9.803
74050SOL     OW23988   3.043   3.889   1.206
74050SOL    HW123989   2.980   3.819   1.190
74050SOL    HW223990   3.086   3.864   1.288
74051SOL     OW23991   6.485   7.623   2.788
74051SOL    HW123992   6.517   7.703   2.746
74051SOL    HW223993   6.523   7.625   2.875
74052SOL     OW23994  11.315  13.434   4.363
74052SOL    HW123995  11.327  13.339   4.362
74052SOL    HW223996  11.294  13.455   4.454
74053SOL     OW23997   1.312   2.264   9.497
74053SOL    HW123998   1.404   2.246   9.480
74053SOL    HW223999   1.276   2.180   9.526
74054SOL     OW24000   3.675   7.199   3.614
74054SOL    HW124001   3.591   7.171   3.575
74054SOL    HW224002   3.735   7.127   3.594
74055SOL     OW24003   3.369  11.634   3.362
74055SOL    HW124004   3.371  11.564   3.296
74055SOL    HW224005   3.275  11.648   3.378
74056SOL     OW24006  10.191   2.364   4.659
74056SOL    HW124007  10.169   2.363   4.752
74056SOL    HW224008  10.266   2.304   4.652
74057SOL     OW24009   6.557  10.566   9.249
74057SOL    HW124010   6.594  10.654   9.262
74057SOL    HW224011   6.484  10.562   9.311
74058SOL     OW24012  11.764   8.737  11.160
74058SOL    HW124013  11.809   8.671  11.106
74058SOL    HW224014  11.831   8.767  11.222
74059SOL     OW24015  11.994   6.839  10.488
74059SOL    HW124016  12.070   6.784  10.504
74059SOL    HW224017  11.943   6.835  10.569
74060SOL     OW24018   0.997   4.495  11.464
74060SOL    HW124019   0.975   4.414  11.418
74060SOL    HW224020   1.091   4.488  11.482
74061SOL     OW24021   4.304  10.878  10.277
74061SOL    HW124022   4.348  10.823  10.342
74061SOL    HW224023   4.247  10.934  10.329
74062SOL     OW24024   9.657  13.255   2.344
74062SOL    HW124025   9.665  13.286   2.435
74062SOL    HW224026   9.563  13.241   2.331
74063SOL     OW24027  10.104  11.294   1.387
74063SOL    HW124028  10.132  11.265   1.300
74063SOL    HW224029  10.008  11.295   1.383
74064SOL     OW24030   7.898  10.942   8.763
74064SOL    HW124031   7.969  10.878   8.755
74064SOL    HW224032   7.873  10.939   8.856
74065SOL     OW24033   2.309   2.870  14.722
74065SOL    HW124034   2.355   2.788  14.703
74065SOL    HW224035   2.217   2.846  14.723
74066SOL     OW24036   4.418  12.471   3.378
74066SOL    HW124037   4.363  12.541   3.413
74066SOL    HW224038   4.411  12.401   3.443
74067SOL     OW24039   7.088   8.536   5.176
74067SOL    HW124040   7.133   8.620   5.163
74067SOL    HW224041   7.004   8.560   5.217
74068SOL     OW24042  10.712   0.951  10.922
74068SOL    HW124043  10.799   0.983  10.947
74068SOL    HW224044  10.682   1.013  10.855
74069SOL     OW24045   0.114   5.204   0.838
74069SOL    HW124046   0.028   5.166   0.857
74069SOL    HW224047   0.124   5.193   0.743
74070SOL     OW24048   3.241  11.194   7.827
74070SOL    HW124049   3.165  11.215   7.773
74070SOL    HW224050   3.310  11.252   7.794
74071SOL     OW24051  13.279   5.814   7.974
74071SOL    HW124052  13.358   5.857   7.942
74071SOL    HW224053  13.236   5.781   7.895
74072SOL     OW24054  11.504  10.422   9.850
74072SOL    HW124055  11.468  10.508   9.871
74072SOL    HW224056  11.433  10.378   9.802
74073SOL     OW24057   0.562   6.313   2.674
74073SOL    HW124058   0.494   6.273   2.619
74073SOL    HW224059   0.515   6.343   2.752
74074SOL     OW24060   3.529   8.396   7.832
74074SOL    HW124061   3.533   8.306   7.864
74074SOL    HW224062   3.599   8.402   7.767
74075SOL     OW24063   7.707  11.177   1.256
74075SOL    HW124064   7.698  11.120   1.180
74075SOL    HW224065   7.797  11.163   1.286
74076SOL     OW24066   2.680   9.121   9.938
74076SOL    HW124067   2.668   9.079  10.023
74076SOL    HW224068   2.734   9.198   9.957
74077SOL     OW24069  10.176  12.219   0.732
74077SOL    HW124070  10.213  12.281   0.669
74077SOL    HW224071  10.196  12.133   0.696
74078SOL     OW24072   0.219  11.641   6.178
74078SOL    HW124073   0.276  11.626   6.103
74078SOL    HW224074   0.179  11.726   6.161
74079SOL     OW24075   7.581   3.795  10.644
74079SOL    HW124076   7.664   3.795  10.597
74079SOL    HW224077   7.563   3.887  10.662
74080SOL     OW24078   6.780  13.307   0.568
74080SOL    HW124079   6.860  13.267   0.603
74080SOL    HW224080   6.779  13.280   0.476
74081SOL     OW24081   4.970   3.319   6.846
74081SOL    HW124082   4.893   3.295   6.897
74081SOL    HW224083   5.031   3.246   6.858
74082SOL     OW24084   6.356   7.754  10.668
74082SOL    HW124085   6.285   7.772  10.606
74082SOL    HW224086   6.320   7.777  10.753
74083SOL     OW24087   9.237  12.446   7.757
74083SOL    HW124088   9.278  12.384   7.816
74083SOL    HW224089   9.300  12.457   7.686
74084SOL     OW24090   7.496   5.680  13.268
74084SOL    HW124091   7.589   5.701  13.259
74084SOL    HW224092   7.489   5.589  13.240
74085SOL     OW24093  12.793   4.400   1.714
74085SOL    HW124094  12.826   4.458   1.646
74085SOL    HW224095  12.860   4.402   1.782
74086SOL     OW24096   3.942  12.846  11.594
74086SOL    HW124097   3.959  12.805  11.509
74086SOL    HW224098   3.873  12.910  11.576
74087SOL     OW24099   4.777   8.982   8.233
74087SOL    HW124100   4.803   9.074   8.228
74087SOL    HW224101   4.843   8.943   8.291
74088SOL     OW24102   1.087  14.835  12.828
74088SOL    HW124103   1.097  14.854  12.734
74088SOL    HW224104   1.070   0.047  12.867
74089SOL     OW24105   1.014   0.868   6.572
74089SOL    HW124106   1.024   0.932   6.642
74089SOL    HW224107   0.978   0.918   6.499
74090SOL     OW24108  11.312   3.711   5.382
74090SOL    HW124109  11.269   3.786   5.423
74090SOL    HW224110  11.342   3.743   5.297
74091SOL     OW24111  13.285   8.201  11.093
74091SOL    HW124112  13.255   8.116  11.059
74091SOL    HW224113  13.218   8.263  11.065
74092SOL     OW24114   2.345  10.889  14.770
74092SOL    HW124115   2.358  10.825  14.841
74092SOL    HW224116   2.429  10.933  14.763
74093SOL     OW24117  12.332  14.543  14.135
74093SOL    HW124118  12.320  14.584  14.049
74093SOL    HW224119  12.322  14.449  14.118
74094SOL     OW24120   5.841   1.898  14.163
74094SOL    HW124121   5.821   1.819  14.113
74094SOL    HW224122   5.872   1.961  14.097
74095SOL     OW24123   6.232   6.744  14.581
74095SOL    HW124124   6.159   6.802  14.606
74095SOL    HW224125   6.190   6.661  14.560
74096SOL     OW24126  12.563   2.830   6.212
74096SOL    HW124127  12.495   2.851   6.148
74096SOL    HW224128  12.640   2.810   6.159
74097SOL     OW24129   6.186  14.192   2.426
74097SOL    HW124130   6.113  14.185   2.487
74097SOL    HW224131   6.237  14.112   2.440
74098SOL     OW24132   9.689  11.501   8.770
74098SOL    HW124133   9.617  11.441   8.791
74098SOL    HW224134   9.724  11.526   8.855
74099SOL     OW24135   6.725  12.095   9.913
74099SOL    HW124136   6.796  12.031   9.915
74099SOL    HW224137   6.731  12.140   9.997
74100SOL     OW24138   0.241   4.452   8.303
74100SOL    HW124139   0.262   4.529   8.250
74100SOL    HW224140   0.315   4.444   8.363
74101SOL     OW24141   6.011  12.084   6.681
74101SOL    HW124142   6.003  11.989   6.688
74101SOL    HW224143   6.034  12.100   6.590
74102SOL     OW24144   6.236   8.465  13.975
74102SOL    HW124145   6.293   8.393  13.948
74102SOL    HW224146   6.184   8.485  13.897
74103SOL     OW24147   5.200   0.646   7.935
74103SOL    HW124148   5.243   0.688   8.010
74103SOL    HW224149   5.248   0.678   7.859
74104SOL     OW24150   9.664   6.824  14.862
74104SOL    HW124151   9.625   6.773   0.058
74104SOL    HW224152   9.605   6.814  14.788
74105SOL     OW24153  11.757   1.550   4.434
74105SOL    HW124154  11.846   1.582   4.424
74105SOL    HW224155  11.763   1.481   4.500
74106SOL     OW24156   7.174  10.481   4.169
74106SOL    HW124157   7.089  10.471   4.211
74106SOL    HW224158   7.156  10.477   4.075
74107SOL     OW24159  13.260  11.497   9.555
74107SOL    HW124160  13.298  11.576   9.518
74107SOL    HW224161  13.251  11.515   9.649
74108SOL     OW24162  14.267   6.990  12.767
74108SOL    HW124163  14.285   6.996  12.674
74108SOL    HW224164  14.201   7.059  12.783
74109SOL     OW24165  12.797  12.233   6.138
74109SOL    HW124166  12.752  12.266   6.215
74109SOL    HW224167  12.755  12.148   6.121
74110SOL     OW24168  13.881  11.809   0.814
74110SOL    HW124169  13.879  11.877   0.747
74110SOL    HW224170  13.957  11.831   0.868
74111SOL     OW24171   7.175  14.752   7.857
74111SOL    HW124172   7.090  14.750   7.902
74111SOL    HW224173   7.231  14.695   7.909
74112SOL     OW24174  12.675   1.809   3.214
74112SOL    HW124175  12.597   1.765   3.181
74112SOL    HW224176  12.661   1.902   3.195
74113SOL     OW24177   5.316   3.434   9.565
74113SOL    HW124178   5.356   3.364   9.617
74113SOL    HW224179   5.333   3.513   9.616
74114SOL     OW24180   5.189   9.609   0.507
74114SOL    HW124181   5.201   9.653   0.423
74114SOL    HW224182   5.095   9.613   0.523
74115SOL     OW24183   6.907  14.815   4.752
74115SOL    HW124184   6.930  14.855   4.836
74115SOL    HW224185   6.970  14.745   4.740
74116SOL     OW24186   3.451   7.798   6.796
74116SOL    HW124187   3.357   7.809   6.781
74116SOL    HW224188   3.493   7.846   6.725
74117SOL     OW24189   2.373  14.290  10.099
74117SOL    HW124190   2.384  14.303  10.005
74117SOL    HW224191   2.317  14.214  10.107
74118SOL     OW24192   0.632   8.609  12.647
74118SOL    HW124193   0.681   8.535  12.610
74118SOL    HW224194   0.650   8.682  12.587
74119SOL     OW24195   7.416  12.250   2.243
74119SOL    HW124196   7.503  12.289   2.249
74119SOL    HW224197   7.387  12.242   2.334
74120SOL     OW24198   4.526   0.451   5.343
74120SOL    HW124199   4.487   0.488   5.422
74120SOL    HW224200   4.527   0.523   5.280
74121SOL     OW24201  11.950   8.234  13.966
74121SOL    HW124202  11.873   8.180  13.987
74121SOL    HW224203  11.968   8.215  13.874
74122SOL     OW24204   9.683   7.715   8.577
74122SOL    HW124205   9.697   7.660   8.500
74122SOL    HW224206   9.696   7.657   8.651
74123SOL     OW24207  13.605  10.705  13.066
74123SOL    HW124208  13.583  10.775  13.005
74123SOL    HW224209  13.695  10.722  13.092
74124SOL     OW24210   1.802   6.857  13.440
74124SOL    HW124211   1.798   6.929  13.502
74124SOL    HW224212   1.766   6.782  13.487
74125SOL     OW24213   0.188   1.797   9.065
74125SOL    HW124214   0.203   1.765   9.154
74125SOL    HW224215   0.111   1.749   9.035
74126SOL     OW24216   6.441  14.309   5.924
74126SOL    HW124217   6.394  14.302   6.007
74126SOL    HW224218   6.450  14.219   5.893
74127SOL     OW24219  10.047   6.909   9.424
74127SOL    HW124220  10.039   6.954   9.508
74127SOL    HW224221   9.962   6.865   9.412
74128SOL     OW24222  12.515  10.391   3.809
74128SOL    HW124223  12.600  10.427   3.783
74128SOL    HW224224  12.458  10.468   3.818
74129SOL     OW24225   1.780   8.340  11.541
74129SOL    HW124226   1.756   8.268  11.485
74129SOL    HW224227   1.876   8.343  11.537
74130SOL     OW24228   7.453   1.851  14.055
74130SOL    HW124229   7.431   1.808  14.138
74130SOL    HW224230   7.546   1.832  14.043
74131SOL     OW24231   8.649  12.951   3.768
74131SOL    HW124232   8.726  12.893   3.769
74131SOL    HW224233   8.632  12.966   3.675
74132SOL     OW24234   2.387   7.450  11.753
74132SOL    HW124235   2.480   7.469  11.748
74132SOL    HW224236   2.362   7.478  11.841
74133SOL     OW24237  14.067   7.933  14.499
74133SOL    HW124238  14.084   8.013  14.449
74133SOL    HW224239  13.973   7.936  14.518
74134SOL     OW24240  11.620   5.455   4.367
74134SOL    HW124241  11.577   5.434   4.449
74134SOL    HW224242  11.673   5.378   4.347
74135SOL     OW24243   5.795   9.675   1.552
74135SOL    HW124244   5.775   9.628   1.633
74135SOL    HW224245   5.767   9.615   1.482
74136SOL     OW24246   7.806   3.146   0.685
74136SOL    HW124247   7.852   3.175   0.763
74136SOL    HW224248   7.722   3.112   0.717
74137SOL     OW24249   1.017  14.124  12.964
74137SOL    HW124250   0.937  14.166  12.995
74137SOL    HW224251   1.049  14.181  12.894
74138SOL     OW24252  13.392  12.822   5.959
74138SOL    HW124253  13.349  12.823   6.045
74138SOL    HW224254  13.441  12.905   5.956
74139SOL     OW24255   7.052   9.407  11.766
74139SOL    HW124256   6.968   9.399  11.811
74139SOL    HW224257   7.103   9.332  11.798
74140SOL     OW24258  14.502   1.918   6.734
74140SOL    HW124259  14.512   1.999   6.783
74140SOL    HW224260  14.588   1.875   6.740
74141SOL     OW24261  14.835   7.078  13.052
74141SOL    HW124262   0.036   7.024  13.024
74141SOL    HW224263  14.860   7.167  13.028
74142SOL     OW24264   3.407   9.370  10.149
74142SOL    HW124265   3.502   9.364  10.141
74142SOL    HW224266   3.390   9.462  10.170
74143SOL     OW24267   0.298  10.560   4.360
74143SOL    HW124268   0.378  10.575   4.309
74143SOL    HW224269   0.229  10.549   4.295
74144SOL     OW24270   7.829   0.817   4.684
74144SOL    HW124271   7.756   0.764   4.652
74144SOL    HW224272   7.790   0.881   4.742
74145SOL     OW24273  14.712   4.265   3.393
74145SOL    HW124274  14.688   4.215   3.471
74145SOL    HW224275  14.721   4.355   3.424
74146SOL     OW24276  11.076  12.969  13.307
74146SOL    HW124277  11.122  12.978  13.390
74146SOL    HW224278  11.107  13.042  13.254
74147SOL     OW24279   3.776   3.938   6.954
74147SOL    HW124280   3.844   3.917   6.889
74147SOL    HW224281   3.822   3.932   7.038
74148SOL     OW24282  10.658   4.363   3.564
74148SOL    HW124283  10.652   4.319   3.479
74148SOL    HW224284  10.748   4.348   3.592
74149SOL     OW24285   6.374  11.113   3.183
74149SOL    HW124286   6.310  11.135   3.115
74149SOL    HW224287   6.366  11.018   3.193
74150SOL     OW24288  13.694   2.432  11.800
74150SOL    HW124289  13.637   2.507  11.817
74150SOL    HW224290  13.783   2.465  11.816
74151SOL     OW24291  11.104   7.265  14.630
74151SOL    HW124292  11.023   7.215  14.623
74151SOL    HW224293  11.103   7.301  14.719
74152SOL     OW24294  12.652   9.535  12.290
74152SOL    HW124295  12.720   9.478  12.256
74152SOL    HW224296  12.691   9.578  12.366
74153SOL     OW24297  12.390   8.746  10.344
74153SOL    HW124298  12.350   8.695  10.274
74153SOL    HW224299  12.317   8.767  10.403
74154SOL     OW24300  12.957   0.633  13.841
74154SOL    HW124301  12.864   0.657  13.847
74154SOL    HW224302  12.957   0.538  13.843
74155SOL     OW24303   8.077   9.989   0.167
74155SOL    HW124304   8.118   9.973   0.081
74155SOL    HW224305   7.983   9.980   0.151
74156SOL     OW24306  12.370   7.893   9.221
74156SOL    HW124307  12.344   7.869   9.311
74156SOL    HW224308  12.454   7.849   9.208
74157SOL     OW24309  10.792   8.235   3.361
74157SOL    HW124310  10.854   8.301   3.392
74157SOL    HW224311  10.709   8.282   3.354
74158SOL     OW24312  10.656   2.163   7.016
74158SOL    HW124313  10.743   2.124   7.028
74158SOL    HW224314  10.595   2.093   7.037
74159SOL     OW24315   9.406   0.179   2.610
74159SOL    HW124316   9.335   0.118   2.630
74159SOL    HW224317   9.473   0.159   2.675
74160SOL     OW24318   4.340   1.939   9.973
74160SOL    HW124319   4.405   1.873   9.949
74160SOL    HW224320   4.270   1.890  10.015
74161SOL     OW24321   4.384   7.531   9.095
74161SOL    HW124322   4.417   7.446   9.125
74161SOL    HW224323   4.363   7.517   9.002
74162SOL     OW24324   4.716  11.466   4.142
74162SOL    HW124325   4.786  11.437   4.084
74162SOL    HW224326   4.751  11.545   4.184
74163SOL     OW24327   3.660   8.653   3.977
74163SOL    HW124328   3.579   8.674   3.932
74163SOL    HW224329   3.688   8.735   4.017
74164SOL     OW24330   5.355  12.528  13.670
74164SOL    HW124331   5.428  12.538  13.731
74164SOL    HW224332   5.391  12.479  13.596
74165SOL     OW24333   7.246   6.581   3.976
74165SOL    HW124334   7.188   6.571   3.900
74165SOL    HW224335   7.286   6.495   3.987
74166SOL     OW24336   3.811   6.463   4.708
74166SOL    HW124337   3.848   6.435   4.623
74166SOL    HW224338   3.811   6.383   4.761
74167SOL     OW24339   1.494   0.351   9.291
74167SOL    HW124340   1.485   0.274   9.234
74167SOL    HW224341   1.427   0.339   9.358
74168SOL     OW24342  14.655   4.892   1.459
74168SOL    HW124343  14.663   4.816   1.401
74168SOL    HW224344  14.720   4.954   1.426
74169SOL     OW24345  11.324   4.528   7.111
74169SOL    HW124346  11.251   4.474   7.139
74169SOL    HW224347  11.393   4.509   7.174
74170SOL     OW24348   2.545  10.718   0.858
74170SOL    HW124349   2.577  10.734   0.947
74170SOL    HW224350   2.606  10.766   0.801
74171SOL     OW24351   2.313   8.815  11.549
74171SOL    HW124352   2.325   8.793  11.457
74171SOL    HW224353   2.307   8.911  11.550
74172SOL     OW24354  14.195   1.068  14.806
74172SOL    HW124355  14.253   1.059  14.731
74172SOL    HW224356  14.115   1.022  14.780
74173SOL     OW24357  12.987   2.855   8.868
74173SOL    HW124358  13.041   2.826   8.942
74173SOL    HW224359  13.033   2.933   8.835
74174SOL     OW24360   2.600   9.751   8.932
74174SOL    HW124361   2.642   9.823   8.979
74174SOL    HW224362   2.507   9.773   8.932
74175SOL     OW24363  10.141  14.761  11.398
74175SOL    HW124364  10.158  14.855  11.405
74175SOL    HW224365  10.182  14.723  11.476
74176SOL     OW24366   3.525  11.528  14.259
74176SOL    HW124367   3.551  11.437  14.243
74176SOL    HW224368   3.562  11.549  14.344
74177SOL     OW24369   4.015  13.555  14.851
74177SOL    HW124370   3.986  13.497  14.780
74177SOL    HW224371   3.967  13.524   0.054
74178SOL     OW24372  14.538  12.084   4.753
74178SOL    HW124373  14.553  12.013   4.690
74178SOL    HW224374  14.586  12.058   4.831
74179SOL     OW24375   0.788   0.473  10.617
74179SOL    HW124376   0.761   0.554  10.573
74179SOL    HW224377   0.716   0.453  10.676
74180SOL     OW24378  13.326   1.169   5.423
74180SOL    HW124379  13.283   1.245   5.384
74180SOL    HW224380  13.338   1.109   5.349
74181SOL     OW24381  14.822   3.846   8.550
74181SOL    HW124382  14.807   3.833   8.457
74181SOL    HW224383   0.003   3.772   8.576
74182SOL     OW24384  12.496   8.620  12.193
74182SOL    HW124385  12.454   8.688  12.141
74182SOL    HW224386  12.435   8.546  12.188
74183SOL     OW24387  14.630   1.205  12.738
74183SOL    HW124388  14.581   1.135  12.780
74183SOL    HW224389  14.563   1.260  12.696
74184SOL     OW24390   2.380   0.419   1.475
74184SOL    HW124391   2.420   0.364   1.543
74184SOL    HW224392   2.366   0.503   1.517
74185SOL     OW24393   6.481   7.575   5.723
74185SOL    HW124394   6.566   7.596   5.684
74185SOL    HW224395   6.449   7.659   5.757
74186SOL     OW24396   3.834  12.611   6.774
74186SOL    HW124397   3.890  12.658   6.836
74186SOL    HW224398   3.773  12.562   6.829
74187SOL     OW24399   5.590   8.819   6.098
74187SOL    HW124400   5.658   8.859   6.152
74187SOL    HW224401   5.592   8.868   6.016
74188SOL     OW24402   4.031  11.963  10.524
74188SOL    HW124403   4.115  11.916  10.526
74188SOL    HW224404   4.019  11.994  10.614
74189SOL     OW24405  12.343  12.829  13.743
74189SOL    HW124406  12.351  12.920  13.713
74189SOL    HW224407  12.402  12.824  13.818
74190SOL     OW24408   5.359   0.388  12.289
74190SOL    HW124409   5.432   0.376  12.351
74190SOL    HW224410   5.399   0.431  12.213
74191SOL     OW24411   4.503   0.783   9.892
74191SOL    HW124412   4.502   0.879   9.895
74191SOL    HW224413   4.423   0.760   9.845
74192SOL     OW24414   8.742   6.943   7.627
74192SOL    HW124415   8.745   6.987   7.542
74192SOL    HW224416   8.704   6.857   7.608
74193SOL     OW24417   9.508   9.787   2.077
74193SOL    HW124418   9.560   9.816   2.002
74193SOL    HW224419   9.446   9.859   2.093
74194SOL     OW24420   0.979   2.914   7.875
74194SOL    HW124421   0.996   2.840   7.933
74194SOL    HW224422   0.922   2.878   7.807
74195SOL     OW24423   3.093   3.337   3.156
74195SOL    HW124424   3.120   3.249   3.181
74195SOL    HW224425   3.087   3.385   3.239
74196SOL     OW24426  12.276  12.908   6.987
74196SOL    HW124427  12.256  12.815   6.973
74196SOL    HW224428  12.355  12.908   7.040
74197SOL     OW24429   1.513  14.546   1.786
74197SOL    HW124430   1.476  14.527   1.699
74197SOL    HW224431   1.439  14.537   1.846
74198SOL     OW24432   9.471   1.294   6.279
74198SOL    HW124433   9.466   1.358   6.350
74198SOL    HW224434   9.460   1.346   6.199
74199SOL     OW24435  10.063   5.901  12.309
74199SOL    HW124436  10.101   5.938  12.389
74199SOL    HW224437  10.130   5.913  12.242
74200SOL     OW24438   7.787  10.435   6.222
74200SOL    HW124439   7.702  10.460   6.258
74200SOL    HW224440   7.849  10.450   6.294
74201SOL     OW24441   5.219   7.854   5.089
74201SOL    HW124442   5.200   7.810   5.171
74201SOL    HW224443   5.279   7.925   5.114
74202SOL     OW24444   1.961   5.737   2.036
74202SOL    HW124445   2.034   5.765   1.980
74202SOL    HW224446   1.932   5.818   2.078
74203SOL     OW24447   9.818   0.689   8.644
74203SOL    HW124448   9.842   0.717   8.556
74203SOL    HW224449   9.820   0.594   8.641
74204SOL     OW24450  10.841   3.726   7.125
74204SOL    HW124451  10.816   3.691   7.211
74204SOL    HW224452  10.845   3.820   7.137
74205SOL     OW24453  12.286  11.730  10.110
74205SOL    HW124454  12.241  11.778  10.180
74205SOL    HW224455  12.234  11.651  10.097
74206SOL     OW24456  13.579   4.209  10.886
74206SOL    HW124457  13.671   4.226  10.908
74206SOL    HW224458  13.542   4.170  10.965
74207SOL     OW24459   9.121  11.394  13.770
74207SOL    HW124460   9.028  11.413  13.773
74207SOL    HW224461   9.162  11.467  13.816
74208SOL     OW24462   9.327  11.701   7.824
74208SOL    HW124463   9.368  11.617   7.848
74208SOL    HW224464   9.251  11.677   7.772
74209SOL     OW24465   0.318  13.433  11.292
74209SOL    HW124466   0.385  13.376  11.253
74209SOL    HW224467   0.335  13.430  11.386
74210SOL     OW24468   6.980  13.895  14.463
74210SOL    HW124469   6.978  13.981  14.423
74210SOL    HW224470   6.947  13.836  14.396
74211SOL     OW24471   7.452  13.616  12.680
74211SOL    HW124472   7.384  13.605  12.613
74211SOL    HW224473   7.517  13.673  12.640
74212SOL     OW24474   2.665   9.313  13.858
74212SOL    HW124475   2.732   9.380  13.842
74212SOL    HW224476   2.714   9.236  13.887
74213SOL     OW24477  12.429  14.312  12.387
74213SOL    HW124478  12.370  14.238  12.399
74213SOL    HW224479  12.468  14.299  12.300
74214SOL     OW24480   8.856   5.325   9.940
74214SOL    HW124481   8.951   5.337   9.932
74214SOL    HW224482   8.830   5.386  10.009
74215SOL     OW24483   4.861   8.511   5.337
74215SOL    HW124484   4.785   8.548   5.292
74215SOL    HW224485   4.879   8.573   5.408
74216SOL     OW24486  14.538   0.659   6.217
74216SOL    HW124487  14.499   0.581   6.179
74216SOL    HW224488  14.611   0.627   6.270
74217SOL     OW24489  12.316   2.855  12.886
74217SOL    HW124490  12.334   2.915  12.814
74217SOL    HW224491  12.279   2.777  12.844
74218SOL     OW24492   5.273   7.445   7.595
74218SOL    HW124493   5.304   7.434   7.685
74218SOL    HW224494   5.178   7.456   7.604
74219SOL     OW24495   0.639   5.615   3.535
74219SOL    HW124496   0.565   5.598   3.594
74219SOL    HW224497   0.598   5.651   3.456
74220SOL     OW24498  12.425  14.033  13.935
74220SOL    HW124499  12.404  13.962  13.874
74220SOL    HW224500  12.472  13.991  14.006
74221SOL     OW24501   1.078   8.076   8.106
74221SOL    HW124502   1.089   8.014   8.033
74221SOL    HW224503   1.149   8.139   8.096
74222SOL     OW24504   9.846   3.684   6.944
74222SOL    HW124505   9.839   3.589   6.938
74222SOL    HW224506   9.938   3.700   6.967
74223SOL     OW24507   2.182   1.181   5.847
74223SOL    HW124508   2.095   1.199   5.884
74223SOL    HW224509   2.185   1.233   5.767
74224SOL     OW24510   2.118  12.681   1.400
74224SOL    HW124511   2.073  12.765   1.407
74224SOL    HW224512   2.157  12.667   1.486
74225SOL     OW24513  14.474   8.813   6.891
74225SOL    HW124514  14.424   8.894   6.888
74225SOL    HW224515  14.433   8.757   6.825
74226SOL     OW24516   1.614   2.544   0.985
74226SOL    HW124517   1.671   2.469   1.001
74226SOL    HW224518   1.631   2.570   0.895
74227SOL     OW24519   4.411  10.462   4.075
74227SOL    HW124520   4.384  10.476   4.166
74227SOL    HW224521   4.501  10.432   4.081
74228SOL     OW24522   4.673  13.455  11.278
74228SOL    HW124523   4.652  13.494  11.362
74228SOL    HW224524   4.680  13.362  11.295
74229SOL     OW24525   9.418   7.692  10.099
74229SOL    HW124526   9.440   7.731  10.014
74229SOL    HW224527   9.341   7.739  10.129
74230SOL     OW24528  11.681  11.728   6.119
74230SOL    HW124529  11.708  11.766   6.203
74230SOL    HW224530  11.604  11.675   6.141
74231SOL     OW24531  14.554  10.982  10.856
74231SOL    HW124532  14.622  10.982  10.789
74231SOL    HW224533  14.533  11.075  10.869
74232SOL     OW24534   7.156   0.752   0.302
74232SOL    HW124535   7.210   0.675   0.285
74232SOL    HW224536   7.067   0.718   0.305
74233SOL     OW24537   3.105   2.940  14.664
74233SOL    HW124538   3.143   3.027  14.669
74233SOL    HW224539   3.172   2.881  14.699
74234SOL     OW24540  13.366   6.724  14.763
74234SOL    HW124541  13.435   6.777  14.723
74234SOL    HW224542  13.339   6.772  14.841
74235SOL     OW24543   4.699   8.998   2.805
74235SOL    HW124544   4.711   9.059   2.732
74235SOL    HW224545   4.624   9.034   2.853
74236SOL     OW24546  11.697  11.247   9.465
74236SOL    HW124547  11.702  11.191   9.543
74236SOL    HW224548  11.783  11.289   9.460
74237SOL     OW24549   3.346   5.859   7.123
74237SOL    HW124550   3.441   5.869   7.128
74237SOL    HW224551   3.332   5.767   7.148
74238SOL     OW24552   7.935   1.816   9.599
74238SOL    HW124553   8.000   1.868   9.646
74238SOL    HW224554   7.853   1.834   9.645
74239SOL     OW24555  14.865   3.116  10.065
74239SOL    HW124556  14.804   3.145   9.998
74239SOL    HW224557   0.075   3.106  10.019
74240SOL     OW24558   5.010   1.287   6.214
74240SOL    HW124559   4.954   1.360   6.238
74240SOL    HW224560   4.978   1.214   6.267
74241SOL     OW24561   6.794  10.212  11.383
74241SOL    HW124562   6.729  10.187  11.449
74241SOL    HW224563   6.838  10.288  11.421
74242SOL     OW24564  14.829  14.232  10.040
74242SOL    HW124565  14.808  14.159  10.098
74242SOL    HW224566   0.045  14.257  10.064
74243SOL     OW24567   0.711   5.753   2.958
74243SOL    HW124568   0.740   5.689   2.893
74243SOL    HW224569   0.620   5.773   2.934
74244SOL     OW24570  14.864  14.037   3.168
74244SOL    HW124571  14.836  14.059   3.257
74244SOL    HW224572   0.084  14.054   3.167
74245SOL     OW24573   5.282  12.440   7.570
74245SOL    HW124574   5.286  12.535   7.559
74245SOL    HW224575   5.197  12.416   7.534
74246SOL     OW24576   7.200   5.793   0.193
74246SOL    HW124577   7.197   5.708   0.150
74246SOL    HW224578   7.200   5.773   0.287
74247SOL     OW24579   1.668   0.562  10.165
74247SOL    HW124580   1.759   0.586  10.151
74247SOL    HW224581   1.630   0.561  10.077
74248SOL     OW24582   9.605   5.773   9.183
74248SOL    HW124583   9.575   5.848   9.234
74248SOL    HW224584   9.593   5.799   9.092
74249SOL     OW24585   3.716   3.812  10.734
74249SOL    HW124586   3.629   3.778  10.752
74249SOL    HW224587   3.732   3.876  10.803
74250SOL     OW24588  12.019   2.937   4.429
74250SOL    HW124589  12.060   2.866   4.379
74250SOL    HW224590  11.925   2.925   4.415
74251SOL     OW24591   6.956  11.272   0.481
74251SOL    HW124592   6.961  11.192   0.533
74251SOL    HW224593   6.867  11.304   0.496
74252SOL     OW24594   3.125  12.816  12.167
74252SOL    HW124595   3.087  12.822  12.255
74252SOL    HW224596   3.206  12.866  12.172
74253SOL     OW24597  13.587   2.421  11.033
74253SOL    HW124598  13.599   2.498  11.088
74253SOL    HW224599  13.654   2.429  10.965
74254SOL     OW24600   4.156   1.743  11.142
74254SOL    HW124601   4.060   1.740  11.145
74254SOL    HW224602   4.183   1.742  11.233
74255SOL     OW24603   2.286   1.888  11.660
74255SOL    HW124604   2.343   1.858  11.589
74255SOL    HW224605   2.238   1.809  11.687
74256SOL     OW24606  14.022   6.284  11.824
74256SOL    HW124607  14.009   6.255  11.914
74256SOL    HW224608  13.937   6.318  11.797
74257SOL     OW24609  14.237   8.823   3.324
74257SOL    HW124610  14.241   8.910   3.285
74257SOL    HW224611  14.319   8.781   3.299
74258SOL     OW24612   3.059   0.516   3.805
74258SOL    HW124613   3.089   0.447   3.863
74258SOL    HW224614   3.068   0.596   3.856
74259SOL     OW24615   4.197   0.499  13.697
74259SOL    HW124616   4.262   0.527  13.762
74259SOL    HW224617   4.228   0.538  13.615
74260SOL     OW24618   8.290   4.057  13.067
74260SOL    HW124619   8.271   4.122  12.999
74260SOL    HW224620   8.216   3.998  13.066
74261SOL     OW24621   4.902   0.365  14.617
74261SOL    HW124622   4.886   0.277  14.652
74261SOL    HW224623   4.814   0.402  14.606
74262SOL     OW24624   1.415   8.923   8.728
74262SOL    HW124625   1.461   8.888   8.805
74262SOL    HW224626   1.345   8.977   8.764
74263SOL     OW24627   2.064   1.552   0.665
74263SOL    HW124628   2.010   1.627   0.642
74263SOL    HW224629   2.125   1.585   0.731
74264SOL     OW24630  14.704   4.202  14.871
74264SOL    HW124631  14.648   4.277   0.015
74264SOL    HW224632  14.715   4.203  14.776
74265SOL     OW24633   2.958   1.244  13.308
74265SOL    HW124634   2.954   1.219  13.216
74265SOL    HW224635   3.050   1.266  13.323
74266SOL     OW24636   5.238   4.770   5.257
74266SOL    HW124637   5.210   4.769   5.348
74266SOL    HW224638   5.308   4.835   5.254
74267SOL     OW24639   7.263   7.122   0.508
74267SOL    HW124640   7.312   7.087   0.433
74267SOL    HW224641   7.224   7.203   0.474
74268SOL     OW24642   8.371  12.204  12.944
74268SOL    HW124643   8.430  12.272  12.978
74268SOL    HW224644   8.311  12.185  13.016
74269SOL     OW24645   2.222  13.339   7.593
74269SOL    HW124646   2.281  13.311   7.523
74269SOL    HW224647   2.223  13.267   7.656
74270SOL     OW24648  11.403  13.838  13.528
74270SOL    HW124649  11.334  13.798  13.475
74270SOL    HW224650  11.419  13.775  13.598
74271SOL     OW24651   1.178   6.740   1.676
74271SOL    HW124652   1.270   6.714   1.672
74271SOL    HW224653   1.158   6.771   1.588
74272SOL     OW24654   1.970   7.968   1.650
74272SOL    HW124655   1.964   8.055   1.690
74272SOL    HW224656   2.060   7.963   1.618
74273SOL     OW24657  13.488   4.659   3.361
74273SOL    HW124658  13.562   4.680   3.304
74273SOL    HW224659  13.518   4.679   3.449
74274SOL     OW24660   9.184  11.167  12.443
74274SOL    HW124661   9.189  11.259  12.468
74274SOL    HW224662   9.148  11.123  12.520
74275SOL     OW24663   8.529  13.238   1.838
74275SOL    HW124664   8.585  13.268   1.909
74275SOL    HW224665   8.461  13.305   1.830
74276SOL     OW24666   5.599   3.789  12.846
74276SOL    HW124667   5.622   3.703  12.882
74276SOL    HW224668   5.600   3.848  12.921
74277SOL     OW24669  10.921   1.771  13.500
74277SOL    HW124670  10.855   1.717  13.459
74277SOL    HW224671  10.933   1.732  13.587
74278SOL     OW24672   3.966   9.746   7.340
74278SOL    HW124673   3.904   9.765   7.410
74278SOL    HW224674   3.922   9.679   7.287
74279SOL     OW24675  14.404   5.935  14.334
74279SOL    HW124676  14.438   5.852  14.366
74279SOL    HW224677  14.480   5.994  14.333
74280SOL     OW24678   5.540  10.451   2.373
74280SOL    HW124679   5.446  10.439   2.358
74280SOL    HW224680   5.563  10.383   2.436
74281SOL     OW24681   1.805   0.597   4.523
74281SOL    HW124682   1.762   0.553   4.597
74281SOL    HW224683   1.742   0.662   4.494
74282SOL     OW24684   5.525   4.625  13.995
74282SOL    HW124685   5.596   4.689  13.987
74282SOL    HW224686   5.487   4.641  14.082
74283SOL     OW24687   2.190   5.664   7.930
74283SOL    HW124688   2.148   5.598   7.875
74283SOL    HW224689   2.130   5.677   8.004
74284SOL     OW24690   7.150  11.664  14.589
74284SOL    HW124691   7.152  11.573  14.617
74284SOL    HW224692   7.192  11.712  14.660
74285SOL     OW24693   6.171   5.652  10.101
74285SOL    HW124694   6.151   5.701  10.021
74285SOL    HW224695   6.251   5.603  10.080
74286SOL     OW24696   3.104   0.425   2.061
74286SOL    HW124697   3.152   0.386   2.134
74286SOL    HW224698   3.023   0.458   2.101
74287SOL     OW24699  11.215   3.242   1.125
74287SOL    HW124700  11.197   3.188   1.202
74287SOL    HW224701  11.132   3.245   1.078
74288SOL     OW24702   5.620   7.590  13.733
74288SOL    HW124703   5.683   7.523  13.707
74288SOL    HW224704   5.620   7.653  13.661
74289SOL     OW24705   9.046   6.619   8.986
74289SOL    HW124706   8.971   6.559   8.983
74289SOL    HW224707   9.042   6.666   8.903
74290SOL     OW24708   3.988  14.841  12.408
74290SOL    HW124709   3.957  14.845  12.499
74290SOL    HW224710   4.024  14.752  12.399
74291SOL     OW24711  12.670   2.505   2.737
74291SOL    HW124712  12.755   2.477   2.770
74291SOL    HW224713  12.663   2.463   2.651
74292SOL     OW24714  11.752   4.889  12.180
74292SOL    HW124715  11.760   4.846  12.095
74292SOL    HW224716  11.708   4.972  12.161
74293SOL     OW24717   3.936   1.745  14.085
74293SOL    HW124718   3.977   1.822  14.124
74293SOL    HW224719   3.914   1.689  14.159
74294SOL     OW24720   9.908  10.468   7.991
74294SOL    HW124721   9.848  10.543   7.993
74294SOL    HW224722   9.977  10.491   8.052
74295SOL     OW24723   8.205   9.143   1.053
74295SOL    HW124724   8.163   9.107   0.975
74295SOL    HW224725   8.288   9.095   1.060
74296SOL     OW24726   3.047   4.324   9.429
74296SOL    HW124727   3.121   4.277   9.468
74296SOL    HW224728   3.066   4.416   9.445
74297SOL     OW24729  13.010  13.973   2.175
74297SOL    HW124730  12.935  14.017   2.135
74297SOL    HW224731  13.047  14.038   2.235
74298SOL     OW24732   1.843   6.368   7.720
74298SOL    HW124733   1.791   6.311   7.663
74298SOL    HW224734   1.926   6.379   7.675
74299SOL     OW24735   4.125   0.840   1.733
74299SOL    HW124736   4.056   0.774   1.727
74299SOL    HW224737   4.105   0.903   1.664
74300SOL     OW24738   9.507   3.328  10.993
74300SOL    HW124739   9.506   3.420  11.019
74300SOL    HW224740   9.424   3.293  11.028
74301SOL     OW24741  11.146  12.209   0.166
74301SOL    HW124742  11.230  12.167   0.145
74301SOL    HW224743  11.169  12.300   0.184
74302SOL     OW24744   3.613   5.717  14.133
74302SOL    HW124745   3.536   5.771  14.149
74302SOL    HW224746   3.663   5.722  14.214
74303SOL     OW24747   6.530   4.100   7.583
74303SOL    HW124748   6.549   4.076   7.492
74303SOL    HW224749   6.558   4.024   7.635
74304SOL     OW24750   0.348  10.691  13.693
74304SOL    HW124751   0.255  10.684  13.716
74304SOL    HW224752   0.369  10.605  13.656
74305SOL     OW24753   9.055  13.647  10.852
74305SOL    HW124754   9.137  13.610  10.884
74305SOL    HW224755   8.996  13.573  10.847
74306SOL     OW24756  11.030  13.272   5.339
74306SOL    HW124757  11.040  13.209   5.411
74306SOL    HW224758  10.940  13.262   5.311
74307SOL     OW24759   0.221  11.418   8.086
74307SOL    HW124760   0.241  11.499   8.039
74307SOL    HW224761   0.306  11.385   8.115
74308SOL     OW24762   6.033  14.103   2.639
74308SOL    HW124763   6.027  14.015   2.675
74308SOL    HW224764   5.943  14.136   2.640
74309SOL     OW24765  14.095   7.913   1.706
74309SOL    HW124766  14.070   7.875   1.790
74309SOL    HW224767  14.181   7.875   1.687
74310SOL     OW24768   6.679  13.687   2.417
74310SOL    HW124769   6.726  13.608   2.391
74310SOL    HW224770   6.743  13.758   2.404
74311SOL     OW24771   4.002  13.598  10.215
74311SOL    HW124772   4.062  13.574  10.144
74311SOL    HW224773   3.939  13.657  10.174
74312SOL     OW24774   9.180   9.945   1.429
74312SOL    HW124775   9.150   9.895   1.353
74312SOL    HW224776   9.125  10.023   1.429
74313SOL     OW24777   6.544   3.137   7.020
74313SOL    HW124778   6.562   3.087   7.099
74313SOL    HW224779   6.583   3.085   6.949
74314SOL     OW24780   5.939  11.280   2.274
74314SOL    HW124781   5.963  11.310   2.186
74314SOL    HW224782   5.847  11.256   2.266
74315SOL     OW24783   1.068   6.833   7.154
74315SOL    HW124784   1.136   6.802   7.094
74315SOL    HW224785   0.987   6.793   7.122
74316SOL     OW24786  10.755   8.442   8.755
74316SOL    HW124787  10.795   8.474   8.674
74316SOL    HW224788  10.667   8.481   8.756
74317SOL     OW24789  10.956   9.205  12.396
74317SOL    HW124790  10.978   9.122  12.438
74317SOL    HW224791  10.913   9.180  12.314
74318SOL     OW24792   8.222   5.453  13.911
74318SOL    HW124793   8.187   5.380  13.860
74318SOL    HW224794   8.148   5.484  13.962
74319SOL     OW24795   8.380   2.979  14.647
74319SOL    HW124796   8.399   2.890  14.677
74319SOL    HW224797   8.466   3.019  14.636
74320SOL     OW24798   0.067  11.930   0.827
74320SOL    HW124799   0.161  11.921   0.844
74320SOL    HW224800   0.060  11.931   0.731
74321SOL     OW24801   1.397   1.619   1.580
74321SOL    HW124802   1.481   1.650   1.548
74321SOL    HW224803   1.413   1.527   1.603
74322SOL     OW24804   8.575  14.460   7.670
74322SOL    HW124805   8.533  14.544   7.687
74322SOL    HW224806   8.507  14.395   7.691
74323SOL     OW24807   1.275   9.792  12.971
74323SOL    HW124808   1.365   9.793  13.004
74323SOL    HW224809   1.255   9.884  12.953
74324SOL     OW24810  13.620  11.374  12.149
74324SOL    HW124811  13.689  11.423  12.193
74324SOL    HW224812  13.618  11.290  12.194
74325SOL     OW24813   0.060   5.201  14.124
74325SOL    HW124814   0.097   5.182  14.038
74325SOL    HW224815   0.127   5.253  14.169
74326SOL     OW24816   0.360  13.032   3.091
74326SOL    HW124817   0.320  13.001   3.173
74326SOL    HW224818   0.452  13.047   3.114
74327SOL     OW24819  12.332   2.854   1.837
74327SOL    HW124820  12.392   2.788   1.802
74327SOL    HW224821  12.383   2.901   1.903
74328SOL     OW24822   9.483   2.020   9.187
74328SOL    HW124823   9.556   1.970   9.224
74328SOL    HW224824   9.448   2.070   9.261
74329SOL     OW24825   2.897   1.798  10.653
74329SOL    HW124826   2.868   1.864  10.716
74329SOL    HW224827   2.855   1.823  10.571
74330SOL     OW24828  14.444   3.112   1.247
74330SOL    HW124829  14.497   3.033   1.239
74330SOL    HW224830  14.358   3.080   1.277
74331SOL     OW24831   7.867  12.796  10.359
74331SOL    HW124832   7.924  12.870  10.341
74331SOL    HW224833   7.797  12.803  10.295
74332SOL     OW24834  11.095   5.966   0.399
74332SOL    HW124835  11.175   6.018   0.395
74332SOL    HW224836  11.125   5.875   0.390
74333SOL     OW24837  10.071   4.402  13.787
74333SOL    HW124838  10.066   4.496  13.805
74333SOL    HW224839  10.048   4.360  13.870
74334SOL     OW24840   3.868   4.877   2.813
74334SOL    HW124841   3.962   4.865   2.802
74334SOL    HW224842   3.840   4.922   2.733
74335SOL     OW24843   2.603   5.345  11.134
74335SOL    HW124844   2.620   5.321  11.225
74335SOL    HW224845   2.579   5.263  11.091
74336SOL     OW24846   5.222   8.901  13.796
74336SOL    HW124847   5.247   8.973  13.737
74336SOL    HW224848   5.301   8.847  13.802
74337SOL     OW24849  14.768  14.809   7.427
74337SOL    HW124850  14.824  14.739   7.460
74337SOL    HW224851  14.739  14.779   7.340
74338SOL     OW24852   2.112   7.982  10.521
74338SOL    HW124853   2.020   7.968  10.542
74338SOL    HW224854   2.117   8.075  10.496
74339SOL     OW24855   8.591   6.861   3.841
74339SOL    HW124856   8.621   6.901   3.923
74339SOL    HW224857   8.582   6.934   3.781
74340SOL     OW24858  11.189   5.713   8.561
74340SOL    HW124859  11.191   5.617   8.558
74340SOL    HW224860  11.261   5.735   8.620
74341SOL     OW24861   1.897  11.089  12.170
74341SOL    HW124862   1.923  11.018  12.112
74341SOL    HW224863   1.976  11.110  12.219
74342SOL     OW24864  10.293   4.494   7.572
74342SOL    HW124865  10.260   4.517   7.485
74342SOL    HW224866  10.342   4.571   7.601
74343SOL     OW24867  14.341   3.851   3.983
74343SOL    HW124868  14.279   3.920   3.961
74343SOL    HW224869  14.294   3.769   3.966
74344SOL     OW24870  13.954   4.362  13.831
74344SOL    HW124871  13.880   4.423  13.825
74344SOL    HW224872  13.979   4.365  13.924
74345SOL     OW24873   3.738   5.535   0.466
74345SOL    HW124874   3.754   5.503   0.555
74345SOL    HW224875   3.645   5.518   0.451
74346SOL     OW24876   5.574   9.050  13.005
74346SOL    HW124877   5.666   9.066  13.023
74346SOL    HW224878   5.561   9.083  12.916
74347SOL     OW24879   0.436   6.786   8.671
74347SOL    HW124880   0.342   6.780   8.685
74347SOL    HW224881   0.463   6.864   8.721
74348SOL     OW24882   0.139   0.653   4.446
74348SOL    HW124883   0.181   0.685   4.366
74348SOL    HW224884   0.048   0.681   4.438
74349SOL     OW24885   6.294   0.024   7.682
74349SOL    HW124886   6.295   0.109   7.638
74349SOL    HW224887   6.387   0.004   7.697
74350SOL     OW24888   8.069  12.221   7.736
74350SOL    HW124889   8.084  12.204   7.829
74350SOL    HW224890   8.084  12.316   7.726
74351SOL     OW24891   2.417  13.305   5.101
74351SOL    HW124892   2.490  13.308   5.039
74351SOL    HW224893   2.410  13.394   5.134
74352SOL     OW24894  10.015   6.429   4.553
74352SOL    HW124895   9.962   6.426   4.633
74352SOL    HW224896   9.968   6.372   4.492
74353SOL     OW24897  14.770   9.814  14.648
74353SOL    HW124898  14.777   9.841  14.739
74353SOL    HW224899  14.836   9.745  14.638
74354SOL     OW24900   3.608   7.079  11.888
74354SOL    HW124901   3.594   7.172  11.875
74354SOL    HW224902   3.688   7.060  11.839
74355SOL     OW24903   5.350   0.031   3.846
74355SOL    HW124904   5.428  14.855   3.820
74355SOL    HW224905   5.326  14.869   3.931
74356SOL     OW24906  14.629  12.044   0.675
74356SOL    HW124907  14.708  12.090   0.645
74356SOL    HW224908  14.648  11.951   0.659
74357SOL     OW24909  11.318  12.036   3.515
74357SOL    HW124910  11.349  12.126   3.504
74357SOL    HW224911  11.370  12.001   3.587
74358SOL     OW24912   4.535  14.503   1.858
74358SOL    HW124913   4.473  14.556   1.808
74358SOL    HW224914   4.595  14.468   1.791
74359SOL     OW24915   0.542   3.441   6.298
74359SOL    HW124916   0.508   3.357   6.328
74359SOL    HW224917   0.474   3.473   6.238
74360SOL     OW24918   6.971  12.607   4.350
74360SOL    HW124919   6.895  12.549   4.344
74360SOL    HW224920   7.033  12.573   4.286
74361SOL     OW24921  10.686   3.135  13.287
74361SOL    HW124922  10.610   3.126  13.345
74361SOL    HW224923  10.726   3.048  13.287
74362SOL     OW24924   3.374  12.137  11.463
74362SOL    HW124925   3.324  12.215  11.438
74362SOL    HW224926   3.465  12.167  11.463
74363SOL     OW24927   6.698   7.243   3.501
74363SOL    HW124928   6.785   7.216   3.473
74363SOL    HW224929   6.668   7.303   3.433
74364SOL     OW24930   9.412   0.314  13.089
74364SOL    HW124931   9.379   0.241  13.142
74364SOL    HW224932   9.439   0.273  13.007
74365SOL     OW24933  13.992   5.584   5.858
74365SOL    HW124934  14.067   5.524   5.857
74365SOL    HW224935  13.964   5.591   5.767
74366SOL     OW24936   2.340  10.309  13.317
74366SOL    HW124937   2.419  10.315  13.263
74366SOL    HW224938   2.372  10.292  13.405
74367SOL     OW24939   3.442  10.610   6.523
74367SOL    HW124940   3.380  10.558   6.471
74367SOL    HW224941   3.412  10.601   6.613
74368SOL     OW24942  12.907   0.840   8.817
74368SOL    HW124943  12.903   0.866   8.726
74368SOL    HW224944  12.837   0.890   8.860
74369SOL     OW24945   5.305   6.399  14.146
74369SOL    HW124946   5.399   6.415  14.136
74369SOL    HW224947   5.264   6.463  14.087
74370SOL     OW24948   7.954   1.853   2.618
74370SOL    HW124949   7.887   1.785   2.625
74370SOL    HW224950   8.002   1.832   2.537
74371SOL     OW24951   2.368   6.768   3.540
74371SOL    HW124952   2.276   6.780   3.562
74371SOL    HW224953   2.415   6.801   3.617
74372SOL     OW24954   7.485   6.718   2.001
74372SOL    HW124955   7.434   6.709   1.921
74372SOL    HW224956   7.576   6.710   1.972
74373SOL     OW24957   8.031  13.418  10.440
74373SOL    HW124958   8.064  13.468  10.365
74373SOL    HW224959   7.940  13.444  10.448
74374SOL     OW24960   7.129   8.260   4.589
74374SOL    HW124961   7.105   8.317   4.516
74374SOL    HW224962   7.072   8.184   4.580
74375SOL     OW24963   0.782   3.909   2.936
74375SOL    HW124964   0.694   3.874   2.951
74375SOL    HW224965   0.818   3.855   2.865
74376SOL     OW24966  11.957  14.864   3.278
74376SOL    HW124967  11.919   0.068   3.318
74376SOL    HW224968  11.934  14.872   3.185
74377SOL     OW24969   4.688   5.760   8.242
74377SOL    HW124970   4.760   5.731   8.186
74377SOL    HW224971   4.714   5.732   8.330
74378SOL     OW24972   6.540   0.831   7.374
74378SOL    HW124973   6.444   0.827   7.373
74378SOL    HW224974   6.564   0.792   7.458
74379SOL     OW24975   9.870   4.013   4.045
74379SOL    HW124976   9.892   3.948   3.977
74379SOL    HW224977   9.930   3.993   4.117
74380SOL     OW24978   4.993   7.970   2.217
74380SOL    HW124979   5.058   8.031   2.250
74380SOL    HW224980   4.924   7.971   2.283
74381SOL     OW24981   0.423   5.270   9.607
74381SOL    HW124982   0.513   5.240   9.593
74381SOL    HW224983   0.421   5.299   9.698
74382SOL     OW24984   4.324   0.812   3.204
74382SOL    HW124985   4.333   0.718   3.219
74382SOL    HW224986   4.299   0.848   3.289
74383SOL     OW24987  13.983   4.930   7.984
74383SOL    HW124988  14.000   4.838   7.960
74383SOL    HW224989  13.954   4.970   7.902
74384SOL     OW24990   1.752   8.043   0.193
74384SOL    HW124991   1.670   7.995   0.205
74384SOL    HW224992   1.728   8.118   0.138
74385SOL     OW24993   5.232   9.439   1.404
74385SOL    HW124994   5.259   9.501   1.472
74385SOL    HW224995   5.213   9.494   1.328
74386SOL     OW24996  13.750   1.591   5.742
74386SOL    HW124997  13.823   1.554   5.692
74386SOL    HW224998  13.721   1.666   5.690
74387SOL     OW24999   8.937   0.037  10.910
74387SOL    HW125000   8.876   0.022  10.982
74387SOL    HW225001   8.895  14.871  10.834
74388SOL     OW25002   4.423  10.280  10.137
74388SOL    HW125003   4.478  10.213  10.096
74388SOL    HW225004   4.458  10.363  10.104
74389SOL     OW25005   4.939   4.474  13.392
74389SOL    HW125006   4.972   4.444  13.307
74389SOL    HW225007   5.019   4.488  13.444
74390SOL     OW25008   2.973  10.667  11.511
74390SOL    HW125009   3.052  10.622  11.541
74390SOL    HW225010   2.905  10.639  11.573
74391SOL     OW25011   7.258   1.446   1.357
74391SOL    HW125012   7.291   1.515   1.415
74391SOL    HW225013   7.291   1.471   1.270
74392SOL     OW25014   1.650   3.129   7.358
74392SOL    HW125015   1.624   3.210   7.314
74392SOL    HW225016   1.743   3.120   7.338
74393SOL     OW25017   4.194   3.178   9.067
74393SOL    HW125018   4.281   3.219   9.065
74393SOL    HW225019   4.210   3.091   9.105
74394SOL     OW25020   0.193   1.410   0.299
74394SOL    HW125021   0.254   1.430   0.370
74394SOL    HW225022   0.111   1.450   0.326
74395SOL     OW25023   5.677  10.981  10.476
74395SOL    HW125024   5.692  10.900  10.426
74395SOL    HW225025   5.749  11.038  10.450
74396SOL     OW25026  13.927  14.784   1.798
74396SOL    HW125027  13.927   0.005   1.814
74396SOL    HW225028  13.919  14.776   1.703
74397SOL     OW25029   3.255   9.865   8.109
74397SOL    HW125030   3.323   9.917   8.151
74397SOL    HW225031   3.177   9.880   8.163
74398SOL     OW25032  12.243   3.881   1.938
74398SOL    HW125033  12.165   3.933   1.923
74398SOL    HW225034  12.309   3.944   1.969
74399SOL     OW25035  14.535   1.770  11.180
74399SOL    HW125036  14.525   1.760  11.274
74399SOL    HW225037  14.557   1.682  11.149
74400SOL     OW25038   4.792  11.969  13.124
74400SOL    HW125039   4.856  12.031  13.090
74400SOL    HW225040   4.789  11.987  13.219
74401SOL     OW25041   4.206   1.704   3.946
74401SOL    HW125042   4.225   1.644   4.018
74401SOL    HW225043   4.122   1.744   3.969
74402SOL     OW25044   2.163  13.608  11.234
74402SOL    HW125045   2.131  13.569  11.152
74402SOL    HW225046   2.252  13.576  11.243
74403SOL     OW25047   1.509  13.135   9.503
74403SOL    HW125048   1.543  13.161   9.588
74403SOL    HW225049   1.574  13.166   9.440
74404SOL     OW25050  12.179   5.644   9.858
74404SOL    HW125051  12.115   5.631   9.928
74404SOL    HW225052  12.242   5.706   9.895
74405SOL     OW25053   9.867  10.133  10.627
74405SOL    HW125054   9.791  10.149  10.683
74405SOL    HW225055   9.940  10.172  10.675
74406SOL     OW25056  11.417  14.321   6.378
74406SOL    HW125057  11.398  14.348   6.289
74406SOL    HW225058  11.513  14.321   6.384
74407SOL     OW25059   1.737   0.055   9.039
74407SOL    HW125060   1.664   0.106   9.074
74407SOL    HW225061   1.707   0.027   8.952
74408SOL     OW25062   5.501   5.404  14.535
74408SOL    HW125063   5.499   5.455  14.454
74408SOL    HW225064   5.492   5.469  14.605
74409SOL     OW25065   9.859   8.352   6.871
74409SOL    HW125066   9.802   8.316   6.803
74409SOL    HW225067   9.827   8.440   6.886
74410SOL     OW25068   8.064   6.550   1.743
74410SOL    HW125069   8.052   6.606   1.819
74410SOL    HW225070   8.146   6.504   1.760
74411SOL     OW25071   9.586   0.540  13.139
74411SOL    HW125072   9.636   0.547  13.057
74411SOL    HW225073   9.509   0.488  13.115
74412SOL     OW25074   7.555  10.188  11.956
74412SOL    HW125075   7.492  10.249  11.994
74412SOL    HW225076   7.540  10.193  11.862
74413SOL     OW25077   3.192   3.744  14.738
74413SOL    HW125078   3.191   3.749  14.643
74413SOL    HW225079   3.268   3.796  14.765
74414SOL     OW25080   4.579   6.453   4.540
74414SOL    HW125081   4.593   6.378   4.597
74414SOL    HW225082   4.488   6.478   4.554
74415SOL     OW25083   4.189   3.783  13.453
74415SOL    HW125084   4.167   3.716  13.388
74415SOL    HW225085   4.117   3.845  13.450
74416SOL     OW25086  13.291  14.821   0.134
74416SOL    HW125087  13.338   0.030   0.123
74416SOL    HW225088  13.271  14.793   0.044
74417SOL     OW25089   3.272  12.088   3.044
74417SOL    HW125090   3.359  12.063   3.014
74417SOL    HW225091   3.228  12.121   2.966
74418SOL     OW25092  12.223   0.963  12.966
74418SOL    HW125093  12.135   0.932  12.946
74418SOL    HW225094  12.257   0.901  13.030
74419SOL     OW25095   3.103   2.074  13.165
74419SOL    HW125096   3.171   2.140  13.158
74419SOL    HW225097   3.059   2.076  13.080
74420SOL     OW25098   9.579   0.878   0.984
74420SOL    HW125099   9.530   0.883   1.066
74420SOL    HW225100   9.661   0.835   1.007
74421SOL     OW25101  12.293  11.442  14.512
74421SOL    HW125102  12.387  11.430  14.496
74421SOL    HW225103  12.259  11.353  14.522
74422SOL     OW25104  14.280   6.082   6.166
74422SOL    HW125105  14.241   5.996   6.147
74422SOL    HW225106  14.331   6.067   6.246
74423SOL     OW25107   2.877  12.544   9.208
74423SOL    HW125108   2.883  12.602   9.132
74423SOL    HW225109   2.828  12.596   9.273
74424SOL     OW25110   4.893   5.537   6.338
74424SOL    HW125111   4.805   5.540   6.301
74424SOL    HW225112   4.936   5.614   6.301
74425SOL     OW25113  10.916  10.474   9.853
74425SOL    HW125114  10.993  10.529   9.839
74425SOL    HW225115  10.849  10.511   9.794
74426SOL     OW25116   8.732   0.625   5.591
74426SOL    HW125117   8.658   0.598   5.645
74426SOL    HW225118   8.762   0.545   5.548
74427SOL     OW25119  11.049   9.660   0.279
74427SOL    HW125120  11.016   9.570   0.290
74427SOL    HW225121  10.972   9.715   0.287
74428SOL     OW25122   1.201   7.779   5.790
74428SOL    HW125123   1.220   7.685   5.791
74428SOL    HW225124   1.122   7.787   5.737
74429SOL     OW25125   8.049   4.753  10.210
74429SOL    HW125126   8.108   4.681  10.232
74429SOL    HW225127   7.986   4.756  10.281
74430SOL     OW25128   4.234  14.668   6.037
74430SOL    HW125129   4.274  14.685   5.952
74430SOL    HW225130   4.264  14.580   6.061
74431SOL     OW25131  10.711  12.481  11.070
74431SOL    HW125132  10.735  12.459  10.980
74431SOL    HW225133  10.784  12.450  11.122
74432SOL     OW25134   5.670  11.259   3.767
74432SOL    HW125135   5.732  11.188   3.787
74432SOL    HW225136   5.634  11.283   3.853
74433SOL     OW25137   3.011   7.734  14.642
74433SOL    HW125138   3.051   7.791  14.707
74433SOL    HW225139   2.957   7.792  14.588
74434SOL     OW25140   5.586  11.216  11.844
74434SOL    HW125141   5.569  11.307  11.821
74434SOL    HW225142   5.680  11.214  11.864
74435SOL     OW25143   1.895  11.680   9.352
74435SOL    HW125144   1.891  11.731   9.271
74435SOL    HW225145   1.837  11.725   9.413
74436SOL     OW25146   7.565   1.110   2.390
74436SOL    HW125147   7.539   1.172   2.322
74436SOL    HW225148   7.492   1.048   2.395
74437SOL     OW25149  10.405   5.221   7.978
74437SOL    HW125150  10.324   5.216   8.027
74437SOL    HW225151  10.380   5.257   7.893
74438SOL     OW25152   2.935  12.661   7.105
74438SOL    HW125153   2.956  12.596   7.038
74438SOL    HW225154   2.865  12.621   7.157
74439SOL     OW25155   9.570  13.873   1.875
74439SOL    HW125156   9.659  13.881   1.908
74439SOL    HW225157   9.563  13.939   1.806
74440SOL     OW25158  14.774   8.511  11.574
74440SOL    HW125159  14.749   8.495  11.664
74440SOL    HW225160  14.800   8.426  11.540
74441SOL     OW25161  13.519   8.938  11.414
74441SOL    HW125162  13.537   8.863  11.471
74441SOL    HW225163  13.423   8.940  11.408
74442SOL     OW25164   2.806  12.208   9.109
74442SOL    HW125165   2.875  12.262   9.147
74442SOL    HW225166   2.739  12.271   9.082
74443SOL     OW25167   2.354   1.118   6.331
74443SOL    HW125168   2.345   1.137   6.238
74443SOL    HW225169   2.381   1.026   6.335
74444SOL     OW25170   7.872   9.007   7.605
74444SOL    HW125171   7.856   9.092   7.645
74444SOL    HW225172   7.807   8.948   7.643
74445SOL     OW25173  12.165   7.860   9.711
74445SOL    HW125174  12.237   7.799   9.727
74445SOL    HW225175  12.167   7.919   9.787
74446SOL     OW25176  13.778  12.580  13.709
74446SOL    HW125177  13.714  12.625  13.764
74446SOL    HW225178  13.771  12.488  13.733
74447SOL     OW25179   4.552   4.312   2.166
74447SOL    HW125180   4.531   4.321   2.259
74447SOL    HW225181   4.619   4.244   2.162
74448SOL     OW25182  10.479   1.271  11.752
74448SOL    HW125183  10.537   1.211  11.800
74448SOL    HW225184  10.466   1.229  11.667
74449SOL     OW25185  11.332  10.949  14.654
74449SOL    HW125186  11.288  11.010  14.594
74449SOL    HW225187  11.420  10.985  14.664
74450SOL     OW25188   2.299   9.851   6.505
74450SOL    HW125189   2.239   9.907   6.553
74450SOL    HW225190   2.330   9.787   6.569
74451SOL     OW25191  10.967   9.128   5.982
74451SOL    HW125192  11.042   9.184   5.961
74451SOL    HW225193  10.999   9.070   6.051
74452SOL     OW25194   4.735  13.877   7.663
74452SOL    HW125195   4.761  13.965   7.635
74452SOL    HW225196   4.815  13.826   7.662
74453SOL     OW25197  11.512   9.484  10.601
74453SOL    HW125198  11.448   9.447  10.662
74453SOL    HW225199  11.471   9.475  10.515
74454SOL     OW25200   2.470   9.283   8.523
74454SOL    HW125201   2.467   9.379   8.530
74454SOL    HW225202   2.443   9.265   8.433
74455SOL     OW25203  12.178   9.817  11.456
74455SOL    HW125204  12.178   9.858  11.370
74455SOL    HW225205  12.271   9.809  11.480
74456SOL     OW25206   3.195   8.424   6.975
74456SOL    HW125207   3.269   8.440   6.917
74456SOL    HW225208   3.188   8.503   7.029
74457SOL     OW25209   0.094  11.900   5.562
74457SOL    HW125210   0.030  11.928   5.627
74457SOL    HW225211   0.042  11.865   5.490
74458SOL     OW25212   5.717   6.621   2.122
74458SOL    HW125213   5.684   6.697   2.073
74458SOL    HW225214   5.639   6.583   2.162
74459SOL     OW25215   0.640   8.607   5.335
74459SOL    HW125216   0.647   8.632   5.243
74459SOL    HW225217   0.547   8.590   5.348
74460SOL     OW25218  11.911  11.601   7.458
74460SOL    HW125219  11.938  11.528   7.514
74460SOL    HW225220  11.829  11.573   7.419
74461SOL     OW25221  13.652   8.406   6.242
74461SOL    HW125222  13.634   8.468   6.313
74461SOL    HW225223  13.596   8.331   6.262
74462SOL     OW25224   8.078   0.061   0.525
74462SOL    HW125225   8.061  14.872   0.596
74462SOL    HW225226   8.018   0.134   0.543
74463SOL     OW25227   0.188   2.300   7.511
74463SOL    HW125228   0.149   2.356   7.578
74463SOL    HW225229   0.280   2.292   7.536
74464SOL     OW25230   4.239   0.781   0.974
74464SOL    HW125231   4.287   0.699   0.965
74464SOL    HW225232   4.292   0.845   0.928
74465SOL     OW25233  10.070  12.829   8.024
74465SOL    HW125234  10.065  12.861   7.934
74465SOL    HW225235  10.054  12.735   8.016
74466SOL     OW25236   5.000   1.266   1.559
74466SOL    HW125237   5.072   1.304   1.609
74466SOL    HW225238   5.036   1.254   1.471
74467SOL     OW25239   0.685   2.701  13.314
74467SOL    HW125240   0.759   2.649  13.284
74467SOL    HW225241   0.623   2.636  13.349
74468SOL     OW25242  14.681   8.185   8.657
74468SOL    HW125243  14.769   8.192   8.619
74468SOL    HW225244  14.633   8.260   8.622
74469SOL     OW25245  14.238   9.260   9.184
74469SOL    HW125246  14.307   9.310   9.138
74469SOL    HW225247  14.230   9.179   9.133
74470SOL     OW25248   2.718   5.379   1.233
74470SOL    HW125249   2.652   5.420   1.178
74470SOL    HW225250   2.739   5.297   1.190
74471SOL     OW25251  11.009   9.279  13.496
74471SOL    HW125252  10.992   9.306  13.586
74471SOL    HW225253  11.077   9.212  13.503
74472SOL     OW25254   5.931   7.973   4.799
74472SOL    HW125255   5.890   7.938   4.720
74472SOL    HW225256   5.918   7.906   4.865
74473SOL     OW25257  13.129  11.186  14.105
74473SOL    HW125258  13.061  11.188  14.038
74473SOL    HW225259  13.113  11.265  14.157
74474SOL     OW25260  13.372   8.056  14.538
74474SOL    HW125261  13.279   8.033  14.542
74474SOL    HW225262  13.418   7.972  14.548
74475SOL     OW25263  13.975   5.743  13.677
74475SOL    HW125264  13.973   5.827  13.722
74475SOL    HW225265  14.047   5.751  13.615
74476SOL     OW25266   4.077   5.570  12.639
74476SOL    HW125267   4.067   5.661  12.667
74476SOL    HW225268   4.064   5.519  12.719
74477SOL     OW25269  14.775   0.736  11.109
74477SOL    HW125270  14.767   0.641  11.096
74477SOL    HW225271  14.788   0.746  11.204
74478SOL     OW25272   0.539   7.635  12.679
74478SOL    HW125273   0.529   7.618  12.586
74478SOL    HW225274   0.596   7.566  12.711
74479SOL     OW25275   1.958   6.909  14.417
74479SOL    HW125276   2.022   6.861  14.365
74479SOL    HW225277   1.907   6.841  14.461
74480SOL     OW25278   7.214   3.543   6.833
74480SOL    HW125279   7.193   3.619   6.778
74480SOL    HW225280   7.302   3.517   6.807
74481SOL     OW25281  10.102  10.246   1.334
74481SOL    HW125282  10.118  10.193   1.256
74481SOL    HW225283  10.181  10.236   1.387
74482SOL     OW25284   4.494   4.532   0.693
74482SOL    HW125285   4.494   4.457   0.753
74482SOL    HW225286   4.406   4.531   0.654
74483SOL     OW25287   3.583   5.049   4.787
74483SOL    HW125288   3.557   5.133   4.824
74483SOL    HW225289   3.666   5.068   4.743
74484SOL     OW25290   2.834   4.121   1.510
74484SOL    HW125291   2.834   4.205   1.554
74484SOL    HW225292   2.752   4.121   1.459
74485SOL     OW25293   6.826   4.551   2.749
74485SOL    HW125294   6.855   4.469   2.709
74485SOL    HW225295   6.906   4.603   2.757
74486SOL     OW25296  13.279   5.895   8.270
74486SOL    HW125297  13.277   5.855   8.183
74486SOL    HW225298  13.285   5.822   8.331
74487SOL     OW25299   2.645   6.136   4.185
74487SOL    HW125300   2.638   6.218   4.234
74487SOL    HW225301   2.559   6.095   4.194
74488SOL     OW25302   1.791   6.327  12.603
74488SOL    HW125303   1.780   6.362  12.691
74488SOL    HW225304   1.827   6.239  12.616
74489SOL     OW25305   3.753   2.553  14.617
74489SOL    HW125306   3.668   2.521  14.588
74489SOL    HW225307   3.733   2.618  14.683
74490SOL     OW25308  14.316  11.356  11.284
74490SOL    HW125309  14.378  11.364  11.356
74490SOL    HW225310  14.230  11.373  11.323
74491SOL     OW25311   0.534  11.491   7.860
74491SOL    HW125312   0.522  11.510   7.953
74491SOL    HW225313   0.515  11.573   7.815
74492SOL     OW25314   0.097   1.166   0.193
74492SOL    HW125315   0.131   1.250   0.225
74492SOL    HW225316   0.002   1.180   0.188
74493SOL     OW25317   0.509   9.261  11.277
74493SOL    HW125318   0.560   9.213  11.342
74493SOL    HW225319   0.555   9.345  11.268
74494SOL     OW25320  14.126  13.865   6.806
74494SOL    HW125321  14.205  13.849   6.754
74494SOL    HW225322  14.060  13.892   6.742
74495SOL     OW25323  13.033   6.170   9.164
74495SOL    HW125324  13.005   6.104   9.228
74495SOL    HW225325  12.951   6.209   9.133
74496SOL     OW25326   2.333  10.683   3.163
74496SOL    HW125327   2.341  10.649   3.251
74496SOL    HW225328   2.424  10.698   3.134
74497SOL     OW25329  10.552  14.030  12.218
74497SOL    HW125330  10.486  14.090  12.182
74497SOL    HW225331  10.501  13.960  12.257
74498SOL     OW25332  13.191   5.530   1.176
74498SOL    HW125333  13.286   5.520   1.179
74498SOL    HW225334  13.176   5.597   1.110
74499SOL     OW25335  10.228  14.156   0.548
74499SOL    HW125336  10.197  14.228   0.603
74499SOL    HW225337  10.246  14.196   0.463
74500SOL     OW25338   6.853  10.483  12.776
74500SOL    HW125339   6.932  10.455  12.822
74500SOL    HW225340   6.790  10.501  12.845
74501SOL     OW25341   4.503  11.729   1.851
74501SOL    HW125342   4.416  11.692   1.865
74501SOL    HW225343   4.486  11.817   1.819
74502SOL     OW25344   0.457   7.757   9.517
74502SOL    HW125345   0.416   7.740   9.602
74502SOL    HW225346   0.422   7.689   9.459
74503SOL     OW25347   3.500   5.660  10.180
74503SOL    HW125348   3.549   5.680  10.260
74503SOL    HW225349   3.409   5.654  10.209
74504SOL     OW25350   3.977  14.753   2.485
74504SOL    HW125351   3.915  14.826   2.486
74504SOL    HW225352   4.060  14.792   2.514
74505SOL     OW25353  11.133   5.718   6.784
74505SOL    HW125354  11.202   5.726   6.850
74505SOL    HW225355  11.160   5.644   6.730
74506SOL     OW25356  14.491  13.468  11.656
74506SOL    HW125357  14.505  13.379  11.688
74506SOL    HW225358  14.429  13.458  11.584
74507SOL     OW25359   7.332   3.721  12.089
74507SOL    HW125360   7.382   3.702  12.168
74507SOL    HW225361   7.389   3.694  12.017
74508SOL     OW25362  11.601  10.164   3.656
74508SOL    HW125363  11.665  10.142   3.589
74508SOL    HW225364  11.597  10.087   3.713
74509SOL     OW25365   4.195   9.723   3.437
74509SOL    HW125366   4.154   9.780   3.373
74509SOL    HW225367   4.123   9.694   3.493
74510SOL     OW25368   4.242   6.304   4.068
74510SOL    HW125369   4.318   6.276   4.016
74510SOL    HW225370   4.278   6.317   4.156
74511SOL     OW25371   9.621  13.878   0.625
74511SOL    HW125372   9.648  13.839   0.708
74511SOL    HW225373   9.562  13.813   0.587
74512SOL     OW25374   2.553   0.663  13.287
74512SOL    HW125375   2.608   0.652  13.364
74512SOL    HW225376   2.485   0.596  13.296
74513SOL     OW25377   3.995   5.293   5.102
74513SOL    HW125378   3.918   5.244   5.130
74513SOL    HW225379   3.986   5.300   5.007
74514SOL     OW25380   5.900   1.492   7.409
74514SOL    HW125381   5.816   1.447   7.420
74514SOL    HW225382   5.903   1.515   7.316
74515SOL     OW25383   3.831   2.188  14.846
74515SOL    HW125384   3.835   2.278   0.004
74515SOL    HW225385   3.797   2.196  14.757
74516SOL     OW25386  14.494  13.802  12.513
74516SOL    HW125387  14.503  13.741  12.586
74516SOL    HW225388  14.551  13.766  12.445
74517SOL     OW25389   9.432   9.760   7.678
74517SOL    HW125390   9.497   9.807   7.625
74517SOL    HW225391   9.376   9.716   7.614
74518SOL     OW25392   4.447   1.944   0.086
74518SOL    HW125393   4.454   1.848   0.083
74518SOL    HW225394   4.537   1.974   0.092
74519SOL     OW25395   6.364  13.933  13.630
74519SOL    HW125396   6.374  13.971  13.718
74519SOL    HW225397   6.341  14.007  13.574
74520SOL     OW25398   4.693   5.969  11.451
74520SOL    HW125399   4.713   6.012  11.368
74520SOL    HW225400   4.723   5.879  11.440
74521SOL     OW25401   1.161   8.638   3.734
74521SOL    HW125402   1.218   8.592   3.795
74521SOL    HW225403   1.099   8.685   3.791
74522SOL     OW25404   5.356   4.740   8.188
74522SOL    HW125405   5.412   4.668   8.218
74522SOL    HW225406   5.413   4.792   8.131
74523SOL     OW25407   9.775   0.497   6.125
74523SOL    HW125408   9.824   0.544   6.193
74523SOL    HW225409   9.839   0.436   6.088
74524SOL     OW25410  10.233   4.538   7.313
74524SOL    HW125411  10.149   4.525   7.269
74524SOL    HW225412  10.298   4.516   7.246
74525SOL     OW25413  11.332   8.210  11.304
74525SOL    HW125414  11.373   8.279  11.357
74525SOL    HW225415  11.331   8.246  11.216
74526SOL     OW25416  10.566   5.786   3.124
74526SOL    HW125417  10.573   5.690   3.125
74526SOL    HW225418  10.628   5.813   3.056
74527SOL     OW25419  11.968   4.221   3.313
74527SOL    HW125420  11.908   4.197   3.242
74527SOL    HW225421  11.973   4.142   3.368
74528SOL     OW25422   0.994   3.927   0.598
74528SOL    HW125423   0.950   3.993   0.545
74528SOL    HW225424   0.977   3.953   0.689
74529SOL     OW25425   5.721   5.063  12.079
74529SOL    HW125426   5.723   5.102  12.166
74529SOL    HW225427   5.733   5.136  12.019
74530SOL     OW25428   7.442   6.197   8.979
74530SOL    HW125429   7.369   6.220   9.036
74530SOL    HW225430   7.407   6.202   8.891
74531SOL     OW25431  13.891   0.797   8.160
74531SOL    HW125432  13.932   0.714   8.136
74531SOL    HW225433  13.894   0.850   8.080
74532SOL     OW25434   7.850  12.194   3.742
74532SOL    HW125435   7.831  12.259   3.810
74532SOL    HW225436   7.921  12.142   3.778
74533SOL     OW25437   5.368   1.302   4.504
74533SOL    HW125438   5.380   1.245   4.428
74533SOL    HW225439   5.452   1.301   4.549
74534SOL     OW25440   4.126   0.253  13.139
74534SOL    HW125441   4.083   0.329  13.100
74534SOL    HW225442   4.192   0.226  13.075
74535SOL     OW25443  13.778   3.148   4.787
74535SOL    HW125444  13.689   3.142   4.821
74535SOL    HW225445  13.816   3.224   4.832
74536SOL     OW25446   8.694   3.705   2.443
74536SOL    HW125447   8.673   3.685   2.535
74536SOL    HW225448   8.764   3.644   2.420
74537SOL     OW25449   1.705   8.462  10.814
74537SOL    HW125450   1.795   8.443  10.785
74537SOL    HW225451   1.650   8.405  10.759
74538SOL     OW25452   8.863  10.399   0.325
74538SOL    HW125453   8.854  10.330   0.391
74538SOL    HW225454   8.926  10.363   0.262
74539SOL     OW25455  11.833  14.757  11.603
74539SOL    HW125456  11.798  14.799  11.682
74539SOL    HW225457  11.820  14.663  11.618
74540SOL     OW25458   0.528  12.720   2.056
74540SOL    HW125459   0.529  12.631   2.091
74540SOL    HW225460   0.479  12.714   1.975
74541SOL     OW25461   4.354   1.967   9.492
74541SOL    HW125462   4.266   1.929   9.493
74541SOL    HW225463   4.359   2.013   9.408
74542SOL     OW25464  12.922  11.388   5.788
74542SOL    HW125465  12.920  11.305   5.834
74542SOL    HW225466  12.930  11.365   5.696
74543SOL     OW25467   8.422  10.362   6.025
74543SOL    HW125468   8.469  10.348   5.943
74543SOL    HW225469   8.491  10.369   6.091
74544SOL     OW25470   0.567   6.082  11.936
74544SOL    HW125471   0.618   6.059  11.858
74544SOL    HW225472   0.499   6.015  11.940
74545SOL     OW25473   3.069  10.841   9.854
74545SOL    HW125474   3.047  10.872   9.942
74545SOL    HW225475   3.026  10.903   9.796
74546SOL     OW25476   8.346  14.474   7.983
74546SOL    HW125477   8.347  14.437   8.071
74546SOL    HW225478   8.317  14.403   7.926
74547SOL     OW25479   6.132   4.147   8.903
74547SOL    HW125480   6.178   4.148   8.987
74547SOL    HW225481   6.043   4.173   8.924
74548SOL     OW25482  13.596   0.070  12.300
74548SOL    HW125483  13.615   0.057  12.207
74548SOL    HW225484  13.681   0.091  12.338
74549SOL     OW25485   9.721   0.737  10.469
74549SOL    HW125486   9.706   0.733  10.374
74549SOL    HW225487   9.683   0.657  10.503
74550SOL     OW25488  11.274  14.304   5.875
74550SOL    HW125489  11.302  14.304   5.784
74550SOL    HW225490  11.180  14.321   5.872
74551SOL     OW25491   7.834   2.019   5.189
74551SOL    HW125492   7.810   2.048   5.277
74551SOL    HW225493   7.926   1.993   5.196
74552SOL     OW25494   7.779  12.137  14.332
74552SOL    HW125495   7.828  12.114  14.411
74552SOL    HW225496   7.757  12.053  14.292
74553SOL     OW25497   4.610   9.404  12.936
74553SOL    HW125498   4.614   9.318  12.894
74553SOL    HW225499   4.701   9.436  12.934
74554SOL     OW25500  13.073   8.943  13.404
74554SOL    HW125501  12.978   8.941  13.395
74554SOL    HW225502  13.090   8.920  13.495
74555SOL     OW25503  13.499   7.267   0.061
74555SOL    HW125504  13.520   7.228   0.146
74555SOL    HW225505  13.493   7.361   0.078
74556SOL     OW25506  14.842   3.937   6.634
74556SOL    HW125507  14.834   3.961   6.542
74556SOL    HW225508  14.813   3.846   6.638
74557SOL     OW25509   3.863   2.535  10.375
74557SOL    HW125510   3.884   2.619  10.416
74557SOL    HW225511   3.775   2.546  10.339
74558SOL     OW25512  12.961   6.151   6.179
74558SOL    HW125513  13.011   6.071   6.196
74558SOL    HW225514  13.022   6.208   6.131
74559SOL     OW25515   1.601  12.848   4.086
74559SOL    HW125516   1.604  12.782   4.155
74559SOL    HW225517   1.674  12.907   4.106
74560SOL     OW25518   3.035  13.059  12.527
74560SOL    HW125519   3.116  13.031  12.568
74560SOL    HW225520   3.061  13.097  12.443
74561SOL     OW25521   0.358  13.788  10.713
74561SOL    HW125522   0.317  13.788  10.626
74561SOL    HW225523   0.322  13.865  10.756
74562SOL     OW25524   6.537   4.564  12.871
74562SOL    HW125525   6.516   4.479  12.831
74562SOL    HW225526   6.498   4.628  12.812
74563SOL     OW25527   5.478   5.250   8.837
74563SOL    HW125528   5.423   5.233   8.760
74563SOL    HW225529   5.416   5.252   8.910
74564SOL     OW25530   5.689  10.470   5.921
74564SOL    HW125531   5.668  10.498   5.831
74564SOL    HW225532   5.667  10.377   5.923
74565SOL     OW25533   3.056   9.282   5.506
74565SOL    HW125534   3.131   9.337   5.484
74565SOL    HW225535   3.076   9.247   5.593
74566SOL     OW25536   6.322  12.517   7.432
74566SOL    HW125537   6.332  12.423   7.414
74566SOL    HW225538   6.383  12.559   7.371
74567SOL     OW25539   5.165   2.918   7.062
74567SOL    HW125540   5.225   2.867   7.007
74567SOL    HW225541   5.222   2.967   7.121
74568SOL     OW25542   7.234   3.563   4.650
74568SOL    HW125543   7.251   3.496   4.716
74568SOL    HW225544   7.139   3.564   4.641
74569SOL     OW25545   1.047  13.638   8.480
74569SOL    HW125546   1.136  13.674   8.486
74569SOL    HW225547   1.012  13.674   8.399
74570SOL     OW25548   1.698  12.692  12.839
74570SOL    HW125549   1.634  12.622  12.827
74570SOL    HW225550   1.781  12.646  12.851
74571SOL     OW25551  13.722   3.145  13.891
74571SOL    HW125552  13.662   3.202  13.843
74571SOL    HW225553  13.740   3.192  13.972
74572SOL     OW25554   9.818  14.113   4.232
74572SOL    HW125555   9.790  14.194   4.189
74572SOL    HW225556   9.893  14.084   4.180
74573SOL     OW25557   6.954  12.743   9.584
74573SOL    HW125558   7.015  12.686   9.538
74573SOL    HW225559   7.005  12.778   9.658
74574SOL     OW25560   3.829   4.038  10.133
74574SOL    HW125561   3.874   3.964  10.092
74574SOL    HW225562   3.899   4.092  10.170
74575SOL     OW25563   7.344   5.998  12.832
74575SOL    HW125564   7.391   5.943  12.769
74575SOL    HW225565   7.280   5.939  12.872
74576SOL     OW25566  11.492   7.791   8.952
74576SOL    HW125567  11.524   7.711   8.911
74576SOL    HW225568  11.458   7.843   8.879
74577SOL     OW25569   5.916  10.494   6.897
74577SOL    HW125570   5.991  10.459   6.944
74577SOL    HW225571   5.931  10.469   6.806
74578SOL     OW25572   8.200   4.681   0.342
74578SOL    HW125573   8.183   4.775   0.346
74578SOL    HW225574   8.196   4.660   0.249
74579SOL     OW25575   1.593   2.979   3.567
74579SOL    HW125576   1.669   2.933   3.603
74579SOL    HW225577   1.608   3.070   3.590
74580SOL     OW25578   9.828   8.281   9.098
74580SOL    HW125579   9.871   8.227   9.032
74580SOL    HW225580   9.734   8.272   9.079
74581SOL     OW25581   7.584  11.053  14.156
74581SOL    HW125582   7.518  11.000  14.200
74581SOL    HW225583   7.658  10.994  14.143
74582SOL     OW25584   5.462   5.557   3.965
74582SOL    HW125585   5.557   5.560   3.952
74582SOL    HW225586   5.431   5.642   3.934
74583SOL     OW25587  13.385   1.738  13.801
74583SOL    HW125588  13.363   1.700  13.886
74583SOL    HW225589  13.372   1.666  13.739
74584SOL     OW25590  12.930  14.247   8.310
74584SOL    HW125591  12.979  14.165   8.312
74584SOL    HW225592  12.865  14.235   8.241
74585SOL     OW25593  13.461   8.022  12.039
74585SOL    HW125594  13.427   8.070  11.964
74585SOL    HW225595  13.544   7.985  12.009
74586SOL     OW25596  13.234   6.979  14.045
74586SOL    HW125597  13.204   7.052  14.099
74586SOL    HW225598  13.243   6.905  14.106
74587SOL     OW25599   4.603   0.249   7.772
74587SOL    HW125600   4.627   0.159   7.747
74587SOL    HW225601   4.524   0.238   7.825
74588SOL     OW25602   0.546  11.871  10.373
74588SOL    HW125603   0.566  11.964  10.386
74588SOL    HW225604   0.624  11.835  10.333
74589SOL     OW25605  13.413   9.820   2.052
74589SOL    HW125606  13.421   9.725   2.049
74589SOL    HW225607  13.413   9.842   2.146
74590SOL     OW25608   0.980   7.606  14.329
74590SOL    HW125609   0.958   7.658  14.407
74590SOL    HW225610   1.076   7.605  14.328
74591SOL     OW25611  10.837  13.059  11.065
74591SOL    HW125612  10.908  13.009  11.106
74591SOL    HW225613  10.849  13.046  10.971
74592SOL     OW25614   8.727   6.321   5.247
74592SOL    HW125615   8.778   6.370   5.183
74592SOL    HW225616   8.674   6.262   5.194
74593SOL     OW25617  13.294  13.442   1.794
74593SOL    HW125618  13.213  13.417   1.749
74593SOL    HW225619  13.363  13.404   1.740
74594SOL     OW25620   7.623  11.901   8.140
74594SOL    HW125621   7.535  11.913   8.176
74594SOL    HW225622   7.665  11.986   8.150
74595SOL     OW25623   6.065   1.335  11.297
74595SOL    HW125624   6.132   1.357  11.362
74595SOL    HW225625   5.987   1.382  11.326
74596SOL     OW25626   2.266   1.845  13.650
74596SOL    HW125627   2.209   1.906  13.697
74596SOL    HW225628   2.287   1.890  13.568
74597SOL     OW25629   9.557   0.317   5.886
74597SOL    HW125630   9.642   0.280   5.909
74597SOL    HW225631   9.523   0.260   5.818
74598SOL     OW25632   6.325  14.257   6.173
74598SOL    HW125633   6.397  14.196   6.189
74598SOL    HW225634   6.290  14.275   6.260
74599SOL     OW25635   1.613   1.420   7.221
74599SOL    HW125636   1.613   1.506   7.262
74599SOL    HW225637   1.694   1.379   7.250
74600SOL     OW25638  13.112   0.729  14.418
74600SOL    HW125639  13.052   0.802  14.432
74600SOL    HW225640  13.174   0.734  14.491
74601SOL     OW25641   7.731   0.384   6.543
74601SOL    HW125642   7.693   0.298   6.524
74601SOL    HW225643   7.737   0.427   6.457
74602SOL     OW25644   8.548   7.219  11.615
74602SOL    HW125645   8.466   7.259  11.643
74602SOL    HW225646   8.579   7.275  11.544
74603SOL     OW25647   7.758  13.611   5.954
74603SOL    HW125648   7.742  13.674   5.884
74603SOL    HW225649   7.742  13.526   5.913
74604SOL     OW25650   7.089   3.036   9.919
74604SOL    HW125651   7.108   2.955   9.967
74604SOL    HW225652   7.085   3.009   9.827
74605SOL     OW25653  10.327   5.313   7.718
74605SOL    HW125654  10.238   5.320   7.684
74605SOL    HW225655  10.368   5.397   7.697
74606SOL     OW25656  11.967   6.591  14.624
74606SOL    HW125657  12.008   6.542  14.553
74606SOL    HW225658  12.039   6.615  14.682
74607SOL     OW25659   2.432  13.503  14.827
74607SOL    HW125660   2.519  13.467  14.808
74607SOL    HW225661   2.371  13.438  14.789
74608SOL     OW25662   5.436   9.712  13.484
74608SOL    HW125663   5.430   9.642  13.419
74608SOL    HW225664   5.463   9.789  13.434
74609SOL     OW25665   0.710  10.114  12.030
74609SOL    HW125666   0.792  10.162  12.017
74609SOL    HW225667   0.691  10.076  11.944
74610SOL     OW25668   1.903   0.070   2.182
74610SOL    HW125669   1.969   0.128   2.220
74610SOL    HW225670   1.916  14.860   2.226
74611SOL     OW25671   3.163   0.020   7.912
74611SOL    HW125672   3.133   0.079   7.843
74611SOL    HW225673   3.215   0.075   7.969
74612SOL     OW25674   3.914  12.421   4.626
74612SOL    HW125675   3.852  12.355   4.657
74612SOL    HW225676   3.946  12.463   4.706
74613SOL     OW25677   3.314   6.207   1.422
74613SOL    HW125678   3.392   6.165   1.384
74613SOL    HW225679   3.293   6.278   1.361
74614SOL     OW25680   1.499   5.287   5.415
74614SOL    HW125681   1.454   5.303   5.331
74614SOL    HW225682   1.433   5.244   5.469
74615SOL     OW25683   9.693   5.209  11.477
74615SOL    HW125684   9.774   5.180  11.518
74615SOL    HW225685   9.694   5.168  11.390
74616SOL     OW25686  12.755   3.024   8.982
74616SOL    HW125687  12.728   2.976   9.059
74616SOL    HW225688  12.840   2.986   8.958
74617SOL     OW25689   5.550  13.772   4.297
74617SOL    HW125690   5.589  13.700   4.248
74617SOL    HW225691   5.599  13.849   4.269
74618SOL     OW25692   7.305   7.690   4.300
74618SOL    HW125693   7.385   7.721   4.257
74618SOL    HW225694   7.238   7.753   4.274
74619SOL     OW25695  13.371   0.913   2.247
74619SOL    HW125696  13.307   0.958   2.303
74619SOL    HW225697  13.335   0.826   2.235
74620SOL     OW25698   1.432   2.342   6.943
74620SOL    HW125699   1.513   2.292   6.947
74620SOL    HW225700   1.419   2.374   7.032
74621SOL     OW25701   8.511   6.631  10.959
74621SOL    HW125702   8.492   6.639  11.053
74621SOL    HW225703   8.427   6.609  10.919
74622SOL     OW25704   6.359   2.814   5.224
74622SOL    HW125705   6.430   2.751   5.227
74622SOL    HW225706   6.343   2.838   5.316
74623SOL     OW25707   6.132   3.236   4.082
74623SOL    HW125708   6.060   3.269   4.136
74623SOL    HW225709   6.197   3.306   4.084
74624SOL     OW25710   2.383   6.290   4.798
74624SOL    HW125711   2.418   6.202   4.809
74624SOL    HW225712   2.363   6.319   4.887
74625SOL     OW25713   4.925   2.185   5.350
74625SOL    HW125714   4.946   2.216   5.262
74625SOL    HW225715   4.850   2.237   5.377
74626SOL     OW25716   9.956   7.511   4.069
74626SOL    HW125717   9.893   7.556   4.125
74626SOL    HW225718   9.954   7.560   3.986
74627SOL     OW25719  14.597  12.976   5.182
74627SOL    HW125720  14.669  13.021   5.227
74627SOL    HW225721  14.626  12.970   5.091
74628SOL     OW25722   3.204   1.537   1.082
74628SOL    HW125723   3.156   1.489   1.149
74628SOL    HW225724   3.193   1.484   1.003
74629SOL     OW25725   1.290   3.865   6.203
74629SOL    HW125726   1.203   3.869   6.164
74629SOL    HW225727   1.286   3.926   6.276
74630SOL     OW25728  12.878   2.169   9.112
74630SOL    HW125729  12.876   2.074   9.097
74630SOL    HW225730  12.816   2.183   9.183
74631SOL     OW25731   7.099   9.179   6.463
74631SOL    HW125732   7.165   9.242   6.435
74631SOL    HW225733   7.020   9.232   6.475
74632SOL     OW25734   6.389   9.806   3.551
74632SOL    HW125735   6.301   9.771   3.562
74632SOL    HW225736   6.443   9.756   3.613
74633SOL     OW25737   0.189   0.666   1.054
74633SOL    HW125738   0.185   0.576   1.085
74633SOL    HW225739   0.098   0.689   1.033
74634SOL     OW25740   8.538   5.825   8.772
74634SOL    HW125741   8.540   5.751   8.832
74634SOL    HW225742   8.532   5.902   8.829
74635SOL     OW25743   4.727   1.758   6.520
74635SOL    HW125744   4.804   1.758   6.462
74635SOL    HW225745   4.714   1.666   6.541
74636SOL     OW25746   4.900   8.699  13.337
74636SOL    HW125747   4.903   8.693  13.241
74636SOL    HW225748   4.872   8.612  13.365
74637SOL     OW25749   9.325   2.607   0.900
74637SOL    HW125750   9.234   2.635   0.896
74637SOL    HW225751   9.342   2.566   0.815
74638SOL     OW25752   0.777  13.743   6.233
74638SOL    HW125753   0.804  13.775   6.319
74638SOL    HW225754   0.854  13.755   6.177
74639SOL     OW25755   8.725  13.680   1.640
74639SOL    HW125756   8.631  13.691   1.654
74639SOL    HW225757   8.765  13.745   1.697
74640SOL     OW25758   8.855  12.723  13.455
74640SOL    HW125759   8.776  12.725  13.401
74640SOL    HW225760   8.900  12.643  13.429
74641SOL     OW25761   7.378  10.617   7.571
74641SOL    HW125762   7.398  10.526   7.550
74641SOL    HW225763   7.294  10.614   7.617
74642SOL     OW25764  12.614   4.365   0.977
74642SOL    HW125765  12.635   4.356   1.070
74642SOL    HW225766  12.584   4.278   0.950
74643SOL     OW25767   9.998   8.236  11.676
74643SOL    HW125768   9.997   8.297  11.750
74643SOL    HW225769  10.039   8.285  11.605
74644SOL     OW25770   2.213  10.283   7.702
74644SOL    HW125771   2.144  10.342   7.673
74644SOL    HW225772   2.233  10.311   7.791
74645SOL     OW25773   8.811   0.613   1.538
74645SOL    HW125774   8.731   0.661   1.561
74645SOL    HW225775   8.835   0.647   1.452
74646SOL     OW25776  11.934  12.127  13.943
74646SOL    HW125777  11.894  12.148  14.028
74646SOL    HW225778  11.914  12.202  13.888
74647SOL     OW25779   5.837   2.242  11.585
74647SOL    HW125780   5.797   2.180  11.524
74647SOL    HW225781   5.779   2.319  11.581
74648SOL     OW25782  13.396  10.005   5.279
74648SOL    HW125783  13.484   9.973   5.263
74648SOL    HW225784  13.383  10.074   5.213
74649SOL     OW25785  14.629  11.293   2.159
74649SOL    HW125786  14.678  11.244   2.093
74649SOL    HW225787  14.656  11.384   2.147
74650SOL     OW25788   7.150   5.207   6.401
74650SOL    HW125789   7.242   5.221   6.377
74650SOL    HW225790   7.130   5.120   6.366
74651SOL     OW25791   9.586   2.886   8.850
74651SOL    HW125792   9.540   2.969   8.863
74651SOL    HW225793   9.674   2.902   8.885
74652SOL     OW25794  10.219   7.623   1.539
74652SOL    HW125795  10.285   7.566   1.499
74652SOL    HW225796  10.169   7.565   1.596
74653SOL     OW25797  13.244   0.754   0.469
74653SOL    HW125798  13.274   0.824   0.411
74653SOL    HW225799  13.312   0.687   0.463
74654SOL     OW25800   3.218   1.328  13.880
74654SOL    HW125801   3.243   1.398  13.820
74654SOL    HW225802   3.134   1.357  13.917
74655SOL     OW25803  13.960  14.572  14.645
74655SOL    HW125804  13.941  14.643  14.584
74655SOL    HW225805  13.917  14.599  14.727
74656SOL     OW25806   1.677   7.992   1.828
74656SOL    HW125807   1.598   7.974   1.777
74656SOL    HW225808   1.745   7.938   1.787
74657SOL     OW25809   0.345   6.461   5.041
74657SOL    HW125810   0.408   6.475   5.112
74657SOL    HW225811   0.359   6.371   5.013
74658SOL     OW25812   2.692   8.748   7.800
74658SOL    HW125813   2.670   8.812   7.733
74658SOL    HW225814   2.649   8.667   7.771
74659SOL     OW25815  13.671   2.080  14.566
74659SOL    HW125816  13.658   2.020  14.493
74659SOL    HW225817  13.752   2.126  14.545
74660SOL     OW25818   2.050   7.065   2.243
74660SOL    HW125819   2.094   7.108   2.170
74660SOL    HW225820   1.960   7.050   2.212
74661SOL     OW25821   9.727   6.376   8.798
74661SOL    HW125822   9.758   6.445   8.856
74661SOL    HW225823   9.744   6.295   8.846
74662SOL     OW25824   1.648  13.641  14.754
74662SOL    HW125825   1.610  13.729  14.756
74662SOL    HW225826   1.639  13.614  14.662
74663SOL     OW25827   3.832   2.151   6.627
74663SOL    HW125828   3.825   2.206   6.705
74663SOL    HW225829   3.902   2.191   6.576
74664SOL     OW25830  10.995   2.724   8.110
74664SOL    HW125831  10.967   2.784   8.179
74664SOL    HW225832  11.089   2.742   8.099
74665SOL     OW25833   5.966   1.646  12.653
74665SOL    HW125834   6.046   1.616  12.610
74665SOL    HW225835   5.980   1.740  12.667
74666SOL     OW25836   5.098   3.401  13.695
74666SOL    HW125837   5.104   3.351  13.614
74666SOL    HW225838   5.097   3.334  13.764
74667SOL     OW25839  12.685   9.304  13.106
74667SOL    HW125840  12.662   9.218  13.140
74667SOL    HW225841  12.779   9.298  13.088
74668SOL     OW25842   2.116  13.783   3.578
74668SOL    HW125843   2.206  13.781   3.611
74668SOL    HW225844   2.114  13.858   3.519
74669SOL     OW25845  11.410   5.745   2.456
74669SOL    HW125846  11.427   5.792   2.375
74669SOL    HW225847  11.455   5.796   2.523
74670SOL     OW25848  14.097   1.588   8.863
74670SOL    HW125849  14.076   1.512   8.808
74670SOL    HW225850  14.040   1.579   8.939
74671SOL     OW25851   1.006   2.225   5.790
74671SOL    HW125852   0.913   2.242   5.807
74671SOL    HW225853   1.024   2.143   5.836
74672SOL     OW25854   3.590   3.695   5.379
74672SOL    HW125855   3.566   3.759   5.312
74672SOL    HW225856   3.634   3.746   5.447
74673SOL     OW25857  12.422   9.590   0.886
74673SOL    HW125858  12.419   9.505   0.929
74673SOL    HW225859  12.491   9.638   0.932
74674SOL     OW25860   3.774  10.065   7.731
74674SOL    HW125861   3.815  10.005   7.792
74674SOL    HW225862   3.847  10.114   7.693
74675SOL     OW25863   3.116   9.563   0.424
74675SOL    HW125864   3.026   9.585   0.396
74675SOL    HW225865   3.104   9.496   0.491
74676SOL     OW25866   7.440  11.929   1.374
74676SOL    HW125867   7.474  11.843   1.349
74676SOL    HW225868   7.345  11.921   1.364
74677SOL     OW25869   1.981  11.387   9.620
74677SOL    HW125870   1.928  11.455   9.661
74677SOL    HW225871   2.072  11.411   9.640
74678SOL     OW25872  11.297   6.878   9.672
74678SOL    HW125873  11.270   6.843   9.756
74678SOL    HW225874  11.392   6.861   9.668
74679SOL     OW25875   4.295   6.099  10.688
74679SOL    HW125876   4.234   6.138  10.625
74679SOL    HW225877   4.333   6.025  10.642
74680SOL     OW25878   9.692  10.898  14.038
74680SOL    HW125879   9.723  10.817  14.079
74680SOL    HW225880   9.698  10.881  13.944
74681SOL     OW25881  12.284  13.994  11.853
74681SOL    HW125882  12.320  14.003  11.765
74681SOL    HW225883  12.295  13.901  11.874
74682SOL     OW25884   2.877   9.970  12.857
74682SOL    HW125885   2.880  10.063  12.881
74682SOL    HW225886   2.917   9.966  12.770
74683SOL     OW25887   3.224   5.946   8.280
74683SOL    HW125888   3.298   5.887   8.262
74683SOL    HW225889   3.153   5.913   8.224
74684SOL     OW25890   0.928   1.829   7.793
74684SOL    HW125891   0.951   1.907   7.742
74684SOL    HW225892   1.012   1.796   7.825
74685SOL     OW25893   1.021  14.190   3.969
74685SOL    HW125894   0.953  14.130   3.938
74685SOL    HW225895   1.030  14.255   3.899
74686SOL     OW25896   5.927   9.092  13.995
74686SOL    HW125897   5.968   9.006  13.984
74686SOL    HW225898   5.950   9.140  13.916
74687SOL     OW25899  10.907   8.713  11.073
74687SOL    HW125900  10.873   8.657  11.003
74687SOL    HW225901  10.828   8.744  11.119
74688SOL     OW25902  11.276   4.229   6.939
74688SOL    HW125903  11.360   4.272   6.954
74688SOL    HW225904  11.228   4.240   7.021
74689SOL     OW25905  11.710  12.827   4.525
74689SOL    HW125906  11.737  12.782   4.445
74689SOL    HW225907  11.693  12.917   4.498
74690SOL     OW25908   5.702   1.617   1.929
74690SOL    HW125909   5.793   1.595   1.909
74690SOL    HW225910   5.650   1.568   1.865
74691SOL     OW25911   2.475   9.320  13.419
74691SOL    HW125912   2.476   9.242  13.475
74691SOL    HW225913   2.443   9.390  13.475
74692SOL     OW25914  11.839   6.317   3.057
74692SOL    HW125915  11.875   6.336   3.143
74692SOL    HW225916  11.914   6.289   3.005
74693SOL     OW25917   2.928   3.299   4.679
74693SOL    HW125918   3.022   3.293   4.699
74693SOL    HW225919   2.890   3.220   4.718
74694SOL     OW25920  11.889   0.363   4.425
74694SOL    HW125921  11.901   0.381   4.518
74694SOL    HW225922  11.945   0.287   4.407
74695SOL     OW25923  12.971   6.857   5.169
74695SOL    HW125924  12.885   6.880   5.134
74695SOL    HW225925  12.953   6.813   5.252
74696SOL     OW25926   8.059   0.445   5.540
74696SOL    HW125927   8.017   0.526   5.569
74696SOL    HW225928   8.018   0.426   5.456
74697SOL     OW25929   1.890   7.950  11.588
74697SOL    HW125930   1.824   8.017  11.571
74697SOL    HW225931   1.906   7.910  11.502
74698SOL     OW25932   1.195   9.029  12.854
74698SOL    HW125933   1.270   8.973  12.832
74698SOL    HW225934   1.129   8.968  12.888
74699SOL     OW25935   6.214   4.614   1.335
74699SOL    HW125936   6.305   4.588   1.351
74699SOL    HW225937   6.176   4.541   1.286
74700SOL     OW25938   6.436   1.325   7.815
74700SOL    HW125939   6.351   1.298   7.780
74700SOL    HW225940   6.489   1.342   7.738
74701SOL     OW25941   8.026  12.062  10.319
74701SOL    HW125942   8.004  12.001  10.389
74701SOL    HW225943   8.009  12.149  10.356
74702SOL     OW25944  13.050   9.444   3.458
74702SOL    HW125945  13.016   9.379   3.397
74702SOL    HW225946  13.144   9.429   3.460
74703SOL     OW25947   5.274   1.292  12.658
74703SOL    HW125948   5.262   1.213  12.710
74703SOL    HW225949   5.186   1.327  12.646
74704SOL     OW25950   6.519   4.656   2.038
74704SOL    HW125951   6.547   4.735   2.084
74704SOL    HW225952   6.486   4.688   1.954
74705SOL     OW25953   5.099  12.389   4.140
74705SOL    HW125954   5.008  12.417   4.142
74705SOL    HW225955   5.097  12.305   4.095
74706SOL     OW25956   6.304   8.428   6.466
74706SOL    HW125957   6.324   8.515   6.432
74706SOL    HW225958   6.366   8.416   6.538
74707SOL     OW25959   4.059   3.221  13.096
74707SOL    HW125960   4.064   3.165  13.173
74707SOL    HW225961   4.064   3.160  13.022
74708SOL     OW25962   6.743   2.823  14.310
74708SOL    HW125963   6.782   2.910  14.316
74708SOL    HW225964   6.711   2.818  14.220
74709SOL     OW25965  10.561   4.375   2.154
74709SOL    HW125966  10.521   4.298   2.195
74709SOL    HW225967  10.601   4.342   2.074
74710SOL     OW25968   2.655  12.387  11.822
74710SOL    HW125969   2.611  12.418  11.901
74710SOL    HW225970   2.645  12.458  11.759
74711SOL     OW25971   1.915  12.150   6.107
74711SOL    HW125972   1.934  12.057   6.121
74711SOL    HW225973   1.830  12.164   6.148
74712SOL     OW25974   3.858  11.143   5.430
74712SOL    HW125975   3.889  11.101   5.350
74712SOL    HW225976   3.853  11.073   5.494
74713SOL     OW25977  10.249   4.766  11.357
74713SOL    HW125978  10.337   4.768  11.320
74713SOL    HW225979  10.226   4.858  11.370
74714SOL     OW25980  12.987   3.691   4.329
74714SOL    HW125981  12.960   3.761   4.388
74714SOL    HW225982  12.958   3.719   4.242
74715SOL     OW25983   2.618   3.652  13.676
74715SOL    HW125984   2.692   3.672  13.734
74715SOL    HW225985   2.587   3.737  13.646
74716SOL     OW25986   6.663   6.139   1.908
74716SOL    HW125987   6.660   6.043   1.904
74716SOL    HW225988   6.588   6.168   1.856
74717SOL     OW25989  13.372   7.165   2.110
74717SOL    HW125990  13.395   7.209   2.029
74717SOL    HW225991  13.417   7.215   2.179
74718SOL     OW25992  10.602   5.093   6.227
74718SOL    HW125993  10.532   5.134   6.177
74718SOL    HW225994  10.674   5.084   6.164
74719SOL     OW25995  14.651   1.620  13.005
74719SOL    HW125996  14.559   1.594  13.011
74719SOL    HW225997  14.692   1.551  12.953
74720SOL     OW25998  12.716   4.466  13.828
74720SOL    HW125999  12.696   4.535  13.765
74720SOL    HW226000  12.631   4.430  13.853
74721SOL     OW26001   5.706   4.457  14.581
74721SOL    HW126002   5.747   4.371  14.592
74721SOL    HW226003   5.755   4.514  14.640
74722SOL     OW26004   2.510   6.530   2.819
74722SOL    HW126005   2.426   6.490   2.796
74722SOL    HW226006   2.559   6.532   2.738
74723SOL     OW26007   0.406   6.022   0.366
74723SOL    HW126008   0.323   6.022   0.413
74723SOL    HW226009   0.444   6.108   0.383
74724SOL     OW26010  14.424   2.639   2.039
74724SOL    HW126011  14.398   2.624   1.948
74724SOL    HW226012  14.511   2.599   2.047
74725SOL     OW26013  12.088  12.643   8.182
74725SOL    HW126014  12.039  12.560   8.188
74725SOL    HW226015  12.028  12.709   8.217
74726SOL     OW26016   4.221   4.732   1.426
74726SOL    HW126017   4.283   4.779   1.481
74726SOL    HW226018   4.146   4.715   1.484
74727SOL     OW26019  11.240  12.622   3.753
74727SOL    HW126020  11.289  12.626   3.670
74727SOL    HW226021  11.181  12.548   3.742
74728SOL     OW26022   6.205   7.188  10.105
74728SOL    HW126023   6.217   7.283  10.114
74728SOL    HW226024   6.223   7.171  10.013
74729SOL     OW26025   6.709   6.987  12.108
74729SOL    HW126026   6.634   6.978  12.167
74729SOL    HW226027   6.755   7.066  12.139
74730SOL     OW26028   0.249   8.935  13.372
74730SOL    HW126029   0.283   8.863  13.426
74730SOL    HW226030   0.261   8.906  13.282
74731SOL     OW26031  14.385   6.744   8.892
74731SOL    HW126032  14.290   6.761   8.895
74731SOL    HW226033  14.417   6.770   8.979
74732SOL     OW26034   1.502  12.046   8.857
74732SOL    HW126035   1.538  11.958   8.869
74732SOL    HW226036   1.450  12.040   8.777
74733SOL     OW26037   9.341   6.916  12.685
74733SOL    HW126038   9.398   6.927  12.608
74733SOL    HW226039   9.361   6.828  12.717
74734SOL     OW26040   9.400  13.744   8.168
74734SOL    HW126041   9.367  13.726   8.080
74734SOL    HW226042   9.323  13.736   8.224
74735SOL     OW26043  13.970  13.289   1.216
74735SOL    HW126044  14.023  13.317   1.142
74735SOL    HW226045  14.012  13.208   1.246
74736SOL     OW26046   3.671  11.753  13.769
74736SOL    HW126047   3.704  11.841  13.787
74736SOL    HW226048   3.583  11.767  13.734
74737SOL     OW26049   3.690  12.863   0.585
74737SOL    HW126050   3.772  12.822   0.612
74737SOL    HW226051   3.692  12.950   0.626
74738SOL     OW26052   5.854   0.907   3.792
74738SOL    HW126053   5.949   0.907   3.800
74738SOL    HW226054   5.824   0.849   3.862
74739SOL     OW26055   9.718   2.836   2.520
74739SOL    HW126056   9.700   2.841   2.614
74739SOL    HW226057   9.744   2.745   2.506
74740SOL     OW26058   3.771   6.015  14.616
74740SOL    HW126059   3.857   5.992  14.580
74740SOL    HW226060   3.785   6.099  14.659
74741SOL     OW26061   2.779   2.910   2.597
74741SOL    HW126062   2.741   2.942   2.679
74741SOL    HW226063   2.826   2.986   2.562
74742SOL     OW26064  13.844   3.333  14.113
74742SOL    HW126065  13.897   3.411  14.097
74742SOL    HW226066  13.757   3.356  14.079
74743SOL     OW26067   1.786   8.691   6.891
74743SOL    HW126068   1.869   8.713   6.850
74743SOL    HW226069   1.749   8.775   6.918
74744SOL     OW26070   6.544   3.777  10.428
74744SOL    HW126071   6.552   3.688  10.395
74744SOL    HW226072   6.466   3.776  10.484
74745SOL     OW26073   7.780  11.475   7.040
74745SOL    HW126074   7.788  11.391   7.087
74745SOL    HW226075   7.781  11.541   7.109
74746SOL     OW26076   4.873   3.820   5.852
74746SOL    HW126077   4.920   3.832   5.770
74746SOL    HW226078   4.928   3.863   5.918
74747SOL     OW26079  13.130   2.804   2.380
74747SOL    HW126080  13.039   2.834   2.377
74747SOL    HW226081  13.130   2.719   2.335
74748SOL     OW26082   5.822  10.685   0.050
74748SOL    HW126083   5.746  10.737   0.075
74748SOL    HW226084   5.795  10.595   0.063
74749SOL     OW26085  14.557  14.495   1.702
74749SOL    HW126086  14.496  14.506   1.775
74749SOL    HW226087  14.550  14.402   1.680
74750SOL     OW26088  13.860  14.176   8.121
74750SOL    HW126089  13.868  14.194   8.215
74750SOL    HW226090  13.905  14.093   8.109
74751SOL     OW26091   9.316  14.444   3.013
74751SOL    HW126092   9.402  14.463   2.978
74751SOL    HW226093   9.293  14.358   2.978
74752SOL     OW26094   2.185   0.640   8.458
74752SOL    HW126095   2.184   0.563   8.515
74752SOL    HW226096   2.135   0.706   8.507
74753SOL     OW26097   0.083   6.665   9.975
74753SOL    HW126098   0.179   6.663   9.968
74753SOL    HW226099   0.054   6.708   9.894
74754SOL     OW26100   7.354   3.613   9.216
74754SOL    HW126101   7.340   3.649   9.304
74754SOL    HW226102   7.313   3.675   9.157
74755SOL     OW26103   3.413  10.419  14.292
74755SOL    HW126104   3.349  10.352  14.317
74755SOL    HW226105   3.368  10.471  14.225
74756SOL     OW26106  13.308  13.592   5.751
74756SOL    HW126107  13.263  13.528   5.696
74756SOL    HW226108  13.308  13.553   5.839
74757SOL     OW26109  12.461   8.254  10.644
74757SOL    HW126110  12.527   8.192  10.614
74757SOL    HW226111  12.494   8.340  10.615
74758SOL     OW26112  10.703   7.068   5.310
74758SOL    HW126113  10.762   7.047   5.382
74758SOL    HW226114  10.758   7.061   5.232
74759SOL     OW26115   9.174   8.119   5.301
74759SOL    HW126116   9.136   8.182   5.361
74759SOL    HW226117   9.132   8.137   5.217
74760SOL     OW26118  10.009  12.513   0.590
74760SOL    HW126119  10.030  12.606   0.588
74760SOL    HW226120  10.037  12.484   0.678
74761SOL     OW26121   6.076   4.856  12.294
74761SOL    HW126122   6.085   4.951  12.288
74761SOL    HW226123   6.053   4.840  12.385
74762SOL     OW26124   3.047  14.798   4.521
74762SOL    HW126125   2.991   0.000   4.535
74762SOL    HW226126   3.069  14.801   4.428
74763SOL     OW26127   9.080   9.812   2.240
74763SOL    HW126128   9.061   9.856   2.323
74763SOL    HW226129   9.127   9.878   2.188
74764SOL     OW26130   2.294   8.182  11.454
74764SOL    HW126131   2.351   8.111  11.423
74764SOL    HW226132   2.353   8.241  11.500
74765SOL     OW26133   1.081   7.869  12.922
74765SOL    HW126134   1.158   7.812  12.925
74765SOL    HW226135   1.034   7.851  13.004
74766SOL     OW26136   1.843  13.310   1.796
74766SOL    HW126137   1.761  13.355   1.820
74766SOL    HW226138   1.912  13.367   1.829
74767SOL     OW26139   1.383   7.523   4.206
74767SOL    HW126140   1.302   7.563   4.176
74767SOL    HW226141   1.439   7.520   4.129
74768SOL     OW26142   9.724   7.028  12.823
74768SOL    HW126143   9.678   7.093  12.769
74768SOL    HW226144   9.702   6.944  12.783
74769SOL     OW26145  13.865   2.046  12.827
74769SOL    HW126146  13.833   2.028  12.738
74769SOL    HW226147  13.803   2.002  12.885
74770SOL     OW26148   6.026   9.474  12.390
74770SOL    HW126149   6.028   9.385  12.424
74770SOL    HW226150   6.107   9.514  12.422
74771SOL     OW26151   8.550  10.462   3.133
74771SOL    HW126152   8.590  10.409   3.202
74771SOL    HW226153   8.544  10.550   3.171
74772SOL     OW26154   9.381   8.356  11.113
74772SOL    HW126155   9.405   8.324  11.025
74772SOL    HW226156   9.433   8.302  11.172
74773SOL     OW26157   6.909   0.484  10.714
74773SOL    HW126158   6.985   0.462  10.660
74773SOL    HW226159   6.943   0.545  10.780
74774SOL     OW26160   3.099   1.379   5.744
74774SOL    HW126161   3.170   1.401   5.804
74774SOL    HW226162   3.073   1.291   5.770
74775SOL     OW26163  12.252   5.797  11.533
74775SOL    HW126164  12.199   5.753  11.599
74775SOL    HW226165  12.241   5.891  11.552
74776SOL     OW26166   3.791  11.138  11.221
74776SOL    HW126167   3.788  11.060  11.276
74776SOL    HW226168   3.832  11.109  11.140
74777SOL     OW26169   4.878  13.676   8.070
74777SOL    HW126170   4.788  13.682   8.036
74777SOL    HW226171   4.910  13.766   8.067
74778SOL     OW26172  14.640   6.960   2.093
74778SOL    HW126173  14.595   7.023   2.148
74778SOL    HW226174  14.708   7.011   2.049
74779SOL     OW26175  14.636   7.307  11.026
74779SOL    HW126176  14.653   7.213  11.024
74779SOL    HW226177  14.667   7.338  10.941
74780SOL     OW26178   5.695   6.596  14.305
74780SOL    HW126179   5.626   6.577  14.369
74780SOL    HW226180   5.693   6.692  14.296
74781SOL     OW26181  14.501  10.779  11.260
74781SOL    HW126182  14.594  10.796  11.273
74781SOL    HW226183  14.494  10.756  11.167
74782SOL     OW26184   9.844  12.096   3.193
74782SOL    HW126185   9.802  12.181   3.209
74782SOL    HW226186   9.807  12.065   3.111
74783SOL     OW26187   8.583   5.306   4.181
74783SOL    HW126188   8.670   5.342   4.193
74783SOL    HW226189   8.539   5.369   4.123
74784SOL     OW26190   5.583  13.405  11.715
74784SOL    HW126191   5.595  13.482  11.659
74784SOL    HW226192   5.579  13.441  11.804
74785SOL     OW26193   0.879   6.946  11.152
74785SOL    HW126194   0.828   6.910  11.079
74785SOL    HW226195   0.953   6.988  11.109
74786SOL     OW26196   5.753  10.019   0.999
74786SOL    HW126197   5.782   9.982   1.083
74786SOL    HW226198   5.814   9.984   0.935
74787SOL     OW26199   8.750   5.399  11.672
74787SOL    HW126200   8.818   5.457  11.637
74787SOL    HW226201   8.792   5.356  11.747
74788SOL     OW26202  12.747   2.687   1.710
74788SOL    HW126203  12.812   2.750   1.741
74788SOL    HW226204  12.800   2.613   1.679
74789SOL     OW26205   5.757   7.612  14.141
74789SOL    HW126206   5.740   7.521  14.118
74789SOL    HW226207   5.708   7.627  14.222
74790SOL     OW26208   0.808  12.831  11.914
74790SOL    HW126209   0.861  12.884  11.973
74790SOL    HW226210   0.719  12.865  11.925
74791SOL     OW26211  10.399   4.903   6.660
74791SOL    HW126212  10.378   4.857   6.741
74791SOL    HW226213  10.338   4.977   6.657
74792SOL     OW26214   9.375  13.920   8.914
74792SOL    HW126215   9.406  14.000   8.956
74792SOL    HW226216   9.426  13.914   8.833
74793SOL     OW26217  13.718  11.897   6.821
74793SOL    HW126218  13.652  11.837   6.856
74793SOL    HW226219  13.705  11.895   6.726
74794SOL     OW26220   8.304   3.515   3.540
74794SOL    HW126221   8.233   3.560   3.585
74794SOL    HW226222   8.382   3.537   3.591
74795SOL     OW26223   9.178  11.001   6.210
74795SOL    HW126224   9.190  10.909   6.230
74795SOL    HW226225   9.266  11.033   6.189
74796SOL     OW26226  10.827   3.251   2.650
74796SOL    HW126227  10.837   3.187   2.580
74796SOL    HW226228  10.753   3.218   2.702
74797SOL     OW26229   5.507   9.981   4.584
74797SOL    HW126230   5.550  10.038   4.521
74797SOL    HW226231   5.509   9.894   4.544
74798SOL     OW26232  14.165  14.061  10.626
74798SOL    HW126233  14.210  14.064  10.711
74798SOL    HW226234  14.186  13.975  10.590
74799SOL     OW26235   9.748   2.844   6.015
74799SOL    HW126236   9.785   2.932   6.011
74799SOL    HW226237   9.811   2.790   5.967
74800SOL     OW26238  14.695   0.830   8.593
74800SOL    HW126239  14.693   0.738   8.568
74800SOL    HW226240  14.765   0.836   8.658
74801SOL     OW26241   9.806  13.305   9.947
74801SOL    HW126242   9.828  13.244  10.018
74801SOL    HW226243   9.788  13.388   9.990
74802SOL     OW26244   7.197   9.495  10.827
74802SOL    HW126245   7.135   9.424  10.842
74802SOL    HW226246   7.172   9.531  10.742
74803SOL     OW26247  12.936   5.770  11.272
74803SOL    HW126248  12.893   5.839  11.221
74803SOL    HW226249  12.905   5.688  11.232
74804SOL     OW26250   2.633   0.150   0.297
74804SOL    HW126251   2.596   0.118   0.214
74804SOL    HW226252   2.726   0.159   0.279
74805SOL     OW26253   6.340   8.727  12.896
74805SOL    HW126254   6.405   8.669  12.858
74805SOL    HW226255   6.265   8.722  12.837
74806SOL     OW26256   2.536  14.306   3.689
74806SOL    HW126257   2.626  14.274   3.678
74806SOL    HW226258   2.530  14.381   3.630
74807SOL     OW26259  11.444  12.126   8.186
74807SOL    HW126260  11.494  12.071   8.246
74807SOL    HW226261  11.440  12.075   8.105
74808SOL     OW26262   2.931  13.399  11.235
74808SOL    HW126263   2.899  13.428  11.150
74808SOL    HW226264   2.991  13.327  11.215
74809SOL     OW26265   5.249   6.843   1.224
74809SOL    HW126266   5.189   6.907   1.262
74809SOL    HW226267   5.253   6.773   1.288
74810SOL     OW26268   9.949   3.344   1.718
74810SOL    HW126269   9.931   3.250   1.715
74810SOL    HW226270  10.022   3.357   1.658
74811SOL     OW26271   7.936   6.158   2.091
74811SOL    HW126272   7.899   6.087   2.039
74811SOL    HW226273   8.022   6.175   2.051
74812SOL     OW26274   5.844   5.884   3.765
74812SOL    HW126275   5.932   5.907   3.734
74812SOL    HW226276   5.824   5.802   3.721
74813SOL     OW26277  10.845  12.323   0.240
74813SOL    HW126278  10.869  12.276   0.320
74813SOL    HW226279  10.750  12.311   0.232
74814SOL     OW26280   7.932  11.764   7.263
74814SOL    HW126281   7.971  11.778   7.176
74814SOL    HW226282   7.881  11.844   7.279
74815SOL     OW26283   6.808   9.253   0.443
74815SOL    HW126284   6.872   9.314   0.481
74815SOL    HW226285   6.773   9.205   0.517
74816SOL     OW26286   9.638  12.956   2.222
74816SOL    HW126287   9.670  13.000   2.301
74816SOL    HW226288   9.543  12.966   2.226
74817SOL     OW26289   8.221   2.073   6.440
74817SOL    HW126290   8.214   2.027   6.523
74817SOL    HW226291   8.280   2.145   6.457
74818SOL     OW26292   8.223  12.146   6.590
74818SOL    HW126293   8.195  12.146   6.681
74818SOL    HW226294   8.178  12.071   6.551
74819SOL     OW26295   9.506  11.596  11.409
74819SOL    HW126296   9.467  11.646  11.338
74819SOL    HW226297   9.596  11.578  11.380
74820SOL     OW26298   6.434   4.802  10.988
74820SOL    HW126299   6.434   4.714  10.951
74820SOL    HW226300   6.352   4.840  10.957
74821SOL     OW26301   4.802  11.368  11.971
74821SOL    HW126302   4.813  11.310  12.047
74821SOL    HW226303   4.892  11.385  11.942
74822SOL     OW26304   4.810   5.330   1.600
74822SOL    HW126305   4.848   5.418   1.600
74822SOL    HW226306   4.768   5.323   1.515
74823SOL     OW26307   5.150   3.280   9.731
74823SOL    HW126308   5.186   3.357   9.687
74823SOL    HW226309   5.142   3.215   9.661
74824SOL     OW26310   1.951   1.025   0.160
74824SOL    HW126311   2.009   0.950   0.171
74824SOL    HW226312   1.991   1.094   0.214
74825SOL     OW26313  11.929   1.361   2.637
74825SOL    HW126314  11.874   1.333   2.710
74825SOL    HW226315  11.892   1.317   2.560
74826SOL     OW26316   5.664  12.446  14.259
74826SOL    HW126317   5.612  12.385  14.208
74826SOL    HW226318   5.627  12.532  14.238
74827SOL     OW26319   0.614  11.682   5.281
74827SOL    HW126320   0.579  11.761   5.321
74827SOL    HW226321   0.695  11.665   5.329
74828SOL     OW26322  12.493   2.019  14.463
74828SOL    HW126323  12.537   2.008  14.547
74828SOL    HW226324  12.425   1.952  14.463
74829SOL     OW26325   9.449  11.667  13.397
74829SOL    HW126326   9.454  11.702  13.308
74829SOL    HW226327   9.537  11.678  13.433
74830SOL     OW26328  12.573   1.922   9.191
74830SOL    HW126329  12.481   1.904   9.209
74830SOL    HW226330  12.577   1.927   9.095
74831SOL     OW26331   9.818   1.696   5.144
74831SOL    HW126332   9.838   1.605   5.165
74831SOL    HW226333   9.793   1.695   5.052
74832SOL     OW26334   7.365  12.676   2.113
74832SOL    HW126335   7.283  12.706   2.154
74832SOL    HW226336   7.364  12.581   2.125
74833SOL     OW26337   0.864   5.539   0.140
74833SOL    HW126338   0.898   5.576   0.059
74833SOL    HW226339   0.940   5.500   0.183
74834SOL     OW26340   6.007   7.552  12.907
74834SOL    HW126341   5.970   7.480  12.959
74834SOL    HW226342   6.038   7.510  12.827
74835SOL     OW26343   3.012   2.126  12.920
74835SOL    HW126344   2.934   2.130  12.865
74835SOL    HW226345   3.068   2.061  12.879
74836SOL     OW26346   9.679  11.998  14.234
74836SOL    HW126347   9.769  12.029  14.227
74836SOL    HW226348   9.638  12.023  14.152
74837SOL     OW26349   8.769  12.469   8.118
74837SOL    HW126350   8.762  12.533   8.048
74837SOL    HW226351   8.851  12.423   8.099
74838SOL     OW26352   4.749   9.645  11.984
74838SOL    HW126353   4.791   9.730  11.975
74838SOL    HW226354   4.803   9.586  11.931
74839SOL     OW26355   6.740   0.967   5.204
74839SOL    HW126356   6.667   0.926   5.159
74839SOL    HW226357   6.701   1.008   5.282
74840SOL     OW26358  12.433  13.204   9.970
74840SOL    HW126359  12.347  13.239   9.992
74840SOL    HW226360  12.470  13.177  10.055
74841SOL     OW26361   3.015   6.813   1.212
74841SOL    HW126362   2.969   6.837   1.132
74841SOL    HW226363   3.108   6.830   1.193
74842SOL     OW26364   3.554   2.266   9.409
74842SOL    HW126365   3.532   2.275   9.316
74842SOL    HW226366   3.647   2.245   9.410
74843SOL     OW26367  13.608  11.856  14.049
74843SOL    HW126368  13.524  11.827  14.085
74843SOL    HW226369  13.588  11.941  14.009
74844SOL     OW26370  10.896   7.788   4.895
74844SOL    HW126371  10.800   7.791   4.893
74844SOL    HW226372  10.919   7.733   4.820
74845SOL     OW26373   8.717   7.485   4.403
74845SOL    HW126374   8.752   7.413   4.454
74845SOL    HW226375   8.630   7.500   4.440
74846SOL     OW26376  11.358  14.221  12.880
74846SOL    HW126377  11.308  14.142  12.900
74846SOL    HW226378  11.313  14.260  12.805
74847SOL     OW26379   0.625  11.369   5.085
74847SOL    HW126380   0.712  11.403   5.102
74847SOL    HW226381   0.590  11.348   5.172
74848SOL     OW26382   7.642  14.786   2.061
74848SOL    HW126383   7.736  14.800   2.054
74848SOL    HW226384   7.632  14.691   2.055
74849SOL     OW26385   1.415   1.717   9.224
74849SOL    HW126386   1.351   1.692   9.157
74849SOL    HW226387   1.419   1.812   9.220
74850SOL     OW26388  13.375   8.177   2.090
74850SOL    HW126389  13.456   8.229   2.086
74850SOL    HW226390  13.404   8.086   2.083
74851SOL     OW26391   2.932  12.589  11.096
74851SOL    HW126392   2.917  12.500  11.126
74851SOL    HW226393   3.006  12.620  11.149
74852SOL     OW26394   5.822  10.751   1.397
74852SOL    HW126395   5.762  10.677   1.393
74852SOL    HW226396   5.766  10.825   1.423
74853SOL     OW26397   8.083   0.858  10.734
74853SOL    HW126398   8.028   0.880  10.659
74853SOL    HW226399   8.035   0.890  10.810
74854SOL     OW26400   4.712   2.157  11.384
74854SOL    HW126401   4.699   2.241  11.427
74854SOL    HW226402   4.652   2.097  11.429
74855SOL     OW26403  13.019  11.425  13.353
74855SOL    HW126404  13.047  11.516  13.342
74855SOL    HW226405  13.067  11.377  13.286
74856SOL     OW26406  10.238   9.178   9.333
74856SOL    HW126407  10.203   9.109   9.390
74856SOL    HW226408  10.304   9.134   9.280
74857SOL     OW26409   9.280  12.453   8.498
74857SOL    HW126410   9.353  12.398   8.527
74857SOL    HW226411   9.236  12.478   8.579
74858SOL     OW26412   8.260   2.741  14.217
74858SOL    HW126413   8.314   2.814  14.246
74858SOL    HW226414   8.191   2.782  14.164
74859SOL     OW26415   8.615   0.147   0.155
74859SOL    HW126416   8.696   0.143   0.207
74859SOL    HW226417   8.638   0.106   0.072
74860SOL     OW26418   6.176  14.702  12.790
74860SOL    HW126419   6.259  14.673  12.751
74860SOL    HW226420   6.133  14.752  12.720
74861SOL     OW26421  14.800   7.181  14.197
74861SOL    HW126422  14.832   7.153  14.283
74861SOL    HW226423  14.710   7.147  14.193
74862SOL     OW26424   5.742   1.377  14.530
74862SOL    HW126425   5.822   1.412  14.569
74862SOL    HW226426   5.671   1.412  14.585
74863SOL     OW26427   1.306   9.996   8.744
74863SOL    HW126428   1.258   9.913   8.752
74863SOL    HW226429   1.237  10.063   8.741
74864SOL     OW26430   8.754   6.760   8.356
74864SOL    HW126431   8.812   6.773   8.431
74864SOL    HW226432   8.700   6.685   8.381
74865SOL     OW26433   8.938   5.492  13.108
74865SOL    HW126434   9.018   5.522  13.065
74865SOL    HW226435   8.872   5.494  13.040
74866SOL     OW26436  12.602  11.502  11.699
74866SOL    HW126437  12.687  11.461  11.716
74866SOL    HW226438  12.541  11.458  11.758
74867SOL     OW26439   6.753   8.112   2.248
74867SOL    HW126440   6.694   8.186   2.257
74867SOL    HW226441   6.732   8.055   2.322
74868SOL     OW26442   9.894   3.495  10.050
74868SOL    HW126443   9.853   3.581  10.049
74868SOL    HW226444   9.986   3.511  10.073
74869SOL     OW26445   5.063   2.650   3.424
74869SOL    HW126446   5.083   2.743   3.436
74869SOL    HW226447   4.989   2.649   3.362
74870SOL     OW26448   2.144   5.627  11.557
74870SOL    HW126449   2.191   5.684  11.619
74870SOL    HW226450   2.185   5.541  11.567
74871SOL     OW26451   8.986   7.714   5.613
74871SOL    HW126452   8.984   7.722   5.709
74871SOL    HW226453   8.937   7.791   5.583
74872SOL     OW26454  10.795   2.769  11.419
74872SOL    HW126455  10.863   2.804  11.477
74872SOL    HW226456  10.804   2.674  11.426
74873SOL     OW26457  12.001   9.360   7.214
74873SOL    HW126458  11.965   9.343   7.301
74873SOL    HW226459  12.070   9.425   7.229
74874SOL     OW26460  11.228   1.116   0.615
74874SOL    HW126461  11.256   1.203   0.644
74874SOL    HW226462  11.202   1.071   0.695
74875SOL     OW26463   0.934   9.999   7.676
74875SOL    HW126464   0.936   9.985   7.581
74875SOL    HW226465   1.024  10.022   7.699
74876SOL     OW26466   4.274  13.380  14.589
74876SOL    HW126467   4.326  13.377  14.670
74876SOL    HW226468   4.312  13.312  14.534
74877SOL     OW26469   5.020   3.936   4.988
74877SOL    HW126470   5.062   3.973   5.066
74877SOL    HW226471   4.990   3.849   5.016
74878SOL     OW26472  14.266   2.838   3.619
74878SOL    HW126473  14.362   2.840   3.625
74878SOL    HW226474  14.249   2.804   3.532
74879SOL     OW26475  12.814  13.090   1.123
74879SOL    HW126476  12.899  13.105   1.081
74879SOL    HW226477  12.763  13.044   1.057
74880SOL     OW26478   9.835   1.567   7.182
74880SOL    HW126479   9.785   1.523   7.113
74880SOL    HW226480   9.841   1.503   7.253
74881SOL     OW26481  11.599  10.019   6.418
74881SOL    HW126482  11.627  10.070   6.342
74881SOL    HW226483  11.670   9.956   6.432
74882SOL     OW26484   7.404   6.071   4.352
74882SOL    HW126485   7.337   6.098   4.288
74882SOL    HW226486   7.487   6.092   4.309
74883SOL     OW26487   0.013   5.539   2.871
74883SOL    HW126488   0.008   5.570   2.961
74883SOL    HW226489   0.074   5.599   2.828
74884SOL     OW26490   6.100   8.875  13.971
74884SOL    HW126491   6.108   8.805  14.036
74884SOL    HW226492   6.075   8.831  13.890
74885SOL     OW26493   6.467  10.790  10.195
74885SOL    HW126494   6.514  10.709  10.216
74885SOL    HW226495   6.530  10.859  10.213
74886SOL     OW26496   4.507   2.255  12.856
74886SOL    HW126497   4.444   2.184  12.860
74886SOL    HW226498   4.519   2.271  12.762
74887SOL     OW26499   3.783   3.631  10.387
74887SOL    HW126500   3.815   3.708  10.435
74887SOL    HW226501   3.763   3.665  10.300
74888SOL     OW26502   4.581   4.663   4.497
74888SOL    HW126503   4.632   4.738   4.527
74888SOL    HW226504   4.571   4.678   4.403
74889SOL     OW26505   8.464  11.165  11.725
74889SOL    HW126506   8.504  11.171  11.812
74889SOL    HW226507   8.536  11.171  11.664
74890SOL     OW26508   3.439   5.393   0.714
74890SOL    HW126509   3.522   5.353   0.687
74890SOL    HW226510   3.392   5.322   0.758
74891SOL     OW26511  14.383  11.192  12.334
74891SOL    HW126512  14.418  11.103  12.325
74891SOL    HW226513  14.417  11.238  12.257
74892SOL     OW26514   3.167   8.863  12.261
74892SOL    HW126515   3.245   8.915  12.241
74892SOL    HW226516   3.122   8.854  12.177
74893SOL     OW26517   8.883   1.306  14.001
74893SOL    HW126518   8.833   1.388  14.006
74893SOL    HW226519   8.821   1.242  13.967
74894SOL     OW26520   8.723   0.309  12.361
74894SOL    HW126521   8.693   0.399  12.349
74894SOL    HW226522   8.699   0.288  12.452
74895SOL     OW26523   2.152   7.096  10.307
74895SOL    HW126524   2.057   7.086  10.317
74895SOL    HW226525   2.183   7.117  10.396
74896SOL     OW26526   7.031  14.751   2.999
74896SOL    HW126527   7.038  14.839   2.961
74896SOL    HW226528   6.942  14.724   2.977
74897SOL     OW26529   6.206  14.359   1.085
74897SOL    HW126530   6.123  14.385   1.044
74897SOL    HW226531   6.238  14.439   1.127
74898SOL     OW26532  14.179   3.149   9.990
74898SOL    HW126533  14.102   3.179   9.943
74898SOL    HW226534  14.204   3.224  10.044
74899SOL     OW26535   5.586   9.049  10.709
74899SOL    HW126536   5.514   9.102  10.674
74899SOL    HW226537   5.541   8.980  10.759
74900SOL     OW26538   8.353   1.498   7.858
74900SOL    HW126539   8.444   1.520   7.840
74900SOL    HW226540   8.305   1.533   7.783
74901SOL     OW26541  13.655  12.636  14.423
74901SOL    HW126542  13.635  12.728  14.443
74901SOL    HW226543  13.723  12.641  14.355
74902SOL     OW26544   5.349  11.487  14.418
74902SOL    HW126545   5.339  11.578  14.443
74902SOL    HW226546   5.422  11.455  14.470
74903SOL     OW26547  14.401   7.590   8.485
74903SOL    HW126548  14.374   7.500   8.469
74903SOL    HW226549  14.491   7.594   8.453
74904SOL     OW26550  12.852  10.631   0.114
74904SOL    HW126551  12.912  10.686   0.163
74904SOL    HW226552  12.857  10.664   0.024
74905SOL     OW26553   0.902  12.587   7.417
74905SOL    HW126554   0.901  12.574   7.322
74905SOL    HW226555   0.823  12.637   7.436
74906SOL     OW26556  11.931  11.763   3.193
74906SOL    HW126557  11.960  11.836   3.138
74906SOL    HW226558  12.012  11.720   3.220
74907SOL     OW26559   1.027  10.089  10.019
74907SOL    HW126560   0.997  10.020   9.961
74907SOL    HW226561   0.948  10.118  10.065
74908SOL     OW26562   9.605  11.040   3.225
74908SOL    HW126563   9.519  11.008   3.255
74908SOL    HW226564   9.598  11.135   3.232
74909SOL     OW26565   6.342   9.425  10.532
74909SOL    HW126566   6.283   9.496  10.506
74909SOL    HW226567   6.358   9.440  10.625
74910SOL     OW26568   2.793   7.141   3.903
74910SOL    HW126569   2.847   7.219   3.912
74910SOL    HW226570   2.853   7.074   3.871
74911SOL     OW26571   5.628   5.963   5.205
74911SOL    HW126572   5.571   5.935   5.276
74911SOL    HW226573   5.699   6.011   5.249
74912SOL     OW26574  13.021   8.247   0.404
74912SOL    HW126575  13.084   8.316   0.424
74912SOL    HW226576  13.009   8.251   0.309
74913SOL     OW26577   1.529   9.426   1.037
74913SOL    HW126578   1.452   9.372   1.020
74913SOL    HW226579   1.552   9.462   0.952
74914SOL     OW26580   0.656   9.497  11.256
74914SOL    HW126581   0.713   9.454  11.192
74914SOL    HW226582   0.703   9.488  11.339
74915SOL     OW26583   1.633   4.584  11.130
74915SOL    HW126584   1.694   4.551  11.196
74915SOL    HW226585   1.567   4.516  11.122
74916SOL     OW26586  10.681  13.778   7.854
74916SOL    HW126587  10.675  13.697   7.804
74916SOL    HW226588  10.731  13.755   7.932
74917SOL     OW26589   3.375   0.460  14.144
74917SOL    HW126590   3.417   0.514  14.077
74917SOL    HW226591   3.381   0.511  14.224
74918SOL     OW26592  12.959   6.466  14.637
74918SOL    HW126593  12.961   6.531  14.707
74918SOL    HW226594  13.042   6.477  14.591
74919SOL     OW26595   8.533   5.795   7.831
74919SOL    HW126596   8.472   5.722   7.828
74919SOL    HW226597   8.478   5.873   7.840
74920SOL     OW26598  12.417   6.074   0.394
74920SOL    HW126599  12.434   6.165   0.417
74920SOL    HW226600  12.467   6.023   0.458
74921SOL     OW26601  14.397   2.369   3.632
74921SOL    HW126602  14.329   2.403   3.573
74921SOL    HW226603  14.428   2.290   3.589
74922SOL     OW26604   9.080   7.290   5.573
74922SOL    HW126605   9.070   7.348   5.498
74922SOL    HW226606   8.991   7.265   5.597
74923SOL     OW26607   1.001  13.967   1.794
74923SOL    HW126608   0.943  13.961   1.718
74923SOL    HW226609   1.024  13.876   1.814
74924SOL     OW26610   3.625   7.822   3.905
74924SOL    HW126611   3.709   7.781   3.887
74924SOL    HW226612   3.634   7.859   3.993
74925SOL     OW26613   6.088  12.550  12.017
74925SOL    HW126614   6.145  12.483  11.979
74925SOL    HW226615   6.147  12.605  12.068
74926SOL     OW26616   5.765   7.931   3.832
74926SOL    HW126617   5.856   7.955   3.815
74926SOL    HW226618   5.750   7.854   3.777
74927SOL     OW26619   1.093   1.937  13.024
74927SOL    HW126620   1.138   1.869  12.973
74927SOL    HW226621   1.163   1.982  13.071
74928SOL     OW26622   8.813   1.876   8.531
74928SOL    HW126623   8.763   1.899   8.453
74928SOL    HW226624   8.795   1.947   8.593
74929SOL     OW26625  14.412   9.131   5.832
74929SOL    HW126626  14.468   9.183   5.775
74929SOL    HW226627  14.451   9.140   5.919
74930SOL     OW26628   5.339   4.994   0.726
74930SOL    HW126629   5.397   5.050   0.674
74930SOL    HW226630   5.265   4.976   0.668
74931SOL     OW26631   7.100  12.953   3.573
74931SOL    HW126632   7.026  12.945   3.633
74931SOL    HW226633   7.177  12.956   3.631
74932SOL     OW26634  14.837   1.267   1.861
74932SOL    HW126635  14.804   1.273   1.951
74932SOL    HW226636   0.054   1.239   1.871
74933SOL     OW26637   0.214   9.425   6.956
74933SOL    HW126638   0.267   9.346   6.946
74933SOL    HW226639   0.158   9.426   6.878
74934SOL     OW26640  10.706   6.173  12.321
74934SOL    HW126641  10.710   6.119  12.400
74934SOL    HW226642  10.795   6.206  12.309
74935SOL     OW26643  14.854  12.452  13.338
74935SOL    HW126644  14.779  12.506  13.310
74935SOL    HW226645  14.814  12.372  13.373
74936SOL     OW26646   3.984  10.515   8.152
74936SOL    HW126647   3.918  10.569   8.195
74936SOL    HW226648   4.067  10.539   8.194
74937SOL     OW26649   4.920   9.981   7.874
74937SOL    HW126650   4.980  10.034   7.927
74937SOL    HW226651   4.963   9.974   7.789
74938SOL     OW26652   0.643   7.025   9.924
74938SOL    HW126653   0.565   7.079   9.913
74938SOL    HW226654   0.658   6.987   9.837
74939SOL     OW26655   4.199   9.151  14.463
74939SOL    HW126656   4.159   9.229  14.425
74939SOL    HW226657   4.173   9.152  14.555
74940SOL     OW26658   2.940   8.167   3.986
74940SOL    HW126659   2.946   8.072   3.982
74940SOL    HW226660   3.027   8.195   4.015
74941SOL     OW26661  13.018  11.426   6.292
74941SOL    HW126662  13.101  11.397   6.330
74941SOL    HW226663  13.032  11.519   6.273
74942SOL     OW26664   0.770  11.015  12.631
74942SOL    HW126665   0.736  10.979  12.550
74942SOL    HW226666   0.738  11.105  12.633
74943SOL     OW26667   9.480   2.072   7.168
74943SOL    HW126668   9.574   2.062   7.155
74943SOL    HW226669   9.445   2.085   7.080
74944SOL     OW26670  11.116   5.920   5.212
74944SOL    HW126671  11.163   5.993   5.252
74944SOL    HW226672  11.023   5.944   5.220
74945SOL     OW26673   9.754   4.998   8.689
74945SOL    HW126674   9.663   4.968   8.698
74945SOL    HW226675   9.803   4.947   8.753
74946SOL     OW26676   6.217   1.988   8.121
74946SOL    HW126677   6.295   2.039   8.098
74946SOL    HW226678   6.155   2.005   8.050
74947SOL     OW26679   5.448   1.606  11.767
74947SOL    HW126680   5.455   1.660  11.846
74947SOL    HW226681   5.532   1.560  11.762
74948SOL     OW26682  10.889   5.164  11.567
74948SOL    HW126683  10.813   5.221  11.555
74948SOL    HW226684  10.960   5.208  11.521
74949SOL     OW26685   7.887   6.645   3.201
74949SOL    HW126686   7.817   6.597   3.244
74949SOL    HW226687   7.848   6.729   3.178
74950SOL     OW26688   4.417   6.198   0.659
74950SOL    HW126689   4.323   6.206   0.672
74950SOL    HW226690   4.427   6.172   0.568
74951SOL     OW26691   9.355   6.601   2.961
74951SOL    HW126692   9.282   6.662   2.966
74951SOL    HW226693   9.318   6.517   2.987
74952SOL     OW26694  12.806  12.667  11.027
74952SOL    HW126695  12.884  12.696  10.980
74952SOL    HW226696  12.828  12.580  11.059
74953SOL     OW26697   0.084   0.236  12.314
74953SOL    HW126698   0.174   0.206  12.305
74953SOL    HW226699   0.055   0.199  12.397
74954SOL     OW26700   1.142   3.054   4.824
74954SOL    HW126701   1.226   3.065   4.781
74954SOL    HW226702   1.161   3.001   4.901
74955SOL     OW26703  10.778   1.767  12.385
74955SOL    HW126704  10.784   1.730  12.297
74955SOL    HW226705  10.776   1.691  12.443
74956SOL     OW26706  11.256  14.461  11.496
74956SOL    HW126707  11.211  14.513  11.429
74956SOL    HW226708  11.313  14.524  11.541
74957SOL     OW26709   9.530   3.701  14.220
74957SOL    HW126710   9.442   3.735  14.201
74957SOL    HW226711   9.525   3.609  14.193
74958SOL     OW26712  11.776   2.233   8.424
74958SOL    HW126713  11.861   2.224   8.466
74958SOL    HW226714  11.786   2.308   8.365
74959SOL     OW26715  12.196   6.807   4.463
74959SOL    HW126716  12.155   6.779   4.381
74959SOL    HW226717  12.140   6.878   4.495
74960SOL     OW26718   1.377   2.298   4.521
74960SOL    HW126719   1.424   2.322   4.441
74960SOL    HW226720   1.321   2.225   4.495
74961SOL     OW26721   5.886  13.370   5.859
74961SOL    HW126722   5.844  13.285   5.872
74961SOL    HW226723   5.951  13.374   5.929
74962SOL     OW26724   0.961   5.357   8.443
74962SOL    HW126725   1.021   5.355   8.517
74962SOL    HW226726   0.977   5.441   8.401
74963SOL     OW26727   2.364  13.656   7.362
74963SOL    HW126728   2.269  13.659   7.372
74963SOL    HW226729   2.399  13.686   7.446
74964SOL     OW26730   5.081  11.723   1.967
74964SOL    HW126731   5.043  11.801   1.927
74964SOL    HW226732   5.027  11.651   1.935
74965SOL     OW26733   6.452   6.942   4.161
74965SOL    HW126734   6.459   7.009   4.094
74965SOL    HW226735   6.437   6.861   4.113
74966SOL     OW26736   8.252   5.266  14.525
74966SOL    HW126737   8.313   5.237  14.457
74966SOL    HW226738   8.307   5.318  14.584
74967SOL     OW26739  13.186   8.407   6.886
74967SOL    HW126740  13.170   8.423   6.979
74967SOL    HW226741  13.243   8.330   6.885
74968SOL     OW26742   3.771   0.951   3.270
74968SOL    HW126743   3.754   1.045   3.265
74968SOL    HW226744   3.781   0.934   3.363
74969SOL     OW26745   5.810  11.838  14.318
74969SOL    HW126746   5.754  11.804  14.387
74969SOL    HW226747   5.856  11.912  14.358
74970SOL     OW26748  10.706   9.824  14.380
74970SOL    HW126749  10.765   9.845  14.452
74970SOL    HW226750  10.748   9.751  14.335
74971SOL     OW26751   2.880  14.671  12.209
74971SOL    HW126752   2.874  14.619  12.289
74971SOL    HW226753   2.921  14.753  12.237
74972SOL     OW26754   9.487   7.662   0.937
74972SOL    HW126755   9.471   7.575   0.899
74972SOL    HW226756   9.415   7.675   0.999
74973SOL     OW26757   2.964   9.478   9.508
74973SOL    HW126758   2.954   9.434   9.423
74973SOL    HW226759   2.874   9.496   9.536
74974SOL     OW26760   0.437   6.241   9.934
74974SOL    HW126761   0.461   6.184   9.861
74974SOL    HW226762   0.518   6.251   9.984
74975SOL     OW26763   6.616   0.111   8.125
74975SOL    HW126764   6.547   0.158   8.077
74975SOL    HW226765   6.643   0.172   8.193
74976SOL     OW26766   0.265  12.690   1.174
74976SOL    HW126767   0.272  12.785   1.167
74976SOL    HW226768   0.250  12.675   1.268
74977SOL     OW26769  13.592   8.696   5.710
74977SOL    HW126770  13.626   8.785   5.722
74977SOL    HW226771  13.650   8.641   5.761
74978SOL     OW26772  14.044   4.049   9.883
74978SOL    HW126773  13.974   4.109   9.910
74978SOL    HW226774  14.121   4.106   9.872
74979SOL     OW26775   2.969   1.237   6.109
74979SOL    HW126776   2.971   1.152   6.152
74979SOL    HW226777   2.925   1.294   6.171
74980SOL     OW26778   6.499   8.392  14.175
74980SOL    HW126779   6.541   8.452  14.113
74980SOL    HW226780   6.427   8.353  14.125
74981SOL     OW26781  10.815   2.707   7.482
74981SOL    HW126782  10.809   2.772   7.551
74981SOL    HW226783  10.909   2.693   7.469
74982SOL     OW26784   3.198   4.448   7.585
74982SOL    HW126785   3.156   4.430   7.501
74982SOL    HW226786   3.165   4.379   7.643
74983SOL     OW26787   9.527   6.520   8.673
74983SOL    HW126788   9.458   6.457   8.650
74983SOL    HW226789   9.597   6.466   8.709
74984SOL     OW26790   7.210   1.997   9.247
74984SOL    HW126791   7.249   2.016   9.332
74984SOL    HW226792   7.116   2.000   9.262
74985SOL     OW26793   4.917  14.823  10.013
74985SOL    HW126794   5.011  14.832  10.030
74985SOL    HW226795   4.901  14.729  10.014
74986SOL     OW26796   7.844   6.188   4.607
74986SOL    HW126797   7.827   6.095   4.594
74986SOL    HW226798   7.788   6.212   4.680
74987SOL     OW26799   0.383   6.691   1.268
74987SOL    HW126800   0.424   6.705   1.354
74987SOL    HW226801   0.445   6.637   1.220
74988SOL     OW26802  13.595  14.295   8.837
74988SOL    HW126803  13.591  14.242   8.916
74988SOL    HW226804  13.571  14.235   8.766
74989SOL     OW26805   8.853  10.653   4.025
74989SOL    HW126806   8.900  10.667   4.107
74989SOL    HW226807   8.845  10.740   3.986
74990SOL     OW26808  13.868   5.159   9.107
74990SOL    HW126809  13.916   5.111   9.039
74990SOL    HW226810  13.901   5.123   9.189
74991SOL     OW26811  13.168   7.870  11.774
74991SOL    HW126812  13.235   7.813  11.737
74991SOL    HW226813  13.123   7.816  11.839
74992SOL     OW26814   6.807   9.363   5.546
74992SOL    HW126815   6.867   9.390   5.615
74992SOL    HW226816   6.810   9.435   5.483
74993SOL     OW26817   0.914  14.066   4.935
74993SOL    HW126818   0.902  14.140   4.875
74993SOL    HW226819   1.001  14.078   4.972
74994SOL     OW26820   9.283   3.772  14.134
74994SOL    HW126821   9.200   3.775  14.182
74994SOL    HW226822   9.300   3.864  14.111
74995SOL     OW26823  11.800   2.800   6.960
74995SOL    HW126824  11.892   2.782   6.979
74995SOL    HW226825  11.752   2.762   7.034
74996SOL     OW26826  12.555   1.013   8.560
74996SOL    HW126827  12.558   1.085   8.623
74996SOL    HW226828  12.574   1.054   8.476
74997SOL     OW26829   0.971  13.057   8.014
74997SOL    HW126830   1.007  13.102   8.090
74997SOL    HW226831   0.999  13.109   7.939
74998SOL     OW26832   0.359   7.728   6.753
74998SOL    HW126833   0.271   7.715   6.720
74998SOL    HW226834   0.415   7.728   6.676
74999SOL     OW26835  10.610   1.517  14.090
74999SOL    HW126836  10.541   1.562  14.139
74999SOL    HW226837  10.567   1.484  14.011
75000SOL     OW26838  12.356   4.763  10.728
75000SOL    HW126839  12.316   4.753  10.642
75000SOL    HW226840  12.371   4.857  10.737
75001SOL     OW26841   8.783   5.641   6.375
75001SOL    HW126842   8.853   5.625   6.438
75001SOL    HW226843   8.739   5.719   6.408
75002SOL     OW26844   3.755   2.307  10.216
75002SOL    HW126845   3.706   2.387  10.201
75002SOL    HW226846   3.695   2.236  10.194
75003SOL     OW26847  13.886   2.156   1.970
75003SOL    HW126848  13.795   2.177   1.993
75003SOL    HW226849  13.911   2.224   1.907
75004SOL     OW26850   9.037   0.325   1.463
75004SOL    HW126851   9.094   0.400   1.448
75004SOL    HW226852   9.007   0.298   1.376
75005SOL     OW26853   8.866  14.402   1.119
75005SOL    HW126854   8.861  14.318   1.074
75005SOL    HW226855   8.940  14.393   1.180
75006SOL     OW26856   9.050  12.944   7.926
75006SOL    HW126857   8.979  12.881   7.926
75006SOL    HW226858   9.126  12.895   7.893
75007SOL     OW26859   4.097   5.889   1.623
75007SOL    HW126860   4.070   5.981   1.622
75007SOL    HW226861   4.016   5.840   1.640
75008SOL     OW26862  13.203  12.820  11.173
75008SOL    HW126863  13.298  12.823  11.185
75008SOL    HW226864  13.171  12.760  11.241
75009SOL     OW26865   0.656   1.883  10.327
75009SOL    HW126866   0.619   1.914  10.244
75009SOL    HW226867   0.747   1.862  10.306
75010SOL     OW26868  11.039   3.245  14.317
75010SOL    HW126869  10.968   3.279  14.262
75010SOL    HW226870  11.014   3.269  14.406
75011SOL     OW26871   5.921   5.658   4.523
75011SOL    HW126872   6.007   5.696   4.542
75011SOL    HW226873   5.924   5.571   4.564
75012SOL     OW26874   3.299   4.040   1.739
75012SOL    HW126875   3.328   3.957   1.777
75012SOL    HW226876   3.262   4.015   1.654
75013SOL     OW26877   8.514  12.191   2.060
75013SOL    HW126878   8.559  12.195   2.145
75013SOL    HW226879   8.547  12.112   2.019
75014SOL     OW26880   3.831  12.048   2.198
75014SOL    HW126881   3.799  12.116   2.138
75014SOL    HW226882   3.918  12.078   2.224
75015SOL     OW26883   3.642   6.514   4.144
75015SOL    HW126884   3.558   6.502   4.100
75015SOL    HW226885   3.706   6.521   4.073
75016SOL     OW26886  13.780  10.032   3.246
75016SOL    HW126887  13.772  10.036   3.151
75016SOL    HW226888  13.691  10.048   3.278
75017SOL     OW26889   8.594  14.149  12.651
75017SOL    HW126890   8.521  14.199  12.614
75017SOL    HW226891   8.571  14.057  12.635
75018SOL     OW26892   0.307   9.716   2.406
75018SOL    HW126893   0.382   9.719   2.346
75018SOL    HW226894   0.268   9.804   2.400
75019SOL     OW26895   3.204  10.579   8.501
75019SOL    HW126896   3.127  10.537   8.539
75019SOL    HW226897   3.263  10.506   8.482
75020SOL     OW26898   9.938   3.456   1.999
75020SOL    HW126899   9.935   3.415   1.912
75020SOL    HW226900   9.907   3.387   2.059
75021SOL     OW26901  10.131   9.531  11.890
75021SOL    HW126902  10.181   9.611  11.909
75021SOL    HW226903  10.166   9.500  11.807
75022SOL     OW26904  13.974   3.012  14.684
75022SOL    HW126905  13.984   2.931  14.635
75022SOL    HW226906  13.933   3.073  14.622
75023SOL     OW26907  12.156   6.686   8.767
75023SOL    HW126908  12.218   6.614   8.774
75023SOL    HW226909  12.073   6.644   8.742
75024SOL     OW26910   8.571   2.786   6.615
75024SOL    HW126911   8.536   2.845   6.682
75024SOL    HW226912   8.663   2.776   6.638
75025SOL     OW26913   4.824   5.819  12.870
75025SOL    HW126914   4.733   5.795  12.854
75025SOL    HW226915   4.832   5.822  12.965
75026SOL     OW26916   9.117  11.622   6.617
75026SOL    HW126917   9.157  11.694   6.666
75026SOL    HW226918   9.160  11.544   6.651
75027SOL     OW26919  13.701  12.111  14.667
75027SOL    HW126920  13.666  12.066  14.744
75027SOL    HW226921  13.783  12.149  14.697
75028SOL     OW26922  11.358  13.608   2.041
75028SOL    HW126923  11.303  13.539   2.075
75028SOL    HW226924  11.416  13.631   2.114
75029SOL     OW26925  11.914  10.801   2.232
75029SOL    HW126926  11.857  10.826   2.304
75029SOL    HW226927  11.861  10.744   2.177
75030SOL     OW26928   2.846   0.181  10.943
75030SOL    HW126929   2.928   0.225  10.967
75030SOL    HW226930   2.873   0.095  10.911
75031SOL     OW26931   8.933   1.371   4.888
75031SOL    HW126932   8.926   1.366   4.793
75031SOL    HW226933   8.987   1.295   4.911
75032SOL     OW26934   0.669   8.789  11.039
75032SOL    HW126935   0.736   8.722  11.024
75032SOL    HW226936   0.680   8.850  10.966
75033SOL     OW26937   3.766   2.525   6.709
75033SOL    HW126938   3.829   2.558   6.645
75033SOL    HW226939   3.744   2.602   6.762
75034SOL     OW26940  11.942   7.136   1.653
75034SOL    HW126941  11.913   7.079   1.581
75034SOL    HW226942  11.872   7.201   1.661
75035SOL     OW26943   4.647   6.854  11.218
75035SOL    HW126944   4.643   6.927  11.280
75035SOL    HW226945   4.701   6.886  11.146
75036SOL     OW26946   4.899   9.547   6.532
75036SOL    HW126947   4.982   9.508   6.560
75036SOL    HW226948   4.883   9.617   6.595
75037SOL     OW26949  14.744   5.556   5.367
75037SOL    HW126950  14.656   5.573   5.402
75037SOL    HW226951  14.803   5.585   5.436
75038SOL     OW26952  13.958   1.008  10.488
75038SOL    HW126953  13.990   1.054  10.565
75038SOL    HW226954  14.024   1.024  10.420
75039SOL     OW26955   4.103  10.751  12.802
75039SOL    HW126956   4.129  10.672  12.754
75039SOL    HW226957   4.024  10.781  12.758
75040SOL     OW26958   3.539   0.958  12.726
75040SOL    HW126959   3.567   0.989  12.639
75040SOL    HW226960   3.611   0.980  12.784
75041SOL     OW26961   5.413   6.818   7.450
75041SOL    HW126962   5.353   6.746   7.467
75041SOL    HW226963   5.430   6.857   7.535
75042SOL     OW26964   3.895  12.422  10.749
75042SOL    HW126965   3.981  12.382  10.752
75042SOL    HW226966   3.834  12.348  10.756
75043SOL     OW26967   8.702  11.946  10.789
75043SOL    HW126968   8.654  11.944  10.706
75043SOL    HW226969   8.636  11.923  10.854
75044SOL     OW26970  13.400  10.383  11.311
75044SOL    HW126971  13.461  10.450  11.281
75044SOL    HW226972  13.455  10.306  11.328
75045SOL     OW26973  11.442   8.017   5.968
75045SOL    HW126974  11.446   7.929   5.930
75045SOL    HW226975  11.351   8.028   5.995
75046SOL     OW26976  12.879   0.276   1.275
75046SOL    HW126977  12.849   0.228   1.197
75046SOL    HW226978  12.942   0.339   1.241
75047SOL     OW26979   6.861  11.467   5.010
75047SOL    HW126980   6.777  11.465   5.055
75047SOL    HW226981   6.920  11.514   5.070
75048SOL     OW26982  10.202   5.218  14.092
75048SOL    HW126983  10.198   5.134  14.136
75048SOL    HW226984  10.133   5.271  14.132
75049SOL     OW26985  10.970   5.819   4.641
75049SOL    HW126986  11.030   5.883   4.604
75049SOL    HW226987  11.024   5.743   4.661
75050SOL     OW26988  13.254   7.828   0.020
75050SOL    HW126989  13.225   7.918   0.030
75050SOL    HW226990  13.175   7.780  14.869
75051SOL     OW26991  12.895  12.216   6.431
75051SOL    HW126992  12.906  12.133   6.478
75051SOL    HW226993  12.984  12.252   6.425
75052SOL     OW26994  11.492  10.568   9.062
75052SOL    HW126995  11.470  10.564   8.969
75052SOL    HW226996  11.584  10.594   9.063
75053SOL     OW26997  13.290  10.361   5.279
75053SOL    HW126998  13.313  10.325   5.193
75053SOL    HW226999  13.284  10.455   5.265
75054SOL     OW27000   0.101   9.271  10.252
75054SOL    HW127001   0.048   9.216  10.309
75054SOL    HW227002   0.110   9.354  10.300
75055SOL     OW27003   7.940   6.479   8.824
75055SOL    HW127004   7.865   6.469   8.884
75055SOL    HW227005   7.957   6.390   8.792
75056SOL     OW27006   4.227  12.424   5.014
75056SOL    HW127007   4.194  12.392   4.931
75056SOL    HW227008   4.245  12.517   4.999
75057SOL     OW27009  14.486  10.985  10.470
75057SOL    HW127010  14.474  10.891  10.487
75057SOL    HW227011  14.525  10.989  10.383
75058SOL     OW27012   3.448  11.268   2.983
75058SOL    HW127013   3.475  11.187   3.026
75058SOL    HW227014   3.519  11.287   2.921
75059SOL     OW27015  13.189   2.257   9.252
75059SOL    HW127016  13.206   2.326   9.188
75059SOL    HW227017  13.111   2.286   9.298
75060SOL     OW27018   3.075   7.707   5.181
75060SOL    HW127019   3.060   7.766   5.107
75060SOL    HW227020   3.012   7.636   5.167
75061SOL     OW27021   9.825   0.603   3.477
75061SOL    HW127022   9.882   0.583   3.402
75061SOL    HW227023   9.802   0.517   3.512
75062SOL     OW27024   9.115  12.036  13.299
75062SOL    HW127025   9.162  12.115  13.324
75062SOL    HW227026   9.149  11.968  13.357
75063SOL     OW27027   1.215   4.944   5.289
75063SOL    HW127028   1.225   5.034   5.258
75063SOL    HW227029   1.276   4.937   5.362
75064SOL     OW27030   0.245   7.041   2.337
75064SOL    HW127031   0.156   7.012   2.352
75064SOL    HW227032   0.249   7.059   2.243
75065SOL     OW27033  13.960  13.464   7.948
75065SOL    HW127034  13.897  13.500   7.885
75065SOL    HW227035  14.025  13.533   7.960
75066SOL     OW27036  13.673   5.865   4.693
75066SOL    HW127037  13.647   5.774   4.710
75066SOL    HW227038  13.715   5.893   4.774
75067SOL     OW27039   3.131  12.261   3.869
75067SOL    HW127040   3.050  12.299   3.836
75067SOL    HW227041   3.104  12.177   3.907
75068SOL     OW27042   6.241   0.346  12.052
75068SOL    HW127043   6.251   0.415  12.118
75068SOL    HW227044   6.328   0.335  12.014
75069SOL     OW27045   5.414   9.343   1.125
75069SOL    HW127046   5.502   9.328   1.159
75069SOL    HW227047   5.383   9.256   1.100
75070SOL     OW27048   5.280   7.457   8.667
75070SOL    HW127049   5.223   7.408   8.727
75070SOL    HW227050   5.313   7.391   8.606
75071SOL     OW27051   6.129  13.584   9.064
75071SOL    HW127052   6.178  13.640   9.004
75071SOL    HW227053   6.173  13.499   9.061
75072SOL     OW27054   6.736   4.391   7.481
75072SOL    HW127055   6.684   4.416   7.558
75072SOL    HW227056   6.749   4.297   7.491
75073SOL     OW27057   1.132  11.157  10.125
75073SOL    HW127058   1.078  11.084  10.154
75073SOL    HW227059   1.081  11.235  10.146
75074SOL     OW27060   7.274  10.394   8.779
75074SOL    HW127061   7.222  10.314   8.789
75074SOL    HW227062   7.214  10.457   8.738
75075SOL     OW27063  14.527   6.723  11.837
75075SOL    HW127064  14.455   6.673  11.798
75075SOL    HW227065  14.582   6.748  11.762
75076SOL     OW27066   3.036  13.028   9.722
75076SOL    HW127067   3.086  13.110   9.727
75076SOL    HW227068   3.062  12.979   9.799
75077SOL     OW27069  13.241   4.818   7.393
75077SOL    HW127070  13.336   4.817   7.396
75077SOL    HW227071  13.220   4.791   7.303
75078SOL     OW27072  10.313   1.762  11.831
75078SOL    HW127073  10.330   1.677  11.872
75078SOL    HW227074  10.242   1.800  11.883
75079SOL     OW27075   6.026  10.586   3.793
75079SOL    HW127076   6.063  10.673   3.807
75079SOL    HW227077   6.042  10.539   3.875
75080SOL     OW27078   5.171  11.892   1.088
75080SOL    HW127079   5.155  11.854   1.001
75080SOL    HW227080   5.257  11.934   1.080
75081SOL     OW27081  12.885   3.998   6.609
75081SOL    HW127082  12.929   4.058   6.669
75081SOL    HW227083  12.793   4.027   6.610
75082SOL     OW27084  13.241  14.055   7.730
75082SOL    HW127085  13.221  13.972   7.773
75082SOL    HW227086  13.160  14.080   7.687
75083SOL     OW27087   2.523   8.722   5.533
75083SOL    HW127088   2.618   8.731   5.542
75083SOL    HW227089   2.487   8.799   5.577
75084SOL     OW27090   8.749  11.097   7.378
75084SOL    HW127091   8.802  11.101   7.458
75084SOL    HW227092   8.682  11.031   7.397
75085SOL     OW27093   0.260   5.134   2.233
75085SOL    HW127094   0.277   5.210   2.177
75085SOL    HW227095   0.231   5.170   2.316
75086SOL     OW27096   4.644  14.038  11.426
75086SOL    HW127097   4.653  14.130  11.452
75086SOL    HW227098   4.600  13.996  11.500
75087SOL     OW27099  14.450  13.772   6.311
75087SOL    HW127100  14.484  13.861   6.315
75087SOL    HW227101  14.497  13.725   6.380
75088SOL     OW27102  13.272   6.553  10.314
75088SOL    HW127103  13.365   6.533  10.318
75088SOL    HW227104  13.246   6.529  10.225
75089SOL     OW27105   3.892  12.141   7.139
75089SOL    HW127106   3.973  12.115   7.094
75089SOL    HW227107   3.867  12.063   7.189
75090SOL     OW27108   6.566   8.866   4.218
75090SOL    HW127109   6.617   8.787   4.239
75090SOL    HW227110   6.499   8.835   4.156
75091SOL     OW27111   8.428   1.095   0.343
75091SOL    HW127112   8.340   1.080   0.310
75091SOL    HW227113   8.422   1.178   0.390
75092SOL     OW27114   7.032  11.671   9.042
75092SOL    HW127115   7.101  11.664   9.107
75092SOL    HW227116   6.961  11.617   9.077
75093SOL     OW27117   9.194   6.455   0.265
75093SOL    HW127118   9.286   6.451   0.239
75093SOL    HW227119   9.148   6.482   0.186
75094SOL     OW27120  10.463   4.873   8.691
75094SOL    HW127121  10.453   4.937   8.761
75094SOL    HW227122  10.447   4.789   8.734
75095SOL     OW27123   5.137  13.321   1.687
75095SOL    HW127124   5.083  13.293   1.761
75095SOL    HW227125   5.208  13.257   1.684
75096SOL     OW27126   3.042  12.317  11.001
75096SOL    HW127127   3.080  12.236  11.036
75096SOL    HW227128   3.018  12.296  10.911
75097SOL     OW27129   1.541  14.033   9.855
75097SOL    HW127130   1.467  14.081   9.817
75097SOL    HW227131   1.567  14.086   9.930
75098SOL     OW27132  10.116   3.230   6.730
75098SOL    HW127133  10.030   3.262   6.700
75098SOL    HW227134  10.105   3.136   6.738
75099SOL     OW27135   3.594  14.571  13.878
75099SOL    HW127136   3.549  14.607  13.801
75099SOL    HW227137   3.682  14.609  13.874
75100SOL     OW27138   3.231   9.244  12.375
75100SOL    HW127139   3.226   9.189  12.298
75100SOL    HW227140   3.253   9.331  12.342
75101SOL     OW27141  13.832  11.623  13.231
75101SOL    HW127142  13.891  11.663  13.295
75101SOL    HW227143  13.884  11.551  13.193
75102SOL     OW27144  12.057   0.184   1.266
75102SOL    HW127145  12.093   0.150   1.184
75102SOL    HW227146  12.124   0.244   1.298
75103SOL     OW27147   8.299   4.975   3.943
75103SOL    HW127148   8.313   4.949   3.852
75103SOL    HW227149   8.309   5.070   3.943
75104SOL     OW27150  13.094   3.844   7.921
75104SOL    HW127151  13.147   3.918   7.890
75104SOL    HW227152  13.031   3.828   7.850
75105SOL     OW27153   0.126   4.688   5.635
75105SOL    HW127154   0.033   4.674   5.622
75105SOL    HW227155   0.163   4.689   5.546
75106SOL     OW27156  11.355  11.594   6.958
75106SOL    HW127157  11.341  11.684   6.927
75106SOL    HW227158  11.358  11.602   7.053
75107SOL     OW27159   5.894   4.816  14.503
75107SOL    HW127160   5.889   4.823  14.599
75107SOL    HW227161   5.921   4.726  14.487
75108SOL     OW27162   7.249   3.353  13.317
75108SOL    HW127163   7.323   3.293  13.329
75108SOL    HW227164   7.198   3.313  13.246
75109SOL     OW27165   4.500   9.667  12.838
75109SOL    HW127166   4.540   9.611  12.905
75109SOL    HW227167   4.406   9.656  12.852
75110SOL     OW27168   8.791   5.940  13.170
75110SOL    HW127169   8.884   5.958  13.177
75110SOL    HW227170   8.769   5.960  13.079
75111SOL     OW27171   4.370  12.969   5.855
75111SOL    HW127172   4.397  13.019   5.777
75111SOL    HW227173   4.437  12.901   5.863
75112SOL     OW27174   7.678   6.474   6.057
75112SOL    HW127175   7.706   6.409   5.993
75112SOL    HW227176   7.673   6.556   6.008
75113SOL     OW27177   9.132   4.472  11.431
75113SOL    HW127178   9.116   4.496  11.522
75113SOL    HW227179   9.204   4.530  11.404
75114SOL     OW27180   3.495   8.490  14.043
75114SOL    HW127181   3.529   8.457  14.126
75114SOL    HW227182   3.420   8.544  14.068
75115SOL     OW27183   0.769   2.823   2.218
75115SOL    HW127184   0.799   2.908   2.249
75115SOL    HW227185   0.676   2.821   2.241
75116SOL     OW27186  10.891   7.492   2.918
75116SOL    HW127187  10.833   7.519   2.990
75116SOL    HW227188  10.840   7.426   2.870
75117SOL     OW27189   8.722  14.364   5.841
75117SOL    HW127190   8.626  14.357   5.843
75117SOL    HW227191   8.739  14.438   5.782
75118SOL     OW27192  13.887   3.711   0.239
75118SOL    HW127193  13.980   3.703   0.257
75118SOL    HW227194  13.855   3.774   0.304
75119SOL     OW27195   8.289  13.622  11.375
75119SOL    HW127196   8.203  13.661  11.358
75119SOL    HW227197   8.305  13.566  11.299
75120SOL     OW27198  12.073  13.690   6.279
75120SOL    HW127199  12.132  13.685   6.355
75120SOL    HW227200  12.125  13.657   6.206
75121SOL     OW27201   2.296   0.094   9.745
75121SOL    HW127202   2.255   0.008   9.739
75121SOL    HW227203   2.224   0.154   9.764
75122SOL     OW27204   4.620   0.851   4.965
75122SOL    HW127205   4.535   0.881   4.996
75122SOL    HW227206   4.681   0.919   4.992
75123SOL     OW27207  13.884  12.849   0.026
75123SOL    HW127208  13.915  12.863   0.115
75123SOL    HW227209  13.873  12.754   0.020
75124SOL     OW27210   8.152   1.664   6.429
75124SOL    HW127211   8.090   1.617   6.374
75124SOL    HW227212   8.120   1.650   6.518
75125SOL     OW27213   0.787  13.631   5.043
75125SOL    HW127214   0.878  13.632   5.015
75125SOL    HW227215   0.762  13.724   5.049
75126SOL     OW27216  11.241   8.220  14.291
75126SOL    HW127217  11.312   8.197  14.230
75126SOL    HW227218  11.163   8.225  14.236
75127SOL     OW27219   2.360  14.512   7.949
75127SOL    HW127220   2.346  14.587   8.007
75127SOL    HW227221   2.299  14.445   7.981
75128SOL     OW27222   7.607  13.434  13.791
75128SOL    HW127223   7.605  13.469  13.880
75128SOL    HW227224   7.664  13.357  13.797
75129SOL     OW27225   3.635  10.885  12.646
75129SOL    HW127226   3.729  10.890  12.631
75129SOL    HW227227   3.625  10.822  12.717
75130SOL     OW27228   9.282   1.204  11.241
75130SOL    HW127229   9.353   1.184  11.301
75130SOL    HW227230   9.299   1.151  11.164
75131SOL     OW27231  10.688  11.891  10.956
75131SOL    HW127232  10.720  11.863  10.870
75131SOL    HW227233  10.757  11.948  10.990
75132SOL     OW27234   9.050   6.986   5.976
75132SOL    HW127235   9.112   7.059   5.982
75132SOL    HW227236   8.989   7.000   6.047
75133SOL     OW27237   5.835  10.790  14.548
75133SOL    HW127238   5.761  10.735  14.574
75133SOL    HW227239   5.808  10.879  14.571
75134SOL     OW27240   6.056   9.027   7.033
75134SOL    HW127241   5.984   8.973   7.066
75134SOL    HW227242   6.035   9.041   6.940
75135SOL     OW27243  13.115  11.091  11.356
75135SOL    HW127244  13.106  11.180  11.389
75135SOL    HW227245  13.108  11.100  11.261
75136SOL     OW27246   5.909  12.808   9.871
75136SOL    HW127247   5.820  12.815   9.907
75136SOL    HW227248   5.933  12.898   9.849
75137SOL     OW27249   6.504  14.657   6.348
75137SOL    HW127250   6.527  14.565   6.360
75137SOL    HW227251   6.487  14.689   6.437
75138SOL     OW27252  13.433  12.596   5.799
75138SOL    HW127253  13.407  12.667   5.858
75138SOL    HW227254  13.475  12.532   5.856
75139SOL     OW27255   0.197  10.955   0.903
75139SOL    HW127256   0.175  10.927   0.814
75139SOL    HW227257   0.113  10.964   0.947
75140SOL     OW27258   0.366   0.245   3.025
75140SOL    HW127259   0.420   0.315   3.063
75140SOL    HW227260   0.282   0.253   3.069
75141SOL     OW27261   4.253   9.038  14.053
75141SOL    HW127262   4.167   9.079  14.063
75141SOL    HW227263   4.246   8.956  14.102
75142SOL     OW27264   7.307  12.633  11.549
75142SOL    HW127265   7.348  12.644  11.463
75142SOL    HW227266   7.294  12.538  11.557
75143SOL     OW27267   3.722   7.106   9.719
75143SOL    HW127268   3.748   7.097   9.627
75143SOL    HW227269   3.642   7.158   9.717
75144SOL     OW27270   3.984   2.578  13.946
75144SOL    HW127271   3.931   2.594  13.868
75144SOL    HW227272   4.031   2.660  13.961
75145SOL     OW27273   6.655   0.646   1.688
75145SOL    HW127274   6.727   0.605   1.641
75145SOL    HW227275   6.605   0.573   1.724
75146SOL     OW27276  13.526  12.092   2.238
75146SOL    HW127277  13.586  12.048   2.298
75146SOL    HW227278  13.480  12.157   2.292
75147SOL     OW27279  10.667  14.830   7.257
75147SOL    HW127280  10.663   0.002   7.173
75147SOL    HW227281  10.759  14.809   7.269
75148SOL     OW27282   8.304  12.412   2.360
75148SOL    HW127283   8.315  12.476   2.290
75148SOL    HW227284   8.236  12.449   2.416
75149SOL     OW27285   0.583   7.436   3.347
75149SOL    HW127286   0.525   7.493   3.295
75149SOL    HW227287   0.576   7.351   3.305
75150SOL     OW27288   5.822  13.046  10.318
75150SOL    HW127289   5.821  13.061  10.224
75150SOL    HW227290   5.732  13.020  10.340
75151SOL     OW27291   1.521  12.393   6.362
75151SOL    HW127292   1.453  12.414   6.297
75151SOL    HW227293   1.489  12.432   6.443
75152SOL     OW27294   6.595   6.532   5.402
75152SOL    HW127295   6.640   6.531   5.318
75152SOL    HW227296   6.504   6.553   5.381
75153SOL     OW27297   7.289   0.091   1.232
75153SOL    HW127298   7.216   0.070   1.291
75153SOL    HW227299   7.266   0.177   1.196
75154SOL     OW27300   5.287   5.671  13.814
75154SOL    HW127301   5.356   5.725  13.851
75154SOL    HW227302   5.215   5.733  13.798
75155SOL     OW27303  13.750   7.856  14.495
75155SOL    HW127304  13.730   7.919  14.426
75155SOL    HW227305  13.738   7.770  14.454
75156SOL     OW27306   9.652  13.722   7.498
75156SOL    HW127307   9.566  13.765   7.502
75156SOL    HW227308   9.663  13.683   7.585
75157SOL     OW27309   3.357   7.875   8.901
75157SOL    HW127310   3.270   7.864   8.939
75157SOL    HW227311   3.370   7.796   8.848
75158SOL     OW27312   4.855   6.870   2.409
75158SOL    HW127313   4.819   6.884   2.322
75158SOL    HW227314   4.818   6.787   2.438
75159SOL     OW27315   7.411  13.378   1.359
75159SOL    HW127316   7.318  13.374   1.339
75159SOL    HW227317   7.421  13.324   1.438
75160SOL     OW27318   4.585   5.522  13.806
75160SOL    HW127319   4.641   5.596  13.832
75160SOL    HW227320   4.598   5.457  13.876
75161SOL     OW27321   5.973   1.599  10.901
75161SOL    HW127322   6.021   1.675  10.935
75161SOL    HW227323   6.002   1.526  10.956
75162SOL     OW27324   2.415   4.518   9.270
75162SOL    HW127325   2.491   4.467   9.243
75162SOL    HW227326   2.350   4.503   9.202
75163SOL     OW27327   3.038   5.487  13.440
75163SOL    HW127328   2.984   5.424  13.394
75163SOL    HW227329   3.102   5.434  13.487
75164SOL     OW27330   8.046   2.905  14.627
75164SOL    HW127331   8.075   2.828  14.577
75164SOL    HW227332   8.028   2.971  14.561
75165SOL     OW27333  10.389   4.357   1.316
75165SOL    HW127334  10.368   4.331   1.405
75165SOL    HW227335  10.482   4.339   1.306
75166SOL     OW27336  14.277   1.706   7.909
75166SOL    HW127337  14.182   1.720   7.907
75166SOL    HW227338  14.286   1.611   7.915
75167SOL     OW27339   3.540   1.123  13.869
75167SOL    HW127340   3.568   1.207  13.834
75167SOL    HW227341   3.618   1.068  13.867
75168SOL     OW27342   1.419  10.101   9.310
75168SOL    HW127343   1.496  10.141   9.270
75168SOL    HW227344   1.439  10.098   9.403
75169SOL     OW27345   7.177   0.144   0.554
75169SOL    HW127346   7.091   0.150   0.596
75169SOL    HW227347   7.157   0.133   0.461
75170SOL     OW27348   1.244   3.169  13.660
75170SOL    HW127349   1.259   3.255  13.701
75170SOL    HW227350   1.187   3.123  13.721
75171SOL     OW27351  10.052   3.884  10.748
75171SOL    HW127352  10.101   3.829  10.808
75171SOL    HW227353  10.061   3.840  10.663
75172SOL     OW27354   1.498  11.483   9.341
75172SOL    HW127355   1.558  11.495   9.267
75172SOL    HW227356   1.542  11.523   9.415
75173SOL     OW27357  10.780  10.527  12.343
75173SOL    HW127358  10.860  10.574  12.367
75173SOL    HW227359  10.728  10.592  12.296
75174SOL     OW27360  11.720   0.066   7.503
75174SOL    HW127361  11.765   0.134   7.453
75174SOL    HW227362  11.743  14.858   7.459
75175SOL     OW27363  11.709   1.953   8.635
75175SOL    HW127364  11.723   1.874   8.687
75175SOL    HW227365  11.792   2.001   8.640
75176SOL     OW27366   1.708   3.878   3.378
75176SOL    HW127367   1.627   3.926   3.397
75176SOL    HW227368   1.775   3.946   3.376
75177SOL     OW27369   5.987  12.428  11.171
75177SOL    HW127370   5.915  12.485  11.197
75177SOL    HW227371   5.952  12.378  11.097
75178SOL     OW27372   1.970   3.938   6.077
75178SOL    HW127373   1.937   3.874   6.013
75178SOL    HW227374   2.029   3.993   6.026
75179SOL     OW27375   0.619   7.619  12.981
75179SOL    HW127376   0.535   7.664  12.971
75179SOL    HW227377   0.682   7.676  12.936
75180SOL     OW27378   2.219   9.632   1.937
75180SOL    HW127379   2.293   9.581   1.973
75180SOL    HW227380   2.260   9.707   1.895
75181SOL     OW27381   7.432   2.124  13.403
75181SOL    HW127382   7.421   2.210  13.361
75181SOL    HW227383   7.351   2.077  13.385
75182SOL     OW27384  12.475   2.316   1.781
75182SOL    HW127385  12.486   2.273   1.866
75182SOL    HW227386  12.450   2.406   1.802
75183SOL     OW27387   0.814   4.101   0.511
75183SOL    HW127388   0.752   4.067   0.576
75183SOL    HW227389   0.813   4.196   0.525
75184SOL     OW27390   4.684   0.190  10.494
75184SOL    HW127391   4.626   0.235  10.432
75184SOL    HW227392   4.749   0.256  10.518
75185SOL     OW27393   4.746  13.898   5.567
75185SOL    HW127394   4.794  13.961   5.621
75185SOL    HW227395   4.811  13.868   5.503
75186SOL     OW27396  10.533  14.778   9.270
75186SOL    HW127397  10.481  14.800   9.192
75186SOL    HW227398  10.599  14.848   9.274
75187SOL     OW27399   6.405  13.888   4.502
75187SOL    HW127400   6.321  13.902   4.546
75187SOL    HW227401   6.411  13.793   4.491
75188SOL     OW27402   1.391   1.982   9.238
75188SOL    HW127403   1.318   2.038   9.215
75188SOL    HW227404   1.468   2.039   9.234
75189SOL     OW27405  11.923  10.100   2.075
75189SOL    HW127406  11.946  10.022   2.024
75189SOL    HW227407  11.918  10.170   2.010
75190SOL     OW27408   5.718   8.413  12.784
75190SOL    HW127409   5.707   8.470  12.861
75190SOL    HW227410   5.656   8.342  12.798
75191SOL     OW27411   7.264   1.756  10.924
75191SOL    HW127412   7.287   1.835  10.874
75191SOL    HW227413   7.313   1.686  10.882
75192SOL     OW27414  12.592   6.455   1.862
75192SOL    HW127415  12.517   6.505   1.892
75192SOL    HW227416  12.661   6.520   1.849
75193SOL     OW27417   3.556  11.734   7.688
75193SOL    HW127418   3.620  11.786   7.737
75193SOL    HW227419   3.553  11.650   7.733
75194SOL     OW27420   0.593  13.390   0.026
75194SOL    HW127421   0.608  13.446  14.824
75194SOL    HW227422   0.559  13.308  14.864
75195SOL     OW27423  11.242   6.333   3.606
75195SOL    HW127424  11.202   6.420   3.596
75195SOL    HW227425  11.302   6.326   3.531
75196SOL     OW27426  11.022  13.916   5.297
75196SOL    HW127427  10.943  13.908   5.352
75196SOL    HW227428  11.070  13.989   5.336
75197SOL     OW27429   2.571   8.641   2.642
75197SOL    HW127430   2.623   8.567   2.673
75197SOL    HW227431   2.485   8.603   2.625
75198SOL     OW27432   5.763   4.780   7.099
75198SOL    HW127433   5.786   4.745   7.185
75198SOL    HW227434   5.804   4.867   7.098
75199SOL     OW27435   0.701  11.037  10.119
75199SOL    HW127436   0.648  11.095  10.175
75199SOL    HW227437   0.689  10.950  10.157
75200SOL     OW27438  11.185  10.990  13.627
75200SOL    HW127439  11.206  10.923  13.692
75200SOL    HW227440  11.176  11.071  13.677
75201SOL     OW27441  10.114   5.358   1.561
75201SOL    HW127442  10.041   5.342   1.621
75201SOL    HW227443  10.097   5.299   1.487
75202SOL     OW27444   8.780  10.142   9.582
75202SOL    HW127445   8.832  10.200   9.637
75202SOL    HW227446   8.823  10.144   9.496
75203SOL     OW27447  13.121   9.025  14.537
75203SOL    HW127448  13.152   9.114  14.523
75203SOL    HW227449  13.128   9.012  14.632
75204SOL     OW27450  14.727   8.316   9.238
75204SOL    HW127451  14.717   8.282   9.149
75204SOL    HW227452  14.748   8.409   9.226
75205SOL     OW27453   0.531   4.533   1.324
75205SOL    HW127454   0.618   4.494   1.321
75205SOL    HW227455   0.534   4.596   1.396
75206SOL     OW27456   8.175   0.359  13.049
75206SOL    HW127457   8.269   0.347  13.059
75206SOL    HW227458   8.165   0.401  12.963
75207SOL     OW27459   7.726   5.766  11.724
75207SOL    HW127460   7.778   5.693  11.691
75207SOL    HW227461   7.776   5.844  11.699
75208SOL     OW27462   8.455   0.606   0.322
75208SOL    HW127463   8.392   0.586   0.392
75208SOL    HW227464   8.486   0.520   0.293
75209SOL     OW27465   2.903   5.883   9.386
75209SOL    HW127466   2.877   5.819   9.453
75209SOL    HW227467   2.997   5.870   9.376
75210SOL     OW27468   3.795   7.569  11.874
75210SOL    HW127469   3.883   7.607  11.871
75210SOL    HW227470   3.806   7.487  11.923
75211SOL     OW27471  12.755   8.574   0.833
75211SOL    HW127472  12.740   8.507   0.766
75211SOL    HW227473  12.669   8.588   0.873
75212SOL     OW27474  12.615   2.970   0.945
75212SOL    HW127475  12.666   2.960   0.864
75212SOL    HW227476  12.658   3.041   0.992
75213SOL     OW27477  10.686   5.678  12.592
75213SOL    HW127478  10.624   5.683  12.664
75213SOL    HW227479  10.656   5.745  12.530
75214SOL     OW27480   8.366   1.478  14.452
75214SOL    HW127481   8.290   1.421  14.443
75214SOL    HW227482   8.437   1.419  14.477
75215SOL     OW27483   2.492  11.193   4.140
75215SOL    HW127484   2.466  11.139   4.065
75215SOL    HW227485   2.498  11.131   4.213
75216SOL     OW27486   4.991   2.270   0.162
75216SOL    HW127487   5.047   2.224   0.224
75216SOL    HW227488   4.924   2.311   0.217
75217SOL     OW27489  14.836   3.626   0.040
75217SOL    HW127490  14.792   3.705   0.006
75217SOL    HW227491  14.830   3.635   0.135
75218SOL     OW27492   4.723  12.328   4.591
75218SOL    HW127493   4.726  12.390   4.518
75218SOL    HW227494   4.630  12.311   4.604
75219SOL     OW27495   9.462  14.452   0.790
75219SOL    HW127496   9.532  14.400   0.749
75219SOL    HW227497   9.418  14.391   0.848
75220SOL     OW27498   8.161  12.743   5.618
75220SOL    HW127499   8.197  12.715   5.533
75220SOL    HW227500   8.068  12.723   5.612
75221SOL     OW27501   1.395   5.329  10.043
75221SOL    HW127502   1.428   5.246  10.078
75221SOL    HW227503   1.469   5.366   9.996
75222SOL     OW27504  10.901  10.142   4.860
75222SOL    HW127505  10.858  10.120   4.943
75222SOL    HW227506  10.845  10.103   4.793
75223SOL     OW27507   0.065   4.719   6.040
75223SOL    HW127508   0.067   4.720   6.135
75223SOL    HW227509  14.851   4.749   6.017
75224SOL     OW27510   7.578  10.646  12.814
75224SOL    HW127511   7.496  10.692  12.796
75224SOL    HW227512   7.586  10.584  12.742
75225SOL     OW27513   5.996   0.623   7.067
75225SOL    HW127514   6.047   0.554   7.026
75225SOL    HW227515   5.968   0.679   6.995
75226SOL     OW27516  13.155   6.306   3.102
75226SOL    HW127517  13.190   6.227   3.143
75226SOL    HW227518  13.200   6.310   3.017
75227SOL     OW27519   1.539  10.207  12.573
75227SOL    HW127520   1.498  10.282  12.617
75227SOL    HW227521   1.485  10.132  12.598
75228SOL     OW27522  14.807   9.430   1.307
75228SOL    HW127523  14.763   9.349   1.285
75228SOL    HW227524  14.764   9.461   1.386
75229SOL     OW27525   5.559   6.996   6.227
75229SOL    HW127526   5.520   7.006   6.140
75229SOL    HW227527   5.491   7.025   6.287
75230SOL     OW27528   2.421  10.381  10.060
75230SOL    HW127529   2.478  10.416   9.991
75230SOL    HW227530   2.347  10.342  10.012
75231SOL     OW27531   8.295  12.046  10.357
75231SOL    HW127532   8.314  11.968  10.304
75231SOL    HW227533   8.204  12.067  10.336
75232SOL     OW27534   4.913  13.567   6.303
75232SOL    HW127535   4.900  13.480   6.341
75232SOL    HW227536   5.005  13.568   6.275
75233SOL     OW27537   5.500   5.099   5.080
75233SOL    HW127538   5.486   5.090   5.174
75233SOL    HW227539   5.526   5.011   5.051
75234SOL     OW27540   1.142   1.966  11.401
75234SOL    HW127541   1.177   1.970  11.312
75234SOL    HW227542   1.066   2.025  11.399
75235SOL     OW27543   8.262  14.294  10.528
75235SOL    HW127544   8.182  14.322  10.483
75235SOL    HW227545   8.299  14.375  10.564
75236SOL     OW27546   1.599   1.759   7.793
75236SOL    HW127547   1.565   1.771   7.881
75236SOL    HW227548   1.544   1.816   7.738
75237SOL     OW27549   5.842   7.743  12.714
75237SOL    HW127550   5.893   7.692  12.778
75237SOL    HW227551   5.791   7.677  12.667
75238SOL     OW27552   4.331   0.622  13.476
75238SOL    HW127553   4.358   0.705  13.517
75238SOL    HW227554   4.382   0.618  13.395
75239SOL     OW27555   2.689  13.172  12.887
75239SOL    HW127556   2.730  13.236  12.829
75239SOL    HW227557   2.609  13.215  12.918
75240SOL     OW27558  13.891  10.834  14.766
75240SOL    HW127559  13.907  10.897  14.837
75240SOL    HW227560  13.843  10.885  14.700
75241SOL     OW27561  13.270   8.378  12.773
75241SOL    HW127562  13.199   8.427  12.730
75241SOL    HW227563  13.264   8.405  12.865
75242SOL     OW27564   5.712  14.391   5.512
75242SOL    HW127565   5.695  14.316   5.456
75242SOL    HW227566   5.632  14.442   5.509
75243SOL     OW27567  12.744   1.791   1.482
75243SOL    HW127568  12.653   1.791   1.511
75243SOL    HW227569  12.745   1.853   1.408
75244SOL     OW27570   0.780   6.200   8.455
75244SOL    HW127571   0.806   6.285   8.418
75244SOL    HW227572   0.848   6.139   8.425
75245SOL     OW27573  14.477   8.398   0.565
75245SOL    HW127574  14.466   8.427   0.474
75245SOL    HW227575  14.536   8.323   0.559
75246SOL     OW27576  10.806  10.289   5.976
75246SOL    HW127577  10.824  10.209   5.926
75246SOL    HW227578  10.870  10.288   6.047
75247SOL     OW27579   5.742   5.672   3.654
75247SOL    HW127580   5.749   5.577   3.661
75247SOL    HW227581   5.745   5.689   3.560
75248SOL     OW27582   6.049  12.221   5.277
75248SOL    HW127583   5.977  12.257   5.328
75248SOL    HW227584   6.116  12.290   5.279
75249SOL     OW27585   5.603  13.650   1.661
75249SOL    HW127586   5.511  13.627   1.675
75249SOL    HW227587   5.600  13.742   1.633
75250SOL     OW27588   9.300   1.799   7.825
75250SOL    HW127589   9.259   1.724   7.783
75250SOL    HW227590   9.390   1.771   7.843
75251SOL     OW27591   2.769   9.579   3.417
75251SOL    HW127592   2.725   9.654   3.376
75251SOL    HW227593   2.701   9.538   3.470
75252SOL     OW27594   0.228  10.876  10.334
75252SOL    HW127595   0.149  10.882  10.280
75252SOL    HW227596   0.201  10.825  10.410
75253SOL     OW27597   4.092   1.063   4.605
75253SOL    HW127598   4.184   1.035   4.602
75253SOL    HW227599   4.093   1.152   4.570
75254SOL     OW27600  11.764   7.486  13.961
75254SOL    HW127601  11.825   7.554  13.933
75254SOL    HW227602  11.820   7.417  13.997
75255SOL     OW27603  13.966   3.044   4.177
75255SOL    HW127604  14.011   3.067   4.096
75255SOL    HW227605  13.972   2.948   4.182
75256SOL     OW27606   7.734   2.756  13.035
75256SOL    HW127607   7.734   2.679  12.978
75256SOL    HW227608   7.658   2.806  13.008
75257SOL     OW27609  12.941  12.238  11.369
75257SOL    HW127610  12.883  12.195  11.306
75257SOL    HW227611  12.902  12.218  11.455
75258SOL     OW27612  10.453  14.483  11.725
75258SOL    HW127613  10.485  14.394  11.733
75258SOL    HW227614  10.498  14.532  11.794
75259SOL     OW27615   6.852   9.000   4.419
75259SOL    HW127616   6.925   9.010   4.480
75259SOL    HW227617   6.836   8.906   4.415
75260SOL     OW27618   6.681  11.900  12.534
75260SOL    HW127619   6.762  11.853  12.515
75260SOL    HW227620   6.703  11.992  12.519
75261SOL     OW27621  13.312  11.398  10.515
75261SOL    HW127622  13.288  11.479  10.470
75261SOL    HW227623  13.341  11.427  10.601
75262SOL     OW27624   1.160   4.937  10.697
75262SOL    HW127625   1.121   4.860  10.655
75262SOL    HW227626   1.254   4.928  10.679
75263SOL     OW27627   7.615   6.484   7.047
75263SOL    HW127628   7.574   6.556   7.094
75263SOL    HW227629   7.696   6.466   7.095
75264SOL     OW27630  10.895   3.783   2.148
75264SOL    HW127631  10.808   3.770   2.185
75264SOL    HW227632  10.882   3.788   2.054
75265SOL     OW27633   4.506  13.815   4.089
75265SOL    HW127634   4.427  13.764   4.110
75265SOL    HW227635   4.517  13.804   3.994
75266SOL     OW27636   8.719   3.632  12.167
75266SOL    HW127637   8.629   3.627  12.136
75266SOL    HW227638   8.712   3.623  12.262
75267SOL     OW27639   2.022   1.860   0.775
75267SOL    HW127640   1.944   1.886   0.727
75267SOL    HW227641   2.094   1.907   0.732
75268SOL     OW27642   5.885   7.826  14.747
75268SOL    HW127643   5.857   7.820  14.655
75268SOL    HW227644   5.826   7.768  14.794
75269SOL     OW27645   5.793  12.652   7.976
75269SOL    HW127646   5.827  12.621   7.892
75269SOL    HW227647   5.859  12.625   8.040
75270SOL     OW27648   5.023   2.663  13.403
75270SOL    HW127649   5.102   2.716  13.395
75270SOL    HW227650   5.026   2.605  13.327
75271SOL     OW27651   3.463  13.906  13.822
75271SOL    HW127652   3.485  13.992  13.786
75271SOL    HW227653   3.464  13.847  13.746
75272SOL     OW27654  10.030  10.764  13.492
75272SOL    HW127655   9.980  10.827  13.545
75272SOL    HW227656   9.975  10.686  13.491
75273SOL     OW27657  11.723   6.493  14.647
75273SOL    HW127658  11.815   6.513  14.666
75273SOL    HW227659  11.700   6.549  14.574
75274SOL     OW27660   5.064   9.523   9.704
75274SOL    HW127661   4.984   9.560   9.742
75274SOL    HW227662   5.047   9.519   9.610
75275SOL     OW27663   0.906   5.643   8.897
75275SOL    HW127664   0.836   5.585   8.926
75275SOL    HW227665   0.986   5.597   8.922
75276SOL     OW27666   3.019   3.878  10.464
75276SOL    HW127667   3.062   3.932  10.398
75276SOL    HW227668   2.944   3.930  10.493
75277SOL     OW27669  12.019  13.601   5.557
75277SOL    HW127670  11.995  13.509   5.567
75277SOL    HW227671  12.115  13.601   5.561
75278SOL     OW27672   0.136   3.955  12.012
75278SOL    HW127673   0.225   3.920  12.018
75278SOL    HW227674   0.085   3.901  12.073
75279SOL     OW27675  12.882   6.408  14.191
75279SOL    HW127676  12.833   6.396  14.272
75279SOL    HW227677  12.816   6.412  14.122
75280SOL     OW27678   3.862  12.826  12.421
75280SOL    HW127679   3.874  12.783  12.506
75280SOL    HW227680   3.923  12.781  12.362
75281SOL     OW27681   0.058   0.499  10.321
75281SOL    HW127682  14.852   0.522  10.273
75281SOL    HW227683   0.124   0.560  10.287
75282SOL     OW27684  10.708   0.177   2.826
75282SOL    HW127685  10.786   0.157   2.878
75282SOL    HW227686  10.639   0.124   2.867
75283SOL     OW27687   9.034   1.448  14.271
75283SOL    HW127688   9.022   1.355  14.287
75283SOL    HW227689   9.129   1.461  14.274
75284SOL     OW27690   4.313   5.660  13.789
75284SOL    HW127691   4.352   5.683  13.704
75284SOL    HW227692   4.379   5.605  13.831
75285SOL     OW27693   5.410   2.902   2.179
75285SOL    HW127694   5.366   2.837   2.235
75285SOL    HW227695   5.477   2.940   2.235
75286SOL     OW27696   5.851  11.568   6.691
75286SOL    HW127697   5.886  11.491   6.734
75286SOL    HW227698   5.854  11.636   6.759
75287SOL     OW27699   9.152   1.717  11.338
75287SOL    HW127700   9.094   1.790  11.362
75287SOL    HW227701   9.130   1.698  11.247
75288SOL     OW27702   5.414   1.199   9.698
75288SOL    HW127703   5.494   1.155   9.669
75288SOL    HW227704   5.402   1.272   9.638
75289SOL     OW27705   6.630  13.217  12.853
75289SOL    HW127706   6.627  13.122  12.869
75289SOL    HW227707   6.680  13.252  12.926
75290SOL     OW27708  14.364   5.579  14.121
75290SOL    HW127709  14.302   5.542  14.057
75290SOL    HW227710  14.338   5.540  14.204
75291SOL     OW27711   0.100   7.914  13.719
75291SOL    HW127712   0.176   7.876  13.675
75291SOL    HW227713   0.131   7.933  13.808
75292SOL     OW27714  12.004  11.264  12.340
75292SOL    HW127715  11.958  11.282  12.422
75292SOL    HW227716  12.046  11.179  12.354
75293SOL     OW27717   7.782  11.598   9.180
75293SOL    HW127718   7.765  11.513   9.140
75293SOL    HW227719   7.873  11.617   9.158
75294SOL     OW27720  10.771   1.666   1.463
75294SOL    HW127721  10.857   1.647   1.501
75294SOL    HW227722  10.775   1.758   1.439
75295SOL     OW27723   9.229   1.091   4.676
75295SOL    HW127724   9.232   1.082   4.580
75295SOL    HW227725   9.228   1.001   4.708
75296SOL     OW27726   7.886   2.747  13.456
75296SOL    HW127727   7.811   2.782  13.409
75296SOL    HW227728   7.852   2.669  13.500
75297SOL     OW27729   0.345   9.724   6.986
75297SOL    HW127730   0.249   9.728   6.991
75297SOL    HW227731   0.364   9.632   6.965
75298SOL     OW27732  13.853  13.640   4.993
75298SOL    HW127733  13.773  13.679   5.027
75298SOL    HW227734  13.857  13.669   4.902
75299SOL     OW27735  13.540   5.539   4.512
75299SOL    HW127736  13.575   5.508   4.596
75299SOL    HW227737  13.617   5.569   4.463
75300SOL     OW27738  13.365   4.655   5.586
75300SOL    HW127739  13.297   4.701   5.537
75300SOL    HW227740  13.335   4.564   5.592
75301SOL     OW27741   7.670  10.818   1.604
75301SOL    HW127742   7.727  10.746   1.578
75301SOL    HW227743   7.611  10.830   1.530
75302SOL     OW27744   2.008   8.065  11.335
75302SOL    HW127745   2.022   8.151  11.375
75302SOL    HW227746   1.948   8.082  11.262
75303SOL     OW27747   6.375  10.827   8.428
75303SOL    HW127748   6.443  10.787   8.481
75303SOL    HW227749   6.371  10.774   8.349
75304SOL     OW27750  11.273   0.568  11.711
75304SOL    HW127751  11.190   0.521  11.716
75304SOL    HW227752  11.263   0.643  11.769
75305SOL     OW27753   0.129   7.629   9.221
75305SOL    HW127754   0.175   7.707   9.252
75305SOL    HW227755   0.038   7.657   9.210
75306SOL     OW27756  11.843   8.334   5.709
75306SOL    HW127757  11.890   8.295   5.635
75306SOL    HW227758  11.871   8.283   5.785
75307SOL     OW27759   8.312   7.299   9.042
75307SOL    HW127760   8.228   7.299   8.996
75307SOL    HW227761   8.377   7.317   8.973
75308SOL     OW27762   4.469   1.072   0.941
75308SOL    HW127763   4.465   1.080   1.037
75308SOL    HW227764   4.396   1.126   0.910
75309SOL     OW27765   0.930  14.695   4.219
75309SOL    HW127766   0.930  14.698   4.315
75309SOL    HW227767   0.906  14.784   4.193
75310SOL     OW27768  12.646  13.258  12.012
75310SOL    HW127769  12.590  13.233  12.085
75310SOL    HW227770  12.683  13.176  11.980
75311SOL     OW27771  13.018   7.825   6.596
75311SOL    HW127772  12.995   7.742   6.637
75311SOL    HW227773  12.971   7.825   6.513
75312SOL     OW27774  11.325  11.076   8.772
75312SOL    HW127775  11.394  11.091   8.837
75312SOL    HW227776  11.365  11.018   8.708
75313SOL     OW27777   1.741   2.793   4.386
75313SOL    HW127778   1.674   2.731   4.416
75313SOL    HW227779   1.711   2.821   4.300
75314SOL     OW27780   1.338   2.121   2.526
75314SOL    HW127781   1.395   2.053   2.490
75314SOL    HW227782   1.390   2.202   2.519
75315SOL     OW27783   6.742   2.957   1.347
75315SOL    HW127784   6.776   3.045   1.365
75315SOL    HW227785   6.815   2.912   1.304
75316SOL     OW27786   0.029   4.255  12.392
75316SOL    HW127787   0.109   4.209  12.417
75316SOL    HW227788   0.045   4.283  12.302
75317SOL     OW27789  13.801   7.667   9.541
75317SOL    HW127790  13.706   7.673   9.546
75317SOL    HW227791  13.832   7.698   9.626
75318SOL     OW27792   6.690   6.013   7.889
75318SOL    HW127793   6.648   6.094   7.916
75318SOL    HW227794   6.652   5.946   7.945
75319SOL     OW27795  11.472  11.091   4.713
75319SOL    HW127796  11.444  11.147   4.785
75319SOL    HW227797  11.391  11.058   4.675
75320SOL     OW27798   2.713   6.549   4.970
75320SOL    HW127799   2.731   6.467   5.016
75320SOL    HW227800   2.642   6.527   4.909
75321SOL     OW27801   6.025   6.625   3.117
75321SOL    HW127802   6.010   6.704   3.065
75321SOL    HW227803   6.076   6.655   3.192
75322SOL     OW27804   5.488  10.736  12.596
75322SOL    HW127805   5.440  10.788  12.661
75322SOL    HW227806   5.493  10.792  12.519
75323SOL     OW27807   9.729   5.002   2.469
75323SOL    HW127808   9.756   5.063   2.537
75323SOL    HW227809   9.764   4.917   2.497
75324SOL     OW27810   3.498  11.886  14.489
75324SOL    HW127811   3.584  11.866  14.528
75324SOL    HW227812   3.513  11.881  14.394
75325SOL     OW27813   6.420   3.979   2.262
75325SOL    HW127814   6.331   4.014   2.250
75325SOL    HW227815   6.464   3.996   2.179
75326SOL     OW27816   3.173   4.974   8.398
75326SOL    HW127817   3.189   4.890   8.441
75326SOL    HW227818   3.254   4.994   8.352
75327SOL     OW27819   3.651  12.350   5.468
75327SOL    HW127820   3.562  12.362   5.502
75327SOL    HW227821   3.703  12.328   5.546
75328SOL     OW27822   6.422   6.472   2.269
75328SOL    HW127823   6.495   6.494   2.211
75328SOL    HW227824   6.368   6.552   2.270
75329SOL     OW27825   3.587  13.291   0.117
75329SOL    HW127826   3.557  13.376   0.084
75329SOL    HW227827   3.528  13.228   0.077
75330SOL     OW27828   5.169   0.985   1.689
75330SOL    HW127829   5.144   1.075   1.709
75330SOL    HW227830   5.240   0.966   1.750
75331SOL     OW27831   3.475  13.624   2.582
75331SOL    HW127832   3.552  13.570   2.599
75331SOL    HW227833   3.408  13.591   2.642
75332SOL     OW27834  12.243   8.884  12.390
75332SOL    HW127835  12.222   8.978  12.393
75332SOL    HW227836  12.263   8.861  12.481
75333SOL     OW27837   0.925   3.369   0.668
75333SOL    HW127838   0.868   3.328   0.604
75333SOL    HW227839   1.011   3.373   0.625
75334SOL     OW27840   8.419   1.236   8.271
75334SOL    HW127841   8.449   1.324   8.246
75334SOL    HW227842   8.333   1.250   8.311
75335SOL     OW27843  10.260   7.937  10.164
75335SOL    HW127844  10.329   7.875  10.142
75335SOL    HW227845  10.195   7.886  10.213
75336SOL     OW27846   3.433   4.589   5.764
75336SOL    HW127847   3.339   4.598   5.746
75336SOL    HW227848   3.439   4.516   5.825
75337SOL     OW27849   7.077  13.382  11.183
75337SOL    HW127850   7.041  13.300  11.217
75337SOL    HW227851   7.010  13.447  11.203
75338SOL     OW27852  13.434   2.979   8.110
75338SOL    HW127853  13.437   3.071   8.083
75338SOL    HW227854  13.341   2.960   8.121
75339SOL     OW27855  12.006  10.901  14.585
75339SOL    HW127856  12.100  10.883  14.588
75339SOL    HW227857  11.997  10.991  14.615
75340SOL     OW27858  12.446   6.613  13.431
75340SOL    HW127859  12.370   6.569  13.393
75340SOL    HW227860  12.450   6.580  13.521
75341SOL     OW27861  10.647   1.978   5.406
75341SOL    HW127862  10.714   1.933   5.353
75341SOL    HW227863  10.672   1.959   5.497
75342SOL     OW27864   0.717   8.670  11.366
75342SOL    HW127865   0.779   8.599  11.353
75342SOL    HW227866   0.767   8.749  11.344
75343SOL     OW27867   3.683   9.015  11.183
75343SOL    HW127868   3.733   9.050  11.110
75343SOL    HW227869   3.675   9.087  11.245
75344SOL     OW27870  11.183   7.264   3.695
75344SOL    HW127871  11.142   7.279   3.780
75344SOL    HW227872  11.170   7.171   3.678
75345SOL     OW27873   7.649   6.669   9.973
75345SOL    HW127874   7.574   6.649   9.916
75345SOL    HW227875   7.630   6.756  10.007
75346SOL     OW27876   5.470   2.250  12.810
75346SOL    HW127877   5.521   2.214  12.882
75346SOL    HW227878   5.488   2.344  12.812
75347SOL     OW27879   0.873   8.794   1.292
75347SOL    HW127880   0.936   8.725   1.271
75347SOL    HW227881   0.801   8.780   1.231
75348SOL     OW27882   7.678  10.283   3.079
75348SOL    HW127883   7.653  10.195   3.053
75348SOL    HW227884   7.612  10.340   3.038
75349SOL     OW27885   6.828   8.924   2.902
75349SOL    HW127886   6.904   8.982   2.910
75349SOL    HW227887   6.851   8.864   2.831
75350SOL     OW27888  11.372   6.649   9.060
75350SOL    HW127889  11.295   6.650   9.004
75350SOL    HW227890  11.380   6.559   9.089
75351SOL     OW27891   3.428   8.975   3.686
75351SOL    HW127892   3.421   8.971   3.781
75351SOL    HW227893   3.342   9.005   3.656
75352SOL     OW27894   7.869   3.944   8.919
75352SOL    HW127895   7.918   3.979   8.994
75352SOL    HW227896   7.792   4.000   8.913
75353SOL     OW27897   5.348  14.056   6.985
75353SOL    HW127898   5.312  14.108   7.056
75353SOL    HW227899   5.443  14.065   6.993
75354SOL     OW27900   9.716   7.558   0.100
75354SOL    HW127901   9.730   7.538   0.193
75354SOL    HW227902   9.719   7.472   0.057
75355SOL     OW27903  11.327   3.567  12.324
75355SOL    HW127904  11.379   3.507  12.379
75355SOL    HW227905  11.315   3.645  12.378
75356SOL     OW27906  12.878  14.694   1.005
75356SOL    HW127907  12.841  14.657   0.925
75356SOL    HW227908  12.868  14.625   1.071
75357SOL     OW27909   6.999   7.682  14.359
75357SOL    HW127910   7.055   7.677  14.282
75357SOL    HW227911   7.055   7.721  14.427
75358SOL     OW27912  14.779   0.858   1.796
75358SOL    HW127913  14.699   0.810   1.777
75358SOL    HW227914  14.843   0.790   1.816
75359SOL     OW27915   4.358  13.717   0.282
75359SOL    HW127916   4.286  13.666   0.318
75359SOL    HW227917   4.417  13.730   0.356
75360SOL     OW27918   0.269  13.080  14.041
75360SOL    HW127919   0.176  13.093  14.026
75360SOL    HW227920   0.295  13.152  14.099
75361SOL     OW27921   3.061   0.169   8.240
75361SOL    HW127922   3.026   0.257   8.254
75361SOL    HW227923   3.080   0.136   8.328
75362SOL     OW27924   4.916   3.480   3.984
75362SOL    HW127925   4.931   3.392   4.020
75362SOL    HW227926   4.941   3.539   4.054
75363SOL     OW27927   0.011   9.414  12.948
75363SOL    HW127928   0.025   9.408  13.042
75363SOL    HW227929   0.021   9.324  12.916
75364SOL     OW27930   7.025  12.935  13.742
75364SOL    HW127931   6.933  12.918  13.726
75364SOL    HW227932   7.038  12.914  13.835
75365SOL     OW27933  13.375   4.496   9.411
75365SOL    HW127934  13.452   4.444   9.391
75365SOL    HW227935  13.406   4.587   9.413
75366SOL     OW27936  11.825   7.635   0.973
75366SOL    HW127937  11.787   7.686   0.901
75366SOL    HW227938  11.766   7.649   1.046
75367SOL     OW27939   0.787   1.168   7.883
75367SOL    HW127940   0.858   1.231   7.893
75367SOL    HW227941   0.818   1.108   7.815
75368SOL     OW27942   7.783   2.695   7.542
75368SOL    HW127943   7.739   2.725   7.621
75368SOL    HW227944   7.713   2.685   7.477
75369SOL     OW27945  12.898   5.642   1.103
75369SOL    HW127946  12.901   5.731   1.138
75369SOL    HW227947  12.844   5.650   1.024
75370SOL     OW27948   2.796  11.295   0.729
75370SOL    HW127949   2.706  11.270   0.711
75370SOL    HW227950   2.844  11.211   0.729
75371SOL     OW27951   1.433   1.435   2.778
75371SOL    HW127952   1.378   1.509   2.754
75371SOL    HW227953   1.452   1.392   2.695
75372SOL     OW27954   0.289   4.764   9.009
75372SOL    HW127955   0.237   4.797   8.935
75372SOL    HW227956   0.238   4.690   9.043
75373SOL     OW27957   2.396  10.455  12.493
75373SOL    HW127958   2.378  10.533  12.546
75373SOL    HW227959   2.328  10.456  12.426
75374SOL     OW27960  14.782   7.635   2.318
75374SOL    HW127961  14.690   7.621   2.340
75374SOL    HW227962  14.784   7.718   2.271
75375SOL     OW27963   0.634  11.851   0.108
75375SOL    HW127964   0.544  11.876   0.130
75375SOL    HW227965   0.647  11.768   0.154
75376SOL     OW27966   2.003  10.416   0.491
75376SOL    HW127967   2.087  10.461   0.486
75376SOL    HW227968   1.957  10.458   0.564
75377SOL     OW27969   4.868   5.060   4.534
75377SOL    HW127970   4.886   5.134   4.592
75377SOL    HW227971   4.799   5.091   4.477
75378SOL     OW27972   9.136   3.911  12.996
75378SOL    HW127973   9.044   3.929  12.973
75378SOL    HW227974   9.139   3.923  13.091
75379SOL     OW27975   9.015  14.819  10.227
75379SOL    HW127976   9.027   0.033  10.263
75379SOL    HW227977   8.952  14.831  10.155
75380SOL     OW27978   4.987   6.366   4.179
75380SOL    HW127979   5.060   6.417   4.214
75380SOL    HW227980   5.026   6.281   4.157
75381SOL     OW27981  12.632   1.373   2.352
75381SOL    HW127982  12.711   1.331   2.385
75381SOL    HW227983  12.605   1.433   2.422
75382SOL     OW27984  13.768   7.468   6.993
75382SOL    HW127985  13.774   7.378   7.024
75382SOL    HW227986  13.780   7.522   7.072
75383SOL     OW27987   5.514   2.449   5.293
75383SOL    HW127988   5.608   2.444   5.279
75383SOL    HW227989   5.476   2.413   5.213
75384SOL     OW27990   0.539   9.749  12.650
75384SOL    HW127991   0.536   9.654  12.661
75384SOL    HW227992   0.561   9.782  12.737
75385SOL     OW27993   1.165   2.788   0.772
75385SOL    HW127994   1.087   2.733   0.776
75385SOL    HW227995   1.231   2.738   0.821
75386SOL     OW27996   3.534   3.469   4.128
75386SOL    HW127997   3.463   3.447   4.068
75386SOL    HW227998   3.490   3.495   4.209
75387SOL     OW27999   8.184   7.626  12.152
75387SOL    HW128000   8.152   7.582  12.073
75387SOL    HW228001   8.121   7.696  12.168
75388SOL     OW28002   4.197  14.693  14.603
75388SOL    HW128003   4.191  14.778  14.561
75388SOL    HW228004   4.175  14.710  14.695
75389SOL     OW28005  10.584   9.041   6.574
75389SOL    HW128006  10.634   9.081   6.504
75389SOL    HW228007  10.649   9.000   6.631
75390SOL     OW28008   4.320   8.509   0.848
75390SOL    HW128009   4.312   8.575   0.916
75390SOL    HW228010   4.236   8.510   0.803
75391SOL     OW28011   4.817  12.398   9.465
75391SOL    HW128012   4.855  12.461   9.526
75391SOL    HW228013   4.885  12.332   9.452
75392SOL     OW28014   8.378   9.257   2.264
75392SOL    HW128015   8.384   9.220   2.175
75392SOL    HW228016   8.367   9.351   2.250
75393SOL     OW28017  10.402   7.843  11.271
75393SOL    HW128018  10.461   7.902  11.317
75393SOL    HW228019  10.460   7.776  11.234
75394SOL     OW28020   7.584  10.472  14.620
75394SOL    HW128021   7.518  10.478  14.690
75394SOL    HW228022   7.637  10.396  14.645
75395SOL     OW28023   1.260   0.654   6.867
75395SOL    HW128024   1.236   0.648   6.960
75395SOL    HW228025   1.347   0.693   6.867
75396SOL     OW28026   1.790  11.649   1.704
75396SOL    HW128027   1.702  11.655   1.743
75396SOL    HW228028   1.830  11.574   1.746
75397SOL     OW28029   9.463   2.423  13.608
75397SOL    HW128030   9.541   2.368  13.616
75397SOL    HW228031   9.492   2.510  13.633
75398SOL     OW28032   5.703   8.085   2.666
75398SOL    HW128033   5.723   8.169   2.624
75398SOL    HW228034   5.762   8.080   2.740
75399SOL     OW28035  10.811  11.376  14.479
75399SOL    HW128036  10.862  11.400  14.556
75399SOL    HW228037  10.731  11.337  14.514
75400SOL     OW28038   6.404   0.603  14.641
75400SOL    HW128039   6.324   0.558  14.668
75400SOL    HW228040   6.429   0.656  14.716
75401SOL     OW28041  10.876   8.403   7.952
75401SOL    HW128042  10.802   8.461   7.941
75401SOL    HW228043  10.904   8.417   8.043
75402SOL     OW28044   2.561   9.133   3.022
75402SOL    HW128045   2.530   9.048   3.054
75402SOL    HW228046   2.530   9.137   2.932
75403SOL     OW28047  11.520   9.538  12.002
75403SOL    HW128048  11.572   9.469  11.959
75403SOL    HW228049  11.556   9.543  12.090
75404SOL     OW28050  12.542   1.327  11.175
75404SOL    HW128051  12.472   1.266  11.149
75404SOL    HW228052  12.515   1.411  11.137
75405SOL     OW28053   5.531   3.046  14.279
75405SOL    HW128054   5.575   3.126  14.252
75405SOL    HW228055   5.554   3.035  14.371
75406SOL     OW28056  13.278  10.202   3.912
75406SOL    HW128057  13.231  10.118   3.913
75406SOL    HW228058  13.344  10.192   3.981
75407SOL     OW28059   8.751   1.544  12.947
75407SOL    HW128060   8.814   1.616  12.945
75407SOL    HW228061   8.680   1.576  13.003
75408SOL     OW28062  11.529  12.221   3.218
75408SOL    HW128063  11.469  12.281   3.174
75408SOL    HW228064  11.615  12.263   3.210
75409SOL     OW28065   8.859  10.779   7.198
75409SOL    HW128066   8.902  10.723   7.263
75409SOL    HW228067   8.771  10.793   7.234
75410SOL     OW28068  12.118  14.425  11.132
75410SOL    HW128069  12.099  14.409  11.225
75410SOL    HW228070  12.108  14.519  11.122
75411SOL     OW28071   0.362   2.879   6.981
75411SOL    HW128072   0.401   2.815   6.922
75411SOL    HW228073   0.270   2.851   6.988
75412SOL     OW28074   3.425   7.504   8.016
75412SOL    HW128075   3.422   7.510   8.112
75412SOL    HW228076   3.517   7.516   7.994
75413SOL     OW28077  10.645  14.390   7.165
75413SOL    HW128078  10.677  14.406   7.076
75413SOL    HW228079  10.577  14.456   7.177
75414SOL     OW28080  13.245  13.235  14.251
75414SOL    HW128081  13.168  13.177  14.248
75414SOL    HW228082  13.290  13.217  14.169
75415SOL     OW28083   1.367   4.654   4.879
75415SOL    HW128084   1.386   4.699   4.962
75415SOL    HW228085   1.288   4.696   4.846
75416SOL     OW28086   3.253   6.918   1.622
75416SOL    HW128087   3.210   6.977   1.560
75416SOL    HW228088   3.207   6.933   1.705
75417SOL     OW28089   2.623   7.684   0.281
75417SOL    HW128090   2.676   7.625   0.334
75417SOL    HW228091   2.547   7.703   0.335
75418SOL     OW28092  11.410  10.087   9.979
75418SOL    HW128093  11.497  10.127   9.981
75418SOL    HW228094  11.393  10.063  10.070
75419SOL     OW28095   1.346   5.966  13.609
75419SOL    HW128096   1.276   5.975  13.673
75419SOL    HW228097   1.327   6.034  13.544
75420SOL     OW28098   1.356   0.166   6.613
75420SOL    HW128099   1.407   0.247   6.614
75420SOL    HW228100   1.267   0.195   6.595
75421SOL     OW28101   8.515   6.239  11.797
75421SOL    HW128102   8.555   6.202  11.718
75421SOL    HW228103   8.421   6.234  11.781
75422SOL     OW28104   7.870   8.436   4.295
75422SOL    HW128105   7.906   8.351   4.319
75422SOL    HW228106   7.854   8.480   4.378
75423SOL     OW28107   6.257   3.899   1.180
75423SOL    HW128108   6.344   3.863   1.162
75423SOL    HW228109   6.255   3.910   1.275
75424SOL     OW28110   1.341   4.336   0.688
75424SOL    HW128111   1.291   4.307   0.611
75424SOL    HW228112   1.275   4.354   0.754
75425SOL     OW28113  10.181  12.383  14.811
75425SOL    HW128114  10.246  12.450  14.790
75425SOL    HW228115  10.193  12.367   0.031
75426SOL     OW28116   5.020  11.707   3.351
75426SOL    HW128117   5.071  11.753   3.284
75426SOL    HW228118   4.930  11.713   3.321
75427SOL     OW28119   0.823   5.461  14.320
75427SOL    HW128120   0.739   5.507  14.309
75427SOL    HW228121   0.848   5.478  14.410
75428SOL     OW28122  14.784   6.504   6.377
75428SOL    HW128123  14.735   6.463   6.307
75428SOL    HW228124  14.823   6.431   6.425
75429SOL     OW28125  13.148   6.444   2.277
75429SOL    HW128126  13.238   6.415   2.294
75429SOL    HW228127  13.135   6.429   2.183
75430SOL     OW28128   1.484   0.886   8.605
75430SOL    HW128129   1.546   0.852   8.541
75430SOL    HW228130   1.535   0.947   8.658
75431SOL     OW28131  12.604   0.302   0.193
75431SOL    HW128132  12.594   0.222   0.244
75431SOL    HW228133  12.515   0.327   0.168
75432SOL     OW28134   1.940  11.119   9.905
75432SOL    HW128135   2.005  11.147   9.840
75432SOL    HW228136   1.968  11.031   9.931
75433SOL     OW28137  12.353   5.162   3.875
75433SOL    HW128138  12.370   5.069   3.863
75433SOL    HW228139  12.304   5.167   3.957
75434SOL     OW28140   1.293  12.998   7.791
75434SOL    HW128141   1.342  13.068   7.746
75434SOL    HW228142   1.203  13.029   7.790
75435SOL     OW28143   5.712   5.397   8.926
75435SOL    HW128144   5.648   5.352   8.870
75435SOL    HW228145   5.711   5.488   8.896
75436SOL     OW28146  13.366   9.012  12.042
75436SOL    HW128147  13.421   9.005  11.964
75436SOL    HW228148  13.279   8.984  12.012
75437SOL     OW28149  13.373   5.468   3.253
75437SOL    HW128150  13.321   5.392   3.226
75437SOL    HW228151  13.308   5.537   3.267
75438SOL     OW28152   6.057   6.483   0.801
75438SOL    HW128153   6.092   6.514   0.885
75438SOL    HW228154   6.008   6.404   0.823
75439SOL     OW28155  14.514   4.794   4.968
75439SOL    HW128156  14.588   4.855   4.966
75439SOL    HW228157  14.504   4.767   4.876
75440SOL     OW28158   0.518   1.917   9.099
75440SOL    HW128159   0.604   1.920   9.057
75440SOL    HW228160   0.491   1.825   9.092
75441SOL     OW28161   6.922  11.980  11.478
75441SOL    HW128162   7.013  11.970  11.506
75441SOL    HW228163   6.902  11.900  11.431
75442SOL     OW28164   5.941  11.050  10.403
75442SOL    HW128165   5.970  11.046  10.494
75442SOL    HW228166   5.992  11.122  10.365
75443SOL     OW28167  10.937   4.307   9.765
75443SOL    HW128168  10.953   4.251   9.689
75443SOL    HW228169  10.927   4.246   9.838
75444SOL     OW28170   5.973   7.966   2.212
75444SOL    HW128171   6.018   7.991   2.293
75444SOL    HW228172   5.883   7.994   2.225
75445SOL     OW28173   4.701  12.006  12.011
75445SOL    HW128174   4.663  12.011  11.923
75445SOL    HW228175   4.641  12.056  12.066
75446SOL     OW28176   3.721   4.452   0.835
75446SOL    HW128177   3.632   4.482   0.854
75446SOL    HW228178   3.709   4.365   0.797
75447SOL     OW28179   5.133   1.571   8.316
75447SOL    HW128180   5.101   1.619   8.240
75447SOL    HW228181   5.054   1.539   8.359
75448SOL     OW28182   2.755   1.173  10.545
75448SOL    HW128183   2.713   1.123  10.615
75448SOL    HW228184   2.795   1.106  10.489
75449SOL     OW28185  14.695   7.579  10.585
75449SOL    HW128186  14.774   7.526  10.577
75449SOL    HW228187  14.679   7.584  10.679
75450SOL     OW28188   1.375  11.444   6.438
75450SOL    HW128189   1.401  11.492   6.359
75450SOL    HW228190   1.424  11.362   6.433
75451SOL     OW28191   4.547   4.192  10.237
75451SOL    HW128192   4.533   4.194  10.332
75451SOL    HW228193   4.641   4.210  10.226
75452SOL     OW28194   8.079   2.978  11.453
75452SOL    HW128195   8.170   3.007  11.442
75452SOL    HW228196   8.072   2.901  11.396
75453SOL     OW28197   5.658   7.759   1.242
75453SOL    HW128198   5.572   7.719   1.226
75453SOL    HW228199   5.667   7.826   1.175
75454SOL     OW28200   0.571   6.930  13.995
75454SOL    HW128201   0.600   6.935  13.904
75454SOL    HW228202   0.553   7.020  14.020
75455SOL     OW28203   5.932   3.295   4.265
75455SOL    HW128204   5.968   3.249   4.341
75455SOL    HW228205   5.838   3.290   4.277
75456SOL     OW28206   6.341   2.021   6.743
75456SOL    HW128207   6.320   1.950   6.804
75456SOL    HW228208   6.256   2.053   6.713
75457SOL     OW28209  10.678   7.264  13.189
75457SOL    HW128210  10.728   7.204  13.245
75457SOL    HW228211  10.663   7.215  13.109
75458SOL     OW28212   6.304   3.717   5.540
75458SOL    HW128213   6.315   3.768   5.459
75458SOL    HW228214   6.232   3.658   5.521
75459SOL     OW28215   6.628   2.241  10.149
75459SOL    HW128216   6.538   2.242  10.182
75459SOL    HW228217   6.641   2.330  10.114
75460SOL     OW28218  12.798   1.308   9.162
75460SOL    HW128219  12.720   1.268   9.200
75460SOL    HW228220  12.857   1.235   9.144
75461SOL     OW28221   1.732  12.451  13.205
75461SOL    HW128222   1.697  12.436  13.293
75461SOL    HW228223   1.687  12.529  13.174
75462SOL     OW28224   9.144   0.862   1.843
75462SOL    HW128225   9.196   0.865   1.762
75462SOL    HW228226   9.054   0.847   1.814
75463SOL     OW28227   6.907  11.088   3.209
75463SOL    HW128228   6.834  11.044   3.166
75463SOL    HW228229   6.964  11.115   3.136
75464SOL     OW28230  10.762  13.448   5.571
75464SOL    HW128231  10.734  13.433   5.480
75464SOL    HW228232  10.708  13.521   5.601
75465SOL     OW28233  14.347   9.874  12.846
75465SOL    HW128234  14.327   9.781  12.832
75465SOL    HW228235  14.319   9.891  12.936
75466SOL     OW28236  10.525  11.983   5.233
75466SOL    HW128237  10.497  11.975   5.141
75466SOL    HW228238  10.474  11.918   5.280
75467SOL     OW28239  10.233   5.711   7.726
75467SOL    HW128240  10.283   5.658   7.664
75467SOL    HW228241  10.228   5.657   7.805
75468SOL     OW28242   9.578  11.485   0.113
75468SOL    HW128243   9.670  11.508   0.103
75468SOL    HW228244   9.574  11.435   0.194
75469SOL     OW28245   6.113   0.077   9.638
75469SOL    HW128246   6.106  14.869   9.687
75469SOL    HW228247   6.033   0.080   9.586
75470SOL     OW28248   3.610  10.865   9.028
75470SOL    HW128249   3.606  10.846   8.934
75470SOL    HW228250   3.696  10.834   9.055
75471SOL     OW28251   2.575  12.690   1.507
75471SOL    HW128252   2.581  12.623   1.575
75471SOL    HW228253   2.655  12.680   1.455
75472SOL     OW28254  12.254  11.229  12.016
75472SOL    HW128255  12.257  11.151  12.072
75472SOL    HW228256  12.161  11.244  12.000
75473SOL     OW28257   1.486   5.539   6.259
75473SOL    HW128258   1.492   5.607   6.326
75473SOL    HW228259   1.394   5.513   6.260
75474SOL     OW28260  13.368   4.423  12.049
75474SOL    HW128261  13.434   4.490  12.033
75474SOL    HW228262  13.324   4.452  12.129
75475SOL     OW28263  13.455  13.475  10.243
75475SOL    HW128264  13.362  13.466  10.222
75475SOL    HW228265  13.457  13.481  10.339
75476SOL     OW28266   5.311   2.126   4.392
75476SOL    HW128267   5.277   2.192   4.332
75476SOL    HW228268   5.251   2.052   4.383
75477SOL     OW28269   5.443   4.053   4.469
75477SOL    HW128270   5.522   4.006   4.494
75477SOL    HW228271   5.417   4.014   4.385
75478SOL     OW28272   0.048   8.436  12.273
75478SOL    HW128273   0.043   8.512  12.332
75478SOL    HW228274   0.101   8.372  12.321
75479SOL     OW28275   2.851   0.562   0.016
75479SOL    HW128276   2.816   0.479  14.859
75479SOL    HW228277   2.902   0.596  14.817
75480SOL     OW28278   0.165  12.163  13.635
75480SOL    HW128279   0.194  12.252  13.617
75480SOL    HW228280   0.086  12.173  13.689
75481SOL     OW28281   3.809   9.785   6.968
75481SOL    HW128282   3.877   9.832   7.016
75481SOL    HW228283   3.743   9.851   6.949
75482SOL     OW28284  12.642   2.018   2.684
75482SOL    HW128285  12.582   1.978   2.621
75482SOL    HW228286  12.682   1.944   2.729
75483SOL     OW28287   7.392   4.849   2.402
75483SOL    HW128288   7.428   4.894   2.325
75483SOL    HW228289   7.449   4.772   2.412
75484SOL     OW28290  12.157  14.353   9.573
75484SOL    HW128291  12.128  14.322   9.658
75484SOL    HW228292  12.209  14.281   9.537
75485SOL     OW28293   2.014   0.082   5.527
75485SOL    HW128294   1.958   0.044   5.459
75485SOL    HW228295   1.954   0.106   5.597
75486SOL     OW28296  10.757   3.980   5.282
75486SOL    HW128297  10.680   3.932   5.310
75486SOL    HW228298  10.814   3.915   5.241
75487SOL     OW28299   7.066  13.746  11.124
75487SOL    HW128300   7.089  13.736  11.216
75487SOL    HW228301   6.979  13.706  11.117
75488SOL     OW28302   0.742   4.329   7.462
75488SOL    HW128303   0.765   4.250   7.414
75488SOL    HW228304   0.680   4.375   7.405
75489SOL     OW28305   6.953  12.935   2.725
75489SOL    HW128306   6.969  12.966   2.814
75489SOL    HW228307   7.004  12.995   2.670
75490SOL     OW28308   8.213   0.995   0.218
75490SOL    HW128309   8.243   0.926   0.159
75490SOL    HW228310   8.151   1.046   0.166
75491SOL     OW28311   7.563   1.077  11.875
75491SOL    HW128312   7.475   1.112  11.859
75491SOL    HW228313   7.555   0.983  11.859
75492SOL     OW28314   6.231   3.701  14.245
75492SOL    HW128315   6.309   3.733  14.289
75492SOL    HW228316   6.244   3.607  14.236
75493SOL     OW28317   8.282   6.664   3.253
75493SOL    HW128318   8.210   6.600   3.249
75493SOL    HW228319   8.352   6.624   3.201
75494SOL     OW28320  13.615   2.850   5.759
75494SOL    HW128321  13.615   2.946   5.758
75494SOL    HW228322  13.635   2.825   5.669
75495SOL     OW28323   5.674   6.763   3.897
75495SOL    HW128324   5.696   6.718   3.979
75495SOL    HW228325   5.589   6.727   3.872
75496SOL     OW28326  10.989   5.036   3.670
75496SOL    HW128327  10.939   5.040   3.589
75496SOL    HW228328  11.078   5.015   3.642
75497SOL     OW28329  10.148   6.371   5.381
75497SOL    HW128330  10.099   6.424   5.444
75497SOL    HW228331  10.120   6.404   5.295
75498SOL     OW28332   8.606  10.347  13.236
75498SOL    HW128333   8.583  10.440  13.229
75498SOL    HW228334   8.692  10.340  13.193
75499SOL     OW28335  12.542   6.833   1.623
75499SOL    HW128336  12.517   6.823   1.715
75499SOL    HW228337  12.466   6.875   1.582
75500SOL     OW28338   9.976   9.205   8.315
75500SOL    HW128339  10.029   9.280   8.285
75500SOL    HW228340   9.904   9.200   8.253
75501SOL     OW28341   3.933  14.299  14.047
75501SOL    HW128342   3.980  14.353  13.984
75501SOL    HW228343   3.849  14.343  14.059
75502SOL     OW28344   6.180   5.600   1.983
75502SOL    HW128345   6.123   5.617   2.058
75502SOL    HW228346   6.140   5.525   1.939
75503SOL     OW28347   3.245  13.523   2.707
75503SOL    HW128348   3.217  13.487   2.623
75503SOL    HW228349   3.171  13.576   2.737
75504SOL     OW28350   6.039   2.280   3.447
75504SOL    HW128351   6.103   2.348   3.427
75504SOL    HW228352   5.959   2.327   3.467
75505SOL     OW28353   0.879   8.142   6.735
75505SOL    HW128354   0.815   8.116   6.801
75505SOL    HW228355   0.941   8.198   6.782
75506SOL     OW28356  13.059   5.266   5.791
75506SOL    HW128357  13.152   5.255   5.770
75506SOL    HW228358  13.038   5.189   5.845
75507SOL     OW28359  10.188   3.885  10.243
75507SOL    HW128360  10.255   3.947  10.272
75507SOL    HW228361  10.140   3.932  10.175
75508SOL     OW28362  10.234   4.659   4.203
75508SOL    HW128363  10.272   4.746   4.203
75508SOL    HW228364  10.141   4.673   4.217
75509SOL     OW28365   2.008   4.150   9.333
75509SOL    HW128366   2.092   4.138   9.377
75509SOL    HW228367   1.948   4.090   9.378
75510SOL     OW28368  12.706  10.229   9.037
75510SOL    HW128369  12.655  10.148   9.044
75510SOL    HW228370  12.772  10.222   9.106
75511SOL     OW28371  12.197   1.657  13.675
75511SOL    HW128372  12.142   1.631  13.601
75511SOL    HW228373  12.286   1.630  13.649
75512SOL     OW28374   5.570   6.470  13.431
75512SOL    HW128375   5.630   6.543  13.450
75512SOL    HW228376   5.588   6.406  13.499
75513SOL     OW28377   0.757   9.025  13.877
75513SOL    HW128378   0.689   9.034  13.811
75513SOL    HW228379   0.839   9.028  13.827
75514SOL     OW28380  11.340   6.589   7.134
75514SOL    HW128381  11.254   6.624   7.110
75514SOL    HW228382  11.326   6.496   7.146
75515SOL     OW28383  10.017   0.415  13.071
75515SOL    HW128384   9.999   0.386  13.161
75515SOL    HW228385  10.105   0.450  13.074
75516SOL     OW28386   1.345  13.906   7.915
75516SOL    HW128387   1.401  13.929   7.841
75516SOL    HW228388   1.406  13.887   7.987
75517SOL     OW28389   5.048   0.701   7.221
75517SOL    HW128390   5.007   0.614   7.221
75517SOL    HW228391   5.104   0.701   7.143
75518SOL     OW28392   5.262   6.409   8.207
75518SOL    HW128393   5.186   6.462   8.231
75518SOL    HW228394   5.314   6.466   8.151
75519SOL     OW28395   9.719  13.535   3.548
75519SOL    HW128396   9.663  13.533   3.625
75519SOL    HW228397   9.709  13.449   3.508
75520SOL     OW28398   6.415   9.631   4.795
75520SOL    HW128399   6.479   9.697   4.820
75520SOL    HW228400   6.458   9.581   4.725
75521SOL     OW28401   0.947   7.785  14.511
75521SOL    HW128402   0.882   7.794  14.581
75521SOL    HW228403   0.940   7.866  14.460
75522SOL     OW28404   7.750   1.169   7.031
75522SOL    HW128405   7.841   1.194   7.049
75522SOL    HW228406   7.758   1.087   6.983
75523SOL     OW28407  13.706  11.951   7.262
75523SOL    HW128408  13.668  11.960   7.349
75523SOL    HW228409  13.705  11.857   7.244
75524SOL     OW28410   2.231   9.691  14.291
75524SOL    HW128411   2.151   9.740  14.309
75524SOL    HW228412   2.211   9.601  14.316
75525SOL     OW28413   7.346  13.785   1.952
75525SOL    HW128414   7.354  13.874   1.918
75525SOL    HW228415   7.296  13.795   2.033
75526SOL     OW28416   4.182   6.468   8.393
75526SOL    HW128417   4.091   6.467   8.366
75526SOL    HW228418   4.209   6.376   8.393
75527SOL     OW28419   9.223   5.331   7.859
75527SOL    HW128420   9.314   5.305   7.849
75527SOL    HW228421   9.222   5.424   7.835
75528SOL     OW28422  12.195  13.895   4.115
75528SOL    HW128423  12.155  13.979   4.138
75528SOL    HW228424  12.146  13.830   4.165
75529SOL     OW28425   7.047  11.631   1.288
75529SOL    HW128426   7.106  11.707   1.283
75529SOL    HW228427   6.984  11.655   1.355
75530SOL     OW28428   1.859   4.099  11.277
75530SOL    HW128429   1.913   4.023  11.294
75530SOL    HW228430   1.917   4.160  11.231
75531SOL     OW28431  11.605   4.358   0.437
75531SOL    HW128432  11.607   4.391   0.347
75531SOL    HW228433  11.630   4.433   0.491
75532SOL     OW28434   5.026   4.005   2.362
75532SOL    HW128435   5.021   3.946   2.438
75532SOL    HW228436   5.022   3.947   2.286
75533SOL     OW28437  11.026  14.257   3.687
75533SOL    HW128438  11.096  14.270   3.751
75533SOL    HW228439  11.002  14.346   3.660
75534SOL     OW28440   6.504  14.563  14.425
75534SOL    HW128441   6.571  14.583  14.491
75534SOL    HW228442   6.493  14.644  14.377
75535SOL     OW28443   8.752   3.027   2.959
75535SOL    HW128444   8.676   3.075   2.926
75535SOL    HW228445   8.815   3.095   2.983
75536SOL     OW28446  12.275   3.143   7.714
75536SOL    HW128447  12.248   3.080   7.782
75536SOL    HW228448  12.337   3.094   7.660
75537SOL     OW28449   3.015   1.501   7.093
75537SOL    HW128450   3.021   1.441   7.018
75537SOL    HW228451   3.100   1.544   7.096
75538SOL     OW28452   7.321   1.639   3.508
75538SOL    HW128453   7.265   1.598   3.442
75538SOL    HW228454   7.399   1.584   3.511
75539SOL     OW28455   6.172   5.419   7.799
75539SOL    HW128456   6.105   5.422   7.730
75539SOL    HW228457   6.208   5.331   7.794
75540SOL     OW28458   2.647  10.869   5.244
75540SOL    HW128459   2.634  10.831   5.157
75540SOL    HW228460   2.651  10.794   5.303
75541SOL     OW28461   1.164   7.937   7.875
75541SOL    HW128462   1.171   7.846   7.845
75541SOL    HW228463   1.129   7.984   7.800
75542SOL     OW28464   8.928   8.075  14.803
75542SOL    HW128465   8.865   8.130  14.756
75542SOL    HW228466   8.877   8.000  14.832
75543SOL     OW28467   8.782  12.009   9.227
75543SOL    HW128468   8.831  12.086   9.201
75543SOL    HW228469   8.693  12.025   9.195
75544SOL     OW28470   6.206  11.997  11.732
75544SOL    HW128471   6.293  12.036  11.722
75544SOL    HW228472   6.151  12.069  11.763
75545SOL     OW28473   3.364   8.894  10.688
75545SOL    HW128474   3.279   8.868  10.723
75545SOL    HW228475   3.427   8.863  10.753
75546SOL     OW28476   3.934   7.315   4.429
75546SOL    HW128477   3.890   7.308   4.514
75546SOL    HW228478   4.023   7.284   4.445
75547SOL     OW28479   1.497   8.159   8.332
75547SOL    HW128480   1.420   8.102   8.325
75547SOL    HW228481   1.562   8.119   8.274
75548SOL     OW28482  13.884  13.818   9.925
75548SOL    HW128483  13.924  13.884   9.982
75548SOL    HW228484  13.947  13.806   9.854
75549SOL     OW28485  13.964  10.454  13.700
75549SOL    HW128486  14.029  10.507  13.746
75549SOL    HW228487  13.986  10.364  13.723
75550SOL     OW28488  10.237   8.451   6.712
75550SOL    HW128489  10.164   8.477   6.655
75550SOL    HW228490  10.195   8.417   6.791
75551SOL     OW28491   1.070  12.567   9.328
75551SOL    HW128492   0.989  12.538   9.370
75551SOL    HW228493   1.061  12.662   9.319
75552SOL     OW28494   9.039   5.190   1.002
75552SOL    HW128495   8.950   5.157   1.007
75552SOL    HW228496   9.053   5.236   1.085
75553SOL     OW28497   1.541   4.946   5.570
75553SOL    HW128498   1.505   4.860   5.547
75553SOL    HW228499   1.632   4.927   5.595
75554SOL     OW28500   4.308   0.195   7.897
75554SOL    HW128501   4.368   0.130   7.934
75554SOL    HW228502   4.227   0.183   7.946
75555SOL     OW28503   5.961  10.953   5.208
75555SOL    HW128504   6.053  10.960   5.235
75555SOL    HW228505   5.961  10.884   5.142
75556SOL     OW28506   1.397  13.036  12.800
75556SOL    HW128507   1.445  12.993  12.729
75556SOL    HW228508   1.462  13.052  12.868
75557SOL     OW28509  11.061  12.917   6.720
75557SOL    HW128510  11.076  13.008   6.745
75557SOL    HW228511  11.038  12.920   6.627
75558SOL     OW28512  11.030   6.742  11.365
75558SOL    HW128513  10.957   6.781  11.414
75558SOL    HW228514  11.060   6.670  11.420
75559SOL     OW28515   5.864   3.348   3.687
75559SOL    HW128516   5.953   3.370   3.713
75559SOL    HW228517   5.809   3.407   3.738
75560SOL     OW28518  14.843   5.322  11.749
75560SOL    HW128519  14.841   5.388  11.818
75560SOL    HW228520  14.755   5.285  11.748
75561SOL     OW28521  10.496  14.600   1.173
75561SOL    HW128522  10.448  14.565   1.249
75561SOL    HW228523  10.503  14.525   1.113
75562SOL     OW28524   5.609   8.121   6.816
75562SOL    HW128525   5.602   8.161   6.902
75562SOL    HW228526   5.591   8.192   6.755
75563SOL     OW28527   6.767  10.196  14.170
75563SOL    HW128528   6.755  10.249  14.249
75563SOL    HW228529   6.805  10.114  14.202
75564SOL     OW28530   4.152   8.765  13.737
75564SOL    HW128531   4.058   8.754  13.751
75564SOL    HW228532   4.162   8.858  13.715
75565SOL     OW28533   8.712   9.589   3.640
75565SOL    HW128534   8.743   9.580   3.549
75565SOL    HW228535   8.779   9.643   3.683
75566SOL     OW28536  11.806  11.236  14.003
75566SOL    HW128537  11.868  11.286  13.950
75566SOL    HW228538  11.733  11.295  14.018
75567SOL     OW28539   1.413  10.033   8.428
75567SOL    HW128540   1.400   9.938   8.430
75567SOL    HW228541   1.495  10.047   8.476
75568SOL     OW28542   2.475   7.201  14.106
75568SOL    HW128543   2.496   7.293  14.123
75568SOL    HW228544   2.486   7.191  14.012
75569SOL     OW28545  11.923  10.636  12.824
75569SOL    HW128546  12.012  10.602  12.832
75569SOL    HW228547  11.867  10.564  12.854
75570SOL     OW28548   4.155  10.262   5.402
75570SOL    HW128549   4.218  10.237   5.470
75570SOL    HW228550   4.149  10.186   5.345
75571SOL     OW28551  10.586  11.488   0.275
75571SOL    HW128552  10.492  11.477   0.290
75571SOL    HW228553  10.621  11.506   0.362
75572SOL     OW28554   1.566  14.318   3.970
75572SOL    HW128555   1.578  14.251   3.902
75572SOL    HW228556   1.502  14.379   3.933
75573SOL     OW28557  12.181   8.214   8.082
75573SOL    HW128558  12.100   8.248   8.120
75573SOL    HW228559  12.164   8.120   8.070
75574SOL     OW28560   7.943   0.476  13.852
75574SOL    HW128561   7.971   0.397  13.897
75574SOL    HW228562   7.847   0.472  13.853
75575SOL     OW28563  13.879   0.449   8.800
75575SOL    HW128564  13.821   0.514   8.761
75575SOL    HW228565  13.951   0.500   8.837
75576SOL     OW28566   0.390  12.405   3.711
75576SOL    HW128567   0.441  12.440   3.784
75576SOL    HW228568   0.305  12.383   3.750
75577SOL     OW28569   9.293   2.963   6.606
75577SOL    HW128570   9.374   2.937   6.562
75577SOL    HW228571   9.224   2.917   6.558
75578SOL     OW28572   3.190   7.956   6.795
75578SOL    HW128573   3.125   8.026   6.802
75578SOL    HW228574   3.274   8.000   6.800
75579SOL     OW28575  12.406   2.345  13.562
75579SOL    HW128576  12.423   2.438  13.573
75579SOL    HW228577  12.474   2.301  13.612
75580SOL     OW28578   4.320   4.476   9.916
75580SOL    HW128579   4.316   4.506   9.825
75580SOL    HW228580   4.398   4.421   9.920
75581SOL     OW28581  11.749   2.315  14.491
75581SOL    HW128582  11.680   2.332  14.555
75581SOL    HW228583  11.704   2.309  14.407
75582SOL     OW28584   8.817   0.284   4.237
75582SOL    HW128585   8.868   0.353   4.278
75582SOL    HW228586   8.874   0.247   4.170
75583SOL     OW28587  10.986   7.667   3.492
75583SOL    HW128588  10.943   7.655   3.407
75583SOL    HW228589  11.059   7.726   3.473
75584SOL     OW28590   2.793   5.151   3.416
75584SOL    HW128591   2.782   5.208   3.340
75584SOL    HW228592   2.725   5.084   3.406
75585SOL     OW28593   4.175   7.323   8.041
75585SOL    HW128594   4.121   7.393   8.079
75585SOL    HW228595   4.255   7.367   8.012
75586SOL     OW28596   5.878   4.662  14.765
75586SOL    HW128597   5.888   4.751  14.799
75586SOL    HW228598   5.830   4.616  14.833
75587SOL     OW28599   9.539   4.093   2.461
75587SOL    HW128600   9.497   4.016   2.423
75587SOL    HW228601   9.505   4.099   2.550
75588SOL     OW28602   6.344   5.177  10.427
75588SOL    HW128603   6.406   5.250  10.423
75588SOL    HW228604   6.396   5.103  10.459
75589SOL     OW28605   6.671  12.847   6.636
75589SOL    HW128606   6.615  12.901   6.581
75589SOL    HW228607   6.677  12.894   6.719
75590SOL     OW28608   1.093   0.338   9.025
75590SOL    HW128609   1.051   0.339   9.111
75590SOL    HW228610   1.042   0.274   8.974
75591SOL     OW28611   5.949  10.260  11.227
75591SOL    HW128612   5.942  10.336  11.169
75591SOL    HW228613   6.042  10.240  11.230
75592SOL     OW28614   7.899   5.627  12.831
75592SOL    HW128615   7.891   5.717  12.798
75592SOL    HW228616   7.928   5.576  12.755
75593SOL     OW28617   8.847   1.136   2.163
75593SOL    HW128618   8.798   1.148   2.244
75593SOL    HW228619   8.926   1.189   2.174
75594SOL     OW28620  13.066   1.717  12.806
75594SOL    HW128621  12.976   1.695  12.827
75594SOL    HW228622  13.112   1.716  12.890
75595SOL     OW28623   0.321   1.881  13.138
75595SOL    HW128624   0.379   1.806  13.150
75595SOL    HW228625   0.233   1.847  13.156
75596SOL     OW28626   5.771   5.680   3.385
75596SOL    HW128627   5.724   5.758   3.357
75596SOL    HW228628   5.772   5.623   3.308
75597SOL     OW28629  11.748   9.035  11.488
75597SOL    HW128630  11.668   8.985  11.471
75597SOL    HW228631  11.765   9.084  11.408
75598SOL     OW28632   8.195   9.889  12.079
75598SOL    HW128633   8.223   9.900  11.989
75598SOL    HW228634   8.127   9.821  12.074
75599SOL     OW28635   1.446   4.240   8.711
75599SOL    HW128636   1.399   4.252   8.628
75599SOL    HW228637   1.491   4.156   8.701
75600SOL     OW28638  13.761   0.674   2.151
75600SOL    HW128639  13.794   0.655   2.064
75600SOL    HW228640  13.775   0.594   2.201
75601SOL     OW28641   2.565   6.267  12.529
75601SOL    HW128642   2.541   6.260  12.436
75601SOL    HW228643   2.650   6.310  12.528
75602SOL     OW28644   5.491   5.432   0.049
75602SOL    HW128645   5.458   5.503  14.869
75602SOL    HW228646   5.573   5.405   0.006
75603SOL     OW28647   4.812   4.342  13.819
75603SOL    HW128648   4.800   4.424  13.867
75603SOL    HW228649   4.888   4.358  13.763
75604SOL     OW28650   8.815   5.972   1.245
75604SOL    HW128651   8.847   6.057   1.273
75604SOL    HW228652   8.764   5.940   1.320
75605SOL     OW28653   5.898   0.984   6.282
75605SOL    HW128654   5.824   0.957   6.226
75605SOL    HW228655   5.976   0.964   6.229
75606SOL     OW28656  12.742  14.164   0.041
75606SOL    HW128657  12.808  14.234   0.047
75606SOL    HW228658  12.752  14.129  14.827
75607SOL     OW28659   3.936   8.915  14.507
75607SOL    HW128660   3.895   8.999  14.525
75607SOL    HW228661   3.933   8.906  14.411
75608SOL     OW28662   3.000   8.078   8.699
75608SOL    HW128663   2.917   8.063   8.655
75608SOL    HW228664   3.040   8.150   8.650
75609SOL     OW28665   6.628  13.578   9.130
75609SOL    HW128666   6.716  13.544   9.143
75609SOL    HW228667   6.570  13.511   9.166
75610SOL     OW28668   7.481   0.811  13.108
75610SOL    HW128669   7.512   0.742  13.048
75610SOL    HW228670   7.561   0.855  13.136
75611SOL     OW28671   4.034   3.549   0.493
75611SOL    HW128672   4.059   3.596   0.414
75611SOL    HW228673   4.116   3.536   0.541
75612SOL     OW28674  12.790   3.240   2.681
75612SOL    HW128675  12.852   3.246   2.608
75612SOL    HW228676  12.737   3.319   2.674
75613SOL     OW28677   5.433   0.117  11.010
75613SOL    HW128678   5.507   0.130  10.951
75613SOL    HW228679   5.472   0.093  11.093
75614SOL     OW28680   6.732  11.920   9.063
75614SOL    HW128681   6.812  11.910   9.114
75614SOL    HW228682   6.671  11.964   9.122
75615SOL     OW28683   8.343   6.644  10.291
75615SOL    HW128684   8.380   6.606  10.212
75615SOL    HW228685   8.307   6.728  10.263
75616SOL     OW28686   8.737  12.736   7.230
75616SOL    HW128687   8.825  12.774   7.229
75616SOL    HW228688   8.748  12.647   7.197
75617SOL     OW28689   0.184   2.135  13.153
75617SOL    HW128690   0.255   2.077  13.127
75617SOL    HW228691   0.108   2.103  13.104
75618SOL     OW28692   2.381   5.436  14.485
75618SOL    HW128693   2.443   5.444  14.557
75618SOL    HW228694   2.396   5.513  14.430
75619SOL     OW28695   0.188   7.049   4.032
75619SOL    HW128696   0.238   7.123   3.998
75619SOL    HW228697   0.224   6.972   3.987
75620SOL     OW28698   1.721   3.504   9.980
75620SOL    HW128699   1.654   3.452  10.023
75620SOL    HW228700   1.680   3.535   9.899
75621SOL     OW28701   8.513  10.548  10.431
75621SOL    HW128702   8.580  10.616  10.431
75621SOL    HW228703   8.452  10.573  10.362
75622SOL     OW28704   4.733   9.856   9.674
75622SOL    HW128705   4.637   9.862   9.681
75622SOL    HW228706   4.749   9.826   9.585
75623SOL     OW28707   4.872   0.126  13.359
75623SOL    HW128708   4.956   0.113  13.316
75623SOL    HW228709   4.890   0.108  13.452
75624SOL     OW28710  14.655  13.012  14.312
75624SOL    HW128711  14.662  12.968  14.397
75624SOL    HW228712  14.679  13.103  14.331
75625SOL     OW28713   0.811  14.467  14.077
75625SOL    HW128714   0.894  14.483  14.032
75625SOL    HW228715   0.833  14.403  14.145
75626SOL     OW28716   0.760   3.077   0.517
75626SOL    HW128717   0.746   2.990   0.553
75626SOL    HW228718   0.715   3.076   0.432
75627SOL     OW28719   9.802  12.488   2.114
75627SOL    HW128720   9.810  12.569   2.164
75627SOL    HW228721   9.868  12.495   2.045
75628SOL     OW28722   8.919   7.368   6.679
75628SOL    HW128723   9.007   7.406   6.685
75628SOL    HW228724   8.897   7.372   6.586
75629SOL     OW28725   3.185  11.079   1.652
75629SOL    HW128726   3.107  11.108   1.699
75629SOL    HW228727   3.236  11.159   1.640
75630SOL     OW28728   0.911  12.439   4.122
75630SOL    HW128729   1.003  12.463   4.123
75630SOL    HW228730   0.864  12.520   4.142
75631SOL     OW28731   5.044   1.312   2.379
75631SOL    HW128732   5.138   1.316   2.360
75631SOL    HW228733   5.007   1.262   2.305
75632SOL     OW28734   9.742  10.901   7.471
75632SOL    HW128735   9.718  10.850   7.548
75632SOL    HW228736   9.780  10.981   7.506
75633SOL     OW28737   7.012  14.829  14.083
75633SOL    HW128738   7.019   0.025  14.018
75633SOL    HW228739   7.080  14.766  14.058
75634SOL     OW28740   4.981  10.894  10.221
75634SOL    HW128741   4.911  10.926  10.278
75634SOL    HW228742   5.056  10.881  10.279
75635SOL     OW28743  10.126  13.969   0.768
75635SOL    HW128744  10.159  14.050   0.731
75635SOL    HW228745  10.167  13.900   0.715
75636SOL     OW28746   3.988   7.943   1.733
75636SOL    HW128747   3.934   7.931   1.654
75636SOL    HW228748   4.075   7.965   1.699
75637SOL     OW28749   7.994   7.418   0.044
75637SOL    HW128750   8.028   7.416   0.134
75637SOL    HW228751   8.071   7.437  14.864
75638SOL     OW28752   3.934  14.377   8.610
75638SOL    HW128753   4.016  14.339   8.580
75638SOL    HW228754   3.948  14.394   8.703
75639SOL     OW28755   3.571   2.316   9.936
75639SOL    HW128756   3.547   2.246   9.996
75639SOL    HW228757   3.660   2.295   9.908
75640SOL     OW28758   8.152  13.112   7.573
75640SOL    HW128759   8.216  13.077   7.512
75640SOL    HW228760   8.193  13.102   7.659
75641SOL     OW28761   5.455   0.273   1.399
75641SOL    HW128762   5.378   0.235   1.356
75641SOL    HW228763   5.460   0.362   1.364
75642SOL     OW28764  14.211   3.584   2.994
75642SOL    HW128765  14.304   3.559   2.990
75642SOL    HW228766  14.210   3.675   2.964
75643SOL     OW28767  12.116  11.308   3.117
75643SOL    HW128768  12.130  11.365   3.042
75643SOL    HW228769  12.183  11.240   3.109
75644SOL     OW28770  14.153   8.742   3.017
75644SOL    HW128771  14.066   8.776   3.039
75644SOL    HW228772  14.184   8.799   2.947
75645SOL     OW28773   4.746   9.815  13.399
75645SOL    HW128774   4.680   9.751  13.428
75645SOL    HW228775   4.758   9.796  13.306
75646SOL     OW28776  12.905  14.054   2.494
75646SOL    HW128777  12.830  14.108   2.517
75646SOL    HW228778  12.949  14.102   2.424
75647SOL     OW28779   5.509   0.008   8.141
75647SOL    HW128780   5.498  14.825   8.064
75647SOL    HW228781   5.477  14.829   8.214
75648SOL     OW28782   4.313  13.563   8.382
75648SOL    HW128783   4.354  13.564   8.468
75648SOL    HW228784   4.335  13.648   8.344
75649SOL     OW28785   9.452   0.004  13.615
75649SOL    HW128786   9.444  14.795  13.568
75649SOL    HW228787   9.530   0.045  13.577
75650SOL     OW28788   5.147   4.302   5.655
75650SOL    HW128789   5.113   4.232   5.600
75650SOL    HW228790   5.160   4.261   5.740
75651SOL     OW28791   9.124  14.303  14.300
75651SOL    HW128792   9.128  14.351  14.383
75651SOL    HW228793   9.169  14.221  14.317
75652SOL     OW28794   5.749   6.483   6.271
75652SOL    HW128795   5.693   6.559   6.285
75652SOL    HW228796   5.802   6.476   6.351
75653SOL     OW28797   5.049   8.868   1.607
75653SOL    HW128798   5.101   8.798   1.567
75653SOL    HW228799   4.989   8.823   1.666
75654SOL     OW28800   4.362  11.194   2.620
75654SOL    HW128801   4.366  11.153   2.707
75654SOL    HW228802   4.451  11.225   2.603
75655SOL     OW28803   7.351   1.638   2.093
75655SOL    HW128804   7.303   1.679   2.166
75655SOL    HW228805   7.287   1.634   2.022
75656SOL     OW28806   9.323  10.597   3.818
75656SOL    HW128807   9.330  10.541   3.895
75656SOL    HW228808   9.352  10.683   3.848
75657SOL     OW28809   3.717   8.829   5.550
75657SOL    HW128810   3.630   8.836   5.510
75657SOL    HW228811   3.721   8.739   5.584
75658SOL     OW28812   8.227   1.806   4.349
75658SOL    HW128813   8.148   1.858   4.333
75658SOL    HW228814   8.204   1.750   4.424
75659SOL     OW28815  14.024  10.196   5.989
75659SOL    HW128816  14.040  10.290   5.979
75659SOL    HW228817  14.098  10.155   5.944
75660SOL     OW28818   3.876  12.460  12.889
75660SOL    HW128819   3.944  12.524  12.869
75660SOL    HW228820   3.924  12.383  12.919
75661SOL     OW28821   2.896   4.721  14.666
75661SOL    HW128822   2.904   4.649  14.728
75661SOL    HW228823   2.842   4.786  14.712
75662SOL     OW28824   9.522  12.143   4.313
75662SOL    HW128825   9.616  12.144   4.334
75662SOL    HW228826   9.480  12.181   4.390
75663SOL     OW28827  11.081   7.377   6.647
75663SOL    HW128828  11.136   7.434   6.593
75663SOL    HW228829  11.095   7.408   6.736
75664SOL     OW28830   2.687   4.083   3.859
75664SOL    HW128831   2.772   4.106   3.821
75664SOL    HW228832   2.664   3.999   3.818
75665SOL     OW28833   7.585   7.603   0.017
75665SOL    HW128834   7.667   7.648   0.036
75665SOL    HW228835   7.561   7.635  14.803
75666SOL     OW28836  10.033   7.435   9.793
75666SOL    HW128837   9.944   7.398   9.795
75666SOL    HW228838  10.021   7.526   9.817
75667SOL     OW28839   5.141  10.196   2.339
75667SOL    HW128840   5.098  10.129   2.285
75667SOL    HW228841   5.183  10.146   2.409
75668SOL     OW28842  12.430   2.881  12.081
75668SOL    HW128843  12.450   2.972  12.060
75668SOL    HW228844  12.484   2.862  12.158
75669SOL     OW28845   7.966  12.033  10.059
75669SOL    HW128846   7.967  12.043  10.154
75669SOL    HW228847   7.959  12.122  10.026
75670SOL     OW28848   1.605   2.542   4.465
75670SOL    HW128849   1.679   2.509   4.515
75670SOL    HW228850   1.600   2.485   4.389
75671SOL     OW28851   9.148   9.096   4.075
75671SOL    HW128852   9.205   9.021   4.092
75671SOL    HW228853   9.187   9.167   4.126
75672SOL     OW28854  10.185   2.223   7.587
75672SOL    HW128855  10.251   2.285   7.554
75672SOL    HW228856  10.138   2.195   7.509
75673SOL     OW28857   2.390  12.671   8.530
75673SOL    HW128858   2.446  12.713   8.595
75673SOL    HW228859   2.314  12.730   8.523
75674SOL     OW28860   6.696  13.447   9.678
75674SOL    HW128861   6.736  13.360   9.672
75674SOL    HW228862   6.754  13.496   9.736
75675SOL     OW28863   9.498   1.645  13.584
75675SOL    HW128864   9.582   1.677  13.617
75675SOL    HW228865   9.447   1.724  13.566
75676SOL     OW28866   6.638   1.557   8.890
75676SOL    HW128867   6.699   1.581   8.820
75676SOL    HW228868   6.557   1.533   8.844
75677SOL     OW28869   0.710  13.182  12.083
75677SOL    HW128870   0.627  13.150  12.117
75677SOL    HW228871   0.777  13.136  12.133
75678SOL     OW28872   5.759  11.891   2.138
75678SOL    HW128873   5.762  11.804   2.178
75678SOL    HW228874   5.666  11.912   2.135
75679SOL     OW28875  13.432   6.440  12.928
75679SOL    HW128876  13.367   6.377  12.959
75679SOL    HW228877  13.469   6.478  13.007
75680SOL     OW28878   1.990  13.840   2.414
75680SOL    HW128879   1.918  13.804   2.467
75680SOL    HW228880   1.986  13.934   2.430
75681SOL     OW28881   5.500   3.702   5.403
75681SOL    HW128882   5.486   3.687   5.496
75681SOL    HW228883   5.457   3.627   5.360
75682SOL     OW28884   4.074   1.413  11.238
75682SOL    HW128885   3.992   1.442  11.199
75682SOL    HW228886   4.136   1.412  11.166
75683SOL     OW28887   0.320   6.311   9.560
75683SOL    HW128888   0.371   6.230   9.568
75683SOL    HW228889   0.348   6.365   9.634
75684SOL     OW28890  14.215   5.395   8.705
75684SOL    HW128891  14.287   5.427   8.651
75684SOL    HW228892  14.138   5.442   8.674
75685SOL     OW28893  10.633  14.082   6.716
75685SOL    HW128894  10.567  14.018   6.743
75685SOL    HW228895  10.676  14.107   6.798
75686SOL     OW28896   7.807   1.235  12.984
75686SOL    HW128897   7.797   1.330  12.979
75686SOL    HW228898   7.721   1.200  12.959
75687SOL     OW28899   4.594  12.399   0.569
75687SOL    HW128900   4.538  12.400   0.491
75687SOL    HW228901   4.678  12.364   0.537
75688SOL     OW28902   8.148   6.076  12.725
75688SOL    HW128903   8.235   6.061  12.760
75688SOL    HW228904   8.144   6.023  12.646
75689SOL     OW28905   6.405  13.954   2.717
75689SOL    HW128906   6.472  13.893   2.687
75689SOL    HW228907   6.347  13.965   2.641
75690SOL     OW28908   8.331   3.260  12.380
75690SOL    HW128909   8.307   3.227  12.294
75690SOL    HW228910   8.279   3.209  12.441
75691SOL     OW28911  14.385   5.713  13.722
75691SOL    HW128912  14.445   5.767  13.773
75691SOL    HW228913  14.332   5.668  13.787
75692SOL     OW28914   0.366   7.287   1.178
75692SOL    HW128915   0.344   7.243   1.260
75692SOL    HW228916   0.459   7.269   1.165
75693SOL     OW28917   7.581  14.059   1.284
75693SOL    HW128918   7.571  14.040   1.191
75693SOL    HW228919   7.536  14.142   1.297
75694SOL     OW28920  12.983  10.812  12.371
75694SOL    HW128921  13.073  10.786  12.351
75694SOL    HW228922  12.958  10.870  12.299
75695SOL     OW28923   3.356   2.642   5.537
75695SOL    HW128924   3.418   2.653   5.465
75695SOL    HW228925   3.270   2.658   5.499
75696SOL     OW28926   1.802   6.451   3.615
75696SOL    HW128927   1.741   6.439   3.688
75696SOL    HW228928   1.888   6.425   3.651
75697SOL     OW28929   3.518   3.224   9.275
75697SOL    HW128930   3.471   3.301   9.245
75697SOL    HW228931   3.610   3.242   9.253
75698SOL     OW28932  11.431   0.743   2.666
75698SOL    HW128933  11.373   0.818   2.658
75698SOL    HW228934  11.519   0.781   2.671
75699SOL     OW28935   9.719   2.200   5.976
75699SOL    HW128936   9.805   2.227   5.945
75699SOL    HW228937   9.675   2.167   5.898
75700SOL     OW28938  11.570   2.340   6.110
75700SOL    HW128939  11.570   2.358   6.016
75700SOL    HW228940  11.588   2.246   6.117
75701SOL     OW28941   5.700   0.129   2.711
75701SOL    HW128942   5.723   0.146   2.619
75701SOL    HW228943   5.624   0.071   2.706
75702SOL     OW28944  12.668   5.109   2.168
75702SOL    HW128945  12.622   5.031   2.201
75702SOL    HW228946  12.600   5.160   2.124
75703SOL     OW28947   5.981   8.239  10.199
75703SOL    HW128948   5.927   8.300  10.249
75703SOL    HW228949   6.066   8.240  10.244
75704SOL     OW28950  10.137   7.568   2.354
75704SOL    HW128951  10.148   7.652   2.397
75704SOL    HW228952  10.048   7.570   2.320
75705SOL     OW28953   4.735   6.420  12.360
75705SOL    HW128954   4.665   6.423  12.425
75705SOL    HW228955   4.725   6.334  12.318
75706SOL     OW28956  10.051   0.515  14.464
75706SOL    HW128957  10.024   0.427  14.439
75706SOL    HW228958  10.142   0.522  14.433
75707SOL     OW28959   9.178   2.729   9.030
75707SOL    HW128960   9.252   2.683   9.070
75707SOL    HW228961   9.192   2.720   8.936
75708SOL     OW28962   3.447   8.740   5.848
75708SOL    HW128963   3.460   8.773   5.759
75708SOL    HW228964   3.523   8.771   5.897
75709SOL     OW28965   0.991   7.847   7.030
75709SOL    HW128966   0.948   7.846   6.944
75709SOL    HW228967   0.922   7.819   7.091
75710SOL     OW28968   9.382   7.292   3.682
75710SOL    HW128969   9.428   7.244   3.614
75710SOL    HW228970   9.300   7.244   3.694
75711SOL     OW28971   1.274   6.306   8.035
75711SOL    HW128972   1.287   6.397   8.061
75711SOL    HW228973   1.229   6.312   7.950
75712SOL     OW28974   5.311  10.210  12.065
75712SOL    HW128975   5.342  10.300  12.059
75712SOL    HW228976   5.352  10.165  11.991
75713SOL     OW28977  12.888   1.283  10.408
75713SOL    HW128978  12.840   1.353  10.364
75713SOL    HW228979  12.871   1.205  10.356
75714SOL     OW28980   7.996   1.744  14.451
75714SOL    HW128981   8.089   1.753  14.428
75714SOL    HW228982   7.960   1.832  14.443
75715SOL     OW28983  13.468  10.995   3.036
75715SOL    HW128984  13.380  11.028   3.053
75715SOL    HW228985  13.455  10.902   3.015
75716SOL     OW28986  13.434   8.045  12.390
75716SOL    HW128987  13.390   8.125  12.420
75716SOL    HW228988  13.395   7.976  12.444
75717SOL     OW28989  10.015  11.784   3.244
75717SOL    HW128990  10.024  11.866   3.292
75717SOL    HW228991  10.082  11.727   3.282
75718SOL     OW28992   3.528  11.850   5.604
75718SOL    HW128993   3.539  11.874   5.696
75718SOL    HW228994   3.452  11.900   5.576
75719SOL     OW28995  11.431  11.835   4.108
75719SOL    HW128996  11.522  11.825   4.137
75719SOL    HW228997  11.436  11.893   4.033
75720SOL     OW28998   9.037   8.258   6.355
75720SOL    HW128999   8.946   8.290   6.359
75720SOL    HW229000   9.029   8.165   6.335
75721SOL     OW29001   3.769   3.580  10.098
75721SOL    HW129002   3.853   3.549  10.131
75721SOL    HW229003   3.791   3.641  10.028
75722SOL     OW29004   1.957   3.720  13.244
75722SOL    HW129005   1.922   3.651  13.187
75722SOL    HW229006   1.879   3.765  13.276
75723SOL     OW29007  11.731   6.073  11.733
75723SOL    HW129008  11.749   6.155  11.687
75723SOL    HW229009  11.659   6.033  11.684
75724SOL     OW29010  11.592   1.707  11.015
75724SOL    HW129011  11.539   1.778  10.978
75724SOL    HW229012  11.567   1.705  11.108
75725SOL     OW29013   3.607  12.551   2.191
75725SOL    HW129014   3.558  12.608   2.249
75725SOL    HW229015   3.577  12.574   2.103
75726SOL     OW29016  12.003  10.743  14.101
75726SOL    HW129017  12.090  10.734  14.141
75726SOL    HW229018  11.996  10.836  14.079
75727SOL     OW29019   1.918   2.106   8.405
75727SOL    HW129020   1.910   2.019   8.365
75727SOL    HW229021   1.984   2.096   8.473
75728SOL     OW29022  12.948   1.220  12.392
75728SOL    HW129023  12.931   1.290  12.455
75728SOL    HW229024  12.972   1.266  12.311
75729SOL     OW29025  12.393   2.261   4.043
75729SOL    HW129026  12.462   2.324   4.023
75729SOL    HW229027  12.360   2.233   3.958
75730SOL     OW29028   0.637   6.312   1.826
75730SOL    HW129029   0.722   6.285   1.791
75730SOL    HW229030   0.643   6.407   1.832
75731SOL     OW29031   3.338   0.147   8.890
75731SOL    HW129032   3.294   0.102   8.817
75731SOL    HW229033   3.355   0.235   8.857
75732SOL     OW29034   7.680   1.652   1.932
75732SOL    HW129035   7.672   1.727   1.990
75732SOL    HW229036   7.732   1.684   1.858
75733SOL     OW29037   3.151   2.806  11.942
75733SOL    HW129038   3.182   2.793  11.852
75733SOL    HW229039   3.060   2.837  11.931
75734SOL     OW29040   5.358   6.004   8.610
75734SOL    HW129041   5.358   6.003   8.514
75734SOL    HW229042   5.270   6.034   8.633
75735SOL     OW29043   8.232   5.176   9.966
75735SOL    HW129044   8.187   5.111  10.020
75735SOL    HW229045   8.312   5.197  10.015
75736SOL     OW29046   0.605   4.865   4.747
75736SOL    HW129047   0.555   4.787   4.722
75736SOL    HW229048   0.693   4.832   4.766
75737SOL     OW29049  11.331  10.532  11.323
75737SOL    HW129050  11.325  10.484  11.241
75737SOL    HW229051  11.425  10.533  11.343
75738SOL     OW29052   3.786   7.999   5.908
75738SOL    HW129053   3.833   7.971   5.830
75738SOL    HW229054   3.693   7.998   5.882
75739SOL     OW29055   1.873  11.855  10.100
75739SOL    HW129056   1.915  11.918  10.160
75739SOL    HW229057   1.934  11.781  10.097
75740SOL     OW29058   4.671  11.723   3.856
75740SOL    HW129059   4.640  11.739   3.767
75740SOL    HW229060   4.593  11.698   3.904
75741SOL     OW29061   0.842   1.998   5.018
75741SOL    HW129062   0.787   1.989   5.096
75741SOL    HW229063   0.791   2.053   4.958
75742SOL     OW29064   1.689  12.185   6.271
75742SOL    HW129065   1.650  12.272   6.284
75742SOL    HW229066   1.693  12.147   6.359
75743SOL     OW29067   0.353  11.498   5.305
75743SOL    HW129068   0.424  11.563   5.304
75743SOL    HW229069   0.304  11.514   5.225
75744SOL     OW29070   7.532  11.100  13.306
75744SOL    HW129071   7.616  11.103  13.260
75744SOL    HW229072   7.467  11.100  13.236
75745SOL     OW29073   9.885  14.448   4.428
75745SOL    HW129074   9.875  14.543   4.430
75745SOL    HW229075   9.863  14.423   4.338
75746SOL     OW29076  11.532   7.770   9.930
75746SOL    HW129077  11.607   7.795   9.876
75746SOL    HW229078  11.533   7.675   9.930
75747SOL     OW29079  13.122   7.455  12.189
75747SOL    HW129080  13.032   7.488  12.185
75747SOL    HW229081  13.169   7.507  12.124
75748SOL     OW29082  10.828   6.392  11.951
75748SOL    HW129083  10.781   6.459  12.000
75748SOL    HW229084  10.771   6.373  11.876
75749SOL     OW29085   9.473   9.575   5.789
75749SOL    HW129086   9.469   9.670   5.800
75749SOL    HW229087   9.410   9.541   5.853
75750SOL     OW29088  14.578   7.202   2.213
75750SOL    HW129089  14.624   7.236   2.136
75750SOL    HW229090  14.634   7.225   2.286
75751SOL     OW29091  11.338   7.371  11.100
75751SOL    HW129092  11.338   7.461  11.132
75751SOL    HW229093  11.273   7.371  11.030
75752SOL     OW29094  14.109  13.728  12.237
75752SOL    HW129095  14.149  13.661  12.182
75752SOL    HW229096  14.162  13.729  12.316
75753SOL     OW29097   2.554  12.754   2.156
75753SOL    HW129098   2.649  12.755   2.146
75753SOL    HW229099   2.540  12.741   2.250
75754SOL     OW29100   8.964  14.834  14.241
75754SOL    HW129101   8.994  14.797  14.158
75754SOL    HW229102   9.020   0.036  14.255
75755SOL     OW29103   5.037  14.702   8.737
75755SOL    HW129104   5.128  14.709   8.765
75755SOL    HW229105   5.021  14.781   8.685
75756SOL     OW29106   2.739  12.394   3.280
75756SOL    HW129107   2.685  12.352   3.348
75756SOL    HW229108   2.799  12.326   3.251
75757SOL     OW29109   0.001  13.388   2.613
75757SOL    HW129110   0.036  13.476   2.598
75757SOL    HW229111   0.077  13.330   2.609
75758SOL     OW29112  13.367   0.423   0.740
75758SOL    HW129113  13.451   0.380   0.722
75758SOL    HW229114  13.341   0.461   0.656
75759SOL     OW29115   1.876  10.431   7.870
75759SOL    HW129116   1.870  10.447   7.964
75759SOL    HW229117   1.818  10.497   7.831
75760SOL     OW29118   2.936   9.649   2.306
75760SOL    HW129119   2.925   9.742   2.327
75760SOL    HW229120   2.851   9.621   2.274
75761SOL     OW29121  14.154   7.765   4.243
75761SOL    HW129122  14.180   7.687   4.292
75761SOL    HW229123  14.222   7.776   4.176
75762SOL     OW29124   8.821  13.420   8.882
75762SOL    HW129125   8.796  13.439   8.792
75762SOL    HW229126   8.915  13.402   8.878
75763SOL     OW29127   3.342  10.161   9.349
75763SOL    HW129128   3.322  10.163   9.443
75763SOL    HW229129   3.434  10.136   9.344
75764SOL     OW29130  11.577   2.623  11.262
75764SOL    HW129131  11.487   2.621  11.230
75764SOL    HW229132  11.571   2.591  11.352
75765SOL     OW29133   2.860  13.840   4.764
75765SOL    HW129134   2.951  13.821   4.785
75765SOL    HW229135   2.824  13.877   4.845
75766SOL     OW29136   3.885   0.923   9.583
75766SOL    HW129137   3.825   0.901   9.655
75766SOL    HW229138   3.845   0.884   9.506
75767SOL     OW29139  12.547   5.565  14.624
75767SOL    HW129140  12.538   5.599  14.535
75767SOL    HW229141  12.464   5.586  14.666
75768SOL     OW29142  14.463   1.602   7.698
75768SOL    HW129143  14.376   1.627   7.730
75768SOL    HW229144  14.506   1.562   7.774
75769SOL     OW29145   9.885  12.475  12.381
75769SOL    HW129146   9.955  12.416  12.410
75769SOL    HW229147   9.822  12.418  12.337
75770SOL     OW29148   5.796   6.854   7.768
75770SOL    HW129149   5.877   6.842   7.720
75770SOL    HW229150   5.823   6.883   7.856
75771SOL     OW29151  10.067  10.845  13.897
75771SOL    HW129152  10.133  10.898  13.853
75771SOL    HW229153  10.103  10.830  13.984
75772SOL     OW29154   1.830   6.457  12.878
75772SOL    HW129155   1.817   6.549  12.854
75772SOL    HW229156   1.860   6.460  12.969
75773SOL     OW29157   4.113   6.252  13.002
75773SOL    HW129158   4.151   6.190  13.064
75773SOL    HW229159   4.061   6.198  12.943
75774SOL     OW29160   1.145  13.760  10.291
75774SOL    HW129161   1.052  13.777  10.279
75774SOL    HW229162   1.189  13.823  10.232
75775SOL     OW29163  11.867   7.631  11.157
75775SOL    HW129164  11.960   7.634  11.132
75775SOL    HW229165  11.860   7.695  11.227
75776SOL     OW29166   2.040   1.151   8.866
75776SOL    HW129167   1.946   1.153   8.884
75776SOL    HW229168   2.074   1.081   8.922
75777SOL     OW29169  13.717  13.156  14.094
75777SOL    HW129170  13.657  13.192  14.159
75777SOL    HW229171  13.660  13.114  14.029
75778SOL     OW29172   0.066   1.400   9.280
75778SOL    HW129173   0.032   1.408   9.191
75778SOL    HW229174   0.012   1.332   9.320
75779SOL     OW29175   7.136   6.548   9.093
75779SOL    HW129176   7.165   6.638   9.078
75779SOL    HW229177   7.084   6.553   9.173
75780SOL     OW29178   9.187   4.147  12.448
75780SOL    HW129179   9.248   4.184  12.512
75780SOL    HW229180   9.182   4.054  12.471
75781SOL     OW29181   2.394  12.285   2.674
75781SOL    HW129182   2.468  12.226   2.688
75781SOL    HW229183   2.396  12.343   2.750
75782SOL     OW29184   3.259   5.953  12.995
75782SOL    HW129185   3.350   5.984  12.987
75782SOL    HW229186   3.231   5.940  12.904
75783SOL     OW29187  13.052  10.375   4.719
75783SOL    HW129188  12.997  10.297   4.713
75783SOL    HW229189  13.061  10.404   4.628
75784SOL     OW29190   7.177  13.564   2.928
75784SOL    HW129191   7.249  13.613   2.888
75784SOL    HW229192   7.219  13.485   2.963
75785SOL     OW29193   4.328  13.942  13.337
75785SOL    HW129194   4.346  13.945  13.431
75785SOL    HW229195   4.404  13.897  13.300
75786SOL     OW29196  12.092   2.384   7.370
75786SOL    HW129197  12.100   2.315   7.304
75786SOL    HW229198  12.075   2.337   7.452
75787SOL     OW29199  13.046   4.120   3.241
75787SOL    HW129200  13.089   4.037   3.263
75787SOL    HW229201  13.078   4.141   3.153
75788SOL     OW29202  11.609   8.016   2.901
75788SOL    HW129203  11.557   7.989   2.977
75788SOL    HW229204  11.563   7.978   2.826
75789SOL     OW29205   4.017   4.311   5.843
75789SOL    HW129206   3.960   4.388   5.837
75789SOL    HW229207   4.078   4.320   5.770
75790SOL     OW29208  10.357   8.141  10.836
75790SOL    HW129209  10.445   8.163  10.866
75790SOL    HW229210  10.325   8.221  10.795
75791SOL     OW29211   5.331   5.320   6.748
75791SOL    HW129212   5.267   5.390   6.733
75791SOL    HW229213   5.280   5.251   6.791
75792SOL     OW29214  13.022   3.937  14.455
75792SOL    HW129215  13.078   3.957  14.529
75792SOL    HW229216  13.033   4.011  14.395
75793SOL     OW29217   0.101   8.141   4.776
75793SOL    HW129218   0.007   8.148   4.788
75793SOL    HW229219   0.137   8.217   4.822
75794SOL     OW29220   0.216   9.927   1.621
75794SOL    HW129221   0.157   9.991   1.583
75794SOL    HW229222   0.163   9.847   1.629
75795SOL     OW29223   2.146   6.296  11.679
75795SOL    HW129224   2.154   6.330  11.590
75795SOL    HW229225   2.167   6.371  11.735
75796SOL     OW29226   4.934  10.231  14.539
75796SOL    HW129227   4.882  10.279  14.474
75796SOL    HW229228   4.881  10.233  14.618
75797SOL     OW29229  12.391   3.872   3.775
75797SOL    HW129230  12.425   3.785   3.757
75797SOL    HW229231  12.296   3.863   3.763
75798SOL     OW29232   2.217   6.114   3.584
75798SOL    HW129233   2.198   6.195   3.537
75798SOL    HW229234   2.252   6.143   3.669
75799SOL     OW29235  12.520   7.081   6.053
75799SOL    HW129236  12.535   7.145   5.983
75799SOL    HW229237  12.608   7.062   6.086
75800SOL     OW29238   3.772   9.778   5.278
75800SOL    HW129239   3.789   9.867   5.308
75800SOL    HW229240   3.773   9.725   5.358
75801SOL     OW29241  13.761  11.060  13.746
75801SOL    HW129242  13.706  11.073  13.823
75801SOL    HW229243  13.705  11.013  13.684
75802SOL     OW29244   8.446   9.468   4.872
75802SOL    HW129245   8.506   9.542   4.868
75802SOL    HW229246   8.447   9.440   4.963
75803SOL     OW29247   8.251   0.800   1.687
75803SOL    HW129248   8.156   0.815   1.682
75803SOL    HW229249   8.266   0.724   1.631
75804SOL     OW29250   4.001   1.272   6.462
75804SOL    HW129251   4.080   1.266   6.407
75804SOL    HW229252   3.929   1.256   6.402
75805SOL     OW29253  11.966  13.984   6.520
75805SOL    HW129254  12.006  13.994   6.434
75805SOL    HW229255  12.041  13.968   6.579
75806SOL     OW29256   1.296  13.266  14.207
75806SOL    HW129257   1.240  13.327  14.160
75806SOL    HW229258   1.377  13.265  14.157
75807SOL     OW29259   7.974   4.160   6.730
75807SOL    HW129260   8.000   4.070   6.752
75807SOL    HW229261   8.004   4.172   6.640
75808SOL     OW29262  11.683   9.859   5.977
75808SOL    HW129263  11.707   9.838   6.067
75808SOL    HW229264  11.593   9.829   5.968
75809SOL     OW29265   5.599   5.575   4.478
75809SOL    HW129266   5.569   5.486   4.499
75809SOL    HW229267   5.693   5.573   4.497
75810SOL     OW29268   2.873   3.244   6.590
75810SOL    HW129269   2.813   3.212   6.522
75810SOL    HW229270   2.912   3.165   6.626
75811SOL     OW29271  13.407   2.097  14.685
75811SOL    HW129272  13.356   2.028  14.641
75811SOL    HW229273  13.477   2.117  14.624
75812SOL     OW29274   6.412   9.036   1.724
75812SOL    HW129275   6.376   9.099   1.786
75812SOL    HW229276   6.418   8.954   1.773
75813SOL     OW29277   5.911   5.886   8.893
75813SOL    HW129278   5.894   5.978   8.912
75813SOL    HW229279   6.005   5.882   8.875
75814SOL     OW29280   8.352   0.650   3.434
75814SOL    HW129281   8.418   0.672   3.368
75814SOL    HW229282   8.279   0.614   3.384
75815SOL     OW29283   1.435  13.235  10.525
75815SOL    HW129284   1.396  13.290  10.593
75815SOL    HW229285   1.513  13.283  10.497
75816SOL     OW29286   4.703  10.977   7.433
75816SOL    HW129287   4.721  10.972   7.339
75816SOL    HW229288   4.782  10.943   7.475
75817SOL     OW29289  12.963   7.366   6.964
75817SOL    HW129290  12.956   7.278   6.929
75817SOL    HW229291  13.053   7.371   6.999
75818SOL     OW29292   5.388   2.644   3.003
75818SOL    HW129293   5.317   2.607   2.951
75818SOL    HW229294   5.440   2.696   2.942
75819SOL     OW29295   6.622   5.152   3.768
75819SOL    HW129296   6.592   5.146   3.678
75819SOL    HW229297   6.716   5.136   3.764
75820SOL     OW29298  10.348  14.596   8.687
75820SOL    HW129299  10.291  14.621   8.760
75820SOL    HW229300  10.435  14.626   8.714
75821SOL     OW29301  14.816  12.563  10.978
75821SOL    HW129302  14.720  12.557  10.985
75821SOL    HW229303  14.833  12.558  10.884
75822SOL     OW29304   1.244  14.158   1.028
75822SOL    HW129305   1.209  14.221   0.965
75822SOL    HW229306   1.327  14.195   1.055
75823SOL     OW29307   4.094  11.848   4.088
75823SOL    HW129308   4.059  11.781   4.029
75823SOL    HW229309   4.122  11.919   4.030
75824SOL     OW29310   8.023   4.994   6.675
75824SOL    HW129311   7.986   5.053   6.741
75824SOL    HW229312   8.087   5.048   6.628
75825SOL     OW29313   1.286   1.925   0.875
75825SOL    HW129314   1.313   1.866   0.804
75825SOL    HW229315   1.191   1.914   0.880
75826SOL     OW29316   8.393  13.718   2.788
75826SOL    HW129317   8.299  13.710   2.773
75826SOL    HW229318   8.401  13.767   2.869
75827SOL     OW29319   6.643   9.331   5.227
75827SOL    HW129320   6.653   9.328   5.322
75827SOL    HW229321   6.692   9.256   5.195
75828SOL     OW29322   9.871   9.635   3.772
75828SOL    HW129323   9.910   9.559   3.815
75828SOL    HW229324   9.853   9.696   3.843
75829SOL     OW29325   6.127   3.105   7.149
75829SOL    HW129326   6.172   3.156   7.081
75829SOL    HW229327   6.197   3.077   7.208
75830SOL     OW29328   6.602   9.072   9.027
75830SOL    HW129329   6.642   9.044   9.109
75830SOL    HW229330   6.579   8.990   8.982
75831SOL     OW29331   0.948   9.664   2.228
75831SOL    HW129332   1.033   9.661   2.186
75831SOL    HW229333   0.966   9.648   2.320
75832SOL     OW29334  10.459   1.654   5.547
75832SOL    HW129335  10.371   1.686   5.566
75832SOL    HW229336  10.491   1.711   5.478
75833SOL     OW29337  13.100   3.944   1.070
75833SOL    HW129338  13.102   4.034   1.101
75833SOL    HW229339  13.145   3.894   1.138
75834SOL     OW29340   9.491   6.956  13.085
75834SOL    HW129341   9.397   6.969  13.082
75834SOL    HW229342   9.528   7.028  13.034
75835SOL     OW29343   0.117   0.181   6.311
75835SOL    HW129344   0.065   0.175   6.231
75835SOL    HW229345   0.205   0.154   6.285
75836SOL     OW29346   3.213   0.291   2.255
75836SOL    HW129347   3.296   0.329   2.229
75836SOL    HW229348   3.233   0.200   2.276
75837SOL     OW29349  11.924   7.749   9.771
75837SOL    HW129350  11.955   7.690   9.840
75837SOL    HW229351  12.003   7.792   9.739
75838SOL     OW29352  11.696   8.956  13.110
75838SOL    HW129353  11.650   8.985  13.031
75838SOL    HW229354  11.788   8.951  13.084
75839SOL     OW29355   4.863   5.322   8.004
75839SOL    HW129356   4.789   5.346   7.948
75839SOL    HW229357   4.940   5.360   7.961
75840SOL     OW29358   2.167  11.963   8.083
75840SOL    HW129359   2.263  11.962   8.091
75840SOL    HW229360   2.149  11.922   7.999
75841SOL     OW29361   5.139   7.127   3.081
75841SOL    HW129362   5.107   7.095   2.997
75841SOL    HW229363   5.061   7.163   3.124
75842SOL     OW29364   0.783   2.877   6.015
75842SOL    HW129365   0.745   2.898   5.930
75842SOL    HW229366   0.861   2.933   6.020
75843SOL     OW29367  11.659   0.176   1.939
75843SOL    HW129368  11.577   0.127   1.943
75843SOL    HW229369  11.727   0.110   1.951
75844SOL     OW29370   3.911   6.503   1.518
75844SOL    HW129371   3.853   6.441   1.562
75844SOL    HW229372   3.998   6.483   1.552
75845SOL     OW29373  13.648   0.109   8.692
75845SOL    HW129374  13.673   0.022   8.661
75845SOL    HW229375  13.569   0.094   8.744
75846SOL     OW29376  13.444   5.658   0.935
75846SOL    HW129377  13.479   5.669   0.847
75846SOL    HW229378  13.378   5.727   0.943
75847SOL     OW29379   7.288  14.364  14.489
75847SOL    HW129380   7.247  14.301  14.429
75847SOL    HW229381   7.235  14.443  14.483
75848SOL     OW29382   1.565   8.407   7.806
75848SOL    HW129383   1.599   8.483   7.853
75848SOL    HW229384   1.600   8.331   7.853
75849SOL     OW29385   9.139   3.555   6.673
75849SOL    HW129386   9.213   3.529   6.727
75849SOL    HW229387   9.114   3.476   6.625
75850SOL     OW29388   2.884   0.715  14.127
75850SOL    HW129389   2.820   0.726  14.056
75850SOL    HW229390   2.894   0.803  14.164
75851SOL     OW29391  12.931   9.135   8.702
75851SOL    HW129392  12.955   9.062   8.758
75851SOL    HW229393  12.986   9.125   8.624
75852SOL     OW29394  11.742   5.604   3.679
75852SOL    HW129395  11.737   5.615   3.774
75852SOL    HW229396  11.784   5.684   3.648
75853SOL     OW29397  14.438   1.818  12.150
75853SOL    HW129398  14.458   1.832  12.058
75853SOL    HW229399  14.349   1.853  12.161
75854SOL     OW29400   9.292   4.994   9.620
75854SOL    HW129401   9.336   4.993   9.536
75854SOL    HW229402   9.350   4.945   9.678
75855SOL     OW29403  14.186   5.288  12.716
75855SOL    HW129404  14.099   5.327  12.731
75855SOL    HW229405  14.174   5.195  12.735
75856SOL     OW29406  11.329   6.372   8.891
75856SOL    HW129407  11.252   6.315   8.883
75856SOL    HW229408  11.315   6.441   8.826
75857SOL     OW29409  10.632   2.056   0.341
75857SOL    HW129410  10.548   2.059   0.388
75857SOL    HW229411  10.690   2.113   0.393
75858SOL     OW29412   6.558  10.165   0.099
75858SOL    HW129413   6.509  10.241   0.068
75858SOL    HW229414   6.504  10.128   0.168
75859SOL     OW29415   5.790  10.359   6.383
75859SOL    HW129416   5.722  10.309   6.338
75859SOL    HW229417   5.862  10.362   6.320
75860SOL     OW29418   3.785   0.764   8.178
75860SOL    HW129419   3.868   0.807   8.198
75860SOL    HW229420   3.803   0.713   8.099
75861SOL     OW29421   1.650  13.664   7.540
75861SOL    HW129422   1.658  13.722   7.616
75861SOL    HW229423   1.586  13.708   7.484
75862SOL     OW29424  11.877   9.447   1.318
75862SOL    HW129425  11.964   9.408   1.328
75862SOL    HW229426  11.866   9.502   1.396
75863SOL     OW29427  10.110   7.335  13.645
75863SOL    HW129428  10.138   7.414  13.691
75863SOL    HW229429  10.095   7.271  13.714
75864SOL     OW29430   7.780   5.216   4.144
75864SOL    HW129431   7.737   5.196   4.227
75864SOL    HW229432   7.869   5.184   4.155
75865SOL     OW29433  11.456  14.767   3.056
75865SOL    HW129434  11.439  14.695   3.117
75865SOL    HW229435  11.390  14.756   2.988
75866SOL     OW29436   9.969  14.173   9.939
75866SOL    HW129437   9.978  14.122   9.858
75866SOL    HW229438   9.996  14.113  10.008
75867SOL     OW29439   5.762  12.212   1.315
75867SOL    HW129440   5.708  12.141   1.281
75867SOL    HW229441   5.746  12.285   1.256
75868SOL     OW29442   5.512   5.371   3.082
75868SOL    HW129443   5.552   5.310   3.020
75868SOL    HW229444   5.552   5.456   3.060
75869SOL     OW29445   6.405   0.429  13.088
75869SOL    HW129446   6.364   0.507  13.050
75869SOL    HW229447   6.491   0.459  13.117
75870SOL     OW29448  11.193   1.702  12.477
75870SOL    HW129449  11.132   1.776  12.473
75870SOL    HW229450  11.157   1.637  12.417
75871SOL     OW29451  13.127   4.399   1.019
75871SOL    HW129452  13.158   4.448   0.944
75871SOL    HW229453  13.039   4.434   1.037
75872SOL     OW29454   9.966  11.403   1.931
75872SOL    HW129455   9.932  11.481   1.887
75872SOL    HW229456   9.906  11.387   2.003
75873SOL     OW29457   9.455  10.411  10.272
75873SOL    HW129458   9.479  10.468  10.199
75873SOL    HW229459   9.538  10.396  10.319
75874SOL     OW29460   4.925  14.337   5.894
75874SOL    HW129461   4.832  14.318   5.905
75874SOL    HW229462   4.951  14.379   5.976
75875SOL     OW29463   6.837  14.419   0.759
75875SOL    HW129464   6.807  14.334   0.727
75875SOL    HW229465   6.817  14.480   0.688
75876SOL     OW29466   8.700   3.609   6.871
75876SOL    HW129467   8.681   3.691   6.916
75876SOL    HW229468   8.641   3.545   6.911
75877SOL     OW29469   6.991   3.727   3.688
75877SOL    HW129470   7.007   3.729   3.594
75877SOL    HW229471   7.055   3.664   3.722
75878SOL     OW29472   0.648  11.474  14.547
75878SOL    HW129473   0.581  11.540  14.529
75878SOL    HW229474   0.683  11.451  14.461
75879SOL     OW29475   9.854   3.502  14.625
75879SOL    HW129476   9.760   3.488  14.620
75879SOL    HW229477   9.877   3.481  14.715
75880SOL     OW29478   7.834   9.952   0.586
75880SOL    HW129479   7.912  10.001   0.614
75880SOL    HW229480   7.867   9.890   0.521
75881SOL     OW29481   0.701  11.047   2.986
75881SOL    HW129482   0.683  11.105   3.060
75881SOL    HW229483   0.647  11.082   2.915
75882SOL     OW29484   1.743   3.600  12.840
75882SOL    HW129485   1.724   3.624  12.750
75882SOL    HW229486   1.813   3.534  12.833
75883SOL     OW29487   4.553   3.556  11.846
75883SOL    HW129488   4.608   3.612  11.902
75883SOL    HW229489   4.588   3.568  11.758
75884SOL     OW29490  11.585   2.518   6.955
75884SOL    HW129491  11.556   2.593   6.902
75884SOL    HW229492  11.638   2.557   7.024
75885SOL     OW29493   5.788  14.862   0.275
75885SOL    HW129494   5.835  14.780   0.292
75885SOL    HW229495   5.715  14.861   0.337
75886SOL     OW29496   3.526   3.853   2.765
75886SOL    HW129497   3.583   3.803   2.706
75886SOL    HW229498   3.484   3.919   2.709
75887SOL     OW29499   3.435  14.850   6.578
75887SOL    HW129500   3.481  14.870   6.659
75887SOL    HW229501   3.383   0.055   6.560
75888SOL     OW29502  11.972   9.320   1.706
75888SOL    HW129503  11.885   9.310   1.666
75888SOL    HW229504  12.007   9.401   1.668
75889SOL     OW29505  12.108   2.516  12.638
75889SOL    HW129506  12.095   2.425  12.611
75889SOL    HW229507  12.019   2.552  12.644
75890SOL     OW29508  10.580  12.428   4.209
75890SOL    HW129509  10.488  12.444   4.228
75890SOL    HW229510  10.605  12.360   4.272
75891SOL     OW29511   2.084   9.907  10.091
75891SOL    HW129512   2.118   9.977  10.148
75891SOL    HW229513   1.990   9.926  10.083
75892SOL     OW29514   0.305   5.532   4.787
75892SOL    HW129515   0.312   5.447   4.829
75892SOL    HW229516   0.247   5.583   4.844
75893SOL     OW29517  13.961   7.583  13.222
75893SOL    HW129518  14.007   7.639  13.284
75893SOL    HW229519  13.870   7.583  13.253
75894SOL     OW29520   7.837   4.361  13.392
75894SOL    HW129521   7.841   4.426  13.463
75894SOL    HW229522   7.786   4.405  13.324
75895SOL     OW29523   4.751   4.138   9.362
75895SOL    HW129524   4.682   4.083   9.399
75895SOL    HW229525   4.735   4.137   9.268
75896SOL     OW29526  12.913   8.354   6.818
75896SOL    HW129527  13.002   8.388   6.822
75896SOL    HW229528  12.924   8.259   6.809
75897SOL     OW29529   8.377   5.474   6.760
75897SOL    HW129530   8.372   5.543   6.826
75897SOL    HW229531   8.450   5.500   6.704
75898SOL     OW29532   8.087  14.196  13.285
75898SOL    HW129533   8.172  14.232  13.259
75898SOL    HW229534   8.108  14.119  13.338
75899SOL     OW29535   3.456   2.504   7.023
75899SOL    HW129536   3.469   2.557   7.101
75899SOL    HW229537   3.516   2.430   7.033
75900SOL     OW29538   0.621   1.113  13.966
75900SOL    HW129539   0.549   1.094  14.027
75900SOL    HW229540   0.692   1.056  13.995
75901SOL     OW29541   7.287   6.383  13.317
75901SOL    HW129542   7.374   6.343  13.315
75901SOL    HW229543   7.227   6.311  13.296
75902SOL     OW29544   7.566  11.333   2.330
75902SOL    HW129545   7.644  11.279   2.346
75902SOL    HW229546   7.558  11.386   2.409
75903SOL     OW29547   4.244   7.514  14.500
75903SOL    HW129548   4.298   7.577  14.549
75903SOL    HW229549   4.302   7.438  14.488
75904SOL     OW29550  11.624   1.044   4.983
75904SOL    HW129551  11.595   1.127   4.945
75904SOL    HW229552  11.544   0.993   4.992
75905SOL     OW29553  11.839   0.030   0.266
75905SOL    HW129554  11.804  14.817   0.286
75905SOL    HW229555  11.782   0.062   0.195
75906SOL     OW29556  14.832  11.507   0.152
75906SOL    HW129557  14.839  11.412   0.140
75906SOL    HW229558  14.857  11.544   0.067
75907SOL     OW29559   0.452   0.282   2.519
75907SOL    HW129560   0.454   0.242   2.606
75907SOL    HW229561   0.378   0.240   2.475
75908SOL     OW29562   8.053   0.030  12.093
75908SOL    HW129563   7.960   0.021  12.073
75908SOL    HW229564   8.063  14.861  12.178
75909SOL     OW29565   7.130   9.856   1.080
75909SOL    HW129566   7.056   9.914   1.099
75909SOL    HW229567   7.092   9.768   1.080
75910SOL     OW29568   3.217   2.958   6.678
75910SOL    HW129569   3.279   3.007   6.624
75910SOL    HW229570   3.259   2.953   6.764
75911SOL     OW29571  12.610  10.108  10.231
75911SOL    HW129572  12.571  10.034  10.184
75911SOL    HW229573  12.550  10.181  10.214
75912SOL     OW29574   7.707   3.495  12.443
75912SOL    HW129575   7.750   3.410  12.455
75912SOL    HW229576   7.625   3.474  12.398
75913SOL     OW29577  14.409  10.062   1.085
75913SOL    HW129578  14.354  10.122   1.135
75913SOL    HW229579  14.406   9.980   1.134
75914SOL     OW29580   2.325  10.205   9.632
75914SOL    HW129581   2.255  10.187   9.568
75914SOL    HW229582   2.396  10.146   9.607
75915SOL     OW29583   4.666  12.993   8.686
75915SOL    HW129584   4.704  12.968   8.771
75915SOL    HW229585   4.728  12.960   8.621
75916SOL     OW29586  12.275   7.989  12.068
75916SOL    HW129587  12.194   7.955  12.105
75916SOL    HW229588  12.339   7.983  12.140
75917SOL     OW29589   6.931   1.647  11.887
75917SOL    HW129590   7.002   1.708  11.866
75917SOL    HW229591   6.902   1.673  11.974
75918SOL     OW29592   1.803   8.033   3.639
75918SOL    HW129593   1.739   7.962   3.627
75918SOL    HW229594   1.785   8.094   3.568
75919SOL     OW29595   7.576  13.289  13.184
75919SOL    HW129596   7.491  13.329  13.165
75919SOL    HW229597   7.561  13.195  13.178
75920SOL     OW29598   4.328   6.979  11.370
75920SOL    HW129599   4.421   7.002  11.365
75920SOL    HW229600   4.319   6.902  11.313
75921SOL     OW29601   7.322   3.425   3.957
75921SOL    HW129602   7.352   3.466   4.038
75921SOL    HW229603   7.397   3.373   3.928
75922SOL     OW29604  10.559  10.790   8.097
75922SOL    HW129605  10.650  10.791   8.067
75922SOL    HW229606  10.512  10.744   8.028
75923SOL     OW29607   7.185   2.678   7.554
75923SOL    HW129608   7.203   2.738   7.627
75923SOL    HW229609   7.194   2.732   7.476
75924SOL     OW29610   0.369  11.841   8.905
75924SOL    HW129611   0.285  11.824   8.863
75924SOL    HW229612   0.400  11.755   8.932
75925SOL     OW29613  11.980  10.548   2.555
75925SOL    HW129614  12.043  10.529   2.485
75925SOL    HW229615  12.016  10.627   2.598
75926SOL     OW29616  10.333  10.722   1.310
75926SOL    HW129617  10.350  10.702   1.402
75926SOL    HW229618  10.320  10.637   1.268
75927SOL     OW29619  13.654   6.545  10.813
75927SOL    HW129620  13.668   6.476  10.748
75927SOL    HW229621  13.578   6.594  10.780
75928SOL     OW29622   5.252   6.939   3.831
75928SOL    HW129623   5.254   6.893   3.916
75928SOL    HW229624   5.275   7.029   3.853
75929SOL     OW29625   1.368  10.959   0.183
75929SOL    HW129626   1.454  10.921   0.165
75929SOL    HW229627   1.387  11.042   0.226
75930SOL     OW29628   8.940   4.023   9.260
75930SOL    HW129629   8.854   4.061   9.276
75930SOL    HW229630   8.939   3.999   9.168
75931SOL     OW29631   0.095   7.311  10.885
75931SOL    HW129632   0.057   7.356  10.961
75931SOL    HW229633   0.021   7.296  10.827
75932SOL     OW29634  10.725   5.511  13.930
75932SOL    HW129635  10.651   5.548  13.979
75932SOL    HW229636  10.685   5.472  13.853
75933SOL     OW29637   4.494  13.444  13.409
75933SOL    HW129638   4.455  13.531  13.398
75933SOL    HW229639   4.532  13.446  13.497
75934SOL     OW29640   5.330  10.932   9.091
75934SOL    HW129641   5.374  10.871   9.150
75934SOL    HW229642   5.349  11.018   9.126
75935SOL     OW29643   8.345   1.816   0.010
75935SOL    HW129644   8.336   1.753  14.813
75935SOL    HW229645   8.255   1.843   0.029
75936SOL     OW29646   6.865   6.301  11.777
75936SOL    HW129647   6.780   6.266  11.752
75936SOL    HW229648   6.899   6.342  11.697
75937SOL     OW29649   2.666  13.697   1.654
75937SOL    HW129650   2.688  13.608   1.626
75937SOL    HW229651   2.750  13.736   1.677
75938SOL     OW29652  10.477   7.549   1.347
75938SOL    HW129653  10.497   7.457   1.361
75938SOL    HW229654  10.547   7.596   1.392
75939SOL     OW29655  12.513   9.912   6.050
75939SOL    HW129656  12.532   9.942   6.139
75939SOL    HW229657  12.479   9.989   6.005
75940SOL     OW29658   3.944   2.022  12.615
75940SOL    HW129659   3.850   2.032  12.632
75940SOL    HW229660   3.986   2.033  12.700
75941SOL     OW29661   3.462   1.740   0.437
75941SOL    HW129662   3.504   1.656   0.455
75941SOL    HW229663   3.369   1.724   0.451
75942SOL     OW29664  13.467  13.770   5.619
75942SOL    HW129665  13.392  13.717   5.646
75942SOL    HW229666  13.523  13.773   5.696
75943SOL     OW29667   9.692   6.895  10.641
75943SOL    HW129668   9.639   6.972  10.662
75943SOL    HW229669   9.654   6.862  10.559
75944SOL     OW29670  11.188  12.814  13.837
75944SOL    HW129671  11.250  12.755  13.793
75944SOL    HW229672  11.109  12.760  13.850
75945SOL     OW29673   3.196   7.097   1.402
75945SOL    HW129674   3.119   7.154   1.394
75945SOL    HW229675   3.205   7.057   1.316
75946SOL     OW29676  10.104  13.911   4.829
75946SOL    HW129677  10.158  13.900   4.907
75946SOL    HW229678  10.030  13.963   4.857
75947SOL     OW29679   4.750   9.087   0.829
75947SOL    HW129680   4.788   9.078   0.917
75947SOL    HW229681   4.808   9.150   0.785
75948SOL     OW29682   9.974  10.963  11.653
75948SOL    HW129683   9.897  10.905  11.647
75948SOL    HW229684  10.021  10.949  11.571
75949SOL     OW29685  14.084   1.901   2.917
75949SOL    HW129686  14.132   1.836   2.866
75949SOL    HW229687  14.000   1.860   2.936
75950SOL     OW29688   8.656  10.810  10.050
75950SOL    HW129689   8.718  10.866  10.097
75950SOL    HW229690   8.709  10.765   9.985
75951SOL     OW29691   6.120   2.008   7.051
75951SOL    HW129692   6.202   2.044   7.086
75951SOL    HW229693   6.087   1.952   7.121
75952SOL     OW29694   9.422   1.915   0.662
75952SOL    HW129695   9.407   1.955   0.576
75952SOL    HW229696   9.384   1.827   0.653
75953SOL     OW29697   0.671  13.960   6.563
75953SOL    HW129698   0.698  14.052   6.562
75953SOL    HW229699   0.748  13.912   6.532
75954SOL     OW29700   0.303  10.145  10.151
75954SOL    HW129701   0.281  10.052  10.163
75954SOL    HW229702   0.394  10.152  10.181
75955SOL     OW29703   3.643   1.011   0.552
75955SOL    HW129704   3.696   0.959   0.613
75955SOL    HW229705   3.552   0.986   0.572
75956SOL     OW29706   9.366   3.925   4.140
75956SOL    HW129707   9.387   3.985   4.212
75956SOL    HW229708   9.365   3.980   4.062
75957SOL     OW29709   9.627   3.689   0.226
75957SOL    HW129710   9.585   3.721   0.146
75957SOL    HW229711   9.557   3.692   0.292
75958SOL     OW29712  12.609   9.744  14.322
75958SOL    HW129713  12.628   9.687  14.248
75958SOL    HW229714  12.695   9.771  14.355
75959SOL     OW29715  12.302   1.799   3.358
75959SOL    HW129716  12.295   1.887   3.322
75959SOL    HW229717  12.371   1.805   3.424
75960SOL     OW29718   7.008  13.277  10.935
75960SOL    HW129719   7.034  13.328  11.012
75960SOL    HW229720   7.042  13.189  10.952
75961SOL     OW29721   1.092  10.803   7.110
75961SOL    HW129722   1.106  10.857   7.032
75961SOL    HW229723   1.037  10.858   7.167
75962SOL     OW29724   9.269  11.281  11.725
75962SOL    HW129725   9.318  11.213  11.770
75962SOL    HW229726   9.333  11.350  11.710
75963SOL     OW29727  11.121  13.320   3.336
75963SOL    HW129728  11.161  13.244   3.293
75963SOL    HW229729  11.166  13.396   3.298
75964SOL     OW29730   5.677   5.934   1.025
75964SOL    HW129731   5.645   6.023   1.009
75964SOL    HW229732   5.655   5.918   1.117
75965SOL     OW29733  10.038  13.455   3.312
75965SOL    HW129734  10.077  13.437   3.397
75965SOL    HW229735  10.009  13.370   3.279
75966SOL     OW29736   0.620  14.326   7.837
75966SOL    HW129737   0.603  14.394   7.902
75966SOL    HW229738   0.615  14.371   7.753
75967SOL     OW29739  12.633   4.882   9.729
75967SOL    HW129740  12.571   4.954   9.721
75967SOL    HW229741  12.621   4.849   9.818
75968SOL     OW29742  13.799   8.006   2.119
75968SOL    HW129743  13.755   8.049   2.192
75968SOL    HW229744  13.888   7.990   2.150
75969SOL     OW29745   0.837   0.134   3.538
75969SOL    HW129746   0.812   0.225   3.548
75969SOL    HW229747   0.838   0.099   3.628
75970SOL     OW29748   7.200   9.912   4.216
75970SOL    HW129749   7.175   9.947   4.130
75970SOL    HW229750   7.125   9.859   4.243
75971SOL     OW29751   0.786  10.661   3.865
75971SOL    HW129752   0.803  10.730   3.800
75971SOL    HW229753   0.839  10.685   3.940
75972SOL     OW29754  10.811   1.671   8.158
75972SOL    HW129755  10.866   1.730   8.107
75972SOL    HW229756  10.846   1.584   8.140
75973SOL     OW29757  10.782   5.849  12.160
75973SOL    HW129758  10.825   5.764  12.149
75973SOL    HW229759  10.766   5.879  12.071
75974SOL     OW29760   2.584   3.780  11.180
75974SOL    HW129761   2.581   3.751  11.271
75974SOL    HW229762   2.626   3.708  11.133
75975SOL     OW29763   0.089  10.836  13.456
75975SOL    HW129764   0.075  10.745  13.481
75975SOL    HW229765   0.170  10.861  13.501
75976SOL     OW29766   8.929   9.009  11.344
75976SOL    HW129767   9.021   9.026  11.325
75976SOL    HW229768   8.905   9.077  11.408
75977SOL     OW29769  13.182   6.210  14.778
75977SOL    HW129770  13.177   6.305  14.775
75977SOL    HW229771  13.151   6.182  14.692
75978SOL     OW29772  14.496  10.245  12.401
75978SOL    HW129773  14.479  10.281  12.488
75978SOL    HW229774  14.585  10.211  12.406
75979SOL     OW29775   9.067   0.804  11.306
75979SOL    HW129776   9.147   0.774  11.264
75979SOL    HW229777   9.010   0.728  11.307
75980SOL     OW29778   4.235   4.088   9.621
75980SOL    HW129779   4.252   4.020   9.556
75980SOL    HW229780   4.141   4.106   9.613
75981SOL     OW29781  13.636   2.711   6.947
75981SOL    HW129782  13.580   2.759   7.008
75981SOL    HW229783  13.578   2.645   6.908
75982SOL     OW29784   8.527   8.819   1.845
75982SOL    HW129785   8.549   8.726   1.854
75982SOL    HW229786   8.443   8.828   1.891
75983SOL     OW29787   7.430  10.682   9.010
75983SOL    HW129788   7.354  10.733   9.038
75983SOL    HW229789   7.413  10.594   9.043
75984SOL     OW29790   2.415   6.244   1.907
75984SOL    HW129791   2.497   6.287   1.934
75984SOL    HW229792   2.385   6.199   1.986
75985SOL     OW29793  13.635  11.491  14.665
75985SOL    HW129794  13.651  11.475  14.573
75985SOL    HW229795  13.686  11.570  14.685
75986SOL     OW29796   6.077   5.655   0.154
75986SOL    HW129797   6.135   5.720   0.115
75986SOL    HW229798   5.995   5.702   0.168
75987SOL     OW29799  14.146   9.358   0.853
75987SOL    HW129800  14.059   9.321   0.871
75987SOL    HW229801  14.184   9.372   0.939
75988SOL     OW29802   3.124   5.623   9.328
75988SOL    HW129803   3.157   5.562   9.262
75988SOL    HW229804   3.032   5.601   9.339
75989SOL     OW29805  13.939   5.125   9.840
75989SOL    HW129806  13.856   5.143   9.885
75989SOL    HW229807  13.924   5.042   9.795
75990SOL     OW29808  10.968   7.121  11.831
75990SOL    HW129809  10.882   7.080  11.823
75990SOL    HW229810  11.012   7.101  11.748
75991SOL     OW29811   0.660   3.237  11.359
75991SOL    HW129812   0.691   3.305  11.418
75991SOL    HW229813   0.703   3.255  11.276
75992SOL     OW29814  12.189   3.376   1.679
75992SOL    HW129815  12.129   3.302   1.681
75992SOL    HW229816  12.159   3.429   1.605
75993SOL     OW29817   6.499   6.100  11.847
75993SOL    HW129818   6.466   6.010  11.851
75993SOL    HW229819   6.534   6.110  11.759
75994SOL     OW29820   8.705   4.896   0.434
75994SOL    HW129821   8.635   4.956   0.408
75994SOL    HW229822   8.686   4.875   0.525
75995SOL     OW29823   2.716  14.353   1.711
75995SOL    HW129824   2.729  14.329   1.619
75995SOL    HW229825   2.735  14.273   1.760
75996SOL     OW29826  10.180   5.427   3.530
75996SOL    HW129827  10.263   5.461   3.497
75996SOL    HW229828  10.129   5.407   3.451
75997SOL     OW29829   3.270   7.553  14.743
75997SOL    HW129830   3.289   7.465  14.710
75997SOL    HW229831   3.183   7.574  14.708
75998SOL     OW29832   8.653   2.217   5.480
75998SOL    HW129833   8.617   2.153   5.542
75998SOL    HW229834   8.733   2.175   5.446
75999SOL     OW29835  14.805  11.677   8.499
75999SOL    HW129836  14.837  11.598   8.543
75999SOL    HW229837  14.854  11.680   8.416
76000SOL     OW29838   8.031   9.428   0.625
76000SOL    HW129839   8.073   9.394   0.704
76000SOL    HW229840   8.028   9.523   0.639
76001SOL     OW29841   5.342  11.437   4.669
76001SOL    HW129842   5.425  11.407   4.706
76001SOL    HW229843   5.306  11.361   4.625
76002SOL     OW29844   2.890   3.142   2.484
76002SOL    HW129845   2.919   3.092   2.408
76002SOL    HW229846   2.866   3.228   2.449
76003SOL     OW29847  13.136   0.811  13.180
76003SOL    HW129848  13.206   0.755  13.146
76003SOL    HW229849  13.109   0.864  13.106
76004SOL     OW29850  10.525   0.616   9.717
76004SOL    HW129851  10.519   0.706   9.750
76004SOL    HW229852  10.534   0.625   9.623
76005SOL     OW29853   4.316   5.674   3.033
76005SOL    HW129854   4.345   5.713   2.950
76005SOL    HW229855   4.380   5.606   3.052
76006SOL     OW29856   8.483   4.373   2.037
76006SOL    HW129857   8.529   4.448   1.998
76006SOL    HW229858   8.526   4.361   2.122
76007SOL     OW29859   0.698  13.849  12.372
76007SOL    HW129860   0.602  13.855  12.370
76007SOL    HW229861   0.715  13.755  12.368
76008SOL     OW29862  10.354  12.430   5.954
76008SOL    HW129863  10.285  12.491   5.983
76008SOL    HW229864  10.435  12.468   5.988
76009SOL     OW29865  14.099  12.393  11.754
76009SOL    HW129866  14.096  12.299  11.735
76009SOL    HW229867  14.171  12.426  11.701
76010SOL     OW29868   4.584   1.466   1.646
76010SOL    HW129869   4.608   1.394   1.705
76010SOL    HW229870   4.554   1.536   1.704
76011SOL     OW29871   7.735   3.962   1.806
76011SOL    HW129872   7.735   4.042   1.857
76011SOL    HW229873   7.817   3.965   1.757
76012SOL     OW29874   4.786   2.321  12.369
76012SOL    HW129875   4.796   2.297  12.277
76012SOL    HW229876   4.875   2.321  12.404
76013SOL     OW29877   6.651   4.439   1.920
76013SOL    HW129878   6.584   4.493   1.963
76013SOL    HW229879   6.672   4.371   1.984
76014SOL     OW29880   9.842   0.686   2.362
76014SOL    HW129881   9.811   0.641   2.283
76014SOL    HW229882   9.923   0.640   2.385
76015SOL     OW29883   3.075   6.979  10.055
76015SOL    HW129884   3.155   6.953  10.010
76015SOL    HW229885   3.104   7.042  10.121
76016SOL     OW29886  14.005   1.553  12.117
76016SOL    HW129887  13.958   1.631  12.145
76016SOL    HW229888  14.050   1.579  12.037
76017SOL     OW29889   6.097  13.116  11.367
76017SOL    HW129890   6.071  13.029  11.398
76017SOL    HW229891   6.193  13.114  11.368
76018SOL     OW29892  11.717  10.637   3.632
76018SOL    HW129893  11.691  10.637   3.540
76018SOL    HW229894  11.721  10.730   3.655
76019SOL     OW29895   8.855   6.472  14.604
76019SOL    HW129896   8.879   6.564  14.591
76019SOL    HW229897   8.876   6.454  14.696
76020SOL     OW29898   3.590   6.632  12.097
76020SOL    HW129899   3.673   6.678  12.110
76020SOL    HW229900   3.527   6.702  12.078
76021SOL     OW29901   3.038   3.854   8.725
76021SOL    HW129902   3.030   3.833   8.818
76021SOL    HW229903   2.977   3.927   8.712
76022SOL     OW29904   1.931  12.686   3.181
76022SOL    HW129905   1.861  12.669   3.245
76022SOL    HW229906   1.981  12.605   3.178
76023SOL     OW29907   8.210   0.249  13.306
76023SOL    HW129908   8.158   0.281  13.233
76023SOL    HW229909   8.159   0.177  13.342
76024SOL     OW29910   9.965   2.334   9.698
76024SOL    HW129911   9.904   2.403   9.727
76024SOL    HW229912  10.016   2.313   9.777
76025SOL     OW29913  14.295  10.968   5.673
76025SOL    HW129914  14.246  10.894   5.637
76025SOL    HW229915  14.307  11.027   5.599
76026SOL     OW29916   2.859  11.880  12.533
76026SOL    HW129917   2.773  11.919  12.515
76026SOL    HW229918   2.921  11.935  12.484
76027SOL     OW29919  10.258   9.656  11.427
76027SOL    HW129920  10.322   9.587  11.439
76027SOL    HW229921  10.208   9.657  11.509
76028SOL     OW29922  10.598  13.666  14.071
76028SOL    HW129923  10.644  13.686  13.990
76028SOL    HW229924  10.654  13.702  14.140
76029SOL     OW29925  13.994   0.381   4.557
76029SOL    HW129926  13.972   0.357   4.647
76029SOL    HW229927  13.993   0.298   4.509
76030SOL     OW29928   1.880  10.572  10.911
76030SOL    HW129929   1.969  10.546  10.933
76030SOL    HW229930   1.824  10.519  10.966
76031SOL     OW29931  10.806   0.203   6.934
76031SOL    HW129932  10.861   0.196   7.011
76031SOL    HW229933  10.729   0.150   6.954
76032SOL     OW29934  14.156   6.930   5.200
76032SOL    HW129935  14.086   6.929   5.266
76032SOL    HW229936  14.138   6.854   5.145
76033SOL     OW29937  13.945   6.105   4.327
76033SOL    HW129938  13.926   6.034   4.388
76033SOL    HW229939  13.859   6.135   4.297
76034SOL     OW29940  13.431   4.442   7.186
76034SOL    HW129941  13.448   4.447   7.280
76034SOL    HW229942  13.341   4.410   7.179
76035SOL     OW29943   7.833   0.026  14.815
76035SOL    HW129944   7.890   0.073   0.002
76035SOL    HW229945   7.880  14.819  14.795
76036SOL     OW29946  11.993   7.854   2.187
76036SOL    HW129947  12.055   7.824   2.120
76036SOL    HW229948  12.039   7.839   2.269
76037SOL     OW29949   1.420  11.637   5.521
76037SOL    HW129950   1.415  11.672   5.611
76037SOL    HW229951   1.334  11.597   5.507
76038SOL     OW29952   9.465  11.446   9.343
76038SOL    HW129953   9.376  11.460   9.310
76038SOL    HW229954   9.488  11.529   9.385
76039SOL     OW29955   5.792   0.081   9.119
76039SOL    HW129956   5.844   0.150   9.078
76039SOL    HW229957   5.708   0.122   9.138
76040SOL     OW29958  12.669   2.349   9.538
76040SOL    HW129959  12.732   2.370   9.607
76040SOL    HW229960  12.635   2.263   9.562
76041SOL     OW29961  11.578  12.776  13.558
76041SOL    HW129962  11.668  12.753  13.535
76041SOL    HW229963  11.525  12.739  13.488
76042SOL     OW29964  11.145   8.027   4.602
76042SOL    HW129965  11.234   8.023   4.567
76042SOL    HW229966  11.156   8.019   4.697
76043SOL     OW29967   2.331   0.123   0.661
76043SOL    HW129968   2.405   0.078   0.619
76043SOL    HW229969   2.368   0.158   0.742
76044SOL     OW29970  10.590   8.834  14.399
76044SOL    HW129971  10.557   8.761  14.346
76044SOL    HW229972  10.568   8.809  14.489
76045SOL     OW29973   6.735   5.238  13.487
76045SOL    HW129974   6.653   5.197  13.460
76045SOL    HW229975   6.708   5.313  13.540
76046SOL     OW29976   8.993   5.588   9.569
76046SOL    HW129977   8.945   5.629   9.641
76046SOL    HW229978   9.084   5.612   9.585
76047SOL     OW29979   5.532  12.867   6.899
76047SOL    HW129980   5.463  12.910   6.848
76047SOL    HW229981   5.613  12.885   6.850
76048SOL     OW29982  10.440   1.954   0.926
76048SOL    HW129983  10.496   1.908   0.988
76048SOL    HW229984  10.481   2.039   0.916
76049SOL     OW29985   8.501   1.240   2.590
76049SOL    HW129986   8.417   1.193   2.592
76049SOL    HW229987   8.495   1.303   2.662
76050SOL     OW29988  11.918   5.866  13.425
76050SOL    HW129989  11.858   5.878  13.351
76050SOL    HW229990  11.940   5.955  13.453
76051SOL     OW29991   4.367   3.995   3.016
76051SOL    HW129992   4.391   4.074   3.063
76051SOL    HW229993   4.370   4.020   2.923
76052SOL     OW29994   2.337   2.955   7.905
76052SOL    HW129995   2.271   2.997   7.960
76052SOL    HW229996   2.407   2.931   7.965
76053SOL     OW29997   5.636  11.950   8.455
76053SOL    HW129998   5.597  11.868   8.422
76053SOL    HW229999   5.675  11.990   8.378
76054SOL     OW30000  14.512   0.637   9.814
76054SOL    HW130001  14.462   0.561   9.785
76054SOL    HW230002  14.498   0.640   9.909
76055SOL     OW30003   5.232   1.504  14.583
76055SOL    HW130004   5.176   1.458  14.647
76055SOL    HW230005   5.186   1.493  14.500
76056SOL     OW30006  14.515   3.774   0.750
76056SOL    HW130007  14.589   3.728   0.710
76056SOL    HW230008  14.481   3.714   0.816
76057SOL     OW30009  13.775   4.608  10.402
76057SOL    HW130010  13.858   4.565  10.384
76057SOL    HW230011  13.789   4.657  10.483
76058SOL     OW30012   4.293  14.684   7.785
76058SOL    HW130013   4.248  14.708   7.705
76058SOL    HW230014   4.355  14.616   7.758
76059SOL     OW30015   3.678   9.342  10.150
76059SOL    HW130016   3.686   9.347  10.245
76059SOL    HW230017   3.752   9.288  10.122
76060SOL     OW30018   5.302   8.502  13.847
76060SOL    HW130019   5.357   8.578  13.865
76060SOL    HW230020   5.244   8.531  13.777
76061SOL     OW30021   1.907   9.885   4.358
76061SOL    HW130022   1.970   9.914   4.292
76061SOL    HW230023   1.954   9.894   4.441
76062SOL     OW30024  14.241   7.200   7.466
76062SOL    HW130025  14.200   7.285   7.486
76062SOL    HW230026  14.245   7.155   7.549
76063SOL     OW30027   7.713  13.103   0.979
76063SOL    HW130028   7.678  13.096   1.068
76063SOL    HW230029   7.686  13.191   0.950
76064SOL     OW30030  13.047   9.596  14.001
76064SOL    HW130031  13.083   9.509  13.983
76064SOL    HW230032  13.071   9.648  13.924
76065SOL     OW30033   5.929  10.619  13.482
76065SOL    HW130034   5.980  10.596  13.404
76065SOL    HW230035   5.849  10.566  13.474
76066SOL     OW30036   4.756   4.843   8.174
76066SOL    HW130037   4.667   4.824   8.145
76066SOL    HW230038   4.768   4.935   8.153
76067SOL     OW30039  12.848   7.089   9.045
76067SOL    HW130040  12.758   7.120   9.059
76067SOL    HW230041  12.841   6.994   9.048
76068SOL     OW30042   6.948   6.907   1.338
76068SOL    HW130043   6.963   6.921   1.432
76068SOL    HW230044   6.861   6.943   1.322
76069SOL     OW30045  10.793   2.641   6.351
76069SOL    HW130046  10.737   2.718   6.356
76069SOL    HW230047  10.732   2.567   6.347
76070SOL     OW30048   4.981   9.052  10.619
76070SOL    HW130049   4.989   9.063  10.713
76070SOL    HW230050   5.025   8.969  10.600
76071SOL     OW30051   5.595   7.132   4.675
76071SOL    HW130052   5.553   7.158   4.757
76071SOL    HW230053   5.671   7.189   4.668
76072SOL     OW30054  14.321  12.335   2.768
76072SOL    HW130055  14.264  12.259   2.780
76072SOL    HW230056  14.285  12.380   2.691
76073SOL     OW30057  13.950   7.073   3.060
76073SOL    HW130058  13.872   7.097   3.011
76073SOL    HW230059  14.002   7.021   2.999
76074SOL     OW30060   9.989   3.854  13.097
76074SOL    HW130061  10.037   3.935  13.116
76074SOL    HW230062   9.961   3.863  13.006
76075SOL     OW30063   9.175   8.133  13.898
76075SOL    HW130064   9.128   8.108  13.977
76075SOL    HW230065   9.112   8.183  13.847
76076SOL     OW30066   9.148   8.570  10.717
76076SOL    HW130067   9.210   8.629  10.760
76076SOL    HW230068   9.137   8.607  10.629
76077SOL     OW30069   2.345  14.758   9.105
76077SOL    HW130070   2.361  14.793   9.193
76077SOL    HW230071   2.336  14.664   9.118
76078SOL     OW30072   3.254  11.395   1.190
76078SOL    HW130073   3.193  11.373   1.119
76078SOL    HW230074   3.198  11.434   1.258
76079SOL     OW30075   3.370  12.338   8.535
76079SOL    HW130076   3.343  12.274   8.601
76079SOL    HW230077   3.292  12.350   8.480
76080SOL     OW30078  14.761  11.904  13.268
76080SOL    HW130079  14.834  11.964  13.284
76080SOL    HW230080  14.788  11.854  13.190
76081SOL     OW30081   5.830   9.168   4.944
76081SOL    HW130082   5.745   9.181   4.901
76081SOL    HW230083   5.856   9.079   4.919
76082SOL     OW30084   6.309   9.882   5.327
76082SOL    HW130085   6.290   9.792   5.354
76082SOL    HW230086   6.404   9.892   5.340
76083SOL     OW30087   9.872   8.375  12.570
76083SOL    HW130088   9.946   8.432  12.592
76083SOL    HW230089   9.908   8.286  12.575
76084SOL     OW30090  14.065  10.942   9.764
76084SOL    HW130091  14.114  11.018   9.732
76084SOL    HW230092  13.985  10.942   9.711
76085SOL     OW30093   1.097   8.290   1.630
76085SOL    HW130094   1.068   8.353   1.564
76085SOL    HW230095   1.023   8.284   1.691
76086SOL     OW30096  10.925  10.489   3.227
76086SOL    HW130097  10.953  10.559   3.287
76086SOL    HW230098  10.935  10.409   3.278
76087SOL     OW30099   0.240   6.783  14.626
76087SOL    HW130100   0.252   6.841  14.551
76087SOL    HW230101   0.291   6.705  14.605
76088SOL     OW30102   0.404  12.624   4.285
76088SOL    HW130103   0.346  12.647   4.358
76088SOL    HW230104   0.445  12.542   4.312
76089SOL     OW30105   0.872  13.631   0.058
76089SOL    HW130106   0.939  13.563   0.060
76089SOL    HW230107   0.921  13.713   0.045
76090SOL     OW30108   5.566   1.205  10.385
76090SOL    HW130109   5.511   1.190  10.461
76090SOL    HW230110   5.652   1.171  10.411
76091SOL     OW30111   6.453  10.728  14.777
76091SOL    HW130112   6.538  10.698  14.810
76091SOL    HW230113   6.467  10.737  14.682
76092SOL     OW30114   4.853   1.206   5.367
76092SOL    HW130115   4.824   1.217   5.457
76092SOL    HW230116   4.883   1.293   5.341
76093SOL     OW30117   8.637   3.034   5.069
76093SOL    HW130118   8.614   3.110   5.015
76093SOL    HW230119   8.723   3.008   5.038
76094SOL     OW30120   3.460   0.821   0.097
76094SOL    HW130121   3.489   0.812   0.007
76094SOL    HW230122   3.499   0.746   0.142
76095SOL     OW30123  14.725   9.285  11.102
76095SOL    HW130124  14.662   9.222  11.136
76095SOL    HW230125  14.796   9.285  11.166
76096SOL     OW30126  13.479   4.945   4.807
76096SOL    HW130127  13.410   5.011   4.815
76096SOL    HW230128  13.555   4.994   4.774
76097SOL     OW30129  13.102   8.811   9.532
76097SOL    HW130130  13.139   8.813   9.444
76097SOL    HW230131  13.022   8.863   9.526
76098SOL     OW30132   3.164   7.152   9.608
76098SOL    HW130133   3.108   7.162   9.685
76098SOL    HW230134   3.182   7.058   9.604
76099SOL     OW30135   2.861   4.953  11.410
76099SOL    HW130136   2.916   4.880  11.383
76099SOL    HW230137   2.775   4.933  11.373
76100SOL     OW30138   7.385   3.021   8.471
76100SOL    HW130139   7.360   2.963   8.399
76100SOL    HW230140   7.339   3.103   8.454
76101SOL     OW30141   2.899  11.483   6.602
76101SOL    HW130142   2.920  11.515   6.690
76101SOL    HW230143   2.856  11.399   6.617
76102SOL     OW30144   8.728   9.198  11.212
76102SOL    HW130145   8.753   9.112  11.246
76102SOL    HW230146   8.729   9.187  11.117
76103SOL     OW30147   0.324   9.368   0.020
76103SOL    HW130148   0.407   9.333   0.053
76103SOL    HW230149   0.320   9.457   0.057
76104SOL     OW30150   5.807   0.000   7.623
76104SOL    HW130151   5.876   0.037   7.567
76104SOL    HW230152   5.784   0.072   7.682
76105SOL     OW30153  13.035  14.415   5.696
76105SOL    HW130154  12.986  14.496   5.681
76105SOL    HW230155  13.063  14.422   5.788
76106SOL     OW30156   0.383  14.834   2.488
76106SOL    HW130157   0.311   0.020   2.468
76106SOL    HW230158   0.390  14.837   2.584
76107SOL     OW30159  12.630  10.684   8.823
76107SOL    HW130160  12.651  10.612   8.884
76107SOL    HW230161  12.657  10.651   8.737
76108SOL     OW30162   7.682   7.526   4.604
76108SOL    HW130163   7.607   7.468   4.610
76108SOL    HW230164   7.644   7.613   4.590
76109SOL     OW30165  11.362  11.833   2.720
76109SOL    HW130166  11.391  11.748   2.752
76109SOL    HW230167  11.422  11.853   2.648
76110SOL     OW30168   0.132  10.986   5.166
76110SOL    HW130169   0.208  10.951   5.119
76110SOL    HW230170   0.071  10.912   5.171
76111SOL     OW30171  11.169   9.261  14.537
76111SOL    HW130172  11.120   9.179  14.529
76111SOL    HW230173  11.220   9.251  14.617
76112SOL     OW30174   9.571   1.169   0.869
76112SOL    HW130175   9.594   1.077   0.881
76112SOL    HW230176   9.627   1.216   0.931
76113SOL     OW30177  10.854   9.930  13.504
76113SOL    HW130178  10.775   9.917  13.555
76113SOL    HW230179  10.920   9.957  13.567
76114SOL     OW30180   5.034  12.162  10.999
76114SOL    HW130181   5.062  12.070  10.998
76114SOL    HW230182   5.082  12.201  11.072
76115SOL     OW30183   8.512   6.348  12.055
76115SOL    HW130184   8.416   6.354  12.057
76115SOL    HW230185   8.531   6.296  11.977
76116SOL     OW30186  13.728   5.442  11.622
76116SOL    HW130187  13.782   5.483  11.690
76116SOL    HW230188  13.787   5.382  11.577
76117SOL     OW30189  12.842   2.312   4.140
76117SOL    HW130190  12.846   2.240   4.076
76117SOL    HW230191  12.931   2.345   4.145
76118SOL     OW30192   2.094   0.959   4.875
76118SOL    HW130193   2.112   0.918   4.791
76118SOL    HW230194   2.162   0.925   4.933
76119SOL     OW30195   2.585   9.229  11.650
76119SOL    HW130196   2.584   9.313  11.605
76119SOL    HW230197   2.630   9.245  11.732
76120SOL     OW30198  11.812   1.851   5.783
76120SOL    HW130199  11.777   1.938   5.763
76120SOL    HW230200  11.734   1.798   5.800
76121SOL     OW30201  12.061   8.801  13.709
76121SOL    HW130202  12.133   8.780  13.769
76121SOL    HW230203  12.010   8.868  13.755
76122SOL     OW30204   8.116   6.472   6.445
76122SOL    HW130205   8.105   6.552   6.393
76122SOL    HW230206   8.055   6.410   6.405
76123SOL     OW30207   7.181  13.848  14.002
76123SOL    HW130208   7.218  13.918  13.948
76123SOL    HW230209   7.237  13.772  13.983
76124SOL     OW30210   1.941   5.259  12.864
76124SOL    HW130211   1.903   5.188  12.916
76124SOL    HW230212   2.005   5.216  12.807
76125SOL     OW30213   3.607  13.791   9.172
76125SOL    HW130214   3.657  13.859   9.217
76125SOL    HW230215   3.533  13.837   9.133
76126SOL     OW30216   2.313  11.363   5.215
76126SOL    HW130217   2.258  11.322   5.149
76126SOL    HW230218   2.367  11.425   5.165
76127SOL     OW30219  10.312  12.579  11.493
76127SOL    HW130220  10.223  12.553  11.469
76127SOL    HW230221  10.368  12.524  11.438
76128SOL     OW30222   3.532   5.799   3.582
76128SOL    HW130223   3.593   5.833   3.648
76128SOL    HW230224   3.509   5.712   3.614
76129SOL     OW30225   0.908   9.277  10.302
76129SOL    HW130226   0.916   9.209  10.368
76129SOL    HW230227   0.999   9.301  10.282
76130SOL     OW30228   7.273   1.541   0.623
76130SOL    HW130229   7.361   1.504   0.629
76130SOL    HW230230   7.275   1.617   0.681
76131SOL     OW30231   3.463   9.768  10.935
76131SOL    HW130232   3.407   9.846  10.937
76131SOL    HW230233   3.502   9.770  10.847
76132SOL     OW30234  14.783  11.138   4.624
76132SOL    HW130235   0.001  11.130   4.599
76132SOL    HW230236  14.768  11.232   4.633
76133SOL     OW30237   1.143   5.898   6.287
76133SOL    HW130238   1.227   5.860   6.263
76133SOL    HW230239   1.140   5.983   6.244
76134SOL     OW30240  12.552  11.358   4.658
76134SOL    HW130241  12.578  11.333   4.569
76134SOL    HW230242  12.598  11.296   4.714
76135SOL     OW30243  11.436   3.944  11.191
76135SOL    HW130244  11.428   3.854  11.159
76135SOL    HW230245  11.356   3.958  11.242
76136SOL     OW30246   8.983   4.248   5.581
76136SOL    HW130247   8.928   4.324   5.560
76136SOL    HW230248   8.994   4.203   5.498
76137SOL     OW30249   6.106   1.167   1.795
76137SOL    HW130250   6.104   1.178   1.700
76137SOL    HW230251   6.024   1.207   1.825
76138SOL     OW30252  11.200   2.930  12.025
76138SOL    HW130253  11.254   2.894  11.955
76138SOL    HW230254  11.129   2.975  11.980
76139SOL     OW30255   0.774  12.667   5.276
76139SOL    HW130256   0.681  12.646   5.281
76139SOL    HW230257   0.792  12.675   5.183
76140SOL     OW30258  11.617   5.108  13.429
76140SOL    HW130259  11.563   5.077  13.357
76140SOL    HW230260  11.674   5.174  13.389
76141SOL     OW30261   5.933   5.998   4.865
76141SOL    HW130262   5.888   5.959   4.791
76141SOL    HW230263   5.866   6.050   4.910
76142SOL     OW30264  11.987  11.032  10.729
76142SOL    HW130265  11.893  11.037  10.745
76142SOL    HW230266  12.008  10.939  10.737
76143SOL     OW30267   0.332   0.082   6.598
76143SOL    HW130268   0.338   0.007   6.540
76143SOL    HW230269   0.239   0.087   6.622
76144SOL     OW30270   1.920  14.378   8.772
76144SOL    HW130271   1.895  14.341   8.857
76144SOL    HW230272   2.006  14.341   8.753
76145SOL     OW30273   1.313   3.549  13.151
76145SOL    HW130274   1.225   3.562  13.114
76145SOL    HW230275   1.372   3.564  13.077
76146SOL     OW30276   0.712   8.027   7.144
76146SOL    HW130277   0.756   7.943   7.151
76146SOL    HW230278   0.753   8.081   7.212
76147SOL     OW30279   6.967   5.700   8.148
76147SOL    HW130280   6.995   5.752   8.073
76147SOL    HW230281   6.887   5.741   8.178
76148SOL     OW30282   0.809  13.720  10.126
76148SOL    HW130283   0.778  13.642  10.172
76148SOL    HW230284   0.812  13.788  10.194
76149SOL     OW30285  11.582  10.169  11.874
76149SOL    HW130286  11.651  10.113  11.910
76149SOL    HW230287  11.512  10.109  11.851
76150SOL     OW30288   4.394  12.199  10.664
76150SOL    HW130289   4.456  12.250  10.715
76150SOL    HW230290   4.419  12.215  10.573
76151SOL     OW30291   0.290   1.267   2.842
76151SOL    HW130292   0.282   1.256   2.747
76151SOL    HW230293   0.359   1.332   2.853
76152SOL     OW30294  14.089   1.211   5.515
76152SOL    HW130295  14.057   1.143   5.573
76152SOL    HW230296  14.174   1.237   5.552
76153SOL     OW30297   3.697  12.827   0.017
76153SOL    HW130298   3.714  12.900   0.077
76153SOL    HW230299   3.639  12.863  14.825
76154SOL     OW30300   4.162   0.381   4.457
76154SOL    HW130301   4.174   0.440   4.382
76154SOL    HW230302   4.162   0.439   4.533
76155SOL     OW30303   4.092  12.363  10.135
76155SOL    HW130304   4.067  12.272  10.148
76155SOL    HW230305   4.131  12.365  10.047
76156SOL     OW30306   9.018   5.812   2.252
76156SOL    HW130307   9.030   5.900   2.217
76156SOL    HW230308   9.024   5.754   2.176
76157SOL     OW30309   9.043   3.761   1.391
76157SOL    HW130310   9.138   3.760   1.375
76157SOL    HW230311   9.017   3.669   1.383
76158SOL     OW30312  13.628   0.730   9.518
76158SOL    HW130313  13.579   0.811   9.520
76158SOL    HW230314  13.718   0.755   9.541
76159SOL     OW30315   0.688   9.746   7.969
76159SOL    HW130316   0.751   9.692   7.922
76159SOL    HW230317   0.700   9.723   8.062
76160SOL     OW30318   8.724   1.674  13.637
76160SOL    HW130319   8.662   1.602  13.650
76160SOL    HW230320   8.802   1.633  13.601
76161SOL     OW30321   6.659   5.076   4.830
76161SOL    HW130322   6.649   5.008   4.896
76161SOL    HW230323   6.751   5.101   4.835
76162SOL     OW30324  12.418   4.268  10.274
76162SOL    HW130325  12.493   4.223  10.234
76162SOL    HW230326  12.398   4.340  10.214
76163SOL     OW30327   6.892   0.423   6.657
76163SOL    HW130328   6.896   0.357   6.587
76163SOL    HW230329   6.831   0.489   6.624
76164SOL     OW30330   8.582   0.769  14.241
76164SOL    HW130331   8.578   0.741  14.332
76164SOL    HW230332   8.603   0.862  14.245
76165SOL     OW30333   6.476   2.067  12.155
76165SOL    HW130334   6.497   2.079  12.247
76165SOL    HW230335   6.384   2.041  12.154
76166SOL     OW30336   9.022   8.942   4.947
76166SOL    HW130337   9.095   8.881   4.934
76166SOL    HW230338   8.955   8.890   4.989
76167SOL     OW30339  11.668  14.494   5.311
76167SOL    HW130340  11.576  14.470   5.323
76167SOL    HW230341  11.674  14.583   5.344
76168SOL     OW30342   6.217  14.325   5.700
76168SOL    HW130343   6.196  14.314   5.607
76168SOL    HW230344   6.299  14.278   5.711
76169SOL     OW30345  12.254   0.758   0.645
76169SOL    HW130346  12.251   0.765   0.550
76169SOL    HW230347  12.331   0.705   0.664
76170SOL     OW30348  11.668   6.326   1.995
76170SOL    HW130349  11.738   6.273   2.034
76170SOL    HW230350  11.699   6.346   1.907
76171SOL     OW30351   1.543   4.578   0.694
76171SOL    HW130352   1.500   4.495   0.674
76171SOL    HW230353   1.524   4.634   0.619
76172SOL     OW30354   8.300  11.319   7.551
76172SOL    HW130355   8.334  11.351   7.635
76172SOL    HW230356   8.251  11.240   7.574
76173SOL     OW30357  11.437   7.626   1.744
76173SOL    HW130358  11.425   7.721   1.755
76173SOL    HW230359  11.425   7.591   1.833
76174SOL     OW30360   8.820   1.160   8.087
76174SOL    HW130361   8.741   1.207   8.061
76174SOL    HW230362   8.802   1.069   8.062
76175SOL     OW30363  13.404   2.651  12.464
76175SOL    HW130364  13.359   2.713  12.522
76175SOL    HW230365  13.494   2.649  12.496
76176SOL     OW30366   0.388   1.940   1.656
76176SOL    HW130367   0.313   1.895   1.617
76176SOL    HW230368   0.383   1.919   1.749
76177SOL     OW30369   6.619   2.710  10.754
76177SOL    HW130370   6.709   2.719  10.722
76177SOL    HW230371   6.570   2.776  10.704
76178SOL     OW30372   6.281   9.951   3.826
76178SOL    HW130373   6.365   9.967   3.870
76178SOL    HW230374   6.216   9.962   3.896
76179SOL     OW30375   2.822   8.142   0.512
76179SOL    HW130376   2.884   8.073   0.485
76179SOL    HW230377   2.743   8.094   0.537
76180SOL     OW30378   2.087   0.855   2.350
76180SOL    HW130379   1.993   0.861   2.364
76180SOL    HW230380   2.098   0.868   2.256
76181SOL     OW30381  12.897   9.739  11.978
76181SOL    HW130382  12.893   9.737  12.074
76181SOL    HW230383  12.951   9.664  11.954
76182SOL     OW30384   6.698   9.672  11.503
76182SOL    HW130385   6.707   9.581  11.473
76182SOL    HW230386   6.606   9.680  11.527
76183SOL     OW30387   7.972   9.929   9.041
76183SOL    HW130388   8.043   9.870   9.067
76183SOL    HW230389   8.015  10.013   9.027
76184SOL     OW30390   8.880  12.534   9.104
76184SOL    HW130391   8.838  12.620   9.101
76184SOL    HW230392   8.860  12.495   9.019
76185SOL     OW30393   5.379  13.825   7.447
76185SOL    HW130394   5.288  13.831   7.418
76185SOL    HW230395   5.391  13.732   7.469
76186SOL     OW30396   5.230   9.124   2.602
76186SOL    HW130397   5.285   9.059   2.646
76186SOL    HW230398   5.141   9.095   2.620
76187SOL     OW30399   7.837  10.881  11.384
76187SOL    HW130400   7.904  10.898  11.450
76187SOL    HW230401   7.878  10.821  11.323
76188SOL     OW30402   4.642   1.700  11.641
76188SOL    HW130403   4.605   1.752  11.569
76188SOL    HW230404   4.618   1.610  11.620
76189SOL     OW30405   0.035   0.745   7.646
76189SOL    HW130406   0.088   0.812   7.603
76189SOL    HW230407  14.837   0.793   7.686
76190SOL     OW30408   8.210   8.676   9.514
76190SOL    HW130409   8.195   8.749   9.453
76190SOL    HW230410   8.146   8.690   9.584
76191SOL     OW30411   1.090   5.752   1.273
76191SOL    HW130412   1.006   5.780   1.309
76191SOL    HW230413   1.150   5.754   1.348
76192SOL     OW30414   0.930  13.687   7.812
76192SOL    HW130415   0.867  13.711   7.880
76192SOL    HW230416   0.976  13.768   7.791
76193SOL     OW30417  12.632   1.275   0.426
76193SOL    HW130418  12.707   1.257   0.482
76193SOL    HW230419  12.594   1.189   0.408
76194SOL     OW30420   9.394   8.353   7.163
76194SOL    HW130421   9.384   8.258   7.157
76194SOL    HW230422   9.415   8.380   7.074
76195SOL     OW30423   7.137   0.480   5.830
76195SOL    HW130424   7.165   0.519   5.913
76195SOL    HW230425   7.186   0.527   5.763
76196SOL     OW30426   1.923   2.533   0.356
76196SOL    HW130427   1.841   2.556   0.312
76196SOL    HW230428   1.971   2.616   0.362
76197SOL     OW30429   2.664   9.985  13.031
76197SOL    HW130430   2.648   9.920  13.099
76197SOL    HW230431   2.738   9.951  12.982
76198SOL     OW30432   7.005  14.846  14.573
76198SOL    HW130433   6.919  14.824  14.538
76198SOL    HW230434   7.033   0.048  14.523
76199SOL     OW30435  12.234  13.988   9.700
76199SOL    HW130436  12.239  13.902   9.659
76199SOL    HW230437  12.173  13.977   9.773
76200SOL     OW30438  11.927   1.114   1.964
76200SOL    HW130439  11.958   1.092   1.876
76200SOL    HW230440  11.994   1.077   2.022
76201SOL     OW30441   8.692   9.281  13.191
76201SOL    HW130442   8.659   9.203  13.234
76201SOL    HW230443   8.711   9.342  13.262
76202SOL     OW30444   4.765  12.667  13.801
76202SOL    HW130445   4.685  12.705  13.763
76202SOL    HW230446   4.835  12.727  13.775
76203SOL     OW30447   0.089  12.766   7.761
76203SOL    HW130448   0.146  12.717   7.820
76203SOL    HW230449   0.121  12.744   7.673
76204SOL     OW30450  14.601   1.377   7.032
76204SOL    HW130451  14.570   1.447   7.089
76204SOL    HW230452  14.686   1.353   7.068
76205SOL     OW30453   2.474  11.039  10.631
76205SOL    HW130454   2.461  11.033  10.536
76205SOL    HW230455   2.385  11.039  10.667
76206SOL     OW30456   1.403  10.579   1.990
76206SOL    HW130457   1.318  10.612   2.020
76206SOL    HW230458   1.398  10.484   2.004
76207SOL     OW30459  11.074   5.730   4.305
76207SOL    HW130460  11.131   5.746   4.380
76207SOL    HW230461  11.134   5.703   4.235
76208SOL     OW30462   2.204   6.323  13.016
76208SOL    HW130463   2.128   6.316  12.959
76208SOL    HW230464   2.191   6.406  13.064
76209SOL     OW30465  14.485   9.494   1.020
76209SOL    HW130466  14.506   9.550   1.095
76209SOL    HW230467  14.436   9.421   1.056
76210SOL     OW30468   5.988   8.932   7.471
76210SOL    HW130469   6.010   8.888   7.553
76210SOL    HW230470   6.009   8.867   7.403
76211SOL     OW30471   9.762  14.715  13.710
76211SOL    HW130472   9.853  14.685  13.716
76211SOL    HW230473   9.723  14.686  13.793
76212SOL     OW30474   7.787   5.629   0.230
76212SOL    HW130475   7.826   5.614   0.143
76212SOL    HW230476   7.833   5.568   0.288
76213SOL     OW30477  13.361  14.367   8.522
76213SOL    HW130478  13.395  14.349   8.434
76213SOL    HW230479  13.269  14.388   8.509
76214SOL     OW30480   6.910   4.718   4.940
76214SOL    HW130481   6.995   4.716   4.983
76214SOL    HW230482   6.878   4.628   4.946
76215SOL     OW30483  11.694   5.529   2.085
76215SOL    HW130484  11.751   5.558   2.014
76215SOL    HW230485  11.753   5.489   2.148
76216SOL     OW30486   1.699   5.530  12.301
76216SOL    HW130487   1.628   5.472  12.275
76216SOL    HW230488   1.756   5.534  12.225
76217SOL     OW30489  13.306   4.677   7.122
76217SOL    HW130490  13.357   4.756   7.140
76217SOL    HW230491  13.361   4.605   7.154
76218SOL     OW30492  14.079  13.153  10.087
76218SOL    HW130493  14.134  13.166  10.164
76218SOL    HW230494  14.013  13.089  10.114
76219SOL     OW30495   6.747   9.095  14.213
76219SOL    HW130496   6.790   9.098  14.128
76219SOL    HW230497   6.676   9.031  14.202
76220SOL     OW30498  14.306   7.357   2.155
76220SOL    HW130499  14.385   7.392   2.112
76220SOL    HW230500  14.339   7.287   2.211
76221SOL     OW30501   2.827   1.773   2.123
76221SOL    HW130502   2.739   1.775   2.084
76221SOL    HW230503   2.843   1.863   2.152
76222SOL     OW30504   4.064   0.070  12.090
76222SOL    HW130505   4.062   0.166  12.090
76222SOL    HW230506   3.993   0.045  12.149
76223SOL     OW30507  11.404   4.534   3.955
76223SOL    HW130508  11.407   4.605   3.891
76223SOL    HW230509  11.453   4.567   4.030
76224SOL     OW30510   8.447   2.469   9.880
76224SOL    HW130511   8.427   2.546   9.827
76224SOL    HW230512   8.380   2.406   9.855
76225SOL     OW30513  11.773   9.806  13.673
76225SOL    HW130514  11.797   9.719  13.705
76225SOL    HW230515  11.855   9.857  13.677
76226SOL     OW30516   2.571   8.901  11.057
76226SOL    HW130517   2.507   8.920  10.988
76226SOL    HW230518   2.518   8.890  11.136
76227SOL     OW30519   1.388   0.105   2.704
76227SOL    HW130520   1.368   0.193   2.737
76227SOL    HW230521   1.409   0.118   2.612
76228SOL     OW30522   6.931  14.452   4.499
76228SOL    HW130523   6.999  14.396   4.460
76228SOL    HW230524   6.849  14.406   4.480
76229SOL     OW30525   9.136  14.832   5.648
76229SOL    HW130526   9.204  14.854   5.584
76229SOL    HW230527   9.163  14.747   5.682
76230SOL     OW30528  14.762   1.625  13.736
76230SOL    HW130529  14.747   1.570  13.658
76230SOL    HW230530  14.855   1.615  13.756
76231SOL     OW30531   6.785  13.985   7.739
76231SOL    HW130532   6.855  13.967   7.676
76231SOL    HW230533   6.776  13.904   7.789
76232SOL     OW30534   4.320   8.926  11.258
76232SOL    HW130535   4.254   8.904  11.324
76232SOL    HW230536   4.270   8.945  11.179
76233SOL     OW30537   9.030  13.573  11.405
76233SOL    HW130538   9.041  13.635  11.478
76233SOL    HW230539   9.118  13.563  11.369
76234SOL     OW30540   9.721   0.870   0.195
76234SOL    HW130541   9.739   0.911   0.110
76234SOL    HW230542   9.739   0.939   0.259
76235SOL     OW30543   8.814   9.946   2.045
76235SOL    HW130544   8.736  10.000   2.057
76235SOL    HW230545   8.811   9.882   2.116
76236SOL     OW30546   9.437  14.360   3.573
76236SOL    HW130547   9.486  14.443   3.578
76236SOL    HW230548   9.465  14.311   3.650
76237SOL     OW30549  10.101   2.276   2.873
76237SOL    HW130550  10.028   2.221   2.846
76237SOL    HW230551  10.079   2.364   2.841
76238SOL     OW30552   2.251   7.566   3.854
76238SOL    HW130553   2.273   7.658   3.870
76238SOL    HW230554   2.156   7.565   3.844
76239SOL     OW30555   4.099   3.943  12.731
76239SOL    HW130556   4.064   3.956  12.642
76239SOL    HW230557   4.176   3.999  12.735
76240SOL     OW30558   8.286   0.327  10.917
76240SOL    HW130559   8.327   0.401  10.961
76240SOL    HW230560   8.319   0.330  10.827
76241SOL     OW30561   9.927   4.402  10.443
76241SOL    HW130562   9.945   4.355  10.362
76241SOL    HW230563   9.947   4.339  10.512
76242SOL     OW30564  12.356   5.661   6.309
76242SOL    HW130565  12.431   5.610   6.340
76242SOL    HW230566  12.377   5.751   6.332
76243SOL     OW30567  12.444   7.667   2.742
76243SOL    HW130568  12.421   7.679   2.650
76243SOL    HW230569  12.437   7.573   2.756
76244SOL     OW30570   2.998  14.859   5.391
76244SOL    HW130571   3.025  14.769   5.407
76244SOL    HW230572   2.919  14.870   5.444
76245SOL     OW30573   8.075  14.272  14.340
76245SOL    HW130574   8.035  14.321  14.269
76245SOL    HW230575   8.002  14.245  14.395
76246SOL     OW30576   6.427   7.807   7.510
76246SOL    HW130577   6.354   7.862   7.483
76246SOL    HW230578   6.425   7.809   7.606
76247SOL     OW30579  13.445   2.667  11.585
76247SOL    HW130580  13.521   2.681  11.528
76247SOL    HW230581  13.479   2.682  11.673
76248SOL     OW30582  11.472   8.425  11.395
76248SOL    HW130583  11.411   8.463  11.458
76248SOL    HW230584  11.477   8.490  11.325
76249SOL     OW30585   3.281   2.003   6.277
76249SOL    HW130586   3.325   2.078   6.316
76249SOL    HW230587   3.278   1.938   6.346
76250SOL     OW30588   2.812   1.485   5.875
76250SOL    HW130589   2.896   1.466   5.834
76250SOL    HW230590   2.783   1.567   5.833
76251SOL     OW30591  10.979   3.888   3.604
76251SOL    HW130592  10.940   3.872   3.518
76251SOL    HW230593  10.909   3.929   3.655
76252SOL     OW30594   8.873   4.550   7.342
76252SOL    HW130595   8.829   4.625   7.382
76252SOL    HW230596   8.827   4.474   7.377
76253SOL     OW30597  10.731  11.853  10.346
76253SOL    HW130598  10.776  11.897  10.275
76253SOL    HW230599  10.799  11.836  10.411
76254SOL     OW30600  11.457  13.317   6.102
76254SOL    HW130601  11.415  13.394   6.064
76254SOL    HW230602  11.483  13.264   6.027
76255SOL     OW30603   1.609  10.344   1.849
76255SOL    HW130604   1.627  10.419   1.793
76255SOL    HW230605   1.667  10.275   1.816
76256SOL     OW30606   0.696  10.034   1.392
76256SOL    HW130607   0.617  10.015   1.442
76256SOL    HW230608   0.716   9.953   1.346
76257SOL     OW30609  13.709  10.203   2.091
76257SOL    HW130610  13.803  10.192   2.073
76257SOL    HW230611  13.666  10.163   2.016
76258SOL     OW30612  12.076   5.300   0.003
76258SOL    HW130613  12.082   5.368  14.810
76258SOL    HW230614  11.990   5.261  14.863
76259SOL     OW30615  10.309   7.613   9.705
76259SOL    HW130616  10.375   7.682   9.694
76259SOL    HW230617  10.344   7.539   9.655
76260SOL     OW30618  10.675   8.952  13.043
76260SOL    HW130619  10.603   9.007  13.013
76260SOL    HW230620  10.753   9.007  13.035
76261SOL     OW30621   6.153  14.780   1.034
76261SOL    HW130622   6.216  14.726   1.081
76261SOL    HW230623   6.155  14.865   1.080
76262SOL     OW30624  13.608   0.814   5.479
76262SOL    HW130625  13.519   0.783   5.496
76262SOL    HW230626  13.628   0.781   5.392
76263SOL     OW30627  13.395   7.830  10.721
76263SOL    HW130628  13.436   7.879  10.793
76263SOL    HW230629  13.367   7.748  10.761
76264SOL     OW30630   4.847   7.958   6.102
76264SOL    HW130631   4.855   7.924   6.191
76264SOL    HW230632   4.905   8.035   6.100
76265SOL     OW30633   4.869   3.224  14.591
76265SOL    HW130634   4.963   3.237  14.597
76265SOL    HW230635   4.859   3.134  14.561
76266SOL     OW30636   3.678  14.333  13.115
76266SOL    HW130637   3.650  14.327  13.023
76266SOL    HW230638   3.736  14.257  13.127
76267SOL     OW30639  12.834   2.363  11.858
76267SOL    HW130640  12.858   2.272  11.841
76267SOL    HW230641  12.859   2.409  11.778
76268SOL     OW30642   5.189  12.756   7.062
76268SOL    HW130643   5.142  12.768   7.145
76268SOL    HW230644   5.272  12.802   7.074
76269SOL     OW30645   5.369  13.013   0.462
76269SOL    HW130646   5.293  13.008   0.519
76269SOL    HW230647   5.434  13.061   0.514
76270SOL     OW30648   3.043   3.184  10.569
76270SOL    HW130649   3.090   3.265  10.587
76270SOL    HW230650   3.045   3.137  10.652
76271SOL     OW30651   3.718   2.117   7.279
76271SOL    HW130652   3.720   2.094   7.186
76271SOL    HW230653   3.788   2.180   7.290
76272SOL     OW30654   1.525   6.692   5.269
76272SOL    HW130655   1.532   6.787   5.276
76272SOL    HW230656   1.583   6.670   5.196
76273SOL     OW30657   1.156  13.717  14.680
76273SOL    HW130658   1.232  13.720  14.623
76273SOL    HW230659   1.143  13.808  14.707
76274SOL     OW30660  14.328   9.035  12.078
76274SOL    HW130661  14.296   9.049  12.167
76274SOL    HW230662  14.393   8.965  12.086
76275SOL     OW30663   9.903   6.989  14.811
76275SOL    HW130664   9.826   6.932  14.808
76275SOL    HW230665   9.889   7.043   0.015
76276SOL     OW30666   8.635   3.752  13.357
76276SOL    HW130667   8.558   3.718  13.402
76276SOL    HW230668   8.624   3.725  13.265
76277SOL     OW30669  14.814   1.427   3.358
76277SOL    HW130670   0.022   1.382   3.381
76277SOL    HW230671  14.808   1.499   3.421
76278SOL     OW30672  13.918   0.149  11.662
76278SOL    HW130673  13.941   0.242  11.665
76278SOL    HW230674  13.998   0.105  11.634
76279SOL     OW30675   7.829  13.395   7.503
76279SOL    HW130676   7.809  13.453   7.430
76279SOL    HW230677   7.819  13.450   7.581
76280SOL     OW30678   0.030   0.448   4.251
76280SOL    HW130679  14.839   0.506   4.290
76280SOL    HW230680   0.111   0.498   4.253
76281SOL     OW30681  10.423   3.750   8.419
76281SOL    HW130682  10.454   3.749   8.329
76281SOL    HW230683  10.442   3.838   8.451
76282SOL     OW30684   3.959  11.231   8.136
76282SOL    HW130685   3.998  11.164   8.192
76282SOL    HW230686   3.967  11.196   8.047
76283SOL     OW30687  10.541   3.684   2.485
76283SOL    HW130688  10.605   3.614   2.471
76283SOL    HW230689  10.490   3.686   2.404
76284SOL     OW30690  13.952  11.542   7.060
76284SOL    HW130691  13.937  11.476   7.128
76284SOL    HW230692  13.882  11.527   6.996
76285SOL     OW30693  10.528  14.636  11.938
76285SOL    HW130694  10.505  14.623  12.030
76285SOL    HW230695  10.597  14.702  11.940
76286SOL     OW30696   1.217   4.854   8.879
76286SOL    HW130697   1.155   4.919   8.846
76286SOL    HW230698   1.243   4.804   8.801
76287SOL     OW30699   8.293   1.965   0.402
76287SOL    HW130700   8.337   1.981   0.319
76287SOL    HW230701   8.200   1.963   0.379
76288SOL     OW30702   4.707   2.991   3.914
76288SOL    HW130703   4.733   3.036   3.994
76288SOL    HW230704   4.743   2.903   3.923
76289SOL     OW30705  13.800  13.793   2.433
76289SOL    HW130706  13.846  13.793   2.349
76289SOL    HW230707  13.841  13.723   2.483
76290SOL     OW30708   5.292   9.969  10.346
76290SOL    HW130709   5.289   9.894  10.405
76290SOL    HW230710   5.315  10.043  10.402
76291SOL     OW30711   1.151   4.934   6.666
76291SOL    HW130712   1.150   4.880   6.745
76291SOL    HW230713   1.218   4.893   6.610
76292SOL     OW30714  10.115   6.968   9.937
76292SOL    HW130715  10.023   6.943   9.952
76292SOL    HW230716  10.143   7.003  10.022
76293SOL     OW30717  10.973   8.684   6.341
76293SOL    HW130718  10.934   8.598   6.357
76293SOL    HW230719  11.066   8.665   6.327
76294SOL     OW30720   1.080  14.424  14.686
76294SOL    HW130721   1.041  14.349  14.732
76294SOL    HW230722   1.008  14.462  14.636
76295SOL     OW30723   7.665   1.133   0.897
76295SOL    HW130724   7.637   1.224   0.890
76295SOL    HW230725   7.757   1.138   0.924
76296SOL     OW30726   5.147  13.069  12.889
76296SOL    HW130727   5.225  13.027  12.923
76296SOL    HW230728   5.080  13.052  12.955
76297SOL     OW30729  12.894  10.105   8.007
76297SOL    HW130730  12.884  10.009   8.008
76297SOL    HW230731  12.943  10.123   7.927
76298SOL     OW30732  14.646  11.424  10.236
76298SOL    HW130733  14.567  11.447  10.284
76298SOL    HW230734  14.632  11.334  10.207
76299SOL     OW30735  11.721   7.949   5.091
76299SOL    HW130736  11.815   7.932   5.094
76299SOL    HW230737  11.692   7.940   5.182
76300SOL     OW30738   3.366   1.012   6.808
76300SOL    HW130739   3.344   1.102   6.783
76300SOL    HW230740   3.291   0.960   6.777
76301SOL     OW30741   6.201  11.008   8.210
76301SOL    HW130742   6.204  11.102   8.229
76301SOL    HW230743   6.196  10.967   8.296
76302SOL     OW30744  13.839   9.461  10.919
76302SOL    HW130745  13.762   9.430  10.872
76302SOL    HW230746  13.907   9.397  10.898
76303SOL     OW30747   0.903   8.100   4.619
76303SOL    HW130748   0.936   8.076   4.532
76303SOL    HW230749   0.969   8.160   4.654
76304SOL     OW30750   4.674   8.448   3.986
76304SOL    HW130751   4.613   8.457   4.060
76304SOL    HW230752   4.730   8.525   3.991
76305SOL     OW30753   8.406   8.262   2.722
76305SOL    HW130754   8.329   8.236   2.772
76305SOL    HW230755   8.458   8.313   2.784
76306SOL     OW30756   6.427  11.019  14.691
76306SOL    HW130757   6.436  11.016  14.596
76306SOL    HW230758   6.504  11.067  14.721
76307SOL     OW30759  14.846   5.977   3.096
76307SOL    HW130760  14.842   5.978   3.191
76307SOL    HW230761  14.760   5.945   3.069
76308SOL     OW30762   3.752   3.736   2.601
76308SOL    HW130763   3.725   3.685   2.525
76308SOL    HW230764   3.810   3.677   2.650
76309SOL     OW30765   9.147  13.509   0.601
76309SOL    HW130766   9.146  13.414   0.609
76309SOL    HW230767   9.073  13.530   0.544
76310SOL     OW30768  11.500   0.917   3.226
76310SOL    HW130769  11.522   0.872   3.307
76310SOL    HW230770  11.538   0.862   3.157
76311SOL     OW30771   5.948  13.615   5.081
76311SOL    HW130772   5.859  13.626   5.115
76311SOL    HW230773   5.976  13.529   5.111
76312SOL     OW30774   2.932  10.463   6.740
76312SOL    HW130775   3.026  10.468   6.757
76312SOL    HW230776   2.908  10.375   6.767
76313SOL     OW30777   7.887  11.300   6.035
76313SOL    HW130778   7.901  11.301   6.130
76313SOL    HW230779   7.975  11.298   5.997
76314SOL     OW30780  10.053   4.821   7.874
76314SOL    HW130781   9.997   4.756   7.917
76314SOL    HW230782  10.141   4.802   7.909
76315SOL     OW30783   1.364   7.403   7.180
76315SOL    HW130784   1.408   7.481   7.144
76315SOL    HW230785   1.289   7.438   7.228
76316SOL     OW30786   3.452   2.663   2.533
76316SOL    HW130787   3.447   2.703   2.621
76316SOL    HW230788   3.422   2.732   2.474
76317SOL     OW30789   8.112   8.254  13.827
76317SOL    HW130790   8.100   8.323  13.892
76317SOL    HW230791   8.169   8.292  13.761
76318SOL     OW30792   2.271   5.461   6.071
76318SOL    HW130793   2.255   5.375   6.034
76318SOL    HW230794   2.296   5.445   6.162
76319SOL     OW30795   0.652  13.709  14.747
76319SOL    HW130796   0.636  13.634  14.690
76319SOL    HW230797   0.720  13.680  14.808
76320SOL     OW30798  10.897   6.789   6.814
76320SOL    HW130799  10.925   6.873   6.779
76320SOL    HW230800  10.940   6.724   6.759
76321SOL     OW30801   5.805   2.708  13.285
76321SOL    HW130802   5.821   2.728  13.377
76321SOL    HW230803   5.889   2.728  13.241
76322SOL     OW30804  13.425   9.791   1.191
76322SOL    HW130805  13.330   9.788   1.180
76322SOL    HW230806  13.442   9.731   1.264
76323SOL     OW30807   9.662   8.200  12.534
76323SOL    HW130808   9.741   8.145  12.527
76323SOL    HW230809   9.687   8.270  12.595
76324SOL     OW30810  11.885   8.215   5.940
76324SOL    HW130811  11.946   8.282   5.972
76324SOL    HW230812  11.927   8.132   5.963
76325SOL     OW30813  12.379   9.435   4.586
76325SOL    HW130814  12.397   9.343   4.564
76325SOL    HW230815  12.401   9.441   4.680
76326SOL     OW30816   6.223  13.671  14.009
76326SOL    HW130817   6.283  13.605  13.976
76326SOL    HW230818   6.173  13.699  13.932
76327SOL     OW30819  12.820   0.957   6.364
76327SOL    HW130820  12.864   0.993   6.441
76327SOL    HW230821  12.880   0.891   6.330
76328SOL     OW30822  13.479   7.041   9.723
76328SOL    HW130823  13.537   6.978   9.765
76328SOL    HW230824  13.436   7.086   9.796
76329SOL     OW30825   5.738   2.804   4.063
76329SOL    HW130826   5.805   2.748   4.023
76329SOL    HW230827   5.690   2.840   3.988
76330SOL     OW30828   3.277   3.946   5.055
76330SOL    HW130829   3.200   3.982   5.100
76330SOL    HW230830   3.266   3.974   4.964
76331SOL     OW30831   3.279   9.638  13.485
76331SOL    HW130832   3.196   9.668  13.519
76331SOL    HW230833   3.263   9.546  13.461
76332SOL     OW30834  11.534  12.648  12.883
76332SOL    HW130835  11.528  12.607  12.969
76332SOL    HW230836  11.477  12.594  12.827
76333SOL     OW30837   4.672  14.017   2.230
76333SOL    HW130838   4.702  14.061   2.310
76333SOL    HW230839   4.751  13.977   2.194
76334SOL     OW30840  11.862   2.005  14.142
76334SOL    HW130841  11.934   1.992  14.081
76334SOL    HW230842  11.877   2.092  14.179
76335SOL     OW30843   3.612   8.295  12.357
76335SOL    HW130844   3.658   8.211  12.358
76335SOL    HW230845   3.656   8.346  12.289
76336SOL     OW30846   8.824  13.509  14.298
76336SOL    HW130847   8.898  13.451  14.280
76336SOL    HW230848   8.823  13.570  14.224
76337SOL     OW30849   7.637  14.085   5.732
76337SOL    HW130850   7.723  14.124   5.750
76337SOL    HW230851   7.620  14.107   5.640
76338SOL     OW30852   9.185   5.337  12.018
76338SOL    HW130853   9.249   5.305  12.082
76338SOL    HW230854   9.229   5.330  11.934
76339SOL     OW30855  11.401  14.034  10.325
76339SOL    HW130856  11.306  14.040  10.329
76339SOL    HW230857  11.425  13.974  10.396
76340SOL     OW30858   6.947   1.347   7.066
76340SOL    HW130859   6.901   1.383   6.990
76340SOL    HW230860   7.032   1.321   7.032
76341SOL     OW30861   2.236   3.609   9.056
76341SOL    HW130862   2.297   3.551   9.012
76341SOL    HW230863   2.273   3.696   9.045
76342SOL     OW30864  13.914   2.166   2.815
76342SOL    HW130865  13.973   2.127   2.880
76342SOL    HW230866  13.973   2.210   2.753
76343SOL     OW30867   1.056  12.819  13.419
76343SOL    HW130868   1.082  12.847  13.332
76343SOL    HW230869   1.105  12.739  13.435
76344SOL     OW30870  11.464  12.940   8.879
76344SOL    HW130871  11.438  13.022   8.922
76344SOL    HW230872  11.417  12.942   8.795
76345SOL     OW30873   4.620   6.308   1.589
76345SOL    HW130874   4.587   6.376   1.530
76345SOL    HW230875   4.569   6.231   1.568
76346SOL     OW30876   8.394  12.464  12.196
76346SOL    HW130877   8.337  12.491  12.268
76346SOL    HW230878   8.333  12.433  12.128
76347SOL     OW30879  10.593   4.075  13.520
76347SOL    HW130880  10.682   4.088  13.486
76347SOL    HW230881  10.540   4.141  13.475
76348SOL     OW30882   5.061   5.826   1.251
76348SOL    HW130883   5.059   5.733   1.274
76348SOL    HW230884   5.029   5.828   1.160
76349SOL     OW30885   8.501   7.827   2.274
76349SOL    HW130886   8.478   7.734   2.269
76349SOL    HW230887   8.433   7.866   2.329
76350SOL     OW30888  11.956  12.929  13.946
76350SOL    HW130889  11.999  13.003  13.989
76350SOL    HW230890  11.863  12.950  13.948
76351SOL     OW30891   0.867  12.686   5.016
76351SOL    HW130892   0.829  12.774   5.017
76351SOL    HW230893   0.868  12.661   4.923
76352SOL     OW30894   1.918   6.105  11.635
76352SOL    HW130895   1.849   6.150  11.585
76352SOL    HW230896   1.994   6.106  11.578
76353SOL     OW30897  12.487   1.835   1.063
76353SOL    HW130898  12.552   1.774   1.029
76353SOL    HW230899  12.425   1.780   1.111
76354SOL     OW30900   8.409   1.654   6.397
76354SOL    HW130901   8.411   1.716   6.469
76354SOL    HW230902   8.319   1.622   6.395
76355SOL     OW30903   0.216   0.281   7.437
76355SOL    HW130904   0.201   0.364   7.482
76355SOL    HW230905   0.134   0.262   7.392
76356SOL     OW30906   1.831   1.185  14.826
76356SOL    HW130907   1.886   1.127   0.005
76356SOL    HW230908   1.748   1.139  14.817
76357SOL     OW30909   2.370  11.261   8.075
76357SOL    HW130910   2.439  11.318   8.039
76357SOL    HW230911   2.305  11.256   8.005
76358SOL     OW30912  11.933   1.963   6.060
76358SOL    HW130913  11.988   1.970   5.982
76358SOL    HW230914  11.971   1.890   6.109
76359SOL     OW30915   1.603   6.733   4.075
76359SOL    HW130916   1.601   6.807   4.136
76359SOL    HW230917   1.632   6.659   4.129
76360SOL     OW30918  12.970  10.659   5.099
76360SOL    HW130919  13.054  10.614   5.088
76360SOL    HW230920  12.948  10.646   5.191
76361SOL     OW30921   1.659   2.298   7.098
76361SOL    HW130922   1.676   2.369   7.160
76361SOL    HW230923   1.745   2.259   7.083
76362SOL     OW30924   6.668   8.310   3.579
76362SOL    HW130925   6.577   8.340   3.579
76362SOL    HW230926   6.681   8.269   3.493
76363SOL     OW30927  10.697  14.729  10.611
76363SOL    HW130928  10.614  14.684  10.598
76363SOL    HW230929  10.738  14.684  10.685
76364SOL     OW30930  12.742   8.766   3.561
76364SOL    HW130931  12.713   8.857   3.572
76364SOL    HW230932  12.834   8.767   3.587
76365SOL     OW30933   0.188   8.070   9.856
76365SOL    HW130934   0.274   8.110   9.865
76365SOL    HW230935   0.157   8.060   9.946
76366SOL     OW30936   0.795   4.294  11.894
76366SOL    HW130937   0.851   4.356  11.848
76366SOL    HW230938   0.733   4.264  11.827
76367SOL     OW30939   7.550  12.930   6.511
76367SOL    HW130940   7.529  13.021   6.527
76367SOL    HW230941   7.546  12.920   6.416
76368SOL     OW30942  10.582   5.982  13.114
76368SOL    HW130943  10.512   5.976  13.178
76368SOL    HW230944  10.540   5.959  13.031
76369SOL     OW30945   4.029   4.527  12.459
76369SOL    HW130946   4.058   4.533  12.368
76369SOL    HW230947   3.937   4.552  12.457
76370SOL     OW30948  14.059   1.620  12.443
76370SOL    HW130949  14.081   1.598  12.353
76370SOL    HW230950  13.963   1.625  12.444
76371SOL     OW30951  12.220   6.912   4.138
76371SOL    HW130952  12.224   6.858   4.059
76371SOL    HW230953  12.312   6.923   4.163
76372SOL     OW30954   5.559   5.715  10.350
76372SOL    HW130955   5.479   5.748  10.392
76372SOL    HW230956   5.550   5.740  10.258
76373SOL     OW30957  10.016  14.019   1.955
76373SOL    HW130958   9.955  13.965   1.905
76373SOL    HW230959  10.044  13.963   2.028
76374SOL     OW30960   5.848   9.171   8.708
76374SOL    HW130961   5.820   9.132   8.625
76374SOL    HW230962   5.874   9.096   8.761
76375SOL     OW30963   4.161   9.109   7.829
76375SOL    HW130964   4.084   9.056   7.851
76375SOL    HW230965   4.229   9.045   7.808
76376SOL     OW30966   9.280   1.965  12.434
76376SOL    HW130967   9.286   2.026  12.361
76376SOL    HW230968   9.205   1.909  12.413
76377SOL     OW30969  11.810   1.785   7.414
76377SOL    HW130970  11.891   1.803   7.365
76377SOL    HW230971  11.825   1.700   7.454
76378SOL     OW30972   9.535   9.618   3.835
76378SOL    HW130973   9.577   9.532   3.830
76378SOL    HW230974   9.443   9.599   3.855
76379SOL     OW30975  14.568  10.297  10.752
76379SOL    HW130976  14.500  10.308  10.686
76379SOL    HW230977  14.637  10.358  10.725
76380SOL     OW30978   7.964   0.451  11.214
76380SOL    HW130979   7.984   0.489  11.129
76380SOL    HW230980   7.986   0.358  11.205
76381SOL     OW30981   8.724   9.942   0.830
76381SOL    HW130982   8.676   9.967   0.751
76381SOL    HW230983   8.682   9.861   0.859
76382SOL     OW30984   3.380   0.103   6.206
76382SOL    HW130985   3.461   0.070   6.247
76382SOL    HW230986   3.403   0.189   6.172
76383SOL     OW30987   4.294  14.695   9.501
76383SOL    HW130988   4.339  14.624   9.547
76383SOL    HW230989   4.362  14.735   9.446
76384SOL     OW30990  10.783   7.199  10.933
76384SOL    HW130991  10.731   7.187  10.854
76384SOL    HW230992  10.719   7.200  11.004
76385SOL     OW30993   6.701  14.465  13.673
76385SOL    HW130994   6.668  14.392  13.726
76385SOL    HW230995   6.655  14.541  13.707
76386SOL     OW30996  10.611  13.206   7.893
76386SOL    HW130997  10.676  13.242   7.954
76386SOL    HW230998  10.646  13.227   7.806
76387SOL     OW30999   9.564   1.455  10.921
76387SOL    HW131000   9.525   1.541  10.934
76387SOL    HW231001   9.645   1.457  10.972
76388SOL     OW31002   8.151   1.174   4.442
76388SOL    HW131003   8.129   1.235   4.371
76388SOL    HW231004   8.107   1.093   4.418
76389SOL     OW31005  12.260   7.285   5.779
76389SOL    HW131006  12.290   7.224   5.846
76389SOL    HW231007  12.212   7.230   5.716
76390SOL     OW31008   6.304  14.126   0.970
76390SOL    HW131009   6.229  14.094   0.920
76390SOL    HW231010   6.279  14.214   0.997
76391SOL     OW31011  11.415   2.816   2.169
76391SOL    HW131012  11.389   2.747   2.230
76391SOL    HW231013  11.339   2.874   2.164
76392SOL     OW31014  13.099   3.304   5.726
76392SOL    HW131015  13.187   3.273   5.747
76392SOL    HW231016  13.084   3.378   5.786
76393SOL     OW31017   2.816  13.389   6.765
76393SOL    HW131018   2.821  13.401   6.860
76393SOL    HW231019   2.770  13.467   6.734
76394SOL     OW31020   0.921   5.728   1.645
76394SOL    HW131021   1.007   5.728   1.602
76394SOL    HW231022   0.862   5.691   1.580
76395SOL     OW31023   4.460   6.613   4.803
76395SOL    HW131024   4.442   6.704   4.826
76395SOL    HW231025   4.379   6.581   4.764
76396SOL     OW31026   0.639  12.224   7.270
76396SOL    HW131027   0.711  12.178   7.227
76396SOL    HW231028   0.606  12.284   7.203
76397SOL     OW31029   0.894  11.928   8.247
76397SOL    HW131030   0.840  11.895   8.319
76397SOL    HW231031   0.851  11.896   8.168
76398SOL     OW31032   1.746  11.487   1.001
76398SOL    HW131033   1.714  11.521   1.084
76398SOL    HW231034   1.704  11.542   0.935
76399SOL     OW31035   3.307   6.799   9.106
76399SOL    HW131036   3.245   6.793   9.179
76399SOL    HW231037   3.262   6.755   9.033
76400SOL     OW31038   4.865   0.178   7.581
76400SOL    HW131039   4.940   0.153   7.634
76400SOL    HW231040   4.789   0.144   7.628
76401SOL     OW31041   9.810   1.926   8.606
76401SOL    HW131042   9.717   1.947   8.613
76401SOL    HW231043   9.846   1.948   8.692
76402SOL     OW31044   0.308   7.085  14.840
76402SOL    HW131045   0.396   7.077  14.804
76402SOL    HW231046   0.320   7.130   0.049
76403SOL     OW31047   4.735  13.273   2.239
76403SOL    HW131048   4.825  13.288   2.271
76403SOL    HW231049   4.700  13.206   2.298
76404SOL     OW31050  14.412   0.382  11.177
76404SOL    HW131051  14.355   0.422  11.243
76404SOL    HW231052  14.446   0.303  11.218
76405SOL     OW31053   2.842   6.953   6.891
76405SOL    HW131054   2.930   6.946   6.853
76405SOL    HW231055   2.783   6.951   6.816
76406SOL     OW31056  13.091  12.656  10.981
76406SOL    HW131057  13.095  12.717  11.054
76406SOL    HW231058  13.169  12.601  10.990
76407SOL     OW31059   3.910   6.513   6.179
76407SOL    HW131060   3.859   6.564   6.241
76407SOL    HW231061   3.995   6.502   6.222
76408SOL     OW31062   3.157   7.537  11.669
76408SOL    HW131063   3.192   7.626  11.666
76408SOL    HW231064   3.188   7.496  11.588
76409SOL     OW31065   7.062   1.387  11.620
76409SOL    HW131066   7.117   1.357  11.692
76409SOL    HW231067   6.987   1.327  11.621
76410SOL     OW31068   2.335   4.134   0.529
76410SOL    HW131069   2.413   4.182   0.556
76410SOL    HW231070   2.297   4.187   0.459
76411SOL     OW31071  12.867   8.545   7.202
76411SOL    HW131072  12.807   8.587   7.141
76411SOL    HW231073  12.836   8.571   7.289
76412SOL     OW31074   8.500  14.691   5.583
76412SOL    HW131075   8.476  14.766   5.637
76412SOL    HW231076   8.527  14.730   5.499
76413SOL     OW31077  10.477   4.338  10.407
76413SOL    HW131078  10.390   4.372  10.430
76413SOL    HW231079  10.468   4.243  10.414
76414SOL     OW31080  13.852   5.400   7.076
76414SOL    HW131081  13.913   5.326   7.085
76414SOL    HW231082  13.772   5.360   7.043
76415SOL     OW31083   0.659   8.710   9.313
76415SOL    HW131084   0.743   8.688   9.355
76415SOL    HW231085   0.595   8.656   9.359
76416SOL     OW31086   1.839   2.703  10.418
76416SOL    HW131087   1.892   2.663  10.487
76416SOL    HW231088   1.850   2.645  10.343
76417SOL     OW31089   3.068  10.005   3.081
76417SOL    HW131090   3.118   9.929   3.110
76417SOL    HW231091   3.033   9.979   2.996
76418SOL     OW31092  12.776   6.537  12.578
76418SOL    HW131093  12.722   6.582  12.642
76418SOL    HW231094  12.769   6.590  12.499
76419SOL     OW31095  10.469  10.093   2.920
76419SOL    HW131096  10.500  10.064   2.834
76419SOL    HW231097  10.373  10.086   2.914
76420SOL     OW31098   0.897   3.922  11.117
76420SOL    HW131099   0.900   3.923  11.022
76420SOL    HW231100   0.803   3.916  11.138
76421SOL     OW31101  13.739  12.341  13.850
76421SOL    HW131102  13.691  12.264  13.819
76421SOL    HW231103  13.808  12.306  13.906
76422SOL     OW31104   6.314  11.065  10.969
76422SOL    HW131105   6.297  11.065  11.063
76422SOL    HW231106   6.368  11.143  10.954
76423SOL     OW31107   3.226  14.310   7.952
76423SOL    HW131108   3.314  14.340   7.975
76423SOL    HW231109   3.219  14.322   7.858
76424SOL     OW31110   6.558   5.617   8.315
76424SOL    HW131111   6.593   5.555   8.252
76424SOL    HW231112   6.516   5.563   8.382
76425SOL     OW31113  10.441  14.824   3.731
76425SOL    HW131114  10.368  14.791   3.679
76425SOL    HW231115  10.493  14.746   3.751
76426SOL     OW31116   8.041   4.356   6.366
76426SOL    HW131117   7.952   4.391   6.361
76426SOL    HW231118   8.095   4.421   6.322
76427SOL     OW31119   1.521   1.580   5.652
76427SOL    HW131120   1.497   1.666   5.688
76427SOL    HW231121   1.454   1.562   5.586
76428SOL     OW31122  10.711  14.304   2.436
76428SOL    HW131123  10.632  14.357   2.448
76428SOL    HW231124  10.678  14.218   2.411
76429SOL     OW31125   6.611  14.000   5.814
76429SOL    HW131126   6.559  13.948   5.876
76429SOL    HW231127   6.699  13.963   5.820
76430SOL     OW31128   3.547   5.514  12.016
76430SOL    HW131129   3.599   5.502  12.095
76430SOL    HW231130   3.572   5.600  11.984
76431SOL     OW31131   8.320  12.120  13.787
76431SOL    HW131132   8.265  12.053  13.746
76431SOL    HW231133   8.409  12.099  13.759
76432SOL     OW31134   4.821  11.637   0.268
76432SOL    HW131135   4.728  11.632   0.245
76432SOL    HW231136   4.865  11.659   0.187
76433SOL     OW31137   9.012   1.264   1.616
76433SOL    HW131138   8.956   1.302   1.548
76433SOL    HW231139   8.954   1.205   1.664
76434SOL     OW31140   6.944   6.105   2.228
76434SOL    HW131141   7.038   6.096   2.248
76434SOL    HW231142   6.907   6.020   2.253
76435SOL     OW31143   1.001   4.674   2.462
76435SOL    HW131144   0.907   4.692   2.462
76435SOL    HW231145   1.024   4.667   2.370
76436SOL     OW31146   1.875   7.543  12.380
76436SOL    HW131147   1.943   7.608  12.362
76436SOL    HW231148   1.793   7.592  12.376
76437SOL     OW31149  12.983   0.010  13.601
76437SOL    HW131150  12.967   0.104  13.597
76437SOL    HW231151  13.075   0.002  13.626
76438SOL     OW31152  14.681   4.657  11.997
76438SOL    HW131153  14.633   4.574  11.993
76438SOL    HW231154  14.756   4.644  11.939
76439SOL     OW31155   8.276   8.384   0.404
76439SOL    HW131156   8.349   8.401   0.344
76439SOL    HW231157   8.225   8.316   0.359
76440SOL     OW31158   3.627  10.637   3.014
76440SOL    HW131159   3.619  10.686   2.932
76440SOL    HW231160   3.537  10.625   3.043
76441SOL     OW31161   3.080  13.877  14.399
76441SOL    HW131162   3.053  13.786  14.386
76441SOL    HW231163   3.142  13.874  14.472
76442SOL     OW31164   9.785  11.857  10.775
76442SOL    HW131165   9.738  11.887  10.852
76442SOL    HW231166   9.869  11.827  10.808
76443SOL     OW31167   4.491   5.607  10.644
76443SOL    HW131168   4.448   5.521  10.645
76443SOL    HW231169   4.419   5.670  10.648
76444SOL     OW31170  12.152   2.794   4.078
76444SOL    HW131171  12.173   2.790   4.172
76444SOL    HW231172  12.220   2.742   4.036
76445SOL     OW31173   1.157  10.143   7.745
76445SOL    HW131174   1.186  10.233   7.734
76445SOL    HW231175   1.117  10.140   7.831
76446SOL     OW31176  11.654   7.706   4.025
76446SOL    HW131177  11.653   7.731   4.118
76446SOL    HW231178  11.565   7.677   4.007
76447SOL     OW31179   7.669  13.062   9.731
76447SOL    HW131180   7.726  13.004   9.782
76447SOL    HW231181   7.699  13.150   9.753
76448SOL     OW31182  13.080   2.891   2.027
76448SOL    HW131183  13.059   2.965   2.084
76448SOL    HW231184  12.995   2.850   2.009
76449SOL     OW31185  12.452  11.037  14.560
76449SOL    HW131186  12.517  11.020  14.492
76449SOL    HW231187  12.386  11.091  14.517
76450SOL     OW31188   3.888   2.939  12.453
76450SOL    HW131189   3.934   3.003  12.507
76450SOL    HW231190   3.873   2.865  12.511
76451SOL     OW31191   3.872   4.420  13.805
76451SOL    HW131192   3.790   4.371  13.804
76451SOL    HW231193   3.887   4.439  13.898
76452SOL     OW31194   4.094   4.273  12.547
76452SOL    HW131195   4.060   4.354  12.508
76452SOL    HW231196   4.110   4.215  12.473
76453SOL     OW31197   7.865   5.202  13.434
76453SOL    HW131198   7.833   5.277  13.484
76453SOL    HW231199   7.939   5.236  13.384
76454SOL     OW31200  11.312   1.737   6.247
76454SOL    HW131201  11.360   1.655   6.254
76454SOL    HW231202  11.282   1.740   6.156
76455SOL     OW31203  12.024   7.674  10.686
76455SOL    HW131204  11.929   7.687  10.678
76455SOL    HW231205  12.033   7.587  10.724
76456SOL     OW31206   4.036   5.870   7.485
76456SOL    HW131207   4.056   5.920   7.564
76456SOL    HW231208   4.036   5.935   7.415
76457SOL     OW31209   5.958   4.327   4.771
76457SOL    HW131210   5.931   4.414   4.742
76457SOL    HW231211   5.877   4.275   4.772
76458SOL     OW31212   2.270   4.919   7.639
76458SOL    HW131213   2.188   4.886   7.603
76458SOL    HW231214   2.322   4.942   7.563
76459SOL     OW31215  14.804   2.826   8.070
76459SOL    HW131216  14.868   2.756   8.084
76459SOL    HW231217  14.737   2.786   8.015
76460SOL     OW31218   2.515   0.145   5.570
76460SOL    HW131219   2.512   0.087   5.646
76460SOL    HW231220   2.608   0.153   5.549
76461SOL     OW31221   3.718  13.660   3.656
76461SOL    HW131222   3.665  13.732   3.690
76461SOL    HW231223   3.802  13.668   3.702
76462SOL     OW31224  11.029  14.043  11.683
76462SOL    HW131225  11.093  13.983  11.720
76462SOL    HW231226  11.051  14.050  11.591
76463SOL     OW31227   3.452   8.332   6.514
76463SOL    HW131228   3.412   8.259   6.466
76463SOL    HW231229   3.378   8.382   6.548
76464SOL     OW31230  13.775   6.331   5.652
76464SOL    HW131231  13.753   6.312   5.561
76464SOL    HW231232  13.725   6.411   5.673
76465SOL     OW31233  13.232   5.586  12.320
76465SOL    HW131234  13.166   5.651  12.293
76465SOL    HW231235  13.229   5.588  12.415
76466SOL     OW31236   7.134   2.369   7.643
76466SOL    HW131237   7.154   2.443   7.700
76466SOL    HW231238   7.117   2.409   7.557
76467SOL     OW31239  10.319  11.793   8.674
76467SOL    HW131240  10.387  11.752   8.729
76467SOL    HW231241  10.264  11.840   8.736
76468SOL     OW31242   0.322   2.053   7.062
76468SOL    HW131243   0.329   1.998   6.984
76468SOL    HW231244   0.377   2.009   7.127
76469SOL     OW31245   7.881   7.145   2.515
76469SOL    HW131246   7.807   7.194   2.480
76469SOL    HW231247   7.871   7.057   2.478
76470SOL     OW31248   0.490  11.155  14.401
76470SOL    HW131249   0.533  11.201  14.329
76470SOL    HW231250   0.432  11.092  14.358
76471SOL     OW31251  13.353   8.760  12.397
76471SOL    HW131252  13.385   8.850  12.401
76471SOL    HW231253  13.282   8.756  12.460
76472SOL     OW31254   3.820   0.075   9.882
76472SOL    HW131255   3.763   0.105   9.953
76472SOL    HW231256   3.766   0.015   9.832
76473SOL     OW31257   3.776   8.626   0.532
76473SOL    HW131258   3.714   8.592   0.597
76473SOL    HW231259   3.801   8.549   0.480
76474SOL     OW31260   6.741   6.600   8.895
76474SOL    HW131261   6.798   6.671   8.866
76474SOL    HW231262   6.778   6.572   8.979
76475SOL     OW31263   6.598   5.490   2.434
76475SOL    HW131264   6.611   5.407   2.479
76475SOL    HW231265   6.555   5.466   2.352
76476SOL     OW31266   2.075   3.865  14.259
76476SOL    HW131267   2.135   3.892  14.328
76476SOL    HW231268   2.129   3.810  14.201
76477SOL     OW31269   8.169   5.318  12.903
76477SOL    HW131270   8.219   5.325  12.984
76477SOL    HW231271   8.078   5.309  12.931
76478SOL     OW31272   7.231   9.549   2.592
76478SOL    HW131273   7.226   9.493   2.670
76478SOL    HW231274   7.288   9.502   2.532
76479SOL     OW31275  11.390  14.289  14.379
76479SOL    HW131276  11.424  14.200  14.383
76479SOL    HW231277  11.298  14.279  14.355
76480SOL     OW31278   6.461  10.409  12.389
76480SOL    HW131279   6.537  10.368  12.432
76480SOL    HW231280   6.394  10.341  12.388
76481SOL     OW31281   5.137   4.036   0.422
76481SOL    HW131282   5.148   3.941   0.419
76481SOL    HW231283   5.138   4.064   0.331
76482SOL     OW31284   2.521   5.273   2.464
76482SOL    HW131285   2.519   5.366   2.489
76482SOL    HW231286   2.609   5.244   2.489
76483SOL     OW31287   5.686  10.949   9.112
76483SOL    HW131288   5.773  10.964   9.149
76483SOL    HW231289   5.676  11.018   9.047
76484SOL     OW31290   3.696   9.055  13.115
76484SOL    HW131291   3.665   9.053  13.205
76484SOL    HW231292   3.737   9.141  13.105
76485SOL     OW31293   7.775   3.940   3.932
76485SOL    HW131294   7.755   3.957   4.024
76485SOL    HW231295   7.855   3.887   3.934
76486SOL     OW31296   5.771   5.126  12.340
76486SOL    HW131297   5.731   5.130  12.427
76486SOL    HW231298   5.865   5.129  12.357
76487SOL     OW31299  13.010   4.097   2.339
76487SOL    HW131300  12.943   4.165   2.331
76487SOL    HW231301  12.999   4.063   2.428
76488SOL     OW31302   3.435   8.684   3.807
76488SOL    HW131303   3.405   8.621   3.873
76488SOL    HW231304   3.389   8.765   3.829
76489SOL     OW31305  14.044   4.939  14.863
76489SOL    HW131306  14.009   4.989   0.063
76489SOL    HW231307  14.107   4.879   0.030
76490SOL     OW31308  13.490  10.624  13.907
76490SOL    HW131309  13.464  10.686  13.975
76490SOL    HW231310  13.476  10.671  13.825
76491SOL     OW31311   4.235  14.425   8.242
76491SOL    HW131312   4.173  14.470   8.185
76491SOL    HW231313   4.294  14.493   8.273
76492SOL     OW31314  11.564  11.042   2.635
76492SOL    HW131315  11.487  11.079   2.680
76492SOL    HW231316  11.635  11.103   2.655
76493SOL     OW31317   7.092  12.036   7.380
76493SOL    HW131318   7.026  11.970   7.401
76493SOL    HW231319   7.171  12.006   7.426
76494SOL     OW31320   1.494   8.850   8.102
76494SOL    HW131321   1.507   8.934   8.058
76494SOL    HW231322   1.452   8.795   8.036
76495SOL     OW31323   1.548   6.742   6.328
76495SOL    HW131324   1.560   6.821   6.380
76495SOL    HW231325   1.503   6.772   6.249
76496SOL     OW31326  14.416  11.602  14.757
76496SOL    HW131327  14.351  11.590  14.689
76496SOL    HW231328  14.474  11.526  14.749
76497SOL     OW31329   5.698   4.624   0.339
76497SOL    HW131330   5.694   4.718   0.352
76497SOL    HW231331   5.607   4.594   0.349
76498SOL     OW31332   1.917   9.030  12.428
76498SOL    HW131333   1.897   9.121  12.449
76498SOL    HW231334   1.874   9.014  12.344
76499SOL     OW31335  11.825  10.078   2.714
76499SOL    HW131336  11.748  10.100   2.765
76499SOL    HW231337  11.863  10.162   2.689
76500SOL     OW31338   3.209   0.674   5.987
76500SOL    HW131339   3.250   0.666   5.901
76500SOL    HW231340   3.278   0.649   6.048
76501SOL     OW31341   0.820   1.899   0.893
76501SOL    HW131342   0.880   1.827   0.873
76501SOL    HW231343   0.847   1.930   0.979
76502SOL     OW31344  12.122  10.514   7.098
76502SOL    HW131345  12.078  10.544   7.019
76502SOL    HW231346  12.118  10.418   7.094
76503SOL     OW31347   8.512  12.334   7.173
76503SOL    HW131348   8.429  12.377   7.192
76503SOL    HW231349   8.487  12.247   7.141
76504SOL     OW31350   1.355   1.455  13.973
76504SOL    HW131351   1.363   1.468  13.878
76504SOL    HW231352   1.276   1.502  13.997
76505SOL     OW31353   5.950   0.278   1.607
76505SOL    HW131354   5.903   0.246   1.530
76505SOL    HW231355   5.893   0.255   1.681
76506SOL     OW31356  12.980  13.356   8.048
76506SOL    HW131357  12.930  13.437   8.047
76506SOL    HW231358  13.028  13.357   8.131
76507SOL     OW31359  11.357   3.768   3.888
76507SOL    HW131360  11.351   3.790   3.981
76507SOL    HW231361  11.318   3.843   3.843
76508SOL     OW31362   8.957   4.401  13.304
76508SOL    HW131363   8.981   4.378  13.394
76508SOL    HW231364   8.923   4.319  13.267
76509SOL     OW31365   7.575   8.066   6.146
76509SOL    HW131366   7.608   7.990   6.194
76509SOL    HW231367   7.480   8.061   6.157
76510SOL     OW31368  10.227  10.648   9.967
76510SOL    HW131369  10.314  10.619   9.939
76510SOL    HW231370  10.199  10.709   9.899
76511SOL     OW31371   8.838   6.009   2.530
76511SOL    HW131372   8.781   5.934   2.515
76511SOL    HW231373   8.780   6.078   2.563
76512SOL     OW31374   6.814   7.505   2.914
76512SOL    HW131375   6.816   7.506   2.819
76512SOL    HW231376   6.824   7.597   2.939
76513SOL     OW31377  14.409   3.735  10.541
76513SOL    HW131378  14.407   3.683  10.460
76513SOL    HW231379  14.453   3.679  10.604
76514SOL     OW31380   1.212   3.705  11.686
76514SOL    HW131381   1.217   3.677  11.777
76514SOL    HW231382   1.130   3.755  11.681
76515SOL     OW31383   2.330  11.523  13.832
76515SOL    HW131384   2.296  11.436  13.814
76515SOL    HW231385   2.274  11.555  13.903
76516SOL     OW31386  14.525   0.402  10.346
76516SOL    HW131387  14.449   0.453  10.319
76516SOL    HW231388  14.595   0.430  10.286
76517SOL     OW31389   9.784   8.700   6.696
76517SOL    HW131390   9.756   8.780   6.652
76517SOL    HW231391   9.739   8.630   6.648
76518SOL     OW31392  10.592  12.156   6.871
76518SOL    HW131393  10.659  12.118   6.815
76518SOL    HW231394  10.549  12.080   6.912
76519SOL     OW31395  14.821   2.632   4.425
76519SOL    HW131396  14.755   2.690   4.385
76519SOL    HW231397   0.007   2.612   4.353
76520SOL     OW31398   8.708  11.596   5.369
76520SOL    HW131399   8.617  11.570   5.357
76520SOL    HW231400   8.738  11.619   5.281
76521SOL     OW31401   9.741  13.078  13.795
76521SOL    HW131402   9.673  13.064  13.729
76521SOL    HW231403   9.761  13.171  13.790
76522SOL     OW31404   6.155   7.845   7.571
76522SOL    HW131405   6.146   7.939   7.556
76522SOL    HW231406   6.068   7.809   7.551
76523SOL     OW31407  12.799   0.944  13.681
76523SOL    HW131408  12.760   0.970  13.597
76523SOL    HW231409  12.802   0.848  13.677
76524SOL     OW31410   9.423   0.242   9.682
76524SOL    HW131411   9.443   0.210   9.770
76524SOL    HW231412   9.476   0.322   9.674
76525SOL     OW31413   7.096  10.882   1.720
76525SOL    HW131414   7.133  10.968   1.703
76525SOL    HW231415   7.023  10.875   1.659
76526SOL     OW31416  10.135   5.842   3.368
76526SOL    HW131417  10.065   5.888   3.321
76526SOL    HW231418  10.101   5.832   3.457
76527SOL     OW31419   1.003   0.461   3.790
76527SOL    HW131420   1.079   0.518   3.803
76527SOL    HW231421   1.040   0.373   3.779
76528SOL     OW31422  10.925   5.324   9.784
76528SOL    HW131423  10.961   5.304   9.871
76528SOL    HW231424  10.833   5.299   9.790
76529SOL     OW31425   0.323   2.034   7.852
76529SOL    HW131426   0.362   1.973   7.915
76529SOL    HW231427   0.273   1.978   7.792
76530SOL     OW31428   6.195   4.166   9.180
76530SOL    HW131429   6.222   4.166   9.272
76530SOL    HW231430   6.101   4.183   9.182
76531SOL     OW31431  12.744   5.257   1.754
76531SOL    HW131432  12.774   5.166   1.760
76531SOL    HW231433  12.818   5.309   1.785
76532SOL     OW31434  11.197  13.813   1.769
76532SOL    HW131435  11.259  13.808   1.697
76532SOL    HW231436  11.211  13.900   1.807
76533SOL     OW31437  14.091   8.598  10.185
76533SOL    HW131438  14.058   8.682  10.153
76533SOL    HW231439  14.012   8.546  10.200
76534SOL     OW31440   0.014  11.106  14.397
76534SOL    HW131441   0.019  11.169  14.326
76534SOL    HW231442  14.801  11.121  14.436
76535SOL     OW31443  11.757  14.455   4.776
76535SOL    HW131444  11.816  14.383   4.754
76535SOL    HW231445  11.814  14.521   4.815
76536SOL     OW31446   9.592   2.449   5.800
76536SOL    HW131447   9.577   2.475   5.891
76536SOL    HW231448   9.613   2.356   5.805
76537SOL     OW31449   3.609   9.718   3.171
76537SOL    HW131450   3.534   9.717   3.230
76537SOL    HW231451   3.684   9.698   3.226
76538SOL     OW31452   3.550  14.697   6.777
76538SOL    HW131453   3.492  14.633   6.737
76538SOL    HW231454   3.534  14.689   6.871
76539SOL     OW31455   0.212  14.281  11.732
76539SOL    HW131456   0.242  14.222  11.663
76539SOL    HW231457   0.289  14.333  11.755
76540SOL     OW31458   3.839  10.403  11.601
76540SOL    HW131459   3.805  10.318  11.572
76540SOL    HW231460   3.894  10.433  11.529
76541SOL     OW31461   8.412   8.593  10.089
76541SOL    HW131462   8.447   8.569  10.003
76541SOL    HW231463   8.318   8.602  10.074
76542SOL     OW31464   1.573  13.761   2.397
76542SOL    HW131465   1.661  13.747   2.433
76542SOL    HW231466   1.514  13.749   2.471
76543SOL     OW31467   2.131  11.090   9.390
76543SOL    HW131468   2.155  11.165   9.337
76543SOL    HW231469   2.214  11.053   9.419
76544SOL     OW31470   1.856  13.598   7.347
76544SOL    HW131471   1.810  13.610   7.430
76544SOL    HW231472   1.871  13.504   7.341
76545SOL     OW31473  11.706   7.977  14.473
76545SOL    HW131474  11.799   7.990  14.489
76545SOL    HW231475  11.690   7.886  14.499
76546SOL     OW31476   0.017  10.899   6.581
76546SOL    HW131477   0.076  10.841   6.628
76546SOL    HW231478  14.860  10.847   6.507
76547SOL     OW31479   4.295  11.748   4.555
76547SOL    HW131480   4.345  11.829   4.543
76547SOL    HW231481   4.214  11.777   4.597
76548SOL     OW31482  13.616   2.475   5.769
76548SOL    HW131483  13.638   2.487   5.861
76548SOL    HW231484  13.655   2.551   5.725
76549SOL     OW31485   9.516  13.214  14.857
76549SOL    HW131486   9.429  13.251  14.841
76549SOL    HW231487   9.498  13.127   0.019
76550SOL     OW31488  10.207  10.628   8.778
76550SOL    HW131489  10.172  10.544   8.806
76550SOL    HW231490  10.134  10.689   8.786
76551SOL     OW31491   0.005   7.524  13.700
76551SOL    HW131492  14.788   7.549  13.685
76551SOL    HW231493   0.023   7.458  13.633
76552SOL     OW31494   0.788  14.518  10.199
76552SOL    HW131495   0.709  14.490  10.152
76552SOL    HW231496   0.818  14.596  10.152
76553SOL     OW31497   2.357  14.377  12.720
76553SOL    HW131498   2.278  14.428  12.736
76553SOL    HW231499   2.333  14.287  12.744
76554SOL     OW31500   4.755  13.630   8.811
76554SOL    HW131501   4.792  13.713   8.782
76554SOL    HW231502   4.798  13.565   8.756
76555SOL     OW31503  13.549   2.051   0.729
76555SOL    HW131504  13.565   2.146   0.726
76555SOL    HW231505  13.572   2.021   0.641
76556SOL     OW31506   4.554  12.892   1.751
76556SOL    HW131507   4.542  12.896   1.846
76556SOL    HW231508   4.592  12.805   1.735
76557SOL     OW31509   0.911   5.508   2.326
76557SOL    HW131510   0.818   5.514   2.348
76557SOL    HW231511   0.913   5.462   2.242
76558SOL     OW31512   0.522   1.399  11.419
76558SOL    HW131513   0.431   1.397  11.391
76558SOL    HW231514   0.560   1.320  11.381
76559SOL     OW31515   9.589   6.475  12.210
76559SOL    HW131516   9.655   6.427  12.160
76559SOL    HW231517   9.567   6.550  12.155
76560SOL     OW31518   5.625   9.221   5.698
76560SOL    HW131519   5.637   9.130   5.724
76560SOL    HW231520   5.609   9.217   5.604
76561SOL     OW31521   8.951  14.156   1.444
76561SOL    HW131522   8.885  14.189   1.505
76561SOL    HW231523   8.981  14.074   1.484
76562SOL     OW31524  10.381   8.642   4.933
76562SOL    HW131525  10.397   8.557   4.974
76562SOL    HW231526  10.317   8.624   4.864
76563SOL     OW31527  11.993   8.964  12.299
76563SOL    HW131528  12.006   8.928  12.387
76563SOL    HW231529  11.964   9.054  12.314
76564SOL     OW31530  14.243   0.777  13.302
76564SOL    HW131531  14.325   0.818  13.327
76564SOL    HW231532  14.175   0.831  13.343
76565SOL     OW31533  13.225  10.985   2.191
76565SOL    HW131534  13.210  10.932   2.112
76565SOL    HW231535  13.173  11.063   2.178
76566SOL     OW31536   4.278  12.728   5.021
76566SOL    HW131537   4.204  12.714   5.079
76566SOL    HW231538   4.240  12.769   4.943
76567SOL     OW31539   5.292   9.558   8.456
76567SOL    HW131540   5.381   9.545   8.488
76567SOL    HW231541   5.244   9.482   8.488
76568SOL     OW31542   7.949  12.801  14.757
76568SOL    HW131543   7.971  12.715  14.792
76568SOL    HW231544   7.990  12.803  14.671
76569SOL     OW31545   4.755   7.416   5.296
76569SOL    HW131546   4.761   7.348   5.229
76569SOL    HW231547   4.742   7.368   5.378
76570SOL     OW31548  13.062   6.543   1.310
76570SOL    HW131549  13.041   6.578   1.224
76570SOL    HW231550  13.125   6.604   1.347
76571SOL     OW31551   4.539  14.657   4.470
76571SOL    HW131552   4.603  14.673   4.539
76571SOL    HW231553   4.495  14.741   4.458
76572SOL     OW31554  13.062   3.711   7.498
76572SOL    HW131555  13.131   3.714   7.564
76572SOL    HW231556  13.065   3.798   7.457
76573SOL     OW31557   7.663   0.905   4.123
76573SOL    HW131558   7.736   0.869   4.173
76573SOL    HW231559   7.599   0.930   4.190
76574SOL     OW31560   6.273   9.391   9.802
76574SOL    HW131561   6.314   9.349   9.878
76574SOL    HW231562   6.249   9.319   9.745
76575SOL     OW31563   3.470   7.642   4.285
76575SOL    HW131564   3.460   7.673   4.375
76575SOL    HW231565   3.523   7.563   4.292
76576SOL     OW31566   5.097  12.456   1.424
76576SOL    HW131567   5.156  12.399   1.473
76576SOL    HW231568   5.062  12.517   1.489
76577SOL     OW31569  10.042  12.303   9.749
76577SOL    HW131570   9.950  12.301   9.775
76577SOL    HW231571  10.089  12.326   9.829
76578SOL     OW31572   2.338  13.181   4.652
76578SOL    HW131573   2.258  13.159   4.699
76578SOL    HW231574   2.354  13.105   4.596
76579SOL     OW31575   5.189  11.420   0.493
76579SOL    HW131576   5.138  11.441   0.571
76579SOL    HW231577   5.182  11.499   0.438
76580SOL     OW31578  14.794   1.895  10.343
76580SOL    HW131579  14.783   1.988  10.326
76580SOL    HW231580   0.008   1.887  10.380
76581SOL     OW31581  13.166  12.076  14.851
76581SOL    HW131582  13.130  12.162  14.830
76581SOL    HW231583  13.117  12.015  14.796
76582SOL     OW31584   2.632  12.899  12.821
76582SOL    HW131585   2.678  12.907  12.738
76582SOL    HW231586   2.660  12.976  12.872
76583SOL     OW31587   3.338  14.114   0.256
76583SOL    HW131588   3.308  14.204   0.244
76583SOL    HW231589   3.308  14.090   0.344
76584SOL     OW31590   6.135  12.996  12.108
76584SOL    HW131591   6.190  13.074  12.105
76584SOL    HW231592   6.191  12.928  12.145
76585SOL     OW31593   7.599   5.974  12.477
76585SOL    HW131594   7.591   6.020  12.393
76585SOL    HW231595   7.509   5.947  12.497
76586SOL     OW31596  10.771   0.011   7.719
76586SOL    HW131597  10.775  14.803   7.670
76586SOL    HW231598  10.694   0.000   7.776
76587SOL     OW31599   5.609   1.525   2.812
76587SOL    HW131600   5.632   1.536   2.905
76587SOL    HW231601   5.674   1.464   2.778
76588SOL     OW31602   3.055   5.578  11.506
76588SOL    HW131603   3.142   5.540  11.496
76588SOL    HW231604   2.996   5.503  11.498
76589SOL     OW31605   4.136  12.730   1.277
76589SOL    HW131606   4.092  12.748   1.360
76589SOL    HW231607   4.118  12.638   1.260
76590SOL     OW31608   0.868   4.888  13.030
76590SOL    HW131609   0.934   4.949  13.062
76590SOL    HW231610   0.790   4.906  13.084
76591SOL     OW31611   9.788   2.403   0.444
76591SOL    HW131612   9.773   2.386   0.351
76591SOL    HW231613   9.762   2.322   0.488
76592SOL     OW31614   7.054   2.860  12.966
76592SOL    HW131615   7.012   2.924  13.024
76592SOL    HW231616   7.095   2.797  13.025
76593SOL     OW31617   5.486   7.243   5.274
76593SOL    HW131618   5.531   7.182   5.333
76593SOL    HW231619   5.533   7.326   5.286
76594SOL     OW31620   5.128  12.276   2.817
76594SOL    HW131621   5.105  12.278   2.724
76594SOL    HW231622   5.123  12.367   2.845
76595SOL     OW31623   1.081   8.770  14.095
76595SOL    HW131624   1.099   8.844  14.036
76595SOL    HW231625   1.069   8.696  14.036
76596SOL     OW31626   5.424   6.371   1.319
76596SOL    HW131627   5.387   6.300   1.267
76596SOL    HW231628   5.477   6.328   1.385
76597SOL     OW31629   3.124   6.123   7.573
76597SOL    HW131630   3.187   6.053   7.591
76597SOL    HW231631   3.135   6.141   7.480
76598SOL     OW31632  10.985  11.430  11.636
76598SOL    HW131633  10.920  11.431  11.566
76598SOL    HW231634  10.991  11.337  11.660
76599SOL     OW31635   6.608   0.967  11.590
76599SOL    HW131636   6.690   0.954  11.541
76599SOL    HW231637   6.637   0.977  11.681
76600SOL     OW31638   1.999   9.749  12.179
76600SOL    HW131639   1.959   9.736  12.265
76600SOL    HW231640   2.012   9.660  12.145
76601SOL     OW31641  11.621   5.000  12.531
76601SOL    HW131642  11.556   5.065  12.502
76601SOL    HW231643  11.704   5.048  12.529
76602SOL     OW31644   3.818   2.712  11.768
76602SOL    HW131645   3.823   2.800  11.805
76602SOL    HW231646   3.805   2.727  11.674
76603SOL     OW31647  13.340   3.206   7.492
76603SOL    HW131648  13.258   3.182   7.449
76603SOL    HW231649  13.343   3.151   7.570
76604SOL     OW31650  12.026   5.291  12.321
76604SOL    HW131651  12.085   5.312  12.394
76604SOL    HW231652  11.978   5.372  12.305
76605SOL     OW31653  12.522  12.231  10.518
76605SOL    HW131654  12.510  12.275  10.434
76605SOL    HW231655  12.527  12.302  10.582
76606SOL     OW31656   1.808   1.701   5.288
76606SOL    HW131657   1.771   1.624   5.331
76606SOL    HW231658   1.746   1.772   5.309
76607SOL     OW31659   9.850   7.801   7.258
76607SOL    HW131660   9.902   7.801   7.177
76607SOL    HW231661   9.799   7.881   7.254
76608SOL     OW31662   1.997   7.328   5.834
76608SOL    HW131663   2.082   7.285   5.846
76608SOL    HW231664   1.993   7.348   5.741
76609SOL     OW31665   2.747   4.004   3.145
76609SOL    HW131666   2.809   4.010   3.072
76609SOL    HW231667   2.777   3.928   3.195
76610SOL     OW31668  11.573  14.729  13.473
76610SOL    HW131669  11.481  14.728  13.501
76610SOL    HW231670  11.599  14.821  13.477
76611SOL     OW31671   5.607   5.044   5.664
76611SOL    HW131672   5.701   5.063   5.663
76611SOL    HW231673   5.599   4.962   5.711
76612SOL     OW31674   3.738  11.647   1.748
76612SOL    HW131675   3.646  11.672   1.750
76612SOL    HW231676   3.765  11.647   1.840
76613SOL     OW31677   0.573  12.456   9.659
76613SOL    HW131678   0.598  12.530   9.604
76613SOL    HW231679   0.480  12.444   9.643
76614SOL     OW31680   1.402  13.040   0.941
76614SOL    HW131681   1.465  13.107   0.913
76614SOL    HW231682   1.424  12.963   0.888
76615SOL     OW31683   6.813   9.419   6.774
76615SOL    HW131684   6.880   9.390   6.836
76615SOL    HW231685   6.740   9.448   6.828
76616SOL     OW31686   3.035   3.709   5.768
76616SOL    HW131687   3.010   3.733   5.678
76616SOL    HW231688   3.041   3.614   5.766
76617SOL     OW31689   2.640   3.362   2.003
76617SOL    HW131690   2.630   3.296   1.934
76617SOL    HW231691   2.552   3.371   2.040
76618SOL     OW31692   0.452   5.589   7.538
76618SOL    HW131693   0.409   5.652   7.481
76618SOL    HW231694   0.380   5.547   7.586
76619SOL     OW31695   5.235   9.828   5.370
76619SOL    HW131696   5.312   9.817   5.425
76619SOL    HW231697   5.163   9.843   5.431
76620SOL     OW31698   3.789   3.830   1.939
76620SOL    HW131699   3.750   3.811   2.024
76620SOL    HW231700   3.748   3.912   1.911
76621SOL     OW31701   3.834   3.781   5.180
76621SOL    HW131702   3.868   3.726   5.110
76621SOL    HW231703   3.753   3.818   5.145
76622SOL     OW31704  10.697   0.756  12.381
76622SOL    HW131705  10.692   0.724  12.291
76622SOL    HW231706  10.606   0.776  12.404
76623SOL     OW31707   6.399   1.771   0.975
76623SOL    HW131708   6.445   1.846   0.938
76623SOL    HW231709   6.469   1.713   1.007
76624SOL     OW31710   6.408  14.253   3.199
76624SOL    HW131711   6.486  14.198   3.193
76624SOL    HW231712   6.382  14.268   3.108
76625SOL     OW31713   3.200  14.070  14.672
76625SOL    HW131714   3.293  14.088  14.667
76625SOL    HW231715   3.194  13.976  14.686
76626SOL     OW31716   1.140  14.268  14.175
76626SOL    HW131717   1.156  14.329  14.103
76626SOL    HW231718   1.219  14.214  14.179
76627SOL     OW31719   5.918   4.297  14.279
76627SOL    HW131720   5.953   4.305  14.190
76627SOL    HW231721   5.899   4.204  14.289
76628SOL     OW31722  14.426   7.660   9.900
76628SOL    HW131723  14.517   7.634   9.885
76628SOL    HW231724  14.416   7.742   9.852
76629SOL     OW31725  13.822   3.690  10.257
76629SOL    HW131726  13.823   3.693  10.353
76629SOL    HW231727  13.750   3.748  10.233
76630SOL     OW31728   6.697   3.100   9.954
76630SOL    HW131729   6.738   3.143   9.879
76630SOL    HW231730   6.755   3.025   9.972
76631SOL     OW31731   2.741   2.548   1.010
76631SOL    HW131732   2.648   2.528   0.999
76631SOL    HW231733   2.779   2.464   1.038
76632SOL     OW31734  11.129   0.576   1.313
76632SOL    HW131735  11.150   0.584   1.220
76632SOL    HW231736  11.208   0.605   1.358
76633SOL     OW31737   6.825   6.716   2.426
76633SOL    HW131738   6.850   6.665   2.504
76633SOL    HW231739   6.827   6.652   2.354
76634SOL     OW31740   6.154   0.822   7.486
76634SOL    HW131741   6.124   0.798   7.573
76634SOL    HW231742   6.158   0.739   7.438
76635SOL     OW31743   2.122   0.863   1.542
76635SOL    HW131744   2.172   0.781   1.549
76635SOL    HW231745   2.144   0.911   1.621
76636SOL     OW31746   5.903  10.450   7.274
76636SOL    HW131747   5.882  10.406   7.357
76636SOL    HW231748   5.924  10.378   7.214
76637SOL     OW31749   2.686  13.686   9.279
76637SOL    HW131750   2.619  13.645   9.334
76637SOL    HW231751   2.752  13.718   9.341
76638SOL     OW31752  13.296   7.085   3.654
76638SOL    HW131753  13.310   7.094   3.560
76638SOL    HW231754  13.280   7.175   3.684
76639SOL     OW31755   0.676   3.557  12.474
76639SOL    HW131756   0.711   3.474  12.506
76639SOL    HW231757   0.668   3.612  12.552
76640SOL     OW31758   0.776   8.174   3.120
76640SOL    HW131759   0.682   8.166   3.101
76640SOL    HW231760   0.785   8.143   3.210
76641SOL     OW31761   1.663   4.206   2.720
76641SOL    HW131762   1.638   4.151   2.645
76641SOL    HW231763   1.740   4.163   2.756
76642SOL     OW31764   5.061   6.353   3.094
76642SOL    HW131765   5.065   6.426   3.156
76642SOL    HW231766   4.991   6.298   3.127
76643SOL     OW31767   2.306  12.541   7.019
76643SOL    HW131768   2.365  12.513   7.089
76643SOL    HW231769   2.220  12.505   7.045
76644SOL     OW31770   2.139  10.140  10.205
76644SOL    HW131771   2.095  10.108  10.284
76644SOL    HW231772   2.109  10.230  10.195
76645SOL     OW31773   8.472   0.856   4.093
76645SOL    HW131774   8.516   0.902   4.165
76645SOL    HW231775   8.416   0.923   4.053
76646SOL     OW31776  14.812   5.912   3.428
76646SOL    HW131777  14.770   5.869   3.503
76646SOL    HW231778  14.826   6.002   3.457
76647SOL     OW31779   2.976   4.208   2.672
76647SOL    HW131780   2.904   4.265   2.646
76647SOL    HW231781   3.046   4.268   2.699
76648SOL     OW31782   8.074  10.437   1.237
76648SOL    HW131783   8.155  10.466   1.195
76648SOL    HW231784   8.100  10.363   1.291
76649SOL     OW31785   5.374   4.363   8.725
76649SOL    HW131786   5.343   4.362   8.635
76649SOL    HW231787   5.465   4.393   8.720
76650SOL     OW31788   2.936   7.424   0.220
76650SOL    HW131789   3.020   7.469   0.221
76650SOL    HW231790   2.908   7.428   0.129
76651SOL     OW31791   3.430   8.666   2.200
76651SOL    HW131792   3.454   8.723   2.127
76651SOL    HW231793   3.434   8.722   2.277
76652SOL     OW31794   0.796   5.914   5.530
76652SOL    HW131795   0.801   5.920   5.435
76652SOL    HW231796   0.864   5.973   5.562
76653SOL     OW31797  10.390   6.253  13.190
76653SOL    HW131798  10.352   6.252  13.102
76653SOL    HW231799  10.344   6.182  13.236
76654SOL     OW31800  14.254   6.394  13.075
76654SOL    HW131801  14.303   6.428  13.150
76654SOL    HW231802  14.315   6.399  13.001
76655SOL     OW31803  11.072   2.432   3.918
76655SOL    HW131804  11.061   2.494   3.990
76655SOL    HW231805  11.110   2.354   3.958
76656SOL     OW31806   8.891  13.795   7.828
76656SOL    HW131807   8.961  13.732   7.848
76656SOL    HW231808   8.840  13.800   7.909
76657SOL     OW31809   7.368  11.391   1.359
76657SOL    HW131810   7.288  11.338   1.362
76657SOL    HW231811   7.339  11.476   1.326
76658SOL     OW31812   8.882  14.390   6.076
76658SOL    HW131813   8.927  14.309   6.052
76658SOL    HW231814   8.846  14.423   5.994
76659SOL     OW31815  10.131   1.534   8.040
76659SOL    HW131816  10.115   1.628   8.051
76659SOL    HW231817  10.104   1.496   8.124
76660SOL     OW31818   0.928  12.298   7.877
76660SOL    HW131819   0.911  12.286   7.784
76660SOL    HW231820   0.991  12.371   7.881
76661SOL     OW31821   7.737   2.343   7.317
76661SOL    HW131822   7.658   2.289   7.318
76661SOL    HW231823   7.805   2.287   7.354
76662SOL     OW31824   2.119  12.948   2.702
76662SOL    HW131825   2.127  13.044   2.699
76662SOL    HW231826   2.153  12.924   2.788
76663SOL     OW31827  10.247  14.608  11.634
76663SOL    HW131828  10.330  14.574  11.668
76663SOL    HW231829  10.180  14.551  11.672
76664SOL     OW31830   0.005   3.685   8.865
76664SOL    HW131831   0.037   3.652   8.949
76664SOL    HW231832   0.041   3.773   8.858
76665SOL     OW31833   7.813   5.423   4.530
76665SOL    HW131834   7.789   5.499   4.476
76665SOL    HW231835   7.902   5.442   4.559
76666SOL     OW31836   7.742   8.347   2.756
76666SOL    HW131837   7.674   8.398   2.799
76666SOL    HW231838   7.824   8.386   2.786
76667SOL     OW31839  14.471   6.401   3.185
76667SOL    HW131840  14.506   6.484   3.215
76667SOL    HW231841  14.376   6.410   3.194
76668SOL     OW31842   1.010   6.710  12.499
76668SOL    HW131843   0.989   6.804  12.498
76668SOL    HW231844   1.070   6.699  12.426
76669SOL     OW31845  11.121  10.670  11.215
76669SOL    HW131846  11.083  10.711  11.293
76669SOL    HW231847  11.151  10.585  11.245
76670SOL     OW31848  10.319   1.558  10.154
76670SOL    HW131849  10.242   1.614  10.165
76670SOL    HW231850  10.299   1.479  10.203
76671SOL     OW31851  13.008   9.499  11.879
76671SOL    HW131852  13.095   9.459  11.877
76671SOL    HW231853  12.976   9.489  11.789
76672SOL     OW31854   5.374  10.382   4.666
76672SOL    HW131855   5.465  10.368   4.637
76672SOL    HW231856   5.367  10.333   4.748
76673SOL     OW31857   1.235   5.640   6.149
76673SOL    HW131858   1.288   5.720   6.145
76673SOL    HW231859   1.237   5.606   6.059
76674SOL     OW31860  14.136   5.551  11.326
76674SOL    HW131861  14.062   5.548  11.265
76674SOL    HW231862  14.103   5.601  11.400
76675SOL     OW31863   3.951   7.053   5.902
76675SOL    HW131864   4.043   7.073   5.916
76675SOL    HW231865   3.904   7.132   5.928
76676SOL     OW31866   6.395   4.753   0.459
76676SOL    HW131867   6.431   4.828   0.507
76676SOL    HW231868   6.323   4.722   0.513
76677SOL     OW31869   9.192   1.045   0.188
76677SOL    HW131870   9.123   1.006   0.241
76677SOL    HW231871   9.233   1.109   0.246
76678SOL     OW31872   3.759   3.200  13.877
76678SOL    HW131873   3.719   3.131  13.930
76678SOL    HW231874   3.762   3.276  13.935
76679SOL     OW31875  10.769   8.964   2.625
76679SOL    HW131876  10.848   8.926   2.664
76679SOL    HW231877  10.790   8.970   2.532
76680SOL     OW31878   0.224  10.675   1.246
76680SOL    HW131879   0.155  10.698   1.308
76680SOL    HW231880   0.178  10.634   1.172
76681SOL     OW31881   8.744   9.337   4.468
76681SOL    HW131882   8.750   9.289   4.551
76681SOL    HW231883   8.661   9.309   4.430
76682SOL     OW31884  13.255  12.480   3.229
76682SOL    HW131885  13.244  12.428   3.309
76682SOL    HW231886  13.248  12.416   3.158
76683SOL     OW31887  10.727   6.592   6.959
76683SOL    HW131888  10.765   6.659   6.901
76683SOL    HW231889  10.766   6.610   7.044
76684SOL     OW31890   0.887   6.293   3.040
76684SOL    HW131891   0.894   6.291   3.136
76684SOL    HW231892   0.880   6.202   3.014
76685SOL     OW31893   0.871   7.674  13.856
76685SOL    HW131894   0.874   7.756  13.906
76685SOL    HW231895   0.817   7.694  13.780
76686SOL     OW31896   2.828   9.280   4.112
76686SOL    HW131897   2.831   9.205   4.172
76686SOL    HW231898   2.903   9.266   4.054
76687SOL     OW31899  12.918  13.377   6.750
76687SOL    HW131900  12.845  13.321   6.776
76687SOL    HW231901  12.956  13.406   6.833
76688SOL     OW31902   3.149   8.221  12.177
76688SOL    HW131903   3.124   8.270  12.256
76688SOL    HW231904   3.235   8.185  12.197
76689SOL     OW31905   1.189   9.315  12.365
76689SOL    HW131906   1.217   9.230  12.333
76689SOL    HW231907   1.137   9.295  12.443
76690SOL     OW31908  11.764  10.168   4.902
76690SOL    HW131909  11.673  10.164   4.873
76690SOL    HW231910  11.815  10.139   4.827
76691SOL     OW31911  14.417   0.977  14.639
76691SOL    HW131912  14.357   0.904  14.624
76691SOL    HW231913  14.423   1.021  14.555
76692SOL     OW31914   7.598   1.741  14.773
76692SOL    HW131915   7.635   1.691  14.846
76692SOL    HW231916   7.645   1.708  14.696
76693SOL     OW31917   7.610   4.270   8.021
76693SOL    HW131918   7.692   4.313   7.995
76693SOL    HW231919   7.618   4.258   8.115
76694SOL     OW31920  10.539  10.617   2.046
76694SOL    HW131921  10.492  10.688   2.002
76694SOL    HW231922  10.474  10.575   2.101
76695SOL     OW31923   7.428   3.242   8.984
76695SOL    HW131924   7.340   3.275   9.000
76695SOL    HW231925   7.420   3.146   8.990
76696SOL     OW31926   0.858   3.687  10.656
76696SOL    HW131927   0.776   3.701  10.608
76696SOL    HW231928   0.906   3.623  10.604
76697SOL     OW31929   0.641   6.797   0.116
76697SOL    HW131930   0.611   6.733   0.180
76697SOL    HW231931   0.668   6.873   0.168
76698SOL     OW31932   1.519  10.210  14.446
76698SOL    HW131933   1.430  10.224  14.411
76698SOL    HW231934   1.571  10.186  14.369
76699SOL     OW31935   1.324   2.862  13.213
76699SOL    HW131936   1.300   2.908  13.293
76699SOL    HW231937   1.243   2.856  13.163
76700SOL     OW31938  12.254   7.171   4.425
76700SOL    HW131939  12.273   7.218   4.506
76700SOL    HW231940  12.180   7.114   4.446
76701SOL     OW31941   9.312  13.542   4.690
76701SOL    HW131942   9.255  13.472   4.656
76701SOL    HW231943   9.277  13.560   4.778
76702SOL     OW31944  11.221  11.430   2.645
76702SOL    HW131945  11.301  11.459   2.601
76702SOL    HW231946  11.173  11.511   2.664
76703SOL     OW31947  10.362   9.925   0.061
76703SOL    HW131948  10.278   9.882   0.047
76703SOL    HW231949  10.395   9.942  14.847
76704SOL     OW31950  12.898   8.023   7.447
76704SOL    HW131951  12.817   7.974   7.457
76704SOL    HW231952  12.966   7.964   7.477
76705SOL     OW31953  13.339   7.615   8.985
76705SOL    HW131954  13.384   7.596   8.903
76705SOL    HW231955  13.406   7.601   9.053
76706SOL     OW31956  12.271   2.438   2.434
76706SOL    HW131957  12.179   2.454   2.412
76706SOL    HW231958  12.320   2.487   2.368
76707SOL     OW31959  14.451  14.505   5.785
76707SOL    HW131960  14.363  14.537   5.808
76707SOL    HW231961  14.476  14.448   5.857
76708SOL     OW31962  14.745  13.866   7.618
76708SOL    HW131963  14.767  13.899   7.530
76708SOL    HW231964  14.830  13.846   7.658
76709SOL     OW31965   5.618   8.604   8.891
76709SOL    HW131966   5.680   8.539   8.858
76709SOL    HW231967   5.570   8.634   8.814
76710SOL     OW31968   1.943  12.204   3.445
76710SOL    HW131969   1.973  12.269   3.381
76710SOL    HW231970   1.861  12.240   3.479
76711SOL     OW31971   1.555  11.511   4.029
76711SOL    HW131972   1.556  11.578   4.098
76711SOL    HW231973   1.563  11.560   3.948
76712SOL     OW31974   9.470   3.332   8.720
76712SOL    HW131975   9.432   3.420   8.727
76712SOL    HW231976   9.534   3.339   8.649
76713SOL     OW31977  12.419   5.657  11.728
76713SOL    HW131978  12.393   5.603  11.803
76713SOL    HW231979  12.337   5.686  11.689
76714SOL     OW31980   0.765   1.495   5.144
76714SOL    HW131981   0.747   1.570   5.200
76714SOL    HW231982   0.787   1.533   5.059
76715SOL     OW31983  10.851   2.251  11.845
76715SOL    HW131984  10.761   2.269  11.818
76715SOL    HW231985  10.842   2.207  11.930
76716SOL     OW31986   9.484  12.263   6.440
76716SOL    HW131987   9.393  12.274   6.413
76716SOL    HW231988   9.524  12.348   6.422
76717SOL     OW31989   5.642   6.287  13.919
76717SOL    HW131990   5.618   6.326  14.003
76717SOL    HW231991   5.698   6.213  13.942
76718SOL     OW31992  12.884   8.047   9.518
76718SOL    HW131993  12.827   8.051   9.595
76718SOL    HW231994  12.823   8.047   9.444
76719SOL     OW31995   1.749   7.448   3.494
76719SOL    HW131996   1.688   7.381   3.465
76719SOL    HW231997   1.809   7.459   3.420
76720SOL     OW31998   8.454   2.207   6.758
76720SOL    HW131999   8.533   2.207   6.811
76720SOL    HW232000   8.387   2.170   6.815
76721SOL     OW32001  13.546   8.328   7.006
76721SOL    HW132002  13.523   8.356   6.918
76721SOL    HW232003  13.469   8.279   7.036
76722SOL     OW32004  13.827  10.157   7.097
76722SOL    HW132005  13.884  10.231   7.117
76722SOL    HW232006  13.844  10.095   7.168
76723SOL     OW32007  11.992  13.274   1.887
76723SOL    HW132008  11.974  13.235   1.802
76723SOL    HW232009  12.037  13.206   1.937
76724SOL     OW32010   9.704  13.306   7.047
76724SOL    HW132011   9.647  13.270   6.979
76724SOL    HW232012   9.663  13.390   7.070
76725SOL     OW32013   3.195   5.555  10.466
76725SOL    HW132014   3.202   5.608  10.546
76725SOL    HW232015   3.281   5.513  10.458
76726SOL     OW32016   4.760   3.987   5.102
76726SOL    HW132017   4.841   4.030   5.074
76726SOL    HW232018   4.692   4.023   5.044
76727SOL     OW32019   1.744  11.736  13.800
76727SOL    HW132020   1.763  11.750  13.707
76727SOL    HW232021   1.709  11.819  13.830
76728SOL     OW32022   9.412  10.138   9.206
76728SOL    HW132023   9.456  10.060   9.172
76728SOL    HW232024   9.321  10.129   9.179
76729SOL     OW32025  11.415   5.556   4.535
76729SOL    HW132026  11.425   5.526   4.444
76729SOL    HW232027  11.369   5.484   4.579
76730SOL     OW32028   7.038   3.398   8.608
76730SOL    HW132029   7.109   3.445   8.653
76730SOL    HW232030   7.009   3.458   8.540
76731SOL     OW32031   8.687   9.325   7.113
76731SOL    HW132032   8.646   9.360   7.191
76731SOL    HW232033   8.652   9.378   7.041
76732SOL     OW32034   5.351   6.803   3.588
76732SOL    HW132035   5.306   6.834   3.667
76732SOL    HW232036   5.282   6.798   3.522
76733SOL     OW32037   3.899  14.438  11.550
76733SOL    HW132038   3.920  14.531  11.548
76733SOL    HW232039   3.838  14.426  11.477
76734SOL     OW32040  12.651   0.490  12.188
76734SOL    HW132041  12.657   0.400  12.157
76734SOL    HW232042  12.742   0.522  12.188
76735SOL     OW32043   4.436   0.851   3.567
76735SOL    HW132044   4.444   0.769   3.519
76735SOL    HW232045   4.454   0.920   3.503
76736SOL     OW32046  11.332   1.080  12.361
76736SOL    HW132047  11.284   1.079  12.443
76736SOL    HW232048  11.374   1.166  12.359
76737SOL     OW32049   0.104   5.089   8.202
76737SOL    HW132050   0.116   5.118   8.292
76737SOL    HW232051   0.066   5.165   8.157
76738SOL     OW32052   9.562   4.950   4.754
76738SOL    HW132053   9.500   4.982   4.819
76738SOL    HW232054   9.620   5.024   4.737
76739SOL     OW32055  13.431   3.902  11.740
76739SOL    HW132056  13.526   3.900  11.753
76739SOL    HW232057  13.420   3.915  11.646
76740SOL     OW32058   8.109   9.707  10.092
76740SOL    HW132059   8.148   9.724  10.177
76740SOL    HW232060   8.162   9.636  10.055
76741SOL     OW32061  12.185   2.435   1.273
76741SOL    HW132062  12.202   2.477   1.188
76741SOL    HW232063  12.188   2.507   1.336
76742SOL     OW32064   1.884  10.885   4.761
76742SOL    HW132065   1.794  10.863   4.787
76742SOL    HW232066   1.898  10.836   4.680
76743SOL     OW32067   2.022   3.820   6.891
76743SOL    HW132068   2.035   3.914   6.879
76743SOL    HW232069   1.995   3.810   6.982
76744SOL     OW32070   1.279   2.984   5.063
76744SOL    HW132071   1.344   2.917   5.042
76744SOL    HW232072   1.295   3.004   5.156
76745SOL     OW32073   8.924   4.378   8.592
76745SOL    HW132074   8.883   4.433   8.525
76745SOL    HW232075   8.867   4.301   8.597
76746SOL     OW32076  11.783  10.876   6.944
76746SOL    HW132077  11.785  10.821   6.865
76746SOL    HW232078  11.865  10.856   6.989
76747SOL     OW32079   5.728  14.213   8.220
76747SOL    HW132080   5.636  14.190   8.227
76747SOL    HW232081   5.775  14.130   8.218
76748SOL     OW32082   5.287  12.507  14.198
76748SOL    HW132083   5.320  12.575  14.257
76748SOL    HW232084   5.255  12.554  14.122
76749SOL     OW32085   3.404  14.650  11.210
76749SOL    HW132086   3.448  14.659  11.125
76749SOL    HW232087   3.445  14.715  11.266
76750SOL     OW32088   3.810   9.713  11.306
76750SOL    HW132089   3.893   9.693  11.349
76750SOL    HW232090   3.821   9.802  11.271
76751SOL     OW32091  10.640   1.960   8.946
76751SOL    HW132092  10.656   1.941   9.038
76751SOL    HW232093  10.639   1.874   8.904
76752SOL     OW32094   8.384   7.454  11.622
76752SOL    HW132095   8.307   7.507  11.601
76752SOL    HW232096   8.359   7.405  11.700
76753SOL     OW32097   0.086   0.756   4.707
76753SOL    HW132098   0.136   0.686   4.666
76753SOL    HW232099   0.102   0.746   4.801
76754SOL     OW32100   8.108   9.110   0.801
76754SOL    HW132101   8.081   9.030   0.756
76754SOL    HW232102   8.202   9.116   0.787
76755SOL     OW32103   8.154  11.630  11.193
76755SOL    HW132104   8.158  11.590  11.280
76755SOL    HW232105   8.179  11.559  11.134
76756SOL     OW32106   0.751  12.331  13.038
76756SOL    HW132107   0.801  12.253  13.059
76756SOL    HW232108   0.782  12.397  13.099
76757SOL     OW32109  12.653  14.004  13.443
76757SOL    HW132110  12.567  14.046  13.435
76757SOL    HW232111  12.705  14.065  13.495
76758SOL     OW32112   1.908   2.012   5.790
76758SOL    HW132113   1.876   2.020   5.700
76758SOL    HW232114   1.843   2.059   5.843
76759SOL     OW32115   6.475   5.788   5.654
76759SOL    HW132116   6.434   5.701   5.651
76759SOL    HW232117   6.508   5.795   5.744
76760SOL     OW32118   9.469   3.652   2.930
76760SOL    HW132119   9.469   3.668   3.024
76760SOL    HW232120   9.561   3.643   2.906
76761SOL     OW32121   2.177  10.087   9.408
76761SOL    HW132122   2.158  10.054   9.321
76761SOL    HW232123   2.128  10.030   9.467
76762SOL     OW32124   9.444  10.397  10.997
76762SOL    HW132125   9.434  10.451  11.076
76762SOL    HW232126   9.447  10.460  10.925
76763SOL     OW32127   8.957   4.275  13.532
76763SOL    HW132128   8.973   4.181  13.525
76763SOL    HW232129   8.900   4.285  13.608
76764SOL     OW32130   8.688   0.372   3.043
76764SOL    HW132131   8.757   0.436   3.029
76764SOL    HW232132   8.621   0.395   2.978
76765SOL     OW32133  10.478  10.271  13.893
76765SOL    HW132134  10.538  10.316  13.833
76765SOL    HW232135  10.390  10.293  13.860
76766SOL     OW32136  11.513   4.275  12.869
76766SOL    HW132137  11.607   4.265  12.881
76766SOL    HW232138  11.476   4.190  12.894
76767SOL     OW32139   5.878  13.170   8.327
76767SOL    HW132140   5.888  13.082   8.290
76767SOL    HW232141   5.797  13.166   8.378
76768SOL     OW32142   2.320   7.466   3.558
76768SOL    HW132143   2.293   7.530   3.624
76768SOL    HW232144   2.332   7.518   3.478
76769SOL     OW32145  12.455   9.968   4.457
76769SOL    HW132146  12.482   9.952   4.367
76769SOL    HW232147  12.451   9.882   4.498
76770SOL     OW32148   0.126   4.622   8.799
76770SOL    HW132149   0.161   4.649   8.714
76770SOL    HW232150   0.121   4.527   8.794
76771SOL     OW32151   3.434   5.036  12.053
76771SOL    HW132152   3.392   4.972  12.111
76771SOL    HW232153   3.364   5.095  12.027
76772SOL     OW32154   8.174   5.583  10.685
76772SOL    HW132155   8.169   5.595  10.780
76772SOL    HW232156   8.167   5.488  10.673
76773SOL     OW32157   0.842  13.590  11.707
76773SOL    HW132158   0.893  13.524  11.754
76773SOL    HW232159   0.906  13.637  11.654
76774SOL     OW32160   3.537   5.859  11.014
76774SOL    HW132161   3.512   5.852  11.106
76774SOL    HW232162   3.530   5.770  10.980
76775SOL     OW32163   5.048  13.044   8.437
76775SOL    HW132164   5.084  13.065   8.351
76775SOL    HW232165   5.118  12.994   8.480
76776SOL     OW32166   3.442  13.914  12.140
76776SOL    HW132167   3.398  13.912  12.055
76776SOL    HW232168   3.462  14.007  12.154
76777SOL     OW32169   0.494  12.822   2.322
76777SOL    HW132170   0.503  12.914   2.299
76777SOL    HW232171   0.526  12.774   2.245
76778SOL     OW32172   2.982   7.093  14.480
76778SOL    HW132173   2.923   7.018  14.489
76778SOL    HW232174   3.054   7.061  14.426
76779SOL     OW32175   5.232  13.490   0.840
76779SOL    HW132176   5.192  13.573   0.815
76779SOL    HW232177   5.302  13.515   0.900
76780SOL     OW32178  10.257   6.595   8.760
76780SOL    HW132179  10.220   6.537   8.827
76780SOL    HW232180  10.315   6.654   8.809
76781SOL     OW32181  13.057   3.047   2.560
76781SOL    HW132182  13.026   3.129   2.520
76781SOL    HW232183  12.992   2.982   2.534
76782SOL     OW32184   9.453   5.971  11.395
76782SOL    HW132185   9.423   5.887  11.361
76782SOL    HW232186   9.418   6.035  11.333
76783SOL     OW32187   7.643   1.422   0.812
76783SOL    HW132188   7.690   1.482   0.754
76783SOL    HW232189   7.569   1.392   0.759
76784SOL     OW32190   6.564   0.402   4.514
76784SOL    HW132191   6.545   0.338   4.444
76784SOL    HW232192   6.600   0.349   4.585
76785SOL     OW32193   8.058   4.295  10.905
76785SOL    HW132194   7.966   4.271  10.894
76785SOL    HW232195   8.071   4.302  11.000
76786SOL     OW32196   9.848   6.753   7.203
76786SOL    HW132197   9.868   6.673   7.250
76786SOL    HW232198   9.864   6.733   7.112
76787SOL     OW32199  11.515  13.329   5.011
76787SOL    HW132200  11.532  13.235   4.997
76787SOL    HW232201  11.465  13.356   4.934
76788SOL     OW32202  11.392  14.867  14.442
76788SOL    HW132203  11.486   0.009  14.434
76788SOL    HW232204  11.383  14.772  14.440
76789SOL     OW32205   6.475   2.067   4.976
76789SOL    HW132206   6.386   2.100   4.959
76789SOL    HW232207   6.461   1.979   5.012
76790SOL     OW32208   6.656   6.942   6.579
76790SOL    HW132209   6.575   6.904   6.614
76790SOL    HW232210   6.655   6.918   6.486
76791SOL     OW32211  13.436  14.756   5.588
76791SOL    HW132212  13.443  14.803   5.504
76791SOL    HW232213  13.485  14.811   5.650
76792SOL     OW32214   4.729   5.230   6.013
76792SOL    HW132215   4.670   5.211   6.086
76792SOL    HW232216   4.694   5.177   5.941
76793SOL     OW32217  11.921  11.319  14.794
76793SOL    HW132218  11.859  11.301  14.723
76793SOL    HW232219  11.921  11.415  14.801
76794SOL     OW32220   4.384   0.936   5.034
76794SOL    HW132221   4.306   0.902   5.078
76794SOL    HW232222   4.399   1.022   5.074
76795SOL     OW32223   4.257   3.022  12.306
76795SOL    HW132224   4.289   3.100  12.353
76795SOL    HW232225   4.162   3.026  12.315
76796SOL     OW32226  13.673   9.037   9.548
76796SOL    HW132227  13.659   8.957   9.599
76796SOL    HW232228  13.742   9.083   9.596
76797SOL     OW32229   0.736   5.337   1.939
76797SOL    HW132230   0.682   5.398   1.887
76797SOL    HW232231   0.679   5.313   2.013
76798SOL     OW32232   5.023  14.845   1.074
76798SOL    HW132233   4.997   0.062   1.065
76798SOL    HW232234   5.032  14.831   1.168
76799SOL     OW32235   8.591   6.846   2.800
76799SOL    HW132236   8.555   6.782   2.738
76799SOL    HW232237   8.531   6.843   2.875
76800SOL     OW32238   2.002   3.167  12.235
76800SOL    HW132239   1.999   3.262  12.239
76800SOL    HW232240   2.030   3.147  12.146
76801SOL     OW32241  14.672   7.543   4.831
76801SOL    HW132242  14.595   7.515   4.882
76801SOL    HW232243  14.732   7.579   4.897
76802SOL     OW32244  12.209   2.699   4.695
76802SOL    HW132245  12.120   2.733   4.704
76802SOL    HW232246  12.265   2.772   4.724
76803SOL     OW32247   6.247   7.975  13.133
76803SOL    HW132248   6.234   7.883  13.111
76803SOL    HW232249   6.160   8.013  13.128
76804SOL     OW32250   0.551  10.952   9.453
76804SOL    HW132251   0.532  11.044   9.473
76804SOL    HW232252   0.490  10.903   9.508
76805SOL     OW32253  11.185   0.990   4.235
76805SOL    HW132254  11.102   1.031   4.261
76805SOL    HW232255  11.195   1.015   4.143
76806SOL     OW32256  13.186   7.903   0.346
76806SOL    HW132257  13.233   7.887   0.264
76806SOL    HW232258  13.255   7.922   0.410
76807SOL     OW32259   4.275   4.050   1.734
76807SOL    HW132260   4.231   3.967   1.752
76807SOL    HW232261   4.324   4.070   1.813
76808SOL     OW32262   2.630  13.751   2.753
76808SOL    HW132263   2.658  13.694   2.825
76808SOL    HW232264   2.552  13.708   2.718
76809SOL     OW32265  12.684  11.348   8.924
76809SOL    HW132266  12.745  11.422   8.921
76809SOL    HW232267  12.609  11.381   8.973
76810SOL     OW32268   1.007   0.811   5.463
76810SOL    HW132269   1.049   0.896   5.451
76810SOL    HW232270   1.003   0.800   5.558
76811SOL     OW32271   8.241   2.631   8.945
76811SOL    HW132272   8.277   2.544   8.927
76811SOL    HW232273   8.147   2.621   8.931
76812SOL     OW32274   7.420   9.347  13.020
76812SOL    HW132275   7.450   9.397  12.944
76812SOL    HW232276   7.447   9.257  13.003
76813SOL     OW32277  10.823   5.225  10.761
76813SOL    HW132278  10.838   5.311  10.801
76813SOL    HW232279  10.908   5.201  10.723
76814SOL     OW32280   8.943   8.668  12.549
76814SOL    HW132281   8.884   8.650  12.621
76814SOL    HW232282   9.018   8.611  12.563
76815SOL     OW32283   2.309   9.189  12.222
76815SOL    HW132284   2.369   9.231  12.284
76815SOL    HW232285   2.228   9.240  12.230
76816SOL     OW32286   2.041   3.087   2.379
76816SOL    HW132287   1.977   3.045   2.437
76816SOL    HW232288   1.996   3.095   2.295
76817SOL     OW32289   2.105  10.530   4.218
76817SOL    HW132290   2.131  10.484   4.139
76817SOL    HW232291   2.139  10.475   4.289
76818SOL     OW32292   5.004   8.261   8.448
76818SOL    HW132293   4.971   8.270   8.538
76818SOL    HW232294   5.099   8.272   8.456
76819SOL     OW32295  12.975   4.051   9.248
76819SOL    HW132296  13.011   4.105   9.319
76819SOL    HW232297  13.021   3.967   9.257
76820SOL     OW32298   1.521   6.382  10.637
76820SOL    HW132299   1.568   6.456  10.600
76820SOL    HW232300   1.502   6.407  10.727
76821SOL     OW32301   7.472   2.384   7.947
76821SOL    HW132302   7.509   2.457   7.896
76821SOL    HW232303   7.421   2.334   7.884
76822SOL     OW32304   9.483   8.702  14.144
76822SOL    HW132305   9.464   8.706  14.050
76822SOL    HW232306   9.422   8.635  14.177
76823SOL     OW32307   4.759   5.342   9.267
76823SOL    HW132308   4.767   5.368   9.359
76823SOL    HW232309   4.709   5.260   9.270
76824SOL     OW32310  12.751   0.276  11.353
76824SOL    HW132311  12.681   0.320  11.304
76824SOL    HW232312  12.717   0.271  11.443
76825SOL     OW32313   4.466   4.003  12.012
76825SOL    HW132314   4.443   4.077  12.067
76825SOL    HW232315   4.487   3.933  12.074
76826SOL     OW32316  11.699  13.908   7.669
76826SOL    HW132317  11.610  13.875   7.655
76826SOL    HW232318  11.755  13.831   7.663
76827SOL     OW32319   7.312   0.871  13.331
76827SOL    HW132320   7.360   0.829  13.402
76827SOL    HW232321   7.343   0.828  13.252
76828SOL     OW32322  10.446   4.581   8.450
76828SOL    HW132323  10.517   4.640   8.476
76828SOL    HW232324  10.484   4.494   8.455
76829SOL     OW32325   2.046   9.049  11.936
76829SOL    HW132326   2.130   9.093  11.943
76829SOL    HW232327   2.069   8.956  11.926
76830SOL     OW32328   2.452   6.199   2.895
76830SOL    HW132329   2.374   6.235   2.853
76830SOL    HW232330   2.430   6.196   2.988
76831SOL     OW32331   8.360   6.758   7.719
76831SOL    HW132332   8.365   6.814   7.796
76831SOL    HW232333   8.267   6.757   7.696
76832SOL     OW32334  12.095   3.021  11.263
76832SOL    HW132335  12.060   3.109  11.278
76832SOL    HW232336  12.190   3.033  11.264
76833SOL     OW32337   5.515   1.206  13.376
76833SOL    HW132338   5.524   1.262  13.453
76833SOL    HW232339   5.503   1.267  13.303
76834SOL     OW32340   5.156   0.227   0.844
76834SOL    HW132341   5.081   0.199   0.897
76834SOL    HW232342   5.151   0.174   0.765
76835SOL     OW32343   8.360   5.055   2.753
76835SOL    HW132344   8.317   5.074   2.836
76835SOL    HW232345   8.386   5.141   2.720
76836SOL     OW32346   3.511   8.454   9.690
76836SOL    HW132347   3.501   8.359   9.703
76836SOL    HW232348   3.590   8.462   9.636
76837SOL     OW32349   2.306   5.331   0.469
76837SOL    HW132350   2.293   5.325   0.374
76837SOL    HW232351   2.356   5.412   0.481
76838SOL     OW32352   7.151   4.960   7.019
76838SOL    HW132353   7.168   4.954   6.925
76838SOL    HW232354   7.056   4.949   7.028
76839SOL     OW32355   3.426   1.643   8.771
76839SOL    HW132356   3.493   1.644   8.840
76839SOL    HW232357   3.475   1.634   8.690
76840SOL     OW32358   9.562  13.201  12.249
76840SOL    HW132359   9.644  13.226  12.292
76840SOL    HW232360   9.536  13.279  12.200
76841SOL     OW32361   4.355  10.773  13.908
76841SOL    HW132362   4.290  10.801  13.844
76841SOL    HW232363   4.361  10.846  13.970
76842SOL     OW32364  10.419  11.450  14.479
76842SOL    HW132365  10.460  11.403  14.407
76842SOL    HW232366  10.362  11.385  14.521
76843SOL     OW32367   3.132  13.616   5.498
76843SOL    HW132368   3.070  13.631   5.570
76843SOL    HW232369   3.200  13.561   5.537
76844SOL     OW32370   8.290   0.793   3.664
76844SOL    HW132371   8.322   0.762   3.579
76844SOL    HW232372   8.307   0.720   3.724
76845SOL     OW32373  10.277   5.471  11.985
76845SOL    HW132374  10.355   5.528  11.982
76845SOL    HW232375  10.250   5.474  12.077
76846SOL     OW32376  14.321   6.117   7.076
76846SOL    HW132377  14.415   6.116   7.094
76846SOL    HW232378  14.291   6.028   7.095
76847SOL     OW32379  12.875   8.600   7.766
76847SOL    HW132380  12.820   8.530   7.802
76847SOL    HW232381  12.964   8.573   7.786
76848SOL     OW32382  12.660   0.852   5.524
76848SOL    HW132383  12.565   0.846   5.529
76848SOL    HW232384  12.684   0.802   5.446
76849SOL     OW32385  13.125  13.938   7.192
76849SOL    HW132386  13.206  13.989   7.197
76849SOL    HW232387  13.110  13.908   7.282
76850SOL     OW32388   7.615  12.569   5.856
76850SOL    HW132389   7.611  12.494   5.916
76850SOL    HW232390   7.699  12.610   5.875
76851SOL     OW32391  11.537   2.293   9.490
76851SOL    HW132392  11.486   2.356   9.542
76851SOL    HW232393  11.472   2.251   9.433
76852SOL     OW32394  12.516   9.053   9.823
76852SOL    HW132395  12.441   8.995   9.837
76852SOL    HW232396  12.494   9.133   9.870
76853SOL     OW32397  12.741   3.241  14.364
76853SOL    HW132398  12.723   3.335  14.366
76853SOL    HW232399  12.765   3.220  14.455
76854SOL     OW32400   3.649   6.305   3.476
76854SOL    HW132401   3.674   6.374   3.538
76854SOL    HW232402   3.567   6.270   3.510
76855SOL     OW32403   2.185  14.393   3.229
76855SOL    HW132404   2.184  14.473   3.282
76855SOL    HW232405   2.218  14.326   3.289
76856SOL     OW32406  11.755   8.012   0.809
76856SOL    HW132407  11.841   7.988   0.774
76856SOL    HW232408  11.709   7.928   0.819
76857SOL     OW32409   4.832   1.684   4.780
76857SOL    HW132410   4.907   1.674   4.722
76857SOL    HW232411   4.862   1.650   4.864
76858SOL     OW32412  12.672   8.670  10.626
76858SOL    HW132413  12.743   8.692  10.565
76858SOL    HW232414  12.716   8.641  10.705
76859SOL     OW32415   7.766   4.376  10.118
76859SOL    HW132416   7.771   4.439  10.190
76859SOL    HW232417   7.689   4.403  10.068
76860SOL     OW32418   6.330  12.519  12.882
76860SOL    HW132419   6.321  12.570  12.963
76860SOL    HW232420   6.362  12.583  12.817
76861SOL     OW32421   6.193   7.403  11.479
76861SOL    HW132422   6.183   7.442  11.566
76861SOL    HW232423   6.229   7.474  11.426
76862SOL     OW32424   2.032   1.585   1.203
76862SOL    HW132425   2.106   1.618   1.152
76862SOL    HW232426   2.001   1.509   1.154
76863SOL     OW32427   9.922  13.811   3.508
76863SOL    HW132428   9.854  13.750   3.536
76863SOL    HW232429   9.954  13.851   3.589
76864SOL     OW32430   7.898   5.380   9.954
76864SOL    HW132431   7.859   5.299   9.985
76864SOL    HW232432   7.956   5.408  10.025
76865SOL     OW32433  12.562   4.296   7.699
76865SOL    HW132434  12.564   4.346   7.617
76865SOL    HW232435  12.632   4.336   7.752
76866SOL     OW32436   5.130   9.935   7.658
76866SOL    HW132437   5.152  10.027   7.664
76866SOL    HW232438   5.215   9.890   7.658
76867SOL     OW32439   9.375   2.964   5.684
76867SOL    HW132440   9.373   3.030   5.615
76867SOL    HW232441   9.324   2.891   5.648
76868SOL     OW32442   1.164   5.858   3.639
76868SOL    HW132443   1.104   5.784   3.633
76868SOL    HW232444   1.206   5.847   3.725
76869SOL     OW32445   8.696   1.910   8.303
76869SOL    HW132446   8.721   1.878   8.216
76869SOL    HW232447   8.601   1.920   8.299
76870SOL     OW32448   4.536  10.649  12.371
76870SOL    HW132449   4.568  10.560  12.354
76870SOL    HW232450   4.586  10.679  12.446
76871SOL     OW32451   3.351   5.503   4.698
76871SOL    HW132452   3.332   5.461   4.614
76871SOL    HW232453   3.380   5.591   4.675
76872SOL     OW32454  13.258   4.600  14.751
76872SOL    HW132455  13.309   4.527  14.715
76872SOL    HW232456  13.204   4.629  14.677
76873SOL     OW32457   9.756  11.580   9.027
76873SOL    HW132458   9.748  11.538   9.113
76873SOL    HW232459   9.841  11.624   9.030
76874SOL     OW32460  11.070  13.122  14.106
76874SOL    HW132461  11.133  13.173  14.156
76874SOL    HW232462  11.061  13.169  14.023
76875SOL     OW32463   0.488   2.643  12.903
76875SOL    HW132464   0.399   2.678  12.895
76875SOL    HW232465   0.479   2.551  12.878
76876SOL     OW32466   6.522   4.684  13.681
76876SOL    HW132467   6.513   4.653  13.771
76876SOL    HW232468   6.604   4.733  13.681
76877SOL     OW32469   1.045  10.172   6.600
76877SOL    HW132470   0.971  10.170   6.661
76877SOL    HW232471   1.122  10.170   6.657
76878SOL     OW32472  11.999   8.809  11.810
76878SOL    HW132473  11.989   8.903  11.824
76878SOL    HW232474  11.921   8.783  11.761
76879SOL     OW32475  10.923   4.314  12.114
76879SOL    HW132476  10.952   4.396  12.153
76879SOL    HW232477  10.977   4.247  12.155
76880SOL     OW32478   2.797   2.024   8.530
76880SOL    HW132479   2.728   1.974   8.487
76880SOL    HW232480   2.878   1.993   8.489
76881SOL     OW32481  12.336  10.115  10.980
76881SOL    HW132482  12.358  10.057  10.907
76881SOL    HW232483  12.407  10.179  10.983
76882SOL     OW32484   3.510   2.196   7.427
76882SOL    HW132485   3.463   2.258   7.371
76882SOL    HW232486   3.580   2.162   7.371
76883SOL     OW32487   6.125   0.600  10.499
76883SOL    HW132488   6.030   0.611  10.495
76883SOL    HW232489   6.143   0.578  10.591
76884SOL     OW32490  13.595  10.325   2.609
76884SOL    HW132491  13.617  10.339   2.517
76884SOL    HW232492  13.499  10.323   2.610
76885SOL     OW32493   9.130  10.427  14.751
76885SOL    HW132494   9.105  10.352  14.697
76885SOL    HW232495   9.210  10.460  14.711
76886SOL     OW32496  12.685  12.149   6.757
76886SOL    HW132497  12.765  12.202   6.768
76886SOL    HW232498  12.640  12.189   6.683
76887SOL     OW32499   4.243   5.665   0.276
76887SOL    HW132500   4.209   5.710   0.353
76887SOL    HW232501   4.326   5.709   0.258
76888SOL     OW32502   2.217   6.581   3.820
76888SOL    HW132503   2.183   6.650   3.762
76888SOL    HW232504   2.311   6.599   3.825
76889SOL     OW32505   5.138   2.709   0.967
76889SOL    HW132506   5.200   2.652   0.921
76889SOL    HW232507   5.074   2.733   0.901
76890SOL     OW32508   7.023   4.179   0.686
76890SOL    HW132509   7.052   4.116   0.620
76890SOL    HW232510   7.098   4.236   0.700
76891SOL     OW32511   0.702   4.085  10.416
76891SOL    HW132512   0.658   4.086  10.502
76891SOL    HW232513   0.633   4.110  10.354
76892SOL     OW32514   6.450   3.232  13.093
76892SOL    HW132515   6.393   3.205  13.165
76892SOL    HW232516   6.535   3.248  13.134
76893SOL     OW32517   6.884  13.680   3.282
76893SOL    HW132518   6.893  13.592   3.245
76893SOL    HW232519   6.874  13.737   3.207
76894SOL     OW32520   1.433   7.767   6.673
76894SOL    HW132521   1.484   7.794   6.750
76894SOL    HW232522   1.373   7.840   6.658
76895SOL     OW32523   6.105  14.344   6.667
76895SOL    HW132524   6.131  14.257   6.697
76895SOL    HW232525   6.011  14.349   6.685
76896SOL     OW32526   7.362   6.715   1.765
76896SOL    HW132527   7.348   6.635   1.713
76896SOL    HW232528   7.421   6.768   1.712
76897SOL     OW32529   4.063   4.296  11.043
76897SOL    HW132530   4.135   4.238  11.020
76897SOL    HW232531   4.002   4.242  11.093
76898SOL     OW32532   5.747  14.551  12.090
76898SOL    HW132533   5.680  14.614  12.118
76898SOL    HW232534   5.814  14.555  12.158
76899SOL     OW32535   7.591   6.882   8.696
76899SOL    HW132536   7.659   6.840   8.747
76899SOL    HW232537   7.509   6.848   8.732
76900SOL     OW32538   1.767  10.516   9.298
76900SOL    HW132539   1.760  10.593   9.242
76900SOL    HW232540   1.714  10.537   9.375
76901SOL     OW32541  11.388   4.486  10.616
76901SOL    HW132542  11.362   4.411  10.669
76901SOL    HW232543  11.386   4.560  10.677
76902SOL     OW32544   1.257  14.478   0.572
76902SOL    HW132545   1.213  14.393   0.579
76902SOL    HW232546   1.197  14.533   0.522
76903SOL     OW32547   8.807   8.401   0.443
76903SOL    HW132548   8.831   8.318   0.484
76903SOL    HW232549   8.891   8.447   0.432
76904SOL     OW32550   3.417   5.477  13.453
76904SOL    HW132551   3.380   5.558  13.487
76904SOL    HW232552   3.344   5.415  13.452
76905SOL     OW32553   0.534   1.392   4.753
76905SOL    HW132554   0.482   1.386   4.833
76905SOL    HW232555   0.625   1.386   4.782
76906SOL     OW32556   7.735   6.522   2.433
76906SOL    HW132557   7.680   6.577   2.378
76906SOL    HW232558   7.786   6.583   2.486
76907SOL     OW32559   9.864   2.755   0.771
76907SOL    HW132560   9.912   2.680   0.807
76907SOL    HW232561   9.782   2.718   0.740
76908SOL     OW32562  12.269  11.733   2.173
76908SOL    HW132563  12.339  11.676   2.205
76908SOL    HW232564  12.208  11.674   2.129
76909SOL     OW32565   4.400  12.390   6.815
76909SOL    HW132566   4.363  12.403   6.903
76909SOL    HW232567   4.477  12.446   6.813
76910SOL     OW32568   3.337   3.911   9.825
76910SOL    HW132569   3.383   3.954   9.752
76910SOL    HW232570   3.333   3.978   9.893
76911SOL     OW32571   4.479   0.246   4.213
76911SOL    HW132572   4.474   0.260   4.307
76911SOL    HW232573   4.395   0.207   4.189
76912SOL     OW32574  12.557  10.119   5.652
76912SOL    HW132575  12.647  10.092   5.635
76912SOL    HW232576  12.514  10.112   5.567
76913SOL     OW32577   8.303  12.477  10.846
76913SOL    HW132578   8.375  12.516  10.896
76913SOL    HW232579   8.280  12.398  10.896
76914SOL     OW32580   8.917   1.423  10.429
76914SOL    HW132581   8.885   1.510  10.454
76914SOL    HW232582   8.990   1.407  10.489
76915SOL     OW32583   1.996   4.328   3.371
76915SOL    HW132584   1.977   4.395   3.437
76915SOL    HW232585   2.066   4.276   3.410
76916SOL     OW32586   5.442  14.760   8.408
76916SOL    HW132587   5.468  14.668   8.413
76916SOL    HW232588   5.346  14.757   8.406
76917SOL     OW32589  14.710   7.269   4.214
76917SOL    HW132590  14.776   7.317   4.265
76917SOL    HW232591  14.734   7.177   4.226
76918SOL     OW32592   2.216   1.066  10.553
76918SOL    HW132593   2.274   1.011  10.605
76918SOL    HW232594   2.243   1.051  10.463
76919SOL     OW32595   4.177   6.156  13.951
76919SOL    HW132596   4.273   6.155  13.949
76919SOL    HW232597   4.153   6.063  13.954
76920SOL     OW32598   1.240   7.808   7.196
76920SOL    HW132599   1.212   7.853   7.116
76920SOL    HW232600   1.163   7.809   7.253
76921SOL     OW32601  13.280   3.439   9.080
76921SOL    HW132602  13.291   3.362   9.024
76921SOL    HW232603  13.318   3.511   9.029
76922SOL     OW32604  14.611  10.855   5.551
76922SOL    HW132605  14.637  10.932   5.500
76922SOL    HW232606  14.660  10.783   5.512
76923SOL     OW32607  13.191   4.287  11.847
76923SOL    HW132608  13.223   4.333  11.925
76923SOL    HW232609  13.195   4.194  11.871
76924SOL     OW32610   7.830  10.974   4.120
76924SOL    HW132611   7.862  11.056   4.157
76924SOL    HW232612   7.906  10.938   4.074
76925SOL     OW32613   5.352   0.914   7.278
76925SOL    HW132614   5.425   0.889   7.334
76925SOL    HW232615   5.349   0.845   7.211
76926SOL     OW32616   9.202   8.664  10.109
76926SOL    HW132617   9.113   8.691  10.130
76926SOL    HW232618   9.193   8.573  10.079
76927SOL     OW32619   7.361   9.889  10.146
76927SOL    HW132620   7.406   9.928  10.071
76927SOL    HW232621   7.324   9.964  10.193
76928SOL     OW32622  13.105   1.054   6.921
76928SOL    HW132623  13.193   1.017   6.913
76928SOL    HW232624  13.103   1.093   7.009
76929SOL     OW32625   0.645   1.943   2.210
76929SOL    HW132626   0.739   1.944   2.192
76929SOL    HW232627   0.613   1.865   2.165
76930SOL     OW32628  12.261   4.813   5.080
76930SOL    HW132629  12.194   4.858   5.132
76930SOL    HW232630  12.258   4.722   5.109
76931SOL     OW32631  10.254   2.797   6.284
76931SOL    HW132632  10.297   2.882   6.280
76931SOL    HW232633  10.248   2.777   6.377
76932SOL     OW32634   8.825  12.554  11.914
76932SOL    HW132635   8.768  12.581  11.986
76932SOL    HW232636   8.863  12.636  11.882
76933SOL     OW32637   9.651   7.281  10.270
76933SOL    HW132638   9.607   7.313  10.349
76933SOL    HW232639   9.584   7.286  10.202
76934SOL     OW32640  12.493   7.883   3.174
76934SOL    HW132641  12.478   7.817   3.241
76934SOL    HW232642  12.512   7.833   3.095
76935SOL     OW32643   9.055   2.223   9.169
76935SOL    HW132644   8.986   2.156   9.169
76935SOL    HW232645   9.061   2.252   9.078
76936SOL     OW32646   2.668   0.884  14.360
76936SOL    HW132647   2.752   0.921  14.331
76936SOL    HW232648   2.636   0.834  14.284
76937SOL     OW32649   9.568  14.417   0.466
76937SOL    HW132650   9.635  14.452   0.525
76937SOL    HW232651   9.565  14.323   0.486
76938SOL     OW32652   7.006  11.527   2.130
76938SOL    HW132653   6.942  11.583   2.173
76938SOL    HW232654   7.076  11.587   2.103
76939SOL     OW32655  12.214   9.735  13.125
76939SOL    HW132656  12.300   9.704  13.096
76939SOL    HW232657  12.223   9.830  13.130
76940SOL     OW32658   8.717  13.754   8.727
76940SOL    HW132659   8.662  13.832   8.732
76940SOL    HW232660   8.724  13.723   8.817
76941SOL     OW32661   8.955   0.575  12.591
76941SOL    HW132662   8.893   0.638  12.555
76941SOL    HW232663   9.008   0.625  12.653
76942SOL     OW32664   9.402   7.961   3.947
76942SOL    HW132665   9.313   7.995   3.952
76942SOL    HW232666   9.449   8.006   4.018
76943SOL     OW32667   2.940   4.331   1.328
76943SOL    HW132668   3.023   4.365   1.293
76943SOL    HW232669   2.966   4.276   1.402
76944SOL     OW32670  10.731  10.621   8.612
76944SOL    HW132671  10.824  10.603   8.597
76944SOL    HW232672  10.686  10.548   8.570
76945SOL     OW32673  12.780   6.272   2.687
76945SOL    HW132674  12.845   6.207   2.659
76945SOL    HW232675  12.785   6.341   2.621
76946SOL     OW32676   9.053  12.475   6.493
76946SOL    HW132677   9.040  12.519   6.577
76946SOL    HW232678   9.001  12.525   6.431
76947SOL     OW32679   8.999   9.260   2.246
76947SOL    HW132680   8.974   9.172   2.219
76947SOL    HW232681   8.943   9.318   2.195
76948SOL     OW32682  11.330  10.422   3.556
76948SOL    HW132683  11.419  10.436   3.525
76948SOL    HW232684  11.339  10.359   3.627
76949SOL     OW32685   3.791   5.575  12.582
76949SOL    HW132686   3.885   5.559  12.579
76949SOL    HW232687   3.767   5.565  12.674
76950SOL     OW32688   8.093   4.259  14.283
76950SOL    HW132689   8.146   4.181  14.295
76950SOL    HW232690   8.005   4.227  14.265
76951SOL     OW32691   7.011   6.784   9.613
76951SOL    HW132692   6.973   6.871   9.620
76951SOL    HW232693   7.063   6.773   9.693
76952SOL     OW32694   8.796   1.155   0.277
76952SOL    HW132695   8.823   1.087   0.216
76952SOL    HW232696   8.737   1.211   0.226
76953SOL     OW32697  10.088  14.722  12.344
76953SOL    HW132698  10.003  14.716  12.301
76953SOL    HW232699  10.068  14.756  12.431
76954SOL     OW32700  13.657   9.925   4.566
76954SOL    HW132701  13.724   9.861   4.588
76954SOL    HW232702  13.697   9.979   4.498
76955SOL     OW32703  10.512   9.300   7.795
76955SOL    HW132704  10.575   9.360   7.835
76955SOL    HW232705  10.431   9.314   7.843
76956SOL     OW32706   8.272  11.221   4.206
76956SOL    HW132707   8.243  11.310   4.220
76956SOL    HW232708   8.326  11.201   4.283
76957SOL     OW32709   9.140   3.646   4.417
76957SOL    HW132710   9.191   3.583   4.467
76957SOL    HW232711   9.184   3.651   4.332
76958SOL     OW32712   6.740  13.040   2.159
76958SOL    HW132713   6.746  13.053   2.254
76958SOL    HW232714   6.649  13.013   2.145
76959SOL     OW32715  12.465   2.030   8.249
76959SOL    HW132716  12.484   1.940   8.274
76959SOL    HW232717  12.516   2.044   8.169
76960SOL     OW32718   9.331  11.287   7.528
76960SOL    HW132719   9.275  11.279   7.451
76960SOL    HW232720   9.270  11.302   7.600
76961SOL     OW32721   3.462   3.404   3.252
76961SOL    HW132722   3.548   3.395   3.292
76961SOL    HW232723   3.466   3.487   3.205
76962SOL     OW32724   3.330   2.280   8.752
76962SOL    HW132725   3.267   2.296   8.822
76962SOL    HW232726   3.396   2.348   8.762
76963SOL     OW32727   9.376  11.644  12.314
76963SOL    HW132728   9.383  11.552  12.288
76963SOL    HW232729   9.361  11.641  12.408
76964SOL     OW32730   7.395   3.060   9.578
76964SOL    HW132731   7.478   3.026   9.612
76964SOL    HW232732   7.374   3.133   9.637
76965SOL     OW32733  12.952   8.285   9.295
76965SOL    HW132734  12.971   8.371   9.258
76965SOL    HW232735  13.011   8.278   9.370
76966SOL     OW32736   2.046   8.486   2.256
76966SOL    HW132737   2.026   8.438   2.336
76966SOL    HW232738   2.129   8.529   2.274
76967SOL     OW32739   8.008   9.824   0.358
76967SOL    HW132740   8.040   9.868   0.279
76967SOL    HW232741   8.081   9.768   0.386
76968SOL     OW32742  10.188  12.961   6.672
76968SOL    HW132743  10.160  13.006   6.592
76968SOL    HW232744  10.226  12.879   6.642
76969SOL     OW32745  10.075  10.212   3.708
76969SOL    HW132746  10.156  10.253   3.679
76969SOL    HW232747  10.090  10.192   3.801
76970SOL     OW32748  13.030   8.114  14.090
76970SOL    HW132749  13.103   8.080  14.141
76970SOL    HW232750  12.988   8.036  14.054
76971SOL     OW32751   2.803   2.829   0.986
76971SOL    HW132752   2.801   2.870   0.899
76971SOL    HW232753   2.776   2.738   0.970
76972SOL     OW32754   3.311   5.521   3.973
76972SOL    HW132755   3.278   5.445   3.925
76972SOL    HW232756   3.331   5.487   4.060
76973SOL     OW32757  14.266   3.597   7.648
76973SOL    HW132758  14.323   3.545   7.593
76973SOL    HW232759  14.325   3.656   7.696
76974SOL     OW32760   0.743   3.109   2.027
76974SOL    HW132761   0.759   3.169   2.100
76974SOL    HW232762   0.738   3.165   1.950
76975SOL     OW32763   0.259   9.939   6.371
76975SOL    HW132764   0.231  10.000   6.302
76975SOL    HW232765   0.203   9.960   6.446
76976SOL     OW32766  12.845  12.358   5.008
76976SOL    HW132767  12.780  12.367   4.939
76976SOL    HW232768  12.858  12.447   5.041
76977SOL     OW32769   2.716   0.545   1.650
76977SOL    HW132770   2.680   0.581   1.569
76977SOL    HW232771   2.642   0.499   1.691
76978SOL     OW32772  12.431   3.771   5.569
76978SOL    HW132773  12.414   3.859   5.603
76978SOL    HW232774  12.526   3.762   5.572
76979SOL     OW32775   6.305  11.241   6.735
76979SOL    HW132776   6.254  11.291   6.672
76979SOL    HW232777   6.349  11.308   6.788
76980SOL     OW32778  10.170   0.976   4.200
76980SOL    HW132779  10.223   1.054   4.186
76980SOL    HW232780  10.229   0.903   4.181
76981SOL     OW32781  12.587  12.357   4.256
76981SOL    HW132782  12.517  12.394   4.202
76981SOL    HW232783  12.553  12.362   4.345
76982SOL     OW32784   6.016  13.441   7.309
76982SOL    HW132785   5.950  13.441   7.378
76982SOL    HW232786   6.099  13.451   7.355
76983SOL     OW32787   2.085   5.596   5.360
76983SOL    HW132788   2.054   5.546   5.436
76983SOL    HW232789   2.031   5.675   5.360
76984SOL     OW32790   4.987   2.339   8.120
76984SOL    HW132791   5.003   2.308   8.209
76984SOL    HW232792   5.072   2.336   8.077
76985SOL     OW32793   9.226  11.296  12.697
76985SOL    HW132794   9.264  11.371  12.743
76985SOL    HW232795   9.167  11.256  12.760
76986SOL     OW32796  13.519   8.548   6.441
76986SOL    HW132797  13.606   8.571   6.472
76986SOL    HW232798  13.502   8.608   6.369
76987SOL     OW32799   9.680   2.068   9.501
76987SOL    HW132800   9.762   2.069   9.552
76987SOL    HW232801   9.693   1.996   9.438
76988SOL     OW32802  13.567   3.526   1.780
76988SOL    HW132803  13.604   3.442   1.806
76988SOL    HW232804  13.515   3.505   1.702
76989SOL     OW32805   3.716  13.899   9.415
76989SOL    HW132806   3.677  13.972   9.463
76989SOL    HW232807   3.807  13.895   9.446
76990SOL     OW32808   6.219   4.597   8.901
76990SOL    HW132809   6.190   4.568   8.987
76990SOL    HW232810   6.307   4.559   8.892
76991SOL     OW32811   8.085   0.570   5.234
76991SOL    HW132812   8.168   0.546   5.192
76991SOL    HW232813   8.018   0.550   5.168
76992SOL     OW32814   5.448   1.414  14.355
76992SOL    HW132815   5.471   1.498  14.314
76992SOL    HW232816   5.425   1.437  14.445
76993SOL     OW32817   9.080   1.097  11.386
76993SOL    HW132818   9.157   1.141  11.349
76993SOL    HW232819   9.075   1.014  11.338
76994SOL     OW32820   6.473   5.791   4.013
76994SOL    HW132821   6.477   5.855   3.942
76994SOL    HW232822   6.538   5.821   4.076
76995SOL     OW32823   7.653  12.628   3.415
76995SOL    HW132824   7.597  12.645   3.490
76995SOL    HW232825   7.681  12.715   3.386
76996SOL     OW32826   2.555   2.357   8.377
76996SOL    HW132827   2.509   2.300   8.440
76996SOL    HW232828   2.505   2.347   8.296
76997SOL     OW32829   4.967   3.926   7.623
76997SOL    HW132830   4.945   3.989   7.555
76997SOL    HW232831   5.024   3.862   7.580
76998SOL     OW32832  13.083  11.887   2.436
76998SOL    HW132833  12.988  11.885   2.433
76998SOL    HW232834  13.106  11.978   2.455
76999SOL     OW32835  10.126  13.667  14.187
76999SOL    HW132836  10.053  13.624  14.141
76999SOL    HW232837  10.179  13.595  14.221
77000SOL     OW32838   5.234   6.689   2.220
77000SOL    HW132839   5.236   6.681   2.316
77000SOL    HW232840   5.155   6.643   2.193
77001SOL     OW32841  10.806  11.578  14.265
77001SOL    HW132842  10.822  11.502  14.322
77001SOL    HW232843  10.860  11.648  14.303
77002SOL     OW32844  10.134   6.211   8.695
77002SOL    HW132845  10.128   6.275   8.625
77002SOL    HW232846  10.197   6.146   8.663
77003SOL     OW32847   0.015   0.490   3.287
77003SOL    HW132848  14.797   0.479   3.262
77003SOL    HW232849   0.054   0.538   3.214
77004SOL     OW32850  10.701   7.118   3.963
77004SOL    HW132851  10.613   7.124   4.001
77004SOL    HW232852  10.720   7.208   3.936
77005SOL     OW32853  14.802   4.322   5.931
77005SOL    HW132854  14.768   4.358   5.850
77005SOL    HW232855  14.749   4.364   6.000
77006SOL     OW32856   5.469  11.350   8.383
77006SOL    HW132857   5.502  11.428   8.339
77006SOL    HW232858   5.541  11.322   8.439
77007SOL     OW32859   5.210  12.450  10.594
77007SOL    HW132860   5.144  12.410  10.650
77007SOL    HW232861   5.208  12.543  10.616
77008SOL     OW32862  13.959   7.344   7.312
77008SOL    HW132863  13.951   7.349   7.217
77008SOL    HW232864  13.951   7.251   7.332
77009SOL     OW32865   1.955   9.272  11.341
77009SOL    HW132866   2.029   9.322  11.307
77009SOL    HW232867   1.989   9.231  11.421
77010SOL     OW32868   7.759   0.353   9.031
77010SOL    HW132869   7.715   0.369   9.114
77010SOL    HW232870   7.839   0.404   9.035
77011SOL     OW32871  14.107   9.523   8.134
77011SOL    HW132872  14.131   9.603   8.087
77011SOL    HW232873  14.046   9.478   8.076
77012SOL     OW32874   5.121   1.349  12.965
77012SOL    HW132875   5.101   1.442  12.956
77012SOL    HW232876   5.216   1.346  12.979
77013SOL     OW32877   7.111  11.778  10.268
77013SOL    HW132878   7.204  11.773  10.248
77013SOL    HW232879   7.104  11.746  10.358
77014SOL     OW32880   6.060  10.755   0.140
77014SOL    HW132881   6.079  10.846   0.119
77014SOL    HW232882   5.973  10.740   0.103
77015SOL     OW32883   9.340   4.403  14.025
77015SOL    HW132884   9.432   4.398  14.002
77015SOL    HW232885   9.297   4.437  13.947
77016SOL     OW32886  14.310   8.020   9.546
77016SOL    HW132887  14.335   8.106   9.512
77016SOL    HW232888  14.270   7.976   9.471
77017SOL     OW32889   4.970  14.587   8.403
77017SOL    HW132890   4.914  14.520   8.363
77017SOL    HW232891   4.912  14.661   8.420
77018SOL     OW32892   6.096  12.016  12.595
77018SOL    HW132893   6.071  12.098  12.553
77018SOL    HW232894   6.189  12.006  12.573
77019SOL     OW32895   5.878   8.378   3.228
77019SOL    HW132896   5.809   8.394   3.292
77019SOL    HW232897   5.871   8.450   3.165
77020SOL     OW32898   9.670   1.129   5.303
77020SOL    HW132899   9.704   1.058   5.358
77020SOL    HW232900   9.746   1.185   5.288
77021SOL     OW32901   4.570  10.841   6.090
77021SOL    HW132902   4.652  10.845   6.140
77021SOL    HW232903   4.504  10.877   6.149
77022SOL     OW32904  13.548  13.778   0.786
77022SOL    HW132905  13.468  13.814   0.823
77022SOL    HW232906  13.551  13.688   0.819
77023SOL     OW32907   2.616   1.266   0.058
77023SOL    HW132908   2.556   1.195   0.037
77023SOL    HW232909   2.581   1.304   0.139
77024SOL     OW32910  12.058   3.614   1.588
77024SOL    HW132911  12.139   3.652   1.556
77024SOL    HW232912  12.030   3.672   1.659
77025SOL     OW32913   2.631   8.238  13.038
77025SOL    HW132914   2.605   8.297  13.109
77025SOL    HW232915   2.658   8.158  13.082
77026SOL     OW32916  13.669  14.570  13.171
77026SOL    HW132917  13.735  14.620  13.123
77026SOL    HW232918  13.587  14.591  13.127
77027SOL     OW32919   3.548   6.735   9.188
77027SOL    HW132920   3.461   6.767   9.164
77027SOL    HW232921   3.545   6.641   9.173
77028SOL     OW32922   4.858   2.931   2.747
77028SOL    HW132923   4.842   2.963   2.835
77028SOL    HW232924   4.783   2.962   2.696
77029SOL     OW32925  13.295  11.438   8.010
77029SOL    HW132926  13.287  11.492   7.932
77029SOL    HW232927  13.217  11.459   8.062
77030SOL     OW32928   1.606   4.962  14.525
77030SOL    HW132929   1.605   4.868  14.507
77030SOL    HW232930   1.607   5.003  14.438
77031SOL     OW32931  13.784   8.580  12.272
77031SOL    HW132932  13.690   8.577  12.292
77031SOL    HW232933  13.795   8.520  12.199
77032SOL     OW32934   4.817   4.451   7.832
77032SOL    HW132935   4.741   4.393   7.834
77032SOL    HW232936   4.847   4.455   7.923
77033SOL     OW32937   7.178   2.049  12.031
77033SOL    HW132938   7.249   2.040  12.094
77033SOL    HW232939   7.180   2.141  12.006
77034SOL     OW32940   9.143   0.764   3.910
77034SOL    HW132941   9.102   0.708   3.844
77034SOL    HW232942   9.201   0.822   3.860
77035SOL     OW32943  11.803   3.096  12.230
77035SOL    HW132944  11.788   3.128  12.141
77035SOL    HW232945  11.872   3.152  12.265
77036SOL     OW32946   2.749   2.322   4.329
77036SOL    HW132947   2.684   2.379   4.288
77036SOL    HW232948   2.727   2.234   4.297
77037SOL     OW32949   3.375   9.494   5.918
77037SOL    HW132950   3.424   9.533   5.846
77037SOL    HW232951   3.413   9.532   5.997
77038SOL     OW32952   2.570   8.060   5.907
77038SOL    HW132953   2.605   7.996   5.969
77038SOL    HW232954   2.579   8.144   5.952
77039SOL     OW32955   1.976   5.089   7.664
77039SOL    HW132956   1.904   5.117   7.608
77039SOL    HW232957   2.055   5.114   7.616
77040SOL     OW32958  14.292  14.205   5.904
77040SOL    HW132959  14.198  14.193   5.889
77040SOL    HW232960  14.334  14.157   5.833
77041SOL     OW32961   1.775  11.135  10.313
77041SOL    HW132962   1.844  11.069  10.314
77041SOL    HW232963   1.694  11.086  10.325
77042SOL     OW32964   2.467   2.538   1.315
77042SOL    HW132965   2.405   2.575   1.252
77042SOL    HW232966   2.472   2.605   1.384
77043SOL     OW32967   4.093  10.988   8.238
77043SOL    HW132968   4.011  10.949   8.211
77043SOL    HW232969   4.146  10.991   8.158
77044SOL     OW32970   6.251   8.905   5.427
77044SOL    HW132971   6.263   8.831   5.367
77044SOL    HW232972   6.283   8.981   5.378
77045SOL     OW32973  14.361  12.383  13.997
77045SOL    HW132974  14.369  12.478  13.987
77045SOL    HW232975  14.322  12.372  14.084
77046SOL     OW32976  10.442   5.323  12.982
77046SOL    HW132977  10.484   5.404  13.009
77046SOL    HW232978  10.356   5.324  13.025
77047SOL     OW32979   4.172   3.709   0.280
77047SOL    HW132980   4.233   3.635   0.275
77047SOL    HW232981   4.131   3.711   0.193
77048SOL     OW32982   6.699  13.839   0.626
77048SOL    HW132983   6.794  13.843   0.612
77048SOL    HW232984   6.684  13.753   0.664
77049SOL     OW32985   8.606   1.464  10.352
77049SOL    HW132986   8.605   1.496  10.442
77049SOL    HW232987   8.617   1.542  10.299
77050SOL     OW32988   4.687   9.700   3.063
77050SOL    HW132989   4.649   9.691   3.150
77050SOL    HW232990   4.782   9.694   3.077
77051SOL     OW32991   5.691  13.070   7.387
77051SOL    HW132992   5.659  12.985   7.355
77051SOL    HW232993   5.771  13.049   7.434
77052SOL     OW32994   8.000   3.263   0.072
77052SOL    HW132995   8.043   3.179   0.053
77052SOL    HW232996   8.017   3.278   0.165
77053SOL     OW32997  14.592  13.038   1.823
77053SOL    HW132998  14.591  12.992   1.907
77053SOL    HW232999  14.509  13.085   1.821
77054SOL     OW33000  12.676   2.519   4.048
77054SOL    HW133001  12.663   2.481   3.961
77054SOL    HW233002  12.716   2.449   4.099
77055SOL     OW33003   4.599  11.488  14.804
77055SOL    HW133004   4.504  11.481  14.800
77055SOL    HW233005   4.623  11.453   0.016
77056SOL     OW33006   3.791   1.015   5.264
77056SOL    HW133007   3.862   1.068   5.300
77056SOL    HW233008   3.738   1.077   5.213
77057SOL     OW33009   6.708   1.038   1.978
77057SOL    HW133010   6.635   1.084   1.938
77057SOL    HW233011   6.683   0.946   1.975
77058SOL     OW33012   9.506   7.275  12.207
77058SOL    HW133013   9.448   7.347  12.180
77058SOL    HW233014   9.594   7.313  12.203
77059SOL     OW33015   6.291   1.848   3.013
77059SOL    HW133016   6.305   1.857   3.107
77059SOL    HW233017   6.324   1.761   2.991
77060SOL     OW33018   7.716  11.210  11.745
77060SOL    HW133019   7.668  11.224  11.826
77060SOL    HW233020   7.665  11.144  11.698
77061SOL     OW33021   9.393   1.000  14.199
77061SOL    HW133022   9.368   1.074  14.254
77061SOL    HW233023   9.452   1.038  14.133
77062SOL     OW33024   7.353   6.911  13.741
77062SOL    HW133025   7.409   6.833  13.743
77062SOL    HW233026   7.395   6.969  13.678
77063SOL     OW33027   6.993  13.775   0.656
77063SOL    HW133028   7.056  13.705   0.639
77063SOL    HW233029   6.981  13.773   0.751
77064SOL     OW33030   6.340  11.065  12.845
77064SOL    HW133031   6.382  10.995  12.795
77064SOL    HW233032   6.382  11.145  12.814
77065SOL     OW33033  12.781   4.308   5.881
77065SOL    HW133034  12.817   4.336   5.797
77065SOL    HW233035  12.806   4.216   5.888
77066SOL     OW33036   7.225  14.151   0.339
77066SOL    HW133037   7.195  14.084   0.401
77066SOL    HW233038   7.190  14.123   0.254
77067SOL     OW33039  12.358  14.218   8.408
77067SOL    HW133040  12.405  14.294   8.374
77067SOL    HW233041  12.266  14.244   8.409
77068SOL     OW33042  11.627  13.916   3.137
77068SOL    HW133043  11.709  13.933   3.183
77068SOL    HW233044  11.621  13.989   3.074
77069SOL     OW33045   5.408  13.922  13.537
77069SOL    HW133046   5.440  13.905  13.625
77069SOL    HW233047   5.332  13.979  13.550
77070SOL     OW33048  11.907   6.212   2.653
77070SOL    HW133049  11.815   6.205   2.676
77070SOL    HW233050  11.908   6.221   2.558
77071SOL     OW33051  14.647  14.582  11.037
77071SOL    HW133052  14.659  14.645  10.966
77071SOL    HW233053  14.705  14.613  11.106
77072SOL     OW33054  14.192   9.276   5.923
77072SOL    HW133055  14.224   9.366   5.930
77072SOL    HW233056  14.270   9.224   5.903
77073SOL     OW33057   3.703   6.253   4.284
77073SOL    HW133058   3.614   6.284   4.268
77073SOL    HW233059   3.736   6.227   4.198
77074SOL     OW33060  11.172   2.123   1.645
77074SOL    HW133061  11.214   2.082   1.569
77074SOL    HW233062  11.233   2.192   1.671
77075SOL     OW33063  10.948  12.904   9.554
77075SOL    HW133064  10.932  12.913   9.648
77075SOL    HW233065  11.043  12.903   9.546
77076SOL     OW33066  11.360  10.009   5.877
77076SOL    HW133067  11.354   9.914   5.872
77076SOL    HW233068  11.438  10.031   5.826
77077SOL     OW33069  11.746   6.758  10.969
77077SOL    HW133070  11.697   6.836  10.996
77077SOL    HW233071  11.679   6.694  10.945
77078SOL     OW33072  11.530  10.838  12.176
77078SOL    HW133073  11.590  10.909  12.154
77078SOL    HW233074  11.586  10.766  12.203
77079SOL     OW33075  12.478  11.869   4.961
77079SOL    HW133076  12.573  11.874   4.950
77079SOL    HW233077  12.454  11.786   4.920
77080SOL     OW33078   5.858  10.412  14.252
77080SOL    HW133079   5.890  10.401  14.342
77080SOL    HW233080   5.823  10.502  14.250
77081SOL     OW33081   6.119   1.636   4.175
77081SOL    HW133082   6.085   1.547   4.179
77081SOL    HW233083   6.187   1.639   4.242
77082SOL     OW33084  12.606   6.960   5.642
77082SOL    HW133085  12.604   6.971   5.737
77082SOL    HW233086  12.692   6.922   5.623
77083SOL     OW33087   5.002  11.283   9.220
77083SOL    HW133088   4.921  11.293   9.270
77083SOL    HW233089   4.993  11.346   9.149
77084SOL     OW33090   6.890   3.456  13.193
77084SOL    HW133091   6.946   3.495  13.259
77084SOL    HW233092   6.873   3.526  13.130
77085SOL     OW33093   7.427   0.392   5.516
77085SOL    HW133094   7.430   0.337   5.595
77085SOL    HW233095   7.335   0.388   5.489
77086SOL     OW33096  10.079  13.460  14.721
77086SOL    HW133097  10.041  13.410  14.793
77086SOL    HW233098  10.170  13.474  14.747
77087SOL     OW33099   0.599  10.557  14.724
77087SOL    HW133100   0.653  10.531  14.649
77087SOL    HW233101   0.613  10.651  14.732
77088SOL     OW33102  12.385   2.598   0.066
77088SOL    HW133103  12.310   2.615   0.009
77088SOL    HW233104  12.357   2.526   0.122
77089SOL     OW33105  14.627   3.866  11.735
77089SOL    HW133106  14.545   3.818  11.728
77089SOL    HW233107  14.610   3.936  11.798
77090SOL     OW33108  13.406  14.062   1.974
77090SOL    HW133109  13.341  14.030   2.036
77090SOL    HW233110  13.427  13.986   1.919
77091SOL     OW33111   1.931  11.180   6.271
77091SOL    HW133112   1.931  11.087   6.247
77091SOL    HW233113   1.958  11.226   6.192
77092SOL     OW33114   0.652  12.335  12.749
77092SOL    HW133115   0.625  12.396  12.818
77092SOL    HW233116   0.642  12.248  12.788
77093SOL     OW33117  11.735   2.377   7.642
77093SOL    HW133118  11.805   2.427   7.685
77093SOL    HW233119  11.751   2.287   7.670
77094SOL     OW33120   2.613   1.678   1.865
77094SOL    HW133121   2.617   1.611   1.934
77094SOL    HW233122   2.584   1.757   1.911
77095SOL     OW33123   9.116   1.481   4.436
77095SOL    HW133124   9.196   1.524   4.405
77095SOL    HW233125   9.142   1.436   4.516
77096SOL     OW33126   5.289   4.356   8.444
77096SOL    HW133127   5.222   4.418   8.415
77096SOL    HW233128   5.246   4.270   8.438
77097SOL     OW33129  11.608   1.198  14.216
77097SOL    HW133130  11.517   1.228  14.215
77097SOL    HW233131  11.650   1.250  14.285
77098SOL     OW33132  11.805   6.850   7.753
77098SOL    HW133133  11.790   6.769   7.801
77098SOL    HW233134  11.894   6.875   7.776
77099SOL     OW33135   8.196   5.410  11.203
77099SOL    HW133136   8.102   5.422  11.214
77099SOL    HW233137   8.208   5.402  11.108
77100SOL     OW33138   3.870   0.448   2.014
77100SOL    HW133139   3.963   0.464   1.997
77100SOL    HW233140   3.867   0.360   2.050
77101SOL     OW33141   9.460   2.830   5.895
77101SOL    HW133142   9.534   2.770   5.883
77101SOL    HW233143   9.435   2.855   5.806
77102SOL     OW33144   5.844   1.060   4.070
77102SOL    HW133145   5.927   1.034   4.029
77102SOL    HW233146   5.801   1.115   4.005
77103SOL     OW33147   3.383   8.635  10.535
77103SOL    HW133148   3.352   8.630  10.625
77103SOL    HW233149   3.397   8.544  10.509
77104SOL     OW33150  14.705   0.423  11.890
77104SOL    HW133151  14.753   0.376  11.959
77104SOL    HW233152  14.659   0.355  11.842
77105SOL     OW33153   2.067   8.854   5.495
77105SOL    HW133154   2.121   8.794   5.546
77105SOL    HW233155   2.129   8.919   5.462
77106SOL     OW33156   4.498   5.481   8.017
77106SOL    HW133157   4.422   5.422   8.013
77106SOL    HW233158   4.527   5.477   8.108
77107SOL     OW33159  11.977   3.902  13.820
77107SOL    HW133160  11.926   3.822  13.833
77107SOL    HW233161  11.955   3.929  13.730
77108SOL     OW33162  11.992   8.603  12.681
77108SOL    HW133163  11.973   8.564  12.767
77108SOL    HW233164  11.953   8.542  12.619
77109SOL     OW33165  11.239   8.634   6.256
77109SOL    HW133166  11.235   8.578   6.178
77109SOL    HW233167  11.311   8.598   6.308
77110SOL     OW33168   3.610   7.989  12.478
77110SOL    HW133169   3.641   7.908  12.518
77110SOL    HW233170   3.544   7.962  12.414
77111SOL     OW33171   1.750  11.938   2.421
77111SOL    HW133172   1.693  11.954   2.345
77111SOL    HW233173   1.699  11.968   2.496
77112SOL     OW33174  13.592   2.788   9.214
77112SOL    HW133175  13.624   2.809   9.301
77112SOL    HW233176  13.618   2.697   9.199
77113SOL     OW33177   4.230  12.014  12.619
77113SOL    HW133178   4.202  12.103  12.600
77113SOL    HW233179   4.158  11.958  12.590
77114SOL     OW33180  14.408   5.561   9.473
77114SOL    HW133181  14.455   5.515   9.403
77114SOL    HW233182  14.377   5.641   9.432
77115SOL     OW33183   6.079   5.230   8.043
77115SOL    HW133184   6.095   5.138   8.063
77115SOL    HW233185   6.159   5.275   8.069
77116SOL     OW33186   9.398  10.510  11.983
77116SOL    HW133187   9.339  10.567  11.933
77116SOL    HW233188   9.340  10.465  12.045
77117SOL     OW33189   1.499   3.875   0.267
77117SOL    HW133190   1.528   3.880   0.176
77117SOL    HW233191   1.410   3.911   0.265
77118SOL     OW33192   0.715  10.550  14.447
77118SOL    HW133193   0.732  10.518  14.359
77118SOL    HW233194   0.798  10.536  14.494
77119SOL     OW33195   5.044   6.609  13.691
77119SOL    HW133196   4.953   6.581  13.679
77119SOL    HW233197   5.042   6.703  13.676
77120SOL     OW33198   8.705   8.625   8.374
77120SOL    HW133199   8.649   8.657   8.444
77120SOL    HW233200   8.779   8.686   8.372
77121SOL     OW33201   2.953   6.716   3.429
77121SOL    HW133202   2.918   6.773   3.497
77121SOL    HW233203   2.880   6.702   3.370
77122SOL     OW33204   1.904  11.604   6.490
77122SOL    HW133205   1.983  11.620   6.542
77122SOL    HW233206   1.897  11.509   6.485
77123SOL     OW33207   0.485   5.726  12.256
77123SOL    HW133208   0.415   5.734  12.191
77123SOL    HW233209   0.485   5.809  12.303
77124SOL     OW33210  14.838   1.432   5.827
77124SOL    HW133211  14.763   1.450   5.770
77124SOL    HW233212   0.032   1.492   5.798
77125SOL     OW33213   8.004   3.110   2.517
77125SOL    HW133214   7.993   3.034   2.575
77125SOL    HW233215   8.093   3.141   2.534
77126SOL     OW33216   2.378   5.777   5.414
77126SOL    HW133217   2.308   5.728   5.458
77126SOL    HW233218   2.374   5.750   5.323
77127SOL     OW33219   4.318   3.450   4.101
77127SOL    HW133220   4.317   3.544   4.122
77127SOL    HW233221   4.363   3.446   4.016
77128SOL     OW33222   9.341  11.530  12.828
77128SOL    HW133223   9.279  11.565  12.892
77128SOL    HW233224   9.421  11.514  12.878
77129SOL     OW33225   5.955   9.349   5.468
77129SOL    HW133226   5.881   9.407   5.487
77129SOL    HW233227   5.934   9.310   5.383
77130SOL     OW33228   3.923   2.505   1.746
77130SOL    HW133229   3.868   2.570   1.789
77130SOL    HW233230   4.011   2.522   1.779
77131SOL     OW33231   1.376   3.409   4.962
77131SOL    HW133232   1.460   3.363   4.961
77131SOL    HW233233   1.396   3.493   5.003
77132SOL     OW33234   8.884   6.198  11.706
77132SOL    HW133235   8.814   6.157  11.656
77132SOL    HW233236   8.871   6.167  11.796
77133SOL     OW33237   1.261   4.472  14.444
77133SOL    HW133238   1.263   4.451  14.350
77133SOL    HW233239   1.315   4.405  14.485
77134SOL     OW33240   8.678   9.720  12.979
77134SOL    HW133241   8.587   9.691  12.972
77134SOL    HW233242   8.698   9.758  12.894
77135SOL     OW33243  10.896  13.614  12.854
77135SOL    HW133244  10.831  13.544  12.856
77135SOL    HW233245  10.897  13.643  12.762
77136SOL     OW33246   2.066  13.894  14.254
77136SOL    HW133247   2.104  13.981  14.243
77136SOL    HW233248   2.118  13.853  14.323
77137SOL     OW33249  10.620  10.193   5.434
77137SOL    HW133250  10.531  10.171   5.460
77137SOL    HW233251  10.670  10.112   5.446
77138SOL     OW33252  14.522   6.080   3.350
77138SOL    HW133253  14.574   6.000   3.339
77138SOL    HW233254  14.584   6.151   3.333
77139SOL     OW33255   2.673   3.045   2.132
77139SOL    HW133256   2.724   2.964   2.128
77139SOL    HW233257   2.587   3.021   2.098
77140SOL     OW33258   6.625  10.546   9.619
77140SOL    HW133259   6.634  10.451   9.620
77140SOL    HW233260   6.530  10.561   9.629
77141SOL     OW33261   4.262   2.849   0.200
77141SOL    HW133262   4.206   2.771   0.198
77141SOL    HW233263   4.349   2.815   0.223
77142SOL     OW33264   2.744  11.614  11.584
77142SOL    HW133265   2.782  11.670  11.515
77142SOL    HW233266   2.664  11.580  11.545
77143SOL     OW33267   0.089   7.764   3.890
77143SOL    HW133268   0.181   7.737   3.886
77143SOL    HW233269   0.078   7.822   3.815
77144SOL     OW33270  11.632   3.545   9.227
77144SOL    HW133271  11.572   3.494   9.282
77144SOL    HW233272  11.600   3.635   9.234
77145SOL     OW33273  11.915  11.757   4.194
77145SOL    HW133274  11.925  11.828   4.130
77145SOL    HW233275  11.968  11.785   4.269
77146SOL     OW33276   8.547  11.623   8.254
77146SOL    HW133277   8.521  11.543   8.300
77146SOL    HW233278   8.619  11.595   8.197
77147SOL     OW33279  14.101   7.087   3.276
77147SOL    HW133280  14.042   7.054   3.343
77147SOL    HW233281  14.047   7.095   3.198
77148SOL     OW33282   7.035   4.739   7.716
77148SOL    HW133283   7.087   4.807   7.672
77148SOL    HW233284   6.998   4.784   7.792
77149SOL     OW33285   1.539   3.410   9.482
77149SOL    HW133286   1.508   3.500   9.470
77149SOL    HW233287   1.618   3.418   9.535
77150SOL     OW33288   7.113   7.499   7.033
77150SOL    HW133289   7.157   7.416   7.013
77150SOL    HW233290   7.026   7.473   7.063
77151SOL     OW33291   4.647  10.805   5.331
77151SOL    HW133292   4.732  10.762   5.323
77151SOL    HW233293   4.614  10.778   5.417
77152SOL     OW33294   9.745  11.258   0.853
77152SOL    HW133295   9.655  11.245   0.822
77152SOL    HW233296   9.794  11.184   0.818
77153SOL     OW33297   9.872   1.040   9.484
77153SOL    HW133298   9.895   1.078   9.399
77153SOL    HW233299   9.922   0.959   9.489
77154SOL     OW33300   1.100   6.018  12.111
77154SOL    HW133301   1.014   6.054  12.091
77154SOL    HW233302   1.145   6.013  12.027
77155SOL     OW33303   9.090   8.915   7.518
77155SOL    HW133304   9.047   8.983   7.570
77155SOL    HW233305   9.026   8.844   7.514
77156SOL     OW33306   2.879  12.647   8.921
77156SOL    HW133307   2.838  12.600   8.848
77156SOL    HW233308   2.880  12.738   8.893
77157SOL     OW33309  12.218  13.963   3.565
77157SOL    HW133310  12.186  13.917   3.642
77157SOL    HW233311  12.313  13.965   3.576
77158SOL     OW33312   3.967   7.989   5.115
77158SOL    HW133313   4.028   8.021   5.049
77158SOL    HW233314   4.011   7.914   5.155
77159SOL     OW33315  11.478   8.477  14.494
77159SOL    HW133316  11.517   8.562  14.473
77159SOL    HW233317  11.521   8.451  14.575
77160SOL     OW33318   7.056   1.228  10.317
77160SOL    HW133319   7.079   1.148  10.270
77160SOL    HW233320   6.962   1.236  10.307
77161SOL     OW33321   0.311   4.395  12.596
77161SOL    HW133322   0.364   4.339  12.539
77161SOL    HW233323   0.374   4.437  12.654
77162SOL     OW33324   0.875  13.721   9.697
77162SOL    HW133325   0.923  13.698   9.777
77162SOL    HW233326   0.861  13.816   9.704
77163SOL     OW33327   7.378   1.443   1.108
77163SOL    HW133328   7.445   1.376   1.113
77163SOL    HW233329   7.317   1.411   1.041
77164SOL     OW33330  11.291  10.766   2.583
77164SOL    HW133331  11.206  10.810   2.574
77164SOL    HW233332  11.270  10.673   2.586
77165SOL     OW33333  11.771  12.619   9.248
77165SOL    HW133334  11.736  12.627   9.337
77165SOL    HW233335  11.770  12.709   9.214
77166SOL     OW33336   4.709  10.660   2.952
77166SOL    HW133337   4.769  10.668   3.026
77166SOL    HW233338   4.755  10.700   2.879
77167SOL     OW33339  11.119   3.332   0.229
77167SOL    HW133340  11.166   3.415   0.216
77167SOL    HW233341  11.119   3.292   0.142
77168SOL     OW33342  10.786  10.256  11.727
77168SOL    HW133343  10.787  10.237  11.820
77168SOL    HW233344  10.719  10.198  11.691
77169SOL     OW33345  10.789  12.335   6.282
77169SOL    HW133346  10.764  12.363   6.194
77169SOL    HW233347  10.718  12.277   6.310
77170SOL     OW33348  11.668   0.736  11.765
77170SOL    HW133349  11.715   0.656  11.788
77170SOL    HW233350  11.735   0.804  11.767
77171SOL     OW33351   3.205   9.665  11.336
77171SOL    HW133352   3.137   9.676  11.402
77171SOL    HW233353   3.239   9.577  11.352
77172SOL     OW33354   2.100   1.986   6.553
77172SOL    HW133355   2.057   2.072   6.548
77172SOL    HW233356   2.103   1.955   6.463
77173SOL     OW33357   7.682   1.354   2.662
77173SOL    HW133358   7.625   1.365   2.586
77173SOL    HW233359   7.648   1.277   2.707
77174SOL     OW33360  10.730   9.179  14.250
77174SOL    HW133361  10.665   9.172  14.319
77174SOL    HW233362  10.808   9.137  14.286
77175SOL     OW33363   4.113   2.797  11.637
77175SOL    HW133364   4.192   2.846  11.613
77175SOL    HW233365   4.131   2.767  11.727
77176SOL     OW33366   6.661   3.585   1.383
77176SOL    HW133367   6.641   3.493   1.401
77176SOL    HW233368   6.696   3.619   1.465
77177SOL     OW33369   2.926   8.002  14.561
77177SOL    HW133370   2.875   8.029  14.638
77177SOL    HW233371   2.932   8.082  14.509
77178SOL     OW33372  14.334   3.386  14.154
77178SOL    HW133373  14.421   3.359  14.125
77178SOL    HW233374  14.290   3.417  14.074
77179SOL     OW33375  11.941   9.394   7.504
77179SOL    HW133376  11.941   9.487   7.527
77179SOL    HW233377  12.013   9.356   7.555
77180SOL     OW33378  11.772   5.038   6.927
77180SOL    HW133379  11.699   5.076   6.878
77180SOL    HW233380  11.774   5.087   7.009
77181SOL     OW33381   6.227   1.361   8.739
77181SOL    HW133382   6.258   1.447   8.709
77181SOL    HW233383   6.151   1.343   8.685
77182SOL     OW33384   9.665   3.969   0.594
77182SOL    HW133385   9.677   3.925   0.510
77182SOL    HW233386   9.747   4.017   0.609
77183SOL     OW33387   5.664  11.480   8.219
77183SOL    HW133388   5.756  11.460   8.203
77183SOL    HW233389   5.619  11.396   8.204
77184SOL     OW33390   2.444  14.015   1.011
77184SOL    HW133391   2.388  14.092   1.021
77184SOL    HW233392   2.452  14.003   0.916
77185SOL     OW33393   1.002  10.998  12.817
77185SOL    HW133394   1.059  11.016  12.742
77185SOL    HW233395   0.913  11.006  12.781
77186SOL     OW33396   2.562  14.749  10.290
77186SOL    HW133397   2.652  14.782  10.280
77186SOL    HW233398   2.568  14.681  10.357
77187SOL     OW33399   7.616   8.300  10.709
77187SOL    HW133400   7.663   8.224  10.743
77187SOL    HW233401   7.626   8.293  10.614
77188SOL     OW33402  11.823   0.991   4.220
77188SOL    HW133403  11.779   1.010   4.302
77188SOL    HW233404  11.912   0.965   4.245
77189SOL     OW33405   7.487   2.526   5.479
77189SOL    HW133406   7.395   2.505   5.464
77189SOL    HW233407   7.496   2.617   5.452
77190SOL     OW33408   4.802   1.248  10.621
77190SOL    HW133409   4.731   1.250  10.557
77190SOL    HW233410   4.843   1.334  10.614
77191SOL     OW33411   1.112   6.567   7.293
77191SOL    HW133412   1.162   6.609   7.363
77191SOL    HW233413   1.022   6.569   7.324
77192SOL     OW33414   7.453   1.944   9.915
77192SOL    HW133415   7.482   2.003   9.983
77192SOL    HW233416   7.378   1.988   9.874
77193SOL     OW33417  13.886   2.381  10.212
77193SOL    HW133418  13.913   2.444  10.279
77193SOL    HW233419  13.791   2.393  10.205
77194SOL     OW33420  13.640   5.094  10.287
77194SOL    HW133421  13.681   5.036  10.223
77194SOL    HW233422  13.670   5.062  10.371
77195SOL     OW33423   7.991  14.654   1.165
77195SOL    HW133424   8.041  14.578   1.195
77195SOL    HW233425   7.996  14.651   1.069
77196SOL     OW33426   9.033   3.420  11.913
77196SOL    HW133427   9.103   3.482  11.895
77196SOL    HW233428   9.012   3.434  12.005
77197SOL     OW33429  11.653  14.036  12.236
77197SOL    HW133430  11.667  14.095  12.162
77197SOL    HW233431  11.724  14.057  12.298
77198SOL     OW33432  10.804   3.438   7.253
77198SOL    HW133433  10.839   3.402   7.334
77198SOL    HW233434  10.881   3.450   7.197
77199SOL     OW33435  14.118   0.028  12.580
77199SOL    HW133436  14.146   0.065  12.496
77199SOL    HW233437  14.031  14.867  12.563
77200SOL     OW33438  12.244   4.143   6.375
77200SOL    HW133439  12.205   4.061   6.405
77200SOL    HW233440  12.264   4.192   6.455
77201SOL     OW33441  14.517   5.081  12.060
77201SOL    HW133442  14.481   5.149  12.004
77201SOL    HW233443  14.597   5.118  12.096
77202SOL     OW33444  14.293  14.695   2.379
77202SOL    HW133445  14.220  14.633   2.375
77202SOL    HW233446  14.302  14.727   2.289
77203SOL     OW33447   4.393   5.017   1.864
77203SOL    HW133448   4.439   5.047   1.786
77203SOL    HW233449   4.398   5.091   1.924
77204SOL     OW33450   2.904  13.159   3.513
77204SOL    HW133451   2.810  13.164   3.496
77204SOL    HW233452   2.911  13.116   3.598
77205SOL     OW33453  10.829   9.093   8.079
77205SOL    HW133454  10.818   9.142   8.161
77205SOL    HW233455  10.887   9.148   8.026
77206SOL     OW33456   4.773  11.594   9.324
77206SOL    HW133457   4.781  11.687   9.344
77206SOL    HW233458   4.862  11.561   9.329
77207SOL     OW33459   9.398   5.286   8.520
77207SOL    HW133460   9.395   5.214   8.457
77207SOL    HW233461   9.307   5.313   8.530
77208SOL     OW33462  13.823  12.099   8.071
77208SOL    HW133463  13.822  12.058   7.985
77208SOL    HW233464  13.911  12.137   8.078
77209SOL     OW33465   4.397  13.236   7.017
77209SOL    HW133466   4.394  13.156   6.965
77209SOL    HW233467   4.433  13.209   7.101
77210SOL     OW33468   2.101   0.279   2.823
77210SOL    HW133469   2.088   0.238   2.738
77210SOL    HW233470   2.135   0.209   2.878
77211SOL     OW33471   8.567   2.297  13.032
77211SOL    HW133472   8.556   2.234  12.961
77211SOL    HW233473   8.661   2.314  13.036
77212SOL     OW33474   5.951   3.666   1.454
77212SOL    HW133475   5.877   3.715   1.418
77212SOL    HW233476   5.912   3.585   1.487
77213SOL     OW33477  14.391   5.100   2.556
77213SOL    HW133478  14.424   5.033   2.615
77213SOL    HW233479  14.459   5.110   2.489
77214SOL     OW33480  11.127   0.317   8.804
77214SOL    HW133481  11.169   0.278   8.727
77214SOL    HW233482  11.088   0.398   8.771
77215SOL     OW33483   7.510   2.488  10.434
77215SOL    HW133484   7.605   2.493  10.418
77215SOL    HW233485   7.499   2.412  10.490
77216SOL     OW33486  12.975  11.472   7.013
77216SOL    HW133487  13.018  11.475   7.098
77216SOL    HW233488  12.999  11.387   6.976
77217SOL     OW33489  14.077   1.986   5.249
77217SOL    HW133490  14.148   1.923   5.237
77217SOL    HW233491  14.052   1.975   5.341
77218SOL     OW33492   9.157   5.194   5.072
77218SOL    HW133493   9.140   5.279   5.112
77218SOL    HW233494   9.129   5.130   5.138
77219SOL     OW33495   2.125   3.997   2.951
77219SOL    HW133496   2.182   4.002   3.028
77219SOL    HW233497   2.148   4.075   2.900
77220SOL     OW33498  14.136   5.185   2.617
77220SOL    HW133499  14.109   5.189   2.525
77220SOL    HW233500  14.224   5.149   2.614
77221SOL     OW33501  14.500   1.867  10.283
77221SOL    HW133502  14.564   1.938  10.276
77221SOL    HW233503  14.431   1.902  10.339
77222SOL     OW33504  11.667  11.866   2.908
77222SOL    HW133505  11.606  11.887   2.979
77222SOL    HW233506  11.670  11.946   2.855
77223SOL     OW33507   6.143  14.561   7.358
77223SOL    HW133508   6.223  14.512   7.374
77223SOL    HW233509   6.093  14.509   7.295
77224SOL     OW33510  12.553  13.586   2.967
77224SOL    HW133511  12.647  13.605   2.968
77224SOL    HW233512  12.512  13.673   2.965
77225SOL     OW33513   2.656   7.996   0.668
77225SOL    HW133514   2.564   8.023   0.663
77225SOL    HW233515   2.656   7.919   0.725
77226SOL     OW33516   4.741   1.415   5.084
77226SOL    HW133517   4.776   1.376   5.004
77226SOL    HW233518   4.705   1.499   5.056
77227SOL     OW33519  14.242  10.012  13.783
77227SOL    HW133520  14.259   9.932  13.735
77227SOL    HW233521  14.171  10.055  13.735
77228SOL     OW33522   1.795   1.790   8.410
77228SOL    HW133523   1.707   1.814   8.381
77228SOL    HW233524   1.853   1.820   8.341
77229SOL     OW33525   9.759   7.347   9.702
77229SOL    HW133526   9.686   7.300   9.661
77229SOL    HW233527   9.764   7.312   9.791
77230SOL     OW33528  12.156   5.110   1.060
77230SOL    HW133529  12.232   5.138   1.010
77230SOL    HW233530  12.193   5.063   1.135
77231SOL     OW33531   4.280   4.952  10.549
77231SOL    HW133532   4.195   4.992  10.530
77231SOL    HW233533   4.332   4.968  10.471
77232SOL     OW33534   1.622   7.331   6.307
77232SOL    HW133535   1.531   7.352   6.325
77232SOL    HW233536   1.641   7.255   6.361
77233SOL     OW33537   7.501   1.296   8.844
77233SOL    HW133538   7.570   1.279   8.908
77233SOL    HW233539   7.545   1.340   8.772
77234SOL     OW33540  11.761   8.801   2.837
77234SOL    HW133541  11.713   8.830   2.915
77234SOL    HW233542  11.718   8.845   2.764
77235SOL     OW33543  12.281  12.680   6.193
77235SOL    HW133544  12.323  12.658   6.276
77235SOL    HW233545  12.327  12.758   6.162
77236SOL     OW33546  12.313   6.624   3.906
77236SOL    HW133547  12.382   6.592   3.965
77236SOL    HW233548  12.358   6.683   3.846
77237SOL     OW33549   8.841   2.004   1.894
77237SOL    HW133550   8.915   1.978   1.949
77237SOL    HW233551   8.871   1.988   1.804
77238SOL     OW33552   4.935   9.013   1.393
77238SOL    HW133553   4.937   9.006   1.489
77238SOL    HW233554   4.992   9.087   1.373
77239SOL     OW33555   7.548  12.339   8.633
77239SOL    HW133556   7.525  12.266   8.691
77239SOL    HW233557   7.610  12.301   8.571
77240SOL     OW33558  11.555  10.729  11.015
77240SOL    HW133559  11.562  10.825  11.020
77240SOL    HW233560  11.464  10.711  11.041
77241SOL     OW33561   1.483   8.426   6.320
77241SOL    HW133562   1.554   8.404   6.380
77241SOL    HW233563   1.480   8.352   6.259
77242SOL     OW33564   3.025   8.015   7.884
77242SOL    HW133565   3.054   8.096   7.925
77242SOL    HW233566   2.929   8.023   7.881
77243SOL     OW33567   0.413   1.568   8.003
77243SOL    HW133568   0.431   1.559   7.909
77243SOL    HW233569   0.427   1.660   8.021
77244SOL     OW33570   7.523   6.880   9.709
77244SOL    HW133571   7.580   6.950   9.742
77244SOL    HW233572   7.580   6.828   9.652
77245SOL     OW33573   0.056  12.282   9.493
77245SOL    HW133574   0.008  12.222   9.550
77245SOL    HW233575   0.033  12.369   9.525
77246SOL     OW33576   2.074   1.244   0.681
77246SOL    HW133577   2.084   1.340   0.684
77246SOL    HW233578   2.035   1.222   0.766
77247SOL     OW33579   3.580   2.041   3.898
77247SOL    HW133580   3.537   2.008   3.976
77247SOL    HW233581   3.545   1.987   3.827
77248SOL     OW33582  13.529   3.386   6.403
77248SOL    HW133583  13.616   3.423   6.391
77248SOL    HW233584  13.539   3.292   6.387
77249SOL     OW33585   5.322   4.736   0.131
77249SOL    HW133586   5.292   4.702   0.047
77249SOL    HW233587   5.345   4.827   0.114
77250SOL     OW33588   1.412   1.206   1.325
77250SOL    HW133589   1.477   1.165   1.268
77250SOL    HW233590   1.332   1.157   1.310
77251SOL     OW33591  13.495   3.187   2.526
77251SOL    HW133592  13.424   3.234   2.571
77251SOL    HW233593  13.449   3.124   2.471
77252SOL     OW33594  13.695  10.489   1.409
77252SOL    HW133595  13.649  10.528   1.484
77252SOL    HW233596  13.747  10.560   1.373
77253SOL     OW33597  11.397   8.721   2.958
77253SOL    HW133598  11.366   8.650   2.901
77253SOL    HW233599  11.351   8.708   3.040
77254SOL     OW33600   0.090  10.488  13.867
77254SOL    HW133601   0.025  10.489  13.937
77254SOL    HW233602   0.134  10.404  13.876
77255SOL     OW33603   2.439  10.107  10.157
77255SOL    HW133604   2.370  10.173  10.151
77255SOL    HW233605   2.512  10.143  10.107
77256SOL     OW33606   2.244   1.161   5.136
77256SOL    HW133607   2.337   1.180   5.123
77256SOL    HW233608   2.240   1.066   5.144
77257SOL     OW33609   3.811   5.400   3.011
77257SOL    HW133610   3.753   5.470   2.980
77257SOL    HW233611   3.808   5.406   3.106
77258SOL     OW33612   1.284   5.994  11.899
77258SOL    HW133613   1.271   5.995  11.805
77258SOL    HW233614   1.374   6.024  11.912
77259SOL     OW33615   9.373   0.880   5.374
77259SOL    HW133616   9.335   0.967   5.367
77259SOL    HW233617   9.357   0.840   5.288
77260SOL     OW33618   6.874   6.791   3.457
77260SOL    HW133619   6.934   6.865   3.468
77260SOL    HW233620   6.919   6.734   3.394
77261SOL     OW33621  13.431   3.101   8.484
77261SOL    HW133622  13.462   3.026   8.434
77261SOL    HW233623  13.438   3.175   8.424
77262SOL     OW33624  13.727  13.141   7.980
77262SOL    HW133625  13.795  13.075   7.963
77262SOL    HW233626  13.736  13.162   8.073
77263SOL     OW33627  10.679   1.275  10.992
77263SOL    HW133628  10.683   1.258  11.086
77263SOL    HW233629  10.769   1.267  10.962
77264SOL     OW33630  12.883   6.085  13.514
77264SOL    HW133631  12.909   6.118  13.428
77264SOL    HW233632  12.788   6.070  13.506
77265SOL     OW33633  13.618   8.937  14.140
77265SOL    HW133634  13.596   8.850  14.108
77265SOL    HW233635  13.600   8.934  14.234
77266SOL     OW33636  11.072   4.611   0.200
77266SOL    HW133637  11.051   4.702   0.220
77266SOL    HW233638  11.160   4.614   0.164
77267SOL     OW33639  14.007   1.389   3.218
77267SOL    HW133640  13.931   1.345   3.179
77267SOL    HW233641  13.970   1.465   3.263
77268SOL     OW33642   1.502  12.604   2.888
77268SOL    HW133643   1.558  12.565   2.821
77268SOL    HW233644   1.556  12.674   2.925
77269SOL     OW33645   6.995   2.238   0.560
77269SOL    HW133646   6.943   2.169   0.600
77269SOL    HW233647   6.967   2.238   0.468
77270SOL     OW33648   4.004  14.272  10.570
77270SOL    HW133649   3.950  14.240  10.642
77270SOL    HW233650   4.006  14.367  10.581
77271SOL     OW33651   1.051   6.102   3.962
77271SOL    HW133652   1.008   6.114   3.878
77271SOL    HW233653   1.014   6.020   3.996
77272SOL     OW33654  13.886   8.956  11.775
77272SOL    HW133655  13.921   8.987  11.691
77272SOL    HW233656  13.891   9.033  11.832
77273SOL     OW33657   0.841  12.692   4.746
77273SOL    HW133658   0.837  12.770   4.690
77273SOL    HW233659   0.875  12.623   4.688
77274SOL     OW33660  10.867   9.318   3.414
77274SOL    HW133661  10.896   9.403   3.447
77274SOL    HW233662  10.863   9.329   3.319
77275SOL     OW33663  10.841  10.399  10.656
77275SOL    HW133664  10.918  10.386  10.712
77275SOL    HW233665  10.872  10.455  10.586
77276SOL     OW33666  11.669   1.840   7.123
77276SOL    HW133667  11.736   1.889   7.170
77276SOL    HW233668  11.706   1.827   7.035
77277SOL     OW33669   5.522   9.155  12.348
77277SOL    HW133670   5.588   9.171  12.280
77277SOL    HW233671   5.509   9.239  12.390
77278SOL     OW33672   3.649   9.647   0.739
77278SOL    HW133673   3.712   9.716   0.718
77278SOL    HW233674   3.603   9.631   0.656
77279SOL     OW33675  13.368  10.640   2.635
77279SOL    HW133676  13.360  10.684   2.550
77279SOL    HW233677  13.392  10.709   2.696
77280SOL     OW33678  12.089  13.084  11.453
77280SOL    HW133679  12.162  13.029  11.426
77280SOL    HW233680  12.129  13.153  11.506
77281SOL     OW33681   9.891   6.042   9.162
77281SOL    HW133682   9.976   6.079   9.187
77281SOL    HW233683   9.908   5.948   9.153
77282SOL     OW33684  13.126   8.063   3.685
77282SOL    HW133685  13.178   8.048   3.763
77282SOL    HW233686  13.045   8.103   3.717
77283SOL     OW33687   6.574  13.772   7.764
77283SOL    HW133688   6.513  13.844   7.750
77283SOL    HW233689   6.551  13.739   7.852
77284SOL     OW33690   9.186   3.030   7.998
77284SOL    HW133691   9.201   3.124   7.983
77284SOL    HW233692   9.113   3.008   7.941
77285SOL     OW33693  14.760  10.628  14.328
77285SOL    HW133694  14.767  10.558  14.393
77285SOL    HW233695  14.793  10.590  14.247
77286SOL     OW33696  11.759  10.679   6.719
77286SOL    HW133697  11.717  10.722   6.645
77286SOL    HW233698  11.800  10.601   6.681
77287SOL     OW33699   0.080   8.760   0.104
77287SOL    HW133700   0.126   8.688   0.062
77287SOL    HW233701   0.126   8.772   0.188
77288SOL     OW33702   9.973   9.116   1.356
77288SOL    HW133703  10.027   9.153   1.426
77288SOL    HW233704  10.030   9.116   1.279
77289SOL     OW33705   7.740  12.320  11.811
77289SOL    HW133706   7.764  12.334  11.903
77289SOL    HW233707   7.780  12.393  11.764
77290SOL     OW33708   7.740   8.267  13.946
77290SOL    HW133709   7.683   8.328  13.993
77290SOL    HW233710   7.756   8.310  13.861
77291SOL     OW33711   0.661   5.410   7.027
77291SOL    HW133712   0.733   5.464   6.993
77291SOL    HW233713   0.586   5.433   6.973
77292SOL     OW33714  11.149   9.630  11.058
77292SOL    HW133715  11.231   9.676  11.039
77292SOL    HW233716  11.106   9.685  11.124
77293SOL     OW33717  13.680   9.110  13.681
77293SOL    HW133718  13.694   9.124  13.774
77293SOL    HW233719  13.588   9.133  13.667
77294SOL     OW33720  10.215   3.686   0.949
77294SOL    HW133721  10.190   3.648   1.033
77294SOL    HW233722  10.154   3.647   0.886
77295SOL     OW33723   7.627   0.821   3.354
77295SOL    HW133724   7.627   0.909   3.317
77295SOL    HW233725   7.679   0.828   3.434
77296SOL     OW33726   4.694   6.649   1.686
77296SOL    HW133727   4.676   6.585   1.754
77296SOL    HW233728   4.626   6.716   1.697
77297SOL     OW33729   3.809  13.431   4.424
77297SOL    HW133730   3.904  13.438   4.435
77297SOL    HW233731   3.784  13.511   4.378
77298SOL     OW33732  11.097  12.184  14.295
77298SOL    HW133733  11.021  12.169  14.239
77298SOL    HW233734  11.146  12.254  14.251
77299SOL     OW33735   3.796   6.210   4.793
77299SOL    HW133736   3.796   6.185   4.700
77299SOL    HW233737   3.754   6.135   4.837
77300SOL     OW33738  12.044  14.746  13.403
77300SOL    HW133739  12.118  14.720  13.458
77300SOL    HW233740  11.973  14.687  13.428
77301SOL     OW33741   6.960  14.144  14.336
77301SOL    HW133742   6.884  14.134  14.279
77301SOL    HW233743   6.947  14.228  14.379
77302SOL     OW33744   2.738   4.808  13.687
77302SOL    HW133745   2.696   4.886  13.723
77302SOL    HW233746   2.796   4.842  13.619
77303SOL     OW33747   8.429  10.688   0.409
77303SOL    HW133748   8.356  10.750   0.396
77303SOL    HW233749   8.414  10.621   0.343
77304SOL     OW33750   4.287   5.410   9.787
77304SOL    HW133751   4.320   5.460   9.713
77304SOL    HW233752   4.267   5.476   9.854
77305SOL     OW33753   4.599  11.131   3.937
77305SOL    HW133754   4.614  11.071   3.864
77305SOL    HW233755   4.561  11.209   3.897
77306SOL     OW33756   3.677  14.483   5.895
77306SOL    HW133757   3.751  14.505   5.838
77306SOL    HW233758   3.607  14.457   5.835
77307SOL     OW33759   6.883   3.173   1.169
77307SOL    HW133760   6.905   3.199   1.258
77307SOL    HW233761   6.910   3.246   1.114
77308SOL     OW33762   9.594   4.875  12.088
77308SOL    HW133763   9.663   4.880  12.153
77308SOL    HW233764   9.604   4.955  12.036
77309SOL     OW33765   1.213   0.741   2.945
77309SOL    HW133766   1.262   0.669   2.986
77309SOL    HW233767   1.206   0.807   3.014
77310SOL     OW33768  13.698   2.915  10.026
77310SOL    HW133769  13.670   2.988  10.081
77310SOL    HW233770  13.781   2.887  10.064
77311SOL     OW33771  14.451  11.409   3.717
77311SOL    HW133772  14.424  11.501   3.722
77311SOL    HW233773  14.500  11.394   3.797
77312SOL     OW33774   1.483   8.016   8.717
77312SOL    HW133775   1.557   7.955   8.716
77312SOL    HW233776   1.410   7.966   8.681
77313SOL     OW33777   9.054  12.577   7.423
77313SOL    HW133778   9.041  12.491   7.463
77313SOL    HW233779   9.100  12.559   7.341
77314SOL     OW33780   6.394   5.625   0.655
77314SOL    HW133781   6.308   5.584   0.643
77314SOL    HW233782   6.383   5.714   0.621
77315SOL     OW33783  14.364  10.894   0.066
77315SOL    HW133784  14.459  10.896   0.055
77315SOL    HW233785  14.330  10.888  14.851
77316SOL     OW33786  12.750   8.092   1.341
77316SOL    HW133787  12.829   8.054   1.303
77316SOL    HW233788  12.756   8.072   1.434
77317SOL     OW33789   1.572  11.222   1.072
77317SOL    HW133790   1.642  11.270   1.029
77317SOL    HW233791   1.514  11.290   1.108
77318SOL     OW33792   7.911   8.785   3.686
77318SOL    HW133793   7.973   8.761   3.755
77318SOL    HW233794   7.887   8.875   3.706
77319SOL     OW33795   7.899   1.722   7.154
77319SOL    HW133796   7.958   1.735   7.228
77319SOL    HW233797   7.957   1.710   7.078
77320SOL     OW33798   5.906   5.670  10.442
77320SOL    HW133799   5.816   5.640  10.435
77320SOL    HW233800   5.952   5.598  10.485
77321SOL     OW33801   9.927  14.284  14.218
77321SOL    HW133802   9.886  14.214  14.268
77321SOL    HW233803   9.987  14.239  14.158
77322SOL     OW33804   8.928   3.019  14.695
77322SOL    HW133805   9.017   3.053  14.698
77322SOL    HW233806   8.915   2.979  14.782
77323SOL     OW33807   4.357   0.924   8.830
77323SOL    HW133808   4.269   0.905   8.797
77323SOL    HW233809   4.408   0.947   8.752
77324SOL     OW33810  12.356   2.181   5.469
77324SOL    HW133811  12.291   2.116   5.496
77324SOL    HW233812  12.311   2.236   5.404
77325SOL     OW33813   6.828  13.868   6.192
77325SOL    HW133814   6.770  13.940   6.170
77325SOL    HW233815   6.909  13.885   6.143
77326SOL     OW33816   1.992   6.100   7.272
77326SOL    HW133817   1.996   6.032   7.206
77326SOL    HW233818   1.901   6.099   7.302
77327SOL     OW33819   3.701   3.118   0.544
77327SOL    HW133820   3.630   3.180   0.530
77327SOL    HW233821   3.760   3.132   0.470
77328SOL     OW33822  10.975   8.374   8.919
77328SOL    HW133823  10.951   8.297   8.970
77328SOL    HW233824  10.894   8.401   8.876
77329SOL     OW33825   1.647   0.793   7.568
77329SOL    HW133826   1.737   0.798   7.601
77329SOL    HW233827   1.607   0.722   7.618
77330SOL     OW33828   3.860   4.261   9.903
77330SOL    HW133829   3.856   4.221   9.990
77330SOL    HW233830   3.930   4.325   9.909
77331SOL     OW33831   2.787   5.908  14.163
77331SOL    HW133832   2.757   5.876  14.078
77331SOL    HW233833   2.877   5.939  14.146
77332SOL     OW33834   3.324   6.079   5.448
77332SOL    HW133835   3.258   6.146   5.467
77332SOL    HW233836   3.402   6.109   5.496
77333SOL     OW33837   1.899  10.711   3.439
77333SOL    HW133838   1.926  10.652   3.369
77333SOL    HW233839   1.873  10.791   3.394
77334SOL     OW33840   4.737   5.379  10.056
77334SOL    HW133841   4.767   5.297  10.095
77334SOL    HW233842   4.687   5.352   9.979
77335SOL     OW33843   2.923   5.384   8.869
77335SOL    HW133844   2.998   5.438   8.843
77335SOL    HW233845   2.879   5.364   8.786
77336SOL     OW33846   6.397   2.597   6.036
77336SOL    HW133847   6.329   2.565   6.094
77336SOL    HW233848   6.351   2.644   5.967
77337SOL     OW33849   2.008  10.625   0.680
77337SOL    HW133850   2.075  10.688   0.707
77337SOL    HW233851   1.985  10.651   0.591
77338SOL     OW33852   0.952  13.469  14.089
77338SOL    HW133853   0.980  13.528  14.159
77338SOL    HW233854   0.886  13.412  14.131
77339SOL     OW33855  12.218  10.270  11.849
77339SOL    HW133856  12.143  10.272  11.790
77339SOL    HW233857  12.181  10.280  11.936
77340SOL     OW33858  11.833   2.933  10.525
77340SOL    HW133859  11.857   2.945  10.433
77340SOL    HW233860  11.820   2.839  10.534
77341SOL     OW33861   2.173   0.359   9.088
77341SOL    HW133862   2.079   0.374   9.095
77341SOL    HW233863   2.213   0.420   9.150
77342SOL     OW33864   3.689  10.160   5.028
77342SOL    HW133865   3.766  10.153   5.085
77342SOL    HW233866   3.616  10.136   5.085
77343SOL     OW33867   7.530  13.290   9.044
77343SOL    HW133868   7.465  13.260   8.980
77343SOL    HW233869   7.525  13.386   9.040
77344SOL     OW33870   1.397   1.416   1.793
77344SOL    HW133871   1.308   1.387   1.773
77344SOL    HW233872   1.391   1.455   1.880
77345SOL     OW33873   9.353   1.506   9.030
77345SOL    HW133874   9.352   1.584   8.974
77345SOL    HW233875   9.261   1.481   9.039
77346SOL     OW33876   3.199   0.537   0.057
77346SOL    HW133877   3.232   0.511   0.143
77346SOL    HW233878   3.115   0.492   0.049
77347SOL     OW33879   2.678   7.076  14.373
77347SOL    HW133880   2.696   7.126  14.453
77347SOL    HW233881   2.583   7.077  14.365
77348SOL     OW33882   2.658   1.517   2.101
77348SOL    HW133883   2.699   1.432   2.083
77348SOL    HW233884   2.732   1.576   2.116
77349SOL     OW33885   9.168   4.254   2.319
77349SOL    HW133886   9.107   4.209   2.261
77349SOL    HW233887   9.235   4.289   2.261
77350SOL     OW33888   6.605   8.162   1.148
77350SOL    HW133889   6.683   8.119   1.181
77350SOL    HW233890   6.630   8.195   1.062
77351SOL     OW33891  10.830   7.433  14.178
77351SOL    HW133892  10.821   7.457  14.271
77351SOL    HW233893  10.913   7.386  14.173
77352SOL     OW33894  11.723   8.347  11.354
77352SOL    HW133895  11.795   8.344  11.417
77352SOL    HW233896  11.659   8.405  11.394
77353SOL     OW33897   1.887   6.826   5.727
77353SOL    HW133898   1.947   6.872   5.785
77353SOL    HW233899   1.819   6.791   5.786
77354SOL     OW33900  11.590  11.684   5.516
77354SOL    HW133901  11.617  11.746   5.584
77354SOL    HW233902  11.671  11.659   5.472
77355SOL     OW33903   6.626   2.276   9.597
77355SOL    HW133904   6.534   2.286   9.572
77355SOL    HW233905   6.624   2.235   9.683
77356SOL     OW33906   0.019   2.190   9.587
77356SOL    HW133907  14.850   2.185   9.672
77356SOL    HW233908  14.850   2.122   9.535
77357SOL     OW33909  10.683  12.138   2.092
77357SOL    HW133910  10.661  12.204   2.027
77357SOL    HW233911  10.600  12.116   2.134
77358SOL     OW33912   2.453   9.482   1.309
77358SOL    HW133913   2.526   9.544   1.300
77358SOL    HW233914   2.462   9.446   1.397
77359SOL     OW33915   5.394  13.627  10.969
77359SOL    HW133916   5.351  13.698  11.016
77359SOL    HW233917   5.353  13.548  11.004
77360SOL     OW33918   7.890   9.004   4.196
77360SOL    HW133919   7.932   9.070   4.251
77360SOL    HW233920   7.952   8.931   4.195
77361SOL     OW33921   3.902  14.156   9.228
77361SOL    HW133922   3.916  14.117   9.314
77361SOL    HW233923   3.965  14.112   9.171
77362SOL     OW33924   7.238   2.063  14.833
77362SOL    HW133925   7.199   2.020  14.756
77362SOL    HW233926   7.254   2.153  14.804
77363SOL     OW33927  14.519   0.794  14.804
77363SOL    HW133928  14.426   0.793  14.830
77363SOL    HW233929  14.522   0.854  14.730
77364SOL     OW33930   1.846   1.840  13.734
77364SOL    HW133931   1.849   1.861  13.641
77364SOL    HW233932   1.767   1.787  13.744
77365SOL     OW33933  12.131  13.814  11.428
77365SOL    HW133934  12.147  13.862  11.347
77365SOL    HW233935  12.109  13.881  11.492
77366SOL     OW33936   0.776   0.440   8.078
77366SOL    HW133937   0.760   0.534   8.091
77366SOL    HW233938   0.734   0.420   7.994
77367SOL     OW33939   5.993   6.680   9.664
77367SOL    HW133940   6.047   6.741   9.714
77367SOL    HW233941   5.913   6.670   9.717
77368SOL     OW33942   6.259   5.510   5.201
77368SOL    HW133943   6.320   5.547   5.138
77368SOL    HW233944   6.191   5.469   5.147
77369SOL     OW33945  11.498   6.945   2.238
77369SOL    HW133946  11.501   6.924   2.144
77369SOL    HW233947  11.406   6.963   2.255
77370SOL     OW33948   0.408   8.409  11.522
77370SOL    HW133949   0.431   8.501  11.539
77370SOL    HW233950   0.344   8.388  11.590
77371SOL     OW33951  12.227   1.323   9.487
77371SOL    HW133952  12.264   1.406   9.518
77371SOL    HW233953  12.227   1.267   9.565
77372SOL     OW33954   9.351  14.431  10.042
77372SOL    HW133955   9.428  14.458  10.093
77372SOL    HW233956   9.335  14.505   9.983
77373SOL     OW33957   3.377  12.077   8.936
77373SOL    HW133958   3.348  12.109   8.850
77373SOL    HW233959   3.296  12.059   8.983
77374SOL     OW33960  14.635   3.784  14.580
77374SOL    HW133961  14.563   3.815  14.525
77374SOL    HW233962  14.621   3.827  14.664
77375SOL     OW33963  14.072   3.750   6.632
77375SOL    HW133964  14.008   3.754   6.703
77375SOL    HW233965  14.095   3.657   6.625
77376SOL     OW33966   9.545  14.030   8.668
77376SOL    HW133967   9.477  14.050   8.603
77376SOL    HW233968   9.627  14.032   8.618
77377SOL     OW33969   6.461  13.830   4.804
77377SOL    HW133970   6.522  13.766   4.768
77377SOL    HW233971   6.375  13.803   4.771
77378SOL     OW33972   8.246  11.178   3.305
77378SOL    HW133973   8.222  11.268   3.283
77378SOL    HW233974   8.162  11.131   3.308
77379SOL     OW33975   5.065   3.015  11.787
77379SOL    HW133976   5.122   3.062  11.727
77379SOL    HW233977   5.123   2.954  11.832
77380SOL     OW33978   3.273   6.135  11.143
77380SOL    HW133979   3.299   6.051  11.180
77380SOL    HW233980   3.336   6.152  11.073
77381SOL     OW33981   8.866   9.650   5.279
77381SOL    HW133982   8.892   9.640   5.370
77381SOL    HW233983   8.901   9.571   5.236
77382SOL     OW33984   2.600   0.795   9.235
77382SOL    HW133985   2.625   0.802   9.327
77382SOL    HW233986   2.674   0.752   9.193
77383SOL     OW33987  10.746   6.796   6.426
77383SOL    HW133988  10.807   6.870   6.418
77383SOL    HW233989  10.801   6.723   6.452
77384SOL     OW33990  13.372   5.981  12.311
77384SOL    HW133991  13.311   5.980  12.238
77384SOL    HW233992  13.368   6.070  12.345
77385SOL     OW33993   3.109  12.351  10.135
77385SOL    HW133994   3.081  12.307  10.055
77385SOL    HW233995   3.048  12.425  10.144
77386SOL     OW33996   2.872   7.862   5.336
77386SOL    HW133997   2.944   7.815   5.294
77386SOL    HW233998   2.912   7.903   5.414
77387SOL     OW33999   0.089   2.471   9.130
77387SOL    HW134000   0.123   2.560   9.121
77387SOL    HW234001   0.020   2.478   9.196
77388SOL     OW34002   6.561  13.746   7.418
77388SOL    HW134003   6.567  13.667   7.364
77388SOL    HW234004   6.625  13.732   7.487
77389SOL     OW34005   2.198   3.371  11.339
77389SOL    HW134006   2.277   3.403  11.297
77389SOL    HW234007   2.195   3.417  11.423
77390SOL     OW34008  14.232  13.813   1.640
77390SOL    HW134009  14.193  13.837   1.556
77390SOL    HW234010  14.200  13.724   1.657
77391SOL     OW34011   7.751  11.721   5.781
77391SOL    HW134012   7.754  11.643   5.837
77391SOL    HW234013   7.797  11.694   5.701
77392SOL     OW34014   1.059   3.007  13.370
77392SOL    HW134015   1.056   3.010  13.466
77392SOL    HW234016   1.120   3.077  13.346
77393SOL     OW34017   1.931   6.462   7.973
77393SOL    HW134018   1.866   6.425   7.913
77393SOL    HW234019   1.893   6.545   8.001
77394SOL     OW34020   6.448  10.748   7.599
77394SOL    HW134021   6.428  10.800   7.522
77394SOL    HW234022   6.541  10.731   7.593
77395SOL     OW34023   8.935   0.166   2.109
77395SOL    HW134024   8.848   0.159   2.149
77395SOL    HW234025   8.990   0.201   2.179
77396SOL     OW34026   7.445   5.773  12.108
77396SOL    HW134027   7.504   5.714  12.061
77396SOL    HW234028   7.358   5.752  12.075
77397SOL     OW34029   6.586  13.517   0.321
77397SOL    HW134030   6.528  13.455   0.365
77397SOL    HW234031   6.584  13.595   0.377
77398SOL     OW34032   6.243   5.153   0.132
77398SOL    HW134033   6.252   5.148   0.227
77398SOL    HW234034   6.196   5.235   0.116
77399SOL     OW34035   2.722  10.328  11.177
77399SOL    HW134036   2.749  10.372  11.258
77399SOL    HW234037   2.752  10.386  11.107
77400SOL     OW34038   0.592   8.367   5.059
77400SOL    HW134039   0.607   8.325   5.144
77400SOL    HW234040   0.640   8.312   4.997
77401SOL     OW34041   4.902  13.017   4.856
77401SOL    HW134042   4.930  13.055   4.939
77401SOL    HW234043   4.816  12.980   4.875
77402SOL     OW34044   7.988   7.430   2.514
77402SOL    HW134045   7.935   7.369   2.567
77402SOL    HW234046   7.991   7.389   2.427
77403SOL     OW34047  14.542  14.689  14.191
77403SOL    HW134048  14.586  14.604  14.203
77403SOL    HW234049  14.450  14.666  14.178
77404SOL     OW34050  13.732  11.707   1.498
77404SOL    HW134051  13.815  11.692   1.543
77404SOL    HW234052  13.723  11.631   1.440
77405SOL     OW34053   2.633   7.053   5.791
77405SOL    HW134054   2.547   7.047   5.834
77405SOL    HW234055   2.689   7.097   5.855
77406SOL     OW34056   5.972   0.231  11.363
77406SOL    HW134057   5.902   0.181  11.404
77406SOL    HW234058   6.043   0.229  11.426
77407SOL     OW34059  12.196   3.790   6.897
77407SOL    HW134060  12.237   3.782   6.983
77407SOL    HW234061  12.186   3.700   6.867
77408SOL     OW34062  13.219   4.416   4.427
77408SOL    HW134063  13.286   4.453   4.371
77408SOL    HW234064  13.171   4.355   4.371
77409SOL     OW34065   4.964  14.776   0.022
77409SOL    HW134066   4.902  14.773  14.823
77409SOL    HW234067   5.050  14.762  14.855
77410SOL     OW34068  14.827   4.754   2.346
77410SOL    HW134069   0.010   4.713   2.281
77410SOL    HW234070  14.754   4.693   2.356
77411SOL     OW34071   8.378   3.155   3.671
77411SOL    HW134072   8.346   3.068   3.648
77411SOL    HW234073   8.309   3.214   3.640
77412SOL     OW34074   9.866   0.066  13.219
77412SOL    HW134075   9.923   0.019  13.281
77412SOL    HW234076   9.838   0.143  13.267
77413SOL     OW34077   8.611   9.174  14.128
77413SOL    HW134078   8.546   9.244  14.122
77413SOL    HW234079   8.695   9.219  14.127
77414SOL     OW34080   3.091   2.959   1.860
77414SOL    HW134081   3.086   2.913   1.777
77414SOL    HW234082   3.013   2.931   1.908
77415SOL     OW34083   3.454   3.239   9.718
77415SOL    HW134084   3.390   3.304   9.746
77415SOL    HW234085   3.532   3.256   9.771
77416SOL     OW34086  12.328  14.182   2.263
77416SOL    HW134087  12.280  14.256   2.227
77416SOL    HW234088  12.273  14.106   2.242
77417SOL     OW34089  13.882   0.519   5.807
77417SOL    HW134090  13.954   0.466   5.772
77417SOL    HW234091  13.917   0.608   5.810
77418SOL     OW34092   6.184  14.107   6.754
77418SOL    HW134093   6.190  14.012   6.762
77418SOL    HW234094   6.236  14.140   6.827
77419SOL     OW34095   2.491   7.639   9.472
77419SOL    HW134096   2.559   7.584   9.512
77419SOL    HW234097   2.461   7.696   9.543
77420SOL     OW34098   4.327   6.129  10.947
77420SOL    HW134099   4.251   6.186  10.955
77420SOL    HW234100   4.333   6.110  10.853
77421SOL     OW34101   4.916   1.592   8.506
77421SOL    HW134102   4.905   1.589   8.601
77421SOL    HW234103   4.829   1.570   8.472
77422SOL     OW34104  13.834   5.691   7.867
77422SOL    HW134105  13.820   5.630   7.939
77422SOL    HW234106  13.886   5.762   7.906
77423SOL     OW34107   7.348   5.701   5.648
77423SOL    HW134108   7.346   5.795   5.662
77423SOL    HW234109   7.434   5.684   5.608
77424SOL     OW34110   4.846   2.795   4.439
77424SOL    HW134111   4.775   2.840   4.393
77424SOL    HW234112   4.842   2.828   4.529
77425SOL     OW34113  12.771   3.137  10.197
77425SOL    HW134114  12.760   3.046  10.170
77425SOL    HW234115  12.739   3.188  10.122
77426SOL     OW34116   7.441  12.329  13.414
77426SOL    HW134117   7.412  12.258  13.357
77426SOL    HW234118   7.481  12.285  13.489
77427SOL     OW34119   8.740   4.493  12.791
77427SOL    HW134120   8.815   4.493  12.731
77427SOL    HW234121   8.780   4.494  12.878
77428SOL     OW34122   9.356   6.755   1.357
77428SOL    HW134123   9.269   6.724   1.333
77428SOL    HW234124   9.360   6.844   1.322
77429SOL     OW34125   6.291   7.820  12.451
77429SOL    HW134126   6.227   7.832  12.521
77429SOL    HW234127   6.348   7.897  12.458
77430SOL     OW34128   7.037   5.934   4.088
77430SOL    HW134129   7.000   5.906   4.171
77430SOL    HW234130   6.984   6.009   4.062
77431SOL     OW34131  13.807  12.660  10.135
77431SOL    HW134132  13.737  12.605  10.100
77431SOL    HW234133  13.814  12.636  10.227
77432SOL     OW34134   2.460   4.264   9.107
77432SOL    HW134135   2.422   4.319   9.039
77432SOL    HW234136   2.520   4.205   9.060
77433SOL     OW34137   9.535  14.590  13.616
77433SOL    HW134138   9.609  14.641  13.648
77433SOL    HW234139   9.570  14.503  13.599
77434SOL     OW34140  11.955   8.858  11.306
77434SOL    HW134141  12.039   8.846  11.350
77434SOL    HW234142  11.968   8.934  11.250
77435SOL     OW34143   5.519   8.163  12.047
77435SOL    HW134144   5.546   8.079  12.084
77435SOL    HW234145   5.438   8.144  12.000
77436SOL     OW34146   7.999   0.587  14.604
77436SOL    HW134147   8.031   0.501  14.578
77436SOL    HW234148   8.044   0.606  14.687
77437SOL     OW34149  11.726   5.874   4.157
77437SOL    HW134150  11.669   5.939   4.116
77437SOL    HW234151  11.720   5.892   4.250
77438SOL     OW34152   2.782   1.835   0.318
77438SOL    HW134153   2.826   1.835   0.233
77438SOL    HW234154   2.844   1.879   0.377
77439SOL     OW34155   1.996   7.850   6.400
77439SOL    HW134156   2.077   7.800   6.392
77439SOL    HW234157   2.006   7.921   6.336
77440SOL     OW34158  13.648   7.604   3.285
77440SOL    HW134159  13.570   7.597   3.339
77440SOL    HW234160  13.615   7.602   3.195
77441SOL     OW34161   1.884   5.649  12.811
77441SOL    HW134162   1.803   5.600  12.800
77441SOL    HW234163   1.856   5.741  12.815
77442SOL     OW34164   9.676  11.016   5.724
77442SOL    HW134165   9.594  11.063   5.736
77442SOL    HW234166   9.732  11.047   5.795
77443SOL     OW34167   7.957  10.589   6.815
77443SOL    HW134168   7.923  10.631   6.737
77443SOL    HW234169   7.884  10.537   6.848
77444SOL     OW34170  10.519   9.969  14.257
77444SOL    HW134171  10.576   9.906  14.301
77444SOL    HW234172  10.577  10.043  14.237
77445SOL     OW34173  12.452   0.847  11.149
77445SOL    HW134174  12.408   0.762  11.151
77445SOL    HW234175  12.545   0.826  11.137
77446SOL     OW34176   9.639  11.413  12.720
77446SOL    HW134177   9.627  11.360  12.641
77446SOL    HW234178   9.632  11.503  12.689
77447SOL     OW34179   1.624  11.297   6.361
77447SOL    HW134180   1.673  11.339   6.291
77447SOL    HW234181   1.597  11.212   6.324
77448SOL     OW34182  11.653   4.639   9.286
77448SOL    HW134183  11.678   4.582   9.359
77448SOL    HW234184  11.727   4.699   9.276
77449SOL     OW34185   9.792   5.288   0.721
77449SOL    HW134186   9.711   5.291   0.671
77449SOL    HW234187   9.766   5.298   0.812
77450SOL     OW34188   7.629   5.399  14.750
77450SOL    HW134189   7.665   5.483  14.722
77450SOL    HW234190   7.587   5.418  14.834
77451SOL     OW34191   9.061   0.758   0.673
77451SOL    HW134192   8.985   0.706   0.701
77451SOL    HW234193   9.134   0.697   0.674
77452SOL     OW34194   9.157   2.223   4.119
77452SOL    HW134195   9.228   2.280   4.145
77452SOL    HW234196   9.124   2.261   4.038
77453SOL     OW34197  13.728  13.003   7.228
77453SOL    HW134198  13.727  13.099   7.235
77453SOL    HW234199  13.802  12.976   7.282
77454SOL     OW34200   7.584  10.619  12.022
77454SOL    HW134201   7.649  10.665  11.970
77454SOL    HW234202   7.500  10.653  11.991
77455SOL     OW34203  11.796   7.693   3.159
77455SOL    HW134204  11.771   7.608   3.126
77455SOL    HW234205  11.841   7.736   3.086
77456SOL     OW34206  12.650   8.550  13.557
77456SOL    HW134207  12.594   8.625  13.578
77456SOL    HW234208  12.610   8.511  13.479
77457SOL     OW34209  10.407   1.701   1.897
77457SOL    HW134210  10.495   1.666   1.914
77457SOL    HW234211  10.388   1.675   1.807
77458SOL     OW34212   4.639   0.932   8.420
77458SOL    HW134213   4.552   0.893   8.432
77458SOL    HW234214   4.623   1.026   8.425
77459SOL     OW34215  13.554   4.671  12.019
77459SOL    HW134216  13.539   4.765  12.015
77459SOL    HW234217  13.561   4.644  11.927
77460SOL     OW34218   9.110   2.716   7.845
77460SOL    HW134219   9.138   2.677   7.762
77460SOL    HW234220   9.149   2.659   7.912
77461SOL     OW34221   0.179  12.726   8.826
77461SOL    HW134222   0.174  12.820   8.804
77461SOL    HW234223   0.213  12.724   8.915
77462SOL     OW34224  11.896  10.012   4.290
77462SOL    HW134225  11.886  10.078   4.358
77462SOL    HW234226  11.968   9.957   4.320
77463SOL     OW34227   9.797   0.771   1.116
77463SOL    HW134228   9.811   0.811   1.202
77463SOL    HW234229   9.838   0.832   1.054
77464SOL     OW34230   7.559  14.395  12.121
77464SOL    HW134231   7.606  14.339  12.059
77464SOL    HW234232   7.512  14.458  12.066
77465SOL     OW34233   1.092   2.609  10.125
77465SOL    HW134234   1.176   2.639  10.159
77465SOL    HW234235   1.089   2.642  10.036
77466SOL     OW34236   7.716   9.588   3.122
77466SOL    HW134237   7.779   9.549   3.181
77466SOL    HW234238   7.645   9.523   3.116
77467SOL     OW34239  11.368  12.520  14.780
77467SOL    HW134240  11.300  12.477  14.727
77467SOL    HW234241  11.444  12.523  14.722
77468SOL     OW34242   6.996   4.147  12.197
77468SOL    HW134243   6.947   4.064  12.194
77468SOL    HW234244   6.986   4.176  12.288
77469SOL     OW34245   9.161   6.611   6.818
77469SOL    HW134246   9.231   6.665   6.780
77469SOL    HW234247   9.126   6.664   6.890
77470SOL     OW34248  12.993  13.778  12.756
77470SOL    HW134249  13.081  13.816  12.751
77470SOL    HW234250  12.994  13.708  12.690
77471SOL     OW34251   2.043   1.914   1.048
77471SOL    HW134252   2.035   1.913   0.953
77471SOL    HW234253   2.086   1.831   1.069
77472SOL     OW34254   4.751   1.168   1.682
77472SOL    HW134255   4.740   1.183   1.588
77472SOL    HW234256   4.843   1.144   1.692
77473SOL     OW34257   5.160  11.528  11.004
77473SOL    HW134258   5.238  11.565  10.963
77473SOL    HW234259   5.187  11.510  11.094
77474SOL     OW34260   8.265  10.380  14.467
77474SOL    HW134261   8.296  10.394  14.377
77474SOL    HW234262   8.197  10.446  14.479
77475SOL     OW34263  11.896  11.077   9.827
77475SOL    HW134264  11.861  11.017   9.892
77475SOL    HW234265  11.818  11.115   9.785
77476SOL     OW34266   1.453   0.376   0.641
77476SOL    HW134267   1.439   0.459   0.596
77476SOL    HW234268   1.493   0.319   0.576
77477SOL     OW34269  12.748   3.894   7.298
77477SOL    HW134270  12.735   3.869   7.206
77477SOL    HW234271  12.721   3.816   7.348
77478SOL     OW34272   0.337  11.242  11.938
77478SOL    HW134273   0.287  11.228  11.857
77478SOL    HW234274   0.416  11.189  11.926
77479SOL     OW34275   1.130   0.708   0.535
77479SOL    HW134276   1.153   0.653   0.610
77479SOL    HW234277   1.151   0.797   0.564
77480SOL     OW34278   1.657  12.331   1.594
77480SOL    HW134279   1.567  12.319   1.622
77480SOL    HW234280   1.688  12.407   1.644
77481SOL     OW34281  10.430  10.469   4.316
77481SOL    HW134282  10.421  10.399   4.251
77481SOL    HW234283  10.360  10.530   4.296
77482SOL     OW34284  10.109   2.579   1.284
77482SOL    HW134285  10.155   2.541   1.209
77482SOL    HW234286  10.025   2.608   1.249
77483SOL     OW34287  14.040   6.204  12.072
77483SOL    HW134288  14.048   6.109  12.069
77483SOL    HW234289  14.020   6.224  12.164
77484SOL     OW34290   2.472   8.669   5.225
77484SOL    HW134291   2.453   8.757   5.194
77484SOL    HW234292   2.485   8.678   5.319
77485SOL     OW34293  12.332   3.001   1.031
77485SOL    HW134294  12.325   3.094   1.050
77485SOL    HW234295  12.411   2.994   0.977
77486SOL     OW34296   3.780   7.994  12.919
77486SOL    HW134297   3.727   8.051  12.863
77486SOL    HW234298   3.740   8.000  13.005
77487SOL     OW34299  13.055   7.756  10.818
77487SOL    HW134300  13.080   7.727  10.731
77487SOL    HW234301  13.050   7.675  10.870
77488SOL     OW34302   3.383  12.039   1.492
77488SOL    HW134303   3.355  12.121   1.534
77488SOL    HW234304   3.460  12.064   1.440
77489SOL     OW34305   0.624   2.573   1.233
77489SOL    HW134306   0.648   2.485   1.202
77489SOL    HW234307   0.529   2.576   1.224
77490SOL     OW34308   8.195   1.516   9.841
77490SOL    HW134309   8.167   1.474   9.760
77490SOL    HW234310   8.291   1.520   9.835
77491SOL     OW34311   4.023  12.264   9.023
77491SOL    HW134312   3.985  12.180   8.998
77491SOL    HW234313   3.968  12.330   8.980
77492SOL     OW34314   1.013   8.967   7.322
77492SOL    HW134315   0.961   9.023   7.380
77492SOL    HW234316   1.061   8.909   7.382
77493SOL     OW34317   8.394   6.929   5.738
77493SOL    HW134318   8.302   6.910   5.755
77493SOL    HW234319   8.424   6.977   5.816
77494SOL     OW34320  10.121   8.320   6.941
77494SOL    HW134321  10.163   8.247   6.896
77494SOL    HW234322  10.031   8.320   6.909
77495SOL     OW34323  13.153   9.921   5.696
77495SOL    HW134324  13.115   9.928   5.783
77495SOL    HW234325  13.199  10.005   5.683
77496SOL     OW34326   8.585   0.754   3.311
77496SOL    HW134327   8.609   0.728   3.221
77496SOL    HW234328   8.620   0.842   3.320
77497SOL     OW34329  12.881   2.078  11.795
77497SOL    HW134330  12.956   2.027  11.826
77497SOL    HW234331  12.893   2.082  11.700
77498SOL     OW34332   3.799   0.202   7.844
77498SOL    HW134333   3.744   0.174   7.918
77498SOL    HW234334   3.805   0.125   7.788
77499SOL     OW34335   1.161   3.524  10.776
77499SOL    HW134336   1.088   3.488  10.726
77499SOL    HW234337   1.233   3.462  10.761
77500SOL     OW34338  13.154  13.942   9.423
77500SOL    HW134339  13.153  14.008   9.355
77500SOL    HW234340  13.137  13.860   9.377
77501SOL     OW34341   0.792   2.563  14.113
77501SOL    HW134342   0.846   2.599  14.183
77501SOL    HW234343   0.713   2.531  14.158
77502SOL     OW34344   6.329   9.952   7.310
77502SOL    HW134345   6.376   9.935   7.229
77502SOL    HW234346   6.296  10.042   7.300
77503SOL     OW34347   3.955  10.522   9.447
77503SOL    HW134348   4.028  10.534   9.386
77503SOL    HW234349   3.935  10.610   9.479
77504SOL     OW34350  10.815   7.520   1.652
77504SOL    HW134351  10.893   7.506   1.598
77504SOL    HW234352  10.749   7.554   1.592
77505SOL     OW34353   8.416   6.689   8.224
77505SOL    HW134354   8.458   6.775   8.223
77505SOL    HW234355   8.327   6.706   8.254
77506SOL     OW34356   1.081   5.309   9.133
77506SOL    HW134357   1.081   5.391   9.085
77506SOL    HW234358   0.996   5.270   9.114
77507SOL     OW34359   5.076   2.714   9.326
77507SOL    HW134360   5.169   2.694   9.334
77507SOL    HW234361   5.071   2.810   9.335
77508SOL     OW34362   8.114   9.342   4.054
77508SOL    HW134363   8.099   9.424   4.101
77508SOL    HW234364   8.032   9.293   4.064
77509SOL     OW34365   7.992   1.932  11.795
77509SOL    HW134366   8.064   1.946  11.732
77509SOL    HW234367   8.028   1.962  11.878
77510SOL     OW34368   5.534   6.538   9.991
77510SOL    HW134369   5.578   6.622  10.005
77510SOL    HW234370   5.512   6.508  10.079
77511SOL     OW34371  11.962   5.694  12.243
77511SOL    HW134372  11.892   5.758  12.233
77511SOL    HW234373  12.041   5.746  12.259
77512SOL     OW34374   8.043   4.772   3.082
77512SOL    HW134375   7.949   4.753   3.083
77512SOL    HW234376   8.069   4.766   3.174
77513SOL     OW34377   8.458  11.935  11.582
77513SOL    HW134378   8.430  12.013  11.535
77513SOL    HW234379   8.496  11.968  11.663
77514SOL     OW34380  14.600  10.945   7.063
77514SOL    HW134381  14.593  10.991   6.979
77514SOL    HW234382  14.694  10.942   7.081
77515SOL     OW34383   8.518   8.228   3.169
77515SOL    HW134384   8.590   8.288   3.151
77515SOL    HW234385   8.517   8.168   3.094
77516SOL     OW34386   9.532  11.014  11.210
77516SOL    HW134387   9.570  11.032  11.296
77516SOL    HW234388   9.440  11.040  11.218
77517SOL     OW34389   2.850   0.331   2.942
77517SOL    HW134390   2.787   0.329   3.014
77517SOL    HW234391   2.867   0.424   2.927
77518SOL     OW34392  14.529  11.886  13.068
77518SOL    HW134393  14.573  11.890  13.153
77518SOL    HW234394  14.522  11.977  13.040
77519SOL     OW34395   2.370   0.770   1.301
77519SOL    HW134396   2.284   0.780   1.260
77519SOL    HW234397   2.409   0.857   1.297
77520SOL     OW34398  14.057  14.407   3.206
77520SOL    HW134399  14.117  14.473   3.170
77520SOL    HW234400  14.107  14.325   3.204
77521SOL     OW34401   0.303   4.685  14.470
77521SOL    HW134402   0.377   4.625  14.460
77521SOL    HW234403   0.280   4.710  14.380
77522SOL     OW34404   7.908   3.364   1.800
77522SOL    HW134405   7.848   3.297   1.768
77522SOL    HW234406   7.931   3.415   1.723
77523SOL     OW34407  10.296   6.784   3.728
77523SOL    HW134408  10.239   6.714   3.695
77523SOL    HW234409  10.236   6.854   3.753
77524SOL     OW34410  11.860  10.169   9.397
77524SOL    HW134411  11.774  10.149   9.359
77524SOL    HW234412  11.922  10.153   9.326
77525SOL     OW34413   4.113   0.258   0.818
77525SOL    HW134414   4.041   0.279   0.878
77525SOL    HW234415   4.192   0.268   0.872
77526SOL     OW34416   9.690   5.581   0.723
77526SOL    HW134417   9.615   5.531   0.691
77526SOL    HW234418   9.757   5.515   0.740
77527SOL     OW34419   0.751   8.281   9.736
77527SOL    HW134420   0.746   8.249   9.645
77527SOL    HW234421   0.774   8.203   9.787
77528SOL     OW34422   8.908   4.791  13.137
77528SOL    HW134423   8.970   4.722  13.114
77528SOL    HW234424   8.828   4.745  13.163
77529SOL     OW34425   8.920  11.358  13.074
77529SOL    HW134426   8.973  11.371  13.152
77529SOL    HW234427   8.909  11.447  13.038
77530SOL     OW34428  11.306   3.340   5.084
77530SOL    HW134429  11.330   3.348   4.992
77530SOL    HW234430  11.216   3.308   5.083
77531SOL     OW34431  11.729   2.879  14.251
77531SOL    HW134432  11.635   2.866  14.261
77531SOL    HW234433  11.739   2.915  14.163
77532SOL     OW34434  13.777   6.079  10.651
77532SOL    HW134435  13.682   6.067  10.661
77532SOL    HW234436  13.813   6.053  10.736
77533SOL     OW34437  10.959   6.149   1.673
77533SOL    HW134438  11.053   6.157   1.693
77533SOL    HW234439  10.957   6.133   1.578
77534SOL     OW34440   8.249  14.725  13.871
77534SOL    HW134441   8.193  14.662  13.915
77534SOL    HW234442   8.332  14.721  13.920
77535SOL     OW34443   0.452   9.427   8.601
77535SOL    HW134444   0.367   9.445   8.561
77535SOL    HW234445   0.474   9.338   8.573
77536SOL     OW34446  14.193   3.516   4.703
77536SOL    HW134447  14.145   3.503   4.621
77536SOL    HW234448  14.174   3.606   4.728
77537SOL     OW34449   8.253   3.476   1.329
77537SOL    HW134450   8.160   3.486   1.350
77537SOL    HW234451   8.256   3.406   1.265
77538SOL     OW34452   9.004  13.581   4.574
77538SOL    HW134453   8.940  13.621   4.514
77538SOL    HW234454   8.950  13.535   4.639
77539SOL     OW34455   9.008   7.541   9.318
77539SOL    HW134456   9.099   7.530   9.291
77539SOL    HW234457   8.971   7.453   9.314
77540SOL     OW34458   2.985  14.018   5.333
77540SOL    HW134459   3.063  13.964   5.340
77540SOL    HW234460   2.959  14.012   5.241
77541SOL     OW34461  13.685   4.138   3.707
77541SOL    HW134462  13.647   4.226   3.717
77541SOL    HW234463  13.611   4.083   3.681
77542SOL     OW34464  11.861   6.785   5.806
77542SOL    HW134465  11.864   6.828   5.891
77542SOL    HW234466  11.919   6.837   5.750
77543SOL     OW34467   2.750  10.445   2.192
77543SOL    HW134468   2.683  10.513   2.186
77543SOL    HW234469   2.702  10.365   2.214
77544SOL     OW34470  13.939   5.687   1.196
77544SOL    HW134471  13.952   5.669   1.289
77544SOL    HW234472  13.932   5.782   1.192
77545SOL     OW34473  14.004   2.396   2.008
77545SOL    HW134474  14.041   2.387   2.095
77545SOL    HW234475  13.945   2.471   2.014
77546SOL     OW34476   8.562   6.587   7.993
77546SOL    HW134477   8.515   6.630   8.065
77546SOL    HW234478   8.618   6.656   7.957
77547SOL     OW34479  10.271   7.730   3.973
77547SOL    HW134480  10.360   7.752   3.946
77547SOL    HW234481  10.242   7.664   3.910
77548SOL     OW34482  10.593  11.777  13.808
77548SOL    HW134483  10.518  11.836  13.822
77548SOL    HW234484  10.557  11.689  13.818
77549SOL     OW34485   7.219   1.348  13.057
77549SOL    HW134486   7.216   1.260  13.018
77549SOL    HW234487   7.291   1.345  13.119
77550SOL     OW34488   0.448  13.635   0.944
77550SOL    HW134489   0.476  13.554   0.902
77550SOL    HW234490   0.453  13.702   0.875
77551SOL     OW34491   0.958   0.420   1.883
77551SOL    HW134492   0.867   0.416   1.855
77551SOL    HW234493   0.976   0.335   1.922
77552SOL     OW34494  11.142   8.177   2.589
77552SOL    HW134495  11.103   8.139   2.667
77552SOL    HW234496  11.080   8.244   2.561
77553SOL     OW34497   3.895  10.844   0.483
77553SOL    HW134498   3.892  10.769   0.424
77553SOL    HW234499   3.809  10.884   0.476
77554SOL     OW34500   2.038   2.996   9.335
77554SOL    HW134501   1.942   2.996   9.341
77554SOL    HW234502   2.065   2.935   9.404
77555SOL     OW34503   1.062   1.401  14.826
77555SOL    HW134504   1.013   1.429  14.749
77555SOL    HW234505   1.150   1.382  14.794
77556SOL     OW34506   2.519   5.564   5.285
77556SOL    HW134507   2.515   5.610   5.201
77556SOL    HW234508   2.578   5.617   5.339
77557SOL     OW34509   5.180  14.476   7.511
77557SOL    HW134510   5.144  14.562   7.488
77557SOL    HW234511   5.116  14.414   7.475
77558SOL     OW34512  12.043   4.271  10.129
77558SOL    HW134513  11.949   4.288  10.121
77558SOL    HW234514  12.073   4.264  10.038
77559SOL     OW34515   0.591   9.568   7.299
77559SOL    HW134516   0.580   9.640   7.238
77559SOL    HW234517   0.556   9.492   7.254
77560SOL     OW34518   1.313  10.296   0.849
77560SOL    HW134519   1.221  10.275   0.834
77560SOL    HW234520   1.317  10.325   0.940
77561SOL     OW34521  12.212  12.239   5.503
77561SOL    HW134522  12.280  12.177   5.531
77561SOL    HW234523  12.255  12.324   5.505
77562SOL     OW34524   5.036   6.047   2.555
77562SOL    HW134525   4.962   6.108   2.555
77562SOL    HW234526   5.018   5.989   2.481
77563SOL     OW34527  11.024   3.253   0.939
77563SOL    HW134528  11.041   3.327   0.880
77563SOL    HW234529  10.937   3.222   0.914
77564SOL     OW34530   9.156   8.546  12.156
77564SOL    HW134531   9.193   8.473  12.106
77564SOL    HW234532   9.221   8.563  12.225
77565SOL     OW34533  10.022   8.986  14.131
77565SOL    HW134534  10.116   9.002  14.140
77565SOL    HW234535  10.017   8.901  14.086
77566SOL     OW34536   7.402   8.451   1.037
77566SOL    HW134537   7.442   8.365   1.045
77566SOL    HW234538   7.383   8.460   0.944
77567SOL     OW34539   8.145   7.695   0.551
77567SOL    HW134540   8.062   7.742   0.546
77567SOL    HW234541   8.145   7.637   0.475
77568SOL     OW34542   7.234   1.846   5.172
77568SOL    HW134543   7.321   1.811   5.155
77568SOL    HW234544   7.188   1.836   5.088
77569SOL     OW34545   5.210   2.873   7.975
77569SOL    HW134546   5.280   2.808   7.970
77569SOL    HW234547   5.192   2.881   8.069
77570SOL     OW34548   7.441   4.936   5.397
77570SOL    HW134549   7.452   5.004   5.464
77570SOL    HW234550   7.531   4.912   5.373
77571SOL     OW34551  10.910   3.175  12.944
77571SOL    HW134552  10.973   3.232  12.898
77571SOL    HW234553  10.835   3.231  12.960
77572SOL     OW34554   6.044   9.825   9.665
77572SOL    HW134555   5.990   9.780   9.730
77572SOL    HW234556   6.115   9.865   9.716
77573SOL     OW34557   7.650  13.591   4.699
77573SOL    HW134558   7.683  13.601   4.788
77573SOL    HW234559   7.726  13.605   4.643
77574SOL     OW34560   5.454   5.233   7.823
77574SOL    HW134561   5.513   5.294   7.866
77574SOL    HW234562   5.399   5.287   7.766
77575SOL     OW34563   3.018   8.280   7.680
77575SOL    HW134564   2.965   8.360   7.671
77575SOL    HW234565   3.015   8.259   7.773
77576SOL     OW34566   9.452   9.331   8.355
77576SOL    HW134567   9.439   9.245   8.313
77576SOL    HW234568   9.381   9.336   8.420
77577SOL     OW34569   2.137  13.512   7.177
77577SOL    HW134570   2.084  13.553   7.245
77577SOL    HW234571   2.076  13.455   7.130
77578SOL     OW34572   4.728   1.571  11.332
77578SOL    HW134573   4.651   1.622  11.308
77578SOL    HW234574   4.788   1.634  11.371
77579SOL     OW34575   1.355  13.394   0.517
77579SOL    HW134576   1.284  13.417   0.577
77579SOL    HW234577   1.339  13.302   0.496
77580SOL     OW34578   8.887   6.124   9.185
77580SOL    HW134579   8.899   6.191   9.252
77580SOL    HW234580   8.974   6.109   9.150
77581SOL     OW34581  10.419   6.691   5.917
77581SOL    HW134582  10.370   6.754   5.969
77581SOL    HW234583  10.357   6.621   5.899
77582SOL     OW34584   7.520   6.758   8.433
77582SOL    HW134585   7.557   6.669   8.438
77582SOL    HW234586   7.547   6.800   8.514
77583SOL     OW34587  13.098   9.468   0.178
77583SOL    HW134588  13.062   9.543   0.226
77583SOL    HW234589  13.056   9.392   0.218
77584SOL     OW34590  12.794   0.099   5.454
77584SOL    HW134591  12.850   0.055   5.518
77584SOL    HW234592  12.830   0.074   5.369
77585SOL     OW34593   9.692   2.925   9.519
77585SOL    HW134594   9.664   2.871   9.445
77585SOL    HW234595   9.624   2.912   9.585
77586SOL     OW34596  12.182  10.160  12.106
77586SOL    HW134597  12.252  10.103  12.073
77586SOL    HW234598  12.179  10.142  12.200
77587SOL     OW34599   7.364   1.733  11.894
77587SOL    HW134600   7.445   1.682  11.894
77587SOL    HW234601   7.310   1.690  11.960
77588SOL     OW34602   1.680   3.466   4.391
77588SOL    HW134603   1.694   3.515   4.472
77588SOL    HW234604   1.706   3.526   4.321
77589SOL     OW34605   2.732   4.770  11.201
77589SOL    HW134606   2.789   4.833  11.157
77589SOL    HW234607   2.670   4.743  11.133
77590SOL     OW34608   3.654   7.409  11.614
77590SOL    HW134609   3.604   7.453  11.545
77590SOL    HW234610   3.602   7.421  11.693
77591SOL     OW34611  10.318   0.811  14.728
77591SOL    HW134612  10.298   0.814  14.635
77591SOL    HW234613  10.297   0.721  14.754
77592SOL     OW34614  13.637   1.182   3.688
77592SOL    HW134615  13.711   1.216   3.737
77592SOL    HW234616  13.587   1.260   3.662
77593SOL     OW34617   6.798   2.156   3.769
77593SOL    HW134618   6.892   2.158   3.749
77593SOL    HW234619   6.790   2.210   3.847
77594SOL     OW34620   6.702  10.782   0.941
77594SOL    HW134621   6.652  10.727   1.001
77594SOL    HW234622   6.792  10.778   0.974
77595SOL     OW34623   1.837   4.481   1.498
77595SOL    HW134624   1.825   4.467   1.592
77595SOL    HW234625   1.915   4.537   1.492
77596SOL     OW34626  13.587  11.450   8.915
77596SOL    HW134627  13.647  11.388   8.875
77596SOL    HW234628  13.543  11.400   8.984
77597SOL     OW34629   7.998   0.320   3.669
77597SOL    HW134630   7.970   0.237   3.707
77597SOL    HW234631   7.964   0.318   3.580
77598SOL     OW34632   3.204   6.111   2.226
77598SOL    HW134633   3.151   6.090   2.149
77598SOL    HW234634   3.166   6.058   2.296
77599SOL     OW34635   3.495   2.763   2.205
77599SOL    HW134636   3.492   2.786   2.112
77599SOL    HW234637   3.436   2.826   2.247
77600SOL     OW34638   9.256   2.304   3.458
77600SOL    HW134639   9.245   2.387   3.504
77600SOL    HW234640   9.307   2.250   3.518
77601SOL     OW34641  11.251  11.783   6.356
77601SOL    HW134642  11.297  11.704   6.325
77601SOL    HW234643  11.273  11.850   6.291
77602SOL     OW34644   4.817   2.764   1.174
77602SOL    HW134645   4.766   2.844   1.159
77602SOL    HW234646   4.751   2.697   1.193
77603SOL     OW34647   5.845  12.979   7.091
77603SOL    HW134648   5.925  12.963   7.042
77603SOL    HW234649   5.820  12.893   7.126
77604SOL     OW34650   2.567  14.528  12.810
77604SOL    HW134651   2.601  14.521  12.721
77604SOL    HW234652   2.487  14.475  12.809
77605SOL     OW34653   0.855  11.862  13.428
77605SOL    HW134654   0.932  11.826  13.472
77605SOL    HW234655   0.829  11.795  13.365
77606SOL     OW34656   1.353   0.204  13.670
77606SOL    HW134657   1.384   0.116  13.691
77606SOL    HW234658   1.270   0.212  13.717
77607SOL     OW34659   9.562   4.766   6.607
77607SOL    HW134660   9.601   4.761   6.520
77607SOL    HW234661   9.524   4.679   6.622
77608SOL     OW34662  13.680   6.535   8.972
77608SOL    HW134663  13.599   6.585   8.970
77608SOL    HW234664  13.658   6.452   8.928
77609SOL     OW34665   8.755   0.740   6.035
77609SOL    HW134666   8.817   0.696   6.093
77609SOL    HW234667   8.695   0.670   6.007
77610SOL     OW34668  10.946   9.297  13.758
77610SOL    HW134669  10.865   9.347  13.771
77610SOL    HW234670  10.986   9.292  13.845
77611SOL     OW34671   0.081   4.117   9.026
77611SOL    HW134672   0.006   4.108   9.085
77611SOL    HW234673   0.158   4.109   9.083
77612SOL     OW34674   3.709   2.698  14.175
77612SOL    HW134675   3.689   2.731  14.087
77612SOL    HW234676   3.708   2.775  14.230
77613SOL     OW34677   6.369   8.765  10.656
77613SOL    HW134678   6.350   8.673  10.640
77613SOL    HW234679   6.463   8.768  10.672
77614SOL     OW34680   8.108   1.516   1.222
77614SOL    HW134681   8.044   1.543   1.156
77614SOL    HW234682   8.193   1.535   1.182
77615SOL     OW34683   9.597   5.329  13.392
77615SOL    HW134684   9.692   5.315  13.392
77615SOL    HW234685   9.566   5.280  13.316
77616SOL     OW34686   6.477  14.224   0.122
77616SOL    HW134687   6.564  14.253   0.097
77616SOL    HW234688   6.422  14.244   0.046
77617SOL     OW34689   7.568   2.151  14.377
77617SOL    HW134690   7.586   2.214  14.447
77617SOL    HW234691   7.620   2.181  14.303
77618SOL     OW34692  10.938   2.040  11.306
77618SOL    HW134693  10.954   2.051  11.213
77618SOL    HW234694  10.872   1.971  11.311
77619SOL     OW34695   3.156  10.281   1.656
77619SOL    HW134696   3.180  10.188   1.654
77619SOL    HW234697   3.197  10.314   1.735
77620SOL     OW34698   3.839  12.116  13.195
77620SOL    HW134699   3.761  12.066  13.170
77620SOL    HW234700   3.844  12.105  13.290
77621SOL     OW34701   0.407   9.545   9.221
77621SOL    HW134702   0.443   9.577   9.139
77621SOL    HW234703   0.409   9.621   9.280
77622SOL     OW34704  10.130   7.709  12.226
77622SOL    HW134705  10.163   7.626  12.193
77622SOL    HW234706  10.158   7.773  12.161
77623SOL     OW34707   1.751   4.234  12.048
77623SOL    HW134708   1.841   4.243  12.015
77623SOL    HW234709   1.727   4.322  12.076
77624SOL     OW34710   6.962   8.437   4.441
77624SOL    HW134711   6.957   8.514   4.385
77624SOL    HW234712   6.916   8.368   4.392
77625SOL     OW34713   3.348   4.914   1.658
77625SOL    HW134714   3.321   4.847   1.721
77625SOL    HW234715   3.443   4.921   1.671
77626SOL     OW34716   3.416   7.488  10.780
77626SOL    HW134717   3.359   7.493  10.704
77626SOL    HW234718   3.503   7.509  10.746
77627SOL     OW34719   7.842   6.004  11.046
77627SOL    HW134720   7.749   6.023  11.041
77627SOL    HW234721   7.855   5.934  10.982
77628SOL     OW34722  11.517   9.183   4.303
77628SOL    HW134723  11.610   9.160   4.303
77628SOL    HW234724  11.492   9.179   4.396
77629SOL     OW34725   9.379   6.624   4.569
77629SOL    HW134726   9.413   6.575   4.644
77629SOL    HW234727   9.451   6.626   4.507
77630SOL     OW34728   1.045   1.063   8.788
77630SOL    HW134729   1.103   1.011   8.732
77630SOL    HW234730   0.984   1.104   8.727
77631SOL     OW34731   6.391  13.972  12.179
77631SOL    HW134732   6.307  13.993  12.138
77631SOL    HW234733   6.412  13.884  12.147
77632SOL     OW34734   9.499  12.131  14.433
77632SOL    HW134735   9.541  12.078  14.365
77632SOL    HW234736   9.514  12.083  14.514
77633SOL     OW34737   4.529   7.783   2.550
77633SOL    HW134738   4.441   7.802   2.517
77633SOL    HW234739   4.519   7.776   2.645
77634SOL     OW34740  13.360   1.607   1.567
77634SOL    HW134741  13.316   1.645   1.490
77634SOL    HW234742  13.433   1.558   1.530
77635SOL     OW34743   1.429   6.919   8.254
77635SOL    HW134744   1.504   6.980   8.259
77635SOL    HW234745   1.392   6.935   8.167
77636SOL     OW34746   2.428   6.574   5.401
77636SOL    HW134747   2.399   6.483   5.402
77636SOL    HW234748   2.352   6.624   5.432
77637SOL     OW34749   9.075   8.040  13.254
77637SOL    HW134750   9.045   7.950  13.269
77637SOL    HW234751   9.099   8.072  13.341
77638SOL     OW34752   2.089  10.714   3.043
77638SOL    HW134753   2.180  10.713   3.074
77638SOL    HW234754   2.062  10.805   3.050
77639SOL     OW34755   5.366  11.966   9.020
77639SOL    HW134756   5.295  12.028   9.038
77639SOL    HW234757   5.412  12.004   8.945
77640SOL     OW34758   9.268  14.411   6.678
77640SOL    HW134759   9.290  14.326   6.717
77640SOL    HW234760   9.276  14.473   6.751
77641SOL     OW34761   9.322   8.425  10.307
77641SOL    HW134762   9.406   8.413  10.351
77641SOL    HW234763   9.336   8.501  10.250
77642SOL     OW34764   6.058   2.971   0.585
77642SOL    HW134765   6.151   2.994   0.586
77642SOL    HW234766   6.030   2.995   0.497
77643SOL     OW34767  10.217  11.783  14.545
77643SOL    HW134768  10.142  11.728  14.570
77643SOL    HW234769  10.218  11.853  14.610
77644SOL     OW34770  10.791  10.310   3.449
77644SOL    HW134771  10.886  10.319   3.451
77644SOL    HW234772  10.776  10.216   3.455
77645SOL     OW34773   1.389   3.617   2.241
77645SOL    HW134774   1.352   3.696   2.282
77645SOL    HW234775   1.332   3.546   2.269
77646SOL     OW34776  11.196   7.366   5.671
77646SOL    HW134777  11.189   7.281   5.629
77646SOL    HW234778  11.246   7.349   5.751
77647SOL     OW34779  13.541   8.764   9.392
77647SOL    HW134780  13.622   8.803   9.361
77647SOL    HW234781  13.511   8.709   9.319
77648SOL     OW34782  13.618  14.107   9.630
77648SOL    HW134783  13.606  14.129   9.723
77648SOL    HW234784  13.711  14.124   9.613
77649SOL     OW34785   5.313   1.873   0.909
77649SOL    HW134786   5.221   1.854   0.929
77649SOL    HW234787   5.335   1.813   0.838
77650SOL     OW34788  10.908   0.869  14.712
77650SOL    HW134789  10.937   0.942  14.659
77650SOL    HW234790  10.879   0.803  14.649
77651SOL     OW34791   1.308   7.419   2.016
77651SOL    HW134792   1.237   7.360   2.042
77651SOL    HW234793   1.298   7.496   2.073
77652SOL     OW34794  12.422   3.665  14.383
77652SOL    HW134795  12.330   3.693  14.378
77652SOL    HW234796  12.429   3.621  14.468
77653SOL     OW34797   5.824   3.097   4.006
77653SOL    HW134798   5.890   3.030   3.984
77653SOL    HW234799   5.837   3.114   4.099
77654SOL     OW34800   1.052  13.261   5.656
77654SOL    HW134801   1.086  13.199   5.721
77654SOL    HW234802   1.112  13.253   5.582
77655SOL     OW34803  12.186   7.251  12.278
77655SOL    HW134804  12.171   7.266  12.371
77655SOL    HW234805  12.279   7.229  12.272
77656SOL     OW34806  11.864  14.493  13.219
77656SOL    HW134807  11.867  14.476  13.313
77656SOL    HW234808  11.920  14.427  13.180
77657SOL     OW34809   9.544  13.223  11.010
77657SOL    HW134810   9.465  13.273  10.985
77657SOL    HW234811   9.587  13.204  10.927
77658SOL     OW34812  14.579   9.781  13.194
77658SOL    HW134813  14.578   9.711  13.259
77658SOL    HW234814  14.626   9.852  13.236
77659SOL     OW34815  12.286  13.590  14.533
77659SOL    HW134816  12.365  13.613  14.484
77659SOL    HW234817  12.318  13.562  14.619
77660SOL     OW34818  11.585   6.529  10.122
77660SOL    HW134819  11.643   6.600  10.095
77660SOL    HW234820  11.514   6.530  10.058
77661SOL     OW34821   8.880  12.223  10.098
77661SOL    HW134822   8.921  12.290  10.044
77661SOL    HW234823   8.951  12.189  10.152
77662SOL     OW34824  12.529  10.291  14.513
77662SOL    HW134825  12.560  10.204  14.540
77662SOL    HW234826  12.603  10.328  14.464
77663SOL     OW34827  12.485  13.688   7.843
77663SOL    HW134828  12.431  13.675   7.765
77663SOL    HW234829  12.536  13.607   7.850
77664SOL     OW34830   7.683   0.960   1.617
77664SOL    HW134831   7.722   1.047   1.610
77664SOL    HW234832   7.612   0.971   1.680
77665SOL     OW34833   3.377   8.421  13.586
77665SOL    HW134834   3.458   8.454  13.626
77665SOL    HW234835   3.334   8.372  13.656
77666SOL     OW34836   1.425   2.637   9.030
77666SOL    HW134837   1.390   2.556   9.066
77666SOL    HW234838   1.430   2.697   9.106
77667SOL     OW34839   8.231   7.544  13.846
77667SOL    HW134840   8.317   7.562  13.808
77667SOL    HW234841   8.184   7.627  13.840
77668SOL     OW34842   7.177   8.955  13.986
77668SOL    HW134843   7.102   9.015  13.981
77668SOL    HW234844   7.245   8.997  13.934
77669SOL     OW34845  11.217  13.120   6.829
77669SOL    HW134846  11.170  13.193   6.868
77669SOL    HW234847  11.227  13.056   6.899
77670SOL     OW34848   3.561   5.969   0.897
77670SOL    HW134849   3.580   5.975   0.803
77670SOL    HW234850   3.642   5.998   0.939
77671SOL     OW34851   8.543  13.834   9.486
77671SOL    HW134852   8.507  13.918   9.514
77671SOL    HW234853   8.533  13.834   9.391
77672SOL     OW34854   8.223   2.743  10.575
77672SOL    HW134855   8.284   2.813  10.553
77672SOL    HW234856   8.200   2.704  10.491
77673SOL     OW34857  11.329  13.855   5.202
77673SOL    HW134858  11.367  13.807   5.276
77673SOL    HW234859  11.248  13.892   5.237
77674SOL     OW34860   2.685   6.034   5.169
77674SOL    HW134861   2.719   6.108   5.119
77674SOL    HW234862   2.731   6.039   5.253
77675SOL     OW34863   5.368  11.099   6.223
77675SOL    HW134864   5.376  11.105   6.127
77675SOL    HW234865   5.451  11.134   6.256
77676SOL     OW34866   6.058   5.162  10.510
77676SOL    HW134867   6.132   5.182  10.454
77676SOL    HW234868   6.024   5.079  10.477
77677SOL     OW34869  14.661   1.582   2.209
77677SOL    HW134870  14.593   1.610   2.148
77677SOL    HW234871  14.654   1.486   2.210
77678SOL     OW34872   0.852   2.681   8.926
77678SOL    HW134873   0.833   2.775   8.927
77678SOL    HW234874   0.917   2.671   8.858
77679SOL     OW34875   2.123   6.844   5.314
77679SOL    HW134876   2.031   6.817   5.306
77679SOL    HW234877   2.161   6.780   5.375
77680SOL     OW34878   8.054  12.447   8.864
77680SOL    HW134879   7.987  12.379   8.872
77680SOL    HW234880   8.134  12.399   8.843
77681SOL     OW34881   7.167   4.472  11.932
77681SOL    HW134882   7.137   4.562  11.947
77681SOL    HW234883   7.095   4.418  11.964
77682SOL     OW34884  13.714  13.505   2.676
77682SOL    HW134885  13.762  13.572   2.725
77682SOL    HW234886  13.771  13.484   2.602
77683SOL     OW34887   7.235  12.164   3.408
77683SOL    HW134888   7.157  12.191   3.359
77683SOL    HW234889   7.302  12.228   3.385
77684SOL     OW34890  12.734  10.308  11.769
77684SOL    HW134891  12.780  10.252  11.830
77684SOL    HW234892  12.712  10.386  11.820
77685SOL     OW34893   7.933   8.893   8.768
77685SOL    HW134894   7.872   8.836   8.813
77685SOL    HW234895   7.986   8.835   8.713
77686SOL     OW34896  13.361   8.652   5.856
77686SOL    HW134897  13.409   8.671   5.775
77686SOL    HW234898  13.419   8.592   5.904
77687SOL     OW34899  10.568   9.276   5.284
77687SOL    HW134900  10.653   9.234   5.274
77687SOL    HW234901  10.505   9.210   5.254
77688SOL     OW34902   3.929   4.225   0.522
77688SOL    HW134903   3.995   4.191   0.462
77688SOL    HW234904   3.969   4.302   0.561
77689SOL     OW34905  11.782   3.122   8.991
77689SOL    HW134906  11.843   3.115   8.918
77689SOL    HW234907  11.822   3.185   9.051
77690SOL     OW34908   6.381  13.733  14.370
77690SOL    HW134909   6.362  13.771  14.456
77690SOL    HW234910   6.361  13.804  14.308
77691SOL     OW34911  11.841   4.344  10.783
77691SOL    HW134912  11.772   4.325  10.846
77691SOL    HW234913  11.798   4.395  10.715
77692SOL     OW34914   9.378   7.033   2.917
77692SOL    HW134915   9.420   6.949   2.898
77692SOL    HW234916   9.433   7.073   2.984
77693SOL     OW34917  13.928  10.812   7.256
77693SOL    HW134918  13.876  10.747   7.302
77693SOL    HW234919  14.017  10.777   7.257
77694SOL     OW34920   7.134   3.170   0.203
77694SOL    HW134921   7.154   3.116   0.126
77694SOL    HW234922   7.042   3.195   0.191
77695SOL     OW34923   2.558   0.844  12.688
77695SOL    HW134924   2.504   0.920  12.711
77695SOL    HW234925   2.508   0.768  12.718
77696SOL     OW34926  10.901   4.390   4.742
77696SOL    HW134927  10.928   4.309   4.786
77696SOL    HW234928  10.808   4.378   4.724
77697SOL     OW34929   7.881  12.368  10.204
77697SOL    HW134930   7.946  12.428  10.240
77697SOL    HW234931   7.913  12.347  10.116
77698SOL     OW34932   6.990   5.532   0.634
77698SOL    HW134933   6.993   5.488   0.548
77698SOL    HW234934   6.973   5.624   0.613
77699SOL     OW34935   2.436   3.441   4.090
77699SOL    HW134936   2.425   3.357   4.045
77699SOL    HW234937   2.512   3.427   4.147
77700SOL     OW34938   8.140   9.068   0.272
77700SOL    HW134939   8.214   9.073   0.211
77700SOL    HW234940   8.177   9.086   0.358
77701SOL     OW34941   3.376   2.928  13.070
77701SOL    HW134942   3.340   2.844  13.042
77701SOL    HW234943   3.305   2.990  13.055
77702SOL     OW34944  10.033   3.235   7.794
77702SOL    HW134945   9.950   3.211   7.753
77702SOL    HW234946  10.051   3.324   7.763
77703SOL     OW34947   1.155   1.321   5.351
77703SOL    HW134948   1.080   1.378   5.331
77703SOL    HW234949   1.189   1.296   5.266
77704SOL     OW34950   6.007  12.783  13.723
77704SOL    HW134951   5.940  12.852  13.720
77704SOL    HW234952   6.004  12.749  13.812
77705SOL     OW34953  11.393   0.531  10.008
77705SOL    HW134954  11.370   0.532   9.915
77705SOL    HW234955  11.422   0.442  10.025
77706SOL     OW34956   1.625   3.331   8.309
77706SOL    HW134957   1.645   3.425   8.302
77706SOL    HW234958   1.599   3.319   8.400
77707SOL     OW34959  14.182   2.700  12.771
77707SOL    HW134960  14.272   2.709  12.739
77707SOL    HW234961  14.183   2.619  12.822
77708SOL     OW34962   0.860   9.813  14.477
77708SOL    HW134963   0.824   9.730  14.448
77708SOL    HW234964   0.864   9.866  14.397
77709SOL     OW34965   7.949  14.358  10.699
77709SOL    HW134966   7.882  14.389  10.759
77709SOL    HW234967   8.021  14.331  10.756
77710SOL     OW34968   4.011   9.025   2.639
77710SOL    HW134969   3.941   9.060   2.694
77710SOL    HW234970   4.030   8.939   2.677
77711SOL     OW34971  10.996   3.052  11.845
77711SOL    HW134972  10.949   2.971  11.866
77711SOL    HW234973  10.931   3.121  11.857
77712SOL     OW34974   8.426  14.796   4.910
77712SOL    HW134975   8.354  14.734   4.896
77712SOL    HW234976   8.405  14.839   4.993
77713SOL     OW34977   6.253  12.404   1.561
77713SOL    HW134978   6.349  12.398   1.559
77713SOL    HW234979   6.225  12.323   1.604
77714SOL     OW34980   3.781  14.823   6.133
77714SOL    HW134981   3.848  14.758   6.116
77714SOL    HW234982   3.792   0.014   6.064
77715SOL     OW34983  14.269   2.852   8.531
77715SOL    HW134984  14.201   2.785   8.524
77715SOL    HW234985  14.259   2.904   8.451
77716SOL     OW34986  10.900  10.756   3.660
77716SOL    HW134987  10.924  10.843   3.694
77716SOL    HW234988  10.805  10.750   3.676
77717SOL     OW34989   2.321   7.023   5.424
77717SOL    HW134990   2.369   7.041   5.343
77717SOL    HW234991   2.262   6.951   5.401
77718SOL     OW34992   2.707  10.189   8.998
77718SOL    HW134993   2.736  10.126   9.064
77718SOL    HW234994   2.641  10.141   8.947
77719SOL     OW34995   8.676   5.354  14.368
77719SOL    HW134996   8.660   5.370  14.461
77719SOL    HW234997   8.694   5.260  14.363
77720SOL     OW34998   9.526  11.462   7.134
77720SOL    HW134999   9.613  11.498   7.151
77720SOL    HW235000   9.496  11.432   7.220
77721SOL     OW35001   9.805  14.083  12.799
77721SOL    HW135002   9.879  14.053  12.746
77721SOL    HW235003   9.845  14.114  12.880
77722SOL     OW35004  11.623   8.846   1.400
77722SOL    HW135005  11.566   8.797   1.459
77722SOL    HW235006  11.708   8.847   1.443
77723SOL     OW35007  14.138  11.986   0.738
77723SOL    HW135008  14.175  11.994   0.826
77723SOL    HW235009  14.214  11.978   0.680
77724SOL     OW35010  13.245  14.708   9.017
77724SOL    HW135011  13.207  14.631   8.974
77724SOL    HW235012  13.303  14.672   9.083
77725SOL     OW35013   0.382   0.346   3.396
77725SOL    HW135014   0.420   0.433   3.385
77725SOL    HW235015   0.458   0.287   3.399
77726SOL     OW35016   8.639   4.696   2.104
77726SOL    HW135017   8.634   4.667   2.195
77726SOL    HW235018   8.586   4.775   2.102
77727SOL     OW35019   8.337   9.962  13.695
77727SOL    HW135020   8.423  10.005  13.700
77727SOL    HW235021   8.279  10.027  13.656
77728SOL     OW35022  11.596   3.555   0.698
77728SOL    HW135023  11.644   3.480   0.663
77728SOL    HW235024  11.656   3.629   0.686
77729SOL     OW35025   1.296   3.546  12.764
77729SOL    HW135026   1.202   3.542  12.778
77729SOL    HW235027   1.320   3.458  12.734
77730SOL     OW35028  13.419   8.539   8.193
77730SOL    HW135029  13.374   8.480   8.133
77730SOL    HW235030  13.357   8.550   8.266
77731SOL     OW35031  12.329   2.369  14.082
77731SOL    HW135032  12.254   2.427  14.094
77731SOL    HW235033  12.291   2.286  14.054
77732SOL     OW35034   3.778   8.213   1.414
77732SOL    HW135035   3.792   8.130   1.460
77732SOL    HW235036   3.710   8.258   1.465
77733SOL     OW35037   9.457   1.710  14.101
77733SOL    HW135038   9.485   1.641  14.042
77733SOL    HW235039   9.361   1.709  14.096
77734SOL     OW35040   4.964   7.460   8.258
77734SOL    HW135041   4.932   7.373   8.235
77734SOL    HW235042   4.963   7.462   8.353
77735SOL     OW35043   1.269   5.381   9.373
77735SOL    HW135044   1.335   5.322   9.409
77735SOL    HW235045   1.260   5.354   9.282
77736SOL     OW35046  11.349   7.624   0.200
77736SOL    HW135047  11.301   7.636   0.118
77736SOL    HW235048  11.281   7.622   0.267
77737SOL     OW35049  13.776   4.465   3.527
77737SOL    HW135050  13.866   4.459   3.495
77737SOL    HW235051  13.762   4.559   3.541
77738SOL     OW35052   3.609   5.895   3.352
77738SOL    HW135053   3.585   5.858   3.437
77738SOL    HW235054   3.653   5.977   3.373
77739SOL     OW35055   6.947   1.168   0.748
77739SOL    HW135056   6.908   1.248   0.784
77739SOL    HW235057   7.009   1.199   0.683
77740SOL     OW35058  11.994   5.217   4.000
77740SOL    HW135059  11.932   5.255   3.938
77740SOL    HW235060  11.941   5.165   4.059
77741SOL     OW35061   7.975   9.159   1.458
77741SOL    HW135062   7.943   9.112   1.381
77741SOL    HW235063   7.897   9.176   1.510
77742SOL     OW35064   9.716   6.958   2.110
77742SOL    HW135065   9.757   6.906   2.041
77742SOL    HW235066   9.674   6.894   2.166
77743SOL     OW35067   6.015   5.317   7.363
77743SOL    HW135068   6.016   5.406   7.400
77743SOL    HW235069   6.091   5.314   7.307
77744SOL     OW35070   5.181   8.372   7.772
77744SOL    HW135071   5.156   8.410   7.856
77744SOL    HW235072   5.277   8.381   7.769
77745SOL     OW35073   4.857  12.594   7.072
77745SOL    HW135074   4.799  12.667   7.092
77745SOL    HW235075   4.857  12.589   6.977
77746SOL     OW35076   4.830  12.029   1.535
77746SOL    HW135077   4.889  12.035   1.460
77746SOL    HW235078   4.815  11.935   1.546
77747SOL     OW35079   3.550  12.664   7.323
77747SOL    HW135080   3.487  12.593   7.329
77747SOL    HW235081   3.634  12.621   7.306
77748SOL     OW35082  12.378   4.114   6.721
77748SOL    HW135083  12.366   4.032   6.672
77748SOL    HW235084  12.311   4.111   6.790
77749SOL     OW35085   3.109   6.202   4.273
77749SOL    HW135086   3.084   6.111   4.255
77749SOL    HW235087   3.047   6.231   4.340
77750SOL     OW35088   3.185   6.401   8.147
77750SOL    HW135089   3.208   6.449   8.067
77750SOL    HW235090   3.229   6.316   8.138
77751SOL     OW35091   7.584  14.126  13.221
77751SOL    HW135092   7.493  14.154  13.223
77751SOL    HW235093   7.622  14.162  13.301
77752SOL     OW35094  13.542   7.085   6.950
77752SOL    HW135095  13.475   7.048   6.892
77752SOL    HW235096  13.569   7.012   7.005
77753SOL     OW35097   3.670   5.423   1.424
77753SOL    HW135098   3.684   5.379   1.340
77753SOL    HW235099   3.748   5.476   1.437
77754SOL     OW35100   8.702   5.971   9.338
77754SOL    HW135101   8.763   6.038   9.307
77754SOL    HW235102   8.757   5.898   9.364
77755SOL     OW35103   7.743  13.608  13.182
77755SOL    HW135104   7.736  13.582  13.274
77755SOL    HW235105   7.716  13.699  13.180
77756SOL     OW35106   1.392   6.570   8.865
77756SOL    HW135107   1.301   6.574   8.833
77756SOL    HW235108   1.392   6.622   8.945
77757SOL     OW35109   4.553  10.968  12.981
77757SOL    HW135110   4.479  10.913  12.956
77757SOL    HW235111   4.532  11.054  12.945
77758SOL     OW35112   6.411  13.348   9.609
77758SOL    HW135113   6.493  13.371   9.651
77758SOL    HW235114   6.357  13.312   9.679
77759SOL     OW35115   5.599   2.627   1.171
77759SOL    HW135116   5.585   2.705   1.226
77759SOL    HW235117   5.660   2.656   1.104
77760SOL     OW35118   1.886   9.681   7.920
77760SOL    HW135119   1.867   9.706   8.010
77760SOL    HW235120   1.895   9.765   7.873
77761SOL     OW35121  11.205   7.759   6.313
77761SOL    HW135122  11.237   7.849   6.319
77761SOL    HW235123  11.199   7.743   6.219
77762SOL     OW35124  13.789   5.375   9.500
77762SOL    HW135125  13.857   5.344   9.559
77762SOL    HW235126  13.774   5.301   9.440
77763SOL     OW35127   0.742  13.536  11.300
77763SOL    HW135128   0.695  13.472  11.354
77763SOL    HW235129   0.718  13.513  11.210
77764SOL     OW35130   2.500   2.318  10.000
77764SOL    HW135131   2.447   2.382   9.952
77764SOL    HW235132   2.502   2.352  10.090
77765SOL     OW35133   3.798   0.773   7.755
77765SOL    HW135134   3.745   0.706   7.798
77765SOL    HW235135   3.760   0.782   7.668
77766SOL     OW35136   7.686   5.069   3.492
77766SOL    HW135137   7.632   5.062   3.570
77766SOL    HW235138   7.755   5.131   3.516
77767SOL     OW35139   0.394   7.990   7.543
77767SOL    HW135140   0.301   7.981   7.523
77767SOL    HW235141   0.438   7.977   7.458
77768SOL     OW35142  13.108   1.281   5.293
77768SOL    HW135143  13.080   1.354   5.238
77768SOL    HW235144  13.056   1.288   5.372
77769SOL     OW35145   6.671   5.766   0.125
77769SOL    HW135146   6.732   5.721   0.066
77769SOL    HW235147   6.658   5.852   0.085
77770SOL     OW35148  13.190   8.282   5.669
77770SOL    HW135149  13.253   8.315   5.605
77770SOL    HW235150  13.201   8.187   5.667
77771SOL     OW35151   9.055   2.477   6.620
77771SOL    HW135152   9.030   2.499   6.530
77771SOL    HW235153   8.990   2.521   6.674
77772SOL     OW35154   7.491   5.376   1.431
77772SOL    HW135155   7.567   5.369   1.490
77772SOL    HW235156   7.470   5.286   1.408
77773SOL     OW35157   0.618   5.323  10.687
77773SOL    HW135158   0.578   5.403  10.654
77773SOL    HW235159   0.712   5.338  10.679
77774SOL     OW35160   4.747  14.486  10.547
77774SOL    HW135161   4.824  14.517  10.595
77774SOL    HW235162   4.776  14.405  10.506
77775SOL     OW35163   9.131  10.522   8.442
77775SOL    HW135164   9.177  10.603   8.420
77775SOL    HW235165   9.102  10.535   8.532
77776SOL     OW35166   5.657   8.388   9.305
77776SOL    HW135167   5.613   8.355   9.226
77776SOL    HW235168   5.745   8.351   9.299
77777SOL     OW35169  12.944   3.338  13.952
77777SOL    HW135170  13.036   3.361  13.937
77777SOL    HW235171  12.940   3.244  13.934
77778SOL     OW35172  10.175  11.518   6.416
77778SOL    HW135173  10.151  11.592   6.362
77778SOL    HW235174  10.252  11.548   6.466
77779SOL     OW35175   9.429   0.551   8.221
77779SOL    HW135176   9.352   0.512   8.178
77779SOL    HW235177   9.394   0.593   8.299
77780SOL     OW35178   5.845   0.436   2.388
77780SOL    HW135179   5.928   0.389   2.378
77780SOL    HW235180   5.849   0.505   2.321
77781SOL     OW35181  14.424  12.925  13.758
77781SOL    HW135182  14.505  12.873  13.762
77781SOL    HW235183  14.454  13.016  13.758
77782SOL     OW35184  13.491  14.414   5.200
77782SOL    HW135185  13.409  14.365   5.211
77782SOL    HW235186  13.517  14.397   5.109
77783SOL     OW35187   1.082   0.459   4.566
77783SOL    HW135188   1.134   0.524   4.614
77783SOL    HW235189   1.034   0.511   4.501
77784SOL     OW35190   0.059   0.156  12.557
77784SOL    HW135191   0.139   0.102  12.556
77784SOL    HW235192   0.042   0.171  12.650
77785SOL     OW35193   2.991  12.125   2.194
77785SOL    HW135194   2.910  12.160   2.157
77785SOL    HW235195   2.998  12.165   2.280
77786SOL     OW35196  13.763  13.548   7.778
77786SOL    HW135197  13.682  13.596   7.795
77786SOL    HW235198  13.734  13.465   7.740
77787SOL     OW35199   0.163   8.077   7.411
77787SOL    HW135200   0.146   8.054   7.320
77787SOL    HW235201   0.088   8.041   7.459
77788SOL     OW35202   5.329   6.246  10.044
77788SOL    HW135203   5.403   6.186  10.043
77788SOL    HW235204   5.365   6.329  10.077
77789SOL     OW35205  10.434  12.508  11.883
77789SOL    HW135206  10.411  12.423  11.919
77789SOL    HW235207  10.522  12.526  11.917
77790SOL     OW35208  10.697   9.487  14.339
77790SOL    HW135209  10.756   9.455  14.271
77790SOL    HW235210  10.620   9.518  14.291
77791SOL     OW35211   4.619   9.132  10.991
77791SOL    HW135212   4.702   9.126  11.039
77791SOL    HW235213   4.564   9.190  11.044
77792SOL     OW35214   4.464  13.163   7.589
77792SOL    HW135215   4.451  13.171   7.684
77792SOL    HW235216   4.559  13.161   7.578
77793SOL     OW35217  10.288   0.139   9.845
77793SOL    HW135218  10.372   0.176   9.818
77793SOL    HW235219  10.265   0.188   9.924
77794SOL     OW35220   1.118  11.853   1.657
77794SOL    HW135221   1.030  11.890   1.663
77794SOL    HW235222   1.105  11.761   1.635
77795SOL     OW35223   4.430   6.593  12.036
77795SOL    HW135224   4.454   6.686  12.039
77795SOL    HW235225   4.491   6.555  11.973
77796SOL     OW35226   1.441   0.088   7.544
77796SOL    HW135227   1.489   0.162   7.581
77796SOL    HW235228   1.364   0.079   7.600
77797SOL     OW35229   5.883   4.397  11.486
77797SOL    HW135230   5.847   4.312  11.510
77797SOL    HW235231   5.904   4.439  11.569
77798SOL     OW35232   9.696   4.877   0.294
77798SOL    HW135233   9.610   4.851   0.326
77798SOL    HW235234   9.725   4.802   0.241
77799SOL     OW35235   5.154   2.335   7.541
77799SOL    HW135236   5.065   2.359   7.515
77799SOL    HW235237   5.182   2.407   7.597
77800SOL     OW35238   6.429   1.486   6.524
77800SOL    HW135239   6.518   1.484   6.490
77800SOL    HW235240   6.422   1.408   6.579
77801SOL     OW35241  13.421   4.828  13.360
77801SOL    HW135242  13.488   4.891  13.334
77801SOL    HW235243  13.455   4.744  13.329
77802SOL     OW35244   7.531   3.483  14.053
77802SOL    HW135245   7.599   3.537  14.012
77802SOL    HW235246   7.580   3.425  14.111
77803SOL     OW35247   0.744   7.371   0.373
77803SOL    HW135248   0.786   7.286   0.379
77803SOL    HW235249   0.815   7.432   0.351
77804SOL     OW35250   4.649   9.714  14.341
77804SOL    HW135251   4.559   9.746  14.340
77804SOL    HW235252   4.699   9.782  14.387
77805SOL     OW35253   2.214   9.032  10.016
77805SOL    HW135254   2.263   9.054   9.936
77805SOL    HW235255   2.130   9.076  10.004
77806SOL     OW35256   4.456  10.823  11.017
77806SOL    HW135257   4.479  10.746  11.068
77806SOL    HW235258   4.476  10.799  10.926
77807SOL     OW35259   2.922  11.649  12.374
77807SOL    HW135260   2.862  11.717  12.402
77807SOL    HW235261   2.969  11.688  12.300
77808SOL     OW35262   9.862  11.076   5.395
77808SOL    HW135263   9.797  11.129   5.350
77808SOL    HW235264   9.819  11.048   5.476
77809SOL     OW35265   8.178   5.460   0.474
77809SOL    HW135266   8.089   5.476   0.443
77809SOL    HW235267   8.169   5.388   0.537
77810SOL     OW35268  12.544   3.363   3.614
77810SOL    HW135269  12.460   3.340   3.575
77810SOL    HW235270  12.608   3.311   3.564
77811SOL     OW35271  12.430   4.743  12.076
77811SOL    HW135272  12.405   4.720  11.987
77811SOL    HW235273  12.361   4.801  12.106
77812SOL     OW35274   3.495  12.570   8.689
77812SOL    HW135275   3.582  12.607   8.706
77812SOL    HW235276   3.512  12.490   8.639
77813SOL     OW35277   8.285   6.400   1.859
77813SOL    HW135278   8.348   6.419   1.790
77813SOL    HW235279   8.324   6.435   1.939
77814SOL     OW35280   3.621  10.988  13.958
77814SOL    HW135281   3.659  11.043  13.889
77814SOL    HW235282   3.680  10.913  13.963
77815SOL     OW35283   2.375  13.431  12.707
77815SOL    HW135284   2.291  13.391  12.730
77815SOL    HW235285   2.410  13.460  12.791
77816SOL     OW35286  14.774   8.091  12.133
77816SOL    HW135287  14.751   8.002  12.159
77816SOL    HW235288  14.691   8.138  12.134
77817SOL     OW35289   5.937  13.923   9.402
77817SOL    HW135290   5.915  13.932   9.309
77817SOL    HW235291   5.853  13.929   9.447
77818SOL     OW35292  11.458   8.708  11.267
77818SOL    HW135293  11.490   8.679  11.182
77818SOL    HW235294  11.380   8.759  11.248
77819SOL     OW35295   9.325   6.431   6.665
77819SOL    HW135296   9.408   6.464   6.699
77819SOL    HW235297   9.258   6.480   6.714
77820SOL     OW35298  13.350   2.389  14.291
77820SOL    HW135299  13.304   2.376  14.373
77820SOL    HW235300  13.361   2.302  14.254
77821SOL     OW35301   8.751  10.868   4.418
77821SOL    HW135302   8.707  10.909   4.344
77821SOL    HW235303   8.682  10.853   4.482
77822SOL     OW35304   7.761   3.752   1.972
77822SOL    HW135305   7.735   3.826   1.917
77822SOL    HW235306   7.796   3.792   2.052
77823SOL     OW35307   2.554   2.449   1.998
77823SOL    HW135308   2.611   2.489   2.063
77823SOL    HW235309   2.593   2.473   1.914
77824SOL     OW35310   6.600  14.155   2.747
77824SOL    HW135311   6.581  14.207   2.669
77824SOL    HW235312   6.522  14.101   2.759
77825SOL     OW35313   4.290   3.171  14.792
77825SOL    HW135314   4.209   3.181  14.842
77825SOL    HW235315   4.360   3.177  14.858
77826SOL     OW35316   3.243   6.994   0.340
77826SOL    HW135317   3.242   6.933   0.413
77826SOL    HW235318   3.262   6.940   0.264
77827SOL     OW35319   9.926   9.582   8.114
77827SOL    HW135320   9.987   9.533   8.169
77827SOL    HW235321   9.843   9.579   8.162
77828SOL     OW35322  10.813   2.942  12.598
77828SOL    HW135323  10.744   2.925  12.533
77828SOL    HW235324  10.847   3.028  12.573
77829SOL     OW35325  12.928   5.584   3.024
77829SOL    HW135326  12.921   5.527   3.101
77829SOL    HW235327  12.845   5.633   3.023
77830SOL     OW35328   5.470   6.645   8.717
77830SOL    HW135329   5.530   6.614   8.649
77830SOL    HW235330   5.526   6.667   8.791
77831SOL     OW35331   2.198  10.695  11.486
77831SOL    HW135332   2.217  10.616  11.535
77831SOL    HW235333   2.254  10.762  11.525
77832SOL     OW35334  13.998  14.546  14.213
77832SOL    HW135335  14.035  14.604  14.280
77832SOL    HW235336  13.908  14.575  14.203
77833SOL     OW35337  11.956   9.984   7.910
77833SOL    HW135338  12.040   9.961   7.869
77833SOL    HW235339  11.902   9.905   7.898
77834SOL     OW35340   7.291   5.479   3.061
77834SOL    HW135341   7.365   5.537   3.041
77834SOL    HW235342   7.296   5.411   2.994
77835SOL     OW35343  14.581   3.882   5.284
77835SOL    HW135344  14.642   3.814   5.256
77835SOL    HW235345  14.524   3.838   5.347
77836SOL     OW35346  11.687   7.409   6.850
77836SOL    HW135347  11.713   7.485   6.797
77836SOL    HW235348  11.765   7.354   6.852
77837SOL     OW35349   1.537   2.642  12.440
77837SOL    HW135350   1.528   2.649  12.345
77837SOL    HW235351   1.618   2.593  12.453
77838SOL     OW35352  10.174  14.658   6.923
77838SOL    HW135353  10.126  14.738   6.945
77838SOL    HW235354  10.109  14.603   6.880
77839SOL     OW35355   5.163   5.716   2.892
77839SOL    HW135356   5.131   5.687   2.807
77839SOL    HW235357   5.195   5.637   2.935
77840SOL     OW35358   8.501   0.712  13.681
77840SOL    HW135359   8.500   0.626  13.722
77840SOL    HW235360   8.432   0.708  13.615
77841SOL     OW35361   2.885   7.696  13.507
77841SOL    HW135362   2.905   7.787  13.488
77841SOL    HW235363   2.948   7.646  13.456
77842SOL     OW35364   3.408  11.450  14.623
77842SOL    HW135365   3.366  11.469  14.539
77842SOL    HW235366   3.481  11.392  14.601
77843SOL     OW35367   1.135   9.189   0.586
77843SOL    HW135368   1.120   9.181   0.680
77843SOL    HW235369   1.071   9.252   0.556
77844SOL     OW35370   4.008  14.287   0.902
77844SOL    HW135371   3.984  14.196   0.916
77844SOL    HW235372   4.043  14.316   0.987
77845SOL     OW35373   2.941  14.468   8.401
77845SOL    HW135374   2.994  14.463   8.321
77845SOL    HW235375   2.895  14.552   8.393
77846SOL     OW35376  11.651  14.739   2.667
77846SOL    HW135377  11.668  14.832   2.651
77846SOL    HW235378  11.598  14.711   2.593
77847SOL     OW35379  10.781   8.586  10.564
77847SOL    HW135380  10.803   8.641  10.488
77847SOL    HW235381  10.841   8.614  10.632
77848SOL     OW35382  14.380  13.517   5.610
77848SOL    HW135383  14.475  13.529   5.617
77848SOL    HW235384  14.370  13.427   5.579
77849SOL     OW35385   4.645   4.924  10.059
77849SOL    HW135386   4.584   4.856  10.028
77849SOL    HW235387   4.647   4.913  10.154
77850SOL     OW35388   0.768   1.494  12.225
77850SOL    HW135389   0.807   1.424  12.173
77850SOL    HW235390   0.723   1.550  12.162
77851SOL     OW35391   5.204   7.888   6.093
77851SOL    HW135392   5.228   7.962   6.149
77851SOL    HW235393   5.224   7.919   6.004
77852SOL     OW35394  14.114   9.059  12.667
77852SOL    HW135395  14.183   9.079  12.603
77852SOL    HW235396  14.141   8.977  12.707
77853SOL     OW35397   2.289   1.900   4.706
77853SOL    HW135398   2.291   1.933   4.796
77853SOL    HW235399   2.222   1.831   4.706
77854SOL     OW35400   5.787   1.271   5.521
77854SOL    HW135401   5.820   1.258   5.609
77854SOL    HW235402   5.729   1.347   5.527
77855SOL     OW35403   9.527  11.612   0.866
77855SOL    HW135404   9.601  11.663   0.901
77855SOL    HW235405   9.562  11.523   0.859
77856SOL     OW35406  11.486   5.723   2.029
77856SOL    HW135407  11.565   5.770   2.000
77856SOL    HW235408  11.520   5.640   2.064
77857SOL     OW35409   5.008  11.252  13.396
77857SOL    HW135410   5.089  11.292  13.366
77857SOL    HW235411   5.035  11.174  13.444
77858SOL     OW35412   2.952   1.498   9.884
77858SOL    HW135413   2.858   1.511   9.895
77858SOL    HW235414   2.959   1.415   9.837
77859SOL     OW35415   0.739   3.135  10.811
77859SOL    HW135416   0.761   3.057  10.760
77859SOL    HW235417   0.815   3.193  10.800
77860SOL     OW35418   6.120   8.410   7.602
77860SOL    HW135419   6.055   8.343   7.620
77860SOL    HW235420   6.191   8.363   7.558
77861SOL     OW35421  11.420  11.132   6.956
77861SOL    HW135422  11.482  11.073   6.914
77861SOL    HW235423  11.382  11.080   7.028
77862SOL     OW35424  10.264   5.425   9.928
77862SOL    HW135425  10.198   5.487   9.958
77862SOL    HW235426  10.306   5.394  10.008
77863SOL     OW35427  12.524   0.066  11.482
77863SOL    HW135428  12.541   0.145  11.533
77863SOL    HW235429  12.574  14.871  11.525
77864SOL     OW35430  14.596  14.508   3.662
77864SOL    HW135431  14.550  14.519   3.745
77864SOL    HW235432  14.571  14.421   3.632
77865SOL     OW35433  13.224   0.395   9.127
77865SOL    HW135434  13.165   0.403   9.202
77865SOL    HW235435  13.275   0.316   9.145
77866SOL     OW35436   9.346   9.843  13.594
77866SOL    HW135437   9.393   9.905  13.537
77866SOL    HW235438   9.254   9.852  13.569
77867SOL     OW35439  12.667   0.889   5.155
77867SOL    HW135440  12.728   0.824   5.192
77867SOL    HW235441  12.585   0.875   5.204
77868SOL     OW35442  13.999   1.336   5.806
77868SOL    HW135443  13.936   1.296   5.746
77868SOL    HW235444  14.069   1.368   5.749
77869SOL     OW35445   6.462   9.859   8.545
77869SOL    HW135446   6.461   9.765   8.529
77869SOL    HW235447   6.411   9.896   8.474
77870SOL     OW35448   5.074   6.519   1.921
77870SOL    HW135449   5.060   6.612   1.904
77870SOL    HW235450   5.062   6.510   2.015
77871SOL     OW35451  10.176   7.835   2.434
77871SOL    HW135452  10.145   7.862   2.521
77871SOL    HW235453  10.171   7.914   2.381
77872SOL     OW35454   4.680  11.855  14.024
77872SOL    HW135455   4.651  11.946  14.037
77872SOL    HW235456   4.766  11.852  14.065
77873SOL     OW35457   2.501  10.754   4.293
77873SOL    HW135458   2.431  10.749   4.228
77873SOL    HW235459   2.493  10.841   4.331
77874SOL     OW35460   7.286   9.505   8.244
77874SOL    HW135461   7.237   9.578   8.284
77874SOL    HW235462   7.280   9.435   8.308
77875SOL     OW35463  12.015  10.296   6.379
77875SOL    HW135464  12.056  10.212   6.358
77875SOL    HW235465  12.048  10.357   6.313
77876SOL     OW35466  10.468   7.314   1.685
77876SOL    HW135467  10.407   7.379   1.720
77876SOL    HW235468  10.538   7.310   1.750
77877SOL     OW35469   0.655  10.352  11.234
77877SOL    HW135470   0.732  10.356  11.177
77877SOL    HW235471   0.642  10.442  11.263
77878SOL     OW35472   1.802  10.252  10.575
77878SOL    HW135473   1.711  10.239  10.546
77878SOL    HW235474   1.821  10.174  10.627
77879SOL     OW35475   2.493  12.516   4.515
77879SOL    HW135476   2.574  12.566   4.513
77879SOL    HW235477   2.483  12.490   4.606
77880SOL     OW35478   9.807   2.192  11.441
77880SOL    HW135479   9.842   2.263  11.388
77880SOL    HW235480   9.832   2.214  11.531
77881SOL     OW35481  14.838  11.928   4.806
77881SOL    HW135482  14.751  11.926   4.845
77881SOL    HW235483   0.022  11.954   4.877
77882SOL     OW35484  11.609  10.253   5.905
77882SOL    HW135485  11.620  10.329   5.961
77882SOL    HW235486  11.645  10.279   5.820
77883SOL     OW35487  11.865   4.405   8.171
77883SOL    HW135488  11.897   4.493   8.190
77883SOL    HW235489  11.943   4.350   8.172
77884SOL     OW35490  13.661  13.641   9.455
77884SOL    HW135491  13.598  13.570   9.466
77884SOL    HW235492  13.608  13.719   9.443
77885SOL     OW35493   5.857   9.971   6.320
77885SOL    HW135494   5.949   9.996   6.324
77885SOL    HW235495   5.824  10.014   6.241
77886SOL     OW35496   3.631   7.951   9.573
77886SOL    HW135497   3.574   7.883   9.609
77886SOL    HW235498   3.631   7.934   9.478
77887SOL     OW35499   4.669   7.965  14.749
77887SOL    HW135500   4.714   7.959  14.664
77887SOL    HW235501   4.727   8.017  14.804
77888SOL     OW35502   7.041   3.238  12.003
77888SOL    HW135503   7.040   3.313  11.943
77888SOL    HW235504   6.956   3.242  12.047
77889SOL     OW35505  11.830  10.445  10.099
77889SOL    HW135506  11.812  10.438  10.193
77889SOL    HW235507  11.896  10.377  10.083
77890SOL     OW35508   1.879  13.564  10.232
77890SOL    HW135509   1.974  13.559  10.218
77890SOL    HW235510   1.842  13.519  10.156
77891SOL     OW35511  14.872   3.384   5.005
77891SOL    HW135512  14.790   3.367   4.959
77891SOL    HW235513   0.064   3.335   4.956
77892SOL     OW35514  10.926   0.961  12.089
77892SOL    HW135515  10.911   0.867  12.085
77892SOL    HW235516  11.020   0.971  12.103
77893SOL     OW35517  12.797  11.881   5.027
77893SOL    HW135518  12.780  11.874   5.121
77893SOL    HW235519  12.854  11.957   5.018
77894SOL     OW35520   7.095  10.491   3.233
77894SOL    HW135521   7.130  10.415   3.187
77894SOL    HW235522   7.115  10.475   3.325
77895SOL     OW35523  10.078   4.003   1.961
77895SOL    HW135524  10.009   3.961   2.012
77895SOL    HW235525  10.069   3.966   1.873
77896SOL     OW35526  12.272  14.394   5.616
77896SOL    HW135527  12.268  14.443   5.534
77896SOL    HW235528  12.218  14.445   5.677
77897SOL     OW35529   8.680   0.372   9.574
77897SOL    HW135530   8.676   0.282   9.541
77897SOL    HW235531   8.766   0.378   9.616
77898SOL     OW35532   6.293  11.883   5.390
77898SOL    HW135533   6.294  11.835   5.307
77898SOL    HW235534   6.376  11.929   5.393
77899SOL     OW35535   3.663  12.388   1.068
77899SOL    HW135536   3.570  12.406   1.055
77899SOL    HW235537   3.674  12.296   1.043
77900SOL     OW35538  14.216   5.411  11.695
77900SOL    HW135539  14.159   5.334  11.697
77900SOL    HW235540  14.276   5.398  11.769
77901SOL     OW35541   5.614   7.997  14.741
77901SOL    HW135542   5.600   7.908  14.707
77901SOL    HW235543   5.630   8.050  14.663
77902SOL     OW35544   2.797   6.529   6.074
77902SOL    HW135545   2.874   6.574   6.109
77902SOL    HW235546   2.832   6.473   6.005
77903SOL     OW35547   5.069   3.524   2.683
77903SOL    HW135548   5.092   3.454   2.622
77903SOL    HW235549   4.982   3.552   2.656
77904SOL     OW35550   4.465   8.319   3.775
77904SOL    HW135551   4.386   8.298   3.825
77904SOL    HW235552   4.537   8.294   3.834
77905SOL     OW35553   3.384   1.400  12.010
77905SOL    HW135554   3.417   1.329  11.956
77905SOL    HW235555   3.460   1.432  12.058
77906SOL     OW35556   0.464   2.699   3.345
77906SOL    HW135557   0.523   2.773   3.357
77906SOL    HW235558   0.498   2.652   3.269
77907SOL     OW35559   2.616  13.827   8.445
77907SOL    HW135560   2.683  13.890   8.420
77907SOL    HW235561   2.542  13.881   8.474
77908SOL     OW35562  12.962  14.003  11.811
77908SOL    HW135563  12.918  14.088  11.818
77908SOL    HW235564  12.913  13.945  11.869
77909SOL     OW35565   7.335  11.243   7.078
77909SOL    HW135566   7.385  11.163   7.063
77909SOL    HW235567   7.248  11.224   7.041
77910SOL     OW35568   5.871   2.505   9.076
77910SOL    HW135569   5.803   2.462   9.024
77910SOL    HW235570   5.852   2.598   9.068
77911SOL     OW35571   1.160   9.903   0.466
77911SOL    HW135572   1.212   9.886   0.545
77911SOL    HW235573   1.221   9.948   0.407
77912SOL     OW35574   8.829   4.943   4.223
77912SOL    HW135575   8.815   4.849   4.212
77912SOL    HW235576   8.795   4.981   4.142
77913SOL     OW35577  12.520  10.893   7.167
77913SOL    HW135578  12.458  10.821   7.160
77913SOL    HW235579  12.543  10.896   7.260
77914SOL     OW35580  12.495   0.528   2.860
77914SOL    HW135581  12.512   0.435   2.877
77914SOL    HW235582  12.554   0.574   2.920
77915SOL     OW35583   2.320   0.582   1.909
77915SOL    HW135584   2.339   0.622   1.824
77915SOL    HW235585   2.241   0.626   1.939
77916SOL     OW35586   3.250  10.641   7.659
77916SOL    HW135587   3.256  10.735   7.642
77916SOL    HW235588   3.333  10.605   7.627
77917SOL     OW35589   1.379   2.390   9.812
77917SOL    HW135590   1.456   2.336   9.795
77917SOL    HW235591   1.401   2.476   9.774
77918SOL     OW35592   9.775   4.136   6.848
77918SOL    HW135593   9.823   4.199   6.796
77918SOL    HW235594   9.706   4.104   6.790
77919SOL     OW35595   4.881   3.447   5.636
77919SOL    HW135596   4.811   3.498   5.676
77919SOL    HW235597   4.956   3.506   5.633
77920SOL     OW35598   4.386   3.823   8.392
77920SOL    HW135599   4.358   3.734   8.414
77920SOL    HW235600   4.375   3.830   8.297
77921SOL     OW35601   1.945  14.493  13.722
77921SOL    HW135602   2.030  14.521  13.755
77921SOL    HW235603   1.893  14.573  13.716
77922SOL     OW35604  12.157   5.808  11.031
77922SOL    HW135605  12.229   5.806  10.969
77922SOL    HW235606  12.093   5.746  10.996
77923SOL     OW35607   5.920   9.384   4.774
77923SOL    HW135608   5.921   9.312   4.837
77923SOL    HW235609   5.998   9.435   4.794
77924SOL     OW35610   6.945   4.625   3.457
77924SOL    HW135611   6.968   4.708   3.416
77924SOL    HW235612   7.024   4.572   3.450
77925SOL     OW35613   9.186   2.908   2.190
77925SOL    HW135614   9.265   2.962   2.186
77925SOL    HW235615   9.205   2.834   2.133
77926SOL     OW35616   7.804   9.256  12.924
77926SOL    HW135617   7.855   9.209  12.990
77926SOL    HW235618   7.720   9.211  12.922
77927SOL     OW35619   6.509   7.084  14.680
77927SOL    HW135620   6.439   7.147  14.696
77927SOL    HW235621   6.478   7.002  14.719
77928SOL     OW35622   4.749  14.801  11.288
77928SOL    HW135623   4.765  14.831  11.378
77928SOL    HW235624   4.836  14.784  11.252
77929SOL     OW35625   5.012  11.733   8.913
77929SOL    HW135626   5.014  11.823   8.880
77929SOL    HW235627   4.932  11.728   8.965
77930SOL     OW35628   7.636  10.490   3.813
77930SOL    HW135629   7.651  10.539   3.894
77930SOL    HW235630   7.696  10.529   3.750
77931SOL     OW35631   8.991   0.593   5.008
77931SOL    HW135632   8.953   0.615   4.922
77931SOL    HW235633   8.926   0.624   5.071
77932SOL     OW35634   8.597  14.255   3.954
77932SOL    HW135635   8.537  14.214   4.016
77932SOL    HW235636   8.606  14.192   3.883
77933SOL     OW35637  13.912   3.381   7.509
77933SOL    HW135638  13.951   3.424   7.586
77933SOL    HW235639  13.937   3.438   7.436
77934SOL     OW35640   5.428   7.819   5.714
77934SOL    HW135641   5.405   7.736   5.755
77934SOL    HW235642   5.523   7.824   5.720
77935SOL     OW35643   6.943   9.509   5.215
77935SOL    HW135644   6.868   9.520   5.157
77935SOL    HW235645   6.969   9.598   5.239
77936SOL     OW35646   6.337   5.775   8.318
77936SOL    HW135647   6.407   5.711   8.332
77936SOL    HW235648   6.259   5.732   8.352
77937SOL     OW35649   8.689  11.370   0.131
77937SOL    HW135650   8.756  11.437   0.127
77937SOL    HW235651   8.737  11.287   0.130
77938SOL     OW35652   3.372   9.421  11.393
77938SOL    HW135653   3.386   9.377  11.309
77938SOL    HW235654   3.297   9.376  11.431
77939SOL     OW35655   7.825   6.658   7.933
77939SOL    HW135656   7.790   6.569   7.941
77939SOL    HW235657   7.748   6.712   7.914
77940SOL     OW35658   8.113   4.181   9.407
77940SOL    HW135659   8.177   4.138   9.464
77940SOL    HW235660   8.136   4.273   9.411
77941SOL     OW35661   8.677   0.465  10.977
77941SOL    HW135662   8.759   0.512  10.988
77941SOL    HW235663   8.611   0.534  10.963
77942SOL     OW35664   3.757   8.711   8.660
77942SOL    HW135665   3.694   8.645   8.689
77942SOL    HW235666   3.702   8.783   8.627
77943SOL     OW35667   6.247  14.597   6.302
77943SOL    HW135668   6.342  14.602   6.311
77943SOL    HW235669   6.229  14.639   6.217
77944SOL     OW35670  11.408   8.947  13.506
77944SOL    HW135671  11.499   8.954  13.534
77944SOL    HW235672  11.408   8.973  13.414
77945SOL     OW35673  10.015   7.365  12.077
77945SOL    HW135674  10.005   7.276  12.042
77945SOL    HW235675  10.102   7.365  12.118
77946SOL     OW35676   9.896  11.476  14.656
77946SOL    HW135677   9.862  11.542  14.596
77946SOL    HW235678   9.901  11.396  14.604
77947SOL     OW35679   0.009   2.357  10.271
77947SOL    HW135680   0.083   2.347  10.211
77947SOL    HW235681   0.048   2.376  10.356
77948SOL     OW35682   9.203  12.256   1.884
77948SOL    HW135683   9.109  12.238   1.880
77948SOL    HW235684   9.213  12.315   1.959
77949SOL     OW35685  14.356   2.901   7.866
77949SOL    HW135686  14.302   2.903   7.787
77949SOL    HW235687  14.392   2.990   7.871
77950SOL     OW35688   3.099   9.730   6.886
77950SOL    HW135689   3.152   9.730   6.965
77950SOL    HW235690   3.155   9.688   6.820
77951SOL     OW35691  12.936   7.325  12.765
77951SOL    HW135692  12.840   7.322  12.759
77951SOL    HW235693  12.953   7.367  12.849
77952SOL     OW35694   4.045  14.788   9.514
77952SOL    HW135695   4.133  14.755   9.493
77952SOL    HW235696   4.060  14.873   9.554
77953SOL     OW35697   8.197  14.289   9.494
77953SOL    HW135698   8.107  14.297   9.462
77953SOL    HW235699   8.250  14.326   9.424
77954SOL     OW35700  11.555   9.018   9.930
77954SOL    HW135701  11.639   9.060   9.947
77954SOL    HW235702  11.571   8.925   9.947
77955SOL     OW35703   4.766   5.996   1.264
77955SOL    HW135704   4.795   5.938   1.194
77955SOL    HW235705   4.846   6.013   1.315
77956SOL     OW35706  13.414  10.006  11.572
77956SOL    HW135707  13.377  10.090  11.599
77956SOL    HW235708  13.423   9.957  11.654
77957SOL     OW35709  12.209   5.593   7.565
77957SOL    HW135710  12.168   5.600   7.479
77957SOL    HW235711  12.199   5.680   7.604
77958SOL     OW35712  14.425   1.278   1.890
77958SOL    HW135713  14.337   1.303   1.863
77958SOL    HW235714  14.460   1.229   1.815
77959SOL     OW35715  10.018  11.570   4.684
77959SOL    HW135716  10.061  11.638   4.633
77959SOL    HW235717  10.090  11.527   4.731
77960SOL     OW35718   5.882   1.036   6.746
77960SOL    HW135719   5.819   1.106   6.725
77960SOL    HW235720   5.952   1.081   6.793
77961SOL     OW35721   1.933   7.770   2.774
77961SOL    HW135722   1.854   7.799   2.728
77961SOL    HW235723   1.938   7.827   2.851
77962SOL     OW35724   2.515   7.197  12.542
77962SOL    HW135725   2.539   7.192  12.634
77962SOL    HW235726   2.594   7.170  12.495
77963SOL     OW35727   4.495  12.672  11.016
77963SOL    HW135728   4.461  12.690  11.104
77963SOL    HW235729   4.590  12.685  11.025
77964SOL     OW35730   7.881  13.673  10.784
77964SOL    HW135731   7.976  13.677  10.773
77964SOL    HW235732   7.860  13.740  10.848
77965SOL     OW35733  11.879   2.803  13.338
77965SOL    HW135734  11.938   2.751  13.393
77965SOL    HW235735  11.792   2.787  13.374
77966SOL     OW35736   7.220   8.754   2.124
77966SOL    HW135737   7.310   8.762   2.092
77966SOL    HW235738   7.166   8.766   2.046
77967SOL     OW35739   8.890   5.029   7.659
77967SOL    HW135740   8.808   5.048   7.705
77967SOL    HW235741   8.958   5.036   7.727
77968SOL     OW35742  12.827   9.757   1.286
77968SOL    HW135743  12.798   9.746   1.376
77968SOL    HW235744  12.888   9.830   1.288
77969SOL     OW35745  13.802   4.241  11.064
77969SOL    HW135746  13.748   4.212  11.138
77969SOL    HW235747  13.892   4.239  11.097
77970SOL     OW35748   9.885   9.287   7.501
77970SOL    HW135749   9.907   9.356   7.438
77970SOL    HW235750   9.794   9.264   7.480
77971SOL     OW35751   9.260   2.127   9.333
77971SOL    HW135752   9.210   2.191   9.283
77971SOL    HW235753   9.241   2.147   9.425
77972SOL     OW35754   2.992  11.978  10.425
77972SOL    HW135755   2.985  11.900  10.479
77972SOL    HW235756   3.052  12.035  10.472
77973SOL     OW35757   1.456  10.877   3.406
77973SOL    HW135758   1.370  10.841   3.429
77973SOL    HW235759   1.518  10.823   3.455
77974SOL     OW35760  14.311  10.501  12.941
77974SOL    HW135761  14.302  10.592  12.914
77974SOL    HW235762  14.288  10.451  12.863
77975SOL     OW35763  13.249   9.695   5.078
77975SOL    HW135764  13.216   9.607   5.097
77975SOL    HW235765  13.209   9.718   4.994
77976SOL     OW35766  12.802  11.758  12.833
77976SOL    HW135767  12.761  11.826  12.779
77976SOL    HW235768  12.890  11.748  12.797
77977SOL     OW35769   1.270  11.957  12.090
77977SOL    HW135770   1.300  11.972  12.180
77977SOL    HW235771   1.187  12.005  12.085
77978SOL     OW35772  14.722   8.152   0.176
77978SOL    HW135773  14.763   8.092   0.238
77978SOL    HW235774  14.635   8.167   0.211
77979SOL     OW35775   6.830   7.729   9.596
77979SOL    HW135776   6.782   7.748   9.515
77979SOL    HW235777   6.775   7.665   9.641
77980SOL     OW35778  11.889   8.807   4.928
77980SOL    HW135779  11.833   8.735   4.958
77980SOL    HW235780  11.978   8.770   4.930
77981SOL     OW35781  10.840   6.542   1.496
77981SOL    HW135782  10.856   6.488   1.573
77981SOL    HW235783  10.895   6.620   1.509
77982SOL     OW35784  12.291  10.424  10.868
77982SOL    HW135785  12.338  10.391  10.792
77982SOL    HW235786  12.357  10.430  10.936
77983SOL     OW35787   9.688   4.939  13.496
77983SOL    HW135788   9.656   5.009  13.553
77983SOL    HW235789   9.641   4.950  13.414
77984SOL     OW35790   5.705   4.759  10.627
77984SOL    HW135791   5.785   4.765  10.679
77984SOL    HW235792   5.708   4.835  10.569
77985SOL     OW35793  13.742   0.659   8.658
77985SOL    HW135794  13.670   0.610   8.618
77985SOL    HW235795  13.792   0.694   8.584
77986SOL     OW35796   0.788   5.346   6.201
77986SOL    HW135797   0.853   5.409   6.234
77986SOL    HW235798   0.727   5.334   6.274
77987SOL     OW35799  10.416  10.726   4.975
77987SOL    HW135800  10.450  10.750   4.888
77987SOL    HW235801  10.470  10.651   5.002
77988SOL     OW35802   7.288  13.795  14.244
77988SOL    HW135803   7.246  13.709  14.247
77988SOL    HW235804   7.272  13.827  14.156
77989SOL     OW35805  13.040   6.534  10.751
77989SOL    HW135806  13.020   6.442  10.770
77989SOL    HW235807  13.062   6.535  10.658
77990SOL     OW35808   7.055  12.316  13.459
77990SOL    HW135809   7.107  12.268  13.523
77990SOL    HW235810   7.059  12.262  13.380
77991SOL     OW35811  12.658  10.525  11.927
77991SOL    HW135812  12.582  10.487  11.971
77991SOL    HW235813  12.653  10.618  11.946
77992SOL     OW35814  14.656   1.305   9.399
77992SOL    HW135815  14.605   1.260   9.331
77992SOL    HW235816  14.652   1.247   9.475
77993SOL     OW35817  12.557  11.798   9.707
77993SOL    HW135818  12.556  11.706   9.734
77993SOL    HW235819  12.472  11.831   9.736
77994SOL     OW35820  14.262  11.496  14.507
77994SOL    HW135821  14.219  11.450  14.435
77994SOL    HW235822  14.245  11.589  14.489
77995SOL     OW35823   0.114   2.034  13.842
77995SOL    HW135824   0.081   2.110  13.891
77995SOL    HW235825   0.039   1.974  13.839
77996SOL     OW35826  12.987  14.646  14.070
77996SOL    HW135827  13.006  14.572  14.129
77996SOL    HW235828  13.054  14.711  14.091
77997SOL     OW35829  10.900   3.840  13.471
77997SOL    HW135830  10.832   3.885  13.521
77997SOL    HW235831  10.872   3.749  13.470
77998SOL     OW35832   9.028   5.173   4.232
77998SOL    HW135833   8.989   5.117   4.299
77998SOL    HW235834   9.108   5.127   4.205
77999SOL     OW35835   5.715  11.393  13.918
77999SOL    HW135836   5.654  11.404  13.845
77999SOL    HW235837   5.664  11.417  13.995
78000SOL     OW35838   1.982  14.363   6.538
78000SOL    HW135839   2.023  14.377   6.623
78000SOL    HW235840   2.042  14.305   6.491
78001SOL     OW35841   5.155  14.029   9.015
78001SOL    HW135842   5.166  14.088   8.940
78001SOL    HW235843   5.153  13.941   8.977
78002SOL     OW35844   4.618   4.377  11.940
78002SOL    HW135845   4.533   4.388  11.983
78002SOL    HW235846   4.664   4.459  11.956
78003SOL     OW35847   5.778   1.076   7.364
78003SOL    HW135848   5.855   1.021   7.377
78003SOL    HW235849   5.706   1.024   7.400
78004SOL     OW35850  11.912  10.021  13.730
78004SOL    HW135851  11.966  10.090  13.769
78004SOL    HW235852  11.828  10.028  13.775
78005SOL     OW35853   3.434   0.144  14.400
78005SOL    HW135854   3.420   0.184  14.486
78005SOL    HW235855   3.475   0.059  14.420
78006SOL     OW35856  13.625   4.102   6.598
78006SOL    HW135857  13.601   4.114   6.507
78006SOL    HW235858  13.716   4.070   6.596
78007SOL     OW35859   0.282   1.997   4.051
78007SOL    HW135860   0.334   2.076   4.067
78007SOL    HW235861   0.290   1.947   4.133
78008SOL     OW35862  11.167  10.587  10.052
78008SOL    HW135863  11.156  10.608   9.960
78008SOL    HW235864  11.099  10.637  10.097
78009SOL     OW35865   4.969   8.800  14.508
78009SOL    HW135866   5.014   8.804  14.424
78009SOL    HW235867   4.905   8.729  14.497
78010SOL     OW35868   6.650   1.515   5.616
78010SOL    HW135869   6.594   1.438   5.624
78010SOL    HW235870   6.620   1.573   5.686
78011SOL     OW35871  11.087   3.441   9.731
78011SOL    HW135872  11.008   3.406   9.773
78011SOL    HW235873  11.122   3.366   9.682
78012SOL     OW35874   0.177   6.807   7.662
78012SOL    HW135875   0.239   6.817   7.734
78012SOL    HW235876   0.218   6.742   7.605
78013SOL     OW35877  11.536   4.357   2.514
78013SOL    HW135878  11.446   4.361   2.482
78013SOL    HW235879  11.540   4.425   2.582
78014SOL     OW35880  10.205  11.141  10.198
78014SOL    HW135881  10.269  11.078  10.230
78014SOL    HW235882  10.232  11.159  10.108
78015SOL     OW35883  11.543   8.298  13.706
78015SOL    HW135884  11.471   8.316  13.768
78015SOL    HW235885  11.583   8.218  13.740
78016SOL     OW35886   6.793  12.511  10.023
78016SOL    HW135887   6.873  12.475  10.060
78016SOL    HW235888   6.796  12.490   9.930
78017SOL     OW35889   7.815  10.606  14.208
78017SOL    HW135890   7.816  10.558  14.125
78017SOL    HW235891   7.761  10.553  14.266
78018SOL     OW35892  10.017   3.945   0.400
78018SOL    HW135893  10.021   4.040   0.411
78018SOL    HW235894   9.932   3.930   0.359
78019SOL     OW35895  13.382   5.434  11.142
78019SOL    HW135896  13.415   5.481  11.065
78019SOL    HW235897  13.289   5.419  11.123
78020SOL     OW35898   4.160  11.881   0.471
78020SOL    HW135899   4.142  11.940   0.545
78020SOL    HW235900   4.147  11.935   0.393
78021SOL     OW35901  12.668   8.052   3.317
78021SOL    HW135902  12.622   8.029   3.398
78021SOL    HW235903  12.622   8.003   3.249
78022SOL     OW35904  12.640   5.844   7.095
78022SOL    HW135905  12.607   5.853   7.184
78022SOL    HW235906  12.701   5.770   7.098
78023SOL     OW35907   2.419   6.872   0.846
78023SOL    HW135908   2.480   6.898   0.916
78023SOL    HW235909   2.476   6.854   0.771
78024SOL     OW35910  13.055   2.807   5.709
78024SOL    HW135911  13.035   2.894   5.674
78024SOL    HW235912  13.000   2.748   5.658
78025SOL     OW35913   7.610  10.022  12.253
78025SOL    HW135914   7.535   9.964  12.259
78025SOL    HW235915   7.580  10.104  12.293
78026SOL     OW35916   7.980   6.489   3.485
78026SOL    HW135917   7.970   6.583   3.497
78026SOL    HW235918   8.022   6.480   3.400
78027SOL     OW35919  12.823   0.995   2.460
78027SOL    HW135920  12.786   1.083   2.445
78027SOL    HW235921  12.899   1.011   2.516
78028SOL     OW35922   9.634   6.830   2.392
78028SOL    HW135923   9.609   6.895   2.457
78028SOL    HW235924   9.553   6.780   2.376
78029SOL     OW35925   6.147   2.570  10.969
78029SOL    HW135926   6.200   2.579  11.049
78029SOL    HW235927   6.210   2.577  10.898
78030SOL     OW35928  10.138   4.491   9.048
78030SOL    HW135929  10.046   4.469   9.056
78030SOL    HW235930  10.182   4.436   9.113
78031SOL     OW35931   8.345   0.680  12.175
78031SOL    HW135932   8.269   0.678  12.116
78031SOL    HW235933   8.307   0.677  12.262
78032SOL     OW35934   7.599  14.844  10.617
78032SOL    HW135935   7.682  14.856  10.662
78032SOL    HW235936   7.605  14.757  10.578
78033SOL     OW35937   2.988   4.259   7.051
78033SOL    HW135938   2.958   4.272   6.961
78033SOL    HW235939   3.016   4.168   7.055
78034SOL     OW35940  13.490   9.642   4.554
78034SOL    HW135941  13.485   9.574   4.621
78034SOL    HW235942  13.579   9.677   4.563
78035SOL     OW35943   4.130   3.740   1.195
78035SOL    HW135944   4.146   3.812   1.256
78035SOL    HW235945   4.162   3.772   1.111
78036SOL     OW35946  10.886   7.200   2.204
78036SOL    HW135947  10.940   7.153   2.141
78036SOL    HW235948  10.806   7.222   2.156
78037SOL     OW35949   9.172  11.146   9.287
78037SOL    HW135950   9.187  11.200   9.365
78037SOL    HW235951   9.171  11.057   9.320
78038SOL     OW35952   3.909   2.902   4.744
78038SOL    HW135953   3.990   2.863   4.713
78038SOL    HW235954   3.840   2.853   4.699
78039SOL     OW35955  12.970   9.246   0.286
78039SOL    HW135956  12.881   9.281   0.293
78039SOL    HW235957  13.009   9.261   0.372
78040SOL     OW35958   3.992   6.037  12.849
78040SOL    HW135959   3.918   6.078  12.804
78040SOL    HW235960   3.956   6.004  12.931
78041SOL     OW35961   7.962   2.884   8.180
78041SOL    HW135962   7.953   2.930   8.096
78041SOL    HW235963   7.872   2.865   8.206
78042SOL     OW35964   7.407   1.302   2.243
78042SOL    HW135965   7.429   1.389   2.209
78042SOL    HW235966   7.312   1.296   2.235
78043SOL     OW35967  12.671  13.184   7.754
78043SOL    HW135968  12.630  13.135   7.826
78043SOL    HW235969  12.756  13.211   7.788
78044SOL     OW35970   7.642   9.697   2.150
78044SOL    HW135971   7.592   9.750   2.213
78044SOL    HW235972   7.687   9.762   2.095
78045SOL     OW35973   1.673   1.392  13.146
78045SOL    HW135974   1.763   1.422  13.161
78045SOL    HW235975   1.668   1.308  13.192
78046SOL     OW35976  14.641   8.867   1.559
78046SOL    HW135977  14.550   8.855   1.534
78046SOL    HW235978  14.651   8.961   1.569
78047SOL     OW35979   3.189   2.902   2.163
78047SOL    HW135980   3.105   2.930   2.200
78047SOL    HW235981   3.242   2.981   2.161
78048SOL     OW35982   6.227  10.956  10.726
78048SOL    HW135983   6.230  10.862  10.712
78048SOL    HW235984   6.262  10.969  10.814
78049SOL     OW35985   9.264  14.636   6.105
78049SOL    HW135986   9.287  14.543   6.101
78049SOL    HW235987   9.219  14.646   6.188
78050SOL     OW35988   1.851   0.383   9.420
78050SOL    HW135989   1.779   0.320   9.424
78050SOL    HW235990   1.816   0.456   9.369
78051SOL     OW35991  12.261  10.340   9.737
78051SOL    HW135992  12.175  10.311   9.769
78051SOL    HW235993  12.303  10.260   9.706
78052SOL     OW35994  13.489   8.460   6.013
78052SOL    HW135995  13.544   8.470   6.090
78052SOL    HW235996  13.542   8.408   5.952
78053SOL     OW35997  13.993   0.071   6.358
78053SOL    HW135998  13.943   0.148   6.386
78053SOL    HW235999  14.073   0.075   6.411
78054SOL     OW36000  11.763  11.134   3.883
78054SOL    HW136001  11.768  11.226   3.857
78054SOL    HW236002  11.827  11.125   3.954
78055SOL     OW36003  10.667   5.999   9.796
78055SOL    HW136004  10.718   5.937   9.847
78055SOL    HW236005  10.674   5.967   9.706
78056SOL     OW36006  10.743   2.762   3.821
78056SOL    HW136007  10.690   2.796   3.749
78056SOL    HW236008  10.733   2.667   3.817
78057SOL     OW36009  12.360   5.676  14.453
78057SOL    HW136010  12.396   5.750  14.404
78057SOL    HW236011  12.281   5.712  14.495
78058SOL     OW36012  12.079   9.245   5.238
78058SOL    HW136013  12.006   9.233   5.177
78058SOL    HW236014  12.049   9.311   5.299
78059SOL     OW36015   6.142   8.231   5.464
78059SOL    HW136016   6.050   8.247   5.484
78059SOL    HW236017   6.173   8.173   5.533
78060SOL     OW36018   6.380  13.399   3.041
78060SOL    HW136019   6.303  13.456   3.034
78060SOL    HW236020   6.347  13.322   3.088
78061SOL     OW36021  12.751   1.920   0.477
78061SOL    HW136022  12.692   1.854   0.440
78061SOL    HW236023  12.693   1.983   0.519
78062SOL     OW36024   0.300   6.023   7.650
78062SOL    HW136025   0.310   5.964   7.576
78062SOL    HW236026   0.345   5.979   7.722
78063SOL     OW36027   5.335  10.816   6.522
78063SOL    HW136028   5.283  10.895   6.505
78063SOL    HW236029   5.379  10.834   6.605
78064SOL     OW36030   5.289  14.204   3.179
78064SOL    HW136031   5.272  14.125   3.127
78064SOL    HW236032   5.301  14.171   3.268
78065SOL     OW36033  11.564   4.781   9.739
78065SOL    HW136034  11.619   4.702   9.738
78065SOL    HW236035  11.492   4.761   9.680
78066SOL     OW36036   4.000   2.348   5.849
78066SOL    HW136037   3.989   2.330   5.756
78066SOL    HW236038   4.031   2.439   5.852
78067SOL     OW36039  12.556  10.925   1.735
78067SOL    HW136040  12.593  10.954   1.652
78067SOL    HW236041  12.483  10.984   1.752
78068SOL     OW36042   6.468  10.862   4.328
78068SOL    HW136043   6.395  10.908   4.369
78068SOL    HW236044   6.545  10.916   4.347
78069SOL     OW36045   5.617   0.748   7.702
78069SOL    HW136046   5.606   0.672   7.646
78069SOL    HW236047   5.597   0.717   7.791
78070SOL     OW36048   1.325  10.382   5.547
78070SOL    HW136049   1.246  10.436   5.541
78070SOL    HW236050   1.315  10.317   5.478
78071SOL     OW36051  14.501   0.839  11.064
78071SOL    HW136052  14.594   0.844  11.043
78071SOL    HW236053  14.467   0.771  11.006
78072SOL     OW36054  11.299   6.181  13.596
78072SOL    HW136055  11.318   6.126  13.673
78072SOL    HW236056  11.203   6.180  13.590
78073SOL     OW36057   5.752  12.927   8.973
78073SOL    HW136058   5.831  12.878   8.948
78073SOL    HW236059   5.742  12.993   8.905
78074SOL     OW36060   2.641  14.037   0.672
78074SOL    HW136061   2.558  14.002   0.640
78074SOL    HW236062   2.708  13.982   0.632
78075SOL     OW36063   3.319   0.291   0.804
78075SOL    HW136064   3.330   0.383   0.779
78075SOL    HW236065   3.306   0.245   0.721
78076SOL     OW36066   8.815   3.806  14.060
78076SOL    HW136067   8.734   3.850  14.086
78076SOL    HW236068   8.851   3.861  13.991
78077SOL     OW36069   1.443  13.434   7.112
78077SOL    HW136070   1.388  13.439   7.190
78077SOL    HW236071   1.455  13.526   7.086
78078SOL     OW36072  11.315   0.976   2.656
78078SOL    HW136073  11.313   1.007   2.747
78078SOL    HW236074  11.349   1.050   2.606
78079SOL     OW36075   0.536   2.533   8.490
78079SOL    HW136076   0.444   2.514   8.509
78079SOL    HW236077   0.562   2.596   8.558
78080SOL     OW36078  10.632   6.434   3.969
78080SOL    HW136079  10.593   6.481   3.894
78080SOL    HW236080  10.655   6.503   4.031
78081SOL     OW36081   1.737  14.017   2.877
78081SOL    HW136082   1.681  13.952   2.920
78081SOL    HW236083   1.745  14.088   2.941
78082SOL     OW36084  10.340  13.777  11.265
78082SOL    HW136085  10.340  13.713  11.194
78082SOL    HW236086  10.316  13.859  11.222
78083SOL     OW36087   4.943   1.363   6.962
78083SOL    HW136088   4.923   1.272   6.985
78083SOL    HW236089   5.015   1.357   6.899
78084SOL     OW36090  10.397  13.895   6.399
78084SOL    HW136091  10.437  13.979   6.423
78084SOL    HW236092  10.330  13.880   6.466
78085SOL     OW36093   1.184   7.476   0.580
78085SOL    HW136094   1.115   7.542   0.570
78085SOL    HW236095   1.225   7.470   0.493
78086SOL     OW36096   7.269   7.690   3.065
78086SOL    HW136097   7.295   7.636   2.991
78086SOL    HW236098   7.240   7.628   3.132
78087SOL     OW36099   2.159   5.398   7.834
78087SOL    HW136100   2.137   5.357   7.917
78087SOL    HW236101   2.079   5.390   7.782
78088SOL     OW36102   2.164   1.547   3.485
78088SOL    HW136103   2.165   1.493   3.564
78088SOL    HW236104   2.225   1.619   3.504
78089SOL     OW36105   0.304   4.770   7.880
78089SOL    HW136106   0.394   4.793   7.902
78089SOL    HW236107   0.292   4.801   7.791
78090SOL     OW36108  13.599   1.701   0.077
78090SOL    HW136109  13.667   1.753   0.033
78090SOL    HW236110  13.565   1.759   0.145
78091SOL     OW36111   5.831  14.729   8.531
78091SOL    HW136112   5.865  14.659   8.475
78091SOL    HW236113   5.792  14.792   8.470
78092SOL     OW36114  10.655  11.920   0.581
78092SOL    HW136115  10.602  11.991   0.617
78092SOL    HW236116  10.592  11.863   0.537
78093SOL     OW36117  13.901   4.752   9.025
78093SOL    HW136118  13.890   4.690   8.953
78093SOL    HW236119  13.996   4.761   9.035
78094SOL     OW36120   4.012   0.456   7.428
78094SOL    HW136121   4.021   0.399   7.503
78094SOL    HW236122   3.918   0.473   7.422
78095SOL     OW36123   4.726   7.563   7.099
78095SOL    HW136124   4.781   7.627   7.144
78095SOL    HW236125   4.644   7.562   7.148
78096SOL     OW36126   7.846   2.568   8.426
78096SOL    HW136127   7.833   2.516   8.506
78096SOL    HW236128   7.864   2.656   8.457
78097SOL     OW36129  11.294  10.700  13.521
78097SOL    HW136130  11.270  10.730  13.609
78097SOL    HW236131  11.390  10.706  13.519
78098SOL     OW36132  13.127  14.744   4.169
78098SOL    HW136133  13.072  14.819   4.147
78098SOL    HW236134  13.207  14.783   4.205
78099SOL     OW36135   0.106   9.377   7.236
78099SOL    HW136136   0.161   9.405   7.163
78099SOL    HW236137   0.114   9.282   7.237
78100SOL     OW36138  14.135   9.970   3.298
78100SOL    HW136139  14.152  10.051   3.347
78100SOL    HW236140  14.088  10.000   3.220
78101SOL     OW36141   8.632  11.860   4.492
78101SOL    HW136142   8.635  11.953   4.515
78101SOL    HW236143   8.577  11.856   4.414
78102SOL     OW36144   9.988   4.822  12.491
78102SOL    HW136145   9.909   4.807  12.440
78102SOL    HW236146  10.056   4.840  12.425
78103SOL     OW36147   0.161   9.253   5.126
78103SOL    HW136148   0.247   9.246   5.083
78103SOL    HW236149   0.099   9.222   5.060
78104SOL     OW36150   9.389   8.327  14.328
78104SOL    HW136151   9.349   8.407  14.295
78104SOL    HW236152   9.375   8.262  14.259
78105SOL     OW36153   8.554   5.601   4.338
78105SOL    HW136154   8.604   5.665   4.287
78105SOL    HW236155   8.465   5.607   4.303
78106SOL     OW36156   3.376   5.885   1.544
78106SOL    HW136157   3.327   5.818   1.495
78106SOL    HW236158   3.443   5.915   1.483
78107SOL     OW36159  13.165  14.011  13.489
78107SOL    HW136160  13.186  14.089  13.437
78107SOL    HW236161  13.076  13.988  13.461
78108SOL     OW36162   2.129   6.537   9.794
78108SOL    HW136163   2.161   6.447   9.793
78108SOL    HW236164   2.205   6.590   9.818
78109SOL     OW36165   7.748   7.568   0.308
78109SOL    HW136166   7.718   7.506   0.242
78109SOL    HW236167   7.783   7.512   0.378
78110SOL     OW36168   2.134   0.563   2.561
78110SOL    HW136169   2.183   0.645   2.571
78110SOL    HW236170   2.042   0.589   2.566
78111SOL     OW36171   8.927  11.081   1.217
78111SOL    HW136172   8.835  11.083   1.241
78111SOL    HW236173   8.970  11.137   1.281
78112SOL     OW36174  14.478   2.489   2.282
78112SOL    HW136175  14.480   2.397   2.307
78112SOL    HW236176  14.410   2.495   2.215
78113SOL     OW36177  12.921  12.997   7.691
78113SOL    HW136178  13.013  13.021   7.684
78113SOL    HW236179  12.881  13.067   7.743
78114SOL     OW36180   1.487   1.784   8.025
78114SOL    HW136181   1.483   1.864   8.078
78114SOL    HW236182   1.415   1.730   8.057
78115SOL     OW36183  13.367  10.812   8.052
78115SOL    HW136184  13.455  10.828   8.086
78115SOL    HW236185  13.381  10.764   7.971
78116SOL     OW36186  12.246   4.055   8.708
78116SOL    HW136187  12.282   4.041   8.795
78116SOL    HW236188  12.314   4.102   8.660
78117SOL     OW36189   3.882   0.143   2.511
78117SOL    HW136190   3.824   0.192   2.454
78117SOL    HW236191   3.858   0.171   2.600
78118SOL     OW36192  10.316   3.551  13.221
78118SOL    HW136193  10.223   3.566  13.207
78118SOL    HW236194  10.359   3.586  13.143
78119SOL     OW36195  10.234  14.372  10.710
78119SOL    HW136196  10.140  14.380  10.723
78119SOL    HW236197  10.255  14.437  10.642
78120SOL     OW36198   3.552   8.493  13.772
78120SOL    HW136199   3.558   8.589  13.773
78120SOL    HW236200   3.533   8.469  13.863
78121SOL     OW36201  11.988   5.344  14.525
78121SOL    HW136202  11.904   5.325  14.483
78121SOL    HW236203  12.051   5.291  14.478
78122SOL     OW36204   5.328  11.411   2.549
78122SOL    HW136205   5.267  11.339   2.564
78122SOL    HW236206   5.275  11.480   2.509
78123SOL     OW36207   3.953   0.933   4.888
78123SOL    HW136208   4.040   0.906   4.858
78123SOL    HW236209   3.942   1.021   4.854
78124SOL     OW36210  11.333   8.529   5.047
78124SOL    HW136211  11.362   8.556   4.960
78124SOL    HW236212  11.399   8.564   5.106
78125SOL     OW36213   0.177   5.740   9.272
78125SOL    HW136214   0.237   5.764   9.344
78125SOL    HW236215   0.185   5.645   9.265
78126SOL     OW36216  10.933   7.464  14.417
78126SOL    HW136217  10.993   7.430  14.483
78126SOL    HW236218  10.872   7.519  14.467
78127SOL     OW36219   5.086   7.137  10.123
78127SOL    HW136220   5.077   7.230  10.102
78127SOL    HW236221   5.033   7.125  10.202
78128SOL     OW36222  12.046   8.180   5.123
78128SOL    HW136223  12.015   8.244   5.059
78128SOL    HW236224  12.055   8.230   5.204
78129SOL     OW36225  10.876  14.612   4.263
78129SOL    HW136226  10.957  14.657   4.286
78129SOL    HW236227  10.814  14.682   4.243
78130SOL     OW36228   0.197   6.731  11.059
78130SOL    HW136229   0.108   6.700  11.074
78130SOL    HW236230   0.252   6.660  11.094
78131SOL     OW36231  10.691   4.404   8.847
78131SOL    HW136232  10.730   4.317   8.840
78131SOL    HW236233  10.736   4.445   8.921
78132SOL     OW36234  11.427   4.098  10.500
78132SOL    HW136235  11.411   4.149  10.580
78132SOL    HW236236  11.433   4.008  10.530
78133SOL     OW36237  10.904   1.378   8.250
78133SOL    HW136238  10.839   1.380   8.179
78133SOL    HW236239  10.988   1.380   8.205
78134SOL     OW36240   2.018   2.023  12.198
78134SOL    HW136241   2.056   1.979  12.123
78134SOL    HW236242   2.092   2.066  12.241
78135SOL     OW36243   2.672  13.612   1.943
78135SOL    HW136244   2.674  13.535   1.999
78135SOL    HW236245   2.672  13.577   1.854
78136SOL     OW36246   3.740  12.096  14.363
78136SOL    HW136247   3.833  12.117  14.350
78136SOL    HW236248   3.723  12.025  14.301
78137SOL     OW36249   1.412   1.730  13.497
78137SOL    HW136250   1.337   1.715  13.439
78137SOL    HW236251   1.396   1.816  13.535
78138SOL     OW36252  10.072  10.969   4.157
78138SOL    HW136253  10.046  11.006   4.072
78138SOL    HW236254  10.163  10.942   4.144
78139SOL     OW36255  14.183   9.123   4.060
78139SOL    HW136256  14.096   9.099   4.028
78139SOL    HW236257  14.244   9.076   4.003
78140SOL     OW36258   0.283  13.609   9.509
78140SOL    HW136259   0.335  13.577   9.582
78140SOL    HW236260   0.207  13.551   9.504
78141SOL     OW36261   2.606   8.893   2.776
78141SOL    HW136262   2.579   8.821   2.719
78141SOL    HW236263   2.523   8.933   2.804
78142SOL     OW36264   7.091   4.467   2.445
78142SOL    HW136265   7.119   4.376   2.454
78142SOL    HW236266   7.144   4.514   2.509
78143SOL     OW36267   0.588  12.685   3.587
78143SOL    HW136268   0.576  12.747   3.515
78143SOL    HW236269   0.567  12.600   3.549
78144SOL     OW36270   7.428   7.432   8.784
78144SOL    HW136271   7.520   7.439   8.761
78144SOL    HW236272   7.395   7.522   8.777
78145SOL     OW36273   7.779   9.898   7.354
78145SOL    HW136274   7.733   9.814   7.349
78145SOL    HW236275   7.867   9.876   7.382
78146SOL     OW36276   6.552   9.642   0.454
78146SOL    HW136277   6.646   9.636   0.470
78146SOL    HW236278   6.512   9.599   0.530
78147SOL     OW36279   0.959   0.102   3.183
78147SOL    HW136280   0.950   0.075   3.092
78147SOL    HW236281   0.874   0.085   3.222
78148SOL     OW36282   5.825   9.820   4.111
78148SOL    HW136283   5.730   9.825   4.118
78148SOL    HW236284   5.856   9.835   4.201
78149SOL     OW36285  13.929   1.539   1.402
78149SOL    HW136286  13.925   1.606   1.471
78149SOL    HW236287  14.012   1.494   1.417
78150SOL     OW36288   3.823  10.884  13.123
78150SOL    HW136289   3.826  10.979  13.133
78150SOL    HW236290   3.887  10.851  13.186
78151SOL     OW36291   4.938   3.710   5.123
78151SOL    HW136292   4.944   3.635   5.063
78151SOL    HW236293   4.848   3.707   5.156
78152SOL     OW36294   4.763   0.680   4.796
78152SOL    HW136295   4.809   0.621   4.856
78152SOL    HW236296   4.722   0.744   4.854
78153SOL     OW36297   9.643   9.817  11.549
78153SOL    HW136298   9.599   9.847  11.629
78153SOL    HW236299   9.708   9.754  11.579
78154SOL     OW36300   6.470  13.677   1.279
78154SOL    HW136301   6.447  13.763   1.246
78154SOL    HW236302   6.470  13.687   1.374
78155SOL     OW36303   4.892  12.756   1.289
78155SOL    HW136304   4.929  12.711   1.365
78155SOL    HW236305   4.797  12.754   1.304
78156SOL     OW36306   2.347   9.076   4.134
78156SOL    HW136307   2.442   9.084   4.119
78156SOL    HW236308   2.309   9.151   4.088
78157SOL     OW36309  10.736  12.039  13.174
78157SOL    HW136310  10.718  12.000  13.088
78157SOL    HW236311  10.727  12.133  13.160
78158SOL     OW36312  14.076   5.007   9.285
78158SOL    HW136313  14.053   4.914   9.281
78158SOL    HW236314  14.140   5.019   9.215
78159SOL     OW36315   1.881  11.681   3.962
78159SOL    HW136316   1.895  11.589   3.982
78159SOL    HW236317   1.952  11.727   4.007
78160SOL     OW36318   8.751   4.471   0.649
78160SOL    HW136319   8.793   4.454   0.733
78160SOL    HW236320   8.823   4.487   0.588
78161SOL     OW36321  11.088   7.036  12.922
78161SOL    HW136322  11.168   6.995  12.957
78161SOL    HW236323  11.094   7.127  12.950
78162SOL     OW36324   4.681  10.139   2.256
78162SOL    HW136325   4.719  10.178   2.177
78162SOL    HW236326   4.587  10.136   2.238
78163SOL     OW36327  10.571   4.350  10.060
78163SOL    HW136328  10.512   4.275  10.068
78163SOL    HW236329  10.653   4.320  10.099
78164SOL     OW36330   2.643   2.239  14.252
78164SOL    HW136331   2.618   2.150  14.277
78164SOL    HW236332   2.598   2.295  14.316
78165SOL     OW36333  13.076   9.008  10.579
78165SOL    HW136334  13.016   8.947  10.624
78165SOL    HW236335  13.134   8.951  10.529
78166SOL     OW36336   3.974   3.620   2.002
78166SOL    HW136337   3.976   3.620   2.097
78166SOL    HW236338   3.909   3.686   1.978
78167SOL     OW36339   7.985   3.350  12.875
78167SOL    HW136340   7.978   3.255  12.880
78167SOL    HW236341   8.053   3.365  12.809
78168SOL     OW36342  14.601   8.759   0.514
78168SOL    HW136343  14.581   8.697   0.444
78168SOL    HW236344  14.632   8.837   0.468
78169SOL     OW36345   7.320   1.111   4.749
78169SOL    HW136346   7.275   1.029   4.768
78169SOL    HW236347   7.250   1.172   4.725
78170SOL     OW36348   2.123   8.369  10.791
78170SOL    HW136349   2.127   8.408  10.878
78170SOL    HW236350   2.206   8.324  10.780
78171SOL     OW36351  10.742   0.201   0.813
78171SOL    HW136352  10.802   0.129   0.792
78171SOL    HW236353  10.798   0.271   0.846
78172SOL     OW36354   0.425   4.767   9.669
78172SOL    HW136355   0.345   4.720   9.645
78172SOL    HW236356   0.433   4.753   9.764
78173SOL     OW36357  11.845   7.437   9.106
78173SOL    HW136358  11.880   7.348   9.105
78173SOL    HW236359  11.922   7.493   9.118
78174SOL     OW36360   8.188   9.704   2.605
78174SOL    HW136361   8.135   9.644   2.552
78174SOL    HW236362   8.144   9.708   2.689
78175SOL     OW36363   0.110  10.046  13.617
78175SOL    HW136364   0.123  10.123  13.562
78175SOL    HW236365   0.025  10.060  13.659
78176SOL     OW36366  13.127   9.750  14.195
78176SOL    HW136367  13.171   9.691  14.255
78176SOL    HW236368  13.103   9.695  14.120
78177SOL     OW36369   1.033  12.259   4.880
78177SOL    HW136370   1.121  12.278   4.848
78177SOL    HW236371   1.028  12.306   4.963
78178SOL     OW36372   0.157  11.813   5.233
78178SOL    HW136373   0.072  11.780   5.263
78178SOL    HW236374   0.214  11.807   5.310
78179SOL     OW36375   7.190   1.642   0.354
78179SOL    HW136376   7.226   1.637   0.443
78179SOL    HW236377   7.165   1.553   0.333
78180SOL     OW36378   1.568   7.912   6.868
78180SOL    HW136379   1.654   7.894   6.906
78180SOL    HW236380   1.576   8.001   6.832
78181SOL     OW36381   5.115   1.669  12.200
78181SOL    HW136382   5.122   1.598  12.136
78181SOL    HW236383   5.195   1.661  12.252
78182SOL     OW36384   2.097  10.730   3.602
78182SOL    HW136385   2.079  10.683   3.683
78182SOL    HW236386   2.022  10.711   3.546
78183SOL     OW36387  11.319   1.063   3.592
78183SOL    HW136388  11.375   1.140   3.598
78183SOL    HW236389  11.374   0.991   3.624
78184SOL     OW36390  14.052   8.126  14.772
78184SOL    HW136391  14.025   8.177  14.696
78184SOL    HW236392  14.143   8.151  14.787
78185SOL     OW36393   9.792   4.222   1.936
78185SOL    HW136394   9.851   4.207   2.010
78185SOL    HW236395   9.705   4.206   1.972
78186SOL     OW36396  10.286   8.392  12.777
78186SOL    HW136397  10.246   8.342  12.848
78186SOL    HW236398  10.219   8.393  12.708
78187SOL     OW36399   9.796   0.534   3.025
78187SOL    HW136400   9.729   0.562   2.962
78187SOL    HW236401   9.752   0.538   3.110
78188SOL     OW36402   3.662   4.303   4.586
78188SOL    HW136403   3.576   4.342   4.601
78188SOL    HW236404   3.696   4.285   4.674
78189SOL     OW36405  10.875  11.958  13.426
78189SOL    HW136406  10.813  11.937  13.496
78189SOL    HW236407  10.820  11.975  13.350
78190SOL     OW36408   4.208  11.553   8.299
78190SOL    HW136409   4.283  11.610   8.282
78190SOL    HW236410   4.246  11.469   8.323
78191SOL     OW36411   6.386   1.889   5.832
78191SOL    HW136412   6.447   1.932   5.891
78191SOL    HW236413   6.304   1.938   5.842
78192SOL     OW36414  11.698   9.236   0.615
78192SOL    HW136415  11.728   9.208   0.529
78192SOL    HW236416  11.729   9.168   0.675
78193SOL     OW36417  11.982   3.220   1.431
78193SOL    HW136418  11.951   3.155   1.494
78193SOL    HW236419  11.945   3.192   1.347
78194SOL     OW36420   1.008   7.321   2.533
78194SOL    HW136421   0.995   7.397   2.476
78194SOL    HW236422   0.941   7.258   2.506
78195SOL     OW36423  10.396   7.396  13.893
78195SOL    HW136424  10.397   7.341  13.815
78195SOL    HW236425  10.475   7.371  13.941
78196SOL     OW36426   2.020  10.633   2.028
78196SOL    HW136427   2.067  10.657   2.108
78196SOL    HW236428   1.935  10.675   2.036
78197SOL     OW36429   2.190   0.988   0.682
78197SOL    HW136430   2.285   0.989   0.669
78197SOL    HW236431   2.164   1.080   0.675
78198SOL     OW36432   1.710  10.733   1.510
78198SOL    HW136433   1.712  10.800   1.579
78198SOL    HW236434   1.797  10.694   1.511
78199SOL     OW36435   7.397   8.896   1.901
78199SOL    HW136436   7.349   8.817   1.876
78199SOL    HW236437   7.338   8.968   1.880
78200SOL     OW36438   7.884   4.591   6.106
78200SOL    HW136439   7.958   4.582   6.046
78200SOL    HW236440   7.923   4.592   6.193
78201SOL     OW36441   1.427  11.076   9.036
78201SOL    HW136442   1.409  11.168   9.054
78201SOL    HW236443   1.405  11.065   8.943
78202SOL     OW36444  12.207   5.810   0.840
78202SOL    HW136445  12.194   5.855   0.924
78202SOL    HW236446  12.255   5.873   0.786
78203SOL     OW36447  12.978   7.587   6.746
78203SOL    HW136448  12.946   7.509   6.700
78203SOL    HW236449  13.016   7.553   6.827
78204SOL     OW36450   7.179   7.818  11.895
78204SOL    HW136451   7.144   7.752  11.954
78204SOL    HW236452   7.103   7.851  11.848
78205SOL     OW36453   1.815   9.122   1.368
78205SOL    HW136454   1.807   9.217   1.380
78205SOL    HW236455   1.754   9.085   1.431
78206SOL     OW36456  13.085  12.199   2.374
78206SOL    HW136457  12.999  12.161   2.352
78206SOL    HW236458  13.085  12.204   2.469
78207SOL     OW36459  14.274   4.876   0.728
78207SOL    HW136460  14.247   4.904   0.640
78207SOL    HW236461  14.366   4.854   0.718
78208SOL     OW36462   5.150   0.604   3.197
78208SOL    HW136463   5.211   0.607   3.270
78208SOL    HW236464   5.157   0.691   3.157
78209SOL     OW36465   1.592   4.171   0.508
78209SOL    HW136466   1.632   4.084   0.499
78209SOL    HW236467   1.588   4.187   0.602
78210SOL     OW36468  11.474  14.002   2.622
78210SOL    HW136469  11.490  14.077   2.564
78210SOL    HW236470  11.433  13.936   2.566
78211SOL     OW36471  14.120   1.670  11.876
78211SOL    HW136472  14.123   1.735  11.806
78211SOL    HW236473  14.212   1.653  11.896
78212SOL     OW36474   9.024   1.578   8.403
78212SOL    HW136475   9.046   1.664   8.439
78212SOL    HW236476   9.073   1.516   8.457
78213SOL     OW36477   8.770   4.460  10.534
78213SOL    HW136478   8.814   4.485  10.453
78213SOL    HW236479   8.697   4.521  10.542
78214SOL     OW36480  12.705  14.165  12.352
78214SOL    HW136481  12.685  14.239  12.409
78214SOL    HW236482  12.645  14.096  12.379
78215SOL     OW36483   9.872   4.834   8.890
78215SOL    HW136484   9.960   4.829   8.926
78215SOL    HW236485   9.816   4.790   8.954
78216SOL     OW36486  12.294  11.693   6.419
78216SOL    HW136487  12.280  11.725   6.330
78216SOL    HW236488  12.349  11.616   6.408
78217SOL     OW36489   8.553  12.311   6.075
78217SOL    HW136490   8.610  12.365   6.020
78217SOL    HW236491   8.474  12.363   6.088
78218SOL     OW36492  10.347  12.302   7.171
78218SOL    HW136493  10.423  12.263   7.214
78218SOL    HW236494  10.311  12.230   7.118
78219SOL     OW36495  14.708   4.066   4.309
78219SOL    HW136496  14.658   4.020   4.242
78219SOL    HW236497  14.656   4.055   4.389
78220SOL     OW36498  13.156   8.145   3.388
78220SOL    HW136499  13.097   8.215   3.362
78220SOL    HW236500  13.126   8.119   3.476
78221SOL     OW36501  14.524  12.128   7.515
78221SOL    HW136502  14.584  12.054   7.506
78221SOL    HW236503  14.437  12.089   7.509
78222SOL     OW36504   2.491   4.927  14.796
78222SOL    HW136505   2.451   4.932  14.709
78222SOL    HW236506   2.434   4.866  14.844
78223SOL     OW36507   8.433  13.798   5.410
78223SOL    HW136508   8.529  13.800   5.413
78223SOL    HW236509   8.406  13.828   5.497
78224SOL     OW36510  13.270  14.610  11.063
78224SOL    HW136511  13.267  14.654  10.978
78224SOL    HW236512  13.349  14.643  11.105
78225SOL     OW36513   1.853   9.194   7.474
78225SOL    HW136514   1.890   9.125   7.528
78225SOL    HW236515   1.771   9.218   7.517
78226SOL     OW36516  10.456   3.987   1.391
78226SOL    HW136517  10.464   3.898   1.425
78226SOL    HW236518  10.546   4.011   1.367
78227SOL     OW36519  12.142   3.147   8.049
78227SOL    HW136520  12.150   3.099   7.966
78227SOL    HW236521  12.059   3.117   8.086
78228SOL     OW36522  13.382  13.643   0.187
78228SOL    HW136523  13.306  13.588   0.170
78228SOL    HW236524  13.354  13.731   0.162
78229SOL     OW36525  13.787   4.960   8.388
78229SOL    HW136526  13.706   4.991   8.430
78229SOL    HW236527  13.807   4.878   8.434
78230SOL     OW36528  13.847   1.094   4.274
78230SOL    HW136529  13.927   1.060   4.314
78230SOL    HW236530  13.778   1.037   4.308
78231SOL     OW36531  12.673   3.079   3.641
78231SOL    HW136532  12.728   3.014   3.684
78231SOL    HW236533  12.635   3.129   3.713
78232SOL     OW36534   4.710   5.442  11.503
78232SOL    HW136535   4.636   5.454  11.563
78232SOL    HW236536   4.719   5.348  11.495
78233SOL     OW36537   1.489  10.158   6.500
78233SOL    HW136538   1.534  10.115   6.427
78233SOL    HW236539   1.428  10.218   6.458
78234SOL     OW36540   4.240   2.006   1.270
78234SOL    HW136541   4.189   2.077   1.310
78234SOL    HW236542   4.329   2.041   1.264
78235SOL     OW36543   0.263   9.783  14.164
78235SOL    HW136544   0.198   9.761  14.230
78235SOL    HW236545   0.226   9.750  14.082
78236SOL     OW36546   5.725  10.071   5.795
78236SOL    HW136547   5.766   9.984   5.794
78236SOL    HW236548   5.631  10.052   5.803
78237SOL     OW36549   7.649  12.147   4.852
78237SOL    HW136550   7.731  12.178   4.813
78237SOL    HW236551   7.677  12.084   4.918
78238SOL     OW36552  13.368   3.645  11.725
78238SOL    HW136553  13.285   3.634  11.678
78238SOL    HW236554  13.386   3.739  11.720
78239SOL     OW36555  11.381   9.417  14.047
78239SOL    HW136556  11.420   9.456  14.125
78239SOL    HW236557  11.377   9.489  13.984
78240SOL     OW36558   9.819  12.151   4.800
78240SOL    HW136559   9.748  12.093   4.828
78240SOL    HW236560   9.821  12.219   4.867
78241SOL     OW36561   3.542   8.030  13.862
78241SOL    HW136562   3.506   8.057  13.946
78241SOL    HW236563   3.616   7.974  13.885
78242SOL     OW36564  14.663   7.454   7.098
78242SOL    HW136565  14.616   7.376   7.128
78242SOL    HW236566  14.606   7.491   7.030
78243SOL     OW36567   1.075   0.828   8.346
78243SOL    HW136568   1.055   0.886   8.419
78243SOL    HW236569   0.993   0.823   8.296
78244SOL     OW36570   3.031   0.305   1.569
78244SOL    HW136571   3.013   0.302   1.663
78244SOL    HW236572   2.950   0.339   1.530
78245SOL     OW36573   2.374   3.185  12.063
78245SOL    HW136574   2.364   3.134  12.143
78245SOL    HW236575   2.326   3.266  12.081
78246SOL     OW36576   4.439  12.408  14.618
78246SOL    HW136577   4.361  12.440  14.573
78246SOL    HW236578   4.502  12.480  14.610
78247SOL     OW36579  12.965  12.472   0.065
78247SOL    HW136580  12.941  12.535   0.132
78247SOL    HW236581  13.021  12.409   0.109
78248SOL     OW36582   8.378  13.006   1.926
78248SOL    HW136583   8.372  13.034   2.017
78248SOL    HW236584   8.426  13.076   1.882
78249SOL     OW36585   0.567  14.400   3.128
78249SOL    HW136586   0.549  14.492   3.110
78249SOL    HW236587   0.481  14.363   3.150
78250SOL     OW36588  10.231  14.444   5.962
78250SOL    HW136589  10.217  14.349   5.965
78250SOL    HW236590  10.324  14.455   5.979
78251SOL     OW36591  14.612  14.230  12.030
78251SOL    HW136592  14.663  14.288  12.087
78251SOL    HW236593  14.649  14.143  12.045
78252SOL     OW36594  14.480   3.382   3.867
78252SOL    HW136595  14.437   3.468   3.869
78252SOL    HW236596  14.421   3.325   3.917
78253SOL     OW36597   0.500   9.861  14.728
78253SOL    HW136598   0.440   9.896  14.794
78253SOL    HW236599   0.565   9.811  14.779
78254SOL     OW36600   2.075   7.651   4.211
78254SOL    HW136601   2.091   7.740   4.243
78254SOL    HW236602   2.091   7.595   4.287
78255SOL     OW36603  13.155  13.154  10.678
78255SOL    HW136604  13.184  13.216  10.745
78255SOL    HW236605  13.063  13.137  10.698
78256SOL     OW36606   6.580   5.300   8.848
78256SOL    HW136607   6.659   5.253   8.876
78256SOL    HW236608   6.608   5.349   8.771
78257SOL     OW36609   3.900   9.364   3.818
78257SOL    HW136610   3.904   9.335   3.727
78257SOL    HW236611   3.975   9.423   3.827
78258SOL     OW36612   0.792   3.615   4.642
78258SOL    HW136613   0.845   3.563   4.702
78258SOL    HW236614   0.745   3.677   4.699
78259SOL     OW36615   8.149   4.878   1.536
78259SOL    HW136616   8.104   4.909   1.615
78259SOL    HW236617   8.082   4.883   1.467
78260SOL     OW36618  13.046  10.105   2.802
78260SOL    HW136619  13.017  10.124   2.891
78260SOL    HW236620  12.993  10.030   2.775
78261SOL     OW36621   4.352   8.610   0.581
78261SOL    HW136622   4.410   8.685   0.594
78261SOL    HW236623   4.355   8.562   0.664
78262SOL     OW36624  12.959  14.061   8.961
78262SOL    HW136625  12.986  13.992   8.901
78262SOL    HW236626  12.921  14.015   9.036
78263SOL     OW36627   2.189  14.131  12.803
78263SOL    HW136628   2.170  14.037  12.807
78263SOL    HW236629   2.142  14.161  12.726
78264SOL     OW36630   6.942  14.427   6.974
78264SOL    HW136631   6.894  14.431   7.056
78264SOL    HW236632   7.008  14.496   6.981
78265SOL     OW36633  12.657   6.981   1.994
78265SOL    HW136634  12.719   6.908   1.987
78265SOL    HW236635  12.696   7.040   2.059
78266SOL     OW36636   8.716  12.992   4.312
78266SOL    HW136637   8.743  12.901   4.298
78266SOL    HW236638   8.656  12.987   4.386
78267SOL     OW36639   5.410  13.262   3.706
78267SOL    HW136640   5.340  13.202   3.679
78267SOL    HW236641   5.380  13.348   3.678
78268SOL     OW36642   5.006  10.827   8.656
78268SOL    HW136643   5.088  10.833   8.705
78268SOL    HW236644   4.996  10.733   8.638
78269SOL     OW36645   5.299   5.012  10.044
78269SOL    HW136646   5.247   5.032   9.966
78269SOL    HW236647   5.378   5.066  10.035
78270SOL     OW36648   6.733   0.471   3.676
78270SOL    HW136649   6.645   0.458   3.710
78270SOL    HW236650   6.778   0.389   3.693
78271SOL     OW36651  13.115   1.676  12.420
78271SOL    HW136652  13.041   1.736  12.421
78271SOL    HW236653  13.078   1.591  12.446
78272SOL     OW36654   8.398   9.555  12.053
78272SOL    HW136655   8.450   9.475  12.061
78272SOL    HW236656   8.365   9.571  12.141
78273SOL     OW36657   8.203   2.746   5.693
78273SOL    HW136658   8.270   2.776   5.632
78273SOL    HW236659   8.120   2.757   5.646
78274SOL     OW36660   4.093   7.592  10.174
78274SOL    HW136661   4.042   7.670  10.156
78274SOL    HW236662   4.151   7.617  10.246
78275SOL     OW36663   7.999   5.443   6.839
78275SOL    HW136664   7.987   5.395   6.921
78275SOL    HW236665   7.961   5.529   6.857
78276SOL     OW36666   4.159  14.626  13.022
78276SOL    HW136667   4.117  14.632  13.108
78276SOL    HW236668   4.126  14.702  12.974
78277SOL     OW36669   0.862  12.468   1.641
78277SOL    HW136670   0.830  12.474   1.731
78277SOL    HW236671   0.787  12.494   1.587
78278SOL     OW36672  12.879  13.001   4.107
78278SOL    HW136673  12.829  12.987   4.026
78278SOL    HW236674  12.877  12.916   4.151
78279SOL     OW36675  13.026  11.887  11.562
78279SOL    HW136676  12.987  11.893  11.474
78279SOL    HW236677  13.037  11.793  11.577
78280SOL     OW36678   3.770  10.624   0.370
78280SOL    HW136679   3.784  10.560   0.301
78280SOL    HW236680   3.747  10.705   0.324
78281SOL     OW36681   0.992  12.664  12.636
78281SOL    HW136682   0.982  12.590  12.696
78281SOL    HW236683   1.081  12.656  12.602
78282SOL     OW36684  14.069   5.467   1.072
78282SOL    HW136685  14.006   5.404   1.106
78282SOL    HW236686  14.043   5.550   1.112
78283SOL     OW36687   9.338   6.881   8.011
78283SOL    HW136688   9.418   6.831   8.002
78283SOL    HW236689   9.337   6.909   8.102
78284SOL     OW36690   2.630   9.008   0.607
78284SOL    HW136691   2.663   9.060   0.680
78284SOL    HW236692   2.558   8.956   0.644
78285SOL     OW36693   7.753   2.838   9.424
78285SOL    HW136694   7.726   2.930   9.425
78285SOL    HW236695   7.708   2.800   9.500
78286SOL     OW36696   5.229  14.001  10.883
78286SOL    HW136697   5.232  13.932  10.949
78286SOL    HW236698   5.153  14.054  10.906
78287SOL     OW36699  13.442  11.270   2.028
78287SOL    HW136700  13.477  11.232   2.109
78287SOL    HW236701  13.431  11.363   2.048
78288SOL     OW36702   7.079  10.695   7.921
78288SOL    HW136703   7.108  10.772   7.971
78288SOL    HW236704   7.034  10.641   7.985
78289SOL     OW36705  10.992   5.575   5.926
78289SOL    HW136706  11.057   5.560   5.858
78289SOL    HW236707  10.910   5.592   5.879
78290SOL     OW36708   1.878   1.561  12.097
78290SOL    HW136709   1.872   1.604  12.012
78290SOL    HW236710   1.788   1.562  12.131
78291SOL     OW36711  11.549   3.916   0.471
78291SOL    HW136712  11.500   3.850   0.519
78291SOL    HW236713  11.491   3.992   0.467
78292SOL     OW36714   8.387   1.302  13.749
78292SOL    HW136715   8.451   1.232  13.739
78292SOL    HW236716   8.328   1.291  13.675
78293SOL     OW36717  10.063   0.159  14.048
78293SOL    HW136718  10.098   0.136  14.135
78293SOL    HW236719  10.126   0.120  13.987
78294SOL     OW36720   7.498  12.323   5.015
78294SOL    HW136721   7.407  12.295   5.015
78294SOL    HW236722   7.545  12.254   4.969
78295SOL     OW36723  12.781   1.445   9.791
78295SOL    HW136724  12.856   1.413   9.741
78295SOL    HW236725  12.798   1.539   9.802
78296SOL     OW36726   9.455   6.453  11.435
78296SOL    HW136727   9.480   6.364  11.411
78296SOL    HW236728   9.372   6.468  11.389
78297SOL     OW36729   0.146   5.009   1.488
78297SOL    HW136730   0.222   5.030   1.542
78297SOL    HW236731   0.141   4.913   1.489
78298SOL     OW36732  14.663   9.088   9.622
78298SOL    HW136733  14.646   9.153   9.690
78298SOL    HW236734  14.677   9.138   9.542
78299SOL     OW36735   1.885   0.790   4.760
78299SOL    HW136736   1.968   0.752   4.733
78299SOL    HW236737   1.895   0.803   4.855
78300SOL     OW36738   8.502  11.845  11.017
78300SOL    HW136739   8.459  11.931  11.014
78300SOL    HW236740   8.448  11.789  10.961
78301SOL     OW36741   1.015   4.964  14.121
78301SOL    HW136742   1.095   4.925  14.085
78301SOL    HW236743   1.004   4.922  14.206
78302SOL     OW36744   6.856  14.302  12.769
78302SOL    HW136745   6.893  14.367  12.709
78302SOL    HW236746   6.925  14.237  12.780
78303SOL     OW36747   4.032   4.210   6.969
78303SOL    HW136748   4.094   4.146   6.933
78303SOL    HW236749   3.988   4.162   7.040
78304SOL     OW36750   2.535   1.397  13.955
78304SOL    HW136751   2.523   1.478  13.906
78304SOL    HW236752   2.537   1.328  13.889
78305SOL     OW36753   8.566   8.057   0.472
78305SOL    HW136754   8.502   8.114   0.516
78305SOL    HW236755   8.561   8.084   0.380
78306SOL     OW36756   4.248  12.954  11.527
78306SOL    HW136757   4.262  13.049  11.525
78306SOL    HW236758   4.218  12.932  11.439
78307SOL     OW36759   9.681   5.455   3.105
78307SOL    HW136760   9.646   5.534   3.145
78307SOL    HW236761   9.759   5.484   3.058
78308SOL     OW36762   5.076   8.640   2.227
78308SOL    HW136763   5.124   8.696   2.288
78308SOL    HW236764   5.046   8.699   2.158
78309SOL     OW36765  14.729   2.752  12.245
78309SOL    HW136766  14.638   2.747  12.273
78309SOL    HW236767  14.776   2.787  12.321
78310SOL     OW36768   1.430   9.142  10.628
78310SOL    HW136769   1.466   9.153  10.540
78310SOL    HW236770   1.495   9.087  10.672
78311SOL     OW36771  10.400  14.064  10.250
78311SOL    HW136772  10.475  14.099  10.297
78311SOL    HW236773  10.432  14.049  10.161
78312SOL     OW36774   0.815   6.292   3.928
78312SOL    HW136775   0.853   6.247   3.852
78312SOL    HW236776   0.787   6.222   3.987
78313SOL     OW36777   4.760   8.716  10.896
78313SOL    HW136778   4.821   8.645  10.878
78313SOL    HW236779   4.753   8.763  10.813
78314SOL     OW36780   4.553   0.850   5.556
78314SOL    HW136781   4.577   0.866   5.647
78314SOL    HW236782   4.599   0.769   5.533
78315SOL     OW36783  13.820   4.056   7.473
78315SOL    HW136784  13.845   4.145   7.499
78315SOL    HW236785  13.777   4.020   7.550
78316SOL     OW36786  11.763   4.996   5.806
78316SOL    HW136787  11.755   4.906   5.775
78316SOL    HW236788  11.790   4.988   5.898
78317SOL     OW36789   9.051   6.923   0.185
78317SOL    HW136790   9.073   6.951   0.096
78317SOL    HW236791   8.966   6.880   0.175
78318SOL     OW36792   2.151   6.984  14.008
78318SOL    HW136793   2.204   6.997  13.930
78318SOL    HW236794   2.063   6.966  13.975
78319SOL     OW36795   1.851  12.951   6.224
78319SOL    HW136796   1.764  12.963   6.187
78319SOL    HW236797   1.840  12.968   6.317
78320SOL     OW36798  13.523   8.899   2.976
78320SOL    HW136799  13.588   8.956   2.935
78320SOL    HW236800  13.495   8.947   3.054
78321SOL     OW36801   4.975   2.366   1.714
78321SOL    HW136802   5.070   2.381   1.720
78321SOL    HW236803   4.953   2.386   1.624
78322SOL     OW36804   8.300   6.401  13.874
78322SOL    HW136805   8.345   6.370  13.795
78322SOL    HW236806   8.214   6.360  13.870
78323SOL     OW36807   1.348   2.570   2.295
78323SOL    HW136808   1.416   2.627   2.260
78323SOL    HW236809   1.316   2.616   2.373
78324SOL     OW36810   8.619   0.153  10.323
78324SOL    HW136811   8.683   0.097  10.279
78324SOL    HW236812   8.599   0.221  10.259
78325SOL     OW36813   4.295   9.765   1.701
78325SOL    HW136814   4.343   9.683   1.713
78325SOL    HW236815   4.333   9.803   1.622
78326SOL     OW36816   3.036   7.183   7.400
78326SOL    HW136817   3.126   7.203   7.375
78326SOL    HW236818   3.009   7.113   7.341
78327SOL     OW36819   6.053   3.990  10.653
78327SOL    HW136820   6.034   4.002  10.560
78327SOL    HW236821   6.148   3.993  10.659
78328SOL     OW36822   3.453   5.335  10.781
78328SOL    HW136823   3.431   5.297  10.866
78328SOL    HW236824   3.385   5.401  10.766
78329SOL     OW36825   9.611  13.430   0.131
78329SOL    HW136826   9.586  13.352   0.083
78329SOL    HW236827   9.631  13.495   0.064
78330SOL     OW36828  14.503   0.359   4.596
78330SOL    HW136829  14.508   0.270   4.631
78330SOL    HW236830  14.492   0.348   4.502
78331SOL     OW36831  14.793  14.854   5.147
78331SOL    HW136832  14.832   0.014   5.066
78331SOL    HW236833  14.802   0.052   5.209
78332SOL     OW36834   6.489   8.089   5.361
78332SOL    HW136835   6.445   8.004   5.349
78332SOL    HW236836   6.497   8.099   5.456
78333SOL     OW36837   0.286  10.942   4.095
78333SOL    HW136838   0.212  10.943   4.155
78333SOL    HW236839   0.359  10.976   4.146
78334SOL     OW36840   9.546  14.301   8.475
78334SOL    HW136841   9.617  14.250   8.438
78334SOL    HW236842   9.584  14.341   8.554
78335SOL     OW36843   6.573  12.659  14.505
78335SOL    HW136844   6.594  12.685  14.594
78335SOL    HW236845   6.486  12.618  14.511
78336SOL     OW36846   3.767   8.782  10.252
78336SOL    HW136847   3.677   8.758  10.230
78336SOL    HW236848   3.760   8.867  10.294
78337SOL     OW36849   3.136  14.090   2.713
78337SOL    HW136850   3.108  14.004   2.683
78337SOL    HW236851   3.169  14.133   2.634
78338SOL     OW36852   1.773   9.542   4.748
78338SOL    HW136853   1.793   9.449   4.737
78338SOL    HW236854   1.823   9.586   4.680
78339SOL     OW36855  12.157   4.593   1.734
78339SOL    HW136856  12.232   4.610   1.677
78339SOL    HW236857  12.082   4.587   1.675
78340SOL     OW36858   1.355   4.851   6.391
78340SOL    HW136859   1.341   4.943   6.410
78340SOL    HW236860   1.270   4.810   6.407
78341SOL     OW36861   9.429   3.059   6.829
78341SOL    HW136862   9.508   3.011   6.855
78341SOL    HW236863   9.392   3.008   6.757
78342SOL     OW36864   7.420   7.948  12.010
78342SOL    HW136865   7.339   7.905  11.982
78342SOL    HW236866   7.449   7.897  12.086
78343SOL     OW36867   9.827  13.338  12.350
78343SOL    HW136868   9.826  13.341  12.446
78343SOL    HW236869   9.910  13.381  12.327
78344SOL     OW36870   1.652   1.127  10.275
78344SOL    HW136871   1.722   1.067  10.300
78344SOL    HW236872   1.586   1.117  10.344
78345SOL     OW36873   9.369  11.920  12.380
78345SOL    HW136874   9.460  11.927  12.351
78345SOL    HW236875   9.339  11.836  12.346
78346SOL     OW36876   6.388  11.249   4.263
78346SOL    HW136877   6.484  11.238   4.262
78346SOL    HW236878   6.375  11.342   4.280
78347SOL     OW36879   8.864  14.551  14.537
78347SOL    HW136880   8.804  14.579  14.606
78347SOL    HW236881   8.818  14.481  14.491
78348SOL     OW36882   2.685   3.817   2.825
78348SOL    HW136883   2.760   3.867   2.858
78348SOL    HW236884   2.696   3.730   2.863
78349SOL     OW36885   5.737   0.160   0.947
78349SOL    HW136886   5.703   0.082   0.990
78349SOL    HW236887   5.659   0.208   0.919
78350SOL     OW36888   9.359  12.742   3.415
78350SOL    HW136889   9.275  12.764   3.456
78350SOL    HW236890   9.407  12.695   3.484
78351SOL     OW36891   4.984  12.354   7.562
78351SOL    HW136892   4.987  12.447   7.583
78351SOL    HW236893   4.898  12.340   7.523
78352SOL     OW36894   1.520   4.334   5.297
78352SOL    HW136895   1.443   4.330   5.239
78352SOL    HW236896   1.511   4.419   5.341
78353SOL     OW36897  13.471  10.079   3.306
78353SOL    HW136898  13.498  10.064   3.397
78353SOL    HW236899  13.375  10.085   3.310
78354SOL     OW36900  11.072   2.576  13.004
78354SOL    HW136901  11.101   2.488  12.981
78354SOL    HW236902  11.066   2.622  12.921
78355SOL     OW36903   4.756   2.490   1.241
78355SOL    HW136904   4.697   2.445   1.301
78355SOL    HW236905   4.825   2.526   1.296
78356SOL     OW36906   2.432   7.661  10.003
78356SOL    HW136907   2.436   7.757   9.998
78356SOL    HW236908   2.341   7.642  10.025
78357SOL     OW36909   4.574   0.598  13.258
78357SOL    HW136910   4.513   0.539  13.212
78357SOL    HW236911   4.654   0.547  13.268
78358SOL     OW36912  11.391   0.779  12.308
78358SOL    HW136913  11.378   0.872  12.325
78358SOL    HW236914  11.469   0.775  12.253
78359SOL     OW36915  10.738  13.462  12.123
78359SOL    HW136916  10.685  13.381  12.124
78359SOL    HW236917  10.725  13.497  12.035
78360SOL     OW36918   2.411  10.440   9.128
78360SOL    HW136919   2.383  10.419   9.039
78360SOL    HW236920   2.343  10.401   9.184
78361SOL     OW36921  11.289   8.038   2.866
78361SOL    HW136922  11.278   8.025   2.960
78361SOL    HW236923  11.330   7.958   2.835
78362SOL     OW36924   2.268  11.333   0.903
78362SOL    HW136925   2.219  11.385   0.968
78362SOL    HW236926   2.243  11.371   0.819
78363SOL     OW36927   4.654   9.175   4.521
78363SOL    HW136928   4.718   9.208   4.458
78363SOL    HW236929   4.687   9.203   4.607
78364SOL     OW36930   2.204  13.728   8.031
78364SOL    HW136931   2.191  13.655   7.971
78364SOL    HW236932   2.131  13.723   8.092
78365SOL     OW36933   3.649  14.334  11.841
78365SOL    HW136934   3.568  14.385  11.836
78365SOL    HW236935   3.622  14.245  11.816
78366SOL     OW36936   7.766   3.900   0.753
78366SOL    HW136937   7.749   3.808   0.732
78366SOL    HW236938   7.833   3.928   0.691
78367SOL     OW36939  13.114  10.650   0.175
78367SOL    HW136940  13.183  10.643   0.109
78367SOL    HW236941  13.146  10.716   0.237
78368SOL     OW36942   5.843   9.205  11.492
78368SOL    HW136943   5.795   9.210  11.409
78368SOL    HW236944   5.930   9.239  11.471
78369SOL     OW36945   8.780  12.020   7.467
78369SOL    HW136946   8.688  12.033   7.447
78369SOL    HW236947   8.781  11.963   7.544
78370SOL     OW36948  13.345   4.910  13.610
78370SOL    HW136949  13.394   4.991  13.623
78370SOL    HW236950  13.373   4.878  13.524
78371SOL     OW36951   3.436  11.556   9.095
78371SOL    HW136952   3.503  11.488   9.082
78371SOL    HW236953   3.383  11.524   9.168
78372SOL     OW36954  13.512  11.758  13.272
78372SOL    HW136955  13.564  11.784  13.196
78372SOL    HW236956  13.530  11.824  13.338
78373SOL     OW36957   2.630   9.945  13.935
78373SOL    HW136958   2.582  10.027  13.927
78373SOL    HW236959   2.572   9.887  13.985
78374SOL     OW36960   0.552   2.158  12.314
78374SOL    HW136961   0.511   2.138  12.230
78374SOL    HW236962   0.511   2.240  12.342
78375SOL     OW36963   8.007   6.548  14.360
78375SOL    HW136964   8.047   6.516  14.279
78375SOL    HW236965   7.957   6.625  14.332
78376SOL     OW36966   7.798   2.905  11.896
78376SOL    HW136967   7.818   2.812  11.899
78376SOL    HW236968   7.784   2.930  11.988
78377SOL     OW36969   3.863   4.824  10.279
78377SOL    HW136970   3.838   4.905  10.234
78377SOL    HW236971   3.954   4.809  10.253
78378SOL     OW36972   1.288   4.357   3.531
78378SOL    HW136973   1.270   4.333   3.622
78378SOL    HW236974   1.256   4.283   3.480
78379SOL     OW36975   0.141   2.613   9.726
78379SOL    HW136976   0.166   2.524   9.701
78379SOL    HW236977   0.059   2.629   9.680
78380SOL     OW36978   8.934  11.267  12.562
78380SOL    HW136979   8.961  11.195  12.619
78380SOL    HW236980   9.003  11.332  12.572
78381SOL     OW36981   8.745   3.425  13.482
78381SOL    HW136982   8.690   3.504  13.481
78381SOL    HW236983   8.777   3.418  13.392
78382SOL     OW36984  10.980  12.799   6.947
78382SOL    HW136985  11.037  12.835   6.879
78382SOL    HW236986  10.892  12.800   6.908
78383SOL     OW36987   3.198   5.203  11.521
78383SOL    HW136988   3.207   5.134  11.586
78383SOL    HW236989   3.207   5.157  11.437
78384SOL     OW36990  14.023  11.277   9.347
78384SOL    HW136991  14.055  11.190   9.372
78384SOL    HW236992  13.928  11.270   9.354
78385SOL     OW36993   5.973  13.271   9.323
78385SOL    HW136994   5.995  13.364   9.331
78385SOL    HW236995   5.928  13.264   9.238
78386SOL     OW36996   2.752   1.040   5.739
78386SOL    HW136997   2.699   1.079   5.809
78386SOL    HW236998   2.687   1.000   5.680
78387SOL     OW36999   0.013   2.834  12.885
78387SOL    HW137000  14.840   2.880  12.814
78387SOL    HW237001  14.826   2.768  12.916
78388SOL     OW37002   3.127   2.259   0.270
78388SOL    HW137003   3.082   2.334   0.309
78388SOL    HW237004   3.198   2.298   0.219
78389SOL     OW37005  10.538   6.463   1.433
78389SOL    HW137006  10.547   6.407   1.510
78389SOL    HW237007  10.613   6.441   1.379
78390SOL     OW37008   1.898   5.671  12.406
78390SOL    HW137009   1.917   5.621  12.486
78390SOL    HW237010   1.822   5.627  12.368
78391SOL     OW37011  11.131  12.358  14.678
78391SOL    HW137012  11.159  12.267  14.691
78391SOL    HW237013  11.041  12.351  14.646
78392SOL     OW37014   9.636   7.468   7.531
78392SOL    HW137015   9.558   7.445   7.581
78392SOL    HW237016   9.615   7.554   7.492
78393SOL     OW37017   7.668  12.717  10.012
78393SOL    HW137018   7.662  12.675  10.098
78393SOL    HW237019   7.705  12.650   9.955
78394SOL     OW37020   6.415  11.879   6.230
78394SOL    HW137021   6.410  11.952   6.291
78394SOL    HW237022   6.401  11.919   6.144
78395SOL     OW37023   2.298   9.813   8.920
78395SOL    HW137024   2.316   9.737   8.864
78395SOL    HW237025   2.273   9.775   9.004
78396SOL     OW37026  11.529   6.602   8.082
78396SOL    HW137027  11.555   6.623   8.172
78396SOL    HW237028  11.436   6.622   8.078
78397SOL     OW37029   3.632  13.248  11.312
78397SOL    HW137030   3.581  13.314  11.266
78397SOL    HW237031   3.627  13.273  11.404
78398SOL     OW37032  11.683   2.554  11.546
78398SOL    HW137033  11.696   2.477  11.492
78398SOL    HW237034  11.731   2.535  11.627
78399SOL     OW37035  10.777  12.295  13.129
78399SOL    HW137036  10.851  12.308  13.190
78399SOL    HW237037  10.802  12.344  13.051
78400SOL     OW37038  13.500   4.641  10.815
78400SOL    HW137039  13.587   4.664  10.846
78400SOL    HW237040  13.440   4.674  10.882
78401SOL     OW37041   5.991   2.407   8.630
78401SOL    HW137042   6.077   2.395   8.592
78401SOL    HW237043   5.934   2.347   8.582
78402SOL     OW37044   9.825   2.286   9.102
78402SOL    HW137045   9.857   2.364   9.146
78402SOL    HW237046   9.882   2.276   9.026
78403SOL     OW37047   5.211  12.399   1.711
78403SOL    HW137048   5.149  12.327   1.701
78403SOL    HW237049   5.169  12.459   1.772
78404SOL     OW37050   4.510  12.749  13.712
78404SOL    HW137051   4.420  12.719  13.721
78404SOL    HW237052   4.506  12.843  13.723
78405SOL     OW37053  14.786  12.597   3.510
78405SOL    HW137054  14.809  12.689   3.497
78405SOL    HW237055  14.836  12.550   3.444
78406SOL     OW37056  12.039   4.816   6.449
78406SOL    HW137057  12.053   4.731   6.491
78406SOL    HW237058  12.078   4.879   6.510
78407SOL     OW37059   2.241   7.549   0.375
78407SOL    HW137060   2.291   7.608   0.431
78407SOL    HW237061   2.225   7.599   0.295
78408SOL     OW37062  13.499   6.538  13.172
78408SOL    HW137063  13.537   6.585  13.247
78408SOL    HW237064  13.414   6.580  13.160
78409SOL     OW37065   9.359   8.773   9.529
78409SOL    HW137066   9.426   8.740   9.469
78409SOL    HW237067   9.291   8.705   9.529
78410SOL     OW37068   4.928   2.889  12.499
78410SOL    HW137069   4.836   2.870  12.484
78410SOL    HW237070   4.970   2.877  12.413
78411SOL     OW37071  11.145   2.650  14.190
78411SOL    HW137072  11.205   2.670  14.262
78411SOL    HW237073  11.102   2.733  14.171
78412SOL     OW37074  13.156   2.561   0.189
78412SOL    HW137075  13.152   2.636   0.249
78412SOL    HW237076  13.112   2.591   0.110
78413SOL     OW37077   3.880   3.833  14.352
78413SOL    HW137078   3.859   3.906  14.293
78413SOL    HW237079   3.817   3.841  14.423
78414SOL     OW37080   6.413  12.524   0.029
78414SOL    HW137081   6.488  12.465   0.032
78414SOL    HW237082   6.449  12.609   0.057
78415SOL     OW37083   6.386   9.139   3.731
78415SOL    HW137084   6.461   9.161   3.786
78415SOL    HW237085   6.310   9.168   3.781
78416SOL     OW37086   4.137   3.343   3.729
78416SOL    HW137087   4.083   3.278   3.685
78416SOL    HW237088   4.219   3.345   3.680
78417SOL     OW37089  12.089   8.195   1.659
78417SOL    HW137090  12.048   8.129   1.715
78417SOL    HW237091  12.162   8.150   1.618
78418SOL     OW37092   4.524   9.620   6.995
78418SOL    HW137093   4.584   9.691   6.974
78418SOL    HW237094   4.581   9.545   7.010
78419SOL     OW37095  12.790   8.206  10.761
78419SOL    HW137096  12.766   8.124  10.718
78419SOL    HW237097  12.804   8.267  10.689
78420SOL     OW37098  10.240   3.249   6.091
78420SOL    HW137099  10.208   3.338   6.077
78420SOL    HW237100  10.174   3.207   6.146
78421SOL     OW37101   0.868   5.730   5.941
78421SOL    HW137102   0.862   5.812   5.989
78421SOL    HW237103   0.784   5.686   5.958
78422SOL     OW37104  13.007  14.607   1.680
78422SOL    HW137105  12.935  14.656   1.641
78422SOL    HW237106  13.086  14.646   1.640
78423SOL     OW37107  13.208  14.639  13.569
78423SOL    HW137108  13.298  14.668  13.586
78423SOL    HW237109  13.164  14.646  13.654
78424SOL     OW37110   8.442  11.943   6.404
78424SOL    HW137111   8.474  12.005   6.339
78424SOL    HW237112   8.520  11.901   6.438
78425SOL     OW37113  10.151   9.275   0.575
78425SOL    HW137114  10.130   9.367   0.593
78425SOL    HW237115  10.112   9.227   0.647
78426SOL     OW37116   7.926  11.599   3.102
78426SOL    HW137117   7.987  11.668   3.076
78426SOL    HW237118   7.897  11.625   3.190
78427SOL     OW37119  13.762   1.278   5.610
78427SOL    HW137120  13.763   1.258   5.517
78427SOL    HW237121  13.718   1.202   5.650
78428SOL     OW37122   4.197   1.325   3.955
78428SOL    HW137123   4.252   1.398   3.928
78428SOL    HW237124   4.193   1.267   3.879
78429SOL     OW37125  12.724   1.827   0.125
78429SOL    HW137126  12.813   1.862   0.120
78429SOL    HW237127  12.681   1.861   0.047
78430SOL     OW37128   8.432  10.036   5.423
78430SOL    HW137129   8.484  10.103   5.379
78430SOL    HW237130   8.364  10.085   5.469
78431SOL     OW37131   2.619   9.075  11.937
78431SOL    HW137132   2.692   9.127  11.904
78431SOL    HW237133   2.635   8.987  11.903
78432SOL     OW37134   2.921   7.738   9.209
78432SOL    HW137135   2.923   7.811   9.270
78432SOL    HW237136   3.012   7.730   9.178
78433SOL     OW37137  14.195   9.939   1.402
78433SOL    HW137138  14.144   9.954   1.481
78433SOL    HW237139  14.286   9.938   1.432
78434SOL     OW37140  13.037   0.487   1.190
78434SOL    HW137141  13.129   0.504   1.210
78434SOL    HW237142  12.995   0.573   1.196
78435SOL     OW37143  10.376   9.556   0.015
78435SOL    HW137144  10.429   9.591  14.817
78435SOL    HW237145  10.300   9.614   0.020
78436SOL     OW37146   8.863   0.536  11.315
78436SOL    HW137147   8.811   0.515  11.238
78436SOL    HW237148   8.944   0.487  11.303
78437SOL     OW37149   4.141   4.229   6.600
78437SOL    HW137150   4.236   4.218   6.599
78437SOL    HW237151   4.114   4.213   6.509
78438SOL     OW37152   1.462  12.565  13.587
78438SOL    HW137153   1.411  12.600  13.660
78438SOL    HW237154   1.518  12.637  13.560
78439SOL     OW37155   3.025  12.266   5.495
78439SOL    HW137156   3.050  12.356   5.515
78439SOL    HW237157   3.056  12.215   5.570
78440SOL     OW37158   3.826  14.636   6.990
78440SOL    HW137159   3.742  14.652   6.946
78440SOL    HW237160   3.870  14.721   6.987
78441SOL     OW37161   6.273  14.829  14.137
78441SOL    HW137162   6.311  14.871  14.060
78441SOL    HW237163   6.348  14.791  14.183
78442SOL     OW37164  11.618   7.298   1.976
78442SOL    HW137165  11.555   7.246   1.927
78442SOL    HW237166  11.656   7.236   2.040
78443SOL     OW37167  14.413   0.203   8.183
78443SOL    HW137168  14.363   0.191   8.102
78443SOL    HW237169  14.353   0.250   8.241
78444SOL     OW37170   4.650  12.244   8.153
78444SOL    HW137171   4.709  12.319   8.148
78444SOL    HW237172   4.604  12.244   8.068
78445SOL     OW37173   7.165   9.960   5.013
78445SOL    HW137174   7.093   9.959   4.949
78445SOL    HW237175   7.226  10.026   4.979
78446SOL     OW37176   8.884  12.441   2.168
78446SOL    HW137177   8.896  12.369   2.107
78446SOL    HW237178   8.857  12.515   2.114
78447SOL     OW37179  12.488  13.703  12.514
78447SOL    HW137180  12.582  13.721  12.507
78447SOL    HW237181  12.471  13.635  12.449
78448SOL     OW37182   6.090  10.190   2.737
78448SOL    HW137183   6.175  10.147   2.742
78448SOL    HW237184   6.051  10.178   2.824
78449SOL     OW37185   1.635   1.593  12.691
78449SOL    HW137186   1.555   1.629  12.653
78449SOL    HW237187   1.706   1.638  12.645
78450SOL     OW37188  13.126   1.984   9.649
78450SOL    HW137189  13.088   1.910   9.600
78450SOL    HW237190  13.051   2.024   9.692
78451SOL     OW37191   2.575   3.020  14.402
78451SOL    HW137192   2.591   3.066  14.320
78451SOL    HW237193   2.593   2.928  14.383
78452SOL     OW37194  14.161   2.341   0.176
78452SOL    HW137195  14.183   2.427   0.213
78452SOL    HW237196  14.221   2.281   0.220
78453SOL     OW37197   6.753  14.271  14.667
78453SOL    HW137198   6.688  14.339  14.684
78453SOL    HW237199   6.771  14.234  14.754
78454SOL     OW37200   6.339   6.974   2.438
78454SOL    HW137201   6.345   7.043   2.504
78454SOL    HW237202   6.422   6.926   2.445
78455SOL     OW37203   5.312  13.670   4.402
78455SOL    HW137204   5.371  13.741   4.377
78455SOL    HW237205   5.238  13.678   4.342
78456SOL     OW37206  10.069  14.333   3.218
78456SOL    HW137207  10.018  14.310   3.140
78456SOL    HW237208  10.160  14.323   3.192
78457SOL     OW37209   3.895   9.662   9.109
78457SOL    HW137210   3.881   9.671   9.015
78457SOL    HW237211   3.809   9.679   9.148
78458SOL     OW37212   6.190   9.491   4.822
78458SOL    HW137213   6.188   9.469   4.915
78458SOL    HW237214   6.277   9.528   4.808
78459SOL     OW37215   4.831  13.850  11.644
78459SOL    HW137216   4.865  13.887  11.562
78459SOL    HW237217   4.909  13.816  11.689
78460SOL     OW37218  14.546   4.159   4.002
78460SOL    HW137219  14.526   4.106   4.079
78460SOL    HW237220  14.494   4.239   4.013
78461SOL     OW37221   8.051  10.105  13.019
78461SOL    HW137222   8.091  10.048  12.954
78461SOL    HW237223   7.959  10.111  12.993
78462SOL     OW37224   4.612   1.230   1.922
78462SOL    HW137225   4.639   1.322   1.915
78462SOL    HW237226   4.676   1.182   1.869
78463SOL     OW37227   0.610  13.090   4.496
78463SOL    HW137228   0.627  13.184   4.484
78463SOL    HW237229   0.665  13.048   4.430
78464SOL     OW37230   2.754   2.218   5.999
78464SOL    HW137231   2.691   2.148   6.016
78464SOL    HW237232   2.709   2.298   6.027
78465SOL     OW37233   1.063  11.001   2.598
78465SOL    HW137234   1.128  10.958   2.542
78465SOL    HW237235   0.980  10.960   2.575
78466SOL     OW37236   2.584   7.612   7.231
78466SOL    HW137237   2.490   7.616   7.249
78466SOL    HW237238   2.590   7.592   7.137
78467SOL     OW37239   7.072   3.024   7.441
78467SOL    HW137240   7.121   3.081   7.502
78467SOL    HW237241   6.982   3.027   7.472
78468SOL     OW37242   3.284  12.902   2.341
78468SOL    HW137243   3.203  12.942   2.308
78468SOL    HW237244   3.254  12.832   2.399
78469SOL     OW37245   5.669  11.156   4.304
78469SOL    HW137246   5.643  11.067   4.282
78469SOL    HW237247   5.587  11.205   4.307
78470SOL     OW37248   7.648   7.202  13.971
78470SOL    HW137249   7.634   7.108  13.982
78470SOL    HW237250   7.622   7.241  14.054
78471SOL     OW37251   0.589  13.199   1.223
78471SOL    HW137252   0.560  13.290   1.237
78471SOL    HW237253   0.679  13.207   1.193
78472SOL     OW37254   2.535  12.810   8.701
78472SOL    HW137255   2.600  12.878   8.684
78472SOL    HW237256   2.586  12.732   8.724
78473SOL     OW37257   6.289   4.175   0.038
78473SOL    HW137258   6.330   4.189   0.123
78473SOL    HW237259   6.198   4.153   0.058
78474SOL     OW37260   2.139  11.934   9.026
78474SOL    HW137261   2.111  11.843   9.025
78474SOL    HW237262   2.234  11.930   9.029
78475SOL     OW37263   0.507   3.732   6.371
78475SOL    HW137264   0.579   3.757   6.429
78475SOL    HW237265   0.518   3.638   6.359
78476SOL     OW37266   6.586  11.247   3.279
78476SOL    HW137267   6.496  11.230   3.251
78476SOL    HW237268   6.629  11.161   3.275
78477SOL     OW37269   7.462   5.341   5.426
78477SOL    HW137270   7.484   5.275   5.492
78477SOL    HW237271   7.455   5.292   5.344
78478SOL     OW37272   3.545   0.292  13.395
78478SOL    HW137273   3.474   0.342  13.354
78478SOL    HW237274   3.589   0.354  13.452
78479SOL     OW37275   2.016   6.698  13.762
78479SOL    HW137276   2.042   6.686  13.670
78479SOL    HW237277   2.067   6.633  13.810
78480SOL     OW37278   2.404  10.008   4.951
78480SOL    HW137279   2.369   9.926   4.917
78480SOL    HW237280   2.339  10.039   5.014
78481SOL     OW37281   4.683   1.112   7.655
78481SOL    HW137282   4.761   1.147   7.697
78481SOL    HW237283   4.713   1.079   7.571
78482SOL     OW37284   8.599  12.079  13.748
78482SOL    HW137285   8.689  12.047  13.741
78482SOL    HW237286   8.596  12.157  13.694
78483SOL     OW37287   4.757   4.717   6.707
78483SOL    HW137288   4.798   4.739   6.790
78483SOL    HW237289   4.767   4.795   6.653
78484SOL     OW37290  13.535   8.632  14.861
78484SOL    HW137291  13.518   8.685   0.064
78484SOL    HW237292  13.592   8.686  14.806
78485SOL     OW37293  11.305   7.700   7.740
78485SOL    HW137294  11.350   7.660   7.666
78485SOL    HW237295  11.365   7.688   7.814
78486SOL     OW37296   6.523   1.671   7.688
78486SOL    HW137297   6.559   1.687   7.601
78486SOL    HW237298   6.433   1.703   7.683
78487SOL     OW37299  13.003   0.749   3.067
78487SOL    HW137300  12.952   0.684   3.116
78487SOL    HW237301  12.938   0.792   3.011
78488SOL     OW37302   5.283  11.846  12.448
78488SOL    HW137303   5.208  11.882  12.495
78488SOL    HW237304   5.245  11.807  12.369
78489SOL     OW37305  10.658   2.764  12.973
78489SOL    HW137306  10.649   2.817  13.051
78489SOL    HW237307  10.724   2.809  12.920
78490SOL     OW37308   1.549   1.496   6.401
78490SOL    HW137309   1.570   1.568   6.342
78490SOL    HW237310   1.453   1.495   6.406
78491SOL     OW37311   6.189   3.834   5.076
78491SOL    HW137312   6.176   3.748   5.116
78491SOL    HW237313   6.102   3.859   5.045
78492SOL     OW37314  13.990  11.638   0.291
78492SOL    HW137315  14.013  11.702   0.359
78492SOL    HW237316  14.073  11.619   0.247
78493SOL     OW37317  12.113   6.629   7.921
78493SOL    HW137318  12.062   6.568   7.975
78493SOL    HW237319  12.049   6.692   7.888
78494SOL     OW37320   9.661   0.934   8.304
78494SOL    HW137321   9.652   0.863   8.241
78494SOL    HW237322   9.691   1.009   8.252
78495SOL     OW37323  10.691   1.362  14.295
78495SOL    HW137324  10.606   1.366  14.338
78495SOL    HW237325  10.677   1.404  14.210
78496SOL     OW37326   2.990   7.716   7.110
78496SOL    HW137327   3.059   7.713   7.044
78496SOL    HW237328   3.023   7.775   7.177
78497SOL     OW37329   9.508   2.291   6.122
78497SOL    HW137330   9.427   2.269   6.076
78497SOL    HW237331   9.578   2.260   6.065
78498SOL     OW37332   5.056   1.476  14.335
78498SOL    HW137333   5.008   1.546  14.380
78498SOL    HW237334   5.058   1.503  14.243
78499SOL     OW37335  13.571   3.072  10.232
78499SOL    HW137336  13.509   3.104  10.297
78499SOL    HW237337  13.613   3.151  10.197
78500SOL     OW37338  11.493   6.183   9.299
78500SOL    HW137339  11.477   6.271   9.335
78500SOL    HW237340  11.571   6.194   9.245
78501SOL     OW37341   3.913   0.160  12.956
78501SOL    HW137342   3.931   0.246  12.993
78501SOL    HW237343   3.825   0.138  12.986
78502SOL     OW37344  14.740   8.385   5.126
78502SOL    HW137345  14.697   8.371   5.210
78502SOL    HW237346  14.798   8.310   5.115
78503SOL     OW37347  13.916   2.470   1.005
78503SOL    HW137348  13.853   2.442   1.071
78503SOL    HW237349  13.877   2.549   0.966
78504SOL     OW37350   8.577  11.849   0.999
78504SOL    HW137351   8.555  11.787   1.068
78504SOL    HW237352   8.652  11.810   0.955
78505SOL     OW37353  10.739  11.210  12.455
78505SOL    HW137354  10.819  11.256  12.480
78505SOL    HW237355  10.715  11.160  12.533
78506SOL     OW37356   2.454   8.351  11.580
78506SOL    HW137357   2.536   8.363  11.629
78506SOL    HW237358   2.393   8.412  11.621
78507SOL     OW37359   8.861   1.758  14.028
78507SOL    HW137360   8.899   1.722  13.948
78507SOL    HW237361   8.845   1.850  14.008
78508SOL     OW37362  13.638   4.680   1.134
78508SOL    HW137363  13.683   4.680   1.218
78508SOL    HW237364  13.660   4.765   1.095
78509SOL     OW37365   8.259  14.567   0.817
78509SOL    HW137366   8.269  14.508   0.742
78509SOL    HW237367   8.348  14.600   0.833
78510SOL     OW37368   1.112   2.018   5.624
78510SOL    HW137369   1.053   1.998   5.697
78510SOL    HW237370   1.125   1.934   5.580
78511SOL     OW37371  14.787  11.830   8.179
78511SOL    HW137372  14.867  11.778   8.180
78511SOL    HW237373  14.761  11.833   8.086
78512SOL     OW37374   0.371  14.127   2.136
78512SOL    HW137375   0.307  14.104   2.068
78512SOL    HW237376   0.346  14.073   2.211
78513SOL     OW37377   8.220  13.362  10.130
78513SOL    HW137378   8.211  13.397  10.042
78513SOL    HW237379   8.291  13.298  10.123
78514SOL     OW37380   5.270  10.389  13.860
78514SOL    HW137381   5.250  10.450  13.931
78514SOL    HW237382   5.244  10.435  13.781
78515SOL     OW37383   8.843   8.432  10.115
78515SOL    HW137384   8.888   8.353  10.085
78515SOL    HW237385   8.895   8.462  10.189
78516SOL     OW37386   5.820   2.805   6.497
78516SOL    HW137387   5.893   2.867   6.498
78516SOL    HW237388   5.834   2.752   6.576
78517SOL     OW37389   3.100  11.384  12.300
78517SOL    HW137390   3.007  11.401  12.315
78517SOL    HW237391   3.116  11.415  12.211
78518SOL     OW37392   2.791   1.583   7.463
78518SOL    HW137393   2.705   1.542   7.459
78518SOL    HW237394   2.805   1.617   7.374
78519SOL     OW37395   2.731   5.324   6.223
78519SOL    HW137396   2.738   5.294   6.314
78519SOL    HW237397   2.815   5.300   6.184
78520SOL     OW37398  12.520  10.230   4.433
78520SOL    HW137399  12.592  10.195   4.381
78520SOL    HW237400  12.477  10.152   4.469
78521SOL     OW37401  14.209  12.241   9.623
78521SOL    HW137402  14.134  12.225   9.566
78521SOL    HW237403  14.172  12.250   9.711
78522SOL     OW37404   8.953  13.316  11.429
78522SOL    HW137405   8.996  13.396  11.398
78522SOL    HW237406   8.903  13.343  11.506
78523SOL     OW37407  10.377  13.094   6.392
78523SOL    HW137408  10.446  13.069   6.453
78523SOL    HW237409  10.365  13.017   6.337
78524SOL     OW37410  11.217   7.768   8.740
78524SOL    HW137411  11.171   7.848   8.765
78524SOL    HW237412  11.180   7.700   8.796
78525SOL     OW37413   0.159  11.349   1.731
78525SOL    HW137414   0.125  11.281   1.673
78525SOL    HW237415   0.161  11.308   1.818
78526SOL     OW37416   3.933   2.922   3.245
78526SOL    HW137417   3.861   2.860   3.233
78526SOL    HW237418   4.008   2.867   3.268
78527SOL     OW37419  11.188   9.257   2.356
78527SOL    HW137420  11.094   9.272   2.355
78527SOL    HW237421  11.226   9.338   2.320
78528SOL     OW37422   1.396   3.798  14.397
78528SOL    HW137423   1.465   3.807  14.462
78528SOL    HW237424   1.330   3.863  14.422
78529SOL     OW37425   3.948  11.446  10.850
78529SOL    HW137426   3.954  11.539  10.826
78529SOL    HW237427   3.857  11.435  10.878
78530SOL     OW37428   4.403  13.377  11.825
78530SOL    HW137429   4.311  13.352  11.819
78530SOL    HW237430   4.445  13.331  11.752
78531SOL     OW37431  14.506   7.097  11.188
78531SOL    HW137432  14.483   7.083  11.280
78531SOL    HW237433  14.553   7.181  11.187
78532SOL     OW37434  14.770   0.889  13.664
78532SOL    HW137435  14.862   0.914  13.673
78532SOL    HW237436  14.762   0.855  13.575
78533SOL     OW37437   2.603   9.155   8.752
78533SOL    HW137438   2.571   9.176   8.664
78533SOL    HW237439   2.526   9.162   8.808
78534SOL     OW37440   6.599   4.554   3.238
78534SOL    HW137441   6.648   4.482   3.199
78534SOL    HW237442   6.549   4.514   3.309
78535SOL     OW37443  12.044   9.033  13.565
78535SOL    HW137444  12.044   9.006  13.473
78535SOL    HW237445  12.057   8.951  13.613
78536SOL     OW37446   3.554   2.117   1.389
78536SOL    HW137447   3.606   2.104   1.468
78536SOL    HW237448   3.598   2.063   1.323
78537SOL     OW37449   5.000   0.508   8.815
78537SOL    HW137450   4.946   0.464   8.749
78537SOL    HW237451   4.951   0.587   8.837
78538SOL     OW37452   9.618   0.785   3.469
78538SOL    HW137453   9.657   0.849   3.410
78538SOL    HW237454   9.690   0.726   3.491
78539SOL     OW37455   1.852   3.363   5.038
78539SOL    HW137456   1.924   3.417   5.006
78539SOL    HW237457   1.773   3.416   5.023
78540SOL     OW37458   1.460   9.931   1.612
78540SOL    HW137459   1.422   9.879   1.541
78540SOL    HW237460   1.531   9.876   1.646
78541SOL     OW37461  14.371   8.268   9.424
78541SOL    HW137462  14.368   8.242   9.331
78541SOL    HW237463  14.426   8.346   9.425
78542SOL     OW37464   8.318  12.325   8.393
78542SOL    HW137465   8.359  12.366   8.316
78542SOL    HW237466   8.341  12.233   8.386
78543SOL     OW37467   1.586   3.296   3.491
78543SOL    HW137468   1.552   3.380   3.522
78543SOL    HW237469   1.583   3.303   3.395
78544SOL     OW37470  12.720  12.966   2.865
78544SOL    HW137471  12.726  12.872   2.846
78544SOL    HW237472  12.807  12.988   2.898
78545SOL     OW37473   5.681   8.052  13.253
78545SOL    HW137474   5.617   7.997  13.208
78545SOL    HW237475   5.725   8.099  13.183
78546SOL     OW37476   4.762   9.371   0.110
78546SOL    HW137477   4.694   9.431   0.080
78546SOL    HW237478   4.833   9.381   0.047
78547SOL     OW37479   3.511  10.762   8.072
78547SOL    HW137480   3.519  10.814   8.152
78547SOL    HW237481   3.424  10.784   8.039
78548SOL     OW37482  12.144   0.390   0.769
78548SOL    HW137483  12.239   0.386   0.779
78548SOL    HW237484  12.118   0.300   0.749
78549SOL     OW37485  12.302  13.217   0.115
78549SOL    HW137486  12.249  13.164   0.174
78549SOL    HW237487  12.300  13.170   0.032
78550SOL     OW37488   0.693  13.502  11.017
78550SOL    HW137489   0.625  13.527  10.955
78550SOL    HW237490   0.773  13.543  10.984
78551SOL     OW37491  12.195   5.027   6.848
78551SOL    HW137492  12.250   5.054   6.921
78551SOL    HW237493  12.130   4.969   6.888
78552SOL     OW37494  13.200  13.077  11.910
78552SOL    HW137495  13.267  13.087  11.978
78552SOL    HW237496  13.120  13.060  11.959
78553SOL     OW37497   6.705  14.322   1.213
78553SOL    HW137498   6.658  14.269   1.148
78553SOL    HW237499   6.740  14.396   1.164
78554SOL     OW37500   9.124   1.019   0.938
78554SOL    HW137501   9.163   1.106   0.928
78554SOL    HW237502   9.183   0.960   0.890
78555SOL     OW37503   2.166  10.697  10.940
78555SOL    HW137504   2.220  10.719  10.864
78555SOL    HW237505   2.105  10.770  10.948
78556SOL     OW37506   4.576   7.940   9.806
78556SOL    HW137507   4.512   8.009   9.822
78556SOL    HW237508   4.539   7.863   9.849
78557SOL     OW37509   2.095   0.864  14.510
78557SOL    HW137510   2.002   0.888  14.508
78557SOL    HW237511   2.125   0.892  14.596
78558SOL     OW37512   9.682   3.526   0.686
78558SOL    HW137513   9.690   3.559   0.776
78558SOL    HW237514   9.763   3.479   0.670
78559SOL     OW37515   9.424  11.433   7.909
78559SOL    HW137516   9.443  11.412   8.000
78559SOL    HW237517   9.482  11.375   7.859
78560SOL     OW37518  11.597  10.568   1.881
78560SOL    HW137519  11.514  10.525   1.863
78560SOL    HW237520  11.612  10.623   1.804
78561SOL     OW37521   7.671   8.866   1.989
78561SOL    HW137522   7.615   8.811   2.044
78561SOL    HW237523   7.611   8.909   1.929
78562SOL     OW37524   3.253  13.499   1.789
78562SOL    HW137525   3.214  13.566   1.845
78562SOL    HW237526   3.210  13.512   1.704
78563SOL     OW37527   0.400  14.799   7.016
78563SOL    HW137528   0.307  14.819   7.000
78563SOL    HW237529   0.402  14.765   7.105
78564SOL     OW37530   0.148   8.415  11.415
78564SOL    HW137531   0.235   8.447  11.437
78564SOL    HW237532   0.098   8.494  11.394
78565SOL     OW37533  13.473  14.651   6.456
78565SOL    HW137534  13.427  14.662   6.539
78565SOL    HW237535  13.524  14.731   6.446
78566SOL     OW37536   9.450   9.183  13.167
78566SOL    HW137537   9.379   9.149  13.222
78566SOL    HW237538   9.484   9.258  13.216
78567SOL     OW37539  10.979   8.736   0.089
78567SOL    HW137540  11.074   8.741   0.096
78567SOL    HW237541  10.949   8.741   0.180
78568SOL     OW37542   2.206   9.961  10.448
78568SOL    HW137543   2.219   9.881  10.398
78568SOL    HW237544   2.114   9.958  10.475
78569SOL     OW37545  13.618   6.418   0.974
78569SOL    HW137546  13.661   6.426   0.889
78569SOL    HW237547  13.683   6.450   1.037
78570SOL     OW37548   1.551   9.831  12.993
78570SOL    HW137549   1.614   9.821  13.064
78570SOL    HW237550   1.602   9.869  12.921
78571SOL     OW37551  14.813  14.575   6.896
78571SOL    HW137552  14.831  14.656   6.848
78571SOL    HW237553  14.811  14.507   6.829
78572SOL     OW37554   6.935   4.571  10.714
78572SOL    HW137555   6.871   4.640  10.695
78572SOL    HW237556   6.952   4.529  10.629
78573SOL     OW37557   2.892   8.107  11.278
78573SOL    HW137558   2.865   8.079  11.191
78573SOL    HW237559   2.965   8.049  11.301
78574SOL     OW37560  11.120   9.392  12.168
78574SOL    HW137561  11.170   9.470  12.190
78574SOL    HW237562  11.139   9.330  12.239
78575SOL     OW37563   8.737   3.163   7.537
78575SOL    HW137564   8.712   3.225   7.605
78575SOL    HW237565   8.790   3.214   7.476
78576SOL     OW37566   8.053   5.366   9.565
78576SOL    HW137567   8.101   5.342   9.644
78576SOL    HW237568   7.961   5.366   9.592
78577SOL     OW37569   3.074   4.346   0.565
78577SOL    HW137570   3.129   4.270   0.585
78577SOL    HW237571   3.134   4.420   0.568
78578SOL     OW37572  13.368   4.602   1.203
78578SOL    HW137573  13.432   4.578   1.136
78578SOL    HW237574  13.378   4.696   1.213
78579SOL     OW37575  10.323   9.170   6.248
78579SOL    HW137576  10.262   9.234   6.283
78579SOL    HW237577  10.386   9.222   6.198
78580SOL     OW37578   1.536   1.191  11.539
78580SOL    HW137579   1.458   1.200  11.593
78580SOL    HW237580   1.603   1.244  11.583
78581SOL     OW37581   6.940  14.656  11.473
78581SOL    HW137582   7.028  14.691  11.468
78581SOL    HW237583   6.917  14.663  11.566
78582SOL     OW37584  14.190  14.153  14.682
78582SOL    HW137585  14.132  14.207  14.630
78582SOL    HW237586  14.236  14.214  14.739
78583SOL     OW37587  12.485   3.418  13.768
78583SOL    HW137588  12.516   3.408  13.858
78583SOL    HW237589  12.443   3.504  13.767
78584SOL     OW37590  12.033   6.242   8.229
78584SOL    HW137591  11.941   6.255   8.252
78584SOL    HW237592  12.040   6.149   8.206
78585SOL     OW37593   1.265   0.566   1.308
78585SOL    HW137594   1.263   0.503   1.380
78585SOL    HW237595   1.209   0.528   1.241
78586SOL     OW37596  10.176   9.533   0.658
78586SOL    HW137597  10.246   9.575   0.607
78586SOL    HW237598  10.219   9.501   0.737
78587SOL     OW37599  11.200   9.075  11.529
78587SOL    HW137600  11.230   9.144  11.588
78587SOL    HW237601  11.105   9.078  11.534
78588SOL     OW37602  12.662  14.544   9.769
78588SOL    HW137603  12.698  14.566   9.683
78588SOL    HW237604  12.569  14.528   9.753
78589SOL     OW37605  13.891   5.992  13.449
78589SOL    HW137606  13.882   5.897  13.448
78589SOL    HW237607  13.933   6.012  13.532
78590SOL     OW37608   6.433   9.441   9.166
78590SOL    HW137609   6.425   9.346   9.175
78590SOL    HW237610   6.444   9.455   9.072
78591SOL     OW37611   4.795  13.988   0.417
78591SOL    HW137612   4.730  13.980   0.347
78591SOL    HW237613   4.861  13.923   0.396
78592SOL     OW37614   7.755  13.381   6.350
78592SOL    HW137615   7.667  13.398   6.383
78592SOL    HW237616   7.742  13.326   6.272
78593SOL     OW37617   1.230  11.335   2.968
78593SOL    HW137618   1.319  11.332   3.002
78593SOL    HW237619   1.220  11.254   2.919
78594SOL     OW37620  11.274   7.407   4.548
78594SOL    HW137621  11.191   7.453   4.559
78594SOL    HW237622  11.311   7.442   4.467
78595SOL     OW37623   0.113   3.878   3.664
78595SOL    HW137624   0.020   3.869   3.643
78595SOL    HW237625   0.151   3.921   3.587
78596SOL     OW37626  14.512   6.924   6.179
78596SOL    HW137627  14.430   6.948   6.135
78596SOL    HW237628  14.513   6.828   6.176
78597SOL     OW37629   8.793  12.233   2.796
78597SOL    HW137630   8.854  12.172   2.837
78597SOL    HW237631   8.837  12.317   2.797
78598SOL     OW37632   4.756   6.468   3.269
78598SOL    HW137633   4.764   6.373   3.278
78598SOL    HW237634   4.843   6.502   3.292
78599SOL     OW37635   4.787   6.573   1.444
78599SOL    HW137636   4.704   6.560   1.398
78599SOL    HW237637   4.762   6.588   1.535
78600SOL     OW37638   2.605   0.090  12.271
78600SOL    HW137639   2.567   0.014  12.315
78600SOL    HW237640   2.669   0.054  12.211
78601SOL     OW37641  11.817   1.337   0.228
78601SOL    HW137642  11.889   1.316   0.287
78601SOL    HW237643  11.748   1.371   0.284
78602SOL     OW37644   4.233  10.098   7.021
78602SOL    HW137645   4.145  10.075   7.051
78602SOL    HW237646   4.289  10.085   7.097
78603SOL     OW37647   4.665   9.866   4.447
78603SOL    HW137648   4.743   9.895   4.495
78603SOL    HW237649   4.653   9.775   4.473
78604SOL     OW37650   4.470  11.577   0.952
78604SOL    HW137651   4.409  11.507   0.931
78604SOL    HW237652   4.432  11.655   0.911
78605SOL     OW37653   2.253  13.439   9.862
78605SOL    HW137654   2.307  13.362   9.880
78605SOL    HW237655   2.259  13.492   9.942
78606SOL     OW37656   0.421  11.280   6.258
78606SOL    HW137657   0.407  11.194   6.297
78606SOL    HW237658   0.345  11.294   6.201
78607SOL     OW37659  12.912  13.760   0.843
78607SOL    HW137660  12.881  13.682   0.797
78607SOL    HW237661  12.850  13.828   0.818
78608SOL     OW37662  10.738   8.405   5.137
78608SOL    HW137663  10.719   8.437   5.049
78608SOL    HW237664  10.790   8.475   5.177
78609SOL     OW37665   2.147  13.402  10.414
78609SOL    HW137666   2.223  13.356  10.447
78609SOL    HW237667   2.082  13.334  10.397
78610SOL     OW37668  12.646   1.949   5.306
78610SOL    HW137669  12.664   2.032   5.262
78610SOL    HW237670  12.705   1.886   5.265
78611SOL     OW37671  11.876   9.239  13.629
78611SOL    HW137672  11.930   9.306  13.588
78611SOL    HW237673  11.926   9.158  13.618
78612SOL     OW37674  11.012   8.718   8.901
78612SOL    HW137675  11.032   8.777   8.974
78612SOL    HW237676  11.035   8.631   8.935
78613SOL     OW37677   5.763   5.401  12.843
78613SOL    HW137678   5.694   5.437  12.787
78613SOL    HW237679   5.794   5.476  12.894
78614SOL     OW37680   6.886   5.099  13.932
78614SOL    HW137681   6.918   5.078  13.844
78614SOL    HW237682   6.935   5.177  13.958
78615SOL     OW37683   8.032  13.972   8.604
78615SOL    HW137684   8.113  13.924   8.590
78615SOL    HW237685   7.970  13.905   8.634
78616SOL     OW37686   2.984  10.361   7.971
78616SOL    HW137687   2.970  10.267   7.981
78616SOL    HW237688   3.017  10.371   7.882
78617SOL     OW37689   5.220  12.938   9.029
78617SOL    HW137690   5.198  12.939   9.122
78617SOL    HW237691   5.237  12.846   9.009
78618SOL     OW37692  11.043  10.030   0.695
78618SOL    HW137693  10.987  10.106   0.709
78618SOL    HW237694  10.999   9.959   0.742
78619SOL     OW37695   7.979   2.347   1.576
78619SOL    HW137696   7.941   2.288   1.642
78619SOL    HW237697   8.053   2.298   1.541
78620SOL     OW37698  14.234  12.047  13.970
78620SOL    HW137699  14.287  11.968  13.955
78620SOL    HW237700  14.222  12.084  13.882
78621SOL     OW37701   5.512  12.884   6.131
78621SOL    HW137702   5.523  12.978   6.135
78621SOL    HW237703   5.530  12.861   6.040
78622SOL     OW37704  12.021  13.795  14.271
78622SOL    HW137705  12.035  13.852  14.196
78622SOL    HW237706  11.959  13.729  14.241
78623SOL     OW37707  14.139  11.815  10.060
78623SOL    HW137708  14.071  11.820  10.127
78623SOL    HW237709  14.180  11.730  10.073
78624SOL     OW37710  10.186  11.333  10.623
78624SOL    HW137711  10.133  11.411  10.635
78624SOL    HW237712  10.276  11.362  10.640
78625SOL     OW37713   1.749  10.389   6.119
78625SOL    HW137714   1.679  10.331   6.088
78625SOL    HW237715   1.703  10.459   6.166
78626SOL     OW37716   6.163   5.453  13.393
78626SOL    HW137717   6.225   5.428  13.461
78626SOL    HW237718   6.129   5.538  13.422
78627SOL     OW37719  13.317   7.185  13.008
78627SOL    HW137720  13.239   7.163  12.956
78627SOL    HW237721  13.293   7.267  13.052
78628SOL     OW37722  10.961   3.225  11.565
78628SOL    HW137723  11.045   3.260  11.593
78628SOL    HW237724  10.912   3.212  11.646
78629SOL     OW37725   6.146   0.494   0.724
78629SOL    HW137726   6.057   0.480   0.757
78629SOL    HW237727   6.174   0.407   0.696
78630SOL     OW37728  13.698   7.819   2.655
78630SOL    HW137729  13.743   7.827   2.739
78630SOL    HW237730  13.769   7.819   2.590
78631SOL     OW37731   1.474   7.563   8.801
78631SOL    HW137732   1.398   7.507   8.789
78631SOL    HW237733   1.545   7.503   8.824
78632SOL     OW37734   0.903  10.740   8.522
78632SOL    HW137735   0.931  10.818   8.569
78632SOL    HW237736   0.864  10.684   8.589
78633SOL     OW37737  12.421   0.228  10.512
78633SOL    HW137738  12.403   0.269  10.596
78633SOL    HW237739  12.400   0.296  10.447
78634SOL     OW37740   0.652   5.149   5.088
78634SOL    HW137741   0.645   5.138   5.183
78634SOL    HW237742   0.735   5.194   5.075
78635SOL     OW37743   0.243   4.658   8.133
78635SOL    HW137744   0.249   4.641   8.039
78635SOL    HW237745   0.305   4.730   8.149
78636SOL     OW37746   9.915  10.311  13.690
78636SOL    HW137747   9.831  10.266  13.685
78636SOL    HW237748   9.909  10.380  13.624
78637SOL     OW37749  10.058  12.510   7.091
78637SOL    HW137750  10.091  12.454   7.021
78637SOL    HW237751  10.130  12.515   7.154
78638SOL     OW37752   1.340   4.163   3.074
78638SOL    HW137753   1.362   4.106   3.000
78638SOL    HW237754   1.385   4.245   3.055
78639SOL     OW37755   9.391   2.347   4.192
78639SOL    HW137756   9.415   2.433   4.159
78639SOL    HW237757   9.458   2.326   4.257
78640SOL     OW37758  10.392   9.555   6.465
78640SOL    HW137759  10.440   9.571   6.384
78640SOL    HW237760  10.434   9.477   6.502
78641SOL     OW37761  12.674  14.358   9.041
78641SOL    HW137762  12.675  14.315   8.955
78641SOL    HW237763  12.634  14.443   9.024
78642SOL     OW37764   9.808   4.146  10.779
78642SOL    HW137765   9.783   4.063  10.820
78642SOL    HW237766   9.793   4.133  10.685
78643SOL     OW37767   9.483  14.465  11.286
78643SOL    HW137768   9.506  14.549  11.248
78643SOL    HW237769   9.389  14.456  11.270
78644SOL     OW37770   3.433   5.611  10.937
78644SOL    HW137771   3.373   5.576  10.871
78644SOL    HW237772   3.406   5.568  11.019
78645SOL     OW37773   2.857   5.280  10.648
78645SOL    HW137774   2.824   5.370  10.656
78645SOL    HW237775   2.779   5.225  10.656
78646SOL     OW37776   0.075   6.962   0.065
78646SOL    HW137777   0.140   6.989   0.000
78646SOL    HW237778   0.026   6.891   0.023
78647SOL     OW37779   3.209  10.404   9.531
78647SOL    HW137780   3.168  10.489   9.551
78647SOL    HW237781   3.221  10.405   9.437
78648SOL     OW37782  12.104   9.688   8.080
78648SOL    HW137783  12.018   9.730   8.091
78648SOL    HW237784  12.108   9.668   7.986
78649SOL     OW37785  14.131   6.221  14.246
78649SOL    HW137786  14.103   6.302  14.289
78649SOL    HW237787  14.151   6.161  14.318
78650SOL     OW37788   2.618  12.356   5.023
78650SOL    HW137789   2.569  12.278   4.996
78650SOL    HW237790   2.666  12.328   5.101
78651SOL     OW37791   5.295   8.561   8.207
78651SOL    HW137792   5.382   8.564   8.166
78651SOL    HW237793   5.302   8.619   8.282
78652SOL     OW37794   1.045  11.122   2.263
78652SOL    HW137795   0.992  11.164   2.195
78652SOL    HW237796   1.123  11.177   2.270
78653SOL     OW37797  13.070   9.058  12.921
78653SOL    HW137798  13.028   8.974  12.903
78653SOL    HW237799  13.155   9.052  12.878
78654SOL     OW37800   5.701   8.111  10.089
78654SOL    HW137801   5.709   8.093   9.995
78654SOL    HW237802   5.668   8.201  10.094
78655SOL     OW37803   5.309  13.802   8.443
78655SOL    HW137804   5.337  13.713   8.462
78655SOL    HW237805   5.327  13.851   8.523
78656SOL     OW37806   5.414  12.259   6.415
78656SOL    HW137807   5.338  12.279   6.469
78656SOL    HW237808   5.384  12.271   6.325
78657SOL     OW37809   3.556   9.683   5.804
78657SOL    HW137810   3.614   9.744   5.758
78657SOL    HW237811   3.611   9.607   5.822
78658SOL     OW37812  14.337   9.138  12.546
78658SOL    HW137813  14.375   9.054  12.521
78658SOL    HW237814  14.410   9.200  12.541
78659SOL     OW37815   9.772  14.382   6.388
78659SOL    HW137816   9.708  14.311   6.383
78659SOL    HW237817   9.741  14.437   6.460
78660SOL     OW37818   2.935   0.092   6.234
78660SOL    HW137819   2.843   0.117   6.223
78660SOL    HW237820   2.962   0.062   6.147
78661SOL     OW37821  14.011  12.680   3.077
78661SOL    HW137822  14.038  12.654   2.989
78661SOL    HW237823  13.927  12.636   3.091
78662SOL     OW37824   2.488  11.017   1.331
78662SOL    HW137825   2.565  11.010   1.274
78662SOL    HW237826   2.485  10.934   1.377
78663SOL     OW37827   7.769   8.005  11.618
78663SOL    HW137828   7.717   7.953  11.679
78663SOL    HW237829   7.705   8.058  11.570
78664SOL     OW37830   9.718  11.757   0.032
78664SOL    HW137831   9.771  11.834   0.010
78664SOL    HW237832   9.641  11.793   0.077
78665SOL     OW37833   6.560   6.350   5.919
78665SOL    HW137834   6.576   6.299   5.998
78665SOL    HW237835   6.484   6.309   5.878
78666SOL     OW37836  13.471   7.647   2.573
78666SOL    HW137837  13.401   7.679   2.630
78666SOL    HW237838  13.550   7.654   2.626
78667SOL     OW37839   3.784  11.262  12.489
78667SOL    HW137840   3.799  11.283  12.581
78667SOL    HW237841   3.826  11.177  12.477
78668SOL     OW37842   9.570  12.773  10.774
78668SOL    HW137843   9.531  12.826  10.704
78668SOL    HW237844   9.663  12.794  10.770
78669SOL     OW37845   5.480  14.490   1.204
78669SOL    HW137846   5.521  14.575   1.215
78669SOL    HW237847   5.443  14.492   1.116
78670SOL     OW37848   5.260   4.378   0.358
78670SOL    HW137849   5.297   4.306   0.306
78670SOL    HW237850   5.166   4.371   0.344
78671SOL     OW37851   6.584   2.604   1.264
78671SOL    HW137852   6.621   2.660   1.195
78671SOL    HW237853   6.556   2.666   1.332
78672SOL     OW37854   0.563   4.843   7.432
78672SOL    HW137855   0.588   4.783   7.502
78672SOL    HW237856   0.522   4.788   7.366
78673SOL     OW37857   2.101  11.763   7.696
78673SOL    HW137858   2.053  11.786   7.776
78673SOL    HW237859   2.037  11.771   7.626
78674SOL     OW37860   0.692   2.869  12.985
78674SOL    HW137861   0.715   2.954  13.024
78674SOL    HW237862   0.704   2.882  12.891
78675SOL     OW37863  12.534  10.312   2.009
78675SOL    HW137864  12.543  10.377   1.940
78675SOL    HW237865  12.556  10.360   2.089
78676SOL     OW37866  10.012   2.019   5.623
78676SOL    HW137867   9.918   2.025   5.609
78676SOL    HW237868  10.051   2.063   5.548
78677SOL     OW37869   8.690   3.215   2.713
78677SOL    HW137870   8.726   3.203   2.625
78677SOL    HW237871   8.597   3.232   2.698
78678SOL     OW37872   4.738  13.836  13.013
78678SOL    HW137873   4.688  13.769  12.966
78678SOL    HW237874   4.818  13.790  13.040
78679SOL     OW37875  11.246   6.567   2.461
78679SOL    HW137876  11.269   6.658   2.479
78679SOL    HW237877  11.190   6.571   2.384
78680SOL     OW37878  10.230   6.442   4.887
78680SOL    HW137879  10.308   6.469   4.837
78680SOL    HW237880  10.159   6.444   4.823
78681SOL     OW37881  10.120   2.617   9.505
78681SOL    HW137882  10.027   2.602   9.486
78681SOL    HW237883  10.139   2.562   9.581
78682SOL     OW37884  11.825  11.642   9.894
78682SOL    HW137885  11.899  11.696   9.868
78682SOL    HW237886  11.778  11.624   9.812
78683SOL     OW37887  12.448   0.808   4.449
78683SOL    HW137888  12.470   0.891   4.408
78683SOL    HW237889  12.532   0.768   4.470
78684SOL     OW37890  14.759  10.790   6.350
78684SOL    HW137891  14.713  10.735   6.287
78684SOL    HW237892  14.736  10.880   6.325
78685SOL     OW37893   1.255  14.660   5.177
78685SOL    HW137894   1.259  14.568   5.204
78685SOL    HW237895   1.191  14.662   5.107
78686SOL     OW37896   6.871   3.067   4.308
78686SOL    HW137897   6.914   3.107   4.232
78686SOL    HW237898   6.919   3.100   4.384
78687SOL     OW37899   7.676   2.870   0.832
78687SOL    HW137900   7.658   2.954   0.790
78687SOL    HW237901   7.703   2.892   0.921
78688SOL     OW37902  13.780  12.795   2.765
78688SOL    HW137903  13.792  12.890   2.761
78688SOL    HW237904  13.823  12.770   2.847
78689SOL     OW37905  12.440   9.649   7.371
78689SOL    HW137906  12.497   9.695   7.432
78689SOL    HW237907  12.464   9.683   7.285
78690SOL     OW37908  14.710  12.229  13.729
78690SOL    HW137909  14.749  12.303  13.775
78690SOL    HW237910  14.648  12.191  13.792
78691SOL     OW37911   3.253   0.179   7.076
78691SOL    HW137912   3.280   0.107   7.133
78691SOL    HW237913   3.209   0.136   7.003
78692SOL     OW37914   9.968  10.974  13.167
78692SOL    HW137915  10.043  10.975  13.226
78692SOL    HW237916   9.901  11.026  13.212
78693SOL     OW37917   1.803   4.922   2.171
78693SOL    HW137918   1.875   4.903   2.110
78693SOL    HW237919   1.846   4.962   2.247
78694SOL     OW37920  11.428   7.191  14.081
78694SOL    HW137921  11.351   7.186  14.025
78694SOL    HW237922  11.393   7.195  14.170
78695SOL     OW37923  12.857   5.280   0.747
78695SOL    HW137924  12.874   5.374   0.752
78695SOL    HW237925  12.768   5.274   0.712
78696SOL     OW37926  10.249   0.632   5.145
78696SOL    HW137927  10.164   0.672   5.160
78696SOL    HW237928  10.250   0.614   5.051
78697SOL     OW37929   2.964  11.476   9.909
78697SOL    HW137930   3.035  11.430   9.864
78697SOL    HW237931   2.957  11.560   9.864
78698SOL     OW37932  11.847   8.003   4.185
78698SOL    HW137933  11.901   7.928   4.161
78698SOL    HW237934  11.814   7.982   4.272
78699SOL     OW37935   1.598   0.957   2.463
78699SOL    HW137936   1.528   0.926   2.407
78699SOL    HW237937   1.554   0.983   2.544
78700SOL     OW37938   2.992   8.399   4.816
78700SOL    HW137939   2.919   8.349   4.780
78700SOL    HW237940   2.979   8.395   4.911
78701SOL     OW37941   6.438   5.262   1.871
78701SOL    HW137942   6.525   5.272   1.910
78701SOL    HW237943   6.423   5.345   1.826
78702SOL     OW37944   8.175  11.307  12.375
78702SOL    HW137945   8.155  11.321  12.282
78702SOL    HW237946   8.263  11.271  12.376
78703SOL     OW37947   8.159   0.289   8.661
78703SOL    HW137948   8.100   0.320   8.593
78703SOL    HW237949   8.172   0.364   8.718
78704SOL     OW37950   7.243   2.457  13.385
78704SOL    HW137951   7.258   2.382  13.327
78704SOL    HW237952   7.300   2.525  13.350
78705SOL     OW37953   5.208   2.956   3.121
78705SOL    HW137954   5.293   2.999   3.132
78705SOL    HW237955   5.226   2.863   3.135
78706SOL     OW37956  13.610   1.798  12.444
78706SOL    HW137957  13.530   1.753  12.469
78706SOL    HW237958  13.602   1.811  12.350
78707SOL     OW37959   9.921  10.478  10.484
78707SOL    HW137960   9.997  10.422  10.469
78707SOL    HW237961   9.949  10.565  10.456
78708SOL     OW37962   3.655   0.195  13.042
78708SOL    HW137963   3.631   0.116  12.995
78708SOL    HW237964   3.629   0.267  12.984
78709SOL     OW37965   2.019   7.384   1.136
78709SOL    HW137966   1.982   7.462   1.179
78709SOL    HW237967   2.059   7.334   1.207
78710SOL     OW37968   1.823   1.050   2.639
78710SOL    HW137969   1.729   1.067   2.636
78710SOL    HW237970   1.855   1.071   2.551
78711SOL     OW37971   4.767   5.990   1.846
78711SOL    HW137972   4.764   5.898   1.818
78711SOL    HW237973   4.760   5.987   1.941
78712SOL     OW37974  11.457   6.135  11.932
78712SOL    HW137975  11.519   6.206  11.912
78712SOL    HW237976  11.439   6.146  12.026
78713SOL     OW37977   7.346  10.518  10.322
78713SOL    HW137978   7.272  10.458  10.337
78713SOL    HW237979   7.347  10.575  10.399
78714SOL     OW37980  13.518   6.078   3.058
78714SOL    HW137981  13.529   6.054   2.966
78714SOL    HW237982  13.529   6.173   3.060
78715SOL     OW37983   9.257  13.300  13.686
78715SOL    HW137984   9.326  13.293  13.752
78715SOL    HW237985   9.292  13.359  13.619
78716SOL     OW37986   7.155   1.800   8.848
78716SOL    HW137987   7.104   1.729   8.809
78716SOL    HW237988   7.239   1.761   8.870
78717SOL     OW37989  11.883  11.686  12.937
78717SOL    HW137990  11.975  11.664  12.952
78717SOL    HW237991  11.883  11.780  12.917
78718SOL     OW37992   2.629  10.698   7.279
78718SOL    HW137993   2.596  10.733   7.362
78718SOL    HW237994   2.695  10.634   7.305
78719SOL     OW37995   6.227  12.313   6.526
78719SOL    HW137996   6.298  12.378   6.528
78719SOL    HW237997   6.208  12.295   6.618
78720SOL     OW37998  14.255   9.797   3.027
78720SOL    HW137999  14.284   9.842   2.947
78720SOL    HW238000  14.256   9.865   3.094
78721SOL     OW38001  11.584   3.211   8.792
78721SOL    HW138002  11.525   3.280   8.762
78721SOL    HW238003  11.558   3.197   8.884
78722SOL     OW38004  13.973   5.862   5.847
78722SOL    HW138005  13.968   5.769   5.869
78722SOL    HW238006  13.885   5.885   5.819
78723SOL     OW38007   9.381   7.735  11.532
78723SOL    HW138008   9.424   7.684  11.464
78723SOL    HW238009   9.411   7.695  11.614
78724SOL     OW38010   2.234   3.721   0.151
78724SOL    HW138011   2.241   3.811   0.184
78724SOL    HW238012   2.260   3.728   0.059
78725SOL     OW38013   3.061  11.014   8.968
78725SOL    HW138014   3.086  11.037   9.058
78725SOL    HW238015   3.093  11.086   8.915
78726SOL     OW38016  13.653  13.156   1.736
78726SOL    HW138017  13.700  13.078   1.707
78726SOL    HW238018  13.615  13.131   1.820
78727SOL     OW38019   6.382   8.593   0.487
78727SOL    HW138020   6.300   8.643   0.493
78727SOL    HW238021   6.413   8.586   0.577
78728SOL     OW38022   2.642  10.675   0.213
78728SOL    HW138023   2.677  10.722   0.289
78728SOL    HW238024   2.715  10.620   0.183
78729SOL     OW38025   7.214   2.251   8.494
78729SOL    HW138026   7.219   2.174   8.552
78729SOL    HW238027   7.192   2.215   8.408
78730SOL     OW38028  14.727   6.171  10.932
78730SOL    HW138029  14.716   6.081  10.962
78730SOL    HW238030  14.770   6.216  11.005
78731SOL     OW38031  12.777   0.541   0.683
78731SOL    HW138032  12.785   0.589   0.765
78731SOL    HW238033  12.829   0.591   0.620
78732SOL     OW38034   5.267   3.647   2.233
78732SOL    HW138035   5.356   3.616   2.249
78732SOL    HW238036   5.274   3.706   2.159
78733SOL     OW38037   1.790   2.573   3.546
78733SOL    HW138038   1.726   2.556   3.477
78733SOL    HW238039   1.801   2.668   3.546
78734SOL     OW38040   0.774  13.215   4.688
78734SOL    HW138041   0.738  13.297   4.653
78734SOL    HW238042   0.701  13.173   4.733
78735SOL     OW38043   2.250   1.853   3.101
78735SOL    HW138044   2.193   1.926   3.126
78735SOL    HW238045   2.280   1.876   3.013
78736SOL     OW38046   2.092   9.815  13.385
78736SOL    HW138047   2.126   9.742  13.436
78736SOL    HW238048   2.134   9.893  13.423
78737SOL     OW38049  12.801   8.847   7.847
78737SOL    HW138050  12.805   8.767   7.795
78737SOL    HW238051  12.849   8.827   7.928
78738SOL     OW38052  14.478  10.161   4.809
78738SOL    HW138053  14.508  10.252   4.815
78738SOL    HW238054  14.531  10.124   4.739
78739SOL     OW38055   7.723   9.211  14.047
78739SOL    HW138056   7.706   9.136  14.104
78739SOL    HW238057   7.797   9.256  14.089
78740SOL     OW38058   2.062   1.674   9.501
78740SOL    HW138059   2.085   1.767   9.505
78740SOL    HW238060   2.058   1.655   9.407
78741SOL     OW38061   5.827   6.503   9.102
78741SOL    HW138062   5.792   6.583   9.143
78741SOL    HW238063   5.751   6.459   9.067
78742SOL     OW38064   9.327   4.152  10.440
78742SOL    HW138065   9.312   4.142  10.346
78742SOL    HW238066   9.329   4.062  10.473
78743SOL     OW38067  10.172  12.926   4.372
78743SOL    HW138068  10.135  13.008   4.403
78743SOL    HW238069  10.246  12.952   4.318
78744SOL     OW38070   6.413   9.339   7.067
78744SOL    HW138071   6.397   9.272   7.133
78744SOL    HW238072   6.391   9.296   6.984
78745SOL     OW38073   8.798   8.945   2.437
78745SOL    HW138074   8.780   8.887   2.363
78745SOL    HW238075   8.748   9.024   2.418
78746SOL     OW38076  12.512   6.105   1.162
78746SOL    HW138077  12.576   6.146   1.220
78746SOL    HW238078  12.445   6.069   1.221
78747SOL     OW38079   4.877   4.547   3.506
78747SOL    HW138080   4.910   4.626   3.550
78747SOL    HW238081   4.956   4.501   3.477
78748SOL     OW38082  12.783   0.329   9.772
78748SOL    HW138083  12.831   0.411   9.782
78748SOL    HW238084  12.762   0.302   9.862
78749SOL     OW38085   5.413   2.838  13.102
78749SOL    HW138086   5.376   2.889  13.174
78749SOL    HW238087   5.343   2.777  13.078
78750SOL     OW38088   2.321   8.245   8.682
78750SOL    HW138089   2.407   8.229   8.644
78750SOL    HW238090   2.284   8.158   8.696
78751SOL     OW38091   5.895   5.934  14.387
78751SOL    HW138092   5.876   5.843  14.368
78751SOL    HW238093   5.857   5.982  14.314
78752SOL     OW38094   9.990   6.603  11.413
78752SOL    HW138095  10.085   6.616  11.409
78752SOL    HW238096   9.974   6.527  11.356
78753SOL     OW38097   9.758  14.524   2.023
78753SOL    HW138098   9.716  14.450   1.980
78753SOL    HW238099   9.689  14.563   2.077
78754SOL     OW38100   0.375   0.506   6.293
78754SOL    HW138101   0.466   0.519   6.267
78754SOL    HW238102   0.330   0.480   6.213
78755SOL     OW38103   0.522  11.402   2.590
78755SOL    HW138104   0.459  11.467   2.620
78755SOL    HW238105   0.471  11.344   2.532
78756SOL     OW38106   1.843   1.869   2.901
78756SOL    HW138107   1.808   1.856   2.989
78756SOL    HW238108   1.917   1.808   2.895
78757SOL     OW38109  14.461   9.667  12.104
78757SOL    HW138110  14.482   9.743  12.049
78757SOL    HW238111  14.394   9.699  12.164
78758SOL     OW38112   7.565   2.695   8.866
78758SOL    HW138113   7.534   2.722   8.780
78758SOL    HW238114   7.574   2.777   8.915
78759SOL     OW38115   3.882   4.858   1.220
78759SOL    HW138116   3.968   4.893   1.193
78759SOL    HW238117   3.823   4.932   1.211
78760SOL     OW38118   3.540   7.260  13.386
78760SOL    HW138119   3.466   7.203  13.370
78760SOL    HW238120   3.614   7.217  13.342
78761SOL     OW38121  10.440   5.356  10.407
78761SOL    HW138122  10.421   5.447  10.430
78761SOL    HW238123  10.535   5.347  10.420
78762SOL     OW38124   5.075   3.112   2.728
78762SOL    HW138125   5.034   3.028   2.709
78762SOL    HW238126   5.070   3.119   2.824
78763SOL     OW38127   3.271   4.215   8.527
78763SOL    HW138128   3.279   4.181   8.617
78763SOL    HW238129   3.189   4.178   8.495
78764SOL     OW38130   4.650   8.454  11.346
78764SOL    HW138131   4.637   8.378  11.404
78764SOL    HW238132   4.745   8.456  11.331
78765SOL     OW38133   9.681  14.573   7.196
78765SOL    HW138134   9.679  14.601   7.287
78765SOL    HW238135   9.696  14.478   7.200
78766SOL     OW38136   3.125   6.377  10.620
78766SOL    HW138137   3.114   6.447  10.685
78766SOL    HW238138   3.138   6.423  10.537
78767SOL     OW38139  13.170   8.703   0.326
78767SOL    HW138140  13.109   8.681   0.397
78767SOL    HW238141  13.122   8.766   0.273
78768SOL     OW38142  13.430   2.399   8.627
78768SOL    HW138143  13.417   2.364   8.539
78768SOL    HW238144  13.513   2.447   8.622
78769SOL     OW38145   7.735   9.783   2.943
78769SOL    HW138146   7.730   9.705   2.998
78769SOL    HW238147   7.666   9.771   2.877
78770SOL     OW38148  12.603  13.869  11.279
78770SOL    HW138149  12.643  13.793  11.322
78770SOL    HW238150  12.517  13.837  11.250
78771SOL     OW38151   9.299  12.050   9.457
78771SOL    HW138152   9.285  12.006   9.374
78771SOL    HW238153   9.380  12.100   9.444
78772SOL     OW38154  12.890   4.764  11.940
78772SOL    HW138155  12.856   4.796  11.857
78772SOL    HW238156  12.822   4.787  12.004
78773SOL     OW38157  11.037   3.087   9.435
78773SOL    HW138158  11.035   3.000   9.395
78773SOL    HW238159  11.058   3.147   9.363
78774SOL     OW38160  14.375   7.501   3.161
78774SOL    HW138161  14.460   7.524   3.198
78774SOL    HW238162  14.354   7.575   3.103
78775SOL     OW38163   2.813   9.967  10.519
78775SOL    HW138164   2.735   9.951  10.465
78775SOL    HW238165   2.886   9.967  10.457
78776SOL     OW38166   6.129  14.687  10.132
78776SOL    HW138167   6.101  14.711  10.220
78776SOL    HW238168   6.168  14.767  10.096
78777SOL     OW38169   5.397  13.062   4.028
78777SOL    HW138170   5.309  13.053   3.991
78777SOL    HW238171   5.452  13.083   3.952
78778SOL     OW38172   8.876   2.448   2.816
78778SOL    HW138173   8.829   2.372   2.783
78778SOL    HW238174   8.849   2.456   2.907
78779SOL     OW38175  11.263  12.390   8.818
78779SOL    HW138176  11.284  12.307   8.863
78779SOL    HW238177  11.240  12.450   8.889
78780SOL     OW38178  12.037  12.142   9.456
78780SOL    HW138179  12.101  12.105   9.517
78780SOL    HW238180  12.025  12.074   9.390
78781SOL     OW38181   9.587   2.099  12.451
78781SOL    HW138182   9.558   2.185  12.479
78781SOL    HW238183   9.507   2.055  12.422
78782SOL     OW38184  11.518   1.564   9.734
78782SOL    HW138185  11.508   1.659   9.729
78782SOL    HW238186  11.443   1.529   9.685
78783SOL     OW38187   8.542   1.597  14.861
78783SOL    HW138188   8.573   1.541   0.058
78783SOL    HW238189   8.471   1.649   0.027
78784SOL     OW38190  10.980   7.012  11.027
78784SOL    HW138191  11.066   7.036  10.993
78784SOL    HW238192  10.923   7.085  11.001
78785SOL     OW38193   5.179   2.804   1.631
78785SOL    HW138194   5.147   2.848   1.553
78785SOL    HW238195   5.269   2.835   1.641
78786SOL     OW38196  10.555   5.865  10.432
78786SOL    HW138197  10.642   5.832  10.409
78786SOL    HW238198  10.552   5.953  10.394
78787SOL     OW38199  12.571  11.785   4.202
78787SOL    HW138200  12.569  11.780   4.297
78787SOL    HW238201  12.586  11.877   4.183
78788SOL     OW38202  10.214   2.155  13.166
78788SOL    HW138203  10.178   2.077  13.209
78788SOL    HW238204  10.145   2.183  13.107
78789SOL     OW38205   0.649   1.017  10.131
78789SOL    HW138206   0.681   0.929  10.114
78789SOL    HW238207   0.702   1.049  10.204
78790SOL     OW38208  10.326   3.460  12.947
78790SOL    HW138209  10.234   3.477  12.926
78790SOL    HW238210  10.368   3.546  12.943
78791SOL     OW38211   2.880  12.580   7.996
78791SOL    HW138212   2.897  12.672   8.019
78791SOL    HW238213   2.800  12.582   7.945
78792SOL     OW38214   2.525  13.816   3.319
78792SOL    HW138215   2.564  13.731   3.340
78792SOL    HW238216   2.568  13.877   3.378
78793SOL     OW38217  14.346  14.334   2.252
78793SOL    HW138218  14.283  14.346   2.181
78793SOL    HW238219  14.381  14.246   2.239
78794SOL     OW38220   0.746  13.538   0.284
78794SOL    HW138221   0.787  13.451   0.275
78794SOL    HW238222   0.775  13.585   0.206
78795SOL     OW38223  12.149   5.267   2.160
78795SOL    HW138224  12.108   5.346   2.124
78795SOL    HW238225  12.097   5.246   2.238
78796SOL     OW38226   6.824  14.677  13.319
78796SOL    HW138227   6.834  14.600  13.264
78796SOL    HW238228   6.872  14.656  13.399
78797SOL     OW38229   4.962  13.581  14.444
78797SOL    HW138230   4.986  13.502  14.396
78797SOL    HW238231   4.901  13.551  14.511
78798SOL     OW38232  13.512   3.107   4.817
78798SOL    HW138233  13.480   3.084   4.730
78798SOL    HW238234  13.449   3.066   4.877
78799SOL     OW38235  12.005   1.082   7.717
78799SOL    HW138236  11.992   1.012   7.781
78799SOL    HW238237  12.025   1.159   7.771
78800SOL     OW38238  14.752  12.456  12.421
78800SOL    HW138239  14.789  12.542  12.440
78800SOL    HW238240  14.773  12.403  12.498
78801SOL     OW38241  14.188   1.084   5.742
78801SOL    HW138242  14.186   1.131   5.826
78801SOL    HW238243  14.180   0.992   5.767
78802SOL     OW38244   8.676   5.288   5.342
78802SOL    HW138245   8.601   5.347   5.344
78802SOL    HW238246   8.676   5.246   5.428
78803SOL     OW38247  14.826   0.109   1.315
78803SOL    HW138248   0.004   0.085   1.239
78803SOL    HW238249  14.753   0.046   1.315
78804SOL     OW38250  14.353  13.022   8.054
78804SOL    HW138251  14.379  13.063   7.971
78804SOL    HW238252  14.391  13.078   8.121
78805SOL     OW38253   0.237   2.350   9.668
78805SOL    HW138254   0.267   2.288   9.734
78805SOL    HW238255   0.172   2.302   9.617
78806SOL     OW38256   9.086  14.199   6.012
78806SOL    HW138257   9.125  14.251   5.942
78806SOL    HW238258   9.133  14.116   6.008
78807SOL     OW38259  10.779   5.074  13.202
78807SOL    HW138260  10.695   5.056  13.159
78807SOL    HW238261  10.844   5.064  13.132
78808SOL     OW38262   9.056   5.122   7.879
78808SOL    HW138263   9.128   5.178   7.850
78808SOL    HW238264   9.098   5.043   7.912
78809SOL     OW38265   9.337   9.440   9.346
78809SOL    HW138266   9.252   9.397   9.346
78809SOL    HW238267   9.318   9.531   9.368
78810SOL     OW38268   6.072  12.188  11.852
78810SOL    HW138269   6.156  12.225  11.881
78810SOL    HW238270   6.025  12.262  11.814
78811SOL     OW38271  12.919   3.575   5.474
78811SOL    HW138272  12.921   3.601   5.566
78811SOL    HW238273  13.011   3.567   5.449
78812SOL     OW38274  11.827   9.501   0.585
78812SOL    HW138275  11.833   9.423   0.641
78812SOL    HW238276  11.820   9.466   0.496
78813SOL     OW38277   3.494   9.538   8.606
78813SOL    HW138278   3.552   9.613   8.592
78813SOL    HW238279   3.550   9.470   8.641
78814SOL     OW38280   9.202   4.654   8.227
78814SOL    HW138281   9.116   4.651   8.270
78814SOL    HW238282   9.197   4.586   8.159
78815SOL     OW38283   3.327   4.723   1.320
78815SOL    HW138284   3.371   4.757   1.242
78815SOL    HW238285   3.388   4.658   1.355
78816SOL     OW38286   5.869   7.145  13.871
78816SOL    HW138287   5.797   7.159  13.933
78816SOL    HW238288   5.946   7.133  13.927
78817SOL     OW38289  12.831  14.408   1.044
78817SOL    HW138290  12.783  14.416   1.126
78817SOL    HW238291  12.805  14.323   1.008
78818SOL     OW38292   0.188  14.364   1.503
78818SOL    HW138293   0.205  14.271   1.487
78818SOL    HW238294   0.093  14.373   1.501
78819SOL     OW38295   2.427   7.742   3.034
78819SOL    HW138296   2.352   7.756   2.976
78819SOL    HW238297   2.454   7.652   3.018
78820SOL     OW38298  14.533  13.817  10.728
78820SOL    HW138299  14.542  13.851  10.639
78820SOL    HW238300  14.524  13.722  10.716
78821SOL     OW38301  13.423  10.732   3.889
78821SOL    HW138302  13.330  10.733   3.867
78821SOL    HW238303  13.455  10.818   3.863
78822SOL     OW38304   6.497   3.424   7.633
78822SOL    HW138305   6.429   3.434   7.566
78822SOL    HW238306   6.469   3.480   7.705
78823SOL     OW38307   2.411  11.715  13.101
78823SOL    HW138308   2.407  11.664  13.182
78823SOL    HW238309   2.331  11.769  13.103
78824SOL     OW38310   0.689  12.876  10.397
78824SOL    HW138311   0.688  12.826  10.479
78824SOL    HW238312   0.724  12.816  10.332
78825SOL     OW38313   2.716   6.406  13.043
78825SOL    HW138314   2.774   6.354  12.986
78825SOL    HW238315   2.629   6.370  13.027
78826SOL     OW38316   9.004   2.492   1.354
78826SOL    HW138317   8.987   2.580   1.386
78826SOL    HW238318   9.037   2.444   1.430
78827SOL     OW38319   9.019   4.762   6.315
78827SOL    HW138320   8.984   4.834   6.366
78827SOL    HW238321   9.090   4.801   6.264
78828SOL     OW38322   9.838  11.766   8.460
78828SOL    HW138323   9.909  11.707   8.484
78828SOL    HW238324   9.831  11.758   8.364
78829SOL     OW38325  11.281  13.131   9.493
78829SOL    HW138326  11.220  13.058   9.501
78829SOL    HW238327  11.309  13.130   9.401
78830SOL     OW38328  13.695  10.196   2.826
78830SOL    HW138329  13.680  10.232   2.739
78830SOL    HW238330  13.633  10.242   2.882
78831SOL     OW38331   2.558  14.272   1.175
78831SOL    HW138332   2.467  14.267   1.146
78831SOL    HW238333   2.595  14.345   1.127
78832SOL     OW38334   2.645  12.620   7.807
78832SOL    HW138335   2.556  12.593   7.830
78832SOL    HW238336   2.670  12.562   7.735
78833SOL     OW38337   3.917   1.898  14.686
78833SOL    HW138338   3.970   1.819  14.675
78833SOL    HW238339   3.962   1.948  14.754
78834SOL     OW38340  13.494   6.202  12.743
78834SOL    HW138341  13.451   6.264  12.802
78834SOL    HW238342  13.458   6.117  12.767
78835SOL     OW38343  10.680  12.405   8.513
78835SOL    HW138344  10.657  12.368   8.427
78835SOL    HW238345  10.645  12.494   8.511
78836SOL     OW38346  13.084  11.505  13.697
78836SOL    HW138347  13.068  11.586  13.649
78836SOL    HW238348  13.156  11.463  13.650
78837SOL     OW38349   3.634  11.312   4.144
78837SOL    HW138350   3.625  11.223   4.112
78837SOL    HW238351   3.607  11.367   4.070
78838SOL     OW38352   7.402   3.560  13.471
78838SOL    HW138353   7.354   3.566  13.553
78838SOL    HW238354   7.389   3.470  13.442
78839SOL     OW38355   0.600   5.690  12.537
78839SOL    HW138356   0.548   5.669  12.615
78839SOL    HW238357   0.565   5.773  12.507
78840SOL     OW38358  10.256   4.657   5.254
78840SOL    HW138359  10.312   4.713   5.309
78840SOL    HW238360  10.290   4.670   5.166
78841SOL     OW38361   4.940   7.665  10.550
78841SOL    HW138362   4.985   7.746  10.525
78841SOL    HW238363   5.003   7.620  10.606
78842SOL     OW38364   9.072   0.699   1.016
78842SOL    HW138365   8.988   0.725   0.977
78842SOL    HW238366   9.115   0.648   0.948
78843SOL     OW38367   7.458  12.827   9.122
78843SOL    HW138368   7.411  12.838   9.040
78843SOL    HW238369   7.460  12.915   9.160
78844SOL     OW38370   3.997   4.468  14.367
78844SOL    HW138371   3.938   4.539  14.393
78844SOL    HW238372   3.998   4.408  14.441
78845SOL     OW38373   5.708   5.248  14.419
78845SOL    HW138374   5.777   5.276  14.480
78845SOL    HW238375   5.626   5.273  14.462
78846SOL     OW38376   5.125  11.162  10.821
78846SOL    HW138377   5.169  11.223  10.880
78846SOL    HW238378   5.175  11.168  10.739
78847SOL     OW38379  10.112  11.579  14.846
78847SOL    HW138380  10.070  11.523   0.038
78847SOL    HW238381  10.043  11.596  14.782
78848SOL     OW38382   4.254   9.836  13.541
78848SOL    HW138383   4.294   9.854  13.456
78848SOL    HW238384   4.173   9.888  13.540
78849SOL     OW38385   4.967   2.084   5.026
78849SOL    HW138386   5.046   2.031   5.015
78849SOL    HW238387   4.999   2.170   5.052
78850SOL     OW38388  12.287   1.077  14.530
78850SOL    HW138389  12.364   1.102  14.479
78850SOL    HW238390  12.309   1.104  14.620
78851SOL     OW38391   4.729   6.972   4.369
78851SOL    HW138392   4.653   6.980   4.427
78851SOL    HW238393   4.740   7.059   4.331
78852SOL     OW38394  12.031  13.036   9.600
78852SOL    HW138395  11.958  12.975   9.610
78852SOL    HW238396  12.100  12.984   9.559
78853SOL     OW38397   9.226  11.709   2.827
78853SOL    HW138398   9.152  11.671   2.875
78853SOL    HW238399   9.303  11.661   2.858
78854SOL     OW38400  14.648   8.792   1.229
78854SOL    HW138401  14.720   8.855   1.220
78854SOL    HW238402  14.648   8.745   1.145
78855SOL     OW38403  14.142   8.181   7.116
78855SOL    HW138404  14.187   8.146   7.039
78855SOL    HW238405  14.213   8.203   7.177
78856SOL     OW38406  12.742   7.306  13.544
78856SOL    HW138407  12.765   7.266  13.460
78856SOL    HW238408  12.669   7.253  13.576
78857SOL     OW38409   1.753   3.284   1.550
78857SOL    HW138410   1.835   3.238   1.532
78857SOL    HW238411   1.781   3.366   1.591
78858SOL     OW38412  13.523   8.231  13.349
78858SOL    HW138413  13.560   8.315  13.322
78858SOL    HW238414  13.562   8.215  13.435
78859SOL     OW38415   6.072   3.669  13.575
78859SOL    HW138416   6.048   3.663  13.668
78859SOL    HW238417   6.129   3.746  13.570
78860SOL     OW38418   4.049   3.619   0.861
78860SOL    HW138419   4.063   3.525   0.871
78860SOL    HW238420   4.135   3.658   0.877
78861SOL     OW38421  11.446  12.096  14.507
78861SOL    HW138422  11.522  12.043  14.532
78861SOL    HW238423  11.371  12.038  14.519
78862SOL     OW38424   4.408  12.158   3.234
78862SOL    HW138425   4.369  12.197   3.156
78862SOL    HW238426   4.475  12.221   3.261
78863SOL     OW38427   3.784  13.106  12.706
78863SOL    HW138428   3.750  13.112  12.616
78863SOL    HW238429   3.839  13.184  12.716
78864SOL     OW38430   3.314   2.888   4.441
78864SOL    HW138431   3.346   2.973   4.412
78864SOL    HW238432   3.325   2.888   4.536
78865SOL     OW38433   4.623  10.230   5.610
78865SOL    HW138434   4.593  10.308   5.563
78865SOL    HW238435   4.646  10.262   5.698
78866SOL     OW38436   5.122   1.685  13.746
78866SOL    HW138437   5.134   1.597  13.782
78866SOL    HW238438   5.125   1.673  13.651
78867SOL     OW38439   2.727   8.398   7.972
78867SOL    HW138440   2.693   8.433   8.054
78867SOL    HW238441   2.649   8.380   7.919
78868SOL     OW38442  11.853   1.673   4.056
78868SOL    HW138443  11.770   1.629   4.074
78868SOL    HW238444  11.918   1.620   4.103
78869SOL     OW38445  10.591   0.176   4.208
78869SOL    HW138446  10.573   0.184   4.114
78869SOL    HW238447  10.666   0.235   4.223
78870SOL     OW38448  13.335   3.044   5.387
78870SOL    HW138449  13.425   3.052   5.356
78870SOL    HW238450  13.343   3.017   5.478
78871SOL     OW38451  12.376   1.449  14.224
78871SOL    HW138452  12.326   1.374  14.192
78871SOL    HW238453  12.337   1.469  14.310
78872SOL     OW38454  11.922   4.553  12.917
78872SOL    HW138455  11.889   4.633  12.958
78872SOL    HW238456  12.011   4.544  12.951
78873SOL     OW38457   1.644   2.140  11.640
78873SOL    HW138458   1.596   2.223  11.645
78873SOL    HW238459   1.617   2.093  11.718
78874SOL     OW38460   0.313  12.461   9.998
78874SOL    HW138461   0.287  12.372  10.019
78874SOL    HW238462   0.409  12.461  10.006
78875SOL     OW38463   7.730   7.142   5.864
78875SOL    HW138464   7.762   7.173   5.779
78875SOL    HW238465   7.794   7.075   5.891
78876SOL     OW38466   3.800   3.685  13.466
78876SOL    HW138467   3.812   3.731  13.549
78876SOL    HW238468   3.879   3.632  13.456
78877SOL     OW38469   1.410   3.064   8.394
78877SOL    HW138470   1.399   3.138   8.454
78877SOL    HW238471   1.504   3.046   8.396
78878SOL     OW38472   0.870   6.597   0.547
78878SOL    HW138473   0.830   6.671   0.500
78878SOL    HW238474   0.953   6.582   0.501
78879SOL     OW38475   4.954   3.361   6.588
78879SOL    HW138476   4.964   3.353   6.683
78879SOL    HW238477   4.983   3.451   6.569
78880SOL     OW38478  11.617  10.092   8.234
78880SOL    HW138479  11.675  10.152   8.188
78880SOL    HW238480  11.671  10.056   8.305
78881SOL     OW38481  10.626   0.669  10.415
78881SOL    HW138482  10.653   0.596  10.359
78881SOL    HW238483  10.678   0.659  10.494
78882SOL     OW38484   1.713   6.461  13.823
78882SOL    HW138485   1.687   6.402  13.751
78882SOL    HW238486   1.756   6.404  13.886
78883SOL     OW38487   8.248   1.267  12.968
78883SOL    HW138488   8.284   1.181  12.988
78883SOL    HW238489   8.176   1.250  12.908
78884SOL     OW38490  11.272  14.508   7.363
78884SOL    HW138491  11.284  14.472   7.274
78884SOL    HW238492  11.361  14.521   7.395
78885SOL     OW38493  12.345   0.679   8.476
78885SOL    HW138494  12.421   0.690   8.534
78885SOL    HW238495  12.371   0.610   8.415
78886SOL     OW38496   1.108   3.262   0.860
78886SOL    HW138497   1.098   3.317   0.938
78886SOL    HW238498   1.171   3.309   0.805
78887SOL     OW38499   4.951  14.370   6.782
78887SOL    HW138500   4.863  14.333   6.774
78887SOL    HW238501   5.007  14.295   6.802
78888SOL     OW38502   4.335   7.615   0.549
78888SOL    HW138503   4.262   7.554   0.554
78888SOL    HW238504   4.302   7.688   0.497
78889SOL     OW38505   9.847   3.651   6.504
78889SOL    HW138506   9.766   3.619   6.543
78889SOL    HW238507   9.830   3.653   6.410
78890SOL     OW38508   1.850   2.072   2.269
78890SOL    HW138509   1.792   2.014   2.219
78890SOL    HW238510   1.862   2.148   2.212
78891SOL     OW38511   7.352  12.753  10.995
78891SOL    HW138512   7.302  12.697  11.054
78891SOL    HW238513   7.339  12.842  11.029
78892SOL     OW38514  12.386   5.547  10.107
78892SOL    HW138515  12.354   5.501  10.030
78892SOL    HW238516  12.390   5.639  10.081
78893SOL     OW38517  11.183   8.536   9.197
78893SOL    HW138518  11.157   8.626   9.217
78893SOL    HW238519  11.107   8.483   9.219
78894SOL     OW38520  10.567   2.974  13.608
78894SOL    HW138521  10.618   2.904  13.567
78894SOL    HW238522  10.597   2.976  13.699
78895SOL     OW38523  13.124   9.828   7.409
78895SOL    HW138524  13.198   9.768   7.403
78895SOL    HW238525  13.053   9.775   7.446
78896SOL     OW38526   1.195  11.513   1.838
78896SOL    HW138527   1.228  11.570   1.768
78896SOL    HW238528   1.250  11.435   1.832
78897SOL     OW38529  11.000   5.227  14.250
78897SOL    HW138530  11.026   5.135  14.239
78897SOL    HW238531  10.956   5.249  14.168
78898SOL     OW38532   2.427   9.493   2.013
78898SOL    HW138533   2.484   9.416   2.019
78898SOL    HW238534   2.435   9.535   2.099
78899SOL     OW38535  10.579   9.176  11.613
78899SOL    HW138536  10.593   9.196  11.520
78899SOL    HW238537  10.632   9.241  11.659
78900SOL     OW38538  10.040  12.271   5.759
78900SOL    HW138539   9.976  12.211   5.796
78900SOL    HW238540   9.993  12.353   5.749
78901SOL     OW38541   8.904  14.391   5.000
78901SOL    HW138542   8.914  14.311   5.052
78901SOL    HW238543   8.948  14.372   4.918
78902SOL     OW38544   9.346  11.426  14.260
78902SOL    HW138545   9.283  11.482  14.214
78902SOL    HW238546   9.384  11.372  14.191
78903SOL     OW38547   9.339   3.023  14.117
78903SOL    HW138548   9.266   3.008  14.057
78903SOL    HW238549   9.325   3.112  14.150
78904SOL     OW38550   6.429   2.920  10.629
78904SOL    HW138551   6.336   2.918  10.606
78904SOL    HW238552   6.430   2.918  10.725
78905SOL     OW38553   0.956   7.696  11.797
78905SOL    HW138554   0.890   7.738  11.854
78905SOL    HW238555   0.904   7.645  11.735
78906SOL     OW38556   7.573   2.285   0.593
78906SOL    HW138557   7.569   2.372   0.552
78906SOL    HW238558   7.665   2.272   0.614
78907SOL     OW38559  13.841   1.010  12.905
78907SOL    HW138560  13.756   1.048  12.884
78907SOL    HW238561  13.887   1.006  12.821
78908SOL     OW38562  11.982   2.526   6.746
78908SOL    HW138563  12.042   2.465   6.789
78908SOL    HW238564  11.925   2.471   6.694
78909SOL     OW38565  10.989   6.576   6.677
78909SOL    HW138566  11.071   6.577   6.628
78909SOL    HW238567  10.998   6.502   6.738
78910SOL     OW38568   4.019  10.657   3.015
78910SOL    HW138569   3.959  10.728   3.039
78910SOL    HW238570   4.106  10.697   3.017
78911SOL     OW38571   6.187  10.156   0.514
78911SOL    HW138572   6.135  10.094   0.565
78911SOL    HW238573   6.247  10.195   0.577
78912SOL     OW38574   8.930  12.008  13.704
78912SOL    HW138575   9.011  11.957  13.710
78912SOL    HW238576   8.909  12.032  13.794
78913SOL     OW38577   6.443   9.182   8.257
78913SOL    HW138578   6.531   9.197   8.292
78913SOL    HW238579   6.410   9.270   8.237
78914SOL     OW38580   8.244   2.941   8.936
78914SOL    HW138581   8.272   2.853   8.909
78914SOL    HW238582   8.231   2.988   8.854
78915SOL     OW38583   0.024   9.830  13.210
78915SOL    HW138584   0.088   9.774  13.255
78915SOL    HW238585   0.016   9.791  13.123
78916SOL     OW38586   6.321  11.946  10.359
78916SOL    HW138587   6.308  11.906  10.446
78916SOL    HW238588   6.405  11.912  10.329
78917SOL     OW38589   8.958   7.841   9.256
78917SOL    HW138590   8.956   7.766   9.196
78917SOL    HW238591   8.937   7.916   9.201
78918SOL     OW38592  13.465   8.007   8.895
78918SOL    HW138593  13.415   7.984   8.973
78918SOL    HW238594  13.528   7.936   8.885
78919SOL     OW38595  13.185  11.424   3.099
78919SOL    HW138596  13.168  11.475   3.020
78919SOL    HW238597  13.138  11.471   3.168
78920SOL     OW38598   3.800   7.537   1.858
78920SOL    HW138599   3.767   7.507   1.773
78920SOL    HW238600   3.726   7.525   1.918
78921SOL     OW38601  12.963  10.238  14.415
78921SOL    HW138602  13.028  10.297  14.378
78921SOL    HW238603  12.998  10.151  14.400
78922SOL     OW38604   9.837   5.691  11.990
78922SOL    HW138605   9.753   5.736  11.977
78922SOL    HW238606   9.844   5.633  11.915
78923SOL     OW38607  14.428   8.151   2.677
78923SOL    HW138608  14.374   8.187   2.748
78923SOL    HW238609  14.488   8.222   2.654
78924SOL     OW38610  12.696   0.488   5.723
78924SOL    HW138611  12.761   0.494   5.794
78924SOL    HW238612  12.705   0.398   5.691
78925SOL     OW38613  12.190   3.721   3.518
78925SOL    HW138614  12.116   3.677   3.477
78925SOL    HW238615  12.230   3.653   3.573
78926SOL     OW38616   6.994   0.056   8.933
78926SOL    HW138617   6.954   0.141   8.916
78926SOL    HW238618   7.047   0.038   8.856
78927SOL     OW38619   8.370   0.035   8.318
78927SOL    HW138620   8.336  14.856   8.246
78927SOL    HW238621   8.389   0.120   8.279
78928SOL     OW38622  10.719  11.900   1.663
78928SOL    HW138623  10.797  11.898   1.718
78928SOL    HW238624  10.745  11.950   1.586
78929SOL     OW38625   1.766  12.377   3.228
78929SOL    HW138626   1.861  12.390   3.232
78929SOL    HW238627   1.739  12.375   3.320
78930SOL     OW38628   4.235   6.516   4.692
78930SOL    HW138629   4.277   6.430   4.687
78930SOL    HW238630   4.187   6.524   4.609
78931SOL     OW38631  10.492   3.954   2.499
78931SOL    HW138632  10.558   3.884   2.497
78931SOL    HW238633  10.413   3.914   2.465
78932SOL     OW38634  10.087   5.919   7.625
78932SOL    HW138635  10.149   5.992   7.625
78932SOL    HW238636  10.136   5.846   7.663
78933SOL     OW38637   8.929   1.097  11.896
78933SOL    HW138638   8.908   1.046  11.818
78933SOL    HW238639   8.943   1.186  11.864
78934SOL     OW38640   9.397   1.907   9.976
78934SOL    HW138641   9.402   1.866  10.062
78934SOL    HW238642   9.487   1.909   9.944
78935SOL     OW38643   4.637  10.275   7.523
78935SOL    HW138644   4.705  10.341   7.513
78935SOL    HW238645   4.578  10.290   7.449
78936SOL     OW38646   7.902  13.761   7.856
78936SOL    HW138647   7.849  13.738   7.932
78936SOL    HW238648   7.842  13.757   7.782
78937SOL     OW38649   0.301   2.167   2.678
78937SOL    HW138650   0.394   2.146   2.687
78937SOL    HW238651   0.263   2.147   2.764
78938SOL     OW38652  12.304   4.553  10.902
78938SOL    HW138653  12.242   4.579  10.971
78938SOL    HW238654  12.303   4.626  10.840
78939SOL     OW38655  13.244   7.511   0.806
78939SOL    HW138656  13.177   7.503   0.738
78939SOL    HW238657  13.316   7.557   0.764
78940SOL     OW38658   1.965  11.681   7.047
78940SOL    HW138659   1.874  11.656   7.059
78940SOL    HW238660   2.008  11.601   7.015
78941SOL     OW38661   3.861  11.204   2.720
78941SOL    HW138662   3.930  11.237   2.776
78941SOL    HW238663   3.858  11.110   2.738
78942SOL     OW38664  11.287   3.529   0.905
78942SOL    HW138665  11.377   3.541   0.937
78942SOL    HW238666  11.293   3.455   0.844
78943SOL     OW38667   1.140   9.682  13.597
78943SOL    HW138668   1.139   9.636  13.513
78943SOL    HW238669   1.047   9.688  13.621
78944SOL     OW38670   9.438  14.109  12.500
78944SOL    HW138671   9.532  14.106  12.483
78944SOL    HW238672   9.432  14.112  12.596
78945SOL     OW38673  14.279   3.468  12.287
78945SOL    HW138674  14.273   3.489  12.193
78945SOL    HW238675  14.232   3.385  12.295
78946SOL     OW38676   9.571   1.614  13.292
78946SOL    HW138677   9.491   1.651  13.257
78946SOL    HW238678   9.600   1.677  13.358
78947SOL     OW38679  10.931   4.735   3.408
78947SOL    HW138680  10.907   4.818   3.366
78947SOL    HW238681  10.848   4.695   3.432
78948SOL     OW38682  14.848   8.269   6.815
78948SOL    HW138683  14.828   8.244   6.905
78948SOL    HW238684  14.787   8.341   6.796
78949SOL     OW38685  11.936   3.741   9.266
78949SOL    HW138686  11.934   3.827   9.308
78949SOL    HW238687  11.907   3.758   9.177
78950SOL     OW38688   6.236   4.233   7.041
78950SOL    HW138689   6.267   4.145   7.016
78950SOL    HW238690   6.271   4.245   7.130
78951SOL     OW38691  12.577   0.874   6.563
78951SOL    HW138692  12.621   0.923   6.493
78951SOL    HW238693  12.529   0.940   6.612
78952SOL     OW38694  14.542   2.915   0.564
78952SOL    HW138695  14.462   2.964   0.581
78952SOL    HW238696  14.609   2.960   0.616
78953SOL     OW38697   2.044   8.468   5.565
78953SOL    HW138698   2.039   8.504   5.476
78953SOL    HW238699   1.952   8.458   5.591
78954SOL     OW38700  10.188   1.890   1.472
78954SOL    HW138701  10.278   1.879   1.440
78954SOL    HW238702  10.176   1.985   1.475
78955SOL     OW38703   0.813  13.129  13.371
78955SOL    HW138704   0.743  13.192  13.357
78955SOL    HW238705   0.820  13.121  13.466
78956SOL     OW38706   1.078   6.410  10.085
78956SOL    HW138707   1.087   6.318  10.113
78956SOL    HW238708   1.085   6.460  10.167
78957SOL     OW38709   5.546   3.531  10.210
78957SOL    HW138710   5.526   3.562  10.122
78957SOL    HW238711   5.614   3.465  10.196
78958SOL     OW38712   2.909   6.289   7.141
78958SOL    HW138713   2.888   6.244   7.059
78958SOL    HW238714   2.835   6.347   7.156
78959SOL     OW38715  11.632   1.350  11.586
78959SOL    HW138716  11.671   1.343  11.673
78959SOL    HW238717  11.550   1.301  11.592
78960SOL     OW38718  13.863   5.187  11.012
78960SOL    HW138719  13.795   5.236  10.965
78960SOL    HW238720  13.817   5.109  11.044
78961SOL     OW38721   0.411   9.313   2.347
78961SOL    HW138722   0.347   9.338   2.414
78961SOL    HW238723   0.364   9.323   2.265
78962SOL     OW38724   7.158  11.018  13.429
78962SOL    HW138725   7.072  11.003  13.468
78962SOL    HW238726   7.205  11.070  13.493
78963SOL     OW38727  10.618   8.590   1.075
78963SOL    HW138728  10.692   8.645   1.102
78963SOL    HW238729  10.594   8.540   1.153
78964SOL     OW38730   3.798   8.513   3.112
78964SOL    HW138731   3.813   8.423   3.139
78964SOL    HW238732   3.770   8.507   3.021
78965SOL     OW38733   3.145   2.684   4.905
78965SOL    HW138734   3.126   2.758   4.847
78965SOL    HW238735   3.146   2.722   4.993
78966SOL     OW38736  13.592   1.913  13.789
78966SOL    HW138737  13.650   1.883  13.718
78966SOL    HW238738  13.527   1.844  13.797
78967SOL     OW38739   5.245  11.548  14.177
78967SOL    HW138740   5.247  11.644  14.180
78967SOL    HW238741   5.279  11.521  14.262
78968SOL     OW38742  12.824   2.732   9.684
78968SOL    HW138743  12.897   2.670   9.691
78968SOL    HW238744  12.777   2.723   9.766
78969SOL     OW38745  12.049   9.097   1.853
78969SOL    HW138746  12.035   9.171   1.795
78969SOL    HW238747  12.085   9.136   1.933
78970SOL     OW38748   9.045   9.774  13.987
78970SOL    HW138749   9.104   9.727  14.046
78970SOL    HW238750   9.061   9.867  14.007
78971SOL     OW38751   3.849  10.151  14.676
78971SOL    HW138752   3.760  10.183  14.694
78971SOL    HW238753   3.838  10.088  14.606
78972SOL     OW38754   3.345   0.993   7.648
78972SOL    HW138755   3.379   0.915   7.691
78972SOL    HW238756   3.353   1.063   7.713
78973SOL     OW38757  10.838   1.500   1.971
78973SOL    HW138758  10.852   1.579   1.919
78973SOL    HW238759  10.862   1.428   1.912
78974SOL     OW38760   6.086   8.625  14.473
78974SOL    HW138761   6.023   8.562  14.435
78974SOL    HW238762   6.137   8.573  14.535
78975SOL     OW38763  13.860  14.169  14.365
78975SOL    HW138764  13.937  14.211  14.402
78975SOL    HW238765  13.890  14.133  14.281
78976SOL     OW38766   9.700   6.035  11.470
78976SOL    HW138767   9.618   6.013  11.425
78976SOL    HW238768   9.710   5.966  11.536
78977SOL     OW38769  11.220   8.255  10.997
78977SOL    HW138770  11.137   8.222  10.962
78977SOL    HW238771  11.261   8.300  10.923
78978SOL     OW38772  12.475  14.775  14.256
78978SOL    HW138773  12.416  14.704  14.233
78978SOL    HW238774  12.513  14.749  14.339
78979SOL     OW38775   0.969  13.273  13.841
78979SOL    HW138776   0.971  13.333  13.766
78979SOL    HW238777   1.004  13.324  13.914
78980SOL     OW38778   0.582  10.658   9.502
78980SOL    HW138779   0.667  10.702   9.494
78980SOL    HW238780   0.599  10.568   9.475
78981SOL     OW38781   8.487  13.791   2.524
78981SOL    HW138782   8.573  13.776   2.563
78981SOL    HW238783   8.426  13.770   2.595
78982SOL     OW38784  10.516   4.399   5.233
78982SOL    HW138785  10.539   4.479   5.185
78982SOL    HW238786  10.507   4.429   5.324
78983SOL     OW38787   2.080  14.845  14.042
78983SOL    HW138788   2.133  14.772  14.072
78983SOL    HW238789   2.005  14.847  14.102
78984SOL     OW38790  12.672   7.408   4.861
78984SOL    HW138791  12.729   7.484   4.875
78984SOL    HW238792  12.615   7.434   4.789
78985SOL     OW38793   6.531   3.598   0.844
78985SOL    HW138794   6.480   3.602   0.925
78985SOL    HW238795   6.526   3.686   0.807
78986SOL     OW38796   0.211   9.769  10.498
78986SOL    HW138797   0.179   9.812  10.578
78986SOL    HW238798   0.299   9.740  10.520
78987SOL     OW38799  13.008   6.748   5.502
78987SOL    HW138800  12.923   6.749   5.547
78987SOL    HW238801  13.012   6.661   5.463
78988SOL     OW38802   6.551  14.099   9.884
78988SOL    HW138803   6.474  14.072   9.934
78988SOL    HW238804   6.613  14.026   9.896
78989SOL     OW38805  13.221   7.980   4.433
78989SOL    HW138806  13.169   7.967   4.513
78989SOL    HW238807  13.174   7.932   4.365
78990SOL     OW38808   3.651   6.636  12.382
78990SOL    HW138809   3.600   6.664  12.305
78990SOL    HW238810   3.599   6.567  12.422
78991SOL     OW38811   3.771   5.362   1.736
78991SOL    HW138812   3.813   5.277   1.749
78991SOL    HW238813   3.741   5.360   1.646
78992SOL     OW38814  13.460   5.810   9.854
78992SOL    HW138815  13.543   5.761   9.850
78992SOL    HW238816  13.458   5.845   9.943
78993SOL     OW38817   1.520   0.429  14.541
78993SOL    HW138818   1.452   0.375  14.500
78993SOL    HW238819   1.472   0.506  14.573
78994SOL     OW38820   5.931  14.475   8.823
78994SOL    HW138821   5.935  14.477   8.919
78994SOL    HW238822   5.994  14.541   8.795
78995SOL     OW38823   0.134  14.835   0.445
78995SOL    HW138824   0.220  14.794   0.450
78995SOL    HW238825   0.087  14.786   0.377
78996SOL     OW38826  10.017  11.308   5.950
78996SOL    HW138827  10.036  11.219   5.919
78996SOL    HW238828  10.058  11.365   5.885
78997SOL     OW38829   2.807   6.503   5.416
78997SOL    HW138830   2.738   6.503   5.481
78997SOL    HW238831   2.870   6.437   5.447
78998SOL     OW38832  14.837  11.172   0.502
78998SOL    HW138833  14.850  11.192   0.409
78998SOL    HW238834  14.827  11.077   0.504
78999SOL     OW38835   0.781  12.139   5.731
78999SOL    HW138836   0.717  12.116   5.798
78999SOL    HW238837   0.757  12.228   5.705
79000SOL     OW38838   8.852   8.211  11.747
79000SOL    HW138839   8.825   8.279  11.686
79000SOL    HW238840   8.911   8.155  11.696
79001SOL     OW38841  11.146   7.315   2.507
79001SOL    HW138842  11.103   7.230   2.496
79001SOL    HW238843  11.074   7.378   2.504
79002SOL     OW38844   7.928   3.668  10.888
79002SOL    HW138845   7.963   3.666  10.977
79002SOL    HW238846   7.952   3.755  10.855
79003SOL     OW38847  10.906  14.303  13.578
79003SOL    HW138848  10.828  14.249  13.591
79003SOL    HW238849  10.973  14.261  13.632
79004SOL     OW38850   6.041   5.666   6.077
79004SOL    HW138851   6.080   5.613   6.007
79004SOL    HW238852   5.957   5.696   6.042
79005SOL     OW38853   4.782  10.038  12.363
79005SOL    HW138854   4.795   9.943  12.361
79005SOL    HW238855   4.747  10.060  12.277
79006SOL     OW38856   5.953   2.750   0.706
79006SOL    HW138857   5.945   2.783   0.796
79006SOL    HW238858   5.966   2.827   0.652
79007SOL     OW38859   5.741   9.743  12.757
79007SOL    HW138860   5.833   9.740  12.785
79007SOL    HW238861   5.691   9.719  12.835
79008SOL     OW38862   8.471   4.301   4.768
79008SOL    HW138863   8.550   4.281   4.817
79008SOL    HW238864   8.496   4.371   4.709
79009SOL     OW38865   6.302  14.255   2.188
79009SOL    HW138866   6.313  14.165   2.157
79009SOL    HW238867   6.294  14.247   2.283
79010SOL     OW38868  11.253   0.423   7.191
79010SOL    HW138869  11.291   0.470   7.265
79010SOL    HW238870  11.235   0.336   7.225
79011SOL     OW38871   8.728  10.874  11.796
79011SOL    HW138872   8.754  10.965  11.810
79011SOL    HW238873   8.717  10.867  11.701
79012SOL     OW38874  14.045  14.709   1.020
79012SOL    HW138875  14.037  14.788   0.967
79012SOL    HW238876  14.122  14.664   0.985
79013SOL     OW38877   2.153   7.468   5.364
79013SOL    HW138878   2.219   7.486   5.297
79013SOL    HW238879   2.122   7.555   5.391
79014SOL     OW38880   7.663   7.889   1.590
79014SOL    HW138881   7.757   7.876   1.605
79014SOL    HW238882   7.653   7.984   1.586
79015SOL     OW38883  12.813   0.875   8.509
79015SOL    HW138884  12.729   0.884   8.463
79015SOL    HW238885  12.876   0.914   8.449
79016SOL     OW38886   4.065  11.733   7.353
79016SOL    HW138887   4.041  11.643   7.330
79016SOL    HW238888   4.104  11.769   7.274
79017SOL     OW38889   4.176   3.054   4.547
79017SOL    HW138890   4.223   3.045   4.464
79017SOL    HW238891   4.108   2.987   4.543
79018SOL     OW38892   5.330   7.901   1.504
79018SOL    HW138893   5.262   7.873   1.443
79018SOL    HW238894   5.388   7.957   1.451
79019SOL     OW38895  10.472   3.986  11.763
79019SOL    HW138896  10.436   4.049  11.700
79019SOL    HW238897  10.431   4.009  11.846
79020SOL     OW38898  13.794  11.935   3.609
79020SOL    HW138899  13.744  11.860   3.576
79020SOL    HW238900  13.853  11.898   3.674
79021SOL     OW38901   2.501   3.499  10.444
79021SOL    HW138902   2.525   3.428  10.503
79021SOL    HW238903   2.559   3.488  10.368
79022SOL     OW38904  12.913   3.522   6.510
79022SOL    HW138905  12.920   3.444   6.456
79022SOL    HW238906  12.869   3.586   6.454
79023SOL     OW38907   2.796   3.331  12.859
79023SOL    HW138908   2.795   3.362  12.949
79023SOL    HW238909   2.884   3.350  12.827
79024SOL     OW38910   3.175   1.113   0.879
79024SOL    HW138911   3.211   1.026   0.865
79024SOL    HW238912   3.082   1.104   0.857
79025SOL     OW38913   6.779  14.576   7.788
79025SOL    HW138914   6.829  14.652   7.758
79025SOL    HW238915   6.709  14.613   7.841
79026SOL     OW38916  11.611   7.491  11.688
79026SOL    HW138917  11.550   7.525  11.754
79026SOL    HW238918  11.697   7.499  11.729
79027SOL     OW38919   5.836   6.627  14.832
79027SOL    HW138920   5.820   6.534  14.814
79027SOL    HW238921   5.931   6.633  14.843
79028SOL     OW38922  10.120   7.027   1.431
79028SOL    HW138923  10.028   7.009   1.412
79028SOL    HW238924  10.168   6.967   1.374
79029SOL     OW38925  14.822  14.695  14.645
79029SOL    HW138926  14.768  14.683  14.567
79029SOL    HW238927  14.803  14.619  14.700
79030SOL     OW38928  12.981   1.725   2.092
79030SOL    HW138929  12.916   1.655   2.095
79030SOL    HW238930  13.052   1.690   2.038
79031SOL     OW38931  14.793  11.369   9.455
79031SOL    HW138932  14.729  11.409   9.514
79031SOL    HW238933  14.862  11.337   9.512
79032SOL     OW38934  13.203  11.768   7.334
79032SOL    HW138935  13.267  11.808   7.275
79032SOL    HW238936  13.122  11.765   7.282
79033SOL     OW38937   9.492  11.012  10.533
79033SOL    HW138938   9.481  11.013  10.629
79033SOL    HW238939   9.402  11.014  10.499
79034SOL     OW38940  13.785   7.274   5.416
79034SOL    HW138941  13.784   7.268   5.511
79034SOL    HW238942  13.693   7.279   5.391
79035SOL     OW38943  11.018   6.601   9.286
79035SOL    HW138944  10.935   6.642   9.312
79035SOL    HW238945  11.081   6.673   9.287
79036SOL     OW38946   1.823   9.703   0.252
79036SOL    HW138947   1.887   9.666   0.192
79036SOL    HW238948   1.784   9.776   0.204
79037SOL     OW38949  10.937   3.071   3.882
79037SOL    HW138950  10.957   2.992   3.832
79037SOL    HW238951  10.894   3.040   3.961
79038SOL     OW38952   1.834   1.656  12.490
79038SOL    HW138953   1.798   1.581  12.442
79038SOL    HW238954   1.926   1.634  12.503
79039SOL     OW38955   5.151   4.316   2.720
79039SOL    HW138956   5.058   4.297   2.724
79039SOL    HW238957   5.193   4.229   2.714
79040SOL     OW38958   1.107   1.762   3.143
79040SOL    HW138959   1.193   1.723   3.157
79040SOL    HW238960   1.117   1.814   3.063
79041SOL     OW38961   8.980  13.114  13.952
79041SOL    HW138962   8.936  13.192  13.919
79041SOL    HW238963   8.947  13.043  13.896
79042SOL     OW38964   0.346  11.323   7.773
79042SOL    HW138965   0.366  11.302   7.681
79042SOL    HW238966   0.428  11.356   7.809
79043SOL     OW38967  12.049   4.315  12.080
79043SOL    HW138968  12.137   4.352  12.077
79043SOL    HW238969  11.992   4.389  12.102
79044SOL     OW38970  10.151  11.570  14.071
79044SOL    HW138971  10.187  11.595  14.156
79044SOL    HW238972  10.171  11.477  14.063
79045SOL     OW38973   8.977   0.170  12.105
79045SOL    HW138974   8.924   0.124  12.171
79045SOL    HW238975   9.060   0.186  12.150
79046SOL     OW38976  13.641   6.708   1.558
79046SOL    HW138977  13.682   6.794   1.549
79046SOL    HW238978  13.674   6.674   1.641
79047SOL     OW38979  10.414  10.886  13.096
79047SOL    HW138980  10.450  10.879  13.007
79047SOL    HW238981  10.321  10.865  13.086
79048SOL     OW38982   4.418  11.325   4.923
79048SOL    HW138983   4.462  11.241   4.934
79048SOL    HW238984   4.433  11.348   4.831
79049SOL     OW38985   1.837  13.609   4.628
79049SOL    HW138986   1.746  13.636   4.639
79049SOL    HW238987   1.877  13.625   4.714
79050SOL     OW38988   2.178   9.581  10.235
79050SOL    HW138989   2.249   9.630  10.274
79050SOL    HW238990   2.110   9.579  10.303
79051SOL     OW38991   3.530   7.680  14.794
79051SOL    HW138992   3.519   7.680  14.699
79051SOL    HW238993   3.445   7.651  14.827
79052SOL     OW38994   7.020  10.391   9.628
79052SOL    HW138995   7.011  10.483   9.603
79052SOL    HW238996   7.112  10.371   9.613
79053SOL     OW38997  11.451   0.798   4.058
79053SOL    HW138998  11.413   0.883   4.037
79053SOL    HW238999  11.545   0.810   4.045
79054SOL     OW39000  14.814  12.685  11.266
79054SOL    HW139001   0.012  12.729  11.311
79054SOL    HW239002  14.839  12.684  11.174
79055SOL     OW39003   5.808  11.149   4.916
79055SOL    HW139004   5.712  11.139   4.914
79055SOL    HW239005   5.833  11.114   5.001
79056SOL     OW39006   4.141  13.324   0.836
79056SOL    HW139007   4.111  13.242   0.798
79056SOL    HW239008   4.140  13.309   0.931
79057SOL     OW39009  11.536  10.152   2.352
79057SOL    HW139010  11.485  10.224   2.315
79057SOL    HW239011  11.608  10.195   2.397
79058SOL     OW39012  10.241   3.457   4.316
79058SOL    HW139013  10.214   3.366   4.311
79058SOL    HW239014  10.299   3.469   4.240
79059SOL     OW39015   0.371   9.746   6.143
79059SOL    HW139016   0.368   9.838   6.118
79059SOL    HW239017   0.284   9.728   6.179
79060SOL     OW39018  11.836   5.644   6.931
79060SOL    HW139019  11.772   5.607   6.992
79060SOL    HW239020  11.897   5.572   6.915
79061SOL     OW39021  10.181   2.463  10.623
79061SOL    HW139022  10.112   2.499  10.678
79061SOL    HW239023  10.260   2.511  10.648
79062SOL     OW39024  12.865   1.283   2.487
79062SOL    HW139025  12.879   1.339   2.563
79062SOL    HW239026  12.942   1.299   2.432
79063SOL     OW39027  13.531   1.007   9.664
79063SOL    HW139028  13.566   1.056   9.590
79063SOL    HW239029  13.458   1.061   9.696
79064SOL     OW39030  11.136  14.086  10.312
79064SOL    HW139031  11.121  14.179  10.331
79064SOL    HW239032  11.095  14.072  10.227
79065SOL     OW39033   8.185  12.518   2.567
79065SOL    HW139034   8.259  12.520   2.627
79065SOL    HW239035   8.124  12.455   2.606
79066SOL     OW39036  14.357  11.279   5.616
79066SOL    HW139037  14.372  11.365   5.576
79066SOL    HW239038  14.332  11.223   5.542
79067SOL     OW39039   4.464   1.672   1.791
79067SOL    HW139040   4.389   1.616   1.812
79067SOL    HW239041   4.426   1.758   1.775
79068SOL     OW39042   4.021   8.199   0.056
79068SOL    HW139043   4.093   8.212  14.868
79068SOL    HW239044   3.963   8.137   0.011
79069SOL     OW39045  14.871   5.303   8.076
79069SOL    HW139046   0.066   5.362   8.107
79069SOL    HW239047  14.789   5.347   8.102
79070SOL     OW39048   1.032   5.062   0.123
79070SOL    HW139049   1.064   5.120   0.055
79070SOL    HW239050   0.984   5.120   0.183
79071SOL     OW39051   3.287  13.708  12.317
79071SOL    HW139052   3.251  13.789  12.353
79071SOL    HW239053   3.375  13.731  12.289
79072SOL     OW39054   6.799  12.919   7.626
79072SOL    HW139055   6.823  13.011   7.617
79072SOL    HW239056   6.713  12.920   7.668
79073SOL     OW39057   9.918  14.769   5.123
79073SOL    HW139058   9.961  14.811   5.197
79073SOL    HW239059   9.920  14.835   5.053
79074SOL     OW39060   3.886   6.796   5.859
79074SOL    HW139061   3.948   6.777   5.789
79074SOL    HW239062   3.897   6.889   5.876
79075SOL     OW39063  11.073  14.160   3.157
79075SOL    HW139064  11.030  14.240   3.191
79075SOL    HW239065  11.052  14.160   3.064
79076SOL     OW39066   0.188  12.236  10.067
79076SOL    HW139067   0.259  12.180  10.098
79076SOL    HW239068   0.119  12.175  10.040
79077SOL     OW39069  13.940   0.253   9.785
79077SOL    HW139070  14.030   0.224   9.769
79077SOL    HW239071  13.943   0.295   9.871
79078SOL     OW39072  12.905   4.917  10.786
79078SOL    HW139073  12.866   4.834  10.815
79078SOL    HW239074  12.889   4.919  10.692
79079SOL     OW39075   7.333   8.216  12.537
79079SOL    HW139076   7.264   8.166  12.581
79079SOL    HW239077   7.313   8.205  12.444
79080SOL     OW39078   2.411   3.895  14.025
79080SOL    HW139079   2.419   3.943  14.108
79080SOL    HW239080   2.347   3.826  14.044
79081SOL     OW39081   0.241   9.478   4.188
79081SOL    HW139082   0.194   9.545   4.139
79081SOL    HW239083   0.309   9.448   4.128
79082SOL     OW39084   5.388   9.474   9.454
79082SOL    HW139085   5.403   9.406   9.388
79082SOL    HW239086   5.362   9.426   9.532
79083SOL     OW39087   6.271   5.114   8.361
79083SOL    HW139088   6.208   5.047   8.386
79083SOL    HW239089   6.301   5.150   8.445
79084SOL     OW39090  10.894   5.377   5.545
79084SOL    HW139091  10.917   5.468   5.524
79084SOL    HW239092  10.818   5.359   5.491
79085SOL     OW39093   7.347   2.234   2.411
79085SOL    HW139094   7.358   2.232   2.506
79085SOL    HW239095   7.398   2.309   2.382
79086SOL     OW39096   1.599   5.383   9.867
79086SOL    HW139097   1.619   5.443   9.795
79086SOL    HW239098   1.678   5.384   9.922
79087SOL     OW39099  14.306   4.352  10.451
79087SOL    HW139100  14.400   4.340  10.458
79087SOL    HW239101  14.275   4.357  10.542
79088SOL     OW39102   1.582   4.032   0.958
79088SOL    HW139103   1.535   4.103   0.914
79088SOL    HW239104   1.622   4.073   1.035
79089SOL     OW39105   0.595   7.931   8.833
79089SOL    HW139106   0.608   8.023   8.854
79089SOL    HW239107   0.647   7.916   8.754
79090SOL     OW39108   8.153  13.911   3.166
79090SOL    HW139109   8.188  13.884   3.251
79090SOL    HW239110   8.158  14.007   3.167
79091SOL     OW39111  10.015   8.143  10.603
79091SOL    HW139112   9.984   8.185  10.523
79091SOL    HW239113  10.065   8.212  10.647
79092SOL     OW39114  10.173  11.656   5.904
79092SOL    HW139115  10.216  11.720   5.847
79092SOL    HW239116  10.239  11.636   5.971
79093SOL     OW39117   6.545  13.272   1.907
79093SOL    HW139118   6.497  13.354   1.917
79093SOL    HW239119   6.637  13.297   1.919
79094SOL     OW39120   5.816  10.717   6.463
79094SOL    HW139121   5.772  10.675   6.389
79094SOL    HW239122   5.787  10.668   6.540
79095SOL     OW39123   4.293   8.106   6.370
79095SOL    HW139124   4.374   8.157   6.364
79095SOL    HW239125   4.321   8.020   6.401
79096SOL     OW39126  11.346   3.620   6.101
79096SOL    HW139127  11.274   3.575   6.057
79096SOL    HW239128  11.424   3.596   6.051
79097SOL     OW39129  13.870   1.233   3.823
79097SOL    HW139130  13.839   1.235   3.913
79097SOL    HW239131  13.890   1.324   3.802
79098SOL     OW39132   8.788  10.145   1.081
79098SOL    HW139133   8.717  10.198   1.044
79098SOL    HW239134   8.832  10.204   1.142
79099SOL     OW39135   2.411   1.231   2.661
79099SOL    HW139136   2.366   1.173   2.600
79099SOL    HW239137   2.348   1.300   2.681
79100SOL     OW39138  10.002  10.160   1.866
79100SOL    HW139139   9.965  10.086   1.914
79100SOL    HW239140  10.020  10.125   1.779
79101SOL     OW39141  11.299   1.309   4.172
79101SOL    HW139142  11.368   1.243   4.168
79101SOL    HW239143  11.326   1.368   4.243
79102SOL     OW39144  13.151   2.005   4.009
79102SOL    HW139145  13.082   2.070   3.998
79102SOL    HW239146  13.106   1.925   4.035
79103SOL     OW39147   4.854   8.541  12.343
79103SOL    HW139148   4.899   8.497  12.271
79103SOL    HW239149   4.896   8.627  12.349
79104SOL     OW39150   1.667   7.107  14.146
79104SOL    HW139151   1.661   7.193  14.187
79104SOL    HW239152   1.674   7.125  14.052
79105SOL     OW39153  10.550   6.175   4.816
79105SOL    HW139154  10.607   6.251   4.810
79105SOL    HW239155  10.486   6.198   4.883
79106SOL     OW39156   4.798  11.946  10.460
79106SOL    HW139157   4.712  11.905  10.448
79106SOL    HW239158   4.857  11.892  10.408
79107SOL     OW39159  12.389   7.630   4.426
79107SOL    HW139160  12.328   7.703   4.430
79107SOL    HW239161  12.471   7.666   4.459
79108SOL     OW39162   6.520   4.966  10.566
79108SOL    HW139163   6.521   5.023  10.643
79108SOL    HW239164   6.469   4.890  10.593
79109SOL     OW39165   3.791   4.737   4.715
79109SOL    HW139166   3.717   4.746   4.776
79109SOL    HW239167   3.777   4.806   4.651
79110SOL     OW39168  12.255  12.246   6.282
79110SOL    HW139169  12.310  12.211   6.212
79110SOL    HW239170  12.312  12.305   6.330
79111SOL     OW39171  13.488  10.335  14.836
79111SOL    HW139172  13.488  10.240  14.826
79111SOL    HW239173  13.418  10.353   0.024
79112SOL     OW39174   1.321   0.615  14.627
79112SOL    HW139175   1.362   0.653  14.705
79112SOL    HW239176   1.259   0.551  14.662
79113SOL     OW39177   5.752   1.254   8.717
79113SOL    HW139178   5.773   1.210   8.635
79113SOL    HW239179   5.791   1.199   8.785
79114SOL     OW39180   4.444   3.934  10.678
79114SOL    HW139181   4.353   3.913  10.699
79114SOL    HW239182   4.489   3.932  10.763
79115SOL     OW39183  10.680   6.717  10.898
79115SOL    HW139184  10.697   6.754  10.984
79115SOL    HW239185  10.640   6.789  10.848
79116SOL     OW39186   5.583   8.943  10.094
79116SOL    HW139187   5.499   8.934  10.138
79116SOL    HW239188   5.562   8.971  10.006
79117SOL     OW39189   4.482   9.952  13.994
79117SOL    HW139190   4.449   9.927  13.907
79117SOL    HW239191   4.427  10.026  14.020
79118SOL     OW39192  14.061  11.325   9.755
79118SOL    HW139193  14.070  11.346   9.847
79118SOL    HW239194  14.103  11.399   9.709
79119SOL     OW39195   9.542   3.403   5.758
79119SOL    HW139196   9.608   3.349   5.714
79119SOL    HW239197   9.471   3.341   5.779
79120SOL     OW39198  12.544  14.835   0.691
79120SOL    HW139199  12.616  14.795   0.642
79120SOL    HW239200  12.469  14.778   0.674
79121SOL     OW39201   1.164   9.643   4.262
79121SOL    HW139202   1.130   9.729   4.236
79121SOL    HW239203   1.087   9.596   4.295
79122SOL     OW39204   3.425  11.895   0.777
79122SOL    HW139205   3.512  11.908   0.740
79122SOL    HW239206   3.378  11.976   0.759
79123SOL     OW39207   9.999   3.193  13.452
79123SOL    HW139208   9.934   3.153  13.511
79123SOL    HW239209  10.001   3.135  13.376
79124SOL     OW39210   7.364  13.732   7.099
79124SOL    HW139211   7.374  13.780   7.016
79124SOL    HW239212   7.401  13.791   7.165
79125SOL     OW39213   0.740   6.222   0.942
79125SOL    HW139214   0.759   6.198   0.852
79125SOL    HW239215   0.802   6.171   0.994
79126SOL     OW39216  14.819  12.979   3.765
79126SOL    HW139217   0.015  13.007   3.825
79126SOL    HW239218  14.747  12.955   3.822
79127SOL     OW39219   5.044  12.327  10.747
79127SOL    HW139220   5.036  12.286  10.834
79127SOL    HW239221   4.954  12.332  10.715
79128SOL     OW39222  12.005  10.856   9.674
79128SOL    HW139223  11.934  10.800   9.704
79128SOL    HW239224  11.989  10.940   9.717
79129SOL     OW39225   0.533   3.742   8.960
79129SOL    HW139226   0.454   3.746   8.905
79129SOL    HW239227   0.544   3.649   8.980
79130SOL     OW39228   2.284   3.680   6.119
79130SOL    HW139229   2.300   3.747   6.053
79130SOL    HW239230   2.202   3.638   6.093
79131SOL     OW39231  10.686  13.291  10.861
79131SOL    HW139232  10.652  13.220  10.916
79131SOL    HW239233  10.609  13.323  10.814
79132SOL     OW39234   0.490  11.745   7.773
79132SOL    HW139235   0.525  11.772   7.689
79132SOL    HW239236   0.497  11.823   7.828
79133SOL     OW39237   8.594   9.539   5.131
79133SOL    HW139238   8.646   9.576   5.060
79133SOL    HW239239   8.586   9.610   5.195
79134SOL     OW39240   4.596  11.746   7.946
79134SOL    HW139241   4.647  11.737   7.866
79134SOL    HW239242   4.537  11.820   7.930
79135SOL     OW39243   3.692   3.476   9.669
79135SOL    HW139244   3.773   3.429   9.688
79135SOL    HW239245   3.684   3.538   9.741
79136SOL     OW39246  10.480  12.218  13.097
79136SOL    HW139247  10.569  12.251  13.088
79136SOL    HW239248  10.462  12.172  13.015
79137SOL     OW39249   1.129  11.174  11.502
79137SOL    HW139250   1.215  11.180  11.543
79137SOL    HW239251   1.076  11.241  11.545
79138SOL     OW39252  10.639  12.603  11.467
79138SOL    HW139253  10.663  12.683  11.419
79138SOL    HW239254  10.606  12.543  11.400
79139SOL     OW39255   4.252   5.352  10.240
79139SOL    HW139256   4.331   5.405  10.228
79139SOL    HW239257   4.273   5.268  10.198
79140SOL     OW39258   4.822  13.554  10.118
79140SOL    HW139259   4.809  13.459  10.120
79140SOL    HW239260   4.836  13.574  10.025
79141SOL     OW39261   5.055   3.688  14.728
79141SOL    HW139262   5.036   3.621  14.794
79141SOL    HW239263   5.084   3.638  14.651
79142SOL     OW39264   8.407  13.520   6.999
79142SOL    HW139265   8.464  13.581   6.952
79142SOL    HW239266   8.323  13.565   7.006
79143SOL     OW39267   3.704   1.338   9.909
79143SOL    HW139268   3.758   1.405   9.868
79143SOL    HW239269   3.667   1.289   9.835
79144SOL     OW39270   1.080   3.123   3.529
79144SOL    HW139271   1.084   3.129   3.624
79144SOL    HW239272   1.056   3.032   3.512
79145SOL     OW39273   0.593  14.828   9.838
79145SOL    HW139274   0.504  14.862   9.826
79145SOL    HW239275   0.646   0.001   9.773
79146SOL     OW39276   8.142   5.639   5.951
79146SOL    HW139277   8.220   5.618   5.899
79146SOL    HW239278   8.177   5.679   6.031
79147SOL     OW39279   5.200  14.271   0.459
79147SOL    HW139280   5.262  14.343   0.449
79147SOL    HW239281   5.250  14.193   0.435
79148SOL     OW39282   7.084   4.154  13.533
79148SOL    HW139283   7.159   4.105  13.501
79148SOL    HW239284   7.014   4.089  13.541
79149SOL     OW39285   9.794   7.751   1.975
79149SOL    HW139286   9.767   7.732   2.065
79149SOL    HW239287   9.714   7.738   1.923
79150SOL     OW39288   6.777  11.865   4.796
79150SOL    HW139289   6.694  11.837   4.834
79150SOL    HW239290   6.840  11.800   4.825
79151SOL     OW39291  11.657   6.555   9.151
79151SOL    HW139292  11.653   6.505   9.069
79151SOL    HW239293  11.598   6.629   9.137
79152SOL     OW39294   7.892   0.780   7.975
79152SOL    HW139295   7.912   0.689   7.952
79152SOL    HW239296   7.973   0.813   8.013
79153SOL     OW39297  12.387  12.178   9.717
79153SOL    HW139298  12.394  12.143   9.806
79153SOL    HW239299  12.477  12.178   9.684
79154SOL     OW39300   7.861   3.159   8.510
79154SOL    HW139301   7.774   3.126   8.534
79154SOL    HW239302   7.862   3.156   8.414
79155SOL     OW39303  11.830   9.598   5.196
79155SOL    HW139304  11.833   9.557   5.110
79155SOL    HW239305  11.798   9.686   5.180
79156SOL     OW39306  12.131   1.706   4.673
79156SOL    HW139307  12.081   1.668   4.601
79156SOL    HW239308  12.207   1.745   4.632
79157SOL     OW39309  12.148  13.866   6.707
79157SOL    HW139310  12.065  13.821   6.721
79157SOL    HW239311  12.195  13.812   6.643
79158SOL     OW39312   4.380   1.144   9.598
79158SOL    HW139313   4.416   1.165   9.512
79158SOL    HW239314   4.450   1.168   9.659
79159SOL     OW39315   4.293   5.658  10.361
79159SOL    HW139316   4.387   5.650  10.340
79159SOL    HW239317   4.280   5.597  10.434
79160SOL     OW39318   6.171   9.824   2.654
79160SOL    HW139319   6.083   9.791   2.634
79160SOL    HW239320   6.177   9.818   2.749
79161SOL     OW39321   0.788  14.787  10.048
79161SOL    HW139322   0.719  14.784   9.982
79161SOL    HW239323   0.864  14.747  10.006
79162SOL     OW39324   1.792   5.853  13.852
79162SOL    HW139325   1.832   5.905  13.922
79162SOL    HW239326   1.706   5.892  13.840
79163SOL     OW39327   9.893   1.314   6.853
79163SOL    HW139328   9.949   1.240   6.828
79163SOL    HW239329   9.948   1.391   6.839
79164SOL     OW39330  11.696   8.920   3.966
79164SOL    HW139331  11.608   8.885   3.952
79164SOL    HW239332  11.685   9.015   3.966
79165SOL     OW39333   2.232   0.137   7.085
79165SOL    HW139334   2.273   0.070   7.029
79165SOL    HW239335   2.305   0.193   7.111
79166SOL     OW39336   9.553  14.149   2.427
79166SOL    HW139337   9.510  14.226   2.466
79166SOL    HW239338   9.550  14.166   2.333
79167SOL     OW39339   5.979   3.319  11.083
79167SOL    HW139340   6.049   3.315  11.148
79167SOL    HW239341   6.025   3.316  10.999
79168SOL     OW39342   9.360   4.851   5.945
79168SOL    HW139343   9.326   4.822   5.860
79168SOL    HW239344   9.409   4.777   5.978
79169SOL     OW39345   1.343  11.953   1.543
79169SOL    HW139346   1.273  11.986   1.486
79169SOL    HW239347   1.296  11.917   1.619
79170SOL     OW39348  12.710   4.488   6.061
79170SOL    HW139349  12.669   4.546   5.997
79170SOL    HW239350  12.751   4.420   6.008
79171SOL     OW39351  12.534  12.544   4.483
79171SOL    HW139352  12.552  12.589   4.566
79171SOL    HW239353  12.526  12.452   4.507
79172SOL     OW39354   6.762   2.330  10.399
79172SOL    HW139355   6.773   2.425  10.393
79172SOL    HW239356   6.724   2.305  10.315
79173SOL     OW39357   0.964  13.663   1.437
79173SOL    HW139358   1.054  13.670   1.406
79173SOL    HW239359   0.918  13.616   1.367
79174SOL     OW39360   6.453   3.981  12.208
79174SOL    HW139361   6.474   3.902  12.258
79174SOL    HW239362   6.363   3.968  12.179
79175SOL     OW39363   8.861   9.472   4.878
79175SOL    HW139364   8.827   9.383   4.870
79175SOL    HW239365   8.956   9.461   4.885
79176SOL     OW39366  11.126   7.015   3.564
79176SOL    HW139367  11.117   7.049   3.474
79176SOL    HW239368  11.087   6.928   3.560
79177SOL     OW39369  13.554   0.523  10.727
79177SOL    HW139370  13.512   0.438  10.743
79177SOL    HW239371  13.507   0.583  10.785
79178SOL     OW39372  10.266  14.251  13.268
79178SOL    HW139373  10.203  14.274  13.336
79178SOL    HW239374  10.212  14.230  13.192
79179SOL     OW39375   2.800   9.291   6.787
79179SOL    HW139376   2.784   9.356   6.718
79179SOL    HW239377   2.892   9.267   6.776
79180SOL     OW39378  14.100   4.324   6.922
79180SOL    HW139379  14.179   4.336   6.869
79180SOL    HW239380  14.097   4.231   6.941
79181SOL     OW39381   8.164  13.389   7.557
79181SOL    HW139382   8.136  13.299   7.568
79181SOL    HW239383   8.111  13.439   7.619
79182SOL     OW39384  12.252  14.124   8.070
79182SOL    HW139385  12.280  14.147   7.981
79182SOL    HW239386  12.170  14.077   8.058
79183SOL     OW39387  13.582   0.830   6.551
79183SOL    HW139388  13.665   0.845   6.504
79183SOL    HW239389  13.595   0.874   6.635
79184SOL     OW39390  12.105   2.202   8.442
79184SOL    HW139391  12.085   2.234   8.355
79184SOL    HW239392  12.195   2.228   8.458
79185SOL     OW39393   4.208   3.293   8.589
79185SOL    HW139394   4.189   3.217   8.644
79185SOL    HW239395   4.247   3.256   8.510
79186SOL     OW39396   0.015  13.104   2.897
79186SOL    HW139397  14.807  13.122   2.943
79186SOL    HW239398   0.073  13.175   2.923
79187SOL     OW39399   1.616  13.473   1.128
79187SOL    HW139400   1.551  13.437   1.067
79187SOL    HW239401   1.597  13.431   1.212
79188SOL     OW39402  13.118   0.463  12.634
79188SOL    HW139403  13.035   0.416  12.636
79188SOL    HW239404  13.138   0.472  12.540
79189SOL     OW39405   7.046  14.211  11.133
79189SOL    HW139406   7.101  14.133  11.132
79189SOL    HW239407   6.989  14.200  11.057
79190SOL     OW39408   4.908   1.520   0.631
79190SOL    HW139409   4.938   1.587   0.692
79190SOL    HW239410   4.957   1.537   0.550
79191SOL     OW39411   2.073  13.733  11.829
79191SOL    HW139412   2.131  13.749  11.754
79191SOL    HW239413   1.987  13.720  11.790
79192SOL     OW39414  14.566   0.416   5.936
79192SOL    HW139415  14.545   0.351   6.003
79192SOL    HW239416  14.644   0.381   5.893
79193SOL     OW39417   3.662  10.224   4.060
79193SOL    HW139418   3.638  10.172   3.983
79193SOL    HW239419   3.757  10.214   4.067
79194SOL     OW39420   4.050   3.859   4.355
79194SOL    HW139421   4.049   3.955   4.349
79194SOL    HW239422   4.101   3.841   4.434
79195SOL     OW39423   7.797  11.427  14.765
79195SOL    HW139424   7.782  11.499  14.704
79195SOL    HW239425   7.714  11.380  14.768
79196SOL     OW39426  11.395   2.113   8.977
79196SOL    HW139427  11.462   2.155   8.925
79196SOL    HW239428  11.382   2.028   8.935
79197SOL     OW39429   6.915  10.504   6.111
79197SOL    HW139430   6.940  10.569   6.045
79197SOL    HW239431   6.848  10.547   6.163
79198SOL     OW39432   6.550   6.137   9.041
79198SOL    HW139433   6.577   6.185   9.119
79198SOL    HW239434   6.564   6.045   9.062
79199SOL     OW39435  13.638   2.390   0.553
79199SOL    HW139436  13.634   2.437   0.637
79199SOL    HW239437  13.694   2.445   0.498
79200SOL     OW39438   5.063  13.627   3.769
79200SOL    HW139439   5.082  13.669   3.854
79200SOL    HW239440   5.039  13.699   3.711
79201SOL     OW39441   4.350  13.026   0.203
79201SOL    HW139442   4.335  12.931   0.197
79201SOL    HW239443   4.280  13.057   0.261
79202SOL     OW39444   2.930   8.901   7.918
79202SOL    HW139445   2.858   8.847   7.883
79202SOL    HW239446   2.886   8.972   7.965
79203SOL     OW39447   1.082   2.393  14.031
79203SOL    HW139448   1.088   2.476  13.983
79203SOL    HW239449   1.089   2.326  13.964
79204SOL     OW39450   3.763   3.291  12.363
79204SOL    HW139451   3.852   3.302  12.397
79204SOL    HW239452   3.716   3.245  12.433
79205SOL     OW39453  12.289  10.645   6.349
79205SOL    HW139454  12.345  10.710   6.391
79205SOL    HW239455  12.200  10.672   6.373
79206SOL     OW39456  10.323  12.025  13.617
79206SOL    HW139457  10.416  12.036  13.596
79206SOL    HW239458  10.322  11.971  13.695
79207SOL     OW39459  11.202  12.821  14.429
79207SOL    HW139460  11.114  12.798  14.456
79207SOL    HW239461  11.247  12.737  14.419
79208SOL     OW39462  14.538   6.492   8.031
79208SOL    HW139463  14.446   6.518   8.035
79208SOL    HW239464  14.575   6.524   8.113
79209SOL     OW39465   6.491   8.606  10.429
79209SOL    HW139466   6.580   8.619  10.460
79209SOL    HW239467   6.480   8.510  10.427
79210SOL     OW39468   0.602   0.099  10.312
79210SOL    HW139469   0.693   0.077  10.290
79210SOL    HW239470   0.553   0.078  10.233
79211SOL     OW39471   0.254   3.112   5.987
79211SOL    HW139472   0.335   3.088   5.942
79211SOL    HW239473   0.283   3.143   6.073
79212SOL     OW39474   4.249   0.630   1.397
79212SOL    HW139475   4.213   0.699   1.341
79212SOL    HW239476   4.173   0.576   1.420
79213SOL     OW39477   6.263   3.425   9.523
79213SOL    HW139478   6.224   3.369   9.590
79213SOL    HW239479   6.330   3.371   9.482
79214SOL     OW39480   0.738  10.335   9.130
79214SOL    HW139481   0.693  10.277   9.070
79214SOL    HW239482   0.677  10.408   9.143
79215SOL     OW39483   0.941  10.025   7.027
79215SOL    HW139484   0.976   9.979   7.103
79215SOL    HW239485   0.987  10.109   7.026
79216SOL     OW39486   4.015   9.849   6.542
79216SOL    HW139487   4.036   9.755   6.539
79216SOL    HW239488   3.927   9.855   6.504
79217SOL     OW39489   9.473   5.655   9.423
79217SOL    HW139490   9.546   5.703   9.384
79217SOL    HW239491   9.444   5.595   9.355
79218SOL     OW39492   4.726   9.303   5.159
79218SOL    HW139493   4.662   9.366   5.192
79218SOL    HW239494   4.807   9.354   5.149
79219SOL     OW39495  12.347   6.573   5.077
79219SOL    HW139496  12.344   6.627   4.998
79219SOL    HW239497  12.434   6.589   5.114
79220SOL     OW39498   7.584  14.597   5.318
79220SOL    HW139499   7.550  14.533   5.381
79220SOL    HW239500   7.615  14.669   5.372
79221SOL     OW39501   0.631   5.059   3.590
79221SOL    HW139502   0.641   5.153   3.599
79221SOL    HW239503   0.712   5.022   3.627
79222SOL     OW39504   8.306  14.793   2.172
79222SOL    HW139505   8.303  14.836   2.087
79222SOL    HW239506   8.399  14.787   2.193
79223SOL     OW39507   3.572   0.654   1.489
79223SOL    HW139508   3.559   0.748   1.478
79223SOL    HW239509   3.520   0.631   1.565
79224SOL     OW39510  14.025   3.134   8.526
79224SOL    HW139511  13.931   3.147   8.516
79224SOL    HW239512  14.059   3.133   8.436
79225SOL     OW39513   9.918   9.270   1.779
79225SOL    HW139514   9.974   9.336   1.819
79225SOL    HW239515   9.859   9.243   1.849
79226SOL     OW39516   7.095   3.915  13.759
79226SOL    HW139517   7.062   3.840  13.708
79226SOL    HW239518   7.188   3.897  13.770
79227SOL     OW39519   7.546  13.616   0.607
79227SOL    HW139520   7.499  13.554   0.551
79227SOL    HW239521   7.491  13.623   0.685
79228SOL     OW39522   0.273   8.511   8.165
79228SOL    HW139523   0.349   8.454   8.161
79228SOL    HW239524   0.199   8.455   8.142
79229SOL     OW39525   4.347   0.376   6.676
79229SOL    HW139526   4.324   0.468   6.685
79229SOL    HW239527   4.334   0.356   6.583
79230SOL     OW39528   2.167  11.221  10.161
79230SOL    HW139529   2.091  11.163  10.162
79230SOL    HW239530   2.193  11.227  10.069
79231SOL     OW39531  13.264   7.414   9.357
79231SOL    HW139532  13.318   7.391   9.282
79231SOL    HW239533  13.227   7.331   9.387
79232SOL     OW39534   4.342   0.835  11.414
79232SOL    HW139535   4.389   0.751  11.418
79232SOL    HW239536   4.408   0.900  11.440
79233SOL     OW39537  13.854   8.408  12.089
79233SOL    HW139538  13.823   8.326  12.051
79233SOL    HW239539  13.949   8.403  12.085
79234SOL     OW39540   0.663   2.247   9.930
79234SOL    HW139541   0.746   2.295   9.925
79234SOL    HW239542   0.596   2.315   9.930
79235SOL     OW39543   3.536  14.130   9.520
79235SOL    HW139544   3.515  14.196   9.454
79235SOL    HW239545   3.513  14.171   9.603
79236SOL     OW39546  10.849   9.198  12.684
79236SOL    HW139547  10.874   9.198  12.592
79236SOL    HW239548  10.915   9.252  12.727
79237SOL     OW39549   8.580   0.104   8.464
79237SOL    HW139550   8.652   0.120   8.403
79237SOL    HW239551   8.504   0.089   8.408
79238SOL     OW39552   6.482  11.170   0.142
79238SOL    HW139553   6.433  11.222   0.078
79238SOL    HW239554   6.434  11.087   0.146
79239SOL     OW39555  14.707   6.876   1.242
79239SOL    HW139556  14.735   6.916   1.160
79239SOL    HW239557  14.689   6.785   1.220
79240SOL     OW39558   4.861   0.446  12.298
79240SOL    HW139559   4.858   0.369  12.241
79240SOL    HW239560   4.799   0.427  12.368
79241SOL     OW39561  11.420   8.450  13.490
79241SOL    HW139562  11.471   8.408  13.559
79241SOL    HW239563  11.478   8.452  13.415
79242SOL     OW39564   9.656   8.898  10.942
79242SOL    HW139565   9.701   8.979  10.918
79242SOL    HW239566   9.691   8.833  10.881
79243SOL     OW39567   4.779   3.996   8.652
79243SOL    HW139568   4.772   3.946   8.570
79243SOL    HW239569   4.748   4.084   8.629
79244SOL     OW39570  13.689   1.129  11.872
79244SOL    HW139571  13.743   1.180  11.931
79244SOL    HW239572  13.599   1.160  11.888
79245SOL     OW39573   2.184   5.933  10.653
79245SOL    HW139574   2.102   5.891  10.626
79245SOL    HW239575   2.251   5.865  10.641
79246SOL     OW39576   9.171  12.278  11.523
79246SOL    HW139577   9.234  12.317  11.463
79246SOL    HW239578   9.149  12.194  11.483
79247SOL     OW39579  12.473   7.481  14.215
79247SOL    HW139580  12.438   7.397  14.187
79247SOL    HW239581  12.462   7.480  14.310
79248SOL     OW39582   4.968   7.220   8.147
79248SOL    HW139583   4.971   7.175   8.231
79248SOL    HW239584   4.942   7.152   8.084
79249SOL     OW39585   5.187  14.092   1.363
79249SOL    HW139586   5.176  14.003   1.331
79249SOL    HW239587   5.273  14.119   1.329
79250SOL     OW39588   1.524   0.379   6.566
79250SOL    HW139589   1.612   0.399   6.536
79250SOL    HW239590   1.468   0.444   6.523
79251SOL     OW39591   8.213  14.499   9.807
79251SOL    HW139592   8.272  14.508   9.733
79251SOL    HW239593   8.230  14.576   9.862
79252SOL     OW39594  13.103  10.846   6.564
79252SOL    HW139595  13.086  10.873   6.474
79252SOL    HW239596  13.061  10.761   6.573
79253SOL     OW39597   9.909   2.291  14.501
79253SOL    HW139598   9.867   2.268  14.418
79253SOL    HW239599   9.871   2.377  14.523
79254SOL     OW39600   3.558   5.069   6.291
79254SOL    HW139601   3.584   4.978   6.302
79254SOL    HW239602   3.563   5.084   6.196
79255SOL     OW39603   5.832   2.981  13.320
79255SOL    HW139604   5.750   2.973  13.370
79255SOL    HW239605   5.840   2.898  13.273
79256SOL     OW39606   6.586  10.373   0.833
79256SOL    HW139607   6.496  10.349   0.813
79256SOL    HW239608   6.612  10.430   0.760
79257SOL     OW39609   8.080   2.693   0.160
79257SOL    HW139610   8.117   2.715   0.246
79257SOL    HW239611   8.155   2.698   0.100
79258SOL     OW39612   2.460   8.374  11.287
79258SOL    HW139613   2.403   8.309  11.245
79258SOL    HW239614   2.443   8.365  11.380
79259SOL     OW39615   2.600  10.025   7.102
79259SOL    HW139616   2.569   9.976   7.179
79259SOL    HW239617   2.690   9.997   7.091
79260SOL     OW39618   5.247  14.799   8.879
79260SOL    HW139619   5.309  14.757   8.938
79260SOL    HW239620   5.182  14.839   8.938
79261SOL     OW39621  11.843  12.346  13.798
79261SOL    HW139622  11.762  12.337  13.847
79261SOL    HW239623  11.817  12.334  13.706
79262SOL     OW39624  14.693  13.426   1.405
79262SOL    HW139625  14.672  13.514   1.374
79262SOL    HW239626  14.788  13.420   1.397
79263SOL     OW39627   9.718   1.312   1.779
79263SOL    HW139628   9.662   1.374   1.733
79263SOL    HW239629   9.807   1.332   1.747
79264SOL     OW39630  14.050  14.849   0.710
79264SOL    HW139631  14.134   0.019   0.726
79264SOL    HW239632  13.988   0.046   0.696
79265SOL     OW39633   0.305  11.945   0.979
79265SOL    HW139634   0.292  11.968   1.071
79265SOL    HW239635   0.375  11.880   0.981
79266SOL     OW39636   7.795  12.000   7.257
79266SOL    HW139637   7.812  12.056   7.181
79266SOL    HW239638   7.801  12.059   7.332
79267SOL     OW39639   8.501   4.203   3.725
79267SOL    HW139640   8.447   4.193   3.804
79267SOL    HW239641   8.444   4.245   3.662
79268SOL     OW39642  10.265  14.824  10.374
79268SOL    HW139643  10.222  14.738  10.378
79268SOL    HW239644  10.285  14.845  10.465
79269SOL     OW39645   4.806   6.986   3.091
79269SOL    HW139646   4.775   6.943   3.011
79269SOL    HW239647   4.821   7.077   3.065
79270SOL     OW39648  14.706   4.039  11.288
79270SOL    HW139649  14.628   4.078  11.249
79270SOL    HW239650  14.672   3.975  11.351
79271SOL     OW39651   1.623  13.383   5.216
79271SOL    HW139652   1.682  13.379   5.141
79271SOL    HW239653   1.536  13.369   5.179
79272SOL     OW39654  13.120   1.309   7.719
79272SOL    HW139655  13.040   1.258   7.712
79272SOL    HW239656  13.174   1.281   7.646
79273SOL     OW39657  10.059   4.492   1.385
79273SOL    HW139658  10.153   4.484   1.367
79273SOL    HW239659  10.021   4.524   1.303
79274SOL     OW39660  10.178   8.889   8.998
79274SOL    HW139661  10.230   8.947   9.053
79274SOL    HW239662  10.096   8.878   9.046
79275SOL     OW39663   5.894   6.274   7.919
79275SOL    HW139664   5.884   6.222   7.999
79275SOL    HW239665   5.806   6.279   7.882
79276SOL     OW39666  12.380   3.239   0.788
79276SOL    HW139667  12.298   3.284   0.809
79276SOL    HW239668  12.430   3.241   0.869
79277SOL     OW39669   4.487  12.486   0.335
79277SOL    HW139670   4.425  12.424   0.295
79277SOL    HW239671   4.438  12.568   0.341
79278SOL     OW39672  11.076   3.592   2.082
79278SOL    HW139673  11.123   3.528   2.135
79278SOL    HW239674  11.048   3.659   2.144
79279SOL     OW39675   9.595  13.050   8.849
79279SOL    HW139676   9.499  13.047   8.854
79279SOL    HW239677   9.622  13.085   8.934
79280SOL     OW39678   5.542   9.948  13.386
79280SOL    HW139679   5.564   9.983  13.299
79280SOL    HW239680   5.568  10.017  13.447
79281SOL     OW39681   3.627   9.707   1.304
79281SOL    HW139682   3.609   9.757   1.384
79281SOL    HW239683   3.550   9.651   1.294
79282SOL     OW39684  10.549   7.667  11.119
79282SOL    HW139685  10.478   7.603  11.107
79282SOL    HW239686  10.627   7.623  11.086
79283SOL     OW39687   0.435  13.419   3.557
79283SOL    HW139688   0.512  13.384   3.602
79283SOL    HW239689   0.471  13.467   3.483
79284SOL     OW39690  14.711  12.754   8.979
79284SOL    HW139691  14.802  12.730   8.997
79284SOL    HW239692  14.661  12.705   9.045
79285SOL     OW39693  12.783   1.035  12.814
79285SOL    HW139694  12.727   1.059  12.888
79285SOL    HW239695  12.724   0.990  12.753
79286SOL     OW39696   3.244   6.545   1.362
79286SOL    HW139697   3.158   6.576   1.391
79286SOL    HW239698   3.298   6.547   1.441
79287SOL     OW39699   2.119   8.018   8.175
79287SOL    HW139700   2.168   8.087   8.220
79287SOL    HW239701   2.132   8.037   8.082
79288SOL     OW39702   7.655   0.634  12.178
79288SOL    HW139703   7.665   0.718  12.222
79288SOL    HW239704   7.570   0.602  12.206
79289SOL     OW39705   0.495   6.082  11.473
79289SOL    HW139706   0.468   5.991  11.466
79289SOL    HW239707   0.563   6.083  11.540
79290SOL     OW39708   2.403  11.023   3.937
79290SOL    HW139709   2.417  10.984   3.851
79290SOL    HW239710   2.354  10.958   3.987
79291SOL     OW39711   4.630   1.072   3.112
79291SOL    HW139712   4.590   1.143   3.062
79291SOL    HW239713   4.633   0.998   3.051
79292SOL     OW39714   5.121  11.432   3.411
79292SOL    HW139715   5.035  11.389   3.406
79292SOL    HW239716   5.104  11.523   3.384
79293SOL     OW39717   2.064  14.734   2.895
79293SOL    HW139718   2.046  14.701   2.807
79293SOL    HW239719   2.114  14.665   2.938
79294SOL     OW39720   5.585   3.612   0.366
79294SOL    HW139721   5.543   3.616   0.280
79294SOL    HW239722   5.542   3.679   0.418
79295SOL     OW39723   8.731  13.796   2.902
79295SOL    HW139724   8.645  13.833   2.922
79295SOL    HW239725   8.775  13.788   2.986
79296SOL     OW39726   6.518   2.547   6.461
79296SOL    HW139727   6.562   2.581   6.539
79296SOL    HW239728   6.476   2.623   6.421
79297SOL     OW39729   7.525  14.207  14.311
79297SOL    HW139730   7.431  14.201  14.326
79297SOL    HW239731   7.564  14.145  14.373
79298SOL     OW39732   9.411  14.753   9.766
79298SOL    HW139733   9.420  14.795   9.681
79298SOL    HW239734   9.465  14.806   9.825
79299SOL     OW39735  11.686  13.349  14.411
79299SOL    HW139736  11.600  13.325  14.377
79299SOL    HW239737  11.692  13.444  14.396
79300SOL     OW39738  14.673   9.958  14.038
79300SOL    HW139739  14.621   9.991  13.965
79300SOL    HW239740  14.609   9.938  14.106
79301SOL     OW39741  11.434  10.878   9.621
79301SOL    HW139742  11.360  10.882   9.561
79301SOL    HW239743  11.500  10.826   9.574
79302SOL     OW39744   3.490  14.528   1.599
79302SOL    HW139745   3.433  14.600   1.625
79302SOL    HW239746   3.579  14.565   1.606
79303SOL     OW39747   3.046   9.533  11.933
79303SOL    HW139748   3.002   9.472  11.992
79303SOL    HW239749   2.975   9.585  11.894
79304SOL     OW39750  12.069   6.621   6.068
79304SOL    HW139751  12.114   6.571   6.000
79304SOL    HW239752  11.978   6.593   6.062
79305SOL     OW39753   5.326   0.257   2.224
79305SOL    HW139754   5.361   0.318   2.159
79305SOL    HW239755   5.244   0.296   2.252
79306SOL     OW39756   0.367  12.807   1.819
79306SOL    HW139757   0.422  12.854   1.757
79306SOL    HW239758   0.334  12.874   1.879
79307SOL     OW39759   3.934  10.084  10.969
79307SOL    HW139760   3.913  10.141  10.895
79307SOL    HW239761   4.029  10.094  10.982
79308SOL     OW39762   6.591   3.734   8.366
79308SOL    HW139763   6.632   3.740   8.452
79308SOL    HW239764   6.617   3.648   8.334
79309SOL     OW39765   2.647   1.066   8.840
79309SOL    HW139766   2.694   1.132   8.891
79309SOL    HW239767   2.700   0.986   8.849
79310SOL     OW39768  10.079  14.775  14.288
79310SOL    HW139769  10.155  14.795  14.233
79310SOL    HW239770  10.106  14.800  14.376
79311SOL     OW39771   8.370  12.779  12.092
79311SOL    HW139772   8.371  12.772  11.996
79311SOL    HW239773   8.457  12.747  12.119
79312SOL     OW39774   5.760   5.918   7.890
79312SOL    HW139775   5.800   5.969   7.961
79312SOL    HW239776   5.712   5.982   7.838
79313SOL     OW39777   2.787   1.684   3.782
79313SOL    HW139778   2.874   1.724   3.788
79313SOL    HW239779   2.726   1.757   3.782
79314SOL     OW39780   7.817   4.171   9.263
79314SOL    HW139781   7.890   4.110   9.255
79314SOL    HW239782   7.857   4.257   9.248
79315SOL     OW39783   4.756   5.193   7.383
79315SOL    HW139784   4.792   5.201   7.471
79315SOL    HW239785   4.772   5.278   7.342
79316SOL     OW39786  11.641   4.212  13.209
79316SOL    HW139787  11.689   4.135  13.240
79316SOL    HW239788  11.707   4.265  13.165
79317SOL     OW39789   2.183   1.199   2.231
79317SOL    HW139790   2.114   1.265   2.237
79317SOL    HW239791   2.238   1.229   2.158
79318SOL     OW39792   3.233   3.965   4.425
79318SOL    HW139793   3.270   4.046   4.390
79318SOL    HW239794   3.153   3.993   4.471
79319SOL     OW39795   1.357  12.887   7.204
79319SOL    HW139796   1.283  12.861   7.148
79319SOL    HW239797   1.352  12.982   7.208
79320SOL     OW39798   8.517   3.443   0.727
79320SOL    HW139799   8.462   3.382   0.679
79320SOL    HW239800   8.466   3.464   0.806
79321SOL     OW39801   4.779  12.010   9.873
79321SOL    HW139802   4.687  12.025   9.852
79321SOL    HW239803   4.782  11.923   9.912
79322SOL     OW39804   8.249   6.586   1.487
79322SOL    HW139805   8.283   6.669   1.456
79322SOL    HW239806   8.194   6.609   1.562
79323SOL     OW39807   6.746   0.437   7.453
79323SOL    HW139808   6.782   0.365   7.402
79323SOL    HW239809   6.784   0.427   7.540
79324SOL     OW39810   2.403   9.702   4.730
79324SOL    HW139811   2.342   9.746   4.789
79324SOL    HW239812   2.460   9.651   4.788
79325SOL     OW39813   2.303   2.589  12.267
79325SOL    HW139814   2.386   2.626  12.238
79325SOL    HW239815   2.315   2.494  12.258
79326SOL     OW39816   9.884   7.562   2.282
79326SOL    HW139817   9.804   7.598   2.322
79326SOL    HW239818   9.873   7.468   2.287
79327SOL     OW39819   5.214  10.427  11.412
79327SOL    HW139820   5.267  10.503  11.390
79327SOL    HW239821   5.265  10.381  11.479
79328SOL     OW39822   1.009   6.166  10.459
79328SOL    HW139823   0.968   6.097  10.511
79328SOL    HW239824   0.945   6.237  10.458
79329SOL     OW39825   9.983   0.918  14.503
79329SOL    HW139826   9.936   0.951  14.426
79329SOL    HW239827   9.942   0.833  14.520
79330SOL     OW39828   7.416   0.426  12.707
79330SOL    HW139829   7.469   0.450  12.631
79330SOL    HW239830   7.337   0.480  12.699
79331SOL     OW39831  12.648   8.210  12.397
79331SOL    HW139832  12.711   8.143  12.424
79331SOL    HW239833  12.702   8.281  12.364
79332SOL     OW39834  12.050   8.124   7.042
79332SOL    HW139835  12.123   8.104   6.984
79332SOL    HW239836  11.994   8.046   7.038
79333SOL     OW39837  10.480   6.130   3.935
79333SOL    HW139838  10.535   6.195   3.979
79333SOL    HW239839  10.473   6.058   3.998
79334SOL     OW39840   0.709   6.624   5.651
79334SOL    HW139841   0.649   6.664   5.713
79334SOL    HW239842   0.777   6.584   5.705
79335SOL     OW39843  11.169  11.207  13.814
79335SOL    HW139844  11.171  11.217  13.909
79335SOL    HW239845  11.121  11.284  13.783
79336SOL     OW39846  12.468   8.681   7.546
79336SOL    HW139847  12.463   8.627   7.625
79336SOL    HW239848  12.416   8.633   7.481
79337SOL     OW39849   4.052   2.952   0.542
79337SOL    HW139850   4.101   3.014   0.488
79337SOL    HW239851   4.009   3.006   0.608
79338SOL     OW39852   6.242   2.353   0.840
79338SOL    HW139853   6.195   2.431   0.868
79338SOL    HW239854   6.174   2.288   0.823
79339SOL     OW39855  13.170   0.804  13.904
79339SOL    HW139856  13.077   0.791  13.886
79339SOL    HW239857  13.172   0.846  13.990
79340SOL     OW39858  12.634   0.544  11.260
79340SOL    HW139859  12.663   0.610  11.323
79340SOL    HW239860  12.667   0.575  11.176
79341SOL     OW39861  12.684   5.813   8.682
79341SOL    HW139862  12.766   5.813   8.732
79341SOL    HW239863  12.682   5.729   8.638
79342SOL     OW39864   5.391  11.739   2.650
79342SOL    HW139865   5.420  11.821   2.610
79342SOL    HW239866   5.319  11.709   2.595
79343SOL     OW39867   9.323   2.669   3.257
79343SOL    HW139868   9.233   2.703   3.259
79343SOL    HW239869   9.357   2.683   3.345
79344SOL     OW39870   1.520   1.294   3.285
79344SOL    HW139871   1.558   1.382   3.285
79344SOL    HW239872   1.581   1.242   3.232
79345SOL     OW39873   2.990   3.676   0.043
79345SOL    HW139874   2.943   3.678  14.833
79345SOL    HW239875   3.077   3.710   0.023
79346SOL     OW39876   9.330   3.997  14.264
79346SOL    HW139877   9.321   3.940  14.340
79346SOL    HW239878   9.407   4.051  14.283
79347SOL     OW39879  14.339  14.374   1.893
79347SOL    HW139880  14.267  14.362   1.955
79347SOL    HW239881  14.417  14.345   1.940
79348SOL     OW39882   8.300   1.553   6.132
79348SOL    HW139883   8.211   1.586   6.141
79348SOL    HW239884   8.347   1.588   6.208
79349SOL     OW39885   7.171  13.613   7.918
79349SOL    HW139886   7.164  13.663   7.836
79349SOL    HW239887   7.084  13.576   7.931
79350SOL     OW39888   4.760  11.224   7.008
79350SOL    HW139889   4.819  11.296   7.031
79350SOL    HW239890   4.758  11.225   6.912
79351SOL     OW39891   3.794   4.636   8.769
79351SOL    HW139892   3.716   4.590   8.799
79351SOL    HW239893   3.799   4.713   8.825
79352SOL     OW39894   9.879   3.505  14.366
79352SOL    HW139895   9.880   3.496  14.461
79352SOL    HW239896   9.859   3.417  14.334
79353SOL     OW39897   4.112   7.483  13.407
79353SOL    HW139898   4.054   7.412  13.382
79353SOL    HW239899   4.195   7.440  13.430
79354SOL     OW39900  13.202  13.743  12.056
79354SOL    HW139901  13.259  13.794  11.998
79354SOL    HW239902  13.221  13.652  12.034
79355SOL     OW39903   5.687   2.853   9.310
79355SOL    HW139904   5.616   2.826   9.251
79355SOL    HW239905   5.702   2.945   9.288
79356SOL     OW39906   9.853   2.840  11.398
79356SOL    HW139907   9.826   2.787  11.323
79356SOL    HW239908   9.829   2.787  11.474
79357SOL     OW39909   8.499   4.462  12.967
79357SOL    HW139910   8.570   4.465  12.903
79357SOL    HW239911   8.468   4.553  12.973
79358SOL     OW39912   2.752   0.253  10.592
79358SOL    HW139913   2.846   0.264  10.602
79358SOL    HW239914   2.726   0.323  10.532
79359SOL     OW39915   7.242   5.777   8.751
79359SOL    HW139916   7.224   5.702   8.694
79359SOL    HW239917   7.191   5.849   8.714
79360SOL     OW39918  13.572   2.986  10.781
79360SOL    HW139919  13.550   2.897  10.810
79360SOL    HW239920  13.637   3.016  10.844
79361SOL     OW39921   5.889   2.532  13.896
79361SOL    HW139922   5.934   2.564  13.818
79361SOL    HW239923   5.862   2.443  13.873
79362SOL     OW39924   3.599   0.653   8.749
79362SOL    HW139925   3.654   0.638   8.826
79362SOL    HW239926   3.550   0.572   8.739
79363SOL     OW39927   2.139   0.766   3.457
79363SOL    HW139928   2.048   0.793   3.471
79363SOL    HW239929   2.169   0.819   3.383
79364SOL     OW39930   2.274  12.267   5.826
79364SOL    HW139931   2.359  12.269   5.869
79364SOL    HW239932   2.276  12.341   5.765
79365SOL     OW39933   7.854   7.755   0.791
79365SOL    HW139934   7.848   7.848   0.813
79365SOL    HW239935   7.795   7.744   0.716
79366SOL     OW39936   4.848   3.868  10.764
79366SOL    HW139937   4.902   3.789  10.753
79366SOL    HW239938   4.854   3.888  10.857
79367SOL     OW39939   5.005   8.456  12.056
79367SOL    HW139940   5.084   8.485  12.010
79367SOL    HW239941   5.006   8.361  12.046
79368SOL     OW39942   6.815   6.037   7.611
79368SOL    HW139943   6.761   6.026   7.690
79368SOL    HW239944   6.901   6.065   7.644
79369SOL     OW39945   6.686   4.953   8.847
79369SOL    HW139946   6.625   5.002   8.791
79369SOL    HW239947   6.733   5.021   8.895
79370SOL     OW39948   2.734   8.220   2.312
79370SOL    HW139949   2.647   8.184   2.294
79370SOL    HW239950   2.734   8.235   2.407
79371SOL     OW39951  10.514   0.735   9.478
79371SOL    HW139952  10.604   0.708   9.460
79371SOL    HW239953  10.503   0.817   9.431
79372SOL     OW39954   0.876   5.678   0.386
79372SOL    HW139955   0.787   5.661   0.355
79372SOL    HW239956   0.923   5.710   0.308
79373SOL     OW39957   7.113  10.689   1.414
79373SOL    HW139958   7.190  10.695   1.359
79373SOL    HW239959   7.146  10.668   1.501
79374SOL     OW39960  11.335   8.762  11.889
79374SOL    HW139961  11.314   8.855  11.877
79374SOL    HW239962  11.258   8.716  11.856
79375SOL     OW39963  12.766  14.811  12.215
79375SOL    HW139964  12.845  14.839  12.168
79375SOL    HW239965  12.792  14.809  12.307
79376SOL     OW39966  12.765  10.572   0.414
79376SOL    HW139967  12.737  10.587   0.323
79376SOL    HW239968  12.700  10.619   0.467
79377SOL     OW39969   9.412  11.318   9.075
79377SOL    HW139970   9.379  11.371   9.148
79377SOL    HW239971   9.366  11.234   9.085
79378SOL     OW39972   9.615   1.329   8.333
79378SOL    HW139973   9.569   1.295   8.409
79378SOL    HW239974   9.593   1.423   8.332
79379SOL     OW39975   0.438  11.677   6.389
79379SOL    HW139976   0.418  11.757   6.439
79379SOL    HW239977   0.356  11.654   6.346
79380SOL     OW39978  11.725   4.181   2.648
79380SOL    HW139979  11.673   4.230   2.584
79380SOL    HW239980  11.663   4.120   2.688
79381SOL     OW39981   8.512   8.519   9.336
79381SOL    HW139982   8.572   8.460   9.382
79381SOL    HW239983   8.432   8.468   9.325
79382SOL     OW39984   2.132  10.816  12.931
79382SOL    HW139985   2.174  10.837  12.847
79382SOL    HW239986   2.202  10.830  12.996
79383SOL     OW39987   4.449  14.839   7.970
79383SOL    HW139988   4.394  14.821   7.894
79383SOL    HW239989   4.530  14.790   7.954
79384SOL     OW39990   6.983  11.791  12.499
79384SOL    HW139991   6.988  11.702  12.463
79384SOL    HW239992   7.039  11.788  12.577
79385SOL     OW39993   4.122   7.892   0.126
79385SOL    HW139994   4.192   7.890   0.061
79385SOL    HW239995   4.058   7.953   0.090
79386SOL     OW39996   3.299   5.118  12.968
79386SOL    HW139997   3.324   5.078  12.884
79386SOL    HW239998   3.254   5.048  13.015
79387SOL     OW39999   3.272   5.326   4.461
79387SOL    HW140000   3.291   5.236   4.487
79387SOL    HW240001   3.176   5.331   4.460
79388SOL     OW40002   2.717   1.692  14.216
79388SOL    HW140003   2.795   1.747  14.220
79388SOL    HW240004   2.671   1.720  14.137
79389SOL     OW40005  14.541   1.271  10.858
79389SOL    HW140006  14.456   1.286  10.816
79389SOL    HW240007  14.603   1.268  10.786
79390SOL     OW40008  11.464  10.179   3.266
79390SOL    HW140009  11.451  10.084   3.266
79390SOL    HW240010  11.559  10.190   3.269
79391SOL     OW40011   9.204  13.633   1.205
79391SOL    HW140012   9.200  13.660   1.114
79391SOL    HW240013   9.116  13.598   1.224
79392SOL     OW40014  10.881   8.679   3.302
79392SOL    HW140015  10.956   8.621   3.286
79392SOL    HW240016  10.865   8.721   3.218
79393SOL     OW40017  10.881  13.873   8.825
79393SOL    HW140018  10.800  13.923   8.819
79393SOL    HW240019  10.874  13.824   8.907
79394SOL     OW40020   5.251   1.325   5.189
79394SOL    HW140021   5.278   1.373   5.111
79394SOL    HW240022   5.157   1.341   5.195
79395SOL     OW40023  13.851  13.086  14.789
79395SOL    HW140024  13.815  13.152  14.848
79395SOL    HW240025  13.854  13.006  14.842
79396SOL     OW40026  12.937   5.765   7.870
79396SOL    HW140027  12.847   5.739   7.891
79396SOL    HW240028  12.988   5.685   7.881
79397SOL     OW40029   4.561   0.238   0.727
79397SOL    HW140030   4.563   0.330   0.755
79397SOL    HW240031   4.636   0.230   0.669
79398SOL     OW40032   7.114  10.712   8.440
79398SOL    HW140033   7.074  10.795   8.414
79398SOL    HW240034   7.184  10.738   8.501
79399SOL     OW40035  14.242   9.231  11.183
79399SOL    HW140036  14.203   9.173  11.118
79399SOL    HW240037  14.335   9.210  11.181
79400SOL     OW40038  10.468  13.080   5.834
79400SOL    HW140039  10.517  13.163   5.838
79400SOL    HW240040  10.392  13.100   5.780
79401SOL     OW40041   7.752   8.978   8.459
79401SOL    HW140042   7.729   8.911   8.395
79401SOL    HW240043   7.847   8.988   8.449
79402SOL     OW40044   3.960   7.799  10.068
79402SOL    HW140045   3.866   7.818  10.070
79402SOL    HW240046   3.995   7.847  10.142
79403SOL     OW40047  12.179   6.422  13.086
79403SOL    HW140048  12.105   6.476  13.058
79403SOL    HW240049  12.159   6.334  13.052
79404SOL     OW40050   3.708   0.283   6.531
79404SOL    HW140051   3.800   0.310   6.529
79404SOL    HW240052   3.711   0.188   6.525
79405SOL     OW40053   8.383   5.918   2.314
79405SOL    HW140054   8.427   5.842   2.350
79405SOL    HW240055   8.393   5.986   2.381
79406SOL     OW40056  12.336   9.248   1.689
79406SOL    HW140057  12.363   9.337   1.712
79406SOL    HW240058  12.240   9.252   1.686
79407SOL     OW40059   1.481  12.392  14.003
79407SOL    HW140060   1.435  12.349  14.076
79407SOL    HW240061   1.469  12.485  14.019
79408SOL     OW40062  12.870   5.309  14.553
79408SOL    HW140063  12.797   5.327  14.494
79408SOL    HW240064  12.948   5.317  14.497
79409SOL     OW40065   6.684   6.424   4.728
79409SOL    HW140066   6.646   6.386   4.808
79409SOL    HW240067   6.707   6.348   4.675
79410SOL     OW40068  11.180   4.642   4.903
79410SOL    HW140069  11.201   4.560   4.858
79410SOL    HW240070  11.265   4.684   4.915
79411SOL     OW40071   2.069   0.726  10.345
79411SOL    HW140072   2.043   0.679  10.266
79411SOL    HW240073   2.115   0.804  10.313
79412SOL     OW40074   4.267  11.645  13.162
79412SOL    HW140075   4.315  11.642  13.245
79412SOL    HW240076   4.214  11.565  13.162
79413SOL     OW40077   9.452   9.625  14.510
79413SOL    HW140078   9.446   9.661  14.422
79413SOL    HW240079   9.425   9.533  14.500
79414SOL     OW40080  13.737   6.905   2.799
79414SOL    HW140081  13.824   6.891   2.763
79414SOL    HW240082  13.716   6.996   2.777
79415SOL     OW40083   8.812  12.603   6.183
79415SOL    HW140084   8.850  12.654   6.254
79415SOL    HW240085   8.800  12.515   6.220
79416SOL     OW40086   1.009  12.594   0.753
79416SOL    HW140087   1.030  12.547   0.673
79416SOL    HW240088   0.945  12.660   0.726
79417SOL     OW40089   9.660   0.741   2.581
79417SOL    HW140090   9.721   0.726   2.509
79417SOL    HW240091   9.582   0.779   2.540
79418SOL     OW40092   2.435  13.442   8.177
79418SOL    HW140093   2.422  13.363   8.124
79418SOL    HW240094   2.467  13.507   8.114
79419SOL     OW40095  12.834  14.011  10.021
79419SOL    HW140096  12.797  13.923  10.012
79419SOL    HW240097  12.847  14.040   9.931
79420SOL     OW40098  10.810  10.155   0.778
79420SOL    HW140099  10.763  10.112   0.706
79420SOL    HW240100  10.761  10.235   0.795
79421SOL     OW40101  14.236   9.393   7.807
79421SOL    HW140102  14.267   9.368   7.894
79421SOL    HW240103  14.316   9.405   7.755
79422SOL     OW40104   3.858   0.258   2.780
79422SOL    HW140105   3.782   0.248   2.837
79422SOL    HW240106   3.925   0.203   2.820
79423SOL     OW40107  11.973   8.736   2.680
79423SOL    HW140108  11.934   8.763   2.597
79423SOL    HW240109  11.905   8.753   2.745
79424SOL     OW40110   8.927   8.693  10.241
79424SOL    HW140111   8.873   8.745  10.182
79424SOL    HW240112   8.956   8.756  10.308
79425SOL     OW40113   7.204   7.164  11.995
79425SOL    HW140114   7.153   7.084  12.011
79425SOL    HW240115   7.223   7.163  11.901
79426SOL     OW40116  12.208   8.196   8.642
79426SOL    HW140117  12.164   8.247   8.574
79426SOL    HW240118  12.230   8.260   8.709
79427SOL     OW40119   8.808   3.258  12.530
79427SOL    HW140120   8.896   3.293  12.539
79427SOL    HW240121   8.774   3.255  12.620
79428SOL     OW40122  12.302   9.933   6.583
79428SOL    HW140123  12.325   9.843   6.605
79428SOL    HW240124  12.269   9.970   6.664
79429SOL     OW40125  10.764   7.900  11.178
79429SOL    HW140126  10.788   7.865  11.264
79429SOL    HW240127  10.703   7.835  11.142
79430SOL     OW40128   0.081  10.185   5.991
79430SOL    HW140129   0.149  10.220   5.934
79430SOL    HW240130   0.005  10.241   5.975
79431SOL     OW40131  13.305   8.407   9.634
79431SOL    HW140132  13.224   8.363   9.658
79431SOL    HW240133  13.356   8.340   9.589
79432SOL     OW40134  12.447   3.193   1.741
79432SOL    HW140135  12.380   3.136   1.703
79432SOL    HW240136  12.399   3.271   1.769
79433SOL     OW40137  10.213  11.380   2.067
79433SOL    HW140138  10.207  11.425   2.152
79433SOL    HW240139  10.125  11.388   2.031
79434SOL     OW40140   0.364   9.117   3.331
79434SOL    HW140141   0.460   9.109   3.328
79434SOL    HW240142   0.339   9.136   3.240
79435SOL     OW40143   4.702   6.012   7.388
79435SOL    HW140144   4.616   6.020   7.430
79435SOL    HW240145   4.682   5.981   7.300
79436SOL     OW40146  10.144   7.508  11.362
79436SOL    HW140147  10.225   7.537  11.403
79436SOL    HW240148  10.088   7.482  11.435
79437SOL     OW40149   1.484   7.504   1.373
79437SOL    HW140150   1.402   7.456   1.386
79437SOL    HW240151   1.546   7.438   1.341
79438SOL     OW40152   7.431   3.659   2.473
79438SOL    HW140153   7.480   3.736   2.445
79438SOL    HW240154   7.495   3.604   2.517
79439SOL     OW40155  13.716   9.089   4.118
79439SOL    HW140156  13.624   9.102   4.143
79439SOL    HW240157  13.715   9.007   4.068
79440SOL     OW40158  14.623  14.010   2.901
79440SOL    HW140159  14.580  13.955   2.836
79440SOL    HW240160  14.704  13.964   2.921
79441SOL     OW40161   9.095   2.583  12.965
79441SOL    HW140162   9.152   2.514  12.998
79441SOL    HW240163   9.096   2.650  13.033
79442SOL     OW40164   6.847  14.355  10.301
79442SOL    HW140165   6.767  14.332  10.347
79442SOL    HW240166   6.823  14.429  10.245
79443SOL     OW40167   3.884   6.456   5.654
79443SOL    HW140168   3.837   6.412   5.584
79443SOL    HW240169   3.838   6.432   5.734
79444SOL     OW40170   1.667  12.993  14.177
79444SOL    HW140171   1.668  13.089  14.171
79444SOL    HW240172   1.586  12.973  14.222
79445SOL     OW40173   6.171  13.481  11.422
79445SOL    HW140174   6.237  13.445  11.482
79445SOL    HW240175   6.105  13.413  11.413
79446SOL     OW40176  11.248   7.164  11.902
79446SOL    HW140177  11.172   7.115  11.871
79446SOL    HW240178  11.291   7.105  11.964
79447SOL     OW40179   0.340   7.669  10.258
79447SOL    HW140180   0.359   7.763  10.253
79447SOL    HW240181   0.324   7.653  10.351
79448SOL     OW40182   7.864   8.946   0.031
79448SOL    HW140183   7.768   8.940   0.031
79448SOL    HW240184   7.887   8.956   0.123
79449SOL     OW40185  11.036  12.672   1.138
79449SOL    HW140186  11.066  12.691   1.226
79449SOL    HW240187  11.110  12.695   1.081
79450SOL     OW40188   6.615  11.230   1.204
79450SOL    HW140189   6.575  11.146   1.179
79450SOL    HW240190   6.541  11.290   1.209
79451SOL     OW40191  10.792   8.645   3.891
79451SOL    HW140192  10.739   8.687   3.958
79451SOL    HW240193  10.772   8.693   3.810
79452SOL     OW40194   5.665   3.242   7.030
79452SOL    HW140195   5.691   3.309   7.094
79452SOL    HW240196   5.746   3.222   6.983
79453SOL     OW40197   0.230   6.299   3.999
79453SOL    HW140198   0.316   6.258   3.995
79453SOL    HW240199   0.230   6.362   3.927
79454SOL     OW40200   1.659   3.019   1.247
79454SOL    HW140201   1.682   2.969   1.326
79454SOL    HW240202   1.640   2.952   1.181
79455SOL     OW40203   8.111   2.099   0.720
79455SOL    HW140204   8.186   2.041   0.709
79455SOL    HW240205   8.099   2.105   0.815
79456SOL     OW40206   6.490   8.500   6.675
79456SOL    HW140207   6.558   8.551   6.630
79456SOL    HW240208   6.538   8.454   6.745
79457SOL     OW40209  12.615   2.358  14.160
79457SOL    HW140210  12.535   2.410  14.151
79457SOL    HW240211  12.585   2.268  14.160
79458SOL     OW40212   2.950   3.833   6.737
79458SOL    HW140213   2.862   3.848   6.704
79458SOL    HW240214   2.947   3.744   6.772
79459SOL     OW40215  14.526   1.727  12.371
79459SOL    HW140216  14.612   1.736  12.329
79459SOL    HW240217  14.466   1.771  12.312
79460SOL     OW40218  10.433   7.900   2.388
79460SOL    HW140219  10.340   7.887   2.408
79460SOL    HW240220  10.446   7.994   2.399
79461SOL     OW40221   1.474   7.000   2.207
79461SOL    HW140222   1.464   7.058   2.282
79461SOL    HW240223   1.440   6.915   2.236
79462SOL     OW40224   4.553   5.714   7.904
79462SOL    HW140225   4.517   5.632   7.935
79462SOL    HW240226   4.641   5.691   7.873
79463SOL     OW40227   4.719   1.879   9.014
79463SOL    HW140228   4.644   1.821   8.998
79463SOL    HW240229   4.758   1.891   8.928
79464SOL     OW40230   4.553   9.648  10.753
79464SOL    HW140231   4.569   9.683  10.665
79464SOL    HW240232   4.640   9.642  10.793
79465SOL     OW40233  13.603  13.670   9.000
79465SOL    HW140234  13.571  13.593   9.047
79465SOL    HW240235  13.650  13.635   8.925
79466SOL     OW40236   1.405  14.729   8.639
79466SOL    HW140237   1.438  14.641   8.621
79466SOL    HW240238   1.432  14.781   8.563
79467SOL     OW40239   1.382  11.900   9.623
79467SOL    HW140240   1.335  11.831   9.574
79467SOL    HW240241   1.461  11.915   9.572
79468SOL     OW40242   4.071   3.242  13.954
79468SOL    HW140243   4.080   3.333  13.928
79468SOL    HW240244   4.014   3.203  13.888
79469SOL     OW40245   8.237   6.065   4.975
79469SOL    HW140246   8.207   6.058   4.885
79469SOL    HW240247   8.327   6.098   4.968
79470SOL     OW40248   5.948  10.849   1.186
79470SOL    HW140249   5.908  10.790   1.122
79470SOL    HW240250   5.906  10.827   1.269
79471SOL     OW40251  10.826  14.624  10.875
79471SOL    HW140252  10.800  14.537  10.905
79471SOL    HW240253  10.763  14.683  10.918
79472SOL     OW40254  12.243   8.069   5.435
79472SOL    HW140255  12.219   8.087   5.526
79472SOL    HW240256  12.235   8.154   5.392
79473SOL     OW40257   2.053   1.181  14.402
79473SOL    HW140258   2.147   1.179  14.422
79473SOL    HW240259   2.011   1.150  14.482
79474SOL     OW40260   8.552  12.886   3.388
79474SOL    HW140261   8.611  12.911   3.317
79474SOL    HW240262   8.524  12.970   3.426
79475SOL     OW40263   4.914   4.124   7.938
79475SOL    HW140264   4.964   4.044   7.923
79475SOL    HW240265   4.959   4.191   7.886
79476SOL     OW40266   8.152   1.646  13.614
79476SOL    HW140267   8.145   1.564  13.662
79476SOL    HW240268   8.133   1.714  13.678
79477SOL     OW40269   6.747  14.858  14.442
79477SOL    HW140270   6.740   0.078  14.432
79477SOL    HW240271   6.770  14.826  14.355
79478SOL     OW40272   5.372   9.852  14.140
79478SOL    HW140273   5.291   9.826  14.183
79478SOL    HW240274   5.440   9.800  14.184
79479SOL     OW40275   0.003  10.099   9.627
79479SOL    HW140276  14.783  10.119   9.634
79479SOL    HW240277   0.015  10.074   9.536
79480SOL     OW40278   8.068  11.074   6.658
79480SOL    HW140279   8.073  11.060   6.564
79480SOL    HW240280   8.151  11.114   6.682
79481SOL     OW40281   8.586   1.583  11.111
79481SOL    HW140282   8.666   1.533  11.094
79481SOL    HW240283   8.536   1.528  11.172
79482SOL     OW40284   1.039  13.815   8.276
79482SOL    HW140285   1.124  13.860   8.271
79482SOL    HW240286   0.990  13.849   8.201
79483SOL     OW40287   5.213  13.389   8.406
79483SOL    HW140288   5.137  13.439   8.375
79483SOL    HW240289   5.213  13.310   8.352
79484SOL     OW40290   8.790   9.800   1.608
79484SOL    HW140291   8.803   9.715   1.651
79484SOL    HW240292   8.805   9.782   1.515
79485SOL     OW40293   4.750   0.437   7.914
79485SOL    HW140294   4.842   0.436   7.886
79485SOL    HW240295   4.705   0.382   7.850
79486SOL     OW40296   6.384   3.380   6.057
79486SOL    HW140297   6.436   3.305   6.031
79486SOL    HW240298   6.298   3.364   6.019
79487SOL     OW40299   3.662   4.567   5.131
79487SOL    HW140300   3.623   4.537   5.049
79487SOL    HW240301   3.677   4.486   5.181
79488SOL     OW40302   0.018   5.024   3.721
79488SOL    HW140303   0.097   4.971   3.730
79488SOL    HW240304  14.827   4.965   3.684
79489SOL     OW40305  10.404   5.314   5.310
79489SOL    HW140306  10.339   5.379   5.338
79489SOL    HW240307  10.402   5.319   5.214
79490SOL     OW40308   9.981   7.413  11.564
79490SOL    HW140309   9.959   7.329  11.604
79490SOL    HW240310   9.906   7.469  11.582
79491SOL     OW40311   6.960   9.050   4.713
79491SOL    HW140312   6.903   8.975   4.701
79491SOL    HW240313   7.001   9.037   4.798
79492SOL     OW40314   0.020   3.794   2.191
79492SOL    HW140315   0.091   3.731   2.184
79492SOL    HW240316   0.054   3.874   2.151
79493SOL     OW40317   1.433   7.914   7.912
79493SOL    HW140318   1.447   7.826   7.945
79493SOL    HW240319   1.338   7.922   7.902
79494SOL     OW40320  12.546  12.259   6.574
79494SOL    HW140321  12.514  12.312   6.501
79494SOL    HW240322  12.475  12.198   6.592
79495SOL     OW40323   8.425   3.508   7.598
79495SOL    HW140324   8.364   3.443   7.562
79495SOL    HW240325   8.370   3.566   7.650
79496SOL     OW40326  10.759   5.607  11.056
79496SOL    HW140327  10.770   5.576  10.966
79496SOL    HW240328  10.742   5.700  11.047
79497SOL     OW40329  13.175   3.477  11.918
79497SOL    HW140330  13.190   3.384  11.900
79497SOL    HW240331  13.238   3.523  11.862
79498SOL     OW40332   2.551   9.910   0.970
79498SOL    HW140333   2.498   9.920   0.891
79498SOL    HW240334   2.511   9.837   1.017
79499SOL     OW40335   0.770   6.397   9.637
79499SOL    HW140336   0.843   6.428   9.692
79499SOL    HW240337   0.808   6.391   9.549
79500SOL     OW40338   0.196  10.010   3.631
79500SOL    HW140339   0.168  10.065   3.704
79500SOL    HW240340   0.126   9.946   3.620
79501SOL     OW40341   5.615   8.033   3.565
79501SOL    HW140342   5.594   7.953   3.516
79501SOL    HW240343   5.670   8.084   3.505
79502SOL     OW40344  11.144   1.962   3.874
79502SOL    HW140345  11.236   1.935   3.878
79502SOL    HW240346  11.095   1.880   3.868
79503SOL     OW40347   6.955  13.606   2.339
79503SOL    HW140348   6.925  13.692   2.310
79503SOL    HW240349   7.009  13.573   2.267
79504SOL     OW40350   5.223   4.597   8.824
79504SOL    HW140351   5.137   4.618   8.787
79504SOL    HW240352   5.239   4.506   8.799
79505SOL     OW40353  10.869   9.848   0.247
79505SOL    HW140354  10.898   9.902   0.321
79505SOL    HW240355  10.774   9.860   0.245
79506SOL     OW40356   4.777   7.936   8.363
79506SOL    HW140357   4.808   8.020   8.328
79506SOL    HW240358   4.856   7.881   8.367
79507SOL     OW40359  14.697   6.238  11.650
79507SOL    HW140360  14.712   6.305  11.717
79507SOL    HW240361  14.683   6.157  11.699
79508SOL     OW40362   7.197  13.143   2.086
79508SOL    HW140363   7.268  13.080   2.091
79508SOL    HW240364   7.127  13.105   2.138
79509SOL     OW40365  14.371   3.744   8.791
79509SOL    HW140366  14.459   3.745   8.755
79509SOL    HW240367  14.369   3.667   8.848
79510SOL     OW40368   1.871  12.058   0.683
79510SOL    HW140369   1.878  12.063   0.778
79510SOL    HW240370   1.795  12.002   0.667
79511SOL     OW40371   0.983   2.845   4.444
79511SOL    HW140372   0.973   2.753   4.468
79511SOL    HW240373   0.896   2.882   4.455
79512SOL     OW40374   1.395  11.995  14.336
79512SOL    HW140375   1.383  11.915  14.387
79512SOL    HW240376   1.475  12.033  14.370
79513SOL     OW40377   9.666   7.376  13.316
79513SOL    HW140378   9.635   7.435  13.385
79513SOL    HW240379   9.725   7.429  13.263
79514SOL     OW40380  11.039   0.114  11.743
79514SOL    HW140381  10.977   0.186  11.749
79514SOL    HW240382  10.988   0.041  11.709
79515SOL     OW40383   8.702   0.917   2.038
79515SOL    HW140384   8.779   0.973   2.039
79515SOL    HW240385   8.649   0.946   2.113
79516SOL     OW40386  13.313   9.852  12.991
79516SOL    HW140387  13.368   9.861  13.069
79516SOL    HW240388  13.318   9.937  12.949
79517SOL     OW40389   4.796  11.659  13.712
79517SOL    HW140390   4.719  11.631  13.663
79517SOL    HW240391   4.870  11.619  13.665
79518SOL     OW40392   1.083   0.483  11.893
79518SOL    HW140393   1.151   0.475  11.960
79518SOL    HW240394   1.123   0.448  11.814
79519SOL     OW40395   2.501   1.783   8.732
79519SOL    HW140396   2.431   1.753   8.674
79519SOL    HW240397   2.459   1.851   8.786
79520SOL     OW40398   6.531   1.157   8.007
79520SOL    HW140399   6.534   1.212   8.085
79520SOL    HW240400   6.504   1.217   7.937
79521SOL     OW40401   6.429  11.980  14.437
79521SOL    HW140402   6.455  12.051  14.378
79521SOL    HW240403   6.352  12.015  14.483
79522SOL     OW40404   4.794   9.611  11.214
79522SOL    HW140405   4.839   9.617  11.298
79522SOL    HW240406   4.703   9.634  11.233
79523SOL     OW40407   1.142   0.143   4.247
79523SOL    HW140408   1.185   0.058   4.241
79523SOL    HW240409   1.190   0.199   4.187
79524SOL     OW40410   8.380  14.066   3.858
79524SOL    HW140411   8.437  14.049   3.784
79524SOL    HW240412   8.342  14.152   3.840
79525SOL     OW40413   3.860  12.137   3.667
79525SOL    HW140414   3.768  12.122   3.692
79525SOL    HW240415   3.871  12.232   3.669
79526SOL     OW40416  12.054  11.637  14.275
79526SOL    HW140417  12.034  11.570  14.340
79526SOL    HW240418  12.142  11.669  14.299
79527SOL     OW40419   0.436   4.359   5.830
79527SOL    HW140420   0.481   4.435   5.794
79527SOL    HW240421   0.378   4.395   5.897
79528SOL     OW40422   6.029   4.098   2.032
79528SOL    HW140423   6.051   4.191   2.035
79528SOL    HW240424   6.067   4.062   2.112
79529SOL     OW40425   9.150   9.033  12.266
79529SOL    HW140426   9.167   9.027  12.360
79529SOL    HW240427   9.076   8.974  12.251
79530SOL     OW40428  14.432   4.785   5.724
79530SOL    HW140429  14.413   4.818   5.812
79530SOL    HW240430  14.395   4.697   5.723
79531SOL     OW40431  14.192  12.850   8.172
79531SOL    HW140432  14.247  12.774   8.192
79531SOL    HW240433  14.249  12.908   8.122
79532SOL     OW40434   5.565   0.341   2.559
79532SOL    HW140435   5.518   0.276   2.507
79532SOL    HW240436   5.561   0.421   2.506
79533SOL     OW40437   0.767   9.074   8.924
79533SOL    HW140438   0.691   9.018   8.912
79533SOL    HW240439   0.798   9.056   9.013
79534SOL     OW40440   7.079  10.988   6.205
79534SOL    HW140441   7.145  11.056   6.219
79534SOL    HW240442   7.130  10.907   6.199
79535SOL     OW40443  12.662   5.066   7.800
79535SOL    HW140444  12.667   5.012   7.879
79535SOL    HW240445  12.607   5.016   7.740
79536SOL     OW40446   1.129   4.821   3.268
79536SOL    HW140447   1.191   4.892   3.250
79536SOL    HW240448   1.061   4.861   3.323
79537SOL     OW40449   1.061   6.630   8.079
79537SOL    HW140450   1.031   6.592   8.161
79537SOL    HW240451   1.025   6.718   8.078
79538SOL     OW40452   5.593  13.475  11.978
79538SOL    HW140453   5.682  13.461  12.009
79538SOL    HW240454   5.537  13.437  12.046
79539SOL     OW40455   7.828   8.871  14.322
79539SOL    HW140456   7.761   8.923  14.278
79539SOL    HW240457   7.779   8.800  14.365
79540SOL     OW40458   5.326   6.023   1.425
79540SOL    HW140459   5.274   5.943   1.418
79540SOL    HW240460   5.318   6.049   1.516
79541SOL     OW40461  10.029   3.786   6.677
79541SOL    HW140462  10.076   3.704   6.692
79541SOL    HW240463   9.948   3.759   6.634
79542SOL     OW40464   7.204   5.604   6.182
79542SOL    HW140465   7.219   5.565   6.096
79542SOL    HW240466   7.144   5.676   6.165
79543SOL     OW40467   4.175   0.908  12.371
79543SOL    HW140468   4.161   0.918  12.277
79543SOL    HW240469   4.122   0.832  12.395
79544SOL     OW40470   7.080  13.590   9.488
79544SOL    HW140471   7.088  13.502   9.526
79544SOL    HW240472   7.011  13.581   9.422
79545SOL     OW40473  14.711   0.824   5.266
79545SOL    HW140474  14.700   0.916   5.291
79545SOL    HW240475  14.687   0.774   5.344
79546SOL     OW40476   8.644   6.175   2.687
79546SOL    HW140477   8.558   6.134   2.681
79546SOL    HW240478   8.628   6.257   2.734
79547SOL     OW40479   6.819   6.371   9.508
79547SOL    HW140480   6.770   6.290   9.522
79547SOL    HW240481   6.761   6.440   9.539
79548SOL     OW40482   2.213   0.771   6.157
79548SOL    HW140483   2.193   0.816   6.075
79548SOL    HW240484   2.212   0.678   6.134
79549SOL     OW40485  13.172   7.419   7.989
79549SOL    HW140486  13.241   7.429   8.055
79549SOL    HW240487  13.091   7.442   8.035
79550SOL     OW40488   2.988   2.774  12.567
79550SOL    HW140489   2.953   2.687  12.584
79550SOL    HW240490   2.917   2.821  12.524
79551SOL     OW40491   6.401  13.167   5.318
79551SOL    HW140492   6.486  13.205   5.337
79551SOL    HW240493   6.376  13.205   5.234
79552SOL     OW40494   4.020  12.363   5.576
79552SOL    HW140495   3.941  12.411   5.598
79552SOL    HW240496   4.090  12.428   5.581
79553SOL     OW40497  12.692  10.341   2.580
79553SOL    HW140498  12.763  10.404   2.569
79553SOL    HW240499  12.626  10.389   2.631
79554SOL     OW40500  10.673   9.433   9.619
79554SOL    HW140501  10.734   9.359   9.612
79554SOL    HW240502  10.587   9.392   9.622
79555SOL     OW40503   3.407  14.166   1.861
79555SOL    HW140504   3.404  14.258   1.888
79555SOL    HW240505   3.481  14.130   1.910
79556SOL     OW40506  10.777  13.648   0.834
79556SOL    HW140507  10.718  13.592   0.783
79556SOL    HW240508  10.844  13.587   0.867
79557SOL     OW40509   0.061   4.926  13.863
79557SOL    HW140510   0.095   5.015  13.871
79557SOL    HW240511   0.071   4.906  13.770
79558SOL     OW40512   9.686   8.146   4.503
79558SOL    HW140513   9.628   8.131   4.577
79558SOL    HW240514   9.700   8.241   4.501
79559SOL     OW40515  11.572   6.494   2.737
79559SOL    HW140516  11.520   6.572   2.754
79559SOL    HW240517  11.514   6.421   2.762
79560SOL     OW40518  13.717  14.120   2.264
79560SOL    HW140519  13.659  14.195   2.274
79560SOL    HW240520  13.702  14.067   2.342
79561SOL     OW40521   6.521   3.127  11.497
79561SOL    HW140522   6.479   3.165  11.420
79561SOL    HW240523   6.486   3.177  11.570
79562SOL     OW40524  11.968  11.420  13.138
79562SOL    HW140525  12.019  11.454  13.065
79562SOL    HW240526  11.993  11.474  13.213
79563SOL     OW40527  13.012   1.178   7.217
79563SOL    HW140528  13.037   1.270   7.228
79563SOL    HW240529  12.921   1.181   7.186
79564SOL     OW40530   0.801  11.158  13.074
79564SOL    HW140531   0.812  11.231  13.013
79564SOL    HW240532   0.818  11.196  13.160
79565SOL     OW40533   0.540   2.620  11.430
79565SOL    HW140534   0.633   2.642  11.424
79565SOL    HW240535   0.538   2.525  11.438
79566SOL     OW40536  11.678   1.089   1.454
79566SOL    HW140537  11.739   1.019   1.430
79566SOL    HW240538  11.716   1.128   1.533
79567SOL     OW40539   2.102  13.495  10.968
79567SOL    HW140540   2.060  13.514  10.884
79567SOL    HW240541   2.090  13.400  10.979
79568SOL     OW40542  10.496   2.570  12.382
79568SOL    HW140543  10.419   2.564  12.438
79568SOL    HW240544  10.563   2.519  12.427
79569SOL     OW40545   3.726  13.142   1.558
79569SOL    HW140546   3.724  13.197   1.637
79569SOL    HW240547   3.718  13.204   1.486
79570SOL     OW40548   5.568   0.601   0.820
79570SOL    HW140549   5.595   0.669   0.758
79570SOL    HW240550   5.638   0.599   0.885
79571SOL     OW40551   5.212   3.038   9.993
79571SOL    HW140552   5.131   2.988  10.009
79571SOL    HW240553   5.269   2.976   9.947
79572SOL     OW40554   7.277   4.832  14.293
79572SOL    HW140555   7.292   4.919  14.331
79572SOL    HW240556   7.279   4.773  14.368
79573SOL     OW40557   5.000  10.728   1.980
79573SOL    HW140558   4.948  10.805   1.958
79573SOL    HW240559   4.941  10.654   1.969
79574SOL     OW40560  13.289   7.110  13.418
79574SOL    HW140561  13.239   7.058  13.481
79574SOL    HW240562  13.262   7.200  13.435
79575SOL     OW40563  13.980  13.575   5.595
79575SOL    HW140564  13.893  13.608   5.573
79575SOL    HW240565  14.040  13.639   5.557
79576SOL     OW40566  10.304   1.690   2.303
79576SOL    HW140567  10.355   1.753   2.252
79576SOL    HW240568  10.287   1.734   2.386
79577SOL     OW40569  12.806  12.716   6.095
79577SOL    HW140570  12.812  12.652   6.024
79577SOL    HW240571  12.887  12.767   6.088
79578SOL     OW40572   3.967   0.425   5.116
79578SOL    HW140573   4.052   0.468   5.126
79578SOL    HW240574   3.924   0.473   5.045
79579SOL     OW40575   8.533   5.449  10.606
79579SOL    HW140576   8.624   5.445  10.575
79579SOL    HW240577   8.485   5.489  10.534
79580SOL     OW40578  11.564  14.816   2.181
79580SOL    HW140579  11.541  14.874   2.254
79580SOL    HW240580  11.538  14.864   2.103
79581SOL     OW40581   0.839   3.104  12.327
79581SOL    HW140582   0.843   3.199  12.314
79581SOL    HW240583   0.758   3.090  12.377
79582SOL     OW40584   3.236   4.313  11.486
79582SOL    HW140585   3.212   4.324  11.395
79582SOL    HW240586   3.258   4.220  11.494
79583SOL     OW40587   0.870   4.153  11.658
79583SOL    HW140588   0.902   4.243  11.658
79583SOL    HW240589   0.939   4.104  11.703
79584SOL     OW40590   2.257   3.874  14.476
79584SOL    HW140591   2.286   3.951  14.525
79584SOL    HW240592   2.249   3.805  14.541
79585SOL     OW40593  12.306  11.603   0.325
79585SOL    HW140594  12.356  11.538   0.375
79585SOL    HW240595  12.231  11.623   0.382
79586SOL     OW40596   0.646   4.913   0.784
79586SOL    HW140597   0.657   5.008   0.776
79586SOL    HW240598   0.638   4.897   0.878
79587SOL     OW40599   5.628   1.257  13.965
79587SOL    HW140600   5.643   1.340  14.011
79587SOL    HW240601   5.656   1.190  14.027
79588SOL     OW40602  13.171  14.602   5.858
79588SOL    HW140603  13.216  14.520   5.882
79588SOL    HW240604  13.212  14.668   5.914
79589SOL     OW40605   2.343   4.298  13.450
79589SOL    HW140606   2.403   4.343  13.510
79589SOL    HW240607   2.331   4.360  13.378
79590SOL     OW40608  12.041   1.874  11.556
79590SOL    HW140609  11.964   1.899  11.607
79590SOL    HW240610  12.108   1.939  11.579
79591SOL     OW40611   3.720   5.905   9.366
79591SOL    HW140612   3.763   5.819   9.361
79591SOL    HW240613   3.756   5.945   9.445
79592SOL     OW40614   0.688   0.722   3.987
79592SOL    HW140615   0.625   0.661   4.027
79592SOL    HW240616   0.636   0.800   3.968
79593SOL     OW40617   6.837   2.883   5.926
79593SOL    HW140618   6.888   2.934   5.990
79593SOL    HW240619   6.824   2.798   5.969
79594SOL     OW40620   2.601   5.264   9.644
79594SOL    HW140621   2.575   5.172   9.647
79594SOL    HW240622   2.598   5.293   9.735
79595SOL     OW40623   9.962  13.703   5.966
79595SOL    HW140624   9.873  13.684   5.998
79595SOL    HW240625   9.981  13.791   6.000
79596SOL     OW40626   3.546   5.512   9.960
79596SOL    HW140627   3.604   5.562   9.903
79596SOL    HW240628   3.519   5.573  10.028
79597SOL     OW40629   7.056  12.843   7.702
79597SOL    HW140630   6.968  12.858   7.666
79597SOL    HW240631   7.088  12.766   7.655
79598SOL     OW40632  10.614   8.029   0.950
79598SOL    HW140633  10.618   7.937   0.927
79598SOL    HW240634  10.522   8.045   0.970
79599SOL     OW40635   2.342   9.362   0.832
79599SOL    HW140636   2.252   9.355   0.801
79599SOL    HW240637   2.334   9.394   0.922
79600SOL     OW40638   4.204   8.060   1.611
79600SOL    HW140639   4.249   8.076   1.528
79600SOL    HW240640   4.170   8.146   1.636
79601SOL     OW40641   4.334   4.899   5.124
79601SOL    HW140642   4.416   4.865   5.160
79601SOL    HW240643   4.323   4.851   5.042
79602SOL     OW40644   3.150   6.782   5.263
79602SOL    HW140645   3.172   6.852   5.325
79602SOL    HW240646   3.064   6.751   5.292
79603SOL     OW40647   3.626  12.603   3.834
79603SOL    HW140648   3.640  12.556   3.916
79603SOL    HW240649   3.543  12.649   3.847
79604SOL     OW40650   1.745  10.907  11.013
79604SOL    HW140651   1.686  10.833  11.030
79604SOL    HW240652   1.702  10.982  11.054
79605SOL     OW40653  14.198   6.993   3.761
79605SOL    HW140654  14.235   6.945   3.687
79605SOL    HW240655  14.271   7.043   3.796
79606SOL     OW40656   3.395   2.769  14.501
79606SOL    HW140657   3.402   2.691  14.446
79606SOL    HW240658   3.302   2.771  14.526
79607SOL     OW40659  12.765   0.580   4.803
79607SOL    HW140660  12.768   0.488   4.779
79607SOL    HW240661  12.673   0.605   4.793
79608SOL     OW40662   2.401   2.272   4.824
79608SOL    HW140663   2.480   2.275   4.771
79608SOL    HW240664   2.429   2.233   4.907
79609SOL     OW40665   7.960  10.016   6.111
79609SOL    HW140666   8.041   9.985   6.071
79609SOL    HW240667   7.951   9.964   6.190
79610SOL     OW40668   8.680   5.488   7.209
79610SOL    HW140669   8.748   5.554   7.220
79610SOL    HW240670   8.672   5.447   7.295
79611SOL     OW40671  11.323   8.985   2.627
79611SOL    HW140672  11.251   8.964   2.686
79611SOL    HW240673  11.397   8.935   2.662
79612SOL     OW40674   6.568  13.511   7.251
79612SOL    HW140675   6.608  13.520   7.164
79612SOL    HW240676   6.518  13.430   7.246
79613SOL     OW40677   6.501  13.060   0.637
79613SOL    HW140678   6.435  13.111   0.685
79613SOL    HW240679   6.568  13.124   0.613
79614SOL     OW40680   8.627   8.908  11.592
79614SOL    HW140681   8.686   8.910  11.667
79614SOL    HW240682   8.548   8.864  11.624
79615SOL     OW40683   7.849   7.253   9.031
79615SOL    HW140684   7.799   7.176   9.003
79615SOL    HW240685   7.790   7.327   9.018
79616SOL     OW40686   4.459   4.644  11.369
79616SOL    HW140687   4.365   4.665  11.370
79616SOL    HW240688   4.495   4.693  11.443
79617SOL     OW40689   4.476  13.408   8.195
79617SOL    HW140690   4.405  13.453   8.242
79617SOL    HW240691   4.435  13.376   8.115
79618SOL     OW40692   0.060  11.469   6.299
79618SOL    HW140693   0.074  11.389   6.247
79618SOL    HW240694   0.118  11.534   6.259
79619SOL     OW40695   8.475   4.489   1.040
79619SOL    HW140696   8.562   4.456   1.019
79619SOL    HW240697   8.482   4.584   1.028
79620SOL     OW40698   4.544   4.763   0.085
79620SOL    HW140699   4.496   4.800   0.159
79620SOL    HW240700   4.541   4.668   0.101
79621SOL     OW40701  10.703   3.017   3.668
79621SOL    HW140702  10.660   3.076   3.607
79621SOL    HW240703  10.747   3.074   3.730
79622SOL     OW40704   2.316  12.286  14.738
79622SOL    HW140705   2.354  12.320  14.819
79622SOL    HW240706   2.245  12.228  14.768
79623SOL     OW40707  11.937   1.036   6.922
79623SOL    HW140708  11.993   0.980   6.975
79623SOL    HW240709  11.994   1.108   6.895
79624SOL     OW40710  11.364  11.033   9.163
79624SOL    HW140711  11.320  11.114   9.186
79624SOL    HW240712  11.408  11.052   9.080
79625SOL     OW40713  10.797   3.405   0.201
79625SOL    HW140714  10.771   3.449   0.120
79625SOL    HW240715  10.804   3.476   0.265
79626SOL     OW40716   4.742  14.713  14.733
79626SOL    HW140717   4.660  14.701  14.779
79626SOL    HW240718   4.776  14.624  14.719
79627SOL     OW40719   5.271  13.492   8.930
79627SOL    HW140720   5.290  13.484   9.024
79627SOL    HW240721   5.199  13.431   8.915
79628SOL     OW40722   7.116  11.523  13.043
79628SOL    HW140723   7.190  11.510  12.985
79628SOL    HW240724   7.144  11.592  13.103
79629SOL     OW40725   5.928   4.467   9.826
79629SOL    HW140726   5.850   4.433   9.782
79629SOL    HW240727   6.001   4.433   9.774
79630SOL     OW40728  10.070   1.971  11.391
79630SOL    HW140729  10.069   1.899  11.454
79630SOL    HW240730  10.011   1.944  11.322
79631SOL     OW40731  13.620   1.927   7.428
79631SOL    HW140732  13.710   1.912   7.400
79631SOL    HW240733  13.623   1.918   7.523
79632SOL     OW40734   7.669   0.380   2.553
79632SOL    HW140735   7.585   0.363   2.595
79632SOL    HW240736   7.657   0.463   2.507
79633SOL     OW40737   6.890   9.893   7.100
79633SOL    HW140738   6.922   9.878   7.011
79633SOL    HW240739   6.867   9.806   7.132
79634SOL     OW40740  10.340   1.622   3.768
79634SOL    HW140741  10.245   1.631   3.776
79634SOL    HW240742  10.374   1.708   3.796
79635SOL     OW40743  12.601  11.648   1.503
79635SOL    HW140744  12.561  11.734   1.515
79635SOL    HW240745  12.542  11.587   1.547
79636SOL     OW40746   1.687   3.552  11.501
79636SOL    HW140747   1.626   3.582  11.568
79636SOL    HW240748   1.650   3.469  11.471
79637SOL     OW40749   0.313   3.596  12.846
79637SOL    HW140750   0.375   3.632  12.909
79637SOL    HW240751   0.335   3.639  12.763
79638SOL     OW40752   2.730  11.285   9.421
79638SOL    HW140753   2.647  11.238   9.432
79638SOL    HW240754   2.757  11.265   9.331
79639SOL     OW40755   8.479   5.601  14.277
79639SOL    HW140756   8.551   5.663  14.283
79639SOL    HW240757   8.500   5.546  14.202
79640SOL     OW40758   3.581   5.832   2.849
79640SOL    HW140759   3.490   5.801   2.845
79640SOL    HW240760   3.578   5.904   2.912
79641SOL     OW40761  13.876  12.141   6.631
79641SOL    HW140762  13.784  12.161   6.647
79641SOL    HW240763  13.920  12.165   6.712
79642SOL     OW40764  10.315   7.365  10.894
79642SOL    HW140765  10.321   7.448  10.847
79642SOL    HW240766  10.346   7.385  10.982
79643SOL     OW40767   3.015  10.698   7.507
79643SOL    HW140768   3.089  10.685   7.566
79643SOL    HW240769   3.040  10.652   7.427
79644SOL     OW40770   0.391   0.183   8.528
79644SOL    HW140771   0.400   0.274   8.556
79644SOL    HW240772   0.445   0.134   8.590
79645SOL     OW40773   8.360   4.322  12.598
79645SOL    HW140774   8.307   4.371  12.661
79645SOL    HW240775   8.449   4.328  12.632
79646SOL     OW40776   6.353  13.196  12.630
79646SOL    HW140777   6.365  13.102  12.642
79646SOL    HW240778   6.419  13.236  12.686
79647SOL     OW40779   3.996  12.460   5.974
79647SOL    HW140780   3.904  12.487   5.976
79647SOL    HW240781   4.042  12.532   5.932
79648SOL     OW40782   5.963   8.346  13.380
79648SOL    HW140783   5.970   8.289  13.303
79648SOL    HW240784   5.916   8.423  13.348
79649SOL     OW40785  13.298   8.981   4.938
79649SOL    HW140786  13.229   9.017   4.883
79649SOL    HW240787  13.379   9.003   4.892
79650SOL     OW40788  10.393   6.702   7.231
79650SOL    HW140789  10.323   6.720   7.168
79650SOL    HW240790  10.356   6.727   7.316
79651SOL     OW40791   7.306   8.126  13.234
79651SOL    HW140792   7.370   8.123  13.164
79651SOL    HW240793   7.293   8.219  13.251
79652SOL     OW40794   2.252   9.877   7.703
79652SOL    HW140795   2.215   9.809   7.647
79652SOL    HW240796   2.347   9.863   7.700
79653SOL     OW40797   2.843   0.072   8.132
79653SOL    HW140798   2.913   0.101   8.191
79653SOL    HW240799   2.870   0.103   8.046
79654SOL     OW40800   1.614   7.445  13.336
79654SOL    HW140801   1.690   7.389  13.353
79654SOL    HW240802   1.578   7.464  13.423
79655SOL     OW40803  13.724   6.553  13.992
79655SOL    HW140804  13.722   6.530  14.085
79655SOL    HW240805  13.721   6.649  13.991
79656SOL     OW40806   4.084   1.794   7.748
79656SOL    HW140807   4.063   1.770   7.658
79656SOL    HW240808   4.024   1.741   7.802
79657SOL     OW40809  10.160   9.694   7.375
79657SOL    HW140810  10.202   9.724   7.294
79657SOL    HW240811  10.155   9.773   7.430
79658SOL     OW40812  10.600   7.952   6.641
79658SOL    HW140813  10.532   7.911   6.694
79658SOL    HW240814  10.649   8.006   6.702
79659SOL     OW40815   0.568   6.463   4.169
79659SOL    HW140816   0.605   6.408   4.238
79659SOL    HW240817   0.561   6.406   4.093
79660SOL     OW40818  12.147   3.933   7.589
79660SOL    HW140819  12.185   4.016   7.617
79660SOL    HW240820  12.198   3.867   7.635
79661SOL     OW40821   5.080  10.085   4.029
79661SOL    HW140822   5.130  10.056   4.106
79661SOL    HW240823   5.117  10.171   4.007
79662SOL     OW40824   7.151   0.175   3.668
79662SOL    HW140825   7.150   0.150   3.761
79662SOL    HW240826   7.200   0.257   3.665
79663SOL     OW40827   4.853  10.002  11.210
79663SOL    HW140828   4.915   9.991  11.138
79663SOL    HW240829   4.907  10.031  11.284
79664SOL     OW40830   3.551   0.218  14.147
79664SOL    HW140831   3.522   0.309  14.138
79664SOL    HW240832   3.549   0.202  14.242
79665SOL     OW40833  10.063   8.566  10.794
79665SOL    HW140834  10.012   8.579  10.714
79665SOL    HW240835  10.107   8.650  10.808
79666SOL     OW40836   3.124   1.602   1.934
79666SOL    HW140837   3.048   1.565   1.978
79666SOL    HW240838   3.100   1.605   1.841
79667SOL     OW40839  13.101   6.201  14.494
79667SOL    HW140840  13.014   6.168  14.518
79667SOL    HW240841  13.094   6.223  14.402
79668SOL     OW40842   6.880   4.686   6.562
79668SOL    HW140843   6.860   4.776   6.536
79668SOL    HW240844   6.834   4.675   6.646
79669SOL     OW40845   9.922  13.508   6.532
79669SOL    HW140846   9.848  13.567   6.550
79669SOL    HW240847   9.942  13.468   6.616
79670SOL     OW40848  14.317   0.012   0.653
79670SOL    HW140849  14.343   0.073   0.585
79670SOL    HW240850  14.399  14.849   0.686
79671SOL     OW40851   7.333   1.465   3.922
79671SOL    HW140852   7.253   1.493   3.967
79671SOL    HW240853   7.392   1.439   3.992
79672SOL     OW40854   2.732   0.851   1.321
79672SOL    HW140855   2.806   0.844   1.381
79672SOL    HW240856   2.700   0.941   1.333
79673SOL     OW40857   0.397   0.892   2.630
79673SOL    HW140858   0.412   0.818   2.689
79673SOL    HW240859   0.367   0.851   2.548
79674SOL     OW40860   4.163   8.067   4.717
79674SOL    HW140861   4.141   8.153   4.682
79674SOL    HW240862   4.081   8.018   4.713
79675SOL     OW40863  11.095  14.581  11.830
79675SOL    HW140864  11.144  14.540  11.902
79675SOL    HW240865  11.094  14.516  11.761
79676SOL     OW40866   3.021   1.112  11.351
79676SOL    HW140867   2.987   1.195  11.317
79676SOL    HW240868   3.065   1.135  11.432
79677SOL     OW40869  14.051   0.374   1.243
79677SOL    HW140870  14.111   0.300   1.254
79677SOL    HW240871  13.994   0.348   1.170
79678SOL     OW40872   7.364  12.791  12.679
79678SOL    HW140873   7.407  12.826  12.758
79678SOL    HW240874   7.390  12.851  12.609
79679SOL     OW40875   0.553   1.994   5.893
79679SOL    HW140876   0.479   1.937   5.871
79679SOL    HW240877   0.557   1.993   5.988
79680SOL     OW40878   1.649  10.752   0.925
79680SOL    HW140879   1.576  10.758   0.987
79680SOL    HW240880   1.608  10.735   0.841
79681SOL     OW40881   9.144   5.101   2.157
79681SOL    HW140882   9.122   5.020   2.203
79681SOL    HW240883   9.238   5.094   2.140
79682SOL     OW40884   3.199   7.725   6.922
79682SOL    HW140885   3.272   7.758   6.975
79682SOL    HW240886   3.167   7.802   6.875
79683SOL     OW40887  12.767   5.634   9.491
79683SOL    HW140888  12.694   5.629   9.429
79683SOL    HW240889  12.759   5.555   9.544
79684SOL     OW40890  14.678  11.184   8.221
79684SOL    HW140891  14.667  11.088   8.223
79684SOL    HW240892  14.761  11.198   8.176
79685SOL     OW40893   5.557   4.001   4.046
79685SOL    HW140894   5.601   4.086   4.045
79685SOL    HW240895   5.549   3.978   3.953
79686SOL     OW40896   3.484   6.800   1.618
79686SOL    HW140897   3.397   6.840   1.614
79686SOL    HW240898   3.543   6.871   1.592
79687SOL     OW40899   9.617   4.476   5.524
79687SOL    HW140900   9.571   4.407   5.570
79687SOL    HW240901   9.690   4.432   5.480
79688SOL     OW40902   8.922   3.199  13.960
79688SOL    HW140903   8.836   3.187  13.920
79688SOL    HW240904   8.965   3.263  13.903
79689SOL     OW40905   2.877   4.643   9.776
79689SOL    HW140906   2.909   4.690   9.699
79689SOL    HW240907   2.817   4.577   9.741
79690SOL     OW40908   3.161   8.112   9.686
79690SOL    HW140909   3.143   8.164   9.607
79690SOL    HW240910   3.093   8.045   9.687
79691SOL     OW40911   6.008   9.770   6.782
79691SOL    HW140912   5.943   9.788   6.849
79691SOL    HW240913   5.958   9.738   6.707
79692SOL     OW40914  12.847   0.283   0.422
79692SOL    HW140915  12.849   0.259   0.515
79692SOL    HW240916  12.921   0.342   0.410
79693SOL     OW40917  10.907   0.926   4.497
79693SOL    HW140918  10.965   0.978   4.553
79693SOL    HW240919  10.841   0.989   4.467
79694SOL     OW40920  13.857  13.539   1.219
79694SOL    HW140921  13.779  13.531   1.275
79694SOL    HW240922  13.907  13.460   1.235
79695SOL     OW40923  13.614   2.142   3.462
79695SOL    HW140924  13.609   2.237   3.466
79695SOL    HW240925  13.703   2.121   3.489
79696SOL     OW40926   8.915  14.477   7.455
79696SOL    HW140927   8.839  14.422   7.474
79696SOL    HW240928   8.989  14.430   7.494
79697SOL     OW40929   8.331   2.037   2.026
79697SOL    HW140930   8.399   1.996   1.973
79697SOL    HW240931   8.376   2.107   2.073
79698SOL     OW40932  11.318   5.472   8.147
79698SOL    HW140933  11.409   5.470   8.115
79698SOL    HW240934  11.266   5.446   8.072
79699SOL     OW40935   3.013   5.500  10.084
79699SOL    HW140936   2.974   5.435  10.026
79699SOL    HW240937   3.103   5.470  10.097
79700SOL     OW40938   6.696   1.482   3.096
79700SOL    HW140939   6.722   1.459   3.185
79700SOL    HW240940   6.681   1.577   3.099
79701SOL     OW40941   4.337   3.747   4.114
79701SOL    HW140942   4.354   3.834   4.150
79701SOL    HW240943   4.252   3.755   4.070
79702SOL     OW40944   4.009   3.850  10.063
79702SOL    HW140945   4.098   3.885  10.057
79702SOL    HW240946   4.018   3.769  10.113
79703SOL     OW40947   9.817  13.387   2.695
79703SOL    HW140948   9.824  13.312   2.755
79703SOL    HW240949   9.851  13.461   2.745
79704SOL     OW40950   6.296   3.351   2.536
79704SOL    HW140951   6.390   3.334   2.535
79704SOL    HW240952   6.276   3.380   2.447
79705SOL     OW40953   4.978   2.406  14.796
79705SOL    HW140954   4.966   2.369   0.009
79705SOL    HW240955   4.969   2.332  14.736
79706SOL     OW40956   0.173   9.702  14.411
79706SOL    HW140957   0.229   9.738  14.480
79706SOL    HW240958   0.197   9.610  14.407
79707SOL     OW40959   0.224   2.504   3.686
79707SOL    HW140960   0.150   2.543   3.733
79707SOL    HW240961   0.274   2.460   3.755
79708SOL     OW40962   8.912  13.450   3.425
79708SOL    HW140963   8.860  13.509   3.370
79708SOL    HW240964   8.899  13.483   3.514
79709SOL     OW40965   0.559   4.318   9.237
79709SOL    HW140966   0.524   4.406   9.248
79709SOL    HW240967   0.650   4.325   9.266
79710SOL     OW40968  12.790   6.246   9.069
79710SOL    HW140969  12.817   6.260   8.979
79710SOL    HW240970  12.694   6.244   9.066
79711SOL     OW40971   9.139   3.439   5.783
79711SOL    HW140972   9.124   3.363   5.727
79711SOL    HW240973   9.051   3.467   5.810
79712SOL     OW40974   9.557   3.836   3.874
79712SOL    HW140975   9.462   3.836   3.881
79712SOL    HW240976   9.586   3.764   3.930
79713SOL     OW40977   7.923   6.256  12.594
79713SOL    HW140978   7.830   6.239  12.580
79713SOL    HW240979   7.928   6.347  12.622
79714SOL     OW40980   3.981  13.538   5.011
79714SOL    HW140981   3.980  13.443   4.997
79714SOL    HW240982   4.002  13.548   5.104
79715SOL     OW40983  13.203   6.940  12.588
79715SOL    HW140984  13.240   6.856  12.560
79715SOL    HW240985  13.129   6.917  12.643
79716SOL     OW40986   1.944  11.304   4.390
79716SOL    HW140987   1.878  11.238   4.411
79716SOL    HW240988   1.893  11.381   4.363
79717SOL     OW40989   4.640  11.024   4.702
79717SOL    HW140990   4.685  11.108   4.704
79717SOL    HW240991   4.710  10.960   4.684
79718SOL     OW40992  14.238   0.628  10.802
79718SOL    HW140993  14.307   0.666  10.749
79718SOL    HW240994  14.157   0.652  10.757
79719SOL     OW40995   8.276  13.977  14.641
79719SOL    HW140996   8.181  13.981  14.633
79719SOL    HW240997   8.308  13.990  14.551
79720SOL     OW40998   0.195  14.834  12.928
79720SOL    HW140999   0.101  14.818  12.935
79720SOL    HW241000   0.211   0.037  12.981
79721SOL     OW41001   2.861   4.661   5.103
79721SOL    HW141002   2.797   4.634   5.169
79721SOL    HW241003   2.812   4.719   5.045
79722SOL     OW41004  12.486   3.803   4.855
79722SOL    HW141005  12.482   3.826   4.948
79722SOL    HW241006  12.395   3.784   4.831
79723SOL     OW41007   6.229   1.772   4.562
79723SOL    HW141008   6.264   1.731   4.641
79723SOL    HW241009   6.244   1.707   4.493
79724SOL     OW41010  11.677   4.411   7.834
79724SOL    HW141011  11.771   4.394   7.821
79724SOL    HW241012  11.639   4.405   7.747
79725SOL     OW41013   1.413   9.093   3.177
79725SOL    HW141014   1.505   9.113   3.159
79725SOL    HW241015   1.366   9.133   3.104
79726SOL     OW41016   0.889   8.087   8.284
79726SOL    HW141017   0.827   8.019   8.259
79726SOL    HW241018   0.957   8.084   8.217
79727SOL     OW41019  12.626  11.815   9.190
79727SOL    HW141020  12.630  11.858   9.275
79727SOL    HW241021  12.640  11.722   9.209
79728SOL     OW41022   8.276  10.166   4.310
79728SOL    HW141023   8.186  10.147   4.285
79728SOL    HW241024   8.313  10.081   4.335
79729SOL     OW41025   3.525   7.613   0.529
79729SOL    HW141026   3.585   7.679   0.563
79729SOL    HW241027   3.481   7.578   0.606
79730SOL     OW41028   2.319   5.423  11.822
79730SOL    HW141029   2.389   5.388  11.767
79730SOL    HW241030   2.364   5.473  11.889
79731SOL     OW41031   8.930   1.638  10.110
79731SOL    HW141032   8.852   1.653  10.163
79731SOL    HW241033   8.998   1.689  10.153
79732SOL     OW41034   1.360   8.404   8.366
79732SOL    HW141035   1.393   8.466   8.301
79732SOL    HW241036   1.418   8.328   8.360
79733SOL     OW41037   9.512  14.237  11.982
79733SOL    HW141038   9.461  14.201  12.055
79733SOL    HW241039   9.523  14.330  12.005
79734SOL     OW41040  11.148   0.285   7.766
79734SOL    HW141041  11.082   0.216   7.766
79734SOL    HW241042  11.116   0.348   7.832
79735SOL     OW41043   3.738   6.993   9.970
79735SOL    HW141044   3.745   7.018   9.878
79735SOL    HW241045   3.771   7.068  10.019
79736SOL     OW41046   5.605   1.352   6.501
79736SOL    HW141047   5.678   1.333   6.441
79736SOL    HW241048   5.622   1.298   6.578
79737SOL     OW41049   6.936   9.841   3.653
79737SOL    HW141050   6.880   9.783   3.601
79737SOL    HW241051   6.995   9.881   3.589
79738SOL     OW41052   2.497   3.609   7.973
79738SOL    HW141053   2.513   3.515   7.965
79738SOL    HW241054   2.477   3.637   7.884
79739SOL     OW41055   8.149  12.070  11.167
79739SOL    HW141056   8.212  12.001  11.191
79739SOL    HW241057   8.124  12.048  11.077
79740SOL     OW41058   8.683   1.038   3.302
79740SOL    HW141059   8.619   1.091   3.349
79740SOL    HW241060   8.712   1.094   3.230
79741SOL     OW41061  13.413  13.323   3.995
79741SOL    HW141062  13.438  13.247   3.943
79741SOL    HW241063  13.319  13.312   4.011
79742SOL     OW41064   2.343   8.187   3.380
79742SOL    HW141065   2.282   8.251   3.343
79742SOL    HW241066   2.427   8.233   3.381
79743SOL     OW41067  12.237   6.120   6.582
79743SOL    HW141068  12.209   6.205   6.615
79743SOL    HW241069  12.306   6.092   6.642
79744SOL     OW41070   2.496  11.124   0.154
79744SOL    HW141071   2.574  11.085   0.193
79744SOL    HW241072   2.499  11.216   0.180
79745SOL     OW41073   7.245   8.569   1.842
79745SOL    HW141074   7.311   8.519   1.794
79745SOL    HW241075   7.240   8.527   1.928
79746SOL     OW41076  11.407   5.401   5.534
79746SOL    HW141077  11.346   5.376   5.465
79746SOL    HW241078  11.465   5.326   5.545
79747SOL     OW41079   5.470   7.891   2.354
79747SOL    HW141080   5.492   7.902   2.446
79747SOL    HW241081   5.380   7.856   2.354
79748SOL     OW41082  12.127   8.621  11.644
79748SOL    HW141083  12.218   8.647  11.632
79748SOL    HW241084  12.088   8.692  11.695
79749SOL     OW41085   2.524   9.092  12.493
79749SOL    HW141086   2.456   9.048  12.543
79749SOL    HW241087   2.600   9.033  12.500
79750SOL     OW41088   2.409   0.247   4.043
79750SOL    HW141089   2.496   0.235   4.082
79750SOL    HW241090   2.405   0.341   4.023
79751SOL     OW41091  12.051   7.487   5.839
79751SOL    HW141092  12.115   7.419   5.824
79751SOL    HW241093  11.967   7.442   5.838
79752SOL     OW41094   5.064  14.103   1.591
79752SOL    HW141095   5.107  14.089   1.507
79752SOL    HW241096   5.059  14.015   1.630
79753SOL     OW41097  13.851   4.574  12.799
79753SOL    HW141098  13.893   4.494  12.766
79753SOL    HW241099  13.782   4.542  12.857
79754SOL     OW41100   5.745   3.938  11.707
79754SOL    HW141101   5.812   3.904  11.766
79754SOL    HW241102   5.759   3.890  11.625
79755SOL     OW41103  12.143   6.357   8.996
79755SOL    HW141104  12.098   6.381   8.915
79755SOL    HW241105  12.236   6.362   8.974
79756SOL     OW41106   9.282   4.515   0.364
79756SOL    HW141107   9.210   4.502   0.426
79756SOL    HW241108   9.315   4.427   0.346
79757SOL     OW41109   1.897   2.769   6.120
79757SOL    HW141110   1.847   2.849   6.107
79757SOL    HW241111   1.934   2.777   6.209
79758SOL     OW41112   4.565  11.690   2.856
79758SOL    HW141113   4.478  11.658   2.833
79758SOL    HW241114   4.549  11.769   2.906
79759SOL     OW41115   5.416   1.436   5.379
79759SOL    HW141116   5.386   1.417   5.290
79759SOL    HW241117   5.340   1.472   5.423
79760SOL     OW41118   6.718   9.786  11.215
79760SOL    HW141119   6.771   9.865  11.228
79760SOL    HW241120   6.744   9.728  11.286
79761SOL     OW41121   5.211   6.435  13.569
79761SOL    HW141122   5.133   6.479  13.602
79761SOL    HW241123   5.269   6.506  13.543
79762SOL     OW41124   7.615  14.399   5.861
79762SOL    HW141125   7.702  14.400   5.901
79762SOL    HW241126   7.604  14.310   5.827
79763SOL     OW41127   6.852   5.676   5.724
79763SOL    HW141128   6.819   5.617   5.657
79763SOL    HW241129   6.822   5.763   5.696
79764SOL     OW41130   0.082   7.551   8.287
79764SOL    HW141131   0.011   7.487   8.280
79764SOL    HW241132   0.078   7.602   8.206
79765SOL     OW41133   3.462  10.569  11.263
79765SOL    HW141134   3.407  10.503  11.306
79765SOL    HW241135   3.466  10.641  11.326
79766SOL     OW41136   3.261  11.475   7.311
79766SOL    HW141137   3.351  11.465   7.341
79766SOL    HW241138   3.221  11.535   7.375
79767SOL     OW41139   6.401  11.498   4.421
79767SOL    HW141140   6.480  11.537   4.458
79767SOL    HW241141   6.337  11.570   4.420
79768SOL     OW41142   5.371   3.126  12.797
79768SOL    HW141143   5.300   3.064  12.783
79768SOL    HW241144   5.435   3.077  12.849
79769SOL     OW41145   4.042   8.229  11.763
79769SOL    HW141146   4.035   8.299  11.698
79769SOL    HW241147   4.134   8.203  11.761
79770SOL     OW41148   6.807  14.488   4.907
79770SOL    HW141149   6.806  14.542   4.828
79770SOL    HW241150   6.822  14.550   4.978
79771SOL     OW41151   2.454  11.901  13.359
79771SOL    HW141152   2.475  11.918  13.268
79771SOL    HW241153   2.511  11.828  13.384
79772SOL     OW41154   3.417   2.710   9.958
79772SOL    HW141155   3.485   2.700   9.891
79772SOL    HW241156   3.465   2.714  10.041
79773SOL     OW41157   2.993   6.424   7.957
79773SOL    HW141158   3.006   6.423   8.052
79773SOL    HW241159   2.967   6.335   7.935
79774SOL     OW41160   8.446  14.526   4.194
79774SOL    HW141161   8.509  14.566   4.253
79774SOL    HW241162   8.466  14.564   4.108
79775SOL     OW41163  13.609   8.264   5.863
79775SOL    HW141164  13.666   8.205   5.912
79775SOL    HW241165  13.642   8.261   5.773
79776SOL     OW41166  13.690   6.401   2.407
79776SOL    HW141167  13.721   6.488   2.429
79776SOL    HW241168  13.749   6.371   2.338
79777SOL     OW41169   5.594   1.702  10.895
79777SOL    HW141170   5.670   1.651  10.868
79777SOL    HW241171   5.526   1.679  10.831
79778SOL     OW41172   5.021   5.330   1.952
79778SOL    HW141173   5.097   5.295   1.999
79778SOL    HW241174   5.017   5.278   1.872
79779SOL     OW41175  12.290  12.786   5.319
79779SOL    HW141176  12.300  12.695   5.291
79779SOL    HW241177  12.205  12.790   5.362
79780SOL     OW41178   5.344  11.212   7.108
79780SOL    HW141179   5.392  11.292   7.128
79780SOL    HW241180   5.265  11.241   7.062
79781SOL     OW41181   5.023   3.679  13.700
79781SOL    HW141182   5.093   3.742  13.715
79781SOL    HW241183   5.067   3.595  13.695
79782SOL     OW41184   5.670   8.251  13.851
79782SOL    HW141185   5.720   8.278  13.774
79782SOL    HW241186   5.648   8.333  13.896
79783SOL     OW41187  10.231   9.430  11.022
79783SOL    HW141188  10.162   9.365  11.005
79783SOL    HW241189  10.209   9.466  11.109
79784SOL     OW41190  12.897  12.196   8.283
79784SOL    HW141191  12.943  12.195   8.367
79784SOL    HW241192  12.835  12.123   8.289
79785SOL     OW41193  10.671   8.540  12.476
79785SOL    HW141194  10.625   8.468  12.433
79785SOL    HW241195  10.611   8.568  12.546
79786SOL     OW41196  12.706  11.974   0.341
79786SOL    HW141197  12.689  12.066   0.322
79786SOL    HW241198  12.680  11.928   0.262
79787SOL     OW41199  10.204  12.951  11.700
79787SOL    HW141200  10.250  12.868  11.711
79787SOL    HW241201  10.257  13.014  11.749
79788SOL     OW41202  14.804   4.248  11.980
79788SOL    HW141203  14.845   4.190  11.915
79788SOL    HW241204  14.869   4.255  12.050
79789SOL     OW41205   8.312   7.152   6.146
79789SOL    HW141206   8.397   7.139   6.188
79789SOL    HW241207   8.331   7.145   6.052
79790SOL     OW41208  14.196  13.453   8.739
79790SOL    HW141209  14.102  13.458   8.760
79790SOL    HW241210  14.203  13.375   8.683
79791SOL     OW41211   8.706  12.561   1.260
79791SOL    HW141212   8.616  12.530   1.264
79791SOL    HW241213   8.701  12.644   1.212
79792SOL     OW41214   1.606  13.132  13.888
79792SOL    HW141215   1.532  13.191  13.905
79792SOL    HW241216   1.674  13.162  13.948
79793SOL     OW41217   5.798  10.545   9.732
79793SOL    HW141218   5.721  10.524   9.679
79793SOL    HW241219   5.856  10.592   9.672
79794SOL     OW41220   6.730   4.518   7.896
79794SOL    HW141221   6.734   4.538   7.990
79794SOL    HW241222   6.811   4.553   7.860
79795SOL     OW41223  13.271   1.950   3.698
79795SOL    HW141224  13.290   1.996   3.616
79795SOL    HW241225  13.356   1.942   3.742
79796SOL     OW41226   4.016  11.172   9.100
79796SOL    HW141227   4.007  11.266   9.119
79796SOL    HW241228   4.018  11.168   9.004
79797SOL     OW41229   6.102   6.827   5.261
79797SOL    HW141230   6.071   6.903   5.311
79797SOL    HW241231   6.063   6.751   5.307
79798SOL     OW41232   6.756  10.754   5.452
79798SOL    HW141233   6.766  10.717   5.364
79798SOL    HW241234   6.811  10.699   5.508
79799SOL     OW41235   4.358  11.633   5.522
79799SOL    HW141236   4.268  11.659   5.503
79799SOL    HW241237   4.401  11.714   5.549
79800SOL     OW41238  12.539  13.407   0.661
79800SOL    HW141239  12.492  13.401   0.578
79800SOL    HW241240  12.563  13.317   0.682
79801SOL     OW41241   7.715   4.008  12.946
79801SOL    HW141242   7.725   4.051  13.031
79801SOL    HW241243   7.734   3.916  12.963
79802SOL     OW41244   5.045  13.092   1.330
79802SOL    HW141245   5.014  13.024   1.271
79802SOL    HW241246   4.999  13.171   1.302
79803SOL     OW41247   9.217   4.804   4.861
79803SOL    HW141248   9.122   4.816   4.849
79803SOL    HW241249   9.225   4.767   4.949
79804SOL     OW41250  10.855   4.467   0.275
79804SOL    HW141251  10.847   4.474   0.370
79804SOL    HW241252  10.936   4.515   0.254
79805SOL     OW41253  14.811   1.310   3.666
79805SOL    HW141254   0.022   1.326   3.625
79805SOL    HW241255  14.765   1.255   3.603
79806SOL     OW41256  13.619   4.079  14.750
79806SOL    HW141257  13.560   4.058  14.822
79806SOL    HW241258  13.683   4.007  14.749
79807SOL     OW41259   3.511  10.839  13.178
79807SOL    HW141260   3.493  10.746  13.162
79807SOL    HW241261   3.437  10.869  13.232
79808SOL     OW41262   8.177   9.261   0.484
79808SOL    HW141263   8.156   9.183   0.534
79808SOL    HW241264   8.136   9.333   0.533
79809SOL     OW41265   4.110  11.902   2.813
79809SOL    HW141266   4.099  11.964   2.885
79809SOL    HW241267   4.137  11.955   2.739
79810SOL     OW41268   8.493  11.693   1.710
79810SOL    HW141269   8.435  11.732   1.644
79810SOL    HW241270   8.561  11.650   1.659
79811SOL     OW41271   1.407   4.554   7.484
79811SOL    HW141272   1.336   4.575   7.545
79811SOL    HW241273   1.388   4.607   7.406
79812SOL     OW41274   0.285   0.268  13.823
79812SOL    HW141275   0.381   0.272  13.824
79812SOL    HW241276   0.258   0.332  13.889
79813SOL     OW41277   3.265  10.661   4.217
79813SOL    HW141278   3.239  10.709   4.296
79813SOL    HW241279   3.351  10.625   4.237
79814SOL     OW41280   0.078  12.669   4.872
79814SOL    HW141281   0.036  12.586   4.893
79814SOL    HW241282   0.164  12.645   4.836
79815SOL     OW41283   0.880  12.259   1.421
79815SOL    HW141284   0.838  12.316   1.356
79815SOL    HW241285   0.844  12.288   1.505
79816SOL     OW41286   8.886   3.024  12.975
79816SOL    HW141287   8.972   3.063  12.991
79816SOL    HW241288   8.899   2.967  12.899
79817SOL     OW41289   0.381   9.511   8.854
79817SOL    HW141290   0.460   9.522   8.906
79817SOL    HW241291   0.411   9.470   8.773
79818SOL     OW41292   0.238  14.593   5.176
79818SOL    HW141293   0.331  14.614   5.177
79818SOL    HW241294   0.228  14.526   5.108
79819SOL     OW41295  12.239   5.934   9.603
79819SOL    HW141296  12.296   6.005   9.573
79819SOL    HW241297  12.238   5.942   9.698
79820SOL     OW41298  13.261   8.346  14.334
79820SOL    HW141299  13.216   8.348  14.249
79820SOL    HW241300  13.350   8.374  14.315
79821SOL     OW41301   1.339   7.178   7.822
79821SOL    HW141302   1.351   7.225   7.739
79821SOL    HW241303   1.276   7.231   7.871
79822SOL     OW41304   0.258  11.868   1.426
79822SOL    HW141305   0.255  11.777   1.395
79822SOL    HW241306   0.352  11.886   1.435
79823SOL     OW41307   1.018  10.685  11.986
79823SOL    HW141308   0.959  10.656  11.917
79823SOL    HW241309   1.073  10.609  12.005
79824SOL     OW41310  14.319  13.631   3.316
79824SOL    HW141311  14.402  13.583   3.327
79824SOL    HW241312  14.342  13.705   3.259
79825SOL     OW41313  13.409   4.335   5.868
79825SOL    HW141314  13.366   4.353   5.784
79825SOL    HW241315  13.337   4.313   5.927
79826SOL     OW41316   8.866  14.445  13.885
79826SOL    HW141317   8.825  14.531  13.870
79826SOL    HW241318   8.793  14.383  13.882
79827SOL     OW41319   9.966   1.173   4.257
79827SOL    HW141320   9.946   1.161   4.350
79827SOL    HW241321  10.030   1.104   4.238
79828SOL     OW41322   8.329   2.139   8.166
79828SOL    HW141323   8.425   2.134   8.156
79828SOL    HW241324   8.317   2.179   8.252
79829SOL     OW41325   2.814   7.730  14.327
79829SOL    HW141326   2.796   7.683  14.246
79829SOL    HW241327   2.860   7.809  14.300
79830SOL     OW41328   8.638   6.560   8.634
79830SOL    HW141329   8.647   6.654   8.648
79830SOL    HW241330   8.620   6.552   8.540
79831SOL     OW41331   9.318   0.000   4.585
79831SOL    HW141332   9.399  14.866   4.635
79831SOL    HW241333   9.281   0.084   4.613
79832SOL     OW41334   2.190  14.185  12.514
79832SOL    HW141335   2.097  14.170  12.526
79832SOL    HW241336   2.196  14.241  12.436
79833SOL     OW41337  10.822   6.491   7.412
79833SOL    HW141338  10.755   6.556   7.392
79833SOL    HW241339  10.774   6.412   7.434
79834SOL     OW41340   7.787   6.426  10.499
79834SOL    HW141341   7.790   6.521  10.514
79834SOL    HW241342   7.785   6.388  10.587
79835SOL     OW41343   6.924   4.259   4.013
79835SOL    HW141344   6.899   4.308   3.934
79835SOL    HW241345   6.962   4.324   4.071
79836SOL     OW41346   4.927   0.591   6.518
79836SOL    HW141347   4.909   0.515   6.574
79836SOL    HW241348   5.020   0.609   6.532
79837SOL     OW41349   9.788   4.412   9.683
79837SOL    HW141350   9.791   4.507   9.689
79837SOL    HW241351   9.722   4.386   9.748
79838SOL     OW41352  10.466   8.476   2.678
79838SOL    HW141353  10.397   8.452   2.617
79838SOL    HW241354  10.484   8.568   2.660
79839SOL     OW41355   1.969   8.295  10.422
79839SOL    HW141356   2.016   8.377  10.434
79839SOL    HW241357   1.940   8.297  10.330
79840SOL     OW41358   3.878  11.748   8.404
79840SOL    HW141359   3.902  11.835   8.436
79840SOL    HW241360   3.783  11.750   8.400
79841SOL     OW41361   4.197   2.406   0.122
79841SOL    HW141362   4.237   2.323   0.096
79841SOL    HW241363   4.200   2.460   0.044
79842SOL     OW41364  13.180  12.866   4.649
79842SOL    HW141365  13.243  12.802   4.618
79842SOL    HW241366  13.169  12.927   4.576
79843SOL     OW41367   8.805   4.842   9.684
79843SOL    HW141368   8.850   4.903   9.625
79843SOL    HW241369   8.713   4.867   9.678
79844SOL     OW41370   7.484  14.276  10.928
79844SOL    HW141371   7.467  14.279  10.834
79844SOL    HW241372   7.414  14.327  10.967
79845SOL     OW41373   7.780   3.745   2.630
79845SOL    HW141374   7.846   3.725   2.697
79845SOL    HW241375   7.718   3.803   2.674
79846SOL     OW41376   3.530   5.343   7.940
79846SOL    HW141377   3.521   5.280   7.869
79846SOL    HW241378   3.440   5.370   7.960
79847SOL     OW41379   8.641   6.554   5.384
79847SOL    HW141380   8.670   6.494   5.316
79847SOL    HW241381   8.566   6.600   5.345
79848SOL     OW41382   9.033   1.600   2.863
79848SOL    HW141383   9.033   1.507   2.885
79848SOL    HW241384   9.087   1.640   2.932
79849SOL     OW41385   6.228  12.909  10.255
79849SOL    HW141386   6.233  12.836  10.317
79849SOL    HW241387   6.139  12.905  10.220
79850SOL     OW41388   5.744  13.458   8.706
79850SOL    HW141389   5.823  13.410   8.732
79850SOL    HW241390   5.740  13.531   8.767
79851SOL     OW41391   4.652   7.231   8.783
79851SOL    HW141392   4.648   7.320   8.818
79851SOL    HW241393   4.572   7.221   8.733
79852SOL     OW41394  14.268   8.790  11.681
79852SOL    HW141395  14.228   8.715  11.636
79852SOL    HW241396  14.283   8.854  11.612
79853SOL     OW41397   5.544  11.498   4.987
79853SOL    HW141398   5.483  11.427   5.006
79853SOL    HW241399   5.589  11.470   4.907
79854SOL     OW41400   6.553   6.627   5.912
79854SOL    HW141401   6.554   6.637   5.817
79854SOL    HW241402   6.571   6.535   5.927
79855SOL     OW41403   2.318  11.927   0.755
79855SOL    HW141404   2.381  11.893   0.691
79855SOL    HW241405   2.271  11.996   0.709
79856SOL     OW41406   1.249   4.496  12.786
79856SOL    HW141407   1.295   4.495  12.870
79856SOL    HW241408   1.158   4.512  12.808
79857SOL     OW41409   4.576   3.291   8.534
79857SOL    HW141410   4.534   3.235   8.600
79857SOL    HW241411   4.568   3.242   8.452
79858SOL     OW41412  14.548   2.989   6.379
79858SOL    HW141413  14.490   2.966   6.307
79858SOL    HW241414  14.559   2.908   6.428
79859SOL     OW41415   7.806  12.996   4.887
79859SOL    HW141416   7.817  13.011   4.981
79859SOL    HW241417   7.741  13.060   4.860
79860SOL     OW41418   3.479   2.266   2.000
79860SOL    HW141419   3.466   2.338   2.062
79860SOL    HW241420   3.393   2.227   1.989
79861SOL     OW41421   4.934   4.052   1.559
79861SOL    HW141422   4.994   4.110   1.513
79861SOL    HW241423   4.942   4.079   1.651
79862SOL     OW41424   2.633   2.573  10.476
79862SOL    HW141425   2.619   2.643  10.413
79862SOL    HW241426   2.728   2.568  10.487
79863SOL     OW41427  14.317   1.590  10.279
79863SOL    HW141428  14.258   1.662  10.300
79863SOL    HW241429  14.280   1.515  10.326
79864SOL     OW41430   1.938  10.916  11.914
79864SOL    HW141431   1.873  10.850  11.939
79864SOL    HW241432   1.963  10.893  11.825
79865SOL     OW41433  14.606  14.096   8.905
79865SOL    HW141434  14.515  14.126   8.912
79865SOL    HW241435  14.609  14.049   8.822
79866SOL     OW41436   0.942   4.402   1.371
79866SOL    HW141437   0.864   4.346   1.374
79866SOL    HW241438   0.967   4.413   1.463
79867SOL     OW41439   3.906   6.394   4.416
79867SOL    HW141440   3.840   6.349   4.363
79867SOL    HW241441   3.889   6.487   4.400
79868SOL     OW41442   7.001  14.764   9.686
79868SOL    HW141443   6.938  14.700   9.721
79868SOL    HW241444   6.967  14.784   9.599
79869SOL     OW41445   7.910  10.262  11.750
79869SOL    HW141446   7.973  10.193  11.730
79869SOL    HW241447   7.964  10.334  11.783
79870SOL     OW41448   3.665  10.096   5.627
79870SOL    HW141449   3.731  10.106   5.558
79870SOL    HW241450   3.582  10.114   5.584
79871SOL     OW41451   6.783   6.266   9.972
79871SOL    HW141452   6.835   6.347   9.974
79871SOL    HW241453   6.701   6.291   9.929
79872SOL     OW41454  10.520  12.060   1.114
79872SOL    HW141455  10.464  11.999   1.161
79872SOL    HW241456  10.488  12.058   1.024
79873SOL     OW41457   4.805  10.696  11.058
79873SOL    HW141458   4.867  10.651  11.115
79873SOL    HW241459   4.741  10.629  11.035
79874SOL     OW41460   0.263   8.279   0.644
79874SOL    HW141461   0.194   8.337   0.676
79874SOL    HW241462   0.330   8.283   0.712
79875SOL     OW41463   2.375   8.726   9.725
79875SOL    HW141464   2.387   8.637   9.759
79875SOL    HW241465   2.357   8.779   9.802
79876SOL     OW41466  12.565   7.258   8.552
79876SOL    HW141467  12.474   7.236   8.532
79876SOL    HW241468  12.607   7.263   8.466
79877SOL     OW41469   1.567   6.138   4.061
79877SOL    HW141470   1.475   6.145   4.037
79877SOL    HW241471   1.582   6.211   4.122
79878SOL     OW41472   0.686   3.021  11.568
79878SOL    HW141473   0.648   3.092  11.515
79878SOL    HW241474   0.638   3.024  11.650
79879SOL     OW41475   8.735   7.926   0.247
79879SOL    HW141476   8.667   7.882   0.195
79879SOL    HW241477   8.805   7.862   0.254
79880SOL     OW41478   0.827  12.061   7.846
79880SOL    HW141479   0.751  12.037   7.901
79880SOL    HW241480   0.863  12.139   7.888
79881SOL     OW41481   5.356   9.134   6.930
79881SOL    HW141482   5.288   9.171   6.873
79881SOL    HW241483   5.412   9.084   6.870
79882SOL     OW41484  14.760   8.109   4.366
79882SOL    HW141485  14.765   8.135   4.274
79882SOL    HW241486  14.819   8.169   4.411
79883SOL     OW41487   2.257  10.301   1.507
79883SOL    HW141488   2.214  10.271   1.427
79883SOL    HW241489   2.350  10.286   1.492
79884SOL     OW41490   1.638   7.033   2.519
79884SOL    HW141491   1.584   6.973   2.570
79884SOL    HW241492   1.579   7.103   2.494
79885SOL     OW41493  13.441  10.151  13.633
79885SOL    HW141494  13.505  10.191  13.692
79885SOL    HW241495  13.476  10.064  13.614
79886SOL     OW41496  11.285   4.373  14.443
79886SOL    HW141497  11.212   4.316  14.419
79886SOL    HW241498  11.258   4.461  14.417
79887SOL     OW41499  12.578  11.113   2.307
79887SOL    HW141500  12.666  11.096   2.275
79887SOL    HW241501  12.524  11.118   2.227
79888SOL     OW41502   6.122   1.404  11.045
79888SOL    HW141503   6.114   1.407  11.140
79888SOL    HW241504   6.215   1.388  11.029
79889SOL     OW41505   3.832  14.619  12.740
79889SOL    HW141506   3.881  14.537  12.745
79889SOL    HW241507   3.780  14.620  12.821
79890SOL     OW41508   9.000   1.747   6.954
79890SOL    HW141509   8.976   1.778   6.867
79890SOL    HW241510   9.000   1.652   6.947
79891SOL     OW41511   8.302   3.581   6.555
79891SOL    HW141512   8.392   3.586   6.587
79891SOL    HW241513   8.311   3.581   6.459
79892SOL     OW41514  11.469  14.420   3.472
79892SOL    HW141515  11.539  14.433   3.536
79892SOL    HW241516  11.394  14.393   3.524
79893SOL     OW41517   0.251  12.348   4.848
79893SOL    HW141518   0.250  12.410   4.775
79893SOL    HW241519   0.223  12.265   4.809
79894SOL     OW41520  11.535   5.958  10.536
79894SOL    HW141521  11.501   5.876  10.573
79894SOL    HW241522  11.487   6.027  10.582
79895SOL     OW41523  14.483   1.397  10.422
79895SOL    HW141524  14.447   1.480  10.389
79895SOL    HW241525  14.407   1.340  10.433
79896SOL     OW41526   5.423  14.722  10.860
79896SOL    HW141527   5.494  14.658  10.867
79896SOL    HW241528   5.468  14.807  10.870
79897SOL     OW41529   8.317  10.103   3.108
79897SOL    HW141530   8.350  10.164   3.042
79897SOL    HW241531   8.222  10.114   3.105
79898SOL     OW41532  14.095  13.224   7.828
79898SOL    HW141533  14.068  13.309   7.861
79898SOL    HW241534  14.149  13.244   7.751
79899SOL     OW41535  11.666   8.244  10.748
79899SOL    HW141536  11.602   8.275  10.812
79899SOL    HW241537  11.645   8.293  10.668
79900SOL     OW41538  10.013  14.616  13.701
79900SOL    HW141539  10.099  14.654  13.682
79900SOL    HW241540  10.023  14.573  13.786
79901SOL     OW41541  12.394   2.168   1.992
79901SOL    HW141542  12.372   2.101   2.056
79901SOL    HW241543  12.321   2.167   1.930
79902SOL     OW41544  14.838   6.449   7.585
79902SOL    HW141545   0.030   6.499   7.538
79902SOL    HW241546   0.012   6.405   7.655
79903SOL     OW41547   0.144   8.154   8.678
79903SOL    HW141548   0.159   8.120   8.590
79903SOL    HW241549   0.184   8.241   8.677
79904SOL     OW41550  14.862   2.146   9.860
79904SOL    HW141551   0.067   2.158   9.911
79904SOL    HW241552  14.798   2.111   9.923
79905SOL     OW41553   7.281  12.438   7.218
79905SOL    HW141554   7.349  12.392   7.169
79905SOL    HW241555   7.212  12.373   7.230
79906SOL     OW41556  14.738   8.385   1.683
79906SOL    HW141557  14.729   8.439   1.761
79906SOL    HW241558  14.830   8.395   1.658
79907SOL     OW41559   6.028  10.548  14.088
79907SOL    HW141560   5.961  10.512  14.146
79907SOL    HW241561   6.062  10.472  14.040
79908SOL     OW41562  12.489   6.449   2.431
79908SOL    HW141563  12.581   6.448   2.460
79908SOL    HW241564  12.489   6.505   2.354
79909SOL     OW41565   5.777   8.453   6.855
79909SOL    HW141566   5.809   8.517   6.792
79909SOL    HW241567   5.850   8.392   6.866
79910SOL     OW41568  10.161  11.388   6.671
79910SOL    HW141569  10.117  11.415   6.590
79910SOL    HW241570  10.207  11.308   6.647
79911SOL     OW41571  13.532   7.358  14.591
79911SOL    HW141572  13.571   7.440  14.622
79911SOL    HW241573  13.448   7.384  14.553
79912SOL     OW41574   6.004   5.052   3.380
79912SOL    HW141575   5.929   4.992   3.386
79912SOL    HW241576   6.038   5.038   3.292
79913SOL     OW41577   9.733   5.135   3.729
79913SOL    HW141578   9.706   5.109   3.641
79913SOL    HW241579   9.800   5.202   3.715
79914SOL     OW41580   5.435  10.505   3.869
79914SOL    HW141581   5.468  10.519   3.957
79914SOL    HW241582   5.497  10.550   3.812
79915SOL     OW41583   0.569   3.693   1.127
79915SOL    HW141584   0.633   3.667   1.060
79915SOL    HW241585   0.604   3.657   1.209
79916SOL     OW41586  11.066   6.088   3.597
79916SOL    HW141587  11.097   6.035   3.523
79916SOL    HW241588  11.110   6.172   3.586
79917SOL     OW41589  13.228   2.376  13.516
79917SOL    HW141590  13.300   2.314  13.527
79917SOL    HW241591  13.154   2.322  13.487
79918SOL     OW41592   3.019   8.752  13.802
79918SOL    HW141593   3.020   8.666  13.760
79918SOL    HW241594   3.078   8.744  13.876
79919SOL     OW41595   7.407  12.689   3.095
79919SOL    HW141596   7.501  12.706   3.095
79919SOL    HW241597   7.375  12.727   3.013
79920SOL     OW41598   1.606  11.200   1.655
79920SOL    HW141599   1.605  11.262   1.582
79920SOL    HW241600   1.672  11.234   1.715
79921SOL     OW41601   4.410   3.118   5.518
79921SOL    HW141602   4.354   3.163   5.455
79921SOL    HW241603   4.362   3.122   5.601
79922SOL     OW41604  13.924   3.845   5.983
79922SOL    HW141605  13.908   3.938   6.001
79922SOL    HW241606  13.879   3.799   6.054
79923SOL     OW41607  13.387  11.938   9.024
79923SOL    HW141608  13.387  11.875   8.952
79923SOL    HW241609  13.442  11.898   9.092
79924SOL     OW41610   5.974   1.706   2.925
79924SOL    HW141611   5.977   1.691   3.019
79924SOL    HW241612   5.989   1.620   2.886
79925SOL     OW41613   8.839   1.376  13.353
79925SOL    HW141614   8.820   1.314  13.282
79925SOL    HW241615   8.810   1.460  13.318
79926SOL     OW41616  11.840   4.375  12.513
79926SOL    HW141617  11.809   4.451  12.561
79926SOL    HW241618  11.763   4.319  12.502
79927SOL     OW41619   0.244   7.199  13.722
79927SOL    HW141620   0.200   7.235  13.799
79927SOL    HW241621   0.277   7.276  13.676
79928SOL     OW41622  10.623   9.433  12.131
79928SOL    HW141623  10.701   9.439  12.188
79928SOL    HW241624  10.567   9.370  12.176
79929SOL     OW41625   1.857  12.200  14.570
79929SOL    HW141626   1.935  12.255  14.574
79929SOL    HW241627   1.822  12.213  14.481
79930SOL     OW41628  11.856   5.865  11.036
79930SOL    HW141629  11.873   5.789  11.092
79930SOL    HW241630  11.897   5.938  11.083
79931SOL     OW41631   7.277   4.514  13.055
79931SOL    HW141632   7.206   4.573  13.031
79931SOL    HW241633   7.303   4.542  13.143
79932SOL     OW41634   0.450   4.903   8.677
79932SOL    HW141635   0.381   4.967   8.698
79932SOL    HW241636   0.438   4.885   8.583
79933SOL     OW41637   3.164  14.315  10.237
79933SOL    HW141638   3.252  14.350  10.223
79933SOL    HW241639   3.108  14.368  10.180
79934SOL     OW41640   4.875   5.859  14.186
79934SOL    HW141641   4.927   5.909  14.248
79934SOL    HW241642   4.903   5.891  14.100
79935SOL     OW41643  12.722   2.568   4.884
79935SOL    HW141644  12.792   2.585   4.820
79935SOL    HW241645  12.709   2.651   4.928
79936SOL     OW41646  11.142  13.363   2.717
79936SOL    HW141647  11.175  13.406   2.795
79936SOL    HW241648  11.197  13.396   2.646
79937SOL     OW41649   0.904  14.298  14.307
79937SOL    HW141650   0.978  14.247  14.273
79937SOL    HW241651   0.943  14.356  14.372
79938SOL     OW41652  10.015   3.038   6.900
79938SOL    HW141653  10.006   3.088   6.981
79938SOL    HW241654   9.938   3.062   6.848
79939SOL     OW41655   2.543  13.371   6.167
79939SOL    HW141656   2.635  13.364   6.192
79939SOL    HW241657   2.517  13.280   6.147
79940SOL     OW41658   2.805   0.327   7.867
79940SOL    HW141659   2.811   0.231   7.873
79940SOL    HW241660   2.742   0.342   7.796
79941SOL     OW41661   6.906   5.474   2.985
79941SOL    HW141662   6.829   5.495   2.932
79941SOL    HW241663   6.956   5.411   2.932
79942SOL     OW41664   8.460  11.560   3.760
79942SOL    HW141665   8.391  11.609   3.715
79942SOL    HW241666   8.415  11.483   3.796
79943SOL     OW41667  10.967  13.805   4.954
79943SOL    HW141668  11.017  13.821   5.034
79943SOL    HW241669  10.905  13.737   4.978
79944SOL     OW41670   3.532  13.731   4.258
79944SOL    HW141671   3.522  13.813   4.305
79944SOL    HW241672   3.471  13.671   4.300
79945SOL     OW41673   6.272  13.108   7.716
79945SOL    HW141674   6.367  13.115   7.707
79945SOL    HW241675   6.251  13.022   7.680
79946SOL     OW41676   3.643   5.986  13.838
79946SOL    HW141677   3.675   6.006  13.926
79946SOL    HW241678   3.598   5.902  13.847
79947SOL     OW41679   9.034   5.837   3.888
79947SOL    HW141680   9.130   5.846   3.891
79947SOL    HW241681   9.006   5.910   3.833
79948SOL     OW41682   6.260   4.926  11.581
79948SOL    HW141683   6.332   4.909  11.642
79948SOL    HW241684   6.180   4.913  11.632
79949SOL     OW41685   5.801   8.439   8.742
79949SOL    HW141686   5.892   8.413   8.730
79949SOL    HW241687   5.755   8.403   8.665
79950SOL     OW41688  10.319  13.217  12.291
79950SOL    HW141689  10.315  13.243  12.383
79950SOL    HW241690  10.304  13.299  12.243
79951SOL     OW41691  14.605  12.471   1.896
79951SOL    HW141692  14.520  12.514   1.888
79951SOL    HW241693  14.668  12.538   1.868
79952SOL     OW41694   5.456  11.896   4.124
79952SOL    HW141695   5.381  11.892   4.182
79952SOL    HW241696   5.531  11.877   4.180
79953SOL     OW41697   8.800   6.809   0.079
79953SOL    HW141698   8.796   6.733   0.138
79953SOL    HW241699   8.809   6.771  14.866
79954SOL     OW41700   9.565  14.347   4.264
79954SOL    HW141701   9.615  14.326   4.186
79954SOL    HW241702   9.565  14.443   4.268
79955SOL     OW41703   1.949   0.723   5.035
79955SOL    HW141704   1.945   0.770   5.118
79955SOL    HW241705   2.042   0.719   5.013
79956SOL     OW41706   4.838  13.975   0.044
79956SOL    HW141707   4.843  14.066   0.071
79956SOL    HW241708   4.751  13.967   0.004
79957SOL     OW41709   1.454   1.001  13.182
79957SOL    HW141710   1.543   1.036  13.182
79957SOL    HW241711   1.398   1.079  13.191
79958SOL     OW41712  14.660  12.043   7.171
79958SOL    HW141713  14.604  12.119   7.155
79958SOL    HW241714  14.600  11.969   7.179
79959SOL     OW41715   5.307   5.412  12.649
79959SOL    HW141716   5.277   5.448  12.733
79959SOL    HW241717   5.305   5.317  12.662
79960SOL     OW41718   6.364   2.304   1.540
79960SOL    HW141719   6.336   2.357   1.465
79960SOL    HW241720   6.301   2.325   1.608
79961SOL     OW41721  10.957  10.955  10.680
79961SOL    HW141722  10.999  11.041  10.686
79961SOL    HW241723  10.885  10.967  10.619
79962SOL     OW41724   3.294   3.485   9.081
79962SOL    HW141725   3.254   3.529   9.156
79962SOL    HW241726   3.223   3.478   9.017
79963SOL     OW41727   2.826  10.559   3.883
79963SOL    HW141728   2.863  10.473   3.869
79963SOL    HW241729   2.749  10.544   3.938
79964SOL     OW41730  13.032  11.478  14.110
79964SOL    HW141731  12.950  11.434  14.089
79964SOL    HW241732  13.008  11.570  14.121
79965SOL     OW41733   4.375  10.751   6.422
79965SOL    HW141734   4.309  10.751   6.352
79965SOL    HW241735   4.422  10.833   6.410
79966SOL     OW41736   4.521   2.338  14.221
79966SOL    HW141737   4.589   2.373  14.278
79966SOL    HW241738   4.476   2.415  14.187
79967SOL     OW41739  12.480   1.775   8.760
79967SOL    HW141740  12.554   1.790   8.701
79967SOL    HW241741  12.445   1.862   8.777
79968SOL     OW41742   6.050   9.684  11.778
79968SOL    HW141743   5.963   9.672  11.741
79968SOL    HW241744   6.102   9.718  11.705
79969SOL     OW41745   9.634  14.828   4.512
79969SOL    HW141746   9.706  14.764   4.508
79969SOL    HW241747   9.585  14.803   4.590
79970SOL     OW41748   3.297   3.064  13.919
79970SOL    HW141749   3.327   3.148  13.953
79970SOL    HW241750   3.325   3.000  13.985
79971SOL     OW41751   5.356   9.480   5.215
79971SOL    HW141752   5.308   9.484   5.298
79971SOL    HW241753   5.444   9.452   5.239
79972SOL     OW41754  12.658   5.368   0.375
79972SOL    HW141755  12.725   5.309   0.341
79972SOL    HW241756  12.580   5.313   0.384
79973SOL     OW41757   4.501   1.951  11.012
79973SOL    HW141758   4.472   2.042  11.017
79973SOL    HW241759   4.587   1.951  11.053
79974SOL     OW41760  10.532   3.327  12.701
79974SOL    HW141761  10.465   3.318  12.634
79974SOL    HW241762  10.552   3.237  12.728
79975SOL     OW41763   9.612   2.863   6.779
79975SOL    HW141764   9.598   2.861   6.684
79975SOL    HW241765   9.571   2.783   6.811
79976SOL     OW41766  11.204   0.103  13.963
79976SOL    HW141767  11.272   0.137  14.020
79976SOL    HW241768  11.231   0.013  13.945
79977SOL     OW41769   2.839  10.496   7.149
79977SOL    HW141770   2.778  10.494   7.075
79977SOL    HW241771   2.906  10.559   7.123
79978SOL     OW41772   3.371   7.007  11.146
79978SOL    HW141773   3.445   7.059  11.176
79978SOL    HW241774   3.294   7.056  11.174
79979SOL     OW41775   8.051  13.537   5.493
79979SOL    HW141776   8.016  13.455   5.529
79979SOL    HW241777   8.145  13.531   5.506
79980SOL     OW41778   0.692   4.080   6.962
79980SOL    HW141779   0.749   4.058   7.035
79980SOL    HW241780   0.608   4.040   6.985
79981SOL     OW41781  11.075   0.268   8.310
79981SOL    HW141782  11.060   0.179   8.278
79981SOL    HW241783  11.136   0.306   8.246
79982SOL     OW41784   4.865  14.609   2.821
79982SOL    HW141785   4.902  14.539   2.876
79982SOL    HW241786   4.918  14.686   2.842
79983SOL     OW41787   5.611  12.033  14.524
79983SOL    HW141788   5.706  12.040  14.530
79983SOL    HW241789   5.595  11.939  14.511
79984SOL     OW41790   2.297  10.029  13.405
79984SOL    HW141791   2.345  10.093  13.457
79984SOL    HW241792   2.226  10.079  13.364
79985SOL     OW41793  12.180   9.857   6.885
79985SOL    HW141794  12.106   9.813   6.843
79985SOL    HW241795  12.257   9.811   6.853
79986SOL     OW41796  10.151   5.066  10.009
79986SOL    HW141797  10.236   5.024  10.019
79986SOL    HW241798  10.164   5.131   9.940
79987SOL     OW41799  12.092  11.979   1.852
79987SOL    HW141800  12.058  12.025   1.775
79987SOL    HW241801  12.013  11.958   1.903
79988SOL     OW41802  12.610  13.103  10.504
79988SOL    HW141803  12.544  13.035  10.518
79988SOL    HW241804  12.615  13.150  10.587
79989SOL     OW41805   5.917   3.691   4.657
79989SOL    HW141806   5.848   3.665   4.598
79989SOL    HW241807   5.965   3.759   4.609
79990SOL     OW41808  13.961   7.426   4.190
79990SOL    HW141809  13.874   7.386   4.201
79990SOL    HW241810  13.996   7.385   4.112
79991SOL     OW41811   9.865   3.334   6.675
79991SOL    HW141812   9.835   3.366   6.760
79991SOL    HW241813   9.825   3.248   6.666
79992SOL     OW41814  14.224   6.893   2.903
79992SOL    HW141815  14.241   6.967   2.845
79992SOL    HW241816  14.274   6.912   2.982
79993SOL     OW41817   4.925   2.899  13.220
79993SOL    HW141818   4.906   2.931  13.132
79993SOL    HW241819   4.877   2.816  13.226
79994SOL     OW41820   4.267  14.627   3.719
79994SOL    HW141821   4.220  14.663   3.794
79994SOL    HW241822   4.358  14.616   3.750
79995SOL     OW41823  13.801   1.329   0.729
79995SOL    HW141824  13.880   1.303   0.776
79995SOL    HW241825  13.798   1.425   0.737
79996SOL     OW41826  13.129  14.681   5.323
79996SOL    HW141827  13.221  14.665   5.302
79996SOL    HW241828  13.123  14.667   5.417
79997SOL     OW41829  12.191   3.308   7.115
79997SOL    HW141830  12.280   3.344   7.109
79997SOL    HW241831  12.196   3.244   7.186
79998SOL     OW41832   0.032  12.422   5.756
79998SOL    HW141833   0.019  12.328   5.773
79998SOL    HW241834  14.855  12.439   5.677
79999SOL     OW41835   5.865   4.520   1.467
79999SOL    HW141836   5.771   4.512   1.451
79999SOL    HW241837   5.876   4.608   1.503
80000SOL     OW41838   5.581  12.706   9.010
80000SOL    HW141839   5.635  12.785   9.013
80000SOL    HW241840   5.635  12.641   8.965
80001SOL     OW41841   9.886   8.057   2.523
80001SOL    HW141842   9.847   7.971   2.508
80001SOL    HW241843   9.954   8.042   2.589
80002SOL     OW41844   9.101  14.323   7.612
80002SOL    HW141845   9.061  14.248   7.656
80002SOL    HW241846   9.139  14.375   7.683
80003SOL     OW41847  14.685   1.640   5.143
80003SOL    HW141848  14.684   1.734   5.164
80003SOL    HW241849  14.604   1.606   5.181
80004SOL     OW41850   0.936  13.589  10.961
80004SOL    HW141851   0.930  13.676  10.922
80004SOL    HW241852   0.992  13.600  11.038
80005SOL     OW41853   0.901   9.426   8.120
80005SOL    HW141854   0.842   9.491   8.160
80005SOL    HW241855   0.884   9.435   8.026
80006SOL     OW41856  13.041  10.325   3.468
80006SOL    HW141857  13.026  10.416   3.493
80006SOL    HW241858  13.056  10.329   3.373
80007SOL     OW41859   9.311  10.514   3.529
80007SOL    HW141860   9.363  10.549   3.456
80007SOL    HW241861   9.344  10.559   3.606
80008SOL     OW41862   4.037   5.838  14.850
80008SOL    HW141863   4.119   5.886  14.858
80008SOL    HW241864   4.029   5.819  14.756
80009SOL     OW41865  10.248  13.819  13.164
80009SOL    HW141866  10.216  13.734  13.136
80009SOL    HW241867  10.283  13.860  13.085
80010SOL     OW41868   5.576   2.064   1.239
80010SOL    HW141869   5.527   2.131   1.192
80010SOL    HW241870   5.526   1.983   1.226
80011SOL     OW41871   3.128   6.861  10.753
80011SOL    HW141872   3.115   6.858  10.847
80011SOL    HW241873   3.222   6.873  10.742
80012SOL     OW41874   6.936  10.902   1.461
80012SOL    HW141875   6.923  10.943   1.375
80012SOL    HW241876   6.973  10.816   1.441
80013SOL     OW41877   4.148   9.856  11.233
80013SOL    HW141878   4.242   9.849  11.219
80013SOL    HW241879   4.112   9.879  11.147
80014SOL     OW41880   2.931   1.192  12.753
80014SOL    HW141881   2.997   1.124  12.741
80014SOL    HW241882   2.907   1.218  12.664
80015SOL     OW41883   0.649   7.375   1.282
80015SOL    HW141884   0.733   7.367   1.327
80015SOL    HW241885   0.584   7.348   1.347
80016SOL     OW41886   6.323  13.613   5.284
80016SOL    HW141887   6.383  13.579   5.350
80016SOL    HW241888   6.236  13.589   5.316
80017SOL     OW41889   1.551   3.959   0.023
80017SOL    HW141890   1.524   4.050   0.034
80017SOL    HW241891   1.521   3.935  14.809
80018SOL     OW41892   5.227   2.511   1.726
80018SOL    HW141893   5.225   2.607   1.723
80018SOL    HW241894   5.313   2.488   1.692
80019SOL     OW41895   0.578  10.163   9.001
80019SOL    HW141896   0.488  10.141   9.026
80019SOL    HW241897   0.607  10.089   8.947
80020SOL     OW41898   0.291  11.534   3.845
80020SOL    HW141899   0.328  11.577   3.768
80020SOL    HW241900   0.365  11.524   3.905
80021SOL     OW41901  12.020   3.060   0.023
80021SOL    HW141902  11.984   3.096   0.103
80021SOL    HW241903  11.960   3.089  14.828
80022SOL     OW41904   3.392  10.651  13.685
80022SOL    HW141905   3.398  10.558  13.705
80022SOL    HW241906   3.327  10.656  13.614
80023SOL     OW41907  11.492   8.174   2.377
80023SOL    HW141908  11.414   8.186   2.323
80023SOL    HW241909  11.459   8.171   2.467
80024SOL     OW41910   8.843   6.522   9.867
80024SOL    HW141911   8.747   6.530   9.871
80024SOL    HW241912   8.862   6.441   9.915
80025SOL     OW41913   3.977  14.722  11.659
80025SOL    HW141914   3.983  14.816  11.678
80025SOL    HW241915   3.940  14.684  11.738
80026SOL     OW41916   1.378   7.942   1.103
80026SOL    HW141917   1.444   7.983   1.048
80026SOL    HW241918   1.350   8.010   1.163
80027SOL     OW41919   5.842   4.345  10.533
80027SOL    HW141920   5.805   4.258  10.518
80027SOL    HW241921   5.772   4.405  10.507
80028SOL     OW41922  12.531   5.672  13.028
80028SOL    HW141923  12.468   5.604  13.005
80028SOL    HW241924  12.599   5.665  12.961
80029SOL     OW41925  14.032  11.280   1.185
80029SOL    HW141926  14.020  11.191   1.154
80029SOL    HW241927  14.086  11.272   1.263
80030SOL     OW41928  14.681  13.315  11.421
80030SOL    HW141929  14.645  13.238  11.376
80030SOL    HW241930  14.655  13.304  11.512
80031SOL     OW41931  12.137   0.125  13.403
80031SOL    HW141932  12.102   0.038  13.383
80031SOL    HW241933  12.059   0.180  13.412
80032SOL     OW41934  13.216   8.822   7.554
80032SOL    HW141935  13.222   8.771   7.635
80032SOL    HW241936  13.305   8.851   7.537
80033SOL     OW41937   2.200  13.023  12.213
80033SOL    HW141938   2.191  13.014  12.308
80033SOL    HW241939   2.268  13.089  12.202
80034SOL     OW41940   1.645   6.479   4.739
80034SOL    HW141941   1.637   6.513   4.650
80034SOL    HW241942   1.565   6.428   4.753
80035SOL     OW41943   9.018   2.646   8.528
80035SOL    HW141944   8.995   2.661   8.436
80035SOL    HW241945   8.949   2.589   8.561
80036SOL     OW41946   1.168   9.136   9.799
80036SOL    HW141947   1.086   9.088   9.805
80036SOL    HW241948   1.143   9.222   9.765
80037SOL     OW41949   9.516   1.501  14.762
80037SOL    HW141950   9.503   1.463  14.849
80037SOL    HW241951   9.605   1.535  14.764
80038SOL     OW41952   6.752   3.299   5.482
80038SOL    HW141953   6.663   3.266   5.496
80038SOL    HW241954   6.745   3.393   5.497
80039SOL     OW41955   8.090  12.444   2.962
80039SOL    HW141956   8.182  12.427   2.945
80039SOL    HW241957   8.044  12.407   2.887
80040SOL     OW41958   5.279   4.064   6.908
80040SOL    HW141959   5.358   4.038   6.956
80040SOL    HW241960   5.310   4.129   6.844
80041SOL     OW41961   8.853   4.665   4.141
80041SOL    HW141962   8.937   4.619   4.148
80041SOL    HW241963   8.801   4.612   4.081
80042SOL     OW41964  12.418  12.434  13.438
80042SOL    HW141965  12.436  12.399  13.525
80042SOL    HW241966  12.427  12.529  13.448
80043SOL     OW41967   7.318   5.717  10.208
80043SOL    HW141968   7.277   5.651  10.154
80043SOL    HW241969   7.411   5.695  10.207
80044SOL     OW41970   6.324  14.052  10.020
80044SOL    HW141971   6.238  14.085  10.048
80044SOL    HW241972   6.376  14.050  10.100
80045SOL     OW41973  11.606   4.448   3.481
80045SOL    HW141974  11.589   4.538   3.453
80045SOL    HW241975  11.701   4.443   3.489
80046SOL     OW41976   4.349   8.051   6.744
80046SOL    HW141977   4.279   7.994   6.777
80046SOL    HW241978   4.347   8.040   6.649
80047SOL     OW41979   4.564  14.560  11.392
80047SOL    HW141980   4.653  14.531  11.376
80047SOL    HW241981   4.570  14.656  11.394
80048SOL     OW41982   6.957   3.343   5.283
80048SOL    HW141983   6.899   3.315   5.354
80048SOL    HW241984   6.918   3.425   5.252
80049SOL     OW41985   3.081   5.029  10.946
80049SOL    HW141986   3.127   4.945  10.946
80049SOL    HW241987   3.112   5.072  10.866
80050SOL     OW41988   4.096  14.854   2.789
80050SOL    HW141989   4.137   0.048   2.842
80050SOL    HW241990   4.145  14.855   2.707
80051SOL     OW41991  12.995   6.692   1.931
80051SOL    HW141992  13.028   6.737   2.008
80051SOL    HW241993  12.972   6.762   1.870
80052SOL     OW41994   8.665   9.572  10.914
80052SOL    HW141995   8.677   9.542  10.824
80052SOL    HW241996   8.571   9.586  10.923
80053SOL     OW41997   9.922  14.061   3.387
80053SOL    HW141998   9.842  14.060   3.334
80053SOL    HW241999   9.916  13.982   3.440
80054SOL     OW42000   3.403  11.804   6.420
80054SOL    HW142001   3.384  11.839   6.507
80054SOL    HW242002   3.415  11.882   6.366
80055SOL     OW42003   2.493   4.307   1.311
80055SOL    HW142004   2.469   4.329   1.401
80055SOL    HW242005   2.412   4.314   1.261
80056SOL     OW42006   5.561   1.564   7.845
80056SOL    HW142007   5.581   1.565   7.751
80056SOL    HW242008   5.578   1.473   7.871
80057SOL     OW42009  11.252   8.856  14.635
80057SOL    HW142010  11.278   8.948  14.630
80057SOL    HW242011  11.329   8.812  14.670
80058SOL     OW42012  12.170   1.590  10.245
80058SOL    HW142013  12.092   1.612  10.194
80058SOL    HW242014  12.161   1.497  10.263
80059SOL     OW42015   5.800  11.338   9.033
80059SOL    HW142016   5.807  11.406   8.966
80059SOL    HW242017   5.868  11.274   9.009
80060SOL     OW42018   0.960  14.237  14.860
80060SOL    HW142019   0.868  14.258   0.004
80060SOL    HW242020   0.970  14.146   0.015
80061SOL     OW42021   1.517   8.784   7.341
80061SOL    HW142022   1.597   8.834   7.326
80061SOL    HW242023   1.510   8.727   7.264
80062SOL     OW42024  13.340   1.247   2.545
80062SOL    HW142025  13.426   1.212   2.570
80062SOL    HW242026  13.352   1.342   2.548
80063SOL     OW42027  13.476   2.618  14.569
80063SOL    HW142028  13.425   2.541  14.594
80063SOL    HW242029  13.553   2.615  14.627
80064SOL     OW42030   6.607   3.167   0.572
80064SOL    HW142031   6.555   3.223   0.515
80064SOL    HW242032   6.650   3.227   0.633
80065SOL     OW42033   4.045  12.343   0.195
80065SOL    HW142034   4.088  12.429   0.193
80065SOL    HW242035   4.013  12.330   0.105
80066SOL     OW42036   0.572  14.042   2.404
80066SOL    HW142037   0.602  14.014   2.491
80066SOL    HW242038   0.564  14.137   2.411
80067SOL     OW42039   0.840   9.896  12.455
80067SOL    HW142040   0.812   9.980  12.419
80067SOL    HW242041   0.828   9.905  12.550
80068SOL     OW42042  14.199   7.183   0.524
80068SOL    HW142043  14.238   7.147   0.603
80068SOL    HW242044  14.151   7.110   0.485
80069SOL     OW42045  13.259   7.947   5.108
80069SOL    HW142046  13.337   8.002   5.097
80069SOL    HW242047  13.190   7.994   5.062
80070SOL     OW42048   9.230   9.980  14.111
80070SOL    HW142049   9.197  10.020  14.191
80070SOL    HW242050   9.323   9.967  14.128
80071SOL     OW42051   1.996   8.694   6.707
80071SOL    HW142052   1.963   8.755   6.642
80071SOL    HW242053   2.037   8.624   6.657
80072SOL     OW42054  13.375  11.241   8.736
80072SOL    HW142055  13.439  11.273   8.673
80072SOL    HW242056  13.416  11.256   8.822
80073SOL     OW42057   9.661   9.307   0.575
80073SOL    HW142058   9.736   9.281   0.522
80073SOL    HW242059   9.611   9.366   0.519
80074SOL     OW42060   4.173   1.711  10.094
80074SOL    HW142061   4.148   1.716  10.186
80074SOL    HW242062   4.217   1.626  10.086
80075SOL     OW42063  13.264  13.684  12.544
80075SOL    HW142064  13.290  13.680  12.636
80075SOL    HW242065  13.207  13.608  12.531
80076SOL     OW42066  11.314   4.317  11.044
80076SOL    HW142067  11.312   4.236  10.991
80076SOL    HW242068  11.232   4.315  11.094
80077SOL     OW42069   5.879   4.314   6.068
80077SOL    HW142070   5.823   4.361   6.130
80077SOL    HW242071   5.929   4.383   6.024
80078SOL     OW42072   6.512   7.616  13.971
80078SOL    HW142073   6.423   7.623  13.937
80078SOL    HW242074   6.503   7.631  14.065
80079SOL     OW42075   8.388   2.331   0.100
80079SOL    HW142076   8.373   2.416   0.057
80079SOL    HW242077   8.359   2.267   0.035
80080SOL     OW42078   9.803   0.178   5.852
80080SOL    HW142079   9.811   0.084   5.837
80080SOL    HW242080   9.889   0.214   5.830
80081SOL     OW42081   9.614   1.624   0.283
80081SOL    HW142082   9.657   1.662   0.206
80081SOL    HW242083   9.629   1.688   0.352
80082SOL     OW42084  13.483  14.741  14.460
80082SOL    HW142085  13.545  14.749  14.387
80082SOL    HW242086  13.455  14.831  14.477
80083SOL     OW42087  12.640   6.333   3.542
80083SOL    HW142088  12.652   6.322   3.448
80083SOL    HW242089  12.678   6.254   3.581
80084SOL     OW42090   4.196   6.805   5.312
80084SOL    HW142091   4.152   6.721   5.325
80084SOL    HW242092   4.198   6.817   5.217
80085SOL     OW42093   9.648   1.728   4.172
80085SOL    HW142094   9.592   1.797   4.138
80085SOL    HW242095   9.724   1.774   4.207
80086SOL     OW42096   0.960  10.603   1.708
80086SOL    HW142097   0.903  10.677   1.687
80086SOL    HW242098   1.016  10.635   1.779
80087SOL     OW42099   1.697  12.404   2.048
80087SOL    HW142100   1.608  12.437   2.039
80087SOL    HW242101   1.751  12.483   2.060
80088SOL     OW42102   6.857   8.849   9.976
80088SOL    HW142103   6.776   8.828   9.930
80088SOL    HW242104   6.924   8.853   9.908
80089SOL     OW42105  10.257   8.760  10.176
80089SOL    HW142106  10.331   8.770  10.117
80089SOL    HW242107  10.293   8.776  10.263
80090SOL     OW42108   1.961   7.214   9.809
80090SOL    HW142109   2.037   7.244   9.759
80090SOL    HW242110   1.925   7.142   9.756
80091SOL     OW42111   1.069   8.283   0.181
80091SOL    HW142112   1.063   8.336   0.260
80091SOL    HW242113   1.003   8.319   0.122
80092SOL     OW42114   0.250   5.644   9.728
80092SOL    HW142115   0.233   5.555   9.760
80092SOL    HW242116   0.250   5.698   9.806
80093SOL     OW42117   8.082   0.828   8.528
80093SOL    HW142118   8.026   0.903   8.509
80093SOL    HW242119   8.115   0.799   8.442
80094SOL     OW42120  14.244  10.996  11.579
80094SOL    HW142121  14.261  10.990  11.485
80094SOL    HW242122  14.330  11.002  11.619
80095SOL     OW42123  12.940   2.643   5.504
80095SOL    HW142124  12.869   2.587   5.536
80095SOL    HW242125  12.947   2.621   5.411
80096SOL     OW42126   6.725   0.119   1.982
80096SOL    HW142127   6.813   0.088   1.961
80096SOL    HW242128   6.680   0.120   1.898
80097SOL     OW42129  14.363   1.663   6.690
80097SOL    HW142130  14.452   1.691   6.708
80097SOL    HW242131  14.309   1.711   6.753
80098SOL     OW42132   7.310   0.541   0.213
80098SOL    HW142133   7.374   0.544   0.284
80098SOL    HW242134   7.360   0.508   0.138
80099SOL     OW42135   2.432  12.264   6.425
80099SOL    HW142136   2.462  12.345   6.385
80099SOL    HW242137   2.379  12.291   6.499
80100SOL     OW42138   2.738   7.514   1.162
80100SOL    HW142139   2.756   7.420   1.168
80100SOL    HW242140   2.773   7.539   1.077
80101SOL     OW42141   1.547   0.661   2.877
80101SOL    HW142142   1.554   0.737   2.936
80101SOL    HW242143   1.505   0.696   2.798
80102SOL     OW42144   3.722   8.509  11.732
80102SOL    HW142145   3.664   8.433  11.743
80102SOL    HW242146   3.803   8.472  11.697
80103SOL     OW42147   0.714   6.531   2.703
80103SOL    HW142148   0.801   6.495   2.721
80103SOL    HW242149   0.655   6.456   2.710
80104SOL     OW42150  13.398   4.041   6.067
80104SOL    HW142151  13.459   4.110   6.095
80104SOL    HW242152  13.427   3.963   6.114
80105SOL     OW42153  12.230   3.232  14.301
80105SOL    HW142154  12.309   3.282  14.281
80105SOL    HW242155  12.187   3.282  14.370
80106SOL     OW42156   7.710   5.866   0.350
80106SOL    HW142157   7.736   5.788   0.300
80106SOL    HW242158   7.734   5.940   0.293
80107SOL     OW42159   2.157   9.427  14.349
80107SOL    HW142160   2.114   9.357  14.398
80107SOL    HW242161   2.138   9.408  14.258
80108SOL     OW42162   3.681   0.375  12.454
80108SOL    HW142163   3.678   0.323  12.374
80108SOL    HW242164   3.590   0.402  12.468
80109SOL     OW42165   2.319   1.872   4.003
80109SOL    HW142166   2.316   1.898   4.095
80109SOL    HW242167   2.399   1.913   3.969
80110SOL     OW42168   2.888  10.367  11.476
80110SOL    HW142169   2.852  10.449  11.444
80110SOL    HW242170   2.983  10.382  11.478
80111SOL     OW42171   4.056   8.913  11.132
80111SOL    HW142172   3.990   8.856  11.171
80111SOL    HW242173   4.028   9.001  11.155
80112SOL     OW42174  14.504   7.810   0.988
80112SOL    HW142175  14.447   7.734   1.002
80112SOL    HW242176  14.484   7.868   1.061
80113SOL     OW42177  10.618   9.802   2.708
80113SOL    HW142178  10.704   9.802   2.749
80113SOL    HW242179  10.602   9.893   2.685
80114SOL     OW42180  14.459  14.009   1.313
80114SOL    HW142181  14.536  13.957   1.337
80114SOL    HW242182  14.495  14.096   1.295
80115SOL     OW42183   5.000  11.993   7.556
80115SOL    HW142184   4.941  11.926   7.521
80115SOL    HW242185   4.944  12.053   7.604
80116SOL     OW42186  14.210   4.095   5.743
80116SOL    HW142187  14.276   4.086   5.675
80116SOL    HW242188  14.222   4.018   5.799
80117SOL     OW42189   5.404  13.196   0.868
80117SOL    HW142190   5.452  13.146   0.801
80117SOL    HW242191   5.325  13.226   0.823
80118SOL     OW42192  11.710  11.031  13.360
80118SOL    HW142193  11.633  11.083  13.340
80118SOL    HW242194  11.784  11.081  13.324
80119SOL     OW42195   6.376   9.186   9.222
80119SOL    HW142196   6.344   9.109   9.176
80119SOL    HW242197   6.430   9.151   9.293
80120SOL     OW42198  11.798   1.637   2.327
80120SOL    HW142199  11.844   1.672   2.251
80120SOL    HW242200  11.803   1.707   2.393
80121SOL     OW42201   6.144   5.133   1.676
80121SOL    HW142202   6.053   5.140   1.706
80121SOL    HW242203   6.189   5.086   1.746
80122SOL     OW42204   1.816  13.315   8.539
80122SOL    HW142205   1.833  13.388   8.598
80122SOL    HW242206   1.895  13.261   8.544
80123SOL     OW42207  12.269   1.191   5.201
80123SOL    HW142208  12.244   1.135   5.127
80123SOL    HW242209  12.199   1.180   5.265
80124SOL     OW42210   4.214   2.470   6.537
80124SOL    HW142211   4.307   2.492   6.533
80124SOL    HW242212   4.188   2.492   6.627
80125SOL     OW42213   4.537  10.698   0.151
80125SOL    HW142214   4.467  10.751   0.188
80125SOL    HW242215   4.611  10.758   0.143
80126SOL     OW42216  11.111  11.196  10.157
80126SOL    HW142217  11.080  11.257  10.090
80126SOL    HW242218  11.041  11.131  10.165
80127SOL     OW42219   9.695  14.839   6.610
80127SOL    HW142220   9.734   0.035   6.663
80127SOL    HW242221   9.726  14.857   6.521
80128SOL     OW42222   4.918  10.068   9.783
80128SOL    HW142223   4.974  10.097   9.711
80128SOL    HW242224   4.845  10.024   9.739
80129SOL     OW42225   7.839   7.519   7.949
80129SOL    HW142226   7.929   7.489   7.965
80129SOL    HW242227   7.837   7.537   7.855
80130SOL     OW42228  12.781   9.038   9.933
80130SOL    HW142229  12.836   8.991   9.871
80130SOL    HW242230  12.692   9.023   9.903
80131SOL     OW42231  11.510  10.170   6.634
80131SOL    HW142232  11.566  10.135   6.565
80131SOL    HW242233  11.501  10.097   6.696
80132SOL     OW42234  12.066  10.500   2.270
80132SOL    HW142235  12.089  10.593   2.271
80132SOL    HW242236  12.144  10.456   2.236
80133SOL     OW42237  10.336   3.435  13.790
80133SOL    HW142238  10.389   3.377  13.735
80133SOL    HW242239  10.261   3.381  13.817
80134SOL     OW42240   1.266   1.282   4.786
80134SOL    HW142241   1.208   1.232   4.728
80134SOL    HW242242   1.336   1.313   4.729
80135SOL     OW42243   1.453  13.895   3.846
80135SOL    HW142244   1.487  13.877   3.934
80135SOL    HW242245   1.393  13.969   3.859
80136SOL     OW42246   6.267  11.766   5.121
80136SOL    HW142247   6.194  11.725   5.073
80136SOL    HW242248   6.292  11.840   5.066
80137SOL     OW42249  12.194   7.280   5.062
80137SOL    HW142250  12.100   7.258   5.057
80137SOL    HW242251  12.238   7.204   5.025
80138SOL     OW42252   5.234   0.063   8.131
80138SOL    HW142253   5.244   0.033   8.221
80138SOL    HW242254   5.294   0.136   8.123
80139SOL     OW42255   8.206   9.943  14.732
80139SOL    HW142256   8.110   9.943  14.740
80139SOL    HW242257   8.222   9.981  14.646
80140SOL     OW42258  10.219   0.793   7.949
80140SOL    HW142259  10.160   0.797   8.024
80140SOL    HW242260  10.304   0.768   7.986
80141SOL     OW42261   1.266  14.679   2.766
80141SOL    HW142262   1.358  14.699   2.746
80141SOL    HW242263   1.216  14.744   2.718
80142SOL     OW42264   4.068   7.186  11.745
80142SOL    HW142265   4.134   7.230  11.799
80142SOL    HW242266   4.118   7.126  11.690
80143SOL     OW42267   2.663   4.969  14.452
80143SOL    HW142268   2.692   4.886  14.415
80143SOL    HW242269   2.721   4.983  14.527
80144SOL     OW42270  11.046   7.128   0.337
80144SOL    HW142271  10.974   7.191   0.335
80144SOL    HW242272  11.072   7.118   0.245
80145SOL     OW42273   4.128  12.139   2.665
80145SOL    HW142274   4.114  12.224   2.706
80145SOL    HW242275   4.106  12.153   2.573
80146SOL     OW42276   0.017   1.221   0.578
80146SOL    HW142277  14.796   1.223   0.588
80146SOL    HW242278   0.036   1.297   0.522
80147SOL     OW42279   1.127  13.701  11.466
80147SOL    HW142280   1.213  13.668  11.440
80147SOL    HW242281   1.074  13.623  11.479
80148SOL     OW42282   9.513   6.560  11.054
80148SOL    HW142283   9.427   6.517  11.057
80148SOL    HW242284   9.550   6.533  10.971
80149SOL     OW42285   5.911   3.613   9.462
80149SOL    HW142286   5.940   3.568   9.542
80149SOL    HW242287   5.991   3.642   9.420
80150SOL     OW42288   1.841  14.194   5.334
80150SOL    HW142289   1.828  14.125   5.398
80150SOL    HW242290   1.791  14.268   5.367
80151SOL     OW42291  13.703  12.524   6.613
80151SOL    HW142292  13.678  12.445   6.662
80151SOL    HW242293  13.719  12.590   6.681
80152SOL     OW42294   6.975  13.743   2.997
80152SOL    HW142295   7.042  13.675   2.996
80152SOL    HW242296   7.022  13.824   2.983
80153SOL     OW42297   4.033   5.435   5.339
80153SOL    HW142298   4.031   5.390   5.255
80153SOL    HW242299   4.105   5.498   5.331
80154SOL     OW42300   3.114   2.072   3.596
80154SOL    HW142301   3.018   2.066   3.600
80154SOL    HW242302   3.142   2.057   3.687
80155SOL     OW42303  12.121   7.701   8.521
80155SOL    HW142304  12.177   7.765   8.566
80155SOL    HW242305  12.127   7.622   8.575
80156SOL     OW42306   5.189   4.412   7.499
80156SOL    HW142307   5.139   4.471   7.442
80156SOL    HW242308   5.241   4.471   7.554
80157SOL     OW42309  12.077   5.959   8.436
80157SOL    HW142310  12.115   5.977   8.350
80157SOL    HW242311  11.983   5.975   8.425
80158SOL     OW42312   4.800  13.751   6.123
80158SOL    HW142313   4.846  13.681   6.170
80158SOL    HW242314   4.721  13.709   6.089
80159SOL     OW42315   9.926   8.352   4.980
80159SOL    HW142316   9.861   8.421   4.963
80159SOL    HW242317   9.889   8.273   4.940
80160SOL     OW42318   7.527   5.216  12.711
80160SOL    HW142319   7.600   5.269  12.740
80160SOL    HW242320   7.475   5.274  12.655
80161SOL     OW42321  13.537   9.124   8.596
80161SOL    HW142322  13.501   9.135   8.507
80161SOL    HW242323  13.461   9.132   8.653
80162SOL     OW42324  10.345   1.938   4.115
80162SOL    HW142325  10.287   1.888   4.173
80162SOL    HW242326  10.313   2.028   4.123
80163SOL     OW42327  13.966  12.267   8.934
80163SOL    HW142328  14.021  12.322   8.880
80163SOL    HW242329  14.022  12.243   9.008
80164SOL     OW42330   1.787  14.501   1.814
80164SOL    HW142331   1.813  14.526   1.903
80164SOL    HW242332   1.696  14.528   1.807
80165SOL     OW42333   6.204  12.913   0.971
80165SOL    HW142334   6.238  12.940   1.056
80165SOL    HW242335   6.196  12.818   0.977
80166SOL     OW42336   9.739   7.227   2.133
80166SOL    HW142337   9.743   7.134   2.111
80166SOL    HW242338   9.761   7.231   2.227
80167SOL     OW42339   0.445   0.580  13.770
80167SOL    HW142340   0.374   0.542  13.718
80167SOL    HW242341   0.403   0.645  13.826
80168SOL     OW42342   6.891   1.266   4.517
80168SOL    HW142343   6.857   1.290   4.430
80168SOL    HW242344   6.844   1.186   4.540
80169SOL     OW42345  11.038   7.627  14.221
80169SOL    HW142346  10.968   7.692  14.218
80169SOL    HW242347  11.029   7.587  14.308
80170SOL     OW42348   8.761   1.499   0.826
80170SOL    HW142349   8.779   1.569   0.764
80170SOL    HW242350   8.710   1.540   0.895
80171SOL     OW42351  13.788   8.877   7.304
80171SOL    HW142352  13.881   8.855   7.295
80171SOL    HW242353  13.786   8.973   7.297
80172SOL     OW42354   8.757  12.774   7.546
80172SOL    HW142355   8.734  12.698   7.600
80172SOL    HW242356   8.815  12.738   7.479
80173SOL     OW42357   7.234   8.130  14.382
80173SOL    HW142358   7.219   8.102  14.292
80173SOL    HW242359   7.147   8.133  14.421
80174SOL     OW42360   1.435  10.901   9.348
80174SOL    HW142361   1.405  10.927   9.435
80174SOL    HW242362   1.356  10.905   9.294
80175SOL     OW42363  14.083   9.803  12.623
80175SOL    HW142364  14.063   9.761  12.539
80175SOL    HW242365  14.158   9.754  12.656
80176SOL     OW42366   9.451  12.289  10.002
80176SOL    HW142367   9.420  12.274  10.091
80176SOL    HW242368   9.446  12.384   9.990
80177SOL     OW42369   3.642   2.771   2.849
80177SOL    HW142370   3.551   2.762   2.820
80177SOL    HW242371   3.673   2.851   2.807
80178SOL     OW42372   5.929   6.150  14.577
80178SOL    HW142373   6.006   6.114  14.622
80178SOL    HW242374   5.899   6.080  14.519
80179SOL     OW42375   1.403   2.907   2.992
80179SOL    HW142376   1.367   2.913   3.081
80179SOL    HW242377   1.494   2.881   3.004
80180SOL     OW42378   9.385   0.546   4.845
80180SOL    HW142379   9.317   0.490   4.882
80180SOL    HW242380   9.432   0.581   4.921
80181SOL     OW42381   4.050   8.685  14.639
80181SOL    HW142382   4.140   8.686  14.607
80181SOL    HW242383   4.000   8.727  14.569
80182SOL     OW42384   9.328  11.021  13.972
80182SOL    HW142385   9.286  10.970  13.903
80182SOL    HW242386   9.390  10.960  14.012
80183SOL     OW42387   1.193   9.047   4.045
80183SOL    HW142388   1.109   9.001   4.047
80183SOL    HW242389   1.198   9.090   4.130
80184SOL     OW42390   1.400   9.195  10.196
80184SOL    HW142391   1.380   9.205  10.103
80184SOL    HW242392   1.482   9.146  10.198
80185SOL     OW42393   6.525   7.269   7.895
80185SOL    HW142394   6.447   7.312   7.860
80185SOL    HW242395   6.552   7.323   7.969
80186SOL     OW42396  13.197   4.969   2.722
80186SOL    HW142397  13.229   5.003   2.639
80186SOL    HW242398  13.222   5.035   2.787
80187SOL     OW42399   8.888  10.110  11.719
80187SOL    HW142400   8.842  10.097  11.802
80187SOL    HW242401   8.920  10.199  11.723
80188SOL     OW42402  11.586   8.064   3.550
80188SOL    HW142403  11.622   7.979   3.578
80188SOL    HW242404  11.632   8.128   3.604
80189SOL     OW42405   3.460  11.347  12.524
80189SOL    HW142406   3.478  11.296  12.444
80189SOL    HW242407   3.384  11.400  12.501
80190SOL     OW42408   4.349  12.204   5.123
80190SOL    HW142409   4.315  12.291   5.098
80190SOL    HW242410   4.271  12.150   5.133
80191SOL     OW42411   5.395  13.129  14.806
80191SOL    HW142412   5.317  13.148  14.859
80191SOL    HW242413   5.426  13.045  14.840
80192SOL     OW42414   3.572   3.596   9.266
80192SOL    HW142415   3.546   3.589   9.358
80192SOL    HW242416   3.667   3.600   9.268
80193SOL     OW42417   1.438  12.687  10.758
80193SOL    HW142418   1.489  12.706  10.679
80193SOL    HW242419   1.367  12.751  10.757
80194SOL     OW42420  12.729   2.388   3.332
80194SOL    HW142421  12.727   2.457   3.398
80194SOL    HW242422  12.649   2.402   3.281
80195SOL     OW42423   0.931   5.838  13.105
80195SOL    HW142424   0.908   5.748  13.129
80195SOL    HW242425   0.865   5.892  13.149
80196SOL     OW42426   0.875   5.605   4.341
80196SOL    HW142427   0.963   5.601   4.303
80196SOL    HW242428   0.826   5.538   4.294
80197SOL     OW42429   4.770   9.597  14.729
80197SOL    HW142430   4.790   9.514  14.774
80197SOL    HW242431   4.759   9.573  14.638
80198SOL     OW42432   7.039   1.990   0.890
80198SOL    HW142433   7.006   2.045   0.961
80198SOL    HW242434   6.999   1.904   0.906
80199SOL     OW42435  10.885  10.048   3.803
80199SOL    HW142436  10.938  10.106   3.748
80199SOL    HW242437  10.938  10.032   3.881
80200SOL     OW42438  11.551   4.591   8.997
80200SOL    HW142439  11.542   4.600   9.092
80200SOL    HW242440  11.466   4.618   8.962
80201SOL     OW42441   3.774   5.559   7.351
80201SOL    HW142442   3.798   5.517   7.268
80201SOL    HW242443   3.854   5.603   7.380
80202SOL     OW42444   0.198   1.850   3.169
80202SOL    HW142445   0.118   1.890   3.135
80202SOL    HW242446   0.171   1.809   3.251
80203SOL     OW42447   8.852  11.808   8.117
80203SOL    HW142448   8.906  11.887   8.118
80203SOL    HW242449   8.911  11.739   8.148
80204SOL     OW42450  13.595   0.552   9.938
80204SOL    HW142451  13.635   0.634   9.967
80204SOL    HW242452  13.614   0.490  10.008
80205SOL     OW42453   7.708  13.028  14.184
80205SOL    HW142454   7.663  13.109  14.209
80205SOL    HW242455   7.790  13.057  14.145
80206SOL     OW42456   4.804   6.133   4.640
80206SOL    HW142457   4.880   6.187   4.620
80206SOL    HW242458   4.840   6.048   4.666
80207SOL     OW42459  11.547   5.769   0.657
80207SOL    HW142460  11.515   5.813   0.736
80207SOL    HW242461  11.471   5.766   0.599
80208SOL     OW42462   1.614   5.100   0.172
80208SOL    HW142463   1.556   5.175   0.184
80208SOL    HW242464   1.671   5.125   0.099
80209SOL     OW42465   4.468   6.432   7.093
80209SOL    HW142466   4.437   6.368   7.029
80209SOL    HW242467   4.491   6.509   7.042
80210SOL     OW42468   9.953  10.067   5.523
80210SOL    HW142469   9.906  10.146   5.496
80210SOL    HW242470   9.957  10.074   5.619
80211SOL     OW42471  11.434   1.032   1.847
80211SOL    HW142472  11.469   1.114   1.882
80211SOL    HW242473  11.364   1.059   1.787
80212SOL     OW42474   3.137   0.163  10.172
80212SOL    HW142475   3.107   0.210  10.094
80212SOL    HW242476   3.204   0.220  10.209
80213SOL     OW42477   4.415   0.880  13.552
80213SOL    HW142478   4.374   0.944  13.610
80213SOL    HW242479   4.498   0.919  13.528
80214SOL     OW42480   7.580   6.251  12.016
80214SOL    HW142481   7.528   6.319  12.059
80214SOL    HW242482   7.586   6.280  11.925
80215SOL     OW42483  11.263   4.919   6.358
80215SOL    HW142484  11.184   4.972   6.346
80215SOL    HW242485  11.332   4.971   6.317
80216SOL     OW42486   1.781  12.108   1.585
80216SOL    HW142487   1.752  12.199   1.579
80216SOL    HW242488   1.703  12.061   1.613
80217SOL     OW42489   7.150   5.578  10.935
80217SOL    HW142490   7.075   5.615  10.982
80217SOL    HW242491   7.184   5.651  10.884
80218SOL     OW42492  12.984   0.272   0.661
80218SOL    HW142493  12.998   0.363   0.689
80218SOL    HW242494  13.004   0.220   0.739
80219SOL     OW42495   8.987   7.174  11.723
80219SOL    HW142496   8.963   7.204  11.810
80219SOL    HW242497   9.003   7.254  11.673
80220SOL     OW42498   6.373  13.240   6.586
80220SOL    HW142499   6.356  13.310   6.523
80220SOL    HW242500   6.332  13.270   6.667
80221SOL     OW42501   9.461   4.059   1.674
80221SOL    HW142502   9.414   4.097   1.749
80221SOL    HW242503   9.417   4.096   1.597
80222SOL     OW42504  11.838  14.048  13.676
80222SOL    HW142505  11.822  14.077  13.765
80222SOL    HW242506  11.767  14.088  13.625
80223SOL     OW42507   2.312   3.182   7.423
80223SOL    HW142508   2.392   3.135   7.401
80223SOL    HW242509   2.337   3.238   7.497
80224SOL     OW42510   7.599  12.083  11.999
80224SOL    HW142511   7.609  12.165  12.047
80224SOL    HW242512   7.678  12.076  11.945
80225SOL     OW42513   1.830   5.264   3.926
80225SOL    HW142514   1.778   5.297   3.853
80225SOL    HW242515   1.880   5.340   3.956
80226SOL     OW42516   9.300   0.342   3.806
80226SOL    HW142517   9.335   0.357   3.719
80226SOL    HW242518   9.218   0.390   3.809
80227SOL     OW42519   7.472   7.724   8.494
80227SOL    HW142520   7.535   7.795   8.508
80227SOL    HW242521   7.426   7.715   8.577
80228SOL     OW42522  11.469   2.796  13.992
80228SOL    HW142523  11.446   2.789  14.085
80228SOL    HW242524  11.410   2.864  13.958
80229SOL     OW42525   0.574  13.970  10.765
80229SOL    HW142526   0.544  14.030  10.833
80229SOL    HW242527   0.496  13.920  10.740
80230SOL     OW42528   0.522  13.898  10.393
80230SOL    HW142529   0.519  13.925  10.301
80230SOL    HW242530   0.563  13.972  10.439
80231SOL     OW42531  10.499   4.601   8.762
80231SOL    HW142532  10.568   4.538   8.781
80231SOL    HW242533  10.462   4.573   8.678
80232SOL     OW42534   1.379   1.769   7.101
80232SOL    HW142535   1.389   1.778   7.006
80232SOL    HW242536   1.468   1.766   7.134
80233SOL     OW42537   5.676   5.222   6.099
80233SOL    HW142538   5.664   5.147   6.157
80233SOL    HW242539   5.624   5.201   6.022
80234SOL     OW42540   1.335   5.158  13.070
80234SOL    HW142541   1.282   5.160  13.149
80234SOL    HW242542   1.389   5.079  13.079
80235SOL     OW42543   1.425   0.542   9.058
80235SOL    HW142544   1.419   0.453   9.022
80235SOL    HW242545   1.514   0.546   9.094
80236SOL     OW42546  13.271  14.291   5.278
80236SOL    HW142547  13.191  14.306   5.227
80236SOL    HW242548  13.245  14.305   5.369
80237SOL     OW42549   8.919  13.430  10.809
80237SOL    HW142550   8.842  13.476  10.775
80237SOL    HW242551   8.946  13.373  10.737
80238SOL     OW42552   9.015  12.999  12.416
80238SOL    HW142553   9.039  13.070  12.476
80238SOL    HW242554   9.097  12.953  12.399
80239SOL     OW42555  12.021  14.831   3.002
80239SOL    HW142556  12.070  14.751   3.023
80239SOL    HW242557  12.017  14.833   2.907
80240SOL     OW42558   7.798   2.757   1.447
80240SOL    HW142559   7.761   2.727   1.363
80240SOL    HW242560   7.892   2.757   1.432
80241SOL     OW42561   9.979   2.903   0.321
80241SOL    HW142562   9.952   2.920   0.231
80241SOL    HW242563  10.060   2.953   0.332
80242SOL     OW42564   9.281   0.139  14.833
80242SOL    HW142565   9.247   0.055  14.804
80242SOL    HW242566   9.216   0.171   0.022
80243SOL     OW42567  13.874  13.831   8.113
80243SOL    HW142568  13.948  13.883   8.143
80243SOL    HW242569  13.908  13.784   8.037
80244SOL     OW42570   3.415   6.360   0.884
80244SOL    HW142571   3.362   6.436   0.860
80244SOL    HW242572   3.442   6.322   0.800
80245SOL     OW42573   9.945   0.799   7.800
80245SOL    HW142574  10.027   0.791   7.849
80245SOL    HW242575   9.909   0.710   7.799
80246SOL     OW42576   4.270  13.821   8.493
80246SOL    HW142577   4.274  13.889   8.561
80246SOL    HW242578   4.343  13.843   8.434
80247SOL     OW42579   7.664   6.332   2.060
80247SOL    HW142580   7.628   6.331   1.971
80247SOL    HW242581   7.734   6.266   2.058
80248SOL     OW42582   9.705   7.870   9.307
80248SOL    HW142583   9.735   7.815   9.379
80248SOL    HW242584   9.667   7.947   9.350
80249SOL     OW42585   7.153   6.571  12.572
80249SOL    HW142586   7.094   6.540  12.504
80249SOL    HW242587   7.226   6.611  12.525
80250SOL     OW42588   3.127   3.497   0.496
80250SOL    HW142589   3.074   3.526   0.422
80250SOL    HW242590   3.189   3.435   0.459
80251SOL     OW42591  10.087   8.393  14.447
80251SOL    HW142592  10.115   8.464  14.504
80251SOL    HW242593  10.054   8.436  14.368
80252SOL     OW42594  10.897   9.144  14.865
80252SOL    HW142595  10.932   9.086  14.797
80252SOL    HW242596  10.872   9.224  14.818
80253SOL     OW42597   0.984   0.259   9.271
80253SOL    HW142598   0.897   0.260   9.311
80253SOL    HW242599   1.037   0.315   9.328
80254SOL     OW42600   1.969   9.164  13.238
80254SOL    HW142601   1.887   9.120  13.218
80254SOL    HW242602   1.943   9.250  13.272
80255SOL     OW42603  14.073   9.422   8.409
80255SOL    HW142604  14.107   9.444   8.322
80255SOL    HW242605  14.083   9.327   8.415
80256SOL     OW42606   0.673  11.741  10.931
80256SOL    HW142607   0.645  11.663  10.883
80256SOL    HW242608   0.602  11.804  10.918
80257SOL     OW42609  11.645  11.505   2.680
80257SOL    HW142610  11.700  11.580   2.702
80257SOL    HW242611  11.642  11.504   2.585
80258SOL     OW42612  14.728   3.081  11.519
80258SOL    HW142613  14.653   3.030  11.548
80258SOL    HW242614  14.794   3.015  11.494
80259SOL     OW42615  13.626   6.235   0.565
80259SOL    HW142616  13.717   6.259   0.549
80259SOL    HW242617  13.591   6.306   0.619
80260SOL     OW42618   9.518  14.748   6.801
80260SOL    HW142619   9.544  14.766   6.891
80260SOL    HW242620   9.592  14.776   6.748
80261SOL     OW42621   3.601  13.224   8.767
80261SOL    HW142622   3.672  13.189   8.713
80261SOL    HW242623   3.637  13.224   8.856
80262SOL     OW42624   2.012  14.637  10.108
80262SOL    HW142625   2.030  14.729  10.087
80262SOL    HW242626   2.098  14.599  10.125
80263SOL     OW42627   0.179  14.708   1.655
80263SOL    HW142628   0.248  14.670   1.710
80263SOL    HW242629   0.098  14.673   1.692
80264SOL     OW42630   3.224  10.970  10.960
80264SOL    HW142631   3.189  11.021  11.033
80264SOL    HW242632   3.319  10.974  10.970
80265SOL     OW42633  10.981   9.168   1.886
80265SOL    HW142634  10.925   9.221   1.943
80265SOL    HW242635  10.925   9.148   1.811
80266SOL     OW42636  12.840  12.779   7.790
80266SOL    HW142637  12.853  12.863   7.746
80266SOL    HW242638  12.928  12.745   7.802
80267SOL     OW42639   3.679  11.297   0.500
80267SOL    HW142640   3.741  11.235   0.460
80267SOL    HW242641   3.640  11.342   0.425
80268SOL     OW42642   7.488  12.151   0.927
80268SOL    HW142643   7.465  12.098   0.851
80268SOL    HW242644   7.412  12.208   0.941
80269SOL     OW42645   2.843  10.502  11.994
80269SOL    HW142646   2.805  10.414  11.999
80269SOL    HW242647   2.806  10.549  12.068
80270SOL     OW42648  14.404   7.444  13.898
80270SOL    HW142649  14.350   7.374  13.863
80270SOL    HW242650  14.395   7.436  13.993
80271SOL     OW42651   2.128  10.284   0.169
80271SOL    HW142652   2.078  10.366   0.166
80271SOL    HW242653   2.079  10.224   0.113
80272SOL     OW42654   3.734   3.280   4.096
80272SOL    HW142655   3.715   3.291   4.003
80272SOL    HW242656   3.678   3.344   4.140
80273SOL     OW42657   3.666   5.862   5.455
80273SOL    HW142658   3.750   5.816   5.464
80273SOL    HW242659   3.690   5.948   5.420
80274SOL     OW42660   7.858   0.135   1.838
80274SOL    HW142661   7.772   0.168   1.865
80274SOL    HW242662   7.848   0.039   1.839
80275SOL     OW42663  11.328   7.238  10.825
80275SOL    HW142664  11.326   7.186  10.744
80275SOL    HW242665  11.377   7.317  10.801
80276SOL     OW42666   2.542   2.479   3.448
80276SOL    HW142667   2.543   2.575   3.444
80276SOL    HW242668   2.627   2.456   3.486
80277SOL     OW42669   0.493   7.924  11.206
80277SOL    HW142670   0.528   7.950  11.291
80277SOL    HW242671   0.539   7.843  11.185
80278SOL     OW42672   5.273   6.217   3.015
80278SOL    HW142673   5.198   6.253   3.061
80278SOL    HW242674   5.319   6.293   2.980
80279SOL     OW42675  10.857   2.235  10.860
80279SOL    HW142676  10.762   2.220  10.863
80279SOL    HW242677  10.868   2.304  10.795
80280SOL     OW42678   9.331   7.649   6.963
80280SOL    HW142679   9.389   7.670   6.890
80280SOL    HW242680   9.335   7.553   6.969
80281SOL     OW42681   2.343  11.477  10.370
80281SOL    HW142682   2.264  11.423  10.362
80281SOL    HW242683   2.414  11.421  10.341
80282SOL     OW42684  12.489   4.979  14.701
80282SOL    HW142685  12.492   4.950  14.792
80282SOL    HW242686  12.579   5.001  14.679
80283SOL     OW42687  10.696   6.024   4.286
80283SOL    HW142688  10.782   5.994   4.258
80283SOL    HW242689  10.714   6.100   4.342
80284SOL     OW42690  12.438   9.478   4.851
80284SOL    HW142691  12.370   9.460   4.916
80284SOL    HW242692  12.477   9.561   4.879
80285SOL     OW42693   2.210   3.440   8.649
80285SOL    HW142694   2.290   3.492   8.645
80285SOL    HW242695   2.158   3.483   8.717
80286SOL     OW42696  13.496  13.886   7.605
80286SOL    HW142697  13.403  13.906   7.617
80286SOL    HW242698  13.499  13.831   7.527
80287SOL     OW42699   7.874   2.660   8.001
80287SOL    HW142700   7.883   2.565   8.011
80287SOL    HW242701   7.903   2.696   8.084
80288SOL     OW42702   7.919   3.990   0.529
80288SOL    HW142703   7.999   4.042   0.516
80288SOL    HW242704   7.859   4.022   0.463
80289SOL     OW42705   7.271  10.209   4.296
80289SOL    HW142706   7.240  10.290   4.255
80289SOL    HW242707   7.216  10.141   4.259
80290SOL     OW42708  11.871  13.597   3.223
80290SOL    HW142709  11.787  13.582   3.179
80290SOL    HW242710  11.932  13.615   3.151
80291SOL     OW42711   9.532   7.708  11.089
80291SOL    HW142712   9.520   7.785  11.145
80291SOL    HW242713   9.464   7.647  11.116
80292SOL     OW42714  11.574  14.429  11.536
80292SOL    HW142715  11.511  14.422  11.608
80292SOL    HW242716  11.524  14.472  11.466
80293SOL     OW42717   6.380   2.165   9.327
80293SOL    HW142718   6.327   2.170   9.247
80293SOL    HW242719   6.435   2.243   9.324
80294SOL     OW42720   4.793   9.409  10.518
80294SOL    HW142721   4.755   9.328  10.553
80294SOL    HW242722   4.796   9.396  10.424
80295SOL     OW42723   0.675   8.035   0.642
80295SOL    HW142724   0.634   8.004   0.722
80295SOL    HW242725   0.712   7.957   0.601
80296SOL     OW42726   4.381   7.113   2.135
80296SOL    HW142727   4.303   7.126   2.189
80296SOL    HW242728   4.396   7.019   2.136
80297SOL     OW42729  13.238   3.954   3.814
80297SOL    HW142730  13.293   3.993   3.746
80297SOL    HW242731  13.168   4.017   3.828
80298SOL     OW42732   3.135   5.054   1.187
80298SOL    HW142733   3.115   5.109   1.262
80298SOL    HW242734   3.144   4.966   1.223
80299SOL     OW42735  11.547   5.803   3.420
80299SOL    HW142736  11.640   5.784   3.403
80299SOL    HW242737  11.501   5.761   3.347
80300SOL     OW42738   3.770  14.394   6.123
80300SOL    HW142739   3.757  14.433   6.036
80300SOL    HW242740   3.688  14.350   6.142
80301SOL     OW42741   1.624  11.849  10.229
80301SOL    HW142742   1.574  11.787  10.175
80301SOL    HW242743   1.694  11.879  10.172
80302SOL     OW42744   9.973   0.588  13.505
80302SOL    HW142745  10.061   0.622  13.487
80302SOL    HW242746   9.921   0.617  13.431
80303SOL     OW42747  14.711   0.824  10.452
80303SOL    HW142748  14.719   0.910  10.412
80303SOL    HW242749  14.717   0.763  10.379
80304SOL     OW42750  11.297   9.365   0.726
80304SOL    HW142751  11.276   9.394   0.637
80304SOL    HW242752  11.299   9.446   0.777
80305SOL     OW42753   9.126  10.195   2.177
80305SOL    HW142754   9.147  10.249   2.254
80305SOL    HW242755   9.033  10.178   2.184
80306SOL     OW42756   8.024   4.551   9.977
80306SOL    HW142757   8.015   4.631  10.030
80306SOL    HW242758   8.017   4.480  10.041
80307SOL     OW42759   0.293  14.445   4.422
80307SOL    HW142760   0.266  14.431   4.332
80307SOL    HW242761   0.383  14.479   4.416
80308SOL     OW42762  13.300   1.413   1.226
80308SOL    HW142763  13.348   1.394   1.145
80308SOL    HW242764  13.312   1.334   1.279
80309SOL     OW42765  12.571   0.866  14.341
80309SOL    HW142766  12.576   0.843  14.433
80309SOL    HW242767  12.517   0.945  14.338
80310SOL     OW42768   6.448   9.468  13.301
80310SOL    HW142769   6.412   9.531  13.239
80310SOL    HW242770   6.424   9.503  13.387
80311SOL     OW42771  12.246   2.537   8.452
80311SOL    HW142772  12.233   2.478   8.526
80311SOL    HW242773  12.327   2.585   8.473
80312SOL     OW42774   7.619   5.622   7.207
80312SOL    HW142775   7.566   5.568   7.148
80312SOL    HW242776   7.675   5.674   7.148
80313SOL     OW42777  12.179  10.314   1.236
80313SOL    HW142778  12.208  10.381   1.298
80313SOL    HW242779  12.107  10.270   1.282
80314SOL     OW42780   1.076   7.501  13.831
80314SOL    HW142781   1.142   7.545  13.885
80314SOL    HW242782   0.996   7.552  13.846
80315SOL     OW42783  12.544   1.458   2.970
80315SOL    HW142784  12.458   1.442   2.931
80315SOL    HW242785  12.533   1.538   3.021
80316SOL     OW42786   8.285  10.157   0.132
80316SOL    HW142787   8.302  10.232   0.189
80316SOL    HW242788   8.219  10.106   0.179
80317SOL     OW42789  10.609  11.433   1.746
80317SOL    HW142790  10.561  11.388   1.676
80317SOL    HW242791  10.541  11.466   1.804
80318SOL     OW42792  13.841   1.883   5.441
80318SOL    HW142793  13.801   1.839   5.365
80318SOL    HW242794  13.788   1.961   5.454
80319SOL     OW42795  13.466  10.269  12.914
80319SOL    HW142796  13.465  10.361  12.942
80319SOL    HW242797  13.500  10.222  12.990
80320SOL     OW42798  11.522  14.612   9.527
80320SOL    HW142799  11.515  14.615   9.431
80320SOL    HW242800  11.591  14.675   9.548
80321SOL     OW42801   2.569  14.505  10.439
80321SOL    HW142802   2.581  14.432  10.378
80321SOL    HW242803   2.478  14.497  10.468
80322SOL     OW42804  10.396   7.884   8.769
80322SOL    HW142805  10.406   7.861   8.676
80322SOL    HW242806  10.373   7.977   8.768
80323SOL     OW42807  14.339  10.312   0.767
80323SOL    HW142808  14.255  10.298   0.811
80323SOL    HW242809  14.365  10.225   0.738
80324SOL     OW42810   3.980   4.843   5.323
80324SOL    HW142811   4.014   4.926   5.291
80324SOL    HW242812   3.893   4.835   5.284
80325SOL     OW42813   6.070  14.437  11.590
80325SOL    HW142814   6.004  14.432  11.521
80325SOL    HW242815   6.046  14.514  11.641
80326SOL     OW42816   1.547   6.076  12.147
80326SOL    HW142817   1.469   6.033  12.182
80326SOL    HW242818   1.597   6.005  12.107
80327SOL     OW42819   9.129   6.076   8.027
80327SOL    HW142820   9.066   6.009   8.053
80327SOL    HW242821   9.089   6.118   7.950
80328SOL     OW42822   6.295   0.775  13.999
80328SOL    HW142823   6.203   0.753  13.988
80328SOL    HW242824   6.317   0.827  13.921
80329SOL     OW42825  11.405   9.245  13.619
80329SOL    HW142826  11.372   9.171  13.671
80329SOL    HW242827  11.341   9.315  13.635
80330SOL     OW42828   8.324  13.209  13.909
80330SOL    HW142829   8.376  13.241  13.835
80330SOL    HW242830   8.282  13.287  13.944
80331SOL     OW42831   7.889   2.944   5.846
80331SOL    HW142832   7.796   2.930   5.862
80331SOL    HW242833   7.906   3.032   5.879
80332SOL     OW42834  12.964  12.505   3.425
80332SOL    HW142835  12.987  12.412   3.429
80332SOL    HW242836  12.949  12.522   3.332
80333SOL     OW42837   2.674   5.227   6.471
80333SOL    HW142838   2.580   5.243   6.466
80333SOL    HW242839   2.701   5.267   6.553
80334SOL     OW42840   0.190   4.046   4.619
80334SOL    HW142841   0.185   3.966   4.670
80334SOL    HW242842   0.162   4.020   4.531
80335SOL     OW42843   6.396  11.861  12.282
80335SOL    HW142844   6.357  11.794  12.225
80335SOL    HW242845   6.344  11.939  12.267
80336SOL     OW42846   4.774   4.362   3.704
80336SOL    HW142847   4.806   4.397   3.621
80336SOL    HW242848   4.729   4.435   3.746
80337SOL     OW42849  10.512   6.451  11.618
80337SOL    HW142850  10.441   6.397  11.581
80337SOL    HW242851  10.550   6.396  11.686
80338SOL     OW42852   1.721   6.706   1.083
80338SOL    HW142853   1.703   6.801   1.084
80338SOL    HW242854   1.723   6.683   0.990
80339SOL     OW42855   3.935  13.976   2.930
80339SOL    HW142856   3.950  14.057   2.978
80339SOL    HW242857   3.841  13.958   2.941
80340SOL     OW42858   8.312   3.232   0.827
80340SOL    HW142859   8.368   3.292   0.878
80340SOL    HW242860   8.370   3.159   0.805
80341SOL     OW42861   2.731   8.999   6.404
80341SOL    HW142862   2.825   8.994   6.420
80341SOL    HW242863   2.703   9.077   6.452
80342SOL     OW42864   4.375   3.988  13.299
80342SOL    HW142865   4.310   3.980  13.368
80342SOL    HW242866   4.411   3.900  13.289
80343SOL     OW42867   2.364   7.337   0.555
80343SOL    HW142868   2.319   7.252   0.557
80343SOL    HW242869   2.353   7.367   0.465
80344SOL     OW42870   1.748  13.256  13.340
80344SOL    HW142871   1.718  13.284  13.254
80344SOL    HW242872   1.769  13.337  13.386
80345SOL     OW42873   3.315   2.963   6.933
80345SOL    HW142874   3.349   3.027   6.996
80345SOL    HW242875   3.256   2.907   6.985
80346SOL     OW42876   3.854   1.530   4.614
80346SOL    HW142877   3.948   1.542   4.629
80346SOL    HW242878   3.844   1.437   4.594
80347SOL     OW42879  12.897   0.129   3.618
80347SOL    HW142880  12.866   0.120   3.708
80347SOL    HW242881  12.980   0.176   3.626
80348SOL     OW42882   2.938  13.308  12.993
80348SOL    HW142883   3.029  13.295  13.018
80348SOL    HW242884   2.936  13.289  12.899
80349SOL     OW42885   9.856  10.711   8.280
80349SOL    HW142886   9.906  10.715   8.199
80349SOL    HW242887   9.923  10.706   8.349
80350SOL     OW42888  12.661   5.019   0.755
80350SOL    HW142889  12.656   4.934   0.710
80350SOL    HW242890  12.613   5.079   0.697
80351SOL     OW42891   9.827  11.693   4.186
80351SOL    HW142892   9.736  11.694   4.157
80351SOL    HW242893   9.839  11.607   4.225
80352SOL     OW42894  13.675   3.508   0.283
80352SOL    HW142895  13.653   3.575   0.348
80352SOL    HW242896  13.748   3.546   0.234
80353SOL     OW42897  11.950   1.296   4.138
80353SOL    HW142898  11.968   1.246   4.059
80353SOL    HW242899  11.887   1.242   4.187
80354SOL     OW42900   6.663  12.819   0.668
80354SOL    HW142901   6.619  12.903   0.671
80354SOL    HW242902   6.756  12.841   0.666
80355SOL     OW42903   6.511   7.118   9.503
80355SOL    HW142904   6.423   7.150   9.488
80355SOL    HW242905   6.513   7.095   9.596
80356SOL     OW42906   5.666   1.976   5.961
80356SOL    HW142907   5.614   1.919   6.018
80356SOL    HW242908   5.604   2.042   5.930
80357SOL     OW42909  12.851  12.549   5.851
80357SOL    HW142910  12.823  12.459   5.842
80357SOL    HW242911  12.914  12.562   5.780
80358SOL     OW42912   2.458   6.055   5.369
80358SOL    HW142913   2.426   5.968   5.391
80358SOL    HW242914   2.515   6.041   5.293
80359SOL     OW42915   9.887   5.717   6.441
80359SOL    HW142916   9.933   5.788   6.396
80359SOL    HW242917   9.796   5.727   6.415
80360SOL     OW42918   2.320   8.515   6.331
80360SOL    HW142919   2.232   8.517   6.366
80360SOL    HW242920   2.319   8.443   6.268
80361SOL     OW42921  12.893   6.068   7.563
80361SOL    HW142922  12.957   6.000   7.584
80361SOL    HW242923  12.838   6.029   7.495
80362SOL     OW42924  14.574   3.654  11.453
80362SOL    HW142925  14.542   3.665  11.363
80362SOL    HW242926  14.594   3.561  11.460
80363SOL     OW42927   4.031  11.328  14.082
80363SOL    HW142928   4.081  11.350  14.004
80363SOL    HW242929   3.972  11.403  14.095
80364SOL     OW42930   3.830   3.819   4.720
80364SOL    HW142931   3.804   3.770   4.642
80364SOL    HW242932   3.918   3.851   4.700
80365SOL     OW42933   6.723   1.146   2.448
80365SOL    HW142934   6.794   1.148   2.512
80365SOL    HW242935   6.762   1.182   2.368
80366SOL     OW42936   9.886   0.420   9.377
80366SOL    HW142937   9.834   0.488   9.420
80366SOL    HW242938   9.893   0.350   9.442
80367SOL     OW42939  12.775  14.423   6.977
80367SOL    HW142940  12.681  14.421   6.996
80367SOL    HW242941  12.810  14.492   7.034
80368SOL     OW42942  12.957   0.912   2.248
80368SOL    HW142943  12.917   0.932   2.332
80368SOL    HW242944  12.894   0.943   2.183
80369SOL     OW42945  13.194   3.280   8.326
80369SOL    HW142946  13.277   3.289   8.373
80369SOL    HW242947  13.199   3.194   8.285
80370SOL     OW42948   9.062   6.465   5.920
80370SOL    HW142949   9.061   6.500   6.009
80370SOL    HW242950   9.098   6.377   5.929
80371SOL     OW42951   0.065   9.062  12.091
80371SOL    HW142952  14.852   9.097  12.072
80371SOL    HW242953   0.072   9.065  12.186
80372SOL     OW42954  10.297  12.800   1.302
80372SOL    HW142955  10.207  12.802   1.333
80372SOL    HW242956  10.349  12.782   1.380
80373SOL     OW42957   1.614  12.315   3.983
80373SOL    HW142958   1.655  12.316   4.069
80373SOL    HW242959   1.541  12.377   3.991
80374SOL     OW42960   1.916   1.726   6.592
80374SOL    HW142961   1.880   1.731   6.504
80374SOL    HW242962   1.916   1.633   6.613
80375SOL     OW42963  13.055   9.531   0.759
80375SOL    HW142964  12.991   9.511   0.828
80375SOL    HW242965  13.129   9.571   0.806
80376SOL     OW42966   8.824  14.244   3.053
80376SOL    HW142967   8.897  14.263   3.112
80376SOL    HW242968   8.860  14.181   2.990
80377SOL     OW42969   1.912   5.464   0.579
80377SOL    HW142970   1.960   5.428   0.654
80377SOL    HW242971   1.951   5.421   0.503
80378SOL     OW42972   1.936  11.726   1.052
80378SOL    HW142973   1.852  11.690   1.021
80378SOL    HW242974   1.919  11.753   1.142
80379SOL     OW42975   3.672   9.140   0.756
80379SOL    HW142976   3.755   9.186   0.766
80379SOL    HW242977   3.689   9.051   0.785
80380SOL     OW42978  12.684   7.467   8.366
80380SOL    HW142979  12.723   7.379   8.371
80380SOL    HW242980  12.628   7.464   8.288
80381SOL     OW42981  13.038  10.147  10.974
80381SOL    HW142982  13.051  10.060  10.936
80381SOL    HW242983  12.996  10.130  11.058
80382SOL     OW42984  13.709   6.662  10.505
80382SOL    HW142985  13.774   6.727  10.529
80382SOL    HW242986  13.740   6.581  10.545
80383SOL     OW42987  13.123   0.894   9.808
80383SOL    HW142988  13.058   0.908   9.876
80383SOL    HW242989  13.074   0.858   9.734
80384SOL     OW42990  11.508  14.327   6.677
80384SOL    HW142991  11.562  14.351   6.602
80384SOL    HW242992  11.542  14.242   6.705
80385SOL     OW42993  10.970   0.882  13.627
80385SOL    HW142994  11.033   0.810  13.620
80385SOL    HW242995  10.886   0.843  13.602
80386SOL     OW42996   3.056  11.225  10.603
80386SOL    HW142997   3.137  11.230  10.655
80386SOL    HW242998   3.086  11.215  10.513
80387SOL     OW42999   7.108  13.774  12.696
80387SOL    HW143000   7.019  13.740  12.699
80387SOL    HW243001   7.149  13.728  12.622
80388SOL     OW43002   1.630   8.777   6.004
80388SOL    HW143003   1.551   8.723   5.994
80388SOL    HW243004   1.611   8.834   6.078
80389SOL     OW43005   0.812   9.836   0.609
80389SOL    HW143006   0.808   9.853   0.703
80389SOL    HW243007   0.792   9.921   0.568
80390SOL     OW43008  11.686   8.098  13.809
80390SOL    HW143009  11.742   8.113  13.885
80390SOL    HW243010  11.648   8.011  13.823
80391SOL     OW43011   1.818   3.925   9.114
80391SOL    HW143012   1.882   3.862   9.147
80391SOL    HW243013   1.767   3.876   9.049
80392SOL     OW43014   7.134  14.256   7.326
80392SOL    HW143015   7.074  14.315   7.372
80392SOL    HW243016   7.102  14.254   7.236
80393SOL     OW43017  13.588  13.563  13.673
80393SOL    HW143018  13.556  13.583  13.585
80393SOL    HW243019  13.680  13.589  13.672
80394SOL     OW43020   2.649   9.884   4.952
80394SOL    HW143021   2.657   9.860   5.044
80394SOL    HW243022   2.559   9.916   4.943
80395SOL     OW43023   6.258  10.421   8.084
80395SOL    HW143024   6.310  10.452   8.010
80395SOL    HW243025   6.234  10.331   8.062
80396SOL     OW43026  13.467   9.172   8.043
80396SOL    HW143027  13.411   9.143   7.972
80396SOL    HW243028  13.549   9.198   8.001
80397SOL     OW43029   8.017   2.975   7.137
80397SOL    HW143030   7.937   2.923   7.140
80397SOL    HW243031   7.992   3.057   7.095
80398SOL     OW43032   2.577  14.219  10.532
80398SOL    HW143033   2.594  14.251  10.620
80398SOL    HW243034   2.627  14.278  10.475
80399SOL     OW43035   5.088   8.013  14.107
80399SOL    HW143036   5.001   7.972  14.109
80399SOL    HW243037   5.073   8.101  14.072
80400SOL     OW43038  12.896   0.359   5.439
80400SOL    HW143039  12.927   0.377   5.528
80400SOL    HW243040  12.845   0.279   5.447
80401SOL     OW43041   6.608   6.061   0.327
80401SOL    HW143042   6.678   6.078   0.264
80401SOL    HW243043   6.528   6.061   0.276
80402SOL     OW43044   7.932  14.722  14.409
80402SOL    HW143045   7.991  14.713  14.484
80402SOL    HW243046   7.955  14.648  14.353
80403SOL     OW43047  14.104   6.972  13.361
80403SOL    HW143048  14.081   6.897  13.416
80403SOL    HW243049  14.020   7.001  13.324
80404SOL     OW43050   8.561   4.536   0.235
80404SOL    HW143051   8.550   4.629   0.216
80404SOL    HW243052   8.560   4.531   0.330
80405SOL     OW43053   8.573   0.358   2.148
80405SOL    HW143054   8.571   0.325   2.058
80405SOL    HW243055   8.482   0.385   2.165
80406SOL     OW43056   3.997   7.562   0.302
80406SOL    HW143057   4.083   7.568   0.344
80406SOL    HW243058   4.013   7.584   0.210
80407SOL     OW43059   7.286  10.660   9.695
80407SOL    HW143060   7.334  10.588   9.654
80407SOL    HW243061   7.327  10.739   9.660
80408SOL     OW43062   7.978   7.472   5.557
80408SOL    HW143063   8.053   7.525   5.530
80408SOL    HW243064   7.911   7.490   5.492
80409SOL     OW43065  10.585   0.436   9.352
80409SOL    HW143066  10.634   0.361   9.385
80409SOL    HW243067  10.633   0.513   9.383
80410SOL     OW43068   2.723   6.057   2.081
80410SOL    HW143069   2.642   6.012   2.061
80410SOL    HW243070   2.696   6.134   2.131
80411SOL     OW43071   8.771   4.263   1.226
80411SOL    HW143072   8.835   4.301   1.285
80411SOL    HW243073   8.812   4.266   1.140
80412SOL     OW43074   1.344  12.602   9.371
80412SOL    HW143075   1.358  12.693   9.395
80412SOL    HW243076   1.249  12.594   9.360
80413SOL     OW43077   1.071  11.541   2.939
80413SOL    HW143078   1.137  11.472   2.940
80413SOL    HW243079   1.085  11.589   3.021
80414SOL     OW43080  11.453  14.366  13.741
80414SOL    HW143081  11.363  14.398  13.740
80414SOL    HW243082  11.492  14.398  13.660
80415SOL     OW43083  12.530  12.575  12.408
80415SOL    HW143084  12.438  12.559  12.384
80415SOL    HW243085  12.569  12.488  12.412
80416SOL     OW43086   0.911  13.519  13.356
80416SOL    HW143087   0.819  13.508  13.332
80416SOL    HW243088   0.952  13.557  13.279
80417SOL     OW43089   1.942  10.397  10.197
80417SOL    HW143090   1.924  10.357  10.283
80417SOL    HW243091   2.035  10.420  10.201
80418SOL     OW43092  10.788   8.264   0.467
80418SOL    HW143093  10.761   8.259   0.559
80418SOL    HW243094  10.869   8.213   0.463
80419SOL     OW43095   8.855   9.361   0.586
80419SOL    HW143096   8.759   9.364   0.588
80419SOL    HW243097   8.877   9.323   0.501
80420SOL     OW43098   8.286   0.648  14.173
80420SOL    HW143099   8.269   0.730  14.219
80420SOL    HW243100   8.373   0.660  14.134
80421SOL     OW43101  12.160  10.035   5.830
80421SOL    HW143102  12.125  10.025   5.919
80421SOL    HW243103  12.234  10.096   5.840
80422SOL     OW43104   6.136   4.018   1.785
80422SOL    HW143105   6.158   4.093   1.730
80422SOL    HW243106   6.104   4.056   1.867
80423SOL     OW43107   3.286  10.287   5.623
80423SOL    HW143108   3.332  10.353   5.675
80423SOL    HW243109   3.196  10.320   5.617
80424SOL     OW43110  10.023   9.046  12.742
80424SOL    HW143111  10.004   9.108  12.812
80424SOL    HW243112  10.037   9.100  12.664
80425SOL     OW43113   7.975  14.822   9.508
80425SOL    HW143114   7.926  14.836   9.588
80425SOL    HW243115   7.972  14.727   9.494
80426SOL     OW43116   3.888   1.658   7.170
80426SOL    HW143117   3.958   1.709   7.129
80426SOL    HW243118   3.815   1.720   7.179
80427SOL     OW43119  10.061  14.590   5.356
80427SOL    HW143120  10.129  14.529   5.382
80427SOL    HW243121  10.102  14.646   5.290
80428SOL     OW43122  13.416   0.263   3.216
80428SOL    HW143123  13.441   0.175   3.188
80428SOL    HW243124  13.494   0.316   3.199
80429SOL     OW43125  13.416   9.260   6.448
80429SOL    HW143126  13.481   9.329   6.461
80429SOL    HW243127  13.342   9.287   6.502
80430SOL     OW43128   6.065   6.793  10.766
80430SOL    HW143129   6.115   6.760  10.692
80430SOL    HW243130   5.974   6.778  10.741
80431SOL     OW43131   6.349  10.874  11.285
80431SOL    HW143132   6.385  10.810  11.224
80431SOL    HW243133   6.404  10.865  11.363
80432SOL     OW43134  11.626   2.565   2.341
80432SOL    HW143135  11.628   2.487   2.398
80432SOL    HW243136  11.551   2.615   2.372
80433SOL     OW43137   6.962  10.229  10.341
80433SOL    HW143138   6.869  10.230  10.366
80433SOL    HW243139   6.979  10.138  10.317
80434SOL     OW43140  12.044  12.200   4.113
80434SOL    HW143141  12.041  12.258   4.189
80434SOL    HW243142  12.091  12.250   4.046
80435SOL     OW43143   3.637   9.147   1.933
80435SOL    HW143144   3.685   9.188   2.005
80435SOL    HW243145   3.691   9.072   1.907
80436SOL     OW43146  12.906   2.114   9.751
80436SOL    HW143147  12.899   2.065   9.833
80436SOL    HW243148  12.913   2.205   9.778
80437SOL     OW43149   1.869  10.977   2.518
80437SOL    HW143150   1.945  10.977   2.577
80437SOL    HW243151   1.796  11.002   2.574
80438SOL     OW43152   8.943   9.100   8.461
80438SOL    HW143153   8.861   9.054   8.448
80438SOL    HW243154   8.974   9.121   8.372
80439SOL     OW43155  10.697   3.934   4.120
80439SOL    HW143156  10.667   3.867   4.059
80439SOL    HW243157  10.642   3.922   4.197
80440SOL     OW43158   7.260   2.097  12.704
80440SOL    HW143159   7.179   2.146  12.687
80440SOL    HW243160   7.267   2.094  12.800
80441SOL     OW43161  10.627   9.116  12.383
80441SOL    HW143162  10.630   9.181  12.453
80441SOL    HW243163  10.624   9.032  12.428
80442SOL     OW43164  11.942   4.571  14.319
80442SOL    HW143165  11.913   4.639  14.259
80442SOL    HW243166  11.898   4.590  14.401
80443SOL     OW43167   1.890   4.427   5.743
80443SOL    HW143168   1.914   4.485   5.816
80443SOL    HW243169   1.958   4.360   5.742
80444SOL     OW43170   6.629   9.811   4.793
80444SOL    HW143171   6.639   9.881   4.858
80444SOL    HW243172   6.688   9.835   4.722
80445SOL     OW43173   7.828   4.343   0.968
80445SOL    HW143174   7.903   4.396   0.943
80445SOL    HW243175   7.866   4.262   1.003
80446SOL     OW43176   1.294  14.415   2.737
80446SOL    HW143177   1.265  14.506   2.739
80446SOL    HW243178   1.256  14.375   2.815
80447SOL     OW43179   0.494   2.149   5.109
80447SOL    HW143180   0.492   2.102   5.025
80447SOL    HW243181   0.500   2.079   5.175
80448SOL     OW43182   1.197   8.251  11.630
80448SOL    HW143183   1.203   8.325  11.569
80448SOL    HW243184   1.266   8.191  11.601
80449SOL     OW43185  13.129   1.911   5.047
80449SOL    HW143186  13.109   1.973   5.117
80449SOL    HW243187  13.046   1.869   5.027
80450SOL     OW43188   1.280  14.518   8.081
80450SOL    HW143189   1.344  14.480   8.141
80450SOL    HW243190   1.207  14.457   8.082
80451SOL     OW43191   6.844   6.793   5.670
80451SOL    HW143192   6.811   6.883   5.664
80451SOL    HW243193   6.933   6.797   5.635
80452SOL     OW43194  11.538   0.143  10.852
80452SOL    HW143195  11.572   0.058  10.823
80452SOL    HW243196  11.476   0.121  10.922
80453SOL     OW43197   5.461   6.844   7.131
80453SOL    HW143198   5.381   6.800   7.160
80453SOL    HW243199   5.507   6.867   7.212
80454SOL     OW43200   4.673  14.240  12.236
80454SOL    HW143201   4.607  14.174  12.220
80454SOL    HW243202   4.624  14.318  12.261
80455SOL     OW43203  14.197   4.038   0.077
80455SOL    HW143204  14.247   4.026   0.158
80455SOL    HW243205  14.226   4.122   0.043
80456SOL     OW43206   5.849   3.810  13.134
80456SOL    HW143207   5.884   3.783  13.049
80456SOL    HW243208   5.888   3.748  13.196
80457SOL     OW43209   0.082   4.521  12.524
80457SOL    HW143210   0.063   4.463  12.451
80457SOL    HW243211   0.169   4.496  12.554
80458SOL     OW43212   2.566   3.706  11.488
80458SOL    HW143213   2.589   3.761  11.564
80458SOL    HW243214   2.586   3.617  11.517
80459SOL     OW43215   9.092  11.809  12.848
80459SOL    HW143216   9.031  11.881  12.864
80459SOL    HW243217   9.074  11.782  12.758
80460SOL     OW43218  13.510   2.485   5.520
80460SOL    HW143219  13.526   2.438   5.602
80460SOL    HW243220  13.576   2.555   5.519
80461SOL     OW43221   5.067   6.579   6.296
80461SOL    HW143222   5.154   6.561   6.331
80461SOL    HW243223   5.016   6.607   6.372
80462SOL     OW43224  13.411   5.153  12.891
80462SOL    HW143225  13.331   5.102  12.874
80462SOL    HW243226  13.414   5.162  12.986
80463SOL     OW43227   8.324   3.016   0.645
80463SOL    HW143228   8.363   2.972   0.570
80463SOL    HW243229   8.376   2.985   0.720
80464SOL     OW43230   0.024   2.894  12.547
80464SOL    HW143231   0.006   2.987  12.533
80464SOL    HW243232  14.814   2.857  12.575
80465SOL     OW43233   8.941  10.692   6.194
80465SOL    HW143234   9.036  10.695   6.183
80465SOL    HW243235   8.928  10.638   6.272
80466SOL     OW43236   6.529   3.050   1.680
80466SOL    HW143237   6.585   3.042   1.756
80466SOL    HW243238   6.470   3.123   1.701
80467SOL     OW43239  13.447   2.555   7.300
80467SOL    HW143240  13.461   2.614   7.373
80467SOL    HW243241  13.384   2.601   7.244
80468SOL     OW43242   6.754   5.749  12.354
80468SOL    HW143243   6.675   5.773  12.306
80468SOL    HW243244   6.818   5.730  12.286
80469SOL     OW43245   3.005   8.971   6.351
80469SOL    HW143246   2.961   9.026   6.287
80469SOL    HW243247   3.093   9.009   6.359
80470SOL     OW43248   9.230  12.169   4.571
80470SOL    HW143249   9.214  12.108   4.498
80470SOL    HW243250   9.251  12.252   4.529
80471SOL     OW43251   9.030  11.146   9.036
80471SOL    HW143252   8.974  11.223   9.050
80471SOL    HW243253   9.076  11.136   9.119
80472SOL     OW43254   6.925   2.331  13.384
80472SOL    HW143255   6.962   2.270  13.448
80472SOL    HW243256   6.907   2.410  13.434
80473SOL     OW43257   5.001   3.633   9.898
80473SOL    HW143258   5.015   3.655   9.990
80473SOL    HW243259   5.066   3.686   9.851
80474SOL     OW43260   1.568   7.883   3.620
80474SOL    HW143261   1.551   7.976   3.639
80474SOL    HW243262   1.483   7.848   3.595
80475SOL     OW43263  10.029  11.578   7.678
80475SOL    HW143264  10.120  11.599   7.698
80475SOL    HW243265  10.019  11.599   7.585
80476SOL     OW43266  12.383  12.078   0.212
80476SOL    HW143267  12.424  11.992   0.204
80476SOL    HW243268  12.355  12.100   0.123
80477SOL     OW43269  10.590  12.166   7.232
80477SOL    HW143270  10.616  12.138   7.319
80477SOL    HW243271  10.669  12.203   7.193
80478SOL     OW43272  10.960   5.666   2.974
80478SOL    HW143273  10.994   5.624   2.895
80478SOL    HW243274  11.014   5.632   3.045
80479SOL     OW43275  12.682   5.262   9.748
80479SOL    HW143276  12.739   5.266   9.825
80479SOL    HW243277  12.634   5.345   9.750
80480SOL     OW43278   0.002   4.597  13.117
80480SOL    HW143279   0.071   4.646  13.072
80480SOL    HW243280  14.874   4.513  13.073
80481SOL     OW43281   9.339  13.040   8.792
80481SOL    HW143282   9.343  13.056   8.698
80481SOL    HW243283   9.264  12.981   8.803
80482SOL     OW43284  14.162  13.553   1.701
80482SOL    HW143285  14.111  13.510   1.770
80482SOL    HW243286  14.124  13.522   1.619
80483SOL     OW43287  12.077   2.696   8.895
80483SOL    HW143288  12.109   2.716   8.983
80483SOL    HW243289  12.151   2.716   8.838
80484SOL     OW43290   1.953   3.676  11.570
80484SOL    HW143291   1.996   3.696  11.487
80484SOL    HW243292   1.861   3.663  11.547
80485SOL     OW43293   3.665  10.849   6.080
80485SOL    HW143294   3.617  10.923   6.042
80485SOL    HW243295   3.606  10.814   6.147
80486SOL     OW43296   1.749   0.683  13.527
80486SOL    HW143297   1.737   0.611  13.589
80486SOL    HW243298   1.843   0.682  13.508
80487SOL     OW43299   5.752  10.332   8.630
80487SOL    HW143300   5.690  10.365   8.565
80487SOL    HW243301   5.781  10.248   8.595
80488SOL     OW43302   9.007   3.717   8.937
80488SOL    HW143303   9.075   3.721   9.004
80488SOL    HW243304   8.983   3.625   8.933
80489SOL     OW43305  12.025   7.033   4.494
80489SOL    HW143306  11.967   7.051   4.420
80489SOL    HW243307  11.984   7.077   4.568
80490SOL     OW43308   2.963   1.192   7.907
80490SOL    HW143309   2.979   1.126   7.839
80490SOL    HW243310   2.936   1.142   7.984
80491SOL     OW43311   0.944   9.350   9.654
80491SOL    HW143312   0.874   9.387   9.601
80491SOL    HW243313   0.972   9.272   9.607
80492SOL     OW43314   2.456   5.549   3.395
80492SOL    HW143315   2.461   5.629   3.447
80492SOL    HW243316   2.503   5.484   3.447
80493SOL     OW43317  10.215   6.262   4.544
80493SOL    HW143318  10.211   6.281   4.450
80493SOL    HW243319  10.148   6.319   4.582
80494SOL     OW43320   0.955   3.089   3.280
80494SOL    HW143321   0.973   3.129   3.365
80494SOL    HW243322   0.905   3.155   3.233
80495SOL     OW43323   2.467   5.539  14.834
80495SOL    HW143324   2.403   5.590  14.784
80495SOL    HW243325   2.552   5.575  14.808
80496SOL     OW43326   6.098   4.516  14.701
80496SOL    HW143327   6.168   4.580  14.692
80496SOL    HW243328   6.018   4.568  14.702
80497SOL     OW43329   9.161  12.643  13.770
80497SOL    HW143330   9.071  12.622  13.745
80497SOL    HW243331   9.158  12.649  13.865
80498SOL     OW43332   9.738   1.294   1.073
80498SOL    HW143333   9.751   1.209   1.116
80498SOL    HW243334   9.827   1.322   1.050
80499SOL     OW43335   9.072   0.796   5.990
80499SOL    HW143336   9.143   0.855   5.964
80499SOL    HW243337   9.115   0.731   6.046
80500SOL     OW43338   8.113   2.053  14.070
80500SOL    HW143339   8.123   1.974  14.122
80500SOL    HW243340   8.045   2.032  14.006
80501SOL     OW43341   9.879   5.275  13.372
80501SOL    HW143342   9.863   5.204  13.309
80501SOL    HW243343   9.935   5.236  13.439
80502SOL     OW43344  11.701   9.121   4.745
80502SOL    HW143345  11.706   9.197   4.688
80502SOL    HW243346  11.619   9.132   4.793
80503SOL     OW43347   5.825  12.708   8.294
80503SOL    HW143348   5.885  12.634   8.298
80503SOL    HW243349   5.807  12.730   8.385
80504SOL     OW43350   6.387  12.169   8.281
80504SOL    HW143351   6.431  12.245   8.244
80504SOL    HW243352   6.446  12.095   8.264
80505SOL     OW43353   7.707   2.369   5.484
80505SOL    HW143354   7.617   2.402   5.494
80505SOL    HW243355   7.761   2.448   5.484
80506SOL     OW43356  10.224  10.728   9.527
80506SOL    HW143357  10.297  10.779   9.492
80506SOL    HW243358  10.234  10.641   9.487
80507SOL     OW43359   9.031  10.760   3.283
80507SOL    HW143360   9.004  10.669   3.270
80507SOL    HW243361   9.121  10.755   3.313
80508SOL     OW43362   6.676   6.343  10.951
80508SOL    HW143363   6.671   6.405  10.878
80508SOL    HW243364   6.679   6.399  11.029
80509SOL     OW43365  11.885   9.706  12.467
80509SOL    HW143366  11.978   9.683  12.471
80509SOL    HW243367  11.874   9.775  12.533
80510SOL     OW43368   3.242   6.895  12.354
80510SOL    HW143369   3.235   6.898  12.449
80510SOL    HW243370   3.330   6.929  12.336
80511SOL     OW43371   7.344  11.023   4.730
80511SOL    HW143372   7.359  11.107   4.685
80511SOL    HW243373   7.249  11.011   4.726
80512SOL     OW43374   7.152   1.294   6.745
80512SOL    HW143375   7.217   1.244   6.795
80512SOL    HW243376   7.204   1.356   6.694
80513SOL     OW43377  12.743   9.364  10.877
80513SOL    HW143378  12.822   9.416  10.867
80513SOL    HW243379  12.677   9.410  10.825
80514SOL     OW43380   5.836   6.962   2.006
80514SOL    HW143381   5.835   6.977   1.911
80514SOL    HW243382   5.757   6.912   2.024
80515SOL     OW43383   7.379   5.799  10.532
80515SOL    HW143384   7.389   5.708  10.506
80515SOL    HW243385   7.459   5.842  10.502
80516SOL     OW43386  10.584  13.464   9.981
80516SOL    HW143387  10.582  13.499   9.892
80516SOL    HW243388  10.532  13.384   9.977
80517SOL     OW43389   8.658   3.917   4.941
80517SOL    HW143390   8.584   3.871   4.900
80517SOL    HW243391   8.675   3.866   5.021
80518SOL     OW43392   4.922   7.491   2.657
80518SOL    HW143393   4.851   7.429   2.672
80518SOL    HW243394   4.988   7.441   2.608
80519SOL     OW43395   9.602   3.209   6.470
80519SOL    HW143396   9.663   3.277   6.441
80519SOL    HW243397   9.551   3.250   6.540
80520SOL     OW43398  14.744  10.290   7.768
80520SOL    HW143399  14.770  10.209   7.725
80520SOL    HW243400  14.704  10.342   7.699
80521SOL     OW43401   2.943  11.419  10.178
80521SOL    HW143402   2.980  11.403  10.091
80521SOL    HW243403   3.016  11.453  10.230
80522SOL     OW43404   0.012   7.336   7.610
80522SOL    HW143405   0.032   7.242   7.615
80522SOL    HW243406  14.791   7.339   7.596
80523SOL     OW43407   1.963   6.171   6.937
80523SOL    HW143408   1.947   6.159   6.843
80523SOL    HW243409   1.920   6.097   6.979
80524SOL     OW43410   3.564  13.166  11.711
80524SOL    HW143411   3.545  13.234  11.776
80524SOL    HW243412   3.659  13.168  11.702
80525SOL     OW43413   9.460  12.130   2.841
80525SOL    HW143414   9.459  12.186   2.918
80525SOL    HW243415   9.444  12.042   2.874
80526SOL     OW43416   9.994  12.637   8.906
80526SOL    HW143417   9.986  12.542   8.899
80526SOL    HW243418   9.983  12.656   9.000
80527SOL     OW43419   7.284   7.139   3.486
80527SOL    HW143420   7.357   7.134   3.549
80527SOL    HW243421   7.313   7.203   3.422
80528SOL     OW43422   2.512   2.235   7.509
80528SOL    HW143423   2.556   2.310   7.468
80528SOL    HW243424   2.503   2.171   7.439
80529SOL     OW43425   1.373  10.960  14.537
80529SOL    HW143426   1.430  10.944  14.461
80529SOL    HW243427   1.433  10.963  14.611
80530SOL     OW43428  10.577   4.241  11.991
80530SOL    HW143429  10.632   4.172  11.954
80530SOL    HW243430  10.634   4.318  11.993
80531SOL     OW43431   0.301   6.378   9.013
80531SOL    HW143432   0.233   6.348   9.073
80531SOL    HW243433   0.310   6.472   9.031
80532SOL     OW43434  11.933   9.072   0.693
80532SOL    HW143435  11.987   9.131   0.746
80532SOL    HW243436  11.895   9.011   0.756
80533SOL     OW43437   6.414   8.210   1.439
80533SOL    HW143438   6.369   8.188   1.520
80533SOL    HW243439   6.407   8.130   1.386
80534SOL     OW43440   2.979   7.680  13.074
80534SOL    HW143441   2.886   7.685  13.048
80534SOL    HW243442   3.007   7.593  13.044
80535SOL     OW43443  10.979   2.859   1.772
80535SOL    HW143444  10.890   2.890   1.757
80535SOL    HW243445  10.974   2.806   1.852
80536SOL     OW43446  10.405  12.075   8.942
80536SOL    HW143447  10.390  12.154   8.995
80536SOL    HW243448  10.326  12.067   8.889
80537SOL     OW43449   5.771  12.243   2.983
80537SOL    HW143450   5.835  12.304   3.019
80537SOL    HW243451   5.817  12.198   2.912
80538SOL     OW43452  14.269   0.826   5.907
80538SOL    HW143453  14.285   0.735   5.933
80538SOL    HW243454  14.305   0.878   5.979
80539SOL     OW43455   6.645   3.562   6.302
80539SOL    HW143456   6.606   3.600   6.223
80539SOL    HW243457   6.670   3.473   6.275
80540SOL     OW43458   8.275  10.887   3.157
80540SOL    HW143459   8.246  10.884   3.248
80540SOL    HW243460   8.282  10.795   3.131
80541SOL     OW43461   6.717   7.832   7.253
80541SOL    HW143462   6.678   7.842   7.166
80541SOL    HW243463   6.780   7.904   7.260
80542SOL     OW43464   9.496   8.031   4.663
80542SOL    HW143465   9.433   8.094   4.700
80542SOL    HW243466   9.442   7.970   4.613
80543SOL     OW43467   9.979   4.467  11.476
80543SOL    HW143468  10.062   4.420  11.477
80543SOL    HW243469   9.942   4.452  11.563
80544SOL     OW43470  12.266   1.662   6.895
80544SOL    HW143471  12.332   1.693   6.957
80544SOL    HW243472  12.248   1.572   6.923
80545SOL     OW43473   7.287  13.004  10.501
80545SOL    HW143474   7.192  13.003  10.487
80545SOL    HW243475   7.299  13.063  10.576
80546SOL     OW43476   4.448   5.192   5.826
80546SOL    HW143477   4.405   5.248   5.891
80546SOL    HW243478   4.378   5.167   5.765
80547SOL     OW43479  11.974  11.020   0.805
80547SOL    HW143480  12.013  10.935   0.824
80547SOL    HW243481  11.884  10.999   0.779
80548SOL     OW43482  11.010   1.428  10.007
80548SOL    HW143483  11.068   1.396  10.076
80548SOL    HW243484  11.053   1.402   9.926
80549SOL     OW43485   9.211   3.479   8.588
80549SOL    HW143486   9.130   3.492   8.539
80549SOL    HW243487   9.217   3.556   8.645
80550SOL     OW43488   2.921   3.407   4.086
80550SOL    HW143489   2.975   3.483   4.109
80550SOL    HW243490   2.978   3.332   4.102
80551SOL     OW43491  11.659   0.742   5.018
80551SOL    HW143492  11.681   0.805   4.951
80551SOL    HW243493  11.580   0.698   4.986
80552SOL     OW43494   9.741   0.439   6.681
80552SOL    HW143495   9.821   0.487   6.706
80552SOL    HW243496   9.709   0.403   6.763
80553SOL     OW43497   5.619   0.273  11.254
80553SOL    HW143498   5.693   0.328  11.279
80553SOL    HW243499   5.623   0.199  11.315
80554SOL     OW43500   9.154   8.556   9.509
80554SOL    HW143501   9.102   8.478   9.490
80554SOL    HW243502   9.191   8.540   9.596
80555SOL     OW43503   8.156   8.687   3.894
80555SOL    HW143504   8.236   8.698   3.844
80555SOL    HW243505   8.182   8.636   3.971
80556SOL     OW43506   4.197   0.441  10.069
80556SOL    HW143507   4.116   0.416  10.113
80556SOL    HW243508   4.206   0.534  10.088
80557SOL     OW43509   6.303  13.106   4.198
80557SOL    HW143510   6.285  13.169   4.128
80557SOL    HW243511   6.388  13.133   4.234
80558SOL     OW43512   5.781   8.886  12.023
80558SOL    HW143513   5.845   8.817  12.039
80558SOL    HW243514   5.707   8.864  12.079
80559SOL     OW43515   0.135  13.507   2.181
80559SOL    HW143516   0.134  13.556   2.098
80559SOL    HW243517   0.105  13.420   2.158
80560SOL     OW43518  10.174   9.000   8.408
80560SOL    HW143519  10.160   8.929   8.345
80560SOL    HW243520  10.113   9.069   8.381
80561SOL     OW43521  11.206   3.190  11.793
80561SOL    HW143522  11.200   3.268  11.849
80561SOL    HW243523  11.143   3.129  11.830
80562SOL     OW43524  10.769   8.776   6.097
80562SOL    HW143525  10.683   8.747   6.129
80562SOL    HW243526  10.832   8.728   6.150
80563SOL     OW43527   9.452   8.122   6.026
80563SOL    HW143528   9.455   8.155   6.115
80563SOL    HW243529   9.510   8.179   5.976
80564SOL     OW43530   4.352   9.029  12.035
80564SOL    HW143531   4.336   9.091  11.964
80564SOL    HW243532   4.441   9.049  12.064
80565SOL     OW43533  13.574  10.620   4.663
80565SOL    HW143534  13.561  10.707   4.702
80565SOL    HW243535  13.592  10.638   4.570
80566SOL     OW43536   3.235   5.695  13.457
80566SOL    HW143537   3.172   5.623  13.453
80566SOL    HW243538   3.261   5.708  13.366
80567SOL     OW43539   2.459   9.429   5.693
80567SOL    HW143540   2.372   9.388   5.697
80567SOL    HW243541   2.517   9.358   5.667
80568SOL     OW43542   3.345   8.198  14.586
80568SOL    HW143543   3.305   8.112  14.568
80568SOL    HW243544   3.394   8.185  14.667
80569SOL     OW43545   1.549   1.612   3.680
80569SOL    HW143546   1.521   1.635   3.591
80569SOL    HW243547   1.637   1.649   3.688
80570SOL     OW43548   1.762  13.302   9.108
80570SOL    HW143549   1.828  13.323   9.041
80570SOL    HW243550   1.698  13.248   9.062
80571SOL     OW43551   8.070   7.312  11.152
80571SOL    HW143552   8.156   7.351  11.143
80571SOL    HW243553   8.009   7.381  11.127
80572SOL     OW43554   6.283   3.878   2.809
80572SOL    HW143555   6.267   3.934   2.733
80572SOL    HW243556   6.197   3.865   2.848
80573SOL     OW43557   1.451  13.952  14.138
80573SOL    HW143558   1.507  13.998  14.074
80573SOL    HW243559   1.381  13.913  14.085
80574SOL     OW43560   8.729  10.497  12.203
80574SOL    HW143561   8.674  10.540  12.269
80574SOL    HW243562   8.738  10.407  12.235
80575SOL     OW43563   5.123  10.050  10.134
80575SOL    HW143564   5.176   9.999  10.196
80575SOL    HW243565   5.078  10.114  10.188
80576SOL     OW43566  13.529   7.264  13.566
80576SOL    HW143567  13.546   7.178  13.528
80576SOL    HW243568  13.458   7.300  13.514
80577SOL     OW43569  12.282   4.091   4.567
80577SOL    HW143570  12.234   4.127   4.493
80577SOL    HW243571  12.222   4.102   4.641
80578SOL     OW43572   3.921  13.048   2.395
80578SOL    HW143573   3.831  13.028   2.367
80578SOL    HW243574   3.936  13.138   2.364
80579SOL     OW43575  10.236   0.302  11.029
80579SOL    HW143576  10.235   0.368  11.099
80579SOL    HW243577  10.258   0.220  11.074
80580SOL     OW43578  10.623   4.834   3.559
80580SOL    HW143579  10.555   4.822   3.626
80580SOL    HW243580  10.593   4.781   3.485
80581SOL     OW43581   1.692   0.046   4.096
80581SOL    HW143582   1.673  14.833   4.061
80581SOL    HW243583   1.783   0.041   4.124
80582SOL     OW43584   8.301  14.252   1.355
80582SOL    HW143585   8.340  14.184   1.301
80582SOL    HW243586   8.213  14.219   1.375
80583SOL     OW43587   3.036   6.449   4.872
80583SOL    HW143588   2.967   6.515   4.882
80583SOL    HW243589   3.098   6.488   4.811
80584SOL     OW43590   5.093   9.457   0.238
80584SOL    HW143591   5.147   9.467   0.160
80584SOL    HW243592   5.070   9.364   0.239
80585SOL     OW43593   7.741  11.141   5.822
80585SOL    HW143594   7.788  11.141   5.905
80585SOL    HW243595   7.748  11.231   5.790
80586SOL     OW43596   0.887  10.247   2.518
80586SOL    HW143597   0.920  10.337   2.525
80586SOL    HW243598   0.962  10.192   2.541
80587SOL     OW43599   3.389   9.155   5.559
80587SOL    HW143600   3.459   9.208   5.522
80587SOL    HW243601   3.428   9.068   5.571
80588SOL     OW43602  14.533  12.708   6.031
80588SOL    HW143603  14.453  12.752   6.003
80588SOL    HW243604  14.532  12.715   6.127
80589SOL     OW43605  10.129   2.193  10.747
80589SOL    HW143606  10.096   2.150  10.668
80589SOL    HW243607  10.183   2.265  10.714
80590SOL     OW43608   1.190   0.843   4.553
80590SOL    HW143609   1.095   0.848   4.560
80590SOL    HW243610   1.206   0.798   4.470
80591SOL     OW43611  13.699   7.451  10.150
80591SOL    HW143612  13.695   7.459  10.055
80591SOL    HW243613  13.793   7.442  10.169
80592SOL     OW43614   7.610   7.733   1.251
80592SOL    HW143615   7.542   7.671   1.280
80592SOL    HW243616   7.693   7.686   1.266
80593SOL     OW43617   9.035  14.819   9.151
80593SOL    HW143618   9.115  14.851   9.193
80593SOL    HW243619   8.984   0.024   9.133
80594SOL     OW43620   5.178   8.142   3.159
80594SOL    HW143621   5.254   8.113   3.109
80594SOL    HW243622   5.109   8.154   3.093
80595SOL     OW43623   7.120   2.768   7.915
80595SOL    HW143624   7.071   2.849   7.925
80595SOL    HW243625   7.212   2.793   7.926
80596SOL     OW43626   9.698   0.810   0.610
80596SOL    HW143627   9.779   0.850   0.641
80596SOL    HW243628   9.666   0.869   0.542
80597SOL     OW43629   8.852  12.122  11.636
80597SOL    HW143630   8.921  12.112  11.702
80597SOL    HW243631   8.829  12.215  11.639
80598SOL     OW43632   5.722   8.245   2.226
80598SOL    HW143633   5.703   8.154   2.202
80598SOL    HW243634   5.638   8.290   2.216
80599SOL     OW43635  11.723   4.315   2.259
80599SOL    HW143636  11.774   4.234   2.269
80599SOL    HW243637  11.681   4.327   2.344
80600SOL     OW43638   9.246  13.804   2.269
80600SOL    HW143639   9.239  13.742   2.196
80600SOL    HW243640   9.200  13.882   2.238
80601SOL     OW43641   4.201  11.994   6.812
80601SOL    HW143642   4.189  11.901   6.792
80601SOL    HW243643   4.280  12.019   6.763
80602SOL     OW43644   3.950   0.398  13.944
80602SOL    HW143645   4.007   0.343  13.890
80602SOL    HW243646   3.872   0.345  13.958
80603SOL     OW43647   7.600   6.003  13.819
80603SOL    HW143648   7.543   6.012  13.743
80603SOL    HW243649   7.636   6.091  13.833
80604SOL     OW43650   9.968  13.880   8.386
80604SOL    HW143651  10.047  13.860   8.337
80604SOL    HW243652   9.977  13.831   8.468
80605SOL     OW43653   8.586   5.757   8.488
80605SOL    HW143654   8.562   5.795   8.573
80605SOL    HW243655   8.623   5.830   8.439
80606SOL     OW43656   4.076   7.858   3.151
80606SOL    HW143657   4.129   7.880   3.228
80606SOL    HW243658   4.043   7.942   3.121
80607SOL     OW43659   8.153   4.451   9.452
80607SOL    HW143660   8.109   4.529   9.488
80607SOL    HW243661   8.161   4.392   9.527
80608SOL     OW43662   4.461   0.080   6.492
80608SOL    HW143663   4.399   0.151   6.476
80608SOL    HW243664   4.447   0.020   6.418
80609SOL     OW43665   0.927   9.644  11.329
80609SOL    HW143666   1.018   9.615  11.328
80609SOL    HW243667   0.929   9.730  11.287
80610SOL     OW43668   7.270  10.448  14.680
80610SOL    HW143669   7.304  10.362  14.702
80610SOL    HW243670   7.322  10.509  14.733
80611SOL     OW43671   5.683   2.374   0.283
80611SOL    HW143672   5.672   2.368   0.378
80611SOL    HW243673   5.597   2.352   0.248
80612SOL     OW43674   1.330  12.423   5.901
80612SOL    HW143675   1.272  12.491   5.935
80612SOL    HW243676   1.378  12.467   5.830
80613SOL     OW43677  13.406   9.890   8.051
80613SOL    HW143678  13.373   9.977   8.076
80613SOL    HW243679  13.354   9.866   7.975
80614SOL     OW43680   6.370   3.558   1.095
80614SOL    HW143681   6.394   3.628   1.155
80614SOL    HW243682   6.276   3.545   1.107
80615SOL     OW43683   5.383   1.793   3.603
80615SOL    HW143684   5.379   1.868   3.663
80615SOL    HW243685   5.322   1.816   3.533
80616SOL     OW43686   5.433   1.541   7.092
80616SOL    HW143687   5.456   1.526   7.183
80616SOL    HW243688   5.395   1.629   7.091
80617SOL     OW43689  10.300   6.754   8.204
80617SOL    HW143690  10.235   6.688   8.227
80617SOL    HW243691  10.249   6.824   8.163
80618SOL     OW43692   8.380  10.805  10.763
80618SOL    HW143693   8.311  10.855  10.808
80618SOL    HW243694   8.331  10.741  10.710
80619SOL     OW43695  10.337   0.374   1.032
80619SOL    HW143696  10.411   0.344   1.084
80619SOL    HW243697  10.367   0.368   0.941
80620SOL     OW43698   4.770  11.104  13.312
80620SOL    HW143699   4.735  11.151  13.236
80620SOL    HW243700   4.855  11.145  13.328
80621SOL     OW43701   3.027   8.627   0.940
80621SOL    HW143702   3.085   8.703   0.932
80621SOL    HW243703   3.055   8.584   1.021
80622SOL     OW43704   1.311   0.609   5.379
80622SOL    HW143705   1.291   0.540   5.442
80622SOL    HW243706   1.333   0.685   5.432
80623SOL     OW43707   3.633   5.141  11.377
80623SOL    HW143708   3.594   5.080  11.439
80623SOL    HW243709   3.723   5.151  11.406
80624SOL     OW43710  10.982   1.777  11.936
80624SOL    HW143711  11.006   1.835  11.864
80624SOL    HW243712  11.056   1.783  11.998
80625SOL     OW43713   6.435  11.743   0.590
80625SOL    HW143714   6.492  11.770   0.662
80625SOL    HW243715   6.352  11.719   0.632
80626SOL     OW43716   0.232   8.735  11.129
80626SOL    HW143717   0.291   8.665  11.100
80626SOL    HW243718   0.287   8.794  11.180
80627SOL     OW43719  12.724  13.959   7.320
80627SOL    HW143720  12.800  13.996   7.277
80627SOL    HW243721  12.747  13.868   7.336
80628SOL     OW43722   9.687   9.257   8.816
80628SOL    HW143723   9.608   9.248   8.870
80628SOL    HW243724   9.666   9.212   8.735
80629SOL     OW43725   0.344   6.121  13.874
80629SOL    HW143726   0.344   6.190  13.808
80629SOL    HW243727   0.274   6.144  13.934
80630SOL     OW43728   9.612  13.290   1.717
80630SOL    HW143729   9.596  13.321   1.805
80630SOL    HW243730   9.602  13.195   1.722
80631SOL     OW43731  13.552   6.476  14.706
80631SOL    HW143732  13.469   6.494  14.750
80631SOL    HW243733  13.532   6.403  14.646
80632SOL     OW43734   1.578  10.564   1.684
80632SOL    HW143735   1.654  10.616   1.658
80632SOL    HW243736   1.508  10.628   1.697
80633SOL     OW43737  11.083   4.840  10.627
80633SOL    HW143738  11.143   4.798  10.689
80633SOL    HW243739  10.996   4.808  10.652
80634SOL     OW43740  10.253  14.149   5.849
80634SOL    HW143741  10.326  14.130   5.791
80634SOL    HW243742  10.176  14.116   5.803
80635SOL     OW43743   5.665   1.790   3.616
80635SOL    HW143744   5.678   1.784   3.521
80635SOL    HW243745   5.573   1.815   3.626
80636SOL     OW43746   6.346  11.652   9.158
80636SOL    HW143747   6.394  11.716   9.106
80636SOL    HW243748   6.270  11.700   9.192
80637SOL     OW43749   2.173   2.195  11.816
80637SOL    HW143750   2.135   2.146  11.743
80637SOL    HW243751   2.101   2.206  11.878
80638SOL     OW43752   9.532   8.269  13.211
80638SOL    HW143753   9.469   8.251  13.141
80638SOL    HW243754   9.617   8.248  13.173
80639SOL     OW43755  12.465  13.153   1.513
80639SOL    HW143756  12.419  13.074   1.544
80639SOL    HW243757  12.462  13.146   1.418
80640SOL     OW43758  10.826   4.231  13.480
80640SOL    HW143759  10.845   4.233  13.574
80640SOL    HW243760  10.909   4.253  13.438
80641SOL     OW43761   4.391   9.601  13.818
80641SOL    HW143762   4.452   9.580  13.889
80641SOL    HW243763   4.390   9.697  13.816
80642SOL     OW43764   5.457   4.104   0.174
80642SOL    HW143765   5.396   4.122   0.103
80642SOL    HW243766   5.531   4.162   0.157
80643SOL     OW43767   9.076   3.207   5.682
80643SOL    HW143768   9.108   3.143   5.618
80643SOL    HW243769   9.079   3.160   5.765
80644SOL     OW43770   8.775  12.629   4.642
80644SOL    HW143771   8.838  12.699   4.658
80644SOL    HW243772   8.813  12.552   4.686
80645SOL     OW43773  11.764  10.283   8.970
80645SOL    HW143774  11.760  10.193   8.938
80645SOL    HW243775  11.787  10.334   8.892
80646SOL     OW43776  14.596   9.639   9.746
80646SOL    HW143777  14.687   9.610   9.754
80646SOL    HW243778  14.566   9.649   9.836
80647SOL     OW43779   8.340  13.825   5.162
80647SOL    HW143780   8.339  13.731   5.145
80647SOL    HW243781   8.357  13.832   5.256
80648SOL     OW43782   7.575  11.168   1.906
80648SOL    HW143783   7.628  11.247   1.912
80648SOL    HW243784   7.632  11.104   1.864
80649SOL     OW43785   0.855  13.340   0.880
80649SOL    HW143786   0.860  13.436   0.880
80649SOL    HW243787   0.852  13.316   0.787
80650SOL     OW43788  10.849  12.154   4.619
80650SOL    HW143789  10.941  12.148   4.593
80650SOL    HW243790  10.801  12.109   4.550
80651SOL     OW43791  12.415   9.578   8.402
80651SOL    HW143792  12.419   9.544   8.491
80651SOL    HW243793  12.506   9.597   8.380
80652SOL     OW43794   1.733   1.807  14.496
80652SOL    HW143795   1.704   1.845  14.413
80652SOL    HW243796   1.797   1.741  14.471
80653SOL     OW43797   4.798  10.777   4.889
80653SOL    HW143798   4.771  10.733   4.808
80653SOL    HW243799   4.856  10.715   4.932
80654SOL     OW43800   2.540  14.841   2.950
80654SOL    HW143801   2.572   0.049   2.989
80654SOL    HW243802   2.458  14.866   2.907
80655SOL     OW43803   7.090   5.427  13.184
80655SOL    HW143804   7.108   5.368  13.111
80655SOL    HW243805   7.064   5.369  13.256
80656SOL     OW43806   6.538  12.699   2.537
80656SOL    HW143807   6.618  12.746   2.559
80656SOL    HW243808   6.520  12.722   2.446
80657SOL     OW43809   7.260   8.824   7.046
80657SOL    HW143810   7.221   8.765   7.110
80657SOL    HW243811   7.230   8.791   6.962
80658SOL     OW43812   8.911  12.822  11.838
80658SOL    HW143813   8.924  12.805  11.745
80658SOL    HW243814   8.980  12.883  11.862
80659SOL     OW43815   3.877   5.342  14.469
80659SOL    HW143816   3.958   5.387  14.492
80659SOL    HW243817   3.808   5.402  14.497
80660SOL     OW43818   2.839  10.420   9.696
80660SOL    HW143819   2.746  10.398   9.700
80660SOL    HW243820   2.853  10.482   9.767
80661SOL     OW43821  13.742   8.514   7.301
80661SOL    HW143822  13.747   8.450   7.229
80661SOL    HW243823  13.793   8.588   7.271
80662SOL     OW43824   1.056  11.014   8.162
80662SOL    HW143825   1.030  10.937   8.112
80662SOL    HW243826   1.144  11.034   8.131
80663SOL     OW43827   4.010  10.316  13.521
80663SOL    HW143828   4.039  10.225  13.533
80663SOL    HW243829   3.989  10.323  13.428
80664SOL     OW43830  11.700   7.233  14.535
80664SOL    HW143831  11.607   7.250  14.525
80664SOL    HW243832  11.742   7.316  14.512
80665SOL     OW43833   6.271   5.994   8.522
80665SOL    HW143834   6.247   5.941   8.598
80665SOL    HW243835   6.284   5.930   8.452
80666SOL     OW43836   2.827   9.743   4.805
80666SOL    HW143837   2.761   9.771   4.868
80666SOL    HW243838   2.777   9.708   4.731
80667SOL     OW43839   2.253  11.235  11.419
80667SOL    HW143840   2.344  11.266  11.423
80667SOL    HW243841   2.248  11.187  11.336
80668SOL     OW43842  14.692   7.170  13.243
80668SOL    HW143843  14.621   7.211  13.194
80668SOL    HW243844  14.747   7.128  13.176
80669SOL     OW43845   3.334   5.487  14.460
80669SOL    HW143846   3.275   5.561  14.478
80669SOL    HW243847   3.285   5.410  14.488
80670SOL     OW43848   0.065  14.143   8.314
80670SOL    HW143849   0.066  14.084   8.238
80670SOL    HW243850   0.076  14.230   8.277
80671SOL     OW43851   6.887  10.956   0.267
80671SOL    HW143852   6.819  11.023   0.254
80671SOL    HW243853   6.868  10.919   0.353
80672SOL     OW43854   5.282  12.504   8.286
80672SOL    HW143855   5.284  12.536   8.196
80672SOL    HW243856   5.373  12.479   8.304
80673SOL     OW43857   6.584   6.689   5.635
80673SOL    HW143858   6.606   6.648   5.551
80673SOL    HW243859   6.668   6.713   5.673
80674SOL     OW43860   8.018  11.197   7.273
80674SOL    HW143861   8.072  11.227   7.199
80674SOL    HW243862   7.929  11.217   7.246
80675SOL     OW43863   3.224  14.225  13.397
80675SOL    HW143864   3.210  14.310  13.355
80675SOL    HW243865   3.186  14.162  13.337
80676SOL     OW43866   8.244  12.901  13.966
80676SOL    HW143867   8.325  12.875  14.010
80676SOL    HW243868   8.271  12.973  13.908
80677SOL     OW43869   4.574   1.040   2.377
80677SOL    HW143870   4.543   1.086   2.455
80677SOL    HW243871   4.511   0.969   2.364
80678SOL     OW43872   5.907   9.773   7.479
80678SOL    HW143873   5.951   9.739   7.400
80678SOL    HW243874   5.977   9.778   7.544
80679SOL     OW43875  13.471  11.598   6.022
80679SOL    HW143876  13.491  11.654   6.097
80679SOL    HW243877  13.556  11.580   5.982
80680SOL     OW43878  12.119   7.054   1.866
80680SOL    HW143879  12.126   7.139   1.910
80680SOL    HW243880  12.087   7.076   1.778
80681SOL     OW43881  11.840  10.615   3.128
80681SOL    HW143882  11.901  10.568   3.185
80681SOL    HW243883  11.896  10.675   3.078
80682SOL     OW43884   3.163   4.927  13.711
80682SOL    HW143885   3.251   4.963  13.694
80682SOL    HW243886   3.134   4.972  13.790
80683SOL     OW43887   6.601   2.904   7.171
80683SOL    HW143888   6.548   2.830   7.198
80683SOL    HW243889   6.690   2.868   7.162
80684SOL     OW43890   2.498   7.295  12.851
80684SOL    HW143891   2.441   7.219  12.860
80684SOL    HW243892   2.441   7.371  12.864
80685SOL     OW43893   2.015   7.964   2.476
80685SOL    HW143894   2.045   7.923   2.557
80685SOL    HW243895   1.938   8.015   2.503
80686SOL     OW43896  13.596   1.565   4.710
80686SOL    HW143897  13.607   1.553   4.805
80686SOL    HW243898  13.518   1.620   4.702
80687SOL     OW43899   5.332   4.232  12.981
80687SOL    HW143900   5.345   4.234  13.076
80687SOL    HW243901   5.319   4.324  12.957
80688SOL     OW43902   9.342   9.696   0.477
80688SOL    HW143903   9.304   9.664   0.559
80688SOL    HW243904   9.294   9.778   0.459
80689SOL     OW43905   5.722   0.900   0.954
80689SOL    HW143906   5.699   0.813   0.987
80689SOL    HW243907   5.776   0.939   1.023
80690SOL     OW43908   7.088   3.369   7.176
80690SOL    HW143909   7.104   3.357   7.082
80690SOL    HW243910   7.028   3.298   7.200
80691SOL     OW43911   6.908  11.288  13.062
80691SOL    HW143912   6.951  11.364  13.101
80691SOL    HW243913   6.961  11.268  12.985
80692SOL     OW43914   8.713   6.964  13.427
80692SOL    HW143915   8.680   6.879  13.455
80692SOL    HW243916   8.754   7.002  13.505
80693SOL     OW43917  13.963   8.044   9.608
80693SOL    HW143918  13.938   8.087   9.690
80693SOL    HW243919  13.880   8.031   9.561
80694SOL     OW43920   1.321  11.630   9.553
80694SOL    HW143921   1.348  11.544   9.523
80694SOL    HW243922   1.380  11.649   9.627
80695SOL     OW43923   4.272   7.951  13.226
80695SOL    HW143924   4.294   7.968  13.134
80695SOL    HW243925   4.283   7.856  13.236
80696SOL     OW43926  14.171  14.835  12.980
80696SOL    HW143927  14.262  14.845  13.007
80696SOL    HW243928  14.167  14.750  12.937
80697SOL     OW43929   2.099  13.961  11.994
80697SOL    HW143930   2.016  13.999  11.967
80697SOL    HW243931   2.101  13.875  11.953
80698SOL     OW43932  12.010   1.767  12.643
80698SOL    HW143933  11.956   1.769  12.564
80698SOL    HW243934  12.051   1.680  12.641
80699SOL     OW43935  12.737   0.328   8.854
80699SOL    HW143936  12.710   0.376   8.776
80699SOL    HW243937  12.823   0.365   8.876
80700SOL     OW43938   9.614   5.406   8.376
80700SOL    HW143939   9.678   5.405   8.447
80700SOL    HW243940   9.538   5.362   8.412
80701SOL     OW43941   2.570  12.237  10.645
80701SOL    HW143942   2.502  12.273  10.588
80701SOL    HW243943   2.542  12.148  10.664
80702SOL     OW43944   1.735  14.862   3.601
80702SOL    HW143945   1.815  14.843   3.651
80702SOL    HW243946   1.730   0.083   3.598
80703SOL     OW43947   8.966   4.355   1.480
80703SOL    HW143948   8.937   4.420   1.545
80703SOL    HW243949   8.962   4.272   1.526
80704SOL     OW43950   9.598  11.175   8.176
80704SOL    HW143951   9.607  11.268   8.155
80704SOL    HW243952   9.564  11.174   8.265
80705SOL     OW43953   2.968  10.600   5.132
80705SOL    HW143954   2.877  10.623   5.153
80705SOL    HW243955   2.978  10.627   5.040
80706SOL     OW43956   8.095   7.329   4.401
80706SOL    HW143957   8.104   7.403   4.461
80706SOL    HW243958   8.022   7.278   4.437
80707SOL     OW43959  12.757   8.156   4.959
80707SOL    HW143960  12.676   8.204   4.942
80707SOL    HW243961  12.807   8.214   5.016
80708SOL     OW43962  13.293   1.947   0.807
80708SOL    HW143963  13.264   1.906   0.726
80708SOL    HW243964  13.379   1.983   0.786
80709SOL     OW43965  12.229  13.656   6.530
80709SOL    HW143966  12.324  13.660   6.521
80709SOL    HW243967  12.207  13.565   6.512
80710SOL     OW43968   5.443  14.672   0.280
80710SOL    HW143969   5.514  14.624   0.238
80710SOL    HW243970   5.364  14.623   0.257
80711SOL     OW43971   2.531  13.303   9.837
80711SOL    HW143972   2.531  13.256   9.920
80711SOL    HW243973   2.602  13.367   9.845
80712SOL     OW43974   1.515   5.999   8.751
80712SOL    HW143975   1.440   6.037   8.796
80712SOL    HW243976   1.528   5.914   8.793
80713SOL     OW43977   2.352   2.355   2.336
80713SOL    HW143978   2.392   2.441   2.346
80713SOL    HW243979   2.374   2.307   2.416
80714SOL     OW43980   4.706   0.857   2.858
80714SOL    HW143981   4.745   0.905   2.785
80714SOL    HW243982   4.621   0.899   2.872
80715SOL     OW43983  13.660   6.306  10.148
80715SOL    HW143984  13.618   6.374  10.199
80715SOL    HW243985  13.698   6.351  10.072
80716SOL     OW43986  14.112  10.075  12.669
80716SOL    HW143987  14.091   9.982  12.667
80716SOL    HW243988  14.179  10.086  12.601
80717SOL     OW43989   8.787   7.952  10.791
80717SOL    HW143990   8.833   7.983  10.713
80717SOL    HW243991   8.754   7.866  10.766
80718SOL     OW43992   5.455   0.947   1.637
80718SOL    HW143993   5.371   0.957   1.592
80718SOL    HW243994   5.467   0.852   1.643
80719SOL     OW43995   6.530   5.763   3.041
80719SOL    HW143996   6.542   5.735   3.131
80719SOL    HW243997   6.443   5.731   3.017
80720SOL     OW43998   8.589  13.314  12.999
80720SOL    HW143999   8.617  13.357  13.080
80720SOL    HW244000   8.635  13.363  12.930
80721SOL     OW44001   8.758   6.108  11.943
80721SOL    HW144002   8.681   6.164  11.933
80721SOL    HW244003   8.725   6.020  11.928
80722SOL     OW44004  11.608   9.632   6.431
80722SOL    HW144005  11.579   9.674   6.512
80722SOL    HW244006  11.549   9.557   6.421
80723SOL     OW44007   3.314   5.885   4.320
80723SOL    HW144008   3.231   5.912   4.279
80723SOL    HW244009   3.370   5.861   4.247
80724SOL     OW44010  10.131   4.675   7.014
80724SOL    HW144011  10.133   4.579   7.018
80724SOL    HW244012  10.039   4.696   6.997
80725SOL     OW44013  14.548  10.089   3.416
80725SOL    HW144014  14.593  10.032   3.354
80725SOL    HW244015  14.611  10.160   3.433
80726SOL     OW44016   8.699  13.077   7.127
80726SOL    HW144017   8.700  13.128   7.208
80726SOL    HW244018   8.704  12.986   7.157
80727SOL     OW44019   3.890   1.714  12.131
80727SOL    HW144020   3.845   1.741  12.211
80727SOL    HW244021   3.976   1.754  12.136
80728SOL     OW44022   7.456   7.162   7.151
80728SOL    HW144023   7.399   7.183   7.225
80728SOL    HW244024   7.396   7.126   7.085
80729SOL     OW44025   9.961   9.420   2.382
80729SOL    HW144026   9.917   9.415   2.297
80729SOL    HW244027   9.890   9.408   2.446
80730SOL     OW44028   5.640  12.424  10.651
80730SOL    HW144029   5.583  12.347  10.654
80730SOL    HW244030   5.701  12.406  10.580
80731SOL     OW44031   7.635   2.804  14.449
80731SOL    HW144032   7.542   2.827  14.455
80731SOL    HW244033   7.655   2.761  14.532
80732SOL     OW44034  10.072  14.409   5.588
80732SOL    HW144035  10.007  14.339   5.595
80732SOL    HW244036  10.138  14.374   5.527
80733SOL     OW44037   1.960  14.491  12.571
80733SOL    HW144038   2.007  14.504  12.489
80733SOL    HW244039   2.022  14.518  12.639
80734SOL     OW44040   4.373   3.013  14.313
80734SOL    HW144041   4.354   2.985  14.403
80734SOL    HW244042   4.443   3.077  14.322
80735SOL     OW44043   6.945   9.363  14.541
80735SOL    HW144044   7.017   9.398  14.593
80735SOL    HW244045   6.887   9.437  14.526
80736SOL     OW44046  13.785   2.115   4.405
80736SOL    HW144047  13.733   2.035   4.404
80736SOL    HW244048  13.869   2.089   4.444
80737SOL     OW44049  10.331  11.353   3.296
80737SOL    HW144050  10.386  11.404   3.237
80737SOL    HW244051  10.290  11.418   3.353
80738SOL     OW44052  13.321   7.774   3.979
80738SOL    HW144053  13.324   7.865   3.951
80738SOL    HW244054  13.367   7.772   4.062
80739SOL     OW44055   7.140   8.409   0.559
80739SOL    HW144056   7.053   8.380   0.586
80739SOL    HW244057   7.154   8.367   0.474
80740SOL     OW44058   4.374  12.110   2.765
80740SOL    HW144059   4.440  12.121   2.697
80740SOL    HW244060   4.290  12.110   2.719
80741SOL     OW44061   4.631  11.169   6.170
80741SOL    HW144062   4.674  11.254   6.154
80741SOL    HW244063   4.659  11.115   6.096
80742SOL     OW44064   1.194   2.753   9.548
80742SOL    HW144065   1.186   2.670   9.500
80742SOL    HW244066   1.287   2.776   9.539
80743SOL     OW44067  10.840   5.537   1.736
80743SOL    HW144068  10.898   5.521   1.661
80743SOL    HW244069  10.765   5.584   1.700
80744SOL     OW44070   1.206   2.346  10.812
80744SOL    HW144071   1.239   2.412  10.873
80744SOL    HW244072   1.250   2.367  10.729
80745SOL     OW44073   3.880  12.767   1.382
80745SOL    HW144074   3.832  12.810   1.311
80745SOL    HW244075   3.851  12.813   1.461
80746SOL     OW44076  12.002   3.925  13.062
80746SOL    HW144077  12.075   3.930  13.000
80746SOL    HW244078  11.949   4.002  13.042
80747SOL     OW44079   9.665   3.429   9.641
80747SOL    HW144080   9.655   3.422   9.736
80747SOL    HW244081   9.582   3.465   9.610
80748SOL     OW44082   6.797  14.112   1.694
80748SOL    HW144083   6.754  14.083   1.613
80748SOL    HW244084   6.772  14.204   1.703
80749SOL     OW44085   0.542   8.475  11.956
80749SOL    HW144086   0.449   8.474  11.978
80749SOL    HW244087   0.556   8.559  11.912
80750SOL     OW44088   0.271  13.277   0.867
80750SOL    HW144089   0.221  13.201   0.839
80750SOL    HW244090   0.226  13.308   0.946
80751SOL     OW44091  14.520   9.637   7.747
80751SOL    HW144092  14.499   9.680   7.830
80751SOL    HW244093  14.603   9.676   7.720
80752SOL     OW44094   4.525   7.736   9.970
80752SOL    HW144095   4.604   7.751  10.022
80752SOL    HW244096   4.453   7.747  10.032
80753SOL     OW44097  13.352   8.102   9.407
80753SOL    HW144098  13.388   8.098   9.495
80753SOL    HW244099  13.273   8.049   9.411
80754SOL     OW44100   7.292   3.446   3.591
80754SOL    HW144101   7.345   3.413   3.664
80754SOL    HW244102   7.207   3.466   3.630
80755SOL     OW44103  10.413   9.215  13.524
80755SOL    HW144104  10.446   9.183  13.440
80755SOL    HW244105  10.318   9.201  13.519
80756SOL     OW44106  13.084   3.707   1.602
80756SOL    HW144107  12.998   3.715   1.563
80756SOL    HW244108  13.085   3.619   1.641
80757SOL     OW44109   6.003  11.064   3.377
80757SOL    HW144110   6.066  11.134   3.362
80757SOL    HW244111   6.001  11.015   3.294
80758SOL     OW44112   0.392   8.005   0.600
80758SOL    HW144113   0.418   8.083   0.551
80758SOL    HW244114   0.330   8.038   0.665
80759SOL     OW44115  12.989   4.146  11.682
80759SOL    HW144116  12.947   4.099  11.754
80759SOL    HW244117  13.052   4.204  11.724
80760SOL     OW44118   0.913   3.090  12.859
80760SOL    HW144119   0.963   3.016  12.825
80760SOL    HW244120   0.904   3.072  12.953
80761SOL     OW44121  12.490   9.741   4.931
80761SOL    HW144122  12.396   9.741   4.950
80761SOL    HW244123  12.525   9.815   4.981
80762SOL     OW44124  13.313  13.536   3.472
80762SOL    HW144125  13.328  13.629   3.488
80762SOL    HW244126  13.392  13.493   3.503
80763SOL     OW44127   0.376   2.731   3.637
80763SOL    HW144128   0.326   2.652   3.654
80763SOL    HW244129   0.400   2.725   3.544
80764SOL     OW44130   9.878   6.252   5.501
80764SOL    HW144131   9.812   6.191   5.470
80764SOL    HW244132   9.961   6.218   5.467
80765SOL     OW44133  14.657   1.154  12.438
80765SOL    HW144134  14.727   1.217  12.454
80765SOL    HW244135  14.601   1.159  12.515
80766SOL     OW44136  14.660  13.251   2.578
80766SOL    HW144137  14.752  13.277   2.584
80766SOL    HW244138  14.621  13.283   2.660
80767SOL     OW44139   1.992   7.894   3.010
80767SOL    HW144140   1.936   7.939   3.074
80767SOL    HW244141   2.021   7.816   3.056
80768SOL     OW44142   5.970   9.210  12.329
80768SOL    HW144143   5.948   9.206  12.236
80768SOL    HW244144   5.905   9.155  12.372
80769SOL     OW44145   5.031   5.313  12.601
80769SOL    HW144146   5.083   5.388  12.570
80769SOL    HW244147   4.954   5.312  12.545
80770SOL     OW44148  12.729   1.881   8.343
80770SOL    HW144149  12.771   1.963   8.319
80770SOL    HW244150  12.738   1.826   8.265
80771SOL     OW44151   4.391   7.152   9.780
80771SOL    HW144152   4.431   7.239   9.771
80771SOL    HW244153   4.444   7.095   9.725
80772SOL     OW44154   7.441  12.065  10.123
80772SOL    HW144155   7.505  12.135  10.120
80772SOL    HW244156   7.492  11.985  10.110
80773SOL     OW44157   1.417  14.199  11.630
80773SOL    HW144158   1.353  14.262  11.662
80773SOL    HW244159   1.429  14.222  11.538
80774SOL     OW44160   3.195   2.656   2.020
80774SOL    HW144161   3.127   2.675   1.955
80774SOL    HW244162   3.197   2.733   2.076
80775SOL     OW44163   3.164  10.227   8.186
80775SOL    HW144164   3.131  10.155   8.132
80775SOL    HW244165   3.135  10.306   8.141
80776SOL     OW44166   8.170  10.109  13.271
80776SOL    HW144167   8.186  10.202  13.288
80776SOL    HW244168   8.129  10.107  13.185
80777SOL     OW44169   7.788  11.467  11.654
80777SOL    HW144170   7.740  11.384  11.651
80777SOL    HW244171   7.761  11.508  11.737
80778SOL     OW44172   4.427   6.892   4.877
80778SOL    HW144173   4.474   6.942   4.944
80778SOL    HW244174   4.439   6.943   4.797
80779SOL     OW44175   1.574   2.099   4.077
80779SOL    HW144176   1.666   2.079   4.057
80779SOL    HW244177   1.548   2.160   4.008
80780SOL     OW44178  14.619   9.717   2.076
80780SOL    HW144179  14.547   9.664   2.111
80780SOL    HW244180  14.676   9.733   2.151
80781SOL     OW44181   3.556   9.369   3.232
80781SOL    HW144182   3.514   9.331   3.155
80781SOL    HW244183   3.649   9.352   3.219
80782SOL     OW44184   5.976   8.250   6.216
80782SOL    HW144185   6.071   8.240   6.206
80782SOL    HW244186   5.958   8.220   6.305
80783SOL     OW44187  13.601   0.163  11.563
80783SOL    HW144188  13.641   0.245  11.534
80783SOL    HW244189  13.664   0.127  11.626
80784SOL     OW44190   9.624   2.671  10.338
80784SOL    HW144191   9.557   2.708  10.279
80784SOL    HW244192   9.633   2.580  10.310
80785SOL     OW44193   1.142   2.294  10.373
80785SOL    HW144194   1.224   2.332  10.402
80785SOL    HW244195   1.109   2.247  10.450
80786SOL     OW44196   1.334   3.043   9.371
80786SOL    HW144197   1.240   3.041   9.389
80786SOL    HW244198   1.375   3.042   9.458
80787SOL     OW44199  14.634  14.865   5.984
80787SOL    HW144200  14.714   0.040   5.965
80787SOL    HW244201  14.647  14.780   5.942
80788SOL     OW44202   6.559   0.027  12.151
80788SOL    HW144203   6.556   0.112  12.194
80788SOL    HW244204   6.551  14.838  12.223
80789SOL     OW44205   2.526   2.179   1.986
80789SOL    HW144206   2.600   2.159   1.929
80789SOL    HW244207   2.523   2.275   1.988
80790SOL     OW44208   6.883  12.060   1.601
80790SOL    HW144209   6.923  12.014   1.675
80790SOL    HW244210   6.790  12.063   1.622
80791SOL     OW44211   1.966   5.952  11.860
80791SOL    HW144212   1.981   5.991  11.774
80791SOL    HW244213   1.910   5.876  11.844
80792SOL     OW44214   8.020   0.500   9.372
80792SOL    HW144215   8.016   0.407   9.394
80792SOL    HW244216   8.109   0.526   9.394
80793SOL     OW44217   8.137   1.888   8.735
80793SOL    HW144218   8.127   1.920   8.645
80793SOL    HW244219   8.190   1.955   8.778
80794SOL     OW44220   4.306  11.092   9.934
80794SOL    HW144221   4.314  10.999   9.955
80794SOL    HW244222   4.379  11.109   9.874
80795SOL     OW44223   4.826   4.594   9.019
80795SOL    HW144224   4.790   4.532   9.083
80795SOL    HW244225   4.917   4.606   9.045
80796SOL     OW44226   4.062   6.592   8.029
80796SOL    HW144227   4.153   6.622   8.034
80796SOL    HW244228   4.010   6.672   8.029
80797SOL     OW44229  14.827  12.427  12.143
80797SOL    HW144230   0.038  12.387  12.160
80797SOL    HW244231  14.788  12.437  12.230
80798SOL     OW44232  10.966   6.779   3.589
80798SOL    HW144233  10.929   6.725   3.659
80798SOL    HW244234  10.890   6.804   3.536
80799SOL     OW44235  13.615   0.043   6.459
80799SOL    HW144236  13.588   0.111   6.521
80799SOL    HW244237  13.651   0.092   6.385
80800SOL     OW44238   6.941  13.878   1.411
80800SOL    HW144239   6.857  13.921   1.426
80800SOL    HW244240   7.006  13.944   1.433
80801SOL     OW44241   8.579  10.799   7.326
80801SOL    HW144242   8.547  10.888   7.338
80801SOL    HW244243   8.622  10.777   7.409
80802SOL     OW44244   2.114   4.378   9.821
80802SOL    HW144245   2.030   4.332   9.820
80802SOL    HW244246   2.146   4.367   9.910
80803SOL     OW44247   0.656  12.296   1.137
80803SOL    HW144248   0.722  12.359   1.163
80803SOL    HW244249   0.583  12.349   1.104
80804SOL     OW44250  14.744   4.617   8.628
80804SOL    HW144251  14.810   4.552   8.601
80804SOL    HW244252  14.766   4.695   8.577
80805SOL     OW44253   0.817  11.500   3.311
80805SOL    HW144254   0.845  11.580   3.266
80805SOL    HW244255   0.771  11.451   3.244
80806SOL     OW44256   9.114   4.874   2.334
80806SOL    HW144257   9.138   4.787   2.304
80806SOL    HW244258   9.020   4.869   2.353
80807SOL     OW44259  11.300   6.220  10.211
80807SOL    HW144260  11.337   6.188  10.294
80807SOL    HW244261  11.374   6.220  10.151
80808SOL     OW44262  14.373  13.802   0.020
80808SOL    HW144263  14.420  13.725  14.864
80808SOL    HW244264  14.416  13.876  14.852
80809SOL     OW44265   3.871   2.309   9.806
80809SOL    HW144266   3.882   2.303   9.711
80809SOL    HW244267   3.873   2.218   9.836
80810SOL     OW44268   1.257  13.875  13.932
80810SOL    HW144269   1.321  13.864  13.861
80810SOL    HW244270   1.203  13.797  13.928
80811SOL     OW44271  14.713   7.285  10.762
80811SOL    HW144272  14.758   7.201  10.757
80811SOL    HW244273  14.645   7.280  10.696
80812SOL     OW44274   8.494   3.428   1.456
80812SOL    HW144275   8.411   3.416   1.410
80812SOL    HW244276   8.477   3.399   1.546
80813SOL     OW44277   2.651   5.426  14.544
80813SOL    HW144278   2.647   5.453  14.452
80813SOL    HW244279   2.690   5.339  14.541
80814SOL     OW44280   8.591   1.736  12.283
80814SOL    HW144281   8.607   1.829  12.269
80814SOL    HW244282   8.668   1.705  12.331
80815SOL     OW44283   1.761   4.005   7.177
80815SOL    HW144284   1.674   4.040   7.158
80815SOL    HW244285   1.750   3.957   7.259
80816SOL     OW44286   3.018   1.774  12.690
80816SOL    HW144287   3.070   1.802  12.765
80816SOL    HW244288   2.954   1.713  12.726
80817SOL     OW44289   5.875  12.680  12.668
80817SOL    HW144290   5.808  12.622  12.632
80817SOL    HW244291   5.953  12.661  12.617
80818SOL     OW44292  11.168   5.349   4.328
80818SOL    HW144293  11.098   5.291   4.297
80818SOL    HW244294  11.227   5.356   4.253
80819SOL     OW44295   8.667  14.010   7.165
80819SOL    HW144296   8.611  13.983   7.092
80819SOL    HW244297   8.614  13.996   7.243
80820SOL     OW44298   7.631   2.361   6.233
80820SOL    HW144299   7.656   2.323   6.148
80820SOL    HW244300   7.708   2.410   6.261
80821SOL     OW44301  10.546   6.869   6.215
80821SOL    HW144302  10.457   6.838   6.198
80821SOL    HW244303  10.573   6.822   6.294
80822SOL     OW44304   8.738  12.751   0.840
80822SOL    HW144305   8.717  12.658   0.840
80822SOL    HW244306   8.705  12.783   0.924
80823SOL     OW44307   4.679   8.331   5.834
80823SOL    HW144308   4.650   8.410   5.880
80823SOL    HW244309   4.658   8.260   5.894
80824SOL     OW44310  13.385   0.898  13.421
80824SOL    HW144311  13.339   0.817  13.444
80824SOL    HW244312  13.352   0.963  13.482
80825SOL     OW44313  12.925   3.547   3.139
80825SOL    HW144314  12.919   3.633   3.098
80825SOL    HW244315  12.862   3.550   3.211
80826SOL     OW44316   1.362   5.914   4.465
80826SOL    HW144317   1.302   5.968   4.517
80826SOL    HW244318   1.317   5.830   4.455
80827SOL     OW44319   8.295   2.640   5.287
80827SOL    HW144320   8.375   2.685   5.313
80827SOL    HW244321   8.324   2.576   5.221
80828SOL     OW44322  10.668   9.459  13.203
80828SOL    HW144323  10.614   9.417  13.270
80828SOL    HW244324  10.641   9.551  13.205
80829SOL     OW44325   2.741   0.064   8.491
80829SOL    HW144326   2.728   0.114   8.571
80829SOL    HW244327   2.720   0.125   8.420
80830SOL     OW44328   5.972   9.238   8.305
80830SOL    HW144329   6.026   9.169   8.344
80830SOL    HW244330   5.981   9.312   8.365
80831SOL     OW44331  10.923  10.318   8.796
80831SOL    HW144332  10.943  10.410   8.812
80831SOL    HW244333  10.992  10.288   8.736
80832SOL     OW44334   8.350   1.024  12.433
80832SOL    HW144335   8.263   0.986  12.442
80832SOL    HW244336   8.361   1.078  12.511
80833SOL     OW44337  11.999  13.171   4.147
80833SOL    HW144338  11.938  13.170   4.073
80833SOL    HW244339  12.064  13.105   4.125
80834SOL     OW44340   9.556  12.003   7.130
80834SOL    HW144341   9.563  12.096   7.105
80834SOL    HW244342   9.483  12.000   7.191
80835SOL     OW44343  10.814   3.471   2.095
80835SOL    HW144344  10.900   3.507   2.074
80835SOL    HW244345  10.812   3.387   2.049
80836SOL     OW44346   8.558  12.749   9.336
80836SOL    HW144347   8.537  12.838   9.306
80836SOL    HW244348   8.591  12.761   9.425
80837SOL     OW44349   4.749  13.448   0.642
80837SOL    HW144350   4.774  13.509   0.572
80837SOL    HW244351   4.674  13.400   0.607
80838SOL     OW44352   5.160   7.851   8.427
80838SOL    HW144353   5.178   7.773   8.375
80838SOL    HW244354   5.246   7.878   8.459
80839SOL     OW44355  10.023  13.571   4.295
80839SOL    HW144356  10.007  13.609   4.209
80839SOL    HW244357  10.112  13.597   4.317
80840SOL     OW44358  12.215   5.521   3.353
80840SOL    HW144359  12.123   5.503   3.370
80840SOL    HW244360  12.258   5.507   3.437
80841SOL     OW44361  10.938   8.639  12.493
80841SOL    HW144362  10.932   8.662  12.586
80841SOL    HW244363  10.857   8.590  12.476
80842SOL     OW44364  14.246  14.594  13.410
80842SOL    HW144365  14.289  14.560  13.489
80842SOL    HW244366  14.314  14.646  13.367
80843SOL     OW44367  10.515  10.517  10.470
80843SOL    HW144368  10.484  10.509  10.560
80843SOL    HW244369  10.444  10.482  10.417
80844SOL     OW44370  10.797   8.217  12.990
80844SOL    HW144371  10.714   8.238  13.032
80844SOL    HW244372  10.806   8.122  13.001
80845SOL     OW44373  12.753   9.368   0.205
80845SOL    HW144374  12.710   9.399   0.126
80845SOL    HW244375  12.721   9.426   0.274
80846SOL     OW44376  14.501   0.878   1.960
80846SOL    HW144377  14.536   0.794   1.988
80846SOL    HW244378  14.456   0.912   2.037
80847SOL     OW44379   7.708   7.318   7.373
80847SOL    HW144380   7.802   7.312   7.387
80847SOL    HW244381   7.669   7.268   7.444
80848SOL     OW44382  13.064   1.984  12.424
80848SOL    HW144383  13.024   2.070  12.420
80848SOL    HW244384  13.085   1.971  12.517
80849SOL     OW44385   1.152   0.508   0.123
80849SOL    HW144386   1.102   0.559   0.187
80849SOL    HW244387   1.200   0.444   0.176
80850SOL     OW44388   9.406   2.304   8.020
80850SOL    HW144389   9.420   2.280   8.112
80850SOL    HW244390   9.312   2.291   8.006
80851SOL     OW44391   9.908   4.303  11.767
80851SOL    HW144392   9.969   4.347  11.826
80851SOL    HW244393   9.822   4.333  11.795
80852SOL     OW44394   2.023   5.296   5.265
80852SOL    HW144395   1.932   5.289   5.291
80852SOL    HW244396   2.071   5.246   5.332
80853SOL     OW44397   0.424  11.099   5.700
80853SOL    HW144398   0.474  11.161   5.647
80853SOL    HW244399   0.340  11.142   5.715
80854SOL     OW44400   7.220   6.505  10.600
80854SOL    HW144401   7.180   6.461  10.525
80854SOL    HW244402   7.313   6.514  10.576
80855SOL     OW44403   3.007  12.973  11.379
80855SOL    HW144404   2.995  12.956  11.473
80855SOL    HW244405   2.922  12.950  11.340
80856SOL     OW44406   5.350  14.074   9.626
80856SOL    HW144407   5.431  14.056   9.675
80856SOL    HW244408   5.366  14.038   9.539
80857SOL     OW44409  12.521   6.068   3.463
80857SOL    HW144410  12.482   5.998   3.411
80857SOL    HW244411  12.591   6.103   3.407
80858SOL     OW44412   9.322   9.845   2.759
80858SOL    HW144413   9.352   9.935   2.752
80858SOL    HW244414   9.301   9.834   2.852
80859SOL     OW44415   8.090   6.214   5.134
80859SOL    HW144416   7.999   6.184   5.138
80859SOL    HW244417   8.131   6.159   5.068
80860SOL     OW44418  13.366  10.675   9.485
80860SOL    HW144419  13.364  10.740   9.415
80860SOL    HW244420  13.453  10.635   9.478
80861SOL     OW44421   7.796   8.180   4.064
80861SOL    HW144422   7.724   8.148   4.119
80861SOL    HW244423   7.872   8.129   4.091
80862SOL     OW44424   5.057   5.618  12.726
80862SOL    HW144425   5.022   5.705  12.741
80862SOL    HW244426   4.981   5.565  12.700
80863SOL     OW44427   3.682   7.160  14.741
80863SOL    HW144428   3.600   7.135  14.784
80863SOL    HW244429   3.695   7.252  14.765
80864SOL     OW44430   6.724   6.993   2.176
80864SOL    HW144431   6.793   6.949   2.126
80864SOL    HW244432   6.768   7.026   2.254
80865SOL     OW44433   1.643  11.770  10.487
80865SOL    HW144434   1.680  11.683  10.502
80865SOL    HW244435   1.667  11.792  10.397
80866SOL     OW44436   0.900  13.534  14.653
80866SOL    HW144437   0.903  13.513  14.746
80866SOL    HW244438   0.991  13.548  14.628
80867SOL     OW44439   6.455   0.341   8.048
80867SOL    HW144440   6.378   0.321   8.101
80867SOL    HW244441   6.476   0.432   8.068
80868SOL     OW44442  14.758  12.914  10.754
80868SOL    HW144443  14.734  12.961  10.834
80868SOL    HW244444  14.815  12.976  10.706
80869SOL     OW44445  10.685  14.409   6.212
80869SOL    HW144446  10.629  14.437   6.284
80869SOL    HW244447  10.736  14.337   6.249
80870SOL     OW44448  13.469   0.427   8.754
80870SOL    HW144449  13.545   0.440   8.697
80870SOL    HW244450  13.471   0.335   8.777
80871SOL     OW44451  12.137  12.027  14.307
80871SOL    HW144452  12.042  12.013  14.312
80871SOL    HW244453  12.168  11.960  14.246
80872SOL     OW44454   5.931   6.251  14.144
80872SOL    HW144455   5.930   6.339  14.181
80872SOL    HW244456   5.989   6.201  14.200
80873SOL     OW44457   3.606   1.253   2.419
80873SOL    HW144458   3.534   1.224   2.362
80873SOL    HW244459   3.680   1.264   2.359
80874SOL     OW44460  10.547  13.127  14.383
80874SOL    HW144461  10.484  13.110  14.454
80874SOL    HW244462  10.507  13.087  14.306
80875SOL     OW44463   8.238   3.628   8.007
80875SOL    HW144464   8.166   3.681   7.973
80875SOL    HW244465   8.316   3.666   7.968
80876SOL     OW44466  12.922   3.109   4.294
80876SOL    HW144467  12.990   3.041   4.292
80876SOL    HW244468  12.971   3.191   4.286
80877SOL     OW44469   9.795   1.545  14.800
80877SOL    HW144470   9.847   1.625  14.801
80877SOL    HW244471   9.846   1.481  14.850
80878SOL     OW44472   3.787  14.867  11.928
80878SOL    HW144473   3.783   0.075  11.976
80878SOL    HW244474   3.811   0.018  11.839
80879SOL     OW44475   2.390  12.098   3.528
80879SOL    HW144476   2.483  12.109   3.550
80879SOL    HW244477   2.390  12.055   3.443
80880SOL     OW44478   2.321   3.075  13.146
80880SOL    HW144479   2.352   3.052  13.234
80880SOL    HW244480   2.397   3.116  13.104
80881SOL     OW44481   3.564  14.445   4.583
80881SOL    HW144482   3.494  14.391   4.618
80881SOL    HW244483   3.643  14.415   4.628
80882SOL     OW44484  14.220  12.491   2.559
80882SOL    HW144485  14.158  12.454   2.497
80882SOL    HW244486  14.264  12.561   2.510
80883SOL     OW44487  12.071  13.731  10.610
80883SOL    HW144488  12.026  13.648  10.592
80883SOL    HW244489  12.021  13.796  10.560
80884SOL     OW44490   0.148   5.267   2.433
80884SOL    HW144491   0.058   5.271   2.463
80884SOL    HW244492   0.198   5.311   2.502
80885SOL     OW44493   6.080   0.238   1.224
80885SOL    HW144494   6.113   0.326   1.239
80885SOL    HW244495   6.150   0.180   1.252
80886SOL     OW44496   7.038  12.104   0.361
80886SOL    HW144497   6.992  12.024   0.389
80886SOL    HW244498   7.073  12.083   0.275
80887SOL     OW44499   8.419   9.532  10.688
80887SOL    HW144500   8.449   9.446  10.716
80887SOL    HW244501   8.473   9.553  10.612
80888SOL     OW44502   3.665   0.744   1.088
80888SOL    HW144503   3.684   0.653   1.111
80888SOL    HW244504   3.603   0.774   1.154
80889SOL     OW44505   1.596   8.852  10.110
80889SOL    HW144506   1.638   8.766  10.106
80889SOL    HW244507   1.502   8.832  10.114
80890SOL     OW44508  13.289   3.563   8.314
80890SOL    HW144509  13.221   3.610   8.266
80890SOL    HW244510  13.244   3.486   8.350
80891SOL     OW44511   8.783   2.119   6.165
80891SOL    HW144512   8.735   2.038   6.186
80891SOL    HW244513   8.864   2.088   6.123
80892SOL     OW44514   2.559   4.826   3.606
80892SOL    HW144515   2.470   4.825   3.641
80892SOL    HW244516   2.594   4.739   3.627
80893SOL     OW44517  10.317   7.073   0.014
80893SOL    HW144518  10.390   7.128  14.861
80893SOL    HW244519  10.240   7.129   0.006
80894SOL     OW44520   7.644  14.018   9.189
80894SOL    HW144521   7.566  14.039   9.139
80894SOL    HW244522   7.673  14.101   9.225
80895SOL     OW44523  10.151   7.435  12.783
80895SOL    HW144524  10.202   7.516  12.774
80895SOL    HW244525  10.061   7.465  12.799
80896SOL     OW44526   5.466   4.765   0.562
80896SOL    HW144527   5.385   4.814   0.576
80896SOL    HW244528   5.449   4.713   0.483
80897SOL     OW44529   7.857   2.803  14.333
80897SOL    HW144530   7.874   2.738  14.265
80897SOL    HW244531   7.764   2.792  14.353
80898SOL     OW44532   8.764   0.748  13.182
80898SOL    HW144533   8.769   0.691  13.259
80898SOL    HW244534   8.826   0.818  13.199
80899SOL     OW44535  13.005  10.080   4.131
80899SOL    HW144536  13.091  10.080   4.173
80899SOL    HW244537  12.983  10.173   4.122
80900SOL     OW44538   3.232  12.947   8.276
80900SOL    HW144539   3.269  12.983   8.356
80900SOL    HW244540   3.286  12.983   8.206
80901SOL     OW44541  10.090  13.922  11.830
80901SOL    HW144542  10.130  13.986  11.772
80901SOL    HW244543  10.015  13.967  11.868
80902SOL     OW44544  12.754   7.022   6.662
80902SOL    HW144545  12.667   7.060   6.644
80902SOL    HW244546  12.790   7.004   6.576
80903SOL     OW44547  14.528   4.436   8.608
80903SOL    HW144548  14.592   4.507   8.608
80903SOL    HW244549  14.451   4.473   8.565
80904SOL     OW44550   6.130   6.653   1.023
80904SOL    HW144551   6.112   6.743   0.998
80904SOL    HW244552   6.224   6.642   1.007
80905SOL     OW44553  10.003  11.652   1.562
80905SOL    HW144554  10.087  11.610   1.543
80905SOL    HW244555   9.946  11.625   1.489
80906SOL     OW44556   1.871   6.024  11.298
80906SOL    HW144557   1.820   6.102  11.324
80906SOL    HW244558   1.952   6.030  11.348
80907SOL     OW44559  10.793   4.625   1.991
80907SOL    HW144560  10.709   4.610   2.034
80907SOL    HW244561  10.841   4.682   2.050
80908SOL     OW44562   0.007   9.844   0.283
80908SOL    HW144563  14.817   9.902   0.325
80908SOL    HW244564  14.871   9.761   0.329
80909SOL     OW44565   3.300   8.598   8.775
80909SOL    HW144566   3.205   8.599   8.761
80909SOL    HW244567   3.311   8.555   8.859
80910SOL     OW44568   1.842   0.957   8.005
80910SOL    HW144569   1.847   1.035   7.950
80910SOL    HW244570   1.924   0.956   8.054
80911SOL     OW44571  12.836  11.713   1.381
80911SOL    HW144572  12.797  11.684   1.464
80911SOL    HW244573  12.800  11.653   1.315
80912SOL     OW44574   6.133   0.738   4.002
80912SOL    HW144575   6.130   0.816   4.058
80912SOL    HW244576   6.077   0.674   4.047
80913SOL     OW44577   6.188   1.063  12.467
80913SOL    HW144578   6.209   1.146  12.426
80913SOL    HW244579   6.231   1.066  12.552
80914SOL     OW44580   6.617  13.589  14.305
80914SOL    HW144581   6.630  13.519  14.369
80914SOL    HW244582   6.534  13.628  14.329
80915SOL     OW44583   5.740   4.302  13.219
80915SOL    HW144584   5.683   4.364  13.265
80915SOL    HW244585   5.810   4.356  13.182
80916SOL     OW44586  11.540   7.375   5.651
80916SOL    HW144587  11.463   7.333   5.613
80916SOL    HW244588  11.589   7.409   5.576
80917SOL     OW44589   0.589  11.470   5.605
80917SOL    HW144590   0.644  11.546   5.620
80917SOL    HW244591   0.640  11.414   5.545
80918SOL     OW44592   6.264   5.154   1.239
80918SOL    HW144593   6.340   5.194   1.196
80918SOL    HW244594   6.191   5.213   1.220
80919SOL     OW44595   6.224   3.164  10.688
80919SOL    HW144596   6.207   3.253  10.659
80919SOL    HW244597   6.195   3.109  10.615
80920SOL     OW44598   9.527   5.776   4.394
80920SOL    HW144599   9.622   5.786   4.396
80920SOL    HW244600   9.513   5.683   4.375
80921SOL     OW44601   9.461  10.528  12.329
80921SOL    HW144602   9.537  10.551  12.383
80921SOL    HW244603   9.461  10.594  12.259
80922SOL     OW44604  13.538  11.190   3.879
80922SOL    HW144605  13.571  11.225   3.796
80922SOL    HW244606  13.514  11.267   3.930
80923SOL     OW44607  11.140  13.737  12.971
80923SOL    HW144608  11.197  13.669  12.935
80923SOL    HW244609  11.056  13.693  12.984
80924SOL     OW44610   8.347  14.760  13.106
80924SOL    HW144611   8.366  14.840  13.155
80924SOL    HW244612   8.416  14.755  13.040
80925SOL     OW44613   1.330   1.002  10.352
80925SOL    HW144614   1.273   1.042  10.287
80925SOL    HW244615   1.389   0.946  10.301
80926SOL     OW44616   0.006   1.993   1.990
80926SOL    HW144617  14.865   1.936   2.066
80926SOL    HW244618  14.810   2.058   1.996
80927SOL     OW44619   6.917   7.768   2.490
80927SOL    HW144620   6.976   7.731   2.424
80927SOL    HW244621   6.966   7.840   2.529
80928SOL     OW44622  10.293   6.395  10.419
80928SOL    HW144623  10.236   6.325  10.452
80928SOL    HW244624  10.342   6.424  10.496
80929SOL     OW44625   2.751   2.872  13.141
80929SOL    HW144626   2.680   2.925  13.106
80929SOL    HW244627   2.830   2.922  13.120
80930SOL     OW44628   3.939   7.276   2.740
80930SOL    HW144629   3.977   7.192   2.765
80930SOL    HW244630   3.845   7.262   2.743
80931SOL     OW44631   5.340   9.840   8.523
80931SOL    HW144632   5.339   9.855   8.618
80931SOL    HW244633   5.293   9.757   8.511
80932SOL     OW44634  12.022   2.073   6.855
80932SOL    HW144635  12.081   2.026   6.913
80932SOL    HW244636  11.948   2.013   6.844
80933SOL     OW44637   2.387  13.237  12.172
80933SOL    HW144638   2.336  13.317  12.187
80933SOL    HW244639   2.391  13.229  12.076
80934SOL     OW44640  14.594  12.670   3.169
80934SOL    HW144641  14.587  12.672   3.073
80934SOL    HW244642  14.608  12.577   3.190
80935SOL     OW44643   1.620  12.327   2.551
80935SOL    HW144644   1.559  12.398   2.531
80935SOL    HW244645   1.564  12.250   2.563
80936SOL     OW44646   2.712   5.321   7.180
80936SOL    HW144647   2.789   5.328   7.236
80936SOL    HW244648   2.703   5.408   7.141
80937SOL     OW44649  10.398   6.252   6.664
80937SOL    HW144650  10.402   6.343   6.694
80937SOL    HW244651  10.465   6.246   6.596
80938SOL     OW44652   4.559  12.146  11.809
80938SOL    HW144653   4.600  12.224  11.770
80938SOL    HW244654   4.564  12.080  11.740
80939SOL     OW44655  11.609   1.526   3.988
80939SOL    HW144656  11.537   1.547   3.929
80939SOL    HW244657  11.654   1.452   3.947
80940SOL     OW44658   9.299  11.171   0.168
80940SOL    HW144659   9.269  11.248   0.120
80940SOL    HW244660   9.371  11.136   0.115
80941SOL     OW44661   0.717   5.125  10.470
80941SOL    HW144662   0.710   5.114  10.375
80941SOL    HW244663   0.810   5.114  10.488
80942SOL     OW44664   6.130  10.571  13.279
80942SOL    HW144665   6.116  10.509  13.207
80942SOL    HW244666   6.216  10.548  13.313
80943SOL     OW44667   1.450  11.751   1.146
80943SOL    HW144668   1.433  11.845   1.151
80943SOL    HW244669   1.424  11.726   1.058
80944SOL     OW44670   0.006   9.658   1.188
80944SOL    HW144671  14.839   9.658   1.102
80944SOL    HW244672  14.852   9.576   1.228
80945SOL     OW44673  13.776   3.401  12.041
80945SOL    HW144674  13.779   3.461  12.116
80945SOL    HW244675  13.697   3.426  11.993
80946SOL     OW44676   2.307   5.374   6.835
80946SOL    HW144677   2.397   5.375   6.802
80946SOL    HW244678   2.252   5.370   6.757
80947SOL     OW44679   0.952   6.741   0.214
80947SOL    HW144680   1.034   6.789   0.223
80947SOL    HW244681   0.895   6.778   0.282
80948SOL     OW44682   7.184  12.971   6.080
80948SOL    HW144683   7.144  13.032   6.019
80948SOL    HW244684   7.249  12.923   6.028
80949SOL     OW44685   1.761   4.515  14.570
80949SOL    HW144686   1.718   4.460  14.635
80949SOL    HW244687   1.854   4.500  14.582
80950SOL     OW44688   0.259   7.249   7.076
80950SOL    HW144689   0.191   7.197   7.033
80950SOL    HW244690   0.294   7.304   7.006
80951SOL     OW44691   8.942  10.129  10.952
80951SOL    HW144692   8.897  10.048  10.931
80951SOL    HW244693   9.021  10.127  10.897
80952SOL     OW44694   1.694  11.475  12.979
80952SOL    HW144695   1.731  11.516  13.057
80952SOL    HW244696   1.612  11.521  12.963
80953SOL     OW44697   2.583   2.662  12.194
80953SOL    HW144698   2.659   2.660  12.252
80953SOL    HW244699   2.579   2.752  12.161
80954SOL     OW44700   8.363  10.517   8.335
80954SOL    HW144701   8.336  10.591   8.389
80954SOL    HW244702   8.384  10.556   8.250
80955SOL     OW44703  13.467  11.911  10.492
80955SOL    HW144704  13.444  11.827  10.533
80955SOL    HW244705  13.535  11.947  10.549
80956SOL     OW44706   0.067   4.950  11.430
80956SOL    HW144707  14.853   4.970  11.399
80956SOL    HW244708   0.056   4.871  11.483
80957SOL     OW44709  11.333   6.209   4.064
80957SOL    HW144710  11.336   6.148   4.138
80957SOL    HW244711  11.325   6.152   3.987
80958SOL     OW44712   1.000   9.547  14.785
80958SOL    HW144713   1.027   9.621  14.731
80958SOL    HW244714   1.002   9.581   0.001
80959SOL     OW44715   3.022   5.214   6.517
80959SOL    HW144716   2.960   5.156   6.473
80959SOL    HW244717   3.049   5.276   6.449
80960SOL     OW44718   3.934   7.051  12.404
80960SOL    HW144719   3.919   6.956  12.404
80960SOL    HW244720   4.026   7.060  12.426
80961SOL     OW44721   7.138   3.868   7.370
80961SOL    HW144722   7.191   3.932   7.322
80961SOL    HW244723   7.059   3.859   7.318
80962SOL     OW44724   9.346   6.086   4.563
80962SOL    HW144725   9.419   6.084   4.502
80962SOL    HW244726   9.384   6.118   4.645
80963SOL     OW44727   9.845  10.270   2.752
80963SOL    HW144728   9.761  10.267   2.705
80963SOL    HW244729   9.821  10.289   2.843
80964SOL     OW44730  14.502   7.979   6.718
80964SOL    HW144731  14.526   7.911   6.781
80964SOL    HW244732  14.413   8.003   6.742
80965SOL     OW44733  13.731  11.080   6.146
80965SOL    HW144734  13.663  11.043   6.202
80965SOL    HW244735  13.752  11.164   6.185
80966SOL     OW44736  11.496  13.871  14.596
80966SOL    HW144737  11.490  13.930  14.521
80966SOL    HW244738  11.559  13.913  14.655
80967SOL     OW44739   2.941   9.571  14.064
80967SOL    HW144740   2.908   9.645  14.114
80967SOL    HW244741   2.900   9.494  14.106
80968SOL     OW44742  14.745   1.320  14.554
80968SOL    HW144743  14.746   1.415  14.566
80968SOL    HW244744  14.711   1.307  14.465
80969SOL     OW44745   5.906  11.879   3.025
80969SOL    HW144746   5.928  11.817   3.094
80969SOL    HW244747   5.967  11.952   3.038
80970SOL     OW44748   3.796   9.230   2.126
80970SOL    HW144749   3.884   9.262   2.110
80970SOL    HW244750   3.804   9.179   2.207
80971SOL     OW44751   6.440   0.290  10.613
80971SOL    HW144752   6.484   0.326  10.535
80971SOL    HW244753   6.512   0.272  10.674
80972SOL     OW44754   9.525  14.349  11.718
80972SOL    HW144755   9.512  14.283  11.785
80972SOL    HW244756   9.541  14.430  11.766
80973SOL     OW44757  14.593   2.709   7.111
80973SOL    HW144758  14.565   2.768   7.042
80973SOL    HW244759  14.633   2.635   7.066
80974SOL     OW44760   3.766   3.253   8.973
80974SOL    HW144761   3.698   3.320   8.983
80974SOL    HW244762   3.834   3.278   9.036
80975SOL     OW44763  12.117   1.686   9.211
80975SOL    HW144764  12.089   1.604   9.251
80975SOL    HW244765  12.082   1.754   9.269
80976SOL     OW44766   3.289   7.943   7.828
80976SOL    HW144767   3.326   7.857   7.848
80976SOL    HW244768   3.206   7.945   7.876
80977SOL     OW44769   0.532   5.318  14.154
80977SOL    HW144770   0.571   5.299  14.069
80977SOL    HW244771   0.578   5.396  14.185
80978SOL     OW44772   7.229   4.353   0.712
80978SOL    HW144773   7.225   4.422   0.778
80978SOL    HW244774   7.202   4.395   0.631
80979SOL     OW44775  11.986   7.326   1.431
80979SOL    HW144776  11.992   7.262   1.502
80979SOL    HW244777  12.019   7.278   1.354
80980SOL     OW44778  14.870  14.761   4.157
80980SOL    HW144779   0.020  14.846   4.193
80980SOL    HW244780   0.004  14.700   4.231
80981SOL     OW44781  13.529  11.826   7.471
80981SOL    HW144782  13.439  11.859   7.474
80981SOL    HW244783  13.519  11.731   7.460
80982SOL     OW44784  12.950   5.184  13.773
80982SOL    HW144785  12.947   5.195  13.868
80982SOL    HW244786  12.868   5.223  13.742
80983SOL     OW44787   9.763  13.927  10.112
80983SOL    HW144788   9.826  13.885  10.171
80983SOL    HW244789   9.808  13.930  10.027
80984SOL     OW44790   3.036   9.503   2.116
80984SOL    HW144791   3.114   9.455   2.145
80984SOL    HW244792   3.008   9.551   2.194
80985SOL     OW44793   1.383  14.378  11.937
80985SOL    HW144794   1.449  14.311  11.918
80985SOL    HW244795   1.318  14.367  11.867
80986SOL     OW44796   5.767  12.425   1.150
80986SOL    HW144797   5.828  12.412   1.078
80986SOL    HW244798   5.730  12.512   1.136
80987SOL     OW44799   2.700   4.302  14.691
80987SOL    HW144800   2.694   4.210  14.717
80987SOL    HW244801   2.786   4.330  14.721
80988SOL     OW44802   4.391  13.353   9.435
80988SOL    HW144803   4.451  13.292   9.478
80988SOL    HW244804   4.370  13.313   9.351
80989SOL     OW44805   4.620   7.612   9.357
80989SOL    HW144806   4.609   7.635   9.265
80989SOL    HW244807   4.706   7.648   9.381
80990SOL     OW44808   8.178  12.322  13.642
80990SOL    HW144809   8.218  12.324  13.555
80990SOL    HW244810   8.239  12.271  13.695
80991SOL     OW44811   0.366  14.279   8.837
80991SOL    HW144812   0.353  14.206   8.776
80991SOL    HW244813   0.312  14.349   8.802
80992SOL     OW44814  12.632   6.118  12.830
80992SOL    HW144815  12.614   6.110  12.924
80992SOL    HW244816  12.552   6.086  12.788
80993SOL     OW44817  10.237  12.111   8.746
80993SOL    HW144818  10.234  12.202   8.715
80993SOL    HW244819  10.324  12.081   8.722
80994SOL     OW44820   3.947   7.544   2.775
80994SOL    HW144821   3.922   7.452   2.765
80994SOL    HW244822   3.930   7.563   2.868
80995SOL     OW44823  12.746   6.876   6.964
80995SOL    HW144824  12.784   6.799   6.924
80995SOL    HW244825  12.651   6.866   6.951
80996SOL     OW44826   6.303  12.106  13.822
80996SOL    HW144827   6.290  12.061  13.738
80996SOL    HW244828   6.360  12.180  13.801
80997SOL     OW44829  10.990   1.990  11.708
80997SOL    HW144830  10.913   2.045  11.722
80997SOL    HW244831  11.062   2.041  11.745
80998SOL     OW44832   8.537   4.518   4.622
80998SOL    HW144833   8.493   4.517   4.537
80998SOL    HW244834   8.494   4.591   4.669
80999SOL     OW44835   2.896   4.360   1.717
80999SOL    HW144836   2.946   4.441   1.710
80999SOL    HW244837   2.945   4.307   1.779
81000SOL     OW44838   6.745  14.369   8.244
81000SOL    HW144839   6.839  14.387   8.252
81000SOL    HW244840   6.735  14.332   8.156
81001SOL     OW44841   0.537   9.050   0.192
81001SOL    HW144842   0.514   8.961   0.165
81001SOL    HW244843   0.522   9.103   0.113
81002SOL     OW44844   0.041   7.210  13.925
81002SOL    HW144845   0.044   7.204  14.021
81002SOL    HW244846  14.824   7.193  13.903
81003SOL     OW44847   3.968  12.409   3.685
81003SOL    HW144848   4.048  12.427   3.733
81003SOL    HW244849   3.909  12.481   3.709
81004SOL     OW44850   5.209   0.476  14.707
81004SOL    HW144851   5.178   0.432  14.786
81004SOL    HW244852   5.304   0.466  14.710
81005SOL     OW44853   7.259  12.571   0.589
81005SOL    HW144854   7.200  12.601   0.519
81005SOL    HW244855   7.219  12.490   0.621
81006SOL     OW44856   7.360   4.471  11.312
81006SOL    HW144857   7.391   4.561  11.310
81006SOL    HW244858   7.265   4.478  11.305
81007SOL     OW44859   9.102   1.720   8.022
81007SOL    HW144860   9.177   1.766   7.985
81007SOL    HW244861   9.026   1.758   7.977
81008SOL     OW44862   0.137  10.556   8.836
81008SOL    HW144863   0.096  10.581   8.919
81008SOL    HW244864   0.180  10.472   8.856
81009SOL     OW44865  12.728  12.163   8.594
81009SOL    HW144866  12.807  12.216   8.598
81009SOL    HW244867  12.671  12.210   8.532
81010SOL     OW44868   3.584   7.184   9.261
81010SOL    HW144869   3.637   7.118   9.307
81010SOL    HW244870   3.578   7.151   9.172
81011SOL     OW44871   1.825   7.145  11.385
81011SOL    HW144872   1.846   7.238  11.394
81011SOL    HW244873   1.879   7.115  11.312
81012SOL     OW44874  14.564   6.846  14.445
81012SOL    HW144875  14.547   6.935  14.413
81012SOL    HW244876  14.632   6.812  14.387
81013SOL     OW44877   1.390   6.212   1.728
81013SOL    HW144878   1.326   6.146   1.752
81013SOL    HW244879   1.348   6.295   1.750
81014SOL     OW44880   0.479   4.266   7.924
81014SOL    HW144881   0.478   4.338   7.860
81014SOL    HW244882   0.390   4.232   7.923
81015SOL     OW44883   8.122   7.402  13.088
81015SOL    HW144884   8.197   7.365  13.043
81015SOL    HW244885   8.134   7.378  13.180
81016SOL     OW44886   8.546  14.095   9.141
81016SOL    HW144887   8.511  14.104   9.053
81016SOL    HW244888   8.471  14.114   9.199
81017SOL     OW44889   3.211   1.773  13.305
81017SOL    HW144890   3.171   1.771  13.218
81017SOL    HW244891   3.252   1.860  13.310
81018SOL     OW44892   7.657   8.467   5.010
81018SOL    HW144893   7.697   8.550   4.985
81018SOL    HW244894   7.680   8.457   5.102
81019SOL     OW44895   4.077  14.467   1.408
81019SOL    HW144896   4.055  14.426   1.325
81019SOL    HW244897   4.034  14.413   1.474
81020SOL     OW44898   9.308   9.985   0.688
81020SOL    HW144899   9.252   9.920   0.731
81020SOL    HW244900   9.397   9.949   0.696
81021SOL     OW44901  13.939   6.796   0.865
81021SOL    HW144902  14.033   6.794   0.847
81021SOL    HW244903  13.932   6.829   0.954
81022SOL     OW44904  12.623   9.413  13.956
81022SOL    HW144905  12.695   9.359  13.924
81022SOL    HW244906  12.576   9.357  14.017
81023SOL     OW44907  11.466  12.898   7.525
81023SOL    HW144908  11.431  12.875   7.439
81023SOL    HW244909  11.400  12.956   7.563
81024SOL     OW44910  12.635   8.553   6.446
81024SOL    HW144911  12.609   8.488   6.380
81024SOL    HW244912  12.553   8.592   6.475
81025SOL     OW44913   5.479   4.583   3.042
81025SOL    HW144914   5.419   4.589   2.968
81025SOL    HW244915   5.466   4.663   3.092
81026SOL     OW44916   9.655   6.464  10.831
81026SOL    HW144917   9.732   6.441  10.780
81026SOL    HW244918   9.609   6.529  10.778
81027SOL     OW44919   9.177  14.664   5.232
81027SOL    HW144920   9.237  14.682   5.160
81027SOL    HW244921   9.228  14.611   5.293
81028SOL     OW44922   7.592   9.824   6.572
81028SOL    HW144923   7.603   9.729   6.573
81028SOL    HW244924   7.677   9.858   6.602
81029SOL     OW44925   2.320   9.328   2.861
81029SOL    HW144926   2.318   9.274   2.941
81029SOL    HW244927   2.405   9.309   2.822
81030SOL     OW44928  10.652   1.503   2.182
81030SOL    HW144929  10.695   1.472   2.102
81030SOL    HW244930  10.700   1.583   2.206
81031SOL     OW44931  13.477   0.981  14.337
81031SOL    HW144932  13.430   1.011  14.415
81031SOL    HW244933  13.554   1.038  14.333
81032SOL     OW44934   8.798   2.745   5.295
81032SOL    HW144935   8.863   2.770   5.228
81032SOL    HW244936   8.805   2.813   5.362
81033SOL     OW44937   4.936   2.497   8.540
81033SOL    HW144938   4.909   2.561   8.607
81033SOL    HW244939   4.866   2.501   8.474
81034SOL     OW44940   9.467   5.059  11.538
81034SOL    HW144941   9.536   5.114  11.502
81034SOL    HW244942   9.513   4.982  11.571
81035SOL     OW44943  12.079   4.193   5.296
81035SOL    HW144944  12.052   4.183   5.387
81035SOL    HW244945  12.157   4.138   5.287
81036SOL     OW44946   7.365   3.338   9.355
81036SOL    HW144947   7.453   3.328   9.393
81036SOL    HW244948   7.360   3.430   9.329
81037SOL     OW44949  14.195   4.769   9.093
81037SOL    HW144950  14.252   4.699   9.126
81037SOL    HW244951  14.226   4.847   9.138
81038SOL     OW44952   0.686  12.183  13.779
81038SOL    HW144953   0.762  12.146  13.823
81038SOL    HW244954   0.723  12.244  13.715
81039SOL     OW44955  10.896   8.868   5.535
81039SOL    HW144956  10.952   8.804   5.580
81039SOL    HW244957  10.901   8.843   5.443
81040SOL     OW44958  12.408   3.102  11.272
81040SOL    HW144959  12.422   3.076  11.181
81040SOL    HW244960  12.454   3.036  11.324
81041SOL     OW44961  10.974   8.541   2.713
81041SOL    HW144962  11.019   8.459   2.737
81041SOL    HW244963  10.896   8.512   2.666
81042SOL     OW44964   7.001   5.965   6.325
81042SOL    HW144965   6.924   5.991   6.275
81042SOL    HW244966   6.967   5.946   6.413
81043SOL     OW44967   6.071   8.676  14.146
81043SOL    HW144968   6.056   8.582  14.146
81043SOL    HW244969   6.101   8.696  14.235
81044SOL     OW44970   5.061   9.523  11.228
81044SOL    HW144971   4.976   9.557  11.200
81044SOL    HW244972   5.041   9.435  11.261
81045SOL     OW44973   9.167  12.532   2.614
81045SOL    HW144974   9.105  12.523   2.542
81045SOL    HW244975   9.247  12.490   2.582
81046SOL     OW44976   0.942  14.385   9.783
81046SOL    HW144977   0.862  14.338   9.804
81046SOL    HW244978   0.990  14.327   9.724
81047SOL     OW44979   7.904   0.652   5.651
81047SOL    HW144980   7.828   0.674   5.705
81047SOL    HW244981   7.925   0.732   5.604
81048SOL     OW44982   2.626  14.731   4.315
81048SOL    HW144983   2.684  14.661   4.346
81048SOL    HW244984   2.552  14.685   4.276
81049SOL     OW44985   1.151   6.475  11.730
81049SOL    HW144986   1.232   6.510  11.768
81049SOL    HW244987   1.081   6.526  11.771
81050SOL     OW44988  14.464   7.606   8.797
81050SOL    HW144989  14.490   7.516   8.818
81050SOL    HW244990  14.473   7.612   8.702
81051SOL     OW44991   9.219   0.403   8.840
81051SOL    HW144992   9.185   0.463   8.774
81051SOL    HW244993   9.309   0.385   8.812
81052SOL     OW44994  13.855   7.791   2.871
81052SOL    HW144995  13.885   7.882   2.877
81052SOL    HW244996  13.890   7.749   2.950
81053SOL     OW44997  13.191   4.354   7.138
81053SOL    HW144998  13.214   4.269   7.100
81053SOL    HW244999  13.147   4.401   7.066
81054SOL     OW45000  14.013   5.735   3.723
81054SOL    HW145001  13.930   5.771   3.754
81054SOL    HW245002  14.034   5.665   3.784
81055SOL     OW45003   1.922  13.055   5.451
81055SOL    HW145004   1.929  13.146   5.422
81055SOL    HW245005   1.913  13.061   5.546
81056SOL     OW45006  13.152  11.291  13.142
81056SOL    HW145007  13.243  11.302  13.172
81056SOL    HW245008  13.140  11.361  13.078
81057SOL     OW45009  12.860   7.013   4.597
81057SOL    HW145010  12.827   7.060   4.674
81057SOL    HW245011  12.812   6.931   4.597
81058SOL     OW45012   2.321   0.125  10.688
81058SOL    HW145013   2.393   0.066  10.664
81058SOL    HW245014   2.351   0.211  10.660
81059SOL     OW45015   2.296  12.326  13.895
81059SOL    HW145016   2.325  12.356  13.981
81059SOL    HW245017   2.373  12.282  13.858
81060SOL     OW45018  13.417   3.684   2.749
81060SOL    HW145019  13.511   3.695   2.733
81060SOL    HW245020  13.406   3.591   2.767
81061SOL     OW45021   1.415  14.099   4.170
81061SOL    HW145022   1.466  14.051   4.235
81061SOL    HW245023   1.412  14.188   4.203
81062SOL     OW45024   8.099  11.539  14.650
81062SOL    HW145025   8.104  11.539  14.554
81062SOL    HW245026   8.074  11.449  14.673
81063SOL     OW45027  13.337   4.158  11.360
81063SOL    HW145028  13.378   4.148  11.274
81063SOL    HW245029  13.385   4.096  11.416
81064SOL     OW45030  14.722   4.556   2.698
81064SOL    HW145031  14.747   4.646   2.674
81064SOL    HW245032  14.715   4.510   2.615
81065SOL     OW45033   6.358  10.287   6.233
81065SOL    HW145034   6.370  10.250   6.321
81065SOL    HW245035   6.439  10.267   6.187
81066SOL     OW45036   8.254  13.930  13.182
81066SOL    HW145037   8.162  13.908  13.195
81066SOL    HW245038   8.256  13.975  13.097
81067SOL     OW45039   8.759   9.541   1.735
81067SOL    HW145040   8.761   9.471   1.800
81067SOL    HW245041   8.666   9.559   1.723
81068SOL     OW45042  14.338   3.017  10.987
81068SOL    HW145043  14.301   2.936  10.954
81068SOL    HW245044  14.424   2.993  11.020
81069SOL     OW45045   4.418   9.468  14.297
81069SOL    HW145046   4.440   9.377  14.277
81069SOL    HW245047   4.325   9.475  14.277
81070SOL     OW45048  13.263  12.244   8.668
81070SOL    HW145049  13.341  12.273   8.621
81070SOL    HW245050  13.223  12.325   8.700
81071SOL     OW45051   5.378   6.057  11.592
81071SOL    HW145052   5.286   6.073  11.614
81071SOL    HW245053   5.402   6.129  11.533
81072SOL     OW45054   7.461   5.782  12.704
81072SOL    HW145055   7.469   5.749  12.614
81072SOL    HW245056   7.422   5.710  12.753
81073SOL     OW45057   8.450   0.103  10.095
81073SOL    HW145058   8.395   0.179  10.076
81073SOL    HW245059   8.524   0.112  10.034
81074SOL     OW45060  14.366   9.386  10.966
81074SOL    HW145061  14.358   9.312  10.906
81074SOL    HW245062  14.321   9.358  11.046
81075SOL     OW45063  11.844   4.262   6.545
81075SOL    HW145064  11.782   4.272   6.617
81075SOL    HW245065  11.926   4.235   6.586
81076SOL     OW45066   3.584  13.233   4.695
81076SOL    HW145067   3.655  13.172   4.717
81076SOL    HW245068   3.591  13.245   4.601
81077SOL     OW45069   9.840   2.535   4.146
81077SOL    HW145070   9.819   2.468   4.211
81077SOL    HW245071   9.811   2.497   4.063
81078SOL     OW45072   9.068   0.756  12.764
81078SOL    HW145073   9.042   0.740  12.855
81078SOL    HW245074   9.156   0.792  12.771
81079SOL     OW45075   7.002  13.658  12.429
81079SOL    HW145076   6.911  13.685  12.442
81079SOL    HW245077   6.997  13.593  12.358
81080SOL     OW45078  13.937   2.597  12.195
81080SOL    HW145079  13.993   2.530  12.156
81080SOL    HW245080  13.965   2.678  12.154
81081SOL     OW45081   8.513   0.852  13.221
81081SOL    HW145082   8.600   0.813  13.222
81081SOL    HW245083   8.469   0.812  13.296
81082SOL     OW45084   8.531  13.165  14.537
81082SOL    HW145085   8.597  13.214  14.586
81082SOL    HW245086   8.554  13.073  14.551
81083SOL     OW45087   4.751  13.916   1.707
81083SOL    HW145088   4.790  13.831   1.727
81083SOL    HW245089   4.735  13.956   1.792
81084SOL     OW45090   7.935  14.744   7.844
81084SOL    HW145091   7.877  14.673   7.870
81084SOL    HW245092   7.926  14.809   7.915
81085SOL     OW45093   5.600   4.699   3.300
81085SOL    HW145094   5.618   4.605   3.303
81085SOL    HW245095   5.537   4.714   3.370
81086SOL     OW45096   1.509  12.727   4.868
81086SOL    HW145097   1.540  12.642   4.900
81086SOL    HW245098   1.586  12.784   4.872
81087SOL     OW45099   5.906   5.085   4.855
81087SOL    HW145100   5.831   5.141   4.837
81087SOL    HW245101   5.931   5.051   4.769
81088SOL     OW45102  13.687   6.038  14.390
81088SOL    HW145103  13.648   6.026  14.304
81088SOL    HW245104  13.775   6.071  14.372
81089SOL     OW45105  10.355  13.469   1.684
81089SOL    HW145106  10.404  13.446   1.763
81089SOL    HW245107  10.382  13.404   1.619
81090SOL     OW45108   8.918   4.217   0.689
81090SOL    HW145109   8.878   4.212   0.603
81090SOL    HW245110   8.953   4.306   0.694
81091SOL     OW45111   4.748   5.447   5.401
81091SOL    HW145112   4.744   5.400   5.318
81091SOL    HW245113   4.760   5.539   5.376
81092SOL     OW45114   6.025   1.154  10.455
81092SOL    HW145115   6.052   1.217  10.388
81092SOL    HW245116   6.082   1.173  10.530
81093SOL     OW45117   2.103   8.341   1.109
81093SOL    HW145118   2.176   8.386   1.153
81093SOL    HW245119   2.123   8.349   1.016
81094SOL     OW45120   7.172   6.454   6.123
81094SOL    HW145121   7.244   6.464   6.184
81094SOL    HW245122   7.182   6.526   6.061
81095SOL     OW45123   4.023  13.757  10.666
81095SOL    HW145124   3.961  13.778  10.596
81095SOL    HW245125   4.029  13.661  10.664
81096SOL     OW45126  11.057   0.402   3.301
81096SOL    HW145127  11.069   0.324   3.356
81096SOL    HW245128  11.133   0.402   3.243
81097SOL     OW45129   9.986   2.128  10.164
81097SOL    HW145130   9.903   2.085  10.184
81097SOL    HW245131  10.047   2.091  10.228
81098SOL     OW45132  12.014   1.543  12.993
81098SOL    HW145133  11.970   1.458  12.984
81098SOL    HW245134  11.943   1.605  13.009
81099SOL     OW45135   3.488   3.444   0.930
81099SOL    HW145136   3.548   3.493   0.985
81099SOL    HW245137   3.537   3.427   0.849
81100SOL     OW45138   7.822   7.110   4.473
81100SOL    HW145139   7.769   7.175   4.428
81100SOL    HW245140   7.787   7.026   4.444
81101SOL     OW45141  11.809   7.206   5.546
81101SOL    HW145142  11.741   7.248   5.494
81101SOL    HW245143  11.888   7.258   5.529
81102SOL     OW45144  10.955   3.720  10.465
81102SOL    HW145145  10.977   3.810  10.492
81102SOL    HW245146  11.004   3.706  10.384
81103SOL     OW45147  10.510   0.270   9.997
81103SOL    HW145148  10.482   0.265  10.089
81103SOL    HW245149  10.488   0.360   9.971
81104SOL     OW45150  10.082   4.807  13.299
81104SOL    HW145151  10.013   4.794  13.234
81104SOL    HW245152  10.160   4.770  13.259
81105SOL     OW45153   2.775   0.713  11.747
81105SOL    HW145154   2.771   0.646  11.815
81105SOL    HW245155   2.853   0.691  11.696
81106SOL     OW45156   1.370  13.873  10.887
81106SOL    HW145157   1.296  13.889  10.828
81106SOL    HW245158   1.417  13.800  10.847
81107SOL     OW45159   7.511   1.603   9.405
81107SOL    HW145160   7.514   1.515   9.442
81107SOL    HW245161   7.425   1.637   9.430
81108SOL     OW45162  11.230  11.688   0.986
81108SOL    HW145163  11.168  11.758   0.964
81108SOL    HW245164  11.220  11.677   1.081
81109SOL     OW45165   4.345   0.260   8.802
81109SOL    HW145166   4.286   0.290   8.733
81109SOL    HW245167   4.365   0.339   8.852
81110SOL     OW45168  10.357   1.886   9.592
81110SOL    HW145169  10.279   1.883   9.537
81110SOL    HW245170  10.347   1.965   9.644
81111SOL     OW45171   6.442   1.436  11.858
81111SOL    HW145172   6.511   1.391  11.810
81111SOL    HW245173   6.468   1.430  11.950
81112SOL     OW45174   1.699  11.116  13.395
81112SOL    HW145175   1.661  11.032  13.420
81112SOL    HW245176   1.624  11.168  13.364
81113SOL     OW45177   4.384   2.570  10.745
81113SOL    HW145178   4.412   2.544  10.833
81113SOL    HW245179   4.373   2.665  10.751
81114SOL     OW45180  10.929   8.207   3.110
81114SOL    HW145181  11.003   8.266   3.091
81114SOL    HW245182  10.901   8.231   3.198
81115SOL     OW45183  12.629   2.914   5.326
81115SOL    HW145184  12.631   2.872   5.240
81115SOL    HW245185  12.697   2.981   5.321
81116SOL     OW45186  10.323   5.229   8.346
81116SOL    HW145187  10.335   5.243   8.440
81116SOL    HW245188  10.404   5.187   8.318
81117SOL     OW45189  13.920   0.898  10.031
81117SOL    HW145190  13.854   0.836   9.999
81117SOL    HW245191  13.879   0.939  10.107
81118SOL     OW45192   2.951   4.222   0.804
81118SOL    HW145193   3.017   4.222   0.736
81118SOL    HW245194   2.999   4.203   0.885
81119SOL     OW45195   4.779  12.949   0.477
81119SOL    HW145196   4.726  12.870   0.464
81119SOL    HW245197   4.806  12.944   0.569
81120SOL     OW45198  14.306  10.054   6.217
81120SOL    HW145199  14.224  10.070   6.264
81120SOL    HW245200  14.335   9.969   6.249
81121SOL     OW45201  14.749  14.050  13.164
81121SOL    HW145202  14.834  14.094  13.157
81121SOL    HW245203  14.769  13.957  13.154
81122SOL     OW45204  12.667   7.827   4.808
81122SOL    HW145205  12.600   7.760   4.819
81122SOL    HW245206  12.631   7.905   4.851
81123SOL     OW45207   9.566   7.225   9.251
81123SOL    HW145208   9.476   7.253   9.264
81123SOL    HW245209   9.613   7.305   9.225
81124SOL     OW45210   0.787   1.643   4.078
81124SOL    HW145211   0.714   1.605   4.029
81124SOL    HW245212   0.799   1.729   4.039
81125SOL     OW45213   9.834   7.125  11.940
81125SOL    HW145214   9.760   7.087  11.988
81125SOL    HW245215   9.911   7.084  11.979
81126SOL     OW45216   4.415   0.398   9.303
81126SOL    HW145217   4.490   0.424   9.358
81126SOL    HW245218   4.453   0.385   9.216
81127SOL     OW45219   2.239   7.885  12.933
81127SOL    HW145220   2.181   7.956  12.904
81127SOL    HW245221   2.273   7.916  13.017
81128SOL     OW45222   3.716  11.214   0.219
81128SOL    HW145223   3.691  11.302   0.190
81128SOL    HW245224   3.633  11.168   0.231
81129SOL     OW45225   9.799   1.069  12.586
81129SOL    HW145226   9.766   1.131  12.650
81129SOL    HW245227   9.874   1.027  12.629
81130SOL     OW45228   6.389   0.086  13.938
81130SOL    HW145229   6.396   0.171  13.981
81130SOL    HW245230   6.306   0.090  13.891
81131SOL     OW45231   2.901  11.875   8.361
81131SOL    HW145232   2.871  11.902   8.448
81131SOL    HW245233   2.891  11.954   8.307
81132SOL     OW45234  10.147  14.865   1.912
81132SOL    HW145235  10.080  14.806   1.947
81132SOL    HW245236  10.146  14.849   1.817
81133SOL     OW45237   6.067   0.282   2.274
81133SOL    HW145238   6.117   0.220   2.327
81133SOL    HW245239   6.133   0.324   2.218
81134SOL     OW45240   1.890  13.996  14.564
81134SOL    HW145241   1.954  14.049  14.517
81134SOL    HW245242   1.810  14.047  14.562
81135SOL     OW45243   8.963   6.604   0.824
81135SOL    HW145244   8.981   6.644   0.739
81135SOL    HW245245   9.024   6.531   0.829
81136SOL     OW45246   1.935   6.218   1.647
81136SOL    HW145247   1.840   6.207   1.655
81136SOL    HW245248   1.959   6.164   1.572
81137SOL     OW45249   4.473  14.161   7.356
81137SOL    HW145250   4.461  14.155   7.451
81137SOL    HW245251   4.397  14.114   7.320
81138SOL     OW45252   3.463   8.514   1.153
81138SOL    HW145253   3.520   8.582   1.188
81138SOL    HW245254   3.520   8.459   1.099
81139SOL     OW45255  14.502   4.321   5.771
81139SOL    HW145256  14.409   4.337   5.753
81139SOL    HW245257  14.541   4.408   5.776
81140SOL     OW45258   8.606   5.871  10.454
81140SOL    HW145259   8.557   5.816  10.515
81140SOL    HW245260   8.550   5.947  10.440
81141SOL     OW45261   0.865  11.831   0.478
81141SOL    HW145262   0.771  11.818   0.495
81141SOL    HW245263   0.869  11.916   0.436
81142SOL     OW45264   3.815   0.615   3.658
81142SOL    HW145265   3.840   0.706   3.647
81142SOL    HW245266   3.854   0.570   3.582
81143SOL     OW45267   4.649   8.841   6.616
81143SOL    HW145268   4.648   8.865   6.709
81143SOL    HW245269   4.637   8.747   6.616
81144SOL     OW45270  14.210   2.649   5.763
81144SOL    HW145271  14.253   2.683   5.685
81144SOL    HW245272  14.233   2.556   5.764
81145SOL     OW45273   6.957   3.449   0.460
81145SOL    HW145274   7.051   3.437   0.444
81145SOL    HW245275   6.935   3.382   0.525
81146SOL     OW45276   4.460  13.379   7.311
81146SOL    HW145277   4.492  13.292   7.286
81146SOL    HW245278   4.524  13.411   7.374
81147SOL     OW45279   6.499   1.806   7.950
81147SOL    HW145280   6.509   1.759   7.867
81147SOL    HW245281   6.474   1.738   8.013
81148SOL     OW45282   4.112   6.882   3.403
81148SOL    HW145283   4.138   6.834   3.324
81148SOL    HW245284   4.179   6.858   3.468
81149SOL     OW45285  13.803   7.148   2.209
81149SOL    HW145286  13.770   7.191   2.130
81149SOL    HW245287  13.869   7.208   2.243
81150SOL     OW45288  11.680  12.151  11.415
81150SOL    HW145289  11.678  12.168  11.321
81150SOL    HW245290  11.621  12.216  11.453
81151SOL     OW45291   9.495   2.635   6.878
81151SOL    HW145292   9.426   2.617   6.815
81151SOL    HW245293   9.536   2.550   6.894
81152SOL     OW45294  13.184   9.064   1.894
81152SOL    HW145295  13.097   9.079   1.931
81152SOL    HW245296  13.175   8.983   1.844
81153SOL     OW45297   6.722   8.223  10.590
81153SOL    HW145298   6.651   8.213  10.654
81153SOL    HW245299   6.746   8.134  10.567
81154SOL     OW45300  13.353   1.421   3.200
81154SOL    HW145301  13.379   1.368   3.124
81154SOL    HW245302  13.258   1.407   3.208
81155SOL     OW45303   7.630   1.706   3.657
81155SOL    HW145304   7.614   1.630   3.600
81155SOL    HW245305   7.723   1.726   3.646
81156SOL     OW45306  11.921  14.702  12.559
81156SOL    HW145307  12.008  14.665  12.548
81156SOL    HW245308  11.868  14.631  12.594
81157SOL     OW45309   2.168  10.127   5.051
81157SOL    HW145310   2.221  10.154   5.126
81157SOL    HW245311   2.086  10.097   5.089
81158SOL     OW45312  14.255  13.824   9.967
81158SOL    HW145313  14.191  13.774  10.017
81158SOL    HW245314  14.298  13.880  10.031
81159SOL     OW45315   7.491   9.809   7.022
81159SOL    HW145316   7.583   9.781   7.020
81159SOL    HW245317   7.447   9.753   6.958
81160SOL     OW45318  11.079   5.418  12.182
81160SOL    HW145319  11.164   5.457  12.160
81160SOL    HW245320  11.015   5.486  12.159
81161SOL     OW45321   2.420  13.871  12.889
81161SOL    HW145322   2.453  13.915  12.811
81161SOL    HW245323   2.331  13.844  12.866
81162SOL     OW45324   9.608   0.757  12.247
81162SOL    HW145325   9.577   0.845  12.225
81162SOL    HW245326   9.662   0.731  12.172
81163SOL     OW45327  12.288   3.635   2.273
81163SOL    HW145328  12.339   3.715   2.285
81163SOL    HW245329  12.280   3.598   2.360
81164SOL     OW45330   9.997  13.756   6.919
81164SOL    HW145331   9.996  13.763   7.014
81164SOL    HW245332   9.941  13.680   6.901
81165SOL     OW45333  12.743   0.333   4.662
81165SOL    HW145334  12.838   0.332   4.654
81165SOL    HW245335  12.714   0.261   4.605
81166SOL     OW45336   6.660  13.145   6.297
81166SOL    HW145337   6.703  13.068   6.259
81166SOL    HW245338   6.636  13.117   6.385
81167SOL     OW45339   5.320  11.575  10.534
81167SOL    HW145340   5.266  11.650  10.512
81167SOL    HW245341   5.397  11.583  10.479
81168SOL     OW45342   6.268  10.449  11.370
81168SOL    HW145343   6.234  10.359  11.369
81168SOL    HW245344   6.192  10.502  11.395
81169SOL     OW45345  11.640   4.868   4.170
81169SOL    HW145346  11.641   4.845   4.077
81169SOL    HW245347  11.682   4.793   4.213
81170SOL     OW45348  12.119   5.751  14.587
81170SOL    HW145349  12.174   5.807  14.642
81170SOL    HW245350  12.048   5.808  14.558
81171SOL     OW45351   6.937  14.793   0.383
81171SOL    HW145352   6.974  14.737   0.451
81171SOL    HW245353   7.012  14.840   0.347
81172SOL     OW45354   0.105   9.693   6.221
81172SOL    HW145355   0.067   9.745   6.292
81172SOL    HW245356   0.069   9.605   6.234
81173SOL     OW45357  13.985   8.644  11.895
81173SOL    HW145358  13.969   8.649  11.989
81173SOL    HW245359  14.028   8.727  11.874
81174SOL     OW45360  13.015   5.848  12.309
81174SOL    HW145361  13.042   5.902  12.383
81174SOL    HW245362  13.081   5.864  12.242
81175SOL     OW45363   8.479   9.648   4.031
81175SOL    HW145364   8.541   9.704   3.986
81175SOL    HW245365   8.534   9.581   4.073
81176SOL     OW45366  12.420  13.533  12.324
81176SOL    HW145367  12.409  13.454  12.271
81176SOL    HW245368  12.491  13.581  12.282
81177SOL     OW45369  12.939  10.951   5.178
81177SOL    HW145370  12.923  10.858   5.163
81177SOL    HW245371  13.029  10.954   5.211
81178SOL     OW45372   5.219   7.020   5.337
81178SOL    HW145373   5.282   6.948   5.334
81178SOL    HW245374   5.249   7.076   5.409
81179SOL     OW45375  12.938   9.234   4.151
81179SOL    HW145376  12.986   9.158   4.118
81179SOL    HW245377  12.994   9.270   4.219
81180SOL     OW45378   7.786   5.220  11.714
81180SOL    HW145379   7.765   5.145  11.659
81180SOL    HW245380   7.701   5.249  11.748
81181SOL     OW45381   0.413   2.160   9.548
81181SOL    HW145382   0.366   2.244   9.553
81181SOL    HW245383   0.455   2.151   9.634
81182SOL     OW45384   3.288  13.809  12.966
81182SOL    HW145385   3.379  13.783  12.980
81182SOL    HW245386   3.258  13.755  12.893
81183SOL     OW45387  14.621   9.624  12.579
81183SOL    HW145388  14.689   9.653  12.640
81183SOL    HW245389  14.623   9.689  12.509
81184SOL     OW45390   9.885   1.354   2.674
81184SOL    HW145391   9.906   1.444   2.647
81184SOL    HW245392   9.922   1.299   2.605
81185SOL     OW45393  14.514   7.430   8.217
81185SOL    HW145394  14.518   7.432   8.312
81185SOL    HW245395  14.422   7.442   8.196
81186SOL     OW45396   1.351  11.137   0.817
81186SOL    HW145397   1.434  11.095   0.840
81186SOL    HW245398   1.307  11.072   0.761
81187SOL     OW45399  10.321   2.056   2.842
81187SOL    HW145400  10.265   2.111   2.786
81187SOL    HW245401  10.368   2.118   2.897
81188SOL     OW45402  10.509   8.639   5.931
81188SOL    HW145403  10.518   8.554   5.888
81188SOL    HW245404  10.419   8.665   5.914
81189SOL     OW45405   1.235  14.473   4.949
81189SOL    HW145406   1.324  14.494   4.975
81189SOL    HW245407   1.208  14.546   4.894
81190SOL     OW45408   5.704   1.689   6.469
81190SOL    HW145409   5.694   1.608   6.418
81190SOL    HW245410   5.793   1.684   6.503
81191SOL     OW45411   6.265   7.755   4.593
81191SOL    HW145412   6.336   7.780   4.534
81191SOL    HW245413   6.298   7.679   4.641
81192SOL     OW45414   8.613  14.044   8.787
81192SOL    HW145415   8.598  14.123   8.839
81192SOL    HW245416   8.555  13.978   8.825
81193SOL     OW45417   4.053  12.127   7.637
81193SOL    HW145418   4.092  12.107   7.722
81193SOL    HW245419   3.959  12.135   7.655
81194SOL     OW45420  11.429   9.965  11.707
81194SOL    HW145421  11.501   9.903  11.693
81194SOL    HW245422  11.350   9.911  11.706
81195SOL     OW45423   6.219   7.355   4.849
81195SOL    HW145424   6.134   7.312   4.855
81195SOL    HW245425   6.257   7.322   4.767
81196SOL     OW45426  11.614   6.601  14.096
81196SOL    HW145427  11.600   6.540  14.023
81196SOL    HW245428  11.614   6.687  14.055
81197SOL     OW45429  11.632   0.055   5.761
81197SOL    HW145430  11.612   0.127   5.700
81197SOL    HW245431  11.580   0.075   5.839
81198SOL     OW45432  11.560  11.144   8.942
81198SOL    HW145433  11.553  11.230   8.982
81198SOL    HW245434  11.624  11.155   8.873
81199SOL     OW45435   1.598   7.090   6.446
81199SOL    HW145436   1.638   7.042   6.518
81199SOL    HW245437   1.504   7.084   6.463
81200SOL     OW45438   0.396   3.382  14.202
81200SOL    HW145439   0.318   3.403  14.254
81200SOL    HW245440   0.416   3.463  14.154
81201SOL     OW45441   5.349  11.163   4.016
81201SOL    HW145442   5.276  11.190   4.073
81201SOL    HW245443   5.312  11.095   3.961
81202SOL     OW45444  13.289   3.764   2.096
81202SOL    HW145445  13.249   3.825   2.034
81202SOL    HW245446  13.292   3.681   2.050
81203SOL     OW45447   9.471   1.406   1.095
81203SOL    HW145448   9.563   1.390   1.075
81203SOL    HW245449   9.464   1.389   1.189
81204SOL     OW45450  14.538   0.442   7.214
81204SOL    HW145451  14.545   0.530   7.249
81204SOL    HW245452  14.513   0.388   7.289
81205SOL     OW45453  11.226   8.494   1.385
81205SOL    HW145454  11.265   8.450   1.309
81205SOL    HW245455  11.292   8.485   1.454
81206SOL     OW45456   1.859   3.609   7.412
81206SOL    HW145457   1.823   3.582   7.497
81206SOL    HW245458   1.825   3.544   7.350
81207SOL     OW45459   1.610   3.670   2.365
81207SOL    HW145460   1.618   3.627   2.450
81207SOL    HW245461   1.526   3.637   2.330
81208SOL     OW45462   1.974   4.791  14.530
81208SOL    HW145463   1.907   4.784  14.598
81208SOL    HW245464   2.001   4.883  14.531
81209SOL     OW45465   6.044   7.906   1.036
81209SOL    HW145466   6.138   7.922   1.037
81209SOL    HW245467   6.034   7.822   0.992
81210SOL     OW45468   7.759   5.263  11.173
81210SOL    HW145469   7.740   5.172  11.195
81210SOL    HW245470   7.683   5.291  11.122
81211SOL     OW45471   2.816   6.151  11.198
81211SOL    HW145472   2.759   6.173  11.124
81211SOL    HW245473   2.905   6.163  11.165
81212SOL     OW45474   1.335   2.193   0.871
81212SOL    HW145475   1.298   2.105   0.877
81212SOL    HW245476   1.332   2.227   0.960
81213SOL     OW45477   2.686  12.210   9.632
81213SOL    HW145478   2.720  12.174   9.551
81213SOL    HW245479   2.665  12.301   9.611
81214SOL     OW45480   7.632  11.379   4.919
81214SOL    HW145481   7.572  11.335   4.858
81214SOL    HW245482   7.624  11.472   4.898
81215SOL     OW45483   8.070  11.662   6.677
81215SOL    HW145484   8.141  11.727   6.675
81215SOL    HW245485   8.000  11.704   6.727
81216SOL     OW45486   7.011   2.237   0.121
81216SOL    HW145487   6.970   2.175   0.181
81216SOL    HW245488   6.986   2.206   0.034
81217SOL     OW45489  14.870  14.502   1.955
81217SOL    HW145490   0.055  14.450   2.011
81217SOL    HW245491  14.820  14.555   2.017
81218SOL     OW45492   1.521   4.039   3.570
81218SOL    HW145493   1.442   3.993   3.540
81218SOL    HW245494   1.526   4.117   3.514
81219SOL     OW45495   1.833  14.222   8.243
81219SOL    HW145496   1.884  14.141   8.244
81219SOL    HW245497   1.899  14.291   8.233
81220SOL     OW45498   4.570   7.068   6.239
81220SOL    HW145499   4.648   7.023   6.271
81220SOL    HW245500   4.590   7.088   6.148
81221SOL     OW45501  13.132   6.022   2.425
81221SOL    HW145502  13.076   5.946   2.411
81221SOL    HW245503  13.161   6.047   2.337
81222SOL     OW45504  14.585   2.055   6.139
81222SOL    HW145505  14.629   1.977   6.107
81222SOL    HW245506  14.506   2.062   6.086
81223SOL     OW45507   9.847   1.973   1.388
81223SOL    HW145508   9.795   1.961   1.468
81223SOL    HW245509   9.935   1.995   1.420
81224SOL     OW45510   0.935   0.820   7.289
81224SOL    HW145511   0.924   0.804   7.195
81224SOL    HW245512   1.009   0.765   7.315
81225SOL     OW45513  11.545   8.798   6.379
81225SOL    HW145514  11.514   8.791   6.288
81225SOL    HW245515  11.577   8.888   6.386
81226SOL     OW45516   3.221   1.093   0.384
81226SOL    HW145517   3.259   1.006   0.371
81226SOL    HW245518   3.173   1.110   0.303
81227SOL     OW45519   2.917   3.686  11.017
81227SOL    HW145520   2.941   3.735  11.096
81227SOL    HW245521   2.859   3.745  10.969
81228SOL     OW45522  10.801  14.622   4.572
81228SOL    HW145523  10.743  14.558   4.612
81228SOL    HW245524  10.849  14.573   4.505
81229SOL     OW45525   8.316   3.399  10.293
81229SOL    HW145526   8.372   3.476  10.286
81229SOL    HW245527   8.227   3.434  10.296
81230SOL     OW45528  14.400  11.208   7.035
81230SOL    HW145529  14.341  11.142   6.999
81230SOL    HW245530  14.470  11.216   6.970
81231SOL     OW45531   1.930  11.760   5.833
81231SOL    HW145532   1.856  11.732   5.780
81231SOL    HW245533   1.980  11.819   5.776
81232SOL     OW45534  14.304   6.382   5.165
81232SOL    HW145535  14.334   6.342   5.083
81232SOL    HW245536  14.357   6.341   5.233
81233SOL     OW45537  10.049   4.891   9.526
81233SOL    HW145538  10.117   4.860   9.584
81233SOL    HW245539   9.980   4.825   9.531
81234SOL     OW45540  14.744  14.712   9.052
81234SOL    HW145541  14.667  14.734   9.000
81234SOL    HW245542  14.805  14.784   9.036
81235SOL     OW45543  11.716   0.846   3.999
81235SOL    HW145544  11.747   0.909   4.065
81235SOL    HW245545  11.787   0.842   3.935
81236SOL     OW45546  11.920   1.818   0.805
81236SOL    HW145547  11.956   1.884   0.864
81236SOL    HW245548  11.979   1.743   0.815
81237SOL     OW45549  12.986   9.704   7.759
81237SOL    HW145550  12.932   9.688   7.682
81237SOL    HW245551  12.942   9.656   7.829
81238SOL     OW45552  11.847   6.214   6.173
81238SOL    HW145553  11.909   6.175   6.234
81238SOL    HW245554  11.784   6.144   6.155
81239SOL     OW45555   8.323   7.903  10.810
81239SOL    HW145556   8.234   7.875  10.831
81239SOL    HW245557   8.336   7.874  10.719
81240SOL     OW45558  10.712  12.593   0.333
81240SOL    HW145559  10.698  12.554   0.419
81240SOL    HW245560  10.807  12.592   0.321
81241SOL     OW45561   2.591  12.777  13.672
81241SOL    HW145562   2.629  12.808  13.589
81241SOL    HW245563   2.656  12.800  13.738
81242SOL     OW45564   9.915   8.518  12.927
81242SOL    HW145565   9.859   8.548  12.999
81242SOL    HW245566   9.882   8.564  12.850
81243SOL     OW45567   6.073  10.411   0.496
81243SOL    HW145568   6.125  10.333   0.473
81243SOL    HW245569   5.984  10.389   0.470
81244SOL     OW45570  10.943   4.626   9.427
81244SOL    HW145571  10.899   4.710   9.423
81244SOL    HW245572  10.873   4.561   9.420
81245SOL     OW45573  13.426  11.717   9.522
81245SOL    HW145574  13.498  11.766   9.562
81245SOL    HW245575  13.361  11.783   9.500
81246SOL     OW45576  13.046  11.502   3.740
81246SOL    HW145577  13.116  11.551   3.697
81246SOL    HW245578  13.083  11.415   3.753
81247SOL     OW45579  11.891   2.333   1.199
81247SOL    HW145580  11.975   2.294   1.222
81247SOL    HW245581  11.827   2.263   1.217
81248SOL     OW45582   7.887  10.030  14.478
81248SOL    HW145583   7.929   9.969  14.416
81248SOL    HW245584   7.795  10.031  14.451
81249SOL     OW45585   1.766   5.692   3.412
81249SOL    HW145586   1.851   5.720   3.378
81249SOL    HW245587   1.711   5.770   3.404
81250SOL     OW45588  12.875  10.498  13.135
81250SOL    HW145589  12.897  10.427  13.076
81250SOL    HW245590  12.824  10.457  13.205
81251SOL     OW45591   2.811  12.167   7.287
81251SOL    HW145592   2.728  12.162   7.240
81251SOL    HW245593   2.786  12.172   7.380
81252SOL     OW45594   2.804   4.042  10.463
81252SOL    HW145595   2.743   4.015  10.395
81252SOL    HW245596   2.749   4.089  10.526
81253SOL     OW45597   6.257  12.799  14.648
81253SOL    HW145598   6.260  12.719  14.595
81253SOL    HW245599   6.245  12.870  14.585
81254SOL     OW45600  10.138   4.563   5.938
81254SOL    HW145601  10.113   4.638   5.992
81254SOL    HW245602  10.154   4.600   5.852
81255SOL     OW45603   3.975   4.711   9.821
81255SOL    HW145604   4.004   4.631   9.777
81255SOL    HW245605   4.031   4.780   9.785
81256SOL     OW45606   3.596   1.893   6.284
81256SOL    HW145607   3.600   1.892   6.189
81256SOL    HW245608   3.623   1.982   6.309
81257SOL     OW45609  11.210   0.247  11.547
81257SOL    HW145610  11.266   0.181  11.506
81257SOL    HW245611  11.162   0.198  11.615
81258SOL     OW45612  11.551   2.212   8.778
81258SOL    HW145613  11.641   2.234   8.756
81258SOL    HW245614  11.534   2.131   8.729
81259SOL     OW45615  13.686  13.314   7.661
81259SOL    HW145616  13.612  13.325   7.601
81259SOL    HW245617  13.702  13.220   7.664
81260SOL     OW45618  14.018  10.528  10.275
81260SOL    HW145619  14.040  10.472  10.350
81260SOL    HW245620  14.012  10.468  10.201
81261SOL     OW45621  14.482   9.998   8.777
81261SOL    HW145622  14.403  10.038   8.740
81261SOL    HW245623  14.529  10.071   8.818
81262SOL     OW45624   1.857   4.294   0.055
81262SOL    HW145625   1.895   4.373   0.093
81262SOL    HW245626   1.847   4.234   0.128
81263SOL     OW45627   1.633   1.389  10.154
81263SOL    HW145628   1.654   1.352  10.239
81263SOL    HW245629   1.584   1.321  10.108
81264SOL     OW45630   3.288  12.254  12.466
81264SOL    HW145631   3.352  12.240  12.396
81264SOL    HW245632   3.328  12.319  12.523
81265SOL     OW45633  11.947   7.412  10.762
81265SOL    HW145634  11.933   7.325  10.800
81265SOL    HW245635  11.882   7.419  10.692
81266SOL     OW45636   1.628   9.114   5.405
81266SOL    HW145637   1.705   9.061   5.387
81266SOL    HW245638   1.598   9.142   5.318
81267SOL     OW45639   4.169   6.203   8.938
81267SOL    HW145640   4.101   6.248   8.988
81267SOL    HW245641   4.224   6.274   8.905
81268SOL     OW45642   9.458   1.580   9.865
81268SOL    HW145643   9.411   1.500   9.840
81268SOL    HW245644   9.420   1.649   9.810
81269SOL     OW45645  10.984   8.507   0.732
81269SOL    HW145646  11.012   8.592   0.766
81269SOL    HW245647  10.913   8.480   0.792
81270SOL     OW45648   9.276   6.136   5.593
81270SOL    HW145649   9.250   6.218   5.633
81270SOL    HW245650   9.253   6.069   5.657
81271SOL     OW45651   8.720   3.809   5.200
81271SOL    HW145652   8.662   3.758   5.257
81271SOL    HW245653   8.721   3.896   5.239
81272SOL     OW45654   3.927   7.879  11.447
81272SOL    HW145655   3.997   7.846  11.503
81272SOL    HW245656   3.933   7.975  11.454
81273SOL     OW45657   4.819   8.490   7.842
81273SOL    HW145658   4.782   8.529   7.922
81273SOL    HW245659   4.858   8.408   7.872
81274SOL     OW45660  10.810  13.053   8.280
81274SOL    HW145661  10.809  13.108   8.359
81274SOL    HW245662  10.734  12.996   8.290
81275SOL     OW45663   4.829   9.743   8.748
81275SOL    HW145664   4.916   9.781   8.733
81275SOL    HW245665   4.812   9.757   8.841
81276SOL     OW45666   9.076  10.942  10.070
81276SOL    HW145667   9.091  11.034  10.091
81276SOL    HW245668   8.986  10.925  10.098
81277SOL     OW45669   0.224   2.648   0.476
81277SOL    HW145670   0.174   2.711   0.528
81277SOL    HW245671   0.220   2.567   0.526
81278SOL     OW45672  12.544   2.595  13.578
81278SOL    HW145673  12.593   2.661  13.628
81278SOL    HW245674  12.612   2.546  13.530
81279SOL     OW45675   4.155  12.051   4.951
81279SOL    HW145676   4.224  12.087   4.895
81279SOL    HW245677   4.185  11.962   4.970
81280SOL     OW45678   5.957   8.857  13.176
81280SOL    HW145679   6.010   8.896  13.246
81280SOL    HW245680   6.012   8.864  13.098
81281SOL     OW45681  14.501   1.195  12.081
81281SOL    HW145682  14.539   1.123  12.131
81281SOL    HW245683  14.493   1.161  11.992
81282SOL     OW45684   7.089  12.554  11.010
81282SOL    HW145685   7.109  12.607  10.933
81282SOL    HW245686   7.083  12.465  10.978
81283SOL     OW45687  10.640   5.055   4.053
81283SOL    HW145688  10.552   5.047   4.017
81283SOL    HW245689  10.627   5.089   4.141
81284SOL     OW45690   9.239   0.738   2.182
81284SOL    HW145691   9.149   0.767   2.168
81284SOL    HW245692   9.243   0.716   2.276
81285SOL     OW45693   3.106   4.583   1.707
81285SOL    HW145694   3.114   4.649   1.776
81285SOL    HW245695   3.172   4.517   1.728
81286SOL     OW45696  13.443   7.517   9.533
81286SOL    HW145697  13.475   7.433   9.565
81286SOL    HW245698  13.360   7.496   9.489
81287SOL     OW45699   7.689   6.901   4.847
81287SOL    HW145700   7.693   6.991   4.815
81287SOL    HW245701   7.709   6.908   4.940
81288SOL     OW45702   7.710  10.201   5.145
81288SOL    HW145703   7.689  10.172   5.056
81288SOL    HW245704   7.710  10.120   5.197
81289SOL     OW45705  13.896   5.246   4.416
81289SOL    HW145706  13.929   5.175   4.360
81289SOL    HW245707  13.908   5.325   4.364
81290SOL     OW45708  10.697   8.674  12.965
81290SOL    HW145709  10.681   8.767  12.981
81290SOL    HW245710  10.616   8.643  12.925
81291SOL     OW45711   9.449  11.791   6.277
81291SOL    HW145712   9.440  11.702   6.243
81291SOL    HW245713   9.365  11.833   6.258
81292SOL     OW45714  10.952   8.615   9.734
81292SOL    HW145715  11.023   8.586   9.791
81292SOL    HW245716  10.899   8.537   9.721
81293SOL     OW45717   5.176   7.581   1.109
81293SOL    HW145718   5.126   7.659   1.085
81293SOL    HW245719   5.125   7.541   1.180
81294SOL     OW45720   8.765   1.403  14.713
81294SOL    HW145721   8.736   1.421  14.803
81294SOL    HW245722   8.848   1.449  14.705
81295SOL     OW45723   5.718  11.391   2.863
81295SOL    HW145724   5.663  11.367   2.936
81295SOL    HW245725   5.661  11.440   2.804
81296SOL     OW45726  14.390  11.265   8.125
81296SOL    HW145727  14.364  11.355   8.108
81296SOL    HW245728  14.486  11.267   8.127
81297SOL     OW45729   3.675  12.927   5.581
81297SOL    HW145730   3.602  12.871   5.607
81297SOL    HW245731   3.665  13.005   5.636
81298SOL     OW45732   8.737   8.163   8.874
81298SOL    HW145733   8.693   8.248   8.862
81298SOL    HW245734   8.666   8.099   8.866
81299SOL     OW45735   2.946   5.078   1.551
81299SOL    HW145736   2.925   5.164   1.590
81299SOL    HW245737   3.030   5.092   1.507
81300SOL     OW45738   2.315  13.799   0.360
81300SOL    HW145739   2.368  13.753   0.295
81300SOL    HW245740   2.299  13.734   0.428
81301SOL     OW45741   4.962   1.013   8.911
81301SOL    HW145742   4.940   1.061   8.831
81301SOL    HW245743   4.973   1.081   8.978
81302SOL     OW45744   4.974  14.236  14.294
81302SOL    HW145745   4.961  14.197  14.380
81302SOL    HW245746   4.887  14.266  14.269
81303SOL     OW45747  11.176   3.379  10.302
81303SOL    HW145748  11.179   3.428  10.384
81303SOL    HW245749  11.084   3.360  10.287
81304SOL     OW45750   3.876   2.227  13.794
81304SOL    HW145751   3.877   2.157  13.859
81304SOL    HW245752   3.968   2.244  13.776
81305SOL     OW45753   0.078   8.675   6.929
81305SOL    HW145754   0.042   8.763   6.938
81305SOL    HW245755   0.062   8.634   7.014
81306SOL     OW45756   2.746   1.779   8.300
81306SOL    HW145757   2.653   1.798   8.310
81306SOL    HW245758   2.755   1.749   8.210
81307SOL     OW45759   9.062   8.156  12.223
81307SOL    HW145760   9.096   8.216  12.157
81307SOL    HW245761   9.059   8.071  12.179
81308SOL     OW45762   8.946   0.789  14.229
81308SOL    HW145763   8.915   0.765  14.316
81308SOL    HW245764   8.876   0.759  14.170
81309SOL     OW45765   4.960  12.146  11.441
81309SOL    HW145766   5.012  12.219  11.410
81309SOL    HW245767   4.891  12.136  11.376
81310SOL     OW45768   5.051   0.939   3.504
81310SOL    HW145769   5.054   1.027   3.466
81310SOL    HW245770   4.963   0.907   3.483
81311SOL     OW45771   7.609  13.956   7.194
81311SOL    HW145772   7.520  13.975   7.222
81311SOL    HW245773   7.664  14.002   7.257
81312SOL     OW45774   0.601   4.475  11.305
81312SOL    HW145775   0.633   4.387  11.323
81312SOL    HW245776   0.560   4.468  11.218
81313SOL     OW45777  14.371  12.904   1.276
81313SOL    HW145778  14.464  12.918   1.255
81313SOL    HW245779  14.356  12.812   1.255
81314SOL     OW45780  14.547   6.122  10.357
81314SOL    HW145781  14.602   6.189  10.397
81314SOL    HW245782  14.608   6.066  10.309
81315SOL     OW45783  10.321   8.492   1.495
81315SOL    HW145784  10.306   8.559   1.428
81315SOL    HW245785  10.238   8.486   1.542
81316SOL     OW45786   2.409   2.626   7.276
81316SOL    HW145787   2.440   2.621   7.366
81316SOL    HW245788   2.439   2.544   7.236
81317SOL     OW45789   4.291   9.773   7.073
81317SOL    HW145790   4.381   9.741   7.069
81317SOL    HW245791   4.263   9.777   6.982
81318SOL     OW45792   6.870   8.900  13.483
81318SOL    HW145793   6.905   8.812  13.498
81318SOL    HW245794   6.775   8.888  13.481
81319SOL     OW45795   8.998   4.126  14.516
81319SOL    HW145796   8.920   4.083  14.550
81319SOL    HW245797   9.066   4.108  14.582
81320SOL     OW45798   4.296  13.169   2.658
81320SOL    HW145799   4.342  13.208   2.584
81320SOL    HW245800   4.323  13.077   2.657
81321SOL     OW45801   6.363   0.958  13.825
81321SOL    HW145802   6.419   0.950  13.747
81321SOL    HW245803   6.327   1.046  13.820
81322SOL     OW45804   4.395   1.949  12.414
81322SOL    HW145805   4.471   1.955  12.356
81322SOL    HW245806   4.328   2.003  12.371
81323SOL     OW45807  10.410   1.835   5.880
81323SOL    HW145808  10.493   1.790   5.865
81323SOL    HW245809  10.387   1.814   5.971
81324SOL     OW45810   2.634  12.492   9.945
81324SOL    HW145811   2.651  12.554   9.874
81324SOL    HW245812   2.684  12.525  10.019
81325SOL     OW45813   7.205   4.288   2.113
81325SOL    HW145814   7.197   4.280   2.018
81325SOL    HW245815   7.120   4.321   2.141
81326SOL     OW45816   6.071   3.333  10.504
81326SOL    HW145817   6.080   3.416  10.458
81326SOL    HW245818   6.032   3.274  10.440
81327SOL     OW45819   5.307  14.662   3.429
81327SOL    HW145820   5.263  14.635   3.509
81327SOL    HW245821   5.372  14.593   3.413
81328SOL     OW45822   1.482  11.853   4.144
81328SOL    HW145823   1.410  11.870   4.204
81328SOL    HW245824   1.490  11.933   4.092
81329SOL     OW45825   3.719   1.936   0.044
81329SOL    HW145826   3.731   2.030   0.041
81329SOL    HW245827   3.769   1.903  14.844
81330SOL     OW45828   3.735  13.090  12.393
81330SOL    HW145829   3.757  12.997  12.405
81330SOL    HW245830   3.640  13.093  12.402
81331SOL     OW45831   2.539   5.447  11.632
81331SOL    HW145832   2.598   5.376  11.658
81331SOL    HW245833   2.591   5.527  11.644
81332SOL     OW45834   8.208  14.287  11.663
81332SOL    HW145835   8.233  14.325  11.747
81332SOL    HW245836   8.282  14.306  11.605
81333SOL     OW45837   7.706  10.002   7.668
81333SOL    HW145838   7.621   9.976   7.705
81333SOL    HW245839   7.751   9.920   7.650
81334SOL     OW45840   4.482   8.049   3.184
81334SOL    HW145841   4.410   8.045   3.122
81334SOL    HW245842   4.478   7.965   3.230
81335SOL     OW45843   2.701   5.977  13.284
81335SOL    HW145844   2.670   5.901  13.333
81335SOL    HW245845   2.793   5.986  13.308
81336SOL     OW45846   2.819   2.576  14.473
81336SOL    HW145847   2.818   2.640  14.544
81336SOL    HW245848   2.851   2.495  14.514
81337SOL     OW45849   1.813   5.689   7.772
81337SOL    HW145850   1.824   5.599   7.743
81337SOL    HW245851   1.724   5.692   7.808
81338SOL     OW45852   8.155   4.053  14.498
81338SOL    HW145853   8.165   4.002  14.579
81338SOL    HW245854   8.227   4.117  14.501
81339SOL     OW45855   4.292  14.582  11.104
81339SOL    HW145856   4.381  14.597  11.073
81339SOL    HW245857   4.303  14.547  11.192
81340SOL     OW45858  14.824   3.277  10.547
81340SOL    HW145859  14.838   3.349  10.486
81340SOL    HW245860   0.015   3.289  10.615
81341SOL     OW45861   6.374  12.861  11.910
81341SOL    HW145862   6.440  12.930  11.920
81341SOL    HW245863   6.361  12.854  11.815
81342SOL     OW45864   2.824  13.360  14.164
81342SOL    HW145865   2.776  13.416  14.226
81342SOL    HW245866   2.819  13.407  14.081
81343SOL     OW45867   1.583  12.547   7.064
81343SOL    HW145868   1.548  12.472   7.016
81343SOL    HW245869   1.668  12.564   7.023
81344SOL     OW45870  13.181   7.436   4.963
81344SOL    HW145871  13.196   7.530   4.966
81344SOL    HW245872  13.099   7.422   5.010
81345SOL     OW45873   5.556   7.237  13.714
81345SOL    HW145874   5.526   7.177  13.782
81345SOL    HW245875   5.482   7.297  13.701
81346SOL     OW45876   4.466   6.843   2.104
81346SOL    HW145877   4.403   6.833   2.032
81346SOL    HW245878   4.437   6.782   2.171
81347SOL     OW45879   4.196  10.538  13.961
81347SOL    HW145880   4.149  10.564  14.040
81347SOL    HW245881   4.250  10.614  13.939
81348SOL     OW45882  13.222  14.157   8.204
81348SOL    HW145883  13.300  14.178   8.255
81348SOL    HW245884  13.196  14.070   8.235
81349SOL     OW45885  12.295   6.445  12.004
81349SOL    HW145886  12.340   6.371  12.044
81349SOL    HW245887  12.357   6.518  12.013
81350SOL     OW45888   2.647   0.946   3.959
81350SOL    HW145889   2.706   0.876   3.986
81350SOL    HW245890   2.666   0.960   3.867
81351SOL     OW45891   4.425   3.366   4.375
81351SOL    HW145892   4.427   3.272   4.390
81351SOL    HW245893   4.446   3.376   4.282
81352SOL     OW45894   5.716   1.433   8.377
81352SOL    HW145895   5.726   1.499   8.446
81352SOL    HW245896   5.752   1.474   8.299
81353SOL     OW45897   8.830   9.038   5.576
81353SOL    HW145898   8.834   9.113   5.517
81353SOL    HW245899   8.833   9.076   5.664
81354SOL     OW45900   9.207   4.042  14.670
81354SOL    HW145901   9.223   4.130  14.637
81354SOL    HW245902   9.279   3.989  14.634
81355SOL     OW45903  11.586   1.115   1.201
81355SOL    HW145904  11.636   1.116   1.283
81355SOL    HW245905  11.640   1.063   1.141
81356SOL     OW45906   3.301   5.082  11.260
81356SOL    HW145907   3.275   5.096  11.169
81356SOL    HW245908   3.341   4.995  11.260
81357SOL     OW45909   1.418   4.916  10.679
81357SOL    HW145910   1.446   4.959  10.760
81357SOL    HW245911   1.497   4.876  10.645
81358SOL     OW45912  13.817   6.257   1.139
81358SOL    HW145913  13.737   6.220   1.101
81358SOL    HW245914  13.888   6.214   1.091
81359SOL     OW45915   0.293   5.740   4.122
81359SOL    HW145916   0.280   5.691   4.203
81359SOL    HW245917   0.382   5.718   4.094
81360SOL     OW45918  10.896   3.552   9.092
81360SOL    HW145919  10.883   3.612   9.165
81360SOL    HW245920  10.943   3.603   9.027
81361SOL     OW45921   5.666   8.105   5.793
81361SOL    HW145922   5.580   8.146   5.789
81361SOL    HW245923   5.728   8.177   5.802
81362SOL     OW45924   3.947   5.734  14.241
81362SOL    HW145925   3.866   5.745  14.290
81362SOL    HW245926   3.961   5.639  14.238
81363SOL     OW45927  14.597  12.859   8.747
81363SOL    HW145928  14.668  12.869   8.683
81363SOL    HW245929  14.641  12.843   8.830
81364SOL     OW45930   8.238   5.651  12.906
81364SOL    HW145931   8.207   5.711  12.974
81364SOL    HW245932   8.190   5.676  12.827
81365SOL     OW45933   2.394   1.238   1.003
81365SOL    HW145934   2.359   1.150   0.990
81365SOL    HW245935   2.486   1.231   0.975
81366SOL     OW45936   1.477  13.851  13.763
81366SOL    HW145937   1.528  13.932  13.753
81366SOL    HW245938   1.438  13.836  13.677
81367SOL     OW45939   3.688   6.411  11.951
81367SOL    HW145940   3.775   6.416  11.990
81367SOL    HW245941   3.642   6.488  11.986
81368SOL     OW45942  13.459   6.959  10.559
81368SOL    HW145943  13.529   6.977  10.497
81368SOL    HW245944  13.413   7.043  10.567
81369SOL     OW45945  12.758   9.926   9.947
81369SOL    HW145946  12.713   9.860   9.999
81369SOL    HW245947  12.810   9.876   9.884
81370SOL     OW45948   7.364  12.644   5.763
81370SOL    HW145949   7.458  12.623   5.767
81370SOL    HW245950   7.329  12.581   5.701
81371SOL     OW45951  12.966   0.740   7.960
81371SOL    HW145952  12.943   0.664   8.012
81371SOL    HW245953  12.901   0.742   7.890
81372SOL     OW45954   0.649   3.685   8.579
81372SOL    HW145955   0.615   3.617   8.637
81372SOL    HW245956   0.718   3.641   8.529
81373SOL     OW45957  13.389  14.871  10.528
81373SOL    HW145958  13.401   0.092  10.538
81373SOL    HW245959  13.300  14.855  10.558
81374SOL     OW45960   9.756   8.503   6.472
81374SOL    HW145961   9.698   8.529   6.401
81374SOL    HW245962   9.743   8.408   6.479
81375SOL     OW45963  13.153   8.622   6.428
81375SOL    HW145964  13.200   8.568   6.365
81375SOL    HW245965  13.159   8.574   6.510
81376SOL     OW45966  14.744   7.704   3.313
81376SOL    HW145967  14.716   7.623   3.270
81376SOL    HW245968  14.770   7.677   3.401
81377SOL     OW45969   7.778  12.952   2.191
81377SOL    HW145970   7.764  12.920   2.280
81377SOL    HW245971   7.720  12.898   2.137
81378SOL     OW45972   3.030   0.622   0.757
81378SOL    HW145973   3.058   0.557   0.822
81378SOL    HW245974   2.947   0.587   0.723
81379SOL     OW45975  10.894   6.452   4.506
81379SOL    HW145976  10.826   6.519   4.509
81379SOL    HW245977  10.976   6.501   4.503
81380SOL     OW45978   3.433  13.927  11.860
81380SOL    HW145979   3.486  13.987  11.808
81380SOL    HW245980   3.349  13.924  11.816
81381SOL     OW45981   7.914   7.151  14.872
81381SOL    HW145982   7.917   7.245   0.015
81381SOL    HW245983   7.971   7.138  14.796
81382SOL     OW45984  12.834   5.417   1.220
81382SOL    HW145985  12.858   5.504   1.188
81382SOL    HW245986  12.842   5.423   1.315
81383SOL     OW45987   0.577   4.624   5.037
81383SOL    HW145988   0.502   4.583   4.992
81383SOL    HW245989   0.540   4.702   5.078
81384SOL     OW45990   4.865   2.899  11.204
81384SOL    HW145991   4.847   2.989  11.176
81384SOL    HW245992   4.947   2.877  11.160
81385SOL     OW45993   4.115   3.541   7.130
81385SOL    HW145994   4.143   3.614   7.185
81385SOL    HW245995   4.034   3.572   7.089
81386SOL     OW45996  13.844   8.703   0.609
81386SOL    HW145997  13.854   8.724   0.516
81386SOL    HW245998  13.875   8.782   0.654
81387SOL     OW45999  14.185   4.469   1.282
81387SOL    HW146000  14.103   4.517   1.269
81387SOL    HW246001  14.252   4.524   1.241
81388SOL     OW46002  10.681   3.042   7.456
81388SOL    HW146003  10.673   3.132   7.486
81388SOL    HW246004  10.759   3.008   7.499
81389SOL     OW46005  10.681   3.712  10.992
81389SOL    HW146006  10.595   3.686  10.961
81389SOL    HW246007  10.739   3.699  10.917
81390SOL     OW46008  11.878   9.394   4.325
81390SOL    HW146009  11.804   9.425   4.273
81390SOL    HW246010  11.954   9.402   4.267
81391SOL     OW46011   6.474   6.327   2.502
81391SOL    HW146012   6.468   6.377   2.421
81391SOL    HW246013   6.384   6.301   2.521
81392SOL     OW46014   8.230   2.320   9.815
81392SOL    HW146015   8.203   2.411   9.803
81392SOL    HW246016   8.183   2.272   9.746
81393SOL     OW46017  11.473  11.019  10.811
81393SOL    HW146018  11.494  11.001  10.903
81393SOL    HW246019  11.507  10.943  10.764
81394SOL     OW46020   6.787   9.706   6.926
81394SOL    HW146021   6.730   9.632   6.949
81394SOL    HW246022   6.729   9.767   6.880
81395SOL     OW46023   9.650  10.809   2.247
81395SOL    HW146024   9.629  10.901   2.264
81395SOL    HW246025   9.739  10.798   2.280
81396SOL     OW46026   4.192  10.524  14.783
81396SOL    HW146027   4.103  10.531  14.818
81396SOL    HW246028   4.192  10.444  14.731
81397SOL     OW46029   4.761   4.493  14.803
81397SOL    HW146030   4.739   4.432  14.732
81397SOL    HW246031   4.809   4.439  14.866
81398SOL     OW46032  11.092   3.442   2.349
81398SOL    HW146033  11.172   3.423   2.399
81398SOL    HW246034  11.040   3.498   2.406
81399SOL     OW46035  11.291  12.221  14.070
81399SOL    HW146036  11.270  12.315  14.067
81399SOL    HW246037  11.221  12.179  14.021
81400SOL     OW46038   5.432  14.239   2.153
81400SOL    HW146039   5.492  14.247   2.227
81400SOL    HW246040   5.484  14.263   2.077
81401SOL     OW46041  12.802   0.253   5.009
81401SOL    HW146042  12.880   0.202   5.030
81401SOL    HW246043  12.748   0.193   4.957
81402SOL     OW46044   4.763   5.181   0.478
81402SOL    HW146045   4.735   5.094   0.505
81402SOL    HW246046   4.751   5.182   0.383
81403SOL     OW46047  14.381   6.859  14.173
81403SOL    HW146048  14.423   6.778  14.145
81403SOL    HW246049  14.357   6.904  14.092
81404SOL     OW46050   7.586   3.415   5.925
81404SOL    HW146051   7.531   3.337   5.938
81404SOL    HW246052   7.524   3.483   5.900
81405SOL     OW46053   9.066  11.059  10.515
81405SOL    HW146054   8.972  11.064  10.498
81405SOL    HW246055   9.089  10.968  10.496
81406SOL     OW46056   4.427  14.637  12.113
81406SOL    HW146057   4.379  14.703  12.164
81406SOL    HW246058   4.455  14.573  12.178
81407SOL     OW46059  13.718  12.698   6.815
81407SOL    HW146060  13.762  12.695   6.901
81407SOL    HW246061  13.666  12.778   6.818
81408SOL     OW46062   1.452   7.220   2.399
81408SOL    HW146063   1.397   7.281   2.448
81408SOL    HW246064   1.517   7.276   2.356
81409SOL     OW46065   2.939   5.786  11.961
81409SOL    HW146066   2.898   5.733  12.030
81409SOL    HW246067   2.939   5.875  11.997
81410SOL     OW46068   5.971   5.744   7.806
81410SOL    HW146069   5.975   5.725   7.900
81410SOL    HW246070   5.890   5.794   7.796
81411SOL     OW46071   9.434   5.464   0.357
81411SOL    HW146072   9.398   5.451   0.445
81411SOL    HW246073   9.414   5.383   0.311
81412SOL     OW46074   8.791  10.283  10.259
81412SOL    HW146075   8.799  10.336  10.180
81412SOL    HW246076   8.697  10.281  10.277
81413SOL     OW46077   6.919   1.003   4.102
81413SOL    HW146078   6.881   1.003   4.014
81413SOL    HW246079   6.957   0.915   4.112
81414SOL     OW46080   8.792   4.443   0.081
81414SOL    HW146081   8.709   4.470   0.121
81414SOL    HW246082   8.773   4.433  14.862
81415SOL     OW46083  12.836   7.957   0.929
81415SOL    HW146084  12.902   8.026   0.922
81415SOL    HW246085  12.815   7.933   0.839
81416SOL     OW46086  13.711   6.576  12.015
81416SOL    HW146087  13.704   6.481  12.026
81416SOL    HW246088  13.791   6.599  12.062
81417SOL     OW46089  13.088  10.110   1.742
81417SOL    HW146090  13.179  10.087   1.724
81417SOL    HW246091  13.093  10.197   1.783
81418SOL     OW46092  12.990   0.782  10.730
81418SOL    HW146093  13.058   0.836  10.768
81418SOL    HW246094  13.030   0.696  10.720
81419SOL     OW46095  10.621  12.652   1.977
81419SOL    HW146096  10.705  12.677   2.015
81419SOL    HW246097  10.559  12.657   2.050
81420SOL     OW46098   2.748   3.877  12.817
81420SOL    HW146099   2.711   3.882  12.729
81420SOL    HW246100   2.836   3.912  12.809
81421SOL     OW46101   2.180  11.964  10.587
81421SOL    HW146102   2.098  11.934  10.628
81421SOL    HW246103   2.156  11.983  10.497
81422SOL     OW46104  13.551   1.271  13.341
81422SOL    HW146105  13.645   1.290  13.333
81422SOL    HW246106  13.508   1.352  13.313
81423SOL     OW46107  14.047   8.256  12.996
81423SOL    HW146108  14.020   8.348  12.999
81423SOL    HW246109  14.117   8.249  13.061
81424SOL     OW46110   5.500   2.672   3.879
81424SOL    HW146111   5.425   2.684   3.938
81424SOL    HW246112   5.529   2.761   3.860
81425SOL     OW46113   3.729   2.310  11.043
81425SOL    HW146114   3.679   2.257  10.981
81425SOL    HW246115   3.664   2.368  11.082
81426SOL     OW46116  12.328   6.208   8.806
81426SOL    HW146117  12.305   6.151   8.732
81426SOL    HW246118  12.332   6.296   8.768
81427SOL     OW46119  10.766   2.998   2.079
81427SOL    HW146120  10.697   2.932   2.087
81427SOL    HW246121  10.770   3.039   2.166
81428SOL     OW46122   9.285   7.418   8.585
81428SOL    HW146123   9.334   7.496   8.610
81428SOL    HW246124   9.238   7.443   8.505
81429SOL     OW46125  10.100   7.808   7.395
81429SOL    HW146126  10.109   7.726   7.443
81429SOL    HW246127  10.005   7.818   7.382
81430SOL     OW46128  11.629  13.689   4.456
81430SOL    HW146129  11.626  13.594   4.461
81430SOL    HW246130  11.559  13.712   4.395
81431SOL     OW46131  11.229   6.570   6.463
81431SOL    HW146132  11.242   6.519   6.384
81431SOL    HW246133  11.242   6.661   6.435
81432SOL     OW46134  12.782  14.227  12.657
81432SOL    HW146135  12.768  14.313  12.616
81432SOL    HW246136  12.697  14.202  12.691
81433SOL     OW46137   5.840  10.269   1.660
81433SOL    HW146138   5.819  10.233   1.574
81433SOL    HW246139   5.769  10.239   1.717
81434SOL     OW46140   0.200   8.998   1.506
81434SOL    HW146141   0.209   9.069   1.442
81434SOL    HW246142   0.240   8.922   1.463
81435SOL     OW46143  12.999   6.588   9.622
81435SOL    HW146144  12.962   6.538   9.694
81435SOL    HW246145  13.062   6.647   9.664
81436SOL     OW46146   2.956   9.797  10.132
81436SOL    HW146147   2.989   9.810  10.221
81436SOL    HW246148   3.022   9.743  10.089
81437SOL     OW46149   5.926   2.211  10.242
81437SOL    HW146150   5.894   2.128  10.278
81437SOL    HW246151   5.868   2.277  10.279
81438SOL     OW46152   7.216   2.886   1.554
81438SOL    HW146153   7.158   2.811   1.541
81438SOL    HW246154   7.287   2.852   1.609
81439SOL     OW46155   6.606   8.603   2.860
81439SOL    HW146156   6.541   8.670   2.843
81439SOL    HW246157   6.689   8.651   2.866
81440SOL     OW46158   6.708   8.388   5.509
81440SOL    HW146159   6.638   8.440   5.548
81440SOL    HW246160   6.663   8.329   5.448
81441SOL     OW46161   2.215   0.756   0.436
81441SOL    HW146162   2.153   0.768   0.508
81441SOL    HW246163   2.300   0.777   0.474
81442SOL     OW46164   9.183  13.492   9.599
81442SOL    HW146165   9.126  13.464   9.527
81442SOL    HW246166   9.237  13.416   9.618
81443SOL     OW46167   0.827  12.177   4.076
81443SOL    HW146168   0.852  12.116   4.145
81443SOL    HW246169   0.860  12.262   4.105
81444SOL     OW46170  11.579  12.856   3.095
81444SOL    HW146171  11.659  12.812   3.125
81444SOL    HW246172  11.604  12.896   3.012
81445SOL     OW46173   8.808   7.875   2.877
81445SOL    HW146174   8.830   7.955   2.829
81445SOL    HW246175   8.796   7.903   2.968
81446SOL     OW46176   0.682   1.156   7.394
81446SOL    HW146177   0.601   1.169   7.444
81446SOL    HW246178   0.701   1.063   7.402
81447SOL     OW46179   2.058   8.840   9.221
81447SOL    HW146180   2.131   8.783   9.247
81447SOL    HW246181   1.979   8.790   9.242
81448SOL     OW46182   5.283  14.137   0.877
81448SOL    HW146183   5.270  14.219   0.829
81448SOL    HW246184   5.338  14.162   0.952
81449SOL     OW46185   6.717   4.632   0.862
81449SOL    HW146186   6.722   4.579   0.941
81449SOL    HW246187   6.625   4.628   0.835
81450SOL     OW46188  14.525   8.720   7.460
81450SOL    HW146189  14.598   8.699   7.402
81450SOL    HW246190  14.519   8.816   7.457
81451SOL     OW46191   5.802  11.489  10.776
81451SOL    HW146192   5.722  11.541  10.772
81451SOL    HW246193   5.872  11.553  10.768
81452SOL     OW46194   5.789   7.244  10.619
81452SOL    HW146195   5.856   7.202  10.672
81452SOL    HW246196   5.757   7.176  10.561
81453SOL     OW46197   3.198   4.734  11.874
81453SOL    HW146198   3.155   4.736  11.960
81453SOL    HW246199   3.282   4.692  11.891
81454SOL     OW46200   6.810  10.752   8.409
81454SOL    HW146201   6.884  10.695   8.389
81454SOL    HW246202   6.758  10.702   8.472
81455SOL     OW46203  12.927  13.934   1.321
81455SOL    HW146204  12.966  13.898   1.241
81455SOL    HW246205  12.980  13.898   1.392
81456SOL     OW46206   4.479   7.711   0.808
81456SOL    HW146207   4.442   7.678   0.726
81456SOL    HW246208   4.427   7.788   0.828
81457SOL     OW46209   2.560   8.808  13.318
81457SOL    HW146210   2.560   8.820  13.413
81457SOL    HW246211   2.587   8.893  13.283
81458SOL     OW46212   4.267  12.280   4.173
81458SOL    HW146213   4.240  12.337   4.245
81458SOL    HW246214   4.215  12.308   4.098
81459SOL     OW46215  12.535  13.444   1.428
81459SOL    HW146216  12.571  13.400   1.350
81459SOL    HW246217  12.600  13.510   1.451
81460SOL     OW46218  10.588   9.844   4.044
81460SOL    HW146219  10.607   9.829   3.951
81460SOL    HW246220  10.617   9.764   4.087
81461SOL     OW46221   3.983   5.902   3.187
81461SOL    HW146222   3.969   5.997   3.183
81461SOL    HW246223   4.045   5.890   3.260
81462SOL     OW46224   0.528   4.897  11.256
81462SOL    HW146225   0.563   4.870  11.341
81462SOL    HW246226   0.593   4.869  11.193
81463SOL     OW46227   1.425   2.585   2.948
81463SOL    HW146228   1.392   2.634   3.024
81463SOL    HW246229   1.514   2.617   2.936
81464SOL     OW46230   1.966  10.981  14.623
81464SOL    HW146231   1.957  11.062  14.572
81464SOL    HW246232   1.884  10.935  14.610
81465SOL     OW46233   2.402   8.293  10.830
81465SOL    HW146234   2.426   8.348  10.905
81465SOL    HW246235   2.470   8.227  10.826
81466SOL     OW46236   0.732   4.513  12.640
81466SOL    HW146237   0.740   4.472  12.727
81466SOL    HW246238   0.768   4.449  12.580
81467SOL     OW46239  12.879   9.465   0.937
81467SOL    HW146240  12.826   9.387   0.926
81467SOL    HW246241  12.890   9.474   1.032
81468SOL     OW46242   0.748   0.104   9.383
81468SOL    HW146243   0.739   0.102   9.478
81468SOL    HW246244   0.719   0.017   9.355
81469SOL     OW46245   4.676   6.788   5.638
81469SOL    HW146246   4.616   6.718   5.610
81469SOL    HW246247   4.648   6.808   5.728
81470SOL     OW46248  14.846   4.898   1.142
81470SOL    HW146249  14.829   4.824   1.200
81470SOL    HW246250  14.760   4.933   1.121
81471SOL     OW46251  12.843  11.391   1.996
81471SOL    HW146252  12.853  11.479   1.960
81471SOL    HW246253  12.919  11.343   1.963
81472SOL     OW46254   7.286   5.107  12.150
81472SOL    HW146255   7.295   5.014  12.132
81472SOL    HW246256   7.334   5.121  12.231
81473SOL     OW46257   4.019   0.040  13.850
81473SOL    HW146258   3.986   0.101  13.783
81473SOL    HW246259   4.079  14.857  13.802
81474SOL     OW46260   7.311  13.514  14.859
81474SOL    HW146261   7.341  13.514  14.768
81474SOL    HW246262   7.215  13.514  14.852
81475SOL     OW46263   2.869   6.623   8.973
81475SOL    HW146264   2.957   6.650   8.948
81475SOL    HW246265   2.882   6.567   9.050
81476SOL     OW46266   1.776   4.641   9.811
81476SOL    HW146267   1.723   4.720   9.818
81476SOL    HW246268   1.838   4.647   9.883
81477SOL     OW46269  12.146  10.763   5.949
81477SOL    HW146270  12.065  10.815   5.951
81477SOL    HW246271  12.205  10.808   6.009
81478SOL     OW46272   6.867   3.049   0.449
81478SOL    HW146273   6.940   3.000   0.412
81478SOL    HW246274   6.829   2.991   0.515
81479SOL     OW46275   1.822   0.392  11.544
81479SOL    HW146276   1.757   0.454  11.511
81479SOL    HW246277   1.784   0.305  11.527
81480SOL     OW46278  13.018   5.667   3.565
81480SOL    HW146279  13.009   5.763   3.567
81480SOL    HW246280  13.076   5.650   3.490
81481SOL     OW46281   4.963  14.766  10.341
81481SOL    HW146282   5.053  14.738  10.353
81481SOL    HW246283   4.964  14.859  10.364
81482SOL     OW46284  13.019   1.975   0.841
81482SOL    HW146285  12.937   1.949   0.799
81482SOL    HW246286  13.085   1.919   0.801
81483SOL     OW46287   6.595   0.341  11.688
81483SOL    HW146288   6.580   0.287  11.610
81483SOL    HW246289   6.562   0.427  11.665
81484SOL     OW46290   3.670  12.974  10.908
81484SOL    HW146291   3.706  12.887  10.929
81484SOL    HW246292   3.587  12.955  10.864
81485SOL     OW46293   0.331   8.519   0.910
81485SOL    HW146294   0.331   8.453   0.979
81485SOL    HW246295   0.247   8.507   0.866
81486SOL     OW46296  11.315   3.028   0.716
81486SOL    HW146297  11.237   2.999   0.668
81486SOL    HW246298  11.303   2.991   0.804
81487SOL     OW46299   3.862  12.927   1.949
81487SOL    HW146300   3.927  12.952   1.883
81487SOL    HW246301   3.867  12.997   2.015
81488SOL     OW46302   7.260   4.404   6.354
81488SOL    HW146303   7.225   4.477   6.303
81488SOL    HW246304   7.216   4.411   6.439
81489SOL     OW46305  10.844  10.855   5.592
81489SOL    HW146306  10.782  10.887   5.526
81489SOL    HW246307  10.905  10.928   5.605
81490SOL     OW46308   2.949   2.041   9.934
81490SOL    HW146309   3.033   2.086   9.944
81490SOL    HW246310   2.895   2.074  10.006
81491SOL     OW46311   7.474  11.650   1.253
81491SOL    HW146312   7.528  11.680   1.180
81491SOL    HW246313   7.493  11.557   1.260
81492SOL     OW46314   0.667   7.397  12.656
81492SOL    HW146315   0.685   7.316  12.607
81492SOL    HW246316   0.689   7.376  12.746
81493SOL     OW46317   3.132  12.060  10.997
81493SOL    HW146318   3.192  11.987  10.987
81493SOL    HW246319   3.123  12.097  10.910
81494SOL     OW46320   5.915   5.671   0.853
81494SOL    HW146321   5.854   5.716   0.794
81494SOL    HW246322   5.987   5.732   0.864
81495SOL     OW46323   2.933   9.793   7.410
81495SOL    HW146324   2.897   9.721   7.462
81495SOL    HW246325   2.894   9.872   7.449
81496SOL     OW46326   6.201   2.905   2.570
81496SOL    HW146327   6.285   2.936   2.605
81496SOL    HW246328   6.224   2.831   2.514
81497SOL     OW46329  10.774   7.542  11.035
81497SOL    HW146330  10.777   7.557  10.941
81497SOL    HW246331  10.799   7.450  11.046
81498SOL     OW46332  14.389   5.945  11.349
81498SOL    HW146333  14.313   5.916  11.398
81498SOL    HW246334  14.383   6.041  11.349
81499SOL     OW46335  10.240   6.402  13.947
81499SOL    HW146336  10.249   6.483  13.997
81499SOL    HW246337  10.163   6.359  13.985
81500SOL     OW46338  10.004   3.204  14.442
81500SOL    HW146339   9.937   3.147  14.479
81500SOL    HW246340  10.008   3.179  14.350
81501SOL     OW46341  13.581  10.571  11.557
81501SOL    HW146342  13.674  10.559  11.578
81501SOL    HW246343  13.580  10.644  11.495
81502SOL     OW46344  11.296  14.016   0.741
81502SOL    HW146345  11.296  14.080   0.813
81502SOL    HW246346  11.280  14.068   0.662
81503SOL     OW46347   4.314   3.200   6.927
81503SOL    HW146348   4.352   3.277   6.969
81503SOL    HW246349   4.220   3.214   6.932
81504SOL     OW46350   8.764   2.599  11.195
81504SOL    HW146351   8.749   2.686  11.156
81504SOL    HW246352   8.717   2.539  11.138
81505SOL     OW46353   5.687   1.811   5.193
81505SOL    HW146354   5.609   1.801   5.138
81505SOL    HW246355   5.704   1.723   5.227
81506SOL     OW46356   2.643  13.624  13.629
81506SOL    HW146357   2.641  13.683  13.554
81506SOL    HW246358   2.718  13.652  13.681
81507SOL     OW46359  14.709   2.641  12.946
81507SOL    HW146360  14.745   2.626  13.034
81507SOL    HW246361  14.711   2.555  12.904
81508SOL     OW46362  10.775   0.900   8.569
81508SOL    HW146363  10.745   0.905   8.660
81508SOL    HW246364  10.731   0.973   8.525
81509SOL     OW46365  11.392   4.774   7.758
81509SOL    HW146366  11.352   4.691   7.731
81509SOL    HW246367  11.351   4.794   7.842
81510SOL     OW46368  13.463   3.451  13.162
81510SOL    HW146369  13.517   3.475  13.086
81510SOL    HW246370  13.433   3.535  13.196
81511SOL     OW46371   1.768  13.463   4.300
81511SOL    HW146372   1.756  13.415   4.382
81511SOL    HW246373   1.845  13.517   4.315
81512SOL     OW46374  13.331   3.848   8.319
81512SOL    HW146375  13.239   3.870   8.312
81512SOL    HW246376  13.336   3.755   8.298
81513SOL     OW46377  14.496  11.571   4.867
81513SOL    HW146378  14.434  11.498   4.859
81513SOL    HW246379  14.536  11.576   4.780
81514SOL     OW46380   1.898  14.220  12.530
81514SOL    HW146381   1.821  14.209  12.586
81514SOL    HW246382   1.928  14.309  12.548
81515SOL     OW46383   0.030  13.159   8.639
81515SOL    HW146384   0.053  13.151   8.732
81515SOL    HW246385   0.015  13.069   8.611
81516SOL     OW46386  12.941  12.127   0.419
81516SOL    HW146387  12.854  12.143   0.381
81516SOL    HW246388  12.926  12.129   0.513
81517SOL     OW46389  10.419  13.575  13.653
81517SOL    HW146390  10.424  13.666  13.683
81517SOL    HW246391  10.376  13.529  13.725
81518SOL     OW46392   8.038  14.157   1.378
81518SOL    HW146393   7.996  14.123   1.299
81518SOL    HW246394   8.052  14.079   1.433
81519SOL     OW46395  14.055  11.206  13.903
81519SOL    HW146396  14.031  11.207  13.810
81519SOL    HW246397  14.126  11.269  13.910
81520SOL     OW46398  10.699  12.049   7.478
81520SOL    HW146399  10.642  11.998   7.534
81520SOL    HW246400  10.785  12.008   7.486
81521SOL     OW46401   6.878  14.533   0.015
81521SOL    HW146402   6.904  14.441   0.013
81521SOL    HW246403   6.956  14.580   0.044
81522SOL     OW46404   5.566   2.803  10.923
81522SOL    HW146405   5.587   2.718  10.960
81522SOL    HW246406   5.631   2.863  10.959
81523SOL     OW46407  14.300   3.541   9.332
81523SOL    HW146408  14.368   3.605   9.314
81523SOL    HW246409  14.332   3.460   9.293
81524SOL     OW46410  14.197   5.980  12.911
81524SOL    HW146411  14.278   5.939  12.942
81524SOL    HW246412  14.220   6.016  12.825
81525SOL     OW46413   0.531   4.303  11.777
81525SOL    HW146414   0.503   4.366  11.710
81525SOL    HW246415   0.550   4.223  11.728
81526SOL     OW46416  14.320  13.572  11.213
81526SOL    HW146417  14.368  13.546  11.134
81526SOL    HW246418  14.363  13.653  11.241
81527SOL     OW46419   0.403   1.832   1.978
81527SOL    HW146420   0.470   1.765   1.982
81527SOL    HW246421   0.339   1.807   2.044
81528SOL     OW46422   2.957  12.468  12.802
81528SOL    HW146423   2.977  12.551  12.760
81528SOL    HW246424   2.918  12.493  12.886
81529SOL     OW46425   7.578  10.349  10.322
81529SOL    HW146426   7.652  10.406  10.302
81529SOL    HW246427   7.501  10.402  10.302
81530SOL     OW46428   7.445   4.047   8.658
81530SOL    HW146429   7.410   4.050   8.568
81530SOL    HW246430   7.368   4.033   8.713
81531SOL     OW46431   8.592   2.030   0.832
81531SOL    HW146432   8.561   2.102   0.887
81531SOL    HW246433   8.683   2.051   0.813
81532SOL     OW46434   8.315   1.431  13.192
81532SOL    HW146435   8.285   1.368  13.127
81532SOL    HW246436   8.242   1.493  13.200
81533SOL     OW46437  10.964   9.448   5.808
81533SOL    HW146438  10.989   9.523   5.755
81533SOL    HW246439  10.977   9.373   5.751
81534SOL     OW46440   0.669   2.211   1.695
81534SOL    HW146441   0.684   2.271   1.769
81534SOL    HW246442   0.616   2.262   1.634
81535SOL     OW46443   8.969   5.836   7.702
81535SOL    HW146444   8.993   5.760   7.755
81535SOL    HW246445   9.046   5.854   7.648
81536SOL     OW46446   8.968  10.319   9.722
81536SOL    HW146447   9.036  10.257   9.695
81536SOL    HW246448   8.989  10.400   9.674
81537SOL     OW46449  12.005   1.926   1.560
81537SOL    HW146450  12.100   1.933   1.565
81537SOL    HW246451  11.978   2.000   1.506
81538SOL     OW46452   9.243   8.774  14.544
81538SOL    HW146453   9.278   8.741  14.627
81538SOL    HW246454   9.292   8.855  14.527
81539SOL     OW46455   7.481   5.582   3.721
81539SOL    HW146456   7.394   5.543   3.728
81539SOL    HW246457   7.503   5.609   3.810
81540SOL     OW46458   6.000   2.474   9.956
81540SOL    HW146459   5.937   2.500  10.023
81540SOL    HW246460   6.083   2.469  10.003
81541SOL     OW46461   7.276  14.165   5.565
81541SOL    HW146462   7.317  14.240   5.521
81541SOL    HW246463   7.223  14.204   5.635
81542SOL     OW46464   7.169   7.142   4.634
81542SOL    HW146465   7.236   7.122   4.699
81542SOL    HW246466   7.147   7.234   4.649
81543SOL     OW46467   1.728   7.181   3.650
81543SOL    HW146468   1.823   7.182   3.647
81543SOL    HW246469   1.704   7.094   3.616
81544SOL     OW46470  13.149   3.446  12.637
81544SOL    HW146471  13.182   3.456  12.548
81544SOL    HW246472  13.061   3.483  12.635
81545SOL     OW46473   9.023   1.302   2.898
81545SOL    HW146474   9.013   1.208   2.883
81545SOL    HW246475   9.118   1.315   2.911
81546SOL     OW46476   7.851   4.855   9.795
81546SOL    HW146477   7.865   4.937   9.747
81546SOL    HW246478   7.921   4.798   9.765
81547SOL     OW46479   4.793  11.741  13.353
81547SOL    HW146480   4.843  11.786  13.421
81547SOL    HW246481   4.821  11.649  13.360
81548SOL     OW46482  12.352   3.175   6.463
81548SOL    HW146483  12.409   3.251   6.472
81548SOL    HW246484  12.411   3.100   6.456
81549SOL     OW46485  10.872   6.398   5.848
81549SOL    HW146486  10.942   6.356   5.798
81549SOL    HW246487  10.876   6.358   5.935
81550SOL     OW46488   8.511  12.168  10.231
81550SOL    HW146489   8.443  12.128  10.285
81550SOL    HW246490   8.554  12.230  10.290
81551SOL     OW46491   2.326   9.884   3.329
81551SOL    HW146492   2.273   9.899   3.251
81551SOL    HW246493   2.363   9.970   3.350
81552SOL     OW46494   6.894  14.674   3.938
81552SOL    HW146495   6.937  14.588   3.943
81552SOL    HW246496   6.815  14.664   3.990
81553SOL     OW46497  14.014   2.730   9.713
81553SOL    HW146498  14.027   2.712   9.806
81553SOL    HW246499  14.078   2.799   9.694
81554SOL     OW46500   3.473  10.363   2.146
81554SOL    HW146501   3.425  10.350   2.228
81554SOL    HW246502   3.411  10.340   2.077
81555SOL     OW46503  11.774   3.054   3.655
81555SOL    HW146504  11.739   2.965   3.657
81555SOL    HW246505  11.741   3.095   3.735
81556SOL     OW46506   2.885  12.379   7.138
81556SOL    HW146507   2.889  12.300   7.192
81556SOL    HW246508   2.812  12.363   7.077
81557SOL     OW46509  11.794   1.481  14.688
81557SOL    HW146510  11.818   1.561  14.642
81557SOL    HW246511  11.704   1.462  14.661
81558SOL     OW46512   1.687   9.453   1.253
81558SOL    HW146513   1.644   9.430   1.170
81558SOL    HW246514   1.774   9.483   1.227
81559SOL     OW46515   5.016  11.861   8.157
81559SOL    HW146516   5.097  11.907   8.132
81559SOL    HW246517   5.029  11.838   8.248
81560SOL     OW46518   2.348  14.539   8.505
81560SOL    HW146519   2.411  14.610   8.489
81560SOL    HW246520   2.263  14.582   8.503
81561SOL     OW46521   5.082   9.205   0.936
81561SOL    HW146522   5.074   9.208   0.840
81561SOL    HW246523   5.171   9.172   0.951
81562SOL     OW46524   8.392  14.358   3.129
81562SOL    HW146525   8.374  14.443   3.087
81562SOL    HW246526   8.434  14.381   3.212
81563SOL     OW46527   5.606   9.915   3.039
81563SOL    HW146528   5.531   9.948   3.088
81563SOL    HW246529   5.591   9.821   3.033
81564SOL     OW46530  10.273   7.574   2.108
81564SOL    HW146531  10.227   7.560   2.190
81564SOL    HW246532  10.223   7.524   2.043
81565SOL     OW46533  12.741   1.959  12.091
81565SOL    HW146534  12.734   2.050  12.120
81565SOL    HW246535  12.797   1.963  12.013
81566SOL     OW46536   2.520  12.527   1.080
81566SOL    HW146537   2.441  12.529   1.026
81566SOL    HW246538   2.497  12.580   1.157
81567SOL     OW46539   5.413   5.981   0.476
81567SOL    HW146540   5.367   6.000   0.558
81567SOL    HW246541   5.429   5.887   0.479
81568SOL     OW46542   7.840   8.972   1.664
81568SOL    HW146543   7.833   8.964   1.759
81568SOL    HW246544   7.812   8.887   1.630
81569SOL     OW46545   8.088   3.915   8.720
81569SOL    HW146546   8.034   3.874   8.652
81569SOL    HW246547   8.031   3.919   8.797
81570SOL     OW46548   7.603  10.935   2.210
81570SOL    HW146549   7.617  10.882   2.131
81570SOL    HW246550   7.511  10.921   2.232
81571SOL     OW46551  10.621   1.124   6.183
81571SOL    HW146552  10.697   1.069   6.165
81571SOL    HW246553  10.587   1.092   6.267
81572SOL     OW46554   8.136   6.875   8.510
81572SOL    HW146555   8.069   6.943   8.508
81572SOL    HW246556   8.200   6.907   8.574
81573SOL     OW46557   1.652   3.729   1.015
81573SOL    HW146558   1.728   3.705   0.962
81573SOL    HW246559   1.672   3.816   1.048
81574SOL     OW46560  12.263   8.670  11.303
81574SOL    HW146561  12.356   8.651  11.292
81574SOL    HW246562  12.260   8.753  11.352
81575SOL     OW46563   4.227  13.242   0.016
81575SOL    HW146564   4.306  13.191   0.033
81575SOL    HW246565   4.198  13.271   0.103
81576SOL     OW46566  14.453   0.699  10.093
81576SOL    HW146567  14.379   0.662  10.140
81576SOL    HW246568  14.436   0.793  10.092
81577SOL     OW46569  14.432   2.885   9.891
81577SOL    HW146570  14.458   2.901   9.800
81577SOL    HW246571  14.507   2.840   9.930
81578SOL     OW46572  14.814   5.740   9.071
81578SOL    HW146573  14.870   5.707   9.001
81578SOL    HW246574  14.872   5.749   9.146
81579SOL     OW46575  14.278   5.293   7.367
81579SOL    HW146576  14.344   5.307   7.434
81579SOL    HW246577  14.323   5.244   7.298
81580SOL     OW46578  13.390   6.259   2.119
81580SOL    HW146579  13.327   6.187   2.114
81580SOL    HW246580  13.391   6.295   2.030
81581SOL     OW46581  12.951   5.123   6.621
81581SOL    HW146582  12.902   5.053   6.664
81581SOL    HW246583  12.920   5.123   6.531
81582SOL     OW46584   5.057  11.116  12.665
81582SOL    HW146585   5.025  11.175  12.596
81582SOL    HW246586   4.981  11.065  12.689
81583SOL     OW46587   7.371   4.915   5.820
81583SOL    HW146588   7.346   4.949   5.906
81583SOL    HW246589   7.457   4.953   5.804
81584SOL     OW46590  10.140   8.470   6.168
81584SOL    HW146591  10.046   8.460   6.155
81584SOL    HW246592  10.151   8.561   6.197
81585SOL     OW46593   4.272  11.003  11.137
81585SOL    HW146594   4.207  10.951  11.090
81585SOL    HW246595   4.356  10.965  11.111
81586SOL     OW46596  12.499   2.396  13.874
81586SOL    HW146597  12.439   2.370  13.944
81586SOL    HW246598  12.509   2.491  13.885
81587SOL     OW46599   7.640  14.377   9.288
81587SOL    HW146600   7.556  14.333   9.282
81587SOL    HW246601   7.621  14.460   9.333
81588SOL     OW46602   6.546   8.616   3.606
81588SOL    HW146603   6.501   8.700   3.612
81588SOL    HW246604   6.476   8.554   3.585
81589SOL     OW46605   2.415  13.209  11.256
81589SOL    HW146606   2.488  13.196  11.195
81589SOL    HW246607   2.350  13.144  11.230
81590SOL     OW46608   2.870   5.712  13.116
81590SOL    HW146609   2.784   5.688  13.081
81590SOL    HW246610   2.853   5.736  13.206
81591SOL     OW46611  13.290   1.788   5.248
81591SOL    HW146612  13.303   1.697   5.222
81591SOL    HW246613  13.252   1.830   5.170
81592SOL     OW46614  11.775   0.590   7.281
81592SOL    HW146615  11.748   0.566   7.370
81592SOL    HW246616  11.698   0.631   7.242
81593SOL     OW46617  14.085   7.606  12.960
81593SOL    HW146618  14.019   7.558  12.912
81593SOL    HW246619  14.038   7.647  13.033
81594SOL     OW46620  14.703   2.586  10.834
81594SOL    HW146621  14.632   2.606  10.773
81594SOL    HW246622  14.738   2.502  10.805
81595SOL     OW46623  11.551   9.415   4.166
81595SOL    HW146624  11.470   9.435   4.120
81595SOL    HW246625  11.526   9.349   4.231
81596SOL     OW46626   6.642   3.980  14.273
81596SOL    HW146627   6.654   4.075  14.267
81596SOL    HW246628   6.730   3.944  14.266
81597SOL     OW46629   8.522   6.109  10.460
81597SOL    HW146630   8.532   6.143  10.549
81597SOL    HW246631   8.491   6.184  10.409
81598SOL     OW46632   5.159   1.666   4.238
81598SOL    HW146633   5.175   1.655   4.144
81598SOL    HW246634   5.073   1.626   4.252
81599SOL     OW46635   4.898  11.518  13.051
81599SOL    HW146636   4.939  11.439  13.086
81599SOL    HW246637   4.946  11.590  13.091
81600SOL     OW46638  11.530   1.364   5.161
81600SOL    HW146639  11.573   1.279   5.164
81600SOL    HW246640  11.579   1.413   5.094
81601SOL     OW46641   3.287  11.474   9.308
81601SOL    HW146642   3.324  11.450   9.393
81601SOL    HW246643   3.199  11.506   9.328
81602SOL     OW46644   8.936  11.544   1.315
81602SOL    HW146645   8.965  11.635   1.306
81602SOL    HW246646   8.932  11.530   1.410
81603SOL     OW46647  14.629  14.641   6.599
81603SOL    HW146648  14.683  14.563   6.588
81603SOL    HW246649  14.610  14.670   6.510
81604SOL     OW46650   0.088  14.824  12.154
81604SOL    HW146651  14.871  14.832  12.181
81604SOL    HW246652   0.122  14.752  12.207
81605SOL     OW46653  12.978  11.299  13.905
81605SOL    HW146654  13.023  11.229  13.859
81605SOL    HW246655  12.960  11.365  13.838
81606SOL     OW46656   3.685   4.717  12.316
81606SOL    HW146657   3.771   4.758  12.300
81606SOL    HW246658   3.706   4.637  12.365
81607SOL     OW46659   4.385  12.802  12.466
81607SOL    HW146660   4.415  12.733  12.407
81607SOL    HW246661   4.462  12.823  12.519
81608SOL     OW46662  12.627  10.256   7.386
81608SOL    HW146663  12.712  10.266   7.428
81608SOL    HW246664  12.573  10.212   7.452
81609SOL     OW46665   5.535   2.363   1.202
81609SOL    HW146666   5.561   2.331   1.116
81609SOL    HW246667   5.560   2.455   1.203
81610SOL     OW46668   6.747  14.525   2.136
81610SOL    HW146669   6.684  14.573   2.083
81610SOL    HW246670   6.758  14.578   2.215
81611SOL     OW46671   7.402   2.806   5.436
81611SOL    HW146672   7.335   2.814   5.368
81611SOL    HW246673   7.379   2.871   5.502
81612SOL     OW46674  10.665   4.042   3.535
81612SOL    HW146675  10.657   4.117   3.477
81612SOL    HW246676  10.728   3.984   3.491
81613SOL     OW46677  11.866   5.840   9.304
81613SOL    HW146678  11.910   5.863   9.386
81613SOL    HW246679  11.799   5.907   9.292
81614SOL     OW46680   8.893  10.763   9.608
81614SOL    HW146681   8.949  10.837   9.631
81614SOL    HW246682   8.952  10.699   9.568
81615SOL     OW46683  10.573  11.763   7.338
81615SOL    HW146684  10.644  11.735   7.280
81615SOL    HW246685  10.597  11.728   7.424
81616SOL     OW46686   4.773   4.057  14.708
81616SOL    HW146687   4.682   4.046  14.736
81616SOL    HW246688   4.775   4.145  14.671
81617SOL     OW46689   1.697  13.084   0.208
81617SOL    HW146690   1.714  13.127   0.292
81617SOL    HW246691   1.673  13.156   0.149
81618SOL     OW46692   3.982   9.320   7.803
81618SOL    HW146693   3.976   9.356   7.714
81618SOL    HW246694   4.018   9.232   7.791
81619SOL     OW46695  11.762   7.702  10.530
81619SOL    HW146696  11.765   7.609  10.507
81619SOL    HW246697  11.689   7.737  10.478
81620SOL     OW46698   6.476   1.020   9.487
81620SOL    HW146699   6.527   0.943   9.461
81620SOL    HW246700   6.447   1.001   9.577
81621SOL     OW46701   1.231   6.955  14.157
81621SOL    HW146702   1.277   7.002  14.088
81621SOL    HW246703   1.280   6.874  14.169
81622SOL     OW46704  14.260   7.697   2.962
81622SOL    HW146705  14.174   7.697   3.004
81622SOL    HW246706  14.240   7.690   2.869
81623SOL     OW46707   9.332  14.244  13.177
81623SOL    HW146708   9.290  14.158  13.186
81623SOL    HW246709   9.318  14.268  13.085
81624SOL     OW46710   9.868  11.956   3.933
81624SOL    HW146711   9.895  12.030   3.879
81624SOL    HW246712   9.780  11.979   3.963
81625SOL     OW46713   6.219   6.755   7.819
81625SOL    HW146714   6.271   6.833   7.837
81625SOL    HW246715   6.149   6.785   7.761
81626SOL     OW46716  14.320   8.968  11.456
81626SOL    HW146717  14.271   9.050  11.457
81626SOL    HW246718  14.403   8.988  11.499
81627SOL     OW46719   2.543  10.246   4.893
81627SOL    HW146720   2.485  10.171   4.904
81627SOL    HW246721   2.605  10.240   4.966
81628SOL     OW46722   4.920  13.735   5.434
81628SOL    HW146723   4.978  13.676   5.386
81628SOL    HW246724   4.890  13.683   5.509
81629SOL     OW46725   8.110  12.484  12.816
81629SOL    HW146726   8.028  12.444  12.843
81629SOL    HW246727   8.100  12.576  12.840
81630SOL     OW46728  12.604   3.814   8.017
81630SOL    HW146729  12.586   3.723   7.994
81630SOL    HW246730  12.517   3.854   8.026
81631SOL     OW46731   8.370  11.024  12.551
81631SOL    HW146732   8.309  10.989  12.486
81631SOL    HW246733   8.446  11.052  12.501
81632SOL     OW46734   4.290  11.821   8.900
81632SOL    HW146735   4.261  11.735   8.871
81632SOL    HW246736   4.227  11.882   8.861
81633SOL     OW46737   5.501   4.072   9.263
81633SOL    HW146738   5.406   4.071   9.251
81633SOL    HW246739   5.531   3.986   9.233
81634SOL     OW46740   2.553   3.488   5.223
81634SOL    HW146741   2.621   3.422   5.207
81634SOL    HW246742   2.583   3.565   5.176
81635SOL     OW46743   3.553   0.051   3.461
81635SOL    HW146744   3.586   0.099   3.385
81635SOL    HW246745   3.631   0.012   3.501
81636SOL     OW46746  13.757   9.801  10.617
81636SOL    HW146747  13.680   9.819  10.672
81636SOL    HW246748  13.762   9.876  10.558
81637SOL     OW46749   9.464   2.306   0.418
81637SOL    HW146750   9.494   2.371   0.354
81637SOL    HW246751   9.527   2.235   0.412
81638SOL     OW46752   9.154   4.746  12.822
81638SOL    HW146753   9.122   4.699  12.898
81638SOL    HW246754   9.082   4.803  12.796
81639SOL     OW46755   1.120  13.009   0.032
81639SOL    HW146756   1.187  13.072   0.008
81639SOL    HW246757   1.140  12.931  14.854
81640SOL     OW46758   7.562   4.497  12.614
81640SOL    HW146759   7.544   4.403  12.618
81640SOL    HW246760   7.488   4.534  12.566
81641SOL     OW46761   6.778  12.232  13.887
81641SOL    HW146762   6.796  12.262  13.975
81641SOL    HW246763   6.809  12.141  13.885
81642SOL     OW46764  11.337  14.764  11.062
81642SOL    HW146765  11.353  14.679  11.101
81642SOL    HW246766  11.263  14.750  11.003
81643SOL     OW46767   4.872  13.847   2.191
81643SOL    HW146768   4.809  13.777   2.172
81643SOL    HW246769   4.928  13.851   2.113
81644SOL     OW46770  11.295   3.136  12.194
81644SOL    HW146771  11.305   3.061  12.136
81644SOL    HW246772  11.356   3.201  12.160
81645SOL     OW46773   7.594   4.096   0.828
81645SOL    HW146774   7.573   4.040   0.903
81645SOL    HW246775   7.672   4.056   0.790
81646SOL     OW46776  11.005  12.002   0.006
81646SOL    HW146777  10.999  11.911   0.037
81646SOL    HW246778  11.076  12.040   0.057
81647SOL     OW46779   1.905   3.775   8.073
81647SOL    HW146780   1.941   3.696   8.113
81647SOL    HW246781   1.981   3.818   8.033
81648SOL     OW46782  13.704  12.830   2.358
81648SOL    HW146783  13.653  12.778   2.421
81648SOL    HW246784  13.646  12.903   2.337
81649SOL     OW46785  13.280  14.293   1.525
81649SOL    HW146786  13.332  14.373   1.513
81649SOL    HW246787  13.224  14.313   1.600
81650SOL     OW46788   8.616   9.576  13.300
81650SOL    HW146789   8.703   9.595  13.265
81650SOL    HW246790   8.557   9.628  13.246
81651SOL     OW46791   5.537   0.297  11.641
81651SOL    HW146792   5.570   0.274  11.728
81651SOL    HW246793   5.453   0.251  11.633
81652SOL     OW46794  13.120   7.033   5.303
81652SOL    HW146795  13.095   6.966   5.239
81652SOL    HW246796  13.082   7.002   5.386
81653SOL     OW46797   5.257  13.377   7.990
81653SOL    HW146798   5.323  13.380   8.059
81653SOL    HW246799   5.176  13.404   8.032
81654SOL     OW46800   3.935   5.542   6.860
81654SOL    HW146801   3.966   5.633   6.864
81654SOL    HW246802   3.974   5.507   6.780
81655SOL     OW46803   8.163   7.013   2.251
81655SOL    HW146804   8.161   7.013   2.347
81655SOL    HW246805   8.256   7.025   2.229
81656SOL     OW46806  14.335  11.111   0.822
81656SOL    HW146807  14.305  11.060   0.898
81656SOL    HW246808  14.279  11.080   0.750
81657SOL     OW46809   2.361   9.558   3.115
81657SOL    HW146810   2.427   9.492   3.093
81657SOL    HW246811   2.397   9.640   3.082
81658SOL     OW46812   6.938  11.761   7.013
81658SOL    HW146813   6.994  11.809   6.953
81658SOL    HW246814   6.977  11.674   7.019
81659SOL     OW46815  14.398   5.149   4.340
81659SOL    HW146816  14.458   5.222   4.325
81659SOL    HW246817  14.454   5.076   4.367
81660SOL     OW46818   2.942  13.156   8.326
81660SOL    HW146819   2.860  13.204   8.312
81660SOL    HW246820   3.006  13.200   8.270
81661SOL     OW46821   6.877   8.112   4.489
81661SOL    HW146822   6.803   8.109   4.550
81661SOL    HW246823   6.847   8.167   4.417
81662SOL     OW46824  10.314  10.264  11.356
81662SOL    HW146825  10.382  10.200  11.332
81662SOL    HW246826  10.241  10.210  11.386
81663SOL     OW46827  10.382   0.302   9.229
81663SOL    HW146828  10.325   0.336   9.298
81663SOL    HW246829  10.469   0.334   9.254
81664SOL     OW46830   7.309   4.273  14.381
81664SOL    HW146831   7.395   4.310  14.362
81664SOL    HW246832   7.311   4.185  14.344
81665SOL     OW46833  12.503   7.226  13.668
81665SOL    HW146834  12.428   7.210  13.726
81665SOL    HW246835  12.465   7.225  13.580
81666SOL     OW46836   4.691   3.106   6.746
81666SOL    HW146837   4.728   3.025   6.710
81666SOL    HW246838   4.743   3.123   6.824
81667SOL     OW46839   2.697  12.141  11.039
81667SOL    HW146840   2.790  12.132  11.059
81667SOL    HW246841   2.676  12.231  11.064
81668SOL     OW46842   1.986  10.671   1.542
81668SOL    HW146843   2.072  10.659   1.502
81668SOL    HW246844   2.003  10.677   1.636
81669SOL     OW46845   7.451  12.687  11.307
81669SOL    HW146846   7.361  12.702  11.278
81669SOL    HW246847   7.484  12.775  11.327
81670SOL     OW46848   8.908  13.247  10.034
81670SOL    HW146849   8.856  13.301  10.094
81670SOL    HW246850   8.999  13.268  10.057
81671SOL     OW46851   1.822   2.355   7.584
81671SOL    HW146852   1.740   2.403   7.572
81671SOL    HW246853   1.840   2.317   7.498
81672SOL     OW46854   2.743   5.523  10.598
81672SOL    HW146855   2.654   5.557  10.591
81672SOL    HW246856   2.762   5.487  10.512
81673SOL     OW46857  12.934   3.204   0.696
81673SOL    HW146858  12.841   3.224   0.692
81673SOL    HW246859  12.939   3.109   0.683
81674SOL     OW46860  10.367  13.129  14.610
81674SOL    HW146861  10.309  13.061  14.575
81674SOL    HW246862  10.416  13.085  14.679
81675SOL     OW46863   6.135   2.381  11.595
81675SOL    HW146864   6.228   2.360  11.607
81675SOL    HW246865   6.126   2.396  11.501
81676SOL     OW46866   4.637  13.620  12.161
81676SOL    HW146867   4.587  13.545  12.127
81676SOL    HW246868   4.684  13.585  12.236
81677SOL     OW46869   8.473  13.104   7.728
81677SOL    HW146870   8.539  13.068   7.788
81677SOL    HW246871   8.499  13.073   7.642
81678SOL     OW46872   6.607  13.877  10.525
81678SOL    HW146873   6.594  13.789  10.490
81678SOL    HW246874   6.654  13.864  10.607
81679SOL     OW46875  13.096   4.955  13.753
81679SOL    HW146876  13.051   5.039  13.744
81679SOL    HW246877  13.178   4.967  13.707
81680SOL     OW46878   7.515   6.139   3.282
81680SOL    HW146879   7.446   6.174   3.338
81680SOL    HW246880   7.548   6.062   3.329
81681SOL     OW46881  11.130  10.897   8.064
81681SOL    HW146882  11.187  10.972   8.046
81681SOL    HW246883  11.189  10.830   8.099
81682SOL     OW46884   8.467  12.727   8.758
81682SOL    HW146885   8.392  12.785   8.767
81682SOL    HW246886   8.514  12.760   8.681
81683SOL     OW46887   5.994  10.676   9.554
81683SOL    HW146888   6.029  10.591   9.529
81683SOL    HW246889   5.951  10.709   9.475
81684SOL     OW46890  10.274   4.095  14.715
81684SOL    HW146891  10.235   4.019  14.757
81684SOL    HW246892  10.339   4.127  14.778
81685SOL     OW46893   6.581   6.779   7.172
81685SOL    HW146894   6.501   6.781   7.119
81685SOL    HW246895   6.646   6.825   7.120
81686SOL     OW46896  12.129  11.528  10.353
81686SOL    HW146897  12.180  11.498  10.278
81686SOL    HW246898  12.186  11.510  10.428
81687SOL     OW46899  11.149   6.146  11.035
81687SOL    HW146900  11.066   6.183  11.067
81687SOL    HW246901  11.171   6.201  10.960
81688SOL     OW46902   1.912   8.347   6.815
81688SOL    HW146903   1.914   8.254   6.837
81688SOL    HW246904   1.819   8.368   6.809
81689SOL     OW46905  10.530  13.597   3.074
81689SOL    HW146906  10.567  13.682   3.052
81689SOL    HW246907  10.487  13.611   3.159
81690SOL     OW46908  12.605   9.817  12.970
81690SOL    HW146909  12.580   9.864  13.049
81690SOL    HW246910  12.557   9.860  12.899
81691SOL     OW46911  12.837   3.046  14.788
81691SOL    HW146912  12.815   2.974  14.729
81691SOL    HW246913  12.794   3.023  14.870
81692SOL     OW46914  10.656   4.375   9.776
81692SOL    HW146915  10.653   4.378   9.872
81692SOL    HW246916  10.749   4.370   9.755
81693SOL     OW46917   2.924  10.023   8.609
81693SOL    HW146918   2.920   9.964   8.685
81693SOL    HW246919   2.877   9.976   8.540
81694SOL     OW46920   4.794   7.137   5.197
81694SOL    HW146921   4.889   7.142   5.194
81694SOL    HW246922   4.775   7.049   5.230
81695SOL     OW46923   9.598  12.808   1.514
81695SOL    HW146924   9.634  12.720   1.511
81695SOL    HW246925   9.545  12.815   1.435
81696SOL     OW46926   1.721   2.213   0.643
81696SOL    HW146927   1.693   2.296   0.603
81696SOL    HW246928   1.648   2.153   0.626
81697SOL     OW46929  10.001   7.535   0.520
81697SOL    HW146930   9.949   7.580   0.586
81697SOL    HW246931  10.029   7.454   0.561
81698SOL     OW46932   9.478   8.466  10.716
81698SOL    HW146933   9.428   8.547  10.728
81698SOL    HW246934   9.438   8.405  10.777
81699SOL     OW46935   3.560   3.287   5.938
81699SOL    HW146936   3.600   3.337   6.009
81699SOL    HW246937   3.489   3.343   5.907
81700SOL     OW46938   9.921  13.184  10.970
81700SOL    HW146939   9.919  13.278  10.954
81700SOL    HW246940   9.852  13.148  10.915
81701SOL     OW46941  10.954   2.809   2.053
81701SOL    HW146942  11.032   2.865   2.062
81701SOL    HW246943  10.881   2.870   2.048
81702SOL     OW46944   0.002   1.011   4.699
81702SOL    HW146945  14.836   0.998   4.785
81702SOL    HW246946   0.049   0.929   4.682
81703SOL     OW46947   3.065  13.741   6.201
81703SOL    HW146948   3.103  13.693   6.274
81703SOL    HW246949   2.993  13.686   6.170
81704SOL     OW46950   0.631  11.143  11.356
81704SOL    HW146951   0.695  11.156  11.286
81704SOL    HW246952   0.669  11.072  11.409
81705SOL     OW46953   2.303  10.798   4.872
81705SOL    HW146954   2.216  10.836   4.885
81705SOL    HW246955   2.305  10.721   4.929
81706SOL     OW46956   3.270  11.966   7.826
81706SOL    HW146957   3.295  11.889   7.774
81706SOL    HW246958   3.225  11.929   7.902
81707SOL     OW46959   3.674  13.012  13.554
81707SOL    HW146960   3.735  12.938  13.550
81707SOL    HW246961   3.620  12.995  13.632
81708SOL     OW46962  13.700   6.286   6.696
81708SOL    HW146963  13.739   6.334   6.622
81708SOL    HW246964  13.724   6.336   6.773
81709SOL     OW46965   6.235   3.834  12.786
81709SOL    HW146966   6.300   3.870  12.845
81709SOL    HW246967   6.176   3.783  12.843
81710SOL     OW46968   8.516  13.940   7.384
81710SOL    HW146969   8.539  13.869   7.444
81710SOL    HW246970   8.467  14.002   7.438
81711SOL     OW46971  14.624  10.733   0.908
81711SOL    HW146972  14.588  10.646   0.893
81711SOL    HW246973  14.590  10.786   0.836
81712SOL     OW46974  12.891  10.600   0.731
81712SOL    HW146975  12.913  10.515   0.691
81712SOL    HW246976  12.918  10.665   0.666
81713SOL     OW46977   4.722   2.585   4.613
81713SOL    HW146978   4.667   2.663   4.619
81713SOL    HW246979   4.726   2.566   4.519
81714SOL     OW46980  10.777  13.614   1.181
81714SOL    HW146981  10.729  13.670   1.120
81714SOL    HW246982  10.710  13.564   1.226
81715SOL     OW46983   3.562   8.860   1.063
81715SOL    HW146984   3.540   8.791   1.002
81715SOL    HW246985   3.576   8.938   1.009
81716SOL     OW46986   1.409   3.967   4.907
81716SOL    HW146987   1.390   3.996   4.996
81716SOL    HW246988   1.328   3.983   4.859
81717SOL     OW46989   0.781   3.434   3.323
81717SOL    HW146990   0.713   3.383   3.366
81717SOL    HW246991   0.840   3.461   3.394
81718SOL     OW46992   0.851   6.985   1.170
81718SOL    HW146993   0.840   6.982   1.075
81718SOL    HW246994   0.870   6.895   1.195
81719SOL     OW46995  12.956   7.498   9.371
81719SOL    HW146996  12.938   7.509   9.465
81719SOL    HW246997  13.051   7.506   9.365
81720SOL     OW46998  11.987  12.610  10.825
81720SOL    HW146999  12.054  12.547  10.853
81720SOL    HW247000  12.031  12.664  10.759
81721SOL     OW47001   2.576   9.636  14.666
81721SOL    HW147002   2.560   9.690  14.743
81721SOL    HW247003   2.529   9.680  14.595
81722SOL     OW47004   0.890   2.818   6.732
81722SOL    HW147005   0.984   2.813   6.717
81722SOL    HW247006   0.857   2.732   6.708
81723SOL     OW47007   9.512   5.983   0.784
81723SOL    HW147008   9.557   6.051   0.835
81723SOL    HW247009   9.456   5.938   0.848
81724SOL     OW47010   1.301   5.128   6.797
81724SOL    HW147011   1.227   5.070   6.783
81724SOL    HW247012   1.372   5.089   6.746
81725SOL     OW47013   7.507   8.894  13.366
81725SOL    HW147014   7.588   8.879  13.317
81725SOL    HW247015   7.480   8.983  13.341
81726SOL     OW47016   9.428   1.842   1.005
81726SOL    HW147017   9.390   1.927   0.982
81726SOL    HW247018   9.354   1.781   1.002
81727SOL     OW47019   3.777   9.198   3.067
81727SOL    HW147020   3.706   9.163   3.122
81727SOL    HW247021   3.763   9.159   2.981
81728SOL     OW47022   8.872  10.089   6.479
81728SOL    HW147023   8.788  10.063   6.438
81728SOL    HW247024   8.936  10.030   6.439
81729SOL     OW47025   5.948   6.786   8.616
81729SOL    HW147026   6.042   6.785   8.599
81729SOL    HW247027   5.909   6.750   8.537
81730SOL     OW47028   7.553   2.470   2.016
81730SOL    HW147029   7.590   2.543   2.066
81730SOL    HW247030   7.462   2.495   2.000
81731SOL     OW47031  12.140   9.446   1.964
81731SOL    HW147032  12.126   9.492   2.046
81731SOL    HW247033  12.215   9.489   1.924
81732SOL     OW47034   2.952  10.899   4.490
81732SOL    HW147035   3.013  10.952   4.438
81732SOL    HW247036   3.006  10.830   4.527
81733SOL     OW47037   4.775   9.760   9.432
81733SOL    HW147038   4.853   9.795   9.389
81733SOL    HW247039   4.712   9.747   9.361
81734SOL     OW47040  11.167   4.338   2.018
81734SOL    HW147041  11.125   4.408   2.067
81734SOL    HW247042  11.148   4.258   2.068
81735SOL     OW47043   1.822   7.188   6.025
81735SOL    HW147044   1.881   7.208   5.952
81735SOL    HW247045   1.849   7.248   6.095
81736SOL     OW47046   7.416   3.154   5.675
81736SOL    HW147047   7.417   3.238   5.628
81736SOL    HW247048   7.324   3.127   5.673
81737SOL     OW47049   7.257  12.935   0.812
81737SOL    HW147050   7.347  12.946   0.841
81737SOL    HW247051   7.263  12.912   0.720
81738SOL     OW47052   6.977   5.379  13.930
81738SOL    HW147053   7.072   5.385  13.923
81738SOL    HW247054   6.950   5.467  13.957
81739SOL     OW47055   9.162  11.272  14.724
81739SOL    HW147056   9.194  11.338  14.786
81739SOL    HW247057   9.222  11.277  14.650
81740SOL     OW47058  13.155  13.624   0.684
81740SOL    HW147059  13.112  13.559   0.740
81740SOL    HW247060  13.145  13.706   0.731
81741SOL     OW47061   1.458   7.104  14.651
81741SOL    HW147062   1.396   7.171  14.621
81741SOL    HW247063   1.541   7.149  14.660
81742SOL     OW47064   2.713  13.785  12.169
81742SOL    HW147065   2.665  13.743  12.241
81742SOL    HW247066   2.656  13.857  12.142
81743SOL     OW47067  14.580   3.132  14.501
81743SOL    HW147068  14.495   3.156  14.537
81743SOL    HW247069  14.578   3.036  14.499
81744SOL     OW47070  10.265  14.783   7.305
81744SOL    HW147071  10.183  14.789   7.255
81744SOL    HW247072  10.263  14.859   7.363
81745SOL     OW47073   2.933   8.621  10.279
81745SOL    HW147074   2.990   8.577  10.341
81745SOL    HW247075   2.971   8.603  10.193
81746SOL     OW47076   9.733   2.557   2.779
81746SOL    HW147077   9.673   2.510   2.837
81746SOL    HW247078   9.718   2.649   2.798
81747SOL     OW47079  12.470  12.907   5.112
81747SOL    HW147080  12.448  12.995   5.083
81747SOL    HW247081  12.392  12.877   5.159
81748SOL     OW47082   2.140  10.752   9.809
81748SOL    HW147083   2.116  10.664   9.835
81748SOL    HW247084   2.060  10.788   9.770
81749SOL     OW47085   7.023  11.356  13.398
81749SOL    HW147086   7.025  11.329  13.490
81749SOL    HW247087   7.115  11.365  13.374
81750SOL     OW47088  13.069   5.786   9.096
81750SOL    HW147089  13.158   5.819   9.103
81750SOL    HW247090  13.078   5.698   9.061
81751SOL     OW47091   1.528   3.486   0.721
81751SOL    HW147092   1.606   3.432   0.713
81751SOL    HW247093   1.560   3.575   0.730
81752SOL     OW47094   3.234  13.065  13.303
81752SOL    HW147095   3.173  13.100  13.239
81752SOL    HW247096   3.305  13.027  13.250
81753SOL     OW47097  14.094  12.552   9.255
81753SOL    HW147098  14.165  12.582   9.311
81753SOL    HW247099  14.016  12.555   9.312
81754SOL     OW47100  12.251  12.924   4.773
81754SOL    HW147101  12.323  12.903   4.713
81754SOL    HW247102  12.172  12.920   4.719
81755SOL     OW47103   8.080   5.483  12.349
81755SOL    HW147104   8.083   5.501  12.443
81755SOL    HW247105   8.038   5.560  12.311
81756SOL     OW47106  11.823   4.533   2.667
81756SOL    HW147107  11.882   4.467   2.631
81756SOL    HW247108  11.736   4.496   2.654
81757SOL     OW47109  11.756   0.105   5.366
81757SOL    HW147110  11.797   0.181   5.407
81757SOL    HW247111  11.721   0.138   5.284
81758SOL     OW47112  11.332  13.439  10.209
81758SOL    HW147113  11.335  13.346  10.228
81758SOL    HW247114  11.274  13.446  10.133
81759SOL     OW47115   7.036  11.779   0.686
81759SOL    HW147116   6.996  11.698   0.656
81759SOL    HW247117   7.111  11.793   0.628
81760SOL     OW47118   3.875   0.167   9.441
81760SOL    HW147119   3.835   0.253   9.429
81760SOL    HW247120   3.898   0.164   9.534
81761SOL     OW47121  14.182   5.752   6.205
81761SOL    HW147122  14.236   5.696   6.260
81761SOL    HW247123  14.100   5.761   6.253
81762SOL     OW47124   8.006   7.462  11.998
81762SOL    HW147125   7.973   7.406  12.068
81762SOL    HW247126   7.981   7.418  11.917
81763SOL     OW47127   0.682  10.412   3.493
81763SOL    HW147128   0.656  10.413   3.585
81763SOL    HW247129   0.766  10.368   3.492
81764SOL     OW47130   8.998  14.103   5.071
81764SOL    HW147131   9.006  14.105   5.167
81764SOL    HW247132   8.985  14.010   5.050
81765SOL     OW47133   2.049  14.765   4.714
81765SOL    HW147134   2.008  14.807   4.789
81765SOL    HW247135   2.141  14.793   4.718
81766SOL     OW47136  12.196  13.946   0.093
81766SOL    HW147137  12.176  13.939   0.186
81766SOL    HW247138  12.189  13.856   0.060
81767SOL     OW47139  12.861   7.335   6.671
81767SOL    HW147140  12.792   7.315   6.734
81767SOL    HW247141  12.899   7.250   6.649
81768SOL     OW47142  10.726   7.482   3.192
81768SOL    HW147143  10.758   7.568   3.222
81768SOL    HW247144  10.635   7.498   3.168
81769SOL     OW47145  11.432   1.674  11.836
81769SOL    HW147146  11.459   1.583  11.827
81769SOL    HW247147  11.338   1.672  11.819
81770SOL     OW47148   0.184   2.165  10.058
81770SOL    HW147149   0.210   2.081  10.095
81770SOL    HW247150   0.211   2.229  10.123
81771SOL     OW47151  14.648   8.101  14.012
81771SOL    HW147152  14.627   8.123  13.921
81771SOL    HW247153  14.700   8.174  14.044
81772SOL     OW47154   9.913   6.400   6.115
81772SOL    HW147155  10.008   6.390   6.121
81772SOL    HW247156   9.878   6.314   6.136
81773SOL     OW47157   1.375  14.714   2.180
81773SOL    HW147158   1.345  14.656   2.111
81773SOL    HW247159   1.459  14.747   2.148
81774SOL     OW47160  13.660   5.293  11.230
81774SOL    HW147161  13.573   5.282  11.269
81774SOL    HW247162  13.676   5.210  11.185
81775SOL     OW47163   9.508   0.466   6.519
81775SOL    HW147164   9.541   0.534   6.461
81775SOL    HW247165   9.586   0.420   6.548
81776SOL     OW47166  12.439   6.511  13.683
81776SOL    HW147167  12.399   6.540  13.765
81776SOL    HW247168  12.469   6.422  13.701
81777SOL     OW47169   9.714   6.762   1.918
81777SOL    HW147170   9.738   6.677   1.880
81777SOL    HW247171   9.618   6.758   1.924
81778SOL     OW47172   0.782  10.908   4.977
81778SOL    HW147173   0.862  10.935   4.932
81778SOL    HW247174   0.769  10.816   4.952
81779SOL     OW47175   4.361   4.267   4.342
81779SOL    HW147176   4.300   4.258   4.416
81779SOL    HW247177   4.436   4.315   4.378
81780SOL     OW47178   5.655   7.778   9.360
81780SOL    HW147179   5.649   7.683   9.357
81780SOL    HW247180   5.669   7.805   9.269
81781SOL     OW47181   6.086   6.929   0.991
81781SOL    HW147182   6.008   6.981   1.013
81781SOL    HW247183   6.159   6.990   1.001
81782SOL     OW47184   6.380  12.903   9.799
81782SOL    HW147185   6.452  12.884   9.860
81782SOL    HW247186   6.380  12.829   9.738
81783SOL     OW47187  14.843   2.440   4.600
81783SOL    HW147188  14.818   2.523   4.560
81783SOL    HW247189  14.834   2.376   4.529
81784SOL     OW47190   2.715   2.376  13.593
81784SOL    HW147191   2.647   2.314  13.566
81784SOL    HW247192   2.784   2.365  13.529
81785SOL     OW47193  12.497   5.027   6.655
81785SOL    HW147194  12.543   5.019   6.738
81785SOL    HW247195  12.509   5.118   6.628
81786SOL     OW47196   2.620  12.392   9.044
81786SOL    HW147197   2.635  12.486   9.049
81786SOL    HW247198   2.530  12.384   9.012
81787SOL     OW47199  14.706   0.331   2.589
81787SOL    HW147200  14.618   0.302   2.567
81787SOL    HW247201  14.695   0.421   2.620
81788SOL     OW47202  13.465  11.389   5.075
81788SOL    HW147203  13.374  11.372   5.100
81788SOL    HW247204  13.516  11.339   5.138
81789SOL     OW47205   1.091   3.579   1.387
81789SOL    HW147206   1.117   3.515   1.321
81789SOL    HW247207   1.173   3.619   1.416
81790SOL     OW47208   1.297   9.597   0.458
81790SOL    HW147209   1.260   9.514   0.427
81790SOL    HW247210   1.231   9.631   0.519
81791SOL     OW47211   1.041   2.108  12.749
81791SOL    HW147212   1.079   2.127  12.835
81791SOL    HW247213   0.994   2.188  12.725
81792SOL     OW47214   5.647  13.039  11.196
81792SOL    HW147215   5.684  13.011  11.280
81792SOL    HW247216   5.697  13.117  11.172
81793SOL     OW47217  10.737   2.912  13.836
81793SOL    HW147218  10.797   2.860  13.783
81793SOL    HW247219  10.713   2.855  13.909
81794SOL     OW47220  10.303   7.168  14.513
81794SOL    HW147221  10.296   7.079  14.547
81794SOL    HW247222  10.397   7.184  14.508
81795SOL     OW47223   4.272   3.891  10.167
81795SOL    HW147224   4.337   3.822  10.167
81795SOL    HW247225   4.232   3.888  10.254
81796SOL     OW47226  11.688   9.144   3.527
81796SOL    HW147227  11.716   9.060   3.563
81796SOL    HW247228  11.732   9.150   3.442
81797SOL     OW47229   6.110  13.841   1.176
81797SOL    HW147230   6.125  13.746   1.173
81797SOL    HW247231   6.138  13.872   1.090
81798SOL     OW47232  14.380   9.963   9.648
81798SOL    HW147233  14.355   9.873   9.629
81798SOL    HW247234  14.400  10.001   9.562
81799SOL     OW47235   9.729  12.573   1.511
81799SOL    HW147236   9.823  12.552   1.517
81799SOL    HW247237   9.706  12.553   1.420
81800SOL     OW47238   3.808   4.348   1.685
81800SOL    HW147239   3.778   4.369   1.773
81800SOL    HW247240   3.812   4.253   1.682
81801SOL     OW47241  10.389   6.824   0.456
81801SOL    HW147242  10.396   6.739   0.413
81801SOL    HW247243  10.305   6.859   0.426
81802SOL     OW47244  11.290   0.771  14.465
81802SOL    HW147245  11.271   0.758  14.372
81802SOL    HW247246  11.264   0.862  14.482
81803SOL     OW47247  10.120   0.232  12.540
81803SOL    HW147248  10.123   0.254  12.634
81803SOL    HW247249  10.058   0.159  12.535
81804SOL     OW47250   0.499  14.673   5.196
81804SOL    HW147251   0.581  14.666   5.244
81804SOL    HW247252   0.507  14.754   5.146
81805SOL     OW47253  14.313   8.388   2.812
81805SOL    HW147254  14.221   8.391   2.786
81805SOL    HW247255  14.319   8.451   2.884
81806SOL     OW47256   5.126  13.868  13.942
81806SOL    HW147257   5.169  13.943  13.901
81806SOL    HW247258   5.093  13.903  14.025
81807SOL     OW47259  10.050   2.734   2.187
81807SOL    HW147260   9.956   2.739   2.170
81807SOL    HW247261  10.084   2.820   2.165
81808SOL     OW47262  12.735   3.618  10.820
81808SOL    HW147263  12.695   3.556  10.880
81808SOL    HW247264  12.683   3.612  10.740
81809SOL     OW47265   5.559  10.488  10.523
81809SOL    HW147266   5.653  10.488  10.505
81809SOL    HW247267   5.537  10.580  10.540
81810SOL     OW47268   1.316   9.461   0.727
81810SOL    HW147269   1.377   9.479   0.655
81810SOL    HW247270   1.256   9.536   0.726
81811SOL     OW47271   5.599  10.282  10.713
81811SOL    HW147272   5.539  10.355  10.694
81811SOL    HW247273   5.654  10.276  10.635
81812SOL     OW47274   8.323  10.998   1.428
81812SOL    HW147275   8.247  10.951   1.395
81812SOL    HW247276   8.293  11.036   1.511
81813SOL     OW47277   0.206   9.513   0.887
81813SOL    HW147278   0.236   9.456   0.816
81813SOL    HW247279   0.285   9.527   0.940
81814SOL     OW47280   7.878   1.363   4.493
81814SOL    HW147281   7.933   1.341   4.568
81814SOL    HW247282   7.935   1.414   4.436
81815SOL     OW47283   4.341   0.905   8.544
81815SOL    HW147284   4.364   0.815   8.524
81815SOL    HW247285   4.247   0.903   8.561
81816SOL     OW47286  13.062   8.024   0.064
81816SOL    HW147287  13.055   8.116   0.089
81816SOL    HW247288  12.979   7.985   0.089
81817SOL     OW47289   9.896   5.356   4.118
81817SOL    HW147290   9.960   5.410   4.166
81817SOL    HW247291   9.817   5.409   4.116
81818SOL     OW47292   0.151  12.745   7.491
81818SOL    HW147293   0.153  12.835   7.458
81818SOL    HW247294   0.238  12.710   7.470
81819SOL     OW47295   0.280   1.032   5.269
81819SOL    HW147296   0.367   1.071   5.267
81819SOL    HW247297   0.288   0.955   5.325
81820SOL     OW47298   8.111  12.317  14.787
81820SOL    HW147299   8.175  12.285  14.723
81820SOL    HW247300   8.038  12.256  14.780
81821SOL     OW47301  14.590  10.777   1.357
81821SOL    HW147302  14.663  10.790   1.296
81821SOL    HW247303  14.521  10.835   1.324
81822SOL     OW47304   7.599   7.395   4.136
81822SOL    HW147305   7.568   7.305   4.147
81822SOL    HW247306   7.519   7.445   4.116
81823SOL     OW47307  10.054  14.376   9.268
81823SOL    HW147308  10.023  14.450   9.320
81823SOL    HW247309  10.136  14.407   9.229
81824SOL     OW47310  14.398   2.868   2.448
81824SOL    HW147311  14.324   2.879   2.508
81824SOL    HW247312  14.357   2.851   2.363
81825SOL     OW47313   9.211  14.603  14.157
81825SOL    HW147314   9.197  14.548  14.233
81825SOL    HW247315   9.256  14.680  14.191
81826SOL     OW47316  14.223   7.736   7.266
81826SOL    HW147317  14.241   7.736   7.172
81826SOL    HW247318  14.143   7.787   7.275
81827SOL     OW47319   9.849  10.184  12.372
81827SOL    HW147320   9.940  10.167  12.347
81827SOL    HW247321   9.854  10.257  12.434
81828SOL     OW47322   2.296  14.166   3.346
81828SOL    HW147323   2.385  14.160   3.380
81828SOL    HW247324   2.246  14.105   3.400
81829SOL     OW47325  13.700   6.022   4.076
81829SOL    HW147326  13.661   6.060   4.154
81829SOL    HW247327  13.775   5.972   4.109
81830SOL     OW47328  10.471   8.296   1.622
81830SOL    HW147329  10.406   8.350   1.578
81830SOL    HW247330  10.450   8.304   1.715
81831SOL     OW47331  14.779   5.325   3.384
81831SOL    HW147332  14.870   5.300   3.404
81831SOL    HW247333  14.729   5.244   3.399
81832SOL     OW47334   4.318   4.742   3.399
81832SOL    HW147335   4.285   4.661   3.438
81832SOL    HW247336   4.272   4.812   3.445
81833SOL     OW47337   2.714   8.011   2.612
81833SOL    HW147338   2.662   7.990   2.690
81833SOL    HW247339   2.714   8.106   2.609
81834SOL     OW47340   0.308   3.658   7.794
81834SOL    HW147341   0.385   3.644   7.849
81834SOL    HW247342   0.324   3.742   7.751
81835SOL     OW47343   2.519   0.275   8.890
81835SOL    HW147344   2.440   0.221   8.894
81835SOL    HW247345   2.548   0.282   8.981
81836SOL     OW47346   9.977  13.731  10.235
81836SOL    HW147347  10.057  13.758  10.280
81836SOL    HW247348   9.982  13.636  10.231
81837SOL     OW47349  12.636  13.240  13.008
81837SOL    HW147350  12.726  13.265  12.988
81837SOL    HW247351  12.641  13.197  13.093
81838SOL     OW47352  11.324   6.442   1.008
81838SOL    HW147353  11.356   6.458   0.919
81838SOL    HW247354  11.289   6.353   1.005
81839SOL     OW47355  11.586  12.017  10.314
81839SOL    HW147356  11.547  12.105  10.317
81839SOL    HW247357  11.575  11.989  10.223
81840SOL     OW47358  12.902  14.806   5.242
81840SOL    HW147359  12.975  14.754   5.275
81840SOL    HW247360  12.847  14.743   5.194
81841SOL     OW47361  10.883   8.013   3.555
81841SOL    HW147362  10.796   7.977   3.571
81841SOL    HW247363  10.870   8.081   3.489
81842SOL     OW47364   4.833   1.550   9.625
81842SOL    HW147365   4.808   1.563   9.533
81842SOL    HW247366   4.764   1.594   9.675
81843SOL     OW47367   2.895   6.361   0.223
81843SOL    HW147368   2.935   6.294   0.167
81843SOL    HW247369   2.875   6.433   0.164
81844SOL     OW47370   7.751  11.314  12.427
81844SOL    HW147371   7.726  11.222  12.438
81844SOL    HW247372   7.795  11.317  12.343
81845SOL     OW47373   8.569   6.510   4.410
81845SOL    HW147374   8.561   6.548   4.498
81845SOL    HW247375   8.603   6.582   4.356
81846SOL     OW47376   7.675   0.712   6.538
81846SOL    HW147377   7.683   0.645   6.470
81846SOL    HW247378   7.583   0.712   6.562
81847SOL     OW47379   5.915  13.129   7.683
81847SOL    HW147380   6.010  13.125   7.676
81847SOL    HW247381   5.894  13.080   7.762
81848SOL     OW47382   5.342  11.732  14.527
81848SOL    HW147383   5.324  11.813  14.479
81848SOL    HW247384   5.324  11.754  14.618
81849SOL     OW47385   7.049   6.910   6.142
81849SOL    HW147386   7.122   6.927   6.082
81849SOL    HW247387   7.084   6.934   6.228
81850SOL     OW47388   2.260   3.454   2.851
81850SOL    HW147389   2.197   3.429   2.918
81850SOL    HW247390   2.317   3.518   2.893
81851SOL     OW47391   6.765   0.325  13.796
81851SOL    HW147392   6.670   0.333  13.800
81851SOL    HW247393   6.792   0.311  13.887
81852SOL     OW47394   0.421   4.070   6.879
81852SOL    HW147395   0.466   4.039   6.800
81852SOL    HW247396   0.401   4.162   6.860
81853SOL     OW47397  14.103   8.025   3.634
81853SOL    HW147398  14.035   8.012   3.568
81853SOL    HW247399  14.181   7.986   3.594
81854SOL     OW47400  10.773   1.021   3.380
81854SOL    HW147401  10.847   0.988   3.431
81854SOL    HW247402  10.710   0.948   3.380
81855SOL     OW47403   4.880   9.255   7.906
81855SOL    HW147404   4.922   9.178   7.868
81855SOL    HW247405   4.895   9.247   8.000
81856SOL     OW47406   6.578   4.727  11.630
81856SOL    HW147407   6.652   4.786  11.643
81856SOL    HW247408   6.612   4.659  11.571
81857SOL     OW47409  12.436  12.779  10.833
81857SOL    HW147410  12.435  12.691  10.794
81857SOL    HW247411  12.447  12.838  10.759
81858SOL     OW47412   6.669   7.771   9.330
81858SOL    HW147413   6.737   7.839   9.334
81858SOL    HW247414   6.586   7.819   9.336
81859SOL     OW47415   0.005  14.433   4.793
81859SOL    HW147416   0.091  14.426   4.835
81859SOL    HW247417  14.817  14.410   4.862
81860SOL     OW47418  11.586   5.141   3.586
81860SOL    HW147419  11.564   5.142   3.679
81860SOL    HW247420  11.556   5.226   3.553
81861SOL     OW47421  14.201  11.931   9.478
81861SOL    HW147422  14.158  11.965   9.557
81861SOL    HW247423  14.152  11.970   9.405
81862SOL     OW47424  14.190   1.960  12.124
81862SOL    HW147425  14.176   2.012  12.045
81862SOL    HW247426  14.115   1.902  12.128
81863SOL     OW47427  12.516  13.636   0.148
81863SOL    HW147428  12.528  13.543   0.168
81863SOL    HW247429  12.432  13.659   0.189
81864SOL     OW47430   6.692  14.131  12.409
81864SOL    HW147431   6.706  14.089  12.495
81864SOL    HW247432   6.646  14.212  12.429
81865SOL     OW47433   0.868  13.241   8.326
81865SOL    HW147434   0.856  13.318   8.271
81865SOL    HW247435   0.780  13.219   8.356
81866SOL     OW47436   8.666   4.903   3.331
81866SOL    HW147437   8.712   4.983   3.307
81866SOL    HW247438   8.658   4.854   3.249
81867SOL     OW47439   7.087   4.910  11.724
81867SOL    HW147440   7.114   4.825  11.690
81867SOL    HW247441   7.141   4.973  11.677
81868SOL     OW47442  12.395   8.708  10.000
81868SOL    HW147443  12.360   8.793   9.975
81868SOL    HW247444  12.330   8.672  10.060
81869SOL     OW47445  11.365   7.272  13.701
81869SOL    HW147446  11.303   7.342  13.721
81869SOL    HW247447  11.312   7.192  13.699
81870SOL     OW47448   7.756   1.741   4.996
81870SOL    HW147449   7.717   1.739   5.084
81870SOL    HW247450   7.685   1.772   4.940
81871SOL     OW47451   4.889   7.716   7.238
81871SOL    HW147452   4.963   7.747   7.187
81871SOL    HW247453   4.927   7.687   7.321
81872SOL     OW47454   0.420   9.163  14.552
81872SOL    HW147455   0.325   9.157  14.554
81872SOL    HW247456   0.440   9.210  14.471
81873SOL     OW47457  12.705   6.725  12.770
81873SOL    HW147458  12.654   6.806  12.773
81873SOL    HW247459  12.706   6.695  12.861
81874SOL     OW47460   3.305   7.644   5.641
81874SOL    HW147461   3.284   7.693   5.561
81874SOL    HW247462   3.227   7.652   5.696
81875SOL     OW47463  14.655  13.021   4.507
81875SOL    HW147464  14.611  12.990   4.585
81875SOL    HW247465  14.606  12.982   4.434
81876SOL     OW47466  12.381  10.896   4.883
81876SOL    HW147467  12.447  10.840   4.923
81876SOL    HW247468  12.413  10.911   4.794
81877SOL     OW47469   0.010   7.846   2.121
81877SOL    HW147470  14.872   7.794   2.041
81877SOL    HW247471   0.104   7.847   2.135
81878SOL     OW47472   3.400  14.264  10.787
81878SOL    HW147473   3.320  14.305  10.753
81878SOL    HW247474   3.397  14.175  10.752
81879SOL     OW47475  10.302   9.917  11.332
81879SOL    HW147476  10.288   9.824  11.349
81879SOL    HW247477  10.396   9.924  11.315
81880SOL     OW47478   9.936   1.989   6.653
81880SOL    HW147479   9.922   2.084   6.644
81880SOL    HW247480   9.867   1.949   6.600
81881SOL     OW47481   6.983   8.171  14.516
81881SOL    HW147482   6.902   8.153  14.469
81881SOL    HW247483   6.978   8.264  14.538
81882SOL     OW47484  10.170  12.866   8.468
81882SOL    HW147485  10.106  12.855   8.539
81882SOL    HW247486  10.123  12.840   8.389
81883SOL     OW47487  13.922   0.231   3.050
81883SOL    HW147488  13.992   0.190   3.000
81883SOL    HW247489  13.966   0.299   3.101
81884SOL     OW47490   2.111   6.755   8.855
81884SOL    HW147491   2.189   6.734   8.803
81884SOL    HW247492   2.144   6.801   8.932
81885SOL     OW47493   4.335  11.501  11.894
81885SOL    HW147494   4.310  11.461  11.977
81885SOL    HW247495   4.408  11.559  11.916
81886SOL     OW47496  14.305   3.057   2.957
81886SOL    HW147497  14.213   3.073   2.935
81886SOL    HW247498  14.334   3.138   2.999
81887SOL     OW47499   7.273   6.366  12.948
81887SOL    HW147500   7.335   6.343  12.879
81887SOL    HW247501   7.198   6.307  12.933
81888SOL     OW47502   7.687   1.747   4.104
81888SOL    HW147503   7.758   1.685   4.083
81888SOL    HW247504   7.648   1.768   4.019
81889SOL     OW47505  11.068   1.891   6.569
81889SOL    HW147506  11.118   1.811   6.581
81889SOL    HW247507  10.989   1.878   6.621
81890SOL     OW47508  12.256   4.179   5.908
81890SOL    HW147509  12.207   4.162   5.989
81890SOL    HW247510  12.347   4.188   5.937
81891SOL     OW47511   0.023   1.622   8.313
81891SOL    HW147512  14.817   1.572   8.296
81891SOL    HW247513   0.053   1.649   8.227
81892SOL     OW47514   3.270  11.897   5.835
81892SOL    HW147515   3.350  11.944   5.859
81892SOL    HW247516   3.206  11.923   5.902
81893SOL     OW47517  11.753   6.038   3.006
81893SOL    HW147518  11.822   6.008   2.946
81893SOL    HW247519  11.754   6.133   2.997
81894SOL     OW47520  14.014  11.755  12.528
81894SOL    HW147521  13.974  11.668  12.534
81894SOL    HW247522  14.022  11.784  12.619
81895SOL     OW47523   0.321   6.144   5.231
81895SOL    HW147524   0.318   6.078   5.301
81895SOL    HW247525   0.231   6.179   5.228
81896SOL     OW47526  14.515  14.777   5.059
81896SOL    HW147527  14.546  14.718   4.991
81896SOL    HW247528  14.594  14.810   5.100
81897SOL     OW47529   8.352   9.315   8.286
81897SOL    HW147530   8.425   9.361   8.327
81897SOL    HW247531   8.344   9.234   8.335
81898SOL     OW47532  11.559   9.160   9.674
81898SOL    HW147533  11.474   9.201   9.657
81898SOL    HW247534  11.546   9.109   9.754
81899SOL     OW47535  12.897   0.769   1.241
81899SOL    HW147536  12.878   0.778   1.334
81899SOL    HW247537  12.978   0.818   1.228
81900SOL     OW47538   3.693  10.734   5.098
81900SOL    HW147539   3.693  10.638   5.092
81900SOL    HW247540   3.729  10.763   5.015
81901SOL     OW47541   4.023  12.988  11.147
81901SOL    HW147542   4.087  12.990  11.076
81901SOL    HW247543   3.957  13.053  11.122
81902SOL     OW47544   9.297   9.588   1.261
81902SOL    HW147545   9.328   9.656   1.321
81902SOL    HW247546   9.358   9.515   1.274
81903SOL     OW47547  10.273   4.761  11.668
81903SOL    HW147548  10.332   4.836  11.670
81903SOL    HW247549  10.253   4.749  11.575
81904SOL     OW47550  12.484   1.996   3.795
81904SOL    HW147551  12.509   1.929   3.860
81904SOL    HW247552  12.391   2.013   3.813
81905SOL     OW47553   1.929  14.363  10.377
81905SOL    HW147554   1.963  14.441  10.421
81905SOL    HW247555   1.998  14.298  10.386
81906SOL     OW47556   3.985  11.863  12.575
81906SOL    HW147557   4.030  11.781  12.556
81906SOL    HW247558   3.953  11.853  12.665
81907SOL     OW47559   8.812  12.045   5.644
81907SOL    HW147560   8.783  12.123   5.692
81907SOL    HW247561   8.799  11.973   5.706
81908SOL     OW47562   9.368  11.329  11.362
81908SOL    HW147563   9.433  11.285  11.417
81908SOL    HW247564   9.414  11.406  11.328
81909SOL     OW47565  12.644   6.751   7.854
81909SOL    HW147566  12.628   6.818   7.787
81909SOL    HW247567  12.641   6.668   7.806
81910SOL     OW47568   5.423  10.441   6.175
81910SOL    HW147569   5.442  10.356   6.214
81910SOL    HW247570   5.430  10.503   6.248
81911SOL     OW47571  13.339  12.320   1.467
81911SOL    HW147572  13.274  12.272   1.415
81911SOL    HW247573  13.353  12.265   1.544
81912SOL     OW47574   3.435   6.532   3.412
81912SOL    HW147575   3.518   6.564   3.447
81912SOL    HW247576   3.370   6.556   3.478
81913SOL     OW47577   3.238   6.248  10.844
81913SOL    HW147578   3.178   6.283  10.909
81913SOL    HW247579   3.200   6.272  10.759
81914SOL     OW47580   6.726   1.793   5.488
81914SOL    HW147581   6.742   1.726   5.554
81914SOL    HW247582   6.632   1.808   5.490
81915SOL     OW47583  11.794   5.117   4.156
81915SOL    HW147584  11.743   5.178   4.208
81915SOL    HW247585  11.741   5.037   4.154
81916SOL     OW47586   6.124   5.713   7.280
81916SOL    HW147587   6.114   5.713   7.375
81916SOL    HW247588   6.218   5.708   7.266
81917SOL     OW47589   1.900   9.390  14.737
81917SOL    HW147590   1.901   9.450  14.662
81917SOL    HW247591   1.886   9.304  14.698
81918SOL     OW47592   9.733   7.673   9.094
81918SOL    HW147593   9.697   7.756   9.126
81918SOL    HW247594   9.710   7.609   9.162
81919SOL     OW47595   6.709  13.264   0.851
81919SOL    HW147596   6.766  13.331   0.890
81919SOL    HW247597   6.733  13.263   0.759
81920SOL     OW47598   2.500   9.737  11.395
81920SOL    HW147599   2.518   9.807  11.458
81920SOL    HW247600   2.549   9.762  11.317
81921SOL     OW47601   3.280  11.042   5.598
81921SOL    HW147602   3.203  11.080   5.555
81921SOL    HW247603   3.345  11.035   5.528
81922SOL     OW47604   5.173  11.001  12.303
81922SOL    HW147605   5.165  11.087  12.343
81922SOL    HW247606   5.104  10.998  12.237
81923SOL     OW47607   0.474   9.501   8.273
81923SOL    HW147608   0.422   9.456   8.338
81923SOL    HW247609   0.418   9.505   8.195
81924SOL     OW47610   4.397   1.748   2.607
81924SOL    HW147611   4.478   1.789   2.636
81924SOL    HW247612   4.363   1.806   2.539
81925SOL     OW47613   3.979   5.846  10.439
81925SOL    HW147614   3.986   5.803  10.354
81925SOL    HW247615   3.928   5.786  10.493
81926SOL     OW47616   1.214   0.126   5.404
81926SOL    HW147617   1.186   0.043   5.364
81926SOL    HW247618   1.136   0.181   5.402
81927SOL     OW47619   6.334   3.070  10.050
81927SOL    HW147620   6.310   2.978  10.049
81927SOL    HW247621   6.259   3.114  10.091
81928SOL     OW47622   5.211   1.536   5.504
81928SOL    HW147623   5.195   1.578   5.419
81928SOL    HW247624   5.132   1.484   5.520
81929SOL     OW47625  13.360  10.755   0.696
81929SOL    HW147626  13.451  10.728   0.710
81929SOL    HW247627  13.349  10.832   0.753
81930SOL     OW47628  10.608  11.760   8.793
81930SOL    HW147629  10.648  11.689   8.743
81930SOL    HW247630  10.679  11.795   8.847
81931SOL     OW47631   6.741   4.207   3.531
81931SOL    HW147632   6.766   4.209   3.623
81931SOL    HW247633   6.824   4.194   3.484
81932SOL     OW47634   0.231   0.558   8.826
81932SOL    HW147635   0.232   0.651   8.849
81932SOL    HW247636   0.145   0.544   8.785
81933SOL     OW47637   3.483   7.627   3.437
81933SOL    HW147638   3.506   7.570   3.510
81933SOL    HW247639   3.545   7.699   3.443
81934SOL     OW47640   3.312   4.312   2.029
81934SOL    HW147641   3.261   4.232   2.013
81934SOL    HW247642   3.273   4.350   2.107
81935SOL     OW47643   2.792   8.369   9.577
81935SOL    HW147644   2.765   8.417   9.500
81935SOL    HW247645   2.879   8.334   9.555
81936SOL     OW47646   5.749  10.870   8.741
81936SOL    HW147647   5.816  10.829   8.796
81936SOL    HW247648   5.778  10.961   8.731
81937SOL     OW47649   6.600  12.007  13.601
81937SOL    HW147650   6.509  11.979  13.586
81937SOL    HW247651   6.610  12.006  13.696
81938SOL     OW47652   8.159  10.945  10.993
81938SOL    HW147653   8.133  10.853  10.996
81938SOL    HW247654   8.187  10.965  11.082
81939SOL     OW47655   4.350   8.996   2.655
81939SOL    HW147656   4.297   9.063   2.611
81939SOL    HW247657   4.326   9.004   2.748
81940SOL     OW47658   4.961   2.566   1.932
81940SOL    HW147659   4.988   2.643   1.882
81940SOL    HW247660   4.961   2.495   1.867
81941SOL     OW47661   4.122   4.903   3.900
81941SOL    HW147662   4.040   4.857   3.917
81941SOL    HW247663   4.106   4.954   3.821
81942SOL     OW47664   2.595   5.959   4.495
81942SOL    HW147665   2.634   5.938   4.580
81942SOL    HW247666   2.523   5.897   4.485
81943SOL     OW47667   9.371  14.732   9.189
81943SOL    HW147668   9.388  14.781   9.109
81943SOL    HW247669   9.342  14.645   9.158
81944SOL     OW47670   3.752   2.698   7.512
81944SOL    HW147671   3.743   2.614   7.556
81944SOL    HW247672   3.663   2.730   7.502
81945SOL     OW47673   2.577   8.965   1.872
81945SOL    HW147674   2.639   9.030   1.838
81945SOL    HW247675   2.560   8.994   1.962
81946SOL     OW47676   8.789   2.982  10.570
81946SOL    HW147677   8.871   2.955  10.610
81946SOL    HW247678   8.773   3.070  10.604
81947SOL     OW47679   5.255   6.101  14.333
81947SOL    HW147680   5.335   6.154  14.326
81947SOL    HW247681   5.243   6.062  14.246
81948SOL     OW47682  12.335   5.927   2.077
81948SOL    HW147683  12.317   6.015   2.111
81948SOL    HW247684  12.417   5.937   2.028
81949SOL     OW47685   6.578   0.607   2.768
81949SOL    HW147686   6.522   0.563   2.833
81949SOL    HW247687   6.520   0.622   2.693
81950SOL     OW47688   2.656   5.649   7.867
81950SOL    HW147689   2.623   5.685   7.949
81950SOL    HW247690   2.594   5.579   7.845
81951SOL     OW47691   0.376  12.349  12.469
81951SOL    HW147692   0.338  12.411  12.407
81951SOL    HW247693   0.324  12.359  12.549
81952SOL     OW47694   0.115   3.450  10.346
81952SOL    HW147695   0.053   3.387  10.309
81952SOL    HW247696   0.201   3.410  10.331
81953SOL     OW47697   8.087   8.007   2.012
81953SOL    HW147698   8.162   8.046   1.968
81953SOL    HW247699   8.038   7.963   1.942
81954SOL     OW47700   0.080  11.823   6.556
81954SOL    HW147701   0.033  11.743   6.535
81954SOL    HW247702   0.019  11.894   6.535
81955SOL     OW47703   2.315   7.257   6.804
81955SOL    HW147704   2.347   7.296   6.722
81955SOL    HW247705   2.391   7.259   6.862
81956SOL     OW47706   3.030   2.440  13.035
81956SOL    HW147707   3.024   2.361  13.089
81956SOL    HW247708   3.007   2.511  13.094
81957SOL     OW47709   0.755   1.040   1.798
81957SOL    HW147710   0.670   1.044   1.754
81957SOL    HW247711   0.788   0.952   1.779
81958SOL     OW47712   4.065   7.976   7.699
81958SOL    HW147713   4.052   7.883   7.720
81958SOL    HW247714   4.153   7.996   7.730
81959SOL     OW47715  14.867   1.679   2.821
81959SOL    HW147716  14.847   1.669   2.914
81959SOL    HW247717  14.856   1.592   2.784
81960SOL     OW47718  11.882   8.998   2.481
81960SOL    HW147719  11.958   8.986   2.424
81960SOL    HW247720  11.807   9.001   2.421
81961SOL     OW47721  12.193   6.938   8.646
81961SOL    HW147722  12.131   6.950   8.574
81961SOL    HW247723  12.178   6.848   8.677
81962SOL     OW47724   0.578   7.698  11.034
81962SOL    HW147725   0.587   7.639  11.108
81962SOL    HW247726   0.601   7.644  10.958
81963SOL     OW47727  10.242   4.319   5.937
81963SOL    HW147728  10.244   4.414   5.926
81963SOL    HW247729  10.284   4.303   6.021
81964SOL     OW47730  14.745  12.524   2.911
81964SOL    HW147731  14.840  12.526   2.916
81964SOL    HW247732  14.723  12.592   2.847
81965SOL     OW47733   7.903  11.416  12.997
81965SOL    HW147734   7.931  11.418  13.088
81965SOL    HW247735   7.810  11.393  13.001
81966SOL     OW47736  11.225   9.259   5.893
81966SOL    HW147737  11.183   9.282   5.810
81966SOL    HW247738  11.267   9.175   5.877
81967SOL     OW47739  14.107   9.831   5.215
81967SOL    HW147740  14.118   9.779   5.295
81967SOL    HW247741  14.024   9.876   5.227
81968SOL     OW47742   1.958   1.037  10.564
81968SOL    HW147743   2.048   1.063  10.581
81968SOL    HW247744   1.906   1.115  10.584
81969SOL     OW47745  12.521   3.044  14.518
81969SOL    HW147746  12.467   2.975  14.478
81969SOL    HW247747  12.610   3.022  14.493
81970SOL     OW47748   9.390  12.182   5.232
81970SOL    HW147749   9.460  12.119   5.213
81970SOL    HW247750   9.381  12.232   5.151
81971SOL     OW47751  10.536   4.210  11.110
81971SOL    HW147752  10.585   4.141  11.065
81971SOL    HW247753  10.461   4.228  11.054
81972SOL     OW47754   5.699   7.106   9.095
81972SOL    HW147755   5.772   7.043   9.093
81972SOL    HW247756   5.658   7.092   9.180
81973SOL     OW47757   2.707   2.248   2.618
81973SOL    HW147758   2.735   2.179   2.678
81973SOL    HW247759   2.788   2.295   2.596
81974SOL     OW47760   8.000  12.771  11.895
81974SOL    HW147761   8.069  12.818  11.849
81974SOL    HW247762   7.968  12.707  11.832
81975SOL     OW47763   2.662   6.776   0.708
81975SOL    HW147764   2.665   6.681   0.718
81975SOL    HW247765   2.753   6.801   0.690
81976SOL     OW47766   0.484  13.511   9.740
81976SOL    HW147767   0.430  13.448   9.788
81976SOL    HW247768   0.503  13.580   9.804
81977SOL     OW47769  13.926  12.107  10.443
81977SOL    HW147770  14.004  12.055  10.465
81977SOL    HW247771  13.957  12.197  10.442
81978SOL     OW47772   6.137   3.388   3.724
81978SOL    HW147773   6.177   3.401   3.638
81978SOL    HW247774   6.155   3.470   3.771
81979SOL     OW47775   3.680   1.195   5.095
81979SOL    HW147776   3.711   1.266   5.040
81979SOL    HW247777   3.593   1.222   5.124
81980SOL     OW47778   8.566  12.343  14.028
81980SOL    HW147779   8.493  12.318  14.084
81980SOL    HW247780   8.529  12.406  13.966
81981SOL     OW47781   5.266   8.449   6.139
81981SOL    HW147782   5.297   8.540   6.144
81981SOL    HW247783   5.327   8.399   6.193
81982SOL     OW47784   3.571   2.084  13.867
81982SOL    HW147785   3.542   2.124  13.785
81982SOL    HW247786   3.554   2.151  13.933
81983SOL     OW47787   4.721   6.251   3.502
81983SOL    HW147788   4.697   6.166   3.539
81983SOL    HW247789   4.697   6.315   3.569
81984SOL     OW47790   8.584   7.312   3.522
81984SOL    HW147791   8.679   7.307   3.509
81984SOL    HW247792   8.564   7.405   3.509
81985SOL     OW47793   3.565  10.642   6.248
81985SOL    HW147794   3.534  10.564   6.293
81985SOL    HW247795   3.632  10.679   6.305
81986SOL     OW47796   3.453   1.444   9.252
81986SOL    HW147797   3.394   1.508   9.212
81986SOL    HW247798   3.400   1.365   9.262
81987SOL     OW47799   7.902   2.064   1.595
81987SOL    HW147800   7.881   2.040   1.505
81987SOL    HW247801   7.977   2.008   1.618
81988SOL     OW47802   0.831   4.564   3.507
81988SOL    HW147803   0.785   4.508   3.570
81988SOL    HW247804   0.886   4.620   3.562
81989SOL     OW47805  13.866  14.251   9.122
81989SOL    HW147806  13.821  14.335   9.118
81989SOL    HW247807  13.905  14.249   9.209
81990SOL     OW47808   6.724   9.294   9.925
81990SOL    HW147809   6.646   9.271   9.977
81990SOL    HW247810   6.713   9.244   9.844
81991SOL     OW47811   6.253  11.648   6.294
81991SOL    HW147812   6.279  11.739   6.277
81991SOL    HW247813   6.168  11.654   6.336
81992SOL     OW47814  11.950   8.327   8.499
81992SOL    HW147815  11.935   8.324   8.404
81992SOL    HW247816  11.914   8.245   8.532
81993SOL     OW47817  13.444   9.037   6.782
81993SOL    HW147818  13.522   8.981   6.787
81993SOL    HW247819  13.468   9.104   6.717
81994SOL     OW47820   8.724  10.164   7.695
81994SOL    HW147821   8.641  10.211   7.706
81994SOL    HW247822   8.786  10.213   7.750
81995SOL     OW47823   5.513  11.457  11.821
81995SOL    HW147824   5.464  11.538  11.835
81995SOL    HW247825   5.585  11.483  11.764
81996SOL     OW47826   6.553   7.374   4.925
81996SOL    HW147827   6.639   7.405   4.896
81996SOL    HW247828   6.556   7.279   4.913
81997SOL     OW47829   4.280  10.097   1.524
81997SOL    HW147830   4.201  10.058   1.563
81997SOL    HW247831   4.334  10.120   1.600
81998SOL     OW47832   0.916  10.194  12.904
81998SOL    HW147833   0.917  10.103  12.934
81998SOL    HW247834   0.973  10.240  12.966
81999SOL     OW47835  12.501   8.135  11.142
81999SOL    HW147836  12.511   8.154  11.236
81999SOL    HW247837  12.416   8.174  11.120
82000SOL     OW47838   3.599   9.344  14.471
82000SOL    HW147839   3.521   9.399  14.485
82000SOL    HW247840   3.642   9.383  14.395
82001SOL     OW47841   1.354   1.392  12.780
82001SOL    HW147842   1.411   1.457  12.738
82001SOL    HW247843   1.272   1.398  12.731
82002SOL     OW47844   1.988   9.656  11.157
82002SOL    HW147845   2.075   9.684  11.183
82002SOL    HW247846   1.978   9.569  11.194
82003SOL     OW47847   5.364   9.041   1.478
82003SOL    HW147848   5.304   8.969   1.456
82003SOL    HW247849   5.403   9.016   1.562
82004SOL     OW47850  10.580   5.967   8.556
82004SOL    HW147851  10.562   6.054   8.521
82004SOL    HW247852  10.521   5.959   8.631
82005SOL     OW47853   6.886  10.355   6.401
82005SOL    HW147854   6.909  10.418   6.470
82005SOL    HW247855   6.907  10.401   6.319
82006SOL     OW47856   7.943   9.780   5.674
82006SOL    HW147857   7.914   9.712   5.734
82006SOL    HW247858   8.036   9.792   5.693
82007SOL     OW47859   3.629   6.058   7.119
82007SOL    HW147860   3.646   6.058   7.214
82007SOL    HW247861   3.611   6.150   7.098
82008SOL     OW47862   9.631   0.767   4.050
82008SOL    HW147863   9.555   0.708   4.055
82008SOL    HW247864   9.681   0.735   3.974
82009SOL     OW47865  13.465   9.659  12.885
82009SOL    HW147866  13.410   9.729  12.921
82009SOL    HW247867  13.435   9.650  12.795
82010SOL     OW47868   5.570   1.847   1.546
82010SOL    HW147869   5.551   1.937   1.519
82010SOL    HW247870   5.641   1.855   1.609
82011SOL     OW47871   8.511   3.482   9.830
82011SOL    HW147872   8.488   3.396   9.866
82011SOL    HW247873   8.558   3.462   9.749
82012SOL     OW47874  12.728   7.151  11.289
82012SOL    HW147875  12.660   7.106  11.340
82012SOL    HW247876  12.682   7.222  11.245
82013SOL     OW47877   2.576  10.080   7.689
82013SOL    HW147878   2.566  10.113   7.779
82013SOL    HW247879   2.545  10.152   7.634
82014SOL     OW47880   5.005   8.676   2.604
82014SOL    HW147881   5.032   8.599   2.654
82014SOL    HW247882   5.087   8.712   2.570
82015SOL     OW47883   0.178  14.479   0.929
82015SOL    HW147884   0.100  14.464   0.982
82015SOL    HW247885   0.220  14.556   0.968
82016SOL     OW47886   3.162  11.305  14.695
82016SOL    HW147887   3.196  11.310  14.784
82016SOL    HW247888   3.194  11.385  14.653
82017SOL     OW47889   6.097  11.202   2.003
82017SOL    HW147890   6.142  11.117   2.003
82017SOL    HW247891   6.011  11.183   1.966
82018SOL     OW47892  12.566   6.452   0.793
82018SOL    HW147893  12.505   6.391   0.834
82018SOL    HW247894  12.525   6.475   0.710
82019SOL     OW47895  12.661  13.550  11.979
82019SOL    HW147896  12.756  13.547  11.971
82019SOL    HW247897  12.632  13.461  11.957
82020SOL     OW47898  12.508  12.742   4.162
82020SOL    HW147899  12.516  12.673   4.096
82020SOL    HW247900  12.444  12.709   4.225
82021SOL     OW47901   0.709   1.455   3.108
82021SOL    HW147902   0.744   1.544   3.107
82021SOL    HW247903   0.665   1.445   3.024
82022SOL     OW47904  11.894   7.695  13.163
82022SOL    HW147905  11.865   7.614  13.121
82022SOL    HW247906  11.899   7.759  13.091
82023SOL     OW47907   4.715   4.855  10.305
82023SOL    HW147908   4.760   4.895  10.379
82023SOL    HW247909   4.698   4.765  10.334
82024SOL     OW47910   5.819  12.259   9.923
82024SOL    HW147911   5.902  12.245   9.878
82024SOL    HW247912   5.825  12.348   9.958
82025SOL     OW47913   0.892  14.397   6.012
82025SOL    HW147914   0.819  14.454   5.987
82025SOL    HW247915   0.957  14.409   5.944
82026SOL     OW47916   9.055   4.082  14.251
82026SOL    HW147917   9.050   4.118  14.340
82026SOL    HW247918   9.149   4.084  14.231
82027SOL     OW47919  13.872   6.298  12.834
82027SOL    HW147920  13.814   6.298  12.758
82027SOL    HW247921  13.954   6.333  12.801
82028SOL     OW47922  12.376   2.811  14.460
82028SOL    HW147923  12.461   2.775  14.485
82028SOL    HW247924  12.331   2.739  14.415
82029SOL     OW47925   6.711   8.914   3.883
82029SOL    HW147926   6.679   8.824   3.874
82029SOL    HW247927   6.741   8.919   3.974
82030SOL     OW47928   9.650   3.609   4.068
82030SOL    HW147929   9.694   3.531   4.100
82030SOL    HW247930   9.648   3.669   4.143
82031SOL     OW47931   4.226  13.118  13.247
82031SOL    HW147932   4.174  13.065  13.186
82031SOL    HW247933   4.185  13.205  13.242
82032SOL     OW47934  10.101  10.733  11.749
82032SOL    HW147935  10.059  10.818  11.740
82032SOL    HW247936  10.085  10.689  11.665
82033SOL     OW47937  14.431  12.438   2.994
82033SOL    HW147938  14.391  12.401   2.916
82033SOL    HW247939  14.524  12.447   2.972
82034SOL     OW47940  10.940   4.690   6.675
82034SOL    HW147941  10.856   4.650   6.696
82034SOL    HW247942  10.918   4.773   6.632
82035SOL     OW47943  12.707   4.739   1.083
82035SOL    HW147944  12.663   4.815   1.048
82035SOL    HW247945  12.676   4.665   1.030
82036SOL     OW47946  11.498   7.496   9.865
82036SOL    HW147947  11.438   7.433   9.904
82036SOL    HW247948  11.482   7.490   9.771
82037SOL     OW47949  11.257   9.490   3.497
82037SOL    HW147950  11.205   9.480   3.576
82037SOL    HW247951  11.321   9.419   3.502
82038SOL     OW47952  11.801   7.926   5.988
82038SOL    HW147953  11.793   7.852   6.048
82038SOL    HW247954  11.893   7.922   5.959
82039SOL     OW47955  11.403   6.723  10.358
82039SOL    HW147956  11.310   6.731  10.338
82039SOL    HW247957  11.447   6.758  10.281
82040SOL     OW47958  12.458  11.566   8.905
82040SOL    HW147959  12.468  11.571   8.810
82040SOL    HW247960  12.389  11.501   8.919
82041SOL     OW47961   9.136  13.836  10.347
82041SOL    HW147962   9.056  13.793  10.377
82041SOL    HW247963   9.191  13.841  10.426
82042SOL     OW47964  12.932  11.846   5.761
82042SOL    HW147965  13.026  11.860   5.772
82042SOL    HW247966  12.911  11.775   5.822
82043SOL     OW47967   6.728   4.161   8.770
82043SOL    HW147968   6.674   4.154   8.692
82043SOL    HW247969   6.773   4.245   8.761
82044SOL     OW47970   1.786   6.502   0.133
82044SOL    HW147971   1.873   6.536   0.156
82044SOL    HW247972   1.740   6.579   0.099
82045SOL     OW47973   2.852   5.486   0.382
82045SOL    HW147974   2.880   5.443   0.301
82045SOL    HW247975   2.759   5.506   0.367
82046SOL     OW47976   2.378   5.201   8.628
82046SOL    HW147977   2.448   5.156   8.676
82046SOL    HW247978   2.302   5.144   8.638
82047SOL     OW47979  12.089   6.336  11.472
82047SOL    HW147980  12.024   6.400  11.444
82047SOL    HW247981  12.057   6.302  11.555
82048SOL     OW47982   6.901   2.087   8.823
82048SOL    HW147983   6.913   2.098   8.918
82048SOL    HW247984   6.981   2.123   8.785
82049SOL     OW47985   3.959   3.076   2.983
82049SOL    HW147986   4.039   3.125   2.998
82049SOL    HW247987   3.983   2.985   2.997
82050SOL     OW47988  13.184  13.694   1.876
82050SOL    HW147989  13.216  13.682   1.965
82050SOL    HW247990  13.205  13.612   1.832
82051SOL     OW47991   5.520   1.527   1.753
82051SOL    HW147992   5.503   1.529   1.659
82051SOL    HW247993   5.474   1.603   1.788
82052SOL     OW47994   5.627   4.862   4.389
82052SOL    HW147995   5.561   4.905   4.443
82052SOL    HW247996   5.579   4.794   4.342
82053SOL     OW47997  14.868  10.732  11.010
82053SOL    HW147998   0.022  10.813  10.967
82053SOL    HW247999  14.829  10.760  11.093
82054SOL     OW48000   6.790  11.612   7.493
82054SOL    HW148001   6.856  11.667   7.534
82054SOL    HW248002   6.813  11.522   7.519
82055SOL     OW48003  13.957   3.254  12.324
82055SOL    HW148004  13.897   3.252  12.399
82055SOL    HW248005  14.026   3.192  12.347
82056SOL     OW48006   6.453   3.501   4.296
82056SOL    HW148007   6.445   3.450   4.377
82056SOL    HW248008   6.538   3.476   4.260
82057SOL     OW48009   9.961   3.775   5.379
82057SOL    HW148010   9.988   3.696   5.426
82057SOL    HW248011  10.016   3.777   5.301
82058SOL     OW48012   1.772   4.678  13.348
82058SOL    HW148013   1.833   4.609  13.376
82058SOL    HW248014   1.700   4.632  13.306
82059SOL     OW48015   8.111   2.111   5.817
82059SOL    HW148016   8.038   2.115   5.878
82059SOL    HW248017   8.169   2.044   5.852
82060SOL     OW48018   3.741   1.875   5.729
82060SOL    HW148019   3.747   1.961   5.689
82060SOL    HW248020   3.792   1.817   5.672
82061SOL     OW48021   9.660   8.929  14.641
82061SOL    HW148022   9.664   8.892  14.553
82061SOL    HW248023   9.737   8.893  14.686
82062SOL     OW48024   6.448  10.940   6.203
82062SOL    HW148025   6.384  11.000   6.163
82062SOL    HW248026   6.533  10.973   6.174
82063SOL     OW48027   1.937  10.679  10.372
82063SOL    HW148028   1.887  10.672  10.291
82063SOL    HW248029   1.890  10.623  10.434
82064SOL     OW48030   0.269   8.048   9.010
82064SOL    HW148031   0.320   8.091   8.942
82064SOL    HW248032   0.186   8.094   9.011
82065SOL     OW48033  10.753  10.363   4.160
82065SOL    HW148034  10.752  10.268   4.156
82065SOL    HW248035  10.700  10.385   4.237
82066SOL     OW48036  12.947   0.027  10.262
82066SOL    HW148037  12.859   0.027  10.299
82066SOL    HW248038  12.933   0.034  10.167
82067SOL     OW48039   0.259   0.300  10.346
82067SOL    HW148040   0.203   0.374  10.327
82067SOL    HW248041   0.330   0.336  10.399
82068SOL     OW48042  10.918   7.752  12.000
82068SOL    HW148043  10.898   7.828  11.946
82068SOL    HW248044  10.989   7.707  11.955
82069SOL     OW48045   6.490   1.399   9.422
82069SOL    HW148046   6.507   1.350   9.341
82069SOL    HW248047   6.503   1.491   9.397
82070SOL     OW48048   1.746   8.524  10.364
82070SOL    HW148049   1.825   8.556  10.409
82070SOL    HW248050   1.695   8.482  10.432
82071SOL     OW48051  14.325   4.464  12.646
82071SOL    HW148052  14.403   4.425  12.685
82071SOL    HW248053  14.357   4.542  12.601
82072SOL     OW48054  12.438  10.476  11.526
82072SOL    HW148055  12.462  10.500  11.437
82072SOL    HW248056  12.499  10.524  11.582
82073SOL     OW48057   1.011  11.099   0.349
82073SOL    HW148058   1.049  11.012   0.337
82073SOL    HW248059   1.085  11.159   0.340
82074SOL     OW48060   6.182   7.115   2.242
82074SOL    HW148061   6.157   7.038   2.191
82074SOL    HW248062   6.211   7.080   2.327
82075SOL     OW48063  11.098   6.875   5.410
82075SOL    HW148064  11.118   6.861   5.318
82075SOL    HW248065  11.063   6.792   5.440
82076SOL     OW48066   8.346   5.493  13.453
82076SOL    HW148067   8.301   5.535  13.527
82076SOL    HW248068   8.436   5.525  13.458
82077SOL     OW48069  13.208   6.108   9.958
82077SOL    HW148070  13.116   6.095   9.933
82077SOL    HW248071  13.255   6.112   9.875
82078SOL     OW48072  14.402   0.833   4.150
82078SOL    HW148073  14.431   0.871   4.233
82078SOL    HW248074  14.479   0.841   4.093
82079SOL     OW48075   6.134  14.454   4.414
82079SOL    HW148076   6.040  14.460   4.400
82079SOL    HW248077   6.155  14.527   4.472
82080SOL     OW48078   3.143   7.122   3.860
82080SOL    HW148079   3.135   7.035   3.822
82080SOL    HW248080   3.087   7.177   3.806
82081SOL     OW48081  11.505  13.805   8.026
82081SOL    HW148082  11.496  13.735   8.090
82081SOL    HW248083  11.428  13.861   8.041
82082SOL     OW48084   0.854  14.198   8.480
82082SOL    HW148085   0.821  14.124   8.531
82082SOL    HW248086   0.806  14.274   8.514
82083SOL     OW48087   7.160   8.876   5.304
82083SOL    HW148088   7.188   8.846   5.217
82083SOL    HW248089   7.202   8.961   5.315
82084SOL     OW48090   9.675   3.004  14.252
82084SOL    HW148091   9.704   3.071  14.191
82084SOL    HW248092   9.743   3.000  14.319
82085SOL     OW48093   2.615   8.317  11.006
82085SOL    HW148094   2.698   8.306  10.960
82085SOL    HW248095   2.623   8.402  11.050
82086SOL     OW48096  13.067   3.297   6.316
82086SOL    HW148097  13.097   3.380   6.279
82086SOL    HW248098  12.999   3.268   6.257
82087SOL     OW48099  10.836   5.121   1.488
82087SOL    HW148100  10.926   5.098   1.463
82087SOL    HW248101  10.783   5.049   1.455
82088SOL     OW48102  13.453   7.411   2.268
82088SOL    HW148103  13.480   7.502   2.281
82088SOL    HW248104  13.359   7.416   2.252
82089SOL     OW48105   1.694   8.676  12.223
82089SOL    HW148106   1.659   8.699  12.309
82089SOL    HW248107   1.715   8.583  12.229
82090SOL     OW48108   5.350  14.433   8.794
82090SOL    HW148109   5.387  14.348   8.819
82090SOL    HW248110   5.426  14.485   8.769
82091SOL     OW48111   3.903   8.722   4.937
82091SOL    HW148112   3.833   8.753   4.879
82091SOL    HW248113   3.878   8.752   5.024
82092SOL     OW48114   9.553  11.407   2.523
82092SOL    HW148115   9.606  11.341   2.569
82092SOL    HW248116   9.473  11.414   2.575
82093SOL     OW48117  14.114   4.332  12.250
82093SOL    HW148118  14.209   4.345  12.238
82093SOL    HW248119  14.106   4.296  12.339
82094SOL     OW48120  11.055   5.136  10.651
82094SOL    HW148121  11.036   5.179  10.567
82094SOL    HW248122  11.069   5.044  10.627
82095SOL     OW48123   9.026   9.571   1.762
82095SOL    HW148124   9.059   9.660   1.753
82095SOL    HW248125   8.931   9.579   1.747
82096SOL     OW48126   0.873   1.864  11.589
82096SOL    HW148127   0.904   1.834  11.504
82096SOL    HW248128   0.820   1.941  11.569
82097SOL     OW48129   5.394  13.230   9.726
82097SOL    HW148130   5.333  13.282   9.778
82097SOL    HW248131   5.473  13.283   9.722
82098SOL     OW48132   3.704  11.414  13.671
82098SOL    HW148133   3.650  11.371  13.738
82098SOL    HW248134   3.783  11.360  13.667
82099SOL     OW48135   7.291  11.325  11.574
82099SOL    HW148136   7.206  11.310  11.616
82099SOL    HW248137   7.330  11.396  11.626
82100SOL     OW48138   1.315  12.065  12.337
82100SOL    HW148139   1.273  12.112  12.409
82100SOL    HW248140   1.395  12.030  12.375
82101SOL     OW48141   0.377   3.990   9.461
82101SOL    HW148142   0.293   3.992   9.507
82101SOL    HW248143   0.354   3.958   9.373
82102SOL     OW48144  10.106   1.897   7.323
82102SOL    HW148145  10.067   1.853   7.248
82102SOL    HW248146  10.085   1.990   7.310
82103SOL     OW48147  11.125   3.689  10.261
82103SOL    HW148148  11.193   3.632  10.226
82103SOL    HW248149  11.168   3.774  10.275
82104SOL     OW48150  14.748  14.696   4.840
82104SOL    HW148151  14.815  14.764   4.840
82104SOL    HW248152  14.795  14.617   4.866
82105SOL     OW48153   8.646  14.734   7.376
82105SOL    HW148154   8.678  14.662   7.321
82105SOL    HW248155   8.724  14.765   7.422
82106SOL     OW48156  10.361   4.552   6.751
82106SOL    HW148157  10.307   4.525   6.677
82106SOL    HW248158  10.352   4.647   6.754
82107SOL     OW48159  14.118   5.464   6.751
82107SOL    HW148160  14.083   5.552   6.765
82107SOL    HW248161  14.042   5.412   6.726
82108SOL     OW48162   2.228   8.754  10.316
82108SOL    HW148163   2.152   8.756  10.257
82108SOL    HW248164   2.303   8.742  10.258
82109SOL     OW48165   8.188  12.581   3.848
82109SOL    HW148166   8.213  12.647   3.783
82109SOL    HW248167   8.223  12.614   3.931
82110SOL     OW48168   6.002   1.101  11.998
82110SOL    HW148169   5.946   1.128  11.925
82110SOL    HW248170   6.091   1.103  11.962
82111SOL     OW48171   7.092   2.026   6.464
82111SOL    HW148172   7.056   2.115   6.473
82111SOL    HW248173   7.016   1.969   6.471
82112SOL     OW48174   2.296   7.736   4.453
82112SOL    HW148175   2.230   7.799   4.423
82112SOL    HW248176   2.252   7.651   4.445
82113SOL     OW48177   6.292   6.866  10.055
82113SOL    HW148178   6.370   6.921  10.048
82113SOL    HW248179   6.310   6.807  10.128
82114SOL     OW48180   6.230   5.372  11.970
82114SOL    HW148181   6.229   5.424  11.890
82114SOL    HW248182   6.294   5.415  12.026
82115SOL     OW48183  13.115   1.009   1.084
82115SOL    HW148184  13.154   1.062   1.014
82115SOL    HW248185  13.025   1.040   1.090
82116SOL     OW48186   2.670   4.618  10.799
82116SOL    HW148187   2.651   4.597  10.891
82116SOL    HW248188   2.588   4.656  10.766
82117SOL     OW48189   8.455   7.709  12.193
82117SOL    HW148190   8.466   7.751  12.278
82117SOL    HW248191   8.361   7.691  12.188
82118SOL     OW48192  12.953  13.187   4.963
82118SOL    HW148193  12.881  13.212   4.906
82118SOL    HW248194  12.964  13.261   5.023
82119SOL     OW48195   4.967   2.613   4.195
82119SOL    HW148196   5.022   2.620   4.272
82119SOL    HW248197   4.878   2.620   4.228
82120SOL     OW48198   2.813   3.045   5.125
82120SOL    HW148199   2.726   3.076   5.099
82120SOL    HW248200   2.800   3.009   5.212
82121SOL     OW48201   3.796   8.657   2.727
82121SOL    HW148202   3.828   8.718   2.793
82121SOL    HW248203   3.816   8.699   2.643
82122SOL     OW48204  12.432   8.230  12.584
82122SOL    HW148205  12.486   8.263  12.511
82122SOL    HW248206  12.380   8.160  12.545
82123SOL     OW48207   3.665   4.381   8.149
82123SOL    HW148208   3.674   4.375   8.054
82123SOL    HW248209   3.572   4.399   8.163
82124SOL     OW48210  12.714  11.818   5.261
82124SOL    HW148211  12.686  11.744   5.316
82124SOL    HW248212  12.669  11.894   5.299
82125SOL     OW48213  12.296   1.973   7.197
82125SOL    HW148214  12.313   1.880   7.210
82125SOL    HW248215  12.278   2.007   7.284
82126SOL     OW48216  14.403   0.990  11.901
82126SOL    HW148217  14.408   1.012  11.808
82126SOL    HW248218  14.312   1.007  11.925
82127SOL     OW48219   1.535   3.175  13.952
82127SOL    HW148220   1.447   3.204  13.977
82127SOL    HW248221   1.542   3.086  13.986
82128SOL     OW48222   3.221  14.623   6.247
82128SOL    HW148223   3.305  14.660   6.220
82128SOL    HW248224   3.242  14.563   6.318
82129SOL     OW48225  11.253   4.951   3.650
82129SOL    HW148226  11.307   4.952   3.729
82129SOL    HW248227  11.304   4.900   3.587
82130SOL     OW48228  13.244  13.481  11.991
82130SOL    HW148229  13.294  13.420  12.045
82130SOL    HW248230  13.276  13.467  11.902
82131SOL     OW48231   3.874   8.359  14.055
82131SOL    HW148232   3.856   8.298  14.127
82131SOL    HW248233   3.964   8.340  14.029
82132SOL     OW48234  11.575  14.242   2.464
82132SOL    HW148235  11.552  14.238   2.371
82132SOL    HW248236  11.652  14.297   2.467
82133SOL     OW48237   3.585   9.991  13.132
82133SOL    HW148238   3.639   9.915  13.107
82133SOL    HW248239   3.519   9.997  13.063
82134SOL     OW48240   9.505  12.624   2.455
82134SOL    HW148241   9.459  12.708   2.461
82134SOL    HW248242   9.584  12.637   2.507
82135SOL     OW48243   3.175   5.503   6.715
82135SOL    HW148244   3.086   5.467   6.720
82135SOL    HW248245   3.189   5.541   6.802
82136SOL     OW48246   0.592   9.149   2.494
82136SOL    HW148247   0.627   9.185   2.575
82136SOL    HW248248   0.537   9.219   2.458
82137SOL     OW48249   0.716   6.654  12.843
82137SOL    HW148250   0.777   6.692  12.779
82137SOL    HW248251   0.634   6.701  12.829
82138SOL     OW48252   5.231  12.968   5.383
82138SOL    HW148253   5.304  12.908   5.399
82138SOL    HW248254   5.153  12.914   5.393
82139SOL     OW48255   5.072   4.029   6.248
82139SOL    HW148256   5.102   4.112   6.284
82139SOL    HW248257   5.138   4.006   6.183
82140SOL     OW48258  10.576  10.444  13.693
82140SOL    HW148259  10.613  10.413  13.610
82140SOL    HW248260  10.482  10.448  13.677
82141SOL     OW48261   7.188   5.126   5.336
82141SOL    HW148262   7.219   5.196   5.394
82141SOL    HW248263   7.200   5.046   5.387
82142SOL     OW48264   1.110   6.426   9.127
82142SOL    HW148265   1.201   6.455   9.122
82142SOL    HW248266   1.059   6.504   9.107
82143SOL     OW48267   2.784  13.877   0.502
82143SOL    HW148268   2.772  13.943   0.434
82143SOL    HW248269   2.863  13.829   0.477
82144SOL     OW48270   2.260  13.798  14.408
82144SOL    HW148271   2.321  13.834  14.471
82144SOL    HW248272   2.250  13.706  14.433
82145SOL     OW48273  11.426   1.786   5.650
82145SOL    HW148274  11.420   1.693   5.672
82145SOL    HW248275  11.505   1.793   5.597
82146SOL     OW48276   0.218   5.001  12.618
82146SOL    HW148277   0.238   5.007  12.524
82146SOL    HW248278   0.243   4.911  12.641
82147SOL     OW48279   8.646   3.020  10.882
82147SOL    HW148280   8.726   3.035  10.932
82147SOL    HW248281   8.652   3.082  10.808
82148SOL     OW48282   6.822   9.525  12.397
82148SOL    HW148283   6.771   9.603  12.417
82148SOL    HW248284   6.839   9.485  12.483
82149SOL     OW48285  11.189  10.770   8.374
82149SOL    HW148286  11.116  10.822   8.406
82149SOL    HW248287  11.150  10.713   8.307
82150SOL     OW48288  13.840   9.501  12.955
82150SOL    HW148289  13.922   9.481  12.910
82150SOL    HW248290  13.793   9.558  12.894
82151SOL     OW48291  14.346   9.417  13.664
82151SOL    HW148292  14.307   9.431  13.578
82151SOL    HW248293  14.429   9.464  13.660
82152SOL     OW48294  11.362  13.295   1.737
82152SOL    HW148295  11.395  13.281   1.648
82152SOL    HW248296  11.420  13.361   1.774
82153SOL     OW48297  14.203  10.345   4.757
82153SOL    HW148298  14.229  10.303   4.675
82153SOL    HW248299  14.282  10.342   4.811
82154SOL     OW48300   6.611   1.569   1.827
82154SOL    HW148301   6.553   1.636   1.864
82154SOL    HW248302   6.699   1.605   1.838
82155SOL     OW48303   3.512  12.748   6.834
82155SOL    HW148304   3.533  12.686   6.764
82155SOL    HW248305   3.504  12.694   6.912
82156SOL     OW48306   4.769   4.803   3.796
82156SOL    HW148307   4.722   4.722   3.777
82156SOL    HW248308   4.862   4.781   3.786
82157SOL     OW48309  13.488   6.294  12.149
82157SOL    HW148310  13.574   6.274  12.111
82157SOL    HW248311  13.484   6.243  12.229
82158SOL     OW48312   0.210   4.732  12.264
82158SOL    HW148313   0.122   4.701  12.287
82158SOL    HW248314   0.239   4.673  12.195
82159SOL     OW48315  12.609   6.185  11.423
82159SOL    HW148316  12.562   6.256  11.467
82159SOL    HW248317  12.666   6.230  11.360
82160SOL     OW48318   3.933   0.538  11.927
82160SOL    HW148319   4.011   0.577  11.888
82160SOL    HW248320   3.948   0.444  11.923
82161SOL     OW48321   2.315   8.898  10.842
82161SOL    HW148322   2.403   8.882  10.808
82161SOL    HW248323   2.281   8.970  10.789
82162SOL     OW48324   9.832   2.369  10.139
82162SOL    HW148325   9.884   2.435  10.094
82162SOL    HW248326   9.874   2.361  10.225
82163SOL     OW48327  14.523   8.360   9.760
82163SOL    HW148328  14.594   8.413   9.795
82163SOL    HW248329  14.536   8.363   9.665
82164SOL     OW48330   6.567   9.539  10.195
82164SOL    HW148331   6.630   9.524  10.125
82164SOL    HW248332   6.523   9.620  10.171
82165SOL     OW48333  12.408  13.521  10.539
82165SOL    HW148334  12.463  13.465  10.593
82165SOL    HW248335  12.468  13.559  10.475
82166SOL     OW48336   9.668   8.952   2.457
82166SOL    HW148337   9.599   9.017   2.448
82166SOL    HW248338   9.621   8.870   2.477
82167SOL     OW48339  14.491  10.376   7.866
82167SOL    HW148340  14.424  10.319   7.828
82167SOL    HW248341  14.574  10.332   7.846
82168SOL     OW48342  13.226   8.914   0.571
82168SOL    HW148343  13.295   8.930   0.507
82168SOL    HW248344  13.242   8.979   0.640
82169SOL     OW48345   8.176  14.580   4.313
82169SOL    HW148346   8.270  14.578   4.295
82169SOL    HW248347   8.159  14.501   4.364
82170SOL     OW48348  13.288  13.838   4.313
82170SOL    HW148349  13.231  13.897   4.264
82170SOL    HW248350  13.236  13.814   4.391
82171SOL     OW48351  10.818  12.690  10.482
82171SOL    HW148352  10.723  12.693  10.468
82171SOL    HW248353  10.829  12.690  10.577
82172SOL     OW48354   1.467  10.474  10.648
82172SOL    HW148355   1.545  10.421  10.665
82172SOL    HW248356   1.458  10.529  10.726
82173SOL     OW48357   1.790   7.078   9.032
82173SOL    HW148358   1.736   7.113   9.103
82173SOL    HW248359   1.780   7.142   8.961
82174SOL     OW48360   3.413   9.312   7.573
82174SOL    HW148361   3.442   9.324   7.664
82174SOL    HW248362   3.480   9.255   7.534
82175SOL     OW48363   3.692   1.336   5.411
82175SOL    HW148364   3.678   1.427   5.384
82175SOL    HW248365   3.629   1.286   5.360
82176SOL     OW48366  11.209   7.937  14.111
82176SOL    HW148367  11.283   7.966  14.058
82176SOL    HW248368  11.165   7.872  14.057
82177SOL     OW48369   3.324   4.803  11.302
82177SOL    HW148370   3.389   4.734  11.311
82177SOL    HW248371   3.320   4.844  11.389
82178SOL     OW48372   5.850   0.369   8.593
82178SOL    HW148373   5.758   0.396   8.598
82178SOL    HW248374   5.893   0.419   8.662
82179SOL     OW48375   8.546  11.703   6.714
82179SOL    HW148376   8.574  11.641   6.781
82179SOL    HW248377   8.545  11.653   6.633
82180SOL     OW48378   5.636   1.682  10.304
82180SOL    HW148379   5.701   1.687  10.234
82180SOL    HW248380   5.573   1.616  10.274
82181SOL     OW48381  14.507   1.492   0.802
82181SOL    HW148382  14.577   1.429   0.820
82181SOL    HW248383  14.544   1.549   0.735
82182SOL     OW48384  13.898  13.076   1.976
82182SOL    HW148385  13.961  13.083   1.904
82182SOL    HW248386  13.885  12.982   1.987
82183SOL     OW48387  12.905   9.414   9.610
82183SOL    HW148388  12.832   9.398   9.669
82183SOL    HW248389  12.918   9.509   9.613
82184SOL     OW48390  14.787   1.402   0.381
82184SOL    HW148391  14.798   1.487   0.338
82184SOL    HW248392  14.753   1.345   0.312
82185SOL     OW48393   3.838   4.261   8.907
82185SOL    HW148394   3.761   4.247   8.851
82185SOL    HW248395   3.848   4.178   8.954
82186SOL     OW48396   3.729   8.247   4.366
82186SOL    HW148397   3.634   8.259   4.361
82186SOL    HW248398   3.762   8.328   4.405
82187SOL     OW48399  14.546   2.007  14.843
82187SOL    HW148400  14.626   2.032  14.796
82187SOL    HW248401  14.575   1.991   0.059
82188SOL     OW48402   1.997  12.577   3.751
82188SOL    HW148403   1.960  12.493   3.779
82188SOL    HW248404   1.933  12.642   3.778
82189SOL     OW48405   6.645   9.900  10.336
82189SOL    HW148406   6.595   9.845  10.276
82189SOL    HW248407   6.593   9.981  10.344
82190SOL     OW48408   6.920   1.531  13.936
82190SOL    HW148409   6.996   1.555  13.884
82190SOL    HW248410   6.931   1.438  13.955
82191SOL     OW48411   6.285   1.578   2.908
82191SOL    HW148412   6.199   1.537   2.912
82191SOL    HW248413   6.305   1.584   2.815
82192SOL     OW48414   6.896   5.434  11.840
82192SOL    HW148415   6.953   5.363  11.811
82192SOL    HW248416   6.921   5.449  11.931
82193SOL     OW48417  10.777   9.684  12.822
82193SOL    HW148418  10.688   9.662  12.848
82193SOL    HW248419  10.832   9.639  12.886
82194SOL     OW48420   6.799   0.248   2.734
82194SOL    HW148421   6.753   0.231   2.652
82194SOL    HW248422   6.846   0.330   2.719
82195SOL     OW48423  11.552   2.649   5.126
82195SOL    HW148424  11.579   2.714   5.191
82195SOL    HW248425  11.530   2.572   5.179
82196SOL     OW48426   6.333   0.913  11.935
82196SOL    HW148427   6.302   0.998  11.904
82196SOL    HW248428   6.255   0.868  11.966
82197SOL     OW48429   8.343  13.702  10.199
82197SOL    HW148430   8.322  13.775  10.257
82197SOL    HW248431   8.287  13.630  10.230
82198SOL     OW48432  13.937   8.750   6.870
82198SOL    HW148433  14.020   8.797   6.880
82198SOL    HW248434  13.948   8.670   6.922
82199SOL     OW48435  11.860   3.078   6.549
82199SOL    HW148436  11.766   3.081   6.566
82199SOL    HW248437  11.882   2.985   6.548
82200SOL     OW48438   7.583   8.834  14.050
82200SOL    HW148439   7.619   8.773  14.115
82200SOL    HW248440   7.515   8.882  14.097
82201SOL     OW48441   0.551  11.444   1.611
82201SOL    HW148442   0.633  11.430   1.658
82201SOL    HW248443   0.575  11.498   1.536
82202SOL     OW48444   1.818   8.167   5.226
82202SOL    HW148445   1.727   8.166   5.257
82202SOL    HW248446   1.847   8.076   5.234
82203SOL     OW48447   5.280  11.038   0.263
82203SOL    HW148448   5.328  10.990   0.331
82203SOL    HW248449   5.243  10.969   0.207
82204SOL     OW48450  13.612   0.825   6.854
82204SOL    HW148451  13.578   0.793   6.937
82204SOL    HW248452  13.642   0.914   6.872
82205SOL     OW48453   2.449   6.207   2.448
82205SOL    HW148454   2.361   6.238   2.467
82205SOL    HW248455   2.485   6.184   2.534
82206SOL     OW48456   1.187   3.795   4.315
82206SOL    HW148457   1.273   3.816   4.278
82206SOL    HW248458   1.189   3.700   4.327
82207SOL     OW48459   6.511   4.088   1.434
82207SOL    HW148460   6.559   4.164   1.466
82207SOL    HW248461   6.570   4.047   1.370
82208SOL     OW48462   7.761   2.848   7.033
82208SOL    HW148463   7.781   2.932   6.991
82208SOL    HW248464   7.729   2.793   6.961
82209SOL     OW48465   1.265   9.048  11.703
82209SOL    HW148466   1.338   9.070  11.645
82209SOL    HW248467   1.259   8.953  11.698
82210SOL     OW48468  14.638   0.183  12.078
82210SOL    HW148469  14.660   0.098  12.117
82210SOL    HW248470  14.717   0.235  12.089
82211SOL     OW48471   0.829  12.408  14.531
82211SOL    HW148472   0.835  12.313  14.537
82211SOL    HW248473   0.919  12.438  14.525
82212SOL     OW48474  11.557  14.552  12.692
82212SOL    HW148475  11.651  14.537  12.700
82212SOL    HW248476  11.534  14.518  12.605
82213SOL     OW48477  11.320   2.962   1.212
82213SOL    HW148478  11.384   2.945   1.280
82213SOL    HW248479  11.235   2.950   1.255
82214SOL     OW48480  13.679   1.135   0.894
82214SOL    HW148481  13.704   1.195   0.823
82214SOL    HW248482  13.636   1.190   0.959
82215SOL     OW48483   8.110   3.020   0.011
82215SOL    HW148484   8.119   2.978  14.799
82215SOL    HW248485   8.100   2.948   0.072
82216SOL     OW48486   3.313   1.217  10.930
82216SOL    HW148487   3.387   1.266  10.893
82216SOL    HW248488   3.242   1.228  10.866
82217SOL     OW48489  13.983  12.252  11.251
82217SOL    HW148490  13.948  12.278  11.336
82217SOL    HW248491  13.963  12.159  11.244
82218SOL     OW48492   8.599   3.984   4.567
82218SOL    HW148493   8.531   3.933   4.612
82218SOL    HW248494   8.599   4.069   4.611
82219SOL     OW48495  14.561  13.750   7.292
82219SOL    HW148496  14.624  13.707   7.350
82219SOL    HW248497  14.533  13.680   7.232
82220SOL     OW48498   1.925   7.300   7.568
82220SOL    HW148499   1.949   7.297   7.475
82220SOL    HW248500   1.904   7.209   7.590
82221SOL     OW48501  10.189  13.991  14.584
82221SOL    HW148502  10.222  14.022  14.500
82221SOL    HW248503  10.153  13.904  14.565
82222SOL     OW48504  12.216   7.671   8.953
82222SOL    HW148505  12.252   7.734   8.892
82222SOL    HW248506  12.125   7.699   8.966
82223SOL     OW48507   9.392  12.065   1.843
82223SOL    HW148508   9.323  12.131   1.841
82223SOL    HW248509   9.467  12.110   1.884
82224SOL     OW48510  14.448   2.425   1.056
82224SOL    HW148511  14.447   2.389   1.144
82224SOL    HW248512  14.363   2.468   1.046
82225SOL     OW48513   4.152   2.309   8.588
82225SOL    HW148514   4.237   2.265   8.585
82225SOL    HW248515   4.161   2.384   8.529
82226SOL     OW48516   6.694   5.636   1.168
82226SOL    HW148517   6.749   5.711   1.144
82226SOL    HW248518   6.624   5.636   1.103
82227SOL     OW48519   9.721   4.692   0.096
82227SOL    HW148520   9.644   4.665   0.047
82227SOL    HW248521   9.795   4.664   0.043
82228SOL     OW48522  12.155   0.457   7.180
82228SOL    HW148523  12.103   0.482   7.255
82228SOL    HW248524  12.230   0.517   7.181
82229SOL     OW48525   8.983  10.435  11.311
82229SOL    HW148526   8.982  10.340  11.314
82229SOL    HW248527   8.939  10.456  11.228
82230SOL     OW48528   3.667   7.222   8.623
82230SOL    HW148529   3.740   7.240   8.681
82230SOL    HW248530   3.703   7.233   8.535
82231SOL     OW48531   0.120  13.263  14.410
82231SOL    HW148532   0.046  13.301  14.364
82231SOL    HW248533   0.082  13.199  14.470
82232SOL     OW48534   1.387   5.440   4.631
82232SOL    HW148535   1.471   5.397   4.645
82232SOL    HW248536   1.396   5.481   4.545
82233SOL     OW48537   2.334   1.418   8.580
82233SOL    HW148538   2.315   1.388   8.491
82233SOL    HW248539   2.252   1.456   8.610
82234SOL     OW48540   9.271  14.846   3.012
82234SOL    HW148541   9.244  14.784   2.944
82234SOL    HW248542   9.280  14.793   3.090
82235SOL     OW48543   6.093  13.176   0.159
82235SOL    HW148544   6.097  13.129   0.242
82235SOL    HW248545   6.148  13.254   0.172
82236SOL     OW48546   4.999   3.614   9.201
82236SOL    HW148547   4.912   3.595   9.236
82236SOL    HW248548   5.059   3.563   9.256
82237SOL     OW48549   7.181   3.892   8.800
82237SOL    HW148550   7.175   3.982   8.831
82237SOL    HW248551   7.128   3.890   8.720
82238SOL     OW48552   8.835   6.074   0.793
82238SOL    HW148553   8.778   6.077   0.870
82238SOL    HW248554   8.789   6.126   0.727
82239SOL     OW48555  11.687   3.424  14.801
82239SOL    HW148556  11.676   3.460   0.015
82239SOL    HW248557  11.644   3.487  14.744
82240SOL     OW48558  13.752  11.735  14.752
82240SOL    HW148559  13.743  11.821  14.712
82240SOL    HW248560  13.835  11.701  14.719
82241SOL     OW48561  14.758   4.283   8.680
82241SOL    HW148562  14.679   4.330   8.651
82241SOL    HW248563  14.830   4.325   8.633
82242SOL     OW48564  13.186   4.898   2.103
82242SOL    HW148565  13.279   4.920   2.096
82242SOL    HW248566  13.157   4.942   2.184
82243SOL     OW48567  13.563   8.207  14.628
82243SOL    HW148568  13.489   8.148  14.610
82243SOL    HW248569  13.523   8.281  14.674
82244SOL     OW48570   2.289   3.033   3.948
82244SOL    HW148571   2.309   2.999   3.861
82244SOL    HW248572   2.204   2.995   3.969
82245SOL     OW48573   1.452   7.055  12.670
82245SOL    HW148574   1.409   7.001  12.736
82245SOL    HW248575   1.536   7.078  12.708
82246SOL     OW48576   8.866  11.183   0.175
82246SOL    HW148577   8.919  11.103   0.167
82246SOL    HW248578   8.864  11.201   0.269
82247SOL     OW48579  10.190  11.266   9.548
82247SOL    HW148580  10.118  11.272   9.610
82247SOL    HW248581  10.167  11.192   9.492
82248SOL     OW48582   5.651   2.043   5.305
82248SOL    HW148583   5.672   1.962   5.258
82248SOL    HW248584   5.721   2.053   5.369
82249SOL     OW48585   2.764   1.494  11.012
82249SOL    HW148586   2.783   1.523  10.923
82249SOL    HW248587   2.747   1.400  11.003
82250SOL     OW48588   9.198   9.540   4.147
82250SOL    HW148589   9.188   9.620   4.199
82250SOL    HW248590   9.192   9.571   4.056
82251SOL     OW48591  13.744  14.406   7.750
82251SOL    HW148592  13.710  14.324   7.786
82251SOL    HW248593  13.667  14.450   7.714
82252SOL     OW48594   0.244   3.557  12.384
82252SOL    HW148595   0.174   3.553  12.449
82252SOL    HW248596   0.258   3.650  12.370
82253SOL     OW48597   0.172   1.353  14.339
82253SOL    HW148598   0.231   1.369  14.266
82253SOL    HW248599   0.190   1.262  14.365
82254SOL     OW48600  12.535   9.822   3.194
82254SOL    HW148601  12.630   9.818   3.207
82254SOL    HW248602  12.522   9.898   3.136
82255SOL     OW48603  11.545   0.569  12.770
82255SOL    HW148604  11.599   0.490  12.764
82255SOL    HW248605  11.507   0.578  12.683
82256SOL     OW48606   5.364  12.720  11.873
82256SOL    HW148607   5.273  12.692  11.870
82256SOL    HW248608   5.414  12.638  11.877
82257SOL     OW48609   2.582   2.618   0.351
82257SOL    HW148610   2.597   2.658   0.265
82257SOL    HW248611   2.639   2.667   0.410
82258SOL     OW48612   5.009  10.413  10.924
82258SOL    HW148613   5.003  10.503  10.894
82258SOL    HW248614   5.069  10.416  10.998
82259SOL     OW48615  10.102  10.727   6.561
82259SOL    HW148616  10.135  10.739   6.472
82259SOL    HW248617  10.104  10.815   6.599
82260SOL     OW48618   6.890   5.345  14.706
82260SOL    HW148619   6.831   5.271  14.721
82260SOL    HW248620   6.976   5.313  14.731
82261SOL     OW48621   1.945   0.929   7.430
82261SOL    HW148622   1.921   0.935   7.522
82261SOL    HW248623   1.980   1.015   7.408
82262SOL     OW48624   3.748   0.732   4.037
82262SOL    HW148625   3.653   0.743   4.023
82262SOL    HW248626   3.773   0.806   4.093
82263SOL     OW48627   9.843   6.760  11.974
82263SOL    HW148628   9.822   6.800  12.058
82263SOL    HW248629   9.937   6.771  11.964
82264SOL     OW48630   8.691  12.273   5.071
82264SOL    HW148631   8.750  12.282   5.146
82264SOL    HW248632   8.742  12.223   5.006
82265SOL     OW48633   2.868   9.166   7.731
82265SOL    HW148634   2.841   9.151   7.821
82265SOL    HW248635   2.824   9.098   7.680
82266SOL     OW48636   5.476  11.932   2.150
82266SOL    HW148637   5.399  11.884   2.182
82266SOL    HW248638   5.456  12.024   2.171
82267SOL     OW48639   4.263   0.560   9.444
82267SOL    HW148640   4.190   0.536   9.502
82267SOL    HW248641   4.292   0.476   9.407
82268SOL     OW48642   0.421  10.748  10.131
82268SOL    HW148643   0.373  10.673  10.096
82268SOL    HW248644   0.371  10.824  10.104
82269SOL     OW48645  11.862  14.666   4.910
82269SOL    HW148646  11.890  14.745   4.863
82269SOL    HW248647  11.774  14.685   4.940
82270SOL     OW48648   0.128  14.704   7.507
82270SOL    HW148649   0.123  14.642   7.434
82270SOL    HW248650   0.162  14.652   7.580
82271SOL     OW48651   2.841   3.221   3.546
82271SOL    HW148652   2.746   3.236   3.541
82271SOL    HW248653   2.857   3.205   3.639
82272SOL     OW48654   9.133  10.080  13.868
82272SOL    HW148655   9.044  10.046  13.877
82272SOL    HW248656   9.174  10.062  13.953
82273SOL     OW48657   8.547   5.038   5.816
82273SOL    HW148658   8.540   4.959   5.762
82273SOL    HW248659   8.637   5.067   5.803
82274SOL     OW48660   9.340   5.873   0.243
82274SOL    HW148661   9.400   5.819   0.294
82274SOL    HW248662   9.336   5.956   0.290
82275SOL     OW48663  11.086   2.366  10.285
82275SOL    HW148664  11.042   2.451  10.281
82275SOL    HW248665  11.022   2.305  10.249
82276SOL     OW48666  13.096   2.401  12.631
82276SOL    HW148667  13.174   2.346  12.622
82276SOL    HW248668  13.059   2.378  12.716
82277SOL     OW48669  10.182  12.375   4.890
82277SOL    HW148670  10.091  12.404   4.892
82277SOL    HW248671  10.226  12.438   4.833
82278SOL     OW48672   2.867  12.574  10.717
82278SOL    HW148673   2.831  12.520  10.787
82278SOL    HW248674   2.922  12.514  10.666
82279SOL     OW48675   3.869   6.642   6.792
82279SOL    HW148676   3.953   6.674   6.825
82279SOL    HW248677   3.871   6.663   6.698
82280SOL     OW48678  12.472   3.508   9.267
82280SOL    HW148679  12.429   3.522   9.351
82280SOL    HW248680  12.401   3.501   9.204
82281SOL     OW48681   8.409   0.951   6.394
82281SOL    HW148682   8.487   0.952   6.338
82281SOL    HW248683   8.431   1.010   6.466
82282SOL     OW48684   4.407   0.771   2.136
82282SOL    HW148685   4.328   0.735   2.174
82282SOL    HW248686   4.382   0.859   2.107
82283SOL     OW48687   0.357   4.590  14.114
82283SOL    HW148688   0.328   4.663  14.059
82283SOL    HW248689   0.365   4.516  14.052
82284SOL     OW48690   2.329   5.639   4.258
82284SOL    HW148691   2.366   5.654   4.345
82284SOL    HW248692   2.288   5.553   4.264
82285SOL     OW48693  11.435  12.302   2.220
82285SOL    HW148694  11.480  12.315   2.137
82285SOL    HW248695  11.408  12.390   2.247
82286SOL     OW48696   6.795   8.064   7.643
82286SOL    HW148697   6.874   8.100   7.601
82286SOL    HW248698   6.781   7.980   7.599
82287SOL     OW48699  14.514   9.003   4.119
82287SOL    HW148700  14.562   9.076   4.159
82287SOL    HW248701  14.580   8.934   4.109
82288SOL     OW48702   2.275   6.123   6.294
82288SOL    HW148703   2.279   6.039   6.341
82288SOL    HW248704   2.240   6.184   6.358
82289SOL     OW48705   9.388   5.241  12.215
82289SOL    HW148706   9.396   5.167  12.154
82289SOL    HW248707   9.457   5.226  12.280
82290SOL     OW48708  13.037   1.324  11.072
82290SOL    HW148709  13.010   1.320  11.163
82290SOL    HW248710  13.132   1.319  11.074
82291SOL     OW48711   4.489   1.650   1.473
82291SOL    HW148712   4.533   1.630   1.556
82291SOL    HW248713   4.396   1.636   1.492
82292SOL     OW48714   7.468   4.209   0.582
82292SOL    HW148715   7.458   4.130   0.634
82292SOL    HW248716   7.392   4.263   0.604
82293SOL     OW48717  13.648   7.959   4.759
82293SOL    HW148718  13.580   7.916   4.811
82293SOL    HW248719  13.601   8.004   4.689
82294SOL     OW48720  11.985   5.117   1.951
82294SOL    HW148721  12.012   5.031   1.918
82294SOL    HW248722  12.059   5.147   2.003
82295SOL     OW48723   0.091   4.028   1.233
82295SOL    HW148724   0.045   4.061   1.155
82295SOL    HW248725   0.178   4.068   1.228
82296SOL     OW48726   4.003   2.133   7.544
82296SOL    HW148727   3.977   2.184   7.467
82296SOL    HW248728   3.955   2.174   7.616
82297SOL     OW48729   8.356   4.854   2.278
82297SOL    HW148730   8.262   4.841   2.292
82297SOL    HW248731   8.396   4.828   2.361
82298SOL     OW48732  10.857   4.688  10.948
82298SOL    HW148733  10.946   4.658  10.928
82298SOL    HW248734  10.826   4.724  10.865
82299SOL     OW48735  14.639   8.609   5.636
82299SOL    HW148736  14.651   8.704   5.636
82299SOL    HW248737  14.692   8.578   5.562
82300SOL     OW48738   4.437  14.220   7.646
82300SOL    HW148739   4.358  14.261   7.681
82300SOL    HW248740   4.442  14.136   7.692
82301SOL     OW48741   6.413  11.155  10.180
82301SOL    HW148742   6.480  11.120  10.121
82301SOL    HW248743   6.461  11.217  10.236
82302SOL     OW48744   3.750   1.481   0.713
82302SOL    HW148745   3.658   1.460   0.696
82302SOL    HW248746   3.797   1.450   0.636
82303SOL     OW48747   8.456  13.691   6.024
82303SOL    HW148748   8.411  13.773   6.041
82303SOL    HW248749   8.397  13.624   6.058
82304SOL     OW48750   9.107   1.847   4.369
82304SOL    HW148751   9.198   1.873   4.362
82304SOL    HW248752   9.094   1.784   4.298
82305SOL     OW48753   5.475   9.142  10.422
82305SOL    HW148754   5.485   9.194  10.502
82305SOL    HW248755   5.564   9.118  10.397
82306SOL     OW48756  10.087   6.829  12.702
82306SOL    HW148757  10.038   6.803  12.624
82306SOL    HW248758  10.077   6.924  12.706
82307SOL     OW48759   4.759  12.296   3.848
82307SOL    HW148760   4.704  12.363   3.808
82307SOL    HW248761   4.713  12.214   3.829
82308SOL     OW48762   8.003  10.256   8.701
82308SOL    HW148763   7.961  10.204   8.770
82308SOL    HW248764   8.096  10.244   8.716
82309SOL     OW48765   1.682   3.611   4.982
82309SOL    HW148766   1.699   3.661   4.903
82309SOL    HW248767   1.588   3.622   4.999
82310SOL     OW48768   5.485   7.429   8.922
82310SOL    HW148769   5.530   7.513   8.918
82310SOL    HW248770   5.393   7.452   8.930
82311SOL     OW48771  12.155  13.196   2.501
82311SOL    HW148772  12.143  13.270   2.561
82311SOL    HW248773  12.153  13.236   2.414
82312SOL     OW48774  13.428   1.817   4.629
82312SOL    HW148775  13.445   1.901   4.587
82312SOL    HW248776  13.395   1.839   4.716
82313SOL     OW48777  13.685  10.344   5.454
82313SOL    HW148778  13.711  10.252   5.455
82313SOL    HW248779  13.592  10.344   5.478
82314SOL     OW48780   8.567   0.579   3.623
82314SOL    HW148781   8.568   0.605   3.531
82314SOL    HW248782   8.599   0.655   3.670
82315SOL     OW48783   6.409   6.886   5.522
82315SOL    HW148784   6.344   6.830   5.565
82315SOL    HW248785   6.493   6.852   5.552
82316SOL     OW48786   2.390   0.307   4.973
82316SOL    HW148787   2.367   0.357   5.051
82316SOL    HW248788   2.443   0.367   4.920
82317SOL     OW48789  14.510  11.876  14.532
82317SOL    HW148790  14.433  11.932  14.533
82317SOL    HW248791  14.576  11.924  14.482
82318SOL     OW48792  14.204   0.219   9.812
82318SOL    HW148793  14.198   0.250   9.902
82318SOL    HW248794  14.295   0.192   9.801
82319SOL     OW48795   9.960   4.998   1.813
82319SOL    HW148796   9.930   4.952   1.892
82319SOL    HW248797   9.936   4.940   1.741
82320SOL     OW48798  13.125   3.297   4.264
82320SOL    HW148799  13.202   3.246   4.240
82320SOL    HW248800  13.156   3.354   4.335
82321SOL     OW48801   9.091   3.315   2.138
82321SOL    HW148802   9.106   3.283   2.228
82321SOL    HW248803   9.175   3.355   2.113
82322SOL     OW48804   5.182   0.206  12.412
82322SOL    HW148805   5.239   0.260  12.357
82322SOL    HW248806   5.160   0.131  12.357
82323SOL     OW48807   3.725   7.898   4.143
82323SOL    HW148808   3.751   7.872   4.231
82323SOL    HW248809   3.785   7.968   4.120
82324SOL     OW48810   7.736   6.084   5.460
82324SOL    HW148811   7.744   6.123   5.546
82324SOL    HW248812   7.821   6.043   5.443
82325SOL     OW48813   5.572   1.899   9.852
82325SOL    HW148814   5.552   1.967   9.788
82325SOL    HW248815   5.624   1.835   9.803
82326SOL     OW48816   0.933   1.565   7.223
82326SOL    HW148817   0.978   1.638   7.180
82326SOL    HW248818   0.960   1.570   7.314
82327SOL     OW48819   4.228   4.808   0.570
82327SOL    HW148820   4.255   4.897   0.594
82327SOL    HW248821   4.285   4.784   0.497
82328SOL     OW48822   9.434   6.443  14.086
82328SOL    HW148823   9.514   6.470  14.042
82328SOL    HW248824   9.436   6.347  14.082
82329SOL     OW48825   5.529   8.934   6.428
82329SOL    HW148826   5.611   8.890   6.406
82329SOL    HW248827   5.482   8.870   6.482
82330SOL     OW48828   0.299   7.665   1.121
82330SOL    HW148829   0.273   7.734   1.182
82330SOL    HW248830   0.391   7.647   1.143
82331SOL     OW48831   8.072  12.938   4.830
82331SOL    HW148832   7.996  12.984   4.864
82331SOL    HW248833   8.041  12.849   4.812
82332SOL     OW48834   2.377   4.949   7.065
82332SOL    HW148835   2.363   5.043   7.069
82332SOL    HW248836   2.425   4.928   7.144
82333SOL     OW48837  12.234   5.520   3.982
82333SOL    HW148838  12.200   5.433   4.001
82333SOL    HW248839  12.285   5.509   3.902
82334SOL     OW48840   5.322   4.270   6.729
82334SOL    HW148841   5.412   4.290   6.754
82334SOL    HW248842   5.292   4.346   6.680
82335SOL     OW48843   7.896   6.115   5.769
82335SOL    HW148844   7.902   6.021   5.753
82335SOL    HW248845   7.978   6.151   5.736
82336SOL     OW48846   4.268   1.812  10.907
82336SOL    HW148847   4.237   1.787  10.994
82336SOL    HW248848   4.349   1.860  10.923
82337SOL     OW48849   0.599   6.007   1.386
82337SOL    HW148850   0.589   6.086   1.332
82337SOL    HW248851   0.551   6.027   1.466
82338SOL     OW48852   1.010   5.980   7.561
82338SOL    HW148853   1.000   5.889   7.588
82338SOL    HW248854   0.964   6.030   7.629
82339SOL     OW48855  11.615  13.347  13.692
82339SOL    HW148856  11.681  13.413  13.673
82339SOL    HW248857  11.653  13.265  13.661
82340SOL     OW48858   8.322   4.381   1.235
82340SOL    HW148859   8.391   4.420   1.181
82340SOL    HW248860   8.286   4.455   1.285
82341SOL     OW48861  12.519   0.137   8.889
82341SOL    HW148862  12.562   0.168   8.810
82341SOL    HW248863  12.590   0.109   8.947
82342SOL     OW48864   2.331   9.812   8.533
82342SOL    HW148865   2.237   9.827   8.543
82342SOL    HW248866   2.371   9.895   8.558
82343SOL     OW48867  14.546   9.393   1.967
82343SOL    HW148868  14.497   9.406   2.049
82343SOL    HW248869  14.488   9.342   1.911
82344SOL     OW48870  10.524   8.019   4.879
82344SOL    HW148871  10.514   8.111   4.905
82344SOL    HW248872  10.584   8.021   4.805
82345SOL     OW48873   4.451   8.867   0.722
82345SOL    HW148874   4.515   8.854   0.652
82345SOL    HW248875   4.376   8.907   0.679
82346SOL     OW48876  11.016   6.279  13.057
82346SOL    HW148877  11.003   6.211  12.991
82346SOL    HW248878  11.024   6.232  13.140
82347SOL     OW48879   7.306  13.465   7.014
82347SOL    HW148880   7.253  13.454   6.935
82347SOL    HW248881   7.305  13.560   7.030
82348SOL     OW48882  13.304  10.152   5.969
82348SOL    HW148883  13.213  10.141   5.998
82348SOL    HW248884  13.330  10.065   5.939
82349SOL     OW48885   3.619  10.390   7.950
82349SOL    HW148886   3.533  10.406   7.913
82349SOL    HW248887   3.608  10.311   8.004
82350SOL     OW48888   6.928   2.720  12.588
82350SOL    HW148889   6.884   2.706  12.672
82350SOL    HW248890   6.863   2.766  12.535
82351SOL     OW48891   0.679   5.330   2.591
82351SOL    HW148892   0.611   5.263   2.599
82351SOL    HW248893   0.644   5.393   2.528
82352SOL     OW48894  13.112   3.245   9.868
82352SOL    HW148895  13.162   3.194   9.932
82352SOL    HW248896  13.085   3.324   9.915
82353SOL     OW48897   4.309  14.027   7.873
82353SOL    HW148898   4.293  13.938   7.843
82353SOL    HW248899   4.271  14.031   7.960
82354SOL     OW48900   8.358   3.604  14.726
82354SOL    HW148901   8.340   3.550  14.803
82354SOL    HW248902   8.395   3.543  14.663
82355SOL     OW48903  11.612   2.336   3.676
82355SOL    HW148904  11.636   2.256   3.630
82355SOL    HW248905  11.539   2.310   3.733
82356SOL     OW48906  10.769   0.547   5.513
82356SOL    HW148907  10.707   0.600   5.562
82356SOL    HW248908  10.812   0.492   5.579
82357SOL     OW48909   7.787   6.410   0.076
82357SOL    HW148910   7.747   6.371   0.153
82357SOL    HW248911   7.719   6.467   0.040
82358SOL     OW48912   9.805   3.289  14.192
82358SOL    HW148913   9.784   3.324  14.105
82358SOL    HW248914   9.895   3.258  14.184
82359SOL     OW48915   5.196  10.545   5.230
82359SOL    HW148916   5.175  10.481   5.162
82359SOL    HW248917   5.239  10.617   5.184
82360SOL     OW48918   9.301   2.554   6.711
82360SOL    HW148919   9.226   2.506   6.675
82360SOL    HW248920   9.302   2.636   6.661
82361SOL     OW48921   0.527  13.049   1.704
82361SOL    HW148922   0.442  13.091   1.691
82361SOL    HW248923   0.573  13.062   1.621
82362SOL     OW48924   4.748  10.011   5.716
82362SOL    HW148925   4.685   9.952   5.758
82362SOL    HW248926   4.695  10.083   5.684
82363SOL     OW48927   9.680   1.618   8.360
82363SOL    HW148928   9.733   1.696   8.346
82363SOL    HW248929   9.668   1.614   8.455
82364SOL     OW48930   7.944  14.819   6.779
82364SOL    HW148931   8.001  14.786   6.710
82364SOL    HW248932   7.856  14.797   6.751
82365SOL     OW48933   0.661   4.050   6.257
82365SOL    HW148934   0.609   4.103   6.196
82365SOL    HW248935   0.669   3.965   6.215
82366SOL     OW48936   3.006   2.556  14.282
82366SOL    HW148937   2.967   2.488  14.228
82366SOL    HW248938   2.941   2.573  14.350
82367SOL     OW48939   8.854   2.238  14.635
82367SOL    HW148940   8.883   2.248  14.544
82367SOL    HW248941   8.771   2.191  14.628
82368SOL     OW48942  12.090   4.601   4.558
82368SOL    HW148943  12.138   4.679   4.530
82368SOL    HW248944  12.152   4.529   4.547
82369SOL     OW48945   7.527   3.982  14.456
82369SOL    HW148946   7.603   4.038  14.472
82369SOL    HW248947   7.489   3.966  14.542
82370SOL     OW48948  14.374  10.069  11.180
82370SOL    HW148949  14.457  10.025  11.162
82370SOL    HW248950  14.367  10.136  11.112
82371SOL     OW48951   6.636   3.995   0.467
82371SOL    HW148952   6.613   4.088   0.474
82371SOL    HW248953   6.556   3.953   0.436
82372SOL     OW48954  11.926   0.413  11.501
82372SOL    HW148955  11.974   0.371  11.430
82372SOL    HW248956  11.856   0.461  11.457
82373SOL     OW48957  10.694  14.103   4.502
82373SOL    HW148958  10.611  14.118   4.456
82373SOL    HW248959  10.760  14.102   4.433
82374SOL     OW48960   1.620   3.756   8.076
82374SOL    HW148961   1.710   3.764   8.046
82374SOL    HW248962   1.582   3.843   8.064
82375SOL     OW48963   6.932  11.790   4.448
82375SOL    HW148964   6.837  11.784   4.436
82375SOL    HW248965   6.959  11.701   4.471
82376SOL     OW48966   6.584   1.776  12.935
82376SOL    HW148967   6.490   1.790  12.942
82376SOL    HW248968   6.608   1.733  13.017
82377SOL     OW48969   0.040  10.446   6.284
82377SOL    HW148970  14.873  10.364   6.312
82377SOL    HW248971   0.004  10.463   6.197
82378SOL     OW48972  11.522   5.339  14.599
82378SOL    HW148973  11.466   5.414  14.620
82378SOL    HW248974  11.525   5.288  14.680
82379SOL     OW48975   6.559   3.272   7.934
82379SOL    HW148976   6.546   3.366   7.917
82379SOL    HW248977   6.512   3.256   8.015
82380SOL     OW48978   0.484  10.390   4.054
82380SOL    HW148979   0.536  10.424   3.981
82380SOL    HW248980   0.419  10.458   4.070
82381SOL     OW48981  13.419  11.858   5.397
82381SOL    HW148982  13.508  11.824   5.392
82381SOL    HW248983  13.381  11.815   5.473
82382SOL     OW48984   5.777   5.543   9.425
82382SOL    HW148985   5.854   5.488   9.437
82382SOL    HW248986   5.747   5.524   9.336
82383SOL     OW48987   0.267  12.040   5.365
82383SOL    HW148988   0.360  12.033   5.388
82383SOL    HW248989   0.226  11.966   5.411
82384SOL     OW48990   7.428   9.725  12.742
82384SOL    HW148991   7.497   9.779  12.781
82384SOL    HW248992   7.360   9.721  12.810
82385SOL     OW48993  10.060   9.681   8.753
82385SOL    HW148994  10.042   9.587   8.751
82385SOL    HW248995  10.155   9.688   8.741
82386SOL     OW48996   1.948  12.311   5.106
82386SOL    HW148997   1.854  12.300   5.093
82386SOL    HW248998   1.964  12.277   5.194
82387SOL     OW48999   1.343  13.107  12.250
82387SOL    HW149000   1.385  13.058  12.179
82387SOL    HW249001   1.350  13.050  12.326
82388SOL     OW49002   2.557   5.076  12.000
82388SOL    HW149003   2.592   5.164  11.983
82388SOL    HW249004   2.501   5.087  12.077
82389SOL     OW49005   9.037   8.571   0.404
82389SOL    HW149006   9.039   8.627   0.327
82389SOL    HW249007   9.016   8.631   0.476
82390SOL     OW49008   7.233  12.887   3.973
82390SOL    HW149009   7.192  12.879   4.060
82390SOL    HW249010   7.274  12.974   3.974
82391SOL     OW49011  13.786   7.895   5.621
82391SOL    HW149012  13.711   7.890   5.681
82391SOL    HW249013  13.750   7.873   5.536
82392SOL     OW49014   7.415  13.885  11.222
82392SOL    HW149015   7.465  13.823  11.169
82392SOL    HW249016   7.344  13.832  11.259
82393SOL     OW49017   9.458  14.681   8.752
82393SOL    HW149018   9.532  14.635   8.712
82393SOL    HW249019   9.392  14.612   8.766
82394SOL     OW49020   2.924  12.066  11.185
82394SOL    HW149021   2.954  11.985  11.225
82394SOL    HW249022   2.984  12.082  11.113
82395SOL     OW49023   0.904  10.520   0.663
82395SOL    HW149024   0.981  10.475   0.699
82395SOL    HW249025   0.831  10.485   0.713
82396SOL     OW49026   6.095   6.897   2.088
82396SOL    HW149027   6.009   6.938   2.090
82396SOL    HW249028   6.113   6.883   1.995
82397SOL     OW49029  14.472   8.080   6.465
82397SOL    HW149030  14.462   7.997   6.419
82397SOL    HW249031  14.470   8.056   6.558
82398SOL     OW49032  10.124  14.420   8.620
82398SOL    HW149033  10.184  14.461   8.683
82398SOL    HW249034  10.037  14.432   8.658
82399SOL     OW49035   8.880  14.677   5.984
82399SOL    HW149036   8.910  14.593   6.019
82399SOL    HW249037   8.943  14.741   6.015
82400SOL     OW49038  10.350   8.437   3.813
82400SOL    HW149039  10.288   8.370   3.784
82400SOL    HW249040  10.396   8.397   3.886
82401SOL     OW49041   4.155  11.139  12.114
82401SOL    HW149042   4.227  11.197  12.138
82401SOL    HW249043   4.102  11.190  12.053
82402SOL     OW49044  12.270   4.263   3.276
82402SOL    HW149045  12.182   4.270   3.241
82402SOL    HW249046  12.321   4.220   3.207
82403SOL     OW49047   7.539   8.499   2.816
82403SOL    HW149048   7.474   8.475   2.882
82403SOL    HW249049   7.489   8.547   2.750
82404SOL     OW49050  11.254   4.769  12.119
82404SOL    HW149051  11.170   4.789  12.161
82404SOL    HW249052  11.231   4.727  12.036
82405SOL     OW49053   3.891   5.125   0.816
82405SOL    HW149054   3.938   5.074   0.750
82405SOL    HW249055   3.954   5.193   0.843
82406SOL     OW49056   0.195   3.039  14.336
82406SOL    HW149057   0.104   3.029  14.364
82406SOL    HW249058   0.191   3.032  14.241
82407SOL     OW49059   3.895   7.129   2.003
82407SOL    HW149060   3.912   7.049   1.953
82407SOL    HW249061   3.801   7.144   1.991
82408SOL     OW49062   6.852   9.701   6.298
82408SOL    HW149063   6.850   9.614   6.338
82408SOL    HW249064   6.944   9.718   6.283
82409SOL     OW49065  11.648   5.811   9.992
82409SOL    HW149066  11.651   5.739   9.929
82409SOL    HW249067  11.732   5.806  10.039
82410SOL     OW49068  10.955   7.875  14.470
82410SOL    HW149069  10.905   7.879  14.388
82410SOL    HW249070  11.038   7.919  14.450
82411SOL     OW49071  12.479   2.962   8.467
82411SOL    HW149072  12.424   2.962   8.545
82411SOL    HW249073  12.505   2.870   8.457
82412SOL     OW49074   2.090   3.938   5.047
82412SOL    HW149075   2.165   3.991   5.020
82412SOL    HW249076   2.043   3.994   5.109
82413SOL     OW49077   3.507   6.128  10.977
82413SOL    HW149078   3.555   6.047  10.996
82413SOL    HW249079   3.510   6.136  10.881
82414SOL     OW49080   4.366   6.824   8.777
82414SOL    HW149081   4.341   6.748   8.724
82414SOL    HW249082   4.371   6.896   8.715
82415SOL     OW49083   0.068   6.280   6.479
82415SOL    HW149084   0.034   6.232   6.403
82415SOL    HW249085   0.146   6.230   6.506
82416SOL     OW49086  14.357   9.871  10.892
82416SOL    HW149087  14.325   9.800  10.948
82416SOL    HW249088  14.279   9.902  10.846
82417SOL     OW49089  13.364   4.424   3.315
82417SOL    HW149090  13.424   4.493   3.342
82417SOL    HW249091  13.368   4.424   3.220
82418SOL     OW49092  14.358  12.454  11.197
82418SOL    HW149093  14.445  12.415  11.184
82418SOL    HW249094  14.370  12.513  11.272
82419SOL     OW49095   4.870   9.171   9.513
82419SOL    HW149096   4.942   9.172   9.450
82419SOL    HW249097   4.803   9.115   9.473
82420SOL     OW49098   2.535  10.827   3.397
82420SOL    HW149099   2.493  10.789   3.474
82420SOL    HW249100   2.628  10.833   3.420
82421SOL     OW49101   7.980   2.555   7.127
82421SOL    HW149102   8.030   2.615   7.071
82421SOL    HW249103   7.889   2.573   7.105
82422SOL     OW49104   5.729   3.061   3.596
82422SOL    HW149105   5.783   2.982   3.604
82422SOL    HW249106   5.774   3.125   3.651
82423SOL     OW49107  11.303   8.714  10.970
82423SOL    HW149108  11.383   8.664  10.983
82423SOL    HW249109  11.235   8.662  11.014
82424SOL     OW49110   1.557   6.994  11.620
82424SOL    HW149111   1.490   7.041  11.570
82424SOL    HW249112   1.640   7.023  11.580
82425SOL     OW49113   2.604   0.028   5.276
82425SOL    HW149114   2.540   0.024   5.348
82425SOL    HW249115   2.554   0.059   5.201
82426SOL     OW49116   3.979  11.156  10.687
82426SOL    HW149117   3.948  11.233  10.734
82426SOL    HW249118   4.033  11.192  10.616
82427SOL     OW49119   4.997   6.896   0.916
82427SOL    HW149120   5.021   6.943   0.996
82427SOL    HW249121   4.986   6.805   0.945
82428SOL     OW49122   2.356   4.633   5.671
82428SOL    HW149123   2.346   4.642   5.766
82428SOL    HW249124   2.355   4.722   5.638
82429SOL     OW49125  12.276   1.977  12.986
82429SOL    HW149126  12.238   1.890  12.998
82429SOL    HW249127  12.299   2.006  13.074
82430SOL     OW49128   7.980   6.246  14.794
82430SOL    HW149129   7.933   6.250   0.002
82430SOL    HW249130   7.958   6.327  14.749
82431SOL     OW49131   9.873   8.928  11.459
82431SOL    HW149132   9.851   8.855  11.517
82431SOL    HW249133   9.789   8.960  11.427
82432SOL     OW49134   8.700   5.997  14.082
82432SOL    HW149135   8.743   5.973  14.000
82432SOL    HW249136   8.636   5.927  14.097
82433SOL     OW49137  14.173  10.487   2.101
82433SOL    HW149138  14.153  10.510   2.192
82433SOL    HW249139  14.088  10.466   2.063
82434SOL     OW49140  10.612   4.376   8.531
82434SOL    HW149141  10.672   4.450   8.543
82434SOL    HW249142  10.662   4.299   8.558
82435SOL     OW49143   3.631  12.916   9.272
82435SOL    HW149144   3.652  12.847   9.335
82435SOL    HW249145   3.587  12.984   9.324
82436SOL     OW49146  13.665   1.985  14.847
82436SOL    HW149147  13.608   2.034  14.789
82436SOL    HW249148  13.721   1.934  14.788
82437SOL     OW49149  13.122  13.376   4.097
82437SOL    HW149150  13.131  13.340   4.185
82437SOL    HW249151  13.129  13.471   4.110
82438SOL     OW49152   1.686   4.556   0.108
82438SOL    HW149153   1.650   4.519   0.189
82438SOL    HW249154   1.625   4.625   0.084
82439SOL     OW49155   2.493   3.652   3.129
82439SOL    HW149156   2.539   3.646   3.044
82439SOL    HW249157   2.495   3.562   3.163
82440SOL     OW49158  11.401  12.612   7.950
82440SOL    HW149159  11.373  12.557   8.024
82440SOL    HW249160  11.365  12.568   7.873
82441SOL     OW49161   0.495   9.658   4.111
82441SOL    HW149162   0.479   9.658   4.017
82441SOL    HW249163   0.590   9.663   4.120
82442SOL     OW49164  12.010   4.508   4.099
82442SOL    HW149165  12.065   4.497   4.021
82442SOL    HW249166  12.001   4.420   4.135
82443SOL     OW49167   4.160   4.795   9.588
82443SOL    HW149168   4.192   4.795   9.498
82443SOL    HW249169   4.094   4.865   9.590
82444SOL     OW49170   5.118  14.249  12.997
82444SOL    HW149171   5.066  14.208  12.928
82444SOL    HW249172   5.103  14.193  13.074
82445SOL     OW49173   5.466   4.664  13.558
82445SOL    HW149174   5.559   4.675  13.575
82445SOL    HW249175   5.425   4.665  13.644
82446SOL     OW49176   1.885  11.844   5.420
82446SOL    HW149177   1.884  11.938   5.441
82446SOL    HW249178   1.977  11.825   5.401
82447SOL     OW49179   9.843  14.043   0.784
82447SOL    HW149180   9.919  14.005   0.740
82447SOL    HW249181   9.772  13.982   0.765
82448SOL     OW49182  12.665   4.750   8.962
82448SOL    HW149183  12.649   4.669   9.010
82448SOL    HW249184  12.577   4.781   8.939
82449SOL     OW49185  13.579   9.856   8.444
82449SOL    HW149186  13.556   9.794   8.513
82449SOL    HW249187  13.570   9.807   8.362
82450SOL     OW49188  14.159  12.257   1.875
82450SOL    HW149189  14.173  12.289   1.964
82450SOL    HW249190  14.072  12.290   1.851
82451SOL     OW49191   6.739   2.279   2.238
82451SOL    HW149192   6.698   2.365   2.227
82451SOL    HW249193   6.668   2.221   2.265
82452SOL     OW49194   8.012  13.311   8.528
82452SOL    HW149195   7.944  13.296   8.462
82452SOL    HW249196   8.093  13.319   8.478
82453SOL     OW49197   5.399  12.467   9.109
82453SOL    HW149198   5.442  12.466   9.024
82453SOL    HW249199   5.469  12.446   9.171
82454SOL     OW49200   1.760   5.442  13.609
82454SOL    HW149201   1.852   5.419  13.623
82454SOL    HW249202   1.728   5.466  13.696
82455SOL     OW49203   8.412  11.300  13.717
82455SOL    HW149204   8.494  11.252  13.701
82455SOL    HW249205   8.400  11.353  13.638
82456SOL     OW49206   0.995   5.547   5.119
82456SOL    HW149207   1.018   5.636   5.144
82456SOL    HW249208   0.916   5.527   5.170
82457SOL     OW49209   3.776   9.932  13.609
82457SOL    HW149210   3.687   9.948  13.639
82457SOL    HW249211   3.767   9.867  13.539
82458SOL     OW49212   8.441   9.103  14.679
82458SOL    HW149213   8.365   9.092  14.622
82458SOL    HW249214   8.452   9.198  14.687
82459SOL     OW49215   3.818   7.998   3.619
82459SOL    HW149216   3.819   8.076   3.674
82459SOL    HW249217   3.849   7.928   3.676
82460SOL     OW49218   0.218  11.123   8.254
82460SOL    HW149219   0.264  11.054   8.208
82460SOL    HW249220   0.186  11.181   8.185
82461SOL     OW49221  14.780  13.827   5.678
82461SOL    HW149222  14.801  13.774   5.754
82461SOL    HW249223  14.723  13.772   5.625
82462SOL     OW49224   1.086  13.413  10.293
82462SOL    HW149225   1.110  13.322  10.307
82462SOL    HW249226   1.163  13.463  10.318
82463SOL     OW49227  10.310   4.051  12.423
82463SOL    HW149228  10.311   3.956  12.408
82463SOL    HW249229  10.389   4.083  12.380
82464SOL     OW49230   5.610   3.377  14.463
82464SOL    HW149231   5.646   3.352  14.377
82464SOL    HW249232   5.686   3.383  14.520
82465SOL     OW49233   2.653   9.070   3.432
82465SOL    HW149234   2.666   9.031   3.519
82465SOL    HW249235   2.730   9.043   3.382
82466SOL     OW49236   6.666   7.883   6.756
82466SOL    HW149237   6.737   7.944   6.775
82466SOL    HW249238   6.710   7.800   6.737
82467SOL     OW49239   1.529   7.759   5.223
82467SOL    HW149240   1.515   7.842   5.270
82467SOL    HW249241   1.598   7.779   5.160
82468SOL     OW49242   4.915   5.789   7.335
82468SOL    HW149243   4.827   5.752   7.334
82468SOL    HW249244   4.902   5.882   7.355
82469SOL     OW49245   5.224   2.199  12.278
82469SOL    HW149246   5.306   2.158  12.253
82469SOL    HW249247   5.247   2.288  12.302
82470SOL     OW49248   9.128  10.068   5.073
82470SOL    HW149249   9.188   9.994   5.079
82470SOL    HW249250   9.042  10.027   5.057
82471SOL     OW49251   2.471   3.395   6.076
82471SOL    HW149252   2.414   3.344   6.018
82471SOL    HW249253   2.415   3.418   6.150
82472SOL     OW49254   5.220   7.900  10.215
82472SOL    HW149255   5.177   7.913  10.131
82472SOL    HW249256   5.307   7.867  10.192
82473SOL     OW49257   0.888   9.242   9.384
82473SOL    HW149258   0.920   9.297   9.313
82473SOL    HW249259   0.793   9.240   9.371
82474SOL     OW49260  13.008   7.328  11.206
82474SOL    HW149261  13.096   7.291  11.209
82474SOL    HW249262  12.959   7.272  11.146
82475SOL     OW49263  14.067   7.969  13.143
82475SOL    HW149264  14.012   7.895  13.115
82475SOL    HW249265  14.043   8.040  13.084
82476SOL     OW49266   8.689   3.457  12.893
82476SOL    HW149267   8.628   3.508  12.840
82476SOL    HW249268   8.705   3.378  12.841
82477SOL     OW49269   4.754   2.799   9.364
82477SOL    HW149270   4.679   2.854   9.388
82477SOL    HW249271   4.827   2.861   9.355
82478SOL     OW49272  11.525   2.269  13.812
82478SOL    HW149273  11.599   2.318  13.777
82478SOL    HW249274  11.554   2.242  13.900
82479SOL     OW49275   7.877  12.089   3.132
82479SOL    HW149276   7.804  12.097   3.071
82479SOL    HW249277   7.840  12.044   3.208
82480SOL     OW49278   5.102   2.240  11.890
82480SOL    HW149279   5.102   2.336  11.885
82480SOL    HW249280   5.193   2.215  11.873
82481SOL     OW49281   4.390   6.876  13.144
82481SOL    HW149282   4.441   6.798  13.165
82481SOL    HW249283   4.303   6.844  13.122
82482SOL     OW49284   4.293   2.258  14.081
82482SOL    HW149285   4.374   2.247  14.132
82482SOL    HW249286   4.242   2.322  14.131
82483SOL     OW49287   8.869   2.026   8.776
82483SOL    HW149288   8.876   2.116   8.809
82483SOL    HW249289   8.960   1.997   8.768
82484SOL     OW49290  10.316  12.060   2.660
82484SOL    HW149291  10.407  12.033   2.648
82484SOL    HW249292  10.317  12.114   2.739
82485SOL     OW49293   8.486   2.805   2.588
82485SOL    HW149294   8.458   2.896   2.584
82485SOL    HW249295   8.577   2.807   2.557
82486SOL     OW49296  12.249   9.855  14.196
82486SOL    HW149297  12.192   9.883  14.267
82486SOL    HW249298  12.319   9.805  14.239
82487SOL     OW49299   1.363   9.840  12.431
82487SOL    HW149300   1.272   9.834  12.401
82487SOL    HW249301   1.412   9.783  12.372
82488SOL     OW49302   9.934  11.400   9.388
82488SOL    HW149303   9.996  11.453   9.438
82488SOL    HW249304   9.934  11.315   9.433
82489SOL     OW49305   7.497  11.036   7.962
82489SOL    HW149306   7.492  10.942   7.977
82489SOL    HW249307   7.561  11.045   7.891
82490SOL     OW49308  10.871   4.940  10.344
82490SOL    HW149309  10.960   4.908  10.360
82490SOL    HW249310  10.834   4.875  10.284
82491SOL     OW49311  11.504   1.935   0.449
82491SOL    HW149312  11.551   1.857   0.420
82491SOL    HW249313  11.490   1.986   0.369
82492SOL     OW49314   8.833  12.447   0.209
82492SOL    HW149315   8.763  12.384   0.229
82492SOL    HW249316   8.827  12.512   0.279
82493SOL     OW49317   9.775   1.907   3.348
82493SOL    HW149318   9.836   1.976   3.320
82493SOL    HW249319   9.775   1.845   3.275
82494SOL     OW49320   7.958   1.524  13.187
82494SOL    HW149321   7.997   1.484  13.265
82494SOL    HW249322   7.925   1.608  13.217
82495SOL     OW49323   9.714   1.357   7.055
82495SOL    HW149324   9.694   1.263   7.062
82495SOL    HW249325   9.785   1.362   6.991
82496SOL     OW49326   9.361  10.009   1.816
82496SOL    HW149327   9.321   9.981   1.898
82496SOL    HW249328   9.359  10.105   1.820
82497SOL     OW49329   4.732   1.500   1.899
82497SOL    HW149330   4.713   1.592   1.917
82497SOL    HW249331   4.827   1.495   1.894
82498SOL     OW49332  10.346   0.607   5.410
82498SOL    HW149333  10.318   0.622   5.320
82498SOL    HW249334  10.439   0.628   5.410
82499SOL     OW49335   9.162   1.661  11.093
82499SOL    HW149336   9.191   1.573  11.071
82499SOL    HW249337   9.241   1.715  11.086
82500SOL     OW49338   2.610   7.118  13.572
82500SOL    HW149339   2.616   7.023  13.559
82500SOL    HW249340   2.655   7.156  13.496
82501SOL     OW49341   9.492  11.323   0.310
82501SOL    HW149342   9.487  11.265   0.234
82501SOL    HW249343   9.401  11.344   0.330
82502SOL     OW49344   9.184  13.009   3.853
82502SOL    HW149345   9.247  12.938   3.838
82502SOL    HW249346   9.190  13.064   3.775
82503SOL     OW49347  11.803  11.676   5.027
82503SOL    HW149348  11.860  11.751   5.010
82503SOL    HW249349  11.832  11.609   4.965
82504SOL     OW49350   7.682  12.186   9.061
82504SOL    HW149351   7.633  12.106   9.083
82504SOL    HW249352   7.619  12.257   9.078
82505SOL     OW49353   9.111  10.407  12.995
82505SOL    HW149354   9.087  10.478  13.055
82505SOL    HW249355   9.028  10.383  12.953
82506SOL     OW49356   0.427   2.572   4.258
82506SOL    HW149357   0.515   2.537   4.248
82506SOL    HW249358   0.431   2.659   4.218
82507SOL     OW49359  11.322   1.535   2.982
82507SOL    HW149360  11.248   1.513   2.926
82507SOL    HW249361  11.284   1.541   3.070
82508SOL     OW49362   9.127  10.508   5.466
82508SOL    HW149363   9.114  10.507   5.371
82508SOL    HW249364   9.059  10.567   5.499
82509SOL     OW49365   0.974  14.031   9.097
82509SOL    HW149366   0.957  14.099   9.162
82509SOL    HW249367   0.907  13.965   9.114
82510SOL     OW49368   5.795   7.898   4.593
82510SOL    HW149369   5.713   7.848   4.589
82510SOL    HW249370   5.810   7.925   4.502
82511SOL     OW49371   2.294  12.734   6.265
82511SOL    HW149372   2.335  12.810   6.224
82511SOL    HW249373   2.202  12.741   6.242
82512SOL     OW49374   6.028   3.615   1.945
82512SOL    HW149375   5.988   3.645   1.863
82512SOL    HW249376   6.098   3.678   1.961
82513SOL     OW49377  10.204  12.806   2.176
82513SOL    HW149378  10.112  12.812   2.150
82513SOL    HW249379  10.241  12.892   2.153
82514SOL     OW49380   8.769   1.674   4.448
82514SOL    HW149381   8.806   1.730   4.517
82514SOL    HW249382   8.740   1.736   4.381
82515SOL     OW49383   8.836   9.181   4.974
82515SOL    HW149384   8.907   9.118   4.958
82515SOL    HW249385   8.756   9.131   4.958
82516SOL     OW49386   0.201   8.195  11.282
82516SOL    HW149387   0.169   8.277  11.319
82516SOL    HW249388   0.245   8.151  11.355
82517SOL     OW49389   8.791  12.533   5.417
82517SOL    HW149390   8.802  12.452   5.368
82517SOL    HW249391   8.861  12.530   5.483
82518SOL     OW49392   3.420   0.645   6.150
82518SOL    HW149393   3.485   0.691   6.204
82518SOL    HW249394   3.359   0.607   6.213
82519SOL     OW49395   0.167   6.937  12.934
82519SOL    HW149396   0.172   6.842  12.931
82519SOL    HW249397   0.232   6.967  12.871
82520SOL     OW49398   3.006   9.645   5.897
82520SOL    HW149399   3.048   9.729   5.877
82520SOL    HW249400   2.913   9.661   5.883
82521SOL     OW49401   5.570   5.303  10.882
82521SOL    HW149402   5.537   5.380  10.837
82521SOL    HW249403   5.570   5.328  10.975
82522SOL     OW49404   0.718   4.372   7.715
82522SOL    HW149405   0.727   4.353   7.622
82522SOL    HW249406   0.624   4.376   7.730
82523SOL     OW49407   8.157  12.521   3.302
82523SOL    HW149408   8.122  12.443   3.260
82523SOL    HW249409   8.207  12.488   3.377
82524SOL     OW49410   7.788   3.868  14.663
82524SOL    HW149411   7.742   3.923  14.728
82524SOL    HW249412   7.841   3.809  14.716
82525SOL     OW49413   7.867   9.035   7.323
82525SOL    HW149414   7.786   8.994   7.293
82525SOL    HW249415   7.859   9.036   7.419
82526SOL     OW49416   5.993  12.951   1.771
82526SOL    HW149417   6.088  12.945   1.771
82526SOL    HW249418   5.966  12.916   1.856
82527SOL     OW49419   2.965   5.342   4.084
82527SOL    HW149420   2.960   5.275   4.016
82527SOL    HW249421   2.915   5.306   4.157
82528SOL     OW49422  12.184  10.901   2.296
82528SOL    HW149423  12.109  10.842   2.305
82528SOL    HW249424  12.201  10.903   2.201
82529SOL     OW49425  13.684  10.179  13.934
82529SOL    HW149426  13.765  10.186  13.985
82529SOL    HW249427  13.659  10.270  13.917
82530SOL     OW49428   4.683  11.584   5.017
82530SOL    HW149429   4.637  11.610   5.097
82530SOL    HW249430   4.759  11.641   5.013
82531SOL     OW49431  13.392   5.307  11.778
82531SOL    HW149432  13.447   5.289  11.854
82531SOL    HW249433  13.303   5.308  11.813
82532SOL     OW49434  10.570  14.150   9.561
82532SOL    HW149435  10.641  14.110   9.612
82532SOL    HW249436  10.544  14.227   9.612
82533SOL     OW49437   7.407   2.372   9.972
82533SOL    HW149438   7.457   2.354   9.892
82533SOL    HW249439   7.321   2.334   9.956
82534SOL     OW49440   7.747  10.493  11.829
82534SOL    HW149441   7.776  10.407  11.859
82534SOL    HW249442   7.664  10.476  11.785
82535SOL     OW49443  10.576  13.058  13.681
82535SOL    HW149444  10.494  13.039  13.635
82535SOL    HW249445  10.628  13.108  13.618
82536SOL     OW49446   6.334   5.675   4.253
82536SOL    HW149447   6.345   5.639   4.165
82536SOL    HW249448   6.276   5.750   4.241
82537SOL     OW49449   2.189  13.950   2.876
82537SOL    HW149450   2.126  13.962   2.805
82537SOL    HW249451   2.229  14.036   2.887
82538SOL     OW49452   3.923   9.000  10.380
82538SOL    HW149453   4.009   8.976  10.345
82538SOL    HW249454   3.942   9.053  10.457
82539SOL     OW49455   8.575   0.562   9.393
82539SOL    HW149456   8.591   0.482   9.442
82539SOL    HW249457   8.599   0.633   9.452
82540SOL     OW49458  12.817   3.163   9.601
82540SOL    HW149459  12.738   3.160   9.655
82540SOL    HW249460  12.878   3.104   9.645
82541SOL     OW49461   1.757   9.487   2.307
82541SOL    HW149462   1.677   9.522   2.268
82541SOL    HW249463   1.745   9.499   2.401
82542SOL     OW49464   4.902   7.569   9.716
82542SOL    HW149465   4.892   7.554   9.810
82542SOL    HW249466   4.822   7.534   9.677
82543SOL     OW49467   2.083   9.513  11.373
82543SOL    HW149468   2.168   9.540  11.338
82543SOL    HW249469   2.081   9.549  11.461
82544SOL     OW49470  14.027  12.618   9.980
82544SOL    HW149471  13.982  12.549   9.932
82544SOL    HW249472  13.963  12.650  10.043
82545SOL     OW49473   8.532   4.165   4.100
82545SOL    HW149474   8.521   4.207   4.186
82545SOL    HW249475   8.553   4.074   4.120
82546SOL     OW49476  10.410   4.309   6.174
82546SOL    HW149477  10.410   4.400   6.206
82546SOL    HW249478  10.409   4.256   6.253
82547SOL     OW49479   9.212   5.102   6.913
82547SOL    HW149480   9.271   5.113   6.839
82547SOL    HW249481   9.251   5.032   6.965
82548SOL     OW49482  12.323   1.515   0.595
82548SOL    HW149483  12.370   1.503   0.512
82548SOL    HW249484  12.314   1.610   0.603
82549SOL     OW49485   9.095   7.804   7.661
82549SOL    HW149486   9.079   7.878   7.720
82549SOL    HW249487   9.133   7.843   7.582
82550SOL     OW49488  13.020   2.190   0.365
82550SOL    HW149489  12.967   2.264   0.336
82550SOL    HW249490  13.051   2.215   0.452
82551SOL     OW49491   3.162   6.869   4.104
82551SOL    HW149492   3.227   6.924   4.149
82551SOL    HW249493   3.180   6.883   4.011
82552SOL     OW49494   7.636  14.212  14.722
82552SOL    HW149495   7.547  14.189  14.694
82552SOL    HW249496   7.623  14.267  14.799
82553SOL     OW49497   0.040   2.387   6.559
82553SOL    HW149498   0.103   2.356   6.495
82553SOL    HW249499   0.021   2.477   6.531
82554SOL     OW49500  14.725  10.451  14.602
82554SOL    HW149501  14.638  10.491  14.598
82554SOL    HW249502  14.708  10.357  14.600
82555SOL     OW49503  11.874  13.638   0.808
82555SOL    HW149504  11.935  13.710   0.790
82555SOL    HW249505  11.851  13.649   0.900
82556SOL     OW49506   8.635  13.970   6.547
82556SOL    HW149507   8.628  13.891   6.493
82556SOL    HW249508   8.688  14.030   6.495
82557SOL     OW49509   4.721   3.719   3.643
82557SOL    HW149510   4.803   3.672   3.628
82557SOL    HW249511   4.677   3.670   3.712
82558SOL     OW49512   6.727   0.902   0.513
82558SOL    HW149513   6.758   0.918   0.602
82558SOL    HW249514   6.750   0.982   0.466
82559SOL     OW49515   3.143   5.924  10.374
82559SOL    HW149516   3.073   5.990  10.372
82559SOL    HW249517   3.130   5.874  10.293
82560SOL     OW49518  14.474   5.947   2.514
82560SOL    HW149519  14.424   5.875   2.476
82560SOL    HW249520  14.565   5.917   2.513
82561SOL     OW49521   6.201   6.576   1.390
82561SOL    HW149522   6.140   6.549   1.321
82561SOL    HW249523   6.266   6.630   1.345
82562SOL     OW49524   5.711   8.478  14.609
82562SOL    HW149525   5.761   8.446  14.534
82562SOL    HW249526   5.756   8.441  14.685
82563SOL     OW49527  12.164  12.835  14.306
82563SOL    HW149528  12.260  12.833  14.311
82563SOL    HW249529  12.143  12.786  14.227
82564SOL     OW49530   2.141   9.857   0.022
82564SOL    HW149531   2.200   9.839   0.095
82564SOL    HW249532   2.111   9.771  14.868
82565SOL     OW49533  13.641  11.911   4.017
82565SOL    HW149534  13.605  11.826   4.042
82565SOL    HW249535  13.734  11.906   4.041
82566SOL     OW49536   2.433  10.604  12.983
82566SOL    HW149537   2.355  10.612  12.929
82566SOL    HW249538   2.426  10.517  13.023
82567SOL     OW49539  14.807   5.610   6.398
82567SOL    HW149540  14.763   5.598   6.314
82567SOL    HW249541  14.797   5.703   6.417
82568SOL     OW49542   2.398  10.395   0.088
82568SOL    HW149543   2.312  10.353   0.080
82568SOL    HW249544   2.389  10.478   0.042
82569SOL     OW49545   1.528   2.809   0.257
82569SOL    HW149546   1.449   2.775   0.300
82569SOL    HW249547   1.504   2.896   0.227
82570SOL     OW49548   5.508  13.911   0.160
82570SOL    HW149549   5.415  13.912   0.135
82570SOL    HW249550   5.509  13.950   0.248
82571SOL     OW49551  10.372   6.992   3.964
82571SOL    HW149552  10.377   7.047   3.886
82571SOL    HW249553  10.407   7.046   4.035
82572SOL     OW49554   3.451   7.365  11.240
82572SOL    HW149555   3.495   7.438  11.284
82572SOL    HW249556   3.513   7.292  11.245
82573SOL     OW49557   1.329  10.540   8.307
82573SOL    HW149558   1.323  10.508   8.397
82573SOL    HW249559   1.271  10.616   8.305
82574SOL     OW49560   6.384  14.536  11.429
82574SOL    HW149561   6.469  14.527  11.387
82574SOL    HW249562   6.393  14.491  11.513
82575SOL     OW49563   2.606   5.354   2.785
82575SOL    HW149564   2.559   5.375   2.866
82575SOL    HW249565   2.686   5.406   2.789
82576SOL     OW49566  11.209  13.973  12.865
82576SOL    HW149567  11.164  13.901  12.909
82576SOL    HW249568  11.197  13.956  12.772
82577SOL     OW49569   1.478   4.028   7.519
82577SOL    HW149570   1.474   4.120   7.493
82577SOL    HW249571   1.519   4.030   7.606
82578SOL     OW49572   1.012   8.009  13.708
82578SOL    HW149573   0.953   7.968  13.772
82578SOL    HW249574   0.980   7.979  13.623
82579SOL     OW49575  13.586   4.493   8.038
82579SOL    HW149576  13.521   4.424   8.027
82579SOL    HW249577  13.577   4.548   7.961
82580SOL     OW49578   4.573   3.653   0.939
82580SOL    HW149579   4.602   3.615   1.022
82580SOL    HW249580   4.607   3.742   0.940
82581SOL     OW49581  11.036   2.932   6.742
82581SOL    HW149582  11.015   2.842   6.716
82581SOL    HW249583  11.003   2.940   6.832
82582SOL     OW49584   7.968   1.369  12.804
82582SOL    HW149585   7.946   1.354  12.712
82582SOL    HW249586   7.925   1.297  12.850
82583SOL     OW49587   8.625   1.757  11.438
82583SOL    HW149588   8.592   1.694  11.502
82583SOL    HW249589   8.662   1.702  11.368
82584SOL     OW49590   4.562   6.712  11.496
82584SOL    HW149591   4.634   6.770  11.468
82584SOL    HW249592   4.603   6.650  11.557
82585SOL     OW49593   1.386  13.821   9.178
82585SOL    HW149594   1.346  13.907   9.189
82585SOL    HW249595   1.342  13.765   9.242
82586SOL     OW49596   3.539   8.412   2.521
82586SOL    HW149597   3.495   8.351   2.579
82586SOL    HW249598   3.509   8.498   2.549
82587SOL     OW49599   5.218  14.625  11.030
82587SOL    HW149600   5.281  14.665  10.969
82587SOL    HW249601   5.201  14.694  11.095
82588SOL     OW49602   5.182   4.461  11.987
82588SOL    HW149603   5.223   4.485  12.070
82588SOL    HW249604   5.179   4.543  11.937
82589SOL     OW49605   8.921   1.784   9.887
82589SOL    HW149606   8.939   1.719   9.955
82589SOL    HW249607   8.835   1.819   9.909
82590SOL     OW49608  13.257   6.779  14.232
82590SOL    HW149609  13.332   6.784  14.291
82590SOL    HW249610  13.217   6.694  14.252
82591SOL     OW49611   3.893   0.185   2.095
82591SOL    HW149612   3.897   0.157   2.004
82591SOL    HW249613   3.892   0.103   2.145
82592SOL     OW49614  14.337   9.145   9.405
82592SOL    HW149615  14.297   9.187   9.328
82592SOL    HW249616  14.282   9.068   9.420
82593SOL     OW49617   0.035   4.204   5.191
82593SOL    HW149618   0.075   4.271   5.136
82593SOL    HW249619   0.021   4.248   5.275
82594SOL     OW49620  14.000   3.753  11.943
82594SOL    HW149621  14.000   3.794  12.030
82594SOL    HW249622  14.092   3.757  11.915
82595SOL     OW49623  11.811  12.158  10.870
82595SOL    HW149624  11.798  12.242  10.914
82595SOL    HW249625  11.904  12.138  10.884
82596SOL     OW49626  10.495   4.436  13.871
82596SOL    HW149627  10.551   4.379  13.923
82596SOL    HW249628  10.555   4.486  13.816
82597SOL     OW49629  13.810   3.264   3.851
82597SOL    HW149630  13.891   3.235   3.892
82597SOL    HW249631  13.761   3.308   3.921
82598SOL     OW49632  12.316  10.924   6.080
82598SOL    HW149633  12.399  10.918   6.128
82598SOL    HW249634  12.279  11.009   6.107
82599SOL     OW49635   4.941   8.340   7.136
82599SOL    HW149636   4.978   8.264   7.181
82599SOL    HW249637   5.015   8.399   7.122
82600SOL     OW49638   6.629  12.352   5.769
82600SOL    HW149639   6.674  12.429   5.803
82600SOL    HW249640   6.537  12.379   5.762
82601SOL     OW49641   2.855  11.048   0.829
82601SOL    HW149642   2.929  11.039   0.889
82601SOL    HW249643   2.781  11.069   0.885
82602SOL     OW49644   5.651   5.932   3.372
82602SOL    HW149645   5.638   5.960   3.462
82602SOL    HW249646   5.705   6.001   3.332
82603SOL     OW49647  11.799   9.738   2.120
82603SOL    HW149648  11.769   9.819   2.161
82603SOL    HW249649  11.789   9.671   2.188
82604SOL     OW49650  11.836   7.783   2.428
82604SOL    HW149651  11.818   7.707   2.372
82604SOL    HW249652  11.782   7.853   2.390
82605SOL     OW49653  11.560   9.013  14.717
82605SOL    HW149654  11.542   9.100  14.682
82605SOL    HW249655  11.625   8.976  14.658
82606SOL     OW49656  12.052  13.556   5.113
82606SOL    HW149657  12.131  13.510   5.142
82606SOL    HW249658  12.010  13.585   5.194
82607SOL     OW49659  13.773  12.954  12.441
82607SOL    HW149660  13.818  12.943  12.357
82607SOL    HW249661  13.742  13.044  12.439
82608SOL     OW49662  14.215   4.199   3.338
82608SOL    HW149663  14.178   4.243   3.262
82608SOL    HW249664  14.199   4.106   3.322
82609SOL     OW49665   1.982   5.244   4.257
82609SOL    HW149666   1.933   5.316   4.296
82609SOL    HW249667   2.058   5.286   4.216
82610SOL     OW49668  10.266  13.258   0.914
82610SOL    HW149669  10.275  13.254   0.819
82610SOL    HW249670  10.227  13.174   0.938
82611SOL     OW49671   7.142   1.724   7.427
82611SOL    HW149672   7.180   1.811   7.423
82611SOL    HW249673   7.216   1.664   7.416
82612SOL     OW49674   7.237   1.595   7.758
82612SOL    HW149675   7.282   1.517   7.791
82612SOL    HW249676   7.145   1.571   7.756
82613SOL     OW49677  10.438   5.925   0.482
82613SOL    HW149678  10.392   5.958   0.405
82613SOL    HW249679  10.392   5.965   0.556
82614SOL     OW49680  11.075   1.060   9.011
82614SOL    HW149681  11.058   1.069   9.104
82614SOL    HW249682  11.095   0.968   8.998
82615SOL     OW49683   5.643   7.422   6.676
82615SOL    HW149684   5.663   7.419   6.583
82615SOL    HW249685   5.593   7.503   6.688
82616SOL     OW49686   4.989  13.185  11.161
82616SOL    HW149687   4.923  13.190  11.091
82616SOL    HW249688   4.986  13.094  11.190
82617SOL     OW49689  13.114  13.880   5.573
82617SOL    HW149690  13.131  13.939   5.646
82617SOL    HW249691  13.177  13.906   5.506
82618SOL     OW49692  14.672   1.136  13.095
82618SOL    HW149693  14.589   1.150  13.141
82618SOL    HW249694  14.653   1.062  13.037
82619SOL     OW49695  12.117   0.787   5.791
82619SOL    HW149696  12.178   0.729   5.745
82619SOL    HW249697  12.046   0.730   5.820
82620SOL     OW49698   4.680   9.565   1.456
82620SOL    HW149699   4.710   9.601   1.372
82620SOL    HW249700   4.695   9.471   1.448
82621SOL     OW49701   7.649   2.635   5.672
82621SOL    HW149702   7.665   2.579   5.747
82621SOL    HW249703   7.562   2.609   5.641
82622SOL     OW49704   7.547   7.458   1.544
82622SOL    HW149705   7.598   7.490   1.619
82622SOL    HW249706   7.569   7.365   1.539
82623SOL     OW49707   7.940   6.219   6.525
82623SOL    HW149708   7.941   6.211   6.429
82623SOL    HW249709   7.973   6.134   6.556
82624SOL     OW49710   2.407   3.465  11.172
82624SOL    HW149711   2.502   3.480  11.173
82624SOL    HW249712   2.390   3.429  11.085
82625SOL     OW49713   3.658   6.222  12.412
82625SOL    HW149714   3.651   6.304  12.365
82625SOL    HW249715   3.581   6.172  12.385
82626SOL     OW49716   3.073  13.592   2.466
82626SOL    HW149717   3.032  13.509   2.491
82626SOL    HW249718   3.137  13.568   2.399
82627SOL     OW49719   3.804  14.364  12.396
82627SOL    HW149720   3.789  14.447  12.441
82627SOL    HW249721   3.871  14.320  12.448
82628SOL     OW49722  12.067  12.769   4.266
82628SOL    HW149723  12.145  12.721   4.295
82628SOL    HW249724  12.087  12.860   4.286
82629SOL     OW49725   1.811  11.535  13.204
82629SOL    HW149726   1.831  11.442  13.213
82629SOL    HW249727   1.885  11.580  13.246
82630SOL     OW49728   5.126  12.671   2.710
82630SOL    HW149729   5.067  12.745   2.724
82630SOL    HW249730   5.121  12.621   2.792
82631SOL     OW49731   3.050   1.763   3.522
82631SOL    HW149732   3.106   1.828   3.480
82631SOL    HW249733   3.060   1.685   3.469
82632SOL     OW49734  10.381   6.551  10.142
82632SOL    HW149735  10.431   6.556  10.224
82632SOL    HW249736  10.382   6.458  10.119
82633SOL     OW49737  10.509  11.826  10.671
82633SOL    HW149738  10.603  11.815  10.682
82633SOL    HW249739  10.500  11.909  10.624
82634SOL     OW49740   6.191  13.886   5.478
82634SOL    HW149741   6.147  13.801   5.487
82634SOL    HW249742   6.196  13.919   5.568
82635SOL     OW49743   3.360   6.894   8.201
82635SOL    HW149744   3.339   6.984   8.228
82635SOL    HW249745   3.319   6.884   8.115
82636SOL     OW49746   8.390   7.621   5.743
82636SOL    HW149747   8.483   7.599   5.739
82636SOL    HW249748   8.354   7.563   5.810
82637SOL     OW49749   2.272   9.051   5.759
82637SOL    HW149750   2.363   9.036   5.735
82637SOL    HW249751   2.230   8.965   5.747
82638SOL     OW49752   4.481  13.064   5.124
82638SOL    HW149753   4.393  13.047   5.158
82638SOL    HW249754   4.477  13.154   5.092
82639SOL     OW49755  11.182   3.828  13.437
82639SOL    HW149756  11.088   3.845  13.424
82639SOL    HW249757  11.185   3.737  13.466
82640SOL     OW49758   4.899   6.800  10.055
82640SOL    HW149759   4.966   6.821   9.990
82640SOL    HW249760   4.872   6.884  10.090
82641SOL     OW49761   4.772  12.122   9.595
82641SOL    HW149762   4.730  12.113   9.681
82641SOL    HW249763   4.712  12.178   9.545
82642SOL     OW49764  11.706   2.358   8.184
82642SOL    HW149765  11.645   2.318   8.122
82642SOL    HW249766  11.738   2.437   8.140
82643SOL     OW49767   2.117  10.081   1.964
82643SOL    HW149768   2.124  10.039   1.879
82643SOL    HW249769   2.088  10.170   1.945
82644SOL     OW49770  13.455   2.017  11.733
82644SOL    HW149771  13.408   2.068  11.799
82644SOL    HW249772  13.434   1.926  11.754
82645SOL     OW49773  11.184   7.416   6.219
82645SOL    HW149774  11.226   7.445   6.299
82645SOL    HW249775  11.225   7.332   6.199
82646SOL     OW49776   9.862   6.404  11.265
82646SOL    HW149777   9.807   6.363  11.198
82646SOL    HW249778   9.824   6.375  11.348
82647SOL     OW49779   2.795   2.073  12.767
82647SOL    HW149780   2.738   2.150  12.759
82647SOL    HW249781   2.739   2.006  12.805
82648SOL     OW49782  12.430  11.033   9.081
82648SOL    HW149783  12.482  10.992   9.150
82648SOL    HW249784  12.482  11.021   9.002
82649SOL     OW49785   9.124   5.966  10.943
82649SOL    HW149786   9.093   6.034  11.003
82649SOL    HW249787   9.211   5.995  10.917
82650SOL     OW49788   8.063   1.350   7.007
82650SOL    HW149789   8.137   1.401   6.973
82650SOL    HW249790   8.100   1.302   7.082
82651SOL     OW49791  11.713  10.878   0.832
82651SOL    HW149792  11.669  10.830   0.761
82651SOL    HW249793  11.683  10.835   0.912
82652SOL     OW49794   8.506  13.255   9.861
82652SOL    HW149795   8.587  13.304   9.848
82652SOL    HW249796   8.480  13.274   9.951
82653SOL     OW49797   7.338  12.878   6.895
82653SOL    HW149798   7.264  12.883   6.834
82653SOL    HW249799   7.314  12.809   6.957
82654SOL     OW49800   6.521   3.859   0.733
82654SOL    HW149801   6.430   3.852   0.706
82654SOL    HW249802   6.531   3.949   0.763
82655SOL     OW49803  11.740   2.538  12.543
82655SOL    HW149804  11.704   2.613  12.495
82655SOL    HW249805  11.704   2.461  12.498
82656SOL     OW49806   4.220   4.423   0.714
82656SOL    HW149807   4.235   4.329   0.720
82656SOL    HW249808   4.189   4.448   0.802
82657SOL     OW49809  13.539  11.680  12.061
82657SOL    HW149810  13.537  11.677  12.157
82657SOL    HW249811  13.632  11.678  12.039
82658SOL     OW49812  12.874   1.327  13.982
82658SOL    HW149813  12.818   1.312  13.906
82658SOL    HW249814  12.961   1.344  13.946
82659SOL     OW49815   7.596   1.361   7.454
82659SOL    HW149816   7.552   1.302   7.392
82659SOL    HW249817   7.665   1.308   7.493
82660SOL     OW49818  10.016   8.768   2.797
82660SOL    HW149819  10.049   8.700   2.739
82660SOL    HW249820  10.066   8.846   2.774
82661SOL     OW49821  11.560   6.259  12.532
82661SOL    HW149822  11.592   6.349  12.534
82661SOL    HW249823  11.467   6.268  12.509
82662SOL     OW49824   6.819   3.011   0.772
82662SOL    HW149825   6.827   3.054   0.857
82662SOL    HW249826   6.732   2.970   0.775
82663SOL     OW49827   2.544  14.703   3.189
82663SOL    HW149828   2.633  14.727   3.164
82663SOL    HW249829   2.491  14.723   3.111
82664SOL     OW49830   0.966  11.010  11.350
82664SOL    HW149831   1.035  11.057  11.396
82664SOL    HW249832   0.891  11.010  11.410
82665SOL     OW49833   1.384  13.038  10.812
82665SOL    HW149834   1.461  12.987  10.787
82665SOL    HW249835   1.345  13.064  10.729
82666SOL     OW49836   1.413   7.577   4.633
82666SOL    HW149837   1.498   7.586   4.675
82666SOL    HW249838   1.425   7.614   4.546
82667SOL     OW49839   4.721  13.275   3.862
82667SOL    HW149840   4.747  13.191   3.901
82667SOL    HW249841   4.676  13.252   3.781
82668SOL     OW49842   7.247   1.907   4.743
82668SOL    HW149843   7.208   1.832   4.697
82668SOL    HW249844   7.246   1.978   4.678
82669SOL     OW49845   6.451   5.774  13.298
82669SOL    HW149846   6.425   5.824  13.220
82669SOL    HW249847   6.506   5.833  13.348
82670SOL     OW49848  13.217  11.109  12.934
82670SOL    HW149849  13.184  11.179  12.992
82670SOL    HW249850  13.160  11.113  12.857
82671SOL     OW49851   5.748  11.813   9.739
82671SOL    HW149852   5.707  11.772   9.815
82671SOL    HW249853   5.770  11.741   9.680
82672SOL     OW49854  12.960  13.973  10.940
82672SOL    HW149855  13.021  13.911  10.900
82672SOL    HW249856  12.904  13.919  10.996
82673SOL     OW49857  12.911   5.665   7.219
82673SOL    HW149858  12.923   5.574   7.192
82673SOL    HW249859  12.842   5.661   7.286
82674SOL     OW49860   1.030   1.949   3.502
82674SOL    HW149861   0.943   1.937   3.465
82674SOL    HW249862   1.051   1.865   3.543
82675SOL     OW49863  12.272  13.144   6.811
82675SOL    HW149864  12.277  13.067   6.866
82675SOL    HW249865  12.314  13.213   6.862
82676SOL     OW49866   7.681   9.372  14.476
82676SOL    HW149867   7.679   9.277  14.474
82676SOL    HW249868   7.589   9.398  14.480
82677SOL     OW49869  12.357  12.057  12.978
82677SOL    HW149870  12.443  12.100  12.971
82677SOL    HW249871  12.294  12.126  12.958
82678SOL     OW49872   5.507   8.569   4.709
82678SOL    HW149873   5.550   8.486   4.687
82678SOL    HW249874   5.428   8.570   4.655
82679SOL     OW49875  13.747  12.404   9.488
82679SOL    HW149876  13.655  12.418   9.468
82679SOL    HW249877  13.786  12.491   9.486
82680SOL     OW49878  12.192   9.141   3.586
82680SOL    HW149879  12.116   9.105   3.632
82680SOL    HW249880  12.176   9.121   3.494
82681SOL     OW49881  14.535   5.363   9.033
82681SOL    HW149882  14.522   5.273   9.004
82681SOL    HW249883  14.629   5.377   9.030
82682SOL     OW49884   1.551   8.219   2.496
82682SOL    HW149885   1.490   8.183   2.561
82682SOL    HW249886   1.637   8.193   2.527
82683SOL     OW49887   6.936   8.441  10.808
82683SOL    HW149888   6.989   8.519  10.820
82683SOL    HW249889   6.877   8.440  10.884
82684SOL     OW49890   3.603  12.371  12.915
82684SOL    HW149891   3.698  12.378  12.922
82684SOL    HW249892   3.574  12.459  12.892
82685SOL     OW49893   3.760   0.234  12.070
82685SOL    HW149894   3.672   0.271  12.071
82685SOL    HW249895   3.772   0.199  12.158
82686SOL     OW49896   3.029  13.527   9.969
82686SOL    HW149897   3.023  13.582  10.047
82686SOL    HW249898   3.089  13.457   9.993
82687SOL     OW49899   6.098  10.863   3.850
82687SOL    HW149900   6.116  10.897   3.762
82687SOL    HW249901   6.007  10.886   3.866
82688SOL     OW49902   5.572   0.237   4.799
82688SOL    HW149903   5.614   0.278   4.875
82688SOL    HW249904   5.488   0.282   4.791
82689SOL     OW49905   7.819   4.691   9.261
82689SOL    HW149906   7.836   4.784   9.247
82689SOL    HW249907   7.797   4.685   9.354
82690SOL     OW49908   1.319   2.315   4.111
82690SOL    HW149909   1.378   2.290   4.039
82690SOL    HW249910   1.320   2.411   4.111
82691SOL     OW49911   5.746   9.000   6.731
82691SOL    HW149912   5.841   9.009   6.735
82691SOL    HW249913   5.713   9.089   6.741
82692SOL     OW49914   2.587   5.124  12.874
82692SOL    HW149915   2.666   5.100  12.923
82692SOL    HW249916   2.538   5.180  12.933
82693SOL     OW49917  11.471  10.653   8.218
82693SOL    HW149918  11.429  10.567   8.218
82693SOL    HW249919  11.527  10.653   8.296
82694SOL     OW49920  13.151   7.628   1.775
82694SOL    HW149921  13.095   7.702   1.751
82694SOL    HW249922  13.209   7.663   1.843
82695SOL     OW49923   4.760  10.763   8.320
82695SOL    HW149924   4.851  10.793   8.316
82695SOL    HW249925   4.749  10.707   8.244
82696SOL     OW49926  12.749   8.345  14.851
82696SOL    HW149927  12.690   8.310  14.785
82696SOL    HW249928  12.706   8.327   0.060
82697SOL     OW49929   8.333   8.515   4.721
82697SOL    HW149930   8.248   8.556   4.733
82697SOL    HW249931   8.361   8.492   4.810
82698SOL     OW49932   1.587   6.083  12.882
82698SOL    HW149933   1.566   6.151  12.946
82698SOL    HW249934   1.521   6.092  12.814
82699SOL     OW49935   4.414  11.994   3.555
82699SOL    HW149936   4.363  11.942   3.617
82699SOL    HW249937   4.424  11.937   3.479
82700SOL     OW49938   7.549  14.349   6.176
82700SOL    HW149939   7.626  14.365   6.121
82700SOL    HW249940   7.524  14.435   6.209
82701SOL     OW49941   0.833  10.960  10.863
82701SOL    HW149942   0.823  10.866  10.881
82701SOL    HW249943   0.899  10.964  10.795
82702SOL     OW49944   9.491  10.441   5.166
82702SOL    HW149945   9.458  10.352   5.163
82702SOL    HW249946   9.418  10.495   5.135
82703SOL     OW49947   3.302  13.589  13.268
82703SOL    HW149948   3.286  13.555  13.180
82703SOL    HW249949   3.364  13.660  13.255
82704SOL     OW49950   3.086   9.168  10.762
82704SOL    HW149951   3.044   9.206  10.839
82704SOL    HW249952   3.112   9.244  10.709
82705SOL     OW49953   7.288   5.871   1.270
82705SOL    HW149954   7.274   5.813   1.345
82705SOL    HW249955   7.274   5.959   1.303
82706SOL     OW49956   9.041   5.107  13.555
82706SOL    HW149957   9.027   5.158  13.635
82706SOL    HW249958   9.126   5.135  13.523
82707SOL     OW49959   4.707   6.570  11.681
82707SOL    HW149960   4.748   6.495  11.724
82707SOL    HW249961   4.743   6.646  11.726
82708SOL     OW49962   1.098   3.728  14.220
82708SOL    HW149963   1.030   3.703  14.158
82708SOL    HW249964   1.152   3.650  14.229
82709SOL     OW49965   5.668   8.156  14.523
82709SOL    HW149966   5.618   8.231  14.490
82709SOL    HW249967   5.679   8.099  14.447
82710SOL     OW49968   0.381   0.391   6.564
82710SOL    HW149969   0.349   0.301   6.555
82710SOL    HW249970   0.373   0.428   6.475
82711SOL     OW49971  10.177   8.384   5.723
82711SOL    HW149972  10.236   8.345   5.659
82711SOL    HW249973  10.227   8.384   5.805
82712SOL     OW49974  10.930   5.643   1.972
82712SOL    HW149975  11.026   5.640   1.967
82712SOL    HW249976  10.901   5.614   1.885
82713SOL     OW49977   7.712  13.584  13.563
82713SOL    HW149978   7.656  13.533  13.622
82713SOL    HW249979   7.788  13.606  13.616
82714SOL     OW49980  12.652   8.533  13.901
82714SOL    HW149981  12.593   8.484  13.959
82714SOL    HW249982  12.700   8.465  13.854
82715SOL     OW49983   8.670   0.934   5.429
82715SOL    HW149984   8.610   1.006   5.410
82715SOL    HW249985   8.757   0.973   5.422
82716SOL     OW49986   1.892  10.848   4.199
82716SOL    HW149987   1.940  10.802   4.268
82716SOL    HW249988   1.858  10.778   4.143
82717SOL     OW49989   2.479   4.317  10.912
82717SOL    HW149990   2.465   4.238  10.963
82717SOL    HW249991   2.448   4.295  10.824
82718SOL     OW49992   1.676   9.671   5.172
82718SOL    HW149993   1.623   9.638   5.244
82718SOL    HW249994   1.689   9.595   5.115
82719SOL     OW49995  11.498   2.373   4.699
82719SOL    HW149996  11.415   2.326   4.707
82719SOL    HW249997  11.531   2.381   4.788
82720SOL     OW49998   5.686   8.782  13.200
82720SOL    HW149999   5.765   8.829  13.173
82720SOL    HW250000   5.718   8.712  13.257
82721SOL     OW50001   2.601  10.666   7.983
82721SOL    HW150002   2.695  10.658   7.997
82721SOL    HW250003   2.585  10.760   7.974
82722SOL     OW50004   8.341  12.986   1.224
82722SOL    HW150005   8.338  12.898   1.185
82722SOL    HW250006   8.301  12.975   1.311
82723SOL     OW50007   0.508  10.517   2.065
82723SOL    HW150008   0.539  10.448   2.006
82723SOL    HW250009   0.415  10.524   2.046
82724SOL     OW50010  12.488   9.585   2.712
82724SOL    HW150011  12.451   9.502   2.740
82724SOL    HW250012  12.490   9.638   2.791
82725SOL     OW50013  10.588   2.408  14.548
82725SOL    HW150014  10.656   2.475  14.548
82725SOL    HW250015  10.591   2.370  14.635
82726SOL     OW50016  11.426   1.320   1.110
82726SOL    HW150017  11.480   1.245   1.136
82726SOL    HW250018  11.336   1.290   1.124
82727SOL     OW50019  14.262   1.752   6.937
82727SOL    HW150020  14.301   1.781   7.019
82727SOL    HW250021  14.185   1.701   6.963
82728SOL     OW50022   5.574   8.322   6.635
82728SOL    HW150023   5.543   8.411   6.653
82728SOL    HW250024   5.638   8.333   6.564
82729SOL     OW50025   2.356   4.516   8.134
82729SOL    HW150026   2.357   4.483   8.044
82729SOL    HW250027   2.270   4.491   8.168
82730SOL     OW50028   7.461  11.305   7.809
82730SOL    HW150029   7.432  11.356   7.885
82730SOL    HW250030   7.472  11.216   7.842
82731SOL     OW50031   5.637   6.077   8.326
82731SOL    HW150032   5.665   6.102   8.414
82731SOL    HW250033   5.543   6.093   8.325
82732SOL     OW50034  12.235   3.817  13.535
82732SOL    HW150035  12.329   3.800  13.529
82732SOL    HW250036  12.207   3.828  13.444
82733SOL     OW50037  10.060  12.834   2.849
82733SOL    HW150038   9.983  12.797   2.893
82733SOL    HW250039  10.053  12.803   2.759
82734SOL     OW50040   5.213   0.619  11.205
82734SOL    HW150041   5.130   0.575  11.189
82734SOL    HW250042   5.190   0.697  11.256
82735SOL     OW50043  11.939   1.355   0.773
82735SOL    HW150044  12.031   1.353   0.799
82735SOL    HW250045  11.941   1.392   0.684
82736SOL     OW50046   1.407   5.426   7.877
82736SOL    HW150047   1.314   5.408   7.896
82736SOL    HW250048   1.439   5.344   7.840
82737SOL     OW50049  11.799   4.272   9.951
82737SOL    HW150050  11.706   4.289   9.965
82737SOL    HW250051  11.834   4.355   9.920
82738SOL     OW50052  10.290  14.119  10.530
82738SOL    HW150053  10.213  14.078  10.490
82738SOL    HW250054  10.269  14.212  10.530
82739SOL     OW50055   6.297  13.116   9.137
82739SOL    HW150056   6.228  13.055   9.113
82739SOL    HW250057   6.284  13.131   9.231
82740SOL     OW50058   0.309   0.583  12.170
82740SOL    HW150059   0.397   0.612  12.145
82740SOL    HW250060   0.258   0.664  12.175
82741SOL     OW50061  14.664   8.410   8.935
82741SOL    HW150062  14.573   8.430   8.960
82741SOL    HW250063  14.659   8.326   8.889
82742SOL     OW50064   2.632  11.984   0.038
82742SOL    HW150065   2.553  11.942   0.005
82742SOL    HW250066   2.600  12.049   0.101
82743SOL     OW50067   0.196   4.412   4.136
82743SOL    HW150068   0.110   4.378   4.111
82743SOL    HW250069   0.229   4.351   4.201
82744SOL     OW50070  11.370   2.092   8.574
82744SOL    HW150071  11.283   2.102   8.536
82744SOL    HW250072  11.430   2.127   8.508
82745SOL     OW50073   1.887   7.128  12.282
82745SOL    HW150074   1.840   7.078  12.215
82745SOL    HW250075   1.973   7.146  12.242
82746SOL     OW50076  14.256   2.711   3.361
82746SOL    HW150077  14.333   2.746   3.315
82746SOL    HW250078  14.185   2.771   3.339
82747SOL     OW50079  13.062  13.697   2.802
82747SOL    HW150080  13.041  13.630   2.737
82747SOL    HW250081  13.075  13.776   2.751
82748SOL     OW50082  11.188   6.426   5.585
82748SOL    HW150083  11.280   6.453   5.583
82748SOL    HW250084  11.140   6.502   5.551
82749SOL     OW50085  13.488   7.033   0.859
82749SOL    HW150086  13.568   7.042   0.910
82749SOL    HW250087  13.433   7.107   0.885
82750SOL     OW50088   9.210   2.966   1.636
82750SOL    HW150089   9.127   2.976   1.590
82750SOL    HW250090   9.211   2.875   1.666
82751SOL     OW50091   1.836   0.656  11.804
82751SOL    HW150092   1.889   0.669  11.725
82751SOL    HW250093   1.791   0.573  11.789
82752SOL     OW50094   2.054   9.581  13.800
82752SOL    HW150095   2.138   9.611  13.835
82752SOL    HW250096   2.059   9.599  13.706
82753SOL     OW50097   2.133   8.556   9.996
82753SOL    HW150098   2.215   8.605   9.991
82753SOL    HW250099   2.065   8.622   9.995
82754SOL     OW50100   1.165   6.293   8.343
82754SOL    HW150101   1.208   6.309   8.259
82754SOL    HW250102   1.217   6.223   8.383
82755SOL     OW50103   6.318   1.024   0.011
82755SOL    HW150104   6.317   0.977   0.095
82755SOL    HW250105   6.266   0.969  14.826
82756SOL     OW50106  14.186   9.037  10.370
82756SOL    HW150107  14.140   9.002  10.294
82756SOL    HW250108  14.224   8.960  10.413
82757SOL     OW50109  14.746   9.623  14.141
82757SOL    HW150110  14.812   9.600  14.207
82757SOL    HW250111  14.688   9.685  14.185
82758SOL     OW50112   3.902   5.849  10.863
82758SOL    HW150113   3.985   5.855  10.815
82758SOL    HW250114   3.880   5.939  10.886
82759SOL     OW50115  10.095   2.922  12.043
82759SOL    HW150116  10.179   2.957  12.072
82759SOL    HW250117  10.087   2.951  11.953
82760SOL     OW50118   5.305   7.997   4.484
82760SOL    HW150119   5.272   8.085   4.497
82760SOL    HW250120   5.392   8.009   4.446
82761SOL     OW50121   3.494   1.282   4.554
82761SOL    HW150122   3.518   1.211   4.614
82761SOL    HW250123   3.535   1.359   4.591
82762SOL     OW50124   2.469   7.452   2.500
82762SOL    HW150125   2.535   7.513   2.534
82762SOL    HW250126   2.479   7.374   2.555
82763SOL     OW50127   5.544  13.316   7.410
82763SOL    HW150128   5.457  13.276   7.418
82763SOL    HW250129   5.597  13.249   7.367
82764SOL     OW50130   3.018   1.785   3.171
82764SOL    HW150131   3.050   1.748   3.253
82764SOL    HW250132   3.068   1.866   3.160
82765SOL     OW50133   2.285  12.723  10.603
82765SOL    HW150134   2.359  12.708  10.662
82765SOL    HW250135   2.254  12.811  10.626
82766SOL     OW50136   9.110   2.803  14.178
82766SOL    HW150137   9.083   2.885  14.220
82766SOL    HW250138   9.028   2.757  14.161
82767SOL     OW50139  13.716   9.334   1.629
82767SOL    HW150140  13.770   9.256   1.614
82767SOL    HW250141  13.650   9.331   1.559
82768SOL     OW50142   3.624   3.555  11.576
82768SOL    HW150143   3.652   3.646  11.578
82768SOL    HW250144   3.588   3.538  11.663
82769SOL     OW50145   4.093  13.624   8.686
82769SOL    HW150146   4.026  13.560   8.662
82769SOL    HW250147   4.083  13.694   8.621
82770SOL     OW50148   5.096   0.460   9.842
82770SOL    HW150149   5.098   0.382   9.898
82770SOL    HW250150   5.025   0.444   9.781
82771SOL     OW50151  11.388   0.851   2.256
82771SOL    HW150152  11.414   0.828   2.167
82771SOL    HW250153  11.340   0.774   2.287
82772SOL     OW50154   5.998   8.777   4.549
82772SOL    HW150155   6.060   8.778   4.621
82772SOL    HW250156   5.950   8.860   4.557
82773SOL     OW50157   4.712   8.262   8.821
82773SOL    HW150158   4.698   8.312   8.901
82773SOL    HW250159   4.802   8.281   8.796
82774SOL     OW50160   6.468   5.079   6.519
82774SOL    HW150161   6.458   5.075   6.424
82774SOL    HW250162   6.532   5.011   6.540
82775SOL     OW50163  12.980  14.588   8.761
82775SOL    HW150164  13.051  14.648   8.740
82775SOL    HW250165  13.015  14.534   8.833
82776SOL     OW50166  10.994   4.559   9.702
82776SOL    HW150167  11.077   4.553   9.654
82776SOL    HW250168  10.983   4.473   9.741
82777SOL     OW50169  14.415   1.688  13.390
82777SOL    HW150170  14.489   1.708  13.333
82777SOL    HW250171  14.354   1.640  13.333
82778SOL     OW50172   2.353   4.789   4.927
82778SOL    HW150173   2.407   4.734   4.870
82778SOL    HW250174   2.326   4.862   4.872
82779SOL     OW50175   8.584   7.557  12.816
82779SOL    HW150176   8.499   7.556  12.861
82779SOL    HW250177   8.563   7.535  12.726
82780SOL     OW50178  10.839   0.741   3.559
82780SOL    HW150179  10.864   0.672   3.499
82780SOL    HW250180  10.903   0.811   3.543
82781SOL     OW50181   1.213   3.484   8.872
82781SOL    HW150182   1.158   3.540   8.818
82781SOL    HW250183   1.215   3.526   8.957
82782SOL     OW50184   2.506   6.755  14.583
82782SOL    HW150185   2.581   6.785  14.533
82782SOL    HW250186   2.511   6.659  14.579
82783SOL     OW50187   7.243  14.548  13.221
82783SOL    HW150188   7.309  14.482  13.198
82783SOL    HW250189   7.234  14.540  13.316
82784SOL     OW50190   2.887   3.360  10.399
82784SOL    HW150191   2.930   3.309  10.467
82784SOL    HW250192   2.910   3.451  10.418
82785SOL     OW50193   9.917   7.394   8.775
82785SOL    HW150194   9.905   7.313   8.725
82785SOL    HW250195   9.940   7.365   8.863
82786SOL     OW50196   9.918  11.568   5.023
82786SOL    HW150197   9.902  11.479   5.055
82786SOL    HW250198   9.919  11.621   5.103
82787SOL     OW50199  13.800  12.370  13.338
82787SOL    HW150200  13.795  12.399  13.429
82787SOL    HW250201  13.760  12.441  13.288
82788SOL     OW50202  10.272  11.578   2.273
82788SOL    HW150203  10.304  11.644   2.334
82788SOL    HW250204  10.210  11.625   2.217
82789SOL     OW50205  10.794   4.472  12.824
82789SOL    HW150206  10.722   4.471  12.760
82789SOL    HW250207  10.870   4.443  12.774
82790SOL     OW50208  13.518   2.385   0.151
82790SOL    HW150209  13.450   2.348   0.207
82790SOL    HW250210  13.574   2.310   0.129
82791SOL     OW50211   6.260  12.097   9.800
82791SOL    HW150212   6.286  12.080   9.891
82791SOL    HW250213   6.165  12.098   9.802
82792SOL     OW50214   4.590   4.084   4.568
82792SOL    HW150215   4.536   4.054   4.495
82792SOL    HW250216   4.541   4.059   4.646
82793SOL     OW50217  13.702   3.122  13.105
82793SOL    HW150218  13.714   3.157  13.193
82793SOL    HW250219  13.719   3.197  13.047
82794SOL     OW50220   5.089   9.254   5.650
82794SOL    HW150221   5.027   9.312   5.606
82794SOL    HW250222   5.100   9.180   5.590
82795SOL     OW50223   8.109  14.451   6.044
82795SOL    HW150224   8.193  14.490   6.070
82795SOL    HW250225   8.122  14.357   6.059
82796SOL     OW50226   4.757   1.809   1.394
82796SOL    HW150227   4.766   1.716   1.413
82796SOL    HW250228   4.845   1.838   1.372
82797SOL     OW50229   2.664   1.211   3.505
82797SOL    HW150230   2.581   1.234   3.547
82797SOL    HW250231   2.724   1.195   3.577
82798SOL     OW50232   2.587   6.873  12.515
82798SOL    HW150233   2.562   6.826  12.595
82798SOL    HW250234   2.675   6.905  12.533
82799SOL     OW50235   7.525   0.129   4.652
82799SOL    HW150236   7.482   0.046   4.673
82799SOL    HW250237   7.544   0.123   4.558
82800SOL     OW50238  11.792   8.754   6.777
82800SOL    HW150239  11.738   8.717   6.707
82800SOL    HW250240  11.877   8.769   6.736
82801SOL     OW50241   0.204  10.970   1.176
82801SOL    HW150242   0.199  10.875   1.191
82801SOL    HW250243   0.241  10.978   1.088
82802SOL     OW50244   0.681   8.866  10.706
82802SOL    HW150245   0.592   8.860  10.741
82802SOL    HW250246   0.670   8.912  10.622
82803SOL     OW50247  12.327   9.255   3.176
82803SOL    HW150248  12.355   9.181   3.231
82803SOL    HW250249  12.397   9.320   3.187
82804SOL     OW50250   2.129   5.330   0.732
82804SOL    HW150251   2.208   5.279   0.748
82804SOL    HW250252   2.057   5.271   0.755
82805SOL     OW50253   1.252  13.209   9.033
82805SOL    HW150254   1.222  13.226   8.944
82805SOL    HW250255   1.205  13.273   9.087
82806SOL     OW50256  12.194   5.924   2.931
82806SOL    HW150257  12.139   5.937   3.008
82806SOL    HW250258  12.267   5.985   2.944
82807SOL     OW50259  10.383   0.316   2.328
82807SOL    HW150260  10.443   0.326   2.402
82807SOL    HW250261  10.390   0.399   2.281
82808SOL     OW50262   7.987   2.340   5.343
82808SOL    HW150263   7.932   2.417   5.357
82808SOL    HW250264   7.994   2.300   5.430
82809SOL     OW50265   9.412   3.063   9.642
82809SOL    HW150266   9.349   2.993   9.627
82809SOL    HW250267   9.383   3.135   9.587
82810SOL     OW50268   4.218   6.480   6.791
82810SOL    HW150269   4.268   6.401   6.811
82810SOL    HW250270   4.145   6.478   6.852
82811SOL     OW50271  10.269  14.660   3.533
82811SOL    HW150272  10.235  14.581   3.575
82811SOL    HW250273  10.193  14.700   3.491
82812SOL     OW50274   5.415  14.628  11.824
82812SOL    HW150275   5.427  14.535  11.841
82812SOL    HW250276   5.500  14.659  11.795
82813SOL     OW50277   7.182   3.778  14.261
82813SOL    HW150278   7.177   3.736  14.347
82813SOL    HW250279   7.100   3.826  14.253
82814SOL     OW50280   2.140  11.627   2.681
82814SOL    HW150281   2.085  11.680   2.623
82814SOL    HW250282   2.085  11.611   2.758
82815SOL     OW50283   6.633  13.991   7.493
82815SOL    HW150284   6.620  13.919   7.432
82815SOL    HW250285   6.693  13.956   7.559
82816SOL     OW50286  11.233   1.107  10.787
82816SOL    HW150287  11.149   1.065  10.804
82816SOL    HW250288  11.237   1.179  10.850
82817SOL     OW50289   9.098  10.141   0.564
82817SOL    HW150290   9.085  10.216   0.622
82817SOL    HW250291   9.167  10.090   0.605
82818SOL     OW50292   0.137   9.354  13.192
82818SOL    HW150293   0.130   9.279  13.251
82818SOL    HW250294   0.217   9.339  13.142
82819SOL     OW50295   4.841   0.456   4.219
82819SOL    HW150296   4.865   0.497   4.302
82819SOL    HW250297   4.916   0.471   4.162
82820SOL     OW50298   2.818   5.961   8.737
82820SOL    HW150299   2.829   6.032   8.675
82820SOL    HW250300   2.724   5.961   8.756
82821SOL     OW50301  12.043  12.759   6.369
82821SOL    HW150302  12.053  12.832   6.308
82821SOL    HW250303  12.066  12.682   6.318
82822SOL     OW50304  13.693   2.082   9.053
82822SOL    HW150305  13.701   2.058   8.961
82822SOL    HW250306  13.616   2.035   9.083
82823SOL     OW50307   6.423   8.271  13.915
82823SOL    HW150308   6.511   8.287  13.881
82823SOL    HW250309   6.409   8.177  13.902
82824SOL     OW50310   0.872   3.507   6.583
82824SOL    HW150311   0.860   3.415   6.561
82824SOL    HW250312   0.936   3.506   6.654
82825SOL     OW50313  11.928   9.541   1.064
82825SOL    HW150314  11.976   9.619   1.038
82825SOL    HW250315  11.931   9.541   1.159
82826SOL     OW50316   8.093   0.050  13.432
82826SOL    HW150317   7.998   0.045  13.443
82826SOL    HW250318   8.127  14.847  13.477
82827SOL     OW50319  14.053  14.231   1.569
82827SOL    HW150320  14.064  14.154   1.513
82827SOL    HW250321  14.010  14.198   1.647
82828SOL     OW50322  14.052   7.977   1.231
82828SOL    HW150323  14.018   7.926   1.158
82828SOL    HW250324  14.012   7.937   1.309
82829SOL     OW50325   1.849  12.917   2.240
82829SOL    HW150326   1.782  12.866   2.194
82829SOL    HW250327   1.826  13.008   2.222
82830SOL     OW50328  13.318   1.406   6.523
82830SOL    HW150329  13.341   1.382   6.434
82830SOL    HW250330  13.235   1.452   6.515
82831SOL     OW50331   7.560   3.931   1.045
82831SOL    HW150332   7.467   3.913   1.037
82831SOL    HW250333   7.600   3.845   1.059
82832SOL     OW50334  14.831   3.231   9.559
82832SOL    HW150335  14.808   3.223   9.466
82832SOL    HW250336   0.030   3.293   9.560
82833SOL     OW50337  13.771   5.764   6.887
82833SOL    HW150338  13.746   5.845   6.931
82833SOL    HW250339  13.689   5.729   6.852
82834SOL     OW50340   1.980  13.411  13.449
82834SOL    HW150341   1.984  13.333  13.393
82834SOL    HW250342   1.997  13.378  13.537
82835SOL     OW50343  13.855   5.247  11.431
82835SOL    HW150344  13.926   5.240  11.367
82835SOL    HW250345  13.779   5.274  11.380
82836SOL     OW50346  14.650  12.402  10.108
82836SOL    HW150347  14.743  12.421  10.099
82836SOL    HW250348  14.631  12.341  10.037
82837SOL     OW50349  14.252   8.371  10.699
82837SOL    HW150350  14.347   8.361  10.702
82837SOL    HW250351  14.225   8.327  10.619
82838SOL     OW50352   3.559  13.413  10.806
82838SOL    HW150353   3.467  13.415  10.778
82838SOL    HW250354   3.579  13.503  10.830
82839SOL     OW50355   9.185  13.322   1.921
82839SOL    HW150356   9.155  13.349   1.834
82839SOL    HW250357   9.181  13.226   1.919
82840SOL     OW50358   0.939   8.606  11.776
82840SOL    HW150359   0.948   8.561  11.691
82840SOL    HW250360   0.879   8.678  11.758
82841SOL     OW50361  10.147   3.285  12.332
82841SOL    HW150362  10.069   3.240  12.300
82841SOL    HW250363  10.145   3.370  12.288
82842SOL     OW50364   7.144  12.114   0.843
82842SOL    HW150365   7.212  12.068   0.795
82842SOL    HW250366   7.191  12.178   0.896
82843SOL     OW50367   7.378   3.546   8.065
82843SOL    HW150368   7.399   3.476   8.127
82843SOL    HW250369   7.435   3.618   8.091
82844SOL     OW50370  11.770   4.877   6.390
82844SOL    HW150371  11.858   4.839   6.391
82844SOL    HW250372  11.750   4.891   6.297
82845SOL     OW50373   9.040   0.481  13.445
82845SOL    HW150374   9.039   0.505  13.538
82845SOL    HW250375   9.020   0.388  13.443
82846SOL     OW50376   5.515   1.240   0.834
82846SOL    HW150377   5.503   1.151   0.866
82846SOL    HW250378   5.596   1.270   0.876
82847SOL     OW50379   5.784  11.862   0.105
82847SOL    HW150380   5.721  11.826   0.043
82847SOL    HW250381   5.824  11.936   0.058
82848SOL     OW50382   3.252   4.901   5.980
82848SOL    HW150383   3.331   4.915   5.927
82848SOL    HW250384   3.180   4.929   5.923
82849SOL     OW50385   4.604   1.561   7.648
82849SOL    HW150386   4.549   1.487   7.622
82849SOL    HW250387   4.689   1.522   7.668
82850SOL     OW50388  13.211   5.144  11.215
82850SOL    HW150389  13.176   5.229  11.189
82850SOL    HW250390  13.190   5.137  11.308
82851SOL     OW50391   1.065   1.558   0.630
82851SOL    HW150392   1.044   1.530   0.541
82851SOL    HW250393   1.117   1.486   0.666
82852SOL     OW50394   1.479   6.843  14.134
82852SOL    HW150395   1.458   6.876  14.047
82852SOL    HW250396   1.530   6.912  14.175
82853SOL     OW50397   4.863   7.869   6.351
82853SOL    HW150398   4.792   7.808   6.375
82853SOL    HW250399   4.921   7.868   6.427
82854SOL     OW50400   6.263   1.583   6.350
82854SOL    HW150401   6.333   1.543   6.401
82854SOL    HW250402   6.252   1.671   6.387
82855SOL     OW50403   4.159  12.795   7.161
82855SOL    HW150404   4.086  12.745   7.196
82855SOL    HW250405   4.211  12.731   7.112
82856SOL     OW50406  10.787  11.775  10.682
82856SOL    HW150407  10.830  11.723  10.749
82856SOL    HW250408  10.856  11.796  10.619
82857SOL     OW50409  12.127   4.527  10.250
82857SOL    HW150410  12.102   4.435  10.253
82857SOL    HW250411  12.143   4.551  10.341
82858SOL     OW50412   4.502   0.933  10.274
82858SOL    HW150413   4.586   0.887  10.269
82858SOL    HW250414   4.446   0.875  10.327
82859SOL     OW50415  13.820  11.846  13.046
82859SOL    HW150416  13.827  11.777  13.113
82859SOL    HW250417  13.729  11.842  13.017
82860SOL     OW50418   7.859   7.243  13.228
82860SOL    HW150419   7.863   7.273  13.138
82860SOL    HW250420   7.772   7.205  13.238
82861SOL     OW50421  14.243   3.616   3.869
82861SOL    HW150422  14.287   3.647   3.790
82861SOL    HW250423  14.150   3.629   3.851
82862SOL     OW50424  10.902   7.612   9.113
82862SOL    HW150425  10.908   7.530   9.163
82862SOL    HW250426  10.826   7.657   9.151
82863SOL     OW50427  14.156   3.463   1.906
82863SOL    HW150428  14.223   3.524   1.877
82863SOL    HW250429  14.092   3.461   1.835
82864SOL     OW50430   3.519   3.560   0.010
82864SOL    HW150431   3.498   3.648   0.040
82864SOL    HW250432   3.613   3.551   0.023
82865SOL     OW50433  11.547  10.759   6.312
82865SOL    HW150434  11.507  10.748   6.226
82865SOL    HW250435  11.519  10.682   6.362
82866SOL     OW50436   7.612   5.843   5.322
82866SOL    HW150437   7.684   5.879   5.269
82866SOL    HW250438   7.538   5.839   5.262
82867SOL     OW50439   7.397  13.268   4.843
82867SOL    HW150440   7.362  13.179   4.851
82867SOL    HW250441   7.388  13.305   4.931
82868SOL     OW50442   9.771   7.362   5.241
82868SOL    HW150443   9.813   7.418   5.307
82868SOL    HW250444   9.677   7.369   5.260
82869SOL     OW50445   7.786  14.745   8.298
82869SOL    HW150446   7.794  14.809   8.369
82869SOL    HW250447   7.773  14.661   8.342
82870SOL     OW50448  13.386   2.902  14.570
82870SOL    HW150449  13.321   2.924  14.637
82870SOL    HW250450  13.374   2.809  14.554
82871SOL     OW50451   1.154  13.040  11.680
82871SOL    HW150452   1.065  13.053  11.713
82871SOL    HW250453   1.142  13.002  11.593
82872SOL     OW50454   9.578  10.677   2.012
82872SOL    HW150455   9.594  10.735   2.087
82872SOL    HW250456   9.616  10.593   2.039
82873SOL     OW50457  14.068   3.386  11.524
82873SOL    HW150458  13.985   3.378  11.572
82873SOL    HW250459  14.047   3.355  11.436
82874SOL     OW50460  10.105   2.402   7.791
82874SOL    HW150461  10.011   2.386   7.800
82874SOL    HW250462  10.137   2.327   7.741
82875SOL     OW50463   5.486   8.742   6.965
82875SOL    HW150464   5.481   8.702   7.051
82875SOL    HW250465   5.463   8.672   6.904
82876SOL     OW50466   7.124  12.933  11.325
82876SOL    HW150467   7.201  12.984  11.351
82876SOL    HW250468   7.053  12.997  11.318
82877SOL     OW50469   0.604   1.642   2.102
82877SOL    HW150470   0.653   1.627   2.183
82877SOL    HW250471   0.581   1.554   2.072
82878SOL     OW50472  11.754   1.606   5.302
82878SOL    HW150473  11.781   1.520   5.270
82878SOL    HW250474  11.775   1.666   5.231
82879SOL     OW50475   2.900   1.654  11.343
82879SOL    HW150476   2.805   1.658  11.329
82879SOL    HW250477   2.919   1.727  11.402
82880SOL     OW50478   6.052   1.036   0.799
82880SOL    HW150479   5.981   1.027   0.735
82880SOL    HW250480   6.105   1.107   0.765
82881SOL     OW50481   7.557   8.675  10.505
82881SOL    HW150482   7.611   8.684  10.427
82881SOL    HW250483   7.556   8.763  10.543
82882SOL     OW50484  11.337   3.257   0.512
82882SOL    HW150485  11.308   3.166   0.526
82882SOL    HW250486  11.430   3.256   0.535
82883SOL     OW50487  14.847   2.457   5.641
82883SOL    HW150488  14.817   2.370   5.615
82883SOL    HW250489  14.784   2.518   5.603
82884SOL     OW50490   5.335   1.592   0.117
82884SOL    HW150491   5.291   1.642   0.186
82884SOL    HW250492   5.303   1.632   0.035
82885SOL     OW50493   5.377   9.306   9.976
82885SOL    HW150494   5.386   9.350  10.061
82885SOL    HW250495   5.453   9.334   9.926
82886SOL     OW50496   0.389  10.648   0.307
82886SOL    HW150497   0.385  10.675   0.215
82886SOL    HW250498   0.466  10.591   0.312
82887SOL     OW50499  11.515   7.197   8.474
82887SOL    HW150500  11.527   7.278   8.426
82887SOL    HW250501  11.474   7.223   8.556
82888SOL     OW50502   1.692  13.258  14.361
82888SOL    HW150503   1.762  13.192  14.361
82888SOL    HW250504   1.707  13.308  14.280
82889SOL     OW50505   4.475   4.778  12.500
82889SOL    HW150506   4.514   4.860  12.530
82889SOL    HW250507   4.381   4.790  12.510
82890SOL     OW50508   0.358   3.039  10.382
82890SOL    HW150509   0.266   3.029  10.359
82890SOL    HW250510   0.375   2.967  10.443
82891SOL     OW50511   1.165   6.894   4.917
82891SOL    HW150512   1.148   6.937   5.001
82891SOL    HW250513   1.093   6.923   4.861
82892SOL     OW50514   7.754   6.214   3.591
82892SOL    HW150515   7.764   6.119   3.585
82892SOL    HW250516   7.830   6.249   3.544
82893SOL     OW50517   9.578   2.389   7.813
82893SOL    HW150518   9.542   2.469   7.773
82893SOL    HW250519   9.509   2.359   7.872
82894SOL     OW50520   3.509   7.305   0.480
82894SOL    HW150521   3.508   7.397   0.456
82894SOL    HW250522   3.580   7.267   0.427
82895SOL     OW50523   3.037   5.939  12.425
82895SOL    HW150524   2.983   5.862  12.444
82895SOL    HW250525   2.989   6.012  12.462
82896SOL     OW50526   4.572  14.111   9.732
82896SOL    HW150527   4.497  14.169   9.749
82896SOL    HW250528   4.633  14.129   9.804
82897SOL     OW50529  13.908   5.652  14.048
82897SOL    HW150530  13.872   5.606  13.972
82897SOL    HW250531  13.995   5.615  14.060
82898SOL     OW50532  13.007  11.314   7.584
82898SOL    HW150533  13.036  11.396   7.623
82898SOL    HW250534  12.977  11.261   7.658
82899SOL     OW50535  13.998   6.516   0.821
82899SOL    HW150536  13.953   6.600   0.817
82899SOL    HW250537  13.959   6.471   0.896
82900SOL     OW50538  14.217  11.763   4.195
82900SOL    HW150539  14.161  11.783   4.270
82900SOL    HW250540  14.298  11.812   4.212
82901SOL     OW50541   1.556   5.893   2.150
82901SOL    HW150542   1.507   5.969   2.118
82901SOL    HW250543   1.490   5.841   2.196
82902SOL     OW50544   9.799  13.021   1.515
82902SOL    HW150545   9.752  12.951   1.470
82902SOL    HW250546   9.796  12.995   1.607
82903SOL     OW50547  12.747   9.664   0.311
82903SOL    HW150548  12.699   9.675   0.393
82903SOL    HW250549  12.839   9.681   0.334
82904SOL     OW50550  13.423   3.711   7.097
82904SOL    HW150551  13.364   3.769   7.146
82904SOL    HW250552  13.422   3.629   7.147
82905SOL     OW50553  11.751   3.538   6.661
82905SOL    HW150554  11.751   3.519   6.755
82905SOL    HW250555  11.842   3.525   6.634
82906SOL     OW50556  12.736   1.635   8.466
82906SOL    HW150557  12.821   1.618   8.426
82906SOL    HW250558  12.713   1.723   8.435
82907SOL     OW50559   8.325  14.245   0.290
82907SOL    HW150560   8.402  14.234   0.346
82907SOL    HW250561   8.250  14.231   0.349
82908SOL     OW50562   3.513   8.403   9.340
82908SOL    HW150563   3.586   8.427   9.398
82908SOL    HW250564   3.444   8.465   9.362
82909SOL     OW50565  10.658   4.576  13.676
82909SOL    HW150566  10.620   4.654  13.636
82909SOL    HW250567  10.701   4.531  13.603
82910SOL     OW50568  14.174   1.234   3.425
82910SOL    HW150569  14.205   1.299   3.361
82910SOL    HW250570  14.111   1.180   3.376
82911SOL     OW50571  11.788  12.421  11.589
82911SOL    HW150572  11.805  12.513  11.610
82911SOL    HW250573  11.820  12.373  11.665
82912SOL     OW50574  13.435   1.116  11.346
82912SOL    HW150575  13.472   1.038  11.303
82912SOL    HW250576  13.454   1.188  11.285
82913SOL     OW50577   6.378   7.390  14.234
82913SOL    HW150578   6.415   7.478  14.243
82913SOL    HW250579   6.447   7.340  14.191
82914SOL     OW50580   1.337   7.646  13.912
82914SOL    HW150581   1.323   7.703  13.988
82914SOL    HW250582   1.348   7.707  13.838
82915SOL     OW50583   5.466  10.085   7.908
82915SOL    HW150584   5.434  10.077   7.998
82915SOL    HW250585   5.431  10.168   7.877
82916SOL     OW50586   1.660   1.336  14.372
82916SOL    HW150587   1.617   1.274  14.431
82916SOL    HW250588   1.592   1.397  14.347
82917SOL     OW50589  11.054  10.759   9.103
82917SOL    HW150590  11.061  10.667   9.126
82917SOL    HW250591  11.141  10.795   9.120
82918SOL     OW50592   2.667  11.819   6.063
82918SOL    HW150593   2.650  11.822   6.157
82918SOL    HW250594   2.760  11.796   6.057
82919SOL     OW50595   8.359   7.537  14.560
82919SOL    HW150596   8.411   7.462  14.590
82919SOL    HW250597   8.390   7.610  14.614
82920SOL     OW50598  10.093   9.292  12.021
82920SOL    HW150599  10.175   9.249  12.045
82920SOL    HW250600  10.120   9.379  11.991
82921SOL     OW50601   7.888   1.238   5.663
82921SOL    HW150602   7.867   1.237   5.756
82921SOL    HW250603   7.916   1.148   5.644
82922SOL     OW50604   7.403   5.942  14.690
82922SOL    HW150605   7.365   5.996  14.621
82922SOL    HW250606   7.418   6.003  14.762
82923SOL     OW50607   0.337   7.446  10.982
82923SOL    HW150608   0.314   7.536  11.006
82923SOL    HW250609   0.269   7.418  10.922
82924SOL     OW50610  14.789  11.921   5.762
82924SOL    HW150611  14.699  11.947   5.781
82924SOL    HW250612  14.838  11.943   5.841
82925SOL     OW50613   0.744   9.367  13.006
82925SOL    HW150614   0.759   9.387  12.913
82925SOL    HW250615   0.818   9.408  13.051
82926SOL     OW50616  12.704  10.205   9.915
82926SOL    HW150617  12.630  10.146   9.928
82926SOL    HW250618  12.781  10.151   9.936
82927SOL     OW50619   6.488  12.709   3.004
82927SOL    HW150620   6.578  12.675   3.007
82927SOL    HW250621   6.476  12.752   3.089
82928SOL     OW50622   0.517  10.411  10.631
82928SOL    HW150623   0.435  10.449  10.601
82928SOL    HW250624   0.583  10.478  10.613
82929SOL     OW50625  13.642   4.329   5.008
82929SOL    HW150626  13.684   4.274   4.942
82929SOL    HW250627  13.605   4.402   4.959
82930SOL     OW50628   5.266  11.545  13.537
82930SOL    HW150629   5.234  11.635  13.541
82930SOL    HW250630   5.233  11.504  13.617
82931SOL     OW50631  13.629   2.622  10.066
82931SOL    HW150632  13.629   2.669   9.983
82931SOL    HW250633  13.538   2.593  10.077
82932SOL     OW50634   2.969   6.072   1.383
82932SOL    HW150635   2.945   5.990   1.427
82932SOL    HW250636   2.909   6.137   1.418
82933SOL     OW50637   2.052  12.396   4.513
82933SOL    HW150638   2.122  12.400   4.579
82933SOL    HW250639   1.972  12.414   4.562
82934SOL     OW50640   6.646  13.816   2.718
82934SOL    HW150641   6.692  13.740   2.684
82934SOL    HW250642   6.709  13.888   2.713
82935SOL     OW50643  14.562   7.765   6.866
82935SOL    HW150644  14.570   7.727   6.779
82935SOL    HW250645  14.522   7.696   6.919
82936SOL     OW50646  11.779   4.891  10.271
82936SOL    HW150647  11.765   4.947  10.347
82936SOL    HW250648  11.799   4.951  10.199
82937SOL     OW50649  11.192  10.290   0.403
82937SOL    HW150650  11.131  10.324   0.468
82937SOL    HW250651  11.272  10.341   0.415
82938SOL     OW50652   3.604   4.532   0.343
82938SOL    HW150653   3.617   4.449   0.387
82938SOL    HW250654   3.691   4.555   0.308
82939SOL     OW50655   5.695   2.606  13.617
82939SOL    HW150656   5.723   2.697  13.631
82939SOL    HW250657   5.728   2.558  13.693
82940SOL     OW50658  10.129   9.138  14.400
82940SOL    HW150659  10.186   9.091  14.338
82940SOL    HW250660  10.189   9.189  14.454
82941SOL     OW50661  11.200  14.065  14.727
82941SOL    HW150662  11.252  13.992  14.759
82941SOL    HW250663  11.130  14.025  14.675
82942SOL     OW50664  14.811  10.570   9.843
82942SOL    HW150665  14.723  10.570   9.880
82942SOL    HW250666  14.807  10.631   9.770
82943SOL     OW50667   2.483  12.765   0.292
82943SOL    HW150668   2.475  12.861   0.295
82943SOL    HW250669   2.501  12.746   0.200
82944SOL     OW50670   6.378   1.498  12.318
82944SOL    HW150671   6.338   1.533  12.238
82944SOL    HW250672   6.368   1.403  12.310
82945SOL     OW50673   7.361  11.213  14.183
82945SOL    HW150674   7.340  11.264  14.105
82945SOL    HW250675   7.442  11.166  14.161
82946SOL     OW50676  14.182   7.447   3.381
82946SOL    HW150677  14.251   7.483   3.326
82946SOL    HW250678  14.140   7.523   3.421
82947SOL     OW50679   7.302   0.196  10.755
82947SOL    HW150680   7.395   0.184  10.773
82947SOL    HW250681   7.267   0.237  10.834
82948SOL     OW50682  12.161   8.644  13.051
82948SOL    HW150683  12.170   8.604  13.138
82948SOL    HW250684  12.163   8.570  12.991
82949SOL     OW50685  13.313   0.809   9.382
82949SOL    HW150686  13.222   0.780   9.375
82949SOL    HW250687  13.363   0.742   9.335
82950SOL     OW50688  11.498   1.533  12.308
82950SOL    HW150689  11.555   1.530  12.384
82950SOL    HW250690  11.518   1.616  12.266
82951SOL     OW50691   8.223   7.751   9.514
82951SOL    HW150692   8.300   7.695   9.527
82951SOL    HW250693   8.243   7.830   9.564
82952SOL     OW50694   2.978   5.446  12.441
82952SOL    HW150695   3.063   5.402  12.449
82952SOL    HW250696   2.933   5.428  12.523
82953SOL     OW50697   9.545  11.562   7.670
82953SOL    HW150698   9.460  11.563   7.626
82953SOL    HW250699   9.574  11.471   7.665
82954SOL     OW50700  10.726   4.695  14.498
82954SOL    HW150701  10.722   4.763  14.565
82954SOL    HW250702  10.652   4.638  14.518
82955SOL     OW50703   2.689   9.357  10.466
82955SOL    HW150704   2.751   9.377  10.537
82955SOL    HW250705   2.740   9.304  10.405
82956SOL     OW50706  13.519   0.185   3.915
82956SOL    HW150707  13.551   0.097   3.935
82956SOL    HW250708  13.506   0.226   4.001
82957SOL     OW50709   0.286   3.197   7.633
82957SOL    HW150710   0.320   3.112   7.606
82957SOL    HW250711   0.321   3.259   7.569
82958SOL     OW50712   7.752  13.473  14.021
82958SOL    HW150713   7.843  13.460  13.997
82958SOL    HW250714   7.750  13.559  14.063
82959SOL     OW50715   8.226  13.115   1.614
82959SOL    HW150716   8.195  13.201   1.586
82959SOL    HW250717   8.200  13.108   1.706
82960SOL     OW50718   7.176   3.609   7.459
82960SOL    HW150719   7.133   3.687   7.424
82960SOL    HW250720   7.269   3.626   7.446
82961SOL     OW50721  10.050   8.652   6.786
82961SOL    HW150722   9.998   8.732   6.774
82961SOL    HW250723  10.097   8.666   6.868
82962SOL     OW50724   7.585   3.566   5.479
82962SOL    HW150725   7.572   3.661   5.482
82962SOL    HW250726   7.646   3.553   5.407
82963SOL     OW50727   0.769   0.691  13.066
82963SOL    HW150728   0.855   0.724  13.038
82963SOL    HW250729   0.706   0.749  13.023
82964SOL     OW50730   4.389   5.424  14.583
82964SOL    HW150731   4.459   5.488  14.574
82964SOL    HW250732   4.308   5.475  14.574
82965SOL     OW50733   4.790   8.332   7.398
82965SOL    HW150734   4.853   8.336   7.326
82965SOL    HW250735   4.742   8.251   7.383
82966SOL     OW50736   7.430   3.192   6.532
82966SOL    HW150737   7.495   3.262   6.533
82966SOL    HW250738   7.379   3.208   6.453
82967SOL     OW50739  13.614   5.373   0.604
82967SOL    HW150740  13.663   5.377   0.523
82967SOL    HW250741  13.548   5.442   0.597
82968SOL     OW50742   6.103   4.370  10.473
82968SOL    HW150743   6.015   4.368  10.510
82968SOL    HW250744   6.106   4.293  10.416
82969SOL     OW50745   6.385   4.412  12.495
82969SOL    HW150746   6.320   4.479  12.475
82969SOL    HW250747   6.369   4.344  12.429
82970SOL     OW50748   6.754   7.499  14.771
82970SOL    HW150749   6.665   7.464  14.770
82970SOL    HW250750   6.759   7.554  14.692
82971SOL     OW50751   3.829  10.375   8.870
82971SOL    HW150752   3.775  10.418   8.937
82971SOL    HW250753   3.780  10.296   8.847
82972SOL     OW50754   8.504   8.491  12.002
82972SOL    HW150755   8.469   8.498  12.091
82972SOL    HW250756   8.561   8.415  12.004
82973SOL     OW50757  13.164   3.824  10.035
82973SOL    HW150758  13.089   3.868   9.996
82973SOL    HW250759  13.171   3.741   9.988
82974SOL     OW50760  11.358  14.813   7.343
82974SOL    HW150761  11.400  14.782   7.423
82974SOL    HW250762  11.428  14.816   7.278
82975SOL     OW50763   1.896  14.041   1.278
82975SOL    HW150764   1.939  14.114   1.322
82975SOL    HW250765   1.836  14.005   1.343
82976SOL     OW50766   2.751   3.233   6.328
82976SOL    HW150767   2.766   3.314   6.279
82976SOL    HW250768   2.736   3.166   6.261
82977SOL     OW50769   4.140   1.242   9.785
82977SOL    HW150770   4.065   1.250   9.725
82977SOL    HW250771   4.187   1.165   9.755
82978SOL     OW50772   7.864   2.240   0.263
82978SOL    HW150773   7.836   2.330   0.243
82978SOL    HW250774   7.942   2.227   0.210
82979SOL     OW50775   1.622   3.790  11.190
82979SOL    HW150776   1.551   3.746  11.144
82979SOL    HW250777   1.588   3.878  11.208
82980SOL     OW50778   9.556   1.992   2.823
82980SOL    HW150779   9.553   2.084   2.797
82980SOL    HW250780   9.469   1.975   2.860
82981SOL     OW50781  10.880  14.220  14.147
82981SOL    HW150782  10.816  14.168  14.100
82981SOL    HW250783  10.864  14.200  14.239
82982SOL     OW50784   3.110   4.231  14.278
82982SOL    HW150785   3.115   4.218  14.372
82982SOL    HW250786   3.111   4.142  14.241
82983SOL     OW50787   3.799   3.149   9.280
82983SOL    HW150788   3.851   3.217   9.236
82983SOL    HW250789   3.847   3.130   9.360
82984SOL     OW50790   4.818  10.447   8.058
82984SOL    HW150791   4.762  10.523   8.070
82984SOL    HW250792   4.758  10.373   8.053
82985SOL     OW50793   2.655  13.008   3.868
82985SOL    HW150794   2.593  12.948   3.827
82985SOL    HW250795   2.625  13.095   3.843
82986SOL     OW50796  12.002   8.363   9.427
82986SOL    HW150797  12.049   8.291   9.467
82986SOL    HW250798  11.975   8.330   9.341
82987SOL     OW50799   5.261   5.706   0.861
82987SOL    HW150800   5.343   5.670   0.828
82987SOL    HW250801   5.193   5.656   0.817
82988SOL     OW50802   8.120   4.641   6.975
82988SOL    HW150803   8.152   4.730   6.993
82988SOL    HW250804   8.128   4.632   6.880
82989SOL     OW50805   9.575  11.879   1.696
82989SOL    HW150806   9.506  11.909   1.755
82989SOL    HW250807   9.623  11.958   1.673
82990SOL     OW50808  12.700  10.376  14.308
82990SOL    HW150809  12.786  10.344  14.279
82990SOL    HW250810  12.647  10.375  14.229
82991SOL     OW50811   1.860  14.869   4.403
82991SOL    HW150812   1.870  14.847   4.310
82991SOL    HW250813   1.947   0.024   4.430
82992SOL     OW50814   8.193   8.458   2.717
82992SOL    HW150815   8.190   8.543   2.673
82992SOL    HW250816   8.274   8.418   2.687
82993SOL     OW50817   1.143   6.114   1.465
82993SOL    HW150818   1.059   6.070   1.450
82993SOL    HW250819   1.138   6.193   1.412
82994SOL     OW50820   9.221   4.172   7.077
82994SOL    HW150821   9.300   4.166   7.132
82994SOL    HW250822   9.247   4.229   7.005
82995SOL     OW50823   7.176  12.334   9.658
82995SOL    HW150824   7.253  12.283   9.632
82995SOL    HW250825   7.211  12.402   9.715
82996SOL     OW50826  11.795  14.065   3.533
82996SOL    HW150827  11.733  14.035   3.599
82996SOL    HW250828  11.840  13.986   3.504
82997SOL     OW50829  14.294   7.345   8.408
82997SOL    HW150830  14.295   7.261   8.362
82997SOL    HW250831  14.237   7.401   8.355
82998SOL     OW50832  14.344   7.258   3.447
82998SOL    HW150833  14.272   7.319   3.429
82998SOL    HW250834  14.422   7.313   3.448
82999SOL     OW50835   4.646  13.966   2.990
82999SOL    HW150836   4.559  13.929   2.980
82999SOL    HW250837   4.635  14.060   2.974
83000SOL     OW50838  10.338  10.878  13.898
83000SOL    HW150839  10.413  10.825  13.871
83000SOL    HW250840  10.372  10.967  13.904
83001SOL     OW50841  10.413   4.172  11.556
83001SOL    HW150842  10.490   4.206  11.510
83001SOL    HW250843  10.393   4.090  11.512
83002SOL     OW50844   3.465   3.188  12.141
83002SOL    HW150845   3.514   3.112  12.174
83002SOL    HW250846   3.464   3.250  12.214
83003SOL     OW50847  11.428  12.609   7.644
83003SOL    HW150848  11.360  12.627   7.579
83003SOL    HW250849  11.506  12.589   7.592
83004SOL     OW50850  10.945  11.626  14.705
83004SOL    HW150851  10.855  11.648  14.681
83004SOL    HW250852  10.985  11.710  14.727
83005SOL     OW50853   9.677  13.675   8.143
83005SOL    HW150854   9.591  13.716   8.134
83005SOL    HW250855   9.693  13.675   8.238
83006SOL     OW50856  10.842   9.537   0.962
83006SOL    HW150857  10.929   9.569   0.987
83006SOL    HW250858  10.822   9.469   1.025
83007SOL     OW50859   0.569  10.375   7.309
83007SOL    HW150860   0.662  10.349   7.313
83007SOL    HW250861   0.541  10.350   7.221
83008SOL     OW50862   7.469  12.917  14.439
83008SOL    HW150863   7.490  12.828  14.411
83008SOL    HW250864   7.374  12.922  14.435
83009SOL     OW50865   8.270   0.073   3.456
83009SOL    HW150866   8.211   0.092   3.383
83009SOL    HW250867   8.294   0.159   3.490
83010SOL     OW50868  12.908   4.749   1.742
83010SOL    HW150869  12.889   4.843   1.733
83010SOL    HW250870  12.970   4.731   1.671
83011SOL     OW50871   1.469   5.323   8.306
83011SOL    HW150872   1.472   5.400   8.249
83011SOL    HW250873   1.554   5.280   8.292
83012SOL     OW50874  12.864   8.779   8.381
83012SOL    HW150875  12.899   8.764   8.469
83012SOL    HW250876  12.777   8.816   8.395
83013SOL     OW50877  12.811  11.158   1.769
83013SOL    HW150878  12.815  11.171   1.675
83013SOL    HW250879  12.720  11.177   1.792
83014SOL     OW50880   7.453   2.910   4.906
83014SOL    HW150881   7.539   2.891   4.868
83014SOL    HW250882   7.432   2.832   4.957
83015SOL     OW50883   7.988  10.419   9.830
83015SOL    HW150884   7.959  10.485   9.894
83015SOL    HW250885   7.982  10.464   9.746
83016SOL     OW50886   4.013   5.455  10.307
83016SOL    HW150887   4.102   5.445  10.271
83016SOL    HW250888   3.956   5.451  10.230
83017SOL     OW50889   7.135   3.586  11.725
83017SOL    HW150890   7.103   3.558  11.810
83017SOL    HW250891   7.057   3.616  11.678
83018SOL     OW50892  10.062   7.673   8.717
83018SOL    HW150893  10.000   7.600   8.720
83018SOL    HW250894  10.128   7.652   8.783
83019SOL     OW50895   2.105   8.162   6.078
83019SOL    HW150896   2.048   8.091   6.048
83019SOL    HW250897   2.084   8.172   6.171
83020SOL     OW50898   0.520   9.930  11.052
83020SOL    HW150899   0.449   9.925  10.988
83020SOL    HW250900   0.600   9.919  10.999
83021SOL     OW50901  12.930   6.427   5.849
83021SOL    HW150902  12.925   6.523   5.851
83021SOL    HW250903  13.003   6.406   5.907
83022SOL     OW50904  11.510   4.018   7.967
83022SOL    HW150905  11.589   4.067   7.990
83022SOL    HW250906  11.445   4.045   8.032
83023SOL     OW50907   3.432   9.409   7.837
83023SOL    HW150908   3.519   9.448   7.851
83023SOL    HW250909   3.371   9.483   7.844
83024SOL     OW50910   3.831   2.624   1.424
83024SOL    HW150911   3.880   2.605   1.504
83024SOL    HW250912   3.873   2.703   1.389
83025SOL     OW50913  10.080   0.467   6.474
83025SOL    HW150914  10.126   0.551   6.462
83025SOL    HW250915  10.112   0.412   6.403
83026SOL     OW50916   3.910   6.962  12.986
83026SOL    HW150917   3.933   6.923  12.902
83026SOL    HW250918   3.970   7.036  12.996
83027SOL     OW50919  12.767  13.089  13.962
83027SOL    HW150920  12.694  13.149  13.945
83027SOL    HW250921  12.796  13.111  14.050
83028SOL     OW50922   4.488  12.081  12.208
83028SOL    HW150923   4.543  12.035  12.271
83028SOL    HW250924   4.399  12.054  12.230
83029SOL     OW50925   5.834   5.449   0.250
83029SOL    HW150926   5.803   5.539   0.238
83029SOL    HW250927   5.792   5.400   0.180
83030SOL     OW50928  11.501  12.465  10.941
83030SOL    HW150929  11.596  12.468  10.941
83030SOL    HW250930  11.479  12.416  10.861
83031SOL     OW50931   5.834   1.739   1.682
83031SOL    HW150932   5.919   1.713   1.719
83031SOL    HW250933   5.770   1.691   1.733
83032SOL     OW50934   5.227   1.146   5.411
83032SOL    HW150935   5.248   1.211   5.344
83032SOL    HW250936   5.154   1.184   5.460
83033SOL     OW50937   0.510   6.528   5.265
83033SOL    HW150938   0.455   6.558   5.337
83033SOL    HW250939   0.600   6.545   5.294
83034SOL     OW50940  12.759  12.283   9.887
83034SOL    HW150941  12.850  12.285   9.858
83034SOL    HW250942  12.720  12.362   9.849
83035SOL     OW50943  11.482   7.047   4.701
83035SOL    HW150944  11.563   6.999   4.719
83035SOL    HW250945  11.458   7.020   4.612
83036SOL     OW50946   0.919  12.076   3.113
83036SOL    HW150947   0.850  12.119   3.061
83036SOL    HW250948   0.875  12.049   3.193
83037SOL     OW50949  13.049   1.632  13.392
83037SOL    HW150950  12.975   1.692  13.402
83037SOL    HW250951  13.126   1.688  13.401
83038SOL     OW50952   7.084  14.598  10.129
83038SOL    HW150953   7.088  14.604  10.225
83038SOL    HW250954   7.170  14.628  10.100
83039SOL     OW50955   1.563  14.735  12.439
83039SOL    HW150956   1.575  14.797  12.368
83039SOL    HW250957   1.625  14.665  12.421
83040SOL     OW50958  10.180   7.492  11.855
83040SOL    HW150959  10.137   7.568  11.816
83040SOL    HW250960  10.115   7.456  11.916
83041SOL     OW50961   9.014  10.821   1.126
83041SOL    HW150962   9.031  10.903   1.172
83041SOL    HW250963   9.011  10.755   1.195
83042SOL     OW50964  13.958   3.778   8.447
83042SOL    HW150965  13.894   3.724   8.492
83042SOL    HW250966  14.042   3.756   8.489
83043SOL     OW50967   5.077   3.445   0.468
83043SOL    HW150968   5.167   3.478   0.466
83043SOL    HW250969   5.069   3.403   0.554
83044SOL     OW50970  13.365  14.373   9.422
83044SOL    HW150971  13.370  14.432   9.498
83044SOL    HW250972  13.282  14.326   9.434
83045SOL     OW50973  12.325  11.306   0.094
83045SOL    HW150974  12.329  11.263   0.180
83045SOL    HW250975  12.378  11.251   0.037
83046SOL     OW50976   8.827   5.069   2.897
83046SOL    HW150977   8.916   5.062   2.864
83046SOL    HW250978   8.772   5.037   2.825
83047SOL     OW50979   4.832   3.418   3.004
83047SOL    HW150980   4.922   3.448   2.989
83047SOL    HW250981   4.818   3.429   3.098
83048SOL     OW50982   7.497  13.566   6.698
83048SOL    HW150983   7.543  13.642   6.733
83048SOL    HW250984   7.559  13.494   6.706
83049SOL     OW50985   2.433   3.190  11.526
83049SOL    HW150986   2.460   3.276  11.559
83049SOL    HW250987   2.504   3.163  11.468
83050SOL     OW50988   7.241   4.880   1.051
83050SOL    HW150989   7.256   4.936   0.975
83050SOL    HW250990   7.318   4.823   1.054
83051SOL     OW50991   6.449   2.347   8.378
83051SOL    HW150992   6.480   2.431   8.344
83051SOL    HW250993   6.438   2.293   8.299
83052SOL     OW50994  14.129  10.663   2.709
83052SOL    HW150995  14.207  10.615   2.737
83052SOL    HW250996  14.163  10.738   2.661
83053SOL     OW50997   6.288   9.697   7.443
83053SOL    HW150998   6.349   9.652   7.385
83053SOL    HW250999   6.276   9.783   7.403
83054SOL     OW51000   4.834   3.553   1.439
83054SOL    HW151001   4.848   3.499   1.517
83054SOL    HW251002   4.898   3.624   1.447
83055SOL     OW51003  10.864   3.592   6.846
83055SOL    HW151004  10.781   3.544   6.842
83055SOL    HW251005  10.846   3.666   6.904
83056SOL     OW51006   7.466  10.111   4.457
83056SOL    HW151007   7.433  10.029   4.494
83056SOL    HW251008   7.392  10.146   4.408
83057SOL     OW51009   1.603   5.266   6.132
83057SOL    HW151010   1.551   5.301   6.205
83057SOL    HW251011   1.538   5.226   6.074
83058SOL     OW51012  14.636   1.661   5.710
83058SOL    HW151013  14.578   1.643   5.637
83058SOL    HW251014  14.616   1.752   5.735
83059SOL     OW51015   2.715  12.316   6.718
83059SOL    HW151016   2.671  12.394   6.751
83059SOL    HW251017   2.690  12.310   6.626
83060SOL     OW51018   1.590  12.020   9.475
83060SOL    HW151019   1.532  12.079   9.427
83060SOL    HW251020   1.673  12.067   9.480
83061SOL     OW51021   9.924   6.705  12.898
83061SOL    HW151022   9.892   6.626  12.854
83061SOL    HW251023   9.994   6.737  12.841
83062SOL     OW51024   2.416   6.445   8.786
83062SOL    HW151025   2.458   6.470   8.868
83062SOL    HW251026   2.440   6.353   8.774
83063SOL     OW51027   3.597   8.507   0.704
83063SOL    HW151028   3.511   8.493   0.665
83063SOL    HW251029   3.583   8.578   0.768
83064SOL     OW51030   6.714   6.606   0.389
83064SOL    HW151031   6.704   6.527   0.442
83064SOL    HW251032   6.761   6.576   0.311
83065SOL     OW51033   2.338   8.608  12.583
83065SOL    HW151034   2.420   8.562  12.565
83065SOL    HW251035   2.323   8.595  12.676
83066SOL     OW51036   7.200   2.375   5.171
83066SOL    HW151037   7.151   2.411   5.097
83066SOL    HW251038   7.228   2.288   5.142
83067SOL     OW51039  12.463   2.373   5.640
83067SOL    HW151040  12.420   2.303   5.590
83067SOL    HW251041  12.409   2.451   5.623
83068SOL     OW51042   9.603   4.842   9.404
83068SOL    HW151043   9.644   4.898   9.338
83068SOL    HW251044   9.612   4.892   9.485
83069SOL     OW51045  10.276   3.993   7.682
83069SOL    HW151046  10.204   4.040   7.724
83069SOL    HW251047  10.233   3.930   7.624
83070SOL     OW51048   5.972   1.920   7.274
83070SOL    HW151049   5.931   1.876   7.200
83070SOL    HW251050   5.911   1.990   7.297
83071SOL     OW51051   7.143   7.465   1.955
83071SOL    HW151052   7.164   7.452   1.862
83071SOL    HW251053   7.227   7.487   1.995
83072SOL     OW51054   3.495   3.356   6.485
83072SOL    HW151055   3.461   3.445   6.478
83072SOL    HW251056   3.589   3.364   6.472
83073SOL     OW51057  11.044  11.683   4.825
83073SOL    HW151058  10.949  11.680   4.817
83073SOL    HW251059  11.076  11.696   4.736
83074SOL     OW51060  12.909   9.828   2.804
83074SOL    HW151061  12.926   9.752   2.749
83074SOL    HW251062  12.815   9.842   2.799
83075SOL     OW51063   0.438   5.211   1.572
83075SOL    HW151064   0.491   5.163   1.509
83075SOL    HW251065   0.407   5.145   1.634
83076SOL     OW51066   2.296   6.698   4.108
83076SOL    HW151067   2.217   6.645   4.096
83076SOL    HW251068   2.315   6.692   4.201
83077SOL     OW51069  12.727  11.281   9.731
83077SOL    HW151070  12.786  11.337   9.782
83077SOL    HW251071  12.785  11.232   9.673
83078SOL     OW51072  10.687  12.012   4.834
83078SOL    HW151073  10.773  12.010   4.792
83078SOL    HW251074  10.684  12.097   4.879
83079SOL     OW51075   1.746   8.468  12.927
83079SOL    HW151076   1.694   8.431  12.999
83079SOL    HW251077   1.805   8.530  12.970
83080SOL     OW51078  11.297   2.199  12.211
83080SOL    HW151079  11.228   2.158  12.263
83080SOL    HW251080  11.305   2.143  12.134
83081SOL     OW51081   9.220   5.626   4.716
83081SOL    HW151082   9.275   5.692   4.674
83081SOL    HW251083   9.136   5.670   4.731
83082SOL     OW51084   6.127   8.632   4.953
83082SOL    HW151085   6.127   8.592   5.040
83082SOL    HW251086   6.036   8.658   4.939
83083SOL     OW51087   3.110   0.843   2.606
83083SOL    HW151088   3.129   0.931   2.574
83083SOL    HW251089   3.179   0.825   2.670
83084SOL     OW51090  14.001   1.433   5.307
83084SOL    HW151091  14.032   1.343   5.309
83084SOL    HW251092  13.995   1.459   5.398
83085SOL     OW51093  10.459  11.485   9.020
83085SOL    HW151094  10.539  11.535   9.007
83085SOL    HW251095  10.484  11.417   9.083
83086SOL     OW51096   5.035  12.050   8.882
83086SOL    HW151097   4.975  12.120   8.856
83086SOL    HW251098   5.122  12.090   8.872
83087SOL     OW51099   6.779  11.207  14.373
83087SOL    HW151100   6.695  11.188  14.330
83087SOL    HW251101   6.778  11.302  14.383
83088SOL     OW51102  13.339  10.432   2.468
83088SOL    HW151103  13.341  10.491   2.392
83088SOL    HW251104  13.351  10.489   2.544
83089SOL     OW51105   8.744  13.873   5.088
83089SOL    HW151106   8.674  13.809   5.080
83089SOL    HW251107   8.705  13.955   5.056
83090SOL     OW51108  13.383  10.492   3.295
83090SOL    HW151109  13.369  10.418   3.354
83090SOL    HW251110  13.458  10.468   3.242
83091SOL     OW51111   7.394   6.871   1.204
83091SOL    HW151112   7.358   6.832   1.124
83091SOL    HW251113   7.483   6.838   1.209
83092SOL     OW51114   4.977   3.482   4.951
83092SOL    HW151115   4.908   3.489   4.885
83092SOL    HW251116   4.953   3.406   5.003
83093SOL     OW51117   0.980   5.284   8.084
83093SOL    HW151118   0.908   5.221   8.092
83093SOL    HW251119   1.014   5.293   8.173
83094SOL     OW51120   0.053   7.086  14.421
83094SOL    HW151121   0.128   7.113  14.474
83094SOL    HW251122  14.851   7.110  14.474
83095SOL     OW51123   6.663  12.749   4.621
83095SOL    HW151124   6.604  12.814   4.658
83095SOL    HW251125   6.700  12.703   4.696
83096SOL     OW51126   5.395  13.565   8.527
83096SOL    HW151127   5.311  13.520   8.528
83096SOL    HW251128   5.455  13.505   8.483
83097SOL     OW51129   7.163   1.526  10.005
83097SOL    HW151130   7.128   1.463   9.941
83097SOL    HW251131   7.243   1.560   9.964
83098SOL     OW51132  10.978  14.399   3.948
83098SOL    HW151133  11.043  14.450   3.998
83098SOL    HW251134  10.963  14.321   4.001
83099SOL     OW51135   3.978   0.995   8.202
83099SOL    HW151136   4.053   1.043   8.167
83099SOL    HW251137   3.905   1.057   8.196
83100SOL     OW51138   9.479   4.979   8.831
83100SOL    HW151139   9.403   5.033   8.810
83100SOL    HW251140   9.484   4.916   8.760
83101SOL     OW51141   8.740   8.962   3.794
83101SOL    HW151142   8.789   8.913   3.728
83101SOL    HW251143   8.802   9.028   3.826
83102SOL     OW51144   0.552   3.087  13.967
83102SOL    HW151145   0.544   3.128  14.053
83102SOL    HW251146   0.579   2.997  13.987
83103SOL     OW51147  10.266   5.928  10.350
83103SOL    HW151148  10.338   5.944  10.289
83103SOL    HW251149  10.206   5.872  10.302
83104SOL     OW51150   6.363   9.696   7.748
83104SOL    HW151151   6.343   9.663   7.660
83104SOL    HW251152   6.427   9.765   7.734
83105SOL     OW51153   6.028   7.254   5.654
83105SOL    HW151154   6.113   7.213   5.666
83105SOL    HW251155   5.995   7.268   5.743
83106SOL     OW51156   9.627  11.116  10.977
83106SOL    HW151157   9.547  11.169  10.977
83106SOL    HW251158   9.615  11.054  11.049
83107SOL     OW51159   9.854   5.718   7.655
83107SOL    HW151160   9.940   5.753   7.633
83107SOL    HW251161   9.793   5.786   7.626
83108SOL     OW51162   6.212   7.755   9.178
83108SOL    HW151163   6.174   7.768   9.265
83108SOL    HW251164   6.188   7.665   9.155
83109SOL     OW51165   9.113   5.978  14.023
83109SOL    HW151166   9.098   6.030  14.102
83109SOL    HW251167   9.042   6.003  13.964
83110SOL     OW51168   0.349   6.176  10.188
83110SOL    HW151169   0.370   6.179  10.094
83110SOL    HW251170   0.433   6.154  10.229
83111SOL     OW51171   1.879   0.626   1.118
83111SOL    HW151172   1.855   0.674   1.038
83111SOL    HW251173   1.859   0.687   1.189
83112SOL     OW51174   1.133   3.603   2.463
83112SOL    HW151175   1.087   3.537   2.411
83112SOL    HW251176   1.118   3.685   2.416
83113SOL     OW51177   0.412  11.637  12.001
83113SOL    HW151178   0.338  11.580  12.020
83113SOL    HW251179   0.403  11.710  12.063
83114SOL     OW51180   8.061  13.183   7.110
83114SOL    HW151181   8.145  13.226   7.123
83114SOL    HW251182   7.998  13.255   7.101
83115SOL     OW51183   0.203   2.406   6.872
83115SOL    HW151184   0.280   2.398   6.815
83115SOL    HW251185   0.181   2.316   6.897
83116SOL     OW51186   6.786  11.730  11.759
83116SOL    HW151187   6.869  11.734  11.808
83116SOL    HW251188   6.720  11.758  11.822
83117SOL     OW51189   8.105   2.367   3.007
83117SOL    HW151190   8.076   2.330   3.091
83117SOL    HW251191   8.199   2.349   3.005
83118SOL     OW51192   6.047   4.624  10.614
83118SOL    HW151193   6.086   4.549  10.568
83118SOL    HW251194   6.030   4.591  10.703
83119SOL     OW51195   3.614   0.890   6.691
83119SOL    HW151196   3.540   0.864   6.745
83119SOL    HW251197   3.580   0.959   6.634
83120SOL     OW51198   5.639  12.577   5.920
83120SOL    HW151199   5.607  12.530   5.997
83120SOL    HW251200   5.611  12.523   5.846
83121SOL     OW51201   2.393   9.965   4.120
83121SOL    HW151202   2.352   9.884   4.087
83121SOL    HW251203   2.387  10.026   4.046
83122SOL     OW51204   6.742  12.284   2.333
83122SOL    HW151205   6.705  12.338   2.264
83122SOL    HW251206   6.725  12.333   2.414
83123SOL     OW51207   3.226   6.973   4.456
83123SOL    HW151208   3.283   6.992   4.531
83123SOL    HW251209   3.250   7.039   4.391
83124SOL     OW51210  13.226  13.051   5.755
83124SOL    HW151211  13.287  13.078   5.824
83124SOL    HW251212  13.152  13.111   5.765
83125SOL     OW51213   1.446   0.911   1.402
83125SOL    HW151214   1.479   0.961   1.476
83125SOL    HW251215   1.522   0.863   1.369
83126SOL     OW51216   0.664  11.405   9.450
83126SOL    HW151217   0.660  11.498   9.427
83126SOL    HW251218   0.721  11.401   9.526
83127SOL     OW51219   1.029   8.598   6.218
83127SOL    HW151220   0.971   8.667   6.187
83127SOL    HW251221   1.086   8.642   6.281
83128SOL     OW51222   0.093   2.504   8.720
83128SOL    HW151223   0.099   2.442   8.793
83128SOL    HW251224   0.102   2.590   8.762
83129SOL     OW51225   6.588  14.805  10.656
83129SOL    HW151226   6.539  14.778  10.578
83129SOL    HW251227   6.673  14.832  10.621
83130SOL     OW51228  11.672  13.105   5.740
83130SOL    HW151229  11.645  13.174   5.679
83130SOL    HW251230  11.602  13.102   5.806
83131SOL     OW51231   0.347  11.867   6.551
83131SOL    HW151232   0.370  11.948   6.505
83131SOL    HW251233   0.252  11.869   6.556
83132SOL     OW51234  14.756  13.162  14.689
83132SOL    HW151235  14.815  13.213  14.744
83132SOL    HW251236  14.692  13.125  14.749
83133SOL     OW51237   0.552   1.071  11.871
83133SOL    HW151238   0.516   0.984  11.852
83133SOL    HW251239   0.515   1.128  11.804
83134SOL     OW51240   6.773  11.188   6.311
83134SOL    HW151241   6.713  11.140   6.252
83134SOL    HW251242   6.736  11.276   6.315
83135SOL     OW51243  13.108   2.943   9.124
83135SOL    HW151244  13.089   2.920   9.215
83135SOL    HW251245  13.093   3.037   9.120
83136SOL     OW51246   6.415  11.640   4.723
83136SOL    HW151247   6.372  11.555   4.735
83136SOL    HW251248   6.504  11.617   4.695
83137SOL     OW51249   4.174   5.521  13.019
83137SOL    HW151250   4.123   5.600  13.037
83137SOL    HW251251   4.251   5.530  13.075
83138SOL     OW51252   5.617  12.603   7.533
83138SOL    HW151253   5.593  12.638   7.619
83138SOL    HW251254   5.703  12.563   7.547
83139SOL     OW51255   2.384   9.367  12.710
83139SOL    HW151256   2.462   9.372  12.655
83139SOL    HW251257   2.416   9.337  12.795
83140SOL     OW51258   8.293   5.243   3.860
83140SOL    HW151259   8.224   5.280   3.915
83140SOL    HW251260   8.300   5.304   3.786
83141SOL     OW51261   9.514   4.971   3.639
83141SOL    HW151262   9.460   4.958   3.717
83141SOL    HW251263   9.488   5.056   3.605
83142SOL     OW51264  12.150   0.169  10.098
83142SOL    HW151265  12.100   0.197  10.175
83142SOL    HW251266  12.152   0.074  10.104
83143SOL     OW51267   7.166   4.492  12.271
83143SOL    HW151268   7.185   4.548  12.346
83143SOL    HW251269   7.232   4.515  12.206
83144SOL     OW51270  12.734   6.912  11.135
83144SOL    HW151271  12.732   6.981  11.201
83144SOL    HW251272  12.688   6.949  11.060
83145SOL     OW51273   7.314   4.258   0.951
83145SOL    HW151274   7.330   4.164   0.938
83145SOL    HW251275   7.282   4.288   0.866
83146SOL     OW51276   2.891   0.461   3.409
83146SOL    HW151277   2.972   0.427   3.369
83146SOL    HW251278   2.875   0.403   3.483
83147SOL     OW51279  12.878   6.116   4.438
83147SOL    HW151280  12.913   6.060   4.507
83147SOL    HW251281  12.867   6.058   4.363
83148SOL     OW51282   1.294   6.664   7.100
83148SOL    HW151283   1.347   6.589   7.074
83148SOL    HW251284   1.227   6.627   7.159
83149SOL     OW51285  12.187   6.157   3.801
83149SOL    HW151286  12.164   6.068   3.777
83149SOL    HW251287  12.234   6.191   3.725
83150SOL     OW51288   1.902   9.297   5.405
83150SOL    HW151289   1.815   9.334   5.419
83150SOL    HW251290   1.940   9.290   5.493
83151SOL     OW51291  12.877  13.835   4.730
83151SOL    HW151292  12.903  13.927   4.731
83151SOL    HW251293  12.817  13.826   4.804
83152SOL     OW51294  11.651   4.190  12.408
83152SOL    HW151295  11.594   4.259  12.442
83152SOL    HW251296  11.626   4.111  12.455
83153SOL     OW51297   0.155   7.927  11.240
83153SOL    HW151298   0.195   8.013  11.229
83153SOL    HW251299   0.228   7.865  11.230
83154SOL     OW51300   6.102   4.284   5.141
83154SOL    HW151301   6.075   4.301   5.231
83154SOL    HW251302   6.020   4.262   5.095
83155SOL     OW51303  10.000   5.757  13.619
83155SOL    HW151304  10.016   5.705  13.697
83155SOL    HW251305  10.085   5.763  13.576
83156SOL     OW51306   1.831   4.283   3.615
83156SOL    HW151307   1.887   4.345   3.661
83156SOL    HW251308   1.752   4.333   3.593
83157SOL     OW51309  12.103   0.749   1.430
83157SOL    HW151310  12.067   0.833   1.401
83157SOL    HW251311  12.026   0.697   1.453
83158SOL     OW51312  12.076  11.789  10.311
83158SOL    HW151313  12.099  11.826  10.396
83158SOL    HW251314  12.067  11.695  10.327
83159SOL     OW51315   5.561   7.714   8.291
83159SOL    HW151316   5.651   7.683   8.280
83159SOL    HW251317   5.510   7.634   8.304
83160SOL     OW51318   5.801   8.156  14.142
83160SOL    HW151319   5.801   8.134  14.048
83160SOL    HW251320   5.893   8.149  14.168
83161SOL     OW51321  14.437  12.090   5.407
83161SOL    HW151322  14.392  12.173   5.419
83161SOL    HW251323  14.374  12.036   5.358
83162SOL     OW51324  12.998   8.362   4.777
83162SOL    HW151325  13.035   8.326   4.858
83162SOL    HW251326  12.930   8.422   4.806
83163SOL     OW51327   8.899   2.245   8.541
83163SOL    HW151328   8.993   2.245   8.559
83163SOL    HW251329   8.890   2.195   8.460
83164SOL     OW51330  11.198   6.821   0.271
83164SOL    HW151331  11.149   6.837   0.352
83164SOL    HW251332  11.290   6.834   0.295
83165SOL     OW51333   7.466  12.176  11.652
83165SOL    HW151334   7.392  12.212  11.603
83165SOL    HW251335   7.462  12.219  11.737
83166SOL     OW51336   3.682   9.118   0.447
83166SOL    HW151337   3.663   9.108   0.540
83166SOL    HW251338   3.712   9.209   0.439
83167SOL     OW51339   4.651   5.857   4.932
83167SOL    HW151340   4.617   5.808   5.007
83167SOL    HW251341   4.676   5.789   4.869
83168SOL     OW51342   4.712   3.527  12.551
83168SOL    HW151343   4.778   3.484  12.497
83168SOL    HW251344   4.711   3.618  12.520
83169SOL     OW51345   7.106   7.129   0.861
83169SOL    HW151346   7.031   7.085   0.821
83169SOL    HW251347   7.110   7.094   0.950
83170SOL     OW51348  13.259   4.964   6.782
83170SOL    HW151349  13.344   4.999   6.810
83170SOL    HW251350  13.281   4.883   6.736
83171SOL     OW51351   0.336   7.114  13.984
83171SOL    HW151352   0.328   7.191  14.042
83171SOL    HW251353   0.274   7.132  13.913
83172SOL     OW51354   2.777  13.091   5.771
83172SOL    HW151355   2.767  13.008   5.725
83172SOL    HW251356   2.824  13.147   5.709
83173SOL     OW51357   4.330  13.886   7.243
83173SOL    HW151358   4.364  13.805   7.204
83173SOL    HW251359   4.317  13.864   7.336
83174SOL     OW51360  11.394   7.037  12.088
83174SOL    HW151361  11.434   6.953  12.068
83174SOL    HW251362  11.359   7.027  12.177
83175SOL     OW51363  12.359   1.699   6.160
83175SOL    HW151364  12.353   1.678   6.253
83175SOL    HW251365  12.351   1.614   6.116
83176SOL     OW51366   8.158   1.671  10.640
83176SOL    HW151367   8.161   1.762  10.611
83176SOL    HW251368   8.119   1.675  10.728
83177SOL     OW51369   1.122  14.633   4.770
83177SOL    HW151370   1.157  14.719   4.745
83177SOL    HW251371   1.029  14.637   4.747
83178SOL     OW51372   6.177   0.768   0.840
83178SOL    HW151373   6.190   0.683   0.797
83178SOL    HW251374   6.096   0.802   0.801
83179SOL     OW51375  10.094   0.392  10.784
83179SOL    HW151376  10.111   0.330  10.713
83179SOL    HW251377  10.141   0.356  10.859
83180SOL     OW51378   6.529   6.121   2.162
83180SOL    HW151379   6.575   6.114   2.078
83180SOL    HW251380   6.588   6.173   2.217
83181SOL     OW51381  13.822   3.886   7.696
83181SOL    HW151382  13.853   3.864   7.784
83181SOL    HW251383  13.887   3.848   7.637
83182SOL     OW51384  11.024  10.045   9.327
83182SOL    HW151385  10.945  10.097   9.344
83182SOL    HW251386  11.067  10.039   9.412
83183SOL     OW51387   4.846  14.580   0.194
83183SOL    HW151388   4.823  14.546   0.107
83183SOL    HW251389   4.904  14.654   0.176
83184SOL     OW51390   9.250   6.957  14.350
83184SOL    HW151391   9.305   6.916  14.284
83184SOL    HW251392   9.311   6.981  14.420
83185SOL     OW51393  10.773   0.908  12.833
83185SOL    HW151394  10.823   0.843  12.784
83185SOL    HW251395  10.705   0.936  12.772
83186SOL     OW51396   2.400  14.073   3.806
83186SOL    HW151397   2.454  14.148   3.780
83186SOL    HW251398   2.312  14.109   3.814
83187SOL     OW51399   2.517   7.065   7.198
83187SOL    HW151400   2.568   7.047   7.277
83187SOL    HW251401   2.556   7.009   7.131
83188SOL     OW51402  13.429   0.768   2.511
83188SOL    HW151403  13.376   0.842   2.482
83188SOL    HW251404  13.515   0.783   2.472
83189SOL     OW51405  11.206   2.895   9.902
83189SOL    HW151406  11.213   2.920   9.994
83189SOL    HW251407  11.290   2.921   9.864
83190SOL     OW51408   3.174   3.830  13.329
83190SOL    HW151409   3.091   3.807  13.288
83190SOL    HW251410   3.240   3.818  13.261
83191SOL     OW51411   6.110   0.186   9.213
83191SOL    HW151412   6.183   0.239   9.178
83191SOL    HW251413   6.150   0.103   9.237
83192SOL     OW51414   0.044   5.431   8.424
83192SOL    HW151415   0.103   5.456   8.354
83192SOL    HW251416   0.017   5.514   8.464
83193SOL     OW51417  12.640   0.594  14.185
83193SOL    HW151418  12.686   0.601  14.268
83193SOL    HW251419  12.632   0.684  14.153
83194SOL     OW51420  11.971   1.105  14.849
83194SOL    HW151421  11.882   1.093   0.007
83194SOL    HW251422  11.984   1.033  14.787
83195SOL     OW51423   0.781  14.347   9.507
83195SOL    HW151424   0.854  14.316   9.561
83195SOL    HW251425   0.724  14.271   9.497
83196SOL     OW51426   7.664   0.381   2.884
83196SOL    HW151427   7.668   0.389   2.979
83196SOL    HW251428   7.702   0.295   2.866
83197SOL     OW51429   4.214   9.842   2.578
83197SOL    HW151430   4.120   9.838   2.560
83197SOL    HW251431   4.255   9.834   2.492
83198SOL     OW51432  11.973  10.543   4.461
83198SOL    HW151433  11.954  10.613   4.523
83198SOL    HW251434  11.957  10.463   4.511
83199SOL     OW51435   4.626   0.454   9.691
83199SOL    HW151436   4.669   0.540   9.695
83199SOL    HW251437   4.611   0.430   9.782
83200SOL     OW51438   2.603  10.844  13.062
83200SOL    HW151439   2.557  10.768  13.027
83200SOL    HW251440   2.550  10.919  13.036
83201SOL     OW51441  12.447   4.293  13.151
83201SOL    HW151442  12.474   4.385  13.153
83201SOL    HW251443  12.472   4.258  13.236
83202SOL     OW51444   1.910   7.966   5.976
83202SOL    HW151445   1.936   7.881   6.013
83202SOL    HW251446   1.816   7.970   5.991
83203SOL     OW51447   5.492  12.976   3.572
83203SOL    HW151448   5.412  13.001   3.618
83203SOL    HW251449   5.524  12.900   3.620
83204SOL     OW51450   1.288   2.569   8.465
83204SOL    HW151451   1.238   2.638   8.421
83204SOL    HW251452   1.375   2.573   8.426
83205SOL     OW51453   9.780   3.056  14.558
83205SOL    HW151454   9.770   3.091  14.647
83205SOL    HW251455   9.809   2.966  14.571
83206SOL     OW51456  12.150   1.618   3.878
83206SOL    HW151457  12.112   1.690   3.829
83206SOL    HW251458  12.240   1.646   3.896
83207SOL     OW51459   7.604   0.160   8.499
83207SOL    HW151460   7.532   0.184   8.557
83207SOL    HW251461   7.600   0.225   8.428
83208SOL     OW51462  13.899   9.910  13.249
83208SOL    HW151463  13.822   9.854  13.259
83208SOL    HW251464  13.943   9.876  13.171
83209SOL     OW51465   3.875   8.130  11.550
83209SOL    HW151466   3.915   8.100  11.632
83209SOL    HW251467   3.889   8.225  11.551
83210SOL     OW51468  10.967   6.708  12.607
83210SOL    HW151469  10.959   6.772  12.678
83210SOL    HW251470  10.882   6.710  12.563
83211SOL     OW51471   1.292   4.888   7.114
83211SOL    HW151472   1.282   4.841   7.197
83211SOL    HW251473   1.386   4.905   7.108
83212SOL     OW51474  12.492  11.076   6.250
83212SOL    HW151475  12.438  11.042   6.322
83212SOL    HW251476  12.476  11.171   6.251
83213SOL     OW51477   2.115  13.097   1.651
83213SOL    HW151478   2.186  13.103   1.716
83213SOL    HW251479   2.147  13.148   1.576
83214SOL     OW51480  10.234   6.000  14.319
83214SOL    HW151481  10.314   6.023  14.366
83214SOL    HW251482  10.261   5.995  14.227
83215SOL     OW51483   1.206   8.908   4.494
83215SOL    HW151484   1.123   8.908   4.541
83215SOL    HW251485   1.212   8.995   4.454
83216SOL     OW51486   1.242   8.969   2.857
83216SOL    HW151487   1.212   9.011   2.777
83216SOL    HW251488   1.326   8.930   2.834
83217SOL     OW51489   9.906   5.958   3.234
83217SOL    HW151490   9.877   6.037   3.279
83217SOL    HW251491   9.922   5.987   3.144
83218SOL     OW51492   6.705   0.478  12.499
83218SOL    HW151493   6.638   0.439  12.555
83218SOL    HW251494   6.657   0.532  12.437
83219SOL     OW51495   0.058   0.469  11.413
83219SOL    HW151496  14.853   0.425  11.381
83219SOL    HW251497   0.074   0.431  11.499
83220SOL     OW51498   8.861  13.795   9.264
83220SOL    HW151499   8.801  13.722   9.271
83220SOL    HW251500   8.910  13.795   9.346
83221SOL     OW51501  14.874   9.356   9.506
83221SOL    HW151502   0.008   9.373   9.600
83221SOL    HW251503   0.090   9.338   9.478
83222SOL     OW51504  14.057   1.688  10.277
83222SOL    HW151505  13.975   1.651  10.245
83222SOL    HW251506  14.030   1.747  10.348
83223SOL     OW51507   8.770   1.866   4.794
83223SOL    HW151508   8.681   1.835   4.777
83223SOL    HW251509   8.823   1.822   4.728
83224SOL     OW51510   0.424   1.417  13.548
83224SOL    HW151511   0.451   1.509  13.547
83224SOL    HW251512   0.465   1.381  13.627
83225SOL     OW51513   4.029  13.681   9.652
83225SOL    HW151514   4.016  13.643   9.739
83225SOL    HW251515   3.968  13.633   9.595
83226SOL     OW51516   5.048   3.077   1.715
83226SOL    HW151517   5.098   3.124   1.648
83226SOL    HW251518   5.103   3.082   1.793
83227SOL     OW51519   0.143  13.989   5.637
83227SOL    HW151520   0.125  14.029   5.552
83227SOL    HW251521   0.068  13.933   5.654
83228SOL     OW51522  13.516   0.827   2.024
83228SOL    HW151523  13.458   0.885   2.074
83228SOL    HW251524  13.503   0.741   2.062
83229SOL     OW51525   2.260   2.112   1.859
83229SOL    HW151526   2.340   2.161   1.880
83229SOL    HW251527   2.206   2.120   1.937
83230SOL     OW51528   7.350  10.274   3.249
83230SOL    HW151529   7.409  10.336   3.208
83230SOL    HW251530   7.384  10.265   3.338
83231SOL     OW51531   5.341   1.878  12.487
83231SOL    HW151532   5.378   1.859  12.573
83231SOL    HW251533   5.417   1.881  12.428
83232SOL     OW51534  11.248   6.138   9.217
83232SOL    HW151535  11.341   6.126   9.233
83232SOL    HW251536  11.224   6.213   9.272
83233SOL     OW51537   5.323   2.001  13.647
83233SOL    HW151538   5.242   1.989  13.598
83233SOL    HW251539   5.312   1.949  13.726
83234SOL     OW51540   0.255  11.773   4.260
83234SOL    HW151541   0.337  11.792   4.306
83234SOL    HW251542   0.221  11.859   4.235
83235SOL     OW51543   2.038   0.260  10.057
83235SOL    HW151544   2.053   0.329  10.121
83235SOL    HW251545   2.108   0.197  10.072
83236SOL     OW51546   3.638   5.682  14.819
83236SOL    HW151547   3.607   5.757  14.768
83236SOL    HW251548   3.652   5.717   0.033
83237SOL     OW51549   8.238  10.044   9.220
83237SOL    HW151550   8.179  10.050   9.295
83237SOL    HW251551   8.195  10.096   9.152
83238SOL     OW51552   9.062   7.278  13.507
83238SOL    HW151553   9.151   7.298  13.535
83238SOL    HW251554   9.063   7.184  13.489
83239SOL     OW51555   3.272  12.141   4.324
83239SOL    HW151556   3.215  12.077   4.281
83239SOL    HW251557   3.329  12.087   4.380
83240SOL     OW51558   5.681   8.485   5.471
83240SOL    HW151559   5.624   8.450   5.403
83240SOL    HW251560   5.622   8.527   5.533
83241SOL     OW51561   9.972  10.167   7.578
83241SOL    HW151562   9.989  10.246   7.526
83241SOL    HW251563   9.929  10.107   7.518
83242SOL     OW51564   0.833  11.068   0.158
83242SOL    HW151565   0.875  11.053   0.073
83242SOL    HW251566   0.906  11.081   0.219
83243SOL     OW51567  12.081   3.905   3.700
83243SOL    HW151568  12.028   3.838   3.744
83243SOL    HW251569  12.111   3.864   3.620
83244SOL     OW51570   5.915  10.518   5.654
83244SOL    HW151571   5.995  10.491   5.700
83244SOL    HW251572   5.869  10.436   5.637
83245SOL     OW51573  10.747   4.435   0.558
83245SOL    HW151574  10.725   4.345   0.583
83245SOL    HW251575  10.752   4.482   0.641
83246SOL     OW51576   7.231   7.044  12.940
83246SOL    HW151577   7.282   7.004  13.010
83246SOL    HW251578   7.296   7.067  12.873
83247SOL     OW51579   7.598  13.147   1.247
83247SOL    HW151580   7.510  13.184   1.251
83247SOL    HW251581   7.654  13.214   1.286
83248SOL     OW51582   5.296   0.989  13.324
83248SOL    HW151583   5.221   1.018  13.377
83248SOL    HW251584   5.367   1.048  13.348
83249SOL     OW51585  13.675   9.319   3.432
83249SOL    HW151586  13.644   9.230   3.416
83249SOL    HW251587  13.617   9.374   3.380
83250SOL     OW51588   2.934   4.537   0.758
83250SOL    HW151589   2.859   4.509   0.810
83250SOL    HW251590   2.967   4.456   0.718
83251SOL     OW51591  13.736   0.339  14.760
83251SOL    HW151592  13.758   0.432  14.759
83251SOL    HW251593  13.663   0.332  14.821
83252SOL     OW51594   8.970   2.514  11.364
83252SOL    HW151595   8.926   2.456  11.427
83252SOL    HW251596   8.898   2.562  11.322
83253SOL     OW51597   9.982   1.516  13.567
83253SOL    HW151598   9.912   1.567  13.606
83253SOL    HW251599   9.949   1.491  13.480
83254SOL     OW51600   5.093   1.706  10.023
83254SOL    HW151601   5.177   1.732  10.061
83254SOL    HW251602   5.037   1.686  10.098
83255SOL     OW51603   8.032  14.323   0.975
83255SOL    HW151604   7.947  14.279   0.984
83255SOL    HW251605   8.045  14.366   1.060
83256SOL     OW51606  11.334   0.320   2.432
83256SOL    HW151607  11.291   0.283   2.509
83256SOL    HW251608  11.267   0.315   2.363
83257SOL     OW51609  13.007   9.654   3.281
83257SOL    HW151610  13.039   9.722   3.339
83257SOL    HW251611  13.009   9.574   3.333
83258SOL     OW51612  11.763  10.247   5.652
83258SOL    HW151613  11.845  10.198   5.649
83258SOL    HW251614  11.761  10.294   5.568
83259SOL     OW51615  12.737   7.538   1.759
83259SOL    HW151616  12.779   7.564   1.841
83259SOL    HW251617  12.704   7.450   1.776
83260SOL     OW51618   8.694   5.972   6.688
83260SOL    HW151619   8.727   5.883   6.678
83260SOL    HW251620   8.659   5.995   6.602
83261SOL     OW51621   0.210   2.708  12.401
83261SOL    HW151622   0.163   2.628  12.423
83261SOL    HW251623   0.160   2.778  12.443
83262SOL     OW51624   2.506   9.415   3.875
83262SOL    HW151625   2.452   9.419   3.796
83262SOL    HW251626   2.564   9.491   3.868
83263SOL     OW51627   2.535   5.683  12.813
83263SOL    HW151628   2.576   5.758  12.771
83263SOL    HW251629   2.607   5.626  12.838
83264SOL     OW51630  13.369  11.245   3.396
83264SOL    HW151631  13.405  11.309   3.334
83264SOL    HW251632  13.443  11.187   3.416
83265SOL     OW51633   1.385  13.976   2.777
83265SOL    HW151634   1.307  14.030   2.781
83265SOL    HW251635   1.449  14.030   2.730
83266SOL     OW51636   7.944   7.725   3.718
83266SOL    HW151637   7.874   7.726   3.652
83266SOL    HW251638   8.024   7.743   3.668
83267SOL     OW51639   6.737   2.690   2.395
83267SOL    HW151640   6.779   2.708   2.479
83267SOL    HW251641   6.793   2.733   2.330
83268SOL     OW51642   4.584  10.149   8.398
83268SOL    HW151643   4.617  10.203   8.326
83268SOL    HW251644   4.612  10.194   8.477
83269SOL     OW51645   9.269   3.573  11.898
83269SOL    HW151646   9.340   3.513  11.918
83269SOL    HW251647   9.278   3.590  11.804
83270SOL     OW51648  10.270   9.078   3.267
83270SOL    HW151649  10.340   9.052   3.328
83270SOL    HW251650  10.293   9.036   3.184
83271SOL     OW51651   7.021   9.138   4.018
83271SOL    HW151652   7.100   9.128   4.071
83271SOL    HW251653   7.010   9.054   3.974
83272SOL     OW51654   7.615   5.453  10.996
83272SOL    HW151655   7.555   5.524  11.021
83272SOL    HW251656   7.559   5.377  10.983
83273SOL     OW51657   0.239   2.187  11.182
83273SOL    HW151658   0.289   2.256  11.227
83273SOL    HW251659   0.158   2.231  11.156
83274SOL     OW51660   0.231  14.779   5.730
83274SOL    HW151661   0.206  14.710   5.669
83274SOL    HW251662   0.276  14.844   5.676
83275SOL     OW51663  14.229   5.737   8.616
83275SOL    HW151664  14.248   5.796   8.543
83275SOL    HW251665  14.276   5.774   8.691
83276SOL     OW51666   0.443   1.307   7.306
83276SOL    HW151667   0.535   1.331   7.294
83276SOL    HW251668   0.402   1.328   7.222
83277SOL     OW51669   4.684   0.628   1.731
83277SOL    HW151670   4.622   0.598   1.797
83277SOL    HW251671   4.681   0.724   1.736
83278SOL     OW51672   4.273   7.154   5.335
83278SOL    HW151673   4.180   7.156   5.312
83278SOL    HW251674   4.281   7.081   5.396
83279SOL     OW51675  12.975   6.656   3.766
83279SOL    HW151676  12.903   6.607   3.804
83279SOL    HW251677  12.960   6.652   3.671
83280SOL     OW51678   9.596   9.111   6.905
83280SOL    HW151679   9.678   9.104   6.855
83280SOL    HW251680   9.621   9.160   6.984
83281SOL     OW51681   6.759  14.776  14.187
83281SOL    HW151682   6.718  14.822  14.114
83281SOL    HW251683   6.852  14.773  14.164
83282SOL     OW51684   6.344  14.347  14.383
83282SOL    HW151685   6.397  14.427  14.382
83282SOL    HW251686   6.254  14.378  14.380
83283SOL     OW51687  13.771   2.769   7.235
83283SOL    HW151688  13.764   2.824   7.158
83283SOL    HW251689  13.801   2.684   7.202
83284SOL     OW51690  14.014  13.853  11.090
83284SOL    HW151691  13.974  13.846  11.176
83284SOL    HW251692  14.103  13.884  11.106
83285SOL     OW51693   5.147   5.031  13.761
83285SOL    HW151694   5.057   5.046  13.731
83285SOL    HW251695   5.139   5.016  13.855
83286SOL     OW51696   3.529   2.951   1.390
83286SOL    HW151697   3.562   2.873   1.436
83286SOL    HW251698   3.434   2.940   1.390
83287SOL     OW51699   7.161  10.102  13.592
83287SOL    HW151700   7.240  10.048  13.599
83287SOL    HW251701   7.122  10.077  13.508
83288SOL     OW51702  14.184   0.187   4.022
83288SOL    HW151703  14.185   0.101   3.978
83288SOL    HW251704  14.249   0.238   3.974
83289SOL     OW51705  12.538   6.440  10.439
83289SOL    HW151706  12.561   6.529  10.466
83289SOL    HW251707  12.450   6.426  10.474
83290SOL     OW51708   5.505   0.303   7.752
83290SOL    HW151709   5.598   0.281   7.743
83290SOL    HW251710   5.485   0.285   7.844
83291SOL     OW51711   0.568   7.676  11.614
83291SOL    HW151712   0.588   7.765  11.644
83291SOL    HW251713   0.647   7.626  11.634
83292SOL     OW51714  12.310   1.666  13.938
83292SOL    HW151715  12.252   1.676  13.862
83292SOL    HW251716  12.379   1.730  13.923
83293SOL     OW51717   7.756   9.818   1.919
83293SOL    HW151718   7.761   9.906   1.883
83293SOL    HW251719   7.679   9.779   1.878
83294SOL     OW51720   2.959   7.893  13.969
83294SOL    HW151721   3.020   7.844  13.914
83294SOL    HW251722   2.873   7.857  13.946
83295SOL     OW51723   3.259   6.823   8.482
83295SOL    HW151724   3.334   6.872   8.517
83295SOL    HW251725   3.268   6.830   8.387
83296SOL     OW51726  13.177  14.716   9.718
83296SOL    HW151727  13.140  14.804   9.726
83296SOL    HW251728  13.112  14.666   9.669
83297SOL     OW51729  10.893   9.226   9.855
83297SOL    HW151730  10.815   9.242   9.909
83297SOL    HW251731  10.914   9.311   9.817
83298SOL     OW51732   1.565   6.707   1.307
83298SOL    HW151733   1.583   6.729   1.216
83298SOL    HW251734   1.471   6.685   1.308
83299SOL     OW51735   4.612   2.410   1.484
83299SOL    HW151736   4.522   2.405   1.453
83299SOL    HW251737   4.618   2.494   1.529
83300SOL     OW51738   0.421   9.085   8.515
83300SOL    HW151739   0.372   9.003   8.512
83300SOL    HW251740   0.496   9.070   8.457
83301SOL     OW51741   8.610   5.507   8.105
83301SOL    HW151742   8.575   5.418   8.115
83301SOL    HW251743   8.579   5.534   8.018
83302SOL     OW51744   4.924   9.053   6.049
83302SOL    HW151745   4.898   9.109   6.121
83302SOL    HW251746   5.009   9.017   6.075
83303SOL     OW51747   7.323   2.578  10.749
83303SOL    HW151748   7.392   2.517  10.775
83303SOL    HW251749   7.271   2.590  10.829
83304SOL     OW51750   6.439   7.881   0.145
83304SOL    HW151751   6.355   7.855   0.184
83304SOL    HW251752   6.490   7.917   0.218
83305SOL     OW51753   5.555   8.325  10.670
83305SOL    HW151754   5.460   8.338  10.671
83305SOL    HW251755   5.571   8.254  10.732
83306SOL     OW51756  14.660   1.113  13.794
83306SOL    HW151757  14.648   1.160  13.711
83306SOL    HW251758  14.697   1.029  13.768
83307SOL     OW51759  13.726   3.647   4.105
83307SOL    HW151760  13.789   3.693   4.161
83307SOL    HW251761  13.648   3.702   4.107
83308SOL     OW51762   0.858   4.949   4.514
83308SOL    HW151763   0.879   4.900   4.594
83308SOL    HW251764   0.782   5.003   4.537
83309SOL     OW51765  14.133  11.523  11.726
83309SOL    HW151766  14.104  11.438  11.761
83309SOL    HW251767  14.165  11.571  11.802
83310SOL     OW51768  10.475   1.354   9.194
83310SOL    HW151769  10.507   1.272   9.157
83310SOL    HW251770  10.420   1.327   9.267
83311SOL     OW51771  13.824   1.749   2.858
83311SOL    HW151772  13.821   1.662   2.899
83311SOL    HW251773  13.740   1.789   2.880
83312SOL     OW51774  11.243   6.179   1.713
83312SOL    HW151775  11.243   6.248   1.646
83312SOL    HW251776  11.311   6.118   1.683
83313SOL     OW51777  13.680   3.308  10.147
83313SOL    HW151778  13.604   3.363  10.164
83313SOL    HW251779  13.752   3.350  10.193
83314SOL     OW51780  10.467   2.868   7.481
83314SOL    HW151781  10.402   2.908   7.538
83314SOL    HW251782  10.538   2.933   7.476
83315SOL     OW51783  13.249   5.640  10.721
83315SOL    HW151784  13.272   5.677  10.635
83315SOL    HW251785  13.248   5.545  10.707
83316SOL     OW51786   6.799  14.513   1.012
83316SOL    HW151787   6.776  14.604   0.998
83316SOL    HW251788   6.819  14.479   0.925
83317SOL     OW51789  12.478  14.117   9.834
83317SOL    HW151790  12.393  14.077   9.853
83317SOL    HW251791  12.539  14.043   9.834
83318SOL     OW51792   7.128  10.485   3.905
83318SOL    HW151793   7.209  10.508   3.861
83318SOL    HW251794   7.060  10.530   3.855
83319SOL     OW51795  14.392   8.735  10.265
83319SOL    HW151796  14.487   8.733  10.251
83319SOL    HW251797  14.360   8.654  10.226
83320SOL     OW51798   5.703   5.283   1.293
83320SOL    HW151799   5.629   5.335   1.325
83320SOL    HW251800   5.667   5.194   1.283
83321SOL     OW51801   5.520   4.561   2.498
83321SOL    HW151802   5.440   4.509   2.511
83321SOL    HW251803   5.542   4.549   2.406
83322SOL     OW51804  12.900   5.836  14.539
83322SOL    HW151805  12.923   5.840  14.446
83322SOL    HW251806  12.919   5.746  14.564
83323SOL     OW51807   0.204   9.083  10.690
83323SOL    HW151808   0.254   9.155  10.729
83323SOL    HW251809   0.156   9.045  10.763
83324SOL     OW51810  12.541   9.651   5.566
83324SOL    HW151811  12.532   9.732   5.516
83324SOL    HW251812  12.561   9.679   5.655
83325SOL     OW51813  10.708  14.314   7.534
83325SOL    HW151814  10.670  14.246   7.478
83325SOL    HW251815  10.734  14.383   7.474
83326SOL     OW51816   6.008   4.742  13.226
83326SOL    HW151817   6.004   4.832  13.258
83326SOL    HW251818   6.059   4.747  13.145
83327SOL     OW51819   9.416   0.160   1.594
83327SOL    HW151820   9.462   0.226   1.646
83327SOL    HW251821   9.440   0.077   1.635
83328SOL     OW51822   5.200  14.455   8.562
83328SOL    HW151823   5.240  14.505   8.491
83328SOL    HW251824   5.264  14.460   8.633
83329SOL     OW51825   0.903  12.201   1.860
83329SOL    HW151826   0.809  12.214   1.856
83329SOL    HW251827   0.919  12.176   1.951
83330SOL     OW51828   0.904   8.286  13.122
83330SOL    HW151829   0.947   8.294  13.036
83330SOL    HW251830   0.950   8.350  13.177
83331SOL     OW51831   2.379   5.005  12.733
83331SOL    HW151832   2.376   4.909  12.733
83331SOL    HW251833   2.455   5.026  12.787
83332SOL     OW51834   0.105   2.613   2.545
83332SOL    HW151835   0.034   2.548   2.544
83332SOL    HW251836   0.184   2.562   2.528
83333SOL     OW51837   3.166   0.082   8.681
83333SOL    HW151838   3.203   0.111   8.597
83333SOL    HW251839   3.166  14.860   8.675
83334SOL     OW51840   0.404   3.587   3.552
83334SOL    HW151841   0.310   3.572   3.559
83334SOL    HW251842   0.412   3.679   3.527
83335SOL     OW51843   3.026   2.063  14.121
83335SOL    HW151844   3.007   2.157  14.123
83335SOL    HW251845   3.096   2.054  14.056
83336SOL     OW51846   0.574  10.031   4.934
83336SOL    HW151847   0.654   9.998   4.976
83336SOL    HW251848   0.511   9.959   4.943
83337SOL     OW51849   1.450   6.535   5.585
83337SOL    HW151850   1.419   6.587   5.511
83337SOL    HW251851   1.456   6.597   5.658
83338SOL     OW51852   8.988   9.785   4.517
83338SOL    HW151853   8.915   9.727   4.535
83338SOL    HW251854   9.012   9.822   4.603
83339SOL     OW51855  12.323   5.596  11.987
83339SOL    HW151856  12.229   5.609  11.977
83339SOL    HW251857  12.355   5.678  12.025
83340SOL     OW51858   0.326  10.778   2.917
83340SOL    HW151859   0.407  10.799   2.963
83340SOL    HW251860   0.340  10.810   2.828
83341SOL     OW51861   5.799  10.139  14.223
83341SOL    HW151862   5.893  10.130  14.235
83341SOL    HW251863   5.778  10.224  14.262
83342SOL     OW51864   3.652   5.197  12.088
83342SOL    HW151865   3.571   5.146  12.094
83342SOL    HW251866   3.631   5.268  12.027
83343SOL     OW51867  10.687   6.524   8.880
83343SOL    HW151868  10.613   6.488   8.930
83343SOL    HW251869  10.676   6.488   8.792
83344SOL     OW51870  11.692   7.815   9.131
83344SOL    HW151871  11.633   7.804   9.057
83344SOL    HW251872  11.777   7.785   9.098
83345SOL     OW51873   4.481  13.891   9.248
83345SOL    HW151874   4.562  13.882   9.299
83345SOL    HW251875   4.510  13.881   9.157
83346SOL     OW51876   0.796   5.968  11.434
83346SOL    HW151877   0.709   5.977  11.394
83346SOL    HW251878   0.833   5.889  11.395
83347SOL     OW51879   2.975  11.358  10.841
83347SOL    HW151880   2.937  11.273  10.819
83347SOL    HW251881   2.951  11.415  10.768
83348SOL     OW51882   3.814  10.428   5.953
83348SOL    HW151883   3.753  10.487   5.909
83348SOL    HW251884   3.803  10.344   5.908
83349SOL     OW51885  13.700   9.665  12.741
83349SOL    HW151886  13.619   9.663  12.793
83349SOL    HW251887  13.687   9.597  12.675
83350SOL     OW51888   0.118  13.688   1.981
83350SOL    HW151889   0.202  13.733   1.986
83350SOL    HW251890   0.101  13.679   1.888
83351SOL     OW51891   9.461  12.999   3.407
83351SOL    HW151892   9.412  12.918   3.418
83351SOL    HW251893   9.448  13.046   3.489
83352SOL     OW51894   4.599  14.239  11.755
83352SOL    HW151895   4.611  14.332  11.776
83352SOL    HW251896   4.513  14.218  11.791
83353SOL     OW51897   8.809   3.863   0.590
83353SOL    HW151898   8.753   3.812   0.649
83353SOL    HW251899   8.799   3.822   0.505
83354SOL     OW51900   6.663  13.346  10.916
83354SOL    HW151901   6.700  13.279  10.974
83354SOL    HW251902   6.569  13.333  10.921
83355SOL     OW51903   2.054  12.015   8.775
83355SOL    HW151904   2.014  12.083   8.829
83355SOL    HW251905   2.073  11.944   8.837
83356SOL     OW51906  11.267   6.229   7.469
83356SOL    HW151907  11.357   6.234   7.502
83356SOL    HW251908  11.226   6.310   7.500
83357SOL     OW51909   9.040   0.905   8.431
83357SOL    HW151910   8.981   0.978   8.450
83357SOL    HW251911   9.124   0.933   8.467
83358SOL     OW51912   4.148   4.111   9.909
83358SOL    HW151913   4.167   4.201   9.884
83358SOL    HW251914   4.117   4.117   9.999
83359SOL     OW51915   4.460   6.153  11.539
83359SOL    HW151916   4.513   6.082  11.503
83359SOL    HW251917   4.450   6.131  11.632
83360SOL     OW51918   7.533   5.590   7.469
83360SOL    HW151919   7.474   5.665   7.478
83360SOL    HW251920   7.555   5.588   7.375
83361SOL     OW51921   4.568  13.935   7.008
83361SOL    HW151922   4.480  13.948   7.043
83361SOL    HW251923   4.555  13.918   6.914
83362SOL     OW51924   5.360   6.109  13.998
83362SOL    HW151925   5.346   6.154  13.915
83362SOL    HW251926   5.382   6.179  14.060
83363SOL     OW51927   2.395  11.107   3.609
83363SOL    HW151928   2.487  11.131   3.618
83363SOL    HW251929   2.385  11.083   3.517
83364SOL     OW51930   2.311   7.920   2.612
83364SOL    HW151931   2.369   7.881   2.546
83364SOL    HW251932   2.295   7.850   2.674
83365SOL     OW51933  14.251   0.759  14.821
83365SOL    HW151934  14.175   0.817  14.830
83365SOL    HW251935  14.258   0.742  14.727
83366SOL     OW51936   4.757   8.601   9.450
83366SOL    HW151937   4.841   8.620   9.408
83366SOL    HW251938   4.745   8.671   9.514
83367SOL     OW51939  13.870   9.257  10.329
83367SOL    HW151940  13.892   9.213  10.411
83367SOL    HW251941  13.952   9.296  10.300
83368SOL     OW51942  10.955   0.291  13.925
83368SOL    HW151943  10.886   0.352  13.951
83368SOL    HW251944  11.032   0.319  13.974
83369SOL     OW51945   4.270   9.745   8.273
83369SOL    HW151946   4.318   9.798   8.336
83369SOL    HW251947   4.279   9.655   8.305
83370SOL     OW51948   2.618  14.828   5.792
83370SOL    HW151949   2.597  14.735   5.798
83370SOL    HW251950   2.708  14.834   5.825
83371SOL     OW51951  12.714   4.731  10.476
83371SOL    HW151952  12.794   4.782  10.488
83371SOL    HW251953  12.731   4.676  10.401
83372SOL     OW51954   4.593  12.053   8.774
83372SOL    HW151955   4.521  11.991   8.763
83372SOL    HW251956   4.574  12.099   8.855
83373SOL     OW51957  14.809  13.714   3.343
83373SOL    HW151958  14.727  13.665   3.351
83373SOL    HW251959   0.002  13.652   3.370
83374SOL     OW51960   3.667   3.571   2.417
83374SOL    HW151961   3.577   3.541   2.418
83374SOL    HW251962   3.716   3.501   2.374
83375SOL     OW51963  14.225   4.693   0.311
83375SOL    HW151964  14.215   4.602   0.285
83375SOL    HW251965  14.190   4.698   0.400
83376SOL     OW51966   4.315  10.405  12.111
83376SOL    HW151967   4.291  10.327  12.061
83376SOL    HW251968   4.384  10.446  12.060
83377SOL     OW51969  12.166   9.932  12.639
83377SOL    HW151970  12.098   9.967  12.697
83377SOL    HW251971  12.194   9.851  12.681
83378SOL     OW51972   1.937   9.236   3.475
83378SOL    HW151973   1.951   9.330   3.473
83378SOL    HW251974   1.954   9.207   3.385
83379SOL     OW51975   0.495  10.849   6.329
83379SOL    HW151976   0.476  10.814   6.242
83379SOL    HW251977   0.564  10.791   6.363
83380SOL     OW51978  14.493   6.187   6.779
83380SOL    HW151979  14.483   6.233   6.696
83380SOL    HW251980  14.407   6.196   6.821
83381SOL     OW51981   0.122   6.624   1.261
83381SOL    HW151982   0.209   6.659   1.245
83381SOL    HW251983   0.116   6.546   1.206
83382SOL     OW51984   7.856   9.764   7.669
83382SOL    HW151985   7.872   9.675   7.702
83382SOL    HW251986   7.928   9.779   7.607
83383SOL     OW51987  12.231   7.351   2.299
83383SOL    HW151988  12.300   7.416   2.315
83383SOL    HW251989  12.177   7.353   2.378
83384SOL     OW51990   4.215   3.290   4.955
83384SOL    HW151991   4.142   3.227   4.955
83384SOL    HW251992   4.267   3.265   4.879
83385SOL     OW51993  13.141  11.461   7.272
83385SOL    HW151994  13.174  11.546   7.242
83385SOL    HW251995  13.107  11.479   7.360
83386SOL     OW51996  14.161   4.622   8.290
83386SOL    HW151997  14.215   4.570   8.230
83386SOL    HW251998  14.105   4.674   8.232
83387SOL     OW51999  13.551   6.512  10.314
83387SOL    HW152000  13.531   6.444  10.378
83387SOL    HW252001  13.612   6.570  10.359
83388SOL     OW52002   7.265  11.738  13.604
83388SOL    HW152003   7.324  11.812  13.594
83388SOL    HW252004   7.180  11.770  13.576
83389SOL     OW52005   6.459  11.969   1.820
83389SOL    HW152006   6.410  11.890   1.841
83389SOL    HW252007   6.528  11.973   1.886
83390SOL     OW52008   0.803   6.467  14.804
83390SOL    HW152009   0.756   6.550  14.796
83390SOL    HW252010   0.738   6.400  14.784
83391SOL     OW52011   5.358  10.169   1.332
83391SOL    HW152012   5.340  10.194   1.242
83391SOL    HW252013   5.416  10.237   1.365
83392SOL     OW52014  10.787   0.044   3.729
83392SOL    HW152015  10.715   0.012   3.785
83392SOL    HW252016  10.765   0.136   3.714
83393SOL     OW52017   6.723  14.151   9.054
83393SOL    HW152018   6.647  14.124   9.104
83393SOL    HW252019   6.687  14.181   8.970
83394SOL     OW52020  10.917  10.828   0.437
83394SOL    HW152021  10.869  10.886   0.497
83394SOL    HW252022  10.932  10.882   0.359
83395SOL     OW52023  13.427  14.505  14.780
83395SOL    HW152024  13.366  14.506  14.853
83395SOL    HW252025  13.402  14.581  14.727
83396SOL     OW52026   4.923  12.076   2.984
83396SOL    HW152027   5.015  12.104   2.986
83396SOL    HW252028   4.897  12.072   3.076
83397SOL     OW52029   4.197   0.190   4.267
83397SOL    HW152030   4.138   0.115   4.267
83397SOL    HW252031   4.169   0.242   4.343
83398SOL     OW52032  10.357  10.519   2.647
83398SOL    HW152033  10.318  10.571   2.717
83398SOL    HW252034  10.446  10.553   2.639
83399SOL     OW52035   9.908   8.867  14.784
83399SOL    HW152036   9.988   8.857  14.835
83399SOL    HW252037   9.931   8.839  14.695
83400SOL     OW52038   8.213   6.184   4.269
83400SOL    HW152039   8.148   6.209   4.335
83400SOL    HW252040   8.281   6.251   4.275
83401SOL     OW52041   4.094   2.546  11.512
83401SOL    HW152042   4.000   2.539  11.525
83401SOL    HW252043   4.121   2.620  11.566
83402SOL     OW52044   6.136   5.658   9.350
83402SOL    HW152045   6.113   5.622   9.264
83402SOL    HW252046   6.230   5.641   9.359
83403SOL     OW52047   3.155   1.313  12.201
83403SOL    HW152048   3.235   1.342  12.157
83403SOL    HW252049   3.182   1.235  12.249
83404SOL     OW52050   4.346  10.770   3.849
83404SOL    HW152051   4.411  10.804   3.910
83404SOL    HW252052   4.263  10.810   3.877
83405SOL     OW52053   3.238   8.336  10.298
83405SOL    HW152054   3.241   8.405  10.232
83405SOL    HW252055   3.190   8.264  10.257
83406SOL     OW52056   7.238   6.466   5.808
83406SOL    HW152057   7.331   6.485   5.822
83406SOL    HW252058   7.227   6.375   5.836
83407SOL     OW52059   7.102  12.849   8.596
83407SOL    HW152060   7.092  12.759   8.626
83407SOL    HW252061   7.178  12.846   8.537
83408SOL     OW52062   7.988   5.477   7.503
83408SOL    HW152063   7.920   5.534   7.539
83408SOL    HW252064   7.978   5.395   7.551
83409SOL     OW52065   8.651   1.025  10.762
83409SOL    HW152066   8.576   1.030  10.703
83409SOL    HW252067   8.702   1.104  10.743
83410SOL     OW52068   0.088  10.752   2.195
83410SOL    HW152069   0.015  10.803   2.161
83410SOL    HW252070   0.166  10.797   2.163
83411SOL     OW52071  11.313  12.771   2.553
83411SOL    HW152072  11.293  12.787   2.646
83411SOL    HW252073  11.253  12.829   2.506
83412SOL     OW52074  10.728  11.700  14.574
83412SOL    HW152075  10.719  11.605  14.559
83412SOL    HW252076  10.638  11.732  14.573
83413SOL     OW52077   6.929  13.167   1.665
83413SOL    HW152078   6.871  13.131   1.733
83413SOL    HW252079   7.005  13.199   1.713
83414SOL     OW52080   8.572  10.725   2.331
83414SOL    HW152081   8.634  10.797   2.345
83414SOL    HW252082   8.515  10.757   2.261
83415SOL     OW52083   5.453   9.872   3.882
83415SOL    HW152084   5.497   9.818   3.948
83415SOL    HW252085   5.367   9.889   3.918
83416SOL     OW52086  13.495  11.663   2.700
83416SOL    HW152087  13.441  11.608   2.644
83416SOL    HW252088  13.455  11.750   2.693
83417SOL     OW52089  13.368   5.030   8.775
83417SOL    HW152090  13.314   4.970   8.827
83417SOL    HW252091  13.304   5.079   8.722
83418SOL     OW52092   1.114   7.082   1.846
83418SOL    HW152093   1.180   7.052   1.908
83418SOL    HW252094   1.031   7.065   1.890
83419SOL     OW52095   9.876  10.550   2.078
83419SOL    HW152096   9.874  10.620   2.013
83419SOL    HW252097   9.887  10.596   2.162
83420SOL     OW52098   6.858   1.463   0.419
83420SOL    HW152099   6.906   1.544   0.436
83420SOL    HW252100   6.795   1.487   0.351
83421SOL     OW52101  10.553  10.370   0.644
83421SOL    HW152102  10.524  10.401   0.558
83421SOL    HW252103  10.474  10.372   0.698
83422SOL     OW52104  11.888   2.619   4.469
83422SOL    HW152105  11.855   2.655   4.386
83422SOL    HW252106  11.960   2.562   4.443
83423SOL     OW52107  12.787   9.088  10.871
83423SOL    HW152108  12.739   9.055  10.795
83423SOL    HW252109  12.760   9.180  10.878
83424SOL     OW52110   2.662   4.890  11.807
83424SOL    HW152111   2.746   4.924  11.777
83424SOL    HW252112   2.643   4.940  11.886
83425SOL     OW52113   8.112   7.503   6.368
83425SOL    HW152114   8.057   7.577   6.346
83425SOL    HW252115   8.089   7.481   6.459
83426SOL     OW52116   1.744   0.776   8.484
83426SOL    HW152117   1.780   0.692   8.513
83426SOL    HW252118   1.803   0.803   8.414
83427SOL     OW52119  11.965  14.785   5.308
83427SOL    HW152120  11.885  14.829   5.334
83427SOL    HW252121  12.005  14.844   5.244
83428SOL     OW52122  12.768   2.244   1.910
83428SOL    HW152123  12.738   2.185   1.841
83428SOL    HW252124  12.814   2.314   1.864
83429SOL     OW52125   3.648   3.552   8.633
83429SOL    HW152126   3.701   3.473   8.620
83429SOL    HW252127   3.581   3.525   8.696
83430SOL     OW52128   6.267   6.654   3.724
83430SOL    HW152129   6.193   6.612   3.681
83430SOL    HW252130   6.343   6.628   3.671
83431SOL     OW52131  11.891  11.757   1.959
83431SOL    HW152132  11.852  11.817   1.895
83431SOL    HW252133  11.899  11.808   2.039
83432SOL     OW52134   9.608   8.225  11.190
83432SOL    HW152135   9.635   8.209  11.100
83432SOL    HW252136   9.658   8.161  11.242
83433SOL     OW52137   0.988  12.266   5.348
83433SOL    HW152138   1.048  12.224   5.286
83433SOL    HW252139   1.025  12.353   5.362
83434SOL     OW52140  11.856   7.401   6.618
83434SOL    HW152141  11.940   7.439   6.643
83434SOL    HW252142  11.839   7.435   6.530
83435SOL     OW52143   8.127  10.370   7.388
83435SOL    HW152144   8.085  10.367   7.474
83435SOL    HW252145   8.112  10.282   7.352
83436SOL     OW52146   5.539   3.928   2.705
83436SOL    HW152147   5.553   3.998   2.641
83436SOL    HW252148   5.536   3.848   2.653
83437SOL     OW52149   8.973   6.802   7.266
83437SOL    HW152150   9.019   6.879   7.299
83437SOL    HW252151   8.900   6.789   7.327
83438SOL     OW52152  12.333   8.112   1.568
83438SOL    HW152153  12.413   8.160   1.544
83438SOL    HW252154  12.331   8.038   1.508
83439SOL     OW52155   6.850   9.893   7.738
83439SOL    HW152156   6.867   9.809   7.696
83439SOL    HW252157   6.891   9.957   7.681
83440SOL     OW52158   9.613   7.768   5.549
83440SOL    HW152159   9.696   7.811   5.569
83440SOL    HW252160   9.546   7.833   5.569
83441SOL     OW52161  12.284   2.394   0.234
83441SOL    HW152162  12.212   2.446   0.268
83441SOL    HW252163  12.253   2.303   0.238
83442SOL     OW52164   5.892   4.576   2.310
83442SOL    HW152165   5.871   4.524   2.232
83442SOL    HW252166   5.876   4.516   2.383
83443SOL     OW52167  10.529   1.028   9.434
83443SOL    HW152168  10.602   1.026   9.371
83443SOL    HW252169  10.566   0.991   9.514
83444SOL     OW52170  12.108   3.731   8.249
83444SOL    HW152171  12.012   3.736   8.256
83444SOL    HW252172  12.132   3.655   8.302
83445SOL     OW52173   3.110   2.950  11.236
83445SOL    HW152174   3.152   3.029  11.268
83445SOL    HW252175   3.120   2.887  11.307
83446SOL     OW52176   9.314   1.693  14.377
83446SOL    HW152177   9.365   1.771  14.353
83446SOL    HW252178   9.224   1.716  14.356
83447SOL     OW52179   4.927   9.642   7.901
83447SOL    HW152180   5.010   9.598   7.880
83447SOL    HW252181   4.888   9.660   7.816
83448SOL     OW52182   6.509   0.977  13.597
83448SOL    HW152183   6.571   0.904  13.602
83448SOL    HW252184   6.451   0.953  13.525
83449SOL     OW52185  11.799   1.454  12.240
83449SOL    HW152186  11.778   1.388  12.305
83449SOL    HW252187  11.895   1.452  12.234
83450SOL     OW52188   6.685   3.753   2.660
83450SOL    HW152189   6.618   3.708   2.711
83450SOL    HW252190   6.646   3.764   2.573
83451SOL     OW52191   0.133   1.937   5.373
83451SOL    HW152192   0.101   1.868   5.316
83451SOL    HW252193   0.136   1.897   5.460
83452SOL     OW52194   3.828   1.181   8.936
83452SOL    HW152195   3.791   1.245   8.876
83452SOL    HW252196   3.789   1.097   8.910
83453SOL     OW52197   2.241  12.160   2.935
83453SOL    HW152198   2.254  12.114   2.851
83453SOL    HW252199   2.271  12.249   2.918
83454SOL     OW52200   6.659   5.887   9.126
83454SOL    HW152201   6.749   5.863   9.148
83454SOL    HW252202   6.619   5.805   9.095
83455SOL     OW52203   3.296   8.512  12.188
83455SOL    HW152204   3.209   8.495  12.223
83455SOL    HW252205   3.318   8.600  12.220
83456SOL     OW52206  10.971   5.161  10.054
83456SOL    HW152207  10.924   5.081  10.032
83456SOL    HW252208  10.902   5.227  10.065
83457SOL     OW52209   7.720   9.497  13.191
83457SOL    HW152210   7.710   9.552  13.113
83457SOL    HW252211   7.669   9.542  13.259
83458SOL     OW52212   2.556  14.444   2.110
83458SOL    HW152213   2.564  14.520   2.053
83458SOL    HW252214   2.479  14.397   2.079
83459SOL     OW52215  13.864  12.562   8.296
83459SOL    HW152216  13.795  12.501   8.269
83459SOL    HW252217  13.944  12.509   8.296
83460SOL     OW52218   4.746   3.583  10.436
83460SOL    HW152219   4.738   3.678  10.443
83460SOL    HW252220   4.812   3.570  10.368
83461SOL     OW52221   0.941   4.553   7.219
83461SOL    HW152222   0.958   4.546   7.313
83461SOL    HW252223   0.866   4.612   7.212
83462SOL     OW52224   5.402   5.883   3.544
83462SOL    HW152225   5.407   5.970   3.507
83462SOL    HW252226   5.440   5.825   3.478
83463SOL     OW52227   2.849   9.311   5.360
83463SOL    HW152228   2.931   9.305   5.409
83463SOL    HW252229   2.860   9.388   5.305
83464SOL     OW52230   5.564   1.584   9.862
83464SOL    HW152231   5.623   1.656   9.841
83464SOL    HW252232   5.614   1.505   9.844
83465SOL     OW52233   3.627   0.314   2.414
83465SOL    HW152234   3.554   0.351   2.365
83465SOL    HW252235   3.660   0.386   2.467
83466SOL     OW52236   7.346  11.569  13.388
83466SOL    HW152237   7.313  11.480  13.375
83466SOL    HW252238   7.305  11.598  13.469
83467SOL     OW52239  12.663   5.532  12.126
83467SOL    HW152240  12.602   5.600  12.155
83467SOL    HW252241  12.748   5.560  12.158
83468SOL     OW52242   1.337  13.294   2.422
83468SOL    HW152243   1.374  13.375   2.455
83468SOL    HW252244   1.385  13.278   2.340
83469SOL     OW52245  14.522  11.394  14.403
83469SOL    HW152246  14.431  11.405  14.432
83469SOL    HW252247  14.556  11.484  14.397
83470SOL     OW52248   3.268   9.226  12.063
83470SOL    HW152249   3.180   9.242  12.030
83470SOL    HW252250   3.319   9.300  12.031
83471SOL     OW52251   5.494   9.593  10.480
83471SOL    HW152252   5.417   9.650  10.481
83471SOL    HW252253   5.568   9.652  10.468
83472SOL     OW52254   1.341   2.839   3.424
83472SOL    HW152255   1.277   2.790   3.477
83472SOL    HW252256   1.394   2.886   3.488
83473SOL     OW52257   5.839   7.070   5.096
83473SOL    HW152258   5.781   7.053   5.021
83473SOL    HW252259   5.822   6.997   5.156
83474SOL     OW52260   6.778  12.601   6.684
83474SOL    HW152261   6.746  12.683   6.648
83474SOL    HW252262   6.728  12.588   6.764
83475SOL     OW52263  13.576   0.019   6.124
83475SOL    HW152264  13.545   0.053   6.040
83475SOL    HW252265  13.669   0.003   6.110
83476SOL     OW52266   3.994   8.880   0.665
83476SOL    HW152267   4.013   8.807   0.606
83476SOL    HW252268   4.070   8.938   0.656
83477SOL     OW52269  10.728   6.271   4.386
83477SOL    HW152270  10.747   6.352   4.433
83477SOL    HW252271  10.633   6.261   4.394
83478SOL     OW52272   9.864   9.483   8.434
83478SOL    HW152273   9.812   9.468   8.514
83478SOL    HW252274   9.953   9.498   8.466
83479SOL     OW52275  13.029   9.302  12.340
83479SOL    HW152276  13.031   9.224  12.395
83479SOL    HW252277  13.085   9.365  12.385
83480SOL     OW52278   1.171   9.115   9.391
83480SOL    HW152279   1.230   9.181   9.428
83480SOL    HW252280   1.084   9.152   9.402
83481SOL     OW52281   2.533   1.826   0.471
83481SOL    HW152282   2.619   1.860   0.446
83481SOL    HW252283   2.519   1.859   0.560
83482SOL     OW52284   4.183   7.617   1.012
83482SOL    HW152285   4.186   7.637   1.105
83482SOL    HW252286   4.205   7.699   0.968
83483SOL     OW52287  10.785  14.628   0.869
83483SOL    HW152288  10.853  14.599   0.808
83483SOL    HW252289  10.733  14.549   0.886
83484SOL     OW52290   9.422   3.380  12.003
83484SOL    HW152291   9.485   3.311  11.986
83484SOL    HW252292   9.357   3.339  12.060
83485SOL     OW52293  11.365   0.440  12.077
83485SOL    HW152294  11.292   0.389  12.042
83485SOL    HW252295  11.435   0.428  12.013
83486SOL     OW52296   7.814  13.396  11.678
83486SOL    HW152297   7.744  13.403  11.614
83486SOL    HW252298   7.855  13.312  11.659
83487SOL     OW52299  12.105   0.308  12.366
83487SOL    HW152300  12.027   0.284  12.317
83487SOL    HW252301  12.135   0.226  12.405
83488SOL     OW52302  11.414  10.086  13.005
83488SOL    HW152303  11.443  10.003  13.040
83488SOL    HW252304  11.463  10.098  12.924
83489SOL     OW52305   9.595   8.135   4.189
83489SOL    HW152306   9.616   8.104   4.277
83489SOL    HW252307   9.506   8.102   4.172
83490SOL     OW52308   7.760  10.557   1.933
83490SOL    HW152309   7.724  10.511   2.009
83490SOL    HW252310   7.765  10.648   1.960
83491SOL     OW52311   0.105   8.009   6.495
83491SOL    HW152312   0.123   7.915   6.491
83491SOL    HW252313   0.011   8.015   6.510
83492SOL     OW52314   8.959   0.621   5.795
83492SOL    HW152315   8.991   0.685   5.859
83492SOL    HW252316   8.880   0.660   5.759
83493SOL     OW52317   2.693   6.110   4.777
83493SOL    HW152318   2.614   6.098   4.829
83493SOL    HW252319   2.671   6.179   4.714
83494SOL     OW52320   9.342   4.393   2.137
83494SOL    HW152321   9.297   4.359   2.059
83494SOL    HW252322   9.356   4.486   2.118
83495SOL     OW52323   9.586   8.428   3.753
83495SOL    HW152324   9.634   8.487   3.694
83495SOL    HW252325   9.500   8.469   3.763
83496SOL     OW52326   7.408   4.358   8.640
83496SOL    HW152327   7.369   4.281   8.681
83496SOL    HW252328   7.350   4.379   8.568
83497SOL     OW52329  13.908   5.600   2.210
83497SOL    HW152330  13.919   5.615   2.304
83497SOL    HW252331  13.890   5.687   2.175
83498SOL     OW52332   9.416   4.634  11.626
83498SOL    HW152333   9.444   4.542  11.627
83498SOL    HW252334   9.329   4.632  11.665
83499SOL     OW52335   8.523   6.511   6.266
83499SOL    HW152336   8.591   6.444   6.254
83499SOL    HW252337   8.442   6.469   6.237
83500SOL     OW52338   9.266   2.890   4.765
83500SOL    HW152339   9.307   2.839   4.835
83500SOL    HW252340   9.238   2.824   4.701
83501SOL     OW52341  14.457   7.953  12.401
83501SOL    HW152342  14.491   8.007  12.472
83501SOL    HW252343  14.388   7.901  12.441
83502SOL     OW52344  12.050   6.944   0.194
83502SOL    HW152345  12.114   6.875   0.212
83502SOL    HW252346  12.102   7.014   0.154
83503SOL     OW52347   7.960   3.975   7.012
83503SOL    HW152348   7.888   4.023   6.971
83503SOL    HW252349   8.002   3.928   6.939
83504SOL     OW52350  11.614  14.364   6.968
83504SOL    HW152351  11.600  14.306   6.893
83504SOL    HW252352  11.703  14.346   6.997
83505SOL     OW52353  13.845   7.627   0.096
83505SOL    HW152354  13.860   7.667   0.182
83505SOL    HW252355  13.867   7.697   0.034
83506SOL     OW52356   3.700   4.341   7.166
83506SOL    HW152357   3.680   4.294   7.085
83506SOL    HW252358   3.705   4.273   7.233
83507SOL     OW52359  10.902  14.470   2.305
83507SOL    HW152360  10.877  14.495   2.216
83507SOL    HW252361  10.829  14.416   2.336
83508SOL     OW52362   4.197   2.086  11.868
83508SOL    HW152363   4.279   2.100  11.914
83508SOL    HW252364   4.130   2.092  11.936
83509SOL     OW52365  13.895  10.950   9.343
83509SOL    HW152366  13.869  10.858   9.351
83509SOL    HW252367  13.990  10.949   9.355
83510SOL     OW52368   4.538   1.590   1.203
83510SOL    HW152369   4.459   1.579   1.150
83510SOL    HW252370   4.506   1.609   1.291
83511SOL     OW52371   6.008   9.788  12.847
83511SOL    HW152372   6.071   9.857  12.827
83511SOL    HW252373   6.052   9.707  12.818
83512SOL     OW52374   2.950  13.079   1.118
83512SOL    HW152375   2.942  13.034   1.203
83512SOL    HW252376   2.907  13.020   1.056
83513SOL     OW52377   8.336   8.484  11.778
83513SOL    HW152378   8.310   8.422  11.846
83513SOL    HW252379   8.350   8.566  11.825
83514SOL     OW52380   2.827   5.104   7.918
83514SOL    HW152381   2.881   5.180   7.940
83514SOL    HW252382   2.739   5.139   7.904
83515SOL     OW52383   0.660   1.764  13.679
83515SOL    HW152384   0.577   1.743  13.637
83515SOL    HW252385   0.722   1.773  13.607
83516SOL     OW52386   6.966   4.150   9.684
83516SOL    HW152387   6.976   4.200   9.765
83516SOL    HW252388   6.900   4.084   9.704
83517SOL     OW52389   3.876   2.430  10.847
83517SOL    HW152390   3.826   2.400  10.923
83517SOL    HW252391   3.815   2.423  10.773
83518SOL     OW52392   4.695   3.798  12.430
83518SOL    HW152393   4.654   3.817  12.345
83518SOL    HW252394   4.667   3.871  12.486
83519SOL     OW52395  11.616   2.555   1.539
83519SOL    HW152396  11.663   2.557   1.456
83519SOL    HW252397  11.532   2.513   1.519
83520SOL     OW52398   5.493   3.488   1.886
83520SOL    HW152399   5.506   3.547   1.960
83520SOL    HW252400   5.445   3.540   1.822
83521SOL     OW52401   0.615   8.376  10.162
83521SOL    HW152402   0.636   8.438  10.092
83521SOL    HW252403   0.698   8.335  10.184
83522SOL     OW52404   3.163   6.195   0.193
83522SOL    HW152405   3.087   6.175   0.138
83522SOL    HW252406   3.208   6.266   0.148
83523SOL     OW52407  12.695  11.034  10.359
83523SOL    HW152408  12.696  10.992  10.445
83523SOL    HW252409  12.659  10.967  10.300
83524SOL     OW52410   7.625   7.728  14.656
83524SOL    HW152411   7.590   7.722  14.566
83524SOL    HW252412   7.612   7.820  14.680
83525SOL     OW52413  11.734  11.000  11.268
83525SOL    HW152414  11.815  11.011  11.219
83525SOL    HW252415  11.761  11.007  11.360
83526SOL     OW52416   9.479   0.207   5.563
83526SOL    HW152417   9.443   0.278   5.616
83526SOL    HW252418   9.573   0.210   5.581
83527SOL     OW52419  13.612  14.459   0.130
83527SOL    HW152420  13.592  14.546   0.095
83527SOL    HW252421  13.670  14.420   0.064
83528SOL     OW52422   2.877   2.316  10.402
83528SOL    HW152423   2.940   2.382  10.372
83528SOL    HW252424   2.849   2.271  10.322
83529SOL     OW52425  12.942  14.579  13.435
83529SOL    HW152426  12.971  14.628  13.511
83529SOL    HW252427  13.006  14.600  13.367
83530SOL     OW52428   3.942  13.836   7.496
83530SOL    HW152429   3.976  13.861   7.582
83530SOL    HW252430   3.849  13.821   7.511
83531SOL     OW52431   5.317   1.391   2.437
83531SOL    HW152432   5.398   1.406   2.486
83531SOL    HW252433   5.344   1.390   2.345
83532SOL     OW52434   3.532   2.958  12.452
83532SOL    HW152435   3.589   3.016  12.503
83532SOL    HW252436   3.448   3.004  12.449
83533SOL     OW52437   7.513   7.780   0.964
83533SOL    HW152438   7.453   7.720   0.919
83533SOL    HW252439   7.567   7.723   1.018
83534SOL     OW52440   5.301  13.836   2.115
83534SOL    HW152441   5.382  13.811   2.158
83534SOL    HW252442   5.313  13.810   2.024
83535SOL     OW52443   3.431   1.171   5.664
83535SOL    HW152444   3.404   1.183   5.755
83535SOL    HW252445   3.349   1.153   5.618
83536SOL     OW52446   2.791   4.667   1.948
83536SOL    HW152447   2.725   4.597   1.946
83536SOL    HW252448   2.739   4.748   1.946
83537SOL     OW52449   7.608   4.727   9.828
83537SOL    HW152450   7.535   4.789   9.836
83537SOL    HW252451   7.686   4.782   9.821
83538SOL     OW52452  10.594   8.333  13.175
83538SOL    HW152453  10.563   8.422  13.158
83538SOL    HW252454  10.515   8.279  13.167
83539SOL     OW52455   2.829   3.039   4.082
83539SOL    HW152456   2.844   2.981   4.007
83539SOL    HW252457   2.907   3.031   4.135
83540SOL     OW52458   1.581   1.820   2.173
83540SOL    HW152459   1.667   1.787   2.200
83540SOL    HW252460   1.535   1.744   2.138
83541SOL     OW52461   6.353  13.304   4.621
83541SOL    HW152462   6.294  13.231   4.605
83541SOL    HW252463   6.301  13.368   4.669
83542SOL     OW52464   6.162   6.728  14.025
83542SOL    HW152465   6.245   6.722  13.979
83542SOL    HW252466   6.107   6.661  13.986
83543SOL     OW52467  14.045   7.141   4.583
83543SOL    HW152468  14.120   7.140   4.523
83543SOL    HW252469  13.998   7.222   4.562
83544SOL     OW52470   4.231  13.562   0.942
83544SOL    HW152471   4.312  13.554   0.994
83544SOL    HW252472   4.232  13.486   0.885
83545SOL     OW52473   5.758  13.665   2.406
83545SOL    HW152474   5.790  13.718   2.333
83545SOL    HW252475   5.803  13.701   2.483
83546SOL     OW52476  12.091   0.948   2.650
83546SOL    HW152477  12.181   0.979   2.661
83546SOL    HW252478  12.078   0.886   2.723
83547SOL     OW52479   2.769   8.106   7.994
83547SOL    HW152480   2.678   8.085   8.015
83547SOL    HW252481   2.770   8.201   7.983
83548SOL     OW52482   4.634  13.097   5.432
83548SOL    HW152483   4.628  13.133   5.344
83548SOL    HW252484   4.713  13.136   5.469
83549SOL     OW52485   6.027   8.231   0.650
83549SOL    HW152486   6.080   8.300   0.688
83549SOL    HW252487   5.964   8.208   0.718
83550SOL     OW52488   2.680   2.988   7.106
83550SOL    HW152489   2.737   2.935   7.051
83550SOL    HW252490   2.606   3.010   7.049
83551SOL     OW52491   4.092  11.660  11.332
83551SOL    HW152492   4.035  11.595  11.374
83551SOL    HW252493   4.142  11.610  11.268
83552SOL     OW52494   6.806   1.557   9.484
83552SOL    HW152495   6.766   1.471   9.499
83552SOL    HW252496   6.833   1.555   9.392
83553SOL     OW52497   3.991   8.921  12.275
83553SOL    HW152498   3.989   9.017  12.276
83553SOL    HW252499   4.082   8.899  12.254
83554SOL     OW52500  13.492  12.071   3.828
83554SOL    HW152501  13.482  12.018   3.749
83554SOL    HW252502  13.530  12.011   3.892
83555SOL     OW52503  14.372   9.117  12.913
83555SOL    HW152504  14.376   9.206  12.876
83555SOL    HW252505  14.462   9.085  12.908
83556SOL     OW52506   6.704   8.267   0.921
83556SOL    HW152507   6.695   8.232   0.833
83556SOL    HW252508   6.762   8.342   0.912
83557SOL     OW52509  13.858   0.949  13.626
83557SOL    HW152510  13.944   0.960  13.587
83557SOL    HW252511  13.835   0.857  13.610
83558SOL     OW52512   3.638  14.311   6.796
83558SOL    HW152513   3.620  14.404   6.811
83558SOL    HW252514   3.627  14.299   6.702
83559SOL     OW52515   9.000   2.825   6.849
83559SOL    HW152516   8.979   2.795   6.760
83559SOL    HW252517   9.036   2.913   6.837
83560SOL     OW52518  14.774   0.165   9.939
83560SOL    HW152519  14.788   0.120  10.022
83560SOL    HW252520  14.737   0.250   9.963
83561SOL     OW52521   3.603   0.009   1.581
83561SOL    HW152522   3.613  14.844   1.668
83561SOL    HW252523   3.542   0.081   1.595
83562SOL     OW52524  13.844  14.700  13.032
83562SOL    HW152525  13.848  14.633  12.964
83562SOL    HW252526  13.931  14.700  13.072
83563SOL     OW52527   2.871   9.297  14.506
83563SOL    HW152528   2.898   9.205  14.504
83563SOL    HW252529   2.795   9.298  14.564
83564SOL     OW52530  12.668  12.815  12.388
83564SOL    HW152531  12.635  12.725  12.383
83564SOL    HW252532  12.627  12.851  12.467
83565SOL     OW52533   0.694   0.442  11.277
83565SOL    HW152534   0.650   0.386  11.341
83565SOL    HW252535   0.682   0.531  11.310
83566SOL     OW52536   7.018   4.756   8.287
83566SOL    HW152537   7.043   4.695   8.219
83566SOL    HW252538   7.007   4.840   8.241
83567SOL     OW52539   8.086   9.254   2.541
83567SOL    HW152540   8.084   9.322   2.474
83567SOL    HW252541   8.146   9.188   2.507
83568SOL     OW52542   6.966   2.591  10.670
83568SOL    HW152543   6.922   2.533  10.732
83568SOL    HW252544   6.968   2.676  10.714
83569SOL     OW52545   2.336  10.084   8.194
83569SOL    HW152546   2.385  10.123   8.122
83569SOL    HW252547   2.252  10.130   8.193
83570SOL     OW52548   8.693  14.840   1.158
83570SOL    HW152549   8.635  14.807   1.227
83570SOL    HW252550   8.766  14.778   1.157
83571SOL     OW52551   4.953   4.051   9.044
83571SOL    HW152552   4.951   3.955   9.040
83571SOL    HW252553   4.987   4.077   8.958
83572SOL     OW52554  11.286  14.255  10.099
83572SOL    HW152555  11.248  14.178  10.056
83572SOL    HW252556  11.376  14.229  10.118
83573SOL     OW52557   2.254  13.911  13.760
83573SOL    HW152558   2.275  13.954  13.843
83573SOL    HW252559   2.294  13.824  13.768
83574SOL     OW52560  10.109   3.478   4.958
83574SOL    HW152561  10.027   3.508   4.997
83574SOL    HW252562  10.125   3.538   4.886
83575SOL     OW52563   4.818   4.247   4.337
83575SOL    HW152564   4.860   4.247   4.251
83575SOL    HW252565   4.792   4.156   4.352
83576SOL     OW52566   6.215  11.391   6.217
83576SOL    HW152567   6.122  11.407   6.200
83576SOL    HW252568   6.251  11.477   6.238
83577SOL     OW52569   5.598   3.684   7.332
83577SOL    HW152570   5.574   3.722   7.248
83577SOL    HW252571   5.531   3.618   7.348
83578SOL     OW52572  13.893   1.156   8.610
83578SOL    HW152573  13.934   1.159   8.696
83578SOL    HW252574  13.864   1.246   8.594
83579SOL     OW52575  12.232  13.064  11.939
83579SOL    HW152576  12.262  13.033  12.025
83579SOL    HW252577  12.142  13.093  11.955
83580SOL     OW52578  12.689  12.258   3.504
83580SOL    HW152579  12.703  12.201   3.580
83580SOL    HW252580  12.723  12.207   3.430
83581SOL     OW52581   5.872   8.474   7.432
83581SOL    HW152582   5.881   8.464   7.337
83581SOL    HW252583   5.961   8.463   7.465
83582SOL     OW52584   0.237  12.379   0.881
83582SOL    HW152585   0.321  12.382   0.834
83582SOL    HW252586   0.242  12.299   0.934
83583SOL     OW52587   2.604   6.807   8.232
83583SOL    HW152588   2.676   6.858   8.271
83583SOL    HW252589   2.645   6.724   8.207
83584SOL     OW52590   6.920   1.448   6.819
83584SOL    HW152591   7.012   1.424   6.805
83584SOL    HW252592   6.878   1.424   6.736
83585SOL     OW52593   6.052   4.734   2.915
83585SOL    HW152594   6.093   4.662   2.964
83585SOL    HW252595   6.099   4.812   2.944
83586SOL     OW52596  13.423  13.830   9.434
83586SOL    HW152597  13.426  13.841   9.529
83586SOL    HW252598  13.350  13.770   9.419
83587SOL     OW52599  11.058  10.320  11.605
83587SOL    HW152600  10.990  10.259  11.633
83587SOL    HW252601  11.010  10.387  11.556
83588SOL     OW52602   3.531   3.509  10.459
83588SOL    HW152603   3.621   3.540  10.469
83588SOL    HW252604   3.504   3.541  10.372
83589SOL     OW52605   0.113   6.768   2.768
83589SOL    HW152606   0.081   6.852   2.800
83589SOL    HW252607   0.099   6.771   2.673
83590SOL     OW52608   6.649   4.125   2.518
83590SOL    HW152609   6.604   4.096   2.597
83590SOL    HW252610   6.597   4.200   2.488
83591SOL     OW52611   9.905   9.650  14.691
83591SOL    HW152612   9.853   9.706  14.749
83591SOL    HW252613   9.975   9.708  14.659
83592SOL     OW52614   4.260   7.352   1.559
83592SOL    HW152615   4.281   7.354   1.652
83592SOL    HW252616   4.294   7.268   1.528
83593SOL     OW52617   6.364  11.152   9.463
83593SOL    HW152618   6.322  11.073   9.429
83593SOL    HW252619   6.323  11.223   9.413
83594SOL     OW52620  10.527   6.697  11.550
83594SOL    HW152621  10.560   6.735  11.631
83594SOL    HW252622  10.532   6.603  11.564
83595SOL     OW52623   7.949  11.786  12.361
83595SOL    HW152624   7.992  11.728  12.423
83595SOL    HW252625   7.959  11.743  12.276
83596SOL     OW52626   9.020  14.533   3.373
83596SOL    HW152627   9.048  14.487   3.453
83596SOL    HW252628   9.077  14.610   3.369
83597SOL     OW52629   6.134   1.461  13.757
83597SOL    HW152630   6.069   1.510  13.807
83597SOL    HW252631   6.130   1.498  13.669
83598SOL     OW52632   8.386  10.832   9.226
83598SOL    HW152633   8.434  10.911   9.198
83598SOL    HW252634   8.449  10.761   9.215
83599SOL     OW52635   0.534   1.073   9.869
83599SOL    HW152636   0.615   1.078   9.920
83599SOL    HW252637   0.465   1.066   9.935
83600SOL     OW52638   3.246   5.543  10.747
83600SOL    HW152639   3.199   5.620  10.715
83600SOL    HW252640   3.179   5.491  10.793
83601SOL     OW52641   6.571   8.509  13.687
83601SOL    HW152642   6.482   8.544  13.693
83601SOL    HW252643   6.592   8.512  13.594
83602SOL     OW52644   2.793  11.943  11.829
83602SOL    HW152645   2.738  11.888  11.885
83602SOL    HW252646   2.734  12.009  11.794
83603SOL     OW52647  12.370   5.619   4.728
83603SOL    HW152648  12.310   5.626   4.654
83603SOL    HW252649  12.319   5.572   4.795
83604SOL     OW52650   7.232   2.399   5.438
83604SOL    HW152651   7.208   2.397   5.346
83604SOL    HW252652   7.161   2.352   5.482
83605SOL     OW52653  14.373  10.159   3.092
83605SOL    HW152654  14.315  10.167   3.017
83605SOL    HW252655  14.333  10.215   3.159
83606SOL     OW52656   0.548   9.447  14.627
83606SOL    HW152657   0.544   9.352  14.625
83606SOL    HW252658   0.615   9.467  14.693
83607SOL     OW52659   8.816   7.508   1.418
83607SOL    HW152660   8.754   7.437   1.432
83607SOL    HW252661   8.823   7.516   1.323
83608SOL     OW52662   0.723   7.822   3.676
83608SOL    HW152663   0.721   7.736   3.633
83608SOL    HW252664   0.757   7.804   3.764
83609SOL     OW52665  11.848   9.825   4.705
83609SOL    HW152666  11.845   9.751   4.644
83609SOL    HW252667  11.910   9.798   4.772
83610SOL     OW52668   4.694  10.544   2.048
83610SOL    HW152669   4.748  10.522   1.971
83610SOL    HW252670   4.625  10.477   2.048
83611SOL     OW52671  12.193   5.008  14.187
83611SOL    HW152672  12.289   5.013  14.185
83611SOL    HW252673  12.170   5.035  14.276
83612SOL     OW52674   6.622   0.797   4.843
83612SOL    HW152675   6.640   0.761   4.756
83612SOL    HW252676   6.701   0.776   4.893
83613SOL     OW52677   7.798   4.263  10.820
83613SOL    HW152678   7.785   4.243  10.727
83613SOL    HW252679   7.734   4.209  10.866
83614SOL     OW52680   6.552  14.200   1.017
83614SOL    HW152681   6.551  14.264   0.946
83614SOL    HW252682   6.466  14.158   1.013
83615SOL     OW52683  12.786  12.423  10.353
83615SOL    HW152684  12.813  12.337  10.320
83615SOL    HW252685  12.692  12.426  10.339
83616SOL     OW52686   5.389  13.936   3.923
83616SOL    HW152687   5.456  13.955   3.987
83616SOL    HW252688   5.413  13.851   3.886
83617SOL     OW52689   3.692   2.340   5.807
83617SOL    HW152690   3.629   2.397   5.852
83617SOL    HW252691   3.776   2.360   5.849
83618SOL     OW52692   9.992   9.629   6.919
83618SOL    HW152693  10.045   9.585   6.853
83618SOL    HW252694   9.994   9.570   6.995
83619SOL     OW52695  11.183   6.224   0.851
83619SOL    HW152696  11.197   6.165   0.777
83619SOL    HW252697  11.099   6.196   0.888
83620SOL     OW52698   0.241   9.173   7.127
83620SOL    HW152699   0.292   9.110   7.178
83620SOL    HW252700   0.204   9.122   7.056
83621SOL     OW52701  10.343   1.182   6.049
83621SOL    HW152702  10.300   1.175   5.963
83621SOL    HW252703  10.410   1.249   6.036
83622SOL     OW52704   3.657   6.447  13.403
83622SOL    HW152705   3.740   6.440  13.449
83622SOL    HW252706   3.663   6.384  13.331
83623SOL     OW52707   5.259   6.680  13.176
83623SOL    HW152708   5.250   6.689  13.081
83623SOL    HW252709   5.218   6.760  13.211
83624SOL     OW52710  10.212  10.404  14.098
83624SOL    HW152711  10.233  10.478  14.041
83624SOL    HW252712  10.294  10.384  14.143
83625SOL     OW52713   5.792   8.364   2.897
83625SOL    HW152714   5.802   8.436   2.959
83625SOL    HW252715   5.701   8.371   2.866
83626SOL     OW52716   6.791   6.528   1.075
83626SOL    HW152717   6.786   6.519   0.980
83626SOL    HW252718   6.876   6.491   1.098
83627SOL     OW52719  13.668   5.211   6.990
83627SOL    HW152720  13.720   5.132   6.974
83627SOL    HW252721  13.577   5.182   6.987
83628SOL     OW52722   0.239   8.879   2.680
83628SOL    HW152723   0.186   8.928   2.617
83628SOL    HW252724   0.297   8.826   2.625
83629SOL     OW52725   0.414   1.959   3.296
83629SOL    HW152726   0.399   2.010   3.375
83629SOL    HW252727   0.328   1.953   3.254
83630SOL     OW52728   8.203   2.866   8.297
83630SOL    HW152729   8.122   2.880   8.249
83630SOL    HW252730   8.179   2.878   8.389
83631SOL     OW52731   1.304   5.103   7.918
83631SOL    HW152732   1.252   5.178   7.891
83631SOL    HW252733   1.321   5.118   8.011
83632SOL     OW52734  10.112   5.897   6.307
83632SOL    HW152735  10.121   5.948   6.226
83632SOL    HW252736  10.202   5.880   6.334
83633SOL     OW52737   1.847   3.174   7.613
83633SOL    HW152738   1.786   3.100   7.618
83633SOL    HW252739   1.920   3.140   7.561
83634SOL     OW52740   9.573   5.085   4.383
83634SOL    HW152741   9.513   5.034   4.328
83634SOL    HW252742   9.656   5.083   4.335
83635SOL     OW52743  12.521  10.098   1.259
83635SOL    HW152744  12.522  10.191   1.280
83635SOL    HW252745  12.609  10.067   1.282
83636SOL     OW52746   6.022  13.606  14.779
83636SOL    HW152747   6.010  13.561  14.695
83636SOL    HW252748   6.115  13.627  14.782
83637SOL     OW52749  12.951   1.940   8.111
83637SOL    HW152750  12.868   1.987   8.109
83637SOL    HW252751  12.983   1.944   8.021
83638SOL     OW52752  12.372  14.264  11.227
83638SOL    HW152753  12.413  14.216  11.156
83638SOL    HW252754  12.322  14.198  11.275
83639SOL     OW52755  10.824   1.134   3.080
83639SOL    HW152756  10.872   1.217   3.088
83639SOL    HW252757  10.843   1.088   3.162
83640SOL     OW52758  11.048   2.375   2.268
83640SOL    HW152759  11.140   2.384   2.244
83640SOL    HW252760  11.000   2.411   2.194
83641SOL     OW52761   2.782   0.371   1.428
83641SOL    HW152762   2.779   0.451   1.376
83641SOL    HW252763   2.792   0.301   1.364
83642SOL     OW52764  13.003   8.349  12.002
83642SOL    HW152765  13.009   8.430  12.053
83642SOL    HW252766  12.961   8.375  11.921
83643SOL     OW52767  11.223   8.422   9.602
83643SOL    HW152768  11.218   8.445   9.509
83643SOL    HW252769  11.133   8.427   9.633
83644SOL     OW52770   9.492   7.663  12.335
83644SOL    HW152771   9.566   7.610  12.305
83644SOL    HW252772   9.510   7.751  12.301
83645SOL     OW52773   7.909   0.620   3.111
83645SOL    HW152774   7.951   0.703   3.134
83645SOL    HW252775   7.855   0.598   3.187
83646SOL     OW52776   1.621  13.836   6.805
83646SOL    HW152777   1.628  13.862   6.713
83646SOL    HW252778   1.603  13.918   6.852
83647SOL     OW52779   9.922   8.009   0.972
83647SOL    HW152780   9.942   7.986   0.882
83647SOL    HW252781   9.840   7.964   0.991
83648SOL     OW52782   5.431   9.105   2.967
83648SOL    HW152783   5.468   9.068   3.047
83648SOL    HW252784   5.451   9.198   2.972
83649SOL     OW52785   9.551   2.944   4.207
83649SOL    HW152786   9.533   3.036   4.227
83649SOL    HW252787   9.470   2.898   4.229
83650SOL     OW52788   9.035  11.837  11.872
83650SOL    HW152789   9.058  11.776  11.801
83650SOL    HW252790   8.963  11.794  11.918
83651SOL     OW52791   3.525  10.323  14.535
83651SOL    HW152792   3.451  10.262  14.536
83651SOL    HW252793   3.519  10.366  14.450
83652SOL     OW52794   5.997   4.265  14.015
83652SOL    HW152795   6.012   4.254  13.921
83652SOL    HW252796   5.905   4.242  14.028
83653SOL     OW52797   0.134   3.523   7.586
83653SOL    HW152798   0.064   3.458   7.578
83653SOL    HW252799   0.209   3.475   7.620
83654SOL     OW52800   8.978  14.740   0.520
83654SOL    HW152801   8.974  14.754   0.425
83654SOL    HW252802   9.037  14.808   0.552
83655SOL     OW52803   2.265   8.847   6.067
83655SOL    HW152804   2.256   8.938   6.095
83655SOL    HW252805   2.213   8.842   5.987
83656SOL     OW52806  11.641  10.559   5.057
83656SOL    HW152807  11.570  10.523   5.110
83656SOL    HW252808  11.671  10.636   5.106
83657SOL     OW52809   1.704  14.287   9.686
83657SOL    HW152810   1.760  14.355   9.649
83657SOL    HW252811   1.736  14.275   9.775
83658SOL     OW52812  14.466  11.712  14.172
83658SOL    HW152813  14.381  11.751  14.193
83658SOL    HW252814  14.506  11.773  14.110
83659SOL     OW52815   7.354  10.842   2.240
83659SOL    HW152816   7.326  10.752   2.227
83659SOL    HW252817   7.293  10.878   2.304
83660SOL     OW52818   1.310  12.193   3.592
83660SOL    HW152819   1.325  12.219   3.501
83660SOL    HW252820   1.390  12.217   3.638
83661SOL     OW52821   6.516   2.400   4.306
83661SOL    HW152822   6.544   2.475   4.359
83661SOL    HW252823   6.464   2.346   4.365
83662SOL     OW52824   8.964   4.051   3.455
83662SOL    HW152825   8.952   4.020   3.544
83662SOL    HW252826   8.924   3.984   3.400
83663SOL     OW52827   4.733   2.187   7.236
83663SOL    HW152828   4.682   2.179   7.317
83663SOL    HW252829   4.679   2.144   7.170
83664SOL     OW52830  13.381   1.647  12.481
83664SOL    HW152831  13.287   1.655  12.464
83664SOL    HW252832  13.398   1.553  12.478
83665SOL     OW52833   2.971   7.939  14.239
83665SOL    HW152834   2.941   8.020  14.280
83665SOL    HW252835   2.939   7.944  14.149
83666SOL     OW52836   7.215   1.366   0.293
83666SOL    HW152837   7.171   1.297   0.342
83666SOL    HW252838   7.210   1.337   0.202
83667SOL     OW52839  13.207  12.037   3.466
83667SOL    HW152840  13.224  11.951   3.426
83667SOL    HW252841  13.212  12.021   3.560
83668SOL     OW52842   3.165   2.200  10.775
83668SOL    HW152843   3.114   2.280  10.788
83668SOL    HW252844   3.221   2.194  10.853
83669SOL     OW52845  14.421   7.948   7.850
83669SOL    HW152846  14.385   7.914   7.932
83669SOL    HW252847  14.353   7.930   7.785
83670SOL     OW52848  14.318   0.092  14.000
83670SOL    HW152849  14.325   0.113  14.094
83670SOL    HW252850  14.289   0.001  13.998
83671SOL     OW52851   1.599   3.475  12.335
83671SOL    HW152852   1.525   3.418  12.313
83671SOL    HW252853   1.580   3.557  12.290
83672SOL     OW52854   1.125   4.135   3.425
83672SOL    HW152855   1.073   4.134   3.345
83672SOL    HW252856   1.183   4.059   3.417
83673SOL     OW52857   0.047   2.254   4.380
83673SOL    HW152858   0.118   2.192   4.395
83673SOL    HW252859  14.853   2.203   4.336
83674SOL     OW52860   1.313   8.761  11.759
83674SOL    HW152861   1.327   8.668  11.743
83674SOL    HW252862   1.355   8.777  11.843
83675SOL     OW52863   8.533   8.570   2.670
83675SOL    HW152864   8.569   8.553   2.583
83675SOL    HW252865   8.557   8.660   2.689
83676SOL     OW52866   5.311  11.570   8.076
83676SOL    HW152867   5.264  11.653   8.084
83676SOL    HW252868   5.363  11.580   7.996
83677SOL     OW52869  10.967  10.920   8.354
83677SOL    HW152870  10.917  10.994   8.387
83677SOL    HW252871  10.908  10.876   8.293
83678SOL     OW52872   4.563   4.821   0.696
83678SOL    HW152873   4.551   4.815   0.791
83678SOL    HW252874   4.541   4.734   0.663
83679SOL     OW52875   4.682   2.724  11.830
83679SOL    HW152876   4.713   2.811  11.854
83679SOL    HW252877   4.747   2.664  11.866
83680SOL     OW52878  13.688   5.172   2.881
83680SOL    HW152879  13.732   5.087   2.875
83680SOL    HW252880  13.758   5.233   2.906
83681SOL     OW52881   2.760   5.777   1.213
83681SOL    HW152882   2.761   5.763   1.119
83681SOL    HW252883   2.672   5.810   1.232
83682SOL     OW52884   9.959   1.176   1.541
83682SOL    HW152885  10.006   1.221   1.611
83682SOL    HW252886  10.026   1.125   1.495
83683SOL     OW52887  11.249   3.692   4.711
83683SOL    HW152888  11.251   3.782   4.676
83683SOL    HW252889  11.329   3.685   4.763
83684SOL     OW52890   1.705   4.886  10.603
83684SOL    HW152891   1.732   4.963  10.552
83684SOL    HW252892   1.752   4.894  10.685
83685SOL     OW52893   7.318  12.255   6.545
83685SOL    HW152894   7.240  12.287   6.498
83685SOL    HW252895   7.290  12.249   6.636
83686SOL     OW52896  10.894  12.890   2.290
83686SOL    HW152897  10.859  12.830   2.356
83686SOL    HW252898  10.870  12.850   2.206
83687SOL     OW52899  11.843   3.024  14.010
83687SOL    HW152900  11.903   3.023  14.084
83687SOL    HW252901  11.895   2.988  13.937
83688SOL     OW52902   7.660   4.590  10.272
83688SOL    HW152903   7.603   4.634  10.209
83688SOL    HW252904   7.599   4.546  10.332
83689SOL     OW52905   3.472   3.207  12.782
83689SOL    HW152906   3.477   3.297  12.815
83689SOL    HW252907   3.507   3.153  12.853
83690SOL     OW52908   6.842   2.506   0.262
83690SOL    HW152909   6.865   2.428   0.212
83690SOL    HW252910   6.749   2.496   0.280
83691SOL     OW52911   4.901  13.417   7.620
83691SOL    HW152912   4.865  13.501   7.591
83691SOL    HW252913   4.993  13.420   7.594
83692SOL     OW52914   4.846   3.855   9.694
83692SOL    HW152915   4.793   3.776   9.701
83692SOL    HW252916   4.890   3.848   9.609
83693SOL     OW52917   8.860   6.421   7.731
83693SOL    HW152918   8.776   6.409   7.687
83693SOL    HW252919   8.910   6.478   7.673
83694SOL     OW52920   1.731   9.393   8.287
83694SOL    HW152921   1.639   9.367   8.289
83694SOL    HW252922   1.775   9.333   8.347
83695SOL     OW52923   2.410   7.093   5.105
83695SOL    HW152924   2.428   7.033   5.033
83695SOL    HW252925   2.495   7.111   5.144
83696SOL     OW52926  14.655  13.588   5.548
83696SOL    HW152927  14.696  13.658   5.497
83696SOL    HW252928  14.645  13.516   5.486
83697SOL     OW52929  13.510  14.420   1.210
83697SOL    HW152930  13.439  14.385   1.155
83697SOL    HW252931  13.470  14.493   1.258
83698SOL     OW52932   9.297   2.725   6.199
83698SOL    HW152933   9.353   2.674   6.140
83698SOL    HW252934   9.318   2.816   6.180
83699SOL     OW52935   6.163  11.803   4.100
83699SOL    HW152936   6.253  11.779   4.079
83699SOL    HW252937   6.111  11.730   4.067
83700SOL     OW52938  10.995   5.859   8.425
83700SOL    HW152939  10.985   5.786   8.363
83700SOL    HW252940  11.055   5.826   8.492
83701SOL     OW52941   9.935  13.772   0.269
83701SOL    HW152942   9.921  13.847   0.211
83701SOL    HW252943   9.966  13.703   0.211
83702SOL     OW52944  11.132   7.617   3.814
83702SOL    HW152945  11.178   7.615   3.730
83702SOL    HW252946  11.134   7.526   3.844
83703SOL     OW52947   1.036   3.461  12.447
83703SOL    HW152948   1.077   3.388  12.495
83703SOL    HW252949   1.105   3.527  12.441
83704SOL     OW52950   2.876   3.880   4.487
83704SOL    HW152951   2.829   3.910   4.409
83704SOL    HW252952   2.942   3.820   4.453
83705SOL     OW52953  13.011  12.839   5.761
83705SOL    HW152954  13.024  12.927   5.725
83705SOL    HW252955  13.020  12.851   5.856
83706SOL     OW52956   8.311   1.753  12.994
83706SOL    HW152957   8.262   1.675  12.966
83706SOL    HW252958   8.397   1.744  12.952
83707SOL     OW52959   3.714   0.710   9.559
83707SOL    HW152960   3.798   0.664   9.566
83707SOL    HW252961   3.686   0.724   9.649
83708SOL     OW52962   9.852   5.764   7.277
83708SOL    HW152963   9.873   5.674   7.253
83708SOL    HW252964   9.936   5.801   7.306
83709SOL     OW52965   7.511   3.018  11.521
83709SOL    HW152966   7.497   3.113  11.517
83709SOL    HW252967   7.475   2.986  11.438
83710SOL     OW52968   5.163   0.856   6.019
83710SOL    HW152969   5.134   0.882   6.106
83710SOL    HW252970   5.097   0.794   5.988
83711SOL     OW52971   4.266  14.169   9.902
83711SOL    HW152972   4.275  14.090   9.955
83711SOL    HW252973   4.273  14.241   9.965
83712SOL     OW52974   2.010   6.046   0.217
83712SOL    HW152975   1.940   6.065   0.155
83712SOL    HW252976   2.038   6.131   0.249
83713SOL     OW52977  12.887   4.712   5.831
83713SOL    HW152978  12.932   4.773   5.889
83713SOL    HW252979  12.822   4.767   5.786
83714SOL     OW52980   9.259   5.096  13.793
83714SOL    HW152981   9.290   5.078  13.882
83714SOL    HW252982   9.178   5.145  13.806
83715SOL     OW52983  14.831   4.545  11.792
83715SOL    HW152984  14.765   4.499  11.740
83715SOL    HW252985   0.040   4.502  11.770
83716SOL     OW52986   7.757   9.883   2.451
83716SOL    HW152987   7.703   9.805   2.463
83716SOL    HW252988   7.740   9.910   2.361
83717SOL     OW52989  13.370   9.854  10.421
83717SOL    HW152990  13.313   9.786  10.387
83717SOL    HW252991  13.327   9.936  10.396
83718SOL     OW52992   3.854  10.630   1.971
83718SOL    HW152993   3.914  10.703   1.960
83718SOL    HW252994   3.909  10.558   2.003
83719SOL     OW52995   5.000   9.821   9.993
83719SOL    HW152996   4.988   9.910   9.960
83719SOL    HW252997   5.001   9.831  10.088
83720SOL     OW52998   3.025  12.598   6.800
83720SOL    HW152999   3.114  12.608   6.768
83720SOL    HW253000   2.982  12.681   6.776
83721SOL     OW53001   0.107   5.195   8.939
83721SOL    HW153002   0.047   5.254   8.894
83721SOL    HW253003   0.174   5.173   8.873
83722SOL     OW53004   8.722  12.864  14.097
83722SOL    HW153005   8.711  12.894  14.006
83722SOL    HW253006   8.714  12.769  14.091
83723SOL     OW53007   6.266   4.601   9.834
83723SOL    HW153008   6.266   4.683   9.784
83723SOL    HW253009   6.197   4.549   9.795
83724SOL     OW53010  10.310   7.056  13.009
83724SOL    HW153011  10.239   6.994  13.024
83724SOL    HW253012  10.289   7.098  12.926
83725SOL     OW53013  12.169  13.794   5.831
83725SOL    HW153014  12.113  13.724   5.865
83725SOL    HW253015  12.235  13.748   5.778
83726SOL     OW53016  13.072   7.167   4.909
83726SOL    HW153017  12.989   7.169   4.861
83726SOL    HW253018  13.117   7.246   4.883
83727SOL     OW53019   7.868  11.346   8.795
83727SOL    HW153020   7.947  11.313   8.837
83727SOL    HW253021   7.811  11.372   8.867
83728SOL     OW53022   7.319   1.807   4.422
83728SOL    HW153023   7.406   1.844   4.411
83728SOL    HW253024   7.260   1.876   4.393
83729SOL     OW53025   3.177   0.284   9.121
83729SOL    HW153026   3.248   0.261   9.061
83729SOL    HW253027   3.141   0.200   9.149
83730SOL     OW53028   1.280  12.866   9.441
83730SOL    HW153029   1.195  12.846   9.402
83730SOL    HW253030   1.328  12.911   9.371
83731SOL     OW53031   7.977   1.104   6.600
83731SOL    HW153032   8.030   1.051   6.540
83731SOL    HW253033   8.005   1.076   6.687
83732SOL     OW53034   6.687   0.729   8.248
83732SOL    HW153035   6.745   0.711   8.175
83732SOL    HW253036   6.689   0.824   8.258
83733SOL     OW53037  13.879  10.953   0.594
83733SOL    HW153038  13.850  10.880   0.539
83733SOL    HW253039  13.958  10.986   0.551
83734SOL     OW53040   2.368   3.863   8.966
83734SOL    HW153041   2.335   3.947   8.935
83734SOL    HW253042   2.430   3.835   8.899
83735SOL     OW53043  12.835  13.467   5.540
83735SOL    HW153044  12.888  13.526   5.486
83735SOL    HW253045  12.796  13.524   5.606
83736SOL     OW53046  11.207  14.163   5.165
83736SOL    HW153047  11.289  14.201   5.134
83736SOL    HW253048  11.164  14.233   5.214
83737SOL     OW53049  11.565   3.070   5.340
83737SOL    HW153050  11.550   3.114   5.256
83737SOL    HW253051  11.526   3.129   5.405
83738SOL     OW53052   9.776   3.860  11.409
83738SOL    HW153053   9.843   3.794  11.430
83738SOL    HW253054   9.811   3.942  11.444
83739SOL     OW53055  12.559   1.449  14.019
83739SOL    HW153056  12.631   1.457  14.081
83739SOL    HW253057  12.482   1.430  14.073
83740SOL     OW53058   8.430  13.829   1.347
83740SOL    HW153059   8.343  13.790   1.358
83740SOL    HW253060   8.444  13.832   1.252
83741SOL     OW53061   2.925  14.441   3.538
83741SOL    HW153062   2.862  14.493   3.489
83741SOL    HW253063   2.887  14.353   3.541
83742SOL     OW53064  13.272   8.350   8.000
83742SOL    HW153065  13.313   8.275   8.044
83742SOL    HW253066  13.275   8.327   7.907
83743SOL     OW53067  12.904   5.482   0.062
83743SOL    HW153068  12.823   5.451   0.020
83743SOL    HW253069  12.921   5.417   0.131
83744SOL     OW53070  11.378   8.427   9.046
83744SOL    HW153071  11.312   8.475   9.096
83744SOL    HW253072  11.446   8.406   9.110
83745SOL     OW53073   5.680  13.058  12.471
83745SOL    HW153074   5.639  13.076  12.556
83745SOL    HW253075   5.694  12.963  12.471
83746SOL     OW53076   4.353   1.518   9.845
83746SOL    HW153077   4.375   1.611   9.840
83746SOL    HW253078   4.336   1.492   9.755
83747SOL     OW53079   6.001  11.095   7.544
83747SOL    HW153080   5.917  11.122   7.506
83747SOL    HW253081   5.979  11.022   7.602
83748SOL     OW53082   6.826  12.475   6.408
83748SOL    HW153083   6.815  12.527   6.488
83748SOL    HW253084   6.802  12.535   6.337
83749SOL     OW53085   6.489  13.747   0.848
83749SOL    HW153086   6.556  13.687   0.815
83749SOL    HW253087   6.437  13.770   0.770
83750SOL     OW53088  12.329   2.162   6.572
83750SOL    HW153089  12.256   2.224   6.562
83750SOL    HW253090  12.299   2.082   6.530
83751SOL     OW53091  11.146   3.175   9.661
83751SOL    HW153092  11.083   3.150   9.593
83751SOL    HW253093  11.137   3.107   9.728
83752SOL     OW53094  13.925   8.079  11.974
83752SOL    HW153095  13.847   8.037  11.937
83752SOL    HW253096  13.906   8.085  12.068
83753SOL     OW53097   5.498   8.651   3.044
83753SOL    HW153098   5.484   8.617   3.132
83753SOL    HW253099   5.410   8.666   3.010
83754SOL     OW53100   6.325   6.536   7.739
83754SOL    HW153101   6.245   6.483   7.733
83754SOL    HW253102   6.294   6.622   7.766
83755SOL     OW53103  11.444   5.149   9.303
83755SOL    HW153104  11.522   5.173   9.354
83755SOL    HW253105  11.455   5.194   9.219
83756SOL     OW53106   7.364  13.459   8.320
83756SOL    HW153107   7.441  13.483   8.268
83756SOL    HW253108   7.349  13.534   8.378
83757SOL     OW53109   5.604  10.488   6.540
83757SOL    HW153110   5.679  10.443   6.502
83757SOL    HW253111   5.529  10.453   6.493
83758SOL     OW53112   7.277  14.236   9.501
83758SOL    HW153113   7.267  14.164   9.563
83758SOL    HW253114   7.305  14.310   9.554
83759SOL     OW53115   8.271  14.864   9.534
83759SOL    HW153116   8.269   0.071   9.585
83759SOL    HW253117   8.182  14.828   9.542
83760SOL     OW53118  11.955  13.514   3.698
83760SOL    HW153119  11.968  13.558   3.614
83760SOL    HW253120  11.957  13.584   3.763
83761SOL     OW53121   9.494   1.111  12.488
83761SOL    HW153122   9.505   1.056  12.566
83761SOL    HW253123   9.539   1.193  12.509
83762SOL     OW53124   9.319   8.135   9.018
83762SOL    HW153125   9.318   8.047   8.979
83762SOL    HW253126   9.256   8.185   8.967
83763SOL     OW53127   5.723  13.001  14.443
83763SOL    HW153128   5.681  12.937  14.500
83763SOL    HW253129   5.743  13.075  14.501
83764SOL     OW53130   2.448  12.163   4.930
83764SOL    HW153131   2.365  12.178   4.975
83764SOL    HW253132   2.450  12.069   4.914
83765SOL     OW53133   2.472   6.129  13.270
83765SOL    HW153134   2.463   6.127  13.175
83765SOL    HW253135   2.561   6.098  13.286
83766SOL     OW53136   8.362   3.746   0.442
83766SOL    HW153137   8.319   3.782   0.364
83766SOL    HW253138   8.400   3.663   0.412
83767SOL     OW53139   8.374   0.697  13.407
83767SOL    HW153140   8.334   0.610  13.410
83767SOL    HW253141   8.300   0.758  13.399
83768SOL     OW53142  10.721   2.179   4.719
83768SOL    HW153143  10.688   2.153   4.633
83768SOL    HW253144  10.725   2.098   4.769
83769SOL     OW53145   2.321   2.783  10.130
83769SOL    HW153146   2.371   2.850  10.176
83769SOL    HW253147   2.231   2.795  10.160
83770SOL     OW53148   4.056  13.083   0.784
83770SOL    HW153149   4.051  13.040   0.869
83770SOL    HW253150   4.123  13.034   0.736
83771SOL     OW53151  12.869   6.922   1.817
83771SOL    HW153152  12.914   6.956   1.894
83771SOL    HW253153  12.845   7.001   1.767
83772SOL     OW53154   8.804  12.528  11.145
83772SOL    HW153155   8.728  12.473  11.162
83772SOL    HW253156   8.809  12.588  11.220
83773SOL     OW53157   2.986   6.541   2.364
83773SOL    HW153158   2.926   6.467   2.357
83773SOL    HW253159   3.061   6.517   2.310
83774SOL     OW53160  13.494   4.767   4.030
83774SOL    HW153161  13.561   4.798   4.091
83774SOL    HW253162  13.428   4.836   4.031
83775SOL     OW53163  12.873   8.578   5.645
83775SOL    HW153164  12.964   8.603   5.659
83775SOL    HW253165  12.848   8.619   5.562
83776SOL     OW53166  12.826   7.928  14.631
83776SOL    HW153167  12.760   7.961  14.691
83776SOL    HW253168  12.798   7.959  14.545
83777SOL     OW53169   5.257  10.630  11.176
83777SOL    HW153170   5.284  10.597  11.090
83777SOL    HW253171   5.314  10.705  11.192
83778SOL     OW53172  11.188   6.051  14.204
83778SOL    HW153173  11.214   5.962  14.178
83778SOL    HW253174  11.096   6.057  14.179
83779SOL     OW53175   8.366  14.236  14.741
83779SOL    HW153176   8.289  14.262  14.792
83779SOL    HW253177   8.383  14.146  14.769
83780SOL     OW53178   1.305  14.826  14.718
83780SOL    HW153179   1.213  14.848  14.732
83780SOL    HW253180   1.344   0.032  14.683
83781SOL     OW53181  11.991   9.657  14.781
83781SOL    HW153182  12.073   9.695  14.814
83781SOL    HW253183  12.009   9.563  14.777
83782SOL     OW53184   9.023  10.742  14.451
83782SOL    HW153185   9.016  10.803  14.377
83782SOL    HW253186   8.977  10.787  14.522
83783SOL     OW53187   2.829   2.405   6.622
83783SOL    HW153188   2.919   2.399   6.591
83783SOL    HW253189   2.777   2.414   6.543
83784SOL     OW53190   0.905   3.449   6.280
83784SOL    HW153191   0.920   3.510   6.351
83784SOL    HW253192   0.839   3.491   6.225
83785SOL     OW53193   3.631   0.678   3.365
83785SOL    HW153194   3.633   0.661   3.270
83785SOL    HW253195   3.630   0.773   3.372
83786SOL     OW53196   6.565   5.638  11.870
83786SOL    HW153197   6.542   5.576  11.801
83786SOL    HW253198   6.510   5.614  11.944
83787SOL     OW53199   3.955   3.136   7.768
83787SOL    HW153200   3.977   3.057   7.718
83787SOL    HW253201   4.040   3.179   7.782
83788SOL     OW53202  10.920   7.695   3.206
83788SOL    HW153203  11.009   7.661   3.203
83788SOL    HW253204  10.923   7.775   3.153
83789SOL     OW53205   8.064   4.517  13.137
83789SOL    HW153206   8.038   4.589  13.079
83789SOL    HW253207   7.987   4.501  13.191
83790SOL     OW53208  10.032   0.185  10.038
83790SOL    HW153209   9.943   0.149  10.031
83790SOL    HW253210  10.086   0.110  10.063
83791SOL     OW53211   9.001  14.340   4.349
83791SOL    HW153212   8.964  14.415   4.396
83791SOL    HW253213   9.035  14.283   4.417
83792SOL     OW53214  10.445   5.195   1.010
83792SOL    HW153215  10.480   5.106   1.006
83792SOL    HW253216  10.513   5.246   1.054
83793SOL     OW53217   2.931   9.536  11.171
83793SOL    HW153218   2.982   9.513  11.249
83793SOL    HW253219   2.864   9.595  11.204
83794SOL     OW53220   2.373   2.470   9.078
83794SOL    HW153221   2.384   2.375   9.072
83794SOL    HW253222   2.445   2.506   9.027
83795SOL     OW53223  13.827  10.604   0.146
83795SOL    HW153224  13.766  10.652   0.091
83795SOL    HW253225  13.779  10.525   0.172
83796SOL     OW53226   8.595   9.517   1.996
83796SOL    HW153227   8.591   9.613   1.996
83796SOL    HW253228   8.504   9.490   2.003
83797SOL     OW53229   4.342   7.289   7.601
83797SOL    HW153230   4.378   7.219   7.655
83797SOL    HW253231   4.262   7.316   7.645
83798SOL     OW53232  13.331   8.007   8.662
83798SOL    HW153233  13.384   8.037   8.736
83798SOL    HW253234  13.388   7.947   8.615
83799SOL     OW53235   2.575  13.738   8.874
83799SOL    HW153236   2.526  13.803   8.924
83799SOL    HW253237   2.659  13.732   8.920
83800SOL     OW53238   0.497   7.498   0.886
83800SOL    HW153239   0.541   7.561   0.830
83800SOL    HW253240   0.521   7.524   0.975
83801SOL     OW53241  11.621   3.719   3.834
83801SOL    HW153242  11.674   3.743   3.910
83801SOL    HW253243  11.532   3.743   3.859
83802SOL     OW53244  13.121   0.187   8.818
83802SOL    HW153245  13.136   0.254   8.886
83802SOL    HW253246  13.062   0.230   8.756
83803SOL     OW53247  13.982  11.707   1.314
83803SOL    HW153248  14.047  11.747   1.373
83803SOL    HW253249  13.950  11.631   1.362
83804SOL     OW53250  12.687   9.019   0.300
83804SOL    HW153251  12.592   9.028   0.289
83804SOL    HW253252  12.725   9.075   0.232
83805SOL     OW53253  11.389  13.211  11.669
83805SOL    HW153254  11.359  13.124  11.698
83805SOL    HW253255  11.419  13.197  11.579
83806SOL     OW53256   9.104   4.280   3.517
83806SOL    HW153257   9.046   4.350   3.549
83806SOL    HW253258   9.046   4.220   3.470
83807SOL     OW53259  10.288   0.086   1.087
83807SOL    HW153260  10.330   0.048   1.164
83807SOL    HW253261  10.359   0.095   1.023
83808SOL     OW53262   0.201   3.560   8.192
83808SOL    HW153263   0.194   3.468   8.215
83808SOL    HW253264   0.152   3.569   8.110
83809SOL     OW53265   3.107   5.447   4.807
83809SOL    HW153266   3.202   5.447   4.806
83809SOL    HW253267   3.082   5.355   4.814
83810SOL     OW53268   8.099   9.269   7.233
83810SOL    HW153269   8.042   9.327   7.184
83810SOL    HW253270   8.166   9.326   7.271
83811SOL     OW53271   4.214   4.606  14.292
83811SOL    HW153272   4.126   4.577  14.314
83811SOL    HW253273   4.238   4.553  14.216
83812SOL     OW53274   6.355   9.264   6.563
83812SOL    HW153275   6.391   9.293   6.479
83812SOL    HW253276   6.262   9.249   6.546
83813SOL     OW53277  14.052  10.115   8.658
83813SOL    HW153278  14.124  10.161   8.615
83813SOL    HW253279  14.089  10.084   8.741
83814SOL     OW53280  11.550   3.438   5.294
83814SOL    HW153281  11.488   3.489   5.240
83814SOL    HW253282  11.512   3.440   5.382
83815SOL     OW53283   1.351  12.178  11.638
83815SOL    HW153284   1.386  12.103  11.590
83815SOL    HW253285   1.329  12.242  11.571
83816SOL     OW53286   8.986   7.115  13.873
83816SOL    HW153287   8.962   7.139  13.962
83816SOL    HW253288   9.069   7.161  13.857
83817SOL     OW53289  14.788   6.254   5.496
83817SOL    HW153290  14.735   6.333   5.508
83817SOL    HW253291  14.747   6.210   5.421
83818SOL     OW53292   7.706   2.721   6.814
83818SOL    HW153293   7.614   2.738   6.795
83818SOL    HW253294   7.745   2.706   6.728
83819SOL     OW53295   9.465   2.418   6.354
83819SOL    HW153296   9.369   2.414   6.361
83819SOL    HW253297   9.485   2.369   6.275
83820SOL     OW53298   1.808   3.432   7.172
83820SOL    HW153299   1.716   3.447   7.151
83820SOL    HW253300   1.854   3.445   7.090
83821SOL     OW53301   7.795  13.377  13.358
83821SOL    HW153302   7.722  13.380  13.296
83821SOL    HW253303   7.753  13.373  13.444
83822SOL     OW53304   5.898  11.435  11.390
83822SOL    HW153305   5.905  11.457  11.297
83822SOL    HW253306   5.965  11.488  11.432
83823SOL     OW53307   6.910   2.986  14.062
83823SOL    HW153308   6.852   3.022  13.995
83823SOL    HW253309   6.901   3.045  14.137
83824SOL     OW53310   3.704  10.674  11.872
83824SOL    HW153311   3.722  10.599  11.930
83824SOL    HW253312   3.791  10.703  11.845
83825SOL     OW53313  12.644   1.505  10.808
83825SOL    HW153314  12.607   1.418  10.792
83825SOL    HW253315  12.676   1.501  10.898
83826SOL     OW53316   2.144   5.559   6.323
83826SOL    HW153317   2.089   5.609   6.384
83826SOL    HW253318   2.218   5.529   6.375
83827SOL     OW53319   2.068   3.083   4.869
83827SOL    HW153320   2.032   3.014   4.925
83827SOL    HW253321   2.081   3.041   4.785
83828SOL     OW53322  12.829   5.009  14.094
83828SOL    HW153323  12.888   5.084  14.083
83828SOL    HW253324  12.875   4.937  14.051
83829SOL     OW53325  12.286  10.016  11.240
83829SOL    HW153326  12.319  10.063  11.163
83829SOL    HW253327  12.341  10.047  11.312
83830SOL     OW53328   5.529   4.238  10.742
83830SOL    HW153329   5.445   4.221  10.699
83830SOL    HW253330   5.565   4.312  10.694
83831SOL     OW53331  13.235   6.728  10.801
83831SOL    HW153332  13.306   6.703  10.741
83831SOL    HW253333  13.178   6.652  10.802
83832SOL     OW53334  14.862  14.856  13.891
83832SOL    HW153335   0.003   0.058  13.948
83832SOL    HW253336  14.771  14.832  13.906
83833SOL     OW53337   7.094   9.130   0.432
83833SOL    HW153338   7.068   9.150   0.342
83833SOL    HW253339   7.099   9.215   0.475
83834SOL     OW53340  12.999   4.827   6.140
83834SOL    HW153341  12.953   4.817   6.223
83834SOL    HW253342  13.091   4.811   6.161
83835SOL     OW53343   1.352  13.717   3.358
83835SOL    HW153344   1.314  13.771   3.428
83835SOL    HW253345   1.348  13.773   3.280
83836SOL     OW53346  10.425   3.202  14.550
83836SOL    HW153347  10.424   3.226  14.458
83836SOL    HW253348  10.418   3.285  14.597
83837SOL     OW53349  14.551   6.931   2.816
83837SOL    HW153350  14.497   6.853   2.803
83837SOL    HW253351  14.616   6.905   2.882
83838SOL     OW53352   9.413  12.617   1.401
83838SOL    HW153353   9.337  12.661   1.363
83838SOL    HW253354   9.462  12.584   1.325
83839SOL     OW53355   7.966  13.175   9.117
83839SOL    HW153356   7.938  13.265   9.137
83839SOL    HW253357   8.042  13.161   9.172
83840SOL     OW53358   7.304  10.762  10.611
83840SOL    HW153359   7.344  10.841  10.575
83840SOL    HW253360   7.328  10.763  10.704
83841SOL     OW53361   6.593   1.508   6.036
83841SOL    HW153362   6.500   1.529   6.035
83841SOL    HW253363   6.597   1.414   6.023
83842SOL     OW53364   9.284   5.671   9.022
83842SOL    HW153365   9.347   5.721   8.969
83842SOL    HW253366   9.332   5.651   9.102
83843SOL     OW53367   7.137   4.167  11.545
83843SOL    HW153368   7.168   4.252  11.574
83843SOL    HW253369   7.179   4.153  11.460
83844SOL     OW53370   3.524  14.204   0.631
83844SOL    HW153371   3.474  14.129   0.598
83844SOL    HW253372   3.592  14.165   0.685
83845SOL     OW53373  11.474  11.058   2.941
83845SOL    HW153374  11.452  11.136   2.890
83845SOL    HW253375  11.552  11.084   2.991
83846SOL     OW53376   7.901   7.771  10.472
83846SOL    HW153377   7.928   7.791  10.562
83846SOL    HW253378   7.853   7.848  10.443
83847SOL     OW53379  12.233   0.712   8.835
83847SOL    HW153380  12.315   0.751   8.806
83847SOL    HW253381  12.197   0.774   8.899
83848SOL     OW53382   5.926  11.023   9.262
83848SOL    HW153383   5.937  11.115   9.287
83848SOL    HW253384   6.014  10.987   9.265
83849SOL     OW53385  11.743   5.217   2.028
83849SOL    HW153386  11.724   5.160   2.102
83849SOL    HW253387  11.833   5.196   2.004
83850SOL     OW53388   6.309   8.808   3.318
83850SOL    HW153389   6.244   8.738   3.316
83850SOL    HW253390   6.337   8.812   3.409
83851SOL     OW53391  10.918   3.786  12.377
83851SOL    HW153392  11.001   3.801  12.331
83851SOL    HW253393  10.920   3.694  12.401
83852SOL     OW53394   3.782   4.185   2.025
83852SOL    HW153395   3.744   4.186   2.113
83852SOL    HW253396   3.707   4.178   1.967
83853SOL     OW53397  13.427   2.279   9.433
83853SOL    HW153398  13.348   2.255   9.385
83853SOL    HW253399  13.496   2.280   9.367
83854SOL     OW53400   9.483   7.564  10.323
83854SOL    HW153401   9.488   7.575  10.228
83854SOL    HW253402   9.488   7.653  10.358
83855SOL     OW53403  13.195  14.539   0.716
83855SOL    HW153404  13.221  14.452   0.745
83855SOL    HW253405  13.105  14.549   0.746
83856SOL     OW53406   0.043   4.978   6.618
83856SOL    HW153407   0.095   5.039   6.566
83856SOL    HW253408   0.103   4.905   6.636
83857SOL     OW53409   7.238  11.573  12.761
83857SOL    HW153410   7.295  11.560  12.685
83857SOL    HW253411   7.194  11.655  12.745
83858SOL     OW53412   4.366   6.252   6.900
83858SOL    HW153413   4.319   6.187   6.847
83858SOL    HW253414   4.448   6.266   6.853
83859SOL     OW53415  12.100   0.059   5.128
83859SOL    HW153416  12.065   0.137   5.085
83859SOL    HW253417  12.184   0.086   5.164
83860SOL     OW53418  13.071   1.475   3.202
83860SOL    HW153419  13.087   1.567   3.179
83860SOL    HW253420  12.981   1.459   3.174
83861SOL     OW53421   0.706  14.641   6.497
83861SOL    HW153422   0.693  14.554   6.462
83861SOL    HW253423   0.694  14.631   6.591
83862SOL     OW53424   8.633  14.067   8.516
83862SOL    HW153425   8.628  14.074   8.611
83862SOL    HW253426   8.670  13.980   8.499
83863SOL     OW53427   9.853   8.877   7.695
83863SOL    HW153428   9.825   8.968   7.693
83863SOL    HW253429   9.868   8.859   7.788
83864SOL     OW53430  13.173   4.327  10.454
83864SOL    HW153431  13.249   4.277  10.482
83864SOL    HW253432  13.135   4.275  10.383
83865SOL     OW53433   1.369   8.976   5.333
83865SOL    HW153434   1.377   8.916   5.407
83865SOL    HW253435   1.455   9.015   5.323
83866SOL     OW53436   6.213   9.316   0.930
83866SOL    HW153437   6.229   9.246   0.994
83866SOL    HW253438   6.242   9.396   0.975
83867SOL     OW53439  12.624   9.808  10.646
83867SOL    HW153440  12.664   9.865  10.580
83867SOL    HW253441  12.689   9.800  10.715
83868SOL     OW53442   1.059   7.104   3.765
83868SOL    HW153443   1.045   7.059   3.849
83868SOL    HW253444   1.044   7.037   3.699
83869SOL     OW53445   0.444   7.653  12.331
83869SOL    HW153446   0.414   7.670  12.242
83869SOL    HW253447   0.418   7.731  12.380
83870SOL     OW53448  11.829  12.391   5.399
83870SOL    HW153449  11.748  12.441   5.391
83870SOL    HW253450  11.878  12.437   5.468
83871SOL     OW53451   8.234   6.694  14.861
83871SOL    HW153452   8.290   6.648  14.799
83871SOL    HW253453   8.156   6.717  14.810
83872SOL     OW53454   9.828  14.617   5.612
83872SOL    HW153455   9.752  14.559   5.615
83872SOL    HW253456   9.893  14.567   5.562
83873SOL     OW53457  13.338  14.664  11.952
83873SOL    HW153458  13.412  14.724  11.961
83873SOL    HW253459  13.332  14.649  11.857
83874SOL     OW53460  10.746  13.216   0.653
83874SOL    HW153461  10.719  13.191   0.741
83874SOL    HW253462  10.834  13.179   0.644
83875SOL     OW53463   2.801  11.017   7.191
83875SOL    HW153464   2.871  10.951   7.184
83875SOL    HW253465   2.724  10.975   7.153
83876SOL     OW53466   4.551   5.081   8.109
83876SOL    HW153467   4.486   5.140   8.070
83876SOL    HW253468   4.504   5.039   8.181
83877SOL     OW53469   2.318   4.059   4.943
83877SOL    HW153470   2.365   4.092   5.020
83877SOL    HW253471   2.257   4.129   4.920
83878SOL     OW53472   8.316   1.274  13.444
83878SOL    HW153473   8.331   1.180  13.439
83878SOL    HW253474   8.294   1.300  13.355
83879SOL     OW53475   1.333   2.987  13.445
83879SOL    HW153476   1.418   3.025  13.423
83879SOL    HW253477   1.307   3.030  13.526
83880SOL     OW53478  12.997   7.069  14.274
83880SOL    HW153479  12.961   7.074  14.362
83880SOL    HW253480  12.962   6.988  14.238
83881SOL     OW53481   1.569   8.196   4.112
83881SOL    HW153482   1.487   8.221   4.071
83881SOL    HW253483   1.554   8.108   4.146
83882SOL     OW53484  11.691   4.862   6.121
83882SOL    HW153485  11.772   4.869   6.069
83882SOL    HW253486  11.635   4.803   6.070
83883SOL     OW53487  10.788  13.204   6.357
83883SOL    HW153488  10.788  13.298   6.378
83883SOL    HW253489  10.724  13.196   6.286
83884SOL     OW53490   3.201   4.082   8.772
83884SOL    HW153491   3.251   4.112   8.848
83884SOL    HW253492   3.159   4.001   8.800
83885SOL     OW53493  12.364  14.809   2.914
83885SOL    HW153494  12.384  14.732   2.861
83885SOL    HW253495  12.334  14.775   2.997
83886SOL     OW53496  11.509   5.169  14.825
83886SOL    HW153497  11.594   5.132  14.802
83886SOL    HW253498  11.477   5.113   0.022
83887SOL     OW53499  10.636   8.039   2.653
83887SOL    HW153500  10.558   8.062   2.602
83887SOL    HW253501  10.604   7.976   2.718
83888SOL     OW53502   9.032   5.908   5.068
83888SOL    HW153503   8.965   5.840   5.077
83888SOL    HW253504   9.114   5.863   5.090
83889SOL     OW53505   4.211   3.703   9.740
83889SOL    HW153506   4.182   3.615   9.764
83889SOL    HW253507   4.240   3.695   9.649
83890SOL     OW53508   1.433   8.072   2.711
83890SOL    HW153509   1.391   7.987   2.698
83890SOL    HW253510   1.486   8.061   2.789
83891SOL     OW53511   4.255   6.539   2.984
83891SOL    HW153512   4.289   6.628   2.975
83891SOL    HW253513   4.161   6.548   2.967
83892SOL     OW53514   0.822   3.921  12.886
83892SOL    HW153515   0.874   3.890  12.960
83892SOL    HW253516   0.872   3.995  12.851
83893SOL     OW53517  14.013  10.748  11.996
83893SOL    HW153518  13.944  10.733  11.930
83893SOL    HW253519  14.056  10.828  11.967
83894SOL     OW53520   4.711   1.068  12.704
83894SOL    HW153521   4.754   1.023  12.777
83894SOL    HW253522   4.780   1.119  12.663
83895SOL     OW53523   2.248   4.244   4.644
83895SOL    HW153524   2.289   4.219   4.562
83895SOL    HW253525   2.276   4.334   4.660
83896SOL     OW53526   6.160  10.628   7.800
83896SOL    HW153527   6.179  10.674   7.882
83896SOL    HW253528   6.239  10.639   7.748
83897SOL     OW53529   9.112   1.647   2.589
83897SOL    HW153530   9.126   1.643   2.683
83897SOL    HW253531   9.194   1.682   2.554
83898SOL     OW53532   8.033   5.891   5.636
83898SOL    HW153533   8.077   5.892   5.551
83898SOL    HW253534   7.975   5.815   5.632
83899SOL     OW53535  11.154  10.994  11.337
83899SOL    HW153536  11.201  10.986  11.254
83899SOL    HW253537  11.076  11.045  11.315
83900SOL     OW53538   2.460   9.527  13.603
83900SOL    HW153539   2.497   9.608  13.566
83900SOL    HW253540   2.486   9.528  13.695
83901SOL     OW53541  12.926   7.699   3.584
83901SOL    HW153542  12.938   7.616   3.630
83901SOL    HW253543  13.015   7.731   3.569
83902SOL     OW53544   1.548  10.802   9.072
83902SOL    HW153545   1.529  10.861   9.145
83902SOL    HW253546   1.586  10.858   9.005
83903SOL     OW53547   6.860   5.444   9.134
83903SOL    HW153548   6.838   5.369   9.189
83903SOL    HW253549   6.895   5.406   9.054
83904SOL     OW53550   4.068   5.254   2.317
83904SOL    HW153551   4.088   5.309   2.241
83904SOL    HW253552   4.132   5.281   2.383
83905SOL     OW53553  10.670   0.345  12.019
83905SOL    HW153554  10.632   0.384  12.097
83905SOL    HW253555  10.603   0.285  11.986
83906SOL     OW53556  11.748  14.256   4.465
83906SOL    HW153557  11.822  14.228   4.412
83906SOL    HW253558  11.757  14.209   4.547
83907SOL     OW53559   2.694   1.161   7.604
83907SOL    HW153560   2.766   1.191   7.548
83907SOL    HW253561   2.627   1.130   7.543
83908SOL     OW53562   3.562   4.026  13.701
83908SOL    HW153563   3.529   4.114  13.682
83908SOL    HW253564   3.522   3.970  13.636
83909SOL     OW53565   6.116   9.553   6.904
83909SOL    HW153566   6.037   9.505   6.926
83909SOL    HW253567   6.085   9.633   6.863
83910SOL     OW53568   8.503   2.940   7.816
83910SOL    HW153569   8.501   3.021   7.867
83910SOL    HW253570   8.416   2.901   7.828
83911SOL     OW53571   8.769   0.051  12.250
83911SOL    HW153572   8.747   0.142  12.272
83911SOL    HW253573   8.743   0.001  12.327
83912SOL     OW53574  10.642   4.445   4.033
83912SOL    HW153575  10.728   4.486   4.022
83912SOL    HW253576  10.657   4.353   4.013
83913SOL     OW53577   9.849   8.899   1.899
83913SOL    HW153578   9.808   8.935   1.977
83913SOL    HW253579   9.922   8.958   1.880
83914SOL     OW53580  11.563   6.845   1.969
83914SOL    HW153581  11.575   6.852   1.875
83914SOL    HW253582  11.572   6.752   1.988
83915SOL     OW53583   7.409   3.809   3.247
83915SOL    HW153584   7.325   3.768   3.268
83915SOL    HW253585   7.392   3.903   3.255
83916SOL     OW53586  12.171   8.655   4.958
83916SOL    HW153587  12.255   8.652   4.913
83916SOL    HW253588  12.190   8.628   5.048
83917SOL     OW53589   0.031  13.239   6.962
83917SOL    HW153590  14.856  13.301   7.016
83917SOL    HW253591   0.075  13.293   6.897
83918SOL     OW53592   0.962   1.831   0.198
83918SOL    HW153593   1.004   1.824   0.112
83918SOL    HW253594   1.015   1.895   0.245
83919SOL     OW53595  10.759   6.733   6.093
83919SOL    HW153596  10.732   6.783   6.170
83919SOL    HW253597  10.678   6.721   6.042
83920SOL     OW53598  10.503   7.543   6.249
83920SOL    HW153599  10.529   7.568   6.161
83920SOL    HW253600  10.414   7.577   6.258
83921SOL     OW53601   4.123   6.314  10.942
83921SOL    HW153602   4.062   6.368  10.892
83921SOL    HW253603   4.156   6.371  11.011
83922SOL     OW53604   2.820  13.708   2.450
83922SOL    HW153605   2.740  13.664   2.479
83922SOL    HW253606   2.891  13.661   2.493
83923SOL     OW53607   2.567   2.814   6.154
83923SOL    HW153608   2.583   2.726   6.120
83923SOL    HW253609   2.569   2.803   6.249
83924SOL     OW53610   0.245   1.240  12.938
83924SOL    HW153611   0.320   1.290  12.970
83924SOL    HW253612   0.172   1.269  12.993
83925SOL     OW53613   5.038   0.844   0.462
83925SOL    HW153614   4.943   0.855   0.475
83925SOL    HW253615   5.051   0.749   0.460
83926SOL     OW53616   0.473   0.647  11.335
83926SOL    HW153617   0.383   0.650  11.302
83926SOL    HW253618   0.464   0.614  11.425
83927SOL     OW53619  10.895  13.240   1.194
83927SOL    HW153620  10.908  13.297   1.270
83927SOL    HW253621  10.810  13.199   1.210
83928SOL     OW53622  14.702  11.078   0.198
83928SOL    HW153623  14.771  11.130   0.157
83928SOL    HW253624  14.642  11.057   0.126
83929SOL     OW53625   0.395  11.259  11.300
83929SOL    HW153626   0.482  11.223  11.318
83929SOL    HW253627   0.389  11.336  11.356
83930SOL     OW53628   2.496   6.141   3.195
83930SOL    HW153629   2.586   6.114   3.212
83930SOL    HW253630   2.498   6.237   3.202
83931SOL     OW53631   0.847   6.938   6.337
83931SOL    HW153632   0.880   7.023   6.364
83931SOL    HW253633   0.846   6.885   6.417
83932SOL     OW53634  13.000   2.458  14.400
83932SOL    HW153635  13.021   2.461  14.306
83932SOL    HW253636  12.912   2.420  14.403
83933SOL     OW53637   3.313   2.333  11.036
83933SOL    HW153638   3.299   2.342  11.131
83933SOL    HW253639   3.330   2.240  11.023
83934SOL     OW53640  13.642  13.760   9.757
83934SOL    HW153641  13.685  13.754   9.842
83934SOL    HW253642  13.711  13.790   9.697
83935SOL     OW53643   1.942   2.742   7.959
83935SOL    HW153644   1.969   2.650   7.968
83935SOL    HW253645   1.850   2.738   7.935
83936SOL     OW53646   7.351   0.567  11.495
83936SOL    HW153647   7.387   0.514  11.567
83936SOL    HW253648   7.374   0.519  11.416
83937SOL     OW53649   4.588   9.115   0.409
83937SOL    HW153650   4.499   9.149   0.418
83937SOL    HW253651   4.588   9.035   0.461
83938SOL     OW53652   9.523  11.109  13.499
83938SOL    HW153653   9.448  11.138  13.550
83938SOL    HW253654   9.598  11.124  13.556
83939SOL     OW53655   5.551  12.500  13.851
83939SOL    HW153656   5.586  12.574  13.900
83939SOL    HW253657   5.539  12.431  13.916
83940SOL     OW53658   7.750  12.341  14.090
83940SOL    HW153659   7.695  12.298  14.155
83940SOL    HW253660   7.782  12.420  14.134
83941SOL     OW53661   1.973  13.559   9.885
83941SOL    HW153662   2.007  13.633   9.834
83941SOL    HW253663   2.047  13.500   9.893
83942SOL     OW53664   0.747   7.756   9.490
83942SOL    HW153665   0.657   7.721   9.488
83942SOL    HW253666   0.769   7.768   9.397
83943SOL     OW53667   8.969  12.579   9.538
83943SOL    HW153668   9.037  12.519   9.571
83943SOL    HW253669   8.993  12.594   9.447
83944SOL     OW53670   3.895   4.655   9.095
83944SOL    HW153671   3.876   4.738   9.050
83944SOL    HW253672   3.898   4.678   9.188
83945SOL     OW53673   2.966   4.611   1.485
83945SOL    HW153674   3.031   4.602   1.555
83945SOL    HW253675   2.900   4.671   1.521
83946SOL     OW53676   4.839   0.160   4.452
83946SOL    HW153677   4.877   0.235   4.407
83946SOL    HW253678   4.784   0.199   4.521
83947SOL     OW53679   0.093   9.883   6.629
83947SOL    HW153680   0.048   9.893   6.713
83947SOL    HW253681   0.034   9.830   6.575
83948SOL     OW53682   6.562   8.714   8.945
83948SOL    HW153683   6.588   8.653   9.015
83948SOL    HW253684   6.495   8.667   8.896
83949SOL     OW53685   9.045   7.270  12.929
83949SOL    HW153686   8.970   7.248  12.984
83949SOL    HW253687   9.040   7.210  12.855
83950SOL     OW53688   5.725   6.004   2.885
83950SOL    HW153689   5.679   5.921   2.896
83950SOL    HW253690   5.666   6.069   2.921
83951SOL     OW53691   9.495   8.469   7.965
83951SOL    HW153692   9.420   8.510   7.921
83951SOL    HW253693   9.530   8.407   7.901
83952SOL     OW53694   5.282   2.559  11.253
83952SOL    HW153695   5.303   2.500  11.326
83952SOL    HW253696   5.294   2.647  11.288
83953SOL     OW53697  10.593   5.741   7.531
83953SOL    HW153698  10.616   5.811   7.592
83953SOL    HW253699  10.537   5.783   7.466
83954SOL     OW53700   6.889  10.018  10.941
83954SOL    HW153701   6.811   9.998  10.891
83954SOL    HW253702   6.922  10.099  10.904
83955SOL     OW53703   0.612  10.315  11.521
83955SOL    HW153704   0.691  10.367  11.536
83955SOL    HW253705   0.607  10.307  11.426
83956SOL     OW53706   3.858   0.881   0.228
83956SOL    HW153707   3.841   0.948   0.294
83956SOL    HW253708   3.933   0.915   0.179
83957SOL     OW53709   5.357   2.444  12.110
83957SOL    HW153710   5.438   2.492  12.129
83957SOL    HW253711   5.310   2.444  12.193
83958SOL     OW53712   7.348   2.879   2.107
83958SOL    HW153713   7.351   2.829   2.189
83958SOL    HW253714   7.436   2.915   2.098
83959SOL     OW53715  12.572   7.121   9.117
83959SOL    HW153716  12.520   7.193   9.082
83959SOL    HW253717  12.581   7.140   9.210
83960SOL     OW53718  10.545  10.900   0.661
83960SOL    HW153719  10.518  10.973   0.717
83960SOL    HW253720  10.463  10.866   0.626
83961SOL     OW53721   8.043   7.155   5.546
83961SOL    HW153722   7.964   7.103   5.533
83961SOL    HW253723   8.012   7.239   5.579
83962SOL     OW53724  12.350   5.838  13.333
83962SOL    HW153725  12.334   5.784  13.411
83962SOL    HW253726  12.287   5.909  13.340
83963SOL     OW53727  13.170   7.901   6.233
83963SOL    HW153728  13.225   7.930   6.161
83963SOL    HW253729  13.081   7.927   6.207
83964SOL     OW53730   8.312   0.191   3.748
83964SOL    HW153731   8.277   0.243   3.676
83964SOL    HW253732   8.402   0.172   3.723
83965SOL     OW53733  13.539  11.418   0.658
83965SOL    HW153734  13.527  11.384   0.570
83965SOL    HW253735  13.600  11.358   0.699
83966SOL     OW53736   5.013   8.976   8.792
83966SOL    HW153737   4.930   8.969   8.744
83966SOL    HW253738   5.067   8.906   8.756
83967SOL     OW53739   8.315   4.331   3.597
83967SOL    HW153740   8.322   4.417   3.639
83967SOL    HW253741   8.222   4.310   3.600
83968SOL     OW53742   6.961   6.386  14.387
83968SOL    HW153743   6.909   6.455  14.345
83968SOL    HW253744   6.927   6.304  14.350
83969SOL     OW53745   8.400  13.528   9.545
83969SOL    HW153746   8.401  13.603   9.604
83969SOL    HW253747   8.381  13.565   9.459
83970SOL     OW53748  10.570   6.821   3.670
83970SOL    HW153749  10.578   6.760   3.597
83970SOL    HW253750  10.478   6.817   3.696
83971SOL     OW53751   6.501   7.058  12.772
83971SOL    HW153752   6.406   7.059  12.759
83971SOL    HW253753   6.536   7.050  12.683
83972SOL     OW53754  11.056  14.591   8.061
83972SOL    HW153755  11.051  14.528   8.132
83972SOL    HW253756  11.147  14.587   8.031
83973SOL     OW53757   5.171   2.352   3.358
83973SOL    HW153758   5.251   2.331   3.309
83973SOL    HW253759   5.202   2.399   3.435
83974SOL     OW53760  14.333   8.688  14.164
83974SOL    HW153761  14.262   8.624  14.156
83974SOL    HW253762  14.387   8.655  14.236
83975SOL     OW53763   8.608   3.689  10.607
83975SOL    HW153764   8.563   3.727  10.682
83975SOL    HW253765   8.690   3.738  10.602
83976SOL     OW53766   3.726   3.130   1.326
83976SOL    HW153767   3.727   3.142   1.231
83976SOL    HW253768   3.639   3.093   1.344
83977SOL     OW53769  13.398  10.186   2.002
83977SOL    HW153770  13.335  10.257   1.992
83977SOL    HW253771  13.410  10.177   2.096
83978SOL     OW53772   0.771  14.225   3.011
83978SOL    HW153773   0.695  14.283   3.011
83978SOL    HW253774   0.775  14.191   2.922
83979SOL     OW53775  13.035  10.440  13.905
83979SOL    HW153776  13.027  10.420  13.811
83979SOL    HW253777  13.064  10.531  13.908
83980SOL     OW53778   7.693  12.436   4.219
83980SOL    HW153779   7.732  12.365   4.271
83980SOL    HW253780   7.678  12.506   4.283
83981SOL     OW53781  14.422   8.839   1.385
83981SOL    HW153782  14.384   8.752   1.370
83981SOL    HW253783  14.510   8.834   1.347
83982SOL     OW53784   6.496   2.424   7.816
83982SOL    HW153785   6.476   2.498   7.873
83982SOL    HW253786   6.504   2.462   7.728
83983SOL     OW53787   7.728  14.176   7.822
83983SOL    HW153788   7.728  14.156   7.729
83983SOL    HW253789   7.743  14.271   7.827
83984SOL     OW53790   8.073   1.399   1.754
83984SOL    HW153791   8.081   1.309   1.785
83984SOL    HW253792   8.017   1.393   1.677
83985SOL     OW53793  10.978   4.460   2.176
83985SOL    HW153794  10.953   4.412   2.255
83985SOL    HW253795  10.956   4.551   2.195
83986SOL     OW53796  10.941   1.188   4.305
83986SOL    HW153797  10.976   1.276   4.322
83986SOL    HW253798  10.887   1.169   4.381
83987SOL     OW53799   1.277  11.156  11.282
83987SOL    HW153800   1.273  11.251  11.274
83987SOL    HW253801   1.289  11.140  11.376
83988SOL     OW53802   0.470   5.668   7.258
83988SOL    HW153803   0.427   5.679   7.173
83988SOL    HW253804   0.563   5.659   7.236
83989SOL     OW53805   0.357  13.906   7.840
83989SOL    HW153806   0.434  13.954   7.811
83989SOL    HW253807   0.289  13.931   7.778
83990SOL     OW53808  13.790   1.488   6.939
83990SOL    HW153809  13.700   1.514   6.920
83990SOL    HW253810  13.816   1.432   6.866
83991SOL     OW53811   9.653  14.676   9.172
83991SOL    HW153812   9.570  14.637   9.143
83991SOL    HW253813   9.627  14.755   9.219
83992SOL     OW53814   8.131  12.368   1.363
83992SOL    HW153815   8.116  12.462   1.371
83992SOL    HW253816   8.195  12.347   1.431
83993SOL     OW53817   9.479   8.185   8.421
83993SOL    HW153818   9.573   8.205   8.416
83993SOL    HW253819   9.439   8.236   8.351
83994SOL     OW53820  10.888  14.619   2.565
83994SOL    HW153821  10.872  14.563   2.489
83994SOL    HW253822  10.858  14.706   2.539
83995SOL     OW53823   8.828   9.212   0.124
83995SOL    HW153824   8.907   9.163   0.145
83995SOL    HW253825   8.773   9.150   0.075
83996SOL     OW53826  13.640   1.103   3.217
83996SOL    HW153827  13.635   1.023   3.165
83996SOL    HW253828  13.652   1.073   3.307
83997SOL     OW53829   3.627  11.734  10.708
83997SOL    HW153830   3.717  11.711  10.734
83997SOL    HW253831   3.573  11.709  10.783
83998SOL     OW53832   7.223   3.933   2.481
83998SOL    HW153833   7.268   3.850   2.495
83998SOL    HW253834   7.195   3.929   2.389
83999SOL     OW53835   7.859   1.629  10.773
83999SOL    HW153836   7.837   1.700  10.712
83999SOL    HW253837   7.954   1.620  10.766
84000SOL     OW53838  14.325  14.869   2.589
84000SOL    HW153839  14.269  14.817   2.647
84000SOL    HW253840  14.339  14.813   2.513
84001SOL     OW53841   5.323   9.361   0.437
84001SOL    HW153842   5.404   9.381   0.485
84001SOL    HW253843   5.289   9.446   0.410
84002SOL     OW53844  14.521  11.964   0.934
84002SOL    HW153845  14.505  11.874   0.965
84002SOL    HW253846  14.615  11.968   0.919
84003SOL     OW53847   7.100   0.904   1.452
84003SOL    HW153848   7.193   0.928   1.452
84003SOL    HW253849   7.077   0.898   1.359
84004SOL     OW53850  13.514   4.160  14.091
84004SOL    HW153851  13.432   4.132  14.049
84004SOL    HW253852  13.503   4.134  14.183
84005SOL     OW53853   1.726   1.011  13.900
84005SOL    HW153854   1.680   1.049  13.825
84005SOL    HW253855   1.717   1.076  13.969
84006SOL     OW53856   9.296  14.559  13.727
84006SOL    HW153857   9.299  14.534  13.819
84006SOL    HW253858   9.383  14.594  13.709
84007SOL     OW53859  10.089   5.283   2.050
84007SOL    HW153860  10.133   5.241   1.976
84007SOL    HW253861  10.154   5.285   2.120
84008SOL     OW53862   0.615   7.614   0.124
84008SOL    HW153863   0.588   7.602   0.032
84008SOL    HW253864   0.535   7.641   0.169
84009SOL     OW53865   9.147   8.128  12.637
84009SOL    HW153866   9.167   8.037  12.658
84009SOL    HW253867   9.164   8.176  12.718
84010SOL     OW53868  12.887  12.428  11.110
84010SOL    HW153869  12.889  12.384  11.195
84010SOL    HW253870  12.955  12.384  11.058
84011SOL     OW53871  12.265  13.911   3.045
84011SOL    HW153872  12.306  13.918   2.959
84011SOL    HW253873  12.337  13.918   3.108
84012SOL     OW53874   6.774   1.416   1.633
84012SOL    HW153875   6.759   1.350   1.566
84012SOL    HW253876   6.697   1.411   1.690
84013SOL     OW53877  13.839   9.107   6.234
84013SOL    HW153878  13.783   9.174   6.195
84013SOL    HW253879  13.787   9.074   6.308
84014SOL     OW53880   4.157   9.753   5.315
84014SOL    HW153881   4.092   9.733   5.382
84014SOL    HW253882   4.115   9.727   5.233
84015SOL     OW53883   2.765  10.196   0.223
84015SOL    HW153884   2.715  10.221   0.146
84015SOL    HW253885   2.803  10.278   0.255
84016SOL     OW53886   3.577   2.950  11.065
84016SOL    HW153887   3.590   2.975  10.974
84016SOL    HW253888   3.519   2.874  11.060
84017SOL     OW53889  10.060   6.384  12.071
84017SOL    HW153890   9.993   6.369  12.004
84017SOL    HW253891  10.142   6.356  12.029
84018SOL     OW53892   7.737   1.070  10.355
84018SOL    HW153893   7.653   1.054  10.311
84018SOL    HW253894   7.712   1.101  10.443
84019SOL     OW53895   3.936  14.650   6.618
84019SOL    HW153896   3.961  14.560   6.601
84019SOL    HW253897   4.015  14.701   6.600
84020SOL     OW53898   9.979  12.984   8.238
84020SOL    HW153899   9.986  12.906   8.182
84020SOL    HW253900  10.026  13.052   8.190
84021SOL     OW53901   1.332  11.545  13.856
84021SOL    HW153902   1.310  11.496  13.777
84021SOL    HW253903   1.249  11.585  13.884
84022SOL     OW53904   6.536   2.039  13.377
84022SOL    HW153905   6.611   2.003  13.426
84022SOL    HW253906   6.575   2.075  13.298
84023SOL     OW53907  11.509   7.859   2.082
84023SOL    HW153908  11.422   7.848   2.119
84023SOL    HW253909  11.527   7.953   2.089
84024SOL     OW53910   3.788   9.915  12.770
84024SOL    HW153911   3.769   9.911  12.676
84024SOL    HW253912   3.703   9.932  12.811
84025SOL     OW53913   5.216   5.633   1.670
84025SOL    HW153914   5.169   5.685   1.604
84025SOL    HW253915   5.307   5.635   1.642
84026SOL     OW53916   8.869   8.530   3.004
84026SOL    HW153917   8.960   8.558   3.012
84026SOL    HW253918   8.824   8.605   2.966
84027SOL     OW53919   4.158   9.880  12.893
84027SOL    HW153920   4.090   9.929  12.939
84027SOL    HW253921   4.240   9.913  12.929
84028SOL     OW53922   7.221   7.778   8.117
84028SOL    HW153923   7.298   7.722   8.102
84028SOL    HW253924   7.256   7.867   8.118
84029SOL     OW53925  13.626   0.371  13.795
84029SOL    HW153926  13.664   0.293  13.835
84029SOL    HW253927  13.540   0.342  13.763
84030SOL     OW53928   4.679   3.271   5.786
84030SOL    HW153929   4.675   3.175   5.789
84030SOL    HW253930   4.746   3.290   5.721
84031SOL     OW53931  12.906   2.600   4.689
84031SOL    HW153932  12.960   2.667   4.648
84031SOL    HW253933  12.851   2.567   4.619
84032SOL     OW53934   9.990   5.284  10.350
84032SOL    HW153935  10.079   5.287  10.384
84032SOL    HW253936   9.935   5.315  10.422
84033SOL     OW53937  13.970   8.240   7.654
84033SOL    HW153938  14.007   8.327   7.666
84033SOL    HW253939  13.986   8.195   7.737
84034SOL     OW53940   9.881   1.877  12.132
84034SOL    HW153941   9.917   1.869  12.220
84034SOL    HW253942   9.916   1.800  12.086
84035SOL     OW53943  10.885   0.761  11.120
84035SOL    HW153944  10.947   0.793  11.185
84035SOL    HW253945  10.829   0.700  11.168
84036SOL     OW53946   2.860  13.460  12.443
84036SOL    HW153947   2.782  13.434  12.394
84036SOL    HW253948   2.863  13.555  12.435
84037SOL     OW53949  11.004   6.424   6.973
84037SOL    HW153950  10.940   6.370   7.018
84037SOL    HW253951  11.019   6.499   7.031
84038SOL     OW53952   8.208   7.724   3.303
84038SOL    HW153953   8.180   7.670   3.229
84038SOL    HW253954   8.128   7.737   3.354
84039SOL     OW53955  11.927   0.760   9.503
84039SOL    HW153956  11.946   0.771   9.410
84039SOL    HW253957  11.970   0.834   9.546
84040SOL     OW53958   2.713   2.861   1.843
84040SOL    HW153959   2.646   2.874   1.777
84040SOL    HW253960   2.667   2.872   1.926
84041SOL     OW53961   9.959   3.705  11.756
84041SOL    HW153962   9.897   3.737  11.821
84041SOL    HW253963  10.015   3.780  11.738
84042SOL     OW53964  10.306   6.405   4.244
84042SOL    HW153965  10.287   6.354   4.165
84042SOL    HW253966  10.276   6.494   4.221
84043SOL     OW53967   9.653   3.514  10.741
84043SOL    HW153968   9.663   3.527  10.647
84043SOL    HW253969   9.569   3.555  10.762
84044SOL     OW53970   6.294  12.808   9.308
84044SOL    HW153971   6.331  12.836   9.224
84044SOL    HW253972   6.211  12.854   9.315
84045SOL     OW53973  12.325   4.161   8.149
84045SOL    HW153974  12.315   4.104   8.226
84045SOL    HW253975  12.375   4.109   8.087
84046SOL     OW53976   9.611   7.055   5.503
84046SOL    HW153977   9.575   7.135   5.541
84046SOL    HW253978   9.537   7.015   5.457
84047SOL     OW53979  10.924   9.066  11.445
84047SOL    HW153980  10.917   9.154  11.407
84047SOL    HW253981  10.943   9.009  11.371
84048SOL     OW53982  11.315  14.269   3.161
84048SOL    HW153983  11.227  14.239   3.138
84048SOL    HW253984  11.346  14.205   3.226
84049SOL     OW53985  10.624   9.735   9.672
84049SOL    HW153986  10.590   9.819   9.642
84049SOL    HW253987  10.608   9.675   9.599
84050SOL     OW53988  13.904   7.075  12.320
84050SOL    HW153989  13.923   7.009  12.386
84050SOL    HW253990  13.982   7.078  12.265
84051SOL     OW53991   1.217   9.199   5.256
84051SOL    HW153992   1.236   9.109   5.283
84051SOL    HW253993   1.271   9.212   5.178
84052SOL     OW53994   5.620  12.978   9.429
84052SOL    HW153995   5.555  13.047   9.444
84052SOL    HW253996   5.575  12.914   9.374
84053SOL     OW53997  14.101   3.360  14.576
84053SOL    HW153998  14.101   3.411  14.657
84053SOL    HW253999  14.088   3.425  14.507
84054SOL     OW54000   9.820  14.095   8.949
84054SOL    HW154001   9.909  14.124   8.967
84054SOL    HW254002   9.819  14.078   8.855
84055SOL     OW54003   1.763   8.799   2.648
84055SOL    HW154004   1.830   8.762   2.590
84055SOL    HW254005   1.681   8.783   2.601
84056SOL     OW54006   0.113  11.568   9.165
84056SOL    HW154007   0.170  11.579   9.089
84056SOL    HW254008   0.068  11.653   9.174
84057SOL     OW54009   1.974   5.043   4.044
84057SOL    HW154010   1.943   5.118   3.992
84057SOL    HW254011   1.983   5.078   4.133
84058SOL     OW54012  14.116   2.325  11.702
84058SOL    HW154013  14.206   2.354  11.684
84058SOL    HW254014  14.069   2.340  11.620
84059SOL     OW54015  10.815   4.177   8.870
84059SOL    HW154016  10.759   4.101   8.886
84059SOL    HW254017  10.887   4.168   8.933
84060SOL     OW54018  12.775  13.259  14.756
84060SOL    HW154019  12.851  13.315  14.775
84060SOL    HW254020  12.713  13.317  14.712
84061SOL     OW54021  13.018   7.656   1.403
84061SOL    HW154022  12.930   7.679   1.432
84061SOL    HW254023  13.006   7.580   1.346
84062SOL     OW54024  10.153   6.876  11.750
84062SOL    HW154025  10.069   6.876  11.703
84062SOL    HW254026  10.159   6.788  11.788
84063SOL     OW54027   9.531   8.939   4.881
84063SOL    HW154028   9.568   8.868   4.934
84063SOL    HW254029   9.557   9.019   4.927
84064SOL     OW54030  11.557   7.718   8.439
84064SOL    HW154031  11.492   7.788   8.437
84064SOL    HW254032  11.530   7.662   8.512
84065SOL     OW54033   8.918   2.192  14.086
84065SOL    HW154034   8.958   2.261  14.033
84065SOL    HW254035   8.897   2.123  14.023
84066SOL     OW54036   0.910  14.477   4.627
84066SOL    HW154037   0.870  14.561   4.650
84066SOL    HW254038   0.852  14.440   4.561
84067SOL     OW54039  11.633   6.142   2.712
84067SOL    HW154040  11.596   6.055   2.697
84067SOL    HW254041  11.556   6.199   2.719
84068SOL     OW54042   8.962   1.502  13.569
84068SOL    HW154043   8.939   1.454  13.489
84068SOL    HW254044   9.057   1.499  13.572
84069SOL     OW54045  11.341  13.605  10.781
84069SOL    HW154046  11.409  13.546  10.750
84069SOL    HW254047  11.319  13.574  10.869
84070SOL     OW54048   3.952   8.347  11.988
84070SOL    HW154049   4.038   8.367  12.025
84070SOL    HW254050   3.971   8.294  11.911
84071SOL     OW54051   2.988  13.660  14.099
84071SOL    HW154052   2.905  13.617  14.122
84071SOL    HW254053   2.994  13.734  14.159
84072SOL     OW54054   4.132   8.788   1.668
84072SOL    HW154055   4.189   8.818   1.598
84072SOL    HW254056   4.180   8.808   1.749
84073SOL     OW54057  10.249   7.807   6.115
84073SOL    HW154058  10.261   7.762   6.199
84073SOL    HW254059  10.166   7.773   6.081
84074SOL     OW54060  12.227   8.081   9.899
84074SOL    HW154061  12.191   8.163   9.933
84074SOL    HW254062  12.292   8.109   9.835
84075SOL     OW54063   5.092  13.292  14.647
84075SOL    HW154064   5.125  13.270  14.734
84075SOL    HW254065   5.009  13.245  14.640
84076SOL     OW54066   2.185   1.977   0.070
84076SOL    HW154067   2.136   1.934   0.140
84076SOL    HW254068   2.119   2.026   0.021
84077SOL     OW54069  13.973   2.458   3.303
84077SOL    HW154070  14.009   2.526   3.247
84077SOL    HW254071  13.940   2.392   3.243
84078SOL     OW54072  12.243  11.910   2.393
84078SOL    HW154073  12.256  11.859   2.313
84078SOL    HW254074  12.316  11.973   2.393
84079SOL     OW54075  14.141   5.565   2.941
84079SOL    HW154076  14.135   5.630   3.011
84079SOL    HW254077  14.176   5.487   2.983
84080SOL     OW54078  12.714   7.813  11.104
84080SOL    HW154079  12.686   7.864  11.027
84080SOL    HW254080  12.651   7.741  11.109
84081SOL     OW54081  14.507   2.388   9.055
84081SOL    HW154082  14.536   2.408   9.144
84081SOL    HW254083  14.418   2.422   9.050
84082SOL     OW54084   8.033  13.146   7.992
84082SOL    HW154085   8.077  13.141   8.077
84082SOL    HW254086   8.102  13.127   7.928
84083SOL     OW54087  13.822  10.659   6.875
84083SOL    HW154088  13.914  10.679   6.892
84083SOL    HW254089  13.810  10.571   6.911
84084SOL     OW54090  10.951   5.880  12.397
84084SOL    HW154091  10.936   5.966  12.436
84084SOL    HW254092  10.906   5.885  12.312
84085SOL     OW54093   2.401   9.781   1.764
84085SOL    HW154094   2.450   9.723   1.706
84085SOL    HW254095   2.365   9.848   1.706
84086SOL     OW54096   0.819   2.020  10.573
84086SOL    HW154097   0.734   2.034  10.616
84086SOL    HW254098   0.796   1.991  10.484
84087SOL     OW54099   3.268  11.966  12.439
84087SOL    HW154100   3.329  11.951  12.511
84087SOL    HW254101   3.230  12.052  12.456
84088SOL     OW54102   4.844   2.628  13.871
84088SOL    HW154103   4.827   2.715  13.835
84088SOL    HW254104   4.938   2.617  13.864
84089SOL     OW54105   4.881   6.724  14.811
84089SOL    HW154106   4.923   6.784  14.750
84089SOL    HW254107   4.917   6.638  14.790
84090SOL     OW54108   0.542   1.051  12.491
84090SOL    HW154109   0.464   1.102  12.510
84090SOL    HW254110   0.510   0.961  12.484
84091SOL     OW54111  11.060   1.603   3.549
84091SOL    HW154112  11.146   1.643   3.540
84091SOL    HW254113  11.030   1.589   3.460
84092SOL     OW54114   3.982   7.452  11.665
84092SOL    HW154115   3.888   7.443  11.678
84092SOL    HW254116   4.012   7.363  11.647
84093SOL     OW54117   6.726   3.682   5.388
84093SOL    HW154118   6.659   3.619   5.363
84093SOL    HW254119   6.677   3.759   5.416
84094SOL     OW54120   1.593  13.689  11.095
84094SOL    HW154121   1.498  13.679  11.098
84094SOL    HW254122   1.614  13.694  11.002
84095SOL     OW54123  11.522  10.157   5.121
84095SOL    HW154124  11.475  10.076   5.098
84095SOL    HW254125  11.531  10.153   5.216
84096SOL     OW54126   8.175   2.875  13.025
84096SOL    HW154127   8.259   2.921  13.017
84096SOL    HW254128   8.183   2.799  12.968
84097SOL     OW54129  11.487   6.163  12.846
84097SOL    HW154130  11.436   6.162  12.764
84097SOL    HW254131  11.472   6.250  12.882
84098SOL     OW54132  14.514  13.721   1.710
84098SOL    HW154133  14.441  13.739   1.651
84098SOL    HW254134  14.530  13.627   1.701
84099SOL     OW54135  12.656   4.322   5.240
84099SOL    HW154136  12.615   4.372   5.311
84099SOL    HW254137  12.620   4.360   5.160
84100SOL     OW54138  13.441  13.347   4.535
84100SOL    HW154139  13.397  13.275   4.489
84100SOL    HW254140  13.520  13.307   4.571
84101SOL     OW54141   3.973   2.359  12.787
84101SOL    HW154142   3.988   2.264  12.789
84101SOL    HW254143   4.051   2.397  12.826
84102SOL     OW54144   1.881   9.201   9.132
84102SOL    HW154145   1.952   9.138   9.116
84102SOL    HW254146   1.862   9.193   9.225
84103SOL     OW54147   4.479   4.148  11.773
84103SOL    HW154148   4.568   4.178  11.791
84103SOL    HW254149   4.451   4.104  11.853
84104SOL     OW54150   5.390   3.249  10.072
84104SOL    HW154151   5.375   3.271  10.164
84104SOL    HW254152   5.320   3.187  10.050
84105SOL     OW54153  10.159  13.182   1.577
84105SOL    HW154154  10.242  13.229   1.584
84105SOL    HW254155  10.098  13.233   1.630
84106SOL     OW54156   7.579   7.270  14.744
84106SOL    HW154157   7.498   7.304  14.705
84106SOL    HW254158   7.630   7.238  14.670
84107SOL     OW54159  13.338   4.966   7.125
84107SOL    HW154160  13.301   5.050   7.097
84107SOL    HW254161  13.401   4.988   7.193
84108SOL     OW54162  12.001   4.188   0.299
84108SOL    HW154163  11.907   4.173   0.297
84108SOL    HW254164  12.035   4.139   0.224
84109SOL     OW54165   8.212   0.022   3.026
84109SOL    HW154166   8.259   0.055   2.950
84109SOL    HW254167   8.143  14.840   2.990
84110SOL     OW54168   8.289   9.810  10.964
84110SOL    HW154169   8.313   9.871  11.034
84110SOL    HW254170   8.298   9.724  11.004
84111SOL     OW54171  12.936   7.714  10.087
84111SOL    HW154172  12.866   7.777  10.104
84111SOL    HW254173  12.973   7.741  10.003
84112SOL     OW54174   3.614  14.406   2.404
84112SOL    HW154175   3.674  14.469   2.444
84112SOL    HW254176   3.671  14.336   2.372
84113SOL     OW54177   3.460  10.376   0.089
84113SOL    HW154178   3.369  10.387   0.060
84113SOL    HW254179   3.502  10.459   0.066
84114SOL     OW54180  10.274   6.542  13.625
84114SOL    HW154181  10.298   6.506  13.540
84114SOL    HW254182  10.183   6.515  13.638
84115SOL     OW54183   7.425   2.785  11.736
84115SOL    HW154184   7.445   2.721  11.667
84115SOL    HW254185   7.363   2.845  11.695
84116SOL     OW54186   7.013  11.876   5.327
84116SOL    HW154187   7.084  11.813   5.335
84116SOL    HW254188   6.995  11.904   5.417
84117SOL     OW54189  12.548   0.588   7.408
84117SOL    HW154190  12.588   0.628   7.485
84117SOL    HW254191  12.573   0.645   7.336
84118SOL     OW54192  11.190   0.309  14.657
84118SOL    HW154193  11.113   0.365  14.650
84118SOL    HW254194  11.178   0.243  14.589
84119SOL     OW54195   0.147   5.020  10.338
84119SOL    HW154196   0.123   4.951  10.275
84119SOL    HW254197   0.131   4.980  10.423
84120SOL     OW54198   3.484   4.963  10.456
84120SOL    HW154199   3.419   5.033  10.449
84120SOL    HW254200   3.564   5.007  10.485
84121SOL     OW54201  13.735  11.337   2.492
84121SOL    HW154202  13.814  11.352   2.441
84121SOL    HW254203  13.666  11.383   2.443
84122SOL     OW54204   8.801   7.479  14.358
84122SOL    HW154205   8.754   7.535  14.421
84122SOL    HW254206   8.732   7.427  14.317
84123SOL     OW54207   5.703  10.118   2.870
84123SOL    HW154208   5.793  10.115   2.903
84123SOL    HW254209   5.655  10.056   2.924
84124SOL     OW54210  13.162  10.832  14.591
84124SOL    HW154211  13.146  10.905  14.651
84124SOL    HW254212  13.251  10.845  14.560
84125SOL     OW54213   2.872  14.419   8.689
84125SOL    HW154214   2.890  14.465   8.607
84125SOL    HW254215   2.952  14.432   8.741
84126SOL     OW54216   6.917   6.888   0.371
84126SOL    HW154217   6.844   6.945   0.391
84126SOL    HW254218   6.882   6.799   0.381
84127SOL     OW54219  11.738   2.969   0.443
84127SOL    HW154220  11.727   2.994   0.534
84127SOL    HW254221  11.714   2.876   0.441
84128SOL     OW54222  13.374  12.818   9.864
84128SOL    HW154223  13.399  12.811   9.957
84128SOL    HW254224  13.282  12.843   9.866
84129SOL     OW54225   6.745   3.373   6.767
84129SOL    HW154226   6.740   3.335   6.680
84129SOL    HW254227   6.826   3.425   6.767
84130SOL     OW54228  10.251  12.147   1.350
84130SOL    HW154229  10.218  12.132   1.439
84130SOL    HW254230  10.287  12.062   1.323
84131SOL     OW54231  14.363   0.035   1.641
84131SOL    HW154232  14.444   0.042   1.691
84131SOL    HW254233  14.330  14.821   1.661
84132SOL     OW54234   3.471   2.559   8.052
84132SOL    HW154235   3.398   2.570   8.114
84132SOL    HW254236   3.499   2.469   8.065
84133SOL     OW54237   0.230   5.135  13.930
84133SOL    HW154238   0.290   5.196  13.888
84133SOL    HW254239   0.276   5.107  14.010
84134SOL     OW54240   9.622   0.734  14.374
84134SOL    HW154241   9.567   0.661  14.402
84134SOL    HW254242   9.598   0.805  14.433
84135SOL     OW54243   0.231   8.187   1.688
84135SOL    HW154244   0.212   8.281   1.683
84135SOL    HW254245   0.323   8.180   1.663
84136SOL     OW54246  10.072  14.519  14.166
84136SOL    HW154247  10.078  14.593  14.226
84136SOL    HW254248  10.003  14.464  14.203
84137SOL     OW54249   5.447  12.800   5.455
84137SOL    HW154250   5.461  12.728   5.516
84137SOL    HW254251   5.535  12.829   5.431
84138SOL     OW54252   5.658   3.208  14.749
84138SOL    HW154253   5.684   3.156  14.673
84138SOL    HW254254   5.602   3.149  14.800
84139SOL     OW54255   2.182   5.436   3.723
84139SOL    HW154256   2.202   5.513   3.777
84139SOL    HW254257   2.181   5.363   3.784
84140SOL     OW54258   4.495   9.712  10.034
84140SOL    HW154259   4.404   9.700  10.006
84140SOL    HW254260   4.509   9.807  10.028
84141SOL     OW54261  13.495   9.664   5.835
84141SOL    HW154262  13.475   9.574   5.861
84141SOL    HW254263  13.531   9.656   5.747
84142SOL     OW54264   5.689   8.148   0.545
84142SOL    HW154265   5.716   8.149   0.637
84142SOL    HW254266   5.594   8.140   0.548
84143SOL     OW54267   1.666   8.177   6.877
84143SOL    HW154268   1.680   8.272   6.885
84143SOL    HW254269   1.672   8.145   6.967
84144SOL     OW54270   0.991   3.671   0.483
84144SOL    HW154271   0.986   3.749   0.538
84144SOL    HW254272   0.902   3.657   0.453
84145SOL     OW54273   7.438   4.929   2.151
84145SOL    HW154274   7.420   4.869   2.080
84145SOL    HW254275   7.419   5.016   2.116
84146SOL     OW54276   9.632   2.036  12.143
84146SOL    HW154277   9.578   1.969  12.185
84146SOL    HW254278   9.721   2.000  12.145
84147SOL     OW54279   7.651  11.956   3.858
84147SOL    HW154280   7.648  11.998   3.944
84147SOL    HW254281   7.584  12.001   3.806
84148SOL     OW54282   3.611   9.648  14.404
84148SOL    HW154283   3.537   9.587  14.399
84148SOL    HW254284   3.588   9.705  14.478
84149SOL     OW54285   4.316   0.375  12.371
84149SOL    HW154286   4.261   0.297  12.382
84149SOL    HW254287   4.382   0.348  12.307
84150SOL     OW54288  13.650  13.722  14.490
84150SOL    HW154289  13.628  13.814  14.476
84150SOL    HW254290  13.650  13.712  14.586
84151SOL     OW54291  11.126  10.169   1.969
84151SOL    HW154292  11.145  10.217   1.889
84151SOL    HW254293  11.069  10.226   2.020
84152SOL     OW54294   5.801   0.860   3.494
84152SOL    HW154295   5.896   0.871   3.489
84152SOL    HW254296   5.781   0.864   3.587
84153SOL     OW54297   0.521   0.527   2.433
84153SOL    HW154298   0.585   0.512   2.363
84153SOL    HW254299   0.501   0.440   2.466
84154SOL     OW54300  13.887   3.191  14.487
84154SOL    HW154301  13.960   3.250  14.504
84154SOL    HW254302  13.880   3.188  14.391
84155SOL     OW54303  12.318   6.061   4.301
84155SOL    HW154304  12.347   6.127   4.364
84155SOL    HW254305  12.319   6.106   4.217
84156SOL     OW54306   4.218  14.420   9.047
84156SOL    HW154307   4.278  14.346   9.040
84156SOL    HW254308   4.272  14.491   9.082
84157SOL     OW54309   5.789   8.782  14.839
84157SOL    HW154310   5.806   8.860  14.788
84157SOL    HW254311   5.875   8.746  14.858
84158SOL     OW54312   8.511  13.435  14.442
84158SOL    HW154313   8.510  13.340  14.455
84158SOL    HW254314   8.556  13.470  14.519
84159SOL     OW54315   1.320   8.226   3.493
84159SOL    HW154316   1.229   8.220   3.524
84159SOL    HW254317   1.372   8.214   3.572
84160SOL     OW54318   5.037  13.281   2.771
84160SOL    HW154319   4.952  13.324   2.767
84160SOL    HW254320   5.020  13.200   2.820
84161SOL     OW54321   6.916   6.428  12.270
84161SOL    HW154322   6.922   6.507  12.217
84161SOL    HW254323   7.006   6.395  12.274
84162SOL     OW54324   3.356   2.409   5.698
84162SOL    HW154325   3.272   2.372   5.670
84162SOL    HW254326   3.359   2.496   5.657
84163SOL     OW54327   5.175   5.336   7.320
84163SOL    HW154328   5.225   5.299   7.248
84163SOL    HW254329   5.190   5.431   7.313
84164SOL     OW54330   3.576   2.946   9.322
84164SOL    HW154331   3.664   2.960   9.286
84164SOL    HW254332   3.530   3.028   9.305
84165SOL     OW54333   2.037  10.458   7.537
84165SOL    HW154334   1.981  10.382   7.555
84165SOL    HW254335   2.076  10.439   7.452
84166SOL     OW54336  12.043   4.336   7.366
84166SOL    HW154337  12.058   4.279   7.442
84166SOL    HW254338  12.095   4.296   7.296
84167SOL     OW54339   2.460   1.264   1.719
84167SOL    HW154340   2.546   1.275   1.760
84167SOL    HW254341   2.419   1.350   1.726
84168SOL     OW54342  11.152   0.686  13.909
84168SOL    HW154343  11.072   0.737  13.896
84168SOL    HW254344  11.187   0.675  13.820
84169SOL     OW54345   7.546   3.295   6.268
84169SOL    HW154346   7.504   3.304   6.182
84169SOL    HW254347   7.518   3.373   6.317
84170SOL     OW54348   6.625   1.424   3.830
84170SOL    HW154349   6.616   1.339   3.786
84170SOL    HW254350   6.569   1.483   3.779
84171SOL     OW54351   0.742  14.755  14.115
84171SOL    HW154352   0.829  14.724  14.141
84171SOL    HW254353   0.706  14.684  14.062
84172SOL     OW54354   8.014   7.141  11.380
84172SOL    HW154355   8.015   7.184  11.295
84172SOL    HW254356   7.981   7.053  11.363
84173SOL     OW54357   0.729   9.225   5.818
84173SOL    HW154358   0.656   9.164   5.821
84173SOL    HW254359   0.780   9.197   5.742
84174SOL     OW54360   0.849   7.158   7.473
84174SOL    HW154361   0.916   7.097   7.443
84174SOL    HW254362   0.769   7.106   7.478
84175SOL     OW54363   2.735   7.118   5.541
84175SOL    HW154364   2.825   7.101   5.515
84175SOL    HW254365   2.720   7.059   5.615
84176SOL     OW54366  11.900  14.443   5.182
84176SOL    HW154367  11.820  14.453   5.235
84176SOL    HW254368  11.873  14.471   5.094
84177SOL     OW54369   8.514  13.525  10.073
84177SOL    HW154370   8.445  13.553  10.133
84177SOL    HW254371   8.526  13.599  10.013
84178SOL     OW54372   1.611   8.426   2.811
84178SOL    HW154373   1.646   8.436   2.723
84178SOL    HW254374   1.688   8.407   2.866
84179SOL     OW54375  14.334   8.426   5.342
84179SOL    HW154376  14.278   8.348   5.334
84179SOL    HW254377  14.360   8.428   5.434
84180SOL     OW54378   1.428   2.730   4.606
84180SOL    HW154379   1.456   2.663   4.542
84180SOL    HW254380   1.340   2.755   4.577
84181SOL     OW54381  12.122  10.829   7.831
84181SOL    HW154382  12.215  10.822   7.810
84181SOL    HW254383  12.078  10.795   7.753
84182SOL     OW54384   5.848   3.465   2.473
84182SOL    HW154385   5.766   3.443   2.517
84182SOL    HW254386   5.858   3.559   2.486
84183SOL     OW54387  10.570  10.705   2.669
84183SOL    HW154388  10.528  10.705   2.755
84183SOL    HW254389  10.586  10.798   2.650
84184SOL     OW54390   5.250   5.314   9.828
84184SOL    HW154391   5.168   5.308   9.877
84184SOL    HW254392   5.319   5.300   9.893
84185SOL     OW54393   4.881   0.101   3.878
84185SOL    HW154394   4.817   0.126   3.944
84185SOL    HW254395   4.959   0.151   3.901
84186SOL     OW54396  13.900  10.621   9.358
84186SOL    HW154397  13.943  10.547   9.315
84186SOL    HW254398  13.920  10.610   9.451
84187SOL     OW54399   7.247   0.534   4.143
84187SOL    HW154400   7.274   0.616   4.183
84187SOL    HW254401   7.251   0.470   4.214
84188SOL     OW54402   4.947   3.578   8.040
84188SOL    HW154403   4.948   3.649   7.976
84188SOL    HW254404   4.900   3.614   8.115
84189SOL     OW54405   6.247  13.623   0.550
84189SOL    HW154406   6.227  13.589   0.637
84189SOL    HW254407   6.197  13.567   0.490
84190SOL     OW54408   2.648  13.729   3.699
84190SOL    HW154409   2.656  13.824   3.687
84190SOL    HW254410   2.580  13.719   3.766
84191SOL     OW54411   5.834   6.898  13.803
84191SOL    HW154412   5.849   6.991  13.817
84191SOL    HW254413   5.831   6.888  13.708
84192SOL     OW54414   7.892   1.000  12.532
84192SOL    HW154415   7.853   1.074  12.486
84192SOL    HW254416   7.960   0.967  12.473
84193SOL     OW54417   8.410   3.230   0.373
84193SOL    HW154418   8.428   3.158   0.313
84193SOL    HW254419   8.467   3.301   0.343
84194SOL     OW54420  10.140  12.243  13.044
84194SOL    HW154421  10.167  12.258  13.135
84194SOL    HW254422  10.160  12.151  13.028
84195SOL     OW54423   5.357  14.100  12.017
84195SOL    HW154424   5.428  14.040  12.035
84195SOL    HW254425   5.354  14.105  11.921
84196SOL     OW54426   6.185  13.625   6.009
84196SOL    HW154427   6.170  13.587   6.096
84196SOL    HW254428   6.183  13.720   6.024
84197SOL     OW54429   8.029  10.085   3.075
84197SOL    HW154430   8.026  10.135   3.157
84197SOL    HW254431   7.964  10.016   3.087
84198SOL     OW54432   5.734   4.220   4.673
84198SOL    HW154433   5.675   4.168   4.728
84198SOL    HW254434   5.725   4.182   4.586
84199SOL     OW54435  13.131  10.915   4.433
84199SOL    HW154436  13.087  10.959   4.361
84199SOL    HW254437  13.063  10.859   4.472
84200SOL     OW54438   4.016   1.384  13.192
84200SOL    HW154439   4.108   1.372  13.216
84200SOL    HW254440   4.016   1.382  13.096
84201SOL     OW54441   6.792  13.258   4.171
84201SOL    HW154442   6.716  13.227   4.221
84201SOL    HW254443   6.858  13.189   4.183
84202SOL     OW54444   4.842   2.995  11.627
84202SOL    HW154445   4.840   3.072  11.570
84202SOL    HW254446   4.925   3.003  11.674
84203SOL     OW54447  13.520   6.822   6.280
84203SOL    HW154448  13.519   6.835   6.375
84203SOL    HW254449  13.602   6.862   6.251
84204SOL     OW54450   6.950  12.761  13.453
84204SOL    HW154451   6.994  12.846  13.458
84204SOL    HW254452   7.008  12.701  13.500
84205SOL     OW54453   0.473   4.572  12.738
84205SOL    HW154454   0.491   4.650  12.790
84205SOL    HW254455   0.558   4.546  12.703
84206SOL     OW54456   6.008   6.962   1.684
84206SOL    HW154457   6.049   7.014   1.754
84206SOL    HW254458   5.914   6.964   1.704
84207SOL     OW54459   5.076   1.150   9.836
84207SOL    HW154460   5.150   1.094   9.861
84207SOL    HW254461   5.100   1.184   9.750
84208SOL     OW54462  10.618   7.942   3.308
84208SOL    HW154463  10.639   7.941   3.215
84208SOL    HW254464  10.670   8.014   3.344
84209SOL     OW54465   7.267  12.290   2.811
84209SOL    HW154466   7.252  12.384   2.799
84209SOL    HW254467   7.241  12.273   2.902
84210SOL     OW54468   5.560   8.194  12.838
84210SOL    HW154469   5.514   8.225  12.760
84210SOL    HW254470   5.585   8.104  12.817
84211SOL     OW54471   9.049   7.677   1.067
84211SOL    HW154472   9.117   7.685   1.000
84211SOL    HW254473   9.053   7.760   1.114
84212SOL     OW54474   5.507   8.130  10.481
84212SOL    HW154475   5.529   8.198  10.545
84212SOL    HW254476   5.436   8.168  10.430
84213SOL     OW54477   3.447   6.692  14.748
84213SOL    HW154478   3.512   6.752  14.713
84213SOL    HW254479   3.497   6.625  14.795
84214SOL     OW54480  10.336  12.863   2.684
84214SOL    HW154481  10.419  12.899   2.654
84214SOL    HW254482  10.271  12.901   2.626
84215SOL     OW54483   0.351  12.693   7.248
84215SOL    HW154484   0.296  12.750   7.194
84215SOL    HW254485   0.396  12.754   7.308
84216SOL     OW54486   3.661   1.823   7.138
84216SOL    HW154487   3.736   1.872   7.171
84216SOL    HW254488   3.587   1.884   7.146
84217SOL     OW54489  14.682  13.406  11.157
84217SOL    HW154490  14.630  13.346  11.211
84217SOL    HW254491  14.770  13.368  11.157
84218SOL     OW54492  12.089   9.950   7.364
84218SOL    HW154493  12.183   9.955   7.379
84218SOL    HW254494  12.078   9.880   7.300
84219SOL     OW54495  13.798   4.399  10.735
84219SOL    HW154496  13.779   4.418  10.827
84219SOL    HW254497  13.760   4.472  10.687
84220SOL     OW54498   3.592   1.325   1.430
84220SOL    HW154499   3.630   1.238   1.421
84220SOL    HW254500   3.524   1.316   1.497
84221SOL     OW54501   4.863   1.616  12.789
84221SOL    HW154502   4.926   1.664  12.736
84221SOL    HW254503   4.862   1.528  12.752
84222SOL     OW54504  10.397   7.391   8.463
84222SOL    HW154505  10.333   7.435   8.407
84222SOL    HW254506  10.378   7.298   8.453
84223SOL     OW54507  14.869   0.423   4.896
84223SOL    HW154508   0.055   0.402   4.967
84223SOL    HW254509   0.051   0.424   4.818
84224SOL     OW54510   0.944   0.675  14.673
84224SOL    HW154511   0.983   0.674  14.760
84224SOL    HW254512   0.972   0.593  14.633
84225SOL     OW54513   2.807  10.188  10.899
84225SOL    HW154514   2.788  10.272  10.941
84225SOL    HW254515   2.747  10.184  10.824
84226SOL     OW54516  13.194   0.958   3.287
84226SOL    HW154517  13.251   0.980   3.360
84226SOL    HW254518  13.123   0.907   3.326
84227SOL     OW54519  10.032   6.301   0.670
84227SOL    HW154520  10.106   6.277   0.725
84227SOL    HW254521  10.044   6.395   0.653
84228SOL     OW54522  10.656  13.673   7.153
84228SOL    HW154523  10.581  13.653   7.210
84228SOL    HW254524  10.671  13.767   7.166
84229SOL     OW54525  11.158   3.899   2.220
84229SOL    HW154526  11.068   3.869   2.231
84229SOL    HW254527  11.211   3.834   2.267
84230SOL     OW54528   6.466   6.866   8.628
84230SOL    HW154529   6.481   6.906   8.714
84230SOL    HW254530   6.389   6.811   8.640
84231SOL     OW54531  13.163  13.019  11.017
84231SOL    HW154532  13.072  13.015  10.987
84231SOL    HW254533  13.174  12.941  11.071
84232SOL     OW54534   0.231   8.745   8.783
84232SOL    HW154535   0.315   8.723   8.823
84232SOL    HW254536   0.185   8.794   8.851
84233SOL     OW54537   0.369   7.074  13.273
84233SOL    HW154538   0.394   7.106  13.186
84233SOL    HW254539   0.274   7.078  13.274
84234SOL     OW54540   9.797   0.163   9.045
84234SOL    HW154541   9.765   0.154   9.135
84234SOL    HW254542   9.813   0.257   9.035
84235SOL     OW54543   9.518   5.327   9.042
84235SOL    HW154544   9.578   5.327   8.967
84235SOL    HW254545   9.524   5.238   9.077
84236SOL     OW54546  12.762   2.045  13.520
84236SOL    HW154547  12.747   2.075  13.610
84236SOL    HW254548  12.681   2.065  13.474
84237SOL     OW54549   0.369  12.442   2.711
84237SOL    HW154550   0.356  12.387   2.634
84237SOL    HW254551   0.411  12.521   2.677
84238SOL     OW54552   6.200   4.297  14.193
84238SOL    HW154553   6.133   4.269  14.131
84238SOL    HW254554   6.282   4.298  14.142
84239SOL     OW54555  14.122   4.023   3.929
84239SOL    HW154556  14.120   4.081   4.006
84239SOL    HW254557  14.030   4.018   3.901
84240SOL     OW54558   6.666  11.507  12.451
84240SOL    HW154559   6.704  11.562  12.382
84240SOL    HW254560   6.589  11.556  12.481
84241SOL     OW54561   8.396   4.845   6.907
84241SOL    HW154562   8.460   4.828   6.977
84241SOL    HW254563   8.354   4.927   6.934
84242SOL     OW54564   5.995   3.602   8.494
84242SOL    HW154565   5.908   3.614   8.456
84242SOL    HW254566   5.983   3.534   8.561
84243SOL     OW54567   7.230  13.704   3.457
84243SOL    HW154568   7.193  13.736   3.539
84243SOL    HW254569   7.189  13.618   3.445
84244SOL     OW54570  12.566  12.681  12.668
84244SOL    HW154571  12.605  12.766  12.649
84244SOL    HW254572  12.537  12.648  12.583
84245SOL     OW54573   6.084  13.873  10.916
84245SOL    HW154574   6.079  13.783  10.887
84245SOL    HW254575   6.177  13.887  10.935
84246SOL     OW54576  13.598  10.171  14.427
84246SOL    HW154577  13.670  10.110  14.411
84246SOL    HW254578  13.529  10.117  14.466
84247SOL     OW54579  11.855   2.584   5.108
84247SOL    HW154580  11.856   2.597   5.013
84247SOL    HW254581  11.826   2.493   5.119
84248SOL     OW54582   5.147  11.636   5.140
84248SOL    HW154583   5.101  11.611   5.060
84248SOL    HW254584   5.202  11.710   5.114
84249SOL     OW54585   5.943   4.004   1.550
84249SOL    HW154586   5.932   4.057   1.629
84249SOL    HW254587   5.866   4.022   1.497
84250SOL     OW54588   9.655   2.170  14.678
84250SOL    HW154589   9.672   2.237  14.612
84250SOL    HW254590   9.578   2.202  14.726
84251SOL     OW54591  11.574  14.661   1.530
84251SOL    HW154592  11.639  14.729   1.544
84251SOL    HW254593  11.623  14.579   1.536
84252SOL     OW54594  13.957  13.948  14.215
84252SOL    HW154595  14.050  13.964  14.197
84252SOL    HW254596  13.928  13.896  14.140
84253SOL     OW54597   1.584  13.816  14.346
84253SOL    HW154598   1.676  13.826  14.322
84253SOL    HW254599   1.537  13.831  14.264
84254SOL     OW54600   3.119   0.036   2.015
84254SOL    HW154601   3.179   0.067   2.083
84254SOL    HW254602   3.053  14.861   2.063
84255SOL     OW54603   9.324   7.444   0.277
84255SOL    HW154604   9.388   7.510   0.251
84255SOL    HW254605   9.364   7.361   0.251
84256SOL     OW54606   6.485  12.481   8.674
84256SOL    HW154607   6.576  12.494   8.700
84256SOL    HW254608   6.463  12.393   8.706
84257SOL     OW54609  13.260   2.646  11.915
84257SOL    HW154610  13.253   2.572  11.855
84257SOL    HW254611  13.338   2.628  11.967
84258SOL     OW54612  10.725   5.143   0.192
84258SOL    HW154613  10.766   5.160   0.107
84258SOL    HW254614  10.632   5.160   0.177
84259SOL     OW54615   6.135   1.770   9.410
84259SOL    HW154616   6.145   1.819   9.328
84259SOL    HW254617   6.159   1.681   9.387
84260SOL     OW54618   8.915   0.874   7.092
84260SOL    HW154619   8.954   0.952   7.054
84260SOL    HW254620   8.874   0.829   7.018
84261SOL     OW54621   3.226  10.198   2.483
84261SOL    HW154622   3.198  10.213   2.392
84261SOL    HW254623   3.180  10.265   2.533
84262SOL     OW54624   8.443  11.416   8.409
84262SOL    HW154625   8.354  11.431   8.440
84262SOL    HW254626   8.479  11.352   8.471
84263SOL     OW54627  13.525  11.710   3.797
84263SOL    HW154628  13.546  11.774   3.865
84263SOL    HW254629  13.492  11.634   3.845
84264SOL     OW54630  14.662   6.706   4.914
84264SOL    HW154631  14.707   6.700   4.998
84264SOL    HW254632  14.676   6.621   4.873
84265SOL     OW54633   1.896   5.013   8.178
84265SOL    HW154634   1.914   4.925   8.212
84265SOL    HW254635   1.907   5.005   8.084
84266SOL     OW54636   4.209  14.564  10.461
84266SOL    HW154637   4.122  14.540  10.491
84266SOL    HW254638   4.208  14.547  10.367
84267SOL     OW54639   8.393   0.074   5.623
84267SOL    HW154640   8.330   0.133   5.581
84267SOL    HW254641   8.473   0.125   5.630
84268SOL     OW54642   6.714   9.940   3.787
84268SOL    HW154643   6.658   9.864   3.768
84268SOL    HW254644   6.802   9.913   3.760
84269SOL     OW54645   2.343  12.023   7.851
84269SOL    HW154646   2.322  12.036   7.759
84269SOL    HW254647   2.426  11.975   7.851
84270SOL     OW54648  12.181  12.554   4.021
84270SOL    HW154649  12.185  12.593   4.109
84270SOL    HW254650  12.212  12.623   3.963
84271SOL     OW54651   7.648   6.312   6.803
84271SOL    HW154652   7.740   6.337   6.795
84271SOL    HW254653   7.614   6.371   6.870
84272SOL     OW54654   1.942   7.433  12.818
84272SOL    HW154655   1.985   7.519  12.822
84272SOL    HW254656   1.861   7.450  12.771
84273SOL     OW54657   2.680   7.199   9.468
84273SOL    HW154658   2.726   7.177   9.386
84273SOL    HW254659   2.683   7.118   9.519
84274SOL     OW54660  10.646  11.655  10.179
84274SOL    HW154661  10.702  11.657  10.102
84274SOL    HW254662  10.693  11.707  10.244
84275SOL     OW54663  11.917  11.407   6.250
84275SOL    HW154664  11.975  11.378   6.321
84275SOL    HW254665  11.852  11.337   6.242
84276SOL     OW54666   2.064   8.848  11.681
84276SOL    HW154667   2.132   8.817  11.621
84276SOL    HW254668   2.054   8.941  11.659
84277SOL     OW54669   6.811   6.115  11.237
84277SOL    HW154670   6.793   6.198  11.282
84277SOL    HW254671   6.728   6.093  11.194
84278SOL     OW54672   2.739   5.669  13.359
84278SOL    HW154673   2.644   5.683  13.367
84278SOL    HW254674   2.747   5.581  13.322
84279SOL     OW54675   5.379   7.798   8.133
84279SOL    HW154676   5.453   7.789   8.193
84279SOL    HW254677   5.303   7.769   8.184
84280SOL     OW54678   3.260  14.239   6.133
84280SOL    HW154679   3.225  14.305   6.074
84280SOL    HW254680   3.183  14.203   6.178
84281SOL     OW54681   7.559  10.258   7.278
84281SOL    HW154682   7.595  10.172   7.254
84281SOL    HW254683   7.471  10.259   7.241
84282SOL     OW54684   2.741   1.791   1.327
84282SOL    HW154685   2.833   1.815   1.326
84282SOL    HW254686   2.694   1.874   1.318
84283SOL     OW54687   5.428   9.625  10.026
84283SOL    HW154688   5.337   9.618   9.997
84283SOL    HW254689   5.441   9.548  10.081
84284SOL     OW54690   2.967  12.991  13.060
84284SOL    HW154691   2.961  12.912  13.006
84284SOL    HW254692   2.884  13.036  13.045
84285SOL     OW54693   8.545   2.319   9.061
84285SOL    HW154694   8.532   2.229   9.092
84285SOL    HW254695   8.616   2.313   8.997
84286SOL     OW54696  11.859  14.743   4.283
84286SOL    HW154697  11.836  14.702   4.200
84286SOL    HW254698  11.838  14.836   4.271
84287SOL     OW54699   9.028   4.440   6.737
84287SOL    HW154700   9.009   4.493   6.660
84287SOL    HW254701   8.958   4.374   6.738
84288SOL     OW54702   5.595  11.338   4.020
84288SOL    HW154703   5.509  11.298   4.032
84288SOL    HW254704   5.624  11.360   4.108
84289SOL     OW54705   8.267   8.470   2.290
84289SOL    HW154706   8.290   8.503   2.203
84289SOL    HW254707   8.333   8.404   2.309
84290SOL     OW54708  13.124   8.945  14.823
84290SOL    HW154709  13.074   8.882   0.000
84290SOL    HW254710  13.192   8.893  14.780
84291SOL     OW54711   8.308   6.737   0.966
84291SOL    HW154712   8.389   6.687   0.968
84291SOL    HW254713   8.327   6.812   0.909
84292SOL     OW54714   2.970   7.632   6.137
84292SOL    HW154715   2.933   7.671   6.058
84292SOL    HW254716   3.049   7.683   6.154
84293SOL     OW54717  11.029   3.571   2.623
84293SOL    HW154718  11.119   3.600   2.639
84293SOL    HW254719  11.014   3.503   2.689
84294SOL     OW54720   4.567   5.717   7.488
84294SOL    HW154721   4.535   5.627   7.492
84294SOL    HW254722   4.549   5.744   7.398
84295SOL     OW54723  11.265   0.681  10.696
84295SOL    HW154724  11.172   0.672  10.676
84295SOL    HW254725  11.305   0.600  10.666
84296SOL     OW54726   9.601   5.665  10.453
84296SOL    HW154727   9.533   5.613  10.495
84296SOL    HW254728   9.557   5.709  10.381
84297SOL     OW54729   9.513  14.377   5.232
84297SOL    HW154730   9.418  14.382   5.230
84297SOL    HW254731   9.535  14.369   5.325
84298SOL     OW54732  14.580   4.990   4.758
84298SOL    HW154733  14.496   5.034   4.769
84298SOL    HW254734  14.643   5.061   4.745
84299SOL     OW54735   7.027   0.598   3.357
84299SOL    HW154736   7.061   0.569   3.442
84299SOL    HW254737   7.088   0.561   3.293
84300SOL     OW54738   7.891  13.808  14.530
84300SOL    HW154739   7.875  13.796  14.624
84300SOL    HW254740   7.970  13.862  14.526
84301SOL     OW54741   9.576   3.124   1.777
84301SOL    HW154742   9.550   3.117   1.686
84301SOL    HW254743   9.507   3.177   1.818
84302SOL     OW54744  11.815   5.431   1.279
84302SOL    HW154745  11.801   5.524   1.262
84302SOL    HW254746  11.833   5.394   1.193
84303SOL     OW54747   5.284  13.321  13.022
84303SOL    HW154748   5.257  13.230  13.034
84303SOL    HW254749   5.374  13.324  13.057
84304SOL     OW54750  10.391   2.864  12.364
84304SOL    HW154751  10.337   2.786  12.354
84304SOL    HW254752  10.377   2.912  12.282
84305SOL     OW54753   2.975   3.662   3.813
84305SOL    HW154754   2.933   3.674   3.728
84305SOL    HW254755   2.992   3.751   3.844
84306SOL     OW54756  13.235   8.485   6.159
84306SOL    HW154757  13.188   8.488   6.075
84306SOL    HW254758  13.326   8.499   6.135
84307SOL     OW54759  14.290   3.404   4.925
84307SOL    HW154760  14.327   3.319   4.902
84307SOL    HW254761  14.268   3.444   4.841
84308SOL     OW54762   6.503   8.780  11.685
84308SOL    HW154763   6.571   8.811  11.625
84308SOL    HW254764   6.548   8.717  11.742
84309SOL     OW54765   1.745   7.052   5.590
84309SOL    HW154766   1.794   7.133   5.605
84309SOL    HW254767   1.809   6.982   5.604
84310SOL     OW54768   1.542   1.500   7.872
84310SOL    HW154769   1.588   1.573   7.829
84310SOL    HW254770   1.453   1.505   7.838
84311SOL     OW54771   3.365   2.682   5.962
84311SOL    HW154772   3.339   2.770   5.932
84311SOL    HW254773   3.314   2.623   5.907
84312SOL     OW54774   1.676   3.519   7.825
84312SOL    HW154775   1.678   3.481   7.913
84312SOL    HW254776   1.749   3.581   7.824
84313SOL     OW54777   0.622  10.905   0.222
84313SOL    HW154778   0.699  10.939   0.176
84313SOL    HW254779   0.657  10.836   0.279
84314SOL     OW54780   5.318   5.611  11.528
84314SOL    HW154781   5.355   5.599  11.441
84314SOL    HW254782   5.369   5.552  11.584
84315SOL     OW54783   6.695   3.967   3.987
84315SOL    HW154784   6.678   3.877   3.959
84315SOL    HW254785   6.745   4.005   3.916
84316SOL     OW54786   7.911   1.143   2.994
84316SOL    HW154787   7.876   1.057   2.971
84316SOL    HW254788   8.005   1.136   2.979
84317SOL     OW54789   7.551  13.739  12.081
84317SOL    HW154790   7.636  13.700  12.062
84317SOL    HW254791   7.558  13.772  12.170
84318SOL     OW54792   2.678  12.069  14.660
84318SOL    HW154793   2.628  12.029  14.732
84318SOL    HW254794   2.756  12.105  14.702
84319SOL     OW54795   3.532   2.638  13.930
84319SOL    HW154796   3.583   2.560  13.907
84319SOL    HW254797   3.452   2.631  13.878
84320SOL     OW54798  14.344   2.602   8.170
84320SOL    HW154799  14.292   2.678   8.196
84320SOL    HW254800  14.434   2.628   8.187
84321SOL     OW54801   8.702  11.755   6.398
84321SOL    HW154802   8.621  11.705   6.411
84321SOL    HW254803   8.700  11.779   6.305
84322SOL     OW54804  10.489   6.320  12.187
84322SOL    HW154805  10.469   6.226  12.182
84322SOL    HW254806  10.583   6.322  12.206
84323SOL     OW54807   0.701   0.766   4.730
84323SOL    HW154808   0.778   0.800   4.776
84323SOL    HW254809   0.723   0.675   4.712
84324SOL     OW54810  14.582   5.921  11.550
84324SOL    HW154811  14.507   5.899  11.605
84324SOL    HW254812  14.544   5.962  11.472
84325SOL     OW54813   4.887   6.718   2.779
84325SOL    HW154814   4.974   6.755   2.794
84325SOL    HW254815   4.828   6.793   2.784
84326SOL     OW54816   7.536   0.328   8.860
84326SOL    HW154817   7.595   0.342   8.935
84326SOL    HW254818   7.449   0.347   8.895
84327SOL     OW54819   4.098  14.855   0.896
84327SOL    HW154820   4.191  14.870   0.913
84327SOL    HW254821   4.058   0.068   0.900
84328SOL     OW54822   6.929   0.640   7.366
84328SOL    HW154823   6.861   0.659   7.302
84328SOL    HW254824   6.898   0.562   7.412
84329SOL     OW54825   4.605   9.286   2.413
84329SOL    HW154826   4.599   9.325   2.500
84329SOL    HW254827   4.658   9.347   2.363
84330SOL     OW54828   4.010   1.306   4.158
84330SOL    HW154829   4.095   1.301   4.114
84330SOL    HW254830   3.953   1.349   4.094
84331SOL     OW54831  14.094   0.760  13.637
84331SOL    HW154832  14.072   0.700  13.566
84331SOL    HW254833  14.092   0.707  13.716
84332SOL     OW54834   7.029   7.567   5.064
84332SOL    HW154835   6.938   7.540   5.055
84332SOL    HW254836   7.047   7.619   4.986
84333SOL     OW54837   4.762   0.109  14.662
84333SOL    HW154838   4.717   0.124  14.579
84333SOL    HW254839   4.775   0.015  14.667
84334SOL     OW54840  10.045   1.374  10.074
84334SOL    HW154841  10.016   1.445  10.016
84334SOL    HW254842  10.008   1.295  10.036
84335SOL     OW54843  13.193   3.576   2.433
84335SOL    HW154844  13.126   3.638   2.462
84335SOL    HW254845  13.153   3.531   2.358
84336SOL     OW54846   7.460  10.517   4.794
84336SOL    HW154847   7.368  10.501   4.775
84336SOL    HW254848   7.507  10.465   4.729
84337SOL     OW54849  11.533   3.210   3.231
84337SOL    HW154850  11.458   3.244   3.182
84337SOL    HW254851  11.499   3.132   3.275
84338SOL     OW54852   7.866   4.177  14.802
84338SOL    HW154853   7.894   4.101  14.854
84338SOL    HW254854   7.948   4.218  14.774
84339SOL     OW54855   3.387  11.803   1.239
84339SOL    HW154856   3.434  11.880   1.270
84339SOL    HW254857   3.443  11.729   1.264
84340SOL     OW54858  13.889  13.896   9.031
84340SOL    HW154859  13.935  13.812   9.033
84340SOL    HW254860  13.831  13.893   9.107
84341SOL     OW54861   7.495   1.144   5.728
84341SOL    HW154862   7.499   1.141   5.632
84341SOL    HW254863   7.488   1.052   5.754
84342SOL     OW54864  11.355   2.742   6.182
84342SOL    HW154865  11.385   2.653   6.199
84342SOL    HW254866  11.394   2.765   6.097
84343SOL     OW54867   7.009   4.394  14.167
84343SOL    HW154868   7.068   4.319  14.162
84343SOL    HW254869   6.986   4.412  14.076
84344SOL     OW54870   4.500   2.269  13.469
84344SOL    HW154871   4.473   2.214  13.542
84344SOL    HW254872   4.596   2.268  13.472
84345SOL     OW54873  12.009   8.439   0.024
84345SOL    HW154874  11.996   8.514   0.082
84345SOL    HW254875  12.067   8.471  14.829
84346SOL     OW54876  13.539   3.256  11.732
84346SOL    HW154877  13.577   3.338  11.702
84346SOL    HW254878  13.487   3.225  11.658
84347SOL     OW54879  13.414  11.492   2.503
84347SOL    HW154880  13.489  11.502   2.443
84347SOL    HW254881  13.339  11.477   2.445
84348SOL     OW54882  12.329   0.996  14.821
84348SOL    HW154883  12.350   0.923   0.005
84348SOL    HW254884  12.249   0.968  14.775
84349SOL     OW54885   5.960   6.011  10.383
84349SOL    HW154886   5.962   6.025  10.478
84349SOL    HW254887   5.873   6.039  10.356
84350SOL     OW54888  13.105   5.649   3.847
84350SOL    HW154889  13.114   5.652   3.752
84350SOL    HW254890  13.015   5.677   3.864
84351SOL     OW54891  12.666   1.071   8.860
84351SOL    HW154892  12.629   1.003   8.916
84351SOL    HW254893  12.621   1.152   8.887
84352SOL     OW54894  10.812  12.106   8.848
84352SOL    HW154895  10.889  12.157   8.822
84352SOL    HW254896  10.739  12.168   8.843
84353SOL     OW54897   7.785  11.849   0.565
84353SOL    HW154898   7.766  11.901   0.643
84353SOL    HW254899   7.826  11.770   0.599
84354SOL     OW54900   6.156  14.657   5.269
84354SOL    HW154901   6.143  14.563   5.281
84354SOL    HW254902   6.169  14.667   5.174
84355SOL     OW54903   1.449   0.805   2.009
84355SOL    HW154904   1.425   0.748   1.936
84355SOL    HW254905   1.542   0.789   2.023
84356SOL     OW54906   9.586   4.404   9.167
84356SOL    HW154907   9.508   4.359   9.135
84356SOL    HW254908   9.554   4.458   9.240
84357SOL     OW54909   1.892   6.167   6.426
84357SOL    HW154910   1.890   6.245   6.371
84357SOL    HW254911   1.921   6.097   6.368
84358SOL     OW54912   1.301  12.835   7.500
84358SOL    HW154913   1.345  12.886   7.568
84358SOL    HW254914   1.367  12.825   7.431
84359SOL     OW54915   5.155   0.686   2.471
84359SOL    HW154916   5.194   0.748   2.533
84359SOL    HW254917   5.091   0.638   2.522
84360SOL     OW54918  11.001   6.604   2.940
84360SOL    HW154919  11.001   6.530   3.000
84360SOL    HW254920  10.972   6.568   2.856
84361SOL     OW54921   7.399  11.995   3.549
84361SOL    HW154922   7.331  12.061   3.531
84361SOL    HW254923   7.352  11.925   3.595
84362SOL     OW54924   6.039   2.108   0.926
84362SOL    HW154925   5.951   2.147   0.917
84362SOL    HW254926   6.048   2.092   1.020
84363SOL     OW54927   6.228   6.310  10.325
84363SOL    HW154928   6.319   6.323  10.298
84363SOL    HW254929   6.211   6.218  10.309
84364SOL     OW54930  13.170  13.457  12.411
84364SOL    HW154931  13.119  13.433  12.334
84364SOL    HW254932  13.204  13.373  12.444
84365SOL     OW54933  10.285   9.155   8.820
84365SOL    HW154934  10.347   9.178   8.890
84365SOL    HW254935  10.207   9.124   8.866
84366SOL     OW54936   2.298   0.072   0.257
84366SOL    HW154937   2.358   0.100   0.189
84366SOL    HW254938   2.348   0.007   0.308
84367SOL     OW54939  11.177   2.839  12.608
84367SOL    HW154940  11.208   2.899  12.540
84367SOL    HW254941  11.176   2.893  12.687
84368SOL     OW54942  10.680   6.064  14.032
84368SOL    HW154943  10.613   5.996  14.037
84368SOL    HW254944  10.677   6.094  13.941
84369SOL     OW54945  14.468   1.667  13.798
84369SOL    HW154946  14.465   1.671  13.894
84369SOL    HW254947  14.560   1.649  13.778
84370SOL     OW54948  13.828   5.102  12.187
84370SOL    HW154949  13.768   5.159  12.139
84370SOL    HW254950  13.782   5.081  12.268
84371SOL     OW54951   8.114   1.952   9.757
84371SOL    HW154952   8.128   1.927   9.849
84371SOL    HW254953   8.114   2.047   9.759
84372SOL     OW54954  10.214   6.911   5.930
84372SOL    HW154955  10.283   6.978   5.923
84372SOL    HW254956  10.178   6.924   6.018
84373SOL     OW54957   1.373  12.997   3.393
84373SOL    HW154958   1.406  12.954   3.315
84373SOL    HW254959   1.426  13.076   3.402
84374SOL     OW54960   2.587   9.375   3.126
84374SOL    HW154961   2.681   9.386   3.116
84374SOL    HW254962   2.569   9.288   3.090
84375SOL     OW54963   0.452  13.461   2.567
84375SOL    HW154964   0.422  13.546   2.598
84375SOL    HW254965   0.421  13.456   2.476
84376SOL     OW54966   2.681   7.258   0.874
84376SOL    HW154967   2.588   7.247   0.896
84376SOL    HW254968   2.727   7.243   0.957
84377SOL     OW54969   0.450   2.136  11.860
84377SOL    HW154970   0.368   2.092  11.840
84377SOL    HW254971   0.507   2.067  11.893
84378SOL     OW54972   3.557  14.499   0.280
84378SOL    HW154973   3.614  14.487   0.204
84378SOL    HW254974   3.472  14.465   0.252
84379SOL     OW54975   6.728   6.642   9.515
84379SOL    HW154976   6.816   6.673   9.491
84379SOL    HW254977   6.703   6.697   9.590
84380SOL     OW54978  13.377  14.099   3.695
84380SOL    HW154979  13.387  14.017   3.647
84380SOL    HW254980  13.328  14.156   3.636
84381SOL     OW54981   2.855  12.024  13.038
84381SOL    HW154982   2.861  12.030  13.133
84381SOL    HW254983   2.944  12.004  13.009
84382SOL     OW54984  11.842   2.472  11.775
84382SOL    HW154985  11.829   2.377  11.768
84382SOL    HW254986  11.912   2.482  11.839
84383SOL     OW54987  14.711  10.787   7.379
84383SOL    HW154988  14.709  10.692   7.371
84383SOL    HW254989  14.793  10.813   7.337
84384SOL     OW54990  13.726  13.943   1.041
84384SOL    HW154991  13.682  14.014   1.088
84384SOL    HW254992  13.696  13.952   0.951
84385SOL     OW54993   0.483   3.966   4.718
84385SOL    HW154994   0.408   4.022   4.699
84385SOL    HW254995   0.470   3.888   4.664
84386SOL     OW54996  12.955   6.879  12.744
84386SOL    HW154997  12.972   6.812  12.810
84386SOL    HW254998  12.872   6.852  12.704
84387SOL     OW54999  12.192   9.823  13.435
84387SOL    HW155000  12.221   9.762  13.367
84387SOL    HW255001  12.220   9.783  13.517
84388SOL     OW55002  14.666   8.123   8.925
84388SOL    HW155003  14.669   8.124   8.830
84388SOL    HW255004  14.609   8.049   8.946
84389SOL     OW55005  11.727   3.299   1.558
84389SOL    HW155006  11.768   3.345   1.632
84389SOL    HW255007  11.798   3.289   1.494
84390SOL     OW55008  10.082   2.842   8.820
84390SOL    HW155009  10.120   2.888   8.745
84390SOL    HW255010  10.048   2.912   8.876
84391SOL     OW55011   0.118   6.080   8.275
84391SOL    HW155012   0.175   6.056   8.348
84391SOL    HW255013   0.162   6.047   8.197
84392SOL     OW55014   3.993  11.632  12.845
84392SOL    HW155015   3.927  11.577  12.887
84392SOL    HW255016   4.006  11.705  12.907
84393SOL     OW55017  14.172  12.370  10.108
84393SOL    HW155018  14.264  12.382  10.132
84393SOL    HW255019  14.134  12.458  10.117
84394SOL     OW55020   4.614   6.300  10.217
84394SOL    HW155021   4.668   6.297  10.138
84394SOL    HW255022   4.652   6.372  10.268
84395SOL     OW55023  10.227  11.161   2.449
84395SOL    HW155024  10.223  11.224   2.521
84395SOL    HW255025  10.169  11.090   2.476
84396SOL     OW55026   2.169  14.272   8.747
84396SOL    HW155027   2.248  14.315   8.715
84396SOL    HW255028   2.189  14.178   8.743
84397SOL     OW55029  14.160   9.761   0.227
84397SOL    HW155030  14.242   9.736   0.184
84397SOL    HW255031  14.138   9.685   0.281
84398SOL     OW55032  12.957  10.046   0.979
84398SOL    HW155033  12.986  10.018   1.065
84398SOL    HW255034  13.013   9.998   0.918
84399SOL     OW55035   9.348   8.117   2.032
84399SOL    HW155036   9.400   8.193   2.007
84399SOL    HW255037   9.284   8.108   1.961
84400SOL     OW55038   8.068   4.332   1.436
84400SOL    HW155039   8.030   4.409   1.478
84400SOL    HW255040   8.158   4.358   1.416
84401SOL     OW55041   7.717   1.025   0.631
84401SOL    HW155042   7.665   1.050   0.707
84401SOL    HW255043   7.798   0.991   0.667
84402SOL     OW55044  13.475   1.165   0.073
84402SOL    HW155045  13.551   1.214   0.039
84402SOL    HW255046  13.477   1.180   0.167
84403SOL     OW55047   0.207  14.322   5.668
84403SOL    HW155048   0.254  14.252   5.622
84403SOL    HW255049   0.201  14.291   5.759
84404SOL     OW55050   8.624   8.672   3.295
84404SOL    HW155051   8.700   8.647   3.348
84404SOL    HW255052   8.662   8.713   3.218
84405SOL     OW55053   7.333  11.597  14.331
84405SOL    HW155054   7.318  11.688  14.355
84405SOL    HW255055   7.254  11.572  14.282
84406SOL     OW55056  14.709   8.593  13.067
84406SOL    HW155057  14.743   8.650  12.997
84406SOL    HW255058  14.731   8.639  13.148
84407SOL     OW55059   7.943   6.321   1.231
84407SOL    HW155060   8.017   6.366   1.191
84407SOL    HW255061   7.866   6.367   1.198
84408SOL     OW55062   5.894   8.573   5.291
84408SOL    HW155063   5.822   8.559   5.353
84408SOL    HW255064   5.861   8.538   5.208
84409SOL     OW55065   1.364   8.066   4.767
84409SOL    HW155066   1.325   8.148   4.735
84409SOL    HW255067   1.356   8.005   4.693
84410SOL     OW55068  11.468   9.156   0.203
84410SOL    HW155069  11.423   9.211   0.139
84410SOL    HW255070  11.426   9.070   0.196
84411SOL     OW55071  11.769   3.675   2.493
84411SOL    HW155072  11.777   3.583   2.467
84411SOL    HW255073  11.840   3.720   2.447
84412SOL     OW55074   4.127   0.350  10.471
84412SOL    HW155075   4.068   0.361  10.396
84412SOL    HW255076   4.197   0.294  10.438
84413SOL     OW55077  14.239   8.054  14.307
84413SOL    HW155078  14.312   7.998  14.282
84413SOL    HW255079  14.169   8.032  14.246
84414SOL     OW55080   0.766   0.272  12.388
84414SOL    HW155081   0.766   0.225  12.305
84414SOL    HW255082   0.809   0.355  12.369
84415SOL     OW55083   8.108   2.766   3.871
84415SOL    HW155084   8.033   2.748   3.926
84415SOL    HW255085   8.125   2.684   3.825
84416SOL     OW55086  13.655   4.583   9.338
84416SOL    HW155087  13.705   4.529   9.277
84416SOL    HW255088  13.662   4.672   9.303
84417SOL     OW55089   2.063  10.182   3.872
84417SOL    HW155090   2.081  10.109   3.812
84417SOL    HW255091   1.982  10.220   3.840
84418SOL     OW55092   9.588  13.164  14.341
84418SOL    HW155093   9.518  13.150  14.277
84418SOL    HW255094   9.668  13.166  14.288
84419SOL     OW55095   4.382  14.853   4.449
84419SOL    HW155096   4.392   0.070   4.476
84419SOL    HW255097   4.294  14.848   4.412
84420SOL     OW55098   3.550   9.361   6.790
84420SOL    HW155099   3.557   9.452   6.819
84420SOL    HW255100   3.523   9.366   6.699
84421SOL     OW55101   4.169   7.583   6.949
84421SOL    HW155102   4.260   7.612   6.958
84421SOL    HW255103   4.152   7.532   7.029
84422SOL     OW55104   5.203  13.431   9.408
84422SOL    HW155105   5.257  13.446   9.486
84422SOL    HW255106   5.217  13.509   9.355
84423SOL     OW55107  12.310   4.616   3.725
84423SOL    HW155108  12.224   4.647   3.697
84423SOL    HW255109  12.321   4.532   3.681
84424SOL     OW55110  10.257  11.888   5.296
84424SOL    HW155111  10.318  11.819   5.272
84424SOL    HW255112  10.225  11.923   5.213
84425SOL     OW55113  12.016  14.499   2.863
84425SOL    HW155114  12.077  14.543   2.804
84425SOL    HW255115  11.933  14.546   2.853
84426SOL     OW55116   0.418  11.232   0.907
84426SOL    HW155117   0.367  11.291   0.852
84426SOL    HW255118   0.457  11.170   0.846
84427SOL     OW55119  10.074   9.946   7.868
84427SOL    HW155120  10.028   9.940   7.785
84427SOL    HW255121  10.008   9.925   7.934
84428SOL     OW55122   7.755   8.705   2.891
84428SOL    HW155123   7.706   8.637   2.846
84428SOL    HW255124   7.830   8.722   2.834
84429SOL     OW55125  10.546  11.127  14.482
84429SOL    HW155126  10.583  11.107  14.396
84429SOL    HW255127  10.579  11.057  14.539
84430SOL     OW55128   9.954   4.725  11.992
84430SOL    HW155129  10.031   4.721  12.048
84430SOL    HW255130   9.984   4.766  11.911
84431SOL     OW55131   4.459   9.915   5.812
84431SOL    HW155132   4.474   9.882   5.900
84431SOL    HW255133   4.436  10.007   5.823
84432SOL     OW55134   7.850   0.345   8.024
84432SOL    HW155135   7.755   0.350   8.037
84432SOL    HW255136   7.886   0.408   8.086
84433SOL     OW55137   7.319   5.037  12.797
84433SOL    HW155138   7.289   5.038  12.706
84433SOL    HW255139   7.402   5.085  12.795
84434SOL     OW55140   8.293  12.135   3.236
84434SOL    HW155141   8.380  12.152   3.198
84434SOL    HW255142   8.308  12.066   3.300
84435SOL     OW55143  10.975   0.996   0.509
84435SOL    HW155144  10.945   1.071   0.457
84435SOL    HW255145  11.042   1.033   0.567
84436SOL     OW55146   8.631  10.114  12.683
84436SOL    HW155147   8.550  10.150  12.719
84436SOL    HW255148   8.639  10.155  12.596
84437SOL     OW55149   3.224   7.145  14.297
84437SOL    HW155150   3.275   7.126  14.218
84437SOL    HW255151   3.225   7.241  14.303
84438SOL     OW55152   5.987   5.975  13.482
84438SOL    HW155153   6.064   6.018  13.446
84438SOL    HW255154   5.931   5.959  13.407
84439SOL     OW55155   0.997   2.102  12.094
84439SOL    HW155156   1.068   2.045  12.123
84439SOL    HW255157   0.983   2.078  12.002
84440SOL     OW55158   5.457  10.253  12.417
84440SOL    HW155159   5.370  10.293  12.415
84440SOL    HW255160   5.506  10.305  12.480
84441SOL     OW55161   8.760   0.346   5.178
84441SOL    HW155162   8.854   0.332   5.163
84441SOL    HW255163   8.755   0.373   5.270
84442SOL     OW55164   4.265  11.093   0.561
84442SOL    HW155165   4.206  11.030   0.601
84442SOL    HW255166   4.276  11.161   0.628
84443SOL     OW55167   4.576   8.057   2.169
84443SOL    HW155168   4.562   7.962   2.176
84443SOL    HW255169   4.638   8.077   2.240
84444SOL     OW55170   3.762   6.057  13.321
84444SOL    HW155171   3.789   6.117  13.391
84444SOL    HW255172   3.700   6.107  13.269
84445SOL     OW55173  13.994  12.808   5.166
84445SOL    HW155174  14.056  12.827   5.096
84445SOL    HW255175  13.923  12.760   5.122
84446SOL     OW55176   8.351   1.316  10.341
84446SOL    HW155177   8.318   1.353  10.423
84446SOL    HW255178   8.438   1.356  10.330
84447SOL     OW55179   7.262   7.905  12.384
84447SOL    HW155180   7.267   7.847  12.459
84447SOL    HW255181   7.183   7.878  12.337
84448SOL     OW55182   8.537  11.278  13.401
84448SOL    HW155183   8.488  11.343  13.451
84448SOL    HW255184   8.555  11.321  13.317
84449SOL     OW55185   2.813   6.352  14.018
84449SOL    HW155186   2.868   6.425  13.990
84449SOL    HW255187   2.738   6.393  14.061
84450SOL     OW55188   9.735  12.231   9.124
84450SOL    HW155189   9.730  12.318   9.084
84450SOL    HW255190   9.820  12.197   9.095
84451SOL     OW55191   8.119  12.978  14.873
84451SOL    HW155192   8.071  12.918  14.817
84451SOL    HW255193   8.051  13.024   0.049
84452SOL     OW55194  12.406   4.378  12.383
84452SOL    HW155195  12.419   4.323  12.460
84452SOL    HW255196  12.374   4.461  12.418
84453SOL     OW55197  12.862   0.039  10.006
84453SOL    HW155198  12.801  14.838  10.008
84453SOL    HW255199  12.805   0.116  10.008
84454SOL     OW55200   1.954   5.617  13.794
84454SOL    HW155201   1.873   5.665  13.810
84454SOL    HW255202   1.980   5.585  13.880
84455SOL     OW55203   9.975  14.828   7.208
84455SOL    HW155204   9.956  14.735   7.223
84455SOL    HW255205   9.890  14.871   7.218
84456SOL     OW55206   3.321   4.246   6.369
84456SOL    HW155207   3.287   4.269   6.456
84456SOL    HW255208   3.288   4.157   6.353
84457SOL     OW55209   4.352   3.582  11.287
84457SOL    HW155210   4.317   3.510  11.234
84457SOL    HW255211   4.350   3.549  11.377
84458SOL     OW55212   7.003   4.511   4.409
84458SOL    HW155213   6.950   4.433   4.426
84458SOL    HW255214   7.037   4.498   4.320
84459SOL     OW55215   6.177  11.094   4.188
84459SOL    HW155216   6.120  11.082   4.263
84459SOL    HW255217   6.245  11.155   4.218
84460SOL     OW55218  14.024   5.012   1.889
84460SOL    HW155219  14.037   4.923   1.924
84460SOL    HW255220  13.936   5.011   1.852
84461SOL     OW55221   4.367   7.325   5.574
84461SOL    HW155222   4.310   7.270   5.628
84461SOL    HW255223   4.343   7.303   5.484
84462SOL     OW55224  13.323   6.077   0.345
84462SOL    HW155225  13.283   6.057   0.261
84462SOL    HW255226  13.330   6.172   0.347
84463SOL     OW55227   1.501  12.187   0.470
84463SOL    HW155228   1.523  12.156   0.558
84463SOL    HW255229   1.465  12.109   0.426
84464SOL     OW55230   9.901  13.516  12.582
84464SOL    HW155231   9.824  13.471  12.614
84464SOL    HW255232   9.868  13.602  12.553
84465SOL     OW55233   3.977   8.144  10.233
84465SOL    HW155234   3.906   8.146  10.297
84465SOL    HW255235   3.937   8.176  10.152
84466SOL     OW55236   1.626  13.117   3.703
84466SOL    HW155237   1.565  13.081   3.767
84466SOL    HW255238   1.570  13.152   3.633
84467SOL     OW55239  10.540   2.571  12.111
84467SOL    HW155240  10.455   2.543  12.076
84467SOL    HW255241  10.520   2.598  12.201
84468SOL     OW55242  13.667   1.449   1.780
84468SOL    HW155243  13.610   1.497   1.721
84468SOL    HW255244  13.700   1.376   1.728
84469SOL     OW55245   3.137   3.697   2.403
84469SOL    HW155246   3.184   3.779   2.416
84469SOL    HW255247   3.138   3.684   2.308
84470SOL     OW55248   8.409   4.855   4.150
84470SOL    HW155249   8.422   4.768   4.112
84470SOL    HW255250   8.347   4.898   4.091
84471SOL     OW55251   2.470   2.427   6.738
84471SOL    HW155252   2.536   2.476   6.787
84471SOL    HW255253   2.521   2.376   6.675
84472SOL     OW55254   7.881   8.325  12.004
84472SOL    HW155255   7.875   8.285  11.917
84472SOL    HW255256   7.924   8.259  12.057
84473SOL     OW55257  14.410   7.434  14.163
84473SOL    HW155258  14.503   7.451  14.178
84473SOL    HW255259  14.389   7.365  14.226
84474SOL     OW55260  14.609   8.806   1.816
84474SOL    HW155261  14.630   8.812   1.723
84474SOL    HW255262  14.636   8.718   1.841
84475SOL     OW55263   5.628  12.510   9.652
84475SOL    HW155264   5.632  12.423   9.691
84475SOL    HW255265   5.719  12.540   9.651
84476SOL     OW55266   0.555  14.723   8.429
84476SOL    HW155267   0.546  14.762   8.516
84476SOL    HW255268   0.624  14.658   8.439
84477SOL     OW55269   4.189  11.465   1.462
84477SOL    HW155270   4.103  11.484   1.501
84477SOL    HW255271   4.184  11.504   1.375
84478SOL     OW55272   6.701   9.939   3.323
84478SOL    HW155273   6.677   9.959   3.232
84478SOL    HW255274   6.792   9.909   3.318
84479SOL     OW55275   6.117   6.239   1.643
84479SOL    HW155276   6.177   6.307   1.673
84479SOL    HW255277   6.049   6.235   1.711
84480SOL     OW55278  14.180   0.769  11.662
84480SOL    HW155279  14.112   0.830  11.692
84480SOL    HW255280  14.255   0.825  11.641
84481SOL     OW55281  10.878   7.013   6.128
84481SOL    HW155282  10.881   6.925   6.090
84481SOL    HW255283  10.970   7.041   6.131
84482SOL     OW55284   3.552  12.070   6.907
84482SOL    HW155285   3.647  12.065   6.893
84482SOL    HW255286   3.543  12.122   6.987
84483SOL     OW55287  13.472  12.016  12.139
84483SOL    HW155288  13.568  12.016  12.150
84483SOL    HW255289  13.457  12.061  12.057
84484SOL     OW55290  11.843   1.830   4.728
84484SOL    HW155291  11.775   1.827   4.795
84484SOL    HW255292  11.919   1.788   4.769
84485SOL     OW55293  12.216   5.378  10.000
84485SOL    HW155294  12.151   5.339   9.942
84485SOL    HW255295  12.225   5.314  10.071
84486SOL     OW55296   6.290  14.367   7.092
84486SOL    HW155297   6.312  14.430   7.023
84486SOL    HW255298   6.200  14.390   7.117
84487SOL     OW55299   3.256   3.494   6.001
84487SOL    HW155300   3.178   3.452   5.966
84487SOL    HW255301   3.318   3.492   5.928
84488SOL     OW55302   6.071   8.022  13.846
84488SOL    HW155303   6.004   7.959  13.821
84488SOL    HW255304   6.139   8.013  13.779
84489SOL     OW55305   1.259   8.264   4.305
84489SOL    HW155306   1.247   8.207   4.229
84489SOL    HW255307   1.315   8.213   4.364
84490SOL     OW55308   3.939  11.878   4.346
84490SOL    HW155309   3.920  11.797   4.298
84490SOL    HW255310   3.994  11.929   4.286
84491SOL     OW55311   9.287  10.560   1.310
84491SOL    HW155312   9.294  10.599   1.398
84491SOL    HW255313   9.194  10.568   1.289
84492SOL     OW55314  10.230  12.918  14.510
84492SOL    HW155315  10.136  12.905  14.501
84492SOL    HW255316  10.270  12.844  14.464
84493SOL     OW55317  14.297   5.225  11.973
84493SOL    HW155318  14.286   5.257  12.062
84493SOL    HW255319  14.209   5.228  11.935
84494SOL     OW55320   9.288   5.086   7.606
84494SOL    HW155321   9.351   5.157   7.598
84494SOL    HW255322   9.323   5.029   7.674
84495SOL     OW55323   3.805   6.396  11.069
84495SOL    HW155324   3.767   6.375  11.154
84495SOL    HW255325   3.852   6.478  11.083
84496SOL     OW55326   4.520  13.794  12.336
84496SOL    HW155327   4.509  13.880  12.295
84496SOL    HW255328   4.523  13.733  12.262
84497SOL     OW55329   4.873   3.954   4.526
84497SOL    HW155330   4.821   4.035   4.532
84497SOL    HW255331   4.958   3.983   4.493
84498SOL     OW55332  14.103   1.607   9.760
84498SOL    HW155333  14.089   1.575   9.671
84498SOL    HW255334  14.193   1.580   9.781
84499SOL     OW55335   8.582   5.211   0.867
84499SOL    HW155336   8.612   5.300   0.887
84499SOL    HW255337   8.494   5.206   0.906
84500SOL     OW55338   9.257  11.347   1.192
84500SOL    HW155339   9.233  11.384   1.107
84500SOL    HW255340   9.352  11.361   1.198
84501SOL     OW55341  12.490   5.752   4.971
84501SOL    HW155342  12.524   5.838   4.947
84501SOL    HW255343  12.469   5.710   4.887
84502SOL     OW55344  11.637   1.582   8.071
84502SOL    HW155345  11.561   1.630   8.036
84502SOL    HW255346  11.604   1.541   8.151
84503SOL     OW55347   1.273   8.540  10.516
84503SOL    HW155348   1.270   8.595  10.595
84503SOL    HW255349   1.329   8.588  10.455
84504SOL     OW55350   3.243   9.515   9.502
84504SOL    HW155351   3.151   9.505   9.527
84504SOL    HW255352   3.240   9.573   9.425
84505SOL     OW55353  14.226  11.557  10.082
84505SOL    HW155354  14.138  11.520  10.073
84505SOL    HW255355  14.278  11.485  10.118
84506SOL     OW55356   5.970   5.104   6.686
84506SOL    HW155357   5.980   5.118   6.780
84506SOL    HW255358   6.043   5.151   6.646
84507SOL     OW55359   8.666   5.109  14.040
84507SOL    HW155360   8.705   5.139  14.122
84507SOL    HW255361   8.686   5.016  14.037
84508SOL     OW55362   4.128   4.517  12.209
84508SOL    HW155363   4.193   4.582  12.184
84508SOL    HW255364   4.133   4.450  12.140
84509SOL     OW55365  13.282   9.108   3.850
84509SOL    HW155366  13.216   9.041   3.869
84509SOL    HW255367  13.231   9.183   3.817
84510SOL     OW55368   0.096  14.191  12.563
84510SOL    HW155369   0.175  14.159  12.606
84510SOL    HW255370   0.128  14.238  12.486
84511SOL     OW55371   3.157   2.729  10.036
84511SOL    HW155372   3.236   2.723   9.983
84511SOL    HW255373   3.142   2.823  10.046
84512SOL     OW55374   9.727   6.324   1.973
84512SOL    HW155375   9.702   6.270   1.899
84512SOL    HW255376   9.659   6.308   2.039
84513SOL     OW55377   9.748   6.460   6.984
84513SOL    HW155378   9.740   6.444   7.078
84513SOL    HW255379   9.675   6.518   6.964
84514SOL     OW55380   8.376   0.308   4.516
84514SOL    HW155381   8.302   0.249   4.528
84514SOL    HW255382   8.433   0.290   4.591
84515SOL     OW55383   2.582   8.776   6.503
84515SOL    HW155384   2.506   8.772   6.444
84515SOL    HW255385   2.637   8.845   6.466
84516SOL     OW55386   8.788  14.865  10.690
84516SOL    HW155387   8.808  14.814  10.611
84516SOL    HW255388   8.726   0.058  10.660
84517SOL     OW55389   1.341  14.542   6.142
84517SOL    HW155390   1.357  14.493   6.223
84517SOL    HW255391   1.389  14.624   6.154
84518SOL     OW55392  13.364   4.637   8.285
84518SOL    HW155393  13.300   4.576   8.323
84518SOL    HW255394  13.364   4.617   8.192
84519SOL     OW55395   5.221  11.770   9.681
84519SOL    HW155396   5.279  11.785   9.607
84519SOL    HW255397   5.145  11.827   9.664
84520SOL     OW55398   1.293   0.007   1.257
84520SOL    HW155399   1.305   0.014   1.162
84520SOL    HW255400   1.274  14.788   1.272
84521SOL     OW55401  10.620   9.806   1.575
84521SOL    HW155402  10.698   9.786   1.522
84521SOL    HW255403  10.560   9.735   1.556
84522SOL     OW55404   8.784  11.595  14.668
84522SOL    HW155405   8.814  11.505  14.679
84522SOL    HW255406   8.862  11.648  14.682
84523SOL     OW55407   5.985   7.885   3.304
84523SOL    HW155408   6.013   7.816   3.363
84523SOL    HW255409   5.982   7.844   3.218
84524SOL     OW55410   1.406   5.861  14.363
84524SOL    HW155411   1.313   5.878  14.377
84524SOL    HW255412   1.435   5.816  14.442
84525SOL     OW55413  12.897   5.598   5.136
84525SOL    HW155414  12.949   5.519   5.152
84525SOL    HW255415  12.875   5.594   5.043
84526SOL     OW55416  13.627   8.514  11.534
84526SOL    HW155417  13.670   8.429  11.540
84526SOL    HW255418  13.652   8.548  11.449
84527SOL     OW55419   1.484  12.681  14.203
84527SOL    HW155420   1.411  12.708  14.148
84527SOL    HW255421   1.445  12.622  14.267
84528SOL     OW55422   0.214  11.883   0.458
84528SOL    HW155423   0.274  11.955   0.441
84528SOL    HW255424   0.143  11.895   0.396
84529SOL     OW55425   0.951   9.236   2.699
84529SOL    HW155426   0.910   9.203   2.779
84529SOL    HW255427   0.884   9.291   2.659
84530SOL     OW55428   1.171   0.079   0.988
84530SOL    HW155429   1.200   0.037   0.907
84530SOL    HW255430   1.077   0.090   0.976
84531SOL     OW55431   1.040  10.966   5.903
84531SOL    HW155432   1.114  11.012   5.864
84531SOL    HW255433   1.078  10.888   5.942
84532SOL     OW55434  13.595  13.760   7.823
84532SOL    HW155435  13.680  13.804   7.820
84532SOL    HW255436  13.548  13.793   7.746
84533SOL     OW55437   8.689   8.328   1.702
84533SOL    HW155438   8.703   8.239   1.734
84533SOL    HW255439   8.761   8.379   1.739
84534SOL     OW55440   8.018   9.937  10.305
84534SOL    HW155441   8.076   9.888  10.363
84534SOL    HW255442   7.959   9.871  10.268
84535SOL     OW55443   4.663  13.509  11.571
84535SOL    HW155444   4.603  13.563  11.622
84535SOL    HW255445   4.631  13.420  11.582
84536SOL     OW55446   0.774  10.075   6.103
84536SOL    HW155447   0.722  10.016   6.158
84536SOL    HW255448   0.789  10.024   6.023
84537SOL     OW55449   1.650  10.267   5.289
84537SOL    HW155450   1.602  10.184   5.281
84537SOL    HW255451   1.728  10.255   5.236
84538SOL     OW55452  10.506   2.728  14.736
84538SOL    HW155453  10.543   2.798  14.790
84538SOL    HW255454  10.495   2.768  14.650
84539SOL     OW55455  12.348  14.251  14.090
84539SOL    HW155456  12.425  14.261  14.145
84539SOL    HW255457  12.364  14.169  14.042
84540SOL     OW55458  10.781   1.441  10.159
84540SOL    HW155459  10.809   1.368  10.213
84540SOL    HW255460  10.848   1.448  10.090
84541SOL     OW55461  10.298   5.412   1.847
84541SOL    HW155462  10.261   5.425   1.760
84541SOL    HW255463  10.288   5.319   1.865
84542SOL     OW55464   1.461   5.103   8.828
84542SOL    HW155465   1.554   5.104   8.851
84542SOL    HW255466   1.461   5.087   8.733
84543SOL     OW55467   7.166   5.146   7.936
84543SOL    HW155468   7.204   5.151   7.848
84543SOL    HW255469   7.072   5.154   7.922
84544SOL     OW55470   0.398   1.741   0.856
84544SOL    HW155471   0.393   1.719   0.949
84544SOL    HW255472   0.491   1.732   0.834
84545SOL     OW55473   7.637   0.950  14.357
84545SOL    HW155474   7.695   0.957  14.282
84545SOL    HW255475   7.672   1.013  14.420
84546SOL     OW55476   8.898  14.237  11.358
84546SOL    HW155477   8.851  14.313  11.324
84546SOL    HW255478   8.837  14.199  11.422
84547SOL     OW55479   4.510   2.505  12.019
84547SOL    HW155480   4.600   2.499  11.987
84547SOL    HW255481   4.487   2.598  12.007
84548SOL     OW55482  13.963   0.297   0.986
84548SOL    HW155483  13.941   0.323   0.896
84548SOL    HW255484  13.913   0.216   1.000
84549SOL     OW55485   6.059  13.413   3.188
84549SOL    HW155486   5.989  13.459   3.143
84549SOL    HW255487   6.082  13.470   3.261
84550SOL     OW55488  11.473  14.594   3.266
84550SOL    HW155489  11.454  14.545   3.346
84550SOL    HW255490  11.568  14.609   3.268
84551SOL     OW55491   4.778   1.158   7.045
84551SOL    HW155492   4.684   1.175   7.056
84551SOL    HW255493   4.783   1.065   7.024
84552SOL     OW55494  10.331  13.577  14.009
84552SOL    HW155495  10.418  13.617  14.012
84552SOL    HW255496  10.326  13.523  14.089
84553SOL     OW55497   4.489   3.064   8.736
84553SOL    HW155498   4.471   2.981   8.691
84553SOL    HW255499   4.498   3.039   8.828
84554SOL     OW55500   9.273   5.792   2.375
84554SOL    HW155501   9.301   5.806   2.285
84554SOL    HW255502   9.182   5.761   2.367
84555SOL     OW55503   3.547  12.742  14.213
84555SOL    HW155504   3.621  12.749  14.153
84555SOL    HW255505   3.510  12.656  14.196
84556SOL     OW55506   3.379   3.796  12.563
84556SOL    HW155507   3.467   3.795  12.602
84556SOL    HW255508   3.320   3.783  12.637
84557SOL     OW55509   8.684  11.563   6.890
84557SOL    HW155510   8.744  11.587   6.960
84557SOL    HW255511   8.632  11.491   6.926
84558SOL     OW55512   8.191  11.402   4.595
84558SOL    HW155513   8.169  11.367   4.681
84558SOL    HW255514   8.158  11.492   4.597
84559SOL     OW55515   3.764  14.498   1.627
84559SOL    HW155516   3.757  14.451   1.710
84559SOL    HW255517   3.857  14.492   1.604
84560SOL     OW55518  10.781  11.626   4.854
84560SOL    HW155519  10.763  11.619   4.948
84560SOL    HW255520  10.696  11.648   4.815
84561SOL     OW55521  13.616   1.606   7.443
84561SOL    HW155522  13.666   1.686   7.459
84561SOL    HW255523  13.549   1.632   7.380
84562SOL     OW55524  11.069  10.668   7.501
84562SOL    HW155525  11.041  10.657   7.410
84562SOL    HW255526  10.987  10.687   7.549
84563SOL     OW55527  13.386  12.442  10.549
84563SOL    HW155528  13.417  12.356  10.521
84563SOL    HW255529  13.317  12.464  10.486
84564SOL     OW55530  10.696   2.322   1.423
84564SOL    HW155531  10.614   2.358   1.457
84564SOL    HW255532  10.670   2.246   1.371
84565SOL     OW55533  12.252  14.135   9.123
84565SOL    HW155534  12.325  14.135   9.061
84565SOL    HW255535  12.292  14.119   9.208
84566SOL     OW55536   4.857   3.002   0.150
84566SOL    HW155537   4.865   2.907   0.141
84566SOL    HW255538   4.941   3.030   0.187
84567SOL     OW55539  11.374  11.068  14.063
84567SOL    HW155540  11.375  11.025  14.149
84567SOL    HW255541  11.463  11.058  14.030
84568SOL     OW55542  13.246  14.188  13.289
84568SOL    HW155543  13.211  14.269  13.253
84568SOL    HW255544  13.336  14.209  13.315
84569SOL     OW55545   4.299   3.832   5.726
84569SOL    HW155546   4.333   3.913   5.763
84569SOL    HW255547   4.375   3.789   5.686
84570SOL     OW55548  11.036  12.078  12.075
84570SOL    HW155549  11.109  12.019  12.056
84570SOL    HW255550  11.022  12.070  12.170
84571SOL     OW55551   3.351   8.667  11.041
84571SOL    HW155552   3.330   8.720  11.118
84571SOL    HW255553   3.426   8.711  11.001
84572SOL     OW55554   9.610  10.588   8.694
84572SOL    HW155555   9.647  10.603   8.607
84572SOL    HW255556   9.532  10.644   8.696
84573SOL     OW55557   0.115   3.337  11.987
84573SOL    HW155558   0.115   3.241  11.979
84573SOL    HW255559   0.086   3.354  12.077
84574SOL     OW55560   4.590   3.161  12.404
84574SOL    HW155561   4.514   3.216  12.381
84574SOL    HW255562   4.652   3.177  12.333
84575SOL     OW55563  12.810   3.565   2.183
84575SOL    HW155564  12.841   3.655   2.173
84575SOL    HW255565  12.740   3.571   2.249
84576SOL     OW55566  11.802   3.639   8.067
84576SOL    HW155567  11.857   3.672   7.996
84576SOL    HW255568  11.735   3.587   8.023
84577SOL     OW55569   1.693   7.763  12.739
84577SOL    HW155570   1.635   7.732  12.809
84577SOL    HW255571   1.654   7.728  12.659
84578SOL     OW55572  13.409   9.116   5.889
84578SOL    HW155573  13.487   9.065   5.906
84578SOL    HW255574  13.355   9.060   5.833
84579SOL     OW55575   3.714  11.541   6.269
84579SOL    HW155576   3.703  11.599   6.344
84579SOL    HW255577   3.741  11.599   6.198
84580SOL     OW55578   1.667   8.106   5.560
84580SOL    HW155579   1.749   8.072   5.595
84580SOL    HW255580   1.651   8.186   5.610
84581SOL     OW55581   0.511  13.218  13.023
84581SOL    HW155582   0.466  13.157  12.964
84581SOL    HW255583   0.589  13.171  13.050
84582SOL     OW55584  10.458  14.551   5.714
84582SOL    HW155585  10.476  14.514   5.800
84582SOL    HW255586  10.401  14.626   5.731
84583SOL     OW55587  12.939   1.947   0.251
84583SOL    HW155588  12.894   1.928   0.332
84583SOL    HW255589  12.994   2.023   0.272
84584SOL     OW55590  10.401  13.720   8.962
84584SOL    HW155591  10.435  13.762   8.883
84584SOL    HW255592  10.479  13.699   9.013
84585SOL     OW55593   4.322  11.789  10.844
84585SOL    HW155594   4.284  11.842  10.914
84585SOL    HW255595   4.349  11.708  10.888
84586SOL     OW55596   7.202   7.241   9.874
84586SOL    HW155597   7.175   7.247   9.782
84586SOL    HW255598   7.210   7.332   9.903
84587SOL     OW55599  11.488  12.941   1.130
84587SOL    HW155600  11.516  13.029   1.108
84587SOL    HW255601  11.498  12.891   1.048
84588SOL     OW55602   3.196   7.349  10.586
84588SOL    HW155603   3.234   7.262  10.580
84588SOL    HW255604   3.103   7.337  10.565
84589SOL     OW55605   2.845   8.970   0.440
84589SOL    HW155606   2.759   8.977   0.481
84589SOL    HW255607   2.906   8.965   0.514
84590SOL     OW55608   5.046   3.976   3.895
84590SOL    HW155609   5.017   4.043   3.833
84590SOL    HW255610   4.973   3.966   3.956
84591SOL     OW55611   9.985   1.270   0.897
84591SOL    HW155612  10.041   1.220   0.838
84591SOL    HW255613   9.992   1.360   0.866
84592SOL     OW55614   3.595  13.248   2.396
84592SOL    HW155615   3.627  13.241   2.485
84592SOL    HW255616   3.610  13.161   2.358
84593SOL     OW55617   6.990   0.624  13.524
84593SOL    HW155618   7.009   0.718  13.515
84593SOL    HW255619   6.952   0.600  13.439
84594SOL     OW55620   8.856   9.638   0.269
84594SOL    HW155621   8.782   9.665   0.325
84594SOL    HW255622   8.902   9.572   0.321
84595SOL     OW55623  12.932  10.887   9.955
84595SOL    HW155624  12.944  10.818  10.020
84595SOL    HW255625  12.842  10.877   9.926
84596SOL     OW55626   2.153  14.691  10.965
84596SOL    HW155627   2.071  14.685  11.014
84596SOL    HW255628   2.201  14.764  11.005
84597SOL     OW55629   2.990   6.691   5.692
84597SOL    HW155630   2.981   6.749   5.768
84597SOL    HW255631   2.968   6.604   5.725
84598SOL     OW55632   0.992  13.516   7.171
84598SOL    HW155633   0.969  13.551   7.258
84598SOL    HW255634   0.909  13.515   7.123
84599SOL     OW55635  12.869   4.556   0.111
84599SOL    HW155636  12.879   4.509   0.193
84599SOL    HW255637  12.882   4.648   0.134
84600SOL     OW55638  13.073   8.878   4.375
84600SOL    HW155639  13.100   8.805   4.430
84600SOL    HW255640  13.027   8.938   4.434
84601SOL     OW55641   7.377   3.265   7.445
84601SOL    HW155642   7.406   3.336   7.502
84601SOL    HW255643   7.372   3.305   7.358
84602SOL     OW55644   4.841   0.473   4.952
84602SOL    HW155645   4.875   0.506   5.035
84602SOL    HW255646   4.746   0.470   4.965
84603SOL     OW55647  10.342  11.084   6.405
84603SOL    HW155648  10.432  11.058   6.426
84603SOL    HW255649  10.343  11.099   6.310
84604SOL     OW55650  14.273  10.993   6.920
84604SOL    HW155651  14.334  10.925   6.891
84604SOL    HW255652  14.200  10.987   6.860
84605SOL     OW55653   9.167  10.280   4.843
84605SOL    HW155654   9.126  10.353   4.797
84605SOL    HW255655   9.095  10.238   4.890
84606SOL     OW55656   9.870   4.535   6.899
84606SOL    HW155657   9.929   4.471   6.938
84606SOL    HW255658   9.832   4.581   6.974
84607SOL     OW55659   7.302  10.212   0.963
84607SOL    HW155660   7.220  10.180   1.000
84607SOL    HW255661   7.319  10.154   0.889
84608SOL     OW55662   0.575   7.317   5.283
84608SOL    HW155663   0.606   7.227   5.280
84608SOL    HW255664   0.490   7.315   5.239
84609SOL     OW55665   7.708   0.532   3.319
84609SOL    HW155666   7.680   0.624   3.323
84609SOL    HW255667   7.725   0.509   3.411
84610SOL     OW55668  14.364   5.211  10.450
84610SOL    HW155669  14.303   5.232  10.379
84610SOL    HW255670  14.428   5.282  10.449
84611SOL     OW55671  10.497   5.199  10.878
84611SOL    HW155672  10.537   5.116  10.902
84611SOL    HW255673  10.543   5.264  10.933
84612SOL     OW55674   4.740   8.561   0.362
84612SOL    HW155675   4.675   8.626   0.337
84612SOL    HW255676   4.689   8.483   0.385
84613SOL     OW55677   2.352  11.862  14.468
84613SOL    HW155678   2.383  11.952  14.452
84613SOL    HW255679   2.308  11.838  14.387
84614SOL     OW55680  13.951   4.886   3.407
84614SOL    HW155681  13.962   4.827   3.332
84614SOL    HW255682  14.038   4.889   3.448
84615SOL     OW55683   4.044  13.756  12.673
84615SOL    HW155684   4.078  13.753  12.584
84615SOL    HW255685   3.952  13.782  12.663
84616SOL     OW55686   2.056   6.874  10.620
84616SOL    HW155687   2.031   6.966  10.612
84616SOL    HW255688   2.128   6.874  10.684
84617SOL     OW55689   5.789  14.519   2.248
84617SOL    HW155690   5.714  14.478   2.205
84617SOL    HW255691   5.865  14.484   2.200
84618SOL     OW55692   6.802   3.320   7.760
84618SOL    HW155693   6.722   3.341   7.807
84618SOL    HW255694   6.797   3.371   7.679
84619SOL     OW55695   9.088   0.313   3.433
84619SOL    HW155696   9.080   0.273   3.520
84619SOL    HW255697   9.123   0.244   3.378
84620SOL     OW55698   1.826  12.575  10.192
84620SOL    HW155699   1.848  12.629  10.268
84620SOL    HW255700   1.756  12.518  10.223
84621SOL     OW55701  13.251   8.545   4.696
84621SOL    HW155702  13.209   8.625   4.728
84621SOL    HW255703  13.244   8.483   4.768
84622SOL     OW55704   1.584   0.506  12.171
84622SOL    HW155705   1.674   0.487  12.197
84622SOL    HW255706   1.548   0.421  12.145
84623SOL     OW55707   9.288   9.317   1.437
84623SOL    HW155708   9.359   9.368   1.398
84623SOL    HW255709   9.222   9.312   1.367
84624SOL     OW55710   1.080   7.417   3.132
84624SOL    HW155711   1.147   7.370   3.082
84624SOL    HW255712   1.115   7.423   3.221
84625SOL     OW55713   5.033   3.724  12.710
84625SOL    HW155714   5.035   3.646  12.766
84625SOL    HW255715   5.123   3.755  12.709
84626SOL     OW55716   7.899   2.923   6.394
84626SOL    HW155717   7.910   2.919   6.299
84626SOL    HW255718   7.836   2.993   6.407
84627SOL     OW55719  13.932  12.115   0.439
84627SOL    HW155720  13.955  12.150   0.353
84627SOL    HW255721  13.970  12.177   0.502
84628SOL     OW55722  10.642   2.829   1.471
84628SOL    HW155723  10.672   2.846   1.560
84628SOL    HW255724  10.565   2.885   1.461
84629SOL     OW55725   8.705  10.776   6.716
84629SOL    HW155726   8.723  10.696   6.668
84629SOL    HW255727   8.740  10.846   6.662
84630SOL     OW55728   0.160   4.154   7.703
84630SOL    HW155729   0.197   4.209   7.773
84630SOL    HW255730   0.065   4.168   7.709
84631SOL     OW55731  14.712  12.049  11.219
84631SOL    HW155732  14.772  12.055  11.145
84631SOL    HW255733  14.648  11.983  11.193
84632SOL     OW55734  10.686   8.755   4.538
84632SOL    HW155735  10.638   8.767   4.619
84632SOL    HW255736  10.748   8.683   4.557
84633SOL     OW55737  11.145   7.529  10.008
84633SOL    HW155738  11.172   7.618  10.029
84633SOL    HW255739  11.104   7.536   9.922
84634SOL     OW55740   7.244   2.709   6.888
84634SOL    HW155741   7.263   2.650   6.961
84634SOL    HW255742   7.176   2.767   6.921
84635SOL     OW55743  12.672   8.310   7.772
84635SOL    HW155744  12.757   8.296   7.813
84635SOL    HW255745  12.685   8.286   7.681
84636SOL     OW55746   2.147   2.991   3.244
84636SOL    HW155747   2.055   3.005   3.223
84636SOL    HW255748   2.161   2.897   3.233
84637SOL     OW55749   7.121   5.944  13.796
84637SOL    HW155750   7.133   5.951  13.701
84637SOL    HW255751   7.026   5.942  13.809
84638SOL     OW55752   2.829   4.211   0.562
84638SOL    HW155753   2.864   4.208   0.651
84638SOL    HW255754   2.907   4.220   0.506
84639SOL     OW55755   1.904  13.423   8.061
84639SOL    HW155756   1.843  13.401   7.990
84639SOL    HW255757   1.856  13.403   8.141
84640SOL     OW55758   0.748   3.509  11.152
84640SOL    HW155759   0.740   3.533  11.059
84640SOL    HW255760   0.842   3.509  11.168
84641SOL     OW55761  11.434   8.494  12.442
84641SOL    HW155762  11.468   8.407  12.465
84641SOL    HW255763  11.477   8.515  12.360
84642SOL     OW55764   4.267  10.819   9.128
84642SOL    HW155765   4.306  10.816   9.041
84642SOL    HW255766   4.202  10.890   9.122
84643SOL     OW55767   3.579   5.318   5.712
84643SOL    HW155768   3.610   5.296   5.800
84643SOL    HW255769   3.488   5.345   5.725
84644SOL     OW55770   9.488   3.527   6.192
84644SOL    HW155771   9.464   3.598   6.132
84644SOL    HW255772   9.414   3.466   6.186
84645SOL     OW55773  10.028   6.383   0.958
84645SOL    HW155774   9.934   6.368   0.967
84645SOL    HW255775  10.044   6.467   1.002
84646SOL     OW55776  13.232   8.548   2.905
84646SOL    HW155777  13.297   8.478   2.909
84646SOL    HW255778  13.280   8.623   2.869
84647SOL     OW55779   2.903   8.724   3.567
84647SOL    HW155780   2.885   8.808   3.611
84647SOL    HW255781   2.993   8.703   3.591
84648SOL     OW55782   5.307   3.027   8.723
84648SOL    HW155783   5.353   3.076   8.655
84648SOL    HW255784   5.376   2.981   8.771
84649SOL     OW55785  12.202  11.158  14.486
84649SOL    HW155786  12.168  11.145  14.575
84649SOL    HW255787  12.175  11.079  14.439
84650SOL     OW55788   9.639   1.197   2.707
84650SOL    HW155789   9.679   1.280   2.731
84650SOL    HW255790   9.703   1.154   2.651
84651SOL     OW55791   8.430   3.651  13.483
84651SOL    HW155792   8.386   3.578  13.440
84651SOL    HW255793   8.381   3.728  13.454
84652SOL     OW55794   5.680  13.807   8.410
84652SOL    HW155795   5.599  13.767   8.379
84652SOL    HW255796   5.737  13.733   8.431
84653SOL     OW55797   9.656   2.072   5.301
84653SOL    HW155798   9.576   2.056   5.252
84653SOL    HW255799   9.681   2.162   5.277
84654SOL     OW55800   1.994   1.613   8.823
84654SOL    HW155801   1.927   1.660   8.773
84654SOL    HW255802   2.072   1.668   8.816
84655SOL     OW55803  12.894  12.008   1.380
84655SOL    HW155804  12.811  12.056   1.376
84655SOL    HW255805  12.870  11.916   1.375
84656SOL     OW55806   0.032   0.439   9.365
84656SOL    HW155807  14.825   0.405   9.327
84656SOL    HW255808   0.100   0.410   9.305
84657SOL     OW55809   7.497   2.544  11.533
84657SOL    HW155810   7.580   2.567  11.575
84657SOL    HW255811   7.495   2.448  11.536
84658SOL     OW55812   2.947   0.430   5.963
84658SOL    HW155813   3.027   0.393   5.998
84658SOL    HW255814   2.976   0.499   5.902
84659SOL     OW55815   7.645  14.038   5.461
84659SOL    HW155816   7.675  13.999   5.379
84659SOL    HW255817   7.561  13.995   5.479
84660SOL     OW55818   1.556  11.367   8.934
84660SOL    HW155819   1.572  11.461   8.926
84660SOL    HW255820   1.484  11.361   8.997
84661SOL     OW55821  13.980   1.927   4.218
84661SOL    HW155822  13.931   2.005   4.193
84661SOL    HW255823  13.918   1.875   4.269
84662SOL     OW55824  13.847  12.841   6.348
84662SOL    HW155825  13.766  12.816   6.391
84662SOL    HW255826  13.913  12.843   6.418
84663SOL     OW55827   8.775   5.177   3.267
84663SOL    HW155828   8.808   5.183   3.178
84663SOL    HW255829   8.851   5.154   3.320
84664SOL     OW55830   3.124  12.200  10.748
84664SOL    HW155831   3.153  12.142  10.677
84664SOL    HW255832   3.121  12.287  10.707
84665SOL     OW55833  13.389  10.427   8.855
84665SOL    HW155834  13.461  10.384   8.810
84665SOL    HW255835  13.341  10.356   8.896
84666SOL     OW55836   2.007   0.122   1.454
84666SOL    HW155837   1.946   0.089   1.389
84666SOL    HW255838   1.987   0.216   1.460
84667SOL     OW55839  13.412   6.477  14.216
84667SOL    HW155840  13.372   6.390  14.222
84667SOL    HW255841  13.344   6.532  14.177
84668SOL     OW55842   9.997   4.427   9.369
84668SOL    HW155843   9.958   4.501   9.323
84668SOL    HW255844   9.926   4.362   9.374
84669SOL     OW55845   6.969  10.680   7.519
84669SOL    HW155846   7.005  10.690   7.607
84669SOL    HW255847   7.045  10.666   7.463
84670SOL     OW55848   4.758   2.618   2.543
84670SOL    HW155849   4.775   2.532   2.503
84670SOL    HW255850   4.843   2.647   2.576
84671SOL     OW55851  11.664   4.136   4.327
84671SOL    HW155852  11.579   4.179   4.318
84671SOL    HW255853  11.684   4.141   4.420
84672SOL     OW55854  11.587   0.387  14.552
84672SOL    HW155855  11.517   0.378  14.488
84672SOL    HW255856  11.575   0.475  14.589
84673SOL     OW55857  11.778   7.301   0.926
84673SOL    HW155858  11.844   7.290   0.994
84673SOL    HW255859  11.810   7.375   0.874
84674SOL     OW55860   9.706   7.866   6.429
84674SOL    HW155861   9.796   7.897   6.428
84674SOL    HW255862   9.674   7.882   6.340
84675SOL     OW55863   4.667   3.810  10.540
84675SOL    HW155864   4.585   3.830  10.585
84675SOL    HW255865   4.734   3.855  10.591
84676SOL     OW55866   0.043  14.734   0.197
84676SOL    HW155867   0.036  14.815   0.147
84676SOL    HW255868   0.112  14.685   0.153
84677SOL     OW55869  14.535  12.726   0.289
84677SOL    HW155870  14.462  12.788   0.298
84677SOL    HW255871  14.536  12.678   0.372
84678SOL     OW55872   7.370  11.774   5.624
84678SOL    HW155873   7.382  11.810   5.712
84678SOL    HW255874   7.395  11.682   5.633
84679SOL     OW55875   0.907   5.256   5.047
84679SOL    HW155876   0.904   5.321   5.117
84679SOL    HW255877   0.991   5.271   5.004
84680SOL     OW55878   3.543   0.778  10.993
84680SOL    HW155879   3.572   0.780  11.085
84680SOL    HW255880   3.621   0.800  10.943
84681SOL     OW55881   1.459  13.694   8.912
84681SOL    HW155882   1.470  13.748   8.991
84681SOL    HW255883   1.367  13.707   8.888
84682SOL     OW55884   4.706  12.625   6.555
84682SOL    HW155885   4.690  12.545   6.604
84682SOL    HW255886   4.730  12.690   6.622
84683SOL     OW55887  14.550   0.167   6.869
84683SOL    HW155888  14.466   0.174   6.915
84683SOL    HW255889  14.537   0.096   6.806
84684SOL     OW55890   3.848   1.236  10.383
84684SOL    HW155891   3.818   1.327  10.386
84684SOL    HW255892   3.818   1.204  10.298
84685SOL     OW55893   2.126  12.888   9.095
84685SOL    HW155894   2.212  12.885   9.053
84685SOL    HW255895   2.065  12.905   9.023
84686SOL     OW55896   1.448  13.633  12.058
84686SOL    HW155897   1.430  13.544  12.088
84686SOL    HW255898   1.424  13.689  12.132
84687SOL     OW55899  12.364  14.047  13.462
84687SOL    HW155900  12.343  13.956  13.482
84687SOL    HW255901  12.334  14.060  13.372
84688SOL     OW55902   4.617  14.380  12.630
84688SOL    HW155903   4.688  14.435  12.597
84688SOL    HW255904   4.628  14.381  12.725
84689SOL     OW55905   0.393   5.299   6.481
84689SOL    HW155906   0.481   5.313   6.444
84689SOL    HW255907   0.409   5.263   6.568
84690SOL     OW55908   8.226   2.587  12.922
84690SOL    HW155909   8.205   2.533  12.998
84690SOL    HW255910   8.224   2.525  12.848
84691SOL     OW55911  10.174  13.346   7.321
84691SOL    HW155912  10.104  13.315   7.264
84691SOL    HW255913  10.235  13.273   7.326
84692SOL     OW55914  11.380  10.145   8.110
84692SOL    HW155915  11.307  10.088   8.135
84692SOL    HW255916  11.456  10.106   8.153
84693SOL     OW55917   9.996  14.715   0.726
84693SOL    HW155918   9.978  14.797   0.680
84693SOL    HW255919  10.049  14.741   0.801
84694SOL     OW55920  11.172   8.854   3.921
84694SOL    HW155921  11.140   8.855   3.831
84694SOL    HW255922  11.138   8.772   3.958
84695SOL     OW55923  10.709   8.852   8.033
84695SOL    HW155924  10.783   8.813   7.987
84695SOL    HW255925  10.735   8.943   8.047
84696SOL     OW55926  12.988   7.067   2.036
84696SOL    HW155927  12.938   7.135   2.081
84696SOL    HW255928  12.991   6.995   2.098
84697SOL     OW55929   5.418  11.365   3.386
84697SOL    HW155930   5.324  11.382   3.378
84697SOL    HW255931   5.426  11.310   3.463
84698SOL     OW55932   9.739   3.898  12.399
84698SOL    HW155933   9.704   3.810  12.386
84698SOL    HW255934   9.744   3.935  12.310
84699SOL     OW55935  11.634  13.180  10.735
84699SOL    HW155936  11.616  13.128  10.813
84699SOL    HW255937  11.656  13.267  10.768
84700SOL     OW55938   1.016   6.261   6.850
84700SOL    HW155939   1.098   6.311   6.855
84700SOL    HW255940   0.981   6.265   6.940
84701SOL     OW55941   0.845  14.022   0.192
84701SOL    HW155942   0.911  13.965   0.152
84701SOL    HW255943   0.829  13.984   0.278
84702SOL     OW55944  14.206  14.446   5.114
84702SOL    HW155945  14.228  14.398   5.034
84702SOL    HW255946  14.115  14.422   5.133
84703SOL     OW55947   1.425  14.050   4.528
84703SOL    HW155948   1.452  14.130   4.573
84703SOL    HW255949   1.487  13.984   4.560
84704SOL     OW55950  10.544   2.826  11.559
84704SOL    HW155951  10.498   2.802  11.479
84704SOL    HW255952  10.632   2.850  11.530
84705SOL     OW55953   7.570   0.046  14.710
84705SOL    HW155954   7.577  14.870  14.629
84705SOL    HW255955   7.648   0.021  14.761
84706SOL     OW55956   2.492   9.011  10.497
84706SOL    HW155957   2.449   9.015  10.412
84706SOL    HW255958   2.444   9.073  10.552
84707SOL     OW55959  12.690   9.789   2.552
84707SOL    HW155960  12.684   9.842   2.632
84707SOL    HW255961  12.604   9.749   2.543
84708SOL     OW55962   6.218   3.678   7.334
84708SOL    HW155963   6.204   3.745   7.267
84708SOL    HW255964   6.287   3.622   7.297
84709SOL     OW55965   5.195  10.521   6.409
84709SOL    HW155966   5.245  10.447   6.443
84709SOL    HW255967   5.261  10.579   6.370
84710SOL     OW55968   5.644   6.899   7.321
84710SOL    HW155969   5.681   6.977   7.363
84710SOL    HW255970   5.556   6.892   7.357
84711SOL     OW55971   8.043   5.138  11.612
84711SOL    HW155972   7.994   5.134  11.530
84711SOL    HW255973   7.978   5.162  11.678
84712SOL     OW55974   4.911   6.246  10.387
84712SOL    HW155975   4.906   6.214  10.297
84712SOL    HW255976   4.842   6.312  10.393
84713SOL     OW55977  14.490   5.927   1.280
84713SOL    HW155978  14.502   5.854   1.340
84713SOL    HW255979  14.449   5.995   1.333
84714SOL     OW55980   7.272   3.359   9.989
84714SOL    HW155981   7.181   3.351  10.019
84714SOL    HW255982   7.268   3.335   9.896
84715SOL     OW55983   0.826   3.471  14.791
84715SOL    HW155984   0.762   3.539  14.812
84715SOL    HW255985   0.836   3.422  14.873
84716SOL     OW55986  13.367   7.066  12.129
84716SOL    HW155987  13.327   6.980  12.141
84716SOL    HW255988  13.461   7.049  12.130
84717SOL     OW55989   3.233  10.488  12.050
84717SOL    HW155990   3.319  10.508  12.014
84717SOL    HW255991   3.173  10.543  12.000
84718SOL     OW55992  12.940  10.286   7.131
84718SOL    HW155993  13.000  10.301   7.059
84718SOL    HW255994  12.985  10.224   7.189
84719SOL     OW55995   8.473   8.562   2.122
84719SOL    HW155996   8.483   8.550   2.028
84719SOL    HW255997   8.550   8.519   2.160
84720SOL     OW55998  12.948   9.346  11.443
84720SOL    HW155999  13.028   9.384  11.479
84720SOL    HW256000  12.915   9.290  11.513
84721SOL     OW56001   5.635   9.983  11.107
84721SOL    HW156002   5.622   9.953  11.017
84721SOL    HW256003   5.717   9.943  11.134
84722SOL     OW56004   2.335   3.160   4.173
84722SOL    HW156005   2.424   3.142   4.202
84722SOL    HW256006   2.333   3.130   4.082
84723SOL     OW56007  13.147   9.547   2.258
84723SOL    HW156008  13.075   9.602   2.289
84723SOL    HW256009  13.184   9.508   2.337
84724SOL     OW56010  11.363   3.261  12.494
84724SOL    HW156011  11.454   3.243  12.471
84724SOL    HW256012  11.314   3.184  12.463
84725SOL     OW56013   5.058   5.732   4.862
84725SOL    HW156014   5.140   5.779   4.877
84725SOL    HW256015   5.071   5.647   4.904
84726SOL     OW56016   3.814   5.347  13.136
84726SOL    HW156017   3.865   5.326  13.214
84726SOL    HW256018   3.725   5.316  13.157
84727SOL     OW56019   1.242   4.780   6.876
84727SOL    HW156020   1.256   4.826   6.959
84727SOL    HW256021   1.179   4.711   6.898
84728SOL     OW56022   3.533   6.959   8.543
84728SOL    HW156023   3.553   7.052   8.530
84728SOL    HW256024   3.556   6.943   8.635
84729SOL     OW56025  11.524   9.906  10.236
84729SOL    HW156026  11.434   9.938  10.237
84729SOL    HW256027  11.543   9.887  10.328
84730SOL     OW56028  11.092   4.811   4.637
84730SOL    HW156029  11.089   4.716   4.635
84730SOL    HW256030  11.178   4.832   4.674
84731SOL     OW56031   8.610  12.267   8.205
84731SOL    HW156032   8.679  12.331   8.188
84731SOL    HW256033   8.638  12.221   8.283
84732SOL     OW56034   3.939   5.004  13.521
84732SOL    HW156035   4.019   4.980  13.570
84732SOL    HW256036   3.965   5.079  13.468
84733SOL     OW56037   4.233   0.628  10.651
84733SOL    HW156038   4.178   0.549  10.651
84733SOL    HW256039   4.170   0.700  10.650
84734SOL     OW56040  14.459   5.807   8.009
84734SOL    HW156041  14.429   5.865   7.938
84734SOL    HW256042  14.477   5.867   8.081
84735SOL     OW56043   4.748  12.200   5.918
84735SOL    HW156044   4.735  12.294   5.925
84735SOL    HW256045   4.763  12.171   6.008
84736SOL     OW56046  12.497   9.153  11.318
84736SOL    HW156047  12.423   9.168  11.259
84736SOL    HW256048  12.559   9.103  11.266
84737SOL     OW56049   5.506   1.302   3.234
84737SOL    HW156050   5.434   1.246   3.207
84737SOL    HW256051   5.563   1.307   3.158
84738SOL     OW56052   4.493   2.918   8.281
84738SOL    HW156053   4.401   2.892   8.279
84738SOL    HW256054   4.525   2.901   8.192
84739SOL     OW56055   0.393  14.494  11.898
84739SOL    HW156056   0.384  14.558  11.827
84739SOL    HW256057   0.485  14.497  11.922
84740SOL     OW56058   9.187   8.282  10.604
84740SOL    HW156059   9.170   8.376  10.597
84740SOL    HW256060   9.280   8.277  10.628
84741SOL     OW56061   3.165   4.491   5.694
84741SOL    HW156062   3.128   4.406   5.668
84741SOL    HW256063   3.088   4.547   5.707
84742SOL     OW56064   6.574   7.609   7.159
84742SOL    HW156065   6.574   7.606   7.254
84742SOL    HW256066   6.666   7.611   7.134
84743SOL     OW56067   9.194   7.771   7.991
84743SOL    HW156068   9.101   7.750   7.984
84743SOL    HW256069   9.239   7.694   7.957
84744SOL     OW56070   9.164   0.462   5.478
84744SOL    HW156071   9.252   0.444   5.445
84744SOL    HW256072   9.166   0.554   5.504
84745SOL     OW56073   6.066   0.510   8.711
84745SOL    HW156074   6.110   0.431   8.744
84745SOL    HW256075   6.073   0.573   8.783
84746SOL     OW56076   4.737  12.038   7.649
84746SOL    HW156077   4.696  12.124   7.643
84746SOL    HW256078   4.703  11.990   7.574
84747SOL     OW56079  14.203   6.902   0.332
84747SOL    HW156080  14.285   6.883   0.286
84747SOL    HW256081  14.148   6.944   0.266
84748SOL     OW56082   2.481   1.415   4.502
84748SOL    HW156083   2.571   1.399   4.474
84748SOL    HW256084   2.485   1.415   4.597
84749SOL     OW56085  12.717  12.501   1.056
84749SOL    HW156086  12.703  12.493   1.151
84749SOL    HW256087  12.808  12.531   1.049
84750SOL     OW56088  14.836  14.554  13.324
84750SOL    HW156089   0.032  14.537  13.261
84750SOL    HW256090  14.860  14.502  13.401
84751SOL     OW56091   7.642   4.549   9.004
84751SOL    HW156092   7.736   4.571   9.009
84751SOL    HW256093   7.627   4.531   8.911
84752SOL     OW56094   5.591   6.860   4.598
84752SOL    HW156095   5.671   6.818   4.630
84752SOL    HW256096   5.609   6.954   4.605
84753SOL     OW56097  12.575   2.135   0.512
84753SOL    HW156098  12.545   2.226   0.520
84753SOL    HW256099  12.521   2.087   0.574
84754SOL     OW56100   0.456   4.174  14.094
84754SOL    HW156101   0.545   4.168  14.129
84754SOL    HW256102   0.464   4.233  14.019
84755SOL     OW56103  10.816  11.355   8.144
84755SOL    HW156104  10.782  11.269   8.122
84755SOL    HW256105  10.848  11.346   8.234
84756SOL     OW56106   2.110  11.913   7.033
84756SOL    HW156107   2.087  11.830   7.074
84756SOL    HW256108   2.128  11.890   6.941
84757SOL     OW56109  12.214   0.005   6.406
84757SOL    HW156110  12.260  14.824   6.469
84757SOL    HW256111  12.226   0.094   6.439
84758SOL     OW56112   3.329  12.873  14.052
84758SOL    HW156113   3.404  12.901  14.000
84758SOL    HW256114   3.253  12.897  13.999
84759SOL     OW56115   1.974   4.065   5.284
84759SOL    HW156116   2.062   4.095   5.309
84759SOL    HW256117   1.934   4.142   5.243
84760SOL     OW56118   5.141  13.280   5.474
84760SOL    HW156119   5.070  13.302   5.535
84760SOL    HW256120   5.163  13.189   5.495
84761SOL     OW56121  12.684  11.781  12.354
84761SOL    HW156122  12.610  11.747  12.404
84761SOL    HW256123  12.655  11.775  12.263
84762SOL     OW56124   8.843   6.044  12.662
84762SOL    HW156125   8.899   6.097  12.605
84762SOL    HW256126   8.845   5.957  12.622
84763SOL     OW56127   0.936  13.091  12.678
84763SOL    HW156128   0.914  13.119  12.766
84763SOL    HW256129   0.968  13.001  12.688
84764SOL     OW56130  11.388   4.348   2.207
84764SOL    HW156131  11.452   4.282   2.232
84764SOL    HW256132  11.332   4.304   2.143
84765SOL     OW56133   6.221  11.681  12.148
84765SOL    HW156134   6.263  11.615  12.092
84765SOL    HW256135   6.173  11.629  12.213
84766SOL     OW56136   2.451  10.002  12.183
84766SOL    HW156137   2.532   9.965  12.218
84766SOL    HW256138   2.468  10.096  12.177
84767SOL     OW56139   1.348  13.865   1.569
84767SOL    HW156140   1.352  13.870   1.665
84767SOL    HW256141   1.379  13.950   1.539
84768SOL     OW56142   3.399   4.134   7.056
84768SOL    HW156143   3.479   4.185   7.052
84768SOL    HW256144   3.362   4.140   6.968
84769SOL     OW56145  11.216   3.967   2.813
84769SOL    HW156146  11.125   3.956   2.843
84769SOL    HW256147  11.267   3.975   2.893
84770SOL     OW56148   7.822  13.129   1.970
84770SOL    HW156149   7.801  13.092   2.056
84770SOL    HW256150   7.824  13.053   1.912
84771SOL     OW56151   2.552  12.441  12.080
84771SOL    HW156152   2.566  12.536  12.084
84771SOL    HW256153   2.498  12.421  12.156
84772SOL     OW56154   1.777   3.580   6.874
84772SOL    HW156155   1.683   3.585   6.890
84772SOL    HW256156   1.801   3.669   6.847
84773SOL     OW56157   8.428  14.291  12.214
84773SOL    HW156158   8.448  14.276  12.121
84773SOL    HW256159   8.336  14.320  12.214
84774SOL     OW56160   7.482   6.970   6.834
84774SOL    HW156161   7.467   6.911   6.760
84774SOL    HW256162   7.576   6.961   6.852
84775SOL     OW56163  12.571   2.056  10.030
84775SOL    HW156164  12.515   2.065  10.108
84775SOL    HW256165  12.585   2.145  10.000
84776SOL     OW56166   0.883   5.166  12.589
84776SOL    HW156167   0.813   5.212  12.542
84776SOL    HW256168   0.928   5.234  12.639
84777SOL     OW56169   5.067   6.872   9.837
84777SOL    HW156170   5.116   6.953   9.848
84777SOL    HW256171   5.093   6.839   9.752
84778SOL     OW56172   7.835  10.135   2.777
84778SOL    HW156173   7.887  10.055   2.780
84778SOL    HW256174   7.745  10.106   2.786
84779SOL     OW56175   2.207  13.785   8.699
84779SOL    HW156176   2.192  13.762   8.607
84779SOL    HW256177   2.239  13.704   8.739
84780SOL     OW56178  14.445   1.324  11.776
84780SOL    HW156179  14.443   1.383  11.852
84780SOL    HW256180  14.377   1.357  11.718
84781SOL     OW56181   3.472  14.365   7.983
84781SOL    HW156182   3.514  14.281   7.965
84781SOL    HW256183   3.538  14.414   8.033
84782SOL     OW56184   7.341   8.572   3.339
84782SOL    HW156185   7.382   8.652   3.308
84782SOL    HW256186   7.367   8.505   3.275
84783SOL     OW56187  13.552   1.286   6.312
84783SOL    HW156188  13.507   1.268   6.230
84783SOL    HW256189  13.591   1.373   6.300
84784SOL     OW56190   2.524   9.020   6.206
84784SOL    HW156191   2.456   8.956   6.228
84784SOL    HW256192   2.587   9.013   6.277
84785SOL     OW56193   5.195   8.368   0.223
84785SOL    HW156194   5.244   8.404   0.149
84785SOL    HW256195   5.108   8.406   0.215
84786SOL     OW56196   7.632   0.728   7.160
84786SOL    HW156197   7.709   0.682   7.127
84786SOL    HW256198   7.585   0.756   7.081
84787SOL     OW56199   7.950   3.666   0.893
84787SOL    HW156200   7.965   3.752   0.854
84787SOL    HW256201   8.000   3.606   0.838
84788SOL     OW56202   5.507   8.691   2.317
84788SOL    HW156203   5.525   8.630   2.245
84788SOL    HW256204   5.507   8.777   2.277
84789SOL     OW56205   3.722   4.117   3.044
84789SOL    HW156206   3.632   4.141   3.067
84789SOL    HW256207   3.716   4.082   2.955
84790SOL     OW56208   2.588  13.060   6.606
84790SOL    HW156209   2.513  13.021   6.561
84790SOL    HW256210   2.604  13.002   6.680
84791SOL     OW56211   3.372   5.980   1.805
84791SOL    HW156212   3.344   6.071   1.814
84791SOL    HW256213   3.405   5.974   1.716
84792SOL     OW56214  12.180  11.095  12.462
84792SOL    HW156215  12.178  11.044  12.542
84792SOL    HW256216  12.260  11.148  12.469
84793SOL     OW56217   4.089  14.524   7.928
84793SOL    HW156218   4.166  14.581   7.925
84793SOL    HW256219   4.017  14.579   7.898
84794SOL     OW56220  14.425  12.404   1.053
84794SOL    HW156221  14.393  12.349   1.123
84794SOL    HW256222  14.485  12.349   1.003
84795SOL     OW56223   6.893  12.505   7.771
84795SOL    HW156224   6.824  12.481   7.709
84795SOL    HW256225   6.939  12.423   7.789
84796SOL     OW56226  10.358  11.884   1.254
84796SOL    HW156227  10.271  11.844   1.253
84796SOL    HW256228  10.418  11.810   1.255
84797SOL     OW56229  13.211   6.021  13.466
84797SOL    HW156230  13.269   5.945  13.460
84797SOL    HW256231  13.270   6.096  13.466
84798SOL     OW56232  12.325   1.367   0.217
84798SOL    HW156233  12.347   1.278   0.191
84798SOL    HW256234  12.272   1.401   0.145
84799SOL     OW56235   1.190  12.311   2.627
84799SOL    HW156236   1.114  12.261   2.598
84799SOL    HW256237   1.167  12.340   2.716
84800SOL     OW56238   0.429  10.589   2.448
84800SOL    HW156239   0.422  10.493   2.448
84800SOL    HW256240   0.457  10.611   2.537
84801SOL     OW56241  13.228   8.877   6.373
84801SOL    HW156242  13.197   8.787   6.386
84801SOL    HW256243  13.237   8.912   6.461
84802SOL     OW56244  10.611   4.652   5.138
84802SOL    HW156245  10.536   4.706   5.114
84802SOL    HW256246  10.649   4.697   5.215
84803SOL     OW56247  10.775   1.964   5.664
84803SOL    HW156248  10.835   1.890   5.663
84803SOL    HW256249  10.821   2.031   5.715
84804SOL     OW56250  11.654   9.970   7.495
84804SOL    HW156251  11.599   9.972   7.573
84804SOL    HW256252  11.743   9.966   7.529
84805SOL     OW56253   5.930   8.621   6.602
84805SOL    HW156254   6.012   8.668   6.619
84805SOL    HW256255   5.958   8.531   6.584
84806SOL     OW56256   7.455   0.228   0.137
84806SOL    HW156257   7.468   0.248   0.229
84806SOL    HW256258   7.522   0.279   0.092
84807SOL     OW56259   9.180  12.184   3.324
84807SOL    HW156260   9.133  12.265   3.302
84807SOL    HW256261   9.239  12.210   3.395
84808SOL     OW56262   4.884   0.720  10.028
84808SOL    HW156263   4.860   0.663   9.955
84808SOL    HW256264   4.869   0.809   9.995
84809SOL     OW56265   3.554   8.766  13.833
84809SOL    HW156266   3.558   8.764  13.928
84809SOL    HW256267   3.494   8.838  13.813
84810SOL     OW56268  11.263   9.505   8.453
84810SOL    HW156269  11.312   9.543   8.526
84810SOL    HW256270  11.282   9.411   8.457
84811SOL     OW56271   2.816  11.801   2.001
84811SOL    HW156272   2.869  11.795   1.921
84811SOL    HW256273   2.733  11.758   1.978
84812SOL     OW56274  13.882   0.745  11.466
84812SOL    HW156275  13.924   0.825  11.497
84812SOL    HW256276  13.947   0.705  11.408
84813SOL     OW56277   1.854   1.429   8.024
84813SOL    HW156278   1.767   1.457   8.055
84813SOL    HW256279   1.905   1.510   8.019
84814SOL     OW56280   5.065  14.435   9.151
84814SOL    HW156281   4.990  14.482   9.187
84814SOL    HW256282   5.059  14.449   9.057
84815SOL     OW56283  11.553   3.383  11.532
84815SOL    HW156284  11.609   3.332  11.591
84815SOL    HW256285  11.595   3.374  11.446
84816SOL     OW56286   2.297   1.784   1.939
84816SOL    HW156287   2.341   1.823   1.863
84816SOL    HW256288   2.237   1.719   1.902
84817SOL     OW56289  12.457  14.128  13.050
84817SOL    HW156290  12.474  14.191  13.119
84817SOL    HW256291  12.514  14.054  13.070
84818SOL     OW56292  14.101   1.318  13.402
84818SOL    HW156293  14.079   1.225  13.393
84818SOL    HW256294  14.195   1.323  13.385
84819SOL     OW56295   4.004   0.837   0.518
84819SOL    HW156296   3.984   0.744   0.529
84819SOL    HW256297   3.981   0.856   0.427
84820SOL     OW56298   0.885   4.516  12.194
84820SOL    HW156299   0.892   4.606  12.162
84820SOL    HW256300   0.806   4.482  12.152
84821SOL     OW56301  12.727   7.427  10.654
84821SOL    HW156302  12.708   7.407  10.745
84821SOL    HW256303  12.806   7.481  10.657
84822SOL     OW56304   9.617  10.219   2.622
84822SOL    HW156305   9.599  10.193   2.532
84822SOL    HW256306   9.537  10.263   2.651
84823SOL     OW56307   2.186   2.056  12.584
84823SOL    HW156308   2.134   1.990  12.629
84823SOL    HW256309   2.135   2.136  12.591
84824SOL     OW56310  11.177   3.713   4.384
84824SOL    HW156311  11.096   3.749   4.348
84824SOL    HW256312  11.148   3.662   4.461
84825SOL     OW56313  10.035   4.112   7.444
84825SOL    HW156314  10.057   4.179   7.508
84825SOL    HW256315  10.102   4.120   7.376
84826SOL     OW56316  11.996   8.116  11.504
84826SOL    HW156317  12.068   8.132  11.565
84826SOL    HW256318  12.039   8.104  11.419
84827SOL     OW56319   8.409  13.976  12.361
84827SOL    HW156320   8.405  13.996  12.268
84827SOL    HW256321   8.319  13.950  12.384
84828SOL     OW56322  14.815   4.421   3.592
84828SOL    HW156323  14.822   4.354   3.660
84828SOL    HW256324  14.873   4.492   3.621
84829SOL     OW56325   1.089   8.317   9.061
84829SOL    HW156326   1.142   8.241   9.083
84829SOL    HW256327   1.111   8.337   8.971
84830SOL     OW56328   4.715  14.643   7.286
84830SOL    HW156329   4.677  14.713   7.233
84830SOL    HW256330   4.647  14.576   7.291
84831SOL     OW56331  13.463  10.817  14.092
84831SOL    HW156332  13.404  10.878  14.047
84831SOL    HW256333  13.538  10.870  14.117
84832SOL     OW56334  14.016   2.875  12.907
84832SOL    HW156335  13.994   2.960  12.870
84832SOL    HW256336  14.039   2.821  12.831
84833SOL     OW56337  10.457   9.308   2.372
84833SOL    HW156338  10.497   9.389   2.339
84833SOL    HW256339  10.498   9.294   2.458
84834SOL     OW56340  10.284   4.780   4.773
84834SOL    HW156341  10.202   4.734   4.754
84834SOL    HW256342  10.293   4.845   4.703
84835SOL     OW56343   1.707  12.565   2.681
84835SOL    HW156344   1.800  12.567   2.705
84835SOL    HW256345   1.691  12.474   2.657
84836SOL     OW56346   6.487   9.531   8.478
84836SOL    HW156347   6.476   9.482   8.397
84836SOL    HW256348   6.568   9.581   8.466
84837SOL     OW56349   3.990  13.520  10.928
84837SOL    HW156350   3.963  13.477  11.010
84837SOL    HW256351   3.908  13.556  10.892
84838SOL     OW56352   5.189   8.755   0.606
84838SOL    HW156353   5.187   8.708   0.523
84838SOL    HW256354   5.144   8.697   0.667
84839SOL     OW56355   2.759   2.788   7.974
84839SOL    HW156356   2.714   2.773   8.057
84839SOL    HW256357   2.753   2.704   7.929
84840SOL     OW56358   1.849   3.458   0.379
84840SOL    HW156359   1.899   3.495   0.306
84840SOL    HW256360   1.878   3.367   0.383
84841SOL     OW56361  14.581   3.572  11.174
84841SOL    HW156362  14.646   3.504  11.154
84841SOL    HW256363  14.497   3.530  11.159
84842SOL     OW56364  11.270   6.339   7.181
84842SOL    HW156365  11.308   6.308   7.263
84842SOL    HW256366  11.177   6.322   7.190
84843SOL     OW56367   2.034   8.188   8.500
84843SOL    HW156368   1.943   8.176   8.474
84843SOL    HW256369   2.051   8.119   8.563
84844SOL     OW56370  14.235  12.256  13.767
84844SOL    HW156371  14.188  12.327  13.724
84844SOL    HW256372  14.291  12.301  13.831
84845SOL     OW56373   8.135   2.990   9.665
84845SOL    HW156374   8.121   2.932   9.590
84845SOL    HW256375   8.182   2.936   9.728
84846SOL     OW56376   7.134   2.797   0.907
84846SOL    HW156377   7.106   2.738   0.837
84846SOL    HW256378   7.227   2.779   0.917
84847SOL     OW56379  12.227   9.458   7.348
84847SOL    HW156380  12.303   9.514   7.360
84847SOL    HW256381  12.263   9.372   7.325
84848SOL     OW56382  12.988   2.975   7.250
84848SOL    HW156383  12.910   2.990   7.197
84848SOL    HW256384  13.005   3.059   7.293
84849SOL     OW56385  10.690  12.548  12.462
84849SOL    HW156386  10.618  12.492  12.490
84849SOL    HW256387  10.732  12.499  12.390
84850SOL     OW56388   9.046   5.120   6.651
84850SOL    HW156389   8.965   5.171   6.652
84850SOL    HW256390   9.064   5.101   6.743
84851SOL     OW56391  11.391  10.081   1.019
84851SOL    HW156392  11.477  10.038   1.026
84851SOL    HW256393  11.411  10.168   0.983
84852SOL     OW56394   1.388  14.601   7.637
84852SOL    HW156395   1.413  14.681   7.592
84852SOL    HW256396   1.293  14.593   7.620
84853SOL     OW56397   4.519  11.530  10.516
84853SOL    HW156398   4.523  11.618  10.479
84853SOL    HW256399   4.608  11.496  10.509
84854SOL     OW56400   0.949   8.436   4.781
84854SOL    HW156401   0.988   8.350   4.792
84854SOL    HW256402   0.916   8.459   4.868
84855SOL     OW56403   5.892   0.858   8.881
84855SOL    HW156404   5.819   0.821   8.931
84855SOL    HW256405   5.881   0.953   8.890
84856SOL     OW56406  12.603   7.382  10.015
84856SOL    HW156407  12.636   7.422  10.096
84856SOL    HW256408  12.609   7.288  10.031
84857SOL     OW56409   0.908   8.672   4.692
84857SOL    HW156410   0.912   8.580   4.721
84857SOL    HW256411   0.957   8.720   4.759
84858SOL     OW56412   0.557  10.150   2.145
84858SOL    HW156413   0.596  10.179   2.062
84858SOL    HW256414   0.624  10.167   2.210
84859SOL     OW56415  12.941   9.453   6.401
84859SOL    HW156416  12.942   9.366   6.362
84859SOL    HW256417  12.902   9.440   6.487
84860SOL     OW56418   0.210   5.323   1.508
84860SOL    HW156419   0.299   5.294   1.528
84860SOL    HW256420   0.157   5.290   1.581
84861SOL     OW56421   9.507   9.927  14.102
84861SOL    HW156422   9.594   9.966  14.110
84861SOL    HW256423   9.498   9.910  14.008
84862SOL     OW56424  11.192   4.591   0.823
84862SOL    HW156425  11.212   4.658   0.758
84862SOL    HW256426  11.097   4.596   0.834
84863SOL     OW56427  10.226  11.622  13.571
84863SOL    HW156428  10.215  11.675  13.492
84863SOL    HW256429  10.315  11.587  13.564
84864SOL     OW56430   6.469   8.481  12.534
84864SOL    HW156431   6.532   8.472  12.605
84864SOL    HW256432   6.480   8.402  12.482
84865SOL     OW56433   0.373  10.844   5.485
84865SOL    HW156434   0.293  10.897   5.490
84865SOL    HW256435   0.354  10.767   5.538
84866SOL     OW56436  10.501   7.263   5.188
84866SOL    HW156437  10.564   7.192   5.201
84866SOL    HW256438  10.517   7.294   5.099
84867SOL     OW56439  10.465   5.974   9.202
84867SOL    HW156440  10.533   6.039   9.218
84867SOL    HW256441  10.500   5.919   9.132
84868SOL     OW56442   4.123  12.215   1.916
84868SOL    HW156443   4.127  12.226   1.821
84868SOL    HW256444   4.174  12.288   1.952
84869SOL     OW56445  14.175   4.291   1.502
84869SOL    HW156446  14.239   4.355   1.471
84869SOL    HW256447  14.226   4.230   1.556
84870SOL     OW56448   2.788   4.904  10.784
84870SOL    HW156449   2.794   4.811  10.803
84870SOL    HW256450   2.797   4.947  10.870
84871SOL     OW56451  10.974  14.109   9.415
84871SOL    HW156452  10.904  14.174   9.427
84871SOL    HW256453  11.042  14.157   9.369
84872SOL     OW56454   2.450  13.817   1.551
84872SOL    HW156455   2.500  13.859   1.480
84872SOL    HW256456   2.517  13.771   1.602
84873SOL     OW56457   4.131   5.328   8.246
84873SOL    HW156458   4.199   5.262   8.255
84873SOL    HW256459   4.057   5.294   8.295
84874SOL     OW56460  11.934  10.829  12.023
84874SOL    HW156461  11.883  10.759  11.983
84874SOL    HW256462  11.877  10.905  12.020
84875SOL     OW56463  12.836  11.420   6.508
84875SOL    HW156464  12.861  11.503   6.549
84875SOL    HW256465  12.897  11.410   6.435
84876SOL     OW56466   4.247  12.022   6.294
84876SOL    HW156467   4.180  11.989   6.355
84876SOL    HW256468   4.282  12.100   6.337
84877SOL     OW56469  14.487  13.259  10.356
84877SOL    HW156470  14.568  13.210  10.371
84877SOL    HW256471  14.503  13.345  10.395
84878SOL     OW56472   9.891   6.110   8.485
84878SOL    HW156473   9.845   6.194   8.482
84878SOL    HW256474   9.932   6.109   8.572
84879SOL     OW56475   3.834   1.963   1.979
84879SOL    HW156476   3.760   1.954   1.919
84879SOL    HW256477   3.817   2.045   2.026
84880SOL     OW56478   8.628   6.658   1.806
84880SOL    HW156479   8.604   6.657   1.713
84880SOL    HW256480   8.646   6.567   1.827
84881SOL     OW56481  11.481   9.666  13.346
84881SOL    HW156482  11.413   9.689  13.409
84881SOL    HW256483  11.447   9.591  13.298
84882SOL     OW56484   1.664   6.983   6.165
84882SOL    HW156485   1.628   7.015   6.248
84882SOL    HW256486   1.709   7.059   6.128
84883SOL     OW56487   6.173  12.282   0.557
84883SOL    HW156488   6.165  12.194   0.595
84883SOL    HW256489   6.227  12.269   0.478
84884SOL     OW56490   6.159  14.406   1.736
84884SOL    HW156491   6.206  14.341   1.684
84884SOL    HW256492   6.201  14.403   1.822
84885SOL     OW56493  13.983  13.825  13.103
84885SOL    HW156494  14.039  13.868  13.038
84885SOL    HW256495  13.948  13.897  13.156
84886SOL     OW56496   8.894   6.939   6.284
84886SOL    HW156497   8.844   7.010   6.244
84886SOL    HW256498   8.975   6.981   6.315
84887SOL     OW56499   1.857   8.804  10.874
84887SOL    HW156500   1.914   8.734  10.842
84887SOL    HW256501   1.775   8.759  10.896
84888SOL     OW56502   5.397   9.007   4.888
84888SOL    HW156503   5.444   8.953   4.952
84888SOL    HW256504   5.406   8.958   4.806
84889SOL     OW56505   0.456   2.273  13.803
84889SOL    HW156506   0.549   2.268  13.783
84889SOL    HW256507   0.413   2.241  13.723
84890SOL     OW56508   5.841   9.773   0.514
84890SOL    HW156509   5.807   9.690   0.478
84890SOL    HW256510   5.885   9.747   0.594
84891SOL     OW56511  12.896   4.543   0.848
84891SOL    HW156512  12.921   4.635   0.835
84891SOL    HW256513  12.885   4.534   0.942
84892SOL     OW56514   3.504   0.753   0.858
84892SOL    HW156515   3.551   0.721   0.935
84892SOL    HW256516   3.572   0.795   0.805
84893SOL     OW56517  10.713  10.685   4.352
84893SOL    HW156518  10.794  10.704   4.303
84893SOL    HW256519  10.727  10.597   4.387
84894SOL     OW56520   8.387   3.090   8.194
84894SOL    HW156521   8.336   3.114   8.272
84894SOL    HW256522   8.345   3.009   8.163
84895SOL     OW56523   7.126   0.012   7.375
84895SOL    HW156524   7.213   0.027   7.338
84895SOL    HW256525   7.121   0.073   7.449
84896SOL     OW56526   0.915   4.494   8.960
84896SOL    HW156527   0.944   4.537   9.040
84896SOL    HW256528   0.819   4.493   8.968
84897SOL     OW56529   7.756   5.020   0.972
84897SOL    HW156530   7.808   5.083   0.922
84897SOL    HW256531   7.744   5.061   1.057
84898SOL     OW56532   8.595  10.973   3.514
84898SOL    HW156533   8.680  10.961   3.472
84898SOL    HW256534   8.614  10.972   3.607
84899SOL     OW56535   1.182   2.030  12.537
84899SOL    HW156536   1.230   2.106  12.503
84899SOL    HW256537   1.129   2.066  12.609
84900SOL     OW56538  10.007  11.706   2.226
84900SOL    HW156539   9.934  11.674   2.173
84900SOL    HW256540  10.050  11.772   2.171
84901SOL     OW56541   1.654   4.336   0.323
84901SOL    HW156542   1.567   4.376   0.319
84901SOL    HW256543   1.650   4.276   0.397
84902SOL     OW56544   7.956   9.947  11.893
84902SOL    HW156545   7.922  10.022  11.941
84902SOL    HW256546   7.953   9.874  11.955
84903SOL     OW56547   7.540   6.979   6.162
84903SOL    HW156548   7.455   6.971   6.204
84903SOL    HW256549   7.525   7.038   6.088
84904SOL     OW56550  13.204   8.916   1.668
84904SOL    HW156551  13.119   8.881   1.640
84904SOL    HW256552  13.269   8.867   1.618
84905SOL     OW56553   3.367   8.678  11.898
84905SOL    HW156554   3.294   8.728  11.864
84905SOL    HW256555   3.349   8.588  11.873
84906SOL     OW56556   5.139   5.456   3.766
84906SOL    HW156557   5.154   5.386   3.703
84906SOL    HW256558   5.189   5.530   3.734
84907SOL     OW56559   4.081   1.203   5.018
84907SOL    HW156560   4.101   1.124   5.067
84907SOL    HW256561   4.161   1.221   4.968
84908SOL     OW56562  13.440  13.627  13.056
84908SOL    HW156563  13.403  13.589  13.136
84908SOL    HW256564  13.530  13.596  13.054
84909SOL     OW56565  12.509   0.029  11.196
84909SOL    HW156566  12.532   0.033  11.289
84909SOL    HW256567  12.469   0.114  11.177
84910SOL     OW56568   8.806  14.445   1.660
84910SOL    HW156569   8.793  14.353   1.682
84910SOL    HW256570   8.876  14.474   1.717
84911SOL     OW56571   3.659   5.216   9.911
84911SOL    HW156572   3.678   5.221   9.817
84911SOL    HW256573   3.614   5.132   9.923
84912SOL     OW56574  14.454   2.084   1.516
84912SOL    HW156575  14.459   1.989   1.522
84912SOL    HW256576  14.365   2.101   1.484
84913SOL     OW56577  11.791  10.179   8.023
84913SOL    HW156578  11.843  10.111   7.981
84913SOL    HW256579  11.754  10.229   7.950
84914SOL     OW56580   6.422   4.824  14.786
84914SOL    HW156581   6.389   4.884  14.719
84914SOL    HW256582   6.424   4.739  14.743
84915SOL     OW56583  12.309   3.334  12.566
84915SOL    HW156584  12.355   3.360  12.486
84915SOL    HW256585  12.223   3.375  12.559
84916SOL     OW56586  14.665   0.979   2.411
84916SOL    HW156587  14.653   1.030   2.331
84916SOL    HW256588  14.758   0.956   2.411
84917SOL     OW56589  11.229   9.119   3.040
84917SOL    HW156590  11.249   9.109   3.133
84917SOL    HW256591  11.195   9.208   3.033
84918SOL     OW56592   2.783   7.533  14.110
84918SOL    HW156593   2.804   7.529  14.016
84918SOL    HW256594   2.688   7.524  14.114
84919SOL     OW56595   9.250  14.104   6.579
84919SOL    HW156596   9.248  14.102   6.484
84919SOL    HW256597   9.175  14.052   6.606
84920SOL     OW56598   1.197   0.062   7.684
84920SOL    HW156599   1.159   0.080   7.598
84920SOL    HW256600   1.135   0.002   7.725
84921SOL     OW56601  12.905   7.698  11.848
84921SOL    HW156602  12.827   7.754  11.839
84921SOL    HW256603  12.912   7.654  11.763
84922SOL     OW56604   4.109   0.910   4.093
84922SOL    HW156605   4.148   0.832   4.053
84922SOL    HW256606   4.167   0.982   4.067
84923SOL     OW56607  12.414   2.698   9.646
84923SOL    HW156608  12.461   2.647   9.580
84923SOL    HW256609  12.328   2.657   9.652
84924SOL     OW56610   0.183   3.558  13.669
84924SOL    HW156611   0.169   3.477  13.619
84924SOL    HW256612   0.155   3.535  13.758
84925SOL     OW56613   2.403   0.334   7.123
84925SOL    HW156614   2.445   0.377   7.048
84925SOL    HW256615   2.473   0.325   7.187
84926SOL     OW56616   2.875   3.466  12.298
84926SOL    HW156617   2.849   3.544  12.346
84926SOL    HW256618   2.813   3.398  12.326
84927SOL     OW56619   7.478  10.762  14.434
84927SOL    HW156620   7.385  10.782  14.445
84927SOL    HW256621   7.483  10.667  14.435
84928SOL     OW56622   7.351  11.091   7.653
84928SOL    HW156623   7.420  11.154   7.634
84928SOL    HW256624   7.306  11.127   7.729
84929SOL     OW56625  10.706   1.400   0.991
84929SOL    HW156626  10.706   1.440   1.079
84929SOL    HW256627  10.615   1.374   0.977
84930SOL     OW56628   1.959   5.686   9.741
84930SOL    HW156629   2.001   5.715   9.660
84930SOL    HW256630   1.917   5.603   9.719
84931SOL     OW56631   8.855  11.780   5.108
84931SOL    HW156632   8.926  11.728   5.070
84931SOL    HW256633   8.776  11.732   5.083
84932SOL     OW56634   4.670   7.911   0.586
84932SOL    HW156635   4.698   7.821   0.566
84932SOL    HW256636   4.666   7.954   0.501
84933SOL     OW56637   6.981   4.788   5.752
84933SOL    HW156638   6.940   4.739   5.681
84933SOL    HW256639   7.016   4.867   5.711
84934SOL     OW56640   8.451  11.739   7.889
84934SOL    HW156641   8.370  11.692   7.870
84934SOL    HW256642   8.505  11.675   7.936
84935SOL     OW56643   3.252   1.604   7.093
84935SOL    HW156644   3.313   1.536   7.063
84935SOL    HW256645   3.283   1.684   7.051
84936SOL     OW56646   8.254   1.018   6.092
84936SOL    HW156647   8.314   0.945   6.107
84936SOL    HW256648   8.196   0.988   6.022
84937SOL     OW56649   4.517   1.087  13.164
84937SOL    HW156650   4.581   1.064  13.231
84937SOL    HW256651   4.499   1.005  13.119
84938SOL     OW56652   0.693  13.534  13.611
84938SOL    HW156653   0.668  13.592  13.683
84938SOL    HW256654   0.632  13.460  13.617
84939SOL     OW56655   0.511   5.263   5.572
84939SOL    HW156656   0.603   5.238   5.567
84939SOL    HW256657   0.480   5.226   5.655
84940SOL     OW56658   6.222   8.156   8.652
84940SOL    HW156659   6.242   8.072   8.609
84940SOL    HW256660   6.307   8.199   8.660
84941SOL     OW56661   6.563  14.457  14.779
84941SOL    HW156662   6.470  14.434  14.773
84941SOL    HW256663   6.571  14.537  14.726
84942SOL     OW56664   3.876   6.120  11.009
84942SOL    HW156665   3.961   6.165  11.018
84942SOL    HW256666   3.816   6.174  11.060
84943SOL     OW56667   5.009   5.359   2.675
84943SOL    HW156668   5.058   5.324   2.601
84943SOL    HW256669   5.044   5.312   2.751
84944SOL     OW56670   6.739   4.962  14.147
84944SOL    HW156671   6.809   4.909  14.185
84944SOL    HW256672   6.783   5.020  14.085
84945SOL     OW56673   7.623   9.886   7.996
84945SOL    HW156674   7.645   9.975   7.970
84945SOL    HW256675   7.536   9.893   8.036
84946SOL     OW56676   5.333  13.586   7.801
84946SOL    HW156677   5.322  13.497   7.834
84946SOL    HW256678   5.335  13.641   7.880
84947SOL     OW56679   8.867   7.259   4.536
84947SOL    HW156680   8.945   7.305   4.569
84947SOL    HW256681   8.838   7.206   4.610
84948SOL     OW56682  13.303   2.174   7.786
84948SOL    HW156683  13.217   2.141   7.813
84948SOL    HW256684  13.298   2.179   7.691
84949SOL     OW56685  11.804  11.243   4.334
84949SOL    HW156686  11.712  11.225   4.350
84949SOL    HW256687  11.845  11.157   4.326
84950SOL     OW56688   6.663   6.131   6.891
84950SOL    HW156689   6.654   6.100   6.981
84950SOL    HW256690   6.703   6.218   6.900
84951SOL     OW56691   6.970   0.564   8.362
84951SOL    HW156692   6.945   0.475   8.338
84951SOL    HW256693   7.065   0.566   8.351
84952SOL     OW56694  12.709   5.970   4.215
84952SOL    HW156695  12.629   5.934   4.253
84952SOL    HW256696  12.770   5.897   4.215
84953SOL     OW56697  10.042   8.157   0.337
84953SOL    HW156698  10.056   8.250   0.317
84953SOL    HW256699  10.083   8.143   0.422
84954SOL     OW56700   1.176  12.574  13.803
84954SOL    HW156701   1.164  12.491  13.756
84954SOL    HW256702   1.106  12.630  13.769
84955SOL     OW56703   4.401   8.292  12.551
84955SOL    HW156704   4.463   8.278  12.480
84955SOL    HW256705   4.316   8.267  12.514
84956SOL     OW56706  12.584  10.308  10.927
84956SOL    HW156707  12.606  10.271  10.841
84956SOL    HW256708  12.623  10.395  10.926
84957SOL     OW56709   5.655  13.129   7.644
84957SOL    HW156710   5.750  13.135   7.647
84957SOL    HW256711   5.634  13.109   7.553
84958SOL     OW56712   3.922  13.413   5.736
84958SOL    HW156713   3.933  13.405   5.641
84958SOL    HW256714   3.912  13.508   5.750
84959SOL     OW56715  12.333   6.991  10.098
84959SOL    HW156716  12.248   7.032  10.085
84959SOL    HW256717  12.315   6.897  10.097
84960SOL     OW56718   8.874  14.807   6.664
84960SOL    HW156719   8.956  14.815   6.714
84960SOL    HW256720   8.809  14.850   6.718
84961SOL     OW56721  11.693  13.931   5.234
84961SOL    HW156722  11.675  13.844   5.269
84961SOL    HW256723  11.724  13.915   5.145
84962SOL     OW56724  13.312   6.674  10.000
84962SOL    HW156725  13.361   6.594   9.983
84962SOL    HW256726  13.380   6.741  10.011
84963SOL     OW56727   3.850   7.056   5.573
84963SOL    HW156728   3.794   7.103   5.634
84963SOL    HW256729   3.922   7.022   5.627
84964SOL     OW56730   4.752   5.700  13.426
84964SOL    HW156731   4.761   5.756  13.349
84964SOL    HW256732   4.828   5.720  13.480
84965SOL     OW56733  11.908   7.153   7.909
84965SOL    HW156734  11.850   7.128   7.837
84965SOL    HW256735  11.900   7.082   7.972
84966SOL     OW56736   5.543   7.974  13.609
84966SOL    HW156737   5.476   7.929  13.557
84966SOL    HW256738   5.494   8.023  13.674
84967SOL     OW56739  12.835  10.699   6.602
84967SOL    HW156740  12.894  10.650   6.544
84967SOL    HW256741  12.762  10.639   6.617
84968SOL     OW56742  13.335   7.300  11.422
84968SOL    HW156743  13.311   7.290  11.330
84968SOL    HW256744  13.259   7.267  11.470
84969SOL     OW56745   4.208  12.354   2.410
84969SOL    HW156746   4.159  12.401   2.342
84969SOL    HW256747   4.184  12.398   2.492
84970SOL     OW56748  14.637  11.443   3.374
84970SOL    HW156749  14.690  11.380   3.422
84970SOL    HW256750  14.638  11.522   3.428
84971SOL     OW56751   2.031   5.008  11.085
84971SOL    HW156752   1.973   4.942  11.047
84971SOL    HW256753   1.987   5.034  11.166
84972SOL     OW56754  13.041  10.049   9.301
84972SOL    HW156755  13.112  10.031   9.362
84972SOL    HW256756  13.001   9.963   9.285
84973SOL     OW56757   7.576   2.786   3.466
84973SOL    HW156758   7.613   2.702   3.438
84973SOL    HW256759   7.550   2.829   3.384
84974SOL     OW56760   9.491   7.090   2.445
84974SOL    HW156761   9.431   7.034   2.396
84974SOL    HW256762   9.434   7.150   2.493
84975SOL     OW56763   0.704  12.383   2.564
84975SOL    HW156764   0.768  12.442   2.602
84975SOL    HW256765   0.710  12.303   2.616
84976SOL     OW56766   7.309   8.070   4.475
84976SOL    HW156767   7.295   8.072   4.380
84976SOL    HW256768   7.257   8.142   4.508
84977SOL     OW56769   4.619   9.103   8.849
84977SOL    HW156770   4.583   9.181   8.891
84977SOL    HW256771   4.579   9.102   8.762
84978SOL     OW56772   0.732  11.601   2.681
84978SOL    HW156773   0.735  11.506   2.673
84978SOL    HW256774   0.685  11.617   2.763
84979SOL     OW56775  10.810  12.268   7.112
84979SOL    HW156776  10.870  12.228   7.174
84979SOL    HW256777  10.855  12.261   7.027
84980SOL     OW56778   6.452   1.229   9.206
84980SOL    HW156779   6.481   1.255   9.118
84980SOL    HW256780   6.358   1.219   9.199
84981SOL     OW56781  13.050   5.158   8.119
84981SOL    HW156782  12.982   5.136   8.055
84981SOL    HW256783  13.129   5.117   8.084
84982SOL     OW56784  13.570   7.228  11.120
84982SOL    HW156785  13.658   7.197  11.102
84982SOL    HW256786  13.516   7.150  11.119
84983SOL     OW56787   4.583   6.471   5.122
84983SOL    HW156788   4.569   6.564   5.100
84983SOL    HW256789   4.594   6.428   5.037
84984SOL     OW56790   4.290   9.923   0.436
84984SOL    HW156791   4.219   9.872   0.396
84984SOL    HW256792   4.310   9.990   0.371
84985SOL     OW56793   1.426   0.446   7.263
84985SOL    HW156794   1.518   0.420   7.271
84985SOL    HW256795   1.376   0.366   7.280
84986SOL     OW56796  12.222  12.828   0.425
84986SOL    HW156797  12.257  12.878   0.351
84986SOL    HW256798  12.256  12.739   0.412
84987SOL     OW56799   6.470  14.011   8.816
84987SOL    HW156800   6.408  14.074   8.780
84987SOL    HW256801   6.554  14.057   8.815
84988SOL     OW56802   4.056   8.233  11.167
84988SOL    HW156803   4.111   8.242  11.245
84988SOL    HW256804   3.983   8.293  11.182
84989SOL     OW56805  13.970   2.098   4.766
84989SOL    HW156806  14.028   2.161   4.808
84989SOL    HW256807  14.027   2.051   4.704
84990SOL     OW56808   0.863   7.545   0.213
84990SOL    HW156809   0.896   7.600   0.142
84990SOL    HW256810   0.769   7.538   0.195
84991SOL     OW56811   7.804   7.740   6.649
84991SOL    HW156812   7.777   7.689   6.726
84991SOL    HW256813   7.723   7.755   6.601
84992SOL     OW56814  10.101   7.923   5.045
84992SOL    HW156815  10.008   7.899   5.044
84992SOL    HW256816  10.118   7.955   4.956
84993SOL     OW56817  14.250   5.776  12.658
84993SOL    HW156818  14.336   5.752  12.694
84993SOL    HW256819  14.267   5.857  12.608
84994SOL     OW56820   2.703   3.397   0.085
84994SOL    HW156821   2.784   3.413   0.035
84994SOL    HW256822   2.638   3.377   0.019
84995SOL     OW56823  11.355  10.013  12.420
84995SOL    HW156824  11.260  10.022  12.410
84995SOL    HW256825  11.389  10.017  12.330
84996SOL     OW56826  14.379   0.587  12.953
84996SOL    HW156827  14.401   0.625  12.868
84996SOL    HW256828  14.427   0.505  12.956
84997SOL     OW56829   1.729   3.217   3.070
84997SOL    HW156830   1.690   3.153   3.129
84997SOL    HW256831   1.664   3.287   3.062
84998SOL     OW56832   8.086   1.697   8.379
84998SOL    HW156833   8.135   1.651   8.447
84998SOL    HW256834   8.146   1.767   8.351
84999SOL     OW56835   7.877   0.543  12.814
84999SOL    HW156836   7.872   0.610  12.882
84999SOL    HW256837   7.862   0.460  12.860
85000SOL     OW56838  12.385   7.651   3.260
85000SOL    HW156839  12.340   7.623   3.340
85000SOL    HW256840  12.349   7.595   3.191
85001SOL     OW56841   0.845  14.662  11.572
85001SOL    HW156842   0.800  14.747  11.569
85001SOL    HW256843   0.775  14.599  11.587
85002SOL     OW56844  10.689   2.854   6.767
85002SOL    HW156845  10.721   2.871   6.856
85002SOL    HW256846  10.690   2.758   6.760
85003SOL     OW56847  10.057   1.272   3.242
85003SOL    HW156848  10.098   1.247   3.159
85003SOL    HW256849   9.991   1.336   3.218
85004SOL     OW56850   7.927   5.420   2.593
85004SOL    HW156851   7.924   5.324   2.596
85004SOL    HW256852   8.020   5.441   2.585
85005SOL     OW56853   3.451  13.940   6.977
85005SOL    HW156854   3.457  13.915   6.885
85005SOL    HW256855   3.378  13.888   7.011
85006SOL     OW56856  11.469  11.222  11.236
85006SOL    HW156857  11.550  11.267  11.260
85006SOL    HW256858  11.440  11.181  11.318
85007SOL     OW56859   4.368   0.465  12.785
85007SOL    HW156860   4.280   0.472  12.748
85007SOL    HW256861   4.411   0.547  12.760
85008SOL     OW56862   6.188   1.207   2.962
85008SOL    HW156863   6.247   1.133   2.951
85008SOL    HW256864   6.244   1.277   2.997
85009SOL     OW56865   6.535   1.222   3.687
85009SOL    HW156866   6.612   1.211   3.631
85009SOL    HW256867   6.511   1.133   3.713
85010SOL     OW56868  11.470   4.408  12.182
85010SOL    HW156869  11.491   4.496  12.151
85010SOL    HW256870  11.406   4.421  12.252
85011SOL     OW56871   1.715  13.644   0.145
85011SOL    HW156872   1.684  13.640   0.054
85011SOL    HW256873   1.637  13.635   0.198
85012SOL     OW56874   0.055  13.851   2.614
85012SOL    HW156875   0.072  13.943   2.594
85012SOL    HW256876   0.003  13.819   2.540
85013SOL     OW56877   6.190   0.633   2.894
85013SOL    HW156878   6.219   0.661   2.981
85013SOL    HW256879   6.237   0.550   2.879
85014SOL     OW56880  12.128   0.465   3.552
85014SOL    HW156881  12.039   0.489   3.525
85014SOL    HW256882  12.137   0.373   3.527
85015SOL     OW56883   8.834   9.764   4.154
85015SOL    HW156884   8.777   9.829   4.196
85015SOL    HW256885   8.815   9.682   4.200
85016SOL     OW56886   7.515  12.221   1.292
85016SOL    HW156887   7.501  12.131   1.323
85016SOL    HW256888   7.605  12.222   1.261
85017SOL     OW56889   5.014  10.265   9.296
85017SOL    HW156890   5.021  10.193   9.233
85017SOL    HW256891   5.073  10.332   9.262
85018SOL     OW56892   1.837   6.525   3.203
85018SOL    HW156893   1.788   6.442   3.206
85018SOL    HW256894   1.770   6.592   3.188
85019SOL     OW56895   5.733   1.383   9.784
85019SOL    HW156896   5.700   1.295   9.800
85019SOL    HW256897   5.760   1.383   9.693
85020SOL     OW56898   0.147   9.893   8.531
85020SOL    HW156899   0.052   9.878   8.531
85020SOL    HW256900   0.162   9.946   8.452
85021SOL     OW56901   8.100   9.763   7.918
85021SOL    HW156902   8.042   9.837   7.900
85021SOL    HW256903   8.182   9.785   7.874
85022SOL     OW56904   7.730  11.562  10.364
85022SOL    HW156905   7.698  11.530  10.448
85022SOL    HW256906   7.824  11.573  10.377
85023SOL     OW56907   5.712   8.306   2.509
85023SOL    HW156908   5.749   8.394   2.503
85023SOL    HW256909   5.735   8.264   2.426
85024SOL     OW56910   7.906  12.406  12.644
85024SOL    HW156911   7.840  12.442  12.585
85024SOL    HW256912   7.988  12.445  12.616
85025SOL     OW56913   6.832  12.599   2.402
85025SOL    HW156914   6.768  12.656   2.359
85025SOL    HW256915   6.875  12.551   2.331
85026SOL     OW56916  13.891   7.137  13.231
85026SOL    HW156917  13.835   7.080  13.177
85026SOL    HW256918  13.861   7.225  13.210
85027SOL     OW56919   1.890  13.167  14.824
85027SOL    HW156920   1.919  13.137  14.737
85027SOL    HW256921   1.935  13.110   0.011
85028SOL     OW56922  13.945  10.545   9.612
85028SOL    HW156923  13.920  10.580   9.698
85028SOL    HW256924  13.931  10.450   9.621
85029SOL     OW56925   2.177   9.300   1.784
85029SOL    HW156926   2.104   9.355   1.813
85029SOL    HW256927   2.141   9.248   1.712
85030SOL     OW56928   6.394  14.565  13.175
85030SOL    HW156929   6.468  14.617  13.206
85030SOL    HW256930   6.434  14.485  13.140
85031SOL     OW56931   7.501   2.439  14.062
85031SOL    HW156932   7.497   2.521  14.013
85031SOL    HW256933   7.509   2.371  13.996
85032SOL     OW56934  10.294   6.880  12.024
85032SOL    HW156935  10.237   6.804  12.014
85032SOL    HW256936  10.241   6.954  11.993
85033SOL     OW56937   6.795   7.349   5.163
85033SOL    HW156938   6.750   7.432   5.174
85033SOL    HW256939   6.822   7.324   5.252
85034SOL     OW56940   6.106   9.378   9.159
85034SOL    HW156941   6.118   9.310   9.093
85034SOL    HW256942   6.193   9.389   9.198
85035SOL     OW56943   1.074  11.725  14.570
85035SOL    HW156944   1.020  11.763  14.639
85035SOL    HW256945   1.092  11.636  14.600
85036SOL     OW56946   7.870   7.476   1.967
85036SOL    HW156947   7.787   7.467   1.919
85036SOL    HW256948   7.928   7.521   1.906
85037SOL     OW56949   9.880   5.956   1.610
85037SOL    HW156950   9.891   5.985   1.519
85037SOL    HW256951   9.969   5.941   1.641
85038SOL     OW56952   5.051   3.730  10.143
85038SOL    HW156953   5.032   3.819  10.171
85038SOL    HW256954   5.032   3.676  10.220
85039SOL     OW56955   0.334   3.026  11.496
85039SOL    HW156956   0.362   3.071  11.575
85039SOL    HW256957   0.251   3.068  11.473
85040SOL     OW56958   6.825   6.226   0.846
85040SOL    HW156959   6.850   6.304   0.797
85040SOL    HW256960   6.731   6.236   0.859
85041SOL     OW56961   8.595  10.726   1.924
85041SOL    HW156962   8.520  10.729   1.983
85041SOL    HW256963   8.635  10.641   1.941
85042SOL     OW56964   9.996  14.414   1.475
85042SOL    HW156965  10.046  14.351   1.422
85042SOL    HW256966   9.905  14.386   1.466
85043SOL     OW56967   6.073   9.202  13.743
85043SOL    HW156968   6.030   9.133  13.692
85043SOL    HW256969   6.055   9.283  13.696
85044SOL     OW56970   9.273  12.042   6.478
85044SOL    HW156971   9.295  12.054   6.385
85044SOL    HW256972   9.356  12.016   6.518
85045SOL     OW56973  12.746   4.319   8.640
85045SOL    HW156974  12.826   4.363   8.610
85045SOL    HW256975  12.684   4.330   8.568
85046SOL     OW56976   8.639   7.768  14.427
85046SOL    HW156977   8.589   7.717  14.362
85046SOL    HW256978   8.595   7.750  14.510
85047SOL     OW56979   2.871  14.369   5.860
85047SOL    HW156980   2.827  14.436   5.809
85047SOL    HW256981   2.928  14.417   5.920
85048SOL     OW56982   0.513  14.397   5.921
85048SOL    HW156983   0.446  14.456   5.885
85048SOL    HW256984   0.476  14.368   6.005
85049SOL     OW56985  11.140   7.905   9.613
85049SOL    HW156986  11.212   7.849   9.584
85049SOL    HW256987  11.140   7.978   9.552
85050SOL     OW56988   0.740   7.816   1.194
85050SOL    HW156989   0.771   7.826   1.284
85050SOL    HW256990   0.785   7.885   1.145
85051SOL     OW56991   5.284  12.288   6.176
85051SOL    HW156992   5.312  12.291   6.085
85051SOL    HW256993   5.191  12.310   6.173
85052SOL     OW56994   1.553   9.471   6.144
85052SOL    HW156995   1.575   9.447   6.234
85052SOL    HW256996   1.571   9.565   6.139
85053SOL     OW56997  12.663   8.611   1.497
85053SOL    HW156998  12.572   8.581   1.490
85053SOL    HW256999  12.656   8.703   1.524
85054SOL     OW57000  13.904  12.939   9.147
85054SOL    HW157001  13.997  12.952   9.126
85054SOL    HW257002  13.889  12.992   9.226
85055SOL     OW57003  13.515   6.374  13.936
85055SOL    HW157004  13.591   6.432  13.946
85055SOL    HW257005  13.469   6.380  14.020
85056SOL     OW57006   4.036   3.432   9.475
85056SOL    HW157007   4.090   3.376   9.420
85056SOL    HW257008   4.010   3.377   9.549
85057SOL     OW57009  10.142   3.556   7.792
85057SOL    HW157010  10.177   3.642   7.815
85057SOL    HW257011  10.214   3.512   7.746
85058SOL     OW57012   5.653   8.875  13.571
85058SOL    HW157013   5.588   8.805  13.568
85058SOL    HW257014   5.737   8.830  13.565
85059SOL     OW57015   7.505   1.286  12.704
85059SOL    HW157016   7.482   1.324  12.789
85059SOL    HW257017   7.556   1.208  12.725
85060SOL     OW57018  12.334   7.295  10.593
85060SOL    HW157019  12.341   7.297  10.497
85060SOL    HW257020  12.330   7.387  10.619
85061SOL     OW57021  10.404  13.859  14.203
85061SOL    HW157022  10.415  13.794  14.133
85061SOL    HW257023  10.314  13.849  14.231
85062SOL     OW57024  14.137  12.566   5.199
85062SOL    HW157025  14.115  12.646   5.152
85062SOL    HW257026  14.074  12.561   5.271
85063SOL     OW57027   8.917   9.053   9.353
85063SOL    HW157028   8.956   8.967   9.335
85063SOL    HW257029   8.984   9.116   9.325
85064SOL     OW57030  12.457   6.094   9.231
85064SOL    HW157031  12.512   6.172   9.231
85064SOL    HW257032  12.369   6.126   9.248
85065SOL     OW57033   5.971  12.279  14.687
85065SOL    HW157034   6.005  12.291  14.599
85065SOL    HW257035   5.919  12.358  14.705
85066SOL     OW57036   9.085   5.475   9.013
85066SOL    HW157037   9.145   5.404   8.991
85066SOL    HW257038   9.141   5.552   9.026
85067SOL     OW57039   8.332   1.534  11.755
85067SOL    HW157040   8.284   1.475  11.814
85067SOL    HW257041   8.406   1.565  11.807
85068SOL     OW57042   6.821   3.548   3.520
85068SOL    HW157043   6.816   3.606   3.596
85068SOL    HW257044   6.805   3.606   3.445
85069SOL     OW57045   2.320   0.948   7.884
85069SOL    HW157046   2.370   1.030   7.882
85069SOL    HW257047   2.373   0.887   7.832
85070SOL     OW57048  10.778   7.924  13.032
85070SOL    HW157049  10.713   7.901  13.098
85070SOL    HW257050  10.805   7.840  12.995
85071SOL     OW57051  11.140  13.492  10.015
85071SOL    HW157052  11.061  13.518  10.063
85071SOL    HW257053  11.180  13.575   9.988
85072SOL     OW57054   8.370   9.388  13.389
85072SOL    HW157055   8.421   9.403  13.468
85072SOL    HW257056   8.329   9.472  13.370
85073SOL     OW57057   8.441   9.831   7.246
85073SOL    HW157058   8.461   9.925   7.238
85073SOL    HW257059   8.394   9.810   7.165
85074SOL     OW57060   1.906  12.360   8.501
85074SOL    HW157061   1.889  12.273   8.537
85074SOL    HW257062   2.002  12.368   8.504
85075SOL     OW57063   9.956  13.435  10.261
85075SOL    HW157064   9.986  13.352  10.224
85075SOL    HW257065   9.861  13.429  10.260
85076SOL     OW57066  13.802   5.906   4.439
85076SOL    HW157067  13.798   5.821   4.394
85076SOL    HW257068  13.751   5.892   4.519
85077SOL     OW57069   0.794   2.083   9.239
85077SOL    HW157070   0.850   2.137   9.185
85077SOL    HW257071   0.730   2.144   9.277
85078SOL     OW57072  12.066   7.677   5.126
85078SOL    HW157073  12.049   7.756   5.176
85078SOL    HW257074  11.989   7.667   5.069
85079SOL     OW57075   5.566   6.472   8.299
85079SOL    HW157076   5.647   6.427   8.274
85079SOL    HW257077   5.515   6.404   8.345
85080SOL     OW57078  14.184   8.014  11.933
85080SOL    HW157079  14.182   7.928  11.891
85080SOL    HW257080  14.095   8.046  11.928
85081SOL     OW57081   6.952   5.104  12.752
85081SOL    HW157082   6.973   5.141  12.838
85081SOL    HW257083   6.859   5.083  12.756
85082SOL     OW57084  14.542  12.977   0.606
85082SOL    HW157085  14.612  12.924   0.645
85082SOL    HW257086  14.474  12.981   0.673
85083SOL     OW57087   1.585  11.441   7.425
85083SOL    HW157088   1.513  11.439   7.488
85083SOL    HW257089   1.656  11.393   7.468
85084SOL     OW57090  12.065   8.500   4.764
85084SOL    HW157091  12.122   8.560   4.813
85084SOL    HW257092  12.008   8.558   4.713
85085SOL     OW57093  10.780  11.467  10.838
85085SOL    HW157094  10.824  11.387  10.868
85085SOL    HW257095  10.852  11.526  10.815
85086SOL     OW57096   4.754   5.832   0.601
85086SOL    HW157097   4.782   5.899   0.665
85086SOL    HW257098   4.822   5.834   0.534
85087SOL     OW57099  12.467   6.634  11.955
85087SOL    HW157100  12.513   6.697  12.011
85087SOL    HW257101  12.475   6.671  11.867
85088SOL     OW57102   9.590  11.652   8.550
85088SOL    HW157103   9.631  11.600   8.619
85088SOL    HW257104   9.652  11.723   8.533
85089SOL     OW57105   5.315   1.295   1.744
85089SOL    HW157106   5.304   1.300   1.839
85089SOL    HW257107   5.294   1.383   1.713
85090SOL     OW57108   9.947  10.674   4.582
85090SOL    HW157109   9.959  10.688   4.488
85090SOL    HW257110   9.863  10.629   4.589
85091SOL     OW57111   3.073   8.321   9.884
85091SOL    HW157112   3.119   8.323   9.969
85091SOL    HW257113   3.126   8.263   9.830
85092SOL     OW57114   4.666  11.280   7.432
85092SOL    HW157115   4.684  11.188   7.412
85092SOL    HW257116   4.609  11.309   7.361
85093SOL     OW57117   2.431   2.044   8.048
85093SOL    HW157118   2.398   1.977   8.106
85093SOL    HW257119   2.389   2.027   7.964
85094SOL     OW57120   0.477   9.010   2.266
85094SOL    HW157121   0.385   8.992   2.285
85094SOL    HW257122   0.515   9.031   2.351
85095SOL     OW57123   4.383   9.531   4.691
85095SOL    HW157124   4.462   9.525   4.744
85095SOL    HW257125   4.317   9.567   4.751
85096SOL     OW57126   1.111   3.045  12.353
85096SOL    HW157127   1.160   3.033  12.272
85096SOL    HW257128   1.026   3.079  12.326
85097SOL     OW57129   5.705   9.998   0.653
85097SOL    HW157130   5.693   9.933   0.722
85097SOL    HW257131   5.677   9.954   0.573
85098SOL     OW57132  10.640   7.998   3.045
85098SOL    HW157133  10.612   8.090   3.050
85098SOL    HW257134  10.621   7.972   2.954
85099SOL     OW57135   0.777   2.405   8.538
85099SOL    HW157136   0.772   2.382   8.446
85099SOL    HW257137   0.696   2.452   8.556
85100SOL     OW57138   6.451  11.831   2.708
85100SOL    HW157139   6.436  11.819   2.802
85100SOL    HW257140   6.396  11.906   2.685
85101SOL     OW57141   5.946   8.195   8.092
85101SOL    HW157142   5.855   8.166   8.102
85101SOL    HW257143   5.998   8.117   8.113
85102SOL     OW57144   1.959   7.675  11.496
85102SOL    HW157145   2.007   7.731  11.435
85102SOL    HW257146   2.007   7.683  11.578
85103SOL     OW57147   9.080   1.879  10.916
85103SOL    HW157148   9.109   1.799  10.959
85103SOL    HW257149   9.161   1.926  10.896
85104SOL     OW57150  11.822  12.069   3.499
85104SOL    HW157151  11.836  12.163   3.482
85104SOL    HW257152  11.733  12.065   3.535
85105SOL     OW57153   6.386   2.420   9.575
85105SOL    HW157154   6.291   2.422   9.579
85105SOL    HW257155   6.406   2.418   9.482
85106SOL     OW57156   0.761   7.331   2.717
85106SOL    HW157157   0.723   7.360   2.800
85106SOL    HW257158   0.833   7.392   2.702
85107SOL     OW57159   1.807   9.562   2.019
85107SOL    HW157160   1.730   9.596   2.065
85107SOL    HW257161   1.876   9.561   2.086
85108SOL     OW57162   7.944   6.831  10.897
85108SOL    HW157163   8.004   6.904  10.911
85108SOL    HW257164   7.894   6.856  10.820
85109SOL     OW57165  10.480  11.886   4.488
85109SOL    HW157166  10.405  11.841   4.447
85109SOL    HW257167  10.549  11.882   4.422
85110SOL     OW57168   6.258   8.861   7.109
85110SOL    HW157169   6.231   8.804   7.180
85110SOL    HW257170   6.176   8.899   7.076
85111SOL     OW57171   5.848   6.517  13.737
85111SOL    HW157172   5.849   6.564  13.654
85111SOL    HW257173   5.766   6.468  13.737
85112SOL     OW57174   1.225   2.640   7.579
85112SOL    HW157175   1.288   2.674   7.515
85112SOL    HW257176   1.268   2.654   7.664
85113SOL     OW57177   3.468  12.921  11.556
85113SOL    HW157178   3.439  12.938  11.467
85113SOL    HW257179   3.491  13.007  11.591
85114SOL     OW57180   6.505  13.227   6.076
85114SOL    HW157181   6.546  13.181   6.150
85114SOL    HW257182   6.578  13.247   6.017
85115SOL     OW57183   4.981  14.437   9.546
85115SOL    HW157184   4.901  14.388   9.561
85115SOL    HW257185   5.048  14.370   9.529
85116SOL     OW57186  12.194   6.025   5.415
85116SOL    HW157187  12.131   6.094   5.397
85116SOL    HW257188  12.271   6.047   5.362
85117SOL     OW57189  11.231   6.627  12.728
85117SOL    HW157190  11.196   6.564  12.791
85117SOL    HW257191  11.153   6.664  12.686
85118SOL     OW57192  10.371  11.775   2.460
85118SOL    HW157193  10.451  11.814   2.494
85118SOL    HW257194  10.304  11.798   2.524
85119SOL     OW57195   0.779  11.783   2.463
85119SOL    HW157196   0.772  11.704   2.409
85119SOL    HW257197   0.783  11.751   2.553
85120SOL     OW57198  13.402   5.291   6.771
85120SOL    HW157199  13.389   5.287   6.866
85120SOL    HW257200  13.464   5.220   6.752
85121SOL     OW57201  12.956   3.750   2.515
85121SOL    HW157202  12.873   3.706   2.501
85121SOL    HW257203  12.981   3.726   2.604
85122SOL     OW57204  12.971  12.926   9.429
85122SOL    HW157205  12.928  12.850   9.390
85122SOL    HW257206  13.007  12.893   9.511
85123SOL     OW57207   4.176  14.095  14.269
85123SOL    HW157208   4.111  14.069  14.205
85123SOL    HW257209   4.190  14.017  14.322
85124SOL     OW57210  10.589   2.547  10.770
85124SOL    HW157211  10.560   2.522  10.857
85124SOL    HW257212  10.540   2.626  10.750
85125SOL     OW57213   0.518   4.991   0.304
85125SOL    HW157214   0.554   4.949   0.226
85125SOL    HW257215   0.527   4.926   0.373
85126SOL     OW57216   9.873   6.424   4.799
85126SOL    HW157217   9.823   6.476   4.863
85126SOL    HW257218   9.920   6.360   4.852
85127SOL     OW57219   9.416  10.277   9.558
85127SOL    HW157220   9.479  10.218   9.516
85127SOL    HW257221   9.334  10.262   9.511
85128SOL     OW57222  13.701   2.325   5.068
85128SOL    HW157223  13.674   2.414   5.045
85128SOL    HW257224  13.630   2.293   5.124
85129SOL     OW57225   9.589   1.490  10.439
85129SOL    HW157226   9.514   1.430  10.446
85129SOL    HW257227   9.557   1.572  10.476
85130SOL     OW57228   1.370  11.722  11.176
85130SOL    HW157229   1.438  11.717  11.242
85130SOL    HW257230   1.305  11.782  11.212
85131SOL     OW57231   2.640   9.176  14.276
85131SOL    HW157232   2.707   9.114  14.248
85131SOL    HW257233   2.568   9.121  14.308
85132SOL     OW57234  11.795   1.918  12.041
85132SOL    HW157235  11.886   1.947  12.030
85132SOL    HW257236  11.801   1.843  12.101
85133SOL     OW57237  12.322   5.762   6.832
85133SOL    HW157238  12.269   5.738   6.908
85133SOL    HW257239  12.260   5.806   6.773
85134SOL     OW57240  13.985   4.979   5.314
85134SOL    HW157241  13.936   4.948   5.390
85134SOL    HW257242  13.925   4.965   5.240
85135SOL     OW57243   5.014   4.894   1.401
85135SOL    HW157244   4.949   4.960   1.377
85135SOL    HW257245   4.971   4.810   1.382
85136SOL     OW57246   2.667  12.196  12.205
85136SOL    HW157247   2.660  12.285  12.170
85136SOL    HW257248   2.589  12.152  12.172
85137SOL     OW57249  10.930   8.351   9.893
85137SOL    HW157250  10.857   8.294   9.918
85137SOL    HW257251  10.993   8.292   9.852
85138SOL     OW57252   0.788   0.880   6.388
85138SOL    HW157253   0.818   0.971   6.387
85138SOL    HW257254   0.720   0.877   6.320
85139SOL     OW57255   8.950  14.049  14.263
85139SOL    HW157256   8.944  14.139  14.293
85139SOL    HW257257   9.035  14.044  14.220
85140SOL     OW57258  11.595   5.413   3.544
85140SOL    HW157259  11.626   5.502   3.561
85140SOL    HW257260  11.536   5.422   3.470
85141SOL     OW57261   1.137   9.290   4.641
85141SOL    HW157262   1.077   9.301   4.566
85141SOL    HW257263   1.189   9.370   4.641
85142SOL     OW57264  12.012   3.193   9.338
85142SOL    HW157265  12.084   3.254   9.328
85142SOL    HW257266  11.973   3.215   9.423
85143SOL     OW57267   2.269   4.169  14.353
85143SOL    HW157268   2.183   4.201  14.382
85143SOL    HW257269   2.332   4.223  14.400
85144SOL     OW57270   4.143   7.401   7.737
85144SOL    HW157271   4.122   7.455   7.814
85144SOL    HW257272   4.058   7.367   7.708
85145SOL     OW57273   8.682   2.800  11.596
85145SOL    HW157274   8.712   2.736  11.661
85145SOL    HW257275   8.763   2.833  11.556
85146SOL     OW57276   0.204   4.085  12.852
85146SOL    HW157277   0.217   4.046  12.765
85146SOL    HW257278   0.170   4.015  12.906
85147SOL     OW57279  13.047  10.260   3.215
85147SOL    HW157280  13.118  10.263   3.151
85147SOL    HW257281  13.018  10.168   3.216
85148SOL     OW57282   2.367  13.994   4.703
85148SOL    HW157283   2.453  14.031   4.722
85148SOL    HW257284   2.346  13.941   4.780
85149SOL     OW57285   1.448  11.120  12.682
85149SOL    HW157286   1.408  11.047  12.634
85149SOL    HW257287   1.380  11.188  12.684
85150SOL     OW57288   4.818   9.669   7.655
85150SOL    HW157289   4.846   9.584   7.619
85150SOL    HW257290   4.838   9.732   7.585
85151SOL     OW57291   3.161   9.142   5.732
85151SOL    HW157292   3.254   9.159   5.747
85151SOL    HW257293   3.157   9.048   5.714
85152SOL     OW57294   1.035   6.928  13.568
85152SOL    HW157295   1.028   6.846  13.618
85152SOL    HW257296   0.947   6.941  13.533
85153SOL     OW57297  10.761   5.037  14.368
85153SOL    HW157298  10.806   5.119  14.386
85153SOL    HW257299  10.831   4.975  14.347
85154SOL     OW57300   2.809   9.200  13.604
85154SOL    HW157301   2.876   9.137  13.629
85154SOL    HW257302   2.726   9.152  13.612
85155SOL     OW57303  13.593   5.096   4.471
85155SOL    HW157304  13.661   5.152   4.509
85155SOL    HW257305  13.639   5.014   4.449
85156SOL     OW57306   0.939  14.636   9.877
85156SOL    HW157307   0.991  14.697   9.824
85156SOL    HW257308   0.959  14.550   9.840
85157SOL     OW57309   4.391   0.936   0.205
85157SOL    HW157310   4.430   0.902   0.286
85157SOL    HW257311   4.383   0.858   0.149
85158SOL     OW57312   3.871   5.636   9.325
85158SOL    HW157313   3.950   5.604   9.368
85158SOL    HW257314   3.877   5.601   9.236
85159SOL     OW57315  10.083   2.911  14.718
85159SOL    HW157316  10.156   2.857  14.745
85159SOL    HW257317  10.122   2.996  14.698
85160SOL     OW57318  12.769   3.422  11.218
85160SOL    HW157319  12.741   3.511  11.239
85160SOL    HW257320  12.860   3.419  11.246
85161SOL     OW57321   1.477   0.724  11.262
85161SOL    HW157322   1.569   0.747  11.253
85161SOL    HW257323   1.453   0.688  11.176
85162SOL     OW57324   1.472   0.475  14.069
85162SOL    HW157325   1.393   0.420  14.060
85162SOL    HW257326   1.542   0.413  14.090
85163SOL     OW57327   7.514   5.017   2.773
85163SOL    HW157328   7.512   4.981   2.861
85163SOL    HW257329   7.560   5.101   2.782
85164SOL     OW57330  11.337   7.541   2.002
85164SOL    HW157331  11.301   7.454   1.990
85164SOL    HW257332  11.345   7.551   2.097
85165SOL     OW57333  10.677   1.936   4.814
85165SOL    HW157334  10.593   1.923   4.858
85165SOL    HW257335  10.740   1.891   4.869
85166SOL     OW57336   4.770   3.777  13.708
85166SOL    HW157337   4.740   3.734  13.787
85166SOL    HW257338   4.861   3.750  13.699
85167SOL     OW57339   5.376   5.094   8.369
85167SOL    HW157340   5.305   5.069   8.310
85167SOL    HW257341   5.420   5.166   8.323
85168SOL     OW57342   4.656   5.929   9.586
85168SOL    HW157343   4.712   6.004   9.566
85168SOL    HW257344   4.568   5.958   9.565
85169SOL     OW57345   2.131   8.807   5.812
85169SOL    HW157346   2.157   8.734   5.755
85169SOL    HW257347   2.064   8.770   5.869
85170SOL     OW57348   7.245   3.840   9.094
85170SOL    HW157349   7.206   3.919   9.133
85170SOL    HW257350   7.193   3.824   9.015
85171SOL     OW57351   4.488  13.764   0.639
85171SOL    HW157352   4.477  13.684   0.689
85171SOL    HW257353   4.538  13.738   0.561
85172SOL     OW57354   4.482   7.497   0.984
85172SOL    HW157355   4.505   7.574   0.931
85172SOL    HW257356   4.390   7.511   1.007
85173SOL     OW57357   8.921  10.897   1.521
85173SOL    HW157358   8.840  10.887   1.571
85173SOL    HW257359   8.898  10.953   1.447
85174SOL     OW57360  11.544   9.452   0.213
85174SOL    HW157361  11.514   9.542   0.218
85174SOL    HW257362  11.518   9.413   0.297
85175SOL     OW57363   7.464  13.163  14.568
85175SOL    HW157364   7.539  13.176  14.626
85175SOL    HW257365   7.484  13.083  14.520
85176SOL     OW57366  10.226   3.015   0.764
85176SOL    HW157367  10.139   3.001   0.802
85176SOL    HW257368  10.271   3.070   0.828
85177SOL     OW57369   1.224   4.394   2.391
85177SOL    HW157370   1.238   4.316   2.337
85177SOL    HW257371   1.135   4.386   2.423
85178SOL     OW57372   7.684   6.122   6.585
85178SOL    HW157373   7.677   6.169   6.668
85178SOL    HW257374   7.768   6.150   6.549
85179SOL     OW57375   2.779   4.985   8.198
85179SOL    HW157376   2.701   4.928   8.195
85179SOL    HW257377   2.811   4.986   8.108
85180SOL     OW57378   2.632   1.863   9.104
85180SOL    HW157379   2.669   1.935   9.052
85180SOL    HW257380   2.635   1.894   9.194
85181SOL     OW57381   1.019   1.824  10.046
85181SOL    HW157382   0.975   1.795  10.125
85181SOL    HW257383   1.078   1.894  10.075
85182SOL     OW57384  14.315   8.235  10.949
85182SOL    HW157385  14.273   8.260  10.867
85182SOL    HW257386  14.408   8.226  10.926
85183SOL     OW57387   8.103   5.596   8.382
85183SOL    HW157388   8.067   5.675   8.422
85183SOL    HW257389   8.193   5.618   8.360
85184SOL     OW57390   3.663   3.239   2.595
85184SOL    HW157391   3.639   3.149   2.618
85184SOL    HW257392   3.744   3.255   2.643
85185SOL     OW57393   5.902   4.054   3.533
85185SOL    HW157394   5.874   4.040   3.624
85185SOL    HW257395   5.984   4.102   3.540
85186SOL     OW57396   0.995   2.745   8.545
85186SOL    HW157397   0.954   2.832   8.543
85186SOL    HW257398   1.072   2.753   8.488
85187SOL     OW57399   5.001   0.131  13.918
85187SOL    HW157400   4.918   0.179  13.908
85187SOL    HW257401   5.051   0.183  13.980
85188SOL     OW57402   3.137   1.965   6.796
85188SOL    HW157403   3.189   2.044   6.813
85188SOL    HW257404   3.163   1.904   6.865
85189SOL     OW57405   4.482   0.539   6.185
85189SOL    HW157406   4.479   0.587   6.268
85189SOL    HW257407   4.428   0.590   6.126
85190SOL     OW57408   4.466   4.002   0.925
85190SOL    HW157409   4.486   4.077   0.981
85190SOL    HW257410   4.548   3.983   0.879
85191SOL     OW57411   6.206   4.530   3.649
85191SOL    HW157412   6.167   4.612   3.620
85191SOL    HW257413   6.171   4.464   3.588
85192SOL     OW57414  12.580   4.062   9.787
85192SOL    HW157415  12.611   3.997   9.850
85192SOL    HW257416  12.623   4.040   9.705
85193SOL     OW57417   9.368   7.401   0.867
85193SOL    HW157418   9.341   7.434   0.781
85193SOL    HW257419   9.413   7.319   0.848
85194SOL     OW57420   4.875  10.320  14.797
85194SOL    HW157421   4.852  10.358   0.008
85194SOL    HW257422   4.964  10.286  14.810
85195SOL     OW57423   5.206  10.928  11.079
85195SOL    HW157424   5.177  10.896  10.994
85195SOL    HW257425   5.166  11.014  11.087
85196SOL     OW57426   8.430   8.240  12.230
85196SOL    HW157427   8.520   8.274  12.238
85196SOL    HW257428   8.375   8.314  12.256
85197SOL     OW57429   0.980  10.955   7.303
85197SOL    HW157430   0.912  11.016   7.330
85197SOL    HW257431   1.004  10.908   7.383
85198SOL     OW57432  10.528   9.515  11.863
85198SOL    HW157433  10.571   9.495  11.781
85198SOL    HW257434  10.590   9.487  11.931
85199SOL     OW57435  12.554  13.377  11.105
85199SOL    HW157436  12.476  13.352  11.155
85199SOL    HW257437  12.616  13.406  11.171
85200SOL     OW57438   8.005   7.786  13.099
85200SOL    HW157439   8.095   7.753  13.102
85200SOL    HW257440   8.005   7.849  13.028
85201SOL     OW57441  10.014   8.646  11.680
85201SOL    HW157442   9.989   8.572  11.735
85201SOL    HW257443   9.931   8.684  11.651
85202SOL     OW57444   3.990   5.217   0.396
85202SOL    HW157445   3.939   5.215   0.315
85202SOL    HW257446   3.936   5.168   0.459
85203SOL     OW57447  10.182   4.403   8.632
85203SOL    HW157448  10.092   4.379   8.609
85203SOL    HW257449  10.172   4.472   8.697
85204SOL     OW57450   7.058   6.175  11.920
85204SOL    HW157451   6.991   6.216  11.867
85204SOL    HW257452   7.127   6.241  11.929
85205SOL     OW57453   4.347   5.298   5.302
85205SOL    HW157454   4.363   5.264   5.214
85205SOL    HW257455   4.329   5.220   5.355
85206SOL     OW57456   0.134   5.001   9.699
85206SOL    HW157457   0.100   5.007   9.610
85206SOL    HW257458   0.056   5.003   9.755
85207SOL     OW57459  14.659  11.772   2.194
85207SOL    HW157460  14.638  11.851   2.144
85207SOL    HW257461  14.628  11.700   2.140
85208SOL     OW57462   0.013   3.624  12.863
85208SOL    HW157463  14.864   3.679  12.937
85208SOL    HW257464   0.105   3.602  12.876
85209SOL     OW57465   8.124  10.744   2.572
85209SOL    HW157466   8.125  10.774   2.663
85209SOL    HW257467   8.210  10.769   2.538
85210SOL     OW57468   8.326  13.599   0.688
85210SOL    HW157469   8.359  13.666   0.747
85210SOL    HW257470   8.231  13.602   0.699
85211SOL     OW57471  11.759   8.262   0.707
85211SOL    HW157472  11.734   8.183   0.755
85211SOL    HW257473  11.849   8.279   0.735
85212SOL     OW57474   5.850   9.989   9.838
85212SOL    HW157475   5.785   9.918   9.838
85212SOL    HW257476   5.902   9.974   9.759
85213SOL     OW57477   4.844   9.981   4.078
85213SOL    HW157478   4.819   9.933   3.999
85213SOL    HW257479   4.931  10.017   4.059
85214SOL     OW57480   1.069  12.394   0.495
85214SOL    HW157481   0.988  12.373   0.543
85214SOL    HW257482   1.124  12.317   0.507
85215SOL     OW57483   7.902   8.237  11.730
85215SOL    HW157484   7.985   8.190  11.722
85215SOL    HW257485   7.835   8.169  11.726
85216SOL     OW57486   2.200  14.344  13.555
85216SOL    HW157487   2.195  14.277  13.622
85216SOL    HW257488   2.256  14.307  13.487
85217SOL     OW57489   1.565  10.072   7.463
85217SOL    HW157490   1.631  10.043   7.526
85217SOL    HW257491   1.540   9.993   7.415
85218SOL     OW57492   7.234   0.919  13.714
85218SOL    HW157493   7.297   0.859  13.675
85218SOL    HW257494   7.154   0.908  13.661
85219SOL     OW57495   6.875  13.136   0.046
85219SOL    HW157496   6.803  13.138  14.858
85219SOL    HW257497   6.952  13.117  14.867
85220SOL     OW57498  13.811   5.535   9.269
85220SOL    HW157499  13.773   5.491   9.194
85220SOL    HW257500  13.811   5.469   9.338
85221SOL     OW57501   0.118   7.790   9.930
85221SOL    HW157502   0.105   7.822   9.841
85221SOL    HW257503   0.140   7.868   9.981
85222SOL     OW57504   7.142  10.451   8.531
85222SOL    HW157505   7.106  10.377   8.483
85222SOL    HW257506   7.105  10.528   8.488
85223SOL     OW57507   5.213   5.278   2.509
85223SOL    HW157508   5.193   5.186   2.493
85223SOL    HW257509   5.197   5.321   2.425
85224SOL     OW57510   5.672   9.495   8.855
85224SOL    HW157511   5.693   9.468   8.766
85224SOL    HW257512   5.720   9.433   8.911
85225SOL     OW57513   6.807   2.669   8.446
85225SOL    HW157514   6.791   2.616   8.367
85225SOL    HW257515   6.901   2.686   8.444
85226SOL     OW57516   3.721  14.615   3.668
85226SOL    HW157517   3.676  14.622   3.752
85226SOL    HW257518   3.752  14.704   3.650
85227SOL     OW57519   2.032   2.402   0.930
85227SOL    HW157520   2.062   2.481   0.885
85227SOL    HW257521   2.082   2.331   0.891
85228SOL     OW57522   9.092   9.319   4.785
85228SOL    HW157523   9.148   9.270   4.845
85228SOL    HW257524   9.034   9.253   4.748
85229SOL     OW57525  12.214   1.456   3.503
85229SOL    HW157526  12.121   1.435   3.498
85229SOL    HW257527  12.249   1.433   3.417
85230SOL     OW57528   9.350   4.193   3.647
85230SOL    HW157529   9.272   4.224   3.600
85230SOL    HW257530   9.367   4.261   3.713
85231SOL     OW57531  11.323   2.017   4.960
85231SOL    HW157532  11.347   2.008   4.868
85231SOL    HW257533  11.294   1.929   4.986
85232SOL     OW57534   1.100  11.762   4.388
85232SOL    HW157535   1.103  11.666   4.386
85232SOL    HW257536   1.098  11.787   4.296
85233SOL     OW57537   5.875   6.942   9.910
85233SOL    HW157538   5.834   6.878   9.968
85233SOL    HW257539   5.968   6.920   9.910
85234SOL     OW57540   3.984  12.583  10.253
85234SOL    HW157541   4.001  12.599  10.345
85234SOL    HW257542   4.044  12.513  10.228
85235SOL     OW57543  14.568   1.633  11.594
85235SOL    HW157544  14.652   1.587  11.598
85235SOL    HW257545  14.523   1.593  11.520
85236SOL     OW57546   9.514  12.208   9.474
85236SOL    HW157547   9.578  12.182   9.540
85236SOL    HW257548   9.507  12.303   9.483
85237SOL     OW57549   4.209   4.139  12.327
85237SOL    HW157550   4.265   4.079  12.375
85237SOL    HW257551   4.259   4.162  12.248
85238SOL     OW57552  11.861   8.854   4.174
85238SOL    HW157553  11.794   8.883   4.112
85238SOL    HW257554  11.828   8.880   4.260
85239SOL     OW57555   1.810   0.999   5.869
85239SOL    HW157556   1.716   0.985   5.871
85239SOL    HW257557   1.842   0.964   5.952
85240SOL     OW57558  10.713   9.007   6.824
85240SOL    HW157559  10.801   8.997   6.862
85240SOL    HW257560  10.663   9.053   6.892
85241SOL     OW57561  12.629   4.998  10.187
85241SOL    HW157562  12.682   5.040  10.254
85241SOL    HW257563  12.559   5.061  10.169
85242SOL     OW57564  12.024  14.851  13.992
85242SOL    HW157565  11.952  14.794  13.964
85242SOL    HW257566  12.101  14.815  13.948
85243SOL     OW57567  12.699   5.412  12.771
85243SOL    HW157568  12.686   5.320  12.747
85243SOL    HW257569  12.763   5.409  12.843
85244SOL     OW57570   4.246   4.970  12.930
85244SOL    HW157571   4.214   5.058  12.913
85244SOL    HW257572   4.168   4.914  12.923
85245SOL     OW57573   9.023  10.576   7.636
85245SOL    HW157574   8.942  10.526   7.633
85245SOL    HW257575   9.071  10.540   7.711
85246SOL     OW57576  14.685  10.734   3.730
85246SOL    HW157577  14.711  10.812   3.681
85246SOL    HW257578  14.589  10.738   3.733
85247SOL     OW57579   2.655   8.660   2.957
85247SOL    HW157580   2.748   8.663   2.936
85247SOL    HW257581   2.622   8.746   2.932
85248SOL     OW57582  14.205  14.395   8.937
85248SOL    HW157583  14.252  14.469   8.897
85248SOL    HW257584  14.204  14.416   9.030
85249SOL     OW57585   5.010  10.089  11.536
85249SOL    HW157586   5.078  10.134  11.586
85249SOL    HW257587   4.952  10.158  11.506
85250SOL     OW57588   3.073   8.499  13.735
85250SOL    HW157589   3.147   8.466  13.786
85250SOL    HW257590   3.050   8.426  13.678
85251SOL     OW57591   6.005   9.628   4.426
85251SOL    HW157592   5.965   9.544   4.406
85251SOL    HW257593   5.954   9.663   4.499
85252SOL     OW57594   6.748  13.039   6.831
85252SOL    HW157595   6.762  13.134   6.838
85252SOL    HW257596   6.791  13.003   6.908
85253SOL     OW57597   7.810   5.914   4.433
85253SOL    HW157598   7.739   5.902   4.371
85253SOL    HW257599   7.792   5.850   4.503
85254SOL     OW57600   0.466  11.355   4.240
85254SOL    HW157601   0.528  11.414   4.283
85254SOL    HW257602   0.477  11.271   4.286
85255SOL     OW57603   2.654   6.437   2.574
85255SOL    HW157604   2.708   6.506   2.613
85255SOL    HW257605   2.675   6.358   2.624
85256SOL     OW57606   1.425  14.270  14.435
85256SOL    HW157607   1.401  14.301  14.348
85256SOL    HW257608   1.343  14.235  14.471
85257SOL     OW57609   6.570   6.925   7.464
85257SOL    HW157610   6.623   6.976   7.402
85257SOL    HW257611   6.573   6.977   7.545
85258SOL     OW57612   0.674   8.904   8.528
85258SOL    HW157613   0.764   8.924   8.556
85258SOL    HW257614   0.620   8.928   8.603
85259SOL     OW57615   2.876  11.475  10.641
85259SOL    HW157616   2.850  11.561  10.609
85259SOL    HW257617   2.932  11.439  10.572
85260SOL     OW57618  13.685   5.368  10.987
85260SOL    HW157619  13.672   5.355  11.081
85260SOL    HW257620  13.643   5.452  10.969
85261SOL     OW57621  10.325  10.487   2.164
85261SOL    HW157622  10.263  10.413   2.167
85261SOL    HW257623  10.277  10.556   2.118
85262SOL     OW57624   8.099  10.875  11.831
85262SOL    HW157625   8.144  10.926  11.898
85262SOL    HW257626   8.023  10.838  11.875
85263SOL     OW57627  11.434  10.525   6.502
85263SOL    HW157628  11.373  10.455   6.526
85263SOL    HW257629  11.402  10.602   6.551
85264SOL     OW57630   5.596  13.874   9.174
85264SOL    HW157631   5.578  13.965   9.149
85264SOL    HW257632   5.675  13.852   9.126
85265SOL     OW57633   5.287   7.009   0.854
85265SOL    HW157634   5.230   7.042   0.784
85265SOL    HW257635   5.240   6.934   0.890
85266SOL     OW57636   1.495   0.589   4.301
85266SOL    HW157637   1.483   0.517   4.363
85266SOL    HW257638   1.546   0.550   4.229
85267SOL     OW57639   7.479   4.399  10.468
85267SOL    HW157640   7.417   4.360  10.529
85267SOL    HW257641   7.498   4.330  10.404
85268SOL     OW57642  11.118   2.336  13.323
85268SOL    HW157643  11.043   2.322  13.266
85268SOL    HW257644  11.135   2.250  13.362
85269SOL     OW57645   9.354   9.419   2.682
85269SOL    HW157646   9.340   9.510   2.659
85269SOL    HW257647   9.269   9.377   2.669
85270SOL     OW57648   0.563   5.397   6.049
85270SOL    HW157649   0.560   5.492   6.035
85270SOL    HW257650   0.640   5.383   6.105
85271SOL     OW57651   5.614   8.591   5.923
85271SOL    HW157652   5.614   8.508   5.971
85271SOL    HW257653   5.597   8.658   5.989
85272SOL     OW57654   2.598   1.755   7.831
85272SOL    HW157655   2.649   1.798   7.762
85272SOL    HW257656   2.507   1.767   7.803
85273SOL     OW57657   0.044  10.828   4.175
85273SOL    HW157658  14.873  10.752   4.137
85273SOL    HW257659  14.865  10.851   4.252
85274SOL     OW57660  12.725  11.463   1.211
85274SOL    HW157661  12.645  11.515   1.222
85274SOL    HW257662  12.720  11.429   1.122
85275SOL     OW57663   0.974  11.374   9.839
85275SOL    HW157664   0.882  11.351   9.835
85275SOL    HW257665   0.979  11.439   9.910
85276SOL     OW57666   8.307  13.691   8.020
85276SOL    HW157667   8.215  13.719   8.018
85276SOL    HW257668   8.311  13.627   8.090
85277SOL     OW57669   6.965   1.898  11.592
85277SOL    HW157670   7.003   1.974  11.637
85277SOL    HW257671   7.007   1.823  11.632
85278SOL     OW57672   7.618   3.116  11.208
85278SOL    HW157673   7.587   3.028  11.231
85278SOL    HW257674   7.606   3.167  11.287
85279SOL     OW57675  13.134   2.355   1.997
85279SOL    HW157676  13.212   2.357   1.942
85279SOL    HW257677  13.106   2.264   1.996
85280SOL     OW57678   0.483   1.086  12.775
85280SOL    HW157679   0.404   1.140  12.777
85280SOL    HW257680   0.545   1.137  12.723
85281SOL     OW57681   0.169   0.287   5.070
85281SOL    HW157682   0.260   0.313   5.088
85281SOL    HW257683   0.177   0.203   5.026
85282SOL     OW57684   0.189  14.744   6.105
85282SOL    HW157685   0.125  14.675   6.086
85282SOL    HW257686   0.152  14.823   6.064
85283SOL     OW57687   7.147  14.053  12.073
85283SOL    HW157688   7.133  14.083  12.163
85283SOL    HW257689   7.068  14.077  12.026
85284SOL     OW57690   7.038   9.296   4.923
85284SOL    HW157691   7.008   9.306   5.013
85284SOL    HW257692   6.959   9.279   4.872
85285SOL     OW57693  10.346   4.183  10.900
85285SOL    HW157694  10.378   4.166  10.811
85285SOL    HW257695  10.269   4.127  10.909
85286SOL     OW57696   8.103   5.126   5.008
85286SOL    HW157697   8.187   5.123   4.963
85286SOL    HW257698   8.044   5.074   4.953
85287SOL     OW57699   2.166  13.566   6.786
85287SOL    HW157700   2.144  13.546   6.695
85287SOL    HW257701   2.096  13.624   6.816
85288SOL     OW57702  13.772   7.587  11.081
85288SOL    HW157703  13.859   7.561  11.114
85288SOL    HW257704  13.788   7.612  10.990
85289SOL     OW57705   6.120   4.548   4.887
85289SOL    HW157706   6.177   4.559   4.811
85289SOL    HW257707   6.099   4.455   4.888
85290SOL     OW57708  11.318   8.504   3.806
85290SOL    HW157709  11.228   8.509   3.839
85290SOL    HW257710  11.332   8.411   3.790
85291SOL     OW57711   2.626   0.422   7.641
85291SOL    HW157712   2.591   0.344   7.598
85291SOL    HW257713   2.699   0.449   7.585
85292SOL     OW57714   3.064   4.774  12.117
85292SOL    HW157715   3.019   4.842  12.067
85292SOL    HW257716   3.008   4.696  12.107
85293SOL     OW57717  14.555   1.900  11.622
85293SOL    HW157718  14.639   1.920  11.663
85293SOL    HW257719  14.552   1.805  11.618
85294SOL     OW57720   9.760   4.234   6.181
85294SOL    HW157721   9.814   4.306   6.146
85294SOL    HW257722   9.751   4.254   6.274
85295SOL     OW57723  14.364   2.847   2.183
85295SOL    HW157724  14.273   2.866   2.162
85295SOL    HW257725  14.389   2.778   2.122
85296SOL     OW57726  13.746  13.337   4.306
85296SOL    HW157727  13.701  13.267   4.259
85296SOL    HW257728  13.680  13.406   4.315
85297SOL     OW57729   5.308  13.001   2.644
85297SOL    HW157730   5.398  12.979   2.621
85297SOL    HW257731   5.267  13.029   2.562
85298SOL     OW57732  12.706   2.309   7.327
85298SOL    HW157733  12.616   2.322   7.356
85298SOL    HW257734  12.706   2.335   7.235
85299SOL     OW57735  11.222  14.481   0.205
85299SOL    HW157736  11.249  14.407   0.151
85299SOL    HW257737  11.260  14.557   0.162
85300SOL     OW57738  14.384   9.841   4.432
85300SOL    HW157739  14.394   9.746   4.441
85300SOL    HW257740  14.437   9.864   4.356
85301SOL     OW57741   5.199   9.696   5.051
85301SOL    HW157742   5.228   9.644   5.126
85301SOL    HW257743   5.118   9.652   5.022
85302SOL     OW57744   5.629   8.377  10.144
85302SOL    HW157745   5.652   8.462  10.106
85302SOL    HW257746   5.668   8.379  10.231
85303SOL     OW57747   4.685  13.218  12.423
85303SOL    HW157748   4.705  13.189  12.512
85303SOL    HW257749   4.606  13.170  12.399
85304SOL     OW57750   1.220   8.892   9.541
85304SOL    HW157751   1.216   8.958   9.472
85304SOL    HW257752   1.154   8.919   9.604
85305SOL     OW57753   7.582  10.070   8.739
85305SOL    HW157754   7.662  10.037   8.779
85305SOL    HW257755   7.612  10.135   8.675
85306SOL     OW57756  12.714  10.935  10.631
85306SOL    HW157757  12.693  10.843  10.648
85306SOL    HW257758  12.660  10.984  10.693
85307SOL     OW57759   4.416   0.290  13.557
85307SOL    HW157760   4.382   0.293  13.647
85307SOL    HW257761   4.432   0.382  13.535
85308SOL     OW57762  10.342   2.459   0.657
85308SOL    HW157763  10.428   2.418   0.644
85308SOL    HW257764  10.302   2.456   0.570
85309SOL     OW57765  13.558   6.078   6.813
85309SOL    HW157766  13.581   6.052   6.902
85309SOL    HW257767  13.624   6.143   6.789
85310SOL     OW57768   6.130  10.742   2.221
85310SOL    HW157769   6.150  10.687   2.145
85310SOL    HW257770   6.102  10.681   2.289
85311SOL     OW57771  13.247   2.197  10.911
85311SOL    HW157772  13.325   2.196  10.857
85311SOL    HW257773  13.196   2.122  10.880
85312SOL     OW57774   6.690   1.277   4.254
85312SOL    HW157775   6.631   1.338   4.209
85312SOL    HW257776   6.636   1.237   4.322
85313SOL     OW57777  11.628   2.279  13.387
85313SOL    HW157778  11.688   2.305  13.317
85313SOL    HW257779  11.676   2.295  13.468
85314SOL     OW57780   1.613  13.902  13.138
85314SOL    HW157781   1.657  13.828  13.180
85314SOL    HW257782   1.541  13.863  13.088
85315SOL     OW57783   4.541   2.688   1.613
85315SOL    HW157784   4.502   2.658   1.696
85315SOL    HW257785   4.476   2.747   1.576
85316SOL     OW57786   9.110   5.359   9.973
85316SOL    HW157787   9.154   5.422   9.915
85316SOL    HW257788   9.156   5.277   9.958
85317SOL     OW57789  12.134  12.800   1.342
85317SOL    HW157790  12.095  12.887   1.349
85317SOL    HW257791  12.066  12.747   1.301
85318SOL     OW57792  13.506  13.429  12.715
85318SOL    HW157793  13.437  13.370  12.744
85318SOL    HW257794  13.580  13.411  12.773
85319SOL     OW57795   0.556   1.244   3.746
85319SOL    HW157796   0.557   1.338   3.766
85319SOL    HW257797   0.529   1.239   3.655
85320SOL     OW57798   7.512   7.145   4.202
85320SOL    HW157799   7.546   7.055   4.204
85320SOL    HW257800   7.454   7.150   4.278
85321SOL     OW57801   2.710   8.263   7.174
85321SOL    HW157802   2.797   8.301   7.170
85321SOL    HW257803   2.724   8.170   7.189
85322SOL     OW57804   3.227   0.863  11.285
85322SOL    HW157805   3.217   0.809  11.206
85322SOL    HW257806   3.185   0.946  11.264
85323SOL     OW57807   8.395  10.395   3.574
85323SOL    HW157808   8.444  10.350   3.643
85323SOL    HW257809   8.326  10.333   3.550
85324SOL     OW57810   1.271   3.738   6.740
85324SOL    HW157811   1.341   3.704   6.686
85324SOL    HW257812   1.195   3.683   6.720
85325SOL     OW57813   0.148   4.457  14.284
85325SOL    HW157814   0.200   4.532  14.256
85325SOL    HW257815   0.212   4.390  14.309
85326SOL     OW57816   6.284  10.215  12.426
85326SOL    HW157817   6.314  10.153  12.359
85326SOL    HW257818   6.218  10.166  12.476
85327SOL     OW57819   9.857   2.112   6.337
85327SOL    HW157820   9.919   2.103   6.265
85327SOL    HW257821   9.791   2.045   6.320
85328SOL     OW57822   1.821  14.302   9.937
85328SOL    HW157823   1.792  14.374   9.994
85328SOL    HW257824   1.842  14.231   9.998
85329SOL     OW57825   8.611  12.127   1.031
85329SOL    HW157826   8.566  12.190   0.975
85329SOL    HW257827   8.588  12.042   0.994
85330SOL     OW57828   8.163  13.077   6.115
85330SOL    HW157829   8.164  12.982   6.132
85330SOL    HW257830   8.214  13.115   6.186
85331SOL     OW57831   3.747   8.196   2.942
85331SOL    HW157832   3.823   8.230   2.894
85331SOL    HW257833   3.702   8.140   2.878
85332SOL     OW57834   9.782   5.618   9.315
85332SOL    HW157835   9.871   5.641   9.288
85332SOL    HW257836   9.727   5.645   9.242
85333SOL     OW57837   6.714   6.243  13.271
85333SOL    HW157838   6.745   6.294  13.346
85333SOL    HW257839   6.767   6.274  13.198
85334SOL     OW57840   8.573   3.705   0.207
85334SOL    HW157841   8.602   3.671   0.122
85334SOL    HW257842   8.485   3.739   0.191
85335SOL     OW57843  13.910  10.653   8.480
85335SOL    HW157844  13.873  10.565   8.485
85335SOL    HW257845  13.869  10.700   8.552
85336SOL     OW57846   1.793   7.667  13.451
85336SOL    HW157847   1.777   7.678  13.357
85336SOL    HW257848   1.714   7.623  13.483
85337SOL     OW57849   0.580   3.437  11.586
85337SOL    HW157850   0.562   3.531  11.592
85337SOL    HW257851   0.672   3.432  11.559
85338SOL     OW57852   5.352  13.702  11.436
85338SOL    HW157853   5.422  13.638  11.423
85338SOL    HW257854   5.390  13.785  11.409
85339SOL     OW57855   0.579  11.249  14.127
85339SOL    HW157856   0.594  11.336  14.090
85339SOL    HW257857   0.540  11.199  14.055
85340SOL     OW57858   0.047   5.334  11.356
85340SOL    HW157859   0.025   5.408  11.298
85340SOL    HW257860   0.142   5.338  11.363
85341SOL     OW57861   6.554   3.072   1.159
85341SOL    HW157862   6.620   3.050   1.226
85341SOL    HW257863   6.568   3.165   1.142
85342SOL     OW57864   3.435   9.291  13.007
85342SOL    HW157865   3.455   9.197  13.013
85342SOL    HW257866   3.341   9.294  12.994
85343SOL     OW57867   2.536   6.279   0.463
85343SOL    HW157868   2.629   6.260   0.456
85343SOL    HW257869   2.505   6.222   0.534
85344SOL     OW57870  14.268   1.490  11.679
85344SOL    HW157871  14.242   1.501  11.587
85344SOL    HW257872  14.341   1.550  11.691
85345SOL     OW57873  11.615   0.367   4.882
85345SOL    HW157874  11.663   0.302   4.832
85345SOL    HW257875  11.681   0.409   4.938
85346SOL     OW57876   7.640  13.391  10.921
85346SOL    HW157877   7.688  13.347  10.850
85346SOL    HW257878   7.548  13.379  10.899
85347SOL     OW57879  11.979   5.880   6.918
85347SOL    HW157880  11.932   5.797   6.917
85347SOL    HW257881  12.060   5.861   6.966
85348SOL     OW57882   5.532   9.840   9.318
85348SOL    HW157883   5.509   9.932   9.304
85348SOL    HW257884   5.623   9.843   9.349
85349SOL     OW57885  12.448   6.702  12.275
85349SOL    HW157886  12.538   6.714  12.306
85349SOL    HW257887  12.395   6.760  12.329
85350SOL     OW57888  13.393   5.377  12.531
85350SOL    HW157889  13.420   5.306  12.473
85350SOL    HW257890  13.304   5.353  12.559
85351SOL     OW57891  13.795  14.029  11.421
85351SOL    HW157892  13.709  13.998  11.448
85351SOL    HW257893  13.839  13.952  11.385
85352SOL     OW57894  14.184   8.018  12.753
85352SOL    HW157895  14.091   8.040  12.757
85352SOL    HW257896  14.185   7.923  12.742
85353SOL     OW57897   8.548   1.802  12.843
85353SOL    HW157898   8.640   1.807  12.869
85353SOL    HW257899   8.544   1.727  12.783
85354SOL     OW57900   6.582  12.329   0.099
85354SOL    HW157901   6.506  12.300   0.150
85354SOL    HW257902   6.656  12.321   0.160
85355SOL     OW57903  12.606  10.319   6.908
85355SOL    HW157904  12.654  10.236   6.909
85355SOL    HW257905  12.667  10.383   6.945
85356SOL     OW57906   3.408   2.304  13.420
85356SOL    HW157907   3.463   2.378  13.396
85356SOL    HW257908   3.367   2.277  13.338
85357SOL     OW57909   6.043  10.824   6.311
85357SOL    HW157910   5.981  10.771   6.361
85357SOL    HW257911   6.128  10.806   6.351
85358SOL     OW57912   5.797   4.157   1.326
85358SOL    HW157913   5.889   4.155   1.300
85358SOL    HW257914   5.763   4.237   1.285
85359SOL     OW57915  12.900   1.474   8.772
85359SOL    HW157916  12.984   1.470   8.817
85359SOL    HW257917  12.836   1.449   8.838
85360SOL     OW57918   1.335   9.927   2.531
85360SOL    HW157919   1.378   9.988   2.591
85360SOL    HW257920   1.246   9.961   2.523
85361SOL     OW57921  12.360   9.636   1.989
85361SOL    HW157922  12.323   9.723   2.000
85361SOL    HW257923  12.426   9.628   2.058
85362SOL     OW57924   1.593   2.788  11.966
85362SOL    HW157925   1.604   2.844  11.888
85362SOL    HW257926   1.550   2.709  11.934
85363SOL     OW57927  13.511   0.492  10.440
85363SOL    HW157928  13.479   0.566  10.492
85363SOL    HW257929  13.458   0.418  10.469
85364SOL     OW57930   3.489   1.490   2.779
85364SOL    HW157931   3.553   1.419   2.791
85364SOL    HW257932   3.404   1.449   2.796
85365SOL     OW57933  11.458  10.741   9.877
85365SOL    HW157934  11.464  10.806   9.947
85365SOL    HW257935  11.411  10.785   9.807
85366SOL     OW57936   5.709   7.517   5.231
85366SOL    HW157937   5.789   7.559   5.262
85366SOL    HW257938   5.732   7.424   5.224
85367SOL     OW57939  12.169   6.841  12.287
85367SOL    HW157940  12.185   6.751  12.259
85367SOL    HW257941  12.204   6.845  12.376
85368SOL     OW57942  13.815   9.962   4.922
85368SOL    HW157943  13.744  10.009   4.878
85368SOL    HW257944  13.837  10.017   4.997
85369SOL     OW57945   5.520   3.202   6.641
85369SOL    HW157946   5.588   3.170   6.582
85369SOL    HW257947   5.439   3.165   6.607
85370SOL     OW57948   7.450  12.050  14.287
85370SOL    HW157949   7.437  11.996  14.365
85370SOL    HW257950   7.539  12.083  14.296
85371SOL     OW57951  12.139   8.069   2.888
85371SOL    HW157952  12.194   8.106   2.957
85371SOL    HW257953  12.051   8.102   2.908
85372SOL     OW57954   4.156  13.578   5.551
85372SOL    HW157955   4.156  13.646   5.619
85372SOL    HW257956   4.159  13.626   5.469
85373SOL     OW57957  14.703  11.968   5.436
85373SOL    HW157958  14.745  12.030   5.495
85373SOL    HW257959  14.615  12.004   5.423
85374SOL     OW57960  11.238   7.863   8.082
85374SOL    HW157961  11.175   7.849   8.152
85374SOL    HW257962  11.200   7.819   8.006
85375SOL     OW57963   8.209  12.918  11.783
85375SOL    HW157964   8.227  13.011  11.801
85375SOL    HW257965   8.291  12.885  11.748
85376SOL     OW57966   9.814   4.263  12.735
85376SOL    HW157967   9.734   4.219  12.765
85376SOL    HW257968   9.807   4.265  12.640
85377SOL     OW57969   0.804  13.567   1.647
85377SOL    HW157970   0.863  13.609   1.583
85377SOL    HW257971   0.717  13.573   1.607
85378SOL     OW57972   6.659   1.944   8.370
85378SOL    HW157973   6.629   1.854   8.357
85378SOL    HW257974   6.667   1.954   8.464
85379SOL     OW57975  12.894  10.873   7.321
85379SOL    HW157976  12.925  10.828   7.243
85379SOL    HW257977  12.952  10.843   7.391
85380SOL     OW57978   8.335   8.069   0.017
85380SOL    HW157979   8.430   8.082   0.019
85380SOL    HW257980   8.300   8.153  14.864
85381SOL     OW57981   2.182   5.275  14.526
85381SOL    HW157982   2.107   5.329  14.500
85381SOL    HW257983   2.258   5.325  14.499
85382SOL     OW57984   8.561   1.682   4.716
85382SOL    HW157985   8.516   1.599   4.701
85382SOL    HW257986   8.518   1.744   4.657
85383SOL     OW57987  14.213   4.076   9.368
85383SOL    HW157988  14.193   4.008   9.431
85383SOL    HW257989  14.180   4.157   9.407
85384SOL     OW57990   6.864   3.271   0.284
85384SOL    HW157991   6.903   3.337   0.341
85384SOL    HW257992   6.859   3.192   0.339
85385SOL     OW57993   2.416  13.224  14.582
85385SOL    HW157994   2.395  13.195  14.671
85385SOL    HW257995   2.483  13.163  14.552
85386SOL     OW57996  13.188  13.936  12.622
85386SOL    HW157997  13.231  13.898  12.545
85386SOL    HW257998  13.137  14.009  12.587
85387SOL     OW57999   4.739  10.650   4.135
85387SOL    HW158000   4.830  10.647   4.165
85387SOL    HW258001   4.729  10.571   4.082
85388SOL     OW58002  11.432  13.232   1.483
85388SOL    HW158003  11.455  13.141   1.465
85388SOL    HW258004  11.363  13.252   1.419
85389SOL     OW58005   4.915  12.160  12.714
85389SOL    HW158006   4.868  12.077  12.721
85389SOL    HW258007   4.981  12.144  12.647
85390SOL     OW58008  14.006  11.242  12.311
85390SOL    HW158009  14.061  11.219  12.237
85390SOL    HW258010  13.932  11.181  12.305
85391SOL     OW58011  13.435   3.325  12.446
85391SOL    HW158012  13.513   3.372  12.476
85391SOL    HW258013  13.443   3.239  12.487
85392SOL     OW58014   7.558   4.995   0.747
85392SOL    HW158015   7.638   4.971   0.794
85392SOL    HW258016   7.571   4.961   0.659
85393SOL     OW58017  10.663   7.699   1.470
85393SOL    HW158018  10.758   7.710   1.468
85393SOL    HW258019  10.629   7.789   1.472
85394SOL     OW58020   0.029   8.263   5.402
85394SOL    HW158021   0.069   8.188   5.358
85394SOL    HW258022   0.044   8.247   5.495
85395SOL     OW58023  11.933   8.515   6.835
85395SOL    HW158024  11.876   8.445   6.804
85395SOL    HW258025  11.877   8.593   6.837
85396SOL     OW58026   5.391   8.346   9.791
85396SOL    HW158027   5.420   8.258   9.769
85396SOL    HW258028   5.394   8.349   9.887
85397SOL     OW58029  12.838  12.039  12.990
85397SOL    HW158030  12.875  12.099  13.055
85397SOL    HW258031  12.753  12.078  12.969
85398SOL     OW58032  11.327  10.989   4.396
85398SOL    HW158033  11.297  10.898   4.390
85398SOL    HW258034  11.259  11.034   4.447
85399SOL     OW58035   2.158  12.516   7.398
85399SOL    HW158036   2.246  12.535   7.431
85399SOL    HW258037   2.100  12.540   7.471
85400SOL     OW58038  13.612   3.910   4.379
85400SOL    HW158039  13.574   3.883   4.462
85400SOL    HW258040  13.558   3.866   4.313
85401SOL     OW58041  11.388   4.967  10.404
85401SOL    HW158042  11.452   5.031  10.375
85401SOL    HW258043  11.316   4.975  10.341
85402SOL     OW58044  12.201   6.992   9.165
85402SOL    HW158045  12.271   6.939   9.126
85402SOL    HW258046  12.160   7.036   9.091
85403SOL     OW58047   6.868   7.991   4.897
85403SOL    HW158048   6.900   8.073   4.858
85403SOL    HW258049   6.774   7.991   4.879
85404SOL     OW58050   2.368  12.794   6.938
85404SOL    HW158051   2.324  12.711   6.956
85404SOL    HW258052   2.329  12.823   6.855
85405SOL     OW58053   8.587  11.230   4.332
85405SOL    HW158054   8.563  11.171   4.403
85405SOL    HW258055   8.633  11.302   4.375
85406SOL     OW58056   7.787  10.259   0.219
85406SOL    HW158057   7.840  10.303   0.286
85406SOL    HW258058   7.842  10.261   0.141
85407SOL     OW58059  13.399   1.321  10.872
85407SOL    HW158060  13.479   1.274  10.850
85407SOL    HW258061  13.329   1.258  10.858
85408SOL     OW58062   1.185  12.640   9.846
85408SOL    HW158063   1.280  12.642   9.833
85408SOL    HW258064   1.168  12.707   9.912
85409SOL     OW58065   1.025  13.558   4.450
85409SOL    HW158066   1.106  13.523   4.413
85409SOL    HW258067   1.034  13.653   4.442
85410SOL     OW58068   5.846   7.618   9.156
85410SOL    HW158069   5.819   7.582   9.241
85410SOL    HW258070   5.770   7.667   9.126
85411SOL     OW58071   0.659   5.335   3.472
85411SOL    HW158072   0.659   5.429   3.489
85411SOL    HW258073   0.745   5.317   3.435
85412SOL     OW58074  14.283  10.264   6.445
85412SOL    HW158075  14.225  10.192   6.419
85412SOL    HW258076  14.231  10.314   6.508
85413SOL     OW58077   8.556   8.209   9.441
85413SOL    HW158078   8.488   8.222   9.507
85413SOL    HW258079   8.636   8.242   9.482
85414SOL     OW58080  13.171  14.786   7.828
85414SOL    HW158081  13.216  14.767   7.745
85414SOL    HW258082  13.103  14.719   7.834
85415SOL     OW58083  14.145   8.427   9.097
85415SOL    HW158084  14.091   8.504   9.114
85415SOL    HW258085  14.096   8.378   9.031
85416SOL     OW58086   8.416  13.779   8.353
85416SOL    HW158087   8.490  13.751   8.299
85416SOL    HW258088   8.385  13.699   8.395
85417SOL     OW58089  11.269  13.050   0.767
85417SOL    HW158090  11.335  13.113   0.795
85417SOL    HW258091  11.284  13.041   0.673
85418SOL     OW58092   2.303   5.695   4.744
85418SOL    HW158093   2.307   5.699   4.839
85418SOL    HW258094   2.304   5.786   4.716
85419SOL     OW58095  14.277   2.462   1.512
85419SOL    HW158096  14.201   2.443   1.457
85419SOL    HW258097  14.346   2.486   1.450
85420SOL     OW58098  11.129   6.093   8.310
85420SOL    HW158099  11.095   6.004   8.319
85420SOL    HW258100  11.112   6.116   8.219
85421SOL     OW58101   4.685   0.406   2.311
85421SOL    HW158102   4.711   0.488   2.269
85421SOL    HW258103   4.636   0.359   2.244
85422SOL     OW58104   9.375   4.002  13.426
85422SOL    HW158105   9.311   3.963  13.367
85422SOL    HW258106   9.410   4.076  13.378
85423SOL     OW58107   7.729   3.876   9.741
85423SOL    HW158108   7.731   3.957   9.793
85423SOL    HW258109   7.760   3.903   9.654
85424SOL     OW58110   8.797  10.784   7.508
85424SOL    HW158111   8.890  10.802   7.497
85424SOL    HW258112   8.794  10.692   7.535
85425SOL     OW58113   3.527  13.986   6.046
85425SOL    HW158114   3.473  14.005   6.123
85425SOL    HW258115   3.477  14.021   5.972
85426SOL     OW58116   7.767  12.287   6.130
85426SOL    HW158117   7.796  12.358   6.073
85426SOL    HW258118   7.721  12.331   6.202
85427SOL     OW58119   2.377   7.026   9.800
85427SOL    HW158120   2.426   7.021   9.882
85427SOL    HW258121   2.417   7.098   9.752
85428SOL     OW58122   9.239   7.027   1.888
85428SOL    HW158123   9.178   7.101   1.893
85428SOL    HW258124   9.290   7.044   1.809
85429SOL     OW58125  13.520  12.787   9.395
85429SOL    HW158126  13.601  12.772   9.346
85429SOL    HW258127  13.457  12.814   9.328
85430SOL     OW58128   2.717   8.326  12.118
85430SOL    HW158129   2.764   8.342  12.036
85430SOL    HW258130   2.625   8.321  12.093
85431SOL     OW58131   6.338  13.037   6.796
85431SOL    HW158132   6.275  13.032   6.724
85431SOL    HW258133   6.417  13.074   6.756
85432SOL     OW58134  11.395   0.812   4.897
85432SOL    HW158135  11.306   0.822   4.863
85432SOL    HW258136  11.427   0.732   4.855
85433SOL     OW58137   5.304   4.328  12.396
85433SOL    HW158138   5.225   4.276  12.385
85433SOL    HW258139   5.307   4.349  12.489
85434SOL     OW58140   7.129   8.887   4.483
85434SOL    HW158141   7.183   8.884   4.403
85434SOL    HW258142   7.174   8.828   4.544
85435SOL     OW58143  11.195   1.661   0.973
85435SOL    HW158144  11.284   1.631   0.952
85435SOL    HW258145  11.189   1.747   0.931
85436SOL     OW58146   6.318   0.943   6.510
85436SOL    HW158147   6.255   0.994   6.459
85436SOL    HW258148   6.331   0.863   6.459
85437SOL     OW58149  14.097   6.688   5.093
85437SOL    HW158150  14.090   6.669   5.000
85437SOL    HW258151  14.041   6.623   5.135
85438SOL     OW58152  12.811   3.807   4.501
85438SOL    HW158153  12.832   3.792   4.593
85438SOL    HW258154  12.760   3.888   4.501
85439SOL     OW58155  14.069   8.584  14.360
85439SOL    HW158156  13.995   8.526  14.375
85439SOL    HW258157  14.128   8.533  14.303
85440SOL     OW58158  10.509   1.591   4.872
85440SOL    HW158159  10.569   1.522   4.845
85440SOL    HW258160  10.542   1.619   4.958
85441SOL     OW58161  10.757   9.106   7.558
85441SOL    HW158162  10.669   9.131   7.531
85441SOL    HW258163  10.801   9.081   7.477
85442SOL     OW58164   6.208  14.257  11.006
85442SOL    HW158165   6.166  14.210  11.077
85442SOL    HW258166   6.188  14.349  11.023
85443SOL     OW58167  14.235  11.326   1.385
85443SOL    HW158168  14.179  11.306   1.459
85443SOL    HW258169  14.278  11.409   1.408
85444SOL     OW58170   4.012  14.222  10.082
85444SOL    HW158171   3.998  14.292  10.018
85444SOL    HW258172   3.926  14.205  10.119
85445SOL     OW58173  11.647  14.141   6.245
85445SOL    HW158174  11.636  14.049   6.221
85445SOL    HW258175  11.714  14.174   6.186
85446SOL     OW58176   3.336  11.575   0.146
85446SOL    HW158177   3.356  11.609   0.059
85446SOL    HW258178   3.242  11.558   0.144
85447SOL     OW58179   1.254   6.563   1.413
85447SOL    HW158180   1.170   6.523   1.437
85447SOL    HW258181   1.320   6.502   1.445
85448SOL     OW58182   4.758   4.226   7.000
85448SOL    HW158183   4.797   4.181   6.925
85448SOL    HW258184   4.832   4.245   7.058
85449SOL     OW58185   5.088   5.315   9.604
85449SOL    HW158186   5.039   5.385   9.648
85449SOL    HW258187   5.165   5.302   9.658
85450SOL     OW58188   8.844   3.064   2.437
85450SOL    HW158189   8.789   3.142   2.434
85450SOL    HW258190   8.882   3.066   2.525
85451SOL     OW58191  12.518   8.999   7.108
85451SOL    HW158192  12.456   9.052   7.158
85451SOL    HW258193  12.602   9.015   7.151
85452SOL     OW58194  12.830   5.958   5.774
85452SOL    HW158195  12.834   5.866   5.799
85452SOL    HW258196  12.918   5.977   5.741
85453SOL     OW58197   9.710   5.220   7.702
85453SOL    HW158198   9.756   5.286   7.652
85453SOL    HW258199   9.776   5.153   7.722
85454SOL     OW58200   5.640   3.697   7.788
85454SOL    HW158201   5.624   3.604   7.808
85454SOL    HW258202   5.734   3.702   7.770
85455SOL     OW58203   9.892   3.360   9.110
85455SOL    HW158204   9.971   3.374   9.162
85455SOL    HW258205   9.918   3.378   9.020
85456SOL     OW58206   2.734  10.795   0.422
85456SOL    HW158207   2.821  10.784   0.461
85456SOL    HW258208   2.679  10.825   0.494
85457SOL     OW58209   3.983   1.112  11.246
85457SOL    HW158210   3.942   1.186  11.201
85457SOL    HW258211   4.062   1.094  11.196
85458SOL     OW58212  14.181   3.455  10.101
85458SOL    HW158213  14.203   3.535  10.053
85458SOL    HW258214  14.265   3.409  10.110
85459SOL     OW58215   0.440   8.065   3.333
85459SOL    HW158216   0.416   8.098   3.419
85459SOL    HW258217   0.405   8.130   3.272
85460SOL     OW58218  13.046   9.703   9.983
85460SOL    HW158219  13.126   9.653   9.999
85460SOL    HW258220  12.977   9.638   9.976
85461SOL     OW58221   2.265   5.960   1.727
85461SOL    HW158222   2.299   6.048   1.746
85461SOL    HW258223   2.305   5.937   1.644
85462SOL     OW58224   7.601   1.898  11.070
85462SOL    HW158225   7.554   1.952  11.133
85462SOL    HW258226   7.533   1.862  11.013
85463SOL     OW58227   9.947  14.656   9.330
85463SOL    HW158228   9.852  14.665   9.336
85463SOL    HW258229   9.979  14.693   9.413
85464SOL     OW58230   0.258   1.779   1.431
85464SOL    HW158231   0.328   1.843   1.417
85464SOL    HW258232   0.304   1.700   1.459
85465SOL     OW58233   7.797  14.035  11.500
85465SOL    HW158234   7.820  14.065  11.588
85465SOL    HW258235   7.704  14.016  11.506
85466SOL     OW58236  12.828   0.876   3.273
85466SOL    HW158237  12.900   0.894   3.211
85466SOL    HW258238  12.815   0.958   3.319
85467SOL     OW58239   8.457   4.383  10.807
85467SOL    HW158240   8.533   4.349  10.759
85467SOL    HW258241   8.464   4.346  10.894
85468SOL     OW58242  14.297   7.361  11.167
85468SOL    HW158243  14.307   7.381  11.261
85468SOL    HW258244  14.218   7.308  11.162
85469SOL     OW58245  14.354   7.836  13.516
85469SOL    HW158246  14.402   7.797  13.443
85469SOL    HW258247  14.333   7.924  13.485
85470SOL     OW58248   3.659  12.479  11.052
85470SOL    HW158249   3.627  12.446  10.968
85470SOL    HW258250   3.647  12.407  11.113
85471SOL     OW58251  12.456   0.150   4.677
85471SOL    HW158252  12.457   0.180   4.768
85471SOL    HW258253  12.375   0.100   4.669
85472SOL     OW58254   2.650   3.133   3.747
85472SOL    HW158255   2.730   3.125   3.798
85472SOL    HW258256   2.645   3.226   3.724
85473SOL     OW58257   3.429   0.365   1.240
85473SOL    HW158258   3.497   0.357   1.307
85473SOL    HW258259   3.353   0.319   1.278
85474SOL     OW58260  13.157   4.846  12.459
85474SOL    HW158261  13.211   4.832  12.381
85474SOL    HW258262  13.068   4.853  12.425
85475SOL     OW58263   6.170   5.485   9.129
85475SOL    HW158264   6.097   5.432   9.098
85475SOL    HW258265   6.225   5.423   9.178
85476SOL     OW58266   9.226   0.664  10.499
85476SOL    HW158267   9.200   0.575  10.527
85476SOL    HW258268   9.306   0.682  10.549
85477SOL     OW58269   1.351   1.776  10.613
85477SOL    HW158270   1.398   1.858  10.629
85477SOL    HW258271   1.400   1.733  10.543
85478SOL     OW58272  13.240   9.357   8.363
85478SOL    HW158273  13.311   9.402   8.316
85478SOL    HW258274  13.174   9.340   8.296
85479SOL     OW58275  13.618  14.624  10.184
85479SOL    HW158276  13.648  14.671  10.106
85479SOL    HW258277  13.551  14.564  10.152
85480SOL     OW58278  11.621   4.587   1.569
85480SOL    HW158279  11.631   4.666   1.517
85480SOL    HW258280  11.698   4.584   1.625
85481SOL     OW58281   9.169  11.725   8.190
85481SOL    HW158282   9.198  11.775   8.267
85481SOL    HW258283   9.247  11.717   8.136
85482SOL     OW58284   3.446   3.277   0.488
85482SOL    HW158285   3.383   3.217   0.447
85482SOL    HW258286   3.394   3.327   0.551
85483SOL     OW58287   0.648   6.495   8.365
85483SOL    HW158288   0.613   6.414   8.403
85483SOL    HW258289   0.631   6.486   8.271
85484SOL     OW58290  11.848  12.689   3.847
85484SOL    HW158291  11.908  12.752   3.885
85484SOL    HW258292  11.853  12.613   3.904
85485SOL     OW58293   9.562  14.834   7.890
85485SOL    HW158294   9.647  14.790   7.886
85485SOL    HW258295   9.578   0.045   7.849
85486SOL     OW58296   3.170  14.834   9.987
85486SOL    HW158297   3.087  14.787   9.985
85486SOL    HW258298   3.158   0.028  10.053
85487SOL     OW58299   0.679   0.368   0.210
85487SOL    HW158300   0.617   0.299   0.232
85487SOL    HW258301   0.626   0.439   0.174
85488SOL     OW58302  13.131  12.858   8.756
85488SOL    HW158303  13.194  12.788   8.737
85488SOL    HW258304  13.084  12.872   8.674
85489SOL     OW58305   5.719   9.457   4.092
85489SOL    HW158306   5.789   9.474   4.030
85489SOL    HW258307   5.763   9.451   4.177
85490SOL     OW58308   2.897  12.898  14.338
85490SOL    HW158309   2.920  12.976  14.388
85490SOL    HW258310   2.945  12.908  14.256
85491SOL     OW58311  13.973   2.774   1.817
85491SOL    HW158312  13.947   2.698   1.765
85491SOL    HW258313  14.069   2.769   1.821
85492SOL     OW58314   7.231   3.229   2.598
85492SOL    HW158315   7.249   3.253   2.507
85492SOL    HW258316   7.276   3.296   2.650
85493SOL     OW58317  12.069   1.247  13.600
85493SOL    HW158318  12.071   1.325  13.544
85493SOL    HW258319  11.989   1.257  13.651
85494SOL     OW58320  12.736   3.487   9.743
85494SOL    HW158321  12.792   3.521   9.674
85494SOL    HW258322  12.657   3.459   9.698
85495SOL     OW58323   5.085   3.751   2.822
85495SOL    HW158324   5.088   3.672   2.769
85495SOL    HW258325   5.154   3.739   2.888
85496SOL     OW58326   4.649  10.137  12.134
85496SOL    HW158327   4.588  10.099  12.071
85496SOL    HW258328   4.600  10.139  12.217
85497SOL     OW58329  12.913  10.363   0.607
85497SOL    HW158330  12.854  10.386   0.535
85497SOL    HW258331  12.974  10.301   0.568
85498SOL     OW58332   0.153   1.369  13.480
85498SOL    HW158333   0.234   1.400  13.521
85498SOL    HW258334   0.156   1.274  13.491
85499SOL     OW58335   1.664  10.135   1.183
85499SOL    HW158336   1.687  10.085   1.261
85499SOL    HW258337   1.691  10.225   1.203
85500SOL     OW58338  10.199   0.206   5.914
85500SOL    HW158339  10.146   0.238   5.840
85500SOL    HW258340  10.165   0.119   5.932
85501SOL     OW58341   4.751  11.392  10.523
85501SOL    HW158342   4.768  11.349  10.439
85501SOL    HW258343   4.794  11.336  10.587
85502SOL     OW58344   5.769   6.456   0.355
85502SOL    HW158345   5.762   6.520   0.426
85502SOL    HW258346   5.751   6.372   0.397
85503SOL     OW58347   6.628   5.489  11.312
85503SOL    HW158348   6.575   5.473  11.235
85503SOL    HW258349   6.638   5.403  11.354
85504SOL     OW58350   5.588   2.909  13.455
85504SOL    HW158351   5.516   2.940  13.510
85504SOL    HW258352   5.562   2.820  13.430
85505SOL     OW58353  12.847  11.005   7.786
85505SOL    HW158354  12.770  11.055   7.815
85505SOL    HW258355  12.921  11.064   7.802
85506SOL     OW58356   4.700   9.871   8.529
85506SOL    HW158357   4.762   9.828   8.587
85506SOL    HW258358   4.750   9.892   8.450
85507SOL     OW58359   5.311  12.035   1.851
85507SOL    HW158360   5.385  11.986   1.816
85507SOL    HW258361   5.244  12.032   1.782
85508SOL     OW58362  14.476  12.372   4.467
85508SOL    HW158363  14.396  12.422   4.481
85508SOL    HW258364  14.503  12.396   4.378
85509SOL     OW58365  11.083  11.985   0.322
85509SOL    HW158366  11.142  11.984   0.397
85509SOL    HW258367  11.101  12.069   0.278
85510SOL     OW58368  12.882  13.841   4.300
85510SOL    HW158369  12.878  13.793   4.217
85510SOL    HW258370  12.797  13.884   4.307
85511SOL     OW58371  10.626   7.136  10.713
85511SOL    HW158372  10.628   7.150  10.618
85511SOL    HW258373  10.533   7.133  10.735
85512SOL     OW58374   8.388   9.565   7.749
85512SOL    HW158375   8.389   9.640   7.808
85512SOL    HW258376   8.296   9.557   7.722
85513SOL     OW58377   1.658   6.739   0.042
85513SOL    HW158378   1.565   6.763   0.041
85513SOL    HW258379   1.703   6.821   0.065
85514SOL     OW58380  12.764  14.153   0.913
85514SOL    HW158381  12.795  14.065   0.892
85514SOL    HW258382  12.677  14.158   0.872
85515SOL     OW58383   7.014  12.838  14.798
85515SOL    HW158384   7.079  12.789  14.747
85515SOL    HW258385   7.058  12.920  14.821
85516SOL     OW58386   8.035   1.862  10.294
85516SOL    HW158387   8.079   1.903  10.369
85516SOL    HW258388   8.034   1.769  10.314
85517SOL     OW58389   2.838   6.866  10.171
85517SOL    HW158390   2.923   6.889  10.133
85517SOL    HW258391   2.781   6.939  10.150
85518SOL     OW58392   0.777   0.973   9.528
85518SOL    HW158393   0.840   0.905   9.506
85518SOL    HW258394   0.692   0.931   9.521
85519SOL     OW58395  10.290  12.787  13.755
85519SOL    HW158396  10.266  12.717  13.694
85519SOL    HW258397  10.288  12.867  13.703
85520SOL     OW58398   5.938   2.411  13.527
85520SOL    HW158399   5.850   2.438  13.553
85520SOL    HW258400   5.924   2.350  13.455
85521SOL     OW58401  12.230   4.658   5.549
85521SOL    HW158402  12.236   4.752   5.536
85521SOL    HW258403  12.321   4.628   5.549
85522SOL     OW58404   4.480   7.483   0.351
85522SOL    HW158405   4.437   7.526   0.425
85522SOL    HW258406   4.479   7.548   0.281
85523SOL     OW58407   3.508   6.065   4.418
85523SOL    HW158408   3.465   6.132   4.366
85523SOL    HW258409   3.443   5.996   4.428
85524SOL     OW58410   0.328  10.568   0.013
85524SOL    HW158411   0.254  10.544  14.832
85524SOL    HW258412   0.405  10.548  14.834
85525SOL     OW58413   9.706  13.961  13.391
85525SOL    HW158414   9.799  13.937  13.400
85525SOL    HW258415   9.676  13.912  13.315
85526SOL     OW58416   9.303  11.452   5.016
85526SOL    HW158417   9.309  11.429   4.923
85526SOL    HW258418   9.216  11.422   5.043
85527SOL     OW58419   5.948   3.762   0.067
85527SOL    HW158420   5.930   3.671   0.046
85527SOL    HW258421   5.864   3.807   0.056
85528SOL     OW58422  11.880   8.433   1.473
85528SOL    HW158423  11.960   8.483   1.489
85528SOL    HW258424  11.835   8.431   1.557
85529SOL     OW58425  10.701  12.877  11.416
85529SOL    HW158426  10.678  12.843  11.330
85529SOL    HW258427  10.657  12.962  11.421
85530SOL     OW58428   2.948   4.411  14.787
85530SOL    HW158429   2.987   4.324  14.793
85530SOL    HW258430   2.988   4.460  14.859
85531SOL     OW58431  13.420   0.518   0.428
85531SOL    HW158432  13.374   0.434   0.421
85531SOL    HW258433  13.509   0.499   0.400
85532SOL     OW58434  10.278  14.263  11.431
85532SOL    HW158435  10.246  14.343  11.390
85532SOL    HW258436  10.366  14.285  11.461
85533SOL     OW58437   3.249   0.853   0.894
85533SOL    HW158438   3.186   0.791   0.857
85533SOL    HW258439   3.335   0.818   0.868
85534SOL     OW58440   9.163  13.693  11.603
85534SOL    HW158441   9.151  13.653  11.689
85534SOL    HW258442   9.233  13.758  11.616
85535SOL     OW58443   9.455  11.895  12.735
85535SOL    HW158444   9.381  11.899  12.796
85535SOL    HW258445   9.430  11.952  12.663
85536SOL     OW58446   1.602   2.288  12.823
85536SOL    HW158447   1.573   2.379  12.810
85536SOL    HW258448   1.524   2.236  12.801
85537SOL     OW58449   5.913   3.454   9.708
85537SOL    HW158450   5.886   3.543   9.733
85537SOL    HW258451   5.834   3.401   9.720
85538SOL     OW58452   2.797  11.062   2.495
85538SOL    HW158453   2.859  10.992   2.516
85538SOL    HW258454   2.760  11.037   2.410
85539SOL     OW58455   3.579   9.959   0.403
85539SOL    HW158456   3.508  10.019   0.381
85539SOL    HW258457   3.573   9.889   0.338
85540SOL     OW58458   2.632   7.128   0.504
85540SOL    HW158459   2.625   7.214   0.547
85540SOL    HW258460   2.551   7.084   0.526
85541SOL     OW58461  12.572   2.334  11.797
85541SOL    HW158462  12.543   2.385  11.721
85541SOL    HW258463  12.661   2.364  11.813
85542SOL     OW58464   4.457  11.897   2.987
85542SOL    HW158465   4.527  11.917   3.048
85542SOL    HW258466   4.454  11.972   2.928
85543SOL     OW58467   4.721  11.015  10.779
85543SOL    HW158468   4.743  10.923  10.768
85543SOL    HW258469   4.710  11.027  10.873
85544SOL     OW58470  10.242   5.705   9.648
85544SOL    HW158471  10.311   5.639   9.653
85544SOL    HW258472  10.289   5.786   9.630
85545SOL     OW58473  11.303  13.009  10.055
85545SOL    HW158474  11.302  12.923  10.096
85545SOL    HW258475  11.210  13.031  10.042
85546SOL     OW58476   2.894   0.578   2.074
85546SOL    HW158477   2.843   0.579   2.155
85546SOL    HW258478   2.913   0.670   2.055
85547SOL     OW58479   6.041   6.950  13.407
85547SOL    HW158480   5.956   6.955  13.450
85547SOL    HW258481   6.029   6.886  13.337
85548SOL     OW58482  11.993   6.251  13.799
85548SOL    HW158483  12.036   6.333  13.776
85548SOL    HW258484  12.065   6.188  13.810
85549SOL     OW58485  14.104  10.175   5.567
85549SOL    HW158486  14.073  10.107   5.626
85549SOL    HW258487  14.043  10.172   5.492
85550SOL     OW58488  10.751   9.933   1.079
85550SOL    HW158489  10.805   9.919   1.157
85550SOL    HW258490  10.722  10.024   1.086
85551SOL     OW58491   0.945  10.850   9.890
85551SOL    HW158492   0.946  10.776   9.830
85551SOL    HW258493   0.863  10.895   9.872
85552SOL     OW58494   1.607   0.920  10.741
85552SOL    HW158495   1.694   0.907  10.704
85552SOL    HW258496   1.571   0.832  10.752
85553SOL     OW58497   6.209  11.294   8.933
85553SOL    HW158498   6.297  11.269   8.961
85553SOL    HW258499   6.213  11.390   8.927
85554SOL     OW58500   0.921  14.842   2.946
85554SOL    HW158501   0.921  14.749   2.925
85554SOL    HW258502   0.853   0.005   2.889
85555SOL     OW58503   1.555  10.194  10.476
85555SOL    HW158504   1.487  10.136  10.510
85555SOL    HW258505   1.555  10.179  10.382
85556SOL     OW58506   7.980  10.249  12.565
85556SOL    HW158507   8.054  10.199  12.599
85556SOL    HW258508   7.926  10.184  12.520
85557SOL     OW58509   0.848  11.979  14.863
85557SOL    HW158510   0.906  11.909  14.831
85557SOL    HW258511   0.792  11.935   0.053
85558SOL     OW58512  14.056   2.789   2.404
85558SOL    HW158513  14.090   2.874   2.432
85558SOL    HW258514  14.051   2.797   2.308
85559SOL     OW58515   5.737   3.137   4.711
85559SOL    HW158516   5.644   3.144   4.687
85559SOL    HW258517   5.771   3.226   4.702
85560SOL     OW58518   7.995   7.223   1.638
85560SOL    HW158519   8.080   7.210   1.596
85560SOL    HW258520   7.965   7.308   1.607
85561SOL     OW58521   3.956  12.732  12.025
85561SOL    HW158522   4.033  12.675  12.027
85561SOL    HW258523   3.893  12.686  11.970
85562SOL     OW58524  13.613  12.830   3.293
85562SOL    HW158525  13.707  12.828   3.278
85562SOL    HW258526  13.600  12.903   3.354
85563SOL     OW58527   5.093   6.030   4.237
85563SOL    HW158528   5.076   6.025   4.331
85563SOL    HW258529   5.158   5.962   4.221
85564SOL     OW58530  13.150   4.741  11.917
85564SOL    HW158531  13.055   4.747  11.926
85564SOL    HW258532  13.165   4.663  11.864
85565SOL     OW58533   1.439   9.463   3.574
85565SOL    HW158534   1.436   9.392   3.509
85565SOL    HW258535   1.501   9.431   3.640
85566SOL     OW58536  12.010   9.260   0.395
85566SOL    HW158537  11.931   9.304   0.365
85566SOL    HW258538  11.990   9.233   0.485
85567SOL     OW58539   6.189   4.203   6.341
85567SOL    HW158540   6.171   4.166   6.255
85567SOL    HW258541   6.241   4.282   6.324
85568SOL     OW58542  11.864   2.495   3.868
85568SOL    HW158543  11.924   2.570   3.865
85568SOL    HW258544  11.788   2.526   3.916
85569SOL     OW58545   2.133   8.361   0.292
85569SOL    HW158546   2.200   8.423   0.321
85569SOL    HW258547   2.181   8.297   0.240
85570SOL     OW58548  11.293  13.331   8.333
85570SOL    HW158549  11.277  13.242   8.366
85570SOL    HW258550  11.241  13.336   8.253
85571SOL     OW58551  11.698   9.675  10.537
85571SOL    HW158552  11.634   9.734  10.497
85571SOL    HW258553  11.648   9.597  10.560
85572SOL     OW58554  14.609   8.608   5.205
85572SOL    HW158555  14.638   8.596   5.295
85572SOL    HW258556  14.659   8.542   5.155
85573SOL     OW58557   8.919  12.291   4.526
85573SOL    HW158558   8.983  12.304   4.596
85573SOL    HW258559   8.889  12.201   4.537
85574SOL     OW58560  11.016   4.216   9.055
85574SOL    HW158561  11.070   4.295   9.063
85574SOL    HW258562  10.997   4.193   9.146
85575SOL     OW58563   6.754   7.604  13.576
85575SOL    HW158564   6.812   7.531  13.597
85575SOL    HW258565   6.698   7.570  13.506
85576SOL     OW58566   2.089  13.988   3.182
85576SOL    HW158567   2.171  14.032   3.203
85576SOL    HW258568   2.113  13.924   3.115
85577SOL     OW58569  14.293   8.593   7.310
85577SOL    HW158570  14.358   8.637   7.364
85577SOL    HW258571  14.335   8.581   7.225
85578SOL     OW58572   8.332   9.036  13.091
85578SOL    HW158573   8.328   9.024  12.997
85578SOL    HW258574   8.422   9.013  13.115
85579SOL     OW58575   8.000   0.940   1.591
85579SOL    HW158576   8.035   0.904   1.510
85579SOL    HW258577   7.938   0.873   1.622
85580SOL     OW58578   4.777   2.235   8.556
85580SOL    HW158579   4.787   2.213   8.649
85580SOL    HW258580   4.717   2.310   8.556
85581SOL     OW58581   7.826   1.189   4.166
85581SOL    HW158582   7.859   1.170   4.254
85581SOL    HW258583   7.750   1.132   4.156
85582SOL     OW58584   5.111  14.160  11.558
85582SOL    HW158585   5.033  14.108  11.536
85582SOL    HW258586   5.181  14.121  11.504
85583SOL     OW58587   9.128  11.062   0.566
85583SOL    HW158588   9.121  10.967   0.562
85583SOL    HW258589   9.059  11.093   0.507
85584SOL     OW58590   4.159   1.762  14.409
85584SOL    HW158591   4.180   1.855  14.421
85584SOL    HW258592   4.215   1.716  14.472
85585SOL     OW58593   5.584   6.239  13.294
85585SOL    HW158594   5.629   6.279  13.219
85585SOL    HW258595   5.562   6.313  13.351
85586SOL     OW58596   2.445   4.546   4.108
85586SOL    HW158597   2.413   4.630   4.077
85586SOL    HW258598   2.537   4.544   4.082
85587SOL     OW58599   9.727   8.240   6.402
85587SOL    HW158600   9.794   8.171   6.400
85587SOL    HW258601   9.703   8.252   6.310
85588SOL     OW58602   3.694  14.110   4.699
85588SOL    HW158603   3.737  14.070   4.623
85588SOL    HW258604   3.727  14.062   4.774
85589SOL     OW58605  12.421   5.072   2.576
85589SOL    HW158606  12.409   5.164   2.602
85589SOL    HW258607  12.505   5.071   2.530
85590SOL     OW58608   6.261   4.993   1.424
85590SOL    HW158609   6.260   5.058   1.354
85590SOL    HW258610   6.238   5.041   1.503
85591SOL     OW58611   6.936   4.038   6.936
85591SOL    HW158612   6.902   3.985   6.864
85591SOL    HW258613   6.860   4.054   6.992
85592SOL     OW58614  10.634   1.819   4.157
85592SOL    HW158615  10.553   1.864   4.135
85592SOL    HW258616  10.692   1.887   4.190
85593SOL     OW58617   9.770   1.638   9.436
85593SOL    HW158618   9.842   1.616   9.377
85593SOL    HW258619   9.813   1.662   9.518
85594SOL     OW58620   7.155   3.602   2.746
85594SOL    HW158621   7.083   3.562   2.794
85594SOL    HW258622   7.141   3.575   2.655
85595SOL     OW58623   1.177   5.712   4.553
85595SOL    HW158624   1.124   5.651   4.604
85595SOL    HW258625   1.114   5.775   4.518
85596SOL     OW58626   5.092   4.332   4.563
85596SOL    HW158627   5.007   4.312   4.602
85596SOL    HW258628   5.145   4.255   4.581
85597SOL     OW58629  13.015   1.133   9.461
85597SOL    HW158630  13.101   1.110   9.426
85597SOL    HW258631  12.964   1.052   9.452
85598SOL     OW58632  14.238   3.485   1.337
85598SOL    HW158633  14.236   3.569   1.383
85598SOL    HW258634  14.312   3.437   1.377
85599SOL     OW58635   6.943   6.935   0.096
85599SOL    HW158636   6.949   6.919   0.190
85599SOL    HW258637   6.858   6.899   0.071
85600SOL     OW58638   3.376  11.655  11.872
85600SOL    HW158639   3.447  11.593  11.854
85600SOL    HW258640   3.307  11.630  11.810
85601SOL     OW58641   4.620   1.734   5.662
85601SOL    HW158642   4.578   1.711   5.745
85601SOL    HW258643   4.701   1.683   5.662
85602SOL     OW58644   3.682   6.139   7.379
85602SOL    HW158645   3.730   6.087   7.443
85602SOL    HW258646   3.602   6.165   7.424
85603SOL     OW58647   2.922   4.382   2.363
85603SOL    HW158648   2.968   4.434   2.428
85603SOL    HW258649   2.874   4.446   2.311
85604SOL     OW58650  12.154   8.141   5.689
85604SOL    HW158651  12.208   8.207   5.733
85604SOL    HW258652  12.103   8.101   5.760
85605SOL     OW58653   2.101   3.928  14.775
85605SOL    HW158654   2.038   3.921  14.704
85605SOL    HW258655   2.052   3.907  14.854
85606SOL     OW58656  12.844   8.635   9.591
85606SOL    HW158657  12.853   8.705   9.526
85606SOL    HW258658  12.909   8.656   9.658
85607SOL     OW58659   0.385   9.186   6.102
85607SOL    HW158660   0.366   9.172   6.195
85607SOL    HW258661   0.365   9.278   6.087
85608SOL     OW58662   3.066  11.786  12.193
85608SOL    HW158663   3.139  11.843  12.218
85608SOL    HW258664   3.015  11.838  12.131
85609SOL     OW58665   6.587   6.084   5.682
85609SOL    HW158666   6.519   6.048   5.625
85609SOL    HW258667   6.591   6.177   5.658
85610SOL     OW58668   9.875  10.610  14.540
85610SOL    HW158669   9.817  10.537  14.520
85610SOL    HW258670   9.832  10.658  14.611
85611SOL     OW58671  11.947   2.606   8.166
85611SOL    HW158672  11.914   2.645   8.247
85611SOL    HW258673  11.880   2.625   8.101
85612SOL     OW58674   8.861   5.941  13.847
85612SOL    HW158675   8.876   5.847  13.852
85612SOL    HW258676   8.824   5.955  13.760
85613SOL     OW58677   5.532   6.420   4.383
85613SOL    HW158678   5.495   6.459   4.463
85613SOL    HW258679   5.603   6.480   4.358
85614SOL     OW58680   2.468  12.908   7.161
85614SOL    HW158681   2.550  12.943   7.125
85614SOL    HW258682   2.418  12.882   7.084
85615SOL     OW58683  14.488   7.449   9.687
85615SOL    HW158684  14.560   7.504   9.717
85615SOL    HW258685  14.477   7.384   9.756
85616SOL     OW58686   4.018   2.941   6.365
85616SOL    HW158687   4.050   2.853   6.348
85616SOL    HW258688   4.036   2.956   6.458
85617SOL     OW58689   1.761  12.899  12.169
85617SOL    HW158690   1.847  12.894  12.211
85617SOL    HW258691   1.736  12.991  12.178
85618SOL     OW58692   4.860   9.511   7.074
85618SOL    HW158693   4.895   9.560   7.148
85618SOL    HW258694   4.844   9.424   7.108
85619SOL     OW58695   9.286  13.500   7.659
85619SOL    HW158696   9.357  13.436   7.664
85619SOL    HW258697   9.206  13.446   7.660
85620SOL     OW58698  14.746  12.246  14.276
85620SOL    HW158699  14.688  12.319  14.255
85620SOL    HW258700  14.831  12.273  14.243
85621SOL     OW58701   2.205  14.166   5.098
85621SOL    HW158702   2.174  14.225   5.166
85621SOL    HW258703   2.289  14.135   5.129
85622SOL     OW58704   7.468   6.769  11.343
85622SOL    HW158705   7.467   6.863  11.359
85622SOL    HW258706   7.376   6.743  11.342
85623SOL     OW58707  12.401  11.269  11.482
85623SOL    HW158708  12.348  11.202  11.438
85623SOL    HW258709  12.377  11.261  11.574
85624SOL     OW58710  11.913   4.652   2.272
85624SOL    HW158711  11.933   4.744   2.290
85624SOL    HW258712  11.818   4.647   2.277
85625SOL     OW58713   3.060  11.797  14.784
85625SOL    HW158714   3.014  11.748  14.717
85625SOL    HW258715   3.053  11.889  14.757
85626SOL     OW58716   4.144  12.677   5.976
85626SOL    HW158717   4.118  12.719   6.059
85626SOL    HW258718   4.228  12.636   5.995
85627SOL     OW58719   2.077   7.050   8.924
85627SOL    HW158720   2.093   7.080   9.013
85627SOL    HW258721   1.987   7.074   8.906
85628SOL     OW58722   7.438   3.126  12.873
85628SOL    HW158723   7.410   3.063  12.940
85628SOL    HW258724   7.485   3.073  12.809
85629SOL     OW58725   5.337  12.912   8.358
85629SOL    HW158726   5.409  12.859   8.325
85629SOL    HW258727   5.327  12.884   8.449
85630SOL     OW58728  14.443   6.073   7.810
85630SOL    HW158729  14.365   6.107   7.765
85630SOL    HW258730  14.433   6.102   7.900
85631SOL     OW58731   1.794   2.078   9.264
85631SOL    HW158732   1.784   2.113   9.353
85631SOL    HW258733   1.846   2.143   9.219
85632SOL     OW58734   7.043   8.202  11.876
85632SOL    HW158735   7.117   8.251  11.841
85632SOL    HW258736   7.066   8.188  11.968
85633SOL     OW58737   7.745  13.343   5.865
85633SOL    HW158738   7.802  13.321   5.791
85633SOL    HW258739   7.737  13.262   5.914
85634SOL     OW58740   3.584   6.917  10.709
85634SOL    HW158741   3.589   6.823  10.725
85634SOL    HW258742   3.504   6.945  10.752
85635SOL     OW58743   3.033  14.019  10.161
85635SOL    HW158744   2.974  14.071  10.105
85635SOL    HW258745   3.056  14.078  10.233
85636SOL     OW58746   8.922  13.129   6.882
85636SOL    HW158747   8.883  13.209   6.848
85636SOL    HW258748   8.851  13.084   6.927
85637SOL     OW58749   5.092   1.749   4.658
85637SOL    HW158750   5.131   1.715   4.577
85637SOL    HW258751   5.160   1.737   4.724
85638SOL     OW58752  10.796   8.223   3.740
85638SOL    HW158753  10.873   8.246   3.792
85638SOL    HW258754  10.823   8.147   3.689
85639SOL     OW58755   9.475  13.053   7.521
85639SOL    HW158756   9.454  13.069   7.429
85639SOL    HW258757   9.391  13.028   7.561
85640SOL     OW58758   5.013  13.668  13.196
85640SOL    HW158759   5.074  13.693  13.127
85640SOL    HW258760   4.986  13.579  13.173
85641SOL     OW58761   7.673  12.732   8.970
85641SOL    HW158762   7.618  12.763   9.042
85641SOL    HW258763   7.627  12.655   8.936
85642SOL     OW58764  13.491  13.046  13.773
85642SOL    HW158765  13.521  12.990  13.702
85642SOL    HW258766  13.512  13.135  13.744
85643SOL     OW58767   0.839   7.576  10.682
85643SOL    HW158768   0.781   7.510  10.720
85643SOL    HW258769   0.824   7.570  10.588
85644SOL     OW58770  11.376  11.917  13.373
85644SOL    HW158771  11.434  11.845  13.398
85644SOL    HW258772  11.400  11.938  13.283
85645SOL     OW58773  12.041   7.312   5.518
85645SOL    HW158774  12.086   7.254   5.457
85645SOL    HW258775  12.051   7.399   5.480
85646SOL     OW58776   7.433   8.378   2.505
85646SOL    HW158777   7.349   8.422   2.492
85646SOL    HW258778   7.497   8.438   2.465
85647SOL     OW58779   6.576   8.943   7.146
85647SOL    HW158780   6.565   8.904   7.060
85647SOL    HW258781   6.564   8.870   7.207
85648SOL     OW58782   5.114  13.489  10.362
85648SOL    HW158783   5.206  13.499  10.338
85648SOL    HW258784   5.068  13.486  10.278
85649SOL     OW58785   2.074   8.122   7.362
85649SOL    HW158786   2.114   8.172   7.433
85649SOL    HW258787   2.147   8.097   7.306
85650SOL     OW58788  11.849  11.771   0.804
85650SOL    HW158789  11.795  11.848   0.826
85650SOL    HW258790  11.810  11.738   0.723
85651SOL     OW58791   2.483  14.291   9.084
85651SOL    HW158792   2.517  14.271   8.997
85651SOL    HW258793   2.432  14.371   9.072
85652SOL     OW58794   9.634   7.555  12.982
85652SOL    HW158795   9.566   7.600  12.932
85652SOL    HW258796   9.624   7.587  13.071
85653SOL     OW58797  11.845   0.604   3.788
85653SOL    HW158798  11.839   0.553   3.869
85653SOL    HW258799  11.758   0.598   3.748
85654SOL     OW58800  12.229   0.417   1.324
85654SOL    HW158801  12.202   0.431   1.233
85654SOL    HW258802  12.274   0.498   1.348
85655SOL     OW58803   6.647   8.114   5.621
85655SOL    HW158804   6.656   8.039   5.679
85655SOL    HW258805   6.636   8.189   5.679
85656SOL     OW58806  11.193   2.370  10.595
85656SOL    HW158807  11.234   2.455  10.611
85656SOL    HW258808  11.142   2.381  10.515
85657SOL     OW58809   4.040   8.305   5.172
85657SOL    HW158810   4.087   8.314   5.089
85657SOL    HW258811   3.961   8.357   5.160
85658SOL     OW58812   3.370  13.782   5.113
85658SOL    HW158813   3.434  13.779   5.183
85658SOL    HW258814   3.390  13.705   5.059
85659SOL     OW58815   5.324   2.802   6.885
85659SOL    HW158816   5.366   2.767   6.806
85659SOL    HW258817   5.389   2.788   6.954
85660SOL     OW58818  10.909   3.931   5.943
85660SOL    HW158819  10.933   3.937   6.035
85660SOL    HW258820  10.922   3.838   5.921
85661SOL     OW58821   5.851  12.871   3.391
85661SOL    HW158822   5.756  12.860   3.384
85661SOL    HW258823   5.867  12.962   3.369
85662SOL     OW58824   8.423   5.835  13.252
85662SOL    HW158825   8.335   5.842  13.215
85662SOL    HW258826   8.474   5.790  13.185
85663SOL     OW58827   3.002  14.351   7.400
85663SOL    HW158828   3.058  14.426   7.382
85663SOL    HW258829   2.999  14.304   7.316
85664SOL     OW58830   3.177   6.104   6.182
85664SOL    HW158831   3.225   6.026   6.154
85664SOL    HW258832   3.166   6.093   6.277
85665SOL     OW58833  13.225   6.343   2.849
85665SOL    HW158834  13.308   6.390   2.854
85665SOL    HW258835  13.238   6.278   2.780
85666SOL     OW58836  12.003  12.439   3.130
85666SOL    HW158837  12.003  12.503   3.202
85666SOL    HW258838  12.081  12.386   3.145
85667SOL     OW58839  14.660   7.943   8.318
85667SOL    HW158840  14.668   8.037   8.336
85667SOL    HW258841  14.574   7.934   8.278
85668SOL     OW58842   8.548  11.687   8.594
85668SOL    HW158843   8.559  11.687   8.499
85668SOL    HW258844   8.459  11.718   8.609
85669SOL     OW58845  11.304  12.698   9.242
85669SOL    HW158846  11.352  12.664   9.318
85669SOL    HW258847  11.366  12.691   9.169
85670SOL     OW58848  14.139  11.697  11.321
85670SOL    HW158849  14.132  11.603  11.341
85670SOL    HW258850  14.202  11.730  11.384
85671SOL     OW58851   8.002   3.450   4.641
85671SOL    HW158852   7.965   3.374   4.597
85671SOL    HW258853   7.943   3.522   4.617
85672SOL     OW58854   0.411  10.157  10.692
85672SOL    HW158855   0.317  10.174  10.696
85672SOL    HW258856   0.451  10.243  10.676
85673SOL     OW58857   1.701  12.612   3.638
85673SOL    HW158858   1.749  12.655   3.567
85673SOL    HW258859   1.724  12.662   3.716
85674SOL     OW58860   6.262   5.284  12.430
85674SOL    HW158861   6.240   5.369  12.469
85674SOL    HW258862   6.273   5.225  12.505
85675SOL     OW58863  13.911   9.526   7.523
85675SOL    HW158864  13.980   9.463   7.500
85675SOL    HW258865  13.854   9.528   7.447
85676SOL     OW58866  10.093   9.963  12.035
85676SOL    HW158867  10.168   9.995  11.985
85676SOL    HW258868  10.019  10.015  12.003
85677SOL     OW58869   7.496  13.756   2.208
85677SOL    HW158870   7.492  13.740   2.302
85677SOL    HW258871   7.414  13.801   2.188
85678SOL     OW58872   0.464   8.422   3.424
85678SOL    HW158873   0.545   8.373   3.411
85678SOL    HW258874   0.445   8.460   3.338
85679SOL     OW58875  11.638   8.077   6.768
85679SOL    HW158876  11.649   7.987   6.799
85679SOL    HW258877  11.561   8.074   6.711
85680SOL     OW58878   6.912   5.695  12.878
85680SOL    HW158879   6.866   5.658  12.803
85680SOL    HW258880   6.849   5.754  12.919
85681SOL     OW58881  13.582  10.711   7.697
85681SOL    HW158882  13.540  10.640   7.649
85681SOL    HW258883  13.512  10.775   7.711
85682SOL     OW58884  11.853   1.144   5.553
85682SOL    HW158885  11.913   1.073   5.576
85682SOL    HW258886  11.817   1.173   5.637
85683SOL     OW58887   2.714   0.250  12.582
85683SOL    HW158888   2.641   0.308  12.606
85683SOL    HW258889   2.742   0.281  12.496
85684SOL     OW58890   9.397   3.002  11.571
85684SOL    HW158891   9.415   3.094  11.592
85684SOL    HW258892   9.450   2.952  11.634
85685SOL     OW58893  11.530   2.085   7.484
85685SOL    HW158894  11.597   2.115   7.422
85685SOL    HW258895  11.449   2.081   7.432
85686SOL     OW58896  14.760   2.709  11.629
85686SOL    HW158897  14.710   2.628  11.624
85686SOL    HW258898  14.852   2.681  11.624
85687SOL     OW58899  13.234   3.371   8.749
85687SOL    HW158900  13.230   3.448   8.692
85687SOL    HW258901  13.147   3.367   8.789
85688SOL     OW58902   7.849   0.864  11.868
85688SOL    HW158903   7.799   0.782  11.863
85688SOL    HW258904   7.891   0.871  11.783
85689SOL     OW58905  13.422   9.643  12.356
85689SOL    HW158906  13.421   9.622  12.263
85689SOL    HW258907  13.485   9.714  12.364
85690SOL     OW58908   5.736   3.413   1.228
85690SOL    HW158909   5.789   3.404   1.148
85690SOL    HW258910   5.646   3.399   1.198
85691SOL     OW58911  11.226  11.611   0.698
85691SOL    HW158912  11.218  11.624   0.792
85691SOL    HW258913  11.292  11.675   0.670
85692SOL     OW58914   9.804   9.641   3.143
85692SOL    HW158915   9.878   9.657   3.203
85692SOL    HW258916   9.832   9.680   3.060
85693SOL     OW58917   4.366   2.517  12.560
85693SOL    HW158918   4.287   2.526  12.507
85693SOL    HW258919   4.348   2.567  12.639
85694SOL     OW58920   8.076   3.046   7.988
85694SOL    HW158921   8.098   3.079   7.901
85694SOL    HW258922   8.146   2.985   8.009
85695SOL     OW58923  12.437   7.992   4.936
85695SOL    HW158924  12.389   7.913   4.960
85695SOL    HW258925  12.389   8.028   4.862
85696SOL     OW58926  12.097  10.547   7.370
85696SOL    HW158927  12.141  10.467   7.400
85696SOL    HW258928  12.094  10.538   7.275
85697SOL     OW58929   7.002   8.023   6.429
85697SOL    HW158930   7.051   8.065   6.359
85697SOL    HW258931   7.066   8.007   6.498
85698SOL     OW58932   2.175   4.162   1.502
85698SOL    HW158933   2.081   4.144   1.506
85698SOL    HW258934   2.195   4.163   1.408
85699SOL     OW58935   1.832   1.723   2.218
85699SOL    HW158936   1.923   1.753   2.212
85699SOL    HW258937   1.831   1.664   2.294
85700SOL     OW58938   7.090  13.271   6.056
85700SOL    HW158939   7.012  13.222   6.028
85700SOL    HW258940   7.057  13.358   6.078
85701SOL     OW58941  10.973  10.420  10.968
85701SOL    HW158942  10.994  10.435  11.060
85701SOL    HW258943  10.909  10.488  10.946
85702SOL     OW58944   9.704  11.819  11.080
85702SOL    HW158945   9.750  11.791  11.158
85702SOL    HW258946   9.701  11.915  11.087
85703SOL     OW58947  10.689  10.370   6.537
85703SOL    HW158948  10.659  10.340   6.451
85703SOL    HW258949  10.773  10.411   6.519
85704SOL     OW58950  10.750   1.187  11.246
85704SOL    HW158951  10.837   1.163  11.212
85704SOL    HW258952  10.701   1.105  11.246
85705SOL     OW58953   1.851   9.373   1.596
85705SOL    HW158954   1.881   9.424   1.671
85705SOL    HW258955   1.765   9.409   1.574
85706SOL     OW58956  13.998   7.616   0.829
85706SOL    HW158957  14.018   7.541   0.773
85706SOL    HW258958  14.041   7.690   0.786
85707SOL     OW58959   5.955   4.258   0.749
85707SOL    HW158960   6.047   4.273   0.729
85707SOL    HW258961   5.956   4.203   0.828
85708SOL     OW58962   1.479  12.888  13.803
85708SOL    HW158963   1.411  12.934  13.753
85708SOL    HW258964   1.544  12.956  13.823
85709SOL     OW58965  10.542   7.104   6.097
85709SOL    HW158966  10.547   7.021   6.146
85709SOL    HW258967  10.605   7.161   6.140
85710SOL     OW58968   8.624   7.356   0.510
85710SOL    HW158969   8.690   7.286   0.507
85710SOL    HW258970   8.651   7.418   0.443
85711SOL     OW58971  11.655   2.044   6.119
85711SOL    HW158972  11.614   1.984   6.182
85711SOL    HW258973  11.748   2.023   6.121
85712SOL     OW58974   7.966   7.965   6.890
85712SOL    HW158975   7.934   8.052   6.913
85712SOL    HW258976   7.967   7.917   6.972
85713SOL     OW58977   2.311   6.962   6.607
85713SOL    HW158978   2.324   6.953   6.701
85713SOL    HW258979   2.219   6.988   6.598
85714SOL     OW58980   9.606   8.534   8.482
85714SOL    HW158981   9.650   8.453   8.507
85714SOL    HW258982   9.530   8.540   8.540
85715SOL     OW58983  12.029  13.579  12.098
85715SOL    HW158984  12.099  13.519  12.072
85715SOL    HW258985  12.018  13.562  12.192
85716SOL     OW58986   6.610   7.048   7.726
85716SOL    HW158987   6.593   7.131   7.770
85716SOL    HW258988   6.539   6.990   7.755
85717SOL     OW58989   1.562   2.611   9.735
85717SOL    HW158990   1.643   2.611   9.684
85717SOL    HW258991   1.555   2.700   9.769
85718SOL     OW58992   0.948   4.143   4.696
85718SOL    HW158993   0.959   4.200   4.619
85718SOL    HW258994   0.865   4.098   4.681
85719SOL     OW58995   3.012   3.706   3.114
85719SOL    HW158996   3.025   3.769   3.043
85719SOL    HW258997   2.991   3.624   3.070
85720SOL     OW58998   9.580   2.426  10.197
85720SOL    HW158999   9.673   2.402  10.201
85720SOL    HW259000   9.534   2.342  10.193
85721SOL     OW59001  11.135  12.378   3.646
85721SOL    HW159002  11.146  12.347   3.556
85721SOL    HW259003  11.204  12.332   3.695
85722SOL     OW59004  10.216  11.530   6.880
85722SOL    HW159005  10.284  11.474   6.918
85722SOL    HW259006  10.194  11.488   6.797
85723SOL     OW59007   4.088  10.921   0.679
85723SOL    HW159008   4.048  10.893   0.761
85723SOL    HW259009   4.019  10.910   0.614
85724SOL     OW59010   5.671   4.754   5.404
85724SOL    HW159011   5.719   4.711   5.333
85724SOL    HW259012   5.735   4.764   5.474
85725SOL     OW59013   4.190   8.958   4.693
85725SOL    HW159014   4.180   8.884   4.633
85725SOL    HW259015   4.263   9.009   4.656
85726SOL     OW59016   8.989   7.909   7.185
85726SOL    HW159017   8.898   7.937   7.175
85726SOL    HW259018   9.038   7.967   7.126
85727SOL     OW59019  11.953  13.090  10.007
85727SOL    HW159020  11.900  13.158   9.963
85727SOL    HW259021  11.915  13.083  10.094
85728SOL     OW59022  14.006   1.500  14.341
85728SOL    HW159023  14.000   1.512  14.246
85728SOL    HW259024  14.095   1.470  14.356
85729SOL     OW59025   1.770  14.635   5.555
85729SOL    HW159026   1.805  14.682   5.630
85729SOL    HW259027   1.678  14.662   5.550
85730SOL     OW59028   9.315  12.471   6.903
85730SOL    HW159029   9.361  12.437   6.980
85730SOL    HW259030   9.376  12.459   6.831
85731SOL     OW59031   2.761   1.214   7.145
85731SOL    HW159032   2.683   1.164   7.121
85731SOL    HW259033   2.747   1.301   7.107
85732SOL     OW59034   1.274  11.220   8.782
85732SOL    HW159035   1.291  11.301   8.830
85732SOL    HW259036   1.192  11.187   8.820
85733SOL     OW59037   8.291   0.831  10.921
85733SOL    HW159038   8.226   0.834  10.851
85733SOL    HW259039   8.293   0.919  10.956
85734SOL     OW59040   0.944   5.004  13.530
85734SOL    HW159041   0.927   5.096  13.513
85734SOL    HW259042   1.037   4.992  13.511
85735SOL     OW59043   5.535   4.874   6.826
85735SOL    HW159044   5.629   4.892   6.821
85735SOL    HW259045   5.513   4.837   6.741
85736SOL     OW59046   8.664  14.371   6.244
85736SOL    HW159047   8.679  14.456   6.285
85736SOL    HW259048   8.739  14.360   6.184
85737SOL     OW59049  11.187   1.675   6.000
85737SOL    HW159050  11.192   1.589   5.959
85737SOL    HW259051  11.196   1.737   5.928
85738SOL     OW59052  13.028   2.333   7.657
85738SOL    HW159053  13.067   2.264   7.603
85738SOL    HW259054  13.048   2.414   7.609
85739SOL     OW59055   4.919   6.199   0.538
85739SOL    HW159056   4.931   6.201   0.443
85739SOL    HW259057   4.887   6.286   0.560
85740SOL     OW59058  13.869  14.006   1.282
85740SOL    HW159059  13.828  13.950   1.216
85740SOL    HW259060  13.895  13.945   1.352
85741SOL     OW59061  10.754  11.894   4.008
85741SOL    HW159062  10.747  11.897   3.912
85741SOL    HW259063  10.785  11.980   4.033
85742SOL     OW59064   7.625   0.340   1.355
85742SOL    HW159065   7.658   0.357   1.444
85742SOL    HW259066   7.582   0.255   1.362
85743SOL     OW59067   9.878   9.298   0.362
85743SOL    HW159068   9.868   9.277   0.269
85743SOL    HW259069   9.917   9.385   0.362
85744SOL     OW59070   1.096  10.414  12.063
85744SOL    HW159071   1.045  10.336  12.084
85744SOL    HW259072   1.153  10.387  11.991
85745SOL     OW59073   4.059   8.531   9.118
85745SOL    HW159074   4.012   8.588   9.057
85745SOL    HW259075   4.150   8.534   9.088
85746SOL     OW59076   3.820   6.695   7.594
85746SOL    HW159077   3.798   6.715   7.685
85746SOL    HW259078   3.916   6.693   7.592
85747SOL     OW59079  10.636  11.527   2.280
85747SOL    HW159080  10.568  11.466   2.308
85747SOL    HW259081  10.666  11.569   2.361
85748SOL     OW59082   5.568   4.801   9.964
85748SOL    HW159083   5.570   4.745   9.886
85748SOL    HW259084   5.646   4.855   9.957
85749SOL     OW59085   2.512   7.482  14.138
85749SOL    HW159086   2.483   7.477  14.229
85749SOL    HW259087   2.434   7.507  14.088
85750SOL     OW59088   6.780   9.678   8.505
85750SOL    HW159089   6.759   9.728   8.426
85750SOL    HW259090   6.838   9.608   8.474
85751SOL     OW59091   0.385   0.966   6.635
85751SOL    HW159092   0.398   0.872   6.648
85751SOL    HW259093   0.317   0.972   6.568
85752SOL     OW59094   5.005   8.758  10.202
85752SOL    HW159095   4.914   8.750  10.233
85752SOL    HW259096   5.047   8.678  10.232
85753SOL     OW59097   0.414   5.476  12.368
85753SOL    HW159098   0.453   5.564  12.376
85753SOL    HW259099   0.433   5.451  12.277
85754SOL     OW59100   6.486   5.727  14.258
85754SOL    HW159101   6.404   5.693  14.222
85754SOL    HW259102   6.533   5.649  14.288
85755SOL     OW59103  14.143  14.745   5.273
85755SOL    HW159104  14.097  14.716   5.352
85755SOL    HW259105  14.218  14.686   5.265
85756SOL     OW59106  12.995   4.943  12.905
85756SOL    HW159107  12.967   4.918  12.817
85756SOL    HW259108  12.952   5.027  12.922
85757SOL     OW59109   3.695  12.797   3.654
85757SOL    HW159110   3.720  12.723   3.599
85757SOL    HW259111   3.692  12.761   3.743
85758SOL     OW59112   5.959   2.601   3.134
85758SOL    HW159113   5.925   2.531   3.079
85758SOL    HW259114   5.881   2.642   3.171
85759SOL     OW59115  11.777   3.892   9.572
85759SOL    HW159116  11.807   3.960   9.513
85759SOL    HW259117  11.846   3.884   9.638
85760SOL     OW59118   7.398  12.534   9.158
85760SOL    HW159119   7.473  12.482   9.185
85760SOL    HW259120   7.421  12.624   9.180
85761SOL     OW59121  13.615  10.876   1.304
85761SOL    HW159122  13.687  10.937   1.317
85761SOL    HW259123  13.657  10.793   1.285
85762SOL     OW59124   3.719   1.063   6.013
85762SOL    HW159125   3.698   0.981   5.970
85762SOL    HW259126   3.691   1.131   5.952
85763SOL     OW59127   9.443   7.869   7.606
85763SOL    HW159128   9.397   7.786   7.596
85763SOL    HW259129   9.523   7.847   7.654
85764SOL     OW59130  10.047   5.444   7.403
85764SOL    HW159131  10.062   5.370   7.461
85764SOL    HW259132   9.952   5.452   7.399
85765SOL     OW59133   3.699  11.622   9.479
85765SOL    HW159134   3.614  11.662   9.462
85765SOL    HW259135   3.745  11.685   9.535
85766SOL     OW59136   6.920  10.362   5.597
85766SOL    HW159137   7.005  10.342   5.637
85766SOL    HW259138   6.858  10.306   5.643
85767SOL     OW59139   4.739  12.302   6.942
85767SOL    HW159140   4.786  12.299   7.025
85767SOL    HW259141   4.655  12.342   6.964
85768SOL     OW59142  11.658  11.957  14.641
85768SOL    HW159143  11.725  11.967  14.709
85768SOL    HW259144  11.604  11.883  14.670
85769SOL     OW59145  12.322   2.882   8.260
85769SOL    HW159146  12.236   2.860   8.296
85769SOL    HW259147  12.373   2.913   8.335
85770SOL     OW59148   5.497   5.594   0.796
85770SOL    HW159149   5.513   5.500   0.801
85770SOL    HW259150   5.585   5.633   0.801
85771SOL     OW59151   7.249   1.763  13.891
85771SOL    HW159152   7.337   1.787  13.921
85771SOL    HW259153   7.191   1.820  13.942
85772SOL     OW59154   3.302   8.229   9.460
85772SOL    HW159155   3.384   8.238   9.508
85772SOL    HW259156   3.326   8.247   9.369
85773SOL     OW59157   8.614   7.939  13.505
85773SOL    HW159158   8.647   7.849  13.507
85773SOL    HW259159   8.614   7.967  13.596
85774SOL     OW59160   1.149   2.919  14.786
85774SOL    HW159161   1.243   2.901  14.787
85774SOL    HW259162   1.111   2.841  14.744
85775SOL     OW59163   6.308   0.449   4.203
85775SOL    HW159164   6.310   0.478   4.295
85775SOL    HW259165   6.397   0.419   4.185
85776SOL     OW59166   7.326   2.001   0.871
85776SOL    HW159167   7.236   2.033   0.863
85776SOL    HW259168   7.351   2.021   0.961
85777SOL     OW59169   7.690   5.193   5.696
85777SOL    HW159170   7.754   5.168   5.629
85777SOL    HW259171   7.703   5.129   5.766
85778SOL     OW59172   7.048   2.456   9.028
85778SOL    HW159173   6.978   2.476   8.966
85778SOL    HW259174   7.129   2.479   8.981
85779SOL     OW59175   9.658   5.835   1.460
85779SOL    HW159176   9.610   5.918   1.465
85779SOL    HW259177   9.671   5.809   1.551
85780SOL     OW59178   6.863  10.395  11.553
85780SOL    HW159179   6.936  10.456  11.539
85780SOL    HW259180   6.862  10.381  11.648
85781SOL     OW59181   9.207   6.589   5.474
85781SOL    HW159182   9.227   6.650   5.404
85781SOL    HW259183   9.207   6.643   5.554
85782SOL     OW59184   6.995   3.532   2.085
85782SOL    HW159185   6.919   3.548   2.029
85782SOL    HW259186   6.969   3.567   2.170
85783SOL     OW59187   7.156   9.752   8.299
85783SOL    HW159188   7.092   9.759   8.229
85783SOL    HW259189   7.134   9.824   8.359
85784SOL     OW59190   0.812   9.551  14.079
85784SOL    HW159191   0.805   9.465  14.038
85784SOL    HW259192   0.723   9.584  14.083
85785SOL     OW59193   6.141  11.337   7.688
85785SOL    HW159194   6.218  11.307   7.737
85785SOL    HW259195   6.100  11.257   7.655
85786SOL     OW59196   3.013   6.034   9.633
85786SOL    HW159197   3.019   5.987   9.550
85786SOL    HW259198   3.084   5.997   9.686
85787SOL     OW59199   8.962   1.799  10.691
85787SOL    HW159200   8.989   1.814  10.781
85787SOL    HW259201   9.025   1.735  10.657
85788SOL     OW59202  11.710   2.306   9.859
85788SOL    HW159203  11.618   2.284   9.845
85788SOL    HW259204  11.743   2.237   9.916
85789SOL     OW59205   7.096   6.668   1.382
85789SOL    HW159206   7.076   6.639   1.293
85789SOL    HW259207   7.070   6.760   1.384
85790SOL     OW59208   9.021  13.320  14.212
85790SOL    HW159209   9.000  13.228  14.229
85790SOL    HW259210   9.113  13.328  14.238
85791SOL     OW59211   9.044   7.240   5.214
85791SOL    HW159212   9.115   7.177   5.199
85791SOL    HW259213   8.990   7.199   5.282
85792SOL     OW59214  11.159   5.548  11.704
85792SOL    HW159215  11.124   5.550  11.615
85792SOL    HW259216  11.187   5.638  11.721
85793SOL     OW59217   4.551   8.849   5.296
85793SOL    HW159218   4.480   8.880   5.352
85793SOL    HW259219   4.565   8.920   5.233
85794SOL     OW59220   3.285   6.846   7.567
85794SOL    HW159221   3.380   6.832   7.570
85794SOL    HW259222   3.251   6.767   7.525
85795SOL     OW59223   2.149  14.319   1.581
85795SOL    HW159224   2.244  14.311   1.586
85795SOL    HW259225   2.116  14.250   1.638
85796SOL     OW59226  11.651   5.484   4.929
85796SOL    HW159227  11.558   5.505   4.943
85796SOL    HW259228  11.698   5.556   4.972
85797SOL     OW59229  12.254   7.374   0.081
85797SOL    HW159230  12.243   7.327   0.164
85797SOL    HW259231  12.186   7.442   0.084
85798SOL     OW59232   7.932   4.422   9.258
85798SOL    HW159233   7.871   4.495   9.250
85798SOL    HW259234   7.998   4.452   9.321
85799SOL     OW59235   6.017  12.115   1.864
85799SOL    HW159236   5.939  12.151   1.822
85799SOL    HW259237   5.986  12.035   1.907
85800SOL     OW59238   9.615   7.952   8.856
85800SOL    HW159239   9.630   8.047   8.862
85800SOL    HW259240   9.700   7.916   8.833
85801SOL     OW59241   1.524   0.978   3.450
85801SOL    HW159242   1.619   0.988   3.463
85801SOL    HW259243   1.504   1.041   3.380
85802SOL     OW59244   9.568  11.575   5.957
85802SOL    HW159245   9.540  11.641   5.894
85802SOL    HW259246   9.506  11.584   6.030
85803SOL     OW59247  11.791   5.636   3.013
85803SOL    HW159248  11.722   5.701   3.016
85803SOL    HW259249  11.778   5.591   2.929
85804SOL     OW59250  12.856  11.411   3.064
85804SOL    HW159251  12.814  11.342   3.012
85804SOL    HW259252  12.869  11.371   3.150
85805SOL     OW59253   5.393  13.292   9.214
85805SOL    HW159254   5.373  13.371   9.264
85805SOL    HW259255   5.386  13.221   9.278
85806SOL     OW59256  11.347   6.237   2.273
85806SOL    HW159257  11.286   6.193   2.214
85806SOL    HW259258  11.427   6.185   2.266
85807SOL     OW59259  14.465   5.594   7.832
85807SOL    HW159260  14.487   5.653   7.760
85807SOL    HW259261  14.464   5.651   7.910
85808SOL     OW59262  11.378   5.534  13.893
85808SOL    HW159263  11.348   5.463  13.837
85808SOL    HW259264  11.340   5.613  13.854
85809SOL     OW59265   7.579   9.081  12.944
85809SOL    HW159266   7.485   9.065  12.940
85809SOL    HW259267   7.614   9.007  12.994
85810SOL     OW59268   7.357  11.110   3.949
85810SOL    HW159269   7.440  11.073   3.981
85810SOL    HW259270   7.373  11.204   3.944
85811SOL     OW59271  10.820   5.506   0.628
85811SOL    HW159272  10.862   5.433   0.582
85811SOL    HW259273  10.729   5.504   0.599
85812SOL     OW59274  11.623   7.954   7.210
85812SOL    HW159275  11.606   8.047   7.228
85812SOL    HW259276  11.547   7.908   7.244
85813SOL     OW59277   7.059  13.927  10.524
85813SOL    HW159278   7.087  13.941  10.614
85813SOL    HW259279   7.027  14.013  10.495
85814SOL     OW59280   2.210   6.347  11.407
85814SOL    HW159281   2.300   6.317  11.396
85814SOL    HW259282   2.187   6.386  11.322
85815SOL     OW59283  13.463   4.535   8.651
85815SOL    HW159284  13.507   4.451   8.633
85815SOL    HW259285  13.486   4.590   8.576
85816SOL     OW59286   3.925   8.425   6.702
85816SOL    HW159287   3.940   8.331   6.707
85816SOL    HW259288   4.012   8.464   6.706
85817SOL     OW59289   2.780  11.547   6.323
85817SOL    HW159290   2.837  11.531   6.248
85817SOL    HW259291   2.828  11.511   6.398
85818SOL     OW59292  10.505   7.456  14.409
85818SOL    HW159293  10.466   7.457  14.321
85818SOL    HW259294  10.436   7.486  14.467
85819SOL     OW59295   2.626   2.727   8.196
85819SOL    HW159296   2.608   2.729   8.290
85819SOL    HW259297   2.542   2.750   8.155
85820SOL     OW59298   5.766   9.846   8.158
85820SOL    HW159299   5.847   9.797   8.170
85820SOL    HW259300   5.790   9.937   8.176
85821SOL     OW59301   0.162   1.065  10.950
85821SOL    HW159302   0.217   1.083  11.026
85821SOL    HW259303   0.127   0.978  10.965
85822SOL     OW59304   3.504  12.050   2.899
85822SOL    HW159305   3.505  12.136   2.856
85822SOL    HW259306   3.511  11.988   2.827
85823SOL     OW59307   1.932  14.815   9.477
85823SOL    HW159308   1.953  14.733   9.521
85823SOL    HW259309   1.953  14.799   9.385
85824SOL     OW59310  14.611   8.044   1.837
85824SOL    HW159311  14.642   7.960   1.801
85824SOL    HW259312  14.532   8.064   1.788
85825SOL     OW59313   3.424  12.810   0.614
85825SOL    HW159314   3.511  12.839   0.588
85825SOL    HW259315   3.430  12.799   0.709
85826SOL     OW59316   6.144   2.029   3.445
85826SOL    HW159317   6.121   2.003   3.356
85826SOL    HW259318   6.121   2.122   3.449
85827SOL     OW59319   9.831  14.465  14.435
85827SOL    HW159320   9.778  14.535  14.397
85827SOL    HW259321   9.854  14.409  14.361
85828SOL     OW59322   1.675  10.298   0.934
85828SOL    HW159323   1.633  10.218   0.967
85828SOL    HW259324   1.725  10.331   1.008
85829SOL     OW59325   3.144  14.412   9.852
85829SOL    HW159326   3.141  14.366   9.768
85829SOL    HW259327   3.083  14.364   9.908
85830SOL     OW59328  12.901  12.924   3.425
85830SOL    HW159329  12.878  13.013   3.453
85830SOL    HW259330  12.819  12.886   3.394
85831SOL     OW59331   3.892  11.462   0.298
85831SOL    HW159332   3.840  11.537   0.326
85831SOL    HW259333   3.857  11.439   0.212
85832SOL     OW59334   0.133   6.543  10.370
85832SOL    HW159335   0.137   6.554  10.465
85832SOL    HW259336   0.222   6.560  10.340
85833SOL     OW59337   6.532  12.624   7.265
85833SOL    HW159338   6.487  12.670   7.194
85833SOL    HW259339   6.556  12.539   7.227
85834SOL     OW59340   8.083  10.031  10.587
85834SOL    HW159341   7.999   9.987  10.602
85834SOL    HW259342   8.074  10.070  10.500
85835SOL     OW59343   0.624   6.884   9.137
85835SOL    HW159344   0.533   6.894   9.111
85835SOL    HW259345   0.644   6.964   9.186
85836SOL     OW59346   7.237   8.002  14.095
85836SOL    HW159347   7.293   8.071  14.062
85836SOL    HW259348   7.198   7.963  14.017
85837SOL     OW59349   1.666  12.832   4.349
85837SOL    HW159350   1.629  12.799   4.430
85837SOL    HW259351   1.667  12.927   4.360
85838SOL     OW59352  10.808   1.263   6.901
85838SOL    HW159353  10.815   1.310   6.983
85838SOL    HW259354  10.840   1.175   6.921
85839SOL     OW59355   0.451   0.712   7.633
85839SOL    HW159356   0.455   0.763   7.553
85839SOL    HW259357   0.537   0.669   7.639
85840SOL     OW59358  11.863   3.739  10.324
85840SOL    HW159359  11.874   3.803  10.254
85840SOL    HW259360  11.932   3.675  10.309
85841SOL     OW59361   2.216   2.653   1.494
85841SOL    HW159362   2.187   2.631   1.406
85841SOL    HW259363   2.160   2.600   1.551
85842SOL     OW59364  12.016   0.109   0.469
85842SOL    HW159365  11.951   0.172   0.502
85842SOL    HW259366  11.972   0.065   0.397
85843SOL     OW59367   9.884   0.200  13.745
85843SOL    HW159368   9.874   0.284  13.789
85843SOL    HW259369   9.803   0.153  13.762
85844SOL     OW59370   1.996   5.802   0.537
85844SOL    HW159371   1.974   5.882   0.584
85844SOL    HW259372   2.056   5.755   0.596
85845SOL     OW59373   5.040   4.972   0.025
85845SOL    HW159374   5.108   4.975  14.832
85845SOL    HW259375   4.988   4.895   0.003
85846SOL     OW59376   1.454   0.906   5.264
85846SOL    HW159377   1.392   0.862   5.321
85846SOL    HW259378   1.533   0.915   5.317
85847SOL     OW59379   8.943   9.039   8.018
85847SOL    HW159380   8.967   8.952   8.050
85847SOL    HW259381   8.847   9.041   8.025
85848SOL     OW59382   6.005   8.476   0.452
85848SOL    HW159383   6.094   8.482   0.489
85848SOL    HW259384   5.948   8.495   0.527
85849SOL     OW59385  10.461  10.816   1.812
85849SOL    HW159386  10.428  10.800   1.723
85849SOL    HW259387  10.554  10.792   1.808
85850SOL     OW59388   2.571   9.083   1.253
85850SOL    HW159389   2.650   9.134   1.233
85850SOL    HW259390   2.538   9.120   1.335
85851SOL     OW59391  11.289   5.957  11.213
85851SOL    HW159392  11.316   5.885  11.157
85851SOL    HW259393  11.230   6.010  11.157
85852SOL     OW59394   2.878  12.802   0.137
85852SOL    HW159395   2.845  12.754   0.214
85852SOL    HW259396   2.958  12.844   0.167
85853SOL     OW59397   6.948  14.755   9.135
85853SOL    HW159398   6.896  14.675   9.143
85853SOL    HW259399   6.918  14.796   9.054
85854SOL     OW59400   4.205   3.437   5.637
85854SOL    HW159401   4.279   3.395   5.681
85854SOL    HW259402   4.195   3.521   5.682
85855SOL     OW59403  12.119   2.650   7.433
85855SOL    HW159404  12.104   2.565   7.391
85855SOL    HW259405  12.182   2.631   7.502
85856SOL     OW59406   6.905   1.609  10.815
85856SOL    HW159407   6.959   1.599  10.893
85856SOL    HW259408   6.915   1.701  10.790
85857SOL     OW59409   8.578   6.226  12.363
85857SOL    HW159410   8.491   6.185  12.355
85857SOL    HW259411   8.586   6.279  12.283
85858SOL     OW59412   2.587   4.100   4.102
85858SOL    HW159413   2.621   4.099   4.013
85858SOL    HW259414   2.546   4.186   4.111
85859SOL     OW59415   9.941   1.646  13.899
85859SOL    HW159416  10.009   1.668  13.963
85859SOL    HW259417   9.907   1.562  13.928
85860SOL     OW59418   2.937   2.598   7.648
85860SOL    HW159419   2.868   2.572   7.710
85860SOL    HW259420   3.019   2.576   7.693
85861SOL     OW59421   4.701   9.464  14.467
85861SOL    HW159422   4.701   9.534  14.402
85861SOL    HW259423   4.611   9.430  14.464
85862SOL     OW59424  14.600  11.533   7.005
85862SOL    HW159425  14.515  11.562   7.038
85862SOL    HW259426  14.617  11.451   7.052
85863SOL     OW59427   9.829  13.559   7.961
85863SOL    HW159428   9.862  13.487   8.016
85863SOL    HW259429   9.767  13.605   8.018
85864SOL     OW59430   1.500   4.440   3.030
85864SOL    HW159431   1.586   4.440   2.988
85864SOL    HW259432   1.448   4.503   2.981
85865SOL     OW59433   9.097  13.685  13.669
85865SOL    HW159434   9.145  13.735  13.735
85865SOL    HW259435   9.150  13.694  13.590
85866SOL     OW59436   5.248   0.375  11.399
85866SOL    HW159437   5.214   0.461  11.375
85866SOL    HW259438   5.303   0.391  11.476
85867SOL     OW59439  11.985  12.303  13.111
85867SOL    HW159440  12.013  12.287  13.020
85867SOL    HW259441  12.034  12.240  13.163
85868SOL     OW59442   9.336   0.795   9.983
85868SOL    HW159443   9.336   0.853  10.058
85868SOL    HW259444   9.309   0.710  10.018
85869SOL     OW59445   6.485   9.500   1.276
85869SOL    HW159446   6.432   9.540   1.345
85869SOL    HW259447   6.453   9.410   1.269
85870SOL     OW59448   6.942   9.752   9.378
85870SOL    HW159449   6.853   9.727   9.351
85870SOL    HW259450   6.998   9.723   9.306
85871SOL     OW59451   4.721   9.233   3.677
85871SOL    HW159452   4.808   9.211   3.645
85871SOL    HW259453   4.718   9.195   3.765
85872SOL     OW59454  10.153   3.590  13.496
85872SOL    HW159455  10.241   3.583  13.458
85872SOL    HW259456  10.132   3.683  13.489
85873SOL     OW59457   2.096  10.277   6.392
85873SOL    HW159458   2.086  10.265   6.297
85873SOL    HW259459   2.047  10.204   6.430
85874SOL     OW59460   2.177   0.114   2.595
85874SOL    HW159461   2.085   0.107   2.617
85874SOL    HW259462   2.178   0.153   2.507
85875SOL     OW59463   5.087  13.269   6.190
85875SOL    HW159464   5.092  13.183   6.149
85875SOL    HW259465   5.008  13.266   6.244
85876SOL     OW59466  10.050  11.874  12.046
85876SOL    HW159467  10.100  11.856  12.125
85876SOL    HW259468   9.980  11.809  12.045
85877SOL     OW59469   6.870  11.353   7.557
85877SOL    HW159470   6.929  11.288   7.595
85877SOL    HW259471   6.807  11.302   7.506
85878SOL     OW59472   0.820   8.715   0.687
85878SOL    HW159473   0.868   8.641   0.724
85878SOL    HW259474   0.768   8.749   0.760
85879SOL     OW59475   3.388   3.284   3.912
85879SOL    HW159476   3.338   3.328   3.843
85879SOL    HW259477   3.479   3.290   3.882
85880SOL     OW59478   2.703  10.816  12.016
85880SOL    HW159479   2.652  10.803  11.936
85880SOL    HW259480   2.779  10.867  11.989
85881SOL     OW59481   3.873   7.256   7.186
85881SOL    HW159482   3.868   7.304   7.104
85881SOL    HW259483   3.960   7.216   7.185
85882SOL     OW59484  13.151  10.545   8.500
85882SOL    HW159485  13.124  10.484   8.569
85882SOL    HW259486  13.100  10.625   8.517
85883SOL     OW59487   3.865   5.476   6.495
85883SOL    HW159488   3.805   5.486   6.569
85883SOL    HW259489   3.808   5.455   6.421
85884SOL     OW59490   5.127   0.198   4.296
85884SOL    HW159491   5.217   0.224   4.312
85884SOL    HW259492   5.087   0.274   4.253
85885SOL     OW59493  13.930   3.463   3.331
85885SOL    HW159494  13.847   3.490   3.370
85885SOL    HW259495  13.940   3.371   3.355
85886SOL     OW59496   5.190  12.716   6.559
85886SOL    HW159497   5.167  12.690   6.469
85886SOL    HW259498   5.118  12.684   6.612
85887SOL     OW59499  11.870  10.967   2.829
85887SOL    HW159500  11.890  10.906   2.900
85887SOL    HW259501  11.817  11.035   2.870
85888SOL     OW59502   5.075   0.640  10.220
85888SOL    HW159503   5.016   0.642  10.145
85888SOL    HW259504   5.127   0.720  10.212
85889SOL     OW59505   8.343   1.347   0.380
85889SOL    HW159506   8.310   1.419   0.328
85889SOL    HW259507   8.415   1.385   0.431
85890SOL     OW59508   8.464   1.243   3.851
85890SOL    HW159509   8.435   1.182   3.783
85890SOL    HW259510   8.450   1.196   3.933
85891SOL     OW59511  13.864  12.370  11.482
85891SOL    HW159512  13.807  12.405  11.413
85891SOL    HW259513  13.817  12.389  11.564
85892SOL     OW59514   2.606  11.033   4.666
85892SOL    HW159515   2.533  11.094   4.673
85892SOL    HW259516   2.618  11.020   4.572
85893SOL     OW59517   5.733   8.771   2.833
85893SOL    HW159518   5.813   8.821   2.852
85893SOL    HW259519   5.665   8.814   2.885
85894SOL     OW59520   5.052   2.300   2.960
85894SOL    HW159521   5.047   2.379   3.014
85894SOL    HW259522   5.005   2.322   2.880
85895SOL     OW59523   4.713  14.312   7.701
85895SOL    HW159524   4.772  14.237   7.697
85895SOL    HW259525   4.631  14.281   7.662
85896SOL     OW59526   9.574   7.966   2.166
85896SOL    HW159527   9.479   7.974   2.158
85896SOL    HW259528   9.587   7.905   2.238
85897SOL     OW59529   5.749   5.204   7.711
85897SOL    HW159530   5.728   5.294   7.688
85897SOL    HW259531   5.667   5.157   7.700
85898SOL     OW59532  12.054   4.666   7.095
85898SOL    HW159533  12.078   4.648   7.187
85898SOL    HW259534  12.018   4.583   7.064
85899SOL     OW59535   1.863   2.926  14.337
85899SOL    HW159536   1.888   2.936  14.429
85899SOL    HW259537   1.802   2.998  14.321
85900SOL     OW59538  11.585  13.619  12.547
85900SOL    HW159539  11.492  13.633  12.565
85900SOL    HW259540  11.618  13.579  12.628
85901SOL     OW59541   8.573  10.018  12.378
85901SOL    HW159542   8.587   9.969  12.458
85901SOL    HW259543   8.487  10.059  12.389
85902SOL     OW59544  14.763   2.311   7.715
85902SOL    HW159545  14.858   2.321   7.708
85902SOL    HW259546  14.751   2.225   7.755
85903SOL     OW59547   2.912   0.063   6.740
85903SOL    HW159548   2.844   0.096   6.798
85903SOL    HW259549   2.868   0.051   6.655
85904SOL     OW59550   7.463   9.367   7.800
85904SOL    HW159551   7.509   9.414   7.869
85904SOL    HW259552   7.400   9.312   7.846
85905SOL     OW59553   7.082   4.950   0.296
85905SOL    HW159554   7.008   4.975   0.351
85905SOL    HW259555   7.102   5.028   0.245
85906SOL     OW59556  13.342   9.519   0.476
85906SOL    HW159557  13.342   9.572   0.397
85906SOL    HW259558  13.269   9.554   0.528
85907SOL     OW59559   3.226  12.103   0.176
85907SOL    HW159560   3.285  12.144   0.113
85907SOL    HW259561   3.217  12.013   0.146
85908SOL     OW59562   3.103  13.425   7.249
85908SOL    HW159563   3.087  13.337   7.215
85908SOL    HW259564   3.016  13.459   7.272
85909SOL     OW59565   5.911   9.993   5.156
85909SOL    HW159566   5.851   9.941   5.210
85909SOL    HW259567   5.978  10.023   5.218
85910SOL     OW59568   3.464  12.933   8.714
85910SOL    HW159569   3.509  12.849   8.724
85910SOL    HW259570   3.488  12.983   8.792
85911SOL     OW59571   6.202   5.618  11.086
85911SOL    HW159572   6.250   5.638  11.006
85911SOL    HW259573   6.113   5.599  11.057
85912SOL     OW59574  12.404   9.416   7.857
85912SOL    HW159575  12.381   9.439   7.947
85912SOL    HW259576  12.378   9.324   7.849
85913SOL     OW59577   3.276  10.978   7.004
85913SOL    HW159578   3.359  10.993   6.959
85913SOL    HW259579   3.236  11.064   7.011
85914SOL     OW59580   1.503  12.736  11.027
85914SOL    HW159581   1.502  12.729  10.932
85914SOL    HW259582   1.505  12.645  11.058
85915SOL     OW59583  12.311  14.405  12.665
85915SOL    HW159584  12.350  14.461  12.732
85915SOL    HW259585  12.376  14.336  12.651
85916SOL     OW59586   1.283  13.249   5.438
85916SOL    HW159587   1.251  13.335   5.413
85916SOL    HW259588   1.378  13.259   5.442
85917SOL     OW59589   9.847   8.273   3.884
85917SOL    HW159590   9.756   8.301   3.891
85917SOL    HW259591   9.858   8.253   3.791
85918SOL     OW59592   1.640   0.726   0.493
85918SOL    HW159593   1.712   0.723   0.431
85918SOL    HW259594   1.630   0.818   0.516
85919SOL     OW59595   4.437  14.858   9.279
85919SOL    HW159596   4.450   0.042   9.203
85919SOL    HW259597   4.525  14.826   9.299
85920SOL     OW59598  13.373   3.044   3.442
85920SOL    HW159599  13.373   3.019   3.535
85920SOL    HW259600  13.350   3.137   3.442
85921SOL     OW59601   2.353   0.945   4.277
85921SOL    HW159602   2.361   0.974   4.186
85921SOL    HW259603   2.286   1.001   4.315
85922SOL     OW59604   3.452   6.508   2.677
85922SOL    HW159605   3.386   6.551   2.622
85922SOL    HW259606   3.489   6.440   2.622
85923SOL     OW59607   8.306   4.769   8.645
85923SOL    HW159608   8.269   4.700   8.700
85923SOL    HW259609   8.399   4.773   8.670
85924SOL     OW59610   1.536  14.018   0.345
85924SOL    HW159611   1.586  13.947   0.386
85924SOL    HW259612   1.493  14.062   0.418
85925SOL     OW59613  12.523  13.713  14.362
85925SOL    HW159614  12.461  13.782  14.339
85925SOL    HW259615  12.592  13.758  14.411
85926SOL     OW59616   3.272   5.165   1.812
85926SOL    HW159617   3.336   5.223   1.852
85926SOL    HW259618   3.318   5.126   1.738
85927SOL     OW59619   4.101   5.936   8.701
85927SOL    HW159620   4.183   5.919   8.654
85927SOL    HW259621   4.069   5.849   8.726
85928SOL     OW59622  12.921  10.795   9.635
85928SOL    HW159623  12.860  10.729   9.668
85928SOL    HW259624  13.001  10.781   9.687
85929SOL     OW59625  10.367   2.126   4.744
85929SOL    HW159626  10.306   2.054   4.759
85929SOL    HW259627  10.374   2.170   4.829
85930SOL     OW59628  13.365  10.408  12.155
85930SOL    HW159629  13.303  10.342  12.188
85930SOL    HW259630  13.389  10.459  12.233
85931SOL     OW59631   2.992   6.290   3.044
85931SOL    HW159632   2.986   6.315   2.952
85931SOL    HW259633   3.033   6.366   3.087
85932SOL     OW59634   0.553  11.750   4.584
85932SOL    HW159635   0.599  11.737   4.667
85932SOL    HW259636   0.483  11.685   4.585
85933SOL     OW59637   6.838   8.280   6.057
85933SOL    HW159638   6.780   8.257   6.130
85933SOL    HW259639   6.892   8.351   6.091
85934SOL     OW59640   0.286   9.300  12.600
85934SOL    HW159641   0.196   9.327  12.618
85934SOL    HW259642   0.312   9.351  12.524
85935SOL     OW59643  14.292  12.446   0.753
85935SOL    HW159644  14.350  12.421   0.825
85935SOL    HW259645  14.335  12.414   0.674
85936SOL     OW59646   5.508   5.865   7.990
85936SOL    HW159647   5.600   5.843   8.002
85936SOL    HW259648   5.468   5.784   7.957
85937SOL     OW59649  13.974  14.666   9.008
85937SOL    HW159650  13.895  14.719   9.022
85937SOL    HW259651  14.002  14.687   8.919
85938SOL     OW59652  11.101   4.260   0.069
85938SOL    HW159653  11.015   4.300   0.081
85938SOL    HW259654  11.082   4.169   0.046
85939SOL     OW59655   9.559   2.211  13.990
85939SOL    HW159656   9.468   2.241  13.991
85939SOL    HW259657   9.553   2.116  13.988
85940SOL     OW59658   5.639   4.196   9.901
85940SOL    HW159659   5.689   4.272   9.872
85940SOL    HW259660   5.572   4.232   9.959
85941SOL     OW59661   7.759  13.068  12.559
85941SOL    HW159662   7.834  13.121  12.585
85941SOL    HW259663   7.785  12.978  12.579
85942SOL     OW59664  14.605  12.787  10.555
85942SOL    HW159665  14.672  12.830  10.608
85942SOL    HW259666  14.524  12.798  10.605
85943SOL     OW59667   6.589   0.131   9.462
85943SOL    HW159668   6.616   0.040   9.474
85943SOL    HW259669   6.517   0.127   9.399
85944SOL     OW59670   7.699   7.959  10.420
85944SOL    HW159671   7.667   7.911  10.343
85944SOL    HW259672   7.663   8.047  10.410
85945SOL     OW59673   4.517   1.234  13.738
85945SOL    HW159674   4.471   1.217  13.820
85945SOL    HW259675   4.471   1.308  13.699
85946SOL     OW59676  13.024   6.141   2.630
85946SOL    HW159677  12.990   6.217   2.582
85946SOL    HW259678  13.070   6.089   2.563
85947SOL     OW59679  14.753   5.989   9.251
85947SOL    HW159680  14.756   5.926   9.180
85947SOL    HW259681  14.794   5.944   9.325
85948SOL     OW59682   5.899   8.775  11.049
85948SOL    HW159683   5.957   8.849  11.068
85948SOL    HW259684   5.832   8.777  11.117
85949SOL     OW59685   6.759   3.132  10.794
85949SOL    HW159686   6.785   3.068  10.728
85949SOL    HW259687   6.828   3.127  10.860
85950SOL     OW59688  12.644   3.433  10.993
85950SOL    HW159689  12.623   3.340  10.987
85950SOL    HW259690  12.704   3.439  11.067
85951SOL     OW59691   1.292   6.091   8.895
85951SOL    HW159692   1.233   6.041   8.951
85951SOL    HW259693   1.326   6.160   8.951
85952SOL     OW59694   0.971  11.224  10.462
85952SOL    HW159695   0.877  11.240  10.458
85952SOL    HW259696   1.007  11.277  10.391
85953SOL     OW59697   7.466   4.594   0.195
85953SOL    HW159698   7.476   4.552   0.280
85953SOL    HW259699   7.377   4.627   0.194
85954SOL     OW59700   3.301   8.575   9.365
85954SOL    HW159701   3.277   8.580   9.458
85954SOL    HW259702   3.260   8.652   9.326
85955SOL     OW59703   2.119   6.495  13.900
85955SOL    HW159704   2.200   6.446  13.912
85955SOL    HW259705   2.065   6.470  13.975
85956SOL     OW59706  12.806   1.324  12.779
85956SOL    HW159707  12.866   1.302  12.851
85956SOL    HW259708  12.791   1.241  12.734
85957SOL     OW59709  10.837   7.456   5.174
85957SOL    HW159710  10.775   7.488   5.239
85957SOL    HW259711  10.787   7.393   5.122
85958SOL     OW59712   5.003   3.839   2.556
85958SOL    HW159713   5.024   3.855   2.648
85958SOL    HW259714   5.053   3.761   2.533
85959SOL     OW59715   4.545   3.476   1.697
85959SOL    HW159716   4.545   3.572   1.696
85959SOL    HW259717   4.519   3.453   1.786
85960SOL     OW59718   7.105   7.286   9.600
85960SOL    HW159719   7.164   7.242   9.538
85960SOL    HW259720   7.022   7.293   9.553
85961SOL     OW59721   3.605  12.443  10.292
85961SOL    HW159722   3.560  12.514  10.338
85961SOL    HW259723   3.577  12.451  10.201
85962SOL     OW59724  10.679   1.912   1.796
85962SOL    HW159725  10.599   1.961   1.777
85962SOL    HW259726  10.750   1.974   1.782
85963SOL     OW59727   9.561   4.118  11.797
85963SOL    HW159728   9.654   4.129  11.817
85963SOL    HW259729   9.517   4.137  11.880
85964SOL     OW59730   8.150  10.939   1.085
85964SOL    HW159731   8.223  10.973   1.034
85964SOL    HW259732   8.159  10.843   1.079
85965SOL     OW59733  10.333  11.098  14.315
85965SOL    HW159734  10.323  11.003  14.321
85965SOL    HW259735  10.380  11.123  14.394
85966SOL     OW59736   3.506  10.202   3.104
85966SOL    HW159737   3.594  10.179   3.074
85966SOL    HW259738   3.452  10.196   3.025
85967SOL     OW59739  13.846   4.301   5.442
85967SOL    HW159740  13.890   4.251   5.511
85967SOL    HW259741  13.918   4.337   5.390
85968SOL     OW59742   7.307   7.943   4.729
85968SOL    HW159743   7.350   8.011   4.782
85968SOL    HW259744   7.303   7.980   4.641
85969SOL     OW59745  13.953   1.572   1.072
85969SOL    HW159746  13.987   1.630   1.140
85969SOL    HW259747  13.879   1.527   1.113
85970SOL     OW59748   1.041   2.291   4.163
85970SOL    HW159749   1.052   2.349   4.239
85970SOL    HW259750   1.130   2.276   4.131
85971SOL     OW59751  11.499   8.130   2.017
85971SOL    HW159752  11.543   8.215   2.015
85971SOL    HW259753  11.431   8.137   1.950
85972SOL     OW59754  12.005   8.890   0.489
85972SOL    HW159755  12.000   8.980   0.521
85972SOL    HW259756  11.922   8.850   0.516
85973SOL     OW59757   7.327  12.274   6.020
85973SOL    HW159758   7.326  12.225   6.102
85973SOL    HW259759   7.336  12.207   5.952
85974SOL     OW59760  11.845   6.076   5.507
85974SOL    HW159761  11.913   6.143   5.513
85974SOL    HW259762  11.839   6.041   5.596
85975SOL     OW59763   1.307   7.842  14.178
85975SOL    HW159764   1.352   7.920  14.210
85975SOL    HW259765   1.214   7.864  14.180
85976SOL     OW59766   7.383   0.714   9.079
85976SOL    HW159767   7.377   0.793   9.025
85976SOL    HW259768   7.455   0.731   9.139
85977SOL     OW59769   4.278   1.756  10.416
85977SOL    HW159770   4.361   1.751  10.368
85977SOL    HW259771   4.241   1.840  10.390
85978SOL     OW59772   4.896   0.363   6.756
85978SOL    HW159773   4.944   0.321   6.827
85978SOL    HW259774   4.818   0.308   6.744
85979SOL     OW59775   2.083   2.383   0.144
85979SOL    HW159776   2.141   2.354   0.215
85979SOL    HW259777   2.001   2.404   0.187
85980SOL     OW59778   3.747   9.821  12.212
85980SOL    HW159779   3.759   9.870  12.131
85980SOL    HW259780   3.833   9.823  12.254
85981SOL     OW59781   9.707   5.166   0.199
85981SOL    HW159782   9.712   5.099   0.130
85981SOL    HW259783   9.691   5.117   0.279
85982SOL     OW59784   2.511   1.573   8.424
85982SOL    HW159785   2.599   1.549   8.452
85982SOL    HW259786   2.453   1.539   8.492
85983SOL     OW59787   0.695   1.075   4.520
85983SOL    HW159788   0.703   1.166   4.548
85983SOL    HW259789   0.603   1.053   4.535
85984SOL     OW59790   0.831  12.576   6.466
85984SOL    HW159791   0.818  12.494   6.513
85984SOL    HW259792   0.898  12.622   6.516
85985SOL     OW59793   1.539  12.383   3.714
85985SOL    HW159794   1.564  12.352   3.801
85985SOL    HW259795   1.588  12.465   3.702
85986SOL     OW59796   8.978   5.331   1.499
85986SOL    HW159797   8.960   5.326   1.593
85986SOL    HW259798   8.932   5.256   1.461
85987SOL     OW59799   3.459   8.294  13.365
85987SOL    HW159800   3.415   8.333  13.439
85987SOL    HW259801   3.456   8.360  13.296
85988SOL     OW59802   6.023  12.004   3.938
85988SOL    HW159803   5.999  12.038   3.852
85988SOL    HW259804   5.972  11.924   3.948
85989SOL     OW59805   7.393   0.413  11.283
85989SOL    HW159806   7.346   0.332  11.261
85989SOL    HW259807   7.385   0.467  11.205
85990SOL     OW59808  11.237   0.568   8.141
85990SOL    HW159809  11.271   0.655   8.120
85990SOL    HW259810  11.208   0.575   8.232
85991SOL     OW59811   8.884   1.288   6.227
85991SOL    HW159812   8.863   1.209   6.178
85991SOL    HW259813   8.974   1.276   6.255
85992SOL     OW59814  11.492  11.238   3.647
85992SOL    HW159815  11.464  11.324   3.680
85992SOL    HW259816  11.423  11.178   3.676
85993SOL     OW59817  13.728   0.492   1.657
85993SOL    HW159818  13.791   0.426   1.687
85993SOL    HW259819  13.753   0.508   1.566
85994SOL     OW59820   7.213   8.613  12.629
85994SOL    HW159821   7.179   8.566  12.552
85994SOL    HW259822   7.308   8.614  12.616
85995SOL     OW59823   2.747  12.861  11.453
85995SOL    HW159824   2.726  12.954  11.454
85995SOL    HW259825   2.759  12.840  11.360
85996SOL     OW59826   2.897  12.321   3.697
85996SOL    HW159827   2.917  12.415   3.699
85996SOL    HW259828   2.944  12.288   3.620
85997SOL     OW59829   5.652   1.174   8.300
85997SOL    HW159830   5.720   1.108   8.310
85997SOL    HW259831   5.682   1.249   8.350
85998SOL     OW59832   3.237  14.670   8.677
85998SOL    HW159833   3.307  14.622   8.721
85998SOL    HW259834   3.240  14.639   8.587
85999SOL     OW59835   9.572   0.796   7.777
85999SOL    HW159836   9.656   0.822   7.816
85999SOL    HW259837   9.516   0.778   7.852
86000SOL     OW59838   5.204   4.022  12.835
86000SOL    HW159839   5.119   4.056  12.807
86000SOL    HW259840   5.243   4.093  12.885
86001SOL     OW59841   5.307   1.748   9.507
86001SOL    HW159842   5.305   1.756   9.603
86001SOL    HW259843   5.215   1.757   9.481
86002SOL     OW59844  13.984  10.325  10.482
86002SOL    HW159845  13.971  10.406  10.530
86002SOL    HW259846  13.896  10.299  10.454
86003SOL     OW59847   4.764  12.415  12.367
86003SOL    HW159848   4.744  12.460  12.285
86003SOL    HW259849   4.807  12.334  12.340
86004SOL     OW59850  14.599  14.279   6.427
86004SOL    HW159851  14.674  14.241   6.381
86004SOL    HW259852  14.538  14.303   6.357
86005SOL     OW59853  11.081   2.095   3.396
86005SOL    HW159854  11.101   2.188   3.404
86005SOL    HW259855  11.167   2.054   3.385
86006SOL     OW59856   4.373  11.359   8.404
86006SOL    HW159857   4.460  11.391   8.427
86006SOL    HW259858   4.383  11.264   8.396
86007SOL     OW59859   4.483  10.296   4.386
86007SOL    HW159860   4.529  10.227   4.338
86007SOL    HW259861   4.552  10.340   4.437
86008SOL     OW59862  12.277   7.516   3.048
86008SOL    HW159863  12.252   7.601   3.010
86008SOL    HW259864  12.203   7.459   3.030
86009SOL     OW59865  10.018   0.486   4.262
86009SOL    HW159866  10.032   0.566   4.212
86009SOL    HW259867  10.072   0.497   4.341
86010SOL     OW59868   9.418  10.993   5.473
86010SOL    HW159869   9.493  11.040   5.436
86010SOL    HW259870   9.351  11.060   5.486
86011SOL     OW59871  12.569   8.037  10.223
86011SOL    HW159872  12.550   7.944  10.235
86011SOL    HW259873  12.494   8.082  10.260
86012SOL     OW59874  13.515   5.322   3.457
86012SOL    HW159875  13.598   5.367   3.472
86012SOL    HW259876  13.470   5.376   3.393
86013SOL     OW59877  13.822   3.825  12.790
86013SOL    HW159878  13.838   3.901  12.847
86013SOL    HW259879  13.839   3.749  12.846
86014SOL     OW59880   4.652  13.446   8.407
86014SOL    HW159881   4.582  13.447   8.342
86014SOL    HW259882   4.620  13.389   8.477
86015SOL     OW59883   4.780   8.091  12.816
86015SOL    HW159884   4.753   8.082  12.725
86015SOL    HW259885   4.722   8.032  12.864
86016SOL     OW59886   7.275   0.871  11.778
86016SOL    HW159887   7.198   0.850  11.830
86016SOL    HW259888   7.255   0.956  11.739
86017SOL     OW59889   4.626   6.449   9.484
86017SOL    HW159890   4.671   6.373   9.520
86017SOL    HW259891   4.581   6.415   9.407
86018SOL     OW59892   8.388  12.791  14.173
86018SOL    HW159893   8.456  12.732  14.140
86018SOL    HW259894   8.437  12.860  14.218
86019SOL     OW59895  10.181  10.274  13.787
86019SOL    HW159896  10.209  10.365  13.775
86019SOL    HW259897  10.089  10.275  13.761
86020SOL     OW59898   0.826   1.230   4.263
86020SOL    HW159899   0.759   1.272   4.317
86020SOL    HW259900   0.854   1.154   4.314
86021SOL     OW59901   2.442   0.080  12.930
86021SOL    HW159902   2.353   0.075  12.965
86021SOL    HW259903   2.483   0.154  12.976
86022SOL     OW59904   9.981  12.551   4.784
86022SOL    HW159905  10.039  12.623   4.808
86022SOL    HW259906   9.922  12.542   4.858
86023SOL     OW59907  14.297  11.520   8.117
86023SOL    HW159908  14.326  11.570   8.193
86023SOL    HW259909  14.207  11.551   8.101
86024SOL     OW59910   3.326   5.350  11.054
86024SOL    HW159911   3.393   5.350  11.123
86024SOL    HW259912   3.245   5.372  11.099
86025SOL     OW59913   2.934  13.274  12.713
86025SOL    HW159914   2.879  13.304  12.640
86025SOL    HW259915   2.995  13.212  12.673
86026SOL     OW59916   3.889  10.143  12.427
86026SOL    HW159917   3.797  10.116  12.432
86026SOL    HW259918   3.918  10.150  12.518
86027SOL     OW59919   5.387   9.670   4.224
86027SOL    HW159920   5.317   9.610   4.251
86027SOL    HW259921   5.441   9.681   4.302
86028SOL     OW59922   5.026  13.719   7.532
86028SOL    HW159923   5.058  13.797   7.486
86028SOL    HW259924   5.014  13.748   7.623
86029SOL     OW59925  14.455  13.801   5.056
86029SOL    HW159926  14.427  13.726   5.108
86029SOL    HW259927  14.375  13.851   5.040
86030SOL     OW59928   3.076  11.122   7.283
86030SOL    HW159929   3.083  11.028   7.266
86030SOL    HW259930   2.990  11.132   7.324
86031SOL     OW59931   2.126   2.285   8.701
86031SOL    HW159932   2.032   2.277   8.719
86031SOL    HW259933   2.151   2.367   8.744
86032SOL     OW59934   9.598  10.809   3.964
86032SOL    HW159935   9.532  10.856   4.016
86032SOL    HW259936   9.626  10.873   3.898
86033SOL     OW59937   7.164  13.072  10.746
86033SOL    HW159938   7.133  13.054  10.835
86033SOL    HW259939   7.084  13.073  10.693
86034SOL     OW59940   7.042   7.863   4.502
86034SOL    HW159941   7.125   7.910   4.515
86034SOL    HW259942   6.976   7.932   4.495
86035SOL     OW59943  12.666   5.622   9.897
86035SOL    HW159944  12.757   5.592   9.888
86035SOL    HW259945  12.667   5.712   9.864
86036SOL     OW59946   2.895   6.402   7.507
86036SOL    HW159947   2.804   6.394   7.533
86036SOL    HW259948   2.934   6.316   7.525
86037SOL     OW59949  13.735  10.772  10.236
86037SOL    HW159950  13.693  10.858  10.242
86037SOL    HW259951  13.782  10.762  10.319
86038SOL     OW59952   1.027   6.298   1.291
86038SOL    HW159953   0.970   6.247   1.233
86038SOL    HW259954   1.078   6.354   1.232
86039SOL     OW59955   5.206   1.361   2.697
86039SOL    HW159956   5.233   1.446   2.731
86039SOL    HW259957   5.232   1.362   2.605
86040SOL     OW59958   9.018  11.819   0.422
86040SOL    HW159959   9.018  11.860   0.336
86040SOL    HW259960   9.082  11.748   0.415
86041SOL     OW59961   4.195   0.923  14.319
86041SOL    HW159962   4.164   0.994  14.376
86041SOL    HW259963   4.239   0.862  14.378
86042SOL     OW59964   1.740   9.839  14.716
86042SOL    HW159965   1.688   9.806  14.643
86042SOL    HW259966   1.783   9.917  14.681
86043SOL     OW59967   0.706  12.716   8.556
86043SOL    HW159968   0.705  12.667   8.638
86043SOL    HW259969   0.799  12.733   8.539
86044SOL     OW59970   5.929   4.279   7.319
86044SOL    HW159971   6.019   4.272   7.351
86044SOL    HW259972   5.916   4.198   7.269
86045SOL     OW59973  14.222   0.184  12.377
86045SOL    HW159974  14.140   0.199  12.329
86045SOL    HW259975  14.290   0.192  12.310
86046SOL     OW59976   2.616   0.926  14.631
86046SOL    HW159977   2.636   0.891  14.544
86046SOL    HW259978   2.699   0.965  14.660
86047SOL     OW59979   2.931   5.135   4.411
86047SOL    HW159980   2.872   5.099   4.345
86047SOL    HW259981   2.881   5.204   4.454
86048SOL     OW59982  10.834   9.734   3.800
86048SOL    HW159983  10.823   9.639   3.801
86048SOL    HW259984  10.752   9.767   3.764
86049SOL     OW59985   0.266   9.280  11.511
86049SOL    HW159986   0.182   9.307  11.475
86049SOL    HW259987   0.293   9.207  11.456
86050SOL     OW59988  14.569   5.514  12.055
86050SOL    HW159989  14.542   5.605  12.051
86050SOL    HW259990  14.543   5.484  12.143
86051SOL     OW59991   5.374  10.115  14.159
86051SOL    HW159992   5.333  10.134  14.244
86051SOL    HW259993   5.384  10.020  14.158
86052SOL     OW59994   8.947   0.615  11.028
86052SOL    HW159995   9.004   0.612  10.952
86052SOL    HW259996   8.957   0.704  11.062
86053SOL     OW59997   5.695   9.455   6.450
86053SOL    HW159998   5.668   9.365   6.468
86053SOL    HW259999   5.631   9.488   6.387
86054SOL     OW60000   2.259   9.104   6.147
86054SOL    HW160001   2.345   9.144   6.155
86054SOL    HW260002   2.214   9.155   6.079
86055SOL     OW60003   1.738  10.883   6.302
86055SOL    HW160004   1.740  10.935   6.383
86055SOL    HW260005   1.825  10.896   6.264
86056SOL     OW60006   5.092  14.305   6.377
86056SOL    HW160007   5.045  14.319   6.295
86056SOL    HW260008   5.097  14.392   6.417
86057SOL     OW60009   4.550   9.519   5.747
86057SOL    HW160010   4.490   9.594   5.739
86057SOL    HW260011   4.508   9.450   5.694
86058SOL     OW60012   8.827   0.953   1.619
86058SOL    HW160013   8.821   0.889   1.690
86058SOL    HW260014   8.920   0.977   1.615
86059SOL     OW60015  13.638  10.089  13.071
86059SOL    HW160016  13.642   9.994  13.068
86059SOL    HW260017  13.695  10.119  13.000
86060SOL     OW60018  14.082  12.872   2.271
86060SOL    HW160019  14.173  12.892   2.295
86060SOL    HW260020  14.086  12.846   2.179
86061SOL     OW60021   7.183  12.240   6.793
86061SOL    HW160022   7.091  12.259   6.775
86061SOL    HW260023   7.181  12.174   6.862
86062SOL     OW60024   8.174   6.834   0.214
86062SOL    HW160025   8.167   6.778   0.136
86062SOL    HW260026   8.255   6.882   0.201
86063SOL     OW60027  10.940   1.445   5.866
86063SOL    HW160028  10.871   1.483   5.922
86063SOL    HW260029  10.924   1.484   5.780
86064SOL     OW60030  10.402   6.085   5.694
86064SOL    HW160031  10.473   6.098   5.756
86064SOL    HW260032  10.392   6.169   5.650
86065SOL     OW60033  12.078   0.633  10.032
86065SOL    HW160034  12.076   0.573   9.958
86065SOL    HW260035  12.053   0.579  10.108
86066SOL     OW60036   4.478   2.279   9.996
86066SOL    HW160037   4.475   2.251  10.087
86066SOL    HW260038   4.429   2.361   9.994
86067SOL     OW60039  14.836   5.237  14.407
86067SOL    HW160040  14.843   5.203  14.318
86067SOL    HW260041  14.848   5.160  14.463
86068SOL     OW60042   1.884   3.875  12.503
86068SOL    HW160043   1.816   3.816  12.536
86068SOL    HW260044   1.883   3.862  12.408
86069SOL     OW60045  13.547  13.731  12.620
86069SOL    HW160046  13.535  13.642  12.652
86069SOL    HW260047  13.475  13.743  12.558
86070SOL     OW60048   9.927   5.364   9.343
86070SOL    HW160049   9.859   5.427   9.365
86070SOL    HW260050   9.905   5.286   9.394
86071SOL     OW60051   5.926  13.808   4.890
86071SOL    HW160052   5.948  13.883   4.945
86071SOL    HW260053   5.903  13.739   4.952
86072SOL     OW60054   5.113  14.446  14.198
86072SOL    HW160055   5.048  14.509  14.168
86072SOL    HW260056   5.062  14.371  14.228
86073SOL     OW60057   1.774   9.479  11.384
86073SOL    HW160058   1.812   9.404  11.339
86073SOL    HW260059   1.849   9.527  11.418
86074SOL     OW60060  13.376   1.320   8.334
86074SOL    HW160061  13.369   1.225   8.341
86074SOL    HW260062  13.395   1.336   8.241
86075SOL     OW60063   5.417   0.048  12.965
86075SOL    HW160064   5.425  14.855  13.033
86075SOL    HW260065   5.397  14.873  12.885
86076SOL     OW60066  11.501   5.699   1.592
86076SOL    HW160067  11.455   5.619   1.617
86076SOL    HW260068  11.478   5.711   1.499
86077SOL     OW60069  11.366   9.859   3.594
86077SOL    HW160070  11.401   9.859   3.684
86077SOL    HW260071  11.330   9.946   3.583
86078SOL     OW60072   1.319   0.413  10.593
86078SOL    HW160073   1.240   0.387  10.544
86078SOL    HW260074   1.318   0.508  10.591
86079SOL     OW60075  12.973   3.044  13.916
86079SOL    HW160076  12.924   3.036  13.834
86079SOL    HW260077  12.961   2.960  13.960
86080SOL     OW60078  13.798   9.581  11.494
86080SOL    HW160079  13.850   9.635  11.434
86080SOL    HW260080  13.795   9.632  11.575
86081SOL     OW60081   3.233   7.089   9.222
86081SOL    HW160082   3.238   7.019   9.287
86081SOL    HW260083   3.324   7.112   9.203
86082SOL     OW60084  11.171   1.358  13.695
86082SOL    HW160085  11.168   1.454  13.702
86082SOL    HW260086  11.261   1.339  13.668
86083SOL     OW60087   8.709  10.362   4.689
86083SOL    HW160088   8.628  10.323   4.722
86083SOL    HW260089   8.748  10.295   4.633
86084SOL     OW60090  11.517   3.154   1.069
86084SOL    HW160091  11.539   3.167   1.161
86084SOL    HW260092  11.422   3.164   1.066
86085SOL     OW60093  12.330  12.677   4.367
86085SOL    HW160094  12.331  12.764   4.407
86085SOL    HW260095  12.406  12.632   4.404
86086SOL     OW60096  11.275  10.847   7.068
86086SOL    HW160097  11.370  10.856   7.055
86086SOL    HW260098  11.258  10.891   7.151
86087SOL     OW60099   8.760   7.552  13.699
86087SOL    HW160100   8.818   7.476  13.708
86087SOL    HW260101   8.798   7.618  13.756
86088SOL     OW60102  11.994   2.738   3.851
86088SOL    HW160103  12.071   2.709   3.801
86088SOL    HW260104  12.029   2.765   3.935
86089SOL     OW60105   2.737   9.330   0.988
86089SOL    HW160106   2.753   9.288   1.073
86089SOL    HW260107   2.759   9.423   1.003
86090SOL     OW60108  11.968   8.838  12.563
86090SOL    HW160109  11.968   8.754  12.609
86090SOL    HW260110  12.014   8.898  12.621
86091SOL     OW60111   7.822   9.308   5.724
86091SOL    HW160112   7.905   9.271   5.695
86091SOL    HW260113   7.788   9.244   5.786
86092SOL     OW60114   5.267   2.494  14.815
86092SOL    HW160115   5.190   2.459  14.858
86092SOL    HW260116   5.235   2.526  14.730
86093SOL     OW60117   3.561   2.576  11.446
86093SOL    HW160118   3.640   2.535  11.483
86093SOL    HW260119   3.589   2.665  11.424
86094SOL     OW60120   1.652   8.721   6.495
86094SOL    HW160121   1.724   8.778   6.468
86094SOL    HW260122   1.686   8.632   6.486
86095SOL     OW60123   0.822   8.748  14.384
86095SOL    HW160124   0.761   8.787  14.447
86095SOL    HW260125   0.777   8.669  14.354
86096SOL     OW60126   8.382   6.055   8.352
86096SOL    HW160127   8.393   5.997   8.276
86096SOL    HW260128   8.351   5.997   8.421
86097SOL     OW60129   2.633   0.763   6.844
86097SOL    HW160130   2.597   0.703   6.909
86097SOL    HW260131   2.661   0.706   6.772
86098SOL     OW60132   3.720   3.457   3.335
86098SOL    HW160133   3.727   3.536   3.388
86098SOL    HW260134   3.781   3.470   3.263
86099SOL     OW60135   7.938   4.709   1.728
86099SOL    HW160136   7.969   4.759   1.803
86099SOL    HW260137   7.845   4.694   1.745
86100SOL     OW60138   3.807  11.725   6.109
86100SOL    HW160139   3.886  11.720   6.163
86100SOL    HW260140   3.798  11.819   6.090
86101SOL     OW60141   7.052   6.872  14.196
86101SOL    HW160142   7.057   6.839  14.106
86101SOL    HW260143   7.106   6.812  14.247
86102SOL     OW60144  11.864   3.383   5.278
86102SOL    HW160145  11.888   3.475   5.283
86102SOL    HW260146  11.778   3.378   5.319
86103SOL     OW60147   8.864   1.759   2.225
86103SOL    HW160148   8.914   1.815   2.285
86103SOL    HW260149   8.772   1.775   2.248
86104SOL     OW60150  11.164   3.539   3.028
86104SOL    HW160151  11.129   3.495   2.951
86104SOL    HW260152  11.250   3.570   3.002
86105SOL     OW60153  13.834  13.314  11.744
86105SOL    HW160154  13.913  13.334  11.694
86105SOL    HW260155  13.811  13.225  11.718
86106SOL     OW60156   4.054   2.804   4.461
86106SOL    HW160157   4.117   2.744   4.421
86106SOL    HW260158   4.007   2.750   4.525
86107SOL     OW60159  11.655   8.981  13.865
86107SOL    HW160160  11.568   8.954  13.896
86107SOL    HW260161  11.648   8.978  13.770
86108SOL     OW60162   9.711   9.751   3.572
86108SOL    HW160163   9.769   9.693   3.621
86108SOL    HW260164   9.729   9.838   3.606
86109SOL     OW60165  11.799  10.324   5.112
86109SOL    HW160166  11.786  10.264   5.038
86109SOL    HW260167  11.726  10.386   5.106
86110SOL     OW60168   2.926   2.432   4.554
86110SOL    HW160169   2.896   2.522   4.565
86110SOL    HW260170   2.867   2.395   4.488
86111SOL     OW60171   1.657  13.207   1.277
86111SOL    HW160172   1.564  13.195   1.258
86111SOL    HW260173   1.673  13.150   1.352
86112SOL     OW60174   8.611   3.968   1.472
86112SOL    HW160175   8.639   3.912   1.544
86112SOL    HW260176   8.692   3.989   1.425
86113SOL     OW60177   6.014   6.117   4.377
86113SOL    HW160178   6.034   6.139   4.468
86113SOL    HW260179   5.918   6.107   4.376
86114SOL     OW60180   7.367   3.455   7.227
86114SOL    HW160181   7.278   3.425   7.205
86114SOL    HW260182   7.365   3.550   7.211
86115SOL     OW60183   5.398  11.390   7.378
86115SOL    HW160184   5.483  11.380   7.421
86115SOL    HW260185   5.351  11.309   7.398
86116SOL     OW60186   4.188   1.132  10.471
86116SOL    HW160187   4.278   1.121  10.439
86116SOL    HW260188   4.156   1.209  10.424
86117SOL     OW60189   9.461   2.519   1.122
86117SOL    HW160190   9.412   2.557   1.049
86117SOL    HW260191   9.538   2.479   1.080
86118SOL     OW60192   9.650  13.054  13.013
86118SOL    HW160193   9.624  13.066  12.922
86118SOL    HW260194   9.623  13.134  13.057
86119SOL     OW60195  13.001   2.463   1.289
86119SOL    HW160196  12.963   2.425   1.369
86119SOL    HW260197  13.092   2.430   1.289
86120SOL     OW60198   3.552   6.473  13.028
86120SOL    HW160199   3.609   6.470  12.951
86120SOL    HW260200   3.568   6.560  13.066
86121SOL     OW60201  14.674   5.098   3.439
86121SOL    HW160202  14.743   5.034   3.457
86121SOL    HW260203  14.632   5.066   3.359
86122SOL     OW60204  13.316   9.188  13.099
86122SOL    HW160205  13.324   9.283  13.093
86122SOL    HW260206  13.248   9.165  13.036
86123SOL     OW60207   4.876   4.757   1.932
86123SOL    HW160208   4.963   4.795   1.947
86123SOL    HW260209   4.883   4.669   1.970
86124SOL     OW60210   3.484   0.649  13.983
86124SOL    HW160211   3.536   0.629  13.905
86124SOL    HW260212   3.442   0.732  13.963
86125SOL     OW60213   1.792  12.846  11.650
86125SOL    HW160214   1.811  12.796  11.570
86125SOL    HW260215   1.697  12.853  11.651
86126SOL     OW60216   2.346   7.567  14.525
86126SOL    HW160217   2.377   7.490  14.477
86126SOL    HW260218   2.425   7.620  14.538
86127SOL     OW60219   3.079   0.792   9.201
86127SOL    HW160220   3.090   0.886   9.191
86127SOL    HW260221   3.116   0.773   9.287
86128SOL     OW60222   0.999   0.780  12.967
86128SOL    HW160223   1.014   0.802  12.875
86128SOL    HW260224   1.078   0.732  12.993
86129SOL     OW60225   2.897   3.524  13.500
86129SOL    HW160226   2.950   3.570  13.565
86129SOL    HW260227   2.842   3.592  13.461
86130SOL     OW60228  13.928   2.709   8.257
86130SOL    HW160229  13.978   2.688   8.178
86130SOL    HW260230  13.853   2.649   8.255
86131SOL     OW60231   6.481   9.112   9.601
86131SOL    HW160232   6.388   9.131   9.614
86131SOL    HW260233   6.517   9.195   9.569
86132SOL     OW60234   5.903   8.141   1.045
86132SOL    HW160235   5.947   8.175   1.123
86132SOL    HW260236   5.940   8.054   1.033
86133SOL     OW60237   2.023   6.442  14.146
86133SOL    HW160238   1.965   6.514  14.167
86133SOL    HW260239   2.040   6.399  14.229
86134SOL     OW60240  11.269  12.067   0.854
86134SOL    HW160241  11.218  12.115   0.789
86134SOL    HW260242  11.207  12.007   0.896
86135SOL     OW60243   3.420  11.238   9.937
86135SOL    HW160244   3.393  11.218  10.026
86135SOL    HW260245   3.394  11.162   9.886
86136SOL     OW60246   0.067   0.788  10.901
86136SOL    HW160247   0.154   0.749  10.911
86136SOL    HW260248   0.026   0.777  10.986
86137SOL     OW60249   8.924   8.123   8.675
86137SOL    HW160250   8.889   8.112   8.764
86137SOL    HW260251   8.855   8.089   8.618
86138SOL     OW60252  13.780   6.156   1.624
86138SOL    HW160253  13.689   6.160   1.652
86138SOL    HW260254  13.809   6.247   1.623
86139SOL     OW60255  14.607   4.573   5.753
86139SOL    HW160256  14.582   4.659   5.786
86139SOL    HW260257  14.635   4.589   5.662
86140SOL     OW60258   5.145  13.781  14.349
86140SOL    HW160259   5.063  13.734  14.340
86140SOL    HW260260   5.209  13.728  14.301
86141SOL     OW60261   1.334   2.148   5.747
86141SOL    HW160262   1.335   2.242   5.767
86141SOL    HW260263   1.248   2.134   5.707
86142SOL     OW60264  10.396   8.714   5.612
86142SOL    HW160265  10.321   8.772   5.625
86142SOL    HW260266  10.362   8.642   5.559
86143SOL     OW60267  12.802   6.662  11.059
86143SOL    HW160268  12.794   6.751  11.094
86143SOL    HW260269  12.822   6.675  10.966
86144SOL     OW60270   8.463  12.995   9.262
86144SOL    HW160271   8.410  13.028   9.335
86144SOL    HW260272   8.413  13.019   9.184
86145SOL     OW60273   7.099   4.073   3.932
86145SOL    HW160274   7.188   4.107   3.936
86145SOL    HW260275   7.044   4.146   3.962
86146SOL     OW60276   4.979  14.150  12.790
86146SOL    HW160277   4.988  14.206  12.712
86146SOL    HW260278   4.887  14.124  12.789
86147SOL     OW60279   9.490   5.280   3.683
86147SOL    HW160280   9.436   5.351   3.719
86147SOL    HW260281   9.575   5.292   3.724
86148SOL     OW60282   6.809  13.871  11.990
86148SOL    HW160283   6.877  13.859  11.924
86148SOL    HW260284   6.732  13.899  11.941
86149SOL     OW60285   5.843  10.745   3.022
86149SOL    HW160286   5.929  10.766   2.986
86149SOL    HW260287   5.826  10.815   3.085
86150SOL     OW60288  13.215  14.170   9.752
86150SOL    HW160289  13.182  14.081   9.748
86150SOL    HW260290  13.191  14.209   9.668
86151SOL     OW60291   5.426  11.291   9.649
86151SOL    HW160292   5.405  11.208   9.605
86151SOL    HW260293   5.507  11.320   9.605
86152SOL     OW60294  14.715   2.964  13.799
86152SOL    HW160295  14.740   3.057  13.794
86152SOL    HW260296  14.629   2.965  13.842
86153SOL     OW60297  12.434   6.297   4.401
86153SOL    HW160298  12.495   6.223   4.402
86153SOL    HW260299  12.491   6.374   4.407
86154SOL     OW60300   3.263   7.870   3.524
86154SOL    HW160301   3.192   7.811   3.551
86154SOL    HW260302   3.325   7.866   3.597
86155SOL     OW60303   1.215   7.501   5.473
86155SOL    HW160304   1.251   7.479   5.558
86155SOL    HW260305   1.267   7.576   5.443
86156SOL     OW60306   7.038   5.207  11.836
86156SOL    HW160307   7.056   5.129  11.783
86156SOL    HW260308   6.969   5.179  11.896
86157SOL     OW60309   4.723  14.552   2.580
86157SOL    HW160310   4.775  14.592   2.649
86157SOL    HW260311   4.786  14.535   2.510
86158SOL     OW60312  12.773  13.147  13.553
86158SOL    HW160313  12.730  13.062  13.565
86158SOL    HW260314  12.866  13.127  13.554
86159SOL     OW60315   5.149  14.338  10.719
86159SOL    HW160316   5.175  14.419  10.675
86159SOL    HW260317   5.059  14.354  10.746
86160SOL     OW60318   6.683   8.319  13.860
86160SOL    HW160319   6.645   8.393  13.812
86160SOL    HW260320   6.776   8.340  13.867
86161SOL     OW60321  11.139   1.299  10.199
86161SOL    HW160322  11.149   1.221  10.144
86161SOL    HW260323  11.135   1.266  10.288
86162SOL     OW60324   3.461   5.317   7.527
86162SOL    HW160325   3.466   5.274   7.612
86162SOL    HW260326   3.468   5.410   7.546
86163SOL     OW60327  13.964   5.710   4.712
86163SOL    HW160328  13.926   5.794   4.736
86163SOL    HW260329  14.010   5.727   4.629
86164SOL     OW60330   7.353  13.764   0.160
86164SOL    HW160331   7.325  13.699   0.096
86164SOL    HW260332   7.343  13.721   0.245
86165SOL     OW60333  10.250   1.405   1.597
86165SOL    HW160334  10.206   1.411   1.512
86165SOL    HW260335  10.270   1.495   1.621
86166SOL     OW60336  12.377   1.774   9.334
86166SOL    HW160337  12.352   1.801   9.422
86166SOL    HW260338  12.298   1.735   9.297
86167SOL     OW60339  12.743   2.113   7.670
86167SOL    HW160340  12.769   2.022   7.684
86167SOL    HW260341  12.809   2.164   7.716
86168SOL     OW60342   0.683   2.847  12.697
86168SOL    HW160343   0.764   2.833  12.648
86168SOL    HW260344   0.639   2.762  12.695
86169SOL     OW60345   1.405   2.849   4.167
86169SOL    HW160346   1.331   2.878   4.221
86169SOL    HW260347   1.402   2.906   4.090
86170SOL     OW60348  10.472   3.742   4.811
86170SOL    HW160349  10.561   3.732   4.845
86170SOL    HW260350  10.424   3.668   4.847
86171SOL     OW60351   6.120   3.028  13.760
86171SOL    HW160352   6.081   2.960  13.815
86171SOL    HW260353   6.046   3.083  13.733
86172SOL     OW60354   2.255   9.672   9.142
86172SOL    HW160355   2.288   9.607   9.203
86172SOL    HW260356   2.184   9.628   9.096
86173SOL     OW60357  11.769  10.224   1.713
86173SOL    HW160358  11.748  10.238   1.620
86173SOL    HW260359  11.694  10.258   1.760
86174SOL     OW60360  12.050   3.590   2.113
86174SOL    HW160361  12.029   3.501   2.139
86174SOL    HW260362  12.122   3.616   2.171
86175SOL     OW60363  12.785  14.427   4.115
86175SOL    HW160364  12.762  14.335   4.127
86175SOL    HW260365  12.803  14.435   4.021
86176SOL     OW60366   1.359   5.731   0.546
86176SOL    HW160367   1.430   5.794   0.532
86176SOL    HW260368   1.370   5.701   0.636
86177SOL     OW60369   2.029   4.143  14.088
86177SOL    HW160370   2.065   4.091  14.160
86177SOL    HW260371   2.061   4.232  14.105
86178SOL     OW60372   0.932  14.490   1.033
86178SOL    HW160373   0.878  14.513   1.109
86178SOL    HW260374   1.013  14.539   1.045
86179SOL     OW60375  13.981   3.444   5.695
86179SOL    HW160376  14.018   3.498   5.625
86179SOL    HW260377  14.055   3.424   5.752
86180SOL     OW60378   9.051   7.865   5.366
86180SOL    HW160379   8.969   7.871   5.415
86180SOL    HW260380   9.071   7.955   5.341
86181SOL     OW60381   0.559   5.793   0.857
86181SOL    HW160382   0.566   5.834   0.943
86181SOL    HW260383   0.474   5.821   0.824
86182SOL     OW60384  13.892  10.598  11.232
86182SOL    HW160385  13.946  10.672  11.204
86182SOL    HW260386  13.876  10.548  11.152
86183SOL     OW60387   5.410   0.943   3.842
86183SOL    HW160388   5.442   1.007   3.779
86183SOL    HW260389   5.314   0.948   3.834
86184SOL     OW60390   9.657  13.536   2.531
86184SOL    HW160391   9.724  13.493   2.585
86184SOL    HW260392   9.623  13.605   2.587
86185SOL     OW60393  12.072   7.407   0.572
86185SOL    HW160394  12.065   7.313   0.555
86185SOL    HW260395  12.125   7.440   0.499
86186SOL     OW60396   3.335  13.697  14.171
86186SOL    HW160397   3.354  13.791  14.175
86186SOL    HW260398   3.337  13.676  14.078
86187SOL     OW60399   7.615   9.417   3.785
86187SOL    HW160400   7.644   9.327   3.794
86187SOL    HW260401   7.666   9.466   3.850
86188SOL     OW60402  12.337  11.340   2.459
86188SOL    HW160403  12.380  11.274   2.513
86188SOL    HW260404  12.250  11.304   2.443
86189SOL     OW60405   8.687   2.011  14.624
86189SOL    HW160406   8.627   2.007  14.550
86189SOL    HW260407   8.688   1.922  14.658
86190SOL     OW60408   1.142   2.682   9.871
86190SOL    HW160409   1.098   2.688   9.787
86190SOL    HW260410   1.196   2.762   9.876
86191SOL     OW60411  13.716  14.188   0.562
86191SOL    HW160412  13.621  14.182   0.553
86191SOL    HW260413  13.740  14.268   0.515
86192SOL     OW60414  11.807   1.995  12.364
86192SOL    HW160415  11.760   2.064  12.317
86192SOL    HW260416  11.896   2.030  12.372
86193SOL     OW60417   7.321   8.028   8.152
86193SOL    HW160418   7.360   8.059   8.070
86193SOL    HW260419   7.272   8.103   8.185
86194SOL     OW60420   8.203  11.888   4.859
86194SOL    HW160421   8.220  11.794   4.869
86194SOL    HW260422   8.116  11.892   4.820
86195SOL     OW60423   9.259   8.528   0.541
86195SOL    HW160424   9.233   8.556   0.628
86195SOL    HW260425   9.179   8.534   0.488
86196SOL     OW60426   8.220   1.043   3.795
86196SOL    HW160427   8.189   0.957   3.823
86196SOL    HW260428   8.243   1.033   3.703
86197SOL     OW60429  12.018   1.756   4.941
86197SOL    HW160430  12.047   1.726   4.855
86197SOL    HW260431  12.099   1.777   4.987
86198SOL     OW60432   4.979  11.437   5.252
86198SOL    HW160433   4.936  11.409   5.171
86198SOL    HW260434   5.035  11.510   5.224
86199SOL     OW60435   9.282  10.692   2.563
86199SOL    HW160436   9.208  10.636   2.538
86199SOL    HW260437   9.329  10.707   2.480
86200SOL     OW60438   9.529   6.800  11.150
86200SOL    HW160439   9.527   6.710  11.118
86200SOL    HW260440   9.613   6.808  11.196
86201SOL     OW60441   5.900   4.176   9.283
86201SOL    HW160442   5.846   4.236   9.233
86201SOL    HW260443   5.890   4.092   9.238
86202SOL     OW60444  13.467   4.456  11.468
86202SOL    HW160445  13.382   4.435  11.507
86202SOL    HW260446  13.530   4.410  11.524
86203SOL     OW60447   6.010  10.142   5.539
86203SOL    HW160448   6.088  10.156   5.592
86203SOL    HW260449   6.044  10.123   5.451
86204SOL     OW60450  11.119   3.909   6.878
86204SOL    HW160451  11.033   3.897   6.838
86204SOL    HW260452  11.112   3.990   6.927
86205SOL     OW60453   5.832  13.985  13.802
86205SOL    HW160454   5.872  13.980  13.715
86205SOL    HW260455   5.755  14.040  13.789
86206SOL     OW60456  12.572  14.810   7.102
86206SOL    HW160457  12.544  14.777   7.016
86206SOL    HW260458  12.497  14.861   7.133
86207SOL     OW60459   7.694  12.451   6.344
86207SOL    HW160460   7.618  12.437   6.400
86207SOL    HW260461   7.769  12.427   6.398
86208SOL     OW60462   4.336  13.617   1.384
86208SOL    HW160463   4.288  13.700   1.383
86208SOL    HW260464   4.393  13.624   1.461
86209SOL     OW60465   4.414   5.650   4.687
86209SOL    HW160466   4.430   5.708   4.613
86209SOL    HW260467   4.337   5.686   4.731
86210SOL     OW60468   8.983  10.275   5.229
86210SOL    HW160469   8.998  10.234   5.144
86210SOL    HW260470   9.006  10.367   5.215
86211SOL     OW60471   0.412   1.692   4.753
86211SOL    HW160472   0.462   1.640   4.690
86211SOL    HW260473   0.372   1.761   4.700
86212SOL     OW60474   3.022  11.812   1.787
86212SOL    HW160475   3.050  11.881   1.726
86212SOL    HW260476   3.102  11.765   1.809
86213SOL     OW60477   8.460   5.386  13.751
86213SOL    HW160478   8.495   5.463  13.706
86213SOL    HW260479   8.367   5.404  13.761
86214SOL     OW60480   9.598  14.461  10.194
86214SOL    HW160481   9.627  14.373  10.169
86214SOL    HW260482   9.637  14.476  10.280
86215SOL     OW60483  14.558   9.514  10.798
86215SOL    HW160484  14.598   9.441  10.749
86215SOL    HW260485  14.483   9.475  10.843
86216SOL     OW60486   0.006   5.782   0.007
86216SOL    HW160487  14.795   5.823  14.866
86216SOL    HW260488   0.069   5.840  14.838
86217SOL     OW60489   6.486  12.424   6.881
86217SOL    HW160490   6.557  12.480   6.913
86217SOL    HW260491   6.426  12.417   6.955
86218SOL     OW60492   3.426   6.509   7.319
86218SOL    HW160493   3.514   6.483   7.347
86218SOL    HW260494   3.440   6.586   7.264
86219SOL     OW60495   7.456   0.350   2.722
86219SOL    HW160496   7.519   0.367   2.791
86219SOL    HW260497   7.386   0.300   2.764
86220SOL     OW60498  14.410  13.163  11.729
86220SOL    HW160499  14.321  13.140  11.702
86220SOL    HW260500  14.409  13.153  11.824
86221SOL     OW60501   8.774   5.387   0.007
86221SOL    HW160502   8.720   5.441   0.064
86221SOL    HW260503   8.771   5.300   0.046
86222SOL     OW60504   6.941   1.054  11.183
86222SOL    HW160505   6.862   1.074  11.233
86222SOL    HW260506   6.956   1.133  11.130
86223SOL     OW60507  14.864   4.375  12.949
86223SOL    HW160508   0.084   4.358  12.951
86223SOL    HW260509  14.824   4.289  12.963
86224SOL     OW60510   1.980   9.527  13.086
86224SOL    HW160511   2.005   9.619  13.091
86224SOL    HW260512   1.982   9.507  12.992
86225SOL     OW60513   6.357  12.547  13.733
86225SOL    HW160514   6.352  12.553  13.828
86225SOL    HW260515   6.412  12.470  13.717
86226SOL     OW60516  10.013  12.036   1.510
86226SOL    HW160517  10.041  11.964   1.454
86226SOL    HW260518  10.088  12.053   1.567
86227SOL     OW60519   2.269  10.164   4.296
86227SOL    HW160520   2.206  10.130   4.233
86227SOL    HW260521   2.291  10.088   4.350
86228SOL     OW60522   7.558   6.087  10.742
86228SOL    HW160523   7.499   6.087  10.667
86228SOL    HW260524   7.553   6.176  10.776
86229SOL     OW60525  13.715  10.552   0.499
86229SOL    HW160526  13.695  10.632   0.451
86229SOL    HW260527  13.759  10.582   0.578
86230SOL     OW60528   2.925   2.331   2.206
86230SOL    HW160529   2.988   2.281   2.258
86230SOL    HW260530   2.951   2.315   2.115
86231SOL     OW60531   7.410  13.244  11.388
86231SOL    HW160532   7.435  13.161  11.348
86231SOL    HW260533   7.375  13.296  11.315
86232SOL     OW60534  10.229  12.416  12.814
86232SOL    HW160535  10.219  12.354  12.742
86232SOL    HW260536  10.209  12.366  12.893
86233SOL     OW60537  11.674   3.857   0.716
86233SOL    HW160538  11.641   3.918   0.782
86233SOL    HW260539  11.642   3.892   0.633
86234SOL     OW60540   2.609   8.105   0.221
86234SOL    HW160541   2.671   8.031   0.226
86234SOL    HW260542   2.654   8.170   0.167
86235SOL     OW60543  11.123  13.428   0.660
86235SOL    HW160544  11.079  13.499   0.612
86235SOL    HW260545  11.163  13.375   0.591
86236SOL     OW60546   9.131   0.056   9.638
86236SOL    HW160547   9.201  14.867   9.623
86236SOL    HW260548   9.114   0.093   9.551
86237SOL     OW60549   1.220   2.299  12.402
86237SOL    HW160550   1.243   2.382  12.444
86237SOL    HW260551   1.271   2.298  12.321
86238SOL     OW60552   1.631  11.491   3.288
86238SOL    HW160553   1.719  11.499   3.325
86238SOL    HW260554   1.592  11.578   3.299
86239SOL     OW60555   4.240   9.343  11.339
86239SOL    HW160556   4.207   9.413  11.282
86239SOL    HW260557   4.254   9.386  11.423
86240SOL     OW60558   9.506   3.519  11.729
86240SOL    HW160559   9.465   3.578  11.666
86240SOL    HW260560   9.597   3.513  11.701
86241SOL     OW60561   9.491   8.359   3.141
86241SOL    HW160562   9.536   8.286   3.183
86241SOL    HW260563   9.521   8.436   3.190
86242SOL     OW60564   1.045   1.265  12.736
86242SOL    HW160565   1.002   1.202  12.678
86242SOL    HW260566   1.075   1.334  12.677
86243SOL     OW60567  13.729  11.999  10.627
86243SOL    HW160568  13.785  12.034  10.558
86243SOL    HW260569  13.749  12.052  10.704
86244SOL     OW60570  10.690   1.981  10.292
86244SOL    HW160571  10.670   2.067  10.328
86244SOL    HW260572  10.700   1.995  10.198
86245SOL     OW60573   6.534   7.182   1.652
86245SOL    HW160574   6.597   7.240   1.609
86245SOL    HW260575   6.557   7.188   1.745
86246SOL     OW60576  10.125  10.225   6.439
86246SOL    HW160577  10.183  10.151   6.460
86246SOL    HW260578  10.106  10.215   6.346
86247SOL     OW60579  13.722  13.855   3.659
86247SOL    HW160580  13.705  13.802   3.736
86247SOL    HW260581  13.755  13.793   3.594
86248SOL     OW60582   6.622   0.091   1.151
86248SOL    HW160583   6.564   0.115   1.079
86248SOL    HW260584   6.567   0.097   1.229
86249SOL     OW60585  11.241  11.871   9.440
86249SOL    HW160586  11.225  11.777   9.449
86249SOL    HW260587  11.292  11.879   9.360
86250SOL     OW60588  11.828   6.546   9.778
86250SOL    HW160589  11.923   6.542   9.786
86250SOL    HW260590  11.798   6.570   9.866
86251SOL     OW60591   9.634   8.909   5.691
86251SOL    HW160592   9.634   8.987   5.746
86251SOL    HW260593   9.541   8.893   5.673
86252SOL     OW60594   3.221   6.971   5.424
86252SOL    HW160595   3.305   6.985   5.468
86252SOL    HW260596   3.156   7.010   5.483
86253SOL     OW60597  11.502   4.150  14.338
86253SOL    HW160598  11.503   4.243  14.359
86253SOL    HW260599  11.410   4.126  14.335
86254SOL     OW60600   4.453  14.414   3.035
86254SOL    HW160601   4.489  14.480   2.975
86254SOL    HW260602   4.498  14.429   3.118
86255SOL     OW60603   5.019  11.115   3.226
86255SOL    HW160604   5.003  11.202   3.189
86255SOL    HW260605   4.948  11.061   3.191
86256SOL     OW60606  10.391   8.028   6.270
86256SOL    HW160607  10.473   8.067   6.238
86256SOL    HW260608  10.396   7.937   6.243
86257SOL     OW60609   0.235  13.247   2.953
86257SOL    HW160610   0.269  13.159   2.969
86257SOL    HW260611   0.277  13.275   2.872
86258SOL     OW60612   8.932   3.495   1.841
86258SOL    HW160613   8.882   3.497   1.923
86258SOL    HW260614   9.022   3.512   1.868
86259SOL     OW60615  14.571   3.357   1.251
86259SOL    HW160616  14.525   3.438   1.229
86259SOL    HW260617  14.510   3.287   1.226
86260SOL     OW60618   2.961  10.957   9.383
86260SOL    HW160619   3.016  10.887   9.348
86260SOL    HW260620   2.872  10.923   9.379
86261SOL     OW60621   5.059  10.463   4.094
86261SOL    HW160622   5.008  10.480   4.015
86261SOL    HW260623   5.137  10.418   4.062
86262SOL     OW60624   0.174   3.620   4.807
86262SOL    HW160625   0.107   3.567   4.849
86262SOL    HW260626   0.255   3.571   4.819
86263SOL     OW60627   2.533   1.714  13.152
86263SOL    HW160628   2.565   1.757  13.231
86263SOL    HW260629   2.476   1.644  13.185
86264SOL     OW60630  10.759   0.271  11.698
86264SOL    HW160631  10.760   0.261  11.603
86264SOL    HW260632  10.666   0.274  11.721
86265SOL     OW60633   2.594  14.293   2.961
86265SOL    HW160634   2.639  14.330   3.037
86265SOL    HW260635   2.626  14.345   2.887
86266SOL     OW60636   4.933  10.361   6.517
86266SOL    HW160637   5.023  10.344   6.546
86266SOL    HW260638   4.917  10.452   6.542
86267SOL     OW60639  13.985   1.087   1.060
86267SOL    HW160640  13.925   1.117   1.129
86267SOL    HW260641  13.999   0.994   1.078
86268SOL     OW60642   9.574   2.269  12.715
86268SOL    HW160643   9.500   2.318  12.678
86268SOL    HW260644   9.556   2.177  12.692
86269SOL     OW60645   6.698   6.284   5.047
86269SOL    HW160646   6.612   6.282   5.089
86269SOL    HW260647   6.729   6.373   5.060
86270SOL     OW60648   5.947   4.549  10.254
86270SOL    HW160649   5.987   4.541  10.341
86270SOL    HW260650   5.938   4.643  10.241
86271SOL     OW60651   6.946  12.059   1.292
86271SOL    HW160652   6.864  12.011   1.294
86271SOL    HW260653   6.944  12.115   1.370
86272SOL     OW60654   6.187   3.575  10.404
86272SOL    HW160655   6.186   3.594  10.498
86272SOL    HW260656   6.143   3.650  10.364
86273SOL     OW60657   8.952  13.403   7.298
86273SOL    HW160658   8.965  13.312   7.324
86273SOL    HW260659   8.880  13.434   7.352
86274SOL     OW60660   5.010   9.628   9.270
86274SOL    HW160661   5.057   9.660   9.347
86274SOL    HW260662   5.073   9.638   9.198
86275SOL     OW60663  14.130   3.863   6.384
86275SOL    HW160664  14.184   3.824   6.315
86275SOL    HW260665  14.150   3.811   6.462
86276SOL     OW60666  12.808   3.302   2.274
86276SOL    HW160667  12.808   3.389   2.234
86276SOL    HW260668  12.774   3.315   2.363
86277SOL     OW60669   0.255   6.373   6.121
86277SOL    HW160670   0.274   6.348   6.031
86277SOL    HW260671   0.259   6.469   6.121
86278SOL     OW60672  10.729  13.290   8.908
86278SOL    HW160673  10.764  13.272   8.820
86278SOL    HW260674  10.635  13.301   8.893
86279SOL     OW60675   2.393   9.127   9.852
86279SOL    HW160676   2.383   9.211   9.896
86279SOL    HW260677   2.486   9.107   9.858
86280SOL     OW60678   9.052   3.620   0.710
86280SOL    HW160679   8.963   3.583   0.716
86280SOL    HW260680   9.078   3.603   0.620
86281SOL     OW60681  13.803   1.837  13.610
86281SOL    HW160682  13.809   1.741  13.616
86281SOL    HW260683  13.894   1.867  13.619
86282SOL     OW60684   9.256   3.229   6.621
86282SOL    HW160685   9.348   3.245   6.639
86282SOL    HW260686   9.251   3.137   6.597
86283SOL     OW60687   5.194   6.883  10.388
86283SOL    HW160688   5.202   6.935  10.468
86283SOL    HW260689   5.107   6.903  10.354
86284SOL     OW60690   5.946  10.662   8.828
86284SOL    HW160691   5.882  10.601   8.863
86284SOL    HW260692   6.022  10.608   8.805
86285SOL     OW60693   1.519   7.668  12.566
86285SOL    HW160694   1.477   7.735  12.511
86285SOL    HW260695   1.526   7.591  12.510
86286SOL     OW60696   2.522  11.054  10.040
86286SOL    HW160697   2.609  11.090  10.023
86286SOL    HW260698   2.538  10.977  10.094
86287SOL     OW60699   2.039  12.573   2.086
86287SOL    HW160700   2.038  12.480   2.067
86287SOL    HW260701   2.119  12.606   2.045
86288SOL     OW60702  11.613   3.862  10.886
86288SOL    HW160703  11.639   3.953  10.900
86288SOL    HW260704  11.689   3.811  10.913
86289SOL     OW60705   9.059   4.665   1.836
86289SOL    HW160706   9.002   4.594   1.808
86289SOL    HW260707   9.008   4.713   1.901
86290SOL     OW60708   7.892   3.709   6.562
86290SOL    HW160709   7.839   3.718   6.641
86290SOL    HW260710   7.957   3.643   6.584
86291SOL     OW60711   0.037  11.360   2.447
86291SOL    HW160712  14.838  11.422   2.441
86291SOL    HW260713   0.070  11.371   2.537
86292SOL     OW60714  13.662  10.075   6.260
86292SOL    HW160715  13.688   9.997   6.310
86292SOL    HW260716  13.634  10.041   6.175
86293SOL     OW60717   7.883  12.666   5.608
86293SOL    HW160718   7.910  12.576   5.626
86293SOL    HW260719   7.805  12.657   5.552
86294SOL     OW60720   2.889  11.219   9.221
86294SOL    HW160721   2.967  11.255   9.178
86294SOL    HW260722   2.924  11.159   9.287
86295SOL     OW60723   0.428   2.416  14.846
86295SOL    HW160724   0.482   2.435   0.049
86295SOL    HW260725   0.479   2.352  14.796
86296SOL     OW60726   2.250   7.420  12.908
86296SOL    HW160727   2.220   7.502  12.870
86296SOL    HW260728   2.176   7.360  12.895
86297SOL     OW60729  13.897   7.971   4.440
86297SOL    HW160730  13.948   7.999   4.516
86297SOL    HW260731  13.843   8.048   4.418
86298SOL     OW60732   4.809  12.033   7.949
86298SOL    HW160733   4.766  12.009   8.032
86298SOL    HW260734   4.867  11.959   7.931
86299SOL     OW60735  14.858  10.486   1.903
86299SOL    HW160736  14.781  10.535   1.932
86299SOL    HW260737  14.840  10.464   1.812
86300SOL     OW60738  10.929   2.781  10.940
86300SOL    HW160739  10.878   2.797  11.020
86300SOL    HW260740  10.898   2.847  10.879
86301SOL     OW60741   0.521  14.408  10.061
86301SOL    HW160742   0.440  14.374  10.023
86301SOL    HW260743   0.561  14.459   9.990
86302SOL     OW60744   2.224   9.212   2.342
86302SOL    HW160745   2.143   9.262   2.334
86302SOL    HW260746   2.251   9.195   2.251
86303SOL     OW60747  11.385  14.440   8.380
86303SOL    HW160748  11.359  14.529   8.359
86303SOL    HW260749  11.394  14.396   8.295
86304SOL     OW60750   8.771   2.455   5.192
86304SOL    HW160751   8.782   2.524   5.257
86304SOL    HW260752   8.781   2.499   5.108
86305SOL     OW60753  12.006   0.470   8.812
86305SOL    HW160754  12.093   0.488   8.846
86305SOL    HW260755  12.020   0.450   8.720
86306SOL     OW60756   3.593   8.922   7.703
86306SOL    HW160757   3.498   8.933   7.713
86306SOL    HW260758   3.604   8.899   7.611
86307SOL     OW60759   5.160  14.643   1.425
86307SOL    HW160760   5.221  14.645   1.498
86307SOL    HW260761   5.114  14.560   1.433
86308SOL     OW60762   4.421   5.134   8.587
86308SOL    HW160763   4.372   5.061   8.625
86308SOL    HW260764   4.491   5.150   8.650
86309SOL     OW60765   8.804   2.464   9.956
86309SOL    HW160766   8.716   2.501   9.951
86309SOL    HW260767   8.844   2.506  10.032
86310SOL     OW60768   7.800   7.032   5.474
86310SOL    HW160769   7.744   6.954   5.475
86310SOL    HW260770   7.740   7.105   5.485
86311SOL     OW60771  13.249  10.604   5.093
86311SOL    HW160772  13.331  10.641   5.125
86311SOL    HW260773  13.253  10.615   4.998
86312SOL     OW60774   7.738  10.237  14.149
86312SOL    HW160775   7.727  10.307  14.214
86312SOL    HW260776   7.828  10.207  14.162
86313SOL     OW60777   6.853  13.594   6.734
86313SOL    HW160778   6.831  13.685   6.751
86313SOL    HW260779   6.768  13.550   6.724
86314SOL     OW60780  12.952   1.153   2.839
86314SOL    HW160781  13.006   1.156   2.919
86314SOL    HW260782  12.937   1.245   2.817
86315SOL     OW60783  13.644   3.239   7.061
86315SOL    HW160784  13.654   3.145   7.074
86315SOL    HW260785  13.728   3.267   7.025
86316SOL     OW60786   7.780   6.694  14.702
86316SOL    HW160787   7.718   6.663  14.768
86316SOL    HW260788   7.774   6.789  14.706
86317SOL     OW60789   3.074   2.421   9.780
86317SOL    HW160790   3.100   2.329   9.785
86317SOL    HW260791   2.980   2.419   9.764
86318SOL     OW60792   3.089   3.861   9.000
86318SOL    HW160793   3.057   3.783   9.044
86318SOL    HW260794   3.183   3.864   9.019
86319SOL     OW60795   9.840  10.393  14.746
86319SOL    HW160796   9.758  10.410  14.699
86319SOL    HW260797   9.814  10.390  14.839
86320SOL     OW60798  10.672   6.374   0.593
86320SOL    HW160799  10.579   6.370   0.573
86320SOL    HW260800  10.708   6.437   0.530
86321SOL     OW60801   8.956   1.488   7.602
86321SOL    HW160802   8.890   1.556   7.610
86321SOL    HW260803   9.038   1.531   7.629
86322SOL     OW60804  13.643   4.398   5.744
86322SOL    HW160805  13.562   4.374   5.789
86322SOL    HW260806  13.700   4.322   5.754
86323SOL     OW60807   6.434   6.886  12.420
86323SOL    HW160808   6.379   6.894  12.497
86323SOL    HW260809   6.396   6.947  12.357
86324SOL     OW60810   3.242   6.650  11.204
86324SOL    HW160811   3.295   6.637  11.126
86324SOL    HW260812   3.305   6.661  11.275
86325SOL     OW60813  12.614   6.632   4.342
86325SOL    HW160814  12.694   6.673   4.374
86325SOL    HW260815  12.643   6.554   4.296
86326SOL     OW60816  13.473   5.553  14.317
86326SOL    HW160817  13.550   5.586  14.271
86326SOL    HW260818  13.491   5.570  14.409
86327SOL     OW60819  11.037   5.018  14.521
86327SOL    HW160820  10.996   4.993  14.605
86327SOL    HW260821  11.112   5.071  14.546
86328SOL     OW60822   3.650   7.529  14.472
86328SOL    HW160823   3.725   7.485  14.512
86328SOL    HW260824   3.646   7.495  14.383
86329SOL     OW60825   1.149  11.318   8.570
86329SOL    HW160826   1.189  11.288   8.652
86329SOL    HW260827   1.185  11.260   8.503
86330SOL     OW60828   2.738   0.817   8.900
86330SOL    HW160829   2.753   0.759   8.975
86330SOL    HW260830   2.722   0.757   8.827
86331SOL     OW60831  13.572  11.652   1.705
86331SOL    HW160832  13.542  11.564   1.683
86331SOL    HW260833  13.607  11.687   1.623
86332SOL     OW60834   2.215   3.126   5.616
86332SOL    HW160835   2.302   3.108   5.579
86332SOL    HW260836   2.210   3.221   5.621
86333SOL     OW60837   9.073   8.259   5.098
86333SOL    HW160838   9.025   8.338   5.124
86333SOL    HW260839   9.031   8.232   5.016
86334SOL     OW60840   1.519   3.245   8.566
86334SOL    HW160841   1.580   3.190   8.615
86334SOL    HW260842   1.438   3.243   8.617
86335SOL     OW60843   0.049   3.185   0.107
86335SOL    HW160844   0.109   3.222   0.172
86335SOL    HW260845  14.843   3.236   0.116
86336SOL     OW60846   4.769   1.193  11.844
86336SOL    HW160847   4.717   1.155  11.773
86336SOL    HW260848   4.741   1.284  11.848
86337SOL     OW60849   7.219   5.710   9.404
86337SOL    HW160850   7.273   5.753   9.471
86337SOL    HW260851   7.222   5.770   9.330
86338SOL     OW60852  12.361  12.867   9.458
86338SOL    HW160853  12.412  12.825   9.388
86338SOL    HW260854  12.323  12.944   9.418
86339SOL     OW60855   0.905   5.837   2.583
86339SOL    HW160856   0.862   5.915   2.620
86339SOL    HW260857   0.973   5.873   2.525
86340SOL     OW60858   8.468   6.454   0.557
86340SOL    HW160859   8.512   6.534   0.585
86340SOL    HW260860   8.393   6.446   0.616
86341SOL     OW60861  13.716   7.249   1.677
86341SOL    HW160862  13.675   7.334   1.692
86341SOL    HW260863  13.689   7.196   1.752
86342SOL     OW60864   4.620   7.169   1.992
86342SOL    HW160865   4.623   7.265   1.996
86342SOL    HW260866   4.541   7.146   2.040
86343SOL     OW60867   5.895   7.454   7.633
86343SOL    HW160868   5.891   7.407   7.550
86343SOL    HW260869   5.940   7.536   7.613
86344SOL     OW60870   2.658   6.443   8.194
86344SOL    HW160871   2.591   6.416   8.257
86344SOL    HW260872   2.610   6.460   8.113
86345SOL     OW60873   5.687  11.581   4.467
86345SOL    HW160874   5.764  11.637   4.469
86345SOL    HW260875   5.689  11.534   4.550
86346SOL     OW60876   5.640   7.372   9.130
86346SOL    HW160877   5.576   7.383   9.060
86346SOL    HW260878   5.672   7.282   9.119
86347SOL     OW60879   1.539   2.223   9.035
86347SOL    HW160880   1.446   2.224   9.058
86347SOL    HW260881   1.552   2.304   8.986
86348SOL     OW60882   6.795   4.333   6.859
86348SOL    HW160883   6.757   4.245   6.856
86348SOL    HW260884   6.729   4.386   6.904
86349SOL     OW60885  14.417  14.429   1.366
86349SOL    HW160886  14.407  14.381   1.448
86349SOL    HW260887  14.461  14.510   1.391
86350SOL     OW60888  10.257   2.866   4.002
86350SOL    HW160889  10.181   2.810   3.986
86350SOL    HW260890  10.323   2.808   4.040
86351SOL     OW60891   6.152   7.778   6.822
86351SOL    HW160892   6.229   7.771   6.766
86351SOL    HW260893   6.078   7.769   6.762
86352SOL     OW60894   1.752  12.125   8.286
86352SOL    HW160895   1.835  12.170   8.273
86352SOL    HW260896   1.754  12.094   8.376
86353SOL     OW60897  10.627   7.350   8.213
86353SOL    HW160898  10.655   7.267   8.251
86353SOL    HW260899  10.540   7.365   8.250
86354SOL     OW60900   8.182   7.737   5.124
86354SOL    HW160901   8.240   7.714   5.196
86354SOL    HW260902   8.107   7.780   5.166
86355SOL     OW60903  11.873   2.870  12.356
86355SOL    HW160904  11.854   2.950  12.307
86355SOL    HW260905  11.919   2.900  12.434
86356SOL     OW60906  13.701   3.567   9.795
86356SOL    HW160907  13.713   3.472   9.800
86356SOL    HW260908  13.743   3.600   9.874
86357SOL     OW60909   6.255  12.726  12.137
86357SOL    HW160910   6.298  12.772  12.065
86357SOL    HW260911   6.316  12.658  12.163
86358SOL     OW60912  11.755   0.877   9.115
86358SOL    HW160913  11.801   0.959   9.101
86358SOL    HW260914  11.670   0.902   9.151
86359SOL     OW60915  12.135   2.629   3.585
86359SOL    HW160916  12.114   2.559   3.523
86359SOL    HW260917  12.155   2.705   3.530
86360SOL     OW60918  12.815   0.630   0.943
86360SOL    HW160919  12.867   0.668   1.014
86360SOL    HW260920  12.725   0.628   0.977
86361SOL     OW60921   5.157   6.248  11.150
86361SOL    HW160922   5.174   6.268  11.242
86361SOL    HW260923   5.223   6.297  11.102
86362SOL     OW60924   4.226  10.403   3.644
86362SOL    HW160925   4.256  10.327   3.694
86362SOL    HW260926   4.297  10.466   3.652
86363SOL     OW60927  11.802   6.673  10.047
86363SOL    HW160928  11.887   6.694  10.010
86363SOL    HW260929  11.791   6.735  10.120
86364SOL     OW60930   6.803   9.568   4.626
86364SOL    HW160931   6.815   9.487   4.677
86364SOL    HW260932   6.827   9.638   4.686
86365SOL     OW60933  14.378  14.611  11.091
86365SOL    HW160934  14.329  14.540  11.049
86365SOL    HW260935  14.467  14.577  11.100
86366SOL     OW60936   7.046   2.186   4.325
86366SOL    HW160937   6.954   2.182   4.352
86366SOL    HW260938   7.049   2.254   4.258
86367SOL     OW60939   3.514   1.659   1.002
86367SOL    HW160940   3.573   1.639   1.075
86367SOL    HW260941   3.472   1.576   0.980
86368SOL     OW60942  13.793  14.465   5.861
86368SOL    HW160943  13.711  14.498   5.898
86368SOL    HW260944  13.765  14.405   5.792
86369SOL     OW60945   7.781   5.073  13.217
86369SOL    HW160946   7.803   4.980  13.217
86369SOL    HW260947   7.846   5.114  13.274
86370SOL     OW60948   5.589   8.623  12.653
86370SOL    HW160949   5.516   8.568  12.625
86370SOL    HW260950   5.649   8.563  12.696
86371SOL     OW60951  10.534   3.815   3.329
86371SOL    HW160952  10.481   3.872   3.384
86371SOL    HW260953  10.512   3.840   3.239
86372SOL     OW60954   4.735   7.912  14.438
86372SOL    HW160955   4.781   7.937  14.358
86372SOL    HW260956   4.797   7.854  14.483
86373SOL     OW60957  11.993  12.193   5.651
86373SOL    HW160958  11.942  12.115   5.626
86373SOL    HW260959  12.067  12.194   5.591
86374SOL     OW60960   0.350   4.723  11.612
86374SOL    HW160961   0.365   4.802  11.662
86374SOL    HW260962   0.425   4.717  11.553
86375SOL     OW60963   4.656   1.003  13.766
86375SOL    HW160964   4.581   0.969  13.815
86375SOL    HW260965   4.636   1.096  13.753
86376SOL     OW60966  14.683   4.661   8.079
86376SOL    HW160967  14.656   4.698   8.163
86376SOL    HW260968  14.728   4.580   8.102
86377SOL     OW60969   5.885  12.589  12.236
86377SOL    HW160970   5.952  12.553  12.179
86377SOL    HW260971   5.835  12.649  12.181
86378SOL     OW60972   6.084   8.046  12.799
86378SOL    HW160973   6.036   8.127  12.785
86378SOL    HW260974   6.163   8.055  12.745
86379SOL     OW60975   2.540   8.174  10.230
86379SOL    HW160976   2.446   8.174  10.248
86379SOL    HW260977   2.568   8.263  10.251
86380SOL     OW60978  10.601   0.138  13.706
86380SOL    HW160979  10.635   0.127  13.617
86380SOL    HW260980  10.614   0.053  13.748
86381SOL     OW60981   1.605   4.071   9.213
86381SOL    HW160982   1.680   4.130   9.226
86381SOL    HW260983   1.643   3.994   9.171
86382SOL     OW60984  14.688   3.006   7.777
86382SOL    HW160985  14.676   2.917   7.811
86382SOL    HW260986  14.767   3.038   7.820
86383SOL     OW60987  11.898   3.872   3.168
86383SOL    HW160988  11.861   3.888   3.081
86383SOL    HW260989  11.822   3.857   3.223
86384SOL     OW60990  13.263   4.378   7.602
86384SOL    HW160991  13.239   4.465   7.570
86384SOL    HW260992  13.189   4.350   7.655
86385SOL     OW60993   4.694   7.274  10.266
86385SOL    HW160994   4.729   7.363  10.266
86385SOL    HW260995   4.755   7.224  10.320
86386SOL     OW60996  11.472   1.938  13.016
86386SOL    HW160997  11.526   2.012  12.990
86386SOL    HW260998  11.509   1.863  12.969
86387SOL     OW60999   5.863  13.995   0.942
86387SOL    HW161000   5.859  13.966   1.033
86387SOL    HW261001   5.777  13.973   0.906
86388SOL     OW61002   7.812   8.425   0.223
86388SOL    HW161003   7.809   8.333   0.198
86388SOL    HW261004   7.885   8.430   0.285
86389SOL     OW61005   3.123   4.395  12.550
86389SOL    HW161006   3.034   4.427  12.532
86389SOL    HW261007   3.134   4.408  12.644
86390SOL     OW61008  13.256  14.647   2.537
86390SOL    HW161009  13.217  14.570   2.496
86390SOL    HW261010  13.213  14.721   2.496
86391SOL     OW61011  11.420   3.814   5.140
86391SOL    HW161012  11.438   3.901   5.106
86391SOL    HW261013  11.503   3.768   5.133
86392SOL     OW61014  14.817   5.565   7.653
86392SOL    HW161015  14.736   5.540   7.608
86392SOL    HW261016  14.821   5.507   7.729
86393SOL     OW61017   4.836  12.079   2.703
86393SOL    HW161018   4.853  12.068   2.797
86393SOL    HW261019   4.791  12.163   2.697
86394SOL     OW61020   0.555   0.236  10.548
86394SOL    HW161021   0.514   0.314  10.510
86394SOL    HW261022   0.578   0.182  10.472
86395SOL     OW61023   7.232   6.284   9.104
86395SOL    HW161024   7.278   6.289   9.188
86395SOL    HW261025   7.183   6.366   9.099
86396SOL     OW61026   7.605  13.884   8.815
86396SOL    HW161027   7.616  13.827   8.891
86396SOL    HW261028   7.568  13.827   8.747
86397SOL     OW61029   4.177   4.764   2.263
86397SOL    HW161030   4.248   4.728   2.315
86397SOL    HW261031   4.178   4.713   2.182
86398SOL     OW61032  13.633   4.874   0.319
86398SOL    HW161033  13.698   4.865   0.389
86398SOL    HW261034  13.606   4.966   0.323
86399SOL     OW61035   3.342   2.685   8.468
86399SOL    HW161036   3.361   2.700   8.560
86399SOL    HW261037   3.390   2.605   8.446
86400SOL     OW61038  12.280   8.986   8.678
86400SOL    HW161039  12.196   9.023   8.707
86400SOL    HW261040  12.338   9.062   8.674
86401SOL     OW61041   8.082   4.709   7.659
86401SOL    HW161042   8.112   4.642   7.598
86401SOL    HW261043   8.024   4.765   7.608
86402SOL     OW61044  13.230   9.553   7.338
86402SOL    HW161045  13.324   9.565   7.352
86402SOL    HW261046  13.221   9.537   7.244
86403SOL     OW61047   6.554  10.851  12.892
86403SOL    HW161048   6.496  10.885  12.959
86403SOL    HW261049   6.538  10.757  12.892
86404SOL     OW61050  13.027   3.944   7.361
86404SOL    HW161051  12.935   3.926   7.343
86404SOL    HW261052  13.032   4.039   7.367
86405SOL     OW61053   6.115   4.048  13.242
86405SOL    HW161054   6.037   4.058  13.188
86405SOL    HW261055   6.168   4.125  13.221
86406SOL     OW61056  12.038   1.231   3.447
86406SOL    HW161057  12.024   1.242   3.353
86406SOL    HW261058  12.133   1.230   3.457
86407SOL     OW61059  14.679   6.018   6.690
86407SOL    HW161060  14.620   5.947   6.714
86407SOL    HW261061  14.636   6.097   6.722
86408SOL     OW61062  10.915  14.750   0.381
86408SOL    HW161063  10.997  14.705   0.362
86408SOL    HW261064  10.938  14.843   0.383
86409SOL     OW61065  13.895   4.170   2.350
86409SOL    HW161066  13.955   4.141   2.281
86409SOL    HW261067  13.949   4.171   2.429
86410SOL     OW61068   7.050  13.816   8.324
86410SOL    HW161069   7.014  13.771   8.248
86410SOL    HW261070   6.987  13.801   8.394
86411SOL     OW61071   1.793   0.517   2.908
86411SOL    HW161072   1.706   0.556   2.900
86411SOL    HW261073   1.787   0.462   2.986
86412SOL     OW61074  14.299  12.498   3.640
86412SOL    HW161075  14.254  12.444   3.575
86412SOL    HW261076  14.248  12.486   3.720
86413SOL     OW61077  11.897  10.629  14.324
86413SOL    HW161078  11.966  10.563  14.335
86413SOL    HW261079  11.906  10.658  14.233
86414SOL     OW61080  12.349   8.068   6.831
86414SOL    HW161081  12.429   8.109   6.864
86414SOL    HW261082  12.316   8.129   6.765
86415SOL     OW61083   2.748   2.826   1.277
86415SOL    HW161084   2.753   2.833   1.182
86415SOL    HW261085   2.743   2.916   1.308
86416SOL     OW61086   8.119   6.404  13.241
86416SOL    HW161087   8.169   6.352  13.303
86416SOL    HW261088   8.165   6.394  13.158
86417SOL     OW61089   9.610   6.704   6.530
86417SOL    HW161090   9.704   6.704   6.543
86417SOL    HW261091   9.575   6.649   6.600
86418SOL     OW61092   3.822  13.526  11.957
86418SOL    HW161093   3.879  13.458  11.991
86418SOL    HW261094   3.733  13.490  11.965
86419SOL     OW61095  13.450   3.944  11.464
86419SOL    HW161096  13.538   3.906  11.460
86419SOL    HW261097  13.403   3.904  11.391
86420SOL     OW61098  11.062   7.979  11.135
86420SOL    HW161099  11.060   8.038  11.211
86420SOL    HW261100  10.992   7.916  11.153
86421SOL     OW61101   8.031  12.647   1.209
86421SOL    HW161102   8.095  12.640   1.280
86421SOL    HW261103   8.015  12.741   1.201
86422SOL     OW61104   6.783   3.667  13.019
86422SOL    HW161105   6.702   3.644  13.063
86422SOL    HW261106   6.756   3.719  12.943
86423SOL     OW61107  12.535   5.248   4.233
86423SOL    HW161108  12.617   5.293   4.212
86423SOL    HW261109  12.473   5.319   4.253
86424SOL     OW61110   1.276   2.604  11.008
86424SOL    HW161111   1.366   2.605  11.039
86424SOL    HW261112   1.231   2.669  11.061
86425SOL     OW61113   1.952  12.577   7.550
86425SOL    HW161114   1.872  12.597   7.500
86425SOL    HW261115   1.922  12.567   7.640
86426SOL     OW61116   7.448  14.416   8.500
86426SOL    HW161117   7.373  14.473   8.485
86426SOL    HW261118   7.492  14.453   8.576
86427SOL     OW61119   0.227   7.892   9.236
86427SOL    HW161120   0.292   7.918   9.301
86427SOL    HW261121   0.250   7.941   9.157
86428SOL     OW61122   3.942  14.772   2.178
86428SOL    HW161123   4.028  14.753   2.215
86428SOL    HW261124   3.881  14.723   2.233
86429SOL     OW61125   4.238  11.020   3.413
86429SOL    HW161126   4.166  11.046   3.470
86429SOL    HW261127   4.293  10.963   3.468
86430SOL     OW61128  14.622   8.776   8.583
86430SOL    HW161129  14.657   8.764   8.494
86430SOL    HW261130  14.576   8.859   8.579
86431SOL     OW61131   5.806   9.233   2.643
86431SOL    HW161132   5.814   9.186   2.726
86431SOL    HW261133   5.794   9.325   2.668
86432SOL     OW61134  12.329  12.071   8.456
86432SOL    HW161135  12.302  12.069   8.364
86432SOL    HW261136  12.402  12.133   8.458
86433SOL     OW61137  14.591  11.626  13.384
86433SOL    HW161138  14.608  11.619  13.290
86433SOL    HW261139  14.554  11.713  13.395
86434SOL     OW61140   5.204   1.307   8.755
86434SOL    HW161141   5.204   1.363   8.678
86434SOL    HW261142   5.284   1.255   8.747
86435SOL     OW61143  10.628   5.863   9.014
86435SOL    HW161144  10.702   5.891   8.961
86435SOL    HW261145  10.581   5.799   8.959
86436SOL     OW61146   2.377   5.470   8.630
86436SOL    HW161147   2.385   5.375   8.642
86436SOL    HW261148   2.382   5.506   8.719
86437SOL     OW61149   7.437   6.030   5.507
86437SOL    HW161150   7.377   6.003   5.437
86437SOL    HW261151   7.522   5.994   5.480
86438SOL     OW61152   0.877   2.111  14.683
86438SOL    HW161153   0.831   2.172  14.741
86438SOL    HW261154   0.952   2.082  14.735
86439SOL     OW61155   5.347   7.785   9.206
86439SOL    HW161156   5.324   7.735   9.127
86439SOL    HW261157   5.443   7.785   9.207
86440SOL     OW61158   5.865   8.632   9.662
86440SOL    HW161159   5.825   8.546   9.652
86440SOL    HW261160   5.900   8.632   9.751
86441SOL     OW61161  14.259   1.437   7.910
86441SOL    HW161162  14.283   1.426   8.002
86441SOL    HW261163  14.169   1.403   7.904
86442SOL     OW61164  12.766   0.121   1.057
86442SOL    HW161165  12.709   0.196   1.041
86442SOL    HW261166  12.709   0.045   1.049
86443SOL     OW61167   8.486   2.692  12.195
86443SOL    HW161168   8.423   2.630  12.233
86443SOL    HW261169   8.531   2.642  12.127
86444SOL     OW61170   2.685  13.089  13.560
86444SOL    HW161171   2.666  13.165  13.504
86444SOL    HW261172   2.763  13.050  13.521
86445SOL     OW61173   4.856   1.271  10.264
86445SOL    HW161174   4.830   1.186  10.227
86445SOL    HW261175   4.909   1.311  10.196
86446SOL     OW61176   3.872   2.848  14.398
86446SOL    HW161177   3.784   2.858  14.435
86446SOL    HW261178   3.929   2.893  14.461
86447SOL     OW61179   2.407   4.966   4.212
86447SOL    HW161180   2.475   4.927   4.266
86447SOL    HW261181   2.454   5.020   4.149
86448SOL     OW61182  12.571   6.154   7.596
86448SOL    HW161183  12.590   6.063   7.574
86448SOL    HW261184  12.655   6.190   7.625
86449SOL     OW61185  13.599  10.109   4.779
86449SOL    HW161186  13.580  10.031   4.726
86449SOL    HW261187  13.656  10.162   4.724
86450SOL     OW61188  10.507  10.758   6.654
86450SOL    HW161189  10.465  10.713   6.581
86450SOL    HW261190  10.597  10.774   6.624
86451SOL     OW61191   7.237  14.149  14.312
86451SOL    HW161192   7.141  14.142  14.309
86451SOL    HW261193   7.267  14.065  14.278
86452SOL     OW61194  12.837   0.563  10.494
86452SOL    HW161195  12.886   0.645  10.498
86452SOL    HW261196  12.752   0.584  10.533
86453SOL     OW61197  14.580   5.446  13.394
86453SOL    HW161198  14.658   5.389  13.399
86453SOL    HW261199  14.539   5.437  13.480
86454SOL     OW61200   2.482  10.302   0.898
86454SOL    HW161201   2.559  10.257   0.933
86454SOL    HW261202   2.492  10.296   0.802
86455SOL     OW61203   6.010   3.432   8.941
86455SOL    HW161204   6.086   3.374   8.952
86455SOL    HW261205   5.956   3.388   8.875
86456SOL     OW61206   2.226   4.385  14.157
86456SOL    HW161207   2.231   4.302  14.206
86456SOL    HW261208   2.298   4.380  14.094
86457SOL     OW61209   3.650   3.157   8.155
86457SOL    HW161210   3.592   3.222   8.115
86457SOL    HW261211   3.623   3.154   8.247
86458SOL     OW61212   9.191   5.079   0.017
86458SOL    HW161213   9.156   5.074   0.106
86458SOL    HW261214   9.284   5.059   0.027
86459SOL     OW61215  13.213  10.379   1.950
86459SOL    HW161216  13.187  10.445   1.886
86459SOL    HW261217  13.149  10.387   2.021
86460SOL     OW61218  10.966  13.884   7.011
86460SOL    HW161219  10.922  13.957   7.055
86460SOL    HW261220  11.044  13.869   7.063
86461SOL     OW61221  10.994   0.689   4.354
86461SOL    HW161222  11.012   0.780   4.377
86461SOL    HW261223  11.068   0.663   4.299
86462SOL     OW61224   9.927   4.871  12.940
86462SOL    HW161225   9.834   4.877  12.959
86462SOL    HW261226   9.959   4.804  13.001
86463SOL     OW61227   9.885   5.537   7.132
86463SOL    HW161228   9.874   5.449   7.094
86463SOL    HW261229   9.808   5.585   7.102
86464SOL     OW61230  14.710  14.427   8.661
86464SOL    HW161231  14.761  14.381   8.727
86464SOL    HW261232  14.688  14.359   8.597
86465SOL     OW61233   5.975  12.400   9.185
86465SOL    HW161234   6.066  12.376   9.165
86465SOL    HW261235   5.963  12.376   9.277
86466SOL     OW61236   1.900   3.624   8.594
86466SOL    HW161237   1.848   3.582   8.663
86466SOL    HW261238   1.953   3.689   8.640
86467SOL     OW61239  11.472   3.163   2.473
86467SOL    HW161240  11.415   3.107   2.421
86467SOL    HW261241  11.493   3.111   2.550
86468SOL     OW61242   0.164  11.763  14.030
86468SOL    HW161243   0.215  11.683  14.018
86468SOL    HW261244   0.173  11.810  13.948
86469SOL     OW61245   1.368  13.109   7.027
86469SOL    HW161246   1.298  13.174   7.026
86469SOL    HW261247   1.404  13.112   6.938
86470SOL     OW61248   7.798  14.066   3.776
86470SOL    HW161249   7.826  13.996   3.835
86470SOL    HW261250   7.723  14.030   3.729
86471SOL     OW61251  13.248   4.024   9.543
86471SOL    HW161252  13.280   3.965   9.612
86471SOL    HW261253  13.322   4.032   9.483
86472SOL     OW61254  12.148   2.398  14.391
86472SOL    HW161255  12.109   2.457  14.455
86472SOL    HW261256  12.195   2.333  14.444
86473SOL     OW61257   2.213   0.727  14.054
86473SOL    HW161258   2.234   0.639  14.086
86473SOL    HW261259   2.250   0.786  14.120
86474SOL     OW61260  11.989   9.699  14.020
86474SOL    HW161261  12.042   9.742  14.086
86474SOL    HW261262  11.904   9.742  14.024
86475SOL     OW61263   8.511   8.148  14.492
86475SOL    HW161264   8.423   8.111  14.483
86475SOL    HW261265   8.529   8.186  14.407
86476SOL     OW61266   9.965   1.244   2.349
86476SOL    HW161267  10.025   1.287   2.410
86476SOL    HW261268   9.989   1.152   2.353
86477SOL     OW61269   2.785   5.934   6.711
86477SOL    HW161270   2.697   5.935   6.748
86477SOL    HW261271   2.843   5.944   6.786
86478SOL     OW61272  12.079  14.136   5.261
86478SOL    HW161273  12.083  14.155   5.168
86478SOL    HW261274  12.086  14.221   5.304
86479SOL     OW61275   4.222  12.022   2.094
86479SOL    HW161276   4.197  12.096   2.039
86479SOL    HW261277   4.299  12.053   2.142
86480SOL     OW61278   4.245   7.764   4.398
86480SOL    HW161279   4.279   7.789   4.484
86480SOL    HW261280   4.180   7.696   4.417
86481SOL     OW61281  14.424  11.695   0.630
86481SOL    HW161282  14.447  11.715   0.721
86481SOL    HW261283  14.328  11.703   0.627
86482SOL     OW61284   1.446   2.467  13.759
86482SOL    HW161285   1.482   2.555  13.760
86482SOL    HW261286   1.426   2.448  13.851
86483SOL     OW61287   8.911  10.087   3.617
86483SOL    HW161288   8.840  10.148   3.600
86483SOL    HW261289   8.935  10.104   3.708
86484SOL     OW61290  12.577   2.927   7.643
86484SOL    HW161291  12.671   2.914   7.641
86484SOL    HW261292  12.553   2.920   7.735
86485SOL     OW61293   6.771   4.680   5.621
86485SOL    HW161294   6.796   4.589   5.600
86485SOL    HW261295   6.677   4.676   5.638
86486SOL     OW61296  13.958   2.860  10.557
86486SOL    HW161297  14.034   2.839  10.503
86486SOL    HW261298  13.988   2.929  10.615
86487SOL     OW61299   4.366  12.471  13.303
86487SOL    HW161300   4.358  12.561  13.335
86487SOL    HW261301   4.458  12.449  13.316
86488SOL     OW61302  11.287  11.259   9.907
86488SOL    HW161303  11.298  11.202   9.984
86488SOL    HW261304  11.306  11.202   9.833
86489SOL     OW61305   6.259   9.624   2.320
86489SOL    HW161306   6.280   9.579   2.402
86489SOL    HW261307   6.181   9.677   2.341
86490SOL     OW61308   3.667   2.825  11.371
86490SOL    HW161309   3.647   2.893  11.307
86490SOL    HW261310   3.718   2.871  11.438
86491SOL     OW61311  10.233   7.509   5.540
86491SOL    HW161312  10.308   7.515   5.481
86491SOL    HW261313  10.184   7.433   5.507
86492SOL     OW61314   2.008   6.984   0.001
86492SOL    HW161315   1.997   7.032  14.793
86492SOL    HW261316   2.078   6.921  14.858
86493SOL     OW61317   7.182   0.259  14.783
86493SOL    HW161318   7.247   0.314  14.740
86493SOL    HW261319   7.222   0.172  14.786
86494SOL     OW61320   3.825  12.153  14.766
86494SOL    HW161321   3.910  12.133  14.726
86494SOL    HW261322   3.829  12.246  14.786
86495SOL     OW61323  10.054   2.085   8.604
86495SOL    HW161324  10.115   2.059   8.535
86495SOL    HW261325   9.977   2.029   8.591
86496SOL     OW61326   6.968   3.277   2.356
86496SOL    HW161327   6.941   3.199   2.404
86496SOL    HW261328   7.008   3.244   2.275
86497SOL     OW61329   0.283   4.042   2.962
86497SOL    HW161330   0.237   4.126   2.964
86497SOL    HW261331   0.376   4.066   2.968
86498SOL     OW61332   3.083   9.360   5.080
86498SOL    HW161333   3.055   9.435   5.027
86498SOL    HW261334   3.073   9.285   5.021
86499SOL     OW61335   8.443   4.578  10.645
86499SOL    HW161336   8.409   4.518  10.579
86499SOL    HW261337   8.447   4.527  10.725
86500SOL     OW61338   1.313   3.687   0.098
86500SOL    HW161339   1.299   3.770   0.054
86500SOL    HW261340   1.232   3.671   0.146
86501SOL     OW61341  11.743  10.812   8.004
86501SOL    HW161342  11.828  10.805   8.046
86501SOL    HW261343  11.730  10.727   7.962
86502SOL     OW61344  13.659   9.288  14.835
86502SOL    HW161345  13.720   9.352  14.872
86502SOL    HW261346  13.591   9.342  14.795
86503SOL     OW61347   7.496   1.756   7.674
86503SOL    HW161348   7.459   1.685   7.621
86503SOL    HW261349   7.569   1.715   7.721
86504SOL     OW61350   7.799  13.350   8.756
86504SOL    HW161351   7.852  13.393   8.689
86504SOL    HW261352   7.855  13.282   8.792
86505SOL     OW61353   8.215   4.554   5.139
86505SOL    HW161354   8.237   4.627   5.082
86505SOL    HW261355   8.235   4.476   5.087
86506SOL     OW61356  14.087   3.100   3.905
86506SOL    HW161357  14.139   3.029   3.943
86506SOL    HW261358  14.073   3.074   3.814
86507SOL     OW61359   4.931   0.893  11.992
86507SOL    HW161360   5.004   0.886  11.932
86507SOL    HW261361   4.937   0.981  12.028
86508SOL     OW61362   7.297  11.745  14.818
86508SOL    HW161363   7.229  11.698  14.868
86508SOL    HW261364   7.371  11.752   0.005
86509SOL     OW61365  13.234   0.829  11.139
86509SOL    HW161366  13.222   0.895  11.208
86509SOL    HW261367  13.166   0.764  11.156
86510SOL     OW61368   2.814  13.446   2.204
86510SOL    HW161369   2.886  13.424   2.145
86510SOL    HW261370   2.856  13.492   2.276
86511SOL     OW61371   5.145  13.669   8.266
86511SOL    HW161372   5.213  13.694   8.328
86511SOL    HW261373   5.176  13.702   8.181
86512SOL     OW61374  13.125   9.039   3.467
86512SOL    HW161375  13.214   9.070   3.448
86512SOL    HW261376  13.068   9.109   3.434
86513SOL     OW61377   3.631   8.058   7.648
86513SOL    HW161378   3.584   8.080   7.729
86513SOL    HW261379   3.600   7.971   7.626
86514SOL     OW61380   4.108   6.902   0.572
86514SOL    HW161381   4.191   6.940   0.600
86514SOL    HW261382   4.046   6.975   0.574
86515SOL     OW61383   9.876  13.778   3.834
86515SOL    HW161384   9.793  13.736   3.856
86515SOL    HW261385   9.853  13.870   3.820
86516SOL     OW61386   3.838  10.422   3.327
86516SOL    HW161387   3.890  10.474   3.389
86516SOL    HW261388   3.885  10.430   3.244
86517SOL     OW61389   5.166  10.364  10.181
86517SOL    HW161390   5.087  10.358  10.235
86517SOL    HW261391   5.232  10.316  10.232
86518SOL     OW61392  14.442   6.427  12.896
86518SOL    HW161393  14.489   6.485  12.836
86518SOL    HW261394  14.458   6.339  12.862
86519SOL     OW61395   7.908  10.478  13.226
86519SOL    HW161396   7.977  10.423  13.189
86519SOL    HW261397   7.846  10.491  13.154
86520SOL     OW61398  13.612   2.948  13.302
86520SOL    HW161399  13.569   2.991  13.376
86520SOL    HW261400  13.545   2.944  13.234
86521SOL     OW61401   6.503  14.528   5.767
86521SOL    HW161402   6.457  14.459   5.814
86521SOL    HW261403   6.592  14.494   5.756
86522SOL     OW61404   3.492  14.510  10.479
86522SOL    HW161405   3.535  14.513  10.565
86522SOL    HW261406   3.400  14.526  10.498
86523SOL     OW61407   0.665  11.277  14.866
86523SOL    HW161408   0.723  11.204   0.009
86523SOL    HW261409   0.608  11.281   0.069
86524SOL     OW61410  14.151   3.832  10.566
86524SOL    HW161411  14.240   3.800  10.578
86524SOL    HW261412  14.141   3.902  10.630
86525SOL     OW61413   5.943   3.731  12.175
86525SOL    HW161414   6.024   3.780  12.190
86525SOL    HW261415   5.947   3.658  12.236
86526SOL     OW61416  14.449   6.988  12.520
86526SOL    HW161417  14.514   7.014  12.586
86526SOL    HW261418  14.500   6.979  12.439
86527SOL     OW61419  13.103   2.541   2.209
86527SOL    HW161420  13.017   2.575   2.184
86527SOL    HW261421  13.120   2.472   2.146
86528SOL     OW61422   0.571   4.646   8.306
86528SOL    HW161423   0.632   4.591   8.257
86528SOL    HW261424   0.614   4.661   8.389
86529SOL     OW61425   5.586   4.083  12.783
86529SOL    HW161426   5.521   4.131  12.833
86529SOL    HW261427   5.584   3.995  12.820
86530SOL     OW61428   9.033   2.469  12.685
86530SOL    HW161429   9.067   2.520  12.758
86530SOL    HW261430   9.058   2.519  12.607
86531SOL     OW61431  10.789   5.553   2.383
86531SOL    HW161432  10.806   5.500   2.305
86531SOL    HW261433  10.709   5.601   2.363
86532SOL     OW61434   8.953   9.551  13.443
86532SOL    HW161435   8.903   9.617  13.396
86532SOL    HW261436   8.892   9.479  13.456
86533SOL     OW61437   7.715   3.534   8.834
86533SOL    HW161438   7.650   3.549   8.903
86533SOL    HW261439   7.795   3.573   8.868
86534SOL     OW61440   7.875   0.765  13.954
86534SOL    HW161441   7.863   0.681  13.999
86534SOL    HW261442   7.970   0.776  13.948
86535SOL     OW61443   9.237   1.967  13.835
86535SOL    HW161444   9.271   2.029  13.770
86535SOL    HW261445   9.183   1.907  13.784
86536SOL     OW61446  10.061   5.271   5.637
86536SOL    HW161447  10.134   5.252   5.579
86536SOL    HW261448   9.991   5.211   5.610
86537SOL     OW61449   1.172   3.026  10.829
86537SOL    HW161450   1.229   3.010  10.754
86537SOL    HW261451   1.107   2.956  10.826
86538SOL     OW61452   0.785  14.540   3.805
86538SOL    HW161453   0.821  14.526   3.892
86538SOL    HW261454   0.690  14.541   3.818
86539SOL     OW61455   7.481   2.677   3.712
86539SOL    HW161456   7.543   2.608   3.692
86539SOL    HW261457   7.492   2.741   3.642
86540SOL     OW61458   1.899  10.333   9.583
86540SOL    HW161459   1.924  10.345   9.491
86540SOL    HW261460   1.807  10.361   9.586
86541SOL     OW61461   8.909   5.986  14.764
86541SOL    HW161462   8.904   5.892  14.748
86541SOL    HW261463   8.858   6.025  14.693
86542SOL     OW61464   9.166  14.119   2.240
86542SOL    HW161465   9.196  14.140   2.328
86542SOL    HW261466   9.131  14.202   2.206
86543SOL     OW61467   7.008   8.450   6.181
86543SOL    HW161468   7.032   8.487   6.096
86543SOL    HW261469   7.039   8.515   6.245
86544SOL     OW61470   0.496   1.476  10.475
86544SOL    HW161471   0.494   1.381  10.480
86544SOL    HW261472   0.452   1.506  10.554
86545SOL     OW61473  10.942   0.663   3.032
86545SOL    HW161474  10.953   0.594   2.967
86545SOL    HW261475  11.031   0.691   3.053
86546SOL     OW61476  11.618   6.789   9.805
86546SOL    HW161477  11.635   6.728   9.733
86546SOL    HW261478  11.702   6.832   9.820
86547SOL     OW61479   6.534   8.069   6.498
86547SOL    HW161480   6.578   7.999   6.450
86547SOL    HW261481   6.441   8.050   6.490
86548SOL     OW61482  11.498   9.282   0.875
86548SOL    HW161483  11.425   9.309   0.819
86548SOL    HW261484  11.552   9.226   0.819
86549SOL     OW61485  13.232   8.630  12.149
86549SOL    HW161486  13.261   8.663  12.233
86549SOL    HW261487  13.164   8.691  12.121
86550SOL     OW61488  12.080  13.315   0.350
86550SOL    HW161489  11.989  13.318   0.380
86550SOL    HW261490  12.089  13.229   0.310
86551SOL     OW61491   8.246   1.771  12.367
86551SOL    HW161492   8.241   1.685  12.409
86551SOL    HW261493   8.240   1.751  12.273
86552SOL     OW61494   0.690  13.970  13.614
86552SOL    HW161495   0.699  14.042  13.676
86552SOL    HW261496   0.719  14.006  13.530
86553SOL     OW61497   0.833   4.744  10.486
86553SOL    HW161498   0.818   4.661  10.441
86553SOL    HW261499   0.922   4.769  10.462
86554SOL     OW61500   4.819   7.555   6.857
86554SOL    HW161501   4.781   7.545   6.944
86554SOL    HW261502   4.908   7.586   6.873
86555SOL     OW61503   1.535   2.310   4.283
86555SOL    HW161504   1.464   2.279   4.226
86555SOL    HW261505   1.614   2.271   4.246
86556SOL     OW61506  12.345   6.552  11.649
86556SOL    HW161507  12.397   6.627  11.678
86556SOL    HW261508  12.271   6.549  11.711
86557SOL     OW61509   0.768  12.530   9.216
86557SOL    HW161510   0.771  12.491   9.303
86557SOL    HW261511   0.757  12.624   9.233
86558SOL     OW61512   8.988   3.768   6.506
86558SOL    HW161513   9.036   3.850   6.503
86558SOL    HW261514   9.047   3.707   6.550
86559SOL     OW61515   4.756   4.391  10.989
86559SOL    HW161516   4.801   4.419  11.068
86559SOL    HW261517   4.824   4.387  10.922
86560SOL     OW61518   5.999  13.433   7.717
86560SOL    HW161519   5.965  13.520   7.697
86560SOL    HW261520   6.091  13.449   7.740
86561SOL     OW61521  11.702   5.525   0.851
86561SOL    HW161522  11.729   5.434   0.860
86561SOL    HW261523  11.699   5.540   0.756
86562SOL     OW61524  13.391   1.367  12.521
86562SOL    HW161525  13.373   1.338  12.431
86562SOL    HW261526  13.317   1.335  12.572
86563SOL     OW61527  11.914  11.894   5.937
86563SOL    HW161528  11.842  11.834   5.919
86563SOL    HW261529  11.993  11.842   5.920
86564SOL     OW61530  10.410   2.780  11.341
86564SOL    HW161531  10.461   2.781  11.260
86564SOL    HW261532  10.368   2.694  11.342
86565SOL     OW61533  12.209   3.457   0.435
86565SOL    HW161534  12.169   3.374   0.461
86565SOL    HW261535  12.293   3.433   0.398
86566SOL     OW61536   5.250  11.833   4.705
86566SOL    HW161537   5.253  11.747   4.663
86566SOL    HW261538   5.183  11.881   4.657
86567SOL     OW61539  13.128   2.105   2.071
86567SOL    HW161540  13.200   2.084   2.130
86567SOL    HW261541  13.143   2.051   1.994
86568SOL     OW61542   4.929  10.819   2.851
86568SOL    HW161543   4.896  10.881   2.916
86568SOL    HW261544   5.007  10.782   2.891
86569SOL     OW61545   5.638  13.956  13.417
86569SOL    HW161546   5.555  13.943  13.462
86569SOL    HW261547   5.681  14.027  13.465
86570SOL     OW61548  14.280   7.100   8.844
86570SOL    HW161549  14.242   7.183   8.815
86570SOL    HW261550  14.253   7.093   8.935
86571SOL     OW61551   0.708   8.485   9.926
86571SOL    HW161552   0.799   8.482   9.898
86571SOL    HW261553   0.664   8.416   9.876
86572SOL     OW61554   9.630   3.284   2.598
86572SOL    HW161555   9.698   3.250   2.656
86572SOL    HW261556   9.548   3.258   2.639
86573SOL     OW61557  13.869   5.664   9.582
86573SOL    HW161558  13.961   5.640   9.567
86573SOL    HW261559  13.820   5.584   9.562
86574SOL     OW61560   2.478   4.308   6.362
86574SOL    HW161561   2.508   4.350   6.443
86574SOL    HW261562   2.453   4.220   6.389
86575SOL     OW61563   1.946   6.061   6.167
86575SOL    HW161564   1.958   5.967   6.155
86575SOL    HW261565   2.031   6.099   6.143
86576SOL     OW61566  10.355   1.679   0.328
86576SOL    HW161567  10.355   1.730   0.247
86576SOL    HW261568  10.436   1.627   0.323
86577SOL     OW61569   4.083  13.535   2.127
86577SOL    HW161570   4.030  13.553   2.050
86577SOL    HW261571   4.080  13.616   2.178
86578SOL     OW61572   8.066   0.004  11.810
86578SOL    HW161573   8.129   0.076  11.806
86578SOL    HW261574   8.073  14.845  11.900
86579SOL     OW61575  12.992   3.027   9.743
86579SOL    HW161576  12.997   2.962   9.813
86579SOL    HW261577  13.019   3.109   9.784
86580SOL     OW61578  11.960   9.251   8.476
86580SOL    HW161579  11.870   9.283   8.470
86580SOL    HW261580  12.006   9.296   8.405
86581SOL     OW61581   8.507   4.171   0.192
86581SOL    HW161582   8.470   4.196   0.277
86581SOL    HW261583   8.540   4.083   0.205
86582SOL     OW61584   2.537  12.188   0.696
86582SOL    HW161585   2.444  12.166   0.706
86582SOL    HW261586   2.543  12.228   0.610
86583SOL     OW61587   5.904  10.766   2.522
86583SOL    HW161588   5.850  10.843   2.503
86583SOL    HW261589   5.968  10.796   2.586
86584SOL     OW61590  10.953  13.949  12.950
86584SOL    HW161591  11.023  13.978  12.892
86584SOL    HW261592  10.899  13.891  12.895
86585SOL     OW61593   5.308   8.205  11.834
86585SOL    HW161594   5.366   8.163  11.770
86585SOL    HW261595   5.345   8.292  11.846
86586SOL     OW61596  14.469   8.202   4.356
86586SOL    HW161597  14.528   8.164   4.421
86586SOL    HW261598  14.509   8.181   4.272
86587SOL     OW61599  11.158   5.401   1.153
86587SOL    HW161600  11.159   5.346   1.075
86587SOL    HW261601  11.153   5.491   1.118
86588SOL     OW61602   0.500   3.035   5.156
86588SOL    HW161603   0.514   2.988   5.074
86588SOL    HW261604   0.478   3.124   5.129
86589SOL     OW61605   4.434  12.513   8.977
86589SOL    HW161606   4.348  12.493   9.013
86589SOL    HW261607   4.448  12.605   8.999
86590SOL     OW61608   3.629   8.160  11.469
86590SOL    HW161609   3.619   8.203  11.384
86590SOL    HW261610   3.724   8.149  11.480
86591SOL     OW61611   7.574  14.532   2.493
86591SOL    HW161612   7.525  14.550   2.413
86591SOL    HW261613   7.529  14.584   2.560
86592SOL     OW61614   6.834   9.584   7.950
86592SOL    HW161615   6.815   9.608   7.860
86592SOL    HW261616   6.867   9.494   7.944
86593SOL     OW61617  11.351  12.592   2.348
86593SOL    HW161618  11.320  12.642   2.423
86593SOL    HW261619  11.426  12.642   2.316
86594SOL     OW61620   5.656   5.866   7.088
86594SOL    HW161621   5.627   5.812   7.015
86594SOL    HW261622   5.746   5.838   7.105
86595SOL     OW61623   2.723   1.629   8.047
86595SOL    HW161624   2.690   1.698   7.990
86595SOL    HW261625   2.644   1.580   8.073
86596SOL     OW61626   5.440   1.084   1.883
86596SOL    HW161627   5.454   1.175   1.859
86596SOL    HW261628   5.477   1.034   1.810
86597SOL     OW61629   1.391   9.166   9.931
86597SOL    HW161630   1.309   9.118   9.919
86597SOL    HW261631   1.415   9.195   9.843
86598SOL     OW61632  13.260  11.605   5.759
86598SOL    HW161633  13.296  11.634   5.843
86598SOL    HW261634  13.239  11.687   5.713
86599SOL     OW61635   4.731   6.220   0.232
86599SOL    HW161636   4.805   6.161   0.220
86599SOL    HW261637   4.770   6.307   0.238
86600SOL     OW61638   9.423  12.339   4.107
86600SOL    HW161639   9.458  12.336   4.196
86600SOL    HW261640   9.419  12.248   4.079
86601SOL     OW61641   1.694  14.325  11.948
86601SOL    HW161642   1.783  14.345  11.918
86601SOL    HW261643   1.645  14.407  11.935
86602SOL     OW61644   7.137  11.474   7.765
86602SOL    HW161645   7.122  11.518   7.681
86602SOL    HW261646   7.107  11.384   7.751
86603SOL     OW61647   2.538  11.933  10.456
86603SOL    HW161648   2.501  11.844  10.456
86603SOL    HW261649   2.501  11.974  10.534
86604SOL     OW61650  10.078  12.336   3.962
86604SOL    HW161651  10.135  12.403   3.924
86604SOL    HW261652  10.133  12.258   3.968
86605SOL     OW61653   0.266   7.350   3.997
86605SOL    HW161654   0.181   7.366   3.956
86605SOL    HW261655   0.313   7.295   3.934
86606SOL     OW61656  10.242   3.647   3.285
86606SOL    HW161657  10.187   3.726   3.290
86606SOL    HW261658  10.182   3.575   3.305
86607SOL     OW61659   0.339  11.190  10.825
86607SOL    HW161660   0.394  11.200  10.903
86607SOL    HW261661   0.383  11.122  10.774
86608SOL     OW61662   6.729  14.422  11.379
86608SOL    HW161663   6.712  14.411  11.285
86608SOL    HW261664   6.796  14.357  11.399
86609SOL     OW61665   8.553   4.446  10.252
86609SOL    HW161666   8.543   4.428  10.346
86609SOL    HW261667   8.487   4.389  10.211
86610SOL     OW61668   4.158   1.542   4.678
86610SOL    HW161669   4.143   1.462   4.628
86610SOL    HW261670   4.193   1.511   4.762
86611SOL     OW61671  11.609   6.020  13.279
86611SOL    HW161672  11.698   6.011  13.245
86611SOL    HW261673  11.556   6.044  13.203
86612SOL     OW61674   6.959   0.806   2.845
86612SOL    HW161675   7.006   0.889   2.859
86612SOL    HW261676   6.902   0.824   2.771
86613SOL     OW61677   2.841   9.876   1.091
86613SOL    HW161678   2.838   9.887   0.996
86613SOL    HW261679   2.772   9.934   1.124
86614SOL     OW61680   4.352   1.333   7.982
86614SOL    HW161681   4.301   1.347   7.902
86614SOL    HW261682   4.386   1.244   7.973
86615SOL     OW61683   5.454   1.215  12.973
86615SOL    HW161684   5.437   1.125  13.000
86615SOL    HW261685   5.471   1.262  13.055
86616SOL     OW61686   1.183   9.413   5.026
86616SOL    HW161687   1.114   9.356   4.993
86616SOL    HW261688   1.146   9.501   5.022
86617SOL     OW61689   0.472  10.855   4.373
86617SOL    HW161690   0.536  10.824   4.438
86617SOL    HW261691   0.480  10.792   4.301
86618SOL     OW61692   4.813   5.360  14.641
86618SOL    HW161693   4.821   5.267  14.661
86618SOL    HW261694   4.903   5.391  14.636
86619SOL     OW61695   3.267   5.506  12.080
86619SOL    HW161696   3.361   5.506  12.064
86619SOL    HW261697   3.233   5.575  12.023
86620SOL     OW61698   3.779   8.235   3.784
86620SOL    HW161699   3.785   8.327   3.757
86620SOL    HW261700   3.827   8.232   3.867
86621SOL     OW61701   5.317   6.771   0.682
86621SOL    HW161702   5.310   6.780   0.777
86621SOL    HW261703   5.246   6.713   0.657
86622SOL     OW61704  14.163  11.553   2.284
86622SOL    HW161705  14.144  11.626   2.342
86622SOL    HW261706  14.248  11.520   2.314
86623SOL     OW61707  14.290  14.635   0.809
86623SOL    HW161708  14.367  14.649   0.755
86623SOL    HW261709  14.227  14.701   0.780
86624SOL     OW61710  13.186   5.449   7.726
86624SOL    HW161711  13.148   5.444   7.814
86624SOL    HW261712  13.243   5.373   7.720
86625SOL     OW61713   6.372   0.554   7.638
86625SOL    HW161714   6.462   0.570   7.611
86625SOL    HW261715   6.348   0.632   7.689
86626SOL     OW61716   6.780   2.434  12.824
86626SOL    HW161717   6.817   2.510  12.780
86626SOL    HW261718   6.807   2.444  12.916
86627SOL     OW61719   4.636  10.077  12.847
86627SOL    HW161720   4.691   9.999  12.856
86627SOL    HW261721   4.631  10.114  12.935
86628SOL     OW61722  12.698  14.715   6.414
86628SOL    HW161723  12.674  14.629   6.379
86628SOL    HW261724  12.698  14.773   6.337
86629SOL     OW61725  14.048   9.812   8.683
86629SOL    HW161726  13.983   9.881   8.670
86629SOL    HW261727  14.086   9.832   8.769
86630SOL     OW61728  14.442   8.672  11.037
86630SOL    HW161729  14.451   8.734  11.109
86630SOL    HW261730  14.445   8.586  11.079
86631SOL     OW61731  11.637   4.570   2.199
86631SOL    HW161732  11.676   4.485   2.217
86631SOL    HW261733  11.571   4.553   2.131
86632SOL     OW61734   9.043   3.490   1.416
86632SOL    HW161735   8.993   3.462   1.340
86632SOL    HW261736   9.111   3.424   1.426
86633SOL     OW61737  14.003   5.187  10.490
86633SOL    HW161738  14.019   5.181  10.584
86633SOL    HW261739  14.022   5.100  10.456
86634SOL     OW61740   0.799  10.265   5.287
86634SOL    HW161741   0.879  10.234   5.245
86634SOL    HW261742   0.777  10.347   5.242
86635SOL     OW61743   0.260  12.828  13.741
86635SOL    HW161744   0.329  12.873  13.790
86635SOL    HW261745   0.214  12.899  13.695
86636SOL     OW61746   1.759   1.880  11.897
86636SOL    HW161747   1.720   1.868  11.984
86636SOL    HW261748   1.830   1.817  11.894
86637SOL     OW61749   2.685  12.520   0.860
86637SOL    HW161750   2.612  12.568   0.820
86637SOL    HW261751   2.666  12.521   0.954
86638SOL     OW61752   0.594   9.799   1.727
86638SOL    HW161753   0.676   9.827   1.767
86638SOL    HW261754   0.550   9.880   1.701
86639SOL     OW61755  11.670  14.782   7.708
86639SOL    HW161756  11.674  14.849   7.640
86639SOL    HW261757  11.660  14.830   7.789
86640SOL     OW61758  12.349   2.272   1.535
86640SOL    HW161759  12.269   2.326   1.536
86640SOL    HW261760  12.392   2.293   1.618
86641SOL     OW61761  10.267   1.007  10.439
86641SOL    HW161762  10.342   1.044  10.392
86641SOL    HW261763  10.265   0.915  10.411
86642SOL     OW61764   4.536   1.104   5.474
86642SOL    HW161765   4.550   1.011   5.491
86642SOL    HW261766   4.603   1.148   5.527
86643SOL     OW61767  11.023  12.060   3.669
86643SOL    HW161768  11.079  12.068   3.592
86643SOL    HW261769  10.935  12.050   3.634
86644SOL     OW61770  12.803   0.808   6.686
86644SOL    HW161771  12.823   0.892   6.727
86644SOL    HW261772  12.714   0.818   6.653
86645SOL     OW61773   1.029   4.722   3.643
86645SOL    HW161774   1.040   4.657   3.713
86645SOL    HW261775   1.113   4.768   3.640
86646SOL     OW61776  12.190   1.113   4.925
86646SOL    HW161777  12.276   1.082   4.898
86646SOL    HW261778  12.129   1.048   4.890
86647SOL     OW61779  14.218   2.368   8.127
86647SOL    HW161780  14.226   2.365   8.031
86647SOL    HW261781  14.268   2.446   8.152
86648SOL     OW61782   1.771  12.693   1.104
86648SOL    HW161783   1.856  12.650   1.095
86648SOL    HW261784   1.709  12.622   1.116
86649SOL     OW61785  10.091   6.791  14.736
86649SOL    HW161786  10.042   6.709  14.728
86649SOL    HW261787  10.031   6.851  14.781
86650SOL     OW61788   7.617   6.234  11.295
86650SOL    HW161789   7.669   6.183  11.357
86650SOL    HW261790   7.681   6.273  11.235
86651SOL     OW61791   5.538   2.140  10.853
86651SOL    HW161792   5.460   2.104  10.812
86651SOL    HW261793   5.610   2.115  10.794
86652SOL     OW61794  10.379   8.174  11.592
86652SOL    HW161795  10.335   8.100  11.634
86652SOL    HW261796  10.312   8.213  11.537
86653SOL     OW61797   5.193   2.045   7.813
86653SOL    HW161798   5.114   2.006   7.850
86653SOL    HW261799   5.244   2.071   7.889
86654SOL     OW61800   1.837   2.779   4.898
86654SOL    HW161801   1.806   2.688   4.900
86654SOL    HW261802   1.796   2.816   4.820
86655SOL     OW61803  12.958  13.295  10.243
86655SOL    HW161804  13.031  13.281  10.302
86655SOL    HW261805  12.899  13.221  10.260
86656SOL     OW61806   2.786  13.518  10.995
86656SOL    HW161807   2.709  13.512  11.051
86656SOL    HW261808   2.751  13.550  10.911
86657SOL     OW61809  12.856  11.489  10.214
86657SOL    HW161810  12.859  11.578  10.248
86657SOL    HW261811  12.926  11.486  10.148
86658SOL     OW61812   0.643   5.125   4.542
86658SOL    HW161813   0.605   5.172   4.617
86658SOL    HW261814   0.568   5.085   4.499
86659SOL     OW61815  12.460  11.593   3.887
86659SOL    HW161816  12.408  11.613   3.965
86659SOL    HW261817  12.478  11.499   3.894
86660SOL     OW61818   6.303   6.262   5.817
86660SOL    HW161819   6.274   6.193   5.758
86660SOL    HW261820   6.272   6.343   5.777
86661SOL     OW61821   1.189   6.026  11.293
86661SOL    HW161822   1.120   6.093  11.289
86661SOL    HW261823   1.210   6.008  11.201
86662SOL     OW61824   5.429  12.305   1.857
86662SOL    HW161825   5.378  12.226   1.879
86662SOL    HW261826   5.379  12.347   1.787
86663SOL     OW61827  12.368   4.282   0.286
86663SOL    HW161828  12.423   4.268   0.210
86663SOL    HW261829  12.383   4.205   0.342
86664SOL     OW61830   7.055   1.723   4.270
86664SOL    HW161831   7.110   1.799   4.290
86664SOL    HW261832   7.020   1.695   4.355
86665SOL     OW61833   4.288   7.506   4.337
86665SOL    HW161834   4.281   7.598   4.313
86665SOL    HW261835   4.370   7.499   4.385
86666SOL     OW61836  11.137   9.350  10.792
86666SOL    HW161837  11.149   9.438  10.756
86666SOL    HW261838  11.083   9.305  10.727
86667SOL     OW61839  12.076   8.677   8.799
86667SOL    HW161840  12.020   8.618   8.749
86667SOL    HW261841  12.034   8.684   8.885
86668SOL     OW61842  12.122  12.507   5.347
86668SOL    HW161843  12.097  12.538   5.434
86668SOL    HW261844  12.123  12.412   5.355
86669SOL     OW61845   0.340   8.507   5.633
86669SOL    HW161846   0.332   8.463   5.548
86669SOL    HW261847   0.263   8.479   5.682
86670SOL     OW61848   5.814   0.924   1.418
86670SOL    HW161849   5.758   0.984   1.467
86670SOL    HW261850   5.809   0.954   1.327
86671SOL     OW61851   8.936   2.811   6.240
86671SOL    HW161852   8.879   2.883   6.269
86671SOL    HW261853   9.008   2.854   6.194
86672SOL     OW61854   4.666   9.828   7.812
86672SOL    HW161855   4.705   9.765   7.751
86672SOL    HW261856   4.740   9.881   7.841
86673SOL     OW61857   4.304   2.881   9.647
86673SOL    HW161858   4.252   2.903   9.725
86673SOL    HW261859   4.382   2.839   9.682
86674SOL     OW61860  12.728  13.858   3.749
86674SOL    HW161861  12.818  13.861   3.780
86674SOL    HW261862  12.716  13.940   3.701
86675SOL     OW61863   2.727   9.062  10.586
86675SOL    HW161864   2.693   9.115  10.658
86675SOL    HW261865   2.653   9.050  10.527
86676SOL     OW61866   6.951  10.951  11.185
86676SOL    HW161867   6.860  10.950  11.156
86676SOL    HW261868   7.001  10.923  11.108
86677SOL     OW61869   2.268   2.110   2.697
86677SOL    HW161870   2.328   2.110   2.623
86677SOL    HW261871   2.292   2.187   2.748
86678SOL     OW61872   2.908  11.734   2.994
86678SOL    HW161873   2.960  11.698   2.922
86678SOL    HW261874   2.939  11.688   3.071
86679SOL     OW61875   6.619   2.168   9.838
86679SOL    HW161876   6.644   2.075   9.832
86679SOL    HW261877   6.588   2.179   9.928
86680SOL     OW61878   1.580   4.706  14.484
86680SOL    HW161879   1.638   4.645  14.529
86680SOL    HW261880   1.569   4.670  14.396
86681SOL     OW61881   2.533  14.010   1.377
86681SOL    HW161882   2.558  13.994   1.286
86681SOL    HW261883   2.616  14.014   1.425
86682SOL     OW61884   5.142   8.423   3.876
86682SOL    HW161885   5.082   8.350   3.859
86682SOL    HW261886   5.220   8.403   3.824
86683SOL     OW61887   7.317   3.518   5.123
86683SOL    HW161888   7.258   3.452   5.089
86683SOL    HW261889   7.396   3.511   5.069
86684SOL     OW61890  13.274  14.197  11.264
86684SOL    HW161891  13.223  14.246  11.199
86684SOL    HW261892  13.338  14.149  11.212
86685SOL     OW61893   3.129   1.827   1.693
86685SOL    HW161894   3.183   1.900   1.662
86685SOL    HW261895   3.170   1.750   1.654
86686SOL     OW61896   3.551  12.334   4.759
86686SOL    HW161897   3.519  12.285   4.835
86686SOL    HW261898   3.646  12.337   4.771
86687SOL     OW61899   8.953   6.104   6.110
86687SOL    HW161900   8.907   6.022   6.094
86687SOL    HW261901   8.971   6.104   6.204
86688SOL     OW61902   6.324   1.717  11.165
86688SOL    HW161903   6.392   1.702  11.100
86688SOL    HW261904   6.242   1.714  11.116
86689SOL     OW61905  12.336   7.101   0.526
86689SOL    HW161906  12.350   7.093   0.620
86689SOL    HW261907  12.394   7.035   0.487
86690SOL     OW61908   5.208  12.235   7.993
86690SOL    HW161909   5.143  12.233   7.923
86690SOL    HW261910   5.158  12.233   8.074
86691SOL     OW61911  11.896  13.419   0.645
86691SOL    HW161912  11.864  13.484   0.708
86691SOL    HW261913  11.950  13.360   0.697
86692SOL     OW61914   3.365   0.279  14.637
86692SOL    HW161915   3.352   0.194  14.679
86692SOL    HW261916   3.392   0.337  14.709
86693SOL     OW61917   5.022   4.660   4.183
86693SOL    HW161918   4.964   4.736   4.192
86693SOL    HW261919   5.086   4.670   4.254
86694SOL     OW61920  13.314   9.177  10.483
86694SOL    HW161921  13.393   9.143  10.442
86694SOL    HW261922  13.243   9.150  10.425
86695SOL     OW61923   5.335  13.936   8.708
86695SOL    HW161924   5.278  13.885   8.765
86695SOL    HW261925   5.423  13.922   8.743
86696SOL     OW61926   4.532   6.112   0.026
86696SOL    HW161927   4.583   6.168   0.085
86696SOL    HW261928   4.578   6.116  14.817
86697SOL     OW61929  13.274  10.674  10.996
86697SOL    HW161930  13.233  10.588  10.984
86697SOL    HW261931  13.354  10.655  11.044
86698SOL     OW61932   5.481  12.536  11.711
86698SOL    HW161933   5.501  12.444  11.732
86698SOL    HW261934   5.566  12.574  11.689
86699SOL     OW61935   4.224  11.277  14.264
86699SOL    HW161936   4.159  11.269  14.193
86699SOL    HW261937   4.269  11.359  14.245
86700SOL     OW61938   9.287   1.491   4.884
86700SOL    HW161939   9.295   1.463   4.975
86700SOL    HW261940   9.233   1.570   4.888
86701SOL     OW61941  14.537   0.796   1.188
86701SOL    HW161942  14.551   0.815   1.281
86701SOL    HW261943  14.492   0.711   1.188
86702SOL     OW61944  12.171   5.914   5.670
86702SOL    HW161945  12.254   5.886   5.708
86702SOL    HW261946  12.195   5.970   5.596
86703SOL     OW61947   7.545   8.908  10.222
86703SOL    HW161948   7.486   8.939  10.153
86703SOL    HW261949   7.550   8.981  10.284
86704SOL     OW61950   2.624   8.829   3.559
86704SOL    HW161951   2.602   8.741   3.531
86704SOL    HW261952   2.651   8.820   3.650
86705SOL     OW61953   7.692   7.125   4.731
86705SOL    HW161954   7.729   7.134   4.643
86705SOL    HW261955   7.758   7.163   4.789
86706SOL     OW61956  10.048  14.223   2.507
86706SOL    HW161957   9.977  14.182   2.458
86706SOL    HW261958  10.127  14.175   2.482
86707SOL     OW61959   8.948   6.281   6.509
86707SOL    HW161960   8.928   6.370   6.482
86707SOL    HW261961   9.014   6.251   6.447
86708SOL     OW61962   3.941   1.215   5.357
86708SOL    HW161963   3.953   1.239   5.265
86708SOL    HW261964   3.862   1.261   5.384
86709SOL     OW61965  13.879   1.848   2.490
86709SOL    HW161966  13.879   1.847   2.394
86709SOL    HW261967  13.835   1.930   2.513
86710SOL     OW61968   1.965  14.524   6.024
86710SOL    HW161969   2.016  14.548   6.102
86710SOL    HW261970   2.020  14.459   5.980
86711SOL     OW61971   3.734  10.439   9.784
86711SOL    HW161972   3.701  10.528   9.773
86711SOL    HW261973   3.802  10.447   9.851
86712SOL     OW61974  11.156   0.504   4.759
86712SOL    HW161975  11.087   0.446   4.728
86712SOL    HW261976  11.231   0.446   4.775
86713SOL     OW61977   7.993   5.478  10.190
86713SOL    HW161978   8.050   5.416  10.236
86713SOL    HW261979   7.979   5.549  10.253
86714SOL     OW61980  12.069   9.166  13.025
86714SOL    HW161981  12.085   9.084  13.072
86714SOL    HW261982  12.145   9.221  13.046
86715SOL     OW61983  13.786  10.735   0.726
86715SOL    HW161984  13.822  10.720   0.814
86715SOL    HW261985  13.831  10.812   0.694
86716SOL     OW61986   9.041  12.953   9.086
86716SOL    HW161987   9.092  12.924   9.161
86716SOL    HW261988   8.953  12.967   9.121
86717SOL     OW61989   9.413   7.921   7.969
86717SOL    HW161990   9.452   7.909   7.882
86717SOL    HW261991   9.332   7.869   7.966
86718SOL     OW61992   2.753   1.189   9.874
86718SOL    HW161993   2.797   1.246   9.937
86718SOL    HW261994   2.745   1.105   9.919
86719SOL     OW61995   5.501   8.356   4.032
86719SOL    HW161996   5.550   8.275   4.046
86719SOL    HW261997   5.421   8.328   3.987
86720SOL     OW61998   7.107  14.406  13.950
86720SOL    HW161999   7.199  14.380  13.944
86720SOL    HW262000   7.096  14.433  14.042
86721SOL     OW62001   8.869   2.510   2.433
86721SOL    HW162002   8.790   2.459   2.416
86721SOL    HW262003   8.919   2.457   2.495
86722SOL     OW62004   8.604  11.357   2.822
86722SOL    HW162005   8.574  11.370   2.732
86722SOL    HW262006   8.525  11.336   2.871
86723SOL     OW62007   2.377  12.747  11.458
86723SOL    HW162008   2.362  12.794  11.540
86723SOL    HW262009   2.294  12.702  11.440
86724SOL     OW62010  10.319  10.304   6.832
86724SOL    HW162011  10.372  10.232   6.799
86724SOL    HW262012  10.382  10.367   6.865
86725SOL     OW62013   5.580   4.805  10.250
86725SOL    HW162014   5.567   4.814  10.156
86725SOL    HW262015   5.501   4.844  10.288
86726SOL     OW62016   7.923  14.688   4.259
86726SOL    HW162017   8.001  14.636   4.279
86726SOL    HW262018   7.873  14.689   4.340
86727SOL     OW62019  13.585   4.637   6.184
86727SOL    HW162020  13.590   4.571   6.115
86727SOL    HW262021  13.674   4.644   6.218
86728SOL     OW62022   7.242   4.581   6.674
86728SOL    HW162023   7.227   4.488   6.661
86728SOL    HW262024   7.232   4.594   6.769
86729SOL     OW62025   8.959   9.072  14.758
86729SOL    HW162026   8.903   9.138  14.717
86729SOL    HW262027   9.038   9.071  14.704
86730SOL     OW62028   7.176  10.381   5.709
86730SOL    HW162029   7.271  10.390   5.705
86730SOL    HW262030   7.160  10.326   5.786
86731SOL     OW62031   2.255   5.376  10.727
86731SOL    HW162032   2.196   5.311  10.766
86731SOL    HW262033   2.343   5.344  10.746
86732SOL     OW62034   1.943   9.460   6.029
86732SOL    HW162035   2.012   9.406   5.989
86732SOL    HW262036   1.900   9.401   6.090
86733SOL     OW62037   8.659  10.585   5.929
86733SOL    HW162038   8.723  10.515   5.944
86733SOL    HW262039   8.699  10.662   5.970
86734SOL     OW62040   3.753   4.003  11.396
86734SOL    HW162041   3.718   4.008  11.306
86734SOL    HW262042   3.742   4.091  11.431
86735SOL     OW62043   1.568   3.875   6.678
86735SOL    HW162044   1.642   3.845   6.625
86735SOL    HW262045   1.492   3.833   6.640
86736SOL     OW62046   0.521   2.497  10.317
86736SOL    HW162047   0.567   2.504  10.234
86736SOL    HW262048   0.491   2.586  10.335
86737SOL     OW62049  13.380   0.134   6.288
86737SOL    HW162050  13.425   0.050   6.279
86737SOL    HW262051  13.443   0.198   6.256
86738SOL     OW62052   8.262   6.814   7.287
86738SOL    HW162053   8.334   6.757   7.314
86738SOL    HW262054   8.304   6.898   7.266
86739SOL     OW62055  12.636   8.407   3.473
86739SOL    HW162056  12.598   8.492   3.450
86739SOL    HW262057  12.692   8.384   3.399
86740SOL     OW62058   0.538   5.624   2.071
86740SOL    HW162059   0.474   5.677   2.024
86740SOL    HW262060   0.612   5.617   2.011
86741SOL     OW62061  10.730   2.002   3.040
86741SOL    HW162062  10.679   2.074   3.077
86741SOL    HW262063  10.792   2.045   2.981
86742SOL     OW62064   4.911  12.141   3.550
86742SOL    HW162065   4.843  12.095   3.599
86742SOL    HW262066   4.988  12.084   3.556
86743SOL     OW62067   7.461   9.785   2.805
86743SOL    HW162068   7.457   9.691   2.824
86743SOL    HW262069   7.381   9.803   2.756
86744SOL     OW62070  13.731   6.003   7.890
86744SOL    HW162071  13.648   6.027   7.849
86744SOL    HW262072  13.707   5.974   7.978
86745SOL     OW62073  10.262   4.994   5.146
86745SOL    HW162074  10.331   4.999   5.213
86745SOL    HW262075  10.187   5.038   5.186
86746SOL     OW62076  13.818  10.077   7.826
86746SOL    HW162077  13.767  10.158   7.818
86746SOL    HW262078  13.883  10.096   7.893
86747SOL     OW62079   0.573  13.255  13.324
86747SOL    HW162080   0.502  13.238  13.262
86747SOL    HW262081   0.528  13.272  13.407
86748SOL     OW62082  13.713   2.623  11.526
86748SOL    HW162083  13.767   2.660  11.456
86748SOL    HW262084  13.747   2.662  11.606
86749SOL     OW62085   0.638  13.865   3.762
86749SOL    HW162086   0.651  13.891   3.671
86749SOL    HW262087   0.556  13.908   3.788
86750SOL     OW62088   6.292   4.868  14.085
86750SOL    HW162089   6.307   4.774  14.076
86750SOL    HW262090   6.270   4.899  13.997
86751SOL     OW62091   3.437   8.765   4.798
86751SOL    HW162092   3.458   8.673   4.781
86751SOL    HW262093   3.433   8.771   4.894
86752SOL     OW62094   1.334   5.932   4.114
86752SOL    HW162095   1.298   5.954   4.200
86752SOL    HW262096   1.346   6.017   4.071
86753SOL     OW62097  11.827   2.717   0.629
86753SOL    HW162098  11.792   2.641   0.674
86753SOL    HW262099  11.797   2.792   0.681
86754SOL     OW62100  12.288   8.358   0.723
86754SOL    HW162101  12.294   8.285   0.784
86754SOL    HW262102  12.286   8.436   0.778
86755SOL     OW62103   4.773   0.838   3.406
86755SOL    HW162104   4.766   0.898   3.332
86755SOL    HW262105   4.775   0.894   3.483
86756SOL     OW62106  14.416  13.040   4.705
86756SOL    HW162107  14.448  12.997   4.785
86756SOL    HW262108  14.420  13.133   4.725
86757SOL     OW62109  11.455  12.486   8.362
86757SOL    HW162110  11.412  12.492   8.447
86757SOL    HW262111  11.502  12.569   8.353
86758SOL     OW62112  13.709   7.098   0.161
86758SOL    HW162113  13.773   7.078   0.228
86758SOL    HW262114  13.759   7.145   0.094
86759SOL     OW62115   5.913   9.716   2.178
86759SOL    HW162116   5.827   9.757   2.183
86759SOL    HW262117   5.960   9.748   2.255
86760SOL     OW62118   1.725   3.571   6.296
86760SOL    HW162119   1.798   3.515   6.271
86760SOL    HW262120   1.655   3.511   6.321
86761SOL     OW62121   4.755  12.690   9.609
86761SOL    HW162122   4.834  12.669   9.657
86761SOL    HW262123   4.719  12.766   9.655
86762SOL     OW62124  12.052  14.299  14.387
86762SOL    HW162125  12.133  14.329  14.427
86762SOL    HW262126  12.024  14.225  14.441
86763SOL     OW62127   3.916   5.726   8.072
86763SOL    HW162128   3.882   5.725   8.162
86763SOL    HW262129   4.010   5.741   8.082
86764SOL     OW62130   6.503   7.258  14.001
86764SOL    HW162131   6.520   7.326  13.936
86764SOL    HW262132   6.423   7.215  13.971
86765SOL     OW62133   5.077  13.048   5.978
86765SOL    HW162134   5.030  12.991   6.040
86765SOL    HW262135   5.135  12.989   5.930
86766SOL     OW62136  10.851   3.340  10.880
86766SOL    HW162137  10.892   3.302  10.958
86766SOL    HW262138  10.864   3.434  10.889
86767SOL     OW62139  14.514   2.869  14.547
86767SOL    HW162140  14.562   2.871  14.630
86767SOL    HW262141  14.423   2.883  14.571
86768SOL     OW62142  10.688  13.831  11.975
86768SOL    HW162143  10.703  13.905  11.917
86768SOL    HW262144  10.725  13.858  12.059
86769SOL     OW62145   3.862  10.792   9.056
86769SOL    HW162146   3.906  10.827   9.134
86769SOL    HW262147   3.920  10.813   8.984
86770SOL     OW62148   5.101   0.464   7.454
86770SOL    HW162149   5.027   0.497   7.505
86770SOL    HW262150   5.061   0.425   7.377
86771SOL     OW62151  11.984  10.830   3.040
86771SOL    HW162152  12.069  10.858   3.005
86771SOL    HW262153  11.977  10.876   3.124
86772SOL     OW62154  14.193   8.162  11.163
86772SOL    HW162155  14.210   8.205  11.079
86772SOL    HW262156  14.280   8.139  11.196
86773SOL     OW62157   3.783  11.529   7.457
86773SOL    HW162158   3.874  11.507   7.479
86773SOL    HW262159   3.731  11.457   7.494
86774SOL     OW62160   3.948  11.510   1.569
86774SOL    HW162161   3.930  11.417   1.582
86774SOL    HW262162   3.868  11.554   1.597
86775SOL     OW62163   3.367   4.695   8.410
86775SOL    HW162164   3.451   4.664   8.445
86775SOL    HW262165   3.387   4.778   8.368
86776SOL     OW62166  12.155   7.567   2.115
86776SOL    HW162167  12.073   7.611   2.136
86776SOL    HW262168  12.139   7.475   2.135
86777SOL     OW62169   2.511   8.644  10.214
86777SOL    HW162170   2.570   8.699  10.265
86777SOL    HW262171   2.515   8.558  10.256
86778SOL     OW62172  13.536   7.331   2.865
86778SOL    HW162173  13.532   7.425   2.881
86778SOL    HW262174  13.479   7.293   2.932
86779SOL     OW62175   5.808  14.186   0.000
86779SOL    HW162176   5.799  14.115   0.064
86779SOL    HW262177   5.730  14.181  14.820
86780SOL     OW62178   9.182   6.451  12.983
86780SOL    HW162179   9.153   6.473  13.071
86780SOL    HW262180   9.129   6.374  12.959
86781SOL     OW62181   2.521   5.539   2.557
86781SOL    HW162182   2.468   5.618   2.570
86781SOL    HW262183   2.553   5.517   2.644
86782SOL     OW62184  14.552  13.499   0.337
86782SOL    HW162185  14.464  13.465   0.353
86782SOL    HW262186  14.539  13.591   0.314
86783SOL     OW62187   0.406   2.783   2.254
86783SOL    HW162188   0.376   2.692   2.256
86783SOL    HW262189   0.353   2.826   2.321
86784SOL     OW62190  14.154   6.170   8.918
86784SOL    HW162191  14.104   6.099   8.958
86784SOL    HW262192  14.133   6.166   8.825
86785SOL     OW62193   3.922   2.927   1.813
86785SOL    HW162194   3.854   2.859   1.811
86785SOL    HW262195   3.878   3.003   1.851
86786SOL     OW62196  13.612  14.099   6.385
86786SOL    HW162197  13.649  14.164   6.444
86786SOL    HW262198  13.569  14.151   6.316
86787SOL     OW62199  10.111   1.314   6.652
86787SOL    HW162200  10.116   1.224   6.618
86787SOL    HW262201  10.152   1.309   6.738
86788SOL     OW62202   8.818   5.961   1.689
86788SOL    HW162203   8.911   5.940   1.694
86788SOL    HW262204   8.775   5.876   1.674
86789SOL     OW62205  12.875  11.145   7.283
86789SOL    HW162206  12.876  11.051   7.303
86789SOL    HW262207  12.892  11.149   7.188
86790SOL     OW62208  10.679   9.343   4.240
86790SOL    HW162209  10.768   9.311   4.257
86790SOL    HW262210  10.627   9.313   4.314
86791SOL     OW62211   0.806   5.251   5.569
86791SOL    HW162212   0.857   5.237   5.649
86791SOL    HW262213   0.848   5.326   5.527
86792SOL     OW62214   0.532   7.260   6.068
86792SOL    HW162215   0.602   7.208   6.029
86792SOL    HW262216   0.564   7.351   6.064
86793SOL     OW62217   6.629   8.945   1.913
86793SOL    HW162218   6.677   8.884   1.968
86793SOL    HW262219   6.538   8.915   1.915
86794SOL     OW62220  13.912   1.958   5.980
86794SOL    HW162221  13.891   1.949   6.073
86794SOL    HW262222  13.829   1.939   5.936
86795SOL     OW62223  13.989  11.097   7.079
86795SOL    HW162224  14.070  11.060   7.043
86795SOL    HW262225  13.922  11.032   7.058
86796SOL     OW62226  13.577   7.874  13.882
86796SOL    HW162227  13.502   7.931  13.862
86796SOL    HW262228  13.648   7.909  13.829
86797SOL     OW62229   5.690   2.245   8.574
86797SOL    HW162230   5.762   2.233   8.512
86797SOL    HW262231   5.616   2.201   8.533
86798SOL     OW62232   6.526   7.443  13.091
86798SOL    HW162233   6.609   7.396  13.085
86798SOL    HW262234   6.539   7.522  13.039
86799SOL     OW62235   4.152  13.621  14.529
86799SOL    HW162236   4.162  13.668  14.612
86799SOL    HW262237   4.208  13.544  14.538
86800SOL     OW62238   5.364  10.245   4.918
86800SOL    HW162239   5.375  10.151   4.933
86800SOL    HW262240   5.292  10.270   4.977
86801SOL     OW62241   5.002   9.726   3.058
86801SOL    HW162242   4.985   9.677   3.139
86801SOL    HW262243   5.095   9.709   3.040
86802SOL     OW62244  13.350   5.001  14.630
86802SOL    HW162245  13.355   4.973  14.539
86802SOL    HW262246  13.282   5.068  14.631
86803SOL     OW62247  11.609  14.523   1.152
86803SOL    HW162248  11.586  14.547   1.241
86803SOL    HW262249  11.586  14.430   1.145
86804SOL     OW62250   0.950   6.166  13.042
86804SOL    HW162251   0.953   6.259  13.018
86804SOL    HW262252   0.859   6.140  13.025
86805SOL     OW62253   2.665   4.033  14.748
86805SOL    HW162254   2.668   4.012  14.841
86805SOL    HW262255   2.582   3.995  14.718
86806SOL     OW62256   5.857   9.051   2.918
86806SOL    HW162257   5.907   8.979   2.880
86806SOL    HW262258   5.924   9.116   2.942
86807SOL     OW62259   8.464  13.266  13.654
86807SOL    HW162260   8.534  13.252  13.591
86807SOL    HW262261   8.384  13.246  13.606
86808SOL     OW62262   2.643  10.732   7.549
86808SOL    HW162263   2.669  10.651   7.506
86808SOL    HW262264   2.723  10.785   7.553
86809SOL     OW62265   0.330   3.245   2.964
86809SOL    HW162266   0.343   3.290   2.881
86809SOL    HW262267   0.246   3.199   2.954
86810SOL     OW62268   3.736   9.413   0.378
86810SOL    HW162269   3.738   9.465   0.298
86810SOL    HW262270   3.665   9.451   0.429
86811SOL     OW62271  11.814   5.448   8.612
86811SOL    HW162272  11.762   5.389   8.667
86811SOL    HW262273  11.867   5.498   8.673
86812SOL     OW62274   5.576  12.815   5.813
86812SOL    HW162275   5.604  12.737   5.861
86812SOL    HW262276   5.495  12.789   5.770
86813SOL     OW62277  12.748   9.516   1.959
86813SOL    HW162278  12.839   9.508   1.987
86813SOL    HW262279  12.697   9.504   2.040
86814SOL     OW62280   7.030   7.556  13.929
86814SOL    HW162281   7.082   7.505  13.992
86814SOL    HW262282   7.071   7.539  13.845
86815SOL     OW62283   6.971   0.493   3.999
86815SOL    HW162284   6.972   0.416   4.055
86815SOL    HW262285   7.063   0.517   3.989
86816SOL     OW62286   2.924  10.875   5.932
86816SOL    HW162287   2.992  10.929   5.972
86816SOL    HW262288   2.915  10.910   5.843
86817SOL     OW62289   6.090  13.444  10.604
86817SOL    HW162290   6.093  13.366  10.548
86817SOL    HW262291   5.997  13.463  10.614
86818SOL     OW62292   2.146  14.305  13.013
86818SOL    HW162293   2.140  14.227  12.958
86818SOL    HW262294   2.075  14.361  12.981
86819SOL     OW62295  11.502   9.740  11.444
86819SOL    HW162296  11.555   9.820  11.448
86819SOL    HW262297  11.511   9.701  11.531
86820SOL     OW62298   6.200   2.179  11.100
86820SOL    HW162299   6.197   2.097  11.151
86820SOL    HW262300   6.274   2.167  11.041
86821SOL     OW62301   8.016   4.517   2.462
86821SOL    HW162302   8.080   4.504   2.532
86821SOL    HW262303   8.037   4.450   2.397
86822SOL     OW62304  12.766   7.480  11.262
86822SOL    HW162305  12.750   7.456  11.353
86822SOL    HW262306  12.853   7.444  11.243
86823SOL     OW62307   9.957   8.736  13.316
86823SOL    HW162308   9.882   8.677  13.319
86823SOL    HW262309  10.008   8.707  13.241
86824SOL     OW62310   3.188   0.811   5.152
86824SOL    HW162311   3.233   0.763   5.083
86824SOL    HW262312   3.249   0.813   5.225
86825SOL     OW62313  12.879   3.591   0.973
86825SOL    HW162314  12.896   3.615   0.882
86825SOL    HW262315  12.871   3.675   1.019
86826SOL     OW62316   1.126   8.727   7.713
86826SOL    HW162317   1.070   8.752   7.786
86826SOL    HW262318   1.207   8.697   7.754
86827SOL     OW62319   2.561  13.925   3.965
86827SOL    HW162320   2.537  13.839   3.931
86827SOL    HW262321   2.497  13.984   3.927
86828SOL     OW62322  13.308   1.343   4.556
86828SOL    HW162323  13.273   1.273   4.612
86828SOL    HW262324  13.403   1.338   4.568
86829SOL     OW62325  11.766   4.669   4.770
86829SOL    HW162326  11.788   4.739   4.832
86829SOL    HW262327  11.790   4.705   4.684
86830SOL     OW62328  10.072   5.602  10.483
86830SOL    HW162329  10.129   5.589  10.559
86830SOL    HW262330  10.123   5.567  10.410
86831SOL     OW62331   6.512   3.807   8.682
86831SOL    HW162332   6.596   3.799   8.636
86831SOL    HW262333   6.526   3.760   8.765
86832SOL     OW62334  13.733   1.357   3.134
86832SOL    HW162335  13.759   1.377   3.044
86832SOL    HW262336  13.723   1.262   3.136
86833SOL     OW62337   3.055   8.380   3.030
86833SOL    HW162338   3.067   8.285   3.041
86833SOL    HW262339   3.133   8.419   3.067
86834SOL     OW62340   4.745  10.907  11.959
86834SOL    HW162341   4.676  10.859  12.004
86834SOL    HW262342   4.701  10.982  11.920
86835SOL     OW62343  10.805  14.215   2.675
86835SOL    HW162344  10.714  14.200   2.699
86835SOL    HW262345  10.801  14.246   2.584
86836SOL     OW62346   2.009   7.046   3.359
86836SOL    HW162347   2.068   7.067   3.432
86836SOL    HW262348   1.957   7.125   3.345
86837SOL     OW62349  14.446   6.108   5.936
86837SOL    HW162350  14.383   6.105   6.008
86837SOL    HW262351  14.494   6.025   5.943
86838SOL     OW62352   4.368  12.157   2.292
86838SOL    HW162353   4.329  12.216   2.356
86838SOL    HW262354   4.448  12.126   2.334
86839SOL     OW62355   0.919   6.358  12.297
86839SOL    HW162356   0.940   6.450  12.280
86839SOL    HW262357   0.991   6.309  12.256
86840SOL     OW62358   8.947  14.807  14.534
86840SOL    HW162359   8.950  14.828  14.441
86840SOL    HW262360   8.897  14.725  14.537
86841SOL     OW62361   5.428   7.676   0.875
86841SOL    HW162362   5.390   7.603   0.826
86841SOL    HW262363   5.517   7.683   0.842
86842SOL     OW62364   9.099   7.151   0.343
86842SOL    HW162365   9.078   7.068   0.301
86842SOL    HW262366   9.108   7.213   0.271
86843SOL     OW62367   1.052  10.868  13.891
86843SOL    HW162368   1.109  10.944  13.876
86843SOL    HW262369   1.070  10.843  13.982
86844SOL     OW62370  13.074  10.754  13.786
86844SOL    HW162371  13.099  10.676  13.737
86844SOL    HW262372  12.991  10.731  13.827
86845SOL     OW62373   9.601   6.961   7.069
86845SOL    HW162374   9.661   6.947   6.995
86845SOL    HW262375   9.647   7.024   7.125
86846SOL     OW62376   2.945   8.548   8.273
86846SOL    HW162377   2.851   8.531   8.275
86846SOL    HW262378   2.954   8.626   8.217
86847SOL     OW62379   2.131   0.178   4.098
86847SOL    HW162380   2.107   0.271   4.102
86847SOL    HW262381   2.226   0.179   4.086
86848SOL     OW62382  11.274   8.631  13.810
86848SOL    HW162383  11.265   8.669  13.722
86848SOL    HW262384  11.256   8.704  13.869
86849SOL     OW62385   7.519   8.155   7.389
86849SOL    HW162386   7.546   8.246   7.405
86849SOL    HW262387   7.590   8.117   7.339
86850SOL     OW62388  13.743   3.585   5.626
86850SOL    HW162389  13.809   3.515   5.624
86850SOL    HW262390  13.785   3.655   5.676
86851SOL     OW62391   1.021  10.616   6.280
86851SOL    HW162392   0.970  10.539   6.302
86851SOL    HW262393   0.981  10.650   6.200
86852SOL     OW62394   0.026  10.161   6.725
86852SOL    HW162395   0.109  10.123   6.695
86852SOL    HW262396   0.038  10.255   6.713
86853SOL     OW62397  12.476   1.095   9.835
86853SOL    HW162398  12.425   1.054   9.905
86853SOL    HW262399  12.556   1.124   9.878
86854SOL     OW62400   6.901   3.000   8.895
86854SOL    HW162401   6.850   2.967   8.822
86854SOL    HW262402   6.968   2.933   8.910
86855SOL     OW62403   8.372   6.389   4.290
86855SOL    HW162404   8.457   6.419   4.322
86855SOL    HW262405   8.319   6.469   4.283
86856SOL     OW62406   3.904   3.846  10.545
86856SOL    HW162407   3.847   3.843  10.621
86856SOL    HW262408   3.902   3.937  10.517
86857SOL     OW62409   8.981   9.325   0.853
86857SOL    HW162410   8.970   9.333   0.759
86857SOL    HW262411   9.063   9.370   0.872
86858SOL     OW62412   1.469  12.266  10.901
86858SOL    HW162413   1.552  12.223  10.884
86858SOL    HW262414   1.412  12.197  10.935
86859SOL     OW62415   6.563   4.349   2.393
86859SOL    HW162416   6.645   4.397   2.386
86859SOL    HW262417   6.527   4.350   2.304
86860SOL     OW62418   0.591  10.414   8.807
86860SOL    HW162419   0.591  10.329   8.852
86860SOL    HW262420   0.504  10.450   8.825
86861SOL     OW62421  13.096   0.559   0.785
86861SOL    HW162422  13.173   0.614   0.801
86861SOL    HW262423  13.040   0.574   0.861
86862SOL     OW62424   0.596   8.704  12.921
86862SOL    HW162425   0.626   8.636  12.982
86862SOL    HW262426   0.626   8.674  12.835
86863SOL     OW62427   1.246   7.841   4.117
86863SOL    HW162428   1.189   7.781   4.166
86863SOL    HW262429   1.271   7.792   4.039
86864SOL     OW62430   4.254   0.664   4.012
86864SOL    HW162431   4.191   0.596   3.988
86864SOL    HW262432   4.321   0.619   4.063
86865SOL     OW62433  13.605   9.645  14.853
86865SOL    HW162434  13.542   9.717  14.853
86865SOL    HW262435  13.618   9.625   0.072
86866SOL     OW62436   2.250   0.078   6.710
86866SOL    HW162437   2.186   0.022   6.754
86866SOL    HW262438   2.244   0.054   6.618
86867SOL     OW62439   3.879  14.498   4.340
86867SOL    HW162440   3.857  14.561   4.409
86867SOL    HW262441   3.969  14.518   4.317
86868SOL     OW62442   2.539  10.919   7.934
86868SOL    HW162443   2.466  10.945   7.878
86868SOL    HW262444   2.616  10.928   7.877
86869SOL     OW62445  10.473  12.482  14.263
86869SOL    HW162446  10.480  12.507  14.171
86869SOL    HW262447  10.559  12.444  14.284
86870SOL     OW62448   0.750   4.895   2.451
86870SOL    HW162449   0.802   4.970   2.481
86870SOL    HW262450   0.744   4.837   2.527
86871SOL     OW62451  10.261   2.531   2.097
86871SOL    HW162452  10.182   2.585   2.099
86871SOL    HW262453  10.318   2.571   2.163
86872SOL     OW62454   5.746   3.558   6.066
86872SOL    HW162455   5.841   3.569   6.072
86872SOL    HW262456   5.734   3.463   6.059
86873SOL     OW62457   6.259   6.595   8.036
86873SOL    HW162458   6.236   6.655   7.965
86873SOL    HW262459   6.346   6.563   8.012
86874SOL     OW62460  10.725  11.261   2.752
86874SOL    HW162461  10.809  11.267   2.798
86874SOL    HW262462  10.747  11.279   2.660
86875SOL     OW62463   9.934   7.733  13.627
86875SOL    HW162464   9.927   7.818  13.584
86875SOL    HW262465   9.988   7.680  13.569
86876SOL     OW62466   4.502  11.160  10.673
86876SOL    HW162467   4.592  11.141  10.702
86876SOL    HW262468   4.448  11.136  10.748
86877SOL     OW62469   0.644   8.255  11.506
86877SOL    HW162470   0.571   8.311  11.532
86877SOL    HW262471   0.721   8.310  11.518
86878SOL     OW62472   3.357   3.131   7.180
86878SOL    HW162473   3.264   3.153   7.191
86878SOL    HW262474   3.403   3.210   7.209
86879SOL     OW62475   8.073   2.058   7.767
86879SOL    HW162476   8.136   1.992   7.739
86879SOL    HW262477   7.988   2.015   7.760
86880SOL     OW62478   0.938   4.418   5.636
86880SOL    HW162479   0.866   4.464   5.680
86880SOL    HW262480   0.995   4.389   5.707
86881SOL     OW62481   6.002   4.849   5.650
86881SOL    HW162482   5.953   4.927   5.675
86881SOL    HW262483   6.064   4.879   5.583
86882SOL     OW62484  11.849  11.423   5.429
86882SOL    HW162485  11.881  11.410   5.519
86882SOL    HW262486  11.858  11.516   5.413
86883SOL     OW62487  13.724   2.390  13.051
86883SOL    HW162488  13.662   2.398  13.123
86883SOL    HW262489  13.678   2.427  12.975
86884SOL     OW62490   0.548  11.361  11.647
86884SOL    HW162491   0.573  11.432  11.706
86884SOL    HW262492   0.517  11.292  11.706
86885SOL     OW62493  10.780  14.038  11.819
86885SOL    HW162494  10.774  14.133  11.830
86885SOL    HW262495  10.837  14.026  11.743
86886SOL     OW62496  14.832   2.725  14.238
86886SOL    HW162497  14.747   2.727  14.193
86886SOL    HW262498   0.021   2.706  14.168
86887SOL     OW62499   0.062  10.129  14.751
86887SOL    HW162500   0.024  10.203  14.799
86887SOL    HW262501   0.091  10.068  14.820
86888SOL     OW62502  12.775   3.409   7.443
86888SOL    HW162503  12.859   3.414   7.490
86888SOL    HW262504  12.727   3.340   7.489
86889SOL     OW62505   5.880  11.059   2.868
86889SOL    HW162506   5.913  11.125   2.807
86889SOL    HW262507   5.931  10.981   2.848
86890SOL     OW62508  14.401   8.424   4.540
86890SOL    HW162509  14.324   8.476   4.564
86890SOL    HW262510  14.366   8.341   4.508
86891SOL     OW62511   2.253  13.910   6.186
86891SOL    HW162512   2.312  13.905   6.262
86891SOL    HW262513   2.246  14.004   6.168
86892SOL     OW62514   2.724   8.378   1.091
86892SOL    HW162515   2.806   8.358   1.135
86892SOL    HW262516   2.714   8.309   1.026
86893SOL     OW62517   4.685   9.847  11.059
86893SOL    HW162518   4.717   9.759  11.077
86893SOL    HW262519   4.729   9.903  11.123
86894SOL     OW62520   6.762   1.080   0.185
86894SOL    HW162521   6.704   1.135   0.237
86894SOL    HW262522   6.837   1.137   0.164
86895SOL     OW62523   7.992  14.741   8.966
86895SOL    HW162524   7.946  14.806   8.912
86895SOL    HW262525   8.027  14.679   8.902
86896SOL     OW62526   0.379   1.058  14.127
86896SOL    HW162527   0.339   1.140  14.154
86896SOL    HW262528   0.383   1.005  14.207
86897SOL     OW62529   2.655   9.791  11.180
86897SOL    HW162530   2.627   9.853  11.113
86897SOL    HW262531   2.746   9.816  11.199
86898SOL     OW62532   8.819  11.091   6.614
86898SOL    HW162533   8.804  11.021   6.550
86898SOL    HW262534   8.871  11.156   6.568
86899SOL     OW62535   7.911   8.795   8.255
86899SOL    HW162536   7.887   8.728   8.191
86899SOL    HW262537   7.990   8.836   8.219
86900SOL     OW62538  11.942   5.403  10.334
86900SOL    HW162539  11.901   5.406  10.421
86900SOL    HW262540  11.906   5.479  10.289
86901SOL     OW62541   2.124  13.113   8.269
86901SOL    HW162542   2.070  13.146   8.196
86901SOL    HW262543   2.165  13.034   8.234
86902SOL     OW62544   9.164  11.474  11.450
86902SOL    HW162545   9.155  11.542  11.382
86902SOL    HW262546   9.251  11.437  11.435
86903SOL     OW62547   2.549  11.918   1.248
86903SOL    HW162548   2.502  11.861   1.310
86903SOL    HW262549   2.515  11.893   1.162
86904SOL     OW62550   2.571   0.745   5.292
86904SOL    HW162551   2.558   0.806   5.219
86904SOL    HW262552   2.636   0.682   5.260
86905SOL     OW62553  10.730   7.383   3.882
86905SOL    HW162554  10.782   7.406   3.806
86905SOL    HW262555  10.779   7.417   3.957
86906SOL     OW62556   9.050   3.983  13.585
86906SOL    HW162557   9.017   3.901  13.549
86906SOL    HW262558   9.145   3.970  13.592
86907SOL     OW62559   8.693   7.063  11.763
86907SOL    HW162560   8.782   7.086  11.735
86907SOL    HW262561   8.636   7.122  11.713
86908SOL     OW62562   6.585   3.381   3.585
86908SOL    HW162563   6.673   3.413   3.604
86908SOL    HW262564   6.588   3.288   3.608
86909SOL     OW62565  13.713   0.142   2.893
86909SOL    HW162566  13.693   0.229   2.857
86909SOL    HW262567  13.776   0.158   2.962
86910SOL     OW62568   5.532  11.202   4.593
86910SOL    HW162569   5.517  11.239   4.506
86910SOL    HW262570   5.569  11.115   4.577
86911SOL     OW62571  14.024   9.456   4.930
86911SOL    HW162572  13.987   9.540   4.956
86911SOL    HW262573  14.110   9.477   4.893
86912SOL     OW62574   3.496   1.978   9.496
86912SOL    HW162575   3.588   1.973   9.471
86912SOL    HW262576   3.473   2.070   9.488
86913SOL     OW62577   0.358   3.370  11.376
86913SOL    HW162578   0.391   3.392  11.288
86913SOL    HW262579   0.426   3.401  11.435
86914SOL     OW62580   2.446  13.505   7.785
86914SOL    HW162581   2.424  13.597   7.797
86914SOL    HW262582   2.363  13.463   7.761
86915SOL     OW62583   9.436   1.937  14.308
86915SOL    HW162584   9.379   2.004  14.347
86915SOL    HW262585   9.392   1.912  14.227
86916SOL     OW62586   9.621   5.898   7.645
86916SOL    HW162587   9.612   5.928   7.555
86916SOL    HW262588   9.534   5.910   7.683
86917SOL     OW62589   8.264   2.138  13.391
86917SOL    HW162590   8.246   2.214  13.446
86917SOL    HW262591   8.329   2.088  13.440
86918SOL     OW62592   7.829  14.390   8.133
86918SOL    HW162593   7.783  14.429   8.208
86918SOL    HW262594   7.914  14.364   8.168
86919SOL     OW62595   7.477   2.735  14.152
86919SOL    HW162596   7.569   2.756  14.142
86919SOL    HW262597   7.443   2.732  14.063
86920SOL     OW62598   3.213   8.233   4.867
86920SOL    HW162599   3.226   8.182   4.787
86920SOL    HW262600   3.131   8.280   4.852
86921SOL     OW62601   7.414   3.547  10.115
86921SOL    HW162602   7.395   3.547  10.209
86921SOL    HW262603   7.355   3.481  10.078
86922SOL     OW62604   3.552   0.139   0.118
86922SOL    HW162605   3.573   0.066   0.176
86922SOL    HW262606   3.616   0.133   0.047
86923SOL     OW62607   4.613   5.226  11.831
86923SOL    HW162608   4.617   5.232  11.736
86923SOL    HW262609   4.647   5.310  11.862
86924SOL     OW62610   6.430  13.428  13.260
86924SOL    HW162611   6.453  13.438  13.352
86924SOL    HW262612   6.511  13.396  13.219
86925SOL     OW62613   9.342  14.259  14.640
86925SOL    HW162614   9.255  14.297  14.629
86925SOL    HW262615   9.327  14.168  14.665
86926SOL     OW62616  12.000   5.507   4.907
86926SOL    HW162617  11.959   5.594   4.913
86926SOL    HW262618  12.074   5.511   4.967
86927SOL     OW62619   7.217  12.870  14.537
86927SOL    HW162620   7.142  12.811  14.527
86927SOL    HW262621   7.180  12.957  14.527
86928SOL     OW62622   5.794  10.067   6.619
86928SOL    HW162623   5.853  10.025   6.557
86928SOL    HW262624   5.723  10.102   6.565
86929SOL     OW62625  11.599   4.533   4.987
86929SOL    HW162626  11.585   4.620   5.025
86929SOL    HW262627  11.669   4.544   4.924
86930SOL     OW62628  12.738  11.677   8.038
86930SOL    HW162629  12.704  11.619   7.971
86930SOL    HW262630  12.704  11.764   8.014
86931SOL     OW62631  11.870  14.514   6.251
86931SOL    HW162632  11.938  14.552   6.307
86931SOL    HW262633  11.805  14.583   6.243
86932SOL     OW62634  12.798  13.051   7.453
86932SOL    HW162635  12.831  13.026   7.539
86932SOL    HW262636  12.703  13.059   7.464
86933SOL     OW62637   5.997   7.495   2.442
86933SOL    HW162638   5.929   7.460   2.499
86933SOL    HW262639   5.952   7.563   2.391
86934SOL     OW62640   8.861  11.178   0.449
86934SOL    HW162641   8.806  11.120   0.502
86934SOL    HW262642   8.881  11.252   0.507
86935SOL     OW62643   1.016  11.696   7.066
86935SOL    HW162644   1.065  11.773   7.094
86935SOL    HW262645   1.083  11.636   7.034
86936SOL     OW62646   3.257   6.322   6.933
86936SOL    HW162647   3.266   6.257   7.002
86936SOL    HW262648   3.183   6.377   6.960
86937SOL     OW62649   9.971   4.885  14.665
86937SOL    HW162650   9.902   4.951  14.677
86937SOL    HW262651  10.053   4.932  14.678
86938SOL     OW62652   0.206   8.422  11.734
86938SOL    HW162653   0.248   8.483  11.795
86938SOL    HW262654   0.113   8.443  11.740
86939SOL     OW62655   8.603   3.858  12.501
86939SOL    HW162656   8.553   3.844  12.581
86939SOL    HW262657   8.581   3.948  12.474
86940SOL     OW62658   9.482  10.599  13.435
86940SOL    HW162659   9.528  10.683  13.441
86940SOL    HW262660   9.497  10.557  13.520
86941SOL     OW62661   0.571  11.011   2.593
86941SOL    HW162662   0.656  11.025   2.552
86941SOL    HW262663   0.578  11.056   2.678
86942SOL     OW62664   7.673  13.087  12.307
86942SOL    HW162665   7.584  13.053  12.320
86942SOL    HW262666   7.716  13.075  12.392
86943SOL     OW62667  13.824  14.224   7.430
86943SOL    HW162668  13.828  14.132   7.454
86943SOL    HW262669  13.915  14.251   7.422
86944SOL     OW62670   8.831   0.587  10.750
86944SOL    HW162671   8.842   0.667  10.699
86944SOL    HW262672   8.860   0.611  10.838
86945SOL     OW62673   9.191   6.391   2.779
86945SOL    HW162674   9.097   6.377   2.791
86945SOL    HW262675   9.228   6.379   2.867
86946SOL     OW62676   3.522   1.654   3.054
86946SOL    HW162677   3.527   1.624   2.964
86946SOL    HW262678   3.538   1.749   3.049
86947SOL     OW62679  13.213   2.323   0.064
86947SOL    HW162680  13.282   2.351   0.004
86947SOL    HW262681  13.197   2.398   0.120
86948SOL     OW62682   5.621   2.851   1.328
86948SOL    HW162683   5.555   2.904   1.283
86948SOL    HW262684   5.704   2.891   1.302
86949SOL     OW62685  13.261   9.935   0.946
86949SOL    HW162686  13.198   9.960   0.879
86949SOL    HW262687  13.214   9.872   1.001
86950SOL     OW62688   9.307   3.830   0.648
86950SOL    HW162689   9.217   3.859   0.635
86950SOL    HW262690   9.354   3.908   0.678
86951SOL     OW62691   4.433  12.526   7.550
86951SOL    HW162692   4.370  12.504   7.618
86951SOL    HW262693   4.380  12.531   7.470
86952SOL     OW62694   6.210  13.939   5.763
86952SOL    HW162695   6.242  13.849   5.758
86952SOL    HW262696   6.227  13.965   5.854
86953SOL     OW62697   3.285   7.866   2.881
86953SOL    HW162698   3.361   7.900   2.928
86953SOL    HW262699   3.261   7.936   2.820
86954SOL     OW62700   1.027   8.890  11.429
86954SOL    HW162701   0.980   8.871  11.348
86954SOL    HW262702   1.046   8.983  11.425
86955SOL     OW62703   0.632   0.686   8.058
86955SOL    HW162704   0.608   0.778   8.055
86955SOL    HW262705   0.549   0.639   8.053
86956SOL     OW62706  10.691   6.196   7.423
86956SOL    HW162707  10.701   6.143   7.344
86956SOL    HW262708  10.606   6.238   7.412
86957SOL     OW62709   9.315   5.694  12.751
86957SOL    HW162710   9.243   5.638  12.781
86957SOL    HW262711   9.376   5.634  12.708
86958SOL     OW62712   4.398   2.210  11.120
86958SOL    HW162713   4.473   2.268  11.107
86958SOL    HW262714   4.350   2.249  11.193
86959SOL     OW62715   7.432  10.632   0.643
86959SOL    HW162716   7.388  10.574   0.705
86959SOL    HW262717   7.364  10.653   0.578
86960SOL     OW62718   0.186   8.522  10.554
86960SOL    HW162719   0.199   8.573  10.473
86960SOL    HW262720   0.258   8.549  10.611
86961SOL     OW62721   0.445   6.565  14.186
86961SOL    HW162722   0.395   6.643  14.164
86961SOL    HW262723   0.380   6.504  14.222
86962SOL     OW62724   4.558  12.128   9.039
86962SOL    HW162725   4.501  12.075   9.094
86962SOL    HW262726   4.606  12.183   9.100
86963SOL     OW62727   9.981  14.418  10.729
86963SOL    HW162728   9.962  14.496  10.677
86963SOL    HW262729   9.934  14.431  10.811
86964SOL     OW62730   2.304  13.725   3.035
86964SOL    HW162731   2.240  13.746   2.968
86964SOL    HW262732   2.359  13.803   3.041
86965SOL     OW62733  14.325   0.312   9.452
86965SOL    HW162734  14.230   0.321   9.454
86965SOL    HW262735  14.340   0.219   9.436
86966SOL     OW62736  13.042   6.387   7.392
86966SOL    HW162737  12.961   6.340   7.412
86966SOL    HW262738  13.093   6.325   7.340
86967SOL     OW62739   0.832  10.363   4.530
86967SOL    HW162740   0.845  10.413   4.611
86967SOL    HW262741   0.916  10.321   4.514
86968SOL     OW62742   5.335   8.713   6.180
86968SOL    HW162743   5.430   8.708   6.163
86968SOL    HW262744   5.318   8.806   6.193
86969SOL     OW62745   3.722   9.188   9.436
86969SOL    HW162746   3.717   9.159   9.527
86969SOL    HW262747   3.771   9.270   9.439
86970SOL     OW62748   7.860   4.752  10.435
86970SOL    HW162749   7.776   4.708  10.425
86970SOL    HW262750   7.837   4.842  10.457
86971SOL     OW62751   8.123  10.191   5.598
86971SOL    HW162752   8.194  10.246   5.564
86971SOL    HW262753   8.111  10.124   5.530
86972SOL     OW62754  12.643  12.709   8.693
86972SOL    HW162755  12.600  12.693   8.776
86972SOL    HW262756  12.581  12.762   8.643
86973SOL     OW62757   6.456  10.864   7.332
86973SOL    HW162758   6.374  10.890   7.376
86973SOL    HW262759   6.504  10.946   7.323
86974SOL     OW62760   3.111  13.188  11.236
86974SOL    HW162761   3.204  13.164  11.237
86974SOL    HW262762   3.066  13.110  11.269
86975SOL     OW62763   4.739  14.291  14.139
86975SOL    HW162764   4.693  14.245  14.210
86975SOL    HW262765   4.669  14.333  14.089
86976SOL     OW62766  11.102   0.897   1.880
86976SOL    HW162767  11.189   0.872   1.912
86976SOL    HW262768  11.057   0.814   1.865
86977SOL     OW62769   2.381  12.143  12.454
86977SOL    HW162770   2.333  12.225  12.466
86977SOL    HW262771   2.360  12.092  12.532
86978SOL     OW62772  10.527  12.630  10.807
86978SOL    HW162773  10.445  12.611  10.762
86978SOL    HW262774  10.500  12.674  10.888
86979SOL     OW62775  12.243   2.528   7.780
86979SOL    HW162776  12.301   2.521   7.704
86979SOL    HW262777  12.291   2.584   7.841
86980SOL     OW62778  11.707   0.037   1.576
86980SOL    HW162779  11.750   0.105   1.525
86980SOL    HW262780  11.774   0.009   1.639
86981SOL     OW62781   2.542  11.345  10.250
86981SOL    HW162782   2.615  11.312  10.302
86981SOL    HW262783   2.580  11.410  10.191
86982SOL     OW62784  11.155   4.223  12.265
86982SOL    HW162785  11.170   4.316  12.282
86982SOL    HW262786  11.182   4.180  12.346
86983SOL     OW62787  12.071  13.153   8.425
86983SOL    HW162788  12.084  13.142   8.519
86983SOL    HW262789  12.098  13.069   8.387
86984SOL     OW62790  10.612   3.117   2.815
86984SOL    HW162791  10.531   3.119   2.763
86984SOL    HW262792  10.588   3.159   2.897
86985SOL     OW62793   7.354   1.784  12.998
86985SOL    HW162794   7.284   1.812  12.938
86985SOL    HW262795   7.412   1.732  12.944
86986SOL     OW62796   3.745   2.717   3.203
86986SOL    HW162797   3.744   2.633   3.249
86986SOL    HW262798   3.655   2.748   3.206
86987SOL     OW62799   3.957   1.514   8.759
86987SOL    HW162800   4.026   1.499   8.825
86987SOL    HW262801   3.883   1.461   8.789
86988SOL     OW62802  11.859  10.424   6.540
86988SOL    HW162803  11.789  10.364   6.515
86988SOL    HW262804  11.937  10.390   6.496
86989SOL     OW62805   4.728  12.366  10.169
86989SOL    HW162806   4.807  12.313  10.163
86989SOL    HW262807   4.747  12.431  10.236
86990SOL     OW62808   6.643  12.014   6.785
86990SOL    HW162809   6.669  11.923   6.796
86990SOL    HW262810   6.713  12.053   6.733
86991SOL     OW62811   2.015  12.451   2.627
86991SOL    HW162812   2.021  12.524   2.689
86991SOL    HW262813   1.986  12.492   2.545
86992SOL     OW62814  11.553   9.700   4.364
86992SOL    HW162815  11.603   9.659   4.294
86992SOL    HW262816  11.559   9.794   4.347
86993SOL     OW62817  13.433   1.702   3.026
86993SOL    HW162818  13.396   1.774   3.078
86993SOL    HW262819  13.486   1.653   3.088
86994SOL     OW62820  10.811   6.617  13.101
86994SOL    HW162821  10.719   6.642  13.096
86994SOL    HW262822  10.827   6.570  13.019
86995SOL     OW62823   2.033   5.906   6.610
86995SOL    HW162824   2.076   5.991   6.602
86995SOL    HW262825   2.016   5.880   6.519
86996SOL     OW62826   2.693  13.912   7.580
86996SOL    HW162827   2.755  13.930   7.509
86996SOL    HW262828   2.709  13.982   7.644
86997SOL     OW62829   9.810   5.734   6.711
86997SOL    HW162830   9.787   5.827   6.720
86997SOL    HW262831   9.833   5.724   6.618
86998SOL     OW62832   8.096  14.406   6.889
86998SOL    HW162833   8.030  14.471   6.910
86998SOL    HW262834   8.046  14.329   6.860
86999SOL     OW62835   6.758  11.414   3.507
86999SOL    HW162836   6.821  11.357   3.464
86999SOL    HW262837   6.716  11.462   3.436
87000SOL     OW62838   8.920   6.347   8.591
87000SOL    HW162839   8.872   6.403   8.531
87000SOL    HW262840   8.918   6.393   8.675
87001SOL     OW62841   8.386   3.049  11.288
87001SOL    HW162842   8.419   2.959  11.286
87001SOL    HW262843   8.373   3.068  11.381
87002SOL     OW62844   9.577   9.026  11.519
87002SOL    HW162845   9.504   9.028  11.581
87002SOL    HW262846   9.573   8.938  11.481
87003SOL     OW62847   1.505  13.966  11.325
87003SOL    HW162848   1.577  13.993  11.267
87003SOL    HW262849   1.548  13.915  11.393
87004SOL     OW62850   2.861   9.470  11.596
87004SOL    HW162851   2.823   9.496  11.680
87004SOL    HW262852   2.935   9.529  11.584
87005SOL     OW62853   8.869  12.594   2.651
87005SOL    HW162854   8.946  12.556   2.694
87005SOL    HW262855   8.878  12.568   2.560
87006SOL     OW62856   0.997  12.740  11.542
87006SOL    HW162857   0.917  12.790  11.560
87006SOL    HW262858   1.040  12.789  11.471
87007SOL     OW62859   6.531   8.694   2.455
87007SOL    HW162860   6.541   8.627   2.387
87007SOL    HW262861   6.451   8.670   2.500
87008SOL     OW62862   8.721  14.285   7.530
87008SOL    HW162863   8.676  14.356   7.577
87008SOL    HW262864   8.696  14.206   7.577
87009SOL     OW62865   0.245   5.594   0.816
87009SOL    HW162866   0.319   5.547   0.855
87009SOL    HW262867   0.168   5.558   0.859
87010SOL     OW62868  14.179  14.547   7.290
87010SOL    HW162869  14.113  14.490   7.250
87010SOL    HW262870  14.129  14.607   7.345
87011SOL     OW62871   2.100   3.048   0.152
87011SOL    HW162872   2.022   3.015   0.196
87011SOL    HW262873   2.067   3.109   0.086
87012SOL     OW62874   1.844   9.114   9.723
87012SOL    HW162875   1.939   9.118   9.736
87012SOL    HW262876   1.826   9.187   9.663
87013SOL     OW62877  13.830   8.600   5.154
87013SOL    HW162878  13.924   8.591   5.139
87013SOL    HW262879  13.808   8.685   5.117
87014SOL     OW62880  12.263   9.005   2.571
87014SOL    HW162881  12.287   8.912   2.569
87014SOL    HW262882  12.347   9.051   2.562
87015SOL     OW62883   5.304  11.315   5.045
87015SOL    HW162884   5.222  11.363   5.039
87015SOL    HW262885   5.308  11.285   5.136
87016SOL     OW62886  12.351   3.043   4.147
87016SOL    HW162887  12.388   3.048   4.236
87016SOL    HW262888  12.345   2.949   4.130
87017SOL     OW62889   2.603   3.615   9.839
87017SOL    HW162890   2.520   3.583   9.805
87017SOL    HW262891   2.624   3.557   9.912
87018SOL     OW62892   2.300   1.842   2.801
87018SOL    HW162893   2.373   1.838   2.738
87018SOL    HW262894   2.260   1.927   2.785
87019SOL     OW62895   0.456   7.088  10.184
87019SOL    HW162896   0.485   7.135  10.262
87019SOL    HW262897   0.423   7.156  10.125
87020SOL     OW62898   3.695   1.454   1.669
87020SOL    HW162899   3.742   1.371   1.678
87020SOL    HW262900   3.713   1.483   1.580
87021SOL     OW62901   1.984  14.711   7.726
87021SOL    HW162902   1.963  14.799   7.757
87021SOL    HW262903   2.076  14.699   7.749
87022SOL     OW62904  10.211  11.788   3.792
87022SOL    HW162905  10.171  11.747   3.868
87022SOL    HW262906  10.235  11.715   3.734
87023SOL     OW62907   8.229   7.473   9.342
87023SOL    HW162908   8.153   7.508   9.296
87023SOL    HW262909   8.296   7.541   9.335
87024SOL     OW62910   5.168  13.355   2.487
87024SOL    HW162911   5.248  13.398   2.456
87024SOL    HW262912   5.199  13.271   2.522
87025SOL     OW62913  10.650  13.982   8.864
87025SOL    HW162914  10.584  13.925   8.823
87025SOL    HW262915  10.601  14.040   8.920
87026SOL     OW62916   1.223   8.004   1.678
87026SOL    HW162917   1.242   8.009   1.585
87026SOL    HW262918   1.257   8.085   1.714
87027SOL     OW62919   1.495   6.021   6.951
87027SOL    HW162920   1.505   6.110   6.918
87027SOL    HW262921   1.407   6.019   6.988
87028SOL     OW62922  14.266   0.779   6.765
87028SOL    HW162923  14.265   0.722   6.841
87028SOL    HW262924  14.353   0.818   6.764
87029SOL     OW62925  14.745   6.013   5.669
87029SOL    HW162926  14.705   6.083   5.721
87029SOL    HW262927  14.787   6.058   5.596
87030SOL     OW62928   4.413   6.504  11.406
87030SOL    HW162929   4.442   6.541  11.489
87030SOL    HW262930   4.493   6.476  11.362
87031SOL     OW62931  10.404   6.491   0.761
87031SOL    HW162932  10.319   6.448   0.772
87031SOL    HW262933  10.425   6.480   0.668
87032SOL     OW62934   5.562   2.589   9.902
87032SOL    HW162935   5.609   2.637   9.970
87032SOL    HW262936   5.571   2.497   9.926
87033SOL     OW62937   0.403  14.787   0.462
87033SOL    HW162938   0.434   0.002   0.474
87033SOL    HW262939   0.389  14.754   0.551
87034SOL     OW62940   9.964  14.089   0.178
87034SOL    HW162941  10.032  14.144   0.217
87034SOL    HW262942   9.886  14.144   0.179
87035SOL     OW62943   0.762  12.557   0.450
87035SOL    HW162944   0.783  12.647   0.426
87035SOL    HW262945   0.770  12.508   0.369
87036SOL     OW62946   9.967   9.897   6.157
87036SOL    HW162947   9.906   9.830   6.125
87036SOL    HW262948   9.911   9.963   6.198
87037SOL     OW62949   7.287   1.995   5.391
87037SOL    HW162950   7.336   2.077   5.380
87037SOL    HW262951   7.277   1.961   5.302
87038SOL     OW62952   3.523  10.552   7.582
87038SOL    HW162953   3.618  10.561   7.592
87038SOL    HW262954   3.510  10.459   7.562
87039SOL     OW62955   9.399   1.356   3.247
87039SOL    HW162956   9.492   1.351   3.226
87039SOL    HW262957   9.359   1.398   3.172
87040SOL     OW62958   5.683   7.729   1.536
87040SOL    HW162959   5.764   7.755   1.579
87040SOL    HW262960   5.702   7.737   1.442
87041SOL     OW62961   3.625   4.525   2.816
87041SOL    HW162962   3.549   4.472   2.843
87041SOL    HW262963   3.611   4.541   2.723
87042SOL     OW62964  14.591   0.067   8.360
87042SOL    HW162965  14.499   0.085   8.339
87042SOL    HW262966  14.627   0.034   8.278
87043SOL     OW62967  10.623   0.876  13.057
87043SOL    HW162968  10.671   0.945  13.103
87043SOL    HW262969  10.682   0.847  12.988
87044SOL     OW62970   7.636  10.907   5.142
87044SOL    HW162971   7.554  10.919   5.190
87044SOL    HW262972   7.609  10.899   5.050
87045SOL     OW62973   3.331   5.222   6.876
87045SOL    HW162974   3.282   5.297   6.908
87045SOL    HW262975   3.387   5.257   6.806
87046SOL     OW62976   9.506  10.587  10.075
87046SOL    HW162977   9.499  10.548   9.988
87046SOL    HW262978   9.437  10.654  10.077
87047SOL     OW62979  14.609   8.003   2.890
87047SOL    HW162980  14.569   8.021   2.805
87047SOL    HW262981  14.620   8.089   2.931
87048SOL     OW62982  13.831   6.902  10.189
87048SOL    HW162983  13.893   6.844  10.234
87048SOL    HW262984  13.886   6.966  10.145
87049SOL     OW62985   3.566   5.392  14.851
87049SOL    HW162986   3.639   5.393  14.789
87049SOL    HW262987   3.571   5.477   0.021
87050SOL     OW62988   1.018   5.018   7.488
87050SOL    HW162989   1.106   5.049   7.468
87050SOL    HW262990   1.025   4.981   7.576
87051SOL     OW62991   5.135   5.678   7.567
87051SOL    HW162992   5.113   5.758   7.614
87051SOL    HW262993   5.218   5.649   7.604
87052SOL     OW62994  13.433  14.506   4.161
87052SOL    HW162995  13.432  14.535   4.070
87052SOL    HW262996  13.524  14.480   4.176
87053SOL     OW62997  13.183   5.432   8.002
87053SOL    HW162998  13.211   5.482   8.078
87053SOL    HW262999  13.238   5.353   8.003
87054SOL     OW63000   0.975   0.791   5.731
87054SOL    HW163001   0.911   0.852   5.767
87054SOL    HW263002   0.989   0.727   5.800
87055SOL     OW63003  10.098  11.420   0.794
87055SOL    HW163004  10.105  11.361   0.868
87055SOL    HW263005  10.032  11.380   0.737
87056SOL     OW63006   5.206   1.629   2.509
87056SOL    HW163007   5.284   1.657   2.558
87056SOL    HW263008   5.236   1.555   2.457
87057SOL     OW63009  13.115   5.315  11.831
87057SOL    HW163010  13.113   5.336  11.925
87057SOL    HW263011  13.089   5.223  11.827
87058SOL     OW63012   0.997  13.805   3.260
87058SOL    HW163013   0.984  13.731   3.318
87058SOL    HW263014   1.076  13.848   3.293
87059SOL     OW63015  10.936   7.864  10.733
87059SOL    HW163016  10.962   7.837  10.645
87059SOL    HW263017  10.893   7.788  10.771
87060SOL     OW63018   8.497   0.385  13.100
87060SOL    HW163019   8.562   0.421  13.161
87060SOL    HW263020   8.531   0.406  13.014
87061SOL     OW63021  11.159   1.240  14.475
87061SOL    HW163022  11.219   1.301  14.431
87061SOL    HW263023  11.078   1.246  14.425
87062SOL     OW63024  11.364   1.406   2.665
87062SOL    HW163025  11.408   1.350   2.601
87062SOL    HW263026  11.430   1.422   2.732
87063SOL     OW63027   9.976   7.464   7.135
87063SOL    HW163028   9.882   7.479   7.141
87063SOL    HW263029  10.005   7.521   7.063
87064SOL     OW63030   1.832  10.234  11.802
87064SOL    HW163031   1.876  10.156  11.768
87064SOL    HW263032   1.741  10.224  11.776
87065SOL     OW63033  14.810  13.071   7.948
87065SOL    HW163034  14.844  13.013   8.016
87065SOL    HW263035  14.768  13.012   7.886
87066SOL     OW63036  11.676   0.506   6.272
87066SOL    HW163037  11.697   0.506   6.179
87066SOL    HW263038  11.580   0.511   6.276
87067SOL     OW63039   0.769   2.935   1.309
87067SOL    HW163040   0.862   2.959   1.308
87067SOL    HW263041   0.769   2.845   1.343
87068SOL     OW63042  11.946   4.593   6.719
87068SOL    HW163043  11.926   4.549   6.802
87068SOL    HW263044  11.895   4.674   6.723
87069SOL     OW63045   0.999   6.424   1.576
87069SOL    HW163046   1.066   6.377   1.527
87069SOL    HW263047   0.972   6.363   1.644
87070SOL     OW63048   2.146   9.352   8.882
87070SOL    HW163049   2.073   9.412   8.894
87070SOL    HW263050   2.217   9.388   8.936
87071SOL     OW63051   2.554   4.867   1.250
87071SOL    HW163052   2.522   4.924   1.180
87071SOL    HW263053   2.609   4.803   1.205
87072SOL     OW63054  14.197  10.013   0.280
87072SOL    HW163055  14.185   9.918   0.268
87072SOL    HW263056  14.232  10.043   0.196
87073SOL     OW63057   5.170   6.647   8.541
87073SOL    HW163058   5.229   6.712   8.501
87073SOL    HW263059   5.126   6.606   8.467
87074SOL     OW63060   5.561   0.826   5.713
87074SOL    HW163061   5.526   0.891   5.652
87074SOL    HW263062   5.507   0.835   5.791
87075SOL     OW63063   9.390  13.909   4.165
87075SOL    HW163064   9.387  13.813   4.170
87075SOL    HW263065   9.298  13.935   4.162
87076SOL     OW63066   7.257  13.794   5.927
87076SOL    HW163067   7.281  13.887   5.935
87076SOL    HW263068   7.315  13.760   5.859
87077SOL     OW63069   1.211   9.842  12.119
87077SOL    HW163070   1.167   9.758  12.114
87077SOL    HW263071   1.182   9.880  12.202
87078SOL     OW63072   1.412   3.688  11.069
87078SOL    HW163073   1.423   3.638  10.988
87078SOL    HW263074   1.335   3.742  11.055
87079SOL     OW63075   3.864   1.821   0.346
87079SOL    HW163076   3.835   1.777   0.266
87079SOL    HW263077   3.836   1.911   0.335
87080SOL     OW63078   3.140  13.310  13.853
87080SOL    HW163079   3.135  13.344  13.764
87080SOL    HW263080   3.081  13.235  13.854
87081SOL     OW63081   8.347   3.985   2.543
87081SOL    HW163082   8.443   3.991   2.544
87081SOL    HW263083   8.320   4.016   2.629
87082SOL     OW63084  13.294   7.487   7.253
87082SOL    HW163085  13.243   7.566   7.232
87082SOL    HW263086  13.270   7.467   7.343
87083SOL     OW63087   0.174   3.755   7.430
87083SOL    HW163088   0.250   3.812   7.425
87083SOL    HW263089   0.194   3.694   7.501
87084SOL     OW63090   8.445  11.709   6.075
87084SOL    HW163091   8.400  11.793   6.076
87084SOL    HW263092   8.536  11.730   6.096
87085SOL     OW63093   1.519   7.360   6.676
87085SOL    HW163094   1.614   7.347   6.674
87085SOL    HW263095   1.501   7.385   6.767
87086SOL     OW63096   3.832   5.855   4.622
87086SOL    HW163097   3.921   5.887   4.637
87086SOL    HW263098   3.775   5.929   4.643
87087SOL     OW63099   5.945  12.533  13.113
87087SOL    HW163100   5.896  12.451  13.112
87087SOL    HW263101   5.904  12.585  13.182
87088SOL     OW63102   0.386   1.868   1.117
87088SOL    HW163103   0.467   1.819   1.135
87088SOL    HW263104   0.411   1.960   1.126
87089SOL     OW63105  13.410   2.474  10.089
87089SOL    HW163106  13.387   2.477   9.996
87089SOL    HW263107  13.327   2.458  10.134
87090SOL     OW63108  10.560   7.837  13.201
87090SOL    HW163109  10.476   7.791  13.205
87090SOL    HW263110  10.613   7.798  13.271
87091SOL     OW63111   8.738  12.831  13.060
87091SOL    HW163112   8.730  12.818  12.966
87091SOL    HW263113   8.809  12.893  13.071
87092SOL     OW63114  11.110   4.522   4.650
87092SOL    HW163115  11.116   4.464   4.574
87092SOL    HW263116  11.042   4.482   4.705
87093SOL     OW63117   8.117   0.579   2.035
87093SOL    HW163118   8.044   0.529   1.999
87093SOL    HW263119   8.109   0.666   1.998
87094SOL     OW63120  14.220   8.669  13.190
87094SOL    HW163121  14.279   8.734  13.226
87094SOL    HW263122  14.259   8.643  13.106
87095SOL     OW63123   4.367   5.059   0.693
87095SOL    HW163124   4.299   5.072   0.758
87095SOL    HW263125   4.447   5.044   0.744
87096SOL     OW63126   0.220   4.857   5.818
87096SOL    HW163127   0.183   4.838   5.904
87096SOL    HW263128   0.189   4.787   5.761
87097SOL     OW63129   1.106  14.722   3.500
87097SOL    HW163130   1.150  14.806   3.512
87097SOL    HW263131   1.175  14.664   3.467
87098SOL     OW63132  13.333   9.604  14.708
87098SOL    HW163133  13.334   9.526  14.764
87098SOL    HW263134  13.377   9.671  14.760
87099SOL     OW63135  10.295  11.089   4.503
87099SOL    HW163136  10.209  11.053   4.525
87099SOL    HW263137  10.308  11.064   4.411
87100SOL     OW63138   3.965   2.227  13.126
87100SOL    HW163139   3.957   2.322  13.134
87100SOL    HW263140   4.016   2.214  13.045
87101SOL     OW63141  13.432   1.048   8.383
87101SOL    HW163142  13.392   0.961   8.372
87101SOL    HW263143  13.526   1.032   8.381
87102SOL     OW63144   4.050   5.507  12.388
87102SOL    HW163145   4.045   5.594  12.350
87102SOL    HW263146   4.063   5.523  12.482
87103SOL     OW63147   0.760  10.980  14.113
87103SOL    HW163148   0.753  10.884  14.118
87103SOL    HW263149   0.714  11.003  14.033
87104SOL     OW63150  10.359  14.666   1.434
87104SOL    HW163151  10.370  14.760   1.450
87104SOL    HW263152  10.269  14.657   1.404
87105SOL     OW63153  12.947   4.993   1.126
87105SOL    HW163154  12.966   5.040   1.046
87105SOL    HW263155  12.878   4.931   1.102
87106SOL     OW63156   2.325   7.367   6.161
87106SOL    HW163157   2.315   7.452   6.203
87106SOL    HW263158   2.277   7.375   6.079
87107SOL     OW63159   3.674   1.297   3.568
87107SOL    HW163160   3.658   1.318   3.476
87107SOL    HW263161   3.594   1.253   3.597
87108SOL     OW63162  14.627  14.151   2.256
87108SOL    HW163163  14.567  14.077   2.246
87108SOL    HW263164  14.611  14.184   2.344
87109SOL     OW63165  10.898   4.179  13.763
87109SOL    HW163166  10.902   4.090  13.796
87109SOL    HW263167  10.988   4.198  13.735
87110SOL     OW63168  10.793  13.876   1.395
87110SOL    HW163169  10.782  13.794   1.443
87110SOL    HW263170  10.705  13.915   1.394
87111SOL     OW63171   3.857  11.150  13.966
87111SOL    HW163172   3.908  11.205  14.026
87111SOL    HW263173   3.913  11.074  13.949
87112SOL     OW63174  12.642   8.313   9.061
87112SOL    HW163175  12.591   8.300   9.142
87112SOL    HW263176  12.582   8.290   8.991
87113SOL     OW63177   6.167   9.842   0.364
87113SOL    HW163178   6.254   9.864   0.330
87113SOL    HW263179   6.126   9.792   0.294
87114SOL     OW63180   0.242   3.132   9.195
87114SOL    HW163181   0.185   3.085   9.134
87114SOL    HW263182   0.319   3.075   9.204
87115SOL     OW63183  13.764   8.154   7.040
87115SOL    HW163184  13.678   8.198   7.041
87115SOL    HW263185  13.816   8.202   7.105
87116SOL     OW63186   7.725  11.708   2.696
87116SOL    HW163187   7.734  11.803   2.688
87116SOL    HW263188   7.674  11.695   2.775
87117SOL     OW63189   7.056  13.486   5.488
87117SOL    HW163190   7.008  13.411   5.454
87117SOL    HW263191   7.096  13.527   5.412
87118SOL     OW63192   7.959   2.119   1.270
87118SOL    HW163193   8.001   2.051   1.217
87118SOL    HW263194   7.874   2.132   1.229
87119SOL     OW63195   8.756  10.267   8.690
87119SOL    HW163196   8.711  10.184   8.673
87119SOL    HW263197   8.797  10.290   8.607
87120SOL     OW63198   4.022  11.290   3.768
87120SOL    HW163199   3.951  11.229   3.788
87120SOL    HW263200   4.032  11.286   3.673
87121SOL     OW63201   4.075  12.062   9.357
87121SOL    HW163202   4.120  12.097   9.280
87121SOL    HW263203   3.997  12.019   9.322
87122SOL     OW63204   6.406   5.664   2.630
87122SOL    HW163205   6.399   5.756   2.656
87122SOL    HW263206   6.378   5.662   2.539
87123SOL     OW63207   6.991   3.449   6.361
87123SOL    HW163208   6.933   3.431   6.436
87123SOL    HW263209   7.017   3.540   6.373
87124SOL     OW63210   6.345  13.367  11.229
87124SOL    HW163211   6.257  13.400  11.251
87124SOL    HW263212   6.405  13.427  11.273
87125SOL     OW63213  13.820   6.344   7.741
87125SOL    HW163214  13.757   6.394   7.793
87125SOL    HW263215  13.843   6.402   7.669
87126SOL     OW63216   2.531   6.504   9.519
87126SOL    HW163217   2.614   6.550   9.504
87126SOL    HW263218   2.472   6.572   9.552
87127SOL     OW63219   1.719   8.867   4.047
87127SOL    HW163220   1.716   8.844   3.954
87127SOL    HW263221   1.802   8.914   4.056
87128SOL     OW63222   2.874   0.920  11.973
87128SOL    HW163223   2.899   0.913  11.881
87128SOL    HW263224   2.780   0.933  11.971
87129SOL     OW63225  14.347   8.846   5.466
87129SOL    HW163226  14.300   8.837   5.549
87129SOL    HW263227  14.300   8.789   5.405
87130SOL     OW63228   1.642   7.496  10.736
87130SOL    HW163229   1.716   7.490  10.676
87130SOL    HW263230   1.682   7.498  10.823
87131SOL     OW63231  11.401   5.085  13.238
87131SOL    HW163232  11.329   5.030  13.207
87131SOL    HW263233  11.398   5.162  13.180
87132SOL     OW63234  12.723   8.937  14.492
87132SOL    HW163235  12.695   8.954  14.402
87132SOL    HW263236  12.642   8.919  14.540
87133SOL     OW63237   0.864  10.216   9.626
87133SOL    HW163238   0.929  10.234   9.558
87133SOL    HW263239   0.803  10.154   9.585
87134SOL     OW63240  10.598   2.325   7.927
87134SOL    HW163241  10.623   2.408   7.888
87134SOL    HW263242  10.568   2.272   7.854
87135SOL     OW63243   5.471   9.745   3.408
87135SOL    HW163244   5.393   9.747   3.464
87135SOL    HW263245   5.521   9.670   3.441
87136SOL     OW63246   7.297   1.160  11.707
87136SOL    HW163247   7.286   1.208  11.789
87136SOL    HW263248   7.209   1.129  11.685
87137SOL     OW63249   2.625   0.374  13.776
87137SOL    HW163250   2.561   0.308  13.802
87137SOL    HW263251   2.705   0.324  13.759
87138SOL     OW63252   8.915  13.421   2.416
87138SOL    HW163253   8.857  13.364   2.466
87138SOL    HW263254   8.866  13.440   2.336
87139SOL     OW63255   0.048  10.140   0.681
87139SOL    HW163256   0.005  10.203   0.623
87139SOL    HW263257   0.134  10.125   0.641
87140SOL     OW63258   2.947  13.422   0.323
87140SOL    HW163259   2.955  13.502   0.272
87140SOL    HW263260   2.950  13.452   0.414
87141SOL     OW63261  14.368  10.115  10.653
87141SOL    HW163262  14.450  10.101  10.700
87141SOL    HW263263  14.303  10.066  10.704
87142SOL     OW63264   7.745  14.428   0.538
87142SOL    HW163265   7.810  14.479   0.491
87142SOL    HW263266   7.677  14.410   0.474
87143SOL     OW63267  12.406   7.288  12.888
87143SOL    HW163268  12.452   7.247  12.962
87143SOL    HW263269  12.343   7.222  12.860
87144SOL     OW63270   6.886   6.165   9.335
87144SOL    HW163271   6.834   6.109   9.394
87144SOL    HW263272   6.890   6.249   9.380
87145SOL     OW63273   8.938   4.465  12.555
87145SOL    HW163274   8.898   4.392  12.508
87145SOL    HW263275   9.010   4.426  12.604
87146SOL     OW63276  13.298   7.259   0.256
87146SOL    HW163277  13.274   7.351   0.248
87146SOL    HW263278  13.336   7.251   0.344
87147SOL     OW63279   1.164   9.808  10.056
87147SOL    HW163280   1.257   9.828  10.068
87147SOL    HW263281   1.142   9.847   9.971
87148SOL     OW63282   4.286   2.689  11.215
87148SOL    HW163283   4.343   2.744  11.269
87148SOL    HW263284   4.203   2.737  11.212
87149SOL     OW63285   3.307  11.237   4.084
87149SOL    HW163286   3.364  11.300   4.041
87149SOL    HW263287   3.280  11.280   4.165
87150SOL     OW63288   2.218   7.370  13.517
87150SOL    HW163289   2.133   7.401  13.549
87150SOL    HW263290   2.243   7.434  13.450
87151SOL     OW63291  12.708   4.347   9.918
87151SOL    HW163292  12.739   4.424   9.966
87151SOL    HW263293  12.768   4.340   9.843
87152SOL     OW63294  10.690   8.289   5.358
87152SOL    HW163295  10.715   8.335   5.278
87152SOL    HW263296  10.632   8.350   5.404
87153SOL     OW63297  14.210  11.838   7.934
87153SOL    HW163298  14.203  11.843   7.839
87153SOL    HW263299  14.303  11.849   7.953
87154SOL     OW63300   8.226  11.068  14.465
87154SOL    HW163301   8.220  10.979  14.433
87154SOL    HW263302   8.281  11.114  14.401
87155SOL     OW63303  14.651   7.155   8.480
87155SOL    HW163304  14.593   7.142   8.555
87155SOL    HW263305  14.727   7.099   8.498
87156SOL     OW63306   9.120   5.064   2.778
87156SOL    HW163307   9.127   5.128   2.707
87156SOL    HW263308   9.205   5.068   2.822
87157SOL     OW63309  14.542  13.238   4.803
87157SOL    HW163310  14.553  13.318   4.752
87157SOL    HW263311  14.631  13.202   4.810
87158SOL     OW63312   0.183   3.464  14.343
87158SOL    HW163313   0.118   3.535  14.342
87158SOL    HW263314   0.146   3.398  14.401
87159SOL     OW63315  13.716   1.992  12.606
87159SOL    HW163316  13.650   1.930  12.577
87159SOL    HW263317  13.798   1.960  12.568
87160SOL     OW63318   2.829   8.828   9.048
87160SOL    HW163319   2.799   8.855   8.962
87160SOL    HW263320   2.878   8.903   9.081
87161SOL     OW63321   8.755   8.912  12.657
87161SOL    HW163322   8.723   8.831  12.619
87161SOL    HW263323   8.848   8.896  12.672
87162SOL     OW63324   9.053   3.681   6.921
87162SOL    HW163325   9.145   3.701   6.903
87162SOL    HW263326   9.033   3.607   6.864
87163SOL     OW63327   5.903   2.207   0.189
87163SOL    HW163328   5.833   2.257   0.231
87163SOL    HW263329   5.922   2.255   0.109
87164SOL     OW63330   3.807   2.953  13.115
87164SOL    HW163331   3.882   2.898  13.095
87164SOL    HW263332   3.765   2.910  13.190
87165SOL     OW63333   2.505   2.282   3.262
87165SOL    HW163334   2.511   2.334   3.342
87165SOL    HW263335   2.542   2.338   3.193
87166SOL     OW63336   3.656   4.640   2.535
87166SOL    HW163337   3.617   4.696   2.467
87166SOL    HW263338   3.750   4.653   2.525
87167SOL     OW63339   4.490   2.137   9.745
87167SOL    HW163340   4.479   2.042   9.748
87167SOL    HW263341   4.473   2.166   9.835
87168SOL     OW63342   9.636   2.400  10.707
87168SOL    HW163343   9.605   2.410  10.797
87168SOL    HW263344   9.601   2.476  10.661
87169SOL     OW63345  10.764   9.807  11.986
87169SOL    HW163346  10.781   9.870  11.915
87169SOL    HW263347  10.820   9.837  12.057
87170SOL     OW63348   6.360  10.539   9.675
87170SOL    HW163349   6.266  10.527   9.685
87170SOL    HW263350   6.393  10.553   9.764
87171SOL     OW63351   1.316   6.500   4.339
87171SOL    HW163352   1.319   6.474   4.431
87171SOL    HW263353   1.321   6.596   4.341
87172SOL     OW63354  11.836   0.400   7.058
87172SOL    HW163355  11.754   0.425   7.014
87172SOL    HW263356  11.833   0.446   7.142
87173SOL     OW63357   6.654   2.731   0.500
87173SOL    HW163358   6.746   2.749   0.480
87173SOL    HW263359   6.632   2.794   0.569
87174SOL     OW63360   6.121   2.507   3.323
87174SOL    HW163361   6.175   2.579   3.356
87174SOL    HW263362   6.063   2.548   3.258
87175SOL     OW63363   0.958   6.434   0.298
87175SOL    HW163364   0.963   6.485   0.218
87175SOL    HW263365   0.864   6.423   0.314
87176SOL     OW63366   2.326   3.778   1.896
87176SOL    HW163367   2.256   3.761   1.833
87176SOL    HW263368   2.400   3.728   1.862
87177SOL     OW63369  13.955   6.597   3.036
87177SOL    HW163370  13.887   6.635   3.091
87177SOL    HW263371  13.919   6.599   2.947
87178SOL     OW63372   6.338   8.919  14.618
87178SOL    HW163373   6.287   8.888  14.543
87178SOL    HW263374   6.362   9.009  14.597
87179SOL     OW63375   6.698  14.073   2.408
87179SOL    HW163376   6.662  14.119   2.484
87179SOL    HW263377   6.736  14.142   2.354
87180SOL     OW63378   6.178   1.805  10.908
87180SOL    HW163379   6.124   1.855  10.846
87180SOL    HW263380   6.264   1.847  10.904
87181SOL     OW63381   5.176   3.397  10.736
87181SOL    HW163382   5.134   3.473  10.695
87181SOL    HW263383   5.269   3.408  10.717
87182SOL     OW63384   5.992   8.177  14.566
87182SOL    HW163385   6.068   8.135  14.606
87182SOL    HW263386   5.919   8.154  14.624
87183SOL     OW63387  11.758  14.443   2.509
87183SOL    HW163388  11.674  14.489   2.514
87183SOL    HW263389  11.798  14.456   2.595
87184SOL     OW63390   8.819  11.224  11.180
87184SOL    HW163391   8.761  11.158  11.141
87184SOL    HW263392   8.864  11.264  11.105
87185SOL     OW63393   5.659  14.349   3.779
87185SOL    HW163394   5.623  14.408   3.713
87185SOL    HW263395   5.695  14.276   3.729
87186SOL     OW63396   4.937   6.084   8.068
87186SOL    HW163397   4.892   6.057   8.147
87186SOL    HW263398   4.876   6.144   8.024
87187SOL     OW63399  10.292   1.718  10.904
87187SOL    HW163400  10.360   1.709  10.838
87187SOL    HW263401  10.338   1.745  10.984
87188SOL     OW63402   5.029   6.681   6.055
87188SOL    HW163403   4.970   6.615   6.019
87188SOL    HW263404   5.054   6.646   6.141
87189SOL     OW63405   9.771   8.071   5.617
87189SOL    HW163406   9.710   8.118   5.561
87189SOL    HW263407   9.844   8.048   5.559
87190SOL     OW63408  13.405   5.044   2.545
87190SOL    HW163409  13.401   5.045   2.449
87190SOL    HW263410  13.495   5.070   2.564
87191SOL     OW63411   6.282  11.448  13.860
87191SOL    HW163412   6.345  11.504  13.816
87191SOL    HW263413   6.198  11.492  13.848
87192SOL     OW63414  13.864  10.486   3.553
87192SOL    HW163415  13.860  10.390   3.552
87192SOL    HW263416  13.782  10.513   3.592
87193SOL     OW63417  14.610   2.859  12.504
87193SOL    HW163418  14.590   2.933  12.447
87193SOL    HW263419  14.551   2.870  12.579
87194SOL     OW63420   6.159  10.698  10.693
87194SOL    HW163421   6.150  10.685  10.599
87194SOL    HW263422   6.168  10.609  10.729
87195SOL     OW63423   8.267  11.928   0.899
87195SOL    HW163424   8.341  11.936   0.839
87195SOL    HW263425   8.296  11.865   0.965
87196SOL     OW63426   9.451   1.714   5.497
87196SOL    HW163427   9.470   1.762   5.417
87196SOL    HW263428   9.507   1.637   5.494
87197SOL     OW63429   6.543  11.743   7.103
87197SOL    HW163430   6.628  11.731   7.145
87197SOL    HW263431   6.498  11.808   7.156
87198SOL     OW63432  14.330  12.453  11.581
87198SOL    HW163433  14.421  12.427  11.594
87198SOL    HW263434  14.295  12.388  11.520
87199SOL     OW63435   0.459   8.142   2.374
87199SOL    HW163436   0.483   8.091   2.451
87199SOL    HW263437   0.373   8.179   2.395
87200SOL     OW63438   0.570  12.439   7.122
87200SOL    HW163439   0.585  12.533   7.112
87200SOL    HW263440   0.477  12.432   7.144
87201SOL     OW63441   7.098   0.536   0.016
87201SOL    HW163442   7.071   0.451  14.854
87201SOL    HW263443   7.181   0.518   0.061
87202SOL     OW63444  12.161   9.571   9.378
87202SOL    HW163445  12.098   9.631   9.337
87202SOL    HW263446  12.222   9.627   9.424
87203SOL     OW63447   8.794   6.324   7.154
87203SOL    HW163448   8.766   6.415   7.165
87203SOL    HW263449   8.889   6.328   7.160
87204SOL     OW63450  12.750   5.216   2.386
87204SOL    HW163451  12.719   5.182   2.302
87204SOL    HW263452  12.673   5.257   2.425
87205SOL     OW63453  10.362   8.101   5.610
87205SOL    HW163454  10.309   8.052   5.548
87205SOL    HW263455  10.387   8.037   5.677
87206SOL     OW63456   3.191  12.297  11.348
87206SOL    HW163457   3.128  12.323  11.281
87206SOL    HW263458   3.143  12.233  11.401
87207SOL     OW63459   2.683   7.558   8.233
87207SOL    HW163460   2.736   7.604   8.299
87207SOL    HW263461   2.645   7.628   8.180
87208SOL     OW63462   8.497   6.948   7.977
87208SOL    HW163463   8.515   6.958   8.071
87208SOL    HW263464   8.583   6.928   7.939
87209SOL     OW63465   7.014  10.523   8.927
87209SOL    HW163466   7.081  10.583   8.892
87209SOL    HW263467   6.978  10.569   9.002
87210SOL     OW63468  11.896  12.508  10.343
87210SOL    HW163469  11.909  12.576  10.409
87210SOL    HW263470  11.964  12.525  10.278
87211SOL     OW63471  14.570  14.520  13.867
87211SOL    HW163472  14.475  14.532  13.865
87211SOL    HW263473  14.599  14.534  13.777
87212SOL     OW63474   0.475   4.864   5.121
87212SOL    HW163475   0.418   4.904   5.187
87212SOL    HW263476   0.529   4.936   5.089
87213SOL     OW63477  14.551   5.503   1.072
87213SOL    HW163478  14.577   5.425   1.120
87213SOL    HW263479  14.577   5.485   0.982
87214SOL     OW63480   1.395  14.594  11.199
87214SOL    HW163481   1.375  14.501  11.194
87214SOL    HW263482   1.461  14.608  11.131
87215SOL     OW63483  10.364  11.907  11.695
87215SOL    HW163484  10.280  11.887  11.654
87215SOL    HW263485  10.356  11.872  11.784
87216SOL     OW63486  11.560   8.176   8.068
87216SOL    HW163487  11.624   8.157   8.000
87216SOL    HW263488  11.547   8.093   8.114
87217SOL     OW63489  14.211   2.330   6.712
87217SOL    HW163490  14.218   2.415   6.754
87217SOL    HW263491  14.285   2.326   6.651
87218SOL     OW63492  14.748   7.479   0.927
87218SOL    HW163493  14.816   7.519   0.981
87218SOL    HW263494  14.788   7.398   0.895
87219SOL     OW63495   7.379   0.889  12.562
87219SOL    HW163496   7.344   0.977  12.547
87219SOL    HW263497   7.470   0.895  12.533
87220SOL     OW63498   4.361   7.993   7.743
87220SOL    HW163499   4.362   7.984   7.838
87220SOL    HW263500   4.420   7.924   7.712
87221SOL     OW63501  10.333   9.788   7.171
87221SOL    HW163502  10.370   9.851   7.233
87221SOL    HW263503  10.410   9.742   7.136
87222SOL     OW63504   6.778  14.807  11.998
87222SOL    HW163505   6.839   0.006  12.002
87222SOL    HW263506   6.694  14.844  12.025
87223SOL     OW63507  12.066   1.133  13.128
87223SOL    HW163508  12.106   1.072  13.065
87223SOL    HW263509  12.119   1.124  13.207
87224SOL     OW63510   2.553   8.305   7.789
87224SOL    HW163511   2.517   8.346   7.710
87224SOL    HW263512   2.607   8.233   7.757
87225SOL     OW63513  14.569  14.275   2.004
87225SOL    HW163514  14.601  14.236   2.085
87225SOL    HW263515  14.581  14.207   1.938
87226SOL     OW63516  13.940  12.427  10.685
87226SOL    HW163517  13.845  12.430  10.687
87226SOL    HW263518  13.961  12.396  10.597
87227SOL     OW63519   0.583   7.328   7.977
87227SOL    HW163520   0.672   7.351   7.952
87227SOL    HW263521   0.531   7.406   7.955
87228SOL     OW63522   2.609   3.478  10.186
87228SOL    HW163523   2.539   3.444  10.130
87228SOL    HW263524   2.677   3.410  10.184
87229SOL     OW63525   6.239  12.168   1.709
87229SOL    HW163526   6.212  12.137   1.795
87229SOL    HW263527   6.258  12.088   1.660
87230SOL     OW63528   5.367  12.869   0.016
87230SOL    HW163529   5.323  12.861   0.100
87230SOL    HW263530   5.431  12.798   0.015
87231SOL     OW63531   9.800  14.356   5.069
87231SOL    HW163532   9.883  14.375   5.026
87231SOL    HW263533   9.753  14.440   5.069
87232SOL     OW63534   5.462   1.517  13.541
87232SOL    HW163535   5.398   1.494  13.474
87232SOL    HW263536   5.503   1.433  13.565
87233SOL     OW63537   4.511   5.340   0.825
87233SOL    HW163538   4.504   5.273   0.757
87233SOL    HW263539   4.571   5.405   0.789
87234SOL     OW63540   9.306   0.601   1.807
87234SOL    HW163541   9.217   0.579   1.780
87234SOL    HW263542   9.297   0.683   1.855
87235SOL     OW63543   3.818  14.208  10.326
87235SOL    HW163544   3.741  14.244  10.370
87235SOL    HW263545   3.889  14.219  10.390
87236SOL     OW63546  10.616   1.783   7.992
87236SOL    HW163547  10.656   1.816   7.912
87236SOL    HW263548  10.688   1.741   8.040
87237SOL     OW63549   3.789  14.817   8.232
87237SOL    HW163550   3.783   0.037   8.216
87237SOL    HW263551   3.880  14.804   8.259
87238SOL     OW63552   3.089   9.346   6.975
87238SOL    HW163553   3.109   9.268   7.027
87238SOL    HW263554   3.112   9.322   6.886
87239SOL     OW63555  14.774   7.615   0.163
87239SOL    HW163556  14.682   7.621   0.135
87239SOL    HW263557  14.771   7.627   0.258
87240SOL     OW63558   1.230   1.443   8.757
87240SOL    HW163559   1.200   1.403   8.676
87240SOL    HW263560   1.182   1.396   8.826
87241SOL     OW63561   1.050  14.319   6.451
87241SOL    HW163562   1.023  14.277   6.369
87241SOL    HW263563   1.077  14.407   6.424
87242SOL     OW63564   3.501  14.450  14.466
87242SOL    HW163565   3.537  14.423  14.551
87242SOL    HW263566   3.451  14.375  14.436
87243SOL     OW63567   9.684  10.035  12.787
87243SOL    HW163568   9.673  10.002  12.698
87243SOL    HW263569   9.596  10.028  12.826
87244SOL     OW63570  10.265   1.852  10.428
87244SOL    HW163571  10.272   1.947  10.424
87244SOL    HW263572  10.172   1.835  10.439
87245SOL     OW63573   1.747   1.998  13.974
87245SOL    HW163574   1.836   1.965  13.985
87245SOL    HW263575   1.733   2.000  13.879
87246SOL     OW63576   8.047   6.695   9.106
87246SOL    HW163577   7.986   6.621   9.101
87246SOL    HW263578   8.083   6.691   9.194
87247SOL     OW63579   7.390   9.071   0.915
87247SOL    HW163580   7.447   9.029   0.980
87247SOL    HW263581   7.310   9.019   0.915
87248SOL     OW63582  13.473   4.707   4.674
87248SOL    HW163583  13.378   4.698   4.677
87248SOL    HW263584  13.491   4.792   4.715
87249SOL     OW63585   0.370   5.479   0.153
87249SOL    HW163586   0.392   5.398   0.198
87249SOL    HW263587   0.454   5.514   0.123
87250SOL     OW63588   3.583  11.754   9.174
87250SOL    HW163589   3.527  11.689   9.132
87250SOL    HW263590   3.565  11.835   9.127
87251SOL     OW63591   4.758   7.651   1.861
87251SOL    HW163592   4.824   7.714   1.889
87251SOL    HW263593   4.713   7.695   1.788
87252SOL     OW63594  14.174   4.860   8.630
87252SOL    HW163595  14.194   4.943   8.674
87252SOL    HW263596  14.224   4.794   8.679
87253SOL     OW63597   4.822  14.373   3.899
87253SOL    HW163598   4.732  14.354   3.922
87253SOL    HW263599   4.855  14.427   3.970
87254SOL     OW63600  14.870   5.832  11.190
87254SOL    HW163601  14.791   5.867  11.150
87254SOL    HW263602   0.049   5.802  11.117
87255SOL     OW63603   9.596   6.961   4.449
87255SOL    HW163604   9.555   6.921   4.373
87255SOL    HW263605   9.539   6.937   4.523
87256SOL     OW63606   9.251   2.814   1.315
87256SOL    HW163607   9.177   2.875   1.320
87256SOL    HW263608   9.223   2.748   1.253
87257SOL     OW63609   0.164  12.680   1.711
87257SOL    HW163610   0.238  12.714   1.761
87257SOL    HW263611   0.192  12.688   1.619
87258SOL     OW63612   7.573   1.804   0.920
87258SOL    HW163613   7.558   1.763   1.005
87258SOL    HW263614   7.493   1.787   0.870
87259SOL     OW63615   1.670   1.548   3.273
87259SOL    HW163616   1.745   1.597   3.307
87259SOL    HW263617   1.626   1.609   3.215
87260SOL     OW63618  13.485   6.107   7.777
87260SOL    HW163619  13.417   6.167   7.807
87260SOL    HW263620  13.437   6.031   7.744
87261SOL     OW63621   6.678  12.630   6.960
87261SOL    HW163622   6.768  12.654   6.980
87261SOL    HW263623   6.628  12.711   6.974
87262SOL     OW63624   6.702   5.172   5.181
87262SOL    HW163625   6.778   5.118   5.204
87262SOL    HW263626   6.640   5.111   5.141
87263SOL     OW63627   8.474   5.541  11.263
87263SOL    HW163628   8.493   5.602  11.191
87263SOL    HW263629   8.394   5.497  11.236
87264SOL     OW63630   8.876  14.359  14.206
87264SOL    HW163631   8.836  14.321  14.284
87264SOL    HW263632   8.969  14.341  14.215
87265SOL     OW63633   3.004  13.897   5.694
87265SOL    HW163634   3.034  13.916   5.783
87265SOL    HW263635   2.989  13.803   5.694
87266SOL     OW63636   8.163  11.445  12.091
87266SOL    HW163637   8.151  11.441  11.996
87266SOL    HW263638   8.257  11.432  12.105
87267SOL     OW63639  11.198   0.402   6.486
87267SOL    HW163640  11.115   0.374   6.448
87267SOL    HW263641  11.209   0.493   6.458
87268SOL     OW63642   8.241   1.822   2.203
87268SOL    HW163643   8.256   1.900   2.150
87268SOL    HW263644   8.277   1.750   2.150
87269SOL     OW63645   2.453   4.814   7.282
87269SOL    HW163646   2.497   4.786   7.362
87269SOL    HW263647   2.521   4.810   7.215
87270SOL     OW63648   7.730   0.214   2.301
87270SOL    HW163649   7.638   0.189   2.291
87270SOL    HW263650   7.731   0.268   2.380
87271SOL     OW63651   2.863   6.794   9.449
87271SOL    HW163652   2.857   6.871   9.391
87271SOL    HW263653   2.877   6.831   9.536
87272SOL     OW63654  14.271   5.325  14.784
87272SOL    HW163655  14.178   5.318  14.808
87272SOL    HW263656  14.298   5.411  14.813
87273SOL     OW63657   1.575   5.844   8.064
87273SOL    HW163658   1.560   5.925   8.015
87273SOL    HW263659   1.521   5.779   8.020
87274SOL     OW63660   1.908   1.934   8.884
87274SOL    HW163661   1.833   1.957   8.937
87274SOL    HW263662   1.880   1.856   8.835
87275SOL     OW63663   7.944   8.881   7.059
87275SOL    HW163664   7.878   8.845   7.119
87275SOL    HW263665   7.933   8.832   6.978
87276SOL     OW63666  13.744   6.137   7.031
87276SOL    HW163667  13.827   6.175   7.002
87276SOL    HW263668  13.768   6.079   7.103
87277SOL     OW63669  11.811   1.588   6.931
87277SOL    HW163670  11.791   1.679   6.907
87277SOL    HW263671  11.837   1.547   6.849
87278SOL     OW63672   0.660  11.699   3.714
87278SOL    HW163673   0.646  11.608   3.738
87278SOL    HW263674   0.583  11.745   3.748
87279SOL     OW63675  10.459   2.713   9.889
87279SOL    HW163676  10.386   2.775   9.884
87279SOL    HW263677  10.472   2.685   9.798
87280SOL     OW63678  11.290   0.296   1.265
87280SOL    HW163679  11.277   0.202   1.255
87280SOL    HW263680  11.260   0.333   1.182
87281SOL     OW63681   3.389   1.904   6.058
87281SOL    HW163682   3.356   1.938   6.141
87281SOL    HW263683   3.460   1.963   6.034
87282SOL     OW63684   7.352   8.956  14.185
87282SOL    HW163685   7.332   8.900  14.259
87282SOL    HW263686   7.280   8.942  14.123
87283SOL     OW63687   8.357  10.089   8.810
87283SOL    HW163688   8.286  10.128   8.861
87283SOL    HW263689   8.341   9.995   8.815
87284SOL     OW63690   7.991   9.389  10.247
87284SOL    HW163691   7.911   9.344  10.219
87284SOL    HW263692   8.014   9.349  10.330
87285SOL     OW63693   8.864   6.525  10.519
87285SOL    HW163694   8.843   6.538  10.612
87285SOL    HW263695   8.810   6.589  10.473
87286SOL     OW63696   7.872   2.511   2.171
87286SOL    HW163697   7.827   2.590   2.144
87286SOL    HW263698   7.904   2.472   2.090
87287SOL     OW63699   9.336   0.541  12.811
87287SOL    HW163700   9.294   0.599  12.874
87287SOL    HW263701   9.266   0.481  12.783
87288SOL     OW63702   1.493  13.597  12.720
87288SOL    HW163703   1.460  13.660  12.656
87288SOL    HW263704   1.586  13.588  12.700
87289SOL     OW63705   8.900  13.293   1.583
87289SOL    HW163706   8.834  13.307   1.514
87289SOL    HW263707   8.868  13.343   1.657
87290SOL     OW63708   6.980   9.356   9.272
87290SOL    HW163709   6.943   9.309   9.197
87290SOL    HW263710   6.907   9.366   9.332
87291SOL     OW63711  13.155   4.280   3.464
87291SOL    HW163712  13.109   4.231   3.397
87291SOL    HW263713  13.208   4.344   3.416
87292SOL     OW63714   6.623   6.590  11.766
87292SOL    HW163715   6.659   6.669  11.805
87292SOL    HW263716   6.577   6.547  11.838
87293SOL     OW63717  14.817   3.900   3.980
87293SOL    HW163718  14.815   3.989   4.017
87293SOL    HW263719  14.871   3.908   3.901
87294SOL     OW63720  11.914  14.786   7.111
87294SOL    HW163721  11.897  14.866   7.060
87294SOL    HW263722  11.952  14.726   7.048
87295SOL     OW63723   1.796   3.847   7.485
87295SOL    HW163724   1.826   3.771   7.434
87295SOL    HW263725   1.713   3.818   7.524
87296SOL     OW63726   8.741   5.812   8.002
87296SOL    HW163727   8.749   5.736   8.059
87296SOL    HW263728   8.682   5.784   7.932
87297SOL     OW63729  12.150   3.821   3.075
87297SOL    HW163730  12.210   3.854   3.142
87297SOL    HW263731  12.064   3.856   3.100
87298SOL     OW63732   5.868   9.983   3.454
87298SOL    HW163733   5.956  10.004   3.486
87298SOL    HW263734   5.842  10.060   3.404
87299SOL     OW63735   8.971  14.394   9.354
87299SOL    HW163736   8.971  14.418   9.261
87299SOL    HW263737   9.040  14.449   9.392
87300SOL     OW63738  14.339   9.757   6.653
87300SOL    HW163739  14.344   9.824   6.721
87300SOL    HW263740  14.363   9.676   6.697
87301SOL     OW63741  12.673   6.221   1.369
87301SOL    HW163742  12.744   6.282   1.389
87301SOL    HW263743  12.672   6.159   1.442
87302SOL     OW63744   3.799   1.786   0.597
87302SOL    HW163745   3.795   1.779   0.502
87302SOL    HW263746   3.800   1.695   0.628
87303SOL     OW63747  10.419   2.937   9.640
87303SOL    HW163748  10.495   2.880   9.638
87303SOL    HW263749  10.449   3.020   9.601
87304SOL     OW63750  10.983   3.559  11.683
87304SOL    HW163751  10.890   3.540  11.677
87304SOL    HW263752  11.013   3.559  11.592
87305SOL     OW63753  11.957   9.839   3.872
87305SOL    HW163754  11.987   9.876   3.789
87305SOL    HW263755  11.930   9.915   3.924
87306SOL     OW63756   7.411  14.814   0.617
87306SOL    HW163757   7.411  14.725   0.651
87306SOL    HW263758   7.478  14.860   0.669
87307SOL     OW63759   7.789  11.080   4.978
87307SOL    HW163760   7.821  11.007   4.926
87307SOL    HW263761   7.764  11.041   5.062
87308SOL     OW63762   6.897   3.788  12.669
87308SOL    HW163763   6.940   3.868  12.640
87308SOL    HW263764   6.841   3.815  12.742
87309SOL     OW63765  12.008  12.209   7.015
87309SOL    HW163766  11.932  12.265   7.031
87309SOL    HW263767  11.990  12.167   6.931
87310SOL     OW63768  13.715   9.520   3.611
87310SOL    HW163769  13.676   9.473   3.685
87310SOL    HW263770  13.717   9.456   3.540
87311SOL     OW63771   8.065   6.019   7.773
87311SOL    HW163772   8.039   6.083   7.706
87311SOL    HW263773   7.990   6.014   7.831
87312SOL     OW63774   3.940  14.694   4.081
87312SOL    HW163775   3.857  14.689   4.127
87312SOL    HW263776   3.946  14.613   4.031
87313SOL     OW63777   4.231  13.873   1.408
87313SOL    HW163778   4.229  13.968   1.407
87313SOL    HW263779   4.139  13.847   1.410
87314SOL     OW63780  14.625  13.189   9.728
87314SOL    HW163781  14.677  13.139   9.790
87314SOL    HW263782  14.673  13.183   9.645
87315SOL     OW63783   2.197   8.980  14.106
87315SOL    HW163784   2.102   8.987  14.093
87315SOL    HW263785   2.206   8.949  14.196
87316SOL     OW63786   2.343   9.029   2.799
87316SOL    HW163787   2.292   9.094   2.751
87316SOL    HW263788   2.287   9.005   2.873
87317SOL     OW63789   2.850   9.570   5.259
87317SOL    HW163790   2.784   9.573   5.190
87317SOL    HW263791   2.896   9.654   5.252
87318SOL     OW63792   1.094  12.267   4.387
87318SOL    HW163793   1.002  12.254   4.365
87318SOL    HW263794   1.132  12.179   4.385
87319SOL     OW63795   4.677   8.392   4.901
87319SOL    HW163796   4.722   8.311   4.879
87319SOL    HW263797   4.651   8.382   4.992
87320SOL     OW63798  12.658   8.473   5.773
87320SOL    HW163799  12.615   8.550   5.810
87320SOL    HW263800  12.739   8.507   5.735
87321SOL     OW63801   7.777  12.887   4.600
87321SOL    HW163802   7.684  12.907   4.585
87321SOL    HW263803   7.804  12.949   4.667
87322SOL     OW63804   9.584   3.011   3.400
87322SOL    HW163805   9.663   3.025   3.349
87322SOL    HW263806   9.597   3.063   3.479
87323SOL     OW63807   3.658  11.353  11.966
87323SOL    HW163808   3.615  11.297  11.902
87323SOL    HW263809   3.718  11.295  12.013
87324SOL     OW63810  12.521   4.172   4.629
87324SOL    HW163811  12.440   4.124   4.615
87324SOL    HW263812  12.578   4.110   4.677
87325SOL     OW63813   8.219   7.092  12.496
87325SOL    HW163814   8.300   7.041  12.495
87325SOL    HW263815   8.188   7.085  12.586
87326SOL     OW63816   5.023   2.762  10.999
87326SOL    HW163817   5.036   2.829  10.933
87326SOL    HW263818   5.108   2.717  11.005
87327SOL     OW63819  13.691   2.478   6.022
87327SOL    HW163820  13.616   2.516   6.068
87327SOL    HW263821  13.729   2.417   6.085
87328SOL     OW63822   8.417  13.949  13.433
87328SOL    HW163823   8.336  13.986  13.397
87328SOL    HW263824   8.394  13.858  13.452
87329SOL     OW63825  12.635   6.660  14.751
87329SOL    HW163826  12.551   6.701  14.730
87329SOL    HW263827  12.698   6.708  14.697
87330SOL     OW63828   6.248   2.976   7.925
87330SOL    HW163829   6.170   2.984   7.870
87330SOL    HW263830   6.322   2.984   7.865
87331SOL     OW63831   5.306   3.869   3.943
87331SOL    HW163832   5.223   3.885   3.897
87331SOL    HW263833   5.373   3.880   3.876
87332SOL     OW63834   3.731  10.258  10.170
87332SOL    HW163835   3.655  10.255  10.228
87332SOL    HW263836   3.760  10.349  10.173
87333SOL     OW63837   7.120   7.078   4.209
87333SOL    HW163838   7.078   7.130   4.140
87333SOL    HW263839   7.124   6.989   4.174
87334SOL     OW63840   4.347   2.670  14.421
87334SOL    HW163841   4.273   2.706  14.373
87334SOL    HW263842   4.326   2.577  14.430
87335SOL     OW63843   5.158  12.932  14.714
87335SOL    HW163844   5.216  12.877  14.766
87335SOL    HW263845   5.129  13.001  14.774
87336SOL     OW63846   2.583   8.513   6.188
87336SOL    HW163847   2.597   8.587   6.130
87336SOL    HW263848   2.499   8.530   6.231
87337SOL     OW63849  12.476   8.143  13.918
87337SOL    HW163850  12.548   8.181  13.967
87337SOL    HW263851  12.469   8.196  13.839
87338SOL     OW63852   4.510  13.898   1.377
87338SOL    HW163853   4.523  13.938   1.291
87338SOL    HW263854   4.415  13.897   1.389
87339SOL     OW63855   7.234   5.197   1.834
87339SOL    HW163856   7.208   5.288   1.846
87339SOL    HW263857   7.312   5.186   1.889
87340SOL     OW63858  12.106   2.433   4.466
87340SOL    HW163859  12.141   2.430   4.377
87340SOL    HW263860  12.179   2.463   4.520
87341SOL     OW63861  12.128   8.883   1.194
87341SOL    HW163862  12.082   8.921   1.119
87341SOL    HW263863  12.149   8.957   1.250
87342SOL     OW63864   5.360  10.887   7.228
87342SOL    HW163865   5.421  10.960   7.239
87342SOL    HW263866   5.412  10.809   7.246
87343SOL     OW63867   2.163   4.464   5.225
87343SOL    HW163868   2.140   4.490   5.135
87343SOL    HW263869   2.207   4.541   5.262
87344SOL     OW63870   6.744   6.167   4.671
87344SOL    HW163871   6.832   6.133   4.654
87344SOL    HW263872   6.687   6.113   4.615
87345SOL     OW63873   5.139  14.331   7.776
87345SOL    HW163874   5.072  14.397   7.794
87345SOL    HW263875   5.167  14.349   7.686
87346SOL     OW63876  11.250  11.965   7.946
87346SOL    HW163877  11.281  12.054   7.932
87346SOL    HW263878  11.274  11.919   7.865
87347SOL     OW63879   6.942   2.461  14.816
87347SOL    HW163880   7.004   2.388  14.813
87347SOL    HW263881   6.994   2.535  14.847
87348SOL     OW63882  13.966   7.011   3.904
87348SOL    HW163883  14.047   7.011   3.853
87348SOL    HW263884  13.937   6.920   3.902
87349SOL     OW63885   5.356   9.057  14.315
87349SOL    HW163886   5.397   9.037  14.231
87349SOL    HW263887   5.332   8.971  14.351
87350SOL     OW63888   0.650   8.153   0.364
87350SOL    HW163889   0.680   8.105   0.441
87350SOL    HW263890   0.626   8.240   0.398
87351SOL     OW63891   0.946   4.994   5.290
87351SOL    HW163892   1.041   4.987   5.298
87351SOL    HW263893   0.933   5.044   5.208
87352SOL     OW63894   5.032   2.085   1.905
87352SOL    HW163895   5.014   2.109   1.814
87352SOL    HW263896   5.090   2.009   1.898
87353SOL     OW63897  13.524   3.699  13.646
87353SOL    HW163898  13.558   3.787  13.628
87353SOL    HW263899  13.444   3.714  13.696
87354SOL     OW63900   6.696   3.042   4.930
87354SOL    HW163901   6.601   3.029   4.924
87354SOL    HW263902   6.730   3.009   4.847
87355SOL     OW63903   9.023   3.788  14.263
87355SOL    HW163904   9.002   3.881  14.250
87355SOL    HW263905   8.963   3.741  14.204
87356SOL     OW63906  12.588  12.048  13.979
87356SOL    HW163907  12.525  12.005  13.920
87356SOL    HW263908  12.606  11.982  14.046
87357SOL     OW63909  14.753   3.371  11.532
87357SOL    HW163910  14.774   3.406  11.618
87357SOL    HW263911  14.732   3.279  11.548
87358SOL     OW63912  10.771  13.419   4.170
87358SOL    HW163913  10.794  13.334   4.134
87358SOL    HW263914  10.850  13.472   4.161
87359SOL     OW63915   1.504  12.487  12.134
87359SOL    HW163916   1.532  12.396  12.136
87359SOL    HW263917   1.580  12.537  12.163
87360SOL     OW63918  11.370  14.678  11.660
87360SOL    HW163919  11.449  14.670  11.713
87360SOL    HW263920  11.302  14.703  11.722
87361SOL     OW63921   9.975   5.827   7.036
87361SOL    HW163922   9.894   5.793   7.072
87361SOL    HW263923  10.023   5.862   7.112
87362SOL     OW63924   4.015   2.613   5.789
87362SOL    HW163925   3.968   2.676   5.734
87362SOL    HW263926   4.056   2.667   5.856
87363SOL     OW63927   5.615  11.263  14.470
87363SOL    HW163928   5.596  11.171  14.454
87363SOL    HW263929   5.667  11.263  14.551
87364SOL     OW63930  14.362   1.994   0.905
87364SOL    HW163931  14.399   1.911   0.875
87364SOL    HW263932  14.369   1.990   1.001
87365SOL     OW63933  10.457   0.792   8.119
87365SOL    HW163934  10.544   0.754   8.105
87365SOL    HW263935  10.472   0.862   8.183
87366SOL     OW63936   8.321  13.054   4.046
87366SOL    HW163937   8.356  13.117   4.110
87366SOL    HW263938   8.370  13.072   3.966
87367SOL     OW63939   3.115   8.787  14.437
87367SOL    HW163940   3.052   8.849  14.472
87367SOL    HW263941   3.081   8.765  14.350
87368SOL     OW63942   2.643  14.207   5.541
87368SOL    HW163943   2.579  14.197   5.471
87368SOL    HW263944   2.711  14.142   5.522
87369SOL     OW63945  12.832   3.397   3.814
87369SOL    HW163946  12.865   3.378   3.902
87369SOL    HW263947  12.810   3.490   3.817
87370SOL     OW63948   9.716  11.564  14.179
87370SOL    HW163949   9.740  11.520  14.261
87370SOL    HW263950   9.764  11.647  14.181
87371SOL     OW63951   9.293   4.339   4.250
87371SOL    HW163952   9.221   4.352   4.313
87371SOL    HW263953   9.267   4.261   4.201
87372SOL     OW63954  12.301   9.979   0.122
87372SOL    HW163955  12.351   9.902   0.093
87372SOL    HW263956  12.292  10.032   0.043
87373SOL     OW63957   1.501   2.324  11.315
87373SOL    HW163958   1.456   2.240  11.303
87373SOL    HW263959   1.457   2.364  11.390
87374SOL     OW63960  13.056  14.386  14.187
87374SOL    HW163961  13.152  14.388  14.191
87374SOL    HW263962  13.036  14.299  14.152
87375SOL     OW63963   2.510   5.171   4.951
87375SOL    HW163964   2.506   5.206   4.862
87375SOL    HW263965   2.423   5.187   4.988
87376SOL     OW63966   6.649  14.266   8.472
87376SOL    HW163967   6.593  14.199   8.433
87376SOL    HW263968   6.671  14.325   8.400
87377SOL     OW63969   8.554  10.501  11.757
87377SOL    HW163970   8.561  10.414  11.719
87377SOL    HW263971   8.630  10.509  11.814
87378SOL     OW63972   2.780   9.519   4.418
87378SOL    HW163973   2.775   9.610   4.449
87378SOL    HW263974   2.872   9.495   4.432
87379SOL     OW63975  11.736  10.710   0.478
87379SOL    HW163976  11.812  10.651   0.482
87379SOL    HW263977  11.687  10.692   0.558
87380SOL     OW63978  13.811   6.849   1.773
87380SOL    HW163979  13.790   6.895   1.855
87380SOL    HW263980  13.860   6.772   1.801
87381SOL     OW63981  13.006  12.303   3.743
87381SOL    HW163982  13.097  12.274   3.754
87381SOL    HW263983  12.969  12.243   3.678
87382SOL     OW63984   1.362   5.102   2.184
87382SOL    HW163985   1.273   5.124   2.158
87382SOL    HW263986   1.382   5.022   2.135
87383SOL     OW63987   9.608  14.419  13.957
87383SOL    HW163988   9.545  14.373  13.902
87383SOL    HW263989   9.560  14.438  14.038
87384SOL     OW63990  13.955   3.194   3.419
87384SOL    HW163991  14.016   3.157   3.354
87384SOL    HW263992  13.876   3.142   3.409
87385SOL     OW63993  14.541   9.784   2.684
87385SOL    HW163994  14.557   9.840   2.608
87385SOL    HW263995  14.458   9.741   2.665
87386SOL     OW63996   9.398   5.212   0.278
87386SOL    HW163997   9.427   5.166   0.357
87386SOL    HW263998   9.418   5.152   0.206
87387SOL     OW63999  11.524  11.203   4.120
87387SOL    HW164000  11.521  11.150   4.041
87387SOL    HW264001  11.569  11.283   4.094
87388SOL     OW64002  10.304   0.331   6.664
87388SOL    HW164003  10.295   0.423   6.689
87388SOL    HW264004  10.290   0.283   6.745
87389SOL     OW64005   3.313  12.694  14.535
87389SOL    HW164006   3.270  12.626  14.482
87389SOL    HW264007   3.365  12.744  14.472
87390SOL     OW64008   0.863   4.660   7.724
87390SOL    HW164009   0.789   4.619   7.680
87390SOL    HW264010   0.878   4.605   7.801
87391SOL     OW64011   1.062   2.578   1.167
87391SOL    HW164012   1.018   2.629   1.235
87391SOL    HW264013   1.147   2.555   1.205
87392SOL     OW64014  10.776   1.824  14.849
87392SOL    HW164015  10.717   1.860  14.783
87392SOL    HW264016  10.822   1.900   0.010
87393SOL     OW64017   5.029  11.643  10.606
87393SOL    HW164018   4.982  11.579  10.660
87393SOL    HW264019   5.103  11.670  10.660
87394SOL     OW64020  14.051   9.251   5.322
87394SOL    HW164021  14.118   9.319   5.317
87394SOL    HW264022  14.009   9.252   5.236
87395SOL     OW64023   1.298   7.909   6.925
87395SOL    HW164024   1.393   7.912   6.921
87395SOL    HW264025   1.269   7.963   6.852
87396SOL     OW64026  12.249   6.033   7.914
87396SOL    HW164027  12.216   6.111   7.871
87396SOL    HW264028  12.343   6.048   7.923
87397SOL     OW64029   1.188   3.126  14.396
87397SOL    HW164030   1.144   3.139  14.480
87397SOL    HW264031   1.204   3.215  14.364
87398SOL     OW64032   6.597   1.609   1.050
87398SOL    HW164033   6.640   1.635   1.132
87398SOL    HW264034   6.668   1.593   0.989
87399SOL     OW64035   6.405   0.853   6.024
87399SOL    HW164036   6.452   0.916   5.970
87399SOL    HW264037   6.468   0.783   6.040
87400SOL     OW64038  11.333   7.791   2.283
87400SOL    HW164039  11.309   7.840   2.361
87400SOL    HW264040  11.278   7.712   2.285
87401SOL     OW64041   9.339  12.890  10.393
87401SOL    HW164042   9.293  12.889  10.477
87401SOL    HW264043   9.413  12.830  10.405
87402SOL     OW64044   5.883   6.703   3.439
87402SOL    HW164045   5.891   6.790   3.478
87402SOL    HW264046   5.819   6.658   3.494
87403SOL     OW64047   6.950   5.038  10.360
87403SOL    HW164048   6.862   5.012  10.387
87403SOL    HW264049   7.008   4.994  10.423
87404SOL     OW64050  14.130  10.177   7.527
87404SOL    HW164051  14.150  10.180   7.433
87404SOL    HW264052  14.092  10.091   7.541
87405SOL     OW64053   8.138   3.059   4.150
87405SOL    HW164054   8.202   2.993   4.178
87405SOL    HW264055   8.139   3.123   4.221
87406SOL     OW64056   6.914   9.392   2.068
87406SOL    HW164057   6.886   9.469   2.117
87406SOL    HW264058   6.937   9.426   1.981
87407SOL     OW64059  11.948   2.367  14.859
87407SOL    HW164060  11.928   2.459  14.845
87407SOL    HW264061  12.041   2.366   0.009
87408SOL     OW64062   9.493   9.212   0.801
87408SOL    HW164063   9.544   9.235   0.723
87408SOL    HW264064   9.524   9.272   0.868
87409SOL     OW64065  10.075  14.798   1.617
87409SOL    HW164066  10.079  14.784   1.523
87409SOL    HW264067  10.049  14.713   1.653
87410SOL     OW64068   4.960   8.659   8.122
87410SOL    HW164069   4.865   8.654   8.107
87410SOL    HW264070   4.969   8.650   8.217
87411SOL     OW64071   3.602   1.755   9.170
87411SOL    HW164072   3.608   1.690   9.241
87411SOL    HW264073   3.511   1.786   9.175
87412SOL     OW64074  10.965   8.363  13.361
87412SOL    HW164075  10.921   8.433  13.409
87412SOL    HW264076  11.055   8.364  13.393
87413SOL     OW64077   4.388  10.335  13.961
87413SOL    HW164078   4.325  10.405  13.981
87413SOL    HW264079   4.380  10.322  13.866
87414SOL     OW64080  10.247  14.385  10.983
87414SOL    HW164081  10.254  14.360  10.890
87414SOL    HW264082  10.336  14.374  11.017
87415SOL     OW64083  14.834   6.564  11.287
87415SOL    HW164084  14.851   6.490  11.345
87415SOL    HW264085  14.852   6.530  11.199
87416SOL     OW64086  12.895   0.487   5.949
87416SOL    HW164087  12.989   0.468   5.948
87416SOL    HW264088  12.876   0.509   6.040
87417SOL     OW64089  12.411  10.892   8.467
87417SOL    HW164090  12.398  10.800   8.490
87417SOL    HW264091  12.486  10.920   8.519
87418SOL     OW64092  14.347   4.135  12.754
87418SOL    HW164093  14.433   4.123  12.715
87418SOL    HW264094  14.363   4.191  12.830
87419SOL     OW64095   5.127   8.819   4.190
87419SOL    HW164096   5.104   8.758   4.120
87419SOL    HW264097   5.116   8.906   4.150
87420SOL     OW64098   9.064   2.507  14.691
87420SOL    HW164099   9.006   2.435  14.664
87420SOL    HW264100   9.102   2.538  14.609
87421SOL     OW64101   8.881  12.614   3.331
87421SOL    HW164102   8.886  12.675   3.405
87421SOL    HW264103   8.889  12.670   3.254
87422SOL     OW64104   9.088  12.954   1.058
87422SOL    HW164105   9.151  12.971   1.128
87422SOL    HW264106   9.014  13.011   1.078
87423SOL     OW64107   7.604   8.583  14.155
87423SOL    HW164108   7.639   8.515  14.212
87423SOL    HW264109   7.524   8.545  14.119
87424SOL     OW64110   9.207  10.466   7.220
87424SOL    HW164111   9.258  10.511   7.153
87424SOL    HW264112   9.242  10.377   7.221
87425SOL     OW64113   2.116   8.905   2.233
87425SOL    HW164114   2.159   8.990   2.232
87425SOL    HW264115   2.134   8.867   2.147
87426SOL     OW64116   1.808   4.012   9.472
87426SOL    HW164117   1.799   4.060   9.554
87426SOL    HW264118   1.718   3.991   9.446
87427SOL     OW64119   4.469   0.102   2.294
87427SOL    HW164120   4.445   0.175   2.236
87427SOL    HW264121   4.448   0.133   2.381
87428SOL     OW64122   2.131  14.641  14.218
87428SOL    HW164123   2.042  14.610  14.236
87428SOL    HW264124   2.162  14.676  14.302
87429SOL     OW64125   2.528   1.221  11.705
87429SOL    HW164126   2.574   1.144  11.671
87429SOL    HW264127   2.555   1.227  11.796
87430SOL     OW64128   5.019  12.623   0.883
87430SOL    HW164129   5.048  12.582   0.964
87430SOL    HW264130   5.078  12.589   0.815
87431SOL     OW64131   3.789   3.577   8.907
87431SOL    HW164132   3.784   3.553   8.815
87431SOL    HW264133   3.709   3.541   8.946
87432SOL     OW64134   4.709   4.093   2.158
87432SOL    HW164135   4.727   4.071   2.250
87432SOL    HW264136   4.795   4.098   2.117
87433SOL     OW64137  12.069  13.369   8.103
87433SOL    HW164138  12.032  13.449   8.068
87433SOL    HW264139  11.993  13.313   8.123
87434SOL     OW64140   8.990  12.463  14.851
87434SOL    HW164141   8.926  12.459   0.049
87434SOL    HW264142   8.967  12.388  14.795
87435SOL     OW64143   0.978   7.705   5.158
87435SOL    HW164144   0.932   7.678   5.078
87435SOL    HW264145   0.999   7.624   5.203
87436SOL     OW64146   4.659  12.371   0.874
87436SOL    HW164147   4.679  12.464   0.885
87436SOL    HW264148   4.650  12.360   0.779
87437SOL     OW64149  12.214   4.964   6.590
87437SOL    HW164150  12.307   4.951   6.570
87437SOL    HW264151  12.211   4.978   6.684
87438SOL     OW64152   3.683   5.527   3.419
87438SOL    HW164153   3.701   5.553   3.509
87438SOL    HW264154   3.704   5.604   3.367
87439SOL     OW64155  11.539   1.816   7.490
87439SOL    HW164156  11.516   1.909   7.494
87439SOL    HW264157  11.633   1.815   7.470
87440SOL     OW64158  14.141   0.870   0.346
87440SOL    HW164159  14.207   0.813   0.307
87440SOL    HW264160  14.060   0.847   0.301
87441SOL     OW64161   1.036  12.316   8.206
87441SOL    HW164162   1.011  12.372   8.280
87441SOL    HW264163   0.954  12.299   8.159
87442SOL     OW64164   8.092  14.225  10.906
87442SOL    HW164165   8.163  14.181  10.860
87442SOL    HW264166   8.019  14.163  10.902
87443SOL     OW64167  12.551  12.204   7.310
87443SOL    HW164168  12.630  12.229   7.359
87443SOL    HW264169  12.556  12.254   7.229
87444SOL     OW64170   7.710   1.923   2.074
87444SOL    HW164171   7.707   2.019   2.075
87444SOL    HW264172   7.794   1.901   2.114
87445SOL     OW64173   3.061  11.610   0.740
87445SOL    HW164174   3.090  11.551   0.670
87445SOL    HW264175   3.036  11.690   0.694
87446SOL     OW64176   1.171   9.134   3.770
87446SOL    HW164177   1.164   9.222   3.734
87446SOL    HW264178   1.217   9.145   3.853
87447SOL     OW64179   8.814   1.663   6.525
87447SOL    HW164180   8.764   1.582   6.516
87447SOL    HW264181   8.785   1.718   6.452
87448SOL     OW64182   2.113   6.662   9.298
87448SOL    HW164183   2.153   6.613   9.369
87448SOL    HW264184   2.043   6.714   9.340
87449SOL     OW64185   3.880   4.555   1.139
87449SOL    HW164186   3.882   4.644   1.175
87449SOL    HW264187   3.798   4.518   1.172
87450SOL     OW64188  10.289  13.755   0.067
87450SOL    HW164189  10.209  13.792   0.028
87450SOL    HW264190  10.354  13.760  14.872
87451SOL     OW64191   1.665   4.295  10.918
87451SOL    HW164192   1.672   4.200  10.908
87451SOL    HW264193   1.737   4.330  10.865
87452SOL     OW64194   8.924  12.788   3.117
87452SOL    HW164195   8.863  12.853   3.151
87452SOL    HW264196   9.004  12.837   3.097
87453SOL     OW64197   6.252  11.293   0.889
87453SOL    HW164198   6.209  11.287   0.974
87453SOL    HW264199   6.196  11.243   0.829
87454SOL     OW64200   7.895  10.747  12.265
87454SOL    HW164201   7.836  10.739  12.340
87454SOL    HW264202   7.884  10.666  12.215
87455SOL     OW64203   9.071  14.439  12.157
87455SOL    HW164204   9.039  14.500  12.090
87455SOL    HW264205   9.103  14.495  12.227
87456SOL     OW64206  12.756   9.606   4.570
87456SOL    HW164207  12.782   9.541   4.505
87456SOL    HW264208  12.833   9.663   4.578
87457SOL     OW64209   7.982   6.650  10.123
87457SOL    HW164210   7.985   6.682  10.213
87457SOL    HW264211   7.918   6.706  10.080
87458SOL     OW64212  10.581   4.108   5.681
87458SOL    HW164213  10.498   4.151   5.662
87458SOL    HW264214  10.578   4.026   5.631
87459SOL     OW64215  10.019   0.104   9.244
87459SOL    HW164216   9.949   0.040   9.259
87459SOL    HW264217  10.058   0.116   9.331
87460SOL     OW64218   4.721   3.013   7.676
87460SOL    HW164219   4.769   2.935   7.704
87460SOL    HW264220   4.652   3.024   7.742
87461SOL     OW64221   9.235   3.361  11.220
87461SOL    HW164222   9.310   3.382  11.276
87461SOL    HW264223   9.211   3.272  11.245
87462SOL     OW64224   2.485   1.630  10.636
87462SOL    HW164225   2.398   1.668  10.622
87462SOL    HW264226   2.501   1.579  10.556
87463SOL     OW64227   9.257   2.587   9.458
87463SOL    HW164228   9.188   2.525   9.436
87463SOL    HW264229   9.277   2.569   9.550
87464SOL     OW64230  13.170   6.137  11.235
87464SOL    HW164231  13.124   6.098  11.310
87464SOL    HW264232  13.103   6.145  11.168
87465SOL     OW64233  13.066   8.202   6.487
87465SOL    HW164234  13.025   8.169   6.567
87465SOL    HW264235  12.993   8.230   6.433
87466SOL     OW64236   2.354  14.612   9.412
87466SOL    HW164237   2.355  14.706   9.398
87466SOL    HW264238   2.314  14.576   9.333
87467SOL     OW64239   1.156   0.611   6.307
87467SOL    HW164240   1.218   0.671   6.266
87467SOL    HW264241   1.177   0.613   6.400
87468SOL     OW64242   0.744  10.615  10.602
87468SOL    HW164243   0.718  10.706  10.610
87468SOL    HW264244   0.839  10.615  10.618
87469SOL     OW64245  10.355  14.181   9.365
87469SOL    HW164246  10.286  14.193   9.429
87469SOL    HW264247  10.436  14.190   9.414
87470SOL     OW64248   0.233   9.031   9.272
87470SOL    HW164249   0.170   8.974   9.315
87470SOL    HW264250   0.179   9.095   9.224
87471SOL     OW64251   6.727   4.204   5.527
87471SOL    HW164252   6.672   4.213   5.606
87471SOL    HW264253   6.792   4.273   5.535
87472SOL     OW64254   2.709  11.087   2.757
87472SOL    HW164255   2.721  11.104   2.664
87472SOL    HW264256   2.645  11.153   2.784
87473SOL     OW64257   6.167  11.795   7.054
87473SOL    HW164258   6.178  11.706   7.089
87473SOL    HW264259   6.217  11.851   7.113
87474SOL     OW64260   6.171  11.552   6.736
87474SOL    HW164261   6.152  11.479   6.677
87474SOL    HW264262   6.095  11.556   6.795
87475SOL     OW64263   5.174  13.525   6.351
87475SOL    HW164264   5.137  13.504   6.437
87475SOL    HW264265   5.176  13.442   6.304
87476SOL     OW64266   2.761   0.684  12.120
87476SOL    HW164267   2.752   0.620  12.050
87476SOL    HW264268   2.800   0.761  12.077
87477SOL     OW64269  13.373   5.181   5.237
87477SOL    HW164270  13.307   5.122   5.272
87477SOL    HW264271  13.327   5.232   5.170
87478SOL     OW64272   9.283   6.851  14.810
87478SOL    HW164273   9.209   6.907  14.830
87478SOL    HW264274   9.251   6.792  14.742
87479SOL     OW64275   2.845  10.580   8.075
87479SOL    HW164276   2.883  10.500   8.038
87479SOL    HW264277   2.847  10.566   8.170
87480SOL     OW64278   8.688  14.752   2.918
87480SOL    HW164279   8.610  14.733   2.866
87480SOL    HW264280   8.719  14.667   2.948
87481SOL     OW64281   2.865   7.688   6.880
87481SOL    HW164282   2.914   7.665   6.959
87481SOL    HW264283   2.873   7.784   6.874
87482SOL     OW64284  12.368   5.847  12.099
87482SOL    HW164285  12.397   5.832  12.189
87482SOL    HW264286  12.446   5.835  12.046
87483SOL     OW64287   9.711  12.268  10.806
87483SOL    HW164288   9.771  12.246  10.877
87483SOL    HW264289   9.764  12.321  10.745
87484SOL     OW64290  14.680   9.652  11.017
87484SOL    HW164291  14.617   9.596  10.973
87484SOL    HW264292  14.762   9.602  11.017
87485SOL     OW64293  12.466   1.198   1.348
87485SOL    HW164294  12.477   1.247   1.267
87485SOL    HW264295  12.553   1.201   1.390
87486SOL     OW64296   7.542   4.289   4.229
87486SOL    HW164297   7.587   4.322   4.151
87486SOL    HW264298   7.519   4.368   4.278
87487SOL     OW64299  10.397   7.779  14.096
87487SOL    HW164300  10.398   7.874  14.108
87487SOL    HW264301  10.479   7.760  14.051
87488SOL     OW64302   2.499   1.174   7.101
87488SOL    HW164303   2.447   1.252   7.124
87488SOL    HW264304   2.475   1.156   7.010
87489SOL     OW64305  10.812   6.361  13.307
87489SOL    HW164306  10.868   6.373  13.230
87489SOL    HW264307  10.807   6.266  13.317
87490SOL     OW64308  14.490  13.179   9.117
87490SOL    HW164309  14.489  13.271   9.091
87490SOL    HW264310  14.519  13.132   9.039
87491SOL     OW64311   3.879   6.564   9.375
87491SOL    HW164312   3.926   6.619   9.312
87491SOL    HW264313   3.795   6.609   9.387
87492SOL     OW64314   5.423   2.920   9.849
87492SOL    HW164315   5.473   2.890   9.773
87492SOL    HW264316   5.456   2.868   9.922
87493SOL     OW64317  11.657  13.226   7.336
87493SOL    HW164318  11.672  13.305   7.284
87493SOL    HW264319  11.581  13.185   7.295
87494SOL     OW64320  10.423  14.084  13.576
87494SOL    HW164321  10.360  14.156  13.571
87494SOL    HW264322  10.422  14.046  13.488
87495SOL     OW64323   4.173  13.337   7.265
87495SOL    HW164324   4.261  13.376   7.260
87495SOL    HW264325   4.173  13.290   7.348
87496SOL     OW64326  10.427  12.638   2.175
87496SOL    HW164327  10.388  12.557   2.141
87496SOL    HW264328  10.354  12.699   2.179
87497SOL     OW64329   5.564   9.658   2.981
87497SOL    HW164330   5.567   9.641   2.887
87497SOL    HW264331   5.622   9.593   3.020
87498SOL     OW64332  13.823   4.945   2.936
87498SOL    HW164333  13.837   4.913   2.847
87498SOL    HW264334  13.891   5.011   2.949
87499SOL     OW64335   6.233  13.284   3.478
87499SOL    HW164336   6.168  13.353   3.494
87499SOL    HW264337   6.194  13.204   3.513
87500SOL     OW64338   5.157  14.767   7.138
87500SOL    HW164339   5.244  14.805   7.123
87500SOL    HW264340   5.110  14.782   7.056
87501SOL     OW64341   5.791  12.133   5.249
87501SOL    HW164342   5.814  12.186   5.326
87501SOL    HW264343   5.873  12.089   5.226
87502SOL     OW64344   0.786  12.858   5.513
87502SOL    HW164345   0.748  12.835   5.428
87502SOL    HW264346   0.876  12.827   5.508
87503SOL     OW64347   8.046  13.928   0.263
87503SOL    HW164348   8.081  13.993   0.324
87503SOL    HW264349   8.121  13.906   0.206
87504SOL     OW64350   6.877   2.232   2.918
87504SOL    HW164351   6.945   2.225   2.985
87504SOL    HW264352   6.920   2.274   2.843
87505SOL     OW64353   8.966   2.865   5.114
87505SOL    HW164354   9.006   2.806   5.050
87505SOL    HW264355   8.951   2.947   5.066
87506SOL     OW64356  14.233   9.563   9.930
87506SOL    HW164357  14.157   9.621   9.932
87506SOL    HW264358  14.196   9.475   9.934
87507SOL     OW64359  13.549   8.744  11.623
87507SOL    HW164360  13.584   8.766  11.709
87507SOL    HW264361  13.589   8.659  11.602
87508SOL     OW64362  11.813  10.756   7.376
87508SOL    HW164363  11.718  10.748   7.380
87508SOL    HW264364  11.836  10.795   7.460
87509SOL     OW64365   9.871  10.940   3.638
87509SOL    HW164366   9.876  10.940   3.733
87509SOL    HW264367   9.955  10.905   3.609
87510SOL     OW64368  14.173   4.452   9.692
87510SOL    HW164369  14.193   4.402   9.771
87510SOL    HW264370  14.128   4.390   9.635
87511SOL     OW64371   1.533   2.533  11.872
87511SOL    HW164372   1.571   2.557  11.787
87511SOL    HW264373   1.484   2.452  11.853
87512SOL     OW64374  12.964   9.933   7.003
87512SOL    HW164375  12.989   9.986   6.927
87512SOL    HW264376  13.001   9.847   6.985
87513SOL     OW64377   4.457   1.516   4.598
87513SOL    HW164378   4.470   1.508   4.503
87513SOL    HW264379   4.484   1.431   4.633
87514SOL     OW64380  14.262   1.326   7.246
87514SOL    HW164381  14.245   1.374   7.327
87514SOL    HW264382  14.175   1.302   7.213
87515SOL     OW64383  11.191   9.589  10.132
87515SOL    HW164384  11.282   9.615  10.123
87515SOL    HW264385  11.155   9.598  10.043
87516SOL     OW64386   3.363   2.317   4.923
87516SOL    HW164387   3.272   2.304   4.897
87516SOL    HW264388   3.367   2.291   5.015
87517SOL     OW64389   4.736   8.811   9.692
87517SOL    HW164390   4.649   8.804   9.731
87517SOL    HW264391   4.795   8.816   9.767
87518SOL     OW64392  11.593   4.307  14.112
87518SOL    HW164393  11.563   4.217  14.119
87518SOL    HW264394  11.680   4.307  14.151
87519SOL     OW64395   5.352  11.773   9.917
87519SOL    HW164396   5.344  11.856   9.964
87519SOL    HW264397   5.299  11.785   9.839
87520SOL     OW64398   9.299   2.375  13.362
87520SOL    HW164399   9.260   2.396  13.447
87520SOL    HW264400   9.386   2.414  13.365
87521SOL     OW64401   1.467  10.955   2.829
87521SOL    HW164402   1.398  11.005   2.785
87521SOL    HW264403   1.544  10.969   2.773
87522SOL     OW64404   1.966  12.584  13.325
87522SOL    HW164405   1.911  12.600  13.402
87522SOL    HW264406   1.912  12.532  13.266
87523SOL     OW64407  10.362   7.494   7.200
87523SOL    HW164408  10.431   7.544   7.157
87523SOL    HW264409  10.281   7.533   7.169
87524SOL     OW64410   7.197   1.664  10.409
87524SOL    HW164411   7.179   1.577  10.445
87524SOL    HW264412   7.138   1.671  10.334
87525SOL     OW64413   4.537   8.726   0.279
87525SOL    HW164414   4.458   8.675   0.298
87525SOL    HW264415   4.527   8.751   0.187
87526SOL     OW64416   5.242   3.895   4.814
87526SOL    HW164417   5.153   3.921   4.838
87526SOL    HW264418   5.270   3.836   4.884
87527SOL     OW64419   7.246   0.248   2.937
87527SOL    HW164420   7.214   0.301   3.010
87527SOL    HW264421   7.170   0.199   2.907
87528SOL     OW64422  14.507  10.123   5.136
87528SOL    HW164423  14.461  10.169   5.206
87528SOL    HW264424  14.438  10.072   5.092
87529SOL     OW64425   9.949   5.276  10.689
87529SOL    HW164426   9.948   5.370  10.671
87529SOL    HW264427   9.872   5.242  10.645
87530SOL     OW64428   9.643  14.254  11.322
87530SOL    HW164429   9.647  14.235  11.416
87530SOL    HW264430   9.589  14.332  11.315
87531SOL     OW64431   6.337  11.312   2.098
87531SOL    HW164432   6.412  11.258   2.075
87531SOL    HW264433   6.261  11.261   2.069
87532SOL     OW64434  11.865   9.171   6.933
87532SOL    HW164435  11.818   9.172   7.017
87532SOL    HW264436  11.955   9.192   6.956
87533SOL     OW64437   8.033   8.607  13.896
87533SOL    HW164438   8.047   8.630  13.804
87533SOL    HW264439   7.938   8.602  13.906
87534SOL     OW64440   5.001  11.445   9.582
87534SOL    HW164441   5.057  11.387   9.634
87534SOL    HW264442   5.060  11.516   9.554
87535SOL     OW64443   8.355  13.651  13.392
87535SOL    HW164444   8.349  13.666  13.298
87535SOL    HW264445   8.264  13.633  13.419
87536SOL     OW64446   2.162  14.455   3.807
87536SOL    HW164447   2.208  14.430   3.727
87536SOL    HW264448   2.069  14.446   3.785
87537SOL     OW64449  12.478   5.782  12.600
87537SOL    HW164450  12.516   5.726  12.667
87537SOL    HW264451  12.454   5.862  12.647
87538SOL     OW64452   0.004  13.898   4.573
87538SOL    HW164453   0.081  13.846   4.599
87538SOL    HW264454  14.824  13.901   4.652
87539SOL     OW64455   2.343   4.316  11.205
87539SOL    HW164456   2.363   4.224  11.223
87539SOL    HW264457   2.407   4.364  11.257
87540SOL     OW64458  11.680  10.627  11.250
87540SOL    HW164459  11.627  10.688  11.198
87540SOL    HW264460  11.698  10.675  11.331
87541SOL     OW64461   3.568  11.677   0.467
87541SOL    HW164462   3.575  11.596   0.416
87541SOL    HW264463   3.554  11.745   0.401
87542SOL     OW64464  10.244  12.897  10.798
87542SOL    HW164465  10.274  12.988  10.794
87542SOL    HW264466  10.193  12.892  10.879
87543SOL     OW64467  12.409   0.193   3.585
87543SOL    HW164468  12.473   0.143   3.534
87543SOL    HW264469  12.460   0.263   3.625
87544SOL     OW64470   7.284   6.079  11.220
87544SOL    HW164471   7.203   6.068  11.171
87544SOL    HW264472   7.276   6.018  11.294
87545SOL     OW64473  14.773  10.338   1.585
87545SOL    HW164474  14.742  10.384   1.507
87545SOL    HW264475  14.703  10.351   1.650
87546SOL     OW64476   9.303   3.204   7.765
87546SOL    HW164477   9.273   3.259   7.837
87546SOL    HW264478   9.253   3.234   7.689
87547SOL     OW64479   4.138  13.376   9.585
87547SOL    HW164480   4.113  13.468   9.592
87547SOL    HW264481   4.211  13.376   9.523
87548SOL     OW64482   6.596   0.634   6.041
87548SOL    HW164483   6.526   0.569   6.046
87548SOL    HW264484   6.655   0.601   5.974
87549SOL     OW64485   7.231   6.440   7.106
87549SOL    HW164486   7.146   6.398   7.100
87549SOL    HW264487   7.292   6.375   7.070
87550SOL     OW64488   9.810  12.859  13.146
87550SOL    HW164489   9.781  12.917  13.075
87550SOL    HW264490   9.760  12.889  13.222
87551SOL     OW64491   7.750  10.104  13.869
87551SOL    HW164492   7.705  10.100  13.954
87551SOL    HW264493   7.684  10.073  13.806
87552SOL     OW64494   6.651   9.559  12.066
87552SOL    HW164495   6.567   9.530  12.101
87552SOL    HW264496   6.656   9.652  12.091
87553SOL     OW64497   5.825  13.185  10.703
87553SOL    HW164498   5.848  13.102  10.660
87553SOL    HW264499   5.835  13.251  10.634
87554SOL     OW64500   2.917  10.274  10.531
87554SOL    HW164501   2.997  10.289  10.583
87554SOL    HW264502   2.878  10.196  10.570
87555SOL     OW64503   4.752   9.126   6.955
87555SOL    HW164504   4.687   9.115   6.885
87555SOL    HW264505   4.705   9.103   7.035
87556SOL     OW64506   0.638  12.496   1.478
87556SOL    HW164507   0.632  12.558   1.405
87556SOL    HW264508   0.564  12.519   1.535
87557SOL     OW64509   2.570   3.770   1.683
87557SOL    HW164510   2.515   3.838   1.644
87557SOL    HW264511   2.657   3.786   1.647
87558SOL     OW64512  11.129   2.988   4.162
87558SOL    HW164513  11.208   3.004   4.213
87558SOL    HW264514  11.064   3.048   4.197
87559SOL     OW64515   6.425  12.927  12.724
87559SOL    HW164516   6.510  12.928  12.681
87559SOL    HW264517   6.392  12.838  12.711
87560SOL     OW64518   8.842  10.908  13.427
87560SOL    HW164519   8.919  10.962  13.412
87560SOL    HW264520   8.806  10.938  13.510
87561SOL     OW64521   2.111  10.475   4.655
87561SOL    HW164522   2.148  10.463   4.568
87561SOL    HW264523   2.023  10.436   4.649
87562SOL     OW64524   7.823  13.413   0.736
87562SOL    HW164525   7.819  13.456   0.651
87562SOL    HW264526   7.916  13.392   0.748
87563SOL     OW64527   1.827   4.276   8.667
87563SOL    HW164528   1.792   4.187   8.672
87563SOL    HW264529   1.844   4.300   8.757
87564SOL     OW64530   3.539   0.534   2.722
87564SOL    HW164531   3.529   0.588   2.643
87564SOL    HW264532   3.615   0.479   2.703
87565SOL     OW64533   2.522  11.153   6.075
87565SOL    HW164534   2.569  11.193   6.148
87565SOL    HW264535   2.569  11.184   5.997
87566SOL     OW64536  13.482  11.876   9.745
87566SOL    HW164537  13.458  11.846   9.833
87566SOL    HW264538  13.411  11.935   9.720
87567SOL     OW64539  13.171   3.234  11.499
87567SOL    HW164540  13.167   3.150  11.453
87567SOL    HW264541  13.128   3.218  11.583
87568SOL     OW64542  11.414   7.336   2.603
87568SOL    HW164543  11.320   7.353   2.595
87568SOL    HW264544  11.432   7.345   2.697
87569SOL     OW64545   3.619   7.145  11.193
87569SOL    HW164546   3.682   7.166  11.124
87569SOL    HW264547   3.667   7.161  11.274
87570SOL     OW64548   4.790   2.551   9.293
87570SOL    HW164549   4.765   2.642   9.311
87570SOL    HW264550   4.885   2.550   9.304
87571SOL     OW64551   9.721   1.878  10.575
87571SOL    HW164552   9.699   1.969  10.593
87571SOL    HW264553   9.649   1.828  10.614
87572SOL     OW64554   1.358   9.349   5.928
87572SOL    HW164555   1.449   9.368   5.906
87572SOL    HW264556   1.317   9.328   5.844
87573SOL     OW64557   4.283   4.702  11.780
87573SOL    HW164558   4.262   4.759  11.705
87573SOL    HW264559   4.356   4.649  11.749
87574SOL     OW64560   4.612   1.889   6.710
87574SOL    HW164561   4.687   1.935   6.748
87574SOL    HW264562   4.647   1.845   6.633
87575SOL     OW64563   2.224   4.770   2.132
87575SOL    HW164564   2.309   4.806   2.106
87575SOL    HW264565   2.174   4.845   2.165
87576SOL     OW64566   2.074   4.234  12.255
87576SOL    HW164567   2.040   4.201  12.172
87576SOL    HW264568   2.161   4.194  12.263
87577SOL     OW64569   7.731   0.038   3.048
87577SOL    HW164570   7.750   0.063   3.138
87577SOL    HW264571   7.641   0.067   3.033
87578SOL     OW64572   2.296  10.775  10.708
87578SOL    HW164573   2.268  10.856  10.666
87578SOL    HW264574   2.279  10.706  10.644
87579SOL     OW64575   4.705   7.260   2.656
87579SOL    HW164576   4.791   7.218   2.658
87579SOL    HW264577   4.679   7.257   2.564
87580SOL     OW64578   9.752  13.376   5.979
87580SOL    HW164579   9.664  13.411   5.968
87580SOL    HW264580   9.744  13.315   6.053
87581SOL     OW64581  12.406   7.086   7.814
87581SOL    HW164582  12.336   7.060   7.754
87581SOL    HW264583  12.484   7.041   7.781
87582SOL     OW64584  11.719   6.628  11.834
87582SOL    HW164585  11.790   6.691  11.848
87582SOL    HW264586  11.703   6.630  11.740
87583SOL     OW64587  13.274   5.924   1.876
87583SOL    HW164588  13.195   5.871   1.866
87583SOL    HW264589  13.346   5.860   1.875
87584SOL     OW64590  13.717   1.608   0.595
87584SOL    HW164591  13.761   1.645   0.518
87584SOL    HW264592  13.755   1.656   0.669
87585SOL     OW64593   1.303   6.233   3.372
87585SOL    HW164594   1.262   6.285   3.303
87585SOL    HW264595   1.388   6.207   3.336
87586SOL     OW64596  13.304   0.963  14.859
87586SOL    HW164597  13.262   0.934   0.066
87586SOL    HW264598  13.364   1.033   0.011
87587SOL     OW64599   9.243   5.373   3.030
87587SOL    HW164600   9.201   5.399   2.948
87587SOL    HW264601   9.185   5.307   3.067
87588SOL     OW64602   3.341  14.027  11.372
87588SOL    HW164603   3.317  14.118  11.392
87588SOL    HW264604   3.436  14.025  11.379
87589SOL     OW64605   3.089   0.041  12.282
87589SOL    HW164606   3.062   0.093  12.206
87589SOL    HW264607   3.009   0.032  12.334
87590SOL     OW64608  11.089   8.682  11.763
87590SOL    HW164609  11.022   8.741  11.798
87590SOL    HW264610  11.087   8.697  11.668
87591SOL     OW64611  14.049   1.802   4.924
87591SOL    HW164612  14.060   1.733   4.859
87591SOL    HW264613  14.039   1.755   5.007
87592SOL     OW64614  12.269  13.643  10.781
87592SOL    HW164615  12.198  13.676  10.726
87592SOL    HW264616  12.339  13.620  10.720
87593SOL     OW64617  11.280   7.347   0.103
87593SOL    HW164618  11.361   7.308   0.070
87593SOL    HW264619  11.308   7.419   0.159
87594SOL     OW64620   7.372  12.772   4.762
87594SOL    HW164621   7.311  12.786   4.689
87594SOL    HW264622   7.356  12.682   4.789
87595SOL     OW64623   8.879   5.121   3.956
87595SOL    HW164624   8.793   5.079   3.955
87595SOL    HW264625   8.897   5.136   4.048
87596SOL     OW64626   3.362  14.676   2.034
87596SOL    HW164627   3.425  14.659   2.105
87596SOL    HW264628   3.300  14.738   2.072
87597SOL     OW64629  14.417  13.235   3.876
87597SOL    HW164630  14.489  13.254   3.936
87597SOL    HW264631  14.361  13.313   3.881
87598SOL     OW64632   8.503   1.141   9.059
87598SOL    HW164633   8.520   1.114   8.968
87598SOL    HW264634   8.407   1.145   9.065
87599SOL     OW64635   9.453   1.171  11.418
87599SOL    HW164636   9.470   1.145  11.509
87599SOL    HW264637   9.513   1.244  11.403
87600SOL     OW64638   4.897   7.747   2.725
87600SOL    HW164639   4.828   7.785   2.670
87600SOL    HW264640   4.924   7.668   2.678
87601SOL     OW64641  12.017   5.325   9.415
87601SOL    HW164642  11.974   5.408   9.394
87601SOL    HW264643  12.110   5.348   9.424
87602SOL     OW64644   4.456   4.519  11.713
87602SOL    HW164645   4.546   4.552  11.710
87602SOL    HW264646   4.465   4.425  11.703
87603SOL     OW64647   1.163  12.322  12.373
87603SOL    HW164648   1.179  12.303  12.280
87603SOL    HW264649   1.071  12.299  12.386
87604SOL     OW64650   4.999  13.492   6.002
87604SOL    HW164651   5.020  13.422   5.940
87604SOL    HW264652   5.083  13.520   6.037
87605SOL     OW64653   7.138   2.933   5.597
87605SOL    HW164654   7.057   2.886   5.618
87605SOL    HW264655   7.115   2.988   5.522
87606SOL     OW64656  11.305   0.960   6.669
87606SOL    HW164657  11.389   0.930   6.635
87606SOL    HW264658  11.329   1.018   6.742
87607SOL     OW64659  11.811  13.609   1.883
87607SOL    HW164660  11.748  13.577   1.948
87607SOL    HW264661  11.795  13.555   1.806
87608SOL     OW64662   4.704   4.039   9.841
87608SOL    HW164663   4.733   4.011   9.928
87608SOL    HW264664   4.736   3.971   9.782
87609SOL     OW64665   0.048   7.104   8.543
87609SOL    HW164666   0.090   7.148   8.617
87609SOL    HW264667   0.071   7.157   8.467
87610SOL     OW64668   4.180   2.926   9.891
87610SOL    HW164669   4.117   2.864   9.927
87610SOL    HW264670   4.260   2.911   9.940
87611SOL     OW64671   2.263   3.373   5.673
87611SOL    HW164672   2.192   3.437   5.670
87611SOL    HW264673   2.322   3.400   5.603
87612SOL     OW64674  13.287   5.877   6.693
87612SOL    HW164675  13.229   5.814   6.651
87612SOL    HW264676  13.349   5.824   6.742
87613SOL     OW64677   4.856   0.468   3.001
87613SOL    HW164678   4.950   0.472   3.022
87613SOL    HW264679   4.848   0.518   2.920
87614SOL     OW64680  10.430   4.112   0.095
87614SOL    HW164681  10.408   4.030   0.140
87614SOL    HW264682  10.525   4.115   0.096
87615SOL     OW64683   0.445   8.031  12.251
87615SOL    HW164684   0.415   7.971  12.320
87615SOL    HW264685   0.373   8.034  12.188
87616SOL     OW64686   3.219  10.118  12.581
87616SOL    HW164687   3.237  10.198  12.532
87616SOL    HW264688   3.275  10.126  12.659
87617SOL     OW64689   6.086   0.613   0.338
87617SOL    HW164690   6.126   0.541   0.289
87617SOL    HW264691   6.134   0.616   0.421
87618SOL     OW64692   4.521   9.928  14.501
87618SOL    HW164693   4.516   9.862  14.571
87618SOL    HW264694   4.522  10.012  14.548
87619SOL     OW64695   2.637  13.587   3.425
87619SOL    HW164696   2.564  13.549   3.474
87619SOL    HW264697   2.697  13.619   3.492
87620SOL     OW64698  13.470   1.419   5.828
87620SOL    HW164699  13.446   1.501   5.784
87620SOL    HW264700  13.448   1.350   5.765
87621SOL     OW64701  13.070  10.710  11.542
87621SOL    HW164702  13.157  10.678  11.568
87621SOL    HW264703  13.030  10.637  11.496
87622SOL     OW64704   7.299   0.676   1.164
87622SOL    HW164705   7.377   0.647   1.211
87622SOL    HW264706   7.273   0.757   1.208
87623SOL     OW64707   1.315   7.213   4.120
87623SOL    HW164708   1.399   7.255   4.100
87623SOL    HW264709   1.325   7.179   4.209
87624SOL     OW64710  13.973  10.226   1.982
87624SOL    HW164711  14.001  10.204   2.071
87624SOL    HW264712  13.960  10.141   1.939
87625SOL     OW64713   5.700   5.430   1.834
87625SOL    HW164714   5.761   5.447   1.763
87625SOL    HW264715   5.615   5.423   1.791
87626SOL     OW64716   4.413   7.697  14.650
87626SOL    HW164717   4.501   7.683  14.686
87626SOL    HW264718   4.423   7.774  14.594
87627SOL     OW64719  14.003  12.218   2.610
87627SOL    HW164720  13.922  12.183   2.646
87627SOL    HW264721  14.059  12.232   2.686
87628SOL     OW64722   1.271   3.522   4.449
87628SOL    HW164723   1.320   3.452   4.494
87628SOL    HW264724   1.184   3.485   4.435
87629SOL     OW64725   3.183   9.797   0.561
87629SOL    HW164726   3.224   9.782   0.646
87629SOL    HW264727   3.186   9.711   0.518
87630SOL     OW64728   6.823   7.550   2.652
87630SOL    HW164729   6.763   7.504   2.593
87630SOL    HW264730   6.832   7.638   2.614
87631SOL     OW64731  10.612   4.827  12.010
87631SOL    HW164732  10.549   4.875  11.956
87631SOL    HW264733  10.678   4.796  11.948
87632SOL     OW64734   6.435   6.410  14.037
87632SOL    HW164735   6.490   6.351  13.986
87632SOL    HW264736   6.391   6.465  13.972
87633SOL     OW64737   2.833   0.762   7.904
87633SOL    HW164738   2.922   0.794   7.892
87633SOL    HW264739   2.777   0.832   7.870
87634SOL     OW64740   2.043   9.052   5.100
87634SOL    HW164741   2.052   8.985   5.032
87634SOL    HW264742   1.989   9.012   5.167
87635SOL     OW64743  12.307   7.276   4.177
87635SOL    HW164744  12.298   7.230   4.261
87635SOL    HW264745  12.277   7.365   4.196
87636SOL     OW64746   1.950  13.629   0.272
87636SOL    HW164747   1.868  13.625   0.222
87636SOL    HW264748   1.972  13.722   0.274
87637SOL     OW64749   2.376   3.711  11.765
87637SOL    HW164750   2.393   3.763  11.844
87637SOL    HW264751   2.357   3.775  11.697
87638SOL     OW64752   3.201   2.621  11.673
87638SOL    HW164753   3.208   2.527  11.687
87638SOL    HW264754   3.271   2.659  11.726
87639SOL     OW64755   8.460   3.308   3.076
87639SOL    HW164756   8.372   3.293   3.112
87639SOL    HW264757   8.463   3.253   2.998
87640SOL     OW64758   0.391   6.835   7.916
87640SOL    HW164759   0.420   6.917   7.875
87640SOL    HW264760   0.439   6.831   7.999
87641SOL     OW64761   8.751   0.684   9.163
87641SOL    HW164762   8.680   0.619   9.157
87641SOL    HW264763   8.707   0.765   9.188
87642SOL     OW64764   1.036  10.494   6.595
87642SOL    HW164765   0.964  10.476   6.534
87642SOL    HW264766   0.994  10.541   6.667
87643SOL     OW64767   0.414   8.567   0.650
87643SOL    HW164768   0.327   8.535   0.626
87643SOL    HW264769   0.410   8.576   0.746
87644SOL     OW64770   6.881   6.923  13.584
87644SOL    HW164771   6.928   6.989  13.532
87644SOL    HW264772   6.924   6.926  13.670
87645SOL     OW64773   5.670  10.051   5.363
87645SOL    HW164774   5.653  10.143   5.381
87645SOL    HW264775   5.593  10.021   5.314
87646SOL     OW64776  11.649   2.882   8.059
87646SOL    HW164777  11.665   2.824   8.133
87646SOL    HW264778  11.622   2.823   7.988
87647SOL     OW64779   5.847  11.547   9.658
87647SOL    HW164780   5.916  11.575   9.598
87647SOL    HW264781   5.783  11.503   9.602
87648SOL     OW64782   3.088   4.026   3.291
87648SOL    HW164783   3.064   4.103   3.239
87648SOL    HW264784   3.004   3.990   3.320
87649SOL     OW64785  10.244   1.276   4.138
87649SOL    HW164786  10.176   1.322   4.089
87649SOL    HW264787  10.322   1.282   4.082
87650SOL     OW64788   2.257   9.073  11.103
87650SOL    HW164789   2.163   9.073  11.088
87650SOL    HW264790   2.294   9.035  11.023
87651SOL     OW64791   4.657  14.840   3.113
87651SOL    HW164792   4.565  14.858   3.095
87651SOL    HW264793   4.705   0.037   3.071
87652SOL     OW64794   9.339   8.090  13.474
87652SOL    HW164795   9.244   8.084  13.486
87652SOL    HW264796   9.358   8.184  13.476
87653SOL     OW64797  11.539  10.829   3.103
87653SOL    HW164798  11.613  10.890   3.102
87653SOL    HW264799  11.477  10.865   3.039
87654SOL     OW64800  12.039   1.070  10.869
87654SOL    HW164801  12.066   1.102  10.955
87654SOL    HW264802  11.976   1.135  10.838
87655SOL     OW64803  12.759   2.277   4.396
87655SOL    HW164804  12.683   2.218   4.401
87655SOL    HW264805  12.774   2.288   4.302
87656SOL     OW64806   1.646   1.601   0.771
87656SOL    HW164807   1.690   1.633   0.850
87656SOL    HW264808   1.646   1.506   0.780
87657SOL     OW64809   7.554  10.914   0.694
87657SOL    HW164810   7.624  10.852   0.674
87657SOL    HW264811   7.476  10.876   0.655
87658SOL     OW64812   2.921   4.230   6.782
87658SOL    HW164813   2.949   4.310   6.736
87658SOL    HW264814   2.831   4.217   6.753
87659SOL     OW64815   5.535   0.281   0.141
87659SOL    HW164816   5.462   0.341   0.153
87659SOL    HW264817   5.546   0.275   0.046
87660SOL     OW64818   0.843   7.334  10.901
87660SOL    HW164819   0.869   7.289  10.821
87660SOL    HW264820   0.926   7.353  10.946
87661SOL     OW64821   2.846   6.945   0.432
87661SOL    HW164822   2.906   7.013   0.401
87661SOL    HW264823   2.759   6.979   0.414
87662SOL     OW64824  10.944  11.299  12.219
87662SOL    HW164825  10.977  11.286  12.308
87662SOL    HW264826  10.854  11.328  12.230
87663SOL     OW64827   2.297   3.149  10.833
87663SOL    HW164828   2.210   3.141  10.871
87663SOL    HW264829   2.352   3.180  10.905
87664SOL     OW64830   8.494  10.425   0.946
87664SOL    HW164831   8.566  10.488   0.940
87664SOL    HW264832   8.536  10.340   0.937
87665SOL     OW64833   9.410  12.128   0.210
87665SOL    HW164834   9.452  12.195   0.264
87665SOL    HW264835   9.424  12.157   0.120
87666SOL     OW64836   5.686   6.344   2.822
87666SOL    HW164837   5.724   6.430   2.807
87666SOL    HW264838   5.736   6.308   2.896
87667SOL     OW64839   4.835  13.811  14.452
87667SOL    HW164840   4.875  13.728  14.478
87667SOL    HW264841   4.811  13.799  14.360
87668SOL     OW64842   6.684   9.043  13.243
87668SOL    HW164843   6.653   9.006  13.325
87668SOL    HW264844   6.708   9.133  13.265
87669SOL     OW64845   4.405  10.762  10.491
87669SOL    HW164846   4.456  10.683  10.475
87669SOL    HW264847   4.314  10.733  10.491
87670SOL     OW64848   4.752   7.068   0.772
87670SOL    HW164849   4.709   7.150   0.796
87670SOL    HW264850   4.835   7.095   0.733
87671SOL     OW64851  12.179   8.838   9.166
87671SOL    HW164852  12.242   8.798   9.106
87671SOL    HW264853  12.181   8.782   9.244
87672SOL     OW64854   5.205   4.594   9.743
87672SOL    HW164855   5.146   4.563   9.674
87672SOL    HW264856   5.158   4.668   9.782
87673SOL     OW64857   0.111   9.585   9.198
87673SOL    HW164858   0.080   9.629   9.277
87673SOL    HW264859   0.202   9.563   9.218
87674SOL     OW64860   9.923   5.309   6.976
87674SOL    HW164861   9.958   5.238   6.922
87674SOL    HW264862   9.846   5.340   6.929
87675SOL     OW64863   4.570   1.155  11.455
87675SOL    HW164864   4.615   1.197  11.382
87675SOL    HW264865   4.482   1.193  11.454
87676SOL     OW64866  10.564   3.923   4.342
87676SOL    HW164867  10.503   3.849   4.342
87676SOL    HW264868  10.633   3.896   4.403
87677SOL     OW64869  14.113   8.492   4.254
87677SOL    HW164870  14.133   8.459   4.341
87677SOL    HW264871  14.022   8.520   4.259
87678SOL     OW64872   2.035  12.706   6.604
87678SOL    HW164873   2.111  12.746   6.646
87678SOL    HW264874   2.005  12.641   6.667
87679SOL     OW64875  10.950   8.106  12.699
87679SOL    HW164876  10.994   8.047  12.760
87679SOL    HW264877  10.998   8.189  12.707
87680SOL     OW64878   7.644  10.570   8.576
87680SOL    HW164879   7.628  10.621   8.656
87680SOL    HW264880   7.705  10.624   8.525
87681SOL     OW64881  11.245  12.048  14.706
87681SOL    HW164882  11.245  11.953  14.716
87681SOL    HW264883  11.172  12.066  14.647
87682SOL     OW64884   8.136  12.400  11.746
87682SOL    HW164885   8.213  12.452  11.726
87682SOL    HW264886   8.149  12.371  11.837
87683SOL     OW64887   3.571   3.319   4.444
87683SOL    HW164888   3.519   3.382   4.495
87683SOL    HW264889   3.662   3.340   4.465
87684SOL     OW64890   6.416   6.700   3.285
87684SOL    HW164891   6.474   6.715   3.359
87684SOL    HW264892   6.329   6.724   3.317
87685SOL     OW64893   0.401   8.340  12.208
87685SOL    HW164894   0.461   8.322  12.136
87685SOL    HW264895   0.373   8.254  12.239
87686SOL     OW64896   5.805  10.278   4.827
87686SOL    HW164897   5.817  10.286   4.922
87686SOL    HW264898   5.737  10.211   4.817
87687SOL     OW64899   4.321  10.599   1.913
87687SOL    HW164900   4.358  10.675   1.957
87687SOL    HW264901   4.332  10.617   1.820
87688SOL     OW64902  11.766   5.368   9.872
87688SOL    HW164903  11.791   5.299   9.934
87688SOL    HW264904  11.780   5.327   9.786
87689SOL     OW64905   1.749   3.681  14.211
87689SOL    HW164906   1.797   3.685  14.129
87689SOL    HW264907   1.659   3.663  14.186
87690SOL     OW64908  13.160   8.180   1.179
87690SOL    HW164909  13.222   8.112   1.152
87690SOL    HW264910  13.099   8.135   1.237
87691SOL     OW64911  10.124   9.527  11.237
87691SOL    HW164912  10.174   9.590  11.290
87691SOL    HW264913  10.118   9.450  11.293
87692SOL     OW64914  12.794  13.555   8.519
87692SOL    HW164915  12.872  13.588   8.474
87692SOL    HW264916  12.726  13.619   8.501
87693SOL     OW64917   4.901   6.140  10.114
87693SOL    HW164918   4.968   6.196  10.076
87693SOL    HW264919   4.912   6.056  10.069
87694SOL     OW64920   7.466  11.286  12.635
87694SOL    HW164921   7.544  11.245  12.598
87694SOL    HW264922   7.393  11.238  12.595
87695SOL     OW64923   5.218  12.845  12.078
87695SOL    HW164924   5.231  12.934  12.046
87695SOL    HW264925   5.292  12.796  12.043
87696SOL     OW64926   4.433  14.354   1.124
87696SOL    HW164927   4.511  14.319   1.167
87696SOL    HW264928   4.463  14.436   1.085
87697SOL     OW64929   7.013  10.219   0.231
87697SOL    HW164930   6.937  10.224   0.173
87697SOL    HW264931   7.086  10.198   0.172
87698SOL     OW64932   6.103  12.047   3.536
87698SOL    HW164933   6.033  12.077   3.593
87698SOL    HW264934   6.119  12.119   3.476
87699SOL     OW64935   5.988  12.719   4.865
87699SOL    HW164936   5.932  12.642   4.877
87699SOL    HW264937   5.962  12.755   4.780
87700SOL     OW64938   7.331   8.061   0.121
87700SOL    HW164939   7.250   8.071   0.171
87700SOL    HW264940   7.320   8.120   0.046
87701SOL     OW64941   1.473   8.901   3.810
87701SOL    HW164942   1.562   8.883   3.779
87701SOL    HW264943   1.416   8.876   3.737
87702SOL     OW64944   5.276   1.892  13.895
87702SOL    HW164945   5.240   1.827  13.834
87702SOL    HW264946   5.207   1.906  13.959
87703SOL     OW64947   8.318   5.127  11.201
87703SOL    HW164948   8.236   5.151  11.244
87703SOL    HW264949   8.370   5.084  11.269
87704SOL     OW64950   1.433   2.866   1.577
87704SOL    HW164951   1.465   2.956   1.581
87704SOL    HW264952   1.393   2.858   1.491
87705SOL     OW64953  13.950   8.186  11.001
87705SOL    HW164954  13.985   8.127  11.068
87705SOL    HW264955  13.886   8.132  10.954
87706SOL     OW64956  12.563   8.887  11.458
87706SOL    HW164957  12.658   8.885  11.456
87706SOL    HW264958  12.538   8.949  11.389
87707SOL     OW64959   0.144   9.205   8.379
87707SOL    HW164960   0.107   9.259   8.449
87707SOL    HW264961   0.235   9.191   8.406
87708SOL     OW64962  13.982   7.892   4.064
87708SOL    HW164963  13.911   7.829   4.058
87708SOL    HW264964  14.021   7.876   4.150
87709SOL     OW64965   3.495  13.294  13.916
87709SOL    HW164966   3.474  13.224  13.855
87709SOL    HW264967   3.502  13.250  14.001
87710SOL     OW64968   1.124  11.266   6.137
87710SOL    HW164969   1.050  11.222   6.095
87710SOL    HW264970   1.090  11.297   6.221
87711SOL     OW64971   0.929   7.589   4.826
87711SOL    HW164972   0.907   7.681   4.807
87711SOL    HW264973   0.922   7.545   4.741
87712SOL     OW64974   4.989   3.801   9.000
87712SOL    HW164975   5.069   3.830   8.955
87712SOL    HW264976   5.020   3.742   9.068
87713SOL     OW64977   3.554   8.013   1.839
87713SOL    HW164978   3.535   7.970   1.756
87713SOL    HW264979   3.468   8.033   1.876
87714SOL     OW64980  12.930  10.824   1.226
87714SOL    HW164981  12.913  10.730   1.233
87714SOL    HW264982  12.910  10.845   1.134
87715SOL     OW64983   8.639  13.694   9.689
87715SOL    HW164984   8.608  13.740   9.611
87715SOL    HW264985   8.667  13.764   9.749
87716SOL     OW64986   6.937   4.963  12.230
87716SOL    HW164987   6.933   4.869  12.211
87716SOL    HW264988   6.943   4.968  12.325
87717SOL     OW64989   8.068  11.123   4.431
87717SOL    HW164990   8.150  11.129   4.382
87717SOL    HW264991   8.000  11.122   4.363
87718SOL     OW64992   0.354   7.250   9.193
87718SOL    HW164993   0.433   7.227   9.241
87718SOL    HW264994   0.354   7.191   9.118
87719SOL     OW64995   0.455   5.824  12.912
87719SOL    HW164996   0.481   5.819  13.004
87719SOL    HW264997   0.537   5.841  12.865
87720SOL     OW64998  12.149  12.013   4.779
87720SOL    HW164999  12.167  11.948   4.712
87720SOL    HW265000  12.227  12.068   4.782
87721SOL     OW65001   1.490   8.158   3.701
87721SOL    HW165002   1.567   8.211   3.722
87721SOL    HW265003   1.461   8.123   3.785
87722SOL     OW65004   9.030   8.844   8.382
87722SOL    HW165005   9.010   8.775   8.445
87722SOL    HW265006   8.945   8.880   8.358
87723SOL     OW65007  12.852   5.979   0.762
87723SOL    HW165008  12.946   5.970   0.748
87723SOL    HW265009  12.844   6.037   0.838
87724SOL     OW65010  14.219   2.193  11.022
87724SOL    HW165011  14.256   2.109  11.046
87724SOL    HW265012  14.205   2.238  11.106
87725SOL     OW65013   3.437  10.739   4.628
87725SOL    HW165014   3.507  10.785   4.583
87725SOL    HW265015   3.469  10.650   4.641
87726SOL     OW65016  11.415  11.600   2.469
87726SOL    HW165017  11.477  11.554   2.412
87726SOL    HW265018  11.370  11.661   2.411
87727SOL     OW65019   6.259  11.687   5.923
87727SOL    HW165020   6.322  11.627   5.963
87727SOL    HW265021   6.182  11.682   5.979
87728SOL     OW65022  14.360  14.080   1.677
87728SOL    HW165023  14.340  13.987   1.677
87728SOL    HW265024  14.294  14.119   1.620
87729SOL     OW65025   6.537   5.065   4.012
87729SOL    HW165026   6.573   5.084   3.926
87729SOL    HW265027   6.605   5.012   4.055
87730SOL     OW65028   9.899  11.336   5.145
87730SOL    HW165029   9.808  11.310   5.135
87730SOL    HW265030   9.945  11.254   5.166
87731SOL     OW65031   2.772   3.502   5.849
87731SOL    HW165032   2.715   3.579   5.855
87731SOL    HW265033   2.787   3.477   5.940
87732SOL     OW65034   7.586   9.699   0.071
87732SOL    HW165035   7.629   9.660  14.869
87732SOL    HW265036   7.637   9.668   0.146
87733SOL     OW65037   9.412  14.839  11.613
87733SOL    HW165038   9.428  14.752  11.578
87733SOL    HW265039   9.322  14.837  11.645
87734SOL     OW65040   8.143  13.046   4.364
87734SOL    HW165041   8.065  13.097   4.386
87734SOL    HW265042   8.208  13.111   4.340
87735SOL     OW65043   9.954  14.393  13.878
87735SOL    HW165044   9.900  14.315  13.863
87735SOL    HW265045   9.927  14.424  13.965
87736SOL     OW65046  13.778   7.084  12.614
87736SOL    HW165047  13.767   7.106  12.706
87736SOL    HW265048  13.691   7.054  12.586
87737SOL     OW65049  13.104   6.357  11.382
87737SOL    HW165050  13.097   6.278  11.329
87737SOL    HW265051  13.194   6.386  11.369
87738SOL     OW65052   3.847   4.932   6.420
87738SOL    HW165053   3.807   4.845   6.410
87738SOL    HW265054   3.856   4.943   6.515
87739SOL     OW65055  12.659   4.105   6.727
87739SOL    HW165056  12.565   4.110   6.713
87739SOL    HW265057  12.695   4.169   6.664
87740SOL     OW65058   2.509   8.092   1.001
87740SOL    HW165059   2.576   8.086   0.932
87740SOL    HW265060   2.454   8.165   0.974
87741SOL     OW65061   0.121   2.684   7.516
87741SOL    HW165062   0.164   2.687   7.431
87741SOL    HW265063   0.099   2.776   7.534
87742SOL     OW65064   0.682  14.831  12.840
87742SOL    HW165065   0.731   0.008  12.904
87742SOL    HW265066   0.594  14.869  12.841
87743SOL     OW65067   6.743  11.233  13.619
87743SOL    HW165068   6.775  11.316  13.656
87743SOL    HW265069   6.667  11.210  13.672
87744SOL     OW65070  12.124   9.125   4.396
87744SOL    HW165071  12.155   9.045   4.440
87744SOL    HW265072  12.085   9.177   4.466
87745SOL     OW65073   7.746   8.809  11.790
87745SOL    HW165074   7.739   8.821  11.884
87745SOL    HW265075   7.659   8.832  11.756
87746SOL     OW65076   6.032  10.161   8.947
87746SOL    HW165077   6.037  10.069   8.918
87746SOL    HW265078   6.114  10.199   8.917
87747SOL     OW65079   2.818   9.302   8.890
87747SOL    HW165080   2.893   9.249   8.919
87747SOL    HW265081   2.762   9.240   8.844
87748SOL     OW65082   6.887   2.070   0.275
87748SOL    HW165083   6.792   2.070   0.263
87748SOL    HW265084   6.908   1.980   0.298
87749SOL     OW65085   0.062  10.110  13.086
87749SOL    HW165086   0.145  10.114  13.040
87749SOL    HW265087   0.050  10.018  13.109
87750SOL     OW65088   2.144   5.867   3.683
87750SOL    HW165089   2.049   5.875   3.690
87750SOL    HW265090   2.172   5.945   3.635
87751SOL     OW65091  14.851   1.475  14.016
87751SOL    HW165092   0.033   1.495  13.941
87751SOL    HW265093  14.765   1.459  13.978
87752SOL     OW65094   2.721   5.507   8.229
87752SOL    HW165095   2.689   5.477   8.314
87752SOL    HW265096   2.646   5.552   8.190
87753SOL     OW65097  12.050   4.626  11.790
87753SOL    HW165098  12.131   4.594  11.750
87753SOL    HW265099  11.981   4.580  11.743
87754SOL     OW65100   8.689   8.739   2.930
87754SOL    HW165101   8.604   8.778   2.908
87754SOL    HW265102   8.742   8.753   2.851
87755SOL     OW65103   2.107   7.831  11.321
87755SOL    HW165104   2.178   7.817  11.383
87755SOL    HW265105   2.085   7.924  11.330
87756SOL     OW65106   7.917   9.990   4.558
87756SOL    HW165107   7.988   9.932   4.583
87756SOL    HW265108   7.866  10.002   4.638
87757SOL     OW65109  13.022  14.268  14.872
87757SOL    HW165110  13.085  14.204  14.839
87757SOL    HW265111  13.053  14.352  14.839
87758SOL     OW65112   3.111   7.228  13.773
87758SOL    HW165113   3.119   7.296  13.839
87758SOL    HW265114   3.201   7.203  13.752
87759SOL     OW65115  12.996   4.393   5.345
87759SOL    HW165116  13.048   4.461   5.302
87759SOL    HW265117  12.923   4.441   5.385
87760SOL     OW65118   1.658   2.828   3.030
87760SOL    HW165119   1.683   2.736   3.028
87760SOL    HW265120   1.739   2.874   3.053
87761SOL     OW65121  11.963  11.000   3.242
87761SOL    HW165122  11.935  10.983   3.332
87761SOL    HW265123  12.053  11.029   3.250
87762SOL     OW65124  13.794   9.160   7.316
87762SOL    HW165125  13.804   9.213   7.237
87762SOL    HW265126  13.882   9.158   7.355
87763SOL     OW65127   7.128   7.674   0.028
87763SOL    HW165128   7.051   7.664   0.084
87763SOL    HW265129   7.101   7.640  14.817
87764SOL     OW65130   2.908  12.910   8.873
87764SOL    HW165131   2.863  12.982   8.827
87764SOL    HW265132   2.998  12.941   8.883
87765SOL     OW65133   9.690   0.621   5.867
87765SOL    HW165134   9.778   0.655   5.855
87765SOL    HW265135   9.692   0.575   5.951
87766SOL     OW65136   0.222  11.703   0.666
87766SOL    HW165137   0.233  11.754   0.585
87766SOL    HW265138   0.165  11.631   0.641
87767SOL     OW65139   9.905   9.767  10.731
87767SOL    HW165140   9.894   9.832  10.662
87767SOL    HW265141  10.000   9.764  10.746
87768SOL     OW65142  13.794   0.847   0.343
87768SOL    HW165143  13.722   0.814   0.397
87768SOL    HW265144  13.811   0.776   0.281
87769SOL     OW65145  11.103   1.082  13.370
87769SOL    HW165146  11.199   1.082  13.367
87769SOL    HW265147  11.080   1.174  13.386
87770SOL     OW65148   7.459   9.267  13.989
87770SOL    HW165149   7.539   9.222  14.015
87770SOL    HW265150   7.473   9.291  13.897
87771SOL     OW65151  11.823   1.173   5.820
87771SOL    HW165152  11.878   1.184   5.897
87771SOL    HW265153  11.810   1.079   5.813
87772SOL     OW65154   9.240  12.481   0.248
87772SOL    HW165155   9.215  12.410   0.188
87772SOL    HW265156   9.174  12.549   0.232
87773SOL     OW65157  14.721   0.920   7.865
87773SOL    HW165158  14.640   0.928   7.915
87773SOL    HW265159  14.772   0.854   7.913
87774SOL     OW65160   9.373  11.328  12.301
87774SOL    HW165161   9.343  11.237  12.302
87774SOL    HW265162   9.299  11.377  12.266
87775SOL     OW65163  13.239  10.109   3.479
87775SOL    HW165164  13.253  10.094   3.572
87775SOL    HW265165  13.194  10.193   3.474
87776SOL     OW65166  12.068  14.037   5.904
87776SOL    HW165167  12.104  13.949   5.909
87776SOL    HW265168  12.043  14.048   5.813
87777SOL     OW65169   4.813   9.049  12.688
87777SOL    HW165170   4.893   9.077  12.644
87777SOL    HW265171   4.755   9.022  12.617
87778SOL     OW65172  13.648  10.089   0.996
87778SOL    HW165173  13.563  10.120   1.029
87778SOL    HW265174  13.695  10.170   0.974
87779SOL     OW65175   5.733   9.925   3.843
87779SOL    HW165176   5.777   9.912   3.927
87779SOL    HW265177   5.640   9.926   3.864
87780SOL     OW65178   5.409   7.282   9.427
87780SOL    HW165179   5.482   7.339   9.451
87780SOL    HW265180   5.357   7.334   9.366
87781SOL     OW65181   0.441   7.766   5.931
87781SOL    HW165182   0.377   7.783   6.000
87781SOL    HW265183   0.492   7.847   5.925
87782SOL     OW65184  14.806   9.077   4.233
87782SOL    HW165185  14.763   9.017   4.293
87782SOL    HW265186   0.007   9.110   4.282
87783SOL     OW65187   5.613  10.325  14.448
87783SOL    HW165188   5.707  10.338  14.453
87783SOL    HW265189   5.590  10.346  14.358
87784SOL     OW65190   8.166   8.115  11.708
87784SOL    HW165191   8.249   8.131  11.663
87784SOL    HW265192   8.173   8.025  11.739
87785SOL     OW65193  12.837  10.001  11.138
87785SOL    HW165194  12.825   9.913  11.103
87785SOL    HW265195  12.853   9.988  11.231
87786SOL     OW65196   0.702  14.612   8.745
87786SOL    HW165197   0.689  14.703   8.717
87786SOL    HW265198   0.623  14.590   8.794
87787SOL     OW65199   4.963   0.638   1.170
87787SOL    HW165200   5.055   0.613   1.175
87787SOL    HW265201   4.915   0.564   1.208
87788SOL     OW65202  11.524   7.630  13.943
87788SOL    HW165203  11.613   7.596  13.950
87788SOL    HW265204  11.469   7.565  13.985
87789SOL     OW65205   9.700  14.039   8.013
87789SOL    HW165206   9.639  14.017   8.083
87789SOL    HW265207   9.750  14.114   8.047
87790SOL     OW65208   2.915   1.483   5.570
87790SOL    HW165209   2.971   1.476   5.647
87790SOL    HW265210   2.881   1.394   5.558
87791SOL     OW65211   1.750  14.194  12.778
87791SOL    HW165212   1.662  14.227  12.756
87791SOL    HW265213   1.735  14.104  12.808
87792SOL     OW65214  13.352   7.366   5.829
87792SOL    HW165215  13.315   7.400   5.747
87792SOL    HW265216  13.439   7.406   5.834
87793SOL     OW65217   0.169   8.130  10.701
87793SOL    HW165218   0.128   8.050  10.669
87793SOL    HW265219   0.170   8.120  10.796
87794SOL     OW65220  14.498   1.428  14.328
87794SOL    HW165221  14.581   1.421  14.281
87794SOL    HW265222  14.504   1.513  14.373
87795SOL     OW65223   7.363   0.940   1.291
87795SOL    HW165224   7.317   1.023   1.302
87795SOL    HW265225   7.454   0.966   1.274
87796SOL     OW65226   3.674   1.433   8.304
87796SOL    HW165227   3.688   1.338   8.305
87796SOL    HW265228   3.579   1.443   8.303
87797SOL     OW65229   3.104   8.196   4.263
87797SOL    HW165230   3.140   8.232   4.182
87797SOL    HW265231   3.108   8.269   4.325
87798SOL     OW65232   5.138   8.815  10.551
87798SOL    HW165233   5.217   8.844  10.505
87798SOL    HW265234   5.153   8.722  10.570
87799SOL     OW65235   0.104  12.919   6.221
87799SOL    HW165236   0.127  12.882   6.306
87799SOL    HW265237   0.045  12.855   6.182
87800SOL     OW65238   6.649  11.084   6.055
87800SOL    HW165239   6.693  11.150   6.001
87800SOL    HW265240   6.718  11.022   6.077
87801SOL     OW65241   8.421   5.112   9.431
87801SOL    HW165242   8.476   5.137   9.505
87801SOL    HW265243   8.385   5.195   9.399
87802SOL     OW65244   4.424  14.484  13.034
87802SOL    HW165245   4.456  14.410  12.982
87802SOL    HW265246   4.343  14.511  12.991
87803SOL     OW65247  11.097   1.468   6.911
87803SOL    HW165248  11.125   1.426   6.993
87803SOL    HW265249  11.019   1.518   6.935
87804SOL     OW65250  13.846   8.129   8.551
87804SOL    HW165251  13.860   8.188   8.625
87804SOL    HW265252  13.911   8.156   8.486
87805SOL     OW65253  10.387  10.495   6.452
87805SOL    HW165254  10.291  10.490   6.454
87805SOL    HW265255  10.415  10.464   6.538
87806SOL     OW65256   5.011  14.255   9.961
87806SOL    HW165257   5.060  14.181   9.996
87806SOL    HW265258   5.067  14.290   9.891
87807SOL     OW65259   8.894  12.863  10.277
87807SOL    HW165260   8.806  12.901  10.277
87807SOL    HW265261   8.925  12.877  10.187
87808SOL     OW65262   3.103   5.016   7.382
87808SOL    HW165263   3.065   4.938   7.341
87808SOL    HW265264   3.171   5.044   7.321
87809SOL     OW65265  12.724   2.839   9.435
87809SOL    HW165266  12.651   2.890   9.469
87809SOL    HW265267  12.773   2.813   9.513
87810SOL     OW65268   9.752  10.524   4.994
87810SOL    HW165269   9.825  10.582   4.976
87810SOL    HW265270   9.782  10.468   5.065
87811SOL     OW65271   2.650   7.245   7.687
87811SOL    HW165272   2.668   7.338   7.677
87811SOL    HW265273   2.735   7.206   7.706
87812SOL     OW65274   5.020   7.420   7.750
87812SOL    HW165275   4.934   7.381   7.763
87812SOL    HW265276   5.028   7.484   7.820
87813SOL     OW65277  11.919  11.496   4.803
87813SOL    HW165278  12.005  11.465   4.832
87813SOL    HW265279  11.917  11.475   4.709
87814SOL     OW65280   2.471   6.533  11.903
87814SOL    HW165281   2.385   6.546  11.863
87814SOL    HW265282   2.453   6.524  11.997
87815SOL     OW65283   5.477   0.414  13.022
87815SOL    HW165284   5.397   0.376  13.058
87815SOL    HW265285   5.536   0.339  13.011
87816SOL     OW65286  11.632   6.871   7.359
87816SOL    HW165287  11.711   6.908   7.321
87816SOL    HW265288  11.649   6.777   7.365
87817SOL     OW65289   4.700   0.965  11.605
87817SOL    HW165290   4.644   0.911  11.660
87817SOL    HW265291   4.638   1.017  11.552
87818SOL     OW65292  12.532   5.582  11.047
87818SOL    HW165293  12.437   5.578  11.061
87818SOL    HW265294  12.570   5.563  11.133
87819SOL     OW65295   2.573   7.277   6.065
87819SOL    HW165296   2.491   7.314   6.098
87819SOL    HW265297   2.558   7.265   5.971
87820SOL     OW65298   5.925   1.786   1.156
87820SOL    HW165299   6.008   1.738   1.161
87820SOL    HW265300   5.877   1.758   1.235
87821SOL     OW65301  11.377   2.749   7.045
87821SOL    HW165302  11.309   2.710   7.101
87821SOL    HW265303  11.369   2.703   6.962
87822SOL     OW65304  11.611  14.124   2.000
87822SOL    HW165305  11.636  14.078   1.920
87822SOL    HW265306  11.685  14.181   2.020
87823SOL     OW65307  10.539   1.971   2.676
87823SOL    HW165308  10.474   1.990   2.743
87823SOL    HW265309  10.603   2.042   2.683
87824SOL     OW65310   9.422   9.474   3.009
87824SOL    HW165311   9.454   9.550   2.960
87824SOL    HW265312   9.501   9.423   3.028
87825SOL     OW65313   0.646   6.577   6.868
87825SOL    HW165314   0.567   6.526   6.850
87825SOL    HW265315   0.714   6.536   6.814
87826SOL     OW65316  10.436  12.407   0.149
87826SOL    HW165317  10.474  12.327   0.113
87826SOL    HW265318  10.509  12.468   0.154
87827SOL     OW65319   1.674  11.347   0.429
87827SOL    HW165320   1.737  11.350   0.501
87827SOL    HW265321   1.633  11.434   0.429
87828SOL     OW65322   9.267  10.908   0.290
87828SOL    HW165323   9.261  10.973   0.221
87828SOL    HW265324   9.182  10.865   0.291
87829SOL     OW65325  13.380  11.294   7.265
87829SOL    HW165326  13.297  11.341   7.256
87829SOL    HW265327  13.356  11.211   7.305
87830SOL     OW65328  11.034  14.779   3.008
87830SOL    HW165329  11.017  14.867   2.974
87830SOL    HW265330  11.020  14.787   3.103
87831SOL     OW65331   9.889   7.894   0.438
87831SOL    HW165332   9.845   7.811   0.453
87831SOL    HW265333   9.942   7.880   0.360
87832SOL     OW65334   4.411   2.704   5.795
87832SOL    HW165335   4.473   2.690   5.867
87832SOL    HW265336   4.379   2.793   5.808
87833SOL     OW65337   0.582  13.934   1.910
87833SOL    HW165338   0.571  13.960   2.001
87833SOL    HW265339   0.657  13.875   1.910
87834SOL     OW65340   3.402   5.634   0.916
87834SOL    HW165341   3.331   5.657   0.976
87834SOL    HW265342   3.362   5.634   0.830
87835SOL     OW65343   9.756  11.507   4.700
87835SOL    HW165344   9.747  11.431   4.759
87835SOL    HW265345   9.848  11.531   4.706
87836SOL     OW65346   4.201  12.139   8.605
87836SOL    HW165347   4.260  12.078   8.560
87836SOL    HW265348   4.153  12.084   8.667
87837SOL     OW65349  10.652   5.242  11.481
87837SOL    HW165350  10.568   5.289  11.480
87837SOL    HW265351  10.654   5.196  11.397
87838SOL     OW65352  10.123   6.375  13.037
87838SOL    HW165353  10.093   6.382  12.946
87838SOL    HW265354  10.112   6.463  13.073
87839SOL     OW65355   4.102   6.929  10.725
87839SOL    HW165356   4.108   6.881  10.808
87839SOL    HW265357   4.096   6.861  10.658
87840SOL     OW65358   2.382  11.534   8.425
87840SOL    HW165359   2.415  11.445   8.437
87840SOL    HW265360   2.423  11.585   8.494
87841SOL     OW65361  11.595  11.343  13.516
87841SOL    HW165362  11.678  11.331  13.563
87841SOL    HW265363  11.592  11.436  13.496
87842SOL     OW65364  14.274   5.097   1.342
87842SOL    HW165365  14.252   5.025   1.401
87842SOL    HW265366  14.241   5.070   1.257
87843SOL     OW65367  12.789   8.285   3.257
87843SOL    HW165368  12.760   8.291   3.166
87843SOL    HW265369  12.755   8.201   3.288
87844SOL     OW65370  12.684  12.071  11.479
87844SOL    HW165371  12.705  11.979  11.490
87844SOL    HW265372  12.722  12.115  11.555
87845SOL     OW65373   7.949   1.151  13.261
87845SOL    HW165374   7.962   1.202  13.341
87845SOL    HW265375   7.864   1.182  13.228
87846SOL     OW65376   2.286   9.438  13.105
87846SOL    HW165377   2.254   9.527  13.092
87846SOL    HW265378   2.220   9.396  13.159
87847SOL     OW65379   9.165   4.772   2.810
87847SOL    HW165380   9.084   4.795   2.766
87847SOL    HW265381   9.213   4.854   2.817
87848SOL     OW65382   5.268  11.621   8.548
87848SOL    HW165383   5.213  11.607   8.625
87848SOL    HW265384   5.247  11.549   8.489
87849SOL     OW65385   8.186   1.037  13.312
87849SOL    HW165386   8.096   1.053  13.285
87849SOL    HW265387   8.183   0.952  13.356
87850SOL     OW65388   2.659  12.853  14.142
87850SOL    HW165389   2.573  12.877  14.109
87850SOL    HW265390   2.700  12.936  14.166
87851SOL     OW65391   4.144   4.046  14.219
87851SOL    HW165392   4.146   3.956  14.185
87851SOL    HW265393   4.146   4.101  14.142
87852SOL     OW65394   7.202   1.081   8.082
87852SOL    HW165395   7.112   1.110   8.092
87852SOL    HW265396   7.204   1.036   7.998
87853SOL     OW65397  11.515   4.816   0.621
87853SOL    HW165398  11.449   4.884   0.632
87853SOL    HW265399  11.521   4.803   0.527
87854SOL     OW65400  13.774   2.516   0.373
87854SOL    HW165401  13.798   2.438   0.324
87854SOL    HW265402  13.724   2.569   0.311
87855SOL     OW65403   8.810  12.375   1.688
87855SOL    HW165404   8.783  12.458   1.649
87855SOL    HW265405   8.875  12.340   1.627
87856SOL     OW65406  10.332   4.515   4.460
87856SOL    HW165407  10.365   4.568   4.388
87856SOL    HW265408  10.282   4.576   4.514
87857SOL     OW65409   6.250  11.207  13.572
87857SOL    HW165410   6.205  11.122  13.562
87857SOL    HW265411   6.211  11.245  13.650
87858SOL     OW65412   3.496   7.388  11.821
87858SOL    HW165413   3.508   7.421  11.910
87858SOL    HW265414   3.405   7.356  11.819
87859SOL     OW65415   2.980  11.843  13.724
87859SOL    HW165416   2.938  11.913  13.675
87859SOL    HW265417   2.908  11.794  13.763
87860SOL     OW65418   1.730   2.602   3.991
87860SOL    HW165419   1.801   2.539   4.004
87860SOL    HW265420   1.760   2.681   4.036
87861SOL     OW65421   9.857   0.742  10.913
87861SOL    HW165422   9.861   0.647  10.921
87861SOL    HW265423   9.907   0.762  10.833
87862SOL     OW65424  12.305   3.909   9.586
87862SOL    HW165425  12.286   3.930   9.677
87862SOL    HW265426  12.380   3.849   9.591
87863SOL     OW65427   9.042   7.225   1.869
87863SOL    HW165428   9.014   7.233   1.778
87863SOL    HW265429   8.972   7.268   1.919
87864SOL     OW65430  11.220   0.168   7.294
87864SOL    HW165431  11.167   0.145   7.371
87864SOL    HW265432  11.291   0.104   7.294
87865SOL     OW65433   2.110  10.935   2.638
87865SOL    HW165434   2.188  10.887   2.610
87865SOL    HW265435   2.140  10.988   2.712
87866SOL     OW65436   5.025   5.268  11.962
87866SOL    HW165437   4.936   5.276  11.998
87866SOL    HW265438   5.081   5.308  12.028
87867SOL     OW65439   2.186   1.592  10.070
87867SOL    HW165440   2.208   1.676  10.030
87867SOL    HW265441   2.243   1.587  10.147
87868SOL     OW65442   6.262   9.496   2.977
87868SOL    HW165443   6.271   9.413   2.931
87868SOL    HW265444   6.325   9.490   3.049
87869SOL     OW65445  14.217   7.880   6.170
87869SOL    HW165446  14.165   7.957   6.193
87869SOL    HW265447  14.172   7.842   6.095
87870SOL     OW65448   6.787  13.750  12.971
87870SOL    HW165449   6.853  13.817  12.992
87870SOL    HW265450   6.825  13.701  12.898
87871SOL     OW65451  13.721   2.397   2.528
87871SOL    HW165452  13.786   2.420   2.593
87871SOL    HW265453  13.757   2.429   2.445
87872SOL     OW65454   2.793   6.406   0.502
87872SOL    HW165455   2.837   6.363   0.429
87872SOL    HW265456   2.794   6.499   0.480
87873SOL     OW65457   3.836  14.679  13.184
87873SOL    HW165458   3.917  14.729  13.189
87873SOL    HW265459   3.850  14.605  13.243
87874SOL     OW65460   6.266   2.933  11.346
87874SOL    HW165461   6.311   2.933  11.430
87874SOL    HW265462   6.308   3.004  11.297
87875SOL     OW65463  13.032   2.082   6.968
87875SOL    HW165464  13.122   2.107   6.950
87875SOL    HW265465  13.024   2.089   7.064
87876SOL     OW65466  13.984   7.424   8.578
87876SOL    HW165467  14.001   7.443   8.486
87876SOL    HW265468  14.005   7.505   8.624
87877SOL     OW65469   8.609   3.210  14.006
87877SOL    HW165470   8.634   3.237  13.917
87877SOL    HW265471   8.515   3.193  13.999
87878SOL     OW65472  10.018   3.513   3.604
87878SOL    HW165473   9.992   3.605   3.594
87878SOL    HW265474  10.048   3.505   3.694
87879SOL     OW65475   8.994  14.550  11.614
87879SOL    HW165476   9.011  14.616  11.547
87879SOL    HW265477   9.030  14.469  11.578
87880SOL     OW65478  10.875  14.436   2.830
87880SOL    HW165479  10.832  14.512   2.790
87880SOL    HW265480  10.859  14.364   2.770
87881SOL     OW65481  11.596   6.889   8.010
87881SOL    HW165482  11.588   6.972   8.058
87881SOL    HW265483  11.669   6.903   7.950
87882SOL     OW65484  13.809   2.189   6.565
87882SOL    HW165485  13.842   2.132   6.635
87882SOL    HW265486  13.877   2.255   6.555
87883SOL     OW65487   7.937  11.244   6.862
87883SOL    HW165488   7.856  11.291   6.841
87883SOL    HW265489   7.950  11.184   6.789
87884SOL     OW65490   5.276   8.886   7.125
87884SOL    HW165491   5.331   8.863   7.050
87884SOL    HW265492   5.251   8.977   7.109
87885SOL     OW65493  11.643   3.521   4.624
87885SOL    HW165494  11.639   3.441   4.572
87885SOL    HW265495  11.658   3.591   4.560
87886SOL     OW65496   3.759  11.021  13.703
87886SOL    HW165497   3.851  11.030  13.680
87886SOL    HW265498   3.732  10.937  13.665
87887SOL     OW65499   8.316   2.692   8.636
87887SOL    HW165500   8.297   2.635   8.711
87887SOL    HW265501   8.408   2.714   8.647
87888SOL     OW65502   0.179  10.622   5.302
87888SOL    HW165503   0.125  10.575   5.239
87888SOL    HW265504   0.186  10.711   5.266
87889SOL     OW65505  14.518   1.378   2.585
87889SOL    HW165506  14.485   1.289   2.575
87889SOL    HW265507  14.476   1.410   2.665
87890SOL     OW65508   8.936   7.745   7.925
87890SOL    HW165509   8.885   7.738   7.845
87890SOL    HW265510   8.924   7.836   7.953
87891SOL     OW65511   6.976   4.486   7.771
87891SOL    HW165512   6.996   4.501   7.864
87891SOL    HW265513   6.988   4.572   7.731
87892SOL     OW65514  13.477   0.789  11.941
87892SOL    HW165515  13.553   0.792  11.884
87892SOL    HW265516  13.442   0.700  11.932
87893SOL     OW65517  13.562   8.907   0.448
87893SOL    HW165518  13.605   8.829   0.412
87893SOL    HW265519  13.601   8.919   0.535
87894SOL     OW65520   1.771  10.292   9.972
87894SOL    HW165521   1.821  10.308  10.052
87894SOL    HW265522   1.774  10.375   9.924
87895SOL     OW65523   7.922   1.786   8.004
87895SOL    HW165524   7.920   1.710   8.062
87895SOL    HW265525   7.895   1.859   8.059
87896SOL     OW65526   4.422   9.861  11.068
87896SOL    HW165527   4.516   9.841  11.068
87896SOL    HW265528   4.417   9.954  11.090
87897SOL     OW65529   7.323   1.358   1.711
87897SOL    HW165530   7.279   1.439   1.686
87897SOL    HW265531   7.407   1.387   1.746
87898SOL     OW65532   6.619   5.470   0.622
87898SOL    HW165533   6.678   5.512   0.685
87898SOL    HW265534   6.542   5.526   0.620
87899SOL     OW65535  10.954  11.858   2.095
87899SOL    HW165536  10.897  11.816   2.031
87899SOL    HW265537  10.956  11.950   2.069
87900SOL     OW65538   2.905   7.423  10.757
87900SOL    HW165539   2.949   7.450  10.838
87900SOL    HW265540   2.853   7.498  10.731
87901SOL     OW65541   6.863   3.904   0.668
87901SOL    HW165542   6.810   3.903   0.589
87901SOL    HW265543   6.884   3.812   0.685
87902SOL     OW65544   6.651  11.658  13.500
87902SOL    HW165545   6.681  11.677  13.589
87902SOL    HW265546   6.706  11.586  13.471
87903SOL     OW65547   4.835   0.041  11.553
87903SOL    HW165548   4.822   0.072  11.642
87903SOL    HW265549   4.912   0.089  11.522
87904SOL     OW65550   0.270   7.260   1.882
87904SOL    HW165551   0.324   7.339   1.876
87904SOL    HW265552   0.189   7.289   1.924
87905SOL     OW65553   3.190  10.070   5.774
87905SOL    HW165554   3.166  10.149   5.724
87905SOL    HW265555   3.109  10.020   5.780
87906SOL     OW65556   9.117   9.538   7.634
87906SOL    HW165557   9.166   9.496   7.705
87906SOL    HW265558   9.039   9.484   7.623
87907SOL     OW65559  10.550   6.093  14.832
87907SOL    HW165560  10.594   6.010  14.852
87907SOL    HW265561  10.519   6.125   0.043
87908SOL     OW65562   9.906   9.367   2.102
87908SOL    HW165563   9.837   9.429   2.129
87908SOL    HW265564   9.858   9.294   2.063
87909SOL     OW65565  10.414   1.155   7.475
87909SOL    HW165566  10.443   1.226   7.532
87909SOL    HW265567  10.473   1.159   7.400
87910SOL     OW65568   3.517   5.167   5.126
87910SOL    HW165569   3.521   5.260   5.147
87910SOL    HW265570   3.493   5.125   5.208
87911SOL     OW65571   2.268   7.102  13.547
87911SOL    HW165572   2.272   7.195  13.526
87911SOL    HW265573   2.330   7.091  13.620
87912SOL     OW65574  11.597  14.661   3.607
87912SOL    HW165575  11.658  14.673   3.534
87912SOL    HW265576  11.612  14.572   3.637
87913SOL     OW65577   3.707  11.472   3.087
87913SOL    HW165578   3.660  11.420   3.152
87913SOL    HW265579   3.672  11.443   3.003
87914SOL     OW65580  13.178  10.002   8.328
87914SOL    HW165581  13.229  10.071   8.287
87914SOL    HW265582  13.157   9.941   8.257
87915SOL     OW65583   5.798   3.690   9.856
87915SOL    HW165584   5.853   3.749   9.908
87915SOL    HW265585   5.709   3.720   9.871
87916SOL     OW65586   4.883  13.067  13.204
87916SOL    HW165587   4.968  13.047  13.164
87916SOL    HW265588   4.871  12.999  13.270
87917SOL     OW65589   3.500  10.006  13.550
87917SOL    HW165590   3.432   9.999  13.617
87917SOL    HW265591   3.460   9.967  13.472
87918SOL     OW65592   4.744  11.429   0.561
87918SOL    HW165593   4.724  11.519   0.586
87918SOL    HW265594   4.800  11.396   0.630
87919SOL     OW65595  14.159  10.686  12.222
87919SOL    HW165596  14.199  10.599  12.221
87919SOL    HW265597  14.097  10.685  12.149
87920SOL     OW65598   3.380   4.750   5.474
87920SOL    HW165599   3.463   4.782   5.439
87920SOL    HW265600   3.361   4.809   5.547
87921SOL     OW65601  13.876  11.074   5.083
87921SOL    HW165602  13.947  11.134   5.107
87921SOL    HW265603  13.852  11.032   5.165
87922SOL     OW65604  13.922  11.296  11.858
87922SOL    HW165605  13.936  11.365  11.922
87922SOL    HW265606  13.828  11.281  11.859
87923SOL     OW65607  10.659   1.767   7.266
87923SOL    HW165608  10.607   1.687   7.252
87923SOL    HW265609  10.673   1.769   7.361
87924SOL     OW65610   8.610   9.773  13.487
87924SOL    HW165611   8.545   9.839  13.465
87924SOL    HW265612   8.601   9.706  13.419
87925SOL     OW65613   8.422  13.234  10.779
87925SOL    HW165614   8.472  13.204  10.703
87925SOL    HW265615   8.459  13.320  10.800
87926SOL     OW65616   4.648   2.426  13.752
87926SOL    HW165617   4.669   2.333  13.745
87926SOL    HW265618   4.715   2.461  13.811
87927SOL     OW65619   8.471   9.456   2.837
87927SOL    HW165620   8.516   9.540   2.831
87927SOL    HW265621   8.381   9.478   2.861
87928SOL     OW65622  12.880   4.799  13.530
87928SOL    HW165623  12.941   4.860  13.489
87928SOL    HW265624  12.936   4.740  13.580
87929SOL     OW65625  14.119   7.765   0.061
87929SOL    HW165626  14.046   7.826   0.044
87929SOL    HW265627  14.112   7.701  14.864
87930SOL     OW65628   1.107  10.339   8.142
87930SOL    HW165629   1.171  10.285   8.189
87930SOL    HW265630   1.077  10.403   8.207
87931SOL     OW65631   2.028   4.795   8.332
87931SOL    HW165632   2.075   4.748   8.262
87931SOL    HW265633   2.093   4.856   8.367
87932SOL     OW65634   4.530   1.320   3.454
87932SOL    HW165635   4.573   1.400   3.485
87932SOL    HW265636   4.529   1.262   3.530
87933SOL     OW65637   2.980   8.073   1.841
87933SOL    HW165638   2.890   8.093   1.867
87933SOL    HW265639   3.014   8.155   1.805
87934SOL     OW65640   8.636  10.597   5.633
87934SOL    HW165641   8.545  10.609   5.607
87934SOL    HW265642   8.643  10.646   5.715
87935SOL     OW65643   8.938  11.984   4.417
87935SOL    HW165644   8.995  11.909   4.433
87935SOL    HW265645   8.909  11.973   4.326
87936SOL     OW65646  10.116   3.774   7.552
87936SOL    HW165647  10.038   3.779   7.607
87936SOL    HW265648  10.112   3.686   7.513
87937SOL     OW65649   0.931  14.683   9.383
87937SOL    HW165650   0.854  14.658   9.332
87937SOL    HW265651   0.973  14.751   9.330
87938SOL     OW65652   6.430  10.624   9.922
87938SOL    HW165653   6.386  10.612  10.006
87938SOL    HW265654   6.507  10.677   9.942
87939SOL     OW65655  11.225   2.211   8.148
87939SOL    HW165656  11.235   2.250   8.061
87939SOL    HW265657  11.208   2.286   8.205
87940SOL     OW65658   8.722   6.003  13.632
87940SOL    HW165659   8.696   5.999  13.540
87940SOL    HW265660   8.654   6.055  13.674
87941SOL     OW65661   7.276   6.015   5.281
87941SOL    HW165662   7.255   5.925   5.258
87941SOL    HW265663   7.193   6.062   5.278
87942SOL     OW65664  14.698   0.957  10.901
87942SOL    HW165665  14.762   0.888  10.917
87942SOL    HW265666  14.723   0.995  10.817
87943SOL     OW65667   8.600  11.758   9.541
87943SOL    HW165668   8.621  11.665   9.535
87943SOL    HW265669   8.504  11.762   9.539
87944SOL     OW65670   6.567  12.551  11.288
87944SOL    HW165671   6.531  12.476  11.335
87944SOL    HW265672   6.553  12.530  11.195
87945SOL     OW65673   4.336   6.738   7.688
87945SOL    HW165674   4.391   6.741   7.610
87945SOL    HW265675   4.383   6.681   7.749
87946SOL     OW65676   9.378   0.908  14.678
87946SOL    HW165677   9.454   0.854  14.654
87946SOL    HW265678   9.368   0.895  14.772
87947SOL     OW65679   7.869   5.371  12.043
87947SOL    HW165680   7.897   5.461  12.061
87947SOL    HW265681   7.774   5.374  12.049
87948SOL     OW65682   2.746   4.281   3.459
87948SOL    HW165683   2.827   4.279   3.508
87948SOL    HW265684   2.706   4.365   3.481
87949SOL     OW65685  14.485  10.366   3.559
87949SOL    HW165686  14.558  10.428   3.553
87949SOL    HW265687  14.526  10.282   3.576
87950SOL     OW65688   9.807  11.994  12.060
87950SOL    HW165689   9.786  12.042  11.980
87950SOL    HW265690   9.885  11.943  12.038
87951SOL     OW65691  10.176   5.769   1.209
87951SOL    HW165692  10.244   5.701   1.214
87951SOL    HW265693  10.099   5.729   1.250
87952SOL     OW65694   1.420   8.191   1.253
87952SOL    HW165695   1.500   8.239   1.271
87952SOL    HW265696   1.355   8.259   1.233
87953SOL     OW65697  10.880   9.251   6.785
87953SOL    HW165698  10.908   9.197   6.711
87953SOL    HW265699  10.785   9.239   6.788
87954SOL     OW65700   4.580   8.268   0.638
87954SOL    HW165701   4.651   8.318   0.677
87954SOL    HW265702   4.525   8.241   0.712
87955SOL     OW65703  12.439   7.393   2.849
87955SOL    HW165704  12.449   7.298   2.851
87955SOL    HW265705  12.426   7.418   2.941
87956SOL     OW65706   5.140   1.109  10.351
87956SOL    HW165707   5.061   1.105  10.298
87956SOL    HW265708   5.211   1.116  10.288
87957SOL     OW65709   6.860  11.709   3.244
87957SOL    HW165710   6.788  11.757   3.283
87957SOL    HW265711   6.820  11.629   3.210
87958SOL     OW65712   0.071  12.503   6.562
87958SOL    HW165713   0.163  12.506   6.538
87958SOL    HW265714   0.070  12.457   6.646
87959SOL     OW65715   4.210   1.269  13.521
87959SOL    HW165716   4.226   1.261  13.427
87959SOL    HW265717   4.122   1.305  13.528
87960SOL     OW65718   2.223   6.820  11.261
87960SOL    HW165719   2.235   6.737  11.308
87960SOL    HW265720   2.233   6.887  11.329
87961SOL     OW65721  13.091   3.030  11.047
87961SOL    HW165722  13.152   3.089  11.092
87961SOL    HW265723  13.082   3.067  10.959
87962SOL     OW65724   0.683   7.868  13.173
87962SOL    HW165725   0.686   7.816  13.253
87962SOL    HW265726   0.717   7.810  13.105
87963SOL     OW65727   6.930   2.745   0.421
87963SOL    HW165728   7.004   2.788   0.378
87963SOL    HW265729   6.899   2.681   0.357
87964SOL     OW65730   9.468   7.397   1.120
87964SOL    HW165731   9.420   7.469   1.160
87964SOL    HW265732   9.453   7.408   1.026
87965SOL     OW65733  10.634  10.540   5.115
87965SOL    HW165734  10.599  10.478   5.180
87965SOL    HW265735  10.661  10.484   5.042
87966SOL     OW65736   3.773   9.738  13.411
87966SOL    HW165737   3.839   9.674  13.436
87966SOL    HW265738   3.703   9.686  13.371
87967SOL     OW65739   5.510   9.479  12.122
87967SOL    HW165740   5.595   9.445  12.096
87967SOL    HW265741   5.500   9.452  12.214
87968SOL     OW65742  14.013   2.344   7.585
87968SOL    HW165743  13.943   2.288   7.619
87968SOL    HW265744  13.968   2.411   7.535
87969SOL     OW65745  12.591   7.273   4.475
87969SOL    HW165746  12.624   7.199   4.424
87969SOL    HW265747  12.506   7.294   4.436
87970SOL     OW65748   6.127  10.095   6.244
87970SOL    HW165749   6.164  10.061   6.163
87970SOL    HW265750   6.125  10.190   6.230
87971SOL     OW65751  13.628  12.727  12.938
87971SOL    HW165752  13.643  12.764  12.851
87971SOL    HW265753  13.657  12.636  12.931
87972SOL     OW65754   8.347   3.441   0.080
87972SOL    HW165755   8.442   3.431   0.084
87972SOL    HW265756   8.316   3.359   0.040
87973SOL     OW65757   7.884  14.047   8.997
87973SOL    HW165758   7.802  14.097   8.993
87973SOL    HW265759   7.929  14.082   9.074
87974SOL     OW65760  14.792  13.454   5.764
87974SOL    HW165761  14.826  13.372   5.728
87974SOL    HW265762  14.764  13.504   5.687
87975SOL     OW65763  12.783   7.702   8.425
87975SOL    HW165764  12.732   7.634   8.380
87975SOL    HW265765  12.717   7.752   8.474
87976SOL     OW65766   5.648   1.901   9.190
87976SOL    HW165767   5.626   1.877   9.280
87976SOL    HW265768   5.651   1.818   9.143
87977SOL     OW65769   1.872   3.492  13.077
87977SOL    HW165770   1.872   3.451  12.991
87977SOL    HW265771   1.939   3.444  13.127
87978SOL     OW65772   8.917  14.278  11.847
87978SOL    HW165773   8.984  14.321  11.793
87978SOL    HW265774   8.881  14.209  11.791
87979SOL     OW65775  11.924  12.593   9.988
87979SOL    HW165776  11.869  12.669   9.969
87979SOL    HW265777  11.965  12.572   9.904
87980SOL     OW65778   4.862   2.692   7.896
87980SOL    HW165779   4.848   2.603   7.863
87980SOL    HW265780   4.878   2.681   7.990
87981SOL     OW65781   4.475   9.128   5.964
87981SOL    HW165782   4.394   9.178   5.951
87981SOL    HW265783   4.544   9.194   5.956
87982SOL     OW65784   5.837  11.849   5.725
87982SOL    HW165785   5.912  11.870   5.669
87982SOL    HW265786   5.876  11.802   5.799
87983SOL     OW65787   7.327   5.171   2.569
87983SOL    HW165788   7.355   5.197   2.481
87983SOL    HW265789   7.240   5.132   2.556
87984SOL     OW65790  11.745   6.927   3.276
87984SOL    HW165791  11.776   6.952   3.363
87984SOL    HW265792  11.651   6.912   3.288
87985SOL     OW65793   7.864   7.749   9.062
87985SOL    HW165794   7.808   7.687   9.015
87985SOL    HW265795   7.938   7.763   9.003
87986SOL     OW65796   2.526   9.766   1.331
87986SOL    HW165797   2.430   9.769   1.338
87986SOL    HW265798   2.550   9.852   1.296
87987SOL     OW65799  10.263   6.252   7.284
87987SOL    HW165800  10.229   6.322   7.230
87987SOL    HW265801  10.313   6.296   7.353
87988SOL     OW65802   0.914   9.012   8.704
87988SOL    HW165803   0.855   9.023   8.779
87988SOL    HW265804   0.954   8.926   8.717
87989SOL     OW65805   8.124  13.272   5.251
87989SOL    HW165806   8.201  13.269   5.308
87989SOL    HW265807   8.154  13.231   5.170
87990SOL     OW65808   0.207   3.600  11.209
87990SOL    HW165809   0.274   3.534  11.192
87990SOL    HW265810   0.131   3.550  11.238
87991SOL     OW65811   9.189   7.128  12.734
87991SOL    HW165812   9.226   7.199  12.681
87991SOL    HW265813   9.252   7.056  12.724
87992SOL     OW65814  13.125   9.328   4.392
87992SOL    HW165815  13.196   9.391   4.385
87992SOL    HW265816  13.165   9.251   4.433
87993SOL     OW65817   4.986  13.792   7.805
87993SOL    HW165818   5.031  13.870   7.836
87993SOL    HW265819   4.971  13.740   7.884
87994SOL     OW65820   3.786   3.981   0.286
87994SOL    HW165821   3.746   3.975   0.373
87994SOL    HW265822   3.800   3.890   0.260
87995SOL     OW65823  11.912  13.000   6.734
87995SOL    HW165824  11.834  12.947   6.716
87995SOL    HW265825  11.985  12.939   6.724
87996SOL     OW65826   2.019  10.319   6.117
87996SOL    HW165827   1.952  10.388   6.117
87996SOL    HW265828   1.973  10.242   6.083
87997SOL     OW65829  11.831  13.946   4.090
87997SOL    HW165830  11.826  13.902   4.005
87997SOL    HW265831  11.798  13.881   4.152
87998SOL     OW65832   6.530  11.000   1.118
87998SOL    HW165833   6.524  10.986   1.024
87998SOL    HW265834   6.533  10.912   1.155
87999SOL     OW65835  10.040   4.987   4.214
87999SOL    HW165836  10.027   5.008   4.121
87999SOL    HW265837  10.126   4.946   4.217
88000SOL     OW65838  11.300  12.168   7.159
88000SOL    HW165839  11.238  12.097   7.144
88000SOL    HW265840  11.314  12.169   7.253
88001SOL     OW65841   6.503   9.778   4.058
88001SOL    HW165842   6.547   9.694   4.063
88001SOL    HW265843   6.520   9.820   4.143
88002SOL     OW65844  11.232   4.545   2.267
88002SOL    HW165845  11.146   4.515   2.238
88002SOL    HW265846  11.293   4.481   2.232
88003SOL     OW65847   8.365   4.298  10.134
88003SOL    HW165848   8.340   4.249  10.212
88003SOL    HW265849   8.429   4.243  10.090
88004SOL     OW65850   2.455   9.553   8.493
88004SOL    HW165851   2.459   9.545   8.398
88004SOL    HW265852   2.404   9.633   8.508
88005SOL     OW65853   7.788   3.050   9.044
88005SOL    HW165854   7.728   2.985   9.083
88005SOL    HW265855   7.744   3.079   8.965
88006SOL     OW65856  14.433   1.002  12.537
88006SOL    HW165857  14.405   1.078  12.587
88006SOL    HW265858  14.385   1.008  12.454
88007SOL     OW65859   2.934   1.957   0.576
88007SOL    HW165860   3.023   1.982   0.553
88007SOL    HW265861   2.945   1.886   0.640
88008SOL     OW65862   9.980   0.502  11.333
88008SOL    HW165863  10.012   0.584  11.297
88008SOL    HW265864   9.888   0.497  11.306
88009SOL     OW65865  12.198   4.930   7.699
88009SOL    HW165866  12.217   4.991   7.771
88009SOL    HW265867  12.124   4.878   7.731
88010SOL     OW65868   7.079   6.025   8.087
88010SOL    HW165869   7.112   6.001   8.174
88010SOL    HW265870   7.013   6.092   8.105
88011SOL     OW65871  11.547   5.742   2.738
88011SOL    HW165872  11.463   5.727   2.783
88011SOL    HW265873  11.601   5.667   2.764
88012SOL     OW65874   6.825   8.838   5.483
88012SOL    HW165875   6.851   8.929   5.496
88012SOL    HW265876   6.792   8.810   5.569
88013SOL     OW65877  12.545  11.491  13.260
88013SOL    HW165878  12.486  11.565  13.250
88013SOL    HW265879  12.592  11.508  13.341
88014SOL     OW65880  10.896  12.742   9.066
88014SOL    HW165881  10.849  12.783   9.138
88014SOL    HW265882  10.939  12.666   9.105
88015SOL     OW65883   6.714   7.098   7.199
88015SOL    HW165884   6.749   7.184   7.175
88015SOL    HW265885   6.783   7.059   7.254
88016SOL     OW65886   3.299   4.962   3.368
88016SOL    HW165887   3.227   5.003   3.416
88016SOL    HW265888   3.369   5.027   3.369
88017SOL     OW65889   5.442  11.928   7.176
88017SOL    HW165890   5.534  11.954   7.177
88017SOL    HW265891   5.443  11.838   7.143
88018SOL     OW65892   0.344  14.361  12.843
88018SOL    HW165893   0.356  14.455  12.857
88018SOL    HW265894   0.250  14.352  12.824
88019SOL     OW65895  12.882   5.436   3.620
88019SOL    HW165896  12.934   5.380   3.563
88019SOL    HW265897  12.916   5.524   3.605
88020SOL     OW65898   4.048  11.712   9.443
88020SOL    HW165899   4.082  11.633   9.485
88020SOL    HW265900   3.981  11.744   9.502
88021SOL     OW65901   8.094   1.491   9.191
88021SOL    HW165902   8.149   1.441   9.130
88021SOL    HW265903   8.031   1.427   9.225
88022SOL     OW65904  14.698   5.193  13.824
88022SOL    HW165905  14.650   5.117  13.857
88022SOL    HW265906  14.632   5.262  13.817
88023SOL     OW65907   2.392  10.751  13.958
88023SOL    HW165908   2.298  10.735  13.962
88023SOL    HW265909   2.400  10.838  13.920
88024SOL     OW65910   7.750  11.106   5.293
88024SOL    HW165911   7.672  11.160   5.279
88024SOL    HW265912   7.719  11.016   5.285
88025SOL     OW65913   3.361   3.861   8.661
88025SOL    HW165914   3.277   3.904   8.642
88025SOL    HW265915   3.411   3.870   8.580
88026SOL     OW65916   0.156  13.571   8.704
88026SOL    HW165917   0.106  13.648   8.729
88026SOL    HW265918   0.163  13.577   8.609
88027SOL     OW65919   6.840   5.391   7.376
88027SOL    HW165920   6.908   5.431   7.430
88027SOL    HW265921   6.839   5.443   7.296
88028SOL     OW65922  10.895   0.222   7.627
88028SOL    HW165923  10.950   0.186   7.558
88028SOL    HW265924  10.838   0.150   7.652
88029SOL     OW65925   9.167  14.445  13.951
88029SOL    HW165926   9.072  14.456  13.943
88029SOL    HW265927   9.190  14.493  14.030
88030SOL     OW65928   8.098  14.202   5.468
88030SOL    HW165929   8.194  14.205   5.472
88030SOL    HW265930   8.078  14.124   5.416
88031SOL     OW65931   7.658   7.608  12.075
88031SOL    HW165932   7.639   7.694  12.111
88031SOL    HW265933   7.727   7.573  12.131
88032SOL     OW65934   6.203   8.496   1.136
88032SOL    HW165935   6.212   8.411   1.094
88032SOL    HW265936   6.281   8.504   1.191
88033SOL     OW65937   9.471   3.046  13.522
88033SOL    HW165938   9.522   3.120  13.489
88033SOL    HW265939   9.512   2.969  13.482
88034SOL     OW65940   1.868   0.791   6.538
88034SOL    HW165941   1.945   0.784   6.482
88034SOL    HW265942   1.879   0.874   6.585
88035SOL     OW65943   1.520   9.841   7.856
88035SOL    HW165944   1.474   9.778   7.912
88035SOL    HW265945   1.559   9.903   7.918
88036SOL     OW65946   0.050   4.984   2.762
88036SOL    HW165947   0.066   4.957   2.852
88036SOL    HW265948   0.137   4.981   2.721
88037SOL     OW65949   8.730  14.419   8.627
88037SOL    HW165950   8.649  14.384   8.664
88037SOL    HW265951   8.707  14.444   8.537
88038SOL     OW65952   0.893   6.411  14.198
88038SOL    HW165953   0.926   6.489  14.155
88038SOL    HW265954   0.800   6.429  14.215
88039SOL     OW65955   7.068   2.559   4.446
88039SOL    HW165956   7.157   2.573   4.476
88039SOL    HW265957   7.058   2.464   4.443
88040SOL     OW65958   9.027   9.201   1.949
88040SOL    HW165959   9.087   9.268   1.981
88040SOL    HW265960   9.022   9.215   1.855
88041SOL     OW65961   0.973  12.006   4.826
88041SOL    HW165962   0.993  12.099   4.827
88041SOL    HW265963   1.057  11.963   4.811
88042SOL     OW65964   4.305  14.777   3.428
88042SOL    HW165965   4.323  14.683   3.427
88042SOL    HW265966   4.236  14.788   3.362
88043SOL     OW65967   4.011   8.693  12.447
88043SOL    HW165968   3.984   8.758  12.382
88043SOL    HW265969   4.040   8.744  12.522
88044SOL     OW65970  14.760   5.600   3.394
88044SOL    HW165971  14.759   5.595   3.489
88044SOL    HW265972  14.761   5.509   3.364
88045SOL     OW65973   0.218   8.762   3.404
88045SOL    HW165974   0.180   8.694   3.461
88045SOL    HW265975   0.184   8.741   3.317
88046SOL     OW65976   9.502   0.098   2.871
88046SOL    HW165977   9.434   0.049   2.917
88046SOL    HW265978   9.516   0.176   2.925
88047SOL     OW65979   8.096  10.509   3.688
88047SOL    HW165980   8.177  10.517   3.638
88047SOL    HW265981   8.029  10.488   3.622
88048SOL     OW65982  11.441   1.802  13.820
88048SOL    HW165983  11.480   1.866  13.760
88048SOL    HW265984  11.499   1.803  13.896
88049SOL     OW65985  13.912   1.685  12.744
88049SOL    HW165986  13.915   1.709  12.651
88049SOL    HW265987  13.996   1.714  12.779
88050SOL     OW65988  10.505  11.319  14.259
88050SOL    HW165989  10.480  11.359  14.175
88050SOL    HW265990  10.444  11.246  14.270
88051SOL     OW65991  13.144   9.315  14.243
88051SOL    HW165992  13.198   9.389  14.270
88051SOL    HW265993  13.087   9.298  14.318
88052SOL     OW65994   4.849  11.893   6.986
88052SOL    HW165995   4.877  11.981   7.010
88052SOL    HW265996   4.905  11.835   7.038
88053SOL     OW65997  12.643   5.398  10.263
88053SOL    HW165998  12.583   5.463  10.226
88053SOL    HW265999  12.730   5.427  10.234
88054SOL     OW66000   2.300   3.273   1.692
88054SOL    HW166001   2.251   3.190   1.696
88054SOL    HW266002   2.232   3.341   1.691
88055SOL     OW66003  10.694  12.789   8.371
88055SOL    HW166004  10.630  12.854   8.340
88055SOL    HW266005  10.673  12.710   8.322
88056SOL     OW66006   2.475   6.763  14.173
88056SOL    HW166007   2.462   6.824  14.099
88056SOL    HW266008   2.407   6.696  14.161
88057SOL     OW66009   0.782   2.300  11.226
88057SOL    HW166010   0.711   2.319  11.287
88057SOL    HW266011   0.835   2.379  11.226
88058SOL     OW66012   4.102   6.698  11.467
88058SOL    HW166013   4.163   6.770  11.454
88058SOL    HW266014   4.070   6.709  11.556
88059SOL     OW66015  12.256   1.208  14.192
88059SOL    HW166016  12.328   1.151  14.218
88059SOL    HW266017  12.202   1.153  14.135
88060SOL     OW66018   3.764   1.160  11.586
88060SOL    HW166019   3.726   1.102  11.520
88060SOL    HW266020   3.706   1.237  11.586
88061SOL     OW66021  14.687   0.340   9.592
88061SOL    HW166022  14.647   0.389   9.520
88061SOL    HW266023  14.726   0.408   9.648
88062SOL     OW66024   6.897  10.790   8.681
88062SOL    HW166025   6.890  10.875   8.637
88062SOL    HW266026   6.886  10.725   8.612
88063SOL     OW66027   1.849   2.758   9.259
88063SOL    HW166028   1.805   2.673   9.248
88063SOL    HW266029   1.813   2.813   9.190
88064SOL     OW66030   6.424   4.612   7.182
88064SOL    HW166031   6.470   4.666   7.246
88064SOL    HW266032   6.361   4.671   7.142
88065SOL     OW66033  14.623   5.590   6.668
88065SOL    HW166034  14.691   5.578   6.602
88065SOL    HW266035  14.601   5.501   6.697
88066SOL     OW66036  12.677  11.528   4.158
88066SOL    HW166037  12.636  11.610   4.131
88066SOL    HW266038  12.611  11.461   4.141
88067SOL     OW66039   5.980   6.024   8.334
88067SOL    HW166040   5.892   6.046   8.364
88067SOL    HW266041   6.038   6.084   8.381
88068SOL     OW66042  10.234   4.461   1.083
88068SOL    HW166043  10.245   4.403   1.158
88068SOL    HW266044  10.323   4.475   1.049
88069SOL     OW66045  13.085   0.511  13.601
88069SOL    HW166046  13.120   0.521  13.689
88069SOL    HW266047  13.002   0.463  13.613
88070SOL     OW66048  12.546  11.699   0.502
88070SOL    HW166049  12.521  11.763   0.436
88070SOL    HW266050  12.477  11.632   0.498
88071SOL     OW66051   4.977  13.362   8.992
88071SOL    HW166052   5.035  13.324   8.926
88071SOL    HW266053   4.931  13.287   9.030
88072SOL     OW66054  11.046   2.762  13.904
88072SOL    HW166055  11.111   2.706  13.863
88072SOL    HW266056  11.048   2.843  13.853
88073SOL     OW66057   3.558   4.440  10.625
88073SOL    HW166058   3.559   4.417  10.532
88073SOL    HW266059   3.465   4.450  10.647
88074SOL     OW66060   2.378  14.453   6.900
88074SOL    HW166061   2.440  14.523   6.880
88074SOL    HW266062   2.430  14.373   6.892
88075SOL     OW66063  10.221  13.340  11.716
88075SOL    HW166064  10.267  13.409  11.765
88075SOL    HW266065  10.285  13.269  11.711
88076SOL     OW66066   6.481   5.898   1.315
88076SOL    HW166067   6.537   5.928   1.242
88076SOL    HW266068   6.502   5.958   1.387
88077SOL     OW66069   2.598   9.679  14.195
88077SOL    HW166070   2.582   9.585  14.197
88077SOL    HW266071   2.545   9.714  14.266
88078SOL     OW66072  14.305   0.695   9.584
88078SOL    HW166073  14.347   0.620   9.627
88078SOL    HW266074  14.212   0.672   9.581
88079SOL     OW66075   4.404  13.726   6.529
88079SOL    HW166076   4.383  13.679   6.610
88079SOL    HW266077   4.342  13.691   6.465
88080SOL     OW66078   9.022  11.493  14.295
88080SOL    HW166079   9.037  11.402  14.320
88080SOL    HW266080   8.937  11.493  14.252
88081SOL     OW66081   1.426   1.389   4.346
88081SOL    HW166082   1.411   1.360   4.436
88081SOL    HW266083   1.350   1.355   4.298
88082SOL     OW66084   1.040   9.008   6.673
88082SOL    HW166085   1.050   8.946   6.601
88082SOL    HW266086   1.093   9.083   6.647
88083SOL     OW66087  12.882   1.724   1.728
88083SOL    HW166088  12.843   1.735   1.641
88083SOL    HW266089  12.968   1.686   1.711
88084SOL     OW66090   0.236   1.388   3.123
88084SOL    HW166091   0.317   1.377   3.173
88084SOL    HW266092   0.265   1.423   3.039
88085SOL     OW66093   8.722   4.331   3.610
88085SOL    HW166094   8.806   4.295   3.641
88085SOL    HW266095   8.656   4.284   3.661
88086SOL     OW66096   3.283   5.459  11.481
88086SOL    HW166097   3.293   5.437  11.574
88086SOL    HW266098   3.273   5.375  11.437
88087SOL     OW66099   5.609   5.459   7.929
88087SOL    HW166100   5.701   5.482   7.917
88087SOL    HW266101   5.562   5.515   7.866
88088SOL     OW66102   4.657   1.192  12.357
88088SOL    HW166103   4.644   1.260  12.290
88088SOL    HW266104   4.615   1.228  12.435
88089SOL     OW66105   4.578   2.375   1.989
88089SOL    HW166106   4.646   2.409   2.048
88089SOL    HW266107   4.627   2.340   1.914
88090SOL     OW66108   9.892   7.729   4.665
88090SOL    HW166109   9.802   7.699   4.675
88090SOL    HW266110   9.898   7.761   4.575
88091SOL     OW66111   8.412  14.251  13.728
88091SOL    HW166112   8.491  14.203  13.705
88091SOL    HW266113   8.419  14.266  13.822
88092SOL     OW66114   6.399  11.968   4.059
88092SOL    HW166115   6.404  11.907   3.986
88092SOL    HW266116   6.309  12.001   4.058
88093SOL     OW66117   7.163   4.586   5.871
88093SOL    HW166118   7.191   4.648   5.939
88093SOL    HW266119   7.107   4.637   5.813
88094SOL     OW66120   7.495  14.576   4.578
88094SOL    HW166121   7.498  14.666   4.610
88094SOL    HW266122   7.444  14.581   4.497
88095SOL     OW66123   1.027  14.256   4.222
88095SOL    HW166124   1.026  14.244   4.127
88095SOL    HW266125   1.102  14.313   4.239
88096SOL     OW66126   8.095  10.769   8.685
88096SOL    HW166127   8.168  10.793   8.741
88096SOL    HW266128   8.091  10.673   8.690
88097SOL     OW66129   9.633  12.708   6.773
88097SOL    HW166130   9.689  12.738   6.701
88097SOL    HW266131   9.689  12.651   6.825
88098SOL     OW66132   1.948   7.693   3.568
88098SOL    HW166133   1.890   7.693   3.492
88098SOL    HW266134   1.998   7.774   3.561
88099SOL     OW66135   9.831   6.204   6.555
88099SOL    HW166136   9.881   6.122   6.559
88099SOL    HW266137   9.862   6.253   6.631
88100SOL     OW66138  14.808   4.916   0.719
88100SOL    HW166139  14.819   4.936   0.626
88100SOL    HW266140  14.773   4.997   0.757
88101SOL     OW66141   8.481   5.124   3.580
88101SOL    HW166142   8.426   5.179   3.524
88101SOL    HW266143   8.510   5.182   3.650
88102SOL     OW66144   9.503   3.477   3.601
88102SOL    HW166145   9.494   3.402   3.661
88102SOL    HW266146   9.472   3.444   3.517
88103SOL     OW66147   7.425  14.298  13.420
88103SOL    HW166148   7.479  14.311  13.498
88103SOL    HW266149   7.348  14.353  13.435
88104SOL     OW66150  11.514  12.798   1.621
88104SOL    HW166151  11.532  12.832   1.708
88104SOL    HW266152  11.599  12.769   1.587
88105SOL     OW66153   1.012  14.662  10.986
88105SOL    HW166154   1.027  14.652  11.080
88105SOL    HW266155   1.065  14.593  10.947
88106SOL     OW66156   3.254  10.409  14.038
88106SOL    HW166157   3.311  10.334  14.054
88106SOL    HW266158   3.199  10.381  13.964
88107SOL     OW66159   2.883  14.671   7.505
88107SOL    HW166160   2.971  14.679   7.542
88107SOL    HW266161   2.898  14.652   7.412
88108SOL     OW66162   3.379   1.488   5.866
88108SOL    HW166163   3.451   1.543   5.836
88108SOL    HW266164   3.330   1.544   5.926
88109SOL     OW66165   5.928   9.396  13.591
88109SOL    HW166166   5.941   9.490  13.604
88109SOL    HW266167   5.834   9.387  13.576
88110SOL     OW66168   8.169   3.241   1.888
88110SOL    HW166169   8.184   3.273   1.799
88110SOL    HW266170   8.084   3.278   1.913
88111SOL     OW66171  11.083   6.285   0.438
88111SOL    HW166172  11.173   6.263   0.417
88111SOL    HW266173  11.031   6.238   0.373
88112SOL     OW66174   8.958   8.921  13.630
88112SOL    HW166175   8.889   8.973  13.672
88112SOL    HW266176   8.925   8.904  13.542
88113SOL     OW66177   0.930   7.302   9.112
88113SOL    HW166178   0.962   7.267   9.029
88113SOL    HW266179   0.957   7.238   9.178
88114SOL     OW66180   1.443   9.668  13.682
88114SOL    HW166181   1.538   9.670  13.688
88114SOL    HW266182   1.413   9.726  13.751
88115SOL     OW66183   9.476   7.741   9.815
88115SOL    HW166184   9.461   7.823   9.766
88115SOL    HW266185   9.545   7.697   9.767
88116SOL     OW66186   6.820   0.812   6.351
88116SOL    HW166187   6.876   0.825   6.428
88116SOL    HW266188   6.735   0.788   6.388
88117SOL     OW66189   1.050   9.801  10.333
88117SOL    HW166190   1.071   9.886  10.371
88117SOL    HW266191   1.087   9.804  10.245
88118SOL     OW66192  10.691   6.624   4.504
88118SOL    HW166193  10.598   6.605   4.500
88118SOL    HW266194  10.708   6.681   4.429
88119SOL     OW66195  12.349   6.232   7.421
88119SOL    HW166196  12.419   6.202   7.479
88119SOL    HW266197  12.373   6.322   7.399
88120SOL     OW66198   4.355   7.620   3.669
88120SOL    HW166199   4.435   7.671   3.662
88120SOL    HW266200   4.383   7.534   3.699
88121SOL     OW66201   9.586   5.528  14.713
88121SOL    HW166202   9.517   5.524  14.647
88121SOL    HW266203   9.541   5.557  14.792
88122SOL     OW66204   8.527  14.200   1.484
88122SOL    HW166205   8.574  14.159   1.412
88122SOL    HW266206   8.445  14.230   1.445
88123SOL     OW66207   8.280   8.185  13.170
88123SOL    HW166208   8.372   8.204  13.150
88123SOL    HW266209   8.231   8.235  13.105
88124SOL     OW66210  14.435   9.887   6.416
88124SOL    HW166211  14.528   9.889   6.438
88124SOL    HW266212  14.391   9.862   6.497
88125SOL     OW66213  11.987   3.977   1.636
88125SOL    HW166214  11.943   4.013   1.559
88125SOL    HW266215  11.973   4.043   1.704
88126SOL     OW66216   8.451   7.345  13.555
88126SOL    HW166217   8.356   7.341  13.567
88126SOL    HW266218   8.474   7.259  13.519
88127SOL     OW66219   7.396   4.354   3.691
88127SOL    HW166220   7.406   4.290   3.620
88127SOL    HW266221   7.302   4.356   3.708
88128SOL     OW66222  11.323   4.544   9.771
88128SOL    HW166223  11.282   4.478   9.715
88128SOL    HW266224  11.355   4.611   9.710
88129SOL     OW66225  12.116  13.424   6.492
88129SOL    HW166226  12.093  13.381   6.410
88129SOL    HW266227  12.033  13.447   6.532
88130SOL     OW66228   9.704   4.373   4.069
88130SOL    HW166229   9.684   4.288   4.029
88130SOL    HW266230   9.730   4.428   3.995
88131SOL     OW66231   3.883   9.780   7.983
88131SOL    HW166232   3.976   9.764   7.970
88131SOL    HW266233   3.877   9.823   8.068
88132SOL     OW66234   2.958   9.028   9.186
88132SOL    HW166235   2.874   9.051   9.225
88132SOL    HW266236   3.023   9.049   9.253
88133SOL     OW66237   7.923   2.651   9.038
88133SOL    HW166238   7.880   2.596   9.103
88133SOL    HW266239   7.944   2.732   9.085
88134SOL     OW66240   2.175   1.327   3.685
88134SOL    HW166241   2.083   1.349   3.666
88134SOL    HW266242   2.170   1.271   3.762
88135SOL     OW66243   9.456  12.278  12.746
88135SOL    HW166244   9.408  12.199  12.722
88135SOL    HW266245   9.513  12.295  12.671
88136SOL     OW66246  12.604  14.369   5.934
88136SOL    HW166247  12.634  14.293   5.884
88136SOL    HW266248  12.567  14.428   5.868
88137SOL     OW66249   2.856   3.711   4.189
88137SOL    HW166250   2.894   3.780   4.136
88137SOL    HW266251   2.769   3.697   4.151
88138SOL     OW66252   3.724   6.191   0.291
88138SOL    HW166253   3.729   6.281   0.322
88138SOL    HW266254   3.809   6.175   0.250
88139SOL     OW66255   2.611   9.202   4.950
88139SOL    HW166256   2.618   9.118   4.903
88139SOL    HW266257   2.700   9.239   4.945
88140SOL     OW66258   5.461   6.888  14.356
88140SOL    HW166259   5.434   6.972  14.393
88140SOL    HW266260   5.509   6.911  14.276
88141SOL     OW66261   2.649   4.769   5.246
88141SOL    HW166262   2.563   4.730   5.231
88141SOL    HW266263   2.639   4.861   5.223
88142SOL     OW66264   0.435   7.264   3.533
88142SOL    HW166265   0.468   7.323   3.465
88142SOL    HW266266   0.465   7.177   3.505
88143SOL     OW66267  12.472  13.217  10.265
88143SOL    HW166268  12.387  13.178  10.281
88143SOL    HW266269  12.519  13.208  10.348
88144SOL     OW66270  13.625  14.317  13.230
88144SOL    HW166271  13.660  14.404  13.209
88144SOL    HW266272  13.574  14.292  13.152
88145SOL     OW66273  13.214  12.548   5.290
88145SOL    HW166274  13.308  12.552   5.309
88145SOL    HW266275  13.172  12.543   5.375
88146SOL     OW66276   9.967   7.007  10.713
88146SOL    HW166277   9.873   6.994  10.725
88146SOL    HW266278  10.002   7.007  10.802
88147SOL     OW66279  10.327   2.104   9.834
88147SOL    HW166280  10.388   2.077   9.903
88147SOL    HW266281  10.377   2.166   9.781
88148SOL     OW66282   9.110  10.616   9.831
88148SOL    HW166283   9.151  10.570   9.904
88148SOL    HW266284   9.171  10.604   9.758
88149SOL     OW66285   4.881   0.993   2.190
88149SOL    HW166286   4.798   0.946   2.183
88149SOL    HW266287   4.917   0.965   2.274
88150SOL     OW66288   8.805   7.896   5.510
88150SOL    HW166289   8.774   7.981   5.480
88150SOL    HW266290   8.751   7.876   5.587
88151SOL     OW66291   6.971  13.986  11.337
88151SOL    HW166292   6.899  13.976  11.273
88151SOL    HW266293   7.003  14.075  11.322
88152SOL     OW66294  14.015   9.663  11.031
88152SOL    HW166295  13.966   9.602  10.976
88152SOL    HW266296  13.961   9.674  11.109
88153SOL     OW66297   1.042  13.371  10.797
88153SOL    HW166298   1.054  13.405  10.886
88153SOL    HW266299   0.949  13.385  10.779
88154SOL     OW66300   6.445   5.954   8.861
88154SOL    HW166301   6.508   5.984   8.795
88154SOL    HW266302   6.445   6.022   8.928
88155SOL     OW66303   8.749   7.191   4.197
88155SOL    HW166304   8.786   7.223   4.279
88155SOL    HW266305   8.658   7.219   4.199
88156SOL     OW66306   7.083   8.567  11.781
88156SOL    HW166307   7.023   8.585  11.709
88156SOL    HW266308   7.121   8.481  11.760
88157SOL     OW66309   5.912   7.823  14.039
88157SOL    HW166310   5.876   7.827  13.950
88157SOL    HW266311   5.857   7.760  14.085
88158SOL     OW66312   9.426   2.480   0.668
88158SOL    HW166313   9.453   2.485   0.577
88158SOL    HW266314   9.341   2.435   0.665
88159SOL     OW66315   2.670   4.180  11.942
88159SOL    HW166316   2.672   4.094  11.901
88159SOL    HW266317   2.748   4.182  11.998
88160SOL     OW66318   8.922   4.689   0.374
88160SOL    HW166319   8.975   4.629   0.428
88160SOL    HW266320   8.848   4.712   0.430
88161SOL     OW66321   0.870   0.606   7.098
88161SOL    HW166322   0.898   0.545   7.030
88161SOL    HW266323   0.779   0.626   7.077
88162SOL     OW66324   6.303   2.154   7.316
88162SOL    HW166325   6.319   2.249   7.311
88162SOL    HW266326   6.346   2.118   7.238
88163SOL     OW66327  13.143   3.021  12.686
88163SOL    HW166328  13.113   3.093  12.630
88163SOL    HW266329  13.064   2.970  12.704
88164SOL     OW66330   8.290   4.981   8.279
88164SOL    HW166331   8.332   5.057   8.320
88164SOL    HW266332   8.208   5.015   8.243
88165SOL     OW66333  13.035  10.751   8.625
88165SOL    HW166334  13.092  10.822   8.656
88165SOL    HW266335  12.999  10.713   8.705
88166SOL     OW66336   0.272   2.768   1.704
88166SOL    HW166337   0.313   2.854   1.715
88166SOL    HW266338   0.344   2.706   1.707
88167SOL     OW66339   9.547  10.343   8.815
88167SOL    HW166340   9.488  10.333   8.740
88167SOL    HW266341   9.586  10.430   8.802
88168SOL     OW66342  13.164   9.409  11.230
88168SOL    HW166343  13.258   9.420  11.213
88168SOL    HW266344  13.152   9.442  11.318
88169SOL     OW66345   4.766   3.108   2.943
88169SOL    HW166346   4.697   3.156   2.988
88169SOL    HW266347   4.846   3.134   2.989
88170SOL     OW66348   8.053  14.538  12.009
88170SOL    HW166349   8.099  14.483  11.946
88170SOL    HW266350   7.960  14.520  11.995
88171SOL     OW66351   0.313   6.536  11.218
88171SOL    HW166352   0.406   6.551  11.202
88171SOL    HW266353   0.311   6.478  11.295
88172SOL     OW66354  10.544   8.564   0.206
88172SOL    HW166355  10.615   8.554   0.269
88172SOL    HW266356  10.587   8.576   0.122
88173SOL     OW66357  10.776   1.553  12.541
88173SOL    HW166358  10.808   1.560  12.631
88173SOL    HW266359  10.753   1.461  12.532
88174SOL     OW66360   7.883  10.334   5.990
88174SOL    HW166361   7.872  10.388   6.068
88174SOL    HW266362   7.977  10.317   5.985
88175SOL     OW66363   9.947   5.920   0.239
88175SOL    HW166364   9.861   5.882   0.256
88175SOL    HW266365   9.955   5.920   0.143
88176SOL     OW66366  13.012  14.862  14.423
88176SOL    HW166367  13.072  14.788  14.438
88176SOL    HW266368  13.044   0.057  14.481
88177SOL     OW66369   0.960  11.631  11.671
88177SOL    HW166370   0.920  11.710  11.708
88177SOL    HW266371   1.050  11.632  11.704
88178SOL     OW66372   1.644  10.470  11.363
88178SOL    HW166373   1.689  10.456  11.447
88178SOL    HW266374   1.685  10.548  11.326
88179SOL     OW66375   6.224   2.713   8.654
88179SOL    HW166376   6.291   2.687   8.591
88179SOL    HW266377   6.216   2.637   8.713
88180SOL     OW66378   5.406   9.331   1.961
88180SOL    HW166379   5.329   9.278   1.982
88180SOL    HW266380   5.372   9.419   1.946
88181SOL     OW66381   1.132  12.823  10.916
88181SOL    HW166382   1.128  12.731  10.944
88181SOL    HW266383   1.217  12.853  10.948
88182SOL     OW66384   4.749   1.703   7.010
88182SOL    HW166385   4.741   1.609   6.994
88182SOL    HW266386   4.668   1.726   7.056
88183SOL     OW66387   5.238   6.774   5.889
88183SOL    HW166388   5.292   6.713   5.939
88183SOL    HW266389   5.155   6.777   5.936
88184SOL     OW66390  12.291   4.100   6.988
88184SOL    HW166391  12.361   4.035   6.995
88184SOL    HW266392  12.224   4.070   7.050
88185SOL     OW66393   9.162  10.582  12.597
88185SOL    HW166394   9.184  10.669  12.631
88185SOL    HW266395   9.105  10.600  12.522
88186SOL     OW66396   2.034   3.513   9.640
88186SOL    HW166397   2.063   3.555   9.720
88186SOL    HW266398   2.063   3.571   9.570
88187SOL     OW66399   2.880   7.188  13.922
88187SOL    HW166400   2.902   7.115  13.979
88187SOL    HW266401   2.951   7.190  13.858
88188SOL     OW66402   8.597   2.826  11.071
88188SOL    HW166403   8.600   2.918  11.048
88188SOL    HW266404   8.596   2.825  11.167
88189SOL     OW66405   0.752  14.234   6.195
88189SOL    HW166406   0.690  14.184   6.143
88189SOL    HW266407   0.800  14.287   6.131
88190SOL     OW66408   6.818   5.936  13.478
88190SOL    HW166409   6.876   6.003  13.514
88190SOL    HW266410   6.877   5.880  13.426
88191SOL     OW66411  11.281  14.003  13.868
88191SOL    HW166412  11.368  14.039  13.849
88191SOL    HW266413  11.252  14.050  13.947
88192SOL     OW66414   7.061  14.078   6.706
88192SOL    HW166415   6.996  14.089   6.775
88192SOL    HW266416   7.106  13.997   6.727
88193SOL     OW66417  11.882  12.114   9.706
88193SOL    HW166418  11.807  12.067   9.671
88193SOL    HW266419  11.871  12.204   9.674
88194SOL     OW66420   3.244   5.321   5.234
88194SOL    HW166421   3.213   5.396   5.284
88194SOL    HW266422   3.334   5.308   5.264
88195SOL     OW66423   1.213   1.072  10.121
88195SOL    HW166424   1.135   1.083  10.067
88195SOL    HW266425   1.278   1.036  10.061
88196SOL     OW66426  13.101   1.695  10.451
88196SOL    HW166427  13.078   1.616  10.499
88196SOL    HW266428  13.164   1.666  10.385
88197SOL     OW66429  11.681   8.095   9.076
88197SOL    HW166430  11.637   8.019   9.114
88197SOL    HW266431  11.716   8.065   8.993
88198SOL     OW66432  14.302  12.778   5.010
88198SOL    HW166433  14.333  12.771   5.100
88198SOL    HW266434  14.370  12.734   4.959
88199SOL     OW66435  11.718   2.894   9.775
88199SOL    HW166436  11.670   2.855   9.702
88199SOL    HW266437  11.724   2.825   9.841
88200SOL     OW66438  14.151   4.620   2.584
88200SOL    HW166439  14.138   4.559   2.656
88200SOL    HW266440  14.066   4.625   2.540
88201SOL     OW66441   2.484   1.160   0.493
88201SOL    HW166442   2.490   1.173   0.588
88201SOL    HW266443   2.446   1.073   0.482
88202SOL     OW66444   9.537   4.215   1.107
88202SOL    HW166445   9.464   4.241   1.162
88202SOL    HW266446   9.521   4.122   1.088
88203SOL     OW66447  10.610   5.177   9.484
88203SOL    HW166448  10.650   5.089   9.486
88203SOL    HW266449  10.527   5.164   9.438
88204SOL     OW66450  14.549   7.091   5.021
88204SOL    HW166451  14.498   7.168   4.996
88204SOL    HW266452  14.491   7.017   5.002
88205SOL     OW66453   6.844  12.653   4.799
88205SOL    HW166454   6.883  12.567   4.791
88205SOL    HW266455   6.825  12.662   4.893
88206SOL     OW66456   7.074   8.771  14.515
88206SOL    HW166457   7.100   8.796  14.603
88206SOL    HW266458   6.990   8.815  14.501
88207SOL     OW66459   0.354   5.380   9.848
88207SOL    HW166460   0.390   5.327   9.919
88207SOL    HW266461   0.273   5.335   9.823
88208SOL     OW66462   8.718   9.405  10.430
88208SOL    HW166463   8.700   9.312  10.421
88208SOL    HW266464   8.664   9.447  10.363
88209SOL     OW66465   2.871   6.879  14.564
88209SOL    HW166466   2.940   6.864  14.628
88209SOL    HW266467   2.865   6.796  14.516
88210SOL     OW66468  12.171   5.639   4.528
88210SOL    HW166469  12.126   5.562   4.563
88210SOL    HW266470  12.188   5.617   4.436
88211SOL     OW66471  12.772   6.454  14.439
88211SOL    HW166472  12.854   6.457  14.489
88211SOL    HW266473  12.721   6.528  14.472
88212SOL     OW66474   6.255   2.347   6.976
88212SOL    HW166475   6.310   2.269   6.965
88212SOL    HW266476   6.167   2.316   6.957
88213SOL     OW66477   3.338  13.362   6.658
88213SOL    HW166478   3.367  13.346   6.569
88213SOL    HW266479   3.412  13.334   6.713
88214SOL     OW66480  11.461  13.517   0.583
88214SOL    HW166481  11.387  13.575   0.569
88214SOL    HW266482  11.532  13.575   0.611
88215SOL     OW66483   4.144   1.579  14.209
88215SOL    HW166484   4.158   1.655  14.265
88215SOL    HW266485   4.085   1.611  14.140
88216SOL     OW66486   9.727  14.629   3.967
88216SOL    HW166487   9.773  14.627   4.051
88216SOL    HW266488   9.729  14.721   3.941
88217SOL     OW66489   7.643   0.679   9.949
88217SOL    HW166490   7.612   0.767   9.969
88217SOL    HW266491   7.660   0.680   9.855
88218SOL     OW66492   4.680  11.092   2.924
88218SOL    HW166493   4.659  11.013   2.875
88218SOL    HW266494   4.751  11.066   2.983
88219SOL     OW66495   2.116  13.889  12.957
88219SOL    HW166496   2.095  13.796  12.942
88219SOL    HW266497   2.031  13.930  12.972
88220SOL     OW66498  11.796  12.360   6.604
88220SOL    HW166499  11.764  12.300   6.671
88220SOL    HW266500  11.728  12.360   6.536
88221SOL     OW66501   9.459   9.761  12.270
88221SOL    HW166502   9.457   9.856  12.282
88221SOL    HW266503   9.518   9.747  12.196
88222SOL     OW66504   6.027  14.715  11.290
88222SOL    HW166505   6.009  14.633  11.336
88222SOL    HW266506   5.941  14.745  11.260
88223SOL     OW66507   9.901   4.008   2.882
88223SOL    HW166508   9.968   4.001   2.950
88223SOL    HW266509   9.935   3.955   2.810
88224SOL     OW66510   9.037   6.900   1.153
88224SOL    HW166511   8.952   6.887   1.111
88224SOL    HW266512   9.089   6.945   1.087
88225SOL     OW66513   8.725   3.200   0.016
88225SOL    HW166514   8.724   3.133  14.822
88225SOL    HW266515   8.699   3.281  14.845
88226SOL     OW66516   6.507   9.593   5.796
88226SOL    HW166517   6.573   9.566   5.861
88226SOL    HW266518   6.427   9.603   5.847
88227SOL     OW66519   8.266  12.485   0.659
88227SOL    HW166520   8.222  12.549   0.603
88227SOL    HW266521   8.202  12.466   0.729
88228SOL     OW66522   3.761   9.198  12.109
88228SOL    HW166523   3.846   9.228  12.141
88228SOL    HW266524   3.767   9.103  12.108
88229SOL     OW66525   2.152   5.089   5.728
88229SOL    HW166526   2.205   5.018   5.764
88229SOL    HW266527   2.078   5.045   5.687
88230SOL     OW66528   3.917   9.137   5.890
88230SOL    HW166529   3.983   9.179   5.835
88230SOL    HW266530   3.860   9.090   5.828
88231SOL     OW66531   0.299   2.748  11.378
88231SOL    HW166532   0.292   2.841  11.401
88231SOL    HW266533   0.389   2.725  11.400
88232SOL     OW66534  11.250  13.645   5.941
88232SOL    HW166535  11.190  13.700   5.890
88232SOL    HW266536  11.225  13.660   6.032
88233SOL     OW66537  10.544  10.676   0.323
88233SOL    HW166538  10.476  10.660   0.258
88233SOL    HW266539  10.543  10.771   0.337
88234SOL     OW66540   1.217   9.647   5.421
88234SOL    HW166541   1.155   9.575   5.404
88234SOL    HW266542   1.242   9.635   5.512
88235SOL     OW66543  11.434   7.606   8.663
88235SOL    HW166544  11.425   7.558   8.745
88235SOL    HW266545  11.371   7.678   8.670
88236SOL     OW66546   4.232   7.014  11.619
88236SOL    HW166547   4.280   6.965  11.687
88236SOL    HW266548   4.278   6.994  11.538
88237SOL     OW66549   2.336   7.119  13.125
88237SOL    HW166550   2.430   7.117  13.111
88237SOL    HW266551   2.300   7.065  13.055
88238SOL     OW66552   2.777  11.366  12.340
88238SOL    HW166553   2.786  11.271  12.339
88238SOL    HW266554   2.716  11.385  12.269
88239SOL     OW66555   8.469   3.981   6.049
88239SOL    HW166556   8.438   4.072   6.051
88239SOL    HW266557   8.537   3.978   6.116
88240SOL     OW66558  12.992   7.848  13.948
88240SOL    HW166559  12.940   7.828  13.869
88240SOL    HW266560  12.972   7.776  14.008
88241SOL     OW66561   5.253  14.499   8.277
88241SOL    HW166562   5.248  14.427   8.214
88241SOL    HW266563   5.213  14.574   8.232
88242SOL     OW66564   5.121   8.620   7.394
88242SOL    HW166565   5.111   8.622   7.489
88242SOL    HW266566   5.031   8.627   7.361
88243SOL     OW66567   6.154   9.185   3.291
88243SOL    HW166568   6.205   9.167   3.370
88243SOL    HW266569   6.099   9.108   3.279
88244SOL     OW66570   0.490  11.336  10.047
88244SOL    HW166571   0.459  11.302  10.131
88244SOL    HW266572   0.423  11.310   9.984
88245SOL     OW66573   7.822  13.618   6.592
88245SOL    HW166574   7.757  13.681   6.560
88245SOL    HW266575   7.876  13.599   6.515
88246SOL     OW66576   6.789   0.771   0.180
88246SOL    HW166577   6.802   0.866   0.171
88246SOL    HW266578   6.741   0.747   0.101
88247SOL     OW66579   9.159  12.029  14.587
88247SOL    HW166580   9.196  11.945  14.612
88247SOL    HW266581   9.138  12.019  14.494
88248SOL     OW66582   5.127   6.417   2.439
88248SOL    HW166583   5.168   6.499   2.467
88248SOL    HW266584   5.155   6.353   2.504
88249SOL     OW66585  10.504   3.880   9.979
88249SOL    HW166586  10.549   3.822  10.040
88249SOL    HW266587  10.442   3.823   9.934
88250SOL     OW66588   3.076   3.935  11.330
88250SOL    HW166589   3.005   3.999  11.328
88250SOL    HW266590   3.034   3.852  11.353
88251SOL     OW66591  14.573  14.030   4.973
88251SOL    HW166592  14.488  14.062   4.944
88251SOL    HW266593  14.559  13.936   4.988
88252SOL     OW66594  12.358   9.957   7.249
88252SOL    HW166595  12.294  10.002   7.194
88252SOL    HW266596  12.401   9.895   7.190
88253SOL     OW66597  10.463   1.823   7.586
88253SOL    HW166598  10.496   1.735   7.569
88253SOL    HW266599  10.379   1.809   7.630
88254SOL     OW66600   5.269  14.131   2.562
88254SOL    HW166601   5.242  14.066   2.628
88254SOL    HW266602   5.230  14.213   2.592
88255SOL     OW66603   9.194  12.227   1.349
88255SOL    HW166604   9.244  12.229   1.431
88255SOL    HW266605   9.117  12.280   1.367
88256SOL     OW66606   5.507   6.238  10.838
88256SOL    HW166607   5.524   6.270  10.749
88256SOL    HW266608   5.593   6.212  10.871
88257SOL     OW66609  14.096  10.006   0.604
88257SOL    HW166610  14.100   9.988   0.698
88257SOL    HW266611  14.184  10.039   0.583
88258SOL     OW66612  14.143  10.384   0.254
88258SOL    HW166613  14.232  10.414   0.236
88258SOL    HW266614  14.153  10.327   0.331
88259SOL     OW66615   0.119   5.627  12.321
88259SOL    HW166616   0.187   5.679  12.279
88259SOL    HW266617   0.153   5.610  12.409
88260SOL     OW66618  11.767  11.052  12.040
88260SOL    HW166619  11.784  11.035  12.133
88260SOL    HW266620  11.799  11.141  12.026
88261SOL     OW66621   7.116   8.469   7.747
88261SOL    HW166622   7.122   8.544   7.688
88261SOL    HW266623   7.035   8.482   7.795
88262SOL     OW66624   2.841   7.431   3.603
88262SOL    HW166625   2.770   7.382   3.644
88262SOL    HW266626   2.805   7.458   3.518
88263SOL     OW66627   1.052  12.482   5.912
88263SOL    HW166628   0.991  12.551   5.940
88263SOL    HW266629   1.006  12.436   5.843
88264SOL     OW66630   5.184   9.568   3.507
88264SOL    HW166631   5.247   9.616   3.560
88264SOL    HW266632   5.168   9.487   3.554
88265SOL     OW66633   4.926   0.089   0.202
88265SOL    HW166634   4.878   0.050   0.275
88265SOL    HW266635   4.964   0.015   0.155
88266SOL     OW66636   3.559   8.276   8.862
88266SOL    HW166637   3.468   8.245   8.856
88266SOL    HW266638   3.599   8.221   8.928
88267SOL     OW66639   8.050   8.603   3.051
88267SOL    HW166640   8.072   8.668   2.983
88267SOL    HW266641   8.063   8.649   3.133
88268SOL     OW66642   2.837   3.719  13.811
88268SOL    HW166643   2.850   3.783  13.881
88268SOL    HW266644   2.914   3.728  13.755
88269SOL     OW66645   8.347  11.142   8.689
88269SOL    HW166646   8.399  11.195   8.750
88269SOL    HW266647   8.412  11.090   8.642
88270SOL     OW66648   6.707   0.651  14.055
88270SOL    HW166649   6.703   0.565  14.097
88270SOL    HW266650   6.655   0.642  13.976
88271SOL     OW66651   2.063  13.866   0.312
88271SOL    HW166652   2.060  13.961   0.298
88271SOL    HW266653   2.155  13.846   0.326
88272SOL     OW66654  13.857  11.772  13.751
88272SOL    HW166655  13.892  11.808  13.669
88272SOL    HW266656  13.909  11.693  13.766
88273SOL     OW66657   5.102  10.194   0.515
88273SOL    HW166658   5.079  10.113   0.561
88273SOL    HW266659   5.033  10.255   0.538
88274SOL     OW66660  12.418   2.119  11.908
88274SOL    HW166661  12.416   2.040  11.854
88274SOL    HW266662  12.486   2.174  11.868
88275SOL     OW66663   9.666   8.867  12.666
88275SOL    HW166664   9.591   8.841  12.719
88275SOL    HW266665   9.655   8.961  12.654
88276SOL     OW66666  10.985   8.143  14.087
88276SOL    HW166667  10.951   8.161  13.999
88276SOL    HW266668  11.028   8.058  14.079
88277SOL     OW66669   5.304   0.062  13.970
88277SOL    HW166670   5.397   0.083  13.979
88277SOL    HW266671   5.259   0.133  14.015
88278SOL     OW66672   4.259  14.591  14.020
88278SOL    HW166673   4.256  14.526  14.090
88278SOL    HW266674   4.169  14.599  13.991
88279SOL     OW66675   2.754  11.668   3.646
88279SOL    HW166676   2.811  11.607   3.694
88279SOL    HW266677   2.666  11.649   3.678
88280SOL     OW66678   3.770  10.116   2.873
88280SOL    HW166679   3.763  10.207   2.843
88280SOL    HW266680   3.701  10.070   2.826
88281SOL     OW66681   3.990   0.844  11.881
88281SOL    HW166682   3.955   0.927  11.914
88281SOL    HW266683   4.067   0.826  11.936
88282SOL     OW66684   2.124   0.319   9.544
88282SOL    HW166685   2.055   0.364   9.495
88282SOL    HW266686   2.137   0.237   9.497
88283SOL     OW66687   3.930   5.970   4.367
88283SOL    HW166688   3.861   5.994   4.428
88283SOL    HW266689   3.948   5.878   4.386
88284SOL     OW66690   8.307   5.653   4.198
88284SOL    HW166691   8.250   5.727   4.217
88284SOL    HW266692   8.289   5.632   4.106
88285SOL     OW66693   4.821   8.740  13.645
88285SOL    HW166694   4.730   8.731  13.672
88285SOL    HW266695   4.828   8.828  13.610
88286SOL     OW66696   1.086  10.137  11.294
88286SOL    HW166697   1.006  10.115  11.343
88286SOL    HW266698   1.053  10.174  11.212
88287SOL     OW66699   2.502   0.430  12.670
88287SOL    HW166700   2.416   0.423  12.628
88287SOL    HW266701   2.488   0.489  12.744
88288SOL     OW66702   8.969   6.584   6.545
88288SOL    HW166703   8.981   6.556   6.636
88288SOL    HW266704   8.878   6.613   6.541
88289SOL     OW66705  11.013  12.014   2.357
88289SOL    HW166706  10.977  11.977   2.276
88289SOL    HW266707  10.946  11.998   2.423
88290SOL     OW66708   7.621   4.259   9.728
88290SOL    HW166709   7.656   4.251   9.639
88290SOL    HW266710   7.545   4.200   9.730
88291SOL     OW66711   3.800  10.796   0.127
88291SOL    HW166712   3.815  10.889   0.147
88291SOL    HW266713   3.740  10.797   0.052
88292SOL     OW66714   8.424  11.697   2.491
88292SOL    HW166715   8.479  11.667   2.563
88292SOL    HW266716   8.463  11.780   2.464
88293SOL     OW66717   9.216  12.966  14.001
88293SOL    HW166718   9.142  13.026  13.992
88293SOL    HW266719   9.257  12.965  13.915
88294SOL     OW66720   9.404   3.184   3.153
88294SOL    HW166721   9.416   3.091   3.174
88294SOL    HW266722   9.461   3.199   3.077
88295SOL     OW66723   5.530  13.962   5.321
88295SOL    HW166724   5.607  13.906   5.311
88295SOL    HW266725   5.456  13.905   5.300
88296SOL     OW66726   1.308   9.429  13.654
88296SOL    HW166727   1.348   9.515  13.662
88296SOL    HW266728   1.341   9.395  13.570
88297SOL     OW66729   0.881  11.264   1.399
88297SOL    HW166730   0.789  11.282   1.380
88297SOL    HW266731   0.900  11.184   1.350
88298SOL     OW66732   0.385  14.482   1.355
88298SOL    HW166733   0.311  14.446   1.403
88298SOL    HW266734   0.390  14.573   1.384
88299SOL     OW66735   0.266  14.864  12.588
88299SOL    HW166736   0.213  14.804  12.639
88299SOL    HW266737   0.342   0.009  12.643
88300SOL     OW66738   7.605   0.632   5.998
88300SOL    HW166739   7.678   0.657   5.941
88300SOL    HW266740   7.599   0.704   6.061
88301SOL     OW66741  13.439  13.520   9.895
88301SOL    HW166742  13.405  13.506   9.982
88301SOL    HW266743  13.505  13.589   9.906
88302SOL     OW66744  14.478  10.909   6.049
88302SOL    HW166745  14.452  10.838   6.108
88302SOL    HW266746  14.495  10.866   5.965
88303SOL     OW66747   2.244   9.002   3.699
88303SOL    HW166748   2.242   8.909   3.723
88303SOL    HW266749   2.267   9.001   3.606
88304SOL     OW66750   6.683  11.047   4.392
88304SOL    HW166751   6.772  11.024   4.366
88304SOL    HW266752   6.667  11.132   4.350
88305SOL     OW66753   9.293   5.348  11.763
88305SOL    HW166754   9.238   5.426  11.754
88305SOL    HW266755   9.259   5.287  11.698
88306SOL     OW66756   8.619  10.298   9.849
88306SOL    HW166757   8.615  10.299   9.753
88306SOL    HW266758   8.701  10.252   9.868
88307SOL     OW66759   7.401  14.546   9.893
88307SOL    HW166760   7.346  14.612   9.936
88307SOL    HW266761   7.401  14.472   9.953
88308SOL     OW66762   2.070   0.522  10.580
88308SOL    HW166763   2.091   0.597  10.636
88308SOL    HW266764   2.070   0.557  10.491
88309SOL     OW66765   0.263   2.069  14.304
88309SOL    HW166766   0.290   2.141  14.247
88309SOL    HW266767   0.345   2.035  14.340
88310SOL     OW66768   1.221  14.758   8.848
88310SOL    HW166769   1.137  14.783   8.810
88310SOL    HW266770   1.281  14.752   8.774
88311SOL     OW66771  14.729   5.035   7.213
88311SOL    HW166772  14.767   4.947   7.213
88311SOL    HW266773  14.779   5.083   7.147
88312SOL     OW66774  12.651   2.927  12.289
88312SOL    HW166775  12.708   2.948  12.215
88312SOL    HW266776  12.708   2.931  12.366
88313SOL     OW66777   3.077  12.530  14.044
88313SOL    HW166778   3.126  12.555  13.965
88313SOL    HW266779   3.091  12.604  14.104
88314SOL     OW66780   3.712   1.367   8.787
88314SOL    HW166781   3.667   1.349   8.704
88314SOL    HW266782   3.654   1.427   8.834
88315SOL     OW66783   3.980  12.577   7.925
88315SOL    HW166784   3.947  12.609   7.841
88315SOL    HW266785   3.946  12.488   7.933
88316SOL     OW66786   3.236   3.590   3.938
88316SOL    HW166787   3.156   3.624   3.897
88316SOL    HW266788   3.273   3.530   3.873
88317SOL     OW66789   7.231  10.691   9.305
88317SOL    HW166790   7.146  10.725   9.277
88317SOL    HW266791   7.256  10.630   9.235
88318SOL     OW66792   9.095  13.987   1.665
88318SOL    HW166793   9.085  14.081   1.680
88318SOL    HW266794   9.167  13.961   1.722
88319SOL     OW66795   8.005   9.558   4.154
88319SOL    HW166796   7.981   9.614   4.080
88319SOL    HW266797   7.927   9.558   4.210
88320SOL     OW66798   2.306   6.894  12.500
88320SOL    HW166799   2.270   6.976  12.468
88320SOL    HW266800   2.400   6.903  12.489
88321SOL     OW66801  14.642   5.623  10.149
88321SOL    HW166802  14.574   5.594  10.211
88321SOL    HW266803  14.721   5.631  10.202
88322SOL     OW66804   9.473  12.223  14.836
88322SOL    HW166805   9.490  12.317  14.829
88322SOL    HW266806   9.469  12.192  14.746
88323SOL     OW66807   4.496   3.778  12.966
88323SOL    HW166808   4.498   3.684  12.954
88323SOL    HW266809   4.505   3.791  13.060
88324SOL     OW66810  12.472  10.893  13.457
88324SOL    HW166811  12.473  10.959  13.526
88324SOL    HW266812  12.380  10.876  13.440
88325SOL     OW66813   1.057   1.771   8.947
88325SOL    HW166814   1.088   1.860   8.935
88325SOL    HW266815   1.136   1.720   8.966
88326SOL     OW66816   4.027   0.961   7.057
88326SOL    HW166817   4.112   1.005   7.054
88326SOL    HW266818   4.028   0.901   6.983
88327SOL     OW66819   4.459  14.448  12.320
88327SOL    HW166820   4.520  14.479  12.387
88327SOL    HW266821   4.396  14.394  12.367
88328SOL     OW66822  12.902   1.104   0.722
88328SOL    HW166823  12.912   1.089   0.628
88328SOL    HW266824  12.846   1.181   0.728
88329SOL     OW66825   4.202   1.380   5.277
88329SOL    HW166826   4.261   1.367   5.203
88329SOL    HW266827   4.156   1.461   5.256
88330SOL     OW66828   3.124  10.311  11.727
88330SOL    HW166829   3.093  10.284  11.814
88330SOL    HW266830   3.211  10.348  11.743
88331SOL     OW66831   5.901   5.100   8.731
88331SOL    HW166832   5.959   5.033   8.766
88331SOL    HW266833   5.823   5.097   8.787
88332SOL     OW66834  14.722   0.171   5.603
88332SOL    HW166835  14.632   0.158   5.573
88332SOL    HW266836  14.776   0.152   5.527
88333SOL     OW66837   4.745  14.300   8.938
88333SOL    HW166838   4.731  14.312   9.032
88333SOL    HW266839   4.805  14.370   8.913
88334SOL     OW66840  12.580   5.336   8.965
88334SOL    HW166841  12.607   5.426   8.987
88334SOL    HW266842  12.637   5.281   9.019
88335SOL     OW66843   4.585  12.686   8.711
88335SOL    HW166844   4.563  12.775   8.739
88335SOL    HW266845   4.676  12.675   8.738
88336SOL     OW66846   8.699  11.047   8.295
88336SOL    HW166847   8.754  11.124   8.283
88336SOL    HW266848   8.623  11.063   8.239
88337SOL     OW66849   4.371   0.750  10.422
88337SOL    HW166850   4.402   0.662  10.443
88337SOL    HW266851   4.313   0.773  10.494
88338SOL     OW66852   7.976  10.089  14.172
88338SOL    HW166853   7.941  10.006  14.141
88338SOL    HW266854   8.069  10.071  14.188
88339SOL     OW66855  13.558   3.296   9.124
88339SOL    HW166856  13.646   3.314   9.090
88339SOL    HW266857  13.536   3.372   9.177
88340SOL     OW66858  14.113  13.134   5.105
88340SOL    HW166859  14.095  13.075   5.032
88340SOL    HW266860  14.209  13.135   5.111
88341SOL     OW66861  10.486   2.180   6.705
88341SOL    HW166862  10.480   2.254   6.766
88341SOL    HW266863  10.395   2.155   6.690
88342SOL     OW66864   8.568  14.809   3.459
88342SOL    HW166865   8.551  14.806   3.365
88342SOL    HW266866   8.481  14.808   3.499
88343SOL     OW66867   6.130   9.570  14.832
88343SOL    HW166868   6.135   9.480  14.865
88343SOL    HW266869   6.047   9.575  14.785
88344SOL     OW66870   5.646   9.777  11.810
88344SOL    HW166871   5.615   9.790  11.900
88344SOL    HW266872   5.585   9.713  11.774
88345SOL     OW66873   8.742  10.834  11.538
88345SOL    HW166874   8.713  10.744  11.523
88345SOL    HW266875   8.765  10.867  11.451
88346SOL     OW66876  11.631   6.208   0.581
88346SOL    HW166877  11.697   6.171   0.639
88346SOL    HW266878  11.592   6.133   0.537
88347SOL     OW66879  10.550   9.412  13.647
88347SOL    HW166880  10.542   9.335  13.590
88347SOL    HW266881  10.466   9.416  13.693
88348SOL     OW66882   0.318  14.190   0.082
88348SOL    HW166883   0.256  14.159   0.148
88348SOL    HW266884   0.395  14.217   0.131
88349SOL     OW66885   4.441   2.955  10.611
88349SOL    HW166886   4.388   2.894  10.560
88349SOL    HW266887   4.418   2.936  10.702
88350SOL     OW66888  14.807   0.804  13.394
88350SOL    HW166889   0.026   0.801  13.369
88350SOL    HW266890  14.770   0.725  13.356
88351SOL     OW66891   0.262  14.717   6.459
88351SOL    HW166892   0.267  14.715   6.363
88351SOL    HW266893   0.299  14.633   6.486
88352SOL     OW66894   7.874  10.286  10.636
88352SOL    HW166895   7.914  10.260  10.553
88352SOL    HW266896   7.783  10.258  10.628
88353SOL     OW66897   0.412   3.913   7.139
88353SOL    HW166898   0.346   3.956   7.085
88353SOL    HW266899   0.432   3.832   7.093
88354SOL     OW66900   8.310   4.177   3.955
88354SOL    HW166901   8.394   4.156   3.996
88354SOL    HW266902   8.271   4.243   4.012
88355SOL     OW66903   6.924  11.024   5.677
88355SOL    HW166904   6.974  11.037   5.758
88355SOL    HW266905   6.834  11.049   5.700
88356SOL     OW66906   7.328   2.980   8.971
88356SOL    HW166907   7.299   2.980   8.880
88356SOL    HW266908   7.253   2.948   9.021
88357SOL     OW66909   1.806  11.556   4.359
88357SOL    HW166910   1.775  11.630   4.307
88357SOL    HW266911   1.796  11.584   4.450
88358SOL     OW66912  11.980   1.847   2.524
88358SOL    HW166913  12.003   1.875   2.612
88358SOL    HW266914  11.939   1.761   2.535
88359SOL     OW66915   7.754  11.004   1.771
88359SOL    HW166916   7.803  11.075   1.729
88359SOL    HW266917   7.716  10.955   1.697
88360SOL     OW66918   3.755  11.849   3.598
88360SOL    HW166919   3.813  11.899   3.540
88360SOL    HW266920   3.796  11.856   3.684
88361SOL     OW66921   8.819  11.804   2.528
88361SOL    HW166922   8.878  11.880   2.529
88361SOL    HW266923   8.777  11.805   2.614
88362SOL     OW66924   4.144   6.240   0.666
88362SOL    HW166925   4.165   6.334   0.659
88362SOL    HW266926   4.079   6.225   0.599
88363SOL     OW66927   2.299   5.107  11.718
88363SOL    HW166928   2.290   5.173  11.786
88363SOL    HW266929   2.218   5.114  11.667
88364SOL     OW66930  10.504   9.175  10.720
88364SOL    HW166931  10.485   9.139  10.807
88364SOL    HW266932  10.429   9.149  10.666
88365SOL     OW66933   8.407   3.823   9.845
88365SOL    HW166934   8.316   3.841   9.866
88365SOL    HW266935   8.415   3.845   9.752
88366SOL     OW66936   5.194   8.449   6.749
88366SOL    HW166937   5.239   8.457   6.665
88366SOL    HW266938   5.115   8.502   6.739
88367SOL     OW66939  10.106   7.757  13.996
88367SOL    HW166940  10.057   7.719  14.069
88367SOL    HW266941  10.191   7.781  14.034
88368SOL     OW66942   9.618  12.168   1.948
88368SOL    HW166943   9.676  12.212   1.886
88368SOL    HW266944   9.677  12.115   2.001
88369SOL     OW66945  12.551   7.328   2.059
88369SOL    HW166946  12.525   7.419   2.072
88369SOL    HW266947  12.560   7.319   1.964
88370SOL     OW66948   0.873   1.036   3.744
88370SOL    HW166949   0.880   1.036   3.839
88370SOL    HW266950   0.801   0.976   3.724
88371SOL     OW66951  11.593   3.465   7.975
88371SOL    HW166952  11.539   3.502   7.906
88371SOL    HW266953  11.531   3.436   8.042
88372SOL     OW66954   0.363   2.173  14.051
88372SOL    HW166955   0.448   2.132  14.070
88372SOL    HW266956   0.376   2.217  13.967
88373SOL     OW66957  11.939   9.329   7.958
88373SOL    HW166958  11.915   9.236   7.955
88373SOL    HW266959  11.980   9.340   8.045
88374SOL     OW66960   8.547   1.486   0.495
88374SOL    HW166961   8.557   1.573   0.456
88374SOL    HW266962   8.636   1.454   0.508
88375SOL     OW66963   6.240   1.182  10.683
88375SOL    HW166964   6.232   1.120  10.756
88375SOL    HW266965   6.307   1.244  10.712
88376SOL     OW66966   8.524   6.079   4.086
88376SOL    HW166967   8.602   6.090   4.032
88376SOL    HW266968   8.534   6.143   4.157
88377SOL     OW66969   8.735  14.547   3.363
88377SOL    HW166970   8.829  14.540   3.349
88377SOL    HW266971   8.725  14.590   3.448
88378SOL     OW66972   6.442  12.013  11.343
88378SOL    HW166973   6.451  11.989  11.251
88378SOL    HW266974   6.514  11.967  11.387
88379SOL     OW66975   3.453   6.513   4.395
88379SOL    HW166976   3.371   6.539   4.351
88379SOL    HW266977   3.515   6.500   4.323
88380SOL     OW66978  14.509  11.224  10.940
88380SOL    HW166979  14.431  11.279  10.932
88380SOL    HW266980  14.534  11.232  11.032
88381SOL     OW66981  13.895   6.729   3.868
88381SOL    HW166982  13.943   6.695   3.793
88381SOL    HW266983  13.815   6.766   3.831
88382SOL     OW66984  10.212   0.182   6.897
88382SOL    HW166985  10.244   0.209   6.982
88382SOL    HW266986  10.150   0.111   6.915
88383SOL     OW66987  10.500   0.036   8.153
88383SOL    HW166988  10.487  14.817   8.168
88383SOL    HW266989  10.536   0.069   8.236
88384SOL     OW66990   7.458   5.940   1.054
88384SOL    HW166991   7.408   5.977   0.981
88384SOL    HW266992   7.394   5.887   1.101
88385SOL     OW66993   5.347   3.315   7.218
88385SOL    HW166994   5.256   3.344   7.228
88385SOL    HW266995   5.340   3.224   7.190
88386SOL     OW66996  12.547   7.202   5.271
88386SOL    HW166997  12.486   7.276   5.277
88386SOL    HW266998  12.633   7.243   5.260
88387SOL     OW66999   4.696   0.215   6.885
88387SOL    HW167000   4.776   0.190   6.932
88387SOL    HW267001   4.648   0.132   6.875
88388SOL     OW67002  13.338   5.670   9.627
88388SOL    HW167003  13.391   5.724   9.686
88388SOL    HW267004  13.305   5.731   9.561
88389SOL     OW67005   6.583  12.361   1.162
88389SOL    HW167006   6.542  12.299   1.102
88389SOL    HW267007   6.591  12.442   1.110
88390SOL     OW67008   7.184  12.671  12.303
88390SOL    HW167009   7.177  12.709  12.390
88390SOL    HW267010   7.176  12.577  12.317
88391SOL     OW67011   2.209  14.237   6.381
88391SOL    HW167012   2.262  14.205   6.308
88391SOL    HW267013   2.272  14.252   6.451
88392SOL     OW67014   5.512  11.262  12.681
88392SOL    HW167015   5.588  11.209  12.703
88392SOL    HW267016   5.547  11.336  12.632
88393SOL     OW67017   4.403   6.217   2.205
88393SOL    HW167018   4.463   6.214   2.279
88393SOL    HW267019   4.364   6.130   2.202
88394SOL     OW67020   2.379   9.147   5.050
88394SOL    HW167021   2.459   9.185   5.014
88394SOL    HW267022   2.347   9.213   5.111
88395SOL     OW67023  14.272  11.619   6.024
88395SOL    HW167024  14.211  11.671   5.972
88395SOL    HW267025  14.276  11.535   5.979
88396SOL     OW67026  14.540   9.956   5.817
88396SOL    HW167027  14.587   9.984   5.738
88396SOL    HW267028  14.610   9.930   5.878
88397SOL     OW67029   8.820   7.638   8.424
88397SOL    HW167030   8.828   7.617   8.332
88397SOL    HW267031   8.727   7.662   8.436
88398SOL     OW67032   6.098   0.133   5.492
88398SOL    HW167033   6.068   0.059   5.545
88398SOL    HW267034   6.051   0.125   5.410
88399SOL     OW67035   5.344  10.833   2.313
88399SOL    HW167036   5.278  10.771   2.283
88399SOL    HW267037   5.295  10.913   2.333
88400SOL     OW67038   1.815   9.373  12.048
88400SOL    HW167039   1.796   9.300  11.990
88400SOL    HW267040   1.732   9.389  12.094
88401SOL     OW67041   5.812   3.825   7.409
88401SOL    HW167042   5.784   3.860   7.493
88401SOL    HW267043   5.732   3.792   7.368
88402SOL     OW67044   2.833   1.609  13.891
88402SOL    HW167045   2.762   1.649  13.942
88402SOL    HW267046   2.788   1.551  13.829
88403SOL     OW67047  14.342   0.069  14.297
88403SOL    HW167048  14.427   0.039  14.331
88403SOL    HW267049  14.325   0.151  14.343
88404SOL     OW67050   8.934   7.503   7.249
88404SOL    HW167051   8.962   7.580   7.200
88404SOL    HW267052   8.990   7.433   7.218
88405SOL     OW67053   4.558   1.778  14.153
88405SOL    HW167054   4.486   1.841  14.165
88405SOL    HW267055   4.514   1.697  14.127
88406SOL     OW67056  11.989   8.234  14.342
88406SOL    HW167057  11.921   8.256  14.278
88406SOL    HW267058  11.983   8.302  14.409
88407SOL     OW67059   4.132  13.382   0.255
88407SOL    HW167060   4.040  13.407   0.245
88407SOL    HW267061   4.172  13.457   0.299
88408SOL     OW67062   1.116  11.909   9.763
88408SOL    HW167063   1.182  11.914   9.694
88408SOL    HW267064   1.037  11.946   9.723
88409SOL     OW67065   6.652   3.090  14.405
88409SOL    HW167066   6.714   3.030  14.447
88409SOL    HW267067   6.578   3.095  14.467
88410SOL     OW67068  12.336   0.205  13.179
88410SOL    HW167069  12.319   0.192  13.272
88410SOL    HW267070  12.338   0.300  13.167
88411SOL     OW67071  14.267   4.733  12.824
88411SOL    HW167072  14.311   4.702  12.745
88411SOL    HW267073  14.264   4.657  12.881
88412SOL     OW67074  13.149   0.921  14.175
88412SOL    HW167075  13.142   0.840  14.225
88412SOL    HW267076  13.073   0.972  14.201
88413SOL     OW67077   1.273  12.516   8.440
88413SOL    HW167078   1.287  12.425   8.467
88413SOL    HW267079   1.316  12.569   8.507
88414SOL     OW67080  10.869  11.928   2.593
88414SOL    HW167081  10.901  11.846   2.631
88414SOL    HW267082  10.880  11.993   2.662
88415SOL     OW67083  10.020   4.236  10.616
88415SOL    HW167084  10.116   4.228  10.612
88415SOL    HW267085   9.997   4.199  10.702
88416SOL     OW67086   6.298   6.665   7.192
88416SOL    HW167087   6.216   6.713   7.181
88416SOL    HW267088   6.318   6.673   7.285
88417SOL     OW67089   4.958   3.751   0.445
88417SOL    HW167090   5.004   3.668   0.450
88417SOL    HW267091   4.926   3.755   0.354
88418SOL     OW67092   2.582   0.880   2.153
88418SOL    HW167093   2.572   0.787   2.134
88418SOL    HW267094   2.554   0.890   2.244
88419SOL     OW67095   2.177  13.816  11.577
88419SOL    HW167096   2.127  13.813  11.496
88419SOL    HW267097   2.170  13.907  11.607
88420SOL     OW67098   1.116  10.898   3.691
88420SOL    HW167099   1.155  10.984   3.676
88420SOL    HW267100   1.136  10.849   3.612
88421SOL     OW67101   0.306   6.373  10.591
88421SOL    HW167102   0.339   6.306  10.531
88421SOL    HW267103   0.370   6.445  10.585
88422SOL     OW67104   0.348   8.393   1.201
88422SOL    HW167105   0.380   8.329   1.264
88422SOL    HW267106   0.266   8.425   1.238
88423SOL     OW67107   5.886  13.288  13.572
88423SOL    HW167108   5.832  13.332  13.637
88423SOL    HW267109   5.896  13.352  13.502
88424SOL     OW67110   2.492   1.464  12.865
88424SOL    HW167111   2.514   1.372  12.851
88424SOL    HW267112   2.444   1.465  12.948
88425SOL     OW67113  12.567   8.452  10.830
88425SOL    HW167114  12.646   8.497  10.861
88425SOL    HW267115  12.594   8.361  10.821
88426SOL     OW67116   7.014   6.571   7.907
88426SOL    HW167117   6.945   6.631   7.934
88426SOL    HW267118   7.095   6.612   7.939
88427SOL     OW67119   4.384   1.902   2.246
88427SOL    HW167120   4.473   1.867   2.257
88427SOL    HW267121   4.386   1.948   2.162
88428SOL     OW67122   9.152   4.690   2.127
88428SOL    HW167123   9.198   4.676   2.044
88428SOL    HW267124   9.060   4.698   2.102
88429SOL     OW67125  12.654   4.415   6.304
88429SOL    HW167126  12.562   4.386   6.306
88429SOL    HW267127  12.662   4.464   6.223
88430SOL     OW67128   8.368   6.628   4.999
88430SOL    HW167129   8.310   6.701   5.020
88430SOL    HW267130   8.314   6.550   5.012
88431SOL     OW67131  11.068   8.671   5.899
88431SOL    HW167132  11.066   8.653   5.805
88431SOL    HW267133  11.007   8.744   5.910
88432SOL     OW67134  14.801  11.657   9.947
88432SOL    HW167135  14.783  11.634   9.856
88432SOL    HW267136   0.007  11.709   9.944
88433SOL     OW67137   4.572  10.025   4.907
88433SOL    HW167138   4.663  10.004   4.884
88433SOL    HW267139   4.520   9.955   4.867
88434SOL     OW67140   0.777   2.940  14.587
88434SOL    HW167141   0.768   3.028  14.624
88434SOL    HW267142   0.695   2.896  14.608
88435SOL     OW67143   1.678   7.537   4.751
88435SOL    HW167144   1.712   7.505   4.834
88435SOL    HW267145   1.755   7.569   4.704
88436SOL     OW67146  13.871   8.626   9.403
88436SOL    HW167147  13.860   8.652   9.494
88436SOL    HW267148  13.964   8.607   9.395
88437SOL     OW67149  12.069  12.919  13.121
88437SOL    HW167150  11.995  12.892  13.067
88437SOL    HW267151  12.103  12.998  13.078
88438SOL     OW67152   3.906   0.300   1.336
88438SOL    HW167153   3.931   0.287   1.245
88438SOL    HW267154   3.811   0.315   1.332
88439SOL     OW67155   3.849   3.333  14.526
88439SOL    HW167156   3.799   3.252  14.511
88439SOL    HW267157   3.940   3.305  14.527
88440SOL     OW67158   9.215   7.045   4.822
88440SOL    HW167159   9.269   7.088   4.888
88440SOL    HW267160   9.221   7.102   4.746
88441SOL     OW67161  14.852  10.919   3.061
88441SOL    HW167162   0.068  10.937   3.035
88441SOL    HW267163  14.833  10.832   3.026
88442SOL     OW67164  11.492  11.622  13.310
88442SOL    HW167165  11.567  11.645  13.254
88442SOL    HW267166  11.481  11.527  13.297
88443SOL     OW67167   1.080   4.192   6.028
88443SOL    HW167168   1.125   4.203   6.111
88443SOL    HW267169   1.008   4.256   6.031
88444SOL     OW67170  10.957   0.898   5.771
88444SOL    HW167171  10.917   0.984   5.776
88444SOL    HW267172  10.896   0.840   5.817
88445SOL     OW67173   2.579   4.199   7.940
88445SOL    HW167174   2.495   4.170   7.904
88445SOL    HW267175   2.572   4.295   7.944
88446SOL     OW67176   7.284   1.960   7.391
88446SOL    HW167177   7.313   2.049   7.412
88446SOL    HW267178   7.288   1.956   7.295
88447SOL     OW67179   4.878  11.877   4.301
88447SOL    HW167180   4.919  11.930   4.233
88447SOL    HW267181   4.785  11.899   4.296
88448SOL     OW67182   2.602   3.018   5.666
88448SOL    HW167183   2.633   3.095   5.713
88448SOL    HW267184   2.568   3.052   5.584
88449SOL     OW67185   9.618  13.042   4.197
88449SOL    HW167186   9.552  13.009   4.135
88449SOL    HW267187   9.620  13.137   4.182
88450SOL     OW67188   8.360   6.248   9.310
88450SOL    HW167189   8.367   6.344   9.314
88450SOL    HW267190   8.363   6.221   9.402
88451SOL     OW67191  13.387   5.095   6.019
88451SOL    HW167192  13.323   5.107   6.089
88451SOL    HW267193  13.355   5.149   5.947
88452SOL     OW67194   0.438   3.372  13.570
88452SOL    HW167195   0.347   3.389  13.546
88452SOL    HW267196   0.438   3.371  13.666
88453SOL     OW67197  11.421   6.829   7.808
88453SOL    HW167198  11.500   6.855   7.856
88453SOL    HW267199  11.433   6.863   7.720
88454SOL     OW67200  10.206   9.230   4.637
88454SOL    HW167201  10.127   9.200   4.593
88454SOL    HW267202  10.179   9.309   4.684
88455SOL     OW67203  10.352   7.313   3.527
88455SOL    HW167204  10.329   7.406   3.521
88455SOL    HW267205  10.280   7.267   3.484
88456SOL     OW67206  11.668   2.079  10.625
88456SOL    HW167207  11.648   2.149  10.563
88456SOL    HW267208  11.586   2.030  10.633
88457SOL     OW67209   7.650   6.002   9.895
88457SOL    HW167210   7.697   5.954   9.827
88457SOL    HW267211   7.558   5.979   9.883
88458SOL     OW67212   0.784   5.451   5.299
88458SOL    HW167213   0.813   5.468   5.388
88458SOL    HW267214   0.695   5.417   5.307
88459SOL     OW67215   3.312   8.213  12.864
88459SOL    HW167216   3.265   8.156  12.803
88459SOL    HW267217   3.306   8.168  12.948
88460SOL     OW67218  12.388   3.645   4.554
88460SOL    HW167219  12.464   3.638   4.612
88460SOL    HW267220  12.419   3.611   4.470
88461SOL     OW67221   7.200   5.737   5.256
88461SOL    HW167222   7.110   5.713   5.277
88461SOL    HW267223   7.254   5.667   5.293
88462SOL     OW67224   2.803  13.089   6.883
88462SOL    HW167225   2.771  13.064   6.970
88462SOL    HW267226   2.773  13.179   6.871
88463SOL     OW67227   1.670   3.301  14.558
88463SOL    HW167228   1.655   3.350  14.477
88463SOL    HW267229   1.667   3.367  14.627
88464SOL     OW67230   5.048   9.572  12.503
88464SOL    HW167231   5.094   9.656  12.495
88464SOL    HW267232   5.012   9.573  12.592
88465SOL     OW67233   0.692  11.301   9.064
88465SOL    HW167234   0.628  11.234   9.038
88465SOL    HW267235   0.718  11.276   9.153
88466SOL     OW67236   2.014  10.733   4.415
88466SOL    HW167237   2.046  10.650   4.380
88466SOL    HW267238   1.955  10.708   4.486
88467SOL     OW67239   5.802  10.867   4.701
88467SOL    HW167240   5.735  10.928   4.669
88467SOL    HW267241   5.754  10.806   4.757
88468SOL     OW67242  12.698   9.080   5.328
88468SOL    HW167243  12.739   9.060   5.412
88468SOL    HW267244  12.740   9.020   5.266
88469SOL     OW67245   2.500   9.895   7.928
88469SOL    HW167246   2.595   9.905   7.941
88469SOL    HW267247   2.465   9.983   7.940
88470SOL     OW67248   8.465  11.812   9.896
88470SOL    HW167249   8.452  11.743   9.831
88470SOL    HW267250   8.385  11.864   9.891
88471SOL     OW67251   8.197   4.514  12.422
88471SOL    HW167252   8.109   4.478  12.435
88471SOL    HW267253   8.252   4.463  12.482
88472SOL     OW67254   5.017   8.587   9.385
88472SOL    HW167255   5.106   8.618   9.367
88472SOL    HW267256   5.025   8.493   9.396
88473SOL     OW67257   8.199   1.779   7.977
88473SOL    HW167258   8.208   1.802   7.885
88473SOL    HW267259   8.105   1.781   7.993
88474SOL     OW67260   9.269   8.514  14.191
88474SOL    HW167261   9.205   8.576  14.226
88474SOL    HW267262   9.241   8.499  14.101
88475SOL     OW67263  13.386   5.283   9.414
88475SOL    HW167264  13.328   5.218   9.375
88475SOL    HW267265  13.417   5.241   9.495
88476SOL     OW67266   5.271   4.778  14.738
88476SOL    HW167267   5.190   4.781  14.687
88476SOL    HW267268   5.325   4.713  14.693
88477SOL     OW67269   9.930  13.816   2.913
88477SOL    HW167270  10.006  13.831   2.969
88477SOL    HW267271   9.855  13.847   2.964
88478SOL     OW67272  11.828  11.981  10.469
88478SOL    HW167273  11.918  12.010  10.453
88478SOL    HW267274  11.778  12.016  10.395
88479SOL     OW67275   9.808   1.449  11.035
88479SOL    HW167276   9.880   1.386  11.027
88479SOL    HW267277   9.850   1.534  11.022
88480SOL     OW67278  11.005  13.094   3.876
88480SOL    HW167279  10.984  13.111   3.784
88480SOL    HW267280  11.019  13.000   3.881
88481SOL     OW67281   1.354  12.417   5.220
88481SOL    HW167282   1.297  12.457   5.154
88481SOL    HW267283   1.336  12.323   5.213
88482SOL     OW67284  11.033   5.977   6.956
88482SOL    HW167285  11.068   5.988   6.868
88482SOL    HW267286  10.956   5.922   6.944
88483SOL     OW67287   7.525   9.090   9.529
88483SOL    HW167288   7.456   9.138   9.574
88483SOL    HW267289   7.516   9.115   9.437
88484SOL     OW67290  10.600   0.089   8.909
88484SOL    HW167291  10.636   0.030   8.844
88484SOL    HW267292  10.531   0.039   8.952
88485SOL     OW67293  10.727  12.325   7.684
88485SOL    HW167294  10.759  12.255   7.741
88485SOL    HW267295  10.806  12.362   7.645
88486SOL     OW67296   0.274   6.226  12.038
88486SOL    HW167297   0.365   6.250  12.021
88486SOL    HW267298   0.225   6.264  11.965
88487SOL     OW67299   1.531   8.836   1.339
88487SOL    HW167300   1.450   8.821   1.388
88487SOL    HW267301   1.572   8.911   1.383
88488SOL     OW67302   4.472   1.640   2.106
88488SOL    HW167303   4.414   1.613   2.035
88488SOL    HW267304   4.443   1.589   2.182
88489SOL     OW67305   8.243   4.334  13.032
88489SOL    HW167306   8.198   4.403  13.080
88489SOL    HW267307   8.334   4.364  13.027
88490SOL     OW67308   3.446   7.017  13.839
88490SOL    HW167309   3.477   7.098  13.879
88490SOL    HW267310   3.401   7.046  13.759
88491SOL     OW67311  11.582  12.163   0.685
88491SOL    HW167312  11.563  12.254   0.663
88491SOL    HW267313  11.597  12.121   0.600
88492SOL     OW67314   2.560   3.803   2.170
88492SOL    HW167315   2.521   3.791   2.257
88492SOL    HW267316   2.485   3.805   2.110
88493SOL     OW67317   1.715   6.431   8.619
88493SOL    HW167318   1.788   6.406   8.562
88493SOL    HW267319   1.707   6.359   8.680
88494SOL     OW67320  13.904   2.641  14.221
88494SOL    HW167321  13.826   2.663  14.272
88494SOL    HW267322  13.903   2.545  14.216
88495SOL     OW67323   0.342   6.702   9.998
88495SOL    HW167324   0.360   6.617  10.037
88495SOL    HW267325   0.422   6.752  10.011
88496SOL     OW67326  12.297   9.600   0.629
88496SOL    HW167327  12.311   9.510   0.599
88496SOL    HW267328  12.330   9.600   0.719
88497SOL     OW67329   4.141   6.365   1.570
88497SOL    HW167330   4.206   6.363   1.641
88497SOL    HW267331   4.193   6.378   1.491
88498SOL     OW67332   6.528  10.526   5.569
88498SOL    HW167333   6.599  10.515   5.506
88498SOL    HW267334   6.572  10.548   5.652
88499SOL     OW67335   2.822  14.566   9.590
88499SOL    HW167336   2.797  14.574   9.682
88499SOL    HW267337   2.761  14.622   9.543
88500SOL     OW67338   4.538   7.269   4.866
88500SOL    HW167339   4.580   7.335   4.921
88500SOL    HW267340   4.479   7.222   4.925
88501SOL     OW67341  12.156   0.851  10.158
88501SOL    HW167342  12.157   0.767  10.112
88501SOL    HW267343  12.118   0.832  10.244
88502SOL     OW67344   8.582   5.543   6.602
88502SOL    HW167345   8.578   5.550   6.507
88502SOL    HW267346   8.639   5.615   6.629
88503SOL     OW67347   8.754   3.025   6.345
88503SOL    HW167348   8.766   3.120   6.347
88503SOL    HW267349   8.798   2.994   6.424
88504SOL     OW67350   4.980   1.444   9.418
88504SOL    HW167351   4.985   1.409   9.508
88504SOL    HW267352   5.070   1.464   9.395
88505SOL     OW67353   2.206   0.166  12.639
88505SOL    HW167354   2.264   0.234  12.671
88505SOL    HW267355   2.218   0.093  12.700
88506SOL     OW67356  11.189   4.335   3.527
88506SOL    HW167357  11.166   4.343   3.619
88506SOL    HW267358  11.197   4.426   3.497
88507SOL     OW67359  13.381   3.610   6.375
88507SOL    HW167360  13.307   3.563   6.336
88507SOL    HW267361  13.442   3.541   6.403
88508SOL     OW67362  11.574   5.288  10.415
88508SOL    HW167363  11.550   5.372  10.376
88508SOL    HW267364  11.553   5.223  10.348
88509SOL     OW67365   8.281  11.180  14.711
88509SOL    HW167366   8.246  11.141  14.631
88509SOL    HW267367   8.304  11.269  14.687
88510SOL     OW67368  11.787   0.845   1.972
88510SOL    HW167369  11.724   0.775   1.988
88510SOL    HW267370  11.772   0.907   2.043
88511SOL     OW67371   0.896   9.168  13.202
88511SOL    HW167372   0.809   9.172  13.161
88511SOL    HW267373   0.957   9.187  13.131
88512SOL     OW67374  12.260   9.570   5.595
88512SOL    HW167375  12.355   9.570   5.603
88512SOL    HW267376  12.232   9.653   5.633
88513SOL     OW67377   1.261   6.339   5.454
88513SOL    HW167378   1.286   6.269   5.515
88513SOL    HW267379   1.327   6.407   5.468
88514SOL     OW67380  12.165  13.764   2.705
88514SOL    HW167381  12.156  13.858   2.722
88514SOL    HW267382  12.179  13.725   2.791
88515SOL     OW67383  11.241   2.326   8.738
88515SOL    HW167384  11.186   2.300   8.812
88515SOL    HW267385  11.279   2.244   8.707
88516SOL     OW67386  13.757  14.641  11.553
88516SOL    HW167387  13.846  14.672  11.538
88516SOL    HW267388  13.768  14.552  11.588
88517SOL     OW67389  11.645  14.255  14.008
88517SOL    HW167390  11.707  14.185  13.988
88517SOL    HW267391  11.700  14.327  14.039
88518SOL     OW67392   5.082   7.715   1.786
88518SOL    HW167393   5.035   7.663   1.720
88518SOL    HW267394   5.172   7.715   1.755
88519SOL     OW67395  11.886   6.876   7.115
88519SOL    HW167396  11.823   6.859   7.046
88519SOL    HW267397  11.969   6.891   7.069
88520SOL     OW67398   0.404  11.690  11.443
88520SOL    HW167399   0.366  11.767  11.485
88520SOL    HW267400   0.498  11.710  11.437
88521SOL     OW67401   5.910   6.456  10.467
88521SOL    HW167402   5.977   6.413  10.413
88521SOL    HW267403   5.868   6.518  10.408
88522SOL     OW67404   1.323  13.419  11.911
88522SOL    HW167405   1.360  13.499  11.951
88522SOL    HW267406   1.387  13.351  11.931
88523SOL     OW67407   5.037  11.513   9.944
88523SOL    HW167408   5.087  11.491   9.866
88523SOL    HW267409   4.985  11.590   9.919
88524SOL     OW67410  10.968   2.349   1.415
88524SOL    HW167411  10.873   2.343   1.420
88524SOL    HW267412  10.996   2.264   1.382
88525SOL     OW67413   7.332  14.536   6.733
88525SOL    HW167414   7.283  14.538   6.816
88525SOL    HW267415   7.419  14.507   6.757
88526SOL     OW67416   0.838  13.531   6.775
88526SOL    HW167417   0.877  13.617   6.762
88526SOL    HW267418   0.891  13.472   6.722
88527SOL     OW67419   3.947   9.227   0.697
88527SOL    HW167420   4.042   9.233   0.708
88527SOL    HW267421   3.912   9.256   0.781
88528SOL     OW67422   8.490   9.908   9.419
88528SOL    HW167423   8.425   9.842   9.442
88528SOL    HW267424   8.440   9.990   9.415
88529SOL     OW67425   0.351  13.131  12.140
88529SOL    HW167426   0.304  13.062  12.187
88529SOL    HW267427   0.402  13.176  12.208
88530SOL     OW67428   8.282   7.941   3.898
88530SOL    HW167429   8.244   7.885   3.966
88530SOL    HW267430   8.210   7.999   3.872
88531SOL     OW67431   5.845   2.005  14.393
88531SOL    HW167432   5.891   1.933  14.437
88531SOL    HW267433   5.844   1.980  14.301
88532SOL     OW67434   6.023   9.908   3.673
88532SOL    HW167435   6.058   9.820   3.661
88532SOL    HW267436   6.074   9.945   3.745
88533SOL     OW67437   1.990   9.672   7.197
88533SOL    HW167438   1.965   9.617   7.270
88533SOL    HW267439   2.086   9.667   7.194
88534SOL     OW67440  11.855   6.645   2.050
88534SOL    HW167441  11.896   6.730   2.039
88534SOL    HW267442  11.785   6.659   2.115
88535SOL     OW67443  10.596   2.779  11.933
88535SOL    HW167444  10.639   2.725  11.867
88535SOL    HW267445  10.584   2.721  12.008
88536SOL     OW67446  14.150   5.667  10.507
88536SOL    HW167447  14.146   5.600  10.438
88536SOL    HW267448  14.058   5.689  10.523
88537SOL     OW67449   9.988   9.015   7.497
88537SOL    HW167450   9.950   8.962   7.566
88537SOL    HW267451   9.937   9.096   7.497
88538SOL     OW67452   7.412   5.841   0.667
88538SOL    HW167453   7.389   5.771   0.727
88538SOL    HW267454   7.487   5.807   0.618
88539SOL     OW67455   3.497   6.315   7.151
88539SOL    HW167456   3.444   6.378   7.200
88539SOL    HW267457   3.534   6.367   7.079
88540SOL     OW67458  11.658   0.296   8.375
88540SOL    HW167459  11.659   0.202   8.395
88540SOL    HW267460  11.706   0.336   8.448
88541SOL     OW67461   2.400   3.411   8.957
88541SOL    HW167462   2.488   3.440   8.931
88541SOL    HW267463   2.371   3.357   8.883
88542SOL     OW67464   8.595   4.805   5.008
88542SOL    HW167465   8.598   4.887   4.959
88542SOL    HW267466   8.503   4.793   5.029
88543SOL     OW67467  10.106   9.548   2.928
88543SOL    HW167468  10.119   9.629   2.977
88543SOL    HW267469  10.082   9.577   2.840
88544SOL     OW67470   2.640   3.642   1.041
88544SOL    HW167471   2.596   3.583   0.980
88544SOL    HW267472   2.613   3.730   1.013
88545SOL     OW67473   0.889   6.671   1.731
88545SOL    HW167474   0.972   6.719   1.720
88545SOL    HW267475   0.883   6.616   1.653
88546SOL     OW67476   1.897   4.751  13.892
88546SOL    HW167477   1.853   4.788  13.969
88546SOL    HW267478   1.886   4.656  13.901
88547SOL     OW67479   8.436   3.514  14.428
88547SOL    HW167480   8.531   3.523  14.429
88547SOL    HW267481   8.403   3.604  14.422
88548SOL     OW67482   6.202   0.050  10.770
88548SOL    HW167483   6.293   0.034  10.795
88548SOL    HW267484   6.158  14.841  10.783
88549SOL     OW67485   3.279   3.425  10.547
88549SOL    HW167486   3.225   3.492  10.506
88549SOL    HW267487   3.369   3.456  10.538
88550SOL     OW67488   4.927  11.075  11.475
88550SOL    HW167489   4.868  11.078  11.400
88550SOL    HW267490   5.004  11.028  11.444
88551SOL     OW67491   2.230   9.044   5.399
88551SOL    HW167492   2.313   9.088   5.420
88551SOL    HW267493   2.201   9.085   5.318
88552SOL     OW67494  11.105  11.170   4.494
88552SOL    HW167495  11.028  11.192   4.546
88552SOL    HW267496  11.170  11.236   4.517
88553SOL     OW67497   3.554   8.160   5.217
88553SOL    HW167498   3.464   8.194   5.210
88553SOL    HW267499   3.609   8.232   5.186
88554SOL     OW67500  12.919  12.069   4.655
88554SOL    HW167501  13.012  12.072   4.675
88554SOL    HW267502  12.908  11.988   4.604
88555SOL     OW67503  10.836   3.228   8.227
88555SOL    HW167504  10.886   3.204   8.305
88555SOL    HW267505  10.750   3.188   8.240
88556SOL     OW67506   1.140   9.530   8.875
88556SOL    HW167507   1.158   9.544   8.968
88556SOL    HW267508   1.067   9.469   8.873
88557SOL     OW67509  14.104   7.172   7.102
88557SOL    HW167510  14.137   7.174   7.192
88557SOL    HW267511  14.150   7.243   7.058
88558SOL     OW67512  12.483  10.606  10.351
88558SOL    HW167513  12.461  10.513  10.344
88558SOL    HW267514  12.444  10.646  10.273
88559SOL     OW67515   8.198   0.340   4.903
88559SOL    HW167516   8.146   0.417   4.881
88559SOL    HW267517   8.145   0.266   4.874
88560SOL     OW67518   1.861   7.932   8.070
88560SOL    HW167519   1.867   7.839   8.049
88560SOL    HW267520   1.940   7.950   8.121
88561SOL     OW67521   7.195   5.554   7.945
88561SOL    HW167522   7.289   5.539   7.951
88561SOL    HW267523   7.156   5.479   7.989
88562SOL     OW67524   3.800   7.522   5.568
88562SOL    HW167525   3.722   7.566   5.537
88562SOL    HW267526   3.767   7.453   5.626
88563SOL     OW67527   6.838   2.568   5.696
88563SOL    HW167528   6.837   2.525   5.610
88563SOL    HW267529   6.759   2.535   5.739
88564SOL     OW67530  10.997   8.614   4.863
88564SOL    HW167531  11.087   8.644   4.871
88564SOL    HW267532  10.977   8.622   4.769
88565SOL     OW67533   2.293   8.562  11.727
88565SOL    HW167534   2.284   8.644  11.678
88565SOL    HW267535   2.338   8.586  11.807
88566SOL     OW67536   8.263   1.569   9.420
88566SOL    HW167537   8.281   1.649   9.470
88566SOL    HW267538   8.198   1.595   9.356
88567SOL     OW67539  11.178  14.299   8.791
88567SOL    HW167540  11.104  14.238   8.794
88567SOL    HW267541  11.153  14.364   8.726
88568SOL     OW67542  14.723   7.641   9.156
88568SOL    HW167543  14.713   7.660   9.062
88568SOL    HW267544  14.679   7.557   9.168
88569SOL     OW67545   5.204   5.207   8.979
88569SOL    HW167546   5.170   5.118   8.975
88569SOL    HW267547   5.159   5.254   8.909
88570SOL     OW67548  10.675   4.779   4.090
88570SOL    HW167549  10.664   4.874   4.099
88570SOL    HW267550  10.739   4.769   4.019
88571SOL     OW67551   6.629   6.914   9.353
88571SOL    HW167552   6.724   6.927   9.357
88571SOL    HW267553   6.592   6.994   9.390
88572SOL     OW67554   9.517  14.063   1.685
88572SOL    HW167555   9.603  14.084   1.649
88572SOL    HW267556   9.477  14.004   1.621
88573SOL     OW67557   6.222   0.369  14.305
88573SOL    HW167558   6.294   0.426  14.279
88573SOL    HW267559   6.173   0.353  14.224
88574SOL     OW67560   1.857   1.981   4.151
88574SOL    HW167561   1.824   1.916   4.089
88574SOL    HW267562   1.902   1.930   4.218
88575SOL     OW67563   7.429   4.319   6.635
88575SOL    HW167564   7.336   4.296   6.632
88575SOL    HW267565   7.474   4.236   6.650
88576SOL     OW67566   9.563   1.230   9.567
88576SOL    HW167567   9.480   1.252   9.611
88576SOL    HW267568   9.631   1.259   9.628
88577SOL     OW67569  10.670   1.825   3.752
88577SOL    HW167570  10.659   1.735   3.723
88577SOL    HW267571  10.589   1.845   3.799
88578SOL     OW67572   5.343  14.238   6.392
88578SOL    HW167573   5.351  14.307   6.326
88578SOL    HW267574   5.249  14.225   6.403
88579SOL     OW67575   7.788   6.728  14.414
88579SOL    HW167576   7.799   6.702  14.505
88579SOL    HW267577   7.694   6.746  14.405
88580SOL     OW67578   2.953   0.388  10.388
88580SOL    HW167579   3.021   0.336  10.346
88580SOL    HW267580   2.986   0.403  10.477
88581SOL     OW67581   2.555   6.206  13.767
88581SOL    HW167582   2.584   6.272  13.704
88581SOL    HW267583   2.636   6.167  13.800
88582SOL     OW67584   6.630   7.652   6.053
88582SOL    HW167585   6.702   7.673   6.112
88582SOL    HW267586   6.628   7.724   5.990
88583SOL     OW67587   0.885  14.101   3.431
88583SOL    HW167588   0.972  14.103   3.471
88583SOL    HW267589   0.902  14.106   3.337
88584SOL     OW67590  14.432   4.440   6.212
88584SOL    HW167591  14.465   4.483   6.291
88584SOL    HW267592  14.344   4.476   6.200
88585SOL     OW67593   9.571  13.291   3.771
88585SOL    HW167594   9.542  13.382   3.777
88585SOL    HW267595   9.619  13.276   3.852
88586SOL     OW67596  10.446  11.358   9.485
88586SOL    HW167597  10.360  11.331   9.518
88586SOL    HW267598  10.430  11.444   9.446
88587SOL     OW67599   1.212   1.211  14.439
88587SOL    HW167600   1.251   1.146  14.380
88587SOL    HW267601   1.280   1.228  14.504
88588SOL     OW67602  13.603  14.645   7.188
88588SOL    HW167603  13.661  14.662   7.262
88588SOL    HW267604  13.601  14.728   7.140
88589SOL     OW67605   7.477   4.858   0.057
88589SOL    HW167606   7.411   4.811   0.109
88589SOL    HW267607   7.427   4.897  14.859
88590SOL     OW67608   6.240  10.942   2.555
88590SOL    HW167609   6.310  10.889   2.592
88590SOL    HW267610   6.273  10.972   2.471
88591SOL     OW67611   7.143  13.104   7.071
88591SOL    HW167612   7.229  13.075   7.103
88591SOL    HW267613   7.163  13.149   6.989
88592SOL     OW67614   9.502   0.897   7.519
88592SOL    HW167615   9.535   0.851   7.596
88592SOL    HW267616   9.407   0.898   7.530
88593SOL     OW67617   9.394   4.019  10.876
88593SOL    HW167618   9.332   4.031  10.948
88593SOL    HW267619   9.464   4.082  10.894
88594SOL     OW67620   6.582   8.550  10.048
88594SOL    HW167621   6.574   8.496   9.970
88594SOL    HW267622   6.513   8.518  10.106
88595SOL     OW67623   2.467   3.950  14.306
88595SOL    HW167624   2.383   3.972  14.346
88595SOL    HW267625   2.494   4.029  14.260
88596SOL     OW67626   7.712   6.990   2.015
88596SOL    HW167627   7.668   6.997   2.099
88596SOL    HW267628   7.800   6.960   2.035
88597SOL     OW67629   2.930  14.363   4.335
88597SOL    HW167630   2.957  14.370   4.244
88597SOL    HW267631   2.983  14.292   4.370
88598SOL     OW67632   5.749   2.892  12.110
88598SOL    HW167633   5.776   2.922  12.024
88598SOL    HW267634   5.706   2.967  12.150
88599SOL     OW67635   0.409   7.494   8.821
88599SOL    HW167636   0.487   7.447   8.848
88599SOL    HW267637   0.413   7.497   8.726
88600SOL     OW67638   7.338  14.528   0.343
88600SOL    HW167639   7.340  14.477   0.262
88600SOL    HW267640   7.360  14.465   0.412
88601SOL     OW67641   7.651  14.171   6.721
88601SOL    HW167642   7.584  14.121   6.674
88601SOL    HW267643   7.640  14.145   6.813
88602SOL     OW67644   3.615  11.699  12.663
88602SOL    HW167645   3.551  11.628  12.673
88602SOL    HW267646   3.635  11.699  12.569
88603SOL     OW67647  11.668   4.923   8.030
88603SOL    HW167648  11.701   4.859   8.092
88603SOL    HW267649  11.689   4.888   7.944
88604SOL     OW67650  14.019   5.547   8.599
88604SOL    HW167651  14.078   5.622   8.609
88604SOL    HW267652  13.981   5.558   8.512
88605SOL     OW67653  14.715   6.892   3.036
88605SOL    HW167654  14.758   6.834   3.100
88605SOL    HW267655  14.670   6.957   3.090
88606SOL     OW67656   5.287  13.394   1.286
88606SOL    HW167657   5.341  13.388   1.208
88606SOL    HW267658   5.332  13.342   1.352
88607SOL     OW67659   9.123  11.851   5.025
88607SOL    HW167660   9.034  11.876   5.050
88607SOL    HW267661   9.115  11.824   4.933
88608SOL     OW67662   4.196   4.647   2.029
88608SOL    HW167663   4.156   4.597   1.958
88608SOL    HW267664   4.267   4.591   2.061
88609SOL     OW67665   2.316  11.740   5.197
88609SOL    HW167666   2.293  11.832   5.214
88609SOL    HW267667   2.309  11.731   5.102
88610SOL     OW67668   9.051  11.258   3.939
88610SOL    HW167669   9.080  11.169   3.916
88610SOL    HW267670   9.121  11.315   3.908
88611SOL     OW67671   7.914   9.553   7.178
88611SOL    HW167672   7.940   9.633   7.223
88611SOL    HW267673   7.855   9.508   7.240
88612SOL     OW67674   5.959   1.776  13.395
88612SOL    HW167675   5.929   1.860  13.429
88612SOL    HW267676   5.884   1.718  13.406
88613SOL     OW67677   1.951   2.701   1.385
88613SOL    HW167678   1.912   2.645   1.318
88613SOL    HW267679   1.978   2.779   1.338
88614SOL     OW67680  10.571   7.431   4.641
88614SOL    HW167681  10.502   7.413   4.577
88614SOL    HW267682  10.617   7.347   4.652
88615SOL     OW67683  14.015  14.105   0.774
88615SOL    HW167684  13.996  14.108   0.868
88615SOL    HW267685  14.027  14.197   0.749
88616SOL     OW67686   2.895   6.816  11.266
88616SOL    HW167687   2.886   6.911  11.279
88616SOL    HW267688   2.950   6.787  11.340
88617SOL     OW67689   4.820   1.338   4.807
88617SOL    HW167690   4.871   1.365   4.730
88617SOL    HW267691   4.730   1.332   4.775
88618SOL     OW67692   9.551   1.697   1.465
88618SOL    HW167693   9.633   1.679   1.419
88618SOL    HW267694   9.573   1.766   1.528
88619SOL     OW67695   8.885  10.453  10.537
88619SOL    HW167696   8.920  10.426  10.452
88619SOL    HW267697   8.962  10.481  10.587
88620SOL     OW67698   5.659  13.753  12.433
88620SOL    HW167699   5.674  13.660  12.412
88620SOL    HW267700   5.739  13.782  12.475
88621SOL     OW67701  10.481  10.060   9.244
88621SOL    HW167702  10.497  10.029   9.155
88621SOL    HW267703  10.426   9.992   9.283
88622SOL     OW67704  12.187  14.318   3.596
88622SOL    HW167705  12.278  14.303   3.568
88622SOL    HW267706  12.195  14.356   3.684
88623SOL     OW67707  12.828  13.190   0.817
88623SOL    HW167708  12.876  13.273   0.816
88623SOL    HW267709  12.849  13.149   0.733
88624SOL     OW67710  12.070   0.943   2.136
88624SOL    HW167711  12.119   1.018   2.168
88624SOL    HW267712  12.024   0.910   2.213
88625SOL     OW67713  13.480   7.578   4.388
88625SOL    HW167714  13.446   7.651   4.337
88625SOL    HW267715  13.506   7.616   4.472
88626SOL     OW67716   1.657   1.710   4.662
88626SOL    HW167717   1.729   1.772   4.652
88626SOL    HW267718   1.669   1.647   4.591
88627SOL     OW67719  14.267  11.026  14.244
88627SOL    HW167720  14.334  11.088  14.215
88627SOL    HW267721  14.197  11.034  14.179
88628SOL     OW67722   2.682   7.461  12.746
88628SOL    HW167723   2.613   7.524  12.725
88628SOL    HW267724   2.637   7.389  12.790
88629SOL     OW67725  12.219  10.694   3.267
88629SOL    HW167726  12.213  10.789   3.252
88629SOL    HW267727  12.291  10.685   3.329
88630SOL     OW67728   0.636   2.380   5.402
88630SOL    HW167729   0.625   2.474   5.390
88630SOL    HW267730   0.693   2.353   5.330
88631SOL     OW67731  13.552   6.086  11.434
88631SOL    HW167732  13.473   6.074  11.487
88631SOL    HW267733  13.533   6.164  11.380
88632SOL     OW67734   9.319  13.239   4.622
88632SOL    HW167735   9.360  13.262   4.538
88632SOL    HW267736   9.342  13.147   4.636
88633SOL     OW67737   2.363  11.466   7.500
88633SOL    HW167738   2.340  11.500   7.587
88633SOL    HW267739   2.279  11.439   7.462
88634SOL     OW67740  13.880  12.154   5.024
88634SOL    HW167741  13.908  12.151   4.933
88634SOL    HW267742  13.925  12.081   5.066
88635SOL     OW67743   0.496  10.341   5.434
88635SOL    HW167744   0.556  10.270   5.455
88635SOL    HW267745   0.507  10.354   5.340
88636SOL     OW67746  10.341   1.273   0.551
88636SOL    HW167747  10.320   1.226   0.470
88636SOL    HW267748  10.404   1.216   0.595
88637SOL     OW67749  12.880   2.455   9.086
88637SOL    HW167750  12.974   2.466   9.099
88637SOL    HW267751  12.864   2.362   9.101
88638SOL     OW67752  14.817  14.265   6.887
88638SOL    HW167753  14.760  14.274   6.963
88638SOL    HW267754   0.031  14.283   6.921
88639SOL     OW67755  13.757  13.277   3.888
88639SOL    HW167756  13.695  13.326   3.942
88639SOL    HW267757  13.744  13.186   3.914
88640SOL     OW67758  12.802   1.826  11.266
88640SOL    HW167759  12.725   1.877  11.242
88640SOL    HW267760  12.796   1.817  11.362
88641SOL     OW67761   9.908   8.831   3.223
88641SOL    HW167762   9.889   8.915   3.180
88641SOL    HW267763   9.961   8.783   3.160
88642SOL     OW67764   3.986   7.733  12.703
88642SOL    HW167765   4.072   7.754  12.738
88642SOL    HW267766   3.988   7.639  12.686
88643SOL     OW67767   0.186  13.951   8.466
88643SOL    HW167768   0.131  13.873   8.473
88643SOL    HW267769   0.130  14.015   8.421
88644SOL     OW67770  11.723   4.094   1.193
88644SOL    HW167771  11.634   4.075   1.162
88644SOL    HW267772  11.779   4.076   1.117
88645SOL     OW67773   2.553   2.784   4.637
88645SOL    HW167774   2.459   2.790   4.652
88645SOL    HW267775   2.572   2.853   4.573
88646SOL     OW67776   8.052   1.313   6.060
88646SOL    HW167777   7.966   1.294   6.024
88646SOL    HW267778   8.114   1.286   5.992
88647SOL     OW67779  12.165   7.273  14.412
88647SOL    HW167780  12.155   7.369  14.409
88647SOL    HW267781  12.077   7.241  14.433
88648SOL     OW67782   0.020   7.739   0.612
88648SOL    HW167783   0.106   7.696   0.612
88648SOL    HW267784  14.870   7.743   0.705
88649SOL     OW67785   1.793  10.315  14.787
88649SOL    HW167786   1.710  10.270  14.799
88649SOL    HW267787   1.806  10.364  14.868
88650SOL     OW67788   6.123  11.181   3.725
88650SOL    HW167789   6.045  11.181   3.670
88650SOL    HW267790   6.089  11.190   3.814
88651SOL     OW67791   2.059   3.307  13.228
88651SOL    HW167792   1.981   3.311  13.283
88651SOL    HW267793   2.091   3.217  13.238
88652SOL     OW67794   5.594  13.500  14.150
88652SOL    HW167795   5.666  13.564  14.156
88652SOL    HW267796   5.576  13.493  14.056
88653SOL     OW67797  10.971  10.473   1.450
88653SOL    HW167798  10.976  10.380   1.473
88653SOL    HW267799  10.893  10.479   1.395
88654SOL     OW67800   2.857   5.471   2.822
88654SOL    HW167801   2.810   5.553   2.833
88654SOL    HW267802   2.928   5.474   2.886
88655SOL     OW67803  13.824   4.774  11.704
88655SOL    HW167804  13.818   4.803  11.613
88655SOL    HW267805  13.767   4.833  11.753
88656SOL     OW67806   9.292  13.993  11.871
88656SOL    HW167807   9.210  13.948  11.887
88656SOL    HW267808   9.274  14.085  11.893
88657SOL     OW67809  13.984  11.520   8.086
88657SOL    HW167810  13.974  11.425   8.072
88657SOL    HW267811  13.939  11.537   8.168
88658SOL     OW67812   7.846  14.421  11.872
88658SOL    HW167813   7.779  14.454  11.813
88658SOL    HW267814   7.882  14.344  11.827
88659SOL     OW67815   3.615  12.248  12.395
88659SOL    HW167816   3.595  12.290  12.478
88659SOL    HW267817   3.655  12.164  12.420
88660SOL     OW67818   5.474  10.982  11.872
88660SOL    HW167819   5.442  10.997  11.960
88660SOL    HW267820   5.523  11.061  11.850
88661SOL     OW67821  11.542   1.278   0.125
88661SOL    HW167822  11.518   1.285   0.218
88661SOL    HW267823  11.620   1.332   0.116
88662SOL     OW67824   4.332   9.965  14.851
88662SOL    HW167825   4.336   9.999   0.067
88662SOL    HW267826   4.414   9.993  14.811
88663SOL     OW67827   3.336   5.120   9.251
88663SOL    HW167828   3.266   5.137   9.314
88663SOL    HW267829   3.308   5.041   9.206
88664SOL     OW67830   4.535   8.768   3.971
88664SOL    HW167831   4.568   8.799   3.886
88664SOL    HW267832   4.462   8.826   3.991
88665SOL     OW67833  12.564  11.808  10.156
88665SOL    HW167834  12.532  11.871  10.221
88665SOL    HW267835  12.487  11.789  10.103
88666SOL     OW67836   6.034   5.411  13.147
88666SOL    HW167837   6.106   5.403  13.209
88666SOL    HW267838   5.957   5.384  13.196
88667SOL     OW67839   0.345   3.624   3.223
88667SOL    HW167840   0.313   3.541   3.259
88667SOL    HW267841   0.424   3.601   3.174
88668SOL     OW67842  11.840  13.260   6.739
88668SOL    HW167843  11.750  13.229   6.743
88668SOL    HW267844  11.892  13.182   6.721
88669SOL     OW67845  10.721   2.605   4.476
88669SOL    HW167846  10.666   2.528   4.466
88669SOL    HW267847  10.741   2.631   4.386
88670SOL     OW67848   2.784   3.735   8.398
88670SOL    HW167849   2.781   3.719   8.304
88670SOL    HW267850   2.876   3.724   8.421
88671SOL     OW67851   9.443   5.644   0.825
88671SOL    HW167852   9.534   5.661   0.801
88671SOL    HW267853   9.444   5.555   0.861
88672SOL     OW67854  10.931   9.615   7.698
88672SOL    HW167855  10.946   9.521   7.711
88672SOL    HW267856  10.847   9.620   7.653
88673SOL     OW67857  13.009   9.077  11.777
88673SOL    HW167858  12.963   9.136  11.717
88673SOL    HW267859  12.964   9.088  11.861
88674SOL     OW67860   5.420  13.280  13.713
88674SOL    HW167861   5.413  13.240  13.799
88674SOL    HW267862   5.407  13.373  13.729
88675SOL     OW67863   3.616  12.293  11.240
88675SOL    HW167864   3.665  12.255  11.313
88675SOL    HW267865   3.548  12.345  11.282
88676SOL     OW67866  10.934   1.640   7.318
88676SOL    HW167867  10.991   1.699   7.269
88676SOL    HW267868  10.994   1.585   7.369
88677SOL     OW67869   3.018   9.085   2.619
88677SOL    HW167870   3.026   9.033   2.699
88677SOL    HW267871   3.030   9.175   2.647
88678SOL     OW67872   5.672   3.677   1.411
88678SOL    HW167873   5.641   3.598   1.365
88678SOL    HW267874   5.702   3.734   1.341
88679SOL     OW67875   0.715   0.319   1.819
88679SOL    HW167876   0.742   0.331   1.728
88679SOL    HW267877   0.665   0.237   1.818
88680SOL     OW67878  14.749  11.748   6.864
88680SOL    HW167879  14.674  11.705   6.904
88680SOL    HW267880  14.715  11.783   6.781
88681SOL     OW67881  12.074   1.794  11.049
88681SOL    HW167882  12.167   1.787  11.032
88681SOL    HW267883  12.065   1.774  11.142
88682SOL     OW67884   0.972   1.190   7.379
88682SOL    HW167885   1.023   1.146   7.447
88682SOL    HW267886   0.886   1.203   7.418
88683SOL     OW67887   6.039  11.036   0.412
88683SOL    HW167888   5.964  10.978   0.421
88683SOL    HW267889   6.106  10.998   0.470
88684SOL     OW67890  14.259  12.826   3.010
88684SOL    HW167891  14.284  12.748   3.060
88684SOL    HW267892  14.207  12.792   2.937
88685SOL     OW67893   7.083   9.212   9.563
88685SOL    HW167894   7.006   9.164   9.534
88685SOL    HW267895   7.068   9.302   9.533
88686SOL     OW67896   1.645   7.428   7.244
88686SOL    HW167897   1.723   7.455   7.291
88686SOL    HW267898   1.575   7.484   7.278
88687SOL     OW67899   2.254   0.457  12.530
88687SOL    HW167900   2.206   0.512  12.468
88687SOL    HW267901   2.322   0.415  12.477
88688SOL     OW67902  13.518   8.584   2.184
88688SOL    HW167903  13.593   8.550   2.134
88688SOL    HW267904  13.551   8.591   2.273
88689SOL     OW67905   1.232   6.730   3.011
88689SOL    HW167906   1.171   6.693   2.947
88689SOL    HW267907   1.212   6.684   3.092
88690SOL     OW67908  12.754   2.649  10.406
88690SOL    HW167909  12.685   2.716  10.407
88690SOL    HW267910  12.706   2.566  10.399
88691SOL     OW67911   8.024   7.856   6.425
88691SOL    HW167912   7.961   7.786   6.406
88691SOL    HW267913   8.068   7.872   6.341
88692SOL     OW67914  13.969  14.540   1.922
88692SOL    HW167915  13.944  14.625   1.886
88692SOL    HW267916  13.905  14.479   1.886
88693SOL     OW67917   4.679  11.869   9.298
88693SOL    HW167918   4.731  11.940   9.262
88693SOL    HW267919   4.590  11.887   9.268
88694SOL     OW67920   0.434   9.365   7.155
88694SOL    HW167921   0.369   9.298   7.135
88694SOL    HW267922   0.443   9.414   7.072
88695SOL     OW67923  13.357   4.097   9.259
88695SOL    HW167924  13.417   4.108   9.333
88695SOL    HW267925  13.398   4.029   9.205
88696SOL     OW67926  11.169   3.511   7.581
88696SOL    HW167927  11.241   3.453   7.554
88696SOL    HW267928  11.189   3.595   7.541
88697SOL     OW67929   2.985   5.547  13.983
88697SOL    HW167930   2.892   5.547  14.002
88697SOL    HW267931   3.000   5.628  13.934
88698SOL     OW67932   8.634   2.063   3.386
88698SOL    HW167933   8.596   2.005   3.452
88698SOL    HW267934   8.725   2.073   3.412
88699SOL     OW67935   1.228   7.108   1.586
88699SOL    HW167936   1.170   7.115   1.509
88699SOL    HW267937   1.169   7.086   1.658
88700SOL     OW67938  14.246  12.772   0.548
88700SOL    HW167939  14.258  12.850   0.494
88700SOL    HW267940  14.329  12.761   0.593
88701SOL     OW67941  11.733   3.895  12.753
88701SOL    HW167942  11.781   3.860  12.678
88701SOL    HW267943  11.708   3.818  12.805
88702SOL     OW67944   6.789   3.420   8.774
88702SOL    HW167945   6.704   3.389   8.744
88702SOL    HW267946   6.831   3.457   8.696
88703SOL     OW67947   8.528  13.686   4.791
88703SOL    HW167948   8.515  13.780   4.780
88703SOL    HW267949   8.554  13.676   4.883
88704SOL     OW67950  12.543   7.958  10.947
88704SOL    HW167951  12.541   8.022  11.018
88704SOL    HW267952  12.510   8.006  10.871
88705SOL     OW67953   0.940   1.002  10.451
88705SOL    HW167954   0.906   1.058  10.381
88705SOL    HW267955   0.969   1.063  10.519
88706SOL     OW67956   0.566  12.748   9.977
88706SOL    HW167957   0.619  12.680   9.936
88706SOL    HW267958   0.507  12.701  10.036
88707SOL     OW67959   0.269  14.209   3.446
88707SOL    HW167960   0.235  14.120   3.443
88707SOL    HW267961   0.328  14.210   3.521
88708SOL     OW67962   4.344   3.826   3.740
88708SOL    HW167963   4.400   3.772   3.795
88708SOL    HW267964   4.323   3.770   3.664
88709SOL     OW67965   9.540   6.385   1.183
88709SOL    HW167966   9.605   6.442   1.143
88709SOL    HW267967   9.559   6.298   1.148
88710SOL     OW67968   3.468   1.771  11.286
88710SOL    HW167969   3.407   1.712  11.331
88710SOL    HW267970   3.468   1.850  11.339
88711SOL     OW67971   7.213  13.287   5.576
88711SOL    HW167972   7.170  13.357   5.527
88711SOL    HW267973   7.141  13.243   5.623
88712SOL     OW67974  14.712  13.876   1.346
88712SOL    HW167975  14.740  13.916   1.263
88712SOL    HW267976  14.693  13.785   1.323
88713SOL     OW67977   1.593   4.992   7.652
88713SOL    HW167978   1.545   5.072   7.673
88713SOL    HW267979   1.564   4.929   7.717
88714SOL     OW67980   8.477   0.279   9.310
88714SOL    HW167981   8.520   0.304   9.228
88714SOL    HW267982   8.507   0.189   9.326
88715SOL     OW67983   8.828   3.681   0.351
88715SOL    HW167984   8.758   3.668   0.287
88715SOL    HW267985   8.821   3.606   0.411
88716SOL     OW67986   0.366  10.593  13.259
88716SOL    HW167987   0.302  10.638  13.312
88716SOL    HW267988   0.416  10.663  13.216
88717SOL     OW67989   9.552   0.598  12.653
88717SOL    HW167990   9.632   0.568  12.696
88717SOL    HW267991   9.481   0.561  12.706
88718SOL     OW67992  13.072  13.066   8.040
88718SOL    HW167993  13.035  13.131   8.100
88718SOL    HW267994  13.130  13.116   7.983
88719SOL     OW67995   9.215   8.900  13.764
88719SOL    HW167996   9.129   8.926  13.731
88719SOL    HW267997   9.269   8.892  13.685
88720SOL     OW67998  13.684   8.335   5.578
88720SOL    HW167999  13.729   8.294   5.503
88720SOL    HW268000  13.651   8.418   5.543
88721SOL     OW68001  10.560   5.815  13.736
88721SOL    HW168002  10.505   5.741  13.760
88721SOL    HW268003  10.565   5.869  13.815
88722SOL     OW68004  13.558  13.952  11.910
88722SOL    HW168005  13.618  13.950  11.984
88722SOL    HW268006  13.602  14.006  11.844
88723SOL     OW68007   8.068   1.287  11.474
88723SOL    HW168008   8.124   1.253  11.544
88723SOL    HW268009   8.041   1.209  11.425
88724SOL     OW68010  13.903   9.234   5.560
88724SOL    HW168011  13.815   9.213   5.530
88724SOL    HW268012  13.956   9.237   5.480
88725SOL     OW68013   4.191  10.032   6.451
88725SOL    HW168014   4.107  10.073   6.433
88725SOL    HW268015   4.172   9.965   6.518
88726SOL     OW68016  11.863   2.687   1.634
88726SOL    HW168017  11.788   2.628   1.627
88726SOL    HW268018  11.865   2.733   1.550
88727SOL     OW68019   9.768   8.320   5.344
88727SOL    HW168020   9.800   8.245   5.294
88727SOL    HW268021   9.837   8.337   5.408
88728SOL     OW68022   9.226   1.122   8.684
88728SOL    HW168023   9.289   1.066   8.729
88728SOL    HW268024   9.148   1.120   8.740
88729SOL     OW68025  10.687   9.587   4.951
88729SOL    HW168026  10.673   9.597   4.857
88729SOL    HW268027  10.636   9.657   4.991
88730SOL     OW68028   6.775   6.385   5.719
88730SOL    HW168029   6.688   6.357   5.748
88730SOL    HW268030   6.820   6.409   5.800
88731SOL     OW68031  13.907   5.010   6.225
88731SOL    HW168032  13.832   5.017   6.167
88731SOL    HW268033  13.955   4.934   6.194
88732SOL     OW68034   1.104   1.188   3.126
88732SOL    HW168035   1.154   1.261   3.162
88732SOL    HW268036   1.127   1.185   3.034
88733SOL     OW68037   8.614   8.418  12.470
88733SOL    HW168038   8.618   8.441  12.377
88733SOL    HW268039   8.690   8.362  12.483
88734SOL     OW68040  14.085   8.645   9.837
88734SOL    HW168041  14.173   8.612   9.823
88734SOL    HW268042  14.093   8.704   9.912
88735SOL     OW68043  12.913  14.497   4.859
88735SOL    HW168044  12.823  14.484   4.832
88735SOL    HW268045  12.935  14.586   4.831
88736SOL     OW68046   9.790  12.772  10.419
88736SOL    HW168047   9.697  12.752  10.409
88736SOL    HW268048   9.832  12.686  10.427
88737SOL     OW68049  12.213   3.674   7.280
88737SOL    HW168050  12.248   3.742   7.223
88737SOL    HW268051  12.140   3.637   7.231
88738SOL     OW68052  10.832   1.557  14.449
88738SOL    HW168053  10.790   1.577  14.533
88738SOL    HW268054  10.789   1.477  14.420
88739SOL     OW68055   3.543  13.967   5.723
88739SOL    HW168056   3.552  14.050   5.676
88739SOL    HW268057   3.467  13.925   5.684
88740SOL     OW68058   2.376   6.460  12.578
88740SOL    HW168059   2.458   6.409  12.573
88740SOL    HW268060   2.307   6.395  12.563
88741SOL     OW68061  14.678   6.276   0.261
88741SOL    HW168062  14.747   6.214   0.236
88741SOL    HW268063  14.598   6.224   0.260
88742SOL     OW68064   2.738  14.434   4.684
88742SOL    HW168065   2.656  14.397   4.651
88742SOL    HW268066   2.757  14.506   4.624
88743SOL     OW68067   0.150   2.406   7.744
88743SOL    HW168068   0.107   2.484   7.779
88743SOL    HW268069   0.201   2.373   7.817
88744SOL     OW68070   9.608   3.172  11.929
88744SOL    HW168071   9.703   3.166  11.920
88744SOL    HW268072   9.578   3.200  11.842
88745SOL     OW68073   1.945  12.300   3.805
88745SOL    HW168074   1.900  12.217   3.816
88745SOL    HW268075   2.028  12.278   3.763
88746SOL     OW68076   5.855   2.056   3.335
88746SOL    HW168077   5.774   2.054   3.387
88746SOL    HW268078   5.905   2.128   3.372
88747SOL     OW68079   9.254   6.722   7.330
88747SOL    HW168080   9.188   6.756   7.270
88747SOL    HW268081   9.220   6.637   7.358
88748SOL     OW68082   1.482   5.013  10.930
88748SOL    HW168083   1.438   4.983  11.009
88748SOL    HW268084   1.466   5.108  10.929
88749SOL     OW68085  11.721   1.139   2.806
88749SOL    HW168086  11.633   1.120   2.838
88749SOL    HW268087  11.779   1.108   2.875
88750SOL     OW68088  12.666   6.531  11.641
88750SOL    HW168089  12.675   6.617  11.601
88750SOL    HW268090  12.747   6.485  11.619
88751SOL     OW68091   3.992   9.359   0.449
88751SOL    HW168092   3.904   9.360   0.413
88751SOL    HW268093   3.986   9.299   0.524
88752SOL     OW68094  13.644  12.167   1.650
88752SOL    HW168095  13.556  12.192   1.679
88752SOL    HW268096  13.631  12.084   1.604
88753SOL     OW68097   7.273   2.464   1.926
88753SOL    HW168098   7.226   2.532   1.975
88753SOL    HW268099   7.267   2.491   1.835
88754SOL     OW68100  12.428   7.091   1.855
88754SOL    HW168101  12.488   7.043   1.912
88754SOL    HW268102  12.342   7.054   1.875
88755SOL     OW68103  10.598   0.328   0.606
88755SOL    HW168104  10.542   0.394   0.646
88755SOL    HW268105  10.637   0.282   0.680
88756SOL     OW68106   5.334  14.691   9.806
88756SOL    HW168107   5.341  14.662   9.897
88756SOL    HW268108   5.245  14.666   9.780
88757SOL     OW68109   4.155   7.310   5.769
88757SOL    HW168110   4.214   7.385   5.766
88757SOL    HW268111   4.072   7.342   5.733
88758SOL     OW68112  12.906   5.201   3.178
88758SOL    HW168113  12.821   5.179   3.140
88758SOL    HW268114  12.891   5.284   3.224
88759SOL     OW68115   9.321   7.582   4.916
88759SOL    HW168116   9.302   7.506   4.971
88759SOL    HW268117   9.248   7.641   4.930
88760SOL     OW68118   4.442  11.742  14.079
88760SOL    HW168119   4.376  11.802  14.044
88760SOL    HW268120   4.524  11.772  14.040
88761SOL     OW68121   5.620  13.907   0.864
88761SOL    HW168122   5.637  13.843   0.795
88761SOL    HW268123   5.559  13.862   0.923
88762SOL     OW68124   7.800   2.853   8.771
88762SOL    HW168125   7.837   2.906   8.842
88762SOL    HW268126   7.844   2.768   8.781
88763SOL     OW68127   1.993   0.363  14.797
88763SOL    HW168128   1.965   0.299  14.863
88763SOL    HW268129   1.964   0.326  14.714
88764SOL     OW68130  10.091   7.121  13.821
88764SOL    HW168131  10.144   7.153  13.894
88764SOL    HW268132  10.003   7.114  13.857
88765SOL     OW68133   4.620   5.842   6.093
88765SOL    HW168134   4.671   5.761   6.093
88765SOL    HW268135   4.564   5.834   6.016
88766SOL     OW68136   1.167   3.286   2.634
88766SOL    HW168137   1.257   3.265   2.660
88766SOL    HW268138   1.175   3.308   2.541
88767SOL     OW68139   0.416   8.801   5.563
88767SOL    HW168140   0.409   8.746   5.485
88767SOL    HW268141   0.444   8.740   5.632
88768SOL     OW68142   4.345   2.394   1.436
88768SOL    HW168143   4.263   2.352   1.462
88768SOL    HW268144   4.334   2.486   1.460
88769SOL     OW68145  12.345   8.496   8.494
88769SOL    HW168146  12.296   8.448   8.561
88769SOL    HW268147  12.324   8.588   8.511
88770SOL     OW68148   9.878  13.732   4.451
88770SOL    HW168149   9.957  13.754   4.502
88770SOL    HW268150   9.902  13.653   4.404
88771SOL     OW68151  14.851   9.328   4.379
88771SOL    HW168152   0.008   9.341   4.469
88771SOL    HW268153  14.796   9.405   4.361
88772SOL     OW68154  11.183  14.198   9.825
88772SOL    HW168155  11.227  14.139   9.763
88772SOL    HW268156  11.236  14.277   9.824
88773SOL     OW68157   7.704  11.444  10.899
88773SOL    HW168158   7.771  11.377  10.885
88773SOL    HW268159   7.709  11.463  10.993
88774SOL     OW68160   9.406  10.117   5.212
88774SOL    HW168161   9.319  10.148   5.240
88774SOL    HW268162   9.432  10.055   5.279
88775SOL     OW68163  13.513   4.012   4.880
88775SOL    HW168164  13.443   3.962   4.839
88775SOL    HW268165  13.549   3.954   4.947
88776SOL     OW68166  11.382   8.005   4.478
88776SOL    HW168167  11.414   8.084   4.433
88776SOL    HW268168  11.447   7.989   4.546
88777SOL     OW68169   4.166   0.849   7.568
88777SOL    HW168170   4.116   0.903   7.629
88777SOL    HW268171   4.132   0.872   7.482
88778SOL     OW68172  12.778  14.135   9.539
88778SOL    HW168173  12.706  14.198   9.528
88778SOL    HW268174  12.740  14.051   9.512
88779SOL     OW68175  13.369  13.294   7.973
88779SOL    HW168176  13.413  13.211   7.995
88779SOL    HW268177  13.422  13.330   7.902
88780SOL     OW68178   5.762  13.247  11.094
88780SOL    HW168179   5.704  13.323  11.089
88780SOL    HW268180   5.849  13.284  11.112
88781SOL     OW68181  13.555   7.200   3.855
88781SOL    HW168182  13.620   7.220   3.788
88781SOL    HW268183  13.530   7.109   3.838
88782SOL     OW68184  13.439   7.416   5.109
88782SOL    HW168185  13.431   7.498   5.059
88782SOL    HW268186  13.359   7.367   5.087
88783SOL     OW68187  14.627  13.891  14.559
88783SOL    HW168188  14.535  13.901  14.582
88783SOL    HW268189  14.672  13.959  14.610
88784SOL     OW68190   0.358   3.893  14.376
88784SOL    HW168191   0.431   3.950  14.399
88784SOL    HW268192   0.400   3.814  14.341
88785SOL     OW68193   3.047   0.240   5.351
88785SOL    HW168194   2.974   0.239   5.289
88785SOL    HW268195   3.063   0.148   5.372
88786SOL     OW68196   4.448   3.881  14.788
88786SOL    HW168197   4.366   3.931  14.782
88786SOL    HW268198   4.477   3.893   0.004
88787SOL     OW68199  10.798  13.613  11.535
88787SOL    HW168200  10.859  13.641  11.604
88787SOL    HW268201  10.711  13.635  11.569
88788SOL     OW68202   3.579  13.779   4.612
88788SOL    HW168203   3.635  13.839   4.562
88788SOL    HW268204   3.624  13.694   4.607
88789SOL     OW68205   5.789   1.451  10.610
88789SOL    HW168206   5.720   1.482  10.670
88789SOL    HW268207   5.870   1.461  10.659
88790SOL     OW68208  11.758   3.153   3.375
88790SOL    HW168209  11.678   3.147   3.323
88790SOL    HW268210  11.754   3.079   3.435
88791SOL     OW68211  11.724  10.936   7.745
88791SOL    HW168212  11.668  11.012   7.761
88791SOL    HW268213  11.749  10.907   7.833
88792SOL     OW68214   7.340   3.661  14.603
88792SOL    HW168215   7.338   3.608  14.683
88792SOL    HW268216   7.427   3.645  14.566
88793SOL     OW68217   8.470   2.279   0.607
88793SOL    HW168218   8.451   2.259   0.516
88793SOL    HW268219   8.464   2.195   0.652
88794SOL     OW68220  10.337   1.355  12.999
88794SOL    HW168221  10.429   1.329  13.009
88794SOL    HW268222  10.315   1.401  13.079
88795SOL     OW68223   4.864   3.767   0.192
88795SOL    HW168224   4.889   3.837   0.133
88795SOL    HW268225   4.773   3.748   0.170
88796SOL     OW68226   4.205  12.270  13.411
88796SOL    HW168227   4.253  12.269  13.494
88796SOL    HW268228   4.249  12.338  13.359
88797SOL     OW68229  10.488   1.306   4.386
88797SOL    HW168230  10.422   1.348   4.331
88797SOL    HW268231  10.453   1.313   4.475
88798SOL     OW68232  14.722  10.503   3.604
88798SOL    HW168233  14.696  10.586   3.644
88798SOL    HW268234  14.791  10.470   3.661
88799SOL     OW68235   5.447   7.027   0.318
88799SOL    HW168236   5.539   7.006   0.297
88799SOL    HW268237   5.397   6.957   0.275
88800SOL     OW68238  11.936  11.949  11.114
88800SOL    HW168239  12.004  11.888  11.141
88800SOL    HW268240  11.855  11.912  11.150
88801SOL     OW68241   6.929   7.208   3.328
88801SOL    HW168242   6.920   7.285   3.271
88801SOL    HW268243   6.915   7.134   3.269
88802SOL     OW68244   7.104  10.077   2.810
88802SOL    HW168245   7.146   9.992   2.803
88802SOL    HW268246   7.173  10.136   2.839
88803SOL     OW68247   2.665   0.299  11.214
88803SOL    HW168248   2.708   0.226  11.260
88803SOL    HW268249   2.575   0.270  11.203
88804SOL     OW68250   2.166   1.604  10.545
88804SOL    HW168251   2.144   1.555  10.624
88804SOL    HW268252   2.113   1.684  10.551
88805SOL     OW68253   0.310   6.469   2.026
88805SOL    HW168254   0.246   6.429   2.085
88805SOL    HW268255   0.338   6.549   2.072
88806SOL     OW68256  10.649   3.786   5.635
88806SOL    HW168257  10.663   3.724   5.707
88806SOL    HW268258  10.730   3.838   5.633
88807SOL     OW68259  12.900   3.100   7.682
88807SOL    HW168260  12.952   3.071   7.757
88807SOL    HW268261  12.966   3.122   7.615
88808SOL     OW68262  13.324   8.759   7.844
88808SOL    HW168263  13.383   8.759   7.920
88808SOL    HW268264  13.249   8.707   7.873
88809SOL     OW68265  12.066   0.168   7.757
88809SOL    HW168266  12.015   0.173   7.676
88809SOL    HW268267  12.066   0.258   7.791
88810SOL     OW68268   7.317   7.664  13.900
88810SOL    HW168269   7.251   7.732  13.884
88810SOL    HW268270   7.391   7.689  13.846
88811SOL     OW68271  12.518   2.402  14.513
88811SOL    HW168272  12.455   2.334  14.538
88811SOL    HW268273  12.589   2.354  14.471
88812SOL     OW68274   8.248   0.304  10.151
88812SOL    HW168275   8.275   0.388  10.188
88812SOL    HW268276   8.178   0.327  10.089
88813SOL     OW68277  14.634   0.050  14.457
88813SOL    HW168278  14.710   0.088  14.414
88813SOL    HW268279  14.594   0.123  14.504
88814SOL     OW68280  14.587   9.269  10.611
88814SOL    HW168281  14.501   9.258  10.651
88814SOL    HW268282  14.601   9.188  10.562
88815SOL     OW68283   1.267   1.377   3.253
88815SOL    HW168284   1.239   1.467   3.268
88815SOL    HW268285   1.354   1.372   3.291
88816SOL     OW68286   8.576   6.700   0.642
88816SOL    HW168287   8.572   6.734   0.552
88816SOL    HW268288   8.585   6.778   0.697
88817SOL     OW68289   6.464  10.133   8.760
88817SOL    HW168290   6.456  10.064   8.825
88817SOL    HW268291   6.551  10.121   8.723
88818SOL     OW68292   0.746  11.710   1.581
88818SOL    HW168293   0.834  11.727   1.615
88818SOL    HW268294   0.752  11.732   1.488
88819SOL     OW68295   0.847   7.020   4.087
88819SOL    HW168296   0.807   6.965   4.020
88819SOL    HW268297   0.941   7.008   4.074
88820SOL     OW68298  13.407  12.250   4.197
88820SOL    HW168299  13.484  12.224   4.247
88820SOL    HW268300  13.434  12.329   4.150
88821SOL     OW68301   5.506   6.182  12.796
88821SOL    HW168302   5.419   6.180  12.835
88821SOL    HW268303   5.501   6.123  12.721
88822SOL     OW68304  12.435   0.905   5.340
88822SOL    HW168305  12.365   0.870   5.396
88822SOL    HW268306  12.389   0.938   5.263
88823SOL     OW68307  13.709   1.023   5.019
88823SOL    HW168308  13.734   0.988   5.104
88823SOL    HW268309  13.708   1.118   5.031
88824SOL     OW68310   5.498   1.732  12.006
88824SOL    HW168311   5.460   1.682  12.079
88824SOL    HW268312   5.590   1.743  12.029
88825SOL     OW68313  14.271  14.518  13.854
88825SOL    HW168314  14.201  14.535  13.791
88825SOL    HW268315  14.288  14.424  13.847
88826SOL     OW68316   2.681  14.602   1.384
88826SOL    HW168317   2.716  14.516   1.407
88826SOL    HW268318   2.613  14.617   1.449
88827SOL     OW68319  11.764   9.998   6.944
88827SOL    HW168320  11.844   9.951   6.968
88827SOL    HW268321  11.718  10.011   7.027
88828SOL     OW68322  10.620   5.263   2.550
88828SOL    HW168323  10.640   5.170   2.540
88828SOL    HW268324  10.601   5.294   2.461
88829SOL     OW68325   3.144  10.437   2.574
88829SOL    HW168326   3.062  10.445   2.525
88829SOL    HW268327   3.130  10.493   2.651
88830SOL     OW68328   3.104   1.131   6.458
88830SOL    HW168329   3.045   1.180   6.516
88830SOL    HW268330   3.191   1.168   6.475
88831SOL     OW68331   3.577   8.605  12.402
88831SOL    HW168332   3.551   8.649  12.321
88831SOL    HW268333   3.569   8.512  12.382
88832SOL     OW68334   0.949   4.939   6.380
88832SOL    HW168335   1.000   5.002   6.433
88832SOL    HW268336   0.981   4.853   6.408
88833SOL     OW68337  10.601   9.835   0.403
88833SOL    HW168338  10.687   9.831   0.445
88833SOL    HW268339  10.597   9.756   0.349
88834SOL     OW68340  13.222   3.096   1.269
88834SOL    HW168341  13.149   3.108   1.330
88834SOL    HW268342  13.219   3.174   1.213
88835SOL     OW68343   4.974   0.063  12.813
88835SOL    HW168344   5.033   0.095  12.881
88835SOL    HW268345   4.992   0.118  12.738
88836SOL     OW68346   4.120   6.705   2.655
88836SOL    HW168347   4.180   6.777   2.638
88836SOL    HW268348   4.092   6.717   2.745
88837SOL     OW68349  11.311  13.923   0.050
88837SOL    HW168350  11.405  13.943   0.043
88837SOL    HW268351  11.300  13.842   0.001
88838SOL     OW68352   8.142   8.166   2.706
88838SOL    HW168353   8.088   8.117   2.643
88838SOL    HW268354   8.125   8.258   2.685
88839SOL     OW68355   4.115   7.577   4.587
88839SOL    HW168356   4.195   7.528   4.606
88839SOL    HW268357   4.047   7.510   4.582
88840SOL     OW68358   4.073  10.700   1.718
88840SOL    HW168359   3.980  10.724   1.721
88840SOL    HW268360   4.092  10.689   1.625
88841SOL     OW68361   5.992   1.804  12.159
88841SOL    HW168362   6.083   1.787  12.133
88841SOL    HW268363   5.990   1.785  12.253
88842SOL     OW68364   4.792   8.084   4.257
88842SOL    HW168365   4.738   8.148   4.306
88842SOL    HW268366   4.860   8.059   4.319
88843SOL     OW68367   1.622  13.683   0.878
88843SOL    HW168368   1.634  13.611   0.941
88843SOL    HW268369   1.600  13.639   0.796
88844SOL     OW68370  14.459   0.287   6.482
88844SOL    HW168371  14.413   0.344   6.544
88844SOL    HW268372  14.393   0.223   6.455
88845SOL     OW68373  11.303   9.280   3.851
88845SOL    HW168374  11.385   9.328   3.845
88845SOL    HW268375  11.314   9.204   3.794
88846SOL     OW68376   7.463   2.289  11.654
88846SOL    HW168377   7.449   2.194  11.645
88846SOL    HW268378   7.523   2.297  11.728
88847SOL     OW68379  10.686   8.186   0.743
88847SOL    HW168380  10.603   8.204   0.699
88847SOL    HW268381  10.664   8.120   0.809
88848SOL     OW68382  13.560   5.980  10.415
88848SOL    HW168383  13.648   5.945  10.401
88848SOL    HW268384  13.515   5.911  10.465
88849SOL     OW68385   5.015   6.579  10.141
88849SOL    HW168386   5.098   6.626  10.152
88849SOL    HW268387   4.957   6.642  10.097
88850SOL     OW68388  12.023  13.215   2.971
88850SOL    HW168389  12.067  13.136   2.939
88850SOL    HW268390  12.076  13.287   2.938
88851SOL     OW68391   5.891   4.008   8.317
88851SOL    HW168392   5.806   3.963   8.317
88851SOL    HW268393   5.953   3.942   8.347
88852SOL     OW68394   4.201  13.874   2.607
88852SOL    HW168395   4.222  13.967   2.599
88852SOL    HW268396   4.235  13.835   2.527
88853SOL     OW68397   4.679   5.789   3.168
88853SOL    HW168398   4.613   5.819   3.105
88853SOL    HW268399   4.761   5.792   3.119
88854SOL     OW68400  12.486   8.850  14.602
88854SOL    HW168401  12.518   8.762  14.585
88854SOL    HW268402  12.527   8.876  14.684
88855SOL     OW68403   9.771  11.028   0.345
88855SOL    HW168404   9.764  11.065   0.257
88855SOL    HW268405   9.692  11.057   0.390
88856SOL     OW68406  14.643   6.876   6.641
88856SOL    HW168407  14.736   6.857   6.651
88856SOL    HW268408  14.616   6.824   6.565
88857SOL     OW68409  11.148   3.692   9.791
88857SOL    HW168410  11.231   3.686   9.838
88857SOL    HW268411  11.127   3.602   9.767
88858SOL     OW68412   0.913   3.157   4.998
88858SOL    HW168413   0.988   3.127   4.947
88858SOL    HW268414   0.951   3.210   5.068
88859SOL     OW68415  14.772  13.157   6.149
88859SOL    HW168416  14.741  13.212   6.077
88859SOL    HW268417  14.840  13.102   6.110
88860SOL     OW68418   8.004  11.331   7.557
88860SOL    HW168419   8.084  11.296   7.517
88860SOL    HW268420   7.959  11.376   7.486
88861SOL     OW68421   1.801   7.751  11.809
88861SOL    HW168422   1.827   7.802  11.733
88861SOL    HW268423   1.870   7.686  11.820
88862SOL     OW68424  14.228   6.448   2.291
88862SOL    HW168425  14.289   6.381   2.261
88862SOL    HW268426  14.160   6.399   2.337
88863SOL     OW68427   2.212   4.714   4.084
88863SOL    HW168428   2.152   4.645   4.111
88863SOL    HW268429   2.199   4.784   4.148
88864SOL     OW68430  13.244   1.319  13.446
88864SOL    HW168431  13.225   1.387  13.381
88864SOL    HW268432  13.327   1.281  13.416
88865SOL     OW68433   7.026   4.983   1.203
88865SOL    HW168434   7.092   4.953   1.140
88865SOL    HW268435   6.996   4.903   1.246
88866SOL     OW68436   4.743  14.814   1.299
88866SOL    HW168437   4.754  14.721   1.317
88866SOL    HW268438   4.721  14.853   1.384
88867SOL     OW68439   7.456   5.219   5.187
88867SOL    HW168440   7.493   5.211   5.099
88867SOL    HW268441   7.378   5.164   5.185
88868SOL     OW68442  11.571   4.154  11.544
88868SOL    HW168443  11.517   4.186  11.471
88868SOL    HW268444  11.556   4.060  11.545
88869SOL     OW68445  14.281   8.305   3.872
88869SOL    HW168446  14.304   8.320   3.964
88869SOL    HW268447  14.278   8.209   3.864
88870SOL     OW68448  13.774   3.986   9.019
88870SOL    HW168449  13.831   4.025   9.086
88870SOL    HW268450  13.729   3.915   9.065
88871SOL     OW68451   2.191   0.040  12.120
88871SOL    HW168452   2.215   0.037  12.213
88871SOL    HW268453   2.126   0.110  12.114
88872SOL     OW68454   0.402  13.747   1.764
88872SOL    HW168455   0.469  13.805   1.799
88872SOL    HW268456   0.324  13.802   1.755
88873SOL     OW68457   8.328  11.375   2.539
88873SOL    HW168458   8.310  11.468   2.549
88873SOL    HW268459   8.423  11.369   2.536
88874SOL     OW68460   4.795   1.507  12.117
88874SOL    HW168461   4.814   1.594  12.153
88874SOL    HW268462   4.864   1.492  12.053
88875SOL     OW68463  11.239   3.079   8.025
88875SOL    HW168464  11.306   3.112   7.966
88875SOL    HW268465  11.209   3.156   8.074
88876SOL     OW68466   8.745   9.216   9.097
88876SOL    HW168467   8.710   9.232   9.009
88876SOL    HW268468   8.839   9.231   9.088
88877SOL     OW68469  12.953   6.586  11.947
88877SOL    HW168470  12.880   6.646  11.960
88877SOL    HW268471  12.912   6.504  11.919
88878SOL     OW68472   2.201  11.421   9.780
88878SOL    HW168473   2.235  11.367   9.852
88878SOL    HW268474   2.235  11.508   9.798
88879SOL     OW68475   5.639   0.123   9.780
88879SOL    HW168476   5.553   0.096   9.745
88879SOL    HW268477   5.659   0.204   9.733
88880SOL     OW68478  13.811   9.283   7.091
88880SOL    HW168479  13.721   9.315   7.102
88880SOL    HW268480  13.855   9.352   7.042
88881SOL     OW68481  11.252  13.038   8.386
88881SOL    HW168482  11.321  13.004   8.329
88881SOL    HW268483  11.177  13.050   8.328
88882SOL     OW68484  13.359   3.404   4.448
88882SOL    HW168485  13.324   3.491   4.428
88882SOL    HW268486  13.354   3.397   4.543
88883SOL     OW68487  10.846   3.726   6.598
88883SOL    HW168488  10.847   3.821   6.611
88883SOL    HW268489  10.854   3.689   6.686
88884SOL     OW68490   3.852   2.544   3.459
88884SOL    HW168491   3.766   2.531   3.418
88884SOL    HW268492   3.855   2.478   3.529
88885SOL     OW68493   2.438  11.892   5.850
88885SOL    HW168494   2.510  11.838   5.882
88885SOL    HW268495   2.422  11.954   5.921
88886SOL     OW68496   1.479  11.783  12.674
88886SOL    HW168497   1.487  11.708  12.614
88886SOL    HW268498   1.480  11.860  12.617
88887SOL     OW68499   7.833   3.994   9.542
88887SOL    HW168500   7.927   3.995   9.523
88887SOL    HW268501   7.792   4.036   9.466
88888SOL     OW68502   8.364  11.675   5.429
88888SOL    HW168503   8.301  11.744   5.412
88888SOL    HW268504   8.341  11.605   5.368
88889SOL     OW68505   3.147  10.924  14.690
88889SOL    HW168506   3.199  10.980  14.632
88889SOL    HW268507   3.071  10.899  14.636
88890SOL     OW68508   5.847   6.584   4.412
88890SOL    HW168509   5.894   6.548   4.337
88890SOL    HW268510   5.773   6.632   4.374
88891SOL     OW68511   1.183   4.565  10.969
88891SOL    HW168512   1.099   4.570  10.924
88891SOL    HW268513   1.246   4.599  10.905
88892SOL     OW68514   5.948   7.704   5.249
88892SOL    HW168515   5.941   7.753   5.331
88892SOL    HW268516   6.012   7.636   5.267
88893SOL     OW68517  10.644   4.873   1.453
88893SOL    HW168518  10.639   4.834   1.541
88893SOL    HW268519  10.562   4.922   1.445
88894SOL     OW68520  14.215   5.380  12.196
88894SOL    HW168521  14.281   5.399  12.263
88894SOL    HW268522  14.143   5.340  12.244
88895SOL     OW68523   4.730   4.858   4.649
88895SOL    HW168524   4.701   4.890   4.734
88895SOL    HW268525   4.793   4.923   4.619
88896SOL     OW68526   3.280  11.031   2.345
88896SOL    HW168527   3.272  11.006   2.253
88896SOL    HW268528   3.211  11.097   2.358
88897SOL     OW68529   6.263  10.131   6.895
88897SOL    HW168530   6.349  10.162   6.920
88897SOL    HW268531   6.231  10.196   6.833
88898SOL     OW68532   6.574  12.667  12.099
88898SOL    HW168533   6.517  12.732  12.058
88898SOL    HW268534   6.647  12.657  12.038
88899SOL     OW68535   4.904   4.720  11.791
88899SOL    HW168536   4.989   4.687  11.761
88899SOL    HW268537   4.921   4.812  11.814
88900SOL     OW68538  10.765   1.339  11.952
88900SOL    HW168539  10.744   1.263  12.006
88900SOL    HW268540  10.680   1.376  11.929
88901SOL     OW68541   1.118   5.905  10.090
88901SOL    HW168542   1.170   5.880  10.013
88901SOL    HW268543   1.144   5.842  10.158
88902SOL     OW68544  13.500   4.916  13.023
88902SOL    HW168545  13.423   4.881  12.978
88902SOL    HW268546  13.519   4.999  12.978
88903SOL     OW68547   5.308   2.127  10.672
88903SOL    HW168548   5.222   2.121  10.713
88903SOL    HW268549   5.312   2.051  10.614
88904SOL     OW68550   0.570   3.963   8.515
88904SOL    HW168551   0.557   4.022   8.590
88904SOL    HW268552   0.574   3.876   8.554
88905SOL     OW68553  14.568   0.792   0.748
88905SOL    HW168554  14.500   0.858   0.737
88905SOL    HW268555  14.650   0.841   0.747
88906SOL     OW68556  11.144   3.305  12.832
88906SOL    HW168557  11.210   3.345  12.889
88906SOL    HW268558  11.160   3.345  12.746
88907SOL     OW68559   9.474  13.622   4.483
88907SOL    HW168560   9.411  13.583   4.544
88907SOL    HW268561   9.517  13.691   4.534
88908SOL     OW68562   4.278  11.974  12.904
88908SOL    HW168563   4.263  12.025  12.824
88908SOL    HW268564   4.203  11.995  12.960
88909SOL     OW68565   0.691   6.617  13.430
88909SOL    HW168566   0.628   6.583  13.367
88909SOL    HW268567   0.769   6.638  13.378
88910SOL     OW68568   4.729   6.106  11.204
88910SOL    HW168569   4.732   6.196  11.172
88910SOL    HW268570   4.668   6.062  11.145
88911SOL     OW68571   6.573  11.640   6.861
88911SOL    HW168572   6.587  11.676   6.949
88911SOL    HW268573   6.481  11.654   6.843
88912SOL     OW68574  11.070   8.708   5.274
88912SOL    HW168575  10.988   8.673   5.309
88912SOL    HW268576  11.121   8.631   5.250
88913SOL     OW68577  13.026   8.915   2.189
88913SOL    HW168578  13.042   9.009   2.195
88913SOL    HW268579  12.973   8.904   2.111
88914SOL     OW68580   6.479  11.821   8.978
88914SOL    HW168581   6.468  11.853   8.888
88914SOL    HW268582   6.566  11.852   9.004
88915SOL     OW68583   2.005   3.799   3.095
88915SOL    HW168584   2.037   3.840   3.016
88915SOL    HW268585   1.932   3.854   3.123
88916SOL     OW68586   2.714   8.788   8.338
88916SOL    HW168587   2.621   8.809   8.336
88916SOL    HW268588   2.748   8.834   8.415
88917SOL     OW68589  12.268   6.439   6.487
88917SOL    HW168590  12.207   6.440   6.413
88917SOL    HW268591  12.213   6.424   6.563
88918SOL     OW68592   1.777   6.272   4.522
88918SOL    HW168593   1.795   6.214   4.596
88918SOL    HW268594   1.836   6.346   4.534
88919SOL     OW68595  11.171   7.830   4.879
88919SOL    HW168596  11.085   7.789   4.874
88919SOL    HW268597  11.161   7.901   4.942
88920SOL     OW68598  10.320  10.461   9.411
88920SOL    HW168599  10.325  10.382   9.358
88920SOL    HW268600  10.310  10.532   9.348
88921SOL     OW68601   2.521   3.457   6.570
88921SOL    HW168602   2.584   3.420   6.508
88921SOL    HW268603   2.498   3.385   6.627
88922SOL     OW68604   5.971   6.617  11.282
88922SOL    HW168605   5.889   6.667  11.274
88922SOL    HW268606   5.951   6.531  11.247
88923SOL     OW68607   2.645   7.410   4.210
88923SOL    HW168608   2.668   7.328   4.253
88923SOL    HW268609   2.625   7.470   4.282
88924SOL     OW68610  14.124   8.871  14.377
88924SOL    HW168611  14.075   8.932  14.321
88924SOL    HW268612  14.114   8.786  14.333
88925SOL     OW68613   2.167  14.472   2.976
88925SOL    HW168614   2.256  14.499   2.955
88925SOL    HW268615   2.174  14.431   3.062
88926SOL     OW68616  10.010   5.551   6.724
88926SOL    HW168617   9.938   5.613   6.716
88926SOL    HW268618  10.034   5.553   6.817
88927SOL     OW68619   7.572   0.405  10.431
88927SOL    HW168620   7.612   0.471  10.375
88927SOL    HW268621   7.586   0.436  10.520
88928SOL     OW68622   5.206   5.646   8.015
88928SOL    HW168623   5.186   5.738   7.994
88928SOL    HW268624   5.268   5.651   8.087
88929SOL     OW68625  13.635   4.754   1.517
88929SOL    HW168626  13.719   4.715   1.492
88929SOL    HW268627  13.611   4.808   1.441
88930SOL     OW68628   5.904   7.334   7.972
88930SOL    HW168629   5.984   7.287   7.995
88930SOL    HW268630   5.849   7.269   7.929
88931SOL     OW68631  13.288   2.500  11.478
88931SOL    HW168632  13.334   2.562  11.535
88931SOL    HW268633  13.296   2.538  11.390
88932SOL     OW68634  12.032  10.161   1.707
88932SOL    HW168635  12.073  10.178   1.792
88932SOL    HW268636  11.942  10.190   1.718
88933SOL     OW68637  14.165   7.071   6.382
88933SOL    HW168638  14.182   7.040   6.471
88933SOL    HW268639  14.104   7.144   6.393
88934SOL     OW68640  10.151   6.381   8.885
88934SOL    HW168641  10.128   6.350   8.973
88934SOL    HW268642  10.128   6.308   8.828
88935SOL     OW68643  10.237  12.299   5.287
88935SOL    HW168644  10.294  12.285   5.363
88935SOL    HW268645  10.152  12.264   5.313
88936SOL     OW68646   3.543   6.390  13.905
88936SOL    HW168647   3.504   6.363  13.823
88936SOL    HW268648   3.516   6.323  13.969
88937SOL     OW68649  14.189  11.083   8.163
88937SOL    HW168650  14.273  11.122   8.137
88937SOL    HW268651  14.183  11.002   8.113
88938SOL     OW68652   3.774   3.455   6.811
88938SOL    HW168653   3.783   3.462   6.716
88938SOL    HW268654   3.698   3.509   6.832
88939SOL     OW68655   2.360   7.750   7.631
88939SOL    HW168656   2.309   7.823   7.666
88939SOL    HW268657   2.427   7.792   7.578
88940SOL     OW68658   4.652  10.091  13.110
88940SOL    HW168659   4.691  10.008  13.137
88940SOL    HW268660   4.693  10.156  13.166
88941SOL     OW68661   7.728   6.387   4.236
88941SOL    HW168662   7.686   6.322   4.293
88941SOL    HW268663   7.785   6.337   4.179
88942SOL     OW68664   9.805  10.600   5.973
88942SOL    HW168665   9.858  10.676   5.997
88942SOL    HW268666   9.729  10.637   5.928
88943SOL     OW68667   6.748   6.239   8.454
88943SOL    HW168668   6.673   6.297   8.457
88943SOL    HW268669   6.713   6.154   8.427
88944SOL     OW68670  10.717   8.690   0.034
88944SOL    HW168671  10.808   8.698   0.062
88944SOL    HW268672  10.687   8.780   0.022
88945SOL     OW68673  13.995  11.447   3.285
88945SOL    HW168674  14.050  11.524   3.268
88945SOL    HW268675  13.958  11.425   3.199
88946SOL     OW68676   5.096   1.057   0.044
88946SOL    HW168677   5.139   1.133   0.004
88946SOL    HW268678   5.115   1.065   0.137
88947SOL     OW68679  13.877   6.104  13.949
88947SOL    HW168680  13.858   6.172  14.014
88947SOL    HW268681  13.810   6.115  13.882
88948SOL     OW68682   6.020   1.366   2.142
88948SOL    HW168683   6.086   1.419   2.096
88948SOL    HW268684   5.950   1.355   2.078
88949SOL     OW68685   1.132  13.696   1.871
88949SOL    HW168686   1.091  13.660   1.949
88949SOL    HW268687   1.146  13.621   1.814
88950SOL     OW68688  10.332   0.453  10.617
88950SOL    HW168689  10.327   0.468  10.711
88950SOL    HW268690  10.250   0.409  10.595
88951SOL     OW68691  12.550   4.868   2.219
88951SOL    HW168692  12.633   4.828   2.244
88951SOL    HW268693  12.488   4.795   2.221
88952SOL     OW68694   5.162   7.544  14.870
88952SOL    HW168695   5.102   7.534  14.796
88952SOL    HW268696   5.107   7.533   0.073
88953SOL     OW68697   8.009   2.178  11.384
88953SOL    HW168698   7.927   2.170  11.335
88953SOL    HW268699   8.057   2.098  11.364
88954SOL     OW68700   9.779  14.535   0.726
88954SOL    HW168701   9.858  14.588   0.741
88954SOL    HW268702   9.806  14.446   0.748
88955SOL     OW68703   5.882   2.571   1.707
88955SOL    HW168704   5.860   2.599   1.619
88955SOL    HW268705   5.965   2.525   1.697
88956SOL     OW68706  11.631   0.589   7.871
88956SOL    HW168707  11.647   0.503   7.833
88956SOL    HW268708  11.644   0.576   7.965
88957SOL     OW68709  11.940   2.437  13.667
88957SOL    HW168710  11.987   2.374  13.612
88957SOL    HW268711  11.980   2.521  13.646
88958SOL     OW68712  11.120   8.714  11.452
88958SOL    HW168713  11.136   8.639  11.396
88958SOL    HW268714  11.087   8.782  11.393
88959SOL     OW68715   1.305   6.478  14.117
88959SOL    HW168716   1.383   6.483  14.062
88959SOL    HW268717   1.232   6.485  14.055
88960SOL     OW68718   1.802  11.578   2.851
88960SOL    HW168719   1.710  11.556   2.869
88960SOL    HW268720   1.798  11.643   2.781
88961SOL     OW68721  14.012  12.646   4.455
88961SOL    HW168722  13.936  12.700   4.435
88961SOL    HW268723  14.076  12.707   4.490
88962SOL     OW68724   8.302  14.768  14.360
88962SOL    HW168725   8.240  14.786  14.290
88962SOL    HW268726   8.381  14.815  14.335
88963SOL     OW68727  13.376   4.970  11.080
88963SOL    HW168728  13.339   4.885  11.101
88963SOL    HW268729  13.316   5.033  11.120
88964SOL     OW68730  10.423   8.497  14.639
88964SOL    HW168731  10.361   8.426  14.653
88964SOL    HW268732  10.501   8.471  14.688
88965SOL     OW68733   5.281   5.305   9.241
88965SOL    HW168734   5.346   5.248   9.283
88965SOL    HW268735   5.259   5.260   9.160
88966SOL     OW68736   7.387   1.575   8.480
88966SOL    HW168737   7.470   1.535   8.457
88966SOL    HW268738   7.328   1.554   8.407
88967SOL     OW68739   6.592   3.197   2.131
88967SOL    HW168740   6.558   3.149   2.207
88967SOL    HW268741   6.661   3.253   2.168
88968SOL     OW68742  13.618  10.326   4.242
88968SOL    HW168743  13.569  10.324   4.324
88968SOL    HW268744  13.552  10.343   4.175
88969SOL     OW68745  14.837  10.469  11.881
88969SOL    HW168746   0.021  10.481  11.956
88969SOL    HW268747   0.017  10.486  11.804
88970SOL     OW68748   6.062  13.357   5.125
88970SOL    HW168749   6.131  13.333   5.063
88970SOL    HW268750   6.041  13.275   5.170
88971SOL     OW68751   8.970   5.627   5.774
88971SOL    HW168752   9.050   5.676   5.789
88971SOL    HW268753   8.900   5.687   5.799
88972SOL     OW68754   7.573  10.914   9.060
88972SOL    HW168755   7.527  10.833   9.038
88972SOL    HW268756   7.518  10.955   9.127
88973SOL     OW68757   7.357  10.358   7.488
88973SOL    HW168758   7.331  10.306   7.412
88973SOL    HW268759   7.288  10.344   7.553
88974SOL     OW68760   8.879   3.946   7.905
88974SOL    HW168761   8.924   3.906   7.979
88974SOL    HW268762   8.940   3.938   7.832
88975SOL     OW68763  12.327  13.649   5.673
88975SOL    HW168764  12.392  13.704   5.629
88975SOL    HW268765  12.367  13.561   5.673
88976SOL     OW68766  12.670  12.596   6.307
88976SOL    HW168767  12.616  12.674   6.319
88976SOL    HW268768  12.738  12.623   6.245
88977SOL     OW68769  10.746  12.328  12.310
88977SOL    HW168770  10.653  12.344  12.291
88977SOL    HW268771  10.791  12.349  12.229
88978SOL     OW68772   0.453   1.249  13.793
88978SOL    HW168773   0.518   1.214  13.855
88978SOL    HW268774   0.445   1.181  13.726
88979SOL     OW68775   0.783   5.174  11.954
88979SOL    HW168776   0.809   5.133  11.871
88979SOL    HW268777   0.800   5.267  11.940
88980SOL     OW68778   3.821   6.149   1.254
88980SOL    HW168779   3.853   6.211   1.188
88980SOL    HW268780   3.897   6.133   1.310
88981SOL     OW68781  12.424   3.282   4.866
88981SOL    HW168782  12.347   3.260   4.813
88981SOL    HW268783  12.388   3.324   4.944
88982SOL     OW68784   2.106  12.885   9.606
88982SOL    HW168785   2.139  12.802   9.640
88982SOL    HW268786   2.045  12.860   9.537
88983SOL     OW68787   6.829  12.969  11.124
88983SOL    HW168788   6.777  12.967  11.044
88983SOL    HW268789   6.861  12.880  11.135
88984SOL     OW68790   1.720   2.091   4.437
88984SOL    HW168791   1.667   2.059   4.364
88984SOL    HW268792   1.805   2.112   4.397
88985SOL     OW68793  11.010   7.908   9.088
88985SOL    HW168794  11.003   7.831   9.145
88985SOL    HW268795  11.026   7.872   9.001
88986SOL     OW68796   0.592   0.503  12.836
88986SOL    HW168797   0.643   0.571  12.793
88986SOL    HW268798   0.527   0.551  12.888
88987SOL     OW68799   3.504   3.450   8.151
88987SOL    HW168800   3.408   3.457   8.149
88987SOL    HW268801   3.522   3.413   8.238
88988SOL     OW68802   5.677  10.276   9.158
88988SOL    HW168803   5.665  10.219   9.082
88988SOL    HW268804   5.685  10.364   9.120
88989SOL     OW68805  12.381   9.507  10.036
88989SOL    HW168806  12.428   9.571   9.983
88989SOL    HW268807  12.295   9.547  10.050
88990SOL     OW68808   2.770  14.701   0.413
88990SOL    HW168809   2.773  14.781   0.466
88990SOL    HW268810   2.858  14.663   0.421
88991SOL     OW68811  14.430  11.315   4.082
88991SOL    HW168812  14.402  11.281   4.167
88991SOL    HW268813  14.431  11.239   4.024
88992SOL     OW68814   1.493   5.492   0.473
88992SOL    HW168815   1.555   5.484   0.546
88992SOL    HW268816   1.448   5.575   0.490
88993SOL     OW68817  10.457   6.423   3.197
88993SOL    HW168818  10.364   6.442   3.210
88993SOL    HW268819  10.478   6.358   3.264
88994SOL     OW68820  13.954  11.006  14.403
88994SOL    HW168821  13.931  11.002  14.310
88994SOL    HW268822  13.958  11.100  14.422
88995SOL     OW68823   4.702  11.876   6.390
88995SOL    HW168824   4.619  11.854   6.348
88995SOL    HW268825   4.678  11.896   6.481
88996SOL     OW68826  14.607  14.197   1.713
88996SOL    HW168827  14.521  14.161   1.694
88996SOL    HW268828  14.659  14.123   1.743
88997SOL     OW68829   9.608  11.026   9.474
88997SOL    HW168830   9.566  11.003   9.557
88997SOL    HW268831   9.615  10.942   9.427
88998SOL     OW68832   2.764   3.296   3.203
88998SOL    HW168833   2.853   3.277   3.234
88998SOL    HW268834   2.729   3.212   3.175
88999SOL     OW68835   2.771  14.522   6.221
88999SOL    HW168836   2.846  14.554   6.172
88999SOL    HW268837   2.715  14.599   6.233
89000SOL     OW68838   7.743  14.455   7.888
89000SOL    HW168839   7.652  14.473   7.913
89000SOL    HW268840   7.791  14.452   7.970
89001SOL     OW68841  13.320   0.639   8.614
89001SOL    HW168842  13.371   0.596   8.682
89001SOL    HW268843  13.306   0.571   8.547
89002SOL     OW68844   6.810   4.463  12.906
89002SOL    HW168845   6.740   4.399  12.914
89002SOL    HW268846   6.772   4.535  12.855
89003SOL     OW68847   0.415  13.575  13.752
89003SOL    HW168848   0.396  13.528  13.833
89003SOL    HW268849   0.487  13.634  13.774
89004SOL     OW68850  11.486  13.032   5.059
89004SOL    HW168851  11.533  12.989   4.988
89004SOL    HW268852  11.516  12.987   5.138
89005SOL     OW68853   0.482  13.792  12.708
89005SOL    HW168854   0.531  13.874  12.713
89005SOL    HW268855   0.440  13.793  12.622
89006SOL     OW68856   7.333   3.772   6.443
89006SOL    HW168857   7.403   3.835   6.427
89006SOL    HW268858   7.316   3.732   6.358
89007SOL     OW68859   4.995   9.834   0.372
89007SOL    HW168860   4.967   9.752   0.332
89007SOL    HW268861   4.990   9.818   0.467
89008SOL     OW68862  12.392   7.429   6.028
89008SOL    HW168863  12.484   7.444   6.051
89008SOL    HW268864  12.395   7.403   5.936
89009SOL     OW68865   6.122   4.401   6.008
89009SOL    HW168866   6.114   4.312   6.042
89009SOL    HW268867   6.126   4.457   6.085
89010SOL     OW68868   7.783   7.571  12.327
89010SOL    HW168869   7.703   7.518  12.323
89010SOL    HW268870   7.790   7.598  12.418
89011SOL     OW68871   7.058  13.156   9.858
89011SOL    HW168872   7.143  13.198   9.845
89011SOL    HW268873   7.004  13.223   9.900
89012SOL     OW68874   6.115   6.915   8.855
89012SOL    HW168875   6.192   6.859   8.847
89012SOL    HW268876   6.041   6.855   8.864
89013SOL     OW68877   8.381   5.821   7.298
89013SOL    HW168878   8.410   5.910   7.318
89013SOL    HW268879   8.323   5.831   7.223
89014SOL     OW68880   1.678  14.220   1.738
89014SOL    HW168881   1.600  14.229   1.794
89014SOL    HW268882   1.750  14.255   1.791
89015SOL     OW68883   3.887  10.640  10.367
89015SOL    HW168884   3.796  10.655  10.393
89015SOL    HW268885   3.903  10.704  10.297
89016SOL     OW68886   8.191   2.172  10.052
89016SOL    HW168887   8.259   2.213  10.106
89016SOL    HW268888   8.195   2.220   9.969
89017SOL     OW68889  12.311   4.113   3.490
89017SOL    HW168890  12.322   4.023   3.459
89017SOL    HW268891  12.290   4.163   3.411
89018SOL     OW68892   6.139  13.769   2.256
89018SOL    HW168893   6.230  13.754   2.231
89018SOL    HW268894   6.135  13.741   2.348
89019SOL     OW68895   7.162   1.423   0.932
89019SOL    HW168896   7.179   1.488   0.864
89019SOL    HW268897   7.074   1.392   0.915
89020SOL     OW68898  11.939  10.127  14.693
89020SOL    HW168899  12.014  10.133  14.751
89020SOL    HW268900  11.876  10.190  14.728
89021SOL     OW68901   7.197   4.971   9.370
89021SOL    HW168902   7.151   4.915   9.306
89021SOL    HW268903   7.230   5.044   9.318
89022SOL     OW68904   4.004   7.777   4.083
89022SOL    HW168905   3.974   7.738   4.165
89022SOL    HW268906   3.969   7.720   4.014
89023SOL     OW68907  14.642   0.840  12.529
89023SOL    HW168908  14.719   0.890  12.501
89023SOL    HW268909  14.577   0.905  12.553
89024SOL     OW68910   0.939   9.946   1.548
89024SOL    HW168911   0.986  10.007   1.605
89024SOL    HW268912   0.855   9.988   1.530
89025SOL     OW68913   1.025  11.842  11.866
89025SOL    HW168914   1.030  11.794  11.949
89025SOL    HW268915   1.105  11.815  11.820
89026SOL     OW68916   4.013   3.968   8.879
89026SOL    HW168917   3.971   3.953   8.793
89026SOL    HW268918   4.055   3.884   8.899
89027SOL     OW68919  12.924   8.848  13.862
89027SOL    HW168920  12.922   8.829  13.955
89027SOL    HW268921  12.847   8.903  13.847
89028SOL     OW68922   7.509   7.102   2.278
89028SOL    HW168923   7.455   7.155   2.336
89028SOL    HW268924   7.599   7.132   2.293
89029SOL     OW68925   8.181   5.486   1.590
89029SOL    HW168926   8.193   5.567   1.641
89029SOL    HW268927   8.269   5.449   1.583
89030SOL     OW68928  11.319   1.723   8.443
89030SOL    HW168929  11.228   1.754   8.441
89030SOL    HW268930  11.365   1.781   8.382
89031SOL     OW68931   8.269   7.352   2.934
89031SOL    HW168932   8.228   7.407   2.867
89031SOL    HW268933   8.289   7.270   2.889
89032SOL     OW68934   2.063  12.605  14.205
89032SOL    HW168935   2.044  12.694  14.176
89032SOL    HW268936   2.093  12.615  14.295
89033SOL     OW68937  14.556   1.653  10.483
89033SOL    HW168938  14.538   1.701  10.403
89033SOL    HW268939  14.479   1.667  10.538
89034SOL     OW68940   9.455   5.359   1.718
89034SOL    HW168941   9.391   5.425   1.691
89034SOL    HW268942   9.417   5.318   1.795
89035SOL     OW68943  13.631   5.377   9.741
89035SOL    HW168944  13.670   5.380   9.654
89035SOL    HW268945  13.656   5.460   9.782
89036SOL     OW68946  14.440   7.883  14.193
89036SOL    HW168947  14.450   7.886  14.097
89036SOL    HW268948  14.509   7.824  14.222
89037SOL     OW68949  11.621   0.084  14.267
89037SOL    HW168950  11.596  14.866  14.257
89037SOL    HW268951  11.715   0.085  14.253
89038SOL     OW68952   9.172   4.858   3.778
89038SOL    HW168953   9.249   4.829   3.828
89038SOL    HW268954   9.186   4.952   3.765
89039SOL     OW68955  10.875  13.862   1.897
89039SOL    HW168956  10.937  13.913   1.845
89039SOL    HW268957  10.922  13.846   1.979
89040SOL     OW68958   1.667   8.597  10.119
89040SOL    HW168959   1.707   8.534  10.058
89040SOL    HW268960   1.725   8.596  10.195
89041SOL     OW68961   0.341   9.828   7.673
89041SOL    HW168962   0.427   9.788   7.686
89041SOL    HW268963   0.336   9.842   7.578
89042SOL     OW68964  10.876   8.170  13.831
89042SOL    HW168965  10.833   8.091  13.797
89042SOL    HW268966  10.806   8.235  13.835
89043SOL     OW68967  11.108   5.438  12.605
89043SOL    HW168968  11.163   5.412  12.679
89043SOL    HW268969  11.044   5.499  12.643
89044SOL     OW68970   3.343  10.934  14.002
89044SOL    HW168971   3.341  10.840  14.021
89044SOL    HW268972   3.424  10.948  13.955
89045SOL     OW68973   8.888   6.912  12.271
89045SOL    HW168974   8.937   6.949  12.343
89045SOL    HW268975   8.837   6.985  12.236
89046SOL     OW68976   9.907  10.876  11.327
89046SOL    HW168977   9.920  10.866  11.232
89046SOL    HW268978   9.832  10.821  11.347
89047SOL     OW68979   3.193   6.693  12.721
89047SOL    HW168980   3.280   6.705  12.685
89047SOL    HW268981   3.144   6.771  12.694
89048SOL     OW68982  10.251  13.596   2.117
89048SOL    HW168983  10.176  13.603   2.176
89048SOL    HW268984  10.322  13.643   2.162
89049SOL     OW68985   3.689  14.286   2.818
89049SOL    HW168986   3.608  14.258   2.775
89049SOL    HW268987   3.758  14.264   2.756
89050SOL     OW68988   6.335   7.819   1.316
89050SOL    HW168989   6.430   7.819   1.332
89050SOL    HW268990   6.299   7.867   1.390
89051SOL     OW68991   1.435  14.803  12.683
89051SOL    HW168992   1.495  14.783  12.612
89051SOL    HW268993   1.418   0.023  12.675
89052SOL     OW68994   3.056   3.155   3.383
89052SOL    HW168995   3.134   3.201   3.414
89052SOL    HW268996   3.009   3.131   3.463
89053SOL     OW68997   0.999  10.394   4.007
89053SOL    HW168998   0.926  10.449   4.037
89053SOL    HW268999   1.038  10.360   4.087
89054SOL     OW69000   1.110   8.729  13.005
89054SOL    HW169001   1.136   8.735  12.914
89054SOL    HW269002   1.175   8.670  13.045
89055SOL     OW69003   2.049   0.754  11.651
89055SOL    HW169004   2.101   0.699  11.592
89055SOL    HW269005   2.102   0.763  11.730
89056SOL     OW69006   3.370   8.761   6.287
89056SOL    HW169007   3.454   8.715   6.283
89056SOL    HW269008   3.327   8.739   6.205
89057SOL     OW69009  13.590   8.982  10.837
89057SOL    HW169010  13.506   9.023  10.820
89057SOL    HW269011  13.651   9.054  10.851
89058SOL     OW69012   6.415  11.663   1.352
89058SOL    HW169013   6.405  11.756   1.374
89058SOL    HW269014   6.337  11.622   1.386
89059SOL     OW69015   4.218  10.633   3.393
89059SOL    HW169016   4.172  10.710   3.360
89059SOL    HW269017   4.227  10.648   3.487
89060SOL     OW69018   5.411  11.766  13.493
89060SOL    HW169019   5.400  11.671  13.486
89060SOL    HW269020   5.418  11.796  13.402
89061SOL     OW69021   2.158   9.807   2.472
89061SOL    HW169022   2.183   9.896   2.445
89061SOL    HW269023   2.065   9.801   2.450
89062SOL     OW69024   7.759  13.717   8.113
89062SOL    HW169025   7.704  13.643   8.140
89062SOL    HW269026   7.700  13.792   8.116
89063SOL     OW69027   6.009  14.437   7.144
89063SOL    HW169028   5.929  14.432   7.197
89063SOL    HW269029   5.979  14.473   7.060
89064SOL     OW69030   0.862   3.281   5.660
89064SOL    HW169031   0.881   3.203   5.713
89064SOL    HW269032   0.812   3.248   5.586
89065SOL     OW69033  11.346   2.639   0.686
89065SOL    HW169034  11.363   2.570   0.622
89065SOL    HW269035  11.254   2.662   0.673
89066SOL     OW69036  13.035  14.409   7.907
89066SOL    HW169037  13.080  14.452   7.834
89066SOL    HW269038  13.096  14.416   7.980
89067SOL     OW69039   7.423   5.950  10.050
89067SOL    HW169040   7.386   5.870  10.087
89067SOL    HW269041   7.478   5.986  10.120
89068SOL     OW69042   3.927   6.112   0.072
89068SOL    HW169043   4.017   6.127   0.098
89068SOL    HW269044   3.919   6.017   0.064
89069SOL     OW69045   5.240   6.452   5.054
89069SOL    HW169046   5.202   6.370   5.024
89069SOL    HW269047   5.234   6.511   4.979
89070SOL     OW69048  13.327   0.568  11.874
89070SOL    HW169049  13.327   0.503  11.943
89070SOL    HW269050  13.239   0.564  11.836
89071SOL     OW69051   6.444   3.247  13.988
89071SOL    HW169052   6.384   3.299  13.934
89071SOL    HW269053   6.425   3.156  13.965
89072SOL     OW69054  10.500  11.889  13.278
89072SOL    HW169055  10.450  11.970  13.274
89072SOL    HW269056  10.584  11.910  13.236
89073SOL     OW69057   9.546  13.617   1.835
89073SOL    HW169058   9.533  13.706   1.866
89073SOL    HW269059   9.563  13.566   1.914
89074SOL     OW69060   8.264   5.386   6.319
89074SOL    HW169061   8.345   5.337   6.303
89074SOL    HW269062   8.214   5.378   6.238
89075SOL     OW69063   6.274  12.342  10.250
89075SOL    HW169064   6.262  12.392  10.170
89075SOL    HW269065   6.363  12.309  10.244
89076SOL     OW69066  10.960   0.319   9.484
89076SOL    HW169067  10.967   0.404   9.526
89076SOL    HW269068  11.039   0.312   9.430
89077SOL     OW69069   0.411   2.188  10.489
89077SOL    HW169070   0.455   2.168  10.406
89077SOL    HW269071   0.455   2.132  10.553
89078SOL     OW69072   9.472   0.257   8.549
89078SOL    HW169073   9.533   0.187   8.574
89078SOL    HW269074   9.385   0.220   8.564
89079SOL     OW69075   0.679   7.844   6.096
89079SOL    HW169076   0.768   7.857   6.130
89079SOL    HW269077   0.625   7.903   6.150
89080SOL     OW69078  11.072   0.010   6.963
89080SOL    HW169079  10.983  14.852   6.952
89080SOL    HW269080  11.062   0.099   6.997
89081SOL     OW69081  11.605   0.369   1.302
89081SOL    HW169082  11.533   0.362   1.365
89081SOL    HW269083  11.565   0.348   1.218
89082SOL     OW69084  12.154   0.799   5.472
89082SOL    HW169085  12.160   0.705   5.488
89082SOL    HW269086  12.113   0.806   5.386
89083SOL     OW69087  10.651   3.499  14.862
89083SOL    HW169088  10.574   3.442  14.852
89083SOL    HW269089  10.615   3.586   0.002
89084SOL     OW69090   0.096  12.632   5.182
89084SOL    HW169091   0.164  12.566   5.177
89084SOL    HW269092   0.094  12.672   5.095
89085SOL     OW69093   2.017  14.186  11.104
89085SOL    HW169094   2.056  14.258  11.054
89085SOL    HW269095   2.062  14.108  11.074
89086SOL     OW69096   0.599   4.000   5.438
89086SOL    HW169097   0.579   3.907   5.426
89086SOL    HW269098   0.544   4.045   5.374
89087SOL     OW69099  11.703  12.634  12.666
89087SOL    HW169100  11.641  12.646  12.738
89087SOL    HW269101  11.725  12.723  12.637
89088SOL     OW69102  13.682   7.042  10.331
89088SOL    HW169103  13.733   6.990  10.269
89088SOL    HW269104  13.745   7.068  10.398
89089SOL     OW69105   9.462  11.760   8.137
89089SOL    HW169106   9.488  11.778   8.047
89089SOL    HW269107   9.509  11.824   8.190
89090SOL     OW69108   5.620  14.820   6.857
89090SOL    HW169109   5.713  14.836   6.836
89090SOL    HW269110   5.576   0.028   6.832
89091SOL     OW69111   9.611  10.020   0.338
89091SOL    HW169112   9.525  10.031   0.298
89091SOL    HW269113   9.671  10.063   0.277
89092SOL     OW69114   9.700  14.715   9.539
89092SOL    HW169115   9.767  14.667   9.589
89092SOL    HW269116   9.637  14.649   9.514
89093SOL     OW69117   3.058  12.754  13.309
89093SOL    HW169118   3.050  12.708  13.225
89093SOL    HW269119   3.016  12.838  13.295
89094SOL     OW69120   3.009   4.152   1.869
89094SOL    HW169121   3.088   4.114   1.829
89094SOL    HW269122   3.023   4.141   1.963
89095SOL     OW69123   3.851   1.988  13.937
89095SOL    HW169124   3.889   1.971  14.023
89095SOL    HW269125   3.758   1.965  13.947
89096SOL     OW69126  13.827  13.885   4.689
89096SOL    HW169127  13.897  13.825   4.714
89096SOL    HW269128  13.747  13.843   4.720
89097SOL     OW69129  14.076   8.314  12.553
89097SOL    HW169130  14.033   8.344  12.633
89097SOL    HW269131  14.055   8.381  12.488
89098SOL     OW69132   2.151  13.075   0.806
89098SOL    HW169133   2.165  13.144   0.741
89098SOL    HW269134   2.200  13.104   0.883
89099SOL     OW69135   7.505   4.984   9.853
89099SOL    HW169136   7.419   4.983   9.895
89099SOL    HW269137   7.505   5.065   9.802
89100SOL     OW69138   1.151   1.184   2.843
89100SOL    HW169139   1.125   1.276   2.835
89100SOL    HW269140   1.227   1.176   2.786
89101SOL     OW69141  10.801  12.501   7.990
89101SOL    HW169142  10.894  12.500   8.014
89101SOL    HW269143  10.801  12.515   7.895
89102SOL     OW69144   1.479   9.600   8.328
89102SOL    HW169145   1.420   9.589   8.253
89102SOL    HW269146   1.423   9.637   8.396
89103SOL     OW69147   6.608   3.972  11.199
89103SOL    HW169148   6.635   4.063  11.187
89103SOL    HW269149   6.691   3.923  11.205
89104SOL     OW69150   3.619   4.463   9.819
89104SOL    HW169151   3.588   4.401   9.753
89104SOL    HW269152   3.612   4.415   9.902
89105SOL     OW69153  10.493   1.104  11.543
89105SOL    HW169154  10.429   1.034  11.556
89105SOL    HW269155  10.566   1.061  11.497
89106SOL     OW69156   6.516  11.308  13.977
89106SOL    HW169157   6.545  11.241  13.915
89106SOL    HW269158   6.446  11.354  13.933
89107SOL     OW69159   6.291   6.985   8.048
89107SOL    HW169160   6.267   7.076   8.064
89107SOL    HW269161   6.324   6.953   8.132
89108SOL     OW69162  11.401  14.437   5.373
89108SOL    HW169163  11.371  14.400   5.457
89108SOL    HW269164  11.328  14.492   5.344
89109SOL     OW69165   5.628   4.392   3.569
89109SOL    HW169166   5.584   4.309   3.587
89109SOL    HW269167   5.608   4.410   3.477
89110SOL     OW69168   1.706  12.615   9.083
89110SOL    HW169169   1.715  12.687   9.022
89110SOL    HW269170   1.716  12.655   9.170
89111SOL     OW69171  11.844   0.462   0.792
89111SOL    HW169172  11.928   0.496   0.761
89111SOL    HW269173  11.857   0.447   0.886
89112SOL     OW69174   9.046   8.647  11.067
89112SOL    HW169175   9.019   8.588  10.997
89112SOL    HW269176   9.043   8.734  11.027
89113SOL     OW69177  11.544   6.235  10.078
89113SOL    HW169178  11.610   6.178  10.119
89113SOL    HW269179  11.562   6.322  10.115
89114SOL     OW69180   7.516   0.704   5.050
89114SOL    HW169181   7.476   0.768   5.108
89114SOL    HW269182   7.604   0.739   5.032
89115SOL     OW69183  12.657   2.069   4.820
89115SOL    HW169184  12.603   2.124   4.764
89115SOL    HW269185  12.599   2.044   4.892
89116SOL     OW69186   1.408   7.459   3.181
89116SOL    HW169187   1.402   7.364   3.171
89116SOL    HW269188   1.326   7.484   3.223
89117SOL     OW69189  10.751   0.598   4.291
89117SOL    HW169190  10.836   0.625   4.326
89117SOL    HW269191  10.754   0.502   4.292
89118SOL     OW69192   5.253   3.964   9.189
89118SOL    HW169193   5.161   3.966   9.213
89118SOL    HW269194   5.261   3.892   9.127
89119SOL     OW69195  10.675   1.937  13.772
89119SOL    HW169196  10.686   1.861  13.829
89119SOL    HW269197  10.658   2.010  13.831
89120SOL     OW69198  11.702  13.522   7.899
89120SOL    HW169199  11.651  13.549   7.975
89120SOL    HW269200  11.653  13.448   7.862
89121SOL     OW69201   1.556   3.263   7.803
89121SOL    HW169202   1.604   3.231   7.879
89121SOL    HW269203   1.562   3.358   7.808
89122SOL     OW69204   7.173   4.501  14.416
89122SOL    HW169205   7.113   4.476  14.346
89122SOL    HW269206   7.227   4.423  14.430
89123SOL     OW69207   1.791   4.775   5.606
89123SOL    HW169208   1.785   4.682   5.581
89123SOL    HW269209   1.735   4.782   5.684
89124SOL     OW69210  11.286  11.952  10.376
89124SOL    HW169211  11.298  12.000  10.457
89124SOL    HW269212  11.324  11.866  10.392
89125SOL     OW69213  12.547   3.291   2.434
89125SOL    HW169214  12.533   3.312   2.341
89125SOL    HW269215  12.459   3.291   2.472
89126SOL     OW69216   6.581   8.071   7.429
89126SOL    HW169217   6.622   8.117   7.503
89126SOL    HW269218   6.567   7.982   7.462
89127SOL     OW69219   2.189   2.139   2.173
89127SOL    HW169220   2.174   2.152   2.267
89127SOL    HW269221   2.181   2.227   2.135
89128SOL     OW69222   6.172   4.143   7.416
89128SOL    HW169223   6.190   4.068   7.472
89128SOL    HW269224   6.256   4.189   7.410
89129SOL     OW69225   2.044   8.346   9.299
89129SOL    HW169226   2.026   8.363   9.206
89129SOL    HW269227   2.137   8.368   9.309
89130SOL     OW69228  14.706   0.759   0.352
89130SOL    HW169229  14.619   0.757   0.392
89130SOL    HW269230  14.692   0.802   0.267
89131SOL     OW69231   4.175   1.704  10.689
89131SOL    HW169232   4.231   1.726  10.764
89131SOL    HW269233   4.230   1.648  10.634
89132SOL     OW69234   5.579   9.790   0.086
89132SOL    HW169235   5.590   9.862   0.148
89132SOL    HW269236   5.652   9.800   0.025
89133SOL     OW69237   1.811   1.535   1.369
89133SOL    HW169238   1.767   1.616   1.396
89133SOL    HW269239   1.884   1.564   1.315
89134SOL     OW69240   2.257   2.339   9.632
89134SOL    HW169241   2.219   2.256   9.663
89134SOL    HW269242   2.351   2.323   9.630
89135SOL     OW69243   2.033   2.500   8.005
89135SOL    HW169244   2.122   2.529   7.987
89135SOL    HW269245   2.036   2.405   7.993
89136SOL     OW69246   0.403   2.084   1.437
89136SOL    HW169247   0.402   2.176   1.463
89136SOL    HW269248   0.419   2.037   1.519
89137SOL     OW69249   4.007  11.279  11.204
89137SOL    HW169250   3.929  11.226  11.221
89137SOL    HW269251   4.038  11.249  11.119
89138SOL     OW69252  10.224   1.212   6.896
89138SOL    HW169253  10.185   1.132   6.931
89138SOL    HW269254  10.274   1.248   6.970
89139SOL     OW69255   4.610   8.577   5.956
89139SOL    HW169256   4.618   8.604   6.048
89139SOL    HW269257   4.560   8.648   5.915
89140SOL     OW69258   7.795   4.613   7.311
89140SOL    HW169259   7.834   4.677   7.252
89140SOL    HW269260   7.842   4.532   7.294
89141SOL     OW69261   6.489   6.142   7.684
89141SOL    HW169262   6.521   6.161   7.772
89141SOL    HW269263   6.484   6.046   7.680
89142SOL     OW69264   2.439   4.283   7.722
89142SOL    HW169265   2.507   4.329   7.673
89142SOL    HW269266   2.372   4.350   7.737
89143SOL     OW69267  11.177  11.353  14.669
89143SOL    HW169268  11.192  11.448  14.665
89143SOL    HW269269  11.232  11.323  14.742
89144SOL     OW69270   8.009   0.256  10.890
89144SOL    HW169271   8.004   0.186  10.955
89144SOL    HW269272   8.097   0.293  10.901
89145SOL     OW69273   9.465   1.735  12.011
89145SOL    HW169274   9.528   1.748  12.082
89145SOL    HW269275   9.431   1.823  11.993
89146SOL     OW69276   9.816   3.287  12.822
89146SOL    HW169277   9.734   3.245  12.798
89146SOL    HW269278   9.884   3.226  12.795
89147SOL     OW69279   1.065   2.325   8.894
89147SOL    HW169280   1.155   2.353   8.905
89147SOL    HW269281   1.022   2.398   8.849
89148SOL     OW69282  12.332  13.600   9.782
89148SOL    HW169283  12.389  13.525   9.761
89148SOL    HW269284  12.347  13.616   9.875
89149SOL     OW69285   9.763   5.391   8.819
89149SOL    HW169286   9.826   5.350   8.760
89149SOL    HW269287   9.817   5.433   8.886
89150SOL     OW69288   5.259  14.190   7.241
89150SOL    HW169289   5.167  14.204   7.221
89150SOL    HW269290   5.299  14.276   7.228
89151SOL     OW69291   4.064  11.900   4.639
89151SOL    HW169292   4.082  11.993   4.654
89151SOL    HW269293   3.981  11.898   4.591
89152SOL     OW69294   2.508   3.475   0.864
89152SOL    HW169295   2.542   3.492   0.776
89152SOL    HW269296   2.532   3.384   0.881
89153SOL     OW69297  10.861  11.035   5.019
89153SOL    HW169298  10.906  11.019   5.102
89153SOL    HW269299  10.771  11.053   5.044
89154SOL     OW69300  10.927   3.835   0.326
89154SOL    HW169301  11.017   3.817   0.354
89154SOL    HW269302  10.922   3.800   0.238
89155SOL     OW69303   4.970   2.344   7.220
89155SOL    HW169304   4.940   2.392   7.297
89155SOL    HW269305   4.896   2.288   7.195
89156SOL     OW69306   2.148   5.741   9.099
89156SOL    HW169307   2.123   5.818   9.150
89156SOL    HW269308   2.173   5.676   9.165
89157SOL     OW69309   4.969   9.511   1.915
89157SOL    HW169310   4.893   9.455   1.895
89157SOL    HW269311   4.997   9.481   2.002
89158SOL     OW69312   7.481   4.312   5.269
89158SOL    HW169313   7.535   4.245   5.310
89158SOL    HW269314   7.537   4.390   5.266
89159SOL     OW69315   6.429   2.953   4.908
89159SOL    HW169316   6.399   2.963   4.818
89159SOL    HW269317   6.391   2.870   4.937
89160SOL     OW69318  11.765   3.270   4.801
89160SOL    HW169319  11.707   3.319   4.858
89160SOL    HW269320  11.838   3.329   4.784
89161SOL     OW69321   2.002   7.743   7.233
89161SOL    HW169322   2.043   7.828   7.220
89161SOL    HW269323   2.031   7.716   7.320
89162SOL     OW69324  10.571  10.437   8.463
89162SOL    HW169325  10.573  10.473   8.374
89162SOL    HW269326  10.478  10.429   8.484
89163SOL     OW69327  10.317   7.634  10.761
89163SOL    HW169328  10.323   7.729  10.767
89163SOL    HW269329  10.339   7.614  10.670
89164SOL     OW69330  12.652  12.685  10.239
89164SOL    HW169331  12.666  12.616  10.304
89164SOL    HW269332  12.714  12.665  10.169
89165SOL     OW69333   1.611   1.813   8.831
89165SOL    HW169334   1.617   1.847   8.920
89165SOL    HW269335   1.517   1.809   8.813
89166SOL     OW69336   7.752   8.737  10.300
89166SOL    HW169337   7.688   8.784  10.246
89166SOL    HW269338   7.837   8.765  10.265
89167SOL     OW69339   7.653   6.470   6.311
89167SOL    HW169340   7.665   6.464   6.216
89167SOL    HW269341   7.733   6.513   6.342
89168SOL     OW69342  10.717  12.374   4.686
89168SOL    HW169343  10.795  12.413   4.724
89168SOL    HW269344  10.748  12.294   4.644
89169SOL     OW69345  13.046   9.052   7.824
89169SOL    HW169346  13.002   9.132   7.795
89169SOL    HW269347  12.981   8.983   7.809
89170SOL     OW69348   9.621   8.770  10.496
89170SOL    HW169349   9.651   8.814  10.416
89170SOL    HW269350   9.585   8.687  10.465
89171SOL     OW69351   7.251  14.799   4.520
89171SOL    HW169352   7.196  14.750   4.581
89171SOL    HW269353   7.270  14.737   4.450
89172SOL     OW69354  14.838   0.138  12.809
89172SOL    HW169355  14.832   0.089  12.892
89172SOL    HW269356  14.752   0.128  12.769
89173SOL     OW69357   2.755   6.651  10.580
89173SOL    HW169358   2.751   6.664  10.675
89173SOL    HW269359   2.814   6.719  10.548
89174SOL     OW69360   5.024   0.798  11.043
89174SOL    HW169361   5.088   0.813  10.974
89174SOL    HW269362   4.971   0.724  11.012
89175SOL     OW69363   5.770   2.858   7.668
89175SOL    HW169364   5.861   2.829   7.665
89175SOL    HW269365   5.732   2.808   7.741
89176SOL     OW69366   9.008   3.114   2.662
89176SOL    HW169367   8.968   3.052   2.724
89176SOL    HW269368   9.042   3.185   2.718
89177SOL     OW69369  12.872  11.464   9.849
89177SOL    HW169370  12.897  11.526   9.780
89177SOL    HW269371  12.814  11.514   9.907
89178SOL     OW69372  11.868   5.848  11.823
89178SOL    HW169373  11.917   5.886  11.896
89178SOL    HW269374  11.828   5.922  11.779
89179SOL     OW69375   1.122  10.357  14.808
89179SOL    HW169376   1.112  10.385   0.025
89179SOL    HW269377   1.208  10.391  14.782
89180SOL     OW69378   3.993   0.153  11.500
89180SOL    HW169379   3.979   0.241  11.463
89180SOL    HW269380   4.075   0.123  11.462
89181SOL     OW69381   7.100   6.147  11.578
89181SOL    HW169382   7.166   6.087  11.543
89181SOL    HW269383   7.146   6.197  11.645
89182SOL     OW69384   6.886   2.485   8.819
89182SOL    HW169385   6.793   2.507   8.811
89182SOL    HW269386   6.907   2.436   8.740
89183SOL     OW69387  12.831   3.800   3.082
89183SOL    HW169388  12.764   3.807   3.150
89183SOL    HW269389  12.789   3.831   3.002
89184SOL     OW69390  10.807   5.175   0.796
89184SOL    HW169391  10.883   5.177   0.738
89184SOL    HW269392  10.843   5.173   0.884
89185SOL     OW69393   3.078   2.502   9.498
89185SOL    HW169394   3.046   2.591   9.514
89185SOL    HW269395   3.091   2.465   9.586
89186SOL     OW69396  14.138  12.622   5.714
89186SOL    HW169397  14.211  12.654   5.767
89186SOL    HW269398  14.138  12.678   5.637
89187SOL     OW69399   1.885   8.218   1.215
89187SOL    HW169400   1.898   8.243   1.307
89187SOL    HW269401   1.967   8.241   1.172
89188SOL     OW69402  13.641   7.427   7.439
89188SOL    HW169403  13.638   7.454   7.530
89188SOL    HW269404  13.631   7.508   7.389
89189SOL     OW69405   5.876   1.881  14.652
89189SOL    HW169406   5.818   1.893  14.727
89189SOL    HW269407   5.949   1.941  14.668
89190SOL     OW69408  11.767   7.885   8.038
89190SOL    HW169409  11.680   7.861   8.070
89190SOL    HW269410  11.797   7.951   8.100
89191SOL     OW69411  14.479  13.469  10.984
89191SOL    HW169412  14.486  13.524  10.906
89191SOL    HW269413  14.569  13.461  11.016
89192SOL     OW69414   8.264   1.949   5.956
89192SOL    HW169415   8.230   1.937   6.044
89192SOL    HW269416   8.274   1.860   5.922
89193SOL     OW69417   0.601   5.859   3.835
89193SOL    HW169418   0.520   5.873   3.786
89193SOL    HW269419   0.648   5.943   3.828
89194SOL     OW69420   8.117   7.064  12.752
89194SOL    HW169421   8.054   7.091  12.819
89194SOL    HW269422   8.132   6.971  12.770
89195SOL     OW69423   5.049  13.066  12.458
89195SOL    HW169424   5.138  13.073  12.424
89195SOL    HW269425   5.011  13.152  12.442
89196SOL     OW69426   8.292  10.366  12.284
89196SOL    HW169427   8.233  10.328  12.349
89196SOL    HW269428   8.308  10.294  12.222
89197SOL     OW69429   3.488  11.615   7.407
89197SOL    HW169430   3.580  11.614   7.381
89197SOL    HW269431   3.490  11.648   7.497
89198SOL     OW69432  10.828   2.810   4.270
89198SOL    HW169433  10.807   2.878   4.206
89198SOL    HW269434  10.856   2.859   4.348
89199SOL     OW69435   6.496  13.015   6.489
89199SOL    HW169436   6.445  13.092   6.516
89199SOL    HW269437   6.459  12.991   6.404
89200SOL     OW69438   0.907   3.019   5.805
89200SOL    HW169439   0.966   3.009   5.880
89200SOL    HW269440   0.956   2.985   5.731
89201SOL     OW69441   0.248   5.522   7.766
89201SOL    HW169442   0.185   5.452   7.784
89201SOL    HW269443   0.305   5.523   7.843
89202SOL     OW69444   1.395  12.330  12.561
89202SOL    HW169445   1.341  12.398  12.520
89202SOL    HW269446   1.471  12.321  12.503
89203SOL     OW69447   0.931  13.062  10.882
89203SOL    HW169448   0.992  13.096  10.948
89203SOL    HW269449   0.987  13.024  10.815
89204SOL     OW69450   7.708  12.016  11.730
89204SOL    HW169451   7.626  11.996  11.686
89204SOL    HW269452   7.708  12.112  11.738
89205SOL     OW69453   1.042   6.605   5.571
89205SOL    HW169454   1.114   6.597   5.508
89205SOL    HW269455   0.991   6.679   5.540
89206SOL     OW69456   6.419   4.757   4.893
89206SOL    HW169457   6.332   4.771   4.930
89206SOL    HW269458   6.467   4.711   4.962
89207SOL     OW69459   4.175  13.108   4.006
89207SOL    HW169460   4.088  13.121   3.969
89207SOL    HW269461   4.193  13.189   4.054
89208SOL     OW69462   1.744   2.163   5.965
89208SOL    HW169463   1.765   2.255   5.979
89208SOL    HW269464   1.649   2.159   5.973
89209SOL     OW69465  11.557   1.835   5.942
89209SOL    HW169466  11.481   1.844   5.998
89209SOL    HW269467  11.568   1.921   5.902
89210SOL     OW69468  12.302  12.212   4.336
89210SOL    HW169469  12.336  12.263   4.262
89210SOL    HW269470  12.207  12.224   4.331
89211SOL     OW69471  10.559  13.175   3.519
89211SOL    HW169472  10.606  13.249   3.557
89211SOL    HW269473  10.473  13.176   3.562
89212SOL     OW69474   1.511  12.210  11.343
89212SOL    HW169475   1.483  12.120  11.360
89212SOL    HW269476   1.431  12.262  11.353
89213SOL     OW69477   8.277   7.205   5.223
89213SOL    HW169478   8.262   7.111   5.214
89213SOL    HW269479   8.191   7.244   5.213
89214SOL     OW69480   8.018   7.366   2.246
89214SOL    HW169481   8.067   7.301   2.195
89214SOL    HW269482   8.017   7.444   2.191
89215SOL     OW69483  13.647   9.410  12.643
89215SOL    HW169484  13.564   9.382  12.681
89215SOL    HW269485  13.694   9.328  12.626
89216SOL     OW69486   5.322   0.873   0.496
89216SOL    HW169487   5.243   0.926   0.482
89216SOL    HW269488   5.373   0.922   0.560
89217SOL     OW69489   3.363   5.110   4.609
89217SOL    HW169490   3.419   5.078   4.680
89217SOL    HW269491   3.283   5.058   4.615
89218SOL     OW69492   8.146   8.770   1.131
89218SOL    HW169493   8.061   8.799   1.097
89218SOL    HW269494   8.210   8.803   1.068
89219SOL     OW69495   2.632   3.356   2.489
89219SOL    HW169496   2.683   3.401   2.421
89219SOL    HW269497   2.581   3.426   2.531
89220SOL     OW69498   7.178   8.150  13.630
89220SOL    HW169499   7.157   8.116  13.543
89220SOL    HW269500   7.094   8.152  13.676
89221SOL     OW69501  10.527  12.738  10.439
89221SOL    HW169502  10.460  12.739  10.507
89221SOL    HW269503  10.479  12.748  10.357
89222SOL     OW69504   0.487   5.485   4.023
89222SOL    HW169505   0.476   5.422   4.095
89222SOL    HW269506   0.581   5.487   4.007
89223SOL     OW69507   9.328   1.649   4.103
89223SOL    HW169508   9.339   1.619   4.193
89223SOL    HW269509   9.241   1.688   4.101
89224SOL     OW69510   8.032  11.696   1.414
89224SOL    HW169511   8.089  11.687   1.490
89224SOL    HW269512   7.998  11.786   1.420
89225SOL     OW69513   7.164   9.235  13.927
89225SOL    HW169514   7.120   9.319  13.922
89225SOL    HW269515   7.249   9.254  13.965
89226SOL     OW69516   2.514   6.933  11.949
89226SOL    HW169517   2.462   7.009  11.976
89226SOL    HW269518   2.532   6.887  12.031
89227SOL     OW69519   5.841   0.116  11.866
89227SOL    HW169520   5.852   0.059  11.941
89227SOL    HW269521   5.926   0.158  11.854
89228SOL     OW69522  10.360  11.912  14.119
89228SOL    HW169523  10.364  11.984  14.181
89228SOL    HW269524  10.362  11.833  14.174
89229SOL     OW69525   8.780   6.410  11.195
89229SOL    HW169526   8.795   6.377  11.283
89229SOL    HW269527   8.797   6.504  11.201
89230SOL     OW69528  10.211   1.570   5.016
89230SOL    HW169529  10.241   1.528   4.936
89230SOL    HW269530  10.264   1.531   5.086
89231SOL     OW69531   7.424   3.174   1.450
89231SOL    HW169532   7.330   3.164   1.437
89231SOL    HW269533   7.438   3.268   1.455
89232SOL     OW69534   4.548   5.551   1.470
89232SOL    HW169535   4.468   5.578   1.515
89232SOL    HW269536   4.546   5.598   1.386
89233SOL     OW69537  11.983   5.544   1.540
89233SOL    HW169538  11.931   5.482   1.489
89233SOL    HW269539  12.012   5.494   1.616
89234SOL     OW69540  14.686   9.316   8.163
89234SOL    HW169541  14.625   9.375   8.206
89234SOL    HW269542  14.732   9.273   8.235
89235SOL     OW69543  14.151  12.457   6.756
89235SOL    HW169544  14.137  12.504   6.838
89235SOL    HW269545  14.079  12.395   6.750
89236SOL     OW69546  11.665   5.903   9.077
89236SOL    HW169547  11.605   5.942   9.014
89236SOL    HW269548  11.663   5.810   9.058
89237SOL     OW69549  12.517   1.855   7.538
89237SOL    HW169550  12.434   1.885   7.574
89237SOL    HW269551  12.559   1.936   7.507
89238SOL     OW69552   0.949   9.994   4.444
89238SOL    HW169553   0.887  10.028   4.509
89238SOL    HW269554   1.034   9.997   4.488
89239SOL     OW69555   4.159   2.302   3.603
89239SOL    HW169556   4.196   2.367   3.543
89239SOL    HW269557   4.066   2.322   3.608
89240SOL     OW69558  10.483   6.255   7.735
89240SOL    HW169559  10.564   6.206   7.749
89240SOL    HW269560  10.457   6.284   7.823
89241SOL     OW69561   8.338   9.665   1.795
89241SOL    HW169562   8.367   9.756   1.797
89241SOL    HW269563   8.395   9.623   1.731
89242SOL     OW69564   1.274  13.622   6.125
89242SOL    HW169565   1.268  13.717   6.129
89242SOL    HW269566   1.231  13.599   6.042
89243SOL     OW69567  14.005   6.176  12.574
89243SOL    HW169568  13.909   6.187  12.578
89243SOL    HW269569  14.022   6.101  12.631
89244SOL     OW69570  13.624  11.062   4.343
89244SOL    HW169571  13.560  11.023   4.402
89244SOL    HW269572  13.602  11.028   4.256
89245SOL     OW69573   3.792   2.124  13.551
89245SOL    HW169574   3.793   2.210  13.510
89245SOL    HW269575   3.823   2.140  13.640
89246SOL     OW69576  12.653   6.219  10.892
89246SOL    HW169577  12.661   6.270  10.973
89246SOL    HW269578  12.578   6.162  10.907
89247SOL     OW69579   5.255   6.656   2.518
89247SOL    HW169580   5.339   6.693   2.546
89247SOL    HW269581   5.194   6.729   2.524
89248SOL     OW69582   9.917  12.308   7.462
89248SOL    HW169583   9.837  12.256   7.454
89248SOL    HW269584   9.897  12.390   7.417
89249SOL     OW69585   8.108   6.716  11.776
89249SOL    HW169586   8.064   6.745  11.856
89249SOL    HW269587   8.103   6.791  11.717
89250SOL     OW69588  11.002   7.348   8.791
89250SOL    HW169589  10.957   7.299   8.860
89250SOL    HW269590  10.999   7.290   8.715
89251SOL     OW69591   5.654   8.831   7.973
89251SOL    HW169592   5.741   8.864   7.954
89251SOL    HW269593   5.605   8.841   7.891
89252SOL     OW69594   3.558  13.563  12.130
89252SOL    HW169595   3.499  13.585  12.058
89252SOL    HW269596   3.519  13.486  12.172
89253SOL     OW69597   9.915   4.004   0.014
89253SOL    HW169598   9.870   3.965   0.089
89253SOL    HW269599   9.943   4.090   0.046
89254SOL     OW69600   8.465   4.087  10.344
89254SOL    HW169601   8.417   4.005  10.349
89254SOL    HW269602   8.553   4.062  10.317
89255SOL     OW69603   7.410   5.525   2.630
89255SOL    HW169604   7.470   5.459   2.666
89255SOL    HW269605   7.431   5.527   2.537
89256SOL     OW69606  12.686  11.780   2.835
89256SOL    HW169607  12.623  11.724   2.879
89256SOL    HW269608  12.641  11.810   2.756
89257SOL     OW69609   7.145  11.369   5.362
89257SOL    HW169610   7.111  11.289   5.323
89257SOL    HW269611   7.136  11.356   5.456
89258SOL     OW69612   0.878  10.372  11.044
89258SOL    HW169613   0.832  10.404  10.967
89258SOL    HW269614   0.952  10.431  11.054
89259SOL     OW69615  10.618   2.557   5.620
89259SOL    HW169616  10.539   2.525   5.577
89259SOL    HW269617  10.632   2.645   5.585
89260SOL     OW69618   4.261   5.294   2.499
89260SOL    HW169619   4.356   5.287   2.490
89260SOL    HW269620   4.244   5.274   2.591
89261SOL     OW69621  12.387   6.378   5.463
89261SOL    HW169622  12.316   6.442   5.477
89261SOL    HW269623  12.407   6.385   5.370
89262SOL     OW69624  13.120   1.419   5.927
89262SOL    HW169625  13.112   1.406   5.832
89262SOL    HW269626  13.163   1.504   5.935
89263SOL     OW69627   2.393   8.701  13.572
89263SOL    HW169628   2.331   8.752  13.625
89263SOL    HW269629   2.479   8.727  13.604
89264SOL     OW69630   9.019   8.755  12.280
89264SOL    HW169631   8.977   8.737  12.364
89264SOL    HW269632   9.064   8.673  12.258
89265SOL     OW69633   7.173  10.900   5.569
89265SOL    HW169634   7.092  10.908   5.620
89265SOL    HW269635   7.192  10.806   5.570
89266SOL     OW69636   1.365  12.689   2.329
89266SOL    HW169637   1.316  12.727   2.255
89266SOL    HW269638   1.457  12.707   2.309
89267SOL     OW69639   7.774   8.986  11.216
89267SOL    HW169640   7.724   8.918  11.260
89267SOL    HW269641   7.813   8.942  11.141
89268SOL     OW69642  13.281  11.586   4.547
89268SOL    HW169643  13.285  11.496   4.515
89268SOL    HW269644  13.306  11.580   4.639
89269SOL     OW69645   4.068  12.417   2.775
89269SOL    HW169646   3.987  12.402   2.727
89269SOL    HW269647   4.114  12.484   2.724
89270SOL     OW69648   6.152   0.620   2.623
89270SOL    HW169649   6.089   0.550   2.606
89270SOL    HW269650   6.170   0.613   2.717
89271SOL     OW69651   3.320   5.124  10.119
89271SOL    HW169652   3.253   5.081  10.065
89271SOL    HW269653   3.403   5.090  10.086
89272SOL     OW69654  14.095  12.422  13.522
89272SOL    HW169655  14.055  12.465  13.597
89272SOL    HW269656  14.161  12.484  13.491
89273SOL     OW69657   2.823  14.593   4.429
89273SOL    HW169658   2.893  14.656   4.445
89273SOL    HW269659   2.867  14.517   4.389
89274SOL     OW69660   2.890  11.453   3.772
89274SOL    HW169661   2.909  11.385   3.708
89274SOL    HW269662   2.908  11.411   3.857
89275SOL     OW69663  10.154  11.979  14.728
89275SOL    HW169664  10.214  12.052  14.712
89275SOL    HW269665  10.185  11.940  14.810
89276SOL     OW69666   6.489   0.380   1.461
89276SOL    HW169667   6.490   0.427   1.378
89276SOL    HW269668   6.448   0.441   1.522
89277SOL     OW69669   2.542   5.701   9.997
89277SOL    HW169670   2.530   5.680   9.904
89277SOL    HW269671   2.556   5.795   9.999
89278SOL     OW69672   8.279   3.094  14.179
89278SOL    HW169673   8.185   3.100  14.198
89278SOL    HW269674   8.286   3.107  14.085
89279SOL     OW69675   4.097   2.245   9.493
89279SOL    HW169676   4.066   2.175   9.549
89279SOL    HW269677   4.184   2.267   9.527
89280SOL     OW69678   3.745   4.701   1.408
89280SOL    HW169679   3.654   4.730   1.404
89280SOL    HW269680   3.794   4.770   1.362
89281SOL     OW69681   5.770   4.101  13.998
89281SOL    HW169682   5.775   4.084  13.904
89281SOL    HW269683   5.690   4.153  14.009
89282SOL     OW69684   0.061   0.362   2.993
89282SOL    HW169685   0.070   0.289   3.054
89282SOL    HW269686  14.845   0.356   2.961
89283SOL     OW69687   7.151   1.452   8.356
89283SOL    HW169688   7.129   1.539   8.323
89283SOL    HW269689   7.211   1.416   8.291
89284SOL     OW69690   7.286   9.645  12.150
89284SOL    HW169691   7.356   9.594  12.192
89284SOL    HW269692   7.206   9.613  12.192
89285SOL     OW69693   8.076  12.740   2.075
89285SOL    HW169694   8.047  12.715   2.163
89285SOL    HW269695   8.064  12.835   2.072
89286SOL     OW69696   3.044   7.074   5.600
89286SOL    HW169697   3.040   7.035   5.687
89286SOL    HW269698   3.060   7.167   5.617
89287SOL     OW69699   0.471  12.073   6.260
89287SOL    HW169700   0.429  12.154   6.231
89287SOL    HW269701   0.472  12.017   6.182
89288SOL     OW69702   6.297   6.873   7.433
89288SOL    HW169703   6.389   6.888   7.452
89288SOL    HW269704   6.264   6.958   7.404
89289SOL     OW69705   6.621  14.422   7.607
89289SOL    HW169706   6.688  14.384   7.663
89289SOL    HW269707   6.601  14.507   7.647
89290SOL     OW69708  10.596   2.682   9.335
89290SOL    HW169709  10.502   2.694   9.349
89290SOL    HW269710  10.605   2.589   9.312
89291SOL     OW69711  12.993   2.270  10.241
89291SOL    HW169712  13.046   2.240  10.316
89291SOL    HW269713  13.048   2.252  10.165
89292SOL     OW69714   1.126   8.344  10.757
89292SOL    HW169715   1.139   8.408  10.688
89292SOL    HW269716   1.032   8.324  10.754
89293SOL     OW69717   3.873   2.526   9.971
89293SOL    HW169718   3.893   2.459   9.905
89293SOL    HW269719   3.779   2.518   9.985
89294SOL     OW69720  13.288   4.944   4.063
89294SOL    HW169721  13.200   4.917   4.092
89294SOL    HW269722  13.273   5.026   4.016
89295SOL     OW69723   5.884   9.561  14.731
89295SOL    HW169724   5.811   9.518  14.775
89295SOL    HW269725   5.869   9.545  14.638
89296SOL     OW69726   8.592   3.598   8.133
89296SOL    HW169727   8.547   3.647   8.063
89296SOL    HW269728   8.524   3.540   8.168
89297SOL     OW69729   8.245   3.449  12.042
89297SOL    HW169730   8.214   3.370  11.997
89297SOL    HW269731   8.189   3.456  12.119
89298SOL     OW69732   1.209   2.654  11.947
89298SOL    HW169733   1.229   2.560  11.953
89298SOL    HW269734   1.113   2.658  11.953
89299SOL     OW69735  11.952  13.873   4.693
89299SOL    HW169736  12.033  13.916   4.666
89299SOL    HW269737  11.975  13.828   4.774
89300SOL     OW69738   1.683   9.788   6.492
89300SOL    HW169739   1.764   9.799   6.443
89300SOL    HW269740   1.703   9.723   6.559
89301SOL     OW69741  14.444   0.228   5.669
89301SOL    HW169742  14.374   0.181   5.625
89301SOL    HW269743  14.415   0.235   5.760
89302SOL     OW69744   3.577   3.377   0.249
89302SOL    HW169745   3.527   3.387   0.330
89302SOL    HW269746   3.650   3.438   0.258
89303SOL     OW69747   0.606  10.991  12.954
89303SOL    HW169748   0.662  11.066  12.976
89303SOL    HW269749   0.564  11.015  12.872
89304SOL     OW69750   3.059   9.533  14.454
89304SOL    HW169751   3.043   9.463  14.517
89304SOL    HW269752   2.978   9.584  14.454
89305SOL     OW69753   8.863  11.462  13.777
89305SOL    HW169754   8.843  11.505  13.861
89305SOL    HW269755   8.887  11.534  13.719
89306SOL     OW69756  14.367   7.249  12.867
89306SOL    HW169757  14.274   7.227  12.871
89306SOL    HW269758  14.409   7.188  12.927
89307SOL     OW69759   2.100   9.213   5.925
89307SOL    HW169760   2.012   9.197   5.893
89307SOL    HW269761   2.158   9.176   5.859
89308SOL     OW69762  14.237   0.625   4.056
89308SOL    HW169763  14.261   0.702   4.107
89308SOL    HW269764  14.142   0.632   4.045
89309SOL     OW69765  13.769   5.803   8.651
89309SOL    HW169766  13.713   5.864   8.698
89309SOL    HW269767  13.726   5.718   8.661
89310SOL     OW69768   5.977   0.216   7.483
89310SOL    HW169769   6.010   0.255   7.564
89310SOL    HW269770   6.055   0.183   7.438
89311SOL     OW69771   2.113  13.434   0.418
89311SOL    HW169772   2.062  13.489   0.358
89311SOL    HW269773   2.184  13.491   0.448
89312SOL     OW69774   7.420  10.171   9.256
89312SOL    HW169775   7.428  10.076   9.260
89312SOL    HW269776   7.506  10.201   9.225
89313SOL     OW69777  13.795   7.423   1.312
89313SOL    HW169778  13.871   7.392   1.361
89313SOL    HW269779  13.720   7.385   1.358
89314SOL     OW69780  12.641  10.328   0.373
89314SOL    HW169781  12.688  10.306   0.293
89314SOL    HW269782  12.685  10.406   0.407
89315SOL     OW69783   9.129   7.756  12.939
89315SOL    HW169784   9.044   7.799  12.937
89315SOL    HW269785   9.108   7.663  12.946
89316SOL     OW69786   6.301   1.033   2.187
89316SOL    HW169787   6.222   1.018   2.240
89316SOL    HW269788   6.369   1.053   2.251
89317SOL     OW69789   4.932   2.833   7.681
89317SOL    HW169790   4.907   2.770   7.749
89317SOL    HW269791   4.993   2.892   7.725
89318SOL     OW69792   9.022  10.621  13.613
89318SOL    HW169793   8.951  10.585  13.561
89318SOL    HW269794   8.980  10.689  13.667
89319SOL     OW69795   9.117  12.288  12.466
89319SOL    HW169796   9.035  12.297  12.418
89319SOL    HW269797   9.177  12.246  12.404
89320SOL     OW69798   5.379  12.825   3.303
89320SOL    HW169799   5.462  12.857   3.268
89320SOL    HW269800   5.404  12.775   3.381
89321SOL     OW69801   7.179   5.147  13.290
89321SOL    HW169802   7.193   5.191  13.206
89321SOL    HW269803   7.195   5.055  13.273
89322SOL     OW69804   2.806   2.031   2.750
89322SOL    HW169805   2.893   1.999   2.726
89322SOL    HW269806   2.754   1.952   2.764
89323SOL     OW69807  13.571   1.487   5.517
89323SOL    HW169808  13.638   1.523   5.459
89323SOL    HW269809  13.620   1.436   5.582
89324SOL     OW69810  12.119  14.325   6.247
89324SOL    HW169811  12.033  14.360   6.270
89324SOL    HW269812  12.181  14.376   6.300
89325SOL     OW69813  10.469  12.731   0.743
89325SOL    HW169814  10.511  12.712   0.827
89325SOL    HW269815  10.522  12.683   0.679
89326SOL     OW69816   9.303   3.753   1.642
89326SOL    HW169817   9.374   3.759   1.706
89326SOL    HW269818   9.321   3.672   1.594
89327SOL     OW69819  14.677  11.648   2.924
89327SOL    HW169820  14.630  11.586   2.868
89327SOL    HW269821  14.739  11.692   2.865
89328SOL     OW69822  12.314   1.805   9.620
89328SOL    HW169823  12.391   1.796   9.676
89328SOL    HW269824  12.296   1.899   9.621
89329SOL     OW69825   0.234  11.801   1.837
89329SOL    HW169826   0.173  11.737   1.800
89329SOL    HW269827   0.320  11.768   1.813
89330SOL     OW69828   1.104   8.164   8.524
89330SOL    HW169829   1.128   8.073   8.541
89330SOL    HW269830   1.071   8.164   8.435
89331SOL     OW69831  11.198   5.712   9.564
89331SOL    HW169832  11.189   5.789   9.620
89331SOL    HW269833  11.114   5.705   9.518
89332SOL     OW69834   7.415   5.255   4.829
89332SOL    HW169835   7.337   5.221   4.785
89332SOL    HW269836   7.381   5.306   4.903
89333SOL     OW69837   1.057  14.191  13.375
89333SOL    HW169838   1.035  14.228  13.289
89333SOL    HW269839   1.022  14.102  13.372
89334SOL     OW69840   3.423  13.935   4.396
89334SOL    HW169841   3.503  13.985   4.380
89334SOL    HW269842   3.374  13.989   4.458
89335SOL     OW69843  12.247  13.290  13.305
89335SOL    HW169844  12.293  13.349  13.246
89335SOL    HW269845  12.154  13.311  13.294
89336SOL     OW69846   7.721  11.197  10.506
89336SOL    HW169847   7.677  11.234  10.430
89336SOL    HW269848   7.737  11.272  10.563
89337SOL     OW69849   4.632   5.902  14.502
89337SOL    HW169850   4.666   5.978  14.549
89337SOL    HW269851   4.705   5.839  14.504
89338SOL     OW69852  14.849   6.533   7.933
89338SOL    HW169853   0.065   6.541   7.963
89338SOL    HW269854  14.805   6.486   8.003
89339SOL     OW69855   0.055   6.711  11.514
89339SOL    HW169856  14.835   6.713  11.498
89339SOL    HW269857   0.092   6.668  11.437
89340SOL     OW69858   8.880   9.033  14.317
89340SOL    HW169859   8.889   8.951  14.269
89340SOL    HW269860   8.802   9.021  14.371
89341SOL     OW69861  13.164   2.381   5.423
89341SOL    HW169862  13.068   2.378   5.421
89341SOL    HW269863  13.185   2.428   5.503
89342SOL     OW69864   5.412   8.994  12.525
89342SOL    HW169865   5.496   8.982  12.569
89342SOL    HW269866   5.427   9.065  12.462
89343SOL     OW69867   7.927   9.897   5.097
89343SOL    HW169868   7.939   9.842   5.174
89343SOL    HW269869   7.925   9.987   5.131
89344SOL     OW69870   9.834  14.072   2.411
89344SOL    HW169871   9.745  14.087   2.379
89344SOL    HW269872   9.823  14.057   2.505
89345SOL     OW69873   8.429   7.578   2.340
89345SOL    HW169874   8.453   7.486   2.346
89345SOL    HW269875   8.400   7.602   2.428
89346SOL     OW69876  10.036   1.333  11.791
89346SOL    HW169877   9.973   1.355  11.722
89346SOL    HW269878  10.116   1.379  11.765
89347SOL     OW69879   5.466   8.178   2.384
89347SOL    HW169880   5.479   8.207   2.474
89347SOL    HW269881   5.495   8.086   2.384
89348SOL     OW69882  12.555   2.541  13.252
89348SOL    HW169883  12.469   2.546  13.209
89348SOL    HW269884  12.608   2.605  13.206
89349SOL     OW69885   3.894   1.820   9.073
89349SOL    HW169886   3.827   1.779   9.018
89349SOL    HW269887   3.864   1.910   9.086
89350SOL     OW69888   2.947   8.997  13.722
89350SOL    HW169889   3.021   8.991  13.661
89350SOL    HW269890   2.950   8.914  13.770
89351SOL     OW69891   0.254   5.858   1.400
89351SOL    HW169892   0.187   5.846   1.332
89351SOL    HW269893   0.250   5.778   1.452
89352SOL     OW69894  11.811  12.234   4.892
89352SOL    HW169895  11.721  12.219   4.920
89352SOL    HW269896  11.865  12.205   4.967
89353SOL     OW69897   3.759   4.692   6.008
89353SOL    HW169898   3.791   4.638   5.935
89353SOL    HW269899   3.764   4.781   5.975
89354SOL     OW69900   1.221   4.952  11.729
89354SOL    HW169901   1.297   4.984  11.779
89354SOL    HW269902   1.215   5.011  11.654
89355SOL     OW69903   6.053  13.998   2.096
89355SOL    HW169904   6.130  13.969   2.145
89355SOL    HW269905   6.029  13.922   2.043
89356SOL     OW69906   7.167   9.492   3.817
89356SOL    HW169907   7.161   9.425   3.749
89356SOL    HW269908   7.233   9.458   3.879
89357SOL     OW69909   8.510  13.802  10.733
89357SOL    HW169910   8.543  13.788  10.821
89357SOL    HW269911   8.510  13.897  10.722
89358SOL     OW69912   6.543   3.036   8.601
89358SOL    HW169913   6.553   2.976   8.527
89358SOL    HW269914   6.459   3.079   8.586
89359SOL     OW69915  14.065   0.072  11.932
89359SOL    HW169916  13.979   0.100  11.900
89359SOL    HW269917  14.045   0.020  12.010
89360SOL     OW69918  14.074   1.910  13.632
89360SOL    HW169919  14.073   1.987  13.575
89360SOL    HW269920  14.152   1.861  13.605
89361SOL     OW69921  12.295   6.012  10.697
89361SOL    HW169922  12.335   6.004  10.783
89361SOL    HW269923  12.201   6.024  10.714
89362SOL     OW69924   4.755   8.054   7.395
89362SOL    HW169925   4.676   8.000   7.395
89362SOL    HW269926   4.814   8.010   7.335
89363SOL     OW69927  10.394   2.676   4.182
89363SOL    HW169928  10.411   2.623   4.105
89363SOL    HW269929  10.393   2.613   4.255
89364SOL     OW69930  14.183  10.431   9.857
89364SOL    HW169931  14.133  10.509   9.881
89364SOL    HW269932  14.249  10.463   9.796
89365SOL     OW69933  13.018   9.258  10.689
89365SOL    HW169934  13.001   9.175  10.644
89365SOL    HW269935  13.073   9.234  10.764
89366SOL     OW69936   1.721  10.948   8.886
89366SOL    HW169937   1.754  11.038   8.889
89366SOL    HW269938   1.773  10.905   8.819
89367SOL     OW69939   9.830   8.627   1.684
89367SOL    HW169940   9.735   8.625   1.668
89367SOL    HW269941   9.863   8.693   1.624
89368SOL     OW69942   0.840   9.461   5.233
89368SOL    HW169943   0.788   9.536   5.203
89368SOL    HW269944   0.825   9.394   5.166
89369SOL     OW69945   3.876   3.571   2.798
89369SOL    HW169946   3.964   3.562   2.836
89369SOL    HW269947   3.833   3.487   2.818
89370SOL     OW69948  13.959   4.262  10.180
89370SOL    HW169949  14.023   4.192  10.197
89370SOL    HW269950  13.880   4.234  10.227
89371SOL     OW69951   9.271   4.227   0.219
89371SOL    HW169952   9.360   4.238   0.185
89371SOL    HW269953   9.215   4.238   0.143
89372SOL     OW69954   2.422   4.532   9.541
89372SOL    HW169955   2.417   4.438   9.558
89372SOL    HW269956   2.425   4.540   9.446
89373SOL     OW69957   6.507   3.776   1.230
89373SOL    HW169958   6.561   3.852   1.207
89373SOL    HW269959   6.555   3.732   1.299
89374SOL     OW69960   3.081   6.942  11.844
89374SOL    HW169961   3.095   6.950  11.939
89374SOL    HW269962   3.030   7.019  11.821
89375SOL     OW69963   9.551  14.503  11.995
89375SOL    HW169964   9.475  14.560  11.981
89375SOL    HW269965   9.625  14.552  11.958
89376SOL     OW69966   8.064   0.323   1.875
89376SOL    HW169967   8.035   0.343   1.964
89376SOL    HW269968   7.997   0.263   1.842
89377SOL     OW69969  11.133  12.834   5.217
89377SOL    HW169970  11.044  12.863   5.199
89377SOL    HW269971  11.183  12.862   5.141
89378SOL     OW69972   8.403  10.850   6.626
89378SOL    HW169973   8.491  10.847   6.664
89378SOL    HW269974   8.406  10.788   6.553
89379SOL     OW69975  12.184   2.564   1.509
89379SOL    HW169976  12.114   2.621   1.477
89379SOL    HW269977  12.261   2.620   1.515
89380SOL     OW69978   9.122   2.152   1.889
89380SOL    HW169979   9.055   2.184   1.949
89380SOL    HW269980   9.154   2.071   1.929
89381SOL     OW69981  12.704   0.543   0.078
89381SOL    HW169982  12.687   0.471   0.139
89381SOL    HW269983  12.666   0.514  14.869
89382SOL     OW69984   5.541   3.768   6.640
89382SOL    HW169985   5.523   3.859   6.660
89382SOL    HW269986   5.587   3.770   6.556
89383SOL     OW69987   9.127  10.503  14.413
89383SOL    HW169988   9.052  10.443  14.421
89383SOL    HW269989   9.088  10.590  14.405
89384SOL     OW69990   3.297   0.174   8.105
89384SOL    HW169991   3.322   0.265   8.120
89384SOL    HW269992   3.214   0.163   8.152
89385SOL     OW69993  13.237   1.940  13.661
89385SOL    HW169994  13.287   1.893  13.727
89385SOL    HW269995  13.195   2.011  13.710
89386SOL     OW69996   4.190   3.438   2.113
89386SOL    HW169997   4.144   3.385   2.178
89386SOL    HW269998   4.250   3.377   2.071
89387SOL     OW69999  10.065   4.120   9.405
89387SOL    HW170000  10.095   4.141   9.317
89387SOL    HW270001   9.973   4.144   9.406
89388SOL     OW70002   2.920   0.469   4.167
89388SOL    HW170003   2.862   0.470   4.091
89388SOL    HW270004   2.960   0.382   4.166
89389SOL     OW70005  12.305  14.836  11.861
89389SOL    HW170006  12.218  14.872  11.843
89389SOL    HW270007  12.312  14.760  11.803
89390SOL     OW70008   4.245   0.374   3.174
89390SOL    HW170009   4.334   0.409   3.176
89390SOL    HW270010   4.241   0.312   3.247
89391SOL     OW70011  12.261   8.715   9.421
89391SOL    HW170012  12.202   8.665   9.477
89391SOL    HW270013  12.328   8.651   9.396
89392SOL     OW70014   8.574  13.196  10.345
89392SOL    HW170015   8.479  13.204  10.341
89392SOL    HW270016   8.607  13.284  10.325
89393SOL     OW70017   2.363   9.481  11.367
89393SOL    HW170018   2.423   9.468  11.440
89393SOL    HW270019   2.412   9.534  11.304
89394SOL     OW70020   4.865   1.783   7.638
89394SOL    HW170021   4.776   1.803   7.669
89394SOL    HW270022   4.920   1.851   7.677
89395SOL     OW70023   5.212  11.634   4.510
89395SOL    HW170024   5.123  11.611   4.483
89395SOL    HW270025   5.250  11.551   4.540
89396SOL     OW70026   8.571   8.226  14.238
89396SOL    HW170027   8.655   8.187  14.213
89396SOL    HW270028   8.581   8.319  14.219
89397SOL     OW70029   0.288   9.956  11.565
89397SOL    HW170030   0.381   9.964  11.588
89397SOL    HW270031   0.287   9.907  11.483
89398SOL     OW70032   9.322   7.035   5.751
89398SOL    HW170033   9.371   6.966   5.796
89398SOL    HW270034   9.245   6.991   5.717
89399SOL     OW70035   8.840   2.312   6.888
89399SOL    HW170036   8.767   2.260   6.923
89399SOL    HW270037   8.863   2.268   6.806
89400SOL     OW70038   7.422   2.485   4.906
89400SOL    HW170039   7.335   2.463   4.875
89400SOL    HW270040   7.463   2.530   4.832
89401SOL     OW70041   9.607   9.222  13.806
89401SOL    HW170042   9.666   9.167  13.753
89401SOL    HW270043   9.654   9.234  13.889
89402SOL     OW70044   7.215   8.870  11.675
89402SOL    HW170045   7.162   8.925  11.618
89402SOL    HW270046   7.180   8.782  11.662
89403SOL     OW70047   7.382   4.070   4.313
89403SOL    HW170048   7.425   4.155   4.305
89403SOL    HW270049   7.352   4.067   4.404
89404SOL     OW70050  12.138  12.375   4.555
89404SOL    HW170051  12.198  12.440   4.591
89404SOL    HW270052  12.096  12.335   4.632
89405SOL     OW70053   5.538   0.686   7.980
89405SOL    HW170054   5.462   0.728   8.019
89405SOL    HW270055   5.609   0.700   8.043
89406SOL     OW70056   2.414  10.329  11.399
89406SOL    HW170057   2.407  10.277  11.479
89406SOL    HW270058   2.422  10.419  11.430
89407SOL     OW70059  13.925  10.836   5.513
89407SOL    HW170060  13.882  10.753   5.535
89407SOL    HW270061  14.017  10.822   5.539
89408SOL     OW70062   5.798   1.613   8.164
89408SOL    HW170063   5.824   1.700   8.195
89408SOL    HW270064   5.789   1.623   8.069
89409SOL     OW70065   8.508   2.757   9.034
89409SOL    HW170066   8.547   2.786   8.952
89409SOL    HW270067   8.420   2.727   9.010
89410SOL     OW70068  10.104   8.099   4.038
89410SOL    HW170069  10.086   8.075   3.947
89410SOL    HW270070  10.020   8.132   4.071
89411SOL     OW70071  12.271  12.247   9.155
89411SOL    HW170072  12.305  12.279   9.071
89411SOL    HW270073  12.194  12.197   9.132
89412SOL     OW70074  11.737   9.453  14.141
89412SOL    HW170075  11.829   9.429  14.145
89412SOL    HW270076  11.699   9.392  14.078
89413SOL     OW70077   0.949   7.885  13.451
89413SOL    HW170078   1.017   7.832  13.408
89413SOL    HW270079   0.916   7.942  13.381
89414SOL     OW70080  11.389   6.002   2.682
89414SOL    HW170081  11.313   6.018   2.625
89414SOL    HW270082  11.387   5.908   2.699
89415SOL     OW70083  10.137   6.811   6.790
89415SOL    HW170084  10.110   6.874   6.724
89415SOL    HW270085  10.151   6.730   6.741
89416SOL     OW70086   6.303   4.832   5.589
89416SOL    HW170087   6.326   4.751   5.634
89416SOL    HW270088   6.342   4.823   5.502
89417SOL     OW70089   3.944  14.622   6.322
89417SOL    HW170090   3.911  14.575   6.246
89417SOL    HW270091   3.918  14.568   6.397
89418SOL     OW70092   8.705  10.850   7.810
89418SOL    HW170093   8.793  10.826   7.779
89418SOL    HW270094   8.715  10.865   7.903
89419SOL     OW70095   8.404   9.128   7.691
89419SOL    HW170096   8.318   9.145   7.729
89419SOL    HW270097   8.461   9.111   7.766
89420SOL     OW70098   0.398  11.224  13.106
89420SOL    HW170099   0.400  11.130  13.087
89420SOL    HW270100   0.443  11.264  13.032
89421SOL     OW70101   8.189   5.432  14.299
89421SOL    HW170102   8.112   5.401  14.251
89421SOL    HW270103   8.169   5.417  14.391
89422SOL     OW70104   2.769   1.451  11.696
89422SOL    HW170105   2.715   1.431  11.619
89422SOL    HW270106   2.736   1.536  11.727
89423SOL     OW70107   1.057  13.200   2.694
89423SOL    HW170108   1.049  13.210   2.599
89423SOL    HW270109   1.079  13.108   2.707
89424SOL     OW70110  12.719   4.331  12.998
89424SOL    HW170111  12.653   4.268  13.025
89424SOL    HW270112  12.672   4.395  12.945
89425SOL     OW70113   3.033   5.239  10.446
89425SOL    HW170114   3.020   5.308  10.381
89425SOL    HW270115   2.955   5.243  10.502
89426SOL     OW70116  13.936  13.066  11.411
89426SOL    HW170117  13.991  13.047  11.334
89426SOL    HW270118  13.900  13.153  11.394
89427SOL     OW70119   7.291   9.323   0.965
89427SOL    HW170120   7.315   9.231   0.952
89427SOL    HW270121   7.360   9.357   1.022
89428SOL     OW70122  12.496  12.677   1.000
89428SOL    HW170123  12.469  12.721   1.081
89428SOL    HW270124  12.590  12.663   1.011
89429SOL     OW70125   0.593   1.073  14.617
89429SOL    HW170126   0.674   1.073  14.668
89429SOL    HW270127   0.536   1.134  14.664
89430SOL     OW70128   8.327   2.566   6.274
89430SOL    HW170129   8.405   2.519   6.244
89430SOL    HW270130   8.292   2.608   6.195
89431SOL     OW70131   4.571  12.300   6.178
89431SOL    HW170132   4.630  12.233   6.144
89431SOL    HW270133   4.626  12.379   6.185
89432SOL     OW70134   3.394   4.794   1.057
89432SOL    HW170135   3.313   4.801   1.007
89432SOL    HW270136   3.461   4.832   1.000
89433SOL     OW70137   9.705   1.224  12.054
89433SOL    HW170138   9.645   1.273  11.998
89433SOL    HW270139   9.658   1.143  12.075
89434SOL     OW70140   2.110   1.611  12.556
89434SOL    HW170141   2.099   1.562  12.475
89434SOL    HW270142   2.195   1.582  12.590
89435SOL     OW70143  11.719   2.129   5.456
89435SOL    HW170144  11.811   2.104   5.451
89435SOL    HW270145  11.721   2.225   5.458
89436SOL     OW70146   5.483   9.783   2.003
89436SOL    HW170147   5.483   9.756   1.911
89436SOL    HW270148   5.574   9.808   2.021
89437SOL     OW70149  11.611   3.097   8.232
89437SOL    HW170150  11.690   3.130   8.276
89437SOL    HW270151  11.644   3.052   8.155
89438SOL     OW70152   6.580   6.743   3.523
89438SOL    HW170153   6.659   6.751   3.469
89438SOL    HW270154   6.556   6.833   3.545
89439SOL     OW70155   1.436  10.464   9.181
89439SOL    HW170156   1.473  10.392   9.130
89439SOL    HW270157   1.422  10.534   9.117
89440SOL     OW70158  14.049  10.772   4.742
89440SOL    HW170159  14.033  10.727   4.659
89440SOL    HW270160  13.969  10.821   4.759
89441SOL     OW70161   9.286   3.365   1.651
89441SOL    HW170162   9.249   3.284   1.686
89441SOL    HW270163   9.289   3.424   1.725
89442SOL     OW70164  13.034   0.396  12.218
89442SOL    HW170165  13.112   0.414  12.272
89442SOL    HW270166  12.990   0.481  12.212
89443SOL     OW70167   4.838  12.010   0.490
89443SOL    HW170168   4.747  11.986   0.508
89443SOL    HW270169   4.886  11.927   0.493
89444SOL     OW70170  12.621   3.909   1.910
89444SOL    HW170171  12.692   3.973   1.899
89444SOL    HW270172  12.666   3.825   1.919
89445SOL     OW70173   6.604   4.017   8.319
89445SOL    HW170174   6.618   3.927   8.290
89445SOL    HW270175   6.582   4.065   8.238
89446SOL     OW70176   8.288   0.020  10.301
89446SOL    HW170177   8.316   0.090  10.360
89446SOL    HW270178   8.335   0.037  10.220
89447SOL     OW70179  12.050   1.748   1.354
89447SOL    HW170180  12.026   1.812   1.421
89447SOL    HW270181  11.980   1.754   1.289
89448SOL     OW70182   8.392   9.030  12.386
89448SOL    HW170183   8.475   9.043  12.432
89448SOL    HW270184   8.385   9.107  12.329
89449SOL     OW70185   7.713   4.161  11.186
89449SOL    HW170186   7.724   4.098  11.115
89449SOL    HW270187   7.660   4.231  11.148
89450SOL     OW70188   4.434  11.230  11.204
89450SOL    HW170189   4.414  11.322  11.219
89450SOL    HW270190   4.416  11.216  11.111
89451SOL     OW70191  12.389  11.246   1.397
89451SOL    HW170192  12.467  11.226   1.346
89451SOL    HW270193  12.415  11.318   1.455
89452SOL     OW70194  11.735   5.333  12.131
89452SOL    HW170195  11.764   5.377  12.211
89452SOL    HW270196  11.810   5.340  12.072
89453SOL     OW70197   3.543   2.428  11.204
89453SOL    HW170198   3.512   2.480  11.278
89453SOL    HW270199   3.507   2.472  11.127
89454SOL     OW70200   3.496   6.419  14.574
89454SOL    HW170201   3.413   6.372  14.565
89454SOL    HW270202   3.482   6.501  14.527
89455SOL     OW70203  13.198   6.045   0.114
89455SOL    HW170204  13.126   5.985   0.092
89455SOL    HW270205  13.193   6.114   0.047
89456SOL     OW70206  10.844   2.564  14.571
89456SOL    HW170207  10.900   2.511  14.515
89456SOL    HW270208  10.884   2.559  14.658
89457SOL     OW70209  10.015   0.489   7.588
89457SOL    HW170210  10.090   0.453   7.634
89457SOL    HW270211   9.962   0.529   7.656
89458SOL     OW70212   4.214  10.203  11.954
89458SOL    HW170213   4.154  10.221  11.881
89458SOL    HW270214   4.288  10.159  11.913
89459SOL     OW70215  12.931   8.066  12.713
89459SOL    HW170216  13.018   8.036  12.685
89459SOL    HW270217  12.881   7.985  12.727
89460SOL     OW70218   1.737   4.240  12.995
89460SOL    HW170219   1.643   4.221  12.989
89460SOL    HW270220   1.763   4.256  12.904
89461SOL     OW70221  13.394   9.905   5.846
89461SOL    HW170222  13.429   9.816   5.839
89461SOL    HW270223  13.336   9.914   5.771
89462SOL     OW70224   4.185  14.193   5.534
89462SOL    HW170225   4.144  14.224   5.615
89462SOL    HW270226   4.256  14.255   5.517
89463SOL     OW70227  13.815   0.091  13.150
89463SOL    HW170228  13.882   0.068  13.215
89463SOL    HW270229  13.812   0.015  13.092
89464SOL     OW70230   2.167  13.637  14.152
89464SOL    HW170231   2.142  13.725  14.178
89464SOL    HW270232   2.263  13.636  14.158
89465SOL     OW70233   0.737   5.933   6.338
89465SOL    HW170234   0.720   6.025   6.360
89465SOL    HW270235   0.806   5.907   6.398
89466SOL     OW70236   9.793   7.676  11.651
89466SOL    HW170237   9.739   7.659  11.574
89466SOL    HW270238   9.736   7.656  11.725
89467SOL     OW70239  13.097   3.581   4.673
89467SOL    HW170240  13.044   3.511   4.634
89467SOL    HW270241  13.033   3.639   4.715
89468SOL     OW70242  14.855   3.745  11.856
89468SOL    HW170243   0.040   3.820  11.852
89468SOL    HW270244  14.771   3.780  11.828
89469SOL     OW70245   1.794   9.797  13.452
89469SOL    HW170246   1.762   9.733  13.515
89469SOL    HW270247   1.889   9.792  13.458
89470SOL     OW70248  13.555   8.833  12.184
89470SOL    HW170249  13.486   8.892  12.153
89470SOL    HW270250  13.619   8.833  12.113
89471SOL     OW70251   4.901  14.074   5.744
89471SOL    HW170252   4.988  14.089   5.707
89471SOL    HW270253   4.903  14.121   5.828
89472SOL     OW70254   0.232  12.987   4.882
89472SOL    HW170255   0.282  13.017   4.806
89472SOL    HW270256   0.251  12.893   4.888
89473SOL     OW70257   5.490   7.551   9.802
89473SOL    HW170258   5.578   7.520   9.781
89473SOL    HW270259   5.471   7.511   9.887
89474SOL     OW70260   1.625  11.949   0.380
89474SOL    HW170261   1.648  12.040   0.362
89474SOL    HW270262   1.654  11.901   0.302
89475SOL     OW70263  11.702   2.826  11.487
89475SOL    HW170264  11.631   2.870  11.440
89475SOL    HW270265  11.674   2.734  11.490
89476SOL     OW70266   6.068  12.954   9.250
89476SOL    HW170267   6.035  13.043   9.237
89476SOL    HW270268   5.989  12.901   9.259
89477SOL     OW70269   6.124  14.492   0.716
89477SOL    HW170270   6.038  14.508   0.677
89477SOL    HW270271   6.108  14.491   0.810
89478SOL     OW70272  12.179  11.591   6.955
89478SOL    HW170273  12.251  11.557   6.900
89478SOL    HW270274  12.216  11.669   6.997
89479SOL     OW70275   6.599   5.008   3.219
89479SOL    HW170276   6.535   4.961   3.273
89479SOL    HW270277   6.672   4.947   3.211
89480SOL     OW70278  13.420   9.837   0.001
89480SOL    HW170279  13.447   9.890   0.076
89480SOL    HW270280  13.327   9.859  14.863
89481SOL     OW70281  12.303   3.675   5.794
89481SOL    HW170282  12.351   3.653   5.715
89481SOL    HW270283  12.367   3.722   5.848
89482SOL     OW70284   0.690  13.613   2.281
89482SOL    HW170285   0.605  13.577   2.305
89482SOL    HW270286   0.753  13.558   2.327
89483SOL     OW70287   9.302  14.252   4.257
89483SOL    HW170288   9.273  14.263   4.347
89483SOL    HW270289   9.396  14.264   4.260
89484SOL     OW70290  10.612  13.654   8.555
89484SOL    HW170291  10.683  13.589   8.552
89484SOL    HW270292  10.631  13.714   8.483
89485SOL     OW70293  13.301   8.661  11.758
89485SOL    HW170294  13.338   8.595  11.817
89485SOL    HW270295  13.377   8.709  11.725
89486SOL     OW70296  13.377  10.612   1.983
89486SOL    HW170297  13.360  10.532   1.934
89486SOL    HW270298  13.472  10.623   1.978
89487SOL     OW70299   6.282  13.724   4.248
89487SOL    HW170300   6.298  13.662   4.320
89487SOL    HW270301   6.216  13.680   4.194
89488SOL     OW70302   9.295  13.859  10.589
89488SOL    HW170303   9.285  13.913  10.667
89488SOL    HW270304   9.230  13.790  10.600
89489SOL     OW70305   6.244   3.946   7.559
89489SOL    HW170306   6.276   3.957   7.649
89489SOL    HW270307   6.168   3.889   7.568
89490SOL     OW70308   3.097   9.258   4.383
89490SOL    HW170309   3.122   9.233   4.294
89490SOL    HW270310   3.094   9.354   4.381
89491SOL     OW70311   5.344   1.416   6.440
89491SOL    HW170312   5.310   1.354   6.375
89491SOL    HW270313   5.428   1.378   6.466
89492SOL     OW70314  11.927  12.895  10.833
89492SOL    HW170315  11.923  12.801  10.848
89492SOL    HW270316  11.850  12.914  10.780
89493SOL     OW70317  10.362  12.186   0.367
89493SOL    HW170318  10.332  12.223   0.450
89493SOL    HW270319  10.455  12.207   0.363
89494SOL     OW70320  11.133   5.677  10.873
89494SOL    HW170321  11.159   5.626  10.949
89494SOL    HW270322  11.088   5.753  10.909
89495SOL     OW70323  14.538   2.857   3.589
89495SOL    HW170324  14.546   2.950   3.609
89495SOL    HW270325  14.628   2.828   3.573
89496SOL     OW70326   8.041   9.276   8.485
89496SOL    HW170327   7.968   9.302   8.430
89496SOL    HW270328   8.037   9.180   8.488
89497SOL     OW70329  13.033   8.391   8.517
89497SOL    HW170330  13.090   8.315   8.510
89497SOL    HW270331  12.946   8.359   8.495
89498SOL     OW70332   4.183   3.480   6.859
89498SOL    HW170333   4.167   3.504   6.950
89498SOL    HW270334   4.250   3.542   6.830
89499SOL     OW70335  12.993   7.489   0.614
89499SOL    HW170336  13.027   7.577   0.594
89499SOL    HW270337  12.950   7.462   0.532
89500SOL     OW70338   1.008   8.801   2.768
89500SOL    HW170339   0.979   8.889   2.790
89500SOL    HW270340   1.102   8.809   2.753
89501SOL     OW70341   2.421   1.842  12.360
89501SOL    HW170342   2.335   1.873  12.389
89501SOL    HW270343   2.482   1.876  12.425
89502SOL     OW70344   6.215   7.123   8.980
89502SOL    HW170345   6.238   7.185   8.911
89502SOL    HW270346   6.150   7.065   8.940
89503SOL     OW70347  14.329  10.225  14.279
89503SOL    HW170348  14.258  10.263  14.331
89503SOL    HW270349  14.296  10.226  14.189
89504SOL     OW70350   5.603   4.766   5.736
89504SOL    HW170351   5.568   4.699   5.677
89504SOL    HW270352   5.572   4.741   5.823
89505SOL     OW70353  10.059   9.151   7.054
89505SOL    HW170354  10.079   9.116   7.141
89505SOL    HW270355  10.004   9.085   7.013
89506SOL     OW70356  10.816   2.885   7.688
89506SOL    HW170357  10.862   2.846   7.763
89506SOL    HW270358  10.726   2.894   7.717
89507SOL     OW70359  14.536  13.441   3.676
89507SOL    HW170360  14.628  13.415   3.672
89507SOL    HW270361  14.536  13.521   3.729
89508SOL     OW70362   8.493   7.951   5.456
89508SOL    HW170363   8.451   7.920   5.536
89508SOL    HW270364   8.546   7.876   5.427
89509SOL     OW70365  11.401   9.067   4.066
89509SOL    HW170366  11.382   9.068   3.972
89509SOL    HW270367  11.485   9.111   4.074
89510SOL     OW70368   6.679   7.289   8.246
89510SOL    HW170369   6.756   7.261   8.196
89510SOL    HW270370   6.648   7.367   8.201
89511SOL     OW70371   0.264   3.811  12.263
89511SOL    HW170372   0.176   3.793  12.228
89511SOL    HW270373   0.322   3.801  12.187
89512SOL     OW70374   4.231   4.901   0.023
89512SOL    HW170375   4.139   4.892   0.048
89512SOL    HW270376   4.228   4.921  14.804
89513SOL     OW70377  10.154   0.635   6.034
89513SOL    HW170378  10.217   0.693   5.993
89513SOL    HW270379  10.205   0.588   6.100
89514SOL     OW70380  14.475  10.376   8.505
89514SOL    HW170381  14.521  10.330   8.434
89514SOL    HW270382  14.519  10.461   8.510
89515SOL     OW70383  13.631   5.016   4.157
89515SOL    HW170384  13.606   5.107   4.170
89515SOL    HW270385  13.697   5.019   4.087
89516SOL     OW70386  13.858   4.976  12.555
89516SOL    HW170387  13.874   4.944  12.643
89516SOL    HW270388  13.851   5.071  12.565
89517SOL     OW70389   5.312   3.696   2.993
89517SOL    HW170390   5.400   3.659   2.997
89517SOL    HW270391   5.326   3.788   2.974
89518SOL     OW70392  11.298  12.205   5.552
89518SOL    HW170393  11.226  12.171   5.499
89518SOL    HW270394  11.289  12.160   5.636
89519SOL     OW70395   6.767   7.634   6.705
89519SOL    HW170396   6.861   7.645   6.687
89519SOL    HW270397   6.761   7.545   6.740
89520SOL     OW70398  11.213  13.508   5.188
89520SOL    HW170399  11.201  13.518   5.093
89520SOL    HW270400  11.230  13.414   5.199
89521SOL     OW70401  10.534   5.076   4.554
89521SOL    HW170402  10.618   5.118   4.541
89521SOL    HW270403  10.487   5.134   4.615
89522SOL     OW70404   6.816  13.578   2.824
89522SOL    HW170405   6.877  13.540   2.760
89522SOL    HW270406   6.871  13.637   2.876
89523SOL     OW70407   1.984  11.973   1.738
89523SOL    HW170408   2.011  12.065   1.744
89523SOL    HW270409   1.914  11.973   1.673
89524SOL     OW70410  13.526   4.417  11.220
89524SOL    HW170411  13.497   4.431  11.309
89524SOL    HW270412  13.567   4.330  11.221
89525SOL     OW70413   2.808   5.313   8.636
89525SOL    HW170414   2.745   5.350   8.574
89525SOL    HW270415   2.854   5.245   8.587
89526SOL     OW70416   0.900  13.116  11.485
89526SOL    HW170417   0.856  13.152  11.408
89526SOL    HW270418   0.988  13.153  11.481
89527SOL     OW70419  11.523  10.771   4.882
89527SOL    HW170420  11.552  10.680   4.880
89527SOL    HW270421  11.535  10.803   4.793
89528SOL     OW70422   3.077   5.947   0.791
89528SOL    HW170423   3.035   6.028   0.761
89528SOL    HW270424   3.135   5.975   0.861
89529SOL     OW70425  11.454  11.699  11.911
89529SOL    HW170426  11.450  11.652  11.995
89529SOL    HW270427  11.410  11.641  11.849
89530SOL     OW70428   8.802   0.481   2.674
89530SOL    HW170429   8.872   0.461   2.612
89530SOL    HW270430   8.838   0.547   2.732
89531SOL     OW70431   9.915   5.586   5.736
89531SOL    HW170432   9.936   5.549   5.650
89531SOL    HW270433   9.858   5.660   5.717
89532SOL     OW70434   2.204   8.772   3.177
89532SOL    HW170435   2.166   8.720   3.248
89532SOL    HW270436   2.150   8.851   3.172
89533SOL     OW70437  10.481  13.708   4.315
89533SOL    HW170438  10.548  13.640   4.323
89533SOL    HW270439  10.529  13.784   4.281
89534SOL     OW70440  13.120   3.831   6.211
89534SOL    HW170441  13.131   3.876   6.128
89534SOL    HW270442  13.137   3.897   6.277
89535SOL     OW70443  13.075  13.563  13.519
89535SOL    HW170444  13.108  13.487  13.567
89535SOL    HW270445  13.042  13.528  13.436
89536SOL     OW70446   2.204  12.016   6.382
89536SOL    HW170447   2.208  12.078   6.309
89536SOL    HW270448   2.124  12.040   6.429
89537SOL     OW70449   7.969   3.922   5.687
89537SOL    HW170450   8.012   3.961   5.610
89537SOL    HW270451   8.041   3.885   5.738
89538SOL     OW70452  13.470   9.697   6.436
89538SOL    HW170453  13.457   9.792   6.446
89538SOL    HW270454  13.384   9.664   6.409
89539SOL     OW70455   9.842   4.066   1.704
89539SOL    HW170456   9.893   4.115   1.640
89539SOL    HW270457   9.842   4.122   1.782
89540SOL     OW70458   7.816  13.741   7.359
89540SOL    HW170459   7.899  13.776   7.394
89540SOL    HW270460   7.794  13.801   7.288
89541SOL     OW70461   2.052   5.774  14.356
89541SOL    HW170462   2.122   5.832  14.326
89541SOL    HW270463   1.984   5.833  14.389
89542SOL     OW70464   5.849   3.910   9.180
89542SOL    HW170465   5.915   3.878   9.241
89542SOL    HW270466   5.767   3.871   9.210
89543SOL     OW70467   3.054  14.849  11.631
89543SOL    HW170468   3.143  14.819  11.614
89543SOL    HW270469   3.061   0.070  11.634
89544SOL     OW70470   1.485   3.598   8.587
89544SOL    HW170471   1.408   3.558   8.545
89544SOL    HW270472   1.496   3.549   8.668
89545SOL     OW70473   4.034  12.189   3.981
89545SOL    HW170474   4.035  12.227   4.069
89545SOL    HW270475   3.942  12.192   3.955
89546SOL     OW70476   8.204   2.674  12.604
89546SOL    HW170477   8.294   2.690  12.631
89546SOL    HW270478   8.180   2.592  12.647
89547SOL     OW70479   1.641   3.798   8.953
89547SOL    HW170480   1.598   3.752   9.025
89547SOL    HW270481   1.570   3.814   8.890
89548SOL     OW70482  13.944   5.905  14.131
89548SOL    HW170483  13.944   5.818  14.093
89548SOL    HW270484  13.902   5.960  14.064
89549SOL     OW70485   7.968   5.374  10.586
89549SOL    HW170486   7.941   5.366  10.677
89549SOL    HW270487   7.947   5.464  10.562
89550SOL     OW70488   1.796   0.464  13.296
89550SOL    HW170489   1.891   0.469  13.309
89550SOL    HW270490   1.759   0.522  13.362
89551SOL     OW70491   4.999   9.976   0.627
89551SOL    HW170492   5.009   9.890   0.668
89551SOL    HW270493   4.934  10.021   0.681
89552SOL     OW70494   3.813  13.258   5.928
89552SOL    HW170495   3.886  13.245   5.989
89552SOL    HW270496   3.850  13.307   5.855
89553SOL     OW70497  12.941   5.202   9.030
89553SOL    HW170498  12.975   5.245   8.951
89553SOL    HW270499  12.937   5.109   9.006
89554SOL     OW70500   6.514   5.581   0.908
89554SOL    HW170501   6.476   5.619   0.829
89554SOL    HW270502   6.439   5.569   0.967
89555SOL     OW70503   5.440   3.345  13.852
89555SOL    HW170504   5.422   3.436  13.831
89555SOL    HW270505   5.396   3.295  13.783
89556SOL     OW70506  12.523  14.460   8.567
89556SOL    HW170507  12.588  14.493   8.628
89556SOL    HW270508  12.512  14.530   8.502
89557SOL     OW70509   4.101   2.490  12.451
89557SOL    HW170510   4.107   2.399  12.481
89557SOL    HW270511   4.073   2.483  12.360
89558SOL     OW70512   3.446  12.461  10.865
89558SOL    HW170513   3.409  12.386  10.819
89558SOL    HW270514   3.402  12.461  10.950
89559SOL     OW70515   4.981   6.136   3.476
89559SOL    HW170516   4.907   6.196   3.489
89559SOL    HW270517   5.051   6.173   3.529
89560SOL     OW70518   6.708   5.390   4.062
89560SOL    HW170519   6.708   5.296   4.049
89560SOL    HW270520   6.739   5.427   3.979
89561SOL     OW70521  10.062   4.090  10.927
89561SOL    HW170522  10.057   4.017  10.865
89561SOL    HW270523   9.991   4.073  10.989
89562SOL     OW70524   6.187   8.803   6.615
89562SOL    HW170525   6.208   8.742   6.686
89562SOL    HW270526   6.272   8.839   6.589
89563SOL     OW70527   9.343   9.303  10.424
89563SOL    HW170528   9.331   9.327  10.516
89563SOL    HW270529   9.385   9.379  10.385
89564SOL     OW70530   0.859   7.374   5.696
89564SOL    HW170531   0.908   7.444   5.740
89564SOL    HW270532   0.830   7.413   5.614
89565SOL     OW70533   2.453   6.913   4.093
89565SOL    HW170534   2.410   6.828   4.094
89565SOL    HW270535   2.538   6.897   4.052
89566SOL     OW70536   0.212   2.300   1.903
89566SOL    HW170537   0.288   2.246   1.922
89566SOL    HW270538   0.152   2.242   1.856
89567SOL     OW70539   8.575   0.465   6.289
89567SOL    HW170540   8.560   0.514   6.370
89567SOL    HW270541   8.505   0.399   6.287
89568SOL     OW70542  13.404   4.409   4.087
89568SOL    HW170543  13.314   4.434   4.068
89568SOL    HW270544  13.430   4.464   4.161
89569SOL     OW70545   4.623  14.169   1.218
89569SOL    HW170546   4.648  14.179   1.310
89569SOL    HW270547   4.706  14.156   1.172
89570SOL     OW70548  10.413   8.063   4.074
89570SOL    HW170549  10.318   8.068   4.066
89570SOL    HW270550  10.446   8.120   4.004
89571SOL     OW70551   7.439   5.922   0.188
89571SOL    HW170552   7.417   5.952   0.276
89571SOL    HW270553   7.357   5.888   0.153
89572SOL     OW70554  13.242   3.488   0.895
89572SOL    HW170555  13.196   3.451   0.820
89572SOL    HW270556  13.230   3.583   0.885
89573SOL     OW70557   4.331   5.909   9.234
89573SOL    HW170558   4.412   5.952   9.261
89573SOL    HW270559   4.324   5.927   9.141
89574SOL     OW70560   0.492   4.222   2.946
89574SOL    HW170561   0.433   4.297   2.944
89574SOL    HW270562   0.579   4.260   2.937
89575SOL     OW70563   8.634   8.911   0.190
89575SOL    HW170564   8.721   8.917   0.151
89575SOL    HW270565   8.603   8.824   0.167
89576SOL     OW70566   3.200   2.552   3.743
89576SOL    HW170567   3.278   2.568   3.798
89576SOL    HW270568   3.236   2.524   3.659
89577SOL     OW70569  14.597   1.413   9.701
89577SOL    HW170570  14.604   1.320   9.679
89577SOL    HW270571  14.685   1.438   9.726
89578SOL     OW70572   7.491   4.777   4.786
89578SOL    HW170573   7.525   4.853   4.739
89578SOL    HW270574   7.408   4.758   4.742
89579SOL     OW70575   2.895  13.354   9.523
89579SOL    HW170576   2.975  13.359   9.471
89579SOL    HW270577   2.824  13.362   9.460
89580SOL     OW70578   2.171  11.184   7.897
89580SOL    HW170579   2.140  11.105   7.851
89580SOL    HW270580   2.105  11.202   7.963
89581SOL     OW70581   1.585  14.093   5.612
89581SOL    HW170582   1.636  14.012   5.624
89581SOL    HW270583   1.652  14.161   5.604
89582SOL     OW70584   1.906  10.444   0.217
89582SOL    HW170585   1.895  10.444   0.312
89582SOL    HW270586   1.944  10.529   0.197
89583SOL     OW70587  10.716   3.125   9.710
89583SOL    HW170588  10.726   3.141   9.616
89583SOL    HW270589  10.771   3.192   9.752
89584SOL     OW70590   6.096   3.114  14.808
89584SOL    HW170591   6.056   3.143   0.016
89584SOL    HW270592   6.141   3.192  14.774
89585SOL     OW70593   1.739   8.862   0.264
89585SOL    HW170594   1.765   8.952   0.247
89585SOL    HW270595   1.767   8.845   0.354
89586SOL     OW70596   4.355  12.680  10.791
89586SOL    HW170597   4.271  12.722  10.810
89586SOL    HW270598   4.402  12.683  10.875
89587SOL     OW70599   1.162   7.664   6.576
89587SOL    HW170600   1.192   7.695   6.661
89587SOL    HW270601   1.120   7.740   6.536
89588SOL     OW70602  14.035   4.039   6.689
89588SOL    HW170603  14.022   3.983   6.612
89588SOL    HW270604  13.954   4.030   6.739
89589SOL     OW70605  12.398   7.048  10.345
89589SOL    HW170606  12.323   7.100  10.374
89589SOL    HW270607  12.373   7.012  10.260
89590SOL     OW70608   8.863   5.018   5.994
89590SOL    HW170609   8.941   5.063   6.028
89590SOL    HW270610   8.863   5.039   5.901
89591SOL     OW70611   8.811   2.243   8.951
89591SOL    HW170612   8.797   2.184   9.026
89591SOL    HW270613   8.898   2.280   8.966
89592SOL     OW70614   0.729  12.019  10.090
89592SOL    HW170615   0.776  12.095  10.124
89592SOL    HW270616   0.773  11.944  10.129
89593SOL     OW70617   4.157   8.669   4.851
89593SOL    HW170618   4.190   8.689   4.763
89593SOL    HW270619   4.068   8.703   4.851
89594SOL     OW70620   2.196   4.672  11.374
89594SOL    HW170621   2.171   4.764  11.375
89594SOL    HW270622   2.205   4.649  11.467
89595SOL     OW70623   3.495   4.565  11.299
89595SOL    HW170624   3.431   4.495  11.284
89595SOL    HW270625   3.579   4.527  11.272
89596SOL     OW70626  11.678   1.625   6.120
89596SOL    HW170627  11.754   1.578   6.088
89596SOL    HW270628  11.636   1.660   6.040
89597SOL     OW70629   3.273   8.037  13.781
89597SOL    HW170630   3.366   8.056  13.786
89597SOL    HW270631   3.269   7.943  13.765
89598SOL     OW70632   7.683   4.954   1.408
89598SOL    HW170633   7.673   5.018   1.338
89598SOL    HW270634   7.677   5.006   1.489
89599SOL     OW70635   9.238   5.700   9.566
89599SOL    HW170636   9.320   5.691   9.517
89599SOL    HW270637   9.236   5.791   9.593
89600SOL     OW70638   3.239   9.682   5.163
89600SOL    HW170639   3.214   9.766   5.201
89600SOL    HW270640   3.331   9.693   5.139
89601SOL     OW70641   8.668   4.534   7.950
89601SOL    HW170642   8.590   4.535   7.894
89601SOL    HW270643   8.634   4.517   8.037
89602SOL     OW70644  10.262   4.138   3.749
89602SOL    HW170645  10.173   4.135   3.714
89602SOL    HW270646  10.263   4.214   3.806
89603SOL     OW70647  14.098   7.539  12.023
89603SOL    HW170648  14.040   7.489  11.966
89603SOL    HW270649  14.041   7.576  12.090
89604SOL     OW70650  12.735   7.247   0.233
89604SOL    HW170651  12.830   7.244   0.243
89604SOL    HW270652  12.701   7.194   0.304
89605SOL     OW70653   8.683   9.029   3.168
89605SOL    HW170654   8.763   8.980   3.147
89605SOL    HW270655   8.704   9.120   3.147
89606SOL     OW70656   9.169  11.802   9.851
89606SOL    HW170657   9.137  11.850   9.775
89606SOL    HW270658   9.238  11.745   9.816
89607SOL     OW70659  14.072  10.494   3.359
89607SOL    HW170660  14.006  10.518   3.424
89607SOL    HW270661  14.118  10.419   3.397
89608SOL     OW70662   0.834   4.542   8.038
89608SOL    HW170663   0.827   4.463   8.092
89608SOL    HW270664   0.834   4.614   8.101
89609SOL     OW70665   2.235  12.206   5.096
89609SOL    HW170666   2.279  12.286   5.126
89609SOL    HW270667   2.153  12.235   5.058
89610SOL     OW70668  13.853   3.132   6.093
89610SOL    HW170669  13.824   3.170   6.010
89610SOL    HW270670  13.876   3.042   6.071
89611SOL     OW70671  12.560   2.409   3.816
89611SOL    HW170672  12.598   2.328   3.781
89611SOL    HW270673  12.498   2.438   3.749
89612SOL     OW70674  14.266   2.881  13.024
89612SOL    HW170675  14.180   2.870  12.982
89612SOL    HW270676  14.259   2.964  13.071
89613SOL     OW70677  10.081   7.371   0.004
89613SOL    HW170678  10.146   7.422   0.052
89613SOL    HW270679  10.112   7.371  14.787
89614SOL     OW70680   6.101  11.232  10.239
89614SOL    HW170681   6.069  11.321  10.223
89614SOL    HW270682   6.073  11.182  10.163
89615SOL     OW70683   2.487   0.036  14.297
89615SOL    HW170684   2.517   0.057  14.385
89615SOL    HW270685   2.423   0.104  14.276
89616SOL     OW70686   4.288  14.861   9.963
89616SOL    HW170687   4.369  14.818   9.936
89616SOL    HW270688   4.311   0.079   9.974
89617SOL     OW70689   3.828  11.996   0.633
89617SOL    HW170690   3.787  12.079   0.655
89617SOL    HW270691   3.916  12.001   0.671
89618SOL     OW70692  11.975  10.048   5.593
89618SOL    HW170693  11.961   9.990   5.668
89618SOL    HW270694  12.062  10.086   5.608
89619SOL     OW70695  10.910   7.498   6.255
89619SOL    HW170696  10.840   7.487   6.190
89619SOL    HW270697  10.988   7.462   6.213
89620SOL     OW70698   2.013  14.072   9.382
89620SOL    HW170699   1.950  14.016   9.426
89620SOL    HW270700   2.069  14.011   9.334
89621SOL     OW70701   2.278   5.709   1.326
89621SOL    HW170702   2.308   5.742   1.241
89621SOL    HW270703   2.340   5.640   1.348
89622SOL     OW70704  12.893  13.178   9.755
89622SOL    HW170705  12.894  13.083   9.765
89622SOL    HW270706  12.812  13.206   9.799
89623SOL     OW70707   6.838  11.546   8.285
89623SOL    HW170708   6.810  11.505   8.203
89623SOL    HW270709   6.756  11.573   8.327
89624SOL     OW70710   4.873   4.532   2.099
89624SOL    HW170711   4.908   4.566   2.182
89624SOL    HW270712   4.778   4.536   2.110
89625SOL     OW70713   7.833   5.154   8.861
89625SOL    HW170714   7.813   5.174   8.770
89625SOL    HW270715   7.808   5.233   8.909
89626SOL     OW70716   0.309   3.284   9.447
89626SOL    HW170717   0.329   3.283   9.354
89626SOL    HW270718   0.309   3.191   9.473
89627SOL     OW70719  12.239   2.758   4.359
89627SOL    HW170720  12.260   2.708   4.438
89627SOL    HW270721  12.322   2.769   4.314
89628SOL     OW70722   4.690  14.535   8.616
89628SOL    HW170723   4.692  14.607   8.679
89628SOL    HW270724   4.764  14.480   8.640
89629SOL     OW70725   8.940   8.485   5.150
89629SOL    HW170726   8.855   8.506   5.111
89629SOL    HW270727   8.923   8.483   5.244
89630SOL     OW70728   0.188   1.643  14.145
89630SOL    HW170729   0.166   1.734  14.123
89630SOL    HW270730   0.120   1.591  14.103
89631SOL     OW70731   1.152   9.641  13.264
89631SOL    HW170732   1.180   9.730  13.286
89631SOL    HW270733   1.234   9.591  13.259
89632SOL     OW70734   5.640  11.958   2.650
89632SOL    HW170735   5.617  11.930   2.739
89632SOL    HW270736   5.727  11.920   2.634
89633SOL     OW70737   1.684   7.395   1.231
89633SOL    HW170738   1.644   7.436   1.155
89633SOL    HW270739   1.760   7.450   1.251
89634SOL     OW70740   3.515   3.028   2.700
89634SOL    HW170741   3.442   3.047   2.641
89634SOL    HW270742   3.475   3.015   2.786
89635SOL     OW70743   7.526   6.763  10.868
89635SOL    HW170744   7.445   6.711  10.872
89635SOL    HW270745   7.513   6.834  10.931
89636SOL     OW70746   6.194   3.976   7.983
89636SOL    HW170747   6.108   3.978   7.940
89636SOL    HW270748   6.176   3.993   8.075
89637SOL     OW70749  11.260   9.900   6.751
89637SOL    HW170750  11.322   9.914   6.822
89637SOL    HW270751  11.191   9.964   6.767
89638SOL     OW70752   1.966  10.503   9.036
89638SOL    HW170753   2.011  10.571   8.987
89638SOL    HW270754   1.987  10.521   9.128
89639SOL     OW70755   2.308   8.255  13.941
89639SOL    HW170756   2.359   8.206  13.877
89639SOL    HW270757   2.295   8.341  13.900
89640SOL     OW70758  11.525   2.448   0.539
89640SOL    HW170759  11.567   2.404   0.613
89640SOL    HW270760  11.584   2.432   0.465
89641SOL     OW70761  10.289   5.661   4.390
89641SOL    HW170762  10.282   5.687   4.482
89641SOL    HW270763  10.380   5.635   4.379
89642SOL     OW70764   7.594   5.497  13.853
89642SOL    HW170765   7.558   5.464  13.770
89642SOL    HW270766   7.607   5.590  13.838
89643SOL     OW70767   0.102   4.100   8.497
89643SOL    HW170768   0.071   4.021   8.540
89643SOL    HW270769   0.191   4.078   8.467
89644SOL     OW70770   8.268   2.072   8.895
89644SOL    HW170771   8.339   2.054   8.957
89644SOL    HW270772   8.209   2.131   8.943
89645SOL     OW70773   6.386   4.920   3.634
89645SOL    HW170774   6.466   4.883   3.671
89645SOL    HW270775   6.334   4.947   3.710
89646SOL     OW70776   9.956  12.626   3.999
89646SOL    HW170777  10.017  12.626   4.073
89646SOL    HW270778   9.990  12.692   3.939
89647SOL     OW70779  14.282  10.615   4.590
89647SOL    HW170780  14.337  10.592   4.665
89647SOL    HW270781  14.193  10.591   4.617
89648SOL     OW70782   5.765   8.596  10.866
89648SOL    HW170783   5.692   8.586  10.927
89648SOL    HW270784   5.821   8.662  10.907
89649SOL     OW70785   8.378   1.948  11.844
89649SOL    HW170786   8.428   1.880  11.890
89649SOL    HW270787   8.347   1.905  11.764
89650SOL     OW70788   2.166   2.688   6.026
89650SOL    HW170789   2.188   2.737   5.947
89650SOL    HW270790   2.095   2.737   6.066
89651SOL     OW70791   1.794   4.280   6.210
89651SOL    HW170792   1.776   4.281   6.115
89651SOL    HW270793   1.766   4.193   6.238
89652SOL     OW70794   7.818   3.395  14.319
89652SOL    HW170795   7.809   3.473  14.374
89652SOL    HW270796   7.910   3.394  14.293
89653SOL     OW70797   7.626   4.741  11.838
89653SOL    HW170798   7.582   4.698  11.765
89653SOL    HW270799   7.719   4.736  11.817
89654SOL     OW70800  11.213   7.052   9.990
89654SOL    HW170801  11.154   7.095   9.929
89654SOL    HW270802  11.210   6.959   9.965
89655SOL     OW70803   0.217   8.218   2.083
89655SOL    HW170804   0.235   8.311   2.075
89655SOL    HW270805   0.123   8.213   2.101
89656SOL     OW70806   7.016   9.540   7.492
89656SOL    HW170807   7.028   9.586   7.408
89656SOL    HW270808   7.106   9.520   7.520
89657SOL     OW70809   3.968   4.350   7.663
89657SOL    HW170810   3.881   4.352   7.623
89657SOL    HW270811   4.016   4.422   7.621
89658SOL     OW70812   9.392   5.998  10.842
89658SOL    HW170813   9.454   6.060  10.803
89658SOL    HW270814   9.445   5.922  10.864
89659SOL     OW70815  10.689   3.984  11.924
89659SOL    HW170816  10.642   3.964  11.843
89659SOL    HW270817  10.686   3.903  11.975
89660SOL     OW70818   2.536   1.613   6.538
89660SOL    HW170819   2.553   1.531   6.585
89660SOL    HW270820   2.581   1.680   6.590
89661SOL     OW70821   9.736  11.149  10.493
89661SOL    HW170822   9.652  11.111  10.521
89661SOL    HW270823   9.786  11.158  10.574
89662SOL     OW70824   6.940   0.678  11.772
89662SOL    HW170825   6.946   0.603  11.713
89662SOL    HW270826   7.008   0.663  11.837
89663SOL     OW70827   8.520  10.058   8.027
89663SOL    HW170828   8.548  10.039   8.117
89663SOL    HW270829   8.601  10.062   7.977
89664SOL     OW70830  10.446   4.533   5.779
89664SOL    HW170831  10.481   4.488   5.856
89664SOL    HW270832  10.497   4.613   5.771
89665SOL     OW70833   1.962   1.460   1.913
89665SOL    HW170834   1.896   1.402   1.875
89665SOL    HW270835   2.014   1.488   1.838
89666SOL     OW70836   4.952  13.754  11.366
89666SOL    HW170837   4.891  13.704  11.419
89666SOL    HW270838   4.939  13.722  11.277
89667SOL     OW70839   8.326   0.481   5.611
89667SOL    HW170840   8.231   0.478   5.611
89667SOL    HW270841   8.350   0.480   5.518
89668SOL     OW70842  13.162   9.194   0.630
89668SOL    HW170843  13.155   9.168   0.722
89668SOL    HW270844  13.253   9.176   0.607
89669SOL     OW70845  14.267   0.525   0.669
89669SOL    HW170846  14.309   0.561   0.747
89669SOL    HW270847  14.335   0.473   0.627
89670SOL     OW70848   2.402   6.659  10.159
89670SOL    HW170849   2.372   6.727  10.219
89670SOL    HW270850   2.492   6.642  10.185
89671SOL     OW70851   8.158   3.181   6.637
89671SOL    HW170852   8.071   3.218   6.622
89671SOL    HW270853   8.161   3.102   6.583
89672SOL     OW70854  10.365   9.393   5.051
89672SOL    HW170855  10.439   9.436   5.095
89672SOL    HW270856  10.366   9.303   5.085
89673SOL     OW70857  10.935   5.347   6.813
89673SOL    HW170858  11.016   5.368   6.766
89673SOL    HW270859  10.962   5.286   6.881
89674SOL     OW70860   7.383   9.593   9.245
89674SOL    HW170861   7.321   9.538   9.292
89674SOL    HW270862   7.428   9.534   9.185
89675SOL     OW70863   3.550   3.940   1.422
89675SOL    HW170864   3.646   3.938   1.415
89675SOL    HW270865   3.524   4.017   1.371
89676SOL     OW70866   6.790   0.191   9.667
89676SOL    HW170867   6.784   0.206   9.573
89676SOL    HW270868   6.858   0.124   9.676
89677SOL     OW70869  13.384   4.928   9.589
89677SOL    HW170870  13.413   5.006   9.635
89677SOL    HW270871  13.388   4.858   9.655
89678SOL     OW70872   9.296   9.823   5.617
89678SOL    HW170873   9.272   9.916   5.620
89678SOL    HW270874   9.359   9.812   5.689
89679SOL     OW70875   1.636   4.855  13.463
89679SOL    HW170876   1.694   4.798  13.412
89679SOL    HW270877   1.685   4.874  13.543
89680SOL     OW70878  11.655   7.650   1.210
89680SOL    HW170879  11.632   7.558   1.194
89680SOL    HW270880  11.700   7.649   1.294
89681SOL     OW70881  13.601   7.634  10.745
89681SOL    HW170882  13.521   7.589  10.717
89681SOL    HW270883  13.588   7.725  10.719
89682SOL     OW70884   6.684  10.301   2.405
89682SOL    HW170885   6.725  10.258   2.480
89682SOL    HW270886   6.635  10.374   2.443
89683SOL     OW70887  11.205   7.113  13.921
89683SOL    HW170888  11.203   7.018  13.930
89683SOL    HW270889  11.168   7.130  13.834
89684SOL     OW70890   1.467  11.435  11.754
89684SOL    HW170891   1.434  11.491  11.825
89684SOL    HW270892   1.400  11.440  11.686
89685SOL     OW70893  14.343   3.601   6.620
89685SOL    HW170894  14.420   3.579   6.673
89685SOL    HW270895  14.286   3.650   6.679
89686SOL     OW70896   7.659   7.392   6.348
89686SOL    HW170897   7.712   7.316   6.372
89686SOL    HW270898   7.648   7.385   6.253
89687SOL     OW70899  13.490  14.282   6.243
89687SOL    HW170900  13.397  14.266   6.229
89687SOL    HW270901  13.507  14.366   6.199
89688SOL     OW70902  10.442   7.787   0.194
89688SOL    HW170903  10.418   7.780   0.101
89688SOL    HW270904  10.380   7.851   0.230
89689SOL     OW70905   9.978   7.502   8.440
89689SOL    HW170906   9.905   7.493   8.502
89689SOL    HW270907   9.936   7.500   8.354
89690SOL     OW70908   9.375   7.088   8.908
89690SOL    HW170909   9.438   7.045   8.966
89690SOL    HW270910   9.370   7.178   8.940
89691SOL     OW70911  13.978   5.946  12.310
89691SOL    HW170912  14.000   5.900  12.391
89691SOL    HW270913  13.885   5.968  12.318
89692SOL     OW70914   9.463   7.802   4.340
89692SOL    HW170915   9.425   7.736   4.283
89692SOL    HW270916   9.409   7.881   4.325
89693SOL     OW70917   1.170   5.418  11.286
89693SOL    HW170918   1.190   5.511  11.273
89693SOL    HW270919   1.109   5.416  11.359
89694SOL     OW70920   9.629   9.567   7.182
89694SOL    HW170921   9.655   9.656   7.159
89694SOL    HW270922   9.576   9.538   7.108
89695SOL     OW70923   3.916   6.920   4.494
89695SOL    HW170924   3.897   7.003   4.450
89695SOL    HW270925   3.831   6.878   4.504
89696SOL     OW70926  12.064  13.575   0.474
89696SOL    HW170927  12.141  13.541   0.519
89696SOL    HW270928  11.990  13.550   0.530
89697SOL     OW70929   1.426  11.530  14.131
89697SOL    HW170930   1.370  11.608  14.130
89697SOL    HW270931   1.378  11.465  14.080
89698SOL     OW70932  13.707   7.539   8.675
89698SOL    HW170933  13.710   7.455   8.720
89698SOL    HW270934  13.792   7.579   8.692
89699SOL     OW70935   3.346  11.313  13.179
89699SOL    HW170936   3.260  11.272  13.185
89699SOL    HW270937   3.383  11.281  13.097
89700SOL     OW70938  11.817   8.793  11.622
89700SOL    HW170939  11.743   8.732  11.614
89700SOL    HW270940  11.794   8.866  11.563
89701SOL     OW70941   8.340  11.685  14.675
89701SOL    HW170942   8.327  11.743  14.751
89701SOL    HW270943   8.252  11.677  14.636
89702SOL     OW70944   0.715   5.048  12.814
89702SOL    HW170945   0.764   5.068  12.894
89702SOL    HW270946   0.755   5.104  12.748
89703SOL     OW70947   6.883   2.402  11.885
89703SOL    HW170948   6.811   2.368  11.832
89703SOL    HW270949   6.845   2.414  11.972
89704SOL     OW70950  11.536  12.241   5.210
89704SOL    HW170951  11.451  12.277   5.234
89704SOL    HW270952  11.590  12.253   5.288
89705SOL     OW70953   9.437  11.719   9.413
89705SOL    HW170954   9.525  11.752   9.397
89705SOL    HW270955   9.379  11.778   9.365
89706SOL     OW70956  13.253   4.101   3.011
89706SOL    HW170957  13.303   4.179   3.032
89706SOL    HW270958  13.317   4.040   2.975
89707SOL     OW70959   4.160   7.470   4.093
89707SOL    HW170960   4.206   7.517   4.023
89707SOL    HW270961   4.221   7.469   4.166
89708SOL     OW70962  13.058   4.154   3.823
89708SOL    HW170963  12.970   4.130   3.851
89708SOL    HW270964  13.045   4.234   3.772
89709SOL     OW70965   3.283   3.350   0.703
89709SOL    HW170966   3.251   3.261   0.721
89709SOL    HW270967   3.325   3.378   0.784
89710SOL     OW70968   7.185   7.591   7.834
89710SOL    HW170969   7.277   7.565   7.819
89710SOL    HW270970   7.185   7.686   7.822
89711SOL     OW70971   3.826   3.626   9.360
89711SOL    HW170972   3.875   3.545   9.375
89711SOL    HW270973   3.846   3.681   9.436
89712SOL     OW70974   2.848   7.306  14.238
89712SOL    HW170975   2.798   7.246  14.183
89712SOL    HW270976   2.830   7.393  14.202
89713SOL     OW70977   1.691   4.418   3.232
89713SOL    HW170978   1.764   4.406   3.171
89713SOL    HW270979   1.614   4.427   3.176
89714SOL     OW70980   0.025  12.566   1.104
89714SOL    HW170981   0.111  12.557   1.146
89714SOL    HW270982  14.844  12.501   1.148
89715SOL     OW70983   1.811  11.100   4.281
89715SOL    HW170984   1.798  11.167   4.214
89715SOL    HW270985   1.871  11.037   4.240
89716SOL     OW70986   0.808  11.317   7.193
89716SOL    HW170987   0.808  11.233   7.147
89716SOL    HW270988   0.842  11.296   7.280
89717SOL     OW70989   7.917   3.258   0.892
89717SOL    HW170990   7.969   3.323   0.843
89717SOL    HW270991   7.911   3.294   0.981
89718SOL     OW70992   3.083   6.959   0.097
89718SOL    HW170993   3.080   7.024   0.167
89718SOL    HW270994   3.087   7.010   0.016
89719SOL     OW70995   5.557   9.103   5.442
89719SOL    HW170996   5.622   9.110   5.373
89719SOL    HW270997   5.541   9.009   5.451
89720SOL     OW70998   7.247   6.131   0.307
89720SOL    HW170999   7.181   6.075   0.349
89720SOL    HW271000   7.296   6.169   0.380
89721SOL     OW71001  11.677   9.819  14.004
89721SOL    HW171002  11.666   9.859  13.918
89721SOL    HW271003  11.665   9.725  13.989
89722SOL     OW71004   9.246  14.237   0.660
89722SOL    HW171005   9.238  14.259   0.567
89722SOL    HW271006   9.254  14.142   0.662
89723SOL     OW71007   0.513   5.029  12.455
89723SOL    HW171008   0.459   5.086  12.399
89723SOL    HW271009   0.597   5.075  12.461
89724SOL     OW71010   1.032  13.178   7.454
89724SOL    HW171011   0.959  13.121   7.476
89724SOL    HW271012   1.003  13.226   7.376
89725SOL     OW71013   7.152   0.959   9.484
89725SOL    HW171014   7.138   1.030   9.547
89725SOL    HW271015   7.068   0.948   9.441
89726SOL     OW71016  11.907   7.601   0.648
89726SOL    HW171017  11.965   7.528   0.626
89726SOL    HW271018  11.820   7.562   0.653
89727SOL     OW71019   3.415  11.694   9.987
89727SOL    HW171020   3.408  11.643   9.906
89727SOL    HW271021   3.480  11.646  10.039
89728SOL     OW71022   8.904   8.421   8.773
89728SOL    HW171023   8.824   8.473   8.769
89728SOL    HW271024   8.873   8.330   8.778
89729SOL     OW71025  10.948  11.608   9.674
89729SOL    HW171026  10.852  11.613   9.675
89729SOL    HW271027  10.976  11.691   9.714
89730SOL     OW71028   8.115  10.619   3.930
89730SOL    HW171029   8.104  10.568   3.850
89730SOL    HW271030   8.198  10.589   3.966
89731SOL     OW71031   2.119   7.596  10.919
89731SOL    HW171032   2.158   7.521  10.874
89731SOL    HW271033   2.160   7.596  11.005
89732SOL     OW71034  14.778   0.866   3.598
89732SOL    HW171035  14.794   0.772   3.598
89732SOL    HW271036  14.725   0.882   3.520
89733SOL     OW71037   7.560   4.081   6.705
89733SOL    HW171038   7.476   4.035   6.713
89733SOL    HW271039   7.605   4.035   6.634
89734SOL     OW71040  11.438   9.211   6.910
89734SOL    HW171041  11.499   9.215   6.836
89734SOL    HW271042  11.483   9.258   6.980
89735SOL     OW71043  10.981   8.327   4.719
89735SOL    HW171044  10.938   8.384   4.782
89735SOL    HW271045  10.911   8.296   4.662
89736SOL     OW71046   9.442  11.839   6.903
89736SOL    HW171047   9.477  11.751   6.901
89736SOL    HW271048   9.493  11.885   6.970
89737SOL     OW71049  12.233   0.344   1.603
89737SOL    HW171050  12.246   0.377   1.514
89737SOL    HW271051  12.148   0.379   1.630
89738SOL     OW71052   2.628   5.099  13.755
89738SOL    HW171053   2.567   5.122  13.826
89738SOL    HW271054   2.579   5.117  13.675
89739SOL     OW71055   7.999  14.852   4.543
89739SOL    HW171056   8.072   0.017   4.591
89739SOL    HW271057   7.968  14.782   4.600
89740SOL     OW71058   9.414   0.647   1.562
89740SOL    HW171059   9.398   0.630   1.654
89740SOL    HW271060   9.504   0.617   1.547
89741SOL     OW71061   6.945   5.738   6.134
89741SOL    HW171062   6.854   5.766   6.126
89741SOL    HW271063   6.985   5.805   6.190
89742SOL     OW71064   5.284   3.903  12.153
89742SOL    HW171065   5.190   3.896  12.169
89742SOL    HW271066   5.301   3.997  12.148
89743SOL     OW71067   8.965   9.184  10.101
89743SOL    HW171068   8.879   9.165  10.139
89743SOL    HW271069   8.959   9.156  10.010
89744SOL     OW71070   7.790   5.779  14.334
89744SOL    HW171071   7.702   5.817  14.333
89744SOL    HW271072   7.776   5.685  14.345
89745SOL     OW71073  12.895   8.660   6.304
89745SOL    HW171074  12.962   8.638   6.369
89745SOL    HW271075  12.812   8.645   6.349
89746SOL     OW71076   7.633   0.747  10.548
89746SOL    HW171077   7.654   0.692  10.473
89746SOL    HW271078   7.549   0.787  10.525
89747SOL     OW71079   4.944   1.164  12.604
89747SOL    HW171080   4.986   1.249  12.617
89747SOL    HW271081   5.003   1.116  12.547
89748SOL     OW71082   5.194  12.732  13.584
89748SOL    HW171083   5.264  12.793  13.559
89748SOL    HW271084   5.238  12.666  13.637
89749SOL     OW71085   2.814   7.043   3.494
89749SOL    HW171086   2.867   7.039   3.415
89749SOL    HW271087   2.727   7.069   3.464
89750SOL     OW71088  10.668   7.670  13.442
89750SOL    HW171089  10.612   7.595  13.461
89750SOL    HW271090  10.657   7.728  13.518
89751SOL     OW71091   3.192   3.117   4.999
89751SOL    HW171092   3.157   3.029   5.014
89751SOL    HW271093   3.211   3.150   5.087
89752SOL     OW71094  11.622  14.179  13.558
89752SOL    HW171095  11.641  14.155  13.468
89752SOL    HW271096  11.623  14.275  13.559
89753SOL     OW71097   7.295  14.371   8.822
89753SOL    HW171098   7.241  14.294   8.800
89753SOL    HW271099   7.267  14.438   8.760
89754SOL     OW71100  13.209  10.571   7.233
89754SOL    HW171101  13.213  10.657   7.189
89754SOL    HW271102  13.193  10.509   7.162
89755SOL     OW71103   3.858   6.073   6.195
89755SOL    HW171104   3.902   6.139   6.141
89755SOL    HW271105   3.870   5.991   6.147
89756SOL     OW71106   8.860   3.851  10.622
89756SOL    HW171107   8.882   3.873  10.532
89756SOL    HW271108   8.860   3.935  10.668
89757SOL     OW71109   0.628   8.925  13.482
89757SOL    HW171110   0.620   8.830  13.484
89757SOL    HW271111   0.611   8.949  13.391
89758SOL     OW71112  10.442   5.760   5.339
89758SOL    HW171113  10.436   5.855   5.348
89758SOL    HW271114  10.498   5.747   5.262
89759SOL     OW71115  11.276  13.727  13.285
89759SOL    HW171116  11.273  13.633  13.305
89759SOL    HW271117  11.260  13.731  13.190
89760SOL     OW71118  13.996   0.691   6.164
89760SOL    HW171119  14.082   0.719   6.197
89760SOL    HW271120  14.008   0.598   6.143
89761SOL     OW71121   7.722  10.519   7.820
89761SOL    HW171122   7.800  10.465   7.831
89761SOL    HW271123   7.670  10.473   7.754
89762SOL     OW71124   6.354   1.287   2.541
89762SOL    HW171125   6.261   1.270   2.556
89762SOL    HW271126   6.355   1.344   2.464
89763SOL     OW71127   9.329   4.421   3.345
89763SOL    HW171128   9.260   4.365   3.380
89763SOL    HW271129   9.351   4.382   3.261
89764SOL     OW71130   6.636   3.053   6.212
89764SOL    HW171131   6.563   3.050   6.273
89764SOL    HW271132   6.667   2.962   6.208
89765SOL     OW71133  11.899  14.215   6.045
89765SOL    HW171134  11.969  14.165   6.004
89765SOL    HW271135  11.917  14.306   6.019
89766SOL     OW71136   3.336   1.787   6.887
89766SOL    HW171137   3.320   1.779   6.793
89766SOL    HW271138   3.431   1.788   6.895
89767SOL     OW71139   2.166   5.000   0.087
89767SOL    HW171140   2.141   5.089   0.060
89767SOL    HW271141   2.157   4.947   0.008
89768SOL     OW71142  14.747  14.665  10.167
89768SOL    HW171143  14.820  14.612  10.201
89768SOL    HW271144  14.774  14.690  10.079
89769SOL     OW71145  10.245  14.535   7.953
89769SOL    HW171146  10.226  14.462   7.893
89769SOL    HW271147  10.271  14.492   8.034
89770SOL     OW71148   5.346   3.160   6.023
89770SOL    HW171149   5.320   3.198   6.107
89770SOL    HW271150   5.370   3.235   5.969
89771SOL     OW71151   5.966   0.080   2.925
89771SOL    HW171152   5.930   0.162   2.959
89771SOL    HW271153   5.971   0.092   2.831
89772SOL     OW71154   1.730  12.441   8.325
89772SOL    HW171155   1.797  12.412   8.388
89772SOL    HW271156   1.715  12.365   8.270
89773SOL     OW71157   3.767   1.221   4.624
89773SOL    HW171158   3.753   1.151   4.688
89773SOL    HW271159   3.768   1.176   4.539
89774SOL     OW71160   4.170   6.666   6.118
89774SOL    HW171161   4.108   6.650   6.047
89774SOL    HW271162   4.250   6.622   6.091
89775SOL     OW71163   6.950  13.894   3.721
89775SOL    HW171164   7.026  13.865   3.770
89775SOL    HW271165   6.877  13.884   3.782
89776SOL     OW71166   2.895  13.953  11.201
89776SOL    HW171167   2.923  13.937  11.111
89776SOL    HW271168   2.967  13.917  11.255
89777SOL     OW71169   3.264  14.659  11.518
89777SOL    HW171170   3.216  14.659  11.436
89777SOL    HW271171   3.317  14.580  11.516
89778SOL     OW71172   0.334  11.602   2.526
89778SOL    HW171173   0.329  11.698   2.533
89778SOL    HW271174   0.371  11.586   2.439
89779SOL     OW71175   4.352   7.010   0.659
89779SOL    HW171176   4.384   7.100   0.658
89779SOL    HW271177   4.429   6.957   0.682
89780SOL     OW71178   8.090   8.160   5.516
89780SOL    HW171179   8.023   8.223   5.542
89780SOL    HW271180   8.052   8.075   5.535
89781SOL     OW71181   8.538   8.315  12.735
89781SOL    HW171182   8.495   8.230  12.728
89781SOL    HW271183   8.562   8.337  12.645
89782SOL     OW71184   8.622  13.156   0.521
89782SOL    HW171185   8.704  13.117   0.490
89782SOL    HW271186   8.615  13.238   0.472
89783SOL     OW71187  10.109   9.615   3.520
89783SOL    HW171188  10.043   9.548   3.542
89783SOL    HW271189  10.074   9.696   3.557
89784SOL     OW71190   2.490   4.250   3.551
89784SOL    HW171191   2.582   4.236   3.528
89784SOL    HW271192   2.467   4.176   3.607
89785SOL     OW71193   2.098  13.117   2.060
89785SOL    HW171194   2.018  13.141   2.106
89785SOL    HW271195   2.136  13.047   2.114
89786SOL     OW71196  13.783   8.180   3.674
89786SOL    HW171197  13.862   8.220   3.638
89786SOL    HW271198  13.809   8.149   3.761
89787SOL     OW71199   3.437  10.264  11.497
89787SOL    HW171200   3.514  10.214  11.525
89787SOL    HW271201   3.459  10.355  11.519
89788SOL     OW71202   9.542   0.029   1.062
89788SOL    HW171203   9.553   0.001   0.971
89788SOL    HW271204   9.549  14.822   1.113
89789SOL     OW71205   0.413   8.858  13.848
89789SOL    HW171206   0.492   8.842  13.900
89789SOL    HW271207   0.442   8.920  13.780
89790SOL     OW71208   5.219   5.022   2.449
89790SOL    HW171209   5.198   5.015   2.356
89790SOL    HW271210   5.315   5.012   2.452
89791SOL     OW71211   6.359  14.402   8.339
89791SOL    HW171212   6.392  14.366   8.257
89791SOL    HW271213   6.268  14.372   8.343
89792SOL     OW71214   7.031   2.200   5.819
89792SOL    HW171215   7.002   2.229   5.905
89792SOL    HW271216   7.030   2.104   5.824
89793SOL     OW71217   5.356   5.213   8.612
89793SOL    HW171218   5.365   5.167   8.528
89793SOL    HW271219   5.275   5.178   8.649
89794SOL     OW71220   4.096   8.329   1.729
89794SOL    HW171221   4.061   8.367   1.648
89794SOL    HW271222   4.102   8.403   1.790
89795SOL     OW71223  12.904  10.226   5.839
89795SOL    HW171224  12.947  10.285   5.777
89795SOL    HW271225  12.852  10.167   5.784
89796SOL     OW71226  11.122   5.896   9.744
89796SOL    HW171227  11.141   5.886   9.837
89796SOL    HW271228  11.036   5.858   9.732
89797SOL     OW71229   7.923  10.662   0.871
89797SOL    HW171230   7.840  10.624   0.840
89797SOL    HW271231   7.983  10.652   0.797
89798SOL     OW71232  11.393   4.931   0.105
89798SOL    HW171233  11.393   4.890   0.019
89798SOL    HW271234  11.301   4.942   0.127
89799SOL     OW71235   5.149   5.477  10.207
89799SOL    HW171236   5.228   5.434  10.241
89799SOL    HW271237   5.134   5.550  10.268
89800SOL     OW71238  14.255   2.463  14.128
89800SOL    HW171239  14.217   2.376  14.116
89800SOL    HW271240  14.342   2.456  14.089
89801SOL     OW71241  11.998   8.577  10.412
89801SOL    HW171242  11.912   8.538  10.427
89801SOL    HW271243  12.058   8.503  10.407
89802SOL     OW71244   7.891   0.843  10.551
89802SOL    HW171245   7.880   0.935  10.528
89802SOL    HW271246   7.802   0.811  10.565
89803SOL     OW71247   2.713   2.891  11.002
89803SOL    HW171248   2.766   2.948  11.057
89803SOL    HW271249   2.738   2.914  10.912
89804SOL     OW71250   5.559   8.514   6.364
89804SOL    HW171251   5.596   8.432   6.330
89804SOL    HW271252   5.634   8.562   6.398
89805SOL     OW71253  10.140   9.834   1.967
89805SOL    HW171254  10.174   9.747   1.949
89805SOL    HW271255  10.045   9.824   1.967
89806SOL     OW71256   5.946   3.192   2.389
89806SOL    HW171257   5.957   3.287   2.403
89806SOL    HW271258   5.898   3.186   2.306
89807SOL     OW71259   5.438   7.477   4.028
89807SOL    HW171260   5.404   7.405   4.082
89807SOL    HW271261   5.525   7.495   4.064
89808SOL     OW71262   3.912   3.307   1.344
89808SOL    HW171263   3.970   3.233   1.362
89808SOL    HW271264   3.825   3.268   1.338
89809SOL     OW71265   8.240   4.540   8.898
89809SOL    HW171266   8.234   4.627   8.937
89809SOL    HW271267   8.157   4.498   8.922
89810SOL     OW71268   6.702  12.009   7.408
89810SOL    HW171269   6.699  11.925   7.453
89810SOL    HW271270   6.631  12.005   7.344
89811SOL     OW71271  11.166   1.442   0.550
89811SOL    HW171272  11.188   1.398   0.632
89811SOL    HW271273  11.116   1.520   0.577
89812SOL     OW71274   8.852   5.381   4.209
89812SOL    HW171275   8.857   5.442   4.283
89812SOL    HW271276   8.924   5.321   4.222
89813SOL     OW71277  11.320   1.661  14.361
89813SOL    HW171278  11.278   1.627  14.440
89813SOL    HW271279  11.248   1.690  14.305
89814SOL     OW71280   8.523  10.717  14.261
89814SOL    HW171281   8.547  10.624  14.252
89814SOL    HW271282   8.454  10.730  14.196
89815SOL     OW71283   3.999   7.618   3.051
89815SOL    HW171284   4.030   7.698   3.092
89815SOL    HW271285   4.073   7.558   3.056
89816SOL     OW71286   2.070   0.411   1.950
89816SOL    HW171287   2.163   0.406   1.929
89816SOL    HW271288   2.053   0.504   1.963
89817SOL     OW71289   8.585  12.899  13.853
89817SOL    HW171290   8.656  12.911  13.790
89817SOL    HW271291   8.525  12.838  13.809
89818SOL     OW71292   7.092   4.609  11.647
89818SOL    HW171293   7.182   4.610  11.679
89818SOL    HW271294   7.041   4.572  11.720
89819SOL     OW71295  13.075   7.207   1.606
89819SOL    HW171296  13.077   7.218   1.701
89819SOL    HW271297  12.989   7.168   1.589
89820SOL     OW71298   3.489  13.884   0.604
89820SOL    HW171299   3.408  13.855   0.647
89820SOL    HW271300   3.559  13.855   0.662
89821SOL     OW71301   9.425  10.289   3.852
89821SOL    HW171302   9.466  10.320   3.772
89821SOL    HW271303   9.331  10.286   3.831
89822SOL     OW71304   4.013   2.455  14.562
89822SOL    HW171305   3.920   2.472  14.578
89822SOL    HW271306   4.037   2.516  14.492
89823SOL     OW71307   1.157   6.397   4.136
89823SOL    HW171308   1.071   6.438   4.151
89823SOL    HW271309   1.214   6.436   4.203
89824SOL     OW71310   7.026  14.058  12.739
89824SOL    HW171311   7.095  14.008  12.695
89824SOL    HW271312   7.067  14.089  12.820
89825SOL     OW71313   7.149  11.887   3.091
89825SOL    HW171314   7.218  11.953   3.100
89825SOL    HW271315   7.101  11.913   3.013
89826SOL     OW71316   5.953   5.016   7.659
89826SOL    HW171317   5.939   4.959   7.734
89826SOL    HW271318   5.874   5.069   7.654
89827SOL     OW71319  14.865  14.733  14.172
89827SOL    HW171320   0.048  14.807  14.149
89827SOL    HW271321  14.776  14.768  14.168
89828SOL     OW71322   9.067   8.129  13.527
89828SOL    HW171323   9.028   8.089  13.605
89828SOL    HW271324   9.061   8.223  13.542
89829SOL     OW71325   8.036  12.214  14.109
89829SOL    HW171326   8.053  12.121  14.097
89829SOL    HW271327   7.941  12.222  14.100
89830SOL     OW71328   6.136  10.623   6.623
89830SOL    HW171329   6.123  10.561   6.551
89830SOL    HW271330   6.205  10.682   6.593
89831SOL     OW71331  14.303   6.590  11.808
89831SOL    HW171332  14.243   6.661  11.830
89831SOL    HW271333  14.280   6.519  11.868
89832SOL     OW71334   8.978  14.291   0.202
89832SOL    HW171335   9.060  14.330   0.232
89832SOL    HW271336   8.993  14.197   0.206
89833SOL     OW71337   0.451   5.954   2.865
89833SOL    HW171338   0.359   5.932   2.879
89833SOL    HW271339   0.458   5.973   2.772
89834SOL     OW71340   5.942   1.252   3.775
89834SOL    HW171341   5.867   1.303   3.745
89834SOL    HW271342   6.001   1.316   3.813
89835SOL     OW71343   8.544   8.484   1.517
89835SOL    HW171344   8.547   8.569   1.560
89835SOL    HW271345   8.595   8.426   1.573
89836SOL     OW71346   0.885  13.790  14.464
89836SOL    HW171347   0.904  13.755  14.552
89836SOL    HW271348   0.899  13.884  14.472
89837SOL     OW71349  11.765   4.121   1.773
89837SOL    HW171350  11.728   4.194   1.822
89837SOL    HW271351  11.745   4.139   1.682
89838SOL     OW71352   0.786   0.959   3.026
89838SOL    HW171353   0.807   0.890   3.089
89838SOL    HW271354   0.870   0.996   3.002
89839SOL     OW71355  12.683  10.676  11.130
89839SOL    HW171356  12.610  10.637  11.179
89839SOL    HW271357  12.720  10.604  11.080
89840SOL     OW71358   9.217   7.036   0.977
89840SOL    HW171359   9.148   7.062   0.916
89840SOL    HW271360   9.273   6.977   0.927
89841SOL     OW71361   8.531   5.225   6.180
89841SOL    HW171362   8.485   5.247   6.099
89841SOL    HW271363   8.624   5.231   6.158
89842SOL     OW71364   2.247  13.396   8.367
89842SOL    HW171365   2.237  13.301   8.355
89842SOL    HW271366   2.314  13.421   8.303
89843SOL     OW71367  12.161   1.544  12.655
89843SOL    HW171368  12.198   1.489  12.586
89843SOL    HW271369  12.176   1.495  12.736
89844SOL     OW71370   2.295   7.796  14.059
89844SOL    HW171371   2.289   7.712  14.013
89844SOL    HW271372   2.213   7.803  14.108
89845SOL     OW71373   0.158   4.584   1.797
89845SOL    HW171374   0.196   4.672   1.795
89845SOL    HW271375   0.067   4.598   1.770
89846SOL     OW71376   0.261   9.615   4.703
89846SOL    HW171377   0.246   9.640   4.612
89846SOL    HW271378   0.190   9.657   4.751
89847SOL     OW71379  10.726   0.736   1.588
89847SOL    HW171380  10.712   0.757   1.496
89847SOL    HW271381  10.659   0.672   1.609
89848SOL     OW71382   2.143  11.820  14.832
89848SOL    HW171383   2.072  11.883  14.839
89848SOL    HW271384   2.143  11.773   0.041
89849SOL     OW71385   4.275   8.080  11.292
89849SOL    HW171386   4.298   7.988  11.290
89849SOL    HW271387   4.268   8.105  11.199
89850SOL     OW71388   2.400   3.175   0.724
89850SOL    HW171389   2.444   3.124   0.656
89850SOL    HW271390   2.470   3.195   0.787
89851SOL     OW71391   0.405   8.796   4.564
89851SOL    HW171392   0.316   8.818   4.534
89851SOL    HW271393   0.450   8.766   4.485
89852SOL     OW71394   9.751   3.755   7.778
89852SOL    HW171395   9.798   3.742   7.861
89852SOL    HW271396   9.687   3.823   7.798
89853SOL     OW71397  14.239   5.257  13.279
89853SOL    HW171398  14.280   5.183  13.324
89853SOL    HW271399  14.240   5.231  13.187
89854SOL     OW71400   0.972   6.391   5.380
89854SOL    HW171401   0.956   6.331   5.453
89854SOL    HW271402   1.066   6.410   5.385
89855SOL     OW71403   3.524  11.091   4.906
89855SOL    HW171404   3.520  11.171   4.854
89855SOL    HW271405   3.478  11.112   4.987
89856SOL     OW71406   0.432   9.478  11.573
89856SOL    HW171407   0.522   9.452  11.552
89856SOL    HW271408   0.378   9.404  11.545
89857SOL     OW71409   8.609   5.789   4.125
89857SOL    HW171410   8.583   5.854   4.191
89857SOL    HW271411   8.698   5.815   4.101
89858SOL     OW71412   9.416   5.943   2.160
89858SOL    HW171413   9.396   5.994   2.239
89858SOL    HW271414   9.501   5.976   2.132
89859SOL     OW71415   0.007   0.133   2.674
89859SOL    HW171416  14.835   0.054   2.644
89859SOL    HW271417  14.833   0.205   2.635
89860SOL     OW71418   5.951   5.399  14.680
89860SOL    HW171419   5.998   5.345  14.616
89860SOL    HW271420   5.960   5.488  14.647
89861SOL     OW71421   7.408   5.999  11.832
89861SOL    HW171422   7.321   6.006  11.871
89861SOL    HW271423   7.415   5.907  11.805
89862SOL     OW71424   4.258   7.099  13.212
89862SOL    HW171425   4.325   7.147  13.260
89862SOL    HW271426   4.304   7.024  13.175
89863SOL     OW71427   0.119  12.942   4.326
89863SOL    HW171428   0.029  12.922   4.300
89863SOL    HW271429   0.150  13.004   4.259
89864SOL     OW71430   4.425  14.856   1.871
89864SOL    HW171431   4.391  14.812   1.949
89864SOL    HW271432   4.388   0.070   1.875
89865SOL     OW71433   4.489   0.789   0.837
89865SOL    HW171434   4.536   0.757   0.914
89865SOL    HW271435   4.508   0.883   0.835
89866SOL     OW71436  14.246   7.971   4.426
89866SOL    HW171437  14.187   7.928   4.364
89866SOL    HW271438  14.326   7.918   4.424
89867SOL     OW71439   3.506  14.368  12.890
89867SOL    HW171440   3.509  14.383  12.796
89867SOL    HW271441   3.418  14.335  12.907
89868SOL     OW71442   9.395   3.022  10.409
89868SOL    HW171443   9.400   3.008  10.503
89868SOL    HW271444   9.325   2.963  10.379
89869SOL     OW71445   1.614   3.052   0.097
89869SOL    HW171446   1.663   3.122   0.054
89869SOL    HW271447   1.662   3.035   0.178
89870SOL     OW71448   0.970   0.702   7.611
89870SOL    HW171449   1.056   0.725   7.575
89870SOL    HW271450   0.985   0.618   7.656
89871SOL     OW71451   9.781   6.911   2.805
89871SOL    HW171452   9.775   6.995   2.759
89871SOL    HW271453   9.690   6.879   2.809
89872SOL     OW71454   4.057   8.026  12.922
89872SOL    HW171455   4.054   8.117  12.892
89872SOL    HW271456   3.967   7.996  12.918
89873SOL     OW71457  13.278   7.145   8.563
89873SOL    HW171458  13.280   7.191   8.647
89873SOL    HW271459  13.352   7.180   8.514
89874SOL     OW71460  14.837   3.013   8.710
89874SOL    HW171461  14.755   2.969   8.733
89874SOL    HW271462   0.027   2.977   8.771
89875SOL     OW71463   2.305   1.473   3.065
89875SOL    HW171464   2.384   1.454   3.117
89875SOL    HW271465   2.337   1.524   2.991
89876SOL     OW71466  11.901  13.631   5.320
89876SOL    HW171467  11.962  13.630   5.394
89876SOL    HW271468  11.840  13.702   5.340
89877SOL     OW71469  14.867   9.323   9.983
89877SOL    HW171470  14.831   9.408  10.007
89877SOL    HW271471   0.014   9.281  10.066
89878SOL     OW71472   8.351   4.318   2.410
89878SOL    HW171473   8.366   4.236   2.364
89878SOL    HW271474   8.305   4.373   2.346
89879SOL     OW71475   7.248  11.377  10.789
89879SOL    HW171476   7.288  11.336  10.866
89879SOL    HW271477   7.279  11.467  10.792
89880SOL     OW71478  13.296   9.231   9.981
89880SOL    HW171479  13.302   9.323   9.955
89880SOL    HW271480  13.303   9.182   9.900
89881SOL     OW71481   0.603   7.031  13.725
89881SOL    HW171482   0.626   6.999  13.638
89881SOL    HW271483   0.518   7.073  13.714
89882SOL     OW71484   3.845  11.230  11.649
89882SOL    HW171485   3.907  11.270  11.588
89882SOL    HW271486   3.892  11.229  11.733
89883SOL     OW71487   4.890   8.807   1.221
89883SOL    HW171488   4.897   8.874   1.290
89883SOL    HW271489   4.940   8.843   1.148
89884SOL     OW71490  14.816  13.003  13.453
89884SOL    HW171491  14.807  12.921  13.403
89884SOL    HW271492  14.799  13.072  13.388
89885SOL     OW71493   1.291   6.663   5.399
89885SOL    HW171494   1.262   6.752   5.417
89885SOL    HW271495   1.364   6.674   5.337
89886SOL     OW71496   6.135   8.493   5.185
89886SOL    HW171497   6.058   8.481   5.241
89886SOL    HW271498   6.156   8.404   5.155
89887SOL     OW71499  13.151   0.267   6.140
89887SOL    HW171500  13.188   0.225   6.218
89887SOL    HW271501  13.193   0.352   6.136
89888SOL     OW71502   3.759   9.795   5.645
89888SOL    HW171503   3.755   9.888   5.622
89888SOL    HW271504   3.853   9.775   5.646
89889SOL     OW71505   4.856  14.291  13.731
89889SOL    HW171506   4.860  14.235  13.809
89889SOL    HW271507   4.923  14.357  13.746
89890SOL     OW71508   5.958   8.173   7.573
89890SOL    HW171509   6.016   8.118   7.519
89890SOL    HW271510   5.871   8.135   7.562
89891SOL     OW71511   2.945  10.834  14.554
89891SOL    HW171512   2.859  10.860  14.520
89891SOL    HW271513   2.979  10.773  14.488
89892SOL     OW71514   1.397  11.884   7.499
89892SOL    HW171515   1.303  11.878   7.517
89892SOL    HW271516   1.437  11.882   7.586
89893SOL     OW71517   0.726   4.501  12.911
89893SOL    HW171518   0.679   4.571  12.956
89893SOL    HW271519   0.713   4.424  12.966
89894SOL     OW71520   5.700  12.001  11.193
89894SOL    HW171521   5.776  12.050  11.161
89894SOL    HW271522   5.645  11.989  11.115
89895SOL     OW71523  12.022   6.237   5.335
89895SOL    HW171524  12.052   6.299   5.401
89895SOL    HW271525  11.931   6.262   5.319
89896SOL     OW71526   8.200  11.896   5.326
89896SOL    HW171527   8.246  11.945   5.257
89896SOL    HW271528   8.201  11.955   5.401
89897SOL     OW71529   9.000   0.406   0.568
89897SOL    HW171530   8.939   0.333   0.581
89897SOL    HW271531   8.954   0.465   0.508
89898SOL     OW71532  13.698   6.568   1.815
89898SOL    HW171533  13.604   6.570   1.795
89898SOL    HW271534  13.705   6.606   1.902
89899SOL     OW71535   9.689  11.806  12.508
89899SOL    HW171536   9.705  11.734  12.446
89899SOL    HW271537   9.645  11.764  12.582
89900SOL     OW71538   7.278  12.359  11.519
89900SOL    HW171539   7.247  12.359  11.428
89900SOL    HW271540   7.198  12.371  11.571
89901SOL     OW71541   2.036  14.812   6.810
89901SOL    HW171542   1.973   0.009   6.792
89901SOL    HW271543   1.985  14.732   6.799
89902SOL     OW71544  12.004  10.037  13.451
89902SOL    HW171545  11.994  10.037  13.546
89902SOL    HW271546  12.075   9.975  13.434
89903SOL     OW71547  12.270   2.319  13.245
89903SOL    HW171548  12.226   2.331  13.329
89903SOL    HW271549  12.272   2.405  13.205
89904SOL     OW71550  11.923   1.192   9.426
89904SOL    HW171551  11.950   1.217   9.515
89904SOL    HW271552  11.892   1.273   9.386
89905SOL     OW71553  11.062  10.971  13.930
89905SOL    HW171554  11.021  10.983  14.015
89905SOL    HW271555  11.087  11.059  13.903
89906SOL     OW71556   0.412   9.837   8.460
89906SOL    HW171557   0.317   9.848   8.470
89906SOL    HW271558   0.426   9.840   8.365
89907SOL     OW71559   6.795   3.707   6.513
89907SOL    HW171560   6.748   3.664   6.442
89907SOL    HW271561   6.788   3.801   6.494
89908SOL     OW71562  13.235  12.755  13.296
89908SOL    HW171563  13.295  12.715  13.233
89908SOL    HW271564  13.150  12.754  13.253
89909SOL     OW71565   4.682   9.510   5.444
89909SOL    HW171566   4.645   9.508   5.533
89909SOL    HW271567   4.611   9.479   5.388
89910SOL     OW71568   5.542   8.844  12.782
89910SOL    HW171569   5.554   8.755  12.749
89910SOL    HW271570   5.622   8.890  12.757
89911SOL     OW71571   1.905   0.980  10.299
89911SOL    HW171572   1.960   1.047  10.260
89911SOL    HW271573   1.949   0.956  10.381
89912SOL     OW71574  10.103  11.549   9.527
89912SOL    HW171575  10.084  11.642   9.534
89912SOL    HW271576  10.093  11.516   9.616
89913SOL     OW71577   1.041   3.458  10.234
89913SOL    HW171578   1.006   3.461  10.146
89913SOL    HW271579   1.030   3.367  10.262
89914SOL     OW71580  14.633   2.238   5.220
89914SOL    HW171581  14.642   2.197   5.133
89914SOL    HW271582  14.540   2.258   5.227
89915SOL     OW71583   8.221   3.172   8.392
89915SOL    HW171584   8.272   3.125   8.458
89915SOL    HW271585   8.235   3.265   8.412
89916SOL     OW71586  14.034   0.480   0.125
89916SOL    HW171587  14.066   0.492   0.215
89916SOL    HW271588  14.000   0.566   0.100
89917SOL     OW71589  11.701  13.688   8.246
89917SOL    HW171590  11.656  13.605   8.262
89917SOL    HW271591  11.680  13.742   8.322
89918SOL     OW71592  10.251   3.132  11.045
89918SOL    HW171593  10.177   3.186  11.073
89918SOL    HW271594  10.265   3.156  10.953
89919SOL     OW71595  13.329   3.416  10.081
89919SOL    HW171596  13.306   3.349  10.146
89919SOL    HW271597  13.387   3.476  10.128
89920SOL     OW71598  14.379   0.963   0.676
89920SOL    HW171599  14.401   1.050   0.641
89920SOL    HW271600  14.344   0.981   0.763
89921SOL     OW71601   1.252  14.024  13.123
89921SOL    HW171602   1.176  14.066  13.083
89921SOL    HW271603   1.291  14.092  13.178
89922SOL     OW71604  12.712   8.628   0.225
89922SOL    HW171605  12.723   8.674   0.308
89922SOL    HW271606  12.705   8.536   0.250
89923SOL     OW71607   7.858  12.017   6.970
89923SOL    HW171608   7.829  12.089   6.913
89923SOL    HW271609   7.818  11.939   6.931
89924SOL     OW71610   8.626   8.178   4.400
89924SOL    HW171611   8.585   8.221   4.475
89924SOL    HW271612   8.720   8.192   4.413
89925SOL     OW71613   2.620   8.204   2.968
89925SOL    HW171614   2.553   8.216   3.035
89925SOL    HW271615   2.619   8.110   2.951
89926SOL     OW71616  10.497   5.983  10.143
89926SOL    HW171617  10.485   6.074  10.116
89926SOL    HW271618  10.449   5.932  10.078
89927SOL     OW71619  12.094  10.005   1.133
89927SOL    HW171620  12.144   9.947   1.076
89927SOL    HW271621  12.137   9.999   1.218
89928SOL     OW71622  14.561   5.149   1.329
89928SOL    HW171623  14.589   5.153   1.420
89928SOL    HW271624  14.465   5.151   1.333
89929SOL     OW71625   7.628  12.315  11.487
89929SOL    HW171626   7.576  12.253  11.538
89929SOL    HW271627   7.630  12.395  11.540
89930SOL     OW71628   3.651   3.811  13.283
89930SOL    HW171629   3.715   3.764  13.336
89930SOL    HW271630   3.646   3.899  13.321
89931SOL     OW71631   5.308  12.995  11.518
89931SOL    HW171632   5.334  12.969  11.430
89931SOL    HW271633   5.278  13.086  11.509
89932SOL     OW71634  10.760  13.639   1.547
89932SOL    HW171635  10.829  13.591   1.591
89932SOL    HW271636  10.710  13.680   1.618
89933SOL     OW71637  14.862   9.929   0.955
89933SOL    HW171638   0.067   9.909   0.906
89933SOL    HW271639  14.808   9.850   0.947
89934SOL     OW71640   8.177   4.647   0.070
89934SOL    HW171641   8.134   4.722   0.029
89934SOL    HW271642   8.150   4.572   0.017
89935SOL     OW71643   1.901  11.899   8.182
89935SOL    HW171644   1.967  11.952   8.138
89935SOL    HW271645   1.840  11.963   8.219
89936SOL     OW71646   5.060   6.097   1.954
89936SOL    HW171647   5.003   6.023   1.932
89936SOL    HW271648   5.001   6.173   1.957
89937SOL     OW71649   5.090   3.531  12.203
89937SOL    HW171650   5.008   3.534  12.253
89937SOL    HW271651   5.150   3.586  12.253
89938SOL     OW71652  13.166   1.095   0.833
89938SOL    HW171653  13.075   1.089   0.807
89938SOL    HW271654  13.196   1.179   0.798
89939SOL     OW71655   2.672   0.877   8.109
89939SOL    HW171656   2.667   0.865   8.014
89939SOL    HW271657   2.607   0.943   8.129
89940SOL     OW71658   4.955   9.324  11.407
89940SOL    HW171659   4.935   9.331  11.500
89940SOL    HW271660   4.871   9.305  11.365
89941SOL     OW71661   5.041   4.708   3.801
89941SOL    HW171662   5.099   4.739   3.870
89941SOL    HW271663   5.089   4.724   3.720
89942SOL     OW71664  12.659   9.261  12.845
89942SOL    HW171665  12.672   9.293  12.935
89942SOL    HW271666  12.748   9.239  12.815
89943SOL     OW71667  13.916  13.488   0.155
89943SOL    HW171668  13.973  13.556   0.117
89943SOL    HW271669  13.833  13.534   0.173
89944SOL     OW71670  13.999  12.062   7.309
89944SOL    HW171671  13.965  12.040   7.396
89944SOL    HW271672  14.071  12.000   7.296
89945SOL     OW71673   4.070  10.543  13.650
89945SOL    HW171674   4.041  10.471  13.594
89945SOL    HW271675   4.162  10.523  13.668
89946SOL     OW71676   9.578   5.145   9.879
89946SOL    HW171677   9.506   5.189   9.835
89946SOL    HW271678   9.650   5.148   9.816
89947SOL     OW71679   8.050  12.099  11.579
89947SOL    HW171680   8.006  12.152  11.514
89947SOL    HW271681   8.087  12.162  11.641
89948SOL     OW71682  12.444   5.399  13.616
89948SOL    HW171683  12.406   5.340  13.681
89948SOL    HW271684  12.370   5.420  13.558
89949SOL     OW71685   4.848   9.163  11.134
89949SOL    HW171686   4.914   9.112  11.180
89949SOL    HW271687   4.810   9.220  11.201
89950SOL     OW71688   9.030   8.005   0.390
89950SOL    HW171689   9.000   7.918   0.363
89950SOL    HW271690   9.053   8.049   0.308
89951SOL     OW71691   6.112  12.888   4.170
89951SOL    HW171692   6.161  12.970   4.171
89951SOL    HW271693   6.178  12.820   4.185
89952SOL     OW71694   7.656   8.849  13.793
89952SOL    HW171695   7.665   8.835  13.887
89952SOL    HW271696   7.733   8.900  13.769
89953SOL     OW71697   2.673   4.203   8.389
89953SOL    HW171698   2.764   4.228   8.403
89953SOL    HW271699   2.624   4.284   8.396
89954SOL     OW71700  10.379   5.242  12.740
89954SOL    HW171701  10.410   5.260  12.829
89954SOL    HW271702  10.374   5.328  12.698
89955SOL     OW71703   3.691   2.565   6.368
89955SOL    HW171704   3.760   2.499   6.365
89955SOL    HW271705   3.610   2.515   6.372
89956SOL     OW71706   5.325   4.118   0.633
89956SOL    HW171707   5.235   4.100   0.606
89956SOL    HW271708   5.376   4.109   0.552
89957SOL     OW71709   9.337  13.862   5.072
89957SOL    HW171710   9.269  13.819   5.021
89957SOL    HW271711   9.391  13.908   5.007
89958SOL     OW71712   2.351  12.416  12.971
89958SOL    HW171713   2.379  12.414  13.062
89958SOL    HW271714   2.417  12.365  12.924
89959SOL     OW71715  10.004   8.103   9.656
89959SOL    HW171716   9.999   8.193   9.623
89959SOL    HW271717  10.092   8.096   9.692
89960SOL     OW71718  14.642   0.807   6.026
89960SOL    HW171719  14.708   0.743   6.054
89960SOL    HW271720  14.596   0.830   6.106
89961SOL     OW71721   2.706  10.199   0.997
89961SOL    HW171722   2.762  10.183   1.073
89961SOL    HW271723   2.730  10.131   0.934
89962SOL     OW71724  14.200   6.326   1.373
89962SOL    HW171725  14.179   6.349   1.464
89962SOL    HW271726  14.130   6.266   1.347
89963SOL     OW71727  12.417  13.161   0.698
89963SOL    HW171728  12.441  13.180   0.788
89963SOL    HW271729  12.423  13.066   0.690
89964SOL     OW71730   2.962  11.955  11.602
89964SOL    HW171731   2.931  11.943  11.692
89964SOL    HW271732   3.057  11.953  11.608
89965SOL     OW71733   2.808   1.621   4.441
89965SOL    HW171734   2.903   1.613   4.450
89965SOL    HW271735   2.779   1.536   4.409
89966SOL     OW71736   3.086   9.942   4.958
89966SOL    HW171737   3.084   9.930   4.863
89966SOL    HW271738   3.175   9.919   4.983
89967SOL     OW71739   3.992   7.326  12.235
89967SOL    HW171740   4.067   7.368  12.277
89967SOL    HW271741   4.028   7.245  12.199
89968SOL     OW71742   8.694   6.079   9.891
89968SOL    HW171743   8.666   6.044   9.807
89968SOL    HW271744   8.616   6.073   9.946
89969SOL     OW71745  13.255   9.623  12.126
89969SOL    HW171746  13.279   9.553  12.065
89969SOL    HW271747  13.178   9.589  12.172
89970SOL     OW71748  13.522   8.056   3.699
89970SOL    HW171749  13.613   8.086   3.691
89970SOL    HW271750  13.495   8.037   3.609
89971SOL     OW71751   5.528   5.968   0.769
89971SOL    HW171752   5.468   5.926   0.831
89971SOL    HW271753   5.477   6.039   0.731
89972SOL     OW71754   6.409   9.782  13.853
89972SOL    HW171755   6.426   9.825  13.769
89972SOL    HW271756   6.361   9.703  13.830
89973SOL     OW71757  12.968   4.761  10.141
89973SOL    HW171758  12.986   4.736  10.232
89973SOL    HW271759  12.953   4.855  10.145
89974SOL     OW71760   9.575  10.477   4.102
89974SOL    HW171761   9.640  10.464   4.171
89974SOL    HW271762   9.627  10.495   4.024
89975SOL     OW71763   7.912  11.929  10.510
89975SOL    HW171764   7.944  11.878  10.584
89975SOL    HW271765   7.831  11.968  10.541
89976SOL     OW71766   1.898   7.580   1.295
89976SOL    HW171767   1.854   7.664   1.293
89976SOL    HW271768   1.956   7.585   1.371
89977SOL     OW71769   2.394   3.466   4.785
89977SOL    HW171770   2.306   3.429   4.792
89977SOL    HW271771   2.452   3.393   4.805
89978SOL     OW71772   8.740   3.688   5.598
89978SOL    HW171773   8.715   3.719   5.685
89978SOL    HW271774   8.836   3.689   5.598
89979SOL     OW71775  12.119   8.951   3.058
89979SOL    HW171776  12.066   8.893   3.003
89979SOL    HW271777  12.202   8.904   3.069
89980SOL     OW71778   9.192  12.394   2.163
89980SOL    HW171779   9.124  12.454   2.193
89980SOL    HW271780   9.273  12.443   2.174
89981SOL     OW71781   0.652   5.074  13.976
89981SOL    HW171782   0.701   5.117  14.047
89981SOL    HW271783   0.682   5.117  13.896
89982SOL     OW71784  10.834   6.613   2.041
89982SOL    HW171785  10.796   6.672   2.106
89982SOL    HW271786  10.791   6.635   1.959
89983SOL     OW71787  13.739  13.307   5.982
89983SOL    HW171788  13.749  13.216   6.007
89983SOL    HW271789  13.677  13.305   5.908
89984SOL     OW71790  12.502   6.781  11.735
89984SOL    HW171791  12.498   6.877  11.745
89984SOL    HW271792  12.568   6.767  11.668
89985SOL     OW71793  11.361   2.400  13.204
89985SOL    HW171794  11.271   2.371  13.218
89985SOL    HW271795  11.396   2.413  13.292
89986SOL     OW71796   7.226   2.532   7.849
89986SOL    HW171797   7.202   2.616   7.889
89986SOL    HW271798   7.164   2.469   7.886
89987SOL     OW71799  10.083  14.633   5.770
89987SOL    HW171800  10.080  14.574   5.694
89987SOL    HW271801  10.168  14.616   5.810
89988SOL     OW71802   9.267  10.076  10.014
89988SOL    HW171803   9.284  10.149   9.954
89988SOL    HW271804   9.272  10.114  10.101
89989SOL     OW71805   5.311   3.674   9.247
89989SOL    HW171806   5.339   3.749   9.299
89989SOL    HW271807   5.335   3.598   9.300
89990SOL     OW71808  13.102   7.732   0.574
89990SOL    HW171809  13.083   7.774   0.490
89990SOL    HW271810  13.184   7.772   0.603
89991SOL     OW71811   6.152   3.303   5.920
89991SOL    HW171812   6.081   3.287   5.982
89991SOL    HW271813   6.197   3.220   5.912
89992SOL     OW71814  11.561   1.355  12.936
89992SOL    HW171815  11.538   1.341  12.844
89992SOL    HW271816  11.622   1.284  12.956
89993SOL     OW71817   6.513   6.581   2.617
89993SOL    HW171818   6.472   6.580   2.703
89993SOL    HW271819   6.495   6.494   2.581
89994SOL     OW71820   5.853  13.859   2.245
89994SOL    HW171821   5.835  13.926   2.180
89994SOL    HW271822   5.949  13.856   2.251
89995SOL     OW71823   5.602   2.929   3.835
89995SOL    HW171824   5.549   2.989   3.888
89995SOL    HW271825   5.644   2.986   3.770
89996SOL     OW71826  14.598   4.316   0.963
89996SOL    HW171827  14.570   4.228   0.936
89996SOL    HW271828  14.545   4.374   0.908
89997SOL     OW71829  14.750  10.139  12.496
89997SOL    HW171830  14.728  10.096  12.578
89997SOL    HW271831  14.835  10.102  12.472
89998SOL     OW71832   0.149   1.937   9.653
89998SOL    HW171833   0.167   2.019   9.697
89998SOL    HW271834   0.153   1.958   9.560
89999SOL     OW71835   2.279   5.954   4.656
89999SOL    HW171836   2.195   5.994   4.678
89999SOL    HW271837   2.280   5.950   4.561
90000SOL     OW71838   7.607   0.421  14.413
90000SOL    HW171839   7.610   0.504  14.367
90000SOL    HW271840   7.676   0.368  14.373
90001SOL     OW71841   7.042   5.397  10.554
90001SOL    HW171842   7.105   5.466  10.575
90001SOL    HW271843   7.094   5.317  10.553
90002SOL     OW71844  10.687   5.099  13.889
90002SOL    HW171845  10.616   5.037  13.872
90002SOL    HW271846  10.720   5.121  13.802
90003SOL     OW71847   5.273   2.861   6.128
90003SOL    HW171848   5.306   2.950   6.115
90003SOL    HW271849   5.268   2.824   6.040
90004SOL     OW71850   8.990   9.820   5.076
90004SOL    HW171851   8.965   9.799   5.165
90004SOL    HW271852   9.039   9.744   5.045
90005SOL     OW71853   0.551   9.777   0.459
90005SOL    HW171854   0.602   9.795   0.538
90005SOL    HW271855   0.610   9.799   0.387
90006SOL     OW71856   6.211   9.311   5.563
90006SOL    HW171857   6.123   9.318   5.528
90006SOL    HW271858   6.267   9.303   5.486
90007SOL     OW71859   8.644   7.509   2.122
90007SOL    HW171860   8.680   7.554   2.199
90007SOL    HW271861   8.627   7.580   2.060
90008SOL     OW71862   6.681   7.660   3.541
90008SOL    HW171863   6.633   7.742   3.534
90008SOL    HW271864   6.690   7.645   3.635
90009SOL     OW71865   3.044   6.051   0.399
90009SOL    HW171866   3.073   6.123   0.342
90009SOL    HW271867   3.086   6.069   0.483
90010SOL     OW71868   7.987  14.025   2.718
90010SOL    HW171869   8.038  14.045   2.640
90010SOL    HW271870   8.026  14.078   2.788
90011SOL     OW71871   2.907   2.608  13.194
90011SOL    HW171872   2.884   2.688  13.146
90011SOL    HW271873   2.975   2.636  13.255
90012SOL     OW71874   8.266  14.681   9.246
90012SOL    HW171875   8.185  14.631   9.239
90012SOL    HW271876   8.260  14.747   9.177
90013SOL     OW71877   4.189  13.365  10.840
90013SOL    HW171878   4.225  13.343  10.927
90013SOL    HW271879   4.113  13.420  10.859
90014SOL     OW71880   8.543   1.003   3.650
90014SOL    HW171881   8.457   0.968   3.626
90014SOL    HW271882   8.580   0.937   3.708
90015SOL     OW71883   2.074   3.171  10.995
90015SOL    HW171884   2.117   3.151  11.078
90015SOL    HW271885   1.989   3.208  11.020
90016SOL     OW71886   2.259   3.316   9.376
90016SOL    HW171887   2.261   3.409   9.351
90016SOL    HW271888   2.181   3.308   9.431
90017SOL     OW71889   6.970   9.419   3.371
90017SOL    HW171890   6.920   9.501   3.364
90017SOL    HW271891   7.061   9.447   3.370
90018SOL     OW71892  13.686   4.927  11.957
90018SOL    HW171893  13.699   5.022  11.952
90018SOL    HW271894  13.770   4.892  11.986
90019SOL     OW71895   1.500   7.972   5.403
90019SOL    HW171896   1.562   8.024   5.454
90019SOL    HW271897   1.427   7.956   5.463
90020SOL     OW71898   4.589   9.148   1.942
90020SOL    HW171899   4.541   9.079   1.989
90020SOL    HW271900   4.549   9.230   1.972
90021SOL     OW71901   1.871   2.782  13.530
90021SOL    HW171902   1.838   2.838  13.459
90021SOL    HW271903   1.837   2.695  13.509
90022SOL     OW71904   3.494  13.122   9.419
90022SOL    HW171905   3.497  13.211   9.383
90022SOL    HW271906   3.401  13.098   9.414
90023SOL     OW71907   3.543  10.598   3.427
90023SOL    HW171908   3.590  10.624   3.507
90023SOL    HW271909   3.484  10.528   3.456
90024SOL     OW71910   2.018   5.907   4.773
90024SOL    HW171911   2.059   5.955   4.846
90024SOL    HW271912   1.969   5.837   4.815
90025SOL     OW71913   2.628   7.621  12.016
90025SOL    HW171914   2.557   7.666  12.061
90025SOL    HW271915   2.655   7.682  11.947
90026SOL     OW71916   9.977  13.847   6.268
90026SOL    HW171917   9.898  13.794   6.257
90026SOL    HW271918   9.975  13.908   6.194
90027SOL     OW71919   8.296   4.687   6.002
90027SOL    HW171920   8.311   4.682   5.908
90027SOL    HW271921   8.384   4.699   6.040
90028SOL     OW71922  11.104   6.965   2.652
90028SOL    HW171923  11.189   6.994   2.617
90028SOL    HW271924  11.051   6.950   2.574
90029SOL     OW71925   4.511  11.228  12.903
90029SOL    HW171926   4.583  11.257  12.847
90029SOL    HW271927   4.440  11.289  12.885
90030SOL     OW71928   2.900   8.903   8.533
90030SOL    HW171929   2.951   8.864   8.462
90030SOL    HW271930   2.957   8.972   8.568
90031SOL     OW71931  13.321   2.868   8.741
90031SOL    HW171932  13.327   2.839   8.832
90031SOL    HW271933  13.338   2.962   8.745
90032SOL     OW71934  13.818   2.346   1.215
90032SOL    HW171935  13.800   2.261   1.256
90032SOL    HW271936  13.900   2.376   1.255
90033SOL     OW71937   3.469   0.328   8.699
90033SOL    HW171938   3.419   0.381   8.637
90033SOL    HW271939   3.506   0.258   8.646
90034SOL     OW71940   4.700   4.480   0.421
90034SOL    HW171941   4.666   4.452   0.336
90034SOL    HW271942   4.696   4.576   0.418
90035SOL     OW71943   2.964  10.417   3.324
90035SOL    HW171944   2.946  10.362   3.248
90035SOL    HW271945   3.018  10.488   3.289
90036SOL     OW71946   1.655   6.387  14.154
90036SOL    HW171947   1.737   6.380  14.104
90036SOL    HW271948   1.602   6.313  14.124
90037SOL     OW71949   7.174   4.131  12.989
90037SOL    HW171950   7.093   4.110  12.943
90037SOL    HW271951   7.148   4.141  13.081
90038SOL     OW71952   6.164   8.540   9.411
90038SOL    HW171953   6.238   8.505   9.461
90038SOL    HW271954   6.200   8.615   9.364
90039SOL     OW71955   0.856  11.529   8.280
90039SOL    HW171956   0.907  11.531   8.361
90039SOL    HW271957   0.880  11.446   8.238
90040SOL     OW71958   1.994   6.608  10.970
90040SOL    HW171959   1.979   6.619  10.876
90040SOL    HW271960   1.920   6.556  11.001
90041SOL     OW71961   8.387   0.615   9.815
90041SOL    HW171962   8.375   0.609   9.909
90041SOL    HW271963   8.422   0.703   9.800
90042SOL     OW71964   1.615  12.696  14.427
90042SOL    HW171965   1.586  12.712  14.337
90042SOL    HW271966   1.690  12.638  14.418
90043SOL     OW71967  13.350  11.939  10.030
90043SOL    HW171968  13.303  11.942  10.114
90043SOL    HW271969  13.283  11.955   9.964
90044SOL     OW71970   4.634   0.141  13.592
90044SOL    HW171971   4.550   0.181  13.571
90044SOL    HW271972   4.656   0.088  13.515
90045SOL     OW71973   7.797  14.829   7.529
90045SOL    HW171974   7.787   0.024   7.595
90045SOL    HW271975   7.839  14.757   7.575
90046SOL     OW71976   9.005  13.417   9.415
90046SOL    HW171977   8.916  13.448   9.393
90046SOL    HW271978   9.053  13.424   9.332
90047SOL     OW71979  14.185  14.576   5.837
90047SOL    HW171980  14.133  14.522   5.896
90047SOL    HW271981  14.121  14.627   5.788
90048SOL     OW71982   2.699  10.072   3.279
90048SOL    HW171983   2.613  10.100   3.311
90048SOL    HW271984   2.681  10.026   3.197
90049SOL     OW71985  14.407  14.218  10.455
90049SOL    HW171986  14.332  14.219  10.514
90049SOL    HW271987  14.452  14.301  10.472
90050SOL     OW71988  10.963  14.435   7.125
90050SOL    HW171989  11.044  14.406   7.084
90050SOL    HW271990  10.894  14.393   7.074
90051SOL     OW71991  13.142   5.988  14.043
90051SOL    HW171992  13.233   5.987  14.074
90051SOL    HW271993  13.150   5.983  13.948
90052SOL     OW71994   4.036   8.541   7.232
90052SOL    HW171995   4.038   8.500   7.319
90052SOL    HW271996   4.124   8.577   7.221
90053SOL     OW71997  14.163   8.860  11.918
90053SOL    HW171998  14.203   8.821  11.840
90053SOL    HW271999  14.229   8.921  11.951
90054SOL     OW72000   1.651  11.245  11.791
90054SOL    HW172001   1.681  11.257  11.881
90054SOL    HW272002   1.583  11.311  11.779
90055SOL     OW72003   4.374  12.770  10.149
90055SOL    HW172004   4.406  12.726  10.070
90055SOL    HW272005   4.337  12.701  10.202
90056SOL     OW72006  13.506   6.065   8.193
90056SOL    HW172007  13.559   5.995   8.155
90056SOL    HW272008  13.422   6.024   8.212
90057SOL     OW72009   5.064   0.186   3.145
90057SOL    HW172010   4.970   0.199   3.156
90057SOL    HW272011   5.089   0.124   3.214
90058SOL     OW72012  14.550  13.012   6.214
90058SOL    HW172013  14.627  13.061   6.188
90058SOL    HW272014  14.548  13.019   6.310
90059SOL     OW72015   9.801  10.950   1.935
90059SOL    HW172016   9.847  10.999   2.004
90059SOL    HW272017   9.869  10.893   1.899
90060SOL     OW72018   7.156  10.103   0.477
90060SOL    HW172019   7.224  10.062   0.424
90060SOL    HW272020   7.147  10.191   0.440
90061SOL     OW72021  14.193  11.194   9.005
90061SOL    HW172022  14.108  11.227   8.976
90061SOL    HW272023  14.230  11.266   9.056
90062SOL     OW72024   2.415   5.220   1.487
90062SOL    HW172025   2.352   5.162   1.530
90062SOL    HW272026   2.494   5.167   1.477
90063SOL     OW72027   0.532  13.082   4.884
90063SOL    HW172028   0.530  13.177   4.871
90063SOL    HW272029   0.513  13.045   4.798
90064SOL     OW72030   1.951   2.280   9.168
90064SOL    HW172031   1.978   2.370   9.154
90064SOL    HW272032   2.017   2.227   9.122
90065SOL     OW72033   7.949   6.393   5.560
90065SOL    HW172034   7.955   6.402   5.465
90065SOL    HW272035   8.032   6.354   5.587
90066SOL     OW72036  11.952   1.593  11.578
90066SOL    HW172037  11.953   1.617  11.670
90066SOL    HW272038  11.969   1.675  11.531
90067SOL     OW72039  12.717   0.038   0.457
90067SOL    HW172040  12.641   0.060   0.402
90067SOL    HW272041  12.784   0.101   0.431
90068SOL     OW72042   4.339   8.682   2.745
90068SOL    HW172043   4.389   8.612   2.703
90068SOL    HW272044   4.402   8.755   2.750
90069SOL     OW72045   4.697  13.190  11.294
90069SOL    HW172046   4.782  13.202  11.337
90069SOL    HW272047   4.718  13.159  11.206
90070SOL     OW72048  14.621   0.010  11.130
90070SOL    HW172049  14.618  14.854  11.039
90070SOL    HW272050  14.533  14.869  11.164
90071SOL     OW72051   0.882  14.092   7.354
90071SOL    HW172052   0.794  14.095   7.316
90071SOL    HW272053   0.897  14.181   7.386
90072SOL     OW72054   0.233  13.286   9.591
90072SOL    HW172055   0.139  13.268   9.598
90072SOL    HW272056   0.271  13.243   9.668
90073SOL     OW72057  14.577   4.284   7.873
90073SOL    HW172058  14.637   4.274   7.799
90073SOL    HW272059  14.498   4.321   7.835
90074SOL     OW72060   5.126   4.445  13.599
90074SOL    HW172061   5.144   4.534  13.631
90074SOL    HW272062   5.108   4.395  13.679
90075SOL     OW72063   0.741  14.451   6.714
90075SOL    HW172064   0.733  14.391   6.641
90075SOL    HW272065   0.835  14.459   6.729
90076SOL     OW72066   8.263  14.191   0.954
90076SOL    HW172067   8.192  14.253   0.972
90076SOL    HW272068   8.341  14.232   0.992
90077SOL     OW72069   3.579   6.493   1.295
90077SOL    HW172070   3.517   6.428   1.262
90077SOL    HW272071   3.532   6.536   1.367
90078SOL     OW72072   0.360   5.954   8.865
90078SOL    HW172073   0.377   6.047   8.847
90078SOL    HW272074   0.317   5.954   8.950
90079SOL     OW72075   7.046   9.526   1.557
90079SOL    HW172076   7.038   9.607   1.508
90079SOL    HW272077   7.138   9.503   1.551
90080SOL     OW72078   5.377  12.444   8.680
90080SOL    HW172079   5.387  12.527   8.633
90080SOL    HW272080   5.445  12.447   8.747
90081SOL     OW72081   7.799   5.925  12.223
90081SOL    HW172082   7.706   5.939  12.243
90081SOL    HW272083   7.815   5.982  12.147
90082SOL     OW72084   9.536  14.645  10.910
90082SOL    HW172085   9.566  14.730  10.878
90082SOL    HW272086   9.463  14.623  10.852
90083SOL     OW72087  14.083  11.778   7.241
90083SOL    HW172088  14.065  11.715   7.171
90083SOL    HW272089  14.139  11.731   7.302
90084SOL     OW72090   2.896  14.248  12.615
90084SOL    HW172091   2.816  14.197  12.598
90084SOL    HW272092   2.932  14.266  12.528
90085SOL     OW72093   4.716   9.281   2.932
90085SOL    HW172094   4.789   9.303   2.874
90085SOL    HW272095   4.751   9.214   2.991
90086SOL     OW72096   7.092  14.374   0.406
90086SOL    HW172097   7.135  14.289   0.400
90086SOL    HW272098   7.162  14.438   0.391
90087SOL     OW72099  12.177   3.613   9.316
90087SOL    HW172100  12.156   3.545   9.380
90087SOL    HW272101  12.098   3.667   9.312
90088SOL     OW72102   1.824   5.442  10.397
90088SOL    HW172103   1.912   5.429  10.433
90088SOL    HW272104   1.779   5.496  10.461
90089SOL     OW72105   3.955   0.634  10.858
90089SOL    HW172106   4.040   0.622  10.900
90089SOL    HW272107   3.953   0.568  10.788
90090SOL     OW72108   8.780   8.742   2.665
90090SOL    HW172109   8.798   8.810   2.600
90090SOL    HW272110   8.862   8.694   2.673
90091SOL     OW72111   8.300  12.899   1.473
90091SOL    HW172112   8.257  12.965   1.528
90091SOL    HW272113   8.381  12.880   1.519
90092SOL     OW72114  13.930   0.414   5.012
90092SOL    HW172115  13.989   0.468   5.064
90092SOL    HW272116  13.864   0.384   5.075
90093SOL     OW72117   4.161   7.844  10.528
90093SOL    HW172118   4.220   7.849  10.603
90093SOL    HW272119   4.116   7.928  10.526
90094SOL     OW72120   3.919  13.061   3.918
90094SOL    HW172121   3.826  13.045   3.936
90094SOL    HW272122   3.920  13.124   3.846
90095SOL     OW72123   5.449   2.477  11.763
90095SOL    HW172124   5.531   2.498  11.718
90095SOL    HW272125   5.455   2.383  11.781
90096SOL     OW72126   0.712   4.396   6.899
90096SOL    HW172127   0.729   4.483   6.865
90096SOL    HW272128   0.798   4.357   6.912
90097SOL     OW72129   1.118   7.677  10.674
90097SOL    HW172130   1.127   7.597  10.623
90097SOL    HW272131   1.029   7.676  10.707
90098SOL     OW72132   3.840   6.765  12.109
90098SOL    HW172133   3.808   6.855  12.105
90098SOL    HW272134   3.892   6.762  12.188
90099SOL     OW72135   5.798   2.381   1.008
90099SOL    HW172136   5.837   2.305   0.964
90099SOL    HW272137   5.730   2.411   0.949
90100SOL     OW72138   1.663   2.568  11.647
90100SOL    HW172139   1.641   2.636  11.583
90100SOL    HW272140   1.758   2.563  11.646
90101SOL     OW72141   4.594  11.794   6.903
90101SOL    HW172142   4.675  11.844   6.911
90101SOL    HW272143   4.556  11.824   6.820
90102SOL     OW72144  10.582   9.702  12.150
90102SOL    HW172145  10.597   9.608  12.140
90102SOL    HW272146  10.641   9.743  12.087
90103SOL     OW72147   9.941   0.227   6.555
90103SOL    HW172148   9.868   0.236   6.493
90103SOL    HW272149   9.990   0.309   6.546
90104SOL     OW72150   4.403   8.343   2.228
90104SOL    HW172151   4.468   8.318   2.293
90104SOL    HW272152   4.436   8.306   2.146
90105SOL     OW72153   0.891  13.080  12.401
90105SOL    HW172154   0.813  13.028  12.418
90105SOL    HW272155   0.944  13.070  12.481
90106SOL     OW72156   0.025   6.398   8.352
90106SOL    HW172157   0.114   6.394   8.316
90106SOL    HW272158  14.859   6.314   8.327
90107SOL     OW72159   0.387   9.007  14.161
90107SOL    HW172160   0.426   9.095  14.156
90107SOL    HW272161   0.460   8.948  14.143
90108SOL     OW72162  14.133  13.626  11.408
90108SOL    HW172163  14.170  13.553  11.457
90108SOL    HW272164  14.160  13.611  11.317
90109SOL     OW72165   4.777  14.107   1.012
90109SOL    HW172166   4.840  14.171   1.045
90109SOL    HW272167   4.831  14.041   0.968
90110SOL     OW72168   9.413   4.350   8.394
90110SOL    HW172169   9.416   4.443   8.419
90110SOL    HW272170   9.346   4.346   8.326
90111SOL     OW72171   9.530   3.746   3.613
90111SOL    HW172172   9.526   3.650   3.620
90111SOL    HW272173   9.532   3.776   3.704
90112SOL     OW72174   2.752   0.496  11.910
90112SOL    HW172175   2.680   0.439  11.883
90112SOL    HW272176   2.829   0.440  11.909
90113SOL     OW72177  12.451   8.814   1.195
90113SOL    HW172178  12.356   8.824   1.201
90113SOL    HW272179  12.466   8.720   1.191
90114SOL     OW72180   2.258   7.269   5.868
90114SOL    HW172181   2.314   7.333   5.824
90114SOL    HW272182   2.314   7.193   5.882
90115SOL     OW72183  11.871  13.839   2.851
90115SOL    HW172184  11.787  13.806   2.819
90115SOL    HW272185  11.859  13.934   2.854
90116SOL     OW72186  11.300   5.117   5.208
90116SOL    HW172187  11.307   5.070   5.126
90116SOL    HW272188  11.238   5.188   5.190
90117SOL     OW72189  14.817   2.197   1.116
90117SOL    HW172190  14.768   2.122   1.082
90117SOL    HW272191  14.861   2.164   1.194
90118SOL     OW72192  14.206   0.963   3.990
90118SOL    HW172193  14.274   0.923   4.044
90118SOL    HW272194  14.176   1.039   4.040
90119SOL     OW72195  12.257  10.193   1.575
90119SOL    HW172196  12.304  10.179   1.657
90119SOL    HW272197  12.165  10.181   1.599
90120SOL     OW72198   5.723   0.911   5.146
90120SOL    HW172199   5.743   0.835   5.200
90120SOL    HW272200   5.639   0.942   5.178
90121SOL     OW72201   6.150   4.389  10.130
90121SOL    HW172202   6.071   4.436  10.158
90121SOL    HW272203   6.221   4.454  10.139
90122SOL     OW72204   6.058  13.465   5.392
90122SOL    HW172205   6.061  13.432   5.482
90122SOL    HW272206   6.058  13.386   5.338
90123SOL     OW72207   2.116   9.143   9.663
90123SOL    HW172208   2.168   9.148   9.582
90123SOL    HW272209   2.178   9.110   9.728
90124SOL     OW72210  10.695   4.676   8.518
90124SOL    HW172211  10.710   4.749   8.577
90124SOL    HW272212  10.772   4.676   8.461
90125SOL     OW72213   1.955   2.484   6.062
90125SOL    HW172214   2.027   2.472   6.000
90125SOL    HW272215   1.953   2.579   6.077
90126SOL     OW72216  13.577   6.419   4.366
90126SOL    HW172217  13.490   6.400   4.402
90126SOL    HW272218  13.635   6.418   4.442
90127SOL     OW72219   6.853   0.587  13.748
90127SOL    HW172220   6.924   0.570  13.686
90127SOL    HW272221   6.816   0.501  13.767
90128SOL     OW72222   1.263   8.652   6.842
90128SOL    HW172223   1.345   8.680   6.799
90128SOL    HW272224   1.220   8.734   6.865
90129SOL     OW72225  14.329  10.865   0.553
90129SOL    HW172226  14.344  10.835   0.464
90129SOL    HW272227  14.415  10.861   0.595
90130SOL     OW72228   0.744   9.444  10.142
90130SOL    HW172229   0.681   9.451  10.213
90130SOL    HW272230   0.820   9.402  10.181
90131SOL     OW72231   8.299  10.080  11.162
90131SOL    HW172232   8.250  10.122  11.092
90131SOL    HW272233   8.320  10.150  11.223
90132SOL     OW72234   9.503  13.095  10.725
90132SOL    HW172235   9.408  13.087  10.735
90132SOL    HW272236   9.517  13.186  10.700
90133SOL     OW72237  12.008  12.367   9.338
90133SOL    HW172238  12.038  12.294   9.394
90133SOL    HW272239  11.988  12.326   9.254
90134SOL     OW72240   5.395   2.669  10.333
90134SOL    HW172241   5.487   2.695  10.337
90134SOL    HW272242   5.348   2.740  10.375
90135SOL     OW72243   3.843   6.359   0.986
90135SOL    HW172244   3.795   6.395   0.911
90135SOL    HW272245   3.831   6.423   1.056
90136SOL     OW72246  10.493   2.924  14.524
90136SOL    HW172247  10.532   2.927  14.436
90136SOL    HW272248  10.490   3.016  14.552
90137SOL     OW72249  14.413   8.066  10.586
90137SOL    HW172250  14.345   8.011  10.624
90137SOL    HW272251  14.463   8.008  10.530
90138SOL     OW72252  14.182   1.387   9.976
90138SOL    HW172253  14.277   1.395   9.988
90138SOL    HW272254  14.150   1.477   9.977
90139SOL     OW72255   6.113  11.408  13.126
90139SOL    HW172256   6.101  11.406  13.221
90139SOL    HW272257   6.207  11.392  13.114
90140SOL     OW72258  11.339   8.482   3.192
90140SOL    HW172259  11.419   8.481   3.139
90140SOL    HW272260  11.307   8.392   3.188
90141SOL     OW72261  10.703  12.784  12.165
90141SOL    HW172262  10.658  12.857  12.122
90141SOL    HW272263  10.633  12.732  12.203
90142SOL     OW72264  10.887  12.748   2.064
90142SOL    HW172265  10.943  12.673   2.088
90142SOL    HW272266  10.939  12.797   2.000
90143SOL     OW72267   3.181   5.661  14.633
90143SOL    HW172268   3.148   5.574  14.654
90143SOL    HW272269   3.133   5.719  14.692
90144SOL     OW72270   7.029   0.596  12.141
90144SOL    HW172271   7.048   0.588  12.047
90144SOL    HW272272   6.937   0.572  12.149
90145SOL     OW72273  11.551  11.331  11.758
90145SOL    HW172274  11.534  11.254  11.704
90145SOL    HW272275  11.552  11.298  11.847
90146SOL     OW72276   6.598   2.503   4.708
90146SOL    HW172277   6.606   2.417   4.749
90146SOL    HW272278   6.588   2.563   4.782
90147SOL     OW72279   1.112   7.687   4.509
90147SOL    HW172280   1.073   7.668   4.424
90147SOL    HW272281   1.157   7.606   4.534
90148SOL     OW72282   5.283   1.296  14.175
90148SOL    HW172283   5.302   1.206  14.199
90148SOL    HW272284   5.329   1.349  14.240
90149SOL     OW72285   0.062   1.078   7.215
90149SOL    HW172286  14.874   1.088   7.143
90149SOL    HW272287   0.009   1.046   7.288
90150SOL     OW72288   0.712   2.456   4.145
90150SOL    HW172289   0.788   2.507   4.174
90150SOL    HW272290   0.749   2.377   4.106
90151SOL     OW72291   1.712   0.180   4.682
90151SOL    HW172292   1.632   0.223   4.712
90151SOL    HW272293   1.694   0.155   4.591
90152SOL     OW72294   0.493   7.243  10.382
90152SOL    HW172295   0.409   7.274  10.417
90152SOL    HW272296   0.530   7.320  10.338
90153SOL     OW72297  10.344   5.448   1.442
90153SOL    HW172298  10.388   5.520   1.487
90153SOL    HW272299  10.259   5.441   1.485
90154SOL     OW72300   9.704   1.670   6.799
90154SOL    HW172301   9.664   1.753   6.827
90154SOL    HW272302   9.732   1.686   6.709
90155SOL     OW72303   3.208   3.634  10.931
90155SOL    HW172304   3.222   3.686  11.010
90155SOL    HW272305   3.147   3.686  10.878
90156SOL     OW72306  12.087   1.329   6.296
90156SOL    HW172307  12.176   1.296   6.283
90156SOL    HW272308  12.058   1.289   6.378
90157SOL     OW72309  10.250   6.826   1.247
90157SOL    HW172310  10.291   6.876   1.177
90157SOL    HW272311  10.319   6.771   1.282
90158SOL     OW72312  13.418   6.875   8.317
90158SOL    HW172313  13.491   6.931   8.291
90158SOL    HW272314  13.441   6.845   8.405
90159SOL     OW72315  12.413  14.063   8.920
90159SOL    HW172316  12.372  14.111   8.848
90159SOL    HW272317  12.377  13.974   8.913
90160SOL     OW72318   1.001  14.549   6.288
90160SOL    HW172319   1.054  14.519   6.214
90160SOL    HW272320   0.929  14.598   6.249
90161SOL     OW72321   9.313   4.810   5.286
90161SOL    HW172322   9.230   4.765   5.272
90161SOL    HW272323   9.342   4.781   5.373
90162SOL     OW72324   8.473   7.370   1.065
90162SOL    HW172325   8.478   7.394   1.157
90162SOL    HW272326   8.379   7.363   1.047
90163SOL     OW72327  14.603   2.927   8.783
90163SOL    HW172328  14.552   2.856   8.744
90163SOL    HW272329  14.548   3.005   8.774
90164SOL     OW72330  14.563   4.200   3.630
90164SOL    HW172331  14.508   4.124   3.647
90164SOL    HW272332  14.636   4.191   3.692
90165SOL     OW72333   4.720   4.271   6.149
90165SOL    HW172334   4.732   4.176   6.151
90165SOL    HW272335   4.712   4.292   6.056
90166SOL     OW72336  12.759  12.281   5.882
90166SOL    HW172337  12.770  12.329   5.964
90166SOL    HW272338  12.742  12.191   5.909
90167SOL     OW72339   7.115   9.987  12.546
90167SOL    HW172340   7.124   9.892  12.544
90167SOL    HW272341   7.125  10.013  12.454
90168SOL     OW72342   3.889   0.701   6.929
90168SOL    HW172343   3.970   0.734   6.889
90168SOL    HW272344   3.914   0.678   7.018
90169SOL     OW72345   1.011   6.426   3.539
90169SOL    HW172346   1.044   6.368   3.608
90169SOL    HW272347   0.916   6.414   3.541
90170SOL     OW72348   2.312   5.378   3.220
90170SOL    HW172349   2.356   5.453   3.260
90170SOL    HW272350   2.242   5.356   3.282
90171SOL     OW72351  11.963   5.394   4.399
90171SOL    HW172352  12.050   5.373   4.433
90171SOL    HW272353  11.940   5.320   4.343
90172SOL     OW72354   2.939  10.096  12.314
90172SOL    HW172355   3.030  10.109  12.337
90172SOL    HW272356   2.908  10.182  12.288
90173SOL     OW72357  11.021  10.990   1.686
90173SOL    HW172358  10.984  10.904   1.666
90173SOL    HW272359  10.979  11.016   1.768
90174SOL     OW72360   2.282   7.532  11.997
90174SOL    HW172361   2.268   7.616  11.954
90174SOL    HW272362   2.202   7.518  12.048
90175SOL     OW72363   5.690  12.775  12.849
90175SOL    HW172364   5.761  12.750  12.790
90175SOL    HW272365   5.734  12.800  12.930
90176SOL     OW72366  10.945  11.919   9.562
90176SOL    HW172367  10.956  12.013   9.545
90176SOL    HW272368  11.033  11.883   9.558
90177SOL     OW72369  11.561   7.763  10.265
90177SOL    HW172370  11.625   7.766  10.194
90177SOL    HW272371  11.555   7.670  10.289
90178SOL     OW72372   7.561   0.596   0.350
90178SOL    HW172373   7.606   0.680   0.359
90178SOL    HW272374   7.630   0.534   0.328
90179SOL     OW72375   1.234   7.760   6.280
90179SOL    HW172376   1.171   7.780   6.348
90179SOL    HW272377   1.308   7.819   6.297
90180SOL     OW72378   5.044   8.006  14.400
90180SOL    HW172379   5.124   8.025  14.352
90180SOL    HW272380   4.990   7.956  14.339
90181SOL     OW72381   0.986   1.359   7.054
90181SOL    HW172382   0.987   1.270   7.087
90181SOL    HW272383   0.986   1.414   7.133
90182SOL     OW72384  10.680  13.426  12.815
90182SOL    HW172385  10.690  13.413  12.720
90182SOL    HW272386  10.636  13.347  12.845
90183SOL     OW72387  12.348   8.002   8.509
90183SOL    HW172388  12.402   8.043   8.441
90183SOL    HW272389  12.313   8.076   8.559
90184SOL     OW72390   5.636   7.525  14.379
90184SOL    HW172391   5.568   7.459  14.365
90184SOL    HW272392   5.694   7.485  14.444
90185SOL     OW72393  14.066   1.142   5.260
90185SOL    HW172394  14.119   1.065   5.241
90185SOL    HW272395  14.089   1.166   5.350
90186SOL     OW72396  13.023   0.571  14.756
90186SOL    HW172397  13.071   0.654  14.759
90186SOL    HW272398  12.953   0.586  14.692
90187SOL     OW72399   0.368  14.614   5.886
90187SOL    HW172400   0.314  14.677   5.839
90187SOL    HW272401   0.405  14.664   5.959
90188SOL     OW72402   5.057   7.847   9.325
90188SOL    HW172403   5.020   7.902   9.257
90188SOL    HW272404   5.148   7.834   9.298
90189SOL     OW72405   8.173  10.732  14.659
90189SOL    HW172406   8.226  10.804  14.628
90189SOL    HW272407   8.099  10.774  14.703
90190SOL     OW72408   4.393   2.213   2.611
90190SOL    HW172409   4.341   2.251   2.540
90190SOL    HW272410   4.406   2.122   2.585
90191SOL     OW72411   8.993   6.575  11.946
90191SOL    HW172412   9.065   6.573  12.009
90191SOL    HW272413   8.914   6.574  12.000
90192SOL     OW72414   0.067   8.277  12.022
90192SOL    HW172415   0.069   8.324  12.105
90192SOL    HW272416  14.873   8.210  12.034
90193SOL     OW72417   0.342   2.408   5.641
90193SOL    HW172418   0.315   2.398   5.550
90193SOL    HW272419   0.301   2.490   5.670
90194SOL     OW72420   2.905   0.438   9.026
90194SOL    HW172421   2.973   0.410   8.966
90194SOL    HW272422   2.925   0.394   9.108
90195SOL     OW72423   4.372   9.501   4.117
90195SOL    HW172424   4.466   9.517   4.113
90195SOL    HW272425   4.344   9.497   4.025
90196SOL     OW72426  11.821  14.122   1.283
90196SOL    HW172427  11.756  14.154   1.345
90196SOL    HW272428  11.847  14.036   1.316
90197SOL     OW72429  10.191   9.336   4.300
90197SOL    HW172430  10.233   9.328   4.215
90197SOL    HW272431  10.256   9.305   4.363
90198SOL     OW72432   7.096   9.005  11.450
90198SOL    HW172433   7.148   8.940  11.403
90198SOL    HW272434   7.140   9.088  11.432
90199SOL     OW72435   7.501  13.633   1.242
90199SOL    HW172436   7.505  13.705   1.306
90199SOL    HW272437   7.459  13.562   1.290
90200SOL     OW72438  11.900   1.052   3.094
90200SOL    HW172439  11.854   1.045   3.178
90200SOL    HW272440  11.884   0.968   3.051
90201SOL     OW72441  12.036  13.129  12.537
90201SOL    HW172442  11.979  13.204  12.555
90201SOL    HW272443  11.981  13.069  12.487
90202SOL     OW72444   2.443  11.400   5.454
90202SOL    HW172445   2.408  11.380   5.367
90202SOL    HW272446   2.451  11.315   5.497
90203SOL     OW72447   9.523  13.673   1.096
90203SOL    HW172448   9.527  13.660   1.191
90203SOL    HW272449   9.602  13.630   1.063
90204SOL     OW72450  14.763   8.973  12.534
90204SOL    HW172451  14.808   9.036  12.590
90204SOL    HW272452  14.670   8.990  12.549
90205SOL     OW72453  10.048   2.376   3.402
90205SOL    HW172454  10.103   2.302   3.428
90205SOL    HW272455   9.983   2.385   3.471
90206SOL     OW72456   4.426  14.638  14.416
90206SOL    HW172457   4.376  14.657  14.496
90206SOL    HW272458   4.427  14.543  14.410
90207SOL     OW72459   3.454   0.441   2.285
90207SOL    HW172460   3.404   0.512   2.325
90207SOL    HW272461   3.525   0.485   2.238
90208SOL     OW72462   0.875   8.724   7.036
90208SOL    HW172463   0.938   8.781   6.992
90208SOL    HW272464   0.869   8.759   7.125
90209SOL     OW72465   8.222  12.353  12.392
90209SOL    HW172466   8.286  12.362  12.463
90209SOL    HW272467   8.171  12.275  12.416
90210SOL     OW72468  10.090   3.523  10.298
90210SOL    HW172469  10.149   3.574  10.242
90210SOL    HW272470  10.148   3.463  10.346
90211SOL     OW72471   8.902   6.645  14.174
90211SOL    HW172472   8.873   6.727  14.133
90211SOL    HW272473   8.909   6.583  14.101
90212SOL     OW72474  13.244   6.894  13.794
90212SOL    HW172475  13.210   6.968  13.743
90212SOL    HW272476  13.235   6.921  13.885
90213SOL     OW72477  14.567   0.149   2.069
90213SOL    HW172478  14.533   0.069   2.110
90213SOL    HW272479  14.542   0.219   2.129
90214SOL     OW72480   7.223  14.816   1.798
90214SOL    HW172481   7.274  14.752   1.749
90214SOL    HW272482   7.192   0.005   1.733
90215SOL     OW72483   5.602  12.895   8.556
90215SOL    HW172484   5.690  12.873   8.586
90215SOL    HW272485   5.609  12.986   8.526
90216SOL     OW72486  14.562  14.496   2.302
90216SOL    HW172487  14.595  14.446   2.377
90216SOL    HW272488  14.476  14.457   2.285
90217SOL     OW72489   1.930   6.116  13.466
90217SOL    HW172490   2.013   6.069  13.468
90217SOL    HW272491   1.864   6.050  13.488
90218SOL     OW72492  10.722   5.914   6.798
90218SOL    HW172493  10.724   6.004   6.767
90218SOL    HW272494  10.634   5.883   6.776
90219SOL     OW72495   8.460   7.851  11.870
90219SOL    HW172496   8.434   7.771  11.916
90219SOL    HW272497   8.380   7.883  11.829
90220SOL     OW72498   4.703   6.393   5.720
90220SOL    HW172499   4.643   6.402   5.646
90220SOL    HW272500   4.764   6.324   5.693
90221SOL     OW72501   0.540   2.465   0.239
90221SOL    HW172502   0.606   2.496   0.300
90221SOL    HW272503   0.471   2.532   0.242
90222SOL     OW72504   0.943   6.618  12.181
90222SOL    HW172505   0.961   6.706  12.214
90222SOL    HW272506   1.005   6.607  12.108
90223SOL     OW72507  10.755  13.428   9.547
90223SOL    HW172508  10.832  13.463   9.502
90223SOL    HW272509  10.681  13.461   9.497
90224SOL     OW72510  13.327   5.893   9.115
90224SOL    HW172511  13.396   5.827   9.111
90224SOL    HW272512  13.335   5.930   9.203
90225SOL     OW72513  13.234   9.010  14.189
90225SOL    HW172514  13.164   9.069  14.217
90225SOL    HW272515  13.312   9.043  14.234
90226SOL     OW72516   8.947   1.071   7.775
90226SOL    HW172517   9.042   1.072   7.760
90226SOL    HW272518   8.924   0.978   7.774
90227SOL     OW72519   1.770  11.751   6.293
90227SOL    HW172520   1.843  11.716   6.344
90227SOL    HW272521   1.811  11.789   6.216
90228SOL     OW72522  14.602   8.434   1.298
90228SOL    HW172523  14.660   8.465   1.229
90228SOL    HW272524  14.636   8.347   1.322
90229SOL     OW72525   2.588  12.058   5.162
90229SOL    HW172526   2.676  12.032   5.136
90229SOL    HW272527   2.531  11.989   5.127
90230SOL     OW72528   8.751  12.732   9.549
90230SOL    HW172529   8.825  12.678   9.522
90230SOL    HW272530   8.734  12.705   9.639
90231SOL     OW72531   9.065   1.345   4.222
90231SOL    HW172532   9.063   1.400   4.300
90231SOL    HW272533   8.989   1.288   4.231
90232SOL     OW72534   6.035  12.122  10.930
90232SOL    HW172535   5.991  12.206  10.919
90232SOL    HW272536   6.098  12.119  10.858
90233SOL     OW72537   2.481  14.072   8.489
90233SOL    HW172538   2.438  14.119   8.559
90233SOL    HW272539   2.570  14.107   8.487
90234SOL     OW72540  12.328  13.237  11.746
90234SOL    HW172541  12.335  13.180  11.670
90234SOL    HW272542  12.329  13.178  11.821
90235SOL     OW72543   9.165  12.876   2.099
90235SOL    HW172544   9.081  12.834   2.119
90235SOL    HW272545   9.230  12.814   2.130
90236SOL     OW72546  14.396  11.100   9.322
90236SOL    HW172547  14.492  11.096   9.327
90236SOL    HW272548  14.376  11.193   9.337
90237SOL     OW72549   7.693   5.221   1.601
90237SOL    HW172550   7.616   5.233   1.657
90237SOL    HW272551   7.760   5.187   1.660
90238SOL     OW72552  11.034  13.291  10.247
90238SOL    HW172553  11.087  13.370  10.255
90238SOL    HW272554  10.953  13.321  10.205
90239SOL     OW72555   6.103  10.840  13.229
90239SOL    HW172556   6.024  10.846  13.176
90239SOL    HW272557   6.112  10.747  13.248
90240SOL     OW72558   5.851  14.057   9.102
90240SOL    HW172559   5.891  13.971   9.086
90240SOL    HW272560   5.923  14.110   9.136
90241SOL     OW72561   3.004   8.219   6.943
90241SOL    HW172562   2.934   8.273   6.907
90241SOL    HW272563   3.074   8.280   6.964
90242SOL     OW72564   9.938   9.039   4.730
90242SOL    HW172565   9.969   8.948   4.732
90242SOL    HW272566   9.953   9.072   4.818
90243SOL     OW72567   2.168  11.552  13.536
90243SOL    HW172568   2.113  11.474  13.534
90243SOL    HW272569   2.224  11.541  13.613
90244SOL     OW72570   7.934  13.822  11.074
90244SOL    HW172571   7.982  13.783  11.147
90244SOL    HW272572   7.854  13.857  11.114
90245SOL     OW72573   2.809   3.036   8.618
90245SOL    HW172574   2.834   3.027   8.526
90245SOL    HW272575   2.765   2.954   8.640
90246SOL     OW72576   2.969  13.990   5.057
90246SOL    HW172577   3.052  13.958   5.022
90246SOL    HW272578   2.948  14.066   5.002
90247SOL     OW72579  14.594   4.046  11.958
90247SOL    HW172580  14.638   4.125  11.989
90247SOL    HW272581  14.503   4.073  11.942
90248SOL     OW72582   9.756   9.230   1.225
90248SOL    HW172583   9.838   9.187   1.250
90248SOL    HW272584   9.782   9.318   1.199
90249SOL     OW72585   6.367   7.361   1.458
90249SOL    HW172586   6.318   7.347   1.538
90249SOL    HW272587   6.449   7.401   1.487
90250SOL     OW72588   3.481   0.285  12.021
90250SOL    HW172589   3.493   0.349  11.951
90250SOL    HW272590   3.432   0.214  11.981
90251SOL     OW72591  13.898   5.144   1.076
90251SOL    HW172592  13.910   5.219   1.134
90251SOL    HW272593  13.934   5.173   0.992
90252SOL     OW72594  11.520   8.671   5.211
90252SOL    HW172595  11.480   8.757   5.226
90252SOL    HW272596  11.577   8.657   5.286
90253SOL     OW72597   7.132  14.007  13.531
90253SOL    HW172598   7.071  14.075  13.504
90253SOL    HW272599   7.086  13.925  13.511
90254SOL     OW72600  10.064   6.223   8.295
90254SOL    HW172601  10.033   6.154   8.354
90254SOL    HW272602  10.044   6.305   8.340
90255SOL     OW72603  11.876   7.573   4.091
90255SOL    HW172604  11.930   7.652   4.102
90255SOL    HW272605  11.792   7.605   4.059
90256SOL     OW72606   0.409   8.607  12.309
90256SOL    HW172607   0.483   8.574  12.258
90256SOL    HW272608   0.348   8.534  12.313
90257SOL     OW72609   5.429  14.857   3.017
90257SOL    HW172610   5.524  14.845   3.013
90257SOL    HW272611   5.396  14.773   3.050
90258SOL     OW72612   1.389   4.682   2.246
90258SOL    HW172613   1.438   4.731   2.311
90258SOL    HW272614   1.438   4.600   2.235
90259SOL     OW72615  11.402  11.393   1.497
90259SOL    HW172616  11.425  11.360   1.411
90259SOL    HW272617  11.323  11.346   1.521
90260SOL     OW72618  13.270   0.238   7.550
90260SOL    HW172619  13.222   0.190   7.618
90260SOL    HW272620  13.260   0.330   7.574
90261SOL     OW72621  13.141   9.064   8.537
90261SOL    HW172622  13.196   9.137   8.568
90261SOL    HW272623  13.203   8.998   8.508
90262SOL     OW72624   9.946   7.328   9.220
90262SOL    HW172625   9.859   7.334   9.180
90262SOL    HW272626  10.004   7.375   9.160
90263SOL     OW72627  12.317  12.556   4.704
90263SOL    HW172628  12.304  12.604   4.785
90263SOL    HW272629  12.387  12.494   4.723
90264SOL     OW72630   1.098   9.722   0.969
90264SOL    HW172631   1.132   9.674   1.044
90264SOL    HW272632   1.118   9.814   0.987
90265SOL     OW72633   3.215   7.548   3.472
90265SOL    HW172634   3.238   7.486   3.541
90265SOL    HW272635   3.278   7.619   3.482
90266SOL     OW72636   5.825   7.184   6.695
90266SOL    HW172637   5.790   7.270   6.718
90266SOL    HW272638   5.804   7.175   6.602
90267SOL     OW72639   9.426   8.243  11.388
90267SOL    HW172640   9.495   8.227  11.323
90267SOL    HW272641   9.473   8.244  11.472
90268SOL     OW72642  13.727  12.784   5.520
90268SOL    HW172643  13.782  12.861   5.509
90268SOL    HW272644  13.691  12.767   5.433
90269SOL     OW72645  14.242  14.155  13.221
90269SOL    HW172646  14.338  14.156  13.220
90269SOL    HW272647  14.217  14.151  13.129
90270SOL     OW72648   2.673  10.509   9.047
90270SOL    HW172649   2.598  10.506   9.107
90270SOL    HW272650   2.708  10.420   9.048
90271SOL     OW72651  11.024   5.827   1.736
90271SOL    HW172652  11.049   5.846   1.827
90271SOL    HW272653  11.099   5.780   1.701
90272SOL     OW72654  11.573   3.208  13.052
90272SOL    HW172655  11.567   3.162  13.136
90272SOL    HW272656  11.581   3.300  13.075
90273SOL     OW72657   0.682   0.648  13.375
90273SOL    HW172658   0.637   0.564  13.374
90273SOL    HW272659   0.652   0.692  13.296
90274SOL     OW72660   1.244  12.192   6.007
90274SOL    HW172661   1.315  12.132   6.028
90274SOL    HW272662   1.287  12.276   5.990
90275SOL     OW72663  10.058  11.843  11.106
90275SOL    HW172664  10.100  11.809  11.185
90275SOL    HW272665  10.021  11.927  11.133
90276SOL     OW72666   6.329   9.621   1.464
90276SOL    HW172667   6.286   9.547   1.508
90276SOL    HW272668   6.385   9.660   1.532
90277SOL     OW72669   1.173  10.287  11.813
90277SOL    HW172670   1.238  10.219  11.831
90277SOL    HW272671   1.161  10.284  11.718
90278SOL     OW72672   9.790  12.823   0.419
90278SOL    HW172673   9.835  12.890   0.470
90278SOL    HW272674   9.700  12.856   0.409
90279SOL     OW72675   7.475   7.408  13.319
90279SOL    HW172676   7.466   7.328  13.267
90279SOL    HW272677   7.555   7.394  13.370
90280SOL     OW72678   7.408   6.694  12.500
90280SOL    HW172679   7.502   6.704  12.517
90280SOL    HW272680   7.377   6.783  12.485
90281SOL     OW72681   8.041   9.445  14.536
90281SOL    HW172682   8.005   9.394  14.463
90281SOL    HW272683   8.024   9.392  14.614
90282SOL     OW72684  12.145   8.411  12.933
90282SOL    HW172685  12.133   8.349  12.861
90282SOL    HW272686  12.056   8.434  12.960
90283SOL     OW72687   6.183   3.664  12.573
90283SOL    HW172688   6.215   3.580  12.604
90283SOL    HW272689   6.184   3.721  12.650
90284SOL     OW72690   5.636  13.874   6.307
90284SOL    HW172691   5.679  13.959   6.314
90284SOL    HW272692   5.656  13.830   6.389
90285SOL     OW72693   7.404   9.181  14.634
90285SOL    HW172694   7.402   9.270  14.667
90285SOL    HW272695   7.334   9.178  14.568
90286SOL     OW72696   6.936   5.153   0.419
90286SOL    HW172697   6.841   5.146   0.414
90286SOL    HW272698   6.953   5.199   0.501
90287SOL     OW72699   9.917  11.023  14.150
90287SOL    HW172700   9.871  11.005  14.068
90287SOL    HW272701   9.979  10.950  14.159
90288SOL     OW72702   6.028   7.275   9.844
90288SOL    HW172703   6.118   7.244   9.835
90288SOL    HW272704   5.981   7.233   9.772
90289SOL     OW72705   7.521   9.590   9.890
90289SOL    HW172706   7.565   9.574   9.974
90289SOL    HW272707   7.429   9.575   9.908
90290SOL     OW72708   3.150   3.561   3.321
90290SOL    HW172709   3.222   3.588   3.377
90290SOL    HW272710   3.152   3.623   3.248
90291SOL     OW72711  14.394   8.503  14.612
90291SOL    HW172712  14.351   8.497  14.698
90291SOL    HW272713  14.355   8.433  14.561
90292SOL     OW72714  14.763  13.863   3.563
90292SOL    HW172715  14.753  13.800   3.492
90292SOL    HW272716  14.813  13.816   3.631
90293SOL     OW72717   1.604  10.494  10.225
90293SOL    HW172718   1.580  10.557  10.293
90293SOL    HW272719   1.593  10.408  10.267
90294SOL     OW72720  10.778  10.719   8.875
90294SOL    HW172721  10.754  10.699   8.785
90294SOL    HW272722  10.844  10.787   8.868
90295SOL     OW72723   2.925   4.746   6.247
90295SOL    HW172724   3.019   4.748   6.265
90295SOL    HW272725   2.888   4.814   6.303
90296SOL     OW72726   2.823   1.285  10.173
90296SOL    HW172727   2.847   1.196  10.148
90296SOL    HW272728   2.888   1.310  10.238
90297SOL     OW72729  13.421   9.265   7.339
90297SOL    HW172730  13.340   9.224   7.306
90297SOL    HW272731  13.406   9.276   7.433
90298SOL     OW72732   3.729  12.854   2.808
90298SOL    HW172733   3.817  12.816   2.813
90298SOL    HW272734   3.740  12.943   2.840
90299SOL     OW72735   7.862   0.298  12.967
90299SOL    HW172736   7.948   0.287  13.007
90299SOL    HW272737   7.812   0.348  13.031
90300SOL     OW72738   7.918   3.330  10.755
90300SOL    HW172739   7.896   3.237  10.752
90300SOL    HW272740   7.959   3.342  10.841
90301SOL     OW72741   5.183  14.793   8.389
90301SOL    HW172742   5.125  14.719   8.404
90301SOL    HW272743   5.150  14.861   8.448
90302SOL     OW72744   1.545   0.435   1.787
90302SOL    HW172745   1.539   0.341   1.767
90302SOL    HW272746   1.630   0.445   1.830
90303SOL     OW72747   2.063   2.461  12.460
90303SOL    HW172748   2.056   2.553  12.487
90303SOL    HW272749   2.155   2.438  12.474
90304SOL     OW72750   5.334   4.920   6.997
90304SOL    HW172751   5.398   4.918   6.927
90304SOL    HW272752   5.266   4.858   6.969
90305SOL     OW72753   2.550   4.566   7.034
90305SOL    HW172754   2.459   4.537   7.044
90305SOL    HW272755   2.565   4.621   7.111
90306SOL     OW72756   8.224   0.216   9.197
90306SOL    HW172757   8.310   0.236   9.236
90306SOL    HW272758   8.240   0.138   9.144
90307SOL     OW72759  10.475   6.396   9.010
90307SOL    HW172760  10.391   6.393   9.056
90307SOL    HW272761  10.459   6.353   8.926
90308SOL     OW72762   2.739  10.174   1.873
90308SOL    HW172763   2.822  10.141   1.838
90308SOL    HW272764   2.690  10.096   1.898
90309SOL     OW72765  13.096   8.629   3.319
90309SOL    HW172766  13.087   8.534   3.321
90309SOL    HW272767  13.016   8.659   3.275
90310SOL     OW72768   8.075   9.156  12.823
90310SOL    HW172769   7.979   9.156  12.830
90310SOL    HW272770   8.092   9.125  12.734
90311SOL     OW72771  13.816   8.322   5.190
90311SOL    HW172772  13.870   8.293   5.116
90311SOL    HW272773  13.790   8.411   5.167
90312SOL     OW72774   0.214   0.157   2.450
90312SOL    HW172775   0.169   0.173   2.534
90312SOL    HW272776   0.144   0.135   2.389
90313SOL     OW72777   1.701   8.989   2.056
90313SOL    HW172778   1.641   8.962   1.987
90313SOL    HW272779   1.786   8.956   2.028
90314SOL     OW72780  12.762   0.679   5.346
90314SOL    HW172781  12.760   0.607   5.282
90314SOL    HW272782  12.851   0.678   5.380
90315SOL     OW72783   9.379   6.350   7.585
90315SOL    HW172784   9.440   6.316   7.650
90315SOL    HW272785   9.386   6.445   7.592
90316SOL     OW72786  10.951  10.961   9.921
90316SOL    HW172787  10.915  11.026   9.981
90316SOL    HW272788  10.965  11.010   9.839
90317SOL     OW72789   3.290  12.316  10.331
90317SOL    HW172790   3.305  12.410  10.345
90317SOL    HW272791   3.221  12.313  10.265
90318SOL     OW72792   8.832  13.271   3.217
90318SOL    HW172793   8.769  13.291   3.286
90318SOL    HW272794   8.822  13.344   3.155
90319SOL     OW72795   7.429  12.361   1.570
90319SOL    HW172796   7.363  12.297   1.596
90319SOL    HW272797   7.467  12.326   1.489
90320SOL     OW72798   1.288   9.305   0.936
90320SOL    HW172799   1.304   9.354   0.856
90320SOL    HW272800   1.237   9.229   0.909
90321SOL     OW72801   8.736   8.410   1.317
90321SOL    HW172802   8.658   8.431   1.367
90321SOL    HW272803   8.808   8.450   1.366
90322SOL     OW72804  13.711   7.888   3.468
90322SOL    HW172805  13.697   7.819   3.533
90322SOL    HW272806  13.773   7.850   3.406
90323SOL     OW72807  14.125   0.478   3.454
90323SOL    HW172808  14.104   0.538   3.525
90323SOL    HW272809  14.133   0.392   3.495
90324SOL     OW72810  12.182  11.959  12.721
90324SOL    HW172811  12.228  11.915  12.793
90324SOL    HW272812  12.138  11.888  12.674
90325SOL     OW72813  10.313   7.378   0.433
90325SOL    HW172814  10.323   7.336   0.347
90325SOL    HW272815  10.371   7.454   0.430
90326SOL     OW72816   0.251  12.283   4.465
90326SOL    HW172817   0.280  12.353   4.523
90326SOL    HW272818   0.228  12.211   4.524
90327SOL     OW72819   6.395   0.570   9.944
90327SOL    HW172820   6.412   0.486   9.901
90327SOL    HW272821   6.406   0.635   9.875
90328SOL     OW72822  14.622   2.430   9.773
90328SOL    HW172823  14.625   2.341   9.738
90328SOL    HW272824  14.548   2.429   9.835
90329SOL     OW72825  13.581   8.665   2.458
90329SOL    HW172826  13.564   8.589   2.513
90329SOL    HW272827  13.500   8.716   2.463
90330SOL     OW72828   6.191   1.935   1.692
90330SOL    HW172829   6.282   1.952   1.714
90330SOL    HW272830   6.191   1.845   1.659
90331SOL     OW72831  11.300   8.840  11.569
90331SOL    HW172832  11.244   8.777  11.522
90331SOL    HW272833  11.252   8.922  11.564
90332SOL     OW72834   3.067  14.614  13.507
90332SOL    HW172835   3.106  14.539  13.552
90332SOL    HW272836   3.134  14.642  13.444
90333SOL     OW72837   8.075   2.722   3.038
90333SOL    HW172838   8.063   2.672   2.956
90333SOL    HW272839   7.991   2.763   3.053
90334SOL     OW72840   8.412   8.942   3.091
90334SOL    HW172841   8.486   8.951   3.150
90334SOL    HW272842   8.449   8.906   3.010
90335SOL     OW72843   3.894   7.974   5.655
90335SOL    HW172844   3.809   7.933   5.638
90335SOL    HW272845   3.905   8.037   5.584
90336SOL     OW72846  12.712  11.844  13.693
90336SOL    HW172847  12.802  11.857  13.663
90336SOL    HW272848  12.658  11.858  13.616
90337SOL     OW72849  12.224   0.467   3.002
90337SOL    HW172850  12.319   0.479   2.994
90337SOL    HW272851  12.213   0.372   3.011
90338SOL     OW72852   5.320   6.729   9.264
90338SOL    HW172853   5.412   6.753   9.277
90338SOL    HW272854   5.322   6.663   9.195
90339SOL     OW72855   1.770  12.556  13.525
90339SOL    HW172856   1.737  12.468  13.508
90339SOL    HW272857   1.727  12.582  13.607
90340SOL     OW72858   7.316  14.642   6.435
90340SOL    HW172859   7.250  14.574   6.451
90340SOL    HW272860   7.349  14.623   6.347
90341SOL     OW72861   3.970  10.674  11.614
90341SOL    HW172862   3.893  10.617  11.609
90341SOL    HW272863   4.023  10.636  11.685
90342SOL     OW72864   8.085   3.666   3.676
90342SOL    HW172865   8.091   3.608   3.752
90342SOL    HW272866   7.991   3.668   3.655
90343SOL     OW72867   8.879   2.546   1.712
90343SOL    HW172868   8.869   2.616   1.648
90343SOL    HW272869   8.891   2.591   1.796
90344SOL     OW72870   9.873   1.761  13.198
90344SOL    HW172871   9.860   1.669  13.219
90344SOL    HW272872   9.968   1.769  13.183
90345SOL     OW72873   2.072   5.674   1.079
90345SOL    HW172874   2.136   5.706   1.142
90345SOL    HW272875   2.003   5.741   1.079
90346SOL     OW72876   8.837   1.673  10.498
90346SOL    HW172877   8.769   1.730  10.463
90346SOL    HW272878   8.866   1.717  10.578
90347SOL     OW72879  13.941   6.571   8.832
90347SOL    HW172880  13.913   6.607   8.748
90347SOL    HW272881  13.861   6.566   8.884
90348SOL     OW72882  11.424   4.354   7.875
90348SOL    HW172883  11.518   4.365   7.892
90348SOL    HW272884  11.383   4.432   7.911
90349SOL     OW72885  14.221   7.789  13.751
90349SOL    HW172886  14.273   7.801  13.672
90349SOL    HW272887  14.175   7.707  13.737
90350SOL     OW72888   6.019   2.525  14.743
90350SOL    HW172889   5.943   2.467  14.753
90350SOL    HW272890   6.005   2.593  14.809
90351SOL     OW72891  14.441   9.399   7.350
90351SOL    HW172892  14.522   9.447   7.334
90351SOL    HW272893  14.415   9.366   7.264
90352SOL     OW72894   2.651   4.167  13.243
90352SOL    HW172895   2.720   4.200  13.301
90352SOL    HW272896   2.659   4.219  13.164
90353SOL     OW72897  11.738   2.193   9.094
90353SOL    HW172898  11.761   2.132   9.024
90353SOL    HW272899  11.644   2.181   9.106
90354SOL     OW72900   9.663   2.319  12.196
90354SOL    HW172901   9.575   2.320  12.234
90354SOL    HW272902   9.677   2.228  12.171
90355SOL     OW72903   2.887   0.254  13.747
90355SOL    HW172904   2.880   0.176  13.802
90355SOL    HW272905   2.862   0.224  13.660
90356SOL     OW72906  10.170  13.751   3.351
90356SOL    HW172907  10.078  13.731   3.367
90356SOL    HW272908  10.178  13.844   3.375
90357SOL     OW72909   4.758   8.809   8.881
90357SOL    HW172910   4.706   8.887   8.862
90357SOL    HW272911   4.714   8.767   8.954
90358SOL     OW72912   1.168   3.069   1.853
90358SOL    HW172913   1.090   3.107   1.893
90358SOL    HW272914   1.218   3.144   1.820
90359SOL     OW72915  14.138   2.139   3.520
90359SOL    HW172916  14.131   2.228   3.556
90359SOL    HW272917  14.232   2.126   3.507
90360SOL     OW72918   0.469  10.073   6.114
90360SOL    HW172919   0.472  10.141   6.048
90360SOL    HW272920   0.404  10.104   6.178
90361SOL     OW72921   0.013   1.196  12.058
90361SOL    HW172922  14.797   1.167  12.042
90361SOL    HW272923   0.061   1.168  11.980
90362SOL     OW72924   6.360  14.009   2.085
90362SOL    HW172925   6.439  13.966   2.115
90362SOL    HW272926   6.370  14.013   1.990
90363SOL     OW72927   2.966  14.715  12.741
90363SOL    HW172928   2.897  14.773  12.773
90363SOL    HW272929   2.923  14.661  12.674
90364SOL     OW72930   0.656   3.162   4.758
90364SOL    HW172931   0.726   3.100   4.742
90364SOL    HW272932   0.595   3.116   4.816
90365SOL     OW72933  11.995   0.971   9.267
90365SOL    HW172934  11.983   1.001   9.177
90365SOL    HW272935  11.986   1.050   9.320
90366SOL     OW72936  11.073  13.745   0.844
90366SOL    HW172937  11.166  13.756   0.864
90366SOL    HW272938  11.030  13.752   0.929
90367SOL     OW72939   1.343   1.518   5.452
90367SOL    HW172940   1.276   1.457   5.423
90367SOL    HW272941   1.409   1.516   5.382
90368SOL     OW72942  13.937   0.315  13.429
90368SOL    HW172943  14.004   0.334  13.363
90368SOL    HW272944  13.967   0.360  13.508
90369SOL     OW72945   9.587  10.367   9.263
90369SOL    HW172946   9.652  10.296   9.262
90369SOL    HW272947   9.503  10.322   9.252
90370SOL     OW72948  10.115  13.707   1.433
90370SOL    HW172949  10.062  13.665   1.365
90370SOL    HW272950  10.072  13.792   1.448
90371SOL     OW72951   5.556   5.129   7.503
90371SOL    HW172952   5.572   5.220   7.529
90371SOL    HW272953   5.636   5.103   7.458
90372SOL     OW72954   4.137   5.377   6.423
90372SOL    HW172955   4.105   5.436   6.491
90372SOL    HW272956   4.075   5.387   6.351
90373SOL     OW72957   0.068   4.353   8.893
90373SOL    HW172958  14.861   4.331   8.847
90373SOL    HW272959   0.087   4.276   8.946
90374SOL     OW72960   4.396  10.727  11.698
90374SOL    HW172961   4.373  10.815  11.728
90374SOL    HW272962   4.376  10.727  11.604
90375SOL     OW72963   1.288   4.731  14.498
90375SOL    HW172964   1.294   4.637  14.481
90375SOL    HW272965   1.378   4.762  14.493
90376SOL     OW72966   0.887  14.776   8.505
90376SOL    HW172967   0.872  14.790   8.412
90376SOL    HW272968   0.934  14.692   8.510
90377SOL     OW72969  13.014  14.240   2.307
90377SOL    HW172970  12.975  14.327   2.301
90377SOL    HW272971  13.104  14.255   2.334
90378SOL     OW72972   7.255  10.167  11.794
90378SOL    HW172973   7.342  10.158  11.754
90378SOL    HW272974   7.227  10.077  11.811
90379SOL     OW72975   1.273   7.522   0.300
90379SOL    HW172976   1.324   7.526   0.219
90379SOL    HW272977   1.277   7.611   0.335
90380SOL     OW72978  14.222   4.205   7.996
90380SOL    HW172979  14.147   4.145   7.999
90380SOL    HW272980  14.297   4.150   8.017
90381SOL     OW72981   5.582   1.450   0.042
90381SOL    HW172982   5.647   1.498   0.092
90381SOL    HW272983   5.558   1.376   0.098
90382SOL     OW72984  13.083  14.862  11.110
90382SOL    HW172985  13.029  14.791  11.076
90382SOL    HW272986  13.155  14.818  11.156
90383SOL     OW72987   6.902   9.873   8.673
90383SOL    HW172988   6.983   9.844   8.715
90383SOL    HW272989   6.842   9.799   8.682
90384SOL     OW72990   5.109  14.002   2.781
90384SOL    HW172991   5.163  13.994   2.860
90384SOL    HW272992   5.041  13.935   2.793
90385SOL     OW72993   6.177   7.645   6.053
90385SOL    HW172994   6.145   7.660   5.964
90385SOL    HW272995   6.264   7.607   6.041
90386SOL     OW72996  13.860   5.016   6.975
90386SOL    HW172997  13.874   4.941   7.032
90386SOL    HW272998  13.901   4.991   6.892
90387SOL     OW72999   3.076   9.346   7.758
90387SOL    HW173000   3.124   9.319   7.836
90387SOL    HW273001   3.015   9.274   7.742
90388SOL     OW73002  14.426   2.433   7.260
90388SOL    HW173003  14.429   2.346   7.299
90388SOL    HW273004  14.422   2.493   7.334
90389SOL     OW73005   9.582   3.254   6.995
90389SOL    HW173006   9.611   3.236   7.085
90389SOL    HW273007   9.511   3.191   6.981
90390SOL     OW73008  10.157  10.048  14.812
90390SOL    HW173009  10.143  10.142  14.801
90390SOL    HW273010  10.214  10.041   0.014
90391SOL     OW73011   8.531   3.170   7.944
90391SOL    HW173012   8.623   3.175   7.971
90391SOL    HW273013   8.482   3.167   8.026
90392SOL     OW73014   4.225   2.407   7.460
90392SOL    HW173015   4.146   2.459   7.475
90392SOL    HW273016   4.271   2.408   7.544
90393SOL     OW73017  10.859  12.887   7.815
90393SOL    HW173018  10.782  12.853   7.861
90393SOL    HW273019  10.916  12.811   7.804
90394SOL     OW73020  10.730  13.211   2.078
90394SOL    HW173021  10.804  13.211   2.139
90394SOL    HW273022  10.769  13.233   1.993
90395SOL     OW73023   1.776   9.608   9.596
90395SOL    HW173024   1.686   9.641   9.600
90395SOL    HW273025   1.806   9.633   9.508
90396SOL     OW73026   3.769   6.683   8.981
90396SOL    HW173027   3.851   6.701   9.028
90396SOL    HW273028   3.708   6.657   9.050
90397SOL     OW73029   8.930   3.034   3.650
90397SOL    HW173030   8.987   3.111   3.644
90397SOL    HW273031   8.900   3.034   3.741
90398SOL     OW73032   0.196   8.363  12.508
90398SOL    HW173033   0.259   8.388  12.575
90398SOL    HW273034   0.111   8.384  12.547
90399SOL     OW73035   7.000   6.045   1.822
90399SOL    HW173036   7.002   5.996   1.905
90399SOL    HW273037   6.958   6.128   1.845
90400SOL     OW73038   0.764  10.645   1.323
90400SOL    HW173039   0.820  10.571   1.299
90400SOL    HW273040   0.677  10.621   1.290
90401SOL     OW73041  10.301   4.788  10.986
90401SOL    HW173042  10.241   4.781  10.912
90401SOL    HW273043  10.293   4.703  11.031
90402SOL     OW73044   8.852   2.079  13.006
90402SOL    HW173045   8.863   2.150  12.943
90402SOL    HW273046   8.906   2.104  13.081
90403SOL     OW73047  11.414   3.358  10.773
90403SOL    HW173048  11.381   3.419  10.839
90403SOL    HW273049  11.498   3.327  10.808
90404SOL     OW73050   6.434  12.872  14.365
90404SOL    HW173051   6.474  12.814  14.429
90404SOL    HW273052   6.404  12.814  14.294
90405SOL     OW73053   2.640  11.189  14.391
90405SOL    HW173054   2.619  11.265  14.336
90405SOL    HW273055   2.736  11.188  14.395
90406SOL     OW73056  13.234   6.479  14.741
90406SOL    HW173057  13.239   6.483  14.645
90406SOL    HW273058  13.267   6.564  14.770
90407SOL     OW73059   7.085  13.478   3.418
90407SOL    HW173060   7.022  13.527   3.470
90407SOL    HW273061   7.052  13.388   3.420
90408SOL     OW73062  10.045  13.348   4.005
90408SOL    HW173063  10.093  13.431   4.009
90408SOL    HW273064   9.967  13.368   3.954
90409SOL     OW73065   6.248   0.211   3.026
90409SOL    HW173066   6.272   0.125   2.993
90409SOL    HW273067   6.152   0.211   3.026
90410SOL     OW73068   1.319  10.286   4.451
90410SOL    HW173069   1.375  10.353   4.412
90410SOL    HW273070   1.370  10.206   4.445
90411SOL     OW73071   8.463  11.508  13.523
90411SOL    HW173072   8.409  11.587  13.521
90411SOL    HW273073   8.544  11.536  13.567
90412SOL     OW73074   5.211   0.507   6.766
90412SOL    HW173075   5.224   0.602   6.765
90412SOL    HW273076   5.240   0.479   6.679
90413SOL     OW73077   6.243   1.123   4.033
90413SOL    HW173078   6.296   1.074   3.971
90413SOL    HW273079   6.226   1.061   4.104
90414SOL     OW73080   7.286   5.274  10.642
90414SOL    HW173081   7.330   5.359  10.645
90414SOL    HW273082   7.342   5.220  10.587
90415SOL     OW73083   1.265   3.384   0.674
90415SOL    HW173084   1.349   3.417   0.705
90415SOL    HW273085   1.264   3.405   0.581
90416SOL     OW73086  12.606   8.106   6.984
90416SOL    HW173087  12.639   8.055   7.058
90416SOL    HW273088  12.562   8.181   7.023
90417SOL     OW73089  11.541  10.796  12.589
90417SOL    HW173090  11.623  10.844  12.582
90417SOL    HW273091  11.511  10.812  12.679
90418SOL     OW73092  14.254   1.463   5.049
90418SOL    HW173093  14.299   1.384   5.022
90418SOL    HW273094  14.176   1.467   4.993
90419SOL     OW73095   3.347   3.146   8.512
90419SOL    HW173096   3.263   3.116   8.479
90419SOL    HW273097   3.327   3.193   8.592
90420SOL     OW73098   8.222  11.678   3.695
90420SOL    HW173099   8.130  11.653   3.688
90420SOL    HW273100   8.224  11.741   3.768
90421SOL     OW73101   5.147   3.219   4.886
90421SOL    HW173102   5.135   3.127   4.865
90421SOL    HW273103   5.228   3.222   4.938
90422SOL     OW73104   6.100   0.506   7.942
90422SOL    HW173105   6.036   0.570   7.911
90422SOL    HW273106   6.048   0.429   7.965
90423SOL     OW73107   3.740   0.454   1.710
90423SOL    HW173108   3.793   0.392   1.759
90423SOL    HW273109   3.802   0.500   1.654
90424SOL     OW73110   4.747  10.202   6.614
90424SOL    HW173111   4.816  10.257   6.577
90424SOL    HW273112   4.764  10.115   6.577
90425SOL     OW73113   5.634   1.363   4.158
90425SOL    HW173114   5.709   1.418   4.181
90425SOL    HW273115   5.635   1.359   4.063
90426SOL     OW73116  14.048   9.302   4.355
90426SOL    HW173117  14.081   9.218   4.387
90426SOL    HW273118  14.112   9.327   4.288
90427SOL     OW73119  11.775   6.219  14.574
90427SOL    HW173120  11.732   6.292  14.617
90427SOL    HW273121  11.840   6.189  14.637
90428SOL     OW73122   8.815   8.010   4.634
90428SOL    HW173123   8.719   8.010   4.636
90428SOL    HW273124   8.839   8.099   4.657
90429SOL     OW73125  14.053   4.394  13.567
90429SOL    HW173126  13.995   4.468  13.548
90429SOL    HW273127  14.037   4.373  13.658
90430SOL     OW73128  13.434   8.002   6.128
90430SOL    HW173129  13.487   8.040   6.198
90430SOL    HW273130  13.366   8.067   6.111
90431SOL     OW73131  14.325   3.339   7.217
90431SOL    HW173132  14.231   3.355   7.219
90431SOL    HW273133  14.334   3.244   7.231
90432SOL     OW73134  10.601   2.144  13.939
90432SOL    HW173135  10.622   2.226  13.894
90432SOL    HW273136  10.524   2.165  13.992
90433SOL     OW73137   0.239   9.620  11.765
90433SOL    HW173138   0.251   9.549  11.827
90433SOL    HW273139   0.282   9.589  11.685
90434SOL     OW73140   4.481   6.249   3.958
90434SOL    HW173141   4.492   6.337   3.993
90434SOL    HW273142   4.463   6.262   3.865
90435SOL     OW73143   8.624  13.850   3.785
90435SOL    HW173144   8.719  13.842   3.774
90435SOL    HW273145   8.597  13.913   3.719
90436SOL     OW73146  12.321   6.770   5.377
90436SOL    HW173147  12.354   6.860   5.378
90436SOL    HW273148  12.399   6.716   5.392
90437SOL     OW73149  14.336   1.440   3.247
90437SOL    HW173150  14.362   1.445   3.339
90437SOL    HW273151  14.417   1.459   3.199
90438SOL     OW73152  10.582  14.841  11.312
90438SOL    HW173153  10.570  14.795  11.396
90438SOL    HW273154  10.499   0.010  11.296
90439SOL     OW73155  14.763   3.527  13.738
90439SOL    HW173156  14.696   3.541  13.805
90439SOL    HW273157  14.768   3.432  13.728
90440SOL     OW73158  11.940   1.002   8.819
90440SOL    HW173159  11.956   0.917   8.859
90440SOL    HW273160  11.855   0.993   8.777
90441SOL     OW73161  10.495   1.737   2.548
90441SOL    HW173162  10.526   1.672   2.611
90441SOL    HW273163  10.518   1.821   2.586
90442SOL     OW73164   3.008   4.144   0.334
90442SOL    HW173165   2.967   4.098   0.260
90442SOL    HW273166   3.043   4.224   0.296
90443SOL     OW73167  11.379  12.568   5.779
90443SOL    HW173168  11.333  12.611   5.851
90443SOL    HW273169  11.311  12.523   5.729
90444SOL     OW73170   7.689   1.067  11.241
90444SOL    HW173171   7.679   0.973  11.228
90444SOL    HW273172   7.735   1.076  11.324
90445SOL     OW73173   9.260   7.604   5.704
90445SOL    HW173174   9.174   7.646   5.708
90445SOL    HW273175   9.272   7.584   5.611
90446SOL     OW73176   1.879  12.278   1.261
90446SOL    HW173177   1.855  12.300   1.170
90446SOL    HW273178   1.815  12.325   1.314
90447SOL     OW73179   8.841   3.096   6.615
90447SOL    HW173180   8.931   3.123   6.601
90447SOL    HW273181   8.789   3.168   6.579
90448SOL     OW73182   0.677   5.618   1.508
90448SOL    HW173183   0.631   5.623   1.424
90448SOL    HW273184   0.618   5.569   1.565
90449SOL     OW73185   7.991   2.702   2.618
90449SOL    HW173186   7.990   2.666   2.707
90449SOL    HW273187   7.898   2.717   2.598
90450SOL     OW73188  13.655  13.754  10.052
90450SOL    HW173189  13.745  13.775  10.028
90450SOL    HW273190  13.655  13.755  10.148
90451SOL     OW73191   2.962   4.710  12.910
90451SOL    HW173192   3.018   4.633  12.922
90451SOL    HW273193   2.977   4.764  12.987
90452SOL     OW73194   6.339   1.288   2.068
90452SOL    HW173195   6.373   1.225   2.005
90452SOL    HW273196   6.244   1.282   2.059
90453SOL     OW73197  12.688   1.099   7.931
90453SOL    HW173198  12.633   1.176   7.913
90453SOL    HW273199  12.685   1.090   8.026
90454SOL     OW73200  10.764   5.602   9.588
90454SOL    HW173201  10.805   5.516   9.600
90454SOL    HW273202  10.671   5.587   9.603
90455SOL     OW73203   3.329   5.807   7.820
90455SOL    HW173204   3.338   5.735   7.882
90455SOL    HW273205   3.262   5.864   7.857
90456SOL     OW73206  11.591   5.816   3.021
90456SOL    HW173207  11.646   5.895   3.024
90456SOL    HW273208  11.521   5.839   2.959
90457SOL     OW73209   2.170  11.802   6.766
90457SOL    HW173210   2.079  11.831   6.764
90457SOL    HW273211   2.179  11.746   6.689
90458SOL     OW73212   3.235   7.142  13.351
90458SOL    HW173213   3.139   7.140  13.349
90458SOL    HW273214   3.261   7.086  13.277
90459SOL     OW73215   4.941   5.628  13.627
90459SOL    HW173216   4.872   5.607  13.689
90459SOL    HW273217   4.991   5.698  13.670
90460SOL     OW73218   9.166  11.843  13.734
90460SOL    HW173219   9.195  11.916  13.789
90460SOL    HW273220   9.222  11.847  13.657
90461SOL     OW73221   0.105   2.690  10.409
90461SOL    HW173222   0.035   2.755  10.411
90461SOL    HW273223   0.077   2.622  10.471
90462SOL     OW73224  13.697   0.525   5.599
90462SOL    HW173225  13.757   0.528   5.674
90462SOL    HW273226  13.742   0.577   5.531
90463SOL     OW73227   4.362   7.031  10.639
90463SOL    HW173228   4.275   7.007  10.673
90463SOL    HW273229   4.411   6.949  10.636
90464SOL     OW73230   3.002  12.431   0.692
90464SOL    HW173231   2.970  12.481   0.616
90464SOL    HW273232   2.980  12.341   0.672
90465SOL     OW73233  10.922  13.234   5.648
90465SOL    HW173234  11.004  13.279   5.668
90465SOL    HW273235  10.864  13.302   5.614
90466SOL     OW73236   2.855   8.350  14.023
90466SOL    HW173237   2.948   8.360  14.003
90466SOL    HW273238   2.809   8.392  13.950
90467SOL     OW73239   7.389   2.845   7.950
90467SOL    HW173240   7.355   2.883   7.870
90467SOL    HW273241   7.447   2.913   7.986
90468SOL     OW73242   9.730  12.578   0.188
90468SOL    HW173243   9.644  12.620   0.180
90468SOL    HW273244   9.732  12.545   0.278
90469SOL     OW73245   0.028   1.208   3.051
90469SOL    HW173246   0.087   1.282   3.068
90469SOL    HW273247   0.083   1.131   3.061
90470SOL     OW73248  10.228  10.520  11.427
90470SOL    HW173249  10.286  10.447  11.404
90470SOL    HW273250  10.246  10.536  11.520
90471SOL     OW73251   8.806   8.308  13.328
90471SOL    HW173252   8.804   8.226  13.278
90471SOL    HW273253   8.778   8.282  13.416
90472SOL     OW73254  12.340   6.764   7.829
90472SOL    HW173255  12.267   6.701   7.833
90472SOL    HW273256  12.399   6.736   7.898
90473SOL     OW73257   8.195  12.465   1.051
90473SOL    HW173258   8.136  12.531   1.087
90473SOL    HW273259   8.139  12.406   1.001
90474SOL     OW73260   9.424  12.490  11.073
90474SOL    HW173261   9.423  12.566  11.014
90474SOL    HW273262   9.369  12.517  11.146
90475SOL     OW73263   4.590   5.583   7.050
90475SOL    HW173264   4.616   5.547   6.966
90475SOL    HW273265   4.658   5.648   7.071
90476SOL     OW73266  10.348  13.462  14.779
90476SOL    HW173267  10.429  13.414  14.764
90476SOL    HW273268  10.349  13.484  14.872
90477SOL     OW73269  11.974  14.073  12.069
90477SOL    HW173270  12.001  14.000  12.125
90477SOL    HW273271  11.944  14.031  11.989
90478SOL     OW73272   4.215   7.205  14.262
90478SOL    HW173273   4.302   7.209  14.303
90478SOL    HW273274   4.233   7.180  14.171
90479SOL     OW73275   9.354  11.095  11.910
90479SOL    HW173276   9.405  11.061  11.984
90479SOL    HW273277   9.314  11.017  11.871
90480SOL     OW73278   3.297  13.102   7.631
90480SOL    HW173279   3.268  13.191   7.649
90480SOL    HW273280   3.386  13.097   7.666
90481SOL     OW73281   6.321   6.557   9.919
90481SOL    HW173282   6.278   6.471   9.926
90481SOL    HW273283   6.347   6.563   9.827
90482SOL     OW73284  11.135  12.621   9.615
90482SOL    HW173285  11.186  12.687   9.661
90482SOL    HW273286  11.194  12.587   9.548
90483SOL     OW73287  12.618  14.205  13.841
90483SOL    HW173288  12.542  14.217  13.783
90483SOL    HW273289  12.600  14.124  13.888
90484SOL     OW73290   8.607   9.850  11.680
90484SOL    HW173291   8.597   9.848  11.775
90484SOL    HW273292   8.565   9.770  11.649
90485SOL     OW73293   0.592   4.747   0.136
90485SOL    HW173294   0.536   4.675   0.106
90485SOL    HW273295   0.676   4.732   0.094
90486SOL     OW73296   5.361  10.825   9.855
90486SOL    HW173297   5.309  10.886   9.804
90486SOL    HW273298   5.300  10.788   9.918
90487SOL     OW73299   4.180  11.026   5.461
90487SOL    HW173300   4.225  10.997   5.381
90487SOL    HW273301   4.174  11.121   5.452
90488SOL     OW73302   2.315  11.613   7.761
90488SOL    HW173303   2.237  11.665   7.742
90488SOL    HW273304   2.323  11.616   7.856
90489SOL     OW73305   5.911   3.427   0.669
90489SOL    HW173306   5.988   3.452   0.720
90489SOL    HW273307   5.942   3.421   0.579
90490SOL     OW73308  10.416   8.158  12.658
90490SOL    HW173309  10.379   8.233  12.704
90490SOL    HW273310  10.498   8.139  12.704
90491SOL     OW73311   9.899  10.199  11.040
90491SOL    HW173312   9.854  10.149  11.108
90491SOL    HW273313   9.848  10.280  11.032
90492SOL     OW73314   2.190  12.775   3.840
90492SOL    HW173315   2.267  12.739   3.883
90492SOL    HW273316   2.143  12.698   3.807
90493SOL     OW73317  12.638   9.652   6.361
90493SOL    HW173318  12.545   9.669   6.374
90493SOL    HW273319  12.643   9.557   6.351
90494SOL     OW73320  14.623   8.236   8.385
90494SOL    HW173321  14.690   8.292   8.346
90494SOL    HW273322  14.543   8.289   8.383
90495SOL     OW73323  13.805  14.018   4.009
90495SOL    HW173324  13.768  14.031   4.096
90495SOL    HW273325  13.732  13.984   3.957
90496SOL     OW73326  12.190   8.178  11.695
90496SOL    HW173327  12.266   8.169  11.752
90496SOL    HW273328  12.165   8.270  11.703
90497SOL     OW73329  14.196  11.318  14.698
90497SOL    HW173330  14.260  11.247  14.707
90497SOL    HW273331  14.229  11.372  14.627
90498SOL     OW73332   8.573   7.258  13.779
90498SOL    HW173333   8.545   7.305  13.701
90498SOL    HW273334   8.604   7.326  13.839
90499SOL     OW73335   4.101  14.508  11.912
90499SOL    HW173336   4.024  14.565  11.907
90499SOL    HW273337   4.081  14.446  11.982
90500SOL     OW73338   6.158   8.080  10.928
90500SOL    HW173339   6.217   8.104  10.856
90500SOL    HW273340   6.214   8.081  11.006
90501SOL     OW73341   8.649   7.404   9.144
90501SOL    HW173342   8.573   7.460   9.156
90501SOL    HW273343   8.706   7.425   9.218
90502SOL     OW73344   7.818  14.532  12.634
90502SOL    HW173345   7.885  14.600  12.627
90502SOL    HW273346   7.851  14.472  12.701
90503SOL     OW73347   2.521   8.473   3.633
90503SOL    HW173348   2.613   8.475   3.607
90503SOL    HW273349   2.512   8.393   3.684
90504SOL     OW73350  10.932   9.842   0.867
90504SOL    HW173351  10.862   9.902   0.892
90504SOL    HW273352  10.935   9.778   0.937
90505SOL     OW73353  10.243   9.828   1.654
90505SOL    HW173354  10.217   9.793   1.740
90505SOL    HW273355  10.323   9.781   1.632
90506SOL     OW73356  12.198   6.780   8.254
90506SOL    HW173357  12.257   6.706   8.239
90506SOL    HW273358  12.120   6.742   8.293
90507SOL     OW73359   2.444   5.025   1.880
90507SOL    HW173360   2.468   5.118   1.881
90507SOL    HW273361   2.492   4.989   1.805
90508SOL     OW73362   6.038  13.693  10.447
90508SOL    HW173363   6.081  13.716  10.364
90508SOL    HW273364   6.005  13.604  10.434
90509SOL     OW73365   2.999   1.607   2.263
90509SOL    HW173366   2.966   1.517   2.264
90509SOL    HW273367   2.926   1.659   2.232
90510SOL     OW73368   1.949   7.641   4.943
90510SOL    HW173369   1.941   7.578   5.015
90510SOL    HW273370   2.040   7.671   4.947
90511SOL     OW73371   0.515   1.136   1.639
90511SOL    HW173372   0.464   1.073   1.691
90511SOL    HW273373   0.451   1.203   1.613
90512SOL     OW73374   5.673  11.422   2.033
90512SOL    HW173375   5.708  11.442   1.946
90512SOL    HW273376   5.590  11.469   2.036
90513SOL     OW73377   1.886   5.852  10.119
90513SOL    HW173378   1.826   5.927  10.120
90513SOL    HW273379   1.829   5.777  10.135
90514SOL     OW73380   9.034   0.400  11.924
90514SOL    HW173381   9.015   0.325  11.980
90514SOL    HW273382   8.949   0.429  11.892
90515SOL     OW73383   3.210  13.960   5.928
90515SOL    HW173384   3.251  13.978   6.012
90515SOL    HW273385   3.153  14.036   5.912
90516SOL     OW73386  10.762   5.588  13.398
90516SOL    HW173387  10.819   5.596  13.321
90516SOL    HW273388  10.822   5.583  13.472
90517SOL     OW73389  13.989   4.722   3.665
90517SOL    HW173390  14.020   4.812   3.661
90517SOL    HW273391  14.063   4.670   3.632
90518SOL     OW73392   9.161   6.508   6.170
90518SOL    HW173393   9.228   6.512   6.239
90518SOL    HW273394   9.087   6.557   6.207
90519SOL     OW73395   0.861   5.875  10.176
90519SOL    HW173396   0.950   5.895  10.148
90519SOL    HW273397   0.842   5.790  10.134
90520SOL     OW73398   9.363  12.345   4.426
90520SOL    HW173399   9.300  12.379   4.362
90520SOL    HW273400   9.438  12.403   4.418
90521SOL     OW73401   1.577  13.375  11.590
90521SOL    HW173402   1.553  13.371  11.497
90521SOL    HW273403   1.587  13.283  11.616
90522SOL     OW73404   2.296   1.559   5.219
90522SOL    HW173405   2.330   1.648   5.214
90522SOL    HW273406   2.373   1.503   5.218
90523SOL     OW73407   2.584   4.292   9.370
90523SOL    HW173408   2.665   4.252   9.337
90523SOL    HW273409   2.517   4.266   9.306
90524SOL     OW73410  12.449   2.161  11.476
90524SOL    HW173411  12.469   2.179  11.384
90524SOL    HW273412  12.521   2.105  11.506
90525SOL     OW73413  12.331   7.979   5.947
90525SOL    HW173414  12.321   7.889   5.916
90525SOL    HW273415  12.375   7.971   6.032
90526SOL     OW73416   0.123   1.756   7.375
90526SOL    HW173417   0.202   1.702   7.371
90526SOL    HW273418   0.069   1.716   7.443
90527SOL     OW73419  14.251   2.420  13.566
90527SOL    HW173420  14.270   2.340  13.614
90527SOL    HW273421  14.219   2.481  13.632
90528SOL     OW73422   8.423   5.655   2.442
90528SOL    HW173423   8.461   5.568   2.452
90528SOL    HW273424   8.398   5.681   2.530
90529SOL     OW73425   2.023   3.193  14.290
90529SOL    HW173426   1.972   3.178  14.370
90529SOL    HW273427   1.958   3.210  14.222
90530SOL     OW73428   7.418   4.739   3.615
90530SOL    HW173429   7.509   4.712   3.605
90530SOL    HW273430   7.404   4.803   3.546
90531SOL     OW73431   3.039   9.977   2.192
90531SOL    HW173432   2.988   9.955   2.271
90531SOL    HW273433   3.119   9.926   2.201
90532SOL     OW73434  12.289   9.460   6.026
90532SOL    HW173435  12.322   9.550   6.023
90532SOL    HW273436  12.253   9.445   5.938
90533SOL     OW73437   2.632   7.565   6.961
90533SOL    HW173438   2.591   7.581   6.876
90533SOL    HW273439   2.725   7.583   6.947
90534SOL     OW73440  10.218   0.142   9.486
90534SOL    HW173441  10.257   0.065   9.528
90534SOL    HW273442  10.276   0.214   9.511
90535SOL     OW73443   1.293   8.387  14.480
90535SOL    HW173444   1.374   8.358  14.438
90535SOL    HW273445   1.292   8.482  14.466
90536SOL     OW73446   8.236   7.405   4.897
90536SOL    HW173447   8.173   7.474   4.878
90536SOL    HW273448   8.302   7.448   4.952
90537SOL     OW73449  14.564  12.619  11.010
90537SOL    HW173450  14.527  12.556  10.947
90537SOL    HW273451  14.491  12.677  11.032
90538SOL     OW73452  10.268  11.705   4.432
90538SOL    HW173453  10.287  11.612   4.432
90538SOL    HW273454  10.176  11.711   4.409
90539SOL     OW73455   5.866   4.833   1.588
90539SOL    HW173456   5.960   4.821   1.582
90539SOL    HW273457   5.843   4.801   1.675
90540SOL     OW73458  12.393  13.319  12.151
90540SOL    HW173459  12.420  13.301  12.061
90540SOL    HW273460  12.297  13.317  12.148
90541SOL     OW73461   2.151   8.316   5.827
90541SOL    HW173462   2.142   8.252   5.898
90541SOL    HW273463   2.244   8.338   5.827
90542SOL     OW73464   4.020  11.280   0.680
90542SOL    HW173465   3.965  11.205   0.703
90542SOL    HW273466   3.969  11.357   0.704
90543SOL     OW73467  12.504   1.437   7.480
90543SOL    HW173468  12.455   1.402   7.555
90543SOL    HW273469  12.440   1.441   7.409
90544SOL     OW73470  12.590   2.395   5.880
90544SOL    HW173471  12.603   2.488   5.901
90544SOL    HW273472  12.564   2.394   5.788
90545SOL     OW73473  13.543   9.295   1.445
90545SOL    HW173474  13.602   9.284   1.370
90545SOL    HW273475  13.513   9.206   1.465
90546SOL     OW73476   4.487  14.194   2.887
90546SOL    HW173477   4.476  14.279   2.931
90546SOL    HW273478   4.570  14.202   2.840
90547SOL     OW73479   2.944   3.409   1.934
90547SOL    HW173480   2.862   3.452   1.909
90547SOL    HW273481   2.998   3.479   1.970
90548SOL     OW73482  12.783   0.034   8.901
90548SOL    HW173483  12.783   0.127   8.923
90548SOL    HW273484  12.860  14.873   8.946
90549SOL     OW73485  10.941  12.430   2.184
90549SOL    HW173486  10.924  12.366   2.254
90549SOL    HW273487  11.014  12.392   2.135
90550SOL     OW73488   8.293  12.544   2.127
90550SOL    HW173489   8.225  12.595   2.082
90550SOL    HW273490   8.293  12.460   2.082
90551SOL     OW73491   4.095   9.754  11.950
90551SOL    HW173492   4.177   9.739  11.903
90551SOL    HW273493   4.032   9.776  11.882
90552SOL     OW73494   9.501   5.811   8.921
90552SOL    HW173495   9.460   5.896   8.912
90552SOL    HW273496   9.531   5.789   8.833
90553SOL     OW73497  11.170   6.817   0.943
90553SOL    HW173498  11.150   6.863   0.861
90553SOL    HW273499  11.265   6.812   0.946
90554SOL     OW73500   6.898   9.716   2.619
90554SOL    HW173501   6.914   9.622   2.623
90554SOL    HW273502   6.898   9.745   2.711
90555SOL     OW73503   9.307   7.748   5.455
90555SOL    HW173504   9.224   7.784   5.425
90555SOL    HW273505   9.344   7.815   5.512
90556SOL     OW73506   5.279   8.266   4.471
90556SOL    HW173507   5.185   8.281   4.486
90556SOL    HW273508   5.316   8.354   4.464
90557SOL     OW73509   4.463   1.331   8.733
90557SOL    HW173510   4.401   1.290   8.672
90557SOL    HW273511   4.427   1.418   8.749
90558SOL     OW73512   0.750  14.631   1.930
90558SOL    HW173513   0.799  14.636   1.848
90558SOL    HW273514   0.672  14.579   1.909
90559SOL     OW73515  12.897   7.073   1.378
90559SOL    HW173516  12.834   7.050   1.447
90559SOL    HW273517  12.881   7.009   1.309
90560SOL     OW73518   8.696   3.559   7.209
90560SOL    HW173519   8.710   3.625   7.141
90560SOL    HW273520   8.780   3.514   7.217
90561SOL     OW73521   1.190  12.559  13.460
90561SOL    HW173522   1.255  12.499  13.423
90561SOL    HW273523   1.165  12.519  13.543
90562SOL     OW73524  12.426  10.968   0.860
90562SOL    HW173525  12.418  10.875   0.836
90562SOL    HW273526  12.384  10.974   0.946
90563SOL     OW73527   4.722   2.199   7.689
90563SOL    HW173528   4.666   2.126   7.715
90563SOL    HW273529   4.793   2.159   7.639
90564SOL     OW73530   0.104  10.092  14.256
90564SOL    HW173531   0.199  10.082  14.262
90564SOL    HW273532   0.070  10.005  14.277
90565SOL     OW73533   1.315  11.880   2.516
90565SOL    HW173534   1.340  11.811   2.456
90565SOL    HW273535   1.221  11.892   2.501
90566SOL     OW73536  11.517   3.442   1.935
90566SOL    HW173537  11.577   3.410   2.003
90566SOL    HW273538  11.547   3.398   1.855
90567SOL     OW73539   4.903   2.490  14.154
90567SOL    HW173540   4.931   2.581  14.160
90567SOL    HW273541   4.871   2.480  14.064
90568SOL     OW73542   3.748   3.615   0.748
90568SOL    HW173543   3.843   3.606   0.739
90568SOL    HW273544   3.736   3.698   0.795
90569SOL     OW73545   1.062   0.212   4.533
90569SOL    HW173546   1.090   0.304   4.542
90569SOL    HW273547   1.085   0.189   4.443
90570SOL     OW73548   6.566  11.652  14.013
90570SOL    HW173549   6.581  11.696  14.096
90570SOL    HW273550   6.542  11.562  14.037
90571SOL     OW73551  10.961  14.083  10.621
90571SOL    HW173552  11.049  14.064  10.654
90571SOL    HW273553  10.915  14.120  10.697
90572SOL     OW73554  13.708   9.987  11.885
90572SOL    HW173555  13.722  10.067  11.834
90572SOL    HW273556  13.692  10.018  11.974
90573SOL     OW73557   5.529  11.528   6.185
90573SOL    HW173558   5.585  11.461   6.147
90573SOL    HW273559   5.508  11.494   6.272
90574SOL     OW73560  10.028  11.130   7.254
90574SOL    HW173561  10.069  11.217   7.251
90574SOL    HW273562   9.973  11.126   7.176
90575SOL     OW73563   4.068   7.816  13.385
90575SOL    HW173564   4.067   7.841  13.478
90575SOL    HW273565   4.097   7.896  13.340
90576SOL     OW73566   6.307   6.801   0.228
90576SOL    HW173567   6.399   6.822   0.211
90576SOL    HW273568   6.285   6.848   0.307
90577SOL     OW73569   7.997   7.745   2.193
90577SOL    HW173570   7.938   7.768   2.121
90577SOL    HW273571   8.007   7.826   2.243
90578SOL     OW73572   4.697  11.922  13.765
90578SOL    HW173573   4.730  11.902  13.852
90578SOL    HW273574   4.685  11.837  13.723
90579SOL     OW73575   6.629  13.450   6.732
90579SOL    HW173576   6.539  13.431   6.705
90579SOL    HW273577   6.684  13.414   6.662
90580SOL     OW73578   8.271  11.219   3.626
90580SOL    HW173579   8.185  11.234   3.587
90580SOL    HW273580   8.277  11.124   3.635
90581SOL     OW73581   6.620   9.960   2.107
90581SOL    HW173582   6.569   9.906   2.167
90581SOL    HW273583   6.585  10.049   2.120
90582SOL     OW73584   6.534   0.152   7.095
90582SOL    HW173585   6.446   0.142   7.132
90582SOL    HW273586   6.578   0.069   7.115
90583SOL     OW73587   2.157   1.840   9.247
90583SOL    HW173588   2.147   1.745   9.239
90583SOL    HW273589   2.243   1.852   9.287
90584SOL     OW73590   4.978   4.995  12.574
90584SOL    HW173591   4.910   5.048  12.614
90584SOL    HW273592   4.946   4.976  12.486
90585SOL     OW73593  14.487  13.165   8.227
90585SOL    HW173594  14.425  13.159   8.300
90585SOL    HW273595  14.573  13.164   8.269
90586SOL     OW73596  11.764   0.035  12.455
90586SOL    HW173597  11.840  14.851  12.462
90586SOL    HW273598  11.781   0.088  12.377
90587SOL     OW73599   8.214  11.100   2.959
90587SOL    HW173600   8.120  11.089   2.945
90587SOL    HW273601   8.239  11.025   3.014
90588SOL     OW73602   6.362  10.829   1.804
90588SOL    HW173603   6.327  10.778   1.731
90588SOL    HW273604   6.456  10.831   1.789
90589SOL     OW73605   0.922  12.491  14.129
90589SOL    HW173606   0.867  12.493  14.051
90589SOL    HW273607   0.889  12.417  14.179
90590SOL     OW73608  10.747   7.020   3.595
90590SOL    HW173609  10.725   7.030   3.503
90590SOL    HW273610  10.673   6.971   3.632
90591SOL     OW73611   0.636   0.325   5.905
90591SOL    HW173612   0.574   0.252   5.912
90591SOL    HW273613   0.588   0.393   5.858
90592SOL     OW73614  14.139  12.345  13.138
90592SOL    HW173615  14.187  12.306  13.210
90592SOL    HW273616  14.055  12.299  13.137
90593SOL     OW73617  11.328   5.482  12.068
90593SOL    HW173618  11.327   5.573  12.040
90593SOL    HW273619  11.309   5.432  11.989
90594SOL     OW73620   3.742  10.973   2.979
90594SOL    HW173621   3.751  10.922   2.899
90594SOL    HW273622   3.832  10.984   3.011
90595SOL     OW73623  11.450   9.272  11.580
90595SOL    HW173624  11.431   9.204  11.645
90595SOL    HW273625  11.365   9.289  11.539
90596SOL     OW73626   4.080  10.101  14.370
90596SOL    HW173627   4.032  10.138  14.296
90596SOL    HW273628   4.165  10.147  14.369
90597SOL     OW73629  10.468   7.030   9.027
90597SOL    HW173630  10.448   7.121   9.006
90597SOL    HW273631  10.448   7.022   9.121
90598SOL     OW73632   4.971  14.558   7.750
90598SOL    HW173633   5.027  14.636   7.748
90598SOL    HW273634   4.918  14.563   7.671
90599SOL     OW73635   4.496  13.206   0.722
90599SOL    HW173636   4.469  13.157   0.800
90599SOL    HW273637   4.549  13.277   0.755
90600SOL     OW73638   4.816  14.447   3.631
90600SOL    HW173639   4.830  14.436   3.725
90600SOL    HW273640   4.733  14.493   3.624
90601SOL     OW73641   0.557   0.280   1.537
90601SOL    HW173642   0.501   0.356   1.523
90601SOL    HW273643   0.506   0.222   1.593
90602SOL     OW73644   1.316   5.841  12.564
90602SOL    HW173645   1.277   5.812  12.646
90602SOL    HW273646   1.369   5.766  12.534
90603SOL     OW73647  10.332   5.162   5.592
90603SOL    HW173648  10.372   5.230   5.647
90603SOL    HW273649  10.387   5.159   5.514
90604SOL     OW73650  10.160   7.133   9.329
90604SOL    HW173651  10.138   7.053   9.378
90604SOL    HW273652  10.077   7.180   9.323
90605SOL     OW73653   6.698   2.094   6.969
90605SOL    HW173654   6.699   2.036   6.892
90605SOL    HW273655   6.785   2.082   7.007
90606SOL     OW73656   4.823  12.201   1.001
90606SOL    HW173657   4.754  12.257   0.967
90606SOL    HW273658   4.857  12.249   1.077
90607SOL     OW73659   8.283   3.773   2.349
90607SOL    HW173660   8.293   3.821   2.431
90607SOL    HW273661   8.215   3.708   2.367
90608SOL     OW73662   3.919  13.395  11.173
90608SOL    HW173663   4.001  13.402  11.223
90608SOL    HW273664   3.907  13.301  11.160
90609SOL     OW73665   6.793   4.639   1.491
90609SOL    HW173666   6.854   4.590   1.546
90609SOL    HW273667   6.834   4.640   1.405
90610SOL     OW73668   9.363   8.760  12.019
90610SOL    HW173669   9.275   8.772  12.055
90610SOL    HW273670   9.402   8.848  12.023
90611SOL     OW73671   4.468  12.596  12.296
90611SOL    HW173672   4.527  12.644  12.238
90611SOL    HW273673   4.443  12.518  12.246
90612SOL     OW73674  12.963   2.301   9.449
90612SOL    HW173675  12.946   2.266   9.536
90612SOL    HW273676  12.925   2.388   9.449
90613SOL     OW73677  13.382   1.694   3.643
90613SOL    HW173678  13.291   1.703   3.612
90613SOL    HW273679  13.398   1.773   3.694
90614SOL     OW73680   2.646  10.855   6.034
90614SOL    HW173681   2.722  10.865   5.977
90614SOL    HW273682   2.577  10.823   5.976
90615SOL     OW73683   5.400  11.545   1.951
90615SOL    HW173684   5.390  11.640   1.943
90615SOL    HW273685   5.381  11.512   1.863
90616SOL     OW73686  14.512  11.147   4.494
90616SOL    HW173687  14.604  11.128   4.473
90616SOL    HW273688  14.481  11.068   4.537
90617SOL     OW73689   7.318   9.043  12.971
90617SOL    HW173690   7.229   9.078  12.972
90617SOL    HW273691   7.310   8.956  13.008
90618SOL     OW73692   9.605  12.295   0.425
90618SOL    HW173693   9.544  12.257   0.489
90618SOL    HW273694   9.586  12.389   0.428
90619SOL     OW73695   4.213   1.324   2.716
90619SOL    HW173696   4.225   1.396   2.653
90619SOL    HW273697   4.244   1.360   2.799
90620SOL     OW73698   3.759   8.453   2.061
90620SOL    HW173699   3.744   8.444   2.155
90620SOL    HW273700   3.671   8.457   2.023
90621SOL     OW73701  11.236  11.405   2.267
90621SOL    HW173702  11.262  11.430   2.356
90621SOL    HW273703  11.141  11.404   2.269
90622SOL     OW73704   0.517  12.415  14.101
90622SOL    HW173705   0.549  12.412  14.191
90622SOL    HW273706   0.594  12.433  14.048
90623SOL     OW73707   6.122   2.827   2.843
90623SOL    HW173708   6.122   2.882   2.765
90623SOL    HW273709   6.176   2.751   2.819
90624SOL     OW73710   8.537  11.057   9.187
90624SOL    HW173711   8.544  11.152   9.191
90624SOL    HW273712   8.626  11.027   9.168
90625SOL     OW73713   0.303   6.821   5.369
90625SOL    HW173714   0.284   6.858   5.455
90625SOL    HW273715   0.258   6.736   5.369
90626SOL     OW73716  10.608   1.564   0.215
90626SOL    HW173717  10.573   1.549   0.128
90626SOL    HW273718  10.694   1.602   0.201
90627SOL     OW73719   2.585   7.392  10.593
90627SOL    HW173720   2.585   7.303  10.628
90627SOL    HW273721   2.589   7.380  10.498
90628SOL     OW73722   5.575   3.289   2.235
90628SOL    HW173723   5.580   3.247   2.149
90628SOL    HW273724   5.655   3.261   2.280
90629SOL     OW73725  10.901  12.677  12.568
90629SOL    HW173726  10.819  12.635  12.540
90629SOL    HW273727  10.885  12.703  12.658
90630SOL     OW73728   5.083  14.475   8.898
90630SOL    HW173729   5.178  14.458   8.901
90630SOL    HW273730   5.075  14.553   8.843
90631SOL     OW73731   4.093   6.657   7.603
90631SOL    HW173732   4.075   6.596   7.675
90631SOL    HW273733   4.173   6.703   7.630
90632SOL     OW73734   7.759  10.906  12.827
90632SOL    HW173735   7.737  10.813  12.820
90632SOL    HW273736   7.850  10.912  12.798
90633SOL     OW73737   4.829  12.373   3.419
90633SOL    HW173738   4.862  12.299   3.470
90633SOL    HW273739   4.891  12.382   3.347
90634SOL     OW73740  12.369   5.724   0.439
90634SOL    HW173741  12.301   5.657   0.430
90634SOL    HW273742  12.321   5.806   0.440
90635SOL     OW73743   4.641   7.395  11.154
90635SOL    HW173744   4.677   7.468  11.103
90635SOL    HW273745   4.703   7.383  11.226
90636SOL     OW73746   5.384   4.470   4.550
90636SOL    HW173747   5.443   4.426   4.490
90636SOL    HW273748   5.311   4.409   4.562
90637SOL     OW73749   2.924  12.673   4.667
90637SOL    HW173750   2.961  12.745   4.720
90637SOL    HW273751   2.852  12.639   4.720
90638SOL     OW73752  12.032  13.968   8.029
90638SOL    HW173753  11.962  13.910   8.000
90638SOL    HW273754  12.112  13.918   8.015
90639SOL     OW73755   6.720   0.635   4.285
90639SOL    HW173756   6.797   0.578   4.283
90639SOL    HW273757   6.700   0.646   4.378
90640SOL     OW73758  10.925  11.596   7.410
90640SOL    HW173759  10.863  11.523   7.401
90640SOL    HW273760  10.927  11.637   7.324
90641SOL     OW73761  10.519  11.571   5.927
90641SOL    HW173762  10.557  11.657   5.907
90641SOL    HW273763  10.471  11.585   6.009
90642SOL     OW73764  13.732   7.159  10.806
90642SOL    HW173765  13.790   7.188  10.736
90642SOL    HW273766  13.786   7.158  10.885
90643SOL     OW73767   6.695   5.189  12.715
90643SOL    HW173768   6.752   5.234  12.777
90643SOL    HW273769   6.654   5.259  12.664
90644SOL     OW73770   0.978   1.429   6.767
90644SOL    HW173771   1.001   1.365   6.834
90644SOL    HW273772   0.957   1.509   6.816
90645SOL     OW73773  14.430   3.579   8.338
90645SOL    HW173774  14.481   3.555   8.260
90645SOL    HW273775  14.481   3.544   8.411
90646SOL     OW73776   0.931   9.485   4.038
90646SOL    HW173777   0.894   9.570   4.016
90646SOL    HW273778   0.902   9.427   3.967
90647SOL     OW73779   9.202   3.221  11.843
90647SOL    HW173780   9.283   3.250  11.800
90647SOL    HW273781   9.157   3.302  11.865
90648SOL     OW73782   2.697   2.152   7.983
90648SOL    HW173783   2.625   2.102   8.022
90648SOL    HW273784   2.665   2.175   7.896
90649SOL     OW73785   0.737  13.150  13.840
90649SOL    HW173786   0.722  13.125  13.931
90649SOL    HW273787   0.825  13.189  13.841
90650SOL     OW73788   5.105   0.138   8.525
90650SOL    HW173789   5.109   0.233   8.515
90650SOL    HW273790   5.186   0.115   8.570
90651SOL     OW73791  10.494   9.968   8.557
90651SOL    HW173792  10.450   9.887   8.529
90651SOL    HW273793  10.485  10.027   8.481
90652SOL     OW73794   8.843  10.728   0.599
90652SOL    HW173795   8.799  10.772   0.527
90652SOL    HW273796   8.773  10.681   0.645
90653SOL     OW73797   0.311   6.357  14.276
90653SOL    HW173798   0.365   6.279  14.277
90653SOL    HW273799   0.222   6.325  14.294
90654SOL     OW73800   5.420   9.099   7.466
90654SOL    HW173801   5.515   9.107   7.474
90654SOL    HW273802   5.407   9.020   7.414
90655SOL     OW73803   6.563   8.531  14.674
90655SOL    HW173804   6.544   8.439  14.693
90655SOL    HW273805   6.640   8.551  14.726
90656SOL     OW73806   7.512   4.310   6.344
90656SOL    HW173807   7.423   4.346   6.344
90656SOL    HW273808   7.554   4.351   6.420
90657SOL     OW73809  13.603   5.070   0.141
90657SOL    HW173810  13.611   4.977   0.121
90657SOL    HW273811  13.518   5.096   0.106
90658SOL     OW73812   2.784   8.539  13.678
90658SOL    HW173813   2.714   8.579  13.626
90658SOL    HW273814   2.865   8.573  13.640
90659SOL     OW73815  14.472   0.275   7.753
90659SOL    HW173816  14.492   0.188   7.719
90659SOL    HW273817  14.518   0.280   7.836
90660SOL     OW73818  10.198   1.412   2.432
90660SOL    HW173819  10.243   1.496   2.423
90660SOL    HW273820  10.196   1.376   2.344
90661SOL     OW73821   0.176  13.258   8.450
90661SOL    HW173822   0.230  13.331   8.479
90661SOL    HW273823   0.125  13.233   8.527
90662SOL     OW73824   7.057   5.699   1.896
90662SOL    HW173825   7.041   5.698   1.802
90662SOL    HW273826   6.981   5.745   1.933
90663SOL     OW73827   7.795  10.302  14.639
90663SOL    HW173828   7.839  10.310  14.554
90663SOL    HW273829   7.863  10.270  14.698
90664SOL     OW73830   3.064  14.123   8.577
90664SOL    HW173831   3.007  14.059   8.620
90664SOL    HW273832   3.005  14.195   8.555
90665SOL     OW73833   5.227   5.359   5.389
90665SOL    HW173834   5.292   5.293   5.413
90665SOL    HW273835   5.181   5.322   5.314
90666SOL     OW73836  10.665   1.776   6.876
90666SOL    HW173837  10.576   1.792   6.846
90666SOL    HW273838  10.656   1.756   6.970
90667SOL     OW73839   1.710   7.084  12.823
90667SOL    HW173840   1.798   7.048  12.827
90667SOL    HW273841   1.721   7.170  12.782
90668SOL     OW73842  13.454  11.797  11.670
90668SOL    HW173843  13.385  11.736  11.695
90668SOL    HW273844  13.520  11.787  11.738
90669SOL     OW73845   6.181   9.954   6.497
90669SOL    HW173846   6.170   9.981   6.405
90669SOL    HW273847   6.260   9.901   6.496
90670SOL     OW73848  12.569   3.376   1.004
90670SOL    HW173849  12.622   3.392   1.082
90670SOL    HW273850  12.611   3.426   0.935
90671SOL     OW73851   5.426  14.302   0.172
90671SOL    HW173852   5.360  14.234   0.161
90671SOL    HW273853   5.380  14.384   0.152
90672SOL     OW73854   7.598   5.079  14.367
90672SOL    HW173855   7.642   5.102  14.449
90672SOL    HW273856   7.648   5.125  14.299
90673SOL     OW73857   0.090   2.088  11.509
90673SOL    HW173858   0.019   2.099  11.447
90673SOL    HW273859   0.136   2.010  11.480
90674SOL     OW73860   4.299   3.116   7.244
90674SOL    HW173861   4.368   3.156   7.297
90674SOL    HW273862   4.239   3.187   7.223
90675SOL     OW73863  11.882   2.173   2.884
90675SOL    HW173864  11.794   2.141   2.865
90675SOL    HW273865  11.870   2.239   2.953
90676SOL     OW73866   5.519   2.192   5.866
90676SOL    HW173867   5.589   2.255   5.881
90676SOL    HW273868   5.496   2.203   5.774
90677SOL     OW73869   4.718   3.253  13.112
90677SOL    HW173870   4.802   3.217  13.084
90677SOL    HW273871   4.664   3.254  13.033
90678SOL     OW73872   1.396   6.431  11.008
90678SOL    HW173873   1.428   6.348  11.045
90678SOL    HW273874   1.302   6.430  11.024
90679SOL     OW73875   6.867  12.823  11.564
90679SOL    HW173876   6.843  12.737  11.528
90679SOL    HW273877   6.959  12.813  11.590
90680SOL     OW73878  11.325   5.008   0.542
90680SOL    HW173879  11.286   4.932   0.501
90680SOL    HW273880  11.278   5.018   0.624
90681SOL     OW73881   6.440   8.018   5.053
90681SOL    HW173882   6.375   8.019   5.123
90681SOL    HW273883   6.507   8.080   5.082
90682SOL     OW73884   9.308   1.287   7.479
90682SOL    HW173885   9.394   1.327   7.490
90682SOL    HW273886   9.270   1.289   7.567
90683SOL     OW73887   5.020   9.890   5.562
90683SOL    HW173888   4.948   9.929   5.611
90683SOL    HW273889   5.033   9.804   5.603
90684SOL     OW73890   6.659  10.376   4.270
90684SOL    HW173891   6.720  10.410   4.204
90684SOL    HW273892   6.705  10.388   4.353
90685SOL     OW73893   7.995   4.545   1.143
90685SOL    HW173894   8.022   4.637   1.138
90685SOL    HW273895   7.917   4.546   1.198
90686SOL     OW73896  10.689   2.807   0.902
90686SOL    HW173897  10.665   2.796   0.810
90686SOL    HW273898  10.784   2.816   0.901
90687SOL     OW73899   6.306   2.901  11.702
90687SOL    HW173900   6.292   2.938  11.789
90687SOL    HW273901   6.373   2.834  11.715
90688SOL     OW73902   0.458   3.468  11.151
90688SOL    HW173903   0.546   3.504  11.135
90688SOL    HW273904   0.430   3.434  11.066
90689SOL     OW73905   7.460   3.206   6.011
90689SOL    HW173906   7.515   3.131   5.987
90689SOL    HW273907   7.370   3.177   5.992
90690SOL     OW73908   3.658   3.875   5.695
90690SOL    HW173909   3.719   3.935   5.736
90690SOL    HW273910   3.627   3.920   5.617
90691SOL     OW73911   1.514   5.757   8.865
90691SOL    HW173912   1.575   5.716   8.927
90691SOL    HW273913   1.440   5.784   8.919
90692SOL     OW73914   1.640   1.362   5.939
90692SOL    HW173915   1.614   1.306   6.012
90692SOL    HW273916   1.558   1.389   5.898
90693SOL     OW73917   2.360   9.174   1.459
90693SOL    HW173918   2.320   9.149   1.375
90693SOL    HW273919   2.286   9.184   1.519
90694SOL     OW73920   8.001  11.206  11.807
90694SOL    HW173921   8.069  11.180  11.745
90694SOL    HW273922   7.924  11.222  11.753
90695SOL     OW73923   8.182   6.398  14.193
90695SOL    HW173924   8.197   6.462  14.124
90695SOL    HW273925   8.102   6.353  14.167
90696SOL     OW73926   1.691  12.676  14.804
90696SOL    HW173927   1.746  12.718  14.870
90696SOL    HW273928   1.750  12.617  14.758
90697SOL     OW73929  10.867   6.286   3.970
90697SOL    HW173930  10.900   6.291   4.059
90697SOL    HW273931  10.788   6.339   3.970
90698SOL     OW73932   8.456   5.088  13.868
90698SOL    HW173933   8.432   5.175  13.836
90698SOL    HW273934   8.529   5.105  13.928
90699SOL     OW73935   1.635   1.105   7.523
90699SOL    HW173936   1.615   1.019   7.560
90699SOL    HW273937   1.729   1.116   7.538
90700SOL     OW73938  14.758  13.968   1.805
90700SOL    HW173939  14.745  13.934   1.893
90700SOL    HW273940  14.701  13.915   1.750
90701SOL     OW73941   7.250  10.023   8.439
90701SOL    HW173942   7.308   9.970   8.386
90701SOL    HW273943   7.251   9.981   8.525
90702SOL     OW73944  13.731  10.942  10.660
90702SOL    HW173945  13.651  10.899  10.631
90702SOL    HW273946  13.745  11.013  10.596
90703SOL     OW73947   3.193   8.759  14.047
90703SOL    HW173948   3.184   8.676  14.094
90703SOL    HW273949   3.287   8.778  14.051
90704SOL     OW73950   2.207   5.867   1.970
90704SOL    HW173951   2.230   5.885   1.879
90704SOL    HW273952   2.261   5.792   1.995
90705SOL     OW73953   9.624   9.252   7.480
90705SOL    HW173954   9.619   9.158   7.499
90705SOL    HW273955   9.560   9.266   7.410
90706SOL     OW73956  11.648   4.807  12.747
90706SOL    HW173957  11.562   4.774  12.771
90706SOL    HW273958  11.632   4.868  12.674
90707SOL     OW73959   0.720   6.617   9.215
90707SOL    HW173960   0.697   6.710   9.222
90707SOL    HW273961   0.695   6.592   9.127
90708SOL     OW73962  13.630   7.687   3.005
90708SOL    HW173963  13.545   7.730   3.016
90708SOL    HW273964  13.682   7.750   2.955
90709SOL     OW73965   8.180  12.564   7.125
90709SOL    HW173966   8.205  12.656   7.115
90709SOL    HW273967   8.250  12.527   7.179
90710SOL     OW73968   5.716  14.228   1.129
90710SOL    HW173969   5.710  14.151   1.073
90710SOL    HW273970   5.776  14.202   1.199
90711SOL     OW73971   2.775  13.543  13.024
90711SOL    HW173972   2.830  13.472  12.991
90711SOL    HW273973   2.780  13.535  13.119
90712SOL     OW73974  11.946   5.793   9.814
90712SOL    HW173975  11.936   5.730   9.885
90712SOL    HW273976  12.038   5.820   9.819
90713SOL     OW73977   6.201   4.600   3.928
90713SOL    HW173978   6.221   4.560   3.844
90713SOL    HW273979   6.284   4.598   3.976
90714SOL     OW73980  10.490  13.763   9.885
90714SOL    HW173981  10.418  13.760   9.823
90714SOL    HW273982  10.558  13.707   9.845
90715SOL     OW73983   0.486   5.809  11.442
90715SOL    HW173984   0.408   5.817  11.386
90715SOL    HW273985   0.455   5.760  11.518
90716SOL     OW73986   4.808  10.574   7.805
90716SOL    HW173987   4.757  10.518   7.862
90716SOL    HW273988   4.879  10.606   7.860
90717SOL     OW73989   4.325   3.283  10.409
90717SOL    HW173990   4.240   3.278  10.453
90717SOL    HW273991   4.327   3.370  10.371
90718SOL     OW73992   5.364  14.036  10.289
90718SOL    HW173993   5.284  14.084  10.312
90718SOL    HW273994   5.396  14.080  10.210
90719SOL     OW73995   3.691   1.972   4.558
90719SOL    HW173996   3.627   2.020   4.611
90719SOL    HW273997   3.763   2.034   4.546
90720SOL     OW73998   9.516  13.736  14.631
90720SOL    HW173999   9.541  13.730  14.723
90720SOL    HW274000   9.598  13.755  14.585
90721SOL     OW74001   7.703   4.479  13.182
90721SOL    HW174002   7.645   4.476  13.107
90721SOL    HW274003   7.666   4.547  13.239
90722SOL     OW74004   9.331   4.009  13.901
90722SOL    HW174005   9.367   4.082  13.952
90722SOL    HW274006   9.325   4.044  13.811
90723SOL     OW74007  13.515  14.481   5.552
90723SOL    HW174008  13.438  14.436   5.517
90723SOL    HW274009  13.481  14.561   5.591
90724SOL     OW74010   2.425  10.217  11.656
90724SOL    HW174011   2.505  10.255  11.692
90724SOL    HW274012   2.360  10.227  11.725
90725SOL     OW74013   5.241  11.970  10.121
90725SOL    HW174014   5.162  11.983  10.069
90725SOL    HW274015   5.211  11.924  10.199
90726SOL     OW74016   0.068   6.890  14.200
90726SOL    HW174017   0.129   6.881  14.127
90726SOL    HW274018   0.095   6.970  14.245
90727SOL     OW74019   2.156   4.057   9.550
90727SOL    HW174020   2.094   4.067   9.623
90727SOL    HW274021   2.160   3.963   9.534
90728SOL     OW74022  10.251   2.695  14.838
90728SOL    HW174023  10.237   2.745   0.044
90728SOL    HW274024  10.347   2.689  14.830
90729SOL     OW74025  10.623   9.611   6.319
90729SOL    HW174026  10.640   9.705   6.326
90729SOL    HW274027  10.707   9.570   6.338
90730SOL     OW74028   1.012  13.045   5.175
90730SOL    HW174029   0.934  12.999   5.208
90730SOL    HW274030   0.984  13.081   5.091
90731SOL     OW74031  14.544   8.399   6.045
90731SOL    HW174032  14.548   8.448   6.127
90731SOL    HW274033  14.595   8.452   5.983
90732SOL     OW74034   2.100   0.705  10.807
90732SOL    HW174035   2.018   0.755  10.805
90732SOL    HW274036   2.136   0.723  10.894
90733SOL     OW74037   4.958   3.433  13.463
90733SOL    HW174038   4.872   3.452  13.499
90733SOL    HW274039   5.020   3.469  13.527
90734SOL     OW74040  13.183   3.272  12.870
90734SOL    HW174041  13.156   3.193  12.822
90734SOL    HW274042  13.200   3.336  12.801
90735SOL     OW74043  14.597   5.570   9.721
90735SOL    HW174044  14.690   5.573   9.699
90735SOL    HW274045  14.553   5.552   9.638
90736SOL     OW74046   2.102   9.071   8.943
90736SOL    HW174047   2.030   9.018   8.909
90736SOL    HW274048   2.085   9.159   8.910
90737SOL     OW74049   6.636  12.820   3.473
90737SOL    HW174050   6.602  12.733   3.493
90737SOL    HW274051   6.728  12.806   3.451
90738SOL     OW74052  13.762   1.868  11.942
90738SOL    HW174053  13.750   1.954  11.902
90738SOL    HW274054  13.766   1.808  11.868
90739SOL     OW74055   9.706  14.675  13.962
90739SOL    HW174056   9.692  14.690  14.055
90739SOL    HW274057   9.676  14.585  13.947
90740SOL     OW74058   1.912  11.795   2.140
90740SOL    HW174059   1.992  11.843   2.116
90740SOL    HW274060   1.863  11.788   2.059
90741SOL     OW74061  14.357   1.765   8.672
90741SOL    HW174062  14.419   1.838   8.670
90741SOL    HW274063  14.318   1.769   8.759
90742SOL     OW74064   4.167   0.872   1.268
90742SOL    HW174065   4.191   0.839   1.181
90742SOL    HW274066   4.157   0.966   1.256
90743SOL     OW74067   6.733  13.806   9.307
90743SOL    HW174068   6.805  13.751   9.274
90743SOL    HW274069   6.761  13.896   9.288
90744SOL     OW74070   0.606  14.421   0.041
90744SOL    HW174071   0.563  14.380  14.840
90744SOL    HW274072   0.603  14.354   0.110
90745SOL     OW74073   8.855  10.946  10.674
90745SOL    HW174074   8.940  10.916  10.704
90745SOL    HW274075   8.805  10.866  10.660
90746SOL     OW74076  12.842   7.918   2.400
90746SOL    HW174077  12.924   7.965   2.418
90746SOL    HW274078  12.815   7.949   2.314
90747SOL     OW74079  14.344  14.628   6.579
90747SOL    HW174080  14.435  14.606   6.598
90747SOL    HW274081  14.302  14.632   6.665
90748SOL     OW74082   0.314   4.237  13.141
90748SOL    HW174083   0.341   4.322  13.174
90748SOL    HW274084   0.293   4.252  13.049
90749SOL     OW74085  14.115   2.679   3.783
90749SOL    HW174086  14.160   2.598   3.807
90749SOL    HW274087  14.163   2.712   3.707
90750SOL     OW74088   2.073   8.077  12.891
90750SOL    HW174089   1.979   8.064  12.887
90750SOL    HW274090   2.085   8.171  12.874
90751SOL     OW74091  11.197   3.868   0.842
90751SOL    HW174092  11.255   3.817   0.898
90751SOL    HW274093  11.180   3.948   0.892
90752SOL     OW74094  12.914   6.930   0.831
90752SOL    HW174095  12.977   6.939   0.902
90752SOL    HW274096  12.912   6.836   0.811
90753SOL     OW74097   8.382   9.796   5.152
90753SOL    HW174098   8.348   9.758   5.233
90753SOL    HW274099   8.476   9.807   5.168
90754SOL     OW74100  11.095   5.431   4.568
90754SOL    HW174101  11.120   5.380   4.491
90754SOL    HW274102  11.004   5.456   4.551
90755SOL     OW74103   4.386  11.696  12.882
90755SOL    HW174104   4.368  11.789  12.891
90755SOL    HW274105   4.418  11.669  12.968
90756SOL     OW74106   7.649   4.616  13.859
90756SOL    HW174107   7.644   4.553  13.931
90756SOL    HW274108   7.654   4.562  13.780
90757SOL     OW74109   2.477   2.109   5.977
90757SOL    HW174110   2.511   2.156   5.901
90757SOL    HW274111   2.388   2.084   5.951
90758SOL     OW74112  13.304   3.019  14.334
90758SOL    HW174113  13.294   2.982  14.422
90758SOL    HW274114  13.314   2.943  14.277
90759SOL     OW74115   7.778  13.364   9.169
90759SOL    HW174116   7.739  13.361   9.257
90759SOL    HW274117   7.703  13.356   9.110
90760SOL     OW74118   2.830   5.078   7.547
90760SOL    HW174119   2.920   5.068   7.519
90760SOL    HW274120   2.809   4.996   7.592
90761SOL     OW74121  12.957   7.442  10.107
90761SOL    HW174122  12.875   7.411  10.069
90761SOL    HW274123  12.956   7.536  10.095
90762SOL     OW74124  13.800   9.922   8.707
90762SOL    HW174125  13.770   9.974   8.782
90762SOL    HW274126  13.719   9.901   8.659
90763SOL     OW74127   4.833   2.946   2.392
90763SOL    HW174128   4.779   2.941   2.470
90763SOL    HW274129   4.921   2.923   2.422
90764SOL     OW74130   3.449   4.766   7.919
90764SOL    HW174131   3.378   4.734   7.974
90764SOL    HW274132   3.451   4.705   7.845
90765SOL     OW74133  14.632   1.472   1.547
90765SOL    HW174134  14.606   1.387   1.579
90765SOL    HW274135  14.650   1.458   1.454
90766SOL     OW74136   1.078   0.659   2.735
90766SOL    HW174137   1.131   0.689   2.808
90766SOL    HW274138   1.124   0.688   2.657
90767SOL     OW74139   3.402   8.887   5.620
90767SOL    HW174140   3.435   8.800   5.602
90767SOL    HW274141   3.314   8.873   5.654
90768SOL     OW74142   6.445   5.413   2.718
90768SOL    HW174143   6.353   5.388   2.729
90768SOL    HW274144   6.441   5.506   2.692
90769SOL     OW74145   2.005   6.765  13.295
90769SOL    HW174146   1.927   6.804  13.335
90769SOL    HW274147   2.076   6.825  13.317
90770SOL     OW74148   8.721  11.578  12.307
90770SOL    HW174149   8.642  11.537  12.342
90770SOL    HW274150   8.725  11.663  12.352
90771SOL     OW74151   5.470  10.345  12.913
90771SOL    HW174152   5.477  10.429  12.868
90771SOL    HW274153   5.476  10.280  12.844
90772SOL     OW74154   1.990   8.080   1.951
90772SOL    HW174155   2.024   7.992   1.934
90772SOL    HW274156   2.020   8.101   2.040
90773SOL     OW74157   9.783  14.043   2.680
90773SOL    HW174158   9.754  14.128   2.714
90773SOL    HW274159   9.725  13.980   2.723
90774SOL     OW74160   0.672   1.500  13.798
90774SOL    HW174161   0.697   1.591  13.783
90774SOL    HW274162   0.701   1.482  13.888
90775SOL     OW74163   6.937  13.099   6.604
90775SOL    HW174164   6.946  13.045   6.525
90775SOL    HW274165   6.905  13.039   6.671
90776SOL     OW74166  12.323   1.384   5.472
90776SOL    HW174167  12.242   1.335   5.459
90776SOL    HW274168  12.393   1.320   5.461
90777SOL     OW74169  14.743   9.906  13.689
90777SOL    HW174170  14.664   9.948  13.722
90777SOL    HW274171  14.726   9.891  13.596
90778SOL     OW74172  14.476   0.361   0.610
90778SOL    HW174173  14.452   0.286   0.556
90778SOL    HW274174  14.560   0.390   0.575
90779SOL     OW74175  10.298   0.423  11.503
90779SOL    HW174176  10.347   0.411  11.585
90779SOL    HW274177  10.216   0.464  11.530
90780SOL     OW74178   5.585   5.973   1.346
90780SOL    HW174179   5.624   6.060   1.351
90780SOL    HW274180   5.495   5.984   1.378
90781SOL     OW74181   3.469   5.630   8.005
90781SOL    HW174182   3.442   5.659   8.092
90781SOL    HW274183   3.519   5.550   8.021
90782SOL     OW74184   5.287  12.768   4.223
90782SOL    HW174185   5.326  12.840   4.272
90782SOL    HW274186   5.313  12.689   4.271
90783SOL     OW74187  13.123   5.303   6.890
90783SOL    HW174188  13.094   5.265   6.807
90783SOL    HW274189  13.105   5.235   6.955
90784SOL     OW74190  12.804   9.183   6.353
90784SOL    HW174191  12.870   9.126   6.313
90784SOL    HW274192  12.763   9.128   6.421
90785SOL     OW74193  11.650   0.324  12.815
90785SOL    HW174194  11.731   0.272  12.818
90785SOL    HW274195  11.580   0.260  12.824
90786SOL     OW74196   0.389   6.096   4.552
90786SOL    HW174197   0.338   6.075   4.474
90786SOL    HW274198   0.364   6.185   4.574
90787SOL     OW74199  11.359   0.831   9.399
90787SOL    HW174200  11.401   0.755   9.359
90787SOL    HW274201  11.406   0.906   9.363
90788SOL     OW74202  10.628   0.223  14.479
90788SOL    HW174203  10.616   0.291  14.545
90788SOL    HW274204  10.603   0.142  14.523
90789SOL     OW74205   3.858   8.167  12.491
90789SOL    HW174206   3.919   8.097  12.517
90789SOL    HW274207   3.774   8.122  12.482
90790SOL     OW74208   9.152   2.188   6.193
90790SOL    HW174209   9.218   2.125   6.165
90790SOL    HW274210   9.126   2.233   6.112
90791SOL     OW74211   2.755   7.163   0.025
90791SOL    HW174212   2.795   7.247   0.002
90791SOL    HW274213   2.744   7.118  14.815
90792SOL     OW74214   1.653   7.432  14.202
90792SOL    HW174215   1.728   7.455  14.257
90792SOL    HW274216   1.650   7.501  14.136
90793SOL     OW74217   1.130   4.334   0.395
90793SOL    HW174218   1.205   4.276   0.381
90793SOL    HW274219   1.067   4.308   0.328
90794SOL     OW74220  10.812   9.768   2.311
90794SOL    HW174221  10.806   9.841   2.249
90794SOL    HW274222  10.840   9.809   2.393
90795SOL     OW74223   8.103   0.328   1.473
90795SOL    HW174224   8.068   0.247   1.437
90795SOL    HW274225   8.115   0.385   1.396
90796SOL     OW74226  10.450  11.530   3.140
90796SOL    HW174227  10.485  11.483   3.064
90796SOL    HW274228  10.513  11.601   3.155
90797SOL     OW74229   7.273   7.266  10.641
90797SOL    HW174230   7.196   7.276  10.585
90797SOL    HW274231   7.265   7.337  10.705
90798SOL     OW74232   6.378   2.837   4.161
90798SOL    HW174233   6.289   2.815   4.188
90798SOL    HW274234   6.368   2.911   4.102
90799SOL     OW74235   1.807   2.798   9.598
90799SOL    HW174236   1.814   2.892   9.615
90799SOL    HW274237   1.841   2.787   9.509
90800SOL     OW74238   7.494   3.043   4.048
90800SOL    HW174239   7.552   2.969   4.028
90800SOL    HW274240   7.546   3.120   4.026
90801SOL     OW74241  10.212   6.101   1.620
90801SOL    HW174242  10.267   6.072   1.693
90801SOL    HW274243  10.268   6.092   1.543
90802SOL     OW74244   0.171  10.742  12.299
90802SOL    HW174245   0.218  10.680  12.355
90802SOL    HW274246   0.082  10.743  12.334
90803SOL     OW74247  12.805   0.610   4.286
90803SOL    HW174248  12.857   0.568   4.355
90803SOL    HW274249  12.717   0.575   4.297
90804SOL     OW74250   0.555   7.549   1.546
90804SOL    HW174251   0.461   7.557   1.532
90804SOL    HW274252   0.593   7.622   1.496
90805SOL     OW74253   5.286   2.061   5.782
90805SOL    HW174254   5.341   2.080   5.706
90805SOL    HW274255   5.346   2.065   5.856
90806SOL     OW74256   1.562  10.245  14.860
90806SOL    HW174257   1.527  10.334  14.859
90806SOL    HW274258   1.552  10.216   0.077
90807SOL     OW74259   4.637  13.811   2.633
90807SOL    HW174260   4.599  13.745   2.575
90807SOL    HW274261   4.567  13.833   2.694
90808SOL     OW74262  11.124   7.661  13.335
90808SOL    HW174263  11.183   7.683  13.263
90808SOL    HW274264  11.079   7.743  13.356
90809SOL     OW74265   3.903   0.477   8.217
90809SOL    HW174266   3.900   0.519   8.131
90809SOL    HW274267   3.954   0.537   8.271
90810SOL     OW74268   8.548   4.133   0.862
90810SOL    HW174269   8.537   4.199   0.794
90810SOL    HW274270   8.602   4.065   0.821
90811SOL     OW74271   8.780   8.969   7.339
90811SOL    HW174272   8.783   8.889   7.390
90811SOL    HW274273   8.748   9.036   7.400
90812SOL     OW74274   5.290   9.096  13.632
90812SOL    HW174275   5.227   9.145  13.579
90812SOL    HW274276   5.327   9.161  13.692
90813SOL     OW74277   0.516   9.962   2.967
90813SOL    HW174278   0.454  10.035   2.959
90813SOL    HW274279   0.484   9.911   3.041
90814SOL     OW74280   8.585  11.838   8.981
90814SOL    HW174281   8.653  11.773   9.000
90814SOL    HW274282   8.505  11.787   8.971
90815SOL     OW74283  11.388   3.057  13.929
90815SOL    HW174284  11.394   3.145  13.967
90815SOL    HW274285  11.457   3.055  13.863
90816SOL     OW74286   2.038   5.443  11.851
90816SOL    HW174287   2.125   5.438  11.810
90816SOL    HW274288   2.046   5.390  11.930
90817SOL     OW74289  11.984   4.108   2.716
90817SOL    HW174290  11.968   4.014   2.708
90817SOL    HW274291  11.897   4.147   2.723
90818SOL     OW74292   3.982   8.074   8.744
90818SOL    HW174293   3.989   8.170   8.741
90818SOL    HW274294   3.948   8.056   8.832
90819SOL     OW74295   5.750   2.256   2.536
90819SOL    HW174296   5.743   2.333   2.481
90819SOL    HW274297   5.722   2.285   2.623
90820SOL     OW74298   7.497   2.224  12.611
90820SOL    HW174299   7.510   2.258  12.700
90820SOL    HW274300   7.419   2.169  12.617
90821SOL     OW74301  10.259   8.647   7.003
90821SOL    HW174302  10.302   8.568   6.972
90821SOL    HW274303  10.192   8.615   7.064
90822SOL     OW74304   4.731   5.041   3.631
90822SOL    HW174305   4.642   5.071   3.616
90822SOL    HW274306   4.721   4.958   3.678
90823SOL     OW74307  10.869   4.468   4.340
90823SOL    HW174308  10.889   4.560   4.355
90823SOL    HW274309  10.777   4.458   4.366
90824SOL     OW74310   2.562   7.940   3.646
90824SOL    HW174311   2.630   7.877   3.671
90824SOL    HW274312   2.596   7.980   3.566
90825SOL     OW74313   6.745   5.658   3.513
90825SOL    HW174314   6.797   5.579   3.498
90825SOL    HW274315   6.806   5.731   3.496
90826SOL     OW74316   1.630   7.267   4.671
90826SOL    HW174317   1.576   7.248   4.748
90826SOL    HW274318   1.603   7.355   4.644
90827SOL     OW74319   4.801   3.453   9.865
90827SOL    HW174320   4.808   3.428   9.773
90827SOL    HW274321   4.850   3.535   9.871
90828SOL     OW74322   6.084  12.622  11.713
90828SOL    HW174323   6.089  12.667  11.797
90828SOL    HW274324   6.175  12.616  11.684
90829SOL     OW74325  10.655   0.613   8.498
90829SOL    HW174326  10.671   0.675   8.570
90829SOL    HW274327  10.597   0.548   8.536
90830SOL     OW74328   9.717  11.419   1.050
90830SOL    HW174329   9.724  11.373   0.967
90830SOL    HW274330   9.677  11.356   1.109
90831SOL     OW74331   2.752   7.839  12.676
90831SOL    HW174332   2.747   7.790  12.758
90831SOL    HW274333   2.710   7.923  12.696
90832SOL     OW74334  11.229  10.984   4.700
90832SOL    HW174335  11.175  10.932   4.640
90832SOL    HW274336  11.167  11.045   4.740
90833SOL     OW74337   4.453   4.136   9.747
90833SOL    HW174338   4.373   4.136   9.694
90833SOL    HW274339   4.431   4.083   9.823
90834SOL     OW74340   3.685  10.687   7.179
90834SOL    HW174341   3.675  10.775   7.144
90834SOL    HW274342   3.778  10.680   7.202
90835SOL     OW74343   2.514  13.394   4.174
90835SOL    HW174344   2.509  13.364   4.083
90835SOL    HW274345   2.463  13.329   4.223
90836SOL     OW74346   4.896  11.764   1.667
90836SOL    HW174347   4.866  11.720   1.588
90836SOL    HW274348   4.841  11.728   1.737
90837SOL     OW74349  14.667   5.494   3.669
90837SOL    HW174350  14.744   5.436   3.676
90837SOL    HW274351  14.635   5.500   3.759
90838SOL     OW74352   7.102  12.850   9.773
90838SOL    HW174353   7.184  12.809   9.747
90838SOL    HW274354   7.128  12.931   9.816
90839SOL     OW74355  12.756  13.223   5.819
90839SOL    HW174356  12.686  13.286   5.834
90839SOL    HW274357  12.712  13.145   5.787
90840SOL     OW74358  10.269   8.853  14.501
90840SOL    HW174359  10.328   8.786  14.466
90840SOL    HW274360  10.183   8.813  14.498
90841SOL     OW74361   3.438   5.327   9.113
90841SOL    HW174362   3.401   5.253   9.162
90841SOL    HW274363   3.382   5.401   9.137
90842SOL     OW74364   6.126   4.620  11.364
90842SOL    HW174365   6.144   4.538  11.410
90842SOL    HW274366   6.189   4.682  11.399
90843SOL     OW74367   1.177  11.851  11.354
90843SOL    HW174368   1.102  11.902  11.324
90843SOL    HW274369   1.141  11.765  11.375
90844SOL     OW74370   4.939  14.275   1.166
90844SOL    HW174371   4.913  14.306   1.253
90844SOL    HW274372   5.030  14.304   1.157
90845SOL     OW74373   0.394   0.332  12.737
90845SOL    HW174374   0.463   0.389  12.771
90845SOL    HW274375   0.313   0.377  12.760
90846SOL     OW74376  10.115   0.833   2.852
90846SOL    HW174377  10.183   0.782   2.807
90846SOL    HW274378  10.145   0.924   2.843
90847SOL     OW74379   1.281  13.471  12.470
90847SOL    HW174380   1.272  13.395  12.528
90847SOL    HW274381   1.373  13.498  12.479
90848SOL     OW74382   6.404  12.640   9.728
90848SOL    HW174383   6.473  12.638   9.794
90848SOL    HW274384   6.362  12.554   9.734
90849SOL     OW74385  12.143  12.213   2.830
90849SOL    HW174386  12.222  12.176   2.789
90849SOL    HW274387  12.177  12.282   2.887
90850SOL     OW74388   1.249   6.351  13.608
90850SOL    HW174389   1.244   6.343  13.703
90850SOL    HW274390   1.306   6.427  13.594
90851SOL     OW74391   9.592  11.509  13.923
90851SOL    HW174392   9.548  11.425  13.912
90851SOL    HW274393   9.617  11.510  14.015
90852SOL     OW74394   1.478   5.657   2.349
90852SOL    HW174395   1.404   5.601   2.325
90852SOL    HW274396   1.555   5.602   2.333
90853SOL     OW74397   2.045  11.400  11.200
90853SOL    HW174398   2.067  11.492  11.207
90853SOL    HW274399   2.119  11.354  11.239
90854SOL     OW74400   3.186   2.868   2.903
90854SOL    HW174401   3.193   2.784   2.947
90854SOL    HW274402   3.094   2.894   2.914
90855SOL     OW74403   4.085  12.457   0.715
90855SOL    HW174404   4.009  12.413   0.675
90855SOL    HW274405   4.133  12.493   0.641
90856SOL     OW74406   9.819   3.055   6.682
90856SOL    HW174407   9.848   3.014   6.600
90856SOL    HW274408   9.753   2.995   6.717
90857SOL     OW74409  11.936   3.751   3.854
90857SOL    HW174410  11.969   3.667   3.887
90857SOL    HW274411  11.873   3.779   3.921
90858SOL     OW74412   5.020  14.349  11.266
90858SOL    HW174413   5.066  14.319  11.187
90858SOL    HW274414   5.063  14.303  11.338
90859SOL     OW74415   1.790   5.913   5.722
90859SOL    HW174416   1.707   5.928   5.677
90859SOL    HW274417   1.817   5.825   5.695
90860SOL     OW74418   7.885   6.916   5.065
90860SOL    HW174419   7.963   6.881   5.022
90860SOL    HW274420   7.905   6.911   5.159
90861SOL     OW74421   3.384  10.699   5.523
90861SOL    HW174422   3.403  10.769   5.461
90861SOL    HW274423   3.434  10.624   5.491
90862SOL     OW74424  14.026  12.914   1.052
90862SOL    HW174425  13.955  12.854   1.076
90862SOL    HW274426  13.996  12.955   0.971
90863SOL     OW74427   2.843   5.287  13.808
90863SOL    HW174428   2.781   5.318  13.874
90863SOL    HW274429   2.789   5.240  13.745
90864SOL     OW74430   7.960  13.114   5.387
90864SOL    HW174431   8.016  13.179   5.344
90864SOL    HW274432   8.014  13.079   5.458
90865SOL     OW74433   9.699  13.129   5.627
90865SOL    HW174434   9.735  13.205   5.671
90865SOL    HW274435   9.756  13.056   5.653
90866SOL     OW74436  14.390  13.800   3.805
90866SOL    HW174437  14.429  13.879   3.841
90866SOL    HW274438  14.456  13.733   3.816
90867SOL     OW74439  11.313   0.851   0.212
90867SOL    HW174440  11.282   0.895   0.132
90867SOL    HW274441  11.315   0.920   0.278
90868SOL     OW74442   0.604   2.883   0.825
90868SOL    HW174443   0.690   2.895   0.785
90868SOL    HW274444   0.622   2.838   0.907
90869SOL     OW74445   2.419  11.133   2.563
90869SOL    HW174446   2.426  11.183   2.644
90869SOL    HW274447   2.415  11.199   2.494
90870SOL     OW74448   7.011   6.097   5.330
90870SOL    HW174449   7.050   6.170   5.281
90870SOL    HW274450   7.002   6.131   5.419
90871SOL     OW74451  11.016   0.733  10.888
90871SOL    HW174452  10.974   0.741  10.974
90871SOL    HW274453  11.054   0.645  10.888
90872SOL     OW74454   5.787   6.102   7.187
90872SOL    HW174455   5.873   6.059   7.178
90872SOL    HW274456   5.724   6.034   7.164
90873SOL     OW74457   8.407   5.311   5.581
90873SOL    HW174458   8.318   5.336   5.605
90873SOL    HW274459   8.450   5.292   5.664
90874SOL     OW74460   3.150   5.107  10.673
90874SOL    HW174461   3.116   5.184  10.627
90874SOL    HW274462   3.131   5.034  10.613
90875SOL     OW74463   6.559  13.807  12.827
90875SOL    HW174464   6.603  13.763  12.900
90875SOL    HW274465   6.607  13.890  12.817
90876SOL     OW74466   1.695   7.851   2.638
90876SOL    HW174467   1.705   7.797   2.560
90876SOL    HW274468   1.601   7.862   2.648
90877SOL     OW74469   2.293   5.078  11.095
90877SOL    HW174470   2.202   5.051  11.107
90877SOL    HW274471   2.296   5.168  11.130
90878SOL     OW74472  14.862   3.965   2.596
90878SOL    HW174473  14.867   3.957   2.691
90878SOL    HW274474   0.020   3.881   2.563
90879SOL     OW74475   1.534   8.960   6.445
90879SOL    HW174476   1.562   8.869   6.458
90879SOL    HW274477   1.516   8.966   6.351
90880SOL     OW74478   2.260   3.949   7.532
90880SOL    HW174479   2.195   3.987   7.473
90880SOL    HW274480   2.219   3.867   7.562
90881SOL     OW74481   8.064  12.190   1.182
90881SOL    HW174482   8.099  12.196   1.093
90881SOL    HW274483   8.114  12.256   1.231
90882SOL     OW74484   0.460   9.874   5.546
90882SOL    HW174485   0.389   9.842   5.491
90882SOL    HW274486   0.529   9.898   5.484
90883SOL     OW74487   0.749   2.208   5.899
90883SOL    HW174488   0.690   2.132   5.893
90883SOL    HW274489   0.696   2.282   5.869
90884SOL     OW74490  12.937   1.702   7.329
90884SOL    HW174491  12.842   1.695   7.334
90884SOL    HW274492  12.954   1.742   7.243
90885SOL     OW74493   2.645   7.456  11.694
90885SOL    HW174494   2.728   7.493  11.663
90885SOL    HW274495   2.660   7.361  11.697
90886SOL     OW74496   1.309   6.900   3.683
90886SOL    HW174497   1.285   6.901   3.590
90886SOL    HW274498   1.281   6.814   3.714
90887SOL     OW74499   8.537  10.382   8.124
90887SOL    HW174500   8.467  10.414   8.181
90887SOL    HW274501   8.503  10.394   8.035
90888SOL     OW74502   6.527   3.326   1.457
90888SOL    HW174503   6.544   3.235   1.483
90888SOL    HW274504   6.497   3.368   1.538
90889SOL     OW74505   7.322   7.630  14.495
90889SOL    HW174506   7.250   7.681  14.533
90889SOL    HW274507   7.395   7.691  14.491
90890SOL     OW74508   4.646  11.348   1.644
90890SOL    HW174509   4.586  11.333   1.717
90890SOL    HW274510   4.632  11.439   1.619
90891SOL     OW74511   2.422   5.837  11.400
90891SOL    HW174512   2.389   5.852  11.312
90891SOL    HW274513   2.508   5.880  11.401
90892SOL     OW74514  11.318  14.524  10.209
90892SOL    HW174515  11.389  14.505  10.270
90892SOL    HW274516  11.305  14.442  10.161
90893SOL     OW74517   1.249   1.129  11.887
90893SOL    HW174518   1.157   1.151  11.900
90893SOL    HW274519   1.249   1.070  11.811
90894SOL     OW74520  11.601  14.121  11.200
90894SOL    HW174521  11.614  14.044  11.145
90894SOL    HW274522  11.675  14.120  11.261
90895SOL     OW74523  12.794   0.629   3.360
90895SOL    HW174524  12.794   0.724   3.344
90895SOL    HW274525  12.727   0.616   3.427
90896SOL     OW74526   6.851   8.303   0.614
90896SOL    HW174527   6.857   8.391   0.651
90896SOL    HW274528   6.771   8.304   0.562
90897SOL     OW74529   2.975  13.209   8.829
90897SOL    HW174530   3.020  13.218   8.745
90897SOL    HW274531   2.882  13.212   8.807
90898SOL     OW74532   0.895   0.863   0.082
90898SOL    HW174533   0.923   0.820   0.163
90898SOL    HW274534   0.853   0.944   0.111
90899SOL     OW74535  12.851  10.100  13.907
90899SOL    HW174536  12.926  10.062  13.953
90899SOL    HW274537  12.886  10.127  13.822
90900SOL     OW74538   3.841   6.394  14.090
90900SOL    HW174539   3.761   6.426  14.132
90900SOL    HW274540   3.857   6.456  14.019
90901SOL     OW74541   4.828   2.444  12.777
90901SOL    HW174542   4.899   2.416  12.718
90901SOL    HW274543   4.777   2.506  12.725
90902SOL     OW74544   2.454  10.289  12.127
90902SOL    HW174545   2.398  10.315  12.200
90902SOL    HW274546   2.480  10.371  12.086
90903SOL     OW74547  10.871   7.872   1.216
90903SOL    HW174548  10.894   7.882   1.124
90903SOL    HW274549  10.812   7.945   1.234
90904SOL     OW74550   1.311  14.630  10.018
90904SOL    HW174551   1.366  14.571   9.967
90904SOL    HW274552   1.229  14.634   9.970
90905SOL     OW74553   9.089  10.963   5.680
90905SOL    HW174554   9.066  10.878   5.642
90905SOL    HW274555   9.117  11.016   5.606
90906SOL     OW74556   6.057   0.411  13.802
90906SOL    HW174557   6.014   0.467  13.737
90906SOL    HW274558   6.080   0.332  13.753
90907SOL     OW74559  12.134   9.921   9.716
90907SOL    HW174560  12.087   9.838   9.708
90907SOL    HW274561  12.070   9.988   9.694
90908SOL     OW74562   4.222  13.858  11.452
90908SOL    HW174563   4.219  13.952  11.434
90908SOL    HW274564   4.205  13.852  11.547
90909SOL     OW74565   2.579  12.514   8.435
90909SOL    HW174566   2.565  12.468   8.352
90909SOL    HW274567   2.515  12.584   8.434
90910SOL     OW74568   2.171   7.767   3.174
90910SOL    HW174569   2.249   7.714   3.155
90910SOL    HW274570   2.204   7.838   3.229
90911SOL     OW74571   6.313   0.506   4.464
90911SOL    HW174572   6.242   0.483   4.524
90911SOL    HW274573   6.391   0.506   4.518
90912SOL     OW74574   4.516  13.516   6.984
90912SOL    HW174575   4.479  13.438   7.024
90912SOL    HW274576   4.605  13.490   6.959
90913SOL     OW74577   6.166   1.296   0.717
90913SOL    HW174578   6.150   1.274   0.625
90913SOL    HW274579   6.232   1.366   0.714
90914SOL     OW74580  10.489   3.343   6.026
90914SOL    HW174581  10.464   3.417   6.081
90914SOL    HW274582  10.410   3.288   6.023
90915SOL     OW74583  12.889   1.914   5.588
90915SOL    HW174584  12.963   1.855   5.605
90915SOL    HW274585  12.812   1.858   5.594
90916SOL     OW74586   4.496  12.519  11.712
90916SOL    HW174587   4.582  12.509  11.671
90916SOL    HW274588   4.442  12.562  11.645
90917SOL     OW74589   5.579   9.314  14.090
90917SOL    HW174590   5.486   9.335  14.083
90917SOL    HW274591   5.622   9.399  14.100
90918SOL     OW74592   4.497   9.263   7.143
90918SOL    HW174593   4.514   9.286   7.234
90918SOL    HW274594   4.519   9.170   7.136
90919SOL     OW74595   6.647   0.929   0.010
90919SOL    HW174596   6.681   0.966   0.091
90919SOL    HW274597   6.679   0.987  14.816
90920SOL     OW74598   4.205  11.366   7.752
90920SOL    HW174599   4.248  11.285   7.782
90920SOL    HW274600   4.267  11.404   7.689
90921SOL     OW74601   6.050  14.133  10.074
90921SOL    HW174602   6.019  14.169   9.990
90921SOL    HW274603   6.038  14.205  10.136
90922SOL     OW74604  10.852   5.597   0.008
90922SOL    HW174605  10.807   5.620  14.801
90922SOL    HW274606  10.934   5.558  14.853
90923SOL     OW74607   2.634   7.397   1.555
90923SOL    HW174608   2.700   7.329   1.572
90923SOL    HW274609   2.683   7.479   1.555
90924SOL     OW74610  14.232   9.983   7.301
90924SOL    HW174611  14.251   9.926   7.375
90924SOL    HW274612  14.143   9.960   7.275
90925SOL     OW74613  14.223   8.528   0.015
90925SOL    HW174614  14.138   8.484   0.025
90925SOL    HW274615  14.287   8.459   0.034
90926SOL     OW74616  14.245  11.838  12.373
90926SOL    HW174617  14.165  11.827  12.425
90926SOL    HW274618  14.243  11.930  12.346
90927SOL     OW74619   0.178  10.513   2.323
90927SOL    HW174620   0.263  10.557   2.323
90927SOL    HW274621   0.129  10.555   2.252
90928SOL     OW74622   3.921  10.431  11.219
90928SOL    HW174623   3.865  10.509  11.224
90928SOL    HW274624   3.932  10.416  11.125
90929SOL     OW74625  10.336   3.194  12.531
90929SOL    HW174626  10.368   3.130  12.466
90929SOL    HW274627  10.284   3.256  12.480
90930SOL     OW74628  14.674   1.285   8.953
90930SOL    HW174629  14.724   1.214   8.913
90930SOL    HW274630  14.588   1.280   8.910
90931SOL     OW74631   4.953  13.624   2.926
90931SOL    HW174632   4.945  13.711   2.888
90931SOL    HW274633   5.017  13.579   2.871
90932SOL     OW74634  10.813   3.127   0.852
90932SOL    HW174635  10.871   3.053   0.833
90932SOL    HW274636  10.752   3.128   0.779
90933SOL     OW74637   5.935  12.932   8.186
90933SOL    HW174638   5.889  12.852   8.213
90933SOL    HW274639   6.026  12.906   8.180
90934SOL     OW74640   7.348   6.354   8.322
90934SOL    HW174641   7.415   6.412   8.360
90934SOL    HW274642   7.332   6.289   8.390
90935SOL     OW74643   9.890   0.266   0.242
90935SOL    HW174644   9.913   0.318   0.165
90935SOL    HW274645   9.823   0.318   0.286
90936SOL     OW74646  12.976   3.051   5.593
90936SOL    HW174647  13.016   3.059   5.507
90936SOL    HW274648  12.992   3.136   5.635
90937SOL     OW74649  11.717   8.066   1.473
90937SOL    HW174650  11.639   8.112   1.440
90937SOL    HW274651  11.699   8.052   1.565
90938SOL     OW74652   5.195   2.261  10.320
90938SOL    HW174653   5.226   2.183  10.274
90938SOL    HW274654   5.275   2.303  10.352
90939SOL     OW74655   4.307   8.908   0.000
90939SOL    HW174656   4.219   8.907   0.036
90939SOL    HW274657   4.323   8.818  14.845
90940SOL     OW74658   0.533   6.535  14.679
90940SOL    HW174659   0.569   6.622  14.659
90940SOL    HW274660   0.488   6.509  14.599
90941SOL     OW74661   2.928   6.731  14.175
90941SOL    HW174662   2.845   6.694  14.144
90941SOL    HW274663   2.910   6.825  14.182
90942SOL     OW74664   3.148  10.526   5.508
90942SOL    HW174665   3.243  10.536   5.500
90942SOL    HW274666   3.122  10.596   5.567
90943SOL     OW74667  12.130   8.412  12.282
90943SOL    HW174668  12.125   8.432  12.188
90943SOL    HW274669  12.112   8.319  12.288
90944SOL     OW74670   7.182   8.670   7.274
90944SOL    HW174671   7.151   8.588   7.235
90944SOL    HW274672   7.175   8.656   7.368
90945SOL     OW74673   1.875   1.748  14.825
90945SOL    HW174674   1.885   1.727  14.733
90945SOL    HW274675   1.799   1.696  14.853
90946SOL     OW74676  11.636   2.711   7.794
90946SOL    HW174677  11.580   2.733   7.720
90946SOL    HW274678  11.724   2.739   7.766
90947SOL     OW74679   4.201   1.754  14.784
90947SOL    HW174680   4.194   1.711  14.869
90947SOL    HW274681   4.237   1.841  14.803
90948SOL     OW74682   7.368   5.746  14.483
90948SOL    HW174683   7.281   5.726  14.517
90948SOL    HW274684   7.408   5.800  14.551
90949SOL     OW74685   6.547   3.708   6.859
90949SOL    HW174686   6.520   3.747   6.776
90949SOL    HW274687   6.610   3.771   6.896
90950SOL     OW74688   0.620   7.126   3.907
90950SOL    HW174689   0.674   7.047   3.901
90950SOL    HW274690   0.569   7.114   3.987
90951SOL     OW74691   5.197   3.939   0.957
90951SOL    HW174692   5.264   4.004   0.939
90951SOL    HW274693   5.115   3.982   0.934
90952SOL     OW74694   4.357   4.822   7.806
90952SOL    HW174695   4.289   4.850   7.867
90952SOL    HW274696   4.316   4.827   7.720
90953SOL     OW74697   5.237   0.475   9.198
90953SOL    HW174698   5.286   0.542   9.151
90953SOL    HW274699   5.292   0.451   9.272
90954SOL     OW74700   3.256   7.360   3.668
90954SOL    HW174701   3.173   7.314   3.665
90954SOL    HW274702   3.248   7.420   3.742
90955SOL     OW74703   7.195   9.517   4.368
90955SOL    HW174704   7.128   9.579   4.341
90955SOL    HW274705   7.151   9.461   4.432
90956SOL     OW74706  10.209   1.023   9.485
90956SOL    HW174707  10.304   1.013   9.489
90956SOL    HW274708  10.188   1.084   9.555
90957SOL     OW74709   3.503   7.422  13.121
90957SOL    HW174710   3.505   7.408  13.215
90957SOL    HW274711   3.587   7.389  13.089
90958SOL     OW74712  11.773   2.074   8.209
90958SOL    HW174713  11.763   2.163   8.177
90958SOL    HW274714  11.765   2.081   8.304
90959SOL     OW74715   6.219   6.279   2.563
90959SOL    HW174716   6.128   6.282   2.534
90959SOL    HW274717   6.215   6.241   2.651
90960SOL     OW74718   0.932   5.564   3.279
90960SOL    HW174719   0.853   5.618   3.276
90960SOL    HW274720   0.999   5.615   3.233
90961SOL     OW74721   1.707   6.250   7.536
90961SOL    HW174722   1.728   6.158   7.549
90961SOL    HW274723   1.709   6.262   7.441
90962SOL     OW74724   8.000  14.427   7.405
90962SOL    HW174725   8.046  14.371   7.342
90962SOL    HW274726   8.037  14.514   7.391
90963SOL     OW74727   4.928   7.208  10.986
90963SOL    HW174728   4.931   7.195  11.081
90963SOL    HW274729   4.940   7.302  10.974
90964SOL     OW74730   2.324   5.837  11.922
90964SOL    HW174731   2.323   5.824  11.827
90964SOL    HW274732   2.309   5.931  11.933
90965SOL     OW74733   1.242   4.490   1.224
90965SOL    HW174734   1.308   4.448   1.169
90965SOL    HW274735   1.169   4.429   1.226
90966SOL     OW74736   0.836   6.931   9.377
90966SOL    HW174737   0.925   6.898   9.389
90966SOL    HW274738   0.841   6.988   9.300
90967SOL     OW74739   5.880   6.617   9.944
90967SOL    HW174740   5.822   6.680   9.989
90967SOL    HW274741   5.931   6.578  10.015
90968SOL     OW74742   4.751   2.424   8.208
90968SOL    HW174743   4.700   2.346   8.189
90968SOL    HW274744   4.838   2.406   8.173
90969SOL     OW74745   3.050   9.859   5.711
90969SOL    HW174746   3.053   9.781   5.655
90969SOL    HW274747   2.957   9.870   5.731
90970SOL     OW74748  12.157   9.557   3.014
90970SOL    HW174749  12.108   9.561   2.931
90970SOL    HW274750  12.127   9.476   3.055
90971SOL     OW74751   5.888   3.176   6.876
90971SOL    HW174752   5.892   3.082   6.892
90971SOL    HW274753   5.978   3.200   6.853
90972SOL     OW74754  10.091   1.767   0.587
90972SOL    HW174755  10.047   1.795   0.668
90972SOL    HW274756  10.183   1.759   0.611
90973SOL     OW74757   6.585   1.426  11.587
90973SOL    HW174758   6.611   1.497  11.646
90973SOL    HW274759   6.603   1.461  11.499
90974SOL     OW74760   2.682   3.517  11.172
90974SOL    HW174761   2.752   3.540  11.111
90974SOL    HW274762   2.721   3.452  11.230
90975SOL     OW74763   3.427   5.432  10.375
90975SOL    HW174764   3.394   5.346  10.399
90975SOL    HW274765   3.494   5.414  10.308
90976SOL     OW74766   6.409  10.720  11.688
90976SOL    HW174767   6.465  10.794  11.665
90976SOL    HW274768   6.390  10.678  11.604
90977SOL     OW74769   4.481  14.528   9.643
90977SOL    HW174770   4.574  14.509   9.639
90977SOL    HW274771   4.439  14.442   9.650
90978SOL     OW74772   8.241  14.480   1.804
90978SOL    HW174773   8.337  14.478   1.809
90978SOL    HW274774   8.219  14.407   1.746
90979SOL     OW74775  11.396  10.607   1.665
90979SOL    HW174776  11.408  10.607   1.570
90979SOL    HW274777  11.439  10.688   1.695
90980SOL     OW74778   8.092  11.499   5.644
90980SOL    HW174779   8.032  11.548   5.588
90980SOL    HW274780   8.123  11.427   5.589
90981SOL     OW74781  11.413   3.016   7.348
90981SOL    HW174782  11.401   2.925   7.321
90981SOL    HW274783  11.330   3.058   7.324
90982SOL     OW74784   2.889   6.995   7.148
90982SOL    HW174785   2.875   6.913   7.197
90982SOL    HW274786   2.852   6.977   7.061
90983SOL     OW74787  13.716   3.428   4.461
90983SOL    HW174788  13.662   3.389   4.392
90983SOL    HW274789  13.806   3.406   4.436
90984SOL     OW74790   6.628   3.653  13.419
90984SOL    HW174791   6.569   3.724  13.444
90984SOL    HW274792   6.604   3.581  13.477
90985SOL     OW74793   0.486   7.270   6.746
90985SOL    HW174794   0.513   7.227   6.665
90985SOL    HW274795   0.429   7.206   6.789
90986SOL     OW74796   1.699  14.234   5.059
90986SOL    HW174797   1.749  14.285   4.995
90986SOL    HW274798   1.732  14.262   5.144
90987SOL     OW74799   8.908   5.457   5.292
90987SOL    HW174800   8.836   5.394   5.302
90987SOL    HW274801   8.879   5.515   5.221
90988SOL     OW74802   6.167  12.653   5.070
90988SOL    HW174803   6.243  12.601   5.041
90988SOL    HW274804   6.123  12.679   4.989
90989SOL     OW74805  13.665  13.381  10.119
90989SOL    HW174806  13.626  13.323  10.054
90989SOL    HW274807  13.600  13.450  10.133
90990SOL     OW74808   1.910   0.932   5.618
90990SOL    HW174809   1.879   0.956   5.705
90990SOL    HW274810   1.830   0.918   5.567
90991SOL     OW74811   5.221   6.224  12.913
90991SOL    HW174812   5.203   6.307  12.958
90991SOL    HW274813   5.173   6.230  12.831
90992SOL     OW74814  14.762   6.513  14.782
90992SOL    HW174815  14.792   6.598  14.751
90992SOL    HW274816  14.835   6.478  14.832
90993SOL     OW74817   3.969  13.297   8.459
90993SOL    HW174818   4.064  13.299   8.467
90993SOL    HW274819   3.938  13.349   8.534
90994SOL     OW74820   5.172   9.039  14.702
90994SOL    HW174821   5.200   9.029  14.611
90994SOL    HW274822   5.076   9.042  14.697
90995SOL     OW74823  10.707   8.677   9.446
90995SOL    HW174824  10.634   8.677   9.508
90995SOL    HW274825  10.736   8.586   9.443
90996SOL     OW74826   2.463   6.299  13.008
90996SOL    HW174827   2.487   6.238  12.939
90996SOL    HW274828   2.368   6.310  12.998
90997SOL     OW74829   3.758   4.850  12.984
90997SOL    HW174830   3.822   4.855  13.055
90997SOL    HW274831   3.700   4.925  12.999
90998SOL     OW74832   1.213   3.614  11.319
90998SOL    HW174833   1.129   3.659  11.311
90998SOL    HW274834   1.221   3.564  11.238
90999SOL     OW74835  14.086   9.743   2.041
90999SOL    HW174836  14.035   9.787   2.109
90999SOL    HW274837  14.162   9.800   2.027
91000SOL     OW74838   3.109  14.307  12.767
91000SOL    HW174839   3.141  14.290  12.679
91000SOL    HW274840   3.015  14.293  12.762
91001SOL     OW74841   3.380   3.127  10.111
91001SOL    HW174842   3.360   3.175  10.192
91001SOL    HW274843   3.294   3.110  10.072
91002SOL     OW74844   2.415  11.416   6.296
91002SOL    HW174845   2.422  11.443   6.387
91002SOL    HW274846   2.502  11.380   6.275
91003SOL     OW74847  14.308  10.797   7.660
91003SOL    HW174848  14.275  10.886   7.670
91003SOL    HW274849  14.353  10.778   7.742
91004SOL     OW74850  12.841  12.814  13.371
91004SOL    HW174851  12.758  12.825  13.325
91004SOL    HW274852  12.904  12.864  13.319
91005SOL     OW74853   8.238   0.024  10.718
91005SOL    HW174854   8.258   0.092  10.654
91005SOL    HW274855   8.171  14.844  10.676
91006SOL     OW74856   8.871   0.758   1.856
91006SOL    HW174857   8.789   0.778   1.902
91006SOL    HW274858   8.897   0.673   1.890
91007SOL     OW74859  14.569   5.892  13.856
91007SOL    HW174860  14.520   5.969  13.883
91007SOL    HW274861  14.657   5.923  13.838
91008SOL     OW74862   9.094   4.648  13.407
91008SOL    HW174863   9.038   4.595  13.350
91008SOL    HW274864   9.032   4.691  13.467
91009SOL     OW74865   9.716   2.397  14.077
91009SOL    HW174866   9.684   2.470  14.024
91009SOL    HW274867   9.647   2.331  14.070
91010SOL     OW74868  11.874   1.008  13.948
91010SOL    HW174869  11.878   1.007  14.043
91010SOL    HW274870  11.785   0.979  13.927
91011SOL     OW74871   5.507   2.242  14.430
91011SOL    HW174872   5.441   2.175  14.408
91011SOL    HW274873   5.555   2.204  14.504
91012SOL     OW74874   5.121   3.122   5.881
91012SOL    HW174875   5.209   3.119   5.917
91012SOL    HW274876   5.119   3.202   5.829
91013SOL     OW74877   2.702   9.595  10.077
91013SOL    HW174878   2.758   9.667  10.049
91013SOL    HW274879   2.752   9.516  10.054
91014SOL     OW74880  10.972   4.149  11.436
91014SOL    HW174881  10.945   4.194  11.516
91014SOL    HW274882  10.896   4.096  11.412
91015SOL     OW74883   8.580   8.084   2.969
91015SOL    HW174884   8.648   8.150   2.955
91015SOL    HW274885   8.584   8.028   2.892
91016SOL     OW74886  10.855   3.624   1.778
91016SOL    HW174887  10.827   3.698   1.832
91016SOL    HW274888  10.906   3.569   1.837
91017SOL     OW74889   6.612   6.550   2.058
91017SOL    HW174890   6.683   6.544   2.122
91017SOL    HW274891   6.657   6.551   1.973
91018SOL     OW74892   8.422  12.404   9.121
91018SOL    HW174893   8.464  12.335   9.070
91018SOL    HW274894   8.421  12.480   9.063
91019SOL     OW74895   4.447  12.941   7.062
91019SOL    HW174896   4.442  13.010   7.128
91019SOL    HW274897   4.516  12.883   7.094
91020SOL     OW74898  10.798  14.292  14.676
91020SOL    HW174899  10.811  14.382  14.648
91020SOL    HW274900  10.703  14.283  14.688
91021SOL     OW74901   1.046   6.155   4.280
91021SOL    HW174902   1.045   6.128   4.188
91021SOL    HW274903   1.077   6.246   4.278
91022SOL     OW74904   9.885  13.161   6.519
91022SOL    HW174905   9.980  13.173   6.519
91022SOL    HW274906   9.856  13.197   6.603
91023SOL     OW74907   1.893   1.352   3.679
91023SOL    HW174908   1.879   1.441   3.649
91023SOL    HW274909   1.807   1.311   3.675
91024SOL     OW74910   1.658  13.019   5.313
91024SOL    HW174911   1.626  12.952   5.252
91024SOL    HW274912   1.739  12.981   5.349
91025SOL     OW74913   9.170   9.606  14.213
91025SOL    HW174914   9.231   9.536  14.190
91025SOL    HW274915   9.225   9.675  14.249
91026SOL     OW74916  14.028   2.453   1.396
91026SOL    HW174917  13.985   2.376   1.433
91026SOL    HW274918  13.962   2.522   1.400
91027SOL     OW74919   4.153   1.183   3.720
91027SOL    HW174920   4.062   1.210   3.730
91027SOL    HW274921   4.148   1.088   3.707
91028SOL     OW74922  10.148   2.011   5.868
91028SOL    HW174923  10.148   1.920   5.838
91028SOL    HW274924  10.122   2.062   5.791
91029SOL     OW74925   7.888   0.021   6.141
91029SOL    HW174926   7.935  14.833   6.086
91029SOL    HW274927   7.918   0.107   6.111
91030SOL     OW74928  14.280  11.902  11.660
91030SOL    HW174929  14.353  11.841  11.669
91030SOL    HW274930  14.272  11.916  11.566
91031SOL     OW74931   3.350   3.070   0.007
91031SOL    HW174932   3.382   2.986   0.039
91031SOL    HW274933   3.428   3.126   0.004
91032SOL     OW74934   3.978  14.516  10.662
91032SOL    HW174935   3.952  14.606  10.639
91032SOL    HW274936   4.046  14.527  10.729
91033SOL     OW74937   5.341   7.556  11.027
91033SOL    HW174938   5.389   7.577  10.946
91033SOL    HW274939   5.296   7.637  11.050
91034SOL     OW74940   5.799  12.737   7.226
91034SOL    HW174941   5.871  12.781   7.271
91034SOL    HW274942   5.721  12.763   7.275
91035SOL     OW74943   1.890  14.722  11.949
91035SOL    HW174944   1.800  14.743  11.925
91035SOL    HW274945   1.940  14.798  11.921
91036SOL     OW74946   2.962  14.789  10.834
91036SOL    HW174947   2.953  14.826  10.746
91036SOL    HW274948   3.043  14.738  10.831
91037SOL     OW74949   3.588   3.048   6.816
91037SOL    HW174950   3.650   3.046   6.742
91037SOL    HW274951   3.517   2.991   6.789
91038SOL     OW74952   7.345   4.032  14.267
91038SOL    HW174953   7.282   3.967  14.297
91038SOL    HW274954   7.425   4.012  14.316
91039SOL     OW74955  10.272  13.604   4.442
91039SOL    HW174956  10.246  13.683   4.489
91039SOL    HW274957  10.358  13.626   4.404
91040SOL     OW74958   8.551  11.789   3.022
91040SOL    HW174959   8.611  11.735   3.073
91040SOL    HW274960   8.592  11.875   3.018
91041SOL     OW74961   6.833   0.342  11.258
91041SOL    HW174962   6.899   0.278  11.232
91041SOL    HW274963   6.836   0.409  11.190
91042SOL     OW74964   7.817   1.295   5.944
91042SOL    HW174965   7.723   1.287   5.964
91042SOL    HW274966   7.829   1.387   5.920
91043SOL     OW74967   5.209   3.313  11.984
91043SOL    HW174968   5.231   3.384  11.924
91043SOL    HW274969   5.180   3.357  12.064
91044SOL     OW74970   8.389   6.008  11.184
91044SOL    HW174971   8.311   5.952  11.182
91044SOL    HW274972   8.367   6.078  11.245
91045SOL     OW74973   8.460  14.701   4.437
91045SOL    HW174974   8.421  14.766   4.380
91045SOL    HW274975   8.486  14.750   4.516
91046SOL     OW74976  13.380   9.074   1.419
91046SOL    HW174977  13.431   9.004   1.378
91046SOL    HW274978  13.301   9.031   1.452
91047SOL     OW74979   0.853   2.623   1.365
91047SOL    HW174980   0.830   2.557   1.431
91047SOL    HW274981   0.778   2.625   1.306
91048SOL     OW74982   3.147   3.064   9.641
91048SOL    HW174983   3.217   3.121   9.609
91048SOL    HW274984   3.123   3.011   9.566
91049SOL     OW74985   3.388   5.166   5.553
91049SOL    HW174986   3.442   5.237   5.519
91049SOL    HW274987   3.340   5.205   5.626
91050SOL     OW74988  11.879   9.069  11.755
91050SOL    HW174989  11.944   9.137  11.738
91050SOL    HW274990  11.817   9.076  11.682
91051SOL     OW74991   7.401   0.214   0.906
91051SOL    HW174992   7.462   0.261   0.963
91051SOL    HW274993   7.323   0.201   0.960
91052SOL     OW74994   9.298   0.063   6.864
91052SOL    HW174995   9.225   0.047   6.803
91052SOL    HW274996   9.373   0.019   6.824
91053SOL     OW74997  11.778   0.269   7.332
91053SOL    HW174998  11.747   0.223   7.254
91053SOL    HW274999  11.794   0.359   7.302
91054SOL     OW75000   6.736   9.429   2.697
91054SOL    HW175001   6.723   9.440   2.603
91054SOL    HW275002   6.813   9.372   2.704
91055SOL     OW75003   2.797   5.772  12.488
91055SOL    HW175004   2.780   5.683  12.520
91055SOL    HW275005   2.755   5.776  12.403
91056SOL     OW75006  13.125  12.097   5.968
91056SOL    HW175007  13.118  12.151   5.889
91056SOL    HW275008  13.187  12.028   5.945
91057SOL     OW75009  12.876   3.099   8.009
91057SOL    HW175010  12.893   3.133   8.097
91057SOL    HW275011  12.781   3.093   8.003
91058SOL     OW75012   0.822   2.030  11.020
91058SOL    HW175013   0.872   2.099  10.977
91058SOL    HW275014   0.736   2.069  11.037
91059SOL     OW75015   1.376  12.636   1.585
91059SOL    HW175016   1.440  12.682   1.638
91059SOL    HW275017   1.369  12.688   1.505
91060SOL     OW75018   2.717   7.116   5.170
91060SOL    HW175019   2.768   7.164   5.236
91060SOL    HW275020   2.732   7.024   5.190
91061SOL     OW75021  11.865  11.961  14.820
91061SOL    HW175022  11.903  11.880  14.854
91061SOL    HW275023  11.939  12.009  14.783
91062SOL     OW75024   9.294   3.757   2.718
91062SOL    HW175025   9.349   3.735   2.794
91062SOL    HW275026   9.253   3.840   2.742
91063SOL     OW75027  11.077  14.579  14.683
91063SOL    HW175028  11.038  14.544  14.764
91063SOL    HW275029  11.081  14.673  14.697
91064SOL     OW75030   4.071   4.517  13.632
91064SOL    HW175031   4.129   4.554  13.698
91064SOL    HW275032   4.001   4.475  13.682
91065SOL     OW75033   8.480   1.805   5.093
91065SOL    HW175034   8.457   1.891   5.057
91065SOL    HW275035   8.406   1.781   5.148
91066SOL     OW75036   8.419  12.709   2.878
91066SOL    HW175037   8.424  12.634   2.937
91066SOL    HW275038   8.492  12.696   2.817
91067SOL     OW75039  13.252  11.310   4.817
91067SOL    HW175040  13.330  11.336   4.767
91067SOL    HW275041  13.284  11.242   4.877
91068SOL     OW75042   8.301  10.372   4.772
91068SOL    HW175043   8.210  10.343   4.769
91068SOL    HW275044   8.352  10.296   4.745
91069SOL     OW75045   0.471   8.139   1.964
91069SOL    HW175046   0.470   8.190   1.883
91069SOL    HW275047   0.401   8.177   2.017
91070SOL     OW75048  13.890  14.809   1.528
91070SOL    HW175049  13.916  14.768   1.445
91070SOL    HW275050  13.816  14.865   1.504
91071SOL     OW75051   6.006   6.737  12.544
91071SOL    HW175052   5.960   6.681  12.481
91071SOL    HW275053   5.966   6.715  12.628
91072SOL     OW75054   6.657   3.784   1.707
91072SOL    HW175055   6.579   3.838   1.697
91072SOL    HW275056   6.729   3.839   1.676
91073SOL     OW75057   3.531   5.896   5.685
91073SOL    HW175058   3.558   5.804   5.689
91073SOL    HW275059   3.538   5.919   5.592
91074SOL     OW75060   0.153   2.936  13.791
91074SOL    HW175061   0.058   2.945  13.786
91074SOL    HW275062   0.182   3.018  13.831
91075SOL     OW75063   6.315   7.086  11.958
91075SOL    HW175064   6.384   7.093  11.892
91075SOL    HW275065   6.313   6.993  11.981
91076SOL     OW75066   8.338   3.585   1.644
91076SOL    HW175067   8.353   3.571   1.551
91076SOL    HW275068   8.381   3.510   1.687
91077SOL     OW75069   5.725  13.404   0.726
91077SOL    HW175070   5.731  13.384   0.820
91077SOL    HW275071   5.655  13.347   0.694
91078SOL     OW75072   0.114  14.547  10.259
91078SOL    HW175073   0.197  14.501  10.244
91078SOL    HW275074   0.112  14.561  10.353
91079SOL     OW75075   3.719  13.467  12.349
91079SOL    HW175076   3.656  13.399  12.324
91079SOL    HW275077   3.692  13.544  12.300
91080SOL     OW75078   2.257   8.033   6.611
91080SOL    HW175079   2.337   8.064   6.568
91080SOL    HW275080   2.255   7.939   6.594
91081SOL     OW75081  12.418  10.120   4.835
91081SOL    HW175082  12.469  10.078   4.905
91081SOL    HW275083  12.327  10.116   4.866
91082SOL     OW75084   8.229  11.181  11.308
91082SOL    HW175085   8.258  11.098  11.271
91082SOL    HW275086   8.309  11.220  11.345
91083SOL     OW75087  11.702   2.182   7.314
91083SOL    HW175088  11.649   2.213   7.241
91083SOL    HW275089  11.772   2.132   7.272
91084SOL     OW75090   6.800   2.856   4.481
91084SOL    HW175091   6.785   2.915   4.408
91084SOL    HW275092   6.779   2.769   4.447
91085SOL     OW75093  10.287   4.011   1.029
91085SOL    HW175094  10.314   3.974   1.113
91085SOL    HW275095  10.356   4.074   1.008
91086SOL     OW75096  10.289  13.006   9.036
91086SOL    HW175097  10.340  13.039   8.962
91086SOL    HW275098  10.198  13.013   9.007
91087SOL     OW75099   4.824   7.281   3.008
91087SOL    HW175100   4.887   7.275   2.936
91087SOL    HW275101   4.759   7.344   2.978
91088SOL     OW75102   4.489   9.843   6.075
91088SOL    HW175103   4.536   9.760   6.074
91088SOL    HW275104   4.431   9.837   6.151
91089SOL     OW75105  11.167  13.713   6.234
91089SOL    HW175106  11.198  13.802   6.250
91089SOL    HW275107  11.072  13.719   6.239
91090SOL     OW75108   4.547   4.899  14.499
91090SOL    HW175109   4.559   4.942  14.584
91090SOL    HW275110   4.561   4.968  14.435
91091SOL     OW75111  11.771  10.451   9.793
91091SOL    HW175112  11.678  10.441   9.813
91091SOL    HW275113  11.791  10.541   9.818
91092SOL     OW75114   7.687   3.665   9.234
91092SOL    HW175115   7.764   3.675   9.178
91092SOL    HW275116   7.620   3.629   9.176
91093SOL     OW75117  11.053   4.903   0.165
91093SOL    HW175118  11.118   4.902   0.236
91093SOL    HW275119  10.970   4.924   0.209
91094SOL     OW75120   5.421  10.295  11.591
91094SOL    HW175121   5.479  10.266  11.521
91094SOL    HW275122   5.478  10.343  11.651
91095SOL     OW75123  11.025  11.359  10.887
91095SOL    HW175124  10.988  11.331  10.971
91095SOL    HW275125  11.113  11.323  10.886
91096SOL     OW75126   9.079  14.298  11.604
91096SOL    HW175127   9.138  14.224  11.614
91096SOL    HW275128   9.030  14.278  11.524
91097SOL     OW75129   3.908   0.725  11.644
91097SOL    HW175130   3.993   0.749  11.608
91097SOL    HW275131   3.911   0.756  11.734
91098SOL     OW75132   9.303  10.936   7.297
91098SOL    HW175133   9.260  10.939   7.211
91098SOL    HW275134   9.393  10.965   7.280
91099SOL     OW75135  14.685   0.586   2.701
91099SOL    HW175136  14.597   0.606   2.671
91099SOL    HW275137  14.742   0.629   2.637
91100SOL     OW75138  10.876   9.698  10.278
91100SOL    HW175139  10.871   9.788  10.246
91100SOL    HW275140  10.833   9.699  10.363
91101SOL     OW75141   9.787   6.255   1.235
91101SOL    HW175142   9.801   6.174   1.285
91101SOL    HW275143   9.749   6.226   1.152
91102SOL     OW75144   1.200   8.729  10.728
91102SOL    HW175145   1.110   8.707  10.704
91102SOL    HW275146   1.209   8.821  10.704
91103SOL     OW75147   8.568  13.464   7.236
91103SOL    HW175148   8.497  13.492   7.294
91103SOL    HW275149   8.531  13.471   7.148
91104SOL     OW75150  11.986   4.236   4.147
91104SOL    HW175151  11.901   4.193   4.145
91104SOL    HW275152  12.042   4.181   4.093
91105SOL     OW75153  10.745   3.185   7.024
91105SOL    HW175154  10.655   3.152   7.024
91105SOL    HW275155  10.737   3.276   6.998
91106SOL     OW75156   0.580   3.465   8.738
91106SOL    HW175157   0.503   3.410   8.719
91106SOL    HW275158   0.574   3.482   8.832
91107SOL     OW75159  10.748   1.374   8.033
91107SOL    HW175160  10.665   1.416   8.054
91107SOL    HW275161  10.725   1.283   8.013
91108SOL     OW75162   7.681   4.523   2.864
91108SOL    HW175163   7.676   4.508   2.959
91108SOL    HW275164   7.760   4.575   2.852
91109SOL     OW75165  13.102   4.283  14.070
91109SOL    HW175166  13.061   4.344  14.008
91109SOL    HW275167  13.177   4.332  14.104
91110SOL     OW75168   9.712   3.551  12.732
91110SOL    HW175169   9.631   3.509  12.701
91110SOL    HW275170   9.734   3.504  12.812
91111SOL     OW75171   7.961  10.288   0.017
91111SOL    HW175172   8.041  10.338   0.003
91111SOL    HW275173   7.984  10.198  14.866
91112SOL     OW75174   4.174   6.712  13.068
91112SOL    HW175175   4.213   6.646  13.011
91112SOL    HW275176   4.081   6.712  13.046
91113SOL     OW75177   5.043   0.627   5.942
91113SOL    HW175178   5.011   0.539   5.922
91113SOL    HW275179   5.033   0.635   6.037
91114SOL     OW75180  13.135   8.890   8.047
91114SOL    HW175181  13.102   8.966   7.998
91114SOL    HW275182  13.208   8.858   7.994
91115SOL     OW75183  13.925   2.730  13.974
91115SOL    HW175184  13.938   2.701  14.064
91115SOL    HW275185  13.965   2.816  13.970
91116SOL     OW75186  11.461   6.229   5.910
91116SOL    HW175187  11.389   6.166   5.903
91116SOL    HW275188  11.492   6.241   5.820
91117SOL     OW75189  14.051   9.883   9.631
91117SOL    HW175190  14.134   9.836   9.637
91117SOL    HW275191  13.991   9.821   9.591
91118SOL     OW75192  14.739   6.556  12.578
91118SOL    HW175193  14.689   6.475  12.581
91118SOL    HW275194  14.688   6.619  12.629
91119SOL     OW75195   1.096   7.513  10.397
91119SOL    HW175196   1.079   7.419  10.406
91119SOL    HW275197   1.013   7.550  10.367
91120SOL     OW75198   0.996   0.842   9.433
91120SOL    HW175199   1.032   0.817   9.518
91120SOL    HW275200   1.047   0.918   9.406
91121SOL     OW75201   1.193   6.748  13.795
91121SOL    HW175202   1.176   6.662  13.833
91121SOL    HW275203   1.115   6.800  13.817
91122SOL     OW75204   6.541  12.217  10.232
91122SOL    HW175205   6.495  12.134  10.218
91122SOL    HW275206   6.634  12.195  10.227
91123SOL     OW75207  13.741   2.911   1.169
91123SOL    HW175208  13.717   2.874   1.254
91123SOL    HW275209  13.764   3.002   1.188
91124SOL     OW75210   4.759  14.341   0.391
91124SOL    HW175211   4.710  14.363   0.470
91124SOL    HW275212   4.794  14.425   0.360
91125SOL     OW75213   4.769   0.312   8.993
91125SOL    HW175214   4.857   0.331   9.025
91125SOL    HW275215   4.771   0.333   8.900
91126SOL     OW75216   0.047   1.119   7.756
91126SOL    HW175217  14.838   1.074   7.772
91126SOL    HW275218   0.096   1.059   7.700
91127SOL     OW75219   3.325  14.019  14.312
91127SOL    HW175220   3.254  13.955  14.316
91127SOL    HW275221   3.306  14.071  14.235
91128SOL     OW75222   7.603   9.574   0.828
91128SOL    HW175223   7.650   9.616   0.899
91128SOL    HW275224   7.619   9.480   0.841
91129SOL     OW75225   6.576   5.663   3.746
91129SOL    HW175226   6.627   5.719   3.688
91129SOL    HW275227   6.500   5.637   3.694
91130SOL     OW75228   3.234   2.725   7.336
91130SOL    HW175229   3.154   2.672   7.340
91130SOL    HW275230   3.206   2.813   7.358
91131SOL     OW75231   4.077   6.613   4.483
91131SOL    HW175232   4.006   6.677   4.485
91131SOL    HW275233   4.113   6.619   4.395
91132SOL     OW75234   8.298   0.578   6.960
91132SOL    HW175235   8.326   0.605   6.873
91132SOL    HW275236   8.311   0.656   7.014
91133SOL     OW75237   7.927   0.813   0.115
91133SOL    HW175238   7.872   0.761   0.057
91133SOL    HW275239   7.875   0.825   0.194
91134SOL     OW75240  12.410   5.478   6.783
91134SOL    HW175241  12.462   5.440   6.854
91134SOL    HW275242  12.402   5.571   6.806
91135SOL     OW75243   8.948   0.479   4.042
91135SOL    HW175244   8.883   0.413   4.067
91135SOL    HW275245   9.008   0.432   3.984
91136SOL     OW75246   1.033  11.478  14.660
91136SOL    HW175247   0.969  11.487  14.731
91136SOL    HW275248   1.083  11.400  14.682
91137SOL     OW75249   8.267   8.491  13.951
91137SOL    HW175250   8.182   8.534  13.942
91137SOL    HW275251   8.273   8.470  14.044
91138SOL     OW75252  12.302   4.591   2.622
91138SOL    HW175253  12.244   4.552   2.687
91138SOL    HW275254  12.244   4.641   2.565
91139SOL     OW75255  14.442   2.574   7.515
91139SOL    HW175256  14.528   2.557   7.551
91139SOL    HW275257  14.387   2.592   7.591
91140SOL     OW75258   0.549  10.305   7.925
91140SOL    HW175259   0.522  10.272   7.839
91140SOL    HW275260   0.642  10.285   7.931
91141SOL     OW75261   6.901   3.904  14.234
91141SOL    HW175262   6.910   3.942  14.147
91141SOL    HW275263   6.852   3.823  14.220
91142SOL     OW75264   6.100   7.582  14.606
91142SOL    HW175265   6.147   7.533  14.538
91142SOL    HW275266   6.027   7.623  14.559
91143SOL     OW75267   8.482   5.398  14.041
91143SOL    HW175268   8.506   5.391  13.949
91143SOL    HW275269   8.387   5.414  14.039
91144SOL     OW75270   2.552   7.705  11.343
91144SOL    HW175271   2.624   7.760  11.374
91144SOL    HW275272   2.564   7.703  11.248
91145SOL     OW75273   7.198  13.361  10.668
91145SOL    HW175274   7.129  13.330  10.727
91145SOL    HW275275   7.235  13.281  10.631
91146SOL     OW75276   8.240   7.352   7.069
91146SOL    HW175277   8.327   7.333   7.103
91146SOL    HW275278   8.197   7.401   7.139
91147SOL     OW75279   8.429   2.432  11.142
91147SOL    HW175280   8.444   2.340  11.163
91147SOL    HW275281   8.485   2.449  11.067
91148SOL     OW75282   5.116  12.846  10.973
91148SOL    HW175283   5.153  12.913  10.914
91148SOL    HW275284   5.021  12.857  10.966
91149SOL     OW75285   7.385  10.525   7.863
91149SOL    HW175286   7.405  10.614   7.834
91149SOL    HW275287   7.292  10.529   7.888
91150SOL     OW75288  11.651   1.406   7.798
91150SOL    HW175289  11.579   1.470   7.805
91150SOL    HW275290  11.713   1.432   7.866
91151SOL     OW75291   0.457  14.468   1.937
91151SOL    HW175292   0.438  14.444   2.028
91151SOL    HW275293   0.463  14.385   1.891
91152SOL     OW75294  11.124   7.639  11.791
91152SOL    HW175295  11.115   7.566  11.730
91152SOL    HW275296  11.151   7.713  11.737
91153SOL     OW75297   2.465  10.050   6.874
91153SOL    HW175298   2.510  10.036   6.957
91153SOL    HW275299   2.435  10.141   6.878
91154SOL     OW75300   8.595   8.119   9.892
91154SOL    HW175301   8.512   8.093   9.853
91154SOL    HW275302   8.590   8.214   9.900
91155SOL     OW75303   7.020   5.490   0.911
91155SOL    HW175304   7.033   5.569   0.963
91155SOL    HW275305   7.010   5.522   0.821
91156SOL     OW75306   6.879   0.467   0.890
91156SOL    HW175307   6.909   0.519   0.964
91156SOL    HW275308   6.910   0.513   0.812
91157SOL     OW75309   6.160   4.793  12.985
91157SOL    HW175310   6.150   4.784  12.890
91157SOL    HW275311   6.224   4.727  13.009
91158SOL     OW75312   8.194  11.136   2.660
91158SOL    HW175313   8.247  11.113   2.736
91158SOL    HW275314   8.222  11.224   2.636
91159SOL     OW75315   7.610   6.434  11.489
91159SOL    HW175316   7.601   6.366  11.422
91159SOL    HW275317   7.601   6.386  11.572
91160SOL     OW75318   0.232   2.124  12.425
91160SOL    HW175319   0.282   2.109  12.344
91160SOL    HW275320   0.232   2.219  12.435
91161SOL     OW75321   1.523  14.705   7.885
91161SOL    HW175322   1.607  14.664   7.867
91161SOL    HW275323   1.470  14.688   7.807
91162SOL     OW75324  13.466   7.929   2.114
91162SOL    HW175325  13.519   7.859   2.076
91162SOL    HW275326  13.467   7.911   2.208
91163SOL     OW75327   0.780   6.675   8.515
91163SOL    HW175328   0.741   6.761   8.497
91163SOL    HW275329   0.728   6.614   8.464
91164SOL     OW75330   3.049   7.951  12.313
91164SOL    HW175331   2.988   7.877  12.315
91164SOL    HW275332   2.993   8.029  12.307
91165SOL     OW75333   0.733  13.509   9.604
91165SOL    HW175334   0.786  13.582   9.633
91165SOL    HW275335   0.674  13.491   9.678
91166SOL     OW75336   6.578   6.811   2.484
91166SOL    HW175337   6.523   6.743   2.523
91166SOL    HW275338   6.655   6.765   2.452
91167SOL     OW75339   3.261   8.905   2.886
91167SOL    HW175340   3.229   8.988   2.920
91167SOL    HW275341   3.221   8.839   2.943
91168SOL     OW75342  10.496  11.415  12.603
91168SOL    HW175343  10.578  11.461  12.622
91168SOL    HW275344  10.480  11.430  12.510
91169SOL     OW75345   0.240   3.184   5.001
91169SOL    HW175346   0.267   3.275   5.008
91169SOL    HW275347   0.178   3.183   4.927
91170SOL     OW75348   4.477   8.141   1.694
91170SOL    HW175349   4.407   8.177   1.639
91170SOL    HW275350   4.430   8.101   1.768
91171SOL     OW75351  11.352   2.130   0.237
91171SOL    HW175352  11.332   2.040   0.262
91171SOL    HW275353  11.317   2.183   0.309
91172SOL     OW75354   8.593   2.772   4.338
91172SOL    HW175355   8.535   2.793   4.411
91172SOL    HW275356   8.662   2.838   4.343
91173SOL     OW75357   2.528   8.979   5.681
91173SOL    HW175358   2.526   9.019   5.594
91173SOL    HW275359   2.615   9.002   5.716
91174SOL     OW75360  12.772   8.625  14.125
91174SOL    HW175361  12.733   8.608  14.039
91174SOL    HW275362  12.700   8.610  14.187
91175SOL     OW75363   4.035   0.622   7.140
91175SOL    HW175364   4.057   0.556   7.075
91175SOL    HW275365   4.040   0.576   7.224
91176SOL     OW75366   0.132  11.897   6.833
91176SOL    HW175367   0.096  11.856   6.755
91176SOL    HW275368   0.161  11.824   6.888
91177SOL     OW75369   9.895   7.895  11.534
91177SOL    HW175370   9.965   7.860  11.478
91177SOL    HW275371   9.873   7.823  11.593
91178SOL     OW75372   4.614   4.080   4.105
91178SOL    HW175373   4.632   4.166   4.142
91178SOL    HW275374   4.616   4.094   4.010
91179SOL     OW75375   5.167   3.922   1.787
91179SOL    HW175376   5.244   3.926   1.730
91179SOL    HW275377   5.127   4.008   1.780
91180SOL     OW75378   6.965  14.377   8.428
91180SOL    HW175379   7.030  14.359   8.497
91180SOL    HW275380   6.881  14.374   8.473
91181SOL     OW75381  13.692   1.233  14.143
91181SOL    HW175382  13.613   1.284  14.123
91181SOL    HW275383  13.754   1.297  14.177
91182SOL     OW75384   9.950   0.528   8.091
91182SOL    HW175385   9.895   0.522   8.168
91182SOL    HW275386   9.974   0.437   8.072
91183SOL     OW75387   6.924  14.564  13.596
91183SOL    HW175388   6.961  14.605  13.674
91183SOL    HW275389   6.849  14.515  13.627
91184SOL     OW75390   0.332   8.385   5.299
91184SOL    HW175391   0.402   8.331   5.335
91184SOL    HW275392   0.262   8.324   5.278
91185SOL     OW75393   2.025   7.938   5.508
91185SOL    HW175394   1.985   7.988   5.437
91185SOL    HW275395   2.115   7.971   5.512
91186SOL     OW75396   7.949   7.969   1.540
91186SOL    HW175397   8.004   7.986   1.464
91186SOL    HW275398   7.873   8.027   1.527
91187SOL     OW75399  12.470   0.580   0.691
91187SOL    HW175400  12.476   0.521   0.615
91187SOL    HW275401  12.526   0.539   0.757
91188SOL     OW75402   7.703  10.065   1.057
91188SOL    HW175403   7.609  10.074   1.074
91188SOL    HW275404   7.740  10.036   1.140
91189SOL     OW75405   1.537   3.144   9.544
91189SOL    HW175406   1.631   3.132   9.538
91189SOL    HW275407   1.523   3.235   9.517
91190SOL     OW75408   5.052   3.485   1.807
91190SOL    HW175409   5.120   3.463   1.744
91190SOL    HW275410   5.067   3.428   1.881
91191SOL     OW75411   9.302   6.508  10.097
91191SOL    HW175412   9.288   6.510  10.002
91191SOL    HW275413   9.269   6.423  10.124
91192SOL     OW75414  11.537  10.569  14.297
91192SOL    HW175415  11.508  10.537  14.212
91192SOL    HW275416  11.458  10.606  14.337
91193SOL     OW75417   6.147   6.423   3.517
91193SOL    HW175418   6.241   6.405   3.513
91193SOL    HW275419   6.107   6.349   3.470
91194SOL     OW75420   8.091   0.365  14.490
91194SOL    HW175421   8.030   0.291  14.498
91194SOL    HW275422   8.155   0.351  14.560
91195SOL     OW75423  10.284   2.755   7.910
91195SOL    HW175424  10.279   2.695   7.985
91195SOL    HW275425  10.226   2.827   7.933
91196SOL     OW75426   2.420   5.074   2.165
91196SOL    HW175427   2.340   5.103   2.208
91196SOL    HW275428   2.401   5.082   2.071
91197SOL     OW75429  12.441   2.671   9.002
91197SOL    HW175430  12.511   2.657   9.065
91197SOL    HW275431  12.360   2.667   9.053
91198SOL     OW75432   2.520  14.714  10.034
91198SOL    HW175433   2.514  14.807  10.012
91198SOL    HW275434   2.533  14.713  10.129
91199SOL     OW75435  14.481   0.717   7.682
91199SOL    HW175436  14.523   0.657   7.744
91199SOL    HW275437  14.399   0.742   7.725
91200SOL     OW75438   1.219   3.837  13.851
91200SOL    HW175439   1.229   3.878  13.937
91200SOL    HW275440   1.223   3.910  13.789
91201SOL     OW75441   2.215  14.319   6.683
91201SOL    HW175442   2.252  14.265   6.753
91201SOL    HW275443   2.259  14.403   6.691
91202SOL     OW75444  14.186  11.021   5.938
91202SOL    HW175445  14.247  10.993   5.870
91202SOL    HW275446  14.241  11.033   6.016
91203SOL     OW75447   2.319   6.647  12.363
91203SOL    HW175448   2.335   6.598  12.444
91203SOL    HW275449   2.278   6.728  12.393
91204SOL     OW75450   5.317   9.094   8.425
91204SOL    HW175451   5.390   9.137   8.381
91204SOL    HW275452   5.349   9.077   8.514
91205SOL     OW75453   3.931   8.117   6.652
91205SOL    HW175454   3.965   8.110   6.563
91205SOL    HW275455   3.963   8.038   6.695
91206SOL     OW75456  11.348  12.217   7.904
91206SOL    HW175457  11.436  12.220   7.867
91206SOL    HW275458  11.356  12.263   7.988
91207SOL     OW75459   7.628   6.737   0.962
91207SOL    HW175460   7.574   6.816   0.971
91207SOL    HW275461   7.689   6.757   0.891
91208SOL     OW75462   7.314  11.328  12.921
91208SOL    HW175463   7.373  11.379  12.865
91208SOL    HW275464   7.233  11.322  12.870
91209SOL     OW75465   5.904   2.058   9.384
91209SOL    HW175466   5.956   1.993   9.336
91209SOL    HW275467   5.965   2.097   9.446
91210SOL     OW75468   8.176   0.159   6.932
91210SOL    HW175469   8.094   0.198   6.900
91210SOL    HW275470   8.155   0.066   6.944
91211SOL     OW75471   0.551   9.514  13.762
91211SOL    HW175472   0.628   9.460  13.780
91211SOL    HW275473   0.525   9.490  13.673
91212SOL     OW75474   3.374   1.210   6.603
91212SOL    HW175475   3.399   1.291   6.648
91212SOL    HW275476   3.452   1.187   6.552
91213SOL     OW75477  14.615   6.299   9.896
91213SOL    HW175478  14.686   6.360   9.916
91213SOL    HW275479  14.569   6.339   9.822
91214SOL     OW75480  12.995  10.581   3.411
91214SOL    HW175481  13.077  10.602   3.368
91214SOL    HW275482  12.964  10.665   3.446
91215SOL     OW75483   2.037  10.069   4.155
91215SOL    HW175484   1.964  10.128   4.134
91215SOL    HW275485   2.056  10.024   4.073
91216SOL     OW75486   3.411   1.050  10.096
91216SOL    HW175487   3.356   1.111  10.145
91216SOL    HW275488   3.390   1.066  10.004
91217SOL     OW75489   2.155   3.891   8.210
91217SOL    HW175490   2.161   3.919   8.301
91217SOL    HW275491   2.139   3.972   8.161
91218SOL     OW75492  10.355   6.536  11.989
91218SOL    HW175493  10.361   6.508  12.081
91218SOL    HW275494  10.443   6.523  11.954
91219SOL     OW75495   6.223   7.392   5.837
91219SOL    HW175496   6.174   7.469   5.808
91219SOL    HW275497   6.281   7.424   5.905
91220SOL     OW75498   0.402   2.608   6.406
91220SOL    HW175499   0.471   2.656   6.451
91220SOL    HW275500   0.378   2.663   6.331
91221SOL     OW75501   5.623   9.470   2.043
91221SOL    HW175502   5.562   9.408   2.002
91221SOL    HW275503   5.605   9.464   2.137
91222SOL     OW75504   9.392   5.391   5.016
91222SOL    HW175505   9.301   5.398   5.043
91222SOL    HW275506   9.390   5.407   4.921
91223SOL     OW75507   0.097   4.291   9.474
91223SOL    HW175508   0.113   4.223   9.540
91223SOL    HW275509   0.185   4.324   9.452
91224SOL     OW75510   3.550   5.223  12.736
91224SOL    HW175511   3.497   5.147  12.711
91224SOL    HW275512   3.571   5.265  12.654
91225SOL     OW75513   9.381   9.674  14.784
91225SOL    HW175514   9.414   9.648  14.697
91225SOL    HW275515   9.299   9.625  14.794
91226SOL     OW75516   1.242  12.556   2.854
91226SOL    HW175517   1.187  12.610   2.909
91226SOL    HW275518   1.332  12.573   2.884
91227SOL     OW75519   5.284   5.511   4.573
91227SOL    HW175520   5.325   5.526   4.488
91227SOL    HW275521   5.355   5.521   4.636
91228SOL     OW75522   5.495   6.638  14.506
91228SOL    HW175523   5.473   6.582  14.580
91228SOL    HW275524   5.571   6.689  14.535
91229SOL     OW75525   4.496   1.161   3.671
91229SOL    HW175526   4.482   1.188   3.762
91229SOL    HW275527   4.411   1.130   3.641
91230SOL     OW75528  14.867  11.312   7.996
91230SOL    HW175529   0.047  11.374   8.045
91230SOL    HW275530   0.056  11.249   7.959
91231SOL     OW75531  13.353  13.188   7.179
91231SOL    HW175532  13.301  13.153   7.252
91231SOL    HW275533  13.444  13.179   7.208
91232SOL     OW75534   6.331   4.190  13.543
91232SOL    HW175535   6.348   4.173  13.636
91232SOL    HW275536   6.363   4.280  13.529
91233SOL     OW75537   0.231  14.220   7.629
91233SOL    HW175538   0.311  14.199   7.580
91233SOL    HW275539   0.178  14.141   7.624
91234SOL     OW75540   7.674  11.201   9.319
91234SOL    HW175541   7.586  11.164   9.325
91234SOL    HW275542   7.732  11.125   9.327
91235SOL     OW75543   9.068   9.299   7.375
91235SOL    HW175544   9.053   9.274   7.466
91235SOL    HW275545   9.133   9.369   7.379
91236SOL     OW75546   6.106  13.993   4.299
91236SOL    HW175547   6.097  13.912   4.248
91236SOL    HW275548   6.110  13.964   4.390
91237SOL     OW75549   9.820   9.929   4.302
91237SOL    HW175550   9.766   9.880   4.241
91237SOL    HW275551   9.774   9.922   4.386
91238SOL     OW75552  14.293  10.481  10.554
91238SOL    HW175553  14.205  10.504  10.584
91238SOL    HW275554  14.343  10.562  10.561
91239SOL     OW75555   8.817   9.923  10.387
91239SOL    HW175556   8.892   9.968  10.347
91239SOL    HW275557   8.749   9.990  10.390
91240SOL     OW75558   5.392  13.614   1.429
91240SOL    HW175559   5.463  13.553   1.447
91240SOL    HW275560   5.338  13.570   1.364
91241SOL     OW75561   0.885   6.046  13.804
91241SOL    HW175562   0.797   6.012  13.819
91241SOL    HW275563   0.914   6.078  13.890
91242SOL     OW75564   7.767   6.716  13.904
91242SOL    HW175565   7.693   6.655  13.907
91242SOL    HW275566   7.794   6.716  13.812
91243SOL     OW75567  12.563   7.313   1.787
91243SOL    HW175568  12.510   7.233   1.798
91243SOL    HW275569  12.524   7.356   1.711
91244SOL     OW75570   7.568   3.355  12.731
91244SOL    HW175571   7.645   3.384  12.780
91244SOL    HW275572   7.527   3.290  12.788
91245SOL     OW75573   2.166   8.367   4.417
91245SOL    HW175574   2.241   8.333   4.466
91245SOL    HW275575   2.091   8.345   4.472
91246SOL     OW75576   9.295   5.360  13.661
91246SOL    HW175577   9.311   5.280  13.710
91246SOL    HW275578   9.309   5.430  13.725
91247SOL     OW75579   7.693   3.402   9.772
91247SOL    HW175580   7.655   3.483   9.806
91247SOL    HW275581   7.721   3.354   9.850
91248SOL     OW75582  12.754   3.948  14.530
91248SOL    HW175583  12.725   3.896  14.455
91248SOL    HW275584  12.845   3.968  14.511
91249SOL     OW75585   2.029   6.319   8.791
91249SOL    HW175586   1.970   6.389   8.819
91249SOL    HW275587   2.112   6.364   8.771
91250SOL     OW75588   1.586  11.572  10.776
91250SOL    HW175589   1.613  11.640  10.715
91250SOL    HW275590   1.490  11.578  10.778
91251SOL     OW75591  11.478   4.808   8.292
91251SOL    HW175592  11.387   4.807   8.324
91251SOL    HW275593  11.521   4.874   8.345
91252SOL     OW75594  11.722  10.083  10.454
91252SOL    HW175595  11.781  10.156  10.437
91252SOL    HW275596  11.634  10.122  10.451
91253SOL     OW75597  10.696   7.891   0.171
91253SOL    HW175598  10.607   7.855   0.174
91253SOL    HW275599  10.750   7.819   0.138
91254SOL     OW75600   5.869   5.826   2.374
91254SOL    HW175601   5.865   5.919   2.398
91254SOL    HW275602   5.824   5.781   2.446
91255SOL     OW75603  13.544   9.318  12.306
91255SOL    HW175604  13.464   9.296  12.258
91255SOL    HW275605  13.515   9.380  12.373
91256SOL     OW75606   2.183   6.811  11.646
91256SOL    HW175607   2.121   6.873  11.686
91256SOL    HW275608   2.267   6.855  11.653
91257SOL     OW75609  12.491   0.088   0.316
91257SOL    HW175610  12.450   0.078   0.230
91257SOL    HW275611  12.423   0.065   0.379
91258SOL     OW75612   4.017   5.732   4.436
91258SOL    HW175613   3.938   5.677   4.436
91258SOL    HW275614   4.086   5.674   4.467
91259SOL     OW75615  10.770   7.380  10.312
91259SOL    HW175616  10.796   7.369  10.221
91259SOL    HW275617  10.849   7.410  10.357
91260SOL     OW75618   4.755  12.146  11.248
91260SOL    HW175619   4.669  12.130  11.286
91260SOL    HW275620   4.756  12.094  11.168
91261SOL     OW75621  14.623   7.707  14.277
91261SOL    HW175622  14.638   7.627  14.226
91261SOL    HW275623  14.684   7.701  14.350
91262SOL     OW75624   6.782   1.939   2.950
91262SOL    HW175625   6.722   2.011   2.971
91262SOL    HW275626   6.859   1.983   2.914
91263SOL     OW75627  14.071   3.261   6.783
91263SOL    HW175628  14.062   3.167   6.769
91263SOL    HW275629  14.165   3.278   6.772
91264SOL     OW75630   9.672   4.982   2.896
91264SOL    HW175631   9.724   5.026   2.829
91264SOL    HW275632   9.723   4.993   2.977
91265SOL     OW75633   3.033  13.294   1.673
91265SOL    HW175634   3.022  13.363   1.608
91265SOL    HW275635   3.019  13.213   1.624
91266SOL     OW75636  11.264  14.142   1.728
91266SOL    HW175637  11.357  14.120   1.734
91266SOL    HW275638  11.246  14.142   1.634
91267SOL     OW75639   6.816   2.168  14.051
91267SOL    HW175640   6.890   2.191  14.108
91267SOL    HW275641   6.741   2.212  14.091
91268SOL     OW75642   0.731   3.313   8.541
91268SOL    HW175643   0.684   3.233   8.567
91268SOL    HW275644   0.707   3.377   8.607
91269SOL     OW75645   8.671   3.782   1.710
91269SOL    HW175646   8.702   3.719   1.645
91269SOL    HW275647   8.601   3.736   1.757
91270SOL     OW75648   9.626   7.123   7.972
91270SOL    HW175649   9.537   7.150   7.951
91270SOL    HW275650   9.629   7.122   8.068
91271SOL     OW75651  13.668   7.605  13.304
91271SOL    HW175652  13.684   7.699  13.298
91271SOL    HW275653  13.643   7.579  13.216
91272SOL     OW75654  13.086   5.951   3.771
91272SOL    HW175655  13.174   5.914   3.775
91272SOL    HW275656  13.052   5.943   3.860
91273SOL     OW75657   0.876   4.406   6.033
91273SOL    HW175658   0.813   4.410   6.106
91273SOL    HW275659   0.833   4.454   5.962
91274SOL     OW75660   4.733   7.343  14.546
91274SOL    HW175661   4.723   7.257  14.505
91274SOL    HW275662   4.805   7.384  14.498
91275SOL     OW75663  11.551   1.769   2.427
91275SOL    HW175664  11.580   1.693   2.376
91275SOL    HW275665  11.628   1.825   2.432
91276SOL     OW75666  12.418   8.378   6.920
91276SOL    HW175667  12.366   8.382   6.840
91276SOL    HW275668  12.355   8.357   6.989
91277SOL     OW75669  14.619   6.466  13.286
91277SOL    HW175670  14.526   6.444  13.296
91277SOL    HW275671  14.646   6.497  13.372
91278SOL     OW75672   6.964   3.223   4.096
91278SOL    HW175673   7.054   3.191   4.086
91278SOL    HW275674   6.940   3.256   4.010
91279SOL     OW75675   2.152   4.503   8.316
91279SOL    HW175676   2.090   4.445   8.360
91279SOL    HW275677   2.098   4.565   8.268
91280SOL     OW75678   3.416   6.422   9.121
91280SOL    HW175679   3.509   6.420   9.142
91280SOL    HW275680   3.410   6.384   9.033
91281SOL     OW75681   8.471   0.119   2.541
91281SOL    HW175682   8.469   0.213   2.525
91281SOL    HW275683   8.424   0.108   2.624
91282SOL     OW75684   3.766  14.400   4.776
91282SOL    HW175685   3.807  14.475   4.733
91282SOL    HW275686   3.836  14.335   4.784
91283SOL     OW75687   1.950  14.545   9.458
91283SOL    HW175688   2.027  14.523   9.509
91283SOL    HW275689   1.949  14.481   9.387
91284SOL     OW75690  14.541  10.103   2.111
91284SOL    HW175691  14.619  10.074   2.063
91284SOL    HW275692  14.507  10.176   2.060
91285SOL     OW75693   1.814  12.820   1.839
91285SOL    HW175694   1.823  12.913   1.822
91285SOL    HW275695   1.871  12.778   1.775
91286SOL     OW75696   2.004   4.709   6.373
91286SOL    HW175697   1.964   4.776   6.317
91286SOL    HW275698   1.942   4.698   6.445
91287SOL     OW75699  13.638   0.814   0.601
91287SOL    HW175700  13.577   0.830   0.674
91287SOL    HW275701  13.724   0.812   0.642
91288SOL     OW75702  12.392  11.492   6.758
91288SOL    HW175703  12.468  11.516   6.705
91288SOL    HW275704  12.416  11.408   6.798
91289SOL     OW75705  10.587   0.351   1.210
91289SOL    HW175706  10.596   0.263   1.174
91289SOL    HW275707  10.622   0.344   1.299
91290SOL     OW75708   7.002   0.808   2.452
91290SOL    HW175709   7.010   0.727   2.501
91290SOL    HW275710   6.949   0.865   2.507
91291SOL     OW75711  10.306   9.489   0.900
91291SOL    HW175712  10.395   9.465   0.923
91291SOL    HW275713  10.287   9.566   0.953
91292SOL     OW75714   2.109  13.265   2.748
91292SOL    HW175715   2.122  13.339   2.688
91292SOL    HW275716   2.197  13.242   2.777
91293SOL     OW75717   4.171  13.258   5.012
91293SOL    HW175718   4.156  13.164   5.023
91293SOL    HW275719   4.262  13.264   4.983
91294SOL     OW75720   9.463  13.295  11.792
91294SOL    HW175721   9.414  13.298  11.875
91294SOL    HW275722   9.555  13.300  11.818
91295SOL     OW75723  14.463   5.764  12.045
91295SOL    HW175724  14.369   5.756  12.059
91295SOL    HW275725  14.494   5.817  12.119
91296SOL     OW75726   4.497   8.818   8.683
91296SOL    HW175727   4.578   8.773   8.707
91296SOL    HW275728   4.429   8.751   8.691
91297SOL     OW75729  12.253   2.170   3.767
91297SOL    HW175730  12.277   2.204   3.681
91297SOL    HW275731  12.180   2.225   3.796
91298SOL     OW75732   5.026   2.181  14.090
91298SOL    HW175733   5.007   2.242  14.019
91298SOL    HW275734   4.944   2.175  14.140
91299SOL     OW75735   9.881  10.839   7.909
91299SOL    HW175736   9.931  10.825   7.828
91299SOL    HW275737   9.802  10.786   7.897
91300SOL     OW75738   0.478  14.819  13.644
91300SOL    HW175739   0.394  14.803  13.688
91300SOL    HW275740   0.461  14.800  13.552
91301SOL     OW75741  12.198   6.523  13.350
91301SOL    HW175742  12.182   6.508  13.257
91301SOL    HW275743  12.134   6.588  13.377
91302SOL     OW75744   6.583   5.998   3.865
91302SOL    HW175745   6.665   6.042   3.843
91302SOL    HW275746   6.547   5.970   3.781
91303SOL     OW75747   1.463  12.034   3.914
91303SOL    HW175748   1.415  11.992   3.842
91303SOL    HW275749   1.421  12.119   3.925
91304SOL     OW75750  13.051   5.015   5.955
91304SOL    HW175751  13.020   5.098   5.990
91304SOL    HW275752  13.022   4.950   6.019
91305SOL     OW75753   5.661   6.284   7.788
91305SOL    HW175754   5.642   6.255   7.699
91305SOL    HW275755   5.598   6.239   7.843
91306SOL     OW75756   5.194   9.187   6.092
91306SOL    HW175757   5.150   9.270   6.112
91306SOL    HW275758   5.225   9.199   6.002
91307SOL     OW75759   5.411  10.027   8.161
91307SOL    HW175760   5.469  10.052   8.233
91307SOL    HW275761   5.339   9.980   8.202
91308SOL     OW75762   7.991  13.942   1.587
91308SOL    HW175763   7.930  13.874   1.555
91308SOL    HW275764   7.950  13.975   1.667
91309SOL     OW75765  11.796   4.661  12.342
91309SOL    HW175766  11.791   4.750  12.306
91309SOL    HW275767  11.868   4.665  12.405
91310SOL     OW75768  13.446   1.571  13.410
91310SOL    HW175769  13.397   1.635  13.358
91310SOL    HW275770  13.390   1.553  13.485
91311SOL     OW75771   9.816  13.121  11.990
91311SOL    HW175772   9.759  13.196  12.008
91311SOL    HW275773   9.808  13.107  11.896
91312SOL     OW75774   8.651   0.384   9.141
91312SOL    HW175775   8.680   0.406   9.230
91312SOL    HW275776   8.725   0.338   9.102
91313SOL     OW75777   5.013  12.376   0.287
91313SOL    HW175778   4.925  12.394   0.254
91313SOL    HW275779   5.009  12.397   0.380
91314SOL     OW75780   5.995   4.656   3.399
91314SOL    HW175781   5.986   4.718   3.472
91314SOL    HW275782   6.085   4.670   3.367
91315SOL     OW75783   8.972   5.461   4.696
91315SOL    HW175784   9.064   5.434   4.689
91315SOL    HW275785   8.924   5.379   4.706
91316SOL     OW75786   0.416   8.924   1.932
91316SOL    HW175787   0.507   8.941   1.955
91316SOL    HW275788   0.390   9.000   1.879
91317SOL     OW75789  13.885  10.124  11.142
91317SOL    HW175790  13.799  10.161  11.125
91317SOL    HW275791  13.884  10.039  11.098
91318SOL     OW75792  11.620   4.495   9.744
91318SOL    HW175793  11.539   4.492   9.795
91318SOL    HW275794  11.643   4.403   9.731
91319SOL     OW75795   3.117   8.380   2.549
91319SOL    HW175796   3.170   8.304   2.575
91319SOL    HW275797   3.140   8.395   2.458
91320SOL     OW75798   8.895  14.583   8.231
91320SOL    HW175799   8.949  14.542   8.163
91320SOL    HW275800   8.822  14.622   8.183
91321SOL     OW75801   4.136  12.394  11.556
91321SOL    HW175802   4.057  12.436  11.523
91321SOL    HW275803   4.200  12.464  11.563
91322SOL     OW75804   9.496   0.726   3.739
91322SOL    HW175805   9.437   0.797   3.761
91322SOL    HW275806   9.515   0.738   3.646
91323SOL     OW75807   7.510   0.140   6.606
91323SOL    HW175808   7.572   0.072   6.579
91323SOL    HW275809   7.546   0.173   6.688
91324SOL     OW75810   0.967  13.044   0.495
91324SOL    HW175811   1.002  13.078   0.412
91324SOL    HW275812   0.952  12.951   0.478
91325SOL     OW75813  11.291   1.915   4.495
91325SOL    HW175814  11.328   1.922   4.583
91325SOL    HW275815  11.367   1.896   4.439
91326SOL     OW75816   6.840   1.808  10.551
91326SOL    HW175817   6.824   1.834  10.460
91326SOL    HW275818   6.933   1.828  10.565
91327SOL     OW75819  10.960  12.171   4.344
91327SOL    HW175820  11.054  12.176   4.327
91327SOL    HW275821  10.932  12.262   4.351
91328SOL     OW75822   7.443   7.327   3.021
91328SOL    HW175823   7.413   7.410   2.984
91328SOL    HW275824   7.413   7.261   2.959
91329SOL     OW75825  13.228  12.618   2.887
91329SOL    HW175826  13.187  12.674   2.952
91329SOL    HW275827  13.307  12.666   2.861
91330SOL     OW75828  13.671  14.032   5.330
91330SOL    HW175829  13.600  14.032   5.394
91330SOL    HW275830  13.642  13.972   5.261
91331SOL     OW75831   5.456  10.034   1.025
91331SOL    HW175832   5.405  10.114   1.032
91331SOL    HW275833   5.547  10.062   1.028
91332SOL     OW75834   7.460   7.988  14.358
91332SOL    HW175835   7.383   8.042  14.371
91332SOL    HW275836   7.514   8.037  14.295
91333SOL     OW75837  14.240  13.718   7.701
91333SOL    HW175838  14.297  13.642   7.696
91333SOL    HW275839  14.299  13.792   7.712
91334SOL     OW75840  11.199  12.268   6.540
91334SOL    HW175841  11.179  12.300   6.452
91334SOL    HW275842  11.240  12.343   6.583
91335SOL     OW75843   3.717   4.572  11.758
91335SOL    HW175844   3.781   4.609  11.818
91335SOL    HW275845   3.769   4.529  11.690
91336SOL     OW75846   7.988   4.618  13.865
91336SOL    HW175847   8.002   4.611  13.959
91336SOL    HW275848   8.066   4.663  13.833
91337SOL     OW75849   8.922  10.046  12.477
91337SOL    HW175850   8.982  10.085  12.541
91337SOL    HW275851   8.898   9.962  12.515
91338SOL     OW75852  11.991  10.162   4.710
91338SOL    HW175853  12.027  10.152   4.798
91338SOL    HW275854  12.002  10.076   4.669
91339SOL     OW75855  14.013   7.966  11.148
91339SOL    HW175856  14.070   7.900  11.109
91339SOL    HW275857  14.072   8.033  11.181
91340SOL     OW75858  13.491  10.334   9.279
91340SOL    HW175859  13.543  10.255   9.262
91340SOL    HW275860  13.550  10.392   9.327
91341SOL     OW75861   3.082   9.865  10.399
91341SOL    HW175862   3.113   9.883  10.488
91341SOL    HW275863   3.031   9.784  10.407
91342SOL     OW75864   2.153  13.061  11.550
91342SOL    HW175865   2.080  13.117  11.577
91342SOL    HW275866   2.117  12.973  11.545
91343SOL     OW75867  11.993  14.015   7.675
91343SOL    HW175868  11.918  14.000   7.733
91343SOL    HW275869  12.016  13.928   7.642
91344SOL     OW75870   9.063   5.848   8.951
91344SOL    HW175871   9.132   5.781   8.951
91344SOL    HW275872   9.049   5.867   8.858
91345SOL     OW75873   8.874   9.268   5.436
91345SOL    HW175874   8.867   9.299   5.346
91345SOL    HW275875   8.968   9.270   5.454
91346SOL     OW75876   6.665   5.450   5.163
91346SOL    HW175877   6.712   5.493   5.092
91346SOL    HW275878   6.678   5.357   5.147
91347SOL     OW75879   2.822  12.301  10.761
91347SOL    HW175880   2.730  12.286  10.739
91347SOL    HW275881   2.862  12.214  10.756
91348SOL     OW75882   1.771  13.617   1.441
91348SOL    HW175883   1.681  13.592   1.462
91348SOL    HW275884   1.823  13.540   1.462
91349SOL     OW75885   7.412   7.814   1.512
91349SOL    HW175886   7.491   7.813   1.566
91349SOL    HW275887   7.435   7.763   1.435
91350SOL     OW75888   8.304   9.879  10.668
91350SOL    HW175889   8.288   9.857  10.760
91350SOL    HW275890   8.237   9.944  10.647
91351SOL     OW75891   7.072  12.099  11.723
91351SOL    HW175892   7.117  12.056  11.650
91351SOL    HW275893   7.053  12.187  11.690
91352SOL     OW75894   5.294   8.148  13.356
91352SOL    HW175895   5.206   8.128  13.387
91352SOL    HW275896   5.328   8.066  13.321
91353SOL     OW75897  14.634   0.744  12.802
91353SOL    HW175898  14.582   0.813  12.841
91353SOL    HW275899  14.639   0.767  12.709
91354SOL     OW75900   8.362   7.105   7.251
91354SOL    HW175901   8.404   7.165   7.188
91354SOL    HW275902   8.317   7.163   7.313
91355SOL     OW75903   3.367  12.756   9.778
91355SOL    HW175904   3.425  12.804   9.719
91355SOL    HW275905   3.426  12.712   9.839
91356SOL     OW75906   0.368   2.562   1.177
91356SOL    HW175907   0.279   2.545   1.206
91356SOL    HW275908   0.368   2.537   1.084
91357SOL     OW75909  14.737  14.836  11.694
91357SOL    HW175910  14.807  14.807  11.753
91357SOL    HW275911  14.705   0.043  11.733
91358SOL     OW75912  12.760   4.696   2.059
91358SOL    HW175913  12.838   4.751   2.060
91358SOL    HW275914  12.792   4.608   2.039
91359SOL     OW75915  12.351   8.599   0.814
91359SOL    HW175916  12.398   8.596   0.897
91359SOL    HW275917  12.419   8.590   0.747
91360SOL     OW75918  12.851   5.530   2.623
91360SOL    HW175919  12.852   5.572   2.537
91360SOL    HW275920  12.769   5.558   2.663
91361SOL     OW75921   1.622  12.403  10.291
91361SOL    HW175922   1.594  12.316  10.263
91361SOL    HW275923   1.564  12.424  10.365
91362SOL     OW75924   9.715   8.900  10.279
91362SOL    HW175925   9.790   8.886  10.220
91362SOL    HW275926   9.649   8.941  10.224
91363SOL     OW75927   1.989   9.482   8.494
91363SOL    HW175928   2.081   9.473   8.519
91363SOL    HW275929   1.951   9.396   8.513
91364SOL     OW75930  10.473   6.621   9.909
91364SOL    HW175931  10.426   6.686   9.856
91364SOL    HW275932  10.416   6.605   9.984
91365SOL     OW75933   9.689   6.769  13.660
91365SOL    HW175934   9.750   6.760  13.587
91365SOL    HW275935   9.665   6.679  13.682
91366SOL     OW75936  10.008   3.230   9.549
91366SOL    HW175937   9.983   3.167   9.616
91366SOL    HW275938   9.927   3.246   9.501
91367SOL     OW75939  13.190  13.104   8.843
91367SOL    HW175940  13.190  13.012   8.816
91367SOL    HW275941  13.253  13.108   8.915
91368SOL     OW75942   4.094   2.011  13.259
91368SOL    HW175943   4.059   2.097  13.236
91368SOL    HW275944   4.107   1.968  13.175
91369SOL     OW75945   1.120  11.754   8.123
91369SOL    HW175946   1.088  11.786   8.207
91369SOL    HW275947   1.120  11.831   8.066
91370SOL     OW75948   0.862   2.293   6.451
91370SOL    HW175949   0.958   2.297   6.456
91370SOL    HW275950   0.845   2.258   6.363
91371SOL     OW75951   0.224   6.434   2.587
91371SOL    HW175952   0.186   6.512   2.548
91371SOL    HW275953   0.315   6.434   2.559
91372SOL     OW75954   1.629   1.575   0.502
91372SOL    HW175955   1.623   1.594   0.596
91372SOL    HW275956   1.713   1.612   0.476
91373SOL     OW75957   3.761   5.421   3.905
91373SOL    HW175958   3.776   5.419   3.999
91373SOL    HW275959   3.693   5.355   3.890
91374SOL     OW75960   0.718   5.482   9.025
91374SOL    HW175961   0.643   5.430   8.996
91374SOL    HW275962   0.721   5.468   9.120
91375SOL     OW75963   3.719   2.061   2.834
91375SOL    HW175964   3.779   2.129   2.805
91375SOL    HW275965   3.750   1.981   2.791
91376SOL     OW75966  12.764   9.850  11.572
91376SOL    HW175967  12.800   9.912  11.508
91376SOL    HW275968  12.686   9.895  11.606
91377SOL     OW75969  10.148  12.717   9.775
91377SOL    HW175970  10.105  12.673   9.702
91377SOL    HW275971  10.077  12.757   9.825
91378SOL     OW75972   7.888   6.038  10.681
91378SOL    HW175973   7.825   6.102  10.646
91378SOL    HW275974   7.912   6.073  10.767
91379SOL     OW75975   7.133   2.071  13.838
91379SOL    HW175976   7.121   2.039  13.928
91379SOL    HW275977   7.161   2.162  13.848
91380SOL     OW75978  11.745   1.989   1.790
91380SOL    HW175979  11.722   1.981   1.697
91380SOL    HW275980  11.762   1.900   1.819
91381SOL     OW75981   7.786   8.311  13.675
91381SOL    HW175982   7.824   8.388  13.632
91381SOL    HW275983   7.696   8.308  13.641
91382SOL     OW75984   4.628   1.739  14.681
91382SOL    HW175985   4.678   1.659  14.697
91382SOL    HW275986   4.543   1.709  14.650
91383SOL     OW75987   5.668  13.808  10.660
91383SOL    HW175988   5.700  13.761  10.737
91383SOL    HW275989   5.741  13.865  10.636
91384SOL     OW75990   1.521   7.626   1.615
91384SOL    HW175991   1.536   7.563   1.545
91384SOL    HW275992   1.602   7.626   1.666
91385SOL     OW75993   9.408  12.358  13.028
91385SOL    HW175994   9.389  12.449  13.049
91385SOL    HW275995   9.417  12.355  12.933
91386SOL     OW75996  12.122   6.650   0.936
91386SOL    HW175997  12.202   6.609   0.902
91386SOL    HW275998  12.110   6.610   1.023
91387SOL     OW75999   8.419   3.224   6.783
91387SOL    HW176000   8.497   3.169   6.789
91387SOL    HW276001   8.416   3.252   6.692
91388SOL     OW76002  13.923  13.221  13.579
91388SOL    HW176003  14.014  13.253  13.583
91388SOL    HW276004  13.932  13.126  13.572
91389SOL     OW76005   6.131   7.543   6.970
91389SOL    HW176006   6.133   7.589   7.054
91389SOL    HW276007   6.160   7.608   6.906
91390SOL     OW76008  13.623   6.778   3.797
91390SOL    HW176009  13.553   6.837   3.825
91390SOL    HW276010  13.598   6.692   3.833
91391SOL     OW76011   4.165   8.889   0.890
91391SOL    HW176012   4.111   8.944   0.947
91391SOL    HW276013   4.116   8.884   0.808
91392SOL     OW76014  11.753  12.901  10.285
91392SOL    HW176015  11.764  12.812  10.251
91392SOL    HW276016  11.673  12.896  10.337
91393SOL     OW76017   8.197   6.504   0.643
91393SOL    HW176018   8.214   6.572   0.578
91393SOL    HW276019   8.135   6.445   0.600
91394SOL     OW76020  10.939   7.590   4.702
91394SOL    HW176021  11.024   7.549   4.686
91394SOL    HW276022  10.889   7.575   4.622
91395SOL     OW76023   1.100  13.342   3.684
91395SOL    HW176024   1.072  13.341   3.593
91395SOL    HW276025   1.165  13.412   3.689
91396SOL     OW76026  13.343  14.322   2.882
91396SOL    HW176027  13.371  14.230   2.884
91396SOL    HW276028  13.312  14.335   2.792
91397SOL     OW76029  14.754  12.882  10.293
91397SOL    HW176030  14.820  12.827  10.250
91397SOL    HW276031  14.706  12.822  10.350
91398SOL     OW76032  12.687   8.032   2.746
91398SOL    HW176033  12.721   8.096   2.808
91398SOL    HW276034  12.752   7.961   2.747
91399SOL     OW76035   0.517  10.844   0.910
91399SOL    HW176036   0.598  10.894   0.903
91399SOL    HW276037   0.456  10.903   0.953
91400SOL     OW76038  10.490   6.705   2.184
91400SOL    HW176039  10.398   6.701   2.209
91400SOL    HW276040  10.527   6.624   2.218
91401SOL     OW76041   6.882  10.966   6.445
91401SOL    HW176042   6.970  11.000   6.458
91401SOL    HW276043   6.848  11.014   6.369
91402SOL     OW76044  11.272   4.714  10.237
91402SOL    HW176045  11.234   4.798  10.261
91402SOL    HW276046  11.288   4.721  10.143
91403SOL     OW76047  14.065   7.120  13.650
91403SOL    HW176048  14.077   7.086  13.561
91403SOL    HW276049  14.036   7.044  13.701
91404SOL     OW76050   8.628   8.516   5.152
91404SOL    HW176051   8.561   8.449   5.137
91404SOL    HW276052   8.579   8.592   5.183
91405SOL     OW76053  10.353   1.194  12.511
91405SOL    HW176054  10.262   1.163  12.503
91405SOL    HW276055  10.380   1.214  12.422
91406SOL     OW76056  10.774  12.085  14.381
91406SOL    HW176057  10.826  12.084  14.461
91406SOL    HW276058  10.709  12.015  14.395
91407SOL     OW76059   8.878  12.273  12.279
91407SOL    HW176060   8.912  12.312  12.198
91407SOL    HW276061   8.791  12.311  12.289
91408SOL     OW76062   3.823  13.190  11.763
91408SOL    HW176063   3.846  13.140  11.841
91408SOL    HW276064   3.830  13.282  11.790
91409SOL     OW76065  14.449  12.711   6.873
91409SOL    HW176066  14.482  12.629   6.837
91409SOL    HW276067  14.425  12.763   6.796
91410SOL     OW76068   0.997   3.274  14.072
91410SOL    HW176069   1.033   3.340  14.131
91410SOL    HW276070   0.937   3.224  14.127
91411SOL     OW76071   7.399   3.024   2.392
91411SOL    HW176072   7.457   3.086   2.436
91411SOL    HW276073   7.357   3.075   2.323
91412SOL     OW76074  11.003  11.558   1.350
91412SOL    HW176075  10.964  11.506   1.420
91412SOL    HW276076  10.993  11.504   1.271
91413SOL     OW76077  11.369   2.633  12.607
91413SOL    HW176078  11.412   2.637  12.693
91413SOL    HW276079  11.304   2.703  12.610
91414SOL     OW76080   2.357   9.365   9.994
91414SOL    HW176081   2.325   9.332  10.078
91414SOL    HW276082   2.417   9.436  10.017
91415SOL     OW76083   9.849  13.257   2.128
91415SOL    HW176084   9.784  13.252   2.198
91415SOL    HW276085   9.832  13.341   2.085
91416SOL     OW76086  10.643   3.692   4.512
91416SOL    HW176087  10.631   3.758   4.580
91416SOL    HW276088  10.568   3.633   4.522
91417SOL     OW76089  11.023   9.914   7.185
91417SOL    HW176090  10.999   9.972   7.258
91417SOL    HW276091  11.046   9.831   7.226
91418SOL     OW76092  11.727   3.023   1.780
91418SOL    HW176093  11.644   2.984   1.751
91418SOL    HW276094  11.747   2.978   1.862
91419SOL     OW76095   2.057  12.125   9.244
91419SOL    HW176096   2.111  12.118   9.323
91419SOL    HW276097   2.095  12.063   9.183
91420SOL     OW76098  13.761   0.971  10.691
91420SOL    HW176099  13.732   0.885  10.660
91420SOL    HW276100  13.833   0.995  10.632
91421SOL     OW76101   1.327   5.575   7.360
91421SOL    HW176102   1.326   5.540   7.449
91421SOL    HW276103   1.289   5.506   7.306
91422SOL     OW76104  11.342   4.167   3.396
91422SOL    HW176105  11.316   4.075   3.407
91422SOL    HW276106  11.264   4.217   3.419
91423SOL     OW76107  13.183  13.738  13.227
91423SOL    HW176108  13.109  13.751  13.286
91423SOL    HW276109  13.184  13.815  13.170
91424SOL     OW76110   5.087   7.161   7.664
91424SOL    HW176111   5.083   7.254   7.683
91424SOL    HW276112   5.180   7.139   7.669
91425SOL     OW76113   7.190  14.066   9.287
91425SOL    HW176114   7.217  14.120   9.361
91425SOL    HW276115   7.185  14.127   9.213
91426SOL     OW76116   0.127   4.293  14.704
91426SOL    HW176117   0.195   4.239  14.665
91426SOL    HW276118   0.093   4.345  14.631
91427SOL     OW76119   8.796   4.440   3.051
91427SOL    HW176120   8.821   4.442   3.144
91427SOL    HW276121   8.875   4.409   3.006
91428SOL     OW76122   2.430  13.793   7.882
91428SOL    HW176123   2.478  13.861   7.929
91428SOL    HW276124   2.381  13.747   7.951
91429SOL     OW76125   8.259  11.035   9.400
91429SOL    HW176126   8.204  10.980   9.455
91429SOL    HW276127   8.330  10.978   9.371
91430SOL     OW76128   7.814   4.294   1.959
91430SOL    HW176129   7.836   4.331   2.045
91430SOL    HW276130   7.897   4.296   1.911
91431SOL     OW76131   6.591  10.266   9.582
91431SOL    HW176132   6.639  10.229   9.508
91431SOL    HW276133   6.502  10.278   9.550
91432SOL     OW76134   5.945  13.023  14.126
91432SOL    HW176135   5.865  13.051  14.170
91432SOL    HW276136   5.957  13.086  14.054
91433SOL     OW76137  10.004   4.831  11.752
91433SOL    HW176138  10.075   4.775  11.722
91433SOL    HW276139   9.964   4.865  11.672
91434SOL     OW76140   7.756   0.138   6.367
91434SOL    HW176141   7.816   0.126   6.294
91434SOL    HW276142   7.756   0.054   6.412
91435SOL     OW76143  13.993   8.591   2.411
91435SOL    HW176144  13.984   8.587   2.315
91435SOL    HW276145  14.068   8.534   2.430
91436SOL     OW76146  13.467   7.554   0.653
91436SOL    HW176147  13.554   7.531   0.686
91436SOL    HW276148  13.453   7.494   0.579
91437SOL     OW76149   2.511   0.217   6.620
91437SOL    HW176150   2.554   0.270   6.553
91437SOL    HW276151   2.427   0.260   6.634
91438SOL     OW76152   5.396   2.262  14.742
91438SOL    HW176153   5.491   2.275  14.746
91438SOL    HW276154   5.359   2.341  14.782
91439SOL     OW76155   9.207   4.300  10.105
91439SOL    HW176156   9.184   4.327  10.016
91439SOL    HW276157   9.181   4.208  10.110
91440SOL     OW76158  14.206   1.092  11.718
91440SOL    HW176159  14.157   1.160  11.765
91440SOL    HW276160  14.150   1.068  11.645
91441SOL     OW76161  13.729   4.098   8.772
91441SOL    HW176162  13.752   4.080   8.863
91441SOL    HW276163  13.797   4.054   8.721
91442SOL     OW76164  13.560   2.682   9.729
91442SOL    HW176165  13.584   2.730   9.649
91442SOL    HW276166  13.622   2.610   9.732
91443SOL     OW76167   6.096   8.074   7.374
91443SOL    HW176168   6.168   8.041   7.320
91443SOL    HW276169   6.066   8.153   7.330
91444SOL     OW76170   2.075   4.940   1.190
91444SOL    HW176171   2.020   5.017   1.178
91444SOL    HW276172   2.028   4.869   1.145
91445SOL     OW76173   6.786   1.934  13.894
91445SOL    HW176174   6.742   1.869  13.950
91445SOL    HW276175   6.783   2.015  13.946
91446SOL     OW76176   3.952   8.604   1.695
91446SOL    HW176177   3.913   8.615   1.781
91446SOL    HW276178   3.994   8.688   1.676
91447SOL     OW76179   3.185   4.892  11.581
91447SOL    HW176180   3.206   4.887  11.674
91447SOL    HW276181   3.122   4.821  11.567
91448SOL     OW76182   6.978   4.282   1.550
91448SOL    HW176183   6.974   4.337   1.472
91448SOL    HW276184   6.940   4.337   1.619
91449SOL     OW76185  10.352   7.939  11.924
91449SOL    HW176186  10.404   7.873  11.879
91449SOL    HW276187  10.291   7.971  11.858
91450SOL     OW76188   8.186   7.878  10.204
91450SOL    HW176189   8.163   7.856  10.295
91450SOL    HW276190   8.282   7.876  10.203
91451SOL     OW76191  13.525  12.641   0.015
91451SOL    HW176192  13.545  12.577  14.821
91451SOL    HW276193  13.497  12.719  14.841
91452SOL     OW76194  11.954   8.102  13.080
91452SOL    HW176195  11.892   8.164  13.042
91452SOL    HW276196  11.945   8.023  13.027
91453SOL     OW76197   4.245   8.978   0.581
91453SOL    HW176198   4.257   9.071   0.599
91453SOL    HW276199   4.232   8.974   0.486
91454SOL     OW76200   2.593   6.791  11.365
91454SOL    HW176201   2.654   6.744  11.308
91454SOL    HW276202   2.604   6.751  11.451
91455SOL     OW76203  13.839   9.239   9.863
91455SOL    HW176204  13.755   9.213   9.901
91455SOL    HW276205  13.872   9.160   9.822
91456SOL     OW76206   5.020   6.329   7.946
91456SOL    HW176207   5.011   6.312   7.852
91456SOL    HW276208   5.067   6.252   7.979
91457SOL     OW76209   9.122  14.449  14.543
91457SOL    HW176210   9.146  14.491  14.625
91457SOL    HW276211   9.035  14.482  14.523
91458SOL     OW76212   0.183  14.251   9.774
91458SOL    HW176213   0.142  14.169   9.802
91458SOL    HW276214   0.121  14.288   9.710
91459SOL     OW76215  13.016  13.740   4.523
91459SOL    HW176216  12.975  13.764   4.440
91459SOL    HW276217  12.969  13.792   4.589
91460SOL     OW76218   2.225   2.447   3.956
91460SOL    HW176219   2.253   2.516   4.016
91460SOL    HW276220   2.265   2.470   3.872
91461SOL     OW76221   0.801  11.574   7.584
91461SOL    HW176222   0.873  11.513   7.599
91461SOL    HW276223   0.780  11.608   7.671
91462SOL     OW76224   2.898  10.553   6.473
91462SOL    HW176225   2.928  10.518   6.557
91462SOL    HW276226   2.805  10.532   6.470
91463SOL     OW76227  10.313   2.448  14.448
91463SOL    HW176228  10.277   2.365  14.415
91463SOL    HW276229  10.406   2.430  14.459
91464SOL     OW76230   6.141   7.258   7.085
91464SOL    HW176231   6.176   7.331   7.034
91464SOL    HW276232   6.088   7.208   7.023
91465SOL     OW76233  12.189   7.373  12.028
91465SOL    HW176234  12.200   7.364  12.123
91465SOL    HW276235  12.278   7.387  11.995
91466SOL     OW76236   2.982  13.581  11.557
91466SOL    HW176237   3.011  13.610  11.470
91466SOL    HW276238   3.015  13.492  11.565
91467SOL     OW76239  12.800  13.906  14.304
91467SOL    HW176240  12.849  13.910  14.386
91467SOL    HW276241  12.760  13.993  14.296
91468SOL     OW76242  11.731   5.311  14.416
91468SOL    HW176243  11.665   5.360  14.466
91468SOL    HW276244  11.699   5.313  14.326
91469SOL     OW76245   5.626   4.041   6.350
91469SOL    HW176246   5.551   4.003   6.304
91469SOL    HW276247   5.692   4.052   6.282
91470SOL     OW76248   5.472   3.984   7.109
91470SOL    HW176249   5.475   3.996   7.204
91470SOL    HW276250   5.523   3.904   7.093
91471SOL     OW76251   2.643   5.441   5.967
91471SOL    HW176252   2.702   5.399   5.904
91471SOL    HW276253   2.665   5.400   6.051
91472SOL     OW76254  11.947   4.593   5.092
91472SOL    HW176255  12.012   4.631   5.151
91472SOL    HW276256  11.885   4.664   5.075
91473SOL     OW76257  14.866  14.038  10.726
91473SOL    HW176258  14.820  14.107  10.774
91473SOL    HW276259  14.861  13.961  10.783
91474SOL     OW76260   7.814   8.534  13.483
91474SOL    HW176261   7.758   8.493  13.418
91474SOL    HW276262   7.890   8.565  13.434
91475SOL     OW76263   0.583   7.625  10.132
91475SOL    HW176264   0.616   7.536  10.141
91475SOL    HW276265   0.488   7.616  10.140
91476SOL     OW76266   5.458  10.105  11.860
91476SOL    HW176267   5.496  10.170  11.800
91476SOL    HW276268   5.449  10.026  11.807
91477SOL     OW76269  11.721  14.067   0.670
91477SOL    HW176270  11.685  14.092   0.584
91477SOL    HW276271  11.660  14.001   0.702
91478SOL     OW76272   0.301   4.013  11.674
91478SOL    HW176273   0.310   4.040  11.583
91478SOL    HW276274   0.391   3.998  11.703
91479SOL     OW76275   2.103   4.709   2.638
91479SOL    HW176276   2.153   4.787   2.661
91479SOL    HW276277   2.169   4.642   2.621
91480SOL     OW76278   2.533   6.890   9.342
91480SOL    HW176279   2.591   6.836   9.289
91480SOL    HW276280   2.499   6.955   9.281
91481SOL     OW76281   9.758   0.838   3.799
91481SOL    HW176282   9.686   0.812   3.741
91481SOL    HW276283   9.755   0.934   3.800
91482SOL     OW76284   2.291   5.522   1.794
91482SOL    HW176285   2.270   5.524   1.888
91482SOL    HW276286   2.206   5.521   1.751
91483SOL     OW76287   5.708   2.329  14.269
91483SOL    HW176288   5.666   2.365  14.190
91483SOL    HW276289   5.638   2.326  14.334
91484SOL     OW76290  12.135   0.398   2.495
91484SOL    HW176291  12.212   0.430   2.542
91484SOL    HW276292  12.161   0.400   2.403
91485SOL     OW76293   9.666   4.968   0.016
91485SOL    HW176294   9.691   4.876   0.013
91485SOL    HW276295   9.708   5.007  14.813
91486SOL     OW76296  10.224  14.082  12.205
91486SOL    HW176297  10.145  14.115  12.249
91486SOL    HW276298  10.215  13.987  12.211
91487SOL     OW76299   8.574   4.227  11.088
91487SOL    HW176300   8.592   4.244  11.181
91487SOL    HW276301   8.483   4.199  11.086
91488SOL     OW76302   6.881  13.345   6.293
91488SOL    HW176303   6.801  13.301   6.263
91488SOL    HW276304   6.881  13.429   6.247
91489SOL     OW76305   9.631  11.750   7.907
91489SOL    HW176306   9.695  11.682   7.888
91489SOL    HW276307   9.569  11.746   7.834
91490SOL     OW76308   2.681  10.702  14.798
91490SOL    HW176309   2.728  10.783  14.779
91490SOL    HW276310   2.642  10.716   0.010
91491SOL     OW76311  12.691   3.121   8.464
91491SOL    HW176312  12.744   3.048   8.497
91491SOL    HW276313  12.602   3.100   8.491
91492SOL     OW76314  12.897   7.958   5.597
91492SOL    HW176315  12.939   8.010   5.665
91492SOL    HW276316  12.817   7.925   5.637
91493SOL     OW76317   1.432   2.324  14.510
91493SOL    HW176318   1.464   2.381  14.439
91493SOL    HW276319   1.408   2.243  14.466
91494SOL     OW76320   1.764   7.488   4.434
91494SOL    HW176321   1.798   7.430   4.366
91494SOL    HW276322   1.813   7.464   4.513
91495SOL     OW76323  11.265  14.794   3.393
91495SOL    HW176324  11.184  14.807   3.342
91495SOL    HW276325  11.307  14.719   3.350
91496SOL     OW76326   8.275   8.366   0.857
91496SOL    HW176327   8.215   8.426   0.814
91496SOL    HW276328   8.351   8.421   0.880
91497SOL     OW76329   7.467   8.598  14.441
91497SOL    HW176330   7.451   8.612  14.534
91497SOL    HW276331   7.554   8.634  14.425
91498SOL     OW76332   4.329  11.134   2.074
91498SOL    HW176333   4.306  11.169   2.160
91498SOL    HW276334   4.414  11.093   2.086
91499SOL     OW76335   6.633   9.750  12.775
91499SOL    HW176336   6.613   9.663  12.741
91499SOL    HW276337   6.566   9.766  12.841
91500SOL     OW76338   8.627   5.638   9.831
91500SOL    HW176339   8.562   5.676   9.772
91500SOL    HW276340   8.583   5.635   9.916
91501SOL     OW76341  10.301   8.646  14.342
91501SOL    HW176342  10.222   8.643  14.288
91501SOL    HW276343  10.312   8.556  14.374
91502SOL     OW76344  14.646   4.594   9.584
91502SOL    HW176345  14.577   4.571   9.646
91502SOL    HW276346  14.727   4.563   9.625
91503SOL     OW76347   9.377   9.903   6.257
91503SOL    HW176348   9.423   9.902   6.173
91503SOL    HW276349   9.284   9.904   6.233
91504SOL     OW76350   5.554   6.557  13.999
91504SOL    HW176351   5.605   6.500  13.941
91504SOL    HW276352   5.614   6.628  14.021
91505SOL     OW76353  13.519   0.143  10.863
91505SOL    HW176354  13.604   0.103  10.843
91505SOL    HW276355  13.456   0.072  10.851
91506SOL     OW76356  13.186   0.852  11.805
91506SOL    HW176357  13.183   0.758  11.786
91506SOL    HW276358  13.266   0.864  11.856
91507SOL     OW76359  13.910   2.124  14.389
91507SOL    HW176360  13.890   2.211  14.355
91507SOL    HW276361  13.979   2.138  14.453
91508SOL     OW76362   3.807   8.359   0.102
91508SOL    HW176363   3.889   8.317   0.077
91508SOL    HW276364   3.780   8.409   0.025
91509SOL     OW76365   4.119  14.181   3.971
91509SOL    HW176366   4.194  14.229   3.936
91509SOL    HW276367   4.097  14.118   3.903
91510SOL     OW76368  11.476  13.901  12.587
91510SOL    HW176369  11.492  13.833  12.652
91510SOL    HW276370  11.555  13.955  12.589
91511SOL     OW76371   4.665   3.881   7.737
91511SOL    HW176372   4.743   3.827   7.726
91511SOL    HW276373   4.641   3.869   7.829
91512SOL     OW76374   5.858   3.836   3.832
91512SOL    HW176375   5.846   3.788   3.914
91512SOL    HW276376   5.808   3.787   3.767
91513SOL     OW76377   8.342   2.072  14.721
91513SOL    HW176378   8.353   2.006  14.789
91513SOL    HW276379   8.312   2.022  14.644
91514SOL     OW76380   9.279  14.732   0.234
91514SOL    HW176381   9.184  14.747   0.239
91514SOL    HW276382   9.316  14.793   0.297
91515SOL     OW76383  13.602  12.242  13.003
91515SOL    HW176384  13.652  12.167  12.969
91515SOL    HW276385  13.565  12.282  12.925
91516SOL     OW76386   3.839  10.094   8.709
91516SOL    HW176387   3.925  10.116   8.673
91516SOL    HW276388   3.779  10.102   8.634
91517SOL     OW76389  10.559  11.380   8.353
91517SOL    HW176390  10.560  11.439   8.278
91517SOL    HW276391  10.479  11.329   8.342
91518SOL     OW76392   9.351  13.994   3.312
91518SOL    HW176393   9.272  13.993   3.257
91518SOL    HW276394   9.414  14.046   3.262
91519SOL     OW76395  13.480  12.311   6.494
91519SOL    HW176396  13.407  12.342   6.548
91519SOL    HW276397  13.442  12.241   6.440
91520SOL     OW76398   3.343   3.649   3.498
91520SOL    HW176399   3.429   3.664   3.460
91520SOL    HW276400   3.333   3.716   3.565
91521SOL     OW76401   2.223   4.699   6.798
91521SOL    HW176402   2.255   4.789   6.797
91521SOL    HW276403   2.128   4.708   6.802
91522SOL     OW76404  13.070   2.461   4.117
91522SOL    HW176405  13.054   2.509   4.036
91522SOL    HW276406  13.148   2.408   4.099
91523SOL     OW76407   0.174   1.771  11.654
91523SOL    HW176408   0.243   1.717  11.618
91523SOL    HW276409   0.216   1.855  11.673
91524SOL     OW76410   6.366   5.860   4.696
91524SOL    HW176411   6.334   5.863   4.786
91524SOL    HW276412   6.405   5.946   4.681
91525SOL     OW76413   5.910   4.310   5.663
91525SOL    HW176414   5.934   4.396   5.696
91525SOL    HW276415   5.969   4.250   5.708
91526SOL     OW76416   9.034   1.737   3.180
91526SOL    HW176417   9.018   1.643   3.191
91526SOL    HW276418   9.101   1.741   3.111
91527SOL     OW76419   9.861   3.303   4.390
91527SOL    HW176420   9.896   3.218   4.416
91527SOL    HW276421   9.920   3.367   4.429
91528SOL     OW76422   4.553   4.355   9.995
91528SOL    HW176423   4.577   4.284   9.935
91528SOL    HW276424   4.525   4.310  10.075
91529SOL     OW76425   3.031   1.069   9.268
91529SOL    HW176426   2.963   1.123   9.228
91529SOL    HW276427   2.987   1.025   9.340
91530SOL     OW76428   8.809  11.093  10.414
91530SOL    HW176429   8.825  11.176  10.459
91530SOL    HW276430   8.801  11.028  10.484
91531SOL     OW76431   3.919   5.781   7.166
91531SOL    HW176432   3.832   5.812   7.191
91531SOL    HW276433   3.906   5.689   7.144
91532SOL     OW76434   5.570  12.626   0.352
91532SOL    HW176435   5.573  12.557   0.286
91532SOL    HW276436   5.647  12.680   0.333
91533SOL     OW76437   0.234   3.586   1.356
91533SOL    HW176438   0.191   3.661   1.396
91533SOL    HW276439   0.278   3.542   1.429
91534SOL     OW76440   2.843  10.386  10.077
91534SOL    HW176441   2.910  10.332  10.121
91534SOL    HW276442   2.893  10.445  10.022
91535SOL     OW76443  14.844   2.115   2.657
91535SOL    HW176444   0.062   2.106   2.679
91535SOL    HW276445  14.797   2.077   2.731
91536SOL     OW76446   1.206   7.651   9.654
91536SOL    HW176447   1.151   7.674   9.579
91536SOL    HW276448   1.149   7.599   9.710
91537SOL     OW76449   9.304   0.518   7.481
91537SOL    HW176450   9.271   0.452   7.420
91537SOL    HW276451   9.303   0.474   7.566
91538SOL     OW76452   6.296   7.041   4.685
91538SOL    HW176453   6.334   7.128   4.675
91538SOL    HW276454   6.334   6.989   4.614
91539SOL     OW76455  13.231   6.367  12.578
91539SOL    HW176456  13.175   6.398  12.507
91539SOL    HW276457  13.190   6.286  12.608
91540SOL     OW76458   8.058   6.012   9.529
91540SOL    HW176459   8.101   6.019   9.444
91540SOL    HW276460   8.003   5.934   9.522
91541SOL     OW76461   8.735   5.743   2.821
91541SOL    HW176462   8.826   5.727   2.795
91541SOL    HW276463   8.742   5.807   2.893
91542SOL     OW76464  14.293   3.805   2.796
91542SOL    HW176465  14.334   3.886   2.767
91542SOL    HW276466  14.322   3.739   2.733
91543SOL     OW76467  12.081   2.783   2.434
91543SOL    HW176468  12.170   2.797   2.402
91543SOL    HW276469  12.080   2.691   2.461
91544SOL     OW76470   1.012   0.572   4.292
91544SOL    HW176471   0.996   0.498   4.235
91544SOL    HW276472   1.048   0.640   4.235
91545SOL     OW76473   7.654  13.660   2.967
91545SOL    HW176474   7.713  13.718   2.919
91545SOL    HW276475   7.708  13.586   2.994
91546SOL     OW76476  11.206   0.652   6.812
91546SOL    HW176477  11.174   0.706   6.739
91546SOL    HW276478  11.169   0.693   6.890
91547SOL     OW76479   9.786  14.703   7.862
91547SOL    HW176480   9.819  14.729   7.776
91547SOL    HW276481   9.767  14.609   7.854
91548SOL     OW76482   4.128   4.703   5.826
91548SOL    HW176483   4.074   4.663   5.758
91548SOL    HW276484   4.216   4.707   5.788
91549SOL     OW76485   0.865   2.454   3.321
91549SOL    HW176486   0.819   2.456   3.405
91549SOL    HW276487   0.871   2.361   3.299
91550SOL     OW76488   1.139  12.828  12.923
91550SOL    HW176489   1.186  12.775  12.859
91550SOL    HW276490   1.168  12.918  12.905
91551SOL     OW76491  10.592  12.657  13.531
91551SOL    HW176492  10.584  12.664  13.436
91551SOL    HW276493  10.629  12.741  13.558
91552SOL     OW76494   1.827   4.029   3.124
91552SOL    HW176495   1.744   3.994   3.090
91552SOL    HW276496   1.801   4.081   3.200
91553SOL     OW76497   5.247   8.958   6.257
91553SOL    HW176498   5.325   8.985   6.305
91553SOL    HW276499   5.203   9.040   6.234
91554SOL     OW76500   9.346  12.908   9.408
91554SOL    HW176501   9.404  12.884   9.336
91554SOL    HW276502   9.321  12.999   9.391
91555SOL     OW76503  13.584  13.858  13.085
91555SOL    HW176504  13.525  13.933  13.096
91555SOL    HW276505  13.529  13.782  13.101
91556SOL     OW76506  13.175   8.257   9.894
91556SOL    HW176507  13.184   8.345   9.929
91556SOL    HW276508  13.080   8.242   9.891
91557SOL     OW76509   3.294   9.171   4.616
91557SOL    HW176510   3.256   9.194   4.532
91557SOL    HW276511   3.349   9.095   4.598
91558SOL     OW76512   9.573  14.660   1.165
91558SOL    HW176513   9.637  14.687   1.230
91558SOL    HW276514   9.564  14.565   1.179
91559SOL     OW76515   3.507   3.330   1.575
91559SOL    HW176516   3.447   3.288   1.514
91559SOL    HW276517   3.580   3.269   1.584
91560SOL     OW76518   4.554   3.925   9.358
91560SOL    HW176519   4.472   3.941   9.405
91560SOL    HW276520   4.528   3.916   9.266
91561SOL     OW76521  12.533  14.584   0.961
91561SOL    HW176522  12.550  14.549   0.874
91561SOL    HW276523  12.439  14.600   0.963
91562SOL     OW76524   1.132   6.014  12.903
91562SOL    HW176525   1.093   5.927  12.904
91562SOL    HW276526   1.080   6.064  12.966
91563SOL     OW76527   8.454   3.244   4.893
91563SOL    HW176528   8.359   3.251   4.880
91563SOL    HW276529   8.475   3.317   4.951
91564SOL     OW76530  11.990  14.761   0.916
91564SOL    HW176531  11.938  14.686   0.941
91564SOL    HW276532  12.022  14.797   0.999
91565SOL     OW76533   6.240   9.646   3.934
91565SOL    HW176534   6.264   9.682   3.849
91565SOL    HW276535   6.303   9.684   3.995
91566SOL     OW76536   5.878  10.279   5.092
91566SOL    HW176537   5.894  10.327   5.173
91566SOL    HW276538   5.827  10.203   5.119
91567SOL     OW76539   1.851   8.002   3.216
91567SOL    HW176540   1.758   8.022   3.224
91567SOL    HW276541   1.892   8.046   3.291
91568SOL     OW76542   6.280   7.410   8.225
91568SOL    HW176543   6.298   7.502   8.207
91568SOL    HW276544   6.211   7.411   8.291
91569SOL     OW76545   7.165   3.374   6.040
91569SOL    HW176546   7.150   3.282   6.017
91569SOL    HW276547   7.181   3.417   5.956
91570SOL     OW76548   3.252   1.348   1.829
91570SOL    HW176549   3.303   1.268   1.842
91570SOL    HW276550   3.301   1.416   1.877
91571SOL     OW76551  14.068   0.273   7.139
91571SOL    HW176552  14.024   0.195   7.105
91571SOL    HW276553  14.031   0.285   7.226
91572SOL     OW76554  12.913  13.538  11.858
91572SOL    HW176555  12.884  13.537  11.766
91572SOL    HW276556  12.976  13.467  11.864
91573SOL     OW76557   6.041   8.262   7.203
91573SOL    HW176558   6.066   8.332   7.144
91573SOL    HW276559   5.952   8.239   7.178
91574SOL     OW76560  11.464   5.541  13.256
91574SOL    HW176561  11.378   5.583  13.254
91574SOL    HW276562  11.485   5.534  13.349
91575SOL     OW76563   9.824   9.457  11.162
91575SOL    HW176564   9.771   9.381  11.139
91575SOL    HW276565   9.886   9.423  11.227
91576SOL     OW76566  10.633   3.293   7.559
91576SOL    HW176567  10.628   3.388   7.548
91576SOL    HW276568  10.676   3.280   7.643
91577SOL     OW76569   2.400   2.188   8.984
91577SOL    HW176570   2.305   2.192   8.988
91577SOL    HW276571   2.425   2.129   9.055
91578SOL     OW76572   6.009   5.009   9.322
91578SOL    HW176573   6.099   5.003   9.292
91578SOL    HW276574   5.958   5.028   9.244
91579SOL     OW76575   0.851  11.425  10.730
91579SOL    HW176576   0.791  11.468  10.791
91579SOL    HW276577   0.924  11.395  10.785
91580SOL     OW76578   8.952   2.372   3.937
91580SOL    HW176579   9.027   2.410   3.983
91580SOL    HW276580   8.880   2.431   3.956
91581SOL     OW76581   7.668   7.073   8.939
91581SOL    HW176582   7.595   7.062   9.000
91581SOL    HW276583   7.690   6.984   8.911
91582SOL     OW76584   0.089   4.039   9.611
91582SOL    HW176585  14.874   4.037   9.645
91582SOL    HW276586   0.144   4.045   9.688
91583SOL     OW76587  12.551  13.852  14.653
91583SOL    HW176588  12.484  13.854  14.584
91583SOL    HW276589  12.513  13.905  14.724
91584SOL     OW76590   5.752   9.427  12.922
91584SOL    HW176591   5.780   9.372  12.995
91584SOL    HW276592   5.706   9.500  12.963
91585SOL     OW76593   8.667   7.524   3.731
91585SOL    HW176594   8.643   7.542   3.640
91585SOL    HW276595   8.723   7.447   3.726
91586SOL     OW76596  13.053   1.635   4.905
91586SOL    HW176597  13.014   1.661   4.822
91586SOL    HW276598  13.015   1.695   4.969
91587SOL     OW76599   8.874   1.883   0.501
91587SOL    HW176600   8.859   1.904   0.409
91587SOL    HW276601   8.967   1.903   0.515
91588SOL     OW76602   0.045   6.864   7.111
91588SOL    HW176603  14.836   6.835   7.076
91588SOL    HW276604   0.054   6.955   7.081
91589SOL     OW76605   0.696   7.368  10.174
91589SOL    HW176606   0.778   7.344  10.130
91589SOL    HW276607   0.712   7.350  10.266
91590SOL     OW76608  12.919   5.069  11.295
91590SOL    HW176609  12.919   5.097  11.203
91590SOL    HW276610  13.009   5.043  11.312
91591SOL     OW76611   8.573   7.662  13.140
91591SOL    HW176612   8.643   7.614  13.096
91591SOL    HW276613   8.578   7.750  13.105
91592SOL     OW76614   3.009   2.422  10.702
91592SOL    HW176615   2.974   2.400  10.615
91592SOL    HW276616   3.063   2.500  10.687
91593SOL     OW76617   2.064  12.133   8.519
91593SOL    HW176618   2.135  12.095   8.467
91593SOL    HW276619   2.066  12.086   8.602
91594SOL     OW76620   1.901   9.027   2.621
91594SOL    HW176621   1.852   8.945   2.622
91594SOL    HW276622   1.848   9.086   2.568
91595SOL     OW76623  13.401  10.893   7.766
91595SOL    HW176624  13.322  10.927   7.723
91595SOL    HW276625  13.405  10.939   7.849
91596SOL     OW76626   8.104  11.530   1.207
91596SOL    HW176627   8.016  11.545   1.172
91596SOL    HW276628   8.097  11.556   1.299
91597SOL     OW76629   8.327  13.971   0.170
91597SOL    HW176630   8.320  14.066   0.181
91597SOL    HW276631   8.347  13.938   0.258
91598SOL     OW76632  12.005  12.589  13.206
91598SOL    HW176633  12.093  12.622  13.187
91598SOL    HW276634  12.001  12.504  13.164
91599SOL     OW76635   0.545   4.756   0.497
91599SOL    HW176636   0.618   4.740   0.556
91599SOL    HW276637   0.533   4.673   0.450
91600SOL     OW76638   1.558  12.461   9.275
91600SOL    HW176639   1.491  12.522   9.307
91600SOL    HW276640   1.573  12.488   9.184
91601SOL     OW76641  13.741  11.772  11.744
91601SOL    HW176642  13.827  11.802  11.717
91601SOL    HW276643  13.751  11.747  11.836
91602SOL     OW76644   4.644   6.426  11.178
91602SOL    HW176645   4.578   6.423  11.109
91602SOL    HW276646   4.728   6.426  11.132
91603SOL     OW76647   9.587  10.968   7.252
91603SOL    HW176648   9.633  11.044   7.214
91603SOL    HW276649   9.650  10.930   7.313
91604SOL     OW76650  14.476   9.667   9.992
91604SOL    HW176651  14.508   9.633  10.076
91604SOL    HW276652  14.393   9.623   9.978
91605SOL     OW76653   1.683   6.448  11.935
91605SOL    HW176654   1.759   6.395  11.912
91605SOL    HW276655   1.684   6.521  11.873
91606SOL     OW76656  13.313  12.952   4.885
91606SOL    HW176657  13.263  12.915   4.812
91606SOL    HW276658  13.365  12.878   4.917
91607SOL     OW76659  12.669  10.139   8.189
91607SOL    HW176660  12.692  10.204   8.122
91607SOL    HW276661  12.728  10.066   8.174
91608SOL     OW76662   0.124  12.040   5.007
91608SOL    HW176663   0.206  12.065   5.049
91608SOL    HW276664   0.057  12.089   5.056
91609SOL     OW76665  12.991   4.609   4.477
91609SOL    HW176666  13.028   4.582   4.561
91609SOL    HW276667  13.032   4.550   4.413
91610SOL     OW76668  13.367  14.451   4.427
91610SOL    HW176669  13.380  14.465   4.333
91610SOL    HW276670  13.384  14.537   4.466
91611SOL     OW76671  11.160   0.782   7.047
91611SOL    HW176672  11.183   0.872   7.023
91611SOL    HW276673  11.126   0.788   7.136
91612SOL     OW76674   9.504  13.311   3.000
91612SOL    HW176675   9.590  13.273   3.019
91612SOL    HW276676   9.471  13.339   3.086
91613SOL     OW76677   6.531   6.574  12.400
91613SOL    HW176678   6.574   6.610  12.322
91613SOL    HW276679   6.561   6.483  12.404
91614SOL     OW76680  12.101  13.798   0.738
91614SOL    HW176681  12.179  13.788   0.684
91614SOL    HW276682  12.064  13.882   0.712
91615SOL     OW76683   2.534   5.525   7.010
91615SOL    HW176684   2.552   5.451   6.952
91615SOL    HW276685   2.441   5.517   7.031
91616SOL     OW76686   1.667   5.357   1.433
91616SOL    HW176687   1.648   5.303   1.357
91616SOL    HW276688   1.758   5.336   1.455
91617SOL     OW76689   4.071   7.847  13.642
91617SOL    HW176690   4.156   7.853  13.685
91617SOL    HW276691   4.026   7.776  13.688
91618SOL     OW76692   8.645   3.360   9.026
91618SOL    HW176693   8.610   3.447   9.046
91618SOL    HW276694   8.569   3.303   9.028
91619SOL     OW76695   7.619   9.077  14.245
91619SOL    HW176696   7.526   9.063  14.226
91619SOL    HW276697   7.622   9.084  14.341
91620SOL     OW76698   8.368   5.669   5.809
91620SOL    HW176699   8.436   5.611   5.775
91620SOL    HW276700   8.413   5.722   5.875
91621SOL     OW76701   8.006   7.284   7.800
91621SOL    HW176702   8.085   7.248   7.759
91621SOL    HW276703   8.040   7.346   7.865
91622SOL     OW76704   0.780   4.848  10.725
91622SOL    HW176705   0.794   4.815  10.636
91622SOL    HW276706   0.702   4.903  10.718
91623SOL     OW76707   0.143   0.134   9.244
91623SOL    HW176708   0.102   0.108   9.161
91623SOL    HW276709   0.236   0.116   9.232
91624SOL     OW76710   6.093   3.534   0.837
91624SOL    HW176711   6.042   3.538   0.918
91624SOL    HW276712   6.094   3.624   0.804
91625SOL     OW76713   7.445   4.270  11.462
91625SOL    HW176714   7.451   4.354  11.415
91625SOL    HW276715   7.392   4.215  11.405
91626SOL     OW76716  13.726   6.954   4.160
91626SOL    HW176717  13.632   6.966   4.145
91626SOL    HW276718  13.748   6.875   4.109
91627SOL     OW76719   7.086   8.783   1.259
91627SOL    HW176720   6.992   8.766   1.249
91627SOL    HW276721   7.090   8.870   1.298
91628SOL     OW76722  10.089  14.651   1.394
91628SOL    HW176723  10.062  14.656   1.302
91628SOL    HW276724  10.055  14.566   1.424
91629SOL     OW76725  13.064  11.477   2.666
91629SOL    HW176726  13.123  11.512   2.598
91629SOL    HW276727  12.977  11.485   2.627
91630SOL     OW76728   5.831   8.555   1.979
91630SOL    HW176729   5.824   8.500   1.901
91630SOL    HW276730   5.741   8.582   1.998
91631SOL     OW76731   3.522   7.855  14.528
91631SOL    HW176732   3.465   7.805  14.469
91631SOL    HW276733   3.609   7.851  14.486
91632SOL     OW76734  14.796   6.888  13.470
91632SOL    HW176735  14.860   6.881  13.399
91632SOL    HW276736  14.827   6.960  13.525
91633SOL     OW76737   2.649   0.383  10.935
91633SOL    HW176738   2.663   0.360  11.027
91633SOL    HW276739   2.717   0.336  10.888
91634SOL     OW76740   5.119   9.763   6.312
91634SOL    HW176741   5.186   9.696   6.313
91634SOL    HW276742   5.094   9.774   6.404
91635SOL     OW76743  10.104  11.156  10.818
91635SOL    HW176744  10.137  11.220  10.754
91635SOL    HW276745  10.176  11.094  10.828
91636SOL     OW76746   4.655   0.143  14.421
91636SOL    HW176747   4.704   0.224  14.408
91636SOL    HW276748   4.663   0.097  14.338
91637SOL     OW76749   0.972   0.419   8.639
91637SOL    HW176750   0.937   0.450   8.556
91637SOL    HW276751   0.905   0.359   8.673
91638SOL     OW76752   0.520   3.882   5.756
91638SOL    HW176753   0.611   3.855   5.766
91638SOL    HW276754   0.524   3.972   5.724
91639SOL     OW76755   6.016   5.559   1.434
91639SOL    HW176756   5.959   5.581   1.361
91639SOL    HW276757   6.084   5.503   1.396
91640SOL     OW76758   8.397   4.223   6.211
91640SOL    HW176759   8.487   4.229   6.181
91640SOL    HW276760   8.399   4.257   6.300
91641SOL     OW76761  13.658   5.520  11.935
91641SOL    HW176762  13.580   5.566  11.904
91641SOL    HW276763  13.720   5.589  11.959
91642SOL     OW76764   6.346  14.347  10.076
91642SOL    HW176765   6.376  14.360  10.166
91642SOL    HW276766   6.405  14.401  10.023
91643SOL     OW76767   8.360   6.135   1.290
91643SOL    HW176768   8.437   6.190   1.276
91643SOL    HW276769   8.310   6.180   1.358
91644SOL     OW76770  14.281   3.740  10.870
91644SOL    HW176771  14.248   3.829  10.883
91644SOL    HW276772  14.203   3.685  10.860
91645SOL     OW76773   0.895   5.240  13.355
91645SOL    HW176774   0.892   5.269  13.264
91645SOL    HW276775   0.958   5.298  13.396
91646SOL     OW76776  10.477   7.136   4.165
91646SOL    HW176777  10.529   7.101   4.238
91646SOL    HW276778  10.401   7.175   4.207
91647SOL     OW76779  10.441   2.700   5.402
91647SOL    HW176780  10.512   2.736   5.348
91647SOL    HW276781  10.363   2.750   5.375
91648SOL     OW76782  12.183  10.678  10.938
91648SOL    HW176783  12.209  10.587  10.927
91648SOL    HW276784  12.121  10.677  11.010
91649SOL     OW76785   0.554   0.094   7.632
91649SOL    HW176786   0.509   0.161   7.684
91649SOL    HW276787   0.483   0.049   7.587
91650SOL     OW76788  10.352   7.290   8.964
91650SOL    HW176789  10.402   7.332   8.893
91650SOL    HW276790  10.402   7.310   9.043
91651SOL     OW76791   5.107   8.641   1.290
91651SOL    HW176792   5.051   8.711   1.258
91651SOL    HW276793   5.053   8.594   1.355
91652SOL     OW76794   1.663   3.171   1.905
91652SOL    HW176795   1.638   3.079   1.896
91652SOL    HW276796   1.758   3.171   1.899
91653SOL     OW76797   4.387   1.568  14.671
91653SOL    HW176798   4.324   1.632  14.703
91653SOL    HW276799   4.395   1.504  14.741
91654SOL     OW76800   3.791  12.422   9.394
91654SOL    HW176801   3.825  12.338   9.425
91654SOL    HW276802   3.749  12.402   9.311
91655SOL     OW76803  12.898   8.311  13.230
91655SOL    HW176804  12.888   8.276  13.318
91655SOL    HW276805  12.809   8.321  13.197
91656SOL     OW76806   8.745  11.599  11.357
91656SOL    HW176807   8.657  11.616  11.390
91656SOL    HW276808   8.736  11.599  11.262
91657SOL     OW76809   0.368  10.205   8.478
91657SOL    HW176810   0.409  10.230   8.395
91657SOL    HW276811   0.280  10.176   8.455
91658SOL     OW76812   1.075  11.161   4.384
91658SOL    HW176813   1.080  11.067   4.369
91658SOL    HW276814   0.984  11.184   4.364
91659SOL     OW76815  12.343  12.581   7.583
91659SOL    HW176816  12.328  12.554   7.492
91659SOL    HW276817  12.279  12.531   7.634
91660SOL     OW76818   4.388  11.601  13.386
91660SOL    HW176819   4.459  11.556  13.341
91660SOL    HW276820   4.431  11.660  13.447
91661SOL     OW76821  12.894  10.537   7.352
91661SOL    HW176822  12.985  10.550   7.325
91661SOL    HW276823  12.847  10.611   7.313
91662SOL     OW76824   4.971   7.972   4.435
91662SOL    HW176825   4.990   8.020   4.516
91662SOL    HW276826   4.897   7.915   4.457
91663SOL     OW76827   1.294  14.320  11.121
91663SOL    HW176828   1.205  14.302  11.090
91663SOL    HW276829   1.347  14.250  11.082
91664SOL     OW76830  13.489  14.045  11.138
91664SOL    HW176831  13.575  14.007  11.124
91664SOL    HW276832  13.438  13.975  11.179
91665SOL     OW76833  10.468   1.753   4.368
91665SOL    HW176834  10.522   1.771   4.446
91665SOL    HW276835  10.530   1.756   4.295
91666SOL     OW76836   7.814   1.613   8.423
91666SOL    HW176837   7.778   1.696   8.393
91666SOL    HW276838   7.908   1.627   8.425
91667SOL     OW76839  10.001  12.061   4.195
91667SOL    HW176840   9.952  11.989   4.157
91667SOL    HW276841  10.073  12.019   4.242
91668SOL     OW76842   9.457   5.800  10.255
91668SOL    HW176843   9.395   5.868  10.280
91668SOL    HW276844   9.407   5.740  10.200
91669SOL     OW76845   2.619   6.881  12.214
91669SOL    HW176846   2.613   6.906  12.306
91669SOL    HW276847   2.678   6.946  12.175
91670SOL     OW76848   1.895   7.972   3.899
91670SOL    HW176849   1.874   8.001   3.810
91670SOL    HW276850   1.947   7.893   3.886
91671SOL     OW76851  14.466   0.188   6.051
91671SOL    HW176852  14.520   0.109   6.043
91671SOL    HW276853  14.377   0.155   6.064
91672SOL     OW76854  13.731   2.236   5.767
91672SOL    HW176855  13.690   2.323   5.764
91672SOL    HW276856  13.793   2.242   5.839
91673SOL     OW76857   5.600  11.873  10.918
91673SOL    HW176858   5.675  11.900  10.865
91673SOL    HW276859   5.529  11.930  10.891
91674SOL     OW76860  11.119  11.118   3.535
91674SOL    HW176861  11.157  11.037   3.502
91674SOL    HW276862  11.066  11.092   3.609
91675SOL     OW76863   4.922   2.463   7.464
91675SOL    HW176864   4.828   2.479   7.470
91675SOL    HW276865   4.962   2.550   7.465
91676SOL     OW76866   8.603   5.354   8.967
91676SOL    HW176867   8.631   5.264   8.986
91676SOL    HW276868   8.680   5.395   8.927
91677SOL     OW76869   5.730   3.943   9.481
91677SOL    HW176870   5.797   3.887   9.521
91677SOL    HW276871   5.759   4.032   9.500
91678SOL     OW76872   7.498  14.602   3.239
91678SOL    HW176873   7.523  14.517   3.202
91678SOL    HW276874   7.427  14.633   3.182
91679SOL     OW76875  12.566   7.672   0.196
91679SOL    HW176876  12.491   7.727   0.175
91679SOL    HW276877  12.537   7.620   0.271
91680SOL     OW76878   6.433   4.468   0.586
91680SOL    HW176879   6.497   4.534   0.559
91680SOL    HW276880   6.427   4.479   0.681
91681SOL     OW76881   3.190  10.312  14.485
91681SOL    HW176882   3.115  10.331  14.428
91681SOL    HW276883   3.184  10.219  14.504
91682SOL     OW76884   4.712   5.863   7.135
91682SOL    HW176885   4.633   5.879   7.083
91682SOL    HW276886   4.785   5.880   7.075
91683SOL     OW76887   3.916   9.921  10.095
91683SOL    HW176888   3.982   9.886  10.156
91683SOL    HW276889   3.916   9.860  10.022
91684SOL     OW76890   0.616   6.207   9.495
91684SOL    HW176891   0.651   6.209   9.405
91684SOL    HW276892   0.657   6.281   9.538
91685SOL     OW76893  14.365   3.908  11.192
91685SOL    HW176894  14.383   4.000  11.170
91685SOL    HW276895  14.337   3.868  11.110
91686SOL     OW76896  13.050   1.020   8.458
91686SOL    HW176897  13.068   0.928   8.479
91686SOL    HW276898  12.998   1.052   8.531
91687SOL     OW76899   6.946   2.470   6.631
91687SOL    HW176900   7.010   2.538   6.608
91687SOL    HW276901   6.991   2.417   6.697
91688SOL     OW76902   6.140   1.347   7.466
91688SOL    HW176903   6.210   1.402   7.431
91688SOL    HW276904   6.062   1.401   7.463
91689SOL     OW76905  11.196   5.683  12.439
91689SOL    HW176906  11.169   5.591  12.441
91689SOL    HW276907  11.115   5.732  12.453
91690SOL     OW76908  10.500  12.022  11.288
91690SOL    HW176909  10.589  12.051  11.267
91690SOL    HW276910  10.467  12.088  11.348
91691SOL     OW76911   3.091  11.414   0.197
91691SOL    HW176912   3.085  11.394   0.290
91691SOL    HW276913   3.139  11.340   0.159
91692SOL     OW76914   7.244   2.686  11.067
91692SOL    HW176915   7.246   2.775  11.033
91692SOL    HW276916   7.299   2.688  11.146
91693SOL     OW76917  10.436   3.692  13.003
91693SOL    HW176918  10.426   3.769  12.947
91693SOL    HW276919  10.531   3.681  13.011
91694SOL     OW76920   3.712   7.957   8.153
91694SOL    HW176921   3.771   8.032   8.153
91694SOL    HW276922   3.638   7.983   8.208
91695SOL     OW76923   4.146   7.364   6.541
91695SOL    HW176924   4.166   7.304   6.469
91695SOL    HW276925   4.064   7.331   6.577
91696SOL     OW76926   3.798   5.352  10.523
91696SOL    HW176927   3.853   5.345  10.445
91696SOL    HW276928   3.787   5.446  10.537
91697SOL     OW76929   3.379  10.849  11.355
91697SOL    HW176930   3.375  10.922  11.417
91697SOL    HW276931   3.435  10.881  11.284
91698SOL     OW76932   2.146   2.337   3.534
91698SOL    HW176933   2.096   2.348   3.614
91698SOL    HW276934   2.117   2.409   3.477
91699SOL     OW76935   1.204   3.106   0.451
91699SOL    HW176936   1.262   3.147   0.516
91699SOL    HW276937   1.240   3.131   0.366
91700SOL     OW76938   8.377  11.832  14.382
91700SOL    HW176939   8.437  11.772  14.426
91700SOL    HW276940   8.309  11.776  14.345
91701SOL     OW76941   0.639   7.351   3.722
91701SOL    HW176942   0.582   7.294   3.671
91701SOL    HW276943   0.642   7.311   3.808
91702SOL     OW76944  14.333  13.753  13.109
91702SOL    HW176945  14.289  13.788  13.031
91702SOL    HW276946  14.297  13.665  13.119
91703SOL     OW76947   7.049   9.308   3.607
91703SOL    HW176948   7.079   9.224   3.572
91703SOL    HW276949   7.005   9.350   3.533
91704SOL     OW76950   6.163   6.194   1.951
91704SOL    HW176951   6.178   6.214   2.043
91704SOL    HW276952   6.069   6.176   1.945
91705SOL     OW76953   5.285   5.325  11.823
91705SOL    HW176954   5.190   5.333  11.834
91705SOL    HW276955   5.320   5.343  11.911
91706SOL     OW76956  11.296   9.246  12.329
91706SOL    HW176957  11.377   9.292  12.306
91706SOL    HW276958  11.248   9.307  12.384
91707SOL     OW76959  11.455   8.929   6.797
91707SOL    HW176960  11.533   8.978   6.771
91707SOL    HW276961  11.418   8.980   6.869
91708SOL     OW76962   4.605   5.900  14.126
91708SOL    HW176963   4.684   5.921  14.176
91708SOL    HW276964   4.636   5.894  14.035
91709SOL     OW76965   2.257   2.162   5.193
91709SOL    HW176966   2.176   2.147   5.144
91709SOL    HW276967   2.324   2.113   5.144
91710SOL     OW76968   9.877  11.594  10.027
91710SOL    HW176969   9.833  11.509  10.019
91710SOL    HW276970   9.968  11.571  10.045
91711SOL     OW76971   9.829   2.536   6.653
91711SOL    HW176972   9.796   2.486   6.727
91711SOL    HW276973   9.753   2.549   6.596
91712SOL     OW76974   4.919   0.866   7.028
91712SOL    HW176975   4.887   0.816   7.103
91712SOL    HW276976   4.916   0.804   6.955
91713SOL     OW76977   3.053   4.967   1.825
91713SOL    HW176978   3.117   5.038   1.828
91713SOL    HW276979   2.968   5.010   1.828
91714SOL     OW76980  11.926   8.962   7.694
91714SOL    HW176981  11.948   8.974   7.786
91714SOL    HW276982  11.830   8.967   7.692
91715SOL     OW76983   7.436   2.255  10.601
91715SOL    HW176984   7.345   2.228  10.591
91715SOL    HW276985   7.444   2.277  10.694
91716SOL     OW76986  12.972   9.269   6.631
91716SOL    HW176987  12.878   9.290   6.632
91716SOL    HW276988  12.976   9.176   6.653
91717SOL     OW76989   3.069   4.685   4.667
91717SOL    HW176990   3.162   4.698   4.688
91717SOL    HW276991   3.067   4.678   4.572
91718SOL     OW76992   1.364   1.719  13.071
91718SOL    HW176993   1.395   1.642  13.119
91718SOL    HW276994   1.325   1.684  12.991
91719SOL     OW76995  14.256  10.513  11.598
91719SOL    HW176996  14.188  10.446  11.584
91719SOL    HW276997  14.338  10.465  11.590
91720SOL     OW76998   0.069   6.355   9.165
91720SOL    HW176999   0.078   6.309   9.249
91720SOL    HW277000   0.001   6.420   9.180
91721SOL     OW77001  12.039  12.869  12.094
91721SOL    HW177002  12.123  12.823  12.105
91721SOL    HW277003  12.042  12.900  12.003
91722SOL     OW77004   6.022   6.135  12.489
91722SOL    HW177005   6.084   6.136  12.417
91722SOL    HW277006   6.034   6.220  12.532
91723SOL     OW77007   5.929   4.506  11.732
91723SOL    HW177008   5.999   4.472  11.788
91723SOL    HW277009   5.872   4.554  11.792
91724SOL     OW77010   1.692   2.444  10.650
91724SOL    HW177011   1.654   2.528  10.623
91724SOL    HW277012   1.760   2.427  10.585
91725SOL     OW77013   8.115  10.464   2.502
91725SOL    HW177014   8.114  10.559   2.517
91725SOL    HW277015   8.028  10.435   2.528
91726SOL     OW77016  12.239  13.336   0.604
91726SOL    HW177017  12.178  13.269   0.575
91726SOL    HW277018  12.302  13.290   0.659
91727SOL     OW77019   0.060   5.077   5.801
91727SOL    HW177020   0.103   5.149   5.756
91727SOL    HW277021   0.128   5.009   5.809
91728SOL     OW77022  13.210   7.330   6.453
91728SOL    HW177023  13.168   7.266   6.510
91728SOL    HW277024  13.153   7.336   6.377
91729SOL     OW77025   7.188   7.465   3.270
91729SOL    HW177026   7.161   7.375   3.286
91729SOL    HW277027   7.259   7.481   3.333
91730SOL     OW77028  11.334   1.422   4.421
91730SOL    HW177029  11.403   1.376   4.469
91730SOL    HW277030  11.380   1.489   4.371
91731SOL     OW77031   9.649  13.544   0.525
91731SOL    HW177032   9.591  13.565   0.452
91731SOL    HW277033   9.730  13.514   0.484
91732SOL     OW77034   7.944   8.188   9.874
91732SOL    HW177035   7.903   8.165   9.790
91732SOL    HW277036   8.030   8.147   9.870
91733SOL     OW77037   1.487   0.397   2.166
91733SOL    HW177038   1.479   0.478   2.215
91733SOL    HW277039   1.436   0.412   2.086
91734SOL     OW77040  12.191  14.155  13.764
91734SOL    HW177041  12.145  14.175  13.846
91734SOL    HW277042  12.197  14.059  13.763
91735SOL     OW77043   9.040   4.259  11.855
91735SOL    HW177044   9.088   4.227  11.931
91735SOL    HW277045   8.978   4.188  11.834
91736SOL     OW77046   4.876  13.401   3.504
91736SOL    HW177047   4.847  13.310   3.497
91736SOL    HW277048   4.854  13.426   3.594
91737SOL     OW77049   2.239   1.922   9.574
91737SOL    HW177050   2.293   1.952   9.501
91737SOL    HW277051   2.296   1.863   9.624
91738SOL     OW77052   9.176   8.340  11.970
91738SOL    HW177053   9.168   8.376  11.881
91738SOL    HW277054   9.242   8.271  11.961
91739SOL     OW77055   1.766  14.776   7.174
91739SOL    HW177056   1.847  14.770   7.122
91739SOL    HW277057   1.738  14.685   7.184
91740SOL     OW77058   8.188   8.227  12.395
91740SOL    HW177059   8.116   8.195  12.341
91740SOL    HW277060   8.267   8.200  12.348
91741SOL     OW77061   7.346   6.493  13.940
91741SOL    HW177062   7.278   6.555  13.914
91741SOL    HW277063   7.381   6.529  14.022
91742SOL     OW77064  10.945   2.110  14.058
91742SOL    HW177065  10.963   2.204  14.052
91742SOL    HW277066  10.947   2.080  13.968
91743SOL     OW77067  13.539   3.775  12.435
91743SOL    HW177068  13.501   3.862  12.423
91743SOL    HW277069  13.626   3.791  12.470
91744SOL     OW77070   0.622   1.560  12.927
91744SOL    HW177071   0.685   1.570  12.857
91744SOL    HW277072   0.575   1.644  12.930
91745SOL     OW77073  12.314   6.709  13.880
91745SOL    HW177074  12.232   6.678  13.918
91745SOL    HW277075  12.293   6.796  13.844
91746SOL     OW77076   1.080   8.840   6.478
91746SOL    HW177077   1.120   8.891   6.408
91746SOL    HW277078   1.145   8.772   6.499
91747SOL     OW77079  12.802   6.451   1.542
91747SOL    HW177080  12.802   6.525   1.603
91747SOL    HW277081  12.893   6.440   1.517
91748SOL     OW77082   8.378   7.638   4.616
91748SOL    HW177083   8.427   7.622   4.697
91748SOL    HW277084   8.416   7.717   4.579
91749SOL     OW77085   7.861   5.314  10.842
91749SOL    HW177086   7.812   5.355  10.914
91749SOL    HW277087   7.847   5.220  10.855
91750SOL     OW77088   0.038   8.580   9.361
91750SOL    HW177089   0.129   8.551   9.353
91750SOL    HW277090   0.009   8.547   9.446
91751SOL     OW77091   5.728  11.973  11.657
91751SOL    HW177092   5.709  11.916  11.582
91751SOL    HW277093   5.753  12.056  11.617
91752SOL     OW77094   9.480   8.471   6.605
91752SOL    HW177095   9.399   8.438   6.566
91752SOL    HW277096   9.456   8.490   6.696
91753SOL     OW77097  12.115  11.150   9.215
91753SOL    HW177098  12.063  11.070   9.217
91753SOL    HW277099  12.161  11.152   9.299
91754SOL     OW77100  13.541   3.677   0.510
91754SOL    HW177101  13.608   3.735   0.545
91754SOL    HW277102  13.488   3.733   0.454
91755SOL     OW77103   5.661   1.234  12.280
91755SOL    HW177104   5.585   1.190  12.318
91755SOL    HW277105   5.729   1.166  12.275
91756SOL     OW77106   1.787  12.468   0.758
91756SOL    HW177107   1.824  12.473   0.670
91756SOL    HW277108   1.706  12.518   0.753
91757SOL     OW77109  14.500  13.133  12.009
91757SOL    HW177110  14.523  13.041  11.990
91757SOL    HW277111  14.583  13.180  12.001
91758SOL     OW77112   2.352   4.724   0.164
91758SOL    HW177113   2.333   4.739   0.257
91758SOL    HW277114   2.269   4.742   0.119
91759SOL     OW77115   6.447   5.453   3.999
91759SOL    HW177116   6.522   5.433   4.055
91759SOL    HW277117   6.455   5.547   3.983
91760SOL     OW77118   6.577  12.726  12.356
91760SOL    HW177119   6.615  12.730  12.269
91760SOL    HW277120   6.521  12.804  12.362
91761SOL     OW77121   7.773   0.108  10.811
91761SOL    HW177122   7.848   0.076  10.861
91761SOL    HW277123   7.809   0.178  10.755
91762SOL     OW77124  14.708  13.769   0.031
91762SOL    HW177125  14.768  13.750   0.103
91762SOL    HW277126  14.651  13.692   0.027
91763SOL     OW77127   8.439   4.894   7.637
91763SOL    HW177128   8.375   4.964   7.648
91763SOL    HW277129   8.486   4.916   7.556
91764SOL     OW77130  12.434  11.221  10.532
91764SOL    HW177131  12.378  11.167  10.588
91764SOL    HW277132  12.496  11.160  10.494
91765SOL     OW77133   0.439  14.028   5.278
91765SOL    HW177134   0.355  13.995   5.245
91765SOL    HW277135   0.417  14.072   5.360
91766SOL     OW77136   3.820   9.909  11.673
91766SOL    HW177137   3.878   9.950  11.608
91766SOL    HW277138   3.767   9.848  11.622
91767SOL     OW77139  11.474   0.607  13.559
91767SOL    HW177140  11.461   0.669  13.487
91767SOL    HW277141  11.567   0.613  13.579
91768SOL     OW77142   5.050  10.547   5.747
91768SOL    HW177143   4.973  10.603   5.740
91768SOL    HW277144   5.074  10.528   5.657
91769SOL     OW77145   0.209   0.599  11.237
91769SOL    HW177146   0.151   0.576  11.309
91769SOL    HW277147   0.218   0.518  11.187
91770SOL     OW77148  11.708   6.101   8.679
91770SOL    HW177149  11.722   6.031   8.616
91770SOL    HW277150  11.687   6.055   8.761
91771SOL     OW77151   9.959  13.438   9.421
91771SOL    HW177152   9.898  13.507   9.394
91771SOL    HW277153   9.914  13.357   9.398
91772SOL     OW77154   6.973  12.351   8.780
91772SOL    HW177155   7.067  12.345   8.796
91772SOL    HW277156   6.934  12.297   8.849
91773SOL     OW77157   6.515  10.445   9.008
91773SOL    HW177158   6.597  10.399   8.991
91773SOL    HW277159   6.528  10.486   9.093
91774SOL     OW77160  13.364   3.625  14.362
91774SOL    HW177161  13.389   3.662  14.277
91774SOL    HW277162  13.269   3.631  14.364
91775SOL     OW77163   3.553   0.137   8.026
91775SOL    HW177164   3.587   0.203   8.086
91775SOL    HW277165   3.458   0.137   8.042
91776SOL     OW77166  13.087  11.525   4.835
91776SOL    HW177167  13.150  11.454   4.823
91776SOL    HW277168  13.040  11.530   4.752
91777SOL     OW77169   1.871   9.166   7.866
91777SOL    HW177170   1.809   9.171   7.940
91777SOL    HW277171   1.957   9.180   7.906
91778SOL     OW77172   6.678   5.204   9.865
91778SOL    HW177173   6.696   5.201   9.959
91778SOL    HW277174   6.641   5.291   9.851
91779SOL     OW77175  13.696   6.322   3.699
91779SOL    HW177176  13.735   6.265   3.766
91779SOL    HW277177  13.758   6.318   3.626
91780SOL     OW77178   9.684   6.990  14.188
91780SOL    HW177179   9.703   6.900  14.217
91780SOL    HW277180   9.673   6.983  14.094
91781SOL     OW77181  11.917  11.499   2.203
91781SOL    HW177182  11.891  11.577   2.154
91781SOL    HW277183  11.942  11.436   2.136
91782SOL     OW77184   9.606  10.601   6.277
91782SOL    HW177185   9.689  10.612   6.324
91782SOL    HW277186   9.568  10.521   6.316
91783SOL     OW77187   4.152   2.596   4.263
91783SOL    HW177188   4.160   2.504   4.285
91783SOL    HW277189   4.081   2.600   4.199
91784SOL     OW77190  14.554   6.943  13.337
91784SOL    HW177191  14.593   7.011  13.282
91784SOL    HW277192  14.625   6.913  13.393
91785SOL     OW77193  11.485   0.849  10.663
91785SOL    HW177194  11.397   0.811  10.669
91785SOL    HW277195  11.515   0.852  10.754
91786SOL     OW77196  14.289   5.389   3.690
91786SOL    HW177197  14.270   5.383   3.784
91786SOL    HW277198  14.364   5.331   3.677
91787SOL     OW77199   4.748  14.696   6.841
91787SOL    HW177200   4.704  14.647   6.910
91787SOL    HW277201   4.838  14.662   6.840
91788SOL     OW77202   0.534   2.526   4.859
91788SOL    HW177203   0.499   2.511   4.947
91788SOL    HW277204   0.629   2.518   4.870
91789SOL     OW77205   3.821   4.887   9.216
91789SOL    HW177206   3.821   4.978   9.187
91789SOL    HW277207   3.762   4.886   9.292
91790SOL     OW77208   9.274   3.161   4.586
91790SOL    HW177209   9.336   3.231   4.607
91790SOL    HW277210   9.288   3.094   4.653
91791SOL     OW77211   2.213  11.401   1.363
91791SOL    HW177212   2.215  11.456   1.285
91791SOL    HW277213   2.212  11.312   1.330
91792SOL     OW77214   9.269  11.071  10.740
91792SOL    HW177215   9.244  11.163  10.744
91792SOL    HW277216   9.217  11.035  10.668
91793SOL     OW77217   7.705   4.564   5.668
91793SOL    HW177218   7.623   4.578   5.717
91793SOL    HW277219   7.679   4.568   5.576
91794SOL     OW77220   8.735  11.093   1.420
91794SOL    HW177221   8.669  11.057   1.361
91794SOL    HW277222   8.685  11.128   1.494
91795SOL     OW77223  11.671  12.295  12.306
91795SOL    HW177224  11.740  12.319  12.243
91795SOL    HW277225  11.667  12.199  12.300
91796SOL     OW77226   3.497  12.965   5.962
91796SOL    HW177227   3.466  12.875   5.967
91796SOL    HW277228   3.531  12.984   6.050
91797SOL     OW77229  13.580  10.129  11.401
91797SOL    HW177230  13.638  10.072  11.350
91797SOL    HW277231  13.516  10.069  11.440
91798SOL     OW77232   1.567  13.166   8.637
91798SOL    HW177233   1.482  13.181   8.596
91798SOL    HW277234   1.587  13.248   8.683
91799SOL     OW77235   5.615   4.539  12.796
91799SOL    HW177236   5.638   4.452  12.828
91799SOL    HW277237   5.671   4.598  12.845
91800SOL     OW77238   2.565   5.881   6.214
91800SOL    HW177239   2.478   5.901   6.180
91800SOL    HW277240   2.601   5.818   6.150
91801SOL     OW77241  14.110   8.845   9.595
91801SOL    HW177242  14.070   8.771   9.641
91801SOL    HW277243  14.201   8.818   9.580
91802SOL     OW77244   9.999   0.033   4.115
91802SOL    HW177245  10.027   0.121   4.143
91802SOL    HW277246  10.015   0.032   4.021
91803SOL     OW77247   4.030  12.204   5.866
91803SOL    HW177248   4.109  12.214   5.812
91803SOL    HW277249   3.994  12.293   5.871
91804SOL     OW77250   7.798   1.099  12.049
91804SOL    HW177251   7.722   1.133  12.002
91804SOL    HW277252   7.829   1.027  11.995
91805SOL     OW77253  11.317   2.729  13.109
91805SOL    HW177254  11.232   2.687  13.104
91805SOL    HW277255  11.376   2.670  13.063
91806SOL     OW77256   0.852   7.500   1.939
91806SOL    HW177257   0.772   7.549   1.919
91806SOL    HW277258   0.882   7.467   1.855
91807SOL     OW77259   1.705  14.383   3.595
91807SOL    HW177260   1.652  14.448   3.547
91807SOL    HW277261   1.783  14.373   3.541
91808SOL     OW77262   9.512  14.766   7.384
91808SOL    HW177263   9.588  14.820   7.404
91808SOL    HW277264   9.530  14.681   7.425
91809SOL     OW77265   3.794   1.874   3.697
91809SOL    HW177266   3.867   1.813   3.708
91809SOL    HW277267   3.749   1.844   3.618
91810SOL     OW77268   2.378  12.675   1.298
91810SOL    HW177269   2.290  12.663   1.334
91810SOL    HW277270   2.433  12.696   1.373
91811SOL     OW77271   4.218  10.126   2.431
91811SOL    HW177272   4.143  10.087   2.475
91811SOL    HW277273   4.234  10.208   2.479
91812SOL     OW77274  10.264   0.690  10.051
91812SOL    HW177275  10.173   0.693  10.021
91812SOL    HW277276  10.297   0.778  10.034
91813SOL     OW77277   0.219  11.042   2.977
91813SOL    HW177278   0.241  10.959   2.933
91813SOL    HW277279   0.201  11.102   2.906
91814SOL     OW77280  14.624   4.440   1.272
91814SOL    HW177281  14.547   4.459   1.218
91814SOL    HW277282  14.621   4.345   1.284
91815SOL     OW77283  10.223   6.856   4.535
91815SOL    HW177284  10.169   6.808   4.471
91815SOL    HW277285  10.160   6.906   4.587
91816SOL     OW77286   1.003   7.841   7.354
91816SOL    HW177287   0.915   7.830   7.388
91816SOL    HW277288   1.009   7.935   7.334
91817SOL     OW77289   9.189   5.041   3.313
91817SOL    HW177290   9.221   5.117   3.362
91817SOL    HW277291   9.247   4.969   3.340
91818SOL     OW77292   3.946  12.259  11.354
91818SOL    HW177293   3.943  12.327  11.288
91818SOL    HW277294   3.961  12.306  11.436
91819SOL     OW77295  13.349  12.294   4.598
91819SOL    HW177296  13.265  12.289   4.552
91819SOL    HW277297  13.334  12.247   4.680
91820SOL     OW77298   1.639  10.676  12.275
91820SOL    HW177299   1.560  10.725  12.298
91820SOL    HW277300   1.630  10.593  12.322
91821SOL     OW77301   2.444  10.674  10.329
91821SOL    HW177302   2.486  10.597  10.291
91821SOL    HW277303   2.426  10.649  10.420
91822SOL     OW77304  12.068   7.407   9.457
91822SOL    HW177305  12.155   7.443   9.475
91822SOL    HW277306  12.085   7.333   9.399
91823SOL     OW77307  10.098   1.532   5.461
91823SOL    HW177308  10.129   1.451   5.503
91823SOL    HW277309  10.116   1.601   5.525
91824SOL     OW77310   2.274   2.737   5.688
91824SOL    HW177311   2.276   2.787   5.607
91824SOL    HW277312   2.319   2.793   5.752
91825SOL     OW77313   4.865   1.539   3.324
91825SOL    HW177314   4.792   1.582   3.368
91825SOL    HW277315   4.841   1.447   3.322
91826SOL     OW77316  10.453   9.689  10.130
91826SOL    HW177317  10.516   9.684  10.059
91826SOL    HW277318  10.497   9.742  10.197
91827SOL     OW77319   4.784   9.091   2.182
91827SOL    HW177320   4.706   9.039   2.160
91827SOL    HW277321   4.759   9.181   2.164
91828SOL     OW77322  11.466   2.991   3.354
91828SOL    HW177323  11.447   2.921   3.292
91828SOL    HW277324  11.422   2.964   3.435
91829SOL     OW77325  14.294   3.468   8.621
91829SOL    HW177326  14.332   3.456   8.708
91829SOL    HW277327  14.245   3.388   8.604
91830SOL     OW77328   6.892   4.383  12.638
91830SOL    HW177329   6.803   4.365  12.667
91830SOL    HW277330   6.937   4.414  12.717
91831SOL     OW77331   1.839  14.734  10.511
91831SOL    HW177332   1.846  14.773  10.424
91831SOL    HW277333   1.929  14.714  10.536
91832SOL     OW77334  14.653  13.410   4.623
91832SOL    HW177335  14.623  13.460   4.547
91832SOL    HW277336  14.717  13.349   4.588
91833SOL     OW77337   4.662   8.317   1.583
91833SOL    HW177338   4.608   8.268   1.644
91833SOL    HW277339   4.667   8.405   1.622
91834SOL     OW77340   5.907  10.246   7.092
91834SOL    HW177341   5.890  10.165   7.141
91834SOL    HW277342   5.911  10.218   7.001
91835SOL     OW77343  14.380   2.678   1.289
91835SOL    HW177344  14.400   2.743   1.357
91835SOL    HW277345  14.465   2.659   1.249
91836SOL     OW77346  12.539   8.587   2.006
91836SOL    HW177347  12.457   8.596   2.056
91836SOL    HW277348  12.526   8.507   1.954
91837SOL     OW77349   3.001  12.425   6.389
91837SOL    HW177350   3.069  12.407   6.455
91837SOL    HW277351   3.026  12.509   6.351
91838SOL     OW77352  12.021   4.037   8.419
91838SOL    HW177353  11.976   3.961   8.383
91838SOL    HW277354  12.028   4.019   8.513
91839SOL     OW77355   4.868   2.042   1.582
91839SOL    HW177356   4.963   2.029   1.590
91839SOL    HW277357   4.830   1.977   1.640
91840SOL     OW77358  14.004   2.245   9.015
91840SOL    HW177359  13.998   2.187   9.091
91840SOL    HW277360  14.083   2.216   8.969
91841SOL     OW77361  10.563   1.384   5.516
91841SOL    HW177362  10.522   1.470   5.504
91841SOL    HW277363  10.537   1.357   5.604
91842SOL     OW77364  12.422   9.357   2.818
91842SOL    HW177365  12.354   9.304   2.859
91842SOL    HW277366  12.503   9.310   2.838
91843SOL     OW77367   3.288  10.933  13.320
91843SOL    HW177368   3.215  10.914  13.378
91843SOL    HW277369   3.247  10.972  13.242
91844SOL     OW77370  12.205   2.687   8.030
91844SOL    HW177371  12.122   2.666   8.072
91844SOL    HW277372  12.242   2.757   8.084
91845SOL     OW77373  14.480   4.287  14.258
91845SOL    HW177374  14.541   4.221  14.225
91845SOL    HW277375  14.473   4.268  14.352
91846SOL     OW77376   2.273   9.633  13.974
91846SOL    HW177377   2.289   9.619  14.068
91846SOL    HW277378   2.305   9.554  13.932
91847SOL     OW77379  14.668   1.796   9.945
91847SOL    HW177380  14.751   1.771   9.987
91847SOL    HW277381  14.602   1.744   9.990
91848SOL     OW77382   8.585  14.699  14.515
91848SOL    HW177383   8.594  14.612  14.552
91848SOL    HW277384   8.626  14.693  14.429
91849SOL     OW77385   5.295   4.023   7.701
91849SOL    HW177386   5.342   3.942   7.682
91849SOL    HW277387   5.355   4.093   7.676
91850SOL     OW77388   0.782  12.241  11.057
91850SOL    HW177389   0.738  12.277  10.980
91850SOL    HW277390   0.868  12.212  11.024
91851SOL     OW77391   0.264   0.605   0.195
91851SOL    HW177392   0.194   0.646   0.144
91851SOL    HW277393   0.325   0.676   0.214
91852SOL     OW77394  10.879  13.083   9.015
91852SOL    HW177395  10.888  13.091   9.110
91852SOL    HW277396  10.819  13.153   8.991
91853SOL     OW77397   1.261   1.344  11.115
91853SOL    HW177398   1.192   1.277  11.109
91853SOL    HW277399   1.287   1.342  11.207
91854SOL     OW77400   8.913   2.731   8.293
91854SOL    HW177401   8.933   2.694   8.206
91854SOL    HW277402   8.832   2.780   8.279
91855SOL     OW77403   7.417   7.519   6.429
91855SOL    HW177404   7.383   7.570   6.356
91855SOL    HW277405   7.489   7.468   6.390
91856SOL     OW77406  13.738   6.285   3.131
91856SOL    HW177407  13.706   6.264   3.219
91856SOL    HW277408  13.676   6.350   3.098
91857SOL     OW77409   2.328   5.548  13.848
91857SOL    HW177410   2.402   5.546  13.788
91857SOL    HW277411   2.361   5.594  13.925
91858SOL     OW77412   7.970   4.915  11.930
91858SOL    HW177413   7.897   4.934  11.872
91858SOL    HW277414   7.929   4.872  12.006
91859SOL     OW77415   3.264  13.753   8.289
91859SOL    HW177416   3.225  13.827   8.335
91859SOL    HW277417   3.335  13.791   8.238
91860SOL     OW77418   9.544  12.940   4.811
91860SOL    HW177419   9.502  13.000   4.872
91860SOL    HW277420   9.472  12.904   4.759
91861SOL     OW77421   7.951  13.931   0.929
91861SOL    HW177422   7.912  14.007   0.971
91861SOL    HW277423   7.934  13.944   0.836
91862SOL     OW77424  14.760   1.423  12.872
91862SOL    HW177425  14.710   1.357  12.823
91862SOL    HW277426  14.847   1.420  12.833
91863SOL     OW77427   6.216   6.016   6.954
91863SOL    HW177428   6.296   6.000   6.904
91863SOL    HW277429   6.244   6.016   7.045
91864SOL     OW77430  13.401   8.184  10.019
91864SOL    HW177431  13.427   8.261  10.070
91864SOL    HW277432  13.313   8.206   9.987
91865SOL     OW77433   4.955   8.942   3.270
91865SOL    HW177434   4.873   8.899   3.247
91865SOL    HW277435   5.013   8.869   3.294
91866SOL     OW77436   5.034   1.244  14.530
91866SOL    HW177437   5.124   1.216  14.543
91866SOL    HW277438   5.031   1.272  14.438
91867SOL     OW77439   6.138   3.365   7.698
91867SOL    HW177440   6.168   3.358   7.608
91867SOL    HW277441   6.180   3.445   7.731
91868SOL     OW77442  13.906  11.245  14.504
91868SOL    HW177443  13.897  11.236  14.599
91868SOL    HW277444  13.928  11.337  14.491
91869SOL     OW77445  11.941  13.015   2.507
91869SOL    HW177446  12.000  12.946   2.474
91869SOL    HW277447  11.997  13.092   2.514
91870SOL     OW77448   7.348  14.618   4.354
91870SOL    HW177449   7.328  14.527   4.331
91870SOL    HW277450   7.416  14.644   4.292
91871SOL     OW77451   3.651  14.643   0.495
91871SOL    HW177452   3.621  14.609   0.411
91871SOL    HW277453   3.745  14.655   0.484
91872SOL     OW77454   6.947   1.145  13.018
91872SOL    HW177455   7.017   1.127  12.955
91872SOL    HW277456   6.868   1.157  12.964
91873SOL     OW77457  12.433   3.575   8.872
91873SOL    HW177458  12.359   3.589   8.930
91873SOL    HW277459  12.454   3.662   8.839
91874SOL     OW77460   0.602  12.959  12.263
91874SOL    HW177461   0.528  12.968  12.322
91874SOL    HW277462   0.566  12.973  12.176
91875SOL     OW77463   7.065  11.298   0.782
91875SOL    HW177464   7.112  11.329   0.859
91875SOL    HW277465   7.063  11.373   0.723
91876SOL     OW77466   6.613  13.690  13.190
91876SOL    HW177467   6.588  13.746  13.263
91876SOL    HW277468   6.653  13.749  13.126
91877SOL     OW77469   5.396   6.132   2.389
91877SOL    HW177470   5.369   6.065   2.452
91877SOL    HW277471   5.467   6.179   2.434
91878SOL     OW77472  10.774   3.105  10.516
91878SOL    HW177473  10.804   3.195  10.531
91878SOL    HW277474  10.772   3.097  10.421
91879SOL     OW77475   2.894   9.030   3.321
91879SOL    HW177476   2.977   8.984   3.333
91879SOL    HW277477   2.903   9.073   3.236
91880SOL     OW77478  10.517   3.373   5.086
91880SOL    HW177479  10.561   3.446   5.130
91880SOL    HW277480  10.543   3.296   5.137
91881SOL     OW77481   1.424  13.333   5.967
91881SOL    HW177482   1.440  13.413   5.917
91881SOL    HW277483   1.331  13.315   5.952
91882SOL     OW77484   2.124   0.122   9.292
91882SOL    HW177485   2.054   0.065   9.263
91882SOL    HW277486   2.144   0.176   9.215
91883SOL     OW77487   4.761   1.506  14.723
91883SOL    HW177488   4.845   1.466  14.743
91883SOL    HW277489   4.702   1.432  14.708
91884SOL     OW77490   3.624   1.081   1.260
91884SOL    HW177491   3.568   1.009   1.228
91884SOL    HW277492   3.708   1.066   1.218
91885SOL     OW77493  11.825  10.210  13.325
91885SOL    HW177494  11.817  10.266  13.402
91885SOL    HW277495  11.868  10.131  13.358
91886SOL     OW77496   3.011   3.956  12.467
91886SOL    HW177497   3.017   3.919  12.555
91886SOL    HW277498   3.063   4.036  12.471
91887SOL     OW77499   7.618  11.445   1.137
91887SOL    HW177500   7.687  11.506   1.114
91887SOL    HW277501   7.663  11.374   1.184
91888SOL     OW77502   2.920  12.831   1.732
91888SOL    HW177503   2.859  12.877   1.789
91888SOL    HW277504   2.929  12.744   1.772
91889SOL     OW77505   3.076  10.062  13.294
91889SOL    HW177506   3.093  10.018  13.378
91889SOL    HW277507   3.087   9.992  13.229
91890SOL     OW77508   6.540  11.960   4.311
91890SOL    HW177509   6.495  12.032   4.355
91890SOL    HW277510   6.481  11.937   4.238
91891SOL     OW77511  11.973   3.527  14.683
91891SOL    HW177512  11.946   3.619  14.679
91891SOL    HW277513  11.957   3.502  14.774
91892SOL     OW77514  10.818   0.770   0.069
91892SOL    HW177515  10.868   0.688   0.067
91892SOL    HW277516  10.838   0.812  14.860
91893SOL     OW77517   5.794   7.454   8.221
91893SOL    HW177518   5.841   7.419   8.145
91893SOL    HW277519   5.836   7.538   8.238
91894SOL     OW77520  14.116   5.218   5.317
91894SOL    HW177521  14.023   5.230   5.333
91894SOL    HW277522  14.123   5.127   5.288
91895SOL     OW77523   6.678   7.244   2.952
91895SOL    HW177524   6.724   7.328   2.957
91895SOL    HW277525   6.585   7.268   2.947
91896SOL     OW77526   5.988   2.533   5.797
91896SOL    HW177527   5.944   2.600   5.849
91896SOL    HW277528   6.035   2.479   5.861
91897SOL     OW77529   6.483   6.959   6.946
91897SOL    HW177530   6.515   6.999   7.027
91897SOL    HW277531   6.437   7.031   6.901
91898SOL     OW77532   9.400   4.787   7.496
91898SOL    HW177533   9.312   4.764   7.466
91898SOL    HW277534   9.386   4.848   7.569
91899SOL     OW77535   2.826   1.580   5.350
91899SOL    HW177536   2.879   1.545   5.277
91899SOL    HW277537   2.879   1.562   5.428
91900SOL     OW77538   5.111   4.692   3.555
91900SOL    HW177539   5.125   4.762   3.491
91900SOL    HW277540   5.144   4.613   3.512
91901SOL     OW77541   4.348   7.743  11.789
91901SOL    HW177542   4.288   7.713  11.857
91901SOL    HW277543   4.373   7.664  11.742
91902SOL     OW77544   5.217   7.074   7.360
91902SOL    HW177545   5.206   6.980   7.352
91902SOL    HW277546   5.196   7.093   7.452
91903SOL     OW77547   0.968   9.018  10.113
91903SOL    HW177548   0.971   8.974  10.028
91903SOL    HW277549   0.922   9.100  10.096
91904SOL     OW77550   7.686  10.348  13.432
91904SOL    HW177551   7.693  10.301  13.349
91904SOL    HW277552   7.716  10.286  13.497
91905SOL     OW77553   5.747   2.505   8.704
91905SOL    HW177554   5.842   2.504   8.700
91905SOL    HW277555   5.720   2.422   8.665
91906SOL     OW77556  11.265   6.545   4.241
91906SOL    HW177557  11.322   6.530   4.166
91906SOL    HW277558  11.194   6.482   4.230
91907SOL     OW77559   4.875  12.151  12.336
91907SOL    HW177560   4.942  12.121  12.274
91907SOL    HW277561   4.835  12.071  12.369
91908SOL     OW77562   0.720  10.659   8.767
91908SOL    HW177563   0.812  10.681   8.782
91908SOL    HW277564   0.699  10.597   8.838
91909SOL     OW77565   4.963   1.187   3.793
91909SOL    HW177566   5.027   1.116   3.797
91909SOL    HW277567   4.985   1.235   3.713
91910SOL     OW77568   2.540   2.627   8.448
91910SOL    HW177569   2.448   2.640   8.471
91910SOL    HW277570   2.549   2.532   8.437
91911SOL     OW77571   2.995   5.878  10.983
91911SOL    HW177572   3.081   5.884  10.941
91911SOL    HW277573   2.998   5.796  11.032
91912SOL     OW77574   8.629  12.480   4.905
91912SOL    HW177575   8.633  12.434   4.989
91912SOL    HW277576   8.718  12.475   4.870
91913SOL     OW77577   4.390  11.945   0.299
91913SOL    HW177578   4.305  11.906   0.318
91913SOL    HW277579   4.433  11.951   0.385
91914SOL     OW77580   9.807  12.371   9.887
91914SOL    HW177581   9.816  12.431   9.961
91914SOL    HW277582   9.756  12.298   9.922
91915SOL     OW77583  12.770   4.739   9.522
91915SOL    HW177584  12.762   4.776   9.609
91915SOL    HW277585  12.851   4.687   9.525
91916SOL     OW77586   3.333   0.631   7.583
91916SOL    HW177587   3.273   0.557   7.596
91916SOL    HW277588   3.305   0.694   7.650
91917SOL     OW77589  10.521   2.210   8.854
91917SOL    HW177590  10.547   2.121   8.879
91917SOL    HW277591  10.563   2.224   8.769
91918SOL     OW77592  11.322   4.875   4.379
91918SOL    HW177593  11.267   4.802   4.350
91918SOL    HW277594  11.358   4.847   4.463
91919SOL     OW77595   0.375   8.172  14.358
91919SOL    HW177596   0.371   8.264  14.382
91919SOL    HW277597   0.389   8.126  14.441
91920SOL     OW77598   1.451   7.758   9.690
91920SOL    HW177599   1.491   7.688   9.742
91920SOL    HW277600   1.368   7.721   9.661
91921SOL     OW77601  13.215   0.702  13.452
91921SOL    HW177602  13.160   0.641  13.500
91921SOL    HW277603  13.188   0.691  13.360
91922SOL     OW77604  13.433   1.690   1.050
91922SOL    HW177605  13.462   1.764   0.997
91922SOL    HW277606  13.414   1.728   1.136
91923SOL     OW77607  12.540   8.315   1.920
91923SOL    HW177608  12.536   8.226   1.954
91923SOL    HW277609  12.471   8.319   1.854
91924SOL     OW77610   8.867   4.820  11.644
91924SOL    HW177611   8.884   4.800  11.736
91924SOL    HW277612   8.812   4.748  11.614
91925SOL     OW77613  10.136   8.642   8.835
91925SOL    HW177614  10.140   8.670   8.744
91925SOL    HW277615  10.135   8.723   8.885
91926SOL     OW77616  13.435  13.071   0.974
91926SOL    HW177617  13.454  13.002   1.037
91926SOL    HW277618  13.413  13.147   1.027
91927SOL     OW77619   2.477   9.673   6.649
91927SOL    HW177620   2.521   9.652   6.567
91927SOL    HW277621   2.513   9.758   6.674
91928SOL     OW77622   0.324   3.095   4.157
91928SOL    HW177623   0.404   3.145   4.173
91928SOL    HW277624   0.272   3.149   4.098
91929SOL     OW77625   2.421   2.215   8.594
91929SOL    HW177626   2.337   2.209   8.639
91929SOL    HW277627   2.486   2.203   8.663
91930SOL     OW77628   6.901  14.210  11.916
91930SOL    HW177629   6.949  14.262  11.980
91930SOL    HW277630   6.870  14.273  11.851
91931SOL     OW77631  12.826   1.858   7.683
91931SOL    HW177632  12.802   1.814   7.602
91931SOL    HW277633  12.832   1.788   7.748
91932SOL     OW77634   7.498  14.864   1.057
91932SOL    HW177635   7.576   0.043   1.074
91932SOL    HW277636   7.427   0.037   1.100
91933SOL     OW77637   1.263  13.059   9.634
91933SOL    HW177638   1.255  12.979   9.583
91933SOL    HW277639   1.353  13.088   9.620
91934SOL     OW77640   3.701   2.430  12.837
91934SOL    HW177641   3.735   2.495  12.899
91934SOL    HW277642   3.778   2.401  12.788
91935SOL     OW77643   1.767   6.121  10.207
91935SOL    HW177644   1.855   6.158  10.196
91935SOL    HW277645   1.711   6.174  10.151
91936SOL     OW77646   2.378   9.017  10.230
91936SOL    HW177647   2.373   9.106  10.266
91936SOL    HW277648   2.300   9.009  10.175
91937SOL     OW77649   7.573   6.052   8.121
91937SOL    HW177650   7.591   6.076   8.030
91937SOL    HW277651   7.490   6.005   8.117
91938SOL     OW77652  10.713  12.530   7.231
91938SOL    HW177653  10.676  12.516   7.317
91938SOL    HW277654  10.747  12.445   7.205
91939SOL     OW77655  14.126  10.071  10.101
91939SOL    HW177656  14.068  10.005  10.063
91939SOL    HW277657  14.212  10.052  10.064
91940SOL     OW77658   6.346   6.459  14.303
91940SOL    HW177659   6.302   6.539  14.275
91940SOL    HW277660   6.386   6.424  14.223
91941SOL     OW77661   7.561   2.841  11.262
91941SOL    HW177662   7.630   2.777  11.278
91941SOL    HW277663   7.480   2.790  11.266
91942SOL     OW77664  10.856   8.797  10.392
91942SOL    HW177665  10.831   8.830  10.305
91942SOL    HW277666  10.945   8.831  10.405
91943SOL     OW77667   8.242   8.241  10.785
91943SOL    HW177668   8.148   8.240  10.802
91943SOL    HW277669   8.275   8.162  10.827
91944SOL     OW77670   3.630   7.029   6.489
91944SOL    HW177671   3.725   7.037   6.474
91944SOL    HW277672   3.602   7.119   6.508
91945SOL     OW77673   5.016   3.292  10.278
91945SOL    HW177674   5.091   3.237  10.299
91945SOL    HW277675   5.022   3.306  10.183
91946SOL     OW77676  11.998   8.485  13.959
91946SOL    HW177677  11.919   8.512  13.912
91946SOL    HW277678  11.984   8.392  13.976
91947SOL     OW77679   9.868  13.727   8.613
91947SOL    HW177680   9.791  13.702   8.665
91947SOL    HW277681   9.939  13.733   8.677
91948SOL     OW77682   9.091   3.685  10.121
91948SOL    HW177683   9.050   3.690  10.207
91948SOL    HW277684   9.171   3.635  10.136
91949SOL     OW77685   4.613   2.763   6.897
91949SOL    HW177686   4.537   2.821   6.905
91949SOL    HW277687   4.679   2.803   6.954
91950SOL     OW77688   8.835   2.649  14.767
91950SOL    HW177689   8.814   2.705  14.692
91950SOL    HW277690   8.930   2.658  14.777
91951SOL     OW77691   2.040   3.470   8.425
91951SOL    HW177692   2.101   3.440   8.494
91951SOL    HW277693   1.980   3.528   8.471
91952SOL     OW77694   1.423   9.312   1.728
91952SOL    HW177695   1.517   9.294   1.726
91952SOL    HW277696   1.417   9.403   1.756
91953SOL     OW77697  14.373  11.394   7.431
91953SOL    HW177698  14.284  11.363   7.448
91953SOL    HW277699  14.377  11.405   7.336
91954SOL     OW77700   6.137   7.118  14.287
91954SOL    HW177701   6.231   7.132  14.300
91954SOL    HW277702   6.097   7.200  14.315
91955SOL     OW77703  13.263  11.344   5.249
91955SOL    HW177704  13.292  11.252   5.250
91955SOL    HW277705  13.230  11.359   5.338
91956SOL     OW77706  13.789  14.433   8.676
91956SOL    HW177707  13.709  14.390   8.705
91956SOL    HW277708  13.857  14.399   8.734
91957SOL     OW77709   5.130   4.972   3.094
91957SOL    HW177710   5.172   5.057   3.109
91957SOL    HW277711   5.190   4.909   3.133
91958SOL     OW77712   3.590  10.289   3.383
91958SOL    HW177713   3.671  10.327   3.350
91958SOL    HW277714   3.545  10.256   3.305
91959SOL     OW77715  10.932   8.680  12.748
91959SOL    HW177716  10.893   8.633  12.822
91959SOL    HW277717  10.913   8.772  12.766
91960SOL     OW77718   4.912  10.728  11.833
91960SOL    HW177719   4.971  10.745  11.760
91960SOL    HW277720   4.892  10.814  11.869
91961SOL     OW77721  10.651  10.021   7.526
91961SOL    HW177722  10.645  10.116   7.528
91961SOL    HW277723  10.615   9.992   7.610
91962SOL     OW77724   1.160  11.531   5.491
91962SOL    HW177725   1.140  11.519   5.398
91962SOL    HW277726   1.076  11.526   5.535
91963SOL     OW77727   4.900   9.685   3.993
91963SOL    HW177728   4.994   9.705   3.996
91963SOL    HW277729   4.864   9.725   4.072
91964SOL     OW77730  14.830  11.155   6.478
91964SOL    HW177731  14.851  11.086   6.542
91964SOL    HW277732  14.826  11.235   6.530
91965SOL     OW77733   4.378  14.670   8.340
91965SOL    HW177734   4.389  14.717   8.423
91965SOL    HW277735   4.463  14.629   8.325
91966SOL     OW77736  12.926   1.609   0.292
91966SOL    HW177737  12.863   1.620   0.221
91966SOL    HW277738  12.938   1.514   0.298
91967SOL     OW77739   1.101   5.844   7.238
91967SOL    HW177740   1.109   5.908   7.168
91967SOL    HW277741   1.048   5.774   7.201
91968SOL     OW77742   0.947   7.573   9.562
91968SOL    HW177743   0.888   7.518   9.613
91968SOL    HW277744   0.892   7.642   9.526
91969SOL     OW77745   3.338   1.318   4.329
91969SOL    HW177746   3.297   1.233   4.322
91969SOL    HW277747   3.378   1.319   4.417
91970SOL     OW77748   3.609   2.934   0.715
91970SOL    HW177749   3.653   2.986   0.648
91970SOL    HW277750   3.680   2.900   0.770
91971SOL     OW77751   4.275  10.091  14.068
91971SOL    HW177752   4.281  10.116  14.160
91971SOL    HW277753   4.294  10.171  14.020
91972SOL     OW77754   3.904  14.067   6.090
91972SOL    HW177755   3.816  14.076   6.125
91972SOL    HW277756   3.946  14.001   6.145
91973SOL     OW77757   6.668   2.562  14.356
91973SOL    HW177758   6.740   2.531  14.410
91973SOL    HW277759   6.684   2.656  14.346
91974SOL     OW77760   1.021   2.587   0.122
91974SOL    HW177761   1.064   2.542   0.050
91974SOL    HW277762   0.999   2.518   0.184
91975SOL     OW77763  11.904   0.654   6.741
91975SOL    HW177764  11.971   0.625   6.804
91975SOL    HW277765  11.835   0.588   6.747
91976SOL     OW77766   1.178  14.420   4.554
91976SOL    HW177767   1.117  14.466   4.612
91976SOL    HW277768   1.224  14.489   4.507
91977SOL     OW77769   0.127  13.827   6.338
91977SOL    HW177770   0.207  13.821   6.389
91977SOL    HW277771   0.151  13.791   6.252
91978SOL     OW77772  11.971   5.952  13.945
91978SOL    HW177773  11.945   5.913  14.028
91978SOL    HW277774  11.981   6.046  13.964
91979SOL     OW77775  11.930  13.926  11.775
91979SOL    HW177776  11.874  13.927  11.697
91979SOL    HW277777  11.949  13.833  11.790
91980SOL     OW77778   0.899  11.461   9.005
91980SOL    HW177779   0.926  11.482   9.094
91980SOL    HW277780   0.825  11.400   9.016
91981SOL     OW77781   2.342   4.446  11.955
91981SOL    HW177782   2.263   4.409  11.914
91981SOL    HW277783   2.311   4.523  12.002
91982SOL     OW77784   2.732   8.587  13.333
91982SOL    HW177785   2.742   8.595  13.427
91982SOL    HW277786   2.673   8.659  13.309
91983SOL     OW77787  12.345   4.551   0.280
91983SOL    HW177788  12.322   4.571   0.189
91983SOL    HW277789  12.366   4.458   0.280
91984SOL     OW77790   5.411   9.085   9.517
91984SOL    HW177791   5.386   9.130   9.436
91984SOL    HW277792   5.370   8.999   9.511
91985SOL     OW77793  12.028  11.187   0.598
91985SOL    HW177794  12.038  11.137   0.517
91985SOL    HW277795  12.011  11.121   0.665
91986SOL     OW77796   1.057  14.838   5.641
91986SOL    HW177797   1.048   0.013   5.723
91986SOL    HW277798   1.142  14.794   5.648
91987SOL     OW77799   7.324   5.994  13.144
91987SOL    HW177800   7.397   5.933  13.152
91987SOL    HW277801   7.317   6.011  13.050
91988SOL     OW77802  13.995   9.740  13.070
91988SOL    HW177803  14.072   9.696  13.034
91988SOL    HW277804  13.921   9.701  13.023
91989SOL     OW77805   0.402   8.868  10.765
91989SOL    HW177806   0.358   8.898  10.845
91989SOL    HW277807   0.331   8.861  10.700
91990SOL     OW77808   4.207   3.841   5.452
91990SOL    HW177809   4.129   3.806   5.410
91990SOL    HW277810   4.191   3.830   5.546
91991SOL     OW77811  13.580   1.739  10.368
91991SOL    HW177812  13.601   1.646  10.373
91991SOL    HW277813  13.661   1.781  10.339
91992SOL     OW77814   9.185   5.804   0.753
91992SOL    HW177815   9.198   5.720   0.795
91992SOL    HW277816   9.184   5.784   0.659
91993SOL     OW77817  12.196  14.517   0.393
91993SOL    HW177818  12.263  14.457   0.360
91993SOL    HW277819  12.139  14.533   0.318
91994SOL     OW77820   4.656  10.739   2.237
91994SOL    HW177821   4.728  10.684   2.267
91994SOL    HW277822   4.648  10.720   2.143
91995SOL     OW77823   0.930   9.455   1.942
91995SOL    HW177824   0.917   9.467   1.848
91995SOL    HW277825   0.900   9.536   1.981
91996SOL     OW77826   0.686   5.818  14.358
91996SOL    HW177827   0.626   5.785  14.424
91996SOL    HW277828   0.699   5.910  14.381
91997SOL     OW77829  10.934   8.215   7.773
91997SOL    HW177830  10.988   8.160   7.829
91997SOL    HW277831  10.907   8.288   7.829
91998SOL     OW77832  10.917   2.203  10.186
91998SOL    HW177833  10.822   2.218  10.184
91998SOL    HW277834  10.931   2.134  10.122
91999SOL     OW77835   6.310   3.746   4.284
91999SOL    HW177836   6.373   3.811   4.314
91999SOL    HW277837   6.352   3.662   4.301
92000SOL     OW77838   3.339   5.159  14.654
92000SOL    HW177839   3.363   5.199  14.738
92000SOL    HW277840   3.419   5.116  14.625
92001SOL     OW77841   1.596   1.371   2.564
92001SOL    HW177842   1.649   1.384   2.642
92001SOL    HW277843   1.635   1.295   2.520
92002SOL     OW77844  10.182   4.597   5.623
92002SOL    HW177845  10.234   4.673   5.647
92002SOL    HW277846  10.093   4.630   5.615
92003SOL     OW77847   2.006   4.305  14.398
92003SOL    HW177848   2.003   4.308  14.494
92003SOL    HW277849   1.915   4.316  14.371
92004SOL     OW77850   5.665   0.402  14.183
92004SOL    HW177851   5.748   0.419  14.139
92004SOL    HW277852   5.679   0.320  14.229
92005SOL     OW77853   6.135   2.930   1.199
92005SOL    HW177854   6.173   2.884   1.124
92005SOL    HW277855   6.208   2.942   1.259
92006SOL     OW77856  10.258   4.116   5.497
92006SOL    HW177857  10.259   4.210   5.512
92006SOL    HW277858  10.222   4.080   5.578
92007SOL     OW77859   6.954   0.979   9.925
92007SOL    HW177860   6.957   0.986   9.830
92007SOL    HW277861   6.896   0.904   9.942
92008SOL     OW77862   2.928  13.129  13.823
92008SOL    HW177863   2.850  13.074  13.818
92008SOL    HW277864   2.925  13.183  13.743
92009SOL     OW77865  11.990   2.404   9.830
92009SOL    HW177866  11.895   2.399   9.830
92009SOL    HW277867  12.014   2.403   9.923
92010SOL     OW77868   4.619  12.918  12.862
92010SOL    HW177869   4.625  12.969  12.943
92010SOL    HW277870   4.549  12.855  12.879
92011SOL     OW77871  12.477  10.480   1.075
92011SOL    HW177872  12.403  10.448   1.024
92011SOL    HW277873  12.553  10.434   1.040
92012SOL     OW77874   5.914   7.138   4.023
92012SOL    HW177875   5.928   7.163   4.114
92012SOL    HW277876   5.916   7.221   3.975
92013SOL     OW77877   7.239   9.511   1.266
92013SOL    HW177878   7.273   9.446   1.204
92013SOL    HW277879   7.265   9.478   1.352
92014SOL     OW77880   1.655   3.279  11.180
92014SOL    HW177881   1.743   3.288  11.215
92014SOL    HW277882   1.623   3.368  11.170
92015SOL     OW77883   7.737  12.949  14.830
92015SOL    HW177884   7.815  12.899  14.803
92015SOL    HW277885   7.688  12.888   0.011
92016SOL     OW77886   7.670   8.769   3.432
92016SOL    HW177887   7.710   8.700   3.379
92016SOL    HW277888   7.578   8.742   3.441
92017SOL     OW77889   1.940   8.296   4.561
92017SOL    HW177890   1.871   8.271   4.499
92017SOL    HW277891   1.903   8.369   4.610
92018SOL     OW77892   4.799   1.841   4.249
92018SOL    HW177893   4.757   1.866   4.331
92018SOL    HW277894   4.839   1.922   4.217
92019SOL     OW77895   8.085   6.041  13.241
92019SOL    HW177896   8.090   6.136  13.232
92019SOL    HW277897   8.127   6.022  13.325
92020SOL     OW77898  13.570   9.467   6.551
92020SOL    HW177899  13.576   9.464   6.647
92020SOL    HW277900  13.552   9.559   6.531
92021SOL     OW77901   5.963  13.702   8.753
92021SOL    HW177902   5.880  13.677   8.795
92021SOL    HW277903   5.956  13.797   8.741
92022SOL     OW77904  12.231   6.194  14.192
92022SOL    HW177905  12.235   6.258  14.264
92022SOL    HW277906  12.137   6.185  14.174
92023SOL     OW77907   2.426   4.706   1.867
92023SOL    HW177908   2.490   4.703   1.796
92023SOL    HW277909   2.475   4.739   1.942
92024SOL     OW77910   8.235   6.479   7.591
92024SOL    HW177911   8.291   6.480   7.669
92024SOL    HW277912   8.217   6.572   7.573
92025SOL     OW77913   8.328   2.471   1.399
92025SOL    HW177914   8.280   2.552   1.418
92025SOL    HW277915   8.263   2.402   1.413
92026SOL     OW77916   9.456   2.596   2.873
92026SOL    HW177917   9.367   2.560   2.878
92026SOL    HW277918   9.450   2.663   2.803
92027SOL     OW77919  13.922   2.561   1.665
92027SOL    HW177920  13.890   2.588   1.579
92027SOL    HW277921  14.008   2.523   1.647
92028SOL     OW77922   9.504   1.846  12.280
92028SOL    HW177923   9.430   1.832  12.339
92028SOL    HW277924   9.580   1.852  12.338
92029SOL     OW77925   0.261   1.586   8.658
92029SOL    HW177926   0.309   1.592   8.576
92029SOL    HW277927   0.170   1.572   8.631
92030SOL     OW77928  14.797   7.627  10.018
92030SOL    HW177929  14.863   7.691   9.993
92030SOL    HW277930  14.765   7.656  10.103
92031SOL     OW77931   2.110   0.966   2.093
92031SOL    HW177932   2.161   0.988   2.015
92031SOL    HW277933   2.115   1.045   2.147
92032SOL     OW77934   4.835  12.370   4.101
92032SOL    HW177935   4.810  12.336   4.015
92032SOL    HW277936   4.753  12.383   4.147
92033SOL     OW77937   4.045  13.152   1.180
92033SOL    HW177938   4.046  13.137   1.274
92033SOL    HW277939   4.038  13.247   1.171
92034SOL     OW77940   1.747   7.582   6.513
92034SOL    HW177941   1.745   7.636   6.592
92034SOL    HW277942   1.738   7.492   6.544
92035SOL     OW77943   6.238  10.903  10.125
92035SOL    HW177944   6.280  10.989  10.121
92035SOL    HW277945   6.309  10.842  10.146
92036SOL     OW77946   1.455  12.578   5.688
92036SOL    HW177947   1.503  12.532   5.620
92036SOL    HW277948   1.364  12.578   5.659
92037SOL     OW77949   2.366  10.601  12.158
92037SOL    HW177950   2.311  10.678  12.164
92037SOL    HW277951   2.383  10.589  12.065
92038SOL     OW77952   5.829   6.973  10.454
92038SOL    HW177953   5.798   6.884  10.471
92038SOL    HW277954   5.916   6.976  10.493
92039SOL     OW77955   5.313  10.064  10.962
92039SOL    HW177956   5.310  10.063  10.866
92039SOL    HW277957   5.262   9.988  10.988
92040SOL     OW77958   7.166   0.766  12.484
92040SOL    HW177959   7.197   0.752  12.394
92040SOL    HW277960   7.246   0.776  12.535
92041SOL     OW77961   7.579  13.958   3.643
92041SOL    HW177962   7.615  13.996   3.563
92041SOL    HW277963   7.487  13.984   3.643
92042SOL     OW77964   6.390   9.245  11.480
92042SOL    HW177965   6.461   9.181  11.472
92042SOL    HW277966   6.316   9.194  11.514
92043SOL     OW77967   8.773   7.781   3.821
92043SOL    HW177968   8.865   7.770   3.795
92043SOL    HW277969   8.733   7.696   3.803
92044SOL     OW77970   5.020   7.147  10.392
92044SOL    HW177971   5.008   7.099  10.474
92044SOL    HW277972   5.029   7.238  10.419
92045SOL     OW77973   1.996   6.781   6.270
92045SOL    HW177974   1.949   6.707   6.231
92045SOL    HW277975   2.021   6.750   6.357
92046SOL     OW77976  11.187   9.651   4.624
92046SOL    HW177977  11.245   9.693   4.561
92046SOL    HW277978  11.111   9.623   4.572
92047SOL     OW77979  10.180   7.626   8.064
92047SOL    HW177980  10.235   7.639   7.986
92047SOL    HW277981  10.090   7.631   8.032
92048SOL     OW77982  12.259  11.557   0.870
92048SOL    HW177983  12.318  11.498   0.824
92048SOL    HW277984  12.173  11.540   0.832
92049SOL     OW77985  12.937  13.769  12.004
92049SOL    HW177986  13.022  13.766  12.047
92049SOL    HW277987  12.940  13.699  11.938
92050SOL     OW77988  14.704   6.163   3.663
92050SOL    HW177989  14.610   6.154   3.671
92050SOL    HW277990  14.735   6.166   3.754
92051SOL     OW77991   9.163   7.531  11.202
92051SOL    HW177992   9.125   7.619  11.209
92051SOL    HW277993   9.217   7.522  11.280
92052SOL     OW77994   0.757  11.636  11.284
92052SOL    HW177995   0.711  11.642  11.201
92052SOL    HW277996   0.751  11.543  11.308
92053SOL     OW77997  14.201  13.552  13.742
92053SOL    HW177998  14.207  13.575  13.834
92053SOL    HW277999  14.286  13.577  13.705
92054SOL     OW78000   8.765   6.117   8.144
92054SOL    HW178001   8.707   6.193   8.145
92054SOL    HW278002   8.813   6.125   8.061
92055SOL     OW78003   2.513   3.289   7.189
92055SOL    HW178004   2.451   3.360   7.171
92055SOL    HW278005   2.476   3.213   7.142
92056SOL     OW78006   6.502  12.463   0.739
92056SOL    HW178007   6.517  12.418   0.656
92056SOL    HW278008   6.580  12.443   0.792
92057SOL     OW78009   9.543  11.226   3.533
92057SOL    HW178010   9.553  11.219   3.438
92057SOL    HW278011   9.452  11.252   3.546
92058SOL     OW78012   2.653   4.584  13.039
92058SOL    HW178013   2.615   4.668  13.013
92058SOL    HW278014   2.685   4.599  13.128
92059SOL     OW78015   2.304   9.929   1.251
92059SOL    HW178016   2.286   9.870   1.178
92059SOL    HW278017   2.337  10.009   1.211
92060SOL     OW78018   6.287   8.617   4.125
92060SOL    HW178019   6.367   8.599   4.076
92060SOL    HW278020   6.234   8.538   4.115
92061SOL     OW78021   8.862  10.237  13.182
92061SOL    HW178022   8.957  10.248  13.191
92061SOL    HW278023   8.838  10.175  13.251
92062SOL     OW78024   4.930  11.702   7.439
92062SOL    HW178025   4.856  11.651   7.472
92062SOL    HW278026   4.996  11.637   7.416
92063SOL     OW78027  11.670   2.585   0.812
92063SOL    HW178028  11.604   2.522   0.839
92063SOL    HW278029  11.747   2.564   0.866
92064SOL     OW78030  13.262   0.559   6.135
92064SOL    HW178031  13.312   0.585   6.212
92064SOL    HW278032  13.223   0.640   6.102
92065SOL     OW78033   5.739   0.794   4.440
92065SOL    HW178034   5.695   0.757   4.363
92065SOL    HW278035   5.690   0.874   4.459
92066SOL     OW78036   9.103   3.671  13.734
92066SOL    HW178037   9.016   3.706  13.756
92066SOL    HW278038   9.095   3.577  13.745
92067SOL     OW78039   5.259  13.536   2.223
92067SOL    HW178040   5.254  13.577   2.137
92067SOL    HW278041   5.199  13.587   2.278
92068SOL     OW78042  10.225   9.433   9.416
92068SOL    HW178043  10.238   9.340   9.398
92068SOL    HW278044  10.140   9.454   9.378
92069SOL     OW78045   7.986  10.854   3.926
92069SOL    HW178046   8.052  10.785   3.935
92069SOL    HW278047   7.924  10.820   3.862
92070SOL     OW78048   5.222  11.695   1.256
92070SOL    HW178049   5.188  11.774   1.214
92070SOL    HW278050   5.188  11.623   1.203
92071SOL     OW78051   0.890   3.447   9.971
92071SOL    HW178052   0.940   3.472   9.894
92071SOL    HW278053   0.800   3.474   9.951
92072SOL     OW78054   2.032   6.858  12.546
92072SOL    HW178055   2.059   6.922  12.612
92072SOL    HW278056   2.105   6.855  12.484
92073SOL     OW78057   6.664  10.853  11.606
92073SOL    HW178058   6.681  10.825  11.516
92073SOL    HW278059   6.750  10.874  11.642
92074SOL     OW78060   4.939  12.462   6.445
92074SOL    HW178061   4.878  12.443   6.516
92074SOL    HW278062   4.913  12.549   6.414
92075SOL     OW78063   9.838   3.263   0.366
92075SOL    HW178064   9.882   3.182   0.394
92075SOL    HW278065   9.773   3.280   0.434
92076SOL     OW78066   7.032   1.897   9.718
92076SOL    HW178067   7.059   1.899   9.626
92076SOL    HW278068   7.001   1.808   9.732
92077SOL     OW78069   6.024   6.302   6.013
92077SOL    HW178070   6.118   6.305   6.033
92077SOL    HW278071   6.008   6.381   5.961
92078SOL     OW78072  14.715  13.273  14.414
92078SOL    HW178073  14.686  13.292  14.503
92078SOL    HW278074  14.696  13.353  14.365
92079SOL     OW78075  14.640   6.094   4.520
92079SOL    HW178076  14.610   6.101   4.610
92079SOL    HW278077  14.715   6.034   4.525
92080SOL     OW78078   0.947   9.963   3.485
92080SOL    HW178079   0.858   9.981   3.455
92080SOL    HW278080   1.003   9.988   3.412
92081SOL     OW78081  14.487   4.197   6.002
92081SOL    HW178082  14.503   4.239   5.918
92081SOL    HW278083  14.466   4.270   6.061
92082SOL     OW78084   1.637  11.065  12.406
92082SOL    HW178085   1.702  11.068  12.477
92082SOL    HW278086   1.689  11.073  12.326
92083SOL     OW78087   6.440  10.424   0.055
92083SOL    HW178088   6.509  10.487   0.072
92083SOL    HW278089   6.359  10.473   0.068
92084SOL     OW78090  10.330   9.987   6.708
92084SOL    HW178091  10.258   9.987   6.772
92084SOL    HW278092  10.379   9.907   6.728
92085SOL     OW78093   8.316   6.333   5.241
92085SOL    HW178094   8.310   6.358   5.333
92085SOL    HW278095   8.235   6.284   5.224
92086SOL     OW78096   3.565  12.888  11.989
92086SOL    HW178097   3.613  12.944  12.049
92086SOL    HW278098   3.630  12.862  11.923
92087SOL     OW78099   5.927   2.185   4.449
92087SOL    HW178100   5.944   2.199   4.542
92087SOL    HW278101   5.857   2.120   4.446
92088SOL     OW78102   6.403  11.181   5.472
92088SOL    HW178103   6.348  11.158   5.398
92088SOL    HW278104   6.412  11.099   5.522
92089SOL     OW78105   4.307   1.896   7.859
92089SOL    HW178106   4.331   1.812   7.898
92089SOL    HW278107   4.235   1.875   7.799
92090SOL     OW78108   5.856   9.995  13.234
92090SOL    HW178109   5.916  10.039  13.174
92090SOL    HW278110   5.769  10.020  13.203
92091SOL     OW78111   9.817   1.784   3.574
92091SOL    HW178112   9.792   1.837   3.498
92091SOL    HW278113   9.756   1.810   3.643
92092SOL     OW78114  11.485  10.081   5.383
92092SOL    HW178115  11.525  10.104   5.467
92092SOL    HW278116  11.391  10.081   5.400
92093SOL     OW78117   3.174   6.833   3.835
92093SOL    HW178118   3.225   6.816   3.756
92093SOL    HW278119   3.139   6.747   3.860
92094SOL     OW78120   7.899  12.201   4.795
92094SOL    HW178121   7.970  12.254   4.760
92094SOL    HW278122   7.884  12.235   4.883
92095SOL     OW78123   0.705  10.716  14.116
92095SOL    HW178124   0.630  10.690  14.169
92095SOL    HW278125   0.743  10.634  14.086
92096SOL     OW78126   0.460  12.923  13.274
92096SOL    HW178127   0.375  12.918  13.232
92096SOL    HW278128   0.459  13.006  13.322
92097SOL     OW78129   7.689   4.105   1.263
92097SOL    HW178130   7.649   4.042   1.202
92097SOL    HW278131   7.633   4.101   1.340
92098SOL     OW78132   1.122   6.671  11.528
92098SOL    HW178133   1.039   6.680  11.481
92098SOL    HW278134   1.120   6.581  11.562
92099SOL     OW78135   0.027  12.313  12.595
92099SOL    HW178136   0.048  12.250  12.663
92099SOL    HW278137   0.070  12.394  12.623
92100SOL     OW78138   3.726  14.776  13.540
92100SOL    HW178139   3.734  14.846  13.474
92100SOL    HW278140   3.768  14.700  13.500
92101SOL     OW78141   2.968   1.112   8.277
92101SOL    HW178142   2.885   1.147   8.312
92101SOL    HW278143   3.032   1.180   8.297
92102SOL     OW78144   5.815   4.449   8.832
92102SOL    HW178145   5.751   4.511   8.866
92102SOL    HW278146   5.838   4.482   8.745
92103SOL     OW78147   0.538   8.970   6.296
92103SOL    HW178148   0.592   9.031   6.245
92103SOL    HW278149   0.578   8.970   6.383
92104SOL     OW78150   3.299   4.868  12.211
92104SOL    HW178151   3.343   4.802  12.264
92104SOL    HW278152   3.220   4.825  12.179
92105SOL     OW78153  11.864  13.762  13.314
92105SOL    HW178154  11.866  13.678  13.268
92105SOL    HW278155  11.785  13.805  13.281
92106SOL     OW78156  11.136   9.044  10.837
92106SOL    HW178157  11.133   9.121  10.894
92106SOL    HW278158  11.228   9.021  10.831
92107SOL     OW78159   6.578  14.279   1.860
92107SOL    HW178160   6.645  14.275   1.929
92107SOL    HW278161   6.614  14.341   1.797
92108SOL     OW78162   5.409  12.765  14.357
92108SOL    HW178163   5.504  12.757  14.351
92108SOL    HW278164   5.395  12.856  14.382
92109SOL     OW78165   5.182   4.769  10.974
92109SOL    HW178166   5.275   4.791  10.972
92109SOL    HW278167   5.142   4.838  11.028
92110SOL     OW78168  12.886  12.367  13.669
92110SOL    HW178169  12.972  12.406  13.652
92110SOL    HW278170  12.833  12.395  13.595
92111SOL     OW78171   6.568   2.854   2.876
92111SOL    HW178172   6.556   2.917   2.947
92111SOL    HW278173   6.507   2.784   2.895
92112SOL     OW78174   2.624   8.993  13.774
92112SOL    HW178175   2.564   8.965  13.843
92112SOL    HW278176   2.708   9.006  13.818
92113SOL     OW78177  10.460   5.316   4.716
92113SOL    HW178178  10.391   5.278   4.770
92113SOL    HW278179  10.446   5.411   4.723
92114SOL     OW78180   6.053   1.730   8.802
92114SOL    HW178181   6.145   1.704   8.792
92114SOL    HW278182   6.031   1.704   8.892
92115SOL     OW78183   8.849  13.803  13.689
92115SOL    HW178184   8.820  13.770  13.604
92115SOL    HW278185   8.937  13.767  13.699
92116SOL     OW78186  10.213   1.379   2.697
92116SOL    HW178187  10.175   1.291   2.691
92116SOL    HW278188  10.223   1.406   2.606
92117SOL     OW78189   5.793  11.801   7.284
92117SOL    HW178190   5.871  11.745   7.291
92117SOL    HW278191   5.740  11.777   7.359
92118SOL     OW78192   3.335   2.253   1.420
92118SOL    HW178193   3.350   2.347   1.433
92118SOL    HW278194   3.423   2.218   1.401
92119SOL     OW78195   4.199  10.062   0.660
92119SOL    HW178196   4.236   9.999   0.598
92119SOL    HW278197   4.267  10.129   0.669
92120SOL     OW78198   3.564   3.857   4.152
92120SOL    HW178199   3.469   3.845   4.162
92120SOL    HW278200   3.596   3.866   4.241
92121SOL     OW78201  13.269   8.775   4.083
92121SOL    HW178202  13.346   8.748   4.132
92121SOL    HW278203  13.264   8.712   4.011
92122SOL     OW78204   4.782   2.502   9.880
92122SOL    HW178205   4.771   2.524   9.788
92122SOL    HW278206   4.775   2.406   9.883
92123SOL     OW78207   3.434  12.340   2.917
92123SOL    HW178208   3.426  12.391   2.836
92123SOL    HW278209   3.527  12.341   2.937
92124SOL     OW78210   6.264   3.390  11.953
92124SOL    HW178211   6.325   3.407  12.025
92124SOL    HW278212   6.181   3.427  11.984
92125SOL     OW78213   2.752  14.755  14.421
92125SOL    HW178214   2.692  14.795  14.485
92125SOL    HW278215   2.758  14.818  14.350
92126SOL     OW78216   5.322   1.478   5.777
92126SOL    HW178217   5.240   1.454   5.819
92126SOL    HW278218   5.302   1.479   5.684
92127SOL     OW78219   3.072   9.967   1.232
92127SOL    HW178220   3.089  10.024   1.156
92127SOL    HW278221   2.994   9.917   1.207
92128SOL     OW78222   2.431   3.626   8.728
92128SOL    HW178223   2.393   3.682   8.660
92128SOL    HW278224   2.514   3.597   8.690
92129SOL     OW78225  14.791   8.959  10.744
92129SOL    HW178226  14.816   8.896  10.811
92129SOL    HW278227  14.837   8.930  10.665
92130SOL     OW78228  12.085   3.227  14.033
92130SOL    HW178229  12.058   3.287  14.102
92130SOL    HW278230  12.084   3.140  14.074
92131SOL     OW78231   0.628   6.212   4.410
92131SOL    HW178232   0.607   6.124   4.441
92131SOL    HW278233   0.586   6.271   4.473
92132SOL     OW78234  12.780  14.581   3.520
92132SOL    HW178235  12.738  14.604   3.603
92132SOL    HW278236  12.833  14.658   3.499
92133SOL     OW78237   4.283   3.903   9.419
92133SOL    HW178238   4.265   3.931   9.330
92133SOL    HW278239   4.250   3.814   9.424
92134SOL     OW78240   1.379   7.082  14.372
92134SOL    HW178241   1.319   7.043  14.308
92134SOL    HW278242   1.412   7.008  14.422
92135SOL     OW78243   0.434   0.140   5.285
92135SOL    HW178244   0.396   0.058   5.314
92135SOL    HW278245   0.377   0.208   5.320
92136SOL     OW78246  10.160   2.361   5.303
92136SOL    HW178247  10.175   2.270   5.278
92136SOL    HW278248  10.241   2.388   5.346
92137SOL     OW78249  12.693   0.221   6.382
92137SOL    HW178250  12.615   0.219   6.326
92137SOL    HW278251  12.749   0.152   6.347
92138SOL     OW78252  11.315   2.622   2.382
92138SOL    HW178253  11.291   2.587   2.468
92138SOL    HW278254  11.313   2.546   2.324
92139SOL     OW78255  13.767   6.739  14.278
92139SOL    HW178256  13.699   6.807  14.288
92139SOL    HW278257  13.742   6.671  14.340
92140SOL     OW78258   3.049  14.608   5.437
92140SOL    HW178259   3.104  14.602   5.359
92140SOL    HW278260   3.080  14.537   5.493
92141SOL     OW78261   0.427  12.055   0.754
92141SOL    HW178262   0.360  12.023   0.815
92141SOL    HW278263   0.496  12.089   0.811
92142SOL     OW78264  12.554   3.465  10.221
92142SOL    HW178265  12.504   3.412  10.160
92142SOL    HW278266  12.535   3.427  10.307
92143SOL     OW78267   0.019   2.050   8.243
92143SOL    HW178268  14.804   2.030   8.272
92143SOL    HW278269   0.047   2.121   8.300
92144SOL     OW78270   5.203   5.431   4.059
92144SOL    HW178271   5.271   5.477   4.010
92144SOL    HW278272   5.127   5.431   4.001
92145SOL     OW78273  10.427   5.519  14.447
92145SOL    HW178274  10.492   5.459  14.409
92145SOL    HW278275  10.469   5.605  14.446
92146SOL     OW78276  11.913   7.243   3.223
92146SOL    HW178277  12.000   7.211   3.246
92146SOL    HW278278  11.920   7.265   3.130
92147SOL     OW78279   9.427   6.104   9.856
92147SOL    HW178280   9.473   6.108   9.772
92147SOL    HW278281   9.335   6.113   9.833
92148SOL     OW78282  14.500  13.137  10.067
92148SOL    HW178283  14.415  13.116  10.105
92148SOL    HW278284  14.488  13.224  10.029
92149SOL     OW78285   5.004  10.047  12.539
92149SOL    HW178286   4.939  10.082  12.479
92149SOL    HW278287   4.956   9.984  12.594
92150SOL     OW78288   5.778   0.913   9.343
92150SOL    HW178289   5.824   0.848   9.290
92150SOL    HW278290   5.845   0.977   9.365
92151SOL     OW78291  11.237  14.764   8.745
92151SOL    HW178292  11.222  14.736   8.835
92151SOL    HW278293  11.330  14.746   8.729
92152SOL     OW78294  14.145   8.232   5.280
92152SOL    HW178295  14.138   8.185   5.197
92152SOL    HW278296  14.112   8.171   5.345
92153SOL     OW78297   4.745  11.447  12.360
92153SOL    HW178298   4.655  11.430  12.385
92153SOL    HW278299   4.749  11.543  12.350
92154SOL     OW78300   6.613   1.707   0.374
92154SOL    HW178301   6.642   1.742   0.290
92154SOL    HW278302   6.525   1.673   0.356
92155SOL     OW78303   3.430  13.780   1.019
92155SOL    HW178304   3.342  13.817   1.008
92155SOL    HW278305   3.467  13.829   1.093
92156SOL     OW78306   3.422   1.031  11.452
92156SOL    HW178307   3.509   1.017  11.413
92156SOL    HW278308   3.362   0.986  11.392
92157SOL     OW78309   6.443   0.327  14.036
92157SOL    HW178310   6.352   0.354  14.027
92157SOL    HW278311   6.478   0.385  14.104
92158SOL     OW78312   0.638   8.547  10.649
92158SOL    HW178313   0.709   8.562  10.712
92158SOL    HW278314   0.561   8.584  10.692
92159SOL     OW78315   9.219  10.097   5.640
92159SOL    HW178316   9.144  10.091   5.700
92159SOL    HW278317   9.187  10.153   5.569
92160SOL     OW78318  11.223   9.737  12.558
92160SOL    HW178319  11.130   9.738  12.580
92160SOL    HW278320  11.262   9.802  12.616
92161SOL     OW78321   2.891   0.852   4.141
92161SOL    HW178322   2.957   0.852   4.210
92161SOL    HW278323   2.808   0.860   4.187
92162SOL     OW78324  11.123   0.228  13.707
92162SOL    HW178325  11.169   0.152  13.742
92162SOL    HW278326  11.053   0.245  13.770
92163SOL     OW78327   7.381   3.223  11.097
92163SOL    HW178328   7.310   3.239  11.160
92163SOL    HW278329   7.455   3.196  11.151
92164SOL     OW78330  10.985   6.386  14.007
92164SOL    HW178331  10.909   6.359  14.059
92164SOL    HW278332  10.977   6.338  13.925
92165SOL     OW78333   0.022   9.858  13.900
92165SOL    HW178334  14.863   9.878  13.812
92165SOL    HW278335  14.834   9.902  13.959
92166SOL     OW78336   8.836   3.757   3.644
92166SOL    HW178337   8.776   3.831   3.652
92166SOL    HW278338   8.782   3.680   3.666
92167SOL     OW78339  13.402   8.989   2.467
92167SOL    HW178340  13.367   8.941   2.392
92167SOL    HW278341  13.341   8.970   2.538
92168SOL     OW78342   1.561   9.397   0.285
92168SOL    HW178343   1.532   9.348   0.362
92168SOL    HW278344   1.616   9.466   0.320
92169SOL     OW78345  12.075  13.712  11.860
92169SOL    HW178346  12.151  13.659  11.836
92169SOL    HW278347  12.057  13.687  11.951
92170SOL     OW78348   7.774   6.081  11.458
92170SOL    HW178349   7.741   6.067  11.547
92170SOL    HW278350   7.843   6.016  11.447
92171SOL     OW78351   7.429   0.983   6.064
92171SOL    HW178352   7.360   1.050   6.066
92171SOL    HW278353   7.420   0.942   5.979
92172SOL     OW78354   0.159   7.115   9.924
92172SOL    HW178355   0.091   7.091   9.987
92172SOL    HW278356   0.144   7.058   9.849
92173SOL     OW78357  11.219  11.030  11.073
92173SOL    HW178358  11.210  10.944  11.032
92173SOL    HW278359  11.239  11.090  11.000
92174SOL     OW78360   7.579   7.164   7.555
92174SOL    HW178361   7.656   7.140   7.608
92174SOL    HW278362   7.540   7.080   7.530
92175SOL     OW78363   6.666   5.779  10.637
92175SOL    HW178364   6.617   5.814  10.563
92175SOL    HW278365   6.708   5.700  10.603
92176SOL     OW78366   3.126   1.577   3.945
92176SOL    HW178367   3.081   1.660   3.932
92176SOL    HW278368   3.137   1.541   3.857
92177SOL     OW78369   1.811  13.930   3.234
92177SOL    HW178370   1.901  13.960   3.222
92177SOL    HW278371   1.815  13.873   3.311
92178SOL     OW78372   2.336   3.695   8.207
92178SOL    HW178373   2.388   3.684   8.127
92178SOL    HW278374   2.280   3.770   8.188
92179SOL     OW78375  13.817  12.891   1.466
92179SOL    HW178376  13.751  12.936   1.412
92179SOL    HW278377  13.780  12.894   1.554
92180SOL     OW78378   8.694  14.521   7.192
92180SOL    HW178379   8.671  14.437   7.231
92180SOL    HW278380   8.741  14.500   7.112
92181SOL     OW78381  13.966  10.318   6.809
92181SOL    HW178382  14.019  10.253   6.854
92181SOL    HW278383  13.921  10.269   6.740
92182SOL     OW78384   3.156   0.217   4.401
92182SOL    HW178385   3.085   0.198   4.462
92182SOL    HW278386   3.235   0.194   4.450
92183SOL     OW78387   7.920  11.874   9.639
92183SOL    HW178388   7.927  11.871   9.543
92183SOL    HW278389   7.832  11.840   9.657
92184SOL     OW78390   2.554  14.322   4.954
92184SOL    HW178391   2.645  14.329   4.925
92184SOL    HW278392   2.506  14.384   4.899
92185SOL     OW78393   4.664   7.664   6.438
92185SOL    HW178394   4.660   7.578   6.480
92185SOL    HW278395   4.595   7.661   6.371
92186SOL     OW78396  12.095  12.705   3.677
92186SOL    HW178397  12.151  12.705   3.755
92186SOL    HW278398  12.008  12.727   3.711
92187SOL     OW78399  10.231   2.153  10.414
92187SOL    HW178400  10.216   2.229  10.357
92187SOL    HW278401  10.144   2.128  10.445
92188SOL     OW78402   3.148  14.159  11.089
92188SOL    HW178403   3.164  14.248  11.058
92188SOL    HW278404   3.203  14.150  11.167
92189SOL     OW78405   8.189  14.261   1.661
92189SOL    HW178406   8.198  14.184   1.604
92189SOL    HW278407   8.095  14.280   1.661
92190SOL     OW78408   9.897   0.135   4.414
92190SOL    HW178409   9.917   0.042   4.423
92190SOL    HW278410   9.966   0.179   4.464
92191SOL     OW78411  13.084   1.002   7.921
92191SOL    HW178412  13.144   0.970   7.988
92191SOL    HW278413  13.062   0.924   7.869
92192SOL     OW78414   3.746   6.938   9.218
92192SOL    HW178415   3.818   6.959   9.159
92192SOL    HW278416   3.682   6.893   9.164
92193SOL     OW78417  12.081   7.568   1.048
92193SOL    HW178418  12.099   7.511   0.973
92193SOL    HW278419  11.994   7.602   1.032
92194SOL     OW78420   3.948   1.052   1.399
92194SOL    HW178421   3.974   0.961   1.382
92194SOL    HW278422   4.006   1.104   1.343
92195SOL     OW78423   6.442   6.550  11.144
92195SOL    HW178424   6.446   6.574  11.051
92195SOL    HW278425   6.532   6.562  11.175
92196SOL     OW78426  14.447  11.660   0.929
92196SOL    HW178427  14.538  11.631   0.926
92196SOL    HW278428  14.403  11.609   0.861
92197SOL     OW78429  10.261   5.900   8.811
92197SOL    HW178430  10.207   5.929   8.738
92197SOL    HW278431  10.334   5.961   8.813
92198SOL     OW78432  10.818  12.703  11.673
92198SOL    HW178433  10.843  12.613  11.654
92198SOL    HW278434  10.748  12.722  11.610
92199SOL     OW78435   7.536   6.602   3.697
92199SOL    HW178436   7.506   6.693   3.701
92199SOL    HW278437   7.579   6.587   3.781
92200SOL     OW78438   7.625   6.825   5.476
92200SOL    HW178439   7.589   6.745   5.439
92200SOL    HW278440   7.582   6.833   5.561
92201SOL     OW78441   7.288   2.548   8.546
92201SOL    HW178442   7.277   2.468   8.495
92201SOL    HW278443   7.210   2.553   8.601
92202SOL     OW78444   9.298   0.636  13.533
92202SOL    HW178445   9.237   0.587  13.587
92202SOL    HW278446   9.370   0.575  13.516
92203SOL     OW78447   0.662   9.782   5.731
92203SOL    HW178448   0.604   9.762   5.804
92203SOL    HW278449   0.603   9.793   5.656
92204SOL     OW78450   5.889   0.569   4.669
92204SOL    HW178451   5.925   0.657   4.660
92204SOL    HW278452   5.903   0.547   4.761
92205SOL     OW78453  14.734   4.700   0.448
92205SOL    HW178454  14.656   4.645   0.454
92205SOL    HW278455  14.781   4.667   0.371
92206SOL     OW78456   9.291   2.334   2.797
92206SOL    HW178457   9.228   2.266   2.822
92206SOL    HW278458   9.279   2.403   2.862
92207SOL     OW78459  11.067  13.922   1.440
92207SOL    HW178460  10.981  13.918   1.397
92207SOL    HW278461  11.097  13.832   1.443
92208SOL     OW78462  12.119   0.194   7.179
92208SOL    HW178463  12.118   0.290   7.180
92208SOL    HW278464  12.054   0.171   7.113
92209SOL     OW78465  14.299   8.249  12.699
92209SOL    HW178466  14.228   8.284  12.647
92209SOL    HW278467  14.267   8.164  12.730
92210SOL     OW78468   7.770   2.180  10.292
92210SOL    HW178469   7.765   2.141  10.379
92210SOL    HW278470   7.756   2.273  10.306
92211SOL     OW78471   3.733   4.129   4.368
92211SOL    HW178472   3.730   4.197   4.435
92211SOL    HW278473   3.826   4.106   4.363
92212SOL     OW78474   6.807   4.832  13.054
92212SOL    HW178475   6.831   4.821  12.962
92212SOL    HW278476   6.767   4.920  13.058
92213SOL     OW78477   6.674   7.394   4.122
92213SOL    HW178478   6.766   7.420   4.118
92213SOL    HW278479   6.639   7.443   4.197
92214SOL     OW78480   6.769  13.623   7.660
92214SOL    HW178481   6.700  13.667   7.710
92214SOL    HW278482   6.846  13.630   7.715
92215SOL     OW78483   2.356   9.089   1.049
92215SOL    HW178484   2.435   9.084   1.103
92215SOL    HW278485   2.334   9.182   1.047
92216SOL     OW78486  13.470   0.537  13.507
92216SOL    HW178487  13.392   0.563  13.459
92216SOL    HW278488  13.436   0.491  13.584
92217SOL     OW78489  12.733   0.182   8.511
92217SOL    HW178490  12.655   0.128   8.524
92217SOL    HW278491  12.722   0.255   8.571
92218SOL     OW78492  10.591   0.829   9.882
92218SOL    HW178493  10.549   0.841   9.967
92218SOL    HW278494  10.653   0.901   9.875
92219SOL     OW78495   6.703   4.519   8.976
92219SOL    HW178496   6.751   4.593   8.939
92219SOL    HW278497   6.764   4.481   9.039
92220SOL     OW78498  10.513  14.871  12.469
92220SOL    HW178499  10.541   0.011  12.378
92220SOL    HW278500  10.569   0.056  12.520
92221SOL     OW78501  11.598   0.908   6.193
92221SOL    HW178502  11.633   0.844   6.132
92221SOL    HW278503  11.503   0.892   6.193
92222SOL     OW78504   2.447   1.297  10.347
92222SOL    HW178505   2.468   1.269  10.258
92222SOL    HW278506   2.362   1.340  10.339
92223SOL     OW78507  11.616   7.784  10.803
92223SOL    HW178508  11.674   7.713  10.832
92223SOL    HW278509  11.676   7.853  10.775
92224SOL     OW78510  14.123   2.371   6.007
92224SOL    HW178511  14.094   2.440   6.067
92224SOL    HW278512  14.217   2.386   5.997
92225SOL     OW78513   4.455   5.988   0.835
92225SOL    HW178514   4.452   6.063   0.774
92225SOL    HW278515   4.453   5.911   0.778
92226SOL     OW78516   7.504   2.354  13.224
92226SOL    HW178517   7.469   2.332  13.138
92226SOL    HW278518   7.598   2.368  13.209
92227SOL     OW78519   8.037  12.092  13.125
92227SOL    HW178520   7.945  12.065  13.128
92227SOL    HW278521   8.085  12.011  13.105
92228SOL     OW78522   5.664  11.764   8.066
92228SOL    HW178523   5.569  11.774   8.071
92228SOL    HW278524   5.680  11.672   8.085
92229SOL     OW78525   9.181   3.467   4.127
92229SOL    HW178526   9.100   3.489   4.082
92229SOL    HW278527   9.248   3.469   4.059
92230SOL     OW78528   9.709  12.105   5.334
92230SOL    HW178529   9.792  12.061   5.318
92230SOL    HW278530   9.643  12.036   5.328
92231SOL     OW78531  12.439   2.772   0.793
92231SOL    HW178532  12.493   2.819   0.856
92231SOL    HW278533  12.351   2.775   0.830
92232SOL     OW78534  11.432  14.585   5.877
92232SOL    HW178535  11.484  14.592   5.797
92232SOL    HW278536  11.496  14.562   5.945
92233SOL     OW78537   0.857  10.444  11.537
92233SOL    HW178538   0.914  10.441  11.460
92233SOL    HW278539   0.845  10.538  11.554
92234SOL     OW78540   6.424  14.119  12.996
92234SOL    HW178541   6.464  14.206  13.008
92234SOL    HW278542   6.405  14.089  13.084
92235SOL     OW78543   0.714   4.118   5.851
92235SOL    HW178544   0.744   4.048   5.909
92235SOL    HW278545   0.664   4.177   5.908
92236SOL     OW78546  12.766   0.465   3.065
92236SOL    HW178547  12.713   0.541   3.090
92236SOL    HW278548  12.806   0.490   2.982
92237SOL     OW78549   0.871  14.106   2.394
92237SOL    HW178550   0.856  14.096   2.300
92237SOL    HW278551   0.893  14.198   2.405
92238SOL     OW78552   3.095  12.340   7.936
92238SOL    HW178553   3.132  12.409   7.880
92238SOL    HW278554   3.046  12.387   8.003
92239SOL     OW78555   7.018   2.772  13.940
92239SOL    HW178556   6.973   2.839  13.992
92239SOL    HW278557   6.993   2.690  13.982
92240SOL     OW78558   0.191  12.519   2.946
92240SOL    HW178559   0.256  12.474   2.893
92240SOL    HW278560   0.209  12.612   2.932
92241SOL     OW78561   5.756   9.557   1.119
92241SOL    HW178562   5.829   9.600   1.074
92241SOL    HW278563   5.699   9.629   1.145
92242SOL     OW78564   0.028  12.636   4.024
92242SOL    HW178565   0.124  12.639   4.022
92242SOL    HW278566   0.004  12.599   3.939
92243SOL     OW78567   4.525   9.439   3.384
92243SOL    HW178568   4.450   9.498   3.374
92243SOL    HW278569   4.530   9.392   3.301
92244SOL     OW78570   9.841   9.555   1.884
92244SOL    HW178571   9.849   9.634   1.939
92244SOL    HW278572   9.747   9.538   1.881
92245SOL     OW78573   1.631   1.055   9.265
92245SOL    HW178574   1.703   1.115   9.248
92245SOL    HW278575   1.556   1.112   9.284
92246SOL     OW78576   2.816  12.312   5.205
92246SOL    HW178577   2.887  12.310   5.141
92246SOL    HW278578   2.825  12.231   5.254
92247SOL     OW78579   3.336  14.722   2.747
92247SOL    HW178580   3.242  14.734   2.763
92247SOL    HW278581   3.343  14.634   2.710
92248SOL     OW78582   6.097   7.549  12.415
92248SOL    HW178583   6.176   7.593  12.382
92248SOL    HW278584   6.120   7.522  12.503
92249SOL     OW78585  13.583   4.568   6.617
92249SOL    HW178586  13.648   4.518   6.666
92249SOL    HW278587  13.630   4.645   6.586
92250SOL     OW78588   6.753   4.271  13.304
92250SOL    HW178589   6.751   4.331  13.378
92250SOL    HW278590   6.845   4.267  13.279
92251SOL     OW78591   5.973   6.260   5.137
92251SOL    HW178592   5.988   6.332   5.198
92251SOL    HW278593   6.012   6.290   5.055
92252SOL     OW78594   0.000   8.335   2.229
92252SOL    HW178595  14.828   8.270   2.175
92252SOL    HW278596   0.000   8.415   2.177
92253SOL     OW78597   6.826  10.796   8.964
92253SOL    HW178598   6.843  10.761   8.876
92253SOL    HW278599   6.866  10.732   9.023
92254SOL     OW78600  10.971   4.646   5.622
92254SOL    HW178601  11.033   4.576   5.642
92254SOL    HW278602  11.013   4.696   5.552
92255SOL     OW78603   2.872   5.480   3.275
92255SOL    HW178604   2.933   5.543   3.313
92255SOL    HW278605   2.796   5.532   3.248
92256SOL     OW78606   6.850  13.316  10.423
92256SOL    HW178607   6.831  13.315  10.517
92256SOL    HW278608   6.922  13.379  10.413
92257SOL     OW78609   4.358  12.616  11.471
92257SOL    HW178610   4.339  12.691  11.414
92257SOL    HW278611   4.379  12.545  11.410
92258SOL     OW78612  11.148   3.561   9.263
92258SOL    HW178613  11.093   3.517   9.198
92258SOL    HW278614  11.231   3.574   9.218
92259SOL     OW78615   6.377   2.245   0.460
92259SOL    HW178616   6.292   2.229   0.501
92259SOL    HW278617   6.403   2.332   0.492
92260SOL     OW78618  13.612  14.386   6.478
92260SOL    HW178619  13.564  14.365   6.398
92260SOL    HW278620  13.568  14.464   6.512
92261SOL     OW78621   7.700   4.734   1.905
92261SOL    HW178622   7.637   4.661   1.911
92261SOL    HW278623   7.699   4.773   1.992
92262SOL     OW78624   9.545   1.696   7.815
92262SOL    HW178625   9.563   1.752   7.741
92262SOL    HW278626   9.515   1.614   7.776
92263SOL     OW78627   4.273   4.724   4.873
92263SOL    HW178628   4.296   4.740   4.781
92263SOL    HW278629   4.178   4.733   4.875
92264SOL     OW78630   1.803   1.601   6.021
92264SOL    HW178631   1.751   1.524   5.997
92264SOL    HW278632   1.760   1.674   5.977
92265SOL     OW78633   7.121   9.903   3.469
92265SOL    HW178634   7.162   9.872   3.389
92265SOL    HW278635   7.179   9.974   3.499
92266SOL     OW78636   5.650  12.302   2.237
92266SOL    HW178637   5.582  12.366   2.217
92266SOL    HW278638   5.624  12.265   2.321
92267SOL     OW78639   1.413   3.682   5.036
92267SOL    HW178640   1.340   3.695   5.097
92267SOL    HW278641   1.417   3.764   4.986
92268SOL     OW78642   7.275   3.758   8.548
92268SOL    HW178643   7.329   3.766   8.626
92268SOL    HW278644   7.188   3.787   8.576
92269SOL     OW78645  11.699   5.185   7.963
92269SOL    HW178646  11.781   5.203   8.010
92269SOL    HW278647  11.669   5.101   7.998
92270SOL     OW78648  11.813   8.253   0.303
92270SOL    HW178649  11.790   8.318   0.369
92270SOL    HW278650  11.753   8.270   0.230
92271SOL     OW78651  10.186  13.102   3.968
92271SOL    HW178652  10.168  13.116   3.875
92271SOL    HW278653  10.153  13.181   4.012
92272SOL     OW78654  14.782   8.890  12.286
92272SOL    HW178655   0.000   8.871  12.270
92272SOL    HW278656  14.778   8.916  12.378
92273SOL     OW78657  10.674  14.818  13.964
92273SOL    HW178658  10.762  14.790  13.940
92273SOL    HW278659  10.628  14.738  13.986
92274SOL     OW78660  11.853   3.179  14.716
92274SOL    HW178661  11.833   3.264  14.754
92274SOL    HW278662  11.877   3.198  14.625
92275SOL     OW78663  12.345   0.728   3.143
92275SOL    HW178664  12.296   0.805   3.114
92275SOL    HW278665  12.277   0.665   3.167
92276SOL     OW78666   3.931   1.197   9.618
92276SOL    HW178667   3.923   1.215   9.525
92276SOL    HW278668   3.940   1.102   9.623
92277SOL     OW78669   3.844  12.016   2.602
92277SOL    HW178670   3.881  11.958   2.669
92277SOL    HW278671   3.767  12.054   2.642
92278SOL     OW78672   8.832   1.211   1.848
92278SOL    HW178673   8.903   1.152   1.875
92278SOL    HW278674   8.865   1.299   1.868
92279SOL     OW78675  11.284   3.297  11.521
92279SOL    HW178676  11.379   3.287  11.518
92279SOL    HW278677  11.260   3.271  11.610
92280SOL     OW78678  13.920   2.837   3.685
92280SOL    HW178679  13.964   2.904   3.631
92280SOL    HW278680  13.990   2.800   3.739
92281SOL     OW78681  10.670   4.071   7.389
92281SOL    HW178682  10.596   4.055   7.330
92281SOL    HW278683  10.636   4.129   7.457
92282SOL     OW78684   5.679   7.728   0.767
92282SOL    HW178685   5.753   7.679   0.731
92282SOL    HW278686   5.716   7.773   0.843
92283SOL     OW78687   8.684   6.812   4.753
92283SOL    HW178688   8.623   6.739   4.742
92283SOL    HW278689   8.713   6.806   4.843
92284SOL     OW78690   1.201   9.942   4.527
92284SOL    HW178691   1.257   9.887   4.472
92284SOL    HW278692   1.261   9.988   4.584
92285SOL     OW78693   2.010   0.610   9.601
92285SOL    HW178694   2.021   0.629   9.508
92285SOL    HW278695   1.935   0.550   9.605
92286SOL     OW78696  14.277  13.488   7.926
92286SOL    HW178697  14.334  13.469   8.001
92286SOL    HW278698  14.328  13.459   7.850
92287SOL     OW78699   0.762   4.033   1.935
92287SOL    HW178700   0.806   3.957   1.896
92287SOL    HW278701   0.675   4.001   1.960
92288SOL     OW78702  13.839  12.837   7.993
92288SOL    HW178703  13.894  12.915   7.997
92288SOL    HW278704  13.859  12.789   8.074
92289SOL     OW78705   5.630   7.129   4.254
92289SOL    HW178706   5.703   7.072   4.280
92289SOL    HW278707   5.611   7.104   4.164
92290SOL     OW78708   7.219  12.051   4.253
92290SOL    HW178709   7.190  12.139   4.228
92290SOL    HW278710   7.166  12.029   4.330
92291SOL     OW78711   8.205  10.451  12.958
92291SOL    HW178712   8.200  10.436  13.052
92291SOL    HW278713   8.129  10.406  12.922
92292SOL     OW78714   0.557  12.243   1.447
92292SOL    HW178715   0.592  12.210   1.364
92292SOL    HW278716   0.588  12.333   1.452
92293SOL     OW78717   0.258   1.803   9.344
92293SOL    HW178718   0.210   1.728   9.378
92293SOL    HW278719   0.348   1.789   9.375
92294SOL     OW78720  12.307   5.673  14.077
92294SOL    HW178721  12.336   5.626  14.155
92294SOL    HW278722  12.278   5.758  14.110
92295SOL     OW78723   9.377   6.415   3.314
92295SOL    HW178724   9.383   6.322   3.338
92295SOL    HW278725   9.362   6.414   3.219
92296SOL     OW78726  11.776  10.461   9.185
92296SOL    HW178727  11.771  10.397   9.114
92296SOL    HW278728  11.770  10.409   9.265
92297SOL     OW78729   4.707   6.471   3.692
92297SOL    HW178730   4.655   6.467   3.773
92297SOL    HW278731   4.685   6.555   3.653
92298SOL     OW78732   7.065   4.182   3.151
92298SOL    HW178733   7.060   4.088   3.141
92298SOL    HW278734   7.106   4.214   3.071
92299SOL     OW78735   2.901   4.366  12.177
92299SOL    HW178736   2.814   4.346  12.212
92299SOL    HW278737   2.889   4.447  12.127
92300SOL     OW78738  10.912   6.432   1.051
92300SOL    HW178739  10.986   6.480   1.087
92300SOL    HW278740  10.857   6.498   1.010
92301SOL     OW78741  13.629   5.716   1.265
92301SOL    HW178742  13.670   5.801   1.248
92301SOL    HW278743  13.663   5.659   1.196
92302SOL     OW78744  14.319  12.910   0.939
92302SOL    HW178745  14.374  12.877   1.011
92302SOL    HW278746  14.236  12.933   0.980
92303SOL     OW78747  10.622  12.279   8.798
92303SOL    HW178748  10.604  12.339   8.870
92303SOL    HW278749  10.619  12.334   8.719
92304SOL     OW78750   4.325   6.407  10.700
92304SOL    HW178751   4.392   6.339  10.710
92304SOL    HW278752   4.266   6.373  10.633
92305SOL     OW78753   8.924  13.067  12.983
92305SOL    HW178754   8.968  13.151  12.993
92305SOL    HW278755   8.841  13.087  12.940
92306SOL     OW78756   6.131  10.224  13.760
92306SOL    HW178757   6.125  10.269  13.844
92306SOL    HW278758   6.201  10.160  13.773
92307SOL     OW78759  12.250   5.475   5.369
92307SOL    HW178760  12.210   5.408   5.425
92307SOL    HW278761  12.243   5.555   5.420
92308SOL     OW78762   9.176  13.702  14.068
92308SOL    HW178763   9.111  13.772  14.056
92308SOL    HW278764   9.125  13.621  14.064
92309SOL     OW78765   6.099   4.529   7.313
92309SOL    HW178766   6.026   4.467   7.319
92309SOL    HW278767   6.110   4.545   7.219
92310SOL     OW78768   8.726   3.506  14.395
92310SOL    HW178769   8.793   3.487  14.330
92310SOL    HW278770   8.771   3.496  14.479
92311SOL     OW78771   5.057   9.203   0.248
92311SOL    HW178772   4.976   9.151   0.247
92311SOL    HW278773   5.108   9.166   0.320
92312SOL     OW78774   2.393  11.089  12.565
92312SOL    HW178775   2.467  11.135  12.605
92312SOL    HW278776   2.330  11.158  12.543
92313SOL     OW78777  12.181   0.279  12.753
92313SOL    HW178778  12.099   0.243  12.721
92313SOL    HW278779  12.248   0.220  12.719
92314SOL     OW78780  12.995   0.953   5.225
92314SOL    HW178781  12.929   1.009   5.265
92314SOL    HW278782  12.990   0.871   5.274
92315SOL     OW78783   9.178  13.490   3.646
92315SOL    HW178784   9.222  13.502   3.562
92315SOL    HW278785   9.109  13.556   3.647
92316SOL     OW78786   7.793   3.305  14.059
92316SOL    HW178787   7.794   3.329  14.152
92316SOL    HW278788   7.746   3.222  14.056
92317SOL     OW78789  13.627   0.169   2.536
92317SOL    HW178790  13.626   0.265   2.536
92317SOL    HW278791  13.671   0.145   2.618
92318SOL     OW78792  14.729  13.934   8.654
92318SOL    HW178793  14.660  13.869   8.636
92318SOL    HW278794  14.804  13.882   8.683
92319SOL     OW78795   0.497   0.492   5.757
92319SOL    HW178796   0.498   0.586   5.737
92319SOL    HW278797   0.406   0.466   5.743
92320SOL     OW78798   7.487   8.067   7.650
92320SOL    HW178799   7.506   8.082   7.557
92320SOL    HW278800   7.428   8.138   7.674
92321SOL     OW78801  14.366  14.814   6.351
92321SOL    HW178802  14.456  14.784   6.337
92321SOL    HW278803  14.352  14.805   6.445
92322SOL     OW78804   3.820  13.006  10.344
92322SOL    HW178805   3.909  13.037  10.359
92322SOL    HW278806   3.826  12.911  10.352
92323SOL     OW78807   9.833  12.324  14.283
92323SOL    HW178808   9.910  12.372  14.315
92323SOL    HW278809   9.867  12.238  14.260
92324SOL     OW78810   7.378  12.335   3.617
92324SOL    HW178811   7.449  12.277   3.642
92324SOL    HW278812   7.343  12.367   3.701
92325SOL     OW78813   9.463   0.876  13.876
92325SOL    HW178814   9.513   0.821  13.937
92325SOL    HW278815   9.431   0.815  13.810
92326SOL     OW78816  14.206   2.707  11.543
92326SOL    HW178817  14.250   2.622  11.544
92326SOL    HW278818  14.263   2.762  11.488
92327SOL     OW78819   1.391  11.021   2.404
92327SOL    HW178820   1.438  10.944   2.374
92327SOL    HW278821   1.326  10.986   2.466
92328SOL     OW78822  12.348   4.486   8.627
92328SOL    HW178823  12.365   4.508   8.719
92328SOL    HW278824  12.339   4.390   8.627
92329SOL     OW78825   9.611   5.760   5.321
92329SOL    HW178826   9.659   5.840   5.344
92329SOL    HW278827   9.654   5.692   5.372
92330SOL     OW78828  11.069   1.031   6.126
92330SOL    HW178829  11.140   1.067   6.074
92330SOL    HW278830  11.084   0.936   6.126
92331SOL     OW78831   6.023   2.599   1.168
92331SOL    HW178832   5.973   2.523   1.197
92331SOL    HW278833   5.957   2.657   1.129
92332SOL     OW78834   7.085   5.364  12.600
92332SOL    HW178835   7.099   5.400  12.687
92332SOL    HW278836   7.012   5.302  12.610
92333SOL     OW78837   7.116   5.717   1.069
92333SOL    HW178838   7.182   5.684   1.009
92333SOL    HW278839   7.165   5.750   1.144
92334SOL     OW78840   0.278   7.317   7.742
92334SOL    HW178841   0.369   7.346   7.743
92334SOL    HW278842   0.233   7.381   7.687
92335SOL     OW78843   5.845   7.750   8.270
92335SOL    HW178844   5.839   7.831   8.219
92335SOL    HW278845   5.833   7.779   8.361
92336SOL     OW78846   2.508  11.459  12.637
92336SOL    HW178847   2.472  11.530  12.690
92336SOL    HW278848   2.492  11.485  12.546
92337SOL     OW78849   1.057   3.638   6.112
92337SOL    HW178850   1.115   3.563   6.117
92337SOL    HW278851   0.970   3.600   6.098
92338SOL     OW78852   0.594  10.256  13.020
92338SOL    HW178853   0.634  10.187  13.073
92338SOL    HW278854   0.643  10.256  12.938
92339SOL     OW78855   4.107   5.921   7.772
92339SOL    HW178856   4.134   6.012   7.765
92339SOL    HW278857   4.172   5.881   7.830
92340SOL     OW78858   6.338   1.741  10.246
92340SOL    HW178859   6.269   1.728  10.181
92340SOL    HW278860   6.415   1.766  10.194
92341SOL     OW78861  10.322   5.825   9.991
92341SOL    HW178862  10.249   5.854   9.936
92341SOL    HW278863  10.281   5.789  10.069
92342SOL     OW78864   1.875   0.568   0.049
92342SOL    HW178865   1.919   0.505  14.866
92342SOL    HW278866   1.887   0.532   0.138
92343SOL     OW78867   7.914   0.076  11.472
92343SOL    HW178868   7.872   0.016  11.412
92343SOL    HW278869   7.844   0.134  11.502
92344SOL     OW78870   7.369   4.276  13.984
92344SOL    HW178871   7.279   4.251  14.003
92344SOL    HW278872   7.406   4.300  14.069
92345SOL     OW78873   1.460  12.187   1.415
92345SOL    HW178874   1.555  12.191   1.403
92345SOL    HW278875   1.446  12.207   1.507
92346SOL     OW78876   7.331   9.551  11.749
92346SOL    HW178877   7.309   9.622  11.689
92346SOL    HW278878   7.247   9.517  11.779
92347SOL     OW78879   7.941   0.493   4.416
92347SOL    HW178880   7.865   0.550   4.417
92347SOL    HW278881   7.967   0.490   4.324
92348SOL     OW78882   1.804   8.026   7.810
92348SOL    HW178883   1.805   7.965   7.884
92348SOL    HW278884   1.864   8.096   7.836
92349SOL     OW78885   1.187  11.281   0.982
92349SOL    HW178886   1.153  11.236   1.059
92349SOL    HW278887   1.242  11.216   0.939
92350SOL     OW78888   1.575   2.221   9.407
92350SOL    HW178889   1.576   2.128   9.431
92350SOL    HW278890   1.662   2.252   9.434
92351SOL     OW78891   5.797   7.322   4.675
92351SOL    HW178892   5.787   7.418   4.674
92351SOL    HW278893   5.871   7.307   4.734
92352SOL     OW78894   3.842   5.271   8.994
92352SOL    HW178895   3.782   5.282   9.067
92352SOL    HW278896   3.800   5.206   8.938
92353SOL     OW78897   3.627   1.726  12.472
92353SOL    HW178898   3.610   1.812  12.435
92353SOL    HW278899   3.561   1.716  12.541
92354SOL     OW78900  11.697   8.991  12.540
92354SOL    HW178901  11.783   8.952  12.548
92354SOL    HW278902  11.684   9.002  12.445
92355SOL     OW78903  10.025   7.919   7.968
92355SOL    HW178904   9.933   7.944   7.957
92355SOL    HW278905  10.048   7.876   7.885
92356SOL     OW78906  11.910   5.617   8.801
92356SOL    HW178907  11.986   5.659   8.760
92356SOL    HW278908  11.894   5.668   8.880
92357SOL     OW78909  13.580   6.456   4.636
92357SOL    HW178910  13.524   6.492   4.705
92357SOL    HW278911  13.647   6.523   4.622
92358SOL     OW78912   6.177   2.151   3.019
92358SOL    HW178913   6.244   2.200   3.065
92358SOL    HW278914   6.211   2.061   3.016
92359SOL     OW78915   5.865   0.265   2.087
92359SOL    HW178916   5.832   0.176   2.081
92359SOL    HW278917   5.930   0.262   2.157
92360SOL     OW78918  10.917   5.175   1.989
92360SOL    HW178919  10.882   5.130   1.912
92360SOL    HW278920  10.988   5.229   1.955
92361SOL     OW78921   2.863   7.738   3.975
92361SOL    HW178922   2.957   7.754   3.987
92361SOL    HW278923   2.841   7.674   4.043
92362SOL     OW78924   4.385   5.801  11.268
92362SOL    HW178925   4.457   5.833  11.212
92362SOL    HW278926   4.306   5.828  11.222
92363SOL     OW78927   5.616  10.871   5.151
92363SOL    HW178928   5.659  10.792   5.117
92363SOL    HW278929   5.686  10.937   5.153
92364SOL     OW78930   8.221  12.629   6.040
92364SOL    HW178931   8.221  12.721   6.065
92364SOL    HW278932   8.314  12.606   6.035
92365SOL     OW78933   9.585   4.053   8.976
92365SOL    HW178934   9.558   4.135   8.934
92365SOL    HW278935   9.662   4.026   8.925
92366SOL     OW78936  11.731   6.468   8.401
92366SOL    HW178937  11.661   6.527   8.374
92366SOL    HW278938  11.756   6.499   8.488
92367SOL     OW78939  11.605   6.699   0.090
92367SOL    HW178940  11.665   6.771   0.073
92367SOL    HW278941  11.661   6.625   0.114
92368SOL     OW78942   4.774  10.605   9.044
92368SOL    HW178943   4.772  10.546   9.118
92368SOL    HW278944   4.736  10.687   9.077
92369SOL     OW78945   1.526  13.219   8.987
92369SOL    HW178946   1.538  13.130   8.952
92369SOL    HW278947   1.433  13.224   9.009
92370SOL     OW78948   9.759  12.304  11.285
92370SOL    HW178949   9.702  12.379  11.271
92370SOL    HW278950   9.783  12.310  11.378
92371SOL     OW78951   2.677   3.423  11.626
92371SOL    HW178952   2.706   3.482  11.695
92371SOL    HW278953   2.584   3.407  11.645
92372SOL     OW78954   1.888   0.497   7.270
92372SOL    HW178955   1.944   0.421   7.254
92372SOL    HW278956   1.890   0.546   7.187
92373SOL     OW78957  10.949  12.606   8.845
92373SOL    HW178958  11.027  12.575   8.891
92373SOL    HW278959  10.905  12.664   8.908
92374SOL     OW78960  13.470   3.501  11.222
92374SOL    HW178961  13.379   3.514  11.198
92374SOL    HW278962  13.468   3.430  11.286
92375SOL     OW78963   8.059   5.288  13.256
92375SOL    HW178964   8.067   5.383  13.246
92375SOL    HW278965   8.149   5.257  13.266
92376SOL     OW78966   7.664   2.692   2.110
92376SOL    HW178967   7.733   2.758   2.107
92376SOL    HW278968   7.604   2.723   2.178
92377SOL     OW78969  11.731  10.054   0.349
92377SOL    HW178970  11.769  10.119   0.409
92377SOL    HW278971  11.723   9.975   0.402
92378SOL     OW78972   3.469  11.520   8.106
92378SOL    HW178973   3.408  11.459   8.149
92378SOL    HW278974   3.556  11.488   8.131
92379SOL     OW78975   2.107   6.086   8.686
92379SOL    HW178976   2.183   6.086   8.744
92379SOL    HW278977   2.061   6.167   8.707
92380SOL     OW78978  12.060   7.955   5.922
92380SOL    HW178979  12.053   7.870   5.879
92380SOL    HW278980  12.152   7.962   5.948
92381SOL     OW78981   9.562  11.891   4.237
92381SOL    HW178982   9.539  11.984   4.246
92381SOL    HW278983   9.637  11.879   4.295
92382SOL     OW78984   5.495   0.435  14.729
92382SOL    HW178985   5.533   0.395  14.651
92382SOL    HW278986   5.560   0.499  14.757
92383SOL     OW78987   5.203   3.067  10.268
92383SOL    HW178988   5.145   2.997  10.297
92383SOL    HW278989   5.210   3.055  10.173
92384SOL     OW78990   7.131  13.641  13.657
92384SOL    HW178991   7.157  13.554  13.687
92384SOL    HW278992   7.213  13.689  13.649
92385SOL     OW78993   5.883  13.555  11.523
92385SOL    HW178994   5.897  13.540  11.616
92385SOL    HW278995   5.924  13.480  11.480
92386SOL     OW78996   3.763   9.194   1.637
92386SOL    HW178997   3.840   9.139   1.648
92386SOL    HW278998   3.774   9.264   1.700
92387SOL     OW78999   9.939   4.134   9.137
92387SOL    HW179000  10.032   4.150   9.119
92387SOL    HW279001   9.896   4.217   9.114
92388SOL     OW79002   4.131  10.717   9.803
92388SOL    HW179003   4.111  10.627   9.776
92388SOL    HW279004   4.178  10.708   9.886
92389SOL     OW79005  11.789   2.642  11.076
92389SOL    HW179006  11.838   2.709  11.124
92389SOL    HW279007  11.701   2.645  11.113
92390SOL     OW79008  10.344   4.669  13.868
92390SOL    HW179009  10.379   4.727  13.936
92390SOL    HW279010  10.385   4.584  13.886
92391SOL     OW79011   8.148   0.938   6.809
92391SOL    HW179012   8.195   0.863   6.772
92391SOL    HW279013   8.215   1.006   6.817
92392SOL     OW79014   7.973   5.341  14.157
92392SOL    HW179015   7.914   5.267  14.147
92392SOL    HW279016   7.957   5.395  14.080
92393SOL     OW79017   3.575  11.929   1.043
92393SOL    HW179018   3.640  11.863   1.018
92393SOL    HW279019   3.501  11.914   0.985
92394SOL     OW79020  11.704  11.471   6.439
92394SOL    HW179021  11.798  11.466   6.457
92394SOL    HW279022  11.694  11.545   6.379
92395SOL     OW79023  10.548   0.279   6.251
92395SOL    HW179024  10.590   0.202   6.288
92395SOL    HW279025  10.475   0.299   6.311
92396SOL     OW79026   8.189   9.728  10.351
92396SOL    HW179027   8.276   9.767  10.363
92396SOL    HW279028   8.196   9.641  10.389
92397SOL     OW79029   3.291   2.022   4.605
92397SOL    HW179030   3.361   2.075   4.643
92397SOL    HW279031   3.212   2.074   4.618
92398SOL     OW79032   1.698  12.062   5.749
92398SOL    HW179033   1.773  12.062   5.809
92398SOL    HW279034   1.647  11.986   5.775
92399SOL     OW79035   4.077   1.166   6.794
92399SOL    HW179036   4.140   1.127   6.733
92399SOL    HW279037   4.060   1.253   6.758
92400SOL     OW79038   6.907  11.050   9.500
92400SOL    HW179039   6.871  11.119   9.556
92400SOL    HW279040   6.848  10.976   9.510
92401SOL     OW79041  11.623   0.503   6.929
92401SOL    HW179042  11.591   0.481   6.842
92401SOL    HW279043  11.612   0.598   6.935
92402SOL     OW79044   9.266   2.983   3.771
92402SOL    HW179045   9.353   2.966   3.734
92402SOL    HW279046   9.212   3.005   3.695
92403SOL     OW79047   1.495   1.040   2.710
92403SOL    HW179048   1.409   1.079   2.695
92403SOL    HW279049   1.533   1.092   2.780
92404SOL     OW79050  13.896  13.945   0.593
92404SOL    HW179051  13.936  14.001   0.659
92404SOL    HW279052  13.834  14.002   0.548
92405SOL     OW79053   0.367  13.982  14.786
92405SOL    HW179054   0.404  14.068  14.804
92405SOL    HW279055   0.291  13.998  14.731
92406SOL     OW79056  14.625   3.759   8.728
92406SOL    HW179057  14.707   3.743   8.776
92406SOL    HW279058  14.640   3.841   8.681
92407SOL     OW79059  11.097  10.052   5.061
92407SOL    HW179060  11.192  10.043   5.056
92407SOL    HW279061  11.063   9.964   5.046
92408SOL     OW79062   0.032   9.008   3.124
92408SOL    HW179063   0.055   9.065   3.198
92408SOL    HW279064  14.820   9.040   3.096
92409SOL     OW79065   2.244  13.146  14.053
92409SOL    HW179066   2.299  13.170  14.128
92409SOL    HW279067   2.241  13.226  14.000
92410SOL     OW79068   4.690  14.235  13.390
92410SOL    HW179069   4.669  14.222  13.297
92410SOL    HW279070   4.622  14.294  13.422
92411SOL     OW79071   4.508   7.837   3.933
92411SOL    HW179072   4.510   7.926   3.896
92411SOL    HW279073   4.578   7.836   3.998
92412SOL     OW79074   5.009  13.062   2.146
92412SOL    HW179075   5.033  13.132   2.207
92412SOL    HW279076   5.067  13.073   2.072
92413SOL     OW79077   8.590   7.472   6.911
92413SOL    HW179078   8.679   7.505   6.920
92413SOL    HW279079   8.561   7.502   6.824
92414SOL     OW79080   7.747   2.114   8.567
92414SOL    HW179081   7.694   2.104   8.646
92414SOL    HW279082   7.785   2.202   8.574
92415SOL     OW79083   3.948   7.097  12.016
92415SOL    HW179084   4.007   7.022  12.015
92415SOL    HW279085   3.988   7.160  11.957
92416SOL     OW79086   2.534  11.411   7.885
92416SOL    HW179087   2.519  11.462   7.804
92416SOL    HW279088   2.543  11.477   7.953
92417SOL     OW79089   5.605   2.298   6.209
92417SOL    HW179090   5.591   2.264   6.297
92417SOL    HW279091   5.569   2.387   6.213
92418SOL     OW79092   5.215  13.554  14.625
92418SOL    HW179093   5.178  13.472  14.657
92418SOL    HW279094   5.149  13.589  14.566
92419SOL     OW79095   5.574   0.696  14.189
92419SOL    HW179096   5.510   0.644  14.235
92419SOL    HW279097   5.616   0.636  14.127
92420SOL     OW79098   9.266   2.119   0.977
92420SOL    HW179099   9.213   2.146   1.052
92420SOL    HW279100   9.208   2.127   0.902
92421SOL     OW79101   3.993  11.783   2.467
92421SOL    HW179102   3.933  11.858   2.466
92421SOL    HW279103   4.077  11.819   2.440
92422SOL     OW79104   1.849  10.398   4.608
92422SOL    HW179105   1.809  10.376   4.524
92422SOL    HW279106   1.832  10.321   4.663
92423SOL     OW79107  11.031   5.902  10.989
92423SOL    HW179108  11.111   5.953  10.989
92423SOL    HW279109  10.961   5.967  10.983
92424SOL     OW79110  11.285  11.334   5.822
92424SOL    HW179111  11.276  11.421   5.783
92424SOL    HW279112  11.245  11.275   5.757
92425SOL     OW79113  12.471   5.265   6.192
92425SOL    HW179114  12.397   5.239   6.246
92425SOL    HW279115  12.499   5.185   6.148
92426SOL     OW79116   0.611  13.422   4.568
92426SOL    HW179117   0.565  13.503   4.590
92426SOL    HW279118   0.614  13.421   4.472
92427SOL     OW79119   6.864   2.452  14.535
92427SOL    HW179120   6.896   2.362  14.542
92427SOL    HW279121   6.857   2.483  14.625
92428SOL     OW79122   6.735   7.289   7.546
92428SOL    HW179123   6.720   7.249   7.631
92428SOL    HW279124   6.662   7.350   7.535
92429SOL     OW79125   9.797   3.687  14.154
92429SOL    HW179126   9.714   3.719  14.189
92429SOL    HW279127   9.843   3.651  14.230
92430SOL     OW79128   6.013   6.833   9.359
92430SOL    HW179129   6.056   6.771   9.301
92430SOL    HW279130   6.069   6.837   9.436
92431SOL     OW79131   0.912   7.195   3.077
92431SOL    HW179132   0.919   7.173   2.984
92431SOL    HW279133   0.972   7.269   3.088
92432SOL     OW79134   5.920   5.964   9.310
92432SOL    HW179135   5.951   6.054   9.305
92432SOL    HW279136   5.973   5.917   9.245
92433SOL     OW79137   7.050   5.473  12.057
92433SOL    HW179138   7.066   5.399  12.116
92433SOL    HW279139   7.137   5.510  12.040
92434SOL     OW79140   3.054   6.542   3.163
92434SOL    HW179141   3.026   6.610   3.224
92434SOL    HW279142   3.111   6.587   3.101
92435SOL     OW79143  14.246   4.687  14.030
92435SOL    HW179144  14.306   4.709  14.101
92435SOL    HW279145  14.241   4.591  14.032
92436SOL     OW79146   4.045   0.851   7.307
92436SOL    HW179147   4.064   0.766   7.266
92436SOL    HW279148   4.025   0.909   7.233
92437SOL     OW79149   6.018  12.907   6.911
92437SOL    HW179150   6.071  12.901   6.832
92437SOL    HW279151   5.955  12.835   6.904
92438SOL     OW79152   8.125   4.234   5.781
92438SOL    HW179153   8.070   4.303   5.744
92438SOL    HW279154   8.098   4.228   5.873
92439SOL     OW79155   8.047   4.303   8.341
92439SOL    HW179156   8.043   4.251   8.422
92439SOL    HW279157   8.042   4.239   8.271
92440SOL     OW79158   1.619  10.911   0.122
92440SOL    HW179159   1.663  10.826   0.125
92440SOL    HW279160   1.665  10.964   0.187
92441SOL     OW79161   8.553   6.224  13.243
92441SOL    HW179162   8.562   6.135  13.278
92441SOL    HW279163   8.568   6.215  13.149
92442SOL     OW79164   8.115   0.966   6.423
92442SOL    HW179165   8.148   0.891   6.472
92442SOL    HW279166   8.191   0.998   6.375
92443SOL     OW79167   0.984   8.792   1.569
92443SOL    HW179168   1.051   8.724   1.580
92443SOL    HW279169   0.963   8.790   1.476
92444SOL     OW79170  12.178  11.465  10.078
92444SOL    HW179171  12.235  11.390  10.065
92444SOL    HW279172  12.115  11.461  10.006
92445SOL     OW79173  14.809  11.950  11.450
92445SOL    HW179174   0.025  11.981  11.458
92445SOL    HW279175  14.775  11.994  11.372
92446SOL     OW79176   6.826   0.747   5.002
92446SOL    HW179177   6.871   0.813   5.054
92446SOL    HW279178   6.849   0.664   5.045
92447SOL     OW79179  14.495   2.452  13.992
92447SOL    HW179180  14.506   2.357  14.001
92447SOL    HW279181  14.580   2.484  13.962
92448SOL     OW79182   0.859  10.507  14.017
92448SOL    HW179183   0.951  10.533  14.013
92448SOL    HW279184   0.825  10.526  13.929
92449SOL     OW79185   4.530  11.092  10.252
92449SOL    HW179186   4.437  11.094  10.230
92449SOL    HW279187   4.532  11.063  10.343
92450SOL     OW79188   8.247   7.704   1.125
92450SOL    HW179189   8.294   7.681   1.045
92450SOL    HW279190   8.258   7.628   1.182
92451SOL     OW79191   6.421   8.844  10.339
92451SOL    HW179192   6.498   8.880  10.296
92451SOL    HW279193   6.452   8.762  10.378
92452SOL     OW79194  14.692   9.100  13.542
92452SOL    HW179195  14.658   9.151  13.616
92452SOL    HW279196  14.736   9.025  13.582
92453SOL     OW79197   6.330  10.242  14.682
92453SOL    HW179198   6.421  10.243  14.654
92453SOL    HW279199   6.320  10.322  14.733
92454SOL     OW79200   9.873  14.248   7.650
92454SOL    HW179201   9.860  14.153   7.656
92454SOL    HW279202   9.938  14.258   7.579
92455SOL     OW79203  14.631   4.531  13.888
92455SOL    HW179204  14.689   4.554  13.815
92455SOL    HW279205  14.690   4.512  13.960
92456SOL     OW79206   1.106   3.969   2.486
92456SOL    HW179207   1.138   4.018   2.562
92456SOL    HW279208   1.048   3.903   2.523
92457SOL     OW79209   9.783   7.950   9.586
92457SOL    HW179210   9.819   7.863   9.568
92457SOL    HW279211   9.860   8.006   9.598
92458SOL     OW79212  12.051  12.587   0.746
92458SOL    HW179213  12.085  12.546   0.826
92458SOL    HW279214  12.122  12.580   0.683
92459SOL     OW79215  13.752   4.936   6.429
92459SOL    HW179216  13.809   4.876   6.476
92459SOL    HW279217  13.806   4.970   6.357
92460SOL     OW79218   9.076   1.309   3.561
92460SOL    HW179219   9.005   1.259   3.602
92460SOL    HW279220   9.056   1.400   3.584
92461SOL     OW79221   2.508   1.996   1.372
92461SOL    HW179222   2.456   1.928   1.330
92461SOL    HW279223   2.458   2.020   1.450
92462SOL     OW79224   3.315   1.189   8.933
92462SOL    HW179225   3.336   1.096   8.933
92462SOL    HW279226   3.306   1.211   9.026
92463SOL     OW79227  11.126   3.205  14.865
92463SOL    HW179228  11.103   3.221  14.774
92463SOL    HW279229  11.177   3.124  14.864
92464SOL     OW79230   8.140  13.463   4.924
92464SOL    HW179231   8.130  13.546   4.971
92464SOL    HW279232   8.224  13.428   4.954
92465SOL     OW79233  10.387  14.811   9.036
92465SOL    HW179234  10.327   0.009   9.053
92465SOL    HW279235  10.333  14.745   8.992
92466SOL     OW79236   5.349   3.929   3.356
92466SOL    HW179237   5.307   3.972   3.281
92466SOL    HW279238   5.346   3.836   3.335
92467SOL     OW79239   3.808   1.059  10.575
92467SOL    HW179240   3.847   1.087  10.658
92467SOL    HW279241   3.839   1.124  10.511
92468SOL     OW79242   5.598   3.145   6.340
92468SOL    HW179243   5.601   3.070   6.281
92468SOL    HW279244   5.504   3.162   6.353
92469SOL     OW79245  11.964   5.925   3.986
92469SOL    HW179246  11.962   6.015   3.954
92469SOL    HW279247  11.888   5.918   4.044
92470SOL     OW79248   9.965   0.328  13.333
92470SOL    HW179249  10.006   0.256  13.381
92470SOL    HW279250   9.930   0.386  13.400
92471SOL     OW79251   6.002   0.152   0.425
92471SOL    HW179252   5.918   0.132   0.464
92471SOL    HW279253   5.981   0.195   0.342
92472SOL     OW79254  14.367   1.878   0.345
92472SOL    HW179255  14.411   1.794   0.331
92472SOL    HW279256  14.282   1.856   0.383
92473SOL     OW79257  11.774   8.537  13.779
92473SOL    HW179258  11.830   8.599  13.731
92473SOL    HW279259  11.756   8.468  13.715
92474SOL     OW79260   6.418  11.101  12.181
92474SOL    HW179261   6.324  11.117  12.172
92474SOL    HW279262   6.454  11.184  12.210
92475SOL     OW79263  14.174   7.369   7.998
92475SOL    HW179264  14.242   7.312   8.033
92475SOL    HW279265  14.190   7.372   7.904
92476SOL     OW79266  13.215   5.205   9.824
92476SOL    HW179267  13.187   5.293   9.798
92476SOL    HW279268  13.138   5.150   9.809
92477SOL     OW79269  11.072   2.924  14.153
92477SOL    HW179270  10.980   2.912  14.176
92477SOL    HW279271  11.073   2.920  14.057
92478SOL     OW79272   8.453  11.070   1.998
92478SOL    HW179273   8.448  11.159   2.033
92478SOL    HW279274   8.539  11.038   2.024
92479SOL     OW79275   8.129  13.909   7.823
92479SOL    HW179276   8.040  13.872   7.824
92479SOL    HW279277   8.146  13.932   7.914
92480SOL     OW79278  13.297   1.631   8.547
92480SOL    HW179279  13.310   1.709   8.602
92480SOL    HW279280  13.359   1.642   8.475
92481SOL     OW79281  14.172   2.813  13.279
92481SOL    HW179282  14.197   2.789  13.190
92481SOL    HW279283  14.081   2.842  13.272
92482SOL     OW79284   0.835   5.181   7.110
92482SOL    HW179285   0.772   5.241   7.071
92482SOL    HW279286   0.851   5.216   7.197
92483SOL     OW79287   4.250   8.060   5.537
92483SOL    HW179288   4.254   8.101   5.623
92483SOL    HW279289   4.241   8.133   5.475
92484SOL     OW79290   6.573   8.455   9.096
92484SOL    HW179291   6.566   8.385   9.031
92484SOL    HW279292   6.533   8.419   9.175
92485SOL     OW79293   6.585   6.845  13.073
92485SOL    HW179294   6.623   6.793  13.144
92485SOL    HW279295   6.540   6.781  13.018
92486SOL     OW79296   4.874   6.327  10.669
92486SOL    HW179297   4.938   6.286  10.611
92486SOL    HW279298   4.927   6.368  10.738
92487SOL     OW79299   9.350   2.146   3.670
92487SOL    HW179300   9.343   2.238   3.696
92487SOL    HW279301   9.264   2.109   3.691
92488SOL     OW79302   9.717   0.251  14.649
92488SOL    HW179303   9.794   0.198  14.671
92488SOL    HW279304   9.737   0.338  14.684
92489SOL     OW79305   2.624   2.295   4.627
92489SOL    HW179306   2.627   2.360   4.557
92489SOL    HW279307   2.660   2.341   4.703
92490SOL     OW79308  12.389   8.245   9.570
92490SOL    HW179309  12.294   8.230   9.563
92490SOL    HW279310  12.401   8.334   9.536
92491SOL     OW79311  11.977   6.948   6.781
92491SOL    HW179312  11.902   6.896   6.811
92491SOL    HW279313  11.942   7.002   6.710
92492SOL     OW79314  12.630  10.652   6.335
92492SOL    HW179315  12.619  10.623   6.426
92492SOL    HW279316  12.586  10.585   6.283
92493SOL     OW79317   5.928  12.901  11.070
92493SOL    HW179318   6.017  12.869  11.079
92493SOL    HW279319   5.937  12.983  11.020
92494SOL     OW79320  11.213   2.997   4.562
92494SOL    HW179321  11.159   3.074   4.546
92494SOL    HW279322  11.278   3.027   4.626
92495SOL     OW79323   5.173   1.255   4.058
92495SOL    HW179324   5.127   1.325   4.012
92495SOL    HW279325   5.120   1.177   4.042
92496SOL     OW79326   1.834   1.289   7.340
92496SOL    HW179327   1.864   1.260   7.426
92496SOL    HW279328   1.863   1.221   7.280
92497SOL     OW79329   6.075  14.638   8.307
92497SOL    HW179330   6.111  14.685   8.232
92497SOL    HW279331   6.042  14.557   8.271
92498SOL     OW79332   1.855  11.477   1.433
92498SOL    HW179333   1.798  11.402   1.414
92498SOL    HW279334   1.839  11.538   1.361
92499SOL     OW79335  11.498   5.743   8.176
92499SOL    HW179336  11.441   5.667   8.164
92499SOL    HW279337  11.563   5.714   8.240
92500SOL     OW79338   5.094   5.604  11.114
92500SOL    HW179339   5.071   5.629  11.204
92500SOL    HW279340   5.134   5.517  11.123
92501SOL     OW79341  11.984   6.225   8.634
92501SOL    HW179342  12.006   6.154   8.694
92501SOL    HW279343  11.907   6.193   8.586
92502SOL     OW79344   2.382  11.580   3.938
92502SOL    HW179345   2.379  11.484   3.936
92502SOL    HW279346   2.355  11.606   3.850
92503SOL     OW79347   0.215  13.588   2.787
92503SOL    HW179348   0.244  13.662   2.734
92503SOL    HW279349   0.275  13.587   2.861
92504SOL     OW79350   7.008   2.910   9.387
92504SOL    HW179351   6.983   2.840   9.326
92504SOL    HW279352   7.088   2.948   9.349
92505SOL     OW79353   7.437   3.895  13.994
92505SOL    HW179354   7.465   3.983  14.020
92505SOL    HW279355   7.354   3.882  14.041
92506SOL     OW79356  13.249  13.624   8.032
92506SOL    HW179357  13.208  13.655   8.113
92506SOL    HW279358  13.341  13.611   8.056
92507SOL     OW79359   3.132   5.968   1.208
92507SOL    HW179360   3.208   6.015   1.242
92507SOL    HW279361   3.059   5.998   1.261
92508SOL     OW79362   5.105   0.890   9.730
92508SOL    HW179363   5.070   0.976   9.704
92508SOL    HW279364   5.032   0.830   9.717
92509SOL     OW79365   6.847   0.077   5.767
92509SOL    HW179366   6.871   0.039   5.852
92509SOL    HW279367   6.897   0.158   5.762
92510SOL     OW79368   9.276   3.585  14.675
92510SOL    HW179369   9.235   3.531  14.608
92510SOL    HW279370   9.233   3.670  14.667
92511SOL     OW79371   5.014   5.034  10.778
92511SOL    HW179372   4.938   4.986  10.810
92511SOL    HW279373   4.979   5.092  10.710
92512SOL     OW79374  14.645   4.158   0.248
92512SOL    HW179375  14.680   4.069   0.260
92512SOL    HW279376  14.668   4.181   0.158
92513SOL     OW79377  10.316   3.964   6.057
92513SOL    HW179378  10.239   4.012   6.027
92513SOL    HW279379  10.390   4.013   6.021
92514SOL     OW79380   0.540   9.765   3.863
92514SOL    HW179381   0.551   9.827   3.935
92514SOL    HW279382   0.627   9.760   3.823
92515SOL     OW79383   0.214   4.242  10.273
92515SOL    HW179384   0.125   4.238  10.310
92515SOL    HW279385   0.272   4.226  10.348
92516SOL     OW79386   5.707  13.602   9.306
92516SOL    HW179387   5.662  13.676   9.266
92516SOL    HW279388   5.791  13.598   9.260
92517SOL     OW79389   2.319  13.563   2.231
92517SOL    HW179390   2.411  13.535   2.229
92517SOL    HW279391   2.286  13.541   2.144
92518SOL     OW79392  13.796   3.541   2.435
92518SOL    HW179393  13.865   3.508   2.491
92518SOL    HW279394  13.743   3.464   2.412
92519SOL     OW79395   3.253  14.356  13.900
92519SOL    HW179396   3.159  14.351  13.919
92519SOL    HW279397   3.263  14.436  13.849
92520SOL     OW79398   1.208   3.262  12.549
92520SOL    HW179399   1.163   3.203  12.489
92520SOL    HW279400   1.177   3.237  12.636
92521SOL     OW79401   8.144  13.831   2.876
92521SOL    HW179402   8.153  13.835   2.971
92521SOL    HW279403   8.185  13.912   2.844
92522SOL     OW79404   2.038   0.154   0.354
92522SOL    HW179405   2.066   0.204   0.430
92522SOL    HW279406   2.119   0.130   0.309
92523SOL     OW79407   9.939  11.805  12.333
92523SOL    HW179408   9.959  11.741  12.401
92523SOL    HW279409   9.890  11.755  12.268
92524SOL     OW79410   4.711   6.451   2.791
92524SOL    HW179411   4.735   6.528   2.842
92524SOL    HW279412   4.795   6.411   2.767
92525SOL     OW79413   2.241   0.874   0.987
92525SOL    HW179414   2.235   0.785   1.020
92525SOL    HW279415   2.280   0.865   0.900
92526SOL     OW79416   9.385  14.020   7.651
92526SOL    HW179417   9.390  13.925   7.661
92526SOL    HW279418   9.420  14.055   7.733
92527SOL     OW79419  14.291   1.775  12.531
92527SOL    HW179420  14.236   1.705  12.494
92527SOL    HW279421  14.380   1.753  12.504
92528SOL     OW79422  10.693   6.128   5.815
92528SOL    HW179423  10.701   6.057   5.750
92528SOL    HW279424  10.757   6.106   5.882
92529SOL     OW79425  13.722   4.670   3.209
92529SOL    HW179426  13.816   4.687   3.206
92529SOL    HW279427  13.684   4.736   3.150
92530SOL     OW79428   4.165   3.863   7.523
92530SOL    HW179429   4.139   3.813   7.600
92530SOL    HW279430   4.086   3.912   7.499
92531SOL     OW79431   3.910  12.762   7.590
92531SOL    HW179432   3.853  12.764   7.666
92531SOL    HW279433   3.917  12.669   7.568
92532SOL     OW79434  12.258   7.535   1.578
92532SOL    HW179435  12.250   7.567   1.668
92532SOL    HW279436  12.176   7.561   1.537
92533SOL     OW79437  11.659   4.519   7.083
92533SOL    HW179438  11.629   4.479   7.164
92533SOL    HW279439  11.611   4.473   7.014
92534SOL     OW79440  12.142   8.897   6.785
92534SOL    HW179441  12.098   8.840   6.723
92534SOL    HW279442  12.233   8.868   6.784
92535SOL     OW79443   1.642  12.888   9.963
92535SOL    HW179444   1.620  12.916  10.052
92535SOL    HW279445   1.674  12.968   9.921
92536SOL     OW79446   4.202   2.284   9.201
92536SOL    HW179447   4.271   2.349   9.215
92536SOL    HW279448   4.198   2.235   9.283
92537SOL     OW79449   3.067   8.226  10.515
92537SOL    HW179450   3.039   8.149  10.466
92537SOL    HW279451   3.145   8.258  10.468
92538SOL     OW79452   8.911   6.529   3.835
92538SOL    HW179453   9.003   6.544   3.858
92538SOL    HW279454   8.876   6.477   3.907
92539SOL     OW79455   1.076   2.695   9.216
92539SOL    HW179456   1.070   2.640   9.137
92539SOL    HW279457   1.122   2.640   9.279
92540SOL     OW79458   5.046   7.248   4.573
92540SOL    HW179459   4.961   7.279   4.603
92540SOL    HW279460   5.040   7.153   4.576
92541SOL     OW79461   9.743  11.979   2.956
92541SOL    HW179462   9.777  11.893   2.983
92541SOL    HW279463   9.650  11.964   2.942
92542SOL     OW79464   3.762  13.118  13.890
92542SOL    HW179465   3.838  13.110  13.833
92542SOL    HW279466   3.761  13.211  13.916
92543SOL     OW79467   1.964   9.634  14.599
92543SOL    HW179468   1.995   9.677  14.519
92543SOL    HW279469   1.891   9.689  14.628
92544SOL     OW79470  14.055   5.928   5.589
92544SOL    HW179471  14.005   5.877   5.525
92544SOL    HW279472  14.032   5.889   5.673
92545SOL     OW79473   3.010  11.336   2.730
92545SOL    HW179474   3.093  11.290   2.714
92545SOL    HW279475   2.971  11.344   2.643
92546SOL     OW79476   8.032   0.753  14.383
92546SOL    HW179477   8.011   0.719  14.470
92546SOL    HW279478   8.012   0.681  14.324
92547SOL     OW79479   0.502  14.706  13.138
92547SOL    HW179480   0.569  14.638  13.143
92547SOL    HW279481   0.549  14.788  13.156
92548SOL     OW79482   0.469   8.420   1.787
92548SOL    HW179483   0.437   8.492   1.733
92548SOL    HW279484   0.562   8.416   1.769
92549SOL     OW79485   2.475   1.069   8.208
92549SOL    HW179486   2.397   1.109   8.167
92549SOL    HW279487   2.441   1.026   8.286
92550SOL     OW79488  14.021   6.175   7.035
92550SOL    HW179489  14.051   6.150   7.123
92550SOL    HW279490  14.097   6.216   6.994
92551SOL     OW79491   7.761   6.582  10.854
92551SOL    HW179492   7.816   6.619  10.923
92551SOL    HW279493   7.686   6.640  10.849
92552SOL     OW79494  10.959  12.899   9.817
92552SOL    HW179495  11.018  12.938   9.882
92552SOL    HW279496  10.878  12.882   9.864
92553SOL     OW79497  10.448  11.604   9.351
92553SOL    HW179498  10.526  11.625   9.301
92553SOL    HW279499  10.444  11.669   9.421
92554SOL     OW79500   0.286   0.646   7.302
92554SOL    HW179501   0.283   0.654   7.206
92554SOL    HW279502   0.344   0.716   7.330
92555SOL     OW79503   9.451   0.271   0.666
92555SOL    HW179504   9.388   0.210   0.704
92555SOL    HW279505   9.403   0.316   0.597
92556SOL     OW79506  13.111   5.931   0.647
92556SOL    HW179507  13.102   5.917   0.553
92556SOL    HW279508  13.201   5.963   0.658
92557SOL     OW79509   8.871   6.308  10.803
92557SOL    HW179510   8.920   6.286  10.882
92557SOL    HW279511   8.846   6.399  10.815
92558SOL     OW79512  13.661   4.292   8.359
92558SOL    HW179513  13.682   4.385   8.365
92558SOL    HW279514  13.621   4.271   8.444
92559SOL     OW79515  10.243   8.837   3.437
92559SOL    HW179516  10.189   8.910   3.407
92559SOL    HW279517  10.249   8.848   3.532
92560SOL     OW79518   0.780  10.313   1.497
92560SOL    HW179519   0.827  10.352   1.423
92560SOL    HW279520   0.755  10.226   1.467
92561SOL     OW79521   7.471   1.285  10.145
92561SOL    HW179522   7.467   1.200  10.189
92561SOL    HW279523   7.393   1.287  10.089
92562SOL     OW79524   5.004   7.015   7.913
92562SOL    HW179525   5.016   7.098   7.866
92562SOL    HW279526   4.939   6.967   7.861
92563SOL     OW79527   5.832   0.751  12.236
92563SOL    HW179528   5.817   0.733  12.329
92563SOL    HW279529   5.757   0.713  12.192
92564SOL     OW79530  13.260  12.538  14.732
92564SOL    HW179531  13.342  12.529  14.781
92564SOL    HW279532  13.268  12.475  14.660
92565SOL     OW79533  13.577  10.672   5.630
92565SOL    HW179534  13.549  10.582   5.611
92565SOL    HW279535  13.671  10.672   5.612
92566SOL     OW79536   6.546   0.886   1.776
92566SOL    HW179537   6.593   0.934   1.708
92566SOL    HW279538   6.574   0.795   1.764
92567SOL     OW79539   9.126  11.048   1.643
92567SOL    HW179540   9.089  10.976   1.592
92567SOL    HW279541   9.215  11.058   1.608
92568SOL     OW79542   6.023  13.351   2.124
92568SOL    HW179543   6.029  13.334   2.218
92568SOL    HW279544   6.092  13.414   2.106
92569SOL     OW79545  11.162   8.765   1.276
92569SOL    HW179546  11.157   8.671   1.260
92569SOL    HW279547  11.169   8.804   1.189
92570SOL     OW79548  12.186   4.191  10.371
92570SOL    HW179549  12.120   4.203  10.303
92570SOL    HW279550  12.267   4.225  10.332
92571SOL     OW79551  12.179   1.504   2.613
92571SOL    HW179552  12.183   1.504   2.517
92571SOL    HW279553  12.095   1.464   2.634
92572SOL     OW79554   2.141   5.352   1.116
92572SOL    HW179555   2.213   5.301   1.155
92572SOL    HW279556   2.121   5.419   1.181
92573SOL     OW79557   4.712   3.490  10.742
92573SOL    HW179558   4.638   3.542  10.772
92573SOL    HW279559   4.747   3.538  10.667
92574SOL     OW79560   9.171  13.102   2.808
92574SOL    HW179561   9.119  13.022   2.814
92574SOL    HW279562   9.107  13.173   2.801
92575SOL     OW79563   7.651  12.542  10.275
92575SOL    HW179564   7.731  12.489  10.268
92575SOL    HW279565   7.636  12.551  10.369
92576SOL     OW79566   7.450   6.534  14.603
92576SOL    HW179567   7.370   6.483  14.591
92576SOL    HW279568   7.447   6.600  14.533
92577SOL     OW79569   1.628   9.736   3.569
92577SOL    HW179570   1.572   9.745   3.492
92577SOL    HW279571   1.644   9.642   3.576
92578SOL     OW79572  11.452   4.335   5.933
92578SOL    HW179573  11.405   4.380   6.003
92578SOL    HW279574  11.476   4.250   5.970
92579SOL     OW79575   2.528   1.373   9.164
92579SOL    HW179576   2.506   1.440   9.099
92579SOL    HW279577   2.573   1.421   9.234
92580SOL     OW79578   8.844  11.328   2.412
92580SOL    HW179579   8.817  11.309   2.322
92580SOL    HW279580   8.903  11.403   2.404
92581SOL     OW79581  10.713  12.785   4.141
92581SOL    HW179582  10.762  12.706   4.117
92581SOL    HW279583  10.629  12.775   4.096
92582SOL     OW79584   7.529  12.916   0.793
92582SOL    HW179585   7.538  12.832   0.747
92582SOL    HW279586   7.604  12.918   0.853
92583SOL     OW79587  13.168  12.581  12.049
92583SOL    HW179588  13.145  12.670  12.021
92583SOL    HW279589  13.094  12.554  12.104
92584SOL     OW79590  14.650  10.152   0.991
92584SOL    HW179591  14.682  10.099   0.918
92584SOL    HW279592  14.567  10.112   1.015
92585SOL     OW79593   1.768   4.508   5.517
92585SOL    HW179594   1.818   4.479   5.593
92585SOL    HW279595   1.811   4.466   5.443
92586SOL     OW79596   2.874  14.098   1.970
92586SOL    HW179597   2.882  14.004   1.984
92586SOL    HW279598   2.964  14.128   1.954
92587SOL     OW79599   3.780   7.492   0.457
92587SOL    HW179600   3.858   7.520   0.409
92587SOL    HW279601   3.708   7.504   0.395
92588SOL     OW79602   3.190   4.095   2.453
92588SOL    HW179603   3.161   4.185   2.444
92588SOL    HW279604   3.129   4.056   2.515
92589SOL     OW79605   2.283   7.934  13.500
92589SOL    HW179606   2.250   7.978  13.578
92589SOL    HW279607   2.265   7.996  13.429
92590SOL     OW79608   3.318   6.456   0.123
92590SOL    HW179609   3.331   6.481   0.031
92590SOL    HW279610   3.251   6.516   0.155
92591SOL     OW79611  13.736   5.594  14.254
92591SOL    HW179612  13.791   5.640  14.190
92591SOL    HW279613  13.782   5.512  14.271
92592SOL     OW79614   6.241   6.543   6.006
92592SOL    HW179615   6.298   6.601   5.955
92592SOL    HW279616   6.158   6.542   5.958
92593SOL     OW79617   3.103  10.942  14.153
92593SOL    HW179618   3.069  10.893  14.078
92593SOL    HW279619   3.181  10.986  14.119
92594SOL     OW79620   3.075  14.565  10.168
92594SOL    HW179621   3.000  14.520  10.131
92594SOL    HW279622   3.037  14.642  10.212
92595SOL     OW79623  12.872   7.711  12.516
92595SOL    HW179624  12.901   7.748  12.600
92595SOL    HW279625  12.822   7.633  12.541
92596SOL     OW79626  11.149   3.597  14.747
92596SOL    HW179627  11.064   3.626  14.714
92596SOL    HW279628  11.201   3.678  14.750
92597SOL     OW79629   4.275   1.458  10.087
92597SOL    HW179630   4.296   1.467   9.993
92597SOL    HW279631   4.356   1.423  10.125
92598SOL     OW79632  10.817   3.434  10.051
92598SOL    HW179633  10.797   3.400  10.139
92598SOL    HW279634  10.810   3.529  10.060
92599SOL     OW79635   7.181   6.519   4.413
92599SOL    HW179636   7.194   6.608   4.379
92599SOL    HW279637   7.145   6.532   4.501
92600SOL     OW79638   9.967  11.106   8.603
92600SOL    HW179639   9.981  11.184   8.656
92600SOL    HW279640   9.872  11.102   8.590
92601SOL     OW79641   2.707  11.656   4.189
92601SOL    HW179642   2.776  11.688   4.246
92601SOL    HW279643   2.690  11.566   4.219
92602SOL     OW79644   8.114   6.672   0.435
92602SOL    HW179645   8.134   6.751   0.385
92602SOL    HW279646   8.064   6.618   0.375
92603SOL     OW79647   0.791   4.955   8.318
92603SOL    HW179648   0.817   4.975   8.228
92603SOL    HW279649   0.839   5.017   8.372
92604SOL     OW79650   4.548   1.601   8.471
92604SOL    HW179651   4.465   1.604   8.519
92604SOL    HW279652   4.527   1.552   8.391
92605SOL     OW79653   7.794  14.554   3.012
92605SOL    HW179654   7.799  14.613   3.087
92605SOL    HW279655   7.735  14.599   2.951
92606SOL     OW79656   5.944   3.218   1.750
92606SOL    HW179657   6.025   3.184   1.788
92606SOL    HW279658   5.972   3.257   1.667
92607SOL     OW79659   8.536  11.345   6.644
92607SOL    HW179660   8.450  11.385   6.654
92607SOL    HW279661   8.540  11.278   6.712
92608SOL     OW79662   6.561   9.938   9.949
92608SOL    HW179663   6.505  10.005   9.909
92608SOL    HW279664   6.648   9.954   9.912
92609SOL     OW79665  14.430   4.834   2.342
92609SOL    HW179666  14.347   4.880   2.355
92609SOL    HW279667  14.408   4.742   2.354
92610SOL     OW79668   0.609   5.601  14.209
92610SOL    HW179669   0.610   5.613  14.115
92610SOL    HW279670   0.629   5.687  14.245
92611SOL     OW79671   0.430   2.242   4.166
92611SOL    HW179672   0.374   2.260   4.241
92611SOL    HW279673   0.476   2.325   4.150
92612SOL     OW79674   1.273  12.894  11.876
92612SOL    HW179675   1.222  12.949  11.817
92612SOL    HW279676   1.284  12.812  11.829
92613SOL     OW79677  10.669   0.524   6.471
92613SOL    HW179678  10.634   0.487   6.552
92613SOL    HW279679  10.692   0.447   6.418
92614SOL     OW79680   1.426   4.872   1.022
92614SOL    HW179681   1.332   4.886   1.012
92614SOL    HW279682   1.464   4.907   0.942
92615SOL     OW79683   7.232   5.486   5.384
92615SOL    HW179684   7.317   5.467   5.423
92615SOL    HW279685   7.177   5.512   5.459
92616SOL     OW79686   5.824  11.612  12.759
92616SOL    HW179687   5.881  11.687  12.778
92616SOL    HW279688   5.852  11.545  12.822
92617SOL     OW79689   0.356   8.538   5.972
92617SOL    HW179690   0.343   8.479   6.046
92617SOL    HW279691   0.273   8.586   5.965
92618SOL     OW79692   6.239   5.874   3.574
92618SOL    HW179693   6.152   5.847   3.544
92618SOL    HW279694   6.284   5.793   3.595
92619SOL     OW79695   9.220  11.023  13.659
92619SOL    HW179696   9.252  11.113  13.650
92619SOL    HW279697   9.143  11.030  13.715
92620SOL     OW79698   0.649   3.771  10.124
92620SOL    HW179699   0.718   3.774  10.190
92620SOL    HW279700   0.568   3.787  10.173
92621SOL     OW79701  11.996  13.949   9.276
92621SOL    HW179702  11.972  14.018   9.214
92621SOL    HW279703  12.072  13.907   9.236
92622SOL     OW79704   7.603  14.832   2.333
92622SOL    HW179705   7.602  14.838   2.237
92622SOL    HW279706   7.541   0.025   2.361
92623SOL     OW79707   5.091   2.003   6.395
92623SOL    HW179708   5.099   2.091   6.358
92623SOL    HW279709   5.053   2.017   6.482
92624SOL     OW79710   5.709  11.740   3.551
92624SOL    HW179711   5.802  11.721   3.539
92624SOL    HW279712   5.688  11.802   3.482
92625SOL     OW79713   4.241   1.327   3.125
92625SOL    HW179714   4.174   1.261   3.143
92625SOL    HW279715   4.217   1.402   3.179
92626SOL     OW79716   3.240   6.867  11.478
92626SOL    HW179717   3.322   6.825  11.453
92626SOL    HW279718   3.253   6.894  11.569
92627SOL     OW79719  13.478   8.039   9.668
92627SOL    HW179720  13.550   8.048   9.606
92627SOL    HW279721  13.519   8.044   9.754
92628SOL     OW79722  14.224   5.149   1.754
92628SOL    HW179723  14.295   5.179   1.811
92628SOL    HW279724  14.163   5.103   1.813
92629SOL     OW79725   0.444   9.808   4.566
92629SOL    HW179726   0.508   9.798   4.637
92629SOL    HW279727   0.456   9.730   4.512
92630SOL     OW79728   8.791   9.153   6.604
92630SOL    HW179729   8.847   9.075   6.600
92630SOL    HW279730   8.844   9.218   6.649
92631SOL     OW79731   4.781  10.231   1.992
92631SOL    HW179732   4.805  10.307   1.941
92631SOL    HW279733   4.798  10.156   1.934
92632SOL     OW79734   1.854   2.129   7.044
92632SOL    HW179735   1.905   2.112   7.124
92632SOL    HW279736   1.822   2.042   7.019
92633SOL     OW79737  11.108   2.070   6.784
92633SOL    HW179738  11.111   2.013   6.707
92633SOL    HW279739  11.148   2.019   6.854
92634SOL     OW79740  10.414  10.520  12.311
92634SOL    HW179741  10.493  10.495  12.264
92634SOL    HW279742  10.356  10.444  12.305
92635SOL     OW79743   4.644  10.167   3.894
92635SOL    HW179744   4.668  10.085   3.937
92635SOL    HW279745   4.681  10.159   3.806
92636SOL     OW79746  13.637   4.565  12.628
92636SOL    HW179747  13.728   4.582  12.650
92636SOL    HW279748  13.587   4.610  12.697
92637SOL     OW79749   3.657   6.242  11.216
92637SOL    HW179750   3.593   6.188  11.169
92637SOL    HW279751   3.661   6.202  11.303
92638SOL     OW79752  11.641   5.884   0.022
92638SOL    HW179753  11.695   5.808   0.047
92638SOL    HW279754  11.642   5.884  14.800
92639SOL     OW79755  11.376   2.560   1.326
92639SOL    HW179756  11.301   2.581   1.271
92639SOL    HW279757  11.452   2.586   1.273
92640SOL     OW79758   6.584   1.868   7.259
92640SOL    HW179759   6.594   1.871   7.354
92640SOL    HW279760   6.674   1.871   7.226
92641SOL     OW79761   1.846  13.551  12.860
92641SOL    HW179762   1.834  13.481  12.796
92641SOL    HW279763   1.837  13.632  12.810
92642SOL     OW79764  14.689   2.179   0.788
92642SOL    HW179765  14.657   2.112   0.849
92642SOL    HW279766  14.627   2.251   0.798
92643SOL     OW79767   3.916   5.930   5.949
92643SOL    HW179768   3.855   5.994   5.913
92643SOL    HW279769   3.908   5.854   5.890
92644SOL     OW79770   4.718   2.003   1.172
92644SOL    HW179771   4.719   1.956   1.089
92644SOL    HW279772   4.710   1.934   1.238
92645SOL     OW79773   0.394  11.803   9.767
92645SOL    HW179774   0.467  11.811   9.827
92645SOL    HW279775   0.420  11.856   9.691
92646SOL     OW79776  14.804   2.605  10.125
92646SOL    HW179777   0.024   2.619  10.127
92646SOL    HW279778  14.791   2.522  10.171
92647SOL     OW79779   6.555  10.313  11.139
92647SOL    HW179780   6.569  10.286  11.230
92647SOL    HW279781   6.603  10.395  11.130
92648SOL     OW79782   5.681   7.755  10.236
92648SOL    HW179783   5.617   7.708  10.289
92648SOL    HW279784   5.733   7.805  10.298
92649SOL     OW79785  11.809   4.840  13.640
92649SOL    HW179786  11.737   4.896  13.669
92649SOL    HW279787  11.766   4.767  13.595
92650SOL     OW79788   3.930  10.776   2.276
92650SOL    HW179789   3.901  10.851   2.225
92650SOL    HW279790   4.008  10.745   2.230
92651SOL     OW79791   5.028   5.765   0.462
92651SOL    HW179792   4.987   5.754   0.376
92651SOL    HW279793   5.088   5.838   0.450
92652SOL     OW79794   0.676  10.748   0.700
92652SOL    HW179795   0.742  10.784   0.640
92652SOL    HW279796   0.690  10.796   0.782
92653SOL     OW79797   5.660   9.581   0.408
92653SOL    HW179798   5.690   9.508   0.462
92653SOL    HW279799   5.715   9.577   0.329
92654SOL     OW79800   7.452   6.468   4.848
92654SOL    HW179801   7.462   6.560   4.871
92654SOL    HW279802   7.480   6.462   4.757
92655SOL     OW79803   5.694  10.537   3.737
92655SOL    HW179804   5.674  10.519   3.645
92655SOL    HW279805   5.748  10.616   3.734
92656SOL     OW79806  10.347  12.732   5.187
92656SOL    HW179807  10.344  12.644   5.224
92656SOL    HW279808  10.290  12.784   5.244
92657SOL     OW79809   0.478  13.216   8.324
92657SOL    HW179810   0.405  13.212   8.386
92657SOL    HW279811   0.544  13.157   8.361
92658SOL     OW79812  14.353   7.284   4.705
92658SOL    HW179813  14.295   7.249   4.638
92658SOL    HW279814  14.437   7.297   4.661
92659SOL     OW79815   0.125  12.580  11.563
92659SOL    HW179816   0.171  12.539  11.490
92659SOL    HW279817   0.160  12.669  11.567
92660SOL     OW79818   2.480   5.243   7.962
92660SOL    HW179819   2.425   5.318   7.938
92660SOL    HW279820   2.496   5.198   7.880
92661SOL     OW79821  13.484   7.494   6.620
92661SOL    HW179822  13.449   7.405   6.614
92661SOL    HW279823  13.459   7.535   6.538
92662SOL     OW79824   6.394  14.617   2.221
92662SOL    HW179825   6.324  14.590   2.161
92662SOL    HW279826   6.441  14.685   2.174
92663SOL     OW79827  12.292   6.692  10.104
92663SOL    HW179828  12.353   6.660  10.037
92663SOL    HW279829  12.280   6.618  10.163
92664SOL     OW79830   9.465   8.988   6.561
92664SOL    HW179831   9.420   9.068   6.534
92664SOL    HW279832   9.437   8.975   6.652
92665SOL     OW79833   8.014   7.453   0.650
92665SOL    HW179834   7.994   7.531   0.701
92665SOL    HW279835   8.101   7.470   0.612
92666SOL     OW79836   5.603  10.714   9.968
92666SOL    HW179837   5.530  10.764   9.932
92666SOL    HW279838   5.578  10.622   9.957
92667SOL     OW79839   6.132   2.487   2.584
92667SOL    HW179840   6.130   2.400   2.623
92667SOL    HW279841   6.055   2.531   2.618
92668SOL     OW79842  10.264  13.470   6.392
92668SOL    HW179843  10.193  13.533   6.404
92668SOL    HW279844  10.271  13.425   6.476
92669SOL     OW79845  10.104   1.979  13.312
92669SOL    HW179846  10.073   1.895  13.277
92669SOL    HW279847  10.099   1.967  13.407
92670SOL     OW79848   3.978  11.428  11.422
92670SOL    HW179849   4.069  11.429  11.452
92670SOL    HW279850   3.978  11.369  11.346
92671SOL     OW79851   0.115  14.154   9.275
92671SOL    HW179852   0.179  14.166   9.205
92671SOL    HW279853   0.037  14.201   9.245
92672SOL     OW79854  14.600  11.102   1.659
92672SOL    HW179855  14.605  11.109   1.564
92672SOL    HW279856  14.594  11.008   1.676
92673SOL     OW79857   2.206  13.288   1.001
92673SOL    HW179858   2.274  13.355   0.992
92673SOL    HW279859   2.136  13.330   1.049
92674SOL     OW79860   4.626   8.743  13.253
92674SOL    HW179861   4.624   8.655  13.214
92674SOL    HW279862   4.701   8.785  13.212
92675SOL     OW79863  10.165   0.613   4.859
92675SOL    HW179864  10.109   0.680   4.820
92675SOL    HW279865  10.233   0.597   4.793
92676SOL     OW79866  10.473  14.408  11.117
92676SOL    HW179867  10.458  14.439  11.206
92676SOL    HW279868  10.544  14.344  11.126
92677SOL     OW79869   3.890   6.493   8.482
92677SOL    HW179870   3.947   6.450   8.545
92677SOL    HW279871   3.802   6.474   8.512
92678SOL     OW79872   5.452   5.338   1.770
92678SOL    HW179873   5.387   5.325   1.700
92678SOL    HW279874   5.478   5.249   1.794
92679SOL     OW79875   5.370   7.572   5.842
92679SOL    HW179876   5.400   7.482   5.827
92679SOL    HW279877   5.403   7.594   5.929
92680SOL     OW79878   3.313  10.495  10.748
92680SOL    HW179879   3.385  10.507  10.811
92680SOL    HW279880   3.238  10.536  10.791
92681SOL     OW79881  10.370   0.803   4.117
92681SOL    HW179882  10.419   0.766   4.043
92681SOL    HW279883  10.419   0.881   4.142
92682SOL     OW79884   1.260   9.266   8.366
92682SOL    HW179885   1.233   9.263   8.457
92682SOL    HW279886   1.202   9.330   8.325
92683SOL     OW79887   4.939  10.530   4.658
92683SOL    HW179888   5.028  10.527   4.623
92683SOL    HW279889   4.952  10.543   4.752
92684SOL     OW79890   6.443  10.838  13.849
92684SOL    HW179891   6.384  10.908  13.822
92684SOL    HW279892   6.446  10.845  13.945
92685SOL     OW79893   3.121   2.616   5.408
92685SOL    HW179894   3.065   2.667   5.349
92685SOL    HW279895   3.161   2.550   5.351
92686SOL     OW79896   5.037  11.643   6.176
92686SOL    HW179897   4.994  11.672   6.095
92686SOL    HW279898   5.130  11.657   6.160
92687SOL     OW79899   1.482   3.881   3.806
92687SOL    HW179900   1.504   3.932   3.728
92687SOL    HW279901   1.386   3.876   3.805
92688SOL     OW79902  14.662   7.129  12.670
92688SOL    HW179903  14.668   7.221  12.697
92688SOL    HW279904  14.657   7.132  12.575
92689SOL     OW79905  10.027   8.488   2.735
92689SOL    HW179906   9.970   8.512   2.807
92689SOL    HW279907  10.023   8.392   2.732
92690SOL     OW79908   1.686   5.208  10.466
92690SOL    HW179909   1.724   5.208  10.553
92690SOL    HW279910   1.728   5.281  10.421
92691SOL     OW79911   9.169   7.001   5.200
92691SOL    HW179912   9.192   6.988   5.292
92691SOL    HW279913   9.253   6.997   5.154
92692SOL     OW79914   5.092   3.210  13.881
92692SOL    HW179915   5.073   3.198  13.974
92692SOL    HW279916   5.089   3.122  13.845
92693SOL     OW79917   2.460   9.743   9.618
92693SOL    HW179918   2.436   9.730   9.526
92693SOL    HW279919   2.377   9.740   9.666
92694SOL     OW79920   0.963  14.185  11.443
92694SOL    HW179921   1.025  14.114  11.426
92694SOL    HW279922   0.892  14.144  11.492
92695SOL     OW79923  14.058   5.492   3.594
92695SOL    HW179924  14.134   5.452   3.636
92695SOL    HW279925  14.060   5.584   3.622
92696SOL     OW79926   9.481   1.830   9.564
92696SOL    HW179927   9.500   1.876   9.482
92696SOL    HW279928   9.519   1.743   9.552
92697SOL     OW79929   0.035   3.622   0.319
92697SOL    HW179930   0.111   3.679   0.327
92697SOL    HW279931   0.050   3.551   0.381
92698SOL     OW79932  12.130  14.825   7.466
92698SOL    HW179933  12.101  14.736   7.483
92698SOL    HW279934  12.085  14.850   7.385
92699SOL     OW79935  10.826  14.354  12.339
92699SOL    HW179936  10.772  14.277  12.357
92699SOL    HW279937  10.835  14.397  12.424
92700SOL     OW79938   2.593  10.237   0.006
92700SOL    HW179939   2.637  10.298  14.821
92700SOL    HW279940   2.522  10.289   0.044
92701SOL     OW79941  13.100  13.296  11.773
92701SOL    HW179942  13.134  13.212  11.803
92701SOL    HW279943  13.177  13.353  11.768
92702SOL     OW79944   9.919  12.566  13.331
92702SOL    HW179945   9.909  12.493  13.270
92702SOL    HW279946   9.871  12.539  13.409
92703SOL     OW79947   8.951  12.320   4.252
92703SOL    HW179948   8.930  12.308   4.345
92703SOL    HW279949   8.867  12.322   4.208
92704SOL     OW79950   1.466   5.660  12.412
92704SOL    HW179951   1.450   5.675  12.319
92704SOL    HW279952   1.559   5.641  12.418
92705SOL     OW79953   3.714  13.304   1.835
92705SOL    HW179954   3.789  13.247   1.852
92705SOL    HW279955   3.652  13.283   1.904
92706SOL     OW79956   8.621  14.455   0.911
92706SOL    HW179957   8.709  14.490   0.923
92706SOL    HW279958   8.569  14.531   0.882
92707SOL     OW79959   6.635  14.669   0.093
92707SOL    HW179960   6.726  14.639   0.089
92707SOL    HW279961   6.587  14.606   0.040
92708SOL     OW79962   6.060  10.735  11.198
92708SOL    HW179963   6.060  10.815  11.146
92708SOL    HW279964   6.153  10.712  11.206
92709SOL     OW79965  14.643   2.700  11.997
92709SOL    HW179966  14.614   2.786  11.967
92709SOL    HW279967  14.692   2.717  12.077
92710SOL     OW79968  13.705  14.435   4.173
92710SOL    HW179969  13.734  14.466   4.087
92710SOL    HW279970  13.698  14.340   4.163
92711SOL     OW79971   9.207   4.464   6.959
92711SOL    HW179972   9.146   4.466   7.033
92711SOL    HW279973   9.151   4.454   6.882
92712SOL     OW79974   4.168   1.436   9.329
92712SOL    HW179975   4.128   1.519   9.302
92712SOL    HW279976   4.095   1.374   9.330
92713SOL     OW79977  10.454  13.091  10.316
92713SOL    HW179978  10.529  13.118  10.370
92713SOL    HW279979  10.379  13.097  10.374
92714SOL     OW79980  11.637   2.875  13.067
92714SOL    HW179981  11.623   2.797  13.121
92714SOL    HW279982  11.554   2.886  13.020
92715SOL     OW79983   7.604   1.098  12.862
92715SOL    HW179984   7.652   1.017  12.847
92715SOL    HW279985   7.528   1.073  12.914
92716SOL     OW79986   4.519  12.621   0.694
92716SOL    HW179987   4.438  12.644   0.649
92716SOL    HW279988   4.545  12.538   0.655
92717SOL     OW79989  12.472  13.755  11.982
92717SOL    HW179990  12.524  13.682  12.015
92717SOL    HW279991  12.454  13.808  12.060
92718SOL     OW79992   7.057   2.603   3.339
92718SOL    HW179993   6.990   2.583   3.405
92718SOL    HW279994   7.007   2.636   3.264
92719SOL     OW79995  14.418   5.623   8.966
92719SOL    HW179996  14.433   5.530   8.982
92719SOL    HW279997  14.339   5.644   9.015
92720SOL     OW79998  12.269  10.628   0.066
92720SOL    HW179999  12.272  10.722   0.083
92720SOL    HW280000  12.262  10.588   0.152
92721SOL     OW80001   1.473   6.884  12.460
92721SOL    HW180002   1.485   6.942  12.534
92721SOL    HW280003   1.562   6.862  12.432
92722SOL     OW80004   8.800   1.910   5.432
92722SOL    HW180005   8.789   1.930   5.339
92722SOL    HW280006   8.757   1.825   5.444
92723SOL     OW80007   5.840  11.883   1.413
92723SOL    HW180008   5.782  11.924   1.349
92723SOL    HW280009   5.879  11.809   1.367
92724SOL     OW80010  10.161  14.071  11.216
92724SOL    HW180011  10.227  14.050  11.150
92724SOL    HW280012  10.184  14.159  11.245
92725SOL     OW80013   2.209   7.023   4.160
92725SOL    HW180014   2.281   7.012   4.098
92725SOL    HW280015   2.228   6.960   4.230
92726SOL     OW80016  14.699   2.584   7.628
92726SOL    HW180017  14.789   2.605   7.603
92726SOL    HW280018  14.704   2.493   7.658
92727SOL     OW80019   1.799   5.478   8.192
92727SOL    HW180020   1.821   5.571   8.202
92727SOL    HW280021   1.827   5.439   8.275
92728SOL     OW80022   6.927   9.777  14.284
92728SOL    HW180023   6.851   9.727  14.254
92728SOL    HW280024   6.927   9.765  14.379
92729SOL     OW80025  10.864   9.553   2.464
92729SOL    HW180026  10.913   9.603   2.529
92729SOL    HW280027  10.824   9.620   2.408
92730SOL     OW80028   6.427   0.153   0.984
92730SOL    HW180029   6.384   0.138   0.900
92730SOL    HW280030   6.430   0.248   0.994
92731SOL     OW80031  14.443   4.128   3.064
92731SOL    HW180032  14.452   4.207   3.011
92731SOL    HW280033  14.519   4.131   3.123
92732SOL     OW80034   9.582  13.873   9.257
92732SOL    HW180035   9.597  13.829   9.173
92732SOL    HW280036   9.493  13.848   9.282
92733SOL     OW80037   3.730  14.853   6.597
92733SOL    HW180038   3.665  14.808   6.651
92733SOL    HW280039   3.809  14.800   6.607
92734SOL     OW80040   6.685  10.986   3.054
92734SOL    HW180041   6.648  10.920   2.996
92734SOL    HW280042   6.651  10.964   3.141
92735SOL     OW80043  14.140   0.025   3.258
92735SOL    HW180044  14.080  14.830   3.284
92735SOL    HW280045  14.210  14.853   3.211
92736SOL     OW80046  13.140   2.057   4.283
92736SOL    HW180047  13.066   1.997   4.285
92736SOL    HW280048  13.169   2.056   4.192
92737SOL     OW80049   6.824  14.350   4.235
92737SOL    HW180050   6.752  14.314   4.182
92737SOL    HW280051   6.863  14.273   4.277
92738SOL     OW80052   6.850  13.621   3.882
92738SOL    HW180053   6.781  13.669   3.929
92738SOL    HW280054   6.932  13.656   3.917
92739SOL     OW80055  14.312   5.202  13.565
92739SOL    HW180056  14.347   5.279  13.611
92739SOL    HW280057  14.376   5.185  13.496
92740SOL     OW80058   8.451  14.716  11.044
92740SOL    HW180059   8.521  14.704  10.980
92740SOL    HW280060   8.408  14.798  11.017
92741SOL     OW80061   5.210  10.700   4.338
92741SOL    HW180062   5.115  10.690   4.343
92741SOL    HW280063   5.241  10.620   4.295
92742SOL     OW80064   7.108   5.165  10.141
92742SOL    HW180065   7.070   5.123  10.218
92742SOL    HW280066   7.194   5.195  10.170
92743SOL     OW80067   8.629   7.009   5.567
92743SOL    HW180068   8.614   7.033   5.475
92743SOL    HW280069   8.545   7.023   5.609
92744SOL     OW80070  14.786   6.949   8.789
92744SOL    HW180071  14.871   6.952   8.746
92744SOL    HW280072  14.793   7.011   8.862
92745SOL     OW80073  14.438  12.725   4.496
92745SOL    HW180074  14.400  12.638   4.490
92745SOL    HW280075  14.525  12.711   4.533
92746SOL     OW80076   1.906   7.397  10.300
92746SOL    HW180077   1.938   7.482  10.269
92746SOL    HW280078   1.928   7.336  10.230
92747SOL     OW80079   1.082  10.002   2.484
92747SOL    HW180080   1.089  10.037   2.395
92747SOL    HW280081   0.994   9.964   2.488
92748SOL     OW80082  13.532   1.501   0.397
92748SOL    HW180083  13.597   1.526   0.331
92748SOL    HW280084  13.575   1.521   0.481
92749SOL     OW80085  10.195   1.611   7.317
92749SOL    HW180086  10.189   1.707   7.312
92749SOL    HW280087  10.125   1.586   7.377
92750SOL     OW80088   9.378  11.586   1.428
92750SOL    HW180089   9.312  11.592   1.360
92750SOL    HW280090   9.332  11.550   1.504
92751SOL     OW80091   6.961   0.494  11.572
92751SOL    HW180092   7.023   0.423  11.589
92751SOL    HW280093   6.964   0.506  11.478
92752SOL     OW80094   5.239   9.298   4.772
92752SOL    HW180095   5.265   9.218   4.818
92752SOL    HW280096   5.195   9.350   4.839
92753SOL     OW80097   9.851   3.718   1.968
92753SOL    HW180098   9.812   3.734   2.054
92753SOL    HW280099   9.903   3.638   1.980
92754SOL     OW80100   8.563   6.793  14.473
92754SOL    HW180101   8.590   6.779  14.382
92754SOL    HW280102   8.483   6.740  14.483
92755SOL     OW80103   8.694  12.912   4.900
92755SOL    HW180104   8.685  13.005   4.921
92755SOL    HW280105   8.605  12.884   4.878
92756SOL     OW80106   8.287   4.129   1.271
92756SOL    HW180107   8.336   4.090   1.198
92756SOL    HW280108   8.311   4.222   1.268
92757SOL     OW80109   7.611  14.566  11.108
92757SOL    HW180110   7.537  14.567  11.048
92757SOL    HW280111   7.572  14.581  11.194
92758SOL     OW80112   0.520   2.039   2.977
92758SOL    HW180113   0.526   2.042   2.881
92758SOL    HW280114   0.426   2.026   2.994
92759SOL     OW80115  13.108   5.203   0.641
92759SOL    HW180116  13.172   5.256   0.688
92759SOL    HW280117  13.025   5.219   0.686
92760SOL     OW80118   7.534   0.530  12.970
92760SOL    HW180119   7.491   0.574  12.897
92760SOL    HW280120   7.514   0.437  12.957
92761SOL     OW80121   6.477   7.886   3.082
92761SOL    HW180122   6.453   7.934   3.003
92761SOL    HW280123   6.418   7.810   3.082
92762SOL     OW80124   9.580  13.618   6.786
92762SOL    HW180125   9.530  13.699   6.791
92762SOL    HW280126   9.523  13.552   6.825
92763SOL     OW80127   2.216   3.075   2.834
92763SOL    HW180128   2.132   3.035   2.856
92763SOL    HW280129   2.242   3.122   2.913
92764SOL     OW80130   2.597  13.703   9.941
92764SOL    HW180131   2.609  13.719   9.848
92764SOL    HW280132   2.670  13.747   9.983
92765SOL     OW80133   2.999   4.655   8.280
92765SOL    HW180134   3.034   4.611   8.358
92765SOL    HW280135   2.930   4.597   8.249
92766SOL     OW80136  14.476   9.413  12.091
92766SOL    HW180137  14.473   9.508  12.080
92766SOL    HW280138  14.415   9.379  12.025
92767SOL     OW80139   2.361  11.352   8.994
92767SOL    HW180140   2.274  11.382   9.019
92767SOL    HW280141   2.350  11.258   8.976
92768SOL     OW80142   9.338   8.737  14.790
92768SOL    HW180143   9.382   8.668  14.840
92768SOL    HW280144   9.375   8.819  14.825
92769SOL     OW80145   6.199   4.296   0.629
92769SOL    HW180146   6.280   4.347   0.641
92769SOL    HW280147   6.185   4.295   0.535
92770SOL     OW80148  12.771   4.912   6.268
92770SOL    HW180149  12.692   4.910   6.321
92770SOL    HW280150  12.793   4.820   6.253
92771SOL     OW80151   6.465   9.828  11.551
92771SOL    HW180152   6.392   9.840  11.611
92771SOL    HW280153   6.542   9.850  11.602
92772SOL     OW80154   7.182   2.208   1.818
92772SOL    HW180155   7.138   2.156   1.885
92772SOL    HW280156   7.199   2.292   1.859
92773SOL     OW80157   7.876   0.616   8.560
92773SOL    HW180158   7.886   0.574   8.646
92773SOL    HW280159   7.962   0.655   8.543
92774SOL     OW80160  14.428   9.067  13.954
92774SOL    HW180161  14.393   9.071  13.865
92774SOL    HW280162  14.367   9.119  14.006
92775SOL     OW80163   7.968   2.427   4.635
92775SOL    HW180164   8.055   2.390   4.645
92775SOL    HW280165   7.957   2.437   4.540
92776SOL     OW80166   9.838  13.508   6.849
92776SOL    HW180167   9.747  13.509   6.820
92776SOL    HW280168   9.833  13.505   6.944
92777SOL     OW80169   2.263   0.550   9.270
92777SOL    HW180170   2.184   0.601   9.285
92777SOL    HW280171   2.308   0.548   9.355
92778SOL     OW80172   6.394   0.160  11.286
92778SOL    HW180173   6.379   0.071  11.320
92778SOL    HW280174   6.336   0.215  11.339
92779SOL     OW80175  14.029   0.602   2.774
92779SOL    HW180176  14.067   0.684   2.742
92779SOL    HW280177  13.994   0.623   2.860
92780SOL     OW80178   0.356   3.771  10.862
92780SOL    HW180179   0.416   3.810  10.926
92780SOL    HW280180   0.390   3.682  10.849
92781SOL     OW80181   6.309   9.775   1.882
92781SOL    HW180182   6.229   9.725   1.872
92781SOL    HW280183   6.305   9.810   1.971
92782SOL     OW80184  10.182   8.175   8.648
92782SOL    HW180185  10.244   8.190   8.576
92782SOL    HW280186  10.119   8.112   8.613
92783SOL     OW80187  13.963  10.844   5.237
92783SOL    HW180188  13.941  10.848   5.330
92783SOL    HW280189  14.058  10.844   5.234
92784SOL     OW80190   3.480  11.891   0.309
92784SOL    HW180191   3.385  11.880   0.304
92784SOL    HW280192   3.494  11.985   0.309
92785SOL     OW80193  13.439   2.802   0.810
92785SOL    HW180194  13.395   2.740   0.753
92785SOL    HW280195  13.412   2.888   0.778
92786SOL     OW80196  12.072  12.333   1.434
92786SOL    HW180197  12.097  12.365   1.347
92786SOL    HW280198  12.064  12.412   1.487
92787SOL     OW80199   2.157  10.452   5.265
92787SOL    HW180200   2.238  10.482   5.222
92787SOL    HW280201   2.160  10.492   5.352
92788SOL     OW80202   6.350  11.496  10.817
92788SOL    HW180203   6.361  11.408  10.782
92788SOL    HW280204   6.257  11.515  10.806
92789SOL     OW80205  11.695   9.644   7.677
92789SOL    HW180206  11.679   9.726   7.723
92789SOL    HW280207  11.695   9.578   7.746
92790SOL     OW80208   7.024  12.036  10.213
92790SOL    HW180209   7.045  12.084  10.293
92790SOL    HW280210   7.090  11.967  10.208
92791SOL     OW80211   3.031  11.527   1.606
92791SOL    HW180212   3.014  11.612   1.648
92791SOL    HW280213   3.123  11.532   1.579
92792SOL     OW80214   1.715   3.340   8.043
92792SOL    HW180215   1.724   3.331   8.138
92792SOL    HW280216   1.768   3.268   8.008
92793SOL     OW80217   6.021   2.993   5.126
92793SOL    HW180218   6.101   3.042   5.144
92793SOL    HW280219   5.973   3.048   5.064
92794SOL     OW80220   1.479   4.839  13.997
92794SOL    HW180221   1.558   4.790  14.020
92794SOL    HW280222   1.462   4.894  14.073
92795SOL     OW80223   1.357  12.785   9.009
92795SOL    HW180224   1.420  12.819   8.945
92795SOL    HW280225   1.343  12.694   8.984
92796SOL     OW80226  10.418   0.796  12.296
92796SOL    HW180227  10.419   0.701  12.297
92796SOL    HW280228  10.337   0.819  12.251
92797SOL     OW80229   3.181   1.419   8.776
92797SOL    HW180230   3.208   1.499   8.820
92797SOL    HW280231   3.183   1.352   8.845
92798SOL     OW80232  12.534   7.924   8.138
92798SOL    HW180233  12.483   7.973   8.073
92798SOL    HW280234  12.468   7.877   8.189
92799SOL     OW80235   9.564   6.537   6.755
92799SOL    HW180236   9.541   6.590   6.831
92799SOL    HW280237   9.660   6.540   6.751
92800SOL     OW80238   5.706   4.238   0.132
92800SOL    HW180239   5.773   4.203   0.191
92800SOL    HW280240   5.737   4.216   0.044
92801SOL     OW80241  12.744  12.029  14.720
92801SOL    HW180242  12.836  12.032  14.744
92801SOL    HW280243  12.728  12.113  14.678
92802SOL     OW80244  13.320   0.611  13.766
92802SOL    HW180245  13.254   0.668  13.806
92802SOL    HW280246  13.389   0.670  13.738
92803SOL     OW80247   5.714   2.488  12.699
92803SOL    HW180248   5.691   2.580  12.711
92803SOL    HW280249   5.801   2.490  12.660
92804SOL     OW80250  12.542   5.963   4.733
92804SOL    HW180251  12.459   5.948   4.687
92804SOL    HW280252  12.517   6.003   4.816
92805SOL     OW80253   5.605   7.210  11.010
92805SOL    HW180254   5.525   7.260  10.995
92805SOL    HW280255   5.674   7.276  11.010
92806SOL     OW80256   2.298   6.967   7.977
92806SOL    HW180257   2.316   6.886   8.025
92806SOL    HW280258   2.256   7.025   8.041
92807SOL     OW80259  13.716  12.966   0.865
92807SOL    HW180260  13.761  12.988   0.784
92807SOL    HW280261  13.737  13.038   0.925
92808SOL     OW80262   6.620  10.389   6.783
92808SOL    HW180263   6.623  10.294   6.797
92808SOL    HW280264   6.596  10.399   6.691
92809SOL     OW80265   4.489   5.503  10.962
92809SOL    HW180266   4.410   5.482  10.912
92809SOL    HW280267   4.455   5.538  11.045
92810SOL     OW80268   7.788   3.393  10.191
92810SOL    HW180269   7.732   3.356  10.258
92810SOL    HW280270   7.778   3.335  10.116
92811SOL     OW80271  11.280   0.100   4.898
92811SOL    HW180272  11.191   0.067   4.908
92811SOL    HW280273  11.326   0.031   4.851
92812SOL     OW80274   8.720   1.937  13.555
92812SOL    HW180275   8.753   1.917  13.467
92812SOL    HW280276   8.735   1.857  13.605
92813SOL     OW80277   0.587   9.890  10.280
92813SOL    HW180278   0.505   9.917  10.322
92813SOL    HW280279   0.622   9.822  10.337
92814SOL     OW80280  13.800   7.883  12.498
92814SOL    HW180281  13.764   7.819  12.436
92814SOL    HW280282  13.843   7.830  12.565
92815SOL     OW80283   8.381   4.688   5.748
92815SOL    HW180284   8.457   4.740   5.721
92815SOL    HW280285   8.369   4.625   5.677
92816SOL     OW80286   7.444  12.872   9.455
92816SOL    HW180287   7.423  12.909   9.369
92816SOL    HW280288   7.491  12.942   9.501
92817SOL     OW80289   2.622   0.043  11.830
92817SOL    HW180290   2.527   0.037  11.841
92817SOL    HW280291   2.640  14.868  11.750
92818SOL     OW80292  10.694  10.093   4.172
92818SOL    HW180293  10.656  10.025   4.117
92818SOL    HW280294  10.734  10.045   4.245
92819SOL     OW80295   5.280   1.636   1.318
92819SOL    HW180296   5.352   1.690   1.285
92819SOL    HW280297   5.256   1.580   1.245
92820SOL     OW80298   0.879  12.503   8.717
92820SOL    HW180299   0.917  12.518   8.804
92820SOL    HW280300   0.789  12.534   8.725
92821SOL     OW80301   4.370   0.982   9.092
92821SOL    HW180302   4.368   0.933   9.009
92821SOL    HW280303   4.355   1.073   9.065
92822SOL     OW80304   3.946   0.104   5.379
92822SOL    HW180305   3.927   0.011   5.389
92822SOL    HW280306   3.956   0.116   5.285
92823SOL     OW80307   3.422   1.167   3.333
92823SOL    HW180308   3.337   1.190   3.369
92823SOL    HW280309   3.459   1.105   3.396
92824SOL     OW80310  13.186   2.316   4.978
92824SOL    HW180311  13.112   2.282   4.928
92824SOL    HW280312  13.153   2.395   5.020
92825SOL     OW80313  14.418   4.778   1.429
92825SOL    HW180314  14.346   4.809   1.483
92825SOL    HW280315  14.494   4.829   1.457
92826SOL     OW80316  14.826   2.385   2.604
92826SOL    HW180317  14.807   2.291   2.613
92826SOL    HW280318   0.012   2.404   2.676
92827SOL     OW80319  12.603   6.161   6.922
92827SOL    HW180320  12.628   6.085   6.975
92827SOL    HW280321  12.663   6.160   6.848
92828SOL     OW80322  14.252   9.204   3.468
92828SOL    HW180323  14.175   9.168   3.512
92828SOL    HW280324  14.226   9.291   3.439
92829SOL     OW80325   3.744   9.282   4.083
92829SOL    HW180326   3.746   9.321   4.170
92829SOL    HW280327   3.791   9.344   4.027
92830SOL     OW80328   9.339   3.233   0.195
92830SOL    HW180329   9.415   3.181   0.169
92830SOL    HW280330   9.372   3.293   0.261
92831SOL     OW80331   9.873   4.519  13.367
92831SOL    HW180332   9.820   4.439  13.372
92831SOL    HW280333   9.959   4.493  13.399
92832SOL     OW80334   5.815   0.527   1.393
92832SOL    HW180335   5.793   0.501   1.482
92832SOL    HW280336   5.772   0.612   1.381
92833SOL     OW80337   9.669  11.676   4.972
92833SOL    HW180338   9.629  11.636   5.050
92833SOL    HW280339   9.754  11.633   4.965
92834SOL     OW80340   5.260   3.166   8.253
92834SOL    HW180341   5.212   3.171   8.336
92834SOL    HW280342   5.266   3.256   8.223
92835SOL     OW80343   7.014  11.586   5.652
92835SOL    HW180344   7.059  11.535   5.720
92835SOL    HW280345   6.939  11.532   5.628
92836SOL     OW80346   9.977  13.172   2.536
92836SOL    HW180347   9.942  13.141   2.619
92836SOL    HW280348   9.936  13.257   2.523
92837SOL     OW80349   3.982  14.281   9.546
92837SOL    HW180350   4.012  14.359   9.593
92837SOL    HW280351   3.900  14.308   9.505
92838SOL     OW80352  13.496  14.745   0.420
92838SOL    HW180353  13.526  14.691   0.493
92838SOL    HW280354  13.433  14.689   0.374
92839SOL     OW80355   4.647   9.144  12.902
92839SOL    HW180356   4.708   9.116  12.834
92839SOL    HW280357   4.590   9.069  12.915
92840SOL     OW80358   7.377  12.184   7.914
92840SOL    HW180359   7.353  12.221   7.999
92840SOL    HW280360   7.293  12.168   7.871
92841SOL     OW80361   3.866   0.378  12.648
92841SOL    HW180362   3.815   0.378  12.567
92841SOL    HW280363   3.866   0.286  12.677
92842SOL     OW80364   1.442   9.743   9.939
92842SOL    HW180365   1.412   9.664   9.894
92842SOL    HW280366   1.498   9.787   9.875
92843SOL     OW80367  14.773   8.525   4.809
92843SOL    HW180368  14.748   8.566   4.892
92843SOL    HW280369  14.862   8.493   4.825
92844SOL     OW80370  10.295  10.646   3.114
92844SOL    HW180371  10.380  10.626   3.075
92844SOL    HW280372  10.232  10.633   3.043
92845SOL     OW80373   6.287   6.134  11.437
92845SOL    HW180374   6.321   6.074  11.503
92845SOL    HW280375   6.230   6.194  11.485
92846SOL     OW80376   5.431   3.135   0.638
92846SOL    HW180377   5.434   3.180   0.553
92846SOL    HW280378   5.516   3.092   0.645
92847SOL     OW80379   6.693  10.090   4.010
92847SOL    HW180380   6.701  10.052   3.922
92847SOL    HW280381   6.608  10.133   4.010
92848SOL     OW80382   4.607   1.963  10.355
92848SOL    HW180383   4.577   1.882  10.315
92848SOL    HW280384   4.653   2.009  10.284
92849SOL     OW80385  13.586  12.212   9.098
92849SOL    HW180386  13.637  12.156   9.039
92849SOL    HW280387  13.605  12.179   9.185
92850SOL     OW80388   6.004  13.659  13.493
92850SOL    HW180389   5.919  13.692  13.522
92850SOL    HW280390   5.987  13.569  13.465
92851SOL     OW80391   0.752   8.907   2.551
92851SOL    HW180392   0.681   8.843   2.551
92851SOL    HW280393   0.725   8.972   2.486
92852SOL     OW80394   7.164   4.162  14.119
92852SOL    HW180395   7.205   4.115  14.191
92852SOL    HW280396   7.102   4.100  14.081
92853SOL     OW80397   5.441   8.176   8.424
92853SOL    HW180398   5.406   8.090   8.446
92853SOL    HW280399   5.370   8.219   8.375
92854SOL     OW80400   6.225   1.235   4.339
92854SOL    HW180401   6.211   1.282   4.257
92854SOL    HW280402   6.142   1.192   4.357
92855SOL     OW80403   1.894   5.550   2.989
92855SOL    HW180404   1.930   5.548   3.078
92855SOL    HW280405   1.958   5.502   2.936
92856SOL     OW80406   1.750   8.641   7.690
92856SOL    HW180407   1.693   8.623   7.765
92856SOL    HW280408   1.754   8.737   7.686
92857SOL     OW80409  12.852   8.669   3.183
92857SOL    HW180410  12.814   8.643   3.099
92857SOL    HW280411  12.777   8.677   3.242
92858SOL     OW80412   7.798   8.140   1.976
92858SOL    HW180413   7.823   8.191   2.054
92858SOL    HW280414   7.864   8.162   1.911
92859SOL     OW80415  11.562   5.406   8.048
92859SOL    HW180416  11.575   5.326   7.997
92859SOL    HW280417  11.614   5.394   8.127
92860SOL     OW80418   0.531   1.620   6.042
92860SOL    HW180419   0.489   1.615   6.127
92860SOL    HW280420   0.467   1.666   5.986
92861SOL     OW80421  12.516   2.275  10.776
92861SOL    HW180422  12.491   2.183  10.784
92861SOL    HW280423  12.448   2.323  10.823
92862SOL     OW80424   3.014  12.821   7.717
92862SOL    HW180425   3.007  12.865   7.802
92862SOL    HW280426   2.925  12.823   7.682
92863SOL     OW80427  11.881   7.549   2.230
92863SOL    HW180428  11.789   7.576   2.226
92863SOL    HW280429  11.889   7.480   2.164
92864SOL     OW80430  10.337  12.865   6.241
92864SOL    HW180431  10.337  12.898   6.151
92864SOL    HW280432  10.247  12.834   6.255
92865SOL     OW80433  13.017  14.478  13.780
92865SOL    HW180434  13.043  14.528  13.857
92865SOL    HW280435  13.070  14.399  13.784
92866SOL     OW80436   0.689   2.390  10.705
92866SOL    HW180437   0.621   2.432  10.759
92866SOL    HW280438   0.688   2.299  10.733
92867SOL     OW80439  10.944   8.379  12.258
92867SOL    HW180440  10.898   8.360  12.177
92867SOL    HW280441  10.947   8.475  12.261
92868SOL     OW80442   2.640   7.023  11.517
92868SOL    HW180443   2.606   6.952  11.463
92868SOL    HW280444   2.707   7.065  11.461
92869SOL     OW80445   1.160  11.987   5.089
92869SOL    HW180446   1.102  11.991   5.013
92869SOL    HW280447   1.114  11.929   5.150
92870SOL     OW80448  14.302  13.483   9.999
92870SOL    HW180449  14.347  13.543   9.941
92870SOL    HW280450  14.211  13.483   9.969
92871SOL     OW80451   5.705  12.207   8.523
92871SOL    HW180452   5.786  12.201   8.472
92871SOL    HW280453   5.663  12.122   8.513
92872SOL     OW80454  12.775   2.077   6.805
92872SOL    HW180455  12.782   2.093   6.711
92872SOL    HW280456  12.860   2.103   6.841
92873SOL     OW80457   1.374   1.667   2.048
92873SOL    HW180458   1.340   1.712   2.125
92873SOL    HW280459   1.301   1.666   1.987
92874SOL     OW80460   5.279   7.065  11.054
92874SOL    HW180461   5.341   7.112  10.998
92874SOL    HW280462   5.248   7.130  11.117
92875SOL     OW80463   6.508   7.739   2.297
92875SOL    HW180464   6.543   7.654   2.271
92875SOL    HW280465   6.583   7.799   2.289
92876SOL     OW80466   5.252  10.972   5.392
92876SOL    HW180467   5.270  10.940   5.304
92876SOL    HW280468   5.162  10.944   5.409
92877SOL     OW80469   8.621  10.359   2.878
92877SOL    HW180470   8.635  10.425   2.810
92877SOL    HW280471   8.612  10.410   2.959
92878SOL     OW80472  14.849   6.064  14.224
92878SOL    HW180473  14.854   5.969  14.223
92878SOL    HW280474  14.756   6.084  14.228
92879SOL     OW80475  12.654  11.937   7.992
92879SOL    HW180476  12.560  11.945   8.005
92879SOL    HW280477  12.693  11.983   8.066
92880SOL     OW80478   7.067  11.699  12.156
92880SOL    HW180479   7.028  11.625  12.109
92880SOL    HW280480   7.161  11.684  12.152
92881SOL     OW80481   5.524   2.164  10.492
92881SOL    HW180482   5.546   2.071  10.494
92881SOL    HW280483   5.441   2.170  10.540
92882SOL     OW80484   5.708   7.670   3.975
92882SOL    HW180485   5.719   7.761   4.000
92882SOL    HW280486   5.727   7.621   4.055
92883SOL     OW80487   8.881  10.345  14.476
92883SOL    HW180488   8.952  10.292  14.512
92883SOL    HW280489   8.808  10.331  14.536
92884SOL     OW80490   5.598   9.836  11.373
92884SOL    HW180491   5.579   9.863  11.283
92884SOL    HW280492   5.621   9.744  11.366
92885SOL     OW80493   6.793   3.283  14.259
92885SOL    HW180494   6.816   3.354  14.319
92885SOL    HW280495   6.748   3.219  14.313
92886SOL     OW80496   0.890   6.278   2.465
92886SOL    HW180497   0.919   6.315   2.381
92886SOL    HW280498   0.797   6.299   2.469
92887SOL     OW80499  13.386  14.658   5.211
92887SOL    HW180500  13.442  14.580   5.221
92887SOL    HW280501  13.448  14.730   5.201
92888SOL     OW80502   1.415   1.864   7.631
92888SOL    HW180503   1.445   1.876   7.541
92888SOL    HW280504   1.321   1.876   7.627
92889SOL     OW80505   7.051  11.715   6.441
92889SOL    HW180506   7.071  11.692   6.532
92889SOL    HW280507   7.102  11.652   6.390
92890SOL     OW80508   5.868   9.792   2.596
92890SOL    HW180509   5.897   9.825   2.681
92890SOL    HW280510   5.806   9.859   2.564
92891SOL     OW80511   3.660   5.240   0.674
92891SOL    HW180512   3.682   5.160   0.721
92891SOL    HW280513   3.732   5.300   0.695
92892SOL     OW80514  10.685   7.342   1.830
92892SOL    HW180515  10.747   7.386   1.772
92892SOL    HW280516  10.726   7.257   1.849
92893SOL     OW80517   6.906  10.473   7.103
92893SOL    HW180518   6.823  10.438   7.137
92893SOL    HW280519   6.946  10.399   7.058
92894SOL     OW80520   8.453  11.538   9.798
92894SOL    HW180521   8.485  11.508   9.713
92894SOL    HW280522   8.490  11.476   9.860
92895SOL     OW80523   3.448   8.297  12.602
92895SOL    HW180524   3.534   8.283  12.563
92895SOL    HW280525   3.434   8.392  12.597
92896SOL     OW80526   5.177   9.639   1.246
92896SOL    HW180527   5.095   9.687   1.259
92896SOL    HW280528   5.235   9.701   1.202
92897SOL     OW80529   1.763  12.960   8.612
92897SOL    HW180530   1.694  13.026   8.610
92897SOL    HW280531   1.845  13.010   8.611
92898SOL     OW80532   9.259  11.555  14.564
92898SOL    HW180533   9.195  11.506  14.513
92898SOL    HW280534   9.291  11.623  14.505
92899SOL     OW80535  13.354  10.432  13.314
92899SOL    HW180536  13.391  10.460  13.398
92899SOL    HW280537  13.260  10.433  13.327
92900SOL     OW80538   6.938   4.491  13.177
92900SOL    HW180539   6.890   4.471  13.097
92900SOL    HW280540   6.992   4.413  13.192
92901SOL     OW80541   7.106   8.092   0.260
92901SOL    HW180542   7.074   8.105   0.350
92901SOL    HW280543   7.033   8.049   0.215
92902SOL     OW80544   8.119   3.510   3.026
92902SOL    HW180545   8.036   3.530   3.071
92902SOL    HW280546   8.186   3.530   3.091
92903SOL     OW80547   2.369  11.595  13.339
92903SOL    HW180548   2.316  11.589  13.419
92903SOL    HW280549   2.414  11.511  13.334
92904SOL     OW80550  11.799   8.407   7.095
92904SOL    HW180551  11.764   8.486   7.055
92904SOL    HW280552  11.768   8.336   7.039
92905SOL     OW80553  13.789  12.568   3.381
92905SOL    HW180554  13.707  12.554   3.427
92905SOL    HW280555  13.782  12.515   3.302
92906SOL     OW80556   4.489   6.577   8.427
92906SOL    HW180557   4.445   6.530   8.356
92906SOL    HW280558   4.509   6.663   8.390
92907SOL     OW80559   1.288   7.280   8.712
92907SOL    HW180560   1.358   7.261   8.649
92907SOL    HW280561   1.334   7.294   8.794
92908SOL     OW80562   2.122   8.306   3.256
92908SOL    HW180563   2.119   8.394   3.218
92908SOL    HW280564   2.101   8.248   3.183
92909SOL     OW80565  14.532   7.065   8.709
92909SOL    HW180566  14.594   6.998   8.738
92909SOL    HW280567  14.451   7.045   8.755
92910SOL     OW80568   4.109  10.618  11.087
92910SOL    HW180569   4.149  10.694  11.044
92910SOL    HW280570   4.059  10.656  11.160
92911SOL     OW80571   9.166   4.295   4.920
92911SOL    HW180572   9.117   4.376   4.933
92911SOL    HW280573   9.158   4.249   5.004
92912SOL     OW80574   9.468   7.647   6.523
92912SOL    HW180575   9.472   7.686   6.435
92912SOL    HW280576   9.380   7.667   6.554
92913SOL     OW80577   7.711   8.648   2.499
92913SOL    HW180578   7.725   8.677   2.409
92913SOL    HW280579   7.683   8.727   2.545
92914SOL     OW80580  13.334   4.018   1.436
92914SOL    HW180581  13.367   4.007   1.347
92914SOL    HW280582  13.240   4.031   1.426
92915SOL     OW80583  12.989   7.575   6.151
92915SOL    HW180584  13.040   7.645   6.110
92915SOL    HW280585  13.032   7.494   6.123
92916SOL     OW80586   0.326   6.847   5.704
92916SOL    HW180587   0.410   6.840   5.749
92916SOL    HW280588   0.306   6.940   5.704
92917SOL     OW80589   6.134   5.506  12.698
92917SOL    HW180590   6.228   5.489  12.710
92917SOL    HW280591   6.103   5.533  12.785
92918SOL     OW80592  14.529   6.239   5.062
92918SOL    HW180593  14.579   6.173   5.110
92918SOL    HW280594  14.579   6.320   5.074
92919SOL     OW80595   9.977   9.500   7.364
92919SOL    HW180596   9.905   9.561   7.347
92919SOL    HW280597  10.050   9.555   7.390
92920SOL     OW80598  11.463   4.514  14.841
92920SOL    HW180599  11.446   4.591  14.788
92920SOL    HW280600  11.401   4.520   0.040
92921SOL     OW80601   7.236   7.416   1.712
92921SOL    HW180602   7.256   7.324   1.732
92921SOL    HW280603   7.321   7.455   1.691
92922SOL     OW80604   9.033  12.414   9.984
92922SOL    HW180605   9.088  12.489  10.009
92922SOL    HW280606   9.093  12.339   9.985
92923SOL     OW80607   9.369  10.005  13.285
92923SOL    HW180608   9.288   9.959  13.263
92923SOL    HW280609   9.378  10.073  13.218
92924SOL     OW80610   6.556  12.113   5.899
92924SOL    HW180611   6.579  12.155   5.982
92924SOL    HW280612   6.586  12.175   5.832
92925SOL     OW80613  14.755   4.426   9.303
92925SOL    HW180614  14.822   4.374   9.348
92925SOL    HW280615  14.672   4.392   9.336
92926SOL     OW80616   9.988   9.946   3.653
92926SOL    HW180617  10.019  10.036   3.652
92926SOL    HW280618  10.055   9.899   3.704
92927SOL     OW80619  12.525   1.034  10.895
92927SOL    HW180620  12.498   1.087  10.820
92927SOL    HW280621  12.537   0.946  10.860
92928SOL     OW80622   9.922   4.666   5.582
92928SOL    HW180623   9.880   4.751   5.595
92928SOL    HW280624   9.940   4.662   5.488
92929SOL     OW80625   6.909   6.069  12.158
92929SOL    HW180626   6.951   6.025  12.084
92929SOL    HW280627   6.976   6.128  12.192
92930SOL     OW80628  12.150   0.469  13.377
92930SOL    HW180629  12.210   0.466  13.452
92930SOL    HW280630  12.081   0.406  13.398
92931SOL     OW80631   8.746   1.617   1.313
92931SOL    HW180632   8.670   1.561   1.298
92931SOL    HW280633   8.792   1.577   1.386
92932SOL     OW80634  11.636  11.026  13.988
92932SOL    HW180635  11.625  11.030  13.893
92932SOL    HW280636  11.694  11.099  14.009
92933SOL     OW80637  13.230   8.525   0.113
92933SOL    HW180638  13.204   8.591   0.178
92933SOL    HW280639  13.322   8.509   0.131
92934SOL     OW80640   1.736   5.608   5.814
92934SOL    HW180641   1.685   5.559   5.879
92934SOL    HW280642   1.752   5.545   5.744
92935SOL     OW80643  11.431   0.919  12.717
92935SOL    HW180644  11.481   0.839  12.735
92935SOL    HW280645  11.413   0.956  12.803
92936SOL     OW80646   2.582   8.386  14.530
92936SOL    HW180647   2.616   8.368  14.443
92936SOL    HW280648   2.519   8.316  14.546
92937SOL     OW80649   6.558   2.615   1.962
92937SOL    HW180650   6.550   2.573   2.048
92937SOL    HW280651   6.641   2.583   1.927
92938SOL     OW80652   6.544  14.542   5.462
92938SOL    HW180653   6.486  14.617   5.447
92938SOL    HW280654   6.514  14.505   5.544
92939SOL     OW80655   1.936  11.406   0.598
92939SOL    HW180656   2.029  11.385   0.584
92939SOL    HW280657   1.922  11.388   0.691
92940SOL     OW80658   1.336  14.266   9.775
92940SOL    HW180659   1.349  14.249   9.682
92940SOL    HW280660   1.333  14.361   9.782
92941SOL     OW80661   9.182   1.567  13.071
92941SOL    HW180662   9.093   1.536  13.087
92941SOL    HW280663   9.233   1.488  13.055
92942SOL     OW80664   9.370  11.679   9.685
92942SOL    HW180665   9.395  11.706   9.597
92942SOL    HW280666   9.452  11.678   9.735
92943SOL     OW80667   2.480   6.579  13.591
92943SOL    HW180668   2.561   6.582  13.541
92943SOL    HW280669   2.453   6.487  13.588
92944SOL     OW80670  10.383  11.651  12.362
92944SOL    HW180671  10.477  11.667  12.354
92944SOL    HW280672  10.374  11.556  12.355
92945SOL     OW80673   7.824  10.883   4.785
92945SOL    HW180674   7.828  10.932   4.703
92945SOL    HW280675   7.781  10.800   4.762
92946SOL     OW80676   7.244   5.796  10.792
92946SOL    HW180677   7.250   5.884  10.829
92946SOL    HW280678   7.300   5.798  10.715
92947SOL     OW80679   8.912   8.890   8.751
92947SOL    HW180680   8.961   8.953   8.804
92947SOL    HW280681   8.977   8.826   8.723
92948SOL     OW80682   6.151   9.614  13.338
92948SOL    HW180683   6.170   9.669  13.262
92948SOL    HW280684   6.057   9.597  13.334
92949SOL     OW80685   3.005  13.050   3.763
92949SOL    HW180686   3.096  13.080   3.761
92949SOL    HW280687   2.974  13.073   3.850
92950SOL     OW80688  13.541  13.501   6.581
92950SOL    HW180689  13.510  13.525   6.668
92950SOL    HW280690  13.635  13.515   6.584
92951SOL     OW80691   8.028  14.156  13.019
92951SOL    HW180692   8.108  14.108  12.998
92951SOL    HW280693   8.049  14.202  13.101
92952SOL     OW80694   0.610   1.023   8.054
92952SOL    HW180695   0.670   1.088   8.017
92952SOL    HW280696   0.535   1.024   7.994
92953SOL     OW80697  13.048   5.065  10.211
92953SOL    HW180698  13.096   5.060  10.293
92953SOL    HW280699  13.015   5.155  10.207
92954SOL     OW80700  12.439   4.376   9.977
92954SOL    HW180701  12.403   4.436   9.912
92954SOL    HW280702  12.530   4.363   9.950
92955SOL     OW80703   3.971   3.094   9.481
92955SOL    HW180704   3.969   3.005   9.518
92955SOL    HW280705   4.056   3.100   9.437
92956SOL     OW80706  11.967   2.535  14.530
92956SOL    HW180707  11.937   2.605  14.589
92956SOL    HW280708  11.895   2.472  14.531
92957SOL     OW80709   3.414   2.682  12.744
92957SOL    HW180710   3.399   2.590  12.721
92957SOL    HW280711   3.327   2.722  12.741
92958SOL     OW80712  10.985   5.665   7.805
92958SOL    HW180713  10.977   5.724   7.880
92958SOL    HW280714  10.895   5.639   7.786
92959SOL     OW80715  10.391  10.666   1.572
92959SOL    HW180716  10.331  10.634   1.639
92959SOL    HW280717  10.468  10.610   1.580
92960SOL     OW80718   1.367  13.472   2.056
92960SOL    HW180719   1.417  13.552   2.039
92960SOL    HW280720   1.276  13.501   2.062
92961SOL     OW80721   4.596   8.854  12.890
92961SOL    HW180722   4.684   8.828  12.919
92961SOL    HW280723   4.582   8.804  12.810
92962SOL     OW80724   2.477   5.159   6.065
92962SOL    HW180725   2.486   5.214   6.142
92962SOL    HW280726   2.414   5.092   6.089
92963SOL     OW80727   5.761   6.880  14.293
92963SOL    HW180728   5.722   6.915  14.373
92963SOL    HW280729   5.713   6.922  14.222
92964SOL     OW80730   4.366   6.756   9.870
92964SOL    HW180731   4.444   6.797   9.908
92964SOL    HW280732   4.328   6.707   9.942
92965SOL     OW80733   8.508   7.037   4.548
92965SOL    HW180734   8.474   7.085   4.472
92965SOL    HW280735   8.437   7.041   4.612
92966SOL     OW80736   4.553   5.207   4.606
92966SOL    HW180737   4.640   5.246   4.617
92966SOL    HW280738   4.507   5.268   4.548
92967SOL     OW80739   4.203  11.853   8.040
92967SOL    HW180740   4.222  11.888   8.128
92967SOL    HW280741   4.128  11.796   8.053
92968SOL     OW80742  10.489   6.049   8.829
92968SOL    HW180743  10.539   6.036   8.910
92968SOL    HW280744  10.532   6.123   8.787
92969SOL     OW80745   1.029   5.434  11.518
92969SOL    HW180746   0.980   5.492  11.576
92969SOL    HW280747   1.083   5.381  11.577
92970SOL     OW80748   7.245   6.727   1.008
92970SOL    HW180749   7.255   6.770   0.923
92970SOL    HW280750   7.151   6.712   1.016
92971SOL     OW80751   3.691  14.179  14.528
92971SOL    HW180752   3.769  14.228  14.504
92971SOL    HW280753   3.715  14.087  14.514
92972SOL     OW80754   7.584  13.304  10.062
92972SOL    HW180755   7.649  13.234  10.067
92972SOL    HW280756   7.554  13.316  10.152
92973SOL     OW80757  13.836   4.722   0.031
92973SOL    HW180758  13.871   4.784  14.841
92973SOL    HW280759  13.747   4.752   0.049
92974SOL     OW80760  11.037   5.465   9.056
92974SOL    HW180761  11.023   5.449   9.149
92974SOL    HW280762  10.952   5.494   9.023
92975SOL     OW80763  10.749   6.897   3.309
92975SOL    HW180764  10.667   6.926   3.270
92975SOL    HW280765  10.744   6.802   3.308
92976SOL     OW80766   3.482  14.643   6.091
92976SOL    HW180767   3.546  14.574   6.074
92976SOL    HW280768   3.534  14.721   6.108
92977SOL     OW80769  14.675  12.045  11.992
92977SOL    HW180770  14.659  11.951  11.984
92977SOL    HW280771  14.630  12.070  12.073
92978SOL     OW80772  13.555   1.682   1.303
92978SOL    HW180773  13.545   1.710   1.394
92978SOL    HW280774  13.619   1.742   1.266
92979SOL     OW80775  11.357   9.472   7.601
92979SOL    HW180776  11.402   9.410   7.542
92979SOL    HW280777  11.307   9.528   7.542
92980SOL     OW80778   4.221   1.356  10.639
92980SOL    HW180779   4.181   1.417  10.577
92980SOL    HW280780   4.199   1.269  10.604
92981SOL     OW80781  11.719   9.267  11.871
92981SOL    HW180782  11.644   9.257  11.812
92981SOL    HW280783  11.738   9.178  11.901
92982SOL     OW80784  12.616  14.488  11.079
92982SOL    HW180785  12.619  14.410  11.134
92982SOL    HW280786  12.530  14.484  11.037
92983SOL     OW80787   5.895  11.169  14.066
92983SOL    HW180788   5.892  11.265  14.058
92983SOL    HW280789   5.807  11.141  14.041
92984SOL     OW80790   5.447   0.896  10.532
92984SOL    HW180791   5.365   0.942  10.514
92984SOL    HW280792   5.484   0.878  10.446
92985SOL     OW80793   1.679  14.012   8.643
92985SOL    HW180794   1.649  14.082   8.584
92985SOL    HW280795   1.738  13.960   8.589
92986SOL     OW80796  10.696   0.710   2.009
92986SOL    HW180797  10.728   0.651   1.941
92986SOL    HW280798  10.731   0.796   1.984
92987SOL     OW80799   8.855   4.269  10.086
92987SOL    HW180800   8.876   4.271  10.179
92987SOL    HW280801   8.871   4.359  10.056
92988SOL     OW80802   9.538  11.614  14.413
92988SOL    HW180803   9.522  11.538  14.357
92988SOL    HW280804   9.602  11.583  14.477
92989SOL     OW80805  11.270  10.344  14.591
92989SOL    HW180806  11.182  10.307  14.586
92989SOL    HW280807  11.256  10.435  14.619
92990SOL     OW80808   8.292   8.281   1.261
92990SOL    HW180809   8.287   8.328   1.344
92990SOL    HW280810   8.248   8.337   1.198
92991SOL     OW80811  10.322   3.863   3.494
92991SOL    HW180812  10.378   3.825   3.562
92991SOL    HW280813  10.307   3.791   3.433
92992SOL     OW80814   0.764   4.134   3.576
92992SOL    HW180815   0.811   4.056   3.547
92992SOL    HW280816   0.739   4.178   3.495
92993SOL     OW80817  11.466   6.893   3.302
92993SOL    HW180818  11.445   6.887   3.395
92993SOL    HW280819  11.390   6.938   3.264
92994SOL     OW80820   2.036   0.676   7.874
92994SOL    HW180821   2.026   0.736   7.948
92994SOL    HW280822   2.112   0.623   7.897
92995SOL     OW80823   3.791   3.506   0.022
92995SOL    HW180824   3.841   3.531  14.818
92995SOL    HW280825   3.847   3.442   0.066
92996SOL     OW80826   4.370   3.011   2.864
92996SOL    HW180827   4.432   2.939   2.880
92996SOL    HW280828   4.314   2.978   2.794
92997SOL     OW80829  11.107  11.274   0.884
92997SOL    HW180830  11.097  11.185   0.919
92997SOL    HW280831  11.200  11.292   0.892
92998SOL     OW80832   4.000   5.559   9.849
92998SOL    HW180833   4.082   5.608   9.849
92998SOL    HW280834   4.013   5.490   9.914
92999SOL     OW80835   4.783   8.944  14.865
92999SOL    HW180836   4.824   8.980  14.787
92999SOL    HW280837   4.822   8.857   0.001
93000SOL     OW80838  13.437   0.554  14.537
93000SOL    HW180839  13.423   0.622  14.602
93000SOL    HW280840  13.488   0.597  14.468
93001SOL     OW80841  13.203  11.731   6.045
93001SOL    HW180842  13.219  11.705   6.136
93001SOL    HW280843  13.275  11.791   6.025
93002SOL     OW80844  11.823   3.272  11.338
93002SOL    HW180845  11.831   3.285  11.243
93002SOL    HW280846  11.910   3.295  11.372
93003SOL     OW80847   0.484   5.808  10.421
93003SOL    HW180848   0.397   5.830  10.387
93003SOL    HW280849   0.543   5.826  10.347
93004SOL     OW80850   3.695   7.110   6.064
93004SOL    HW180851   3.664   7.183   6.119
93004SOL    HW280852   3.702   7.036   6.125
93005SOL     OW80853   3.702  14.162  13.812
93005SOL    HW180854   3.636  14.141  13.747
93005SOL    HW280855   3.785  14.137  13.772
93006SOL     OW80856  10.901  10.289   2.376
93006SOL    HW180857  10.825  10.301   2.433
93006SOL    HW280858  10.932  10.378   2.359
93007SOL     OW80859   9.461   6.659   3.848
93007SOL    HW180860   9.528   6.661   3.917
93007SOL    HW280861   9.441   6.751   3.831
93008SOL     OW80862   0.804   3.418   3.657
93008SOL    HW180863   0.883   3.468   3.678
93008SOL    HW280864   0.738   3.452   3.717
93009SOL     OW80865   6.019  10.653   4.704
93009SOL    HW180866   5.926  10.645   4.684
93009SOL    HW280867   6.063  10.640   4.620
93010SOL     OW80868   0.186  10.439   0.250
93010SOL    HW180869   0.266  10.480   0.216
93010SOL    HW280870   0.216  10.361   0.296
93011SOL     OW80871   2.910   6.181   0.719
93011SOL    HW180872   2.845   6.141   0.777
93011SOL    HW280873   2.871   6.176   0.632
93012SOL     OW80874   4.164   5.486   3.951
93012SOL    HW180875   4.086   5.478   3.896
93012SOL    HW280876   4.191   5.396   3.966
93013SOL     OW80877   2.321  11.508   4.636
93013SOL    HW180878   2.275  11.521   4.720
93013SOL    HW280879   2.267  11.443   4.590
93014SOL     OW80880  10.371   6.043   7.173
93014SOL    HW180881  10.345   6.130   7.203
93014SOL    HW280882  10.391   6.054   7.080
93015SOL     OW80883   8.209   3.677   7.431
93015SOL    HW180884   8.289   3.705   7.387
93015SOL    HW280885   8.222   3.700   7.523
93016SOL     OW80886  12.802  10.099   8.490
93016SOL    HW180887  12.748  10.177   8.479
93016SOL    HW280888  12.794  10.052   8.407
93017SOL     OW80889   5.567   3.217   1.925
93017SOL    HW180890   5.661   3.220   1.909
93017SOL    HW280891   5.537   3.307   1.911
93018SOL     OW80892  11.305  13.550   7.692
93018SOL    HW180893  11.318  13.500   7.773
93018SOL    HW280894  11.257  13.629   7.720
93019SOL     OW80895  10.240  12.583   1.581
93019SOL    HW180896  10.302  12.514   1.555
93019SOL    HW280897  10.293  12.663   1.580
93020SOL     OW80898   2.549  13.416  13.976
93020SOL    HW180899   2.564  13.504  13.942
93020SOL    HW280900   2.456  13.415  14.000
93021SOL     OW80901  14.463  10.525   2.133
93021SOL    HW180902  14.513  10.514   2.214
93021SOL    HW280903  14.372  10.533   2.161
93022SOL     OW80904   6.606   0.947  12.055
93022SOL    HW180905   6.515   0.944  12.027
93022SOL    HW280906   6.641   0.861  12.033
93023SOL     OW80907   2.812   2.773   2.164
93023SOL    HW180908   2.767   2.690   2.181
93023SOL    HW280909   2.846   2.764   2.075
93024SOL     OW80910   5.751  10.374  13.780
93024SOL    HW180911   5.761  10.461  13.740
93024SOL    HW280912   5.756  10.390  13.874
93025SOL     OW80913  10.168   7.718   5.245
93025SOL    HW180914  10.131   7.788   5.191
93025SOL    HW280915  10.238   7.681   5.191
93026SOL     OW80916  13.459   4.066  11.084
93026SOL    HW180917  13.497   3.980  11.068
93026SOL    HW280918  13.387   4.073  11.020
93027SOL     OW80919   1.108   4.050   7.747
93027SOL    HW180920   1.038   4.022   7.688
93027SOL    HW280921   1.067   4.112   7.806
93028SOL     OW80922  14.630   0.773  11.741
93028SOL    HW180923  14.662   0.757  11.829
93028SOL    HW280924  14.535   0.765  11.747
93029SOL     OW80925  13.579  10.890   8.926
93029SOL    HW180926  13.486  10.871   8.939
93029SOL    HW280927  13.582  10.946   8.848
93030SOL     OW80928   6.915   8.166   7.932
93030SOL    HW180929   6.913   8.181   7.837
93030SOL    HW280930   6.898   8.072   7.941
93031SOL     OW80931   1.635  10.304  12.996
93031SOL    HW180932   1.586  10.373  12.951
93031SOL    HW280933   1.725  10.313  12.964
93032SOL     OW80934   0.991   9.850   0.052
93032SOL    HW180935   1.053   9.922   0.039
93032SOL    HW280936   1.037   9.790   0.111
93033SOL     OW80937  10.413  13.705   3.981
93033SOL    HW180938  10.398  13.668   3.894
93033SOL    HW280939  10.509  13.707   3.991
93034SOL     OW80940  10.955   3.365   7.471
93034SOL    HW180941  10.967   3.307   7.546
93034SOL    HW280942  11.044   3.385   7.442
93035SOL     OW80943   0.178   3.699   4.373
93035SOL    HW180944   0.147   3.715   4.284
93035SOL    HW280945   0.116   3.745   4.429
93036SOL     OW80946   6.324   5.061   6.754
93036SOL    HW180947   6.361   5.067   6.665
93036SOL    HW280948   6.282   4.976   6.756
93037SOL     OW80949  12.470  12.751   9.236
93037SOL    HW180950  12.529  12.797   9.176
93037SOL    HW280951  12.394  12.729   9.184
93038SOL     OW80952   2.814   6.587   8.689
93038SOL    HW180953   2.743   6.624   8.637
93038SOL    HW280954   2.839   6.657   8.749
93039SOL     OW80955   8.665  11.499   7.382
93039SOL    HW180956   8.713  11.537   7.309
93039SOL    HW280957   8.732  11.452   7.433
93040SOL     OW80958   1.809  12.012   7.860
93040SOL    HW180959   1.715  12.029   7.865
93040SOL    HW280960   1.820  11.924   7.895
93041SOL     OW80961  14.031   5.284   2.362
93041SOL    HW180962  14.121   5.311   2.345
93041SOL    HW280963  13.997   5.254   2.278
93042SOL     OW80964   2.463  12.971  10.230
93042SOL    HW180965   2.486  13.021  10.309
93042SOL    HW280966   2.515  12.891  10.236
93043SOL     OW80967   7.925  14.062   7.621
93043SOL    HW180968   7.879  13.981   7.641
93043SOL    HW280969   8.014  14.047   7.653
93044SOL     OW80970   3.196   9.835   1.448
93044SOL    HW180971   3.138   9.883   1.389
93044SOL    HW280972   3.268   9.806   1.393
93045SOL     OW80973   0.653   6.570   3.364
93045SOL    HW180974   0.636   6.520   3.284
93045SOL    HW280975   0.642   6.507   3.435
93046SOL     OW80976   4.100   0.806   9.390
93046SOL    HW180977   4.103   0.836   9.481
93046SOL    HW280978   4.147   0.723   9.391
93047SOL     OW80979   5.770   4.932  13.112
93047SOL    HW180980   5.709   4.978  13.055
93047SOL    HW280981   5.849   4.987  13.114
93048SOL     OW80982   2.430   7.937   9.994
93048SOL    HW180983   2.370   7.963   9.925
93048SOL    HW280984   2.453   8.018  10.038
93049SOL     OW80985   7.130   0.601  11.330
93049SOL    HW180986   7.136   0.690  11.296
93049SOL    HW280987   7.199   0.594  11.396
93050SOL     OW80988   6.720   6.802  11.900
93050SOL    HW180989   6.723   6.875  11.962
93050SOL    HW280990   6.743   6.841  11.816
93051SOL     OW80991   3.443   9.894  11.726
93051SOL    HW180992   3.509   9.874  11.659
93051SOL    HW280993   3.458   9.829  11.795
93052SOL     OW80994  13.716   6.655   2.073
93052SOL    HW180995  13.624   6.647   2.096
93052SOL    HW280996  13.748   6.729   2.125
93053SOL     OW80997  13.987   0.466   0.716
93053SOL    HW180998  14.078   0.492   0.728
93053SOL    HW280999  13.942   0.548   0.693
93054SOL     OW81000   9.833   2.476  12.006
93054SOL    HW181001   9.760   2.520  11.962
93054SOL    HW281002   9.797   2.446  12.089
93055SOL     OW81003  11.858   5.946   7.304
93055SOL    HW181004  11.870   6.033   7.343
93055SOL    HW281005  11.862   5.961   7.209
93056SOL     OW81006  14.785  12.906   3.494
93056SOL    HW181007  14.698  12.943   3.483
93056SOL    HW281008  14.804  12.914   3.588
93057SOL     OW81009  12.127   9.314   7.690
93057SOL    HW181010  12.090   9.291   7.775
93057SOL    HW281011  12.158   9.230   7.654
93058SOL     OW81012   9.860   7.097  13.036
93058SOL    HW181013   9.802   7.125  13.107
93058SOL    HW281014   9.801   7.071  12.965
93059SOL     OW81015   2.411   4.322   0.904
93059SOL    HW181016   2.459   4.344   0.824
93059SOL    HW281017   2.458   4.248   0.941
93060SOL     OW81018   2.712  10.248   5.102
93060SOL    HW181019   2.769  10.189   5.151
93060SOL    HW281020   2.767  10.279   5.030
93061SOL     OW81021  12.891   7.852  14.287
93061SOL    HW181022  12.865   7.935  14.326
93061SOL    HW281023  12.842   7.846  14.205
93062SOL     OW81024   3.988   6.834   1.167
93062SOL    HW181025   4.006   6.868   1.080
93062SOL    HW281026   3.893   6.828   1.172
93063SOL     OW81027   0.055   0.458  11.692
93063SOL    HW181028   0.063   0.535  11.748
93063SOL    HW281029  14.836   0.452  11.672
93064SOL     OW81030  12.539   1.978   0.773
93064SOL    HW181031  12.616   1.924   0.759
93064SOL    HW281032  12.556   2.025   0.855
93065SOL     OW81033   0.372   1.482  13.973
93065SOL    HW181034   0.417   1.413  13.924
93065SOL    HW281035   0.423   1.492  14.053
93066SOL     OW81036   8.137   7.672   4.852
93066SOL    HW181037   8.154   7.696   4.943
93066SOL    HW281038   8.047   7.701   4.836
93067SOL     OW81039   1.539  10.991  11.784
93067SOL    HW181040   1.602  11.063  11.775
93067SOL    HW281041   1.552  10.959  11.873
93068SOL     OW81042   0.287   5.280   5.785
93068SOL    HW181043   0.299   5.374   5.775
93068SOL    HW281044   0.286   5.266   5.880
93069SOL     OW81045  10.972   8.935  12.455
93069SOL    HW181046  10.980   8.841  12.466
93069SOL    HW281047  11.016   8.972  12.532
93070SOL     OW81048   2.598   9.429   0.136
93070SOL    HW181049   2.612   9.334   0.135
93070SOL    HW281050   2.628   9.458   0.050
93071SOL     OW81051   1.731  13.538   5.907
93071SOL    HW181052   1.729  13.518   6.001
93071SOL    HW281053   1.639  13.533   5.879
93072SOL     OW81054   5.429   8.123   0.872
93072SOL    HW181055   5.407   8.036   0.907
93072SOL    HW281056   5.438   8.109   0.778
93073SOL     OW81057   7.446  13.088   7.100
93073SOL    HW181058   7.419  13.004   7.062
93073SOL    HW281059   7.523  13.066   7.153
93074SOL     OW81060   2.147   2.837  11.259
93074SOL    HW181061   2.113   2.814  11.345
93074SOL    HW281062   2.196   2.918  11.273
93075SOL     OW81063   9.078   3.258   9.819
93075SOL    HW181064   8.996   3.209   9.830
93075SOL    HW281065   9.080   3.318   9.893
93076SOL     OW81066   0.603  13.251  10.312
93076SOL    HW181067   0.623  13.342  10.290
93076SOL    HW281068   0.528  13.229  10.256
93077SOL     OW81069  14.037   1.789   1.244
93077SOL    HW181070  13.980   1.842   1.300
93077SOL    HW281071  14.107   1.758   1.301
93078SOL     OW81072   3.257  10.925   5.009
93078SOL    HW181073   3.268  10.853   4.947
93078SOL    HW281074   3.245  11.002   4.954
93079SOL     OW81075   1.607   0.262   3.001
93079SOL    HW181076   1.569   0.285   2.916
93079SOL    HW281077   1.697   0.235   2.980
93080SOL     OW81078  12.507   9.411  11.407
93080SOL    HW181079  12.445   9.441  11.340
93080SOL    HW281080  12.508   9.316  11.396
93081SOL     OW81081   7.884  14.472  14.244
93081SOL    HW181082   7.800  14.449  14.283
93081SOL    HW281083   7.866  14.485  14.151
93082SOL     OW81084   5.709  12.371   7.035
93082SOL    HW181085   5.688  12.464   7.044
93082SOL    HW281086   5.664  12.344   6.955
93083SOL     OW81087  11.227   6.255   8.509
93083SOL    HW181088  11.179   6.197   8.449
93083SOL    HW281089  11.279   6.196   8.563
93084SOL     OW81090  14.515   2.860  12.919
93084SOL    HW181091  14.437   2.851  12.972
93084SOL    HW281092  14.570   2.785  12.943
93085SOL     OW81093  12.664   7.245   8.034
93085SOL    HW181094  12.610   7.173   8.066
93085SOL    HW281095  12.613   7.324   8.054
93086SOL     OW81096   0.969  11.287   8.160
93086SOL    HW181097   0.970  11.193   8.139
93086SOL    HW281098   0.959  11.330   8.075
93087SOL     OW81099  12.616  12.668   7.711
93087SOL    HW181100  12.697  12.692   7.756
93087SOL    HW281101  12.637  12.677   7.618
93088SOL     OW81102   6.478   2.205   5.236
93088SOL    HW181103   6.462   2.190   5.329
93088SOL    HW281104   6.499   2.118   5.201
93089SOL     OW81105   8.227   7.925   0.955
93089SOL    HW181106   8.186   8.010   0.973
93089SOL    HW281107   8.168   7.861   0.992
93090SOL     OW81108   3.806  14.590   8.997
93090SOL    HW181109   3.763  14.664   9.040
93090SOL    HW281110   3.868  14.557   9.062
93091SOL     OW81111  14.444   3.086   3.301
93091SOL    HW181112  14.535   3.090   3.333
93091SOL    HW281113  14.401   3.159   3.344
93092SOL     OW81114   3.419   0.663   0.385
93092SOL    HW181115   3.378   0.585   0.348
93092SOL    HW281116   3.512   0.651   0.371
93093SOL     OW81117   4.791   1.767  14.298
93093SOL    HW181118   4.823   1.857  14.304
93093SOL    HW281119   4.718   1.772  14.237
93094SOL     OW81120   0.040   8.653  12.440
93094SOL    HW181121   0.071   8.654  12.531
93094SOL    HW281122  14.819   8.661  12.448
93095SOL     OW81123   8.243  12.600   5.392
93095SOL    HW181124   8.283  12.514   5.381
93095SOL    HW281125   8.217  12.626   5.303
93096SOL     OW81126   1.164  13.058   5.795
93096SOL    HW181127   1.108  12.987   5.825
93096SOL    HW281128   1.179  13.112   5.872
93097SOL     OW81129   6.405   2.397  11.252
93097SOL    HW181130   6.460   2.330  11.210
93097SOL    HW281131   6.317   2.362  11.249
93098SOL     OW81132  11.215   3.454  10.565
93098SOL    HW181133  11.174   3.536  10.594
93098SOL    HW281134  11.278   3.433  10.634
93099SOL     OW81135  11.150   5.597   7.598
93099SOL    HW181136  11.241   5.629   7.601
93099SOL    HW281137  11.110   5.633   7.677
93100SOL     OW81138   9.226   6.696  14.087
93100SOL    HW181139   9.275   6.673  14.009
93100SOL    HW281140   9.153   6.634  14.090
93101SOL     OW81141  11.528  11.179   4.389
93101SOL    HW181142  11.523  11.196   4.295
93101SOL    HW281143  11.481  11.097   4.402
93102SOL     OW81144  13.619   5.041   5.691
93102SOL    HW181145  13.660   5.122   5.723
93102SOL    HW281146  13.598   4.993   5.771
93103SOL     OW81147   0.781   0.614   3.687
93103SOL    HW181148   0.755   0.623   3.778
93103SOL    HW281149   0.876   0.600   3.690
93104SOL     OW81150   7.804   6.895  10.419
93104SOL    HW181151   7.810   6.890  10.323
93104SOL    HW281152   7.809   6.988  10.438
93105SOL     OW81153   3.487   0.763   9.416
93105SOL    HW181154   3.581   0.752   9.431
93105SOL    HW281155   3.457   0.678   9.386
93106SOL     OW81156   8.365   4.036   2.024
93106SOL    HW181157   8.460   4.034   2.027
93106SOL    HW281158   8.343   4.098   1.954
93107SOL     OW81159   1.837   8.749   0.024
93107SOL    HW181160   1.805   8.781   0.108
93107SOL    HW281161   1.925   8.717   0.043
93108SOL     OW81162   2.379   6.326   5.424
93108SOL    HW181163   2.434   6.255   5.390
93108SOL    HW281164   2.312   6.282   5.477
93109SOL     OW81165   5.103   2.620   0.213
93109SOL    HW181166   5.078   2.530   0.236
93109SOL    HW281167   5.035   2.648   0.151
93110SOL     OW81168  13.949   9.941  10.950
93110SOL    HW181169  13.977   9.872  11.010
93110SOL    HW281170  14.024   9.956  10.894
93111SOL     OW81171   7.456  12.056   6.461
93111SOL    HW181172   7.411  12.137   6.486
93111SOL    HW281173   7.549  12.074   6.477
93112SOL     OW81174   2.894  10.129   9.352
93112SOL    HW181175   2.948  10.191   9.303
93112SOL    HW281176   2.903  10.156   9.443
93113SOL     OW81177  11.290  11.728   1.773
93113SOL    HW181178  11.385  11.721   1.786
93113SOL    HW281179  11.268  11.816   1.804
93114SOL     OW81180  13.234   3.017  13.968
93114SOL    HW181181  13.139   3.006  13.962
93114SOL    HW281182  13.260   2.960  14.041
93115SOL     OW81183   2.546   2.599  11.535
93115SOL    HW181184   2.491   2.656  11.481
93115SOL    HW281185   2.599   2.550  11.473
93116SOL     OW81186  13.410   0.493  11.529
93116SOL    HW181187  13.352   0.511  11.455
93116SOL    HW281188  13.391   0.402  11.552
93117SOL     OW81189   7.758   0.845  13.254
93117SOL    HW181190   7.791   0.800  13.331
93117SOL    HW281191   7.799   0.931  13.256
93118SOL     OW81192   4.320   2.500  10.099
93118SOL    HW181193   4.234   2.494  10.141
93118SOL    HW281194   4.379   2.525  10.170
93119SOL     OW81195   4.451   6.813   0.396
93119SOL    HW181196   4.528   6.857   0.361
93119SOL    HW281197   4.419   6.871   0.465
93120SOL     OW81198   3.202  12.765  10.965
93120SOL    HW181199   3.195  12.671  10.976
93120SOL    HW281200   3.211  12.800  11.054
93121SOL     OW81201   9.208  12.657  14.818
93121SOL    HW181202   9.138  12.609  14.862
93121SOL    HW281203   9.246  12.712   0.013
93122SOL     OW81204   8.990  13.887  11.400
93122SOL    HW181205   9.037  13.910  11.480
93122SOL    HW281206   9.051  13.831  11.351
93123SOL     OW81207   1.931  13.894   4.290
93123SOL    HW181208   1.955  13.808   4.325
93123SOL    HW281209   2.012  13.945   4.294
93124SOL     OW81210   4.034  11.252   8.839
93124SOL    HW181211   4.044  11.338   8.880
93124SOL    HW281212   4.004  11.271   8.750
93125SOL     OW81213   4.312   0.413   4.910
93125SOL    HW181214   4.295   0.319   4.905
93125SOL    HW281215   4.283   0.447   4.826
93126SOL     OW81216   7.120   7.246   7.626
93126SOL    HW181217   7.207   7.278   7.651
93126SOL    HW281218   7.061   7.317   7.650
93127SOL     OW81219  11.237   6.698  14.542
93127SOL    HW181220  11.243   6.786  14.580
93127SOL    HW281221  11.325   6.662  14.554
93128SOL     OW81222   8.462   9.302   6.585
93128SOL    HW181223   8.369   9.281   6.592
93128SOL    HW281224   8.505   9.216   6.576
93129SOL     OW81225   5.727  11.387  14.862
93129SOL    HW181226   5.762  11.448   0.052
93129SOL    HW281227   5.650  11.348   0.031
93130SOL     OW81228   4.453   1.965  13.661
93130SOL    HW181229   4.412   1.974  13.575
93130SOL    HW281230   4.436   1.874  13.686
93131SOL     OW81231  13.590  14.285  11.007
93131SOL    HW181232  13.549  14.273  10.922
93131SOL    HW281233  13.573  14.203  11.054
93132SOL     OW81234   8.227   8.079  14.445
93132SOL    HW181235   8.254   8.028  14.522
93132SOL    HW281236   8.142   8.041  14.420
93133SOL     OW81237   0.839   8.243  10.261
93133SOL    HW181238   0.906   8.253  10.328
93133SOL    HW281239   0.806   8.154  10.274
93134SOL     OW81240   2.994   8.128  13.826
93134SOL    HW181241   3.084   8.109  13.801
93134SOL    HW281242   2.976   8.067  13.898
93135SOL     OW81243  12.958   4.860   7.623
93135SOL    HW181244  12.891   4.929   7.620
93135SOL    HW281245  12.959   4.832   7.715
93136SOL     OW81246   7.018  11.045   0.680
93136SOL    HW181247   7.048  11.125   0.724
93136SOL    HW281248   6.927  11.036   0.707
93137SOL     OW81249   6.677   2.618  10.382
93137SOL    HW181250   6.677   2.708  10.414
93137SOL    HW281251   6.640   2.623  10.294
93138SOL     OW81252   2.526   7.740   9.215
93138SOL    HW181253   2.604   7.685   9.205
93138SOL    HW281254   2.490   7.715   9.300
93139SOL     OW81255  10.355   4.159  10.618
93139SOL    HW181256  10.352   4.250  10.589
93139SOL    HW281257  10.403   4.113  10.549
93140SOL     OW81258   3.914   1.057   6.207
93140SOL    HW181259   3.870   1.134   6.244
93140SOL    HW281260   3.888   1.056   6.116
93141SOL     OW81261   7.040   3.620   7.039
93141SOL    HW181262   7.066   3.555   7.104
93141SOL    HW281263   7.073   3.585   6.956
93142SOL     OW81264   2.072   5.197  14.219
93142SOL    HW181265   2.158   5.238  14.208
93142SOL    HW281266   2.023   5.259  14.272
93143SOL     OW81267  12.037  12.831  14.675
93143SOL    HW181268  12.108  12.773  14.647
93143SOL    HW281269  11.973  12.826  14.605
93144SOL     OW81270   1.806  11.691   0.610
93144SOL    HW181271   1.856  11.613   0.636
93144SOL    HW281272   1.751  11.661   0.538
93145SOL     OW81273   0.233  10.373   2.722
93145SOL    HW181274   0.274  10.326   2.649
93145SOL    HW281275   0.190  10.304   2.773
93146SOL     OW81276  14.625   5.381  14.792
93146SOL    HW181277  14.646   5.446  14.724
93146SOL    HW281278  14.594   5.433  14.866
93147SOL     OW81279   9.095   5.954  12.850
93147SOL    HW181280   9.027   5.887  12.862
93147SOL    HW281281   9.166   5.927  12.908
93148SOL     OW81282   3.070   8.273   2.053
93148SOL    HW181283   3.125   8.251   2.128
93148SOL    HW281284   2.992   8.312   2.091
93149SOL     OW81285   0.044   2.865   9.271
93149SOL    HW181286  14.834   2.911   9.271
93149SOL    HW281287   0.063   2.851   9.364
93150SOL     OW81288   4.254   1.530   1.860
93150SOL    HW181289   4.183   1.526   1.796
93150SOL    HW281290   4.248   1.448   1.908
93151SOL     OW81291   1.648   0.895   3.028
93151SOL    HW181292   1.732   0.908   3.073
93151SOL    HW281293   1.627   0.981   2.993
93152SOL     OW81294   2.298   6.977  14.811
93152SOL    HW181295   2.252   7.051  14.772
93152SOL    HW281296   2.315   6.917  14.738
93153SOL     OW81297  12.574   3.055  13.558
93153SOL    HW181298  12.617   2.996  13.619
93153SOL    HW281299  12.535   2.997  13.492
93154SOL     OW81300  12.523  13.026  12.162
93154SOL    HW181301  12.596  12.995  12.216
93154SOL    HW281302  12.448  12.974  12.191
93155SOL     OW81303  14.422   2.194   6.882
93155SOL    HW181304  14.356   2.141   6.926
93155SOL    HW281305  14.377   2.275   6.860
93156SOL     OW81306   0.957   1.045   9.052
93156SOL    HW181307   1.001   1.049   8.967
93156SOL    HW281308   0.977   0.958   9.085
93157SOL     OW81309   7.371   3.101  14.035
93157SOL    HW181310   7.335   3.118  14.122
93157SOL    HW281311   7.457   3.063  14.052
93158SOL     OW81312  14.757   4.220   3.805
93158SOL    HW181313  14.688   4.205   3.869
93158SOL    HW281314  14.836   4.186   3.847
93159SOL     OW81315   4.451   6.303   8.007
93159SOL    HW181316   4.461   6.280   8.099
93159SOL    HW281317   4.516   6.249   7.961
93160SOL     OW81318   4.037   5.751  13.074
93160SOL    HW181319   3.951   5.708  13.074
93160SOL    HW281320   4.016   5.844  13.074
93161SOL     OW81321   6.802   2.390   4.583
93161SOL    HW181322   6.789   2.315   4.525
93161SOL    HW281323   6.715   2.427   4.595
93162SOL     OW81324   6.979   0.958   8.915
93162SOL    HW181325   6.939   1.045   8.922
93162SOL    HW281326   7.003   0.950   8.823
93163SOL     OW81327  12.460   2.588  10.807
93163SOL    HW181328  12.424   2.555  10.890
93163SOL    HW281329  12.389   2.638  10.768
93164SOL     OW81330   9.862   4.931   5.853
93164SOL    HW181331   9.796   4.964   5.914
93164SOL    HW281332   9.820   4.938   5.767
93165SOL     OW81333  10.036   4.435   3.727
93165SOL    HW181334   9.956   4.386   3.712
93165SOL    HW281335  10.092   4.413   3.653
93166SOL     OW81336   6.961   3.384   9.779
93166SOL    HW181337   6.986   3.360   9.868
93166SOL    HW281338   6.886   3.443   9.790
93167SOL     OW81339   9.056  13.974   4.732
93167SOL    HW181340   8.965  13.944   4.736
93167SOL    HW281341   9.061  14.043   4.798
93168SOL     OW81342   4.486  10.968   7.136
93168SOL    HW181343   4.549  11.022   7.088
93168SOL    HW281344   4.539  10.905   7.185
93169SOL     OW81345   4.406   8.308  11.036
93169SOL    HW181346   4.466   8.361  10.984
93169SOL    HW281347   4.385   8.363  11.112
93170SOL     OW81348   8.778   5.050  14.840
93170SOL    HW181349   8.758   4.970   0.015
93170SOL    HW281350   8.701   5.064  14.785
93171SOL     OW81351   1.523  10.893   4.555
93171SOL    HW181352   1.569  10.944   4.622
93171SOL    HW281353   1.530  10.802   4.586
93172SOL     OW81354  10.749   4.630   4.769
93172SOL    HW181355  10.718   4.608   4.681
93172SOL    HW281356  10.806   4.557   4.793
93173SOL     OW81357   6.123  10.551  12.701
93173SOL    HW181358   6.203  10.501  12.714
93173SOL    HW281359   6.064  10.490  12.656
93174SOL     OW81360   8.469  11.091   9.955
93174SOL    HW181361   8.529  11.166   9.958
93174SOL    HW281362   8.479  11.049  10.040
93175SOL     OW81363  12.461  12.704  13.442
93175SOL    HW181364  12.534  12.727  13.385
93175SOL    HW281365  12.397  12.774  13.428
93176SOL     OW81366   1.305   7.401   9.624
93176SOL    HW181367   1.304   7.496   9.629
93176SOL    HW281368   1.226   7.378   9.575
93177SOL     OW81369  11.190  13.867  12.625
93177SOL    HW181370  11.279  13.867  12.590
93177SOL    HW281371  11.172  13.775  12.643
93178SOL     OW81372  14.843   5.395   8.754
93178SOL    HW181373  14.786   5.357   8.687
93178SOL    HW281374  14.804   5.480   8.775
93179SOL     OW81375  12.543   1.270   6.078
93179SOL    HW181376  12.468   1.210   6.080
93179SOL    HW281377  12.600   1.239   6.148
93180SOL     OW81378   0.830   3.007  10.427
93180SOL    HW181379   0.841   2.983  10.519
93180SOL    HW281380   0.839   2.924  10.380
93181SOL     OW81381   3.264  13.086  10.804
93181SOL    HW181382   3.324  13.161  10.811
93181SOL    HW281383   3.321  13.009  10.815
93182SOL     OW81384  12.235   5.693  12.853
93182SOL    HW181385  12.254   5.619  12.909
93182SOL    HW281386  12.243   5.658  12.764
93183SOL     OW81387  10.538  12.004  14.513
93183SOL    HW181388  10.536  11.968  14.601
93183SOL    HW281389  10.456  12.054  14.506
93184SOL     OW81390   9.523   4.479  10.963
93184SOL    HW181391   9.573   4.400  10.981
93184SOL    HW281392   9.489   4.467  10.875
93185SOL     OW81393  13.324   2.390  12.371
93185SOL    HW181394  13.303   2.352  12.457
93185SOL    HW281395  13.335   2.484  12.389
93186SOL     OW81396  10.553   7.676   2.270
93186SOL    HW181397  10.483   7.664   2.206
93186SOL    HW281398  10.523   7.750   2.324
93187SOL     OW81399  14.432   4.706   6.688
93187SOL    HW181400  14.517   4.749   6.680
93187SOL    HW281401  14.425   4.684   6.781
93188SOL     OW81402   0.266  12.041  13.386
93188SOL    HW181403   0.179  12.061  13.350
93188SOL    HW281404   0.262  12.072  13.477
93189SOL     OW81405   0.460  14.406  11.604
93189SOL    HW181406   0.402  14.352  11.550
93189SOL    HW281407   0.436  14.496  11.582
93190SOL     OW81408   8.979   0.803   9.023
93190SOL    HW181409   8.942   0.887   9.052
93190SOL    HW281410   8.912   0.739   9.046
93191SOL     OW81411  12.076   7.505  11.806
93191SOL    HW181412  12.108   7.564  11.738
93191SOL    HW281413  12.155   7.467  11.844
93192SOL     OW81414   9.759   5.814  11.653
93192SOL    HW181415   9.855   5.814  11.662
93192SOL    HW281416   9.727   5.806  11.743
93193SOL     OW81417   7.888   0.816   4.271
93193SOL    HW181418   7.890   0.868   4.352
93193SOL    HW281419   7.976   0.826   4.235
93194SOL     OW81420   5.553   8.482   2.811
93194SOL    HW181421   5.546   8.525   2.726
93194SOL    HW281422   5.525   8.549   2.874
93195SOL     OW81423   0.897  14.354   7.475
93195SOL    HW181424   0.972  14.371   7.532
93195SOL    HW281425   0.826  14.406   7.513
93196SOL     OW81426  12.884   7.143  14.798
93196SOL    HW181427  12.965   7.131  14.847
93196SOL    HW281428  12.888   7.233  14.766
93197SOL     OW81429   6.957   8.949   9.697
93197SOL    HW181430   6.941   8.988   9.611
93197SOL    HW281431   6.964   9.024   9.756
93198SOL     OW81432   4.423  12.345  12.205
93198SOL    HW181433   4.415  12.370  12.113
93198SOL    HW281434   4.437  12.250  12.203
93199SOL     OW81435   4.608   1.422   2.579
93199SOL    HW181436   4.563   1.471   2.648
93199SOL    HW281437   4.701   1.436   2.596
93200SOL     OW81438   8.622   6.889   6.671
93200SOL    HW181439   8.609   6.969   6.722
93200SOL    HW281440   8.716   6.871   6.678
93201SOL     OW81441   0.088   8.337   0.987
93201SOL    HW181442   0.019   8.287   0.943
93201SOL    HW281443   0.165   8.280   0.983
93202SOL     OW81444   6.941   1.274   4.084
93202SOL    HW181445   6.949   1.178   4.082
93202SOL    HW281446   6.855   1.289   4.124
93203SOL     OW81447   5.871  10.095   8.177
93203SOL    HW181448   5.843  10.148   8.102
93203SOL    HW281449   5.895  10.158   8.244
93204SOL     OW81450   9.148   1.973   1.314
93204SOL    HW181451   9.108   2.041   1.370
93204SOL    HW281452   9.206   1.925   1.373
93205SOL     OW81453   8.832   3.467   7.724
93205SOL    HW181454   8.776   3.390   7.723
93205SOL    HW281455   8.785   3.532   7.672
93206SOL     OW81456  10.275   7.608   9.151
93206SOL    HW181457  10.196   7.656   9.178
93206SOL    HW281458  10.319   7.666   9.090
93207SOL     OW81459   7.855   4.905   7.396
93207SOL    HW181460   7.821   4.932   7.310
93207SOL    HW281461   7.950   4.905   7.385
93208SOL     OW81462  11.543   0.608   4.788
93208SOL    HW181463  11.536   0.591   4.694
93208SOL    HW281464  11.557   0.522   4.827
93209SOL     OW81465  14.106  11.849   0.971
93209SOL    HW181466  14.167  11.922   0.959
93209SOL    HW281467  14.160  11.777   1.004
93210SOL     OW81468   1.466   9.873   2.269
93210SOL    HW181469   1.546   9.925   2.260
93210SOL    HW281470   1.426   9.905   2.350
93211SOL     OW81471   3.626   3.079  12.962
93211SOL    HW181472   3.697   3.042  13.015
93211SOL    HW281473   3.546   3.051  13.006
93212SOL     OW81474   4.791   5.363   8.684
93212SOL    HW181475   4.722   5.296   8.684
93212SOL    HW281476   4.746   5.443   8.713
93213SOL     OW81477   3.914   2.081  10.138
93213SOL    HW181478   3.991   2.131  10.166
93213SOL    HW281479   3.840   2.128  10.176
93214SOL     OW81480  13.584  10.443   6.792
93214SOL    HW181481  13.607  10.363   6.838
93214SOL    HW281482  13.665  10.494   6.792
93215SOL     OW81483  14.405  12.136  11.219
93215SOL    HW181484  14.391  12.199  11.149
93215SOL    HW281485  14.485  12.165  11.262
93216SOL     OW81486  10.071   0.523   2.325
93216SOL    HW181487  10.146   0.560   2.278
93216SOL    HW281488  10.051   0.442   2.278
93217SOL     OW81489   0.636  13.163   7.356
93217SOL    HW181490   0.614  13.238   7.413
93217SOL    HW281491   0.705  13.196   7.299
93218SOL     OW81492  13.657  14.397   6.859
93218SOL    HW181493  13.716  14.323   6.847
93218SOL    HW281494  13.576  14.370   6.817
93219SOL     OW81495   5.944   4.569  14.388
93219SOL    HW181496   5.913   4.479  14.377
93219SOL    HW281497   6.039   4.562  14.397
93220SOL     OW81498  11.693  12.788  12.404
93220SOL    HW181499  11.650  12.747  12.329
93220SOL    HW281500  11.622  12.828  12.453
93221SOL     OW81501   3.821  13.493   3.448
93221SOL    HW181502   3.783  13.512   3.534
93221SOL    HW281503   3.747  13.497   3.388
93222SOL     OW81504  10.495   5.331   4.413
93222SOL    HW181505  10.493   5.302   4.505
93222SOL    HW281506  10.505   5.426   4.419
93223SOL     OW81507   7.169   0.336   1.142
93223SOL    HW181508   7.088   0.313   1.097
93223SOL    HW281509   7.189   0.425   1.112
93224SOL     OW81510  12.294   8.725   3.484
93224SOL    HW181511  12.233   8.726   3.410
93224SOL    HW281512  12.310   8.632   3.501
93225SOL     OW81513   8.822   1.736   7.615
93225SOL    HW181514   8.774   1.763   7.537
93225SOL    HW281515   8.909   1.774   7.604
93226SOL     OW81516   8.601  10.745   9.730
93226SOL    HW181517   8.597  10.766   9.824
93226SOL    HW281518   8.613  10.829   9.687
93227SOL     OW81519  14.354  12.984  10.883
93227SOL    HW181520  14.312  13.049  10.940
93227SOL    HW281521  14.402  13.035  10.818
93228SOL     OW81522  12.267  14.461  11.916
93228SOL    HW181523  12.247  14.378  11.960
93228SOL    HW281524  12.222  14.455  11.832
93229SOL     OW81525   5.879   2.386   1.262
93229SOL    HW181526   5.843   2.373   1.175
93229SOL    HW281527   5.847   2.311   1.313
93230SOL     OW81528   6.253   1.774   7.752
93230SOL    HW181529   6.286   1.859   7.722
93230SOL    HW281530   6.192   1.795   7.822
93231SOL     OW81531   4.699  11.362   4.858
93231SOL    HW181532   4.654  11.441   4.889
93231SOL    HW281533   4.750  11.332   4.934
93232SOL     OW81534  11.635  13.838   4.688
93232SOL    HW181535  11.611  13.785   4.612
93232SOL    HW281536  11.726  13.864   4.671
93233SOL     OW81537  10.143   0.995  12.395
93233SOL    HW181538  10.160   0.905  12.424
93233SOL    HW281539  10.048   1.003  12.394
93234SOL     OW81540   2.531   8.763  12.979
93234SOL    HW181541   2.540   8.856  12.999
93234SOL    HW281542   2.610   8.723  13.016
93235SOL     OW81543   9.032   4.844   5.456
93235SOL    HW181544   9.093   4.846   5.530
93235SOL    HW281545   9.038   4.755   5.422
93236SOL     OW81546  13.078   9.143   3.047
93236SOL    HW181547  13.120   9.143   2.961
93236SOL    HW281548  13.069   9.051   3.069
93237SOL     OW81549   1.643  14.430   6.667
93237SOL    HW181550   1.706  14.358   6.676
93237SOL    HW281551   1.681  14.487   6.600
93238SOL     OW81552  14.496   6.802   9.834
93238SOL    HW181553  14.459   6.714   9.841
93238SOL    HW281554  14.558   6.809   9.906
93239SOL     OW81555   6.051   8.426   6.900
93239SOL    HW181556   6.082   8.501   6.850
93239SOL    HW281557   6.129   8.373   6.916
93240SOL     OW81558  12.447   8.729   6.536
93240SOL    HW181559  12.460   8.758   6.626
93240SOL    HW281560  12.436   8.810   6.486
93241SOL     OW81561   0.128  10.825   5.690
93241SOL    HW181562   0.174  10.755   5.645
93241SOL    HW281563   0.110  10.890   5.622
93242SOL     OW81564   0.746  14.225   4.090
93242SOL    HW181565   0.805  14.297   4.065
93242SOL    HW281566   0.759  14.159   4.022
93243SOL     OW81567   7.700  13.499   0.227
93243SOL    HW181568   7.789  13.473   0.203
93243SOL    HW281569   7.706  13.593   0.242
93244SOL     OW81570  13.222   2.061  11.538
93244SOL    HW181571  13.277   2.054  11.616
93244SOL    HW281572  13.253   1.991  11.480
93245SOL     OW81573  14.243   9.887   9.366
93245SOL    HW181574  14.268   9.795   9.362
93245SOL    HW281575  14.187   9.900   9.289
93246SOL     OW81576  13.839   9.586  12.436
93246SOL    HW181577  13.933   9.596  12.422
93246SOL    HW281578  13.822   9.493  12.425
93247SOL     OW81579   9.130   0.794   6.734
93247SOL    HW181580   9.183   0.736   6.679
93247SOL    HW281581   9.183   0.874   6.742
93248SOL     OW81582   4.009   2.735  11.179
93248SOL    HW181583   3.994   2.661  11.237
93248SOL    HW281584   3.947   2.723  11.107
93249SOL     OW81585  13.693  10.493  13.256
93249SOL    HW181586  13.623  10.557  13.244
93249SOL    HW281587  13.697  10.479  13.350
93250SOL     OW81588   8.455   4.931   6.587
93250SOL    HW181589   8.530   4.906   6.640
93250SOL    HW281590   8.483   5.011   6.541
93251SOL     OW81591   4.529  13.709   1.591
93251SOL    HW181592   4.532  13.796   1.551
93251SOL    HW281593   4.600  13.709   1.655
93252SOL     OW81594   5.199   2.734   4.593
93252SOL    HW181595   5.209   2.645   4.560
93252SOL    HW281596   5.115   2.733   4.639
93253SOL     OW81597   0.189  11.859  11.314
93253SOL    HW181598   0.249  11.832  11.245
93253SOL    HW281599   0.246  11.881  11.388
93254SOL     OW81600   9.734   2.895   6.292
93254SOL    HW181601   9.818   2.869   6.330
93254SOL    HW281602   9.731   2.852   6.207
93255SOL     OW81603   8.948   0.287   9.622
93255SOL    HW181604   9.033   0.309   9.661
93255SOL    HW281605   8.963   0.295   9.528
93256SOL     OW81606   8.438   1.794  10.973
93256SOL    HW181607   8.409   1.842  11.050
93256SOL    HW281608   8.494   1.724  11.007
93257SOL     OW81609  11.196   3.770   0.414
93257SOL    HW181610  11.191   3.678   0.440
93257SOL    HW281611  11.289   3.791   0.418
93258SOL     OW81612   4.614  11.966   1.029
93258SOL    HW181613   4.694  11.974   0.978
93258SOL    HW281614   4.612  12.044   1.084
93259SOL     OW81615  11.262   1.616  11.251
93259SOL    HW181616  11.276   1.711  11.249
93259SOL    HW281617  11.207   1.602  11.328
93260SOL     OW81618  11.165   4.126  14.644
93260SOL    HW181619  11.130   4.157  14.561
93260SOL    HW281620  11.153   4.199  14.705
93261SOL     OW81621   4.685  10.583  14.483
93261SOL    HW181622   4.598  10.607  14.513
93261SOL    HW281623   4.738  10.661  14.496
93262SOL     OW81624  13.562   3.935   6.961
93262SOL    HW181625  13.504   3.932   6.886
93262SOL    HW281626  13.525   3.874   7.024
93263SOL     OW81627   5.481   5.601   3.402
93263SOL    HW181628   5.571   5.621   3.428
93263SOL    HW281629   5.471   5.508   3.422
93264SOL     OW81630   8.882   4.389  14.374
93264SOL    HW181631   8.930   4.461  14.414
93264SOL    HW281632   8.927   4.310  14.405
93265SOL     OW81633  12.139   4.260   9.895
93265SOL    HW181634  12.204   4.192   9.874
93265SOL    HW281635  12.172   4.338   9.851
93266SOL     OW81636   5.838  14.379   9.329
93266SOL    HW181637   5.746  14.386   9.352
93266SOL    HW281638   5.885  14.396   9.411
93267SOL     OW81639  14.661   1.860   8.305
93267SOL    HW181640  14.702   1.800   8.367
93267SOL    HW281641  14.625   1.930   8.359
93268SOL     OW81642  10.528  14.168  11.815
93268SOL    HW181643  10.538  14.085  11.862
93268SOL    HW281644  10.532  14.144  11.723
93269SOL     OW81645   3.894   1.406   4.962
93269SOL    HW181646   3.967   1.468   4.959
93269SOL    HW281647   3.936   1.320   4.963
93270SOL     OW81648   2.159  12.217   3.634
93270SOL    HW181649   2.092  12.225   3.565
93270SOL    HW281650   2.232  12.172   3.592
93271SOL     OW81651  13.683   9.364   9.413
93271SOL    HW181652  13.643   9.445   9.379
93271SOL    HW281653  13.741   9.394   9.483
93272SOL     OW81654   0.887   6.369  13.824
93272SOL    HW181655   0.909   6.291  13.772
93272SOL    HW281656   0.792   6.373  13.821
93273SOL     OW81657   3.097  12.455   7.295
93273SOL    HW181658   3.053  12.472   7.378
93273SOL    HW281659   3.036  12.400   7.246
93274SOL     OW81660   6.371   7.836   6.087
93274SOL    HW181661   6.285   7.795   6.097
93274SOL    HW281662   6.433   7.765   6.104
93275SOL     OW81663   1.241   6.768  12.678
93275SOL    HW181664   1.294   6.695  12.647
93275SOL    HW281665   1.198   6.802  12.600
93276SOL     OW81666   0.727   8.464   7.488
93276SOL    HW181667   0.801   8.521   7.467
93276SOL    HW281668   0.691   8.438   7.403
93277SOL     OW81669   5.328   5.756  12.727
93277SOL    HW181670   5.254   5.695  12.720
93277SOL    HW281671   5.299   5.821  12.792
93278SOL     OW81672   6.914  10.768   2.133
93278SOL    HW181673   6.873  10.688   2.099
93278SOL    HW281674   6.948  10.742   2.219
93279SOL     OW81675   1.174  10.691  10.352
93279SOL    HW181676   1.096  10.743  10.369
93279SOL    HW281677   1.222  10.739  10.284
93280SOL     OW81678  10.749  14.531   0.529
93280SOL    HW181679  10.799  14.613   0.527
93280SOL    HW281680  10.815  14.463   0.542
93281SOL     OW81681   8.322   8.190   1.881
93281SOL    HW181682   8.395   8.198   1.942
93281SOL    HW281683   8.360   8.149   1.803
93282SOL     OW81684   5.510   7.592  12.723
93282SOL    HW181685   5.489   7.499  12.730
93282SOL    HW281686   5.511   7.609  12.629
93283SOL     OW81687  14.495  13.932   2.214
93283SOL    HW181688  14.416  13.956   2.263
93283SOL    HW281689  14.463  13.907   2.128
93284SOL     OW81690   0.310   1.515  12.538
93284SOL    HW181691   0.274   1.533  12.451
93284SOL    HW281692   0.404   1.528  12.527
93285SOL     OW81693   7.527   6.843  10.600
93285SOL    HW181694   7.552   6.843  10.693
93285SOL    HW281695   7.470   6.920  10.591
93286SOL     OW81696   1.848   7.005   7.887
93286SOL    HW181697   1.904   6.931   7.909
93286SOL    HW281698   1.761   6.979   7.916
93287SOL     OW81699  13.708   2.711   3.579
93287SOL    HW181700  13.688   2.756   3.497
93287SOL    HW281701  13.781   2.760   3.616
93288SOL     OW81702   9.189   0.516   0.788
93288SOL    HW181703   9.167   0.433   0.830
93288SOL    HW281704   9.223   0.490   0.702
93289SOL     OW81705  10.806   3.705  10.738
93289SOL    HW181706  10.731   3.755  10.704
93289SOL    HW281707  10.866   3.698  10.664
93290SOL     OW81708   0.597   3.615   7.875
93290SOL    HW181709   0.601   3.558   7.952
93290SOL    HW281710   0.672   3.674   7.884
93291SOL     OW81711   4.159   4.349   9.054
93291SOL    HW181712   4.241   4.381   9.092
93291SOL    HW281713   4.186   4.276   8.999
93292SOL     OW81714   3.642   9.802   8.607
93292SOL    HW181715   3.665   9.892   8.629
93292SOL    HW281716   3.713   9.772   8.550
93293SOL     OW81717   1.487   3.535   9.801
93293SOL    HW181718   1.494   3.445   9.769
93293SOL    HW281719   1.545   3.585   9.744
93294SOL     OW81720  13.162  12.579   6.088
93294SOL    HW181721  13.138  12.487   6.091
93294SOL    HW281722  13.245  12.584   6.136
93295SOL     OW81723  14.525  12.323   3.621
93295SOL    HW181724  14.520  12.406   3.574
93295SOL    HW281725  14.433  12.297   3.633
93296SOL     OW81726   8.871  13.990   4.432
93296SOL    HW181727   8.795  13.956   4.480
93296SOL    HW281728   8.933  14.013   4.500
93297SOL     OW81729   7.852   6.218  13.375
93297SOL    HW181730   7.871   6.140  13.322
93297SOL    HW281731   7.815   6.184  13.456
93298SOL     OW81732  10.590   5.434  12.496
93298SOL    HW181733  10.643   5.513  12.501
93298SOL    HW281734  10.507   5.459  12.537
93299SOL     OW81735   9.778   9.222   8.125
93299SOL    HW181736   9.735   9.305   8.142
93299SOL    HW281737   9.722   9.156   8.167
93300SOL     OW81738   0.368  12.260   1.794
93300SOL    HW181739   0.309  12.293   1.861
93300SOL    HW281740   0.326  12.180   1.761
93301SOL     OW81741  12.533  10.408   1.348
93301SOL    HW181742  12.477  10.412   1.271
93301SOL    HW281743  12.554  10.499   1.368
93302SOL     OW81744   2.667   0.974  13.927
93302SOL    HW181745   2.719   0.974  13.847
93302SOL    HW281746   2.620   1.057  13.926
93303SOL     OW81747   9.397   8.905   3.530
93303SOL    HW181748   9.432   8.816   3.539
93303SOL    HW281749   9.384   8.917   3.436
93304SOL     OW81750   5.176   0.482   4.227
93304SOL    HW181751   5.233   0.471   4.151
93304SOL    HW281752   5.160   0.576   4.232
93305SOL     OW81753   7.680   2.634  12.427
93305SOL    HW181754   7.725   2.553  12.449
93305SOL    HW281755   7.620   2.649  12.501
93306SOL     OW81756  10.693   5.903   5.099
93306SOL    HW181757  10.683   5.996   5.121
93306SOL    HW281758  10.738   5.903   5.015
93307SOL     OW81759   2.309   4.051   3.920
93307SOL    HW181760   2.216   4.032   3.929
93307SOL    HW281761   2.313   4.139   3.882
93308SOL     OW81762  13.521   8.016  10.898
93308SOL    HW181763  13.491   8.065  10.974
93308SOL    HW281764  13.594   7.964  10.930
93309SOL     OW81765   5.703  10.020   2.596
93309SOL    HW181766   5.681  10.046   2.685
93309SOL    HW281767   5.790  10.057   2.580
93310SOL     OW81768   0.098   7.840   3.633
93310SOL    HW181769   0.148   7.855   3.553
93310SOL    HW281770   0.018   7.892   3.621
93311SOL     OW81771   4.037  14.546   0.309
93311SOL    HW181772   3.980  14.623   0.301
93311SOL    HW281773   4.070  14.532   0.220
93312SOL     OW81774  13.803  12.985   3.978
93312SOL    HW181775  13.830  12.935   4.055
93312SOL    HW281776  13.713  12.957   3.962
93313SOL     OW81777  14.537   4.064  13.057
93313SOL    HW181778  14.581   3.980  13.069
93313SOL    HW281779  14.526   4.098  13.146
93314SOL     OW81780   2.658   3.295  13.781
93314SOL    HW181781   2.634   3.305  13.689
93314SOL    HW281782   2.745   3.334  13.788
93315SOL     OW81783   1.642   7.140   1.838
93315SOL    HW181784   1.590   7.115   1.761
93315SOL    HW281785   1.712   7.075   1.842
93316SOL     OW81786   8.656   9.472   6.659
93316SOL    HW181787   8.674   9.526   6.582
93316SOL    HW281788   8.577   9.423   6.636
93317SOL     OW81789   2.409   2.887   2.475
93317SOL    HW181790   2.330   2.937   2.495
93317SOL    HW281791   2.481   2.942   2.506
93318SOL     OW81792  11.818   3.900   4.787
93318SOL    HW181793  11.828   3.927   4.878
93318SOL    HW281794  11.730   3.929   4.763
93319SOL     OW81795  14.844   1.398   5.137
93319SOL    HW181796  14.769   1.458   5.139
93319SOL    HW281797  14.809   1.318   5.099
93320SOL     OW81798  11.604   3.346   2.189
93320SOL    HW181799  11.521   3.321   2.230
93320SOL    HW281800  11.644   3.407   2.251
93321SOL     OW81801   4.735   0.347  10.196
93321SOL    HW181802   4.658   0.345  10.253
93321SOL    HW281803   4.724   0.272  10.138
93322SOL     OW81804   7.094   0.891  13.473
93322SOL    HW181805   7.031   0.931  13.414
93322SOL    HW281806   7.173   0.879  13.421
93323SOL     OW81807  12.517   8.464   4.039
93323SOL    HW181808  12.520   8.488   3.946
93323SOL    HW281809  12.445   8.516   4.075
93324SOL     OW81810  12.016   6.719   1.307
93324SOL    HW181811  11.982   6.732   1.218
93324SOL    HW281812  11.999   6.627   1.326
93325SOL     OW81813   3.236  12.971   9.894
93325SOL    HW181814   3.294  12.908   9.851
93325SOL    HW281815   3.275  13.056   9.874
93326SOL     OW81816  13.359   7.055   7.377
93326SOL    HW181817  13.426   7.040   7.444
93326SOL    HW281818  13.395   7.124   7.322
93327SOL     OW81819  11.832   1.892   4.466
93327SOL    HW181820  11.825   1.867   4.558
93327SOL    HW281821  11.906   1.953   4.463
93328SOL     OW81822   8.674  14.747  12.429
93328SOL    HW181823   8.707  14.760  12.518
93328SOL    HW281824   8.719  14.669  12.397
93329SOL     OW81825  12.453   1.053   7.512
93329SOL    HW181826  12.466   1.105   7.592
93329SOL    HW281827  12.535   1.004   7.502
93330SOL     OW81828   8.767   6.098   3.517
93330SOL    HW181829   8.725   6.014   3.538
93330SOL    HW281830   8.697   6.152   3.481
93331SOL     OW81831   6.364  14.506   7.896
93331SOL    HW181832   6.379  14.455   7.976
93331SOL    HW281833   6.410  14.589   7.911
93332SOL     OW81834   3.252   7.793   4.741
93332SOL    HW181835   3.206   7.830   4.666
93332SOL    HW281836   3.196   7.811   4.816
93333SOL     OW81837  11.619  13.904  13.315
93333SOL    HW181838  11.574  13.882  13.396
93333SOL    HW281839  11.552  13.945  13.260
93334SOL     OW81840   4.012   2.220   5.587
93334SOL    HW181841   4.042   2.310   5.578
93334SOL    HW281842   3.997   2.190   5.498
93335SOL     OW81843   1.986   9.961   5.200
93335SOL    HW181844   2.019   9.872   5.191
93335SOL    HW281845   1.891   9.953   5.189
93336SOL     OW81846   8.910  10.369   8.960
93336SOL    HW181847   8.861  10.348   8.881
93336SOL    HW281848   8.846  10.362   9.031
93337SOL     OW81849   5.248  10.480  14.156
93337SOL    HW181850   5.213  10.417  14.220
93337SOL    HW281851   5.173  10.504  14.102
93338SOL     OW81852   4.577   0.473   5.001
93338SOL    HW181853   4.501   0.438   4.954
93338SOL    HW281854   4.540   0.536   5.063
93339SOL     OW81855  14.176   4.547  11.587
93339SOL    HW181856  14.237   4.569  11.656
93339SOL    HW281857  14.123   4.626  11.575
93340SOL     OW81858  13.926  11.850  14.500
93340SOL    HW181859  13.880  11.897  14.431
93340SOL    HW281860  13.978  11.917  14.544
93341SOL     OW81861  12.325   2.416  11.449
93341SOL    HW181862  12.233   2.407  11.475
93341SOL    HW281863  12.361   2.328  11.460
93342SOL     OW81864   2.456  11.071  10.980
93342SOL    HW181865   2.452  11.134  10.908
93342SOL    HW281866   2.402  11.110  11.049
93343SOL     OW81867   5.620   2.512   6.581
93343SOL    HW181868   5.557   2.454   6.537
93343SOL    HW281869   5.690   2.523   6.517
93344SOL     OW81870  11.193  13.363  14.310
93344SOL    HW181871  11.112  13.341  14.357
93344SOL    HW281872  11.191  13.458  14.302
93345SOL     OW81873   7.762  11.166  12.662
93345SOL    HW181874   7.745  11.224  12.736
93345SOL    HW281875   7.712  11.087  12.681
93346SOL     OW81876   8.851   4.482   1.699
93346SOL    HW181877   8.851   4.392   1.730
93346SOL    HW281878   8.790   4.528   1.757
93347SOL     OW81879  10.214   9.925  11.690
93347SOL    HW181880  10.133   9.889  11.726
93347SOL    HW281881  10.242   9.861  11.625
93348SOL     OW81882   4.668   1.945   4.473
93348SOL    HW181883   4.753   1.943   4.516
93348SOL    HW281884   4.621   1.869   4.508
93349SOL     OW81885   2.220   1.365   8.874
93349SOL    HW181886   2.172   1.283   8.888
93349SOL    HW281887   2.254   1.358   8.785
93350SOL     OW81888   7.354   3.431   5.550
93350SOL    HW181889   7.309   3.422   5.465
93350SOL    HW281890   7.391   3.519   5.549
93351SOL     OW81891  12.360  12.759   3.429
93351SOL    HW181892  12.325  12.752   3.518
93351SOL    HW281893  12.437  12.814   3.438
93352SOL     OW81894   3.111   2.364   9.283
93352SOL    HW181895   3.124   2.424   9.209
93352SOL    HW281896   3.095   2.422   9.357
93353SOL     OW81897  11.576   4.146  14.794
93353SOL    HW181898  11.529   4.175  14.872
93353SOL    HW281899  11.546   4.205  14.724
93354SOL     OW81900   1.230   5.725  11.906
93354SOL    HW181901   1.224   5.816  11.933
93354SOL    HW281902   1.323   5.710  11.891
93355SOL     OW81903  12.587   7.057   8.770
93355SOL    HW181904  12.654   7.108   8.726
93355SOL    HW281905  12.508   7.112   8.768
93356SOL     OW81906  14.529   6.255   3.895
93356SOL    HW181907  14.474   6.296   3.828
93356SOL    HW281908  14.617   6.285   3.876
93357SOL     OW81909   8.021   5.349  14.813
93357SOL    HW181910   8.045   5.274  14.867
93357SOL    HW281911   7.988   5.311  14.732
93358SOL     OW81912  11.794   0.825   2.908
93358SOL    HW181913  11.768   0.836   2.817
93358SOL    HW281914  11.840   0.741   2.910
93359SOL     OW81915  12.724   6.413  11.113
93359SOL    HW181916  12.670   6.430  11.191
93359SOL    HW281917  12.755   6.500  11.087
93360SOL     OW81918   3.411   3.660   7.088
93360SOL    HW181919   3.322   3.636   7.061
93360SOL    HW281920   3.463   3.651   7.008
93361SOL     OW81921  11.940   4.432   3.029
93361SOL    HW181922  12.008   4.464   2.970
93361SOL    HW281923  11.959   4.338   3.038
93362SOL     OW81924  11.360   3.442   2.472
93362SOL    HW181925  11.425   3.373   2.489
93362SOL    HW281926  11.361   3.496   2.551
93363SOL     OW81927   9.114   0.638   2.724
93363SOL    HW181928   9.159   0.555   2.706
93363SOL    HW281929   9.147   0.665   2.810
93364SOL     OW81930   5.414   6.007  12.556
93364SOL    HW181931   5.347   6.024  12.490
93364SOL    HW281932   5.389   5.922  12.594
93365SOL     OW81933   7.605   9.187  10.602
93365SOL    HW181934   7.519   9.213  10.638
93365SOL    HW281935   7.664   9.256  10.632
93366SOL     OW81936   8.371   0.574   4.082
93366SOL    HW181937   8.335   0.535   4.162
93366SOL    HW281938   8.425   0.646   4.114
93367SOL     OW81939   1.589   7.553   9.797
93367SOL    HW181940   1.584   7.457   9.806
93367SOL    HW281941   1.682   7.572   9.806
93368SOL     OW81942   1.362   8.374   9.276
93368SOL    HW181943   1.392   8.413   9.194
93368SOL    HW281944   1.351   8.448   9.336
93369SOL     OW81945  13.260   6.554   6.343
93369SOL    HW181946  13.184   6.497   6.347
93369SOL    HW281947  13.240   6.616   6.273
93370SOL     OW81948   7.244   6.695  10.874
93370SOL    HW181949   7.165   6.708  10.926
93370SOL    HW281950   7.247   6.600  10.859
93371SOL     OW81951  14.083   6.774  10.287
93371SOL    HW181952  14.164   6.813  10.253
93371SOL    HW281953  14.106   6.740  10.373
93372SOL     OW81954  11.752  14.452   9.607
93372SOL    HW181955  11.835  14.431   9.566
93372SOL    HW281956  11.714  14.520   9.551
93373SOL     OW81957  11.389   5.415   0.066
93373SOL    HW181958  11.429   5.332   0.039
93373SOL    HW281959  11.397   5.472  14.864
93374SOL     OW81960  14.852  10.199  12.086
93374SOL    HW181961   0.035  10.182  12.012
93374SOL    HW281962  14.771  10.232  12.046
93375SOL     OW81963   3.922  11.808   9.214
93375SOL    HW181964   3.975  11.768   9.283
93375SOL    HW281965   3.865  11.738   9.184
93376SOL     OW81966   5.237   4.067   2.654
93376SOL    HW181967   5.248   4.025   2.739
93376SOL    HW281968   5.230   3.995   2.592
93377SOL     OW81969  11.869   9.303  10.756
93377SOL    HW181970  11.897   9.313  10.665
93377SOL    HW281971  11.948   9.273  10.802
93378SOL     OW81972   8.760  12.990   8.770
93378SOL    HW181973   8.797  12.924   8.828
93378SOL    HW281974   8.833  13.049   8.749
93379SOL     OW81975  10.189   4.085   3.380
93379SOL    HW181976  10.106   4.039   3.370
93379SOL    HW281977  10.234   4.039   3.451
93380SOL     OW81978   4.949  10.894   6.893
93380SOL    HW181979   4.917  10.804   6.883
93380SOL    HW281980   4.901  10.943   6.827
93381SOL     OW81981   9.356   1.995  10.836
93381SOL    HW181982   9.339   2.081  10.875
93381SOL    HW281983   9.449   1.996  10.816
93382SOL     OW81984   2.437  10.805   6.503
93382SOL    HW181985   2.466  10.738   6.565
93382SOL    HW281986   2.512  10.819   6.446
93383SOL     OW81987  12.742  13.545   3.736
93383SOL    HW181988  12.759  13.639   3.726
93383SOL    HW281989  12.749  13.510   3.647
93384SOL     OW81990   2.423   1.343  14.622
93384SOL    HW181991   2.516   1.342  14.642
93384SOL    HW281992   2.401   1.251  14.606
93385SOL     OW81993   7.969   0.195   4.894
93385SOL    HW181994   7.909   0.121   4.908
93385SOL    HW281995   7.971   0.206   4.799
93386SOL     OW81996  12.455  10.131   8.718
93386SOL    HW181997  12.413  10.203   8.766
93386SOL    HW281998  12.532  10.171   8.678
93387SOL     OW81999   2.777  14.059   1.465
93387SOL    HW182000   2.848  14.078   1.526
93387SOL    HW282001   2.816  14.000   1.400
93388SOL     OW82002   2.345   3.129   4.687
93388SOL    HW182003   2.318   3.121   4.596
93388SOL    HW282004   2.429   3.176   4.684
93389SOL     OW82005   7.146  10.434   4.493
93389SOL    HW182006   7.084  10.484   4.439
93389SOL    HW282007   7.139  10.345   4.459
93390SOL     OW82008   7.465   4.523   4.939
93390SOL    HW182009   7.431   4.542   4.852
93390SOL    HW282010   7.390   4.486   4.986
93391SOL     OW82011   2.747   4.958  14.729
93391SOL    HW182012   2.776   4.927  14.815
93391SOL    HW282013   2.651   4.959  14.736
93392SOL     OW82014   3.131   6.655   0.132
93392SOL    HW182015   3.096   6.646   0.221
93392SOL    HW282016   3.154   6.747   0.125
93393SOL     OW82017   5.517  14.546   6.795
93393SOL    HW182018   5.470  14.531   6.714
93393SOL    HW282019   5.610  14.541   6.771
93394SOL     OW82020   4.783  13.402   2.734
93394SOL    HW182021   4.722  13.429   2.803
93394SOL    HW282022   4.744  13.435   2.653
93395SOL     OW82023  14.838  12.892   8.592
93395SOL    HW182024   0.027  12.823   8.569
93395SOL    HW282025  14.788  12.906   8.512
93396SOL     OW82026   2.554  13.446   2.274
93396SOL    HW182027   2.554  13.368   2.330
93396SOL    HW282028   2.643  13.451   2.240
93397SOL     OW82029  11.761  10.378  11.161
93397SOL    HW182030  11.736  10.465  11.193
93397SOL    HW282031  11.707  10.318  11.212
93398SOL     OW82032   4.281  10.534   1.081
93398SOL    HW182033   4.238  10.450   1.095
93398SOL    HW282034   4.305  10.534   0.988
93399SOL     OW82035  10.231  11.790  10.686
93399SOL    HW182036  10.320  11.760  10.664
93399SOL    HW282037  10.245  11.853  10.757
93400SOL     OW82038   8.119  11.420   9.167
93400SOL    HW182039   8.203  11.394   9.130
93400SOL    HW282040   8.072  11.337   9.179
93401SOL     OW82041   8.666  13.381  11.110
93401SOL    HW182042   8.703  13.450  11.165
93401SOL    HW282043   8.666  13.417  11.022
93402SOL     OW82044   6.238  10.139  10.037
93402SOL    HW182045   6.154  10.183  10.051
93402SOL    HW282046   6.234  10.110   9.946
93403SOL     OW82047   0.803   8.165   9.501
93403SOL    HW182048   0.895   8.172   9.476
93403SOL    HW282049   0.765   8.109   9.433
93404SOL     OW82050   9.806   0.289  11.144
93404SOL    HW182051   9.782   0.233  11.070
93404SOL    HW282052   9.782   0.239  11.221
93405SOL     OW82053   2.241  12.187   0.683
93405SOL    HW182054   2.185  12.252   0.724
93405SOL    HW282055   2.197  12.164   0.601
93406SOL     OW82056  10.988   7.779   0.256
93406SOL    HW182057  10.979   7.789   0.161
93406SOL    HW282058  10.937   7.700   0.276
93407SOL     OW82059   8.632   6.377   2.399
93407SOL    HW182060   8.680   6.366   2.481
93407SOL    HW282061   8.640   6.293   2.354
93408SOL     OW82062  11.380   2.261   5.023
93408SOL    HW182063  11.391   2.171   4.992
93408SOL    HW282064  11.465   2.303   5.008
93409SOL     OW82065  13.839   3.150   7.641
93409SOL    HW182066  13.805   3.089   7.575
93409SOL    HW282067  13.853   3.232   7.594
93410SOL     OW82068   3.985   1.682   9.881
93410SOL    HW182069   4.036   1.690   9.962
93410SOL    HW282070   3.910   1.739   9.894
93411SOL     OW82071  11.772   8.913   5.735
93411SOL    HW182072  11.865   8.907   5.713
93411SOL    HW282073  11.754   8.834   5.786
93412SOL     OW82074   7.889   9.174   7.043
93412SOL    HW182075   7.931   9.238   6.986
93412SOL    HW282076   7.796   9.181   7.023
93413SOL     OW82077   2.394   4.436  10.402
93413SOL    HW182078   2.441   4.501  10.349
93413SOL    HW282079   2.309   4.476  10.420
93414SOL     OW82080  12.853   1.210  11.924
93414SOL    HW182081  12.890   1.122  11.928
93414SOL    HW282082  12.886   1.245  11.841
93415SOL     OW82083   7.288   6.518   1.588
93415SOL    HW182084   7.340   6.537   1.510
93415SOL    HW282085   7.198   6.537   1.564
93416SOL     OW82086   8.711  13.181   2.177
93416SOL    HW182087   8.670  13.095   2.192
93416SOL    HW282088   8.790  13.180   2.231
93417SOL     OW82089  10.731  12.414  10.517
93417SOL    HW182090  10.826  12.423  10.523
93417SOL    HW282091  10.707  12.461  10.438
93418SOL     OW82092   8.164   3.857   9.602
93418SOL    HW182093   8.171   3.802   9.679
93418SOL    HW282094   8.124   3.801   9.535
93419SOL     OW82095   5.620   6.341  14.187
93419SOL    HW182096   5.601   6.301  14.272
93419SOL    HW282097   5.630   6.434  14.206
93420SOL     OW82098  10.383   5.107   9.339
93420SOL    HW182099  10.336   5.033   9.302
93420SOL    HW282100  10.327   5.183   9.321
93421SOL     OW82101  13.371   4.000   1.821
93421SOL    HW182102  13.423   3.961   1.751
93421SOL    HW282103  13.392   4.094   1.817
93422SOL     OW82104   6.516   1.993   0.893
93422SOL    HW182105   6.459   1.990   0.816
93422SOL    HW282106   6.523   2.086   0.914
93423SOL     OW82107   5.936   4.037   6.960
93423SOL    HW182108   5.991   3.978   6.908
93423SOL    HW282109   5.924   3.991   7.043
93424SOL     OW82110  10.942   9.131   2.858
93424SOL    HW182111  10.951   9.036   2.846
93424SOL    HW282112  10.866   9.141   2.915
93425SOL     OW82113   0.249  14.005   7.400
93425SOL    HW182114   0.206  14.071   7.346
93425SOL    HW282115   0.339  14.035   7.408
93426SOL     OW82116   3.842  14.202   4.411
93426SOL    HW182117   3.864  14.286   4.371
93426SOL    HW282118   3.906  14.141   4.376
93427SOL     OW82119   3.329   3.140   2.201
93427SOL    HW182120   3.262   3.206   2.221
93427SOL    HW282121   3.346   3.151   2.108
93428SOL     OW82122  11.319   2.572  11.145
93428SOL    HW182123  11.267   2.518  11.206
93428SOL    HW282124  11.255   2.630  11.104
93429SOL     OW82125  10.238   7.961  13.430
93429SOL    HW182126  10.251   7.868  13.448
93429SOL    HW282127  10.212   7.964  13.337
93430SOL     OW82128  12.272  13.788  13.516
93430SOL    HW182129  12.256  13.705  13.562
93430SOL    HW282130  12.188  13.833  13.517
93431SOL     OW82131  13.728   6.012  10.144
93431SOL    HW182132  13.665   6.083  10.129
93431SOL    HW282133  13.741   6.012  10.239
93432SOL     OW82134  13.270  11.365   5.998
93432SOL    HW182135  13.232  11.376   5.911
93432SOL    HW282136  13.325  11.442   6.011
93433SOL     OW82137   8.342   8.450  10.961
93433SOL    HW182138   8.435   8.428  10.948
93433SOL    HW282139   8.296   8.394  10.898
93434SOL     OW82140   7.318  10.229   2.898
93434SOL    HW182141   7.292  10.311   2.941
93434SOL    HW282142   7.380  10.257   2.831
93435SOL     OW82143   7.282  10.591   2.192
93435SOL    HW182144   7.278  10.603   2.097
93435SOL    HW282145   7.225  10.516   2.209
93436SOL     OW82146  10.342  13.510  12.809
93436SOL    HW182147  10.248  13.499  12.800
93436SOL    HW282148  10.371  13.432  12.856
93437SOL     OW82149   9.953  14.556  14.649
93437SOL    HW182150   9.892  14.523  14.582
93437SOL    HW282151   9.933  14.650  14.655
93438SOL     OW82152  12.761   7.274  13.275
93438SOL    HW182153  12.761   7.206  13.207
93438SOL    HW282154  12.685   7.328  13.255
93439SOL     OW82155   6.378   9.406  13.635
93439SOL    HW182156   6.333   9.368  13.559
93439SOL    HW282157   6.339   9.493  13.644
93440SOL     OW82158   4.561  11.106   0.580
93440SOL    HW182159   4.584  11.184   0.630
93440SOL    HW282160   4.465  11.107   0.576
93441SOL     OW82161   4.748   3.738  11.935
93441SOL    HW182162   4.767   3.825  11.900
93441SOL    HW282163   4.833   3.704  11.961
93442SOL     OW82164   9.199  14.694   1.796
93442SOL    HW182165   9.116  14.733   1.822
93442SOL    HW282166   9.217  14.731   1.709
93443SOL     OW82167  12.650   8.398   9.344
93443SOL    HW182168  12.691   8.479   9.376
93443SOL    HW282169  12.694   8.328   9.391
93444SOL     OW82170   5.002  10.573  13.101
93444SOL    HW182171   5.015  10.535  13.187
93444SOL    HW282172   4.920  10.535  13.069
93445SOL     OW82173   5.744  11.074   6.183
93445SOL    HW182174   5.678  11.077   6.251
93445SOL    HW282175   5.827  11.090   6.229
93446SOL     OW82176   3.273   3.365   0.176
93446SOL    HW182177   3.366   3.342   0.182
93446SOL    HW282178   3.258   3.382   0.083
93447SOL     OW82179  12.490  13.909  10.118
93447SOL    HW182180  12.503  14.001  10.140
93447SOL    HW282181  12.429  13.910  10.044
93448SOL     OW82182   4.738   7.843   4.078
93448SOL    HW182183   4.749   7.920   4.134
93448SOL    HW282184   4.817   7.790   4.094
93449SOL     OW82185   9.218   4.204  11.548
93449SOL    HW182186   9.257   4.279  11.592
93449SOL    HW282187   9.275   4.187  11.474
93450SOL     OW82188   2.625   3.314   4.848
93450SOL    HW182189   2.650   3.273   4.931
93450SOL    HW282190   2.702   3.364   4.820
93451SOL     OW82191  11.997  14.200  13.439
93451SOL    HW182192  12.019  14.107  13.452
93451SOL    HW282193  11.905  14.199  13.412
93452SOL     OW82194  14.616  10.233   9.146
93452SOL    HW182195  14.551  10.241   9.215
93452SOL    HW282196  14.621  10.322   9.109
93453SOL     OW82197   4.957   6.937   4.244
93453SOL    HW182198   4.959   7.028   4.217
93453SOL    HW282199   4.889   6.933   4.311
93454SOL     OW82200   0.015   8.650  13.268
93454SOL    HW182201   0.100   8.609  13.251
93454SOL    HW282202  14.862   8.615  13.353
93455SOL     OW82203   8.430   3.410   8.759
93455SOL    HW182204   8.519   3.380   8.741
93455SOL    HW282205   8.439   3.504   8.777
93456SOL     OW82206   1.221  10.769   5.964
93456SOL    HW182207   1.212  10.762   5.869
93456SOL    HW282208   1.269  10.690   5.990
93457SOL     OW82209   6.397   1.509   2.667
93457SOL    HW182210   6.337   1.564   2.617
93457SOL    HW282211   6.382   1.420   2.633
93458SOL     OW82212   4.250   9.295   2.710
93458SOL    HW182213   4.343   9.306   2.729
93458SOL    HW282214   4.206   9.312   2.793
93459SOL     OW82215  10.275  12.077   3.262
93459SOL    HW182216  10.235  12.163   3.249
93459SOL    HW282217  10.212  12.030   3.317
93460SOL     OW82218   3.492   1.372   0.724
93460SOL    HW182219   3.514   1.332   0.807
93460SOL    HW282220   3.472   1.298   0.666
93461SOL     OW82221   8.360   6.124  12.281
93461SOL    HW182222   8.265   6.131  12.272
93461SOL    HW282223   8.387   6.073  12.205
93462SOL     OW82224   7.929   5.874  10.476
93462SOL    HW182225   7.913   5.932  10.401
93462SOL    HW282226   7.937   5.932  10.551
93463SOL     OW82227   1.790   9.552   7.565
93463SOL    HW182228   1.788   9.496   7.643
93463SOL    HW282229   1.702   9.589   7.560
93464SOL     OW82230   8.492   3.249  13.425
93464SOL    HW182231   8.500   3.339  13.394
93464SOL    HW282232   8.582   3.220  13.439
93465SOL     OW82233   3.294  10.409   9.237
93465SOL    HW182234   3.360  10.446   9.179
93465SOL    HW282235   3.334  10.329   9.271
93466SOL     OW82236  12.474   3.927  13.414
93466SOL    HW182237  12.505   3.855  13.359
93466SOL    HW282238  12.526   3.921  13.494
93467SOL     OW82239   3.059   5.830   7.276
93467SOL    HW182240   3.144   5.814   7.235
93467SOL    HW282241   3.012   5.748   7.267
93468SOL     OW82242   4.069  14.479   0.013
93468SOL    HW182243   4.112  14.400  14.855
93468SOL    HW282244   4.132  14.550  14.869
93469SOL     OW82245   4.191  12.137  12.257
93469SOL    HW182246   4.221  12.227  12.242
93469SOL    HW282247   4.117  12.146  12.317
93470SOL     OW82248   9.827   9.641  14.027
93470SOL    HW182249   9.902   9.603  13.981
93470SOL    HW282250   9.756   9.638  13.962
93471SOL     OW82251   2.762   4.397   8.858
93471SOL    HW182252   2.727   4.308   8.855
93471SOL    HW282253   2.854   4.388   8.836
93472SOL     OW82254   6.921   2.365  11.353
93472SOL    HW182255   6.983   2.349  11.424
93472SOL    HW282256   6.937   2.295  11.290
93473SOL     OW82257   9.623   1.159   1.467
93473SOL    HW182258   9.590   1.091   1.526
93473SOL    HW282259   9.713   1.176   1.497
93474SOL     OW82260   6.092  14.796   6.909
93474SOL    HW182261   6.132   0.007   6.896
93474SOL    HW282262   6.146  14.753   6.975
93475SOL     OW82263   5.324  12.487   7.964
93475SOL    HW182264   5.293  12.399   7.944
93475SOL    HW282265   5.400  12.498   7.907
93476SOL     OW82266   8.833   9.366   3.490
93476SOL    HW182267   8.792   9.314   3.560
93476SOL    HW282268   8.927   9.365   3.512
93477SOL     OW82269  10.855  12.563   4.971
93477SOL    HW182270  10.903  12.529   4.896
93477SOL    HW282271  10.773  12.597   4.934
93478SOL     OW82272   5.668   0.315  11.898
93478SOL    HW182273   5.729   0.253  11.859
93478SOL    HW282274   5.720   0.393  11.915
93479SOL     OW82275   3.805   7.732  12.905
93479SOL    HW182276   3.786   7.825  12.917
93479SOL    HW282277   3.848   7.727  12.820
93480SOL     OW82278  10.141   5.397   4.316
93480SOL    HW182279  10.197   5.470   4.287
93480SOL    HW282280  10.119   5.419   4.407
93481SOL     OW82281   7.448   3.148   0.285
93481SOL    HW182282   7.417   3.062   0.313
93481SOL    HW282283   7.532   3.159   0.329
93482SOL     OW82284  10.502  14.420   9.657
93482SOL    HW182285  10.523  14.480   9.586
93482SOL    HW282286  10.421  14.454   9.695
93483SOL     OW82287  13.895  11.560   5.432
93483SOL    HW182288  13.848  11.485   5.468
93483SOL    HW282289  13.987  11.536   5.437
93484SOL     OW82290   4.843   6.385   6.266
93484SOL    HW182291   4.804   6.343   6.342
93484SOL    HW282292   4.938   6.377   6.279
93485SOL     OW82293   6.899   6.356   4.888
93485SOL    HW182294   6.856   6.354   4.803
93485SOL    HW282295   6.843   6.304   4.945
93486SOL     OW82296  10.642   1.627   5.116
93486SOL    HW182297  10.598   1.690   5.173
93486SOL    HW282298  10.718   1.599   5.166
93487SOL     OW82299   3.250   7.436  12.689
93487SOL    HW182300   3.283   7.522  12.717
93487SOL    HW282301   3.277   7.428  12.598
93488SOL     OW82302  10.296   7.489  12.122
93488SOL    HW182303  10.333   7.517  12.205
93488SOL    HW282304  10.372   7.474  12.066
93489SOL     OW82305   2.902  13.373   2.556
93489SOL    HW182306   2.932  13.285   2.537
93489SOL    HW282307   2.898  13.377   2.651
93490SOL     OW82308   6.791   7.751   0.945
93490SOL    HW182309   6.809   7.722   0.855
93490SOL    HW282310   6.697   7.741   0.955
93491SOL     OW82311   6.603  10.475   4.622
93491SOL    HW182312   6.523  10.526   4.635
93491SOL    HW282313   6.660  10.531   4.569
93492SOL     OW82314   9.394   3.190   3.873
93492SOL    HW182315   9.426   3.115   3.924
93492SOL    HW282316   9.317   3.157   3.827
93493SOL     OW82317   6.102  14.285  12.080
93493SOL    HW182318   6.147  14.215  12.033
93493SOL    HW282319   6.100  14.358  12.017
93494SOL     OW82320   6.198   6.598   4.437
93494SOL    HW182321   6.280   6.618   4.392
93494SOL    HW282322   6.141   6.562   4.369
93495SOL     OW82323  13.993  14.388   5.494
93495SOL    HW182324  13.960  14.332   5.424
93495SOL    HW282325  14.058  14.333   5.540
93496SOL     OW82326  11.850  11.561  10.272
93496SOL    HW182327  11.938  11.522  10.274
93496SOL    HW282328  11.822  11.562  10.363
93497SOL     OW82329   3.607  12.822   4.518
93497SOL    HW182330   3.682  12.823   4.577
93497SOL    HW282331   3.531  12.818   4.576
93498SOL     OW82332   9.448   4.042   0.746
93498SOL    HW182333   9.528   4.021   0.697
93498SOL    HW282334   9.478   4.057   0.836
93499SOL     OW82335   9.564  12.173   1.125
93499SOL    HW182336   9.503  12.239   1.159
93499SOL    HW282337   9.551  12.097   1.182
93500SOL     OW82338   9.308   4.219   6.555
93500SOL    HW182339   9.383   4.277   6.539
93500SOL    HW282340   9.237   4.278   6.579
93501SOL     OW82341   5.204   4.074   5.918
93501SOL    HW182342   5.173   3.987   5.943
93501SOL    HW282343   5.298   4.064   5.906
93502SOL     OW82344   0.224  14.416   4.168
93502SOL    HW182345   0.312  14.432   4.134
93502SOL    HW282346   0.179  14.370   4.098
93503SOL     OW82347   5.139  12.982  13.172
93503SOL    HW182348   5.226  13.021  13.169
93503SOL    HW282349   5.140  12.923  13.247
93504SOL     OW82350  13.998  13.316   3.557
93504SOL    HW182351  14.093  13.322   3.550
93504SOL    HW282352  13.965  13.339   3.470
93505SOL     OW82353   4.545  13.506   5.744
93505SOL    HW182354   4.634  13.491   5.777
93505SOL    HW282355   4.529  13.599   5.758
93506SOL     OW82356   1.937  11.525   8.415
93506SOL    HW182357   1.903  11.439   8.388
93506SOL    HW282358   1.937  11.522   8.510
93507SOL     OW82359  14.728  14.587  10.552
93507SOL    HW182360  14.816  14.616  10.528
93507SOL    HW282361  14.740  14.543  10.636
93508SOL     OW82362  10.000  12.937  12.640
93508SOL    HW182363  10.071  12.875  12.622
93508SOL    HW282364   9.962  12.954  12.554
93509SOL     OW82365   6.299  11.617  14.798
93509SOL    HW182366   6.332  11.674  14.728
93509SOL    HW282367   6.216  11.584  14.764
93510SOL     OW82368  11.364   4.741   9.573
93510SOL    HW182369  11.347   4.721   9.481
93510SOL    HW282370  11.308   4.817   9.591
93511SOL     OW82371  10.743   6.991   8.696
93511SOL    HW182372  10.814   6.927   8.692
93511SOL    HW282373  10.676   6.955   8.638
93512SOL     OW82374  13.325   2.620  11.228
93512SOL    HW182375  13.294   2.545  11.179
93512SOL    HW282376  13.262   2.690  11.209
93513SOL     OW82377  13.538   6.181   4.649
93513SOL    HW182378  13.548   6.140   4.735
93513SOL    HW282379  13.550   6.274   4.664
93514SOL     OW82380   4.124   9.011  13.554
93514SOL    HW182381   4.158   9.092  13.592
93514SOL    HW282382   4.173   9.001  13.472
93515SOL     OW82383  10.412  11.051   3.638
93515SOL    HW182384  10.397  10.974   3.583
93515SOL    HW282385  10.359  11.035   3.716
93516SOL     OW82386  14.401   7.305   0.400
93516SOL    HW182387  14.416   7.245   0.327
93516SOL    HW282388  14.323   7.271   0.444
93517SOL     OW82389  11.851   3.615  13.148
93517SOL    HW182390  11.918   3.567  13.197
93517SOL    HW282391  11.769   3.594  13.193
93518SOL     OW82392   8.713  11.253  13.691
93518SOL    HW182393   8.772  11.183  13.662
93518SOL    HW282394   8.769  11.316  13.736
93519SOL     OW82395   7.494   0.821   2.661
93519SOL    HW182396   7.541   0.903   2.679
93519SOL    HW282397   7.558   0.753   2.681
93520SOL     OW82398  12.612   2.579   2.205
93520SOL    HW182399  12.617   2.490   2.170
93520SOL    HW282400  12.525   2.610   2.179
93521SOL     OW82401   2.383   4.051   1.847
93521SOL    HW182402   2.399   4.029   1.755
93521SOL    HW282403   2.349   3.971   1.886
93522SOL     OW82404  13.792   7.319   3.718
93522SOL    HW182405  13.827   7.317   3.629
93522SOL    HW282406  13.869   7.306   3.774
93523SOL     OW82407   0.052   3.905  14.025
93523SOL    HW182408   0.030   3.932  13.936
93523SOL    HW282409   0.135   3.949  14.044
93524SOL     OW82410   5.707  12.999   1.133
93524SOL    HW182411   5.733  13.084   1.099
93524SOL    HW282412   5.788  12.959   1.163
93525SOL     OW82413  14.828   5.422  12.693
93525SOL    HW182414   0.025   5.372  12.653
93525SOL    HW282415  14.787   5.361  12.754
93526SOL     OW82416   6.533   7.740  14.574
93526SOL    HW182417   6.516   7.717  14.666
93526SOL    HW282418   6.477   7.816  14.557
93527SOL     OW82419   8.212   3.265   1.148
93527SOL    HW182420   8.217   3.237   1.057
93527SOL    HW282421   8.149   3.204   1.188
93528SOL     OW82422   1.702  13.871   7.748
93528SOL    HW182423   1.636  13.940   7.756
93528SOL    HW282424   1.780  13.907   7.789
93529SOL     OW82425   3.009  11.686   0.309
93529SOL    HW182426   3.056  11.604   0.295
93529SOL    HW282427   2.925  11.673   0.265
93530SOL     OW82428   7.484   1.685   5.553
93530SOL    HW182429   7.450   1.771   5.579
93530SOL    HW282430   7.529   1.653   5.631
93531SOL     OW82431   5.469   5.682   1.572
93531SOL    HW182432   5.503   5.748   1.511
93531SOL    HW282433   5.530   5.684   1.646
93532SOL     OW82434   0.813   0.580  11.920
93532SOL    HW182435   0.894   0.531  11.902
93532SOL    HW282436   0.837   0.641  11.989
93533SOL     OW82437   3.636  10.715  10.626
93533SOL    HW182438   3.703  10.778  10.598
93533SOL    HW282439   3.615  10.665  10.548
93534SOL     OW82440   6.938   2.342   2.410
93534SOL    HW182441   6.942   2.434   2.388
93534SOL    HW282442   6.851   2.314   2.381
93535SOL     OW82443   6.611   5.999   9.370
93535SOL    HW182444   6.636   5.971   9.282
93535SOL    HW282445   6.621   5.920   9.423
93536SOL     OW82446   3.322   1.363   8.397
93536SOL    HW182447   3.323   1.454   8.427
93536SOL    HW282448   3.241   1.356   8.347
93537SOL     OW82449   4.770   3.792   8.844
93537SOL    HW182450   4.862   3.788   8.867
93537SOL    HW282451   4.764   3.862   8.778
93538SOL     OW82452   9.235   5.451   1.502
93538SOL    HW182453   9.198   5.532   1.538
93538SOL    HW282454   9.159   5.400   1.474
93539SOL     OW82455  13.769  11.350   1.159
93539SOL    HW182456  13.754  11.414   1.089
93539SOL    HW282457  13.864  11.346   1.169
93540SOL     OW82458   9.004   2.313   1.674
93540SOL    HW182459   8.960   2.395   1.699
93540SOL    HW282460   9.047   2.284   1.754
93541SOL     OW82461  10.469   1.049   4.166
93541SOL    HW182462  10.512   1.093   4.093
93541SOL    HW282463  10.471   1.112   4.237
93542SOL     OW82464   2.459   3.814   2.673
93542SOL    HW182465   2.551   3.834   2.690
93542SOL    HW282466   2.425   3.892   2.629
93543SOL     OW82467   5.630  10.084   6.941
93543SOL    HW182468   5.615  10.083   7.036
93543SOL    HW282469   5.691  10.012   6.926
93544SOL     OW82470   0.553  14.161  10.497
93544SOL    HW182471   0.526  14.172  10.588
93544SOL    HW282472   0.485  14.204  10.446
93545SOL     OW82473   6.961   1.226  13.815
93545SOL    HW182474   6.955   1.236  13.720
93545SOL    HW282475   6.872   1.204  13.843
93546SOL     OW82476  12.023  11.768   0.083
93546SOL    HW182477  12.112  11.740   0.062
93546SOL    HW282478  12.031  11.812   0.168
93547SOL     OW82479  11.653   4.384   6.729
93547SOL    HW182480  11.642   4.479   6.718
93547SOL    HW282481  11.570   4.347   6.698
93548SOL     OW82482   8.758   9.567   0.789
93548SOL    HW182483   8.710   9.487   0.772
93548SOL    HW282484   8.692   9.629   0.820
93549SOL     OW82485   7.946   7.880   0.468
93549SOL    HW182486   7.858   7.867   0.503
93549SOL    HW282487   7.952   7.974   0.451
93550SOL     OW82488   6.814   4.257   7.843
93550SOL    HW182489   6.774   4.318   7.905
93550SOL    HW282490   6.827   4.309   7.764
93551SOL     OW82491  10.763   9.027   2.341
93551SOL    HW182492  10.793   9.118   2.347
93551SOL    HW282493  10.836   8.981   2.301
93552SOL     OW82494   2.929   1.180   6.802
93552SOL    HW182495   2.947   1.160   6.894
93552SOL    HW282496   2.977   1.261   6.785
93553SOL     OW82497   9.403   6.845   2.585
93553SOL    HW182498   9.393   6.930   2.542
93553SOL    HW282499   9.358   6.783   2.528
93554SOL     OW82500   7.465   5.798  13.005
93554SOL    HW182501   7.520   5.748  13.065
93554SOL    HW282502   7.515   5.878  12.987
93555SOL     OW82503   5.375  10.055  12.978
93555SOL    HW182504   5.282  10.042  12.994
93555SOL    HW282505   5.380  10.082  12.886
93556SOL     OW82506   1.615   7.131  10.796
93556SOL    HW182507   1.708   7.120  10.778
93556SOL    HW282508   1.571   7.076  10.731
93557SOL     OW82509  12.838   8.751  11.402
93557SOL    HW182510  12.888   8.776  11.324
93557SOL    HW282511  12.871   8.664  11.425
93558SOL     OW82512  12.811   2.787   6.099
93558SOL    HW182513  12.824   2.693   6.083
93558SOL    HW282514  12.879   2.829   6.046
93559SOL     OW82515   1.272   5.518   2.103
93559SOL    HW182516   1.261   5.523   2.198
93559SOL    HW282517   1.276   5.609   2.074
93560SOL     OW82518  12.449  14.200   3.520
93560SOL    HW182519  12.434  14.216   3.427
93560SOL    HW282520  12.453  14.105   3.528
93561SOL     OW82521   8.372  12.141   2.323
93561SOL    HW182522   8.336  12.208   2.382
93561SOL    HW282523   8.373  12.184   2.237
93562SOL     OW82524  13.047   0.761   4.981
93562SOL    HW182525  13.127   0.758   5.033
93562SOL    HW282526  13.013   0.849   4.993
93563SOL     OW82527   9.088   6.568  13.781
93563SOL    HW182528   9.089   6.514  13.860
93563SOL    HW282529   9.107   6.505  13.710
93564SOL     OW82530  11.189   5.523   1.987
93564SOL    HW182531  11.229   5.568   1.913
93564SOL    HW282532  11.263   5.501   2.044
93565SOL     OW82533  13.504   5.593  12.259
93565SOL    HW182534  13.538   5.540  12.187
93565SOL    HW282535  13.409   5.588  12.249
93566SOL     OW82536  13.142   9.607   1.966
93566SOL    HW182537  13.134   9.514   1.941
93566SOL    HW282538  13.138   9.607   2.061
93567SOL     OW82539   7.786   5.728  13.255
93567SOL    HW182540   7.815   5.819  13.260
93567SOL    HW282541   7.777   5.711  13.161
93568SOL     OW82542   7.448   3.918   5.939
93568SOL    HW182543   7.400   3.969   5.874
93568SOL    HW282544   7.473   3.983   6.005
93569SOL     OW82545   0.701  11.364   9.850
93569SOL    HW182546   0.638  11.412   9.795
93569SOL    HW282547   0.657  11.355   9.935
93570SOL     OW82548   6.809   0.278   3.896
93570SOL    HW182549   6.858   0.359   3.877
93570SOL    HW282550   6.769   0.294   3.981
93571SOL     OW82551  12.211  13.590  13.674
93571SOL    HW182552  12.175  13.537  13.603
93571SOL    HW282553  12.174  13.552  13.754
93572SOL     OW82554   3.837   5.178   6.236
93572SOL    HW182555   3.748   5.194   6.268
93572SOL    HW282556   3.862   5.095   6.277
93573SOL     OW82557  13.723   0.994   8.462
93573SOL    HW182558  13.779   1.055   8.509
93573SOL    HW282559  13.775   0.914   8.455
93574SOL     OW82560   0.086   1.898   1.049
93574SOL    HW182561   0.090   1.975   0.992
93574SOL    HW282562   0.174   1.891   1.087
93575SOL     OW82563  13.439  13.087   0.684
93575SOL    HW182564  13.465  13.079   0.776
93575SOL    HW282565  13.356  13.134   0.686
93576SOL     OW82566   7.836  12.885   9.884
93576SOL    HW182567   7.791  12.821   9.939
93576SOL    HW282568   7.898  12.833   9.833
93577SOL     OW82569   2.360  11.278   9.943
93577SOL    HW182570   2.426  11.347   9.944
93577SOL    HW282571   2.400  11.206   9.992
93578SOL     OW82572   8.720  13.460   7.471
93578SOL    HW182573   8.649  13.443   7.533
93578SOL    HW282574   8.676  13.471   7.386
93579SOL     OW82575  11.695   6.141   3.326
93579SOL    HW182576  11.770   6.191   3.292
93579SOL    HW282577  11.682   6.072   3.261
93580SOL     OW82578   9.800   3.420   6.924
93580SOL    HW182579   9.730   3.355   6.932
93580SOL    HW282580   9.827   3.438   7.014
93581SOL     OW82581   1.094  12.472   6.626
93581SOL    HW182582   1.174  12.429   6.597
93581SOL    HW282583   1.124  12.549   6.674
93582SOL     OW82584   8.221   9.706  13.777
93582SOL    HW182585   8.208   9.665  13.691
93582SOL    HW282586   8.258   9.792  13.757
93583SOL     OW82587   7.224  13.677   4.797
93583SOL    HW182588   7.284  13.709   4.864
93583SOL    HW282589   7.277  13.620   4.741
93584SOL     OW82590   7.868   3.457  11.422
93584SOL    HW182591   7.877   3.463  11.517
93584SOL    HW282592   7.898   3.369  11.400
93585SOL     OW82593  10.942  13.431   4.528
93585SOL    HW182594  10.874  13.460   4.589
93585SOL    HW282595  11.016  13.405   4.584
93586SOL     OW82596   9.302   3.079  11.337
93586SOL    HW182597   9.376   3.108  11.284
93586SOL    HW282598   9.341   3.039  11.414
93587SOL     OW82599  13.525   7.319  10.754
93587SOL    HW182600  13.586   7.250  10.781
93587SOL    HW282601  13.582   7.386  10.716
93588SOL     OW82602  11.496  10.975  11.074
93588SOL    HW182603  11.414  11.009  11.110
93588SOL    HW282604  11.564  11.016  11.129
93589SOL     OW82605   7.697   2.524   5.099
93589SOL    HW182606   7.727   2.504   5.010
93589SOL    HW282607   7.773   2.560   5.143
93590SOL     OW82608  12.411   3.742   8.335
93590SOL    HW182609  12.372   3.682   8.272
93590SOL    HW282610  12.399   3.698   8.420
93591SOL     OW82611  10.164   4.066   2.679
93591SOL    HW182612  10.245   4.117   2.671
93591SOL    HW282613  10.111   4.095   2.604
93592SOL     OW82614   8.354   1.409  12.725
93592SOL    HW182615   8.336   1.400  12.819
93592SOL    HW282616   8.342   1.321  12.690
93593SOL     OW82617   8.276   1.922  14.515
93593SOL    HW182618   8.186   1.935  14.486
93593SOL    HW282619   8.326   1.909  14.434
93594SOL     OW82620  14.281   6.568   9.207
93594SOL    HW182621  14.228   6.552   9.128
93594SOL    HW282622  14.371   6.567   9.176
93595SOL     OW82623  11.379  10.535   8.803
93595SOL    HW182624  11.332  10.616   8.823
93595SOL    HW282625  11.384  10.534   8.707
93596SOL     OW82626  13.906   6.411   0.260
93596SOL    HW182627  13.895   6.501   0.228
93596SOL    HW282628  13.977   6.375   0.207
93597SOL     OW82629   0.286   2.221   8.680
93597SOL    HW182630   0.297   2.309   8.645
93597SOL    HW282631   0.246   2.234   8.766
93598SOL     OW82632   5.643   6.048   3.646
93598SOL    HW182633   5.707   5.995   3.694
93598SOL    HW282634   5.570   6.059   3.708
93599SOL     OW82635   9.487   9.666  11.378
93599SOL    HW182636   9.423   9.729  11.345
93599SOL    HW282637   9.540   9.715  11.441
93600SOL     OW82638   4.488   4.976  11.836
93600SOL    HW182639   4.562   4.947  11.890
93600SOL    HW282640   4.504   5.070  11.821
93601SOL     OW82641   6.795   9.506   4.105
93601SOL    HW182642   6.828   9.428   4.151
93601SOL    HW282643   6.832   9.499   4.017
93602SOL     OW82644   5.663  13.489   5.580
93602SOL    HW182645   5.687  13.472   5.671
93602SOL    HW282646   5.698  13.415   5.531
93603SOL     OW82647   7.542   1.080   3.270
93603SOL    HW182648   7.510   1.152   3.325
93603SOL    HW282649   7.483   1.079   3.195
93604SOL     OW82650  10.841   0.705   2.741
93604SOL    HW182651  10.867   0.784   2.788
93604SOL    HW282652  10.770   0.668   2.792
93605SOL     OW82653  10.130   0.482   0.812
93605SOL    HW182654  10.092   0.402   0.849
93605SOL    HW282655  10.055   0.537   0.790
93606SOL     OW82656   5.670   9.082   1.236
93606SOL    HW182657   5.718   9.069   1.317
93606SOL    HW282658   5.738   9.097   1.170
93607SOL     OW82659   2.996   3.567  13.027
93607SOL    HW182660   3.013   3.639  13.087
93607SOL    HW282661   2.902   3.572  13.010
93608SOL     OW82662   6.723  13.809   8.473
93608SOL    HW182663   6.640  13.765   8.493
93608SOL    HW282664   6.790  13.749   8.505
93609SOL     OW82665   4.708   5.806   1.565
93609SOL    HW182666   4.649   5.831   1.493
93609SOL    HW282667   4.650   5.779   1.635
93610SOL     OW82668   7.586   0.731   6.876
93610SOL    HW182669   7.491   0.719   6.882
93610SOL    HW282670   7.620   0.644   6.858
93611SOL     OW82671   9.469   9.589   3.527
93611SOL    HW182672   9.504   9.570   3.614
93611SOL    HW282673   9.518   9.666   3.498
93612SOL     OW82674  13.073  10.384   7.787
93612SOL    HW182675  12.979  10.387   7.802
93612SOL    HW282676  13.105  10.468   7.820
93613SOL     OW82677  12.447   7.385  14.780
93613SOL    HW182678  12.384   7.386  14.852
93613SOL    HW282679  12.505   7.459  14.797
93614SOL     OW82680   3.237   8.124   1.519
93614SOL    HW182681   3.163   8.140   1.579
93614SOL    HW282682   3.227   8.033   1.494
93615SOL     OW82683  13.748  11.388   4.097
93615SOL    HW182684  13.761  11.400   4.191
93615SOL    HW282685  13.824  11.428   4.057
93616SOL     OW82686   0.477   0.478   4.602
93616SOL    HW182687   0.568   0.476   4.632
93616SOL    HW282688   0.425   0.486   4.682
93617SOL     OW82689   5.925   0.303   3.088
93617SOL    HW182690   5.922   0.394   3.060
93617SOL    HW282691   5.854   0.294   3.152
93618SOL     OW82692   9.981  10.346   9.464
93618SOL    HW182693   9.951  10.432   9.433
93618SOL    HW282694   9.934  10.332   9.546
93619SOL     OW82695   5.780   9.416  12.608
93619SOL    HW182696   5.825   9.350  12.556
93619SOL    HW282697   5.760   9.372  12.690
93620SOL     OW82698   8.774  14.074  10.986
93620SOL    HW182699   8.786  13.981  10.966
93620SOL    HW282700   8.730  14.075  11.071
93621SOL     OW82701   0.632   1.178  12.267
93621SOL    HW182702   0.615   1.134  12.350
93621SOL    HW282703   0.555   1.233  12.253
93622SOL     OW82704  12.577   5.242  11.279
93622SOL    HW182705  12.484   5.245  11.256
93622SOL    HW282706  12.622   5.240  11.194
93623SOL     OW82707  14.804   0.121   2.335
93623SOL    HW182708  14.745   0.195   2.348
93623SOL    HW282709  14.748   0.044   2.339
93624SOL     OW82710   7.256   8.755   8.873
93624SOL    HW182711   7.337   8.738   8.921
93624SOL    HW282712   7.273   8.722   8.785
93625SOL     OW82713   8.285   6.404   6.177
93625SOL    HW182714   8.259   6.325   6.224
93625SOL    HW282715   8.219   6.469   6.201
93626SOL     OW82716   1.550  14.179   8.267
93626SOL    HW182717   1.513  14.267   8.267
93626SOL    HW282718   1.642  14.192   8.289
93627SOL     OW82719  10.806  12.922  14.663
93627SOL    HW182720  10.717  12.908  14.631
93627SOL    HW282721  10.821  13.016  14.651
93628SOL     OW82722   6.504   3.146   7.576
93628SOL    HW182723   6.487   3.096   7.656
93628SOL    HW282724   6.472   3.234   7.596
93629SOL     OW82725  12.095   7.834   7.263
93629SOL    HW182726  12.150   7.773   7.310
93629SOL    HW282727  12.008   7.822   7.300
93630SOL     OW82728  10.273   2.984   6.543
93630SOL    HW182729  10.242   3.065   6.503
93630SOL    HW282730  10.369   2.992   6.542
93631SOL     OW82731   0.345   7.300   6.359
93631SOL    HW182732   0.338   7.345   6.275
93631SOL    HW282733   0.438   7.278   6.367
93632SOL     OW82734   3.291   0.906  13.495
93632SOL    HW182735   3.256   0.972  13.555
93632SOL    HW282736   3.384   0.927  13.487
93633SOL     OW82737   0.185  14.756   8.414
93633SOL    HW182738   0.261  14.701   8.396
93633SOL    HW282739   0.151  14.724   8.498
93634SOL     OW82740   5.230   3.646   3.661
93634SOL    HW182741   5.317   3.670   3.629
93634SOL    HW282742   5.170   3.682   3.597
93635SOL     OW82743   4.667   8.965  12.456
93635SOL    HW182744   4.682   8.883  12.410
93635SOL    HW282745   4.694   9.033  12.394
93636SOL     OW82746   7.345   5.658   6.702
93636SOL    HW182747   7.391   5.670   6.785
93636SOL    HW282748   7.383   5.579   6.664
93637SOL     OW82749   7.518   6.534   5.710
93637SOL    HW182750   7.584   6.541   5.779
93637SOL    HW282751   7.532   6.448   5.671
93638SOL     OW82752   3.073   4.646   9.250
93638SOL    HW182753   3.003   4.602   9.297
93638SOL    HW282754   3.056   4.627   9.157
93639SOL     OW82755   4.155   1.211  11.885
93639SOL    HW182756   4.093   1.271  11.845
93639SOL    HW282757   4.178   1.149  11.815
93640SOL     OW82758   6.366   3.653   4.625
93640SOL    HW182759   6.344   3.737   4.584
93640SOL    HW282760   6.347   3.665   4.717
93641SOL     OW82761   1.603  11.258   6.809
93641SOL    HW182762   1.684  11.206   6.809
93641SOL    HW282763   1.553  11.222   6.736
93642SOL     OW82764   8.764  13.335   1.348
93642SOL    HW182765   8.750  13.330   1.254
93642SOL    HW282766   8.677  13.322   1.387
93643SOL     OW82767   5.951   6.219   0.601
93643SOL    HW182768   5.895   6.148   0.633
93643SOL    HW282769   5.913   6.298   0.638
93644SOL     OW82770  12.222   4.632   4.263
93644SOL    HW182771  12.180   4.692   4.324
93644SOL    HW282772  12.150   4.582   4.225
93645SOL     OW82773   7.816  13.096  13.836
93645SOL    HW182774   7.792  13.132  13.922
93645SOL    HW282775   7.864  13.016  13.857
93646SOL     OW82776  12.927   2.861   1.787
93646SOL    HW182777  12.864   2.924   1.753
93646SOL    HW282778  13.006   2.875   1.734
93647SOL     OW82779   7.532   8.182  11.724
93647SOL    HW182780   7.492   8.102  11.760
93647SOL    HW282781   7.521   8.174  11.630
93648SOL     OW82782   4.264   3.034  13.481
93648SOL    HW182783   4.253   2.960  13.541
93648SOL    HW282784   4.353   3.024  13.446
93649SOL     OW82785  11.208  10.819   2.097
93649SOL    HW182786  11.124  10.834   2.141
93649SOL    HW282787  11.184  10.770   2.018
93650SOL     OW82788  14.535   0.142   3.126
93650SOL    HW182789  14.616   0.147   3.075
93650SOL    HW282790  14.555   0.186   3.208
93651SOL     OW82791   1.580   0.516   7.580
93651SOL    HW182792   1.645   0.492   7.645
93651SOL    HW282793   1.594   0.456   7.507
93652SOL     OW82794   1.383   3.475   7.592
93652SOL    HW182795   1.352   3.384   7.592
93652SOL    HW282796   1.318   3.523   7.643
93653SOL     OW82797  11.110   2.385  10.919
93653SOL    HW182798  11.038   2.323  10.908
93653SOL    HW282799  11.098   2.448  10.848
93654SOL     OW82800   5.243   9.259   3.260
93654SOL    HW182801   5.225   9.196   3.331
93654SOL    HW282802   5.338   9.272   3.264
93655SOL     OW82803   8.083  14.743   5.202
93655SOL    HW182804   8.129  14.733   5.286
93655SOL    HW282805   7.999  14.698   5.215
93656SOL     OW82806  10.991   2.141  13.775
93656SOL    HW182807  10.951   2.110  13.693
93656SOL    HW282808  11.084   2.119  13.766
93657SOL     OW82809   9.173   8.046   8.496
93657SOL    HW182810   9.140   8.078   8.580
93657SOL    HW282811   9.107   8.073   8.432
93658SOL     OW82812  12.230   2.893   0.290
93658SOL    HW182813  12.293   2.923   0.356
93658SOL    HW282814  12.145   2.917   0.325
93659SOL     OW82815   7.590   8.048   0.134
93659SOL    HW182816   7.596   8.029   0.227
93659SOL    HW282817   7.496   8.057   0.117
93660SOL     OW82818   4.213   1.355  12.246
93660SOL    HW182819   4.271   1.427  12.223
93660SOL    HW282820   4.258   1.277  12.215
93661SOL     OW82821   7.915   6.071  12.893
93661SOL    HW182822   7.832   6.060  12.848
93661SOL    HW282823   7.981   6.053  12.827
93662SOL     OW82824   5.971  10.315  10.108
93662SOL    HW182825   5.995  10.359  10.190
93662SOL    HW282826   5.971  10.386  10.043
93663SOL     OW82827  13.630  11.576   6.463
93663SOL    HW182828  13.588  11.491   6.452
93663SOL    HW282829  13.719  11.563   6.432
93664SOL     OW82830   4.058   9.323   1.100
93664SOL    HW182831   4.090   9.286   1.182
93664SOL    HW282832   4.123   9.297   1.035
93665SOL     OW82833  14.750   4.154  14.598
93665SOL    HW182834  14.796   4.075  14.628
93665SOL    HW282835  14.820   4.218  14.583
93666SOL     OW82836  11.693   7.152  14.159
93666SOL    HW182837  11.598   7.143  14.149
93666SOL    HW282838  11.718   7.219  14.096
93667SOL     OW82839   4.246   1.341   1.396
93667SOL    HW182840   4.163   1.319   1.356
93667SOL    HW282841   4.260   1.433   1.375
93668SOL     OW82842   8.746   2.628   3.710
93668SOL    HW182843   8.693   2.701   3.678
93668SOL    HW282844   8.683   2.558   3.725
93669SOL     OW82845   2.454   3.939  12.706
93669SOL    HW182846   2.501   3.912  12.627
93669SOL    HW282847   2.454   3.861  12.762
93670SOL     OW82848  14.363   1.946   7.825
93670SOL    HW182849  14.276   1.982   7.805
93670SOL    HW282850  14.346   1.855   7.847
93671SOL     OW82851   5.640   6.337   6.542
93671SOL    HW182852   5.586   6.317   6.465
93671SOL    HW282853   5.630   6.431   6.554
93672SOL     OW82854   1.715   8.856  12.983
93672SOL    HW182855   1.662   8.777  12.998
93672SOL    HW282856   1.796   8.823  12.945
93673SOL     OW82857   1.172  11.477   4.704
93673SOL    HW182858   1.120  11.468   4.624
93673SOL    HW282859   1.219  11.393   4.711
93674SOL     OW82860   7.565  12.157   3.689
93674SOL    HW182861   7.526  12.091   3.631
93674SOL    HW282862   7.658  12.156   3.665
93675SOL     OW82863   0.320   0.522   1.673
93675SOL    HW182864   0.349   0.552   1.587
93675SOL    HW282865   0.346   0.592   1.733
93676SOL     OW82866  13.560  12.026   9.346
93676SOL    HW182867  13.557  11.943   9.300
93676SOL    HW282868  13.479  12.028   9.398
93677SOL     OW82869  13.779   5.065   2.224
93677SOL    HW182870  13.761   5.072   2.318
93677SOL    HW282871  13.750   4.977   2.201
93678SOL     OW82872   8.050   0.353  11.824
93678SOL    HW182873   8.140   0.381  11.845
93678SOL    HW282874   8.052   0.333  11.731
93679SOL     OW82875  11.389   0.764   0.744
93679SOL    HW182876  11.479   0.743   0.771
93679SOL    HW282877  11.373   0.708   0.668
93680SOL     OW82878   6.795  14.643   4.217
93680SOL    HW182879   6.814  14.551   4.233
93680SOL    HW282880   6.709  14.643   4.176
93681SOL     OW82881   9.667  13.733  12.811
93681SOL    HW182882   9.712  13.807  12.769
93681SOL    HW282883   9.739  13.680  12.847
93682SOL     OW82884  12.571   1.585   5.925
93682SOL    HW182885  12.554   1.518   5.859
93682SOL    HW282886  12.647   1.553   5.974
93683SOL     OW82887  12.518   7.954   0.655
93683SOL    HW182888  12.455   7.905   0.602
93683SOL    HW282889  12.475   7.963   0.740
93684SOL     OW82890  11.774   6.153   9.107
93684SOL    HW182891  11.700   6.207   9.077
93684SOL    HW282892  11.747   6.063   9.088
93685SOL     OW82893   4.614  10.375   3.172
93685SOL    HW182894   4.665  10.407   3.097
93685SOL    HW282895   4.668  10.396   3.248
93686SOL     OW82896   2.179   6.156   6.567
93686SOL    HW182897   2.102   6.170   6.624
93686SOL    HW282898   2.197   6.243   6.531
93687SOL     OW82899  13.374   4.319   7.954
93687SOL    HW182900  13.381   4.239   8.006
93687SOL    HW282901  13.284   4.348   7.967
93688SOL     OW82902   9.037  10.879   5.419
93688SOL    HW182903   9.014  10.851   5.331
93688SOL    HW282904   9.035  10.799   5.471
93689SOL     OW82905   6.842   0.811   2.202
93689SOL    HW182906   6.904   0.802   2.275
93689SOL    HW282907   6.814   0.902   2.206
93690SOL     OW82908   6.783   9.255   3.208
93690SOL    HW182909   6.812   9.176   3.254
93690SOL    HW282910   6.798   9.326   3.271
93691SOL     OW82911   1.197   6.724  13.333
93691SOL    HW182912   1.263   6.661  13.302
93691SOL    HW282913   1.229   6.751  13.420
93692SOL     OW82914  13.904   2.578   0.103
93692SOL    HW182915  13.998   2.566   0.085
93692SOL    HW282916  13.885   2.667   0.073
93693SOL     OW82917   9.510   6.551   5.266
93693SOL    HW182918   9.591   6.536   5.217
93693SOL    HW282919   9.537   6.604   5.341
93694SOL     OW82920   0.974  13.882  13.357
93694SOL    HW182921   0.985  13.808  13.297
93694SOL    HW282922   0.950  13.841  13.441
93695SOL     OW82923   1.196   1.586   3.507
93695SOL    HW182924   1.160   1.649   3.570
93695SOL    HW282925   1.150   1.504   3.525
93696SOL     OW82926   6.564   6.514  13.109
93696SOL    HW182927   6.555   6.437  13.165
93696SOL    HW282928   6.639   6.561  13.145
93697SOL     OW82929   2.994  14.499  11.938
93697SOL    HW182930   3.058  14.428  11.927
93697SOL    HW282931   2.942  14.472  12.014
93698SOL     OW82932  14.857   5.412   2.598
93698SOL    HW182933  14.840   5.383   2.687
93698SOL    HW282934  14.818   5.500   2.593
93699SOL     OW82935  11.228   5.528   7.334
93699SOL    HW182936  11.255   5.454   7.388
93699SOL    HW282937  11.177   5.584   7.393
93700SOL     OW82938   5.812   2.490  10.291
93700SOL    HW182939   5.895   2.523  10.326
93700SOL    HW282940   5.786   2.555  10.226
93701SOL     OW82941   8.527  11.677  11.991
93701SOL    HW182942   8.590  11.656  11.922
93701SOL    HW282943   8.477  11.596  12.004
93702SOL     OW82944   0.115   3.702   9.115
93702SOL    HW182945   0.143   3.627   9.167
93702SOL    HW282946   0.184   3.767   9.126
93703SOL     OW82947   1.374  12.367   1.625
93703SOL    HW182948   1.372  12.463   1.623
93703SOL    HW282949   1.283  12.342   1.643
93704SOL     OW82950  13.620   4.120   9.763
93704SOL    HW182951  13.670   4.200   9.747
93704SOL    HW282952  13.640   4.097   9.854
93705SOL     OW82953   6.606  14.576   0.402
93705SOL    HW182954   6.636  14.617   0.321
93705SOL    HW282955   6.661  14.497   0.410
93706SOL     OW82956   2.495  12.588   3.832
93706SOL    HW182957   2.453  12.610   3.916
93706SOL    HW282958   2.469  12.497   3.816
93707SOL     OW82959  12.630   8.303  10.043
93707SOL    HW182960  12.619   8.208  10.057
93707SOL    HW282961  12.692   8.309   9.970
93708SOL     OW82962   5.005   3.454  14.021
93708SOL    HW182963   5.000   3.359  14.031
93708SOL    HW282964   5.032   3.467  13.930
93709SOL     OW82965   1.461   5.281   6.966
93709SOL    HW182966   1.473   5.201   7.016
93709SOL    HW282967   1.413   5.254   6.888
93710SOL     OW82968   8.750   3.979   2.458
93710SOL    HW182969   8.705   3.899   2.431
93710SOL    HW282970   8.680   4.038   2.484
93711SOL     OW82971   1.308   7.135   0.540
93711SOL    HW182972   1.401   7.116   0.555
93711SOL    HW282973   1.307   7.192   0.464
93712SOL     OW82974   4.317   5.266   6.035
93712SOL    HW182975   4.340   5.290   6.125
93712SOL    HW282976   4.235   5.216   6.044
93713SOL     OW82977  10.973   6.344  11.517
93713SOL    HW182978  10.999   6.435  11.533
93713SOL    HW282979  10.885   6.337  11.555
93714SOL     OW82980   0.996   4.783  14.788
93714SOL    HW182981   0.933   4.817  14.724
93714SOL    HW282982   1.036   4.861  14.825
93715SOL     OW82983  13.660   9.286  11.121
93715SOL    HW182984  13.681   9.273  11.029
93715SOL    HW282985  13.744   9.293  11.165
93716SOL     OW82986   4.472   4.747   9.946
93716SOL    HW182987   4.475   4.781   9.857
93716SOL    HW282988   4.425   4.664   9.939
93717SOL     OW82989   3.816   3.405   4.756
93717SOL    HW182990   3.731   3.363   4.767
93717SOL    HW282991   3.829   3.410   4.661
93718SOL     OW82992   1.568  11.638   8.343
93718SOL    HW182993   1.499  11.686   8.296
93718SOL    HW282994   1.648  11.658   8.295
93719SOL     OW82995   3.241   3.241   8.068
93719SOL    HW182996   3.164   3.187   8.047
93719SOL    HW282997   3.240   3.310   8.002
93720SOL     OW82998   3.054  11.413  13.579
93720SOL    HW182999   3.066  11.469  13.656
93720SOL    HW283000   2.960  11.416  13.561
93721SOL     OW83001  14.852   5.095   4.019
93721SOL    HW183002  14.811   5.180   4.031
93721SOL    HW283003   0.062   5.114   3.977
93722SOL     OW83004   3.843   9.286   0.949
93722SOL    HW183005   3.912   9.326   1.002
93722SOL    HW283006   3.807   9.217   1.005
93723SOL     OW83007   0.186  13.633  13.622
93723SOL    HW183008   0.270  13.605  13.659
93723SOL    HW283009   0.191  13.608  13.530
93724SOL     OW83010   8.367   0.642   1.241
93724SOL    HW183011   8.404   0.730   1.237
93724SOL    HW283012   8.320   0.632   1.157
93725SOL     OW83013   8.565  11.682   1.212
93725SOL    HW183014   8.571  11.590   1.238
93725SOL    HW283015   8.525  11.726   1.287
93726SOL     OW83016  11.066  10.128   5.911
93726SOL    HW183017  11.155  10.094   5.913
93726SOL    HW283018  11.026  10.094   5.991
93727SOL     OW83019  11.979   2.789  11.855
93727SOL    HW183020  11.930   2.831  11.785
93727SOL    HW283021  12.012   2.862  11.908
93728SOL     OW83022   3.506   9.657   6.815
93728SOL    HW183023   3.549   9.677   6.732
93728SOL    HW283024   3.413   9.649   6.793
93729SOL     OW83025   3.849  11.080   3.780
93729SOL    HW183026   3.765  11.082   3.735
93729SOL    HW283027   3.902  11.020   3.728
93730SOL     OW83028  10.655   8.224   6.201
93730SOL    HW183029  10.657   8.224   6.297
93730SOL    HW283030  10.600   8.299   6.178
93731SOL     OW83031   0.591  13.316   6.973
93731SOL    HW183032   0.510  13.328   7.023
93731SOL    HW283033   0.654  13.375   7.015
93732SOL     OW83034   3.902  11.872  14.401
93732SOL    HW183035   3.956  11.930  14.454
93732SOL    HW283036   3.841  11.832  14.462
93733SOL     OW83037   0.004   8.565  14.459
93733SOL    HW183038   0.055   8.571  14.540
93733SOL    HW283039  14.835   8.479  14.465
93734SOL     OW83040  13.237   5.337   4.146
93734SOL    HW183041  13.297   5.310   4.077
93734SOL    HW283042  13.278   5.308   4.227
93735SOL     OW83043  11.010  13.569  14.672
93735SOL    HW183044  10.914  13.567  14.680
93735SOL    HW283045  11.039  13.495  14.726
93736SOL     OW83046   2.914   5.941  12.925
93736SOL    HW183047   2.906   5.972  12.835
93736SOL    HW283048   2.839   5.883  12.937
93737SOL     OW83049   7.359   5.100   6.621
93737SOL    HW183050   7.422   5.028   6.628
93737SOL    HW283051   7.390   5.151   6.545
93738SOL     OW83052   1.139   0.331   2.248
93738SOL    HW183053   1.046   0.326   2.271
93738SOL    HW283054   1.156   0.424   2.239
93739SOL     OW83055   1.548  12.192  10.534
93739SOL    HW183056   1.601  12.153  10.604
93739SOL    HW283057   1.523  12.118  10.478
93740SOL     OW83058   6.086   3.877   9.345
93740SOL    HW183059   6.126   3.814   9.405
93740SOL    HW283060   6.129   3.960   9.366
93741SOL     OW83061  11.345   0.271   2.092
93741SOL    HW183062  11.274   0.263   2.156
93741SOL    HW283063  11.350   0.185   2.050
93742SOL     OW83064  12.804   3.358   1.147
93742SOL    HW183065  12.834   3.279   1.103
93742SOL    HW283066  12.848   3.429   1.102
93743SOL     OW83067   6.920  13.264   5.387
93743SOL    HW183068   6.907  13.172   5.366
93743SOL    HW283069   6.852  13.310   5.339
93744SOL     OW83070  10.955  10.764  10.210
93744SOL    HW183071  10.971  10.857  10.191
93744SOL    HW283072  10.867  10.748  10.178
93745SOL     OW83073   9.026  14.670   2.993
93745SOL    HW183074   8.952  14.615   3.016
93745SOL    HW283075   9.019  14.746   3.051
93746SOL     OW83076  13.550  11.787  11.255
93746SOL    HW183077  13.639  11.758  11.272
93746SOL    HW283078  13.527  11.840  11.331
93747SOL     OW83079   2.524   5.820   5.126
93747SOL    HW183080   2.591   5.777   5.072
93747SOL    HW283081   2.563   5.904   5.150
93748SOL     OW83082   7.994  10.421   4.475
93748SOL    HW183083   7.907  10.455   4.457
93748SOL    HW283084   8.050  10.499   4.479
93749SOL     OW83085  11.680  13.862  14.251
93749SOL    HW183086  11.717  13.933  14.304
93749SOL    HW283087  11.705  13.884  14.161
93750SOL     OW83088   2.974   8.596   9.112
93750SOL    HW183089   3.017   8.637   9.187
93750SOL    HW283090   2.909   8.662   9.084
93751SOL     OW83091  12.219   2.895   7.853
93751SOL    HW183092  12.189   2.809   7.880
93751SOL    HW283093  12.302   2.907   7.899
93752SOL     OW83094   6.399   4.395   5.995
93752SOL    HW183095   6.305   4.382   5.983
93752SOL    HW283096   6.416   4.483   5.962
93753SOL     OW83097   2.677   4.718  10.042
93753SOL    HW183098   2.656   4.682   9.955
93753SOL    HW283099   2.768   4.746  10.034
93754SOL     OW83100  13.778  10.293   4.029
93754SOL    HW183101  13.861  10.334   4.052
93754SOL    HW283102  13.740  10.266   4.113
93755SOL     OW83103   4.169  14.812   1.657
93755SOL    HW183104   4.197  14.780   1.571
93755SOL    HW283105   4.189   0.031   1.656
93756SOL     OW83106  12.393  10.568   6.846
93756SOL    HW183107  12.323  10.502   6.841
93756SOL    HW283108  12.462  10.525   6.897
93757SOL     OW83109  13.452   8.062   4.577
93757SOL    HW183110  13.400   8.118   4.635
93757SOL    HW283111  13.392   8.040   4.506
93758SOL     OW83112   6.717   1.047   7.402
93758SOL    HW183113   6.760   1.039   7.487
93758SOL    HW283114   6.669   0.966   7.391
93759SOL     OW83115   7.866  14.351   2.837
93759SOL    HW183116   7.796  14.329   2.776
93759SOL    HW283117   7.820  14.383   2.915
93760SOL     OW83118   0.168   8.664   2.863
93760SOL    HW183119   0.180   8.732   2.798
93760SOL    HW283120   0.129   8.591   2.815
93761SOL     OW83121   3.121   2.444   1.133
93761SOL    HW183122   3.033   2.406   1.133
93761SOL    HW283123   3.165   2.403   1.058
93762SOL     OW83124  14.506  14.860   4.297
93762SOL    HW183125  14.499   0.017   4.207
93762SOL    HW283126  14.573   0.042   4.337
93763SOL     OW83127   0.768   4.874   1.758
93763SOL    HW183128   0.691   4.843   1.711
93763SOL    HW283129   0.735   4.898   1.845
93764SOL     OW83130   0.121  10.087   2.580
93764SOL    HW183131   0.153  10.054   2.497
93764SOL    HW283132   0.084  10.173   2.560
93765SOL     OW83133  14.713   8.196   1.343
93765SOL    HW183134  14.762   8.165   1.419
93765SOL    HW283135  14.629   8.151   1.349
93766SOL     OW83136   4.794  14.488  11.305
93766SOL    HW183137   4.835  14.569  11.275
93766SOL    HW283138   4.867  14.426  11.314
93767SOL     OW83139   5.885  13.144   6.751
93767SOL    HW183140   5.850  13.190   6.827
93767SOL    HW283141   5.970  13.111   6.780
93768SOL     OW83142   6.138  12.769   8.452
93768SOL    HW183143   6.044  12.776   8.436
93768SOL    HW283144   6.152  12.820   8.532
93769SOL     OW83145   5.204   9.860  13.217
93769SOL    HW183146   5.137   9.839  13.282
93769SOL    HW283147   5.263   9.921  13.262
93770SOL     OW83148  13.184   6.970   5.612
93770SOL    HW183149  13.270   6.931   5.600
93770SOL    HW283150  13.124   6.896   5.618
93771SOL     OW83151   8.887  12.773   8.143
93771SOL    HW183152   8.962  12.776   8.083
93771SOL    HW283153   8.919  12.813   8.224
93772SOL     OW83154  11.632   1.977   0.072
93772SOL    HW183155  11.556   1.953   0.018
93772SOL    HW283156  11.705   1.931   0.032
93773SOL     OW83157  14.204  13.772   7.434
93773SOL    HW183158  14.201  13.744   7.525
93773SOL    HW283159  14.162  13.701   7.385
93774SOL     OW83160   7.878   7.697   1.322
93774SOL    HW183161   7.924   7.666   1.244
93774SOL    HW283162   7.874   7.792   1.311
93775SOL     OW83163  13.580   0.456   2.480
93775SOL    HW183164  13.517   0.509   2.432
93775SOL    HW283165  13.597   0.506   2.560
93776SOL     OW83166   1.089   2.409   0.812
93776SOL    HW183167   1.043   2.492   0.802
93776SOL    HW283168   1.024   2.350   0.850
93777SOL     OW83169   2.224  11.617   2.326
93777SOL    HW183170   2.235  11.523   2.310
93777SOL    HW283171   2.247  11.658   2.243
93778SOL     OW83172   7.761   7.851   2.065
93778SOL    HW183173   7.734   7.802   1.987
93778SOL    HW283174   7.741   7.942   2.043
93779SOL     OW83175   7.189   8.244   1.750
93779SOL    HW183176   7.225   8.280   1.831
93779SOL    HW283177   7.214   8.308   1.682
93780SOL     OW83178   7.979   6.753   9.591
93780SOL    HW183179   7.941   6.823   9.537
93780SOL    HW283180   8.067   6.785   9.613
93781SOL     OW83181  11.472   9.880  10.547
93781SOL    HW183182  11.442   9.971  10.551
93781SOL    HW283183  11.479   9.853  10.638
93782SOL     OW83184   0.252   5.579  10.213
93782SOL    HW183185   0.266   5.672  10.232
93782SOL    HW283186   0.233   5.576  10.119
93783SOL     OW83187   5.133   1.378   7.171
93783SOL    HW183188   5.062   1.430   7.133
93783SOL    HW283189   5.093   1.295   7.195
93784SOL     OW83190   5.455   8.381   7.769
93784SOL    HW183191   5.503   8.346   7.844
93784SOL    HW283192   5.522   8.423   7.715
93785SOL     OW83193   9.984  13.917   7.149
93785SOL    HW183194  10.038  13.995   7.163
93785SOL    HW283195   9.894  13.950   7.146
93786SOL     OW83196  10.113   7.259   1.160
93786SOL    HW183197  10.055   7.287   1.230
93786SOL    HW283198  10.054   7.226   1.092
93787SOL     OW83199  11.510   9.979   6.827
93787SOL    HW183200  11.467  10.023   6.900
93787SOL    HW283201  11.603   9.982   6.849
93788SOL     OW83202   2.377   4.004   3.063
93788SOL    HW183203   2.461   3.959   3.051
93788SOL    HW283204   2.402   4.096   3.076
93789SOL     OW83205  11.301   9.129  14.750
93789SOL    HW183206  11.326   9.058  14.809
93789SOL    HW283207  11.292   9.206  14.807
93790SOL     OW83208   3.310   8.170   3.617
93790SOL    HW183209   3.381   8.203   3.672
93790SOL    HW283210   3.315   8.075   3.627
93791SOL     OW83211  14.239   5.193  10.212
93791SOL    HW183212  14.165   5.139  10.182
93791SOL    HW283213  14.235   5.271  10.157
93792SOL     OW83214   2.649   1.833   6.712
93792SOL    HW183215   2.709   1.903   6.685
93792SOL    HW283216   2.575   1.879   6.750
93793SOL     OW83217  12.661   5.620   0.269
93793SOL    HW183218  12.706   5.556   0.324
93793SOL    HW283219  12.590   5.570   0.227
93794SOL     OW83220   3.937   0.470   8.555
93794SOL    HW183221   3.901   0.529   8.622
93794SOL    HW283222   3.955   0.527   8.480
93795SOL     OW83223  11.237   7.461   7.318
93795SOL    HW183224  11.265   7.400   7.249
93795SOL    HW283225  11.259   7.547   7.283
93796SOL     OW83226   5.326   3.231  10.932
93796SOL    HW183227   5.292   3.304  10.985
93796SOL    HW283228   5.295   3.250  10.843
93797SOL     OW83229  12.555  12.668   1.401
93797SOL    HW183230  12.629  12.713   1.441
93797SOL    HW283231  12.520  12.731   1.338
93798SOL     OW83232  11.416  12.034  12.512
93798SOL    HW183233  11.493  12.089  12.525
93798SOL    HW283234  11.349  12.093  12.477
93799SOL     OW83235  10.055  10.720  10.760
93799SOL    HW183236  10.082  10.656  10.826
93799SOL    HW283237  10.127  10.720  10.696
93800SOL     OW83238   1.089   3.783   8.613
93800SOL    HW183239   1.147   3.776   8.537
93800SOL    HW283240   1.046   3.867   8.603
93801SOL     OW83241  12.291  13.485   1.562
93801SOL    HW183242  12.372  13.450   1.525
93801SOL    HW283243  12.294  13.579   1.544
93802SOL     OW83244   0.688  13.394   4.305
93802SOL    HW183245   0.680  13.489   4.295
93802SOL    HW283246   0.642  13.359   4.229
93803SOL     OW83247  13.609  11.245   7.127
93803SOL    HW183248  13.662  11.168   7.149
93803SOL    HW283249  13.535  11.240   7.187
93804SOL     OW83250   9.880   1.706   5.606
93804SOL    HW183251   9.861   1.795   5.578
93804SOL    HW283252   9.854   1.651   5.532
93805SOL     OW83253   3.437   0.216   3.196
93805SOL    HW183254   3.511   0.206   3.135
93805SOL    HW283255   3.433   0.310   3.214
93806SOL     OW83256  13.801   1.399   8.246
93806SOL    HW183257  13.793   1.304   8.238
93806SOL    HW283258  13.780   1.418   8.337
93807SOL     OW83259   7.379  12.723  14.694
93807SOL    HW183260   7.339  12.788  14.635
93807SOL    HW283261   7.472  12.724  14.672
93808SOL     OW83262   5.898  12.883   0.120
93808SOL    HW183263   5.984  12.847   0.098
93808SOL    HW283264   5.856  12.898   0.035
93809SOL     OW83265   7.398   9.934  11.703
93809SOL    HW183266   7.454   9.988  11.648
93809SOL    HW283267   7.355   9.874  11.642
93810SOL     OW83268   2.318  10.379   1.968
93810SOL    HW183269   2.226  10.378   1.942
93810SOL    HW283270   2.321  10.322   2.045
93811SOL     OW83271   4.168   9.223  12.961
93811SOL    HW183272   4.173   9.129  12.976
93811SOL    HW283273   4.205   9.262  13.040
93812SOL     OW83274   6.138   2.272   4.077
93812SOL    HW183275   6.069   2.227   4.126
93812SOL    HW283276   6.197   2.202   4.050
93813SOL     OW83277   3.432  13.949   3.344
93813SOL    HW183278   3.515  13.900   3.344
93813SOL    HW283279   3.445  14.018   3.279
93814SOL     OW83280   5.622   9.352   9.841
93814SOL    HW183281   5.641   9.442   9.817
93814SOL    HW283282   5.627   9.303   9.758
93815SOL     OW83283   6.561  13.666   0.075
93815SOL    HW183284   6.544  13.755   0.103
93815SOL    HW283285   6.557  13.614   0.155
93816SOL     OW83286  12.700  12.102  10.982
93816SOL    HW183287  12.703  12.172  10.917
93816SOL    HW283288  12.697  12.148  11.066
93817SOL     OW83289   6.006  14.077  12.250
93817SOL    HW183290   5.938  14.106  12.311
93817SOL    HW283291   6.030  14.156  12.202
93818SOL     OW83292  14.345   8.550   3.043
93818SOL    HW183293  14.290   8.627   3.061
93818SOL    HW283294  14.432   8.586   3.026
93819SOL     OW83295  13.687   8.117   9.533
93819SOL    HW183296  13.693   8.106   9.438
93819SOL    HW283297  13.688   8.211   9.547
93820SOL     OW83298   8.351  14.636   1.070
93820SOL    HW183299   8.380  14.546   1.085
93820SOL    HW283300   8.267  14.627   1.025
93821SOL     OW83301   0.998   0.723   8.618
93821SOL    HW183302   0.931   0.738   8.685
93821SOL    HW283303   1.073   0.775   8.647
93822SOL     OW83304   1.260   8.766   7.420
93822SOL    HW183305   1.354   8.782   7.424
93822SOL    HW283306   1.253   8.671   7.417
93823SOL     OW83307  13.005   7.147   2.989
93823SOL    HW183308  12.960   7.192   3.061
93823SOL    HW283309  13.039   7.067   3.030
93824SOL     OW83310   8.393   9.535   2.526
93824SOL    HW183311   8.345   9.588   2.590
93824SOL    HW283312   8.359   9.564   2.441
93825SOL     OW83313   2.344  12.771  12.268
93825SOL    HW183314   2.331  12.856  12.310
93825SOL    HW283315   2.419  12.784  12.210
93826SOL     OW83316  10.075  11.387   7.907
93826SOL    HW183317  10.082  11.401   7.812
93826SOL    HW283318  10.047  11.296   7.915
93827SOL     OW83319   1.523   6.185  13.994
93827SOL    HW183320   1.568   6.139  13.923
93827SOL    HW283321   1.441   6.215  13.955
93828SOL     OW83322   1.002  14.687   2.030
93828SOL    HW183323   1.030  14.773   2.061
93828SOL    HW283324   0.914  14.701   1.995
93829SOL     OW83325   2.891  12.161   3.254
93829SOL    HW183326   2.877  12.091   3.317
93829SOL    HW283327   2.922  12.116   3.175
93830SOL     OW83328   7.046  13.834   5.288
93830SOL    HW183329   7.133  13.861   5.316
93830SOL    HW283330   6.987  13.873   5.354
93831SOL     OW83331   6.530   1.279   7.567
93831SOL    HW183332   6.518   1.269   7.472
93831SOL    HW283333   6.551   1.191   7.598
93832SOL     OW83334  13.484   3.334  13.661
93832SOL    HW183335  13.414   3.376  13.611
93832SOL    HW283336  13.445   3.315  13.746
93833SOL     OW83337   7.900  10.977   7.581
93833SOL    HW183338   7.813  11.000   7.549
93833SOL    HW283339   7.954  10.973   7.502
93834SOL     OW83340   0.985  10.013   8.063
93834SOL    HW183341   1.043  10.067   8.118
93834SOL    HW283342   0.927  10.076   8.021
93835SOL     OW83343   0.079  10.068  12.295
93835SOL    HW183344   0.139  10.013  12.246
93835SOL    HW283345   0.040  10.126  12.229
93836SOL     OW83346  10.791   4.859  13.364
93836SOL    HW183347  10.697   4.847  13.374
93836SOL    HW283348  10.801   4.947  13.330
93837SOL     OW83349  14.620  12.045   9.678
93837SOL    HW183350  14.576  11.964   9.652
93837SOL    HW283351  14.712  12.020   9.689
93838SOL     OW83352  14.072   7.331  13.067
93838SOL    HW183353  14.076   7.266  13.137
93838SOL    HW283354  14.053   7.413  13.112
93839SOL     OW83355   2.268  12.410   8.577
93839SOL    HW183356   2.295  12.495   8.543
93839SOL    HW283357   2.305  12.347   8.516
93840SOL     OW83358   4.485   5.585  11.373
93840SOL    HW183359   4.541   5.609  11.447
93840SOL    HW283360   4.451   5.669  11.341
93841SOL     OW83361   4.124  10.596  12.128
93841SOL    HW183362   4.190  10.659  12.156
93841SOL    HW283363   4.169  10.512  12.129
93842SOL     OW83364   9.431  12.215   8.527
93842SOL    HW183365   9.516  12.220   8.483
93842SOL    HW283366   9.446  12.162   8.605
93843SOL     OW83367   4.630  10.512   9.608
93843SOL    HW183368   4.690  10.469   9.668
93843SOL    HW283369   4.688  10.560   9.548
93844SOL     OW83370   3.750   4.352   7.883
93844SOL    HW183371   3.698   4.305   7.818
93844SOL    HW283372   3.827   4.297   7.897
93845SOL     OW83373  12.229   6.278  11.187
93845SOL    HW183374  12.324   6.293  11.192
93845SOL    HW283375  12.191   6.356  11.229
93846SOL     OW83376  13.918   0.906   2.412
93846SOL    HW183377  13.954   0.937   2.330
93846SOL    HW283378  13.946   0.971   2.477
93847SOL     OW83379   7.445  13.626   0.873
93847SOL    HW183380   7.402  13.669   0.948
93847SOL    HW283381   7.533  13.605   0.905
93848SOL     OW83382  10.995   6.922  14.476
93848SOL    HW183383  11.060   6.859  14.511
93848SOL    HW283384  10.989   6.900  14.383
93849SOL     OW83385   7.632  11.006   2.694
93849SOL    HW183386   7.606  11.040   2.608
93849SOL    HW283387   7.721  10.975   2.681
93850SOL     OW83388   8.565   4.181   1.647
93850SOL    HW183389   8.578   4.131   1.567
93850SOL    HW283390   8.544   4.270   1.618
93851SOL     OW83391   8.131   4.528   0.900
93851SOL    HW183392   8.117   4.551   0.992
93851SOL    HW283393   8.138   4.432   0.900
93852SOL     OW83394  10.982   2.881  10.250
93852SOL    HW183395  11.022   2.855  10.333
93852SOL    HW283396  11.057   2.907  10.195
93853SOL     OW83397  11.401  12.790   3.517
93853SOL    HW183398  11.328  12.802   3.456
93853SOL    HW283399  11.420  12.696   3.515
93854SOL     OW83400   8.777  13.831   0.495
93854SOL    HW183401   8.847  13.768   0.476
93854SOL    HW283402   8.731  13.793   0.570
93855SOL     OW83403   3.281  13.650   5.760
93855SOL    HW183404   3.211  13.661   5.824
93855SOL    HW283405   3.269  13.723   5.699
93856SOL     OW83406   9.323   8.197   4.815
93856SOL    HW183407   9.265   8.268   4.787
93856SOL    HW283408   9.367   8.231   4.893
93857SOL     OW83409   1.359   1.677   0.757
93857SOL    HW183410   1.452   1.655   0.750
93857SOL    HW283411   1.338   1.665   0.850
93858SOL     OW83412  11.158   1.619  11.792
93858SOL    HW183413  11.140   1.584  11.705
93858SOL    HW283414  11.072   1.648  11.824
93859SOL     OW83415   0.876   2.975  13.773
93859SOL    HW183416   0.900   2.952  13.683
93859SOL    HW283417   0.799   2.922  13.792
93860SOL     OW83418   0.246   4.320   1.815
93860SOL    HW183419   0.190   4.395   1.831
93860SOL    HW283420   0.186   4.246   1.811
93861SOL     OW83421   2.943   2.517  12.198
93861SOL    HW183422   2.971   2.427  12.187
93861SOL    HW283423   2.970   2.561  12.117
93862SOL     OW83424  14.045  12.068   1.476
93862SOL    HW183425  14.065  12.161   1.464
93862SOL    HW283426  13.955  12.058   1.446
93863SOL     OW83427   1.914  14.510  14.022
93863SOL    HW183428   1.901  14.480  13.932
93863SOL    HW283429   1.863  14.591  14.027
93864SOL     OW83430  11.361   9.486   5.922
93864SOL    HW183431  11.321   9.402   5.900
93864SOL    HW283432  11.455   9.470   5.914
93865SOL     OW83433   4.093   2.832  14.017
93865SOL    HW183434   4.055   2.914  14.048
93865SOL    HW283435   4.171   2.820  14.070
93866SOL     OW83436  11.425  11.039   6.020
93866SOL    HW183437  11.435  11.133   6.035
93866SOL    HW283438  11.354  11.032   5.957
93867SOL     OW83439  14.837   6.061  12.705
93867SOL    HW183440  14.827   6.083  12.798
93867SOL    HW283441   0.058   6.054  12.693
93868SOL     OW83442   9.966   2.730   5.885
93868SOL    HW183443  10.035   2.664   5.892
93868SOL    HW283444  10.013   2.813   5.871
93869SOL     OW83445  10.728   8.452   3.576
93869SOL    HW183446  10.652   8.482   3.527
93869SOL    HW283447  10.705   8.364   3.606
93870SOL     OW83448   1.891   4.359   6.786
93870SOL    HW183449   1.902   4.304   6.864
93870SOL    HW283450   1.978   4.396   6.770
93871SOL     OW83451   4.834   0.599   3.526
93871SOL    HW183452   4.792   0.635   3.604
93871SOL    HW283453   4.810   0.659   3.456
93872SOL     OW83454   4.598   4.727  13.976
93872SOL    HW183455   4.580   4.740  14.069
93872SOL    HW283456   4.686   4.764  13.963
93873SOL     OW83457  11.386   3.920  10.712
93873SOL    HW183458  11.472   3.892  10.743
93873SOL    HW283459  11.337   3.839  10.700
93874SOL     OW83460   9.472  13.315   8.141
93874SOL    HW183461   9.426  13.237   8.110
93874SOL    HW283462   9.467  13.377   8.068
93875SOL     OW83463   9.007   4.978  11.018
93875SOL    HW183464   9.042   4.940  10.938
93875SOL    HW283465   8.913   4.960  11.014
93876SOL     OW83466   3.048  12.681   1.234
93876SOL    HW183467   3.040  12.587   1.220
93876SOL    HW283468   3.132  12.705   1.195
93877SOL     OW83469  11.065   9.759  13.233
93877SOL    HW183470  10.987   9.814  13.225
93877SOL    HW283471  11.033   9.676  13.267
93878SOL     OW83472   1.219   8.041   2.187
93878SOL    HW183473   1.207   7.989   2.267
93878SOL    HW283474   1.277   7.988   2.132
93879SOL     OW83475   2.654  13.961   3.508
93879SOL    HW183476   2.746  13.955   3.532
93879SOL    HW283477   2.648  14.041   3.456
93880SOL     OW83478  11.404   4.239   4.439
93880SOL    HW183479  11.318   4.231   4.398
93880SOL    HW283480  11.394   4.199   4.525
93881SOL     OW83481   9.250   8.278   6.528
93881SOL    HW183482   9.189   8.322   6.588
93881SOL    HW283483   9.198   8.258   6.451
93882SOL     OW83484   8.455  11.553  10.201
93882SOL    HW183485   8.541  11.538  10.161
93882SOL    HW283486   8.394  11.547  10.128
93883SOL     OW83487  10.447  12.238   2.934
93883SOL    HW183488  10.490  12.273   3.012
93883SOL    HW283489  10.439  12.312   2.875
93884SOL     OW83490  14.828   5.269   9.145
93884SOL    HW183491  14.856   5.355   9.178
93884SOL    HW283492   0.015   5.250   9.074
93885SOL     OW83493  13.859   6.795   5.809
93885SOL    HW183494  13.954   6.794   5.809
93885SOL    HW283495  13.836   6.856   5.738
93886SOL     OW83496   8.680   2.020   1.112
93886SOL    HW183497   8.651   1.955   1.048
93886SOL    HW283498   8.716   1.969   1.184
93887SOL     OW83499   0.082   7.954   9.463
93887SOL    HW183500   0.112   7.930   9.375
93887SOL    HW283501   0.006   8.011   9.447
93888SOL     OW83502  13.848  13.594   6.186
93888SOL    HW183503  13.778  13.529   6.192
93888SOL    HW283504  13.807  13.670   6.144
93889SOL     OW83505   6.290  12.404   5.281
93889SOL    HW183506   6.350  12.330   5.266
93889SOL    HW283507   6.316  12.470   5.217
93890SOL     OW83508   5.988  11.394   5.695
93890SOL    HW183509   6.031  11.478   5.678
93890SOL    HW283510   5.996  11.346   5.612
93891SOL     OW83511  10.889  13.674   6.504
93891SOL    HW183512  10.976  13.637   6.509
93891SOL    HW283513  10.875  13.715   6.590
93892SOL     OW83514  11.803  10.247  13.063
93892SOL    HW183515  11.761  10.163  13.046
93892SOL    HW283516  11.817  10.248  13.158
93893SOL     OW83517   4.185   5.046  10.069
93893SOL    HW183518   4.209   4.998  10.149
93893SOL    HW283519   4.197   4.982   9.999
93894SOL     OW83520  13.699   9.447  11.830
93894SOL    HW183521  13.757   9.513  11.791
93894SOL    HW283522  13.754   9.370  11.841
93895SOL     OW83523   2.358   5.372  11.410
93895SOL    HW183524   2.401   5.415  11.483
93895SOL    HW283525   2.265   5.371  11.432
93896SOL     OW83526   2.056   3.971   3.981
93896SOL    HW183527   1.992   4.013   3.924
93896SOL    HW283528   2.016   3.971   4.068
93897SOL     OW83529   9.032  11.360  10.570
93897SOL    HW183530   8.955  11.343  10.623
93897SOL    HW283531   9.105  11.356  10.631
93898SOL     OW83532  10.794   5.182   5.238
93898SOL    HW183533  10.747   5.260   5.270
93898SOL    HW283534  10.858   5.162   5.306
93899SOL     OW83535  13.093  13.757   6.624
93899SOL    HW183536  13.149  13.681   6.638
93899SOL    HW283537  13.004  13.725   6.642
93900SOL     OW83538   2.161  14.853   6.164
93900SOL    HW183539   2.076  14.854   6.208
93900SOL    HW283540   2.186   0.071   6.157
93901SOL     OW83541   4.111  13.711   6.152
93901SOL    HW183542   4.083  13.784   6.207
93901SOL    HW283543   4.155  13.651   6.212
93902SOL     OW83544   2.757   4.680   4.741
93902SOL    HW183545   2.811   4.740   4.688
93902SOL    HW283546   2.746   4.725   4.825
93903SOL     OW83547   1.730   4.768   0.806
93903SOL    HW183548   1.675   4.846   0.802
93903SOL    HW283549   1.669   4.695   0.794
93904SOL     OW83550   0.681  11.588   8.074
93904SOL    HW183551   0.622  11.521   8.109
93904SOL    HW283552   0.757  11.586   8.131
93905SOL     OW83553   7.402  10.405  12.059
93905SOL    HW183554   7.311  10.421  12.084
93905SOL    HW283555   7.442  10.492  12.059
93906SOL     OW83556  12.266   0.515   5.901
93906SOL    HW183557  12.228   0.483   5.983
93906SOL    HW283558  12.351   0.472   5.895
93907SOL     OW83559   3.800  14.525   2.571
93907SOL    HW183560   3.866  14.593   2.559
93907SOL    HW283561   3.811  14.495   2.661
93908SOL     OW83562   7.002  11.274  14.001
93908SOL    HW183563   6.970  11.210  14.064
93908SOL    HW283564   7.068  11.227  13.950
93909SOL     OW83565  13.063  14.334   1.691
93909SOL    HW183566  13.056  14.420   1.733
93909SOL    HW283567  12.990  14.332   1.629
93910SOL     OW83568   8.557  11.092   5.185
93910SOL    HW183569   8.467  11.079   5.215
93910SOL    HW283570   8.554  11.071   5.092
93911SOL     OW83571   0.943  14.558   3.002
93911SOL    HW183572   0.957  14.579   3.094
93911SOL    HW283573   0.999  14.483   2.985
93912SOL     OW83574   8.509   4.525  13.587
93912SOL    HW183575   8.475   4.457  13.645
93912SOL    HW283576   8.505   4.486  13.499
93913SOL     OW83577   6.791  10.517   0.344
93913SOL    HW183578   6.815  10.436   0.388
93913SOL    HW283579   6.708  10.542   0.383
93914SOL     OW83580   7.915   5.468  11.747
93914SOL    HW183581   7.999   5.469  11.794
93914SOL    HW283582   7.882   5.378  11.759
93915SOL     OW83583  12.343   7.850   9.494
93915SOL    HW183584  12.278   7.898   9.546
93915SOL    HW283585  12.301   7.766   9.475
93916SOL     OW83586  10.093   5.843   0.597
93916SOL    HW183587  10.159   5.815   0.660
93916SOL    HW283588  10.113   5.794   0.518
93917SOL     OW83589   3.180  11.495  10.295
93917SOL    HW183590   3.268  11.466  10.317
93917SOL    HW283591   3.192  11.573  10.242
93918SOL     OW83592   4.308   2.450   9.815
93918SOL    HW183593   4.313   2.504   9.894
93918SOL    HW283594   4.268   2.368   9.844
93919SOL     OW83595   9.422   9.286   6.505
93919SOL    HW183596   9.517   9.288   6.495
93919SOL    HW283597   9.393   9.372   6.476
93920SOL     OW83598   1.700  13.708  12.068
93920SOL    HW183599   1.612  13.675  12.050
93920SOL    HW283600   1.757  13.660  12.008
93921SOL     OW83601  11.138  14.497   0.947
93921SOL    HW183602  11.082  14.482   1.023
93921SOL    HW283603  11.102  14.440   0.879
93922SOL     OW83604   0.032   5.421   5.202
93922SOL    HW183605  14.862   5.488   5.253
93922SOL    HW283606  14.868   5.339   5.232
93923SOL     OW83607   2.938   0.417   9.703
93923SOL    HW183608   2.970   0.492   9.652
93923SOL    HW283609   2.998   0.346   9.681
93924SOL     OW83610   3.824   1.154   0.881
93924SOL    HW183611   3.876   1.088   0.927
93924SOL    HW283612   3.846   1.142   0.789
93925SOL     OW83613   4.986  10.905  14.399
93925SOL    HW183614   5.028  10.830  14.357
93925SOL    HW283615   4.942  10.951  14.327
93926SOL     OW83616   9.064   7.486   0.391
93926SOL    HW183617   9.138   7.465   0.333
93926SOL    HW283618   9.088   7.569   0.431
93927SOL     OW83619  10.713  11.264   9.396
93927SOL    HW183620  10.623  11.294   9.402
93927SOL    HW283621  10.710  11.174   9.429
93928SOL     OW83622  13.772  12.485  12.918
93928SOL    HW183623  13.867  12.494  12.922
93928SOL    HW283624  13.755  12.397  12.952
93929SOL     OW83625   6.760  10.479  13.705
93929SOL    HW183626   6.738  10.570  13.726
93929SOL    HW283627   6.679  10.443  13.669
93930SOL     OW83628   9.562   4.823   7.244
93930SOL    HW183629   9.514   4.756   7.195
93930SOL    HW283630   9.535   4.809   7.335
93931SOL     OW83631  10.383   3.568   6.171
93931SOL    HW183632  10.393   3.622   6.250
93931SOL    HW283633  10.345   3.627   6.106
93932SOL     OW83634   4.071  11.567   7.854
93932SOL    HW183635   4.042  11.541   7.942
93932SOL    HW283636   4.126  11.494   7.825
93933SOL     OW83637   5.198   5.019   5.494
93933SOL    HW183638   5.123   5.015   5.435
93933SOL    HW283639   5.220   4.928   5.512
93934SOL     OW83640  11.519   6.024   8.884
93934SOL    HW183641  11.492   5.979   8.804
93934SOL    HW283642  11.440   6.025   8.938
93935SOL     OW83643  14.625   0.361   1.822
93935SOL    HW183644  14.632   0.288   1.883
93935SOL    HW283645  14.701   0.350   1.764
93936SOL     OW83646   2.420  10.618   2.710
93936SOL    HW183647   2.389  10.708   2.712
93936SOL    HW283648   2.514  10.624   2.727
93937SOL     OW83649   5.910   5.108   6.395
93937SOL    HW183650   5.904   5.118   6.490
93937SOL    HW283651   5.998   5.072   6.380
93938SOL     OW83652   3.441   1.652  13.418
93938SOL    HW183653   3.422   1.733  13.464
93938SOL    HW283654   3.380   1.651  13.344
93939SOL     OW83655   9.264   5.979   6.517
93939SOL    HW183656   9.225   5.990   6.604
93939SOL    HW283657   9.304   6.064   6.498
93940SOL     OW83658  13.535   1.404   4.276
93940SOL    HW183659  13.493   1.342   4.216
93940SOL    HW283660  13.515   1.370   4.363
93941SOL     OW83661   4.077   2.571   9.707
93941SOL    HW183662   4.158   2.537   9.744
93941SOL    HW283663   4.010   2.508   9.734
93942SOL     OW83664   0.438   1.871   8.370
93942SOL    HW183665   0.470   1.934   8.305
93942SOL    HW283666   0.431   1.922   8.451
93943SOL     OW83667   3.304  11.371   8.255
93943SOL    HW183668   3.239  11.369   8.326
93943SOL    HW283669   3.273  11.307   8.191
93944SOL     OW83670   9.262   6.395   2.124
93944SOL    HW183671   9.201   6.405   2.051
93944SOL    HW283672   9.210   6.418   2.201
93945SOL     OW83673   4.454   9.931  12.705
93945SOL    HW183674   4.458   9.844  12.746
93945SOL    HW283675   4.505   9.987  12.764
93946SOL     OW83676  14.678   2.568   5.137
93946SOL    HW183677  14.613   2.541   5.203
93946SOL    HW283678  14.648   2.528   5.056
93947SOL     OW83679   3.251   9.073   5.328
93947SOL    HW183680   3.160   9.089   5.350
93947SOL    HW283681   3.301   9.129   5.388
93948SOL     OW83682   6.559  10.334  14.296
93948SOL    HW183683   6.574  10.424  14.266
93948SOL    HW283684   6.563  10.340  14.391
93949SOL     OW83685  10.968   8.529   3.671
93949SOL    HW183686  10.953   8.554   3.761
93949SOL    HW283687  10.885   8.493   3.641
93950SOL     OW83688   7.836   8.033   3.353
93950SOL    HW183689   7.744   8.007   3.362
93950SOL    HW283690   7.847   8.051   3.260
93951SOL     OW83691  11.350   4.578  10.995
93951SOL    HW183692  11.344   4.609  11.086
93951SOL    HW283693  11.357   4.483  11.003
93952SOL     OW83694   7.143  10.417  10.427
93952SOL    HW183695   7.082  10.348  10.402
93952SOL    HW283696   7.150  10.410  10.522
93953SOL     OW83697  13.273   9.563   8.930
93953SOL    HW183698  13.338   9.507   8.889
93953SOL    HW283699  13.200   9.505   8.951
93954SOL     OW83700  14.203   5.890   1.222
93954SOL    HW183701  14.277   5.842   1.185
93954SOL    HW283702  14.168   5.832   1.290
93955SOL     OW83703   1.298  14.808   4.205
93955SOL    HW183704   1.346   0.013   4.180
93955SOL    HW283705   1.325  14.742   4.142
93956SOL     OW83706   2.007   8.564  12.045
93956SOL    HW183707   1.969   8.611  11.971
93956SOL    HW283708   2.023   8.632  12.110
93957SOL     OW83709   2.445   5.649   4.518
93957SOL    HW183710   2.397   5.650   4.600
93957SOL    HW283711   2.535   5.629   4.543
93958SOL     OW83712   9.138   1.882   3.975
93958SOL    HW183713   9.089   1.940   4.035
93958SOL    HW283714   9.229   1.909   3.986
93959SOL     OW83715  10.737   4.201  14.521
93959SOL    HW183716  10.670   4.209  14.453
93959SOL    HW283717  10.787   4.283  14.514
93960SOL     OW83718  12.070   7.834  12.170
93960SOL    HW183719  12.018   7.851  12.248
93960SOL    HW283720  12.016   7.867  12.098
93961SOL     OW83721  13.528  10.380   7.253
93961SOL    HW183722  13.495  10.332   7.176
93961SOL    HW283723  13.449  10.416   7.293
93962SOL     OW83724   3.046   9.948  14.178
93962SOL    HW183725   3.068   9.968  14.087
93962SOL    HW283726   2.967   9.894  14.173
93963SOL     OW83727   9.228   5.086  10.405
93963SOL    HW183728   9.302   5.025  10.401
93963SOL    HW283729   9.211   5.098  10.498
93964SOL     OW83730   7.372   5.587  11.531
93964SOL    HW183731   7.462   5.559  11.512
93964SOL    HW283732   7.332   5.596  11.445
93965SOL     OW83733   1.838   3.999  11.737
93965SOL    HW183734   1.796   3.921  11.774
93965SOL    HW283735   1.788   4.018  11.658
93966SOL     OW83736   4.567   6.282   5.470
93966SOL    HW183737   4.579   6.236   5.387
93966SOL    HW283738   4.500   6.232   5.516
93967SOL     OW83739   3.341   9.827   7.038
93967SOL    HW183740   3.412   9.777   6.998
93967SOL    HW283741   3.342   9.801   7.130
93968SOL     OW83742   7.021   4.086   8.394
93968SOL    HW183743   7.021   4.037   8.312
93968SOL    HW283744   6.979   4.169   8.371
93969SOL     OW83745   7.427  12.739  13.440
93969SOL    HW183746   7.443  12.832  13.425
93969SOL    HW283747   7.495  12.712  13.501
93970SOL     OW83748   2.331   1.511  13.214
93970SOL    HW183749   2.278   1.474  13.284
93970SOL    HW283750   2.407   1.453  13.208
93971SOL     OW83751   5.626  14.118   0.451
93971SOL    HW183752   5.677  14.185   0.496
93971SOL    HW283753   5.559  14.166   0.403
93972SOL     OW83754   3.450  10.086   2.348
93972SOL    HW183755   3.532  10.101   2.395
93972SOL    HW283756   3.382  10.098   2.415
93973SOL     OW83757  10.770   6.781   2.228
93973SOL    HW183758  10.685   6.758   2.266
93973SOL    HW283759  10.754   6.864   2.183
93974SOL     OW83760  10.844  10.403  14.673
93974SOL    HW183761  10.843  10.495  14.647
93974SOL    HW283762  10.756  10.387  14.708
93975SOL     OW83763  13.658   2.817   9.488
93975SOL    HW183764  13.571   2.856   9.480
93975SOL    HW283765  13.716   2.892   9.505
93976SOL     OW83766   3.269   0.465   5.340
93976SOL    HW183767   3.196   0.405   5.356
93976SOL    HW283768   3.344   0.408   5.324
93977SOL     OW83769   9.732  12.780   5.025
93977SOL    HW183770   9.655  12.808   5.075
93977SOL    HW283771   9.773  12.862   4.997
93978SOL     OW83772   6.563  11.715   0.034
93978SOL    HW183773   6.469  11.695   0.041
93978SOL    HW283774   6.601  11.678   0.113
93979SOL     OW83775  10.045   8.886  12.180
93979SOL    HW183776  10.059   8.832  12.103
93979SOL    HW283777  10.133   8.900  12.216
93980SOL     OW83778   0.624  11.360   1.321
93980SOL    HW183779   0.593  11.411   1.246
93980SOL    HW283780   0.546  11.312   1.351
93981SOL     OW83781   1.645   7.621   7.477
93981SOL    HW183782   1.710   7.691   7.465
93981SOL    HW283783   1.663   7.587   7.564
93982SOL     OW83784   2.332   6.296   4.213
93982SOL    HW183785   2.238   6.309   4.222
93982SOL    HW283786   2.363   6.281   4.302
93983SOL     OW83787   2.061   8.533   6.477
93983SOL    HW183788   1.969   8.535   6.449
93983SOL    HW283789   2.075   8.443   6.507
93984SOL     OW83790   3.977   9.383   8.486
93984SOL    HW183791   4.071   9.374   8.504
93984SOL    HW283792   3.970   9.380   8.391
93985SOL     OW83793   0.211   1.704   2.155
93985SOL    HW183794   0.187   1.618   2.121
93985SOL    HW283795   0.128   1.748   2.172
93986SOL     OW83796   4.455  12.548  10.572
93986SOL    HW183797   4.433  12.565  10.664
93986SOL    HW283798   4.550  12.537  10.572
93987SOL     OW83799   1.900   0.290   0.934
93987SOL    HW183800   1.850   0.342   0.871
93987SOL    HW283801   1.843   0.284   1.011
93988SOL     OW83802   9.573   7.329   4.102
93988SOL    HW183803   9.590   7.301   4.011
93988SOL    HW283804   9.659   7.335   4.142
93989SOL     OW83805   9.882   5.023   0.443
93989SOL    HW183806   9.832   5.028   0.525
93989SOL    HW283807   9.837   4.956   0.391
93990SOL     OW83808   4.738   5.253   6.879
93990SOL    HW183809   4.796   5.323   6.850
93990SOL    HW283810   4.655   5.271   6.836
93991SOL     OW83811   0.750   3.280   2.773
93991SOL    HW183812   0.742   3.185   2.766
93991SOL    HW283813   0.694   3.303   2.847
93992SOL     OW83814  11.352   1.869   4.157
93992SOL    HW183815  11.263   1.834   4.161
93992SOL    HW283816  11.344   1.959   4.188
93993SOL     OW83817  14.513   4.196   6.792
93993SOL    HW183818  14.566   4.202   6.712
93993SOL    HW283819  14.453   4.124   6.775
93994SOL     OW83820  12.676   3.874  11.136
93994SOL    HW183821  12.592   3.901  11.099
93994SOL    HW283822  12.728   3.954  11.138
93995SOL     OW83823  11.055   8.626  14.380
93995SOL    HW183824  11.036   8.550  14.325
93995SOL    HW283825  11.075   8.590  14.466
93996SOL     OW83826   1.899   2.693   7.350
93996SOL    HW183827   1.981   2.647   7.366
93996SOL    HW283828   1.869   2.719   7.438
93997SOL     OW83829  13.803   9.365   4.479
93997SOL    HW183830  13.780   9.438   4.421
93997SOL    HW283831  13.891   9.339   4.450
93998SOL     OW83832  12.481  11.595  12.337
93998SOL    HW183833  12.419  11.658  12.299
93998SOL    HW283834  12.471  11.517  12.282
93999SOL     OW83835   6.590   3.321   5.031
93999SOL    HW183836   6.674   3.291   4.997
93999SOL    HW283837   6.572   3.265   5.106
94000SOL     OW83838  12.500  12.683   8.181
94000SOL    HW183839  12.573  12.712   8.126
94000SOL    HW283840  12.486  12.591   8.155
94001SOL     OW83841  12.358  12.062  13.751
94001SOL    HW183842  12.398  12.149  13.757
94001SOL    HW283843  12.290  12.061  13.818
94002SOL     OW83844  13.838  14.395  10.936
94002SOL    HW183845  13.767  14.332  10.939
94002SOL    HW283846  13.832  14.434  10.849
94003SOL     OW83847   6.053   6.921  11.058
94003SOL    HW183848   6.071   6.890  10.969
94003SOL    HW283849   6.081   7.012  11.057
94004SOL     OW83850   9.145  14.110   7.378
94004SOL    HW183851   9.072  14.067   7.422
94004SOL    HW283852   9.188  14.161   7.446
94005SOL     OW83853   8.433   1.732   9.078
94005SOL    HW183854   8.459   1.712   9.168
94005SOL    HW283855   8.492   1.679   9.024
94006SOL     OW83856  14.194   8.934  13.478
94006SOL    HW183857  14.099   8.934  13.476
94006SOL    HW283858  14.219   9.023  13.450
94007SOL     OW83859  13.653   5.109   6.607
94007SOL    HW183860  13.696   5.043   6.553
94007SOL    HW283861  13.694   5.191   6.581
94008SOL     OW83862   4.990   7.039  14.564
94008SOL    HW183863   4.937   7.005  14.492
94008SOL    HW283864   4.935   7.027  14.641
94009SOL     OW83865   4.109   2.840   7.553
94009SOL    HW183866   4.034   2.862   7.498
94009SOL    HW283867   4.185   2.846   7.495
94010SOL     OW83868   7.292   5.175   3.413
94010SOL    HW183869   7.291   5.080   3.414
94010SOL    HW283870   7.366   5.198   3.357
94011SOL     OW83871   3.535   9.785  10.014
94011SOL    HW183872   3.485   9.760  10.092
94011SOL    HW283873   3.490   9.863   9.981
94012SOL     OW83874   2.677  11.788   7.096
94012SOL    HW183875   2.691  11.801   7.002
94012SOL    HW283876   2.762  11.760   7.129
94013SOL     OW83877   5.352   7.618   9.595
94013SOL    HW183878   5.266   7.578   9.608
94013SOL    HW283879   5.403   7.592   9.672
94014SOL     OW83880   2.426   7.043  11.049
94014SOL    HW183881   2.395   6.985  11.119
94014SOL    HW283882   2.476   6.986  10.991
94015SOL     OW83883  13.074  12.204   7.876
94015SOL    HW183884  13.157  12.161   7.852
94015SOL    HW283885  13.086  12.228   7.967
94016SOL     OW83886   7.858   7.473   1.485
94016SOL    HW183887   7.770   7.462   1.451
94016SOL    HW283888   7.875   7.567   1.479
94017SOL     OW83889   2.072   1.571   9.249
94017SOL    HW183890   2.129   1.494   9.244
94017SOL    HW283891   2.011   1.560   9.176
94018SOL     OW83892   0.896  14.309   8.983
94018SOL    HW183893   0.940  14.265   9.055
94018SOL    HW283894   0.836  14.243   8.947
94019SOL     OW83895   2.954   7.956   7.595
94019SOL    HW183896   2.998   7.954   7.680
94019SOL    HW283897   3.006   8.016   7.542
94020SOL     OW83898  12.074  13.873   5.076
94020SOL    HW183899  12.059  13.965   5.101
94020SOL    HW283900  12.017  13.860   5.000
94021SOL     OW83901  14.185   1.877  10.936
94021SOL    HW183902  14.252   1.946  10.935
94021SOL    HW283903  14.230   1.799  10.905
94022SOL     OW83904   2.493   6.715   3.793
94022SOL    HW183905   2.481   6.806   3.763
94022SOL    HW283906   2.557   6.678   3.733
94023SOL     OW83907   8.819  14.851   7.545
94023SOL    HW183908   8.786   0.062   7.517
94023SOL    HW283909   8.909  14.849   7.515
94024SOL     OW83910  12.749   9.577   6.945
94024SOL    HW183911  12.713   9.493   6.917
94024SOL    HW283912  12.767   9.565   7.038
94025SOL     OW83913  10.925  14.508  13.118
94025SOL    HW183914  10.878  14.506  13.035
94025SOL    HW283915  11.017  14.500  13.093
94026SOL     OW83916   9.420  12.607   8.078
94026SOL    HW183917   9.430  12.519   8.043
94026SOL    HW283918   9.509  12.637   8.095
94027SOL     OW83919   5.043   1.822   1.361
94027SOL    HW183920   5.085   1.749   1.315
94027SOL    HW283921   5.103   1.896   1.349
94028SOL     OW83922   1.202   9.447   8.144
94028SOL    HW183923   1.252   9.397   8.080
94028SOL    HW283924   1.110   9.432   8.120
94029SOL     OW83925  13.994   5.665  11.526
94029SOL    HW183926  13.903   5.684  11.504
94029SOL    HW283927  13.990   5.626  11.614
94030SOL     OW83928  12.012  10.395   0.810
94030SOL    HW183929  11.958  10.318   0.825
94030SOL    HW283930  12.067  10.373   0.735
94031SOL     OW83931   1.735   9.225   4.003
94031SOL    HW183932   1.654   9.175   4.014
94031SOL    HW283933   1.804   9.159   4.007
94032SOL     OW83934  10.849  10.693   5.798
94032SOL    HW183935  10.828  10.765   5.739
94032SOL    HW283936  10.797  10.619   5.766
94033SOL     OW83937   3.639   5.642   8.945
94033SOL    HW183938   3.584   5.570   8.914
94033SOL    HW283939   3.599   5.668   9.028
94034SOL     OW83940   3.012   5.251   6.873
94034SOL    HW183941   3.009   5.334   6.920
94034SOL    HW283942   3.100   5.248   6.835
94035SOL     OW83943   5.474  12.547  12.098
94035SOL    HW183944   5.467  12.528  12.191
94035SOL    HW283945   5.481  12.461  12.056
94036SOL     OW83946   0.529   7.018   3.486
94036SOL    HW183947   0.564   6.953   3.425
94036SOL    HW283948   0.487   6.966   3.555
94037SOL     OW83949  14.391   6.017   5.363
94037SOL    HW183950  14.365   5.972   5.443
94037SOL    HW283951  14.309   6.048   5.325
94038SOL     OW83952   1.946  13.414   7.003
94038SOL    HW183953   1.868  13.445   6.959
94038SOL    HW283954   1.975  13.339   6.950
94039SOL     OW83955   2.314   8.551   2.622
94039SOL    HW183956   2.245   8.614   2.641
94039SOL    HW283957   2.319   8.548   2.527
94040SOL     OW83958   7.749   9.693   6.994
94040SOL    HW183959   7.797   9.634   7.052
94040SOL    HW283960   7.747   9.648   6.910
94041SOL     OW83961  10.045   9.948   0.191
94041SOL    HW183962  10.064   9.885   0.261
94041SOL    HW283963  10.079   9.906   0.112
94042SOL     OW83964   7.972  12.897  11.112
94042SOL    HW183965   7.892  12.854  11.082
94042SOL    HW283966   8.001  12.949  11.037
94043SOL     OW83967  14.535  13.469   0.659
94043SOL    HW183968  14.610  13.477   0.600
94043SOL    HW283969  14.563  13.406   0.726
94044SOL     OW83970  11.604   8.074   7.589
94044SOL    HW183971  11.537   8.141   7.602
94044SOL    HW283972  11.563   8.010   7.530
94045SOL     OW83973   4.460   0.331   2.166
94045SOL    HW183974   4.394   0.310   2.099
94045SOL    HW283975   4.413   0.386   2.229
94046SOL     OW83976   6.248  12.000   0.550
94046SOL    HW183977   6.204  11.920   0.578
94046SOL    HW283978   6.263  11.988   0.456
94047SOL     OW83979   8.920  14.581   5.380
94047SOL    HW183980   9.009  14.589   5.344
94047SOL    HW283981   8.912  14.653   5.441
94048SOL     OW83982  14.719   8.789   8.330
94048SOL    HW183983  14.661   8.831   8.266
94048SOL    HW283984  14.805   8.825   8.310
94049SOL     OW83985   5.089  10.560  13.957
94049SOL    HW183986   5.050  10.486  13.912
94049SOL    HW283987   5.016  10.621  13.971
94050SOL     OW83988   6.518  12.699  10.853
94050SOL    HW183989   6.429  12.712  10.820
94050SOL    HW283990   6.560  12.645  10.786
94051SOL     OW83991   8.606   6.228  12.976
94051SOL    HW183992   8.679   6.284  12.950
94051SOL    HW283993   8.528   6.275  12.947
94052SOL     OW83994  13.452   3.576   8.909
94052SOL    HW183995  13.543   3.571   8.939
94052SOL    HW283996  13.436   3.670   8.897
94053SOL     OW83997   8.400   5.736  12.201
94053SOL    HW183998   8.366   5.701  12.283
94053SOL    HW283999   8.454   5.665  12.165
94054SOL     OW84000   5.780   1.178  10.579
94054SOL    HW184001   5.774   1.272  10.562
94054SOL    HW284002   5.869   1.155  10.555
94055SOL     OW84003   0.786   7.105  12.173
94055SOL    HW184004   0.720   7.168  12.204
94055SOL    HW284005   0.762   7.023  12.216
94056SOL     OW84006   8.789  11.226   2.945
94056SOL    HW184007   8.746  11.149   2.909
94056SOL    HW284008   8.756  11.299   2.893
94057SOL     OW84009  10.764   1.480   6.417
94057SOL    HW184010  10.792   1.540   6.486
94057SOL    HW284011  10.838   1.420   6.405
94058SOL     OW84012  10.311   5.741   1.770
94058SOL    HW184013  10.321   5.646   1.782
94058SOL    HW284014  10.275   5.750   1.682
94059SOL     OW84015  10.760  13.928   3.422
94059SOL    HW184016  10.836  13.975   3.456
94059SOL    HW284017  10.716  13.991   3.365
94060SOL     OW84018   1.725   3.599   6.006
94060SOL    HW184019   1.677   3.517   6.014
94060SOL    HW284020   1.734   3.631   6.096
94061SOL     OW84021   5.152  13.261   8.819
94061SOL    HW184022   5.210  13.206   8.873
94061SOL    HW284023   5.188  13.252   8.731
94062SOL     OW84024   0.244  13.801   3.825
94062SOL    HW184025   0.273  13.891   3.842
94062SOL    HW284026   0.248  13.757   3.910
94063SOL     OW84027  13.373   9.288   7.615
94063SOL    HW184028  13.297   9.345   7.629
94063SOL    HW284029  13.382   9.240   7.698
94064SOL     OW84030   5.228   2.184   1.063
94064SOL    HW184031   5.181   2.134   0.997
94064SOL    HW284032   5.167   2.251   1.092
94065SOL     OW84033  14.206   6.980   1.008
94065SOL    HW184034  14.158   7.061   1.022
94065SOL    HW284035  14.293   6.997   1.044
94066SOL     OW84036   9.569  14.311   2.812
94066SOL    HW184037   9.563  14.384   2.873
94066SOL    HW284038   9.535  14.346   2.729
94067SOL     OW84039   1.323   0.413  11.731
94067SOL    HW184040   1.365   0.345  11.678
94067SOL    HW284041   1.367   0.494  11.706
94068SOL     OW84042   8.826  11.559  10.101
94068SOL    HW184043   8.914  11.595  10.112
94068SOL    HW284044   8.769  11.635  10.091
94069SOL     OW84045  13.333   4.826   6.062
94069SOL    HW184046  13.386   4.807   6.139
94069SOL    HW284047  13.377   4.901   6.021
94070SOL     OW84048   1.989  11.555   0.372
94070SOL    HW184049   1.940  11.487   0.417
94070SOL    HW284050   1.990  11.527   0.280
94071SOL     OW84051  13.461  11.516   9.293
94071SOL    HW184052  13.555  11.510   9.277
94071SOL    HW284053  13.454  11.523   9.388
94072SOL     OW84054   4.086  12.499   9.668
94072SOL    HW184055   4.017  12.564   9.654
94072SOL    HW284056   4.076  12.438   9.595
94073SOL     OW84057   8.013  11.312  11.231
94073SOL    HW184058   8.084  11.252  11.256
94073SOL    HW284059   7.939  11.286  11.286
94074SOL     OW84060   0.958   9.018   8.411
94074SOL    HW184061   0.939   9.045   8.500
94074SOL    HW284062   0.926   9.091   8.357
94075SOL     OW84063   7.726   9.190  14.824
94075SOL    HW184064   7.798   9.143  14.867
94075SOL    HW284065   7.696   9.253   0.015
94076SOL     OW84066  12.782   7.471   6.456
94076SOL    HW184067  12.812   7.411   6.524
94076SOL    HW284068  12.800   7.425   6.374
94077SOL     OW84069  12.529   5.060   1.535
94077SOL    HW184070  12.487   5.135   1.493
94077SOL    HW284071  12.601   5.037   1.477
94078SOL     OW84072   5.842  12.148   6.880
94078SOL    HW184073   5.910  12.131   6.816
94078SOL    HW284074   5.766  12.098   6.849
94079SOL     OW84075   8.850  13.880  14.814
94079SOL    HW184076   8.757  13.859  14.809
94079SOL    HW284077   8.895  13.801  14.784
94080SOL     OW84078   0.840   9.199   6.381
94080SOL    HW184079   0.776   9.183   6.313
94080SOL    HW284080   0.925   9.197   6.336
94081SOL     OW84081  12.365   3.309   4.074
94081SOL    HW184082  12.386   3.215   4.070
94081SOL    HW284083  12.277   3.312   4.110
94082SOL     OW84084   3.541   1.256   6.214
94082SOL    HW184085   3.572   1.277   6.126
94082SOL    HW284086   3.447   1.247   6.205
94083SOL     OW84087  14.067   7.779  13.411
94083SOL    HW184088  14.162   7.785  13.412
94083SOL    HW284089  14.037   7.866  13.440
94084SOL     OW84090   9.061   6.927  14.107
94084SOL    HW184091   9.134   6.868  14.125
94084SOL    HW284092   9.083   7.007  14.155
94085SOL     OW84093  12.588  13.304  13.879
94085SOL    HW184094  12.608  13.333  13.790
94085SOL    HW284095  12.493  13.292  13.880
94086SOL     OW84096   6.762   0.476  12.168
94086SOL    HW184097   6.717   0.407  12.218
94086SOL    HW284098   6.691   0.519  12.119
94087SOL     OW84099   0.572   9.005   5.779
94087SOL    HW184100   0.488   8.980   5.818
94087SOL    HW284101   0.554   9.010   5.685
94088SOL     OW84102  11.856  13.059   4.777
94088SOL    HW184103  11.893  12.981   4.735
94088SOL    HW284104  11.769  13.032   4.805
94089SOL     OW84105   2.764   9.075   5.792
94089SOL    HW184106   2.832   9.099   5.854
94089SOL    HW284107   2.716   9.157   5.776
94090SOL     OW84108  14.235   3.937  11.960
94090SOL    HW184109  14.285   4.013  11.990
94090SOL    HW284110  14.271   3.863  12.010
94091SOL     OW84111   7.723   6.840   9.160
94091SOL    HW184112   7.636   6.877   9.175
94091SOL    HW284113   7.734   6.775   9.229
94092SOL     OW84114  14.725  11.314  11.956
94092SOL    HW184115  14.802  11.346  12.003
94092SOL    HW284116  14.761  11.257  11.888
94093SOL     OW84117   3.926  12.126  10.016
94093SOL    HW184118   3.916  12.031  10.027
94093SOL    HW284119   3.882  12.164  10.091
94094SOL     OW84120  10.369  10.483  10.700
94094SOL    HW184121  10.313  10.454  10.772
94094SOL    HW284122  10.337  10.571  10.679
94095SOL     OW84123   8.833   5.760  12.856
94095SOL    HW184124   8.787   5.785  12.776
94095SOL    HW284125   8.797   5.818  12.924
94096SOL     OW84126  12.686   0.451   7.902
94096SOL    HW184127  12.644   0.368   7.923
94096SOL    HW284128  12.705   0.490   7.988
94097SOL     OW84129  12.328   8.588   3.023
94097SOL    HW184130  12.254   8.536   3.054
94097SOL    HW284131  12.356   8.543   2.943
94098SOL     OW84132  11.416  14.467   2.279
94098SOL    HW184133  11.333  14.493   2.237
94098SOL    HW284134  11.417  14.371   2.272
94099SOL     OW84135  10.268  10.034   7.511
94099SOL    HW184136  10.211  10.093   7.460
94099SOL    HW284137  10.284  10.082   7.592
94100SOL     OW84138   3.047  11.177   1.376
94100SOL    HW184139   2.987  11.232   1.426
94100SOL    HW284140   3.086  11.118   1.441
94101SOL     OW84141   2.179   8.980   6.391
94101SOL    HW184142   2.236   8.904   6.382
94101SOL    HW284143   2.220   9.047   6.335
94102SOL     OW84144  14.298   9.469   5.243
94102SOL    HW184145  14.317   9.486   5.151
94102SOL    HW284146  14.311   9.553   5.287
94103SOL     OW84147   0.674   7.653   2.752
94103SOL    HW184148   0.599   7.653   2.812
94103SOL    HW284149   0.662   7.731   2.699
94104SOL     OW84150  11.188  13.353  10.705
94104SOL    HW184151  11.219  13.440  10.730
94104SOL    HW284152  11.109  13.369  10.653
94105SOL     OW84153   2.074   1.377   5.620
94105SOL    HW184154   1.986   1.413   5.616
94105SOL    HW284155   2.122   1.437   5.678
94106SOL     OW84156   0.611   8.660   0.495
94106SOL    HW184157   0.698   8.648   0.534
94106SOL    HW284158   0.550   8.632   0.562
94107SOL     OW84159  10.744   6.779   3.921
94107SOL    HW184160  10.670   6.740   3.968
94107SOL    HW284161  10.705   6.820   3.844
94108SOL     OW84162   4.054  11.634  12.392
94108SOL    HW184163   3.980  11.577  12.373
94108SOL    HW284164   4.089  11.659  12.306
94109SOL     OW84165  11.055  11.605   1.670
94109SOL    HW184166  11.019  11.685   1.632
94109SOL    HW284167  11.146  11.627   1.691
94110SOL     OW84168   4.133   4.977   3.282
94110SOL    HW184169   4.176   4.894   3.259
94110SOL    HW284170   4.052   4.950   3.326
94111SOL     OW84171   3.468   8.027   9.930
94111SOL    HW184172   3.439   7.974  10.004
94111SOL    HW284173   3.457   7.969   9.854
94112SOL     OW84174  12.332   1.608   1.590
94112SOL    HW184175  12.410   1.568   1.629
94112SOL    HW284176  12.273   1.623   1.665
94113SOL     OW84177  13.605   2.059   3.131
94113SOL    HW184178  13.627   2.094   3.218
94113SOL    HW284179  13.510   2.053   3.132
94114SOL     OW84180  11.638   5.594  11.177
94114SOL    HW184181  11.597   5.611  11.093
94114SOL    HW284182  11.644   5.499  11.182
94115SOL     OW84183  10.079   7.931   9.967
94115SOL    HW184184  10.133   7.928  10.045
94115SOL    HW284185  10.140   7.952   9.896
94116SOL     OW84186   0.235   6.154  11.591
94116SOL    HW184187   0.323   6.146  11.553
94116SOL    HW284188   0.244   6.119  11.679
94117SOL     OW84189   0.121   0.133   6.927
94117SOL    HW184190   0.116   0.074   7.003
94117SOL    HW284191   0.047   0.193   6.939
94118SOL     OW84192  14.396   9.534   0.278
94118SOL    HW184193  14.315   9.554   0.325
94118SOL    HW284194  14.375   9.553   0.186
94119SOL     OW84195  10.142   7.083  10.199
94119SOL    HW184196  10.056   7.058  10.232
94119SOL    HW284197  10.139   7.179  10.196
94120SOL     OW84198   9.240   9.711   9.329
94120SOL    HW184199   9.153   9.744   9.350
94120SOL    HW284200   9.241   9.704   9.233
94121SOL     OW84201   4.611   8.328  14.016
94121SOL    HW184202   4.522   8.361  14.005
94121SOL    HW284203   4.603   8.234  13.999
94122SOL     OW84204   4.008   6.397  11.718
94122SOL    HW184205   4.101   6.398  11.694
94122SOL    HW284206   4.008   6.405  11.813
94123SOL     OW84207  13.668  12.628  11.639
94123SOL    HW184208  13.686  12.716  11.671
94123SOL    HW284209  13.731  12.573  11.685
94124SOL     OW84210  13.747   2.369  12.096
94124SOL    HW184211  13.787   2.326  12.020
94124SOL    HW284212  13.794   2.451  12.105
94125SOL     OW84213  10.691   5.341  11.771
94125SOL    HW184214  10.695   5.321  11.678
94125SOL    HW284215  10.749   5.416  11.783
94126SOL     OW84216   9.749   0.296  10.466
94126SOL    HW184217   9.727   0.239  10.393
94126SOL    HW284218   9.822   0.349  10.434
94127SOL     OW84219   6.182   2.808  12.450
94127SOL    HW184220   6.151   2.718  12.467
94127SOL    HW284221   6.260   2.816  12.504
94128SOL     OW84222  13.893   6.986   0.354
94128SOL    HW184223  13.857   6.902   0.326
94128SOL    HW284224  13.942   6.965   0.434
94129SOL     OW84225   2.421  12.735   4.856
94129SOL    HW184226   2.396  12.819   4.895
94129SOL    HW284227   2.516  12.741   4.847
94130SOL     OW84228   1.945   3.889   6.330
94130SOL    HW184229   1.868   3.945   6.335
94130SOL    HW284230   1.972   3.891   6.238
94131SOL     OW84231   7.504  11.792   4.202
94131SOL    HW184232   7.446  11.825   4.134
94131SOL    HW284233   7.524  11.869   4.256
94132SOL     OW84234  13.439   7.391   4.015
94132SOL    HW184235  13.353   7.364   4.047
94132SOL    HW284236  13.480   7.311   3.983
94133SOL     OW84237   2.388   6.564   7.042
94133SOL    HW184238   2.395   6.563   6.947
94133SOL    HW284239   2.392   6.472   7.068
94134SOL     OW84240   8.494   5.799  10.730
94134SOL    HW184241   8.567   5.782  10.788
94134SOL    HW284242   8.454   5.714  10.714
94135SOL     OW84243   5.917  11.789   5.998
94135SOL    HW184244   5.923  11.883   6.013
94135SOL    HW284245   5.838  11.762   6.044
94136SOL     OW84246  12.087   0.659  13.773
94136SOL    HW184247  12.158   0.693  13.827
94136SOL    HW284248  12.045   0.737  13.737
94137SOL     OW84249   7.119   7.295   5.406
94137SOL    HW184250   7.132   7.304   5.312
94137SOL    HW284251   7.046   7.354   5.425
94138SOL     OW84252   1.369   9.013   1.015
94138SOL    HW184253   1.355   8.957   0.939
94138SOL    HW284254   1.402   9.095   0.979
94139SOL     OW84255   1.740   6.027  14.124
94139SOL    HW184256   1.826   6.066  14.137
94139SOL    HW284257   1.688   6.096  14.083
94140SOL     OW84258   2.507   4.092   5.153
94140SOL    HW184259   2.506   4.181   5.188
94140SOL    HW284260   2.568   4.045   5.209
94141SOL     OW84261   2.018  13.510  10.677
94141SOL    HW184262   1.980  13.446  10.617
94141SOL    HW284263   2.095  13.543  10.632
94142SOL     OW84264   7.965  10.654   1.137
94142SOL    HW184265   7.978  10.562   1.163
94142SOL    HW284266   7.974  10.653   1.042
94143SOL     OW84267   9.608   2.094  11.811
94143SOL    HW184268   9.696   2.101  11.848
94143SOL    HW284269   9.557   2.160  11.857
94144SOL     OW84270   1.355  11.362  10.533
94144SOL    HW184271   1.393  11.312  10.461
94144SOL    HW284272   1.309  11.298  10.587
94145SOL     OW84273   7.781   7.324  12.809
94145SOL    HW184274   7.834   7.249  12.836
94145SOL    HW284275   7.698   7.313  12.856
94146SOL     OW84276   0.348   2.252   4.864
94146SOL    HW184277   0.432   2.288   4.834
94146SOL    HW284278   0.350   2.260   4.959
94147SOL     OW84279  11.988   6.278   9.216
94147SOL    HW184280  12.044   6.305   9.143
94147SOL    HW284281  11.915   6.232   9.174
94148SOL     OW84282   1.231   3.483   6.393
94148SOL    HW184283   1.233   3.449   6.482
94148SOL    HW284284   1.286   3.422   6.343
94149SOL     OW84285   6.919  11.877   9.279
94149SOL    HW184286   7.011  11.903   9.267
94149SOL    HW284287   6.923  11.801   9.337
94150SOL     OW84288   8.296  13.839   0.834
94150SOL    HW184289   8.214  13.811   0.794
94150SOL    HW284290   8.272  13.867   0.923
94151SOL     OW84291   1.702   0.350   5.929
94151SOL    HW184292   1.640   0.388   5.867
94151SOL    HW284293   1.652   0.283   5.975
94152SOL     OW84294   1.506   3.230   9.266
94152SOL    HW184295   1.515   3.299   9.332
94152SOL    HW284296   1.459   3.160   9.311
94153SOL     OW84297  13.694   9.027  13.295
94153SOL    HW184298  13.682   8.963  13.365
94153SOL    HW284299  13.627   9.094  13.311
94154SOL     OW84300  10.885   4.624   7.012
94154SOL    HW184301  10.897   4.623   7.107
94154SOL    HW284302  10.947   4.690   6.981
94155SOL     OW84303  11.395   1.428   8.088
94155SOL    HW184304  11.431   1.460   8.170
94155SOL    HW284305  11.454   1.357   8.062
94156SOL     OW84306  14.576   6.874  10.795
94156SOL    HW184307  14.605   6.791  10.833
94156SOL    HW284308  14.508   6.905  10.854
94157SOL     OW84309   7.226  12.276   3.084
94157SOL    HW184310   7.290  12.330   3.130
94157SOL    HW284311   7.268  12.190   3.077
94158SOL     OW84312   4.300   6.051  10.351
94158SOL    HW184313   4.378   6.106  10.349
94158SOL    HW284314   4.300   6.006  10.266
94159SOL     OW84315   3.076   2.144   0.934
94159SOL    HW184316   3.117   2.217   0.981
94159SOL    HW284317   3.150   2.098   0.893
94160SOL     OW84318   1.033   1.689  13.988
94160SOL    HW184319   0.969   1.752  14.022
94160SOL    HW284320   1.028   1.698  13.893
94161SOL     OW84321   6.115   5.405   1.719
94161SOL    HW184322   6.184   5.469   1.704
94161SOL    HW284323   6.151   5.322   1.688
94162SOL     OW84324   4.055   7.861   8.415
94162SOL    HW184325   4.106   7.922   8.469
94162SOL    HW284326   4.120   7.799   8.382
94163SOL     OW84327   8.023   4.586  11.434
94163SOL    HW184328   8.075   4.528  11.379
94163SOL    HW284329   8.036   4.673  11.396
94164SOL     OW84330   7.682  13.814   5.785
94164SOL    HW184331   7.636  13.897   5.769
94164SOL    HW284332   7.771  13.830   5.754
94165SOL     OW84333  10.215  11.911   5.746
94165SOL    HW184334  10.276  11.887   5.676
94165SOL    HW284335  10.237  12.002   5.766
94166SOL     OW84336   8.945  13.819  12.550
94166SOL    HW184337   8.934  13.907  12.585
94166SOL    HW284338   8.956  13.832  12.456
94167SOL     OW84339  13.313   3.556   9.341
94167SOL    HW184340  13.404   3.527   9.328
94167SOL    HW284341  13.260   3.489   9.299
94168SOL     OW84342  11.752  13.575   5.097
94168SOL    HW184343  11.710  13.489   5.105
94168SOL    HW284344  11.810  13.581   5.173
94169SOL     OW84345  14.438   7.080   3.883
94169SOL    HW184346  14.490   7.149   3.844
94169SOL    HW284347  14.396   7.121   3.959
94170SOL     OW84348  10.283   4.444  10.888
94170SOL    HW184349  10.280   4.348  10.893
94170SOL    HW284350  10.258   4.474  10.976
94171SOL     OW84351   1.938  12.458  11.748
94171SOL    HW184352   1.887  12.532  11.783
94171SOL    HW284353   2.027  12.493  11.739
94172SOL     OW84354   9.008  14.124   8.958
94172SOL    HW184355   9.082  14.110   9.017
94172SOL    HW284356   8.931  14.108   9.013
94173SOL     OW84357   0.661  13.075  14.107
94173SOL    HW184358   0.703  12.999  14.147
94173SOL    HW284359   0.711  13.150  14.139
94174SOL     OW84360  12.224   4.835   4.454
94174SOL    HW184361  12.319   4.829   4.461
94174SOL    HW284362  12.199   4.902   4.518
94175SOL     OW84363   1.279   6.617   5.006
94175SOL    HW184364   1.295   6.704   5.042
94175SOL    HW284365   1.187   6.619   4.979
94176SOL     OW84366   1.825   7.644   8.781
94176SOL    HW184367   1.865   7.594   8.852
94176SOL    HW284368   1.880   7.627   8.705
94177SOL     OW84369  12.554   1.090   6.793
94177SOL    HW184370  12.646   1.072   6.810
94177SOL    HW284371  12.551   1.123   6.703
94178SOL     OW84372  14.434  14.155  13.809
94178SOL    HW184373  14.529  14.165  13.804
94178SOL    HW284374  14.413  14.178  13.899
94179SOL     OW84375   0.609   9.947   4.339
94179SOL    HW184376   0.672   9.958   4.410
94179SOL    HW284377   0.579  10.036   4.320
94180SOL     OW84378  12.803  12.591  10.584
94180SOL    HW184379  12.887  12.586  10.629
94180SOL    HW284380  12.813  12.533  10.508
94181SOL     OW84381  10.671   2.977   0.296
94181SOL    HW184382  10.617   2.899   0.307
94181SOL    HW284383  10.668   3.021   0.381
94182SOL     OW84384   6.401   3.895   7.804
94182SOL    HW184385   6.477   3.951   7.820
94182SOL    HW284386   6.335   3.926   7.866
94183SOL     OW84387   6.548   9.984  14.118
94183SOL    HW184388   6.496  10.033  14.055
94183SOL    HW284389   6.633   9.973  14.076
94184SOL     OW84390   7.838   1.992   4.037
94184SOL    HW184391   7.755   1.947   4.021
94184SOL    HW284392   7.888   1.978   3.956
94185SOL     OW84393   2.293   6.617   6.399
94185SOL    HW184394   2.250   6.686   6.349
94185SOL    HW284395   2.373   6.658   6.433
94186SOL     OW84396   2.565   1.011  10.367
94186SOL    HW184397   2.579   1.106  10.364
94186SOL    HW284398   2.587   0.986  10.457
94187SOL     OW84399   3.927   3.724   3.166
94187SOL    HW184400   3.940   3.635   3.134
94187SOL    HW284401   3.868   3.764   3.102
94188SOL     OW84402   9.186  14.631  12.882
94188SOL    HW184403   9.112  14.581  12.918
94188SOL    HW284404   9.163  14.647  12.791
94189SOL     OW84405   7.976   4.350   3.899
94189SOL    HW184406   7.965   4.294   3.822
94189SOL    HW284407   7.936   4.433   3.873
94190SOL     OW84408  13.401   2.950  12.083
94190SOL    HW184409  13.465   2.999  12.032
94190SOL    HW284410  13.371   3.011  12.151
94191SOL     OW84411   8.305   4.547   9.907
94191SOL    HW184412   8.215   4.517   9.897
94191SOL    HW284413   8.323   4.534  10.001
94192SOL     OW84414   0.501   2.982  13.186
94192SOL    HW184415   0.518   3.048  13.253
94192SOL    HW284416   0.518   3.027  13.103
94193SOL     OW84417   6.844   1.780  12.106
94193SOL    HW184418   6.883   1.867  12.116
94193SOL    HW284419   6.753   1.797  12.081
94194SOL     OW84420   8.727   8.033   2.362
94194SOL    HW184421   8.665   8.072   2.424
94194SOL    HW284422   8.781   7.975   2.415
94195SOL     OW84423   1.807   9.035  13.647
94195SOL    HW184424   1.783   9.005  13.559
94195SOL    HW284425   1.729   9.078  13.680
94196SOL     OW84426   3.928  11.787   0.206
94196SOL    HW184427   3.838  11.764   0.186
94196SOL    HW284428   3.924  11.878   0.236
94197SOL     OW84429  10.169   6.084   9.139
94197SOL    HW184430  10.128   6.008   9.099
94197SOL    HW284431  10.235   6.047   9.198
94198SOL     OW84432   3.722   4.876  11.694
94198SOL    HW184433   3.678   4.960  11.707
94198SOL    HW284434   3.708   4.828  11.775
94199SOL     OW84435  11.118   3.257   3.411
94199SOL    HW184436  11.078   3.183   3.456
94199SOL    HW284437  11.179   3.218   3.348
94200SOL     OW84438   1.218  10.340  11.003
94200SOL    HW184439   1.305  10.326  11.039
94200SOL    HW284440   1.231  10.339  10.908
94201SOL     OW84441   4.576   8.095   9.332
94201SOL    HW184442   4.603   8.182   9.364
94201SOL    HW284443   4.612   8.034   9.396
94202SOL     OW84444   2.549  14.362  14.725
94202SOL    HW184445   2.516  14.425  14.660
94202SOL    HW284446   2.643  14.379  14.730
94203SOL     OW84447  13.829   8.439  14.360
94203SOL    HW184448  13.762   8.486  14.310
94203SOL    HW284449  13.789   8.354  14.379
94204SOL     OW84450   6.382   9.819   0.166
94204SOL    HW184451   6.372   9.887   0.099
94204SOL    HW284452   6.461   9.844   0.213
94205SOL     OW84453   0.587   6.777   5.833
94205SOL    HW184454   0.665   6.830   5.821
94205SOL    HW284455   0.582   6.763   5.928
94206SOL     OW84456   7.873   7.192   6.433
94206SOL    HW184457   7.911   7.267   6.479
94206SOL    HW284458   7.948   7.146   6.396
94207SOL     OW84459  14.697   2.102  12.106
94207SOL    HW184460  14.753   2.174  12.137
94207SOL    HW284461  14.629   2.093  12.173
94208SOL     OW84462   1.633   9.067  14.531
94208SOL    HW184463   1.628   9.035  14.441
94208SOL    HW284464   1.576   9.008  14.581
94209SOL     OW84465   0.916   2.591  11.218
94209SOL    HW184466   0.848   2.658  11.217
94209SOL    HW284467   0.994   2.637  11.248
94210SOL     OW84468   6.296   0.841  13.464
94210SOL    HW184469   6.290   0.758  13.510
94210SOL    HW284470   6.238   0.900  13.512
94211SOL     OW84471  14.571   9.816   6.846
94211SOL    HW184472  14.652   9.859   6.819
94211SOL    HW284473  14.599   9.747   6.907
94212SOL     OW84474   4.818   7.836   8.914
94212SOL    HW184475   4.805   7.772   8.844
94212SOL    HW284476   4.744   7.896   8.907
94213SOL     OW84477   1.669   4.991   2.946
94213SOL    HW184478   1.626   4.916   2.987
94213SOL    HW284479   1.624   5.001   2.862
94214SOL     OW84480  11.571  14.366  12.112
94214SOL    HW184481  11.631  14.370  12.037
94214SOL    HW284482  11.538  14.276  12.111
94215SOL     OW84483   5.686   6.778  14.635
94215SOL    HW184484   5.752   6.737  14.692
94215SOL    HW284485   5.636   6.835  14.694
94216SOL     OW84486   4.914  13.649   0.928
94216SOL    HW184487   4.869  13.590   0.868
94216SOL    HW284488   4.987  13.684   0.876
94217SOL     OW84489   2.362   0.378   5.582
94217SOL    HW184490   2.453   0.348   5.577
94217SOL    HW284491   2.364   0.465   5.544
94218SOL     OW84492   7.147  10.445  12.171
94218SOL    HW184493   7.138  10.541  12.169
94218SOL    HW284494   7.057  10.413  12.166
94219SOL     OW84495   3.266  11.711   1.872
94219SOL    HW184496   3.262  11.615   1.875
94219SOL    HW284497   3.319  11.735   1.948
94220SOL     OW84498   9.270   1.301   0.290
94220SOL    HW184499   9.193   1.336   0.244
94220SOL    HW284500   9.243   1.296   0.382
94221SOL     OW84501   1.453  14.832   5.274
94221SOL    HW184502   1.462  14.791   5.360
94221SOL    HW284503   1.383  14.783   5.231
94222SOL     OW84504   3.581  10.340  12.416
94222SOL    HW184505   3.621  10.254  12.428
94222SOL    HW284506   3.561  10.370  12.504
94223SOL     OW84507  13.260  14.270   0.772
94223SOL    HW184508  13.322  14.238   0.706
94223SOL    HW284509  13.211  14.192   0.797
94224SOL     OW84510   0.097   5.125  11.072
94224SOL    HW184511   0.149   5.130  11.152
94224SOL    HW284512   0.016   5.172  11.093
94225SOL     OW84513   8.251   2.393   0.798
94225SOL    HW184514   8.283   2.360   0.714
94225SOL    HW284515   8.253   2.318   0.856
94226SOL     OW84516  10.824   5.402   4.027
94226SOL    HW184517  10.863   5.321   3.994
94226SOL    HW284518  10.826   5.394   4.122
94227SOL     OW84519   4.893   9.236  12.044
94227SOL    HW184520   4.988   9.235  12.053
94227SOL    HW284521   4.878   9.228  11.950
94228SOL     OW84522  14.258   4.445   8.946
94228SOL    HW184523  14.333   4.386   8.933
94228SOL    HW284524  14.184   4.399   8.905
94229SOL     OW84525  10.894   1.585  12.799
94229SOL    HW184526  10.989   1.598  12.793
94229SOL    HW284527  10.861   1.667  12.835
94230SOL     OW84528  12.404   8.970  12.704
94230SOL    HW184529  12.495   8.942  12.716
94230SOL    HW284530  12.355   8.889  12.698
94231SOL     OW84531   7.206  14.000  11.105
94231SOL    HW184532   7.160  13.930  11.151
94231SOL    HW284533   7.296  13.970  11.099
94232SOL     OW84534   3.230   5.261   4.118
94232SOL    HW184535   3.147   5.286   4.077
94232SOL    HW284536   3.226   5.297   4.206
94233SOL     OW84537   8.502   5.257   6.870
94233SOL    HW184538   8.465   5.309   6.799
94233SOL    HW284539   8.505   5.317   6.945
94234SOL     OW84540  13.648   1.028   5.656
94234SOL    HW184541  13.637   0.991   5.743
94234SOL    HW284542  13.624   0.957   5.596
94235SOL     OW84543   9.447   6.545   0.718
94235SOL    HW184544   9.494   6.561   0.637
94235SOL    HW284545   9.476   6.459   0.747
94236SOL     OW84546  12.116   3.460   3.899
94236SOL    HW184547  12.165   3.532   3.937
94236SOL    HW284548  12.029   3.466   3.939
94237SOL     OW84549   5.376   0.682  11.004
94237SOL    HW184550   5.312   0.657  11.071
94237SOL    HW284551   5.399   0.772  11.026
94238SOL     OW84552   7.486   8.345   1.471
94238SOL    HW184553   7.433   8.279   1.426
94238SOL    HW284554   7.499   8.414   1.406
94239SOL     OW84555   1.322   4.802   4.249
94239SOL    HW184556   1.312   4.875   4.310
94239SOL    HW284557   1.417   4.789   4.242
94240SOL     OW84558   6.033   3.548   5.507
94240SOL    HW184559   5.982   3.623   5.537
94240SOL    HW284560   5.976   3.506   5.442
94241SOL     OW84561   3.373   5.891  13.920
94241SOL    HW184562   3.430   5.902  13.996
94241SOL    HW284563   3.420   5.831  13.863
94242SOL     OW84564   9.188  14.755   3.369
94242SOL    HW184565   9.251  14.693   3.332
94242SOL    HW284566   9.205  14.751   3.464
94243SOL     OW84567   2.073   4.031   2.199
94243SOL    HW184568   2.044   3.970   2.131
94243SOL    HW284569   2.129   4.093   2.152
94244SOL     OW84570  12.327  13.740  10.313
94244SOL    HW184571  12.332  13.767  10.404
94244SOL    HW284572  12.386  13.800  10.267
94245SOL     OW84573   2.030   6.102  13.813
94245SOL    HW184574   2.012   6.054  13.732
94245SOL    HW284575   2.126   6.109  13.815
94246SOL     OW84576   3.937  14.169  11.706
94246SOL    HW184577   3.900  14.243  11.658
94246SOL    HW284578   3.865  14.107  11.715
94247SOL     OW84579  12.890  11.063  12.219
94247SOL    HW184580  12.806  11.047  12.176
94247SOL    HW284581  12.953  11.065  12.148
94248SOL     OW84582   7.916   9.050  12.048
94248SOL    HW184583   7.986   8.987  12.066
94248SOL    HW284584   7.923   9.068  11.955
94249SOL     OW84585  14.732  10.992  13.507
94249SOL    HW184586  14.821  10.956  13.504
94249SOL    HW284587  14.702  10.971  13.596
94250SOL     OW84588   0.651   8.522   1.444
94250SOL    HW184589   0.565   8.541   1.482
94250SOL    HW284590   0.712   8.572   1.499
94251SOL     OW84591   3.085  12.269   6.159
94251SOL    HW184592   3.016  12.285   6.093
94251SOL    HW284593   3.076  12.342   6.221
94252SOL     OW84594   1.883   4.098   1.504
94252SOL    HW184595   1.845   4.174   1.460
94252SOL    HW284596   1.808   4.052   1.542
94253SOL     OW84597   3.436   2.707   7.594
94253SOL    HW184598   3.373   2.671   7.532
94253SOL    HW284599   3.388   2.713   7.676
94254SOL     OW84600   0.320  10.824  14.556
94254SOL    HW184601   0.236  10.821  14.509
94254SOL    HW284602   0.382  10.856  14.491
94255SOL     OW84603   7.337  10.253  13.219
94255SOL    HW184604   7.423  10.226  13.252
94255SOL    HW284605   7.323  10.197  13.142
94256SOL     OW84606  13.330   0.703   5.423
94256SOL    HW184607  13.269   0.754   5.477
94256SOL    HW284608  13.296   0.614   5.427
94257SOL     OW84609   3.301   9.565  12.029
94257SOL    HW184610   3.344   9.579  11.945
94257SOL    HW284611   3.207   9.565  12.009
94258SOL     OW84612  11.590   0.233   0.087
94258SOL    HW184613  11.514   0.267   0.039
94258SOL    HW284614  11.580   0.270   0.175
94259SOL     OW84615  10.470  14.326   7.685
94259SOL    HW184616  10.437  14.415   7.695
94259SOL    HW284617  10.556  14.336   7.645
94260SOL     OW84618  14.303  13.016   9.548
94260SOL    HW184619  14.262  13.049   9.627
94260SOL    HW284620  14.278  13.078   9.480
94261SOL     OW84621   3.594   0.228  11.667
94261SOL    HW184622   3.612   0.306  11.719
94261SOL    HW284623   3.499   0.227  11.658
94262SOL     OW84624   1.028   5.585   8.296
94262SOL    HW184625   1.114   5.625   8.283
94262SOL    HW284626   0.967   5.649   8.259
94263SOL     OW84627   1.240  12.851   2.136
94263SOL    HW184628   1.260  12.938   2.101
94263SOL    HW284629   1.152  12.860   2.174
94264SOL     OW84630   6.106   8.908  12.967
94264SOL    HW184631   6.179   8.847  12.968
94264SOL    HW284632   6.066   8.898  12.881
94265SOL     OW84633  10.259  11.756  13.320
94265SOL    HW184634  10.228  11.734  13.232
94265SOL    HW284635  10.350  11.781  13.307
94266SOL     OW84636  10.876   1.474   9.028
94266SOL    HW184637  10.894   1.523   8.947
94266SOL    HW284638  10.786   1.498   9.050
94267SOL     OW84639   6.492   4.541  14.424
94267SOL    HW184640   6.550   4.466  14.437
94267SOL    HW284641   6.523   4.581  14.343
94268SOL     OW84642   0.737  12.961   5.772
94268SOL    HW184643   0.747  12.927   5.683
94268SOL    HW284644   0.643  12.974   5.783
94269SOL     OW84645  10.476   8.672   9.586
94269SOL    HW184646  10.450   8.663   9.678
94269SOL    HW284647  10.479   8.582   9.553
94270SOL     OW84648   4.192   7.855   3.425
94270SOL    HW184649   4.143   7.775   3.406
94270SOL    HW284650   4.269   7.826   3.472
94271SOL     OW84651   8.863  14.745   9.495
94271SOL    HW184652   8.793  14.682   9.479
94271SOL    HW284653   8.921  14.738   9.419
94272SOL     OW84654  10.476   3.729   0.879
94272SOL    HW184655  10.523   3.760   0.957
94272SOL    HW284656  10.388   3.709   0.910
94273SOL     OW84657   8.925   5.534  11.518
94273SOL    HW184658   8.962   5.455  11.478
94273SOL    HW284659   8.997   5.597  11.518
94274SOL     OW84660   2.484   1.041   1.432
94274SOL    HW184661   2.563   1.087   1.402
94274SOL    HW284662   2.503   1.020   1.524
94275SOL     OW84663   1.850   5.559  11.662
94275SOL    HW184664   1.904   5.516  11.728
94275SOL    HW284665   1.910   5.575  11.589
94276SOL     OW84666   8.206   9.801   9.121
94276SOL    HW184667   8.182   9.753   9.200
94276SOL    HW284668   8.229   9.889   9.152
94277SOL     OW84669   6.260   0.672   4.744
94277SOL    HW184670   6.176   0.695   4.706
94277SOL    HW284671   6.325   0.712   4.687
94278SOL     OW84672   9.717   4.258   6.462
94278SOL    HW184673   9.786   4.283   6.524
94278SOL    HW284674   9.657   4.333   6.463
94279SOL     OW84675   6.406   7.268   2.959
94279SOL    HW184676   6.408   7.330   2.885
94279SOL    HW284677   6.392   7.323   3.036
94280SOL     OW84678   6.857   4.554   3.849
94280SOL    HW184679   6.791   4.530   3.784
94280SOL    HW284680   6.816   4.623   3.901
94281SOL     OW84681  13.623   2.003   5.169
94281SOL    HW184682  13.700   2.043   5.129
94281SOL    HW284683  13.563   2.076   5.183
94282SOL     OW84684   0.471   0.811  11.814
94282SOL    HW184685   0.401   0.830  11.877
94282SOL    HW284686   0.426   0.771  11.740
94283SOL     OW84687  14.616   3.122   4.886
94283SOL    HW184688  14.653   3.210   4.872
94283SOL    HW284689  14.526   3.138   4.914
94284SOL     OW84690  14.063   8.392   2.687
94284SOL    HW184691  14.047   8.335   2.763
94284SOL    HW284692  13.982   8.441   2.678
94285SOL     OW84693   0.455   6.383   1.096
94285SOL    HW184694   0.458   6.325   1.172
94285SOL    HW284695   0.546   6.406   1.080
94286SOL     OW84696   0.489  13.513   0.514
94286SOL    HW184697   0.472  13.421   0.535
94286SOL    HW284698   0.519  13.512   0.423
94287SOL     OW84699   4.582   2.002  11.763
94287SOL    HW184700   4.590   1.937  11.832
94287SOL    HW284701   4.638   2.075  11.792
94288SOL     OW84702  12.475   3.406   0.081
94288SOL    HW184703  12.466   3.321   0.124
94288SOL    HW284704  12.387   3.425   0.047
94289SOL     OW84705   6.392   2.718  12.188
94289SOL    HW184706   6.319   2.771  12.155
94289SOL    HW284707   6.355   2.672  12.263
94290SOL     OW84708  14.154   6.426   7.243
94290SOL    HW184709  14.079   6.451   7.189
94290SOL    HW284710  14.117   6.415   7.331
94291SOL     OW84711   4.870   3.697   8.347
94291SOL    HW184712   4.810   3.771   8.361
94291SOL    HW284713   4.825   3.622   8.385
94292SOL     OW84714  12.675   6.727   8.582
94292SOL    HW184715  12.736   6.793   8.614
94292SOL    HW284716  12.602   6.730   8.644
94293SOL     OW84717   4.962   2.981   9.301
94293SOL    HW184718   5.003   3.057   9.342
94293SOL    HW284719   4.957   3.003   9.209
94294SOL     OW84720   5.966   9.774   7.134
94294SOL    HW184721   5.988   9.688   7.169
94294SOL    HW284722   6.050   9.813   7.110
94295SOL     OW84723   5.952   1.937   6.837
94295SOL    HW184724   5.942   1.844   6.816
94295SOL    HW284725   6.009   1.938   6.914
94296SOL     OW84726   1.267   9.909   7.657
94296SOL    HW184727   1.362   9.899   7.669
94296SOL    HW284728   1.249   9.999   7.684
94297SOL     OW84729   0.956   0.264   1.606
94297SOL    HW184730   1.033   0.219   1.573
94297SOL    HW284731   0.985   0.305   1.688
94298SOL     OW84732   5.568  11.389  11.080
94298SOL    HW184733   5.653  11.418  11.114
94298SOL    HW284734   5.516  11.469  11.073
94299SOL     OW84735  12.534  10.383   5.963
94299SOL    HW184736  12.494  10.445   6.024
94299SOL    HW284737  12.581  10.438   5.901
94300SOL     OW84738  11.657  11.400   3.329
94300SOL    HW184739  11.703  11.389   3.246
94300SOL    HW284740  11.687  11.485   3.362
94301SOL     OW84741   6.212   2.895  10.810
94301SOL    HW184742   6.176   2.963  10.753
94301SOL    HW284743   6.186   2.921  10.898
94302SOL     OW84744  11.432   2.489   7.819
94302SOL    HW184745  11.465   2.568   7.776
94302SOL    HW284746  11.442   2.420   7.753
94303SOL     OW84747   1.625   9.902   6.952
94303SOL    HW184748   1.568   9.968   6.991
94303SOL    HW284749   1.710   9.914   6.995
94304SOL     OW84750   5.460  13.460   2.519
94304SOL    HW184751   5.481  13.420   2.603
94304SOL    HW284752   5.509  13.409   2.455
94305SOL     OW84753   7.059   6.146   1.432
94305SOL    HW184754   7.048   6.062   1.478
94305SOL    HW284755   7.152   6.149   1.409
94306SOL     OW84756  12.343  13.596   3.228
94306SOL    HW184757  12.411  13.604   3.161
94306SOL    HW284758  12.314  13.505   3.222
94307SOL     OW84759  14.621   9.908  11.469
94307SOL    HW184760  14.584   9.887  11.555
94307SOL    HW284761  14.716   9.903  11.482
94308SOL     OW84762  13.559  13.372   9.416
94308SOL    HW184763  13.478  13.399   9.459
94308SOL    HW284764  13.561  13.277   9.426
94309SOL     OW84765   0.977  10.707   7.509
94309SOL    HW184766   0.913  10.755   7.561
94309SOL    HW284767   0.973  10.617   7.543
94310SOL     OW84768   3.433  12.760   3.883
94310SOL    HW184769   3.435  12.851   3.912
94310SOL    HW284770   3.364  12.719   3.936
94311SOL     OW84771  13.375   3.598   5.818
94311SOL    HW184772  13.416   3.684   5.809
94311SOL    HW284773  13.429   3.539   5.766
94312SOL     OW84774  13.291   6.385   3.754
94312SOL    HW184775  13.205   6.343   3.755
94312SOL    HW284776  13.271   6.479   3.758
94313SOL     OW84777   3.523   9.595  13.621
94313SOL    HW184778   3.551   9.570  13.532
94313SOL    HW284779   3.441   9.642  13.608
94314SOL     OW84780   4.258   2.068   3.689
94314SOL    HW184781   4.271   2.071   3.784
94314SOL    HW284782   4.247   2.160   3.664
94315SOL     OW84783  10.574   5.672   2.282
94315SOL    HW184784  10.568   5.758   2.325
94315SOL    HW284785  10.504   5.673   2.217
94316SOL     OW84786  11.667  12.417   3.606
94316SOL    HW184787  11.717  12.386   3.682
94316SOL    HW284788  11.672  12.513   3.612
94317SOL     OW84789   3.649   8.767   3.652
94317SOL    HW184790   3.578   8.750   3.714
94317SOL    HW284791   3.691   8.846   3.685
94318SOL     OW84792   5.601   2.304   9.945
94318SOL    HW184793   5.507   2.290   9.951
94318SOL    HW284794   5.638   2.254  10.018
94319SOL     OW84795  11.724  11.776   8.279
94319SOL    HW184796  11.815  11.776   8.251
94319SOL    HW284797  11.720  11.710   8.348
94320SOL     OW84798   8.463  13.953   5.668
94320SOL    HW184799   8.516  13.885   5.712
94320SOL    HW284800   8.525  14.023   5.649
94321SOL     OW84801   7.867   3.506   5.904
94321SOL    HW184802   7.778   3.473   5.909
94321SOL    HW284803   7.875   3.566   5.978
94322SOL     OW84804   4.185  13.683  13.892
94322SOL    HW184805   4.215  13.760  13.940
94322SOL    HW284806   4.112  13.649  13.944
94323SOL     OW84807   9.864   4.647   9.874
94323SOL    HW184808   9.902   4.731   9.899
94323SOL    HW284809   9.810   4.621   9.949
94324SOL     OW84810   1.941  10.086   5.716
94324SOL    HW184811   2.032  10.114   5.718
94324SOL    HW284812   1.900  10.143   5.651
94325SOL     OW84813   8.165  11.605  14.287
94325SOL    HW184814   8.098  11.544  14.256
94325SOL    HW284815   8.123  11.690  14.283
94326SOL     OW84816   1.290   1.310  11.637
94326SOL    HW184817   1.314   1.394  11.676
94326SOL    HW284818   1.195   1.316  11.622
94327SOL     OW84819  14.328  14.211  14.044
94327SOL    HW184820  14.254  14.270  14.034
94327SOL    HW284821  14.376  14.245  14.119
94328SOL     OW84822   1.318  11.561  10.725
94328SOL    HW184823   1.224  11.548  10.738
94328SOL    HW284824   1.340  11.510  10.647
94329SOL     OW84825   4.206  12.446   6.539
94329SOL    HW184826   4.206  12.496   6.458
94329SOL    HW284827   4.235  12.508   6.606
94330SOL     OW84828   2.210  10.814   4.202
94330SOL    HW184829   2.197  10.721   4.219
94330SOL    HW284830   2.193  10.857   4.286
94331SOL     OW84831  12.075   6.602   9.391
94331SOL    HW184832  11.988   6.570   9.366
94331SOL    HW284833  12.125   6.601   9.309
94332SOL     OW84834  10.671   4.948  10.552
94332SOL    HW184835  10.727   4.978  10.481
94332SOL    HW284836  10.637   5.028  10.591
94333SOL     OW84837   8.945  12.360   3.238
94333SOL    HW184838   8.918  12.357   3.146
94333SOL    HW284839   8.915  12.445   3.269
94334SOL     OW84840   1.604  10.849  13.504
94334SOL    HW184841   1.606  10.766  13.551
94334SOL    HW284842   1.631  10.827  13.415
94335SOL     OW84843  13.595   8.822   3.718
94335SOL    HW184844  13.648   8.797   3.642
94335SOL    HW284845  13.505   8.813   3.687
94336SOL     OW84846   9.964  12.538   1.889
94336SOL    HW184847   9.989  12.473   1.823
94336SOL    HW284848  10.048  12.570   1.924
94337SOL     OW84849   2.986   5.636   5.013
94337SOL    HW184850   2.997   5.729   4.994
94337SOL    HW284851   3.030   5.591   4.941
94338SOL     OW84852   0.714   0.089  10.734
94338SOL    HW184853   0.654   0.125  10.669
94338SOL    HW284854   0.704   0.146  10.810
94339SOL     OW84855   0.572   2.945   3.352
94339SOL    HW184856   0.595   2.959   3.260
94339SOL    HW284857   0.640   2.991   3.401
94340SOL     OW84858   4.624   2.764   4.996
94340SOL    HW184859   4.540   2.731   5.029
94340SOL    HW284860   4.680   2.686   4.992
94341SOL     OW84861   3.705   0.639  12.393
94341SOL    HW184862   3.707   0.546  12.417
94341SOL    HW284863   3.764   0.645  12.318
94342SOL     OW84864   7.846   9.987   6.636
94342SOL    HW184865   7.886   9.905   6.607
94342SOL    HW284866   7.911  10.026   6.695
94343SOL     OW84867  12.165  12.064   1.108
94343SOL    HW184868  12.160  12.133   1.043
94343SOL    HW284869  12.196  11.987   1.060
94344SOL     OW84870   2.112   9.300  14.107
94344SOL    HW184871   2.081   9.301  14.016
94344SOL    HW284872   2.140   9.209  14.121
94345SOL     OW84873   3.335   6.441   5.323
94345SOL    HW184874   3.430   6.433   5.316
94345SOL    HW284875   3.313   6.521   5.275
94346SOL     OW84876   7.184   1.172   8.652
94346SOL    HW184877   7.200   1.163   8.746
94346SOL    HW284878   7.240   1.105   8.613
94347SOL     OW84879  12.383  12.685   2.101
94347SOL    HW184880  12.292  12.707   2.120
94347SOL    HW284881  12.433  12.757   2.141
94348SOL     OW84882   2.149  10.641  13.975
94348SOL    HW184883   2.127  10.649  14.068
94348SOL    HW284884   2.073  10.677  13.929
94349SOL     OW84885   7.093   4.506  10.926
94349SOL    HW184886   7.063   4.428  10.972
94349SOL    HW284887   7.027   4.520  10.858
94350SOL     OW84888   5.974  13.943   0.348
94350SOL    HW184889   5.908  13.961   0.282
94350SOL    HW284890   5.929  13.959   0.431
94351SOL     OW84891   1.543  10.609   7.429
94351SOL    HW184892   1.588  10.659   7.497
94351SOL    HW284893   1.451  10.610   7.455
94352SOL     OW84894   0.627   8.236   9.142
94352SOL    HW184895   0.600   8.213   9.053
94352SOL    HW284896   0.673   8.320   9.132
94353SOL     OW84897  12.009  11.081   6.034
94353SOL    HW184898  12.057  11.098   6.114
94353SOL    HW284899  11.947  11.012   6.056
94354SOL     OW84900   7.357   6.891   2.145
94354SOL    HW184901   7.412   6.839   2.085
94354SOL    HW284902   7.420   6.935   2.202
94355SOL     OW84903   2.150  11.605   8.283
94355SOL    HW184904   2.227  11.574   8.331
94355SOL    HW284905   2.076  11.561   8.324
94356SOL     OW84906  14.263   5.327   1.520
94356SOL    HW184907  14.243   5.273   1.596
94356SOL    HW284908  14.293   5.265   1.453
94357SOL     OW84909  13.581  12.469   8.700
94357SOL    HW184910  13.531  12.517   8.765
94357SOL    HW284911  13.649  12.425   8.750
94358SOL     OW84912  10.041   4.282   3.945
94358SOL    HW184913  10.042   4.348   3.875
94358SOL    HW284914   9.954   4.243   3.941
94359SOL     OW84915  11.245   2.172   3.672
94359SOL    HW184916  11.318   2.223   3.708
94359SOL    HW284917  11.199   2.139   3.749
94360SOL     OW84918   1.868   5.003   7.900
94360SOL    HW184919   1.894   5.025   7.811
94360SOL    HW284920   1.775   5.024   7.905
94361SOL     OW84921  12.293  10.060  11.697
94361SOL    HW184922  12.264   9.970  11.707
94361SOL    HW284923  12.258  10.105  11.775
94362SOL     OW84924  14.080  13.043   5.889
94362SOL    HW184925  13.986  13.054   5.872
94362SOL    HW284926  14.096  13.098   5.966
94363SOL     OW84927   5.505   5.335   0.398
94363SOL    HW184928   5.482   5.418   0.357
94363SOL    HW284929   5.554   5.288   0.331
94364SOL     OW84930  12.654   4.415   1.247
94364SOL    HW184931  12.743   4.450   1.258
94364SOL    HW284932  12.604   4.454   1.319
94365SOL     OW84933   4.944  14.444   2.447
94365SOL    HW184934   5.014  14.442   2.512
94365SOL    HW284935   4.972  14.383   2.379
94366SOL     OW84936   8.162   7.314   8.330
94366SOL    HW184937   8.119   7.381   8.383
94366SOL    HW284938   8.103   7.238   8.334
94367SOL     OW84939   3.504   6.359  12.226
94367SOL    HW184940   3.433   6.299  12.204
94367SOL    HW284941   3.507   6.421  12.153
94368SOL     OW84942  12.941   3.198   2.898
94368SOL    HW184943  12.978   3.112   2.919
94368SOL    HW284944  12.891   3.185   2.818
94369SOL     OW84945  14.565   4.910   1.719
94369SOL    HW184946  14.592   4.936   1.631
94369SOL    HW284947  14.610   4.971   1.778
94370SOL     OW84948  13.731   7.126   1.072
94370SOL    HW184949  13.654   7.150   1.123
94370SOL    HW284950  13.758   7.207   1.030
94371SOL     OW84951   9.297   4.383  13.004
94371SOL    HW184952   9.246   4.317  13.051
94371SOL    HW284953   9.323   4.341  12.922
94372SOL     OW84954   9.593   0.212  12.139
94372SOL    HW184955   9.660   0.225  12.072
94372SOL    HW284956   9.514   0.250  12.100
94373SOL     OW84957   3.456   7.592  11.404
94373SOL    HW184958   3.367   7.628  11.411
94373SOL    HW284959   3.496   7.641  11.332
94374SOL     OW84960  14.354   3.518   3.242
94374SOL    HW184961  14.307   3.551   3.165
94374SOL    HW284962  14.444   3.546   3.229
94375SOL     OW84963   5.570   7.540   8.612
94375SOL    HW184964   5.617   7.459   8.594
94375SOL    HW284965   5.479   7.514   8.621
94376SOL     OW84966   9.136   8.453   5.647
94376SOL    HW184967   9.178   8.473   5.731
94376SOL    HW284968   9.078   8.527   5.631
94377SOL     OW84969   4.446  14.565  11.672
94377SOL    HW184970   4.478  14.602  11.590
94377SOL    HW284971   4.369  14.514  11.646
94378SOL     OW84972  13.401   9.138   8.364
94378SOL    HW184973  13.419   9.132   8.270
94378SOL    HW284974  13.345   9.215   8.373
94379SOL     OW84975  14.375   9.189   4.996
94379SOL    HW184976  14.450   9.194   4.936
94379SOL    HW284977  14.354   9.280   5.015
94380SOL     OW84978  11.538  11.759   1.860
94380SOL    HW184979  11.568  11.678   1.901
94380SOL    HW284980  11.521  11.818   1.933
94381SOL     OW84981  13.232   1.635   1.332
94381SOL    HW184982  13.247   1.560   1.274
94381SOL    HW284983  13.141   1.661   1.314
94382SOL     OW84984  10.921   6.311   8.306
94382SOL    HW184985  10.860   6.306   8.379
94382SOL    HW284986  11.008   6.316   8.347
94383SOL     OW84987   3.144  12.764   6.309
94383SOL    HW184988   3.159  12.699   6.378
94383SOL    HW284989   3.058  12.741   6.274
94384SOL     OW84990  14.300   1.917   9.298
94384SOL    HW184991  14.291   2.007   9.267
94384SOL    HW284992  14.355   1.924   9.376
94385SOL     OW84993   7.838  14.870   5.016
94385SOL    HW184994   7.768   0.033   5.069
94385SOL    HW284995   7.815  14.777   5.007
94386SOL     OW84996   9.752  10.360   6.970
94386SOL    HW184997   9.778  10.279   6.926
94386SOL    HW284998   9.675  10.335   7.022
94387SOL     OW84999  12.990   1.907   5.292
94387SOL    HW185000  13.062   1.970   5.294
94387SOL    HW285001  12.929   1.939   5.358
94388SOL     OW85002   2.980   7.063   3.260
94388SOL    HW185003   2.950   7.152   3.242
94388SOL    HW285004   2.983   7.021   3.174
94389SOL     OW85005   2.909   3.803   5.102
94389SOL    HW185006   2.901   3.716   5.141
94389SOL    HW285007   2.915   3.863   5.176
94390SOL     OW85008   0.827   2.809   0.677
94390SOL    HW185009   0.910   2.805   0.630
94390SOL    HW285010   0.761   2.779   0.614
94391SOL     OW85011  13.342   2.379   4.073
94391SOL    HW185012  13.398   2.329   4.133
94391SOL    HW285013  13.403   2.430   4.019
94392SOL     OW85014   5.869   6.775   0.829
94392SOL    HW185015   5.922   6.726   0.892
94392SOL    HW285016   5.823   6.841   0.882
94393SOL     OW85017   0.591   8.572   3.624
94393SOL    HW185018   0.629   8.492   3.587
94393SOL    HW285019   0.551   8.617   3.550
94394SOL     OW85020   8.037  11.783   3.493
94394SOL    HW185021   7.968  11.820   3.549
94394SOL    HW285022   8.112  11.840   3.507
94395SOL     OW85023  10.356  10.005   4.604
94395SOL    HW185024  10.320  10.044   4.525
94395SOL    HW285025  10.279   9.976   4.654
94396SOL     OW85026   7.732  11.596  14.110
94396SOL    HW185027   7.658  11.560  14.160
94396SOL    HW285028   7.691  11.646  14.039
94397SOL     OW85029   0.027  12.385   3.792
94397SOL    HW185030  14.845  12.456   3.760
94397SOL    HW285031  14.852  12.305   3.771
94398SOL     OW85032   8.147   4.973   0.913
94398SOL    HW185033   8.205   5.044   0.941
94398SOL    HW285034   8.183   4.944   0.830
94399SOL     OW85035   3.552   9.962  13.857
94399SOL    HW185036   3.479   9.927  13.907
94399SOL    HW285037   3.576  10.043  13.902
94400SOL     OW85038   3.175   0.180  10.968
94400SOL    HW185039   3.243   0.204  11.031
94400SOL    HW285040   3.114   0.253  10.969
94401SOL     OW85041   3.998   2.136   4.917
94401SOL    HW185042   4.052   2.215   4.922
94401SOL    HW285043   4.034   2.087   4.844
94402SOL     OW85044   8.852   5.349   6.570
94402SOL    HW185045   8.835   5.358   6.663
94402SOL    HW285046   8.766   5.357   6.529
94403SOL     OW85047   8.900  10.882  11.037
94403SOL    HW185048   8.980  10.933  11.029
94403SOL    HW285049   8.920  10.798  10.995
94404SOL     OW85050   4.168   3.179   6.574
94404SOL    HW185051   4.108   3.104   6.570
94404SOL    HW285052   4.219   3.165   6.653
94405SOL     OW85053  14.525  13.154   0.005
94405SOL    HW185054  14.569  13.117   0.082
94405SOL    HW285055  14.460  13.215   0.042
94406SOL     OW85056  13.422   1.099   6.445
94406SOL    HW185057  13.476   1.164   6.399
94406SOL    HW285058  13.427   1.021   6.390
94407SOL     OW85059   1.154   2.167   9.200
94407SOL    HW185060   1.104   2.158   9.281
94407SOL    HW285061   1.091   2.148   9.130
94408SOL     OW85062   1.214   4.711   7.645
94408SOL    HW185063   1.166   4.782   7.687
94408SOL    HW285064   1.186   4.632   7.692
94409SOL     OW85065   2.304   3.654   0.986
94409SOL    HW185066   2.299   3.596   1.062
94409SOL    HW285067   2.379   3.623   0.936
94410SOL     OW85068  14.613   3.052  10.733
94410SOL    HW185069  14.610   3.147  10.720
94410SOL    HW285070  14.578   3.038  10.821
94411SOL     OW85071   4.911   9.439   4.209
94411SOL    HW185072   4.831   9.481   4.179
94411SOL    HW285073   4.884   9.350   4.232
94412SOL     OW85074   0.117   1.730  13.202
94412SOL    HW185075   0.022   1.735  13.191
94412SOL    HW285076   0.137   1.637  13.194
94413SOL     OW85077   5.775   7.334   0.432
94413SOL    HW185078   5.694   7.384   0.428
94413SOL    HW285079   5.747   7.242   0.432
94414SOL     OW85080   3.872   4.619   4.231
94414SOL    HW185081   3.926   4.540   4.230
94414SOL    HW285082   3.783   4.587   4.249
94415SOL     OW85083   2.849   5.615   1.664
94415SOL    HW185084   2.756   5.629   1.682
94415SOL    HW285085   2.850   5.567   1.581
94416SOL     OW85086   5.517   5.827   8.740
94416SOL    HW185087   5.449   5.875   8.691
94416SOL    HW285088   5.559   5.773   8.673
94417SOL     OW85089  10.587  13.165   2.373
94417SOL    HW185090  10.535  13.243   2.351
94417SOL    HW285091  10.529  13.091   2.353
94418SOL     OW85092   7.771   5.507  14.354
94418SOL    HW185093   7.777   5.443  14.282
94418SOL    HW285094   7.680   5.501  14.383
94419SOL     OW85095   9.313   5.710   8.651
94419SOL    HW185096   9.228   5.687   8.688
94419SOL    HW285097   9.352   5.626   8.627
94420SOL     OW85098  10.233   0.006  11.016
94420SOL    HW185099  10.145  14.845  11.025
94420SOL    HW285100  10.285  14.831  11.079
94421SOL     OW85101   6.422  10.089  11.242
94421SOL    HW185102   6.438  10.036  11.164
94421SOL    HW285103   6.358  10.155  11.214
94422SOL     OW85104  12.444  10.137   5.896
94422SOL    HW185105  12.463  10.222   5.936
94422SOL    HW285106  12.488  10.139   5.812
94423SOL     OW85107  14.586   3.758  14.252
94423SOL    HW185108  14.493   3.748  14.275
94423SOL    HW285109  14.633   3.723  14.327
94424SOL     OW85110   1.266   9.347   2.805
94424SOL    HW185111   1.326   9.302   2.865
94424SOL    HW285112   1.180   9.309   2.823
94425SOL     OW85113   8.807   5.831   8.794
94425SOL    HW185114   8.805   5.920   8.829
94425SOL    HW285115   8.720   5.820   8.754
94426SOL     OW85116   8.819   3.550  13.984
94426SOL    HW185117   8.857   3.567  13.897
94426SOL    HW285118   8.813   3.637  14.024
94427SOL     OW85119   5.310   6.900   6.402
94427SOL    HW185120   5.274   6.953   6.331
94427SOL    HW285121   5.248   6.828   6.412
94428SOL     OW85122  14.055  10.639   0.304
94428SOL    HW185123  13.987  10.666   0.242
94428SOL    HW285124  14.077  10.550   0.278
94429SOL     OW85125  14.666   0.210   6.618
94429SOL    HW185126  14.659   0.257   6.701
94429SOL    HW285127  14.579   0.218   6.579
94430SOL     OW85128  13.596  11.657  12.339
94430SOL    HW185129  13.622  11.731  12.394
94430SOL    HW285130  13.545  11.601  12.397
94431SOL     OW85131  12.404   0.621   7.987
94431SOL    HW185132  12.422   0.588   7.899
94431SOL    HW285133  12.473   0.685   8.003
94432SOL     OW85134  10.517   8.225  10.315
94432SOL    HW185135  10.607   8.199  10.337
94432SOL    HW285136  10.495   8.292  10.380
94433SOL     OW85137   0.154   7.938  12.696
94433SOL    HW185138   0.093   7.984  12.754
94433SOL    HW285139   0.240   7.971  12.719
94434SOL     OW85140  12.807   5.905  13.180
94434SOL    HW185141  12.766   5.991  13.189
94434SOL    HW285142  12.738   5.843  13.202
94435SOL     OW85143   3.850   4.742  14.244
94435SOL    HW185144   3.889   4.760  14.159
94435SOL    HW285145   3.756   4.757  14.231
94436SOL     OW85146   2.607  12.979   9.818
94436SOL    HW185147   2.648  13.043   9.761
94436SOL    HW285148   2.644  12.996   9.905
94437SOL     OW85149  10.305   1.004   6.678
94437SOL    HW185150  10.393   0.970   6.696
94437SOL    HW285151  10.284   1.056   6.756
94438SOL     OW85152   0.982  13.341   9.141
94438SOL    HW185153   0.920  13.375   9.206
94438SOL    HW285154   1.060  13.395   9.152
94439SOL     OW85155   2.823  12.719   5.097
94439SOL    HW185156   2.869  12.636   5.110
94439SOL    HW285157   2.856  12.776   5.165
94440SOL     OW85158   9.694   4.829  13.984
94440SOL    HW185159   9.642   4.860  13.909
94440SOL    HW285160   9.685   4.734  13.981
94441SOL     OW85161  12.821  12.029  12.318
94441SOL    HW185162  12.777  12.083  12.383
94441SOL    HW285163  12.777  11.944  12.323
94442SOL     OW85164   3.847   8.501  11.332
94442SOL    HW185165   3.853   8.473  11.240
94442SOL    HW285166   3.873   8.593  11.330
94443SOL     OW85167  12.955  12.769   7.125
94443SOL    HW185168  12.936  12.710   7.198
94443SOL    HW285169  12.951  12.857   7.163
94444SOL     OW85170   0.483  14.647   3.070
94444SOL    HW185171   0.536  14.726   3.076
94444SOL    HW285172   0.394  14.678   3.055
94445SOL     OW85173   2.369  11.813   6.518
94445SOL    HW185174   2.322  11.865   6.453
94445SOL    HW285175   2.403  11.877   6.580
94446SOL     OW85176   3.118  14.788   5.713
94446SOL    HW185177   3.200  14.739   5.714
94446SOL    HW285178   3.140  14.872   5.674
94447SOL     OW85179   2.306   1.780   3.594
94447SOL    HW185180   2.313   1.762   3.687
94447SOL    HW285181   2.226   1.832   3.585
94448SOL     OW85182   8.335  12.267  11.462
94448SOL    HW185183   8.383  12.267  11.545
94448SOL    HW285184   8.243  12.260  11.488
94449SOL     OW85185  12.971  10.874   4.195
94449SOL    HW185186  12.996  10.838   4.110
94449SOL    HW285187  12.878  10.856   4.202
94450SOL     OW85188   6.429   4.587  14.693
94450SOL    HW185189   6.435   4.554  14.603
94450SOL    HW285190   6.453   4.511  14.747
94451SOL     OW85191   8.426  10.403   9.970
94451SOL    HW185192   8.346  10.356   9.946
94451SOL    HW285193   8.497  10.352   9.931
94452SOL     OW85194   0.294   7.804   5.258
94452SOL    HW185195   0.300   7.713   5.286
94452SOL    HW285196   0.385   7.833   5.253
94453SOL     OW85197   5.501   1.090   5.822
94453SOL    HW185198   5.494   1.133   5.737
94453SOL    HW285199   5.594   1.093   5.843
94454SOL     OW85200   6.509   8.468   4.086
94454SOL    HW185201   6.476   8.379   4.100
94454SOL    HW285202   6.551   8.465   4.000
94455SOL     OW85203   2.139  11.603   3.365
94455SOL    HW185204   2.177  11.690   3.373
94455SOL    HW285205   2.137  11.569   3.455
94456SOL     OW85206  12.755   0.251   6.975
94456SOL    HW185207  12.814   0.176   6.983
94456SOL    HW285208  12.789   0.315   7.038
94457SOL     OW85209   6.800   7.884  12.900
94457SOL    HW185210   6.749   7.897  12.820
94457SOL    HW285211   6.742   7.915  12.970
94458SOL     OW85212   9.645  10.090   5.067
94458SOL    HW185213   9.572  10.078   5.128
94458SOL    HW285214   9.604  10.122   4.987
94459SOL     OW85215   8.966   4.946  12.375
94459SOL    HW185216   8.978   4.852  12.360
94459SOL    HW285217   8.992   4.986  12.293
94460SOL     OW85218   6.750   0.976  13.815
94460SOL    HW185219   6.713   1.064  13.808
94460SOL    HW285220   6.674   0.919  13.830
94461SOL     OW85221   8.795  13.779   4.091
94461SOL    HW185222   8.853  13.824   4.029
94461SOL    HW285223   8.805  13.686   4.070
94462SOL     OW85224   9.367   4.924  14.658
94462SOL    HW185225   9.299   4.987  14.679
94462SOL    HW285226   9.441   4.977  14.627
94463SOL     OW85227   6.076   9.656   1.752
94463SOL    HW185228   5.988   9.655   1.790
94463SOL    HW285229   6.080   9.738   1.703
94464SOL     OW85230   5.514   3.226  10.660
94464SOL    HW185231   5.560   3.144  10.641
94464SOL    HW285232   5.431   3.219  10.612
94465SOL     OW85233   6.426   8.921   6.524
94465SOL    HW185234   6.459   8.991   6.582
94465SOL    HW285235   6.500   8.901   6.467
94466SOL     OW85236  11.532  13.877   0.789
94466SOL    HW185237  11.457  13.935   0.774
94466SOL    HW285238  11.532  13.862   0.884
94467SOL     OW85239   2.960   2.247  12.345
94467SOL    HW185240   3.035   2.305  12.357
94467SOL    HW285241   2.954   2.198  12.427
94468SOL     OW85242   4.599   4.562   1.801
94468SOL    HW185243   4.524   4.505   1.820
94468SOL    HW285244   4.589   4.635   1.862
94469SOL     OW85245   5.111  13.005  13.489
94469SOL    HW185246   5.102  13.085  13.438
94469SOL    HW285247   5.036  12.951  13.462
94470SOL     OW85248   3.426   6.753  12.570
94470SOL    HW185249   3.476   6.825  12.530
94470SOL    HW285250   3.479   6.675  12.553
94471SOL     OW85251   0.629   7.960   4.813
94471SOL    HW185252   0.691   7.914   4.757
94471SOL    HW285253   0.563   7.993   4.752
94472SOL     OW85254  11.452   6.415  12.939
94472SOL    HW185255  11.486   6.391  13.026
94472SOL    HW285256  11.388   6.484  12.957
94473SOL     OW85257   7.726  14.181  12.037
94473SOL    HW185258   7.688  14.191  12.124
94473SOL    HW285259   7.820  14.170  12.053
94474SOL     OW85260   3.049  14.472  11.456
94474SOL    HW185261   3.038  14.541  11.390
94474SOL    HW285262   2.995  14.501  11.530
94475SOL     OW85263  12.564   7.684  12.361
94475SOL    HW185264  12.608   7.599  12.354
94475SOL    HW285265  12.566   7.719  12.272
94476SOL     OW85266   1.091   3.452   1.059
94476SOL    HW185267   1.149   3.427   1.131
94476SOL    HW285268   1.149   3.488   0.992
94477SOL     OW85269  13.510   5.360  13.648
94477SOL    HW185270  13.558   5.391  13.571
94477SOL    HW285271  13.421   5.391  13.636
94478SOL     OW85272  14.467   5.654   9.958
94478SOL    HW185273  14.519   5.664  10.037
94478SOL    HW285274  14.529   5.624   9.891
94479SOL     OW85275   1.764   9.817   8.746
94479SOL    HW185276   1.711   9.893   8.772
94479SOL    HW285277   1.854   9.847   8.756
94480SOL     OW85278   4.749   2.388   2.393
94480SOL    HW185279   4.779   2.424   2.309
94480SOL    HW285280   4.685   2.321   2.368
94481SOL     OW85281   3.571  11.167  11.749
94481SOL    HW185282   3.511  11.187  11.677
94481SOL    HW285283   3.656  11.201  11.719
94482SOL     OW85284   1.193  14.868  12.327
94482SOL    HW185285   1.112   0.024  12.368
94482SOL    HW285286   1.259   0.056  12.357
94483SOL     OW85287  13.449   2.661   0.127
94483SOL    HW185288  13.355   2.658   0.149
94483SOL    HW285289  13.475   2.570   0.120
94484SOL     OW85290   1.308   0.180   7.303
94484SOL    HW185291   1.332   0.137   7.385
94484SOL    HW285292   1.327   0.114   7.236
94485SOL     OW85293   0.875   6.800  13.074
94485SOL    HW185294   0.969   6.815  13.087
94485SOL    HW285295   0.864   6.797  12.979
94486SOL     OW85296   7.295   4.732   1.929
94486SOL    HW185297   7.305   4.691   2.015
94486SOL    HW285298   7.320   4.663   1.867
94487SOL     OW85299   5.129   4.021   4.408
94487SOL    HW185300   5.120   4.074   4.329
94487SOL    HW285301   5.201   4.060   4.456
94488SOL     OW85302   6.701  11.967   1.977
94488SOL    HW185303   6.744  11.882   1.987
94488SOL    HW285304   6.741  12.023   2.044
94489SOL     OW85305   4.708  11.561   3.492
94489SOL    HW185306   4.752  11.609   3.423
94489SOL    HW285307   4.616  11.588   3.486
94490SOL     OW85308  14.870   9.908   3.179
94490SOL    HW185309  14.780   9.941   3.172
94490SOL    HW285310  14.866   9.841   3.247
94491SOL     OW85311   4.208   7.275   4.447
94491SOL    HW185312   4.217   7.348   4.385
94491SOL    HW285313   4.277   7.289   4.511
94492SOL     OW85314   0.230   4.732  12.671
94492SOL    HW185315   0.310   4.680  12.664
94492SOL    HW285316   0.170   4.693  12.607
94493SOL     OW85317   4.399   1.696  13.808
94493SOL    HW185318   4.375   1.668  13.897
94493SOL    HW285319   4.327   1.664  13.754
94494SOL     OW85320  12.187  14.096  11.331
94494SOL    HW185321  12.209  14.065  11.419
94494SOL    HW285322  12.099  14.133  11.340
94495SOL     OW85323  11.226   2.326   6.771
94495SOL    HW185324  11.179   2.244   6.786
94495SOL    HW285325  11.238   2.330   6.677
94496SOL     OW85326   5.417   1.838   8.942
94496SOL    HW185327   5.432   1.753   8.902
94496SOL    HW285328   5.424   1.822   9.036
94497SOL     OW85329   6.099   2.431  10.413
94497SOL    HW185330   6.084   2.429  10.507
94497SOL    HW285331   6.080   2.341  10.384
94498SOL     OW85332  11.324  13.117   4.251
94498SOL    HW185333  11.286  13.196   4.212
94498SOL    HW285334  11.326  13.054   4.179
94499SOL     OW85335  10.653   9.579   0.688
94499SOL    HW185336  10.709   9.512   0.727
94499SOL    HW285337  10.657   9.652   0.750
94500SOL     OW85338  11.279  12.011   9.680
94500SOL    HW185339  11.267  11.971   9.594
94500SOL    HW285340  11.372  12.036   9.681
94501SOL     OW85341  12.981   8.942   5.802
94501SOL    HW185342  12.927   8.891   5.863
94501SOL    HW285343  12.952   9.033   5.814
94502SOL     OW85344   5.938   5.155   5.116
94502SOL    HW185345   5.929   5.132   5.024
94502SOL    HW285346   5.999   5.229   5.117
94503SOL     OW85347   4.126   3.554   2.898
94503SOL    HW185348   4.126   3.639   2.942
94503SOL    HW285349   4.165   3.494   2.961
94504SOL     OW85350   2.897   9.816   3.873
94504SOL    HW185351   2.916   9.883   3.807
94504SOL    HW285352   2.849   9.863   3.941
94505SOL     OW85353  13.399   1.423   9.247
94505SOL    HW185354  13.315   1.386   9.222
94505SOL    HW285355  13.386   1.518   9.243
94506SOL     OW85356   4.791  12.408   9.896
94506SOL    HW185357   4.706  12.405   9.852
94506SOL    HW285358   4.775  12.373   9.983
94507SOL     OW85359   0.953   4.423   8.405
94507SOL    HW185360   1.015   4.408   8.333
94507SOL    HW285361   0.996   4.387   8.482
94508SOL     OW85362   5.793   0.249  12.489
94508SOL    HW185363   5.712   0.208  12.457
94508SOL    HW285364   5.774   0.343  12.488
94509SOL     OW85365  14.669  10.026   0.646
94509SOL    HW185366  14.743  10.074   0.683
94509SOL    HW285367  14.680  10.035   0.551
94510SOL     OW85368  12.868  13.271  11.477
94510SOL    HW185369  12.924  13.340  11.511
94510SOL    HW285370  12.920  13.228  11.409
94511SOL     OW85371  11.961   1.129   4.640
94511SOL    HW185372  11.938   1.087   4.722
94511SOL    HW285373  12.047   1.167   4.655
94512SOL     OW85374   8.292  10.756   0.869
94512SOL    HW185375   8.380  10.731   0.840
94512SOL    HW285376   8.292  10.852   0.863
94513SOL     OW85377   0.549  11.916   6.048
94513SOL    HW185378   0.643  11.936   6.046
94513SOL    HW285379   0.545  11.823   6.073
94514SOL     OW85380   0.607   3.970   8.177
94514SOL    HW185381   0.543   3.988   8.108
94514SOL    HW285382   0.655   4.053   8.187
94515SOL     OW85383  11.742   5.725   1.697
94515SOL    HW185384  11.782   5.639   1.706
94515SOL    HW285385  11.663   5.710   1.645
94516SOL     OW85386  12.779  10.037   5.581
94516SOL    HW185387  12.858  10.014   5.532
94516SOL    HW285388  12.787   9.986   5.663
94517SOL     OW85389  10.100   2.036   0.406
94517SOL    HW185390  10.092   1.968   0.473
94517SOL    HW285391  10.070   1.995   0.326
94518SOL     OW85392   8.312   2.126   3.715
94518SOL    HW185393   8.366   2.180   3.657
94518SOL    HW285394   8.273   2.060   3.658
94519SOL     OW85395  10.506   2.153   1.740
94519SOL    HW185396  10.439   2.158   1.808
94519SOL    HW285397  10.479   2.218   1.675
94520SOL     OW85398   3.299  13.758   4.555
94520SOL    HW185399   3.344  13.801   4.483
94520SOL    HW285400   3.368  13.738   4.618
94521SOL     OW85401   7.465   5.932   3.060
94521SOL    HW185402   7.501   5.919   2.972
94521SOL    HW285403   7.478   6.025   3.078
94522SOL     OW85404   4.550   8.339   0.036
94522SOL    HW185405   4.528   8.381   0.119
94522SOL    HW285406   4.608   8.400  14.866
94523SOL     OW85407   6.972  12.215   8.330
94523SOL    HW185408   6.999  12.179   8.246
94523SOL    HW285409   7.032  12.176   8.394
94524SOL     OW85410  14.816   9.454  13.469
94524SOL    HW185411  14.748   9.499  13.420
94524SOL    HW285412  14.835   9.512  13.543
94525SOL     OW85413  10.641   6.621   5.750
94525SOL    HW185414  10.595   6.575   5.680
94525SOL    HW285415  10.574   6.674   5.793
94526SOL     OW85416  10.941  11.983  10.830
94526SOL    HW185417  11.031  11.954  10.842
94526SOL    HW285418  10.915  12.019  10.915
94527SOL     OW85419  12.700   9.718  14.612
94527SOL    HW185420  12.631   9.765  14.660
94527SOL    HW285421  12.662   9.632  14.594
94528SOL     OW85422  12.129  12.849   8.961
94528SOL    HW185423  12.037  12.824   8.956
94528SOL    HW285424  12.165  12.795   9.031
94529SOL     OW85425  14.208  13.638   8.201
94529SOL    HW185426  14.228  13.555   8.158
94529SOL    HW285427  14.160  13.688   8.135
94530SOL     OW85428   0.226   5.429   6.766
94530SOL    HW185429   0.158   5.419   6.699
94530SOL    HW285430   0.208   5.360   6.829
94531SOL     OW85431   3.242   6.658   2.964
94531SOL    HW185432   3.274   6.619   2.882
94531SOL    HW285433   3.298   6.619   3.032
94532SOL     OW85434  14.816  13.559  13.927
94532SOL    HW185435  14.798  13.619  13.855
94532SOL    HW285436  14.870  13.610  13.988
94533SOL     OW85437   5.123  12.792   3.678
94533SOL    HW185438   5.073  12.723   3.633
94533SOL    HW285439   5.083  12.874   3.647
94534SOL     OW85440   5.523   6.003  12.145
94534SOL    HW185441   5.463   5.936  12.179
94534SOL    HW285442   5.527   6.069  12.214
94535SOL     OW85443   3.383   2.350   0.646
94535SOL    HW185444   3.381   2.430   0.593
94535SOL    HW285445   3.400   2.280   0.582
94536SOL     OW85446   2.969  12.704   8.545
94536SOL    HW185447   3.041  12.674   8.600
94536SOL    HW285448   2.971  12.800   8.554
94537SOL     OW85449   5.539   2.136   0.591
94537SOL    HW185450   5.449   2.134   0.557
94537SOL    HW285451   5.541   2.067   0.657
94538SOL     OW85452   2.730  12.473   9.536
94538SOL    HW185453   2.734  12.513   9.449
94538SOL    HW285454   2.821  12.458   9.560
94539SOL     OW85455   4.231   4.195  13.111
94539SOL    HW185456   4.163   4.127  13.103
94539SOL    HW285457   4.298   4.155  13.166
94540SOL     OW85458   9.924   3.578  10.801
94540SOL    HW185459   9.846   3.587  10.747
94540SOL    HW285460   9.943   3.666  10.832
94541SOL     OW85461   7.453   0.754  13.552
94541SOL    HW185462   7.539   0.762  13.594
94541SOL    HW285463   7.457   0.672  13.504
94542SOL     OW85464   5.520  12.406   8.314
94542SOL    HW185465   5.606  12.393   8.354
94542SOL    HW285466   5.497  12.320   8.278
94543SOL     OW85467   2.243   0.180  14.317
94543SOL    HW185468   2.190   0.118  14.368
94543SOL    HW285469   2.205   0.266  14.336
94544SOL     OW85470  11.800   2.200   0.196
94544SOL    HW185471  11.826   2.254   0.121
94544SOL    HW285472  11.746   2.131   0.159
94545SOL     OW85473   6.006  10.129  10.438
94545SOL    HW185474   6.007  10.167  10.526
94545SOL    HW285475   5.981  10.201  10.380
94546SOL     OW85476  13.911   2.620   5.844
94546SOL    HW185477  13.999   2.600   5.874
94546SOL    HW285478  13.858   2.621   5.923
94547SOL     OW85479   2.995  11.477   2.069
94547SOL    HW185480   2.925  11.446   2.012
94547SOL    HW285481   2.965  11.562   2.101
94548SOL     OW85482  11.346   1.274  13.231
94548SOL    HW185483  11.349   1.348  13.291
94548SOL    HW285484  11.437   1.262  13.203
94549SOL     OW85485  11.385   5.547   4.880
94549SOL    HW185486  11.300   5.577   4.847
94549SOL    HW285487  11.391   5.456   4.852
94550SOL     OW85488   0.105  13.652   5.886
94550SOL    HW185489   0.045  13.608   5.827
94550SOL    HW285490   0.192  13.635   5.849
94551SOL     OW85491   7.577  13.094   7.917
94551SOL    HW185492   7.606  13.121   7.830
94551SOL    HW285493   7.485  13.120   7.921
94552SOL     OW85494   4.102   2.858   0.856
94552SOL    HW185495   4.009   2.881   0.850
94552SOL    HW285496   4.145   2.938   0.886
94553SOL     OW85497  13.224   8.559   1.873
94553SOL    HW185498  13.237   8.495   1.943
94553SOL    HW285499  13.269   8.521   1.797
94554SOL     OW85500  13.756  10.127  13.418
94554SOL    HW185501  13.742  10.033  13.422
94554SOL    HW285502  13.680  10.161  13.370
94555SOL     OW85503   1.991  13.893   2.069
94555SOL    HW185504   1.968  13.833   2.140
94555SOL    HW285505   1.953  13.977   2.095
94556SOL     OW85506   9.207   2.804   7.326
94556SOL    HW185507   9.285   2.765   7.366
94556SOL    HW285508   9.221   2.794   7.232
94557SOL     OW85509   0.696  10.115   0.593
94557SOL    HW185510   0.650  10.122   0.510
94557SOL    HW285511   0.638  10.159   0.656
94558SOL     OW85512   3.183  11.553  12.085
94558SOL    HW185513   3.250  11.586  12.026
94558SOL    HW285514   3.146  11.633  12.126
94559SOL     OW85515   7.454  10.480  13.094
94559SOL    HW185516   7.429  10.462  13.185
94559SOL    HW285517   7.385  10.538  13.061
94560SOL     OW85518  14.089   7.414   3.084
94560SOL    HW185519  14.133   7.390   3.166
94560SOL    HW285520  14.019   7.349   3.074
94561SOL     OW85521   5.759  14.054   2.923
94561SOL    HW185522   5.780  13.991   2.854
94561SOL    HW285523   5.754  14.138   2.879
94562SOL     OW85524  10.163  12.389   0.252
94562SOL    HW185525  10.151  12.484   0.248
94562SOL    HW285526  10.258  12.377   0.254
94563SOL     OW85527  11.300  12.166   8.618
94563SOL    HW185528  11.219  12.133   8.579
94563SOL    HW285529  11.278  12.254   8.648
94564SOL     OW85530   4.574   2.793   2.783
94564SOL    HW185531   4.501   2.737   2.756
94564SOL    HW285532   4.623   2.738   2.845
94565SOL     OW85533  14.871  11.280   6.746
94565SOL    HW185534   0.010  11.342   6.817
94565SOL    HW285535   0.056  11.207   6.767
94566SOL     OW85536  13.774   7.535   2.764
94566SOL    HW185537  13.814   7.584   2.693
94566SOL    HW285538  13.743   7.602   2.826
94567SOL     OW85539  11.305  12.930   3.759
94567SOL    HW185540  11.221  12.884   3.759
94567SOL    HW285541  11.355  12.889   3.689
94568SOL     OW85542  14.344   1.676  10.867
94568SOL    HW185543  14.351   1.701  10.774
94568SOL    HW285544  14.435   1.662  10.894
94569SOL     OW85545   2.225   2.672   8.365
94569SOL    HW185546   2.139   2.682   8.323
94569SOL    HW285547   2.213   2.601   8.428
94570SOL     OW85548   1.248   8.994   7.636
94570SOL    HW185549   1.232   9.068   7.579
94570SOL    HW285550   1.198   8.922   7.598
94571SOL     OW85551   4.410  13.127   6.762
94571SOL    HW185552   4.425  13.124   6.667
94571SOL    HW285553   4.363  13.209   6.777
94572SOL     OW85554   4.388   5.661   4.332
94572SOL    HW185555   4.420   5.699   4.250
94572SOL    HW285556   4.437   5.705   4.401
94573SOL     OW85557   7.919   9.862   3.201
94573SOL    HW185558   7.947   9.816   3.279
94573SOL    HW285559   7.892   9.794   3.140
94574SOL     OW85560   2.313  13.054   3.657
94574SOL    HW185561   2.304  13.028   3.565
94574SOL    HW285562   2.365  12.985   3.697
94575SOL     OW85563   8.296   3.247  14.399
94575SOL    HW185564   8.308   3.202  14.316
94575SOL    HW285565   8.363   3.315  14.399
94576SOL     OW85566   9.739   7.663   3.038
94576SOL    HW185567   9.709   7.596   3.099
94576SOL    HW285568   9.810   7.621   2.989
94577SOL     OW85569  12.578  10.078   2.172
94577SOL    HW185570  12.580  10.125   2.089
94577SOL    HW285571  12.657  10.023   2.170
94578SOL     OW85572   4.110   1.860  12.173
94578SOL    HW185573   4.177   1.857  12.105
94578SOL    HW285574   4.106   1.952  12.199
94579SOL     OW85575   3.270  10.330   0.823
94579SOL    HW185576   3.256  10.291   0.737
94579SOL    HW285577   3.356  10.298   0.850
94580SOL     OW85578   1.705  10.779  13.953
94580SOL    HW185579   1.620  10.739  13.933
94580SOL    HW285580   1.750  10.714  14.007
94581SOL     OW85581   5.184  11.397   0.902
94581SOL    HW185582   5.251  11.436   0.845
94581SOL    HW285583   5.218  11.309   0.920
94582SOL     OW85584   4.461  10.098  11.803
94582SOL    HW185585   4.550  10.122  11.777
94582SOL    HW285586   4.473  10.033  11.873
94583SOL     OW85587   1.193   3.064   5.733
94583SOL    HW185588   1.271   3.012   5.755
94583SOL    HW285589   1.182   3.123   5.808
94584SOL     OW85590   3.762   7.316   9.957
94584SOL    HW185591   3.773   7.339  10.050
94584SOL    HW285592   3.845   7.276   9.933
94585SOL     OW85593   2.679   1.729   4.153
94585SOL    HW185594   2.594   1.684   4.151
94585SOL    HW285595   2.728   1.684   4.222
94586SOL     OW85596   1.797   4.257   7.799
94586SOL    HW185597   1.786   4.275   7.706
94586SOL    HW285598   1.803   4.162   7.806
94587SOL     OW85599  12.017  11.863   3.509
94587SOL    HW185600  11.955  11.927   3.475
94587SOL    HW285601  11.977  11.778   3.489
94588SOL     OW85602   7.351   0.897   4.060
94588SOL    HW185603   7.362   0.823   4.119
94588SOL    HW285604   7.368   0.974   4.114
94589SOL     OW85605   3.959   3.401  14.179
94589SOL    HW185606   4.031   3.355  14.135
94589SOL    HW285607   3.898   3.332  14.204
94590SOL     OW85608   7.682   0.494  12.587
94590SOL    HW185609   7.663   0.587  12.570
94590SOL    HW285610   7.773   0.493  12.617
94591SOL     OW85611   1.733   2.191   7.388
94591SOL    HW185612   1.813   2.168   7.341
94591SOL    HW285613   1.664   2.185   7.322
94592SOL     OW85614   8.318   8.774   0.874
94592SOL    HW185615   8.392   8.763   0.814
94592SOL    HW285616   8.241   8.769   0.818
94593SOL     OW85617  12.280  10.336   5.665
94593SOL    HW185618  12.279  10.336   5.760
94593SOL    HW285619  12.369  10.362   5.641
94594SOL     OW85620   8.268  12.437   3.554
94594SOL    HW185621   8.180  12.401   3.565
94594SOL    HW285622   8.325  12.360   3.551
94595SOL     OW85623   5.231   7.160   5.718
94595SOL    HW185624   5.287   7.089   5.686
94595SOL    HW285625   5.213   7.213   5.640
94596SOL     OW85626  12.983   1.073   5.791
94596SOL    HW185627  12.968   1.059   5.698
94596SOL    HW285628  12.901   1.110   5.824
94597SOL     OW85629  13.262  10.944  14.825
94597SOL    HW185630  13.259  10.855  14.859
94597SOL    HW285631  13.350  10.953  14.789
94598SOL     OW85632   9.526   7.957  12.267
94598SOL    HW185633   9.591   8.004  12.215
94598SOL    HW285634   9.445   7.962  12.215
94599SOL     OW85635   0.347   3.191  10.682
94599SOL    HW185636   0.402   3.144  10.744
94599SOL    HW285637   0.371   3.155  10.597
94600SOL     OW85638   3.062   1.619  13.506
94600SOL    HW185639   3.097   1.650  13.422
94600SOL    HW285640   2.967   1.623  13.494
94601SOL     OW85641   5.747   6.119   8.571
94601SOL    HW185642   5.837   6.094   8.593
94601SOL    HW285643   5.697   6.101   8.651
94602SOL     OW85644  11.205  10.957  12.821
94602SOL    HW185645  11.136  10.901  12.784
94602SOL    HW285646  11.286  10.908  12.808
94603SOL     OW85647   8.395   9.702   6.863
94603SOL    HW185648   8.383   9.793   6.891
94603SOL    HW285649   8.316   9.682   6.812
94604SOL     OW85650   4.021   7.325   1.875
94604SOL    HW185651   3.974   7.256   1.922
94604SOL    HW285652   3.956   7.395   1.864
94605SOL     OW85653   8.892   0.663   2.301
94605SOL    HW185654   8.898   0.730   2.232
94605SOL    HW285655   8.951   0.594   2.271
94606SOL     OW85656   9.160   8.085  11.724
94606SOL    HW185657   9.181   8.061  11.634
94606SOL    HW285658   9.238   8.132  11.755
94607SOL     OW85659   9.078  14.082  10.205
94607SOL    HW185660   9.160  14.131  10.213
94607SOL    HW285661   9.092  14.005  10.261
94608SOL     OW85662   8.321  10.501   4.093
94608SOL    HW185663   8.350  10.416   4.061
94608SOL    HW285664   8.395  10.560   4.075
94609SOL     OW85665   2.889   1.198   8.661
94609SOL    HW185666   2.954   1.133   8.634
94609SOL    HW285667   2.832   1.208   8.585
94610SOL     OW85668   7.143  10.375   0.385
94610SOL    HW185669   7.207  10.435   0.346
94610SOL    HW285670   7.102  10.332   0.311
94611SOL     OW85671   4.300  13.424  12.289
94611SOL    HW185672   4.238  13.352  12.304
94611SOL    HW285673   4.260  13.499  12.332
94612SOL     OW85674   3.635   0.036   3.947
94612SOL    HW185675   3.579   0.071   3.878
94612SOL    HW285676   3.723   0.066   3.923
94613SOL     OW85677   4.785  10.504   3.382
94613SOL    HW185678   4.844  10.436   3.414
94613SOL    HW285679   4.737  10.533   3.460
94614SOL     OW85680   2.986   3.140  12.530
94614SOL    HW185681   2.915   3.168  12.472
94614SOL    HW285682   3.039   3.081  12.476
94615SOL     OW85683   5.135   6.343   0.228
94615SOL    HW185684   5.098   6.276   0.171
94615SOL    HW285685   5.216   6.369   0.185
94616SOL     OW85686  13.965   2.442  13.694
94616SOL    HW185687  14.032   2.491  13.742
94616SOL    HW285688  13.983   2.350  13.715
94617SOL     OW85689   0.315   1.782   7.000
94617SOL    HW185690   0.232   1.795   7.046
94617SOL    HW285691   0.381   1.783   7.069
94618SOL     OW85692   5.544  12.997  10.377
94618SOL    HW185693   5.506  12.997  10.464
94618SOL    HW285694   5.508  13.075  10.335
94619SOL     OW85695   6.160   9.632   3.577
94619SOL    HW185696   6.094   9.592   3.633
94619SOL    HW285697   6.127   9.619   3.488
94620SOL     OW85698   4.592   1.895   3.428
94620SOL    HW185699   4.535   1.938   3.491
94620SOL    HW285700   4.563   1.928   3.343
94621SOL     OW85701   4.914   9.034  14.620
94621SOL    HW185702   4.912   8.943  14.592
94621SOL    HW285703   4.881   9.083  14.544
94622SOL     OW85704   4.005   6.055   7.284
94622SOL    HW185705   3.967   6.056   7.196
94622SOL    HW285706   3.952   6.117   7.334
94623SOL     OW85707   2.963  14.416  14.009
94623SOL    HW185708   2.972  14.496  14.061
94623SOL    HW285709   2.869  14.401  14.004
94624SOL     OW85710   7.730  11.487   9.831
94624SOL    HW185711   7.795  11.483   9.902
94624SOL    HW285712   7.651  11.450   9.869
94625SOL     OW85713   9.046   1.638   4.173
94625SOL    HW185714   8.958   1.665   4.149
94625SOL    HW285715   9.033   1.573   4.242
94626SOL     OW85716   7.340  10.037   1.374
94626SOL    HW185717   7.264  10.088   1.403
94626SOL    HW285718   7.307   9.947   1.368
94627SOL     OW85719  14.596   5.245   3.937
94627SOL    HW185720  14.533   5.317   3.927
94627SOL    HW285721  14.676   5.276   3.896
94628SOL     OW85722   2.909   2.293  14.148
94628SOL    HW185723   2.840   2.273  14.211
94628SOL    HW285724   2.865   2.286  14.063
94629SOL     OW85725   9.900   2.407  13.870
94629SOL    HW185726   9.996   2.407  13.875
94629SOL    HW285727   9.872   2.400  13.962
94630SOL     OW85728   7.323   1.136   3.898
94630SOL    HW185729   7.385   1.130   3.825
94630SOL    HW285730   7.331   1.052   3.943
94631SOL     OW85731   8.897   2.685   8.022
94631SOL    HW185732   8.888   2.678   7.927
94631SOL    HW285733   8.820   2.734   8.050
94632SOL     OW85734   0.419  10.930  11.820
94632SOL    HW185735   0.497  10.976  11.853
94632SOL    HW285736   0.442  10.907  11.730
94633SOL     OW85737   1.835  13.738  11.705
94633SOL    HW185738   1.818  13.699  11.619
94633SOL    HW285739   1.810  13.830  11.694
94634SOL     OW85740   8.482   7.478   3.038
94634SOL    HW185741   8.479   7.536   2.962
94634SOL    HW285742   8.397   7.434   3.038
94635SOL     OW85743   3.258  10.013   8.378
94635SOL    HW185744   3.339  10.035   8.332
94635SOL    HW285745   3.189  10.054   8.326
94636SOL     OW85746   5.137  11.314  13.838
94636SOL    HW185747   5.068  11.376  13.861
94636SOL    HW285748   5.219  11.362  13.853
94637SOL     OW85749  14.732  10.491   9.524
94637SOL    HW185750  14.817  10.449   9.514
94637SOL    HW285751  14.753  10.581   9.550
94638SOL     OW85752   6.002  12.375   6.336
94638SOL    HW185753   5.990  12.337   6.423
94638SOL    HW285754   6.083  12.335   6.304
94639SOL     OW85755  11.647   3.710   4.411
94639SOL    HW185756  11.594   3.706   4.331
94639SOL    HW285757  11.690   3.796   4.406
94640SOL     OW85758  10.366  12.026   6.466
94640SOL    HW185759  10.432  11.962   6.437
94640SOL    HW285760  10.283  11.991   6.434
94641SOL     OW85761  13.467  10.630   8.677
94641SOL    HW185762  13.411  10.573   8.730
94641SOL    HW285763  13.556  10.600   8.695
94642SOL     OW85764  10.683  11.698   1.972
94642SOL    HW185765  10.748  11.632   1.996
94642SOL    HW285766  10.611  11.647   1.934
94643SOL     OW85767   4.671   5.080   2.038
94643SOL    HW185768   4.581   5.048   2.044
94643SOL    HW285769   4.675   5.127   1.955
94644SOL     OW85770  11.549  12.697   2.194
94644SOL    HW185771  11.496  12.728   2.121
94644SOL    HW285772  11.614  12.766   2.208
94645SOL     OW85773   9.210  11.299   0.405
94645SOL    HW185774   9.190  11.237   0.335
94645SOL    HW285775   9.203  11.247   0.486
94646SOL     OW85776   1.966   7.872   2.225
94646SOL    HW185777   2.024   7.816   2.174
94646SOL    HW285778   2.010   7.881   2.310
94647SOL     OW85779  14.850   5.624   1.597
94647SOL    HW185780  14.841   5.719   1.604
94647SOL    HW285781  14.789   5.599   1.528
94648SOL     OW85782  10.695   5.888   9.549
94648SOL    HW185783  10.732   5.895   9.461
94648SOL    HW285784  10.694   5.794   9.567
94649SOL     OW85785  13.270   6.921  11.322
94649SOL    HW185786  13.263   6.826  11.325
94649SOL    HW285787  13.181   6.950  11.300
94650SOL     OW85788   0.080  11.471   8.551
94650SOL    HW185789   0.113  11.424   8.475
94650SOL    HW285790   0.157  11.484   8.607
94651SOL     OW85791   3.172   6.167  12.734
94651SOL    HW185792   3.141   6.078  12.717
94651SOL    HW285793   3.156   6.181  12.827
94652SOL     OW85794   8.598   9.813   2.549
94652SOL    HW185795   8.630   9.739   2.601
94652SOL    HW285796   8.532   9.854   2.604
94653SOL     OW85797  11.820   4.907   5.450
94653SOL    HW185798  11.825   4.812   5.440
94653SOL    HW285799  11.726   4.926   5.455
94654SOL     OW85800  12.666   7.080   0.432
94654SOL    HW185801  12.668   7.108   0.523
94654SOL    HW285802  12.601   7.010   0.430
94655SOL     OW85803   4.079  14.788   5.770
94655SOL    HW185804   4.100   0.005   5.748
94655SOL    HW285805   4.164  14.744   5.772
94656SOL     OW85806   7.217   3.323  12.731
94656SOL    HW185807   7.269   3.402  12.745
94656SOL    HW285808   7.252   3.260  12.794
94657SOL     OW85809  13.073   3.880  13.189
94657SOL    HW185810  13.068   3.873  13.094
94657SOL    HW285811  13.151   3.933  13.205
94658SOL     OW85812   5.459   5.260   4.389
94658SOL    HW185813   5.394   5.239   4.322
94658SOL    HW285814   5.538   5.283   4.341
94659SOL     OW85815  14.402  12.558   9.375
94659SOL    HW185816  14.451  12.639   9.389
94659SOL    HW285817  14.460  12.489   9.407
94660SOL     OW85818   8.089   3.879  11.870
94660SOL    HW185819   8.093   3.928  11.952
94660SOL    HW285820   8.167   3.908  11.821
94661SOL     OW85821  11.500   8.362   3.528
94661SOL    HW185822  11.567   8.430   3.538
94661SOL    HW285823  11.543   8.294   3.477
94662SOL     OW85824   0.153  12.968  14.842
94662SOL    HW185825   0.129  13.055   0.001
94662SOL    HW285826   0.231  12.944   0.019
94663SOL     OW85827  13.541   7.910  11.699
94663SOL    HW185828  13.547   7.866  11.615
94663SOL    HW285829  13.447   7.924  11.712
94664SOL     OW85830   6.725  12.664   6.250
94664SOL    HW185831   6.636  12.662   6.283
94664SOL    HW285832   6.715  12.677   6.155
94665SOL     OW85833   0.425   9.421   0.372
94665SOL    HW185834   0.401   9.491   0.311
94665SOL    HW285835   0.520   9.428   0.380
94666SOL     OW85836   7.114  10.645   6.822
94666SOL    HW185837   7.032  10.596   6.816
94666SOL    HW285838   7.182  10.577   6.830
94667SOL     OW85839   2.861   6.213  12.922
94667SOL    HW185840   2.955   6.233  12.918
94667SOL    HW285841   2.857   6.118  12.936
94668SOL     OW85842  11.140  13.825   7.395
94668SOL    HW185843  11.139  13.833   7.300
94668SOL    HW285844  11.141  13.916   7.426
94669SOL     OW85845   3.163   1.223   1.331
94669SOL    HW185846   3.211   1.175   1.264
94669SOL    HW285847   3.072   1.223   1.301
94670SOL     OW85848   0.127   0.471   1.323
94670SOL    HW185849   0.145   0.428   1.239
94670SOL    HW285850   0.032   0.468   1.332
94671SOL     OW85851   3.099   2.275   3.160
94671SOL    HW185852   3.049   2.195   3.176
94671SOL    HW285853   3.032   2.342   3.147
94672SOL     OW85854   0.614   7.557   4.020
94672SOL    HW185855   0.706   7.541   4.000
94672SOL    HW285856   0.596   7.503   4.097
94673SOL     OW85857   0.748   5.589   0.851
94673SOL    HW185858   0.835   5.625   0.832
94673SOL    HW285859   0.690   5.665   0.847
94674SOL     OW85860  11.900   2.484   0.929
94674SOL    HW185861  11.868   2.418   0.992
94674SOL    HW285862  11.987   2.453   0.905
94675SOL     OW85863   2.658  13.379  12.647
94675SOL    HW185864   2.562  13.378  12.646
94675SOL    HW285865   2.683  13.385  12.555
94676SOL     OW85866   3.588   4.872   4.315
94676SOL    HW185867   3.581   4.813   4.240
94676SOL    HW285868   3.504   4.863   4.360
94677SOL     OW85869  13.959   3.749   4.257
94677SOL    HW185870  14.022   3.777   4.323
94677SOL    HW285871  14.013   3.717   4.184
94678SOL     OW85872  14.684   1.072  10.342
94678SOL    HW185873  14.702   1.152  10.293
94678SOL    HW285874  14.595   1.085  10.377
94679SOL     OW85875   6.944   6.762   8.803
94679SOL    HW185876   6.907   6.831   8.748
94679SOL    HW285877   7.006   6.717   8.746
94680SOL     OW85878   0.558  14.759   6.020
94680SOL    HW185879   0.616  14.694   5.978
94680SOL    HW285880   0.611  14.796   6.090
94681SOL     OW85881   4.753   1.835   8.458
94681SOL    HW185882   4.738   1.902   8.391
94681SOL    HW285883   4.688   1.768   8.440
94682SOL     OW85884   5.668   6.357   8.675
94682SOL    HW185885   5.756   6.390   8.658
94682SOL    HW285886   5.667   6.270   8.634
94683SOL     OW85887   9.935   5.898   0.821
94683SOL    HW185888   9.941   5.879   0.727
94683SOL    HW285889   9.867   5.839   0.853
94684SOL     OW85890   1.358  14.089   7.311
94684SOL    HW185891   1.438  14.107   7.360
94684SOL    HW285892   1.355  14.156   7.243
94685SOL     OW85893  11.744  13.793  11.996
94685SOL    HW185894  11.796  13.834  12.065
94685SOL    HW285895  11.710  13.713  12.035
94686SOL     OW85896   8.056  13.000  10.456
94686SOL    HW185897   8.113  13.067  10.493
94686SOL    HW285898   8.033  13.032  10.369
94687SOL     OW85899   3.429   4.330   2.876
94687SOL    HW185900   3.339   4.320   2.847
94687SOL    HW285901   3.433   4.283   2.959
94688SOL     OW85902   0.571   3.811   9.831
94688SOL    HW185903   0.616   3.879   9.782
94688SOL    HW285904   0.636   3.778   9.892
94689SOL     OW85905   7.734   3.312   9.150
94689SOL    HW185906   7.690   3.311   9.065
94689SOL    HW285907   7.813   3.260   9.137
94690SOL     OW85908   7.363   7.727   6.179
94690SOL    HW185909   7.307   7.801   6.201
94690SOL    HW285910   7.439   7.766   6.137
94691SOL     OW85911  10.891   0.635  13.071
94691SOL    HW185912  10.798   0.625  13.093
94691SOL    HW285913  10.929   0.680  13.147
94692SOL     OW85914   6.143   3.583   5.177
94692SOL    HW185915   6.052   3.561   5.193
94692SOL    HW285916   6.188   3.559   5.258
94693SOL     OW85917   8.307   5.027  13.023
94693SOL    HW185918   8.378   5.054  12.965
94693SOL    HW285919   8.232   5.012  12.965
94694SOL     OW85920   1.498   4.143   5.562
94694SOL    HW185921   1.524   4.101   5.480
94694SOL    HW285922   1.580   4.178   5.598
94695SOL     OW85923   5.750   5.316  10.385
94695SOL    HW185924   5.812   5.374  10.341
94695SOL    HW285925   5.668   5.326  10.336
94696SOL     OW85926  12.793   6.504   0.933
94696SOL    HW185927  12.712   6.490   0.885
94696SOL    HW285928  12.772   6.480   1.023
94697SOL     OW85929   4.318   9.487   9.681
94697SOL    HW185930   4.293   9.556   9.619
94697SOL    HW285931   4.257   9.415   9.663
94698SOL     OW85932   5.038   9.465   2.837
94698SOL    HW185933   5.019   9.458   2.930
94698SOL    HW285934   5.053   9.375   2.808
94699SOL     OW85935  10.439   1.845  10.134
94699SOL    HW185936  10.344   1.838  10.129
94699SOL    HW285937  10.456   1.874  10.224
94700SOL     OW85938  10.055   9.186  12.508
94700SOL    HW185939  10.135   9.237  12.514
94700SOL    HW285940  10.044   9.170  12.414
94701SOL     OW85941   5.801   3.671   5.626
94701SOL    HW185942   5.808   3.702   5.536
94701SOL    HW285943   5.831   3.744   5.679
94702SOL     OW85944  12.263  11.284  11.125
94702SOL    HW185945  12.311  11.203  11.140
94702SOL    HW285946  12.216  11.268  11.043
94703SOL     OW85947   8.195   7.425   5.877
94703SOL    HW185948   8.158   7.360   5.935
94703SOL    HW285949   8.194   7.384   5.790
94704SOL     OW85950   6.433  12.526   6.012
94704SOL    HW185951   6.489  12.464   6.059
94704SOL    HW285952   6.401  12.477   5.936
94705SOL     OW85953   9.373   9.691   2.538
94705SOL    HW185954   9.354   9.728   2.624
94705SOL    HW285955   9.424   9.759   2.493
94706SOL     OW85956   4.878   1.896   9.236
94706SOL    HW185957   4.887   1.987   9.210
94706SOL    HW285958   4.825   1.856   9.167
94707SOL     OW85959   8.433   4.091  12.488
94707SOL    HW185960   8.373   4.028  12.530
94707SOL    HW285961   8.399   4.177  12.512
94708SOL     OW85962   6.844   0.561  11.062
94708SOL    HW185963   6.769   0.535  11.010
94708SOL    HW285964   6.851   0.656  11.049
94709SOL     OW85965   7.038   6.437  11.229
94709SOL    HW185966   7.021   6.385  11.150
94709SOL    HW285967   7.059   6.525  11.196
94710SOL     OW85968   5.000  11.118   1.065
94710SOL    HW185969   4.947  11.114   0.986
94710SOL    HW285970   4.951  11.175   1.124
94711SOL     OW85971   4.601   5.366  12.642
94711SOL    HW185972   4.509   5.377  12.664
94711SOL    HW285973   4.648   5.412  12.712
94712SOL     OW85974   4.095  14.601   1.105
94712SOL    HW185975   4.180  14.624   1.144
94712SOL    HW285976   4.054  14.685   1.086
94713SOL     OW85977  13.890  11.787  11.382
94713SOL    HW185978  13.977  11.753  11.359
94713SOL    HW285979  13.856  11.725  11.446
94714SOL     OW85980  10.305   7.697  13.312
94714SOL    HW185981  10.366   7.625  13.296
94714SOL    HW285982  10.225   7.672  13.265
94715SOL     OW85983   5.906   5.477   7.953
94715SOL    HW185984   5.898   5.509   7.863
94715SOL    HW285985   5.974   5.410   7.949
94716SOL     OW85986   0.589  14.325   1.037
94716SOL    HW185987   0.537  14.298   0.961
94716SOL    HW285988   0.528  14.322   1.111
94717SOL     OW85989   7.204  12.118  11.953
94717SOL    HW185990   7.158  12.112  11.869
94717SOL    HW285991   7.267  12.188  11.942
94718SOL     OW85992  13.402   4.015  10.035
94718SOL    HW185993  13.428   4.099  10.072
94718SOL    HW285994  13.309   4.007  10.055
94719SOL     OW85995   3.692  12.524  12.200
94719SOL    HW185996   3.778  12.509  12.160
94719SOL    HW285997   3.657  12.436  12.213
94720SOL     OW85998   7.574   7.279   8.471
94720SOL    HW185999   7.562   7.233   8.554
94720SOL    HW286000   7.593   7.209   8.408
94721SOL     OW86001  12.670   2.183   3.695
94721SOL    HW186002  12.615   2.111   3.726
94721SOL    HW286003  12.675   2.171   3.600
94722SOL     OW86004   3.272   0.892   1.899
94722SOL    HW186005   3.235   0.815   1.855
94722SOL    HW286006   3.261   0.875   1.992
94723SOL     OW86007  12.219   1.397   4.552
94723SOL    HW186008  12.193   1.305   4.548
94723SOL    HW286009  12.299   1.398   4.604
94724SOL     OW86010   6.928   9.615  10.285
94724SOL    HW186011   6.902   9.592  10.195
94724SOL    HW286012   6.976   9.697  10.275
94725SOL     OW86013   3.377   6.634  11.874
94725SOL    HW186014   3.400   6.607  11.786
94725SOL    HW286015   3.443   6.700  11.897
94726SOL     OW86016  12.305  11.868   2.924
94726SOL    HW186017  12.317  11.774   2.909
94726SOL    HW286018  12.385  11.895   2.969
94727SOL     OW86019   0.869   9.051   4.916
94727SOL    HW186020   0.870   9.015   4.827
94727SOL    HW286021   0.956   9.034   4.950
94728SOL     OW86022  11.848  14.498   9.860
94728SOL    HW186023  11.861  14.589   9.887
94728SOL    HW286024  11.807  14.504   9.774
94729SOL     OW86025   3.994   8.257   2.402
94729SOL    HW186026   3.948   8.177   2.427
94729SOL    HW286027   3.984   8.315   2.477
94730SOL     OW86028   1.059   5.376   0.272
94730SOL    HW186029   1.134   5.363   0.330
94730SOL    HW286030   0.989   5.324   0.312
94731SOL     OW86031   7.389   2.041   9.551
94731SOL    HW186032   7.483   2.045   9.532
94731SOL    HW286033   7.366   2.131   9.575
94732SOL     OW86034   0.714   3.660   3.191
94732SOL    HW186035   0.767   3.737   3.214
94732SOL    HW286036   0.768   3.585   3.216
94733SOL     OW86037  10.660  10.533   3.707
94733SOL    HW186038  10.714  10.492   3.639
94733SOL    HW286039  10.673  10.479   3.785
94734SOL     OW86040   8.287  10.563  11.767
94734SOL    HW186041   8.293  10.658  11.778
94734SOL    HW286042   8.376  10.531  11.782
94735SOL     OW86043   9.190  12.097   0.611
94735SOL    HW186044   9.267  12.078   0.557
94735SOL    HW286045   9.133  12.149   0.554
94736SOL     OW86046   3.546   2.625   1.234
94736SOL    HW186047   3.471   2.598   1.287
94736SOL    HW286048   3.508   2.655   1.152
94737SOL     OW86049   8.897   8.926   0.110
94737SOL    HW186050   8.893   8.965   0.022
94737SOL    HW286051   8.922   8.835   0.094
94738SOL     OW86052   3.036  11.622   9.542
94738SOL    HW186053   2.941  11.609   9.547
94738SOL    HW286054   3.060  11.661   9.625
94739SOL     OW86055   6.557   4.902   4.659
94739SOL    HW186056   6.593   4.965   4.721
94739SOL    HW286057   6.466   4.891   4.687
94740SOL     OW86058   8.597  12.581  14.173
94740SOL    HW186059   8.585  12.494  14.136
94740SOL    HW286060   8.571  12.571  14.265
94741SOL     OW86061  10.056  12.330   9.299
94741SOL    HW186062  10.053  12.251   9.245
94741SOL    HW286063  10.126  12.382   9.261
94742SOL     OW86064   8.153  11.448  11.812
94742SOL    HW186065   8.110  11.362  11.815
94742SOL    HW286066   8.093  11.503  11.762
94743SOL     OW86067   7.081  10.657  14.632
94743SOL    HW186068   7.121  10.571  14.623
94743SOL    HW286069   7.060  10.664  14.726
94744SOL     OW86070   2.068   6.245   5.702
94744SOL    HW186071   2.089   6.178   5.637
94744SOL    HW286072   1.989   6.213   5.745
94745SOL     OW86073  12.307  12.014   6.138
94745SOL    HW186074  12.318  12.018   6.043
94745SOL    HW286075  12.356  11.937   6.165
94746SOL     OW86076   6.636   9.186   3.547
94746SOL    HW186077   6.618   9.190   3.641
94746SOL    HW286078   6.720   9.141   3.541
94747SOL     OW86079  13.912  14.779  14.441
94747SOL    HW186080  13.949  14.865  14.465
94747SOL    HW286081  13.830  14.775  14.489
94748SOL     OW86082   0.127   1.347  10.023
94748SOL    HW186083   0.180   1.427  10.026
94748SOL    HW286084   0.189   1.278  10.000
94749SOL     OW86085  12.822  13.283  14.231
94749SOL    HW186086  12.837  13.373  14.201
94749SOL    HW286087  12.747  13.289  14.289
94750SOL     OW86088   1.742  12.303  11.647
94750SOL    HW186089   1.822  12.353  11.664
94750SOL    HW286090   1.676  12.370  11.627
94751SOL     OW86091   6.482   5.310   1.114
94751SOL    HW186092   6.483   5.263   1.030
94751SOL    HW286093   6.437   5.392   1.095
94752SOL     OW86094   1.151   9.146  10.599
94752SOL    HW186095   1.242   9.119  10.612
94752SOL    HW286096   1.153   9.241  10.612
94753SOL     OW86097   3.744   3.339  11.401
94753SOL    HW186098   3.685   3.404  11.362
94753SOL    HW286099   3.743   3.359  11.495
94754SOL     OW86100   3.150   4.099   2.099
94754SOL    HW186101   3.126   4.112   2.191
94754SOL    HW286102   3.174   4.007   2.093
94755SOL     OW86103  11.495   9.573  14.241
94755SOL    HW186104  11.488   9.668  14.237
94755SOL    HW286105  11.586   9.554  14.218
94756SOL     OW86106   3.438   6.863   9.592
94756SOL    HW186107   3.459   6.866   9.685
94756SOL    HW286108   3.522   6.850   9.549
94757SOL     OW86109   6.417   4.021  10.032
94757SOL    HW186110   6.375   3.935  10.021
94757SOL    HW286111   6.350   4.083  10.002
94758SOL     OW86112   2.722   7.978   1.944
94758SOL    HW186113   2.689   7.984   1.854
94758SOL    HW286114   2.672   7.905   1.982
94759SOL     OW86115  14.621   3.576   5.550
94759SOL    HW186116  14.666   3.658   5.529
94759SOL    HW286117  14.666   3.544   5.628
94760SOL     OW86118   2.847  13.118   2.834
94760SOL    HW186119   2.904  13.175   2.885
94760SOL    HW286120   2.847  13.035   2.882
94761SOL     OW86121   0.847   0.316   6.101
94761SOL    HW186122   0.870   0.225   6.121
94761SOL    HW286123   0.766   0.310   6.051
94762SOL     OW86124  12.610   5.062   6.898
94762SOL    HW186125  12.578   5.148   6.924
94762SOL    HW286126  12.694   5.053   6.945
94763SOL     OW86127  14.439  12.724   0.769
94763SOL    HW186128  14.357  12.749   0.813
94763SOL    HW286129  14.507  12.766   0.821
94764SOL     OW86130   2.292  10.701   7.960
94764SOL    HW186131   2.387  10.706   7.971
94764SOL    HW286132   2.278  10.720   7.867
94765SOL     OW86133   6.217  14.534   4.148
94765SOL    HW186134   6.184  14.524   4.237
94765SOL    HW286135   6.303  14.494   4.150
94766SOL     OW86136   1.304   5.078   5.520
94766SOL    HW186137   1.390   5.039   5.538
94766SOL    HW286138   1.243   5.029   5.574
94767SOL     OW86139   4.920   6.120   0.996
94767SOL    HW186140   4.969   6.038   1.006
94767SOL    HW286141   4.979   6.187   1.028
94768SOL     OW86142  11.067   8.492   7.599
94768SOL    HW186143  10.974   8.483   7.578
94768SOL    HW286144  11.080   8.435   7.675
94769SOL     OW86145   5.592   4.599  14.341
94769SOL    HW186146   5.658   4.571  14.405
94769SOL    HW286147   5.635   4.590  14.256
94770SOL     OW86148   3.429  12.337   6.291
94770SOL    HW186149   3.378  12.293   6.359
94770SOL    HW286150   3.516  12.347   6.331
94771SOL     OW86151   4.975   5.878   5.499
94771SOL    HW186152   5.013   5.847   5.582
94771SOL    HW286153   5.006   5.968   5.490
94772SOL     OW86154  11.030   6.097  13.575
94772SOL    HW186155  10.970   6.024  13.593
94772SOL    HW286156  11.056   6.084  13.484
94773SOL     OW86157  10.336   6.999  12.436
94773SOL    HW186158  10.249   6.980  12.402
94773SOL    HW286159  10.359   6.922  12.489
94774SOL     OW86160   9.848   2.545   6.275
94774SOL    HW186161   9.789   2.542   6.199
94774SOL    HW286162   9.931   2.578   6.240
94775SOL     OW86163   2.291   4.480   2.614
94775SOL    HW186164   2.301   4.441   2.527
94775SOL    HW286165   2.356   4.550   2.616
94776SOL     OW86166   7.834  11.941   1.709
94776SOL    HW186167   7.751  11.950   1.663
94776SOL    HW286168   7.811  11.947   1.802
94777SOL     OW86169   7.894   2.085   6.705
94777SOL    HW186170   7.938   2.107   6.624
94777SOL    HW286171   7.870   2.169   6.744
94778SOL     OW86172  10.271  12.708   6.620
94778SOL    HW186173  10.314  12.637   6.572
94778SOL    HW286174  10.308  12.702   6.709
94779SOL     OW86175   6.853  12.376   1.396
94779SOL    HW186176   6.868  12.309   1.463
94779SOL    HW286177   6.940  12.392   1.359
94780SOL     OW86178   1.359   8.477   1.897
94780SOL    HW186179   1.390   8.431   1.819
94780SOL    HW286180   1.413   8.444   1.968
94781SOL     OW86181   6.567   3.557   5.185
94781SOL    HW186182   6.570   3.489   5.118
94781SOL    HW286183   6.560   3.639   5.135
94782SOL     OW86184   4.170   9.429  10.936
94782SOL    HW186185   4.113   9.480  10.878
94782SOL    HW286186   4.258   9.460  10.916
94783SOL     OW86187   3.525  14.350   0.994
94783SOL    HW186188   3.499  14.435   1.030
94783SOL    HW286189   3.603  14.369   0.942
94784SOL     OW86190   1.352   7.374   6.285
94784SOL    HW186191   1.341   7.455   6.236
94784SOL    HW286192   1.339   7.399   6.377
94785SOL     OW86193   3.454  12.879   6.319
94785SOL    HW186194   3.372  12.924   6.338
94785SOL    HW286195   3.513  12.949   6.292
94786SOL     OW86196  12.088   5.679   2.954
94786SOL    HW186197  11.998   5.685   2.988
94786SOL    HW286198  12.107   5.766   2.920
94787SOL     OW86199   6.224   1.425  13.431
94787SOL    HW186200   6.230   1.335  13.462
94787SOL    HW286201   6.131   1.446  13.434
94788SOL     OW86202   2.009  10.533   3.258
94788SOL    HW186203   2.015  10.446   3.217
94788SOL    HW286204   2.029  10.594   3.187
94789SOL     OW86205   1.192   6.541   8.468
94789SOL    HW186206   1.186   6.507   8.558
94789SOL    HW286207   1.203   6.462   8.414
94790SOL     OW86208   8.600   4.167   5.203
94790SOL    HW186209   8.644   4.117   5.135
94790SOL    HW286210   8.633   4.256   5.193
94791SOL     OW86211   1.153  12.825  10.071
94791SOL    HW186212   1.156  12.884  10.146
94791SOL    HW286213   1.065  12.836  10.035
94792SOL     OW86214  12.220   3.982  11.530
94792SOL    HW186215  12.125   3.975  11.530
94792SOL    HW286216  12.246   3.953  11.442
94793SOL     OW86217   1.090   2.992   9.477
94793SOL    HW186218   1.123   2.909   9.510
94793SOL    HW286219   0.999   2.973   9.452
94794SOL     OW86220   5.141   6.918   2.797
94794SOL    HW186221   5.193   6.840   2.818
94794SOL    HW286222   5.127   6.912   2.703
94795SOL     OW86223  10.655   5.588   1.097
94795SOL    HW186224  10.717   5.575   1.025
94795SOL    HW286225  10.640   5.501   1.132
94796SOL     OW86226   3.422   7.857   7.459
94796SOL    HW186227   3.497   7.824   7.508
94796SOL    HW286228   3.428   7.813   7.374
94797SOL     OW86229   5.362  10.329  13.156
94797SOL    HW186230   5.347  10.423  13.147
94797SOL    HW286231   5.414  10.305  13.079
94798SOL     OW86232   5.688   6.344   7.016
94798SOL    HW186233   5.736   6.327   6.935
94798SOL    HW286234   5.731   6.290   7.082
94799SOL     OW86235  12.456  10.747  10.887
94799SOL    HW186236  12.381  10.772  10.941
94799SOL    HW286237  12.493  10.671  10.932
94800SOL     OW86238   4.826   1.809   3.136
94800SOL    HW186239   4.848   1.902   3.132
94800SOL    HW286240   4.855   1.781   3.223
94801SOL     OW86241  14.633   0.358   8.232
94801SOL    HW186242  14.649   0.348   8.138
94801SOL    HW286243  14.584   0.279   8.256
94802SOL     OW86244  10.297   3.774  12.415
94802SOL    HW186245  10.318   3.709  12.483
94802SOL    HW286246  10.209   3.751  12.387
94803SOL     OW86247   4.976   6.581  12.768
94803SOL    HW186248   4.967   6.514  12.700
94803SOL    HW286249   5.007   6.534  12.845
94804SOL     OW86250   4.142  13.059  14.486
94804SOL    HW186251   4.091  13.073  14.566
94804SOL    HW286252   4.132  12.966  14.467
94805SOL     OW86253  12.871   9.814  14.794
94805SOL    HW186254  12.832   9.796  14.708
94805SOL    HW286255  12.957   9.851  14.775
94806SOL     OW86256  12.101   4.850  11.948
94806SOL    HW186257  12.101   4.766  11.903
94806SOL    HW286258  12.063   4.833  12.034
94807SOL     OW86259  13.493   4.633   2.335
94807SOL    HW186260  13.503   4.545   2.370
94807SOL    HW286261  13.453   4.683   2.407
94808SOL     OW86262   0.690   0.329   3.696
94808SOL    HW186263   0.688   0.346   3.790
94808SOL    HW286264   0.733   0.405   3.658
94809SOL     OW86265  14.632   1.318  10.219
94809SOL    HW186266  14.578   1.341  10.294
94809SOL    HW286267  14.655   1.402  10.178
94810SOL     OW86268  12.112  10.417  11.575
94810SOL    HW186269  12.032  10.471  11.576
94810SOL    HW286270  12.081  10.329  11.553
94811SOL     OW86271   4.959  11.703   3.631
94811SOL    HW186272   5.018  11.698   3.557
94811SOL    HW286273   4.916  11.618   3.633
94812SOL     OW86274   4.661   2.354  11.580
94812SOL    HW186275   4.608   2.326  11.654
94812SOL    HW286276   4.640   2.447  11.569
94813SOL     OW86277   1.632   4.103   8.119
94813SOL    HW186278   1.691   4.034   8.152
94813SOL    HW286279   1.650   4.178   8.175
94814SOL     OW86280   4.240   6.647  10.085
94814SOL    HW186281   4.241   6.659  10.180
94814SOL    HW286282   4.255   6.554  10.072
94815SOL     OW86283   0.180   8.814   2.091
94815SOL    HW186284   0.254   8.840   2.036
94815SOL    HW286285   0.181   8.876   2.163
94816SOL     OW86286   0.503  11.699  13.836
94816SOL    HW186287   0.520  11.769  13.773
94816SOL    HW286288   0.434  11.734  13.893
94817SOL     OW86289   5.013   1.808   0.939
94817SOL    HW186290   4.925   1.840   0.918
94817SOL    HW286291   5.006   1.713   0.936
94818SOL     OW86292   8.691   1.156   0.623
94818SOL    HW186293   8.773   1.113   0.647
94818SOL    HW286294   8.717   1.245   0.598
94819SOL     OW86295  12.236  10.251   4.335
94819SOL    HW186296  12.194  10.244   4.420
94819SOL    HW286297  12.326  10.222   4.349
94820SOL     OW86298   5.641   5.906  13.445
94820SOL    HW186299   5.695   5.834  13.478
94820SOL    HW286300   5.687   5.985  13.475
94821SOL     OW86301   6.323   3.569   0.484
94821SOL    HW186302   6.365   3.512   0.548
94821SOL    HW286303   6.377   3.648   0.482
94822SOL     OW86304   5.236   2.358   2.085
94822SOL    HW186305   5.225   2.359   1.990
94822SOL    HW286306   5.319   2.403   2.100
94823SOL     OW86307   6.175   6.127   7.791
94823SOL    HW186308   6.154   6.220   7.780
94823SOL    HW286309   6.120   6.081   7.728
94824SOL     OW86310   1.851  12.729  11.424
94824SOL    HW186311   1.846  12.655  11.364
94824SOL    HW286312   1.872  12.804  11.368
94825SOL     OW86313   5.530   2.753   4.287
94825SOL    HW186314   5.608   2.725   4.335
94825SOL    HW286315   5.564   2.808   4.216
94826SOL     OW86316  13.853  13.386   9.373
94826SOL    HW186317  13.885  13.432   9.450
94826SOL    HW286318  13.758  13.384   9.383
94827SOL     OW86319   4.765   9.181   6.515
94827SOL    HW186320   4.719   9.150   6.437
94827SOL    HW286321   4.698   9.229   6.564
94828SOL     OW86322  11.158  13.161   1.575
94828SOL    HW186323  11.197  13.220   1.640
94828SOL    HW286324  11.079  13.206   1.546
94829SOL     OW86325   8.233   9.168   6.627
94829SOL    HW186326   8.189   9.089   6.658
94829SOL    HW286327   8.178   9.198   6.554
94830SOL     OW86328   1.141   8.142  11.079
94830SOL    HW186329   1.147   8.156  11.174
94830SOL    HW286330   1.097   8.058  11.070
94831SOL     OW86331  13.815   0.891   8.796
94831SOL    HW186332  13.817   0.799   8.770
94831SOL    HW286333  13.727   0.921   8.773
94832SOL     OW86334   1.746  11.542  11.272
94832SOL    HW186335   1.762  11.584  11.187
94832SOL    HW286336   1.830  11.549  11.318
94833SOL     OW86337   1.625   4.426   3.510
94833SOL    HW186338   1.581   4.510   3.523
94833SOL    HW286339   1.650   4.427   3.417
94834SOL     OW86340   1.433  12.755   6.577
94834SOL    HW186341   1.429  12.741   6.482
94834SOL    HW286342   1.465  12.845   6.586
94835SOL     OW86343  14.251   2.833   5.966
94835SOL    HW186344  14.208   2.911   5.929
94835SOL    HW286345  14.258   2.772   5.892
94836SOL     OW86346   8.463   2.362   7.863
94836SOL    HW186347   8.510   2.292   7.908
94836SOL    HW286348   8.527   2.399   7.802
94837SOL     OW86349   5.696   4.097   3.385
94837SOL    HW186350   5.703   4.055   3.300
94837SOL    HW286351   5.783   4.089   3.424
94838SOL     OW86352  10.299   3.548  12.591
94838SOL    HW186353  10.225   3.589  12.636
94838SOL    HW286354  10.346   3.501  12.659
94839SOL     OW86355   4.691  11.498   9.950
94839SOL    HW186356   4.634  11.572   9.970
94839SOL    HW286357   4.681  11.439  10.025
94840SOL     OW86358  12.665  12.577  13.684
94840SOL    HW186359  12.643  12.610  13.771
94840SOL    HW286360  12.748  12.619  13.662
94841SOL     OW86361   4.519   1.299   1.404
94841SOL    HW186362   4.534   1.368   1.468
94841SOL    HW286363   4.423   1.297   1.394
94842SOL     OW86364  14.871   3.786  12.161
94842SOL    HW186365  14.786   3.829  12.168
94842SOL    HW286366  14.855   3.712  12.102
94843SOL     OW86367   8.032  12.986   7.290
94843SOL    HW186368   8.061  13.069   7.250
94843SOL    HW286369   7.973  12.948   7.226
94844SOL     OW86370   3.917   2.389   3.129
94844SOL    HW186371   3.968   2.315   3.097
94844SOL    HW286372   3.840   2.350   3.171
94845SOL     OW86373   7.330   2.458  12.725
94845SOL    HW186374   7.235   2.470  12.726
94845SOL    HW286375   7.354   2.464  12.633
94846SOL     OW86376   7.482  14.245  11.515
94846SOL    HW186377   7.471  14.158  11.479
94846SOL    HW286378   7.505  14.230  11.607
94847SOL     OW86379   1.477   8.474   9.054
94847SOL    HW186380   1.476   8.397   8.998
94847SOL    HW286381   1.563   8.513   9.042
94848SOL     OW86382   8.635   3.619  14.842
94848SOL    HW186383   8.630   3.533  14.800
94848SOL    HW286384   8.678   3.674  14.776
94849SOL     OW86385   6.603   7.046   8.463
94849SOL    HW186386   6.558   6.986   8.523
94849SOL    HW286387   6.578   7.133   8.492
94850SOL     OW86388   4.525   7.038   0.037
94850SOL    HW186389   4.507   7.072   0.125
94850SOL    HW286390   4.460   6.970   0.024
94851SOL     OW86391   6.917   5.172   9.262
94851SOL    HW186392   6.987   5.111   9.238
94851SOL    HW286393   6.839   5.116   9.271
94852SOL     OW86394  10.706  12.114   3.075
94852SOL    HW186395  10.688  12.207   3.091
94852SOL    HW286396  10.773  12.114   3.007
94853SOL     OW86397   6.157   9.897   1.661
94853SOL    HW186398   6.253   9.907   1.662
94853SOL    HW286399   6.127   9.954   1.732
94854SOL     OW86400  10.796   4.742  11.371
94854SOL    HW186401  10.847   4.801  11.315
94854SOL    HW286402  10.819   4.768  11.460
94855SOL     OW86403   9.539   8.198   8.058
94855SOL    HW186404   9.465   8.238   8.103
94855SOL    HW286405   9.582   8.144   8.125
94856SOL     OW86406   9.246  12.912  11.693
94856SOL    HW186407   9.264  13.003  11.673
94856SOL    HW286408   9.212  12.913  11.782
94857SOL     OW86409  14.209   1.277   8.574
94857SOL    HW186410  14.296   1.282   8.535
94857SOL    HW286411  14.155   1.335   8.520
94858SOL     OW86412   9.723   2.664   0.082
94858SOL    HW186413   9.811   2.686   0.110
94858SOL    HW286414   9.667   2.727   0.127
94859SOL     OW86415   0.919   7.364   7.171
94859SOL    HW186416   0.965   7.352   7.254
94859SOL    HW286417   0.845   7.420   7.193
94860SOL     OW86418  10.650  12.200  12.750
94860SOL    HW186419  10.718  12.183  12.685
94860SOL    HW286420  10.689  12.267  12.807
94861SOL     OW86421  12.647  10.818   0.523
94861SOL    HW186422  12.571  10.821   0.464
94861SOL    HW286423  12.663  10.909   0.546
94862SOL     OW86424  14.142  13.785   3.700
94862SOL    HW186425  14.226  13.793   3.745
94862SOL    HW286426  14.158  13.719   3.632
94863SOL     OW86427   5.391   2.267   1.396
94863SOL    HW186428   5.442   2.306   1.325
94863SOL    HW286429   5.313   2.322   1.403
94864SOL     OW86430   0.329   1.152   2.534
94864SOL    HW186431   0.349   1.064   2.566
94864SOL    HW286432   0.412   1.199   2.538
94865SOL     OW86433  10.561   1.324   8.318
94865SOL    HW186434  10.537   1.402   8.267
94865SOL    HW286435  10.656   1.332   8.330
94866SOL     OW86436   1.239   6.289  10.781
94866SOL    HW186437   1.255   6.295  10.686
94866SOL    HW286438   1.306   6.229  10.812
94867SOL     OW86439   5.538  10.714   8.610
94867SOL    HW186440   5.530  10.773   8.535
94867SOL    HW286441   5.595  10.761   8.672
94868SOL     OW86442   5.908   1.006   9.630
94868SOL    HW186443   5.992   1.051   9.642
94868SOL    HW286444   5.927   0.914   9.649
94869SOL     OW86445   3.313   2.435  12.602
94869SOL    HW186446   3.260   2.504  12.563
94869SOL    HW286447   3.253   2.390  12.662
94870SOL     OW86448  11.765   0.383   6.658
94870SOL    HW186449  11.846   0.343   6.628
94870SOL    HW286450  11.728   0.319   6.720
94871SOL     OW86451  14.799  10.008   4.653
94871SOL    HW186452  14.728   9.978   4.710
94871SOL    HW286453  14.756  10.028   4.570
94872SOL     OW86454  14.660   8.298   7.744
94872SOL    HW186455  14.673   8.245   7.823
94872SOL    HW286456  14.749   8.321   7.716
94873SOL     OW86457   5.682   2.979   5.510
94873SOL    HW186458   5.597   2.958   5.549
94873SOL    HW286459   5.684   2.929   5.428
94874SOL     OW86460  11.343  10.049   7.459
94874SOL    HW186461  11.308   9.960   7.465
94874SOL    HW286462  11.435  10.038   7.434
94875SOL     OW86463   8.825   2.481  12.109
94875SOL    HW186464   8.747   2.439  12.074
94875SOL    HW286465   8.805   2.575  12.105
94876SOL     OW86466   4.033   5.757   3.702
94876SOL    HW186467   3.954   5.705   3.710
94876SOL    HW286468   4.045   5.797   3.788
94877SOL     OW86469   5.545   5.010   2.492
94877SOL    HW186470   5.591   5.014   2.575
94877SOL    HW286471   5.600   5.059   2.431
94878SOL     OW86472  14.578   5.423   7.285
94878SOL    HW186473  14.672   5.445   7.286
94878SOL    HW286474  14.540   5.485   7.222
94879SOL     OW86475   0.105   1.739   5.190
94879SOL    HW186476   0.013   1.718   5.175
94879SOL    HW286477   0.153   1.661   5.161
94880SOL     OW86478   2.350  12.899  12.760
94880SOL    HW186479   2.445  12.899  12.770
94880SOL    HW286480   2.330  12.814  12.720
94881SOL     OW86481  10.146   3.641   4.690
94881SOL    HW186482  10.097   3.714   4.727
94881SOL    HW286483  10.199   3.681   4.621
94882SOL     OW86484   9.775   6.363  11.997
94882SOL    HW186485   9.809   6.291  11.944
94882SOL    HW286486   9.765   6.436  11.935
94883SOL     OW86487   6.384  11.400   1.204
94883SOL    HW186488   6.331  11.346   1.263
94883SOL    HW286489   6.404  11.478   1.255
94884SOL     OW86490   6.075  10.830  11.783
94884SOL    HW186491   6.137  10.848  11.853
94884SOL    HW286492   5.995  10.876  11.810
94885SOL     OW86493   9.510   0.545  12.403
94885SOL    HW186494   9.527   0.579  12.491
94885SOL    HW286495   9.560   0.602  12.345
94886SOL     OW86496   4.353   8.368   9.619
94886SOL    HW186497   4.320   8.280   9.639
94886SOL    HW286498   4.433   8.352   9.568
94887SOL     OW86499   5.731   7.127   7.909
94887SOL    HW186500   5.738   7.073   7.989
94887SOL    HW286501   5.640   7.155   7.907
94888SOL     OW86502   6.795  13.174  14.192
94888SOL    HW186503   6.792  13.128  14.108
94888SOL    HW286504   6.726  13.240  14.185
94889SOL     OW86505  13.788   0.051   0.935
94889SOL    HW186506  13.720   0.017   0.994
94889SOL    HW286507  13.831  14.846   0.902
94890SOL     OW86508   2.081  11.112   4.678
94890SOL    HW186509   2.051  11.034   4.724
94890SOL    HW286510   2.021  11.181   4.707
94891SOL     OW86511   1.556   5.743   9.856
94891SOL    HW186512   1.578   5.836   9.846
94891SOL    HW286513   1.604   5.715   9.934
94892SOL     OW86514   5.407  11.235   6.662
94892SOL    HW186515   5.499  11.215   6.677
94892SOL    HW286516   5.397  11.326   6.689
94893SOL     OW86517   5.317  14.332   1.702
94893SOL    HW186518   5.298  14.309   1.793
94893SOL    HW286519   5.366  14.257   1.668
94894SOL     OW86520  13.057   9.407   4.726
94894SOL    HW186521  13.095   9.472   4.667
94894SOL    HW286522  12.989   9.454   4.774
94895SOL     OW86523   3.008   8.585   5.594
94895SOL    HW186524   3.056   8.574   5.677
94895SOL    HW286525   3.029   8.506   5.544
94896SOL     OW86526   9.143   2.229   6.667
94896SOL    HW186527   9.117   2.321   6.655
94896SOL    HW286528   9.096   2.182   6.599
94897SOL     OW86529   9.582   5.664   2.058
94897SOL    HW186530   9.490   5.680   2.038
94897SOL    HW286531   9.602   5.581   2.015
94898SOL     OW86532   5.480   1.110   3.636
94898SOL    HW186533   5.451   1.201   3.637
94898SOL    HW286534   5.565   1.113   3.591
94899SOL     OW86535   1.168   7.795   4.854
94899SOL    HW186536   1.260   7.811   4.833
94899SOL    HW286537   1.163   7.700   4.869
94900SOL     OW86538   5.431   4.451   9.379
94900SOL    HW186539   5.505   4.412   9.426
94900SOL    HW286540   5.369   4.379   9.368
94901SOL     OW86541  10.201  14.710   8.900
94901SOL    HW186542  10.139  14.688   8.970
94901SOL    HW286543  10.160  14.785   8.855
94902SOL     OW86544   6.036   6.934  10.200
94902SOL    HW186545   5.990   7.017  10.211
94902SOL    HW286546   6.128   6.959  10.191
94903SOL     OW86547   6.573   3.025  13.366
94903SOL    HW186548   6.507   3.091  13.346
94903SOL    HW286549   6.550   2.994  13.453
94904SOL     OW86550  13.834  10.180   6.557
94904SOL    HW186551  13.752  10.222   6.582
94904SOL    HW286552  13.880  10.244   6.504
94905SOL     OW86553  10.508   0.665  13.458
94905SOL    HW186554  10.535   0.589  13.406
94905SOL    HW286555  10.489   0.733  13.393
94906SOL     OW86556   8.331   2.479   3.541
94906SOL    HW186557   8.389   2.479   3.465
94906SOL    HW286558   8.243   2.491   3.504
94907SOL     OW86559  13.459  12.752  10.105
94907SOL    HW186560  13.383  12.707  10.140
94907SOL    HW286561  13.523  12.683  10.089
94908SOL     OW86562  11.679   4.890  11.392
94908SOL    HW186563  11.601   4.946  11.403
94908SOL    HW286564  11.749   4.952  11.373
94909SOL     OW86565   7.365   7.219  10.977
94909SOL    HW186566   7.298   7.282  11.004
94909SOL    HW286567   7.316   7.149  10.934
94910SOL     OW86568   8.440  11.223  12.328
94910SOL    HW186569   8.472  11.260  12.246
94910SOL    HW286570   8.485  11.274  12.396
94911SOL     OW86571  11.937   0.602  13.250
94911SOL    HW186572  11.875   0.531  13.240
94911SOL    HW286573  12.010   0.564  13.300
94912SOL     OW86574   7.386  13.821   9.073
94912SOL    HW186575   7.381  13.910   9.039
94912SOL    HW286576   7.479  13.806   9.088
94913SOL     OW86577  10.633   5.510  12.183
94913SOL    HW186578  10.594   5.542  12.264
94913SOL    HW286579  10.618   5.415  12.184
94914SOL     OW86580   7.782   9.225   3.630
94914SOL    HW186581   7.845   9.293   3.606
94914SOL    HW286582   7.809   9.149   3.578
94915SOL     OW86583   9.868  14.696   8.478
94915SOL    HW186584   9.962  14.690   8.464
94915SOL    HW286585   9.856  14.774   8.532
94916SOL     OW86586   9.702   2.352   9.891
94916SOL    HW186587   9.770   2.368   9.956
94916SOL    HW286588   9.705   2.429   9.834
94917SOL     OW86589   3.216  12.122  10.504
94917SOL    HW186590   3.289  12.061  10.507
94917SOL    HW286591   3.242  12.187  10.439
94918SOL     OW86592  10.239   0.483  11.235
94918SOL    HW186593  10.279   0.459  11.319
94918SOL    HW286594  10.154   0.520  11.259
94919SOL     OW86595   3.666   6.425   5.492
94919SOL    HW186596   3.646   6.447   5.401
94919SOL    HW286597   3.681   6.510   5.534
94920SOL     OW86598   2.692  14.403  10.781
94920SOL    HW186599   2.626  14.374  10.844
94920SOL    HW286600   2.776  14.387  10.824
94921SOL     OW86601   2.010   7.752   9.942
94921SOL    HW186602   2.039   7.789   9.859
94921SOL    HW286603   1.920   7.785   9.952
94922SOL     OW86604   3.084   6.795  11.018
94922SOL    HW186605   3.171   6.758  11.035
94922SOL    HW286606   3.040   6.794  11.103
94923SOL     OW86607  11.332   7.219   9.173
94923SOL    HW186608  11.390   7.209   9.097
94923SOL    HW286609  11.373   7.286   9.227
94924SOL     OW86610  10.048   8.171   8.197
94924SOL    HW186611   9.994   8.109   8.148
94924SOL    HW286612  10.028   8.256   8.157
94925SOL     OW86613  12.900   8.308   5.652
94925SOL    HW186614  12.925   8.386   5.603
94925SOL    HW286615  12.984   8.271   5.681
94926SOL     OW86616   8.653  12.934  14.635
94926SOL    HW186617   8.729  12.883  14.608
94926SOL    HW286618   8.594  12.871  14.675
94927SOL     OW86619   1.781   7.947  10.231
94927SOL    HW186620   1.762   7.974  10.141
94927SOL    HW286621   1.698   7.954  10.277
94928SOL     OW86622   6.280   5.471   1.024
94928SOL    HW186623   6.246   5.442   0.939
94928SOL    HW286624   6.205   5.513   1.066
94929SOL     OW86625   2.077   9.929  13.667
94929SOL    HW186626   2.066   9.993  13.597
94929SOL    HW286627   2.014   9.956  13.734
94930SOL     OW86628   2.657   4.315  12.742
94930SOL    HW186629   2.645   4.333  12.836
94930SOL    HW286630   2.699   4.229  12.740
94931SOL     OW86631   7.058  11.134  12.234
94931SOL    HW186632   7.104  11.050  12.226
94931SOL    HW286633   6.965  11.109  12.239
94932SOL     OW86634   5.004  11.146   1.623
94932SOL    HW186635   5.010  11.189   1.538
94932SOL    HW286636   4.951  11.068   1.606
94933SOL     OW86637  13.441   9.157   9.657
94933SOL    HW186638  13.408   9.242   9.626
94933SOL    HW286639  13.530   9.152   9.622
94934SOL     OW86640   7.691  13.073   7.252
94934SOL    HW186641   7.746  13.000   7.224
94934SOL    HW286642   7.751  13.130   7.301
94935SOL     OW86643  11.911   8.507  12.423
94935SOL    HW186644  11.965   8.448  12.371
94935SOL    HW286645  11.882   8.574  12.361
94936SOL     OW86646   4.291   0.068   0.357
94936SOL    HW186647   4.299   0.163   0.344
94936SOL    HW286648   4.323   0.030   0.275
94937SOL     OW86649   0.867   6.464   4.129
94937SOL    HW186650   0.814   6.409   4.070
94937SOL    HW286651   0.849   6.553   4.100
94938SOL     OW86652   8.310   0.995   3.249
94938SOL    HW186653   8.362   1.041   3.183
94938SOL    HW286654   8.320   0.903   3.226
94939SOL     OW86655  12.088   9.057   3.349
94939SOL    HW186656  12.023   8.991   3.371
94939SOL    HW286657  12.110   9.041   3.257
94940SOL     OW86658   0.149   8.041   1.887
94940SOL    HW186659   0.173   8.092   1.809
94940SOL    HW286660   0.174   8.098   1.960
94941SOL     OW86661  10.046  12.550   7.979
94941SOL    HW186662   9.970  12.493   7.963
94941SOL    HW286663  10.112  12.520   7.916
94942SOL     OW86664  10.013   7.971  11.959
94942SOL    HW186665   9.935   8.018  11.929
94942SOL    HW286666  10.030   7.907  11.890
94943SOL     OW86667  12.649   3.824   8.876
94943SOL    HW186668  12.696   3.844   8.958
94943SOL    HW286669  12.583   3.893   8.869
94944SOL     OW86670   5.030   2.976   6.630
94944SOL    HW186671   5.067   3.026   6.703
94944SOL    HW286672   4.940   2.958   6.656
94945SOL     OW86673   8.466  14.193   4.239
94945SOL    HW186674   8.558  14.189   4.267
94945SOL    HW286675   8.432  14.105   4.254
94946SOL     OW86676   9.425  11.169  10.130
94946SOL    HW186677   9.381  11.196  10.211
94946SOL    HW286678   9.518  11.168  10.154
94947SOL     OW86679  12.383   6.143   5.636
94947SOL    HW186680  12.370   6.173   5.546
94947SOL    HW286681  12.448   6.072   5.629
94948SOL     OW86682   6.623   2.504   8.762
94948SOL    HW186683   6.629   2.429   8.703
94948SOL    HW286684   6.564   2.565   8.717
94949SOL     OW86685  13.137  11.792   0.249
94949SOL    HW186686  13.196  11.749   0.310
94949SOL    HW286687  13.129  11.881   0.282
94950SOL     OW86688   6.392   1.893   0.487
94950SOL    HW186689   6.345   1.970   0.518
94950SOL    HW286690   6.483   1.908   0.511
94951SOL     OW86691   2.433  13.226   0.199
94951SOL    HW186692   2.497  13.170   0.243
94951SOL    HW286693   2.464  13.315   0.214
94952SOL     OW86694  12.253   6.080  13.343
94952SOL    HW186695  12.196   6.118  13.276
94952SOL    HW286696  12.227   6.124  13.424
94953SOL     OW86697   4.177   5.457   6.980
94953SOL    HW186698   4.165   5.552   6.970
94953SOL    HW286699   4.090   5.420   6.960
94954SOL     OW86700  11.489   1.452  10.466
94954SOL    HW186701  11.580   1.430  10.485
94954SOL    HW286702  11.438   1.385  10.512
94955SOL     OW86703   7.060  12.770  13.200
94955SOL    HW186704   7.034  12.749  13.290
94955SOL    HW286705   7.025  12.698  13.147
94956SOL     OW86706   0.799   1.304  13.645
94956SOL    HW186707   0.801   1.363  13.569
94956SOL    HW286708   0.766   1.358  13.716
94957SOL     OW86709   2.344   8.133   9.445
94957SOL    HW186710   2.401   8.073   9.397
94957SOL    HW286711   2.381   8.220   9.427
94958SOL     OW86712   0.383   0.177   5.668
94958SOL    HW186713   0.409   0.213   5.753
94958SOL    HW286714   0.440   0.101   5.656
94959SOL     OW86715   2.759   6.671   6.648
94959SOL    HW186716   2.730   6.594   6.600
94959SOL    HW286717   2.801   6.636   6.727
94960SOL     OW86718   2.755   0.405   3.958
94960SOL    HW186719   2.740   0.494   3.924
94960SOL    HW286720   2.717   0.348   3.892
94961SOL     OW86721   5.541   2.238  11.118
94961SOL    HW186722   5.550   2.213  11.026
94961SOL    HW286723   5.456   2.282  11.123
94962SOL     OW86724  10.899   9.430   0.155
94962SOL    HW186725  10.803   9.434   0.158
94962SOL    HW286726  10.919   9.417   0.062
94963SOL     OW86727   1.240   7.351   1.756
94963SOL    HW186728   1.284   7.360   1.840
94963SOL    HW286729   1.255   7.260   1.731
94964SOL     OW86730   1.965  14.585  12.286
94964SOL    HW186731   1.951  14.546  12.200
94964SOL    HW286732   1.880  14.580  12.330
94965SOL     OW86733   8.167  14.740   3.260
94965SOL    HW186734   8.094  14.697   3.216
94965SOL    HW286735   8.227  14.765   3.189
94966SOL     OW86736   4.293   5.786  11.563
94966SOL    HW186737   4.385   5.765  11.579
94966SOL    HW286738   4.292   5.882  11.553
94967SOL     OW86739   0.845   6.825   8.138
94967SOL    HW186740   0.922   6.853   8.186
94967SOL    HW286741   0.833   6.892   8.070
94968SOL     OW86742  10.987   1.759   3.785
94968SOL    HW186743  10.952   1.679   3.824
94968SOL    HW286744  11.030   1.730   3.705
94969SOL     OW86745   1.242  13.812  11.885
94969SOL    HW186746   1.298  13.757  11.939
94969SOL    HW286747   1.302  13.865  11.834
94970SOL     OW86748   8.790  10.932   9.420
94970SOL    HW186749   8.818  10.854   9.468
94970SOL    HW286750   8.742  10.984   9.485
94971SOL     OW86751   3.747   7.404   1.628
94971SOL    HW186752   3.792   7.332   1.584
94971SOL    HW286753   3.706   7.454   1.557
94972SOL     OW86754   3.158  11.904   8.211
94972SOL    HW186755   3.117  11.869   8.131
94972SOL    HW286756   3.093  11.887   8.280
94973SOL     OW86757   9.891  10.177   4.301
94973SOL    HW186758   9.932  10.197   4.385
94973SOL    HW286759   9.859  10.088   4.311
94974SOL     OW86760   6.333   1.611   4.339
94974SOL    HW186761   6.339   1.529   4.290
94974SOL    HW286762   6.378   1.675   4.285
94975SOL     OW86763   7.762   8.381  12.482
94975SOL    HW186764   7.779   8.468  12.517
94975SOL    HW286765   7.828   8.325  12.524
94976SOL     OW86766  12.750   3.696   9.206
94976SOL    HW186767  12.738   3.663   9.295
94976SOL    HW286768  12.713   3.628   9.150
94977SOL     OW86769   6.849   8.637   1.571
94977SOL    HW186770   6.870   8.545   1.556
94977SOL    HW286771   6.846   8.676   1.484
94978SOL     OW86772  13.159  12.150   1.309
94978SOL    HW186773  13.151  12.081   1.243
94978SOL    HW286774  13.074  12.194   1.308
94979SOL     OW86775   4.264   5.293  11.139
94979SOL    HW186776   4.225   5.378  11.120
94979SOL    HW286777   4.341   5.289  11.082
94980SOL     OW86778   0.092  10.754   7.268
94980SOL    HW186779   0.159  10.792   7.325
94980SOL    HW286780   0.103  10.660   7.278
94981SOL     OW86781   4.050   7.940   2.404
94981SOL    HW186782   4.072   7.996   2.330
94981SOL    HW286783   3.973   7.982   2.444
94982SOL     OW86784  13.830  14.666   7.347
94982SOL    HW186785  13.845  14.740   7.406
94982SOL    HW286786  13.808  14.593   7.405
94983SOL     OW86787   4.521   2.489   6.298
94983SOL    HW186788   4.518   2.504   6.392
94983SOL    HW286789   4.587   2.421   6.287
94984SOL     OW86790   1.171   9.858  10.764
94984SOL    HW186791   1.152   9.828  10.853
94984SOL    HW286792   1.176   9.778  10.712
94985SOL     OW86793  14.488   9.086  11.147
94985SOL    HW186794  14.528   9.072  11.061
94985SOL    HW286795  14.495   9.002  11.191
94986SOL     OW86796   9.019   8.286   0.072
94986SOL    HW186797   8.986   8.239  14.870
94986SOL    HW286798   8.959   8.261   0.143
94987SOL     OW86799  11.402   8.187   9.373
94987SOL    HW186800  11.424   8.249   9.303
94987SOL    HW286801  11.366   8.111   9.327
94988SOL     OW86802   2.261  11.182   1.241
94988SOL    HW186803   2.344  11.160   1.200
94988SOL    HW286804   2.229  11.099   1.277
94989SOL     OW86805  12.669   3.777   1.080
94989SOL    HW186806  12.724   3.815   1.011
94989SOL    HW286807  12.615   3.713   1.034
94990SOL     OW86808   2.088  13.842  12.241
94990SOL    HW186809   2.090  13.866  12.148
94990SOL    HW286810   2.039  13.912  12.283
94991SOL     OW86811   9.566  13.788   6.410
94991SOL    HW186812   9.496  13.760   6.469
94991SOL    HW286813   9.525  13.850   6.350
94992SOL     OW86814   9.243   9.051   4.406
94992SOL    HW186815   9.157   9.023   4.374
94992SOL    HW286816   9.251   9.142   4.374
94993SOL     OW86817   5.352  12.254   3.257
94993SOL    HW186818   5.278  12.314   3.269
94993SOL    HW286819   5.336  12.183   3.319
94994SOL     OW86820   2.662  11.888  12.881
94994SOL    HW186821   2.711  11.830  12.822
94994SOL    HW286822   2.730  11.934  12.931
94995SOL     OW86823   3.565   0.002   0.650
94995SOL    HW186824   3.589  14.798   0.599
94995SOL    HW286825   3.617  14.869   0.730
94996SOL     OW86826  12.771   3.176   7.096
94996SOL    HW186827  12.777   3.257   7.046
94996SOL    HW286828  12.820   3.112   7.045
94997SOL     OW86829  12.954   8.739   4.755
94997SOL    HW186830  12.893   8.666   4.753
94997SOL    HW286831  12.970   8.754   4.849
94998SOL     OW86832   8.888   0.391  14.423
94998SOL    HW186833   8.860   0.302  14.444
94998SOL    HW286834   8.983   0.388  14.430
94999SOL     OW86835   4.282   2.231   4.064
94999SOL    HW186836   4.211   2.280   4.022
94999SOL    HW286837   4.264   2.139   4.044
95000SOL     OW86838   2.397   2.414  13.497
95000SOL    HW186839   2.398   2.360  13.576
95000SOL    HW286840   2.340   2.366  13.436
95001SOL     OW86841  11.690   3.353   4.103
95001SOL    HW186842  11.692   3.319   4.192
95001SOL    HW286843  11.623   3.422   4.105
95002SOL     OW86844  11.629   1.323  13.401
95002SOL    HW186845  11.655   1.410  13.432
95002SOL    HW286846  11.626   1.270  13.481
95003SOL     OW86847   8.518   9.320   4.329
95003SOL    HW186848   8.517   9.301   4.236
95003SOL    HW286849   8.436   9.283   4.362
95004SOL     OW86850   9.824   0.459  12.254
95004SOL    HW186851   9.833   0.438  12.161
95004SOL    HW286852   9.760   0.396  12.287
95005SOL     OW86853   4.022  11.727   0.638
95005SOL    HW186854   4.063  11.787   0.575
95005SOL    HW286855   3.933  11.760   0.649
95006SOL     OW86856   4.396  12.829  11.697
95006SOL    HW186857   4.466  12.820  11.632
95006SOL    HW286858   4.321  12.862  11.646
95007SOL     OW86859   8.619  14.096   5.316
95007SOL    HW186860   8.644  14.131   5.401
95007SOL    HW286861   8.626  14.001   5.327
95008SOL     OW86862   2.254   3.795  11.360
95008SOL    HW186863   2.295   3.792  11.273
95008SOL    HW286864   2.291   3.720  11.406
95009SOL     OW86865   7.200   5.379  11.650
95009SOL    HW186866   7.147   5.447  11.692
95009SOL    HW286867   7.227   5.418  11.567
95010SOL     OW86868  13.357   5.618   8.690
95010SOL    HW186869  13.303   5.541   8.705
95010SOL    HW286870  13.424   5.614   8.758
95011SOL     OW86871   2.960  14.010   7.636
95011SOL    HW186872   2.899  14.084   7.644
95011SOL    HW286873   2.949  13.979   7.546
95012SOL     OW86874   4.385   1.576  14.059
95012SOL    HW186875   4.404   1.487  14.088
95012SOL    HW286876   4.312   1.605  14.114
95013SOL     OW86877   2.578   4.554  11.051
95013SOL    HW186878   2.499   4.595  11.087
95013SOL    HW286879   2.546   4.477  11.005
95014SOL     OW86880  14.112  11.322   7.761
95014SOL    HW186881  14.200  11.352   7.782
95014SOL    HW286882  14.058  11.354   7.834
95015SOL     OW86883   9.670  10.702   9.807
95015SOL    HW186884   9.727  10.715   9.731
95015SOL    HW286885   9.691  10.776   9.865
95016SOL     OW86886   0.890   1.132   6.352
95016SOL    HW186887   0.797   1.154   6.361
95016SOL    HW286888   0.928   1.208   6.308
95017SOL     OW86889   8.446   2.522  14.286
95017SOL    HW186890   8.379   2.579  14.246
95017SOL    HW286891   8.453   2.449  14.225
95018SOL     OW86892  11.018   1.266  11.819
95018SOL    HW186893  10.945   1.324  11.841
95018SOL    HW286894  11.057   1.244  11.903
95019SOL     OW86895   5.121   9.390   3.753
95019SOL    HW186896   5.040   9.440   3.743
95019SOL    HW286897   5.111   9.316   3.693
95020SOL     OW86898   2.751  13.013  10.050
95020SOL    HW186899   2.826  12.958  10.071
95020SOL    HW286900   2.767  13.094  10.099
95021SOL     OW86901   2.126   0.718  11.074
95021SOL    HW186902   2.063   0.672  11.130
95021SOL    HW286903   2.145   0.799  11.122
95022SOL     OW86904   6.293   3.262  12.411
95022SOL    HW186905   6.331   3.219  12.488
95022SOL    HW286906   6.337   3.347  12.407
95023SOL     OW86907   4.638   4.933   3.349
95023SOL    HW186908   4.553   4.948   3.308
95023SOL    HW286909   4.638   4.990   3.427
95024SOL     OW86910  11.297   3.563   1.844
95024SOL    HW186911  11.250   3.616   1.908
95024SOL    HW286912  11.380   3.542   1.887
95025SOL     OW86913   8.821   7.793  11.053
95025SOL    HW186914   8.796   7.710  11.014
95025SOL    HW286915   8.804   7.858  10.984
95026SOL     OW86916   2.877   4.493  12.547
95026SOL    HW186917   2.852   4.556  12.615
95026SOL    HW286918   2.794   4.470  12.504
95027SOL     OW86919   5.663   3.772   1.904
95027SOL    HW186920   5.603   3.774   1.830
95027SOL    HW286921   5.728   3.839   1.883
95028SOL     OW86922   9.862   7.455  10.176
95028SOL    HW186923   9.836   7.518  10.109
95028SOL    HW286924   9.798   7.467  10.247
95029SOL     OW86925   7.675  14.871   3.885
95029SOL    HW186926   7.584   0.026   3.876
95029SOL    HW286927   7.692   0.003   3.979
95030SOL     OW86928  12.106  11.094   5.297
95030SOL    HW186929  12.171  11.055   5.355
95030SOL    HW286930  12.145  11.088   5.210
95031SOL     OW86931   3.657  11.812   7.069
95031SOL    HW186932   3.705  11.730   7.084
95031SOL    HW286933   3.676  11.865   7.146
95032SOL     OW86934   1.663   6.275   3.234
95032SOL    HW186935   1.601   6.267   3.161
95032SOL    HW286936   1.703   6.188   3.241
95033SOL     OW86937  10.862   3.939   6.755
95033SOL    HW186938  10.881   4.033   6.762
95033SOL    HW286939  10.778   3.927   6.797
95034SOL     OW86940   4.957   8.190   4.628
95034SOL    HW186941   5.003   8.252   4.684
95034SOL    HW286942   4.881   8.239   4.596
95035SOL     OW86943   6.598   9.095   2.773
95035SOL    HW186944   6.565   9.049   2.696
95035SOL    HW286945   6.673   9.044   2.802
95036SOL     OW86946   9.561   3.562  11.110
95036SOL    HW186947   9.492   3.617  11.148
95036SOL    HW286948   9.627   3.554  11.179
95037SOL     OW86949  13.470   0.876  11.233
95037SOL    HW186950  13.474   0.827  11.314
95037SOL    HW286951  13.397   0.838  11.185
95038SOL     OW86952   0.559   0.962  11.218
95038SOL    HW186953   0.593   0.894  11.276
95038SOL    HW286954   0.552   0.920  11.133
95039SOL     OW86955  14.142   4.915  14.599
95039SOL    HW186956  14.096   4.930  14.681
95039SOL    HW286957  14.190   4.833  14.613
95040SOL     OW86958   7.834   9.565   6.736
95040SOL    HW186959   7.756   9.549   6.684
95040SOL    HW286960   7.884   9.629   6.685
95041SOL     OW86961   1.934  13.344   8.887
95041SOL    HW186962   1.910  13.424   8.840
95041SOL    HW286963   2.029  13.350   8.900
95042SOL     OW86964   8.755  11.887   8.639
95042SOL    HW186965   8.695  11.813   8.626
95042SOL    HW286966   8.801  11.895   8.555
95043SOL     OW86967   7.232  12.672   4.496
95043SOL    HW186968   7.141  12.699   4.502
95043SOL    HW286969   7.230  12.577   4.512
95044SOL     OW86970   1.528   6.526  11.351
95044SOL    HW186971   1.530   6.590  11.279
95044SOL    HW286972   1.549   6.578  11.429
95045SOL     OW86973   7.308  13.183   7.917
95045SOL    HW186974   7.226  13.166   7.870
95045SOL    HW286975   7.284  13.241   7.989
95046SOL     OW86976   2.589   5.469   4.854
95046SOL    HW186977   2.636   5.526   4.916
95046SOL    HW286978   2.508   5.446   4.900
95047SOL     OW86979  10.857   9.472   3.832
95047SOL    HW186980  10.949   9.449   3.828
95047SOL    HW286981  10.820   9.412   3.897
95048SOL     OW86982  13.842  11.007   3.897
95048SOL    HW186983  13.905  11.039   3.833
95048SOL    HW286984  13.824  10.917   3.868
95049SOL     OW86985   0.972  13.240   1.584
95049SOL    HW186986   0.900  13.302   1.569
95049SOL    HW286987   1.047  13.279   1.539
95050SOL     OW86988   3.452   7.157   5.552
95050SOL    HW186989   3.528   7.123   5.505
95050SOL    HW286990   3.463   7.126   5.642
95051SOL     OW86991   0.011   0.945  14.169
95051SOL    HW186992  14.832   1.011  14.124
95051SOL    HW286993   0.070   0.995  14.224
95052SOL     OW86994   5.760  10.667   7.432
95052SOL    HW186995   5.820  10.604   7.393
95052SOL    HW286996   5.727  10.623   7.510
95053SOL     OW86997   9.422  12.334  11.375
95053SOL    HW186998   9.492  12.398  11.366
95053SOL    HW286999   9.437  12.271  11.304
95054SOL     OW87000  14.675   7.865   9.318
95054SOL    HW187001  14.716   7.792   9.272
95054SOL    HW287002  14.608   7.824   9.373
95055SOL     OW87003  11.946   7.503  12.161
95055SOL    HW187004  12.013   7.471  12.100
95055SOL    HW287005  11.996   7.539  12.234
95056SOL     OW87006   2.562   8.210   8.600
95056SOL    HW187007   2.549   8.118   8.620
95056SOL    HW287008   2.655   8.225   8.614
95057SOL     OW87009   7.811   8.129  13.375
95057SOL    HW187010   7.871   8.147  13.447
95057SOL    HW287011   7.748   8.066  13.411
95058SOL     OW87012   6.991   4.778  14.164
95058SOL    HW187013   7.036   4.760  14.081
95058SOL    HW287014   7.053   4.832  14.213
95059SOL     OW87015   1.638   6.967   1.123
95059SOL    HW187016   1.714   7.025   1.112
95059SOL    HW287017   1.592   7.001   1.200
95060SOL     OW87018   5.158   6.817   9.567
95060SOL    HW187019   5.098   6.868   9.513
95060SOL    HW287020   5.241   6.865   9.564
95061SOL     OW87021  10.791   1.215   3.843
95061SOL    HW187022  10.868   1.246   3.796
95061SOL    HW287023  10.771   1.131   3.802
95062SOL     OW87024   1.954   5.250  14.701
95062SOL    HW187025   1.885   5.213  14.756
95062SOL    HW287026   2.011   5.296  14.763
95063SOL     OW87027  11.973  14.804   8.885
95063SOL    HW187028  12.061  14.840   8.900
95063SOL    HW287029  11.981  14.757   8.801
95064SOL     OW87030   6.163   8.381  14.682
95064SOL    HW187031   6.185   8.458  14.734
95064SOL    HW287032   6.081   8.350  14.719
95065SOL     OW87033  10.114  14.289  13.484
95065SOL    HW187034  10.058  14.364  13.502
95065SOL    HW287035  10.074  14.217  13.533
95066SOL     OW87036   4.201  12.028   1.434
95066SOL    HW187037   4.183  11.940   1.468
95066SOL    HW287038   4.295  12.039   1.447
95067SOL     OW87039   6.585   3.248  12.338
95067SOL    HW187040   6.595   3.192  12.415
95067SOL    HW287041   6.502   3.222  12.299
95068SOL     OW87042   6.666  10.055   7.223
95068SOL    HW187043   6.618  10.009   7.154
95068SOL    HW287044   6.747  10.006   7.233
95069SOL     OW87045  13.292   2.669   7.099
95069SOL    HW187046  13.230   2.615   7.050
95069SOL    HW287047  13.251   2.755   7.104
95070SOL     OW87048  14.310   5.689   2.753
95070SOL    HW187049  14.401   5.698   2.781
95070SOL    HW287050  14.270   5.632   2.819
95071SOL     OW87051  13.621  13.838  11.545
95071SOL    HW187052  13.553  13.828  11.612
95071SOL    HW287053  13.658  13.750  11.535
95072SOL     OW87054   3.808  14.831  10.239
95072SOL    HW187055   3.862  14.790  10.172
95072SOL    HW287056   3.735  14.770  10.253
95073SOL     OW87057   3.584  13.704  11.625
95073SOL    HW187058   3.581  13.683  11.718
95073SOL    HW287059   3.492  13.707  11.599
95074SOL     OW87060   8.994   4.453  12.138
95074SOL    HW187061   9.029   4.496  12.059
95074SOL    HW287062   9.070   4.416  12.181
95075SOL     OW87063   4.979   3.533   5.935
95075SOL    HW187064   4.958   3.564   6.023
95075SOL    HW287065   4.907   3.565   5.880
95076SOL     OW87066  12.761   9.909  12.604
95076SOL    HW187067  12.758   9.971  12.531
95076SOL    HW287068  12.673   9.909  12.640
95077SOL     OW87069   3.562  14.072  13.317
95077SOL    HW187070   3.538  14.124  13.393
95077SOL    HW287071   3.487  14.016  13.300
95078SOL     OW87072   1.981  10.938   6.985
95078SOL    HW187073   1.909  10.963   6.926
95078SOL    HW287074   2.041  10.887   6.930
95079SOL     OW87075   6.782  13.148  12.627
95079SOL    HW187076   6.780  13.057  12.658
95079SOL    HW287077   6.741  13.198  12.697
95080SOL     OW87078   2.342  10.340   0.662
95080SOL    HW187079   2.331  10.415   0.720
95080SOL    HW287080   2.303  10.367   0.579
95081SOL     OW87081   5.976  10.207   4.210
95081SOL    HW187082   5.966  10.112   4.212
95081SOL    HW287083   6.045  10.225   4.274
95082SOL     OW87084   7.855   2.957   0.492
95082SOL    HW187085   7.829   3.026   0.553
95082SOL    HW287086   7.918   2.905   0.542
95083SOL     OW87087   5.997   9.658   8.173
95083SOL    HW187088   5.955   9.573   8.188
95083SOL    HW287089   6.075   9.637   8.122
95084SOL     OW87090   4.236  10.931   8.010
95084SOL    HW187091   4.258  10.983   7.933
95084SOL    HW287092   4.169  10.869   7.979
95085SOL     OW87093   6.214   0.848   9.114
95085SOL    HW187094   6.199   0.832   9.020
95085SOL    HW287095   6.297   0.805   9.133
95086SOL     OW87096   7.727   2.307  12.965
95086SOL    HW187097   7.767   2.380  12.919
95086SOL    HW287098   7.634   2.314  12.945
95087SOL     OW87099   0.857  14.481   4.070
95087SOL    HW187100   0.857  14.558   4.126
95087SOL    HW287101   0.924  14.423   4.107
95088SOL     OW87102   8.033   3.891   6.780
95088SOL    HW187103   8.096   3.856   6.718
95088SOL    HW287104   7.948   3.861   6.748
95089SOL     OW87105   9.896   4.892   6.567
95089SOL    HW187106   9.960   4.911   6.499
95089SOL    HW287107   9.854   4.811   6.539
95090SOL     OW87108  13.177  13.656  10.165
95090SOL    HW187109  13.139  13.725  10.110
95090SOL    HW287110  13.145  13.575  10.126
95091SOL     OW87111   4.907   0.167   5.585
95091SOL    HW187112   4.854   0.114   5.646
95091SOL    HW287113   4.852   0.176   5.507
95092SOL     OW87114   3.534   8.326   0.939
95092SOL    HW187115   3.520   8.325   0.844
95092SOL    HW287116   3.624   8.358   0.949
95093SOL     OW87117   1.589   5.360   6.674
95093SOL    HW187118   1.572   5.446   6.712
95093SOL    HW287119   1.591   5.301   6.749
95094SOL     OW87120   6.249   5.499   8.044
95094SOL    HW187121   6.343   5.509   8.025
95094SOL    HW287122   6.214   5.453   7.967
95095SOL     OW87123   5.103   5.873   8.306
95095SOL    HW187124   5.088   5.781   8.328
95095SOL    HW287125   5.198   5.879   8.294
95096SOL     OW87126   2.378  11.860   2.484
95096SOL    HW187127   2.295  11.824   2.452
95096SOL    HW287128   2.382  11.948   2.447
95097SOL     OW87129   0.176   5.664  12.574
95097SOL    HW187130   0.122   5.712  12.637
95097SOL    HW287131   0.264   5.667  12.611
95098SOL     OW87132  11.081  10.116   0.086
95098SOL    HW187133  11.074  10.067   0.004
95098SOL    HW287134  11.063  10.052   0.154
95099SOL     OW87135  10.502   3.214  11.079
95099SOL    HW187136  10.413   3.179  11.072
95099SOL    HW287137  10.504   3.254  11.166
95100SOL     OW87138  11.798   8.376  10.351
95100SOL    HW187139  11.718   8.372  10.404
95100SOL    HW287140  11.857   8.314  10.393
95101SOL     OW87141   3.921  11.070  10.985
95101SOL    HW187142   3.959  11.084  10.898
95101SOL    HW287143   3.871  10.989  10.977
95102SOL     OW87144  12.426   6.342  14.656
95102SOL    HW187145  12.511   6.306  14.632
95102SOL    HW287146  12.363   6.294  14.603
95103SOL     OW87147   2.912   4.065   4.938
95103SOL    HW187148   2.930   3.996   5.002
95103SOL    HW287149   2.844   4.028   4.882
95104SOL     OW87150   1.134  12.229  10.114
95104SOL    HW187151   1.178  12.275  10.043
95104SOL    HW287152   1.157  12.137  10.102
95105SOL     OW87153   3.546   8.294  11.697
95105SOL    HW187154   3.481   8.247  11.747
95105SOL    HW287155   3.573   8.233  11.628
95106SOL     OW87156  13.496   6.307   0.310
95106SOL    HW187157  13.569   6.273   0.361
95106SOL    HW287158  13.497   6.255   0.229
95107SOL     OW87159  10.722  13.260  14.238
95107SOL    HW187160  10.651  13.241  14.299
95107SOL    HW287161  10.682  13.253  14.151
95108SOL     OW87162   1.307   6.519   0.512
95108SOL    HW187163   1.255   6.501   0.590
95108SOL    HW287164   1.303   6.615   0.503
95109SOL     OW87165  14.424   1.728   4.481
95109SOL    HW187166  14.502   1.674   4.469
95109SOL    HW287167  14.397   1.753   4.392
95110SOL     OW87168   5.620  11.732  12.435
95110SOL    HW187169   5.651  11.778  12.357
95110SOL    HW287170   5.557  11.793  12.475
95111SOL     OW87171   1.587  12.674  13.118
95111SOL    HW187172   1.498  12.677  13.155
95111SOL    HW287173   1.576  12.702  13.027
95112SOL     OW87174   0.446  11.411   2.146
95112SOL    HW187175   0.371  11.354   2.164
95112SOL    HW287176   0.420  11.463   2.070
95113SOL     OW87177   3.980   5.761  12.288
95113SOL    HW187178   3.890   5.790  12.306
95113SOL    HW287179   4.019   5.834  12.240
95114SOL     OW87180   9.128   0.593  10.819
95114SOL    HW187181   9.107   0.568  10.729
95114SOL    HW287182   9.218   0.562  10.831
95115SOL     OW87183   2.096   9.412  12.353
95115SOL    HW187184   2.145   9.391  12.433
95115SOL    HW287185   2.012   9.368  12.364
95116SOL     OW87186  11.446   9.789   5.259
95116SOL    HW187187  11.485   9.702   5.270
95116SOL    HW287188  11.372   9.790   5.321
95117SOL     OW87189   7.986   1.090   8.443
95117SOL    HW187190   8.045   1.157   8.408
95117SOL    HW287191   7.940   1.133   8.515
95118SOL     OW87192   6.983   4.547   6.351
95118SOL    HW187193   6.926   4.487   6.302
95118SOL    HW287194   6.933   4.569   6.429
95119SOL     OW87195  12.148   0.413   9.818
95119SOL    HW187196  12.224   0.365   9.785
95119SOL    HW287197  12.108   0.451   9.740
95120SOL     OW87198   2.368  11.844   9.665
95120SOL    HW187199   2.452  11.813   9.630
95120SOL    HW287200   2.339  11.911   9.603
95121SOL     OW87201   2.993  11.734   9.806
95121SOL    HW187202   3.029  11.820   9.827
95121SOL    HW287203   2.899  11.745   9.813
95122SOL     OW87204   7.728   6.174   8.303
95122SOL    HW187205   7.670   6.118   8.251
95122SOL    HW287206   7.760   6.239   8.240
95123SOL     OW87207  14.465   2.080  14.285
95123SOL    HW187208  14.414   2.027  14.224
95123SOL    HW287209  14.416   2.079  14.366
95124SOL     OW87210  11.425   9.144   4.809
95124SOL    HW187211  11.351   9.143   4.870
95124SOL    HW287212  11.398   9.204   4.740
95125SOL     OW87213   9.869  10.863  12.649
95125SOL    HW187214   9.883  10.794  12.715
95125SOL    HW287215   9.801  10.828  12.592
95126SOL     OW87216   1.712  13.812   7.212
95126SOL    HW187217   1.758  13.735   7.245
95126SOL    HW287218   1.623  13.802   7.246
95127SOL     OW87219   7.291   7.633   6.762
95127SOL    HW187220   7.209   7.672   6.734
95127SOL    HW287221   7.313   7.678   6.844
95128SOL     OW87222  12.487   6.542  12.601
95128SOL    HW187223  12.503   6.594  12.522
95128SOL    HW287224  12.459   6.606  12.666
95129SOL     OW87225   0.418  11.086   3.424
95129SOL    HW187226   0.384  11.041   3.502
95129SOL    HW287227   0.402  11.024   3.352
95130SOL     OW87228   3.298  10.712   4.854
95130SOL    HW187229   3.360  10.709   4.781
95130SOL    HW287230   3.297  10.622   4.888
95131SOL     OW87231  13.189   2.123  14.074
95131SOL    HW187232  13.260   2.107  14.136
95131SOL    HW287233  13.223   2.091  13.990
95132SOL     OW87234   3.009  13.559   1.014
95132SOL    HW187235   3.036  13.570   1.105
95132SOL    HW287236   2.951  13.634   0.998
95133SOL     OW87237  14.160  12.888  13.730
95133SOL    HW187238  14.250  12.911  13.753
95133SOL    HW287239  14.158  12.792  13.736
95134SOL     OW87240   2.999  12.300   8.648
95134SOL    HW187241   2.932  12.286   8.715
95134SOL    HW287242   2.950  12.331   8.572
95135SOL     OW87243   9.142   9.428  12.222
95135SOL    HW187244   9.199   9.505  12.210
95135SOL    HW287245   9.090   9.449  12.299
95136SOL     OW87246   9.445   0.736   0.617
95136SOL    HW187247   9.426   0.671   0.549
95136SOL    HW287248   9.534   0.765   0.598
95137SOL     OW87249   3.181   8.522   1.134
95137SOL    HW187250   3.175   8.454   1.201
95137SOL    HW287251   3.270   8.555   1.141
95138SOL     OW87252  11.411  13.414   1.113
95138SOL    HW187253  11.356  13.369   1.177
95138SOL    HW287254  11.492  13.432   1.160
95139SOL     OW87255   2.878   5.759  10.536
95139SOL    HW187256   2.826   5.683  10.563
95139SOL    HW287257   2.956   5.755  10.592
95140SOL     OW87258  11.881  10.970   4.925
95140SOL    HW187259  11.968  11.007   4.910
95140SOL    HW287260  11.898  10.883   4.962
95141SOL     OW87261  11.808   2.823   8.733
95141SOL    HW187262  11.737   2.796   8.792
95141SOL    HW287263  11.885   2.777   8.767
95142SOL     OW87264   1.150   0.158   1.969
95142SOL    HW187265   1.236   0.128   1.941
95142SOL    HW287266   1.166   0.203   2.052
95143SOL     OW87267  12.441   6.279   2.636
95143SOL    HW187268  12.407   6.280   2.547
95143SOL    HW287269  12.529   6.314   2.629
95144SOL     OW87270   8.387   4.537   0.473
95144SOL    HW187271   8.390   4.574   0.561
95144SOL    HW287272   8.316   4.584   0.429
95145SOL     OW87273   8.249   5.300  11.634
95145SOL    HW187274   8.178   5.236  11.631
95145SOL    HW287275   8.233   5.349  11.714
95146SOL     OW87276  11.792   9.194  14.534
95146SOL    HW187277  11.705   9.208  14.571
95146SOL    HW287278  11.846   9.262  14.574
95147SOL     OW87279   0.700   8.130  12.342
95147SOL    HW187280   0.751   8.062  12.385
95147SOL    HW287281   0.616   8.088  12.321
95148SOL     OW87282   0.739  11.251   2.455
95148SOL    HW187283   0.673  11.314   2.481
95148SOL    HW287284   0.821  11.301   2.453
95149SOL     OW87285   7.788   0.530   7.661
95149SOL    HW187286   7.877   0.497   7.675
95149SOL    HW287287   7.740   0.455   7.625
95150SOL     OW87288   4.013  12.208   1.530
95150SOL    HW187289   4.063  12.282   1.565
95150SOL    HW287290   4.078  12.150   1.492
95151SOL     OW87291   1.482   5.991  13.284
95151SOL    HW187292   1.437   6.030  13.359
95151SOL    HW287293   1.415   5.988  13.215
95152SOL     OW87294   0.281   3.030  12.388
95152SOL    HW187295   0.343   2.984  12.445
95152SOL    HW287296   0.333   3.059  12.314
95153SOL     OW87297  13.881   2.522   2.304
95153SOL    HW187298  13.884   2.552   2.213
95153SOL    HW287299  13.955   2.462   2.312
95154SOL     OW87300   2.333  13.622  10.953
95154SOL    HW187301   2.244  13.597  10.977
95154SOL    HW287302   2.330  13.630  10.857
95155SOL     OW87303   9.187  14.793   1.525
95155SOL    HW187304   9.110  14.849   1.523
95155SOL    HW287305   9.236  14.817   1.446
95156SOL     OW87306   9.389   9.749  10.338
95156SOL    HW187307   9.317   9.689  10.316
95156SOL    HW287308   9.346   9.832  10.356
95157SOL     OW87309   4.903   2.260   4.409
95157SOL    HW187310   4.921   2.352   4.388
95157SOL    HW287311   4.971   2.211   4.363
95158SOL     OW87312  13.613   3.849   5.102
95158SOL    HW187313  13.644   3.873   5.190
95158SOL    HW287314  13.545   3.784   5.119
95159SOL     OW87315  14.140  14.762   4.840
95159SOL    HW187316  14.064  14.780   4.895
95159SOL    HW287317  14.167  14.848   4.808
95160SOL     OW87318   6.146  11.522   0.469
95160SOL    HW187319   6.216  11.488   0.413
95160SOL    HW287320   6.096  11.445   0.495
95161SOL     OW87321   7.514  14.770   5.075
95161SOL    HW187322   7.560  14.849   5.104
95161SOL    HW287323   7.467  14.739   5.153
95162SOL     OW87324  11.311   0.095   3.156
95162SOL    HW187325  11.355   0.013   3.136
95162SOL    HW287326  11.344   0.119   3.243
95163SOL     OW87327   9.490   1.227   4.458
95163SOL    HW187328   9.416   1.255   4.405
95163SOL    HW287329   9.563   1.224   4.396
95164SOL     OW87330  14.784   9.775  10.722
95164SOL    HW187331  14.695   9.798  10.697
95164SOL    HW287332  14.776   9.690  10.766
95165SOL     OW87333   5.961   2.257  13.789
95165SOL    HW187334   6.020   2.289  13.721
95165SOL    HW287335   6.003   2.179  13.823
95166SOL     OW87336   3.130   5.579   1.806
95166SOL    HW187337   3.055   5.530   1.840
95166SOL    HW287338   3.198   5.570   1.873
95167SOL     OW87339   4.214   0.985  11.144
95167SOL    HW187340   4.216   0.969  11.238
95167SOL    HW287341   4.307   0.990  11.119
95168SOL     OW87342   9.956   9.731  12.044
95168SOL    HW187343   9.916   9.750  11.959
95168SOL    HW287344  10.028   9.793  12.051
95169SOL     OW87345  12.908   3.933   0.869
95169SOL    HW187346  12.872   4.021   0.864
95169SOL    HW287347  12.962   3.933   0.948
95170SOL     OW87348  11.743   7.593   5.963
95170SOL    HW187349  11.732   7.516   5.907
95170SOL    HW287350  11.696   7.663   5.918
95171SOL     OW87351   7.125  13.631   1.493
95171SOL    HW187352   7.061  13.569   1.527
95171SOL    HW287353   7.111  13.630   1.398
95172SOL     OW87354   3.800   4.024   3.845
95172SOL    HW187355   3.785   4.076   3.766
95172SOL    HW287356   3.844   4.084   3.906
95173SOL     OW87357   5.696  10.146   4.397
95173SOL    HW187358   5.744  10.189   4.468
95173SOL    HW287359   5.731  10.187   4.317
95174SOL     OW87360   5.546  12.764   4.158
95174SOL    HW187361   5.451  12.770   4.163
95174SOL    HW287362   5.577  12.851   4.183
95175SOL     OW87363   5.687   4.084  10.452
95175SOL    HW187364   5.678   4.005  10.399
95175SOL    HW287365   5.628   4.071  10.526
95176SOL     OW87366  10.328   1.490   6.774
95176SOL    HW187367  10.403   1.430   6.782
95176SOL    HW287368  10.324   1.511   6.681
95177SOL     OW87369   6.524   1.448   7.335
95177SOL    HW187370   6.561   1.378   7.281
95177SOL    HW287371   6.600   1.490   7.374
95178SOL     OW87372  10.557  12.873  14.563
95178SOL    HW187373  10.495  12.846  14.495
95178SOL    HW287374  10.537  12.817  14.638
95179SOL     OW87375  10.884   9.229   4.558
95179SOL    HW187376  10.926   9.280   4.489
95179SOL    HW287377  10.803   9.196   4.518
95180SOL     OW87378   2.469   8.830   7.606
95180SOL    HW187379   2.403   8.832   7.537
95180SOL    HW287380   2.550   8.805   7.561
95181SOL     OW87381  13.810   2.281   6.179
95181SOL    HW187382  13.784   2.276   6.271
95181SOL    HW287383  13.864   2.204   6.165
95182SOL     OW87384  11.315   9.189   5.609
95182SOL    HW187385  11.390   9.129   5.617
95182SOL    HW287386  11.354   9.276   5.604
95183SOL     OW87387  10.578   3.394   5.767
95183SOL    HW187388  10.642   3.461   5.789
95183SOL    HW287389  10.546   3.362   5.852
95184SOL     OW87390   4.947   8.345   8.715
95184SOL    HW187391   5.037   8.317   8.732
95184SOL    HW287392   4.948   8.439   8.728
95185SOL     OW87393   9.505   2.574   6.077
95185SOL    HW187394   9.594   2.611   6.079
95185SOL    HW287395   9.502   2.514   6.151
95186SOL     OW87396   6.451   2.059   2.931
95186SOL    HW187397   6.448   1.983   2.989
95186SOL    HW287398   6.386   2.040   2.863
95187SOL     OW87399   1.711  11.589   2.523
95187SOL    HW187400   1.745  11.501   2.541
95187SOL    HW287401   1.788  11.641   2.500
95188SOL     OW87402   7.002  12.712  10.314
95188SOL    HW187403   7.026  12.651  10.245
95188SOL    HW287404   7.081  12.763  10.331
95189SOL     OW87405   0.870  13.630  10.560
95189SOL    HW187406   0.815  13.708  10.549
95189SOL    HW287407   0.808  13.557  10.566
95190SOL     OW87408   3.278   9.009   6.308
95190SOL    HW187409   3.329   8.928   6.312
95190SOL    HW287410   3.260   9.021   6.214
95191SOL     OW87411  11.123   0.305   3.650
95191SOL    HW187412  11.052   0.296   3.714
95191SOL    HW287413  11.085   0.271   3.569
95192SOL     OW87414   4.541   0.226  11.922
95192SOL    HW187415   4.521   0.176  11.843
95192SOL    HW287416   4.460   0.222  11.974
95193SOL     OW87417  13.831   2.851   4.380
95193SOL    HW187418  13.798   2.924   4.432
95193SOL    HW287419  13.848   2.781   4.444
95194SOL     OW87420  11.348   4.981   9.946
95194SOL    HW187421  11.342   5.007   9.854
95194SOL    HW287422  11.436   4.946   9.955
95195SOL     OW87423  11.954   4.317  11.463
95195SOL    HW187424  11.891   4.328  11.534
95195SOL    HW287425  12.030   4.368  11.490
95196SOL     OW87426   1.823   2.971  12.142
95196SOL    HW187427   1.866   3.041  12.191
95196SOL    HW287428   1.802   2.905  12.208
95197SOL     OW87429  11.362   3.352   4.798
95197SOL    HW187430  11.272   3.325   4.777
95197SOL    HW287431  11.363   3.446   4.783
95198SOL     OW87432   3.130   9.241   4.111
95198SOL    HW187433   3.163   9.187   4.039
95198SOL    HW287434   3.185   9.319   4.109
95199SOL     OW87435  14.516   6.168   0.601
95199SOL    HW187436  14.519   6.155   0.507
95199SOL    HW287437  14.427   6.198   0.619
95200SOL     OW87438  12.025   3.799  13.313
95200SOL    HW187439  11.992   3.835  13.230
95200SOL    HW287440  11.950   3.754  13.351
95201SOL     OW87441   8.259   7.260   5.660
95201SOL    HW187442   8.192   7.214   5.610
95201SOL    HW287443   8.336   7.261   5.602
95202SOL     OW87444  13.033   9.989  12.280
95202SOL    HW187445  13.052  10.083  12.286
95202SOL    HW287446  13.117   9.947  12.298
95203SOL     OW87447  14.137  13.206   0.964
95203SOL    HW187448  14.139  13.292   0.924
95203SOL    HW287449  14.114  13.146   0.893
95204SOL     OW87450   8.917   4.126   6.450
95204SOL    HW187451   8.904   4.065   6.378
95204SOL    HW287452   8.837   4.118   6.502
95205SOL     OW87453   3.284   5.589   5.658
95205SOL    HW187454   3.340   5.591   5.581
95205SOL    HW287455   3.238   5.674   5.657
95206SOL     OW87456   3.323   7.190   4.255
95206SOL    HW187457   3.281   7.207   4.171
95206SOL    HW287458   3.401   7.139   4.233
95207SOL     OW87459   1.334  13.105   0.422
95207SOL    HW187460   1.298  13.022   0.391
95207SOL    HW287461   1.428  13.100   0.402
95208SOL     OW87462   2.837  14.117  12.003
95208SOL    HW187463   2.899  14.048  12.027
95208SOL    HW287464   2.842  14.121  11.908
95209SOL     OW87465   7.704   9.842   9.107
95209SOL    HW187466   7.795   9.871   9.107
95209SOL    HW287467   7.704   9.762   9.159
95210SOL     OW87468  14.053   0.903   8.864
95210SOL    HW187469  13.958   0.914   8.853
95210SOL    HW287470  14.081   0.982   8.910
95211SOL     OW87471   2.591  10.043   4.310
95211SOL    HW187472   2.509  10.019   4.267
95211SOL    HW287473   2.603  10.135   4.288
95212SOL     OW87474   1.516  14.560   3.176
95212SOL    HW187475   1.440  14.530   3.126
95212SOL    HW287476   1.550  14.480   3.217
95213SOL     OW87477   1.855   5.568  12.106
95213SOL    HW187478   1.852   5.479  12.071
95213SOL    HW287479   1.947   5.594  12.100
95214SOL     OW87480   1.182   9.741  11.046
95214SOL    HW187481   1.155   9.798  11.117
95214SOL    HW287482   1.276   9.759  11.035
95215SOL     OW87483   7.890   4.920  13.892
95215SOL    HW187484   7.885   4.830  13.924
95215SOL    HW287485   7.953   4.915  13.819
95216SOL     OW87486   1.821   7.229   0.702
95216SOL    HW187487   1.888   7.188   0.647
95216SOL    HW287488   1.868   7.262   0.778
95217SOL     OW87489   7.374   1.462   2.702
95217SOL    HW187490   7.280   1.476   2.704
95217SOL    HW287491   7.412   1.548   2.683
95218SOL     OW87492   4.375   5.176  14.461
95218SOL    HW187493   4.391   5.261  14.502
95218SOL    HW287494   4.280   5.173  14.447
95219SOL     OW87495   8.748  12.985   3.201
95219SOL    HW187496   8.680  13.038   3.159
95219SOL    HW287497   8.809  13.049   3.238
95220SOL     OW87498   6.397   4.672   6.251
95220SOL    HW187499   6.364   4.681   6.341
95220SOL    HW287500   6.399   4.762   6.218
95221SOL     OW87501   7.734   0.459  13.157
95221SOL    HW187502   7.646   0.472  13.122
95221SOL    HW287503   7.789   0.521  13.108
95222SOL     OW87504   9.813   4.742   1.716
95222SOL    HW187505   9.801   4.746   1.811
95222SOL    HW287506   9.726   4.720   1.681
95223SOL     OW87507   8.868   2.291   1.007
95223SOL    HW187508   8.954   2.267   1.040
95223SOL    HW287509   8.813   2.294   1.086
95224SOL     OW87510   2.815   7.245   2.245
95224SOL    HW187511   2.789   7.337   2.252
95224SOL    HW287512   2.876   7.231   2.317
95225SOL     OW87513   1.623   9.950   9.876
95225SOL    HW187514   1.545  10.006   9.876
95225SOL    HW287515   1.660   9.959   9.789
95226SOL     OW87516   6.686  11.510  10.130
95226SOL    HW187517   6.764  11.564  10.116
95226SOL    HW287518   6.631  11.527  10.054
95227SOL     OW87519   0.570  13.224  12.648
95227SOL    HW187520   0.568  13.306  12.697
95227SOL    HW287521   0.629  13.168  12.699
95228SOL     OW87522   4.342   5.969   3.133
95228SOL    HW187523   4.271   6.020   3.096
95228SOL    HW287524   4.346   5.890   3.079
95229SOL     OW87525  14.740  10.032   6.532
95229SOL    HW187526  14.756  10.063   6.443
95229SOL    HW287527  14.820  10.052   6.579
95230SOL     OW87528  12.069  10.335   7.919
95230SOL    HW187529  12.030  10.256   7.958
95230SOL    HW287530  12.052  10.404   7.983
95231SOL     OW87531   0.372   9.413  11.931
95231SOL    HW187532   0.450   9.395  11.879
95231SOL    HW287533   0.361   9.335  11.985
95232SOL     OW87534   2.935  11.602   5.796
95232SOL    HW187535   3.026  11.570   5.801
95232SOL    HW287536   2.926  11.659   5.873
95233SOL     OW87537   7.075   1.697   0.054
95233SOL    HW187538   7.109   1.612   0.082
95233SOL    HW287539   7.068   1.689  14.833
95234SOL     OW87540   7.822   9.557   9.881
95234SOL    HW187541   7.833   9.641   9.926
95234SOL    HW287542   7.762   9.507   9.937
95235SOL     OW87543   3.119   0.288   9.457
95235SOL    HW187544   3.182   0.346   9.415
95235SOL    HW287545   3.156   0.200   9.447
95236SOL     OW87546  13.845   0.447  11.056
95236SOL    HW187547  13.937   0.433  11.080
95236SOL    HW287548  13.801   0.367  11.085
95237SOL     OW87549   9.504  10.220   4.351
95237SOL    HW187550   9.435  10.242   4.289
95237SOL    HW287551   9.565  10.166   4.302
95238SOL     OW87552  11.011   1.414   1.355
95238SOL    HW187553  10.920   1.442   1.343
95238SOL    HW287554  11.060   1.495   1.368
95239SOL     OW87555  10.194   2.512   3.646
95239SOL    HW187556  10.173   2.452   3.574
95239SOL    HW287557  10.286   2.494   3.665
95240SOL     OW87558   3.807   9.892   3.009
95240SOL    HW187559   3.735   9.859   3.061
95240SOL    HW287560   3.781   9.981   2.983
95241SOL     OW87561   4.882   5.760   0.223
95241SOL    HW187562   4.787   5.754   0.225
95241SOL    HW287563   4.912   5.669   0.214
95242SOL     OW87564   1.334   6.972  11.442
95242SOL    HW187565   1.371   7.054  11.409
95242SOL    HW287566   1.240   6.988  11.445
95243SOL     OW87567   2.393  12.404  13.266
95243SOL    HW187568   2.304  12.384  13.296
95243SOL    HW287569   2.415  12.486  13.310
95244SOL     OW87570  10.563  12.386   6.987
95244SOL    HW187571  10.523  12.381   7.074
95244SOL    HW287572  10.579  12.295   6.962
95245SOL     OW87573   6.356  10.112   0.306
95245SOL    HW187574   6.284  10.128   0.367
95245SOL    HW287575   6.314  10.072   0.230
95246SOL     OW87576   7.328  12.157  14.783
95246SOL    HW187577   7.423  12.143  14.782
95246SOL    HW287578   7.308  12.193  14.697
95247SOL     OW87579  10.713   8.479  11.910
95247SOL    HW187580  10.737   8.571  11.911
95247SOL    HW287581  10.794   8.432  11.892
95248SOL     OW87582  13.609  14.646   9.445
95248SOL    HW187583  13.516  14.634   9.464
95248SOL    HW287584  13.617  14.736   9.414
95249SOL     OW87585  11.709   0.355  10.834
95249SOL    HW187586  11.762   0.308  10.770
95249SOL    HW287587  11.629   0.303  10.842
95250SOL     OW87588  11.490  13.962   6.946
95250SOL    HW187589  11.422  14.004   6.998
95250SOL    HW287590  11.450  13.880   6.916
95251SOL     OW87591   7.267   8.867   7.678
95251SOL    HW187592   7.351   8.895   7.642
95251SOL    HW287593   7.255   8.923   7.755
95252SOL     OW87594  13.420   7.817  13.548
95252SOL    HW187595  13.494   7.770  13.584
95252SOL    HW287596  13.443   7.909  13.557
95253SOL     OW87597   6.226  13.868   0.386
95253SOL    HW187598   6.209  13.798   0.448
95253SOL    HW287599   6.139  13.900   0.361
95254SOL     OW87600  10.100   9.320   6.345
95254SOL    HW187601  10.092   9.363   6.430
95254SOL    HW287602  10.095   9.391   6.281
95255SOL     OW87603   5.247   6.590   1.338
95255SOL    HW187604   5.317   6.526   1.334
95255SOL    HW287605   5.167   6.539   1.328
95256SOL     OW87606   4.717   7.810  12.808
95256SOL    HW187607   4.784   7.820  12.877
95256SOL    HW287608   4.723   7.718  12.783
95257SOL     OW87609   9.717   6.882  11.762
95257SOL    HW187610   9.755   6.833  11.835
95257SOL    HW287611   9.654   6.940  11.803
95258SOL     OW87612  11.462   9.487   2.771
95258SOL    HW187613  11.398   9.428   2.731
95258SOL    HW287614  11.409   9.555   2.812
95259SOL     OW87615   7.169   3.104  13.211
95259SOL    HW187616   7.176   3.039  13.281
95259SOL    HW287617   7.075   3.117  13.199
95260SOL     OW87618  11.731   2.169   7.831
95260SOL    HW187619  11.637   2.178   7.849
95260SOL    HW287620  11.758   2.091   7.879
95261SOL     OW87621   4.729  14.333   9.605
95261SOL    HW187622   4.712  14.292   9.690
95261SOL    HW287623   4.712  14.264   9.541
95262SOL     OW87624   2.631   0.510  13.538
95262SOL    HW187625   2.677   0.430  13.511
95262SOL    HW287626   2.630   0.506  13.634
95263SOL     OW87627   5.497  12.654   1.603
95263SOL    HW187628   5.551  12.580   1.576
95263SOL    HW287629   5.555  12.730   1.595
95264SOL     OW87630   6.984   8.720   8.967
95264SOL    HW187631   7.074   8.717   8.934
95264SOL    HW287632   6.962   8.629   8.987
95265SOL     OW87633   4.976   2.719   4.760
95265SOL    HW187634   4.911   2.679   4.702
95265SOL    HW287635   5.001   2.649   4.820
95266SOL     OW87636   4.669  13.473   1.462
95266SOL    HW187637   4.634  13.503   1.546
95266SOL    HW287638   4.678  13.379   1.473
95267SOL     OW87639   9.664   7.974   9.964
95267SOL    HW187640   9.755   7.962   9.937
95267SOL    HW287641   9.668   8.024  10.045
95268SOL     OW87642   0.888   0.028   6.492
95268SOL    HW187643   0.835  14.827   6.520
95268SOL    HW287644   0.872   0.094   6.559
95269SOL     OW87645   0.126   5.330   1.824
95269SOL    HW187646   0.063   5.396   1.795
95269SOL    HW287647   0.211   5.373   1.815
95270SOL     OW87648   9.294   1.680   1.365
95270SOL    HW187649   9.262   1.647   1.449
95270SOL    HW287650   9.383   1.711   1.384
95271SOL     OW87651   2.278   7.553  11.510
95271SOL    HW187652   2.291   7.524  11.600
95271SOL    HW287653   2.288   7.648  11.514
95272SOL     OW87654   9.894   6.548  14.706
95272SOL    HW187655   9.862   6.622  14.654
95272SOL    HW287656   9.824   6.529  14.768
95273SOL     OW87657   3.643  10.841  14.787
95273SOL    HW187658   3.659  10.802  14.701
95273SOL    HW287659   3.600  10.925  14.768
95274SOL     OW87660   6.839   9.963  12.638
95274SOL    HW187661   6.792  10.044  12.620
95274SOL    HW287662   6.931   9.984  12.622
95275SOL     OW87663  10.053  11.139  10.479
95275SOL    HW187664  10.068  11.215  10.536
95275SOL    HW287665   9.967  11.155  10.441
95276SOL     OW87666   9.545  13.169   0.999
95276SOL    HW187667   9.623  13.224   0.993
95276SOL    HW287668   9.485  13.218   1.055
95277SOL     OW87669  11.688   9.949  11.452
95277SOL    HW187670  11.730   9.992  11.527
95277SOL    HW287671  11.761   9.915  11.400
95278SOL     OW87672   0.769  14.819   9.016
95278SOL    HW187673   0.849  14.772   8.992
95278SOL    HW287674   0.726  14.762   9.080
95279SOL     OW87675   2.647  13.795  13.431
95279SOL    HW187676   2.692  13.856  13.489
95279SOL    HW287677   2.699  13.795  13.351
95280SOL     OW87678   0.495   6.585  10.882
95280SOL    HW187679   0.491   6.499  10.924
95280SOL    HW287680   0.406   6.600  10.850
95281SOL     OW87681  11.545   1.907   4.384
95281SOL    HW187682  11.636   1.891   4.409
95281SOL    HW287683  11.542   2.001   4.366
95282SOL     OW87684  12.745   1.339   4.058
95282SOL    HW187685  12.832   1.340   4.098
95282SOL    HW287686  12.736   1.250   4.023
95283SOL     OW87687  12.166   1.536   8.513
95283SOL    HW187688  12.095   1.482   8.547
95283SOL    HW287689  12.216   1.561   8.590
95284SOL     OW87690   1.934   5.876   1.406
95284SOL    HW187691   2.009   5.936   1.403
95284SOL    HW287692   1.954   5.818   1.480
95285SOL     OW87693   7.957  13.232   4.392
95285SOL    HW187694   7.923  13.253   4.479
95285SOL    HW287695   8.009  13.308   4.366
95286SOL     OW87696   1.075   6.590  10.716
95286SOL    HW187697   1.132   6.521  10.683
95286SOL    HW287698   1.010   6.543  10.769
95287SOL     OW87699  13.195  10.685  12.244
95287SOL    HW187700  13.238  10.743  12.180
95287SOL    HW287701  13.267  10.641  12.289
95288SOL     OW87702  11.769   4.303   9.089
95288SOL    HW187703  11.773   4.249   9.010
95288SOL    HW287704  11.722   4.382   9.062
95289SOL     OW87705   8.482  14.172   4.582
95289SOL    HW187706   8.506  14.250   4.532
95289SOL    HW287707   8.497  14.099   4.522
95290SOL     OW87708  12.230  14.812   1.535
95290SOL    HW187709  12.143  14.833   1.568
95290SOL    HW287710  12.283  14.796   1.613
95291SOL     OW87711   7.792   1.212   1.920
95291SOL    HW187712   7.886   1.212   1.904
95291SOL    HW287713   7.774   1.129   1.963
95292SOL     OW87714   3.550  10.708   3.918
95292SOL    HW187715   3.550  10.613   3.935
95292SOL    HW287716   3.573  10.747   4.003
95293SOL     OW87717   4.319  11.396  12.856
95293SOL    HW187718   4.258  11.354  12.796
95293SOL    HW287719   4.320  11.488  12.828
95294SOL     OW87720  11.815  14.436   7.385
95294SOL    HW187721  11.830  14.435   7.290
95294SOL    HW287722  11.822  14.345   7.412
95295SOL     OW87723  14.621   9.966   2.883
95295SOL    HW187724  14.587   9.884   2.848
95295SOL    HW287725  14.686   9.995   2.820
95296SOL     OW87726   1.185   1.449   3.913
95296SOL    HW187727   1.184   1.407   3.999
95296SOL    HW287728   1.114   1.407   3.864
95297SOL     OW87729   0.172   8.932  10.925
95297SOL    HW187730   0.146   8.868  10.992
95297SOL    HW287731   0.189   9.013  10.974
95298SOL     OW87732   9.098   3.598   0.438
95298SOL    HW187733   9.160   3.668   0.418
95298SOL    HW287734   9.033   3.604   0.369
95299SOL     OW87735   0.028   6.396   1.159
95299SOL    HW187736  14.863   6.381   1.245
95299SOL    HW287737  14.828   6.392   1.098
95300SOL     OW87738  13.358   7.266   3.053
95300SOL    HW187739  13.371   7.177   3.087
95300SOL    HW287740  13.344   7.319   3.131
95301SOL     OW87741  11.116  10.585   4.170
95301SOL    HW187742  11.119  10.672   4.208
95301SOL    HW287743  11.081  10.598   4.082
95302SOL     OW87744  13.700   7.948  14.739
95302SOL    HW187745  13.650   8.026  14.713
95302SOL    HW287746  13.725   7.906  14.657
95303SOL     OW87747   6.475   7.652  14.297
95303SOL    HW187748   6.452   7.744  14.283
95303SOL    HW287749   6.481   7.643  14.392
95304SOL     OW87750  13.398  11.136  12.124
95304SOL    HW187751  13.372  11.226  12.144
95304SOL    HW287752  13.475  11.121  12.180
95305SOL     OW87753  13.278  10.739   8.345
95305SOL    HW187754  13.224  10.661   8.353
95305SOL    HW287755  13.361  10.708   8.309
95306SOL     OW87756  14.602  10.425  12.021
95306SOL    HW187757  14.660  10.434  11.945
95306SOL    HW287758  14.661  10.406  12.093
95307SOL     OW87759  10.044   6.989  13.596
95307SOL    HW187760  10.089   7.025  13.673
95307SOL    HW287761  10.111   6.993  13.527
95308SOL     OW87762  11.503   8.603   4.266
95308SOL    HW187763  11.502   8.620   4.172
95308SOL    HW287764  11.593   8.577   4.285
95309SOL     OW87765   5.501   8.422   4.400
95309SOL    HW187766   5.498   8.496   4.338
95309SOL    HW287767   5.568   8.447   4.463
95310SOL     OW87768   9.151  12.040   3.108
95310SOL    HW187769   9.211  11.972   3.140
95310SOL    HW287770   9.173  12.117   3.160
95311SOL     OW87771   3.207   3.075  13.324
95311SOL    HW187772   3.149   3.105  13.254
95311SOL    HW287773   3.170   2.992  13.353
95312SOL     OW87774   9.746   8.093  12.954
95312SOL    HW187775   9.657   8.070  12.929
95312SOL    HW287776   9.802   8.042  12.894
95313SOL     OW87777   1.996  10.421   6.636
95313SOL    HW187778   1.971  10.352   6.697
95313SOL    HW287779   2.011  10.376   6.554
95314SOL     OW87780   3.450   6.403   0.356
95314SOL    HW187781   3.484   6.314   0.347
95314SOL    HW287782   3.419   6.426   0.269
95315SOL     OW87783  10.364   5.929  10.688
95315SOL    HW187784  10.341   6.014  10.725
95315SOL    HW287785  10.321   5.928  10.602
95316SOL     OW87786   6.039   9.289  13.367
95316SOL    HW187787   6.003   9.342  13.296
95316SOL    HW287788   6.003   9.330  13.446
95317SOL     OW87789   2.018   0.370  11.804
95317SOL    HW187790   1.947   0.362  11.741
95317SOL    HW287791   2.004   0.298  11.865
95318SOL     OW87792   8.898   1.367   4.607
95318SOL    HW187793   8.943   1.296   4.561
95318SOL    HW287794   8.896   1.439   4.543
95319SOL     OW87795   8.327   8.807   2.182
95319SOL    HW187796   8.321   8.866   2.107
95319SOL    HW287797   8.385   8.737   2.153
95320SOL     OW87798  12.262   4.897  12.266
95320SOL    HW187799  12.208   4.906  12.345
95320SOL    HW287800  12.323   4.971  12.271
95321SOL     OW87801   5.391   6.787   0.176
95321SOL    HW187802   5.461   6.726   0.152
95321SOL    HW287803   5.338   6.739   0.240
95322SOL     OW87804   2.248  11.306  13.698
95322SOL    HW187805   2.223  11.217  13.724
95322SOL    HW287806   2.253  11.302  13.603
95323SOL     OW87807  11.404   4.776   4.933
95323SOL    HW187808  11.368   4.864   4.929
95323SOL    HW287809  11.490   4.787   4.973
95324SOL     OW87810   0.434   4.931  11.761
95324SOL    HW187811   0.526   4.954  11.773
95324SOL    HW287812   0.394   4.946  11.846
95325SOL     OW87813  13.937   6.909   5.371
95325SOL    HW187814  13.925   6.814   5.369
95325SOL    HW287815  13.911   6.936   5.459
95326SOL     OW87816   7.203   8.646  11.447
95326SOL    HW187817   7.168   8.682  11.365
95326SOL    HW287818   7.127   8.613  11.494
95327SOL     OW87819   4.398  13.417  12.661
95327SOL    HW187820   4.420  13.431  12.753
95327SOL    HW287821   4.437  13.492  12.615
95328SOL     OW87822  14.380  11.216   8.408
95328SOL    HW187823  14.454  11.155   8.410
95328SOL    HW287824  14.386  11.258   8.322
95329SOL     OW87825   5.981   5.420   2.944
95329SOL    HW187826   5.906   5.424   3.003
95329SOL    HW287827   6.047   5.369   2.991
95330SOL     OW87828   7.074   3.772  12.140
95330SOL    HW187829   7.099   3.792  12.230
95330SOL    HW287830   7.155   3.739  12.100
95331SOL     OW87831   2.461   8.013  14.448
95331SOL    HW187832   2.528   7.948  14.471
95331SOL    HW287833   2.496   8.057  14.371
95332SOL     OW87834   0.555   1.163   5.282
95332SOL    HW187835   0.537   1.156   5.376
95332SOL    HW287836   0.574   1.073   5.255
95333SOL     OW87837  14.423   9.485   6.795
95333SOL    HW187838  14.417   9.526   6.881
95333SOL    HW287839  14.366   9.408   6.801
95334SOL     OW87840   0.071   4.040  11.776
95334SOL    HW187841   0.090   3.996  11.858
95334SOL    HW287842   0.152   4.031  11.725
95335SOL     OW87843  12.529   5.729  13.888
95335SOL    HW187844  12.510   5.823  13.889
95335SOL    HW287845  12.452   5.688  13.927
95336SOL     OW87846   0.049  14.560   9.645
95336SOL    HW187847   0.006  14.490   9.595
95336SOL    HW287848   0.083  14.619   9.578
95337SOL     OW87849   3.109  10.809   6.827
95337SOL    HW187850   3.066  10.831   6.744
95337SOL    HW287851   3.102  10.889   6.879
95338SOL     OW87852  12.822   6.998   8.016
95338SOL    HW187853  12.785   7.081   7.986
95338SOL    HW287854  12.848   6.953   7.936
95339SOL     OW87855   1.250  12.465   6.252
95339SOL    HW187856   1.229  12.534   6.315
95339SOL    HW287857   1.216  12.498   6.169
95340SOL     OW87858  12.529   7.438   1.566
95340SOL    HW187859  12.561   7.514   1.615
95340SOL    HW287860  12.437   7.459   1.548
95341SOL     OW87861   3.370   4.571   6.884
95341SOL    HW187862   3.403   4.545   6.798
95341SOL    HW287863   3.433   4.636   6.915
95342SOL     OW87864  14.821   8.460   2.469
95342SOL    HW187865  14.862   8.398   2.408
95342SOL    HW287866  14.745   8.412   2.502
95343SOL     OW87867  14.792   2.835  10.890
95343SOL    HW187868  14.785   2.890  10.812
95343SOL    HW287869  14.784   2.745  10.856
95344SOL     OW87870   2.672   9.285  11.302
95344SOL    HW187871   2.666   9.341  11.379
95344SOL    HW287872   2.581   9.269  11.276
95345SOL     OW87873   9.136   3.202   2.386
95345SOL    HW187874   9.063   3.177   2.443
95345SOL    HW287875   9.213   3.167   2.431
95346SOL     OW87876  12.218   7.248   0.319
95346SOL    HW187877  12.268   7.178   0.361
95346SOL    HW287878  12.127   7.228   0.339
95347SOL     OW87879   9.302   8.616   7.240
95347SOL    HW187880   9.272   8.577   7.322
95347SOL    HW287881   9.323   8.542   7.184
95348SOL     OW87882   9.518   2.588   9.971
95348SOL    HW187883   9.512   2.644  10.048
95348SOL    HW287884   9.513   2.499  10.006
95349SOL     OW87885  11.518   7.263   6.070
95349SOL    HW187886  11.506   7.229   6.158
95349SOL    HW287887  11.599   7.314   6.074
95350SOL     OW87888  10.760   9.790  14.835
95350SOL    HW187889  10.729   9.716   0.014
95350SOL    HW287890  10.730   9.867   0.009
95351SOL     OW87891   2.661   2.310   7.734
95351SOL    HW187892   2.741   2.266   7.706
95351SOL    HW287893   2.591   2.268   7.683
95352SOL     OW87894  10.242  14.089  14.321
95352SOL    HW187895  10.168  14.112  14.266
95352SOL    HW287896  10.318  14.122  14.274
95353SOL     OW87897   1.932   9.754  12.583
95353SOL    HW187898   2.027   9.744  12.587
95353SOL    HW287899   1.897   9.670  12.613
95354SOL     OW87900   2.663   5.800   0.748
95354SOL    HW187901   2.641   5.821   0.657
95354SOL    HW287902   2.698   5.711   0.744
95355SOL     OW87903   8.729  13.376  11.577
95355SOL    HW187904   8.668  13.315  11.534
95355SOL    HW287905   8.677  13.453  11.596
95356SOL     OW87906   6.885   9.650   4.876
95356SOL    HW187907   6.822   9.614   4.939
95356SOL    HW287908   6.903   9.738   4.907
95357SOL     OW87909   9.927  11.414  13.214
95357SOL    HW187910   9.957  11.410  13.305
95357SOL    HW287911   9.871  11.492  13.210
95358SOL     OW87912   0.636   3.273   0.799
95358SOL    HW187913   0.718   3.241   0.837
95358SOL    HW287914   0.654   3.280   0.705
95359SOL     OW87915  13.920   2.043  14.013
95359SOL    HW187916  13.825   2.058  14.021
95359SOL    HW287917  13.927   1.960  13.967
95360SOL     OW87918   3.077  11.712   4.647
95360SOL    HW187919   3.113  11.665   4.723
95360SOL    HW287920   2.983  11.695   4.651
95361SOL     OW87921   2.396   5.202   5.543
95361SOL    HW187922   2.367   5.266   5.608
95361SOL    HW287923   2.482   5.173   5.575
95362SOL     OW87924   4.382  11.578  14.535
95362SOL    HW187925   4.354  11.659  14.492
95362SOL    HW287926   4.435  11.533  14.469
95363SOL     OW87927   4.874   5.370   5.626
95363SOL    HW187928   4.833   5.407   5.548
95363SOL    HW287929   4.964   5.402   5.624
95364SOL     OW87930   8.836   8.425   3.964
95364SOL    HW187931   8.796   8.348   3.924
95364SOL    HW287932   8.856   8.483   3.891
95365SOL     OW87933   8.591  11.225  10.217
95365SOL    HW187934   8.686  11.213  10.220
95365SOL    HW287935   8.567  11.252  10.305
95366SOL     OW87936   3.980  13.015  11.986
95366SOL    HW187937   3.998  12.925  12.012
95366SOL    HW287938   4.041  13.033  11.914
95367SOL     OW87939  13.981   0.159  12.282
95367SOL    HW187940  13.922   0.217  12.233
95367SOL    HW287941  13.996   0.085  12.224
95368SOL     OW87942   8.443   8.694   3.757
95368SOL    HW187943   8.391   8.711   3.678
95368SOL    HW287944   8.509   8.631   3.729
95369SOL     OW87945   6.695  11.712   5.953
95369SOL    HW187946   6.643  11.685   6.029
95369SOL    HW287947   6.630  11.725   5.883
95370SOL     OW87948   9.536   7.585   5.734
95370SOL    HW187949   9.568   7.612   5.648
95370SOL    HW287950   9.444   7.610   5.734
95371SOL     OW87951   7.710   4.982   2.558
95371SOL    HW187952   7.646   4.964   2.628
95371SOL    HW287953   7.739   4.895   2.530
95372SOL     OW87954   6.591  13.015   5.703
95372SOL    HW187955   6.504  12.977   5.697
95372SOL    HW287956   6.582  13.087   5.766
95373SOL     OW87957   6.960  13.984  11.804
95373SOL    HW187958   6.971  14.021  11.717
95373SOL    HW287959   6.938  14.059  11.859
95374SOL     OW87960   6.771   4.989   3.510
95374SOL    HW187961   6.687   5.007   3.468
95374SOL    HW287962   6.813   5.075   3.517
95375SOL     OW87963   2.424   9.146  13.665
95375SOL    HW187964   2.489   9.080  13.691
95375SOL    HW287965   2.371   9.159  13.744
95376SOL     OW87966   3.479  10.650   1.114
95376SOL    HW187967   3.521  10.569   1.085
95376SOL    HW287968   3.385  10.631   1.107
95377SOL     OW87969   1.443   4.315  14.566
95377SOL    HW187970   1.474   4.357  14.647
95377SOL    HW287971   1.509   4.249  14.547
95378SOL     OW87972   3.140   1.132   4.057
95378SOL    HW187973   3.133   1.119   4.152
95378SOL    HW287974   3.072   1.197   4.038
95379SOL     OW87975   5.645   3.868   8.324
95379SOL    HW187976   5.593   3.815   8.263
95379SOL    HW287977   5.589   3.944   8.342
95380SOL     OW87978   5.799   1.535   4.521
95380SOL    HW187979   5.811   1.446   4.553
95380SOL    HW287980   5.745   1.578   4.587
95381SOL     OW87981   1.167   0.812   1.005
95381SOL    HW187982   1.160   0.905   1.026
95381SOL    HW287983   1.081   0.776   1.028
95382SOL     OW87984   0.479   2.736   8.907
95382SOL    HW187985   0.498   2.775   8.992
95382SOL    HW287986   0.441   2.651   8.928
95383SOL     OW87987   4.697  13.203   1.440
95383SOL    HW187988   4.633  13.144   1.400
95383SOL    HW287989   4.780  13.180   1.399
95384SOL     OW87990  10.228   1.514   9.227
95384SOL    HW187991  10.191   1.425   9.224
95384SOL    HW287992  10.305   1.508   9.170
95385SOL     OW87993   2.184   1.318  14.022
95385SOL    HW187994   2.099   1.346  14.054
95385SOL    HW287995   2.218   1.394  13.975
95386SOL     OW87996   4.715   4.535   8.163
95386SOL    HW187997   4.630   4.549   8.120
95386SOL    HW287998   4.756   4.621   8.165
95387SOL     OW87999   2.402   7.084   2.960
95387SOL    HW188000   2.325   7.046   3.003
95387SOL    HW288001   2.466   7.013   2.959
95388SOL     OW88002   1.100   6.165   0.741
95388SOL    HW188003   1.064   6.176   0.652
95388SOL    HW288004   1.046   6.095   0.779
95389SOL     OW88005   5.338   4.393  14.422
95389SOL    HW188006   5.347   4.305  14.386
95389SOL    HW288007   5.396   4.448  14.368
95390SOL     OW88008   4.285   2.505   0.946
95390SOL    HW188009   4.318   2.577   1.001
95390SOL    HW288010   4.286   2.429   1.004
95391SOL     OW88011   1.736  13.941  13.969
95391SOL    HW188012   1.779  13.903  13.892
95391SOL    HW288013   1.703  13.865  14.017
95392SOL     OW88014   4.310   2.043  13.429
95392SOL    HW188015   4.387   2.042  13.373
95392SOL    HW288016   4.237   2.056  13.368
95393SOL     OW88017   8.736   4.791   6.032
95393SOL    HW188018   8.799   4.863   6.031
95393SOL    HW288019   8.651   4.834   6.027
95394SOL     OW88020   7.785  14.217   2.128
95394SOL    HW188021   7.698  14.181   2.144
95394SOL    HW288022   7.789  14.296   2.182
95395SOL     OW88023   3.541   9.777  11.941
95395SOL    HW188024   3.575   9.850  11.992
95395SOL    HW288025   3.579   9.699  11.982
95396SOL     OW88026   0.729   6.678  11.035
95396SOL    HW188027   0.766   6.750  10.984
95396SOL    HW288028   0.657   6.644  10.982
95397SOL     OW88029   1.140  13.475   0.705
95397SOL    HW188030   1.095  13.560   0.704
95397SOL    HW288031   1.097  13.426   0.775
95398SOL     OW88032   8.716   8.998  10.906
95398SOL    HW188033   8.694   8.955  10.824
95398SOL    HW288034   8.751   9.083  10.880
95399SOL     OW88035   0.959   4.457   3.783
95399SOL    HW188036   1.047   4.493   3.795
95399SOL    HW288037   0.972   4.379   3.729
95400SOL     OW88038   8.342  12.653   9.864
95400SOL    HW188039   8.328  12.638   9.770
95400SOL    HW288040   8.344  12.748   9.872
95401SOL     OW88041   0.896   5.081   1.613
95401SOL    HW188042   0.922   5.015   1.548
95401SOL    HW288043   0.890   5.032   1.695
95402SOL     OW88044  13.700   8.139   1.532
95402SOL    HW188045  13.663   8.077   1.469
95402SOL    HW288046  13.750   8.085   1.593
95403SOL     OW88047   9.798  12.001   6.696
95403SOL    HW188048   9.796  12.025   6.603
95403SOL    HW288049   9.882  12.033   6.728
95404SOL     OW88050   2.153  11.658   8.742
95404SOL    HW188051   2.185  11.573   8.711
95404SOL    HW288052   2.182  11.662   8.833
95405SOL     OW88053   0.668   1.653   1.520
95405SOL    HW188054   0.661   1.695   1.606
95405SOL    HW288055   0.593   1.594   1.517
95406SOL     OW88056  14.791  13.980   7.342
95406SOL    HW188057   0.010  13.989   7.323
95406SOL    HW288058  14.751  13.956   7.259
95407SOL     OW88059   5.667   7.334   9.557
95407SOL    HW188060   5.702   7.387   9.629
95407SOL    HW288061   5.688   7.244   9.580
95408SOL     OW88062  12.905   3.924  13.870
95408SOL    HW188063  12.925   4.008  13.829
95408SOL    HW288064  12.951   3.927  13.954
95409SOL     OW88065  13.744  10.071   7.519
95409SOL    HW188066  13.708  10.150   7.479
95409SOL    HW288067  13.811  10.041   7.458
95410SOL     OW88068   5.665   8.404  14.094
95410SOL    HW188069   5.668   8.315  14.132
95410SOL    HW288070   5.596   8.448  14.143
95411SOL     OW88071  11.841  14.476  11.631
95411SOL    HW188072  11.867  14.384  11.638
95411SOL    HW288073  11.761  14.474  11.579
95412SOL     OW88074   3.683   2.812  14.833
95412SOL    HW188075   3.605   2.820   0.014
95412SOL    HW288076   3.755   2.802   0.021
95413SOL     OW88077   3.972  14.559   8.205
95413SOL    HW188078   4.005  14.557   8.116
95413SOL    HW288079   4.019  14.631   8.247
95414SOL     OW88080   7.989   0.480   4.059
95414SOL    HW188081   7.990   0.480   3.963
95414SOL    HW288082   8.059   0.419   4.083
95415SOL     OW88083   5.358   2.932  14.112
95415SOL    HW188084   5.433   2.960  14.164
95415SOL    HW288085   5.321   2.858  14.161
95416SOL     OW88086  13.104  10.573   7.975
95416SOL    HW188087  13.179  10.587   8.033
95416SOL    HW288088  13.027  10.586   8.031
95417SOL     OW88089  12.278  13.646   8.093
95417SOL    HW188090  12.305  13.686   8.011
95417SOL    HW288091  12.252  13.557   8.069
95418SOL     OW88092   5.481   5.192  10.058
95418SOL    HW188093   5.450   5.278  10.088
95418SOL    HW288094   5.568   5.209  10.023
95419SOL     OW88095   1.179  12.769   4.510
95419SOL    HW188096   1.099  12.817   4.488
95419SOL    HW288097   1.212  12.812   4.589
95420SOL     OW88098  13.351   4.312  14.802
95420SOL    HW188099  13.399   4.260  14.866
95420SOL    HW288100  13.340   4.253  14.727
95421SOL     OW88101   4.660  12.113   4.372
95421SOL    HW188102   4.633  12.197   4.409
95421SOL    HW288103   4.755  12.120   4.362
95422SOL     OW88104   0.102  10.460  12.126
95422SOL    HW188105   0.042  10.524  12.164
95422SOL    HW288106   0.080  10.377  12.169
95423SOL     OW88107  10.756   7.809   7.698
95423SOL    HW188108  10.764   7.719   7.731
95423SOL    HW288109  10.664   7.817   7.673
95424SOL     OW88110   2.193  10.069  14.182
95424SOL    HW188111   2.197   9.992  14.239
95424SOL    HW288112   2.255  10.049  14.111
95425SOL     OW88113   4.755   9.733   4.989
95425SOL    HW188114   4.846   9.707   4.998
95425SOL    HW288115   4.759   9.820   4.948
95426SOL     OW88116   4.586   7.561   4.997
95426SOL    HW188117   4.629   7.633   5.043
95426SOL    HW288118   4.492   7.579   5.008
95427SOL     OW88119   5.761   2.746   3.305
95427SOL    HW188120   5.679   2.761   3.352
95427SOL    HW288121   5.825   2.726   3.374
95428SOL     OW88122   5.508   5.339   8.246
95428SOL    HW188123   5.597   5.360   8.216
95428SOL    HW288124   5.509   5.360   8.340
95429SOL     OW88125   4.968   0.418  10.338
95429SOL    HW188126   5.025   0.488  10.306
95429SOL    HW288127   4.901   0.409  10.270
95430SOL     OW88128  13.945  11.982  11.204
95430SOL    HW188129  13.856  12.000  11.173
95430SOL    HW288130  13.933  11.920  11.277
95431SOL     OW88131  14.365   5.070   0.904
95431SOL    HW188132  14.306   5.141   0.880
95431SOL    HW288133  14.367   5.014   0.826
95432SOL     OW88134   2.584  11.452  13.746
95432SOL    HW188135   2.492  11.476  13.758
95432SOL    HW288136   2.587  11.358  13.767
95433SOL     OW88137   2.227   0.285   7.858
95433SOL    HW188138   2.145   0.309   7.817
95433SOL    HW288139   2.223   0.189   7.866
95434SOL     OW88140  12.271   1.997   2.637
95434SOL    HW188141  12.306   2.013   2.725
95434SOL    HW288142  12.264   1.902   2.631
95435SOL     OW88143   2.609  13.376   3.805
95435SOL    HW188144   2.529  13.376   3.857
95435SOL    HW288145   2.672  13.426   3.856
95436SOL     OW88146   6.867   5.941   8.822
95436SOL    HW188147   6.883   5.997   8.898
95436SOL    HW288148   6.780   5.965   8.792
95437SOL     OW88149   3.262   5.428  10.104
95437SOL    HW188150   3.252   5.333  10.114
95437SOL    HW288151   3.335   5.438  10.043
95438SOL     OW88152   5.056   8.713   4.616
95438SOL    HW188153   5.046   8.808   4.607
95438SOL    HW288154   4.975   8.683   4.656
95439SOL     OW88155   4.315   0.007   7.003
95439SOL    HW188156   4.293   0.085   7.054
95439SOL    HW288157   4.348   0.040   6.920
95440SOL     OW88158   2.578   5.283  10.256
95440SOL    HW188159   2.591   5.212  10.318
95440SOL    HW288160   2.487   5.311  10.270
95441SOL     OW88161   7.842   5.563   3.527
95441SOL    HW188162   7.821   5.471   3.514
95441SOL    HW288163   7.757   5.607   3.529
95442SOL     OW88164   1.721   6.031   4.314
95442SOL    HW188165   1.725   6.124   4.294
95442SOL    HW288166   1.743   6.025   4.407
95443SOL     OW88167   5.073  12.066  14.098
95443SOL    HW188168   5.168  12.070  14.083
95443SOL    HW288169   5.038  12.142  14.052
95444SOL     OW88170   4.823   0.814   3.105
95444SOL    HW188171   4.780   0.802   3.020
95444SOL    HW288172   4.865   0.900   3.098
95445SOL     OW88173   7.257   2.380  13.690
95445SOL    HW188174   7.218   2.351  13.607
95445SOL    HW288175   7.188   2.429  13.733
95446SOL     OW88176   5.945   4.344  13.463
95446SOL    HW188177   6.014   4.315  13.403
95446SOL    HW288178   5.943   4.439  13.454
95447SOL     OW88179  12.805   6.789  14.570
95447SOL    HW188180  12.877   6.847  14.547
95447SOL    HW288181  12.731   6.819  14.517
95448SOL     OW88182  14.014   1.688   7.915
95448SOL    HW188183  13.936   1.641   7.886
95448SOL    HW288184  13.981   1.752   7.979
95449SOL     OW88185   4.268   4.858  10.812
95449SOL    HW188186   4.288   4.872  10.719
95449SOL    HW288187   4.181   4.896  10.824
95450SOL     OW88188   4.078   9.864   5.977
95450SOL    HW188189   4.123   9.840   6.058
95450SOL    HW288190   4.016   9.932   6.003
95451SOL     OW88191   9.844  10.591  13.580
95451SOL    HW188192   9.839  10.609  13.673
95451SOL    HW288193   9.763  10.545  13.559
95452SOL     OW88194   5.781   0.048   3.241
95452SOL    HW188195   5.721   0.122   3.256
95452SOL    HW288196   5.863   0.076   3.282
95453SOL     OW88197   3.411   0.131  12.292
95453SOL    HW188198   3.334   0.175  12.329
95453SOL    HW288199   3.438   0.187  12.220
95454SOL     OW88200  10.922   9.956  11.047
95454SOL    HW188201  10.851   9.893  11.031
95454SOL    HW288202  10.877  10.040  11.060
95455SOL     OW88203  14.820   3.247   1.231
95455SOL    HW188204  14.848   3.284   1.315
95455SOL    HW288205  14.731   3.279   1.219
95456SOL     OW88206   2.449   5.326  13.022
95456SOL    HW188207   2.452   5.357  13.112
95456SOL    HW288208   2.378   5.261  13.022
95457SOL     OW88209  12.498  13.800   4.901
95457SOL    HW188210  12.495  13.758   4.987
95457SOL    HW288211  12.591  13.810   4.882
95458SOL     OW88212   3.437   1.145   2.601
95458SOL    HW188213   3.480   1.062   2.621
95458SOL    HW288214   3.504   1.196   2.554
95459SOL     OW88215   8.351   2.239  10.245
95459SOL    HW188216   8.329   2.301  10.314
95459SOL    HW288217   8.353   2.154  10.290
95460SOL     OW88218   4.226   4.686   9.110
95460SOL    HW188219   4.155   4.664   9.050
95460SOL    HW288220   4.277   4.752   9.063
95461SOL     OW88221   7.372  14.421   9.660
95461SOL    HW188222   7.317  14.492   9.628
95461SOL    HW288223   7.382  14.438   9.753
95462SOL     OW88224   6.307   8.332   9.741
95462SOL    HW188225   6.331   8.371   9.657
95462SOL    HW288226   6.247   8.262   9.718
95463SOL     OW88227   6.603  10.332   9.866
95463SOL    HW188228   6.532  10.377   9.821
95463SOL    HW288229   6.681  10.354   9.815
95464SOL     OW88230  12.056   1.866  13.112
95464SOL    HW188231  11.991   1.818  13.163
95464SOL    HW288232  12.107   1.914  13.177
95465SOL     OW88233   1.792   1.191   6.871
95465SOL    HW188234   1.725   1.144   6.922
95465SOL    HW288235   1.741   1.242   6.807
95466SOL     OW88236  14.338   3.921   8.993
95466SOL    HW188237  14.342   3.876   8.909
95466SOL    HW288238  14.246   3.916   9.019
95467SOL     OW88239   8.220  11.324   1.829
95467SOL    HW188240   8.272  11.252   1.794
95467SOL    HW288241   8.141  11.283   1.863
95468SOL     OW88242   2.177  11.273   2.786
95468SOL    HW188243   2.095  11.301   2.826
95468SOL    HW288244   2.174  11.177   2.790
95469SOL     OW88245  12.211   6.142   9.348
95469SOL    HW188246  12.187   6.135   9.440
95469SOL    HW288247  12.141   6.196   9.309
95470SOL     OW88248   9.740  13.233  10.434
95470SOL    HW188249   9.752  13.299  10.502
95470SOL    HW288250   9.680  13.169  10.474
95471SOL     OW88251   6.161   9.708  13.073
95471SOL    HW188252   6.080   9.738  13.032
95471SOL    HW288253   6.169   9.617  13.045
95472SOL     OW88254   6.696   2.143   7.832
95472SOL    HW188255   6.623   2.199   7.805
95472SOL    HW288256   6.765   2.161   7.768
95473SOL     OW88257  12.431   5.968  13.615
95473SOL    HW188258  12.411   5.875  13.621
95473SOL    HW288259  12.507   5.973  13.557
95474SOL     OW88260   6.751   4.831   9.538
95474SOL    HW188261   6.720   4.850   9.626
95474SOL    HW288262   6.843   4.807   9.550
95475SOL     OW88263  14.141   9.986  10.759
95475SOL    HW188264  14.093  10.067  10.740
95475SOL    HW288265  14.103   9.921  10.700
95476SOL     OW88266   0.694   4.201   8.059
95476SOL    HW188267   0.607   4.220   8.023
95476SOL    HW288268   0.712   4.275   8.117
95477SOL     OW88269   1.525   0.742   5.893
95477SOL    HW188270   1.548   0.835   5.897
95477SOL    HW288271   1.556   0.714   5.806
95478SOL     OW88272   8.628   9.165  10.354
95478SOL    HW188273   8.659   9.107  10.284
95478SOL    HW288274   8.534   9.174  10.338
95479SOL     OW88275  14.252   4.534  10.673
95479SOL    HW188276  14.330   4.517  10.726
95479SOL    HW288277  14.287   4.568  10.590
95480SOL     OW88278   8.672   8.946  14.499
95480SOL    HW188279   8.607   8.964  14.567
95480SOL    HW288280   8.624   8.898  14.432
95481SOL     OW88281  11.453  13.785   2.361
95481SOL    HW188282  11.419  13.759   2.276
95481SOL    HW288283  11.544  13.756   2.360
95482SOL     OW88284   3.320   1.139   1.107
95482SOL    HW188285   3.401   1.180   1.077
95482SOL    HW288286   3.260   1.144   1.033
95483SOL     OW88287   8.511   3.056   0.195
95483SOL    HW188288   8.558   3.031   0.274
95483SOL    HW288289   8.577   3.054   0.126
95484SOL     OW88290   6.491   2.957   9.815
95484SOL    HW188291   6.512   3.014   9.889
95484SOL    HW288292   6.576   2.938   9.775
95485SOL     OW88293  13.615   2.744  12.731
95485SOL    HW188294  13.646   2.820  12.682
95485SOL    HW288295  13.621   2.770  12.823
95486SOL     OW88296  14.541  11.585   9.993
95486SOL    HW188297  14.622  11.625   9.961
95486SOL    HW288298  14.569  11.525  10.062
95487SOL     OW88299   0.570  12.853   7.662
95487SOL    HW188300   0.625  12.870   7.737
95487SOL    HW288301   0.514  12.930   7.654
95488SOL     OW88302   7.337   0.924   3.629
95488SOL    HW188303   7.378   0.841   3.653
95488SOL    HW288304   7.404   0.990   3.644
95489SOL     OW88305   8.457  10.624   1.561
95489SOL    HW188306   8.422  10.555   1.618
95489SOL    HW288307   8.385  10.687   1.552
95490SOL     OW88308  13.668  11.131   0.638
95490SOL    HW188309  13.745  11.077   0.621
95490SOL    HW288310  13.667  11.194   0.565
95491SOL     OW88311   7.700   5.306   0.238
95491SOL    HW188312   7.623   5.343   0.196
95491SOL    HW288313   7.717   5.225   0.190
95492SOL     OW88314  13.260   7.822   1.926
95492SOL    HW188315  13.297   7.895   1.877
95492SOL    HW288316  13.266   7.850   2.018
95493SOL     OW88317   8.727   4.015   5.383
95493SOL    HW188318   8.656   4.069   5.349
95493SOL    HW288319   8.732   4.037   5.476
95494SOL     OW88320   7.387  13.153   5.772
95494SOL    HW188321   7.331  13.079   5.750
95494SOL    HW288322   7.454  13.116   5.829
95495SOL     OW88323   2.278  13.392   4.474
95495SOL    HW188324   2.309  13.363   4.388
95495SOL    HW288325   2.313  13.327   4.535
95496SOL     OW88326  10.322   5.816  13.139
95496SOL    HW188327  10.312   5.722  13.121
95496SOL    HW288328  10.309   5.824  13.234
95497SOL     OW88329   4.905   5.524   7.560
95497SOL    HW188330   4.993   5.562   7.565
95497SOL    HW288331   4.870   5.554   7.476
95498SOL     OW88332   9.377   7.988   3.129
95498SOL    HW188333   9.322   7.911   3.140
95498SOL    HW288334   9.322   8.049   3.079
95499SOL     OW88335   4.655   8.455   9.880
95499SOL    HW188336   4.711   8.405   9.822
95499SOL    HW288337   4.707   8.467   9.960
95500SOL     OW88338   7.610   2.131   1.279
95500SOL    HW188339   7.543   2.158   1.216
95500SOL    HW288340   7.634   2.211   1.324
95501SOL     OW88341  12.522  14.518   7.388
95501SOL    HW188342  12.497  14.471   7.468
95501SOL    HW288343  12.442  14.561   7.360
95502SOL     OW88344   1.043   0.051  10.597
95502SOL    HW188345   0.950   0.044  10.577
95502SOL    HW288346   1.049   0.034  10.691
95503SOL     OW88347   8.801   1.268   2.749
95503SOL    HW188348   8.880   1.263   2.803
95503SOL    HW288349   8.833   1.290   2.662
95504SOL     OW88350   2.342   8.983   3.428
95504SOL    HW188351   2.386   9.066   3.445
95504SOL    HW288352   2.412   8.923   3.403
95505SOL     OW88353   4.916   6.251   5.984
95505SOL    HW188354   4.944   6.252   6.076
95505SOL    HW288355   4.833   6.205   5.984
95506SOL     OW88356   5.309   7.041   4.726
95506SOL    HW188357   5.298   7.126   4.770
95506SOL    HW288358   5.404   7.031   4.718
95507SOL     OW88359   6.086  10.189  14.572
95507SOL    HW188360   6.174  10.211  14.601
95507SOL    HW288361   6.060  10.116  14.627
95508SOL     OW88362   2.579   5.100  11.034
95508SOL    HW188363   2.529   5.023  11.058
95508SOL    HW288364   2.671   5.073  11.039
95509SOL     OW88365   9.581   6.184   2.759
95509SOL    HW188366   9.666   6.143   2.769
95509SOL    HW288367   9.600   6.273   2.729
95510SOL     OW88368  10.381  10.740   6.081
95510SOL    HW188369  10.463  10.774   6.047
95510SOL    HW288370  10.324  10.732   6.004
95511SOL     OW88371   0.375   3.793  11.341
95511SOL    HW188372   0.304   3.856  11.358
95511SOL    HW288373   0.329   3.715  11.310
95512SOL     OW88374  13.891   4.371   7.864
95512SOL    HW188375  13.884   4.416   7.949
95512SOL    HW288376  13.929   4.286   7.885
95513SOL     OW88377   3.316   3.114   5.284
95513SOL    HW188378   3.399   3.161   5.285
95513SOL    HW288379   3.337   3.029   5.247
95514SOL     OW88380   4.182   8.261  11.479
95514SOL    HW188381   4.246   8.285  11.412
95514SOL    HW288382   4.215   8.179  11.516
95515SOL     OW88383   7.060  11.444  14.195
95515SOL    HW188384   7.031  11.385  14.126
95515SOL    HW288385   7.104  11.516  14.148
95516SOL     OW88386   4.569   5.867   5.411
95516SOL    HW188387   4.538   5.781   5.439
95516SOL    HW288388   4.654   5.849   5.371
95517SOL     OW88389  10.587  10.094  11.653
95517SOL    HW188390  10.519  10.128  11.595
95517SOL    HW288391  10.586   9.999  11.638
95518SOL     OW88392   1.629   3.143  13.694
95518SOL    HW188393   1.586   3.146  13.779
95518SOL    HW288394   1.578   3.203  13.639
95519SOL     OW88395   1.040   7.087   8.859
95519SOL    HW188396   1.132   7.114   8.852
95519SOL    HW288397   1.030   7.017   8.795
95520SOL     OW88398  14.543  11.706   8.544
95520SOL    HW188399  14.635  11.708   8.519
95520SOL    HW288400  14.538  11.638   8.611
95521SOL     OW88401   0.710  12.145   9.437
95521SOL    HW188402   0.631  12.194   9.415
95521SOL    HW288403   0.763  12.147   9.358
95522SOL     OW88404  13.881   7.186  10.529
95522SOL    HW188405  13.808   7.246  10.511
95522SOL    HW288406  13.959   7.239  10.518
95523SOL     OW88407   5.969   7.163   8.708
95523SOL    HW188408   5.967   7.076   8.748
95523SOL    HW288409   6.024   7.153   8.631
95524SOL     OW88410   4.107   2.581  14.791
95524SOL    HW188411   4.081   2.540  14.709
95524SOL    HW288412   4.184   2.634  14.768
95525SOL     OW88413   2.966  13.667   0.166
95525SOL    HW188414   2.916  13.745   0.142
95525SOL    HW288415   3.049  13.701   0.199
95526SOL     OW88416   5.352  10.377   7.463
95526SOL    HW188417   5.406  10.299   7.459
95526SOL    HW288418   5.381  10.423   7.541
95527SOL     OW88419   5.825   8.401  10.342
95527SOL    HW188420   5.815   8.398  10.437
95527SOL    HW288421   5.857   8.489  10.324
95528SOL     OW88422   4.175   9.434  14.827
95528SOL    HW188423   4.251   9.406   0.005
95528SOL    HW288424   4.160   9.361  14.767
95529SOL     OW88425   2.565   0.230   7.317
95529SOL    HW188426   2.652   0.191   7.309
95529SOL    HW288427   2.504   0.157   7.308
95530SOL     OW88428   0.771   0.221   1.393
95530SOL    HW188429   0.835   0.211   1.464
95530SOL    HW288430   0.692   0.252   1.436
95531SOL     OW88431  13.249   6.986   1.933
95531SOL    HW188432  13.303   7.052   1.977
95531SOL    HW288433  13.159   7.014   1.949
95532SOL     OW88434  12.309   4.168  12.945
95532SOL    HW188435  12.347   4.082  12.966
95532SOL    HW288436  12.352   4.228  13.006
95533SOL     OW88437   7.605   2.948   1.360
95533SOL    HW188438   7.552   3.012   1.407
95533SOL    HW288439   7.664   2.912   1.426
95534SOL     OW88440   1.736   9.933   5.465
95534SOL    HW188441   1.678   9.883   5.522
95534SOL    HW288442   1.789   9.986   5.524
95535SOL     OW88443   5.377   2.306   3.646
95535SOL    HW188444   5.428   2.374   3.690
95535SOL    HW288445   5.286   2.333   3.659
95536SOL     OW88446   9.964   6.356  14.027
95536SOL    HW188447   9.939   6.280  14.079
95536SOL    HW288448  10.002   6.417  14.091
95537SOL     OW88449  12.519   4.793   8.479
95537SOL    HW188450  12.568   4.872   8.454
95537SOL    HW288451  12.581   4.743   8.533
95538SOL     OW88452  10.607   1.047  11.825
95538SOL    HW188453  10.655   1.053  11.908
95538SOL    HW288454  10.559   0.964  11.832
95539SOL     OW88455   5.585   8.370   0.859
95539SOL    HW188456   5.544   8.456   0.871
95539SOL    HW288457   5.512   8.311   0.838
95540SOL     OW88458  13.797   8.115  12.627
95540SOL    HW188459  13.801   8.028  12.586
95540SOL    HW288460  13.789   8.176  12.553
95541SOL     OW88461   9.897   1.173   1.937
95541SOL    HW188462   9.973   1.228   1.919
95541SOL    HW288463   9.824   1.220   1.897
95542SOL     OW88464   3.405   9.019  13.066
95542SOL    HW188465   3.498   9.006  13.045
95542SOL    HW288466   3.405   9.049  13.157
95543SOL     OW88467   2.293   6.924   3.207
95543SOL    HW188468   2.261   6.864   3.140
95543SOL    HW288469   2.214   6.965   3.242
95544SOL     OW88470   1.552   7.754  13.740
95544SOL    HW188471   1.635   7.790  13.772
95544SOL    HW288472   1.493   7.829  13.736
95545SOL     OW88473  14.145  11.088   1.844
95545SOL    HW188474  14.219  11.033   1.866
95545SOL    HW288475  14.158  11.167   1.897
95546SOL     OW88476   7.107  11.162   2.966
95546SOL    HW188477   7.148  11.089   2.919
95546SOL    HW288478   7.024  11.176   2.920
95547SOL     OW88479   5.031   9.417   1.141
95547SOL    HW188480   5.065   9.352   1.080
95547SOL    HW288481   5.103   9.479   1.153
95548SOL     OW88482  14.685  14.161   0.140
95548SOL    HW188483  14.712  14.103   0.210
95548SOL    HW288484  14.738  14.135   0.065
95549SOL     OW88485   2.075   6.457   7.583
95549SOL    HW188486   2.071   6.538   7.634
95549SOL    HW288487   2.098   6.486   7.495
95550SOL     OW88488   9.570   0.925   8.620
95550SOL    HW188489   9.600   0.834   8.624
95550SOL    HW288490   9.627   0.965   8.554
95551SOL     OW88491   8.224  12.848  10.606
95551SOL    HW188492   8.174  12.786  10.659
95551SOL    HW288493   8.159  12.887  10.548
95552SOL     OW88494   7.883   0.349   7.266
95552SOL    HW188495   7.942   0.327   7.338
95552SOL    HW288496   7.926   0.421   7.220
95553SOL     OW88497   1.822   5.744   8.199
95553SOL    HW188498   1.843   5.781   8.113
95553SOL    HW288499   1.789   5.818   8.250
95554SOL     OW88500   6.145   1.021   4.986
95554SOL    HW188501   6.108   0.945   5.032
95554SOL    HW288502   6.073   1.084   4.981
95555SOL     OW88503  14.790  10.971   8.000
95555SOL    HW188504  14.853  10.901   8.016
95555SOL    HW288505  14.843  11.041   7.962
95556SOL     OW88506   1.626  12.689   2.244
95556SOL    HW188507   1.672  12.652   2.168
95556SOL    HW288508   1.688  12.677   2.316
95557SOL     OW88509  12.466   5.172   5.270
95557SOL    HW188510  12.466   5.146   5.362
95557SOL    HW288511  12.457   5.267   5.272
95558SOL     OW88512   6.102   0.691  12.817
95558SOL    HW188513   6.007   0.702  12.811
95558SOL    HW288514   6.137   0.754  12.755
95559SOL     OW88515   7.616   1.216   6.096
95559SOL    HW188516   7.601   1.291   6.153
95559SOL    HW288517   7.547   1.154   6.119
95560SOL     OW88518   7.719   1.026   8.946
95560SOL    HW188519   7.776   1.020   8.868
95560SOL    HW288520   7.775   0.997   9.018
95561SOL     OW88521   9.734  14.476  10.415
95561SOL    HW188522   9.797  14.405  10.425
95561SOL    HW288523   9.788  14.554  10.402
95562SOL     OW88524   9.808   6.320   9.830
95562SOL    HW188525   9.885   6.287   9.877
95562SOL    HW288526   9.843   6.354   9.748
95563SOL     OW88527   0.912   7.700   9.247
95563SOL    HW188528   0.902   7.732   9.158
95563SOL    HW288529   0.999   7.659   9.249
95564SOL     OW88530   3.369   6.135  11.970
95564SOL    HW188531   3.375   6.042  11.947
95564SOL    HW288532   3.457   6.169  11.957
95565SOL     OW88533   9.015  10.068   1.917
95565SOL    HW188534   8.972  10.147   1.883
95565SOL    HW288535   8.945  10.018   1.958
95566SOL     OW88536  14.495   3.602  10.778
95566SOL    HW188537  14.424   3.641  10.830
95566SOL    HW288538  14.575   3.625  10.825
95567SOL     OW88539   5.230  10.172  13.523
95567SOL    HW188540   5.233  10.256  13.568
95567SOL    HW288541   5.235  10.194  13.430
95568SOL     OW88542   7.453   4.795   5.066
95568SOL    HW188543   7.468   4.758   4.979
95568SOL    HW288544   7.540   4.799   5.106
95569SOL     OW88545  12.884   2.963  13.663
95569SOL    HW188546  12.947   2.891  13.656
95569SOL    HW288547  12.908   3.022  13.592
95570SOL     OW88548   4.410   2.807  10.008
95570SOL    HW188549   4.465   2.833  10.082
95570SOL    HW288550   4.472   2.784   9.939
95571SOL     OW88551   1.552   4.938  11.357
95571SOL    HW188552   1.523   4.850  11.381
95571SOL    HW288553   1.544   4.988  11.438
95572SOL     OW88554   0.508   0.728   1.739
95572SOL    HW188555   0.486   0.805   1.792
95572SOL    HW288556   0.550   0.764   1.661
95573SOL     OW88557  14.863   7.565  14.416
95573SOL    HW188558   0.028   7.513  14.486
95573SOL    HW288559   0.060   7.575  14.352
95574SOL     OW88560   5.836   9.093   8.080
95574SOL    HW188561   5.863   9.140   8.159
95574SOL    HW288562   5.759   9.140   8.049
95575SOL     OW88563  12.745   2.022  12.626
95575SOL    HW188564  12.827   2.067  12.606
95575SOL    HW288565  12.693   2.029  12.546
95576SOL     OW88566   9.273   7.820   4.694
95576SOL    HW188567   9.303   7.855   4.778
95576SOL    HW288568   9.180   7.842   4.691
95577SOL     OW88569  12.960   1.463   6.380
95577SOL    HW188570  13.030   1.398   6.377
95577SOL    HW288571  13.007   1.547   6.386
95578SOL     OW88572   2.961   2.390   6.944
95578SOL    HW188573   2.940   2.364   6.854
95578SOL    HW288574   3.055   2.409   6.943
95579SOL     OW88575   3.265   8.470   2.166
95579SOL    HW188576   3.179   8.497   2.135
95579SOL    HW288577   3.308   8.552   2.192
95580SOL     OW88578  12.572  13.788   5.625
95580SOL    HW188579  12.654  13.804   5.672
95580SOL    HW288580  12.599  13.768   5.535
95581SOL     OW88581  13.800  10.434   8.227
95581SOL    HW188582  13.721  10.487   8.233
95581SOL    HW288583  13.834  10.430   8.316
95582SOL     OW88584   6.962   1.771   8.537
95582SOL    HW188585   6.876   1.813   8.543
95582SOL    HW288586   6.989   1.784   8.446
95583SOL     OW88587   2.236   6.690   8.446
95583SOL    HW188588   2.291   6.750   8.395
95583SOL    HW288589   2.147   6.705   8.412
95584SOL     OW88590   7.954   7.543   2.886
95584SOL    HW188591   7.904   7.614   2.846
95584SOL    HW288592   7.891   7.495   2.939
95585SOL     OW88593   1.798  12.653   2.049
95585SOL    HW188594   1.890  12.629   2.061
95585SOL    HW288595   1.800  12.724   1.985
95586SOL     OW88596  12.785   4.347   4.255
95586SOL    HW188597  12.874   4.323   4.230
95586SOL    HW288598  12.737   4.351   4.173
95587SOL     OW88599  12.866   0.376   7.653
95587SOL    HW188600  12.892   0.467   7.666
95587SOL    HW288601  12.933   0.326   7.699
95588SOL     OW88602   9.569   3.377   9.921
95588SOL    HW188603   9.564   3.472   9.913
95588SOL    HW288604   9.480   3.349   9.942
95589SOL     OW88605  13.934   5.014  11.532
95589SOL    HW188606  13.914   5.090  11.477
95589SOL    HW288607  14.015   5.038  11.577
95590SOL     OW88608   7.932  11.645   4.084
95590SOL    HW188609   8.013  11.662   4.132
95590SOL    HW288610   7.892  11.570   4.130
95591SOL     OW88611   2.513   5.228   8.309
95591SOL    HW188612   2.585   5.198   8.255
95591SOL    HW288613   2.465   5.289   8.253
95592SOL     OW88614  12.546  13.533   5.151
95592SOL    HW188615  12.607  13.469   5.187
95592SOL    HW288616  12.462  13.488   5.150
95593SOL     OW88617  14.869   0.128   5.367
95593SOL    HW188618   0.072   0.076   5.390
95593SOL    HW288619   0.031   0.212   5.337
95594SOL     OW88620   1.285  14.552   1.971
95594SOL    HW188621   1.199  14.593   1.974
95594SOL    HW288622   1.269  14.458   1.980
95595SOL     OW88623   3.705  10.365  13.872
95595SOL    HW188624   3.731  10.388  13.783
95595SOL    HW288625   3.670  10.447  13.909
95596SOL     OW88626   1.213   7.492   2.768
95596SOL    HW188627   1.226   7.440   2.847
95596SOL    HW288628   1.127   7.531   2.778
95597SOL     OW88629  10.708   6.638   5.383
95597SOL    HW188630  10.639   6.701   5.408
95597SOL    HW288631  10.720   6.651   5.289
95598SOL     OW88632   2.954  11.458   5.130
95598SOL    HW188633   2.883  11.491   5.185
95598SOL    HW288634   2.931  11.367   5.114
95599SOL     OW88635   7.062   8.826   3.940
95599SOL    HW188636   7.117   8.799   4.013
95599SOL    HW288637   7.024   8.744   3.907
95600SOL     OW88638   6.869   8.039   6.845
95600SOL    HW188639   6.829   8.107   6.900
95600SOL    HW288640   6.929   8.088   6.788
95601SOL     OW88641  11.566   2.411   6.576
95601SOL    HW188642  11.539   2.408   6.668
95601SOL    HW288643  11.488   2.440   6.529
95602SOL     OW88644   0.176  12.210  14.260
95602SOL    HW188645   0.227  12.129  14.250
95602SOL    HW288646   0.220  12.273  14.203
95603SOL     OW88647   6.916   7.453   5.465
95603SOL    HW188648   6.833   7.481   5.503
95603SOL    HW288649   6.969   7.533   5.460
95604SOL     OW88650   8.711  10.853   0.364
95604SOL    HW188651   8.625  10.856   0.406
95604SOL    HW288652   8.693  10.854   0.270
95605SOL     OW88653   9.301  13.942  14.728
95605SOL    HW188654   9.237  13.931  14.658
95605SOL    HW288655   9.267  13.891  14.801
95606SOL     OW88656  11.632   1.777   2.837
95606SOL    HW188657  11.610   1.856   2.788
95606SOL    HW288658  11.589   1.790   2.922
95607SOL     OW88659  10.127   2.693   9.168
95607SOL    HW188660  10.201   2.733   9.214
95607SOL    HW288661  10.061   2.761   9.165
95608SOL     OW88662  14.170   9.785  13.312
95608SOL    HW188663  14.095   9.759  13.259
95608SOL    HW288664  14.142   9.770  13.402
95609SOL     OW88665   8.128  10.993  13.553
95609SOL    HW188666   8.038  11.025  13.542
95609SOL    HW288667   8.152  11.017  13.642
95610SOL     OW88668   5.191   7.266   8.819
95610SOL    HW188669   5.160   7.271   8.910
95610SOL    HW288670   5.121   7.218   8.774
95611SOL     OW88671   8.149  10.374   3.001
95611SOL    HW188672   8.194  10.323   2.933
95611SOL    HW288673   8.056  10.358   2.984
95612SOL     OW88674  14.536   0.148   9.087
95612SOL    HW188675  14.597   0.173   9.157
95612SOL    HW288676  14.592   0.109   9.020
95613SOL     OW88677   8.933   7.259   2.884
95613SOL    HW188678   8.898   7.197   2.820
95613SOL    HW288679   8.866   7.263   2.953
95614SOL     OW88680  13.207  10.338   3.005
95614SOL    HW188681  13.284  10.281   3.002
95614SOL    HW288682  13.226  10.406   2.941
95615SOL     OW88683   5.839   5.479   3.204
95615SOL    HW188684   5.801   5.404   3.250
95615SOL    HW288685   5.930   5.482   3.233
95616SOL     OW88686   1.407  13.193   1.190
95616SOL    HW188687   1.341  13.173   1.256
95616SOL    HW288688   1.368  13.164   1.107
95617SOL     OW88689   6.356  11.486  13.538
95617SOL    HW188690   6.314  11.400  13.541
95617SOL    HW288691   6.284  11.546  13.515
95618SOL     OW88692  11.357  14.872  12.209
95618SOL    HW188693  11.380  14.779  12.210
95618SOL    HW288694  11.275   0.003  12.260
95619SOL     OW88695   6.938  13.106   9.009
95619SOL    HW188696   6.882  13.182   9.023
95619SOL    HW288697   6.999  13.106   9.083
95620SOL     OW88698   0.015   9.666   4.145
95620SOL    HW188699  14.802   9.658   4.185
95620SOL    HW288700   0.001   9.648   4.052
95621SOL     OW88701   9.994   1.491   9.061
95621SOL    HW188702  10.083   1.468   9.087
95621SOL    HW288703   9.988   1.468   8.968
95622SOL     OW88704   7.348   2.769  14.552
95622SOL    HW188705   7.257   2.785  14.576
95622SOL    HW288706   7.376   2.698  14.610
95623SOL     OW88707  11.077   4.456  11.421
95623SOL    HW188708  10.985   4.477  11.433
95623SOL    HW288709  11.077   4.368  11.382
95624SOL     OW88710   2.040  13.114   7.399
95624SOL    HW188711   2.023  13.052   7.327
95624SOL    HW288712   2.024  13.063   7.478
95625SOL     OW88713   7.343   9.123   8.724
95625SOL    HW188714   7.425   9.140   8.769
95625SOL    HW288715   7.367   9.113   8.632
95626SOL     OW88716  10.647  13.894   6.266
95626SOL    HW188717  10.562  13.890   6.310
95626SOL    HW288718  10.711  13.888   6.337
95627SOL     OW88719   9.975   6.444   3.881
95627SOL    HW188720  10.024   6.517   3.843
95627SOL    HW288721  10.025   6.366   3.856
95628SOL     OW88722   6.325  11.820   8.412
95628SOL    HW188723   6.396  11.861   8.462
95628SOL    HW288724   6.291  11.753   8.470
95629SOL     OW88725   9.557   2.321  11.531
95629SOL    HW188726   9.536   2.374  11.454
95629SOL    HW288727   9.619   2.255  11.499
95630SOL     OW88728   9.032   4.495   0.534
95630SOL    HW188729   9.091   4.432   0.576
95630SOL    HW288730   8.993   4.446   0.461
95631SOL     OW88731  10.386   2.757   6.738
95631SOL    HW188732  10.330   2.831   6.716
95631SOL    HW288733  10.421   2.778   6.825
95632SOL     OW88734   8.520   6.779  13.564
95632SOL    HW188735   8.530   6.827  13.646
95632SOL    HW288736   8.426   6.781  13.546
95633SOL     OW88737   4.488   0.631   3.405
95633SOL    HW188738   4.485   0.550   3.457
95633SOL    HW288739   4.569   0.623   3.354
95634SOL     OW88740   9.382  10.827   5.709
95634SOL    HW188741   9.354  10.744   5.671
95634SOL    HW288742   9.413  10.879   5.635
95635SOL     OW88743   6.962   4.555   9.991
95635SOL    HW188744   6.987   4.648   9.990
95635SOL    HW288745   6.987   4.524  10.078
95636SOL     OW88746   1.253   7.576   6.098
95636SOL    HW188747   1.241   7.624   6.180
95636SOL    HW288748   1.182   7.607   6.041
95637SOL     OW88749  14.785   5.231  10.823
95637SOL    HW188750  14.737   5.293  10.768
95637SOL    HW288751  14.764   5.258  10.912
95638SOL     OW88752  13.964   7.405   2.257
95638SOL    HW188753  14.004   7.475   2.309
95638SOL    HW288754  14.010   7.409   2.173
95639SOL     OW88755  10.830  13.205   9.685
95639SOL    HW188756  10.807  13.287   9.641
95639SOL    HW288757  10.914  13.224   9.727
95640SOL     OW88758  11.535  12.422  10.677
95640SOL    HW188759  11.588  12.344  10.662
95640SOL    HW288760  11.465  12.417  10.612
95641SOL     OW88761  12.805  14.017  10.280
95641SOL    HW188762  12.829  14.030  10.189
95641SOL    HW288763  12.717  14.055  10.288
95642SOL     OW88764  11.816   0.256   1.427
95642SOL    HW188765  11.748   0.293   1.371
95642SOL    HW288766  11.889   0.239   1.368
95643SOL     OW88767   2.029  12.089  12.497
95643SOL    HW188768   2.013  12.042  12.579
95643SOL    HW288769   1.945  12.088  12.451
95644SOL     OW88770  12.002  11.647   6.753
95644SOL    HW188771  12.081  11.658   6.806
95644SOL    HW288772  12.023  11.687   6.669
95645SOL     OW88773   9.791   1.455  13.997
95645SOL    HW188774   9.782   1.487  14.087
95645SOL    HW288775   9.702   1.456  13.962
95646SOL     OW88776  11.923   0.026  14.245
95646SOL    HW188777  11.992   0.023  14.178
95646SOL    HW288778  11.945  14.829  14.305
95647SOL     OW88779   8.825   3.684   2.877
95647SOL    HW188780   8.836   3.709   2.969
95647SOL    HW288781   8.805   3.591   2.879
95648SOL     OW88782   1.918   8.325  13.527
95648SOL    HW188783   1.874   8.410  13.538
95648SOL    HW288784   1.934   8.318  13.433
95649SOL     OW88785  12.908   1.704  13.766
95649SOL    HW188786  12.919   1.746  13.681
95649SOL    HW288787  12.816   1.679  13.769
95650SOL     OW88788   0.915  11.374   7.922
95650SOL    HW188789   0.985  11.361   7.857
95650SOL    HW288790   0.862  11.445   7.886
95651SOL     OW88791   7.404   0.667   6.566
95651SOL    HW188792   7.371   0.754   6.542
95651SOL    HW288793   7.327   0.611   6.563
95652SOL     OW88794  13.766   7.904  10.916
95652SOL    HW188795  13.808   7.824  10.883
95652SOL    HW288796  13.793   7.908  11.008
95653SOL     OW88797   1.132   5.148   0.593
95653SOL    HW188798   1.054   5.182   0.549
95653SOL    HW288799   1.100   5.075   0.646
95654SOL     OW88800   0.352  10.179   0.369
95654SOL    HW188801   0.327  10.158   0.279
95654SOL    HW288802   0.445  10.159   0.374
95655SOL     OW88803   2.309   4.159  12.411
95655SOL    HW188804   2.243   4.219  12.446
95655SOL    HW288805   2.379   4.216  12.380
95656SOL     OW88806   3.754   9.837  10.513
95656SOL    HW188807   3.741   9.900  10.442
95656SOL    HW288808   3.848   9.817  10.510
95657SOL     OW88809   5.895  10.414   3.120
95657SOL    HW188810   5.966  10.478   3.129
95657SOL    HW288811   5.825  10.448   3.175
95658SOL     OW88812   0.264  14.750   4.207
95658SOL    HW188813   0.195  14.699   4.249
95658SOL    HW288814   0.224  14.788   4.129
95659SOL     OW88815   0.786   3.410  11.792
95659SOL    HW188816   0.844   3.422  11.868
95659SOL    HW288817   0.698   3.419  11.828
95660SOL     OW88818   4.292   4.981   6.506
95660SOL    HW188819   4.361   4.919   6.530
95660SOL    HW288820   4.255   4.945   6.425
95661SOL     OW88821  14.345  14.638   6.075
95661SOL    HW188822  14.339  14.635   5.980
95661SOL    HW288823  14.361  14.731   6.095
95662SOL     OW88824  12.479  12.448  12.829
95662SOL    HW188825  12.528  12.531  12.822
95662SOL    HW288826  12.430  12.443  12.747
95663SOL     OW88827  14.364   0.168  10.301
95663SOL    HW188828  14.419   0.246  10.303
95663SOL    HW288829  14.370   0.132  10.390
95664SOL     OW88830   6.510   2.448  13.087
95664SOL    HW188831   6.499   2.354  13.100
95664SOL    HW288832   6.550   2.479  13.168
95665SOL     OW88833  13.847   5.669  14.513
95665SOL    HW188834  13.941   5.685  14.520
95665SOL    HW288835  13.835   5.635  14.424
95666SOL     OW88836  10.255   6.668  13.314
95666SOL    HW188837  10.282   6.593  13.368
95666SOL    HW288838  10.162   6.651  13.297
95667SOL     OW88839  14.231   2.213   9.419
95667SOL    HW188840  14.262   2.249   9.501
95667SOL    HW288841  14.297   2.239   9.355
95668SOL     OW88842   2.163  12.161   9.910
95668SOL    HW188843   2.109  12.207   9.974
95668SOL    HW288844   2.155  12.214   9.830
95669SOL     OW88845   3.237   3.203  14.672
95669SOL    HW188846   3.259   3.161  14.755
95669SOL    HW288847   3.261   3.295  14.684
95670SOL     OW88848   7.173   7.932   1.639
95670SOL    HW188849   7.178   8.028   1.640
95670SOL    HW288850   7.263   7.904   1.624
95671SOL     OW88851  13.328   3.119   9.308
95671SOL    HW188852  13.359   3.207   9.325
95671SOL    HW288853  13.356   3.101   9.218
95672SOL     OW88854   4.544   6.407   8.643
95672SOL    HW188855   4.618   6.453   8.683
95672SOL    HW288856   4.503   6.472   8.586
95673SOL     OW88857   5.883   4.266   1.647
95673SOL    HW188858   5.910   4.355   1.672
95673SOL    HW288859   5.915   4.256   1.557
95674SOL     OW88860   6.090   1.101   9.093
95674SOL    HW188861   6.120   1.013   9.118
95674SOL    HW288862   6.159   1.134   9.035
95675SOL     OW88863   6.150   0.179   1.976
95675SOL    HW188864   6.118   0.248   1.917
95675SOL    HW288865   6.220   0.221   2.026
95676SOL     OW88866   2.524  13.965  12.074
95676SOL    HW188867   2.443  14.016  12.068
95676SOL    HW288868   2.591  14.023  12.039
95677SOL     OW88869   3.448   2.620   1.900
95677SOL    HW188870   3.368   2.626   1.951
95677SOL    HW288871   3.472   2.711   1.881
95678SOL     OW88872   9.685   3.297  10.336
95678SOL    HW188873   9.743   3.299  10.411
95678SOL    HW288874   9.742   3.279  10.261
95679SOL     OW88875   8.522  10.973   8.494
95679SOL    HW188876   8.546  10.880   8.495
95679SOL    HW288877   8.597  11.016   8.452
95680SOL     OW88878   1.321  14.555  14.741
95680SOL    HW188879   1.320  14.649  14.725
95680SOL    HW288880   1.249  14.520  14.689
95681SOL     OW88881   5.406  10.970   1.611
95681SOL    HW188882   5.379  11.062   1.614
95681SOL    HW288883   5.326  10.922   1.588
95682SOL     OW88884   0.857  12.556  11.243
95682SOL    HW188885   0.777  12.505  11.229
95682SOL    HW288886   0.835  12.617  11.313
95683SOL     OW88887   7.520   1.470   6.828
95683SOL    HW188888   7.571   1.543   6.863
95683SOL    HW288889   7.512   1.408   6.901
95684SOL     OW88890   3.721  10.966   3.370
95684SOL    HW188891   3.742  10.877   3.342
95684SOL    HW288892   3.802  11.016   3.355
95685SOL     OW88893   8.762  10.484   7.563
95685SOL    HW188894   8.767  10.405   7.509
95685SOL    HW288895   8.669  10.505   7.567
95686SOL     OW88896   0.969  12.152  14.097
95686SOL    HW188897   0.945  12.125  14.008
95686SOL    HW288898   0.886  12.172  14.139
95687SOL     OW88899   4.447   1.479  14.428
95687SOL    HW188900   4.426   1.506  14.517
95687SOL    HW288901   4.536   1.512  14.413
95688SOL     OW88902  12.652   2.766   2.753
95688SOL    HW188903  12.634   2.673   2.738
95688SOL    HW288904  12.746   2.776   2.734
95689SOL     OW88905   9.418   4.932   6.949
95689SOL    HW188906   9.457   4.912   7.034
95689SOL    HW288907   9.493   4.951   6.892
95690SOL     OW88908   9.233   0.006  10.955
95690SOL    HW188909   9.243   0.026  11.048
95690SOL    HW288910   9.140   0.023  10.936
95691SOL     OW88911   5.601   2.303   7.230
95691SOL    HW188912   5.695   2.309   7.213
95691SOL    HW288913   5.560   2.306   7.144
95692SOL     OW88914   8.244   6.389  11.962
95692SOL    HW188915   8.201   6.426  11.885
95692SOL    HW288916   8.235   6.457  12.029
95693SOL     OW88917  12.490   3.067   4.379
95693SOL    HW188918  12.522   3.156   4.392
95693SOL    HW288919  12.534   3.015   4.446
95694SOL     OW88920   4.155   5.500   3.538
95694SOL    HW188921   4.248   5.523   3.549
95694SOL    HW288922   4.115   5.579   3.502
95695SOL     OW88923   6.057   0.857   5.251
95695SOL    HW188924   5.982   0.808   5.218
95695SOL    HW288925   6.020   0.942   5.277
95696SOL     OW88926   9.385  12.012  11.769
95696SOL    HW188927   9.432  12.006  11.852
95696SOL    HW288928   9.363  12.105  11.761
95697SOL     OW88929   9.459  13.469  10.289
95697SOL    HW188930   9.415  13.485  10.206
95697SOL    HW288931   9.477  13.556  10.323
95698SOL     OW88932   7.950   1.588  10.420
95698SOL    HW188933   7.942   1.495  10.399
95698SOL    HW288934   8.006   1.591  10.498
95699SOL     OW88935   3.648   9.534   7.588
95699SOL    HW188936   3.642   9.484   7.669
95699SOL    HW288937   3.605   9.617   7.608
95700SOL     OW88938   1.532  14.586   9.799
95700SOL    HW188939   1.606  14.538   9.761
95700SOL    HW288940   1.572  14.665   9.836
95701SOL     OW88941   1.210   5.707  12.916
95701SOL    HW188942   1.138   5.705  12.853
95701SOL    HW288943   1.180   5.650  12.987
95702SOL     OW88944   7.759  14.606   4.049
95702SOL    HW188945   7.818  14.638   4.116
95702SOL    HW288946   7.812  14.604   3.969
95703SOL     OW88947   4.957   2.196   1.000
95703SOL    HW188948   4.933   2.136   1.071
95703SOL    HW288949   4.875   2.238   0.976
95704SOL     OW88950   4.620   0.706   9.191
95704SOL    HW188951   4.700   0.654   9.188
95704SOL    HW288952   4.586   0.694   9.280
95705SOL     OW88953   2.011   6.604   0.244
95705SOL    HW188954   1.997   6.661   0.320
95705SOL    HW288955   2.104   6.613   0.225
95706SOL     OW88956  11.283   8.748   5.514
95706SOL    HW188957  11.337   8.809   5.463
95706SOL    HW288958  11.215   8.720   5.453
95707SOL     OW88959   6.058   2.971   6.572
95707SOL    HW188960   6.124   2.906   6.597
95707SOL    HW288961   6.062   3.038   6.640
95708SOL     OW88962  11.681   5.066   0.549
95708SOL    HW188963  11.619   5.009   0.596
95708SOL    HW288964  11.650   5.154   0.569
95709SOL     OW88965   5.157   3.090   6.850
95709SOL    HW188966   5.134   3.017   6.907
95709SOL    HW288967   5.247   3.112   6.874
95710SOL     OW88968   8.975   2.137   1.477
95710SOL    HW188969   8.997   2.191   1.553
95710SOL    HW288970   8.901   2.181   1.436
95711SOL     OW88971  10.413   7.964   5.873
95711SOL    HW188972  10.368   7.887   5.908
95711SOL    HW288973  10.483   7.928   5.819
95712SOL     OW88974   7.049   9.270   6.117
95712SOL    HW188975   6.965   9.311   6.135
95712SOL    HW288976   7.110   9.312   6.177
95713SOL     OW88977   5.136   9.927   3.810
95713SOL    HW188978   5.138  10.016   3.844
95713SOL    HW288979   5.127   9.872   3.888
95714SOL     OW88980  12.607  12.167   1.901
95714SOL    HW188981  12.607  12.240   1.839
95714SOL    HW288982  12.700  12.150   1.917
95715SOL     OW88983   0.075  10.422   6.733
95715SOL    HW188984   0.035  10.478   6.667
95715SOL    HW288985   0.029  10.443   6.814
95716SOL     OW88986   1.392   2.932   7.897
95716SOL    HW188987   1.432   2.963   7.978
95716SOL    HW288988   1.332   3.002   7.871
95717SOL     OW88989  12.335   1.117  13.587
95717SOL    HW188990  12.354   1.033  13.628
95717SOL    HW288991  12.251   1.143  13.625
95718SOL     OW88992  13.882   9.519  13.550
95718SOL    HW188993  13.821   9.492  13.481
95718SOL    HW288994  13.939   9.444  13.563
95719SOL     OW88995   4.891   7.413   0.856
95719SOL    HW188996   4.894   7.509   0.862
95719SOL    HW288997   4.832   7.387   0.926
95720SOL     OW88998   7.790  12.224   1.310
95720SOL    HW188999   7.884  12.229   1.296
95720SOL    HW289000   7.770  12.298   1.368
95721SOL     OW89001  12.002   4.945   9.523
95721SOL    HW189002  11.997   5.009   9.452
95721SOL    HW289003  12.095   4.939   9.543
95722SOL     OW89004   8.745  13.760   2.633
95722SOL    HW189005   8.828  13.716   2.614
95722SOL    HW289006   8.748  13.780   2.726
95723SOL     OW89007   2.786   3.551   6.388
95723SOL    HW189008   2.755   3.630   6.433
95723SOL    HW289009   2.881   3.556   6.392
95724SOL     OW89010  11.527   7.321   9.447
95724SOL    HW189011  11.484   7.379   9.510
95724SOL    HW289012  11.611   7.364   9.428
95725SOL     OW89013  11.906   3.659   5.328
95725SOL    HW189014  11.955   3.661   5.410
95725SOL    HW289015  11.945   3.728   5.275
95726SOL     OW89016   7.992   2.729   7.361
95726SOL    HW189017   7.929   2.703   7.428
95726SOL    HW289018   8.008   2.650   7.311
95727SOL     OW89019  14.336  10.937   3.601
95727SOL    HW189020  14.413  10.973   3.559
95727SOL    HW289021  14.263  10.987   3.565
95728SOL     OW89022  10.910  10.315  12.831
95728SOL    HW189023  10.866  10.357  12.756
95728SOL    HW289024  11.003  10.326  12.814
95729SOL     OW89025   6.863   0.636  14.717
95729SOL    HW189026   6.915   0.615  14.794
95729SOL    HW289027   6.926   0.671  14.654
95730SOL     OW89028   6.105  10.829  14.301
95730SOL    HW189029   6.039  10.899  14.301
95730SOL    HW289030   6.142  10.830  14.389
95731SOL     OW89031   5.980  14.258   5.824
95731SOL    HW189032   5.922  14.198   5.776
95731SOL    HW289033   6.060  14.260   5.771
95732SOL     OW89034   9.658   0.140   7.673
95732SOL    HW189035   9.687   0.201   7.740
95732SOL    HW289036   9.597   0.190   7.618
95733SOL     OW89037   1.824   9.987  10.692
95733SOL    HW189038   1.738   9.970  10.729
95733SOL    HW289039   1.885   9.949  10.756
95734SOL     OW89040   3.298   5.679   0.383
95734SOL    HW189041   3.283   5.739   0.456
95734SOL    HW289042   3.219   5.684   0.330
95735SOL     OW89043   7.440   7.464   4.821
95735SOL    HW189044   7.363   7.436   4.772
95735SOL    HW289045   7.427   7.558   4.835
95736SOL     OW89046   7.784   9.518  11.907
95736SOL    HW189047   7.796   9.583  11.838
95736SOL    HW289048   7.714   9.461  11.875
95737SOL     OW89049   9.382   8.713   2.964
95737SOL    HW189050   9.292   8.733   2.942
95737SOL    HW289051   9.414   8.660   2.891
95738SOL     OW89052  14.387   4.120   9.179
95738SOL    HW189053  14.316   4.098   9.239
95738SOL    HW289054  14.388   4.047   9.116
95739SOL     OW89055   7.116   4.025   6.089
95739SOL    HW189056   7.175   4.074   6.032
95739SOL    HW289057   7.139   3.933   6.073
95740SOL     OW89058  12.671   2.380  13.436
95740SOL    HW189059  12.648   2.428  13.357
95740SOL    HW289060  12.607   2.309  13.442
95741SOL     OW89061   3.295   3.155   1.019
95741SOL    HW189062   3.344   3.129   0.941
95741SOL    HW289063   3.223   3.209   0.985
95742SOL     OW89064   8.071  13.492  11.670
95742SOL    HW189065   7.976  13.476  11.668
95742SOL    HW289066   8.080  13.583  11.697
95743SOL     OW89067   2.144   3.403   3.985
95743SOL    HW189068   2.130   3.439   3.898
95743SOL    HW289069   2.066   3.429   4.034
95744SOL     OW89070  11.461  13.360  13.899
95744SOL    HW189071  11.507  13.301  13.959
95744SOL    HW289072  11.521  13.368  13.824
95745SOL     OW89073   4.404  14.629  13.669
95745SOL    HW189074   4.454  14.548  13.680
95745SOL    HW289075   4.431  14.661  13.582
95746SOL     OW89076   5.867   0.044   9.534
95746SOL    HW189077   5.834   0.021   9.447
95746SOL    HW289078   5.826  14.855   9.593
95747SOL     OW89079   6.200   8.673   5.605
95747SOL    HW189080   6.243   8.704   5.526
95747SOL    HW289081   6.211   8.578   5.602
95748SOL     OW89082   5.977   5.913   7.143
95748SOL    HW189083   5.964   5.911   7.048
95748SOL    HW289084   6.001   5.823   7.166
95749SOL     OW89085  11.973   3.717   0.238
95749SOL    HW189086  11.982   3.696   0.331
95749SOL    HW289087  11.940   3.806   0.236
95750SOL     OW89088  12.256   9.016   5.555
95750SOL    HW189089  12.337   9.065   5.547
95750SOL    HW289090  12.226   9.033   5.644
95751SOL     OW89091   0.746   3.800  11.756
95751SOL    HW189092   0.680   3.758  11.702
95751SOL    HW289093   0.757   3.741  11.831
95752SOL     OW89094   0.483   2.400   3.462
95752SOL    HW189095   0.552   2.394   3.529
95752SOL    HW289096   0.473   2.494   3.447
95753SOL     OW89097   7.225  11.202   8.037
95753SOL    HW189098   7.315  11.228   8.055
95753SOL    HW289099   7.172  11.263   8.088
95754SOL     OW89100   2.375  11.133   6.476
95754SOL    HW189101   2.324  11.210   6.452
95754SOL    HW289102   2.394  11.144   6.569
95755SOL     OW89103   1.055  12.084   0.781
95755SOL    HW189104   0.987  12.026   0.747
95755SOL    HW289105   1.007  12.151   0.830
95756SOL     OW89106   7.815  10.127  12.069
95756SOL    HW189107   7.748  10.163  12.011
95756SOL    HW289108   7.767  10.093  12.144
95757SOL     OW89109  12.488   4.096   0.942
95757SOL    HW189110  12.415   4.117   0.882
95757SOL    HW289111  12.445   4.071   1.024
95758SOL     OW89112  12.698  12.848   8.351
95758SOL    HW189113  12.675  12.767   8.397
95758SOL    HW289114  12.729  12.820   8.265
95759SOL     OW89115  13.308   4.335  13.867
95759SOL    HW189116  13.338   4.332  13.776
95759SOL    HW289117  13.373   4.389  13.912
95760SOL     OW89118   3.088   5.005   9.976
95760SOL    HW189119   3.101   5.053   9.894
95760SOL    HW289120   3.112   4.915   9.955
95761SOL     OW89121   3.290   0.442   8.113
95761SOL    HW189122   3.198   0.451   8.090
95761SOL    HW289123   3.307   0.513   8.174
95762SOL     OW89124   2.258   9.252  14.673
95762SOL    HW189125   2.281   9.344  14.665
95762SOL    HW289126   2.230   9.243  14.764
95763SOL     OW89127   7.719   0.458  10.128
95763SOL    HW189128   7.709   0.374  10.084
95763SOL    HW289129   7.706   0.523  10.059
95764SOL     OW89130   9.867   2.852   1.878
95764SOL    HW189131   9.840   2.937   1.913
95764SOL    HW289132   9.832   2.788   1.939
95765SOL     OW89133  11.427   9.111  11.812
95765SOL    HW189134  11.374   9.111  11.892
95765SOL    HW289135  11.481   9.033  11.821
95766SOL     OW89136  14.626   7.591   4.232
95766SOL    HW189137  14.626   7.680   4.269
95766SOL    HW289138  14.708   7.553   4.261
95767SOL     OW89139  10.290  14.112   2.307
95767SOL    HW189140  10.245  14.039   2.266
95767SOL    HW289141  10.270  14.188   2.251
95768SOL     OW89142   4.336   6.320   2.849
95768SOL    HW189143   4.309   6.385   2.914
95768SOL    HW289144   4.424   6.292   2.878
95769SOL     OW89145  13.050  11.263   2.858
95769SOL    HW189146  13.068  11.289   2.767
95769SOL    HW289147  13.019  11.343   2.900
95770SOL     OW89148  14.363   2.560   0.274
95770SOL    HW189149  14.430   2.612   0.318
95770SOL    HW289150  14.412   2.502   0.215
95771SOL     OW89151  10.925   1.284  10.884
95771SOL    HW189152  10.990   1.317  10.946
95771SOL    HW289153  10.962   1.201  10.853
95772SOL     OW89154  14.739  13.239  11.922
95772SOL    HW189155  14.760  13.333  11.918
95772SOL    HW289156  14.810  13.201  11.974
95773SOL     OW89157   5.002   3.878   9.307
95773SOL    HW189158   5.015   3.791   9.269
95773SOL    HW289159   4.948   3.862   9.384
95774SOL     OW89160   9.798   0.478  14.752
95774SOL    HW189161   9.862   0.437  14.810
95774SOL    HW289162   9.727   0.505  14.810
95775SOL     OW89163   3.285   5.761   2.317
95775SOL    HW189164   3.263   5.672   2.343
95775SOL    HW289165   3.207   5.793   2.272
95776SOL     OW89166   1.994   9.839  14.367
95776SOL    HW189167   1.924   9.851  14.302
95776SOL    HW289168   2.026   9.927  14.384
95777SOL     OW89169   0.865  10.343   1.748
95777SOL    HW189170   0.900  10.431   1.760
95777SOL    HW289171   0.826  10.344   1.661
95778SOL     OW89172   7.207   3.806  10.588
95778SOL    HW189173   7.204   3.877  10.653
95778SOL    HW289174   7.116   3.779  10.578
95779SOL     OW89175  11.890   7.288  10.193
95779SOL    HW189176  11.900   7.283  10.098
95779SOL    HW289177  11.828   7.360  10.207
95780SOL     OW89178   8.092  14.139   8.834
95780SOL    HW189179   8.019  14.107   8.887
95780SOL    HW289180   8.087  14.088   8.753
95781SOL     OW89181  14.446   1.961   4.239
95781SOL    HW189182  14.398   2.009   4.306
95781SOL    HW289183  14.411   1.872   4.244
95782SOL     OW89184   2.896   5.649   3.702
95782SOL    HW189185   2.869   5.725   3.650
95782SOL    HW289186   2.855   5.662   3.787
95783SOL     OW89187   5.297   9.206   5.837
95783SOL    HW189188   5.252   9.211   5.753
95783SOL    HW289189   5.356   9.281   5.837
95784SOL     OW89190   2.663   8.811  13.578
95784SOL    HW189191   2.645   8.878  13.643
95784SOL    HW289192   2.759   8.804  13.576
95785SOL     OW89193  11.220   3.953  10.210
95785SOL    HW189194  11.197   4.025  10.269
95785SOL    HW289195  11.224   3.994  10.123
95786SOL     OW89196  14.803  14.305   8.937
95786SOL    HW189197  14.725  14.260   8.905
95786SOL    HW289198  14.787  14.315   9.031
95787SOL     OW89199   3.198  11.538  10.893
95787SOL    HW189200   3.175  11.590  10.970
95787SOL    HW289201   3.120  11.484  10.876
95788SOL     OW89202   5.431   9.188   7.888
95788SOL    HW189203   5.433   9.101   7.926
95788SOL    HW289204   5.341   9.198   7.856
95789SOL     OW89205  13.853  10.980   1.396
95789SOL    HW189206  13.917  11.002   1.328
95789SOL    HW289207  13.905  10.945   1.468
95790SOL     OW89208   1.223  12.258  13.165
95790SOL    HW189209   1.220  12.224  13.255
95790SOL    HW289210   1.255  12.347  13.175
95791SOL     OW89211   7.521   0.054   1.404
95791SOL    HW189212   7.446   0.070   1.347
95791SOL    HW289213   7.538  14.834   1.396
95792SOL     OW89214  10.127  10.892   3.523
95792SOL    HW189215  10.211  10.860   3.556
95792SOL    HW289216  10.148  10.975   3.481
95793SOL     OW89217   1.696   7.223  13.891
95793SOL    HW189218   1.736   7.222  13.804
95793SOL    HW289219   1.626   7.288  13.885
95794SOL     OW89220  13.728  12.903  11.538
95794SOL    HW189221  13.652  12.892  11.481
95794SOL    HW289222  13.795  12.940  11.481
95795SOL     OW89223  12.907   6.307   0.593
95795SOL    HW189224  12.855   6.382   0.621
95795SOL    HW289225  12.987   6.345   0.557
95796SOL     OW89226  13.465   9.999   8.646
95796SOL    HW189227  13.503   9.944   8.577
95796SOL    HW289228  13.419   9.937   8.703
95797SOL     OW89229   6.751   6.068  12.375
95797SOL    HW189230   6.789   6.084  12.289
95797SOL    HW289231   6.669   6.022  12.357
95798SOL     OW89232   9.824   5.106  14.685
95798SOL    HW189233   9.816   5.192  14.727
95798SOL    HW289234   9.872   5.124  14.604
95799SOL     OW89235   8.414  12.711   7.323
95799SOL    HW189236   8.503  12.691   7.295
95799SOL    HW289237   8.415  12.700   7.418
95800SOL     OW89238   6.112   7.477   9.498
95800SOL    HW189239   6.133   7.570   9.486
95800SOL    HW289240   6.096   7.445   9.409
95801SOL     OW89241   1.309  12.780   1.349
95801SOL    HW189242   1.368  12.836   1.299
95801SOL    HW289243   1.286  12.709   1.289
95802SOL     OW89244   8.733   4.143  14.734
95802SOL    HW189245   8.644   4.120  14.760
95802SOL    HW289246   8.722   4.190  14.651
95803SOL     OW89247   1.546  10.686   4.949
95803SOL    HW189248   1.640  10.671   4.942
95803SOL    HW289249   1.508  10.598   4.947
95804SOL     OW89250   7.758   7.900   3.596
95804SOL    HW189251   7.722   7.963   3.534
95804SOL    HW289252   7.689   7.887   3.660
95805SOL     OW89253  12.373  12.531  14.366
95805SOL    HW189254  12.325  12.448  14.365
95805SOL    HW289255  12.442  12.519  14.301
95806SOL     OW89256   4.819  11.155  11.235
95806SOL    HW189257   4.885  11.220  11.210
95806SOL    HW289258   4.778  11.129  11.153
95807SOL     OW89259  10.347   6.680   3.170
95807SOL    HW189260  10.419   6.636   3.215
95807SOL    HW289261  10.374   6.683   3.079
95808SOL     OW89262   2.169   0.103  12.989
95808SOL    HW189263   2.189   0.184  13.035
95808SOL    HW289264   2.075   0.090  13.003
95809SOL     OW89265   5.227   8.143   7.627
95809SOL    HW189266   5.195   8.219   7.676
95809SOL    HW289267   5.150   8.087   7.616
95810SOL     OW89268   1.962   4.557   0.115
95810SOL    HW189269   1.969   4.592   0.204
95810SOL    HW289270   1.868   4.550   0.099
95811SOL     OW89271   7.985   8.521   1.399
95811SOL    HW189272   8.063   8.475   1.367
95811SOL    HW289273   7.912   8.471   1.362
95812SOL     OW89274  13.386   3.252  13.914
95812SOL    HW189275  13.341   3.169  13.930
95812SOL    HW289276  13.453   3.256  13.982
95813SOL     OW89277   1.656  14.843   2.740
95813SOL    HW189278   1.571  14.859   2.699
95813SOL    HW289279   1.637  14.829   2.832
95814SOL     OW89280   1.546   9.574   3.054
95814SOL    HW189281   1.626   9.562   3.106
95814SOL    HW289282   1.487   9.623   3.111
95815SOL     OW89283   2.430   4.394   3.087
95815SOL    HW189284   2.366   4.419   3.153
95815SOL    HW289285   2.492   4.338   3.134
95816SOL     OW89286   1.465   4.902   3.960
95816SOL    HW189287   1.522   4.973   3.988
95816SOL    HW289288   1.455   4.847   4.038
95817SOL     OW89289  12.124  12.279   0.354
95817SOL    HW189290  12.040  12.232   0.346
95817SOL    HW289291  12.189  12.210   0.369
95818SOL     OW89292  12.581   2.489   8.765
95818SOL    HW189293  12.654   2.432   8.741
95818SOL    HW289294  12.620   2.555   8.822
95819SOL     OW89295   6.126  12.805   0.613
95819SOL    HW189296   6.156  12.735   0.557
95819SOL    HW289297   6.180  12.798   0.692
95820SOL     OW89298   4.470   1.162   6.552
95820SOL    HW189299   4.553   1.193   6.516
95820SOL    HW289300   4.432   1.238   6.595
95821SOL     OW89301  11.212  11.905  14.346
95821SOL    HW189302  11.293  11.954  14.333
95821SOL    HW289303  11.142  11.968  14.328
95822SOL     OW89304   4.568   9.761   9.240
95822SOL    HW189305   4.491   9.807   9.275
95822SOL    HW289306   4.532   9.701   9.175
95823SOL     OW89307  11.933   2.790   4.687
95823SOL    HW189308  11.934   2.765   4.594
95823SOL    HW289309  11.912   2.884   4.686
95824SOL     OW89310  11.163  11.854  14.015
95824SOL    HW189311  11.105  11.809  13.954
95824SOL    HW289312  11.142  11.947  14.004
95825SOL     OW89313   1.348   7.398  14.771
95825SOL    HW189314   1.291   7.426  14.699
95825SOL    HW289315   1.304   7.323  14.809
95826SOL     OW89316   0.471  11.890   9.317
95826SOL    HW189317   0.480  11.958   9.249
95826SOL    HW289318   0.378  11.873   9.322
95827SOL     OW89319   2.568   0.110   8.199
95827SOL    HW189320   2.663   0.108   8.193
95827SOL    HW289321   2.539   0.048   8.131
95828SOL     OW89322  12.437  12.649   0.725
95828SOL    HW189323  12.477  12.648   0.812
95828SOL    HW289324  12.431  12.557   0.700
95829SOL     OW89325  14.083  11.867   6.984
95829SOL    HW189326  14.086  11.891   7.077
95829SOL    HW289327  14.008  11.917   6.950
95830SOL     OW89328   5.789   2.089   7.506
95830SOL    HW189329   5.808   2.026   7.576
95830SOL    HW289330   5.707   2.058   7.468
95831SOL     OW89331  12.564   7.820   8.548
95831SOL    HW189332  12.504   7.757   8.509
95831SOL    HW289333  12.521   7.905   8.536
95832SOL     OW89334   4.221  14.398   6.440
95832SOL    HW189335   4.264  14.358   6.515
95832SOL    HW289336   4.292  14.426   6.383
95833SOL     OW89337   9.543  13.610  10.732
95833SOL    HW189338   9.526  13.704  10.721
95833SOL    HW289339   9.467  13.579  10.782
95834SOL     OW89340   8.215  13.050   0.514
95834SOL    HW189341   8.142  13.112   0.509
95834SOL    HW289342   8.288  13.102   0.548
95835SOL     OW89343   1.636   2.475   5.251
95835SOL    HW189344   1.588   2.408   5.299
95835SOL    HW289345   1.569   2.531   5.212
95836SOL     OW89346   7.639  12.698   6.699
95836SOL    HW189347   7.592  12.646   6.634
95836SOL    HW289348   7.602  12.787   6.690
95837SOL     OW89349   1.638   4.406   7.974
95837SOL    HW189350   1.691   4.368   7.904
95837SOL    HW289351   1.666   4.360   8.053
95838SOL     OW89352  13.504   4.616  11.758
95838SOL    HW189353  13.412   4.589  11.752
95838SOL    HW289354  13.503   4.709  11.735
95839SOL     OW89355   6.585  10.830  10.465
95839SOL    HW189356   6.505  10.881  10.451
95839SOL    HW289357   6.635  10.843  10.384
95840SOL     OW89358  11.944   5.251   5.884
95840SOL    HW189359  11.960   5.310   5.811
95840SOL    HW289360  11.862   5.207   5.861
95841SOL     OW89361  14.576   0.723   4.993
95841SOL    HW189362  14.559   0.798   5.050
95841SOL    HW289363  14.499   0.717   4.937
95842SOL     OW89364  13.735   0.594   4.517
95842SOL    HW189365  13.698   0.604   4.605
95842SOL    HW289366  13.828   0.610   4.528
95843SOL     OW89367  11.436   1.900  14.752
95843SOL    HW189368  11.427   1.890  14.657
95843SOL    HW289369  11.347   1.892  14.785
95844SOL     OW89370   5.824   7.708   1.986
95844SOL    HW189371   5.802   7.617   1.966
95844SOL    HW289372   5.845   7.747   1.901
95845SOL     OW89373   9.137  12.826   3.573
95845SOL    HW189374   9.048  12.859   3.583
95845SOL    HW289375   9.152  12.772   3.650
95846SOL     OW89376   5.566   7.731  10.952
95846SOL    HW189377   5.617   7.811  10.936
95846SOL    HW289378   5.486   7.762  10.994
95847SOL     OW89379  10.151   5.909   0.984
95847SOL    HW189380  10.080   5.884   0.925
95847SOL    HW289381  10.139   5.854   1.061
95848SOL     OW89382   4.928   9.301   3.967
95848SOL    HW189383   4.946   9.335   4.054
95848SOL    HW289384   4.946   9.375   3.908
95849SOL     OW89385  13.982   1.176  10.732
95849SOL    HW189386  14.034   1.120  10.790
95849SOL    HW289387  13.929   1.229  10.792
95850SOL     OW89388   2.134   5.727  13.393
95850SOL    HW189389   2.146   5.659  13.460
95850SOL    HW289390   2.123   5.679  13.311
95851SOL     OW89391  12.154  10.440  12.178
95851SOL    HW189392  12.157  10.347  12.154
95851SOL    HW289393  12.228  10.451  12.238
95852SOL     OW89394   0.868   7.784   8.992
95852SOL    HW189395   0.775   7.769   9.011
95852SOL    HW289396   0.875   7.878   8.979
95853SOL     OW89397   8.677  12.193  10.488
95853SOL    HW189398   8.759  12.145  10.496
95853SOL    HW289399   8.701  12.274  10.442
95854SOL     OW89400   4.688  11.569   2.539
95854SOL    HW189401   4.762  11.580   2.479
95854SOL    HW289402   4.721  11.598   2.624
95855SOL     OW89403   8.791   8.448   6.296
95855SOL    HW189404   8.764   8.357   6.289
95855SOL    HW289405   8.789   8.481   6.206
95856SOL     OW89406  13.558  12.925   6.876
95856SOL    HW189407  13.476  12.938   6.924
95856SOL    HW289408  13.595  13.013   6.868
95857SOL     OW89409   5.534   5.894   9.334
95857SOL    HW189410   5.591   5.922   9.405
95857SOL    HW289411   5.568   5.808   9.308
95858SOL     OW89412   5.129  11.955  13.216
95858SOL    HW189413   5.071  12.025  13.187
95858SOL    HW289414   5.114  11.949  13.310
95859SOL     OW89415   0.605  13.134   8.076
95859SOL    HW189416   0.572  13.133   8.166
95859SOL    HW289417   0.611  13.227   8.053
95860SOL     OW89418   1.488  11.535  13.320
95860SOL    HW189419   1.511  11.624  13.346
95860SOL    HW289420   1.485  11.537  13.225
95861SOL     OW89421   1.570   7.749   2.158
95861SOL    HW189422   1.624   7.767   2.081
95861SOL    HW289423   1.482   7.777   2.132
95862SOL     OW89424  14.010   0.367  10.627
95862SOL    HW189425  13.979   0.446  10.671
95862SOL    HW289426  14.048   0.313  10.697
95863SOL     OW89427  13.731   1.131   8.238
95863SOL    HW189428  13.727   1.075   8.315
95863SOL    HW289429  13.672   1.090   8.175
95864SOL     OW89430   3.952   6.239   5.971
95864SOL    HW189431   3.866   6.276   5.956
95864SOL    HW289432   3.985   6.216   5.884
95865SOL     OW89433   1.811   2.864   3.364
95865SOL    HW189434   1.727   2.909   3.365
95865SOL    HW289435   1.847   2.880   3.277
95866SOL     OW89436   7.860   4.326   2.240
95866SOL    HW189437   7.870   4.272   2.319
95866SOL    HW289438   7.803   4.398   2.267
95867SOL     OW89439   8.873   9.121   3.971
95867SOL    HW189440   8.934   9.166   4.029
95867SOL    HW289441   8.787   9.145   4.003
95868SOL     OW89442   1.780   2.227  12.386
95868SOL    HW189443   1.799   2.151  12.441
95868SOL    HW289444   1.806   2.302  12.440
95869SOL     OW89445   8.809  11.630   0.492
95869SOL    HW189446   8.773  11.683   0.563
95869SOL    HW289447   8.884  11.680   0.460
95870SOL     OW89448  11.023   4.778   5.364
95870SOL    HW189449  11.029   4.685   5.342
95870SOL    HW289450  11.016   4.821   5.279
95871SOL     OW89451  14.063  13.378  14.358
95871SOL    HW189452  14.157  13.397  14.361
95871SOL    HW289453  14.040  13.355  14.448
95872SOL     OW89454   0.551   4.669   8.006
95872SOL    HW189455   0.630   4.615   7.999
95872SOL    HW289456   0.543   4.687   8.100
95873SOL     OW89457   2.396   9.974   5.870
95873SOL    HW189458   2.332  10.043   5.889
95873SOL    HW289459   2.349   9.893   5.889
95874SOL     OW89460  10.526   9.331   6.526
95874SOL    HW189461  10.455   9.269   6.511
95874SOL    HW289462  10.605   9.285   6.498
95875SOL     OW89463   0.547  13.894   9.251
95875SOL    HW189464   0.606  13.853   9.187
95875SOL    HW289465   0.540  13.985   9.222
95876SOL     OW89466  10.826   6.863  11.563
95876SOL    HW189467  10.795   6.886  11.650
95876SOL    HW289468  10.769   6.910  11.503
95877SOL     OW89469   2.538   0.109   1.754
95877SOL    HW189470   2.545   0.079   1.844
95877SOL    HW289471   2.506   0.033   1.706
95878SOL     OW89472   8.367   3.787   5.118
95878SOL    HW189473   8.317   3.712   5.152
95878SOL    HW289474   8.390   3.838   5.196
95879SOL     OW89475   3.344   7.218  14.731
95879SOL    HW189476   3.413   7.180  14.785
95879SOL    HW289477   3.390   7.248  14.652
95880SOL     OW89478  11.500   6.050   1.254
95880SOL    HW189479  11.573   6.094   1.211
95880SOL    HW289480  11.482   6.103   1.331
95881SOL     OW89481  10.247   1.338   6.401
95881SOL    HW189482  10.201   1.314   6.482
95881SOL    HW289483  10.338   1.311   6.416
95882SOL     OW89484   5.469   4.664   4.247
95882SOL    HW189485   5.430   4.581   4.276
95882SOL    HW289486   5.562   4.644   4.239
95883SOL     OW89487   8.165  14.045   4.781
95883SOL    HW189488   8.121  14.125   4.753
95883SOL    HW289489   8.178  14.057   4.876
95884SOL     OW89490  10.632  14.113  12.681
95884SOL    HW189491  10.589  14.168  12.747
95884SOL    HW289492  10.644  14.029  12.725
95885SOL     OW89493   8.220   2.417  10.420
95885SOL    HW189494   8.153   2.371  10.472
95885SOL    HW289495   8.178   2.499  10.395
95886SOL     OW89496  10.496   1.067   0.673
95886SOL    HW189497  10.483   0.986   0.625
95886SOL    HW289498  10.581   1.100   0.642
95887SOL     OW89499  14.561   5.420   4.601
95887SOL    HW189500  14.524   5.465   4.525
95887SOL    HW289501  14.497   5.352   4.621
95888SOL     OW89502   5.708   3.544   8.454
95888SOL    HW189503   5.709   3.543   8.358
95888SOL    HW289504   5.645   3.477   8.479
95889SOL     OW89505  11.885   9.593   3.555
95889SOL    HW189506  11.834   9.535   3.500
95889SOL    HW289507  11.822   9.632   3.616
95890SOL     OW89508   9.253   7.511   8.000
95890SOL    HW189509   9.252   7.428   7.953
95890SOL    HW289510   9.193   7.497   8.073
95891SOL     OW89511   4.244  14.099   2.934
95891SOL    HW189512   4.237  14.021   2.989
95891SOL    HW289513   4.338  14.116   2.928
95892SOL     OW89514  12.555  11.761   4.535
95892SOL    HW189515  12.498  11.689   4.509
95892SOL    HW289516  12.566  11.751   4.630
95893SOL     OW89517   7.528   9.524   4.505
95893SOL    HW189518   7.603   9.545   4.561
95893SOL    HW289519   7.468   9.477   4.563
95894SOL     OW89520   6.867   4.594  14.316
95894SOL    HW189521   6.933   4.627  14.254
95894SOL    HW289522   6.874   4.499  14.311
95895SOL     OW89523   6.522   4.702  11.902
95895SOL    HW189524   6.529   4.669  11.812
95895SOL    HW289525   6.593   4.766  11.910
95896SOL     OW89526  10.700   8.364  13.767
95896SOL    HW189527  10.609   8.336  13.765
95896SOL    HW289528  10.719   8.389  13.676
95897SOL     OW89529   0.084  14.716  11.431
95897SOL    HW189530   0.158  14.658  11.448
95897SOL    HW289531   0.007  14.660  11.440
95898SOL     OW89532  14.178   6.852   9.205
95898SOL    HW189533  14.239   6.805   9.148
95898SOL    HW289534  14.103   6.872   9.149
95899SOL     OW89535   0.213   3.509  13.974
95899SOL    HW189536   0.275   3.568  14.018
95899SOL    HW289537   0.127   3.538  14.005
95900SOL     OW89538  11.982   5.114   7.311
95900SOL    HW189539  11.995   5.020   7.299
95900SOL    HW289540  11.924   5.141   7.240
95901SOL     OW89541   7.307   5.181  11.263
95901SOL    HW189542   7.361   5.145  11.193
95901SOL    HW289543   7.367   5.237  11.313
95902SOL     OW89544  11.356   4.962  10.678
95902SOL    HW189545  11.261   4.962  10.676
95902SOL    HW289546  11.382   4.947  10.587
95903SOL     OW89547   5.445   4.044   1.987
95903SOL    HW189548   5.501   4.103   1.937
95903SOL    HW289549   5.379   4.102   2.026
95904SOL     OW89550  10.426  12.806  11.048
95904SOL    HW189551  10.371  12.814  11.126
95904SOL    HW289552  10.428  12.894  11.010
95905SOL     OW89553  13.989  13.876  11.771
95905SOL    HW189554  13.896  13.895  11.767
95905SOL    HW289555  14.012  13.882  11.863
95906SOL     OW89556   8.169  12.673   0.473
95906SOL    HW189557   8.109  12.599   0.482
95906SOL    HW289558   8.170  12.693   0.379
95907SOL     OW89559   3.195  12.719  14.221
95907SOL    HW189560   3.256  12.646  14.211
95907SOL    HW289561   3.228  12.786  14.161
95908SOL     OW89562   1.993  12.196   7.126
95908SOL    HW189563   2.014  12.103   7.116
95908SOL    HW289564   1.905  12.196   7.164
95909SOL     OW89565  12.275  11.673  14.683
95909SOL    HW189566  12.271  11.632  14.769
95909SOL    HW289567  12.277  11.600  14.621
95910SOL     OW89568   1.108   6.299   4.832
95910SOL    HW189569   1.025   6.341   4.809
95910SOL    HW289570   1.109   6.299   4.927
95911SOL     OW89571  10.793   7.662   0.848
95911SOL    HW189572  10.827   7.618   0.926
95911SOL    HW289573  10.748   7.593   0.799
95912SOL     OW89574  11.819   8.090   8.551
95912SOL    HW189575  11.758   8.090   8.477
95912SOL    HW289576  11.836   7.998   8.568
95913SOL     OW89577   3.901   1.968   8.166
95913SOL    HW189578   3.885   1.897   8.228
95913SOL    HW289579   3.995   1.982   8.169
95914SOL     OW89580   1.789  13.804   5.887
95914SOL    HW189581   1.860  13.831   5.945
95914SOL    HW289582   1.787  13.708   5.895
95915SOL     OW89583  14.641  14.408  10.367
95915SOL    HW189584  14.660  14.448  10.282
95915SOL    HW289585  14.667  14.473  10.431
95916SOL     OW89586   2.167  10.765   9.489
95916SOL    HW189587   2.188  10.729   9.575
95916SOL    HW289588   2.086  10.815   9.504
95917SOL     OW89589   8.376   4.514   7.278
95917SOL    HW189590   8.399   4.553   7.363
95917SOL    HW289591   8.421   4.569   7.214
95918SOL     OW89592   9.022   1.240   3.303
95918SOL    HW189593   9.043   1.269   3.392
95918SOL    HW289594   9.014   1.145   3.311
95919SOL     OW89595   6.024   0.799  13.808
95919SOL    HW189596   5.985   0.731  13.753
95919SOL    HW289597   5.986   0.880  13.775
95920SOL     OW89598   9.912  10.637   9.350
95920SOL    HW189599   9.978  10.705   9.359
95920SOL    HW289600   9.851  10.672   9.284
95921SOL     OW89601   0.413   2.704  10.973
95921SOL    HW189602   0.455   2.757  11.041
95921SOL    HW289603   0.425   2.754  10.892
95922SOL     OW89604  14.861   5.012   9.451
95922SOL    HW189605  14.793   4.951   9.479
95922SOL    HW289606  14.846   5.023   9.357
95923SOL     OW89607   1.274   8.157   5.105
95923SOL    HW189608   1.227   8.077   5.082
95923SOL    HW289609   1.354   8.154   5.052
95924SOL     OW89610  12.323   2.599  14.314
95924SOL    HW189611  12.394   2.542  14.285
95924SOL    HW289612  12.247   2.541  14.321
95925SOL     OW89613  11.980   2.547   1.928
95925SOL    HW189614  11.885   2.550   1.914
95925SOL    HW289615  12.015   2.500   1.852
95926SOL     OW89616  10.841   2.961  10.749
95926SOL    HW189617  10.925   3.006  10.756
95926SOL    HW289618  10.801   2.996  10.670
95927SOL     OW89619  13.275   3.352   2.574
95927SOL    HW189620  13.252   3.423   2.514
95927SOL    HW289621  13.274   3.393   2.661
95928SOL     OW89622  10.775   7.019   9.965
95928SOL    HW189623  10.696   7.039  10.015
95928SOL    HW289624  10.748   7.027   9.874
95929SOL     OW89625   4.322   6.276  14.785
95929SOL    HW189626   4.373   6.271  14.704
95929SOL    HW289627   4.386   6.266  14.855
95930SOL     OW89628   8.554  10.967   3.088
95930SOL    HW189629   8.533  11.037   3.149
95930SOL    HW289630   8.470  10.941   3.051
95931SOL     OW89631   9.227   8.385  13.554
95931SOL    HW189632   9.211   8.479  13.541
95931SOL    HW289633   9.323   8.378  13.562
95932SOL     OW89634  10.950  12.087   1.341
95932SOL    HW189635  11.043  12.071   1.352
95932SOL    HW289636  10.936  12.086   1.246
95933SOL     OW89637   7.362  10.061   0.289
95933SOL    HW189638   7.455  10.037   0.294
95933SOL    HW289639   7.361  10.139   0.233
95934SOL     OW89640   4.302   4.955   7.143
95934SOL    HW189641   4.389   4.976   7.110
95934SOL    HW289642   4.263   4.901   7.075
95935SOL     OW89643   6.571   9.646  11.825
95935SOL    HW189644   6.598   9.617  11.912
95935SOL    HW289645   6.566   9.565  11.773
95936SOL     OW89646   6.397  12.856   7.441
95936SOL    HW189647   6.457  12.783   7.456
95936SOL    HW289648   6.372  12.848   7.349
95937SOL     OW89649   0.219  12.432   0.384
95937SOL    HW189650   0.223  12.406   0.292
95937SOL    HW289651   0.307  12.466   0.403
95938SOL     OW89652   1.783  10.863   9.345
95938SOL    HW189653   1.787  10.944   9.396
95938SOL    HW289654   1.692  10.858   9.315
95939SOL     OW89655  13.602  12.765   7.230
95939SOL    HW189656  13.636  12.854   7.222
95939SOL    HW289657  13.507  12.775   7.224
95940SOL     OW89658   4.637  12.326   2.102
95940SOL    HW189659   4.704  12.392   2.084
95940SOL    HW289660   4.679  12.243   2.083
95941SOL     OW89661  12.468  13.667  11.539
95941SOL    HW189662  12.522  13.590  11.556
95941SOL    HW289663  12.454  13.668  11.445
95942SOL     OW89664   6.185   3.621  14.635
95942SOL    HW189665   6.095   3.615  14.667
95942SOL    HW289666   6.186   3.702  14.584
95943SOL     OW89667   2.069  11.786  11.688
95943SOL    HW189668   2.096  11.877  11.698
95943SOL    HW289669   1.986  11.780  11.735
95944SOL     OW89670   5.572   6.747   3.459
95944SOL    HW189671   5.562   6.737   3.364
95944SOL    HW289672   5.482   6.759   3.491
95945SOL     OW89673   7.006   1.912  12.400
95945SOL    HW189674   7.094   1.923  12.436
95945SOL    HW289675   6.977   1.827  12.433
95946SOL     OW89676  12.423  13.858   5.954
95946SOL    HW189677  12.331  13.867   5.978
95946SOL    HW289678  12.429  13.770   5.916
95947SOL     OW89679  14.690  14.232  13.852
95947SOL    HW189680  14.705  14.326  13.848
95947SOL    HW289681  14.767  14.194  13.809
95948SOL     OW89682   8.475  14.662   7.021
95948SOL    HW189683   8.568  14.681   7.011
95948SOL    HW289684   8.463  14.645   7.114
95949SOL     OW89685   2.447  10.602  14.634
95949SOL    HW189686   2.510  10.597  14.562
95949SOL    HW289687   2.486  10.664  14.696
95950SOL     OW89688   1.546  12.364  14.523
95950SOL    HW189689   1.621  12.416  14.552
95950SOL    HW289690   1.581  12.277  14.508
95951SOL     OW89691  11.225  11.871  10.799
95951SOL    HW189692  11.243  11.797  10.740
95951SOL    HW289693  11.308  11.917  10.805
95952SOL     OW89694  13.348  10.976   7.337
95952SOL    HW189695  13.277  11.028   7.375
95952SOL    HW289696  13.330  10.977   7.243
95953SOL     OW89697   1.942   3.559   3.210
95953SOL    HW189698   1.948   3.639   3.158
95953SOL    HW289699   1.913   3.588   3.296
95954SOL     OW89700  11.009   4.697   8.331
95954SOL    HW189701  11.008   4.688   8.426
95954SOL    HW289702  11.078   4.761   8.315
95955SOL     OW89703  11.827   6.282   5.877
95955SOL    HW189704  11.893   6.257   5.942
95955SOL    HW289705  11.752   6.226   5.896
95956SOL     OW89706  13.879   1.819   3.795
95956SOL    HW189707  13.900   1.803   3.703
95956SOL    HW289708  13.936   1.892   3.820
95957SOL     OW89709   1.186   1.093  13.358
95957SOL    HW189710   1.269   1.059  13.390
95957SOL    HW289711   1.141   1.127  13.435
95958SOL     OW89712  14.096   1.504   0.861
95958SOL    HW189713  14.070   1.412   0.850
95958SOL    HW289714  14.044   1.534   0.936
95959SOL     OW89715   0.236   8.788  14.658
95959SOL    HW189716   0.182   8.853  14.613
95959SOL    HW289717   0.174   8.718  14.680
95960SOL     OW89718  14.223  14.591   6.817
95960SOL    HW189719  14.165  14.515   6.823
95960SOL    HW289720  14.265  14.595   6.903
95961SOL     OW89721   4.694   6.963   2.190
95961SOL    HW189722   4.699   7.017   2.111
95961SOL    HW289723   4.626   6.899   2.170
95962SOL     OW89724   5.066   1.290   7.462
95962SOL    HW189725   5.008   1.365   7.453
95962SOL    HW289726   5.039   1.230   7.393
95963SOL     OW89727   6.793   8.767   7.408
95963SOL    HW189728   6.840   8.693   7.448
95963SOL    HW289729   6.840   8.845   7.439
95964SOL     OW89730  12.572   4.715  13.793
95964SOL    HW189731  12.507   4.645  13.798
95964SOL    HW289732  12.610   4.719  13.881
95965SOL     OW89733  14.826   2.502   6.803
95965SOL    HW189734  14.843   2.448   6.880
95965SOL    HW289735  14.873   2.460   6.732
95966SOL     OW89736  13.993   9.057   0.491
95966SOL    HW189737  13.989   9.130   0.553
95966SOL    HW289738  14.085   9.053   0.465
95967SOL     OW89739  12.960  10.556  12.006
95967SOL    HW189740  12.934  10.491  11.941
95967SOL    HW289741  12.934  10.640  11.968
95968SOL     OW89742   9.587   0.396   2.042
95968SOL    HW189743   9.580   0.436   2.128
95968SOL    HW289744   9.510   0.339   2.035
95969SOL     OW89745   6.979  14.039   9.539
95969SOL    HW189746   6.970  13.946   9.560
95969SOL    HW289747   6.958  14.046   9.446
95970SOL     OW89748   1.604   9.311   0.607
95970SOL    HW189749   1.640   9.399   0.604
95970SOL    HW289750   1.649   9.269   0.681
95971SOL     OW89751   0.958  13.674   2.104
95971SOL    HW189752   0.868  13.647   2.121
95971SOL    HW289753   0.976  13.740   2.171
95972SOL     OW89754   1.322   5.451   2.588
95972SOL    HW189755   1.418   5.450   2.581
95972SOL    HW289756   1.300   5.367   2.628
95973SOL     OW89757   9.711  11.600   6.736
95973SOL    HW189758   9.625  11.566   6.762
95973SOL    HW289759   9.772  11.531   6.760
95974SOL     OW89760  13.338   7.610  12.621
95974SOL    HW189761  13.359   7.626  12.529
95974SOL    HW289762  13.283   7.532  12.620
95975SOL     OW89763   3.773   2.595   0.275
95975SOL    HW189764   3.689   2.562   0.305
95975SOL    HW289765   3.767   2.691   0.283
95976SOL     OW89766   4.443   0.821   7.477
95976SOL    HW189767   4.348   0.814   7.469
95976SOL    HW289768   4.458   0.843   7.568
95977SOL     OW89769  13.022  11.007  10.826
95977SOL    HW189770  13.049  10.991  10.736
95977SOL    HW289771  13.000  11.100  10.829
95978SOL     OW89772   8.975   5.438   0.436
95978SOL    HW189773   8.945   5.428   0.527
95978SOL    HW289774   8.915   5.501   0.398
95979SOL     OW89775   5.700  14.865   3.008
95979SOL    HW189776   5.731   0.004   3.097
95979SOL    HW289777   5.779  14.862   2.954
95980SOL     OW89778   4.070   0.611  14.131
95980SOL    HW189779   4.163   0.610  14.155
95980SOL    HW289780   4.058   0.532  14.079
95981SOL     OW89781  12.286   0.164   2.796
95981SOL    HW189782  12.250   0.207   2.874
95981SOL    HW289783  12.313   0.078   2.827
95982SOL     OW89784  11.674   7.818   0.044
95982SOL    HW189785  11.605   7.864  14.871
95982SOL    HW289786  11.650   7.726   0.038
95983SOL     OW89787   3.908  14.507   3.070
95983SOL    HW189788   3.825  14.496   3.116
95983SOL    HW289789   3.918  14.602   3.061
95984SOL     OW89790  12.123  11.095   7.925
95984SOL    HW189791  12.120  11.006   7.890
95984SOL    HW289792  12.209  11.101   7.968
95985SOL     OW89793   6.947   2.249   1.657
95985SOL    HW189794   7.007   2.219   1.725
95985SOL    HW289795   6.886   2.176   1.646
95986SOL     OW89796   0.621   8.149  10.744
95986SOL    HW189797   0.699   8.203  10.730
95986SOL    HW289798   0.548   8.211  10.740
95987SOL     OW89799  11.525   3.794   2.033
95987SOL    HW189800  11.571   3.730   2.087
95987SOL    HW289801  11.568   3.790   1.948
95988SOL     OW89802   1.638   0.190  11.495
95988SOL    HW189803   1.592   0.265  11.457
95988SOL    HW289804   1.626   0.120  11.430
95989SOL     OW89805   3.386   1.640   8.102
95989SOL    HW189806   3.301   1.645   8.058
95989SOL    HW289807   3.440   1.705   8.056
95990SOL     OW89808   3.694   8.504   7.632
95990SOL    HW189809   3.758   8.448   7.587
95990SOL    HW289810   3.739   8.531   7.713
95991SOL     OW89811   8.251   1.262   7.160
95991SOL    HW189812   8.273   1.223   7.245
95991SOL    HW289813   8.329   1.246   7.106
95992SOL     OW89814  14.754   5.867   2.421
95992SOL    HW189815  14.745   5.941   2.361
95992SOL    HW289816  14.847   5.868   2.446
95993SOL     OW89817  13.328   8.590   7.171
95993SOL    HW189818  13.252   8.630   7.214
95993SOL    HW289819  13.403   8.636   7.209
95994SOL     OW89820   6.402  13.752  10.294
95994SOL    HW189821   6.447  13.688  10.349
95994SOL    HW289822   6.379  13.704  10.214
95995SOL     OW89823   6.655  12.262   8.791
95995SOL    HW189824   6.662  12.179   8.744
95995SOL    HW289825   6.742  12.301   8.783
95996SOL     OW89826   9.574   0.458   3.793
95996SOL    HW189827   9.498   0.409   3.824
95996SOL    HW289828   9.539   0.545   3.771
95997SOL     OW89829  13.622   9.345   3.798
95997SOL    HW189830  13.583   9.327   3.884
95997SOL    HW289831  13.586   9.276   3.741
95998SOL     OW89832   8.659  11.986   4.950
95998SOL    HW189833   8.580  12.013   4.904
95998SOL    HW289834   8.629  11.965   5.038
95999SOL     OW89835  12.439   2.512   9.881
95999SOL    HW189836  12.355   2.489   9.841
95999SOL    HW289837  12.472   2.583   9.826
96000SOL     OW89838  13.753   8.707   5.987
96000SOL    HW189839  13.732   8.620   5.954
96000SOL    HW289840  13.841   8.697   6.024
96001SOL     OW89841   5.802   3.848   1.257
96001SOL    HW189842   5.839   3.788   1.193
96001SOL    HW289843   5.799   3.932   1.212
96002SOL     OW89844   9.635   4.938   1.219
96002SOL    HW189845   9.712   4.894   1.183
96002SOL    HW289846   9.638   5.026   1.183
96003SOL     OW89847  10.678   3.108   4.304
96003SOL    HW189848  10.601   3.066   4.265
96003SOL    HW289849  10.650   3.133   4.392
96004SOL     OW89850  14.558   1.791   7.556
96004SOL    HW189851  14.651   1.789   7.574
96004SOL    HW289852  14.520   1.727   7.616
96005SOL     OW89853   3.066  12.049   0.395
96005SOL    HW189854   2.981  12.058   0.353
96005SOL    HW289855   3.129  12.071   0.326
96006SOL     OW89856   3.793  10.844   4.340
96006SOL    HW189857   3.847  10.781   4.388
96006SOL    HW289858   3.850  10.920   4.327
96007SOL     OW89859   5.755   4.420   6.516
96007SOL    HW189860   5.799   4.453   6.594
96007SOL    HW289861   5.815   4.355   6.480
96008SOL     OW89862   5.743   3.534  11.418
96008SOL    HW189863   5.737   3.521  11.324
96008SOL    HW289864   5.815   3.597  11.428
96009SOL     OW89865  12.606   4.043  12.725
96009SOL    HW189866  12.638   3.955  12.704
96009SOL    HW289867  12.684   4.098  12.719
96010SOL     OW89868   9.005   9.187  14.007
96010SOL    HW189869   8.940   9.245  14.045
96010SOL    HW289870   9.066   9.170  14.079
96011SOL     OW89871  12.956   8.826   6.087
96011SOL    HW189872  12.871   8.851   6.051
96011SOL    HW289873  12.935   8.768   6.161
96012SOL     OW89874   8.949   4.142   9.832
96012SOL    HW189875   8.863   4.163   9.795
96012SOL    HW289876   8.944   4.174   9.922
96013SOL     OW89877  14.592  12.128   1.587
96013SOL    HW189878  14.522  12.170   1.537
96013SOL    HW289879  14.555  12.114   1.674
96014SOL     OW89880   7.369  11.440   5.259
96014SOL    HW189881   7.342  11.407   5.173
96014SOL    HW289882   7.290  11.438   5.312
96015SOL     OW89883   7.065   3.489   4.244
96015SOL    HW189884   7.033   3.416   4.191
96015SOL    HW289885   7.151   3.460   4.275
96016SOL     OW89886   4.746   8.902   9.416
96016SOL    HW189887   4.777   8.874   9.502
96016SOL    HW289888   4.822   8.892   9.359
96017SOL     OW89889   0.998   6.698   6.242
96017SOL    HW189890   0.946   6.773   6.271
96017SOL    HW289891   1.012   6.713   6.149
96018SOL     OW89892   1.680   5.959   8.307
96018SOL    HW189893   1.732   6.034   8.280
96018SOL    HW289894   1.628   5.937   8.229
96019SOL     OW89895   6.419  12.925   5.237
96019SOL    HW189896   6.414  12.859   5.306
96019SOL    HW289897   6.397  13.007   5.281
96020SOL     OW89898   8.068   4.792  14.535
96020SOL    HW189899   8.161   4.770  14.531
96020SOL    HW289900   8.052   4.845  14.457
96021SOL     OW89901   9.785   9.897   5.836
96021SOL    HW189902   9.854   9.964   5.827
96021SOL    HW289903   9.731   9.909   5.757
96022SOL     OW89904   7.805   4.993  10.559
96022SOL    HW189905   7.801   5.089  10.554
96022SOL    HW289906   7.713   4.966  10.563
96023SOL     OW89907   2.578  13.412  12.382
96023SOL    HW189908   2.533  13.375  12.306
96023SOL    HW289909   2.512  13.467  12.425
96024SOL     OW89910   0.015   6.118   8.937
96024SOL    HW189911   0.045   6.202   8.971
96024SOL    HW289912   0.069   6.053   8.982
96025SOL     OW89913   0.536   9.409   7.517
96025SOL    HW189914   0.614   9.381   7.564
96025SOL    HW289915   0.569   9.468   7.448
96026SOL     OW89916   7.701   9.897  12.832
96026SOL    HW189917   7.701   9.894  12.736
96026SOL    HW289918   7.787   9.864  12.857
96027SOL     OW89919   5.888  11.294   8.202
96027SOL    HW189920   5.912  11.247   8.123
96027SOL    HW289921   5.878  11.225   8.268
96028SOL     OW89922  13.055  14.327   7.083
96028SOL    HW189923  12.979  14.295   7.035
96028SOL    HW289924  13.033  14.418   7.106
96029SOL     OW89925   5.358   7.566   5.034
96029SOL    HW189926   5.422   7.579   5.104
96029SOL    HW289927   5.352   7.651   4.991
96030SOL     OW89928   0.370   2.060  10.996
96030SOL    HW189929   0.462   2.085  11.003
96030SOL    HW289930   0.326   2.111  11.064
96031SOL     OW89931   6.300   2.616  10.371
96031SOL    HW189932   6.373   2.583  10.424
96031SOL    HW289933   6.231   2.551  10.381
96032SOL     OW89934  12.426  10.236   9.318
96032SOL    HW189935  12.498  10.173   9.313
96032SOL    HW289936  12.366  10.201   9.383
96033SOL     OW89937   3.370   2.048   2.562
96033SOL    HW189938   3.441   2.023   2.502
96033SOL    HW289939   3.352   2.139   2.541
96034SOL     OW89940   9.933   7.675   6.362
96034SOL    HW189941   9.955   7.583   6.376
96034SOL    HW289942   9.841   7.683   6.388
96035SOL     OW89943   1.919   8.567   4.308
96035SOL    HW189944   2.008   8.536   4.295
96035SOL    HW289945   1.864   8.506   4.259
96036SOL     OW89946   7.532   7.941   0.361
96036SOL    HW189947   7.598   7.950   0.429
96036SOL    HW289948   7.488   7.858   0.382
96037SOL     OW89949   8.872   4.880  13.546
96037SOL    HW189950   8.933   4.952  13.528
96037SOL    HW289951   8.786   4.916  13.525
96038SOL     OW89952   9.235   8.997   9.810
96038SOL    HW189953   9.208   8.981   9.900
96038SOL    HW289954   9.201   8.922   9.761
96039SOL     OW89955   4.985  12.856   1.841
96039SOL    HW189956   5.039  12.903   1.905
96039SOL    HW289957   5.011  12.893   1.757
96040SOL     OW89958   6.043   5.062   4.572
96040SOL    HW189959   6.026   5.059   4.478
96040SOL    HW289960   6.053   5.156   4.592
96041SOL     OW89961   1.014   5.761   9.239
96041SOL    HW189962   0.952   5.831   9.256
96041SOL    HW289963   1.064   5.791   9.163
96042SOL     OW89964   2.889   5.737   7.746
96042SOL    HW189965   2.797   5.720   7.768
96042SOL    HW289966   2.889   5.826   7.709
96043SOL     OW89967   3.190  11.676  13.792
96043SOL    HW189968   3.139  11.618  13.849
96043SOL    HW289969   3.125  11.733  13.751
96044SOL     OW89970   8.482   0.095   1.718
96044SOL    HW189971   8.414   0.154   1.687
96044SOL    HW289972   8.551   0.100   1.652
96045SOL     OW89973  10.470  11.364   1.523
96045SOL    HW189974  10.392  11.420   1.522
96045SOL    HW289975  10.441  11.281   1.561
96046SOL     OW89976   6.312   1.798  11.668
96046SOL    HW189977   6.352   1.767  11.587
96046SOL    HW289978   6.218   1.782  11.655
96047SOL     OW89979  10.302  13.950   5.033
96047SOL    HW189980  10.311  14.042   5.057
96047SOL    HW289981  10.310  13.903   5.116
96048SOL     OW89982   4.134  11.450  11.712
96048SOL    HW189983   4.179  11.447  11.628
96048SOL    HW289984   4.203  11.463  11.776
96049SOL     OW89985   4.657  12.638   1.649
96049SOL    HW189986   4.661  12.566   1.711
96049SOL    HW289987   4.569  12.633   1.612
96050SOL     OW89988  10.485   5.036   0.467
96050SOL    HW189989  10.446   4.957   0.429
96050SOL    HW289990  10.476   5.102   0.398
96051SOL     OW89991   0.861   9.420  11.053
96051SOL    HW189992   0.918   9.494  11.036
96051SOL    HW289993   0.898   9.378  11.131
96052SOL     OW89994  14.033   6.535  10.177
96052SOL    HW189995  14.069   6.507  10.261
96052SOL    HW289996  14.031   6.631  10.183
96053SOL     OW89997   2.528   4.469  12.406
96053SOL    HW189998   2.541   4.563  12.414
96053SOL    HW289999   2.445   4.452  12.450
96054SOL     OW90000  13.036  10.007   1.223
96054SOL    HW190001  13.084   9.937   1.267
96054SOL    HW290002  13.088  10.085   1.238
96055SOL     OW90003   0.626   3.190  10.354
96055SOL    HW190004   0.632   3.280  10.385
96055SOL    HW290005   0.703   3.147  10.389
96056SOL     OW90006   3.650   3.889   1.664
96056SOL    HW190007   3.586   3.895   1.593
96056SOL    HW290008   3.598   3.881   1.743
96057SOL     OW90009   5.500   5.497  14.010
96057SOL    HW190010   5.416   5.539  13.992
96057SOL    HW290011   5.563   5.568  14.009
96058SOL     OW90012   3.362  14.857   4.416
96058SOL    HW190013   3.410   0.016   4.340
96058SOL    HW290014   3.345  14.765   4.396
96059SOL     OW90015   0.582  10.578   4.550
96059SOL    HW190016   0.519  10.606   4.616
96059SOL    HW290017   0.651  10.534   4.599
96060SOL     OW90018   0.921   3.808  11.377
96060SOL    HW190019   0.918   3.851  11.292
96060SOL    HW290020   0.831   3.780  11.393
96061SOL     OW90021   9.227   0.154   7.921
96061SOL    HW190022   9.279   0.087   7.965
96061SOL    HW290023   9.184   0.202   7.992
96062SOL     OW90024   8.058   9.029   2.759
96062SOL    HW190025   8.110   9.109   2.752
96062SOL    HW290026   8.062   9.006   2.852
96063SOL     OW90027   2.036   5.597  10.889
96063SOL    HW190028   2.108   5.608  10.828
96063SOL    HW290029   2.022   5.502  10.894
96064SOL     OW90030   4.984  10.873   1.586
96064SOL    HW190031   4.889  10.869   1.576
96064SOL    HW290032   5.017  10.875   1.496
96065SOL     OW90033   3.857   9.959   8.233
96065SOL    HW190034   3.938  10.008   8.227
96065SOL    HW290035   3.853   9.930   8.325
96066SOL     OW90036  10.580  13.576   9.132
96066SOL    HW190037  10.674  13.573   9.114
96066SOL    HW290038  10.545  13.499   9.089
96067SOL     OW90039  13.331   1.905   4.873
96067SOL    HW190040  13.338   1.998   4.849
96067SOL    HW290041  13.260   1.903   4.937
96068SOL     OW90042   5.949   5.511   5.712
96068SOL    HW190043   6.026   5.475   5.754
96068SOL    HW290044   5.878   5.499   5.775
96069SOL     OW90045  14.313  12.969   3.916
96069SOL    HW190046  14.339  13.052   3.876
96069SOL    HW290047  14.218  12.964   3.900
96070SOL     OW90048   1.738   7.266   8.660
96070SOL    HW190049   1.796   7.194   8.636
96070SOL    HW290050   1.761   7.336   8.599
96071SOL     OW90051   0.099   3.235   4.736
96071SOL    HW190052   0.056   3.175   4.676
96071SOL    HW290053   0.159   3.285   4.681
96072SOL     OW90054   2.583   0.605  13.899
96072SOL    HW190055   2.578   0.518  13.860
96072SOL    HW290056   2.670   0.638  13.875
96073SOL     OW90057   6.687   6.615   6.888
96073SOL    HW190058   6.720   6.630   6.799
96073SOL    HW290059   6.728   6.684   6.941
96074SOL     OW90060  12.059   7.152  12.753
96074SOL    HW190061  11.965   7.173  12.752
96074SOL    HW290062  12.073   7.111  12.839
96075SOL     OW90063   2.718   3.905   5.823
96075SOL    HW190064   2.747   3.863   5.904
96075SOL    HW290065   2.737   3.841   5.755
96076SOL     OW90066  13.530   0.043   3.094
96076SOL    HW190067  13.463   0.018   3.030
96076SOL    HW290068  13.596   0.090   3.042
96077SOL     OW90069   5.534  12.743   8.192
96077SOL    HW190070   5.490  12.667   8.153
96077SOL    HW290071   5.616  12.709   8.227
96078SOL     OW90072   4.403  12.106   4.771
96078SOL    HW190073   4.358  12.051   4.706
96078SOL    HW290074   4.484  12.060   4.789
96079SOL     OW90075  12.155   5.369  14.280
96079SOL    HW190076  12.102   5.425  14.336
96079SOL    HW290077  12.101   5.352  14.204
96080SOL     OW90078   8.330   4.253   1.829
96080SOL    HW190079   8.362   4.301   1.906
96080SOL    HW290080   8.408   4.238   1.776
96081SOL     OW90081  10.844   9.547  10.062
96081SOL    HW190082  10.778   9.494  10.107
96081SOL    HW290083  10.887   9.597  10.131
96082SOL     OW90084  13.534   5.462  14.819
96082SOL    HW190085  13.602   5.402  14.850
96082SOL    HW290086  13.562   5.487  14.732
96083SOL     OW90087  12.589   7.330   6.783
96083SOL    HW190088  12.569   7.395   6.851
96083SOL    HW290089  12.609   7.250   6.832
96084SOL     OW90090  10.922   4.734   4.423
96084SOL    HW190091  10.837   4.778   4.419
96084SOL    HW290092  10.971   4.784   4.488
96085SOL     OW90093   2.294   2.578  13.942
96085SOL    HW190094   2.290   2.667  13.978
96085SOL    HW290095   2.312   2.522  14.017
96086SOL     OW90096  13.492   6.466   2.764
96086SOL    HW190097  13.488   6.561   2.774
96086SOL    HW290098  13.582   6.448   2.738
96087SOL     OW90099   9.704  10.382  14.489
96087SOL    HW190100   9.671  10.300  14.526
96087SOL    HW290101   9.783  10.356  14.441
96088SOL     OW90102   8.349  13.121   2.160
96088SOL    HW190103   8.263  13.095   2.192
96088SOL    HW290104   8.360  13.211   2.192
96089SOL     OW90105   0.805   4.205   3.877
96089SOL    HW190106   0.898   4.183   3.876
96089SOL    HW290107   0.771   4.174   3.794
96090SOL     OW90108  13.316  13.369   9.106
96090SOL    HW190109  13.402  13.402   9.131
96090SOL    HW290110  13.271  13.445   9.069
96091SOL     OW90111   9.123   7.142  11.436
96091SOL    HW190112   9.067   7.215  11.463
96091SOL    HW290113   9.211   7.167  11.464
96092SOL     OW90114  10.111   5.845   5.298
96092SOL    HW190115  10.074   5.819   5.382
96092SOL    HW290116  10.167   5.772   5.272
96093SOL     OW90117  12.157  12.347   0.608
96093SOL    HW190118  12.089  12.281   0.621
96093SOL    HW290119  12.171  12.350   0.513
96094SOL     OW90120  14.452   8.388   1.606
96094SOL    HW190121  14.420   8.460   1.551
96094SOL    HW290122  14.547   8.388   1.592
96095SOL     OW90123   7.126   3.325  10.767
96095SOL    HW190124   7.054   3.309  10.706
96095SOL    HW290125   7.130   3.421  10.774
96096SOL     OW90126   9.146   4.031  10.069
96096SOL    HW190127   9.107   4.011   9.984
96096SOL    HW290128   9.207   3.959  10.086
96097SOL     OW90129  13.302  12.069  14.242
96097SOL    HW190130  13.246  12.143  14.220
96097SOL    HW290131  13.313  12.075  14.337
96098SOL     OW90132   3.793   2.606   8.404
96098SOL    HW190133   3.773   2.685   8.354
96098SOL    HW290134   3.866   2.565   8.357
96099SOL     OW90135  11.393  14.866   8.454
96099SOL    HW190136  11.361   0.082   8.443
96099SOL    HW290137  11.478   0.002   8.497
96100SOL     OW90138   3.986   4.505   8.526
96100SOL    HW190139   3.994   4.565   8.600
96100SOL    HW290140   3.926   4.549   8.465
96101SOL     OW90141   3.041   0.614  14.328
96101SOL    HW190142   3.004   0.565  14.254
96101SOL    HW290143   2.978   0.686  14.342
96102SOL     OW90144  10.998  12.380  10.948
96102SOL    HW190145  10.951  12.302  10.917
96102SOL    HW290146  11.054  12.347  11.018
96103SOL     OW90147  13.561   4.168  12.262
96103SOL    HW190148  13.560   4.263  12.255
96103SOL    HW290149  13.542   4.137  12.173
96104SOL     OW90150   7.625   6.020  12.972
96104SOL    HW190151   7.644   6.044  12.882
96104SOL    HW290152   7.566   6.090  13.003
96105SOL     OW90153   2.512  12.057   6.611
96105SOL    HW190154   2.514  12.105   6.693
96105SOL    HW290155   2.469  12.116   6.549
96106SOL     OW90156  13.351   4.156   7.026
96106SOL    HW190157  13.383   4.203   6.948
96106SOL    HW290158  13.339   4.066   6.996
96107SOL     OW90159  12.419  12.007   6.604
96107SOL    HW190160  12.382  11.940   6.661
96107SOL    HW290161  12.484  11.961   6.551
96108SOL     OW90162   6.990   3.889   2.229
96108SOL    HW190163   6.928   3.939   2.282
96108SOL    HW290164   6.967   3.797   2.246
96109SOL     OW90165   3.758   5.046   4.360
96109SOL    HW190166   3.810   4.976   4.400
96109SOL    HW290167   3.673   5.005   4.342
96110SOL     OW90168   5.154  10.414  13.604
96110SOL    HW190169   5.162  10.508  13.586
96110SOL    HW290170   5.060  10.396  13.595
96111SOL     OW90171   0.418  12.581  13.329
96111SOL    HW190172   0.419  12.601  13.422
96111SOL    HW290173   0.482  12.511  13.319
96112SOL     OW90174   9.651   4.986   2.065
96112SOL    HW190175   9.676   5.067   2.022
96112SOL    HW290176   9.584   4.948   2.008
96113SOL     OW90177   5.355   2.004  14.374
96113SOL    HW190178   5.427   1.958  14.332
96113SOL    HW290179   5.289   1.936  14.390
96114SOL     OW90180  10.720   6.296   6.452
96114SOL    HW190181  10.699   6.246   6.372
96114SOL    HW290182  10.814   6.311   6.447
96115SOL     OW90183  12.829   2.737  13.003
96115SOL    HW190184  12.844   2.643  13.015
96115SOL    HW290185  12.859   2.776  13.085
96116SOL     OW90186   5.905   1.427   3.120
96116SOL    HW190187   5.841   1.357   3.132
96116SOL    HW290188   5.920   1.461   3.209
96117SOL     OW90189   6.661   4.586  11.410
96117SOL    HW190190   6.587   4.541  11.369
96117SOL    HW290191   6.664   4.671  11.366
96118SOL     OW90192  10.854   1.947  13.188
96118SOL    HW190193  10.853   1.982  13.277
96118SOL    HW290194  10.918   2.001  13.141
96119SOL     OW90195  11.489  11.948   5.089
96119SOL    HW190196  11.564  11.988   5.047
96119SOL    HW290197  11.513  11.855   5.098
96120SOL     OW90198  14.657   1.134   9.623
96120SOL    HW190199  14.682   1.071   9.556
96120SOL    HW290200  14.631   1.081   9.698
96121SOL     OW90201   4.520   2.559   6.029
96121SOL    HW190202   4.584   2.503   5.984
96121SOL    HW290203   4.508   2.517   6.115
96122SOL     OW90204  11.604   2.616   1.167
96122SOL    HW190205  11.612   2.705   1.133
96122SOL    HW290206  11.683   2.602   1.219
96123SOL     OW90207  12.335   8.939  13.406
96123SOL    HW190208  12.333   8.969  13.497
96123SOL    HW290209  12.249   8.899  13.391
96124SOL     OW90210   0.390   6.814  11.946
96124SOL    HW190211   0.332   6.887  11.926
96124SOL    HW290212   0.478   6.850  11.935
96125SOL     OW90213  11.394   9.211  14.359
96125SOL    HW190214  11.397   9.246  14.270
96125SOL    HW290215  11.307   9.234  14.392
96126SOL     OW90216  10.546  10.813   8.540
96126SOL    HW190217  10.622  10.756   8.550
96126SOL    HW290218  10.508  10.818   8.628
96127SOL     OW90219  12.321   3.224  10.444
96127SOL    HW190220  12.269   3.207  10.522
96127SOL    HW290221  12.380   3.295  10.469
96128SOL     OW90222  13.948   2.133  10.118
96128SOL    HW190223  13.924   2.224  10.136
96128SOL    HW290224  14.032   2.139  10.074
96129SOL     OW90225   0.808   1.274   4.778
96129SOL    HW190226   0.839   1.303   4.864
96129SOL    HW290227   0.839   1.184   4.770
96130SOL     OW90228   3.054  10.857   1.536
96130SOL    HW190229   3.096  10.931   1.580
96130SOL    HW290230   2.967  10.851   1.576
96131SOL     OW90231   9.060  11.250   4.247
96131SOL    HW190232   9.055  11.302   4.167
96131SOL    HW290233   9.139  11.197   4.237
96132SOL     OW90234   3.943   8.086  13.372
96132SOL    HW190235   3.907   8.001  13.348
96132SOL    HW290236   3.868   8.146  13.372
96133SOL     OW90237   5.271   1.391   6.935
96133SOL    HW190238   5.218   1.352   7.005
96133SOL    HW290239   5.340   1.438   6.980
96134SOL     OW90240   3.115  12.525  13.136
96134SOL    HW190241   3.183  12.492  13.195
96134SOL    HW290242   3.045  12.460  13.141
96135SOL     OW90243  14.375   7.558  11.959
96135SOL    HW190244  14.282   7.538  11.965
96135SOL    HW290245  14.416   7.506  12.028
96136SOL     OW90246   9.937   3.668   8.933
96136SOL    HW190247   9.858   3.630   8.895
96136SOL    HW290248   9.932   3.761   8.912
96137SOL     OW90249   3.916  13.739  13.204
96137SOL    HW190250   4.010  13.739  13.186
96137SOL    HW290251   3.875  13.764  13.121
96138SOL     OW90252   2.046  12.743   7.826
96138SOL    HW190253   2.141  12.755   7.826
96138SOL    HW290254   2.013  12.808   7.887
96139SOL     OW90255   6.218   6.412  11.906
96139SOL    HW190256   6.140   6.464  11.922
96139SOL    HW290257   6.186   6.332  11.864
96140SOL     OW90258  12.405   8.822   5.199
96140SOL    HW190259  12.475   8.864   5.249
96140SOL    HW290260  12.330   8.881   5.209
96141SOL     OW90261  12.659   0.668   2.634
96141SOL    HW190262  12.718   0.681   2.709
96141SOL    HW290263  12.588   0.614   2.668
96142SOL     OW90264   0.210   0.973   4.976
96142SOL    HW190265   0.222   1.018   5.059
96142SOL    HW290266   0.257   1.027   4.912
96143SOL     OW90267   1.365   7.953  12.778
96143SOL    HW190268   1.380   8.047  12.780
96143SOL    HW290269   1.340   7.934  12.688
96144SOL     OW90270   8.958   4.172   7.099
96144SOL    HW190271   8.921   4.104   7.043
96144SOL    HW290272   9.052   4.166   7.085
96145SOL     OW90273  11.157   5.942   1.407
96145SOL    HW190274  11.117   6.024   1.379
96145SOL    HW290275  11.221   5.967   1.474
96146SOL     OW90276  14.466   9.070   3.682
96146SOL    HW190277  14.398   9.097   3.620
96146SOL    HW290278  14.422   9.010   3.742
96147SOL     OW90279   4.888   8.627   3.333
96147SOL    HW190280   4.823   8.651   3.399
96147SOL    HW290281   4.849   8.656   3.250
96148SOL     OW90282   2.033   1.270  13.207
96148SOL    HW190283   2.096   1.328  13.249
96148SOL    HW290284   1.980   1.327  13.152
96149SOL     OW90285  10.969   1.094  11.097
96149SOL    HW190286  10.986   1.007  11.131
96149SOL    HW290287  11.053   1.125  11.064
96150SOL     OW90288   9.286   2.364   5.714
96150SOL    HW190289   9.366   2.315   5.732
96150SOL    HW290290   9.268   2.348   5.622
96151SOL     OW90291   7.475  10.647   6.783
96151SOL    HW190292   7.481  10.553   6.770
96151SOL    HW290293   7.456  10.682   6.695
96152SOL     OW90294   7.057   6.818  11.542
96152SOL    HW190295   7.057   6.909  11.573
96152SOL    HW290296   6.966   6.791  11.546
96153SOL     OW90297   4.140   1.787   6.477
96153SOL    HW190298   4.060   1.810   6.430
96153SOL    HW290299   4.199   1.862   6.463
96154SOL     OW90300   0.066   5.506   4.354
96154SOL    HW190301   0.071   5.501   4.450
96154SOL    HW290302   0.003   5.576   4.337
96155SOL     OW90303  13.326   5.053   5.584
96155SOL    HW190304  13.301   4.992   5.652
96155SOL    HW290305  13.340   5.136   5.630
96156SOL     OW90306   3.154   4.413  12.253
96156SOL    HW190307   3.137   4.378  12.341
96156SOL    HW290308   3.068   4.414  12.210
96157SOL     OW90309  13.368   3.722  10.231
96157SOL    HW190310  13.327   3.733  10.145
96157SOL    HW290311  13.297   3.734  10.294
96158SOL     OW90312  11.285   3.355   3.176
96158SOL    HW190313  11.246   3.437   3.147
96158SOL    HW290314  11.231   3.287   3.135
96159SOL     OW90315   0.224   0.666  13.609
96159SOL    HW190316   0.170   0.700  13.680
96159SOL    HW290317   0.162   0.643  13.540
96160SOL     OW90318  12.953   3.696   5.708
96160SOL    HW190319  12.912   3.702   5.794
96160SOL    HW290320  12.950   3.785   5.674
96161SOL     OW90321   2.947   1.158   1.147
96161SOL    HW190322   2.950   1.194   1.058
96161SOL    HW290323   3.001   1.079   1.143
96162SOL     OW90324   6.900  13.553  13.869
96162SOL    HW190325   6.893  13.629  13.927
96162SOL    HW290326   6.966  13.578  13.804
96163SOL     OW90327  11.953  14.281  14.869
96163SOL    HW190328  11.871  14.235   0.014
96163SOL    HW290329  12.010  14.263   0.070
96164SOL     OW90330  11.733  14.789   9.507
96164SOL    HW190331  11.811  14.748   9.544
96164SOL    HW290332  11.766  14.868   9.464
96165SOL     OW90333   7.123   0.277  11.531
96165SOL    HW190334   7.090   0.215  11.596
96165SOL    HW290335   7.173   0.223  11.469
96166SOL     OW90336   5.205   9.936   2.571
96166SOL    HW190337   5.143   9.928   2.643
96166SOL    HW290338   5.254  10.015   2.591
96167SOL     OW90339   0.821   0.118   2.177
96167SOL    HW190340   0.832   0.205   2.216
96167SOL    HW290341   0.806   0.060   2.251
96168SOL     OW90342   0.718   3.257   6.564
96168SOL    HW190343   0.713   3.205   6.483
96168SOL    HW290344   0.734   3.192   6.633
96169SOL     OW90345   4.076   7.683   9.814
96169SOL    HW190346   4.011   7.703   9.882
96169SOL    HW290347   4.086   7.588   9.818
96170SOL     OW90348   6.025   7.666   4.477
96170SOL    HW190349   5.977   7.630   4.551
96170SOL    HW290350   6.095   7.718   4.516
96171SOL     OW90351   3.617  12.306   1.692
96171SOL    HW190352   3.590  12.392   1.658
96171SOL    HW290353   3.537  12.268   1.729
96172SOL     OW90354   5.158  10.034  14.407
96172SOL    HW190355   5.149   9.961  14.346
96172SOL    HW290356   5.163   9.992  14.493
96173SOL     OW90357   5.050   1.587  10.327
96173SOL    HW190358   5.136   1.546  10.337
96173SOL    HW290359   5.062   1.675  10.364
96174SOL     OW90360   9.768   3.264  10.065
96174SOL    HW190361   9.685   3.264  10.018
96174SOL    HW290362   9.801   3.353  10.057
96175SOL     OW90363   5.645   8.663   7.238
96175SOL    HW190364   5.629   8.752   7.269
96175SOL    HW290365   5.607   8.606   7.305
96176SOL     OW90366   5.825  12.299   9.450
96176SOL    HW190367   5.907  12.346   9.467
96176SOL    HW290368   5.804  12.258   9.534
96177SOL     OW90369  13.276   4.725  11.159
96177SOL    HW190370  13.241   4.636  11.160
96177SOL    HW290371  13.344   4.725  11.226
96178SOL     OW90372   0.550   3.194  12.949
96178SOL    HW190373   0.534   3.246  12.870
96178SOL    HW290374   0.512   3.245  13.020
96179SOL     OW90375   7.046  14.653  13.833
96179SOL    HW190376   7.031  14.566  13.871
96179SOL    HW290377   7.128  14.683  13.871
96180SOL     OW90378  10.388  10.428   3.560
96180SOL    HW190379  10.449  10.462   3.494
96180SOL    HW290380  10.309  10.481   3.550
96181SOL     OW90381  12.498   5.076   5.007
96181SOL    HW190382  12.472   5.099   5.096
96181SOL    HW290383  12.591   5.099   5.002
96182SOL     OW90384   2.368   0.429   5.218
96182SOL    HW190385   2.338   0.343   5.246
96182SOL    HW290386   2.360   0.484   5.296
96183SOL     OW90387   3.577   5.269   6.466
96183SOL    HW190388   3.592   5.254   6.560
96183SOL    HW290389   3.576   5.181   6.428
96184SOL     OW90390   1.466   6.051   3.716
96184SOL    HW190391   1.451   5.998   3.637
96184SOL    HW290392   1.534   6.004   3.764
96185SOL     OW90393  12.692   5.588   7.899
96185SOL    HW190394  12.704   5.518   7.835
96185SOL    HW290395  12.614   5.562   7.949
96186SOL     OW90396   4.988   7.818   3.611
96186SOL    HW190397   5.010   7.852   3.698
96186SOL    HW290398   4.994   7.894   3.553
96187SOL     OW90399  13.597   4.337   2.687
96187SOL    HW190400  13.568   4.252   2.718
96187SOL    HW290401  13.565   4.399   2.752
96188SOL     OW90402   1.995   7.300   0.890
96188SOL    HW190403   2.080   7.259   0.873
96188SOL    HW290404   2.004   7.340   0.976
96189SOL     OW90405  11.850   4.365   0.009
96189SOL    HW190406  11.902   4.423   0.065
96189SOL    HW290407  11.912   4.336  14.816
96190SOL     OW90408   2.908  14.165   6.874
96190SOL    HW190409   2.917  14.070   6.875
96190SOL    HW290410   2.886  14.186   6.783
96191SOL     OW90411   0.110  12.594  11.978
96191SOL    HW190412   0.087  12.607  11.886
96191SOL    HW290413   0.062  12.516  12.004
96192SOL     OW90414   9.183  14.318  12.677
96192SOL    HW190415   9.111  14.374  12.708
96192SOL    HW290416   9.143  14.264  12.609
96193SOL     OW90417  12.025  14.726  14.447
96193SOL    HW190418  12.014  14.802  14.504
96193SOL    HW290419  12.093  14.673  14.490
96194SOL     OW90420  11.314   2.873  13.589
96194SOL    HW190421  11.364   2.909  13.516
96194SOL    HW290422  11.244   2.823  13.549
96195SOL     OW90423   6.722   9.751   1.124
96195SOL    HW190424   6.733   9.656   1.118
96195SOL    HW290425   6.627   9.764   1.123
96196SOL     OW90426   0.830  12.180   8.629
96196SOL    HW190427   0.847  12.262   8.582
96196SOL    HW290428   0.736  12.165   8.617
96197SOL     OW90429   2.105   0.688   2.036
96197SOL    HW190430   2.116   0.783   2.027
96197SOL    HW290431   2.042   0.678   2.108
96198SOL     OW90432   9.764   4.171  12.448
96198SOL    HW190433   9.767   4.078  12.470
96198SOL    HW290434   9.853   4.193  12.421
96199SOL     OW90435   4.681  10.719  12.595
96199SOL    HW190436   4.605  10.777  12.604
96199SOL    HW290437   4.703  10.694  12.684
96200SOL     OW90438   3.486   3.680  13.504
96200SOL    HW190439   3.518   3.672  13.414
96200SOL    HW290440   3.538   3.619  13.555
96201SOL     OW90441   1.791  12.083  12.383
96201SOL    HW190442   1.803  12.061  12.290
96201SOL    HW290443   1.768  12.175  12.382
96202SOL     OW90444   9.963  14.515   0.273
96202SOL    HW190445   9.985  14.550   0.186
96202SOL    HW290446  10.009  14.571   0.334
96203SOL     OW90447   5.697   1.117   9.831
96203SOL    HW190448   5.725   1.068   9.754
96203SOL    HW290449   5.749   1.081   9.903
96204SOL     OW90450  10.574   3.809  11.552
96204SOL    HW190451  10.669   3.818  11.543
96204SOL    HW290452  10.554   3.841  11.640
96205SOL     OW90453   3.488  13.002   4.280
96205SOL    HW190454   3.461  13.088   4.314
96205SOL    HW290455   3.526  12.957   4.355
96206SOL     OW90456   3.422  11.211   5.758
96206SOL    HW190457   3.397  11.296   5.722
96206SOL    HW290458   3.378  11.148   5.701
96207SOL     OW90459   5.213   5.906  11.277
96207SOL    HW190460   5.300   5.867  11.286
96207SOL    HW290461   5.212   5.944  11.189
96208SOL     OW90462  13.873   4.321   1.155
96208SOL    HW190463  13.798   4.263   1.141
96208SOL    HW290464  13.834   4.408   1.161
96209SOL     OW90465   4.887   1.679   5.063
96209SOL    HW190466   4.958   1.735   5.093
96209SOL    HW290467   4.832   1.665   5.140
96210SOL     OW90468   2.552   0.974   6.702
96210SOL    HW190469   2.554   0.893   6.752
96210SOL    HW290470   2.461   1.001   6.703
96211SOL     OW90471  14.323   9.273   2.956
96211SOL    HW190472  14.304   9.341   2.891
96211SOL    HW290473  14.394   9.311   3.009
96212SOL     OW90474   4.162   4.055  11.756
96212SOL    HW190475   4.227   3.989  11.779
96212SOL    HW290476   4.177   4.072  11.663
96213SOL     OW90477  14.256   2.255   4.818
96213SOL    HW190478  14.343   2.293   4.808
96213SOL    HW290479  14.272   2.169   4.858
96214SOL     OW90480   6.833   6.351   3.937
96214SOL    HW190481   6.796   6.437   3.957
96214SOL    HW290482   6.924   6.357   3.967
96215SOL     OW90483   8.838  10.572   0.131
96215SOL    HW190484   8.852  10.492   0.182
96215SOL    HW290485   8.747  10.566   0.101
96216SOL     OW90486   7.450  13.329   8.613
96216SOL    HW190487   7.489  13.349   8.527
96216SOL    HW290488   7.501  13.255   8.646
96217SOL     OW90489   1.081   1.342  10.028
96217SOL    HW190490   1.088   1.420  10.083
96217SOL    HW290491   1.164   1.338   9.981
96218SOL     OW90492  12.350   1.863   5.339
96218SOL    HW190493  12.432   1.864   5.389
96218SOL    HW290494  12.377   1.844   5.249
96219SOL     OW90495  11.017   5.906   0.794
96219SOL    HW190496  10.991   5.991   0.831
96219SOL    HW290497  10.936   5.868   0.761
96220SOL     OW90498  13.082  14.042   6.234
96220SOL    HW190499  13.073  13.958   6.190
96220SOL    HW290500  12.996  14.084   6.224
96221SOL     OW90501   4.232   9.283   8.584
96221SOL    HW190502   4.253   9.192   8.564
96221SOL    HW290503   4.309   9.316   8.630
96222SOL     OW90504   4.438   3.825   4.475
96222SOL    HW190505   4.379   3.751   4.493
96222SOL    HW290506   4.394   3.875   4.406
96223SOL     OW90507  13.505   7.833   8.031
96223SOL    HW190508  13.479   7.842   7.939
96223SOL    HW290509  13.439   7.777   8.070
96224SOL     OW90510  10.352  10.986   4.239
96224SOL    HW190511  10.400  10.920   4.189
96224SOL    HW290512  10.385  11.070   4.206
96225SOL     OW90513   6.093   2.451   1.447
96225SOL    HW190514   6.162   2.493   1.395
96225SOL    HW290515   6.028   2.422   1.383
96226SOL     OW90516   5.897   4.142   0.299
96226SOL    HW190517   5.903   4.103   0.386
96226SOL    HW290518   5.912   4.235   0.314
96227SOL     OW90519   2.319   6.322  13.960
96227SOL    HW190520   2.389   6.287  13.905
96227SOL    HW290521   2.324   6.271  14.041
96228SOL     OW90522  13.728   0.615   7.163
96228SOL    HW190523  13.748   0.561   7.240
96228SOL    HW290524  13.746   0.704   7.191
96229SOL     OW90525   6.345   8.798  13.432
96229SOL    HW190526   6.354   8.734  13.361
96229SOL    HW290527   6.302   8.749  13.503
96230SOL     OW90528   7.337   2.961  13.050
96230SOL    HW190529   7.279   2.991  13.119
96230SOL    HW290530   7.283   2.960  12.971
96231SOL     OW90531  13.195  11.029  13.225
96231SOL    HW190532  13.149  11.107  13.194
96231SOL    HW290533  13.133  10.957  13.211
96232SOL     OW90534   3.591   8.901   8.254
96232SOL    HW190535   3.500   8.909   8.227
96232SOL    HW290536   3.622   8.991   8.262
96233SOL     OW90537   6.217   8.268   3.683
96233SOL    HW190538   6.263   8.228   3.756
96233SOL    HW290539   6.155   8.201   3.655
96234SOL     OW90540   3.376   0.769   5.364
96234SOL    HW190541   3.445   0.831   5.389
96234SOL    HW290542   3.407   0.684   5.397
96235SOL     OW90543  13.168   4.304   0.356
96235SOL    HW190544  13.158   4.346   0.271
96235SOL    HW290545  13.215   4.368   0.410
96236SOL     OW90546  10.837  14.139   1.388
96236SOL    HW190547  10.837  14.044   1.401
96236SOL    HW290548  10.854  14.150   1.295
96237SOL     OW90549   6.887   0.169   1.221
96237SOL    HW190550   6.801   0.140   1.253
96237SOL    HW290551   6.876   0.179   1.127
96238SOL     OW90552  10.539   4.208   1.551
96238SOL    HW190553  10.490   4.139   1.506
96238SOL    HW290554  10.627   4.171   1.561
96239SOL     OW90555   3.542   1.468   0.394
96239SOL    HW190556   3.538   1.386   0.443
96239SOL    HW290557   3.541   1.441   0.302
96240SOL     OW90558  11.746  12.247  12.834
96240SOL    HW190559  11.710  12.287  12.755
96240SOL    HW290560  11.841  12.259  12.826
96241SOL     OW90561   8.316   0.594   1.511
96241SOL    HW190562   8.382   0.540   1.556
96241SOL    HW290563   8.342   0.591   1.419
96242SOL     OW90564  10.407   3.874  11.092
96242SOL    HW190565  10.472   3.934  11.056
96242SOL    HW290566  10.394   3.807  11.025
96243SOL     OW90567  11.780   6.794   2.877
96243SOL    HW190568  11.727   6.725   2.916
96243SOL    HW290569  11.805   6.760   2.791
96244SOL     OW90570   9.825  12.282   5.496
96244SOL    HW190571   9.800  12.208   5.442
96244SOL    HW290572   9.811  12.252   5.586
96245SOL     OW90573  10.106   7.573  13.134
96245SOL    HW190574  10.085   7.494  13.085
96245SOL    HW290575  10.040   7.637  13.105
96246SOL     OW90576   6.980   8.920   2.083
96246SOL    HW190577   6.900   8.965   2.111
96246SOL    HW290578   7.032   8.988   2.040
96247SOL     OW90579  11.910  11.334   1.942
96247SOL    HW190580  11.873  11.296   1.862
96247SOL    HW290581  11.849  11.310   2.011
96248SOL     OW90582   6.236  14.357   2.983
96248SOL    HW190583   6.275  14.443   2.997
96248SOL    HW290584   6.223  14.352   2.888
96249SOL     OW90585   8.572   4.937   5.396
96249SOL    HW190586   8.590   4.995   5.322
96249SOL    HW290587   8.482   4.959   5.422
96250SOL     OW90588   7.722   4.744   5.239
96250SOL    HW190589   7.735   4.839   5.244
96250SOL    HW290590   7.788   4.714   5.177
96251SOL     OW90591   9.718  10.852  11.725
96251SOL    HW190592   9.760  10.782  11.775
96251SOL    HW290593   9.624  10.837  11.738
96252SOL     OW90594  14.446  11.210   1.214
96252SOL    HW190595  14.360  11.220   1.255
96252SOL    HW290596  14.450  11.280   1.149
96253SOL     OW90597  10.301   3.672   1.879
96253SOL    HW190598  10.384   3.714   1.901
96253SOL    HW290599  10.262   3.728   1.812
96254SOL     OW90600  10.685  11.654  13.273
96254SOL    HW190601  10.728  11.657  13.359
96254SOL    HW290602  10.597  11.687  13.289
96255SOL     OW90603  12.589   5.788  11.914
96255SOL    HW190604  12.554   5.768  11.827
96255SOL    HW290605  12.660   5.725  11.926
96256SOL     OW90606  11.753  10.568  13.505
96256SOL    HW190607  11.829  10.605  13.548
96256SOL    HW290608  11.741  10.482  13.546
96257SOL     OW90609   2.720   3.882   7.555
96257SOL    HW190610   2.672   3.870   7.474
96257SOL    HW290611   2.653   3.901   7.621
96258SOL     OW90612   6.749  12.882  13.674
96258SOL    HW190613   6.747  12.793  13.639
96258SOL    HW290614   6.660  12.915  13.663
96259SOL     OW90615  13.258   7.521   8.646
96259SOL    HW190616  13.316   7.591   8.677
96259SOL    HW290617  13.176   7.566   8.626
96260SOL     OW90618   0.933   6.812   8.818
96260SOL    HW190619   0.921   6.721   8.791
96260SOL    HW290620   0.926   6.810   8.914
96261SOL     OW90621   5.836  13.888   4.652
96261SOL    HW190622   5.843  13.862   4.744
96261SOL    HW290623   5.744  13.875   4.631
96262SOL     OW90624   3.232   7.244   2.721
96262SOL    HW190625   3.306   7.199   2.763
96262SOL    HW290626   3.241   7.222   2.628
96263SOL     OW90627   4.133  13.590   9.063
96263SOL    HW190628   4.145  13.680   9.092
96263SOL    HW290629   4.200  13.577   8.996
96264SOL     OW90630  11.151  10.645   1.871
96264SOL    HW190631  11.070  10.624   1.824
96264SOL    HW290632  11.221  10.614   1.814
96265SOL     OW90633  13.137   8.125  12.215
96265SOL    HW190634  13.100   8.204  12.174
96265SOL    HW290635  13.232   8.141  12.215
96266SOL     OW90636   6.876  12.190   1.848
96266SOL    HW190637   6.878  12.189   1.752
96266SOL    HW290638   6.807  12.128   1.871
96267SOL     OW90639   9.196   3.442   9.238
96267SOL    HW190640   9.106   3.450   9.269
96267SOL    HW290641   9.223   3.531   9.216
96268SOL     OW90642  10.981  12.172  13.606
96268SOL    HW190643  11.042  12.191  13.535
96268SOL    HW290644  10.934  12.094  13.578
96269SOL     OW90645   7.653  13.756   9.093
96269SOL    HW190646   7.670  13.848   9.116
96269SOL    HW290647   7.735  13.711   9.111
96270SOL     OW90648   9.314   4.179   6.189
96270SOL    HW190649   9.297   4.254   6.247
96270SOL    HW290650   9.394   4.203   6.142
96271SOL     OW90651   7.440   2.497   2.388
96271SOL    HW190652   7.534   2.487   2.397
96271SOL    HW290653   7.429   2.574   2.333
96272SOL     OW90654   1.068  11.226   6.683
96272SOL    HW190655   1.097  11.306   6.638
96272SOL    HW290656   1.125  11.221   6.760
96273SOL     OW90657  10.032   1.786  12.409
96273SOL    HW190658  10.110   1.836  12.436
96273SOL    HW290659  10.061   1.695  12.409
96274SOL     OW90660   4.750   8.915   4.186
96274SOL    HW190661   4.667   8.881   4.151
96274SOL    HW290662   4.812   8.906   4.114
96275SOL     OW90663   0.012  11.935   0.293
96275SOL    HW190664  14.839  11.893   0.220
96275SOL    HW290665  14.818  11.977   0.345
96276SOL     OW90666   6.207   7.284  12.492
96276SOL    HW190667   6.156   7.309  12.414
96276SOL    HW290668   6.219   7.189  12.483
96277SOL     OW90669   3.027  12.986   8.539
96277SOL    HW190670   3.118  13.011   8.554
96277SOL    HW290671   3.000  13.038   8.462
96278SOL     OW90672   7.068   2.639  13.495
96278SOL    HW190673   7.047   2.614  13.585
96278SOL    HW290674   7.131   2.573  13.467
96279SOL     OW90675   7.101  14.258   7.942
96279SOL    HW190676   7.076  14.166   7.954
96279SOL    HW290677   7.095  14.296   8.030
96280SOL     OW90678   7.282  11.001   3.149
96280SOL    HW190679   7.348  11.062   3.181
96280SOL    HW290680   7.220  11.056   3.101
96281SOL     OW90681  11.892   0.843   8.212
96281SOL    HW190682  11.956   0.914   8.217
96281SOL    HW290683  11.807   0.887   8.223
96282SOL     OW90684  14.103  11.325   7.488
96282SOL    HW190685  14.076  11.236   7.466
96282SOL    HW290686  14.116  11.324   7.583
96283SOL     OW90687   6.605  12.803  13.094
96283SOL    HW190688   6.626  12.756  13.014
96283SOL    HW290689   6.534  12.862  13.070
96284SOL     OW90690   4.086   5.506   9.418
96284SOL    HW190691   4.129   5.442   9.361
96284SOL    HW290692   4.156   5.564   9.446
96285SOL     OW90693  10.811   9.521   8.536
96285SOL    HW190694  10.810   9.498   8.629
96285SOL    HW290695  10.876   9.590   8.529
96286SOL     OW90696   6.428   8.430   8.470
96286SOL    HW190697   6.476   8.508   8.499
96286SOL    HW290698   6.447   8.364   8.536
96287SOL     OW90699   9.826  13.341  13.825
96287SOL    HW190700   9.770  13.377  13.893
96287SOL    HW290701   9.835  13.412  13.761
96288SOL     OW90702   2.765   1.686   3.115
96288SOL    HW190703   2.834   1.741   3.152
96288SOL    HW290704   2.694   1.689   3.179
96289SOL     OW90705   6.611  10.071   9.312
96289SOL    HW190706   6.667  10.033   9.245
96289SOL    HW290707   6.634  10.164   9.311
96290SOL     OW90708   0.804   4.323   5.101
96290SOL    HW190709   0.847   4.292   5.181
96290SOL    HW290710   0.826   4.416   5.095
96291SOL     OW90711   3.421   5.026   3.872
96291SOL    HW190712   3.446   4.936   3.849
96291SOL    HW290713   3.336   5.039   3.831
96292SOL     OW90714   9.633   4.120   3.960
96292SOL    HW190715   9.582   4.043   3.936
96292SOL    HW290716   9.712   4.085   4.001
96293SOL     OW90717   4.382   6.965   6.402
96293SOL    HW190718   4.438   6.987   6.328
96293SOL    HW290719   4.368   6.871   6.395
96294SOL     OW90720  14.687   2.121   4.242
96294SOL    HW190721  14.615   2.058   4.240
96294SOL    HW290722  14.728   2.113   4.156
96295SOL     OW90723   3.507  11.114   1.502
96295SOL    HW190724   3.446  11.163   1.557
96295SOL    HW290725   3.592  11.153   1.520
96296SOL     OW90726  10.701  10.213  11.100
96296SOL    HW190727  10.746  10.269  11.162
96296SOL    HW290728  10.673  10.272  11.029
96297SOL     OW90729   6.596   6.166  14.403
96297SOL    HW190730   6.561   6.245  14.445
96297SOL    HW290731   6.528   6.141  14.340
96298SOL     OW90732   3.386   5.901  11.254
96298SOL    HW190733   3.320   5.886  11.321
96298SOL    HW290734   3.465   5.924  11.302
96299SOL     OW90735  11.435   6.541   7.687
96299SOL    HW190736  11.436   6.594   7.608
96299SOL    HW290737  11.418   6.603   7.758
96300SOL     OW90738   5.741   6.128   5.003
96300SOL    HW190739   5.806   6.166   5.062
96300SOL    HW290740   5.698   6.061   5.056
96301SOL     OW90741   7.747  12.404   0.126
96301SOL    HW190742   7.742  12.386   0.220
96301SOL    HW290743   7.667  12.453   0.107
96302SOL     OW90744  12.623   5.737   6.811
96302SOL    HW190745  12.528   5.743   6.803
96302SOL    HW290746  12.642   5.770   6.899
96303SOL     OW90747   1.747   8.496   9.066
96303SOL    HW190748   1.743   8.401   9.066
96303SOL    HW290749   1.836   8.517   9.038
96304SOL     OW90750   8.150   9.501   8.151
96304SOL    HW190751   8.129   9.554   8.228
96304SOL    HW290752   8.202   9.429   8.184
96305SOL     OW90753   9.058  10.565   0.403
96305SOL    HW190754   8.973  10.522   0.395
96305SOL    HW290755   9.091  10.570   0.313
96306SOL     OW90756   4.649   9.788  13.140
96306SOL    HW190757   4.590   9.713  13.133
96306SOL    HW290758   4.703   9.783  13.062
96307SOL     OW90759   1.088   9.734   8.054
96307SOL    HW190760   1.062   9.813   8.006
96307SOL    HW290761   1.065   9.662   7.996
96308SOL     OW90762   9.712   7.862  12.529
96308SOL    HW190763   9.694   7.768  12.538
96308SOL    HW290764   9.687   7.882  12.439
96309SOL     OW90765   0.773   0.984   7.030
96309SOL    HW190766   0.686   1.011   7.059
96309SOL    HW290767   0.759   0.942   6.945
96310SOL     OW90768  12.858   9.482   9.981
96310SOL    HW190769  12.798   9.468   9.908
96310SOL    HW290770  12.892   9.395  10.002
96311SOL     OW90771   3.638   9.598   6.568
96311SOL    HW190772   3.718   9.572   6.613
96311SOL    HW290773   3.652   9.690   6.547
96312SOL     OW90774   2.212   1.536  14.648
96312SOL    HW190775   2.228   1.621  14.690
96312SOL    HW290776   2.294   1.489  14.659
96313SOL     OW90777   7.293   5.230   7.664
96313SOL    HW190778   7.270   5.323   7.659
96313SOL    HW290779   7.384   5.226   7.634
96314SOL     OW90780  11.599   3.680   7.387
96314SOL    HW190781  11.511   3.649   7.367
96314SOL    HW290782  11.640   3.692   7.301
96315SOL     OW90783  13.579   2.295   9.191
96315SOL    HW190784  13.507   2.297   9.128
96315SOL    HW290785  13.639   2.228   9.156
96316SOL     OW90786   8.325  10.232  11.424
96316SOL    HW190787   8.322  10.147  11.468
96316SOL    HW290788   8.418  10.250  11.413
96317SOL     OW90789   1.876   6.112  10.596
96317SOL    HW190790   1.810   6.101  10.664
96317SOL    HW290791   1.949   6.056  10.624
96318SOL     OW90792  11.035   9.465   6.862
96318SOL    HW190793  11.106   9.496   6.804
96318SOL    HW290794  10.995   9.392   6.814
96319SOL     OW90795  12.200   9.004   5.234
96319SOL    HW190796  12.168   9.094   5.239
96319SOL    HW290797  12.121   8.951   5.229
96320SOL     OW90798  12.551   1.220   3.578
96320SOL    HW190799  12.554   1.129   3.608
96320SOL    HW290800  12.638   1.236   3.542
96321SOL     OW90801   6.876   5.524   2.266
96321SOL    HW190802   6.957   5.574   2.274
96321SOL    HW290803   6.817   5.581   2.217
96322SOL     OW90804   0.923   3.528   3.003
96322SOL    HW190805   0.932   3.616   3.038
96322SOL    HW290806   0.982   3.526   2.927
96323SOL     OW90807   8.409  12.690   6.443
96323SOL    HW190808   8.469  12.720   6.512
96323SOL    HW290809   8.351  12.628   6.488
96324SOL     OW90810   8.617   7.731   1.945
96324SOL    HW190811   8.712   7.718   1.941
96324SOL    HW290812   8.606   7.816   1.989
96325SOL     OW90813   2.074  11.076   7.214
96325SOL    HW190814   2.018  11.038   7.146
96325SOL    HW290815   2.065  11.017   7.288
96326SOL     OW90816   0.931  14.246  12.114
96326SOL    HW190817   0.995  14.226  12.046
96326SOL    HW290818   0.851  14.201  12.086
96327SOL     OW90819   4.268   6.947   3.869
96327SOL    HW190820   4.208   7.003   3.821
96327SOL    HW290821   4.355   6.972   3.838
96328SOL     OW90822   0.320   2.333   2.470
96328SOL    HW190823   0.314   2.279   2.548
96328SOL    HW290824   0.403   2.379   2.478
96329SOL     OW90825   6.253   3.207   0.610
96329SOL    HW190826   6.327   3.253   0.650
96329SOL    HW290827   6.224   3.264   0.539
96330SOL     OW90828  14.670  10.511   5.224
96330SOL    HW190829  14.589  10.481   5.265
96330SOL    HW290830  14.660  10.486   5.132
96331SOL     OW90831   9.062   2.315  11.195
96331SOL    HW190832   9.021   2.394  11.232
96331SOL    HW290833   9.046   2.247  11.260
96332SOL     OW90834  10.905   0.153   7.914
96332SOL    HW190835  10.850   0.226   7.942
96332SOL    HW290836  10.863   0.120   7.835
96333SOL     OW90837   4.501   2.922   9.283
96333SOL    HW190838   4.536   2.969   9.207
96333SOL    HW290839   4.408   2.944   9.285
96334SOL     OW90840   7.350   6.015   2.667
96334SOL    HW190841   7.303   6.012   2.750
96334SOL    HW290842   7.372   6.108   2.655
96335SOL     OW90843   2.706   6.746   9.195
96335SOL    HW190844   2.675   6.656   9.206
96335SOL    HW290845   2.707   6.759   9.100
96336SOL     OW90846   0.669   1.394   1.997
96336SOL    HW190847   0.754   1.374   1.958
96336SOL    HW290848   0.605   1.358   1.935
96337SOL     OW90849  12.230   7.413   6.536
96337SOL    HW190850  12.321   7.393   6.514
96337SOL    HW290851  12.204   7.343   6.596
96338SOL     OW90852  10.502   7.704   6.022
96338SOL    HW190853  10.418   7.749   6.034
96338SOL    HW290854  10.567   7.767   6.053
96339SOL     OW90855  10.473  14.522   0.153
96339SOL    HW190856  10.413  14.475   0.211
96339SOL    HW290857  10.515  14.587   0.210
96340SOL     OW90858  12.751  13.788  12.483
96340SOL    HW190859  12.782  13.844  12.412
96340SOL    HW290860  12.802  13.815  12.560
96341SOL     OW90861   8.020   2.845   1.255
96341SOL    HW190862   8.083   2.774   1.247
96341SOL    HW290863   7.972   2.846   1.172
96342SOL     OW90864   8.726   9.823  12.739
96342SOL    HW190865   8.756   9.778  12.660
96342SOL    HW290866   8.664   9.889  12.707
96343SOL     OW90867   8.946   0.259   4.771
96343SOL    HW190868   8.902   0.343   4.782
96343SOL    HW290869   8.884   0.194   4.804
96344SOL     OW90870   3.972  12.105   1.178
96344SOL    HW190871   3.949  12.198   1.174
96344SOL    HW290872   4.067  12.104   1.190
96345SOL     OW90873  11.326  13.523   2.882
96345SOL    HW190874  11.388  13.451   2.894
96345SOL    HW290875  11.299  13.546   2.971
96346SOL     OW90876  12.956   0.387  11.204
96346SOL    HW190877  13.023   0.327  11.237
96346SOL    HW290878  12.881   0.372  11.262
96347SOL     OW90879  12.251  10.331  14.128
96347SOL    HW190880  12.164  10.317  14.166
96347SOL    HW290881  12.256  10.269  14.055
96348SOL     OW90882   7.640   6.594   1.765
96348SOL    HW190883   7.708   6.599   1.832
96348SOL    HW290884   7.600   6.508   1.778
96349SOL     OW90885  13.922  14.066  12.191
96349SOL    HW190886  13.827  14.065  12.195
96349SOL    HW290887  13.951  14.054  12.281
96350SOL     OW90888   6.329  13.538   7.057
96350SOL    HW190889   6.240  13.505   7.041
96350SOL    HW290890   6.371  13.469   7.109
96351SOL     OW90891  14.031   7.620   1.255
96351SOL    HW190892  14.122   7.644   1.275
96351SOL    HW290893  14.029   7.524   1.264
96352SOL     OW90894   1.363   2.222  11.751
96352SOL    HW190895   1.270   2.210  11.737
96352SOL    HW290896   1.392   2.275  11.677
96353SOL     OW90897   1.170  13.256   8.742
96353SOL    HW190898   1.129  13.303   8.669
96353SOL    HW290899   1.217  13.184   8.701
96354SOL     OW90900   8.323   2.511  14.535
96354SOL    HW190901   8.247   2.560  14.504
96354SOL    HW290902   8.393   2.535  14.474
96355SOL     OW90903   0.018   4.678   8.319
96355SOL    HW190904   0.041   4.711   8.232
96355SOL    HW290905  14.815   4.727   8.344
96356SOL     OW90906  10.211   1.890  14.447
96356SOL    HW190907  10.117   1.891  14.432
96356SOL    HW290908  10.248   1.940  14.375
96357SOL     OW90909  10.556  13.763   9.383
96357SOL    HW190910  10.523  13.807   9.304
96357SOL    HW290911  10.484  13.768   9.445
96358SOL     OW90912   7.105  11.579   6.679
96358SOL    HW190913   7.194  11.552   6.657
96358SOL    HW290914   7.074  11.513   6.741
96359SOL     OW90915   8.414  13.003   3.601
96359SOL    HW190916   8.393  12.910   3.587
96359SOL    HW290917   8.378  13.023   3.688
96360SOL     OW90918  10.044   9.558   9.261
96360SOL    HW190919  10.106   9.623   9.228
96360SOL    HW290920   9.961   9.606   9.268
96361SOL     OW90921   0.424  12.771   4.884
96361SOL    HW190922   0.447  12.853   4.843
96361SOL    HW290923   0.466  12.704   4.830
96362SOL     OW90924   1.224  14.577  10.583
96362SOL    HW190925   1.221  14.632  10.505
96362SOL    HW290926   1.299  14.610  10.633
96363SOL     OW90927   1.251   7.100   5.567
96363SOL    HW190928   1.258   7.156   5.489
96363SOL    HW290929   1.161   7.113   5.598
96364SOL     OW90930  13.549   8.783   9.670
96364SOL    HW190931  13.545   8.761   9.576
96364SOL    HW290932  13.463   8.756   9.704
96365SOL     OW90933  13.516   8.555  12.308
96365SOL    HW190934  13.433   8.514  12.331
96365SOL    HW290935  13.508   8.645  12.337
96366SOL     OW90936  12.376   2.165   3.461
96366SOL    HW190937  12.465   2.138   3.485
96366SOL    HW290938  12.364   2.132   3.372
96367SOL     OW90939   7.272   9.579  10.080
96367SOL    HW190940   7.202   9.587  10.145
96367SOL    HW290941   7.353   9.584  10.131
96368SOL     OW90942   6.069   5.397   0.409
96368SOL    HW190943   6.147   5.375   0.359
96368SOL    HW290944   6.003   5.418   0.342
96369SOL     OW90945  11.265   3.486   1.271
96369SOL    HW190946  11.346   3.488   1.321
96369SOL    HW290947  11.284   3.429   1.196
96370SOL     OW90948  10.795  10.720   7.559
96370SOL    HW190949  10.706  10.754   7.569
96370SOL    HW290950  10.782  10.627   7.539
96371SOL     OW90951   6.780   3.593   7.896
96371SOL    HW190952   6.834   3.603   7.818
96371SOL    HW290953   6.814   3.658   7.958
96372SOL     OW90954  11.357  14.780   3.654
96372SOL    HW190955  11.334  14.788   3.562
96372SOL    HW290956  11.451  14.761   3.654
96373SOL     OW90957  11.392  13.602  10.444
96373SOL    HW190958  11.355  13.559  10.367
96373SOL    HW290959  11.315  13.635  10.491
96374SOL     OW90960   5.727   5.157   8.521
96374SOL    HW190961   5.790   5.152   8.593
96374SOL    HW290962   5.669   5.082   8.534
96375SOL     OW90963  12.184   7.366  10.124
96375SOL    HW190964  12.239   7.384  10.048
96375SOL    HW290965  12.246   7.360  10.197
96376SOL     OW90966   7.145   1.848   7.690
96376SOL    HW190967   7.200   1.770   7.703
96376SOL    HW290968   7.153   1.869   7.597
96377SOL     OW90969   3.812   5.498  12.237
96377SOL    HW190970   3.875   5.448  12.289
96377SOL    HW290971   3.850   5.586  12.231
96378SOL     OW90972   3.987   9.940   7.104
96378SOL    HW190973   3.929   9.961   7.177
96378SOL    HW290974   4.067   9.909   7.145
96379SOL     OW90975   0.273   0.988  13.079
96379SOL    HW190976   0.247   1.056  13.016
96379SOL    HW290977   0.358   1.016  13.112
96380SOL     OW90978  11.272   4.024  14.276
96380SOL    HW190979  11.178   4.011  14.284
96380SOL    HW290980  11.282   4.081  14.200
96381SOL     OW90981   8.173   0.803  10.267
96381SOL    HW190982   8.179   0.884  10.319
96381SOL    HW290983   8.084   0.802  10.234
96382SOL     OW90984  12.733   5.588   3.366
96382SOL    HW190985  12.686   5.558   3.288
96382SOL    HW290986  12.665   5.602   3.431
96383SOL     OW90987   4.069  13.794  12.347
96383SOL    HW190988   4.018  13.840  12.279
96383SOL    HW290989   4.106  13.865  12.400
96384SOL     OW90990   9.750  11.914   7.395
96384SOL    HW190991   9.737  11.859   7.473
96384SOL    HW290992   9.744  11.853   7.322
96385SOL     OW90993  12.753  13.043  10.007
96385SOL    HW190994  12.704  13.125   9.994
96385SOL    HW290995  12.773  13.042  10.100
96386SOL     OW90996   0.544  13.469   9.406
96386SOL    HW190997   0.472  13.527   9.434
96386SOL    HW290998   0.613  13.484   9.470
96387SOL     OW90999  14.500   5.367  13.928
96387SOL    HW191000  14.553   5.394  14.004
96387SOL    HW291001  14.412   5.353  13.963
96388SOL     OW91002   5.393  13.668  14.265
96388SOL    HW191003   5.459  13.619  14.216
96388SOL    HW291004   5.429  13.675  14.353
96389SOL     OW91005   9.578   2.304   9.515
96389SOL    HW191006   9.651   2.352   9.555
96389SOL    HW291007   9.608   2.214   9.509
96390SOL     OW91008   2.184  14.496   9.604
96390SOL    HW191009   2.237  14.443   9.545
96390SOL    HW291010   2.166  14.439   9.679
96391SOL     OW91011   5.406  13.539  10.576
96391SOL    HW191012   5.465  13.496  10.638
96391SOL    HW291013   5.463  13.595  10.524
96392SOL     OW91014   7.157   7.854   2.714
96392SOL    HW191015   7.131   7.917   2.647
96392SOL    HW291016   7.222   7.798   2.671
96393SOL     OW91017   2.895   9.809  11.294
96393SOL    HW191018   2.972   9.860  11.271
96393SOL    HW291019   2.881   9.827  11.387
96394SOL     OW91020   6.846  12.813  14.095
96394SOL    HW191021   6.804  12.888  14.051
96394SOL    HW291022   6.789  12.793  14.168
96395SOL     OW91023   4.319   9.006   9.131
96395SOL    HW191024   4.375   9.082   9.119
96395SOL    HW291025   4.379   8.934   9.148
96396SOL     OW91026   4.960   4.105  14.455
96396SOL    HW191027   4.892   4.154  14.407
96396SOL    HW291028   4.913   4.030  14.492
96397SOL     OW91029   7.629   6.262   7.329
96397SOL    HW191030   7.709   6.285   7.376
96397SOL    HW291031   7.640   6.302   7.242
96398SOL     OW91032  10.242   1.248   5.505
96398SOL    HW191033  10.310   1.250   5.439
96398SOL    HW291034  10.177   1.186   5.472
96399SOL     OW91035   5.770  11.772   9.114
96399SOL    HW191036   5.831  11.709   9.077
96399SOL    HW291037   5.684  11.731   9.105
96400SOL     OW91038  11.593   4.401  10.316
96400SOL    HW191039  11.533   4.445  10.376
96400SOL    HW291040  11.678   4.442  10.332
96401SOL     OW91041  12.984   8.556  13.264
96401SOL    HW191042  13.044   8.574  13.192
96401SOL    HW291043  12.967   8.462  13.260
96402SOL     OW91044  14.745   4.947   8.208
96402SOL    HW191045  14.821   5.005   8.208
96402SOL    HW291046  14.679   4.994   8.156
96403SOL     OW91047  11.348   8.385  13.856
96403SOL    HW191048  11.325   8.476  13.838
96403SOL    HW291049  11.266   8.337  13.848
96404SOL     OW91050  13.638  13.279   3.300
96404SOL    HW191051  13.661  13.198   3.345
96404SOL    HW291052  13.544  13.270   3.282
96405SOL     OW91053  11.055   8.190   1.980
96405SOL    HW191054  11.065   8.099   2.009
96405SOL    HW291055  10.969   8.216   2.014
96406SOL     OW91056   0.870   2.855  11.793
96406SOL    HW191057   0.869   2.764  11.825
96406SOL    HW291058   0.786   2.890  11.820
96407SOL     OW91059   0.490   4.307   7.030
96407SOL    HW191060   0.494   4.217   6.998
96407SOL    HW291061   0.565   4.350   6.990
96408SOL     OW91062   4.778  10.348  10.157
96408SOL    HW191063   4.704  10.405  10.135
96408SOL    HW291064   4.829  10.342  10.077
96409SOL     OW91065   9.557   8.978   7.519
96409SOL    HW191066   9.578   8.943   7.432
96409SOL    HW291067   9.596   8.915   7.580
96410SOL     OW91068   4.121   5.004   1.175
96410SOL    HW191069   4.088   5.039   1.257
96410SOL    HW291070   4.195   4.949   1.200
96411SOL     OW91071  14.566   1.066   2.875
96411SOL    HW191072  14.508   1.012   2.822
96411SOL    HW291073  14.651   1.060   2.831
96412SOL     OW91074   5.551   6.088   9.677
96412SOL    HW191075   5.622   6.040   9.635
96412SOL    HW291076   5.484   6.022   9.694
96413SOL     OW91077   3.488   4.109   0.400
96413SOL    HW191078   3.547   4.036   0.422
96413SOL    HW291079   3.403   4.068   0.386
96414SOL     OW91080   4.120   4.209   0.073
96414SOL    HW191081   4.059   4.259   0.018
96414SOL    HW291082   4.172   4.275   0.118
96415SOL     OW91083   0.295   4.700   2.899
96415SOL    HW191084   0.236   4.759   2.945
96415SOL    HW291085   0.300   4.735   2.810
96416SOL     OW91086  11.705   1.821   3.861
96416SOL    HW191087  11.753   1.777   3.932
96416SOL    HW291088  11.768   1.825   3.789
96417SOL     OW91089   7.438  12.704   3.880
96417SOL    HW191090   7.518  12.738   3.919
96417SOL    HW291091   7.368  12.747   3.927
96418SOL     OW91092   2.668  13.221   8.866
96418SOL    HW191093   2.619  13.140   8.881
96418SOL    HW291094   2.653  13.242   8.774
96419SOL     OW91095   6.680  13.304  13.245
96419SOL    HW191096   6.662  13.210  13.238
96419SOL    HW291097   6.721  13.314  13.331
96420SOL     OW91098   2.761  12.378   1.132
96420SOL    HW191099   2.671  12.403   1.154
96420SOL    HW291100   2.752  12.327   1.051
96421SOL     OW91101   9.944   2.901   6.487
96421SOL    HW191102  10.000   2.838   6.532
96421SOL    HW291103  10.004   2.949   6.430
96422SOL     OW91104   8.828   5.764   0.847
96422SOL    HW191105   8.813   5.850   0.888
96422SOL    HW291106   8.835   5.784   0.753
96423SOL     OW91107   2.835   1.410   6.291
96423SOL    HW191108   2.794   1.493   6.317
96423SOL    HW291109   2.764   1.346   6.295
96424SOL     OW91110   9.583  10.146  14.557
96424SOL    HW191111   9.570  10.065  14.607
96424SOL    HW291112   9.603  10.117  14.468
96425SOL     OW91113   7.020   1.994  12.985
96425SOL    HW191114   6.954   2.062  12.969
96425SOL    HW291115   6.978   1.934  13.047
96426SOL     OW91116   2.254   4.991   5.269
96426SOL    HW191117   2.290   5.051   5.204
96426SOL    HW291118   2.198   5.046   5.324
96427SOL     OW91119  13.272   1.479   6.215
96427SOL    HW191120  13.325   1.525   6.150
96427SOL    HW291121  13.257   1.393   6.177
96428SOL     OW91122  12.250   6.870  11.142
96428SOL    HW191123  12.201   6.948  11.114
96428SOL    HW291124  12.186   6.799  11.137
96429SOL     OW91125   7.266   1.878   0.142
96429SOL    HW191126   7.252   1.940   0.069
96429SOL    HW291127   7.204   1.807   0.125
96430SOL     OW91128   6.005   3.801  14.406
96430SOL    HW191129   6.047   3.874  14.451
96430SOL    HW291130   6.053   3.794  14.323
96431SOL     OW91131   5.264   5.963  12.940
96431SOL    HW191132   5.180   5.918  12.929
96431SOL    HW291133   5.244   6.055  12.921
96432SOL     OW91134   8.092   2.749   9.521
96432SOL    HW191135   8.004   2.720   9.543
96432SOL    HW291136   8.100   2.731   9.427
96433SOL     OW91137  13.695   5.066  11.659
96433SOL    HW191138  13.774   5.039  11.614
96433SOL    HW291139  13.717   5.150  11.700
96434SOL     OW91140   6.421   7.374   6.551
96434SOL    HW191141   6.444   7.401   6.462
96434SOL    HW291142   6.501   7.337   6.586
96435SOL     OW91143   5.729  11.943   7.742
96435SOL    HW191144   5.634  11.932   7.746
96435SOL    HW291145   5.754  11.965   7.831
96436SOL     OW91146   3.523   5.655   5.170
96436SOL    HW191147   3.531   5.685   5.079
96436SOL    HW291148   3.442   5.695   5.201
96437SOL     OW91149   3.929   6.522   1.872
96437SOL    HW191150   3.912   6.443   1.923
96437SOL    HW291151   3.843   6.563   1.861
96438SOL     OW91152  13.948  14.311   8.872
96438SOL    HW191153  13.909  14.278   8.953
96438SOL    HW291154  14.007  14.381   8.900
96439SOL     OW91155   0.628   3.987  11.432
96439SOL    HW191156   0.612   3.893  11.428
96439SOL    HW291157   0.554   4.021  11.482
96440SOL     OW91158   3.757   6.687   1.681
96440SOL    HW191159   3.817   6.638   1.625
96440SOL    HW291160   3.671   6.674   1.641
96441SOL     OW91161   0.231   1.919  10.169
96441SOL    HW191162   0.248   1.904  10.262
96441SOL    HW291163   0.312   1.893  10.126
96442SOL     OW91164  11.124   6.425  14.691
96442SOL    HW191165  11.118   6.520  14.694
96442SOL    HW291166  11.079   6.395  14.770
96443SOL     OW91167  14.868   0.490   8.757
96443SOL    HW191168  14.851   0.425   8.689
96443SOL    HW291169  14.826   0.455   8.835
96444SOL     OW91170  13.328  11.594  13.203
96444SOL    HW191171  13.306  11.563  13.291
96444SOL    HW291172  13.394  11.662  13.217
96445SOL     OW91173   9.402   3.352  13.373
96445SOL    HW191174   9.441   3.367  13.287
96445SOL    HW291175   9.477   3.343  13.432
96446SOL     OW91176   4.923   4.854   7.888
96446SOL    HW191177   4.992   4.913   7.857
96446SOL    HW291178   4.968   4.791   7.944
96447SOL     OW91179  13.867  10.729  13.037
96447SOL    HW191180  13.907  10.752  12.954
96447SOL    HW291181  13.858  10.634  13.035
96448SOL     OW91182   5.682  13.677   0.710
96448SOL    HW191183   5.648  13.686   0.620
96448SOL    HW291184   5.675  13.584   0.729
96449SOL     OW91185   4.123   7.089   2.892
96449SOL    HW191186   4.156   7.178   2.881
96449SOL    HW291187   4.101   7.082   2.985
96450SOL     OW91188   1.399   2.993  11.525
96450SOL    HW191189   1.457   3.059  11.486
96450SOL    HW291190   1.325   3.043  11.558
96451SOL     OW91191  14.590  13.244  12.760
96451SOL    HW191192  14.575  13.289  12.677
96451SOL    HW291193  14.618  13.156  12.735
96452SOL     OW91194  11.714  12.242   2.274
96452SOL    HW191195  11.622  12.239   2.302
96452SOL    HW291196  11.741  12.332   2.291
96453SOL     OW91197   3.219  13.313  10.023
96453SOL    HW191198   3.182  13.228  10.047
96453SOL    HW291199   3.313  13.303  10.037
96454SOL     OW91200   8.406   2.000   4.230
96454SOL    HW191201   8.347   2.068   4.198
96454SOL    HW291202   8.347   1.931   4.263
96455SOL     OW91203  10.659   3.789   6.100
96455SOL    HW191204  10.698   3.755   6.181
96455SOL    HW291205  10.616   3.870   6.126
96456SOL     OW91206  10.238   4.607   2.106
96456SOL    HW191207  10.177   4.556   2.052
96456SOL    HW291208  10.296   4.542   2.145
96457SOL     OW91209  13.321   0.944   4.743
96457SOL    HW191210  13.287   0.854   4.742
96457SOL    HW291211  13.412   0.935   4.713
96458SOL     OW91212   1.835  13.612   1.183
96458SOL    HW191213   1.828  13.619   1.278
96458SOL    HW291214   1.756  13.564   1.157
96459SOL     OW91215   7.400  13.101   3.959
96459SOL    HW191216   7.469  13.104   4.025
96459SOL    HW291217   7.440  13.054   3.886
96460SOL     OW91218  10.962   8.660   4.593
96460SOL    HW191219  11.013   8.587   4.559
96460SOL    HW291220  10.956   8.721   4.520
96461SOL     OW91221   1.510   7.099   0.284
96461SOL    HW191222   1.555   7.181   0.266
96461SOL    HW291223   1.578   7.040   0.315
96462SOL     OW91224  14.395  10.617  14.455
96462SOL    HW191225  14.340  10.539  14.442
96462SOL    HW291226  14.371  10.649  14.541
96463SOL     OW91227   7.426   5.212   1.041
96463SOL    HW191228   7.489   5.262   0.989
96463SOL    HW291229   7.393   5.145   0.981
96464SOL     OW91230  11.957   5.320   1.030
96464SOL    HW191231  12.010   5.396   1.007
96464SOL    HW291232  12.017   5.246   1.029
96465SOL     OW91233  12.552  10.841   4.059
96465SOL    HW191234  12.588  10.819   4.145
96465SOL    HW291235  12.503  10.763   4.033
96466SOL     OW91236   9.302  13.347  12.008
96466SOL    HW191237   9.279  13.422  12.063
96466SOL    HW291238   9.276  13.271  12.059
96467SOL     OW91239   0.084   4.413   4.625
96467SOL    HW191240   0.001   4.433   4.669
96467SOL    HW291241   0.058   4.364   4.547
96468SOL     OW91242   3.720   0.207   6.906
96468SOL    HW191243   3.682   0.224   6.992
96468SOL    HW291244   3.675   0.268   6.847
96469SOL     OW91245   8.969   6.157   4.458
96469SOL    HW191246   9.018   6.149   4.540
96469SOL    HW291247   8.878   6.145   4.483
96470SOL     OW91248   4.348  11.885   8.544
96470SOL    HW191249   4.412  11.816   8.559
96470SOL    HW291250   4.368  11.918   8.456
96471SOL     OW91251   6.793   2.587   7.313
96471SOL    HW191252   6.719   2.601   7.372
96471SOL    HW291253   6.835   2.672   7.306
96472SOL     OW91254   4.213   0.621   6.546
96472SOL    HW191255   4.157   0.633   6.623
96472SOL    HW291256   4.153   0.598   6.475
96473SOL     OW91257   7.293   6.037  10.901
96473SOL    HW191258   7.304   6.123  10.860
96473SOL    HW291259   7.232   6.052  10.973
96474SOL     OW91260   3.650  13.962   6.647
96474SOL    HW191261   3.607  13.906   6.712
96474SOL    HW291262   3.580  13.984   6.585
96475SOL     OW91263   9.037  12.281   7.535
96475SOL    HW191264   8.971  12.243   7.593
96475SOL    HW291265   9.120  12.266   7.579
96476SOL     OW91266  11.952   7.843  14.845
96476SOL    HW191267  11.862   7.850   0.003
96476SOL    HW291268  11.956   7.757  14.805
96477SOL     OW91269   6.907   9.402  12.636
96477SOL    HW191270   7.002   9.405  12.638
96477SOL    HW291271   6.887   9.318  12.594
96478SOL     OW91272  10.798   4.684  13.885
96478SOL    HW191273  10.831   4.600  13.917
96478SOL    HW291274  10.738   4.661  13.815
96479SOL     OW91275   8.473   2.519   7.489
96479SOL    HW191276   8.534   2.589   7.467
96479SOL    HW291277   8.511   2.477   7.566
96480SOL     OW91278   1.208  11.971   0.120
96480SOL    HW191279   1.266  11.942   0.190
96480SOL    HW291280   1.154  11.895   0.100
96481SOL     OW91281  14.432   3.263   6.464
96481SOL    HW191282  14.481   3.343   6.446
96481SOL    HW291283  14.498   3.194   6.468
96482SOL     OW91284   8.919   1.111  12.751
96482SOL    HW191285   8.923   1.206  12.750
96482SOL    HW291286   8.849   1.089  12.690
96483SOL     OW91287   1.738  12.834   6.745
96483SOL    HW191288   1.777  12.748   6.763
96483SOL    HW291289   1.670  12.843   6.812
96484SOL     OW91290  13.760  13.479   8.875
96484SOL    HW191291  13.705  13.403   8.857
96484SOL    HW291292  13.802  13.460   8.959
96485SOL     OW91293  13.782   2.519   4.011
96485SOL    HW191294  13.801   2.474   4.093
96485SOL    HW291295  13.803   2.611   4.028
96486SOL     OW91296   3.874   5.535  14.753
96486SOL    HW191297   3.795   5.587  14.768
96486SOL    HW291298   3.929   5.552  14.830
96487SOL     OW91299   4.364  10.937   2.423
96487SOL    HW191300   4.313  10.981   2.355
96487SOL    HW291301   4.374  11.003   2.492
96488SOL     OW91302   4.024  12.585   8.699
96488SOL    HW191303   4.028  12.652   8.631
96488SOL    HW291304   4.074  12.511   8.663
96489SOL     OW91305   8.961  13.898   3.909
96489SOL    HW191306   8.948  13.992   3.896
96489SOL    HW291307   9.055  13.885   3.894
96490SOL     OW91308   5.780   4.372   4.240
96490SOL    HW191309   5.773   4.467   4.231
96490SOL    HW291310   5.749   4.337   4.156
96491SOL     OW91311   1.236   4.427  11.562
96491SOL    HW191312   1.313   4.431  11.506
96491SOL    HW291313   1.257   4.361  11.627
96492SOL     OW91314   8.313   9.933   1.954
96492SOL    HW191315   8.300  10.026   1.974
96492SOL    HW291316   8.261   9.917   1.875
96493SOL     OW91317   9.294  13.559   6.918
96493SOL    HW191318   9.240  13.623   6.872
96493SOL    HW291319   9.241  13.533   6.994
96494SOL     OW91320   8.911  13.547   6.613
96494SOL    HW191321   8.900  13.484   6.542
96494SOL    HW291322   8.857  13.622   6.587
96495SOL     OW91323   8.795   7.751   0.802
96495SOL    HW191324   8.724   7.702   0.843
96495SOL    HW291325   8.852   7.684   0.764
96496SOL     OW91326   7.961   3.538   1.405
96496SOL    HW191327   7.926   3.515   1.491
96496SOL    HW291328   7.941   3.631   1.396
96497SOL     OW91329   6.183  12.678   2.000
96497SOL    HW191330   6.092  12.685   2.029
96497SOL    HW291331   6.218  12.766   2.010
96498SOL     OW91332   7.379  13.204  14.081
96498SOL    HW191333   7.408  13.171  13.995
96498SOL    HW291334   7.460  13.210  14.132
96499SOL     OW91335   6.825   0.324   4.991
96499SOL    HW191336   6.900   0.285   5.035
96499SOL    HW291337   6.835   0.300   4.899
96500SOL     OW91338  14.850   1.463   9.012
96500SOL    HW191339  14.777   1.403   8.997
96500SOL    HW291340  14.809   1.550   9.011
96501SOL     OW91341   2.021   1.201   0.402
96501SOL    HW191342   2.049   1.202   0.493
96501SOL    HW291343   2.096   1.165   0.354
96502SOL     OW91344  10.082  10.118  11.340
96502SOL    HW191345  10.137  10.048  11.304
96502SOL    HW291346  10.016  10.072  11.391
96503SOL     OW91347   5.148   2.455   3.646
96503SOL    HW191348   5.158   2.496   3.732
96503SOL    HW291349   5.055   2.433   3.640
96504SOL     OW91350  14.123   5.700  14.483
96504SOL    HW191351  14.113   5.764  14.413
96504SOL    HW291352  14.146   5.619  14.439
96505SOL     OW91353   1.656   6.148   6.118
96505SOL    HW191354   1.751   6.147   6.112
96505SOL    HW291355   1.628   6.074   6.065
96506SOL     OW91356   3.049  12.270   2.458
96506SOL    HW191357   3.020  12.362   2.454
96506SOL    HW291358   3.004  12.234   2.534
96507SOL     OW91359  10.250  13.436   8.023
96507SOL    HW191360  10.220  13.517   8.065
96507SOL    HW291361  10.345  13.436   8.037
96508SOL     OW91362   0.363   0.072  11.003
96508SOL    HW191363   0.284   0.018  10.997
96508SOL    HW291364   0.383   0.095  10.912
96509SOL     OW91365  14.013   1.072  12.325
96509SOL    HW191366  13.936   1.088  12.380
96509SOL    HW291367  14.040   1.159  12.295
96510SOL     OW91368   8.055  12.620   4.107
96510SOL    HW191369   7.985  12.592   4.048
96510SOL    HW291370   8.025  12.704   4.142
96511SOL     OW91371   6.011   0.389   3.610
96511SOL    HW191372   5.953   0.367   3.682
96511SOL    HW291373   5.987   0.478   3.585
96512SOL     OW91374  13.327   5.669   8.427
96512SOL    HW191375  13.409   5.643   8.385
96512SOL    HW291376  13.340   5.647   8.520
96513SOL     OW91377   4.538  10.260  12.620
96513SOL    HW191378   4.570  10.198  12.685
96513SOL    HW291379   4.489  10.206  12.557
96514SOL     OW91380   6.688   8.655   6.775
96514SOL    HW191381   6.706   8.595   6.848
96514SOL    HW291382   6.618   8.711   6.808
96515SOL     OW91383  13.985  14.186   5.836
96515SOL    HW191384  13.997  14.138   5.918
96515SOL    HW291385  13.945  14.269   5.863
96516SOL     OW91386  11.761   7.724   1.821
96516SOL    HW191387  11.785   7.807   1.863
96516SOL    HW291388  11.723   7.672   1.892
96517SOL     OW91389  14.224  13.401   3.965
96517SOL    HW191390  14.155  13.378   3.902
96517SOL    HW291391  14.232  13.325   4.021
96518SOL     OW91392   2.762   6.620  11.825
96518SOL    HW191393   2.830   6.554  11.839
96518SOL    HW291394   2.689   6.591  11.880
96519SOL     OW91395  11.116   0.476   5.763
96519SOL    HW191396  11.128   0.544   5.698
96519SOL    HW291397  11.133   0.394   5.716
96520SOL     OW91398   1.699  13.422   2.175
96520SOL    HW191399   1.676  13.453   2.262
96520SOL    HW291400   1.715  13.502   2.124
96521SOL     OW91401   9.653   6.119  13.843
96521SOL    HW191402   9.649   6.045  13.904
96521SOL    HW291403   9.591   6.097  13.774
96522SOL     OW91404  10.219   8.187   7.230
96522SOL    HW191405  10.252   8.201   7.141
96522SOL    HW291406  10.179   8.271   7.254
96523SOL     OW91407   2.504   8.263   5.467
96523SOL    HW191408   2.549   8.179   5.465
96523SOL    HW291409   2.440   8.258   5.396
96524SOL     OW91410   8.209  11.866  13.677
96524SOL    HW191411   8.126  11.903  13.647
96524SOL    HW291412   8.227  11.795  13.616
96525SOL     OW91413   4.767  14.541   5.391
96525SOL    HW191414   4.732  14.455   5.414
96525SOL    HW291415   4.839  14.522   5.331
96526SOL     OW91416  12.046  11.920   0.342
96526SOL    HW191417  12.102  11.985   0.384
96526SOL    HW291418  11.967  11.969   0.317
96527SOL     OW91419   2.099   6.915   2.812
96527SOL    HW191420   2.066   7.003   2.831
96527SOL    HW291421   2.167   6.928   2.746
96528SOL     OW91422   6.460   1.042   4.653
96528SOL    HW191423   6.480   1.034   4.746
96528SOL    HW291424   6.365   1.055   4.650
96529SOL     OW91425   9.965  10.675   3.780
96529SOL    HW191426   9.992  10.635   3.697
96529SOL    HW291427  10.040  10.666   3.838
96530SOL     OW91428   0.115   0.730   6.706
96530SOL    HW191429   0.172   0.657   6.729
96530SOL    HW291430   0.075   0.757   6.789
96531SOL     OW91431   6.347   6.873  10.846
96531SOL    HW191432   6.377   6.789  10.811
96531SOL    HW291433   6.321   6.924  10.769
96532SOL     OW91434   8.709   2.888   0.038
96532SOL    HW191435   8.803   2.901   0.051
96532SOL    HW291436   8.680   2.840   0.115
96533SOL     OW91437   8.623   7.728   2.733
96533SOL    HW191438   8.655   7.646   2.773
96533SOL    HW291439   8.678   7.796   2.772
96534SOL     OW91440   6.141   2.053  10.152
96534SOL    HW191441   6.101   1.973  10.186
96534SOL    HW291442   6.072   2.119  10.160
96535SOL     OW91443   4.515  14.048   0.595
96535SOL    HW191444   4.565  14.093   0.663
96535SOL    HW291445   4.512  13.956   0.624
96536SOL     OW91446   0.246   9.462   8.092
96536SOL    HW191447   0.220   9.371   8.109
96536SOL    HW291448   0.164   9.509   8.081
96537SOL     OW91449   7.024  12.677   2.596
96537SOL    HW191450   6.982  12.737   2.658
96537SOL    HW291451   6.953  12.641   2.545
96538SOL     OW91452  13.015  10.575   6.451
96538SOL    HW191453  12.998  10.481   6.461
96538SOL    HW291454  13.033  10.587   6.358
96539SOL     OW91455  13.546   9.075  10.330
96539SOL    HW191456  13.562   9.168  10.311
96539SOL    HW291457  13.624   9.045  10.376
96540SOL     OW91458  14.528   7.341  13.435
96540SOL    HW191459  14.472   7.334  13.357
96540SOL    HW291460  14.617   7.347  13.401
96541SOL     OW91461   0.872   0.534   0.115
96541SOL    HW191462   0.950   0.480   0.102
96541SOL    HW291463   0.808   0.474   0.153
96542SOL     OW91464   6.825  11.187   2.884
96542SOL    HW191465   6.778  11.125   2.939
96542SOL    HW291466   6.802  11.273   2.919
96543SOL     OW91467   5.913   3.202  12.049
96543SOL    HW191468   5.962   3.206  12.131
96543SOL    HW291469   5.955   3.268  11.993
96544SOL     OW91470  11.344   4.548   1.551
96544SOL    HW191471  11.326   4.478   1.614
96544SOL    HW291472  11.440   4.554   1.548
96545SOL     OW91473   2.234   5.564   0.892
96545SOL    HW191474   2.224   5.475   0.925
96545SOL    HW291475   2.177   5.617   0.948
96546SOL     OW91476   6.813   0.907   3.496
96546SOL    HW191477   6.764   0.916   3.414
96546SOL    HW291478   6.762   0.844   3.548
96547SOL     OW91479  14.691  13.979   0.358
96547SOL    HW191480  14.688  14.052   0.420
96547SOL    HW291481  14.692  13.901   0.413
96548SOL     OW91482   7.405  10.449   8.440
96548SOL    HW191483   7.461  10.521   8.466
96548SOL    HW291484   7.321  10.467   8.481
96549SOL     OW91485   9.149  13.680   2.510
96549SOL    HW191486   9.213  13.731   2.462
96549SOL    HW291487   9.109  13.623   2.444
96550SOL     OW91488  10.630   8.982   9.774
96550SOL    HW191489  10.566   8.999   9.705
96550SOL    HW291490  10.698   8.929   9.731
96551SOL     OW91491  12.860   3.325   5.386
96551SOL    HW191492  12.937   3.271   5.405
96551SOL    HW291493  12.887   3.414   5.406
96552SOL     OW91494  12.479   1.037   0.716
96552SOL    HW191495  12.507   0.969   0.655
96552SOL    HW291496  12.423   1.094   0.664
96553SOL     OW91497  10.587   9.835  11.245
96553SOL    HW191498  10.627   9.754  11.275
96553SOL    HW291499  10.624   9.848  11.157
96554SOL     OW91500   5.784  14.675   1.203
96554SOL    HW191501   5.715  14.697   1.266
96554SOL    HW291502   5.851  14.741   1.216
96555SOL     OW91503   0.761   5.510   3.991
96555SOL    HW191504   0.784   5.549   3.907
96555SOL    HW291505   0.838   5.457   4.015
96556SOL     OW91506   9.281  11.091   3.836
96556SOL    HW191507   9.374  11.072   3.846
96556SOL    HW291508   9.273  11.126   3.747
96557SOL     OW91509  10.568   8.057   5.236
96557SOL    HW191510  10.621   8.030   5.160
96557SOL    HW291511  10.625   8.116   5.285
96558SOL     OW91512   4.762  11.719   9.022
96558SOL    HW191513   4.684  11.712   8.967
96558SOL    HW291514   4.728  11.710   9.112
96559SOL     OW91515  12.834   6.158   4.020
96559SOL    HW191516  12.792   6.100   4.083
96559SOL    HW291517  12.925   6.163   4.048
96560SOL     OW91518  13.768   8.246   2.575
96560SOL    HW191519  13.728   8.209   2.654
96560SOL    HW291520  13.796   8.334   2.602
96561SOL     OW91521   9.139   6.369   5.307
96561SOL    HW191522   9.139   6.453   5.352
96561SOL    HW291523   9.061   6.324   5.339
96562SOL     OW91524  14.415   3.316   2.670
96562SOL    HW191525  14.430   3.335   2.577
96562SOL    HW291526  14.325   3.283   2.673
96563SOL     OW91527  13.295  10.399   7.414
96563SOL    HW191528  13.242  10.468   7.375
96563SOL    HW291529  13.235  10.326   7.428
96564SOL     OW91530   7.284  11.904   7.041
96564SOL    HW191531   7.226  11.895   6.965
96564SOL    HW291532   7.268  11.993   7.072
96565SOL     OW91533  10.397   5.599  13.792
96565SOL    HW191534  10.439   5.513  13.790
96565SOL    HW291535  10.364   5.607  13.881
96566SOL     OW91536   1.773   9.647   6.683
96566SOL    HW191537   1.842   9.669   6.746
96566SOL    HW291538   1.815   9.591   6.619
96567SOL     OW91539   5.620  14.226   8.587
96567SOL    HW191540   5.547  14.234   8.525
96567SOL    HW291541   5.631  14.314   8.623
96568SOL     OW91542   9.866   2.823   3.515
96568SOL    HW191543   9.927   2.795   3.584
96568SOL    HW291544   9.889   2.914   3.498
96569SOL     OW91545   5.774   4.173   8.690
96569SOL    HW191546   5.807   4.248   8.741
96569SOL    HW291547   5.727   4.120   8.755
96570SOL     OW91548   5.191  13.870   6.645
96570SOL    HW191549   5.224  13.816   6.573
96570SOL    HW291550   5.249  13.945   6.648
96571SOL     OW91551   9.507  10.577  14.352
96571SOL    HW191552   9.504  10.641  14.423
96571SOL    HW291553   9.587  10.527  14.368
96572SOL     OW91554   2.502   3.983   3.666
96572SOL    HW191555   2.420   3.977   3.617
96572SOL    HW291556   2.515   3.895   3.703
96573SOL     OW91557   7.559   6.014  11.033
96573SOL    HW191558   7.515   6.026  10.949
96573SOL    HW291559   7.492   6.034  11.098
96574SOL     OW91560   9.949   4.802   5.006
96574SOL    HW191561   9.859   4.775   5.026
96574SOL    HW291562   9.997   4.719   4.998
96575SOL     OW91563   5.938   1.886  11.091
96575SOL    HW191564   5.900   1.962  11.134
96575SOL    HW291565   5.991   1.921  11.020
96576SOL     OW91566  12.568  12.283   5.178
96576SOL    HW191567  12.509  12.208   5.179
96576SOL    HW291568  12.530  12.344   5.241
96577SOL     OW91569   9.635   8.520  12.648
96577SOL    HW191570   9.612   8.606  12.613
96577SOL    HW291571   9.695   8.483  12.584
96578SOL     OW91572  14.463  14.226  11.043
96578SOL    HW191573  14.407  14.285  10.992
96578SOL    HW291574  14.450  14.253  11.134
96579SOL     OW91575  14.361  11.371   3.462
96579SOL    HW191576  14.398  11.408   3.542
96579SOL    HW291577  14.418  11.404   3.392
96580SOL     OW91578   5.124   2.050   3.070
96580SOL    HW191579   5.182   2.016   3.001
96580SOL    HW291580   5.115   2.143   3.050
96581SOL     OW91581   5.367   5.618  12.480
96581SOL    HW191582   5.318   5.550  12.527
96581SOL    HW291583   5.357   5.696  12.534
96582SOL     OW91584  10.469  12.835   9.877
96582SOL    HW191585  10.544  12.870   9.829
96582SOL    HW291586  10.448  12.753   9.832
96583SOL     OW91587  10.256  11.777   8.209
96583SOL    HW191588  10.214  11.691   8.211
96583SOL    HW291589  10.185  11.837   8.187
96584SOL     OW91590   6.321   6.664   4.696
96584SOL    HW191591   6.276   6.738   4.738
96584SOL    HW291592   6.298   6.671   4.604
96585SOL     OW91593   4.348   2.943  11.563
96585SOL    HW191594   4.406   2.886  11.512
96585SOL    HW291595   4.405   2.983  11.628
96586SOL     OW91596  11.535  14.530  14.061
96586SOL    HW191597  11.534  14.446  14.107
96586SOL    HW291598  11.448  14.537  14.022
96587SOL     OW91599   7.063   3.549  13.383
96587SOL    HW191600   7.129   3.480  13.389
96587SOL    HW291601   7.099   3.621  13.435
96588SOL     OW91602   2.969  13.890   9.230
96588SOL    HW191603   3.037  13.947   9.267
96588SOL    HW291604   2.908  13.875   9.303
96589SOL     OW91605   7.527   8.775  12.303
96589SOL    HW191606   7.500   8.815  12.386
96589SOL    HW291607   7.544   8.684  12.325
96590SOL     OW91608   6.104   7.243   5.287
96590SOL    HW191609   6.125   7.196   5.206
96590SOL    HW291610   6.077   7.174   5.348
96591SOL     OW91611   6.306   9.792   6.712
96591SOL    HW191612   6.323   9.787   6.618
96591SOL    HW291613   6.213   9.813   6.718
96592SOL     OW91614   4.478   0.686   8.935
96592SOL    HW191615   4.545   0.686   9.003
96592SOL    HW291616   4.478   0.776   8.902
96593SOL     OW91617   2.692  14.202  13.779
96593SOL    HW191618   2.640  14.269  13.823
96593SOL    HW291619   2.630  14.160  13.718
96594SOL     OW91620  12.071  14.040  10.528
96594SOL    HW191621  12.137  13.973  10.546
96594SOL    HW291622  12.093  14.112  10.587
96595SOL     OW91623   4.579  10.074   6.827
96595SOL    HW191624   4.515  10.143   6.844
96595SOL    HW291625   4.633  10.108   6.756
96596SOL     OW91626   4.372   2.037  12.924
96596SOL    HW191627   4.363   1.958  12.870
96596SOL    HW291628   4.369   2.005  13.014
96597SOL     OW91629   9.131  10.793   6.543
96597SOL    HW191630   9.051  10.840   6.522
96597SOL    HW291631   9.102  10.713   6.587
96598SOL     OW91632   3.221   9.869  10.632
96598SOL    HW191633   3.230   9.799  10.696
96598SOL    HW291634   3.167   9.935  10.677
96599SOL     OW91635  13.507   4.239   6.815
96599SOL    HW191636  13.523   4.177   6.744
96599SOL    HW291637  13.578   4.302   6.809
96600SOL     OW91638   4.875   3.869   6.400
96600SOL    HW191639   4.892   3.905   6.487
96600SOL    HW291640   4.950   3.897   6.347
96601SOL     OW91641   1.464   3.490  11.260
96601SOL    HW191642   1.388   3.510  11.314
96601SOL    HW291643   1.491   3.575  11.224
96602SOL     OW91644  10.262  12.688  10.624
96602SOL    HW191645  10.257  12.764  10.682
96602SOL    HW291646  10.239  12.722  10.537
96603SOL     OW91647   8.503  10.987  13.487
96603SOL    HW191648   8.502  11.072  13.444
96603SOL    HW291649   8.434  10.937  13.443
96604SOL     OW91650   8.894  14.499   9.681
96604SOL    HW191651   8.978  14.492   9.637
96604SOL    HW291652   8.830  14.508   9.610
96605SOL     OW91653   1.510  10.564   5.324
96605SOL    HW191654   1.524  10.470   5.327
96605SOL    HW291655   1.592  10.602   5.357
96606SOL     OW91656   8.551   0.557   6.025
96606SOL    HW191657   8.588   0.522   6.106
96606SOL    HW291658   8.468   0.597   6.052
96607SOL     OW91659  12.340   1.850   4.549
96607SOL    HW191660  12.280   1.879   4.481
96607SOL    HW291661  12.399   1.789   4.506
96608SOL     OW91662   6.775   8.724  12.743
96608SOL    HW191663   6.796   8.676  12.663
96608SOL    HW291664   6.682   8.705  12.758
96609SOL     OW91665   5.851   2.572   3.579
96609SOL    HW191666   5.767   2.595   3.620
96609SOL    HW291667   5.830   2.497   3.523
96610SOL     OW91668   7.311   8.925  11.935
96610SOL    HW191669   7.312   8.843  11.986
96610SOL    HW291670   7.268   8.901  11.853
96611SOL     OW91671   8.333  14.349   2.618
96611SOL    HW191672   8.420  14.323   2.648
96611SOL    HW291673   8.331  14.323   2.526
96612SOL     OW91674   1.918   5.611  14.054
96612SOL    HW191675   1.972   5.600  14.133
96612SOL    HW291676   1.841   5.659  14.084
96613SOL     OW91677  10.391  10.780  14.633
96613SOL    HW191678  10.445  10.823  14.701
96613SOL    HW291679  10.304  10.818  14.644
96614SOL     OW91680   0.114   5.911   5.224
96614SOL    HW191681   0.027   5.897   5.262
96614SOL    HW291682   0.119   6.005   5.209
96615SOL     OW91683  12.448   9.516   1.766
96615SOL    HW191684  12.425   9.567   1.843
96615SOL    HW291685  12.467   9.582   1.699
96616SOL     OW91686   8.305   7.962   2.414
96616SOL    HW191687   8.227   7.965   2.358
96616SOL    HW291688   8.276   7.922   2.495
96617SOL     OW91689   0.845  14.146   7.785
96617SOL    HW191690   0.791  14.213   7.826
96617SOL    HW291691   0.935  14.173   7.802
96618SOL     OW91692   8.789  13.983  11.873
96618SOL    HW191693   8.797  13.924  11.798
96618SOL    HW291694   8.698  14.013  11.869
96619SOL     OW91695  14.400  14.260  10.092
96619SOL    HW191696  14.405  14.192  10.159
96619SOL    HW291697  14.452  14.332  10.127
96620SOL     OW91698   5.860   0.915  13.593
96620SOL    HW191699   5.821   0.983  13.648
96620SOL    HW291700   5.810   0.917  13.512
96621SOL     OW91701  11.335  12.367   8.164
96621SOL    HW191702  11.385  12.427   8.219
96621SOL    HW291703  11.378  12.283   8.174
96622SOL     OW91704   6.020  13.643   1.553
96622SOL    HW191705   5.937  13.598   1.533
96622SOL    HW291706   6.048  13.679   1.468
96623SOL     OW91707   4.627   7.105   4.683
96623SOL    HW191708   4.574   7.146   4.751
96623SOL    HW291709   4.695   7.057   4.731
96624SOL     OW91710   6.121   5.014   7.274
96624SOL    HW191711   6.144   5.003   7.366
96624SOL    HW291712   6.146   5.104   7.254
96625SOL     OW91713   2.857   2.020   2.213
96625SOL    HW191714   2.942   2.056   2.240
96625SOL    HW291715   2.816   2.090   2.162
96626SOL     OW91716  12.454   4.660   7.590
96626SOL    HW191717  12.377   4.621   7.633
96626SOL    HW291718  12.510   4.585   7.570
96627SOL     OW91719   3.779   8.128   6.223
96627SOL    HW191720   3.864   8.108   6.263
96627SOL    HW291721   3.740   8.194   6.280
96628SOL     OW91722   0.426   0.723  14.668
96628SOL    HW191723   0.514   0.739  14.701
96628SOL    HW291724   0.370   0.780  14.720
96629SOL     OW91725   0.659   8.066   6.887
96629SOL    HW191726   0.569   8.045   6.861
96629SOL    HW291727   0.661   8.046   6.981
96630SOL     OW91728   5.462  11.344   2.969
96630SOL    HW191729   5.462  11.249   2.976
96630SOL    HW291730   5.371  11.369   2.988
96631SOL     OW91731   9.763   3.878  10.800
96631SOL    HW191732   9.803   3.868  10.714
96631SOL    HW291733   9.674   3.843  10.790
96632SOL     OW91734   1.738   3.360   9.070
96632SOL    HW191735   1.654   3.392   9.040
96632SOL    HW291736   1.767   3.424   9.134
96633SOL     OW91737   9.740   9.124  10.044
96633SOL    HW191738   9.751   9.173   9.963
96633SOL    HW291739   9.649   9.094  10.042
96634SOL     OW91740   0.542   5.815  13.167
96634SOL    HW191741   0.606   5.878  13.200
96634SOL    HW291742   0.459   5.843  13.204
96635SOL     OW91743   4.287   9.081   1.770
96635SOL    HW191744   4.339   9.148   1.725
96635SOL    HW291745   4.348   9.007   1.781
96636SOL     OW91746   8.047  10.265   4.734
96636SOL    HW191747   7.989  10.275   4.659
96636SOL    HW291748   8.006  10.317   4.803
96637SOL     OW91749   6.068   5.120  11.780
96637SOL    HW191750   6.121   5.043  11.798
96637SOL    HW291751   6.129   5.182  11.740
96638SOL     OW91752   5.139   8.913  11.773
96638SOL    HW191753   5.094   8.874  11.848
96638SOL    HW291754   5.170   8.998  11.805
96639SOL     OW91755   7.906   5.483   5.989
96639SOL    HW191756   7.876   5.491   5.899
96639SOL    HW291757   7.996   5.515   5.987
96640SOL     OW91758  11.432   8.303   0.417
96640SOL    HW191759  11.371   8.366   0.455
96640SOL    HW291760  11.473   8.260   0.492
96641SOL     OW91761   7.796   9.376  10.678
96641SOL    HW191762   7.887   9.397  10.656
96641SOL    HW291763   7.758   9.460  10.703
96642SOL     OW91764   8.539   3.869   9.605
96642SOL    HW191765   8.627   3.895   9.577
96642SOL    HW291766   8.554   3.804   9.673
96643SOL     OW91767  14.028   7.357   9.435
96643SOL    HW191768  14.038   7.281   9.493
96643SOL    HW291769  14.102   7.413   9.455
96644SOL     OW91770   6.670   8.449   7.729
96644SOL    HW191771   6.733   8.481   7.793
96644SOL    HW291772   6.627   8.528   7.696
96645SOL     OW91773   1.587   6.031  12.444
96645SOL    HW191774   1.555   6.076  12.522
96645SOL    HW291775   1.509   6.018  12.391
96646SOL     OW91776   0.756  11.424  11.446
96646SOL    HW191777   0.834  11.384  11.485
96646SOL    HW291778   0.683  11.391  11.498
96647SOL     OW91779   4.005   5.151  12.412
96647SOL    HW191780   3.964   5.237  12.425
96647SOL    HW291781   4.032   5.152  12.320
96648SOL     OW91782  14.318  10.156   2.264
96648SOL    HW191783  14.412  10.145   2.253
96648SOL    HW291784  14.309  10.228   2.326
96649SOL     OW91785   5.920  10.477   0.789
96649SOL    HW191786   5.944  10.392   0.827
96649SOL    HW291787   5.893  10.456   0.700
96650SOL     OW91788   0.576   8.216   8.882
96650SOL    HW191789   0.634   8.259   8.819
96650SOL    HW291790   0.493   8.262   8.875
96651SOL     OW91791   2.834   7.968   6.957
96651SOL    HW191792   2.884   8.035   7.003
96651SOL    HW291793   2.790   7.919   7.027
96652SOL     OW91794   9.658   1.027  10.128
96652SOL    HW191795   9.644   0.952  10.069
96652SOL    HW291796   9.652   0.990  10.216
96653SOL     OW91797  10.081   0.310   4.563
96653SOL    HW191798  10.161   0.273   4.526
96653SOL    HW291799  10.073   0.395   4.522
96654SOL     OW91800   6.858   8.703   7.151
96654SOL    HW191801   6.926   8.637   7.166
96654SOL    HW291802   6.827   8.726   7.238
96655SOL     OW91803  14.155   5.511   7.426
96655SOL    HW191804  14.178   5.428   7.383
96655SOL    HW291805  14.233   5.566   7.416
96656SOL     OW91806   8.809  13.754   7.280
96656SOL    HW191807   8.807  13.722   7.371
96656SOL    HW291808   8.722  13.791   7.265
96657SOL     OW91809   9.758  13.760  13.910
96657SOL    HW191810   9.734  13.693  13.846
96657SOL    HW291811   9.689  13.827  13.902
96658SOL     OW91812  10.678   8.080  12.754
96658SOL    HW191813  10.764   8.058  12.717
96658SOL    HW291814  10.684   8.174  12.773
96659SOL     OW91815   5.028   7.297   6.352
96659SOL    HW191816   4.982   7.290   6.435
96659SOL    HW291817   4.978   7.363   6.302
96660SOL     OW91818   4.285  12.938   1.347
96660SOL    HW191819   4.230  12.996   1.400
96660SOL    HW291820   4.223  12.890   1.291
96661SOL     OW91821   3.493   8.466  13.125
96661SOL    HW191822   3.451   8.479  13.040
96661SOL    HW291823   3.586   8.480  13.108
96662SOL     OW91824  12.381  12.220   5.965
96662SOL    HW191825  12.286  12.223   5.965
96662SOL    HW291826  12.408  12.311   5.947
96663SOL     OW91827   9.081  13.342   1.024
96663SOL    HW191828   9.044  13.269   0.974
96663SOL    HW291829   9.005  13.393   1.052
96664SOL     OW91830   7.691  10.915   5.698
96664SOL    HW191831   7.772  10.864   5.690
96664SOL    HW291832   7.719  10.997   5.739
96665SOL     OW91833  13.266   0.185   3.454
96665SOL    HW191834  13.300   0.215   3.370
96665SOL    HW291835  13.281   0.090   3.454
96666SOL     OW91836   4.633   5.056  12.282
96666SOL    HW191837   4.571   5.036  12.352
96666SOL    HW291838   4.578   5.079  12.207
96667SOL     OW91839   4.209   8.167  10.007
96667SOL    HW191840   4.126   8.213   9.999
96667SOL    HW291841   4.184   8.075  10.018
96668SOL     OW91842   3.996   7.725   7.163
96668SOL    HW191843   3.944   7.756   7.237
96668SOL    HW291844   4.039   7.646   7.196
96669SOL     OW91845   0.147   6.016  14.760
96669SOL    HW191846   0.088   6.070  14.708
96669SOL    HW291847   0.180   6.076  14.828
96670SOL     OW91848   2.875   5.484   5.205
96670SOL    HW191849   2.937   5.522   5.143
96670SOL    HW291850   2.892   5.390   5.201
96671SOL     OW91851  12.482  10.548   5.337
96671SOL    HW191852  12.388  10.553   5.353
96671SOL    HW291853  12.504  10.456   5.352
96672SOL     OW91854   7.784   9.682   0.655
96672SOL    HW191855   7.774   9.768   0.614
96672SOL    HW291856   7.698   9.664   0.694
96673SOL     OW91857   5.125   0.687   2.874
96673SOL    HW191858   5.054   0.686   2.810
96673SOL    HW291859   5.155   0.596   2.877
96674SOL     OW91860   0.314  12.537   6.851
96674SOL    HW191861   0.335  12.453   6.810
96674SOL    HW291862   0.246  12.516   6.916
96675SOL     OW91863   0.192   4.226   3.481
96675SOL    HW191864   0.117   4.170   3.458
96675SOL    HW291865   0.266   4.188   3.433
96676SOL     OW91866   9.071   7.387   1.543
96676SOL    HW191867   9.022   7.439   1.480
96676SOL    HW291868   9.083   7.301   1.501
96677SOL     OW91869   1.994   1.931   1.458
96677SOL    HW191870   1.969   1.844   1.490
96677SOL    HW291871   2.075   1.916   1.409
96678SOL     OW91872  10.597   7.793   7.345
96678SOL    HW191873  10.693   7.791   7.338
96678SOL    HW291874  10.565   7.762   7.261
96679SOL     OW91875   1.862  12.605   8.708
96679SOL    HW191876   1.807  12.527   8.709
96679SOL    HW291877   1.860  12.634   8.616
96680SOL     OW91878  12.274   7.993  10.378
96680SOL    HW191879  12.234   7.916  10.419
96680SOL    HW291880  12.209   8.023  10.314
96681SOL     OW91881  11.033  11.138   4.822
96681SOL    HW191882  10.991  11.068   4.872
96681SOL    HW291883  11.008  11.219   4.866
96682SOL     OW91884   8.593   1.040   1.513
96682SOL    HW191885   8.630   1.121   1.548
96682SOL    HW291886   8.656   0.973   1.538
96683SOL     OW91887   2.720  10.310   4.074
96683SOL    HW191888   2.790  10.355   4.121
96683SOL    HW291889   2.652  10.297   4.140
96684SOL     OW91890   6.620   5.512  10.130
96684SOL    HW191891   6.655   5.484  10.045
96684SOL    HW291892   6.685   5.575  10.162
96685SOL     OW91893   0.604   1.235   9.575
96685SOL    HW191894   0.697   1.250   9.592
96685SOL    HW291895   0.588   1.146   9.605
96686SOL     OW91896  13.054   8.604  12.830
96686SOL    HW191897  13.019   8.518  12.852
96686SOL    HW291898  13.103   8.631  12.908
96687SOL     OW91899   1.373  13.077   1.580
96687SOL    HW191900   1.462  13.045   1.564
96687SOL    HW291901   1.368  13.160   1.534
96688SOL     OW91902  14.108  14.139   5.252
96688SOL    HW191903  14.118  14.047   5.228
96688SOL    HW291904  14.197  14.173   5.253
96689SOL     OW91905   7.142   8.965   2.773
96689SOL    HW191906   7.228   8.974   2.732
96689SOL    HW291907   7.081   9.001   2.709
96690SOL     OW91908  12.471  10.037  13.506
96690SOL    HW191909  12.483   9.978  13.581
96690SOL    HW291910  12.486   9.981  13.430
96691SOL     OW91911  12.619  14.767  11.662
96691SOL    HW191912  12.585  14.686  11.701
96691SOL    HW291913  12.659  14.814  11.735
96692SOL     OW91914   4.977   6.435  12.081
96692SOL    HW191915   5.066   6.441  12.045
96692SOL    HW291916   4.984   6.372  12.152
96693SOL     OW91917   8.485   3.837   8.565
96693SOL    HW191918   8.427   3.833   8.490
96693SOL    HW291919   8.430   3.868   8.637
96694SOL     OW91920   1.573   3.688   7.504
96694SOL    HW191921   1.484   3.724   7.502
96694SOL    HW291922   1.565   3.609   7.558
96695SOL     OW91923   6.504   1.144   0.530
96695SOL    HW191924   6.592   1.152   0.566
96695SOL    HW291925   6.483   1.051   0.538
96696SOL     OW91926   8.837  14.624  11.290
96696SOL    HW191927   8.807  14.573  11.215
96696SOL    HW291928   8.932  14.631  11.279
96697SOL     OW91929  12.893   2.936  12.771
96697SOL    HW191930  12.839   3.010  12.798
96697SOL    HW291931  12.885   2.873  12.842
96698SOL     OW91932   3.966   5.718   5.822
96698SOL    HW191933   4.009   5.664   5.889
96698SOL    HW291934   3.975   5.667   5.741
96699SOL     OW91935   0.448   2.817   6.227
96699SOL    HW191936   0.453   2.798   6.133
96699SOL    HW291937   0.538   2.809   6.258
96700SOL     OW91938   2.882   1.928   0.080
96700SOL    HW191939   2.975   1.947   0.087
96700SOL    HW291940   2.872   1.886  14.869
96701SOL     OW91941   3.370   7.210   8.914
96701SOL    HW191942   3.399   7.262   8.838
96701SOL    HW291943   3.299   7.262   8.952
96702SOL     OW91944   5.257  11.200   9.258
96702SOL    HW191945   5.319  11.239   9.196
96702SOL    HW291946   5.171  11.225   9.224
96703SOL     OW91947   6.899   4.054  11.614
96703SOL    HW191948   6.850   4.108  11.552
96703SOL    HW291949   6.990   4.063  11.586
96704SOL     OW91950   1.828   2.528   2.134
96704SOL    HW191951   1.917   2.563   2.134
96704SOL    HW291952   1.804   2.524   2.227
96705SOL     OW91953  14.704   0.476  11.059
96705SOL    HW191954  14.687   0.392  11.101
96705SOL    HW291955  14.619   0.504  11.026
96706SOL     OW91956   6.547   6.480  13.598
96706SOL    HW191957   6.479   6.544  13.578
96706SOL    HW291958   6.626   6.532  13.612
96707SOL     OW91959   8.065  13.724  14.807
96707SOL    HW191960   8.078  13.632  14.786
96707SOL    HW291961   8.153  13.758  14.822
96708SOL     OW91962   9.246  10.376  11.743
96708SOL    HW191963   9.244  10.310  11.673
96708SOL    HW291964   9.318  10.349  11.799
96709SOL     OW91965  12.860   3.951   5.640
96709SOL    HW191966  12.900   4.033   5.610
96709SOL    HW291967  12.826   3.971   5.727
96710SOL     OW91968   4.023  10.956   9.265
96710SOL    HW191969   4.100  10.971   9.321
96710SOL    HW291970   4.016  11.035   9.212
96711SOL     OW91971  10.447  11.483   9.760
96711SOL    HW191972  10.441  11.458   9.668
96711SOL    HW291973  10.356  11.484   9.791
96712SOL     OW91974   5.556   2.055  13.503
96712SOL    HW191975   5.491   1.991  13.529
96712SOL    HW291976   5.505   2.129  13.468
96713SOL     OW91977  13.610   8.888  12.445
96713SOL    HW191978  13.605   8.877  12.350
96713SOL    HW291979  13.617   8.799  12.479
96714SOL     OW91980  10.047   0.743  11.181
96714SOL    HW191981  10.064   0.733  11.087
96714SOL    HW291982  10.124   0.790  11.214
96715SOL     OW91983   0.195   9.619   4.967
96715SOL    HW191984   0.121   9.561   4.983
96715SOL    HW291985   0.251   9.570   4.906
96716SOL     OW91986   6.428   7.162   8.204
96716SOL    HW191987   6.518   7.187   8.221
96716SOL    HW291988   6.375   7.231   8.244
96717SOL     OW91989   8.314  12.154   3.592
96717SOL    HW191990   8.402  12.156   3.631
96717SOL    HW291991   8.316  12.078   3.533
96718SOL     OW91992   8.857   7.989  14.496
96718SOL    HW191993   8.887   8.074  14.528
96718SOL    HW291994   8.774   7.974  14.542
96719SOL     OW91995   2.081  14.627   1.194
96719SOL    HW191996   2.059  14.548   1.146
96719SOL    HW291997   2.164  14.656   1.156
96720SOL     OW91998   6.378   9.624   9.729
96720SOL    HW191999   6.343   9.535   9.728
96720SOL    HW292000   6.457   9.619   9.675
96721SOL     OW92001  12.001  13.627   9.490
96721SOL    HW192002  11.930  13.688   9.471
96721SOL    HW292003  11.988  13.555   9.428
96722SOL     OW92004   8.491  10.244   5.257
96722SOL    HW192005   8.549  10.318   5.236
96722SOL    HW292006   8.465  10.209   5.172
96723SOL     OW92007   7.723   7.608   8.466
96723SOL    HW192008   7.634   7.639   8.452
96723SOL    HW292009   7.733   7.535   8.404
96724SOL     OW92010   1.555  13.171   7.337
96724SOL    HW192011   1.582  13.167   7.245
96724SOL    HW292012   1.462  13.194   7.334
96725SOL     OW92013   5.996  14.814   9.024
96725SOL    HW192014   5.929   0.004   9.049
96725SOL    HW292015   6.047  14.800   9.104
96726SOL     OW92016   5.782   5.052   5.318
96726SOL    HW192017   5.836   5.086   5.247
96726SOL    HW292018   5.743   4.972   5.281
96727SOL     OW92019   1.915   0.185  14.395
96727SOL    HW192020   1.851   0.200  14.465
96727SOL    HW292021   1.978   0.257  14.405
96728SOL     OW92022  11.997  13.593   7.965
96728SOL    HW192023  12.066  13.652   7.998
96728SOL    HW292024  11.925  13.652   7.942
96729SOL     OW92025   3.703  10.884   4.850
96729SOL    HW192026   3.669  10.854   4.766
96729SOL    HW292027   3.665  10.971   4.861
96730SOL     OW92028   5.888   5.988   2.075
96730SOL    HW192029   5.856   6.077   2.061
96730SOL    HW292030   5.843   5.959   2.155
96731SOL     OW92031   9.863  12.810  11.016
96731SOL    HW192032   9.850  12.826  10.922
96731SOL    HW292033   9.945  12.856  11.037
96732SOL     OW92034   4.580  13.853  11.766
96732SOL    HW192035   4.612  13.847  11.856
96732SOL    HW292036   4.658  13.845  11.712
96733SOL     OW92037   0.209  11.922  10.165
96733SOL    HW192038   0.200  11.879  10.251
96733SOL    HW292039   0.295  11.964  10.168
96734SOL     OW92040   8.916   2.318   0.031
96734SOL    HW192041   8.896   2.301  14.813
96734SOL    HW292042   8.840   2.366   0.064
96735SOL     OW92043  13.963  12.770   3.489
96735SOL    HW192044  13.916  12.697   3.450
96735SOL    HW292045  13.897  12.815   3.541
96736SOL     OW92046   7.322   7.696   8.742
96736SOL    HW192047   7.304   7.764   8.806
96736SOL    HW292048   7.243   7.641   8.743
96737SOL     OW92049   7.811   9.402  10.974
96737SOL    HW192050   7.880   9.336  10.968
96737SOL    HW292051   7.787   9.421  10.883
96738SOL     OW92052   2.489   2.124   5.036
96738SOL    HW192053   2.494   2.041   4.989
96738SOL    HW292054   2.567   2.126   5.091
96739SOL     OW92055  10.370   1.728   9.307
96739SOL    HW192056  10.312   1.665   9.265
96739SOL    HW292057  10.427   1.675   9.362
96740SOL     OW92058   8.832  10.096   4.973
96740SOL    HW192059   8.764  10.029   4.970
96740SOL    HW292060   8.880  10.086   4.891
96741SOL     OW92061   3.462   7.147   0.117
96741SOL    HW192062   3.422   7.062   0.099
96741SOL    HW292063   3.426   7.172   0.202
96742SOL     OW92064   1.504   2.514   8.289
96742SOL    HW192065   1.479   2.429   8.325
96742SOL    HW292066   1.598   2.521   8.307
96743SOL     OW92067   8.687   7.846   3.282
96743SOL    HW192068   8.597   7.866   3.307
96743SOL    HW292069   8.685   7.753   3.260
96744SOL     OW92070   7.001   8.041   5.347
96744SOL    HW192071   6.974   8.130   5.366
96744SOL    HW292072   7.085   8.031   5.394
96745SOL     OW92073   7.696   7.260   5.420
96745SOL    HW192074   7.617   7.302   5.385
96745SOL    HW292075   7.765   7.285   5.358
96746SOL     OW92076   6.399   1.064   3.447
96746SOL    HW192077   6.406   1.108   3.363
96746SOL    HW292078   6.338   1.118   3.498
96747SOL     OW92079  11.529   2.810   6.472
96747SOL    HW192080  11.548   2.880   6.409
96747SOL    HW292081  11.435   2.795   6.464
96748SOL     OW92082   8.022   1.078  12.997
96748SOL    HW192083   7.939   1.125  12.992
96748SOL    HW292084   8.059   1.103  13.081
96749SOL     OW92085  11.038  12.731   8.060
96749SOL    HW192086  11.020  12.719   7.967
96749SOL    HW292087  11.028  12.643   8.098
96750SOL     OW92088   3.829  14.325   7.297
96750SOL    HW192089   3.840  14.376   7.377
96750SOL    HW292090   3.784  14.245   7.326
96751SOL     OW92091   8.064   4.117   1.122
96751SOL    HW192092   8.130   4.142   1.187
96751SOL    HW292093   7.990   4.086   1.174
96752SOL     OW92094   1.527   7.561  13.563
96752SOL    HW192095   1.447   7.521  13.598
96752SOL    HW292096   1.544   7.636  13.620
96753SOL     OW92097   7.470   7.773  12.221
96753SOL    HW192098   7.519   7.764  12.304
96753SOL    HW292099   7.393   7.717  12.233
96754SOL     OW92100  12.407   2.193   4.659
96754SOL    HW192101  12.326   2.171   4.704
96754SOL    HW292102  12.437   2.274   4.701
96755SOL     OW92103   8.756   6.950  10.602
96755SOL    HW192104   8.750   6.989  10.514
96755SOL    HW292105   8.703   6.871  10.596
96756SOL     OW92106  13.597   3.572   8.248
96756SOL    HW192107  13.617   3.652   8.199
96756SOL    HW292108  13.516   3.592   8.294
96757SOL     OW92109  11.591   8.795  12.785
96757SOL    HW192110  11.629   8.768  12.869
96757SOL    HW292111  11.555   8.714  12.749
96758SOL     OW92112   6.337  12.726   0.784
96758SOL    HW192113   6.424  12.687   0.776
96758SOL    HW292114   6.351  12.808   0.832
96759SOL     OW92115   5.389   0.403   6.571
96759SOL    HW192116   5.388   0.406   6.475
96759SOL    HW292117   5.383   0.310   6.592
96760SOL     OW92118  11.306   6.264  14.075
96760SOL    HW192119  11.245   6.197  14.107
96760SOL    HW292120  11.299   6.335  14.140
96761SOL     OW92121  10.231  12.391  14.076
96761SOL    HW192122  10.178  12.367  14.000
96761SOL    HW292123  10.273  12.473  14.052
96762SOL     OW92124   5.026   4.399  11.693
96762SOL    HW192125   5.030   4.467  11.626
96762SOL    HW292126   5.072   4.436  11.768
96763SOL     OW92127   0.362  14.425  14.004
96763SOL    HW192128   0.329  14.486  14.070
96763SOL    HW292129   0.339  14.464  13.920
96764SOL     OW92130   5.538  12.958  13.930
96764SOL    HW192131   5.470  13.012  13.888
96764SOL    HW292132   5.566  13.009  14.006
96765SOL     OW92133  10.846   2.431   4.663
96765SOL    HW192134  10.782   2.484   4.616
96765SOL    HW292135  10.799   2.353   4.690
96766SOL     OW92136  14.046   2.322   4.090
96766SOL    HW192137  14.111   2.254   4.073
96766SOL    HW292138  14.021   2.354   4.003
96767SOL     OW92139   5.632   1.834   8.731
96767SOL    HW192140   5.623   1.873   8.818
96767SOL    HW292141   5.622   1.908   8.671
96768SOL     OW92142   4.037   6.706  11.880
96768SOL    HW192143   3.959   6.693  11.933
96768SOL    HW292144   4.105   6.731  11.943
96769SOL     OW92145   5.907  14.342   1.634
96769SOL    HW192146   5.980  14.396   1.664
96769SOL    HW292147   5.930  14.253   1.662
96770SOL     OW92148   1.188   0.241  11.133
96770SOL    HW192149   1.183   0.248  11.038
96770SOL    HW292150   1.097   0.228  11.161
96771SOL     OW92151  13.139   9.393   7.704
96771SOL    HW192152  13.058   9.353   7.737
96771SOL    HW292153  13.174   9.439   7.780
96772SOL     OW92154   0.905   8.249   4.204
96772SOL    HW192155   0.830   8.192   4.216
96772SOL    HW292156   0.970   8.195   4.158
96773SOL     OW92157   1.368   9.399  10.601
96773SOL    HW192158   1.390   9.311  10.631
96773SOL    HW292159   1.388   9.399  10.507
96774SOL     OW92160   7.087   6.587  13.053
96774SOL    HW192161   7.157   6.524  13.034
96774SOL    HW292162   7.094   6.652  12.983
96775SOL     OW92163   5.915  11.535   8.464
96775SOL    HW192164   5.843  11.511   8.406
96775SOL    HW292165   5.954  11.452   8.492
96776SOL     OW92166  11.904  14.287   3.620
96776SOL    HW192167  11.854  14.207   3.605
96776SOL    HW292168  11.990  14.269   3.582
96777SOL     OW92169  11.483   0.200   7.677
96777SOL    HW192170  11.516   0.159   7.597
96777SOL    HW292171  11.404   0.150   7.699
96778SOL     OW92172   1.013  12.549   1.418
96778SOL    HW192173   0.976  12.485   1.478
96778SOL    HW292174   1.094  12.508   1.387
96779SOL     OW92175  12.781   6.887   4.156
96779SOL    HW192176  12.721   6.869   4.083
96779SOL    HW292177  12.854   6.933   4.116
96780SOL     OW92178   7.911  13.360   2.890
96780SOL    HW192179   7.836  13.389   2.942
96780SOL    HW292180   7.884  13.275   2.854
96781SOL     OW92181   3.778   3.966   2.466
96781SOL    HW192182   3.854   3.958   2.409
96781SOL    HW292183   3.778   3.885   2.517
96782SOL     OW92184   2.342   2.611   0.472
96782SOL    HW192185   2.421   2.596   0.419
96782SOL    HW292186   2.307   2.694   0.439
96783SOL     OW92187   1.209  10.731   3.922
96783SOL    HW192188   1.207  10.791   3.847
96783SOL    HW292189   1.227  10.645   3.884
96784SOL     OW92190   6.911   3.487   6.086
96784SOL    HW192191   7.001   3.467   6.058
96784SOL    HW292192   6.915   3.481   6.181
96785SOL     OW92193   8.813   1.697   1.817
96785SOL    HW192194   8.852   1.784   1.823
96785SOL    HW292195   8.728   1.712   1.774
96786SOL     OW92196   7.443  10.447  11.702
96786SOL    HW192197   7.409  10.481  11.785
96786SOL    HW292198   7.482  10.523  11.659
96787SOL     OW92199   9.100  13.798   7.469
96787SOL    HW192200   9.114  13.764   7.381
96787SOL    HW292201   9.035  13.740   7.508
96788SOL     OW92202  10.999   6.548  10.545
96788SOL    HW192203  10.952   6.533  10.464
96788SOL    HW292204  10.995   6.643  10.558
96789SOL     OW92205   2.913  14.626  14.236
96789SOL    HW192206   2.956  14.704  14.203
96789SOL    HW292207   2.862  14.656  14.311
96790SOL     OW92208   8.785   8.353   9.103
96790SOL    HW192209   8.714   8.376   9.043
96790SOL    HW292210   8.759   8.268   9.140
96791SOL     OW92211  13.648  10.859   8.085
96791SOL    HW192212  13.672  10.830   8.173
96791SOL    HW292213  13.705  10.809   8.027
96792SOL     OW92214   1.869   5.987  11.011
96792SOL    HW192215   1.871   6.010  11.104
96792SOL    HW292216   1.945   5.931  10.998
96793SOL     OW92217   7.810   6.931   2.398
96793SOL    HW192218   7.857   6.858   2.357
96793SOL    HW292219   7.719   6.900   2.402
96794SOL     OW92220  11.540  14.142  10.688
96794SOL    HW192221  11.504  14.054  10.697
96794SOL    HW292222  11.483  14.185  10.624
96795SOL     OW92223  13.423  13.810  11.720
96795SOL    HW192224  13.476  13.826  11.799
96795SOL    HW292225  13.333  13.826  11.749
96796SOL     OW92226  13.753  11.617   9.937
96796SOL    HW192227  13.763  11.711   9.948
96796SOL    HW292228  13.672  11.596   9.984
96797SOL     OW92229  14.807  11.401  13.628
96797SOL    HW192230  14.731  11.455  13.651
96797SOL    HW292231  14.782  11.361  13.545
96798SOL     OW92232   9.233   3.033  12.333
96798SOL    HW192233   9.256   3.077  12.415
96798SOL    HW292234   9.294   3.070  12.269
96799SOL     OW92235  14.031   5.193   7.100
96799SOL    HW192236  14.124   5.180   7.082
96799SOL    HW292237  13.986   5.137   7.037
96800SOL     OW92238   7.759   7.601   6.040
96800SOL    HW192239   7.715   7.680   6.007
96800SOL    HW292240   7.699   7.530   6.017
96801SOL     OW92241   3.420   8.430   6.217
96801SOL    HW192242   3.493   8.472   6.263
96801SOL    HW292243   3.431   8.455   6.126
96802SOL     OW92244   5.614   7.085   9.851
96802SOL    HW192245   5.579   7.168   9.882
96802SOL    HW292246   5.709   7.091   9.865
96803SOL     OW92247   8.590   6.940   7.176
96803SOL    HW192248   8.511   6.982   7.210
96803SOL    HW292249   8.616   6.994   7.102
96804SOL     OW92250  11.874   3.947   5.777
96804SOL    HW192251  11.840   4.011   5.840
96804SOL    HW292252  11.942   3.900   5.825
96805SOL     OW92253   4.514   4.444  13.906
96805SOL    HW192254   4.461   4.411  13.979
96805SOL    HW292255   4.526   4.537  13.926
96806SOL     OW92256   2.173   3.216  12.453
96806SOL    HW192257   2.083   3.200  12.422
96806SOL    HW292258   2.228   3.165  12.393
96807SOL     OW92259   6.861   8.890   1.070
96807SOL    HW192260   6.794   8.952   1.040
96807SOL    HW292261   6.828   8.858   1.154
96808SOL     OW92262   7.700   5.611   1.381
96808SOL    HW192263   7.687   5.705   1.390
96808SOL    HW292264   7.795   5.599   1.390
96809SOL     OW92265   9.478   9.737   0.995
96809SOL    HW192266   9.541   9.723   0.925
96809SOL    HW292267   9.530   9.737   1.075
96810SOL     OW92268  12.453   7.668  10.736
96810SOL    HW192269  12.432   7.605  10.804
96810SOL    HW292270  12.471   7.750  10.783
96811SOL     OW92271   2.868  14.867   5.144
96811SOL    HW192272   2.776  14.847   5.158
96811SOL    HW292273   2.909  14.852   5.230
96812SOL     OW92274   7.219  12.693   7.068
96812SOL    HW192275   7.232  12.605   7.104
96812SOL    HW292276   7.204  12.747   7.146
96813SOL     OW92277   4.970   5.220   3.882
96813SOL    HW192278   5.061   5.219   3.912
96813SOL    HW292279   4.921   5.188   3.958
96814SOL     OW92280  10.362   2.637   6.498
96814SOL    HW192281  10.348   2.662   6.589
96814SOL    HW292282  10.353   2.541   6.498
96815SOL     OW92283  14.700   4.957   8.943
96815SOL    HW192284  14.777   4.951   8.888
96815SOL    HW292285  14.632   4.909   8.894
96816SOL     OW92286  12.847   5.178   4.663
96816SOL    HW192287  12.837   5.162   4.757
96816SOL    HW292288  12.773   5.131   4.623
96817SOL     OW92289   3.162  12.628   3.668
96817SOL    HW192290   3.239  12.673   3.635
96817SOL    HW292291   3.108  12.611   3.591
96818SOL     OW92292  14.373  11.455  10.324
96818SOL    HW192293  14.357  11.361  10.321
96818SOL    HW292294  14.311  11.488  10.388
96819SOL     OW92295   9.155  11.089   8.072
96819SOL    HW192296   9.086  11.029   8.101
96819SOL    HW292297   9.232  11.033   8.064
96820SOL     OW92298  14.227  14.553  14.654
96820SOL    HW192299  14.135  14.556  14.679
96820SOL    HW292300  14.254  14.644  14.649
96821SOL     OW92301   3.204   4.044  11.571
96821SOL    HW192302   3.147   4.007  11.638
96821SOL    HW292303   3.154   4.035  11.489
96822SOL     OW92304   7.998   9.200   1.885
96822SOL    HW192305   7.992   9.294   1.865
96822SOL    HW292306   7.907   9.171   1.886
96823SOL     OW92307   4.247   3.732   3.057
96823SOL    HW192308   4.292   3.814   3.034
96823SOL    HW292309   4.181   3.758   3.121
96824SOL     OW92310   7.457   1.848   3.379
96824SOL    HW192311   7.482   1.919   3.438
96824SOL    HW292312   7.424   1.779   3.436
96825SOL     OW92313   2.564  13.897   0.005
96825SOL    HW192314   2.531  13.952   0.076
96825SOL    HW292315   2.581  13.958  14.807
96826SOL     OW92316   6.413   8.524   8.790
96826SOL    HW192317   6.448   8.570   8.714
96826SOL    HW292318   6.452   8.437   8.785
96827SOL     OW92319   8.624  12.250   9.721
96827SOL    HW192320   8.631  12.167   9.674
96827SOL    HW292321   8.567  12.231   9.795
96828SOL     OW92322   4.269  11.527  10.673
96828SOL    HW192323   4.205  11.540  10.603
96828SOL    HW292324   4.353  11.550  10.633
96829SOL     OW92325   1.238  12.655   3.305
96829SOL    HW192326   1.222  12.718   3.375
96829SOL    HW292327   1.222  12.570   3.345
96830SOL     OW92328   3.220  12.857   8.868
96830SOL    HW192329   3.295  12.917   8.867
96830SOL    HW292330   3.221  12.820   8.957
96831SOL     OW92331   4.072   5.346   7.904
96831SOL    HW192332   4.002   5.281   7.899
96831SOL    HW292333   4.078   5.382   7.816
96832SOL     OW92334   9.128   7.609  11.713
96832SOL    HW192335   9.079   7.689  11.694
96832SOL    HW292336   9.209   7.618  11.662
96833SOL     OW92337   4.611  13.369   0.938
96833SOL    HW192338   4.585  13.321   1.016
96833SOL    HW292339   4.569  13.455   0.949
96834SOL     OW92340   7.113   6.253  10.777
96834SOL    HW192341   7.130   6.194  10.704
96834SOL    HW292342   7.142   6.339  10.747
96835SOL     OW92343   3.721   3.809   8.575
96835SOL    HW192344   3.745   3.719   8.552
96835SOL    HW292345   3.689   3.848   8.494
96836SOL     OW92346   7.623   5.749  10.416
96836SOL    HW192347   7.624   5.671  10.360
96836SOL    HW292348   7.667   5.816  10.364
96837SOL     OW92349   6.089   0.724   0.035
96837SOL    HW192350   6.153   0.790   0.063
96837SOL    HW292351   6.098   0.654   0.100
96838SOL     OW92352   0.715   2.470   6.192
96838SOL    HW192353   0.695   2.548   6.244
96838SOL    HW292354   0.660   2.402   6.231
96839SOL     OW92355   4.002   9.244  12.237
96839SOL    HW192356   4.012   9.338  12.220
96839SOL    HW292357   4.082   9.219  12.283
96840SOL     OW92358   8.651   6.961  10.054
96840SOL    HW192359   8.650   6.868  10.033
96840SOL    HW292360   8.564   6.992  10.031
96841SOL     OW92361   6.749   5.812   8.273
96841SOL    HW192362   6.676   5.839   8.218
96841SOL    HW292363   6.713   5.746   8.332
96842SOL     OW92364  11.302   6.895   1.832
96842SOL    HW192365  11.295   6.838   1.908
96842SOL    HW292366  11.212   6.907   1.802
96843SOL     OW92367   5.761  12.218   4.138
96843SOL    HW192368   5.854  12.219   4.116
96843SOL    HW292369   5.739  12.310   4.153
96844SOL     OW92370   2.425  11.901   4.364
96844SOL    HW192371   2.443  11.810   4.341
96844SOL    HW292372   2.509  11.946   4.350
96845SOL     OW92373   1.121  13.013  10.243
96845SOL    HW192374   1.034  13.052  10.246
96845SOL    HW292375   1.181  13.088  10.238
96846SOL     OW92376  10.078   4.300   7.675
96846SOL    HW192377  10.006   4.361   7.692
96846SOL    HW292378  10.149   4.355   7.641
96847SOL     OW92379  12.890   7.517   2.608
96847SOL    HW192380  12.839   7.576   2.553
96847SOL    HW292381  12.976   7.511   2.566
96848SOL     OW92382   4.593   8.326   0.353
96848SOL    HW192383   4.581   8.316   0.447
96848SOL    HW292384   4.592   8.237   0.318
96849SOL     OW92385   8.349  10.809  10.021
96849SOL    HW192386   8.445  10.812  10.025
96849SOL    HW292387   8.327  10.842   9.934
96850SOL     OW92388   1.783  13.172   6.587
96850SOL    HW192389   1.728  13.199   6.513
96850SOL    HW292390   1.808  13.082   6.567
96851SOL     OW92391   0.470  12.665   2.569
96851SOL    HW192392   0.488  12.706   2.485
96851SOL    HW292393   0.490  12.733   2.634
96852SOL     OW92394  14.853   5.030   2.290
96852SOL    HW192395  14.859   4.938   2.315
96852SOL    HW292396   0.068   5.064   2.301
96853SOL     OW92397  14.450   6.169   1.448
96853SOL    HW192398  14.387   6.234   1.417
96853SOL    HW292399  14.477   6.200   1.535
96854SOL     OW92400   1.108   5.856   1.022
96854SOL    HW192401   1.092   5.832   1.114
96854SOL    HW292402   1.195   5.820   1.003
96855SOL     OW92403   2.225   6.715   4.989
96855SOL    HW192404   2.263   6.627   4.996
96855SOL    HW292405   2.211   6.742   5.079
96856SOL     OW92406  11.914  13.817  12.216
96856SOL    HW192407  11.883  13.813  12.307
96856SOL    HW292408  11.944  13.728  12.197
96857SOL     OW92409  11.832   9.181   9.628
96857SOL    HW192410  11.842   9.162   9.721
96857SOL    HW292411  11.738   9.193   9.616
96858SOL     OW92412   9.661   5.460   9.535
96858SOL    HW192413   9.582   5.507   9.510
96858SOL    HW292414   9.731   5.504   9.487
96859SOL     OW92415   2.147  12.140   0.015
96859SOL    HW192416   2.077  12.074   0.014
96859SOL    HW292417   2.136  12.184   0.099
96860SOL     OW92418   5.553  13.753   9.771
96860SOL    HW192419   5.632  13.708   9.803
96860SOL    HW292420   5.574  13.846   9.779
96861SOL     OW92421   4.523   3.376   8.908
96861SOL    HW192422   4.607   3.420   8.894
96861SOL    HW292423   4.532   3.292   8.863
96862SOL     OW92424   5.835   7.801   4.241
96862SOL    HW192425   5.751   7.807   4.287
96862SOL    HW292426   5.856   7.707   4.242
96863SOL     OW92427   9.400  10.707   0.574
96863SOL    HW192428   9.410  10.679   0.483
96863SOL    HW292429   9.309  10.735   0.581
96864SOL     OW92430  13.331  12.696   8.699
96864SOL    HW192431  13.388  12.742   8.637
96864SOL    HW292432  13.380  12.696   8.781
96865SOL     OW92433  12.173   5.488   8.583
96865SOL    HW192434  12.262   5.520   8.597
96865SOL    HW292435  12.162   5.419   8.649
96866SOL     OW92436  14.697   5.650  12.997
96866SOL    HW192437  14.735   5.562  12.997
96866SOL    HW292438  14.654   5.657  13.083
96867SOL     OW92439   5.023   6.513   2.195
96867SOL    HW192440   5.044   6.447   2.261
96867SOL    HW292441   4.931   6.534   2.209
96868SOL     OW92442   4.142   5.738   6.994
96868SOL    HW192443   4.070   5.756   7.054
96868SOL    HW292444   4.157   5.821   6.949
96869SOL     OW92445   3.194   6.884   5.880
96869SOL    HW192446   3.235   6.816   5.933
96869SOL    HW292447   3.211   6.965   5.928
96870SOL     OW92448   0.656  12.785   9.236
96870SOL    HW192449   0.575  12.829   9.209
96870SOL    HW292450   0.678  12.826   9.320
96871SOL     OW92451   8.841   4.426  13.042
96871SOL    HW192452   8.794   4.474  13.110
96871SOL    HW292453   8.844   4.336  13.074
96872SOL     OW92454   7.602   3.799   3.771
96872SOL    HW192455   7.525   3.834   3.816
96872SOL    HW292456   7.676   3.826   3.825
96873SOL     OW92457   0.654   6.151   8.159
96873SOL    HW192458   0.728   6.210   8.168
96873SOL    HW292459   0.687   6.066   8.188
96874SOL     OW92460   9.670   9.289  10.726
96874SOL    HW192461   9.685   9.282  10.821
96874SOL    HW292462   9.688   9.381  10.706
96875SOL     OW92463  12.257   5.902   7.656
96875SOL    HW192464  12.300   5.962   7.718
96875SOL    HW292465  12.179   5.950   7.627
96876SOL     OW92466  12.167  10.064  13.191
96876SOL    HW192467  12.160  10.149  13.147
96876SOL    HW292468  12.077  10.042  13.214
96877SOL     OW92469   3.182   2.566   6.915
96877SOL    HW192470   3.262   2.529   6.952
96877SOL    HW292471   3.153   2.630   6.980
96878SOL     OW92472  11.332  11.156   6.556
96878SOL    HW192473  11.325  11.091   6.486
96878SOL    HW292474  11.345  11.103   6.635
96879SOL     OW92475   7.271   7.569  12.231
96879SOL    HW192476   7.184   7.605  12.217
96879SOL    HW292477   7.291   7.522  12.150
96880SOL     OW92478   3.364   8.996  13.772
96880SOL    HW192479   3.317   9.040  13.843
96880SOL    HW292480   3.422   9.064  13.736
96881SOL     OW92481   5.234   3.464   3.255
96881SOL    HW192482   5.213   3.450   3.348
96881SOL    HW292483   5.183   3.541   3.231
96882SOL     OW92484   2.510   3.548   9.385
96882SOL    HW192485   2.538   3.545   9.294
96882SOL    HW292486   2.576   3.601   9.430
96883SOL     OW92487   8.688  13.831   5.370
96883SOL    HW192488   8.776  13.810   5.404
96883SOL    HW292489   8.697  13.823   5.275
96884SOL     OW92490   0.229   0.294  11.961
96884SOL    HW192491   0.285   0.324  11.889
96884SOL    HW292492   0.288   0.243  12.017
96885SOL     OW92493   3.706   4.888   0.304
96885SOL    HW192494   3.754   4.831   0.364
96885SOL    HW292495   3.752   4.878   0.220
96886SOL     OW92496   4.612  12.812  12.614
96886SOL    HW192497   4.619  12.857  12.698
96886SOL    HW292498   4.699  12.774  12.600
96887SOL     OW92499  12.698   3.896   7.029
96887SOL    HW192500  12.787   3.896   6.995
96887SOL    HW292501  12.655   3.968   6.982
96888SOL     OW92502  13.858   1.679   6.753
96888SOL    HW192503  13.930   1.644   6.700
96888SOL    HW292504  13.859   1.626   6.833
96889SOL     OW92505   4.212   3.959  10.442
96889SOL    HW192506   4.136   4.010  10.472
96889SOL    HW292507   4.288   4.005  10.479
96890SOL     OW92508   4.181  14.796   3.933
96890SOL    HW192509   4.157   0.012   3.954
96890SOL    HW292510   4.104  14.744   3.956
96891SOL     OW92511   7.755  12.661  12.474
96891SOL    HW192512   7.673  12.668  12.425
96891SOL    HW292513   7.818  12.630  12.408
96892SOL     OW92514   2.078   7.899   4.344
96892SOL    HW192515   2.026   7.911   4.424
96892SOL    HW292516   2.039   7.958   4.281
96893SOL     OW92517  14.406   9.364  13.240
96893SOL    HW192518  14.361   9.378  13.157
96893SOL    HW292519  14.469   9.294  13.222
96894SOL     OW92520  12.983   9.588   6.134
96894SOL    HW192521  12.966   9.541   6.216
96894SOL    HW292522  13.004   9.519   6.071
96895SOL     OW92523   2.024   2.418  13.130
96895SOL    HW192524   2.076   2.447  13.055
96895SOL    HW292525   2.051   2.475  13.202
96896SOL     OW92526   1.983   3.573   4.725
96896SOL    HW192527   2.036   3.642   4.764
96896SOL    HW292528   2.031   3.492   4.743
96897SOL     OW92529   5.972   8.865  12.702
96897SOL    HW192530   5.905   8.927  12.728
96897SOL    HW292531   6.013   8.904  12.624
96898SOL     OW92532   0.980  11.027   9.376
96898SOL    HW192533   1.030  11.103   9.407
96898SOL    HW292534   1.016  10.953   9.426
96899SOL     OW92535   2.261  10.820   5.536
96899SOL    HW192536   2.337  10.858   5.582
96899SOL    HW292537   2.193  10.887   5.543
96900SOL     OW92538  11.167  14.874  14.273
96900SOL    HW192539  11.246   0.014  14.326
96900SOL    HW292540  11.172   0.068  14.206
96901SOL     OW92541   5.610   1.410   5.943
96901SOL    HW192542   5.600   1.359   6.024
96901SOL    HW292543   5.625   1.345   5.875
96902SOL     OW92544   6.095   0.633  12.483
96902SOL    HW192545   6.034   0.707  12.478
96902SOL    HW292546   6.048   0.561  12.443
96903SOL     OW92547   8.562   7.917   8.897
96903SOL    HW192548   8.476   7.949   8.923
96903SOL    HW292549   8.587   7.855   8.966
96904SOL     OW92550   3.812  14.009   8.113
96904SOL    HW192551   3.838  13.926   8.075
96904SOL    HW292552   3.799  14.067   8.038
96905SOL     OW92553   2.079  14.327   9.787
96905SOL    HW192554   2.076  14.238   9.751
96905SOL    HW292555   2.029  14.322   9.868
96906SOL     OW92556   9.624  10.719   4.279
96906SOL    HW192557   9.635  10.654   4.348
96906SOL    HW292558   9.627  10.669   4.198
96907SOL     OW92559  13.517   5.456  13.971
96907SOL    HW192560  13.444   5.454  13.910
96907SOL    HW292561  13.531   5.549  13.988
96908SOL     OW92562   2.738   6.337   3.197
96908SOL    HW192563   2.716   6.413   3.144
96908SOL    HW292564   2.820   6.305   3.159
96909SOL     OW92565  10.252  12.499   3.800
96909SOL    HW192566  10.227  12.563   3.866
96909SOL    HW292567  10.324  12.540   3.753
96910SOL     OW92568   3.222  10.693  10.983
96910SOL    HW192569   3.249  10.783  10.963
96910SOL    HW292570   3.299  10.653  11.022
96911SOL     OW92571   0.534  13.477   1.227
96911SOL    HW192572   0.517  13.507   1.316
96911SOL    HW292573   0.536  13.557   1.174
96912SOL     OW92574  14.866   8.690   5.007
96912SOL    HW192575  14.845   8.765   5.062
96912SOL    HW292576   0.083   8.668   5.030
96913SOL     OW92577   1.729  11.793   9.540
96913SOL    HW192578   1.698  11.881   9.522
96913SOL    HW292579   1.805  11.805   9.597
96914SOL     OW92580  11.050   0.806   8.522
96914SOL    HW192581  10.971   0.825   8.472
96914SOL    HW292582  11.027   0.828   8.613
96915SOL     OW92583  12.311   3.829   8.009
96915SOL    HW192584  12.236   3.839   8.068
96915SOL    HW292585  12.274   3.793   7.929
96916SOL     OW92586   0.696  14.065   9.496
96916SOL    HW192587   0.758  13.997   9.469
96916SOL    HW292588   0.617  14.048   9.444
96917SOL     OW92589   7.433   3.434  13.038
96917SOL    HW192590   7.436   3.359  13.097
96917SOL    HW292591   7.342   3.465  13.044
96918SOL     OW92592   8.332   5.861  10.240
96918SOL    HW192593   8.325   5.819  10.326
96918SOL    HW292594   8.303   5.951  10.255
96919SOL     OW92595   3.985  10.507  12.464
96919SOL    HW192596   4.003  10.446  12.393
96919SOL    HW292597   4.071  10.528  12.500
96920SOL     OW92598   3.530   2.081   5.881
96920SOL    HW192599   3.541   2.061   5.788
96920SOL    HW292600   3.455   2.141   5.884
96921SOL     OW92601  10.562   5.626   4.309
96921SOL    HW192602  10.650   5.652   4.338
96921SOL    HW292603  10.572   5.608   4.216
96922SOL     OW92604   1.655   8.764  13.580
96922SOL    HW192605   1.746   8.784  13.603
96922SOL    HW292606   1.609   8.769  13.664
96923SOL     OW92607   2.780   9.157  12.165
96923SOL    HW192608   2.724   9.092  12.123
96923SOL    HW292609   2.783   9.132  12.257
96924SOL     OW92610  14.331   1.459  13.673
96924SOL    HW192611  14.393   1.521  13.711
96924SOL    HW292612  14.250   1.509  13.661
96925SOL     OW92613  10.620  12.162   9.210
96925SOL    HW192614  10.596  12.077   9.171
96925SOL    HW292615  10.707  12.147   9.247
96926SOL     OW92616   5.347   8.912  10.399
96926SOL    HW192617   5.405   8.988  10.411
96926SOL    HW292618   5.327   8.913  10.306
96927SOL     OW92619   8.762   5.541  14.155
96927SOL    HW192620   8.743   5.477  14.224
96927SOL    HW292621   8.836   5.592  14.189
96928SOL     OW92622  14.531  10.811   2.940
96928SOL    HW192623  14.577  10.804   3.024
96928SOL    HW292624  14.508  10.904   2.934
96929SOL     OW92625  10.928   6.410   1.723
96929SOL    HW192626  10.966   6.329   1.689
96929SOL    HW292627  10.922   6.396   1.817
96930SOL     OW92628   1.239   8.670   9.885
96930SOL    HW192629   1.248   8.700   9.976
96930SOL    HW292630   1.155   8.704   9.857
96931SOL     OW92631   8.352   6.040   6.041
96931SOL    HW192632   8.339   6.058   6.135
96931SOL    HW292633   8.266   6.016   6.009
96932SOL     OW92634  10.334   2.903  10.406
96932SOL    HW192635  10.241   2.905  10.429
96932SOL    HW292636  10.335   2.894  10.311
96933SOL     OW92637   0.117   6.616   3.559
96933SOL    HW192638   0.134   6.661   3.477
96933SOL    HW292639   0.054   6.671   3.605
96934SOL     OW92640   7.031  13.838  13.067
96934SOL    HW192641   7.087  13.871  12.996
96934SOL    HW292642   7.054  13.746  13.074
96935SOL     OW92643   6.221   0.857  14.692
96935SOL    HW192644   6.143   0.899  14.653
96935SOL    HW292645   6.188   0.777  14.731
96936SOL     OW92646   7.737   2.979   1.084
96936SOL    HW192647   7.750   2.962   1.177
96936SOL    HW292648   7.773   3.066   1.070
96937SOL     OW92649  10.072   2.316   2.496
96937SOL    HW192650  10.088   2.223   2.513
96937SOL    HW292651  10.094   2.360   2.578
96938SOL     OW92652   4.736   6.717   3.137
96938SOL    HW192653   4.735   6.628   3.172
96938SOL    HW292654   4.829   6.736   3.122
96939SOL     OW92655  14.046  12.578  14.008
96939SOL    HW192656  14.112  12.594  14.075
96939SOL    HW292657  13.990  12.511  14.046
96940SOL     OW92658  13.053   0.030   0.272
96940SOL    HW192659  13.135   0.014   0.226
96940SOL    HW292660  13.076   0.029   0.365
96941SOL     OW92661   9.917   5.358   5.042
96941SOL    HW192662   9.884   5.287   4.987
96941SOL    HW292663   9.994   5.390   4.995
96942SOL     OW92664   0.628   0.981   6.745
96942SOL    HW192665   0.542   0.940   6.736
96942SOL    HW292666   0.632   1.044   6.673
96943SOL     OW92667   1.696  12.470  11.016
96943SOL    HW192668   1.620  12.478  11.074
96943SOL    HW292669   1.686  12.384  10.974
96944SOL     OW92670   5.897  13.052  13.726
96944SOL    HW192671   5.870  13.102  13.803
96944SOL    HW292672   5.896  13.116  13.655
96945SOL     OW92673  10.379  13.128   4.490
96945SOL    HW192674  10.440  13.081   4.546
96945SOL    HW292675  10.308  13.155   4.549
96946SOL     OW92676   7.332   4.442  14.709
96946SOL    HW192677   7.384   4.486  14.776
96946SOL    HW292678   7.395   4.386  14.663
96947SOL     OW92679   3.363   3.347  13.712
96947SOL    HW192680   3.276   3.308  13.707
96947SOL    HW292681   3.348   3.434  13.750
96948SOL     OW92682   2.858   4.307   6.444
96948SOL    HW192683   2.822   4.368   6.380
96948SOL    HW292684   2.893   4.363   6.514
96949SOL     OW92685   3.978  13.023   9.460
96949SOL    HW192686   3.989  13.051   9.551
96949SOL    HW292687   3.892  13.059   9.435
96950SOL     OW92688  11.775   1.178  11.833
96950SOL    HW192689  11.836   1.200  11.903
96950SOL    HW292690  11.694   1.154  11.880
96951SOL     OW92691  10.499   7.615   1.845
96951SOL    HW192692  10.519   7.709   1.847
96951SOL    HW292693  10.542   7.579   1.923
96952SOL     OW92694  12.443  11.004   6.812
96952SOL    HW192695  12.370  11.064   6.830
96952SOL    HW292696  12.466  10.968   6.898
96953SOL     OW92697   1.272   0.190  12.686
96953SOL    HW192698   1.268   0.201  12.591
96953SOL    HW292699   1.188   0.222  12.717
96954SOL     OW92700   2.536  10.337   5.313
96954SOL    HW192701   2.469  10.403   5.296
96954SOL    HW292702   2.573  10.317   5.227
96955SOL     OW92703   9.459   5.634  11.497
96955SOL    HW192704   9.465   5.622  11.402
96955SOL    HW292705   9.544   5.606  11.530
96956SOL     OW92706   1.376  10.079  11.795
96956SOL    HW192707   1.435  10.029  11.852
96956SOL    HW292708   1.333  10.012  11.742
96957SOL     OW92709   2.414   1.925  14.139
96957SOL    HW192710   2.472   1.939  14.214
96957SOL    HW292711   2.336   1.975  14.161
96958SOL     OW92712  10.346   5.704   3.251
96958SOL    HW192713  10.399   5.760   3.194
96958SOL    HW292714  10.272   5.760   3.277
96959SOL     OW92715   6.015  11.720   6.412
96959SOL    HW192716   5.934  11.766   6.390
96959SOL    HW292717   5.986  11.634   6.441
96960SOL     OW92718  13.516  14.085   9.332
96960SOL    HW192719  13.485  14.004   9.373
96960SOL    HW292720  13.547  14.138   9.406
96961SOL     OW92721  10.643   5.715   0.400
96961SOL    HW192722  10.603   5.793   0.438
96961SOL    HW292723  10.609   5.642   0.453
96962SOL     OW92724  12.149   3.679  12.265
96962SOL    HW192725  12.136   3.704  12.173
96962SOL    HW292726  12.096   3.742  12.314
96963SOL     OW92727   5.851  11.799   3.883
96963SOL    HW192728   5.854  11.709   3.915
96963SOL    HW292729   5.757  11.819   3.880
96964SOL     OW92730  14.476   1.695   1.264
96964SOL    HW192731  14.395   1.644   1.256
96964SOL    HW292732  14.544   1.630   1.277
96965SOL     OW92733  11.004   4.615   6.393
96965SOL    HW192734  11.005   4.642   6.485
96965SOL    HW292735  11.034   4.524   6.396
96966SOL     OW92736   4.235   2.844   8.331
96966SOL    HW192737   4.156   2.862   8.280
96966SOL    HW292738   4.243   2.749   8.329
96967SOL     OW92739   4.453   2.593  10.326
96967SOL    HW192740   4.529   2.555  10.281
96967SOL    HW292741   4.467   2.688  10.318
96968SOL     OW92742  13.932   5.155   0.824
96968SOL    HW192743  13.882   5.077   0.801
96968SOL    HW292744  13.960   5.192   0.740
96969SOL     OW92745   1.260   3.456   5.676
96969SOL    HW192746   1.207   3.535   5.686
96969SOL    HW292747   1.288   3.434   5.765
96970SOL     OW92748  13.068   6.299  11.841
96970SOL    HW192749  13.119   6.336  11.914
96970SOL    HW292750  13.129   6.295  11.768
96971SOL     OW92751  14.298   5.152  14.328
96971SOL    HW192752  14.271   5.186  14.243
96971SOL    HW292753  14.391   5.173  14.334
96972SOL     OW92754   0.108   7.300   5.707
96972SOL    HW192755   0.019   7.333   5.689
96972SOL    HW292756   0.108   7.212   5.671
96973SOL     OW92757   3.279  13.617  12.776
96973SOL    HW192758   3.252  13.568  12.698
96973SOL    HW292759   3.374  13.614  12.775
96974SOL     OW92760   9.200   7.845  12.484
96974SOL    HW192761   9.142   7.875  12.414
96974SOL    HW292762   9.276   7.902  12.479
96975SOL     OW92763   0.747   2.472  12.346
96975SOL    HW192764   0.767   2.380  12.327
96975SOL    HW292765   0.813   2.522  12.299
96976SOL     OW92766  11.580   8.907   0.467
96976SOL    HW192767  11.635   8.850   0.520
96976SOL    HW292768  11.495   8.906   0.512
96977SOL     OW92769   4.103   9.477   9.913
96977SOL    HW192770   4.145   9.392   9.904
96977SOL    HW292771   4.011   9.457   9.929
96978SOL     OW92772  13.094  10.544  13.597
96978SOL    HW192773  13.137  10.458  13.587
96978SOL    HW292774  13.120  10.593  13.519
96979SOL     OW92775   5.649  14.531  12.740
96979SOL    HW192776   5.715  14.469  12.772
96979SOL    HW292777   5.688  14.617  12.755
96980SOL     OW92778  10.138  10.213   7.340
96980SOL    HW192779  10.069  10.271   7.307
96980SOL    HW292780  10.212  10.226   7.280
96981SOL     OW92781   5.475   4.208  10.312
96981SOL    HW192782   5.492   4.220  10.219
96981SOL    HW292783   5.562   4.199  10.352
96982SOL     OW92784  11.965   3.351  10.497
96982SOL    HW192785  12.007   3.420  10.446
96982SOL    HW292786  11.883   3.333  10.451
96983SOL     OW92787   6.539  14.075   7.880
96983SOL    HW192788   6.539  13.993   7.931
96983SOL    HW292789   6.627  14.079   7.842
96984SOL     OW92790   4.618   6.839   8.530
96984SOL    HW192791   4.650   6.879   8.611
96984SOL    HW292792   4.532   6.877   8.517
96985SOL     OW92793  12.925   2.330   3.762
96985SOL    HW192794  12.862   2.269   3.724
96985SOL    HW292795  13.009   2.283   3.758
96986SOL     OW92796  12.670   6.729   8.294
96986SOL    HW192797  12.654   6.822   8.313
96986SOL    HW292798  12.717   6.696   8.370
96987SOL     OW92799  11.227   0.321  10.244
96987SOL    HW192800  11.251   0.413  10.255
96987SOL    HW292801  11.147   0.323  10.192
96988SOL     OW92802   0.410   4.493   9.912
96988SOL    HW192803   0.346   4.493   9.841
96988SOL    HW292804   0.433   4.586   9.923
96989SOL     OW92805  11.388  11.595  11.493
96989SOL    HW192806  11.380  11.567  11.585
96989SOL    HW292807  11.481  11.586  11.473
96990SOL     OW92808   2.785   8.145   1.369
96990SOL    HW192809   2.773   8.222   1.426
96990SOL    HW292810   2.856   8.170   1.311
96991SOL     OW92811   9.218  13.041   5.466
96991SOL    HW192812   9.179  12.959   5.436
96991SOL    HW292813   9.218  13.098   5.389
96992SOL     OW92814   0.669   0.191   3.281
96992SOL    HW192815   0.673   0.133   3.357
96992SOL    HW292816   0.699   0.275   3.313
96993SOL     OW92817   8.813  11.460   5.709
96993SOL    HW192818   8.883  11.485   5.769
96993SOL    HW292819   8.746  11.528   5.721
96994SOL     OW92820  10.504  12.371  12.214
96994SOL    HW192821  10.459  12.456  12.213
96994SOL    HW292822  10.455  12.318  12.152
96995SOL     OW92823   3.473  13.604   4.909
96995SOL    HW192824   3.565  13.616   4.887
96995SOL    HW292825   3.432  13.579   4.826
96996SOL     OW92826   4.028   2.776  10.692
96996SOL    HW192827   4.064   2.713  10.630
96996SOL    HW292828   4.077   2.856  10.675
96997SOL     OW92829   0.743  14.502   5.553
96997SOL    HW192830   0.662  14.538   5.590
96997SOL    HW292831   0.731  14.510   5.458
96998SOL     OW92832   7.840   9.537  10.420
96998SOL    HW192833   7.870   9.485  10.345
96998SOL    HW292834   7.917   9.545  10.476
96999SOL     OW92835  13.719   7.244   0.462
96999SOL    HW192836  13.722   7.158   0.421
96999SOL    HW292837  13.740   7.228   0.554
97000SOL     OW92838   7.075  13.999   3.510
97000SOL    HW192839   7.033  14.007   3.424
97000SOL    HW292840   7.003  13.977   3.570
97001SOL     OW92841  11.231  11.220   8.360
97001SOL    HW192842  11.176  11.143   8.372
97001SOL    HW292843  11.276  11.205   8.277
97002SOL     OW92844   7.264   0.762  14.209
97002SOL    HW192845   7.187   0.806  14.173
97002SOL    HW292846   7.337   0.820  14.187
97003SOL     OW92847   0.101   8.234   4.482
97003SOL    HW192848   0.166   8.303   4.466
97003SOL    HW292849   0.119   8.204   4.571
97004SOL     OW92850  10.055   8.663   9.210
97004SOL    HW192851  10.125   8.717   9.246
97004SOL    HW292852   9.982   8.724   9.198
97005SOL     OW92853   5.172   3.764   4.325
97005SOL    HW192854   5.142   3.850   4.354
97005SOL    HW292855   5.094   3.722   4.289
97006SOL     OW92856   8.932  11.684  12.052
97006SOL    HW192857   8.844  11.694  12.087
97006SOL    HW292858   8.927  11.605  11.998
97007SOL     OW92859   6.622   8.520   5.945
97007SOL    HW192860   6.614   8.596   6.003
97007SOL    HW292861   6.574   8.546   5.866
97008SOL     OW92862   6.726   3.715   3.808
97008SOL    HW192863   6.732   3.626   3.843
97008SOL    HW292864   6.813   3.732   3.772
97009SOL     OW92865   2.820   6.665   0.360
97009SOL    HW192866   2.812   6.749   0.404
97009SOL    HW292867   2.914   6.650   0.353
97010SOL     OW92868   1.931   9.516   3.509
97010SOL    HW192869   1.995   9.575   3.468
97010SOL    HW292870   1.926   9.546   3.600
97011SOL     OW92871   8.500  13.445   3.695
97011SOL    HW192872   8.419  13.397   3.676
97011SOL    HW292873   8.482  13.490   3.777
97012SOL     OW92874   7.921   3.477   6.863
97012SOL    HW192875   7.890   3.557   6.905
97012SOL    HW292876   7.979   3.437   6.928
97013SOL     OW92877   1.289   2.201   1.543
97013SOL    HW192878   1.287   2.294   1.520
97013SOL    HW292879   1.379   2.187   1.574
97014SOL     OW92880   3.507  11.482   1.495
97014SOL    HW192881   3.555  11.506   1.575
97014SOL    HW292882   3.553  11.529   1.425
97015SOL     OW92883   0.887  12.088   0.387
97015SOL    HW192884   0.968  12.108   0.434
97015SOL    HW292885   0.817  12.124   0.442
97016SOL     OW92886   4.579  12.581   6.846
97016SOL    HW192887   4.565  12.573   6.941
97016SOL    HW292888   4.569  12.675   6.829
97017SOL     OW92889   0.796   0.304   2.751
97017SOL    HW192890   0.798   0.397   2.770
97017SOL    HW292891   0.856   0.293   2.677
97018SOL     OW92892  13.953   4.551  12.421
97018SOL    HW192893  13.933   4.641  12.393
97018SOL    HW292894  13.976   4.506  12.340
97019SOL     OW92895   8.648   5.724   5.241
97019SOL    HW192896   8.666   5.646   5.292
97019SOL    HW292897   8.656   5.796   5.303
97020SOL     OW92898   3.043   6.278  11.117
97020SOL    HW192899   3.042   6.319  11.203
97020SOL    HW292900   3.122   6.223  11.117
97021SOL     OW92901  11.975   6.634   1.742
97021SOL    HW192902  12.055   6.582   1.754
97021SOL    HW292903  11.976   6.696   1.815
97022SOL     OW92904  12.084   2.178   9.343
97022SOL    HW192905  12.103   2.269   9.320
97022SOL    HW292906  12.043   2.183   9.430
97023SOL     OW92907   5.759   6.497   5.046
97023SOL    HW192908   5.678   6.504   4.994
97023SOL    HW292909   5.729   6.472   5.133
97024SOL     OW92910   6.156   9.425   8.436
97024SOL    HW192911   6.187   9.423   8.526
97024SOL    HW292912   6.112   9.510   8.427
97025SOL     OW92913   7.600   3.403   1.285
97025SOL    HW192914   7.508   3.399   1.256
97025SOL    HW292915   7.595   3.402   1.381
97026SOL     OW92916   3.938   6.213  13.828
97026SOL    HW192917   3.898   6.300  13.818
97026SOL    HW292918   4.024   6.231  13.868
97027SOL     OW92919   1.146   5.080   4.146
97027SOL    HW192920   1.238   5.106   4.138
97027SOL    HW292921   1.103   5.158   4.181
97028SOL     OW92922  11.175  10.985   5.866
97028SOL    HW192923  11.157  10.930   5.790
97028SOL    HW292924  11.112  11.056   5.859
97029SOL     OW92925   3.988  14.460   9.895
97029SOL    HW192926   3.973  14.533   9.955
97029SOL    HW292927   4.015  14.500   9.813
97030SOL     OW92928   5.677  11.840  11.391
97030SOL    HW192929   5.589  11.808  11.371
97030SOL    HW292930   5.696  11.903  11.322
97031SOL     OW92931   2.063   4.280   6.482
97031SOL    HW192932   2.093   4.209   6.425
97031SOL    HW292933   2.111   4.268   6.564
97032SOL     OW92934  11.847   8.723   4.675
97032SOL    HW192935  11.755   8.697   4.669
97032SOL    HW292936  11.851   8.780   4.752
97033SOL     OW92937  13.542   8.257  11.305
97033SOL    HW192938  13.562   8.169  11.275
97033SOL    HW292939  13.526   8.307  11.225
97034SOL     OW92940  12.871  12.122  13.946
97034SOL    HW192941  12.776  12.108  13.952
97034SOL    HW292942  12.909  12.051  13.997
97035SOL     OW92943   8.019   4.410   8.982
97035SOL    HW192944   8.030   4.378   9.071
97035SOL    HW292945   7.956   4.482   8.989
97036SOL     OW92946   7.642  11.732  10.184
97036SOL    HW192947   7.709  11.729  10.115
97036SOL    HW292948   7.672  11.669  10.250
97037SOL     OW92949   3.340  13.019   0.836
97037SOL    HW192950   3.287  12.956   0.884
97037SOL    HW292951   3.285  13.097   0.831
97038SOL     OW92952  11.255   0.375   0.675
97038SOL    HW192953  11.274   0.335   0.760
97038SOL    HW292954  11.299   0.318   0.611
97039SOL     OW92955  14.176   1.493   5.643
97039SOL    HW192956  14.225   1.533   5.715
97039SOL    HW292957  14.113   1.561   5.617
97040SOL     OW92958   0.140  14.508   7.326
97040SOL    HW192959   0.110  14.536   7.239
97040SOL    HW292960   0.193  14.429   7.309
97041SOL     OW92961   9.385   0.317   5.326
97041SOL    HW192962   9.347   0.243   5.278
97041SOL    HW292963   9.404   0.283   5.413
97042SOL     OW92964  12.916   5.059   2.096
97042SOL    HW192965  12.823   5.070   2.115
97042SOL    HW292966  12.933   5.120   2.025
97043SOL     OW92967  10.763  12.784  14.310
97043SOL    HW192968  10.831  12.735  14.356
97043SOL    HW292969  10.799  12.872  14.298
97044SOL     OW92970  11.832   6.849  14.505
97044SOL    HW192971  11.869   6.912  14.567
97044SOL    HW292972  11.896   6.778  14.501
97045SOL     OW92973   2.675   3.053   9.851
97045SOL    HW192974   2.654   3.124   9.911
97045SOL    HW292975   2.769   3.059   9.838
97046SOL     OW92976   0.424   1.635  11.606
97046SOL    HW192977   0.466   1.574  11.544
97046SOL    HW292978   0.497   1.679  11.649
97047SOL     OW92979   8.350   8.170   0.604
97047SOL    HW192980   8.343   8.212   0.690
97047SOL    HW292981   8.318   8.236   0.543
97048SOL     OW92982   4.473  13.330   4.992
97048SOL    HW192983   4.560  13.351   5.027
97048SOL    HW292984   4.441  13.412   4.956
97049SOL     OW92985   2.091   3.440   6.951
97049SOL    HW192986   2.152   3.513   6.944
97049SOL    HW292987   2.008   3.475   6.921
97050SOL     OW92988   7.007   5.591   3.660
97050SOL    HW192989   7.059   5.627   3.588
97050SOL    HW292990   6.982   5.667   3.712
97051SOL     OW92991  10.223   0.133   9.086
97051SOL    HW192992  10.286   0.173   9.147
97051SOL    HW292993  10.145   0.117   9.140
97052SOL     OW92994  10.616   8.374  11.650
97052SOL    HW192995  10.609   8.443  11.715
97052SOL    HW292996  10.530   8.332  11.648
97053SOL     OW92997  11.440  13.759  14.058
97053SOL    HW192998  11.353  13.728  14.035
97053SOL    HW292999  11.432  13.786  14.150
97054SOL     OW93000   7.916   1.775  12.428
97054SOL    HW193001   7.993   1.795  12.375
97054SOL    HW293002   7.944   1.788  12.518
97055SOL     OW93003   9.603   7.135   9.933
97055SOL    HW193004   9.575   7.068   9.872
97055SOL    HW293005   9.521   7.172   9.967
97056SOL     OW93006   8.803  14.694   4.002
97056SOL    HW193007   8.808  14.601   4.022
97056SOL    HW293008   8.738  14.700   3.932
97057SOL     OW93009   5.939   8.012   4.368
97057SOL    HW193010   5.948   8.077   4.298
97057SOL    HW293011   5.929   7.929   4.322
97058SOL     OW93012   2.816   8.219  13.650
97058SOL    HW193013   2.871   8.264  13.586
97058SOL    HW293014   2.875   8.202  13.724
97059SOL     OW93015  14.614   6.974   8.033
97059SOL    HW193016  14.653   7.058   8.008
97059SOL    HW293017  14.623   6.919   7.956
97060SOL     OW93018   4.356   4.209   3.205
97060SOL    HW193019   4.447   4.229   3.230
97060SOL    HW293020   4.314   4.295   3.200
97061SOL     OW93021   0.960   3.981   8.945
97061SOL    HW193022   0.991   4.017   8.861
97061SOL    HW293023   0.885   3.926   8.921
97062SOL     OW93024   4.106   1.806   9.455
97062SOL    HW193025   4.149   1.827   9.372
97062SOL    HW293026   4.023   1.766   9.430
97063SOL     OW93027   8.676  12.634   8.346
97063SOL    HW193028   8.719  12.597   8.269
97063SOL    HW293029   8.744  12.688   8.387
97064SOL     OW93030   3.578   9.215   5.360
97064SOL    HW193031   3.671   9.212   5.380
97064SOL    HW293032   3.565   9.301   5.320
97065SOL     OW93033   1.838   9.142   6.808
97065SOL    HW193034   1.918   9.095   6.784
97065SOL    HW293035   1.851   9.165   6.900
97066SOL     OW93036  12.987   2.596   3.673
97066SOL    HW193037  13.043   2.636   3.739
97066SOL    HW293038  12.970   2.508   3.707
97067SOL     OW93039   1.243   9.472  11.644
97067SOL    HW193040   1.328   9.432  11.627
97067SOL    HW293041   1.252   9.511  11.731
97068SOL     OW93042   4.414   3.457   6.524
97068SOL    HW193043   4.319   3.453   6.538
97068SOL    HW293044   4.452   3.434   6.609
97069SOL     OW93045  14.362  10.673  12.455
97069SOL    HW193046  14.379  10.763  12.424
97069SOL    HW293047  14.375  10.619  12.377
97070SOL     OW93048   9.698   9.557   1.430
97070SOL    HW193049   9.722   9.641   1.392
97070SOL    HW293050   9.770   9.537   1.491
97071SOL     OW93051   4.308   5.445   0.142
97071SOL    HW193052   4.402   5.461   0.138
97071SOL    HW293053   4.273   5.519   0.191
97072SOL     OW93054   6.725   7.336   0.945
97072SOL    HW193055   6.723   7.254   0.897
97072SOL    HW293056   6.800   7.327   1.005
97073SOL     OW93057  12.723  11.647  10.687
97073SOL    HW193058  12.667  11.719  10.659
97073SOL    HW293059  12.665  11.571  10.691
97074SOL     OW93060   2.774   3.940   4.758
97074SOL    HW193061   2.782   3.925   4.664
97074SOL    HW293062   2.691   3.988   4.768
97075SOL     OW93063  13.524   5.536   9.361
97075SOL    HW193064  13.474   5.455   9.349
97075SOL    HW293065  13.554   5.532   9.452
97076SOL     OW93066   4.171  14.046   8.644
97076SOL    HW193067   4.092  14.048   8.698
97076SOL    HW293068   4.174  14.131   8.601
97077SOL     OW93069   5.467  10.218   3.326
97077SOL    HW193070   5.507  10.221   3.239
97077SOL    HW293071   5.514  10.149   3.372
97078SOL     OW93072   7.278   6.139   9.360
97078SOL    HW193073   7.323   6.058   9.384
97078SOL    HW293074   7.321   6.206   9.412
97079SOL     OW93075  10.596  12.493   9.011
97079SOL    HW193076  10.601  12.561   8.944
97079SOL    HW293077  10.591  12.542   9.093
97080SOL     OW93078   8.400   0.929   7.392
97080SOL    HW193079   8.353   1.012   7.379
97080SOL    HW293080   8.464   0.927   7.320
97081SOL     OW93081   2.414   4.554   4.383
97081SOL    HW193082   2.428   4.521   4.294
97081SOL    HW293083   2.465   4.635   4.386
97082SOL     OW93084  12.649   1.994   2.171
97082SOL    HW193085  12.644   2.018   2.079
97082SOL    HW293086  12.704   2.061   2.210
97083SOL     OW93087   7.598   2.215  11.893
97083SOL    HW193088   7.564   2.136  11.935
97083SOL    HW293089   7.693   2.205  11.896
97084SOL     OW93090   6.969   3.727   1.445
97084SOL    HW193091   7.026   3.692   1.377
97084SOL    HW293092   6.957   3.655   1.507
97085SOL     OW93093  12.094   0.540  10.816
97085SOL    HW193094  12.031   0.492  10.870
97085SOL    HW293095  12.149   0.587  10.880
97086SOL     OW93096  14.069   3.530   4.456
97086SOL    HW193097  14.021   3.452   4.429
97086SOL    HW293098  14.106   3.565   4.374
97087SOL     OW93099   2.533   6.198   6.962
97087SOL    HW193100   2.501   6.216   7.050
97087SOL    HW293101   2.516   6.278   6.913
97088SOL     OW93102   7.888  14.627   4.697
97088SOL    HW193103   7.947  14.552   4.684
97088SOL    HW293104   7.834  14.603   4.772
97089SOL     OW93105  11.954   6.288  10.413
97089SOL    HW193106  11.868   6.282  10.455
97089SOL    HW293107  11.948   6.365  10.357
97090SOL     OW93108   9.466   0.827   4.282
97090SOL    HW193109   9.539   0.816   4.222
97090SOL    HW293110   9.388   0.825   4.227
97091SOL     OW93111   2.712  10.917  13.282
97091SOL    HW193112   2.667  10.895  13.200
97091SOL    HW293113   2.773  10.987  13.257
97092SOL     OW93114   4.355   3.738   3.432
97092SOL    HW193115   4.304   3.815   3.408
97092SOL    HW293116   4.446   3.770   3.436
97093SOL     OW93117   4.836   5.222  12.148
97093SOL    HW193118   4.764   5.181  12.196
97093SOL    HW293119   4.851   5.305  12.193
97094SOL     OW93120   1.241  10.513   3.694
97094SOL    HW193121   1.153  10.550   3.691
97094SOL    HW293122   1.229  10.420   3.677
97095SOL     OW93123   4.850   7.074  10.692
97095SOL    HW193124   4.821   7.162  10.668
97095SOL    HW293125   4.919   7.089  10.757
97096SOL     OW93126   7.880  12.520   6.643
97096SOL    HW193127   7.811  12.551   6.702
97096SOL    HW293128   7.953  12.500   6.701
97097SOL     OW93129   8.148   1.527  12.546
97097SOL    HW193130   8.122   1.613  12.580
97097SOL    HW293131   8.211   1.495  12.610
97098SOL     OW93132   1.021   0.133  13.567
97098SOL    HW193133   0.981   0.177  13.492
97098SOL    HW293134   1.033   0.202  13.632
97099SOL     OW93135  14.495  13.525   7.060
97099SOL    HW193136  14.540  13.567   6.987
97099SOL    HW293137  14.402  13.531   7.038
97100SOL     OW93138  13.483   3.877   6.236
97100SOL    HW193139  13.458   3.821   6.309
97100SOL    HW293140  13.486   3.819   6.160
97101SOL     OW93141   7.365  10.020   3.553
97101SOL    HW193142   7.392  10.110   3.532
97101SOL    HW293143   7.446   9.970   3.555
97102SOL     OW93144  10.745   4.804   5.352
97102SOL    HW193145  10.754   4.895   5.377
97102SOL    HW293146  10.833   4.767   5.358
97103SOL     OW93147  12.599   5.666   0.581
97103SOL    HW193148  12.536   5.674   0.509
97103SOL    HW293149  12.675   5.716   0.552
97104SOL     OW93150   0.333   9.254  10.087
97104SOL    HW193151   0.263   9.280  10.148
97104SOL    HW293152   0.327   9.158  10.083
97105SOL     OW93153   3.021   1.963   8.964
97105SOL    HW193154   3.067   2.013   9.033
97105SOL    HW293155   3.062   1.877   8.967
97106SOL     OW93156   8.473   5.138   8.444
97106SOL    HW193157   8.508   5.061   8.489
97106SOL    HW293158   8.550   5.195   8.431
97107SOL     OW93159  12.896  14.866  13.129
97107SOL    HW193160  12.939   0.071  13.097
97107SOL    HW293161  12.823  14.853  13.069
97108SOL     OW93162   4.080   1.173  12.423
97108SOL    HW193163   4.102   1.250  12.371
97108SOL    HW293164   4.129   1.102  12.381
97109SOL     OW93165   2.951   9.179  13.336
97109SOL    HW193166   2.898   9.164  13.414
97109SOL    HW293167   2.906   9.250  13.289
97110SOL     OW93168  12.948   6.319   2.395
97110SOL    HW193169  12.917   6.257   2.329
97110SOL    HW293170  13.024   6.361   2.355
97111SOL     OW93171   2.819   0.914   1.051
97111SOL    HW193172   2.907   0.949   1.062
97111SOL    HW293173   2.800   0.867   1.132
97112SOL     OW93174   6.163  10.488  13.663
97112SOL    HW193175   6.090  10.489  13.601
97112SOL    HW293176   6.156  10.403  13.707
97113SOL     OW93177   1.779   6.003   7.017
97113SOL    HW193178   1.788   5.911   7.044
97113SOL    HW293179   1.687   6.010   6.991
97114SOL     OW93180   7.040  10.370   3.543
97114SOL    HW193181   7.074  10.312   3.475
97114SOL    HW293182   7.102  10.444   3.545
97115SOL     OW93183   5.546   3.853   9.702
97115SOL    HW193184   5.494   3.927   9.733
97115SOL    HW293185   5.593   3.887   9.626
97116SOL     OW93186  10.158   1.736   8.794
97116SOL    HW193187  10.126   1.646   8.798
97116SOL    HW293188  10.190   1.746   8.705
97117SOL     OW93189   2.828   5.445  13.163
97117SOL    HW193190   2.889   5.517  13.150
97117SOL    HW293191   2.870   5.369  13.123
97118SOL     OW93192  13.047  12.570   3.691
97118SOL    HW193193  13.034  12.483   3.729
97118SOL    HW293194  13.033  12.557   3.597
97119SOL     OW93195   2.079   3.115  13.476
97119SOL    HW193196   2.157   3.164  13.451
97119SOL    HW293197   2.111   3.030  13.505
97120SOL     OW93198   2.226  10.345   9.294
97120SOL    HW193199   2.156  10.405   9.320
97120SOL    HW293200   2.198  10.260   9.327
97121SOL     OW93201  10.660   5.424   8.691
97121SOL    HW193202  10.683   5.498   8.635
97121SOL    HW293203  10.726   5.357   8.671
97122SOL     OW93204   5.863   0.508   5.573
97122SOL    HW193205   5.883   0.558   5.494
97122SOL    HW293206   5.931   0.535   5.636
97123SOL     OW93207   3.250   4.810  10.974
97123SOL    HW193208   3.334   4.798  11.018
97123SOL    HW293209   3.273   4.828  10.883
97124SOL     OW93210   5.855   0.246  10.976
97124SOL    HW193211   5.934   0.230  11.028
97124SOL    HW293212   5.804   0.308  11.028
97125SOL     OW93213   6.863   7.263   9.432
97125SOL    HW193214   6.787   7.277   9.375
97125SOL    HW293215   6.831   7.282   9.520
97126SOL     OW93216   3.931   2.279   4.234
97126SOL    HW193217   3.881   2.269   4.315
97126SOL    HW293218   3.934   2.191   4.197
97127SOL     OW93219  11.259   5.952   7.657
97127SOL    HW193220  11.169   5.953   7.691
97127SOL    HW293221  11.303   6.024   7.702
97128SOL     OW93222   1.716   0.075   4.918
97128SOL    HW193223   1.711   0.107   4.828
97128SOL    HW293224   1.694   0.150   4.972
97129SOL     OW93225   5.959  13.515   1.813
97129SOL    HW193226   5.951  13.546   1.722
97129SOL    HW293227   5.998  13.428   1.805
97130SOL     OW93228   9.481  11.714  11.162
97130SOL    HW193229   9.417  11.724  11.092
97130SOL    HW293230   9.564  11.742  11.123
97131SOL     OW93231   8.764   4.579   1.043
97131SOL    HW193232   8.796   4.540   0.961
97131SOL    HW293233   8.818   4.539   1.111
97132SOL     OW93234   5.778   9.102   3.893
97132SOL    HW193235   5.683   9.117   3.889
97132SOL    HW293236   5.786   9.007   3.898
97133SOL     OW93237   9.390  10.957   8.005
97133SOL    HW193238   9.402  10.868   8.038
97133SOL    HW293239   9.478  10.986   7.980
97134SOL     OW93240   7.017   7.663   8.485
97134SOL    HW193241   7.087   7.613   8.442
97134SOL    HW293242   7.016   7.630   8.575
97135SOL     OW93243  11.398   8.059  10.799
97135SOL    HW193244  11.438   8.069  10.885
97135SOL    HW293245  11.309   8.028  10.817
97136SOL     OW93246  12.121   1.178  11.467
97136SOL    HW193247  12.107   1.254  11.410
97136SOL    HW293248  12.214   1.158  11.458
97137SOL     OW93249   1.824   0.661  10.472
97137SOL    HW193250   1.884   0.709  10.415
97137SOL    HW293251   1.877   0.588  10.506
97138SOL     OW93252  10.772   1.856   0.499
97138SOL    HW193253  10.715   1.912   0.447
97138SOL    HW293254  10.832   1.816   0.436
97139SOL     OW93255   8.801  12.723   8.848
97139SOL    HW193256   8.774  12.710   8.939
97139SOL    HW293257   8.893  12.695   8.847
97140SOL     OW93258  12.738  11.177   9.329
97140SOL    HW193259  12.726  11.156   9.236
97140SOL    HW293260  12.750  11.093   9.371
97141SOL     OW93261  11.098   9.092   7.735
97141SOL    HW193262  11.036   9.019   7.736
97141SOL    HW293263  11.174   9.060   7.784
97142SOL     OW93264   6.151  13.893   6.086
97142SOL    HW193265   6.142  13.945   6.166
97142SOL    HW293266   6.064  13.895   6.047
97143SOL     OW93267   2.902  10.213  13.004
97143SOL    HW193268   2.903  10.293  13.057
97143SOL    HW293269   2.994  10.196  12.984
97144SOL     OW93270  13.456  13.288  13.675
97144SOL    HW193271  13.481  13.376  13.701
97144SOL    HW293272  13.386  13.300  13.611
97145SOL     OW93273   0.336   2.650  13.184
97145SOL    HW193274   0.285   2.701  13.247
97145SOL    HW293275   0.305   2.560  13.195
97146SOL     OW93276   0.357   7.382  10.693
97146SOL    HW193277   0.294   7.311  10.706
97146SOL    HW293278   0.414   7.378  10.770
97147SOL     OW93279  14.496   4.073   0.881
97147SOL    HW193280  14.508   3.987   0.840
97147SOL    HW293281  14.401   4.081   0.893
97148SOL     OW93282   4.010   0.170  11.035
97148SOL    HW193283   4.066   0.236  10.994
97148SOL    HW293284   4.070   0.101  11.062
97149SOL     OW93285   9.161   2.518  10.082
97149SOL    HW193286   9.132   2.435  10.045
97149SOL    HW293287   9.230   2.548  10.022
97150SOL     OW93288   3.403   9.187  10.786
97150SOL    HW193289   3.310   9.199  10.805
97150SOL    HW293290   3.416   9.092  10.785
97151SOL     OW93291  10.849   3.255   1.807
97151SOL    HW193292  10.940   3.255   1.835
97151SOL    HW293293  10.814   3.172   1.839
97152SOL     OW93294   1.378   1.962  13.651
97152SOL    HW193295   1.310   2.008  13.603
97152SOL    HW293296   1.442   2.029  13.673
97153SOL     OW93297   2.237   1.272  12.770
97153SOL    HW193298   2.167   1.273  12.834
97153SOL    HW293299   2.270   1.362  12.769
97154SOL     OW93300   3.538   2.459   0.371
97154SOL    HW193301   3.461   2.509   0.397
97154SOL    HW293302   3.523   2.372   0.407
97155SOL     OW93303   2.375   0.907  13.777
97155SOL    HW193304   2.298   0.862  13.744
97155SOL    HW293305   2.427   0.839  13.819
97156SOL     OW93306   0.324   7.237   9.590
97156SOL    HW193307   0.235   7.248   9.556
97156SOL    HW293308   0.379   7.288   9.531
97157SOL     OW93309   1.488   4.414   2.211
97157SOL    HW193310   1.545   4.403   2.287
97157SOL    HW293311   1.547   4.429   2.138
97158SOL     OW93312   4.513  10.861   9.907
97158SOL    HW193313   4.486  10.770   9.895
97158SOL    HW293314   4.563  10.881   9.828
97159SOL     OW93315  11.072   1.166  14.719
97159SOL    HW193316  10.978   1.161  14.699
97159SOL    HW293317  11.115   1.172  14.634
97160SOL     OW93318   3.495  10.765  10.126
97160SOL    HW193319   3.530  10.807  10.049
97160SOL    HW293320   3.461  10.681  10.095
97161SOL     OW93321   4.611  10.813  14.155
97161SOL    HW193322   4.547  10.769  14.211
97161SOL    HW293323   4.594  10.777  14.068
97162SOL     OW93324  10.020  12.611   6.593
97162SOL    HW193325  10.111  12.637   6.607
97162SOL    HW293326  10.026  12.522   6.558
97163SOL     OW93327  13.469  13.984   0.579
97163SOL    HW193328  13.520  13.925   0.635
97163SOL    HW293329  13.500  13.965   0.490
97164SOL     OW93330   3.598   4.895   2.646
97164SOL    HW193331   3.632   4.936   2.566
97164SOL    HW293332   3.623   4.803   2.639
97165SOL     OW93333  13.927  13.697   4.208
97165SOL    HW193334  13.847  13.747   4.227
97165SOL    HW293335  13.929  13.690   4.113
97166SOL     OW93336   7.460   5.936   6.117
97166SOL    HW193337   7.402   5.929   6.193
97166SOL    HW293338   7.484   6.028   6.113
97167SOL     OW93339  14.687  13.555   8.586
97167SOL    HW193340  14.770  13.601   8.570
97167SOL    HW293341  14.620  13.611   8.547
97168SOL     OW93342   0.553  10.635  11.538
97168SOL    HW193343   0.490  10.592  11.595
97168SOL    HW293344   0.527  10.727  11.539
97169SOL     OW93345   2.564   6.916  10.833
97169SOL    HW193346   2.644   6.918  10.885
97169SOL    HW293347   2.551   6.824  10.812
97170SOL     OW93348   5.393  10.308  10.402
97170SOL    HW193349   5.440  10.385  10.434
97170SOL    HW293350   5.461  10.244  10.381
97171SOL     OW93351   9.718   3.976   6.462
97171SOL    HW193352   9.720   3.942   6.551
97171SOL    HW293353   9.731   4.071   6.472
97172SOL     OW93354  13.277   8.143   6.905
97172SOL    HW193355  13.204   8.142   6.966
97172SOL    HW293356  13.261   8.069   6.846
97173SOL     OW93357   6.435  10.618  10.540
97173SOL    HW193358   6.372  10.635  10.469
97173SOL    HW293359   6.506  10.679  10.524
97174SOL     OW93360   1.965   6.985   6.624
97174SOL    HW193361   1.999   7.017   6.708
97174SOL    HW293362   1.967   7.062   6.567
97175SOL     OW93363  11.121   2.217   4.969
97175SOL    HW193364  11.213   2.226   4.993
97175SOL    HW293365  11.076   2.200   5.051
97176SOL     OW93366   7.998   7.455   6.605
97176SOL    HW193367   8.063   7.418   6.664
97176SOL    HW293368   7.914   7.431   6.644
97177SOL     OW93369   1.905   5.810   5.323
97177SOL    HW193370   1.919   5.830   5.230
97177SOL    HW293371   1.818   5.844   5.342
97178SOL     OW93372  10.205   5.854   2.521
97178SOL    HW193373  10.205   5.761   2.498
97178SOL    HW293374  10.273   5.892   2.465
97179SOL     OW93375  10.231  11.849  12.223
97179SOL    HW193376  10.238  11.917  12.289
97179SOL    HW293377  10.267  11.771  12.265
97180SOL     OW93378   2.424   4.778   3.348
97180SOL    HW193379   2.451   4.686   3.348
97180SOL    HW293380   2.411   4.799   3.440
97181SOL     OW93381   3.108  13.363   4.745
97181SOL    HW193382   3.096  13.374   4.839
97181SOL    HW293383   3.066  13.279   4.725
97182SOL     OW93384   2.044  12.499   6.407
97182SOL    HW193385   2.057  12.593   6.408
97182SOL    HW293386   2.087  12.469   6.327
97183SOL     OW93387   7.635   6.209   4.832
97183SOL    HW193388   7.612   6.138   4.772
97183SOL    HW293389   7.568   6.207   4.900
97184SOL     OW93390  14.189   6.506   2.908
97184SOL    HW193391  14.131   6.548   2.971
97184SOL    HW293392  14.270   6.558   2.911
97185SOL     OW93393  11.689  10.892   8.581
97185SOL    HW193394  11.734  10.930   8.656
97185SOL    HW293395  11.657  10.967   8.531
97186SOL     OW93396   6.823  14.127  10.087
97186SOL    HW193397   6.844  14.199  10.028
97186SOL    HW293398   6.825  14.167  10.174
97187SOL     OW93399   2.261   4.759  13.159
97187SOL    HW193400   2.211   4.683  13.189
97187SOL    HW293401   2.199   4.808  13.104
97188SOL     OW93402   0.204  13.025   3.557
97188SOL    HW193403   0.125  13.013   3.610
97188SOL    HW293404   0.266  12.961   3.591
97189SOL     OW93405   5.545  13.524   6.673
97189SOL    HW193406   5.455  13.537   6.703
97189SOL    HW293407   5.592  13.496   6.752
97190SOL     OW93408   8.105   1.117  11.885
97190SOL    HW193409   8.072   1.205  11.904
97190SOL    HW293410   8.117   1.116  11.790
97191SOL     OW93411  13.010  10.295   1.374
97191SOL    HW193412  13.087  10.255   1.414
97191SOL    HW293413  12.940  10.230   1.385
97192SOL     OW93414  13.358   1.177   1.351
97192SOL    HW193415  13.423   1.187   1.421
97192SOL    HW293416  13.378   1.092   1.312
97193SOL     OW93417  12.858   4.142   5.206
97193SOL    HW193418  12.777   4.192   5.220
97193SOL    HW293419  12.926   4.209   5.202
97194SOL     OW93420   1.955  10.986   9.176
97194SOL    HW193421   1.883  10.931   9.209
97194SOL    HW293422   2.016  10.991   9.249
97195SOL     OW93423   7.834   3.901   2.223
97195SOL    HW193424   7.916   3.946   2.240
97195SOL    HW293425   7.821   3.846   2.300
97196SOL     OW93426  12.455   5.097   8.571
97196SOL    HW193427  12.504   5.171   8.608
97196SOL    HW293428  12.393   5.073   8.640
97197SOL     OW93429   1.533   3.818   5.937
97197SOL    HW193430   1.507   3.791   5.849
97197SOL    HW293431   1.596   3.751   5.965
97198SOL     OW93432   2.271   1.882  14.547
97198SOL    HW193433   2.306   1.816  14.488
97198SOL    HW293434   2.274   1.841  14.633
97199SOL     OW93435  14.114  12.407  12.043
97199SOL    HW193436  14.043  12.469  12.060
97199SOL    HW293437  14.108  12.389  11.949
97200SOL     OW93438   9.839   5.551  10.842
97200SOL    HW193439   9.815   5.634  10.800
97200SOL    HW293440   9.926   5.567  10.878
97201SOL     OW93441  10.320   4.276  14.287
97201SOL    HW193442  10.410   4.246  14.294
97201SOL    HW293443  10.328   4.369  14.262
97202SOL     OW93444  11.467  10.469  12.199
97202SOL    HW193445  11.540  10.526  12.224
97202SOL    HW293446  11.484  10.447  12.108
97203SOL     OW93447   5.058   4.032   8.237
97203SOL    HW193448   4.977   4.076   8.262
97203SOL    HW293449   5.061   4.039   8.142
97204SOL     OW93450  13.356   7.293   8.777
97204SOL    HW193451  13.308   7.268   8.855
97204SOL    HW293452  13.319   7.377   8.751
97205SOL     OW93453  11.804   7.087   8.308
97205SOL    HW193454  11.825   7.180   8.313
97205SOL    HW293455  11.721   7.083   8.261
97206SOL     OW93456  13.189  13.964  10.266
97206SOL    HW193457  13.271  13.918  10.287
97206SOL    HW293458  13.177  13.947  10.172
97207SOL     OW93459  11.132  12.697   1.386
97207SOL    HW193460  11.118  12.778   1.435
97207SOL    HW293461  11.227  12.694   1.373
97208SOL     OW93462   6.582   5.389   9.531
97208SOL    HW193463   6.552   5.300   9.550
97208SOL    HW293464   6.567   5.437   9.613
97209SOL     OW93465   8.749  10.262   0.605
97209SOL    HW193466   8.767  10.354   0.624
97209SOL    HW293467   8.659  10.248   0.632
97210SOL     OW93468  13.008   5.715   2.481
97210SOL    HW193469  13.086   5.689   2.431
97210SOL    HW293470  13.042   5.739   2.567
97211SOL     OW93471   2.945   5.972  10.119
97211SOL    HW193472   2.902   5.890  10.140
97211SOL    HW293473   3.038   5.951  10.118
97212SOL     OW93474  10.470  14.158   0.356
97212SOL    HW193475  10.432  14.075   0.385
97212SOL    HW293476  10.488  14.206   0.437
97213SOL     OW93477  14.608   9.280   8.587
97213SOL    HW193478  14.644   9.218   8.650
97213SOL    HW293479  14.515   9.287   8.610
97214SOL     OW93480   8.485  11.025   0.999
97214SOL    HW193481   8.476  11.025   0.904
97214SOL    HW293482   8.566  10.977   1.016
97215SOL     OW93483   8.954   8.686  13.823
97215SOL    HW193484   8.935   8.731  13.741
97215SOL    HW293485   8.986   8.755  13.882
97216SOL     OW93486   8.507   4.386   3.017
97216SOL    HW193487   8.586   4.371   3.070
97216SOL    HW293488   8.510   4.480   2.997
97217SOL     OW93489   1.709   1.774  11.174
97217SOL    HW193490   1.758   1.711  11.121
97217SOL    HW293491   1.691   1.846  11.114
97218SOL     OW93492   2.624   7.784   8.505
97218SOL    HW193493   2.700   7.833   8.474
97218SOL    HW293494   2.660   7.710   8.554
97219SOL     OW93495   4.781  10.391   4.414
97219SOL    HW193496   4.843  10.378   4.486
97219SOL    HW293497   4.810  10.330   4.346
97220SOL     OW93498  11.335   7.176   1.399
97220SOL    HW193499  11.316   7.085   1.376
97220SOL    HW293500  11.268   7.198   1.465
97221SOL     OW93501  10.914  10.434   0.541
97221SOL    HW193502  10.865  10.476   0.471
97221SOL    HW293503  10.914  10.498   0.612
97222SOL     OW93504  12.316   5.662   7.198
97222SOL    HW193505  12.396   5.640   7.247
97222SOL    HW293506  12.298   5.585   7.145
97223SOL     OW93507   4.294   9.225   0.963
97223SOL    HW193508   4.323   9.162   1.028
97223SOL    HW293509   4.357   9.218   0.892
97224SOL     OW93510   7.298   9.725  13.885
97224SOL    HW193511   7.363   9.713  13.815
97224SOL    HW293512   7.214   9.733  13.839
97225SOL     OW93513   9.206   2.340   2.163
97225SOL    HW193514   9.210   2.246   2.178
97225SOL    HW293515   9.141   2.351   2.095
97226SOL     OW93516   8.815   1.358   0.469
97226SOL    HW193517   8.821   1.289   0.403
97226SOL    HW293518   8.891   1.413   0.454
97227SOL     OW93519   7.628  11.894   7.626
97227SOL    HW193520   7.690  11.927   7.691
97227SOL    HW293521   7.612  11.968   7.568
97228SOL     OW93522   3.378  11.352  11.981
97228SOL    HW193523   3.467  11.386  11.988
97228SOL    HW293524   3.334  11.387  12.059
97229SOL     OW93525   1.898   8.786   3.397
97229SOL    HW193526   1.950   8.728   3.453
97229SOL    HW293527   1.953   8.864   3.388
97230SOL     OW93528  13.378  12.286   5.249
97230SOL    HW193529  13.330  12.210   5.217
97230SOL    HW293530  13.322  12.361   5.227
97231SOL     OW93531  10.314  13.487  12.177
97231SOL    HW193532  10.372  13.557  12.148
97231SOL    HW293533  10.270  13.523  12.254
97232SOL     OW93534  14.556   3.052   0.286
97232SOL    HW193535  14.462   3.066   0.296
97232SOL    HW293536  14.576   2.984   0.351
97233SOL     OW93537   4.374   5.241  10.524
97233SOL    HW193538   4.387   5.167  10.583
97233SOL    HW293539   4.415   5.214  10.442
97234SOL     OW93540   0.799   2.902  10.692
97234SOL    HW193541   0.740   2.835  10.658
97234SOL    HW293542   0.859   2.855  10.750
97235SOL     OW93543   4.584   1.520   2.826
97235SOL    HW193544   4.626   1.552   2.906
97235SOL    HW293545   4.494   1.552   2.832
97236SOL     OW93546   2.581  13.284   4.805
97236SOL    HW193547   2.501  13.256   4.760
97236SOL    HW293548   2.597  13.373   4.774
97237SOL     OW93549  11.520   0.880   4.370
97237SOL    HW193550  11.566   0.818   4.426
97237SOL    HW293551  11.555   0.864   4.282
97238SOL     OW93552  13.353   1.071  14.087
97238SOL    HW193553  13.260   1.049  14.091
97238SOL    HW293554  13.383   1.067  14.178
97239SOL     OW93555  10.814  14.072   4.258
97239SOL    HW193556  10.881  14.007   4.280
97239SOL    HW293557  10.864  14.149   4.230
97240SOL     OW93558   2.941   2.069  11.757
97240SOL    HW193559   2.869   2.131  11.755
97240SOL    HW293560   2.954   2.051  11.850
97241SOL     OW93561  11.190   7.665  14.486
97241SOL    HW193562  11.135   7.706  14.553
97241SOL    HW293563  11.216   7.738  14.430
97242SOL     OW93564   1.412   3.592   8.089
97242SOL    HW193565   1.420   3.539   8.169
97242SOL    HW293566   1.501   3.623   8.072
97243SOL     OW93567   8.840   7.129   1.693
97243SOL    HW193568   8.854   7.164   1.605
97243SOL    HW293569   8.824   7.036   1.679
97244SOL     OW93570   5.668  11.163   3.296
97244SOL    HW193571   5.600  11.158   3.364
97244SOL    HW293572   5.677  11.256   3.278
97245SOL     OW93573   9.270  14.602   5.786
97245SOL    HW193574   9.281  14.646   5.870
97245SOL    HW293575   9.353  14.558   5.771
97246SOL     OW93576   5.223   9.267  10.385
97246SOL    HW193577   5.155   9.201  10.371
97246SOL    HW293578   5.306   9.220  10.375
97247SOL     OW93579   6.246   9.794   2.920
97247SOL    HW193580   6.220   9.706   2.946
97247SOL    HW293581   6.341   9.792   2.919
97248SOL     OW93582  13.439  13.615  12.307
97248SOL    HW193583  13.363  13.632  12.364
97248SOL    HW293584  13.480  13.537  12.345
97249SOL     OW93585   6.408   2.340  10.501
97249SOL    HW193586   6.420   2.386  10.584
97249SOL    HW293587   6.424   2.248  10.523
97250SOL     OW93588   4.476   6.023   4.774
97250SOL    HW193589   4.397   6.007   4.826
97250SOL    HW293590   4.547   6.021   4.838
97251SOL     OW93591   0.319   1.546  12.977
97251SOL    HW193592   0.315   1.558  13.072
97251SOL    HW293593   0.409   1.568  12.953
97252SOL     OW93594   5.897  12.632   0.932
97252SOL    HW193595   5.877  12.698   0.865
97252SOL    HW293596   5.900  12.682   1.014
97253SOL     OW93597   1.701  10.058   8.075
97253SOL    HW193598   1.759  10.085   8.147
97253SOL    HW293599   1.628  10.014   8.118
97254SOL     OW93600   6.805   3.752  11.209
97254SOL    HW193601   6.877   3.812  11.227
97254SOL    HW293602   6.811   3.734  11.116
97255SOL     OW93603   5.745  14.739   5.829
97255SOL    HW193604   5.651  14.721   5.832
97255SOL    HW293605   5.786  14.656   5.852
97256SOL     OW93606   7.654   4.724   6.084
97256SOL    HW193607   7.725   4.661   6.098
97256SOL    HW293608   7.612   4.694   6.003
97257SOL     OW93609   2.159  10.044   7.454
97257SOL    HW193610   2.168   9.953   7.426
97257SOL    HW293611   2.143  10.039   7.548
97258SOL     OW93612  10.932   5.480   9.330
97258SOL    HW193613  10.969   5.555   9.377
97258SOL    HW293614  10.891   5.427   9.398
97259SOL     OW93615   3.973   4.018   7.822
97259SOL    HW193616   3.937   3.977   7.744
97259SOL    HW293617   3.996   4.107   7.793
97260SOL     OW93618   9.033   7.410  11.570
97260SOL    HW193619   9.061   7.487  11.620
97260SOL    HW293620   9.011   7.445  11.484
97261SOL     OW93621  13.421   5.262   4.408
97261SOL    HW193622  13.495   5.205   4.430
97261SOL    HW293623  13.461   5.337   4.364
97262SOL     OW93624  14.258  13.148  10.274
97262SOL    HW193625  14.258  13.070  10.330
97262SOL    HW293626  14.345  13.187  10.287
97263SOL     OW93627   1.744  13.471   9.987
97263SOL    HW193628   1.814  13.522   9.945
97263SOL    HW293629   1.716  13.409   9.920
97264SOL     OW93630  10.544   6.494   6.524
97264SOL    HW193631  10.543   6.497   6.620
97264SOL    HW293632  10.619   6.439   6.502
97265SOL     OW93633  10.591  12.760   9.539
97265SOL    HW193634  10.504  12.745   9.504
97265SOL    HW293635  10.607  12.685   9.597
97266SOL     OW93636   7.459  13.135  12.796
97266SOL    HW193637   7.541  13.087  12.791
97266SOL    HW293638   7.484  13.224  12.820
97267SOL     OW93639  10.324  10.626  14.001
97267SOL    HW193640  10.395  10.631  14.065
97267SOL    HW293641  10.311  10.716  13.973
97268SOL     OW93642   8.855  14.492  10.306
97268SOL    HW193643   8.881  14.514  10.216
97268SOL    HW293644   8.773  14.445  10.296
97269SOL     OW93645   4.715  11.963   2.000
97269SOL    HW193646   4.659  11.893   1.964
97269SOL    HW293647   4.707  12.035   1.937
97270SOL     OW93648   7.909  13.330   4.891
97270SOL    HW193649   7.894  13.334   4.986
97270SOL    HW293650   7.995  13.370   4.879
97271SOL     OW93651  13.919  13.959   3.074
97271SOL    HW193652  14.012  13.958   3.097
97271SOL    HW293653  13.898  13.868   3.051
97272SOL     OW93654   3.588   2.519   3.308
97272SOL    HW193655   3.576   2.438   3.260
97272SOL    HW293656   3.502   2.536   3.348
97273SOL     OW93657  12.978   9.610  12.873
97273SOL    HW193658  13.063   9.604  12.918
97273SOL    HW293659  12.959   9.520  12.846
97274SOL     OW93660   0.978  10.356   9.965
97274SOL    HW193661   1.035  10.279   9.960
97274SOL    HW293662   1.003  10.400  10.046
97275SOL     OW93663   9.808   7.402   1.936
97275SOL    HW193664   9.760   7.366   2.010
97275SOL    HW293665   9.784   7.346   1.862
97276SOL     OW93666   1.924   9.185   2.002
97276SOL    HW193667   1.961   9.268   2.033
97276SOL    HW293668   1.839   9.209   1.966
97277SOL     OW93669  11.185  14.600   5.988
97277SOL    HW193670  11.268  14.557   5.968
97277SOL    HW293671  11.132  14.532   6.031
97278SOL     OW93672  13.406   3.048   3.714
97278SOL    HW193673  13.465   2.978   3.741
97278SOL    HW293674  13.446   3.128   3.747
97279SOL     OW93675   6.954   2.666  10.317
97279SOL    HW193676   7.011   2.596  10.283
97279SOL    HW293677   6.869   2.623  10.330
97280SOL     OW93678   9.978  11.574   2.445
97280SOL    HW193679  10.018  11.613   2.368
97280SOL    HW293680   9.884  11.577   2.428
97281SOL     OW93681   0.618   7.443  11.129
97281SOL    HW193682   0.597   7.445  11.222
97281SOL    HW293683   0.568   7.369  11.095
97282SOL     OW93684   3.093  12.793   4.199
97282SOL    HW193685   3.099  12.757   4.287
97282SOL    HW293686   3.184  12.802   4.171
97283SOL     OW93687  11.895  10.634   8.762
97283SOL    HW193688  11.823  10.649   8.701
97283SOL    HW293689  11.888  10.542   8.786
97284SOL     OW93690  12.758   6.638   5.947
97284SOL    HW193691  12.690   6.608   5.886
97284SOL    HW293692  12.709   6.677   6.020
97285SOL     OW93693   9.165   3.308   7.978
97285SOL    HW193694   9.097   3.373   7.962
97285SOL    HW293695   9.212   3.340   8.055
97286SOL     OW93696   6.058   3.246   1.499
97286SOL    HW193697   6.078   3.159   1.534
97286SOL    HW293698   6.128   3.262   1.436
97287SOL     OW93699   2.417  10.658   5.378
97287SOL    HW193700   2.511  10.669   5.392
97287SOL    HW293701   2.375  10.705   5.450
97288SOL     OW93702   8.683   5.846   4.612
97288SOL    HW193703   8.679   5.866   4.519
97288SOL    HW293704   8.592   5.840   4.641
97289SOL     OW93705  11.447   1.945  11.450
97289SOL    HW193706  11.394   2.018  11.418
97289SOL    HW293707  11.383   1.875  11.468
97290SOL     OW93708   7.867   2.541  10.755
97290SOL    HW193709   7.862   2.622  10.706
97290SOL    HW293710   7.954   2.541  10.795
97291SOL     OW93711   8.019   5.482   8.742
97291SOL    HW193712   8.098   5.526   8.711
97291SOL    HW293713   7.997   5.420   8.673
97292SOL     OW93714   8.325  10.943   3.872
97292SOL    HW193715   8.248  10.939   3.928
97292SOL    HW293716   8.383  10.874   3.907
97293SOL     OW93717   2.873   0.599   6.409
97293SOL    HW193718   2.862   0.654   6.332
97293SOL    HW293719   2.894   0.513   6.374
97294SOL     OW93720   7.108   8.779   1.848
97294SOL    HW193721   7.151   8.694   1.851
97294SOL    HW293722   7.015   8.759   1.861
97295SOL     OW93723  12.109   0.294  10.535
97295SOL    HW193724  12.164   0.366  10.504
97295SOL    HW293725  12.151   0.264  10.616
97296SOL     OW93726   8.937   9.024   2.109
97296SOL    HW193727   9.001   8.954   2.122
97296SOL    HW293728   8.974   9.078   2.039
97297SOL     OW93729   1.627   9.017   1.538
97297SOL    HW193730   1.540   9.043   1.570
97297SOL    HW293731   1.669   8.975   1.613
97298SOL     OW93732   9.469  12.981   1.685
97298SOL    HW193733   9.506  12.976   1.773
97298SOL    HW293734   9.530  12.930   1.631
97299SOL     OW93735   2.690   7.393   8.803
97299SOL    HW193736   2.749   7.461   8.771
97299SOL    HW293737   2.742   7.312   8.798
97300SOL     OW93738   7.032   1.888   5.540
97300SOL    HW193739   7.074   1.896   5.454
97300SOL    HW293740   6.939   1.878   5.520
97301SOL     OW93741   0.251   7.653  13.490
97301SOL    HW193742   0.185   7.615  13.431
97301SOL    HW293743   0.234   7.747  13.489
97302SOL     OW93744  10.736  13.820  10.258
97302SOL    HW193745  10.687  13.752  10.303
97302SOL    HW293746  10.744  13.891  10.322
97303SOL     OW93747   3.256   1.083   9.561
97303SOL    HW193748   3.223   1.172   9.545
97303SOL    HW293749   3.345   1.084   9.527
97304SOL     OW93750   2.185   4.713   8.708
97304SOL    HW193751   2.105   4.690   8.661
97304SOL    HW293752   2.253   4.660   8.666
97305SOL     OW93753   4.223   6.917   9.168
97305SOL    HW193754   4.154   6.967   9.126
97305SOL    HW293755   4.297   6.923   9.109
97306SOL     OW93756   8.496  14.573   5.093
97306SOL    HW193757   8.559  14.623   5.145
97306SOL    HW293758   8.440  14.639   5.053
97307SOL     OW93759   2.305   7.672   7.234
97307SOL    HW193760   2.276   7.747   7.183
97307SOL    HW293761   2.286   7.596   7.179
97308SOL     OW93762   9.543  14.162   4.504
97308SOL    HW193763   9.592  14.082   4.484
97308SOL    HW293764   9.551  14.216   4.425
97309SOL     OW93765   9.936   5.139   7.367
97309SOL    HW193766   9.976   5.089   7.295
97309SOL    HW293767   9.857   5.177   7.327
97310SOL     OW93768   7.711  10.095   5.805
97310SOL    HW193769   7.714  10.152   5.729
97310SOL    HW293770   7.679  10.011   5.771
97311SOL     OW93771   0.674   2.809  13.830
97311SOL    HW193772   0.615   2.810  13.905
97311SOL    HW293773   0.723   2.727  13.839
97312SOL     OW93774   3.538   6.416   3.727
97312SOL    HW193775   3.615   6.473   3.719
97312SOL    HW293776   3.499   6.441   3.811
97313SOL     OW93777   6.937   8.522   7.441
97313SOL    HW193778   6.912   8.436   7.407
97313SOL    HW293779   7.022   8.508   7.482
97314SOL     OW93780  12.252  10.864   5.454
97314SOL    HW193781  12.335  10.859   5.503
97314SOL    HW293782  12.221  10.774   5.450
97315SOL     OW93783   3.073  11.788   2.565
97315SOL    HW193784   3.015  11.715   2.586
97315SOL    HW293785   3.014  11.858   2.537
97316SOL     OW93786   4.237  14.238  12.325
97316SOL    HW193787   4.211  14.178  12.394
97316SOL    HW293788   4.245  14.182  12.247
97317SOL     OW93789   2.257   1.320   7.030
97317SOL    HW193790   2.302   1.310   6.946
97317SOL    HW293791   2.211   1.404   7.023
97318SOL     OW93792   2.108  13.065   3.824
97318SOL    HW193793   2.123  12.972   3.842
97318SOL    HW293794   2.182  13.091   3.769
97319SOL     OW93795   7.214   2.309  14.194
97319SOL    HW193796   7.297   2.287  14.151
97319SOL    HW293797   7.176   2.377  14.138
97320SOL     OW93798  11.027  11.478   6.332
97320SOL    HW193799  11.001  11.430   6.253
97320SOL    HW293800  11.014  11.570   6.310
97321SOL     OW93801   1.536  14.710   4.468
97321SOL    HW193802   1.442  14.698   4.462
97321SOL    HW293803   1.573  14.627   4.439
97322SOL     OW93804  13.341   2.271   3.052
97322SOL    HW193805  13.371   2.216   2.979
97322SOL    HW293806  13.305   2.349   3.009
97323SOL     OW93807   4.861  11.649   1.423
97323SOL    HW193808   4.886  11.688   1.339
97323SOL    HW293809   4.788  11.591   1.401
97324SOL     OW93810   1.314   9.065  13.140
97324SOL    HW193811   1.275   9.053  13.053
97324SOL    HW293812   1.369   9.143  13.131
97325SOL     OW93813  10.533  14.826   7.486
97325SOL    HW193814  10.573  14.838   7.400
97325SOL    HW293815  10.590  14.764   7.531
97326SOL     OW93816   9.012   9.237   4.406
97326SOL    HW193817   8.941   9.301   4.400
97326SOL    HW293818   8.991   9.185   4.483
97327SOL     OW93819   7.824  14.482   9.636
97327SOL    HW193820   7.870  14.438   9.708
97327SOL    HW293821   7.751  14.527   9.678
97328SOL     OW93822   6.859   2.071   4.847
97328SOL    HW193823   6.782   2.029   4.809
97328SOL    HW293824   6.825   2.118   4.923
97329SOL     OW93825   8.003   4.393   7.276
97329SOL    HW193826   7.946   4.319   7.298
97329SOL    HW293827   8.056   4.360   7.202
97330SOL     OW93828   1.998   9.004  11.039
97330SOL    HW193829   2.000   8.930  10.977
97330SOL    HW293830   1.927   8.983  11.099
97331SOL     OW93831   2.648   3.566   8.575
97331SOL    HW193832   2.605   3.494   8.529
97331SOL    HW293833   2.688   3.618   8.505
97332SOL     OW93834  12.384   1.603  13.341
97332SOL    HW193835  12.446   1.544  13.299
97332SOL    HW293836  12.304   1.596  13.288
97333SOL     OW93837   4.406  10.190  13.637
97333SOL    HW193838   4.337  10.147  13.688
97333SOL    HW293839   4.446  10.121  13.586
97334SOL     OW93840  11.006   8.410   6.955
97334SOL    HW193841  10.929   8.404   6.900
97334SOL    HW293842  10.979   8.466   7.028
97335SOL     OW93843  13.504   9.903   7.177
97335SOL    HW193844  13.495   9.956   7.099
97335SOL    HW293845  13.546   9.822   7.147
97336SOL     OW93846  13.110   3.107   7.852
97336SOL    HW193847  13.036   3.112   7.912
97336SOL    HW293848  13.141   3.197   7.845
97337SOL     OW93849  14.739  13.102  10.934
97337SOL    HW193850  14.804  13.164  10.967
97337SOL    HW293851  14.686  13.152  10.873
97338SOL     OW93852   9.427   0.170   7.541
97338SOL    HW193853   9.372   0.091   7.546
97338SOL    HW293854   9.439   0.184   7.447
97339SOL     OW93855   0.798   8.867   3.493
97339SOL    HW193856   0.796   8.771   3.485
97339SOL    HW293857   0.872   8.884   3.552
97340SOL     OW93858   9.180   3.057   0.545
97340SOL    HW193859   9.179   3.148   0.515
97340SOL    HW293860   9.267   3.025   0.520
97341SOL     OW93861   7.500  10.954   0.136
97341SOL    HW193862   7.496  11.049   0.138
97341SOL    HW293863   7.581  10.934   0.088
97342SOL     OW93864   5.594   6.585   1.826
97342SOL    HW193865   5.551   6.502   1.804
97342SOL    HW293866   5.540   6.623   1.895
97343SOL     OW93867   6.732   9.437  10.696
97343SOL    HW193868   6.734   9.512  10.638
97343SOL    HW293869   6.679   9.465  10.771
97344SOL     OW93870   2.627   1.279   6.363
97344SOL    HW193871   2.536   1.250   6.367
97344SOL    HW293872   2.670   1.234   6.436
97345SOL     OW93873  12.373   7.633   7.981
97345SOL    HW193874  12.378   7.552   7.930
97345SOL    HW293875  12.397   7.702   7.919
97346SOL     OW93876   5.442   3.190   4.722
97346SOL    HW193877   5.366   3.200   4.664
97346SOL    HW293878   5.443   3.271   4.773
97347SOL     OW93879  11.497   9.998   0.211
97347SOL    HW193880  11.431  10.066   0.196
97347SOL    HW293881  11.560  10.038   0.270
97348SOL     OW93882  14.655  14.248   2.520
97348SOL    HW193883  14.743  14.217   2.539
97348SOL    HW293884  14.598  14.193   2.574
97349SOL     OW93885   5.020   4.757   0.342
97349SOL    HW193886   4.957   4.827   0.323
97349SOL    HW293887   5.037   4.716   0.258
97350SOL     OW93888   0.397   4.193  10.469
97350SOL    HW193889   0.452   4.264  10.500
97350SOL    HW293890   0.354   4.159  10.548
97351SOL     OW93891   7.659   6.727   3.481
97351SOL    HW193892   7.698   6.657   3.430
97351SOL    HW293893   7.619   6.683   3.556
97352SOL     OW93894   7.097   2.768  14.639
97352SOL    HW193895   7.070   2.847  14.686
97352SOL    HW293896   7.017   2.737  14.596
97353SOL     OW93897   2.910   5.362   0.136
97353SOL    HW193898   2.966   5.433   0.107
97353SOL    HW293899   2.893   5.311   0.057
97354SOL     OW93900   8.181   4.766   6.701
97354SOL    HW193901   8.260   4.806   6.738
97354SOL    HW293902   8.122   4.840   6.686
97355SOL     OW93903  14.263  11.153   2.759
97355SOL    HW193904  14.315  11.215   2.707
97355SOL    HW293905  14.328  11.097   2.801
97356SOL     OW93906   4.554   9.641   6.713
97356SOL    HW193907   4.570   9.699   6.787
97356SOL    HW293908   4.574   9.553   6.745
97357SOL     OW93909   7.459  10.568   6.143
97357SOL    HW193910   7.511  10.557   6.222
97357SOL    HW293911   7.521  10.602   6.078
97358SOL     OW93912   7.129   2.028   8.639
97358SOL    HW193913   7.082   1.948   8.617
97358SOL    HW293914   7.218   2.000   8.658
97359SOL     OW93915  13.006  12.191  13.186
97359SOL    HW193916  13.040  12.260  13.243
97359SOL    HW293917  13.063  12.116  13.204
97360SOL     OW93918   6.226   5.898  11.655
97360SOL    HW193919   6.159   5.941  11.708
97360SOL    HW293920   6.299   5.884  11.716
97361SOL     OW93921   3.616   3.445   6.155
97361SOL    HW193922   3.653   3.532   6.167
97361SOL    HW293923   3.540   3.444   6.214
97362SOL     OW93924   6.324   2.092  14.532
97362SOL    HW193925   6.404   2.073  14.482
97362SOL    HW293926   6.298   2.180  14.502
97363SOL     OW93927  14.837   6.442   9.913
97363SOL    HW193928  14.870   6.510   9.973
97363SOL    HW293929   0.022   6.368   9.926
97364SOL     OW93930   8.837   1.290   9.034
97364SOL    HW193931   8.759   1.327   8.992
97364SOL    HW293932   8.822   1.301   9.127
97365SOL     OW93933   4.611   4.566   2.930
97365SOL    HW193934   4.590   4.571   3.023
97365SOL    HW293935   4.528   4.578   2.885
97366SOL     OW93936  14.274  11.391   9.330
97366SOL    HW193937  14.263  11.477   9.372
97366SOL    HW293938  14.198  11.341   9.358
97367SOL     OW93939  10.791  12.039   3.490
97367SOL    HW193940  10.842  12.019   3.411
97367SOL    HW293941  10.701  12.046   3.458
97368SOL     OW93942  11.256  11.797  11.116
97368SOL    HW193943  11.251  11.832  11.027
97368SOL    HW293944  11.196  11.723  11.116
97369SOL     OW93945   5.689   8.721   6.677
97369SOL    HW193946   5.775   8.689   6.649
97369SOL    HW293947   5.694   8.816   6.665
97370SOL     OW93948   6.290   3.390   8.439
97370SOL    HW193949   6.287   3.486   8.438
97370SOL    HW293950   6.253   3.364   8.355
97371SOL     OW93951  14.769  10.718  10.693
97371SOL    HW193952  14.779  10.624  10.710
97371SOL    HW293953  14.829  10.760  10.755
97372SOL     OW93954   4.897   0.497   4.547
97372SOL    HW193955   4.956   0.568   4.522
97372SOL    HW293956   4.830   0.539   4.601
97373SOL     OW93957   3.465  10.792   5.788
97373SOL    HW193958   3.506  10.867   5.745
97373SOL    HW293959   3.397  10.763   5.726
97374SOL     OW93960  13.982   9.135   8.002
97374SOL    HW193961  13.984   9.228   7.977
97374SOL    HW293962  13.953   9.136   8.093
97375SOL     OW93963   6.748   7.103   6.201
97375SOL    HW193964   6.720   7.182   6.155
97375SOL    HW293965   6.835   7.124   6.235
97376SOL     OW93966  14.528   5.131   9.840
97376SOL    HW193967  14.438   5.099   9.850
97376SOL    HW293968  14.527   5.177   9.756
97377SOL     OW93969  12.402   8.342   0.253
97377SOL    HW193970  12.394   8.437   0.264
97377SOL    HW293971  12.354   8.305   0.328
97378SOL     OW93972   8.391  10.685   5.875
97378SOL    HW193973   8.415  10.776   5.895
97378SOL    HW293974   8.474  10.637   5.876
97379SOL     OW93975  12.393  10.225   6.282
97379SOL    HW193976  12.447  10.146   6.283
97379SOL    HW293977  12.415  10.271   6.362
97380SOL     OW93978   1.070   7.999   5.004
97380SOL    HW193979   1.106   7.919   4.965
97380SOL    HW293980   0.982   7.973   5.034
97381SOL     OW93981   0.975  11.446   0.276
97381SOL    HW193982   0.918  11.434   0.352
97381SOL    HW293983   1.056  11.401   0.300
97382SOL     OW93984   3.044  11.740  14.387
97382SOL    HW193985   3.128  11.758  14.429
97382SOL    HW293986   2.979  11.764  14.453
97383SOL     OW93987   5.459   4.334  10.069
97383SOL    HW193988   5.369   4.344  10.101
97383SOL    HW293989   5.512   4.381  10.133
97384SOL     OW93990   0.704  13.207   9.949
97384SOL    HW193991   0.795  13.211   9.922
97384SOL    HW293992   0.691  13.116   9.978
97385SOL     OW93993  11.153   8.714   3.099
97385SOL    HW193994  11.151   8.618   3.106
97385SOL    HW293995  11.062   8.738   3.080
97386SOL     OW93996  11.438   7.439   3.386
97386SOL    HW193997  11.519   7.403   3.423
97386SOL    HW293998  11.386   7.362   3.362
97387SOL     OW93999  12.528  14.329   3.779
97387SOL    HW194000  12.476  14.314   3.700
97387SOL    HW294001  12.528  14.245   3.824
97388SOL     OW94002  13.270   0.043   9.987
97388SOL    HW194003  13.358   0.066   9.957
97388SOL    HW294004  13.281   0.025  10.080
97389SOL     OW94005   7.407   9.734  11.924
97389SOL    HW194006   7.405   9.679  11.845
97389SOL    HW294007   7.364   9.680  11.991
97390SOL     OW94008   9.180  11.780   1.805
97390SOL    HW194009   9.231  11.716   1.755
97390SOL    HW294010   9.172  11.856   1.748
97391SOL     OW94011  10.226   0.477  12.252
97391SOL    HW194012  10.270   0.393  12.265
97391SOL    HW294013  10.175   0.490  12.332
97392SOL     OW94014   4.061  10.868   8.905
97392SOL    HW194015   4.111  10.801   8.859
97392SOL    HW294016   4.093  10.951   8.870
97393SOL     OW94017  14.284  13.613   9.410
97393SOL    HW194018  14.311  13.585   9.497
97393SOL    HW294019  14.283  13.708   9.414
97394SOL     OW94020   1.860  12.800   5.516
97394SOL    HW194021   1.933  12.760   5.564
97394SOL    HW294022   1.886  12.891   5.505
97395SOL     OW94023   5.656   4.293   4.018
97395SOL    HW194024   5.722   4.282   3.949
97395SOL    HW294025   5.574   4.300   3.970
97396SOL     OW94026  13.551   4.982   3.087
97396SOL    HW194027  13.607   4.996   3.011
97396SOL    HW294028  13.463   4.973   3.051
97397SOL     OW94029   5.530   8.731   7.534
97397SOL    HW194030   5.589   8.796   7.572
97397SOL    HW294031   5.459   8.782   7.496
97398SOL     OW94032  13.461   0.190   4.565
97398SOL    HW194033  13.553   0.172   4.583
97398SOL    HW294034  13.417   0.107   4.584
97399SOL     OW94035   5.850  13.863   3.492
97399SOL    HW194036   5.784  13.887   3.557
97399SOL    HW294037   5.865  13.944   3.442
97400SOL     OW94038   6.314  10.287   1.861
97400SOL    HW194039   6.236  10.319   1.816
97400SOL    HW294040   6.365  10.366   1.879
97401SOL     OW94041  14.156   0.967   9.364
97401SOL    HW194042  14.078   0.988   9.414
97401SOL    HW294043  14.124   0.929   9.282
97402SOL     OW94044  10.067  12.524  12.616
97402SOL    HW194045  10.029  12.438  12.602
97402SOL    HW294046  10.116  12.516  12.698
97403SOL     OW94047   9.963   6.703   2.873
97403SOL    HW194048  10.025   6.741   2.811
97403SOL    HW294049   9.878   6.739   2.848
97404SOL     OW94050   5.896   0.390   4.335
97404SOL    HW194051   5.936   0.387   4.421
97404SOL    HW294052   5.804   0.366   4.350
97405SOL     OW94053   2.919   1.473   9.345
97405SOL    HW194054   2.832   1.504   9.320
97405SOL    HW294055   2.935   1.398   9.289
97406SOL     OW94056  10.215  11.262   0.151
97406SOL    HW194057  10.216  11.235   0.059
97406SOL    HW294058  10.170  11.191   0.196
97407SOL     OW94059   6.940   7.494   9.801
97407SOL    HW194060   7.034   7.490   9.815
97407SOL    HW294061   6.904   7.523   9.885
97408SOL     OW94062   3.046  10.846  12.542
97408SOL    HW194063   3.103  10.804  12.607
97408SOL    HW294064   3.056  10.940  12.559
97409SOL     OW94065   1.942   9.440   7.357
97409SOL    HW194066   1.887   9.468   7.429
97409SOL    HW294067   1.946   9.344   7.366
97410SOL     OW94068   2.501  13.292   6.752
97410SOL    HW194069   2.540  13.213   6.714
97410SOL    HW294070   2.524  13.362   6.690
97411SOL     OW94071   0.891   1.054  14.318
97411SOL    HW194072   0.953   1.059  14.245
97411SOL    HW294073   0.926   1.116  14.383
97412SOL     OW94074  13.957   0.266   4.793
97412SOL    HW194075  14.049   0.238   4.797
97412SOL    HW294076  13.945   0.320   4.870
97413SOL     OW94077  14.684  12.657   2.304
97413SOL    HW194078  14.676  12.635   2.397
97413SOL    HW294079  14.719  12.746   2.304
97414SOL     OW94080   1.813   9.643   8.183
97414SOL    HW194081   1.769   9.558   8.186
97414SOL    HW294082   1.817   9.671   8.275
97415SOL     OW94083  14.239   5.727   6.561
97415SOL    HW194084  14.259   5.655   6.621
97415SOL    HW294085  14.153   5.759   6.589
97416SOL     OW94086  11.669   6.457  12.699
97416SOL    HW194087  11.589   6.424  12.741
97416SOL    HW294088  11.723   6.489  12.771
97417SOL     OW94089  11.339   9.841  12.812
97417SOL    HW194090  11.316   9.835  12.905
97417SOL    HW294091  11.426   9.800  12.806
97418SOL     OW94092  12.237   9.681   1.251
97418SOL    HW194093  12.230   9.716   1.162
97418SOL    HW294094  12.243   9.758   1.307
97419SOL     OW94095  10.463  14.098   0.726
97419SOL    HW194096  10.372  14.115   0.702
97419SOL    HW294097  10.512  14.172   0.690
97420SOL     OW94098   3.757   2.712   1.101
97420SOL    HW194099   3.806   2.773   1.156
97420SOL    HW294100   3.699   2.667   1.162
97421SOL     OW94101  10.600   2.432  12.586
97421SOL    HW194102  10.689   2.423  12.621
97421SOL    HW294103  10.556   2.492  12.646
97422SOL     OW94104   9.992  11.310  10.218
97422SOL    HW194105  10.064  11.247  10.219
97422SOL    HW294106   9.917  11.260  10.184
97423SOL     OW94107  11.672  14.032   3.779
97423SOL    HW194108  11.597  13.978   3.803
97423SOL    HW294109  11.649  14.120   3.809
97424SOL     OW94110   6.595   1.648  12.413
97424SOL    HW194111   6.549   1.570  12.443
97424SOL    HW294112   6.630   1.687  12.492
97425SOL     OW94113   5.051   5.480  14.563
97425SOL    HW194114   5.085   5.399  14.527
97425SOL    HW294115   5.085   5.548  14.505
97426SOL     OW94116   3.511   2.308   4.288
97426SOL    HW194117   3.534   2.216   4.300
97426SOL    HW294118   3.533   2.349   4.372
97427SOL     OW94119   0.888  12.680   7.037
97427SOL    HW194120   0.802  12.682   7.079
97427SOL    HW294121   0.872  12.644   6.950
97428SOL     OW94122   1.925   0.672   6.063
97428SOL    HW194123   1.843   0.640   6.099
97428SOL    HW294124   1.931   0.763   6.094
97429SOL     OW94125   9.754  10.925   1.104
97429SOL    HW194126   9.682  10.871   1.072
97429SOL    HW294127   9.772  10.891   1.192
97430SOL     OW94128   5.164  11.352   2.865
97430SOL    HW194129   5.124  11.350   2.778
97430SOL    HW294130   5.198  11.441   2.875
97431SOL     OW94131   2.469  11.622   8.156
97431SOL    HW194132   2.441  11.585   8.239
97431SOL    HW294133   2.533  11.689   8.180
97432SOL     OW94134  10.052   3.368   4.601
97432SOL    HW194135  10.093   3.449   4.629
97432SOL    HW294136  10.122   3.317   4.560
97433SOL     OW94137  12.233  11.048   7.131
97433SOL    HW194138  12.290  10.983   7.171
97433SOL    HW294139  12.254  11.129   7.177
97434SOL     OW94140   8.560   7.715  14.735
97434SOL    HW194141   8.653   7.715  14.757
97434SOL    HW294142   8.521   7.652  14.796
97435SOL     OW94143   6.194  11.806   8.787
97435SOL    HW194144   6.140  11.853   8.723
97435SOL    HW294145   6.280  11.848   8.781
97436SOL     OW94146  14.856   0.562   3.553
97436SOL    HW194147  14.763   0.553   3.573
97436SOL    HW294148  14.863   0.546   3.459
97437SOL     OW94149  11.248   6.218   4.964
97437SOL    HW194150  11.343   6.220   4.954
97437SOL    HW294151  11.225   6.125   4.954
97438SOL     OW94152   5.940   1.130   2.855
97438SOL    HW194153   6.023   1.174   2.874
97438SOL    HW294154   5.940   1.053   2.910
97439SOL     OW94155  13.837   7.611   2.509
97439SOL    HW194156  13.773   7.617   2.438
97439SOL    HW294157  13.922   7.606   2.464
97440SOL     OW94158   2.613   9.601  13.020
97440SOL    HW194159   2.547   9.565  13.078
97440SOL    HW294160   2.677   9.642  13.079
97441SOL     OW94161   4.867   6.050   1.592
97441SOL    HW194162   4.855   6.101   1.673
97441SOL    HW294163   4.805   5.978   1.600
97442SOL     OW94164   6.033  10.208   5.980
97442SOL    HW194165   5.988  10.216   5.896
97442SOL    HW294166   6.088  10.130   5.971
97443SOL     OW94167  13.256   3.831   7.262
97443SOL    HW194168  13.185   3.882   7.299
97443SOL    HW294169  13.306   3.801   7.338
97444SOL     OW94170   7.831  13.869   4.432
97444SOL    HW194171   7.850  13.789   4.482
97444SOL    HW294172   7.907  13.880   4.375
97445SOL     OW94173   9.094  14.813  14.761
97445SOL    HW194174   9.042  14.803  14.681
97445SOL    HW294175   9.145  14.732  14.767
97446SOL     OW94176   8.263  13.162  11.909
97446SOL    HW194177   8.259  13.149  12.004
97446SOL    HW294178   8.205  13.237  11.893
97447SOL     OW94179  11.125   7.775  12.264
97447SOL    HW194180  11.032   7.788  12.243
97447SOL    HW294181  11.171   7.834  12.205
97448SOL     OW94182   1.621   9.492   2.534
97448SOL    HW194183   1.534   9.453   2.538
97448SOL    HW294184   1.628   9.544   2.613
97449SOL     OW94185   5.030   3.256   4.110
97449SOL    HW194186   5.124   3.273   4.111
97449SOL    HW294187   5.008   3.235   4.201
97450SOL     OW94188   1.207   4.101  11.439
97450SOL    HW194189   1.270   4.114  11.509
97450SOL    HW294190   1.216   4.008  11.416
97451SOL     OW94191   6.651   7.333   5.757
97451SOL    HW194192   6.577   7.393   5.755
97451SOL    HW294193   6.708   7.363   5.686
97452SOL     OW94194  13.489   6.387   7.542
97452SOL    HW194195  13.493   6.295   7.514
97452SOL    HW294196  13.396   6.403   7.557
97453SOL     OW94197   4.850   1.821   2.459
97453SOL    HW194198   4.907   1.880   2.508
97453SOL    HW294199   4.873   1.734   2.490
97454SOL     OW94200   5.764   2.060   0.465
97454SOL    HW194201   5.699   2.112   0.512
97454SOL    HW294202   5.847   2.104   0.483
97455SOL     OW94203   1.774   7.418   2.609
97455SOL    HW194204   1.786   7.324   2.625
97455SOL    HW294205   1.765   7.455   2.697
97456SOL     OW94206   6.310   4.133   0.897
97456SOL    HW194207   6.300   4.081   0.977
97456SOL    HW294208   6.303   4.224   0.926
97457SOL     OW94209   5.481   3.731   3.631
97457SOL    HW194210   5.516   3.643   3.647
97457SOL    HW294211   5.510   3.752   3.543
97458SOL     OW94212   4.671   6.688   0.879
97458SOL    HW194213   4.662   6.657   0.969
97458SOL    HW294214   4.757   6.657   0.850
97459SOL     OW94215  14.653   3.415   9.378
97459SOL    HW194216  14.707   3.370   9.313
97459SOL    HW294217  14.674   3.508   9.365
97460SOL     OW94218   1.986   3.209   0.896
97460SOL    HW194219   2.052   3.244   0.837
97460SOL    HW294220   2.001   3.114   0.896
97461SOL     OW94221   0.046   8.056   2.668
97461SOL    HW194222   0.085   8.056   2.756
97461SOL    HW294223   0.038   7.963   2.646
97462SOL     OW94224   7.895   8.347   1.702
97462SOL    HW194225   7.974   8.363   1.754
97462SOL    HW294226   7.876   8.431   1.661
97463SOL     OW94227  10.816   7.646   9.954
97463SOL    HW194228  10.855   7.689   9.878
97463SOL    HW294229  10.823   7.711  10.024
97464SOL     OW94230  13.474   8.529  11.131
97464SOL    HW194231  13.560   8.567  11.116
97464SOL    HW294232  13.436   8.582  11.200
97465SOL     OW94233   4.746   3.287   3.855
97465SOL    HW194234   4.816   3.254   3.912
97465SOL    HW294235   4.778   3.272   3.766
97466SOL     OW94236   0.584   9.304   9.378
97466SOL    HW194237   0.603   9.221   9.334
97466SOL    HW294238   0.540   9.278   9.460
97467SOL     OW94239  12.816   1.526  11.032
97467SOL    HW194240  12.811   1.550  11.125
97467SOL    HW294241  12.877   1.590  10.994
97468SOL     OW94242   9.233   2.466   1.558
97468SOL    HW194243   9.266   2.434   1.474
97468SOL    HW294244   9.285   2.420   1.623
97469SOL     OW94245   0.564  10.467   3.772
97469SOL    HW194246   0.624  10.540   3.788
97469SOL    HW294247   0.498  10.502   3.712
97470SOL     OW94248   5.453   5.136   3.261
97470SOL    HW194249   5.476   5.195   3.190
97470SOL    HW294250   5.503   5.056   3.244
97471SOL     OW94251  11.684   3.521  10.864
97471SOL    HW194252  11.717   3.445  10.816
97471SOL    HW294253  11.752   3.588  10.851
97472SOL     OW94254   4.786   2.279  13.444
97472SOL    HW194255   4.847   2.325  13.501
97472SOL    HW294256   4.823   2.287  13.356
97473SOL     OW94257   3.097   1.995   4.173
97473SOL    HW194258   3.077   2.086   4.149
97473SOL    HW294259   3.032   1.943   4.125
97474SOL     OW94260   4.545   7.789  11.088
97474SOL    HW194261   4.605   7.726  11.128
97474SOL    HW294262   4.565   7.786  10.994
97475SOL     OW94263   9.115   8.618  10.454
97475SOL    HW194264   9.121   8.577  10.367
97475SOL    HW294265   9.097   8.710  10.436
97476SOL     OW94266   1.626   8.023   0.947
97476SOL    HW194267   1.640   8.107   0.989
97476SOL    HW294268   1.624   8.043   0.854
97477SOL     OW94269  12.922   1.484   0.673
97477SOL    HW194270  12.881   1.545   0.612
97477SOL    HW294271  12.851   1.425   0.699
97478SOL     OW94272   6.745   4.530   0.278
97478SOL    HW194273   6.813   4.597   0.278
97478SOL    HW294274   6.666   4.576   0.250
97479SOL     OW94275   1.343   3.194   7.637
97479SOL    HW194276   1.417   3.220   7.691
97479SOL    HW294277   1.276   3.165   7.699
97480SOL     OW94278   0.074  11.997  14.464
97480SOL    HW194279   0.101  12.089  14.475
97480SOL    HW294280  14.857  12.002  14.437
97481SOL     OW94281  14.144  12.698   6.922
97481SOL    HW194282  14.123  12.742   6.839
97481SOL    HW294283  14.230  12.733   6.946
97482SOL     OW94284   0.471   6.514  13.102
97482SOL    HW194285   0.435   6.512  13.191
97482SOL    HW294286   0.485   6.607  13.084
97483SOL     OW94287   6.554   7.573   7.438
97483SOL    HW194288   6.610   7.568   7.516
97483SOL    HW294289   6.495   7.646   7.456
97484SOL     OW94290   5.009   8.038   7.511
97484SOL    HW194291   5.056   8.110   7.470
97484SOL    HW294292   4.917   8.052   7.486
97485SOL     OW94293   3.157  12.745   7.450
97485SOL    HW194294   3.229  12.733   7.512
97485SOL    HW294295   3.078  12.728   7.501
97486SOL     OW94296   8.959  12.987   9.732
97486SOL    HW194297   8.868  12.972   9.760
97486SOL    HW294298   8.975  13.079   9.752
97487SOL     OW94299   2.650   4.164   5.467
97487SOL    HW194300   2.626   4.247   5.426
97487SOL    HW294301   2.649   4.182   5.561
97488SOL     OW94302   3.937  14.143   2.678
97488SOL    HW194303   3.962  14.090   2.754
97488SOL    HW294304   3.969  14.231   2.698
97489SOL     OW94305  12.534   0.283  12.754
97489SOL    HW194306  12.503   0.284  12.663
97489SOL    HW294307  12.462   0.245  12.803
97490SOL     OW94308   9.331   3.822   6.683
97490SOL    HW194309   9.298   3.837   6.772
97490SOL    HW294310   9.404   3.761   6.695
97491SOL     OW94311   2.248  14.107   1.841
97491SOL    HW194312   2.162  14.087   1.804
97491SOL    HW294313   2.306  14.110   1.765
97492SOL     OW94314  13.272   3.941  12.133
97492SOL    HW194315  13.285   3.846  12.132
97492SOL    HW294316  13.228   3.960  12.051
97493SOL     OW94317  14.420  12.471  13.117
97493SOL    HW194318  14.396  12.438  13.203
97493SOL    HW294319  14.393  12.403  13.056
97494SOL     OW94320  13.897   1.861   2.229
97494SOL    HW194321  13.814   1.908   2.218
97494SOL    HW294322  13.965   1.925   2.207
97495SOL     OW94323   4.443  10.717   7.297
97495SOL    HW194324   4.440  10.708   7.392
97495SOL    HW294325   4.527  10.677   7.272
97496SOL     OW94326   7.491   3.039   7.544
97496SOL    HW194327   7.513   3.110   7.604
97496SOL    HW294328   7.464   3.082   7.463
97497SOL     OW94329   8.581   4.190  14.451
97497SOL    HW194330   8.608   4.161  14.364
97497SOL    HW294331   8.630   4.271  14.465
97498SOL     OW94332  10.904  11.276   2.528
97498SOL    HW194333  10.984  11.240   2.566
97498SOL    HW294334  10.913  11.370   2.540
97499SOL     OW94335   3.252  14.770   7.288
97499SOL    HW194336   3.336  14.802   7.255
97499SOL    HW294337   3.250  14.678   7.263
97500SOL     OW94338  14.192  10.881   2.561
97500SOL    HW194339  14.164  10.921   2.479
97500SOL    HW294340  14.273  10.927   2.584
97501SOL     OW94341  12.008   6.412   0.688
97501SOL    HW194342  12.071   6.460   0.633
97501SOL    HW294343  12.059   6.344   0.730
97502SOL     OW94344  10.588   4.242  14.268
97502SOL    HW194345  10.585   4.177  14.198
97502SOL    HW294346  10.600   4.326  14.223
97503SOL     OW94347  13.482   2.284   9.693
97503SOL    HW194348  13.538   2.361   9.701
97503SOL    HW294349  13.482   2.264   9.599
97504SOL     OW94350   0.689  14.597   9.573
97504SOL    HW194351   0.775  14.627   9.544
97504SOL    HW294352   0.689  14.503   9.554
97505SOL     OW94353   4.300   7.534   9.989
97505SOL    HW194354   4.257   7.600  10.044
97505SOL    HW294355   4.275   7.450  10.029
97506SOL     OW94356   1.205   0.862  11.304
97506SOL    HW194357   1.205   0.767  11.303
97506SOL    HW294358   1.271   0.886  11.370
97507SOL     OW94359  11.233   2.713   8.560
97507SOL    HW194360  11.237   2.801   8.524
97507SOL    HW294361  11.154   2.711   8.613
97508SOL     OW94362  14.147  13.115  14.199
97508SOL    HW194363  14.162  13.205  14.169
97508SOL    HW294364  14.176  13.115  14.290
97509SOL     OW94365   7.396   7.551   4.020
97509SOL    HW194366   7.342   7.628   4.039
97509SOL    HW294367   7.405   7.551   3.925
97510SOL     OW94368  13.285   3.906   6.863
97510SOL    HW194369  13.317   3.854   6.789
97510SOL    HW294370  13.209   3.952   6.828
97511SOL     OW94371  13.999   7.472  10.168
97511SOL    HW194372  14.010   7.437  10.256
97511SOL    HW294373  14.082   7.455  10.124
97512SOL     OW94374   3.426   3.996   2.102
97512SOL    HW194375   3.447   3.934   2.172
97512SOL    HW294376   3.474   4.075   2.124
97513SOL     OW94377  14.491  11.119   3.907
97513SOL    HW194378  14.489  11.128   3.812
97513SOL    HW294379  14.585  11.116   3.928
97514SOL     OW94380  12.995   0.714  11.186
97514SOL    HW194381  12.935   0.787  11.175
97514SOL    HW294382  12.981   0.660  11.108
97515SOL     OW94383   2.744   3.613   2.100
97515SOL    HW194384   2.670   3.665   2.130
97515SOL    HW294385   2.706   3.527   2.080
97516SOL     OW94386   9.470   9.883  11.755
97516SOL    HW194387   9.553   9.913  11.793
97516SOL    HW294388   9.405   9.904  11.822
97517SOL     OW94389   8.811   9.629   6.990
97517SOL    HW194390   8.716   9.620   7.000
97517SOL    HW294391   8.844   9.539   6.991
97518SOL     OW94392  11.459  11.972   4.377
97518SOL    HW194393  11.510  11.904   4.334
97518SOL    HW294394  11.509  11.993   4.456
97519SOL     OW94395  13.999   7.260   5.216
97519SOL    HW194396  13.942   7.275   5.291
97519SOL    HW294397  13.973   7.175   5.182
97520SOL     OW94398   9.017   0.831   4.342
97520SOL    HW194399   9.070   0.909   4.359
97520SOL    HW294400   9.030   0.776   4.419
97521SOL     OW94401   5.735   3.379  13.261
97521SOL    HW194402   5.659   3.429  13.233
97521SOL    HW294403   5.743   3.309  13.197
97522SOL     OW94404   8.547  12.043   6.166
97522SOL    HW194405   8.556  12.004   6.079
97522SOL    HW294406   8.521  12.134   6.149
97523SOL     OW94407  11.243   2.622   5.443
97523SOL    HW194408  11.200   2.572   5.373
97523SOL    HW294409  11.275   2.555   5.504
97524SOL     OW94410  13.435   6.543   3.311
97524SOL    HW194411  13.488   6.565   3.387
97524SOL    HW294412  13.383   6.467   3.339
97525SOL     OW94413   6.202   2.225   0.130
97525SOL    HW194414   6.155   2.186   0.204
97525SOL    HW294415   6.294   2.208   0.149
97526SOL     OW94416   2.182   2.305   7.275
97526SOL    HW194417   2.262   2.258   7.298
97526SOL    HW294418   2.213   2.385   7.232
97527SOL     OW94419   9.348   6.879   0.809
97527SOL    HW194420   9.425   6.827   0.787
97527SOL    HW294421   9.296   6.879   0.728
97528SOL     OW94422  10.217   1.308   3.461
97528SOL    HW194423  10.145   1.313   3.399
97528SOL    HW294424  10.193   1.237   3.521
97529SOL     OW94425   1.652  13.913   2.008
97529SOL    HW194426   1.643  13.990   2.064
97529SOL    HW294427   1.611  13.939   1.925
97530SOL     OW94428   1.148   2.083  10.124
97530SOL    HW194429   1.193   2.049  10.202
97530SOL    HW294430   1.121   2.172  10.149
97531SOL     OW94431   4.051   7.897  11.827
97531SOL    HW194432   4.040   7.805  11.806
97531SOL    HW294433   3.962   7.928  11.845
97532SOL     OW94434   1.328   3.682   1.474
97532SOL    HW194435   1.325   3.707   1.566
97532SOL    HW294436   1.407   3.629   1.466
97533SOL     OW94437   8.288  12.222   6.048
97533SOL    HW194438   8.242  12.173   6.116
97533SOL    HW294439   8.354  12.162   6.014
97534SOL     OW94440   6.685  11.259   4.232
97534SOL    HW194441   6.666  11.353   4.230
97534SOL    HW294442   6.695  11.235   4.140
97535SOL     OW94443  11.447  12.552   1.069
97535SOL    HW194444  11.481  12.515   1.150
97535SOL    HW294445  11.420  12.476   1.017
97536SOL     OW94446  13.178   8.792  10.421
97536SOL    HW194447  13.233   8.840  10.358
97536SOL    HW294448  13.240   8.742  10.474
97537SOL     OW94449   3.438   8.521   6.823
97537SOL    HW194450   3.461   8.604   6.781
97537SOL    HW294451   3.455   8.455   6.756
97538SOL     OW94452   3.915   2.039   8.786
97538SOL    HW194453   3.942   2.065   8.698
97538SOL    HW294454   3.962   1.958   8.802
97539SOL     OW94455   4.182   1.746   2.124
97539SOL    HW194456   4.263   1.773   2.169
97539SOL    HW294457   4.179   1.651   2.134
97540SOL     OW94458  10.111  12.236   8.143
97540SOL    HW194459  10.155  12.313   8.108
97540SOL    HW294460  10.102  12.253   8.237
97541SOL     OW94461   3.966   0.015   5.001
97541SOL    HW194462   3.962  14.814   5.059
97541SOL    HW294463   4.022   0.078   5.046
97542SOL     OW94464  12.853   7.480   2.034
97542SOL    HW194465  12.888   7.540   2.100
97542SOL    HW294466  12.810   7.412   2.084
97543SOL     OW94467   8.570   5.829   6.445
97543SOL    HW194468   8.575   5.858   6.354
97543SOL    HW294469   8.477   5.830   6.465
97544SOL     OW94470   2.063   5.642   4.649
97544SOL    HW194471   2.153   5.660   4.679
97544SOL    HW294472   2.008   5.674   4.721
97545SOL     OW94473  13.756  11.448   0.228
97545SOL    HW194474  13.731  11.511   0.161
97545SOL    HW294475  13.842  11.478   0.258
97546SOL     OW94476   0.692   8.654   4.018
97546SOL    HW194477   0.654   8.583   3.965
97546SOL    HW294478   0.698   8.728   3.957
97547SOL     OW94479  13.947  13.126   9.640
97547SOL    HW194480  14.020  13.114   9.700
97547SOL    HW294481  13.889  13.187   9.685
97548SOL     OW94482   9.536  12.572   8.409
97548SOL    HW194483   9.561  12.568   8.502
97548SOL    HW294484   9.444  12.546   8.408
97549SOL     OW94485   4.223   8.386   6.569
97549SOL    HW194486   4.260   8.460   6.520
97549SOL    HW294487   4.191   8.327   6.501
97550SOL     OW94488  12.113   0.292   6.761
97550SOL    HW194489  12.197   0.287   6.807
97550SOL    HW294490  12.114   0.377   6.717
97551SOL     OW94491   0.352  13.252  14.240
97551SOL    HW194492   0.416  13.241  14.311
97551SOL    HW294493   0.269  13.265  14.285
97552SOL     OW94494   2.905   7.560  11.316
97552SOL    HW194495   3.000   7.555  11.316
97552SOL    HW294496   2.884   7.625  11.250
97553SOL     OW94497  12.334   6.020   2.466
97553SOL    HW194498  12.265   6.019   2.532
97553SOL    HW294499  12.334   6.109   2.431
97554SOL     OW94500   1.153  14.363   0.859
97554SOL    HW194501   1.085  14.391   0.921
97554SOL    HW294502   1.186  14.445   0.822
97555SOL     OW94503   6.598  11.008   0.547
97555SOL    HW194504   6.639  10.941   0.492
97555SOL    HW294505   6.646  11.004   0.630
97556SOL     OW94506   4.833   6.977  12.591
97556SOL    HW194507   4.854   7.069  12.608
97556SOL    HW294508   4.819   6.974  12.496
97557SOL     OW94509   0.243  13.550   5.312
97557SOL    HW194510   0.304  13.624   5.308
97557SOL    HW294511   0.218  13.544   5.404
97558SOL     OW94512   5.548   8.026   6.029
97558SOL    HW194513   5.617   8.039   5.964
97558SOL    HW294514   5.592   8.033   6.114
97559SOL     OW94515  14.805   7.684   2.595
97559SOL    HW194516  14.726   7.700   2.544
97559SOL    HW294517  14.861   7.634   2.537
97560SOL     OW94518   4.281   9.418   5.620
97560SOL    HW194519   4.273   9.513   5.621
97560SOL    HW294520   4.225   9.390   5.547
97561SOL     OW94521  14.322   9.799  13.997
97561SOL    HW194522  14.252   9.815  13.934
97561SOL    HW294523  14.344   9.706  13.986
97562SOL     OW94524   1.554  11.757   4.916
97562SOL    HW194525   1.595  11.687   4.966
97562SOL    HW294526   1.475  11.778   4.965
97563SOL     OW94527   0.208   8.016  12.082
97563SOL    HW194528   0.225   8.043  11.991
97563SOL    HW294529   0.113   8.023  12.091
97564SOL     OW94530   6.290  10.687   5.964
97564SOL    HW194531   6.217  10.749   5.972
97564SOL    HW294532   6.326  10.681   6.052
97565SOL     OW94533   9.543   9.003   9.730
97565SOL    HW194534   9.475   8.976   9.792
97565SOL    HW294535   9.580   9.083   9.768
97566SOL     OW94536   8.670   0.699  11.475
97566SOL    HW194537   8.611   0.707  11.400
97566SOL    HW294538   8.747   0.654  11.439
97567SOL     OW94539   0.191  11.105   6.831
97567SOL    HW194540   0.182  11.010   6.835
97567SOL    HW294541   0.177  11.134   6.922
97568SOL     OW94542   1.907  11.391   4.726
97568SOL    HW194543   1.856  11.343   4.661
97568SOL    HW294544   1.861  11.474   4.736
97569SOL     OW94545   8.212   0.110   7.359
97569SOL    HW194546   8.226   0.115   7.264
97569SOL    HW294547   8.236   0.198   7.390
97570SOL     OW94548  10.755   9.133  11.104
97570SOL    HW194549  10.750   9.038  11.105
97570SOL    HW294550  10.747   9.157  11.012
97571SOL     OW94551   8.702   8.369   9.608
97571SOL    HW194552   8.761   8.295   9.619
97571SOL    HW294553   8.661   8.380   9.694
97572SOL     OW94554  10.302  11.836   1.800
97572SOL    HW194555  10.396  11.847   1.817
97572SOL    HW294556  10.295  11.835   1.704
97573SOL     OW94557   4.554   4.260  10.861
97573SOL    HW194558   4.637   4.286  10.900
97573SOL    HW294559   4.539   4.171  10.892
97574SOL     OW94560   3.192   9.873   0.320
97574SOL    HW194561   3.193   9.858   0.414
97574SOL    HW294562   3.110   9.834   0.290
97575SOL     OW94563   2.290   4.883   3.673
97575SOL    HW194564   2.213   4.826   3.670
97575SOL    HW294565   2.270   4.947   3.740
97576SOL     OW94566   9.786  12.535   4.584
97576SOL    HW194567   9.866  12.550   4.633
97576SOL    HW294568   9.755  12.449   4.614
97577SOL     OW94569   6.785   1.184   0.497
97577SOL    HW194570   6.818   1.273   0.488
97577SOL    HW294571   6.861   1.128   0.478
97578SOL     OW94572  13.266   6.992   2.322
97578SOL    HW194573  13.297   7.056   2.258
97578SOL    HW294574  13.205   7.040   2.377
97579SOL     OW94575  14.554   0.359   6.231
97579SOL    HW194576  14.526   0.294   6.167
97579SOL    HW294577  14.535   0.318   6.316
97580SOL     OW94578  14.635  12.645  13.322
97580SOL    HW194579  14.627  12.652  13.227
97580SOL    HW294580  14.581  12.717  13.356
97581SOL     OW94581  14.664   4.730  12.614
97581SOL    HW194582  14.739   4.686  12.654
97581SOL    HW294583  14.700   4.811  12.576
97582SOL     OW94584   4.972   6.600   0.929
97582SOL    HW194585   4.956   6.610   1.023
97582SOL    HW294586   4.939   6.513   0.908
97583SOL     OW94587  12.620   0.831   0.609
97583SOL    HW194588  12.579   0.749   0.634
97583SOL    HW294589  12.682   0.849   0.680
97584SOL     OW94590  14.579   8.443   9.444
97584SOL    HW194591  14.634   8.385   9.391
97584SOL    HW294592  14.639   8.480   9.509
97585SOL     OW94593   3.688   6.241  11.484
97585SOL    HW194594   3.766   6.197  11.520
97585SOL    HW294595   3.617   6.216  11.543
97586SOL     OW94596   8.297   3.790   3.977
97586SOL    HW194597   8.351   3.791   4.057
97586SOL    HW294598   8.356   3.819   3.908
97587SOL     OW94599   0.283  14.744  11.724
97587SOL    HW194600   0.315  14.692  11.650
97587SOL    HW294601   0.323  14.830  11.712
97588SOL     OW94602   2.149   8.037   8.735
97588SOL    HW194603   2.169   7.951   8.772
97588SOL    HW294604   2.058   8.054   8.760
97589SOL     OW94605   5.815   0.188  14.704
97589SOL    HW194606   5.824   0.093  14.699
97589SOL    HW294607   5.873   0.213  14.776
97590SOL     OW94608  10.844   3.738   0.099
97590SOL    HW194609  10.750   3.724   0.082
97590SOL    HW294610  10.884   3.742   0.013
97591SOL     OW94611   9.815  11.605  11.639
97591SOL    HW194612   9.786  11.679  11.692
97591SOL    HW294613   9.781  11.528  11.684
97592SOL     OW94614  11.559   3.103  13.309
97592SOL    HW194615  11.491   3.036  13.306
97592SOL    HW294616  11.635   3.060  13.349
97593SOL     OW94617   4.592  14.018   8.209
97593SOL    HW194618   4.518  14.075   8.229
97593SOL    HW294619   4.608  14.031   8.116
97594SOL     OW94620   2.318  14.216  11.729
97594SOL    HW194621   2.401  14.172  11.743
97594SOL    HW294622   2.297  14.257  11.813
97595SOL     OW94623   5.848   3.103  11.627
97595SOL    HW194624   5.908   3.176  11.619
97595SOL    HW294625   5.813   3.090  11.539
97596SOL     OW94626   1.148   6.452  13.074
97596SOL    HW194627   1.052   6.448  13.080
97596SOL    HW294628   1.165   6.525  13.015
97597SOL     OW94629   3.400   9.542   1.378
97597SOL    HW194630   3.338   9.471   1.396
97597SOL    HW294631   3.456   9.546   1.456
97598SOL     OW94632  11.649   2.134   4.215
97598SOL    HW194633  11.590   2.118   4.142
97598SOL    HW294634  11.717   2.067   4.207
97599SOL     OW94635   4.133   2.616   0.298
97599SOL    HW194636   4.141   2.524   0.275
97599SOL    HW294637   4.066   2.618   0.366
97600SOL     OW94638   2.691   8.723   0.168
97600SOL    HW194639   2.677   8.662   0.241
97600SOL    HW294640   2.648   8.681   0.093
97601SOL     OW94641  12.639  10.638  10.584
97601SOL    HW194642  12.729  10.605  10.584
97601SOL    HW294643  12.612  10.634  10.492
97602SOL     OW94644   8.117  12.138  13.371
97602SOL    HW194645   8.176  12.214  13.376
97602SOL    HW294646   8.097  12.130  13.277
97603SOL     OW94647   1.777   6.808   8.957
97603SOL    HW194648   1.790   6.887   9.008
97603SOL    HW294649   1.771   6.839   8.866
97604SOL     OW94650  11.003  14.229   4.152
97604SOL    HW194651  11.064  14.180   4.097
97604SOL    HW294652  11.056  14.299   4.189
97605SOL     OW94653   5.233  11.316   5.606
97605SOL    HW194654   5.280  11.387   5.650
97605SOL    HW294655   5.153  11.357   5.573
97606SOL     OW94656   8.791   5.116   0.688
97606SOL    HW194657   8.817   5.184   0.626
97606SOL    HW294658   8.744   5.162   0.757
97607SOL     OW94659  13.755   4.242  13.402
97607SOL    HW194660  13.746   4.191  13.483
97607SOL    HW294661  13.737   4.332  13.429
97608SOL     OW94662  11.957   5.099   9.292
97608SOL    HW194663  12.008   5.109   9.212
97608SOL    HW294664  11.961   5.184   9.335
97609SOL     OW94665   4.018   8.908   8.815
97609SOL    HW194666   4.088   8.939   8.872
97609SOL    HW294667   3.938   8.929   8.863
97610SOL     OW94668   1.578   1.332   8.628
97610SOL    HW194669   1.544   1.293   8.548
97610SOL    HW294670   1.655   1.382   8.599
97611SOL     OW94671   7.347   5.919   4.675
97611SOL    HW194672   7.291   5.892   4.603
97611SOL    HW294673   7.294   5.983   4.724
97612SOL     OW94674  11.458   6.907  13.271
97612SOL    HW194675  11.456   6.848  13.346
97612SOL    HW294676  11.551   6.924  13.256
97613SOL     OW94677   0.431  13.462   9.135
97613SOL    HW194678   0.469  13.483   9.220
97613SOL    HW294679   0.338  13.447   9.153
97614SOL     OW94680   0.555   0.678  12.085
97614SOL    HW194681   0.509   0.730  12.019
97614SOL    HW294682   0.617   0.738  12.125
97615SOL     OW94683   7.822  13.559   0.503
97615SOL    HW194684   7.736  13.598   0.515
97615SOL    HW294685   7.838  13.564   0.408
97616SOL     OW94686  10.857   6.234   9.527
97616SOL    HW194687  10.861   6.272   9.615
97616SOL    HW294688  10.768   6.253   9.497
97617SOL     OW94689   7.455  14.292   1.275
97617SOL    HW194690   7.466  14.332   1.188
97617SOL    HW294691   7.401  14.355   1.323
97618SOL     OW94692  11.756  13.625  14.352
97618SOL    HW194693  11.730  13.717  14.356
97618SOL    HW294694  11.744  13.600  14.261
97619SOL     OW94695   5.948   9.614   3.971
97619SOL    HW194696   5.909   9.677   4.032
97619SOL    HW294697   6.042   9.632   3.975
97620SOL     OW94698   3.927   3.284   9.687
97620SOL    HW194699   3.903   3.253   9.775
97620SOL    HW294700   3.899   3.214   9.628
97621SOL     OW94701   4.267   1.067   2.779
97621SOL    HW194702   4.229   1.153   2.798
97621SOL    HW294703   4.302   1.075   2.690
97622SOL     OW94704  14.558  14.653   6.848
97622SOL    HW194705  14.582  14.640   6.756
97622SOL    HW294706  14.641  14.641   6.896
97623SOL     OW94707   1.436  12.435   8.201
97623SOL    HW194708   1.426  12.343   8.224
97623SOL    HW294709   1.360  12.478   8.240
97624SOL     OW94710   8.341  11.366   3.893
97624SOL    HW194711   8.276  11.395   3.957
97624SOL    HW294712   8.302  11.288   3.853
97625SOL     OW94713   2.256   4.649   9.780
97625SOL    HW194714   2.165   4.667   9.805
97625SOL    HW294715   2.254   4.646   9.684
97626SOL     OW94716  13.375   6.002  11.626
97626SOL    HW194717  13.313   5.967  11.690
97626SOL    HW294718  13.455   5.951  11.640
97627SOL     OW94719   1.709   8.880   5.773
97627SOL    HW194720   1.678   8.840   5.854
97627SOL    HW294721   1.635   8.933   5.743
97628SOL     OW94722  13.839   8.619   3.326
97628SOL    HW194723  13.854   8.651   3.415
97628SOL    HW294724  13.748   8.643   3.307
97629SOL     OW94725   8.428   5.881   8.157
97629SOL    HW194726   8.379   5.830   8.092
97629SOL    HW294727   8.512   5.899   8.114
97630SOL     OW94728   8.509   9.426   3.672
97630SOL    HW194729   8.564   9.348   3.661
97630SOL    HW294730   8.562   9.497   3.636
97631SOL     OW94731   7.443  12.961   8.601
97631SOL    HW194732   7.400  13.001   8.525
97631SOL    HW294733   7.527  13.007   8.607
97632SOL     OW94734   6.020   8.834   6.357
97632SOL    HW194735   6.093   8.881   6.316
97632SOL    HW294736   6.051   8.814   6.446
97633SOL     OW94737   7.760  10.149  12.947
97633SOL    HW194738   7.696  10.215  12.921
97633SOL    HW294739   7.720  10.066  12.921
97634SOL     OW94740   8.079  10.428  11.866
97634SOL    HW194741   8.152  10.473  11.824
97634SOL    HW294742   8.101  10.427  11.959
97635SOL     OW94743   0.515   4.491   9.621
97635SOL    HW194744   0.435   4.521   9.578
97635SOL    HW294745   0.510   4.396   9.617
97636SOL     OW94746   2.275   3.649   4.191
97636SOL    HW194747   2.308   3.567   4.154
97636SOL    HW294748   2.228   3.623   4.270
97637SOL     OW94749   6.286  13.054  14.566
97637SOL    HW194750   6.357  13.004  14.525
97637SOL    HW294751   6.227  13.075  14.493
97638SOL     OW94752   3.544   2.880   1.951
97638SOL    HW194753   3.568   2.951   2.011
97638SOL    HW294754   3.565   2.915   1.864
97639SOL     OW94755   0.363  10.104  13.342
97639SOL    HW194756   0.400  10.192  13.332
97639SOL    HW294757   0.270  10.120  13.360
97640SOL     OW94758  14.114   1.857   0.456
97640SOL    HW194759  14.066   1.921   0.510
97640SOL    HW294760  14.115   1.778   0.509
97641SOL     OW94761   8.413  12.606   8.442
97641SOL    HW194762   8.378  12.528   8.400
97641SOL    HW294763   8.497  12.622   8.399
97642SOL     OW94764   5.590   1.293   2.073
97642SOL    HW194765   5.496   1.305   2.062
97642SOL    HW294766   5.611   1.345   2.151
97643SOL     OW94767  11.268   7.207  13.421
97643SOL    HW194768  11.305   7.278  13.473
97643SOL    HW294769  11.196   7.247  13.373
97644SOL     OW94770   1.075  10.190  13.858
97644SOL    HW194771   1.123  10.200  13.776
97644SOL    HW294772   0.996  10.243  13.846
97645SOL     OW94773   2.102   4.067   7.310
97645SOL    HW194774   2.099   4.016   7.229
97645SOL    HW294775   2.098   4.158   7.281
97646SOL     OW94776   0.040   0.629   3.059
97646SOL    HW194777   0.056   0.704   3.002
97646SOL    HW294778   0.052   0.553   3.002
97647SOL     OW94779   7.204  11.137   7.425
97647SOL    HW194780   7.223  11.061   7.372
97647SOL    HW294781   7.258  11.127   7.504
97648SOL     OW94782   5.252  12.097   7.265
97648SOL    HW194783   5.316  12.049   7.212
97648SOL    HW294784   5.231  12.037   7.337
97649SOL     OW94785   0.284  10.556   7.436
97649SOL    HW194786   0.229  10.495   7.486
97649SOL    HW294787   0.302  10.511   7.354
97650SOL     OW94788  11.873   4.541  10.985
97650SOL    HW194789  11.838   4.469  10.933
97650SOL    HW294790  11.802   4.566  11.044
97651SOL     OW94791   8.871   8.624   2.046
97651SOL    HW194792   8.841   8.711   2.069
97651SOL    HW294793   8.967   8.628   2.056
97652SOL     OW94794  14.190  13.561   9.690
97652SOL    HW194795  14.107  13.550   9.645
97652SOL    HW294796  14.226  13.472   9.696
97653SOL     OW94797  10.035   5.348   2.371
97653SOL    HW194798  10.073   5.266   2.339
97653SOL    HW294799  10.063   5.353   2.463
97654SOL     OW94800   3.263   6.691  13.108
97654SOL    HW194801   3.172   6.665  13.091
97654SOL    HW294802   3.315   6.634  13.051
97655SOL     OW94803   4.524  10.270   7.264
97655SOL    HW194804   4.452  10.313   7.218
97655SOL    HW294805   4.538  10.188   7.215
97656SOL     OW94806  12.083  12.698  11.172
97656SOL    HW194807  12.087  12.747  11.254
97656SOL    HW294808  12.143  12.743  11.113
97657SOL     OW94809   6.973  10.129   7.229
97657SOL    HW194810   7.003  10.166   7.146
97657SOL    HW294811   6.981  10.035   7.217
97658SOL     OW94812   9.267  13.678   4.270
97658SOL    HW194813   9.211  13.749   4.303
97658SOL    HW294814   9.339  13.673   4.334
97659SOL     OW94815  14.224   6.310   7.528
97659SOL    HW194816  14.218   6.227   7.575
97659SOL    HW294817  14.298   6.299   7.469
97660SOL     OW94818   7.460  11.537  11.085
97660SOL    HW194819   7.493  11.605  11.027
97660SOL    HW294820   7.538  11.491  11.115
97661SOL     OW94821   3.197  14.508   4.848
97661SOL    HW194822   3.218  14.596   4.817
97661SOL    HW294823   3.182  14.457   4.768
97662SOL     OW94824   7.769  14.434  10.911
97662SOL    HW194825   7.724  14.416  10.993
97662SOL    HW294826   7.766  14.530  10.903
97663SOL     OW94827   5.914  14.265   1.341
97663SOL    HW194828   5.905  14.286   1.434
97663SOL    HW294829   5.955  14.342   1.303
97664SOL     OW94830   8.545  13.337   5.243
97664SOL    HW194831   8.620  13.297   5.199
97664SOL    HW294832   8.554  13.309   5.335
97665SOL     OW94833   5.667  10.550  14.046
97665SOL    HW194834   5.672  10.584  14.135
97665SOL    HW294835   5.626  10.464  14.055
97666SOL     OW94836  14.342   6.797  10.509
97666SOL    HW194837  14.401   6.863  10.472
97666SOL    HW294838  14.399   6.726  10.536
97667SOL     OW94839   2.630   4.248   3.192
97667SOL    HW194840   2.681   4.167   3.186
97667SOL    HW294841   2.659   4.289   3.273
97668SOL     OW94842   2.657  12.255   5.882
97668SOL    HW194843   2.668  12.191   5.952
97668SOL    HW294844   2.644  12.202   5.803
97669SOL     OW94845   1.138   8.226   9.719
97669SOL    HW194846   1.084   8.294   9.758
97669SOL    HW294847   1.194   8.195   9.791
97670SOL     OW94848  10.653   5.379   5.395
97670SOL    HW194849  10.571   5.338   5.370
97670SOL    HW294850  10.629   5.443   5.462
97671SOL     OW94851   7.576  10.916  11.420
97671SOL    HW194852   7.544  10.968  11.346
97671SOL    HW294853   7.670  10.908  11.405
97672SOL     OW94854   7.373  14.595   2.288
97672SOL    HW194855   7.319  14.654   2.341
97672SOL    HW294856   7.402  14.648   2.214
97673SOL     OW94857   4.589   1.989  10.620
97673SOL    HW194858   4.497   2.014  10.623
97673SOL    HW294859   4.607   1.977  10.526
97674SOL     OW94860   5.687   9.779   2.290
97674SOL    HW194861   5.694   9.704   2.350
97674SOL    HW294862   5.609   9.827   2.320
97675SOL     OW94863   8.135   0.658  12.025
97675SOL    HW194864   8.126   0.726  11.959
97675SOL    HW294865   8.045   0.635  12.049
97676SOL     OW94866   7.427  11.945  10.730
97676SOL    HW194867   7.334  11.924  10.742
97676SOL    HW294868   7.430  11.988  10.644
97677SOL     OW94869   2.996  10.752   2.180
97677SOL    HW194870   2.994  10.758   2.085
97677SOL    HW294871   3.049  10.674   2.199
97678SOL     OW94872   6.846   6.421   5.456
97678SOL    HW194873   6.856   6.392   5.547
97678SOL    HW294874   6.752   6.432   5.444
97679SOL     OW94875   5.942   2.549   4.561
97679SOL    HW194876   5.953   2.457   4.584
97679SOL    HW294877   5.988   2.597   4.630
97680SOL     OW94878   3.808  12.116  11.118
97680SOL    HW194879   3.744  12.187  11.112
97680SOL    HW294880   3.847  12.127  11.205
97681SOL     OW94881   9.683   4.593   3.083
97681SOL    HW194882   9.630   4.624   3.010
97681SOL    HW294883   9.711   4.505   3.058
97682SOL     OW94884   7.217  11.393   3.086
97682SOL    HW194885   7.168  11.325   3.040
97682SOL    HW294886   7.197  11.474   3.038
97683SOL     OW94887   8.201  14.413   3.605
97683SOL    HW194888   8.197  14.398   3.700
97683SOL    HW294889   8.227  14.505   3.597
97684SOL     OW94890   3.407  13.934   8.141
97684SOL    HW194891   3.348  13.928   8.065
97684SOL    HW294892   3.423  14.028   8.152
97685SOL     OW94893  13.141   1.133   3.081
97685SOL    HW194894  13.166   1.065   3.143
97685SOL    HW294895  13.225   1.170   3.052
97686SOL     OW94896   9.926   4.734   3.039
97686SOL    HW194897   9.875   4.662   3.076
97686SOL    HW294898   9.872   4.812   3.054
97687SOL     OW94899   8.748  12.420   8.556
97687SOL    HW194900   8.720  12.492   8.499
97687SOL    HW294901   8.669  12.395   8.603
97688SOL     OW94902  14.263   6.476   4.479
97688SOL    HW194903  14.208   6.549   4.452
97688SOL    HW294904  14.202   6.410   4.512
97689SOL     OW94905   4.262   7.664   8.809
97689SOL    HW194906   4.252   7.759   8.805
97689SOL    HW294907   4.195   7.635   8.871
97690SOL     OW94908   1.232   1.961  10.356
97690SOL    HW194909   1.222   2.025  10.427
97690SOL    HW294910   1.200   1.879  10.393
97691SOL     OW94911   7.268   4.143  11.314
97691SOL    HW194912   7.213   4.191  11.251
97691SOL    HW294913   7.258   4.051  11.289
97692SOL     OW94914   9.025   6.271  10.453
97692SOL    HW194915   8.955   6.328  10.485
97692SOL    HW294916   9.067   6.237  10.532
97693SOL     OW94917  12.765  12.454   2.223
97693SOL    HW194918  12.683  12.440   2.177
97693SOL    HW294919  12.831  12.410   2.170
97694SOL     OW94920   2.727  12.386   1.398
97694SOL    HW194921   2.736  12.369   1.304
97694SOL    HW294922   2.659  12.324   1.426
97695SOL     OW94923   4.512   9.918   2.478
97695SOL    HW194924   4.464   9.841   2.447
97695SOL    HW294925   4.502   9.982   2.408
97696SOL     OW94926   6.115   0.745  12.165
97696SOL    HW194927   6.026   0.750  12.200
97696SOL    HW294928   6.104   0.706  12.078
97697SOL     OW94929   7.907   7.717  11.877
97697SOL    HW194930   7.946   7.637  11.912
97697SOL    HW294931   7.857   7.689  11.801
97698SOL     OW94932   2.621  14.657  13.674
97698SOL    HW194933   2.576  14.668  13.590
97698SOL    HW294934   2.593  14.570  13.704
97699SOL     OW94935   2.477   8.141   1.678
97699SOL    HW194936   2.534   8.199   1.627
97699SOL    HW294937   2.522   8.057   1.678
97700SOL     OW94938   9.202  11.001   4.334
97700SOL    HW194939   9.132  10.983   4.397
97700SOL    HW294940   9.165  10.976   4.249
97701SOL     OW94941   0.170   2.489   4.249
97701SOL    HW194942   0.144   2.410   4.296
97701SOL    HW294943   0.257   2.511   4.283
97702SOL     OW94944   8.318   8.912  14.349
97702SOL    HW194945   8.235   8.868  14.331
97702SOL    HW294946   8.294   8.992  14.395
97703SOL     OW94947   1.454   3.332  10.422
97703SOL    HW194948   1.377   3.276  10.428
97703SOL    HW294949   1.510   3.305  10.495
97704SOL     OW94950  10.422  12.303   5.477
97704SOL    HW194951  10.396  12.385   5.520
97704SOL    HW294952  10.516  12.297   5.494
97705SOL     OW94953  14.552   6.654   0.773
97705SOL    HW194954  14.525   6.712   0.702
97705SOL    HW294955  14.643   6.631   0.752
97706SOL     OW94956   2.280  14.695   3.900
97706SOL    HW194957   2.310  14.606   3.880
97706SOL    HW294958   2.216  14.715   3.832
97707SOL     OW94959   5.334  13.056   4.920
97707SOL    HW194960   5.273  13.065   4.993
97707SOL    HW294961   5.280  13.071   4.842
97708SOL     OW94962   4.944  14.870  10.868
97708SOL    HW194963   5.013   0.061  10.868
97708SOL    HW294964   4.960  14.817  10.790
97709SOL     OW94965  14.735   8.013   2.322
97709SOL    HW194966  14.810   7.954   2.333
97709SOL    HW294967  14.752   8.059   2.240
97710SOL     OW94968  12.173   3.774  14.358
97710SOL    HW194969  12.207   3.842  14.299
97710SOL    HW294970  12.079   3.792  14.364
97711SOL     OW94971  14.247   2.790   9.256
97711SOL    HW194972  14.186   2.837   9.200
97711SOL    HW294973  14.303   2.741   9.195
97712SOL     OW94974  12.675  11.449   0.433
97712SOL    HW194975  12.634  11.529   0.467
97712SOL    HW294976  12.688  11.467   0.340
97713SOL     OW94977   2.152   2.499  13.705
97713SOL    HW194978   2.211   2.425  13.713
97713SOL    HW294979   2.159   2.544  13.789
97714SOL     OW94980  12.191   7.792  13.544
97714SOL    HW194981  12.252   7.754  13.608
97714SOL    HW294982  12.245   7.807  13.467
97715SOL     OW94983  12.553  12.858   2.223
97715SOL    HW194984  12.537  12.922   2.293
97715SOL    HW294985  12.624  12.895   2.172
97716SOL     OW94986   2.332   1.532   9.810
97716SOL    HW194987   2.250   1.521   9.762
97716SOL    HW294988   2.305   1.562   9.897
97717SOL     OW94989   1.437   9.220   7.904
97717SOL    HW194990   1.383   9.142   7.920
97717SOL    HW294991   1.522   9.199   7.943
97718SOL     OW94992  14.648  13.955   4.379
97718SOL    HW194993  14.616  13.907   4.302
97718SOL    HW294994  14.715  13.898   4.417
97719SOL     OW94995  10.487   3.287   4.423
97719SOL    HW194996  10.455   3.221   4.362
97719SOL    HW294997  10.425   3.359   4.415
97720SOL     OW94998   6.139   0.287   4.874
97720SOL    HW194999   6.220   0.313   4.830
97720SOL    HW295000   6.169   0.247   4.957
97721SOL     OW95001   8.365  10.333  10.972
97721SOL    HW195002   8.434  10.266  10.966
97721SOL    HW295003   8.312  10.319  10.894
97722SOL     OW95004   5.470   0.920   0.151
97722SOL    HW195005   5.392   0.882   0.192
97722SOL    HW295006   5.543   0.866   0.182
97723SOL     OW95007   2.740   8.189   9.334
97723SOL    HW195008   2.811   8.245   9.304
97723SOL    HW295009   2.661   8.243   9.326
97724SOL     OW95010  12.581   2.148  10.497
97724SOL    HW195011  12.666   2.131  10.536
97724SOL    HW295012  12.519   2.097  10.550
97725SOL     OW95013   7.902  14.695   0.194
97725SOL    HW195014   7.952  14.766   0.152
97725SOL    HW295015   7.814  14.732   0.205
97726SOL     OW95016   1.677   3.315   4.001
97726SOL    HW195017   1.642   3.384   3.945
97726SOL    HW295018   1.622   3.239   3.982
97727SOL     OW95019   8.761   2.125   9.188
97727SOL    HW195020   8.776   2.034   9.214
97727SOL    HW295021   8.705   2.161   9.256
97728SOL     OW95022   7.224   5.369  13.450
97728SOL    HW195023   7.170   5.375  13.529
97728SOL    HW295024   7.200   5.285  13.412
97729SOL     OW95025   4.645   0.534   6.581
97729SOL    HW195026   4.594   0.576   6.512
97729SOL    HW295027   4.588   0.538   6.658
97730SOL     OW95028  12.347  13.870   1.959
97730SOL    HW195029  12.429  13.837   1.996
97730SOL    HW295030  12.279  13.820   2.004
97731SOL     OW95031  10.732   6.571  14.482
97731SOL    HW195032  10.814   6.520  14.487
97731SOL    HW295033  10.736   6.613  14.396
97732SOL     OW95034   4.732   9.665   8.089
97732SOL    HW195035   4.766   9.717   8.161
97732SOL    HW295036   4.796   9.675   8.019
97733SOL     OW95037   4.440   9.646  12.012
97733SOL    HW195038   4.441   9.671  12.104
97733SOL    HW295039   4.532   9.645  11.986
97734SOL     OW95040  12.339  14.417  10.932
97734SOL    HW195041  12.317  14.441  11.022
97734SOL    HW295042  12.328  14.322  10.930
97735SOL     OW95043   7.870   5.669   5.565
97735SOL    HW195044   7.911   5.665   5.478
97735SOL    HW295045   7.865   5.578   5.594
97736SOL     OW95046  11.536   1.808   3.110
97736SOL    HW195047  11.506   1.763   3.189
97736SOL    HW295048  11.609   1.861   3.139
97737SOL     OW95049   7.925  11.554   9.627
97737SOL    HW195050   7.871  11.546   9.549
97737SOL    HW295051   7.875  11.611   9.686
97738SOL     OW95052   0.844  14.766   3.414
97738SOL    HW195053   0.933  14.733   3.407
97738SOL    HW295054   0.849  14.835   3.480
97739SOL     OW95055  12.491   6.320   9.904
97739SOL    HW195056  12.571   6.370   9.889
97739SOL    HW295057  12.425   6.387   9.925
97740SOL     OW95058   7.071   3.978   1.835
97740SOL    HW195059   7.128   3.928   1.892
97740SOL    HW295060   7.090   4.070   1.857
97741SOL     OW95061   2.895  12.003   7.721
97741SOL    HW195062   2.972  12.056   7.701
97741SOL    HW295063   2.919  11.914   7.697
97742SOL     OW95064   2.132   8.172  11.066
97742SOL    HW195065   2.222   8.167  11.098
97742SOL    HW295066   2.129   8.111  10.993
97743SOL     OW95067   9.415   4.335   5.624
97743SOL    HW195068   9.427   4.266   5.559
97743SOL    HW295069   9.355   4.297   5.689
97744SOL     OW95070   3.820   0.895  12.459
97744SOL    HW195071   3.894   0.853  12.503
97744SOL    HW295072   3.759   0.823  12.440
97745SOL     OW95073   3.621   6.121   6.395
97745SOL    HW195074   3.568   6.088   6.468
97745SOL    HW295075   3.638   6.044   6.341
97746SOL     OW95076   7.683  11.973   2.576
97746SOL    HW195077   7.739  11.913   2.527
97746SOL    HW295078   7.595  11.955   2.544
97747SOL     OW95079   8.187   3.224   4.352
97747SOL    HW195080   8.274   3.192   4.375
97747SOL    HW295081   8.138   3.224   4.435
97748SOL     OW95082   4.457   3.994  14.061
97748SOL    HW195083   4.536   4.045  14.044
97748SOL    HW295084   4.406   4.001  13.981
97749SOL     OW95085  11.670  12.570   0.067
97749SOL    HW195086  11.688  12.662   0.088
97749SOL    HW295087  11.667  12.568  14.845
97750SOL     OW95088   4.420   8.351  10.003
97750SOL    HW195089   4.482   8.364   9.932
97750SOL    HW295090   4.350   8.297   9.965
97751SOL     OW95091   3.144   9.351  14.250
97751SOL    HW195092   3.073   9.355  14.186
97751SOL    HW295093   3.129   9.427  14.307
97752SOL     OW95094  12.675   9.014   6.527
97752SOL    HW195095  12.719   8.958   6.591
97752SOL    HW295096  12.643   8.954   6.460
97753SOL     OW95097   0.347   4.058   8.368
97753SOL    HW195098   0.425   4.014   8.402
97753SOL    HW295099   0.304   3.993   8.313
97754SOL     OW95100   8.820   3.193   5.324
97754SOL    HW195101   8.761   3.238   5.265
97754SOL    HW295102   8.854   3.261   5.382
97755SOL     OW95103  11.335  12.470  10.037
97755SOL    HW195104  11.297  12.425   9.962
97755SOL    HW295105  11.416  12.508  10.004
97756SOL     OW95106  14.460  10.937   2.637
97756SOL    HW195107  14.468  10.848   2.671
97756SOL    HW295108  14.543  10.952   2.592
97757SOL     OW95109   6.142   8.661  11.701
97757SOL    HW195110   6.135   8.567  11.681
97757SOL    HW295111   6.051   8.689  11.716
97758SOL     OW95112   1.702   9.810   1.632
97758SOL    HW195113   1.781   9.854   1.662
97758SOL    HW295114   1.723   9.778   1.545
97759SOL     OW95115   2.774   4.197   1.100
97759SOL    HW195116   2.809   4.181   1.188
97759SOL    HW295117   2.843   4.167   1.041
97760SOL     OW95118  10.996   5.913   8.908
97760SOL    HW195119  10.918   5.882   8.861
97760SOL    HW295120  11.028   5.986   8.855
97761SOL     OW95121   7.736   9.318   0.797
97761SOL    HW195122   7.771   9.356   0.717
97761SOL    HW295123   7.657   9.272   0.769
97762SOL     OW95124  11.500   5.499  12.505
97762SOL    HW195125  11.443   5.574  12.521
97762SOL    HW295126  11.474   5.467  12.419
97763SOL     OW95127   9.171   4.128  12.067
97763SOL    HW195128   9.236   4.079  12.015
97763SOL    HW295129   9.109   4.061  12.096
97764SOL     OW95130  14.285   0.210   6.974
97764SOL    HW195131  14.221   0.233   7.042
97764SOL    HW295132  14.231   0.190   6.897
97765SOL     OW95133  12.692   8.135   8.230
97765SOL    HW195134  12.745   8.104   8.303
97765SOL    HW295135  12.680   8.059   8.174
97766SOL     OW95136   5.889  13.697   6.304
97766SOL    HW195137   5.973  13.660   6.278
97766SOL    HW295138   5.894  13.789   6.278
97767SOL     OW95139  10.415  13.354   9.679
97767SOL    HW195140  10.327  13.326   9.654
97767SOL    HW295141  10.466  13.273   9.681
97768SOL     OW95142   1.464   4.685  10.895
97768SOL    HW195143   1.528   4.649  10.956
97768SOL    HW295144   1.456   4.777  10.921
97769SOL     OW95145   1.857   9.213   8.476
97769SOL    HW195146   1.942   9.169   8.470
97769SOL    HW295147   1.795   9.143   8.493
97770SOL     OW95148   6.041   5.437   9.755
97770SOL    HW195149   6.096   5.505   9.716
97770SOL    HW295150   6.046   5.364   9.693
97771SOL     OW95151  10.864   7.391  10.676
97771SOL    HW195152  10.892   7.319  10.733
97771SOL    HW295153  10.912   7.378  10.594
97772SOL     OW95154  14.526  13.151  11.213
97772SOL    HW195155  14.447  13.165  11.160
97772SOL    HW295156  14.541  13.057  11.210
97773SOL     OW95157   2.600   9.271   6.157
97773SOL    HW195158   2.695   9.271   6.142
97773SOL    HW295159   2.580   9.182   6.185
97774SOL     OW95160  12.983  13.014  11.330
97774SOL    HW195161  12.957  13.020  11.238
97774SOL    HW295162  12.908  12.974  11.374
97775SOL     OW95163   2.557   9.445  12.118
97775SOL    HW195164   2.641   9.419  12.079
97775SOL    HW295165   2.552   9.394  12.199
97776SOL     OW95166   6.787   6.676   4.133
97776SOL    HW195167   6.788   6.678   4.229
97776SOL    HW295168   6.853   6.740   4.108
97777SOL     OW95169  13.801   2.250   7.766
97777SOL    HW195170  13.831   2.285   7.850
97777SOL    HW295171  13.744   2.177   7.790
97778SOL     OW95172  11.412   8.911   5.292
97778SOL    HW195173  11.338   8.944   5.343
97778SOL    HW295174  11.431   8.981   5.230
97779SOL     OW95175   0.973  12.830   8.508
97779SOL    HW195176   1.056  12.787   8.528
97779SOL    HW295177   0.998  12.904   8.451
97780SOL     OW95178   7.396   5.086   4.082
97780SOL    HW195179   7.457   5.065   4.012
97780SOL    HW295180   7.332   5.014   4.080
97781SOL     OW95181   1.753   6.657  11.777
97781SOL    HW195182   1.819   6.714  11.739
97781SOL    HW295183   1.734   6.697  11.862
97782SOL     OW95184   9.713  13.054   7.392
97782SOL    HW195185   9.637  13.053   7.451
97782SOL    HW295186   9.753  13.139   7.407
97783SOL     OW95187   1.376   4.520   8.029
97783SOL    HW195188   1.469   4.500   8.030
97783SOL    HW295189   1.372   4.615   8.015
97784SOL     OW95190   8.738   8.822  14.143
97784SOL    HW195191   8.643   8.830  14.142
97784SOL    HW295192   8.770   8.899  14.096
97785SOL     OW95193   4.673   8.264  11.849
97785SOL    HW195194   4.738   8.291  11.784
97785SOL    HW295195   4.686   8.324  11.922
97786SOL     OW95196   2.015   3.678   6.652
97786SOL    HW195197   2.014   3.723   6.737
97786SOL    HW295198   1.940   3.715   6.606
97787SOL     OW95199  13.562  14.781   8.038
97787SOL    HW195200  13.601  14.833   7.967
97787SOL    HW295201  13.532  14.701   7.995
97788SOL     OW95202   3.407   6.318   8.876
97788SOL    HW195203   3.338   6.259   8.847
97788SOL    HW295204   3.486   6.284   8.836
97789SOL     OW95205   0.337   3.504   1.593
97789SOL    HW195206   0.420   3.546   1.616
97789SOL    HW295207   0.302   3.473   1.677
97790SOL     OW95208  12.789   3.031  14.172
97790SOL    HW195209  12.883   3.040  14.185
97790SOL    HW295210  12.750   3.088  14.238
97791SOL     OW95211   0.983   8.494  14.506
97791SOL    HW195212   1.076   8.479  14.491
97791SOL    HW295213   0.967   8.583  14.473
97792SOL     OW95214   3.418   7.545   1.636
97792SOL    HW195215   3.405   7.465   1.686
97792SOL    HW295216   3.444   7.515   1.549
97793SOL     OW95217   4.047   0.633   6.117
97793SOL    HW195218   3.961   0.676   6.114
97793SOL    HW295219   4.104   0.696   6.159
97794SOL     OW95220   9.793  14.397   8.363
97794SOL    HW195221   9.771  14.374   8.273
97794SOL    HW295222   9.810  14.491   8.362
97795SOL     OW95223  12.585  13.387  13.261
97795SOL    HW195224  12.641  13.318  13.226
97795SOL    HW295225  12.639  13.433  13.325
97796SOL     OW95226   2.703  10.502   6.891
97796SOL    HW195227   2.767  10.505   6.820
97796SOL    HW295228   2.668  10.413   6.888
97797SOL     OW95229   7.668  13.125   8.604
97797SOL    HW195230   7.719  13.187   8.552
97797SOL    HW295231   7.706  13.130   8.692
97798SOL     OW95232   7.197   8.180   2.373
97798SOL    HW195233   7.123   8.189   2.312
97798SOL    HW295234   7.275   8.192   2.319
97799SOL     OW95235  14.559   0.709   9.225
97799SOL    HW195236  14.540   0.741   9.314
97799SOL    HW295237  14.639   0.755   9.200
97800SOL     OW95238   5.699   4.721   5.123
97800SOL    HW195239   5.778   4.768   5.098
97800SOL    HW295240   5.630   4.759   5.069
97801SOL     OW95241   1.918   5.384   8.435
97801SOL    HW195242   2.000   5.335   8.444
97801SOL    HW295243   1.941   5.475   8.456
97802SOL     OW95244   6.792  10.773   4.902
97802SOL    HW195245   6.752  10.791   4.818
97802SOL    HW295246   6.723  10.787   4.966
97803SOL     OW95247  10.542   0.953   5.936
97803SOL    HW195248  10.472   1.016   5.957
97803SOL    HW295249  10.611   0.972   5.999
97804SOL     OW95250   6.012  11.899  14.627
97804SOL    HW195251   5.957  11.938  14.558
97804SOL    HW295252   6.048  11.820  14.587
97805SOL     OW95253   4.116   1.248   7.326
97805SOL    HW195254   4.191   1.189   7.317
97805SOL    HW295255   4.128   1.311   7.255
97806SOL     OW95256   4.345   1.421   6.146
97806SOL    HW195257   4.417   1.468   6.103
97806SOL    HW295258   4.272   1.426   6.084
97807SOL     OW95259  10.685  10.291   0.014
97807SOL    HW195260  10.763  10.284   0.068
97807SOL    HW295261  10.647  10.375   0.039
97808SOL     OW95262   5.227  11.181   3.698
97808SOL    HW195263   5.302  11.240   3.698
97808SOL    HW295264   5.252  11.111   3.759
97809SOL     OW95265  11.358   4.908   1.222
97809SOL    HW195266  11.423   4.846   1.255
97809SOL    HW295267  11.404   4.958   1.154
97810SOL     OW95268   6.129   8.764   6.028
97810SOL    HW195269   6.062   8.800   6.086
97810SOL    HW295270   6.079   8.723   5.957
97811SOL     OW95271   5.189   7.183   2.231
97811SOL    HW195272   5.143   7.132   2.165
97811SOL    HW295273   5.244   7.119   2.277
97812SOL     OW95274   3.988  12.148   6.230
97812SOL    HW195275   4.048  12.217   6.202
97812SOL    HW295276   4.033  12.067   6.207
97813SOL     OW95277  13.777   6.451   7.215
97813SOL    HW195278  13.718   6.492   7.278
97813SOL    HW295279  13.793   6.364   7.250
97814SOL     OW95280   6.254  11.571   2.187
97814SOL    HW195281   6.159  11.569   2.176
97814SOL    HW295282   6.285  11.489   2.148
97815SOL     OW95283   4.074   4.033   0.349
97815SOL    HW195284   3.985   3.996   0.345
97815SOL    HW295285   4.090   4.068   0.262
97816SOL     OW95286   5.190   2.668   3.170
97816SOL    HW195287   5.268   2.660   3.115
97816SOL    HW295288   5.215   2.626   3.253
97817SOL     OW95289   9.025   8.456   1.167
97817SOL    HW195290   8.986   8.392   1.108
97817SOL    HW295291   8.981   8.441   1.251
97818SOL     OW95292   1.281   4.477  12.127
97818SOL    HW195293   1.275   4.383  12.140
97818SOL    HW295294   1.343   4.507  12.193
97819SOL     OW95295   3.693   7.137  12.809
97819SOL    HW195296   3.750   7.159  12.735
97819SOL    HW295297   3.608   7.174  12.786
97820SOL     OW95298   4.994   4.211   5.439
97820SOL    HW195299   4.926   4.229   5.374
97820SOL    HW295300   5.070   4.263   5.411
97821SOL     OW95301   9.432   2.014  13.128
97821SOL    HW195302   9.444   1.946  13.195
97821SOL    HW295303   9.369   1.975  13.067
97822SOL     OW95304   9.736   4.681   4.038
97822SOL    HW195305   9.738   4.741   3.964
97822SOL    HW295306   9.828   4.664   4.058
97823SOL     OW95307   3.646  12.674   2.623
97823SOL    HW195308   3.695  12.598   2.654
97823SOL    HW295309   3.664  12.742   2.688
97824SOL     OW95310   2.816   8.087  14.821
97824SOL    HW195311   2.811   8.012   0.006
97824SOL    HW295312   2.771   8.158  14.867
97825SOL     OW95313  13.835   8.150   3.252
97825SOL    HW195314  13.770   8.183   3.314
97825SOL    HW295315  13.883   8.227   3.224
97826SOL     OW95316   8.282  12.943   6.654
97826SOL    HW195317   8.258  12.979   6.739
97826SOL    HW295318   8.200  12.911   6.617
97827SOL     OW95319   6.153   0.845   8.003
97827SOL    HW195320   6.092   0.905   7.962
97827SOL    HW295321   6.102   0.802   8.072
97828SOL     OW95322  13.001   6.749  12.965
97828SOL    HW195323  12.996   6.821  13.028
97828SOL    HW295324  12.927   6.692  12.988
97829SOL     OW95325   2.375   7.240   9.015
97829SOL    HW195326   2.399   7.333   9.015
97829SOL    HW295327   2.368   7.217   8.923
97830SOL     OW95328   5.561   1.832  14.377
97830SOL    HW195329   5.637   1.891  14.379
97830SOL    HW295330   5.560   1.790  14.463
97831SOL     OW95331   1.359  13.384   5.100
97831SOL    HW195332   1.341  13.380   5.006
97831SOL    HW295333   1.396  13.298   5.121
97832SOL     OW95334   6.848  10.808  13.593
97832SOL    HW195335   6.769  10.769  13.631
97832SOL    HW295336   6.900  10.734  13.563
97833SOL     OW95337   9.826  12.615   8.381
97833SOL    HW195338   9.876  12.624   8.300
97833SOL    HW295339   9.747  12.667   8.366
97834SOL     OW95340   5.698  14.752   0.915
97834SOL    HW195341   5.743  14.730   0.996
97834SOL    HW295342   5.768  14.759   0.850
97835SOL     OW95343   6.237  10.326  11.699
97835SOL    HW195344   6.200  10.414  11.686
97835SOL    HW295345   6.253  10.294  11.610
97836SOL     OW95346   9.161   8.874   2.114
97836SOL    HW195347   9.225   8.919   2.170
97836SOL    HW295348   9.214   8.835   2.044
97837SOL     OW95349   7.286  11.633  10.791
97837SOL    HW195350   7.269  11.690  10.866
97837SOL    HW295351   7.226  11.665  10.723
97838SOL     OW95352  14.123   9.719   2.718
97838SOL    HW195353  14.101   9.670   2.798
97838SOL    HW295354  14.143   9.808   2.749
97839SOL     OW95355  11.166  10.466  13.731
97839SOL    HW195356  11.244  10.515  13.758
97839SOL    HW295357  11.189  10.429  13.646
97840SOL     OW95358  11.738   4.158   0.163
97840SOL    HW195359  11.750   4.204   0.080
97840SOL    HW295360  11.644   4.140   0.167
97841SOL     OW95361  11.354   0.493   1.475
97841SOL    HW195362  11.349   0.452   1.388
97841SOL    HW295363  11.383   0.582   1.457
97842SOL     OW95364   9.421   8.587   7.683
97842SOL    HW195365   9.361   8.640   7.734
97842SOL    HW295366   9.501   8.639   7.677
97843SOL     OW95367  10.290  13.495   2.539
97843SOL    HW195368  10.368  13.541   2.507
97843SOL    HW295369  10.288  13.513   2.633
97844SOL     OW95370   7.230  14.595   4.893
97844SOL    HW195371   7.260  14.509   4.923
97844SOL    HW295372   7.203  14.640   4.974
97845SOL     OW95373  13.881  12.425   2.113
97845SOL    HW195374  13.847  12.347   2.069
97845SOL    HW295375  13.813  12.491   2.102
97846SOL     OW95376   0.468  14.100   7.520
97846SOL    HW195377   0.534  14.088   7.451
97846SOL    HW295378   0.512  14.071   7.600
97847SOL     OW95379   6.878  11.649   1.534
97847SOL    HW195380   6.834  11.731   1.557
97847SOL    HW295381   6.958  11.649   1.587
97848SOL     OW95382   9.678   8.271   6.681
97848SOL    HW195383   9.624   8.341   6.644
97848SOL    HW295384   9.724   8.234   6.605
97849SOL     OW95385  11.661  12.789   5.531
97849SOL    HW195386  11.723  12.839   5.585
97849SOL    HW295387  11.650  12.706   5.577
97850SOL     OW95388   7.601   1.476   8.323
97850SOL    HW195389   7.579   1.385   8.339
97850SOL    HW295390   7.693   1.484   8.349
97851SOL     OW95391   5.758  14.138   2.609
97851SOL    HW195392   5.690  14.072   2.604
97851SOL    HW295393   5.724  14.205   2.668
97852SOL     OW95394   6.297  13.970   6.378
97852SOL    HW195395   6.293  13.887   6.425
97852SOL    HW295396   6.206  14.000   6.375
97853SOL     OW95397  11.649   9.843   0.708
97853SOL    HW195398  11.612   9.763   0.672
97853SOL    HW295399  11.666   9.823   0.800
97854SOL     OW95400  10.846   2.127   2.342
97854SOL    HW195401  10.794   2.107   2.264
97854SOL    HW295402  10.909   2.193   2.312
97855SOL     OW95403   1.411  12.627   0.338
97855SOL    HW195404   1.459  12.693   0.288
97855SOL    HW295405   1.470  12.552   0.341
97856SOL     OW95406   3.194   0.431   6.588
97856SOL    HW195407   3.265   0.470   6.538
97856SOL    HW295408   3.129   0.406   6.523
97857SOL     OW95409   5.663   8.983  10.335
97857SOL    HW195410   5.642   8.964  10.244
97857SOL    HW295411   5.758   8.978  10.340
97858SOL     OW95412   0.522   9.992   7.364
97858SOL    HW195413   0.442   9.942   7.376
97858SOL    HW295414   0.534   9.996   7.269
97859SOL     OW95415  12.467   4.256  13.666
97859SOL    HW195416  12.529   4.210  13.722
97859SOL    HW295417  12.463   4.345  13.702
97860SOL     OW95418  14.069   9.945   1.149
97860SOL    HW195419  14.100   9.930   1.238
97860SOL    HW295420  14.069   9.859   1.108
97861SOL     OW95421  11.986   0.297   5.002
97861SOL    HW195422  11.910   0.347   5.030
97861SOL    HW295423  12.049   0.363   4.974
97862SOL     OW95424  12.391  10.659  12.685
97862SOL    HW195425  12.473  10.611  12.674
97862SOL    HW295426  12.418  10.745  12.719
97863SOL     OW95427   9.719   6.511  13.164
97863SOL    HW195428   9.625   6.505  13.185
97863SOL    HW295429   9.733   6.603  13.143
97864SOL     OW95430  14.572   7.486   0.548
97864SOL    HW195431  14.532   7.416   0.496
97864SOL    HW295432  14.547   7.466   0.638
97865SOL     OW95433   1.765   6.643   8.107
97865SOL    HW195434   1.720   6.604   8.182
97865SOL    HW295435   1.749   6.737   8.117
97866SOL     OW95436   9.954   5.977  11.307
97866SOL    HW195437   9.921   6.032  11.236
97866SOL    HW295438   9.878   5.927  11.336
97867SOL     OW95439   3.858   5.187   9.376
97867SOL    HW195440   3.805   5.242   9.318
97867SOL    HW295441   3.939   5.236   9.388
97868SOL     OW95442  12.484   0.830   0.927
97868SOL    HW195443  12.471   0.871   0.842
97868SOL    HW295444  12.571   0.856   0.955
97869SOL     OW95445   6.451  13.477  13.935
97869SOL    HW195446   6.482  13.426  14.009
97869SOL    HW295447   6.523  13.476  13.872
97870SOL     OW95448  14.304   3.695  12.112
97870SOL    HW195449  14.399   3.682  12.119
97870SOL    HW295450  14.280   3.738  12.194
97871SOL     OW95451   1.482   5.544  14.804
97871SOL    HW195452   1.498   5.637  14.820
97871SOL    HW295453   1.451   5.511   0.014
97872SOL     OW95454   3.121  10.434   4.957
97872SOL    HW195455   3.082  10.347   4.949
97872SOL    HW295456   3.060  10.482   5.014
97873SOL     OW95457  14.307  10.774   0.303
97873SOL    HW195458  14.340  10.794   0.215
97873SOL    HW295459  14.226  10.726   0.288
97874SOL     OW95460   9.461  10.381  13.909
97874SOL    HW195461   9.521  10.310  13.929
97874SOL    HW295462   9.495  10.456  13.958
97875SOL     OW95463   5.669   5.346   9.608
97875SOL    HW195464   5.579   5.366   9.633
97875SOL    HW295465   5.712   5.431   9.603
97876SOL     OW95466   9.644   9.007   8.572
97876SOL    HW195467   9.570   9.037   8.625
97876SOL    HW295468   9.608   8.936   8.520
97877SOL     OW95469   8.973  11.505  10.946
97877SOL    HW195470   8.964  11.589  10.990
97877SOL    HW295471   8.883  11.480  10.924
97878SOL     OW95472   8.015  12.940   1.238
97878SOL    HW195473   8.072  13.011   1.267
97878SOL    HW295474   7.966  12.914   1.316
97879SOL     OW95475  14.823   9.728   2.544
97879SOL    HW195476  14.874   9.698   2.620
97879SOL    HW295477  14.770   9.800   2.578
97880SOL     OW95478   5.300   5.871  10.485
97880SOL    HW195479   5.360   5.879  10.559
97880SOL    HW295480   5.284   5.961  10.457
97881SOL     OW95481   0.302   6.567   0.271
97881SOL    HW195482   0.390   6.606   0.275
97881SOL    HW295483   0.315   6.475   0.295
97882SOL     OW95484   5.583   0.231   3.282
97882SOL    HW195485   5.501   0.219   3.234
97882SOL    HW295486   5.618   0.315   3.250
97883SOL     OW95487  14.273  14.390   1.618
97883SOL    HW195488  14.296  14.377   1.710
97883SOL    HW295489  14.185  14.355   1.610
97884SOL     OW95490  14.621   4.667  10.286
97884SOL    HW195491  14.711   4.641  10.306
97884SOL    HW295492  14.629   4.750  10.240
97885SOL     OW95493   9.782   0.692   9.203
97885SOL    HW195494   9.699   0.719   9.242
97885SOL    HW295495   9.790   0.599   9.225
97886SOL     OW95496  11.004  10.788   4.591
97886SOL    HW195497  10.983  10.696   4.572
97886SOL    HW295498  10.991  10.795   4.686
97887SOL     OW95499   7.959   0.355   6.688
97887SOL    HW195500   7.886   0.354   6.627
97887SOL    HW295501   7.951   0.437   6.736
97888SOL     OW95502   5.721   0.228   7.305
97888SOL    HW195503   5.784   0.242   7.376
97888SOL    HW295504   5.649   0.179   7.345
97889SOL     OW95505   3.884  10.017   7.367
97889SOL    HW195506   3.964  10.042   7.414
97889SOL    HW295507   3.850   9.942   7.416
97890SOL     OW95508  11.162   2.387   0.846
97890SOL    HW195509  11.146   2.360   0.937
97890SOL    HW295510  11.231   2.327   0.816
97891SOL     OW95511   6.308   9.243  13.424
97891SOL    HW195512   6.356   9.315  13.383
97891SOL    HW295513   6.216   9.262  13.405
97892SOL     OW95514   3.593  13.889   3.784
97892SOL    HW195515   3.598  13.822   3.853
97892SOL    HW295516   3.505  13.926   3.793
97893SOL     OW95517  10.549  11.910   1.899
97893SOL    HW195518  10.583  11.928   1.812
97893SOL    HW295519  10.608  11.843   1.935
97894SOL     OW95520   8.248  14.862   9.045
97894SOL    HW195521   8.173  14.837   8.991
97894SOL    HW295522   8.324  14.839   8.992
97895SOL     OW95523  11.303   2.092   9.512
97895SOL    HW195524  11.225   2.147   9.506
97895SOL    HW295525  11.363   2.128   9.446
97896SOL     OW95526   5.875   4.417   0.391
97896SOL    HW195527   5.819   4.492   0.372
97896SOL    HW295528   5.964   4.452   0.383
97897SOL     OW95529   9.401  12.579   9.416
97897SOL    HW195530   9.393  12.656   9.472
97897SOL    HW295531   9.495  12.571   9.401
97898SOL     OW95532  12.811   8.283   2.808
97898SOL    HW195533  12.892   8.325   2.838
97898SOL    HW295534  12.777   8.343   2.741
97899SOL     OW95535   0.416   5.733   5.415
97899SOL    HW195536   0.389   5.742   5.324
97899SOL    HW295537   0.441   5.641   5.424
97900SOL     OW95538   1.961  14.146  13.827
97900SOL    HW195539   2.026  14.215  13.830
97900SOL    HW295540   1.922  14.147  13.915
97901SOL     OW95541   8.841   8.155   0.555
97901SOL    HW195542   8.763   8.102   0.544
97901SOL    HW295543   8.913   8.092   0.559
97902SOL     OW95544  13.360   3.179   5.078
97902SOL    HW195545  13.319   3.112   5.024
97902SOL    HW295546  13.286   3.223   5.121
97903SOL     OW95547  13.424  12.702   4.975
97903SOL    HW195548  13.494  12.642   4.951
97903SOL    HW295549  13.403  12.680   5.066
97904SOL     OW95550  13.597   8.295   7.431
97904SOL    HW195551  13.685   8.328   7.413
97904SOL    HW295552  13.539   8.369   7.413
97905SOL     OW95553  11.432   5.883   2.232
97905SOL    HW195554  11.462   5.971   2.207
97905SOL    HW295555  11.455   5.828   2.157
97906SOL     OW95556  13.804  11.201   0.313
97906SOL    HW195557  13.877  11.212   0.375
97906SOL    HW295558  13.784  11.290   0.284
97907SOL     OW95559  10.154  13.497   6.895
97907SOL    HW195560  10.151  13.413   6.941
97907SOL    HW295561  10.166  13.562   6.965
97908SOL     OW95562   7.516   3.678  11.892
97908SOL    HW195563   7.502   3.748  11.828
97908SOL    HW295564   7.584   3.713  11.950
97909SOL     OW95565   9.450  14.778   0.481
97909SOL    HW195566   9.534  14.745   0.449
97909SOL    HW295567   9.446  14.869   0.451
97910SOL     OW95568  11.600  12.178   1.655
97910SOL    HW195569  11.610  12.273   1.656
97910SOL    HW295570  11.617  12.151   1.745
97911SOL     OW95571   4.364   7.766  10.173
97911SOL    HW195572   4.291   7.819  10.207
97911SOL    HW295573   4.400   7.723  10.250
97912SOL     OW95574  14.554   2.587   5.902
97912SOL    HW195575  14.638   2.631   5.908
97912SOL    HW295576  14.542   2.569   5.809
97913SOL     OW95577   9.206   7.198   3.101
97913SOL    HW195578   9.275   7.135   3.082
97913SOL    HW295579   9.240   7.282   3.069
97914SOL     OW95580   1.167  10.132   2.263
97914SOL    HW195581   1.145  10.203   2.203
97914SOL    HW295582   1.243  10.165   2.313
97915SOL     OW95583   4.890   9.710  11.478
97915SOL    HW195584   4.921   9.653  11.548
97915SOL    HW295585   4.816   9.758  11.517
97916SOL     OW95586   5.816   6.344   9.807
97916SOL    HW195587   5.901   6.317   9.772
97916SOL    HW295588   5.834   6.424   9.856
97917SOL     OW95589   1.681   4.132  14.658
97917SOL    HW195590   1.740   4.205  14.677
97917SOL    HW295591   1.737   4.055  14.664
97918SOL     OW95592   5.249  12.392  10.190
97918SOL    HW195593   5.310  12.402  10.263
97918SOL    HW295594   5.173  12.348  10.228
97919SOL     OW95595   4.178  12.635   2.635
97919SOL    HW195596   4.178  12.653   2.541
97919SOL    HW295597   4.270  12.624   2.658
97920SOL     OW95598  13.254  14.844  11.346
97920SOL    HW195599  13.333  14.804  11.383
97920SOL    HW295600  13.263   0.063  11.368
97921SOL     OW95601   2.212   1.433   7.895
97921SOL    HW195602   2.182   1.501   7.956
97921SOL    HW295603   2.307   1.446   7.891
97922SOL     OW95604   7.295  12.415   4.499
97922SOL    HW195605   7.324  12.389   4.411
97922SOL    HW295606   7.369  12.396   4.556
97923SOL     OW95607   7.176  14.674   8.938
97923SOL    HW195608   7.118  14.598   8.951
97923SOL    HW295609   7.130  14.747   8.979
97924SOL     OW95610  14.692   5.450  14.523
97924SOL    HW195611  14.759   5.386  14.500
97924SOL    HW295612  14.614   5.397  14.542
97925SOL     OW95613   6.074  13.280   4.514
97925SOL    HW195614   6.092  13.318   4.428
97925SOL    HW295615   5.990  13.318   4.540
97926SOL     OW95616   8.928   0.156   0.823
97926SOL    HW195617   8.936   0.229   0.884
97926SOL    HW295618   8.981   0.086   0.861
97927SOL     OW95619   4.066   6.041   9.161
97927SOL    HW195620   4.073   5.991   9.080
97927SOL    HW295621   4.138   6.009   9.216
97928SOL     OW95622   1.608   5.038   0.523
97928SOL    HW195623   1.655   5.113   0.561
97928SOL    HW295624   1.656   5.018   0.443
97929SOL     OW95625   4.046   0.738  12.563
97929SOL    HW195626   4.079   0.649  12.551
97929SOL    HW295627   4.108   0.780  12.622
97930SOL     OW95628   5.351  11.935   1.428
97930SOL    HW195629   5.366  11.899   1.341
97930SOL    HW295630   5.373  11.864   1.488
97931SOL     OW95631   3.597   5.625   1.958
97931SOL    HW195632   3.601   5.666   1.871
97931SOL    HW295633   3.558   5.691   2.014
97932SOL     OW95634   6.763   4.958   5.603
97932SOL    HW195635   6.854   4.981   5.583
97932SOL    HW295636   6.761   4.862   5.596
97933SOL     OW95637   5.456  10.700   5.908
97933SOL    HW195638   5.537  10.738   5.943
97933SOL    HW295639   5.394  10.707   5.981
97934SOL     OW95640   6.374   1.434  14.462
97934SOL    HW195641   6.426   1.514  14.449
97934SOL    HW295642   6.365   1.427  14.557
97935SOL     OW95643   2.388  13.558   3.610
97935SOL    HW195644   2.373  13.653   3.612
97935SOL    HW295645   2.389  13.531   3.701
97936SOL     OW95646   6.443   9.755  11.299
97936SOL    HW195647   6.532   9.748  11.267
97936SOL    HW295648   6.452   9.784  11.390
97937SOL     OW95649   6.942   0.669   4.581
97937SOL    HW195650   7.003   0.612   4.626
97937SOL    HW295651   6.979   0.757   4.592
97938SOL     OW95652  11.690  12.839  14.151
97938SOL    HW195653  11.638  12.893  14.091
97938SOL    HW295654  11.659  12.863  14.238
97939SOL     OW95655   0.585  12.557   4.784
97939SOL    HW195656   0.663  12.613   4.785
97939SOL    HW295657   0.577  12.527   4.874
97940SOL     OW95658   0.965  11.291  11.921
97940SOL    HW195659   0.901  11.221  11.912
97940SOL    HW295660   1.034  11.254  11.976
97941SOL     OW95661  10.120  13.295   2.189
97941SOL    HW195662  10.117  13.390   2.183
97941SOL    HW295663  10.030  13.267   2.176
97942SOL     OW95664   0.642   5.743  13.967
97942SOL    HW195665   0.641   5.839  13.966
97942SOL    HW295666   0.735   5.721  13.960
97943SOL     OW95667   1.610   8.767   5.298
97943SOL    HW195668   1.577   8.677   5.297
97943SOL    HW295669   1.700   8.759   5.267
97944SOL     OW95670  13.711  13.082  11.132
97944SOL    HW195671  13.631  13.134  11.130
97944SOL    HW295672  13.756  13.103  11.051
97945SOL     OW95673   6.669   8.963  10.453
97945SOL    HW195674   6.686   8.967  10.359
97945SOL    HW295675   6.663   9.054  10.481
97946SOL     OW95676   1.391   9.402  12.161
97946SOL    HW195677   1.314   9.456  12.178
97946SOL    HW295678   1.389   9.335  12.230
97947SOL     OW95679   5.840  12.886  13.061
97947SOL    HW195680   5.926  12.869  13.022
97947SOL    HW295681   5.859  12.913  13.151
97948SOL     OW95682  14.336  14.241   6.817
97948SOL    HW195683  14.371  14.304   6.880
97948SOL    HW295684  14.245  14.267   6.804
97949SOL     OW95685   9.641  13.565   7.066
97949SOL    HW195686   9.628  13.640   7.008
97949SOL    HW295687   9.574  13.575   7.134
97950SOL     OW95688   0.470   1.958   4.429
97950SOL    HW195689   0.525   1.995   4.360
97950SOL    HW295690   0.409   1.900   4.383
97951SOL     OW95691   8.093  12.912   8.553
97951SOL    HW195692   8.101  12.998   8.595
97951SOL    HW295693   8.127  12.851   8.619
97952SOL     OW95694  14.361  12.790   2.664
97952SOL    HW195695  14.274  12.830   2.666
97952SOL    HW295696  14.384  12.786   2.571
97953SOL     OW95697   5.084   0.447  10.884
97953SOL    HW195698   5.160   0.504  10.875
97953SOL    HW295699   5.120   0.359  10.890
97954SOL     OW95700  13.427   3.862   0.314
97954SOL    HW195701  13.404   3.782   0.265
97954SOL    HW295702  13.343   3.902   0.335
97955SOL     OW95703   6.152   1.078  13.515
97955SOL    HW195704   6.173   1.103  13.605
97955SOL    HW295705   6.056   1.079  13.512
97956SOL     OW95706   5.574   0.695   4.239
97956SOL    HW195707   5.556   0.762   4.172
97956SOL    HW295708   5.585   0.614   4.189
97957SOL     OW95709   3.515  10.211   6.838
97957SOL    HW195710   3.498  10.203   6.744
97957SOL    HW295711   3.575  10.285   6.845
97958SOL     OW95712  14.683   5.672   8.129
97958SOL    HW195713  14.605   5.719   8.101
97958SOL    HW295714  14.649   5.598   8.180
97959SOL     OW95715   5.897  14.843   3.825
97959SOL    HW195716   5.895  14.756   3.865
97959SOL    HW295717   5.916   0.028   3.897
97960SOL     OW95718  10.811  14.495  11.310
97960SOL    HW195719  10.722  14.460  11.321
97960SOL    HW295720  10.861  14.458  11.383
97961SOL     OW95721  10.602   0.721  14.418
97961SOL    HW195722  10.581   0.810  14.389
97961SOL    HW295723  10.528   0.695  14.472
97962SOL     OW95724  11.551  13.647  11.163
97962SOL    HW195725  11.507  13.625  11.244
97962SOL    HW295726  11.529  13.575  11.103
97963SOL     OW95727  14.017   6.257  10.724
97963SOL    HW195728  14.049   6.289  10.809
97963SOL    HW295729  13.962   6.181  10.746
97964SOL     OW95730   9.407  10.626   6.484
97964SOL    HW195731   9.429  10.541   6.446
97964SOL    HW295732   9.485  10.651   6.534
97965SOL     OW95733   0.959   1.248   5.006
97965SOL    HW195734   1.047   1.223   4.980
97965SOL    HW295735   0.969   1.337   5.041
97966SOL     OW95736   1.973   4.396   4.037
97966SOL    HW195737   1.910   4.357   4.098
97966SOL    HW295738   2.056   4.352   4.057
97967SOL     OW95739   8.533   5.034  11.354
97967SOL    HW195740   8.627   5.018  11.344
97967SOL    HW295741   8.528   5.110  11.413
97968SOL     OW95742  10.041  14.317   6.457
97968SOL    HW195743  10.010  14.233   6.491
97968SOL    HW295744   9.966  14.353   6.410
97969SOL     OW95745  13.555   4.852  14.835
97969SOL    HW195746  13.505   4.773  14.854
97969SOL    HW295747  13.501   4.900  14.772
97970SOL     OW95748   1.819  12.619  10.806
97970SOL    HW195749   1.795  12.565  10.881
97970SOL    HW295750   1.758  12.594  10.737
97971SOL     OW95751  11.567   7.320   7.159
97971SOL    HW195752  11.478   7.306   7.126
97971SOL    HW295753  11.623   7.310   7.083
97972SOL     OW95754   4.941   5.798   4.098
97972SOL    HW195755   4.944   5.881   4.144
97972SOL    HW295756   4.931   5.732   4.167
97973SOL     OW95757   7.993  14.506   2.236
97973SOL    HW195758   7.971  14.427   2.286
97973SOL    HW295759   7.939  14.574   2.275
97974SOL     OW95760  13.649   2.097   1.347
97974SOL    HW195761  13.616   2.080   1.258
97974SOL    HW295762  13.628   2.018   1.396
97975SOL     OW95763   0.858   6.854   0.443
97975SOL    HW195764   0.841   6.947   0.426
97975SOL    HW295765   0.869   6.849   0.538
97976SOL     OW95766  14.789   8.804   6.503
97976SOL    HW195767  14.822   8.841   6.585
97976SOL    HW295768  14.802   8.874   6.439
97977SOL     OW95769   9.511  12.725   7.055
97977SOL    HW195770   9.570  12.790   7.093
97977SOL    HW295771   9.523  12.735   6.960
97978SOL     OW95772   5.317   1.687  10.758
97978SOL    HW195773   5.359   1.656  10.678
97978SOL    HW295774   5.242   1.629  10.770
97979SOL     OW95775   8.048  12.831   1.700
97979SOL    HW195776   8.125  12.875   1.736
97979SOL    HW295777   7.975  12.889   1.722
97980SOL     OW95778   1.409   3.989   2.876
97980SOL    HW195779   1.464   3.929   2.827
97980SOL    HW295780   1.388   4.059   2.813
97981SOL     OW95781  11.850   0.215  10.642
97981SOL    HW195782  11.929   0.245  10.597
97981SOL    HW295783  11.787   0.200  10.571
97982SOL     OW95784   7.583   4.921   6.264
97982SOL    HW195785   7.596   4.849   6.203
97982SOL    HW295786   7.612   4.999   6.217
97983SOL     OW95787   1.816   1.860   3.853
97983SOL    HW195788   1.767   1.816   3.923
97983SOL    HW295789   1.753   1.922   3.816
97984SOL     OW95790   0.030  10.132   5.031
97984SOL    HW195791   0.120  10.122   5.000
97984SOL    HW295792   0.003  10.042   5.052
97985SOL     OW95793  12.962   9.450  12.627
97985SOL    HW195794  13.046   9.441  12.671
97985SOL    HW295795  12.933   9.360  12.612
97986SOL     OW95796   5.380  12.619   6.114
97986SOL    HW195797   5.439  12.548   6.139
97986SOL    HW295798   5.419  12.698   6.152
97987SOL     OW95799   9.468   5.863  11.753
97987SOL    HW195800   9.454   5.953  11.724
97987SOL    HW295801   9.477   5.812  11.672
97988SOL     OW95802   5.820   6.350  12.438
97988SOL    HW195803   5.868   6.432  12.428
97988SOL    HW295804   5.816   6.335  12.532
97989SOL     OW95805   7.871  14.485   1.483
97989SOL    HW195806   7.866  14.581   1.479
97989SOL    HW295807   7.846  14.457   1.396
97990SOL     OW95808   3.878  14.281  10.833
97990SOL    HW195809   3.953  14.339  10.827
97990SOL    HW295810   3.911  14.203  10.877
97991SOL     OW95811   9.430  11.385   8.815
97991SOL    HW195812   9.340  11.372   8.788
97991SOL    HW295813   9.429  11.371   8.910
97992SOL     OW95814   2.629  10.842   1.097
97992SOL    HW195815   2.649  10.932   1.070
97992SOL    HW295816   2.678  10.831   1.179
97993SOL     OW95817  14.309  11.470  13.334
97993SOL    HW195818  14.246  11.400  13.349
97993SOL    HW295819  14.258  11.551  13.341
97994SOL     OW95820  13.185   2.480  10.266
97994SOL    HW195821  13.162   2.559  10.315
97994SOL    HW295822  13.149   2.409  10.319
97995SOL     OW95823   7.163  11.830  12.707
97995SOL    HW195824   7.226  11.864  12.644
97995SOL    HW295825   7.100  11.901  12.718
97996SOL     OW95826   7.578   3.733   2.845
97996SOL    HW195827   7.485   3.752   2.858
97996SOL    HW295828   7.618   3.818   2.829
97997SOL     OW95829  13.939   2.017   1.098
97997SOL    HW195830  13.994   2.046   1.026
97997SOL    HW295831  13.997   1.963   1.153
97998SOL     OW95832   2.368  13.877   3.623
97998SOL    HW195833   2.437  13.914   3.567
97998SOL    HW295834   2.381  13.920   3.708
97999SOL     OW95835   8.826   2.529  14.410
97999SOL    HW195836   8.915   2.537  14.443
97999SOL    HW295837   8.777   2.596  14.457
98000SOL     OW95838   4.157  12.656  11.693
98000SOL    HW195839   4.091  12.725  11.696
98000SOL    HW295840   4.238  12.699  11.721
98001SOL     OW95841   8.704   2.685   5.900
98001SOL    HW195842   8.711   2.779   5.884
98001SOL    HW295843   8.673   2.678   5.990
98002SOL     OW95844  11.813   0.731  10.255
98002SOL    HW195845  11.896   0.688  10.277
98002SOL    HW295846  11.753   0.660  10.234
98003SOL     OW95847  11.296  13.034   0.498
98003SOL    HW195848  11.378  13.044   0.450
98003SOL    HW295849  11.246  12.970   0.447
98004SOL     OW95850   7.901  13.435   6.785
98004SOL    HW195851   7.875  13.345   6.767
98004SOL    HW295852   7.865  13.485   6.712
98005SOL     OW95853   7.278  12.901   5.677
98005SOL    HW195854   7.316  12.932   5.595
98005SOL    HW295855   7.314  12.813   5.689
98006SOL     OW95856   5.592   0.858   7.434
98006SOL    HW195857   5.618   0.803   7.360
98006SOL    HW295858   5.603   0.802   7.510
98007SOL     OW95859   9.458   1.638   4.637
98007SOL    HW195860   9.542   1.592   4.630
98007SOL    HW295861   9.407   1.586   4.699
98008SOL     OW95862  11.585   7.696  14.488
98008SOL    HW195863  11.529   7.699  14.410
98008SOL    HW295864  11.527   7.664  14.557
98009SOL     OW95865   7.745  11.989   0.811
98009SOL    HW195866   7.833  11.995   0.848
98009SOL    HW295867   7.695  11.940   0.877
98010SOL     OW95868   2.715   4.703  13.319
98010SOL    HW195869   2.788   4.762  13.301
98010SOL    HW295870   2.647   4.760  13.356
98011SOL     OW95871   7.315   4.723   9.984
98011SOL    HW195872   7.294   4.639   9.944
98011SOL    HW295873   7.251   4.734  10.054
98012SOL     OW95874  12.367   3.499  12.015
98012SOL    HW195875  12.390   3.592  12.011
98012SOL    HW295876  12.451   3.453  12.020
98013SOL     OW95877  10.419   4.843   5.404
98013SOL    HW195878  10.465   4.926   5.416
98013SOL    HW295879  10.476   4.778   5.445
98014SOL     OW95880   6.160   1.353   6.257
98014SOL    HW195881   6.148   1.297   6.334
98014SOL    HW295882   6.191   1.436   6.293
98015SOL     OW95883  13.984   5.668   2.738
98015SOL    HW195884  14.020   5.749   2.702
98015SOL    HW295885  14.055   5.632   2.790
98016SOL     OW95886  12.372  12.356  12.584
98016SOL    HW195887  12.459  12.332  12.551
98016SOL    HW295888  12.343  12.427  12.527
98017SOL     OW95889   7.570   3.689  13.840
98017SOL    HW195890   7.534   3.758  13.894
98017SOL    HW295891   7.638   3.732  13.787
98018SOL     OW95892   0.598   6.292   1.362
98018SOL    HW195893   0.676   6.316   1.312
98018SOL    HW295894   0.596   6.356   1.434
98019SOL     OW95895   1.637   5.290  12.009
98019SOL    HW195896   1.687   5.211  11.992
98019SOL    HW295897   1.616   5.286  12.102
98020SOL     OW95898   9.744  12.918   4.403
98020SOL    HW195899   9.727  12.975   4.328
98020SOL    HW295900   9.816  12.863   4.376
98021SOL     OW95901   9.454  12.697  13.923
98021SOL    HW195902   9.498  12.685  14.007
98021SOL    HW295903   9.409  12.614  13.908
98022SOL     OW95904   6.405   1.848  14.356
98022SOL    HW195905   6.426   1.809  14.440
98022SOL    HW295906   6.310   1.842  14.349
98023SOL     OW95907  10.381   9.049   8.599
98023SOL    HW195908  10.353   9.107   8.670
98023SOL    HW295909  10.320   9.067   8.528
98024SOL     OW95910  10.429   7.961  12.955
98024SOL    HW195911  10.471   7.990  12.874
98024SOL    HW295912  10.501   7.944  13.015
98025SOL     OW95913   9.911   0.859   8.384
98025SOL    HW195914   9.820   0.873   8.356
98025SOL    HW295915   9.925   0.924   8.452
98026SOL     OW95916   7.483  11.550   8.855
98026SOL    HW195917   7.497  11.455   8.859
98026SOL    HW295918   7.392  11.560   8.828
98027SOL     OW95919   0.053   7.498  11.091
98027SOL    HW195920   0.012   7.583  11.077
98027SOL    HW295921   0.086   7.501  11.181
98028SOL     OW95922   1.777   7.405   9.577
98028SOL    HW195923   1.809   7.315   9.568
98028SOL    HW295924   1.810   7.433   9.662
98029SOL     OW95925   5.720   9.337   7.118
98029SOL    HW195926   5.632   9.301   7.131
98029SOL    HW295927   5.775   9.287   7.179
98030SOL     OW95928   7.025  12.267   3.275
98030SOL    HW195929   7.073  12.282   3.194
98030SOL    HW295930   6.966  12.194   3.255
98031SOL     OW95931  12.951  14.844   5.714
98031SOL    HW195932  13.042  14.825   5.688
98031SOL    HW295933  12.908  14.759   5.714
98032SOL     OW95934   5.522   9.709   4.472
98032SOL    HW195935   5.611   9.695   4.506
98032SOL    HW295936   5.470   9.642   4.515
98033SOL     OW95937   6.715   3.722   4.540
98033SOL    HW195938   6.634   3.679   4.568
98033SOL    HW295939   6.692   3.768   4.460
98034SOL     OW95940   2.775   7.310   8.174
98034SOL    HW195941   2.722   7.311   8.095
98034SOL    HW295942   2.766   7.399   8.210
98035SOL     OW95943   2.375   2.134   5.688
98035SOL    HW195944   2.325   2.134   5.770
98035SOL    HW295945   2.319   2.088   5.626
98036SOL     OW95946  10.831   5.506   4.595
98036SOL    HW195947  10.806   5.547   4.677
98036SOL    HW295948  10.818   5.574   4.529
98037SOL     OW95949   5.308   9.926   2.163
98037SOL    HW195950   5.383   9.906   2.108
98037SOL    HW295951   5.323   9.877   2.244
98038SOL     OW95952   2.723  12.877   5.944
98038SOL    HW195953   2.644  12.852   5.898
98038SOL    HW295954   2.741  12.966   5.914
98039SOL     OW95955   1.606   5.287  10.868
98039SOL    HW195956   1.684   5.265  10.816
98039SOL    HW295957   1.539   5.309  10.804
98040SOL     OW95958   2.898   9.294   2.812
98040SOL    HW195959   2.945   9.339   2.742
98040SOL    HW295960   2.807   9.320   2.800
98041SOL     OW95961   3.953   5.800  11.903
98041SOL    HW195962   3.863   5.766  11.897
98041SOL    HW295963   4.000   5.733  11.952
98042SOL     OW95964  10.371   4.948   2.629
98042SOL    HW195965  10.356   4.901   2.711
98042SOL    HW295966  10.290   4.997   2.615
98043SOL     OW95967   4.988  12.884   5.516
98043SOL    HW195968   4.970  12.795   5.545
98043SOL    HW295969   4.948  12.890   5.429
98044SOL     OW95970   6.899   3.547   8.431
98044SOL    HW195971   6.831   3.489   8.396
98044SOL    HW295972   6.949   3.574   8.354
98045SOL     OW95973   0.716   0.464   0.992
98045SOL    HW195974   0.659   0.391   1.014
98045SOL    HW295975   0.767   0.434   0.917
98046SOL     OW95976  12.948   2.240  12.430
98046SOL    HW195977  12.998   2.316  12.460
98046SOL    HW295978  12.920   2.264  12.341
98047SOL     OW95979   5.552  13.183   0.604
98047SOL    HW195980   5.601  13.132   0.539
98047SOL    HW295981   5.519  13.259   0.556
98048SOL     OW95982   5.189   0.152   5.622
98048SOL    HW195983   5.095   0.144   5.602
98048SOL    HW295984   5.205   0.083   5.686
98049SOL     OW95985  11.730  11.089   3.045
98049SOL    HW195986  11.779  11.062   3.122
98049SOL    HW295987  11.736  11.184   3.045
98050SOL     OW95988  11.452   7.768   6.663
98050SOL    HW195989  11.372   7.778   6.716
98050SOL    HW295990  11.523   7.783   6.726
98051SOL     OW95991  14.538   2.932   5.928
98051SOL    HW195992  14.508   2.913   5.839
98051SOL    HW295993  14.459   2.925   5.982
98052SOL     OW95994  10.753  10.202  10.526
98052SOL    HW195995  10.776  10.279  10.578
98052SOL    HW295996  10.821  10.197  10.459
98053SOL     OW95997  13.766   0.356  13.218
98053SOL    HW195998  13.784   0.360  13.312
98053SOL    HW295999  13.777   0.264  13.194
98054SOL     OW96000   8.004  11.997   1.462
98054SOL    HW196001   7.937  12.011   1.529
98054SOL    HW296002   8.040  12.084   1.445
98055SOL     OW96003   9.336   9.848   5.048
98055SOL    HW196004   9.398   9.832   5.119
98055SOL    HW296005   9.378   9.809   4.971
98056SOL     OW96006   3.795   9.430   7.335
98056SOL    HW196007   3.753   9.477   7.407
98056SOL    HW296008   3.771   9.479   7.257
98057SOL     OW96009   6.761   0.007  11.365
98057SOL    HW196010   6.738   0.079  11.424
98057SOL    HW296011   6.781   0.050  11.282
98058SOL     OW96012   9.032   6.144   9.514
98058SOL    HW196013   8.949   6.176   9.480
98058SOL    HW296014   9.009   6.064   9.562
98059SOL     OW96015   3.842   5.714  11.083
98059SOL    HW196016   3.869   5.790  11.031
98059SOL    HW296017   3.846   5.640  11.022
98060SOL     OW96018   1.822   4.515  11.759
98060SOL    HW196019   1.846   4.602  11.727
98060SOL    HW296020   1.787   4.470  11.682
98061SOL     OW96021   2.390   7.341   2.192
98061SOL    HW196022   2.452   7.355   2.119
98061SOL    HW296023   2.348   7.426   2.204
98062SOL     OW96024   5.340   0.437   2.765
98062SOL    HW196025   5.358   0.509   2.705
98062SOL    HW296026   5.407   0.372   2.746
98063SOL     OW96027   4.682   5.993  10.209
98063SOL    HW196028   4.757   6.047  10.185
98063SOL    HW296029   4.649   5.959  10.126
98064SOL     OW96030   9.760  14.336   0.196
98064SOL    HW196031   9.792  14.424   0.217
98064SOL    HW296032   9.672  14.351   0.159
98065SOL     OW96033   8.250   9.540   2.995
98065SOL    HW196034   8.164   9.579   2.980
98065SOL    HW296035   8.248   9.508   3.085
98066SOL     OW96036   9.869   0.948  11.093
98066SOL    HW196037   9.853   0.869  11.041
98066SOL    HW296038   9.958   0.937  11.126
98067SOL     OW96039   3.964   0.503   3.445
98067SOL    HW196040   3.982   0.410   3.440
98067SOL    HW296041   3.984   0.537   3.357
98068SOL     OW96042  12.288  11.427  10.633
98068SOL    HW196043  12.315  11.427  10.725
98068SOL    HW296044  12.310  11.339  10.602
98069SOL     OW96045   5.415   6.783   4.889
98069SOL    HW196046   5.344   6.846   4.895
98069SOL    HW296047   5.457   6.786   4.976
98070SOL     OW96048   6.461   8.423   4.486
98070SOL    HW196049   6.434   8.336   4.514
98070SOL    HW296050   6.549   8.434   4.521
98071SOL     OW96051  14.366   5.803   4.877
98071SOL    HW196052  14.391   5.715   4.848
98071SOL    HW296053  14.341   5.792   4.969
98072SOL     OW96054  13.344  10.897  12.787
98072SOL    HW196055  13.282  10.931  12.852
98072SOL    HW296056  13.324  10.947  12.708
98073SOL     OW96057   5.769   2.879   4.851
98073SOL    HW196058   5.720   2.949   4.808
98073SOL    HW296059   5.810   2.922   4.927
98074SOL     OW96060   8.463   1.199  14.247
98074SOL    HW196061   8.420   1.222  14.165
98074SOL    HW296062   8.545   1.249  14.245
98075SOL     OW96063   6.742  14.735   1.555
98075SOL    HW196064   6.829  14.739   1.595
98075SOL    HW296065   6.749  14.665   1.490
98076SOL     OW96066  13.974  13.683   6.480
98076SOL    HW196067  13.900  13.728   6.439
98076SOL    HW296068  14.051  13.713   6.431
98077SOL     OW96069   0.192  12.784  12.714
98077SOL    HW196070   0.189  12.766  12.808
98077SOL    HW296071   0.145  12.866  12.703
98078SOL     OW96072   7.279  11.428   9.369
98078SOL    HW196073   7.212  11.417   9.437
98078SOL    HW296074   7.361  11.435   9.417
98079SOL     OW96075  13.446   8.276  12.995
98079SOL    HW196076  13.511   8.346  12.991
98079SOL    HW296077  13.456   8.229  12.913
98080SOL     OW96078  14.710  13.890   7.083
98080SOL    HW196079  14.719  13.803   7.123
98080SOL    HW296080  14.620  13.915   7.101
98081SOL     OW96081  13.671  13.699   5.981
98081SOL    HW196082  13.716  13.680   5.899
98081SOL    HW296083  13.630  13.616   6.006
98082SOL     OW96084   7.776  10.873  14.116
98082SOL    HW196085   7.839  10.883  14.044
98082SOL    HW296086   7.787  10.782  14.144
98083SOL     OW96087  12.578   1.885   6.173
98083SOL    HW196088  12.555   1.935   6.252
98083SOL    HW296089  12.504   1.826   6.159
98084SOL     OW96090   7.832   5.798   0.655
98084SOL    HW196091   7.772   5.774   0.584
98084SOL    HW296092   7.914   5.754   0.634
98085SOL     OW96093   6.493   8.168   0.247
98085SOL    HW196094   6.413   8.201   0.287
98085SOL    HW296095   6.492   8.205   0.158
98086SOL     OW96096  12.685   0.003   4.908
98086SOL    HW196097  12.644   0.009   4.822
98086SOL    HW296098  12.634  14.811   4.955
98087SOL     OW96099   7.996   4.463   5.267
98087SOL    HW196100   8.059   4.517   5.220
98087SOL    HW296101   8.035   4.449   5.353
98088SOL     OW96102   1.172   4.046   9.626
98088SOL    HW196103   1.098   4.033   9.567
98088SOL    HW296104   1.192   3.959   9.660
98089SOL     OW96105  13.129  11.967   2.886
98089SOL    HW196106  13.158  12.025   2.957
98089SOL    HW296107  13.060  11.914   2.926
98090SOL     OW96108   6.936  10.027  11.570
98090SOL    HW196109   6.991  10.095  11.530
98090SOL    HW296110   6.868  10.076  11.617
98091SOL     OW96111  12.572   4.339   2.845
98091SOL    HW196112  12.530   4.300   2.922
98091SOL    HW296113  12.645   4.390   2.880
98092SOL     OW96114   4.494  10.811   0.776
98092SOL    HW196115   4.583  10.800   0.742
98092SOL    HW296116   4.506  10.854   0.861
98093SOL     OW96117  13.561   2.742  10.572
98093SOL    HW196118  13.549   2.752  10.477
98093SOL    HW296119  13.618   2.665  10.581
98094SOL     OW96120  11.586  13.781   8.960
98094SOL    HW196121  11.658  13.781   9.023
98094SOL    HW296122  11.600  13.701   8.909
98095SOL     OW96123   4.613   1.458   9.136
98095SOL    HW196124   4.651   1.372   9.120
98095SOL    HW296125   4.687   1.515   9.157
98096SOL     OW96126  13.884   6.731  11.780
98096SOL    HW196127  13.831   6.651  11.773
98096SOL    HW296128  13.929   6.722  11.864
98097SOL     OW96129   6.863   7.010   6.752
98097SOL    HW196130   6.793   7.024   6.688
98097SOL    HW296131   6.933   7.069   6.725
98098SOL     OW96132   4.289   7.284   1.835
98098SOL    HW196133   4.198   7.295   1.865
98098SOL    HW296134   4.334   7.244   1.909
98099SOL     OW96135   3.129  12.705   9.613
98099SOL    HW196136   3.107  12.788   9.654
98099SOL    HW296137   3.189  12.663   9.674
98100SOL     OW96138   6.666   5.423   1.553
98100SOL    HW196139   6.660   5.345   1.498
98100SOL    HW296140   6.733   5.402   1.617
98101SOL     OW96141   6.328  14.146   4.121
98101SOL    HW196142   6.350  14.053   4.111
98101SOL    HW296143   6.320  14.158   4.215
98102SOL     OW96144   3.852   3.991   1.367
98102SOL    HW196145   3.945   3.968   1.364
98102SOL    HW296146   3.845   4.071   1.316
98103SOL     OW96147   4.222   9.250   0.679
98103SOL    HW196148   4.267   9.279   0.599
98103SOL    HW296149   4.244   9.317   0.744
98104SOL     OW96150   0.869  11.325   1.053
98104SOL    HW196151   0.853  11.298   0.963
98104SOL    HW296152   0.901  11.246   1.096
98105SOL     OW96153  14.315  10.349  13.827
98105SOL    HW196154  14.253  10.397  13.771
98105SOL    HW296155  14.368  10.299  13.766
98106SOL     OW96156   0.285  14.099   4.309
98106SOL    HW196157   0.322  14.057   4.386
98106SOL    HW296158   0.358  14.149   4.272
98107SOL     OW96159   3.452   9.845   6.107
98107SOL    HW196160   3.386   9.879   6.167
98107SOL    HW296161   3.410   9.849   6.021
98108SOL     OW96162   7.132   9.473  13.684
98108SOL    HW196163   7.075   9.469  13.762
98108SOL    HW296164   7.205   9.528  13.711
98109SOL     OW96165   7.250   7.758   3.435
98109SOL    HW196166   7.217   7.804   3.513
98109SOL    HW296167   7.171   7.722   3.394
98110SOL     OW96168   9.778  14.604   5.321
98110SOL    HW196169   9.844  14.543   5.290
98110SOL    HW296170   9.825  14.664   5.378
98111SOL     OW96171  10.273  12.950   6.002
98111SOL    HW196172  10.202  13.010   5.981
98111SOL    HW296173  10.346  12.981   5.948
98112SOL     OW96174   0.746   7.934   9.757
98112SOL    HW196175   0.710   7.878   9.689
98112SOL    HW296176   0.839   7.941   9.736
98113SOL     OW96177   1.827  11.297  10.084
98113SOL    HW196178   1.815  11.251  10.167
98113SOL    HW296179   1.873  11.234  10.028
98114SOL     OW96180  12.599  12.614  11.256
98114SOL    HW196181  12.648  12.680  11.207
98114SOL    HW296182  12.548  12.664  11.319
98115SOL     OW96183   8.037  12.855  13.598
98115SOL    HW196184   7.979  12.860  13.522
98115SOL    HW296185   8.025  12.766  13.632
98116SOL     OW96186  13.981   5.952   9.457
98116SOL    HW196187  13.898   5.956   9.503
98116SOL    HW296188  13.971   5.881   9.394
98117SOL     OW96189   0.880   9.964  12.713
98117SOL    HW196190   0.907  10.044  12.758
98117SOL    HW296191   0.816   9.924  12.771
98118SOL     OW96192   6.972   7.612   4.639
98118SOL    HW196193   7.019   7.682   4.593
98118SOL    HW296194   6.969   7.642   4.730
98119SOL     OW96195   7.227   5.082   8.633
98119SOL    HW196196   7.319   5.083   8.609
98119SOL    HW296197   7.224   5.124   8.719
98120SOL     OW96198  13.992   7.102   6.052
98120SOL    HW196199  13.904   7.078   6.024
98120SOL    HW296200  13.979   7.159   6.127
98121SOL     OW96201   3.778   4.922  10.699
98121SOL    HW196202   3.740   4.866  10.767
98121SOL    HW296203   3.728   5.004  10.705
98122SOL     OW96204  10.353  14.252   3.109
98122SOL    HW196205  10.419  14.313   3.143
98122SOL    HW296206  10.362  14.258   3.014
98123SOL     OW96207  13.175  12.426   9.004
98123SOL    HW196208  13.213  12.341   8.985
98123SOL    HW296209  13.215  12.453   9.087
98124SOL     OW96210  14.684   6.224   9.374
98124SOL    HW196211  14.650   6.178   9.451
98124SOL    HW296212  14.679   6.160   9.303
98125SOL     OW96213   8.066   0.039   4.078
98125SOL    HW196214   8.049   0.054   3.985
98125SOL    HW296215   7.982   0.009   4.114
98126SOL     OW96216   4.076   4.476   6.515
98126SOL    HW196217   4.087   4.406   6.579
98126SOL    HW296218   4.107   4.439   6.432
98127SOL     OW96219   1.869   6.136   5.236
98127SOL    HW196220   1.811   6.088   5.296
98127SOL    HW296221   1.820   6.216   5.216
98128SOL     OW96222   7.097   7.973   2.476
98128SOL    HW196223   7.149   8.048   2.448
98128SOL    HW296224   7.082   7.922   2.396
98129SOL     OW96225   2.853   1.265   0.890
98129SOL    HW196226   2.782   1.324   0.865
98129SOL    HW296227   2.918   1.275   0.820
98130SOL     OW96228  12.045   2.728   2.780
98130SOL    HW196229  11.960   2.770   2.784
98130SOL    HW296230  12.049   2.690   2.692
98131SOL     OW96231   7.575   1.102   2.687
98131SOL    HW196232   7.581   1.106   2.592
98131SOL    HW296233   7.664   1.087   2.717
98132SOL     OW96234   8.966  13.405   7.706
98132SOL    HW196235   9.010  13.350   7.642
98132SOL    HW296236   8.888  13.438   7.661
98133SOL     OW96237   5.395   0.250   1.669
98133SOL    HW196238   5.300   0.245   1.659
98133SOL    HW296239   5.428   0.248   1.580
98134SOL     OW96240  12.291   2.775   7.236
98134SOL    HW196241  12.231   2.755   7.308
98134SOL    HW296242  12.313   2.868   7.248
98135SOL     OW96243   5.408   9.626   2.516
98135SOL    HW196244   5.355   9.605   2.439
98135SOL    HW296245   5.377   9.565   2.584
98136SOL     OW96246  10.872  13.634   6.198
98136SOL    HW196247  10.910  13.550   6.222
98136SOL    HW296248  10.831  13.666   6.278
98137SOL     OW96249   7.261   6.322  13.654
98137SOL    HW196250   7.344   6.320  13.607
98137SOL    HW296251   7.284   6.351  13.742
98138SOL     OW96252  14.156   4.334   9.437
98138SOL    HW196253  14.171   4.402   9.372
98138SOL    HW296254  14.064   4.311   9.427
98139SOL     OW96255  11.264   2.984   4.948
98139SOL    HW196256  11.217   3.062   4.979
98139SOL    HW296257  11.268   2.926   5.024
98140SOL     OW96258   5.296   8.783   1.414
98140SOL    HW196259   5.330   8.736   1.490
98140SOL    HW296260   5.246   8.717   1.365
98141SOL     OW96261  14.074   1.189   6.530
98141SOL    HW196262  14.008   1.137   6.484
98141SOL    HW296263  14.106   1.130   6.598
98142SOL     OW96264   1.593  14.362  12.552
98142SOL    HW196265   1.508  14.399  12.529
98142SOL    HW296266   1.626  14.418  12.622
98143SOL     OW96267  11.097   4.334  14.080
98143SOL    HW196268  11.151   4.412  14.061
98143SOL    HW296269  11.152   4.260  14.055
98144SOL     OW96270   9.504   4.802   9.729
98144SOL    HW196271   9.453   4.730   9.765
98144SOL    HW296272   9.506   4.868   9.798
98145SOL     OW96273  11.070   7.318   3.944
98145SOL    HW196274  11.096   7.255   4.012
98145SOL    HW296275  11.004   7.373   3.986
98146SOL     OW96276   0.919  14.275  10.125
98146SOL    HW196277   1.009  14.302  10.107
98146SOL    HW296278   0.877  14.354  10.160
98147SOL     OW96279   2.674   3.792   2.454
98147SOL    HW196280   2.676   3.887   2.444
98147SOL    HW296281   2.581   3.770   2.457
98148SOL     OW96282   6.758  12.913   9.714
98148SOL    HW196283   6.808  12.844   9.669
98148SOL    HW296284   6.724  12.870   9.793
98149SOL     OW96285  10.123   4.068  12.181
98149SOL    HW196286  10.205   4.023  12.160
98149SOL    HW296287  10.149   4.139  12.240
98150SOL     OW96288   8.474   1.731   0.314
98150SOL    HW196289   8.556   1.726   0.264
98150SOL    HW296290   8.453   1.825   0.316
98151SOL     OW96291  10.535  14.866   2.964
98151SOL    HW196292  10.545  14.785   2.914
98151SOL    HW296293  10.455   0.032   2.929
98152SOL     OW96294  12.056   1.961   6.534
98152SOL    HW196295  12.057   2.057   6.529
98152SOL    HW296296  11.965   1.937   6.517
98153SOL     OW96297  11.198   2.986   2.159
98153SOL    HW196298  11.248   3.017   2.084
98153SOL    HW296299  11.180   3.065   2.210
98154SOL     OW96300   0.394   5.084   1.323
98154SOL    HW196301   0.358   4.998   1.301
98154SOL    HW296302   0.487   5.068   1.339
98155SOL     OW96303   3.634   6.241  13.147
98155SOL    HW196304   3.581   6.306  13.100
98155SOL    HW296305   3.725   6.270  13.133
98156SOL     OW96306   3.484   7.241  10.893
98156SOL    HW196307   3.498   7.334  10.879
98156SOL    HW296308   3.544   7.219  10.965
98157SOL     OW96309   3.874  11.986   8.996
98157SOL    HW196310   3.778  11.979   9.003
98157SOL    HW296311   3.906  11.954   9.080
98158SOL     OW96312   9.320   9.574   2.135
98158SOL    HW196313   9.366   9.656   2.116
98158SOL    HW296314   9.255   9.598   2.202
98159SOL     OW96315   4.287   8.584   8.649
98159SOL    HW196316   4.191   8.583   8.654
98159SOL    HW296317   4.315   8.593   8.739
98160SOL     OW96318  12.161   2.434   9.283
98160SOL    HW196319  12.093   2.459   9.220
98160SOL    HW296320  12.183   2.516   9.328
98161SOL     OW96321   7.032  10.933   1.100
98161SOL    HW196322   6.979  11.012   1.087
98161SOL    HW296323   7.115  10.966   1.137
98162SOL     OW96324   1.561   2.612   1.589
98162SOL    HW196325   1.527   2.701   1.592
98162SOL    HW296326   1.585   2.592   1.680
98163SOL     OW96327  10.211   4.082  13.896
98163SOL    HW196328  10.172   4.118  13.975
98163SOL    HW296329  10.288   4.136  13.880
98164SOL     OW96330   8.112   0.704  11.091
98164SOL    HW196331   8.185   0.729  11.034
98164SOL    HW296332   8.151   0.646  11.156
98165SOL     OW96333  14.389  10.593   2.795
98165SOL    HW196334  14.442  10.550   2.729
98165SOL    HW296335  14.448  10.654   2.839
98166SOL     OW96336   6.854  14.802   5.983
98166SOL    HW196337   6.795  14.762   6.047
98166SOL    HW296338   6.941  14.785   6.017
98167SOL     OW96339   1.602   5.852   0.512
98167SOL    HW196340   1.644   5.901   0.441
98167SOL    HW296341   1.637   5.891   0.592
98168SOL     OW96342  10.575   2.539  10.447
98168SOL    HW196343  10.607   2.556  10.536
98168SOL    HW296344  10.552   2.446  10.448
98169SOL     OW96345   6.915   7.012   4.533
98169SOL    HW196346   6.925   6.961   4.613
98169SOL    HW296347   6.984   7.079   4.539
98170SOL     OW96348  11.553  14.772   7.150
98170SOL    HW196349  11.555  14.710   7.077
98170SOL    HW296350  11.633  14.752   7.200
98171SOL     OW96351  10.574   4.092   0.573
98171SOL    HW196352  10.615   4.025   0.518
98171SOL    HW296353  10.647   4.130   0.622
98172SOL     OW96354   1.597   8.586  13.156
98172SOL    HW196355   1.551   8.665  13.183
98172SOL    HW296356   1.649   8.561  13.232
98173SOL     OW96357   9.135   7.767   3.253
98173SOL    HW196358   9.199   7.696   3.265
98173SOL    HW296359   9.075   7.733   3.187
98174SOL     OW96360   7.390  10.168   2.076
98174SOL    HW196361   7.396  10.175   2.171
98174SOL    HW296362   7.409  10.076   2.058
98175SOL     OW96363  13.678   7.761   2.003
98175SOL    HW196364  13.735   7.836   2.019
98175SOL    HW296365  13.676   7.752   1.908
98176SOL     OW96366  10.068   3.504   6.041
98176SOL    HW196367  10.006   3.563   6.083
98176SOL    HW296368  10.147   3.557   6.029
98177SOL     OW96369   2.876   2.474   0.480
98177SOL    HW196370   2.842   2.385   0.473
98177SOL    HW296371   2.911   2.493   0.393
98178SOL     OW96372  13.884  11.562   0.964
98178SOL    HW196373  13.869  11.634   0.903
98178SOL    HW296374  13.976  11.538   0.950
98179SOL     OW96375   1.416   1.568   5.193
98179SOL    HW196376   1.368   1.650   5.178
98179SOL    HW296377   1.372   1.504   5.138
98180SOL     OW96378   3.738   2.142   5.654
98180SOL    HW196379   3.710   2.208   5.718
98180SOL    HW296380   3.819   2.178   5.617
98181SOL     OW96381   1.448  10.086   2.705
98181SOL    HW196382   1.462  10.162   2.762
98181SOL    HW296383   1.493  10.014   2.751
98182SOL     OW96384   0.376  11.764   5.039
98182SOL    HW196385   0.313  11.766   5.112
98182SOL    HW296386   0.462  11.762   5.081
98183SOL     OW96387  11.542   9.436   3.777
98183SOL    HW196388  11.637   9.444   3.790
98183SOL    HW296389  11.533   9.411   3.685
98184SOL     OW96390   2.758  13.849  10.627
98184SOL    HW196391   2.810  13.823  10.551
98184SOL    HW296392   2.812  13.913  10.673
98185SOL     OW96393   8.668   0.815   3.812
98185SOL    HW196394   8.660   0.783   3.902
98185SOL    HW296395   8.743   0.875   3.815
98186SOL     OW96396  14.765  10.176  14.542
98186SOL    HW196397  14.805  10.151  14.459
98186SOL    HW296398  14.831  10.155  14.608
98187SOL     OW96399   6.832   9.395   6.284
98187SOL    HW196400   6.888   9.390   6.361
98187SOL    HW296401   6.766   9.327   6.298
98188SOL     OW96402   7.551  10.350   8.871
98188SOL    HW196403   7.603  10.337   8.791
98188SOL    HW296404   7.461  10.341   8.842
98189SOL     OW96405   9.839   9.513   6.384
98189SOL    HW196406   9.929   9.538   6.364
98189SOL    HW296407   9.785   9.580   6.341
98190SOL     OW96408   8.417   1.284   2.303
98190SOL    HW196409   8.486   1.349   2.295
98190SOL    HW296410   8.352   1.325   2.360
98191SOL     OW96411  12.316  10.962  11.636
98191SOL    HW196412  12.288  10.991  11.549
98191SOL    HW296413  12.242  10.912  11.670
98192SOL     OW96414   5.970   9.693   1.062
98192SOL    HW196415   5.996   9.780   1.032
98192SOL    HW296416   5.989   9.693   1.155
98193SOL     OW96417   7.397  14.833   7.754
98193SOL    HW196418   7.408  14.779   7.676
98193SOL    HW296419   7.309  14.812   7.785
98194SOL     OW96420   7.850   7.371   0.454
98194SOL    HW196421   7.825   7.278   0.451
98194SOL    HW296422   7.892   7.381   0.540
98195SOL     OW96423   5.177   0.630   5.694
98195SOL    HW196424   5.177   0.648   5.788
98195SOL    HW296425   5.232   0.552   5.685
98196SOL     OW96426   0.615   3.739  13.050
98196SOL    HW196427   0.704   3.774  13.046
98196SOL    HW296428   0.580   3.775  13.132
98197SOL     OW96429   2.703   9.917  12.271
98197SOL    HW196430   2.640   9.850  12.243
98197SOL    HW296431   2.751   9.940  12.192
98198SOL     OW96432  10.606   3.229   8.025
98198SOL    HW196433  10.665   3.217   7.951
98198SOL    HW296434  10.566   3.315   8.009
98199SOL     OW96435   2.254   4.473   3.262
98199SOL    HW196436   2.227   4.558   3.227
98199SOL    HW296437   2.173   4.422   3.266
98200SOL     OW96438   5.842   0.653   5.203
98200SOL    HW196439   5.776   0.591   5.235
98200SOL    HW296440   5.922   0.601   5.196
98201SOL     OW96441  14.821   5.896   4.735
98201SOL    HW196442  14.850   5.978   4.775
98201SOL    HW296443  14.751   5.865   4.792
98202SOL     OW96444  11.715   0.511   8.550
98202SOL    HW196445  11.679   0.585   8.502
98202SOL    HW296446  11.810   0.522   8.546
98203SOL     OW96447   0.723   7.056  10.515
98203SOL    HW196448   0.647   7.110  10.497
98203SOL    HW296449   0.687   6.974  10.548
98204SOL     OW96450   4.939   5.896  12.116
98204SOL    HW196451   4.922   5.987  12.140
98204SOL    HW296452   5.022   5.898  12.070
98205SOL     OW96453  11.820   7.664   5.026
98205SOL    HW196454  11.796   7.575   4.999
98205SOL    HW296455  11.836   7.710   4.944
98206SOL     OW96456   7.444  11.831   7.816
98206SOL    HW196457   7.481  11.900   7.871
98206SOL    HW296458   7.487  11.841   7.731
98207SOL     OW96459  12.617   6.678   3.389
98207SOL    HW196460  12.564   6.600   3.401
98207SOL    HW296461  12.617   6.693   3.295
98208SOL     OW96462   2.332  10.885   7.759
98208SOL    HW196463   2.272  10.936   7.703
98208SOL    HW296464   2.345  10.803   7.711
98209SOL     OW96465   7.267  12.331   0.965
98209SOL    HW196466   7.283  12.335   1.060
98209SOL    HW296467   7.222  12.414   0.945
98210SOL     OW96468  13.336   7.314   2.560
98210SOL    HW196469  13.389   7.255   2.614
98210SOL    HW296470  13.373   7.401   2.576
98211SOL     OW96471   3.837   3.410   5.642
98211SOL    HW196472   3.846   3.496   5.682
98211SOL    HW296473   3.906   3.357   5.682
98212SOL     OW96474   3.982   4.631   3.133
98212SOL    HW196475   4.057   4.661   3.081
98212SOL    HW296476   3.906   4.666   3.088
98213SOL     OW96477  10.465  10.924   2.286
98213SOL    HW196478  10.440  11.001   2.236
98213SOL    HW296479  10.382  10.883   2.310
98214SOL     OW96480   7.381   4.696   1.315
98214SOL    HW196481   7.367   4.671   1.224
98214SOL    HW296482   7.476   4.701   1.325
98215SOL     OW96483   8.869   7.713  10.465
98215SOL    HW196484   8.950   7.714  10.517
98215SOL    HW296485   8.835   7.624  10.476
98216SOL     OW96486   7.248   1.868  14.298
98216SOL    HW196487   7.199   1.807  14.353
98216SOL    HW296488   7.269   1.941  14.357
98217SOL     OW96489  11.090   0.709   7.315
98217SOL    HW196490  11.030   0.634   7.320
98217SOL    HW296491  11.176   0.672   7.330
98218SOL     OW96492   2.728   4.510   9.105
98218SOL    HW196493   2.775   4.429   9.122
98218SOL    HW296494   2.722   4.516   9.010
98219SOL     OW96495   9.340   4.606   5.087
98219SOL    HW196496   9.396   4.685   5.084
98219SOL    HW296497   9.252   4.640   5.099
98220SOL     OW96498   3.622   5.665  13.524
98220SOL    HW196499   3.565   5.637  13.453
98220SOL    HW296500   3.640   5.757  13.506
98221SOL     OW96501   2.610   0.586   2.852
98221SOL    HW196502   2.596   0.582   2.757
98221SOL    HW296503   2.561   0.511   2.887
98222SOL     OW96504   4.372  11.692   3.175
98222SOL    HW196505   4.391  11.758   3.110
98222SOL    HW296506   4.277  11.678   3.169
98223SOL     OW96507  14.237   3.087  11.621
98223SOL    HW196508  14.213   3.032  11.695
98223SOL    HW296509  14.168   3.072  11.556
98224SOL     OW96510   3.901   7.725   2.294
98224SOL    HW196511   3.950   7.800   2.328
98224SOL    HW296512   3.930   7.716   2.204
98225SOL     OW96513   6.570  10.103   7.535
98225SOL    HW196514   6.592  10.172   7.472
98225SOL    HW296515   6.537  10.031   7.481
98226SOL     OW96516   2.853   5.866   9.121
98226SOL    HW196517   2.934   5.844   9.076
98226SOL    HW296518   2.871   5.848   9.214
98227SOL     OW96519   9.385   8.280   3.513
98227SOL    HW196520   9.320   8.212   3.531
98227SOL    HW296521   9.335   8.354   3.480
98228SOL     OW96522  14.851  11.901   4.444
98228SOL    HW196523   0.026  11.821   4.426
98228SOL    HW296524   0.044  11.969   4.451
98229SOL     OW96525   8.394   8.726  10.948
98229SOL    HW196526   8.392   8.747  10.855
98229SOL    HW296527   8.360   8.636  10.953
98230SOL     OW96528   8.513  12.186  12.416
98230SOL    HW196529   8.545  12.188  12.506
98230SOL    HW296530   8.469  12.102  12.408
98231SOL     OW96531  12.089  10.149   5.332
98231SOL    HW196532  12.142  10.070   5.339
98231SOL    HW296533  12.021  10.138   5.399
98232SOL     OW96534   4.618  12.612   8.001
98232SOL    HW196535   4.632  12.663   7.921
98232SOL    HW296536   4.702  12.568   8.018
98233SOL     OW96537   4.785  14.470   0.810
98233SOL    HW196538   4.790  14.522   0.890
98233SOL    HW296539   4.731  14.522   0.751
98234SOL     OW96540   7.706  12.252  12.786
98234SOL    HW196541   7.739  12.165  12.765
98234SOL    HW296542   7.773  12.311  12.750
98235SOL     OW96543  11.171  13.263   4.955
98235SOL    HW196544  11.128  13.348   4.954
98235SOL    HW296545  11.237  13.269   4.886
98236SOL     OW96546   5.741  11.835   6.266
98236SOL    HW196547   5.683  11.800   6.198
98236SOL    HW296548   5.703  11.803   6.348
98237SOL     OW96549   8.386   2.911   0.938
98237SOL    HW196550   8.468   2.933   0.981
98237SOL    HW296551   8.379   2.816   0.948
98238SOL     OW96552   0.266   2.383  10.198
98238SOL    HW196553   0.324   2.403  10.271
98238SOL    HW296554   0.295   2.441  10.128
98239SOL     OW96555   4.793   0.103   1.874
98239SOL    HW196556   4.851   0.042   1.920
98239SOL    HW296557   4.793   0.182   1.927
98240SOL     OW96558  14.298  13.139   1.550
98240SOL    HW196559  14.324  13.049   1.529
98240SOL    HW296560  14.354  13.193   1.494
98241SOL     OW96561   9.539   9.298   3.985
98241SOL    HW196562   9.610   9.238   3.961
98241SOL    HW296563   9.477   9.293   3.912
98242SOL     OW96564   6.788   6.559   2.942
98242SOL    HW196565   6.778   6.465   2.957
98242SOL    HW296566   6.725   6.601   3.000
98243SOL     OW96567  12.282   4.107   0.743
98243SOL    HW196568  12.290   4.058   0.661
98243SOL    HW296569  12.210   4.064   0.790
98244SOL     OW96570  13.876   0.074   9.041
98244SOL    HW196571  13.845   0.164   9.049
98244SOL    HW296572  13.969   0.079   9.065
98245SOL     OW96573   5.875  12.078   7.152
98245SOL    HW196574   5.788  12.071   7.191
98245SOL    HW296575   5.860  12.118   7.066
98246SOL     OW96576  10.732   1.443   1.258
98246SOL    HW196577  10.710   1.505   1.328
98246SOL    HW296578  10.690   1.361   1.284
98247SOL     OW96579  12.975   9.221   3.304
98247SOL    HW196580  12.906   9.159   3.279
98247SOL    HW296581  13.043   9.209   3.237
98248SOL     OW96582  13.999   6.647  11.382
98248SOL    HW196583  13.983   6.710  11.453
98248SOL    HW296584  14.008   6.563  11.426
98249SOL     OW96585   1.572   8.232   9.778
98249SOL    HW196586   1.579   8.188   9.863
98249SOL    HW296587   1.633   8.186   9.721
98250SOL     OW96588   5.039  10.797   3.336
98250SOL    HW196589   5.023  10.817   3.428
98250SOL    HW296590   5.122  10.839   3.316
98251SOL     OW96591   7.879   2.203  13.231
98251SOL    HW196592   7.974   2.207  13.225
98251SOL    HW296593   7.849   2.231  13.144
98252SOL     OW96594   6.242   4.545   3.009
98252SOL    HW196595   6.313   4.599   2.973
98252SOL    HW296596   6.284   4.461   3.028
98253SOL     OW96597   3.364   2.350  11.556
98253SOL    HW196598   3.446   2.400  11.560
98253SOL    HW296599   3.383   2.268  11.600
98254SOL     OW96600   8.884   0.318  13.681
98254SOL    HW196601   8.889   0.252  13.751
98254SOL    HW296602   8.939   0.283  13.611
98255SOL     OW96603  12.649   8.725   4.578
98255SOL    HW196604  12.592   8.771   4.640
98255SOL    HW296605  12.688   8.795   4.525
98256SOL     OW96606  12.392  13.065   8.306
98256SOL    HW196607  12.327  13.070   8.236
98256SOL    HW296608  12.386  12.975   8.339
98257SOL     OW96609  13.481   4.515   4.321
98257SOL    HW196610  13.515   4.604   4.336
98257SOL    HW296611  13.541   4.458   4.369
98258SOL     OW96612   6.320   6.499   8.670
98258SOL    HW196613   6.387   6.514   8.737
98258SOL    HW296614   6.283   6.414   8.694
98259SOL     OW96615   6.650  11.322   4.759
98259SOL    HW196616   6.575  11.305   4.702
98259SOL    HW296617   6.680  11.410   4.734
98260SOL     OW96618   9.669  13.560   7.741
98260SOL    HW196619   9.696  13.480   7.696
98260SOL    HW296620   9.715  13.556   7.825
98261SOL     OW96621   9.672   5.951   7.358
98261SOL    HW196622   9.741   5.885   7.365
98261SOL    HW296623   9.631   5.934   7.273
98262SOL     OW96624   1.581  13.248   0.820
98262SOL    HW196625   1.602  13.176   0.760
98262SOL    HW296626   1.658  13.305   0.817
98263SOL     OW96627   0.468   5.272   0.381
98263SOL    HW196628   0.498   5.181   0.369
98263SOL    HW296629   0.475   5.287   0.475
98264SOL     OW96630   8.417   3.459   0.995
98264SOL    HW196631   8.475   3.471   1.071
98264SOL    HW296632   8.385   3.547   0.975
98265SOL     OW96633   6.328   1.253   6.646
98265SOL    HW196634   6.319   1.192   6.573
98265SOL    HW296635   6.366   1.201   6.717
98266SOL     OW96636   0.300   9.864  11.293
98266SOL    HW196637   0.257   9.791  11.248
98266SOL    HW296638   0.375   9.885  11.238
98267SOL     OW96639   1.490  14.300  12.858
98267SOL    HW196640   1.462  14.259  12.940
98267SOL    HW296641   1.567  14.351  12.882
98268SOL     OW96642  13.815  14.095   7.178
98268SOL    HW196643  13.905  14.087   7.210
98268SOL    HW296644  13.803  14.189   7.164
98269SOL     OW96645  13.093   2.659   7.863
98269SOL    HW196646  13.156   2.729   7.843
98269SOL    HW296647  13.038   2.653   7.785
98270SOL     OW96648  11.957   8.804   0.025
98270SOL    HW196649  11.954   8.757   0.108
98270SOL    HW296650  11.882   8.863   0.027
98271SOL     OW96651   9.398  11.436  10.836
98271SOL    HW196652   9.384  11.513  10.780
98271SOL    HW296653   9.481  11.455  10.880
98272SOL     OW96654   7.849   4.419  14.529
98272SOL    HW196655   7.935   4.392  14.561
98272SOL    HW296656   7.835   4.507  14.566
98273SOL     OW96657  11.851   0.809  11.463
98273SOL    HW196658  11.787   0.862  11.510
98273SOL    HW296659  11.900   0.871  11.410
98274SOL     OW96660  14.716   1.130  14.090
98274SOL    HW196661  14.698   1.148  13.998
98274SOL    HW296662  14.703   1.213  14.135
98275SOL     OW96663  13.035  10.002   8.576
98275SOL    HW196664  12.945  10.021   8.550
98275SOL    HW296665  13.084  10.002   8.494
98276SOL     OW96666   5.895   3.968   5.391
98276SOL    HW196667   5.820   4.016   5.355
98276SOL    HW296668   5.868   3.877   5.392
98277SOL     OW96669  11.395   6.927   5.336
98277SOL    HW196670  11.400   6.833   5.317
98277SOL    HW296671  11.382   6.968   5.250
98278SOL     OW96672   2.840   7.761   5.914
98278SOL    HW196673   2.778   7.730   5.848
98278SOL    HW296674   2.786   7.811   5.975
98279SOL     OW96675   9.955   2.258  12.173
98279SOL    HW196676   9.895   2.225  12.240
98279SOL    HW296677  10.021   2.308  12.222
98280SOL     OW96678   7.969   5.866   8.189
98280SOL    HW196679   7.877   5.845   8.174
98280SOL    HW296680   7.986   5.842   8.280
98281SOL     OW96681   2.285   2.724   3.522
98281SOL    HW196682   2.377   2.698   3.532
98281SOL    HW296683   2.288   2.819   3.510
98282SOL     OW96684  11.955  10.631   5.207
98282SOL    HW196685  11.878  10.687   5.204
98282SOL    HW296686  12.011  10.663   5.137
98283SOL     OW96687   7.000   0.405  13.988
98283SOL    HW196688   7.049   0.377  14.065
98283SOL    HW296689   7.027   0.496  13.975
98284SOL     OW96690   4.502   1.582  11.897
98284SOL    HW196691   4.524   1.582  11.804
98284SOL    HW296692   4.465   1.495  11.913
98285SOL     OW96693   7.853   2.886   0.158
98285SOL    HW196694   7.898   2.804   0.178
98285SOL    HW296695   7.909   2.954   0.196
98286SOL     OW96696   6.810   3.555  12.186
98286SOL    HW196697   6.752   3.622  12.149
98286SOL    HW296698   6.857   3.600  12.256
98287SOL     OW96699   7.345   4.900   9.588
98287SOL    HW196700   7.440   4.890   9.575
98287SOL    HW296701   7.310   4.920   9.502
98288SOL     OW96702   3.507  10.067   5.237
98288SOL    HW196703   3.505  10.032   5.326
98288SOL    HW296704   3.428  10.120   5.230
98289SOL     OW96705  14.774  13.996  11.421
98289SOL    HW196706  14.791  13.933  11.351
98289SOL    HW296707  14.680  14.013  11.416
98290SOL     OW96708   2.438   5.633  14.314
98290SOL    HW196709   2.528   5.665  14.318
98290SOL    HW296710   2.388   5.707  14.281
98291SOL     OW96711  14.413  14.727  11.496
98291SOL    HW196712  14.386  14.669  11.567
98291SOL    HW296713  14.498  14.693  11.468
98292SOL     OW96714   3.780   7.482   3.407
98292SOL    HW196715   3.754   7.566   3.369
98292SOL    HW296716   3.704   7.425   3.394
98293SOL     OW96717   4.449   5.695   8.801
98293SOL    HW196718   4.484   5.747   8.873
98293SOL    HW296719   4.397   5.627   8.842
98294SOL     OW96720   1.045   2.774   4.932
98294SOL    HW196721   1.084   2.744   5.014
98294SOL    HW296722   0.965   2.818   4.959
98295SOL     OW96723  13.150   2.968   0.646
98295SOL    HW196724  13.226   2.942   0.594
98295SOL    HW296725  13.179   3.045   0.694
98296SOL     OW96726   4.502  10.799  12.119
98296SOL    HW196727   4.409  10.821  12.125
98296SOL    HW296728   4.522  10.756  12.202
98297SOL     OW96729   2.693   5.427   3.915
98297SOL    HW196730   2.621   5.488   3.899
98297SOL    HW296731   2.739   5.423   3.831
98298SOL     OW96732   0.309  10.116   5.038
98298SOL    HW196733   0.398  10.085   5.020
98298SOL    HW296734   0.300  10.112   5.133
98299SOL     OW96735   4.733   1.466   6.242
98299SOL    HW196736   4.768   1.539   6.191
98299SOL    HW296737   4.702   1.403   6.177
98300SOL     OW96738   7.147  12.578   5.605
98300SOL    HW196739   7.063  12.623   5.611
98300SOL    HW296740   7.156  12.532   5.688
98301SOL     OW96741  12.089   8.716   2.930
98301SOL    HW196742  12.183   8.702   2.921
98301SOL    HW296743  12.056   8.715   2.840
98302SOL     OW96744   7.589   5.661   0.559
98302SOL    HW196745   7.551   5.574   0.565
98302SOL    HW296746   7.645   5.658   0.482
98303SOL     OW96747  10.476   7.234  12.738
98303SOL    HW196748  10.465   7.270  12.826
98303SOL    HW296749  10.389   7.202  12.715
98304SOL     OW96750  13.542   1.354  11.179
98304SOL    HW196751  13.558   1.268  11.139
98304SOL    HW296752  13.457   1.381  11.144
98305SOL     OW96753   4.306   1.208  13.921
98305SOL    HW196754   4.262   1.293  13.914
98305SOL    HW296755   4.345   1.209  14.009
98306SOL     OW96756   6.336   6.164   7.234
98306SOL    HW196757   6.294   6.238   7.189
98306SOL    HW296758   6.358   6.199   7.320
98307SOL     OW96759   2.700   2.667   7.290
98307SOL    HW196760   2.669   2.623   7.211
98307SOL    HW296761   2.657   2.753   7.288
98308SOL     OW96762  14.254  11.969   5.789
98308SOL    HW196763  14.335  11.992   5.745
98308SOL    HW296764  14.268  11.993   5.881
98309SOL     OW96765  13.065   6.036   5.635
98309SOL    HW196766  13.152   6.016   5.669
98309SOL    HW296767  13.070   6.127   5.608
98310SOL     OW96768   0.888   3.643   9.343
98310SOL    HW196769   0.948   3.703   9.386
98310SOL    HW296770   0.843   3.697   9.278
98311SOL     OW96771  14.482   7.900  12.063
98311SOL    HW196772  14.409   7.956  12.038
98311SOL    HW296773  14.445   7.839  12.128
98312SOL     OW96774  12.605   5.541   7.571
98312SOL    HW196775  12.674   5.500   7.623
98312SOL    HW296776  12.524   5.523   7.619
98313SOL     OW96777  12.829   8.669   2.302
98313SOL    HW196778  12.887   8.736   2.338
98313SOL    HW296779  12.884   8.622   2.239
98314SOL     OW96780   4.352   6.693   3.961
98314SOL    HW196781   4.287   6.656   4.021
98314SOL    HW296782   4.308   6.769   3.923
98315SOL     OW96783  13.979   5.735   9.279
98315SOL    HW196784  14.065   5.695   9.289
98315SOL    HW296785  13.918   5.662   9.276
98316SOL     OW96786  14.362   4.719  13.293
98316SOL    HW196787  14.311   4.639  13.276
98316SOL    HW296788  14.369   4.723  13.388
98317SOL     OW96789   7.718   9.992   4.727
98317SOL    HW196790   7.689  10.081   4.747
98317SOL    HW296791   7.665   9.937   4.785
98318SOL     OW96792  12.689   1.080  12.290
98318SOL    HW196793  12.621   1.145  12.304
98318SOL    HW296794  12.771   1.124  12.315
98319SOL     OW96795   5.356   9.929  12.132
98319SOL    HW196796   5.408  10.004  12.159
98319SOL    HW296797   5.266   9.952  12.158
98320SOL     OW96798   4.251   3.539   1.726
98320SOL    HW196799   4.202   3.618   1.748
98320SOL    HW296800   4.340   3.568   1.712
98321SOL     OW96801   7.801   6.779  13.627
98321SOL    HW196802   7.734   6.846  13.629
98321SOL    HW296803   7.866   6.811  13.564
98322SOL     OW96804   8.491  14.374   8.778
98322SOL    HW196805   8.507  14.418   8.861
98322SOL    HW296806   8.410  14.324   8.792
98323SOL     OW96807   5.707  13.181   6.998
98323SOL    HW196808   5.741  13.111   7.055
98323SOL    HW296809   5.628  13.211   7.041
98324SOL     OW96810   9.993  14.650   3.169
98324SOL    HW196811   9.909  14.686   3.138
98324SOL    HW296812  10.007  14.573   3.114
98325SOL     OW96813  12.483   9.152   2.554
98325SOL    HW196814  12.540   9.190   2.621
98325SOL    HW296815  12.519   9.184   2.471
98326SOL     OW96816   0.662   6.901  12.287
98326SOL    HW196817   0.600   6.930  12.354
98326SOL    HW296818   0.678   6.809  12.307
98327SOL     OW96819   2.859  11.190  13.658
98327SOL    HW196820   2.797  11.182  13.730
98327SOL    HW296821   2.941  11.216  13.699
98328SOL     OW96822   6.113   2.460   3.690
98328SOL    HW196823   6.034   2.514   3.692
98328SOL    HW296824   6.179   2.512   3.735
98329SOL     OW96825  14.825   3.564   2.487
98329SOL    HW196826  14.744   3.571   2.536
98329SOL    HW296827  14.812   3.489   2.429
98330SOL     OW96828  11.782  10.411  14.076
98330SOL    HW196829  11.699  10.367  14.058
98330SOL    HW296830  11.779  10.491  14.024
98331SOL     OW96831   0.198   6.264   6.931
98331SOL    HW196832   0.159   6.177   6.923
98331SOL    HW296833   0.161   6.301   7.011
98332SOL     OW96834   7.410  11.368   3.866
98332SOL    HW196835   7.371  11.453   3.843
98332SOL    HW296836   7.479  11.389   3.928
98333SOL     OW96837  13.601   7.401  12.585
98333SOL    HW196838  13.556   7.371  12.664
98333SOL    HW296839  13.664   7.332  12.566
98334SOL     OW96840  12.522  10.867  14.051
98334SOL    HW196841  12.550  10.783  14.087
98334SOL    HW296842  12.444  10.890  14.101
98335SOL     OW96843   3.134  10.209   6.120
98335SOL    HW196844   3.056  10.255   6.152
98335SOL    HW296845   3.187  10.278   6.079
98336SOL     OW96846   0.585  11.112  11.930
98336SOL    HW196847   0.672  11.072  11.932
98336SOL    HW296848   0.564  11.128  12.022
98337SOL     OW96849  14.861  12.946   5.280
98337SOL    HW196850   0.073  12.953   5.322
98337SOL    HW296851  14.872  12.989   5.195
98338SOL     OW96852   4.486   6.884   4.514
98338SOL    HW196853   4.433   6.806   4.531
98338SOL    HW296854   4.423   6.956   4.508
98339SOL     OW96855  12.732   5.833  10.863
98339SOL    HW196856  12.641   5.812  10.842
98339SOL    HW296857  12.776   5.748  10.863
98340SOL     OW96858  14.502   2.432   3.257
98340SOL    HW196859  14.440   2.455   3.188
98340SOL    HW296860  14.474   2.346   3.287
98341SOL     OW96861   6.050  11.521   2.841
98341SOL    HW196862   5.973  11.486   2.796
98341SOL    HW296863   6.122  11.509   2.780
98342SOL     OW96864   0.339   9.121   2.801
98342SOL    HW196865   0.386   9.190   2.756
98342SOL    HW296866   0.307   9.064   2.732
98343SOL     OW96867   0.515   2.671   5.998
98343SOL    HW196868   0.505   2.692   5.905
98343SOL    HW296869   0.488   2.580   6.005
98344SOL     OW96870   6.638   4.160   2.871
98344SOL    HW196871   6.605   4.070   2.866
98344SOL    HW296872   6.593   4.206   2.800
98345SOL     OW96873   4.844  11.601   8.504
98345SOL    HW196874   4.886  11.522   8.538
98345SOL    HW296875   4.782  11.569   8.438
98346SOL     OW96876  13.926  14.716   3.298
98346SOL    HW196877  13.910  14.628   3.334
98346SOL    HW296878  13.840  14.749   3.275
98347SOL     OW96879   2.501   9.015   8.154
98347SOL    HW196880   2.480   9.104   8.183
98347SOL    HW296881   2.446   8.958   8.209
98348SOL     OW96882  14.846  12.163   8.467
98348SOL    HW196883   0.027  12.139   8.541
98348SOL    HW296884  14.803  12.244   8.494
98349SOL     OW96885   8.693   9.945  12.160
98349SOL    HW196886   8.639   9.970  12.236
98349SOL    HW296887   8.749   9.875  12.193
98350SOL     OW96888   9.456   6.501   3.617
98350SOL    HW196889   9.450   6.559   3.693
98350SOL    HW296890   9.365   6.492   3.587
98351SOL     OW96891   4.262   1.004   1.495
98351SOL    HW196892   4.311   0.930   1.530
98351SOL    HW296893   4.218   0.968   1.417
98352SOL     OW96894  12.546   2.167  13.731
98352SOL    HW196895  12.638   2.144  13.741
98352SOL    HW296896  12.538   2.254  13.770
98353SOL     OW96897  11.740   9.033   8.397
98353SOL    HW196898  11.739   9.001   8.488
98353SOL    HW296899  11.659   8.999   8.359
98354SOL     OW96900   2.457  11.094   9.479
98354SOL    HW196901   2.483  11.079   9.570
98354SOL    HW296902   2.419  11.182   9.480
98355SOL     OW96903  13.557   4.653   3.792
98355SOL    HW196904  13.645   4.624   3.817
98355SOL    HW296905  13.520   4.690   3.872
98356SOL     OW96906  13.825   9.703  11.235
98356SOL    HW196907  13.736   9.685  11.204
98356SOL    HW296908  13.816   9.780  11.291
98357SOL     OW96909  10.017   1.373   1.754
98357SOL    HW196910  10.096   1.369   1.700
98357SOL    HW296911   9.992   1.465   1.753
98358SOL     OW96912   1.986   8.909   7.507
98358SOL    HW196913   1.955   8.868   7.587
98358SOL    HW296914   2.058   8.965   7.535
98359SOL     OW96915   1.237   8.221   6.030
98359SOL    HW196916   1.325   8.259   6.027
98359SOL    HW296917   1.231   8.181   6.117
98360SOL     OW96918  12.798   3.452  12.904
98360SOL    HW196919  12.871   3.487  12.955
98360SOL    HW296920  12.790   3.512  12.830
98361SOL     OW96921   4.868   0.025   7.037
98361SOL    HW196922   4.790  14.860   6.999
98361SOL    HW296923   4.841   0.052   7.125
98362SOL     OW96924  14.145  12.790   5.495
98362SOL    HW196925  14.233  12.828   5.485
98362SOL    HW296926  14.134  12.736   5.417
98363SOL     OW96927   4.074   7.029  10.261
98363SOL    HW196928   4.156   7.064  10.296
98363SOL    HW296929   4.099   6.990  10.178
98364SOL     OW96930  12.732   0.813  11.084
98364SOL    HW196931  12.762   0.901  11.105
98364SOL    HW296932  12.732   0.809  10.989
98365SOL     OW96933   7.519   2.136  10.110
98365SOL    HW196934   7.543   2.168  10.198
98365SOL    HW296935   7.497   2.216  10.062
98366SOL     OW96936   3.686   6.801   4.547
98366SOL    HW196937   3.668   6.758   4.631
98366SOL    HW296938   3.606   6.790   4.496
98367SOL     OW96939   8.002  10.070   2.492
98367SOL    HW196940   7.948  10.149   2.499
98367SOL    HW296941   7.939   9.998   2.490
98368SOL     OW96942  11.585   4.693   6.680
98368SOL    HW196943  11.535   4.761   6.725
98368SOL    HW296944  11.542   4.684   6.595
98369SOL     OW96945   6.808   9.982   0.603
98369SOL    HW196946   6.718  10.013   0.605
98369SOL    HW296947   6.850  10.029   0.676
98370SOL     OW96948  14.008   2.649   5.269
98370SOL    HW196949  14.078   2.692   5.318
98370SOL    HW296950  13.949   2.614   5.336
98371SOL     OW96951   7.009   1.675  10.169
98371SOL    HW196952   6.945   1.621  10.216
98371SOL    HW296953   7.049   1.615  10.106
98372SOL     OW96954   7.289  13.315   9.580
98372SOL    HW196955   7.293  13.331   9.486
98372SOL    HW296956   7.266  13.222   9.587
98373SOL     OW96957  10.249  11.450   4.804
98373SOL    HW196958  10.223  11.360   4.825
98373SOL    HW296959  10.295  11.481   4.882
98374SOL     OW96960   0.162  12.991   4.590
98374SOL    HW196961   0.168  13.085   4.607
98374SOL    HW296962   0.151  12.986   4.495
98375SOL     OW96963  11.033   5.392  12.984
98375SOL    HW196964  11.056   5.318  12.927
98375SOL    HW296965  11.078   5.467  12.946
98376SOL     OW96966  11.648  13.636   3.024
98376SOL    HW196967  11.566  13.607   3.064
98376SOL    HW296968  11.651  13.730   3.043
98377SOL     OW96969  12.724   9.713  11.038
98377SOL    HW196970  12.777   9.671  11.106
98377SOL    HW296971  12.635   9.713  11.073
98378SOL     OW96972  11.452   8.417   6.738
98378SOL    HW196973  11.409   8.456   6.662
98378SOL    HW296974  11.380   8.384   6.792
98379SOL     OW96975   3.113  10.866  10.136
98379SOL    HW196976   3.137  10.776  10.157
98379SOL    HW296977   3.030  10.880  10.181
98380SOL     OW96978  12.936  10.695   7.113
98380SOL    HW196979  12.871  10.625   7.106
98380SOL    HW296980  12.978  10.698   7.027
98381SOL     OW96981   4.255   5.181   3.401
98381SOL    HW196982   4.178   5.217   3.446
98381SOL    HW296983   4.219   5.120   3.337
98382SOL     OW96984  12.049  10.247  13.819
98382SOL    HW196985  12.005  10.294  13.890
98382SOL    HW296986  12.143  10.262  13.835
98383SOL     OW96987  10.194   1.446   0.665
98383SOL    HW196988  10.248   1.378   0.625
98383SOL    HW296989  10.246   1.526   0.658
98384SOL     OW96990   9.525   4.238   6.039
98384SOL    HW196991   9.509   4.151   6.003
98384SOL    HW296992   9.602   4.228   6.094
98385SOL     OW96993  14.257  10.379   2.432
98385SOL    HW196994  14.218  10.463   2.457
98385SOL    HW296995  14.225  10.317   2.498
98386SOL     OW96996   1.189   6.295  12.194
98386SOL    HW196997   1.181   6.220  12.136
98386SOL    HW296998   1.271   6.280  12.241
98387SOL     OW96999   6.127   2.018   8.389
98387SOL    HW197000   6.199   1.989   8.445
98387SOL    HW297001   6.161   2.009   8.300
98388SOL     OW97002   9.895  10.041   4.053
98388SOL    HW197003   9.896  10.075   4.143
98388SOL    HW297004   9.822  10.088   4.011
98389SOL     OW97005   6.190  13.769   4.741
98389SOL    HW197006   6.133  13.769   4.818
98389SOL    HW297007   6.148  13.829   4.679
98390SOL     OW97008  10.381  10.073  13.440
98390SOL    HW197009  10.413  10.027  13.518
98390SOL    HW297010  10.352  10.003  13.381
98391SOL     OW97011  14.419  10.656   7.876
98391SOL    HW197012  14.462  10.574   7.854
98391SOL    HW297013  14.399  10.649   7.969
98392SOL     OW97014   2.078   8.348  13.769
98392SOL    HW197015   2.013   8.284  13.741
98392SOL    HW297016   2.162   8.305  13.750
98393SOL     OW97017   2.909   9.692   8.179
98393SOL    HW197018   2.969   9.623   8.205
98393SOL    HW297019   2.845   9.648   8.123
98394SOL     OW97020  13.468  11.299   0.173
98394SOL    HW197021  13.537  11.278   0.109
98394SOL    HW297022  13.474  11.393   0.185
98395SOL     OW97023   7.900   0.165   6.915
98395SOL    HW197024   7.914   0.234   6.849
98395SOL    HW297025   7.905   0.083   6.865
98396SOL     OW97026  11.455  11.842   0.830
98396SOL    HW197027  11.480  11.933   0.814
98396SOL    HW297028  11.371  11.847   0.875
98397SOL     OW97029  11.552   9.528  11.251
98397SOL    HW197030  11.549   9.598  11.316
98397SOL    HW297031  11.612   9.463  11.288
98398SOL     OW97032   9.022   8.917   1.733
98398SOL    HW197033   8.963   8.990   1.712
98398SOL    HW297034   9.060   8.940   1.817
98399SOL     OW97035  13.878   7.387   0.256
98399SOL    HW197036  13.813   7.408   0.323
98399SOL    HW297037  13.874   7.460   0.195
98400SOL     OW97038   7.323   0.353   5.193
98400SOL    HW197039   7.303   0.420   5.259
98400SOL    HW297040   7.417   0.366   5.176
98401SOL     OW97041  10.658   4.989   5.745
98401SOL    HW197042  10.566   4.972   5.765
98401SOL    HW297043  10.675   5.076   5.780
98402SOL     OW97044  14.284   3.038   0.646
98402SOL    HW197045  14.250   2.960   0.603
98402SOL    HW297046  14.306   3.010   0.734
98403SOL     OW97047   8.536  10.230   1.645
98403SOL    HW197048   8.464  10.282   1.682
98403SOL    HW297049   8.499  10.192   1.565
98404SOL     OW97050   7.379   2.869   5.843
98404SOL    HW197051   7.384   2.775   5.861
98404SOL    HW297052   7.323   2.876   5.766
98405SOL     OW97053   3.500  11.454   0.311
98405SOL    HW197054   3.454  11.511   0.250
98405SOL    HW297055   3.433  11.429   0.375
98406SOL     OW97056   2.329   1.875   6.278
98406SOL    HW197057   2.236   1.855   6.265
98406SOL    HW297058   2.375   1.798   6.246
98407SOL     OW97059  13.510  12.050   2.795
98407SOL    HW197060  13.456  11.975   2.768
98407SOL    HW297061  13.515  12.042   2.890
98408SOL     OW97062  13.798   7.922   5.082
98408SOL    HW197063  13.894   7.921   5.081
98408SOL    HW297064  13.774   7.829   5.088
98409SOL     OW97065  13.027  12.774  14.438
98409SOL    HW197066  13.061  12.795  14.525
98409SOL    HW297067  12.933  12.790  14.444
98410SOL     OW97068   6.459   0.667   8.079
98410SOL    HW197069   6.550   0.677   8.107
98410SOL    HW297070   6.414   0.745   8.113
98411SOL     OW97071   2.008   3.484   9.986
98411SOL    HW197072   1.919   3.500   9.955
98411SOL    HW297073   2.056   3.563   9.960
98412SOL     OW97074  11.207   6.713  13.679
98412SOL    HW197075  11.174   6.742  13.764
98412SOL    HW297076  11.146   6.644  13.651
98413SOL     OW97077   1.632   7.632  13.994
98413SOL    HW197078   1.722   7.617  13.966
98413SOL    HW297079   1.585   7.652  13.913
98414SOL     OW97080  13.933  13.514   9.602
98414SOL    HW197081  13.889  13.598   9.614
98414SOL    HW297082  13.879  13.452   9.651
98415SOL     OW97083  12.618  12.047  11.959
98415SOL    HW197084  12.676  12.046  12.035
98415SOL    HW297085  12.677  12.041  11.884
98416SOL     OW97086  11.821   2.487   9.064
98416SOL    HW197087  11.874   2.501   8.986
98416SOL    HW297088  11.803   2.393   9.064
98417SOL     OW97089   0.901   8.920   3.066
98417SOL    HW197090   0.907   8.949   2.975
98417SOL    HW297091   0.951   8.839   3.070
98418SOL     OW97092   2.923   5.923  13.470
98418SOL    HW197093   2.949   5.904  13.380
98418SOL    HW297094   3.004   5.917  13.520
98419SOL     OW97095   5.619   0.012   7.416
98419SOL    HW197096   5.674  14.866   7.492
98419SOL    HW297097   5.675  14.867   7.341
98420SOL     OW97098  14.873  10.772  10.178
98420SOL    HW197099  14.815  10.699  10.153
98420SOL    HW297100   0.076  10.729  10.215
98421SOL     OW97101   8.042   5.093   3.691
98421SOL    HW197102   8.108   5.030   3.721
98421SOL    HW297103   7.976   5.093   3.761
98422SOL     OW97104   3.091   1.459   5.261
98422SOL    HW197105   3.101   1.426   5.350
98422SOL    HW297106   3.155   1.530   5.255
98423SOL     OW97107   3.790   3.162   6.939
98423SOL    HW197108   3.714   3.122   6.898
98423SOL    HW297109   3.796   3.249   6.899
98424SOL     OW97110  12.705   7.173  14.356
98424SOL    HW197111  12.776   7.196  14.296
98424SOL    HW297112  12.718   7.230  14.431
98425SOL     OW97113   0.504   2.752  11.981
98425SOL    HW197114   0.425   2.751  12.035
98425SOL    HW297115   0.576   2.736  12.042
98426SOL     OW97116   9.228   3.511   3.574
98426SOL    HW197117   9.319   3.514   3.603
98426SOL    HW297118   9.205   3.603   3.558
98427SOL     OW97119   9.032  12.010   2.540
98427SOL    HW197120   9.078  12.063   2.605
98427SOL    HW297121   9.102  11.960   2.497
98428SOL     OW97122   3.853   6.828   4.987
98428SOL    HW197123   3.882   6.874   5.066
98428SOL    HW297124   3.871   6.735   5.005
98429SOL     OW97125   3.314   0.650  14.317
98429SOL    HW197126   3.224   0.625  14.339
98429SOL    HW297127   3.305   0.705  14.239
98430SOL     OW97128   5.778  10.825  13.279
98430SOL    HW197129   5.724  10.752  13.249
98430SOL    HW297130   5.812  10.796  13.364
98431SOL     OW97131  10.254   1.212   8.524
98431SOL    HW197132  10.184   1.202   8.459
98431SOL    HW297133  10.304   1.130   8.519
98432SOL     OW97134   1.250   0.756   4.288
98432SOL    HW197135   1.228   0.771   4.197
98432SOL    HW297136   1.307   0.678   4.287
98433SOL     OW97137   7.326  12.612   6.657
98433SOL    HW197138   7.238  12.641   6.681
98433SOL    HW297139   7.333  12.632   6.564
98434SOL     OW97140   1.377   6.496   9.198
98434SOL    HW197141   1.461   6.456   9.221
98434SOL    HW297142   1.372   6.573   9.255
98435SOL     OW97143   3.931   5.108   7.896
98435SOL    HW197144   3.845   5.067   7.910
98435SOL    HW297145   3.993   5.035   7.903
98436SOL     OW97146  10.952   6.364   3.431
98436SOL    HW197147  10.915   6.359   3.519
98436SOL    HW297148  10.970   6.457   3.418
98437SOL     OW97149  14.868  14.045   9.691
98437SOL    HW197150   0.027  13.979   9.751
98437SOL    HW297151   0.035  14.024   9.607
98438SOL     OW97152   8.599   7.784   6.014
98438SOL    HW197153   8.629   7.870   6.045
98438SOL    HW297154   8.510   7.800   5.982
98439SOL     OW97155   7.066   8.974   3.720
98439SOL    HW197156   7.143   9.030   3.718
98439SOL    HW297157   7.070   8.931   3.806
98440SOL     OW97158   0.332  10.003   0.724
98440SOL    HW197159   0.277   9.955   0.786
98440SOL    HW297160   0.344   9.943   0.650
98441SOL     OW97161  14.466   0.397   1.563
98441SOL    HW197162  14.475   0.491   1.552
98441SOL    HW297163  14.555   0.364   1.574
98442SOL     OW97164   1.785   7.929   9.941
98442SOL    HW197165   1.843   7.998   9.909
98442SOL    HW297166   1.736   7.901   9.863
98443SOL     OW97167   8.084   6.865   8.222
98443SOL    HW197168   8.141   6.941   8.205
98443SOL    HW297169   8.069   6.867   8.316
98444SOL     OW97170   0.834  10.277   8.509
98444SOL    HW197171   0.846  10.301   8.601
98444SOL    HW297172   0.755  10.224   8.508
98445SOL     OW97173  14.591  11.967  13.660
98445SOL    HW197174  14.623  11.877  13.650
98445SOL    HW297175  14.648  12.006  13.726
98446SOL     OW97176  12.317  11.700   7.278
98446SOL    HW197177  12.228  11.669   7.262
98446SOL    HW297178  12.313  11.794   7.262
98447SOL     OW97179   5.317   5.573   9.121
98447SOL    HW197180   5.305   5.487   9.161
98447SOL    HW297181   5.407   5.597   9.144
98448SOL     OW97182   8.877   6.258  13.660
98448SOL    HW197183   8.824   6.269  13.581
98448SOL    HW297184   8.901   6.166  13.660
98449SOL     OW97185  13.886  11.684   3.033
98449SOL    HW197186  13.917  11.594   3.022
98449SOL    HW297187  13.841  11.704   2.951
98450SOL     OW97188  10.350   3.745   1.538
98450SOL    HW197189  10.258   3.760   1.515
98450SOL    HW297190  10.362   3.789   1.622
98451SOL     OW97191   3.952   2.498   7.856
98451SOL    HW197192   3.986   2.576   7.813
98451SOL    HW297193   4.026   2.438   7.860
98452SOL     OW97194  10.714   3.718   4.941
98452SOL    HW197195  10.793   3.771   4.932
98452SOL    HW297196  10.737   3.633   4.903
98453SOL     OW97197   4.110  13.861   4.844
98453SOL    HW197198   4.096  13.944   4.889
98453SOL    HW297199   4.119  13.796   4.914
98454SOL     OW97200   0.589   0.602   3.319
98454SOL    HW197201   0.683   0.595   3.302
98454SOL    HW297202   0.580   0.682   3.371
98455SOL     OW97203   7.498   9.167   3.079
98455SOL    HW197204   7.505   9.076   3.051
98455SOL    HW297205   7.468   9.162   3.170
98456SOL     OW97206   4.027   6.771  10.469
98456SOL    HW197207   4.109   6.727  10.446
98456SOL    HW297208   3.974   6.703  10.511
98457SOL     OW97209   2.872   2.830  11.912
98457SOL    HW197210   2.831   2.745  11.926
98457SOL    HW297211   2.827   2.866  11.836
98458SOL     OW97212  11.653  11.036   5.254
98458SOL    HW197213  11.573  11.013   5.301
98458SOL    HW297214  11.715  11.061   5.323
98459SOL     OW97215  14.030   0.341   2.701
98459SOL    HW197216  14.054   0.291   2.779
98459SOL    HW297217  14.039   0.433   2.728
98460SOL     OW97218   6.910  13.057   5.962
98460SOL    HW197219   6.837  13.107   5.925
98460SOL    HW297220   6.944  13.006   5.889
98461SOL     OW97221   8.267  13.454  14.053
98461SOL    HW197222   8.360  13.475  14.057
98461SOL    HW297223   8.236  13.463  14.143
98462SOL     OW97224  14.004   8.365   0.028
98462SOL    HW197225  13.981   8.414  14.823
98462SOL    HW297226  14.012   8.274  14.874
98463SOL     OW97227  10.887  10.217   1.573
98463SOL    HW197228  10.799  10.215   1.610
98463SOL    HW297229  10.901  10.128   1.539
98464SOL     OW97230   9.154   3.882   2.296
98464SOL    HW197231   9.084   3.817   2.288
98464SOL    HW297232   9.118   3.948   2.355
98465SOL     OW97233   7.559   9.550  10.456
98465SOL    HW197234   7.650   9.558  10.430
98465SOL    HW297235   7.557   9.475  10.516
98466SOL     OW97236   1.837   6.434   0.882
98466SOL    HW197237   1.780   6.504   0.851
98466SOL    HW297238   1.922   6.477   0.895
98467SOL     OW97239   2.913  11.779   3.997
98467SOL    HW197240   2.862  11.713   4.044
98467SOL    HW297241   2.856  11.856   3.996
98468SOL     OW97242   9.121   0.321  11.516
98468SOL    HW197243   9.040   0.299  11.561
98468SOL    HW297244   9.094   0.348  11.428
98469SOL     OW97245  12.854   8.453   1.358
98469SOL    HW197246  12.789   8.523   1.350
98469SOL    HW297247  12.840   8.419   1.446
98470SOL     OW97248   7.558  13.826  12.356
98470SOL    HW197249   7.624  13.866  12.413
98470SOL    HW297250   7.575  13.732  12.362
98471SOL     OW97251   6.989  14.351   3.865
98471SOL    HW197252   7.054  14.410   3.905
98471SOL    HW297253   7.015  14.347   3.773
98472SOL     OW97254   7.978   8.934  10.247
98472SOL    HW197255   7.908   8.998  10.255
98472SOL    HW297256   7.972   8.901  10.158
98473SOL     OW97257  10.210   8.683  12.423
98473SOL    HW197258  10.136   8.713  12.370
98473SOL    HW297259  10.249   8.612  12.371
98474SOL     OW97260   2.855   5.090   9.212
98474SOL    HW197261   2.824   5.034   9.141
98474SOL    HW297262   2.788   5.083   9.280
98475SOL     OW97263   4.188   8.136   7.394
98475SOL    HW197264   4.234   8.070   7.342
98475SOL    HW297265   4.097   8.106   7.394
98476SOL     OW97266   4.016  12.930   4.626
98476SOL    HW197267   4.009  12.844   4.586
98476SOL    HW297268   3.946  12.981   4.584
98477SOL     OW97269   1.768   7.333   4.107
98477SOL    HW197270   1.734   7.304   4.192
98477SOL    HW297271   1.709   7.293   4.043
98478SOL     OW97272   5.361  13.411   4.430
98478SOL    HW197273   5.420  13.389   4.357
98478SOL    HW297274   5.348  13.505   4.422
98479SOL     OW97275   8.751   8.912   9.162
98479SOL    HW197276   8.736   8.818   9.170
98479SOL    HW297277   8.730   8.932   9.071
98480SOL     OW97278   7.695   6.469   9.687
98480SOL    HW197279   7.611   6.492   9.727
98480SOL    HW297280   7.761   6.496   9.751
98481SOL     OW97281   9.023   1.418   0.172
98481SOL    HW197282   9.032   1.493   0.230
98481SOL    HW297283   8.942   1.435   0.123
98482SOL     OW97284   6.460  12.085  13.067
98482SOL    HW197285   6.480  12.156  13.005
98482SOL    HW297286   6.367  12.067  13.053
98483SOL     OW97287  14.824  14.771   8.167
98483SOL    HW197288  14.815  14.707   8.238
98483SOL    HW297289   0.028  14.821   8.190
98484SOL     OW97290  14.768   6.268  13.791
98484SOL    HW197291  14.686   6.315  13.773
98484SOL    HW297292  14.756   6.184  13.746
98485SOL     OW97293  10.274   9.452  12.480
98485SOL    HW197294  10.226   9.533  12.495
98485SOL    HW297295  10.291   9.417  12.568
98486SOL     OW97296  11.291   7.531   8.136
98486SOL    HW197297  11.310   7.471   8.209
98486SOL    HW297298  11.273   7.615   8.179
98487SOL     OW97299   2.192   2.755  10.410
98487SOL    HW197300   2.285   2.734  10.414
98487SOL    HW297301   2.157   2.728  10.495
98488SOL     OW97302   5.930   2.918   6.181
98488SOL    HW197303   5.839   2.894   6.195
98488SOL    HW297304   5.945   2.900   6.088
98489SOL     OW97305   3.049   7.576   3.746
98489SOL    HW197306   3.032   7.535   3.661
98489SOL    HW297307   3.031   7.669   3.731
98490SOL     OW97308   2.288  14.119  12.070
98490SOL    HW197309   2.214  14.058  12.068
98490SOL    HW297310   2.263  14.189  12.010
98491SOL     OW97311   7.193   6.359  12.215
98491SOL    HW197312   7.257   6.424  12.244
98491SOL    HW297313   7.190   6.369  12.120
98492SOL     OW97314  11.227  11.792   4.267
98492SOL    HW197315  11.179  11.720   4.227
98492SOL    HW297316  11.296  11.813   4.204
98493SOL     OW97317   0.478  12.902   5.359
98493SOL    HW197318   0.468  12.847   5.282
98493SOL    HW297319   0.470  12.992   5.325
98494SOL     OW97320   4.532   5.901   1.376
98494SOL    HW197321   4.606   5.950   1.342
98494SOL    HW297322   4.479   5.880   1.299
98495SOL     OW97323   0.210   2.942   3.971
98495SOL    HW197324   0.248   2.958   4.058
98495SOL    HW297325   0.148   2.870   3.985
98496SOL     OW97326   2.440  12.910   5.310
98496SOL    HW197327   2.346  12.895   5.318
98496SOL    HW297328   2.477  12.824   5.290
98497SOL     OW97329   5.630  11.044   0.902
98497SOL    HW197330   5.716  11.065   0.937
98497SOL    HW297331   5.593  10.982   0.965
98498SOL     OW97332   2.200   9.299   0.050
98498SOL    HW197333   2.231   9.387   0.072
98498SOL    HW297334   2.118   9.289   0.100
98499SOL     OW97335  14.234   1.502   2.518
98499SOL    HW197336  14.310   1.467   2.564
98499SOL    HW297337  14.268   1.576   2.467
98500SOL     OW97338  13.393  14.171  12.255
98500SOL    HW197339  13.315  14.116  12.266
98500SOL    HW297340  13.364  14.243  12.200
98501SOL     OW97341   1.747   8.134   9.596
98501SOL    HW197342   1.730   8.039   9.598
98501SOL    HW297343   1.758   8.154   9.504
98502SOL     OW97344   9.230  12.327   6.357
98502SOL    HW197345   9.182  12.298   6.280
98502SOL    HW297346   9.163  12.363   6.415
98503SOL     OW97347   7.641   2.582   7.246
98503SOL    HW197348   7.683   2.498   7.263
98503SOL    HW297349   7.557   2.577   7.290
98504SOL     OW97350   3.168   3.307   4.830
98504SOL    HW197351   3.159   3.237   4.895
98504SOL    HW297352   3.251   3.350   4.852
98505SOL     OW97353   0.346  10.953  12.149
98505SOL    HW197354   0.316  10.875  12.195
98505SOL    HW297355   0.317  10.941  12.059
98506SOL     OW97356   4.579  11.450  13.950
98506SOL    HW197357   4.553  11.514  14.016
98506SOL    HW297358   4.615  11.377  14.000
98507SOL     OW97359  13.280   5.953   4.371
98507SOL    HW197360  13.240   5.866   4.372
98507SOL    HW297361  13.360   5.943   4.423
98508SOL     OW97362   3.481  12.742   5.674
98508SOL    HW197363   3.398  12.760   5.719
98508SOL    HW297364   3.515  12.664   5.718
98509SOL     OW97365   7.090   0.000  11.329
98509SOL    HW197366   7.047  14.822  11.262
98509SOL    HW297367   7.019   0.046  11.373
98510SOL     OW97368   6.855   2.807   2.620
98510SOL    HW197369   6.833   2.860   2.697
98510SOL    HW297370   6.947   2.784   2.633
98511SOL     OW97371   6.105   2.518   4.234
98511SOL    HW197372   6.100   2.488   4.143
98511SOL    HW297373   6.015   2.541   4.257
98512SOL     OW97374   7.339   2.626   9.821
98512SOL    HW197375   7.245   2.645   9.815
98512SOL    HW297376   7.344   2.542   9.865
98513SOL     OW97377  14.164  13.545   4.397
98513SOL    HW197378  14.143  13.621   4.342
98513SOL    HW297379  14.134  13.470   4.346
98514SOL     OW97380  10.853   7.545   0.190
98514SOL    HW197381  10.834   7.457   0.224
98514SOL    HW297382  10.784   7.561   0.126
98515SOL     OW97383   5.677   3.574  12.457
98515SOL    HW197384   5.729   3.623  12.520
98515SOL    HW297385   5.592   3.618  12.456
98516SOL     OW97386   3.586   0.985  14.534
98516SOL    HW197387   3.590   0.891  14.515
98516SOL    HW297388   3.532   1.021  14.464
98517SOL     OW97389   1.317   0.431   1.946
98517SOL    HW197390   1.382   0.463   1.883
98517SOL    HW297391   1.265   0.368   1.896
98518SOL     OW97392  10.105  13.838   1.008
98518SOL    HW197393  10.171  13.769   0.997
98518SOL    HW297394  10.100  13.879   0.921
98519SOL     OW97395   0.429   8.806   3.811
98519SOL    HW197396   0.428   8.720   3.769
98519SOL    HW297397   0.492   8.857   3.759
98520SOL     OW97398   7.131   8.910  14.743
98520SOL    HW197399   7.193   8.951  14.804
98520SOL    HW297400   7.054   8.967  14.746
98521SOL     OW97401   9.198  13.023   6.281
98521SOL    HW197402   9.165  13.008   6.370
98521SOL    HW297403   9.268  13.087   6.291
98522SOL     OW97404  14.235  13.981   4.534
98522SOL    HW197405  14.143  13.982   4.510
98522SOL    HW297406  14.262  14.073   4.532
98523SOL     OW97407   7.103  10.976   3.350
98523SOL    HW197408   7.168  10.997   3.282
98523SOL    HW297409   7.020  11.009   3.315
98524SOL     OW97410   1.217  10.409   7.687
98524SOL    HW197411   1.239  10.456   7.606
98524SOL    HW297412   1.298  10.406   7.736
98525SOL     OW97413   0.658   6.945   7.471
98525SOL    HW197414   0.574   6.990   7.480
98525SOL    HW297415   0.670   6.900   7.554
98526SOL     OW97416   5.964   3.466   3.991
98526SOL    HW197417   6.031   3.525   4.025
98526SOL    HW297418   5.956   3.398   4.057
98527SOL     OW97419  10.472  13.278   8.367
98527SOL    HW197420  10.395  13.226   8.348
98527SOL    HW297421  10.444  13.341   8.434
98528SOL     OW97422   9.009   5.251   9.174
98528SOL    HW197423   9.028   5.336   9.134
98528SOL    HW297424   9.058   5.188   9.121
98529SOL     OW97425  11.284   8.706   7.246
98529SOL    HW197426  11.240   8.630   7.285
98529SOL    HW297427  11.376   8.681   7.243
98530SOL     OW97428   4.904   7.196   1.808
98530SOL    HW197429   4.870   7.264   1.866
98530SOL    HW297430   4.987   7.232   1.776
98531SOL     OW97431  12.517   6.439  12.165
98531SOL    HW197432  12.540   6.489  12.086
98531SOL    HW297433  12.480   6.504  12.225
98532SOL     OW97434  10.753   8.321   2.941
98532SOL    HW197435  10.815   8.278   3.000
98532SOL    HW297436  10.670   8.275   2.956
98533SOL     OW97437   6.078   3.591  10.708
98533SOL    HW197438   6.118   3.559  10.788
98533SOL    HW297439   6.020   3.662  10.736
98534SOL     OW97440   3.543   5.596  13.164
98534SOL    HW197441   3.505   5.508  13.171
98534SOL    HW297442   3.470   5.655  13.185
98535SOL     OW97443   4.976   9.995   3.129
98535SOL    HW197444   4.897  10.000   3.076
98535SOL    HW297445   5.002   9.903   3.124
98536SOL     OW97446   5.243   4.353  14.093
98536SOL    HW197447   5.150   4.377  14.097
98536SOL    HW297448   5.255   4.294  14.168
98537SOL     OW97449   6.210   6.848   6.172
98537SOL    HW197450   6.142   6.785   6.151
98537SOL    HW297451   6.292   6.802   6.153
98538SOL     OW97452   4.252  12.672   6.720
98538SOL    HW197453   4.347  12.665   6.735
98538SOL    HW297454   4.226  12.749   6.770
98539SOL     OW97455  14.688   2.670   9.124
98539SOL    HW197456  14.675   2.637   9.035
98539SOL    HW297457  14.700   2.592   9.177
98540SOL     OW97458   9.520   7.764  11.970
98540SOL    HW197459   9.443   7.784  12.022
98540SOL    HW297460   9.505   7.808  11.886
98541SOL     OW97461   8.387   6.134   6.504
98541SOL    HW197462   8.369   6.194   6.576
98541SOL    HW297463   8.464   6.172   6.461
98542SOL     OW97464   8.590   4.457   5.190
98542SOL    HW197465   8.603   4.507   5.271
98542SOL    HW297466   8.606   4.520   5.120
98543SOL     OW97467  10.665  11.189  11.191
98543SOL    HW197468  10.641  11.282  11.193
98543SOL    HW297469  10.618  11.150  11.264
98544SOL     OW97470   0.237  13.565   1.527
98544SOL    HW197471   0.273  13.577   1.615
98544SOL    HW297472   0.143  13.583   1.538
98545SOL     OW97473   5.591   2.208   3.521
98545SOL    HW197474   5.642   2.149   3.577
98545SOL    HW297475   5.515   2.231   3.574
98546SOL     OW97476   9.585  13.679   0.265
98546SOL    HW197477   9.635  13.738   0.210
98546SOL    HW297478   9.590  13.594   0.221
98547SOL     OW97479   4.266   2.140   0.033
98547SOL    HW197480   4.312   2.160  14.826
98547SOL    HW297481   4.315   2.067   0.071
98548SOL     OW97482   5.154  12.680  14.034
98548SOL    HW197483   5.060  12.687  14.049
98548SOL    HW297484   5.162  12.644  13.946
98549SOL     OW97485   6.868   6.919   1.910
98549SOL    HW197486   6.955   6.881   1.902
98549SOL    HW297487   6.809   6.844   1.900
98550SOL     OW97488   0.719   6.802   6.555
98550SOL    HW197489   0.724   6.717   6.599
98550SOL    HW297490   0.625   6.816   6.540
98551SOL     OW97491  14.336   6.352  10.731
98551SOL    HW197492  14.423   6.328  10.698
98551SOL    HW297493  14.283   6.362  10.653
98552SOL     OW97494   6.403   4.998  12.389
98552SOL    HW197495   6.323   5.039  12.424
98552SOL    HW297496   6.412   4.917  12.439
98553SOL     OW97497   8.643   3.687   8.738
98553SOL    HW197498   8.599   3.745   8.675
98553SOL    HW297499   8.736   3.704   8.724
98554SOL     OW97500  13.659   2.574   8.676
98554SOL    HW197501  13.639   2.662   8.645
98554SOL    HW297502  13.688   2.587   8.767
98555SOL     OW97503   2.455  10.985  13.737
98555SOL    HW197504   2.489  10.971  13.649
98555SOL    HW297505   2.365  11.013  13.725
98556SOL     OW97506   5.836   5.810  14.775
98556SOL    HW197507   5.755   5.780  14.734
98556SOL    HW297508   5.905   5.759  14.734
98557SOL     OW97509   4.982  10.306   6.258
98557SOL    HW197510   4.921  10.306   6.332
98557SOL    HW297511   4.968  10.391   6.215
98558SOL     OW97512  13.148   2.102   3.170
98558SOL    HW197513  13.213   2.148   3.118
98558SOL    HW297514  13.078   2.166   3.183
98559SOL     OW97515   6.678  11.457   5.891
98559SOL    HW197516   6.731  11.536   5.903
98559SOL    HW297517   6.592  11.480   5.924
98560SOL     OW97518   3.834  10.619   0.896
98560SOL    HW197519   3.914  10.571   0.917
98560SOL    HW297520   3.775  10.552   0.860
98561SOL     OW97521  11.804  14.459   0.738
98561SOL    HW197522  11.766  14.396   0.677
98561SOL    HW297523  11.843  14.526   0.682
98562SOL     OW97524   6.986   4.892   0.610
98562SOL    HW197525   7.042   4.968   0.601
98562SOL    HW297526   6.963   4.890   0.703
98563SOL     OW97527   8.534   7.633   1.718
98563SOL    HW197528   8.594   7.676   1.657
98563SOL    HW297529   8.555   7.671   1.803
98564SOL     OW97530   7.614   0.181   1.916
98564SOL    HW197531   7.565   0.117   1.969
98564SOL    HW297532   7.555   0.202   1.844
98565SOL     OW97533  12.045  10.299   3.453
98565SOL    HW197534  12.038  10.306   3.548
98565SOL    HW297535  12.114  10.234   3.439
98566SOL     OW97536   3.928   6.299   5.028
98566SOL    HW197537   3.869   6.276   4.956
98566SOL    HW297538   3.951   6.215   5.068
98567SOL     OW97539  12.939  14.215   5.523
98567SOL    HW197540  13.030  14.193   5.544
98567SOL    HW297541  12.910  14.268   5.597
98568SOL     OW97542   6.191   5.305  10.225
98568SOL    HW197543   6.249   5.344  10.160
98568SOL    HW297544   6.249   5.280  10.297
98569SOL     OW97545   0.811   4.216   3.249
98569SOL    HW197546   0.873   4.286   3.272
98569SOL    HW297547   0.733   4.263   3.219
98570SOL     OW97548  11.256  10.600   4.637
98570SOL    HW197549  11.233  10.642   4.720
98570SOL    HW297550  11.334  10.547   4.657
98571SOL     OW97551  10.960   4.014   0.013
98571SOL    HW197552  11.005   3.939   0.053
98571SOL    HW297553  10.971   4.001  14.793
98572SOL     OW97554   5.589   3.092  12.240
98572SOL    HW197555   5.495   3.095  12.221
98572SOL    HW297556   5.613   3.184  12.255
98573SOL     OW97557   8.856   2.683   3.946
98573SOL    HW197558   8.819   2.678   3.858
98573SOL    HW297559   8.843   2.774   3.973
98574SOL     OW97560   2.105  11.166   8.164
98574SOL    HW197561   2.197  11.167   8.136
98574SOL    HW297562   2.092  11.078   8.200
98575SOL     OW97563  11.411  13.067   7.234
98575SOL    HW197564  11.343  13.131   7.256
98575SOL    HW297565  11.394  13.046   7.142
98576SOL     OW97566  12.862   2.496  11.330
98576SOL    HW197567  12.883   2.569  11.272
98576SOL    HW297568  12.768   2.504  11.346
98577SOL     OW97569   9.861   9.835   1.973
98577SOL    HW197570   9.790   9.873   1.920
98577SOL    HW297571   9.852   9.878   2.058
98578SOL     OW97572  13.132   6.221  12.182
98578SOL    HW197573  13.195   6.273  12.131
98578SOL    HW297574  13.107   6.149  12.123
98579SOL     OW97575   4.004  14.308   5.744
98579SOL    HW197576   4.002  14.338   5.835
98579SOL    HW297577   3.942  14.235   5.741
98580SOL     OW97578   3.648   7.238   1.844
98580SOL    HW197579   3.652   7.282   1.759
98580SOL    HW297580   3.606   7.301   1.902
98581SOL     OW97581   6.545  11.616   2.235
98581SOL    HW197582   6.568  11.707   2.249
98581SOL    HW297583   6.451  11.612   2.249
98582SOL     OW97584   3.750   1.272  12.736
98582SOL    HW197585   3.741   1.297  12.644
98582SOL    HW297586   3.761   1.354  12.783
98583SOL     OW97587   6.938   4.407   1.318
98583SOL    HW197588   6.885   4.346   1.267
98583SOL    HW297589   6.982   4.461   1.253
98584SOL     OW97590   9.208   3.746   1.165
98584SOL    HW197591   9.273   3.686   1.202
98584SOL    HW297592   9.145   3.688   1.121
98585SOL     OW97593   0.613  12.435  12.057
98585SOL    HW197594   0.687  12.431  11.995
98585SOL    HW297595   0.636  12.505  12.117
98586SOL     OW97596   1.949   9.985   9.238
98586SOL    HW197597   1.920  10.069   9.273
98586SOL    HW297598   1.937   9.993   9.144
98587SOL     OW97599  11.596  11.779   4.823
98587SOL    HW197600  11.536  11.854   4.821
98587SOL    HW297601  11.566  11.727   4.897
98588SOL     OW97602  13.578  11.812   6.575
98588SOL    HW197603  13.609  11.731   6.536
98588SOL    HW297604  13.482  11.808   6.565
98589SOL     OW97605  10.995   2.830   3.767
98589SOL    HW197606  10.900   2.815   3.769
98589SOL    HW297607  11.032   2.743   3.750
98590SOL     OW97608   1.514   2.041   1.992
98590SOL    HW197609   1.596   2.063   1.948
98590SOL    HW297610   1.528   1.954   2.028
98591SOL     OW97611   7.241   3.538   8.382
98591SOL    HW197612   7.169   3.567   8.327
98591SOL    HW297613   7.258   3.611   8.442
98592SOL     OW97614   9.002   2.885  13.644
98592SOL    HW197615   8.973   2.868  13.734
98592SOL    HW297616   9.097   2.890  13.650
98593SOL     OW97617  11.406   9.003   8.713
98593SOL    HW197618  11.315   9.023   8.692
98593SOL    HW297619  11.454   9.084   8.694
98594SOL     OW97620  10.004   4.254   0.068
98594SOL    HW197621  10.086   4.292   0.100
98594SOL    HW297622  10.003   4.274  14.849
98595SOL     OW97623  14.434   5.078  10.735
98595SOL    HW197624  14.424   5.105  10.826
98595SOL    HW297625  14.483   5.149  10.694
98596SOL     OW97626   8.701   5.860   1.928
98596SOL    HW197627   8.771   5.923   1.948
98596SOL    HW297628   8.622   5.913   1.927
98597SOL     OW97629   7.406   3.532  12.569
98597SOL    HW197630   7.353   3.563  12.643
98597SOL    HW297631   7.466   3.469  12.608
98598SOL     OW97632  10.355   9.117   2.899
98598SOL    HW197633  10.422   9.117   2.830
98598SOL    HW297634  10.333   9.209   2.910
98599SOL     OW97635  11.439   7.828   2.785
98599SOL    HW197636  11.413   7.805   2.696
98599SOL    HW297637  11.467   7.745   2.824
98600SOL     OW97638   4.791   4.499   4.749
98600SOL    HW197639   4.782   4.546   4.666
98600SOL    HW297640   4.730   4.543   4.808
98601SOL     OW97641   0.511  12.720   5.578
98601SOL    HW197642   0.507  12.793   5.639
98601SOL    HW297643   0.500  12.760   5.491
98602SOL     OW97644  13.350   9.877   9.828
98602SOL    HW197645  13.369   9.910   9.916
98602SOL    HW297646  13.402   9.932   9.770
98603SOL     OW97647  11.051  14.409   5.232
98603SOL    HW197648  11.035  14.477   5.298
98603SOL    HW297649  10.966  14.365   5.223
98604SOL     OW97650   4.711   1.566   3.054
98604SOL    HW197651   4.762   1.517   3.119
98604SOL    HW297652   4.752   1.652   3.052
98605SOL     OW97653   3.922   3.628   6.961
98605SOL    HW197654   3.873   3.561   6.914
98605SOL    HW297655   3.955   3.686   6.892
98606SOL     OW97656  12.227  10.073   3.865
98606SOL    HW197657  12.236  10.130   3.942
98606SOL    HW297658  12.286  10.110   3.800
98607SOL     OW97659  14.250  12.749   9.628
98607SOL    HW197660  14.286  12.826   9.585
98607SOL    HW297661  14.228  12.778   9.716
98608SOL     OW97662   7.810   2.695  13.788
98608SOL    HW197663   7.817   2.637  13.713
98608SOL    HW297664   7.782   2.779  13.751
98609SOL     OW97665   4.687   3.637  13.917
98609SOL    HW197666   4.662   3.685  13.996
98609SOL    HW297667   4.741   3.565  13.950
98610SOL     OW97668   0.532   7.115   0.256
98610SOL    HW197669   0.462   7.176   0.234
98610SOL    HW297670   0.491   7.052   0.316
98611SOL     OW97671   8.486   3.516   6.070
98611SOL    HW197672   8.424   3.443   6.055
98611SOL    HW297673   8.450   3.563   6.145
98612SOL     OW97674   7.120   6.673   2.462
98612SOL    HW197675   7.044   6.711   2.418
98612SOL    HW297676   7.188   6.669   2.395
98613SOL     OW97677   2.080   1.806   6.209
98613SOL    HW197678   2.018   1.875   6.187
98613SOL    HW297679   2.059   1.735   6.148
98614SOL     OW97680   6.857   2.101  11.222
98614SOL    HW197681   6.818   2.169  11.167
98614SOL    HW297682   6.912   2.051  11.162
98615SOL     OW97683   5.652   0.534   2.736
98615SOL    HW197684   5.675   0.498   2.822
98615SOL    HW297685   5.635   0.457   2.682
98616SOL     OW97686   7.831   9.324   8.282
98616SOL    HW197687   7.862   9.326   8.191
98616SOL    HW297688   7.744   9.363   8.278
98617SOL     OW97689  10.146   3.823   3.707
98617SOL    HW197690  10.131   3.910   3.744
98617SOL    HW297691  10.185   3.841   3.621
98618SOL     OW97692   3.408   6.328   1.166
98618SOL    HW197693   3.327   6.304   1.120
98618SOL    HW297694   3.475   6.329   1.098
98619SOL     OW97695  11.774   2.350  11.055
98619SOL    HW197696  11.794   2.439  11.085
98619SOL    HW297697  11.681   2.353  11.030
98620SOL     OW97698  12.435   3.088   3.343
98620SOL    HW197699  12.524   3.064   3.319
98620SOL    HW297700  12.380   3.022   3.299
98621SOL     OW97701   9.030   9.283   9.059
98621SOL    HW197702   9.049   9.189   9.052
98621SOL    HW297703   9.088   9.323   8.994
98622SOL     OW97704   2.797  14.872  12.023
98622SOL    HW197705   2.763  14.786  12.046
98622SOL    HW297706   2.748   0.023  11.944
98623SOL     OW97707  13.352   9.341  10.960
98623SOL    HW197708  13.385   9.280  11.027
98623SOL    HW297709  13.351   9.290  10.879
98624SOL     OW97710   6.774   2.658  11.274
98624SOL    HW197711   6.702   2.611  11.231
98624SOL    HW297712   6.790   2.609  11.354
98625SOL     OW97713  12.008   9.601   1.796
98625SOL    HW197714  11.922   9.611   1.837
98625SOL    HW297715  12.049   9.528   1.842
98626SOL     OW97716  13.585  10.300   0.678
98626SOL    HW197717  13.632  10.246   0.614
98626SOL    HW297718  13.514  10.340   0.628
98627SOL     OW97719   8.371  11.447   4.995
98627SOL    HW197720   8.312  11.387   4.950
98627SOL    HW297721   8.371  11.526   4.941
98628SOL     OW97722   6.148   2.294  10.751
98628SOL    HW197723   6.147   2.230  10.680
98628SOL    HW297724   6.071   2.349  10.735
98629SOL     OW97725   7.073  12.277   2.042
98629SOL    HW197726   7.161  12.272   2.005
98629SOL    HW297727   7.015  12.274   1.967
98630SOL     OW97728   2.799   7.322   6.216
98630SOL    HW197729   2.773   7.391   6.276
98630SOL    HW297730   2.721   7.305   6.164
98631SOL     OW97731  10.837  10.011   9.646
98631SOL    HW197732  10.840   9.932   9.701
98631SOL    HW297733  10.802  10.078   9.704
98632SOL     OW97734   9.738   9.240  11.518
98632SOL    HW197735   9.681   9.313  11.496
98632SOL    HW297736   9.681   9.164  11.520
98633SOL     OW97737   1.461  12.653   1.023
98633SOL    HW197738   1.373  12.641   0.988
98633SOL    HW297739   1.463  12.598   1.101
98634SOL     OW97740   0.291   6.494   5.443
98634SOL    HW197741   0.208   6.532   5.415
98634SOL    HW297742   0.270   6.403   5.466
98635SOL     OW97743  14.784   4.105   0.578
98635SOL    HW197744  14.773   4.162   0.502
98635SOL    HW297745  14.695   4.085   0.606
98636SOL     OW97746   3.060  14.496   2.082
98636SOL    HW197747   3.021  14.577   2.114
98636SOL    HW297748   3.028  14.428   2.141
98637SOL     OW97749  13.059   8.090   2.546
98637SOL    HW197750  13.118   8.041   2.489
98637SOL    HW297751  13.112   8.113   2.623
98638SOL     OW97752   7.350   5.587  13.655
98638SOL    HW197753   7.395   5.662  13.694
98638SOL    HW297754   7.291   5.625  13.590
98639SOL     OW97755   8.474   7.002   1.154
98639SOL    HW197756   8.407   7.031   1.216
98639SOL    HW297757   8.554   7.046   1.182
98640SOL     OW97758   9.853   6.946   9.946
98640SOL    HW197759   9.826   7.033   9.918
98640SOL    HW297760   9.797   6.927  10.022
98641SOL     OW97761   8.435   4.760   4.694
98641SOL    HW197762   8.393   4.809   4.765
98641SOL    HW297763   8.458   4.827   4.630
98642SOL     OW97764   2.592   3.039   6.460
98642SOL    HW197765   2.673   3.088   6.450
98642SOL    HW297766   2.523   3.102   6.439
98643SOL     OW97767   1.475   3.538  11.984
98643SOL    HW197768   1.415   3.510  11.915
98643SOL    HW297769   1.546   3.475  11.981
98644SOL     OW97770   9.412   5.028  14.057
98644SOL    HW197771   9.400   4.935  14.076
98644SOL    HW297772   9.413   5.070  14.143
98645SOL     OW97773  10.961  14.262   6.736
98645SOL    HW197774  10.921  14.239   6.652
98645SOL    HW297775  11.055  14.248   6.722
98646SOL     OW97776  14.048   1.315   8.799
98646SOL    HW197777  14.104   1.300   8.723
98646SOL    HW297778  14.077   1.251   8.864
98647SOL     OW97779   3.533   6.503  11.284
98647SOL    HW197780   3.594   6.438  11.250
98647SOL    HW297781   3.460   6.452  11.319
98648SOL     OW97782   7.618  11.469  13.225
98648SOL    HW197783   7.539  11.439  13.271
98648SOL    HW297784   7.627  11.408  13.151
98649SOL     OW97785  14.426  10.257  10.995
98649SOL    HW197786  14.346  10.305  11.015
98649SOL    HW297787  14.450  10.286  10.907
98650SOL     OW97788   5.190   5.091   5.783
98650SOL    HW197789   5.195   5.020   5.846
98650SOL    HW297790   5.204   5.049   5.698
98651SOL     OW97791   2.760   7.559   1.814
98651SOL    HW197792   2.796   7.539   1.900
98651SOL    HW297793   2.800   7.643   1.790
98652SOL     OW97794   7.372   3.823  13.242
98652SOL    HW197795   7.378   3.819  13.146
98652SOL    HW297796   7.379   3.732  13.270
98653SOL     OW97797  12.699   2.883  10.117
98653SOL    HW197798  12.607   2.885  10.090
98653SOL    HW297799  12.745   2.843  10.044
98654SOL     OW97800   8.744  12.421  12.645
98654SOL    HW197801   8.676  12.443  12.709
98654SOL    HW297802   8.823  12.408  12.698
98655SOL     OW97803   7.473   0.223   7.807
98655SOL    HW197804   7.450   0.130   7.802
98655SOL    HW297805   7.394   0.264   7.843
98656SOL     OW97806   8.910  10.989   6.258
98656SOL    HW197807   8.855  11.034   6.193
98656SOL    HW297808   8.999  10.998   6.224
98657SOL     OW97809   2.897  13.480  14.563
98657SOL    HW197810   2.953  13.507  14.490
98657SOL    HW297811   2.943  13.510  14.641
98658SOL     OW97812   1.130  11.547   7.423
98658SOL    HW197813   1.088  11.593   7.351
98658SOL    HW297814   1.160  11.617   7.481
98659SOL     OW97815   9.591   8.664  11.092
98659SOL    HW197816   9.614   8.743  11.044
98659SOL    HW297817   9.496   8.667  11.099
98660SOL     OW97818  11.637  11.755   4.263
98660SOL    HW197819  11.728  11.754   4.234
98660SOL    HW297820  11.643  11.744   4.358
98661SOL     OW97821   2.838  13.871   1.275
98661SOL    HW197822   2.860  13.908   1.189
98661SOL    HW297823   2.802  13.785   1.256
98662SOL     OW97824   8.806   7.833   2.530
98662SOL    HW197825   8.744   7.834   2.603
98662SOL    HW297826   8.887   7.870   2.566
98663SOL     OW97827   4.492   3.027   5.098
98663SOL    HW197828   4.518   3.108   5.140
98663SOL    HW297829   4.456   3.053   5.013
98664SOL     OW97830  11.726  12.057   4.429
98664SOL    HW197831  11.786  12.012   4.488
98664SOL    HW297832  11.692  12.131   4.480
98665SOL     OW97833   0.303   7.680   1.636
98665SOL    HW197834   0.265   7.746   1.578
98665SOL    HW297835   0.332   7.729   1.712
98666SOL     OW97836   9.826  13.660  12.088
98666SOL    HW197837   9.855  13.650  12.179
98666SOL    HW297838   9.906  13.649  12.036
98667SOL     OW97839   3.307  11.199   5.189
98667SOL    HW197840   3.237  11.198   5.124
98667SOL    HW297841   3.371  11.261   5.153
98668SOL     OW97842   3.741   6.672   6.336
98668SOL    HW197843   3.733   6.684   6.431
98668SOL    HW297844   3.653   6.648   6.307
98669SOL     OW97845  10.690   3.990   6.422
98669SOL    HW197846  10.703   3.896   6.407
98669SOL    HW297847  10.732   4.033   6.347
98670SOL     OW97848  14.134  11.339  14.292
98670SOL    HW197849  14.053  11.388  14.310
98670SOL    HW297850  14.104  11.261  14.245
98671SOL     OW97851   9.836   6.739  10.802
98671SOL    HW197852   9.791   6.795  10.739
98671SOL    HW297853   9.912   6.705  10.755
98672SOL     OW97854  10.235  10.128  12.760
98672SOL    HW197855  10.238  10.184  12.838
98672SOL    HW297856  10.280  10.178  12.692
98673SOL     OW97857   1.792   7.114   2.728
98673SOL    HW197858   1.729   7.079   2.664
98673SOL    HW297859   1.743   7.117   2.810
98674SOL     OW97860   0.576   3.301  12.075
98674SOL    HW197861   0.538   3.352  12.147
98674SOL    HW297862   0.584   3.363  12.003
98675SOL     OW97863   2.966   1.603   0.222
98675SOL    HW197864   3.046   1.650   0.199
98675SOL    HW297865   2.997   1.527   0.272
98676SOL     OW97866   0.335  12.252   3.219
98676SOL    HW197867   0.385  12.170   3.221
98676SOL    HW297868   0.388  12.311   3.166
98677SOL     OW97869   2.577  13.082   1.045
98677SOL    HW197870   2.502  13.025   1.030
98677SOL    HW297871   2.641  13.056   0.980
98678SOL     OW97872   7.884   9.367   9.099
98678SOL    HW197873   7.893   9.352   9.193
98678SOL    HW297874   7.801   9.415   9.091
98679SOL     OW97875   5.447  10.106   7.464
98679SOL    HW197876   5.522  10.060   7.500
98679SOL    HW297877   5.388  10.035   7.436
98680SOL     OW97878  12.051  13.226  10.533
98680SOL    HW197879  12.087  13.184  10.611
98680SOL    HW297880  12.074  13.168  10.461
98681SOL     OW97881  13.123  11.006  11.820
98681SOL    HW197882  13.073  10.996  11.738
98681SOL    HW297883  13.190  10.937  11.815
98682SOL     OW97884   9.029   0.422   9.029
98682SOL    HW197885   8.968   0.479   8.982
98682SOL    HW297886   9.106   0.418   8.972
98683SOL     OW97887   6.229   0.522   8.179
98683SOL    HW197888   6.168   0.482   8.117
98683SOL    HW297889   6.305   0.546   8.125
98684SOL     OW97890  11.559  11.819  12.643
98684SOL    HW197891  11.570  11.855  12.731
98684SOL    HW297892  11.502  11.882  12.598
98685SOL     OW97893  11.689   7.795   3.377
98685SOL    HW197894  11.742   7.760   3.306
98685SOL    HW297895  11.690   7.890   3.363
98686SOL     OW97896  14.022   6.003  13.716
98686SOL    HW197897  13.989   6.068  13.778
98686SOL    HW297898  14.114   6.025  13.704
98687SOL     OW97899   7.455   2.678  13.850
98687SOL    HW197900   7.441   2.625  13.771
98687SOL    HW297901   7.410   2.761  13.832
98688SOL     OW97902   2.839   8.890   7.254
98688SOL    HW197903   2.890   8.923   7.327
98688SOL    HW297904   2.802   8.969   7.213
98689SOL     OW97905  11.729   3.425   7.134
98689SOL    HW197906  11.714   3.331   7.148
98689SOL    HW297907  11.643   3.460   7.112
98690SOL     OW97908   2.680   6.436   7.192
98690SOL    HW197909   2.673   6.460   7.284
98690SOL    HW297910   2.591   6.409   7.167
98691SOL     OW97911  10.095   3.808  10.471
98691SOL    HW197912  10.129   3.857  10.396
98691SOL    HW297913  10.099   3.716  10.444
98692SOL     OW97914   4.926   6.490   5.871
98692SOL    HW197915   4.936   6.409   5.922
98692SOL    HW297916   4.853   6.471   5.811
98693SOL     OW97917   2.806   6.408  12.511
98693SOL    HW197918   2.837   6.430  12.598
98693SOL    HW297919   2.777   6.491  12.473
98694SOL     OW97920   3.476   2.946   8.363
98694SOL    HW197921   3.430   3.011   8.416
98694SOL    HW297922   3.454   2.862   8.404
98695SOL     OW97923   6.939   4.255  14.501
98695SOL    HW197924   6.979   4.170  14.485
98695SOL    HW297925   7.008   4.308  14.541
98696SOL     OW97926  14.691   4.829   6.646
98696SOL    HW197927  14.767   4.887   6.644
98696SOL    HW297928  14.718   4.754   6.700
98697SOL     OW97929   6.539  12.939   7.751
98697SOL    HW197930   6.555  12.995   7.827
98697SOL    HW297931   6.487  12.867   7.785
98698SOL     OW97932  11.767   1.615   9.355
98698SOL    HW197933  11.722   1.690   9.318
98698SOL    HW297934  11.828   1.652   9.419
98699SOL     OW97935   2.755  14.820   2.382
98699SOL    HW197936   2.755   0.041   2.396
98699SOL    HW297937   2.712  14.808   2.297
98700SOL     OW97938   9.199   7.269   2.263
98700SOL    HW197939   9.294   7.276   2.250
98700SOL    HW297940   9.177   7.340   2.322
98701SOL     OW97941   7.283   9.303   5.565
98701SOL    HW197942   7.354   9.258   5.611
98701SOL    HW297943   7.295   9.280   5.473
98702SOL     OW97944  11.289  14.699  10.649
98702SOL    HW197945  11.342  14.620  10.654
98702SOL    HW297946  11.232  14.686  10.573
98703SOL     OW97947   4.479   3.649   0.205
98703SOL    HW197948   4.515   3.594   0.275
98703SOL    HW297949   4.417   3.593   0.159
98704SOL     OW97950   0.351  12.879   9.270
98704SOL    HW197951   0.398  12.821   9.330
98704SOL    HW297952   0.331  12.957   9.322
98705SOL     OW97953  13.899   6.217   8.126
98705SOL    HW197954  13.807   6.240   8.138
98705SOL    HW297955  13.918   6.240   8.035
98706SOL     OW97956  12.316   8.472   3.569
98706SOL    HW197957  12.396   8.465   3.622
98706SOL    HW297958  12.298   8.383   3.540
98707SOL     OW97959  13.037  12.670   7.603
98707SOL    HW197960  13.003  12.654   7.690
98707SOL    HW297961  13.091  12.749   7.612
98708SOL     OW97962   7.177   6.882   2.685
98708SOL    HW197963   7.172   6.935   2.606
98708SOL    HW297964   7.100   6.825   2.681
98709SOL     OW97965  10.742   1.028   1.063
98709SOL    HW197966  10.767   0.943   1.027
98709SOL    HW297967  10.659   1.048   1.021
98710SOL     OW97968  11.381   0.986  13.391
98710SOL    HW197969  11.432   1.042  13.333
98710SOL    HW297970  11.438   0.912  13.410
98711SOL     OW97971  13.729  14.686  10.944
98711SOL    HW197972  13.770  14.623  11.004
98711SOL    HW297973  13.643  14.703  10.982
98712SOL     OW97974   0.442   0.956   3.377
98712SOL    HW197975   0.394   0.890   3.327
98712SOL    HW297976   0.441   0.924   3.467
98713SOL     OW97977   1.947   3.779   9.509
98713SOL    HW197978   2.042   3.781   9.497
98713SOL    HW297979   1.918   3.869   9.492
98714SOL     OW97980   9.799   5.234   2.287
98714SOL    HW197981   9.776   5.160   2.343
98714SOL    HW297982   9.878   5.271   2.327
98715SOL     OW97983  13.848   8.251   4.455
98715SOL    HW197984  13.818   8.258   4.546
98715SOL    HW297985  13.827   8.336   4.417
98716SOL     OW97986   7.453   0.172   2.279
98716SOL    HW197987   7.449   0.267   2.268
98716SOL    HW297988   7.365   0.141   2.258
98717SOL     OW97989   1.287  12.255   8.574
98717SOL    HW197990   1.206  12.254   8.626
98717SOL    HW297991   1.336  12.178   8.603
98718SOL     OW97992  13.165   3.409   7.107
98718SOL    HW197993  13.143   3.489   7.154
98718SOL    HW297994  13.195   3.439   7.022
98719SOL     OW97995  11.826   0.019   2.336
98719SOL    HW197996  11.730   0.021   2.331
98719SOL    HW297997  11.855   0.026   2.246
98720SOL     OW97998   9.799   9.022  10.740
98720SOL    HW197999   9.824   9.010  10.648
98720SOL    HW298000   9.730   9.089  10.738
98721SOL     OW98001  11.788  12.190   1.049
98721SOL    HW198002  11.716  12.184   1.112
98721SOL    HW298003  11.851  12.249   1.090
98722SOL     OW98004   4.105   5.292   0.040
98722SOL    HW198005   4.138   5.244  14.839
98722SOL    HW298006   4.177   5.350   0.066
98723SOL     OW98007   8.600   9.175  11.801
98723SOL    HW198008   8.624   9.122  11.877
98723SOL    HW298009   8.604   9.115  11.727
98724SOL     OW98010   6.418   6.064  14.221
98724SOL    HW198011   6.378   5.982  14.251
98724SOL    HW298012   6.360   6.094  14.151
98725SOL     OW98013  12.849   0.592   6.203
98725SOL    HW198014  12.942   0.573   6.216
98725SOL    HW298015  12.804   0.542   6.271
98726SOL     OW98016  14.283   8.443   1.867
98726SOL    HW198017  14.320   8.416   1.783
98726SOL    HW298018  14.290   8.538   1.867
98727SOL     OW98019  10.507   7.157   6.765
98727SOL    HW198020  10.457   7.141   6.845
98727SOL    HW298021  10.462   7.106   6.698
98728SOL     OW98022  11.715   8.412   9.473
98728SOL    HW198023  11.805   8.434   9.447
98728SOL    HW298024  11.715   8.317   9.479
98729SOL     OW98025   8.399   8.363  11.358
98729SOL    HW198026   8.374   8.270  11.359
98729SOL    HW298027   8.484   8.364  11.315
98730SOL     OW98028   0.934   8.993   9.802
98730SOL    HW198029   0.870   9.064   9.795
98730SOL    HW298030   0.912   8.934   9.729
98731SOL     OW98031  13.604   3.426   8.715
98731SOL    HW198032  13.605   3.463   8.803
98731SOL    HW298033  13.516   3.390   8.705
98732SOL     OW98034  14.623  11.707  11.956
98732SOL    HW198035  14.571  11.741  12.028
98732SOL    HW298036  14.684  11.646  11.996
98733SOL     OW98037  11.024   0.629  14.281
98733SOL    HW198038  10.965   0.629  14.205
98733SOL    HW298039  11.105   0.669  14.248
98734SOL     OW98040   2.198   9.376   9.246
98734SOL    HW198041   2.175   9.414   9.331
98734SOL    HW298042   2.181   9.282   9.256
98735SOL     OW98043   8.558  14.275  13.969
98735SOL    HW198044   8.565  14.347  14.032
98735SOL    HW298045   8.601  14.201  14.013
98736SOL     OW98046  13.560   8.056   5.045
98736SOL    HW198047  13.643   8.009   5.053
98736SOL    HW298048  13.581   8.132   4.990
98737SOL     OW98049  14.170  10.418   3.608
98737SOL    HW198050  14.216  10.502   3.599
98737SOL    HW298051  14.080  10.442   3.632
98738SOL     OW98052   5.806   5.801  12.311
98738SOL    HW198053   5.890   5.829  12.274
98738SOL    HW298054   5.788   5.864  12.380
98739SOL     OW98055   5.179   2.814   5.089
98739SOL    HW198056   5.109   2.760   5.126
98739SOL    HW298057   5.251   2.753   5.073
98740SOL     OW98058   6.633   8.705   2.094
98740SOL    HW198059   6.605   8.631   2.147
98740SOL    HW298060   6.587   8.781   2.131
98741SOL     OW98061  10.901  14.189  12.708
98741SOL    HW198062  10.806  14.186  12.708
98741SOL    HW298063  10.927  14.127  12.640
98742SOL     OW98064   7.447  11.896   3.281
98742SOL    HW198065   7.452  11.801   3.265
98742SOL    HW298066   7.404  11.904   3.366
98743SOL     OW98067   5.137   5.641   8.441
98743SOL    HW198068   5.186   5.560   8.424
98743SOL    HW298069   5.132   5.646   8.537
98744SOL     OW98070  12.437   9.785  11.515
98744SOL    HW198071  12.453   9.861  11.570
98744SOL    HW298072  12.482   9.805  11.432
98745SOL     OW98073   1.796  11.663   8.220
98745SOL    HW198074   1.828  11.746   8.187
98745SOL    HW298075   1.854  11.642   8.293
98746SOL     OW98076   1.443   0.797   4.674
98746SOL    HW198077   1.527   0.804   4.630
98746SOL    HW298078   1.378   0.808   4.604
98747SOL     OW98079   9.501  10.703   1.742
98747SOL    HW198080   9.524  10.692   1.835
98747SOL    HW298081   9.553  10.779   1.714
98748SOL     OW98082   4.374   1.891   7.327
98748SOL    HW198083   4.367   1.837   7.406
98748SOL    HW298084   4.328   1.972   7.349
98749SOL     OW98085   8.796   3.692  11.679
98749SOL    HW198086   8.749   3.608  11.677
98749SOL    HW298087   8.836   3.695  11.766
98750SOL     OW98088  10.771  13.149  13.432
98750SOL    HW198089  10.786  13.096  13.353
98750SOL    HW298090  10.695  13.203  13.410
98751SOL     OW98091   3.949   0.379  11.353
98751SOL    HW198092   3.904   0.318  11.295
98751SOL    HW298093   3.966   0.456  11.298
98752SOL     OW98094   6.970   0.310   8.180
98752SOL    HW198095   6.963   0.285   8.088
98752SOL    HW298096   7.004   0.232   8.223
98753SOL     OW98097   2.452  11.144   8.704
98753SOL    HW198098   2.452  11.239   8.698
98753SOL    HW298099   2.413  11.125   8.789
98754SOL     OW98100   3.164   4.745   9.908
98754SOL    HW198101   3.095   4.687   9.877
98754SOL    HW298102   3.193   4.707   9.991
98755SOL     OW98103   8.608   5.151  12.215
98755SOL    HW198104   8.552   5.077  12.193
98755SOL    HW298105   8.649   5.126  12.297
98756SOL     OW98106   0.252   4.346  12.901
98756SOL    HW198107   0.289   4.402  12.834
98756SOL    HW298108   0.242   4.261  12.858
98757SOL     OW98109   9.363  14.617   3.218
98757SOL    HW198110   9.327  14.560   3.150
98757SOL    HW298111   9.416  14.559   3.273
98758SOL     OW98112  12.127   2.979   5.332
98758SOL    HW198113  12.162   2.902   5.287
98758SOL    HW298114  12.081   3.027   5.265
98759SOL     OW98115   6.679   7.473   2.250
98759SOL    HW198116   6.739   7.545   2.228
98759SOL    HW298117   6.737   7.401   2.276
98760SOL     OW98118   2.327   1.640  14.410
98760SOL    HW198119   2.319   1.569  14.473
98760SOL    HW298120   2.339   1.595  14.326
98761SOL     OW98121  13.744  11.964   1.464
98761SOL    HW198122  13.713  12.003   1.382
98761SOL    HW298123  13.721  11.871   1.457
98762SOL     OW98124   0.749   1.773   2.634
98762SOL    HW198125   0.738   1.746   2.543
98762SOL    HW298126   0.659   1.785   2.666
98763SOL     OW98127  10.467   0.590  11.118
98763SOL    HW198128  10.472   0.524  11.049
98763SOL    HW298129  10.396   0.559  11.175
98764SOL     OW98130   5.471   1.206   8.708
98764SOL    HW198131   5.478   1.277   8.772
98764SOL    HW298132   5.550   1.215   8.654
98765SOL     OW98133   4.500   7.193   0.303
98765SOL    HW198134   4.565   7.138   0.348
98765SOL    HW298135   4.505   7.278   0.347
98766SOL     OW98136  13.247   2.937   7.714
98766SOL    HW198137  13.200   3.003   7.766
98766SOL    HW298138  13.339   2.962   7.722
98767SOL     OW98139   6.583   3.765   3.554
98767SOL    HW198140   6.592   3.756   3.649
98767SOL    HW298141   6.564   3.858   3.541
98768SOL     OW98142   5.922   4.079   0.936
98768SOL    HW198143   5.830   4.101   0.948
98768SOL    HW298144   5.961   4.092   1.023
98769SOL     OW98145   8.702   5.078  10.725
98769SOL    HW198146   8.612   5.073  10.693
98769SOL    HW298147   8.702   5.154  10.783
98770SOL     OW98148   0.231  14.213   6.436
98770SOL    HW198149   0.198  14.201   6.525
98770SOL    HW298150   0.278  14.132   6.416
98771SOL     OW98151   9.839   2.735   3.265
98771SOL    HW198152   9.747   2.709   3.264
98771SOL    HW298153   9.856   2.758   3.357
98772SOL     OW98154   5.635   8.268   1.323
98772SOL    HW198155   5.727   8.286   1.306
98772SOL    HW298156   5.604   8.345   1.372
98773SOL     OW98157   5.194   3.778   8.230
98773SOL    HW198158   5.143   3.859   8.234
98773SOL    HW298159   5.185   3.740   8.317
98774SOL     OW98160  12.636   5.994  14.838
98774SOL    HW198161  12.681   5.911  14.855
98774SOL    HW298162  12.707   6.057  14.827
98775SOL     OW98163   0.171   1.701   6.530
98775SOL    HW198164   0.241   1.652   6.572
98775SOL    HW298165   0.216   1.767   6.476
98776SOL     OW98166   3.558   4.927   0.856
98776SOL    HW198167   3.484   4.915   0.797
98776SOL    HW298168   3.631   4.884   0.812
98777SOL     OW98169   9.145   6.615   9.689
98777SOL    HW198170   9.154   6.556   9.763
98777SOL    HW298171   9.073   6.674   9.714
98778SOL     OW98172   8.127   7.517  12.414
98778SOL    HW198173   8.150   7.574  12.340
98778SOL    HW298174   8.077   7.446  12.374
98779SOL     OW98175   9.879   8.441   2.964
98779SOL    HW198176   9.940   8.383   3.010
98779SOL    HW298177   9.828   8.482   3.034
98780SOL     OW98178   4.452   8.327  12.187
98780SOL    HW198179   4.513   8.256  12.209
98780SOL    HW298180   4.484   8.402  12.236
98781SOL     OW98181  12.177   8.811  10.494
98781SOL    HW198182  12.146   8.898  10.519
98781SOL    HW298183  12.106   8.775  10.441
98782SOL     OW98184   1.094   4.040   4.453
98782SOL    HW198185   1.127   3.950   4.446
98782SOL    HW298186   1.021   4.034   4.515
98783SOL     OW98187  13.989   7.399   2.590
98783SOL    HW198188  13.897   7.424   2.579
98783SOL    HW298189  14.013   7.435   2.676
98784SOL     OW98190   5.124  13.024   6.388
98784SOL    HW198191   5.081  12.962   6.329
98784SOL    HW298192   5.214  12.993   6.396
98785SOL     OW98193  13.022   2.336   9.810
98785SOL    HW198194  13.038   2.423   9.775
98785SOL    HW298195  13.109   2.295   9.814
98786SOL     OW98196  12.310  10.195  11.474
98786SOL    HW198197  12.356  10.275  11.500
98786SOL    HW298198  12.288  10.152  11.557
98787SOL     OW98199  11.469   2.726   7.299
98787SOL    HW198200  11.483   2.740   7.205
98787SOL    HW298201  11.401   2.658   7.302
98788SOL     OW98202  11.803   3.636   4.888
98788SOL    HW198203  11.841   3.716   4.852
98788SOL    HW298204  11.847   3.565   4.841
98789SOL     OW98205   3.806  13.686   4.852
98789SOL    HW198206   3.780  13.637   4.774
98789SOL    HW298207   3.866  13.627   4.899
98790SOL     OW98208   2.865   5.483   7.634
98790SOL    HW198209   2.873   5.577   7.650
98790SOL    HW298210   2.956   5.453   7.623
98791SOL     OW98211   4.671   7.956   6.610
98791SOL    HW198212   4.744   7.905   6.645
98791SOL    HW298213   4.594   7.927   6.660
98792SOL     OW98214   9.187   7.769   8.288
98792SOL    HW198215   9.185   7.783   8.193
98792SOL    HW298216   9.113   7.820   8.321
98793SOL     OW98217   4.745   2.391  14.342
98793SOL    HW198218   4.821   2.391  14.283
98793SOL    HW298219   4.765   2.323  14.406
98794SOL     OW98220   9.742   1.943   7.218
98794SOL    HW198221   9.827   1.919   7.181
98794SOL    HW298222   9.683   1.874   7.189
98795SOL     OW98223   6.734   3.890  11.778
98795SOL    HW198224   6.797   3.947  11.734
98795SOL    HW298225   6.650   3.936  11.768
98796SOL     OW98226   2.177  10.569  14.631
98796SOL    HW198227   2.179  10.479  14.663
98796SOL    HW298228   2.269  10.595  14.627
98797SOL     OW98229   4.093  11.654   6.186
98797SOL    HW198230   4.176  11.698   6.205
98797SOL    HW298231   4.098  11.632   6.093
98798SOL     OW98232  10.840   3.126   0.125
98798SOL    HW198233  10.781   3.091   0.192
98798SOL    HW298234  10.842   3.220   0.142
98799SOL     OW98235   9.084  12.236   5.790
98799SOL    HW198236   9.060  12.314   5.741
98799SOL    HW298237   9.095  12.168   5.724
98800SOL     OW98238   8.506   2.779   5.153
98800SOL    HW198239   8.589   2.736   5.171
98800SOL    HW298240   8.528   2.849   5.092
98801SOL     OW98241   7.584  12.739  12.284
98801SOL    HW198242   7.548  12.665  12.236
98801SOL    HW298243   7.628  12.792  12.218
98802SOL     OW98244   6.317   4.655   8.416
98802SOL    HW198245   6.332   4.561   8.427
98802SOL    HW298246   6.315   4.689   8.506
98803SOL     OW98247  12.404   8.536   1.454
98803SOL    HW198248  12.325   8.562   1.407
98803SOL    HW298249  12.433   8.457   1.409
98804SOL     OW98250   4.321   8.625  14.786
98804SOL    HW198251   4.300   8.532  14.784
98804SOL    HW298252   4.324   8.651  14.694
98805SOL     OW98253  12.903   2.219   7.863
98805SOL    HW198254  12.946   2.276   7.800
98805SOL    HW298255  12.965   2.146   7.874
98806SOL     OW98256  10.824   4.109   2.330
98806SOL    HW198257  10.827   4.169   2.404
98806SOL    HW298258  10.742   4.131   2.285
98807SOL     OW98259   1.892   2.981   3.120
98807SOL    HW198260   1.919   2.988   3.028
98807SOL    HW298261   1.843   3.061   3.136
98808SOL     OW98262  14.439   9.061   2.689
98808SOL    HW198263  14.515   9.022   2.645
98808SOL    HW298264  14.476   9.111   2.761
98809SOL     OW98265   4.545   7.966   4.994
98809SOL    HW198266   4.497   7.892   5.032
98809SOL    HW298267   4.637   7.941   5.003
98810SOL     OW98268   1.144   7.749   3.347
98810SOL    HW198269   1.110   7.838   3.356
98810SOL    HW298270   1.210   7.741   3.416
98811SOL     OW98271   7.074  14.725   6.152
98811SOL    HW198272   7.124  14.757   6.077
98811SOL    HW298273   7.088  14.791   6.220
98812SOL     OW98274   4.575   4.339  13.048
98812SOL    HW198275   4.618   4.262  13.085
98812SOL    HW298276   4.645   4.387  13.005
98813SOL     OW98277   1.450   1.371   3.775
98813SOL    HW198278   1.490   1.439   3.721
98813SOL    HW298279   1.374   1.415   3.815
98814SOL     OW98280   7.969   1.972   3.803
98814SOL    HW198281   8.051   1.962   3.754
98814SOL    HW298282   7.901   1.977   3.736
98815SOL     OW98283   7.550  12.405   0.791
98815SOL    HW198284   7.493  12.372   0.721
98815SOL    HW298285   7.554  12.332   0.854
98816SOL     OW98286   4.391   8.569   9.378
98816SOL    HW198287   4.393   8.662   9.403
98816SOL    HW298288   4.391   8.523   9.462
98817SOL     OW98289   9.947   5.548   0.479
98817SOL    HW198290   9.925   5.468   0.430
98817SOL    HW298291   9.962   5.517   0.568
98818SOL     OW98292   4.788   8.334  14.247
98818SOL    HW198293   4.748   8.311  14.164
98818SOL    HW298294   4.732   8.294  14.313
98819SOL     OW98295   9.989   8.049  11.100
98819SOL    HW198296   9.969   8.066  11.008
98819SOL    HW298297  10.073   8.004  11.098
98820SOL     OW98298  11.419  10.540  14.047
98820SOL    HW198299  11.393  10.632  14.037
98820SOL    HW298300  11.347  10.499  14.094
98821SOL     OW98301   0.012  12.113   2.356
98821SOL    HW198302   0.025  12.036   2.301
98821SOL    HW298303  14.802  12.100   2.398
98822SOL     OW98304   7.246   9.757   1.344
98822SOL    HW198305   7.247   9.673   1.299
98822SOL    HW298306   7.153   9.779   1.352
98823SOL     OW98307   8.884   4.581   9.737
98823SOL    HW198308   8.856   4.666   9.704
98823SOL    HW298309   8.962   4.560   9.686
98824SOL     OW98310  13.520   9.911  10.791
98824SOL    HW198311  13.451   9.959  10.745
98824SOL    HW298312  13.479   9.828  10.815
98825SOL     OW98313  10.985  11.919   1.751
98825SOL    HW198314  11.004  11.888   1.662
98825SOL    HW298315  11.066  11.961   1.780
98826SOL     OW98316   4.278   5.977   2.246
98826SOL    HW198317   4.196   5.937   2.219
98826SOL    HW298318   4.345   5.913   2.221
98827SOL     OW98319   9.268   6.514   7.861
98827SOL    HW198320   9.328   6.516   7.936
98827SOL    HW298321   9.314   6.561   7.792
98828SOL     OW98322  14.387   9.735  11.328
98828SOL    HW198323  14.370   9.751  11.235
98828SOL    HW298324  14.467   9.784  11.347
98829SOL     OW98325   7.338   5.607   1.461
98829SOL    HW198326   7.256   5.561   1.439
98829SOL    HW298327   7.407   5.553   1.423
98830SOL     OW98328   2.876   1.124   2.800
98830SOL    HW198329   2.784   1.141   2.820
98830SOL    HW298330   2.917   1.210   2.806
98831SOL     OW98331   5.997   0.938  14.556
98831SOL    HW198332   5.957   0.976  14.478
98831SOL    HW298333   5.998   1.010  14.620
98832SOL     OW98334   2.197   8.247   8.299
98832SOL    HW198335   2.274   8.281   8.343
98832SOL    HW298336   2.136   8.227   8.370
98833SOL     OW98337   3.821   1.507   1.969
98833SOL    HW198338   3.834   1.585   2.023
98833SOL    HW298339   3.822   1.540   1.879
98834SOL     OW98340  13.540  12.551   7.987
98834SOL    HW198341  13.628  12.548   7.951
98834SOL    HW298342  13.538  12.482   8.053
98835SOL     OW98343   5.606   8.458  13.069
98835SOL    HW198344   5.555   8.378  13.081
98835SOL    HW298345   5.548   8.528  13.100
98836SOL     OW98346   8.671   4.853   7.000
98836SOL    HW198347   8.729   4.927   6.983
98836SOL    HW298348   8.687   4.793   6.927
98837SOL     OW98349  14.583   4.419  12.760
98837SOL    HW198350  14.645   4.492  12.762
98837SOL    HW298351  14.610   4.367  12.685
98838SOL     OW98352   3.587  10.221   9.912
98838SOL    HW198353   3.610  10.253  10.000
98838SOL    HW298354   3.618  10.290   9.853
98839SOL     OW98355   4.700   9.773  13.987
98839SOL    HW198356   4.620   9.826  13.984
98839SOL    HW298357   4.670   9.686  14.012
98840SOL     OW98358  13.519  11.403   3.212
98840SOL    HW198359  13.504  11.431   3.122
98840SOL    HW298360  13.613  11.415   3.225
98841SOL     OW98361   0.122   6.347   2.189
98841SOL    HW198362   0.083   6.267   2.225
98841SOL    HW298363   0.051   6.389   2.141
98842SOL     OW98364   9.006   0.539   1.239
98842SOL    HW198365   8.914   0.547   1.265
98842SOL    HW298366   9.019   0.609   1.175
98843SOL     OW98367   8.636  12.820   0.483
98843SOL    HW198368   8.593  12.896   0.446
98843SOL    HW298369   8.603  12.814   0.573
98844SOL     OW98370  14.562   6.631   3.281
98844SOL    HW198371  14.648   6.645   3.241
98844SOL    HW298372  14.574   6.656   3.373
98845SOL     OW98373   0.802   0.441   7.367
98845SOL    HW198374   0.888   0.483   7.373
98845SOL    HW298375   0.772   0.459   7.278
98846SOL     OW98376  14.629   6.482   3.664
98846SOL    HW198377  14.575   6.449   3.592
98846SOL    HW298378  14.573   6.475   3.741
98847SOL     OW98379   6.256  12.192   4.632
98847SOL    HW198380   6.201  12.198   4.555
98847SOL    HW298381   6.346  12.198   4.598
98848SOL     OW98382   0.357   3.337  10.371
98848SOL    HW198383   0.395   3.335  10.284
98848SOL    HW298384   0.384   3.254  10.411
98849SOL     OW98385   7.197   1.152   7.695
98849SOL    HW198386   7.151   1.077   7.733
98849SOL    HW298387   7.128   1.202   7.652
98850SOL     OW98388   1.310   7.394  11.995
98850SOL    HW198389   1.251   7.324  11.968
98850SOL    HW298390   1.262   7.475  11.975
98851SOL     OW98391  13.928   2.455   0.598
98851SOL    HW198392  13.889   2.482   0.515
98851SOL    HW298393  14.021   2.444   0.578
98852SOL     OW98394   8.416  10.303  12.773
98852SOL    HW198395   8.434  10.378  12.716
98852SOL    HW298396   8.415  10.341  12.862
98853SOL     OW98397   5.424   5.355  11.603
98853SOL    HW198398   5.366   5.340  11.528
98853SOL    HW298399   5.366   5.350  11.679
98854SOL     OW98400   0.337   1.678   2.428
98854SOL    HW198401   0.320   1.709   2.339
98854SOL    HW298402   0.251   1.656   2.463
98855SOL     OW98403  12.887  13.360   9.088
98855SOL    HW198404  12.922  13.363   9.177
98855SOL    HW298405  12.963  13.374   9.032
98856SOL     OW98406  14.699   3.238  13.765
98856SOL    HW198407  14.705   3.223  13.671
98856SOL    HW298408  14.613   3.278  13.777
98857SOL     OW98409   4.580   5.014   1.642
98857SOL    HW198410   4.607   5.055   1.560
98857SOL    HW298411   4.654   4.959   1.666
98858SOL     OW98412   6.414   2.003  10.089
98858SOL    HW198413   6.323   2.018  10.114
98858SOL    HW298414   6.417   1.910  10.065
98859SOL     OW98415  11.064   3.221   2.193
98859SOL    HW198416  11.070   3.286   2.263
98859SOL    HW298417  11.115   3.258   2.121
98860SOL     OW98418   1.161   6.160   9.143
98860SOL    HW198419   1.159   6.255   9.137
98860SOL    HW298420   1.088   6.138   9.202
98861SOL     OW98421  10.745   2.137   6.703
98861SOL    HW198422  10.656   2.170   6.686
98861SOL    HW298423  10.745   2.116   6.796
98862SOL     OW98424  12.624   7.678   3.559
98862SOL    HW198425  12.718   7.692   3.552
98862SOL    HW298426  12.609   7.593   3.517
98863SOL     OW98427  14.192   4.059   0.956
98863SOL    HW198428  14.112   4.060   1.009
98863SOL    HW298429  14.163   4.031   0.869
98864SOL     OW98430   4.539  13.777   5.747
98864SOL    HW198431   4.510  13.860   5.784
98864SOL    HW298432   4.593  13.801   5.673
98865SOL     OW98433  11.277  13.076   2.821
98865SOL    HW198434  11.298  12.984   2.808
98865SOL    HW298435  11.204  13.093   2.763
98866SOL     OW98436   9.689   4.722   9.066
98866SOL    HW198437   9.608   4.771   9.080
98866SOL    HW298438   9.662   4.630   9.062
98867SOL     OW98439  14.049  13.550   2.268
98867SOL    HW198440  13.954  13.547   2.283
98867SOL    HW298441  14.059  13.612   2.195
98868SOL     OW98442   6.667   7.850   5.871
98868SOL    HW198443   6.597   7.830   5.808
98868SOL    HW298444   6.625   7.908   5.934
98869SOL     OW98445   5.947   4.045   9.603
98869SOL    HW198446   5.966   4.138   9.589
98869SOL    HW298447   6.026   4.010   9.642
98870SOL     OW98448   2.954  10.200   7.532
98870SOL    HW198449   2.919  10.113   7.554
98870SOL    HW298450   2.948  10.205   7.437
98871SOL     OW98451   6.250   4.032  12.597
98871SOL    HW198452   6.162   4.052  12.564
98871SOL    HW298453   6.235   3.974  12.672
98872SOL     OW98454   4.332   5.862   8.593
98872SOL    HW198455   4.389   5.814   8.653
98872SOL    HW298456   4.362   5.836   8.506
98873SOL     OW98457   6.983   6.364   1.181
98873SOL    HW198458   7.073   6.393   1.168
98873SOL    HW298459   6.985   6.270   1.164
98874SOL     OW98460   0.672   3.467   9.058
98874SOL    HW198461   0.755   3.490   9.099
98874SOL    HW298462   0.682   3.375   9.033
98875SOL     OW98463   2.881   8.387  12.578
98875SOL    HW198464   2.884   8.383  12.674
98875SOL    HW298465   2.852   8.300  12.552
98876SOL     OW98466   6.379  14.099   4.815
98876SOL    HW198467   6.394  14.010   4.783
98876SOL    HW298468   6.466  14.139   4.817
98877SOL     OW98469  10.728   8.124   9.763
98877SOL    HW198470  10.634   8.128   9.743
98877SOL    HW298471  10.733   8.072   9.843
98878SOL     OW98472   3.050  13.076   2.246
98878SOL    HW198473   3.017  13.085   2.335
98878SOL    HW298474   2.973  13.052   2.194
98879SOL     OW98475   0.363  14.142   2.683
98879SOL    HW198476   0.448  14.168   2.647
98879SOL    HW298477   0.383  14.064   2.735
98880SOL     OW98478  10.759   0.837   7.564
98880SOL    HW198479  10.686   0.818   7.622
98880SOL    HW298480  10.718   0.873   7.485
98881SOL     OW98481   9.024   0.942  12.987
98881SOL    HW198482   9.012   1.017  12.930
98881SOL    HW298483   8.965   0.958  13.061
98882SOL     OW98484  14.031  12.405   8.585
98882SOL    HW198485  14.080  12.425   8.506
98882SOL    HW298486  13.955  12.356   8.554
98883SOL     OW98487   5.470  13.647   0.182
98883SOL    HW198488   5.412  13.658   0.107
98883SOL    HW298489   5.520  13.729   0.185
98884SOL     OW98490   3.903   4.660  11.239
98884SOL    HW198491   3.874   4.715  11.312
98884SOL    HW298492   3.909   4.721  11.165
98885SOL     OW98493   6.845  14.017   4.487
98885SOL    HW198494   6.828  14.107   4.457
98885SOL    HW298495   6.844  14.024   4.583
98886SOL     OW98496  14.085  12.852   6.692
98886SOL    HW198497  14.033  12.800   6.631
98886SOL    HW298498  14.169  12.864   6.648
98887SOL     OW98499   9.217   2.555   5.242
98887SOL    HW198500   9.285   2.585   5.182
98887SOL    HW298501   9.158   2.503   5.187
98888SOL     OW98502   6.612   7.866   1.820
98888SOL    HW198503   6.629   7.784   1.867
98888SOL    HW298504   6.633   7.935   1.884
98889SOL     OW98505   5.927   7.628   7.412
98889SOL    HW198506   6.001   7.583   7.370
98889SOL    HW298507   5.921   7.711   7.366
98890SOL     OW98508   4.214  10.236   3.175
98890SOL    HW198509   4.145  10.200   3.120
98890SOL    HW298510   4.295  10.199   3.140
98891SOL     OW98511  10.897  14.320   0.229
98891SOL    HW198512  10.944  14.262   0.169
98891SOL    HW298513  10.815  14.339   0.184
98892SOL     OW98514   3.825   9.871   9.381
98892SOL    HW198515   3.756   9.817   9.342
98892SOL    HW298516   3.817   9.956   9.337
98893SOL     OW98517   0.504  11.539   4.887
98893SOL    HW198518   0.548  11.503   4.963
98893SOL    HW298519   0.451  11.611   4.922
98894SOL     OW98520   9.145   4.187  13.140
98894SOL    HW198521   9.171   4.129  13.212
98894SOL    HW298522   9.051   4.202  13.154
98895SOL     OW98523   9.650   8.405   2.117
98895SOL    HW198524   9.662   8.494   2.082
98895SOL    HW298525   9.733   8.385   2.160
98896SOL     OW98526  11.148   5.047   8.706
98896SOL    HW198527  11.180   5.060   8.617
98896SOL    HW298528  11.207   4.983   8.744
98897SOL     OW98529   1.415  10.220   2.313
98897SOL    HW198530   1.495  10.241   2.360
98897SOL    HW298531   1.435  10.241   2.221
98898SOL     OW98532   8.040   3.004  11.736
98898SOL    HW198533   7.948   3.001  11.761
98898SOL    HW298534   8.038   3.001  11.640
98899SOL     OW98535  12.788  10.306   3.925
98899SOL    HW198536  12.823  10.307   3.836
98899SOL    HW298537  12.720  10.239   3.924
98900SOL     OW98538   0.693   6.401  11.432
98900SOL    HW198539   0.682   6.447  11.516
98900SOL    HW298540   0.783   6.369  11.433
98901SOL     OW98541   6.679   3.928  10.241
98901SOL    HW198542   6.647   3.875  10.314
98901SOL    HW298543   6.601   3.942  10.187
98902SOL     OW98544   7.510   1.369   9.540
98902SOL    HW198545   7.433   1.314   9.530
98902SOL    HW298546   7.538   1.356   9.631
98903SOL     OW98547   9.099   2.602  14.440
98903SOL    HW198548   9.060   2.689  14.427
98903SOL    HW298549   9.167   2.596  14.372
98904SOL     OW98550  10.002   4.944   5.537
98904SOL    HW198551  10.012   4.895   5.455
98904SOL    HW298552   9.930   5.004   5.520
98905SOL     OW98553  12.705   9.295   9.100
98905SOL    HW198554  12.687   9.259   9.187
98905SOL    HW298555  12.795   9.268   9.081
98906SOL     OW98556   0.950   1.618   7.488
98906SOL    HW198557   0.936   1.561   7.563
98906SOL    HW298558   1.040   1.649   7.497
98907SOL     OW98559  12.063   4.074   1.942
98907SOL    HW198560  12.015   4.047   2.021
98907SOL    HW298561  12.028   4.160   1.921
98908SOL     OW98562   3.923   5.814   5.461
98908SOL    HW198563   3.995   5.870   5.431
98908SOL    HW298564   3.962   5.727   5.469
98909SOL     OW98565   5.617   6.603   7.864
98909SOL    HW198566   5.681   6.675   7.866
98909SOL    HW298567   5.657   6.537   7.807
98910SOL     OW98568   4.211  13.223  12.623
98910SOL    HW198569   4.273  13.294  12.603
98910SOL    HW298570   4.221  13.161  12.551
98911SOL     OW98571  12.551  14.654   9.301
98911SOL    HW198572  12.620  14.654   9.234
98911SOL    HW298573  12.484  14.596   9.266
98912SOL     OW98574   0.858   0.248   0.728
98912SOL    HW198575   0.805   0.279   0.654
98912SOL    HW298576   0.943   0.289   0.715
98913SOL     OW98577   3.873   7.556   9.575
98913SOL    HW198578   3.957   7.524   9.608
98913SOL    HW298579   3.815   7.552   9.651
98914SOL     OW98580   1.029   7.379   8.705
98914SOL    HW198581   1.042   7.379   8.610
98914SOL    HW298582   1.109   7.342   8.741
98915SOL     OW98583   4.255  13.892   6.909
98915SOL    HW198584   4.243  13.987   6.921
98915SOL    HW298585   4.167  13.856   6.918
98916SOL     OW98586   0.064   0.112  11.419
98916SOL    HW198587   0.065   0.021  11.448
98916SOL    HW298588   0.116   0.159  11.484
98917SOL     OW98589   0.606  10.571  13.534
98917SOL    HW198590   0.655  10.633  13.481
98917SOL    HW298591   0.534  10.543  13.478
98918SOL     OW98592   3.054  13.338   5.052
98918SOL    HW198593   3.113  13.410   5.073
98918SOL    HW298594   2.968  13.379   5.041
98919SOL     OW98595  13.328  13.293  13.118
98919SOL    HW198596  13.365  13.220  13.167
98919SOL    HW298597  13.332  13.367  13.179
98920SOL     OW98598   2.300   2.636   4.171
98920SOL    HW198599   2.323   2.706   4.232
98920SOL    HW298600   2.214   2.606   4.201
98921SOL     OW98601   8.391   4.060   7.504
98921SOL    HW198602   8.445   3.999   7.455
98921SOL    HW298603   8.362   4.124   7.440
98922SOL     OW98604  12.108   2.588  12.265
98922SOL    HW198605  12.026   2.637  12.263
98922SOL    HW298606  12.153   2.620  12.343
98923SOL     OW98607  12.090   4.765   8.062
98923SOL    HW198608  12.179   4.732   8.072
98923SOL    HW298609  12.044   4.736   8.141
98924SOL     OW98610   0.988   4.528   7.480
98924SOL    HW198611   0.932   4.590   7.526
98924SOL    HW298612   1.032   4.478   7.549
98925SOL     OW98613   6.001   1.948  10.747
98925SOL    HW198614   6.055   2.004  10.692
98925SOL    HW298615   5.967   1.881  10.687
98926SOL     OW98616   2.983   7.172   0.654
98926SOL    HW198617   2.895   7.148   0.683
98926SOL    HW298618   2.974   7.185   0.559
98927SOL     OW98619   7.217   5.972   3.444
98927SOL    HW198620   7.158   5.967   3.519
98927SOL    HW298621   7.192   6.052   3.398
98928SOL     OW98622  10.383  12.063   2.075
98928SOL    HW198623  10.437  11.993   2.037
98928SOL    HW298624  10.328  12.018   2.139
98929SOL     OW98625  10.982  12.808   7.408
98929SOL    HW198626  10.900  12.821   7.359
98929SOL    HW298627  11.035  12.753   7.351
98930SOL     OW98628   6.117   7.228   8.099
98930SOL    HW198629   6.065   7.213   8.178
98930SOL    HW298630   6.183   7.291   8.126
98931SOL     OW98631   7.312  13.887   6.865
98931SOL    HW198632   7.398  13.885   6.824
98931SOL    HW298633   7.253  13.847   6.801
98932SOL     OW98634   3.664   7.470   4.273
98932SOL    HW198635   3.741   7.527   4.270
98932SOL    HW298636   3.677   7.417   4.352
98933SOL     OW98637  13.525   4.398   9.069
98933SOL    HW198638  13.607   4.410   9.022
98933SOL    HW298639  13.469   4.470   9.038
98934SOL     OW98640  10.018   8.720   8.574
98934SOL    HW198641  10.015   8.810   8.607
98934SOL    HW298642   9.948   8.717   8.508
98935SOL     OW98643   7.887   9.545   8.817
98935SOL    HW198644   7.913   9.457   8.789
98935SOL    HW298645   7.804   9.532   8.863
98936SOL     OW98646  14.206   5.425   5.736
98936SOL    HW198647  14.289   5.435   5.784
98936SOL    HW298648  14.228   5.370   5.661
98937SOL     OW98649  13.700  14.022   2.021
98937SOL    HW198650  13.702  14.029   2.116
98937SOL    HW298651  13.610  14.044   1.997
98938SOL     OW98652   6.244   7.304   7.475
98938SOL    HW198653   6.213   7.219   7.506
98938SOL    HW298654   6.189   7.368   7.520
98939SOL     OW98655  10.569  12.946  12.009
98939SOL    HW198656  10.584  12.925  11.917
98939SOL    HW298657  10.477  12.971  12.013
98940SOL     OW98658  10.054   7.755  11.775
98940SOL    HW198659   9.980   7.697  11.757
98940SOL    HW298660  10.109   7.748  11.697
98941SOL     OW98661  14.297   5.540   0.917
98941SOL    HW198662  14.214   5.509   0.954
98941SOL    HW298663  14.350   5.562   0.994
98942SOL     OW98664   2.405   8.001   0.361
98942SOL    HW198665   2.388   8.056   0.437
98942SOL    HW298666   2.493   8.026   0.332
98943SOL     OW98667   8.574   8.004  13.766
98943SOL    HW198668   8.528   8.082  13.795
98943SOL    HW298669   8.531   7.932  13.811
98944SOL     OW98670   5.504  12.671   2.379
98944SOL    HW198671   5.431  12.627   2.422
98944SOL    HW298672   5.482  12.669   2.286
98945SOL     OW98673  12.265   9.461   2.294
98945SOL    HW198674  12.243   9.554   2.287
98945SOL    HW298675  12.191   9.422   2.339
98946SOL     OW98676   5.824   7.387   2.686
98946SOL    HW198677   5.740   7.349   2.659
98946SOL    HW298678   5.812   7.482   2.675
98947SOL     OW98679  10.884   5.265   2.754
98947SOL    HW198680  10.971   5.242   2.722
98947SOL    HW298681  10.855   5.334   2.695
98948SOL     OW98682  12.032  12.431  12.399
98948SOL    HW198683  11.966  12.470  12.341
98948SOL    HW298684  12.006  12.339  12.407
98949SOL     OW98685   7.688  12.486   4.623
98949SOL    HW198686   7.640  12.406   4.602
98949SOL    HW298687   7.638  12.556   4.582
98950SOL     OW98688   9.744  10.903   6.726
98950SOL    HW198689   9.705  10.839   6.665
98950SOL    HW298690   9.807  10.951   6.672
98951SOL     OW98691   0.166   4.604   7.075
98951SOL    HW198692   0.094   4.554   7.113
98951SOL    HW298693   0.210   4.542   7.017
98952SOL     OW98694   0.742   4.486   0.301
98952SOL    HW198695   0.802   4.559   0.287
98952SOL    HW298696   0.799   4.408   0.303
98953SOL     OW98697   3.150  10.775   7.977
98953SOL    HW198698   3.138  10.694   8.025
98953SOL    HW298699   3.069  10.788   7.929
98954SOL     OW98700   6.411  11.036  14.096
98954SOL    HW198701   6.504  11.027  14.117
98954SOL    HW298702   6.379  11.103  14.156
98955SOL     OW98703   5.571  11.006  14.437
98955SOL    HW198704   5.563  10.914  14.464
98955SOL    HW298705   5.577  11.002  14.342
98956SOL     OW98706   2.216  11.263  13.413
98956SOL    HW198707   2.300  11.268  13.368
98956SOL    HW298708   2.173  11.186  13.374
98957SOL     OW98709   5.864   5.448   1.638
98957SOL    HW198710   5.888   5.479   1.550
98957SOL    HW298711   5.942   5.462   1.691
98958SOL     OW98712   7.232  14.357   7.758
98958SOL    HW198713   7.178  14.434   7.744
98958SOL    HW298714   7.204  14.323   7.842
98959SOL     OW98715  11.571   0.642  14.668
98959SOL    HW198716  11.607   0.654  14.755
98959SOL    HW298717  11.476   0.645  14.681
98960SOL     OW98718  11.594  13.211   6.740
98960SOL    HW198719  11.522  13.158   6.706
98960SOL    HW298720  11.593  13.290   6.687
98961SOL     OW98721  10.966   6.160   1.373
98961SOL    HW198722  10.995   6.244   1.335
98961SOL    HW298723  10.898   6.130   1.314
98962SOL     OW98724   3.689  11.659   4.767
98962SOL    HW198725   3.771  11.684   4.808
98962SOL    HW298726   3.622  11.678   4.833
98963SOL     OW98727   6.177   8.250  10.402
98963SOL    HW198728   6.124   8.218  10.476
98963SOL    HW298729   6.150   8.341  10.391
98964SOL     OW98730   5.518  13.331   4.926
98964SOL    HW198731   5.499  13.310   4.834
98964SOL    HW298732   5.614  13.336   4.929
98965SOL     OW98733   1.940  13.821   9.539
98965SOL    HW198734   1.887  13.741   9.543
98965SOL    HW298735   1.891  13.885   9.589
98966SOL     OW98736  10.776  12.531   1.634
98966SOL    HW198737  10.684  12.512   1.654
98966SOL    HW298738  10.825  12.474   1.692
98967SOL     OW98739  10.482   9.331   6.034
98967SOL    HW198740  10.474   9.426   6.034
98967SOL    HW298741  10.551   9.313   5.970
98968SOL     OW98742   6.974   7.219   6.275
98968SOL    HW198743   7.000   7.270   6.351
98968SOL    HW298744   6.990   7.277   6.200
98969SOL     OW98745  11.230  13.627   3.240
98969SOL    HW198746  11.154  13.626   3.299
98969SOL    HW298747  11.232  13.717   3.207
98970SOL     OW98748  12.670   4.779  14.031
98970SOL    HW198749  12.613   4.763  14.106
98970SOL    HW298750  12.707   4.866  14.048
98971SOL     OW98751  13.081   2.938   1.576
98971SOL    HW198752  13.037   2.883   1.511
98971SOL    HW298753  13.173   2.912   1.571
98972SOL     OW98754   2.653   6.147  10.989
98972SOL    HW198755   2.705   6.208  10.936
98972SOL    HW298756   2.653   6.066  10.939
98973SOL     OW98757   6.092  14.450   3.923
98973SOL    HW198758   6.132  14.364   3.911
98973SOL    HW298759   6.130  14.482   4.004
98974SOL     OW98760   9.387  13.271   9.826
98974SOL    HW198761   9.439  13.263   9.906
98974SOL    HW298762   9.303  13.232   9.849
98975SOL     OW98763   5.557  14.786  13.518
98975SOL    HW198764   5.526  14.767  13.607
98975SOL    HW298765   5.641  14.740  13.513
98976SOL     OW98766   6.122   6.484   0.544
98976SOL    HW198767   6.038   6.516   0.512
98976SOL    HW298768   6.123   6.508   0.637
98977SOL     OW98769  14.715  10.720  13.100
98977SOL    HW198770  14.766  10.797  13.126
98977SOL    HW298771  14.704  10.729  13.005
98978SOL     OW98772  12.191   0.906   9.543
98978SOL    HW198773  12.283   0.905   9.566
98978SOL    HW298774  12.184   0.975   9.477
98979SOL     OW98775  11.965   9.581  14.352
98979SOL    HW198776  11.888   9.532  14.381
98979SOL    HW298777  11.960   9.665  14.399
98980SOL     OW98778  11.521   9.831   8.432
98980SOL    HW198779  11.580   9.808   8.504
98980SOL    HW298780  11.449   9.879   8.473
98981SOL     OW98781  11.809  11.923  13.821
98981SOL    HW198782  11.854  11.996  13.863
98981SOL    HW298783  11.736  11.902  13.880
98982SOL     OW98784   7.273   4.001  14.738
98982SOL    HW198785   7.212   4.073  14.725
98982SOL    HW298786   7.218   3.925  14.754
98983SOL     OW98787   1.286   7.503   8.291
98983SOL    HW198788   1.377   7.501   8.323
98983SOL    HW298789   1.237   7.455   8.357
98984SOL     OW98790   5.592   1.573   7.545
98984SOL    HW198791   5.521   1.607   7.491
98984SOL    HW298792   5.634   1.507   7.491
98985SOL     OW98793  12.472  12.993   3.244
98985SOL    HW198794  12.473  13.085   3.216
98985SOL    HW298795  12.462  12.944   3.162
98986SOL     OW98796   6.655   8.059   4.036
98986SOL    HW198797   6.688   8.050   3.947
98986SOL    HW298798   6.649   7.970   4.070
98987SOL     OW98799  12.203   2.676  10.701
98987SOL    HW198800  12.168   2.745  10.757
98987SOL    HW298801  12.131   2.615  10.689
98988SOL     OW98802  10.101   4.413   8.037
98988SOL    HW198803  10.179   4.409   8.093
98988SOL    HW298804  10.052   4.334   8.059
98989SOL     OW98805  12.653   6.034   5.980
98989SOL    HW198806  12.599   5.956   5.987
98989SOL    HW298807  12.697   6.025   5.895
98990SOL     OW98808   0.621  11.418   3.757
98990SOL    HW198809   0.639  11.351   3.691
98990SOL    HW298810   0.551  11.380   3.811
98991SOL     OW98811  14.482  13.780  11.331
98991SOL    HW198812  14.511  13.845  11.267
98991SOL    HW298813  14.561  13.732  11.356
98992SOL     OW98814   6.559  11.271   6.499
98992SOL    HW198815   6.630  11.322   6.537
98992SOL    HW298816   6.488  11.334   6.484
98993SOL     OW98817  10.506  12.520   4.603
98993SOL    HW198818  10.585  12.468   4.619
98993SOL    HW298819  10.434  12.458   4.613
98994SOL     OW98820   1.675  11.594   5.105
98994SOL    HW198821   1.757  11.602   5.057
98994SOL    HW298822   1.700  11.596   5.197
98995SOL     OW98823   4.207   8.953  12.982
98995SOL    HW198824   4.139   8.886  12.976
98995SOL    HW298825   4.282   8.907  13.020
98996SOL     OW98826   7.888  11.463   8.009
98996SOL    HW198827   7.865  11.552   7.982
98996SOL    HW298828   7.873  11.409   7.931
98997SOL     OW98829   6.528   9.842   7.091
98997SOL    HW198830   6.515   9.766   7.147
98997SOL    HW298831   6.555   9.806   7.007
98998SOL     OW98832  13.732   4.810  14.593
98998SOL    HW198833  13.715   4.720  14.620
98998SOL    HW298834  13.648   4.839  14.556
98999SOL     OW98835  14.367   6.416   1.127
98999SOL    HW198836  14.320   6.431   1.045
98999SOL    HW298837  14.300   6.423   1.195
99000SOL     OW98838   8.496  12.768  11.340
99000SOL    HW198839   8.499  12.863  11.338
99000SOL    HW298840   8.404  12.746  11.325
99001SOL     OW98841  10.164  14.398  11.835
99001SOL    HW198842  10.251  14.373  11.805
99001SOL    HW298843  10.176  14.424  11.927
99002SOL     OW98844   1.912  10.164   7.401
99002SOL    HW198845   1.878  10.198   7.483
99002SOL    HW298846   1.983  10.105   7.427
99003SOL     OW98847   1.442   0.433   0.906
99003SOL    HW198848   1.505   0.504   0.902
99003SOL    HW298849   1.426   0.410   0.814
99004SOL     OW98850  11.881   9.015   7.955
99004SOL    HW198851  11.906   8.971   8.036
99004SOL    HW298852  11.816   9.080   7.983
99005SOL     OW98853  14.473   3.324   1.856
99005SOL    HW198854  14.499   3.416   1.856
99005SOL    HW298855  14.528   3.284   1.787
99006SOL     OW98856   3.939  13.495   1.462
99006SOL    HW198857   3.848  13.478   1.487
99006SOL    HW298858   3.943  13.590   1.449
99007SOL     OW98859   3.125  13.806   2.911
99007SOL    HW198860   3.115  13.760   2.828
99007SOL    HW298861   3.053  13.870   2.911
99008SOL     OW98862  12.241   9.001  14.585
99008SOL    HW198863  12.304   8.930  14.601
99008SOL    HW298864  12.175   8.989  14.652
99009SOL     OW98865   1.691  14.400  14.281
99009SOL    HW198866   1.617  14.440  14.237
99009SOL    HW298867   1.654  14.330  14.333
99010SOL     OW98868  11.136   1.499   7.427
99010SOL    HW198869  11.139   1.413   7.470
99010SOL    HW298870  11.210   1.547   7.464
99011SOL     OW98871  10.222  10.963   3.809
99011SOL    HW198872  10.197  10.872   3.796
99011SOL    HW298873  10.149  11.001   3.858
99012SOL     OW98874  13.039  13.336   8.837
99012SOL    HW198875  13.091  13.260   8.810
99012SOL    HW298876  12.964  13.335   8.778
99013SOL     OW98877  11.033   6.684   6.096
99013SOL    HW198878  11.044   6.593   6.069
99013SOL    HW298879  10.938   6.699   6.092
99014SOL     OW98880   1.253   5.216  13.350
99014SOL    HW198881   1.198   5.291  13.372
99014SOL    HW298882   1.328   5.223  13.409
99015SOL     OW98883  13.239   1.071   9.345
99015SOL    HW198884  13.224   1.065   9.251
99015SOL    HW298885  13.280   0.988   9.368
99016SOL     OW98886   1.159  12.181   1.151
99016SOL    HW198887   1.140  12.259   1.098
99016SOL    HW298888   1.074  12.146   1.174
99017SOL     OW98889  14.777  14.458  10.787
99017SOL    HW198890  14.755  14.512  10.862
99017SOL    HW298891  14.771  14.368  10.819
99018SOL     OW98892   2.536   1.955  10.694
99018SOL    HW198893   2.542   2.046  10.721
99018SOL    HW298894   2.450   1.926  10.726
99019SOL     OW98895   8.390   6.333  14.594
99019SOL    HW198896   8.327   6.292  14.535
99019SOL    HW298897   8.474   6.326  14.549
99020SOL     OW98898   9.076  13.221   0.595
99020SOL    HW198899   9.122  13.154   0.645
99020SOL    HW298900   9.002  13.246   0.651
99021SOL     OW98901   1.893   3.369  12.825
99021SOL    HW198902   1.982   3.340  12.805
99021SOL    HW298903   1.845   3.356  12.743
99022SOL     OW98904  12.779  12.073   2.714
99022SOL    HW198905  12.800  12.048   2.804
99022SOL    HW298906  12.697  12.122   2.721
99023SOL     OW98907   6.736   0.722   8.994
99023SOL    HW198908   6.814   0.758   9.038
99023SOL    HW298909   6.698   0.663   9.059
99024SOL     OW98910  11.219   2.092   2.758
99024SOL    HW198911  11.149   2.060   2.702
99024SOL    HW298912  11.247   2.015   2.808
99025SOL     OW98913  10.023   4.661   2.369
99025SOL    HW198914   9.964   4.702   2.307
99025SOL    HW298915  10.095   4.723   2.379
99026SOL     OW98916   1.300   3.257   4.230
99026SOL    HW198917   1.376   3.247   4.288
99026SOL    HW298918   1.228   3.214   4.276
99027SOL     OW98919   1.106  10.161   3.695
99027SOL    HW198920   1.024  10.156   3.745
99027SOL    HW298921   1.160  10.090   3.732
99028SOL     OW98922  11.901   6.880  13.707
99028SOL    HW198923  11.904   6.956  13.765
99028SOL    HW298924  11.959   6.816  13.748
99029SOL     OW98925   6.832  14.388   1.761
99029SOL    HW198926   6.832  14.484   1.767
99029SOL    HW298927   6.837  14.358   1.852
99030SOL     OW98928   3.447   0.263   2.797
99030SOL    HW198929   3.442   0.359   2.793
99030SOL    HW298930   3.514   0.245   2.862
99031SOL     OW98931  11.114   3.744   8.956
99031SOL    HW198932  11.185   3.776   9.011
99031SOL    HW298933  11.158   3.694   8.887
99032SOL     OW98934   6.624   2.834   8.940
99032SOL    HW198935   6.537   2.794   8.943
99032SOL    HW298936   6.663   2.799   8.860
99033SOL     OW98937  12.170  13.480   1.852
99033SOL    HW198938  12.216  13.465   1.770
99033SOL    HW298939  12.104  13.411   1.856
99034SOL     OW98940  11.701   9.596   1.543
99034SOL    HW198941  11.700   9.642   1.627
99034SOL    HW298942  11.705   9.503   1.566
99035SOL     OW98943   9.268  10.923   1.257
99035SOL    HW198944   9.300  10.852   1.201
99035SOL    HW298945   9.272  11.001   1.202
99036SOL     OW98946  12.621   3.200   4.666
99036SOL    HW198947  12.621   3.107   4.644
99036SOL    HW298948  12.548   3.211   4.726
99037SOL     OW98949   9.241  14.652   2.795
99037SOL    HW198950   9.261  14.565   2.832
99037SOL    HW298951   9.263  14.644   2.702
99038SOL     OW98952   3.133  11.129   3.880
99038SOL    HW198953   3.065  11.096   3.938
99038SOL    HW298954   3.190  11.181   3.936
99039SOL     OW98955   7.152  10.272   1.218
99039SOL    HW198956   7.135  10.209   1.288
99039SOL    HW298957   7.082  10.336   1.227
99040SOL     OW98958   4.576   2.868   3.358
99040SOL    HW198959   4.511   2.822   3.412
99040SOL    HW298960   4.586   2.953   3.401
99041SOL     OW98961   7.994   6.909   5.299
99041SOL    HW198962   8.074   6.907   5.351
99041SOL    HW298963   7.926   6.936   5.362
99042SOL     OW98964   2.362  13.994   4.285
99042SOL    HW198965   2.407  14.074   4.312
99042SOL    HW298966   2.286  13.988   4.343
99043SOL     OW98967   0.446   9.289   4.077
99043SOL    HW198968   0.460   9.196   4.093
99043SOL    HW298969   0.526   9.331   4.107
99044SOL     OW98970   5.529  12.716   3.721
99044SOL    HW198971   5.591  12.666   3.774
99044SOL    HW298972   5.454  12.729   3.778
99045SOL     OW98973   3.113   4.890  14.251
99045SOL    HW198974   3.030   4.862  14.291
99045SOL    HW298975   3.086   4.946  14.178
99046SOL     OW98976  12.969  13.529   3.415
99046SOL    HW198977  13.026  13.453   3.426
99046SOL    HW298978  13.005  13.575   3.339
99047SOL     OW98979  10.978   4.097   7.812
99047SOL    HW198980  11.055   4.127   7.861
99047SOL    HW298981  10.997   4.122   7.721
99048SOL     OW98982  13.282   3.763  10.860
99048SOL    HW198983  13.358   3.761  10.919
99048SOL    HW298984  13.211   3.798  10.914
99049SOL     OW98985   5.231   1.772  14.329
99049SOL    HW198986   5.182   1.710  14.383
99049SOL    HW298987   5.296   1.719  14.285
99050SOL     OW98988   9.764   9.100   5.499
99050SOL    HW198989   9.856   9.080   5.515
99050SOL    HW298990   9.716   9.040   5.555
99051SOL     OW98991   2.417   4.421   1.547
99051SOL    HW198992   2.511   4.420   1.560
99051SOL    HW298993   2.381   4.371   1.620
99052SOL     OW98994   8.897  10.128   2.570
99052SOL    HW198995   8.840  10.158   2.500
99052SOL    HW298996   8.843  10.132   2.649
99053SOL     OW98997   0.254   5.548   5.771
99053SOL    HW198998   0.269   5.573   5.862
99053SOL    HW298999   0.313   5.604   5.721
99054SOL     OW99000   2.701  12.695   3.268
99054SOL    HW199001   2.708  12.695   3.172
99054SOL    HW299002   2.725  12.606   3.294
99055SOL     OW99003  14.746  10.690   4.862
99055SOL    HW199004  14.747  10.770   4.809
99055SOL    HW299005  14.826  10.643   4.837
99056SOL     OW99006   4.320   1.206   4.229
99056SOL    HW199007   4.319   1.130   4.287
99056SOL    HW299008   4.323   1.170   4.141
99057SOL     OW99009   6.769  14.016  12.667
99057SOL    HW199010   6.722  14.063  12.736
99057SOL    HW299011   6.861  14.022  12.693
99058SOL     OW99012   0.330   6.819  14.139
99058SOL    HW199013   0.355   6.845  14.228
99058SOL    HW299014   0.388   6.871  14.082
99059SOL     OW99015   8.567  10.707   3.258
99059SOL    HW199016   8.553  10.801   3.245
99059SOL    HW299017   8.514  10.685   3.334
99060SOL     OW99018  13.989   9.761   4.865
99060SOL    HW199019  13.919   9.821   4.892
99060SOL    HW299020  14.047   9.815   4.812
99061SOL     OW99021   4.162  13.763  14.802
99061SOL    HW199022   4.106  13.687  14.823
99061SOL    HW299023   4.102  13.837  14.802
99062SOL     OW99024  11.726   5.659  14.237
99062SOL    HW199025  11.691   5.620  14.157
99062SOL    HW299026  11.717   5.590  14.303
99063SOL     OW99027  13.837   2.694   4.615
99063SOL    HW199028  13.804   2.734   4.696
99063SOL    HW299029  13.830   2.600   4.630
99064SOL     OW99030  11.833   1.461   5.993
99064SOL    HW199031  11.779   1.420   5.926
99064SOL    HW299032  11.917   1.478   5.949
99065SOL     OW99033   3.636   4.971   7.953
99065SOL    HW199034   3.545   4.940   7.950
99065SOL    HW299035   3.628   5.065   7.970
99066SOL     OW99036   8.803   3.197   7.973
99066SOL    HW199037   8.835   3.128   7.915
99066SOL    HW299038   8.857   3.274   7.952
99067SOL     OW99039   6.748   1.024   4.581
99067SOL    HW199040   6.657   1.010   4.605
99067SOL    HW299041   6.758   0.981   4.496
99068SOL     OW99042  10.884   0.626   2.335
99068SOL    HW199043  10.886   0.560   2.265
99068SOL    HW299044  10.860   0.577   2.413
99069SOL     OW99045   2.817  11.208   3.051
99069SOL    HW199046   2.799  11.141   2.984
99069SOL    HW299047   2.761  11.281   3.027
99070SOL     OW99048  11.660   8.222   5.270
99070SOL    HW199049  11.578   8.269   5.283
99070SOL    HW299050  11.727   8.279   5.308
99071SOL     OW99051   4.887   0.822   7.861
99071SOL    HW199052   4.925   0.887   7.802
99071SOL    HW299053   4.960   0.764   7.883
99072SOL     OW99054   2.690   6.490   6.339
99072SOL    HW199055   2.731   6.495   6.252
99072SOL    HW299056   2.596   6.485   6.320
99073SOL     OW99057   1.258  13.940  14.372
99073SOL    HW199058   1.327  13.969  14.312
99073SOL    HW299059   1.305  13.907  14.448
99074SOL     OW99060  11.981   0.817   3.858
99074SOL    HW199061  11.938   0.734   3.839
99074SOL    HW299062  12.038   0.834   3.783
99075SOL     OW99063   6.662  11.432   2.430
99075SOL    HW199064   6.647  11.475   2.346
99075SOL    HW299065   6.752  11.454   2.453
99076SOL     OW99066   0.878   7.979  12.606
99076SOL    HW199067   0.785   7.960  12.594
99076SOL    HW299068   0.921   7.894  12.607
99077SOL     OW99069   9.142   2.332   5.946
99077SOL    HW199070   9.191   2.343   5.864
99077SOL    HW299071   9.130   2.421   5.979
99078SOL     OW99072  10.923   1.288   4.600
99078SOL    HW199073  10.840   1.335   4.588
99078SOL    HW299074  10.984   1.333   4.541
99079SOL     OW99075   2.576   3.243   0.334
99079SOL    HW199076   2.630   3.259   0.257
99079SOL    HW299077   2.491   3.281   0.313
99080SOL     OW99078   2.267   1.768   8.588
99080SOL    HW199079   2.274   1.741   8.679
99080SOL    HW299080   2.203   1.839   8.589
99081SOL     OW99081   5.514  13.538  13.394
99081SOL    HW199082   5.527  13.448  13.364
99081SOL    HW299083   5.469  13.582  13.321
99082SOL     OW99084  13.968  13.267  13.151
99082SOL    HW199085  13.912  13.339  13.181
99082SOL    HW299086  14.057  13.301  13.158
99083SOL     OW99087   1.058  11.149   7.637
99083SOL    HW199088   0.994  11.106   7.693
99083SOL    HW299089   1.130  11.085   7.629
99084SOL     OW99090  13.171   5.406   4.782
99084SOL    HW199091  13.080   5.424   4.757
99084SOL    HW299092  13.221   5.476   4.742
99085SOL     OW99093   6.361   0.577   1.614
99085SOL    HW199094   6.292   0.638   1.642
99085SOL    HW299095   6.391   0.536   1.695
99086SOL     OW99096   4.988  14.018   4.632
99086SOL    HW199097   5.008  14.066   4.712
99086SOL    HW299098   5.022  14.073   4.561
99087SOL     OW99099   1.531  10.065   6.235
99087SOL    HW199100   1.618  10.033   6.210
99087SOL    HW299101   1.497  10.107   6.155
99088SOL     OW99102   3.496  14.705  10.966
99088SOL    HW199103   3.488  14.631  10.906
99088SOL    HW299104   3.580  14.745  10.945
99089SOL     OW99105   0.970   1.523  14.555
99089SOL    HW199106   0.888   1.572  14.554
99089SOL    HW299107   1.038   1.591  14.556
99090SOL     OW99108  12.082   8.817   6.170
99090SOL    HW199109  12.032   8.855   6.242
99090SOL    HW299110  12.170   8.853   6.180
99091SOL     OW99111  10.476  13.971  13.296
99091SOL    HW199112  10.483  13.879  13.321
99091SOL    HW299113  10.428  13.970  13.213
99092SOL     OW99114   6.544  12.870   8.363
99092SOL    HW199115   6.573  12.800   8.306
99092SOL    HW299116   6.619  12.889   8.419
99093SOL     OW99117   4.890  12.747   6.350
99093SOL    HW199118   4.797  12.765   6.335
99093SOL    HW299119   4.908  12.786   6.435
99094SOL     OW99120   7.874  10.270   8.421
99094SOL    HW199121   7.965  10.297   8.418
99094SOL    HW299122   7.863  10.229   8.507
99095SOL     OW99123   0.024   1.555   1.429
99095SOL    HW199124   0.078   1.616   1.478
99095SOL    HW299125  14.808   1.581   1.449
99096SOL     OW99126   9.575   2.894  11.755
99096SOL    HW199127   9.658   2.940  11.743
99096SOL    HW299128   9.600   2.804  11.775
99097SOL     OW99129   7.388   9.385   4.704
99097SOL    HW199130   7.336   9.318   4.660
99097SOL    HW299131   7.390   9.357   4.796
99098SOL     OW99132   2.190   1.633  11.791
99098SOL    HW199133   2.276   1.597  11.769
99098SOL    HW299134   2.177   1.609  11.883
99099SOL     OW99135  10.275  12.419  14.470
99099SOL    HW199136  10.349  12.418  14.409
99099SOL    HW299137  10.314  12.432  14.556
99100SOL     OW99138   5.341   3.386  11.191
99100SOL    HW199139   5.321   3.419  11.278
99100SOL    HW299140   5.429   3.349  11.199
99101SOL     OW99141   8.119  13.550   7.243
99101SOL    HW199142   8.121  13.565   7.149
99101SOL    HW299143   8.060  13.475   7.254
99102SOL     OW99144   2.961   1.324  10.433
99102SOL    HW199145   2.979   1.412  10.464
99102SOL    HW299146   2.873   1.305  10.465
99103SOL     OW99147   3.119   7.670   4.072
99103SOL    HW199148   3.132   7.591   4.019
99103SOL    HW299149   3.202   7.718   4.065
99104SOL     OW99150   5.823  14.587   6.431
99104SOL    HW199151   5.855  14.543   6.352
99104SOL    HW299152   5.901  14.631   6.466
99105SOL     OW99153   4.308  13.288   9.899
99105SOL    HW199154   4.313  13.193   9.905
99105SOL    HW299155   4.267  13.305   9.814
99106SOL     OW99156   0.043   0.425  10.911
99106SOL    HW199157  14.840   0.437  10.967
99106SOL    HW299158   0.007   0.422  10.823
99107SOL     OW99159   1.201  11.878   6.307
99107SOL    HW199160   1.295  11.893   6.294
99107SOL    HW299161   1.168  11.962   6.337
99108SOL     OW99162   9.825  13.195   0.767
99108SOL    HW199163   9.754  13.212   0.705
99108SOL    HW299164   9.797  13.117   0.815
99109SOL     OW99165   2.656   3.119  10.160
99109SOL    HW199166   2.694   3.036  10.132
99109SOL    HW299167   2.727   3.182  10.150
99110SOL     OW99168   4.408   0.601  13.843
99110SOL    HW199169   4.438   0.690  13.861
99110SOL    HW299170   4.488   0.553  13.820
99111SOL     OW99171   4.058   5.182   6.044
99111SOL    HW199172   3.990   5.186   6.112
99111SOL    HW299173   4.085   5.090   6.043
99112SOL     OW99174  12.502   1.240  11.433
99112SOL    HW199175  12.477   1.304  11.367
99112SOL    HW299176  12.462   1.158  11.403
99113SOL     OW99177   0.304   7.367   2.672
99113SOL    HW199178   0.259   7.451   2.661
99113SOL    HW299179   0.386   7.378   2.624
99114SOL     OW99180   6.841   7.991   6.098
99114SOL    HW199181   6.766   7.997   6.040
99114SOL    HW299182   6.880   8.078   6.098
99115SOL     OW99183  12.018  12.566   2.557
99115SOL    HW199184  11.934  12.585   2.599
99115SOL    HW299185  12.083  12.585   2.625
99116SOL     OW99186   6.328  10.908   0.782
99116SOL    HW199187   6.294  10.997   0.790
99116SOL    HW299188   6.299  10.880   0.695
99117SOL     OW99189   5.327   3.059  12.008
99117SOL    HW199190   5.297   3.150  12.008
99117SOL    HW299191   5.248   3.007  11.997
99118SOL     OW99192  11.355   7.631   1.109
99118SOL    HW199193  11.339   7.657   1.199
99118SOL    HW299194  11.392   7.543   1.115
99119SOL     OW99195   2.210  10.915   6.820
99119SOL    HW199196   2.167  10.908   6.735
99119SOL    HW299197   2.253  11.001   6.819
99120SOL     OW99198   0.580   6.801   8.100
99120SOL    HW199199   0.675   6.813   8.106
99120SOL    HW299200   0.549   6.819   8.189
99121SOL     OW99201  11.828   4.772   3.080
99121SOL    HW199202  11.852   4.723   3.158
99121SOL    HW299203  11.843   4.864   3.104
99122SOL     OW99204   1.664   9.564   8.513
99122SOL    HW199205   1.607   9.568   8.436
99122SOL    HW299206   1.742   9.517   8.483
99123SOL     OW99207   5.213   2.172  12.776
99123SOL    HW199208   5.200   2.142  12.686
99123SOL    HW299209   5.285   2.235  12.770
99124SOL     OW99210  12.253   8.644   1.901
99124SOL    HW199211  12.258   8.713   1.835
99124SOL    HW299212  12.243   8.564   1.851
99125SOL     OW99213  11.175   7.185   7.738
99125SOL    HW199214  11.197   7.264   7.688
99125SOL    HW299215  11.142   7.217   7.821
99126SOL     OW99216   3.076   8.306  14.461
99126SOL    HW199217   3.172   8.300  14.460
99126SOL    HW299218   3.052   8.293  14.553
99127SOL     OW99219   4.742   7.601  11.734
99127SOL    HW199220   4.801   7.579  11.805
99127SOL    HW299221   4.734   7.697  11.738
99128SOL     OW99222   1.397   3.168   0.252
99128SOL    HW199223   1.449   3.246   0.271
99128SOL    HW299224   1.431   3.135   0.169
99129SOL     OW99225  14.619   7.839   7.645
99129SOL    HW199226  14.585   7.821   7.733
99129SOL    HW299227  14.544   7.876   7.598
99130SOL     OW99228   2.320   0.603  12.106
99130SOL    HW199229   2.398   0.630  12.154
99130SOL    HW299230   2.252   0.594  12.172
99131SOL     OW99231  10.697   8.686  11.493
99131SOL    HW199232  10.730   8.641  11.570
99131SOL    HW299233  10.689   8.778  11.520
99132SOL     OW99234   8.664  14.363   9.072
99132SOL    HW199235   8.646  14.289   9.130
99132SOL    HW299236   8.735  14.332   9.016
99133SOL     OW99237   4.562   4.095  11.339
99133SOL    HW199238   4.511   4.161  11.291
99133SOL    HW299239   4.541   4.111  11.431
99134SOL     OW99240  12.636   2.035  11.663
99134SOL    HW199241  12.594   1.971  11.720
99134SOL    HW299242  12.720   2.053  11.705
99135SOL     OW99243  12.716   8.930   4.402
99135SOL    HW199244  12.665   8.984   4.341
99135SOL    HW299245  12.798   8.979   4.414
99136SOL     OW99246  14.609   4.556   3.510
99136SOL    HW199247  14.528   4.507   3.508
99136SOL    HW299248  14.670   4.501   3.560
99137SOL     OW99249   4.852   5.244  14.244
99137SOL    HW199250   4.864   5.253  14.149
99137SOL    HW299251   4.829   5.332  14.274
99138SOL     OW99252   1.330  11.006  10.792
99138SOL    HW199253   1.287  11.087  10.762
99138SOL    HW299254   1.373  11.032  10.874
99139SOL     OW99255  11.285  10.453  11.612
99139SOL    HW199256  11.308  10.476  11.522
99139SOL    HW299257  11.201  10.409  11.605
99140SOL     OW99258  11.351   4.976   5.962
99140SOL    HW199259  11.264   4.987   5.923
99140SOL    HW299260  11.398   4.920   5.900
99141SOL     OW99261   2.459   8.792   6.739
99141SOL    HW199262   2.466   8.699   6.759
99141SOL    HW299263   2.507   8.802   6.657
99142SOL     OW99264  11.415   4.669  13.571
99142SOL    HW199265  11.507   4.649  13.557
99142SOL    HW299266  11.387   4.608  13.640
99143SOL     OW99267  14.520  11.608   5.799
99143SOL    HW199268  14.501  11.688   5.848
99143SOL    HW299269  14.571  11.554   5.860
99144SOL     OW99270  13.559   7.335   9.736
99144SOL    HW199271  13.636   7.387   9.760
99144SOL    HW299272  13.508   7.329   9.817
99145SOL     OW99273   8.615   0.454   8.158
99145SOL    HW199274   8.545   0.514   8.184
99145SOL    HW299275   8.691   0.511   8.145
99146SOL     OW99276   9.932   5.173  14.442
99146SOL    HW199277   9.955   5.265  14.433
99146SOL    HW299278  10.014   5.126  14.427
99147SOL     OW99279   2.724   0.184   8.761
99147SOL    HW199280   2.649   0.222   8.808
99147SOL    HW299281   2.800   0.227   8.799
99148SOL     OW99282   0.497   0.723   5.989
99148SOL    HW199283   0.414   0.729   5.941
99148SOL    HW299284   0.514   0.629   5.995
99149SOL     OW99285   9.797   4.213   3.264
99149SOL    HW199286   9.824   4.295   3.223
99149SOL    HW299287   9.791   4.151   3.192
99150SOL     OW99288  14.388   6.093   4.341
99150SOL    HW199289  14.335   6.092   4.421
99150SOL    HW299290  14.477   6.077   4.372
99151SOL     OW99291   3.332  14.678   7.766
99151SOL    HW199292   3.286  14.683   7.849
99151SOL    HW299293   3.285  14.739   7.709
99152SOL     OW99294   1.481   2.050  14.080
99152SOL    HW199295   1.572   2.077  14.087
99152SOL    HW299296   1.483   1.955  14.083
99153SOL     OW99297  14.245   6.099   0.056
99153SOL    HW199298  14.248   6.024  14.871
99153SOL    HW299299  14.175   6.079   0.117
99154SOL     OW99300   9.795   7.458   0.355
99154SOL    HW199301   9.785   7.363   0.356
99154SOL    HW299302   9.873   7.474   0.407
99155SOL     OW99303   7.471   7.347   4.490
99155SOL    HW199304   7.376   7.361   4.490
99155SOL    HW299305   7.481   7.252   4.479
99156SOL     OW99306   8.019  11.629  11.606
99156SOL    HW199307   7.937  11.580  11.606
99156SOL    HW299308   7.994  11.718  11.629
99157SOL     OW99309  11.565  13.111   0.429
99157SOL    HW199310  11.639  13.080   0.376
99157SOL    HW299311  11.558  13.204   0.406
99158SOL     OW99312  13.254   0.373  10.244
99158SOL    HW199313  13.198   0.385  10.168
99158SOL    HW299314  13.198   0.394  10.319
99159SOL     OW99315   6.181   6.517   2.825
99159SOL    HW199316   6.269   6.498   2.857
99159SOL    HW299317   6.163   6.606   2.854
99160SOL     OW99318   6.431  13.968   3.824
99160SOL    HW199319   6.476  13.972   3.909
99160SOL    HW299320   6.352  13.918   3.841
99161SOL     OW99321   7.683  12.918   8.417
99161SOL    HW199322   7.717  12.983   8.478
99161SOL    HW299323   7.656  12.969   8.340
99162SOL     OW99324   2.107   2.827   2.428
99162SOL    HW199325   2.114   2.921   2.411
99162SOL    HW299326   2.127   2.818   2.521
99163SOL     OW99327   5.606   8.095   3.059
99163SOL    HW199328   5.630   8.173   3.109
99163SOL    HW299329   5.612   8.023   3.122
99164SOL     OW99330   9.315  13.902   9.288
99164SOL    HW199331   9.290  13.976   9.233
99164SOL    HW299332   9.304  13.933   9.378
99165SOL     OW99333   8.764  12.785   8.542
99165SOL    HW199334   8.754  12.878   8.561
99165SOL    HW299335   8.780  12.744   8.627
99166SOL     OW99336  12.701   4.243   5.604
99166SOL    HW199337  12.761   4.174   5.575
99166SOL    HW299338  12.617   4.198   5.617
99167SOL     OW99339   2.530  11.736  10.150
99167SOL    HW199340   2.602  11.675  10.134
99167SOL    HW299341   2.566  11.822  10.127
99168SOL     OW99342  13.758   1.353  13.027
99168SOL    HW199343  13.788   1.348  12.936
99168SOL    HW299344  13.672   1.312  13.026
99169SOL     OW99345   9.996   9.359   6.657
99169SOL    HW199346   9.947   9.284   6.690
99169SOL    HW299347   9.934   9.432   6.660
99170SOL     OW99348   7.758   0.230   3.543
99170SOL    HW199349   7.738   0.322   3.561
99170SOL    HW299350   7.811   0.201   3.617
99171SOL     OW99351   8.811   3.052   0.638
99171SOL    HW199352   8.900   3.023   0.621
99171SOL    HW299353   8.787   3.010   0.721
99172SOL     OW99354  11.392   7.407   2.885
99172SOL    HW199355  11.325   7.459   2.840
99172SOL    HW299356  11.343   7.342   2.934
99173SOL     OW99357   8.295  12.356  13.367
99173SOL    HW199358   8.376  12.397  13.396
99173SOL    HW299359   8.274  12.400  13.284
99174SOL     OW99360  13.716   2.117   9.391
99174SOL    HW199361  13.674   2.201   9.410
99174SOL    HW299362  13.705   2.066   9.472
99175SOL     OW99363   1.323   6.075   5.269
99175SOL    HW199364   1.245   6.079   5.324
99175SOL    HW299365   1.369   6.157   5.285
99176SOL     OW99366  13.679   3.383  14.439
99176SOL    HW199367  13.741   3.312  14.453
99176SOL    HW299368  13.596   3.339  14.421
99177SOL     OW99369  13.365  12.981   6.446
99177SOL    HW199370  13.310  13.029   6.384
99177SOL    HW299371  13.311  12.972   6.525
99178SOL     OW99372   0.082   6.191   9.972
99178SOL    HW199373   0.173   6.165   9.955
99178SOL    HW299374   0.036   6.173   9.890
99179SOL     OW99375   0.561   3.957   1.357
99179SOL    HW199376   0.527   3.957   1.446
99179SOL    HW299377   0.509   4.023   1.311
99180SOL     OW99378  13.306  11.302   9.240
99180SOL    HW199379  13.292  11.273   9.330
99180SOL    HW299380  13.387  11.352   9.243
99181SOL     OW99381   5.987   6.267   9.297
99181SOL    HW199382   5.907   6.283   9.348
99181SOL    HW299383   6.056   6.310   9.347
99182SOL     OW99384   6.813   3.814   9.565
99182SOL    HW199385   6.879   3.829   9.498
99182SOL    HW299386   6.846   3.740   9.616
99183SOL     OW99387   7.791   4.522   6.400
99183SOL    HW199388   7.748   4.607   6.392
99183SOL    HW299389   7.772   4.494   6.490
99184SOL     OW99390   7.485   7.251  14.206
99184SOL    HW199391   7.426   7.182  14.237
99184SOL    HW299392   7.445   7.332  14.238
99185SOL     OW99393  12.321  11.753   7.561
99185SOL    HW199394  12.315  11.720   7.471
99185SOL    HW299395  12.407  11.793   7.566
99186SOL     OW99396   9.971   4.466   0.356
99186SOL    HW199397   9.983   4.398   0.290
99186SOL    HW299398   9.991   4.422   0.439
99187SOL     OW99399  14.159   2.992   6.523
99187SOL    HW199400  14.086   2.955   6.573
99187SOL    HW299401  14.237   2.966   6.572
99188SOL     OW99402  12.574   0.864  14.617
99188SOL    HW199403  12.492   0.837  14.657
99188SOL    HW299404  12.595   0.948  14.658
99189SOL     OW99405  11.151   5.439   8.624
99189SOL    HW199406  11.174   5.400   8.540
99189SOL    HW299407  11.062   5.408   8.641
99190SOL     OW99408  14.748  10.888   2.087
99190SOL    HW199409  14.722  10.895   2.179
99190SOL    HW299410  14.671  10.852   2.043
99191SOL     OW99411  14.804   0.932   0.878
99191SOL    HW199412  14.737   0.997   0.858
99191SOL    HW299413  14.868   0.940   0.807
99192SOL     OW99414  12.200  14.796   6.117
99192SOL    HW199415  12.268  14.730   6.108
99192SOL    HW299416  12.227  14.849   6.192
99193SOL     OW99417   2.364  13.525  11.982
99193SOL    HW199418   2.280  13.521  12.026
99193SOL    HW299419   2.358  13.460  11.912
99194SOL     OW99420   8.226   4.798  11.964
99194SOL    HW199421   8.295   4.864  11.959
99194SOL    HW299422   8.145   4.845  11.945
99195SOL     OW99423   4.129   5.970   9.553
99195SOL    HW199424   4.084   5.940   9.631
99195SOL    HW299425   4.096   6.058   9.538
99196SOL     OW99426   7.611   3.273  10.356
99196SOL    HW199427   7.523   3.256  10.321
99196SOL    HW299428   7.595   3.311  10.442
99197SOL     OW99429  12.411   4.200   7.428
99197SOL    HW199430  12.468   4.275   7.414
99197SOL    HW299431  12.433   4.140   7.357
99198SOL     OW99432  13.724   8.777  14.709
99198SOL    HW199433  13.812   8.769  14.746
99198SOL    HW299434  13.726   8.862  14.663
99199SOL     OW99435   5.431  14.152   5.591
99199SOL    HW199436   5.485  14.155   5.512
99199SOL    HW299437   5.372  14.078   5.578
99200SOL     OW99438   5.534   4.713  14.633
99200SOL    HW199439   5.531   4.619  14.647
99200SOL    HW299440   5.577   4.723  14.547
99201SOL     OW99441   1.623   6.592  10.503
99201SOL    HW199442   1.598   6.587  10.411
99201SOL    HW299443   1.677   6.671  10.509
99202SOL     OW99444   6.352   2.459   5.772
99202SOL    HW199445   6.344   2.447   5.866
99202SOL    HW299446   6.279   2.410   5.735
99203SOL     OW99447   7.401   3.914   1.729
99203SOL    HW199448   7.311   3.914   1.699
99203SOL    HW299449   7.417   3.824   1.758
99204SOL     OW99450   3.698  14.352   1.872
99204SOL    HW199451   3.615  14.345   1.919
99204SOL    HW299452   3.764  14.344   1.940
99205SOL     OW99453   4.747  12.368  10.712
99205SOL    HW199454   4.690  12.406  10.778
99205SOL    HW299455   4.749  12.274  10.732
99206SOL     OW99456   0.509   7.305  13.394
99206SOL    HW199457   0.559   7.346  13.324
99206SOL    HW299458   0.468   7.228  13.353
99207SOL     OW99459   7.270  10.732   5.861
99207SOL    HW199460   7.321  10.781   5.796
99207SOL    HW299461   7.308  10.644   5.860
99208SOL     OW99462   6.630   2.186   1.940
99208SOL    HW199463   6.615   2.182   1.846
99208SOL    HW299464   6.566   2.250   1.972
99209SOL     OW99465   4.214  12.671  12.097
99209SOL    HW199466   4.285  12.623  12.055
99209SOL    HW299467   4.214  12.756  12.054
99210SOL     OW99468  10.356   9.155   6.712
99210SOL    HW199469  10.400   9.185   6.792
99210SOL    HW299470  10.428   9.136   6.652
99211SOL     OW99471  10.880   5.291   1.054
99211SOL    HW199472  10.860   5.375   1.013
99211SOL    HW299473  10.960   5.307   1.105
99212SOL     OW99474   6.833   5.952  13.863
99212SOL    HW199475   6.786   6.032  13.839
99212SOL    HW299476   6.770   5.902  13.914
99213SOL     OW99477   7.958   2.010   8.229
99213SOL    HW199478   7.931   2.071   8.160
99213SOL    HW299479   7.876   1.974   8.262
99214SOL     OW99480   5.190  12.561   6.326
99214SOL    HW199481   5.203  12.562   6.231
99214SOL    HW299482   5.121  12.497   6.340
99215SOL     OW99483  11.039   8.067   5.325
99215SOL    HW199484  10.993   8.133   5.376
99215SOL    HW299485  10.991   7.986   5.340
99216SOL     OW99486   8.419  10.261   4.062
99216SOL    HW199487   8.359  10.193   4.094
99216SOL    HW299488   8.476  10.214   4.000
99217SOL     OW99489   8.358   2.791   0.127
99217SOL    HW199490   8.452   2.776   0.141
99217SOL    HW299491   8.348   2.886   0.132
99218SOL     OW99492   2.153  11.576  14.037
99218SOL    HW199493   2.066  11.550  14.007
99218SOL    HW299494   2.177  11.510  14.102
99219SOL     OW99495   0.540   1.814   8.028
99219SOL    HW199496   0.505   1.894   8.068
99219SOL    HW299497   0.635   1.823   8.036
99220SOL     OW99498   1.221   8.601  12.342
99220SOL    HW199499   1.136   8.631  12.311
99220SOL    HW299500   1.261   8.559  12.266
99221SOL     OW99501  13.801  13.885   6.381
99221SOL    HW199502  13.869  13.951   6.368
99221SOL    HW299503  13.719  13.932   6.367
99222SOL     OW99504   0.114   5.160   3.135
99222SOL    HW199505   0.054   5.124   3.200
99222SOL    HW299506   0.059   5.216   3.080
99223SOL     OW99507  13.006   7.231   9.240
99223SOL    HW199508  12.948   7.198   9.170
99223SOL    HW299509  12.947   7.279   9.298
99224SOL     OW99510  11.120   5.404   7.951
99224SOL    HW199511  11.126   5.361   7.866
99224SOL    HW299512  11.047   5.466   7.941
99225SOL     OW99513   2.125  12.342  12.830
99225SOL    HW199514   2.208  12.381  12.856
99225SOL    HW299515   2.079  12.325  12.912
99226SOL     OW99516   6.732  11.052  12.718
99226SOL    HW199517   6.671  10.978  12.721
99226SOL    HW299518   6.676  11.129  12.710
99227SOL     OW99519   1.439  13.766  12.523
99227SOL    HW199520   1.357  13.813  12.509
99227SOL    HW299521   1.497  13.798  12.454
99228SOL     OW99522   7.130   8.425   0.291
99228SOL    HW199523   7.166   8.388   0.211
99228SOL    HW299524   7.038   8.398   0.292
99229SOL     OW99525   7.179   9.447   2.824
99229SOL    HW199526   7.100   9.398   2.800
99229SOL    HW299527   7.175   9.452   2.920
99230SOL     OW99528  13.014   9.193  10.357
99230SOL    HW199529  13.062   9.155  10.284
99230SOL    HW299530  12.996   9.119  10.415
99231SOL     OW99531  14.294  10.371   6.052
99231SOL    HW199532  14.339  10.289   6.071
99231SOL    HW299533  14.360  10.426   6.012
99232SOL     OW99534  13.136  11.803   4.548
99232SOL    HW199535  13.185  11.854   4.613
99232SOL    HW299536  13.196  11.732   4.523
99233SOL     OW99537   1.265   2.252   1.155
99233SOL    HW199538   1.309   2.328   1.193
99233SOL    HW299539   1.318   2.177   1.183
99234SOL     OW99540   5.213   8.506  13.390
99234SOL    HW199541   5.192   8.593  13.426
99234SOL    HW299542   5.304   8.491  13.416
99235SOL     OW99543   7.043   7.757   4.876
99235SOL    HW199544   6.979   7.821   4.906
99235SOL    HW299545   7.125   7.807   4.871
99236SOL     OW99546   5.282   0.220   5.070
99236SOL    HW199547   5.300   0.313   5.080
99236SOL    HW299548   5.343   0.191   5.001
99237SOL     OW99549  13.458  13.133   8.391
99237SOL    HW199550  13.500  13.051   8.365
99237SOL    HW299551  13.430  13.117   8.481
99238SOL     OW99552   1.765   2.495   2.568
99238SOL    HW199553   1.707   2.420   2.557
99238SOL    HW299554   1.852   2.463   2.544
99239SOL     OW99555   2.819   4.997  12.653
99239SOL    HW199556   2.893   5.047  12.688
99239SOL    HW299557   2.750   5.007  12.719
99240SOL     OW99558   8.651   2.069  10.789
99240SOL    HW199559   8.722   2.077  10.726
99240SOL    HW299560   8.603   2.152  10.783
99241SOL     OW99561  11.830   9.151   9.957
99241SOL    HW199562  11.914   9.170   9.915
99241SOL    HW299563  11.841   9.182  10.047
99242SOL     OW99564  12.325   4.138   2.489
99242SOL    HW199565  12.358   4.086   2.416
99242SOL    HW299566  12.370   4.222   2.482
99243SOL     OW99567  11.564   2.751   6.761
99243SOL    HW199568  11.521   2.798   6.689
99243SOL    HW299569  11.583   2.819   6.826
99244SOL     OW99570   9.882  11.934   0.477
99244SOL    HW199571   9.938  11.942   0.400
99244SOL    HW299572   9.928  11.873   0.534
99245SOL     OW99573  11.351   1.179   7.215
99245SOL    HW199574  11.424   1.122   7.239
99245SOL    HW299575  11.300   1.128   7.152
99246SOL     OW99576   7.533   5.661   9.187
99246SOL    HW199577   7.448   5.697   9.163
99246SOL    HW299578   7.551   5.595   9.120
99247SOL     OW99579  14.846   9.860  14.362
99247SOL    HW199580   0.046   9.800  14.373
99247SOL    HW299581  14.800   9.857  14.446
99248SOL     OW99582   6.156   2.320   7.626
99248SOL    HW199583   6.140   2.358   7.712
99248SOL    HW299584   6.070   2.324   7.582
99249SOL     OW99585   4.961  13.628   9.037
99249SOL    HW199586   4.876  13.659   9.006
99249SOL    HW299587   4.955  13.532   9.033
99250SOL     OW99588  14.082  10.134  14.778
99250SOL    HW199589  14.079  10.229  14.786
99250SOL    HW299590  13.993  10.106  14.798
99251SOL     OW99591   9.079   6.915   1.408
99251SOL    HW199592   9.031   6.840   1.443
99251SOL    HW299593   9.075   6.905   1.313
99252SOL     OW99594   3.450   5.968   0.573
99252SOL    HW199595   3.436   5.998   0.483
99252SOL    HW299596   3.379   5.906   0.590
99253SOL     OW99597   2.137   3.612   5.875
99253SOL    HW199598   2.069   3.679   5.883
99253SOL    HW299599   2.108   3.542   5.933
99254SOL     OW99600  14.127   9.182   7.650
99254SOL    HW199601  14.149   9.256   7.705
99254SOL    HW299602  14.039   9.156   7.679
99255SOL     OW99603  12.890  13.253   8.613
99255SOL    HW199604  12.868  13.165   8.582
99255SOL    HW299605  12.814  13.306   8.588
99256SOL     OW99606   0.679   9.457   2.489
99256SOL    HW199607   0.693   9.494   2.402
99256SOL    HW299608   0.585   9.467   2.504
99257SOL     OW99609   4.374  11.667  12.260
99257SOL    HW199610   4.360  11.720  12.181
99257SOL    HW299611   4.388  11.730  12.330
99258SOL     OW99612   6.330   1.625   3.440
99258SOL    HW199613   6.301   1.699   3.494
99258SOL    HW299614   6.313   1.548   3.494
99259SOL     OW99615   4.042  13.047   5.451
99259SOL    HW199616   4.071  13.074   5.539
99259SOL    HW299617   3.947  13.050   5.455
99260SOL     OW99618  13.767   2.457   4.693
99260SOL    HW199619  13.681   2.482   4.729
99260SOL    HW299620  13.817   2.427   4.769
99261SOL     OW99621   6.637   5.662   4.719
99261SOL    HW199622   6.647   5.732   4.655
99261SOL    HW299623   6.543   5.643   4.720
99262SOL     OW99624   7.454   6.175   6.394
99262SOL    HW199625   7.526   6.177   6.457
99262SOL    HW299626   7.431   6.266   6.379
99263SOL     OW99627   8.148   7.883   9.934
99263SOL    HW199628   8.143   7.895  10.029
99263SOL    HW299629   8.115   7.795   9.919
99264SOL     OW99630   1.439   6.609   1.003
99264SOL    HW199631   1.423   6.536   1.063
99264SOL    HW299632   1.527   6.640   1.027
99265SOL     OW99633   5.885   4.370  12.154
99265SOL    HW199634   5.864   4.455  12.114
99265SOL    HW299635   5.847   4.305  12.094
99266SOL     OW99636   0.063   9.087   9.046
99266SOL    HW199637   0.117   9.065   8.970
99266SOL    HW299638   0.024   9.172   9.024
99267SOL     OW99639   7.875   5.920   0.098
99267SOL    HW199640   7.786   5.952   0.085
99267SOL    HW299641   7.906   5.899   0.010
99268SOL     OW99642  13.982   2.188  10.894
99268SOL    HW199643  14.071   2.191  10.929
99268SOL    HW299644  13.926   2.186  10.971
99269SOL     OW99645  14.143   2.250   5.228
99269SOL    HW199646  14.076   2.278   5.291
99269SOL    HW299647  14.136   2.154   5.228
99270SOL     OW99648  12.179  11.585   9.701
99270SOL    HW199649  12.173  11.614   9.610
99270SOL    HW299650  12.229  11.503   9.697
99271SOL     OW99651   3.377  12.744   2.114
99271SOL    HW199652   3.331  12.805   2.171
99271SOL    HW299653   3.461  12.787   2.096
99272SOL     OW99654   2.284  13.323   3.202
99272SOL    HW199655   2.255  13.232   3.216
99272SOL    HW299656   2.340  13.342   3.277
99273SOL     OW99657   9.249   3.561   0.082
99273SOL    HW199658   9.254   3.573  14.861
99273SOL    HW299659   9.325   3.609   0.116
99274SOL     OW99660   7.627   8.896   2.641
99274SOL    HW199661   7.706   8.950   2.635
99274SOL    HW299662   7.565   8.950   2.689
99275SOL     OW99663  10.573  10.141   8.013
99275SOL    HW199664  10.636  10.126   8.083
99275SOL    HW299665  10.534  10.226   8.034
99276SOL     OW99666   7.727   9.278  13.331
99276SOL    HW199667   7.639   9.276  13.369
99276SOL    HW299668   7.724   9.349  13.267
99277SOL     OW99669   0.283   2.856  14.084
99277SOL    HW199670   0.264   2.810  14.003
99277SOL    HW299671   0.338   2.795  14.134
99278SOL     OW99672   4.167   1.116  14.797
99278SOL    HW199673   4.164   1.118  14.702
99278SOL    HW299674   4.078   1.092  14.824
99279SOL     OW99675   2.679  13.565   8.514
99279SOL    HW199676   2.773  13.582   8.512
99279SOL    HW299677   2.639  13.646   8.483
99280SOL     OW99678  13.987   2.735   5.572
99280SOL    HW199679  14.001   2.735   5.667
99280SOL    HW299680  13.997   2.826   5.546
99281SOL     OW99681  10.104  14.468   1.743
99281SOL    HW199682  10.102  14.458   1.648
99281SOL    HW299683  10.080  14.381   1.777
99282SOL     OW99684   2.398   2.059  13.504
99282SOL    HW199685   2.377   2.141  13.461
99282SOL    HW299686   2.455   2.084  13.577
99283SOL     OW99687  12.484   2.775   3.917
99283SOL    HW199688  12.523   2.732   3.841
99283SOL    HW299689  12.434   2.847   3.880
99284SOL     OW99690  10.839   1.629   4.156
99284SOL    HW199691  10.850   1.598   4.066
99284SOL    HW299692  10.757   1.679   4.154
99285SOL     OW99693  10.022   0.797  14.859
99285SOL    HW199694  10.050   0.727  14.799
99285SOL    HW299695   9.961   0.849  14.807
99286SOL     OW99696   3.081  11.989  12.854
99286SOL    HW199697   3.145  11.926  12.819
99286SOL    HW299698   3.127  12.073  12.849
99287SOL     OW99699   9.536   2.379   9.249
99287SOL    HW199700   9.541   2.335   9.334
99287SOL    HW299701   9.608   2.343   9.199
99288SOL     OW99702   2.536   3.320   7.926
99288SOL    HW199703   2.501   3.305   7.838
99288SOL    HW299704   2.466   3.292   7.985
99289SOL     OW99705   3.252  11.071   9.264
99289SOL    HW199706   3.329  11.076   9.206
99289SOL    HW299707   3.256  10.983   9.302
99290SOL     OW99708  10.565   0.856   6.748
99290SOL    HW199709  10.611   0.773   6.738
99290SOL    HW299710  10.491   0.836   6.805
99291SOL     OW99711   1.009  14.830   4.468
99291SOL    HW199712   1.036   0.043   4.497
99291SOL    HW299713   0.956  14.796   4.540
99292SOL     OW99714   0.724   4.251   2.736
99292SOL    HW199715   0.639   4.283   2.705
99292SOL    HW299716   0.782   4.263   2.661
99293SOL     OW99717  12.222   2.324   2.926
99293SOL    HW199718  12.263   2.309   2.841
99293SOL    HW299719  12.156   2.392   2.909
99294SOL     OW99720   6.259   8.226  14.460
99294SOL    HW199721   6.199   8.266  14.524
99294SOL    HW299722   6.232   8.263  14.376
99295SOL     OW99723   6.710  12.909  11.855
99295SOL    HW199724   6.705  12.995  11.897
99295SOL    HW299725   6.789  12.869  11.891
99296SOL     OW99726   6.588   6.432  10.506
99296SOL    HW199727   6.516   6.408  10.564
99296SOL    HW299728   6.634   6.502  10.554
99297SOL     OW99729   8.783   2.765   9.385
99297SOL    HW199730   8.866   2.797   9.351
99297SOL    HW299731   8.736   2.733   9.308
99298SOL     OW99732  10.921   7.823   1.518
99298SOL    HW199733  10.990   7.875   1.477
99298SOL    HW299734  10.906   7.865   1.602
99299SOL     OW99735   5.039   4.545  10.179
99299SOL    HW199736   5.068   4.606  10.111
99299SOL    HW299737   5.086   4.572  10.257
99300SOL     OW99738   2.625   3.322  12.034
99300SOL    HW199739   2.664   3.331  12.121
99300SOL    HW299740   2.564   3.249  12.042
99301SOL     OW99741  13.336   2.170  11.936
99301SOL    HW199742  13.312   2.262  11.933
99301SOL    HW299743  13.301   2.139  12.020
99302SOL     OW99744   0.429   3.875   3.531
99302SOL    HW199745   0.461   3.937   3.597
99302SOL    HW299746   0.412   3.930   3.454
99303SOL     OW99747   6.956   1.652   2.950
99303SOL    HW199748   6.881   1.699   2.913
99303SOL    HW299749   6.930   1.560   2.948
99304SOL     OW99750   4.108   1.630   6.823
99304SOL    HW199751   4.019   1.667   6.822
99304SOL    HW299752   4.097   1.541   6.790
99305SOL     OW99753  14.332   9.707   0.567
99305SOL    HW199754  14.373   9.632   0.610
99305SOL    HW299755  14.238   9.691   0.577
99306SOL     OW99756   0.521  14.768   0.880
99306SOL    HW199757   0.552  14.715   0.954
99306SOL    HW299758   0.595  14.824   0.858
99307SOL     OW99759  12.683  10.393  14.765
99307SOL    HW199760  12.722  10.470  14.724
99307SOL    HW299761  12.605  10.375  14.712
99308SOL     OW99762   2.955  13.824  10.426
99308SOL    HW199763   3.030  13.793  10.477
99308SOL    HW299764   2.978  13.801  10.335
99309SOL     OW99765  12.126   1.007   8.162
99309SOL    HW199766  12.180   0.929   8.179
99309SOL    HW299767  12.174   1.079   8.203
99310SOL     OW99768  12.250   2.613   0.950
99310SOL    HW199769  12.316   2.611   1.020
99310SOL    HW299770  12.260   2.529   0.905
99311SOL     OW99771   1.666   7.007  12.133
99311SOL    HW199772   1.614   6.992  12.053
99311SOL    HW299773   1.606   7.054  12.192
99312SOL     OW99774  11.056  12.450   1.462
99312SOL    HW199775  11.074  12.534   1.419
99312SOL    HW299776  10.967  12.428   1.434
99313SOL     OW99777   9.264  10.499   5.020
99313SOL    HW199778   9.288  10.579   4.974
99313SOL    HW299779   9.238  10.438   4.951
99314SOL     OW99780   5.115   8.976  12.658
99314SOL    HW199781   5.082   9.043  12.598
99314SOL    HW299782   5.210   8.977  12.646
99315SOL     OW99783  14.504  11.370  11.482
99315SOL    HW199784  14.586  11.327  11.506
99315SOL    HW299785  14.529  11.460  11.461
99316SOL     OW99786   1.338   6.799   9.034
99316SOL    HW199787   1.379   6.855   8.968
99316SOL    HW299788   1.297   6.860   9.095
99317SOL     OW99789   0.815   8.146  13.367
99317SOL    HW199790   0.851   8.183  13.447
99317SOL    HW299791   0.874   8.178  13.298
99318SOL     OW99792   8.399  12.984   0.335
99318SOL    HW199793   8.411  13.074   0.305
99318SOL    HW299794   8.325  12.989   0.396
99319SOL     OW99795   0.002   2.102   4.055
99319SOL    HW199796   0.056   2.180   4.070
99319SOL    HW299797   0.052   2.050   3.993
99320SOL     OW99798   9.602   0.319  12.544
99320SOL    HW199799   9.571   0.389  12.487
99320SOL    HW299800   9.670   0.360  12.597
99321SOL     OW99801  13.719   5.580   4.737
99321SOL    HW199802  13.799   5.620   4.704
99321SOL    HW299803  13.748   5.505   4.789
99322SOL     OW99804   9.665  12.842  12.439
99322SOL    HW199805   9.582  12.886  12.459
99322SOL    HW299806   9.703  12.892  12.367
99323SOL     OW99807  12.437  10.379  11.993
99323SOL    HW199808  12.369  10.337  11.940
99323SOL    HW299809  12.480  10.307  12.039
99324SOL     OW99810   6.015   6.246  13.585
99324SOL    HW199811   6.061   6.318  13.541
99324SOL    HW299812   5.935   6.235  13.535
99325SOL     OW99813   9.454  12.887   1.251
99325SOL    HW199814   9.384  12.823   1.265
99325SOL    HW299815   9.414  12.971   1.271
99326SOL     OW99816   0.588   2.272   9.004
99326SOL    HW199817   0.586   2.229   8.918
99326SOL    HW299818   0.593   2.200   9.067
99327SOL     OW99819   5.525   0.147   6.687
99327SOL    HW199820   5.520   0.075   6.625
99327SOL    HW299821   5.612   0.186   6.671
99328SOL     OW99822  10.412  13.835  13.718
99328SOL    HW199823  10.394  13.907  13.658
99328SOL    HW299824  10.326  13.808  13.751
99329SOL     OW99825   5.008  12.962   9.732
99329SOL    HW199826   4.993  12.878   9.776
99329SOL    HW299827   5.095  12.990   9.762
99330SOL     OW99828  14.288   6.518   4.144
99330SOL    HW199829  14.197   6.538   4.122
99330SOL    HW299830  14.303   6.564   4.227
99331SOL     OW99831  11.002   0.290  12.263
99331SOL    HW199832  11.086   0.307  12.305
99331SOL    HW299833  10.939   0.341  12.314
99332SOL     OW99834  12.474   8.002  12.257
99332SOL    HW199835  12.526   7.923  12.244
99332SOL    HW299836  12.538   8.069  12.281
99333SOL     OW99837   5.593   1.824  12.374
99333SOL    HW199838   5.646   1.821  12.453
99333SOL    HW299839   5.648   1.869  12.310
99334SOL     OW99840  10.751   1.955   1.463
99334SOL    HW199841  10.775   1.997   1.545
99334SOL    HW299842  10.800   2.003   1.396
99335SOL     OW99843   4.047   4.217   2.418
99335SOL    HW199844   4.059   4.205   2.512
99335SOL    HW299845   4.096   4.296   2.397
99336SOL     OW99846   1.929   3.007   6.878
99336SOL    HW199847   1.983   2.955   6.938
99336SOL    HW299848   1.973   3.092   6.874
99337SOL     OW99849  13.238  14.665   6.911
99337SOL    HW199850  13.279  14.631   6.990
99337SOL    HW299851  13.153  14.622   6.908
99338SOL     OW99852  11.486   8.217   4.363
99338SOL    HW199853  11.434   8.286   4.402
99338SOL    HW299854  11.569   8.259   4.340
99339SOL     OW99855  14.104   2.084   7.800
99339SOL    HW199856  14.059   2.158   7.841
99339SOL    HW299857  14.037   2.042   7.746
99340SOL     OW99858   1.764  10.454  11.636
99340SOL    HW199859   1.812  10.392  11.691
99340SOL    HW299860   1.721  10.512  11.698
99341SOL     OW99861  12.337   9.206  10.667
99341SOL    HW199862  12.352   9.162  10.751
99341SOL    HW299863  12.423   9.207  10.624
99342SOL     OW99864   0.158   3.157   2.315
99342SOL    HW199865   0.069   3.133   2.343
99342SOL    HW299866   0.184   3.086   2.257
99343SOL     OW99867  13.503   3.648   1.415
99343SOL    HW199868  13.512   3.703   1.338
99343SOL    HW299869  13.587   3.657   1.461
99344SOL     OW99870   4.509   8.714   9.830
99344SOL    HW199871   4.446   8.706   9.759
99344SOL    HW299872   4.552   8.629   9.834
99345SOL     OW99873  12.111   1.620   0.782
99345SOL    HW199874  12.206   1.629   0.784
99345SOL    HW299875  12.092   1.583   0.696
99346SOL     OW99876   0.468  14.236   8.145
99346SOL    HW199877   0.399  14.251   8.080
99346SOL    HW299878   0.543  14.285   8.111
99347SOL     OW99879  11.257   0.009   5.617
99347SOL    HW199880  11.231  14.846   5.701
99347SOL    HW299881  11.351  14.869   5.612
99348SOL     OW99882   1.335   5.215  11.291
99348SOL    HW199883   1.281   5.293  11.274
99348SOL    HW299884   1.422   5.239  11.260
99349SOL     OW99885   0.404  14.452   2.213
99349SOL    HW199886   0.399  14.428   2.305
99349SOL    HW299887   0.431  14.544   2.213
99350SOL     OW99888   5.938  14.669  12.286
99350SOL    HW199889   5.942  14.574  12.278
99350SOL    HW299890   5.909  14.685  12.375
99351SOL     OW99891   0.969   0.101   4.851
99351SOL    HW199892   1.055   0.068   4.826
99351SOL    HW299893   0.978   0.126   4.943
99352SOL     OW99894  13.569  12.529   5.548
99352SOL    HW199895  13.521  12.567   5.622
99352SOL    HW299896  13.648  12.583   5.540
99353SOL     OW99897   3.001  14.547   0.392
99353SOL    HW199898   3.088  14.523   0.424
99353SOL    HW299899   3.015  14.574   0.301
99354SOL     OW99900  12.811  10.372   5.461
99354SOL    HW199901  12.767  10.380   5.376
99354SOL    HW299902  12.823  10.277   5.473
99355SOL     OW99903  10.524   8.331  12.371
99355SOL    HW199904  10.541   8.284  12.452
99355SOL    HW299905  10.557   8.273  12.302
99356SOL     OW99906   0.458   2.583  13.919
99356SOL    HW199907   0.496   2.534  13.993
99356SOL    HW299908   0.463   2.522  13.846
99357SOL     OW99909   8.793   4.363   2.600
99357SOL    HW199910   8.769   4.447   2.639
99357SOL    HW299911   8.870   4.383   2.547
99358SOL     OW99912   1.883   2.811  11.163
99358SOL    HW199913   1.923   2.724  11.157
99358SOL    HW299914   1.954   2.869  11.189
99359SOL     OW99915  14.632   7.395   9.122
99359SOL    HW199916  14.569   7.338   9.079
99359SOL    HW299917  14.659   7.346   9.200
99360SOL     OW99918   9.394   6.989   3.845
99360SOL    HW199919   9.368   7.048   3.916
99360SOL    HW299920   9.321   6.993   3.783
99361SOL     OW99921   5.673   1.476  11.840
99361SOL    HW199922   5.746   1.471  11.778
99361SOL    HW299923   5.704   1.536  11.908
99362SOL     OW99924   0.212   2.332   8.933
99362SOL    HW199925   0.222   2.241   8.960
99362SOL    HW299926   0.169   2.375   9.007
99363SOL     OW99927  12.695  12.859   5.253
99363SOL    HW199928  12.621  12.907   5.215
99363SOL    HW299929  12.771  12.913   5.232
99364SOL     OW99930   8.871  12.016   0.506
99364SOL    HW199931   8.917  12.097   0.485
99364SOL    HW299932   8.930  11.947   0.478
99365SOL     OW99933  10.724   4.878   6.658
99365SOL    HW199934  10.659   4.817   6.624
99365SOL    HW299935  10.716   4.956   6.603
99366SOL     OW99936   2.362  10.620   8.630
99366SOL    HW199937   2.290  10.664   8.585
99366SOL    HW299938   2.330  10.530   8.643
99367SOL     OW99939   2.378  12.970   9.534
99367SOL    HW199940   2.291  12.938   9.559
99367SOL    HW299941   2.391  13.047   9.588
99368SOL     OW99942   0.624   8.661   7.695
99368SOL    HW199943   0.577   8.731   7.649
99368SOL    HW299944   0.642   8.596   7.628
99369SOL     OW99945   3.744   9.915   3.370
99369SOL    HW199946   3.771   9.973   3.300
99369SOL    HW299947   3.750   9.827   3.332
99370SOL     OW99948  11.092   4.267  13.369
99370SOL    HW199949  11.183   4.289  13.348
99370SOL    HW299950  11.057   4.233  13.286
99371SOL     OW99951   6.177   3.670   6.965
99371SOL    HW199952   6.098   3.622   6.992
99371SOL    HW299953   6.183   3.743   7.027
99372SOL     OW99954   5.813   0.764  11.559
99372SOL    HW199955   5.820   0.834  11.493
99372SOL    HW299956   5.729   0.722  11.541
99373SOL     OW99957   9.224  13.819  12.786
99373SOL    HW199958   9.237  13.867  12.704
99373SOL    HW299959   9.311  13.812  12.825
99374SOL     OW99960   0.659  11.670   9.365
99374SOL    HW199961   0.600  11.743   9.386
99374SOL    HW299962   0.629  11.640   9.279
99375SOL     OW99963   9.225   2.324   5.454
99375SOL    HW199964   9.132   2.342   5.470
99375SOL    HW299965   9.244   2.367   5.370
99376SOL     OW99966   9.796   2.711   3.808
99376SOL    HW199967   9.879   2.721   3.760
99376SOL    HW299968   9.787   2.791   3.859
99377SOL     OW99969   6.431   9.757   2.658
99377SOL    HW199970   6.338   9.776   2.641
99377SOL    HW299971   6.441   9.766   2.753
99378SOL     OW99972  11.860   7.604  11.573
99378SOL    HW199973  11.902   7.588  11.488
99378SOL    HW299974  11.895   7.536  11.630
99379SOL     OW99975   3.346   7.795  10.734
99379SOL    HW199976   3.403   7.862  10.696
99379SOL    HW299977   3.405   7.724  10.758
99380SOL     OW99978   8.515   0.841  12.312
99380SOL    HW199979   8.474   0.766  12.268
99380SOL    HW299980   8.441   0.892  12.346
99381SOL     OW99981  10.795   6.136   8.984
99381SOL    HW199982  10.805   6.206   9.048
99381SOL    HW299983  10.871   6.079   8.997
99382SOL     OW99984   5.123   1.086   0.346
99382SOL    HW199985   5.079   1.157   0.392
99382SOL    HW299986   5.079   1.007   0.375
99383SOL     OW99987   9.306   8.186   2.749
99383SOL    HW199988   9.308   8.245   2.825
99383SOL    HW299989   9.214   8.182   2.725
99384SOL     OW99990   5.127   5.068   8.210
99384SOL    HW199991   5.100   5.128   8.279
99384SOL    HW299992   5.045   5.032   8.176
99385SOL     OW99993  14.637   4.961  14.245
99385SOL    HW199994  14.682   4.934  14.325
99385SOL    HW299995  14.635   5.057  14.251
99386SOL     OW99996   1.961   7.863   4.592
99386SOL    HW199997   1.957   7.769   4.611
99386SOL    HW299998   1.889   7.900   4.643
99387SOL     OW99999   8.764   6.522   9.117
99387SOL    HW1    0   8.838   6.473   9.151
99387SOL    HW2    1   8.766   6.605   9.165
99388SOL     OW    2  10.954   5.885  11.698
99388SOL    HW1    3  10.935   5.974  11.727
99388SOL    HW2    4  10.971   5.894  11.604
99389SOL     OW    5   2.855   7.313  10.397
99389SOL    HW1    6   2.760   7.304  10.390
99389SOL    HW2    7   2.883   7.233  10.442
99390SOL     OW    8   6.155  12.229   5.734
99390SOL    HW1    9   6.130  12.151   5.685
99390SOL    HW2   10   6.150  12.201   5.826
99391SOL     OW   11  14.269   6.089   1.017
99391SOL    HW1   12  14.236   6.066   1.104
99391SOL    HW2   13  14.359   6.057   1.017
99392SOL     OW   14   0.340   7.298   0.207
99392SOL    HW1   15   0.264   7.356   0.196
99392SOL    HW2   16   0.409   7.356   0.242
99393SOL     OW   17  12.632   0.729   7.172
99393SOL    HW1   18  12.690   0.712   7.097
99393SOL    HW2   19  12.583   0.807   7.147
99394SOL     OW   20   0.199  11.756  14.441
99394SOL    HW1   21   0.141  11.691  14.403
99394SOL    HW2   22   0.143  11.831  14.459
99395SOL     OW   23   1.305   1.108   8.453
99395SOL    HW1   24   1.231   1.077   8.402
99395SOL    HW2   25   1.375   1.045   8.435
99396SOL     OW   26  11.788   0.485  11.767
99396SOL    HW1   27  11.784   0.403  11.816
99396SOL    HW2   28  11.774   0.459  11.676
99397SOL     OW   29   1.972  12.915  13.538
99397SOL    HW1   30   1.991  12.863  13.615
99397SOL    HW2   31   1.897  12.970  13.563
99398SOL     OW   32  14.121   9.602  14.728
99398SOL    HW1   33  14.065   9.643  14.794
99398SOL    HW2   34  14.149   9.674  14.672
99399SOL     OW   35   0.392  12.776  11.853
99399SOL    HW1   36   0.356  12.697  11.813
99399SOL    HW2   37   0.314  12.826  11.880
99400SOL     OW   38   7.694  13.191  10.462
99400SOL    HW1   39   7.760  13.180  10.394
99400SOL    HW2   40   7.662  13.102  10.480
99401SOL     OW   41  12.861   7.119   1.060
99401SOL    HW1   42  12.794   7.110   0.992
99401SOL    HW2   43  12.909   7.036   1.057
99402SOL     OW   44   8.014  14.498  11.579
99402SOL    HW1   45   8.043  14.419  11.626
99402SOL    HW2   46   8.089  14.558  11.587
99403SOL     OW   47   2.747   9.901   0.264
99403SOL    HW1   48   2.661   9.892   0.305
99403SOL    HW2   49   2.748   9.991   0.230
99404SOL     OW   50   4.252   4.604   0.040
99404SOL    HW1   51   4.259   4.557  14.831
99404SOL    HW2   52   4.271   4.695   0.017
99405SOL     OW   53  14.559   9.870   3.934
99405SOL    HW1   54  14.598   9.785   3.913
99405SOL    HW2   55  14.507   9.891   3.857
99406SOL     OW   56   5.621   1.305   4.655
99406SOL    HW1   57   5.713   1.308   4.627
99406SOL    HW2   58   5.602   1.212   4.663
99407SOL     OW   59  11.030   1.422   5.595
99407SOL    HW1   60  11.101   1.472   5.555
99407SOL    HW2   61  10.972   1.402   5.522
99408SOL     OW   62  10.508  11.837   6.323
99408SOL    HW1   63  10.600  11.817   6.306
99408SOL    HW2   64  10.488  11.909   6.263
99409SOL     OW   65   1.766  11.112   9.478
99409SOL    HW1   66   1.727  11.155   9.554
99409SOL    HW2   67   1.719  11.150   9.403
99410SOL     OW   68  14.014   2.958  11.467
99410SOL    HW1   69  13.980   3.008  11.393
99410SOL    HW2   70  13.987   2.868  11.451
99411SOL     OW   71   7.504   5.717   7.892
99411SOL    HW1   72   7.506   5.622   7.897
99411SOL    HW2   73   7.434   5.736   7.829
99412SOL     OW   74   1.490  14.197   0.592
99412SOL    HW1   75   1.444  14.160   0.667
99412SOL    HW2   76   1.445  14.279   0.575
99413SOL     OW   77  14.597  14.566  12.216
99413SOL    HW1   78  14.601  14.571  12.121
99413SOL    HW2   79  14.683  14.533  12.242
99414SOL     OW   80   1.125   3.737   4.030
99414SOL    HW1   81   1.168   3.751   3.946
99414SOL    HW2   82   1.166   3.800   4.089
99415SOL     OW   83   2.485   0.753  11.220
99415SOL    HW1   84   2.402   0.790  11.189
99415SOL    HW2   85   2.468   0.729  11.311
99416SOL     OW   86  10.818   1.016   6.017
99416SOL    HW1   87  10.887   1.022   6.082
99416SOL    HW2   88  10.825   1.098   5.967
99417SOL     OW   89   5.794   3.582  12.897
99417SOL    HW1   90   5.769   3.593  12.805
99417SOL    HW2   91   5.773   3.491  12.916
99418SOL     OW   92   5.470   1.731   2.307
99418SOL    HW1   93   5.529   1.794   2.348
99418SOL    HW2   94   5.527   1.673   2.257
99419SOL     OW   95   7.424  10.323  10.817
99419SOL    HW1   96   7.389  10.290  10.900
99419SOL    HW2   97   7.494  10.383  10.843
99420SOL     OW   98   2.034   2.588   2.329
99420SOL    HW1   99   2.031   2.672   2.375
99420SOL    HW2  100   2.020   2.522   2.397
99421SOL     OW  101  13.719  14.763  14.630
99421SOL    HW1  102  13.682  14.845  14.665
99421SOL    HW2  103  13.646  14.723  14.582
99422SOL     OW  104  12.260   5.185  11.568
99422SOL    HW1  105  12.235   5.266  11.523
99422SOL    HW2  106  12.311   5.215  11.643
99423SOL     OW  107   9.752   4.538  11.324
99423SOL    HW1  108   9.768   4.614  11.267
99423SOL    HW2  109   9.833   4.528  11.374
99424SOL     OW  110   3.777   7.242   8.385
99424SOL    HW1  111   3.734   7.239   8.300
99424SOL    HW2  112   3.804   7.333   8.395
99425SOL     OW  113   1.541  12.827   5.142
99425SOL    HW1  114   1.480  12.866   5.080
99425SOL    HW2  115   1.493  12.754   5.181
99426SOL     OW  116   9.667   9.573  10.613
99426SOL    HW1  117   9.737   9.637  10.621
99426SOL    HW2  118   9.594   9.612  10.661
99427SOL     OW  119   0.169   2.099   2.902
99427SOL    HW1  120   0.164   2.154   2.980
99427SOL    HW2  121   0.113   2.024   2.922
99428SOL     OW  122  11.371   4.034   9.750
99428SOL    HW1  123  11.292   4.017   9.802
99428SOL    HW2  124  11.439   4.050   9.815
99429SOL     OW  125   5.577   4.730  11.103
99429SOL    HW1  126   5.552   4.647  11.143
99429SOL    HW2  127   5.560   4.718  11.010
99430SOL     OW  128   4.406   8.298   2.694
99430SOL    HW1  129   4.454   8.377   2.671
99430SOL    HW2  130   4.354   8.277   2.617
99431SOL     OW  131  13.473   2.490  12.996
99431SOL    HW1  132  13.402   2.437  12.961
99431SOL    HW2  133  13.485   2.560  12.932
99432SOL     OW  134   4.764   1.195  10.879
99432SOL    HW1  135   4.770   1.216  10.786
99432SOL    HW2  136   4.703   1.259  10.915
99433SOL     OW  137   6.678  11.935   1.371
99433SOL    HW1  138   6.664  11.874   1.298
99433SOL    HW2  139   6.651  11.886   1.449
99434SOL     OW  140   3.601   1.294   4.217
99434SOL    HW1  141   3.535   1.275   4.284
99434SOL    HW2  142   3.562   1.262   4.136
99435SOL     OW  143  11.220   9.608   6.664
99435SOL    HW1  144  11.290   9.560   6.710
99435SOL    HW2  145  11.237   9.700   6.684
99436SOL     OW  146   1.894   8.548   0.910
99436SOL    HW1  147   1.899   8.565   1.004
99436SOL    HW2  148   1.976   8.502   0.890
99437SOL     OW  149   2.619  12.643  10.512
99437SOL    HW1  150   2.628  12.579  10.441
99437SOL    HW2  151   2.565  12.599  10.577
99438SOL     OW  152   6.316   0.197   1.685
99438SOL    HW1  153   6.301   0.222   1.593
99438SOL    HW2  154   6.268   0.262   1.736
99439SOL     OW  155   8.965   4.813   2.656
99439SOL    HW1  156   8.930   4.889   2.609
99439SOL    HW2  157   9.008   4.761   2.589
99440SOL     OW  158  14.266   2.443  13.294
99440SOL    HW1  159  14.289   2.445  13.387
99440SOL    HW2  160  14.176   2.476  13.291
99441SOL     OW  161   3.511  13.320  12.824
99441SOL    HW1  162   3.488  13.231  12.798
99441SOL    HW2  163   3.561  13.309  12.905
99442SOL     OW  164  13.706   7.447   7.733
99442SOL    HW1  165  13.638   7.457   7.800
99442SOL    HW2  166  13.775   7.508   7.759
99443SOL     OW  167   9.996  12.674  11.283
99443SOL    HW1  168  10.036  12.638  11.204
99443SOL    HW2  169  10.012  12.608  11.350
99444SOL     OW  170   7.518  10.236   2.683
99444SOL    HW1  171   7.580  10.163   2.685
99444SOL    HW2  172   7.531  10.276   2.597
99445SOL     OW  173  13.255   3.369  14.186
99445SOL    HW1  174  13.251   3.461  14.157
99445SOL    HW2  175  13.164   3.340  14.187
99446SOL     OW  176   4.883  11.446  14.199
99446SOL    HW1  177   4.903  11.400  14.281
99446SOL    HW2  178   4.943  11.520  14.197
99447SOL     OW  179   9.138   3.060   5.445
99447SOL    HW1  180   9.222   3.085   5.408
99447SOL    HW2  181   9.108   2.987   5.390
99448SOL     OW  182   2.668   7.873   6.108
99448SOL    HW1  183   2.660   7.916   6.193
99448SOL    HW2  184   2.633   7.785   6.122
99449SOL     OW  185   7.942  13.661  12.580
99449SOL    HW1  186   7.941  13.737  12.638
99449SOL    HW2  187   7.939  13.586  12.639
99450SOL     OW  188   7.976  10.784   3.134
99450SOL    HW1  189   8.046  10.762   3.196
99450SOL    HW2  190   7.915  10.710   3.141
99451SOL     OW  191  14.100  12.463   6.357
99451SOL    HW1  192  14.123  12.387   6.410
99451SOL    HW2  193  14.146  12.448   6.274
99452SOL     OW  194   1.288  11.064   8.081
99452SOL    HW1  195   1.351  11.135   8.071
99452SOL    HW2  196   1.325  10.991   8.030
99453SOL     OW  197   8.189   8.037   6.708
99453SOL    HW1  198   8.151   8.030   6.796
99453SOL    HW2  199   8.262   8.097   6.718
99454SOL     OW  200  10.314  12.872  14.026
99454SOL    HW1  201  10.331  12.847  13.935
99454SOL    HW2  202  10.400  12.894  14.062
99455SOL     OW  203  12.890  13.534  10.355
99455SOL    HW1  204  12.922  13.463  10.299
99455SOL    HW2  205  12.969  13.570  10.396
99456SOL     OW  206   2.124  11.153  12.270
99456SOL    HW1  207   2.212  11.123  12.247
99456SOL    HW2  208   2.136  11.199  12.354
99457SOL     OW  209   1.147   6.070   5.042
99457SOL    HW1  210   1.071   6.115   5.081
99457SOL    HW2  211   1.210   6.063   5.114
99458SOL     OW  212  10.653  12.337   3.595
99458SOL    HW1  213  10.631  12.310   3.684
99458SOL    HW2  214  10.571  12.328   3.547
99459SOL     OW  215   0.600  14.288   7.097
99459SOL    HW1  216   0.611  14.382   7.083
99459SOL    HW2  217   0.533  14.262   7.034
99460SOL     OW  218   0.728  11.055   1.270
99460SOL    HW1  219   0.752  10.978   1.219
99460SOL    HW2  220   0.646  11.085   1.230
99461SOL     OW  221  11.222   6.473   8.101
99461SOL    HW1  222  11.199   6.491   8.010
99461SOL    HW2  223  11.280   6.397   8.097
99462SOL     OW  224  13.167   9.353  13.967
99462SOL    HW1  225  13.258   9.374  13.949
99462SOL    HW2  226  13.166   9.320  14.057
99463SOL     OW  227   2.988  10.640   9.376
99463SOL    HW1  228   2.907  10.679   9.344
99463SOL    HW2  229   2.971  10.546   9.377
99464SOL     OW  230   1.321   6.621   4.629
99464SOL    HW1  231   1.331   6.537   4.673
99464SOL    HW2  232   1.227   6.628   4.611
99465SOL     OW  233  12.796   5.163  10.404
99465SOL    HW1  234  12.807   5.240  10.348
99465SOL    HW2  235  12.725   5.187  10.464
99466SOL     OW  236   1.096   0.572   7.388
99466SOL    HW1  237   1.139   0.634   7.329
99466SOL    HW2  238   1.164   0.506   7.406
99467SOL     OW  239  11.838   3.099   6.220
99467SOL    HW1  240  11.934   3.095   6.228
99467SOL    HW2  241  11.818   3.047   6.142
99468SOL     OW  242   6.905   0.261   9.231
99468SOL    HW1  243   6.897   0.243   9.137
99468SOL    HW2  244   6.982   0.317   9.238
99469SOL     OW  245   5.270  12.215   5.901
99469SOL    HW1  246   5.192  12.214   5.846
99469SOL    HW2  247   5.326  12.146   5.866
99470SOL     OW  248   2.158   1.154   6.533
99470SOL    HW1  249   2.236   1.170   6.480
99470SOL    HW2  250   2.091   1.128   6.469
99471SOL     OW  251   3.348  13.688   9.241
99471SOL    HW1  252   3.382  13.772   9.273
99471SOL    HW2  253   3.423  13.644   9.203
99472SOL     OW  254   6.251  12.104  14.603
99472SOL    HW1  255   6.185  12.047  14.642
99472SOL    HW2  256   6.254  12.180  14.660
99473SOL     OW  257   3.809   3.326   8.689
99473SOL    HW1  258   3.878   3.318   8.623
99473SOL    HW2  259   3.847   3.288   8.768
99474SOL     OW  260  14.444   7.832   6.342
99474SOL    HW1  261  14.505   7.860   6.275
99474SOL    HW2  262  14.360   7.822   6.297
99475SOL     OW  263  11.346   0.694   0.432
99475SOL    HW1  264  11.384   0.747   0.362
99475SOL    HW2  265  11.254   0.719   0.434
99476SOL     OW  266   3.121   0.244   0.459
99476SOL    HW1  267   3.169   0.183   0.514
99476SOL    HW2  268   3.099   0.317   0.517
99477SOL     OW  269   7.812   6.109  12.017
99477SOL    HW1  270   7.739   6.171  12.024
99477SOL    HW2  271   7.859   6.137  11.939
99478SOL     OW  272   9.011   9.905   8.971
99478SOL    HW1  273   8.930   9.914   8.921
99478SOL    HW2  274   9.010   9.816   9.004
99479SOL     OW  275  11.478  11.698  14.343
99479SOL    HW1  276  11.567  11.670  14.321
99479SOL    HW2  277  11.470  11.685  14.437
99480SOL     OW  278   7.738  13.326   2.214
99480SOL    HW1  279   7.822  13.284   2.195
99480SOL    HW2  280   7.745  13.413   2.175
99481SOL     OW  281   4.457  14.758  13.421
99481SOL    HW1  282   4.398  14.834  13.423
99481SOL    HW2  283   4.537  14.792  13.379
99482SOL     OW  284  10.071  13.620   8.197
99482SOL    HW1  285  10.160  13.651   8.210
99482SOL    HW2  286  10.061  13.548   8.260
99483SOL     OW  287  10.969  10.575   7.254
99483SOL    HW1  288  10.906  10.528   7.199
99483SOL    HW2  289  11.053  10.565   7.209
99484SOL     OW  290  14.822   8.155  12.778
99484SOL    HW1  291  14.792   8.230  12.829
99484SOL    HW2  292  14.815   8.184  12.687
99485SOL     OW  293   3.843   7.763   7.408
99485SOL    HW1  294   3.799   7.754   7.493
99485SOL    HW2  295   3.782   7.724   7.345
99486SOL     OW  296   7.093  10.188   9.108
99486SOL    HW1  297   7.108  10.093   9.104
99486SOL    HW2  298   7.114  10.219   9.020
99487SOL     OW  299   9.938   4.735   4.229
99487SOL    HW1  300   9.954   4.828   4.214
99487SOL    HW2  301   9.880   4.732   4.305
99488SOL     OW  302   3.913   1.806  11.293
99488SOL    HW1  303   3.832   1.855  11.309
99488SOL    HW2  304   3.894   1.718  11.327
99489SOL     OW  305   3.293  10.381   8.749
99489SOL    HW1  306   3.229  10.446   8.723
99489SOL    HW2  307   3.244  10.299   8.754
99490SOL     OW  308   8.092   6.581   5.836
99490SOL    HW1  309   8.007   6.561   5.796
99490SOL    HW2  310   8.140   6.498   5.832
99491SOL     OW  311  10.466   0.343   2.883
99491SOL    HW1  312  10.447   0.375   2.972
99491SOL    HW2  313  10.453   0.249   2.889
99492SOL     OW  314  11.440   4.957  11.549
99492SOL    HW1  315  11.415   4.946  11.641
99492SOL    HW2  316  11.473   4.871  11.523
99493SOL     OW  317  10.370  11.563   7.361
99493SOL    HW1  318  10.419  11.573   7.442
99493SOL    HW2  319  10.395  11.639   7.308
99494SOL     OW  320  14.116  10.552  13.921
99494SOL    HW1  321  14.126  10.581  14.012
99494SOL    HW2  322  14.200  10.573  13.879
99495SOL     OW  323   9.306  11.399   4.745
99495SOL    HW1  324   9.380  11.458   4.726
99495SOL    HW2  325   9.332  11.315   4.708
99496SOL     OW  326  11.453   1.714   7.224
99496SOL    HW1  327  11.456   1.742   7.316
99496SOL    HW2  328  11.533   1.751   7.186
99497SOL     OW  329   9.064   4.941  10.235
99497SOL    HW1  330   9.125   5.001  10.277
99497SOL    HW2  331   9.119   4.870  10.201
99498SOL     OW  332  14.176   8.177   0.561
99498SOL    HW1  333  14.248   8.152   0.503
99498SOL    HW2  334  14.120   8.233   0.508
99499SOL     OW  335   3.120   3.149   5.629
99499SOL    HW1  336   3.207   3.189   5.640
99499SOL    HW2  337   3.139   3.060   5.599
99500SOL     OW  338   3.857   3.850   0.848
99500SOL    HW1  339   3.882   3.892   0.930
99500SOL    HW2  340   3.928   3.789   0.830
99501SOL     OW  341   0.729   4.024   2.376
99501SOL    HW1  342   0.640   4.000   2.349
99501SOL    HW2  343   0.768   3.941   2.405
99502SOL     OW  344   5.866   9.281   9.267
99502SOL    HW1  345   5.950   9.321   9.242
99502SOL    HW2  346   5.800   9.342   9.235
99503SOL     OW  347  10.797   3.627   1.045
99503SOL    HW1  348  10.846   3.650   0.966
99503SOL    HW2  349  10.860   3.580   1.099
99504SOL     OW  350   0.093   1.066   9.723
99504SOL    HW1  351   0.172   1.096   9.767
99504SOL    HW2  352   0.107   1.089   9.631
99505SOL     OW  353   5.587   8.334   6.994
99505SOL    HW1  354   5.504   8.377   7.011
99505SOL    HW2  355   5.639   8.398   6.946
99506SOL     OW  356   4.299   8.884   7.690
99506SOL    HW1  357   4.291   8.840   7.775
99506SOL    HW2  358   4.278   8.816   7.626
99507SOL     OW  359   1.695   2.255   4.908
99507SOL    HW1  360   1.639   2.189   4.948
99507SOL    HW2  361   1.683   2.243   4.813
99508SOL     OW  362   0.848  14.182   1.717
99508SOL    HW1  363   0.896  14.100   1.730
99508SOL    HW2  364   0.811  14.201   1.803
99509SOL     OW  365   8.990  12.680  12.322
99509SOL    HW1  366   9.014  12.633  12.242
99509SOL    HW2  367   9.063  12.740  12.338
99510SOL     OW  368   7.732   5.742   4.670
99510SOL    HW1  369   7.827   5.741   4.681
99510SOL    HW2  370   7.698   5.689   4.742
99511SOL     OW  371   7.438  11.212  14.434
99511SOL    HW1  372   7.415  11.225  14.342
99511SOL    HW2  373   7.418  11.296  14.476
99512SOL     OW  374   5.960  12.202  13.081
99512SOL    HW1  375   5.937  12.206  13.173
99512SOL    HW2  376   6.045  12.246  13.075
99513SOL     OW  377   8.759   8.251   8.136
99513SOL    HW1  378   8.698   8.183   8.164
99513SOL    HW2  379   8.727   8.278   8.050
99514SOL     OW  380  10.375   9.885  10.530
99514SOL    HW1  381  10.411   9.966  10.493
99514SOL    HW2  382  10.402   9.887  10.622
99515SOL     OW  383   2.535  12.034   8.786
99515SOL    HW1  384   2.498  11.983   8.714
99515SOL    HW2  385   2.488  12.117   8.784
99516SOL     OW  386   3.545   0.431   9.862
99516SOL    HW1  387   3.632   0.468   9.848
99516SOL    HW2  388   3.558   0.368   9.933
99517SOL     OW  389  10.717  10.942   0.102
99517SOL    HW1  390  10.651  10.893   0.054
99517SOL    HW2  391  10.673  11.023   0.127
99518SOL     OW  392   9.833  12.207   1.046
99518SOL    HW1  393   9.737  12.199   1.052
99518SOL    HW2  394   9.848  12.239   0.957
99519SOL     OW  395   8.980  10.543   2.496
99519SOL    HW1  396   8.922  10.556   2.421
99519SOL    HW2  397   8.942  10.597   2.565
99520SOL     OW  398   1.842   0.651   7.011
99520SOL    HW1  399   1.901   0.595   6.961
99520SOL    HW2  400   1.897   0.722   7.043
99521SOL     OW  401   8.353  12.000   8.647
99521SOL    HW1  402   8.368  12.041   8.562
99521SOL    HW2  403   8.421  12.038   8.703
99522SOL     OW  404  11.444   6.609  14.727
99522SOL    HW1  405  11.518   6.548  14.726
99522SOL    HW2  406  11.444   6.645  14.816
99523SOL     OW  407   3.876   1.302  11.817
99523SOL    HW1  408   3.831   1.248  11.751
99523SOL    HW2  409   3.818   1.377  11.829
99524SOL     OW  410  10.905  13.144  11.406
99524SOL    HW1  411  10.906  13.080  11.335
99524SOL    HW2  412  10.952  13.220  11.372
99525SOL     OW  413   3.752  11.908   7.888
99525SOL    HW1  414   3.821  11.880   7.948
99525SOL    HW2  415   3.699  11.969   7.939
99526SOL     OW  416   4.462   7.114   1.012
99526SOL    HW1  417   4.459   7.103   1.108
99526SOL    HW2  418   4.497   7.202   1.000
99527SOL     OW  419   8.194   6.909   9.973
99527SOL    HW1  420   8.149   6.942  10.051
99527SOL    HW2  421   8.212   6.817   9.993
99528SOL     OW  422  13.604   0.690   4.290
99528SOL    HW1  423  13.655   0.654   4.218
99528SOL    HW2  424  13.633   0.642   4.367
99529SOL     OW  425  13.775  11.368   9.772
99529SOL    HW1  426  13.870  11.360   9.779
99529SOL    HW2  427  13.758  11.461   9.788
99530SOL     OW  428  11.589  10.398   3.489
99530SOL    HW1  429  11.656  10.331   3.497
99530SOL    HW2  430  11.626  10.463   3.428
99531SOL     OW  431  13.840   6.110   3.810
99531SOL    HW1  432  13.868   6.160   3.887
99531SOL    HW2  433  13.790   6.037   3.846
99532SOL     OW  434   2.477  11.614   1.181
99532SOL    HW1  435   2.491  11.683   1.117
99532SOL    HW2  436   2.385  11.589   1.171
99533SOL     OW  437   5.840   8.610   7.770
99533SOL    HW1  438   5.779   8.579   7.703
99533SOL    HW2  439   5.790   8.674   7.821
99534SOL     OW  440   6.176  13.582   2.960
99534SOL    HW1  441   6.195  13.675   2.968
99534SOL    HW2  442   6.089  13.572   2.999
99535SOL     OW  443   6.316   1.358   9.833
99535SOL    HW1  444   6.315   1.263   9.842
99535SOL    HW2  445   6.233   1.387   9.870
99536SOL     OW  446   9.545  13.528   2.095
99536SOL    HW1  447   9.639  13.529   2.115
99536SOL    HW2  448   9.505  13.489   2.172
99537SOL     OW  449   7.682  12.168   8.170
99537SOL    HW1  450   7.743  12.213   8.111
99537SOL    HW2  451   7.617  12.234   8.191
99538SOL     OW  452  12.975   2.252  14.855
99538SOL    HW1  453  12.963   2.317  14.786
99538SOL    HW2  454  13.062   2.270   0.016
99539SOL     OW  455  13.651   1.622   2.121
99539SOL    HW1  456  13.728   1.632   2.066
99539SOL    HW2  457  13.615   1.536   2.097
99540SOL     OW  458   6.417  12.362   1.858
99540SOL    HW1  459   6.389  12.281   1.816
99540SOL    HW2  460   6.398  12.349   1.951
99541SOL     OW  461   0.791   9.363   7.089
99541SOL    HW1  462   0.821   9.428   7.026
99541SOL    HW2  463   0.851   9.289   7.078
99542SOL     OW  464   9.619  12.522  11.268
99542SOL    HW1  465   9.547  12.505  11.208
99542SOL    HW2  466   9.682  12.572  11.215
99543SOL     OW  467  11.257   0.581  10.253
99543SOL    HW1  468  11.308   0.589  10.173
99543SOL    HW2  469  11.321   0.592  10.323
99544SOL     OW  470   0.492   7.623  14.737
99544SOL    HW1  471   0.413   7.676  14.745
99544SOL    HW2  472   0.504   7.612  14.642
99545SOL     OW  473   1.102  14.225  12.724
99545SOL    HW1  474   1.148  14.308  12.735
99545SOL    HW2  475   1.170  14.162  12.703
99546SOL     OW  476  10.329   6.746  12.581
99546SOL    HW1  477  10.254   6.773  12.634
99546SOL    HW2  478  10.319   6.652  12.572
99547SOL     OW  479  12.433  12.187   3.058
99547SOL    HW1  480  12.502  12.236   3.103
99547SOL    HW2  481  12.464  12.097   3.058
99548SOL     OW  482  10.760  13.135   5.365
99548SOL    HW1  483  10.732  13.211   5.314
99548SOL    HW2  484  10.705  13.137   5.443
99549SOL     OW  485   5.315   8.294   0.464
99549SOL    HW1  486   5.384   8.360   0.474
99549SOL    HW2  487   5.271   8.316   0.382
99550SOL     OW  488   5.390  14.867  14.698
99550SOL    HW1  489   5.396   0.088  14.708
99550SOL    HW2  490   5.451  14.832  14.763
99551SOL     OW  491   6.720  12.054   4.568
99551SOL    HW1  492   6.745  11.999   4.642
99551SOL    HW2  493   6.778  12.027   4.497
99552SOL     OW  494  10.494   0.647   1.692
99552SOL    HW1  495  10.442   0.612   1.619
99552SOL    HW2  496  10.434   0.650   1.765
99553SOL     OW  497  13.063   1.422  10.554
99553SOL    HW1  498  13.001   1.357  10.520
99553SOL    HW2  499  13.140   1.415  10.498
99554SOL     OW  500   9.075   5.933   1.695
99554SOL    HW1  501   9.064   5.866   1.628
99554SOL    HW2  502   9.170   5.941   1.705
99555SOL     OW  503   0.121  12.044   9.001
99555SOL    HW1  504   0.206  12.005   9.018
99555SOL    HW2  505   0.116  12.119   9.060
99556SOL     OW  506  14.315   5.346   9.733
99556SOL    HW1  507  14.347   5.318   9.819
99556SOL    HW2  508  14.384   5.317   9.673
99557SOL     OW  509   1.436   4.632   9.016
99557SOL    HW1  510   1.468   4.671   9.097
99557SOL    HW2  511   1.342   4.651   9.016
99558SOL     OW  512  11.317   8.089   0.820
99558SOL    HW1  513  11.377   8.099   0.746
99558SOL    HW2  514  11.302   7.994   0.826
99559SOL     OW  515   6.566   3.150   8.864
99559SOL    HW1  516   6.560   3.150   8.768
99559SOL    HW2  517   6.588   3.059   8.886
99560SOL     OW  518  13.432   9.470  11.189
99560SOL    HW1  519  13.524   9.442  11.185
99560SOL    HW2  520  13.405   9.477  11.098
99561SOL     OW  521   7.921   3.212  14.643
99561SOL    HW1  522   7.935   3.146  14.711
99561SOL    HW2  523   7.944   3.295  14.685
99562SOL     OW  524   5.503   8.085   1.999
99562SOL    HW1  525   5.564   8.050   2.063
99562SOL    HW2  526   5.444   8.012   1.979
99563SOL     OW  527   1.127  14.341  13.587
99563SOL    HW1  528   1.046  14.328  13.636
99563SOL    HW2  529   1.116  14.289  13.508
99564SOL     OW  530   8.359  11.141   4.461
99564SOL    HW1  531   8.319  11.212   4.511
99564SOL    HW2  532   8.418  11.099   4.524
99565SOL     OW  533   8.853   4.181  13.147
99565SOL    HW1  534   8.789   4.138  13.203
99565SOL    HW2  535   8.861   4.124  13.071
99566SOL     OW  536  14.737   4.095  10.176
99566SOL    HW1  537  14.734   4.008  10.137
99566SOL    HW2  538  14.742   4.155  10.101
99567SOL     OW  539  12.831   9.861   9.201
99567SOL    HW1  540  12.826   9.856   9.105
99567SOL    HW2  541  12.875   9.781   9.227
99568SOL     OW  542  12.641   7.959   0.337
99568SOL    HW1  543  12.596   7.876   0.356
99568SOL    HW2  544  12.721   7.955   0.390
99569SOL     OW  545  10.868   9.466  12.275
99569SOL    HW1  546  10.892   9.510  12.194
99569SOL    HW2  547  10.937   9.402  12.290
99570SOL     OW  548   6.428   9.328   7.356
99570SOL    HW1  549   6.360   9.316   7.421
99570SOL    HW2  550   6.422   9.249   7.301
99571SOL     OW  551   6.860  11.014  10.024
99571SOL    HW1  552   6.823  11.102  10.020
99571SOL    HW2  553   6.798  10.959   9.976
99572SOL     OW  554   3.812   5.016   2.507
99572SOL    HW1  555   3.894   5.023   2.458
99572SOL    HW2  556   3.822   5.079   2.579
99573SOL     OW  557   6.538   2.964  10.899
99573SOL    HW1  558   6.597   3.033  10.869
99573SOL    HW2  559   6.591   2.909  10.957
99574SOL     OW  560   0.209  13.542   7.371
99574SOL    HW1  561   0.265  13.480   7.419
99574SOL    HW2  562   0.248  13.628   7.388
99575SOL     OW  563   6.948   1.154   5.212
99575SOL    HW1  564   6.910   1.239   5.235
99575SOL    HW2  565   6.877   1.092   5.223
99576SOL     OW  566   7.426  14.167  12.974
99576SOL    HW1  567   7.410  14.073  12.979
99576SOL    HW2  568   7.452  14.182  12.883
99577SOL     OW  569  11.405   7.076   3.983
99577SOL    HW1  570  11.487   7.046   4.023
99577SOL    HW2  571  11.339   7.061   4.051
99578SOL     OW  572   0.455   4.580   4.274
99578SOL    HW1  573   0.506   4.654   4.304
99578SOL    HW2  574   0.390   4.565   4.343
99579SOL     OW  575   1.023   1.365   3.520
99579SOL    HW1  576   0.941   1.376   3.472
99579SOL    HW2  577   1.062   1.285   3.483
99580SOL     OW  578   2.664   1.870   2.358
99580SOL    HW1  579   2.591   1.891   2.300
99580SOL    HW2  580   2.728   1.939   2.342
99581SOL     OW  581   9.741   0.373   3.602
99581SOL    HW1  582   9.798   0.303   3.632
99581SOL    HW2  583   9.706   0.412   3.682
99582SOL     OW  584  13.102  11.793  13.993
99582SOL    HW1  585  13.053  11.846  14.056
99582SOL    HW2  586  13.039  11.729  13.962
99583SOL     OW  587  12.591  10.453  11.298
99583SOL    HW1  588  12.637  10.371  11.281
99583SOL    HW2  589  12.518  10.452  11.236
99584SOL     OW  590   0.827   4.438  10.869
99584SOL    HW1  591   0.859   4.419  10.958
99584SOL    HW2  592   0.888   4.504  10.835
99585SOL     OW  593   8.224   0.324  14.712
99585SOL    HW1  594   8.281   0.399  14.724
99585SOL    HW2  595   8.283   0.249  14.706
99586SOL     OW  596   6.004   2.653  13.687
99586SOL    HW1  597   6.024   2.601  13.609
99586SOL    HW2  598   5.987   2.740  13.654
99587SOL     OW  599  11.626   3.978   6.888
99587SOL    HW1  600  11.680   3.903   6.866
99587SOL    HW2  601  11.536   3.944   6.886
99588SOL     OW  602  13.092   5.636   7.534
99588SOL    HW1  603  13.141   5.582   7.596
99588SOL    HW2  604  13.101   5.725   7.568
99589SOL     OW  605  13.963   1.640   5.559
99589SOL    HW1  606  13.923   1.659   5.474
99589SOL    HW2  607  13.988   1.725   5.594
99590SOL     OW  608   0.402  14.280  10.708
99590SOL    HW1  609   0.431  14.370  10.718
99590SOL    HW2  610   0.309  14.286  10.689
99591SOL     OW  611   8.486   6.464  14.806
99591SOL    HW1  612   8.433   6.422  14.737
99591SOL    HW2  613   8.546   6.395  14.834
99592SOL     OW  614   9.943  10.307  10.198
99592SOL    HW1  615   9.907  10.383  10.152
99592SOL    HW2  616   9.867  10.268  10.243
99593SOL     OW  617  11.877  13.640   1.072
99593SOL    HW1  618  11.860  13.568   1.133
99593SOL    HW2  619  11.949  13.690   1.112
99594SOL     OW  620   4.628  12.941   3.585
99594SOL    HW1  621   4.667  12.903   3.506
99594SOL    HW2  622   4.646  12.877   3.654
99595SOL     OW  623   8.583   9.398   7.632
99595SOL    HW1  624   8.623   9.401   7.719
99595SOL    HW2  625   8.500   9.446   7.642
99596SOL     OW  626   1.725   5.242   0.682
99596SOL    HW1  627   1.664   5.270   0.750
99596SOL    HW2  628   1.754   5.323   0.641
99597SOL     OW  629   7.794   3.938  10.177
99597SOL    HW1  630   7.794   3.844  10.161
99597SOL    HW2  631   7.774   3.977  10.092
99598SOL     OW  632  10.198   6.734   4.981
99598SOL    HW1  633  10.269   6.674   4.959
99598SOL    HW2  634  10.148   6.742   4.900
99599SOL     OW  635   6.479   1.400  12.934
99599SOL    HW1  636   6.533   1.344  12.990
99599SOL    HW2  637   6.403   1.423  12.989
99600SOL     OW  638  13.439   4.086   0.070
99600SOL    HW1  639  13.373   4.124   0.127
99600SOL    HW2  640  13.436   3.992   0.089
99601SOL     OW  641   3.569   3.036  14.030
99601SOL    HW1  642   3.619   3.044  14.111
99601SOL    HW2  643   3.506   2.966  14.047
99602SOL     OW  644   7.858   7.311   9.402
99602SOL    HW1  645   7.921   7.331   9.471
99602SOL    HW2  646   7.910   7.307   9.322
99603SOL     OW  647  10.698   9.192   5.912
99603SOL    HW1  648  10.712   9.154   5.825
99603SOL    HW2  649  10.784   9.189   5.954
99604SOL     OW  650   1.591   3.198   9.867
99604SOL    HW1  651   1.572   3.228   9.956
99604SOL    HW2  652   1.506   3.183   9.827
99605SOL     OW  653   9.652   1.660   7.378
99605SOL    HW1  654   9.667   1.569   7.351
99605SOL    HW2  655   9.685   1.713   7.307
99606SOL     OW  656   4.712   6.866   9.281
99606SOL    HW1  657   4.636   6.835   9.329
99606SOL    HW2  658   4.763   6.915   9.345
99607SOL     OW  659  10.092   3.909   8.075
99607SOL    HW1  660  10.081   3.968   8.000
99607SOL    HW2  661  10.024   3.843   8.063
99608SOL     OW  662  14.273  12.205   3.599
99608SOL    HW1  663  14.329  12.128   3.608
99608SOL    HW2  664  14.234  12.196   3.512
99609SOL     OW  665   9.146   9.905   7.272
99609SOL    HW1  666   9.193   9.935   7.350
99609SOL    HW2  667   9.211   9.857   7.222
99610SOL     OW  668   9.154  11.851   3.948
99610SOL    HW1  669   9.128  11.919   4.011
99610SOL    HW2  670   9.191  11.781   4.002
99611SOL     OW  671  11.647   4.452   5.267
99611SOL    HW1  672  11.686   4.455   5.179
99611SOL    HW2  673  11.709   4.401   5.319
99612SOL     OW  674   7.915  12.668  13.111
99612SOL    HW1  675   7.902  12.693  13.020
99612SOL    HW2  676   7.977  12.595  13.107
99613SOL     OW  677   4.039   4.303   7.938
99613SOL    HW1  678   4.125   4.304   7.982
99613SOL    HW2  679   4.044   4.375   7.875
99614SOL     OW  680   8.228   6.412   7.093
99614SOL    HW1  681   8.177   6.414   7.174
99614SOL    HW2  682   8.316   6.439   7.120
99615SOL     OW  683   9.206   5.099   9.954
99615SOL    HW1  684   9.291   5.060   9.975
99615SOL    HW2  685   9.157   5.027   9.913
99616SOL     OW  686   0.534  13.327  11.185
99616SOL    HW1  687   0.595  13.255  11.200
99616SOL    HW2  688   0.582  13.387  11.128
99617SOL     OW  689  10.325   9.681  12.203
99617SOL    HW1  690  10.417   9.688  12.179
99617SOL    HW2  691  10.323   9.622  12.279
99618SOL     OW  692   3.723   9.589   7.137
99618SOL    HW1  693   3.774   9.525   7.087
99618SOL    HW2  694   3.726   9.668   7.083
99619SOL     OW  695   6.482   4.201   9.032
99619SOL    HW1  696   6.508   4.184   8.942
99619SOL    HW2  697   6.472   4.114   9.071
99620SOL     OW  698   9.581   4.470  12.182
99620SOL    HW1  699   9.594   4.497  12.273
99620SOL    HW2  700   9.486   4.462  12.172
99621SOL     OW  701  10.368   9.474   6.997
99621SOL    HW1  702  10.356   9.515   7.083
99621SOL    HW2  703  10.462   9.465   6.988
99622SOL     OW  704   9.192  11.503   3.858
99622SOL    HW1  705   9.283  11.485   3.835
99622SOL    HW2  706   9.196  11.536   3.948
99623SOL     OW  707   6.682   1.937   4.262
99623SOL    HW1  708   6.764   1.909   4.220
99623SOL    HW2  709   6.631   1.977   4.192
99624SOL     OW  710  10.973  12.620  10.243
99624SOL    HW1  711  11.067  12.608  10.255
99624SOL    HW2  712  10.942  12.657  10.326
99625SOL     OW  713   5.010   4.107   8.765
99625SOL    HW1  714   4.978   4.192   8.735
99625SOL    HW2  715   4.941   4.045   8.741
99626SOL     OW  716   6.710  12.857   2.647
99626SOL    HW1  717   6.646  12.913   2.690
99626SOL    HW2  718   6.795  12.897   2.668
99627SOL     OW  719   9.635  13.959   5.786
99627SOL    HW1  720   9.639  13.919   5.699
99627SOL    HW2  721   9.701  13.911   5.837
99628SOL     OW  722  12.978   4.195   0.720
99628SOL    HW1  723  12.892   4.174   0.755
99628SOL    HW2  724  12.966   4.201   0.626
99629SOL     OW  725   4.462   9.193  13.413
99629SOL    HW1  726   4.528   9.123  13.412
99629SOL    HW2  727   4.454   9.215  13.506
99630SOL     OW  728   8.520  10.370   0.232
99630SOL    HW1  729   8.595  10.386   0.289
99630SOL    HW2  730   8.546  10.404   0.146
99631SOL     OW  731  14.788   4.183   9.883
99631SOL    HW1  732  14.735   4.262   9.878
99631SOL    HW2  733  14.862   4.207   9.938
99632SOL     OW  734   1.976   3.253   0.514
99632SOL    HW1  735   1.902   3.288   0.563
99632SOL    HW2  736   2.049   3.256   0.576
99633SOL     OW  737   0.637   4.838   1.410
99633SOL    HW1  738   0.574   4.802   1.473
99633SOL    HW2  739   0.718   4.791   1.429
99634SOL     OW  740   1.417   8.799  13.131
99634SOL    HW1  741   1.402   8.794  13.037
99634SOL    HW2  742   1.391   8.888  13.155
99635SOL     OW  743   6.972   2.169   1.098
99635SOL    HW1  744   6.980   2.264   1.110
99635SOL    HW2  745   6.879   2.156   1.079
99636SOL     OW  746   3.077  10.608   7.039
99636SOL    HW1  747   3.074  10.669   6.966
99636SOL    HW2  748   3.117  10.529   7.003
99637SOL     OW  749  13.782   0.870  14.583
99637SOL    HW1  750  13.743   0.894  14.667
99637SOL    HW2  751  13.751   0.938  14.522
99638SOL     OW  752   0.452   9.771  12.300
99638SOL    HW1  753   0.397   9.842  12.334
99638SOL    HW2  754   0.396   9.726  12.236
99639SOL     OW  755  13.693  13.310  13.467
99639SOL    HW1  756  13.777  13.275  13.498
99639SOL    HW2  757  13.632  13.292  13.539
99640SOL     OW  758   9.832   6.138   2.663
99640SOL    HW1  759   9.838   6.108   2.572
99640SOL    HW2  760   9.909   6.100   2.705
99641SOL     OW  761   6.471   3.443  14.534
99641SOL    HW1  762   6.387   3.438  14.581
99641SOL    HW2  763   6.449   3.428  14.442
99642SOL     OW  764   3.560   1.830  13.937
99642SOL    HW1  765   3.514   1.812  14.019
99642SOL    HW2  766   3.556   1.925  13.927
99643SOL     OW  767  10.342  13.793   6.108
99643SOL    HW1  768  10.360  13.813   6.200
99643SOL    HW2  769  10.289  13.866   6.077
99644SOL     OW  770  10.973   6.253   5.264
99644SOL    HW1  771  11.063   6.233   5.287
99644SOL    HW2  772  10.922   6.225   5.340
99645SOL     OW  773  10.290   3.758   4.500
99645SOL    HW1  774  10.295   3.841   4.547
99645SOL    HW2  775  10.284   3.782   4.408
99646SOL     OW  776   4.336   0.902   6.672
99646SOL    HW1  777   4.403   0.959   6.711
99646SOL    HW2  778   4.365   0.814   6.694
99647SOL     OW  779  11.562   3.619  14.645
99647SOL    HW1  780  11.610   3.661  14.573
99647SOL    HW2  781  11.484   3.582  14.604
99648SOL     OW  782   2.035   2.305  14.424
99648SOL    HW1  783   2.072   2.217  14.430
99648SOL    HW2  784   1.966   2.297  14.358
99649SOL     OW  785  10.796   3.878   9.608
99649SOL    HW1  786  10.774   3.799   9.559
99649SOL    HW2  787  10.744   3.947   9.567
99650SOL     OW  788   7.924   8.960  11.508
99650SOL    HW1  789   8.001   8.997  11.465
99650SOL    HW2  790   7.856   8.963  11.442
99651SOL     OW  791  12.208  14.029   5.492
99651SOL    HW1  792  12.171  14.052   5.578
99651SOL    HW2  793  12.142  14.057   5.429
99652SOL     OW  794   9.525  13.866   7.127
99652SOL    HW1  795   9.574  13.945   7.149
99652SOL    HW2  796   9.460  13.857   7.196
99653SOL     OW  797   0.827   3.739  10.320
99653SOL    HW1  798   0.881   3.792  10.377
99653SOL    HW2  799   0.872   3.654  10.315
99654SOL     OW  800  13.548   6.341  11.316
99654SOL    HW1  801  13.600   6.352  11.236
99654SOL    HW2  802  13.524   6.430  11.340
99655SOL     OW  803   5.766   7.095  13.361
99655SOL    HW1  804   5.750   7.155  13.434
99655SOL    HW2  805   5.787   7.011  13.403
99656SOL     OW  806   5.719  12.503   0.062
99656SOL    HW1  807   5.800  12.510   0.011
99656SOL    HW2  808   5.711  12.409   0.081
99657SOL     OW  809   4.791   9.398   7.549
99657SOL    HW1  810   4.703   9.406   7.586
99657SOL    HW2  811   4.845   9.367   7.621
99658SOL     OW  812   4.821   4.010   6.130
99658SOL    HW1  813   4.895   4.021   6.190
99658SOL    HW2  814   4.750   3.977   6.185
99659SOL     OW  815   6.625   3.125   2.972
99659SOL    HW1  816   6.684   3.158   3.040
99659SOL    HW2  817   6.672   3.140   2.890
99660SOL     OW  818   5.551   5.563  10.954
99660SOL    HW1  819   5.606   5.589  11.027
99660SOL    HW2  820   5.473   5.618  10.963
99661SOL     OW  821   6.725  14.661   6.830
99661SOL    HW1  822   6.751  14.591   6.770
99661SOL    HW2  823   6.806  14.703   6.856
99662SOL     OW  824  10.071  12.827   3.826
99662SOL    HW1  825  10.110  12.907   3.860
99662SOL    HW2  826  10.064  12.841   3.731
99663SOL     OW  827   4.117   5.532   5.941
99663SOL    HW1  828   4.145   5.452   5.897
99663SOL    HW2  829   4.193   5.589   5.938
99664SOL     OW  830   5.134   2.901   4.132
99664SOL    HW1  831   5.162   2.952   4.208
99664SOL    HW2  832   5.044   2.928   4.117
99665SOL     OW  833  13.901  12.738   5.781
99665SOL    HW1  834  13.867  12.706   5.698
99665SOL    HW2  835  13.996  12.724   5.775
99666SOL     OW  836   2.452  13.764  11.870
99666SOL    HW1  837   2.426  13.676  11.895
99666SOL    HW2  838   2.474  13.807  11.952
99667SOL     OW  839   9.197   0.660  14.751
99667SOL    HW1  840   9.214   0.715  14.828
99667SOL    HW2  841   9.258   0.692  14.685
99668SOL     OW  842  13.773   9.993  14.497
99668SOL    HW1  843  13.853   9.994  14.550
99668SOL    HW2  844  13.709   9.950  14.554
99669SOL     OW  845   3.634   3.684  13.039
99669SOL    HW1  846   3.645   3.762  13.093
99669SOL    HW2  847   3.552   3.699  12.992
99670SOL     OW  848   8.575   1.098  13.305
99670SOL    HW1  849   8.563   1.178  13.253
99670SOL    HW2  850   8.559   1.027  13.244
99671SOL     OW  851   0.300  11.336   8.421
99671SOL    HW1  852   0.298  11.297   8.334
99671SOL    HW2  853   0.300  11.262   8.481
99672SOL     OW  854  10.928   9.786   2.616
99672SOL    HW1  855  11.023   9.790   2.615
99672SOL    HW2  856  10.899   9.875   2.596
99673SOL     OW  857   6.539   7.073   4.971
99673SOL    HW1  858   6.524   7.056   5.065
99673SOL    HW2  859   6.597   7.002   4.944
99674SOL     OW  860  12.134   7.887  10.048
99674SOL    HW1  861  12.199   7.951  10.019
99674SOL    HW2  862  12.054   7.937  10.061
99675SOL     OW  863   1.921  13.757  10.777
99675SOL    HW1  864   1.930  13.665  10.752
99675SOL    HW2  865   1.924  13.804  10.694
99676SOL     OW  866  12.920   6.660  11.554
99676SOL    HW1  867  12.937   6.645  11.461
99676SOL    HW2  868  12.931   6.574  11.595
99677SOL     OW  869   6.737   6.548  11.119
99677SOL    HW1  870   6.818   6.499  11.133
99677SOL    HW2  871   6.766   6.635  11.091
99678SOL     OW  872  13.408  11.929   3.080
99678SOL    HW1  873  13.364  11.848   3.106
99678SOL    HW2  874  13.501  11.912   3.095
99679SOL     OW  875   7.714   4.342   4.517
99679SOL    HW1  876   7.679   4.264   4.560
99679SOL    HW2  877   7.643   4.406   4.522
99680SOL     OW  878  13.759   4.354  11.927
99680SOL    HW1  879  13.819   4.404  11.983
99680SOL    HW2  880  13.754   4.268  11.969
99681SOL     OW  881   8.541   8.627   4.520
99681SOL    HW1  882   8.565   8.719   4.534
99681SOL    HW2  883   8.460   8.616   4.570
99682SOL     OW  884  10.375  12.446  10.951
99682SOL    HW1  885  10.378  12.444  10.855
99682SOL    HW2  886  10.464  12.470  10.978
99683SOL     OW  887  14.829   4.809  14.097
99683SOL    HW1  888  14.847   4.846  14.011
99683SOL    HW2  889  14.761   4.865  14.134
99684SOL     OW  890  12.189  13.322  10.096
99684SOL    HW1  891  12.112  13.352  10.048
99684SOL    HW2  892  12.230  13.402  10.128
99685SOL     OW  893   4.687   0.106  13.868
99685SOL    HW1  894   4.644   0.132  13.786
99685SOL    HW2  895   4.709   0.189  13.910
99686SOL     OW  896   0.403   6.314   0.312
99686SOL    HW1  897   0.449   6.331   0.230
99686SOL    HW2  898   0.314   6.291   0.285
99687SOL     OW  899  11.888   9.383   0.815
99687SOL    HW1  900  11.917   9.445   0.882
99687SOL    HW2  901  11.840   9.316   0.862
99688SOL     OW  902   2.117   9.422   4.159
99688SOL    HW1  903   2.179   9.373   4.105
99688SOL    HW2  904   2.137   9.514   4.141
99689SOL     OW  905   4.718   0.627   5.435
99689SOL    HW1  906   4.684   0.537   5.429
99689SOL    HW2  907   4.800   0.618   5.482
99690SOL     OW  908   0.209   7.132   4.390
99690SOL    HW1  909   0.178   7.122   4.480
99690SOL    HW2  910   0.137   7.099   4.336
99691SOL     OW  911   5.417  11.407   3.737
99691SOL    HW1  912   5.436  11.500   3.726
99691SOL    HW2  913   5.491  11.362   3.696
99692SOL     OW  914   8.041   8.303  12.983
99692SOL    HW1  915   8.001   8.383  12.948
99692SOL    HW2  916   8.021   8.306  13.077
99693SOL     OW  917   7.464  14.132   8.493
99693SOL    HW1  918   7.456  14.227   8.489
99693SOL    HW2  919   7.434  14.102   8.407
99694SOL     OW  920   6.496   4.115  12.784
99694SOL    HW1  921   6.530   4.198  12.752
99694SOL    HW2  922   6.472   4.066  12.705
99695SOL     OW  923  10.925  12.417   6.516
99695SOL    HW1  924  10.946  12.336   6.562
99695SOL    HW2  925  10.864  12.391   6.448
99696SOL     OW  926   6.439   3.008   2.674
99696SOL    HW1  927   6.438   3.071   2.747
99696SOL    HW2  928   6.486   2.932   2.708
99697SOL     OW  929   7.494   2.191   0.049
99697SOL    HW1  930   7.523   2.198   0.139
99697SOL    HW2  931   7.398   2.185   0.055
99698SOL     OW  932   2.172   4.766   7.138
99698SOL    HW1  933   2.111   4.805   7.200
99698SOL    HW2  934   2.258   4.799   7.165
99699SOL     OW  935   7.800  10.669   2.267
99699SOL    HW1  936   7.862  10.692   2.336
99699SOL    HW2  937   7.755  10.750   2.246
99700SOL     OW  938   6.186   7.526  12.078
99700SOL    HW1  939   6.261   7.510  12.136
99700SOL    HW2  940   6.152   7.611  12.106
99701SOL     OW  941   6.814  11.620   3.931
99701SOL    HW1  942   6.847  11.630   3.842
99701SOL    HW2  943   6.888  11.643   3.987
99702SOL     OW  944   7.836   7.913   9.441
99702SOL    HW1  945   7.801   7.921   9.352
99702SOL    HW2  946   7.862   7.821   9.448
99703SOL     OW  947   1.723  12.505   1.346
99703SOL    HW1  948   1.734  12.486   1.439
99703SOL    HW2  949   1.812  12.517   1.313
99704SOL     OW  950   8.882   0.678   8.399
99704SOL    HW1  951   8.937   0.625   8.341
99704SOL    HW2  952   8.931   0.761   8.408
99705SOL     OW  953   9.770   4.363   3.733
99705SOL    HW1  954   9.688   4.410   3.748
99705SOL    HW2  955   9.742   4.275   3.706
99706SOL     OW  956   7.807   6.659   4.825
99706SOL    HW1  957   7.757   6.740   4.841
99706SOL    HW2  958   7.790   6.605   4.902
99707SOL     OW  959   4.879  13.449   8.675
99707SOL    HW1  960   4.894  13.376   8.734
99707SOL    HW2  961   4.919  13.422   8.592
99708SOL     OW  962   1.657   6.734  11.195
99708SOL    HW1  963   1.620   6.805  11.141
99708SOL    HW2  964   1.747   6.761  11.213
99709SOL     OW  965   4.648   8.277   5.554
99709SOL    HW1  966   4.704   8.277   5.632
99709SOL    HW2  967   4.603   8.361   5.556
99710SOL     OW  968  14.051   3.298   2.368
99710SOL    HW1  969  14.055   3.363   2.438
99710SOL    HW2  970  14.051   3.348   2.287
99711SOL     OW  971   3.336  10.525  10.049
99711SOL    HW1  972   3.258  10.537  10.104
99711SOL    HW2  973   3.307  10.467   9.978
99712SOL     OW  974   1.521   2.544  11.141
99712SOL    HW1  975   1.616   2.547  11.136
99712SOL    HW2  976   1.501   2.453  11.165
99713SOL     OW  977   3.044  13.313   9.272
99713SOL    HW1  978   3.056  13.405   9.249
99713SOL    HW2  979   2.951  13.296   9.259
99714SOL     OW  980   5.990   4.998  13.259
99714SOL    HW1  981   6.074   5.035  13.231
99714SOL    HW2  982   5.938   5.074  13.285
99715SOL     OW  983  14.805   3.354   8.034
99715SOL    HW1  984  14.750   3.279   8.015
99715SOL    HW2  985   0.004   3.349   7.972
99716SOL     OW  986   1.148  11.025   5.536
99716SOL    HW1  987   1.223  11.053   5.483
99716SOL    HW2  988   1.175  11.042   5.626
99717SOL     OW  989   0.802   1.281   5.299
99717SOL    HW1  990   0.721   1.237   5.274
99717SOL    HW2  991   0.813   1.350   5.234
99718SOL     OW  992  13.513  11.688  10.876
99718SOL    HW1  993  13.593  11.737  10.893
99718SOL    HW2  994  13.455  11.711  10.949
99719SOL     OW  995   6.103  13.971   4.590
99719SOL    HW1  996   6.093  14.058   4.627
99719SOL    HW2  997   6.015  13.933   4.592
99720SOL     OW  998  12.659   2.619   0.662
99720SOL    HW1  999  12.580   2.657   0.700
99720SOL    HW2 1000  12.628   2.578   0.581
99721SOL     OW 1001   0.753   4.059   0.234
99721SOL    HW1 1002   0.767   4.082   0.326
99721SOL    HW2 1003   0.679   3.999   0.236
99722SOL     OW 1004   1.897   3.930  10.796
99722SOL    HW1 1005   1.817   3.940  10.848
99722SOL    HW2 1006   1.967   3.924  10.861
99723SOL     OW 1007   5.436   2.264   1.821
99723SOL    HW1 1008   5.421   2.173   1.848
99723SOL    HW2 1009   5.524   2.284   1.853
99724SOL     OW 1010   8.586   7.257  10.220
99724SOL    HW1 1011   8.545   7.273  10.305
99724SOL    HW2 1012   8.518   7.214  10.168
99725SOL     OW 1013   5.213   5.761   0.184
99725SOL    HW1 1014   5.118   5.747   0.175
99725SOL    HW2 1015   5.221   5.828   0.252
99726SOL     OW 1016   6.745  10.537   3.372
99726SOL    HW1 1017   6.784  10.454   3.344
99726SOL    HW2 1018   6.779  10.601   3.309
99727SOL     OW 1019  13.985   3.822   5.465
99727SOL    HW1 1020  14.059   3.776   5.426
99727SOL    HW2 1021  13.997   3.914   5.441
99728SOL     OW 1022   1.259   7.847   3.636
99728SOL    HW1 1023   1.190   7.914   3.642
99728SOL    HW2 1024   1.306   7.854   3.719
99729SOL     OW 1025  11.300   5.405   0.446
99729SOL    HW1 1026  11.208   5.420   0.425
99729SOL    HW2 1027  11.348   5.472   0.398
99730SOL     OW 1028   3.258  11.484  14.408
99730SOL    HW1 1029   3.191  11.551  14.416
99730SOL    HW2 1030   3.330  11.527  14.363
99731SOL     OW 1031   7.679   1.743   3.231
99731SOL    HW1 1032   7.691   1.652   3.261
99731SOL    HW2 1033   7.611   1.778   3.288
99732SOL     OW 1034   1.390   5.221  13.589
99732SOL    HW1 1035   1.435   5.256  13.665
99732SOL    HW2 1036   1.337   5.149  13.623
99733SOL     OW 1037  13.362  10.762   1.365
99733SOL    HW1 1038  13.365  10.678   1.319
99733SOL    HW2 1039  13.445  10.804   1.344
99734SOL     OW 1040   2.488  14.356   4.578
99734SOL    HW1 1041   2.453  14.394   4.497
99734SOL    HW2 1042   2.410  14.331   4.628
99735SOL     OW 1043   6.438   0.923  10.982
99735SOL    HW1 1044   6.482   0.845  11.015
99735SOL    HW2 1045   6.345   0.901  10.987
99736SOL     OW 1046   7.419   9.223   0.128
99736SOL    HW1 1047   7.405   9.316   0.109
99736SOL    HW2 1048   7.514   9.212   0.124
99737SOL     OW 1049  12.135   0.539   1.999
99737SOL    HW1 1050  12.147   0.623   1.955
99737SOL    HW2 1051  12.040   0.525   1.998
99738SOL     OW 1052  11.932  12.137   6.033
99738SOL    HW1 1053  12.005  12.187   5.997
99738SOL    HW2 1054  11.935  12.053   5.986
99739SOL     OW 1055   8.034   1.132  14.004
99739SOL    HW1 1056   7.948   1.173  13.998
99739SOL    HW2 1057   8.026   1.069  14.075
99740SOL     OW 1058   2.181   2.203   0.882
99740SOL    HW1 1059   2.153   2.127   0.830
99740SOL    HW2 1060   2.203   2.167   0.968
99741SOL     OW 1061   2.865   4.489  10.171
99741SOL    HW1 1062   2.908   4.468  10.089
99741SOL    HW2 1063   2.855   4.405  10.216
99742SOL     OW 1064   4.711  13.036   7.165
99742SOL    HW1 1065   4.736  13.126   7.143
99742SOL    HW2 1066   4.746  12.984   7.093
99743SOL     OW 1067   7.021   4.607  10.448
99743SOL    HW1 1068   6.938   4.632  10.406
99743SOL    HW2 1069   7.071   4.564  10.378
99744SOL     OW 1070   6.719   2.012   5.743
99744SOL    HW1 1071   6.786   1.993   5.677
99744SOL    HW2 1072   6.668   2.084   5.706
99745SOL     OW 1073  11.907   8.016   5.613
99745SOL    HW1 1074  11.994   8.041   5.583
99745SOL    HW2 1075  11.921   7.936   5.663
99746SOL     OW 1076   7.752   6.847  11.103
99746SOL    HW1 1077   7.697   6.907  11.054
99746SOL    HW2 1078   7.833   6.841  11.053
99747SOL     OW 1079   6.643  12.383   7.202
99747SOL    HW1 1080   6.703  12.327   7.152
99747SOL    HW2 1081   6.586  12.322   7.249
99748SOL     OW 1082  13.382  14.479  13.319
99748SOL    HW1 1083  13.292  14.477  13.286
99748SOL    HW2 1084  13.427  14.542  13.262
99749SOL     OW 1085  12.708   2.841   8.071
99749SOL    HW1 1086  12.646   2.877   8.134
99749SOL    HW2 1087  12.763   2.782   8.122
99750SOL     OW 1088   5.467   3.610  14.423
99750SOL    HW1 1089   5.501   3.647  14.341
99750SOL    HW2 1090   5.513   3.527  14.432
99751SOL     OW 1091   0.714  11.092  13.586
99751SOL    HW1 1092   0.688  11.005  13.617
99751SOL    HW2 1093   0.771  11.126  13.655
99752SOL     OW 1094   9.760   0.325   2.743
99752SOL    HW1 1095   9.809   0.385   2.799
99752SOL    HW2 1096   9.669   0.334   2.772
99753SOL     OW 1097   4.885   2.254  13.190
99753SOL    HW1 1098   4.807   2.297  13.154
99753SOL    HW2 1099   4.923   2.207  13.116
99754SOL     OW 1100   8.727   7.419  13.947
99754SOL    HW1 1101   8.818   7.397  13.969
99754SOL    HW2 1102   8.732   7.505  13.905
99755SOL     OW 1103  11.393   4.898  14.716
99755SOL    HW1 1104  11.311   4.940  14.690
99755SOL    HW2 1105  11.440   4.883  14.633
99756SOL     OW 1106   2.862   5.671   9.940
99756SOL    HW1 1107   2.907   5.603   9.990
99756SOL    HW2 1108   2.786   5.694   9.993
99757SOL     OW 1109  10.647  14.573   1.793
99757SOL    HW1 1110  10.593  14.653   1.790
99757SOL    HW2 1111  10.682  14.565   1.705
99758SOL     OW 1112  13.494  12.878   1.855
99758SOL    HW1 1113  13.449  12.799   1.885
99758SOL    HW2 1114  13.440  12.950   1.885
99759SOL     OW 1115  13.648  11.297   8.334
99759SOL    HW1 1116  13.683  11.262   8.252
99759SOL    HW2 1117  13.603  11.377   8.308
99760SOL     OW 1118  11.173  13.339   5.709
99760SOL    HW1 1119  11.245  13.323   5.648
99760SOL    HW2 1120  11.150  13.431   5.696
99761SOL     OW 1121  10.995   2.767   8.680
99761SOL    HW1 1122  10.915   2.762   8.628
99761SOL    HW2 1123  10.979   2.709   8.754
99762SOL     OW 1124   0.469  14.218  13.723
99762SOL    HW1 1125   0.407  14.290  13.713
99762SOL    HW2 1126   0.549  14.259  13.756
99763SOL     OW 1127   5.353   1.694   0.721
99763SOL    HW1 1128   5.341   1.711   0.628
99763SOL    HW2 1129   5.328   1.602   0.732
99764SOL     OW 1130  12.229   6.351  10.047
99764SOL    HW1 1131  12.242   6.258  10.063
99764SOL    HW2 1132  12.225   6.390  10.135
99765SOL     OW 1133  14.800   3.140  13.491
99765SOL    HW1 1134  14.726   3.134  13.431
99765SOL    HW2 1135   0.000   3.105  13.442
99766SOL     OW 1136  13.240   1.786   7.893
99766SOL    HW1 1137  13.249   1.701   7.852
99766SOL    HW2 1138  13.201   1.767   7.979
99767SOL     OW 1139   9.190   8.552  12.509
99767SOL    HW1 1140   9.157   8.464  12.488
99767SOL    HW2 1141   9.252   8.571  12.439
99768SOL     OW 1142   2.523   2.989  12.883
99768SOL    HW1 1143   2.433   2.954  12.882
99768SOL    HW2 1144   2.515   3.075  12.923
99769SOL     OW 1145  10.974  13.126   6.091
99769SOL    HW1 1146  11.058  13.089   6.116
99769SOL    HW2 1147  10.909  13.068   6.131
99770SOL     OW 1148  10.350  14.685   0.934
99770SOL    HW1 1149  10.264  14.718   0.958
99770SOL    HW2 1150  10.396  14.677   1.018
99771SOL     OW 1151   1.266  14.328  10.219
99771SOL    HW1 1152   1.210  14.346  10.143
99771SOL    HW2 1153   1.273  14.413  10.263
99772SOL     OW 1154   8.957  13.104   7.290
99772SOL    HW1 1155   8.943  13.038   7.221
99772SOL    HW2 1156   8.947  13.056   7.372
99773SOL     OW 1157   3.599  12.071   4.175
99773SOL    HW1 1158   3.635  12.076   4.264
99773SOL    HW2 1159   3.519  12.122   4.179
99774SOL     OW 1160  14.314   8.108   5.931
99774SOL    HW1 1161  14.257   8.181   5.905
99774SOL    HW2 1162  14.334   8.125   6.023
99775SOL     OW 1163  13.987   2.079  11.807
99775SOL    HW1 1164  13.896   2.069  11.777
99775SOL    HW2 1165  14.007   2.172  11.792
99776SOL     OW 1166  12.764   5.351   6.602
99776SOL    HW1 1167  12.810   5.282   6.553
99776SOL    HW2 1168  12.674   5.320   6.608
99777SOL     OW 1169   2.887   5.150  14.424
99777SOL    HW1 1170   2.874   5.137  14.331
99777SOL    HW2 1171   2.956   5.088  14.448
99778SOL     OW 1172  14.000   7.419   5.795
99778SOL    HW1 1173  14.017   7.399   5.888
99778SOL    HW2 1174  14.032   7.508   5.783
99779SOL     OW 1175   8.863   7.343   0.928
99779SOL    HW1 1176   8.953   7.331   0.961
99779SOL    HW2 1177   8.825   7.408   0.986
99780SOL     OW 1178   3.332   0.014   2.223
99780SOL    HW1 1179   3.316  14.823   2.291
99780SOL    HW2 1180   3.423   0.041   2.237
99781SOL     OW 1181   3.279  13.038  14.584
99781SOL    HW1 1182   3.192  12.999  14.593
99781SOL    HW2 1183   3.320  12.989  14.512
99782SOL     OW 1184  10.143  10.954   9.233
99782SOL    HW1 1185  10.208  10.954   9.163
99782SOL    HW2 1186  10.060  10.969   9.189
99783SOL     OW 1187  10.980   6.452   2.710
99783SOL    HW1 1188  10.993   6.368   2.668
99783SOL    HW2 1189  10.996   6.517   2.641
99784SOL     OW 1190  12.626  11.840  11.225
99784SOL    HW1 1191  12.663  11.923  11.255
99784SOL    HW2 1192  12.533  11.858  11.212
99785SOL     OW 1193   1.925   2.497   1.166
99785SOL    HW1 1194   1.852   2.438   1.187
99785SOL    HW2 1195   1.966   2.458   1.089
99786SOL     OW 1196   6.147   6.669   3.365
99786SOL    HW1 1197   6.154   6.579   3.395
99786SOL    HW2 1198   6.062   6.699   3.398
99787SOL     OW 1199  10.923  12.230   0.495
99787SOL    HW1 1200  10.921  12.310   0.547
99787SOL    HW2 1201  11.001  12.184   0.525
99788SOL     OW 1202   4.763   3.560   9.012
99788SOL    HW1 1203   4.738   3.620   8.942
99788SOL    HW2 1204   4.851   3.587   9.037
99789SOL     OW 1205   0.247   8.013   8.469
99789SOL    HW1 1206   0.288   7.951   8.530
99789SOL    HW2 1207   0.320   8.055   8.424
99790SOL     OW 1208   1.501   1.998  10.348
99790SOL    HW1 1209   1.509   2.039  10.262
99790SOL    HW2 1210   1.408   1.980  10.358
99791SOL     OW 1211   3.234  10.811   9.333
99791SOL    HW1 1212   3.169  10.741   9.333
99791SOL    HW2 1213   3.314  10.769   9.300
99792SOL     OW 1214  10.256  13.499   9.976
99792SOL    HW1 1215  10.215  13.452   9.903
99792SOL    HW2 1216  10.308  13.432  10.020
99793SOL     OW 1217  12.101   9.888  12.328
99793SOL    HW1 1218  12.175   9.914  12.274
99793SOL    HW2 1219  12.122   9.918  12.416
99794SOL     OW 1220  12.144   0.730   9.242
99794SOL    HW1 1221  12.107   0.818   9.233
99794SOL    HW2 1222  12.139   0.692   9.154
99795SOL     OW 1223   0.506  12.562   9.108
99795SOL    HW1 1224   0.598  12.566   9.133
99795SOL    HW2 1225   0.494  12.636   9.049
99796SOL     OW 1226  11.387  14.866   5.192
99796SOL    HW1 1227  11.307   0.001   5.244
99796SOL    HW2 1228  11.360  14.812   5.118
99797SOL     OW 1229   1.700   5.644  10.080
99797SOL    HW1 1230   1.707   5.563  10.130
99797SOL    HW2 1231   1.638   5.697  10.130
99798SOL     OW 1232  11.107   5.400   7.101
99798SOL    HW1 1233  11.139   5.422   7.189
99798SOL    HW2 1234  11.065   5.480   7.069
99799SOL     OW 1235   7.546   1.430  12.006
99799SOL    HW1 1236   7.553   1.506  12.063
99799SOL    HW2 1237   7.555   1.355  12.066
99800SOL     OW 1238   1.888   4.751   3.029
99800SOL    HW1 1239   1.978   4.758   3.060
99800SOL    HW2 1240   1.876   4.658   3.010
99801SOL     OW 1241   0.793   9.808  10.443
99801SOL    HW1 1242   0.818   9.822  10.535
99801SOL    HW2 1243   0.872   9.826  10.393
99802SOL     OW 1244  10.273   6.445   2.833
99802SOL    HW1 1245  10.220   6.419   2.758
99802SOL    HW2 1246  10.276   6.541   2.827
99803SOL     OW 1247   9.142   8.278   8.023
99803SOL    HW1 1248   9.215   8.246   7.971
99803SOL    HW2 1249   9.076   8.305   7.959
99804SOL     OW 1250   1.087   8.435   0.406
99804SOL    HW1 1251   1.108   8.382   0.483
99804SOL    HW2 1252   1.168   8.485   0.389
99805SOL     OW 1253  13.046  10.053   7.263
99805SOL    HW1 1254  13.069   9.977   7.316
99805SOL    HW2 1255  13.017  10.016   7.179
99806SOL     OW 1256   2.095   6.503   1.652
99806SOL    HW1 1257   2.052   6.419   1.636
99806SOL    HW2 1258   2.024   6.567   1.654
99807SOL     OW 1259   6.078  10.671   4.414
99807SOL    HW1 1260   6.042  10.756   4.438
99807SOL    HW2 1261   6.168  10.689   4.389
99808SOL     OW 1262   0.078   8.338  13.501
99808SOL    HW1 1263   0.128   8.356  13.422
99808SOL    HW2 1264   0.112   8.399  13.566
99809SOL     OW 1265   6.026  13.850   7.002
99809SOL    HW1 1266   5.965  13.788   6.962
99809SOL    HW2 1267   6.051  13.808   7.085
99810SOL     OW 1268   2.152   6.740   3.045
99810SOL    HW1 1269   2.117   6.806   2.985
99810SOL    HW2 1270   2.128   6.657   3.005
99811SOL     OW 1271  10.455   5.756   5.628
99811SOL    HW1 1272  10.438   5.777   5.537
99811SOL    HW2 1273  10.378   5.790   5.675
99812SOL     OW 1274  10.084   0.340  12.037
99812SOL    HW1 1275  10.122   0.253  12.029
99812SOL    HW2 1276  10.118   0.373  12.120
99813SOL     OW 1277   6.536  14.125   8.249
99813SOL    HW1 1278   6.572  14.043   8.215
99813SOL    HW2 1279   6.473  14.098   8.315
99814SOL     OW 1280  14.703  13.599   7.568
99814SOL    HW1 1281  14.730  13.550   7.646
99814SOL    HW2 1282  14.724  13.690   7.589
99815SOL     OW 1283   5.836   4.617   6.315
99815SOL    HW1 1284   5.813   4.618   6.222
99815SOL    HW2 1285   5.802   4.534   6.347
99816SOL     OW 1286   0.963   6.709   1.157
99816SOL    HW1 1287   1.047   6.737   1.121
99816SOL    HW2 1288   0.917   6.671   1.082
99817SOL     OW 1289   8.876   5.866   4.113
99817SOL    HW1 1290   8.917   5.845   4.030
99817SOL    HW2 1291   8.930   5.936   4.150
99818SOL     OW 1292   5.650   8.973   9.334
99818SOL    HW1 1293   5.628   8.905   9.398
99818SOL    HW2 1294   5.580   9.037   9.342
99819SOL     OW 1295   0.120   4.582   1.260
99819SOL    HW1 1296   0.164   4.602   1.177
99819SOL    HW2 1297   0.090   4.492   1.249
99820SOL     OW 1298  10.340  14.758   6.564
99820SOL    HW1 1299  10.271  14.824   6.560
99820SOL    HW2 1300  10.383  14.764   6.478
99821SOL     OW 1301   5.158   2.599   8.186
99821SOL    HW1 1302   5.220   2.605   8.113
99821SOL    HW2 1303   5.072   2.596   8.144
99822SOL     OW 1304   4.688   0.525  13.750
99822SOL    HW1 1305   4.739   0.606  13.748
99822SOL    HW2 1306   4.708   0.483  13.666
99823SOL     OW 1307  10.528   9.287   4.462
99823SOL    HW1 1308  10.529   9.368   4.513
99823SOL    HW2 1309  10.535   9.217   4.527
99824SOL     OW 1310  13.799  10.472  11.901
99824SOL    HW1 1311  13.763  10.477  11.990
99824SOL    HW2 1312  13.893  10.467  11.914
99825SOL     OW 1313   0.915   0.937   2.169
99825SOL    HW1 1314   0.911   0.843   2.187
99825SOL    HW2 1315   0.827   0.959   2.138
99826SOL     OW 1316   0.402   8.009  13.218
99826SOL    HW1 1317   0.319   7.962  13.208
99826SOL    HW2 1318   0.468   7.947  13.188
99827SOL     OW 1319  10.451  10.277  14.165
99827SOL    HW1 1320  10.469  10.263  14.072
99827SOL    HW2 1321  10.538  10.277  14.206
99828SOL     OW 1322  10.128   9.824   3.856
99828SOL    HW1 1323  10.153   9.805   3.947
99828SOL    HW2 1324  10.198   9.784   3.803
99829SOL     OW 1325   2.566  14.587  11.713
99829SOL    HW1 1326   2.499  14.555  11.653
99829SOL    HW2 1327   2.611  14.656  11.664
99830SOL     OW 1328   5.766   2.762   9.064
99830SOL    HW1 1329   5.689   2.803   9.104
99830SOL    HW2 1330   5.833   2.831   9.067
99831SOL     OW 1331   4.365   3.090  10.218
99831SOL    HW1 1332   4.356   3.161  10.282
99831SOL    HW2 1333   4.409   3.129  10.143
99832SOL     OW 1334   9.979  13.552   9.684
99832SOL    HW1 1335  10.021  13.481   9.732
99832SOL    HW2 1336   9.964  13.517   9.597
99833SOL     OW 1337  11.242   0.415  12.323
99833SOL    HW1 1338  11.313   0.413  12.259
99833SOL    HW2 1339  11.228   0.507  12.341
99834SOL     OW 1340   3.823   5.992   2.258
99834SOL    HW1 1341   3.835   5.968   2.350
99834SOL    HW2 1342   3.737   6.034   2.256
99835SOL     OW 1343  12.604   6.432   6.919
99835SOL    HW1 1344  12.601   6.342   6.950
99835SOL    HW2 1345  12.571   6.427   6.829
99836SOL     OW 1346   1.196  10.535  14.247
99836SOL    HW1 1347   1.270  10.517  14.188
99836SOL    HW2 1348   1.144  10.455  14.243
99837SOL     OW 1349   8.150  13.795  10.401
99837SOL    HW1 1350   8.066  13.836  10.418
99837SOL    HW2 1351   8.130  13.722  10.342
99838SOL     OW 1352  14.594  12.020   3.932
99838SOL    HW1 1353  14.651  11.951   3.898
99838SOL    HW2 1354  14.621  12.030   4.024
99839SOL     OW 1355  10.419   1.862   3.869
99839SOL    HW1 1356  10.389   1.944   3.830
99839SOL    HW2 1357  10.407   1.875   3.963
99840SOL     OW 1358  13.433  13.013  12.435
99840SOL    HW1 1359  13.382  12.951  12.383
99840SOL    HW2 1360  13.502  13.043  12.376
99841SOL     OW 1361   9.687   3.564   2.716
99841SOL    HW1 1362   9.660   3.616   2.641
99841SOL    HW2 1363   9.628   3.489   2.716
99842SOL     OW 1364   9.195   5.703   6.956
99842SOL    HW1 1365   9.183   5.617   6.995
99842SOL    HW2 1366   9.106   5.733   6.936
99843SOL     OW 1367  13.176   7.008   9.277
99843SOL    HW1 1368  13.208   7.007   9.368
99843SOL    HW2 1369  13.116   7.082   9.273
99844SOL     OW 1370   4.337   7.873   6.513
99844SOL    HW1 1371   4.312   7.799   6.569
99844SOL    HW2 1372   4.403   7.837   6.454
99845SOL     OW 1373  14.443   2.833  13.908
99845SOL    HW1 1374  14.452   2.757  13.852
99845SOL    HW2 1375  14.371   2.884  13.868
99846SOL     OW 1376  13.761   4.986  14.067
99846SOL    HW1 1377  13.841   4.952  14.106
99846SOL    HW2 1378  13.788   5.023  13.983
99847SOL     OW 1379   9.928  14.461  12.793
99847SOL    HW1 1380   9.833  14.446  12.793
99847SOL    HW2 1381   9.955  14.440  12.704
99848SOL     OW 1382   6.174   7.532   7.264
99848SOL    HW1 1383   6.161   7.438   7.255
99848SOL    HW2 1384   6.270   7.542   7.268
99849SOL     OW 1385  13.166  13.796  10.848
99849SOL    HW1 1386  13.174  13.715  10.798
99849SOL    HW2 1387  13.240  13.849  10.820
99850SOL     OW 1388   0.032   9.493   2.724
99850SOL    HW1 1389  14.852   9.470   2.800
99850SOL    HW2 1390   0.120   9.507   2.761
99851SOL     OW 1391   1.269   4.821   0.669
99851SOL    HW1 1392   1.248   4.766   0.744
99851SOL    HW2 1393   1.343   4.874   0.698
99852SOL     OW 1394   9.037   8.837  12.870
99852SOL    HW1 1395   8.969   8.772  12.856
99852SOL    HW2 1396   9.102   8.793  12.925
99853SOL     OW 1397  11.813   0.149   6.466
99853SOL    HW1 1398  11.839   0.228   6.418
99853SOL    HW2 1399  11.723   0.166   6.493
99854SOL     OW 1400   2.056  12.421   3.305
99854SOL    HW1 1401   2.126  12.462   3.355
99854SOL    HW2 1402   2.099  12.350   3.257
99855SOL     OW 1403  13.706   4.963  13.532
99855SOL    HW1 1404  13.799   4.945  13.520
99855SOL    HW2 1405  13.672   4.971  13.442
99856SOL     OW 1406   3.148   1.985  14.586
99856SOL    HW1 1407   3.095   2.039  14.645
99856SOL    HW2 1408   3.138   1.896  14.621
99857SOL     OW 1409  10.373   6.123   0.639
99857SOL    HW1 1410  10.303   6.180   0.673
99857SOL    HW2 1411  10.437   6.119   0.709
99858SOL     OW 1412   3.182   5.638  12.298
99858SOL    HW1 1413   3.103   5.593  12.328
99858SOL    HW2 1414   3.216   5.583  12.227
99859SOL     OW 1415  13.569  11.811   4.739
99859SOL    HW1 1416  13.662  11.826   4.757
99859SOL    HW2 1417  13.525  11.837   4.820
99860SOL     OW 1418  14.868   3.266   7.329
99860SOL    HW1 1419   0.012   3.360   7.324
99860SOL    HW2 1420   0.068   3.225   7.284
99861SOL     OW 1421  13.516   4.060  14.351
99861SOL    HW1 1422  13.568   4.134  14.381
99861SOL    HW2 1423  13.545   3.986  14.406
99862SOL     OW 1424  11.360  10.772   1.020
99862SOL    HW1 1425  11.277  10.760   1.066
99862SOL    HW2 1426  11.346  10.733   0.934
99863SOL     OW 1427   2.029   7.604  11.753
99863SOL    HW1 1428   2.075   7.661  11.814
99863SOL    HW2 1429   2.064   7.516  11.770
99864SOL     OW 1430   9.098   7.485   2.907
99864SOL    HW1 1431   9.079   7.395   2.879
99864SOL    HW2 1432   9.186   7.480   2.944
99865SOL     OW 1433   3.506  11.124  10.851
99865SOL    HW1 1434   3.573  11.103  10.787
99865SOL    HW2 1435   3.534  11.207  10.889
99866SOL     OW 1436   2.232   5.785   6.838
99866SOL    HW1 1437   2.226   5.871   6.879
99866SOL    HW2 1438   2.163   5.785   6.772
99867SOL     OW 1439   4.338   4.325  13.708
99867SOL    HW1 1440   4.318   4.396  13.646
99867SOL    HW2 1441   4.402   4.363  13.768
99868SOL     OW 1442  10.982   6.217  11.270
99868SOL    HW1 1443  10.909   6.261  11.227
99868SOL    HW2 1444  10.990   6.261  11.355
99869SOL     OW 1445   9.947   5.815   5.985
99869SOL    HW1 1446   9.966   5.721   5.989
99869SOL    HW2 1447   9.854   5.820   5.963
99870SOL     OW 1448   2.797  13.060  12.010
99870SOL    HW1 1449   2.754  13.121  11.950
99870SOL    HW2 1450   2.849  13.115  12.068
99871SOL     OW 1451   1.106   9.765   6.409
99871SOL    HW1 1452   1.033   9.804   6.457
99871SOL    HW2 1453   1.184   9.810   6.443
99872SOL     OW 1454   1.158   1.080   9.444
99872SOL    HW1 1455   1.160   1.117   9.533
99872SOL    HW2 1456   1.234   1.119   9.400
99873SOL     OW 1457   8.488  10.899   6.016
99873SOL    HW1 1458   8.576  10.863   6.031
99873SOL    HW2 1459   8.488  10.982   6.064
99874SOL     OW 1460  11.108   6.187   2.892
99874SOL    HW1 1461  11.091   6.281   2.902
99874SOL    HW2 1462  11.034   6.144   2.934
99875SOL     OW 1463  12.962   5.157  12.377
99875SOL    HW1 1464  12.904   5.207  12.319
99875SOL    HW2 1465  12.964   5.070  12.339
99876SOL     OW 1466  10.540  13.941   1.451
99876SOL    HW1 1467  10.554  13.970   1.541
99876SOL    HW2 1468  10.476  13.870   1.459
99877SOL     OW 1469   8.069  14.765   7.067
99877SOL    HW1 1470   8.145  14.756   7.010
99877SOL    HW2 1471   8.005  14.814   7.014
99878SOL     OW 1472   2.546  13.611   2.487
99878SOL    HW1 1473   2.538  13.558   2.407
99878SOL    HW2 1474   2.487  13.569   2.549
99879SOL     OW 1475   3.856   8.412   0.373
99879SOL    HW1 1476   3.829   8.381   0.286
99879SOL    HW2 1477   3.937   8.366   0.391
99880SOL     OW 1478  13.799  11.738   2.262
99880SOL    HW1 1479  13.713  11.746   2.221
99880SOL    HW2 1480  13.816  11.824   2.300
99881SOL     OW 1481   5.461  12.075   4.492
99881SOL    HW1 1482   5.488  11.984   4.485
99881SOL    HW2 1483   5.397  12.087   4.422
99882SOL     OW 1484   0.171   8.242   6.106
99882SOL    HW1 1485   0.210   8.324   6.133
99882SOL    HW2 1486   0.205   8.177   6.168
99883SOL     OW 1487   0.706   9.271  13.981
99883SOL    HW1 1488   0.736   9.185  13.951
99883SOL    HW2 1489   0.722   9.271  14.075
99884SOL     OW 1490   7.260  11.173  12.488
99884SOL    HW1 1491   7.231  11.123  12.411
99884SOL    HW2 1492   7.196  11.151  12.556
99885SOL     OW 1493   5.852  10.598  12.446
99885SOL    HW1 1494   5.942  10.615  12.416
99885SOL    HW2 1495   5.836  10.507  12.421
99886SOL     OW 1496  10.198  14.748   9.840
99886SOL    HW1 1497  10.215  14.832   9.882
99886SOL    HW2 1498  10.212  14.684   9.910
99887SOL     OW 1499   5.879  10.959  11.915
99887SOL    HW1 1500   5.860  11.042  11.872
99887SOL    HW2 1501   5.922  10.984  11.997
99888SOL     OW 1502   7.090   9.454   7.842
99888SOL    HW1 1503   7.152   9.432   7.911
99888SOL    HW2 1504   7.117   9.400   7.767
99889SOL     OW 1505   3.927   9.709   3.804
99889SOL    HW1 1506   3.996   9.760   3.846
99889SOL    HW2 1507   3.862   9.695   3.872
99890SOL     OW 1508  14.088   5.768   7.708
99890SOL    HW1 1509  14.083   5.807   7.795
99890SOL    HW2 1510  14.043   5.684   7.717
99891SOL     OW 1511   7.177   2.585  11.652
99891SOL    HW1 1512   7.266   2.579  11.685
99891SOL    HW2 1513   7.123   2.596  11.730
99892SOL     OW 1514  11.580   6.604  10.684
99892SOL    HW1 1515  11.528   6.681  10.659
99892SOL    HW2 1516  11.647   6.597  10.616
99893SOL     OW 1517   3.426   7.532   0.751
99893SOL    HW1 1518   3.393   7.443   0.763
99893SOL    HW2 1519   3.423   7.571   0.838
99894SOL     OW 1520   7.852  13.445   3.786
99894SOL    HW1 1521   7.814  13.378   3.843
99894SOL    HW2 1522   7.787  13.458   3.717
99895SOL     OW 1523   3.877   8.753   6.979
99895SOL    HW1 1524   3.963   8.717   6.961
99895SOL    HW2 1525   3.816   8.681   6.965
99896SOL     OW 1526   5.398   3.191   9.695
99896SOL    HW1 1527   5.414   3.117   9.753
99896SOL    HW2 1528   5.314   3.226   9.724
99897SOL     OW 1529   6.608  13.653   8.851
99897SOL    HW1 1530   6.593  13.611   8.935
99897SOL    HW2 1531   6.658  13.732   8.872
99898SOL     OW 1532  14.391   6.003   9.208
99898SOL    HW1 1533  14.367   6.012   9.300
99898SOL    HW2 1534  14.398   6.092   9.175
99899SOL     OW 1535  12.121   8.353  12.025
99899SOL    HW1 1536  12.194   8.296  12.000
99899SOL    HW2 1537  12.151   8.441  12.002
99900SOL     OW 1538   6.803   4.079   5.311
99900SOL    HW1 1539   6.770   3.989   5.319
99900SOL    HW2 1540   6.761   4.126   5.383
99901SOL     OW 1541  14.124   8.634   0.248
99901SOL    HW1 1542  14.169   8.629   0.164
99901SOL    HW2 1543  14.064   8.560   0.247
99902SOL     OW 1544   8.165  11.616  13.961
99902SOL    HW1 1545   8.142  11.686  14.022
99902SOL    HW2 1546   8.249  11.642  13.925
99903SOL     OW 1547   4.187   4.762   0.846
99903SOL    HW1 1548   4.196   4.779   0.752
99903SOL    HW2 1549   4.095   4.742   0.859
99904SOL     OW 1550  14.539   7.915   7.249
99904SOL    HW1 1551  14.599   7.916   7.175
99904SOL    HW2 1552  14.457   7.879   7.213
99905SOL     OW 1553  13.038   3.120  14.549
99905SOL    HW1 1554  12.986   3.056  14.598
99905SOL    HW2 1555  13.124   3.119  14.591
99906SOL     OW 1556  10.909   2.583   2.493
99906SOL    HW1 1557  10.953   2.611   2.573
99906SOL    HW2 1558  10.966   2.516   2.457
99907SOL     OW 1559   1.827   2.064   0.216
99907SOL    HW1 1560   1.858   2.085   0.128
99907SOL    HW2 1561   1.906   2.043   0.266
99908SOL     OW 1562   0.554  12.721   8.324
99908SOL    HW1 1563   0.607  12.745   8.248
99908SOL    HW2 1564   0.617  12.711   8.395
99909SOL     OW 1565  11.398   1.394   3.354
99909SOL    HW1 1566  11.321   1.434   3.313
99909SOL    HW2 1567  11.431   1.333   3.289
99910SOL     OW 1568   8.753   6.767   7.903
99910SOL    HW1 1569   8.751   6.770   7.807
99910SOL    HW2 1570   8.837   6.727   7.925
99911SOL     OW 1571  10.863   4.020   0.924
99911SOL    HW1 1572  10.877   3.929   0.949
99911SOL    HW2 1573  10.876   4.069   1.005
99912SOL     OW 1574   2.377   0.864  11.988
99912SOL    HW1 1575   2.302   0.908  11.947
99912SOL    HW2 1576   2.343   0.779  12.016
99913SOL     OW 1577  13.251   6.055   4.777
99913SOL    HW1 1578  13.200   5.975   4.768
99913SOL    HW2 1579  13.240   6.100   4.693
99914SOL     OW 1580  11.268   1.753   5.038
99914SOL    HW1 1581  11.319   1.716   4.967
99914SOL    HW2 1582  11.280   1.693   5.111
99915SOL     OW 1583   3.049   9.095   1.184
99915SOL    HW1 1584   3.079   9.005   1.200
99915SOL    HW2 1585   3.120   9.136   1.135
99916SOL     OW 1586   6.367   0.785   7.797
99916SOL    HW1 1587   6.329   0.785   7.885
99916SOL    HW2 1588   6.423   0.862   7.794
99917SOL     OW 1589  13.509   4.510   2.881
99917SOL    HW1 1590  13.428   4.561   2.882
99917SOL    HW2 1591  13.579   4.575   2.889
99918SOL     OW 1592   0.093  11.568   2.972
99918SOL    HW1 1593   0.131  11.649   3.005
99918SOL    HW2 1594   0.004  11.592   2.947
99919SOL     OW 1595   7.327  13.133  11.971
99919SOL    HW1 1596   7.391  13.169  12.034
99919SOL    HW2 1597   7.255  13.196  11.972
99920SOL     OW 1598   8.214  13.305   4.699
99920SOL    HW1 1599   8.215  13.356   4.780
99920SOL    HW2 1600   8.201  13.369   4.630
99921SOL     OW 1601   4.862   4.940  12.331
99921SOL    HW1 1602   4.923   4.971  12.264
99921SOL    HW2 1603   4.787   5.000  12.324
99922SOL     OW 1604   0.674   9.339   6.739
99922SOL    HW1 1605   0.703   9.387   6.661
99922SOL    HW2 1606   0.755   9.307   6.779
99923SOL     OW 1607  13.660  11.381  14.416
99923SOL    HW1 1608  13.726  11.318  14.445
99923SOL    HW2 1609  13.604  11.331  14.356
99924SOL     OW 1610   5.466   1.793  12.730
99924SOL    HW1 1611   5.410   1.723  12.762
99924SOL    HW2 1612   5.541   1.748  12.691
99925SOL     OW 1613   7.287   0.555   6.087
99925SOL    HW1 1614   7.356   0.614   6.054
99925SOL    HW2 1615   7.333   0.497   6.148
99926SOL     OW 1616   7.337   0.277   3.253
99926SOL    HW1 1617   7.424   0.273   3.213
99926SOL    HW2 1618   7.329   0.368   3.282
99927SOL     OW 1619   7.242   4.903   4.405
99927SOL    HW1 1620   7.199   4.985   4.379
99927SOL    HW2 1621   7.173   4.850   4.444
99928SOL     OW 1622   1.635   1.045   8.782
99928SOL    HW1 1623   1.611   1.012   8.868
99928SOL    HW2 1624   1.576   1.118   8.767
99929SOL     OW 1625  12.476   1.765   5.592
99929SOL    HW1 1626  12.507   1.853   5.613
99929SOL    HW2 1627  12.411   1.746   5.660
99930SOL     OW 1628   6.588   7.907   8.151
99930SOL    HW1 1629   6.504   7.951   8.169
99930SOL    HW2 1630   6.593   7.838   8.217
99931SOL     OW 1631   2.588   7.344  10.319
99931SOL    HW1 1632   2.601   7.419  10.261
99931SOL    HW2 1633   2.538   7.282  10.268
99932SOL     OW 1634   6.560   4.678  13.115
99932SOL    HW1 1635   6.646   4.721  13.112
99932SOL    HW2 1636   6.545   4.650  13.024
99933SOL     OW 1637  12.440   9.677   3.710
99933SOL    HW1 1638  12.356   9.642   3.680
99933SOL    HW2 1639  12.497   9.671   3.633
99934SOL     OW 1640   4.194  10.814   4.469
99934SOL    HW1 1641   4.156  10.902   4.474
99934SOL    HW2 1642   4.288  10.828   4.478
99935SOL     OW 1643   8.993   1.975   9.470
99935SOL    HW1 1644   9.015   2.035   9.541
99935SOL    HW2 1645   9.073   1.926   9.454
99936SOL     OW 1646  10.437   9.932   0.738
99936SOL    HW1 1647  10.472   9.887   0.815
99936SOL    HW2 1648  10.515   9.954   0.687
99937SOL     OW 1649  14.282   8.129  12.175
99937SOL    HW1 1650  14.265   8.051  12.229
99937SOL    HW2 1651  14.254   8.104  12.087
99938SOL     OW 1652  10.345  13.008   9.505
99938SOL    HW1 1653  10.343  12.921   9.466
99938SOL    HW2 1654  10.438  13.031   9.508
99939SOL     OW 1655   6.856   3.349  13.442
99939SOL    HW1 1656   6.936   3.391  13.471
99939SOL    HW2 1657   6.854   3.363  13.347
99940SOL     OW 1658   2.889  11.210  14.706
99940SOL    HW1 1659   2.845  11.294  14.695
99940SOL    HW2 1660   2.976  11.224  14.669
99941SOL     OW 1661   5.727   7.313   8.596
99941SOL    HW1 1662   5.801   7.356   8.640
99941SOL    HW2 1663   5.756   7.222   8.584
99942SOL     OW 1664   8.162   4.918   7.287
99942SOL    HW1 1665   8.251   4.882   7.281
99942SOL    HW2 1666   8.128   4.913   7.197
99943SOL     OW 1667   2.309   7.481   7.029
99943SOL    HW1 1668   2.326   7.411   6.966
99943SOL    HW2 1669   2.214   7.478   7.043
99944SOL     OW 1670   9.854   5.786   8.809
99944SOL    HW1 1671   9.778   5.753   8.760
99944SOL    HW2 1672   9.851   5.881   8.796
99945SOL     OW 1673   5.821   0.715  10.500
99945SOL    HW1 1674   5.758   0.644  10.506
99945SOL    HW2 1675   5.864   0.717  10.585
99946SOL     OW 1676  11.882   8.204  12.103
99946SOL    HW1 1677  11.956   8.256  12.072
99946SOL    HW2 1678  11.889   8.121  12.056
99947SOL     OW 1679   5.622  10.959   0.297
99947SOL    HW1 1680   5.584  11.018   0.362
99947SOL    HW2 1681   5.687  10.908   0.346
99948SOL     OW 1682   1.963   5.502   3.979
99948SOL    HW1 1683   1.902   5.547   4.037
99948SOL    HW2 1684   1.940   5.531   3.891
99949SOL     OW 1685   3.266   4.991   4.112
99949SOL    HW1 1686   3.250   5.085   4.116
99949SOL    HW2 1687   3.327   4.980   4.039
99950SOL     OW 1688  13.124   3.544   5.906
99950SOL    HW1 1689  13.216   3.553   5.883
99950SOL    HW2 1690  13.076   3.577   5.830
99951SOL     OW 1691  14.436   0.650  12.091
99951SOL    HW1 1692  14.432   0.744  12.107
99951SOL    HW2 1693  14.370   0.612  12.149
99952SOL     OW 1694   9.810   6.771   9.375
99952SOL    HW1 1695   9.766   6.798   9.455
99952SOL    HW2 1696   9.767   6.689   9.350
99953SOL     OW 1697  13.512  11.471   1.510
99953SOL    HW1 1698  13.605  11.451   1.522
99953SOL    HW2 1699  13.466  11.396   1.548
99954SOL     OW 1700   7.269  13.210   1.103
99954SOL    HW1 1701   7.175  13.226   1.094
99954SOL    HW2 1702   7.278  13.172   1.191
99955SOL     OW 1703  13.472   0.327   1.934
99955SOL    HW1 1704  13.561   0.302   1.957
99955SOL    HW2 1705  13.478   0.355   1.843
99956SOL     OW 1706  12.224  14.704   9.026
99956SOL    HW1 1707  12.242  14.693   8.932
99956SOL    HW2 1708  12.295  14.761   9.058
99957SOL     OW 1709   3.933   1.317   1.584
99957SOL    HW1 1710   3.955   1.327   1.492
99957SOL    HW2 1711   3.912   1.224   1.594
99958SOL     OW 1712  14.225   9.640   5.643
99958SOL    HW1 1713  14.310   9.618   5.681
99958SOL    HW2 1714  14.169   9.565   5.665
99959SOL     OW 1715   5.863  14.693  10.331
99959SOL    HW1 1716   5.873  14.598  10.332
99959SOL    HW2 1717   5.773  14.707  10.299
99960SOL     OW 1718  14.008   9.370   6.097
99960SOL    HW1 1719  14.068   9.327   6.036
99960SOL    HW2 1720  13.925   9.322   6.087
99961SOL     OW 1721  10.523  14.266  14.723
99961SOL    HW1 1722  10.440  14.265  14.771
99961SOL    HW2 1723  10.526  14.181  14.680
99962SOL     OW 1724   0.008   7.225   5.273
99962SOL    HW1 1725   0.017   7.254   5.182
99962SOL    HW2 1726   0.055   7.291   5.324
99963SOL     OW 1727   3.428  14.719   5.742
99963SOL    HW1 1728   3.521  14.740   5.734
99963SOL    HW2 1729   3.425  14.623   5.740
99964SOL     OW 1730   8.877   3.914   1.839
99964SOL    HW1 1731   8.793   3.891   1.798
99964SOL    HW2 1732   8.940   3.908   1.768
99965SOL     OW 1733  13.162   5.227  13.575
99965SOL    HW1 1734  13.213   5.302  13.604
99965SOL    HW2 1735  13.080   5.232  13.624
99966SOL     OW 1736   4.778   5.332  10.353
99966SOL    HW1 1737   4.746   5.388  10.423
99966SOL    HW2 1738   4.866   5.365  10.335
99967SOL     OW 1739  12.097   1.578   3.006
99967SOL    HW1 1740  12.099   1.574   3.101
99967SOL    HW2 1741  12.004   1.589   2.984
99968SOL     OW 1742  11.343   0.330   4.780
99968SOL    HW1 1743  11.436   0.322   4.802
99968SOL    HW2 1744  11.304   0.249   4.811
99969SOL     OW 1745  13.504   5.482  13.157
99969SOL    HW1 1746  13.425   5.471  13.210
99969SOL    HW2 1747  13.479   5.450  13.070
99970SOL     OW 1748   4.922   5.277   6.271
99970SOL    HW1 1749   4.932   5.361   6.316
99970SOL    HW2 1750   4.834   5.281   6.233
99971SOL     OW 1751  12.288  12.270   1.686
99971SOL    HW1 1752  12.325  12.185   1.710
99971SOL    HW2 1753  12.259  12.260   1.596
99972SOL     OW 1754   6.776  14.839   9.944
99972SOL    HW1 1755   6.796  14.746   9.937
99972SOL    HW2 1756   6.730  14.861   9.863
99973SOL     OW 1757   8.499   0.894   9.865
99973SOL    HW1 1758   8.429   0.948   9.828
99973SOL    HW2 1759   8.502   0.919   9.958
99974SOL     OW 1760   5.692   3.483   7.543
99974SOL    HW1 1761   5.613   3.492   7.490
99974SOL    HW2 1762   5.763   3.510   7.485
99975SOL     OW 1763   5.237  13.256   2.198
99975SOL    HW1 1764   5.254  13.349   2.208
99975SOL    HW2 1765   5.263  13.235   2.108
99976SOL     OW 1766   6.564   2.137   7.567
99976SOL    HW1 1767   6.580   2.197   7.494
99976SOL    HW2 1768   6.508   2.186   7.628
99977SOL     OW 1769   9.701   4.885   5.637
99977SOL    HW1 1770   9.675   4.919   5.551
99977SOL    HW2 1771   9.638   4.815   5.655
99978SOL     OW 1772   9.966   2.483   9.202
99978SOL    HW1 1773  10.016   2.447   9.275
99978SOL    HW2 1774  10.022   2.553   9.167
99979SOL     OW 1775   6.015   6.418   6.421
99979SOL    HW1 1776   6.106   6.440   6.404
99979SOL    HW2 1777   6.018   6.336   6.471
99980SOL     OW 1778   2.758   3.231   1.141
99980SOL    HW1 1779   2.829   3.168   1.146
99980SOL    HW2 1780   2.774   3.291   1.214
99981SOL     OW 1781  14.835  11.319  10.901
99981SOL    HW1 1782  14.834  11.413  10.919
99981SOL    HW2 1783  14.747  11.300  10.866
99982SOL     OW 1784  13.306  14.081   2.571
99982SOL    HW1 1785  13.325  14.167   2.608
99982SOL    HW2 1786  13.389  14.052   2.534
99983SOL     OW 1787   3.615  11.569  11.208
99983SOL    HW1 1788   3.525  11.583  11.237
99983SOL    HW2 1789   3.644  11.493  11.258
99984SOL     OW 1790   7.646   8.890  12.081
99984SOL    HW1 1791   7.657   8.982  12.107
99984SOL    HW2 1792   7.601   8.850  12.156
99985SOL     OW 1793  11.306  11.721   4.559
99985SOL    HW1 1794  11.347  11.678   4.483
99985SOL    HW2 1795  11.235  11.773   4.522
99986SOL     OW 1796  12.063   9.519  11.148
99986SOL    HW1 1797  11.986   9.472  11.180
99986SOL    HW2 1798  12.116   9.534  11.226
99987SOL     OW 1799   5.550   6.302  10.581
99987SOL    HW1 1800   5.490   6.286  10.509
99987SOL    HW2 1801   5.617   6.234  10.573
99988SOL     OW 1802  14.614   6.870  10.060
99988SOL    HW1 1803  14.662   6.806  10.112
99988SOL    HW2 1804  14.671   6.947  10.058
99989SOL     OW 1805   6.133  11.473  11.592
99989SOL    HW1 1806   6.154  11.565  11.609
99989SOL    HW2 1807   6.201  11.444  11.531
99990SOL     OW 1808  13.750   6.589   6.489
99990SOL    HW1 1809  13.696   6.657   6.529
99990SOL    HW2 1810  13.786   6.629   6.410
99991SOL     OW 1811  13.675  10.105   0.431
99991SOL    HW1 1812  13.703  10.047   0.360
99991SOL    HW2 1813  13.738  10.177   0.430
99992SOL     OW 1814  10.938   8.292  11.044
99992SOL    HW1 1815  10.897   8.226  11.100
99992SOL    HW2 1816  10.998   8.338  11.103
99993SOL     OW 1817  14.828  12.361   6.770
99993SOL    HW1 1818  14.828  12.272   6.806
99993SOL    HW2 1819  14.740  12.394   6.788
99994SOL     OW 1820   9.951   7.939   5.464
99994SOL    HW1 1821  10.037   7.926   5.504
99994SOL    HW2 1822   9.919   7.850   5.448
99995SOL     OW 1823  11.251   3.089  14.265
99995SOL    HW1 1824  11.189   3.029  14.223
99995SOL    HW2 1825  11.196   3.154  14.308
99996SOL     OW 1826   1.058  10.142   8.702
99996SOL    HW1 1827   1.053  10.120   8.609
99996SOL    HW2 1828   1.010  10.225   8.710
99997SOL     OW 1829  12.710   3.202   9.349
99997SOL    HW1 1830  12.761   3.200   9.430
99997SOL    HW2 1831  12.656   3.122   9.352
99998SOL     OW 1832  10.479  14.617  10.720
99998SOL    HW1 1833  10.385  14.635  10.725
99998SOL    HW2 1834  10.511  14.633  10.809
99999SOL     OW 1835   5.031  13.049   2.938
99999SOL    HW1 1836   5.101  13.041   3.003
99999SOL    HW2 1837   4.954  13.013   2.981
    0SOL     OW 1838   4.197   4.151   5.930
    0SOL    HW1 1839   4.276   4.181   5.886
    0SOL    HW2 1840   4.129   4.213   5.903
    1SOL     OW 1841  13.760   0.373  11.501
    1SOL    HW1 1842  13.793   0.415  11.422
    1SOL    HW2 1843  13.821   0.399  11.569
    2SOL     OW 1844   3.211   6.413   1.968
    2SOL    HW1 1845   3.234   6.506   1.963
    2SOL    HW2 1846   3.296   6.368   1.969
    3SOL     OW 1847  13.813   6.160   9.229
    3SOL    HW1 1848  13.887   6.220   9.217
    3SOL    HW2 1849  13.803   6.116   9.145
    4SOL     OW 1850   2.618   3.156   4.228
    4SOL    HW1 1851   2.639   3.250   4.225
    4SOL    HW2 1852   2.699   3.113   4.200
    5SOL     OW 1853   8.881   0.262  11.642
    5SOL    HW1 1854   8.823   0.191  11.616
    5SOL    HW2 1855   8.823   0.335  11.664
    6SOL     OW 1856   9.916   6.692   7.802
    6SOL    HW1 1857   9.859   6.765   7.824
    6SOL    HW2 1858   9.873   6.615   7.840
    7SOL     OW 1859  11.323   8.354   1.159
    7SOL    HW1 1860  11.356   8.275   1.116
    7SOL    HW2 1861  11.237   8.369   1.121
    8SOL     OW 1862   2.860   5.531   9.263
    8SOL    HW1 1863   2.811   5.532   9.181
    8SOL    HW2 1864   2.897   5.443   9.268
    9SOL     OW 1865  14.530   5.490  10.950
    9SOL    HW1 1866  14.534   5.554  10.879
    9SOL    HW2 1867  14.458   5.519  11.005
   10SOL     OW 1868   5.608  14.208  12.202
   10SOL    HW1 1869   5.529  14.211  12.147
   10SOL    HW2 1870   5.596  14.278  12.265
   11SOL     OW 1871  14.191   2.158  14.068
   11SOL    HW1 1872  14.100   2.147  14.039
   11SOL    HW2 1873  14.230   2.071  14.057
   12SOL     OW 1874   6.825   9.330   7.862
   12SOL    HW1 1875   6.790   9.392   7.797
   12SOL    HW2 1876   6.888   9.277   7.813
   13SOL     OW 1877   0.176   3.724   6.358
   13SOL    HW1 1878   0.144   3.804   6.317
   13SOL    HW2 1879   0.271   3.733   6.358
   14SOL     OW 1880   3.531   1.157  11.958
   14SOL    HW1 1881   3.530   1.126  11.868
   14SOL    HW2 1882   3.451   1.120  11.997
   15SOL     OW 1883   9.953   6.186   2.064
   15SOL    HW1 1884   9.886   6.253   2.055
   15SOL    HW2 1885   9.909   6.105   2.037
   16SOL     OW 1886   2.608   4.967   0.719
   16SOL    HW1 1887   2.690   4.971   0.670
   16SOL    HW2 1888   2.588   4.874   0.724
   17SOL     OW 1889   9.374   4.929   4.254
   17SOL    HW1 1890   9.295   4.880   4.279
   17SOL    HW2 1891   9.344   4.993   4.189
   18SOL     OW 1892   9.005   1.653   3.862
   18SOL    HW1 1893   8.919   1.672   3.899
   18SOL    HW2 1894   9.059   1.727   3.887
   19SOL     OW 1895  11.481   3.586   4.213
   19SOL    HW1 1896  11.432   3.513   4.252
   19SOL    HW2 1897  11.413   3.647   4.185
   20SOL     OW 1898   5.947  10.099   2.526
   20SOL    HW1 1899   6.014  10.108   2.593
   20SOL    HW2 1900   5.945  10.184   2.482
   21SOL     OW 1901   2.059  10.486   9.742
   21SOL    HW1 1902   1.973  10.470   9.779
   21SOL    HW2 1903   2.054  10.449   9.653
   22SOL     OW 1904  11.895   7.984  10.158
   22SOL    HW1 1905  11.807   8.018  10.178
   22SOL    HW2 1906  11.916   7.929  10.233
   23SOL     OW 1907  10.023   4.763   0.954
   23SOL    HW1 1908  10.069   4.772   1.038
   23SOL    HW2 1909  10.042   4.674   0.925
   24SOL     OW 1910   9.055   4.636  14.155
   24SOL    HW1 1911   9.049   4.732  14.161
   24SOL    HW2 1912   9.090   4.609  14.240
   25SOL     OW 1913   1.753  11.797  13.101
   25SOL    HW1 1914   1.825  11.796  13.038
   25SOL    HW2 1915   1.756  11.710  13.141
   26SOL     OW 1916   1.457   6.519   3.145
   26SOL    HW1 1917   1.514   6.535   3.070
   26SOL    HW2 1918   1.510   6.544   3.221
   27SOL     OW 1919  14.293   4.332  10.135
   27SOL    HW1 1920  14.338   4.351  10.217
   27SOL    HW2 1921  14.207   4.372  10.144
   28SOL     OW 1922  12.166   9.407   1.201
   28SOL    HW1 1923  12.199   9.416   1.111
   28SOL    HW2 1924  12.188   9.490   1.243
   29SOL     OW 1925   9.230  12.837  10.142
   29SOL    HW1 1926   9.276  12.883  10.212
   29SOL    HW2 1927   9.167  12.900  10.109
   30SOL     OW 1928   4.263   3.092  11.318
   30SOL    HW1 1929   4.168   3.090  11.334
   30SOL    HW2 1930   4.299   3.034  11.385
   31SOL     OW 1931   4.827  14.418   8.230
   31SOL    HW1 1932   4.798  14.384   8.146
   31SOL    HW2 1933   4.843  14.340   8.284
   32SOL     OW 1934  13.923  14.865   2.516
   32SOL    HW1 1935  13.930  14.793   2.453
   32SOL    HW2 1936  13.844  14.846   2.566
   33SOL     OW 1937   7.192   1.627   9.289
   33SOL    HW1 1938   7.105   1.647   9.256
   33SOL    HW2 1939   7.214   1.701   9.346
   34SOL     OW 1940   4.027   8.432   9.940
   34SOL    HW1 1941   4.003   8.474  10.023
   34SOL    HW2 1942   3.964   8.360   9.931
   35SOL     OW 1943  10.459   7.469   3.089
   35SOL    HW1 1944  10.408   7.388   3.090
   35SOL    HW2 1945  10.398   7.535   3.124
   36SOL     OW 1946   9.094  14.614   8.660
   36SOL    HW1 1947   9.167  14.588   8.716
   36SOL    HW2 1948   9.098  14.553   8.586
   37SOL     OW 1949   9.950   7.953   3.451
   37SOL    HW1 1950   9.922   8.012   3.381
   37SOL    HW2 1951   9.874   7.898   3.468
   38SOL     OW 1952   8.574  13.527   2.695
   38SOL    HW1 1953   8.539  13.614   2.717
   38SOL    HW2 1954   8.641  13.511   2.761
   39SOL     OW 1955   1.837   4.180   4.232
   39SOL    HW1 1956   1.786   4.190   4.313
   39SOL    HW2 1957   1.847   4.085   4.223
   40SOL     OW 1958   5.508   8.869   0.292
   40SOL    HW1 1959   5.492   8.883   0.199
   40SOL    HW2 1960   5.455   8.935   0.336
   41SOL     OW 1961   9.335   8.815   4.192
   41SOL    HW1 1962   9.262   8.813   4.253
   41SOL    HW2 1963   9.315   8.747   4.128
   42SOL     OW 1964   3.759   6.302   0.610
   42SOL    HW1 1965   3.761   6.387   0.654
   42SOL    HW2 1966   3.739   6.324   0.519
   43SOL     OW 1967  11.967  10.368  12.593
   43SOL    HW1 1968  12.036  10.433  12.595
   43SOL    HW2 1969  11.954  10.344  12.685
   44SOL     OW 1970   0.889   2.239   1.394
   44SOL    HW1 1971   0.919   2.250   1.303
   44SOL    HW2 1972   0.906   2.147   1.413
   45SOL     OW 1973   2.193   7.861   0.731
   45SOL    HW1 1974   2.110   7.818   0.752
   45SOL    HW2 1975   2.259   7.794   0.744
   46SOL     OW 1976  13.559   8.755   3.430
   46SOL    HW1 1977  13.527   8.838   3.467
   46SOL    HW2 1978  13.495   8.732   3.364
   47SOL     OW 1979   6.688   3.057   3.287
   47SOL    HW1 1980   6.717   3.056   3.379
   47SOL    HW2 1981   6.608   3.108   3.288
   48SOL     OW 1982   1.288   2.911  10.620
   48SOL    HW1 1983   1.304   2.820  10.642
   48SOL    HW2 1984   1.245   2.908  10.535
   49SOL     OW 1985  12.710   7.473  12.649
   49SOL    HW1 1986  12.627   7.437  12.618
   49SOL    HW2 1987  12.685   7.553  12.696
   50SOL     OW 1988   9.366   3.834  12.874
   50SOL    HW1 1989   9.413   3.847  12.956
   50SOL    HW2 1990   9.277   3.865  12.891
   51SOL     OW 1991  11.807   4.193   5.946
   51SOL    HW1 1992  11.898   4.180   5.975
   51SOL    HW2 1993  11.785   4.282   5.974
   52SOL     OW 1994  11.423   8.531   2.562
   52SOL    HW1 1995  11.445   8.485   2.481
   52SOL    HW2 1996  11.470   8.614   2.556
   53SOL     OW 1997   8.984  13.072   4.519
   53SOL    HW1 1998   9.024  13.151   4.482
   53SOL    HW2 1999   8.920  13.043   4.454
   54SOL     OW 2000   2.503   9.424   8.985
   54SOL    HW1 2001   2.571   9.461   9.040
   54SOL    HW2 2002   2.501   9.331   9.009
   55SOL     OW 2003   9.701  13.606   9.296
   55SOL    HW1 2004   9.646  13.605   9.374
   55SOL    HW2 2005   9.725  13.698   9.284
   56SOL     OW 2006   1.146   6.595  10.341
   56SOL    HW1 2007   1.178   6.642  10.264
   56SOL    HW2 2008   1.225   6.570  10.388
   57SOL     OW 2009   5.854   2.931  10.890
   57SOL    HW1 2010   5.928   2.904  10.943
   57SOL    HW2 2011   5.840   3.023  10.912
   58SOL     OW 2012   3.609   2.334   6.550
   58SOL    HW1 2013   3.651   2.409   6.592
   58SOL    HW2 2014   3.682   2.275   6.530
   59SOL     OW 2015   9.024  12.506  10.819
   59SOL    HW1 2016   8.946  12.562  10.824
   59SOL    HW2 2017   8.990  12.420  10.794
   60SOL     OW 2018  10.688   1.226  12.808
   60SOL    HW1 2019  10.782   1.235  12.793
   60SOL    HW2 2020  10.652   1.209  12.720
   61SOL     OW 2021   9.709  10.272   7.977
   61SOL    HW1 2022   9.728  10.204   7.913
   61SOL    HW2 2023   9.776  10.339   7.962
   62SOL     OW 2024   2.250  14.030  11.345
   62SOL    HW1 2025   2.170  13.981  11.326
   62SOL    HW2 2026   2.254  14.033  11.440
   63SOL     OW 2027   7.586   4.736  11.477
   63SOL    HW1 2028   7.680   4.740  11.492
   63SOL    HW2 2029   7.571   4.794  11.402
   64SOL     OW 2030   2.230  10.281  13.756
   64SOL    HW1 2031   2.254  10.329  13.835
   64SOL    HW2 2032   2.135  10.271  13.761
   65SOL     OW 2033   0.334  13.473   8.491
   65SOL    HW1 2034   0.343  13.532   8.416
   65SOL    HW2 2035   0.384  13.516   8.561
   66SOL     OW 2036   4.095  12.161   6.587
   66SOL    HW1 2037   4.109  12.143   6.680
   66SOL    HW2 2038   4.110  12.255   6.578
   67SOL     OW 2039  13.830   5.416  13.734
   67SOL    HW1 2040  13.814   5.355  13.662
   67SOL    HW2 2041  13.924   5.434  13.730
   68SOL     OW 2042   3.763  13.078   0.710
   68SOL    HW1 2043   3.856  13.099   0.716
   68SOL    HW2 2044   3.718  13.157   0.742
   69SOL     OW 2045   1.334   8.162   0.328
   69SOL    HW1 2046   1.247   8.135   0.357
   69SOL    HW2 2047   1.318   8.240   0.275
   70SOL     OW 2048  12.830   3.239   0.350
   70SOL    HW1 2049  12.869   3.160   0.387
   70SOL    HW2 2050  12.750   3.208   0.308
   71SOL     OW 2051  14.043   5.861   8.000
   71SOL    HW1 2052  14.063   5.954   7.985
   71SOL    HW2 2053  14.017   5.857   8.092
   72SOL     OW 2054  11.142  13.681   1.382
   72SOL    HW1 2055  11.144  13.604   1.439
   72SOL    HW2 2056  11.108  13.648   1.299
   73SOL     OW 2057   6.824   0.028   4.130
   73SOL    HW1 2058   6.806  14.841   4.201
   73SOL    HW2 2059   6.837  14.847   4.053
   74SOL     OW 2060  11.709   7.364   2.558
   74SOL    HW1 2061  11.712   7.460   2.551
   74SOL    HW2 2062  11.620   7.346   2.588
   75SOL     OW 2063   4.653   5.495   1.897
   75SOL    HW1 2064   4.620   5.567   1.843
   75SOL    HW2 2065   4.585   5.480   1.962
   76SOL     OW 2066   8.135   4.655  10.500
   76SOL    HW1 2067   8.098   4.588  10.559
   76SOL    HW2 2068   8.060   4.708  10.474
   77SOL     OW 2069  11.476   1.356   7.483
   77SOL    HW1 2070  11.397   1.305   7.502
   77SOL    HW2 2071  11.547   1.293   7.491
   78SOL     OW 2072  10.553   3.131   5.265
   78SOL    HW1 2073  10.556   3.159   5.356
   78SOL    HW2 2074  10.468   3.090   5.255
   79SOL     OW 2075   5.045   4.728   4.634
   79SOL    HW1 2076   5.040   4.683   4.719
   79SOL    HW2 2077   4.958   4.719   4.597
   80SOL     OW 2078   4.725   6.467   5.342
   80SOL    HW1 2079   4.677   6.469   5.259
   80SOL    HW2 2080   4.676   6.403   5.395
   81SOL     OW 2081  13.561  13.655  13.413
   81SOL    HW1 2082  13.646  13.696  13.430
   81SOL    HW2 2083  13.515  13.719  13.358
   82SOL     OW 2084   8.294   4.142   0.695
   82SOL    HW1 2085   8.358   4.196   0.740
   82SOL    HW2 2086   8.318   4.052   0.717
   83SOL     OW 2087   3.704  12.821   7.105
   83SOL    HW1 2088   3.673  12.911   7.090
   83SOL    HW2 2089   3.637  12.781   7.160
   84SOL     OW 2090   2.569   5.707   2.216
   84SOL    HW1 2091   2.540   5.791   2.251
   84SOL    HW2 2092   2.640   5.680   2.273
   85SOL     OW 2093   1.575  12.195  12.167
   85SOL    HW1 2094   1.498  12.142  12.186
   85SOL    HW2 2095   1.628  12.141  12.109
   86SOL     OW 2096  11.438   4.791   9.226
   86SOL    HW1 2097  11.455   4.866   9.170
   86SOL    HW2 2098  11.522   4.746   9.233
   87SOL     OW 2099  14.430  13.125  14.177
   87SOL    HW1 2100  14.484  13.097  14.250
   87SOL    HW2 2101  14.347  13.080  14.190
   88SOL     OW 2102   8.740  10.566   8.233
   88SOL    HW1 2103   8.672  10.502   8.211
   88SOL    HW2 2104   8.758  10.611   8.150
   89SOL     OW 2105  13.504   4.398   2.436
   89SOL    HW1 2106  13.446   4.325   2.417
   89SOL    HW2 2107  13.530   4.385   2.527
   90SOL     OW 2108  14.260   9.341   4.194
   90SOL    HW1 2109  14.350   9.312   4.210
   90SOL    HW2 2110  14.224   9.275   4.135
   91SOL     OW 2111   0.637   5.521   2.346
   91SOL    HW1 2112   0.638   5.604   2.393
   91SOL    HW2 2113   0.604   5.543   2.259
   92SOL     OW 2114   2.850  13.899   0.068
   92SOL    HW1 2115   2.779  13.896   0.003
   92SOL    HW2 2116   2.805  13.907   0.152
   93SOL     OW 2117  14.404   8.638  12.100
   93SOL    HW1 2118  14.479   8.614  12.155
   93SOL    HW2 2119  14.435   8.626  12.011
   94SOL     OW 2120   5.266  11.524   5.929
   94SOL    HW1 2121   5.296  11.521   5.839
   94SOL    HW2 2122   5.322  11.589   5.971
   95SOL     OW 2123  11.419  10.619  11.805
   95SOL    HW1 2124  11.380  10.665  11.880
   95SOL    HW2 2125  11.346  10.570  11.767
   96SOL     OW 2126   6.227   5.963   9.585
   96SOL    HW1 2127   6.269   6.008   9.659
   96SOL    HW2 2128   6.251   6.016   9.509
   97SOL     OW 2129   4.882  13.565  14.808
   97SOL    HW1 2130   4.799  13.580  14.853
   97SOL    HW2 2131   4.859  13.521  14.727
   98SOL     OW 2132   4.506   4.791  12.889
   98SOL    HW1 2133   4.415   4.795  12.859
   98SOL    HW2 2134   4.503   4.817  12.981
   99SOL     OW 2135  13.374   1.621   4.132
   99SOL    HW1 2136  13.366   1.541   4.079
   99SOL    HW2 2137  13.468   1.639   4.134
  100SOL     OW 2138  12.079   1.391   1.706
  100SOL    HW1 2139  12.128   1.337   1.644
  100SOL    HW2 2140  12.144   1.422   1.769
  101SOL     OW 2141   5.409   4.443  14.677
  101SOL    HW1 2142   5.494   4.467  14.639
  101SOL    HW2 2143   5.359   4.408  14.604
  102SOL     OW 2144   7.047  13.338  12.023
  102SOL    HW1 2145   7.126  13.343  11.970
  102SOL    HW2 2146   6.986  13.399  11.982
  103SOL     OW 2147  13.397  14.549   2.010
  103SOL    HW1 2148  13.469  14.494   2.041
  103SOL    HW2 2149  13.405  14.631   2.060
  104SOL     OW 2150   9.872   7.499   2.869
  104SOL    HW1 2151   9.946   7.437   2.878
  104SOL    HW2 2152   9.887   7.541   2.784
  105SOL     OW 2153   0.531  10.698  13.035
  105SOL    HW1 2154   0.545  10.630  12.970
  105SOL    HW2 2155   0.586  10.771  13.006
  106SOL     OW 2156   8.716   3.422   8.681
  106SOL    HW1 2157   8.806   3.436   8.712
  106SOL    HW2 2158   8.677   3.509   8.683
  107SOL     OW 2159   6.286   8.618   6.814
  107SOL    HW1 2160   6.325   8.599   6.899
  107SOL    HW2 2161   6.356   8.602   6.751
  108SOL     OW 2162   5.227   3.147   1.909
  108SOL    HW1 2163   5.196   3.214   1.970
  108SOL    HW2 2164   5.321   3.162   1.904
  109SOL     OW 2165   4.221   3.207  11.626
  109SOL    HW1 2166   4.186   3.236  11.542
  109SOL    HW2 2167   4.219   3.111  11.621
  110SOL     OW 2168   7.966   8.639  13.251
  110SOL    HW1 2169   8.058   8.651  13.272
  110SOL    HW2 2170   7.960   8.551  13.215
  111SOL     OW 2171  13.554  10.274   1.370
  111SOL    HW1 2172  13.607  10.353   1.381
  111SOL    HW2 2173  13.618  10.205   1.349
  112SOL     OW 2174   3.462   0.554   7.916
  112SOL    HW1 2175   3.511   0.499   7.854
  112SOL    HW2 2176   3.419   0.491   7.974
  113SOL     OW 2177   9.140   4.481  11.733
  113SOL    HW1 2178   9.112   4.390  11.746
  113SOL    HW2 2179   9.150   4.515  11.822
  114SOL     OW 2180   9.341   8.905  11.374
  114SOL    HW1 2181   9.279   8.975  11.396
  114SOL    HW2 2182   9.290   8.825  11.380
  115SOL     OW 2183   0.435   1.614   4.090
  115SOL    HW1 2184   0.493   1.540   4.076
  115SOL    HW2 2185   0.349   1.575   4.106
  116SOL     OW 2186   6.636   5.440  13.677
  116SOL    HW1 2187   6.632   5.378  13.750
  116SOL    HW2 2188   6.695   5.509  13.707
  117SOL     OW 2189   3.364   8.226   0.589
  117SOL    HW1 2190   3.417   8.256   0.515
  117SOL    HW2 2191   3.282   8.276   0.582
  118SOL     OW 2192   3.585   4.947  13.340
  118SOL    HW1 2193   3.564   4.925  13.431
  118SOL    HW2 2194   3.651   4.883  13.314
  119SOL     OW 2195   5.112   2.794  10.419
  119SOL    HW1 2196   5.077   2.744  10.346
  119SOL    HW2 2197   5.050   2.779  10.491
  120SOL     OW 2198   0.596   4.265   6.058
  120SOL    HW1 2199   0.624   4.320   6.131
  120SOL    HW2 2200   0.513   4.304   6.029
  121SOL     OW 2201   3.371   5.439  13.827
  121SOL    HW1 2202   3.449   5.384  13.829
  121SOL    HW2 2203   3.297   5.378  13.824
  122SOL     OW 2204   1.037   2.953   0.169
  122SOL    HW1 2205   1.091   2.910   0.102
  122SOL    HW2 2206   1.023   3.042   0.135
  123SOL     OW 2207   2.894  13.919   7.385
  123SOL    HW1 2208   2.887  13.946   7.293
  123SOL    HW2 2209   2.968  13.858   7.386
  124SOL     OW 2210  13.665   8.992   5.948
  124SOL    HW1 2211  13.699   8.984   5.859
  124SOL    HW2 2212  13.717   8.931   6.000
  125SOL     OW 2213  11.979   8.330   4.059
  125SOL    HW1 2214  11.984   8.245   4.015
  125SOL    HW2 2215  11.891   8.362   4.040
  126SOL     OW 2216  14.220  13.934  12.616
  126SOL    HW1 2217  14.226  14.026  12.641
  126SOL    HW2 2218  14.305  13.915  12.577
  127SOL     OW 2219   2.013   5.231  11.276
  127SOL    HW1 2220   1.933   5.180  11.261
  127SOL    HW2 2221   1.994   5.317  11.238
  128SOL     OW 2222   9.955   7.736   7.710
  128SOL    HW1 2223  10.008   7.815   7.693
  128SOL    HW2 2224   9.997   7.668   7.658
  129SOL     OW 2225  11.271  10.151   2.645
  129SOL    HW1 2226  11.250  10.133   2.737
  129SOL    HW2 2227  11.324  10.231   2.648
  130SOL     OW 2228   5.963   8.084   6.468
  130SOL    HW1 2229   6.000   8.087   6.556
  130SOL    HW2 2230   5.905   8.007   6.469
  131SOL     OW 2231   4.434  11.295   4.609
  131SOL    HW1 2232   4.442  11.389   4.625
  131SOL    HW2 2233   4.524  11.261   4.617
  132SOL     OW 2234   1.439   1.873   4.496
  132SOL    HW1 2235   1.511   1.834   4.545
  132SOL    HW2 2236   1.462   1.859   4.404
  133SOL     OW 2237  12.696   2.168  13.164
  133SOL    HW1 2238  12.642   2.147  13.240
  133SOL    HW2 2239  12.633   2.177  13.092
  134SOL     OW 2240   8.780  14.853  10.084
  134SOL    HW1 2241   8.783  14.775  10.029
  134SOL    HW2 2242   8.734   0.044  10.031
  135SOL     OW 2243   3.257   6.871   9.371
  135SOL    HW1 2244   3.198   6.797   9.383
  135SOL    HW2 2245   3.305   6.878   9.454
  136SOL     OW 2246   3.243   7.072  10.547
  136SOL    HW1 2247   3.228   7.061  10.641
  136SOL    HW2 2248   3.302   7.000  10.523
  137SOL     OW 2249   7.744   9.614   4.644
  137SOL    HW1 2250   7.709   9.696   4.609
  137SOL    HW2 2251   7.804   9.640   4.713
  138SOL     OW 2252   8.263   7.445   1.581
  138SOL    HW1 2253   8.332   7.488   1.632
  138SOL    HW2 2254   8.213   7.518   1.543
  139SOL     OW 2255   2.169   8.087   9.980
  139SOL    HW1 2256   2.123   8.060   9.901
  139SOL    HW2 2257   2.119   8.049  10.052
  140SOL     OW 2258  10.562   6.978   0.198
  140SOL    HW1 2259  10.588   6.886   0.190
  140SOL    HW2 2260  10.525   7.000   0.112
  141SOL     OW 2261   9.094  13.815  14.543
  141SOL    HW1 2262   9.021  13.829  14.483
  141SOL    HW2 2263   9.055  13.770  14.618
  142SOL     OW 2264   6.347   4.007  14.101
  142SOL    HW1 2265   6.397   3.932  14.133
  142SOL    HW2 2266   6.400   4.083  14.124
  143SOL     OW 2267  12.004   4.108   3.015
  143SOL    HW1 2268  12.010   4.126   2.921
  143SOL    HW2 2269  12.094   4.092   3.042
  144SOL     OW 2270   1.737   6.371  14.788
  144SOL    HW1 2271   1.746   6.426  14.865
  144SOL    HW2 2272   1.649   6.335  14.793
  145SOL     OW 2273   3.443   1.996   7.157
  145SOL    HW1 2274   3.449   2.087   7.127
  145SOL    HW2 2275   3.350   1.983   7.176
  146SOL     OW 2276   0.119   7.132  11.195
  146SOL    HW1 2277   0.044   7.113  11.139
  146SOL    HW2 2278   0.175   7.055  11.186
  147SOL     OW 2279   3.475   8.440   3.524
  147SOL    HW1 2280   3.506   8.469   3.610
  147SOL    HW2 2281   3.533   8.368   3.500
  148SOL     OW 2282   4.413   5.449   8.605
  148SOL    HW1 2283   4.445   5.416   8.521
  148SOL    HW2 2284   4.361   5.526   8.582
  149SOL     OW 2285   2.763   8.320   4.688
  149SOL    HW1 2286   2.669   8.330   4.702
  149SOL    HW2 2287   2.775   8.339   4.595
  150SOL     OW 2288  12.525   0.829   2.411
  150SOL    HW1 2289  12.562   0.770   2.476
  150SOL    HW2 2290  12.601   0.875   2.375
  151SOL     OW 2291   1.750   6.988  13.672
  151SOL    HW1 2292   1.772   7.075  13.638
  151SOL    HW2 2293   1.655   6.981  13.661
  152SOL     OW 2294   8.436   6.350   1.587
  152SOL    HW1 2295   8.475   6.345   1.500
  152SOL    HW2 2296   8.342   6.356   1.571
  153SOL     OW 2297   0.345  10.431   6.748
  153SOL    HW1 2298   0.259  10.412   6.711
  153SOL    HW2 2299   0.397  10.462   6.673
  154SOL     OW 2300   2.459   2.686   1.586
  154SOL    HW1 2301   2.434   2.685   1.678
  154SOL    HW2 2302   2.376   2.698   1.539
  155SOL     OW 2303   0.700   7.042   5.514
  155SOL    HW1 2304   0.773   7.061   5.454
  155SOL    HW2 2305   0.633   7.002   5.458
  156SOL     OW 2306   9.219   6.814   6.087
  156SOL    HW1 2307   9.153   6.767   6.139
  156SOL    HW2 2308   9.170   6.855   6.017
  157SOL     OW 2309   7.179   9.309  12.148
  157SOL    HW1 2310   7.251   9.289  12.089
  157SOL    HW2 2311   7.125   9.230  12.148
  158SOL     OW 2312   9.354   3.741  13.807
  158SOL    HW1 2313   9.348   3.811  13.873
  158SOL    HW2 2314   9.264   3.712  13.795
  159SOL     OW 2315   4.493   8.909   3.495
  159SOL    HW1 2316   4.467   8.877   3.581
  159SOL    HW2 2317   4.432   8.867   3.434
  160SOL     OW 2318   2.225   0.499  14.835
  160SOL    HW1 2319   2.252   0.484   0.051
  160SOL    HW2 2320   2.140   0.456  14.828
  161SOL     OW 2321  12.063   1.362   5.895
  161SOL    HW1 2322  12.136   1.332   5.949
  161SOL    HW2 2323  12.103   1.384   5.811
  162SOL     OW 2324  11.010   7.228  14.159
  162SOL    HW1 2325  10.923   7.188  14.160
  162SOL    HW2 2326  11.045   7.206  14.073
  163SOL     OW 2327   3.151  11.588   4.144
  163SOL    HW1 2328   3.184  11.585   4.054
  163SOL    HW2 2329   3.132  11.681   4.158
  164SOL     OW 2330   5.176  14.370  12.075
  164SOL    HW1 2331   5.122  14.292  12.062
  164SOL    HW2 2332   5.240  14.345  12.141
  165SOL     OW 2333  12.811  13.747   2.608
  165SOL    HW1 2334  12.858  13.664   2.619
  165SOL    HW2 2335  12.719  13.724   2.623
  166SOL     OW 2336   4.253  11.279  13.877
  166SOL    HW1 2337   4.331  11.223  13.871
  166SOL    HW2 2338   4.276  11.346  13.941
  167SOL     OW 2339   5.027   0.592   1.467
  167SOL    HW1 2340   5.023   0.672   1.414
  167SOL    HW2 2341   5.061   0.622   1.551
  168SOL     OW 2342   3.126   5.483   5.426
  168SOL    HW1 2343   3.032   5.469   5.422
  168SOL    HW2 2344   3.145   5.495   5.519
  169SOL     OW 2345   0.760   0.928   5.833
  169SOL    HW1 2346   0.677   0.895   5.868
  169SOL    HW2 2347   0.784   1.000   5.891
  170SOL     OW 2348   3.400  12.494  14.201
  170SOL    HW1 2349   3.470  12.438  14.234
  170SOL    HW2 2350   3.343  12.434  14.153
  171SOL     OW 2351   0.762   7.663   2.237
  171SOL    HW1 2352   0.695   7.595   2.245
  171SOL    HW2 2353   0.735   7.730   2.300
  172SOL     OW 2354   6.823  10.771   2.878
  172SOL    HW1 2355   6.846  10.824   2.802
  172SOL    HW2 2356   6.899  10.777   2.936
  173SOL     OW 2357  14.756   3.151  12.593
  173SOL    HW1 2358  14.687   3.217  12.588
  173SOL    HW2 2359  14.740   3.106  12.675
  174SOL     OW 2360   1.586  13.372   1.825
  174SOL    HW1 2361   1.538  13.291   1.845
  174SOL    HW2 2362   1.536  13.441   1.869
  175SOL     OW 2363  13.306   1.355  13.138
  175SOL    HW1 2364  13.381   1.413  13.120
  175SOL    HW2 2365  13.230   1.413  13.133
  176SOL     OW 2366   9.122  14.523   3.801
  176SOL    HW1 2367   9.106  14.498   3.892
  176SOL    HW2 2368   9.197  14.583   3.805
  177SOL     OW 2369   5.751   2.665   5.914
  177SOL    HW1 2370   5.675   2.696   5.962
  177SOL    HW2 2371   5.716   2.641   5.828
  178SOL     OW 2372   1.339   7.151   0.028
  178SOL    HW1 2373   1.370   7.107  14.823
  178SOL    HW2 2374   1.381   7.105   0.100
  179SOL     OW 2375  10.828   7.197  13.825
  179SOL    HW1 2376  10.883   7.221  13.750
  179SOL    HW2 2377  10.799   7.281  13.861
  180SOL     OW 2378  11.096  13.297   9.828
  180SOL    HW1 2379  11.149  13.366   9.869
  180SOL    HW2 2380  11.129  13.291   9.739
  181SOL     OW 2381  10.110   6.448   0.349
  181SOL    HW1 2382  10.084   6.356   0.341
  181SOL    HW2 2383  10.196   6.452   0.307
  182SOL     OW 2384   3.929  14.723   7.844
  182SOL    HW1 2385   3.972  14.787   7.901
  182SOL    HW2 2386   3.887  14.776   7.777
  183SOL     OW 2387   0.242  11.530   1.029
  183SOL    HW1 2388   0.154  11.495   1.022
  183SOL    HW2 2389   0.246  11.571   1.115
  184SOL     OW 2390  13.139  12.339   0.756
  184SOL    HW1 2391  13.117  12.330   0.848
  184SOL    HW2 2392  13.054  12.339   0.711
  185SOL     OW 2393   6.233   4.678   3.279
  185SOL    HW1 2394   6.265   4.604   3.330
  185SOL    HW2 2395   6.247   4.652   3.188
  186SOL     OW 2396   3.819   7.225  12.577
  186SOL    HW1 2397   3.857   7.159  12.519
  186SOL    HW2 2398   3.894   7.270  12.615
  187SOL     OW 2399   9.961   5.951  14.846
  187SOL    HW1 2400   9.915   5.877  14.808
  187SOL    HW2 2401   9.925   6.028  14.801
  188SOL     OW 2402   8.145  13.515   2.803
  188SOL    HW1 2403   8.136  13.585   2.738
  188SOL    HW2 2404   8.055  13.488   2.821
  189SOL     OW 2405  13.654   5.834  10.791
  189SOL    HW1 2406  13.571   5.874  10.815
  189SOL    HW2 2407  13.694   5.810  10.875
  190SOL     OW 2408  10.651   6.652  14.039
  190SOL    HW1 2409  10.677   6.699  14.118
  190SOL    HW2 2410  10.620   6.567  14.070
  191SOL     OW 2411   9.351  13.446   5.390
  191SOL    HW1 2412   9.346  13.540   5.371
  191SOL    HW2 2413   9.264  13.422   5.421
  192SOL     OW 2414  11.911  10.966   2.030
  192SOL    HW1 2415  11.854  11.039   2.057
  192SOL    HW2 2416  11.928  10.918   2.111
  193SOL     OW 2417  10.875  12.068  11.081
  193SOL    HW1 2418  10.796  12.097  11.126
  193SOL    HW2 2419  10.931  12.035  11.151
  194SOL     OW 2420  10.037   3.831   3.385
  194SOL    HW1 2421   9.992   3.797   3.308
  194SOL    HW2 2422   9.968   3.839   3.451
  195SOL     OW 2423  14.594   1.968   9.455
  195SOL    HW1 2424  14.626   1.882   9.483
  195SOL    HW2 2425  14.630   1.979   9.367
  196SOL     OW 2426  12.724  11.037   1.501
  196SOL    HW1 2427  12.665  10.994   1.438
  196SOL    HW2 2428  12.797  11.068   1.448
  197SOL     OW 2429   1.452  11.252   3.927
  197SOL    HW1 2430   1.382  11.229   3.988
  197SOL    HW2 2431   1.497  11.325   3.969
  198SOL     OW 2432  10.904   1.751   2.394
  198SOL    HW1 2433  10.829   1.790   2.350
  198SOL    HW2 2434  10.965   1.731   2.323
  199SOL     OW 2435  11.140   7.302   0.855
  199SOL    HW1 2436  11.112   7.225   0.904
  199SOL    HW2 2437  11.204   7.346   0.912
  200SOL     OW 2438   3.124   2.859   4.243
  200SOL    HW1 2439   3.176   2.866   4.163
  200SOL    HW2 2440   3.188   2.861   4.313
  201SOL     OW 2441   7.265   5.464   7.434
  201SOL    HW1 2442   7.240   5.531   7.370
  201SOL    HW2 2443   7.354   5.489   7.460
  202SOL     OW 2444   8.170   4.262   9.673
  202SOL    HW1 2445   8.085   4.222   9.692
  202SOL    HW2 2446   8.229   4.223   9.737
  203SOL     OW 2447   1.444   5.526  11.141
  203SOL    HW1 2448   1.436   5.531  11.046
  203SOL    HW2 2449   1.482   5.610  11.167
  204SOL     OW 2450  10.474   8.945   7.876
  204SOL    HW1 2451  10.475   8.970   7.784
  204SOL    HW2 2452  10.565   8.925   7.897
  205SOL     OW 2453  13.273   1.042  13.629
  205SOL    HW1 2454  13.183   1.029  13.660
  205SOL    HW2 2455  13.312   1.101  13.694
  206SOL     OW 2456   7.100   4.528  11.371
  206SOL    HW1 2457   7.149   4.558  11.447
  206SOL    HW2 2458   7.041   4.461  11.404
  207SOL     OW 2459  12.324   7.285   8.803
  207SOL    HW1 2460  12.269   7.215   8.840
  207SOL    HW2 2461  12.375   7.317   8.877
  208SOL     OW 2462   2.110  11.001   2.200
  208SOL    HW1 2463   2.085  11.055   2.275
  208SOL    HW2 2464   2.026  10.976   2.160
  209SOL     OW 2465   4.075   8.482  13.006
  209SOL    HW1 2466   4.050   8.433  12.927
  209SOL    HW2 2467   4.103   8.414  13.068
  210SOL     OW 2468   1.514   6.927   3.884
  210SOL    HW1 2469   1.450   6.899   3.819
  210SOL    HW2 2470   1.498   6.869   3.959
  211SOL     OW 2471  10.427   2.430   5.418
  211SOL    HW1 2472  10.436   2.525   5.414
  211SOL    HW2 2473  10.514   2.397   5.394
  212SOL     OW 2474   3.582  13.267   4.409
  212SOL    HW1 2475   3.656  13.325   4.425
  212SOL    HW2 2476   3.561  13.280   4.316
  213SOL     OW 2477   8.299   1.233  10.075
  213SOL    HW1 2478   8.318   1.261  10.164
  213SOL    HW2 2479   8.220   1.180  10.082
  214SOL     OW 2480   2.689   2.308   0.728
  214SOL    HW1 2481   2.762   2.340   0.675
  214SOL    HW2 2482   2.704   2.214   0.735
  215SOL     OW 2483   9.836   0.971  14.767
  215SOL    HW1 2484   9.814   1.064  14.775
  215SOL    HW2 2485   9.799   0.944  14.683
  216SOL     OW 2486  13.259  12.924   2.608
  216SOL    HW1 2487  13.208  12.892   2.534
  216SOL    HW2 2488  13.331  12.972   2.568
  217SOL     OW 2489   4.063  14.256   3.333
  217SOL    HW1 2490   4.026  14.256   3.422
  217SOL    HW2 2491   4.108  14.172   3.326
  218SOL     OW 2492  10.341  12.612  12.936
  218SOL    HW1 2493  10.303  12.540  12.884
  218SOL    HW2 2494  10.316  12.592  13.026
  219SOL     OW 2495   7.406   4.848   8.184
  219SOL    HW1 2496   7.484   4.890   8.148
  219SOL    HW2 2497   7.361   4.919   8.231
  220SOL     OW 2498   4.150  12.373   1.690
  220SOL    HW1 2499   4.208  12.411   1.624
  220SOL    HW2 2500   4.127  12.446   1.747
  221SOL     OW 2501   8.227   8.988   0.540
  221SOL    HW1 2502   8.256   8.936   0.465
  221SOL    HW2 2503   8.205   8.924   0.608
  222SOL     OW 2504   7.372   6.091   6.889
  222SOL    HW1 2505   7.375   6.186   6.886
  222SOL    HW2 2506   7.379   6.064   6.797
  223SOL     OW 2507   8.929   6.758  10.205
  223SOL    HW1 2508   8.894   6.846  10.218
  223SOL    HW2 2509   8.857   6.700  10.228
  224SOL     OW 2510   8.528  12.665   4.273
  224SOL    HW1 2511   8.434  12.683   4.268
  224SOL    HW2 2512   8.534  12.571   4.290
  225SOL     OW 2513   9.687   7.847   3.449
  225SOL    HW1 2514   9.679   7.921   3.389
  225SOL    HW2 2515   9.688   7.886   3.537
  226SOL     OW 2516   0.249  10.542  10.654
  226SOL    HW1 2517   0.154  10.533  10.660
  226SOL    HW2 2518   0.263  10.584  10.569
  227SOL     OW 2519   3.797  12.038  12.144
  227SOL    HW1 2520   3.803  12.032  12.240
  227SOL    HW2 2521   3.742  11.964  12.119
  228SOL     OW 2522  11.458   5.735  10.648
  228SOL    HW1 2523  11.456   5.712  10.741
  228SOL    HW2 2524  11.401   5.670  10.606
  229SOL     OW 2525  14.305   8.000   1.094
  229SOL    HW1 2526  14.277   8.058   1.023
  229SOL    HW2 2527  14.223   7.967   1.131
  230SOL     OW 2528   1.116   8.631   1.236
  230SOL    HW1 2529   1.089   8.631   1.144
  230SOL    HW2 2530   1.211   8.630   1.233
  231SOL     OW 2531   6.914  12.393   4.776
  231SOL    HW1 2532   6.970  12.349   4.712
  231SOL    HW2 2533   6.861  12.323   4.814
  232SOL     OW 2534   2.793   8.680  12.651
  232SOL    HW1 2535   2.802   8.598  12.603
  232SOL    HW2 2536   2.838   8.665  12.734
  233SOL     OW 2537   7.271   6.137   4.119
  233SOL    HW1 2538   7.208   6.140   4.047
  233SOL    HW2 2539   7.325   6.215   4.107
  234SOL     OW 2540   8.630   5.955  13.386
  234SOL    HW1 2541   8.684   5.946  13.307
  234SOL    HW2 2542   8.546   5.915  13.362
  235SOL     OW 2543   9.043   8.775   9.068
  235SOL    HW1 2544   9.055   8.793   9.161
  235SOL    HW2 2545   8.974   8.709   9.065
  236SOL     OW 2546  12.604   0.776  12.097
  236SOL    HW1 2547  12.614   0.696  12.045
  236SOL    HW2 2548  12.687   0.786  12.143
  237SOL     OW 2549   2.082   9.590   0.919
  237SOL    HW1 2550   2.017   9.649   0.880
  237SOL    HW2 2551   2.063   9.504   0.882
  238SOL     OW 2552  10.555   8.274   4.960
  238SOL    HW1 2553  10.514   8.320   5.034
  238SOL    HW2 2554  10.641   8.248   4.993
  239SOL     OW 2555   8.216   0.617   9.004
  239SOL    HW1 2556   8.238   0.695   8.954
  239SOL    HW2 2557   8.166   0.650   9.079
  240SOL     OW 2558  10.259   4.400   1.656
  240SOL    HW1 2559  10.299   4.399   1.744
  240SOL    HW2 2560  10.168   4.427   1.672
  241SOL     OW 2561   3.763   3.555   0.392
  241SOL    HW1 2562   3.840   3.531   0.443
  241SOL    HW2 2563   3.703   3.595   0.456
  242SOL     OW 2564   3.013   7.577  14.434
  242SOL    HW1 2565   3.029   7.627  14.514
  242SOL    HW2 2566   2.939   7.620  14.392
  243SOL     OW 2567  10.304   2.952   9.211
  243SOL    HW1 2568  10.213   2.968   9.238
  243SOL    HW2 2569  10.338   2.893   9.278
  244SOL     OW 2570   2.695   7.217  12.275
  244SOL    HW1 2571   2.707   7.282  12.345
  244SOL    HW2 2572   2.653   7.265  12.204
  245SOL     OW 2573   3.750   0.581  14.129
  245SOL    HW1 2574   3.827   0.619  14.088
  245SOL    HW2 2575   3.680   0.591  14.064
  246SOL     OW 2576   6.117  11.897   4.361
  246SOL    HW1 2577   6.173  11.857   4.428
  246SOL    HW2 2578   6.159  11.874   4.278
  247SOL     OW 2579   0.461  14.285   6.865
  247SOL    HW1 2580   0.511  14.363   6.842
  247SOL    HW2 2581   0.460  14.232   6.785
  248SOL     OW 2582   2.832   2.906  13.505
  248SOL    HW1 2583   2.774   2.830  13.514
  248SOL    HW2 2584   2.790   2.975  13.556
  249SOL     OW 2585   4.415  13.793  10.532
  249SOL    HW1 2586   4.470  13.723  10.568
  249SOL    HW2 2587   4.341  13.747  10.494
  250SOL     OW 2588  14.443   7.126   1.085
  250SOL    HW1 2589  14.492   7.121   1.003
  250SOL    HW2 2590  14.478   7.203   1.129
  251SOL     OW 2591  14.848   5.913  12.181
  251SOL    HW1 2592  14.779   5.854  12.214
  251SOL    HW2 2593  14.807   5.999  12.178
  252SOL     OW 2594  11.775  11.936   1.798
  252SOL    HW1 2595  11.813  12.022   1.782
  252SOL    HW2 2596  11.683  11.953   1.817
  253SOL     OW 2597   1.978  10.561   2.849
  253SOL    HW1 2598   2.027  10.612   2.913
  253SOL    HW2 2599   2.027  10.480   2.838
  254SOL     OW 2600   3.886   7.007   8.785
  254SOL    HW1 2601   3.925   6.934   8.737
  254SOL    HW2 2602   3.799   6.976   8.808
  255SOL     OW 2603   1.097   4.644   4.367
  255SOL    HW1 2604   1.152   4.606   4.435
  255SOL    HW2 2605   1.156   4.699   4.316
  256SOL     OW 2606   2.301   2.906   0.722
  256SOL    HW1 2607   2.320   2.952   0.641
  256SOL    HW2 2608   2.362   2.832   0.724
  257SOL     OW 2609   1.585  11.158   0.620
  257SOL    HW1 2610   1.543  11.236   0.656
  257SOL    HW2 2611   1.623  11.187   0.537
  258SOL     OW 2612  13.119  14.422  10.095
  258SOL    HW1 2613  13.170  14.497  10.065
  258SOL    HW2 2614  13.184  14.357  10.122
  259SOL     OW 2615   3.770   9.484   0.007
  259SOL    HW1 2616   3.687   9.527  14.859
  259SOL    HW2 2617   3.806   9.458  14.797
  260SOL     OW 2618   1.628   2.889   6.362
  260SOL    HW1 2619   1.685   2.899   6.285
  260SOL    HW2 2620   1.683   2.846   6.427
  261SOL     OW 2621   8.886   9.154   1.679
  261SOL    HW1 2622   8.928   9.230   1.639
  261SOL    HW2 2623   8.831   9.118   1.609
  262SOL     OW 2624   6.374   5.072   5.374
  262SOL    HW1 2625   6.416   5.067   5.288
  262SOL    HW2 2626   6.436   5.029   5.433
  263SOL     OW 2627  12.354   5.903   4.541
  263SOL    HW1 2628  12.261   5.884   4.554
  263SOL    HW2 2629  12.356   5.960   4.464
  264SOL     OW 2630   5.200  11.029   9.744
  264SOL    HW1 2631   5.127  11.028   9.806
  264SOL    HW2 2632   5.172  11.088   9.674
  265SOL     OW 2633   8.597  10.104   0.297
  265SOL    HW1 2634   8.536  10.176   0.281
  265SOL    HW2 2635   8.665  10.114   0.230
  266SOL     OW 2636   2.968   0.785   0.257
  266SOL    HW1 2637   2.894   0.818   0.205
  266SOL    HW2 2638   3.039   0.774   0.193
  267SOL     OW 2639  13.784   8.503   5.770
  267SOL    HW1 2640  13.736   8.445   5.710
  267SOL    HW2 2641  13.865   8.524   5.723
  268SOL     OW 2642   5.653  14.588   4.310
  268SOL    HW1 2643   5.692  14.501   4.308
  268SOL    HW2 2644   5.705  14.639   4.247
  269SOL     OW 2645   6.603  11.868   2.307
  269SOL    HW1 2646   6.542  11.935   2.276
  269SOL    HW2 2647   6.673  11.917   2.350
  270SOL     OW 2648   4.017  13.266   2.666
  270SOL    HW1 2649   4.090  13.220   2.624
  270SOL    HW2 2650   4.058  13.320   2.734
  271SOL     OW 2651  13.644   4.172  11.258
  271SOL    HW1 2652  13.579   4.104  11.236
  271SOL    HW2 2653  13.673   4.149  11.346
  272SOL     OW 2654  13.955  14.117   7.693
  272SOL    HW1 2655  13.953  14.068   7.611
  272SOL    HW2 2656  13.873  14.166   7.695
  273SOL     OW 2657   4.727   0.409  14.329
  273SOL    HW1 2658   4.819   0.434  14.317
  273SOL    HW2 2659   4.679   0.468  14.271
  274SOL     OW 2660   5.656   8.009   1.092
  274SOL    HW1 2661   5.611   8.081   1.049
  274SOL    HW2 2662   5.743   8.007   1.051
  275SOL     OW 2663   4.619  11.982   3.201
  275SOL    HW1 2664   4.537  12.030   3.212
  275SOL    HW2 2665   4.687  12.049   3.205
  276SOL     OW 2666   7.774  12.837  12.109
  276SOL    HW1 2667   7.800  12.920  12.150
  276SOL    HW2 2668   7.853  12.807  12.062
  277SOL     OW 2669   7.672   6.087  12.711
  277SOL    HW1 2670   7.673   6.006  12.659
  277SOL    HW2 2671   7.605   6.141  12.669
  278SOL     OW 2672   9.523  13.571   9.898
  278SOL    HW1 2673   9.476  13.525   9.828
  278SOL    HW2 2674   9.598  13.612   9.855
  279SOL     OW 2675  12.431  10.448   6.473
  279SOL    HW1 2676  12.392  10.513   6.413
  279SOL    HW2 2677  12.358  10.421   6.528
  280SOL     OW 2678  11.083   1.181   1.451
  280SOL    HW1 2679  11.093   1.276   1.447
  280SOL    HW2 2680  11.034   1.159   1.371
  281SOL     OW 2681  14.423   1.719   2.120
  281SOL    HW1 2682  14.465   1.805   2.110
  281SOL    HW2 2683  14.376   1.706   2.037
  282SOL     OW 2684  11.570   0.239   3.637
  282SOL    HW1 2685  11.630   0.165   3.631
  282SOL    HW2 2686  11.498   0.208   3.692
  283SOL     OW 2687   1.533   2.799  14.225
  283SOL    HW1 2688   1.490   2.825  14.144
  283SOL    HW2 2689   1.550   2.881  14.272
  284SOL     OW 2690   9.512   1.938   3.665
  284SOL    HW1 2691   9.474   2.022   3.639
  284SOL    HW2 2692   9.452   1.903   3.731
  285SOL     OW 2693   4.501   7.342   9.348
  285SOL    HW1 2694   4.513   7.437   9.349
  285SOL    HW2 2695   4.583   7.306   9.380
  286SOL     OW 2696  13.447   4.324   3.046
  286SOL    HW1 2697  13.460   4.398   2.987
  286SOL    HW2 2698  13.530   4.317   3.094
  287SOL     OW 2699   6.332  13.643  10.038
  287SOL    HW1 2700   6.268  13.578  10.011
  287SOL    HW2 2701   6.364  13.681   9.956
  288SOL     OW 2702   0.935   2.851   3.131
  288SOL    HW1 2703   0.990   2.885   3.061
  288SOL    HW2 2704   0.930   2.923   3.195
  289SOL     OW 2705   3.462   3.957   3.426
  289SOL    HW1 2706   3.378   3.964   3.472
  289SOL    HW2 2707   3.439   3.928   3.338
  290SOL     OW 2708   5.465   4.102   3.123
  290SOL    HW1 2709   5.424   4.182   3.092
  290SOL    HW2 2710   5.435   4.093   3.213
  291SOL     OW 2711   4.045   5.180   1.342
  291SOL    HW1 2712   4.059   5.220   1.428
  291SOL    HW2 2713   3.980   5.236   1.300
  292SOL     OW 2714   4.483   8.460   7.080
  292SOL    HW1 2715   4.437   8.402   7.019
  292SOL    HW2 2716   4.574   8.430   7.077
  293SOL     OW 2717   9.397   7.935   8.633
  293SOL    HW1 2718   9.319   7.945   8.687
  293SOL    HW2 2719   9.468   7.918   8.695
  294SOL     OW 2720   2.235   1.374   9.207
  294SOL    HW1 2721   2.324   1.339   9.200
  294SOL    HW2 2722   2.184   1.317   9.150
  295SOL     OW 2723   0.689   9.581  14.427
  295SOL    HW1 2724   0.630   9.567  14.501
  295SOL    HW2 2725   0.632   9.586  14.351
  296SOL     OW 2726   6.430   4.512  10.935
  296SOL    HW1 2727   6.356   4.506  10.995
  296SOL    HW2 2728   6.446   4.421  10.908
  297SOL     OW 2729   8.627  13.146   6.866
  297SOL    HW1 2730   8.540  13.186   6.858
  297SOL    HW2 2731   8.635  13.126   6.959
  298SOL     OW 2732   7.221  10.912   8.030
  298SOL    HW1 2733   7.250  10.999   8.058
  298SOL    HW2 2734   7.246  10.854   8.102
  299SOL     OW 2735   6.274  10.431   7.080
  299SOL    HW1 2736   6.295  10.516   7.040
  299SOL    HW2 2737   6.352  10.378   7.064
  300SOL     OW 2738  13.348   0.138   2.494
  300SOL    HW1 2739  13.427   0.162   2.542
  300SOL    HW2 2740  13.280   0.196   2.530
  301SOL     OW 2741   9.397   9.789  13.890
  301SOL    HW1 2742   9.376   9.818  13.801
  301SOL    HW2 2743   9.313   9.763  13.927
  302SOL     OW 2744   6.538   6.625  14.763
  302SOL    HW1 2745   6.493   6.546  14.792
  302SOL    HW2 2746   6.556   6.610  14.671
  303SOL     OW 2747  14.193  10.673   7.319
  303SOL    HW1 2748  14.223  10.649   7.406
  303SOL    HW2 2749  14.265  10.725   7.283
  304SOL     OW 2750   1.187  10.125   7.328
  304SOL    HW1 2751   1.169  10.215   7.357
  304SOL    HW2 2752   1.282  10.119   7.327
  305SOL     OW 2753   4.352   2.985  14.625
  305SOL    HW1 2754   4.345   3.067  14.673
  305SOL    HW2 2755   4.353   2.917  14.692
  306SOL     OW 2756  13.949  13.427   7.596
  306SOL    HW1 2757  13.958  13.399   7.505
  306SOL    HW2 2758  13.867  13.388   7.625
  307SOL     OW 2759   4.948  10.389   5.946
  307SOL    HW1 2760   5.017  10.330   5.978
  307SOL    HW2 2761   4.995  10.452   5.892
  308SOL     OW 2762  12.298   1.678  11.609
  308SOL    HW1 2763  12.241   1.717  11.675
  308SOL    HW2 2764  12.288   1.584  11.621
  309SOL     OW 2765   2.621  10.726   8.628
  309SOL    HW1 2766   2.567  10.659   8.586
  309SOL    HW2 2767   2.593  10.724   8.720
  310SOL     OW 2768  13.778  12.959   8.612
  310SOL    HW1 2769  13.843  13.002   8.667
  310SOL    HW2 2770  13.824  12.884   8.574
  311SOL     OW 2771   0.519  13.603   3.777
  311SOL    HW1 2772   0.562  13.686   3.760
  311SOL    HW2 2773   0.480  13.579   3.693
  312SOL     OW 2774   4.679   2.428   0.750
  312SOL    HW1 2775   4.585   2.427   0.735
  312SOL    HW2 2776   4.704   2.520   0.740
  313SOL     OW 2777   5.191   8.297   8.813
  313SOL    HW1 2778   5.250   8.222   8.809
  313SOL    HW2 2779   5.247   8.372   8.792
  314SOL     OW 2780   1.714   9.900   5.024
  314SOL    HW1 2781   1.630   9.903   4.978
  314SOL    HW2 2782   1.709   9.821   5.078
  315SOL     OW 2783  14.554  12.879  11.915
  315SOL    HW1 2784  14.556  12.787  11.888
  315SOL    HW2 2785  14.646  12.901  11.933
  316SOL     OW 2786   6.235  10.263  11.141
  316SOL    HW1 2787   6.245  10.246  11.048
  316SOL    HW2 2788   6.272  10.351  11.154
  317SOL     OW 2789  11.201  11.291   6.889
  317SOL    HW1 2790  11.195  11.374   6.937
  317SOL    HW2 2791  11.285  11.254   6.915
  318SOL     OW 2792   2.602   9.495  11.523
  318SOL    HW1 2793   2.584   9.578  11.480
  318SOL    HW2 2794   2.694   9.500  11.549
  319SOL     OW 2795   4.443   3.959   8.656
  319SOL    HW1 2796   4.405   3.925   8.575
  319SOL    HW2 2797   4.470   3.881   8.705
  320SOL     OW 2798   1.600   0.801   4.427
  320SOL    HW1 2799   1.618   0.871   4.365
  320SOL    HW2 2800   1.567   0.729   4.373
  321SOL     OW 2801  14.648   0.355   1.296
  321SOL    HW1 2802  14.667   0.368   1.389
  321SOL    HW2 2803  14.700   0.279   1.272
  322SOL     OW 2804  12.901   1.608  12.231
  322SOL    HW1 2805  12.869   1.680  12.286
  322SOL    HW2 2806  12.825   1.579  12.182
  323SOL     OW 2807   0.244  14.783   2.992
  323SOL    HW1 2808   0.203  14.818   3.071
  323SOL    HW2 2809   0.182  14.716   2.961
  324SOL     OW 2810   2.726  13.363   7.700
  324SOL    HW1 2811   2.795  13.429   7.699
  324SOL    HW2 2812   2.648  13.410   7.730
  325SOL     OW 2813  11.979  13.536  14.560
  325SOL    HW1 2814  11.936  13.459  14.597
  325SOL    HW2 2815  12.071  13.510  14.552
  326SOL     OW 2816   2.630  10.421   8.717
  326SOL    HW1 2817   2.716  10.379   8.717
  326SOL    HW2 2818   2.645  10.506   8.758
  327SOL     OW 2819   1.769   5.058   5.897
  327SOL    HW1 2820   1.809   5.068   5.983
  327SOL    HW2 2821   1.757   4.963   5.887
  328SOL     OW 2822  11.056   0.894   3.236
  328SOL    HW1 2823  10.999   0.819   3.249
  328SOL    HW2 2824  11.127   0.861   3.181
  329SOL     OW 2825  13.138  13.096  12.968
  329SOL    HW1 2826  13.159  13.157  13.039
  329SOL    HW2 2827  13.222  13.055  12.947
  330SOL     OW 2828   7.939   0.926   9.860
  330SOL    HW1 2829   7.876   0.868   9.817
  330SOL    HW2 2830   7.901   1.013   9.851
  331SOL     OW 2831   3.839   8.489  11.070
  331SOL    HW1 2832   3.784   8.564  11.049
  331SOL    HW2 2833   3.921   8.505  11.023
  332SOL     OW 2834   7.662   8.280   3.736
  332SOL    HW1 2835   7.721   8.350   3.766
  332SOL    HW2 2836   7.664   8.286   3.641
  333SOL     OW 2837   5.282   4.748  13.753
  333SOL    HW1 2838   5.268   4.718  13.843
  333SOL    HW2 2839   5.285   4.843  13.760
  334SOL     OW 2840   4.959  11.802   2.931
  334SOL    HW1 2841   4.938  11.885   2.974
  334SOL    HW2 2842   5.018  11.758   2.992
  335SOL     OW 2843   2.578   6.121   6.572
  335SOL    HW1 2844   2.489   6.109   6.536
  335SOL    HW2 2845   2.631   6.058   6.524
  336SOL     OW 2846   5.594  11.517  12.163
  336SOL    HW1 2847   5.669  11.551  12.114
  336SOL    HW2 2848   5.623  11.431  12.194
  337SOL     OW 2849   6.583   4.271  11.150
  337SOL    HW1 2850   6.538   4.352  11.172
  337SOL    HW2 2851   6.676   4.294  11.149
  338SOL     OW 2852  11.374   4.073   5.000
  338SOL    HW1 2853  11.281   4.058   5.016
  338SOL    HW2 2854  11.403   4.124   5.076
  339SOL     OW 2855   3.911   7.779  10.786
  339SOL    HW1 2856   3.914   7.722  10.863
  339SOL    HW2 2857   3.940   7.864  10.818
  340SOL     OW 2858  13.028  14.548   1.965
  340SOL    HW1 2859  13.086  14.609   2.010
  340SOL    HW2 2860  13.003  14.594   1.884
  341SOL     OW 2861   6.447   4.233  10.893
  341SOL    HW1 2862   6.505   4.230  10.969
  341SOL    HW2 2863   6.371   4.181  10.919
  342SOL     OW 2864  10.927  11.595  10.251
  342SOL    HW1 2865  10.958  11.679  10.217
  342SOL    HW2 2866  11.007  11.547  10.272
  343SOL     OW 2867   0.992   4.568   2.886
  343SOL    HW1 2868   1.048   4.582   2.963
  343SOL    HW2 2869   1.035   4.498   2.837
  344SOL     OW 2870   9.509  10.273  12.463
  344SOL    HW1 2871   9.527  10.361  12.430
  344SOL    HW2 2872   9.420  10.278  12.496
  345SOL     OW 2873  13.105  10.879   6.283
  345SOL    HW1 2874  13.111  10.939   6.208
  345SOL    HW2 2875  13.069  10.798   6.245
  346SOL     OW 2876   9.696   4.475   0.397
  346SOL    HW1 2877   9.663   4.482   0.486
  346SOL    HW2 2878   9.786   4.508   0.402
  347SOL     OW 2879   0.895   2.097   8.555
  347SOL    HW1 2880   0.949   2.018   8.559
  347SOL    HW2 2881   0.827   2.083   8.620
  348SOL     OW 2882   9.716   7.936   3.697
  348SOL    HW1 2883   9.660   7.873   3.742
  348SOL    HW2 2884   9.660   8.012   3.681
  349SOL     OW 2885  12.750   0.670   6.939
  349SOL    HW1 2886  12.784   0.581   6.953
  349SOL    HW2 2887  12.816   0.712   6.883
  350SOL     OW 2888  11.682   3.037   4.962
  350SOL    HW1 2889  11.735   3.087   4.900
  350SOL    HW2 2890  11.632   3.103   5.010
  351SOL     OW 2891   4.447   9.299   8.966
  351SOL    HW1 2892   4.372   9.315   9.023
  351SOL    HW2 2893   4.436   9.361   8.894
  352SOL     OW 2894   1.711   9.984   2.477
  352SOL    HW1 2895   1.625   9.988   2.519
  352SOL    HW2 2896   1.697  10.022   2.390
  353SOL     OW 2897   2.537   1.227   2.358
  353SOL    HW1 2898   2.459   1.208   2.410
  353SOL    HW2 2899   2.610   1.203   2.415
  354SOL     OW 2900  13.833   8.471  12.784
  354SOL    HW1 2901  13.815   8.509  12.698
  354SOL    HW2 2902  13.747   8.458  12.823
  355SOL     OW 2903   0.569   5.848   5.102
  355SOL    HW1 2904   0.563   5.879   5.011
  355SOL    HW2 2905   0.483   5.814   5.122
  356SOL     OW 2906   4.507  13.064   9.153
  356SOL    HW1 2907   4.455  13.138   9.185
  356SOL    HW2 2908   4.481  13.055   9.062
  357SOL     OW 2909   4.615  10.397  12.334
  357SOL    HW1 2910   4.703  10.418  12.304
  357SOL    HW2 2911   4.626  10.374  12.426
  358SOL     OW 2912   2.383  14.046  13.968
  358SOL    HW1 2913   2.400  13.987  14.041
  358SOL    HW2 2914   2.470  14.074  13.940
  359SOL     OW 2915   4.010  11.757   5.854
  359SOL    HW1 2916   4.071  11.688   5.881
  359SOL    HW2 2917   3.925  11.714   5.847
  360SOL     OW 2918   2.141   0.631   4.800
  360SOL    HW1 2919   2.122   0.616   4.708
  360SOL    HW2 2920   2.205   0.702   4.800
  361SOL     OW 2921   4.917   9.733   6.119
  361SOL    HW1 2922   4.984   9.733   6.187
  361SOL    HW2 2923   4.935   9.812   6.068
  362SOL     OW 2924   7.774   8.641  14.490
  362SOL    HW1 2925   7.861   8.622  14.456
  362SOL    HW2 2926   7.771   8.596  14.575
  363SOL     OW 2927   8.210   4.929  11.604
  363SOL    HW1 2928   8.210   4.935  11.509
  363SOL    HW2 2929   8.148   4.995  11.633
  364SOL     OW 2930  14.647  12.334   4.699
  364SOL    HW1 2931  14.592  12.376   4.634
  364SOL    HW2 2932  14.606  12.249   4.714
  365SOL     OW 2933   1.123  13.756   5.315
  365SOL    HW1 2934   1.080  13.819   5.257
  365SOL    HW2 2935   1.120  13.673   5.267
  366SOL     OW 2936   8.511   6.517  13.479
  366SOL    HW1 2937   8.521   6.602  13.522
  366SOL    HW2 2938   8.505   6.538  13.386
  367SOL     OW 2939   2.829   2.511  12.854
  367SOL    HW1 2940   2.915   2.487  12.888
  367SOL    HW2 2941   2.839   2.508  12.759
  368SOL     OW 2942   0.278   9.255   4.342
  368SOL    HW1 2943   0.310   9.317   4.408
  368SOL    HW2 2944   0.221   9.306   4.286
  369SOL     OW 2945   6.651  11.355   0.494
  369SOL    HW1 2946   6.572  11.380   0.447
  369SOL    HW2 2947   6.621  11.304   0.569
  370SOL     OW 2948   8.810   6.126   6.869
  370SOL    HW1 2949   8.755   6.136   6.947
  370SOL    HW2 2950   8.757   6.075   6.808
  371SOL     OW 2951   4.492  13.939   5.374
  371SOL    HW1 2952   4.502  13.857   5.325
  371SOL    HW2 2953   4.561  13.935   5.441
  372SOL     OW 2954   9.904   6.424   3.253
  372SOL    HW1 2955   9.955   6.480   3.195
  372SOL    HW2 2956   9.903   6.471   3.336
  373SOL     OW 2957  14.514  13.622   6.038
  373SOL    HW1 2958  14.436  13.627   5.983
  373SOL    HW2 2959  14.485  13.656   6.123
  374SOL     OW 2960   9.874   6.596   0.726
  374SOL    HW1 2961   9.913   6.654   0.791
  374SOL    HW2 2962   9.947   6.571   0.669
  375SOL     OW 2963   9.593  12.182  13.146
  375SOL    HW1 2964   9.612  12.183  13.053
  375SOL    HW2 2965   9.503  12.216  13.152
  376SOL     OW 2966   3.956   5.222   8.669
  376SOL    HW1 2967   4.031   5.272   8.702
  376SOL    HW2 2968   3.891   5.289   8.647
  377SOL     OW 2969   9.484   0.800   2.918
  377SOL    HW1 2970   9.451   0.782   3.006
  377SOL    HW2 2971   9.548   0.870   2.931
  378SOL     OW 2972   9.970   6.176   7.391
  378SOL    HW1 2973   9.940   6.123   7.464
  378SOL    HW2 2974  10.037   6.123   7.348
  379SOL     OW 2975  12.714   7.894  10.032
  379SOL    HW1 2976  12.660   7.833   9.982
  379SOL    HW2 2977  12.661   7.973  10.038
  380SOL     OW 2978   6.245  12.082  12.235
  380SOL    HW1 2979   6.298  12.124  12.168
  380SOL    HW2 2980   6.186  12.151  12.266
  381SOL     OW 2981  12.309   3.728   1.134
  381SOL    HW1 2982  12.335   3.753   1.223
  381SOL    HW2 2983  12.227   3.681   1.146
  382SOL     OW 2984   7.558   6.736   7.123
  382SOL    HW1 2985   7.575   6.819   7.168
  382SOL    HW2 2986   7.590   6.749   7.034
  383SOL     OW 2987   9.412  10.949   4.135
  383SOL    HW1 2988   9.435  11.042   4.129
  383SOL    HW2 2989   9.322  10.948   4.166
  384SOL     OW 2990   5.308   7.063   9.513
  384SOL    HW1 2991   5.358   7.034   9.589
  384SOL    HW2 2992   5.340   7.152   9.496
  385SOL     OW 2993   6.579   4.158   7.146
  385SOL    HW1 2994   6.644   4.144   7.215
  385SOL    HW2 2995   6.522   4.227   7.180
  386SOL     OW 2996   4.237   5.114   6.736
  386SOL    HW1 2997   4.178   5.049   6.773
  386SOL    HW2 2998   4.262   5.078   6.651
  387SOL     OW 2999   8.537  12.344   1.775
  387SOL    HW1 3000   8.618  12.352   1.725
  387SOL    HW2 3001   8.528  12.250   1.791
  388SOL     OW 3002  12.586   9.346  11.772
  388SOL    HW1 3003  12.587   9.432  11.729
  388SOL    HW2 3004  12.497   9.314  11.760
  389SOL     OW 3005   7.934   5.601  10.462
  389SOL    HW1 3006   7.965   5.690  10.479
  389SOL    HW2 3007   7.841   5.611  10.442
  390SOL     OW 3008   9.424  13.522   4.058
  390SOL    HW1 3009   9.358  13.553   4.120
  390SOL    HW2 3010   9.374  13.487   3.985
  391SOL     OW 3011   4.877  13.769   6.572
  391SOL    HW1 3012   4.940  13.839   6.560
  391SOL    HW2 3013   4.871  13.726   6.486
  392SOL     OW 3014  10.075   5.530  12.484
  392SOL    HW1 3015  10.104   5.607  12.532
  392SOL    HW2 3016   9.999   5.560  12.434
  393SOL     OW 3017  10.022   2.908   2.427
  393SOL    HW1 3018   9.959   2.951   2.368
  393SOL    HW2 3019  10.106   2.946   2.402
  394SOL     OW 3020   4.744   5.497   2.635
  394SOL    HW1 3021   4.830   5.457   2.643
  394SOL    HW2 3022   4.723   5.529   2.723
  395SOL     OW 3023   6.512   3.075   2.373
  395SOL    HW1 3024   6.427   3.031   2.380
  395SOL    HW2 3025   6.573   3.017   2.418
  396SOL     OW 3026   6.737   5.510   5.535
  396SOL    HW1 3027   6.758   5.417   5.526
  396SOL    HW2 3028   6.659   5.522   5.481
  397SOL     OW 3029   5.609   6.836   5.814
  397SOL    HW1 3030   5.591   6.743   5.799
  397SOL    HW2 3031   5.531   6.868   5.860
  398SOL     OW 3032   2.961  13.134   4.725
  398SOL    HW1 3033   2.926  13.115   4.638
  398SOL    HW2 3034   2.886  13.126   4.783
  399SOL     OW 3035   3.575  12.419   8.378
  399SOL    HW1 3036   3.502  12.420   8.440
  399SOL    HW2 3037   3.631  12.492   8.407
  400SOL     OW 3038   9.931   6.998   7.000
  400SOL    HW1 3039   9.918   6.973   7.092
  400SOL    HW2 3040   9.857   6.960   6.954
  401SOL     OW 3041   7.523   8.378  13.530
  401SOL    HW1 3042   7.457   8.336  13.585
  401SOL    HW2 3043   7.546   8.458  13.577
  402SOL     OW 3044  13.760   3.440   6.053
  402SOL    HW1 3045  13.823   3.413   6.119
  402SOL    HW2 3046  13.749   3.534   6.067
  403SOL     OW 3047  12.906   6.091  14.668
  403SOL    HW1 3048  12.911   6.076  14.763
  403SOL    HW2 3049  12.918   6.005  14.629
  404SOL     OW 3050   8.228  11.072   2.362
  404SOL    HW1 3051   8.179  11.069   2.444
  404SOL    HW2 3052   8.317  11.046   2.386
  405SOL     OW 3053   3.083   4.939   7.621
  405SOL    HW1 3054   3.146   4.871   7.642
  405SOL    HW2 3055   3.113   4.976   7.538
  406SOL     OW 3056  14.495  10.582   1.627
  406SOL    HW1 3057  14.496  10.582   1.531
  406SOL    HW2 3058  14.453  10.500   1.651
  407SOL     OW 3059  12.667  11.363   7.197
  407SOL    HW1 3060  12.644  11.374   7.105
  407SOL    HW2 3061  12.676  11.269   7.209
  408SOL     OW 3062   1.175   5.303   3.244
  408SOL    HW1 3063   1.162   5.378   3.301
  408SOL    HW2 3064   1.203   5.340   3.160
  409SOL     OW 3065  10.527   0.381   8.584
  409SOL    HW1 3066  10.478   0.362   8.664
  409SOL    HW2 3067  10.611   0.338   8.596
  410SOL     OW 3068   2.611  13.393  10.251
  410SOL    HW1 3069   2.562  13.326  10.203
  410SOL    HW2 3070   2.558  13.473  10.241
  411SOL     OW 3071  11.937   3.195   1.164
  411SOL    HW1 3072  11.982   3.117   1.132
  411SOL    HW2 3073  11.982   3.268   1.120
  412SOL     OW 3074  10.912  14.353   3.342
  412SOL    HW1 3075  10.974  14.388   3.406
  412SOL    HW2 3076  10.833  14.335   3.393
  413SOL     OW 3077  13.365  12.453   6.268
  413SOL    HW1 3078  13.456  12.425   6.270
  413SOL    HW2 3079  13.363  12.532   6.321
  414SOL     OW 3080  10.641   3.973  14.707
  414SOL    HW1 3081  10.557   3.973  14.661
  414SOL    HW2 3082  10.700   4.021  14.650
  415SOL     OW 3083   9.086   7.436  10.081
  415SOL    HW1 3084   9.094   7.446  10.176
  415SOL    HW2 3085   9.005   7.481  10.058
  416SOL     OW 3086   0.452   6.812   3.811
  416SOL    HW1 3087   0.386   6.796   3.879
  416SOL    HW2 3088   0.401   6.817   3.730
  417SOL     OW 3089  12.846   3.397   6.739
  417SOL    HW1 3090  12.913   3.329   6.738
  417SOL    HW2 3091  12.867   3.453   6.664
  418SOL     OW 3092  14.678   9.522   0.322
  418SOL    HW1 3093  14.583   9.533   0.311
  418SOL    HW2 3094  14.715   9.541   0.236
  419SOL     OW 3095   6.161   5.470   5.862
  419SOL    HW1 3096   6.227   5.482   5.793
  419SOL    HW2 3097   6.183   5.385   5.901
  420SOL     OW 3098   0.714   6.569   6.223
  420SOL    HW1 3099   0.803   6.591   6.249
  420SOL    HW2 3100   0.673   6.534   6.302
  421SOL     OW 3101   1.370   8.529  11.058
  421SOL    HW1 3102   1.346   8.550  11.148
  421SOL    HW2 3103   1.335   8.601  11.006
  422SOL     OW 3104  14.724   2.223   6.604
  422SOL    HW1 3105  14.794   2.288   6.597
  422SOL    HW2 3106  14.747   2.156   6.539
  423SOL     OW 3107   1.254   4.091  12.464
  423SOL    HW1 3108   1.248   4.178  12.425
  423SOL    HW2 3109   1.284   4.035  12.393
  424SOL     OW 3110  12.757  12.897  10.651
  424SOL    HW1 3111  12.767  12.909  10.557
  424SOL    HW2 3112  12.794  12.810  10.668
  425SOL     OW 3113   1.986   8.618   3.793
  425SOL    HW1 3114   2.014   8.541   3.842
  425SOL    HW2 3115   2.002   8.595   3.701
  426SOL     OW 3116   0.206   3.257   1.713
  426SOL    HW1 3117   0.259   3.190   1.756
  426SOL    HW2 3118   0.125   3.259   1.763
  427SOL     OW 3119   9.767   3.908   0.278
  427SOL    HW1 3120   9.691   3.966   0.267
  427SOL    HW2 3121   9.730   3.820   0.268
  428SOL     OW 3122   2.048   7.166   2.745
  428SOL    HW1 3123   1.953   7.156   2.747
  428SOL    HW2 3124   2.063   7.253   2.783
  429SOL     OW 3125  14.780   1.330   6.084
  429SOL    HW1 3126  14.839   1.391   6.129
  429SOL    HW2 3127  14.805   1.337   5.992
  430SOL     OW 3128  13.751  13.078  10.636
  430SOL    HW1 3129  13.751  13.063  10.541
  430SOL    HW2 3130  13.665  13.048  10.665
  431SOL     OW 3131   1.939   0.861   3.099
  431SOL    HW1 3132   1.880   0.802   3.146
  431SOL    HW2 3133   2.021   0.855   3.147
  432SOL     OW 3134   9.239   6.652  10.311
  432SOL    HW1 3135   9.148   6.637  10.286
  432SOL    HW2 3136   9.290   6.616  10.239
  433SOL     OW 3137  12.871   7.859   3.796
  433SOL    HW1 3138  12.821   7.787   3.757
  433SOL    HW2 3139  12.876   7.925   3.727
  434SOL     OW 3140   3.922  13.430   7.196
  434SOL    HW1 3141   4.015  13.426   7.219
  434SOL    HW2 3142   3.881  13.368   7.256
  435SOL     OW 3143   1.229   3.830   9.379
  435SOL    HW1 3144   1.295   3.899   9.382
  435SOL    HW2 3145   1.188   3.839   9.293
  436SOL     OW 3146  12.992   1.118   4.376
  436SOL    HW1 3147  12.958   1.132   4.464
  436SOL    HW2 3148  13.058   1.187   4.365
  437SOL     OW 3149   3.321  10.000  10.914
  437SOL    HW1 3150   3.226  10.009  10.909
  437SOL    HW2 3151   3.354  10.089  10.925
  438SOL     OW 3152  12.455   9.248   5.266
  438SOL    HW1 3153  12.400   9.235   5.344
  438SOL    HW2 3154  12.538   9.207   5.289
  439SOL     OW 3155   2.022   5.216   3.411
  439SOL    HW1 3156   2.033   5.204   3.317
  439SOL    HW2 3157   1.934   5.253   3.420
  440SOL     OW 3158   1.837   1.886   6.938
  440SOL    HW1 3159   1.900   1.910   6.870
  440SOL    HW2 3160   1.834   1.791   6.936
  441SOL     OW 3161  14.549   7.909   8.638
  441SOL    HW1 3162  14.555   7.823   8.597
  441SOL    HW2 3163  14.631   7.952   8.617
  442SOL     OW 3164  11.311   4.571   5.817
  442SOL    HW1 3165  11.337   4.480   5.831
  442SOL    HW2 3166  11.237   4.565   5.756
  443SOL     OW 3167  13.424   9.728  12.618
  443SOL    HW1 3168  13.397   9.681  12.539
  443SOL    HW2 3169  13.356   9.794  12.631
  444SOL     OW 3170   1.783   3.738   6.503
  444SOL    HW1 3171   1.739   3.671   6.450
  444SOL    HW2 3172   1.835   3.788   6.440
  445SOL     OW 3173  12.508   2.930  11.067
  445SOL    HW1 3174  12.580   2.892  11.117
  445SOL    HW2 3175  12.448   2.857  11.052
  446SOL     OW 3176   8.785   9.258   3.083
  446SOL    HW1 3177   8.857   9.296   3.133
  446SOL    HW2 3178   8.773   9.316   3.008
  447SOL     OW 3179  14.616  10.228   9.567
  447SOL    HW1 3180  14.522  10.231   9.584
  447SOL    HW2 3181  14.640  10.319   9.550
  448SOL     OW 3182  14.574   3.660   0.414
  448SOL    HW1 3183  14.600   3.568   0.407
  448SOL    HW2 3184  14.542   3.682   0.327
  449SOL     OW 3185   1.477   8.252  10.055
  449SOL    HW1 3186   1.499   8.249  10.148
  449SOL    HW2 3187   1.464   8.345  10.037
  450SOL     OW 3188  10.295   1.434  11.847
  450SOL    HW1 3189  10.358   1.469  11.910
  450SOL    HW2 3190  10.343   1.365  11.801
  451SOL     OW 3191   1.534   2.545  14.342
  451SOL    HW1 3192   1.538   2.623  14.287
  451SOL    HW2 3193   1.456   2.498  14.312
  452SOL     OW 3194   0.805   0.733  10.931
  452SOL    HW1 3195   0.871   0.772  10.989
  452SOL    HW2 3196   0.842   0.742  10.843
  453SOL     OW 3197   3.920   8.976   7.886
  453SOL    HW1 3198   3.891   8.887   7.906
  453SOL    HW2 3199   3.912   9.024   7.968
  454SOL     OW 3200   0.358  10.397  13.027
  454SOL    HW1 3201   0.340  10.477  13.077
  454SOL    HW2 3202   0.453  10.398  13.016
  455SOL     OW 3203   0.241   0.833   1.596
  455SOL    HW1 3204   0.321   0.847   1.545
  455SOL    HW2 3205   0.230   0.914   1.646
  456SOL     OW 3206  12.711  11.853   2.311
  456SOL    HW1 3207  12.660  11.803   2.375
  456SOL    HW2 3208  12.679  11.823   2.226
  457SOL     OW 3209  11.395   9.385  10.868
  457SOL    HW1 3210  11.302   9.396  10.845
  457SOL    HW2 3211  11.397   9.304  10.919
  458SOL     OW 3212   5.451   0.852  13.950
  458SOL    HW1 3213   5.436   0.773  13.899
  458SOL    HW2 3214   5.497   0.821  14.029
  459SOL     OW 3215   1.639  13.038  10.713
  459SOL    HW1 3216   1.695  12.986  10.772
  459SOL    HW2 3217   1.675  13.126  10.717
  460SOL     OW 3218  12.041   3.547   6.554
  460SOL    HW1 3219  11.987   3.508   6.486
  460SOL    HW2 3220  12.067   3.474   6.610
  461SOL     OW 3221  10.527   0.507   7.799
  461SOL    HW1 3222  10.618   0.485   7.814
  461SOL    HW2 3223  10.480   0.468   7.872
  462SOL     OW 3224  10.600   0.790  13.994
  462SOL    HW1 3225  10.561   0.834  13.918
  462SOL    HW2 3226  10.538   0.721  14.016
  463SOL     OW 3227  11.360   6.065   3.003
  463SOL    HW1 3228  11.293   6.121   2.965
  463SOL    HW2 3229  11.433   6.125   3.022
  464SOL     OW 3230  10.270  10.186   3.492
  464SOL    HW1 3231  10.307  10.273   3.506
  464SOL    HW2 3232  10.346  10.129   3.479
  465SOL     OW 3233   1.845   8.555   8.468
  465SOL    HW1 3234   1.878   8.484   8.522
  465SOL    HW2 3235   1.765   8.584   8.513
  466SOL     OW 3236   9.233   8.669  11.489
  466SOL    HW1 3237   9.218   8.586  11.443
  466SOL    HW2 3238   9.163   8.673  11.554
  467SOL     OW 3239   1.363   0.290   5.554
  467SOL    HW1 3240   1.321   0.220   5.504
  467SOL    HW2 3241   1.300   0.313   5.622
  468SOL     OW 3242   4.229   9.810  10.638
  468SOL    HW1 3243   4.304   9.848  10.683
  468SOL    HW2 3244   4.267   9.764  10.563
  469SOL     OW 3245   1.526   5.226   5.119
  469SOL    HW1 3246   1.435   5.223   5.150
  469SOL    HW2 3247   1.530   5.158   5.052
  470SOL     OW 3248   5.589   7.592   2.271
  470SOL    HW1 3249   5.553   7.516   2.225
  470SOL    HW2 3250   5.531   7.664   2.248
  471SOL     OW 3251  13.088   5.364  11.092
  471SOL    HW1 3252  13.056   5.343  11.004
  471SOL    HW2 3253  13.013   5.405  11.135
  472SOL     OW 3254   3.135   6.449   4.477
  472SOL    HW1 3255   3.093   6.386   4.535
  472SOL    HW2 3256   3.203   6.399   4.432
  473SOL     OW 3257  11.244   2.897   0.962
  473SOL    HW1 3258  11.277   2.938   1.043
  473SOL    HW2 3259  11.282   2.809   0.963
  474SOL     OW 3260  13.281  12.268  12.901
  474SOL    HW1 3261  13.327  12.244  12.982
  474SOL    HW2 3262  13.220  12.195  12.886
  475SOL     OW 3263  12.359  13.129  14.507
  475SOL    HW1 3264  12.432  13.118  14.568
  475SOL    HW2 3265  12.398  13.121  14.420
  476SOL     OW 3266   1.386  10.000  13.937
  476SOL    HW1 3267   1.476   9.975  13.917
  476SOL    HW2 3268   1.333   9.958  13.869
  477SOL     OW 3269   5.399  10.164  12.702
  477SOL    HW1 3270   5.464  10.096  12.683
  477SOL    HW2 3271   5.347  10.171  12.623
  478SOL     OW 3272   3.301  11.766   2.187
  478SOL    HW1 3273   3.326  11.859   2.193
  478SOL    HW2 3274   3.206  11.766   2.195
  479SOL     OW 3275  14.302  12.955  14.415
  479SOL    HW1 3276  14.218  12.944  14.459
  479SOL    HW2 3277  14.364  12.969  14.486
  480SOL     OW 3278  13.532   7.303   5.330
  480SOL    HW1 3279  13.501   7.364   5.263
  480SOL    HW2 3280  13.495   7.218   5.304
  481SOL     OW 3281  12.286  12.221   5.025
  481SOL    HW1 3282  12.297  12.158   5.096
  481SOL    HW2 3283  12.321  12.177   4.948
  482SOL     OW 3284   4.585  11.495   3.214
  482SOL    HW1 3285   4.580  11.463   3.304
  482SOL    HW2 3286   4.510  11.553   3.205
  483SOL     OW 3287   3.447   8.000  11.993
  483SOL    HW1 3288   3.383   8.071  12.000
  483SOL    HW2 3289   3.528   8.043  11.967
  484SOL     OW 3290   5.903   7.404   0.669
  484SOL    HW1 3291   5.924   7.495   0.648
  484SOL    HW2 3292   5.863   7.370   0.589
  485SOL     OW 3293   2.353   7.795   4.742
  485SOL    HW1 3294   2.447   7.784   4.753
  485SOL    HW2 3295   2.331   7.744   4.664
  486SOL     OW 3296   3.490  12.126  13.817
  486SOL    HW1 3297   3.493  12.213  13.858
  486SOL    HW2 3298   3.400  12.117  13.786
  487SOL     OW 3299  13.465   1.918   8.062
  487SOL    HW1 3300  13.408   1.993   8.082
  487SOL    HW2 3301  13.411   1.860   8.008
  488SOL     OW 3302  11.159   1.954  13.018
  488SOL    HW1 3303  11.253   1.968  13.009
  488SOL    HW2 3304  11.122   1.988  12.936
  489SOL     OW 3305   8.615   8.149   9.195
  489SOL    HW1 3306   8.578   8.186   9.275
  489SOL    HW2 3307   8.550   8.168   9.127
  490SOL     OW 3308   9.213   0.651   6.404
  490SOL    HW1 3309   9.194   0.615   6.490
  490SOL    HW2 3310   9.297   0.696   6.414
  491SOL     OW 3311   2.964   5.567   6.050
  491SOL    HW1 3312   3.058   5.575   6.064
  491SOL    HW2 3313   2.934   5.656   6.030
  492SOL     OW 3314   9.527  13.309  13.065
  492SOL    HW1 3315   9.517  13.345  12.976
  492SOL    HW2 3316   9.439  13.311  13.102
  493SOL     OW 3317   5.637   2.983   9.689
  493SOL    HW1 3318   5.646   2.963   9.596
  493SOL    HW2 3319   5.704   2.930   9.732
  494SOL     OW 3320  11.233  14.158   2.773
  494SOL    HW1 3321  11.286  14.086   2.809
  494SOL    HW2 3322  11.152  14.156   2.825
  495SOL     OW 3323   4.108   7.140  12.980
  495SOL    HW1 3324   4.163   7.112  12.907
  495SOL    HW2 3325   4.168   7.141  13.055
  496SOL     OW 3326  10.483   4.585   9.675
  496SOL    HW1 3327  10.569   4.624   9.667
  496SOL    HW2 3328  10.499   4.497   9.709
  497SOL     OW 3329  12.308  11.024  13.850
  497SOL    HW1 3330  12.264  11.062  13.926
  497SOL    HW2 3331  12.240  10.971  13.807
  498SOL     OW 3332   6.224  14.726   2.380
  498SOL    HW1 3333   6.231  14.810   2.335
  498SOL    HW2 3334   6.284  14.668   2.333
  499SOL     OW 3335  13.986   0.546   6.821
  499SOL    HW1 3336  14.045   0.550   6.896
  499SOL    HW2 3337  13.899   0.537   6.859
  500SOL     OW 3338   4.267   8.672   6.457
  500SOL    HW1 3339   4.185   8.707   6.421
  500SOL    HW2 3340   4.293   8.735   6.524
  501SOL     OW 3341   0.073   9.908   1.994
  501SOL    HW1 3342   0.149   9.957   1.963
  501SOL    HW2 3343  14.873   9.946   1.946
  502SOL     OW 3344  10.622   6.566  13.368
  502SOL    HW1 3345  10.692   6.513  13.330
  502SOL    HW2 3346  10.584   6.613  13.294
  503SOL     OW 3347  12.091   9.250   2.376
  503SOL    HW1 3348  12.130   9.165   2.393
  503SOL    HW2 3349  12.006   9.248   2.422
  504SOL     OW 3350  13.148   0.264  14.445
  504SOL    HW1 3351  13.084   0.334  14.430
  504SOL    HW2 3352  13.221   0.285  14.387
  505SOL     OW 3353   3.279   6.119   7.117
  505SOL    HW1 3354   3.302   6.026   7.113
  505SOL    HW2 3355   3.363   6.163   7.134
  506SOL     OW 3356   4.609   0.848   7.758
  506SOL    HW1 3357   4.702   0.825   7.754
  506SOL    HW2 3358   4.607   0.943   7.747
  507SOL     OW 3359   5.688   0.388   0.406
  507SOL    HW1 3360   5.596   0.388   0.380
  507SOL    HW2 3361   5.690   0.339   0.488
  508SOL     OW 3362   8.645   6.376  10.287
  508SOL    HW1 3363   8.667   6.445  10.349
  508SOL    HW2 3364   8.604   6.421  10.214
  509SOL     OW 3365  14.528   6.218   8.078
  509SOL    HW1 3366  14.471   6.201   8.153
  509SOL    HW2 3367  14.531   6.313   8.071
  510SOL     OW 3368   7.860   8.179   0.160
  510SOL    HW1 3369   7.900   8.165   0.074
  510SOL    HW2 3370   7.769   8.149   0.149
  511SOL     OW 3371  10.277   8.344   7.809
  511SOL    HW1 3372  10.305   8.409   7.873
  511SOL    HW2 3373  10.183   8.361   7.797
  512SOL     OW 3374   1.193  13.665   9.345
  512SOL    HW1 3375   1.129  13.638   9.279
  512SOL    HW2 3376   1.175  13.610   9.421
  513SOL     OW 3377  12.568  14.534   3.111
  513SOL    HW1 3378  12.514  14.536   3.190
  513SOL    HW2 3379  12.509  14.500   3.043
  514SOL     OW 3380   2.799   2.988   5.407
  514SOL    HW1 3381   2.776   2.934   5.483
  514SOL    HW2 3382   2.872   2.942   5.366
  515SOL     OW 3383   3.304  10.206   2.941
  515SOL    HW1 3384   3.238  10.268   2.913
  515SOL    HW2 3385   3.299  10.135   2.877
  516SOL     OW 3386  11.764   4.649  10.123
  516SOL    HW1 3387  11.750   4.740  10.149
  516SOL    HW2 3388  11.803   4.608  10.200
  517SOL     OW 3389   5.963  13.499  13.954
  517SOL    HW1 3390   5.907  13.423  13.946
  517SOL    HW2 3391   6.049  13.469  13.925
  518SOL     OW 3392   5.335   5.976   1.994
  518SOL    HW1 3393   5.276   6.042   2.030
  518SOL    HW2 3394   5.353   6.004   1.905
  519SOL     OW 3395   2.466   8.039   8.265
  519SOL    HW1 3396   2.479   8.122   8.312
  519SOL    HW2 3397   2.441   8.066   8.177
  520SOL     OW 3398  11.959   1.795  14.324
  520SOL    HW1 3399  12.008   1.759  14.250
  520SOL    HW2 3400  11.917   1.874  14.289
  521SOL     OW 3401   7.551   3.103   7.185
  521SOL    HW1 3402   7.604   3.172   7.145
  521SOL    HW2 3403   7.610   3.060   7.247
  522SOL     OW 3404   4.972   6.553   4.940
  522SOL    HW1 3405   4.964   6.463   4.909
  522SOL    HW2 3406   4.920   6.604   4.878
  523SOL     OW 3407   0.783   1.069  10.959
  523SOL    HW1 3408   0.737   0.986  10.965
  523SOL    HW2 3409   0.876   1.047  10.972
  524SOL     OW 3410  14.455  12.648   8.568
  524SOL    HW1 3411  14.449  12.623   8.661
  524SOL    HW2 3412  14.529  12.597   8.534
  525SOL     OW 3413   2.796   3.843   1.502
  525SOL    HW1 3414   2.838   3.926   1.527
  525SOL    HW2 3415   2.753   3.861   1.419
  526SOL     OW 3416  12.067   0.805  13.419
  526SOL    HW1 3417  11.985   0.850  13.440
  526SOL    HW2 3418  12.048   0.757  13.338
  527SOL     OW 3419   4.861   0.987   6.068
  527SOL    HW1 3420   4.825   0.913   6.019
  527SOL    HW2 3421   4.884   1.051   6.001
  528SOL     OW 3422   6.411   3.101  12.599
  528SOL    HW1 3423   6.455   3.017  12.599
  528SOL    HW2 3424   6.442   3.145  12.678
  529SOL     OW 3425   3.291   5.583   3.441
  529SOL    HW1 3426   3.196   5.578   3.451
  529SOL    HW2 3427   3.325   5.565   3.529
  530SOL     OW 3428   0.939  13.971  12.459
  530SOL    HW1 3429   0.937  14.065  12.441
  530SOL    HW2 3430   0.860  13.936  12.417
  531SOL     OW 3431  14.039   0.887  14.609
  531SOL    HW1 3432  13.952   0.851  14.595
  531SOL    HW2 3433  14.051   0.951  14.539
  532SOL     OW 3434   5.866   7.788   9.788
  532SOL    HW1 3435   5.841   7.809   9.698
  532SOL    HW2 3436   5.930   7.718   9.780
  533SOL     OW 3437   6.005   5.665  14.573
  533SOL    HW1 3438   6.097   5.694  14.570
  533SOL    HW2 3439   5.977   5.665  14.482
  534SOL     OW 3440   7.821  12.510   3.052
  534SOL    HW1 3441   7.900  12.458   3.063
  534SOL    HW2 3442   7.750  12.452   3.080
  535SOL     OW 3443   4.740   1.248   3.281
  535SOL    HW1 3444   4.718   1.174   3.225
  535SOL    HW2 3445   4.656   1.288   3.304
  536SOL     OW 3446  14.166  12.955  11.290
  536SOL    HW1 3447  14.196  12.902  11.364
  536SOL    HW2 3448  14.174  12.898  11.214
  537SOL     OW 3449   1.020   9.325  11.695
  537SOL    HW1 3450   1.008   9.325  11.790
  537SOL    HW2 3451   1.106   9.365  11.681
  538SOL     OW 3452  14.273  12.973   6.486
  538SOL    HW1 3453  14.224  12.941   6.411
  538SOL    HW2 3454  14.219  13.044   6.522
  539SOL     OW 3455  11.517  12.818  10.823
  539SOL    HW1 3456  11.436  12.774  10.848
  539SOL    HW2 3457  11.499  12.854  10.736
  540SOL     OW 3458  11.319   6.409  11.408
  540SOL    HW1 3459  11.334   6.368  11.322
  540SOL    HW2 3460  11.403   6.448  11.431
  541SOL     OW 3461  13.130   9.990  13.251
  541SOL    HW1 3462  13.111   9.933  13.176
  541SOL    HW2 3463  13.088  10.073  13.229
  542SOL     OW 3464   0.109  11.496   7.777
  542SOL    HW1 3465   0.140  11.586   7.763
  542SOL    HW2 3466   0.186  11.442   7.761
  543SOL     OW 3467   4.567   2.066   1.813
  543SOL    HW1 3468   4.533   2.035   1.729
  543SOL    HW2 3469   4.624   2.140   1.790
  544SOL     OW 3470   6.205   5.008   0.983
  544SOL    HW1 3471   6.276   5.044   0.929
  544SOL    HW2 3472   6.211   5.056   1.066
  545SOL     OW 3473  13.380  10.060   4.549
  545SOL    HW1 3474  13.450  10.000   4.573
  545SOL    HW2 3475  13.423  10.146   4.544
  546SOL     OW 3476   1.964  13.244  11.650
  546SOL    HW1 3477   1.941  13.263  11.742
  546SOL    HW2 3478   1.921  13.313  11.600
  547SOL     OW 3479   8.716   6.989   5.245
  547SOL    HW1 3480   8.734   7.044   5.168
  547SOL    HW2 3481   8.666   6.915   5.211
  548SOL     OW 3482  12.618   7.133  10.158
  548SOL    HW1 3483  12.530   7.139  10.195
  548SOL    HW2 3484  12.655   7.052  10.194
  549SOL     OW 3485   6.586  11.661  11.994
  549SOL    HW1 3486   6.559  11.751  11.976
  549SOL    HW2 3487   6.504  11.613  12.008
  550SOL     OW 3488   7.973  10.826  13.312
  550SOL    HW1 3489   8.005  10.894  13.253
  550SOL    HW2 3490   7.903  10.783  13.262
  551SOL     OW 3491   1.481   0.685   6.689
  551SOL    HW1 3492   1.525   0.757   6.735
  551SOL    HW2 3493   1.513   0.606   6.733
  552SOL     OW 3494   8.250  11.236   6.473
  552SOL    HW1 3495   8.247  11.314   6.529
  552SOL    HW2 3496   8.291  11.169   6.528
  553SOL     OW 3497   5.804  13.526  10.646
  553SOL    HW1 3498   5.758  13.490  10.571
  553SOL    HW2 3499   5.736  13.541  10.712
  554SOL     OW 3500   8.203  13.327   3.687
  554SOL    HW1 3501   8.139  13.397   3.677
  554SOL    HW2 3502   8.156  13.248   3.660
  555SOL     OW 3503  10.232   4.901  10.248
  555SOL    HW1 3504  10.155   4.924  10.196
  555SOL    HW2 3505  10.210   4.928  10.337
  556SOL     OW 3506  14.850   6.325   1.450
  556SOL    HW1 3507  14.784   6.278   1.400
  556SOL    HW2 3508   0.049   6.264   1.460
  557SOL     OW 3509  11.866   1.714  13.248
  557SOL    HW1 3510  11.855   1.663  13.167
  557SOL    HW2 3511  11.777   1.741  13.271
  558SOL     OW 3512   2.712   9.280   5.626
  558SOL    HW1 3513   2.745   9.369   5.616
  558SOL    HW2 3514   2.710   9.245   5.537
  559SOL     OW 3515  13.413  13.840   9.051
  559SOL    HW1 3516  13.390  13.916   8.998
  559SOL    HW2 3517  13.476  13.791   8.998
  560SOL     OW 3518   7.857  13.360   5.186
  560SOL    HW1 3519   7.836  13.319   5.270
  560SOL    HW2 3520   7.953  13.368   5.187
  561SOL     OW 3521   3.697  10.412   9.301
  561SOL    HW1 3522   3.782  10.418   9.345
  561SOL    HW2 3523   3.634  10.398   9.372
  562SOL     OW 3524   5.791   2.323   5.229
  562SOL    HW1 3525   5.872   2.304   5.181
  562SOL    HW2 3526   5.803   2.280   5.314
  563SOL     OW 3527   2.789   4.931   9.656
  563SOL    HW1 3528   2.711   4.880   9.632
  563SOL    HW2 3529   2.856   4.901   9.595
  564SOL     OW 3530   7.269   6.440   9.970
  564SOL    HW1 3531   7.281   6.345   9.966
  564SOL    HW2 3532   7.198   6.452  10.033
  565SOL     OW 3533   4.514   9.072  14.775
  565SOL    HW1 3534   4.433   9.027  14.798
  565SOL    HW2 3535   4.583   9.018  14.812
  566SOL     OW 3536   2.856   1.454  12.444
  566SOL    HW1 3537   2.810   1.370  12.445
  566SOL    HW2 3538   2.940   1.435  12.486
  567SOL     OW 3539  13.839   1.033   2.912
  567SOL    HW1 3540  13.805   0.987   2.989
  567SOL    HW2 3541  13.817   0.975   2.839
  568SOL     OW 3542   3.195   0.630   1.850
  568SOL    HW1 3543   3.124   0.617   1.787
  568SOL    HW2 3544   3.179   0.565   1.918
  569SOL     OW 3545  12.404   5.038   3.266
  569SOL    HW1 3546  12.442   4.978   3.202
  569SOL    HW2 3547  12.365   4.980   3.332
  570SOL     OW 3548   6.594   6.397   6.244
  570SOL    HW1 3549   6.596   6.462   6.314
  570SOL    HW2 3550   6.501   6.379   6.231
  571SOL     OW 3551   2.362  12.514  10.968
  571SOL    HW1 3552   2.400  12.602  10.970
  571SOL    HW2 3553   2.271  12.528  10.941
  572SOL     OW 3554   0.616   0.407  11.984
  572SOL    HW1 3555   0.676   0.480  11.967
  572SOL    HW2 3556   0.573   0.431  12.066
  573SOL     OW 3557   5.966  14.402  12.288
  573SOL    HW1 3558   6.007  14.364  12.211
  573SOL    HW2 3559   5.930  14.328  12.336
  574SOL     OW 3560  10.361   5.026  13.528
  574SOL    HW1 3561  10.333   5.040  13.438
  574SOL    HW2 3562  10.281   5.031  13.580
  575SOL     OW 3563   4.260   1.043  13.704
  575SOL    HW1 3564   4.270   1.081  13.791
  575SOL    HW2 3565   4.245   1.117  13.646
  576SOL     OW 3566   4.142  13.789   3.299
  576SOL    HW1 3567   4.188  13.870   3.276
  576SOL    HW2 3568   4.179  13.723   3.240
  577SOL     OW 3569   6.551   2.337   6.083
  577SOL    HW1 3570   6.574   2.279   6.010
  577SOL    HW2 3571   6.530   2.420   6.041
  578SOL     OW 3572  10.986   6.307   6.413
  578SOL    HW1 3573  11.025   6.350   6.489
  578SOL    HW2 3574  11.041   6.231   6.398
  579SOL     OW 3575  14.404   3.286   0.517
  579SOL    HW1 3576  14.403   3.265   0.610
  579SOL    HW2 3577  14.458   3.365   0.511
  580SOL     OW 3578  13.602   0.626   3.149
  580SOL    HW1 3579  13.607   0.653   3.241
  580SOL    HW2 3580  13.620   0.532   3.150
  581SOL     OW 3581   3.304  11.070  10.131
  581SOL    HW1 3582   3.369  11.045  10.197
  581SOL    HW2 3583   3.253  10.990  10.117
  582SOL     OW 3584   4.280  12.856   4.148
  582SOL    HW1 3585   4.237  12.923   4.094
  582SOL    HW2 3586   4.311  12.904   4.224
  583SOL     OW 3587  14.191   5.653   0.201
  583SOL    HW1 3588  14.114   5.613   0.241
  583SOL    HW2 3589  14.165   5.671   0.111
  584SOL     OW 3590   7.653  12.889   3.321
  584SOL    HW1 3591   7.712  12.965   3.321
  584SOL    HW2 3592   7.566  12.928   3.320
  585SOL     OW 3593   5.834   5.591  12.106
  585SOL    HW1 3594   5.784   5.646  12.166
  585SOL    HW2 3595   5.899   5.549  12.162
  586SOL     OW 3596  11.288   5.970  11.490
  586SOL    HW1 3597  11.263   5.960  11.398
  586SOL    HW2 3598  11.264   6.060  11.511
  587SOL     OW 3599   8.835   1.140   4.235
  587SOL    HW1 3600   8.861   1.102   4.151
  587SOL    HW2 3601   8.742   1.160   4.225
  588SOL     OW 3602  11.209   3.591  13.560
  588SOL    HW1 3603  11.155   3.599  13.639
  588SOL    HW2 3604  11.192   3.502  13.528
  589SOL     OW 3605   6.498   2.352   3.806
  589SOL    HW1 3606   6.590   2.327   3.815
  589SOL    HW2 3607   6.471   2.374   3.895
  590SOL     OW 3608  10.187  14.227   9.643
  590SOL    HW1 3609  10.219  14.157   9.700
  590SOL    HW2 3610  10.223  14.308   9.681
  591SOL     OW 3611   1.346   8.526   0.376
  591SOL    HW1 3612   1.406   8.458   0.406
  591SOL    HW2 3613   1.393   8.571   0.307
  592SOL     OW 3614  10.266   9.154  10.603
  592SOL    HW1 3615  10.201   9.211  10.644
  592SOL    HW2 3616  10.215   9.099  10.543
  593SOL     OW 3617   4.534   2.369   5.134
  593SOL    HW1 3618   4.543   2.351   5.228
  593SOL    HW2 3619   4.440   2.372   5.119
  594SOL     OW 3620  12.244   1.470   9.876
  594SOL    HW1 3621  12.321   1.481   9.931
  594SOL    HW2 3622  12.183   1.420   9.929
  595SOL     OW 3623  10.078   4.106   5.930
  595SOL    HW1 3624  10.126   4.188   5.941
  595SOL    HW2 3625  10.040   4.089   6.016
  596SOL     OW 3626   3.142   9.667   6.163
  596SOL    HW1 3627   3.160   9.759   6.148
  596SOL    HW2 3628   3.115   9.633   6.077
  597SOL     OW 3629   4.751  14.720  13.921
  597SOL    HW1 3630   4.834  14.699  13.877
  597SOL    HW2 3631   4.742  14.814  13.911
  598SOL     OW 3632   9.954   1.288  12.317
  598SOL    HW1 3633   9.930   1.196  12.307
  598SOL    HW2 3634   9.967   1.319  12.227
  599SOL     OW 3635   5.330   6.895   8.648
  599SOL    HW1 3636   5.403   6.956   8.635
  599SOL    HW2 3637   5.371   6.811   8.665
  600SOL     OW 3638   2.958   7.424   9.306
  600SOL    HW1 3639   2.898   7.435   9.380
  600SOL    HW2 3640   3.042   7.403   9.346
  601SOL     OW 3641  13.788   3.356  12.991
  601SOL    HW1 3642  13.726   3.420  12.956
  601SOL    HW2 3643  13.844   3.407  13.049
  602SOL     OW 3644   9.556  12.625   2.015
  602SOL    HW1 3645   9.626  12.563   2.035
  602SOL    HW2 3646   9.578  12.659   1.929
  603SOL     OW 3647   5.296   1.939   2.894
  603SOL    HW1 3648   5.267   1.849   2.906
  603SOL    HW2 3649   5.391   1.934   2.886
  604SOL     OW 3650   6.903   3.815   7.211
  604SOL    HW1 3651   6.930   3.739   7.161
  604SOL    HW2 3652   6.842   3.862   7.154
  605SOL     OW 3653   6.418   8.397   3.517
  605SOL    HW1 3654   6.397   8.366   3.429
  605SOL    HW2 3655   6.337   8.383   3.567
  606SOL     OW 3656   2.124   1.971   8.673
  606SOL    HW1 3657   2.066   1.948   8.746
  606SOL    HW2 3658   2.128   2.067   8.676
  607SOL     OW 3659   2.102  12.378   9.128
  607SOL    HW1 3660   2.132  12.296   9.167
  607SOL    HW2 3661   2.021  12.398   9.175
  608SOL     OW 3662   6.371  10.268   9.175
  608SOL    HW1 3663   6.356  10.191   9.121
  608SOL    HW2 3664   6.464  10.289   9.161
  609SOL     OW 3665  12.848   6.541   4.650
  609SOL    HW1 3666  12.796   6.620   4.664
  609SOL    HW2 3667  12.826   6.484   4.724
  610SOL     OW 3668  14.316   7.568  13.097
  610SOL    HW1 3669  14.303   7.543  13.189
  610SOL    HW2 3670  14.230   7.556  13.057
  611SOL     OW 3671  10.099   8.565   1.638
  611SOL    HW1 3672  10.008   8.568   1.670
  611SOL    HW2 3673  10.120   8.657   1.620
  612SOL     OW 3674   2.053  10.300   2.864
  612SOL    HW1 3675   2.126  10.256   2.820
  612SOL    HW2 3676   2.075  10.295   2.957
  613SOL     OW 3677  11.234   6.383  10.558
  613SOL    HW1 3678  11.159   6.442  10.566
  613SOL    HW2 3679  11.292   6.407  10.630
  614SOL     OW 3680  12.884   7.185  11.660
  614SOL    HW1 3681  12.967   7.182  11.613
  614SOL    HW2 3682  12.872   7.095  11.692
  615SOL     OW 3683  13.137  12.947   9.926
  615SOL    HW1 3684  13.107  12.922  10.013
  615SOL    HW2 3685  13.121  13.041   9.920
  616SOL     OW 3686   9.972   9.433   7.104
  616SOL    HW1 3687   9.986   9.340   7.088
  616SOL    HW2 3688   9.985   9.443   7.198
  617SOL     OW 3689   4.449   0.854  13.937
  617SOL    HW1 3690   4.478   0.865  14.027
  617SOL    HW2 3691   4.356   0.878  13.938
  618SOL     OW 3692   8.017   3.839  14.138
  618SOL    HW1 3693   8.001   3.867  14.228
  618SOL    HW2 3694   7.964   3.760  14.127
  619SOL     OW 3695   5.959   5.418  12.536
  619SOL    HW1 3696   5.890   5.365  12.577
  619SOL    HW2 3697   6.014   5.447  12.609
  620SOL     OW 3698  11.159   9.822   9.220
  620SOL    HW1 3699  11.109   9.881   9.275
  620SOL    HW2 3700  11.102   9.806   9.144
  621SOL     OW 3701   7.508   8.988   7.607
  621SOL    HW1 3702   7.551   9.050   7.548
  621SOL    HW2 3703   7.565   8.911   7.605
  622SOL     OW 3704   7.393   9.657   4.788
  622SOL    HW1 3705   7.390   9.572   4.744
  622SOL    HW2 3706   7.319   9.656   4.848
  623SOL     OW 3707   5.201  10.255  12.480
  623SOL    HW1 3708   5.162  10.220  12.400
  623SOL    HW2 3709   5.146  10.220  12.550
  624SOL     OW 3710   8.944   0.354   2.459
  624SOL    HW1 3711   8.887   0.277   2.464
  624SOL    HW2 3712   9.022   0.323   2.413
  625SOL     OW 3713  14.019   4.720   4.537
  625SOL    HW1 3714  13.927   4.696   4.536
  625SOL    HW2 3715  14.065   4.641   4.565
  626SOL     OW 3716   1.639   6.870   7.957
  626SOL    HW1 3717   1.627   6.790   7.904
  626SOL    HW2 3718   1.552   6.890   7.990
  627SOL     OW 3719   2.778  11.468   8.090
  627SOL    HW1 3720   2.765  11.374   8.084
  627SOL    HW2 3721   2.830  11.481   8.169
  628SOL     OW 3722   3.224  12.351   3.186
  628SOL    HW1 3723   3.160  12.282   3.167
  628SOL    HW2 3724   3.296  12.335   3.125
  629SOL     OW 3725  11.257   6.721  11.920
  629SOL    HW1 3726  11.211   6.783  11.976
  629SOL    HW2 3727  11.255   6.760  11.833
  630SOL     OW 3728   5.243   5.333  11.130
  630SOL    HW1 3729   5.206   5.262  11.077
  630SOL    HW2 3730   5.327   5.353  11.087
  631SOL     OW 3731   2.550   7.727   0.823
  631SOL    HW1 3732   2.486   7.758   0.886
  631SOL    HW2 3733   2.508   7.653   0.780
  632SOL     OW 3734  11.126   2.113   5.360
  632SOL    HW1 3735  11.091   2.171   5.292
  632SOL    HW2 3736  11.124   2.165   5.440
  633SOL     OW 3737   0.213   1.491   5.018
  633SOL    HW1 3738   0.141   1.454   5.069
  633SOL    HW2 3739   0.287   1.433   5.036
  634SOL     OW 3740   2.011   6.538  10.078
  634SOL    HW1 3741   2.046   6.534   9.990
  634SOL    HW2 3742   2.084   6.568  10.132
  635SOL     OW 3743   4.730  12.188   2.351
  635SOL    HW1 3744   4.709  12.096   2.367
  635SOL    HW2 3745   4.800  12.186   2.286
  636SOL     OW 3746   2.131   7.969   7.610
  636SOL    HW1 3747   2.185   8.025   7.554
  636SOL    HW2 3748   2.048   7.962   7.564
  637SOL     OW 3749  13.010  10.618  10.883
  637SOL    HW1 3750  13.019  10.574  10.967
  637SOL    HW2 3751  13.039  10.708  10.899
  638SOL     OW 3752  12.694   0.999   4.782
  638SOL    HW1 3753  12.690   1.045   4.699
  638SOL    HW2 3754  12.758   1.048   4.834
  639SOL     OW 3755  14.569   9.742  14.344
  639SOL    HW1 3756  14.582   9.787  14.428
  639SOL    HW2 3757  14.526   9.808  14.289
  640SOL     OW 3758   7.841   2.312   9.081
  640SOL    HW1 3759   7.797   2.261   9.148
  640SOL    HW2 3760   7.782   2.385   9.063
  641SOL     OW 3761   3.116   2.729   1.447
  641SOL    HW1 3762   3.185   2.769   1.394
  641SOL    HW2 3763   3.057   2.801   1.468
  642SOL     OW 3764   0.742  12.713  12.531
  642SOL    HW1 3765   0.835  12.695  12.544
  642SOL    HW2 3766   0.705  12.631  12.498
  643SOL     OW 3767   9.248  10.603  14.164
  643SOL    HW1 3768   9.335  10.571  14.187
  643SOL    HW2 3769   9.192  10.575  14.236
  644SOL     OW 3770   3.144   5.961   7.906
  644SOL    HW1 3771   3.073   6.021   7.882
  644SOL    HW2 3772   3.108   5.910   7.979
  645SOL     OW 3773   1.443   1.524   4.084
  645SOL    HW1 3774   1.388   1.602   4.080
  645SOL    HW2 3775   1.424   1.486   4.170
  646SOL     OW 3776   9.784   3.795   9.886
  646SOL    HW1 3777   9.753   3.824   9.800
  646SOL    HW2 3778   9.794   3.876   9.936
  647SOL     OW 3779  12.608  10.258   1.560
  647SOL    HW1 3780  12.613  10.315   1.637
  647SOL    HW2 3781  12.574  10.315   1.490
  648SOL     OW 3782   8.777  13.282  11.861
  648SOL    HW1 3783   8.834  13.255  11.788
  648SOL    HW2 3784   8.689  13.256  11.834
  649SOL     OW 3785   0.597  14.487  13.906
  649SOL    HW1 3786   0.675  14.464  13.958
  649SOL    HW2 3787   0.523  14.455  13.958
  650SOL     OW 3788  13.647   2.046   2.345
  650SOL    HW1 3789  13.687   2.035   2.431
  650SOL    HW2 3790  13.604   2.132   2.350
  651SOL     OW 3791  10.888   9.398   1.596
  651SOL    HW1 3792  10.955   9.437   1.652
  651SOL    HW2 3793  10.852   9.326   1.648
  652SOL     OW 3794  12.072  14.502  14.777
  652SOL    HW1 3795  12.033  14.421  14.809
  652SOL    HW2 3796  12.115  14.477  14.695
  653SOL     OW 3797   8.703   8.926   8.892
  653SOL    HW1 3798   8.645   8.854   8.868
  653SOL    HW2 3799   8.777   8.918   8.832
  654SOL     OW 3800   5.329   7.270   4.228
  654SOL    HW1 3801   5.234   7.270   4.219
  654SOL    HW2 3802   5.348   7.199   4.290
  655SOL     OW 3803   8.296   7.033   6.532
  655SOL    HW1 3804   8.309   7.126   6.514
  655SOL    HW2 3805   8.368   6.990   6.486
  656SOL     OW 3806   4.483  12.447   7.075
  656SOL    HW1 3807   4.529  12.475   7.154
  656SOL    HW2 3808   4.400  12.412   7.106
  657SOL     OW 3809   2.410   5.848   0.821
  657SOL    HW1 3810   2.353   5.771   0.811
  657SOL    HW2 3811   2.498   5.814   0.801
  658SOL     OW 3812  10.262   3.320   7.932
  658SOL    HW1 3813  10.183   3.276   7.902
  658SOL    HW2 3814  10.292   3.370   7.856
  659SOL     OW 3815   8.535   6.667  11.433
  659SOL    HW1 3816   8.619   6.638  11.468
  659SOL    HW2 3817   8.520   6.753  11.473
  660SOL     OW 3818  11.519   6.773   6.452
  660SOL    HW1 3819  11.471   6.759   6.371
  660SOL    HW2 3820  11.526   6.685   6.491
  661SOL     OW 3821  14.092   8.218  10.074
  661SOL    HW1 3822  14.062   8.282  10.009
  661SOL    HW2 3823  14.160   8.167  10.028
  662SOL     OW 3824   3.053   4.148  12.095
  662SOL    HW1 3825   3.085   4.180  12.010
  662SOL    HW2 3826   3.022   4.227  12.140
  663SOL     OW 3827   0.963   3.828   6.598
  663SOL    HW1 3828   1.022   3.779   6.541
  663SOL    HW2 3829   1.011   3.908   6.619
  664SOL     OW 3830  11.348  13.484   0.161
  664SOL    HW1 3831  11.273  13.538   0.185
  664SOL    HW2 3832  11.419  13.546   0.146
  665SOL     OW 3833  13.781   6.078   5.246
  665SOL    HW1 3834  13.845   6.081   5.175
  665SOL    HW2 3835  13.768   6.169   5.272
  666SOL     OW 3836  11.608  12.884   6.994
  666SOL    HW1 3837  11.620  12.977   7.011
  666SOL    HW2 3838  11.544  12.880   6.923
  667SOL     OW 3839   3.445  14.824  11.648
  667SOL    HW1 3840   3.524  14.770  11.650
  667SOL    HW2 3841   3.383  14.774  11.596
  668SOL     OW 3842   6.881  14.339  12.365
  668SOL    HW1 3843   6.842  14.253  12.374
  668SOL    HW2 3844   6.821  14.387  12.307
  669SOL     OW 3845   0.377  10.526  12.130
  669SOL    HW1 3846   0.434  10.459  12.093
  669SOL    HW2 3847   0.289  10.502  12.099
  670SOL     OW 3848   7.026   6.108  13.558
  670SOL    HW1 3849   7.020   6.174  13.628
  670SOL    HW2 3850   7.049   6.158  13.480
  671SOL     OW 3851  10.261   3.608   9.230
  671SOL    HW1 3852  10.338   3.655   9.263
  671SOL    HW2 3853  10.255   3.530   9.286
  672SOL     OW 3854  14.553   6.786   0.536
  672SOL    HW1 3855  14.518   6.764   0.450
  672SOL    HW2 3856  14.615   6.716   0.556
  673SOL     OW 3857  12.333  11.768  12.865
  673SOL    HW1 3858  12.410  11.712  12.864
  673SOL    HW2 3859  12.365  11.853  12.897
  674SOL     OW 3860   7.175   0.210   5.935
  674SOL    HW1 3861   7.119   0.210   6.013
  674SOL    HW2 3862   7.174   0.301   5.905
  675SOL     OW 3863   4.265   0.877   0.698
  675SOL    HW1 3864   4.327   0.805   0.714
  675SOL    HW2 3865   4.205   0.842   0.632
  676SOL     OW 3866   4.869   0.082   7.299
  676SOL    HW1 3867   4.915  14.873   7.307
  676SOL    HW2 3868   4.865   0.115   7.389
  677SOL     OW 3869  14.458   6.743   1.001
  677SOL    HW1 3870  14.509   6.706   1.073
  677SOL    HW2 3871  14.485   6.693   0.924
  678SOL     OW 3872   6.371   6.599  12.631
  678SOL    HW1 3873   6.416   6.595  12.546
  678SOL    HW2 3874   6.326   6.684  12.629
  679SOL     OW 3875  13.036   3.524   9.151
  679SOL    HW1 3876  13.123   3.519   9.111
  679SOL    HW2 3877  13.000   3.436   9.140
  680SOL     OW 3878  13.890   6.790  12.639
  680SOL    HW1 3879  13.843   6.869  12.668
  680SOL    HW2 3880  13.829   6.745  12.581
  681SOL     OW 3881   6.830   6.843   7.035
  681SOL    HW1 3882   6.866   6.909   7.094
  681SOL    HW2 3883   6.827   6.886   6.949
  682SOL     OW 3884   0.558   0.016   2.077
  682SOL    HW1 3885   0.635   0.032   2.133
  682SOL    HW2 3886   0.570   0.075   2.003
  683SOL     OW 3887   1.125  13.592  13.862
  683SOL    HW1 3888   1.208  13.566  13.903
  683SOL    HW2 3889   1.058  13.558  13.921
  684SOL     OW 3890   0.974  12.715  13.711
  684SOL    HW1 3891   0.928  12.754  13.785
  684SOL    HW2 3892   0.927  12.747  13.634
  685SOL     OW 3893   2.226   4.033   8.811
  685SOL    HW1 3894   2.279   4.087   8.752
  685SOL    HW2 3895   2.157   4.091   8.842
  686SOL     OW 3896   8.127   6.199   2.783
  686SOL    HW1 3897   8.146   6.293   2.774
  686SOL    HW2 3898   8.207   6.162   2.820
  687SOL     OW 3899  12.563   3.034   7.237
  687SOL    HW1 3900  12.617   3.081   7.174
  687SOL    HW2 3901  12.599   2.945   7.237
  688SOL     OW 3902  14.662   3.475   1.487
  688SOL    HW1 3903  14.754   3.497   1.499
  688SOL    HW2 3904  14.659   3.432   1.402
  689SOL     OW 3905  11.758   3.683   9.024
  689SOL    HW1 3906  11.751   3.777   9.040
  689SOL    HW2 3907  11.729   3.642   9.106
  690SOL     OW 3908   0.979   5.686   8.626
  690SOL    HW1 3909   0.890   5.668   8.595
  690SOL    HW2 3910   0.974   5.671   8.721
  691SOL     OW 3911  13.208   1.698   6.992
  691SOL    HW1 3912  13.119   1.721   7.018
  691SOL    HW2 3913  13.212   1.603   7.000
  692SOL     OW 3914   1.696   9.040  10.288
  692SOL    HW1 3915   1.671   8.962  10.337
  692SOL    HW2 3916   1.704   9.009  10.197
  693SOL     OW 3917   6.996   4.800   6.041
  693SOL    HW1 3918   7.076   4.752   6.060
  693SOL    HW2 3919   6.979   4.782   5.949
  694SOL     OW 3920   7.444   8.307   5.862
  694SOL    HW1 3921   7.485   8.315   5.948
  694SOL    HW2 3922   7.516   8.287   5.802
  695SOL     OW 3923   2.819   1.274   2.082
  695SOL    HW1 3924   2.832   1.181   2.066
  695SOL    HW2 3925   2.850   1.288   2.171
  696SOL     OW 3926   3.242  14.507   0.500
  696SOL    HW1 3927   3.274  14.589   0.462
  696SOL    HW2 3928   3.317  14.472   0.548
  697SOL     OW 3929  12.135  14.349  13.265
  697SOL    HW1 3930  12.107  14.310  13.348
  697SOL    HW2 3931  12.143  14.276  13.205
  698SOL     OW 3932   6.122  11.569   3.443
  698SOL    HW1 3933   6.134  11.477   3.419
  698SOL    HW2 3934   6.097  11.566   3.535
  699SOL     OW 3935   6.900  12.107   0.721
  699SOL    HW1 3936   6.978  12.118   0.775
  699SOL    HW2 3937   6.891  12.012   0.710
  700SOL     OW 3938   8.191  11.355   8.394
  700SOL    HW1 3939   8.146  11.375   8.312
  700SOL    HW2 3940   8.228  11.267   8.380
  701SOL     OW 3941   3.285  10.017   2.724
  701SOL    HW1 3942   3.237   9.934   2.733
  701SOL    HW2 3943   3.258  10.050   2.638
  702SOL     OW 3944   5.375   5.806  12.257
  702SOL    HW1 3945   5.395   5.739  12.323
  702SOL    HW2 3946   5.369   5.758  12.175
  703SOL     OW 3947   0.880   6.994  10.312
  703SOL    HW1 3948   0.934   6.918  10.330
  703SOL    HW2 3949   0.840   7.015  10.396
  704SOL     OW 3950   6.873   5.865   2.032
  704SOL    HW1 3951   6.846   5.850   2.122
  704SOL    HW2 3952   6.796   5.904   1.990
  705SOL     OW 3953   8.063   8.805  11.943
  705SOL    HW1 3954   8.068   8.711  11.958
  705SOL    HW2 3955   8.122   8.843  12.008
  706SOL     OW 3956   3.246   7.411   3.950
  706SOL    HW1 3957   3.294   7.339   3.910
  706SOL    HW2 3958   3.308   7.484   3.952
  707SOL     OW 3959   3.049   5.604   4.588
  707SOL    HW1 3960   3.044   5.549   4.510
  707SOL    HW2 3961   3.066   5.542   4.659
  708SOL     OW 3962  10.658  12.781   0.125
  708SOL    HW1 3963  10.665  12.710   0.190
  708SOL    HW2 3964  10.749  12.803   0.105
  709SOL     OW 3965   4.681  13.714   8.517
  709SOL    HW1 3966   4.770  13.751   8.521
  709SOL    HW2 3967   4.694  13.622   8.496
  710SOL     OW 3968   8.705   5.089  10.001
  710SOL    HW1 3969   8.755   5.158   9.959
  710SOL    HW2 3970   8.771   5.022  10.023
  711SOL     OW 3971  10.293   2.189  14.352
  711SOL    HW1 3972  10.366   2.129  14.340
  711SOL    HW2 3973  10.217   2.142  14.316
  712SOL     OW 3974  13.956   9.215   5.016
  712SOL    HW1 3975  13.941   9.161   4.938
  712SOL    HW2 3976  13.967   9.304   4.981
  713SOL     OW 3977   8.242   5.920   1.208
  713SOL    HW1 3978   8.252   5.850   1.272
  713SOL    HW2 3979   8.286   5.995   1.248
  714SOL     OW 3980   4.789   9.247   8.264
  714SOL    HW1 3981   4.717   9.273   8.322
  714SOL    HW2 3982   4.858   9.311   8.281
  715SOL     OW 3983  12.127   9.142  14.847
  715SOL    HW1 3984  12.050   9.091  14.871
  715SOL    HW2 3985  12.156   9.182   0.055
  716SOL     OW 3986   4.238   5.658   9.939
  716SOL    HW1 3987   4.327   5.664   9.905
  716SOL    HW2 3988   4.236   5.720  10.012
  717SOL     OW 3989  12.457   8.156   7.224
  717SOL    HW1 3990  12.495   8.084   7.273
  717SOL    HW2 3991  12.362   8.145   7.235
  718SOL     OW 3992   5.728   5.630   4.019
  718SOL    HW1 3993   5.715   5.617   4.113
  718SOL    HW2 3994   5.809   5.680   4.013
  719SOL     OW 3995   6.075   9.864  14.832
  719SOL    HW1 3996   6.063   9.873  14.738
  719SOL    HW2 3997   6.072   9.769  14.847
  720SOL     OW 3998   6.612   7.172  12.505
  720SOL    HW1 3999   6.686   7.233  12.507
  720SOL    HW2 4000   6.573   7.185  12.419
  721SOL     OW 4001  12.968   4.587   3.215
  721SOL    HW1 4002  13.000   4.513   3.163
  721SOL    HW2 4003  13.047   4.625   3.253
  722SOL     OW 4004   3.943   1.156   7.529
  722SOL    HW1 4005   3.972   1.192   7.445
  722SOL    HW2 4006   3.879   1.088   7.506
  723SOL     OW 4007   3.780  12.018  12.441
  723SOL    HW1 4008   3.868  12.054  12.444
  723SOL    HW2 4009   3.791  11.926  12.465
  724SOL     OW 4010   3.814   0.946   4.197
  724SOL    HW1 4011   3.806   1.003   4.273
  724SOL    HW2 4012   3.903   0.913   4.201
  725SOL     OW 4013   7.911  10.580   2.754
  725SOL    HW1 4014   7.934  10.517   2.823
  725SOL    HW2 4015   7.915  10.529   2.673
  726SOL     OW 4016  12.889  10.132  10.258
  726SOL    HW1 4017  12.800  10.104  10.237
  726SOL    HW2 4018  12.915  10.078  10.332
  727SOL     OW 4019   1.903  14.781   4.975
  727SOL    HW1 4020   1.862  14.866   4.961
  727SOL    HW2 4021   1.969  14.797   5.042
  728SOL     OW 4022  13.804   9.134   8.567
  728SOL    HW1 4023  13.716   9.124   8.604
  728SOL    HW2 4024  13.791   9.186   8.488
  729SOL     OW 4025   2.357   0.413   0.249
  729SOL    HW1 4026   2.404   0.353   0.308
  729SOL    HW2 4027   2.424   0.441   0.186
  730SOL     OW 4028   2.886  14.649   6.842
  730SOL    HW1 4029   2.839  14.625   6.922
  730SOL    HW2 4030   2.877  14.744   6.837
  731SOL     OW 4031   6.406   9.803  12.526
  731SOL    HW1 4032   6.358   9.792  12.444
  731SOL    HW2 4033   6.351   9.761  12.592
  732SOL     OW 4034  11.333  14.375   9.440
  732SOL    HW1 4035  11.325  14.463   9.478
  732SOL    HW2 4036  11.357  14.319   9.514
  733SOL     OW 4037  11.146  14.637   3.741
  733SOL    HW1 4038  11.214  14.697   3.710
  733SOL    HW2 4039  11.158  14.636   3.836
  734SOL     OW 4040   9.073  11.541   4.684
  734SOL    HW1 4041   9.157  11.502   4.707
  734SOL    HW2 4042   9.037  11.483   4.617
  735SOL     OW 4043   5.334   1.925   8.158
  735SOL    HW1 4044   5.374   1.855   8.107
  735SOL    HW2 4045   5.241   1.903   8.161
  736SOL     OW 4046  11.371  13.462   8.748
  736SOL    HW1 4047  11.305  13.395   8.766
  736SOL    HW2 4048  11.328  13.545   8.772
  737SOL     OW 4049   4.270   8.785  14.142
  737SOL    HW1 4050   4.308   8.731  14.213
  737SOL    HW2 4051   4.197   8.733  14.110
  738SOL     OW 4052  10.483  14.532   3.726
  738SOL    HW1 4053  10.507  14.461   3.786
  738SOL    HW2 4054  10.389  14.522   3.714
  739SOL     OW 4055  11.769   8.519   4.072
  739SOL    HW1 4056  11.765   8.599   4.125
  739SOL    HW2 4057  11.704   8.532   4.004
  740SOL     OW 4058  11.702   9.716   3.266
  740SOL    HW1 4059  11.674   9.723   3.175
  740SOL    HW2 4060  11.758   9.793   3.281
  741SOL     OW 4061   8.088  10.173   9.019
  741SOL    HW1 4062   8.015  10.211   9.069
  741SOL    HW2 4063   8.131  10.247   8.979
  742SOL     OW 4064   8.102  11.059   8.570
  742SOL    HW1 4065   8.167  11.114   8.612
  742SOL    HW2 4066   8.099  10.980   8.624
  743SOL     OW 4067   8.559  14.780   5.349
  743SOL    HW1 4068   8.500  14.846   5.314
  743SOL    HW2 4069   8.623  14.766   5.279
  744SOL     OW 4070   3.463  14.770   9.640
  744SOL    HW1 4071   3.553  14.740   9.640
  744SOL    HW2 4072   3.438  14.773   9.733
  745SOL     OW 4073   7.764   7.790   5.673
  745SOL    HW1 4074   7.798   7.879   5.665
  745SOL    HW2 4075   7.724   7.772   5.588
  746SOL     OW 4076   8.450  12.010   5.921
  746SOL    HW1 4077   8.416  11.950   5.854
  746SOL    HW2 4078   8.480  12.087   5.872
  747SOL     OW 4079  11.557   1.020   9.233
  747SOL    HW1 4080  11.528   1.111   9.224
  747SOL    HW2 4081  11.612   1.021   9.311
  748SOL     OW 4082  13.366   3.648  13.290
  748SOL    HW1 4083  13.300   3.718  13.292
  748SOL    HW2 4084  13.355   3.603  13.374
  749SOL     OW 4085  12.658  10.584  11.636
  749SOL    HW1 4086  12.616  10.670  11.637
  749SOL    HW2 4087  12.660  10.557  11.727
  750SOL     OW 4088   0.636   1.181   3.388
  750SOL    HW1 4089   0.599   1.093   3.397
  750SOL    HW2 4090   0.721   1.167   3.347
  751SOL     OW 4091   9.993   9.763  11.060
  751SOL    HW1 4092  10.053   9.697  11.096
  751SOL    HW2 4093   9.911   9.748  11.106
  752SOL     OW 4094   1.732  14.432   6.169
  752SOL    HW1 4095   1.686  14.373   6.109
  752SOL    HW2 4096   1.809  14.461   6.120
  753SOL     OW 4097   3.673   0.748  11.231
  753SOL    HW1 4098   3.766   0.771  11.228
  753SOL    HW2 4099   3.632   0.820  11.277
  754SOL     OW 4100   7.013   6.983   1.600
  754SOL    HW1 4101   7.075   6.938   1.658
  754SOL    HW2 4102   7.013   7.073   1.630
  755SOL     OW 4103   9.816   7.291   9.970
  755SOL    HW1 4104   9.833   7.330  10.056
  755SOL    HW2 4105   9.749   7.225   9.986
  756SOL     OW 4106  14.029   9.297   1.480
  756SOL    HW1 4107  14.058   9.327   1.567
  756SOL    HW2 4108  14.058   9.205   1.476
  757SOL     OW 4109  10.100   8.393  11.013
  757SOL    HW1 4110  10.070   8.484  11.014
  757SOL    HW2 4111  10.043   8.349  10.949
  758SOL     OW 4112   2.893  12.050  13.298
  758SOL    HW1 4113   2.896  12.139  13.331
  758SOL    HW2 4114   2.936  11.997  13.365
  759SOL     OW 4115   9.290   5.072   4.028
  759SOL    HW1 4116   9.385   5.089   4.024
  759SOL    HW2 4117   9.261   5.077   3.937
  760SOL     OW 4118  11.917  10.495   5.786
  760SOL    HW1 4119  11.996  10.500   5.840
  760SOL    HW2 4120  11.846  10.520   5.845
  761SOL     OW 4121   0.500   3.058  10.872
  761SOL    HW1 4122   0.590   3.082  10.849
  761SOL    HW2 4123   0.489   2.971  10.834
  762SOL     OW 4124  10.048   5.184  13.562
  762SOL    HW1 4125  10.024   5.101  13.602
  762SOL    HW2 4126  10.056   5.245  13.636
  763SOL     OW 4127  13.963  11.100  13.011
  763SOL    HW1 4128  13.978  11.088  12.917
  763SOL    HW2 4129  13.991  11.017  13.050
  764SOL     OW 4130   0.865   8.221   7.296
  764SOL    HW1 4131   0.853   8.302   7.245
  764SOL    HW2 4132   0.959   8.219   7.315
  765SOL     OW 4133   9.086   0.152  14.047
  765SOL    HW1 4134   9.116   0.141  14.137
  765SOL    HW2 4135   9.166   0.149  13.995
  766SOL     OW 4136   5.545   1.995   7.453
  766SOL    HW1 4137   5.554   1.955   7.539
  766SOL    HW2 4138   5.510   2.082   7.470
  767SOL     OW 4139  10.913   9.949  11.806
  767SOL    HW1 4140  10.954   9.890  11.870
  767SOL    HW2 4141  10.891  10.027  11.857
  768SOL     OW 4142  12.297  12.700   8.352
  768SOL    HW1 4143  12.238  12.642   8.303
  768SOL    HW2 4144  12.377  12.702   8.300
  769SOL     OW 4145   8.846   9.368   2.576
  769SOL    HW1 4146   8.861   9.441   2.515
  769SOL    HW2 4147   8.754   9.345   2.563
  770SOL     OW 4148  13.138   6.538  14.197
  770SOL    HW1 4149  13.057   6.488  14.207
  770SOL    HW2 4150  13.133   6.573  14.108
  771SOL     OW 4151   8.667   6.979   0.707
  771SOL    HW1 4152   8.687   7.043   0.775
  771SOL    HW2 4153   8.752   6.952   0.673
  772SOL     OW 4154   7.462  10.693  10.136
  772SOL    HW1 4155   7.407  10.640  10.194
  772SOL    HW2 4156   7.414  10.775  10.125
  773SOL     OW 4157   8.403   6.908   3.443
  773SOL    HW1 4158   8.476   6.849   3.456
  773SOL    HW2 4159   8.335   6.876   3.503
  774SOL     OW 4160  12.346  10.931   6.450
  774SOL    HW1 4161  12.412  10.900   6.511
  774SOL    HW2 4162  12.264  10.931   6.500
  775SOL     OW 4163   8.202   8.924  11.656
  775SOL    HW1 4164   8.250   9.006  11.670
  775SOL    HW2 4165   8.270   8.857  11.653
  776SOL     OW 4166   7.302  10.757   6.988
  776SOL    HW1 4167   7.351  10.753   6.906
  776SOL    HW2 4168   7.221  10.710   6.971
  777SOL     OW 4169   3.025   8.905  14.816
  777SOL    HW1 4170   2.995   8.922   0.031
  777SOL    HW2 4171   3.120   8.911  14.822
  778SOL     OW 4172   7.985   3.874  13.866
  778SOL    HW1 4173   8.029   3.860  13.950
  778SOL    HW2 4174   7.962   3.967  13.865
  779SOL     OW 4175   6.665   5.602   9.234
  779SOL    HW1 4176   6.683   5.585   9.327
  779SOL    HW2 4177   6.730   5.549   9.188
  780SOL     OW 4178  11.464   5.292   1.287
  780SOL    HW1 4179  11.416   5.303   1.205
  780SOL    HW2 4180  11.554   5.317   1.266
  781SOL     OW 4181   3.542   7.476   3.653
  781SOL    HW1 4182   3.525   7.489   3.746
  781SOL    HW2 4183   3.511   7.388   3.634
  782SOL     OW 4184   9.469   5.706   6.871
  782SOL    HW1 4185   9.426   5.781   6.830
  782SOL    HW2 4186   9.399   5.644   6.888
  783SOL     OW 4187  14.516   5.130  11.649
  783SOL    HW1 4188  14.582   5.162  11.588
  783SOL    HW2 4189  14.497   5.205  11.705
  784SOL     OW 4190   4.851  10.519   1.233
  784SOL    HW1 4191   4.765  10.517   1.192
  784SOL    HW2 4192   4.863  10.431   1.269
  785SOL     OW 4193  13.017  10.340   5.074
  785SOL    HW1 4194  13.095  10.285   5.084
  785SOL    HW2 4195  13.031  10.386   4.991
  786SOL     OW 4196   1.540   8.998   0.594
  786SOL    HW1 4197   1.456   8.954   0.606
  786SOL    HW2 4198   1.591   8.939   0.538
  787SOL     OW 4199  11.583   7.854  13.811
  787SOL    HW1 4200  11.570   7.772  13.860
  787SOL    HW2 4201  11.643   7.831  13.741
  788SOL     OW 4202   9.386  13.597   3.471
  788SOL    HW1 4203   9.377  13.546   3.391
  788SOL    HW2 4204   9.462  13.653   3.456
  789SOL     OW 4205   4.163  11.032   6.436
  789SOL    HW1 4206   4.109  11.110   6.433
  789SOL    HW2 4207   4.115  10.967   6.384
  790SOL     OW 4208  13.155   0.717  12.714
  790SOL    HW1 4209  13.066   0.750  12.701
  790SOL    HW2 4210  13.151   0.626  12.686
  791SOL     OW 4211   7.310   2.100   6.869
  791SOL    HW1 4212   7.292   2.086   6.776
  791SOL    HW2 4213   7.399   2.134   6.871
  792SOL     OW 4214   0.971   7.601   3.556
  792SOL    HW1 4215   0.880   7.574   3.560
  792SOL    HW2 4216   0.977   7.653   3.476
  793SOL     OW 4217   8.642  11.102   9.588
  793SOL    HW1 4218   8.598  11.174   9.541
  793SOL    HW2 4219   8.689  11.145   9.659
  794SOL     OW 4220   7.531  13.291   6.929
  794SOL    HW1 4221   7.491  13.214   6.969
  794SOL    HW2 4222   7.473  13.364   6.954
  795SOL     OW 4223  10.727  12.894  10.118
  795SOL    HW1 4224  10.756  12.907  10.208
  795SOL    HW2 4225  10.697  12.803  10.115
  796SOL     OW 4226  12.751   4.611  12.587
  796SOL    HW1 4227  12.774   4.698  12.618
  796SOL    HW2 4228  12.709   4.569  12.663
  797SOL     OW 4229   5.234   8.031   3.412
  797SOL    HW1 4230   5.143   8.038   3.440
  797SOL    HW2 4231   5.232   8.058   3.320
  798SOL     OW 4232   5.495   3.035   5.244
  798SOL    HW1 4233   5.569   2.974   5.247
  798SOL    HW2 4234   5.426   2.990   5.292
  799SOL     OW 4235   1.572  10.964   8.039
  799SOL    HW1 4236   1.655  10.999   8.006
  799SOL    HW2 4237   1.570  10.991   8.131
  800SOL     OW 4238   9.689   6.410   2.677
  800SOL    HW1 4239   9.763   6.376   2.728
  800SOL    HW2 4240   9.704   6.504   2.674
  801SOL     OW 4241   5.996   3.030  12.488
  801SOL    HW1 4242   6.037   2.954  12.447
  801SOL    HW2 4243   6.065   3.067  12.543
  802SOL     OW 4244  13.089   0.418  10.467
  802SOL    HW1 4245  13.158   0.438  10.531
  802SOL    HW2 4246  13.008   0.450  10.507
  803SOL     OW 4247   5.828  12.773  11.803
  803SOL    HW1 4248   5.916  12.808  11.815
  803SOL    HW2 4249   5.770  12.845  11.830
  804SOL     OW 4250   4.944   0.684   6.194
  804SOL    HW1 4251   4.911   0.632   6.268
  804SOL    HW2 4252   4.986   0.760   6.236
  805SOL     OW 4253   9.401  12.270  11.723
  805SOL    HW1 4254   9.344  12.300  11.653
  805SOL    HW2 4255   9.401  12.342  11.786
  806SOL     OW 4256  10.078   9.018   9.777
  806SOL    HW1 4257  10.052   9.019   9.869
  806SOL    HW2 4258  10.005   8.978   9.731
  807SOL     OW 4259   9.432   0.357  10.394
  807SOL    HW1 4260   9.407   0.436  10.346
  807SOL    HW2 4261   9.473   0.390  10.474
  808SOL     OW 4262  11.646  12.807  14.445
  808SOL    HW1 4263  11.741  12.797  14.447
  808SOL    HW2 4264  11.629  12.888  14.493
  809SOL     OW 4265  13.592  12.582   4.200
  809SOL    HW1 4266  13.497  12.585   4.208
  809SOL    HW2 4267  13.608  12.567   4.107
  810SOL     OW 4268  10.031   7.946   1.226
  810SOL    HW1 4269  10.092   8.015   1.253
  810SOL    HW2 4270  10.015   7.962   1.133
  811SOL     OW 4271   0.596  11.912  13.637
  811SOL    HW1 4272   0.633  11.985  13.686
  811SOL    HW2 4273   0.654  11.901  13.562
  812SOL     OW 4274   1.384   9.577   0.204
  812SOL    HW1 4275   1.446   9.504   0.205
  812SOL    HW2 4276   1.375   9.603   0.296
  813SOL     OW 4277   3.251   4.357  13.473
  813SOL    HW1 4278   3.164   4.370  13.510
  813SOL    HW2 4279   3.289   4.445  13.469
  814SOL     OW 4280  13.626   4.000   2.608
  814SOL    HW1 4281  13.715   4.032   2.626
  814SOL    HW2 4282  13.630   3.906   2.626
  815SOL     OW 4283   3.255   5.793   0.659
  815SOL    HW1 4284   3.217   5.707   0.678
  815SOL    HW2 4285   3.189   5.855   0.689
  816SOL     OW 4286   2.463   1.856   8.341
  816SOL    HW1 4287   2.436   1.799   8.413
  816SOL    HW2 4288   2.410   1.935   8.353
  817SOL     OW 4289   9.261  14.776  10.577
  817SOL    HW1 4290   9.329  14.710  10.561
  817SOL    HW2 4291   9.208  14.738  10.648
  818SOL     OW 4292   4.241   7.319   0.255
  818SOL    HW1 4293   4.274   7.265   0.184
  818SOL    HW2 4294   4.318   7.342   0.306
  819SOL     OW 4295   1.115  11.562  10.993
  819SOL    HW1 4296   1.047  11.628  10.994
  819SOL    HW2 4297   1.193  11.607  11.025
  820SOL     OW 4298   6.549   0.964  13.098
  820SOL    HW1 4299   6.512   0.884  13.135
  820SOL    HW2 4300   6.616   0.933  13.037
  821SOL     OW 4301  10.735  12.856   9.336
  821SOL    HW1 4302  10.814  12.910   9.346
  821SOL    HW2 4303  10.702  12.844   9.425
  822SOL     OW 4304   9.009  13.784   5.093
  822SOL    HW1 4305   9.042  13.740   5.014
  822SOL    HW2 4306   8.915  13.766   5.093
  823SOL     OW 4307  11.669  12.414   0.878
  823SOL    HW1 4308  11.688  12.330   0.920
  823SOL    HW2 4309  11.576  12.408   0.856
  824SOL     OW 4310  10.019   6.239   5.752
  824SOL    HW1 4311  10.033   6.291   5.831
  824SOL    HW2 4312   9.924   6.228   5.746
  825SOL     OW 4313  11.157  10.201   2.395
  825SOL    HW1 4314  11.168  10.188   2.489
  825SOL    HW2 4315  11.064  10.223   2.385
  826SOL     OW 4316   6.991   5.586  11.236
  826SOL    HW1 4317   6.920   5.622  11.288
  826SOL    HW2 4318   6.956   5.505  11.200
  827SOL     OW 4319   5.981  13.236   2.728
  827SOL    HW1 4320   6.074  13.239   2.706
  827SOL    HW2 4321   5.938  13.285   2.658
  828SOL     OW 4322   5.268  10.274   3.975
  828SOL    HW1 4323   5.287  10.213   3.905
  828SOL    HW2 4324   5.345  10.331   3.979
  829SOL     OW 4325  11.536  11.935   6.657
  829SOL    HW1 4326  11.608  11.873   6.667
  829SOL    HW2 4327  11.472  11.910   6.723
  830SOL     OW 4328  13.395  14.275   7.840
  830SOL    HW1 4329  13.359  14.189   7.820
  830SOL    HW2 4330  13.407  14.275   7.935
  831SOL     OW 4331   9.127   9.523   5.244
  831SOL    HW1 4332   9.177   9.459   5.193
  831SOL    HW2 4333   9.128   9.487   5.333
  832SOL     OW 4334  14.319   6.030   4.624
  832SOL    HW1 4335  14.244   6.072   4.666
  832SOL    HW2 4336  14.393   6.054   4.680
  833SOL     OW 4337  14.165   9.429   7.477
  833SOL    HW1 4338  14.249   9.466   7.502
  833SOL    HW2 4339  14.183   9.335   7.467
  834SOL     OW 4340  14.512  10.535  11.410
  834SOL    HW1 4341  14.479  10.454  11.372
  834SOL    HW2 4342  14.517  10.596  11.336
  835SOL     OW 4343  14.176   2.145  14.842
  835SOL    HW1 4344  14.178   2.049  14.843
  835SOL    HW2 4345  14.150   2.169   0.057
  836SOL     OW 4346  10.180   5.221  12.384
  836SOL    HW1 4347  10.143   5.232  12.472
  836SOL    HW2 4348  10.245   5.151  12.394
  837SOL     OW 4349   7.974  12.877  13.871
  837SOL    HW1 4350   7.983  12.903  13.779
  837SOL    HW2 4351   8.064  12.872  13.903
  838SOL     OW 4352   8.275   4.154   3.369
  838SOL    HW1 4353   8.312   4.201   3.444
  838SOL    HW2 4354   8.214   4.091   3.408
  839SOL     OW 4355   3.298   6.218   2.761
  839SOL    HW1 4356   3.253   6.164   2.696
  839SOL    HW2 4357   3.298   6.306   2.723
  840SOL     OW 4358  14.773   2.932   5.597
  840SOL    HW1 4359  14.784   2.991   5.671
  840SOL    HW2 4360  14.861   2.925   5.558
  841SOL     OW 4361  13.317  10.436   9.976
  841SOL    HW1 4362  13.411  10.420   9.974
  841SOL    HW2 4363  13.309  10.531   9.986
  842SOL     OW 4364   1.980  13.027   5.736
  842SOL    HW1 4365   1.967  13.037   5.830
  842SOL    HW2 4366   2.070  12.994   5.728
  843SOL     OW 4367  11.718   5.322   4.628
  843SOL    HW1 4368  11.635   5.303   4.672
  843SOL    HW2 4369  11.747   5.405   4.667
  844SOL     OW 4370   1.757   2.006  10.377
  844SOL    HW1 4371   1.777   2.066  10.305
  844SOL    HW2 4372   1.664   1.986  10.365
  845SOL     OW 4373   8.227  14.593   2.940
  845SOL    HW1 4374   8.165  14.590   2.867
  845SOL    HW2 4375   8.180  14.556   3.014
  846SOL     OW 4376   7.361   6.334   8.045
  846SOL    HW1 4377   7.317   6.252   8.022
  846SOL    HW2 4378   7.357   6.337   8.141
  847SOL     OW 4379   7.665  12.322   3.139
  847SOL    HW1 4380   7.571  12.335   3.152
  847SOL    HW2 4381   7.697  12.295   3.225
  848SOL     OW 4382   6.633   5.755   6.541
  848SOL    HW1 4383   6.552   5.710   6.519
  848SOL    HW2 4384   6.700   5.686   6.542
  849SOL     OW 4385   8.626   1.531   5.236
  849SOL    HW1 4386   8.680   1.585   5.179
  849SOL    HW2 4387   8.584   1.594   5.295
  850SOL     OW 4388   4.426   9.733   0.590
  850SOL    HW1 4389   4.448   9.674   0.519
  850SOL    HW2 4390   4.380   9.806   0.549
  851SOL     OW 4391   8.956   5.244   1.776
  851SOL    HW1 4392   8.899   5.184   1.824
  851SOL    HW2 4393   9.038   5.196   1.765
  852SOL     OW 4394   5.523   1.841  14.032
  852SOL    HW1 4395   5.454   1.847  13.965
  852SOL    HW2 4396   5.543   1.932  14.054
  853SOL     OW 4397   2.649  12.406  11.156
  853SOL    HW1 4398   2.629  12.466  11.228
  853SOL    HW2 4399   2.635  12.457  11.077
  854SOL     OW 4400  10.654   9.474   3.600
  854SOL    HW1 4401  10.678   9.453   3.690
  854SOL    HW2 4402  10.733   9.454   3.549
  855SOL     OW 4403   4.616   9.558   9.855
  855SOL    HW1 4404   4.710   9.579   9.853
  855SOL    HW2 4405   4.582   9.607   9.930
  856SOL     OW 4406   6.335  12.425  12.537
  856SOL    HW1 4407   6.402  12.360  12.557
  856SOL    HW2 4408   6.253  12.387  12.569
  857SOL     OW 4409   2.147   3.668   5.375
  857SOL    HW1 4410   2.070   3.724   5.361
  857SOL    HW2 4411   2.208   3.692   5.305
  858SOL     OW 4412   3.000  12.998  14.078
  858SOL    HW1 4413   3.032  12.925  14.026
  858SOL    HW2 4414   2.976  13.065  14.013
  859SOL     OW 4415  13.222   2.678   8.564
  859SOL    HW1 4416  13.127   2.683   8.579
  859SOL    HW2 4417  13.260   2.734   8.631
  860SOL     OW 4418   9.109   9.555  13.155
  860SOL    HW1 4419   9.031   9.563  13.100
  860SOL    HW2 4420   9.079   9.510  13.234
  861SOL     OW 4421   8.445   5.901   0.857
  861SOL    HW1 4422   8.448   5.872   0.766
  861SOL    HW2 4423   8.352   5.903   0.879
  862SOL     OW 4424   3.527   2.193   0.457
  862SOL    HW1 4425   3.513   2.104   0.426
  862SOL    HW2 4426   3.619   2.195   0.484
  863SOL     OW 4427   9.772  13.355  12.810
  863SOL    HW1 4428   9.676  13.361  12.815
  863SOL    HW2 4429   9.803  13.407  12.883
  864SOL     OW 4430   9.021   1.399  10.051
  864SOL    HW1 4431   9.046   1.417   9.960
  864SOL    HW2 4432   9.002   1.486  10.088
  865SOL     OW 4433   6.236   6.171  14.054
  865SOL    HW1 4434   6.174   6.179  14.126
  865SOL    HW2 4435   6.239   6.257  14.014
  866SOL     OW 4436   1.704   5.958  10.426
  866SOL    HW1 4437   1.774   5.987  10.484
  866SOL    HW2 4438   1.687   6.034  10.369
  867SOL     OW 4439   1.929   6.915  13.882
  867SOL    HW1 4440   1.863   6.943  13.819
  867SOL    HW2 4441   1.959   6.830  13.849
  868SOL     OW 4442   8.742   2.467   8.543
  868SOL    HW1 4443   8.774   2.378   8.526
  868SOL    HW2 4444   8.730   2.471   8.637
  869SOL     OW 4445   3.617   1.439   4.788
  869SOL    HW1 4446   3.681   1.372   4.767
  869SOL    HW2 4447   3.662   1.522   4.771
  870SOL     OW 4448   0.220   6.706   9.077
  870SOL    HW1 4449   0.204   6.663   9.161
  870SOL    HW2 4450   0.181   6.646   9.012
  871SOL     OW 4451  12.993   0.088   4.429
  871SOL    HW1 4452  13.045   0.015   4.463
  871SOL    HW2 4453  12.921   0.098   4.492
  872SOL     OW 4454   9.069  14.373   8.051
  872SOL    HW1 4455   8.984  14.374   8.006
  872SOL    HW2 4456   9.067  14.294   8.105
  873SOL     OW 4457   5.722   5.127  12.714
  873SOL    HW1 4458   5.698   5.217  12.694
  873SOL    HW2 4459   5.660   5.074  12.664
  874SOL     OW 4460   3.751   1.037   2.519
  874SOL    HW1 4461   3.692   1.104   2.487
  874SOL    HW2 4462   3.837   1.079   2.520
  875SOL     OW 4463   7.659   1.882   9.055
  875SOL    HW1 4464   7.628   1.828   8.982
  875SOL    HW2 4465   7.581   1.929   9.083
  876SOL     OW 4466  11.176  12.276   2.093
  876SOL    HW1 4467  11.206  12.265   2.003
  876SOL    HW2 4468  11.255  12.297   2.143
  877SOL     OW 4469   9.376   8.129   6.715
  877SOL    HW1 4470   9.300   8.076   6.740
  877SOL    HW2 4471   9.356   8.158   6.625
  878SOL     OW 4472  12.768   9.809   8.898
  878SOL    HW1 4473  12.762   9.714   8.903
  878SOL    HW2 4474  12.699   9.833   8.835
  879SOL     OW 4475   8.123   2.129  12.649
  879SOL    HW1 4476   8.121   2.082  12.732
  879SOL    HW2 4477   8.205   2.102  12.608
  880SOL     OW 4478  11.918   3.419   8.202
  880SOL    HW1 4479  11.853   3.482   8.170
  880SOL    HW2 4480  11.956   3.461   8.278
  881SOL     OW 4481  11.135  12.079  13.331
  881SOL    HW1 4482  11.226  12.054  13.349
  881SOL    HW2 4483  11.082  12.009  13.368
  882SOL     OW 4484   2.733   2.839   3.700
  882SOL    HW1 4485   2.698   2.929   3.698
  882SOL    HW2 4486   2.791   2.838   3.776
  883SOL     OW 4487   1.432   1.444   0.413
  883SOL    HW1 4488   1.424   1.370   0.474
  883SOL    HW2 4489   1.503   1.497   0.450
  884SOL     OW 4490   4.270   4.164  10.963
  884SOL    HW1 4491   4.249   4.161  10.870
  884SOL    HW2 4492   4.274   4.072  10.989
  885SOL     OW 4493  10.695   2.044  10.638
  885SOL    HW1 4494  10.641   1.982  10.687
  885SOL    HW2 4495  10.653   2.129  10.653
  886SOL     OW 4496   9.818   3.729   3.562
  886SOL    HW1 4497   9.795   3.690   3.478
  886SOL    HW2 4498   9.734   3.745   3.605
  887SOL     OW 4499  13.348  10.123  14.192
  887SOL    HW1 4500  13.380  10.103  14.280
  887SOL    HW2 4501  13.380  10.051  14.138
  888SOL     OW 4502  14.702   3.550  10.551
  888SOL    HW1 4503  14.742   3.611  10.490
  888SOL    HW2 4504  14.711   3.592  10.636
  889SOL     OW 4505   0.606  14.083   7.297
  889SOL    HW1 4506   0.598  14.003   7.244
  889SOL    HW2 4507   0.560  14.150   7.246
  890SOL     OW 4508   8.866  14.709   9.845
  890SOL    HW1 4509   8.863  14.776   9.777
  890SOL    HW2 4510   8.868  14.626   9.797
  891SOL     OW 4511  13.165   6.085   2.119
  891SOL    HW1 4512  13.071   6.100   2.120
  891SOL    HW2 4513  13.177   6.013   2.058
  892SOL     OW 4514   6.884  12.986   7.060
  892SOL    HW1 4515   6.954  13.045   7.086
  892SOL    HW2 4516   6.878  12.924   7.132
  893SOL     OW 4517  12.272   6.155   6.156
  893SOL    HW1 4518  12.270   6.180   6.064
  893SOL    HW2 4519  12.184   6.176   6.188
  894SOL     OW 4520  11.129   5.534   3.172
  894SOL    HW1 4521  11.194   5.603   3.184
  894SOL    HW2 4522  11.180   5.456   3.148
  895SOL     OW 4523   3.625   5.764   1.706
  895SOL    HW1 4524   3.557   5.709   1.667
  895SOL    HW2 4525   3.618   5.848   1.660
  896SOL     OW 4526  11.974  10.039  12.801
  896SOL    HW1 4527  11.961  10.128  12.835
  896SOL    HW2 4528  11.915   9.984  12.853
  897SOL     OW 4529  10.511   5.331   8.903
  897SOL    HW1 4530  10.528   5.406   8.960
  897SOL    HW2 4531  10.552   5.354   8.820
  898SOL     OW 4532   6.991  11.912   0.933
  898SOL    HW1 4533   6.983  11.866   0.850
  898SOL    HW2 4534   7.052  11.983   0.915
  899SOL     OW 4535   6.357   9.879   4.608
  899SOL    HW1 4536   6.443   9.856   4.642
  899SOL    HW2 4537   6.339   9.812   4.542
  900SOL     OW 4538   1.669   0.084  12.356
  900SOL    HW1 4539   1.651   0.106  12.447
  900SOL    HW2 4540   1.760   0.055  12.356
  901SOL     OW 4541  10.167   2.585  14.616
  901SOL    HW1 4542  10.199   2.630  14.695
  901SOL    HW2 4543  10.240   2.530  14.589
  902SOL     OW 4544  11.593   9.588  14.790
  902SOL    HW1 4545  11.613   9.681  14.792
  902SOL    HW2 4546  11.502   9.583  14.821
  903SOL     OW 4547  10.396   9.232  12.743
  903SOL    HW1 4548  10.318   9.277  12.776
  903SOL    HW2 4549  10.361   9.160  12.691
  904SOL     OW 4550  13.905   1.759  14.185
  904SOL    HW1 4551  13.978   1.810  14.220
  904SOL    HW2 4552  13.827   1.808  14.212
  905SOL     OW 4553   3.617  13.664  10.836
  905SOL    HW1 4554   3.701  13.709  10.832
  905SOL    HW2 4555   3.564  13.706  10.768
  906SOL     OW 4556   5.601  13.349  12.976
  906SOL    HW1 4557   5.615  13.297  12.898
  906SOL    HW2 4558   5.588  13.438  12.944
  907SOL     OW 4559   7.912   2.180   7.510
  907SOL    HW1 4560   7.873   2.266   7.530
  907SOL    HW2 4561   7.962   2.158   7.589
  908SOL     OW 4562  10.688   9.061   8.544
  908SOL    HW1 4563  10.593   9.060   8.558
  908SOL    HW2 4564  10.725   9.046   8.632
  909SOL     OW 4565   7.383  12.122   7.266
  909SOL    HW1 4566   7.423  12.149   7.183
  909SOL    HW2 4567   7.289  12.119   7.247
  910SOL     OW 4568  14.839   6.988   1.021
  910SOL    HW1 4569   0.048   6.987   1.068
  910SOL    HW2 4570  14.850   7.058   0.956
  911SOL     OW 4571   9.644  13.190   5.389
  911SOL    HW1 4572   9.668  13.149   5.472
  911SOL    HW2 4573   9.699  13.145   5.324
  912SOL     OW 4574   5.587  14.579   5.240
  912SOL    HW1 4575   5.549  14.497   5.273
  912SOL    HW2 4576   5.542  14.647   5.290
  913SOL     OW 4577   3.017  10.129  10.098
  913SOL    HW1 4578   3.082  10.167  10.156
  913SOL    HW2 4579   3.010  10.038  10.126
  914SOL     OW 4580   1.469  13.879   8.184
  914SOL    HW1 4581   1.468  13.840   8.271
  914SOL    HW2 4582   1.388  13.930   8.178
  915SOL     OW 4583   6.804   2.650  13.453
  915SOL    HW1 4584   6.899   2.651  13.458
  915SOL    HW2 4585   6.776   2.726  13.504
  916SOL     OW 4586   4.272   5.105   8.348
  916SOL    HW1 4587   4.300   5.015   8.329
  916SOL    HW2 4588   4.327   5.132   8.421
  917SOL     OW 4589   3.105   3.856   7.775
  917SOL    HW1 4590   3.015   3.841   7.805
  917SOL    HW2 4591   3.128   3.776   7.728
  918SOL     OW 4592  14.622   0.523   4.752
  918SOL    HW1 4593  14.704   0.486   4.783
  918SOL    HW2 4594  14.584   0.456   4.696
  919SOL     OW 4595  11.309   3.256   5.814
  919SOL    HW1 4596  11.322   3.161   5.819
  919SOL    HW2 4597  11.215   3.267   5.801
  920SOL     OW 4598   3.089   2.148   2.347
  920SOL    HW1 4599   3.105   2.060   2.380
  920SOL    HW2 4600   3.175   2.189   2.347
  921SOL     OW 4601   4.208   7.464   3.105
  921SOL    HW1 4602   4.221   7.382   3.152
  921SOL    HW2 4603   4.256   7.529   3.158
  922SOL     OW 4604  10.451   9.940  13.672
  922SOL    HW1 4605  10.538   9.906  13.691
  922SOL    HW2 4606  10.422   9.980  13.754
  923SOL     OW 4607  11.308   7.207   3.270
  923SOL    HW1 4608  11.330   7.133   3.214
  923SOL    HW2 4609  11.220   7.187   3.302
  924SOL     OW 4610   8.968   9.424  10.261
  924SOL    HW1 4611   8.955   9.350  10.201
  924SOL    HW2 4612   8.930   9.395  10.344
  925SOL     OW 4613   7.215  13.368   2.435
  925SOL    HW1 4614   7.240  13.407   2.351
  925SOL    HW2 4615   7.275  13.294   2.445
  926SOL     OW 4616   4.436   6.124   8.580
  926SOL    HW1 4617   4.476   6.140   8.666
  926SOL    HW2 4618   4.406   6.034   8.584
  927SOL     OW 4619  14.477  10.364   6.972
  927SOL    HW1 4620  14.448  10.273   6.972
  927SOL    HW2 4621  14.408  10.411   7.019
  928SOL     OW 4622  12.739   6.043   1.570
  928SOL    HW1 4623  12.719   5.952   1.547
  928SOL    HW2 4624  12.695   6.056   1.654
  929SOL     OW 4625   9.121   4.936   1.532
  929SOL    HW1 4626   9.214   4.926   1.515
  929SOL    HW2 4627   9.094   5.008   1.474
  930SOL     OW 4628  10.014   6.123   9.631
  930SOL    HW1 4629   9.995   6.035   9.600
  930SOL    HW2 4630   9.937   6.174   9.606
  931SOL     OW 4631  11.141   5.224   2.644
  931SOL    HW1 4632  11.230   5.259   2.639
  931SOL    HW2 4633  11.109   5.226   2.554
  932SOL     OW 4634   4.622   6.027   3.619
  932SOL    HW1 4635   4.573   5.978   3.685
  932SOL    HW2 4636   4.658   5.960   3.561
  933SOL     OW 4637   4.787  11.622   1.904
  933SOL    HW1 4638   4.698  11.655   1.918
  933SOL    HW2 4639   4.782  11.530   1.932
  934SOL     OW 4640   1.073   2.092   2.943
  934SOL    HW1 4641   1.102   2.101   3.034
  934SOL    HW2 4642   0.978   2.097   2.948
  935SOL     OW 4643   3.766   1.911   2.468
  935SOL    HW1 4644   3.739   1.823   2.442
  935SOL    HW2 4645   3.684   1.960   2.475
  936SOL     OW 4646   2.850   0.834   0.514
  936SOL    HW1 4647   2.895   0.842   0.430
  936SOL    HW2 4648   2.820   0.923   0.533
  937SOL     OW 4649   8.081  14.298   7.184
  937SOL    HW1 4650   8.046  14.287   7.096
  937SOL    HW2 4651   8.176  14.291   7.172
  938SOL     OW 4652  10.205   6.851   0.127
  938SOL    HW1 4653  10.254   6.919   0.081
  938SOL    HW2 4654  10.172   6.794   0.057
  939SOL     OW 4655  11.030   5.215   2.399
  939SOL    HW1 4656  10.981   5.187   2.322
  939SOL    HW2 4657  11.122   5.200   2.376
  940SOL     OW 4658   5.377   7.236  10.602
  940SOL    HW1 4659   5.353   7.328  10.617
  940SOL    HW2 4660   5.454   7.240  10.546
  941SOL     OW 4661   8.263  13.820   4.058
  941SOL    HW1 4662   8.273  13.735   4.015
  941SOL    HW2 4663   8.321  13.879   4.010
  942SOL     OW 4664   0.420  12.475  10.905
  942SOL    HW1 4665   0.437  12.464  10.998
  942SOL    HW2 4666   0.333  12.437  10.891
  943SOL     OW 4667   3.983  14.716   7.296
  943SOL    HW1 4668   3.899  14.675   7.277
  943SOL    HW2 4669   3.973  14.807   7.267
  944SOL     OW 4670   0.014  10.476   8.237
  944SOL    HW1 4671  14.830  10.548   8.259
  944SOL    HW2 4672  14.857  10.444   8.152
  945SOL     OW 4673  12.080  12.761  11.528
  945SOL    HW1 4674  12.111  12.849  11.508
  945SOL    HW2 4675  12.136  12.730  11.599
  946SOL     OW 4676   1.434  13.923  10.521
  946SOL    HW1 4677   1.440  14.016  10.501
  946SOL    HW2 4678   1.357  13.915  10.577
  947SOL     OW 4679   7.819   7.056   7.787
  947SOL    HW1 4680   7.889   7.116   7.814
  947SOL    HW2 4681   7.860   6.970   7.787
  948SOL     OW 4682   8.346   4.258   0.426
  948SOL    HW1 4683   8.330   4.243   0.520
  948SOL    HW2 4684   8.356   4.353   0.419
  949SOL     OW 4685   1.744   6.782  10.816
  949SOL    HW1 4686   1.662   6.734  10.821
  949SOL    HW2 4687   1.810   6.715  10.800
  950SOL     OW 4688   1.155  14.352   9.979
  950SOL    HW1 4689   1.221  14.298   9.936
  950SOL    HW2 4690   1.088  14.365   9.912
  951SOL     OW 4691   9.010  13.990   0.420
  951SOL    HW1 4692   8.931  14.018   0.465
  951SOL    HW2 4693   8.993  14.009   0.328
  952SOL     OW 4694   1.242   6.453   1.730
  952SOL    HW1 4695   1.169   6.508   1.701
  952SOL    HW2 4696   1.318   6.511   1.727
  953SOL     OW 4697  13.850   6.033   6.679
  953SOL    HW1 4698  13.798   6.108   6.651
  953SOL    HW2 4699  13.794   5.988   6.742
  954SOL     OW 4700   5.331   9.997   0.579
  954SOL    HW1 4701   5.239  10.023   0.581
  954SOL    HW2 4702   5.364  10.030   0.495
  955SOL     OW 4703   6.856   5.602  12.567
  955SOL    HW1 4704   6.935   5.657  12.566
  955SOL    HW2 4705   6.798   5.643  12.503
  956SOL     OW 4706   4.948  12.534   9.693
  956SOL    HW1 4707   4.914  12.499   9.776
  956SOL    HW2 4708   5.030  12.487   9.679
  957SOL     OW 4709  10.950  12.641  10.944
  957SOL    HW1 4710  10.953  12.545  10.948
  957SOL    HW2 4711  10.971  12.669  11.033
  958SOL     OW 4712   9.232   8.782   8.807
  958SOL    HW1 4713   9.157   8.745   8.853
  958SOL    HW2 4714   9.306   8.768   8.866
  959SOL     OW 4715   6.478   3.184   8.174
  959SOL    HW1 4716   6.544   3.181   8.243
  959SOL    HW2 4717   6.397   3.155   8.217
  960SOL     OW 4718   0.590  11.505  10.415
  960SOL    HW1 4719   0.620  11.562  10.486
  960SOL    HW2 4720   0.502  11.479  10.441
  961SOL     OW 4721   8.420  14.729   8.810
  961SOL    HW1 4722   8.505  14.697   8.781
  961SOL    HW2 4723   8.398  14.798   8.747
  962SOL     OW 4724  12.378   0.065   3.242
  962SOL    HW1 4725  12.333   0.007   3.304
  962SOL    HW2 4726  12.455   0.096   3.289
  963SOL     OW 4727   1.166   4.796   9.303
  963SOL    HW1 4728   1.140   4.828   9.389
  963SOL    HW2 4729   1.255   4.829   9.291
  964SOL     OW 4730  11.657   6.608   7.285
  964SOL    HW1 4731  11.704   6.619   7.203
  964SOL    HW2 4732  11.594   6.538   7.267
  965SOL     OW 4733   3.588   4.921   8.639
  965SOL    HW1 4734   3.521   4.875   8.690
  965SOL    HW2 4735   3.632   4.851   8.589
  966SOL     OW 4736   9.498   1.838  11.344
  966SOL    HW1 4737   9.453   1.881  11.416
  966SOL    HW2 4738   9.591   1.839  11.369
  967SOL     OW 4739  13.152   5.855  11.779
  967SOL    HW1 4740  13.071   5.867  11.828
  967SOL    HW2 4741  13.133   5.785  11.717
  968SOL     OW 4742   3.217  12.690   7.191
  968SOL    HW1 4743   3.225  12.733   7.276
  968SOL    HW2 4744   3.153  12.620   7.206
  969SOL     OW 4745  13.233  11.796   4.018
  969SOL    HW1 4746  13.156  11.739   4.011
  969SOL    HW2 4747  13.218  11.847   4.097
  970SOL     OW 4748  13.545  10.941   3.752
  970SOL    HW1 4749  13.561  11.018   3.807
  970SOL    HW2 4750  13.633  10.913   3.725
  971SOL     OW 4751  10.850  12.132   2.826
  971SOL    HW1 4752  10.939  12.123   2.791
  971SOL    HW2 4753  10.831  12.225   2.819
  972SOL     OW 4754   8.466  13.363  14.831
  972SOL    HW1 4755   8.543  13.364  14.775
  972SOL    HW2 4756   8.439  13.455  14.835
  973SOL     OW 4757   3.982   7.762   4.704
  973SOL    HW1 4758   3.934   7.817   4.642
  973SOL    HW2 4759   4.050   7.720   4.651
  974SOL     OW 4760  13.794   6.527   9.759
  974SOL    HW1 4761  13.770   6.612   9.795
  974SOL    HW2 4762  13.822   6.476   9.835
  975SOL     OW 4763   6.667   2.183   1.616
  975SOL    HW1 4764   6.608   2.205   1.544
  975SOL    HW2 4765   6.704   2.267   1.642
  976SOL     OW 4766   5.581  11.410  14.187
  976SOL    HW1 4767   5.532  11.346  14.239
  976SOL    HW2 4768   5.593  11.485  14.245
  977SOL     OW 4769   3.280   5.046   4.965
  977SOL    HW1 4770   3.351   5.109   4.977
  977SOL    HW2 4771   3.273   5.000   5.049
  978SOL     OW 4772   2.123   4.271   2.911
  978SOL    HW1 4773   2.172   4.351   2.930
  978SOL    HW2 4774   2.031   4.296   2.918
  979SOL     OW 4775   5.818   2.120   6.204
  979SOL    HW1 4776   5.865   2.121   6.121
  979SOL    HW2 4777   5.748   2.185   6.192
  980SOL     OW 4778  10.215   1.415  13.263
  980SOL    HW1 4779  10.192   1.476  13.334
  980SOL    HW2 4780  10.228   1.331  13.307
  981SOL     OW 4781  11.085  13.747  12.191
  981SOL    HW1 4782  11.127  13.664  12.213
  981SOL    HW2 4783  11.149  13.814  12.212
  982SOL     OW 4784   4.162   8.426   3.673
  982SOL    HW1 4785   4.111   8.346   3.659
  982SOL    HW2 4786   4.246   8.394   3.707
  983SOL     OW 4787   8.627   1.030  12.812
  983SOL    HW1 4788   8.661   1.012  12.724
  983SOL    HW2 4789   8.689   0.988  12.871
  984SOL     OW 4790   2.053  10.676   0.074
  984SOL    HW1 4791   2.057  10.654  14.855
  984SOL    HW2 4792   2.113  10.749   0.084
  985SOL     OW 4793   3.138  10.598   7.295
  985SOL    HW1 4794   3.204  10.529   7.307
  985SOL    HW2 4795   3.129  10.606   7.200
  986SOL     OW 4796   5.253   7.988  12.082
  986SOL    HW1 4797   5.226   8.023  12.166
  986SOL    HW2 4798   5.334   7.941  12.099
  987SOL     OW 4799   6.891   1.735   5.908
  987SOL    HW1 4800   6.809   1.729   5.858
  987SOL    HW2 4801   6.948   1.669   5.869
  988SOL     OW 4802   0.274  10.567   4.065
  988SOL    HW1 4803   0.344  10.627   4.044
  988SOL    HW2 4804   0.195  10.607   4.028
  989SOL     OW 4805   9.254   0.996  12.411
  989SOL    HW1 4806   9.319   1.061  12.438
  989SOL    HW2 4807   9.266   0.923  12.473
  990SOL     OW 4808   8.398   1.555  12.212
  990SOL    HW1 4809   8.467   1.611  12.246
  990SOL    HW2 4810   8.400   1.478  12.268
  991SOL     OW 4811  10.723   0.960   1.916
  991SOL    HW1 4812  10.739   1.023   1.986
  991SOL    HW2 4813  10.750   1.005   1.836
  992SOL     OW 4814   4.527   2.551   8.348
  992SOL    HW1 4815   4.596   2.520   8.289
  992SOL    HW2 4816   4.450   2.562   8.291
  993SOL     OW 4817   0.535   4.752   5.453
  993SOL    HW1 4818   0.540   4.818   5.522
  993SOL    HW2 4819   0.625   4.742   5.422
  994SOL     OW 4820   4.500  13.954   1.126
  994SOL    HW1 4821   4.531  14.044   1.113
  994SOL    HW2 4822   4.553  13.902   1.066
  995SOL     OW 4823   1.144   4.515   9.483
  995SOL    HW1 4824   1.053   4.523   9.514
  995SOL    HW2 4825   1.136   4.485   9.393
  996SOL     OW 4826  11.786   6.122   0.133
  996SOL    HW1 4827  11.755   6.074   0.056
  996SOL    HW2 4828  11.862   6.171   0.101
  997SOL     OW 4829   9.955   1.941  14.484
  997SOL    HW1 4830   9.869   1.920  14.446
  997SOL    HW2 4831   9.935   1.972  14.572
  998SOL     OW 4832   4.390  12.701   3.802
  998SOL    HW1 4833   4.368  12.794   3.789
  998SOL    HW2 4834   4.470  12.703   3.854
  999SOL     OW 4835   9.922   6.809  11.622
  999SOL    HW1 4836   9.839   6.837  11.660
  999SOL    HW2 4837   9.898   6.739  11.562
 1000SOL     OW 4838  12.900  12.277  12.121
 1000SOL    HW1 4839  12.917  12.237  12.036
 1000SOL    HW2 4840  12.903  12.205  12.183
 1001SOL     OW 4841   6.181   9.446  12.953
 1001SOL    HW1 4842   6.275   9.434  12.944
 1001SOL    HW2 4843   6.147   9.358  12.968
 1002SOL     OW 4844   9.915   6.857   4.075
 1002SOL    HW1 4845   9.914   6.777   4.127
 1002SOL    HW2 4846   9.826   6.891   4.082
 1003SOL     OW 4847   6.542  13.888   3.291
 1003SOL    HW1 4848   6.566  13.816   3.233
 1003SOL    HW2 4849   6.572  13.966   3.245
 1004SOL     OW 4850  11.749   2.072   1.316
 1004SOL    HW1 4851  11.724   2.042   1.229
 1004SOL    HW2 4852  11.686   2.029   1.375
 1005SOL     OW 4853   0.465  12.364   8.727
 1005SOL    HW1 4854   0.427  12.449   8.706
 1005SOL    HW2 4855   0.453  12.312   8.647
 1006SOL     OW 4856   1.964   3.053  10.747
 1006SOL    HW1 4857   1.941   3.129  10.694
 1006SOL    HW2 4858   1.972   3.087  10.836
 1007SOL     OW 4859   1.857   0.921  13.029
 1007SOL    HW1 4860   1.934   0.936  13.084
 1007SOL    HW2 4861   1.850   0.826  13.022
 1008SOL     OW 4862   3.862  10.509   2.248
 1008SOL    HW1 4863   3.949  10.470   2.247
 1008SOL    HW2 4864   3.874  10.595   2.287
 1009SOL     OW 4865   7.351   0.699  14.689
 1009SOL    HW1 4866   7.425   0.758  14.669
 1009SOL    HW2 4867   7.299   0.747  14.753
 1010SOL     OW 4868   2.346   1.014  12.770
 1010SOL    HW1 4869   2.288   0.962  12.826
 1010SOL    HW2 4870   2.303   1.099  12.763
 1011SOL     OW 4871   2.397   6.469   0.992
 1011SOL    HW1 4872   2.435   6.394   0.945
 1011SOL    HW2 4873   2.372   6.530   0.923
 1012SOL     OW 4874   4.384   7.656   2.972
 1012SOL    HW1 4875   4.351   7.573   3.009
 1012SOL    HW2 4876   4.333   7.667   2.892
 1013SOL     OW 4877  11.321   8.480  10.434
 1013SOL    HW1 4878  11.347   8.411  10.374
 1013SOL    HW2 4879  11.330   8.561  10.384
 1014SOL     OW 4880  11.005   2.690  12.743
 1014SOL    HW1 4881  10.945   2.757  12.776
 1014SOL    HW2 4882  11.064   2.737  12.684
 1015SOL     OW 4883  11.937   3.620   3.420
 1015SOL    HW1 4884  11.909   3.700   3.463
 1015SOL    HW2 4885  11.880   3.552   3.457
 1016SOL     OW 4886   5.473  13.215   4.249
 1016SOL    HW1 4887   5.543  13.180   4.303
 1016SOL    HW2 4888   5.451  13.144   4.189
 1017SOL     OW 4889   4.275  11.402   4.050
 1017SOL    HW1 4890   4.345  11.377   4.111
 1017SOL    HW2 4891   4.220  11.323   4.043
 1018SOL     OW 4892   6.164   7.001  11.663
 1018SOL    HW1 4893   6.092   7.063  11.669
 1018SOL    HW2 4894   6.193   6.988  11.754
 1019SOL     OW 4895   7.822  11.455  12.648
 1019SOL    HW1 4896   7.801  11.403  12.571
 1019SOL    HW2 4897   7.908  11.423  12.676
 1020SOL     OW 4898   2.826  13.205   6.549
 1020SOL    HW1 4899   2.838  13.275   6.613
 1020SOL    HW2 4900   2.736  13.176   6.560
 1021SOL     OW 4901  10.531   5.603   9.008
 1021SOL    HW1 4902  10.547   5.583   9.100
 1021SOL    HW2 4903  10.436   5.616   9.002
 1022SOL     OW 4904   7.032   6.023   5.705
 1022SOL    HW1 4905   7.016   6.046   5.796
 1022SOL    HW2 4906   6.958   5.966   5.681
 1023SOL     OW 4907   3.972   6.144   1.761
 1023SOL    HW1 4908   3.922   6.067   1.787
 1023SOL    HW2 4909   3.906   6.205   1.728
 1024SOL     OW 4910   3.697   6.600   3.516
 1024SOL    HW1 4911   3.673   6.670   3.577
 1024SOL    HW2 4912   3.781   6.629   3.479
 1025SOL     OW 4913   7.671   8.163   4.312
 1025SOL    HW1 4914   7.754   8.204   4.337
 1025SOL    HW2 4915   7.647   8.110   4.388
 1026SOL     OW 4916   0.416  11.646   6.697
 1026SOL    HW1 4917   0.406  11.679   6.786
 1026SOL    HW2 4918   0.405  11.723   6.642
 1027SOL     OW 4919  13.774  12.222   2.399
 1027SOL    HW1 4920  13.850  12.280   2.392
 1027SOL    HW2 4921  13.698  12.280   2.394
 1028SOL     OW 4922   0.269  14.263   7.957
 1028SOL    HW1 4923   0.226  14.178   7.965
 1028SOL    HW2 4924   0.238  14.298   7.873
 1029SOL     OW 4925   2.532  10.506   4.401
 1029SOL    HW1 4926   2.500  10.542   4.484
 1029SOL    HW2 4927   2.534  10.581   4.342
 1030SOL     OW 4928   8.817   0.728   5.166
 1030SOL    HW1 4929   8.820   0.816   5.128
 1030SOL    HW2 4930   8.725   0.716   5.190
 1031SOL     OW 4931   8.946  10.336   1.231
 1031SOL    HW1 4932   9.029  10.363   1.191
 1031SOL    HW2 4933   8.896  10.418   1.239
 1032SOL     OW 4934   0.740   4.675   9.232
 1032SOL    HW1 4935   0.807   4.736   9.200
 1032SOL    HW2 4936   0.686   4.727   9.292
 1033SOL     OW 4937   2.002  12.294   2.044
 1033SOL    HW1 4938   1.936  12.282   1.976
 1033SOL    HW2 4939   1.961  12.258   2.123
 1034SOL     OW 4940  10.447  14.255  13.968
 1034SOL    HW1 4941  10.382  14.318  13.999
 1034SOL    HW2 4942  10.400  14.199  13.907
 1035SOL     OW 4943   2.284   6.570  14.214
 1035SOL    HW1 4944   2.327   6.510  14.274
 1035SOL    HW2 4945   2.216   6.518  14.171
 1036SOL     OW 4946   4.001  12.258  13.019
 1036SOL    HW1 4947   3.952  12.204  13.081
 1036SOL    HW2 4948   4.093  12.244  13.043
 1037SOL     OW 4949  11.091   9.461   8.160
 1037SOL    HW1 4950  11.030   9.424   8.096
 1037SOL    HW2 4951  11.058   9.431   8.245
 1038SOL     OW 4952  12.831  10.229   4.587
 1038SOL    HW1 4953  12.835  10.249   4.494
 1038SOL    HW2 4954  12.780  10.301   4.625
 1039SOL     OW 4955   5.779   2.204  13.378
 1039SOL    HW1 4956   5.717   2.134  13.401
 1039SOL    HW2 4957   5.739   2.247  13.303
 1040SOL     OW 4958   9.164   7.116   2.764
 1040SOL    HW1 4959   9.238   7.081   2.813
 1040SOL    HW2 4960   9.093   7.120   2.828
 1041SOL     OW 4961   1.574   7.134   2.874
 1041SOL    HW1 4962   1.510   7.098   2.935
 1041SOL    HW2 4963   1.531   7.211   2.836
 1042SOL     OW 4964   6.881   1.833   6.422
 1042SOL    HW1 4965   6.940   1.758   6.428
 1042SOL    HW2 4966   6.797   1.800   6.453
 1043SOL     OW 4967   8.646   4.079  12.766
 1043SOL    HW1 4968   8.628   4.169  12.740
 1043SOL    HW2 4969   8.726   4.056  12.719
 1044SOL     OW 4970   5.934   2.266  14.430
 1044SOL    HW1 4971   5.874   2.312  14.372
 1044SOL    HW2 4972   5.915   2.173  14.416
 1045SOL     OW 4973   8.825   1.998  13.882
 1045SOL    HW1 4974   8.800   2.080  13.840
 1045SOL    HW2 4975   8.750   1.940  13.869
 1046SOL     OW 4976   2.699  10.593  12.850
 1046SOL    HW1 4977   2.740  10.526  12.905
 1046SOL    HW2 4978   2.618  10.615  12.897
 1047SOL     OW 4979   3.658  14.213   9.080
 1047SOL    HW1 4980   3.730  14.166   9.122
 1047SOL    HW2 4981   3.586  14.150   9.077
 1048SOL     OW 4982  10.216   6.348   3.318
 1048SOL    HW1 4983  10.132   6.331   3.362
 1048SOL    HW2 4984  10.216   6.289   3.243
 1049SOL     OW 4985   3.207  14.624   3.512
 1049SOL    HW1 4986   3.231  14.699   3.457
 1049SOL    HW2 4987   3.113  14.615   3.501
 1050SOL     OW 4988   6.817   4.408  11.207
 1050SOL    HW1 4989   6.792   4.474  11.142
 1050SOL    HW2 4990   6.816   4.455  11.291
 1051SOL     OW 4991   5.879   9.845   5.865
 1051SOL    HW1 4992   5.876   9.820   5.958
 1051SOL    HW2 4993   5.920   9.770   5.821
 1052SOL     OW 4994  13.807   3.897   6.548
 1052SOL    HW1 4995  13.879   3.836   6.535
 1052SOL    HW2 4996  13.737   3.845   6.587
 1053SOL     OW 4997  14.492  10.066   7.944
 1053SOL    HW1 4998  14.429   9.997   7.961
 1053SOL    HW2 4999  14.496  10.072   7.848
 1054SOL     OW 5000   0.006   5.080   0.070
 1054SOL    HW1 5001  14.837   5.146   0.124
 1054SOL    HW2 5002   0.074   5.128   0.023
 1055SOL     OW 5003   6.519   3.561   7.916
 1055SOL    HW1 5004   6.496   3.615   7.992
 1055SOL    HW2 5005   6.610   3.582   7.898
 1056SOL     OW 5006  10.677   2.565   7.833
 1056SOL    HW1 5007  10.652   2.558   7.741
 1056SOL    HW2 5008  10.666   2.658   7.853
 1057SOL     OW 5009   3.978   8.656   8.876
 1057SOL    HW1 5010   3.901   8.669   8.820
 1057SOL    HW2 5011   4.028   8.737   8.868
 1058SOL     OW 5012  12.740   3.741   6.446
 1058SOL    HW1 5013  12.676   3.671   6.459
 1058SOL    HW2 5014  12.737   3.791   6.528
 1059SOL     OW 5015   8.186   3.288   3.543
 1059SOL    HW1 5016   8.211   3.380   3.532
 1059SOL    HW2 5017   8.138   3.266   3.464
 1060SOL     OW 5018   0.115   0.906   9.042
 1060SOL    HW1 5019   0.153   0.882   9.127
 1060SOL    HW2 5020   0.131   1.000   9.036
 1061SOL     OW 5021   7.588  11.713   0.399
 1061SOL    HW1 5022   7.650  11.776   0.436
 1061SOL    HW2 5023   7.606  11.631   0.444
 1062SOL     OW 5024  13.016  14.096   7.569
 1062SOL    HW1 5025  12.929  14.058   7.579
 1062SOL    HW2 5026  13.007  14.158   7.497
 1063SOL     OW 5027   2.509  12.342   7.953
 1063SOL    HW1 5028   2.581  12.294   7.911
 1063SOL    HW2 5029   2.458  12.377   7.881
 1064SOL     OW 5030  13.845   1.295   4.097
 1064SOL    HW1 5031  13.929   1.340   4.089
 1064SOL    HW2 5032  13.857   1.237   4.173
 1065SOL     OW 5033   8.748  13.612   3.262
 1065SOL    HW1 5034   8.659  13.590   3.234
 1065SOL    HW2 5035   8.736  13.656   3.346
 1066SOL     OW 5036  13.291   1.437  11.093
 1066SOL    HW1 5037  13.315   1.391  11.012
 1066SOL    HW2 5038  13.228   1.504  11.065
 1067SOL     OW 5039   3.711   0.222   4.667
 1067SOL    HW1 5040   3.706   0.264   4.581
 1067SOL    HW2 5041   3.793   0.255   4.705
 1068SOL     OW 5042  14.586   2.054   9.901
 1068SOL    HW1 5043  14.541   2.077   9.983
 1068SOL    HW2 5044  14.604   1.961   9.909
 1069SOL     OW 5045   9.216   0.175  10.118
 1069SOL    HW1 5046   9.168   0.120  10.056
 1069SOL    HW2 5047   9.308   0.149  10.107
 1070SOL     OW 5048   6.283   0.008  13.011
 1070SOL    HW1 5049   6.369   0.035  12.977
 1070SOL    HW2 5050   6.260  14.806  12.957
 1071SOL     OW 5051   0.578  12.461   9.975
 1071SOL    HW1 5052   0.627  12.380   9.959
 1071SOL    HW2 5053   0.590  12.479  10.068
 1072SOL     OW 5054   8.491   2.692   2.830
 1072SOL    HW1 5055   8.509   2.736   2.746
 1072SOL    HW2 5056   8.441   2.614   2.806
 1073SOL     OW 5057   0.017   3.718   4.601
 1073SOL    HW1 5058  14.856   3.647   4.547
 1073SOL    HW2 5059   0.091   3.679   4.648
 1074SOL     OW 5060   1.472   4.119  13.865
 1074SOL    HW1 5061   1.458   4.034  13.824
 1074SOL    HW2 5062   1.567   4.133  13.859
 1075SOL     OW 5063   1.112   1.213   4.508
 1075SOL    HW1 5064   1.190   1.180   4.464
 1075SOL    HW2 5065   1.072   1.134   4.546
 1076SOL     OW 5066   3.612   8.735  11.867
 1076SOL    HW1 5067   3.519   8.714  11.863
 1076SOL    HW2 5068   3.655   8.654  11.838
 1077SOL     OW 5069  11.136   4.379   4.406
 1077SOL    HW1 5070  11.182   4.426   4.336
 1077SOL    HW2 5071  11.044   4.383   4.380
 1078SOL     OW 5072   5.173   3.362   3.496
 1078SOL    HW1 5073   5.111   3.294   3.471
 1078SOL    HW2 5074   5.179   3.355   3.592
 1079SOL     OW 5075   7.162   4.301   2.915
 1079SOL    HW1 5076   7.086   4.307   2.856
 1079SOL    HW2 5077   7.201   4.388   2.912
 1080SOL     OW 5078   6.668   9.372  14.680
 1080SOL    HW1 5079   6.612   9.333  14.614
 1080SOL    HW2 5080   6.730   9.302  14.703
 1081SOL     OW 5081  14.140   0.570  11.856
 1081SOL    HW1 5082  14.207   0.519  11.901
 1081SOL    HW2 5083  14.186   0.615  11.785
 1082SOL     OW 5084  13.357   4.769  14.250
 1082SOL    HW1 5085  13.348   4.759  14.155
 1082SOL    HW2 5086  13.356   4.863  14.265
 1083SOL     OW 5087  14.174   1.099  13.059
 1083SOL    HW1 5088  14.102   1.158  13.041
 1083SOL    HW2 5089  14.181   1.044  12.981
 1084SOL     OW 5090  11.870  14.844   6.693
 1084SOL    HW1 5091  11.823  14.767   6.662
 1084SOL    HW2 5092  11.883   0.023   6.615
 1085SOL     OW 5093  14.862  11.912   7.310
 1085SOL    HW1 5094  14.819  11.884   7.391
 1085SOL    HW2 5095  14.793  11.956   7.260
 1086SOL     OW 5096   4.795  13.440   6.942
 1086SOL    HW1 5097   4.813  13.471   7.031
 1086SOL    HW2 5098   4.812  13.516   6.886
 1087SOL     OW 5099  13.874   3.931   0.691
 1087SOL    HW1 5100  13.873   3.836   0.703
 1087SOL    HW2 5101  13.967   3.953   0.687
 1088SOL     OW 5102   3.146   0.814  12.490
 1088SOL    HW1 5103   3.227   0.824  12.540
 1088SOL    HW2 5104   3.172   0.768  12.410
 1089SOL     OW 5105   6.710   5.248   1.972
 1089SOL    HW1 5106   6.768   5.249   1.896
 1089SOL    HW2 5107   6.758   5.294   2.040
 1090SOL     OW 5108  11.994   0.110  11.051
 1090SOL    HW1 5109  11.910   0.090  11.093
 1090SOL    HW2 5110  11.991   0.205  11.037
 1091SOL     OW 5111   2.656   1.650  11.235
 1091SOL    HW1 5112   2.562   1.634  11.239
 1091SOL    HW2 5113   2.682   1.616  11.149
 1092SOL     OW 5114   7.740   4.596   8.156
 1092SOL    HW1 5115   7.829   4.612   8.187
 1092SOL    HW2 5116   7.751   4.549   8.074
 1093SOL     OW 5117   6.417   4.340   4.720
 1093SOL    HW1 5118   6.372   4.421   4.696
 1093SOL    HW2 5119   6.381   4.316   4.805
 1094SOL     OW 5120   9.930   5.873   9.498
 1094SOL    HW1 5121   9.947   5.813   9.571
 1094SOL    HW2 5122   9.834   5.871   9.488
 1095SOL     OW 5123  12.851   3.262   8.642
 1095SOL    HW1 5124  12.878   3.337   8.588
 1095SOL    HW2 5125  12.761   3.245   8.616
 1096SOL     OW 5126   2.207   8.457   8.815
 1096SOL    HW1 5127   2.137   8.485   8.756
 1096SOL    HW2 5128   2.231   8.369   8.784
 1097SOL     OW 5129   2.571  14.051   7.090
 1097SOL    HW1 5130   2.547  14.057   7.183
 1097SOL    HW2 5131   2.580  13.958   7.073
 1098SOL     OW 5132   8.128  10.627  11.549
 1098SOL    HW1 5133   8.172  10.599  11.469
 1098SOL    HW2 5134   8.175  10.581  11.619
 1099SOL     OW 5135   3.375   6.962  12.769
 1099SOL    HW1 5136   3.433   6.894  12.801
 1099SOL    HW2 5137   3.423   7.044  12.784
 1100SOL     OW 5138   3.127  13.405   7.934
 1100SOL    HW1 5139   3.121  13.496   7.960
 1100SOL    HW2 5140   3.167  13.407   7.847
 1101SOL     OW 5141   8.365  10.353   2.574
 1101SOL    HW1 5142   8.276  10.388   2.564
 1101SOL    HW2 5143   8.375  10.291   2.502
 1102SOL     OW 5144  10.056   9.670  11.638
 1102SOL    HW1 5145   9.982   9.658  11.579
 1102SOL    HW2 5146  10.033   9.619  11.716
 1103SOL     OW 5147   8.883   6.933   6.802
 1103SOL    HW1 5148   8.924   6.882   6.872
 1103SOL    HW2 5149   8.830   6.999   6.847
 1104SOL     OW 5150   1.148  10.664   1.328
 1104SOL    HW1 5151   1.151  10.586   1.384
 1104SOL    HW2 5152   1.231  10.662   1.280
 1105SOL     OW 5153   8.343   4.299   5.221
 1105SOL    HW1 5154   8.404   4.372   5.213
 1105SOL    HW2 5155   8.396   4.221   5.206
 1106SOL     OW 5156  12.777   4.589   3.434
 1106SOL    HW1 5157  12.713   4.658   3.414
 1106SOL    HW2 5158  12.853   4.611   3.381
 1107SOL     OW 5159  14.091   2.491  14.575
 1107SOL    HW1 5160  14.102   2.493  14.670
 1107SOL    HW2 5161  14.173   2.525  14.540
 1108SOL     OW 5162   3.317  10.950   0.043
 1108SOL    HW1 5163   3.289  10.862   0.069
 1108SOL    HW2 5164   3.311  10.951  14.822
 1109SOL     OW 5165  10.890   9.614   4.493
 1109SOL    HW1 5166  10.844   9.661   4.424
 1109SOL    HW2 5167  10.920   9.534   4.450
 1110SOL     OW 5168   2.393   3.400  14.626
 1110SOL    HW1 5169   2.435   3.328  14.673
 1110SOL    HW2 5170   2.300   3.377  14.625
 1111SOL     OW 5171  14.282   4.311   1.856
 1111SOL    HW1 5172  14.195   4.326   1.818
 1111SOL    HW2 5173  14.330   4.392   1.840
 1112SOL     OW 5174  10.335   3.346   3.350
 1112SOL    HW1 5175  10.402   3.291   3.310
 1112SOL    HW2 5176  10.260   3.339   3.290
 1113SOL     OW 5177   7.146   1.372  10.791
 1113SOL    HW1 5178   7.151   1.341  10.701
 1113SOL    HW2 5179   7.232   1.412  10.807
 1114SOL     OW 5180  14.596   3.562   5.861
 1114SOL    HW1 5181  14.518   3.520   5.898
 1114SOL    HW2 5182  14.574   3.655   5.855
 1115SOL     OW 5183   5.165  13.548   1.946
 1115SOL    HW1 5184   5.207  13.465   1.923
 1115SOL    HW2 5185   5.187  13.607   1.874
 1116SOL     OW 5186   3.606   3.850   0.054
 1116SOL    HW1 5187   3.687   3.800   0.063
 1116SOL    HW2 5188   3.592   3.889   0.140
 1117SOL     OW 5189   8.772   3.409   0.982
 1117SOL    HW1 5190   8.720   3.466   1.038
 1117SOL    HW2 5191   8.791   3.461   0.905
 1118SOL     OW 5192   0.012   3.205   6.021
 1118SOL    HW1 5193   0.099   3.167   6.008
 1118SOL    HW2 5194  14.850   3.157   6.096
 1119SOL     OW 5195   9.698   8.499   5.143
 1119SOL    HW1 5196   9.665   8.429   5.086
 1119SOL    HW2 5197   9.732   8.454   5.220
 1120SOL     OW 5198   4.523   6.006  12.719
 1120SOL    HW1 5199   4.440   6.019  12.673
 1120SOL    HW2 5200   4.544   6.091  12.756
 1121SOL     OW 5201  10.717   2.547   3.417
 1121SOL    HW1 5202  10.789   2.494   3.450
 1121SOL    HW2 5203  10.754   2.635   3.407
 1122SOL     OW 5204   2.856   5.571   1.399
 1122SOL    HW1 5205   2.808   5.500   1.356
 1122SOL    HW2 5206   2.842   5.647   1.343
 1123SOL     OW 5207   5.009   4.755  12.075
 1123SOL    HW1 5208   5.005   4.850  12.086
 1123SOL    HW2 5209   5.043   4.744  11.986
 1124SOL     OW 5210  11.491   0.309   9.008
 1124SOL    HW1 5211  11.483   0.340   8.918
 1124SOL    HW2 5212  11.566   0.249   9.006
 1125SOL     OW 5213   9.783   5.055  11.291
 1125SOL    HW1 5214   9.737   4.995  11.232
 1125SOL    HW2 5215   9.801   5.133  11.237
 1126SOL     OW 5216   8.747   1.448   8.296
 1126SOL    HW1 5217   8.835   1.441   8.259
 1126SOL    HW2 5218   8.758   1.502   8.374
 1127SOL     OW 5219   1.065   5.173  10.140
 1127SOL    HW1 5220   1.118   5.230  10.084
 1127SOL    HW2 5221   1.115   5.092  10.146
 1128SOL     OW 5222   4.930   2.082  13.599
 1128SOL    HW1 5223   4.842   2.117  13.580
 1128SOL    HW2 5224   4.926   2.060  13.692
 1129SOL     OW 5225   6.720   4.080  13.803
 1129SOL    HW1 5226   6.790   4.144  13.798
 1129SOL    HW2 5227   6.640   4.131  13.793
 1130SOL     OW 5228  13.764  10.065   5.510
 1130SOL    HW1 5229  13.793  10.053   5.601
 1130SOL    HW2 5230  13.672  10.039   5.512
 1131SOL     OW 5231   1.746  14.448   7.060
 1131SOL    HW1 5232   1.703  14.490   6.985
 1131SOL    HW2 5233   1.674  14.431   7.122
 1132SOL     OW 5234   4.354   6.521   8.173
 1132SOL    HW1 5235   4.366   6.451   8.109
 1132SOL    HW2 5236   4.287   6.489   8.233
 1133SOL     OW 5237   6.917   9.040   6.095
 1133SOL    HW1 5238   6.967   9.122   6.105
 1133SOL    HW2 5239   6.977   8.972   6.125
 1134SOL     OW 5240   2.085   6.137   1.929
 1134SOL    HW1 5241   2.058   6.149   1.837
 1134SOL    HW2 5242   2.117   6.047   1.933
 1135SOL     OW 5243   0.718  13.063  14.750
 1135SOL    HW1 5244   0.623  13.063  14.763
 1135SOL    HW2 5245   0.754  13.088  14.835
 1136SOL     OW 5246  14.139   9.676   9.058
 1136SOL    HW1 5247  14.068   9.738   9.074
 1136SOL    HW2 5248  14.097   9.603   9.012
 1137SOL     OW 5249   7.394   1.184  12.245
 1137SOL    HW1 5250   7.378   1.170  12.338
 1137SOL    HW2 5251   7.470   1.241  12.242
 1138SOL     OW 5252   1.780   0.016   1.655
 1138SOL    HW1 5253   1.857   0.014   1.599
 1138SOL    HW2 5254   1.810  14.854   1.738
 1139SOL     OW 5255   3.802   9.720   9.618
 1139SOL    HW1 5256   3.740   9.776   9.664
 1139SOL    HW2 5257   3.840   9.776   9.550
 1140SOL     OW 5258   2.770   2.645   6.789
 1140SOL    HW1 5259   2.794   2.690   6.708
 1140SOL    HW2 5260   2.779   2.552   6.769
 1141SOL     OW 5261   1.632   5.501   6.994
 1141SOL    HW1 5262   1.593   5.559   6.928
 1141SOL    HW2 5263   1.574   5.425   6.997
 1142SOL     OW 5264   9.603   9.771   9.358
 1142SOL    HW1 5265   9.553   9.696   9.388
 1142SOL    HW2 5266   9.648   9.739   9.279
 1143SOL     OW 5267  11.360  10.825   5.355
 1143SOL    HW1 5268  11.298  10.777   5.410
 1143SOL    HW2 5269  11.446  10.794   5.384
 1144SOL     OW 5270   9.351   0.893   0.813
 1144SOL    HW1 5271   9.373   0.830   0.744
 1144SOL    HW2 5272   9.419   0.881   0.879
 1145SOL     OW 5273   9.883   0.672  14.588
 1145SOL    HW1 5274   9.862   0.605  14.652
 1145SOL    HW2 5275   9.944   0.629  14.528
 1146SOL     OW 5276   4.261  14.468   8.600
 1146SOL    HW1 5277   4.273  14.465   8.695
 1146SOL    HW2 5278   4.220  14.552   8.583
 1147SOL     OW 5279   2.792  14.511   3.070
 1147SOL    HW1 5280   2.773  14.568   2.996
 1147SOL    HW2 5281   2.833  14.568   3.135
 1148SOL     OW 5282  14.293   8.184   1.474
 1148SOL    HW1 5283  14.205   8.167   1.507
 1148SOL    HW2 5284  14.337   8.230   1.545
 1149SOL     OW 5285  10.090  10.943   4.588
 1149SOL    HW1 5286  10.002  10.975   4.569
 1149SOL    HW2 5287  10.078  10.849   4.605
 1150SOL     OW 5288   9.820   8.728  12.211
 1150SOL    HW1 5289   9.862   8.646  12.238
 1150SOL    HW2 5290   9.891   8.791  12.203
 1151SOL     OW 5291  14.521  12.566   9.102
 1151SOL    HW1 5292  14.559  12.482   9.128
 1151SOL    HW2 5293  14.490  12.605   9.183
 1152SOL     OW 5294   6.494  12.502  13.341
 1152SOL    HW1 5295   6.586  12.475  13.336
 1152SOL    HW2 5296   6.448  12.426  13.376
 1153SOL     OW 5297   1.357   8.885   7.075
 1153SOL    HW1 5298   1.444   8.866   7.039
 1153SOL    HW2 5299   1.337   8.810   7.130
 1154SOL     OW 5300  13.703   4.757   4.277
 1154SOL    HW1 5301  13.712   4.830   4.216
 1154SOL    HW2 5302  13.744   4.683   4.233
 1155SOL     OW 5303  10.711   1.110  12.091
 1155SOL    HW1 5304  10.791   1.068  12.061
 1155SOL    HW2 5305  10.689   1.064  12.173
 1156SOL     OW 5306  12.171   9.074   7.607
 1156SOL    HW1 5307  12.249   9.021   7.617
 1156SOL    HW2 5308  12.101   9.022   7.646
 1157SOL     OW 5309  10.073  12.899   9.414
 1157SOL    HW1 5310  10.033  12.818   9.444
 1157SOL    HW2 5311  10.143  12.917   9.477
 1158SOL     OW 5312   4.723  14.506  14.455
 1158SOL    HW1 5313   4.628  14.505  14.438
 1158SOL    HW2 5314   4.756  14.576  14.399
 1159SOL     OW 5315   8.687   2.695   7.450
 1159SOL    HW1 5316   8.772   2.719   7.412
 1159SOL    HW2 5317   8.664   2.769   7.506
 1160SOL     OW 5318   9.770   2.554   7.145
 1160SOL    HW1 5319   9.731   2.608   7.214
 1160SOL    HW2 5320   9.697   2.504   7.109
 1161SOL     OW 5321  12.377  11.451  11.869
 1161SOL    HW1 5322  12.363  11.378  11.929
 1161SOL    HW2 5323  12.291  11.466  11.829
 1162SOL     OW 5324  11.917   3.724   0.787
 1162SOL    HW1 5325  11.844   3.786   0.783
 1162SOL    HW2 5326  11.927   3.704   0.880
 1163SOL     OW 5327  14.746   5.712   2.091
 1163SOL    HW1 5328  14.718   5.800   2.119
 1163SOL    HW2 5329  14.664   5.663   2.083
 1164SOL     OW 5330   2.054  13.476   1.165
 1164SOL    HW1 5331   1.997  13.399   1.163
 1164SOL    HW2 5332   1.994  13.550   1.162
 1165SOL     OW 5333  10.847   3.817  11.628
 1165SOL    HW1 5334  10.909   3.838  11.698
 1165SOL    HW2 5335  10.894   3.839  11.547
 1166SOL     OW 5336   8.192   6.414   3.312
 1166SOL    HW1 5337   8.287   6.414   3.299
 1166SOL    HW2 5338   8.160   6.346   3.252
 1167SOL     OW 5339   8.972   4.869   4.796
 1167SOL    HW1 5340   8.987   4.957   4.762
 1167SOL    HW2 5341   8.914   4.828   4.731
 1168SOL     OW 5342  11.383   9.462  10.366
 1168SOL    HW1 5343  11.409   9.513  10.290
 1168SOL    HW2 5344  11.308   9.411  10.336
 1169SOL     OW 5345   4.546  13.398   1.774
 1169SOL    HW1 5346   4.602  13.391   1.850
 1169SOL    HW2 5347   4.538  13.308   1.741
 1170SOL     OW 5348   1.182   9.391   0.325
 1170SOL    HW1 5349   1.250   9.334   0.362
 1170SOL    HW2 5350   1.100   9.353   0.356
 1171SOL     OW 5351   6.684  13.397   7.011
 1171SOL    HW1 5352   6.677  13.430   6.922
 1171SOL    HW2 5353   6.756  13.333   7.007
 1172SOL     OW 5354   8.763  13.451   3.679
 1172SOL    HW1 5355   8.783  13.379   3.738
 1172SOL    HW2 5356   8.668  13.447   3.667
 1173SOL     OW 5357   4.187   9.904   5.737
 1173SOL    HW1 5358   4.277   9.937   5.743
 1173SOL    HW2 5359   4.163   9.884   5.827
 1174SOL     OW 5360  12.222  10.804   4.223
 1174SOL    HW1 5361  12.240  10.710   4.225
 1174SOL    HW2 5362  12.128  10.811   4.210
 1175SOL     OW 5363  13.072  12.834   6.040
 1175SOL    HW1 5364  13.126  12.894   6.092
 1175SOL    HW2 5365  13.109  12.747   6.057
 1176SOL     OW 5366   6.484   6.473   8.177
 1176SOL    HW1 5367   6.562   6.507   8.221
 1176SOL    HW2 5368   6.419   6.541   8.188
 1177SOL     OW 5369  11.110  12.708  11.392
 1177SOL    HW1 5370  11.077  12.771  11.456
 1177SOL    HW2 5371  11.205  12.722  11.391
 1178SOL     OW 5372  11.451   5.402   1.617
 1178SOL    HW1 5373  11.509   5.329   1.597
 1178SOL    HW2 5374  11.443   5.401   1.712
 1179SOL     OW 5375   4.995   2.508  10.504
 1179SOL    HW1 5376   4.961   2.591  10.538
 1179SOL    HW2 5377   4.951   2.441  10.556
 1180SOL     OW 5378   2.391   1.510  12.623
 1180SOL    HW1 5379   2.447   1.557  12.561
 1180SOL    HW2 5380   2.445   1.497  12.700
 1181SOL     OW 5381  12.861   4.940   8.631
 1181SOL    HW1 5382  12.949   4.927   8.595
 1181SOL    HW2 5383  12.836   5.028   8.604
 1182SOL     OW 5384   5.411  12.346   1.005
 1182SOL    HW1 5385   5.432  12.421   1.060
 1182SOL    HW2 5386   5.318  12.332   1.018
 1183SOL     OW 5387  14.342   8.707   9.502
 1183SOL    HW1 5388  14.414   8.656   9.463
 1183SOL    HW2 5389  14.380   8.792   9.521
 1184SOL     OW 5390  11.466   6.027   5.086
 1184SOL    HW1 5391  11.478   6.084   5.011
 1184SOL    HW2 5392  11.464   5.939   5.049
 1185SOL     OW 5393  11.104   0.136   6.081
 1185SOL    HW1 5394  11.117   0.224   6.046
 1185SOL    HW2 5395  11.024   0.142   6.133
 1186SOL     OW 5396  10.949  10.432   6.936
 1186SOL    HW1 5397  10.981  10.419   6.847
 1186SOL    HW2 5398  10.988  10.361   6.986
 1187SOL     OW 5399   0.276   5.488  12.007
 1187SOL    HW1 5400   0.223   5.450  12.076
 1187SOL    HW2 5401   0.327   5.414  11.972
 1188SOL     OW 5402   6.731  11.021   5.397
 1188SOL    HW1 5403   6.747  10.926   5.400
 1188SOL    HW2 5404   6.685  11.040   5.479
 1189SOL     OW 5405   2.221   9.814   8.255
 1189SOL    HW1 5406   2.278   9.777   8.323
 1189SOL    HW2 5407   2.274   9.881   8.213
 1190SOL     OW 5408  14.752   4.289   6.577
 1190SOL    HW1 5409  14.736   4.375   6.538
 1190SOL    HW2 5410  14.781   4.234   6.504
 1191SOL     OW 5411   4.950   7.527   1.624
 1191SOL    HW1 5412   4.937   7.440   1.587
 1191SOL    HW2 5413   4.871   7.542   1.677
 1192SOL     OW 5414  14.631   0.980  12.219
 1192SOL    HW1 5415  14.565   0.912  12.207
 1192SOL    HW2 5416  14.601   1.030  12.295
 1193SOL     OW 5417   3.313  14.358   6.539
 1193SOL    HW1 5418   3.275  14.383   6.623
 1193SOL    HW2 5419   3.354  14.438   6.506
 1194SOL     OW 5420   8.054   3.053   8.781
 1194SOL    HW1 5421   8.000   3.130   8.800
 1194SOL    HW2 5422   8.071   3.058   8.687
 1195SOL     OW 5423   2.516  11.356   0.786
 1195SOL    HW1 5424   2.457  11.342   0.711
 1195SOL    HW2 5425   2.459  11.355   0.862
 1196SOL     OW 5426  14.280   3.848  13.506
 1196SOL    HW1 5427  14.225   3.807  13.573
 1196SOL    HW2 5428  14.233   3.833  13.424
 1197SOL     OW 5429  11.352  10.596   8.526
 1197SOL    HW1 5430  11.441  10.607   8.492
 1197SOL    HW2 5431  11.298  10.650   8.470
 1198SOL     OW 5432   1.707  14.256   5.972
 1198SOL    HW1 5433   1.625  14.279   5.929
 1198SOL    HW2 5434   1.690  14.172   6.013
 1199SOL     OW 5435   1.454   6.721   3.454
 1199SOL    HW1 5436   1.440   6.629   3.477
 1199SOL    HW2 5437   1.367   6.755   3.435
 1200SOL     OW 5438   5.942   6.247   3.414
 1200SOL    HW1 5439   5.928   6.153   3.405
 1200SOL    HW2 5440   5.869   6.277   3.467
 1201SOL     OW 5441   7.323   5.045   0.847
 1201SOL    HW1 5442   7.246   5.045   0.790
 1201SOL    HW2 5443   7.392   5.006   0.794
 1202SOL     OW 5444  11.823  10.708   1.591
 1202SOL    HW1 5445  11.731  10.735   1.594
 1202SOL    HW2 5446  11.862  10.760   1.521
 1203SOL     OW 5447   3.588   7.991   0.420
 1203SOL    HW1 5448   3.653   7.923   0.436
 1203SOL    HW2 5449   3.636   8.073   0.425
 1204SOL     OW 5450   9.357   5.939   8.517
 1204SOL    HW1 5451   9.332   5.861   8.567
 1204SOL    HW2 5452   9.408   5.905   8.444
 1205SOL     OW 5453   9.705  11.023   8.818
 1205SOL    HW1 5454   9.713  11.034   8.724
 1205SOL    HW2 5455   9.724  11.110   8.855
 1206SOL     OW 5456  12.095  12.754   6.781
 1206SOL    HW1 5457  12.027  12.688   6.768
 1206SOL    HW2 5458  12.132  12.735   6.867
 1207SOL     OW 5459   2.426  10.873   8.352
 1207SOL    HW1 5460   2.477  10.829   8.284
 1207SOL    HW2 5461   2.491  10.916   8.407
 1208SOL     OW 5462   9.639  11.027  11.504
 1208SOL    HW1 5463   9.573  10.958  11.507
 1208SOL    HW2 5464   9.686  11.018  11.587
 1209SOL     OW 5465  13.348   6.029   8.855
 1209SOL    HW1 5466  13.328   5.978   8.933
 1209SOL    HW2 5467  13.299   6.111   8.865
 1210SOL     OW 5468  11.516  13.828   0.366
 1210SOL    HW1 5469  11.542  13.765   0.298
 1210SOL    HW2 5470  11.474  13.774   0.433
 1211SOL     OW 5471  13.039   3.218   3.376
 1211SOL    HW1 5472  12.995   3.228   3.461
 1211SOL    HW2 5473  13.103   3.290   3.374
 1212SOL     OW 5474  12.324   9.183   0.836
 1212SOL    HW1 5475  12.363   9.133   0.765
 1212SOL    HW2 5476  12.249   9.227   0.797
 1213SOL     OW 5477  11.923   9.936   1.597
 1213SOL    HW1 5478  11.834   9.967   1.580
 1213SOL    HW2 5479  11.968  10.013   1.632
 1214SOL     OW 5480   5.825  14.306   7.985
 1214SOL    HW1 5481   5.790  14.263   8.063
 1214SOL    HW2 5482   5.754  14.299   7.920
 1215SOL     OW 5483   6.756  12.045   2.690
 1215SOL    HW1 5484   6.779  12.064   2.599
 1215SOL    HW2 5485   6.679  11.988   2.684
 1216SOL     OW 5486  12.289  12.726   3.855
 1216SOL    HW1 5487  12.315  12.813   3.885
 1216SOL    HW2 5488  12.366  12.692   3.811
 1217SOL     OW 5489   7.299   4.782  13.842
 1217SOL    HW1 5490   7.239   4.848  13.807
 1217SOL    HW2 5491   7.386   4.822  13.834
 1218SOL     OW 5492   6.145   2.146   0.558
 1218SOL    HW1 5493   6.068   2.195   0.587
 1218SOL    HW2 5494   6.127   2.126   0.466
 1219SOL     OW 5495   7.441   7.586   1.946
 1219SOL    HW1 5496   7.401   7.656   1.894
 1219SOL    HW2 5497   7.483   7.631   2.019
 1220SOL     OW 5498   5.135   2.358   5.970
 1220SOL    HW1 5499   5.042   2.342   5.952
 1220SOL    HW2 5500   5.169   2.272   5.996
 1221SOL     OW 5501  14.257   5.232   6.812
 1221SOL    HW1 5502  14.280   5.244   6.720
 1221SOL    HW2 5503  14.185   5.293   6.827
 1222SOL     OW 5504   7.986   5.521   8.073
 1222SOL    HW1 5505   8.039   5.558   8.143
 1222SOL    HW2 5506   8.043   5.523   7.996
 1223SOL     OW 5507   7.908   6.043  13.853
 1223SOL    HW1 5508   7.883   6.065  13.943
 1223SOL    HW2 5509   7.945   5.955  13.860
 1224SOL     OW 5510   8.579  10.582   1.272
 1224SOL    HW1 5511   8.537  10.523   1.209
 1224SOL    HW2 5512   8.528  10.572   1.352
 1225SOL     OW 5513   9.986  11.545   6.086
 1225SOL    HW1 5514   9.962  11.461   6.046
 1225SOL    HW2 5515  10.049  11.584   6.025
 1226SOL     OW 5516   0.583  14.351   2.722
 1226SOL    HW1 5517   0.499  14.342   2.768
 1226SOL    HW2 5518   0.628  14.422   2.768
 1227SOL     OW 5519   9.827   7.881   5.058
 1227SOL    HW1 5520   9.807   7.791   5.082
 1227SOL    HW2 5521   9.755   7.907   5.001
 1228SOL     OW 5522   6.169   0.121   8.121
 1228SOL    HW1 5523   6.077   0.143   8.132
 1228SOL    HW2 5524   6.171   0.025   8.119
 1229SOL     OW 5525  14.803   4.677   3.875
 1229SOL    HW1 5526  14.763   4.600   3.916
 1229SOL    HW2 5527   0.014   4.646   3.844
 1230SOL     OW 5528   6.561   0.020   8.715
 1230SOL    HW1 5529   6.515   0.088   8.766
 1230SOL    HW2 5530   6.510   0.013   8.634
 1231SOL     OW 5531  14.223   4.642   6.197
 1231SOL    HW1 5532  14.150   4.667   6.142
 1231SOL    HW2 5533  14.210   4.692   6.278
 1232SOL     OW 5534  10.340   2.259   3.827
 1232SOL    HW1 5535  10.312   2.176   3.787
 1232SOL    HW2 5536  10.432   2.268   3.799
 1233SOL     OW 5537   4.653  12.796  11.536
 1233SOL    HW1 5538   4.613  12.856  11.473
 1233SOL    HW2 5539   4.734  12.839  11.562
 1234SOL     OW 5540   0.846  13.527   8.212
 1234SOL    HW1 5541   0.753  13.503   8.219
 1234SOL    HW2 5542   0.846  13.609   8.163
 1235SOL     OW 5543   3.454   1.556  10.924
 1235SOL    HW1 5544   3.452   1.647  10.954
 1235SOL    HW2 5545   3.362   1.529  10.925
 1236SOL     OW 5546   9.411   2.987   7.674
 1236SOL    HW1 5547   9.368   3.057   7.723
 1236SOL    HW2 5548   9.496   2.977   7.717
 1237SOL     OW 5549   9.386   5.039   6.412
 1237SOL    HW1 5550   9.479   5.064   6.412
 1237SOL    HW2 5551   9.371   5.002   6.325
 1238SOL     OW 5552   0.200   5.513   8.826
 1238SOL    HW1 5553   0.167   5.603   8.829
 1238SOL    HW2 5554   0.121   5.460   8.809
 1239SOL     OW 5555  12.036   5.604   9.287
 1239SOL    HW1 5556  12.118   5.639   9.254
 1239SOL    HW2 5557  11.971   5.673   9.269
 1240SOL     OW 5558   4.234   0.532   4.683
 1240SOL    HW1 5559   4.281   0.592   4.741
 1240SOL    HW2 5560   4.227   0.579   4.600
 1241SOL     OW 5561   6.649  12.735   0.227
 1241SOL    HW1 5562   6.694  12.820   0.228
 1241SOL    HW2 5563   6.577  12.747   0.165
 1242SOL     OW 5564  14.583   1.537  10.973
 1242SOL    HW1 5565  14.573   1.445  10.946
 1242SOL    HW2 5566  14.667   1.564  10.937
 1243SOL     OW 5567  14.266  10.560   4.968
 1243SOL    HW1 5568  14.325  10.550   4.894
 1243SOL    HW2 5569  14.179  10.561   4.929
 1244SOL     OW 5570   7.935  10.354   7.590
 1244SOL    HW1 5571   7.895  10.289   7.532
 1244SOL    HW2 5572   7.879  10.431   7.582
 1245SOL     OW 5573   6.234   2.172   9.096
 1245SOL    HW1 5574   6.230   2.184   9.002
 1245SOL    HW2 5575   6.166   2.230   9.131
 1246SOL     OW 5576   3.720   0.380   3.268
 1246SOL    HW1 5577   3.691   0.408   3.355
 1246SOL    HW2 5578   3.685   0.447   3.209
 1247SOL     OW 5579   6.741   2.833  11.517
 1247SOL    HW1 5580   6.716   2.923  11.496
 1247SOL    HW2 5581   6.735   2.786  11.434
 1248SOL     OW 5582   3.559   9.958   2.841
 1248SOL    HW1 5583   3.480   9.984   2.793
 1248SOL    HW2 5584   3.532   9.879   2.888
 1249SOL     OW 5585  10.529  10.032   8.964
 1249SOL    HW1 5586  10.446  10.055   8.922
 1249SOL    HW2 5587  10.591  10.098   8.932
 1250SOL     OW 5588   1.566   4.434   9.342
 1250SOL    HW1 5589   1.654   4.412   9.311
 1250SOL    HW2 5590   1.556   4.527   9.324
 1251SOL     OW 5591  13.316   4.079   8.100
 1251SOL    HW1 5592  13.237   4.029   8.120
 1251SOL    HW2 5593  13.385   4.036   8.151
 1252SOL     OW 5594   2.420   3.040  10.263
 1252SOL    HW1 5595   2.505   3.076  10.237
 1252SOL    HW2 5596   2.438   2.988  10.341
 1253SOL     OW 5597  10.875  12.850  12.805
 1253SOL    HW1 5598  10.875  12.946  12.795
 1253SOL    HW2 5599  10.909  12.835  12.893
 1254SOL     OW 5600   6.875   7.541   1.182
 1254SOL    HW1 5601   6.898   7.451   1.161
 1254SOL    HW2 5602   6.864   7.583   1.097
 1255SOL     OW 5603   3.730  10.530   9.053
 1255SOL    HW1 5604   3.791  10.598   9.079
 1255SOL    HW2 5605   3.691  10.500   9.135
 1256SOL     OW 5606   3.487   5.810   6.338
 1256SOL    HW1 5607   3.555   5.788   6.402
 1256SOL    HW2 5608   3.464   5.727   6.298
 1257SOL     OW 5609  13.236  12.620  13.827
 1257SOL    HW1 5610  13.160  12.640  13.882
 1257SOL    HW2 5611  13.308  12.667  13.868
 1258SOL     OW 5612   3.740   4.985   2.207
 1258SOL    HW1 5613   3.757   5.073   2.240
 1258SOL    HW2 5614   3.827   4.949   2.189
 1259SOL     OW 5615   6.105   1.141   6.447
 1259SOL    HW1 5616   6.042   1.077   6.413
 1259SOL    HW2 5617   6.054   1.191   6.511
 1260SOL     OW 5618   1.126   7.175  14.464
 1260SOL    HW1 5619   1.127   7.135  14.551
 1260SOL    HW2 5620   1.210   7.152  14.426
 1261SOL     OW 5621   6.677   4.241   3.847
 1261SOL    HW1 5622   6.639   4.269   3.930
 1261SOL    HW2 5623   6.609   4.185   3.807
 1262SOL     OW 5624  12.994  10.469   4.119
 1262SOL    HW1 5625  12.912  10.511   4.094
 1262SOL    HW2 5626  13.056  10.497   4.051
 1263SOL     OW 5627   5.350   4.363   9.827
 1263SOL    HW1 5628   5.307   4.448   9.822
 1263SOL    HW2 5629   5.392   4.363   9.913
 1264SOL     OW 5630   9.657   8.447   1.203
 1264SOL    HW1 5631   9.735   8.462   1.257
 1264SOL    HW2 5632   9.676   8.368   1.153
 1265SOL     OW 5633   5.878  12.480   2.387
 1265SOL    HW1 5634   5.832  12.542   2.331
 1265SOL    HW2 5635   5.951  12.448   2.333
 1266SOL     OW 5636   0.991  14.577  12.814
 1266SOL    HW1 5637   1.065  14.524  12.785
 1266SOL    HW2 5638   1.024  14.667  12.814
 1267SOL     OW 5639  11.350   0.929   6.336
 1267SOL    HW1 5640  11.425   0.981   6.362
 1267SOL    HW2 5641  11.276   0.969   6.382
 1268SOL     OW 5642   4.694   6.111   6.022
 1268SOL    HW1 5643   4.667   6.064   5.943
 1268SOL    HW2 5644   4.683   6.047   6.092
 1269SOL     OW 5645   4.844   9.783   5.392
 1269SOL    HW1 5646   4.826   9.697   5.430
 1269SOL    HW2 5647   4.934   9.803   5.417
 1270SOL     OW 5648   8.451  12.727   2.405
 1270SOL    HW1 5649   8.479  12.706   2.494
 1270SOL    HW2 5650   8.509  12.677   2.348
 1271SOL     OW 5651   4.367  14.287   9.677
 1271SOL    HW1 5652   4.353  14.236   9.597
 1271SOL    HW2 5653   4.326  14.235   9.746
 1272SOL     OW 5654   1.058   0.431   7.723
 1272SOL    HW1 5655   1.142   0.476   7.734
 1272SOL    HW2 5656   1.064   0.389   7.637
 1273SOL     OW 5657   1.280   1.468   6.373
 1273SOL    HW1 5658   1.251   1.412   6.445
 1273SOL    HW2 5659   1.242   1.427   6.295
 1274SOL     OW 5660   8.459   1.656   3.212
 1274SOL    HW1 5661   8.440   1.742   3.176
 1274SOL    HW2 5662   8.476   1.601   3.135
 1275SOL     OW 5663   1.123  10.559   4.376
 1275SOL    HW1 5664   1.192  10.624   4.388
 1275SOL    HW2 5665   1.160  10.477   4.408
 1276SOL     OW 5666   1.428   7.512  10.376
 1276SOL    HW1 5667   1.364   7.552  10.317
 1276SOL    HW2 5668   1.510   7.556  10.356
 1277SOL     OW 5669   1.631   2.542   7.611
 1277SOL    HW1 5670   1.557   2.582   7.656
 1277SOL    HW2 5671   1.706   2.597   7.634
 1278SOL     OW 5672  12.170   2.165   1.817
 1278SOL    HW1 5673  12.135   2.253   1.807
 1278SOL    HW2 5674  12.198   2.139   1.729
 1279SOL     OW 5675  12.902   4.139   8.103
 1279SOL    HW1 5676  12.827   4.199   8.098
 1279SOL    HW2 5677  12.883   4.072   8.037
 1280SOL     OW 5678   1.747  12.092   3.861
 1280SOL    HW1 5679   1.689  12.160   3.893
 1280SOL    HW2 5680   1.718  12.012   3.906
 1281SOL     OW 5681   8.708  14.544  13.131
 1281SOL    HW1 5682   8.668  14.590  13.204
 1281SOL    HW2 5683   8.640  14.485  13.099
 1282SOL     OW 5684   7.857  10.576  11.550
 1282SOL    HW1 5685   7.861  10.523  11.630
 1282SOL    HW2 5686   7.948  10.600  11.532
 1283SOL     OW 5687   7.080   9.324   5.747
 1283SOL    HW1 5688   7.147   9.287   5.690
 1283SOL    HW2 5689   7.030   9.248   5.777
 1284SOL     OW 5690  11.316  11.231  12.400
 1284SOL    HW1 5691  11.255  11.216  12.472
 1284SOL    HW2 5692  11.356  11.146  12.383
 1285SOL     OW 5693   8.794  10.086   1.569
 1285SOL    HW1 5694   8.711  10.126   1.597
 1285SOL    HW2 5695   8.785   9.994   1.591
 1286SOL     OW 5696  11.659   0.176   7.120
 1286SOL    HW1 5697  11.621   0.215   7.041
 1286SOL    HW2 5698  11.613   0.093   7.130
 1287SOL     OW 5699   1.475   1.370   1.039
 1287SOL    HW1 5700   1.413   1.436   1.006
 1287SOL    HW2 5701   1.533   1.418   1.097
 1288SOL     OW 5702   8.570  14.850   6.703
 1288SOL    HW1 5703   8.481  14.856   6.667
 1288SOL    HW2 5704   8.621   0.038   6.650
 1289SOL     OW 5705   2.400   9.603   2.321
 1289SOL    HW1 5706   2.439   9.628   2.405
 1289SOL    HW2 5707   2.306   9.621   2.332
 1290SOL     OW 5708  13.993   4.096   7.063
 1290SOL    HW1 5709  13.946   4.019   7.096
 1290SOL    HW2 5710  14.046   4.126   7.137
 1291SOL     OW 5711   2.243   3.902  12.325
 1291SOL    HW1 5712   2.323   3.890  12.274
 1291SOL    HW2 5713   2.238   3.997  12.339
 1292SOL     OW 5714  10.094   2.378  11.899
 1292SOL    HW1 5715  10.106   2.285  11.916
 1292SOL    HW2 5716  10.011   2.400  11.941
 1293SOL     OW 5717  13.445   6.600   2.132
 1293SOL    HW1 5718  13.402   6.621   2.215
 1293SOL    HW2 5719  13.375   6.563   2.077
 1294SOL     OW 5720  12.887  14.081   9.780
 1294SOL    HW1 5721  12.839  14.130   9.713
 1294SOL    HW2 5722  12.918  14.002   9.734
 1295SOL     OW 5723  13.538   1.573   7.135
 1295SOL    HW1 5724  13.623   1.616   7.124
 1295SOL    HW2 5725  13.520   1.533   7.049
 1296SOL     OW 5726   8.986   0.075   6.948
 1296SOL    HW1 5727   9.050   0.068   7.018
 1296SOL    HW2 5728   8.971   0.169   6.938
 1297SOL     OW 5729   1.473   7.382  13.852
 1297SOL    HW1 5730   1.426   7.378  13.768
 1297SOL    HW2 5731   1.444   7.465  13.891
 1298SOL     OW 5732  14.864  13.942   1.112
 1298SOL    HW1 5733  14.866  14.036   1.128
 1298SOL    HW2 5734   0.082  13.916   1.109
 1299SOL     OW 5735   7.750   0.259  11.594
 1299SOL    HW1 5736   7.757   0.239  11.688
 1299SOL    HW2 5737   7.663   0.227  11.569
 1300SOL     OW 5738   8.415  10.199  13.401
 1300SOL    HW1 5739   8.478  10.248  13.348
 1300SOL    HW2 5740   8.381  10.131  13.342
 1301SOL     OW 5741   8.375  13.261   0.588
 1301SOL    HW1 5742   8.396  13.351   0.614
 1301SOL    HW2 5743   8.460  13.223   0.567
 1302SOL     OW 5744   3.094  14.606   0.767
 1302SOL    HW1 5745   3.131  14.518   0.775
 1302SOL    HW2 5746   3.168  14.665   0.778
 1303SOL     OW 5747   3.903   9.581  14.647
 1303SOL    HW1 5748   3.920   9.672  14.672
 1303SOL    HW2 5749   3.921   9.579  14.553
 1304SOL     OW 5750  11.575   8.392  10.539
 1304SOL    HW1 5751  11.623   8.473  10.554
 1304SOL    HW2 5752  11.487   8.420  10.514
 1305SOL     OW 5753   3.571   0.359   0.318
 1305SOL    HW1 5754   3.518   0.341   0.241
 1305SOL    HW2 5755   3.658   0.325   0.296
 1306SOL     OW 5756   6.639   8.443   0.128
 1306SOL    HW1 5757   6.594   8.525   0.149
 1306SOL    HW2 5758   6.571   8.388   0.088
 1307SOL     OW 5759  11.231   5.301   7.489
 1307SOL    HW1 5760  11.149   5.282   7.443
 1307SOL    HW2 5761  11.287   5.226   7.469
 1308SOL     OW 5762  11.442   4.797   5.790
 1308SOL    HW1 5763  11.525   4.777   5.747
 1308SOL    HW2 5764  11.408   4.711   5.816
 1309SOL     OW 5765  11.532   1.625  11.561
 1309SOL    HW1 5766  11.500   1.657  11.645
 1309SOL    HW2 5767  11.537   1.530  11.571
 1310SOL     OW 5768   2.574  11.236   2.024
 1310SOL    HW1 5769   2.596  11.289   2.101
 1310SOL    HW2 5770   2.601  11.147   2.048
 1311SOL     OW 5771   7.528   0.187  10.914
 1311SOL    HW1 5772   7.507   0.106  10.961
 1311SOL    HW2 5773   7.606   0.166  10.863
 1312SOL     OW 5774   2.539   5.609   1.702
 1312SOL    HW1 5775   2.561   5.640   1.789
 1312SOL    HW2 5776   2.451   5.572   1.710
 1313SOL     OW 5777  12.554   6.937  10.550
 1313SOL    HW1 5778  12.490   6.961  10.483
 1313SOL    HW2 5779  12.527   6.986  10.628
 1314SOL     OW 5780   5.583   0.072  12.470
 1314SOL    HW1 5781   5.579   0.097  12.378
 1314SOL    HW2 5782   5.520   0.130  12.513
 1315SOL     OW 5783   9.598   4.685  10.148
 1315SOL    HW1 5784   9.503   4.691  10.139
 1315SOL    HW2 5785   9.613   4.621  10.217
 1316SOL     OW 5786   5.541   3.623   8.193
 1316SOL    HW1 5787   5.628   3.615   8.153
 1316SOL    HW2 5788   5.493   3.682   8.134
 1317SOL     OW 5789   4.331  11.895  10.563
 1317SOL    HW1 5790   4.330  11.866  10.654
 1317SOL    HW2 5791   4.354  11.988  10.567
 1318SOL     OW 5792  12.434  13.594   2.226
 1318SOL    HW1 5793  12.509  13.542   2.253
 1318SOL    HW2 5794  12.393  13.543   2.156
 1319SOL     OW 5795   7.863  12.963   0.794
 1319SOL    HW1 5796   7.807  13.005   0.860
 1319SOL    HW2 5797   7.949  12.958   0.835
 1320SOL     OW 5798   9.209  13.246   0.111
 1320SOL    HW1 5799   9.195  13.216   0.021
 1320SOL    HW2 5800   9.166  13.181   0.165
 1321SOL     OW 5801   0.027   7.841  11.492
 1321SOL    HW1 5802   0.076   7.874  11.417
 1321SOL    HW2 5803   0.056   7.750  11.502
 1322SOL     OW 5804  13.250   6.733   1.408
 1322SOL    HW1 5805  13.256   6.761   1.499
 1322SOL    HW2 5806  13.320   6.668   1.398
 1323SOL     OW 5807  11.214   6.107  12.698
 1323SOL    HW1 5808  11.141   6.097  12.758
 1323SOL    HW2 5809  11.247   6.019  12.685
 1324SOL     OW 5810   2.689   6.910   1.391
 1324SOL    HW1 5811   2.660   6.901   1.481
 1324SOL    HW2 5812   2.784   6.919   1.397
 1325SOL     OW 5813  12.428   2.568   1.138
 1325SOL    HW1 5814  12.499   2.626   1.111
 1325SOL    HW2 5815  12.472   2.501   1.192
 1326SOL     OW 5816   6.759  12.451   1.882
 1326SOL    HW1 5817   6.788  12.362   1.862
 1326SOL    HW2 5818   6.696  12.472   1.812
 1327SOL     OW 5819   3.443  11.061   6.819
 1327SOL    HW1 5820   3.496  10.986   6.792
 1327SOL    HW2 5821   3.359  11.050   6.774
 1328SOL     OW 5822   2.607   2.326  12.780
 1328SOL    HW1 5823   2.583   2.310  12.871
 1328SOL    HW2 5824   2.637   2.417  12.779
 1329SOL     OW 5825   6.207  14.630  10.489
 1329SOL    HW1 5826   6.157  14.641  10.569
 1329SOL    HW2 5827   6.176  14.701  10.432
 1330SOL     OW 5828  10.001   8.616   1.272
 1330SOL    HW1 5829  10.090   8.636   1.301
 1330SOL    HW2 5830   9.963   8.702   1.251
 1331SOL     OW 5831   9.782  13.093   0.105
 1331SOL    HW1 5832   9.730  13.102   0.026
 1331SOL    HW2 5833   9.829  13.010   0.094
 1332SOL     OW 5834   0.204   4.445  11.038
 1332SOL    HW1 5835   0.231   4.440  10.946
 1332SOL    HW2 5836   0.253   4.519  11.073
 1333SOL     OW 5837  12.408  12.054   5.207
 1333SOL    HW1 5838  12.431  11.982   5.147
 1333SOL    HW2 5839  12.449  12.029   5.290
 1334SOL     OW 5840   7.116   5.699   3.024
 1334SOL    HW1 5841   7.186   5.741   3.075
 1334SOL    HW2 5842   7.117   5.608   3.052
 1335SOL     OW 5843   5.623   1.193   3.924
 1335SOL    HW1 5844   5.617   1.279   3.882
 1335SOL    HW2 5845   5.577   1.134   3.865
 1336SOL     OW 5846  12.349   4.861   9.200
 1336SOL    HW1 5847  12.356   4.827   9.111
 1336SOL    HW2 5848  12.355   4.956   9.191
 1337SOL     OW 5849   6.326   3.125   0.263
 1337SOL    HW1 5850   6.325   3.084   0.350
 1337SOL    HW2 5851   6.240   3.165   0.254
 1338SOL     OW 5852   4.069  13.568  12.856
 1338SOL    HW1 5853   4.099  13.625  12.785
 1338SOL    HW2 5854   3.984  13.605  12.882
 1339SOL     OW 5855  10.365   8.591   7.907
 1339SOL    HW1 5856  10.371   8.666   7.967
 1339SOL    HW2 5857  10.332   8.629   7.825
 1340SOL     OW 5858   1.615   6.671  12.635
 1340SOL    HW1 5859   1.554   6.620  12.581
 1340SOL    HW2 5860   1.602   6.637  12.724
 1341SOL     OW 5861  11.284  13.512   2.288
 1341SOL    HW1 5862  11.215  13.455   2.323
 1341SOL    HW2 5863  11.339  13.533   2.363
 1342SOL     OW 5864  12.520  12.051   2.122
 1342SOL    HW1 5865  12.468  11.979   2.086
 1342SOL    HW2 5866  12.553  12.097   2.045
 1343SOL     OW 5867   7.018  11.292   3.389
 1343SOL    HW1 5868   7.079  11.284   3.462
 1343SOL    HW2 5869   6.992  11.203   3.369
 1344SOL     OW 5870   2.383  12.239   9.055
 1344SOL    HW1 5871   2.370  12.145   9.042
 1344SOL    HW2 5872   2.358  12.278   8.971
 1345SOL     OW 5873   3.169   4.905   1.431
 1345SOL    HW1 5874   3.217   4.917   1.512
 1345SOL    HW2 5875   3.210   4.830   1.388
 1346SOL     OW 5876  13.306  12.081   8.190
 1346SOL    HW1 5877  13.386  12.130   8.207
 1346SOL    HW2 5878  13.239  12.148   8.174
 1347SOL     OW 5879   7.989   6.138  11.783
 1347SOL    HW1 5880   8.076   6.114  11.816
 1347SOL    HW2 5881   8.004   6.164  11.693
 1348SOL     OW 5882   2.080   8.643   0.093
 1348SOL    HW1 5883   2.110   8.567   0.043
 1348SOL    HW2 5884   2.159   8.678   0.133
 1349SOL     OW 5885   6.959   7.292   1.072
 1349SOL    HW1 5886   7.034   7.303   1.014
 1349SOL    HW2 5887   6.976   7.210   1.118
 1350SOL     OW 5888   0.458   8.390   7.733
 1350SOL    HW1 5889   0.481   8.421   7.646
 1350SOL    HW2 5890   0.446   8.470   7.784
 1351SOL     OW 5891  12.480   0.073  10.179
 1351SOL    HW1 5892  12.464   0.033  10.093
 1351SOL    HW2 5893  12.466   0.166  10.165
 1352SOL     OW 5894   6.902   0.061  13.241
 1352SOL    HW1 5895   6.960   0.081  13.315
 1352SOL    HW2 5896   6.858  14.853  13.266
 1353SOL     OW 5897   6.931   0.497   7.036
 1353SOL    HW1 5898   6.953   0.411   6.998
 1353SOL    HW2 5899   6.848   0.482   7.081
 1354SOL     OW 5900   3.631   0.168   3.008
 1354SOL    HW1 5901   3.661   0.080   2.986
 1354SOL    HW2 5902   3.711   0.217   3.029
 1355SOL     OW 5903   9.027  14.673  12.462
 1355SOL    HW1 5904   8.986  14.649  12.379
 1355SOL    HW2 5905   9.020  14.768  12.466
 1356SOL     OW 5906   6.635  13.887   8.110
 1356SOL    HW1 5907   6.617  13.820   8.175
 1356SOL    HW2 5908   6.691  13.843   8.045
 1357SOL     OW 5909   2.155  12.392   9.763
 1357SOL    HW1 5910   2.164  12.428   9.851
 1357SOL    HW2 5911   2.067  12.415   9.735
 1358SOL     OW 5912   5.675   8.862  11.275
 1358SOL    HW1 5913   5.662   8.851  11.369
 1358SOL    HW2 5914   5.633   8.785  11.236
 1359SOL     OW 5915  13.734   8.430   7.834
 1359SOL    HW1 5916  13.828   8.429   7.848
 1359SOL    HW2 5917  13.723   8.465   7.746
 1360SOL     OW 5918  13.963  14.163   6.450
 1360SOL    HW1 5919  13.941  14.245   6.494
 1360SOL    HW2 5920  14.059  14.162   6.450
 1361SOL     OW 5921  11.777  11.197   0.414
 1361SOL    HW1 5922  11.767  11.249   0.335
 1361SOL    HW2 5923  11.870  11.205   0.437
 1362SOL     OW 5924   8.935  14.585   4.430
 1362SOL    HW1 5925   8.915  14.644   4.357
 1362SOL    HW2 5926   9.026  14.604   4.453
 1363SOL     OW 5927  14.728   7.022  11.459
 1363SOL    HW1 5928  14.675   6.951  11.423
 1363SOL    HW2 5929  14.769   6.984  11.536
 1364SOL     OW 5930   5.042   3.831   3.562
 1364SOL    HW1 5931   5.057   3.821   3.656
 1364SOL    HW2 5932   5.071   3.920   3.543
 1365SOL     OW 5933   8.357   9.393   7.195
 1365SOL    HW1 5934   8.429   9.456   7.209
 1365SOL    HW2 5935   8.401   9.309   7.180
 1366SOL     OW 5936   2.023   1.600  13.899
 1366SOL    HW1 5937   1.947   1.542  13.903
 1366SOL    HW2 5938   1.989   1.685  13.927
 1367SOL     OW 5939  11.420   1.302   6.818
 1367SOL    HW1 5940  11.357   1.335   6.755
 1367SOL    HW2 5941  11.441   1.376   6.874
 1368SOL     OW 5942  13.388   1.521   2.500
 1368SOL    HW1 5943  13.403   1.594   2.441
 1368SOL    HW2 5944  13.293   1.521   2.515
 1369SOL     OW 5945   9.183   8.388  10.019
 1369SOL    HW1 5946   9.104   8.370  10.070
 1369SOL    HW2 5947   9.233   8.306  10.022
 1370SOL     OW 5948  13.928   1.895   7.713
 1370SOL    HW1 5949  13.948   1.828   7.779
 1370SOL    HW2 5950  13.833   1.892   7.703
 1371SOL     OW 5951   0.289   4.495   4.469
 1371SOL    HW1 5952   0.259   4.442   4.396
 1371SOL    HW2 5953   0.220   4.486   4.535
 1372SOL     OW 5954   4.474  11.654   8.248
 1372SOL    HW1 5955   4.546  11.603   8.211
 1372SOL    HW2 5956   4.467  11.730   8.190
 1373SOL     OW 5957   2.970  11.091   0.113
 1373SOL    HW1 5958   3.011  11.143   0.183
 1373SOL    HW2 5959   2.979  11.145   0.035
 1374SOL     OW 5960  10.357   9.060   9.795
 1374SOL    HW1 5961  10.404   9.057   9.878
 1374SOL    HW2 5962  10.267   9.036   9.818
 1375SOL     OW 5963  12.589   8.174   6.707
 1375SOL    HW1 5964  12.620   8.145   6.793
 1375SOL    HW2 5965  12.634   8.116   6.645
 1376SOL     OW 5966  11.786  14.692  10.358
 1376SOL    HW1 5967  11.869  14.683  10.310
 1376SOL    HW2 5968  11.719  14.680  10.291
 1377SOL     OW 5969  11.433  14.106   7.382
 1377SOL    HW1 5970  11.450  14.021   7.342
 1377SOL    HW2 5971  11.516  14.130   7.424
 1378SOL     OW 5972   8.863   5.485  12.826
 1378SOL    HW1 5973   8.861   5.579  12.842
 1378SOL    HW2 5974   8.771   5.459  12.825
 1379SOL     OW 5975  13.994   8.320  10.768
 1379SOL    HW1 5976  13.992   8.285  10.857
 1379SOL    HW2 5977  14.086   8.343  10.754
 1380SOL     OW 5978   6.786   8.844   2.437
 1380SOL    HW1 5979   6.769   8.938   2.443
 1380SOL    HW2 5980   6.719   8.804   2.493
 1381SOL     OW 5981   1.818   5.148   1.887
 1381SOL    HW1 5982   1.888   5.082   1.894
 1381SOL    HW2 5983   1.791   5.144   1.795
 1382SOL     OW 5984  12.224  13.063   9.328
 1382SOL    HW1 5985  12.219  13.090   9.236
 1382SOL    HW2 5986  12.215  13.144   9.377
 1383SOL     OW 5987  13.488   0.689   7.064
 1383SOL    HW1 5988  13.573   0.664   7.100
 1383SOL    HW2 5989  13.433   0.705   7.140
 1384SOL     OW 5990  14.499  12.561   7.332
 1384SOL    HW1 5991  14.548  12.611   7.398
 1384SOL    HW2 5992  14.427  12.620   7.308
 1385SOL     OW 5993  11.653   9.001   2.350
 1385SOL    HW1 5994  11.627   9.015   2.259
 1385SOL    HW2 5995  11.610   9.073   2.398
 1386SOL     OW 5996   7.342   9.904   1.966
 1386SOL    HW1 5997   7.255   9.863   1.965
 1386SOL    HW2 5998   7.400   9.839   1.927
 1387SOL     OW 5999   1.694   6.454   5.485
 1387SOL    HW1 6000   1.763   6.488   5.541
 1387SOL    HW2 6001   1.617   6.505   5.508
 1388SOL     OW 6002   0.345  10.778   1.625
 1388SOL    HW1 6003   0.302  10.845   1.572
 1388SOL    HW2 6004   0.433  10.771   1.588
 1389SOL     OW 6005   0.622  12.071   8.473
 1389SOL    HW1 6006   0.550  12.041   8.528
 1389SOL    HW2 6007   0.655  11.990   8.432
 1390SOL     OW 6008   3.353   1.075   7.338
 1390SOL    HW1 6009   3.415   1.103   7.405
 1390SOL    HW2 6010   3.398   1.004   7.292
 1391SOL     OW 6011   9.462   2.272   7.370
 1391SOL    HW1 6012   9.442   2.217   7.295
 1391SOL    HW2 6013   9.498   2.353   7.333
 1392SOL     OW 6014   5.386   5.997  10.882
 1392SOL    HW1 6015   5.425   6.072  10.838
 1392SOL    HW2 6016   5.407   6.009  10.975
 1393SOL     OW 6017  12.535  11.899   7.447
 1393SOL    HW1 6018  12.596  11.971   7.462
 1393SOL    HW2 6019  12.579  11.844   7.382
 1394SOL     OW 6020  11.853   6.072   7.958
 1394SOL    HW1 6021  11.777   6.112   7.916
 1394SOL    HW2 6022  11.892   6.017   7.891
 1395SOL     OW 6023   7.071   4.306   6.909
 1395SOL    HW1 6024   6.998   4.366   6.924
 1395SOL    HW2 6025   7.046   4.225   6.954
 1396SOL     OW 6026   8.511   0.662  14.529
 1396SOL    HW1 6027   8.468   0.730  14.580
 1396SOL    HW2 6028   8.603   0.670  14.552
 1397SOL     OW 6029   8.831  10.419  12.557
 1397SOL    HW1 6030   8.803  10.507  12.583
 1397SOL    HW2 6031   8.753  10.379  12.518
 1398SOL     OW 6032   3.466  14.517  13.254
 1398SOL    HW1 6033   3.526  14.442  13.251
 1398SOL    HW2 6034   3.379  14.478  13.255
 1399SOL     OW 6035  11.360  12.267  11.340
 1399SOL    HW1 6036  11.353  12.319  11.420
 1399SOL    HW2 6037  11.444  12.292  11.302
 1400SOL     OW 6038  14.716   3.661   3.911
 1400SOL    HW1 6039  14.667   3.640   3.991
 1400SOL    HW2 6040  14.734   3.754   3.917
 1401SOL     OW 6041   3.993  14.217  13.346
 1401SOL    HW1 6042   3.993  14.130  13.386
 1401SOL    HW2 6043   4.084  14.233  13.324
 1402SOL     OW 6044  11.555   1.257   4.832
 1402SOL    HW1 6045  11.508   1.180   4.798
 1402SOL    HW2 6046  11.514   1.331   4.786
 1403SOL     OW 6047  12.095   1.360   4.937
 1403SOL    HW1 6048  12.141   1.281   4.910
 1403SOL    HW2 6049  12.161   1.429   4.933
 1404SOL     OW 6050  12.533   8.778   2.333
 1404SOL    HW1 6051  12.474   8.727   2.277
 1404SOL    HW2 6052  12.621   8.749   2.306
 1405SOL     OW 6053  14.383  10.595   6.802
 1405SOL    HW1 6054  14.311  10.595   6.866
 1405SOL    HW2 6055  14.453  10.546   6.846
 1406SOL     OW 6056   3.568   5.569  11.471
 1406SOL    HW1 6057   3.573   5.545  11.563
 1406SOL    HW2 6058   3.500   5.513  11.435
 1407SOL     OW 6059   6.145  12.328  12.307
 1407SOL    HW1 6060   6.108  12.316  12.394
 1407SOL    HW2 6061   6.144  12.422  12.292
 1408SOL     OW 6062   7.959  13.121  11.940
 1408SOL    HW1 6063   7.967  13.183  12.012
 1408SOL    HW2 6064   8.006  13.043  11.969
 1409SOL     OW 6065  12.176   1.497  13.191
 1409SOL    HW1 6066  12.204   1.412  13.156
 1409SOL    HW2 6067  12.109   1.528  13.130
 1410SOL     OW 6068   8.604   0.257   4.994
 1410SOL    HW1 6069   8.678   0.197   4.987
 1410SOL    HW2 6070   8.624   0.310   5.071
 1411SOL     OW 6071   2.729   7.036   2.478
 1411SOL    HW1 6072   2.687   7.018   2.562
 1411SOL    HW2 6073   2.682   7.111   2.443
 1412SOL     OW 6074   0.897  11.170   6.014
 1412SOL    HW1 6075   0.940  11.094   5.975
 1412SOL    HW2 6076   0.805  11.161   5.988
 1413SOL     OW 6077   1.131   7.758   8.268
 1413SOL    HW1 6078   1.196   7.689   8.281
 1413SOL    HW2 6079   1.058   7.732   8.324
 1414SOL     OW 6080   7.733   0.115   4.163
 1414SOL    HW1 6081   7.639   0.133   4.162
 1414SOL    HW2 6082   7.747   0.061   4.241
 1415SOL     OW 6083   9.319  14.367   9.417
 1415SOL    HW1 6084   9.314  14.282   9.461
 1415SOL    HW2 6085   9.393  14.357   9.356
 1416SOL     OW 6086   6.226   3.814   1.991
 1416SOL    HW1 6087   6.176   3.855   2.062
 1416SOL    HW2 6088   6.210   3.870   1.915
 1417SOL     OW 6089   9.570   9.421   5.347
 1417SOL    HW1 6090   9.620   9.441   5.427
 1417SOL    HW2 6091   9.501   9.487   5.345
 1418SOL     OW 6092   6.034   3.224   2.691
 1418SOL    HW1 6093   5.989   3.300   2.655
 1418SOL    HW2 6094   6.086   3.190   2.618
 1419SOL     OW 6095  13.308   1.894   3.154
 1419SOL    HW1 6096  13.311   1.902   3.249
 1419SOL    HW2 6097  13.226   1.936   3.129
 1420SOL     OW 6098   6.641  10.410  13.060
 1420SOL    HW1 6099   6.592  10.334  13.028
 1420SOL    HW2 6100   6.703  10.373  13.123
 1421SOL     OW 6101   1.142   1.124   6.469
 1421SOL    HW1 6102   1.177   1.207   6.499
 1421SOL    HW2 6103   1.057   1.146   6.431
 1422SOL     OW 6104   9.703  14.167  11.583
 1422SOL    HW1 6105   9.631  14.228  11.596
 1422SOL    HW2 6106   9.719  14.130  11.670
 1423SOL     OW 6107   6.886  13.048  13.499
 1423SOL    HW1 6108   6.828  12.976  13.523
 1423SOL    HW2 6109   6.841  13.127  13.531
 1424SOL     OW 6110  12.021   2.495  10.741
 1424SOL    HW1 6111  11.952   2.429  10.742
 1424SOL    HW2 6112  12.044   2.507  10.833
 1425SOL     OW 6113   9.237   1.026   9.304
 1425SOL    HW1 6114   9.326   1.034   9.340
 1425SOL    HW2 6115   9.244   1.063   9.216
 1426SOL     OW 6116   6.767   2.205   5.075
 1426SOL    HW1 6117   6.825   2.185   5.148
 1426SOL    HW2 6118   6.683   2.227   5.115
 1427SOL     OW 6119   3.407   7.668  10.456
 1427SOL    HW1 6120   3.492   7.712  10.466
 1427SOL    HW2 6121   3.430   7.575  10.446
 1428SOL     OW 6122  13.443  11.410  10.779
 1428SOL    HW1 6123  13.448  11.485  10.839
 1428SOL    HW2 6124  13.497  11.343  10.819
 1429SOL     OW 6125   2.217   6.089   3.222
 1429SOL    HW1 6126   2.289   6.152   3.211
 1429SOL    HW2 6127   2.261   6.004   3.222
 1430SOL     OW 6128  10.559   5.692   5.995
 1430SOL    HW1 6129  10.475   5.732   5.973
 1430SOL    HW2 6130  10.605   5.760   6.045
 1431SOL     OW 6131   5.458  12.076   5.046
 1431SOL    HW1 6132   5.468  12.055   4.953
 1431SOL    HW2 6133   5.482  11.995   5.091
 1432SOL     OW 6134  13.095   9.268   5.666
 1432SOL    HW1 6135  13.146   9.349   5.656
 1432SOL    HW2 6136  13.038   9.267   5.589
 1433SOL     OW 6137   2.132   6.846   1.509
 1433SOL    HW1 6138   2.140   6.878   1.598
 1433SOL    HW2 6139   2.200   6.779   1.502
 1434SOL     OW 6140   5.506  13.713  14.515
 1434SOL    HW1 6141   5.537  13.779  14.577
 1434SOL    HW2 6142   5.422  13.685  14.551
 1435SOL     OW 6143  11.008  13.229   4.354
 1435SOL    HW1 6144  10.950  13.294   4.393
 1435SOL    HW2 6145  11.043  13.180   4.428
 1436SOL     OW 6146  13.248   8.596   3.547
 1436SOL    HW1 6147  13.195   8.598   3.467
 1436SOL    HW2 6148  13.214   8.522   3.597
 1437SOL     OW 6149  14.468   6.069  13.329
 1437SOL    HW1 6150  14.514   6.131  13.273
 1437SOL    HW2 6151  14.376   6.081  13.307
 1438SOL     OW 6152   3.824  12.167   9.500
 1438SOL    HW1 6153   3.757  12.102   9.480
 1438SOL    HW2 6154   3.855  12.144   9.587
 1439SOL     OW 6155   3.038   4.795  10.621
 1439SOL    HW1 6156   3.011   4.766  10.708
 1439SOL    HW2 6157   3.133   4.782  10.619
 1440SOL     OW 6158   1.722  12.147   7.176
 1440SOL    HW1 6159   1.718  12.216   7.242
 1440SOL    HW2 6160   1.683  12.070   7.219
 1441SOL     OW 6161   5.788  12.492   4.422
 1441SOL    HW1 6162   5.861  12.475   4.363
 1441SOL    HW2 6163   5.730  12.417   4.413
 1442SOL     OW 6164   0.399  14.045   4.584
 1442SOL    HW1 6165   0.468  14.062   4.649
 1442SOL    HW2 6166   0.368  14.133   4.560
 1443SOL     OW 6167  13.556   0.620   2.698
 1443SOL    HW1 6168  13.506   0.687   2.651
 1443SOL    HW2 6169  13.507   0.605   2.778
 1444SOL     OW 6170   5.728  14.638   7.819
 1444SOL    HW1 6171   5.754  14.704   7.755
 1444SOL    HW2 6172   5.708  14.560   7.766
 1445SOL     OW 6173  14.824  13.273   0.788
 1445SOL    HW1 6174  14.813  13.359   0.746
 1445SOL    HW2 6175  14.761  13.273   0.860
 1446SOL     OW 6176   9.572  12.538   6.426
 1446SOL    HW1 6177   9.512  12.602   6.387
 1446SOL    HW2 6178   9.636  12.591   6.473
 1447SOL     OW 6179   8.700   9.688  11.346
 1447SOL    HW1 6180   8.629   9.711  11.286
 1447SOL    HW2 6181   8.731   9.603  11.315
 1448SOL     OW 6182   1.555  12.864   6.939
 1448SOL    HW1 6183   1.513  12.947   6.963
 1448SOL    HW2 6184   1.512  12.799   6.995
 1449SOL     OW 6185   0.609   0.621   0.461
 1449SOL    HW1 6186   0.623   0.656   0.373
 1449SOL    HW2 6187   0.514   0.618   0.471
 1450SOL     OW 6188   6.086   4.840  10.305
 1450SOL    HW1 6189   5.999   4.819  10.270
 1450SOL    HW2 6190   6.069   4.872  10.393
 1451SOL     OW 6191   0.285   9.997  13.937
 1451SOL    HW1 6192   0.227   9.923  13.919
 1451SOL    HW2 6193   0.373   9.959  13.939
 1452SOL     OW 6194   3.433   3.473   5.784
 1452SOL    HW1 6195   3.516   3.517   5.801
 1452SOL    HW2 6196   3.404   3.509   5.700
 1453SOL     OW 6197  14.304   7.890   8.777
 1453SOL    HW1 6198  14.385   7.914   8.733
 1453SOL    HW2 6199  14.322   7.903   8.870
 1454SOL     OW 6200   9.300   0.869  12.850
 1454SOL    HW1 6201   9.308   0.883  12.944
 1454SOL    HW2 6202   9.300   0.957  12.813
 1455SOL     OW 6203  11.790   0.295  11.233
 1455SOL    HW1 6204  11.706   0.253  11.247
 1455SOL    HW2 6205  11.776   0.387  11.256
 1456SOL     OW 6206   8.654   2.737   8.469
 1456SOL    HW1 6207   8.678   2.802   8.535
 1456SOL    HW2 6208   8.650   2.654   8.518
 1457SOL     OW 6209  13.641   9.160  12.085
 1457SOL    HW1 6210  13.553   9.128  12.065
 1457SOL    HW2 6211  13.629   9.222  12.157
 1458SOL     OW 6212   6.281   6.016  13.344
 1458SOL    HW1 6213   6.347   6.062  13.291
 1458SOL    HW2 6214   6.252   5.944  13.289
 1459SOL     OW 6215  11.172   0.320  13.013
 1459SOL    HW1 6216  11.216   0.269  12.945
 1459SOL    HW2 6217  11.194   0.410  12.993
 1460SOL     OW 6218   6.467   5.851  11.752
 1460SOL    HW1 6219   6.510   5.779  11.797
 1460SOL    HW2 6220   6.515   5.860  11.669
 1461SOL     OW 6221   4.430  10.765   8.103
 1461SOL    HW1 6222   4.380  10.845   8.084
 1461SOL    HW2 6223   4.364  10.702   8.133
 1462SOL     OW 6224   1.135  12.757   6.327
 1462SOL    HW1 6225   1.095  12.695   6.388
 1462SOL    HW2 6226   1.096  12.841   6.349
 1463SOL     OW 6227   2.298  13.956   6.928
 1463SOL    HW1 6228   2.295  13.897   7.003
 1463SOL    HW2 6229   2.254  14.036   6.958
 1464SOL     OW 6230  10.695   5.482   6.733
 1464SOL    HW1 6231  10.648   5.437   6.803
 1464SOL    HW2 6232  10.787   5.464   6.750
 1465SOL     OW 6233   4.755   4.086  14.269
 1465SOL    HW1 6234   4.717   4.125  14.190
 1465SOL    HW2 6235   4.786   4.000  14.240
 1466SOL     OW 6236   9.183   1.405  11.483
 1466SOL    HW1 6237   9.184   1.334  11.547
 1466SOL    HW2 6238   9.165   1.363  11.400
 1467SOL     OW 6239   2.328   6.228   3.828
 1467SOL    HW1 6240   2.398   6.224   3.892
 1467SOL    HW2 6241   2.261   6.283   3.868
 1468SOL     OW 6242   1.990   3.716   9.220
 1468SOL    HW1 6243   2.014   3.624   9.230
 1468SOL    HW2 6244   2.073   3.760   9.199
 1469SOL     OW 6245   2.074   4.725   3.680
 1469SOL    HW1 6246   2.004   4.763   3.733
 1469SOL    HW2 6247   2.031   4.695   3.600
 1470SOL     OW 6248  10.250   3.320  13.483
 1470SOL    HW1 6249  10.220   3.406  13.512
 1470SOL    HW2 6250  10.170   3.269  13.471
 1471SOL     OW 6251   9.722   2.213  13.331
 1471SOL    HW1 6252   9.703   2.291  13.278
 1471SOL    HW2 6253   9.787   2.243  13.394
 1472SOL     OW 6254   5.967   0.788   6.836
 1472SOL    HW1 6255   5.924   0.867   6.804
 1472SOL    HW2 6256   5.922   0.716   6.792
 1473SOL     OW 6257  14.727   4.594  10.614
 1473SOL    HW1 6258  14.769   4.588  10.528
 1473SOL    HW2 6259  14.726   4.688  10.634
 1474SOL     OW 6260  12.224   6.268  10.921
 1474SOL    HW1 6261  12.210   6.287  11.014
 1474SOL    HW2 6262  12.201   6.176  10.911
 1475SOL     OW 6263   3.181   5.509   9.714
 1475SOL    HW1 6264   3.143   5.583   9.761
 1475SOL    HW2 6265   3.105   5.465   9.674
 1476SOL     OW 6266   7.773   9.364   7.340
 1476SOL    HW1 6267   7.777   9.384   7.434
 1476SOL    HW2 6268   7.813   9.277   7.333
 1477SOL     OW 6269  11.805   3.372   9.142
 1477SOL    HW1 6270  11.769   3.455   9.175
 1477SOL    HW2 6271  11.741   3.306   9.169
 1478SOL     OW 6272   2.873   3.071   4.809
 1478SOL    HW1 6273   2.796   3.020   4.834
 1478SOL    HW2 6274   2.947   3.016   4.835
 1479SOL     OW 6275   2.306   6.101  13.749
 1479SOL    HW1 6276   2.386   6.140  13.786
 1479SOL    HW2 6277   2.336   6.058  13.669
 1480SOL     OW 6278   0.110   9.476   5.789
 1480SOL    HW1 6279   0.020   9.478   5.823
 1480SOL    HW2 6280   0.130   9.383   5.781
 1481SOL     OW 6281  14.831  12.093   6.950
 1481SOL    HW1 6282   0.007  12.021   6.912
 1481SOL    HW2 6283  14.779  12.051   7.019
 1482SOL     OW 6284  10.439   0.497   5.757
 1482SOL    HW1 6285  10.533   0.512   5.767
 1482SOL    HW2 6286  10.399   0.552   5.824
 1483SOL     OW 6287  12.250   2.810  11.498
 1483SOL    HW1 6288  12.156   2.822  11.484
 1483SOL    HW2 6289  12.258   2.723  11.538
 1484SOL     OW 6290   9.180  12.213   9.979
 1484SOL    HW1 6291   9.266  12.230  10.019
 1484SOL    HW2 6292   9.200  12.165   9.898
 1485SOL     OW 6293   9.603   7.436   4.473
 1485SOL    HW1 6294   9.540   7.366   4.457
 1485SOL    HW2 6295   9.564   7.490   4.541
 1486SOL     OW 6296  12.686  11.507   0.170
 1486SOL    HW1 6297  12.684  11.449   0.094
 1486SOL    HW2 6298  12.722  11.589   0.135
 1487SOL     OW 6299  11.597   0.983   7.670
 1487SOL    HW1 6300  11.590   1.065   7.621
 1487SOL    HW2 6301  11.654   0.928   7.616
 1488SOL     OW 6302   3.635  13.441   3.019
 1488SOL    HW1 6303   3.585  13.404   3.091
 1488SOL    HW2 6304   3.720  13.395   3.023
 1489SOL     OW 6305  11.269   7.103   0.554
 1489SOL    HW1 6306  11.271   7.198   0.566
 1489SOL    HW2 6307  11.249   7.091   0.461
 1490SOL     OW 6308  12.294  10.407  13.787
 1490SOL    HW1 6309  12.247  10.465  13.847
 1490SOL    HW2 6310  12.271  10.439  13.700
 1491SOL     OW 6311   2.908   1.006   9.515
 1491SOL    HW1 6312   2.826   1.044   9.548
 1491SOL    HW2 6313   2.920   0.927   9.567
 1492SOL     OW 6314   5.532  12.061  13.354
 1492SOL    HW1 6315   5.470  12.109  13.299
 1492SOL    HW2 6316   5.520  11.969  13.329
 1493SOL     OW 6317   3.837   7.975   9.260
 1493SOL    HW1 6318   3.875   7.915   9.324
 1493SOL    HW2 6319   3.750   7.996   9.295
 1494SOL     OW 6320   6.887  11.417   9.549
 1494SOL    HW1 6321   6.974  11.404   9.587
 1494SOL    HW2 6322   6.830  11.361   9.601
 1495SOL     OW 6323   4.321   6.998  14.572
 1495SOL    HW1 6324   4.352   6.934  14.635
 1495SOL    HW2 6325   4.229   7.010  14.593
 1496SOL     OW 6326   0.743   5.676   5.685
 1496SOL    HW1 6327   0.792   5.720   5.754
 1496SOL    HW2 6328   0.743   5.737   5.611
 1497SOL     OW 6329   4.103   6.861  10.013
 1497SOL    HW1 6330   4.155   6.789  10.048
 1497SOL    HW2 6331   4.167   6.925   9.982
 1498SOL     OW 6332   4.590   4.031   6.483
 1498SOL    HW1 6333   4.587   4.098   6.413
 1498SOL    HW2 6334   4.664   3.975   6.459
 1499SOL     OW 6335  13.885   6.940  12.052
 1499SOL    HW1 6336  13.857   6.868  12.108
 1499SOL    HW2 6337  13.810   6.959  11.997
 1500SOL     OW 6338   4.363  11.478   9.959
 1500SOL    HW1 6339   4.426  11.441   9.898
 1500SOL    HW2 6340   4.410  11.549  10.002
 1501SOL     OW 6341   4.813   0.367  13.519
 1501SOL    HW1 6342   4.796   0.278  13.552
 1501SOL    HW2 6343   4.797   0.360  13.424
 1502SOL     OW 6344   0.166   5.145  11.657
 1502SOL    HW1 6345   0.086   5.198  11.657
 1502SOL    HW2 6346   0.142   5.066  11.608
 1503SOL     OW 6347  14.492  12.351  11.916
 1503SOL    HW1 6348  14.466  12.275  11.864
 1503SOL    HW2 6349  14.559  12.318  11.975
 1504SOL     OW 6350   7.720  11.088   8.340
 1504SOL    HW1 6351   7.735  10.994   8.341
 1504SOL    HW2 6352   7.780  11.123   8.406
 1505SOL     OW 6353  10.545  14.765   2.073
 1505SOL    HW1 6354  10.577  14.822   2.003
 1505SOL    HW2 6355  10.457  14.739   2.044
 1506SOL     OW 6356   3.102  11.076  11.382
 1506SOL    HW1 6357   3.058  11.035  11.456
 1506SOL    HW2 6358   3.037  11.077  11.312
 1507SOL     OW 6359   2.475   5.154  13.539
 1507SOL    HW1 6360   2.409   5.137  13.607
 1507SOL    HW2 6361   2.438   5.113  13.460
 1508SOL     OW 6362   1.794   2.481  10.891
 1508SOL    HW1 6363   1.739   2.448  10.821
 1508SOL    HW2 6364   1.875   2.430  10.884
 1509SOL     OW 6365   4.157  11.460   0.961
 1509SOL    HW1 6366   4.155  11.490   0.870
 1509SOL    HW2 6367   4.133  11.368   0.957
 1510SOL     OW 6368   9.930   3.322  13.113
 1510SOL    HW1 6369  10.012   3.286  13.079
 1510SOL    HW2 6370   9.958   3.391  13.173
 1511SOL     OW 6371   6.461   6.212  10.762
 1511SOL    HW1 6372   6.386   6.247  10.809
 1511SOL    HW2 6373   6.537   6.246  10.810
 1512SOL     OW 6374  14.024   4.660   7.805
 1512SOL    HW1 6375  14.017   4.672   7.710
 1512SOL    HW2 6376  13.976   4.579   7.823
 1513SOL     OW 6377   1.327   0.783   6.219
 1513SOL    HW1 6378   1.374   0.865   6.233
 1513SOL    HW2 6379   1.388   0.715   6.249
 1514SOL     OW 6380   3.591   3.891  12.225
 1514SOL    HW1 6381   3.552   3.806  12.242
 1514SOL    HW2 6382   3.544   3.925  12.149
 1515SOL     OW 6383   0.904   2.605   2.211
 1515SOL    HW1 6384   0.852   2.684   2.196
 1515SOL    HW2 6385   0.906   2.561   2.127
 1516SOL     OW 6386   1.743   3.672   9.316
 1516SOL    HW1 6387   1.761   3.665   9.410
 1516SOL    HW2 6388   1.828   3.691   9.277
 1517SOL     OW 6389   0.744   2.256   2.159
 1517SOL    HW1 6390   0.820   2.249   2.102
 1517SOL    HW2 6391   0.779   2.250   2.248
 1518SOL     OW 6392   3.249   2.710   9.247
 1518SOL    HW1 6393   3.287   2.657   9.317
 1518SOL    HW2 6394   3.226   2.647   9.178
 1519SOL     OW 6395   6.165  14.306   2.721
 1519SOL    HW1 6396   6.109  14.361   2.665
 1519SOL    HW2 6397   6.126  14.219   2.717
 1520SOL     OW 6398  14.051   9.282  13.825
 1520SOL    HW1 6399  13.996   9.245  13.757
 1520SOL    HW2 6400  14.137   9.241  13.812
 1521SOL     OW 6401  14.634   8.263   3.011
 1521SOL    HW1 6402  14.698   8.229   3.074
 1521SOL    HW2 6403  14.571   8.311   3.063
 1522SOL     OW 6404   7.091   2.628   1.650
 1522SOL    HW1 6405   7.028   2.573   1.604
 1522SOL    HW2 6406   7.176   2.596   1.622
 1523SOL     OW 6407   5.024  12.637  11.579
 1523SOL    HW1 6408   5.034  12.672  11.668
 1523SOL    HW2 6409   5.101  12.582  11.566
 1524SOL     OW 6410  14.657   2.709   9.915
 1524SOL    HW1 6411  14.720   2.685   9.983
 1524SOL    HW2 6412  14.649   2.631   9.860
 1525SOL     OW 6413   4.953   9.635   7.273
 1525SOL    HW1 6414   4.958   9.690   7.351
 1525SOL    HW2 6415   5.043   9.629   7.241
 1526SOL     OW 6416   2.761   4.710  11.635
 1526SOL    HW1 6417   2.701   4.745  11.570
 1526SOL    HW2 6418   2.724   4.737  11.719
 1527SOL     OW 6419   2.196   5.929   8.079
 1527SOL    HW1 6420   2.122   5.870   8.067
 1527SOL    HW2 6421   2.203   5.940   8.173
 1528SOL     OW 6422  11.487   2.272  11.227
 1528SOL    HW1 6423  11.541   2.288  11.304
 1528SOL    HW2 6424  11.418   2.213  11.257
 1529SOL     OW 6425  11.886   7.040   8.664
 1529SOL    HW1 6426  11.902   7.132   8.643
 1529SOL    HW2 6427  11.917   6.992   8.587
 1530SOL     OW 6428   4.441   9.107   1.308
 1530SOL    HW1 6429   4.534   9.122   1.289
 1530SOL    HW2 6430   4.414   9.043   1.241
 1531SOL     OW 6431   7.425   3.005  10.659
 1531SOL    HW1 6432   7.520   2.995  10.655
 1531SOL    HW2 6433   7.411   3.092  10.697
 1532SOL     OW 6434   8.197   4.859   6.367
 1532SOL    HW1 6435   8.265   4.855   6.434
 1532SOL    HW2 6436   8.165   4.949   6.370
 1533SOL     OW 6437  10.431  13.812  14.709
 1533SOL    HW1 6438  10.369  13.871  14.666
 1533SOL    HW2 6439  10.443  13.740  14.647
 1534SOL     OW 6440  12.426  10.119   6.883
 1534SOL    HW1 6441  12.494  10.076   6.831
 1534SOL    HW2 6442  12.461  10.205   6.903
 1535SOL     OW 6443  10.139   4.161   6.880
 1535SOL    HW1 6444  10.181   4.101   6.818
 1535SOL    HW2 6445  10.107   4.103   6.950
 1536SOL     OW 6446   8.084  11.735   8.805
 1536SOL    HW1 6447   8.111  11.677   8.734
 1536SOL    HW2 6448   8.035  11.805   8.762
 1537SOL     OW 6449   3.294  14.215   2.944
 1537SOL    HW1 6450   3.232  14.199   2.874
 1537SOL    HW2 6451   3.247  14.189   3.024
 1538SOL     OW 6452   0.497  13.842  13.012
 1538SOL    HW1 6453   0.434  13.855  12.941
 1538SOL    HW2 6454   0.569  13.794  12.971
 1539SOL     OW 6455   3.013   1.261   1.749
 1539SOL    HW1 6456   2.994   1.330   1.685
 1539SOL    HW2 6457   3.089   1.294   1.797
 1540SOL     OW 6458   2.876  12.492   4.881
 1540SOL    HW1 6459   2.887  12.426   4.812
 1540SOL    HW2 6460   2.790  12.472   4.919
 1541SOL     OW 6461   1.153   4.326   5.777
 1541SOL    HW1 6462   1.129   4.318   5.870
 1541SOL    HW2 6463   1.149   4.236   5.744
 1542SOL     OW 6464  10.091   3.956   3.097
 1542SOL    HW1 6465  10.148   4.000   3.034
 1542SOL    HW2 6466  10.151   3.925   3.165
 1543SOL     OW 6467   3.406  10.979   1.058
 1543SOL    HW1 6468   3.417  10.889   1.087
 1543SOL    HW2 6469   3.369  11.024   1.134
 1544SOL     OW 6470   2.449  11.338  11.632
 1544SOL    HW1 6471   2.504  11.354  11.709
 1544SOL    HW2 6472   2.470  11.410  11.573
 1545SOL     OW 6473  13.371   2.260  11.360
 1545SOL    HW1 6474  13.308   2.194  11.387
 1545SOL    HW2 6475  13.340   2.342  11.400
 1546SOL     OW 6476   3.451   6.876  14.108
 1546SOL    HW1 6477   3.478   6.961  14.073
 1546SOL    HW2 6478   3.518   6.815  14.076
 1547SOL     OW 6479  14.523   3.493   8.103
 1547SOL    HW1 6480  14.614   3.520   8.095
 1547SOL    HW2 6481  14.499   3.460   8.016
 1548SOL     OW 6482   6.666   5.425   8.154
 1548SOL    HW1 6483   6.667   5.335   8.185
 1548SOL    HW2 6484   6.739   5.430   8.092
 1549SOL     OW 6485   1.238  10.237   3.007
 1549SOL    HW1 6486   1.315  10.182   2.994
 1549SOL    HW2 6487   1.252  10.278   3.092
 1550SOL     OW 6488   9.814  11.294  12.324
 1550SOL    HW1 6489   9.774  11.252  12.400
 1550SOL    HW2 6490   9.818  11.224  12.258
 1551SOL     OW 6491  12.978   6.422   9.824
 1551SOL    HW1 6492  12.993   6.328   9.811
 1551SOL    HW2 6493  12.885   6.429   9.845
 1552SOL     OW 6494  10.335   5.374   2.814
 1552SOL    HW1 6495  10.317   5.424   2.894
 1552SOL    HW2 6496  10.374   5.437   2.755
 1553SOL     OW 6497  13.158  10.545  10.217
 1553SOL    HW1 6498  13.106  10.621  10.194
 1553SOL    HW2 6499  13.150  10.486  10.142
 1554SOL     OW 6500  11.066   6.582   9.013
 1554SOL    HW1 6501  10.989   6.628   8.979
 1554SOL    HW2 6502  11.050   6.575   9.107
 1555SOL     OW 6503   3.305   4.714   5.135
 1555SOL    HW1 6504   3.371   4.745   5.196
 1555SOL    HW2 6505   3.310   4.618   5.141
 1556SOL     OW 6506   3.359   3.844   5.720
 1556SOL    HW1 6507   3.351   3.776   5.652
 1556SOL    HW2 6508   3.453   3.859   5.727
 1557SOL     OW 6509   4.869   6.706  10.878
 1557SOL    HW1 6510   4.866   6.779  10.940
 1557SOL    HW2 6511   4.777   6.684  10.863
 1558SOL     OW 6512  11.665   1.355   9.272
 1558SOL    HW1 6513  11.722   1.369   9.196
 1558SOL    HW2 6514  11.658   1.441   9.313
 1559SOL     OW 6515   0.612  14.136  14.035
 1559SOL    HW1 6516   0.524  14.143  14.071
 1559SOL    HW2 6517   0.658  14.077  14.095
 1560SOL     OW 6518   8.976  12.755   6.343
 1560SOL    HW1 6519   8.896  12.761   6.395
 1560SOL    HW2 6520   9.042  12.802   6.394
 1561SOL     OW 6521  10.337   8.348   1.910
 1561SOL    HW1 6522  10.357   8.442   1.901
 1561SOL    HW2 6523  10.282   8.328   1.835
 1562SOL     OW 6524  13.381  11.315   9.788
 1562SOL    HW1 6525  13.287  11.328   9.777
 1562SOL    HW2 6526  13.399  11.344   9.878
 1563SOL     OW 6527  10.563   7.029   3.139
 1563SOL    HW1 6528  10.515   7.095   3.189
 1563SOL    HW2 6529  10.636   7.077   3.100
 1564SOL     OW 6530  12.616  10.641   5.809
 1564SOL    HW1 6531  12.683  10.672   5.870
 1564SOL    HW2 6532  12.666  10.600   5.738
 1565SOL     OW 6533   9.577  14.393  14.589
 1565SOL    HW1 6534   9.552  14.480  14.557
 1565SOL    HW2 6535   9.494  14.351  14.612
 1566SOL     OW 6536   4.713   6.925   5.385
 1566SOL    HW1 6537   4.618   6.916   5.377
 1566SOL    HW2 6538   4.735   6.878   5.465
 1567SOL     OW 6539  14.817  10.114  10.828
 1567SOL    HW1 6540  14.754  10.159  10.772
 1567SOL    HW2 6541  14.764  10.048  10.874
 1568SOL     OW 6542  10.435   3.034   4.193
 1568SOL    HW1 6543  10.417   2.949   4.233
 1568SOL    HW2 6544  10.371   3.041   4.122
 1569SOL     OW 6545   4.231   9.979   9.985
 1569SOL    HW1 6546   4.315  10.023   9.971
 1569SOL    HW2 6547   4.253   9.891  10.013
 1570SOL     OW 6548   0.818   0.469   3.422
 1570SOL    HW1 6549   0.818   0.545   3.481
 1570SOL    HW2 6550   0.911   0.449   3.409
 1571SOL     OW 6551   4.619  11.957  10.209
 1571SOL    HW1 6552   4.574  12.041  10.196
 1571SOL    HW2 6553   4.679  11.950  10.135
 1572SOL     OW 6554  13.892  13.802   6.927
 1572SOL    HW1 6555  13.979  13.799   6.886
 1572SOL    HW2 6556  13.885  13.718   6.973
 1573SOL     OW 6557   0.417  12.094  13.837
 1573SOL    HW1 6558   0.377  12.154  13.773
 1573SOL    HW2 6559   0.511  12.103  13.821
 1574SOL     OW 6560  13.450  10.002   6.904
 1574SOL    HW1 6561  13.371   9.953   6.883
 1574SOL    HW2 6562  13.503   9.997   6.824
 1575SOL     OW 6563   7.401  12.337  10.757
 1575SOL    HW1 6564   7.425  12.414  10.809
 1575SOL    HW2 6565   7.485  12.300  10.730
 1576SOL     OW 6566   7.363   1.037  13.003
 1576SOL    HW1 6567   7.294   1.005  12.946
 1576SOL    HW2 6568   7.395   0.959  13.048
 1577SOL     OW 6569  10.107  12.491  11.839
 1577SOL    HW1 6570  10.086  12.572  11.791
 1577SOL    HW2 6571  10.046  12.489  11.912
 1578SOL     OW 6572   6.979   0.303   4.432
 1578SOL    HW1 6573   7.057   0.265   4.472
 1578SOL    HW2 6574   6.908   0.278   4.491
 1579SOL     OW 6575  11.094   1.804   7.600
 1579SOL    HW1 6576  11.162   1.742   7.573
 1579SOL    HW2 6577  11.105   1.810   7.695
 1580SOL     OW 6578  10.958   9.828   9.893
 1580SOL    HW1 6579  11.037   9.877   9.918
 1580SOL    HW2 6580  10.907   9.823   9.974
 1581SOL     OW 6581  13.856   9.553  10.620
 1581SOL    HW1 6582  13.816   9.640  10.620
 1581SOL    HW2 6583  13.949   9.569  10.631
 1582SOL     OW 6584  12.064   1.414  10.864
 1582SOL    HW1 6585  12.123   1.481  10.828
 1582SOL    HW2 6586  12.057   1.349  10.794
 1583SOL     OW 6587  12.910  12.521   9.087
 1583SOL    HW1 6588  12.990  12.515   9.036
 1583SOL    HW2 6589  12.922  12.457   9.158
 1584SOL     OW 6590   1.451   1.912   9.772
 1584SOL    HW1 6591   1.410   1.994   9.798
 1584SOL    HW2 6592   1.384   1.845   9.789
 1585SOL     OW 6593  10.511  11.306   9.992
 1585SOL    HW1 6594  10.418  11.288   9.980
 1585SOL    HW2 6595  10.521  11.398   9.969
 1586SOL     OW 6596   7.015   0.998   5.557
 1586SOL    HW1 6597   7.016   0.994   5.653
 1586SOL    HW2 6598   6.967   1.078   5.536
 1587SOL     OW 6599   4.532  12.065  13.114
 1587SOL    HW1 6600   4.555  12.042  13.025
 1587SOL    HW2 6601   4.615  12.087  13.156
 1588SOL     OW 6602  14.098  14.252  11.050
 1588SOL    HW1 6603  14.014  14.242  11.005
 1588SOL    HW2 6604  14.101  14.179  11.112
 1589SOL     OW 6605   2.697  10.138   6.561
 1589SOL    HW1 6606   2.651  10.065   6.520
 1589SOL    HW2 6607   2.660  10.216   6.520
 1590SOL     OW 6608  13.541   9.234   4.541
 1590SOL    HW1 6609  13.633   9.253   4.557
 1590SOL    HW2 6610  13.496   9.317   4.560
 1591SOL     OW 6611  14.270   9.502  13.412
 1591SOL    HW1 6612  14.251   9.587  13.373
 1591SOL    HW2 6613  14.340   9.465  13.358
 1592SOL     OW 6614  13.375  12.890   5.292
 1592SOL    HW1 6615  13.375  12.920   5.383
 1592SOL    HW2 6616  13.447  12.826   5.289
 1593SOL     OW 6617   6.178   5.947  11.075
 1593SOL    HW1 6618   6.258   5.914  11.034
 1593SOL    HW2 6619   6.180   6.041  11.058
 1594SOL     OW 6620  13.397  11.897   7.202
 1594SOL    HW1 6621  13.474  11.843   7.219
 1594SOL    HW2 6622  13.419  11.945   7.122
 1595SOL     OW 6623  12.796  14.095   6.188
 1595SOL    HW1 6624  12.713  14.049   6.173
 1595SOL    HW2 6625  12.802  14.159   6.117
 1596SOL     OW 6626   6.148   0.051  11.575
 1596SOL    HW1 6627   6.209   0.032  11.504
 1596SOL    HW2 6628   6.203   0.074  11.649
 1597SOL     OW 6629   0.678   0.765  14.216
 1597SOL    HW1 6630   0.738   0.746  14.287
 1597SOL    HW2 6631   0.721   0.834  14.165
 1598SOL     OW 6632   2.421   3.455  11.682
 1598SOL    HW1 6633   2.345   3.405  11.712
 1598SOL    HW2 6634   2.404   3.544  11.712
 1599SOL     OW 6635   5.056   8.291   0.593
 1599SOL    HW1 6636   4.994   8.362   0.577
 1599SOL    HW2 6637   5.141   8.329   0.573
 1600SOL     OW 6638  13.340  14.280  10.164
 1600SOL    HW1 6639  13.392  14.200  10.164
 1600SOL    HW2 6640  13.311  14.290  10.255
 1601SOL     OW 6641   1.430   2.426  11.575
 1601SOL    HW1 6642   1.515   2.471  11.576
 1601SOL    HW2 6643   1.366   2.497  11.588
 1602SOL     OW 6644   8.170   8.214  13.451
 1602SOL    HW1 6645   8.214   8.163  13.519
 1602SOL    HW2 6646   8.193   8.171  13.369
 1603SOL     OW 6647   7.068   5.905  12.837
 1603SOL    HW1 6648   7.014   5.925  12.760
 1603SOL    HW2 6649   7.021   5.834  12.881
 1604SOL     OW 6650   2.157   6.555   7.335
 1604SOL    HW1 6651   2.173   6.649   7.344
 1604SOL    HW2 6652   2.148   6.541   7.241
 1605SOL     OW 6653   9.880   6.739  12.529
 1605SOL    HW1 6654   9.805   6.680  12.528
 1605SOL    HW2 6655   9.848   6.819  12.571
 1606SOL     OW 6656  11.462   5.500  13.512
 1606SOL    HW1 6657  11.532   5.520  13.575
 1606SOL    HW2 6658  11.386   5.479  13.567
 1607SOL     OW 6659   9.253   0.780   1.196
 1607SOL    HW1 6660   9.347   0.762   1.193
 1607SOL    HW2 6661   9.218   0.731   1.122
 1608SOL     OW 6662   4.476   1.901   8.236
 1608SOL    HW1 6663   4.515   1.848   8.167
 1608SOL    HW2 6664   4.548   1.955   8.268
 1609SOL     OW 6665  13.058  12.140   2.624
 1609SOL    HW1 6666  12.970  12.113   2.652
 1609SOL    HW2 6667  13.117  12.093   2.683
 1610SOL     OW 6668  12.211   1.993  13.293
 1610SOL    HW1 6669  12.287   1.955  13.337
 1610SOL    HW2 6670  12.205   2.082  13.328
 1611SOL     OW 6671   5.391  10.991  11.588
 1611SOL    HW1 6672   5.474  10.973  11.544
 1611SOL    HW2 6673   5.410  10.980  11.681
 1612SOL     OW 6674  11.479  12.118  12.099
 1612SOL    HW1 6675  11.534  12.097  12.174
 1612SOL    HW2 6676  11.540  12.125  12.026
 1613SOL     OW 6677  12.063   3.036   4.001
 1613SOL    HW1 6678  12.126   2.968   4.022
 1613SOL    HW2 6679  11.978   2.996   4.018
 1614SOL     OW 6680  10.681  12.911   8.914
 1614SOL    HW1 6681  10.760  12.914   8.968
 1614SOL    HW2 6682  10.711  12.879   8.829
 1615SOL     OW 6683   0.078   6.259  14.396
 1615SOL    HW1 6684   0.059   6.178  14.349
 1615SOL    HW2 6685   0.047   6.243  14.485
 1616SOL     OW 6686  10.559   2.957  10.905
 1616SOL    HW1 6687  10.572   3.021  10.975
 1616SOL    HW2 6688  10.646   2.919  10.891
 1617SOL     OW 6689  12.567  14.122   8.616
 1617SOL    HW1 6690  12.485  14.084   8.647
 1617SOL    HW2 6691  12.562  14.114   8.521
 1618SOL     OW 6692   2.679   3.827   8.852
 1618SOL    HW1 6693   2.702   3.876   8.932
 1618SOL    HW2 6694   2.719   3.741   8.865
 1619SOL     OW 6695   7.916   1.506   1.565
 1619SOL    HW1 6696   7.826   1.476   1.581
 1619SOL    HW2 6697   7.906   1.584   1.511
 1620SOL     OW 6698   0.982   1.160  12.458
 1620SOL    HW1 6699   0.944   1.129  12.375
 1620SOL    HW2 6700   1.048   1.224  12.431
 1621SOL     OW 6701   3.988   9.127   8.135
 1621SOL    HW1 6702   3.986   9.063   8.206
 1621SOL    HW2 6703   4.077   9.161   8.135
 1622SOL     OW 6704   8.841  12.269   1.957
 1622SOL    HW1 6705   8.761  12.227   1.989
 1622SOL    HW2 6706   8.833  12.265   1.862
 1623SOL     OW 6707  12.752   9.015   3.847
 1623SOL    HW1 6708  12.733   9.081   3.914
 1623SOL    HW2 6709  12.732   9.058   3.764
 1624SOL     OW 6710   8.381   9.893   2.696
 1624SOL    HW1 6711   8.385   9.884   2.792
 1624SOL    HW2 6712   8.297   9.854   2.672
 1625SOL     OW 6713  11.356   8.479   1.636
 1625SOL    HW1 6714  11.413   8.555   1.626
 1625SOL    HW2 6715  11.282   8.510   1.688
 1626SOL     OW 6716   0.385   9.679   9.781
 1626SOL    HW1 6717   0.342   9.620   9.843
 1626SOL    HW2 6718   0.406   9.757   9.833
 1627SOL     OW 6719   5.371   1.736   9.190
 1627SOL    HW1 6720   5.392   1.760   9.280
 1627SOL    HW2 6721   5.309   1.663   9.199
 1628SOL     OW 6722   1.177   9.883  14.394
 1628SOL    HW1 6723   1.269   9.858  14.388
 1628SOL    HW2 6724   1.135   9.840  14.320
 1629SOL     OW 6725   8.451   4.225  13.206
 1629SOL    HW1 6726   8.473   4.306  13.160
 1629SOL    HW2 6727   8.403   4.173  13.141
 1630SOL     OW 6728   5.740   2.588   4.351
 1630SOL    HW1 6729   5.781   2.507   4.321
 1630SOL    HW2 6730   5.762   2.594   4.444
 1631SOL     OW 6731   6.400   7.366  13.578
 1631SOL    HW1 6732   6.470   7.397  13.635
 1631SOL    HW2 6733   6.409   7.419  13.498
 1632SOL     OW 6734   2.386  11.324   2.371
 1632SOL    HW1 6735   2.436  11.342   2.291
 1632SOL    HW2 6736   2.299  11.301   2.340
 1633SOL     OW 6737   7.684   0.632   2.707
 1633SOL    HW1 6738   7.775   0.647   2.732
 1633SOL    HW2 6739   7.655   0.559   2.762
 1634SOL     OW 6740   8.396  10.733   4.273
 1634SOL    HW1 6741   8.460  10.680   4.320
 1634SOL    HW2 6742   8.427  10.823   4.284
 1635SOL     OW 6743  12.072   6.294  12.574
 1635SOL    HW1 6744  12.088   6.259  12.486
 1635SOL    HW2 6745  12.111   6.230  12.633
 1636SOL     OW 6746  11.259  12.842   5.929
 1636SOL    HW1 6747  11.167  12.845   5.958
 1636SOL    HW2 6748  11.256  12.865   5.836
 1637SOL     OW 6749   0.226  11.037  11.544
 1637SOL    HW1 6750   0.163  10.975  11.581
 1637SOL    HW2 6751   0.194  11.055  11.456
 1638SOL     OW 6752  13.269   4.191   8.765
 1638SOL    HW1 6753  13.231   4.104   8.752
 1638SOL    HW2 6754  13.358   4.184   8.730
 1639SOL     OW 6755   0.380   3.233   6.372
 1639SOL    HW1 6756   0.370   3.231   6.467
 1639SOL    HW2 6757   0.293   3.259   6.339
 1640SOL     OW 6758   0.518   9.885   8.229
 1640SOL    HW1 6759   0.611   9.863   8.220
 1640SOL    HW2 6760   0.516   9.981   8.232
 1641SOL     OW 6761   8.402  10.127   7.228
 1641SOL    HW1 6762   8.463  10.176   7.284
 1641SOL    HW2 6763   8.399  10.178   7.147
 1642SOL     OW 6764  10.909   4.883  11.583
 1642SOL    HW1 6765  10.868   4.967  11.561
 1642SOL    HW2 6766  11.002   4.896  11.567
 1643SOL     OW 6767   0.970  10.999   2.955
 1643SOL    HW1 6768   1.015  11.060   2.896
 1643SOL    HW2 6769   0.878  11.025   2.951
 1644SOL     OW 6770   0.461   8.100   8.344
 1644SOL    HW1 6771   0.492   8.100   8.254
 1644SOL    HW2 6772   0.525   8.154   8.391
 1645SOL     OW 6773  12.953   6.471  12.786
 1645SOL    HW1 6774  12.899   6.490  12.709
 1645SOL    HW2 6775  13.042   6.495  12.759
 1646SOL     OW 6776   3.971   3.004   4.013
 1646SOL    HW1 6777   3.971   3.091   3.972
 1646SOL    HW2 6778   3.896   3.005   4.072
 1647SOL     OW 6779  12.541  12.260   8.372
 1647SOL    HW1 6780  12.581  12.182   8.334
 1647SOL    HW2 6781  12.572  12.333   8.318
 1648SOL     OW 6782   3.552  10.372   9.541
 1648SOL    HW1 6783   3.618  10.330   9.596
 1648SOL    HW2 6784   3.481  10.307   9.536
 1649SOL     OW 6785  11.265  14.621   9.627
 1649SOL    HW1 6786  11.347  14.642   9.582
 1649SOL    HW2 6787  11.293  14.569   9.703
 1650SOL     OW 6788   4.027   4.608  11.846
 1650SOL    HW1 6789   4.035   4.691  11.891
 1650SOL    HW2 6790   4.110   4.596  11.801
 1651SOL     OW 6791  11.082  12.345  10.623
 1651SOL    HW1 6792  11.070  12.429  10.666
 1651SOL    HW2 6793  11.167  12.352  10.579
 1652SOL     OW 6794   3.670   6.050   1.612
 1652SOL    HW1 6795   3.619   6.051   1.531
 1652SOL    HW2 6796   3.758   6.022   1.585
 1653SOL     OW 6797   8.327   9.873   7.816
 1653SOL    HW1 6798   8.329   9.963   7.848
 1653SOL    HW2 6799   8.357   9.878   7.726
 1654SOL     OW 6800   1.950  13.163  14.394
 1654SOL    HW1 6801   1.976  13.135  14.306
 1654SOL    HW2 6802   2.017  13.226  14.420
 1655SOL     OW 6803   2.296   5.943  10.947
 1655SOL    HW1 6804   2.320   6.005  11.016
 1655SOL    HW2 6805   2.330   5.982  10.867
 1656SOL     OW 6806   9.502  14.172   7.833
 1656SOL    HW1 6807   9.433  14.158   7.898
 1656SOL    HW2 6808   9.575  14.120   7.864
 1657SOL     OW 6809   3.373  10.550  12.286
 1657SOL    HW1 6810   3.294  10.590  12.247
 1657SOL    HW2 6811   3.435  10.548  12.214
 1658SOL     OW 6812  13.383   4.974   1.515
 1658SOL    HW1 6813  13.427   4.920   1.580
 1658SOL    HW2 6814  13.290   4.951   1.523
 1659SOL     OW 6815   0.940  11.975  10.453
 1659SOL    HW1 6816   1.025  12.017  10.465
 1659SOL    HW2 6817   0.890  11.998  10.531
 1660SOL     OW 6818   1.190   1.660  11.446
 1660SOL    HW1 6819   1.270   1.650  11.394
 1660SOL    HW2 6820   1.201   1.744  11.491
 1661SOL     OW 6821   0.478   4.623  11.833
 1661SOL    HW1 6822   0.558   4.603  11.786
 1661SOL    HW2 6823   0.409   4.619  11.767
 1662SOL     OW 6824   8.093  13.689   8.638
 1662SOL    HW1 6825   8.011  13.658   8.677
 1662SOL    HW2 6826   8.139  13.732   8.710
 1663SOL     OW 6827   2.041  11.147   0.424
 1663SOL    HW1 6828   2.108  11.093   0.467
 1663SOL    HW2 6829   2.083  11.232   0.410
 1664SOL     OW 6830  13.467   0.856   4.118
 1664SOL    HW1 6831  13.536   0.861   4.052
 1664SOL    HW2 6832  13.498   0.792   4.182
 1665SOL     OW 6833   6.099   9.683   1.318
 1665SOL    HW1 6834   6.019   9.716   1.359
 1665SOL    HW2 6835   6.167   9.694   1.385
 1666SOL     OW 6836   6.969   9.195   8.622
 1666SOL    HW1 6837   6.890   9.227   8.665
 1666SOL    HW2 6838   6.992   9.264   8.560
 1667SOL     OW 6839   9.706   0.530  11.245
 1667SOL    HW1 6840   9.736   0.447  11.209
 1667SOL    HW2 6841   9.664   0.574  11.171
 1668SOL     OW 6842   3.284   7.472  11.072
 1668SOL    HW1 6843   3.346   7.430  11.131
 1668SOL    HW2 6844   3.339   7.519  11.009
 1669SOL     OW 6845   2.829   6.219   6.892
 1669SOL    HW1 6846   2.866   6.263   6.815
 1669SOL    HW2 6847   2.735   6.228   6.882
 1670SOL     OW 6848   6.280  14.235  10.749
 1670SOL    HW1 6849   6.264  14.271  10.836
 1670SOL    HW2 6850   6.356  14.284  10.717
 1671SOL     OW 6851   7.738   4.533  10.770
 1671SOL    HW1 6852   7.754   4.444  10.803
 1671SOL    HW2 6853   7.742   4.589  10.847
 1672SOL     OW 6854  14.747   3.904   0.258
 1672SOL    HW1 6855  14.772   3.851   0.334
 1672SOL    HW2 6856  14.829   3.943   0.227
 1673SOL     OW 6857   1.643   6.183   4.959
 1673SOL    HW1 6858   1.712   6.228   4.911
 1673SOL    HW2 6859   1.603   6.251   5.014
 1674SOL     OW 6860   0.741   3.542  12.219
 1674SOL    HW1 6861   0.797   3.467  12.203
 1674SOL    HW2 6862   0.750   3.560  12.312
 1675SOL     OW 6863   3.813   9.288  13.376
 1675SOL    HW1 6864   3.877   9.296  13.305
 1675SOL    HW2 6865   3.822   9.197  13.406
 1676SOL     OW 6866   7.026  10.666   1.078
 1676SOL    HW1 6867   7.027  10.762   1.084
 1676SOL    HW2 6868   7.102  10.638   1.129
 1677SOL     OW 6869   1.697   3.550  13.962
 1677SOL    HW1 6870   1.611   3.530  14.001
 1677SOL    HW2 6871   1.722   3.469  13.918
 1678SOL     OW 6872  11.094   2.118   8.543
 1678SOL    HW1 6873  11.096   2.214   8.543
 1678SOL    HW2 6874  11.031   2.095   8.611
 1679SOL     OW 6875   3.079   5.383  11.182
 1679SOL    HW1 6876   3.012   5.324  11.217
 1679SOL    HW2 6877   3.035   5.469  11.177
 1680SOL     OW 6878   6.955   6.753   1.052
 1680SOL    HW1 6879   6.873   6.736   1.005
 1680SOL    HW2 6880   6.928   6.790   1.135
 1681SOL     OW 6881  14.570   6.840   7.239
 1681SOL    HW1 6882  14.513   6.907   7.277
 1681SOL    HW2 6883  14.511   6.766   7.221
 1682SOL     OW 6884   5.341   3.947   2.882
 1682SOL    HW1 6885   5.407   3.931   2.814
 1682SOL    HW2 6886   5.389   3.993   2.951
 1683SOL     OW 6887   7.745   1.601  12.191
 1683SOL    HW1 6888   7.759   1.692  12.166
 1683SOL    HW2 6889   7.823   1.555  12.163
 1684SOL     OW 6890   3.272   6.632   4.216
 1684SOL    HW1 6891   3.207   6.562   4.219
 1684SOL    HW2 6892   3.224   6.709   4.184
 1685SOL     OW 6893  12.897   1.880   9.077
 1685SOL    HW1 6894  12.880   1.812   9.142
 1685SOL    HW2 6895  12.978   1.852   9.034
 1686SOL     OW 6896   0.076   0.728  12.416
 1686SOL    HW1 6897   0.058   0.793  12.484
 1686SOL    HW2 6898   0.027   0.759  12.340
 1687SOL     OW 6899  14.777   1.348   0.819
 1687SOL    HW1 6900  14.863   1.353   0.861
 1687SOL    HW2 6901  14.787   1.399   0.738
 1688SOL     OW 6902  14.654   5.749   6.886
 1688SOL    HW1 6903  14.646   5.684   6.815
 1688SOL    HW2 6904  14.579   5.807   6.874
 1689SOL     OW 6905   5.105   9.952   9.372
 1689SOL    HW1 6906   5.158   9.883   9.411
 1689SOL    HW2 6907   5.099  10.019   9.441
 1690SOL     OW 6908   6.291   0.365  13.512
 1690SOL    HW1 6909   6.330   0.291  13.560
 1690SOL    HW2 6910   6.220   0.326  13.461
 1691SOL     OW 6911   5.638  12.060   3.704
 1691SOL    HW1 6912   5.643  12.046   3.799
 1691SOL    HW2 6913   5.556  12.109   3.692
 1692SOL     OW 6914   1.669  14.341  10.290
 1692SOL    HW1 6915   1.679  14.422  10.240
 1692SOL    HW2 6916   1.758  14.317  10.316
 1693SOL     OW 6917   9.876   4.470  14.523
 1693SOL    HW1 6918   9.942   4.462  14.454
 1693SOL    HW2 6919   9.808   4.525  14.484
 1694SOL     OW 6920   9.089   8.831   9.343
 1694SOL    HW1 6921   9.090   8.736   9.355
 1694SOL    HW2 6922   9.179   8.858   9.358
 1695SOL     OW 6923   4.275   9.622   0.971
 1695SOL    HW1 6924   4.270   9.601   0.877
 1695SOL    HW2 6925   4.268   9.717   0.974
 1696SOL     OW 6926  12.684   5.234  11.031
 1696SOL    HW1 6927  12.697   5.250  10.938
 1696SOL    HW2 6928  12.749   5.167  11.053
 1697SOL     OW 6929  13.269  14.740   1.600
 1697SOL    HW1 6930  13.264  14.751   1.695
 1697SOL    HW2 6931  13.225  14.817   1.564
 1698SOL     OW 6932   9.792   3.981   7.097
 1698SOL    HW1 6933   9.859   3.915   7.078
 1698SOL    HW2 6934   9.797   4.042   7.024
 1699SOL     OW 6935  13.192   8.159  12.608
 1699SOL    HW1 6936  13.130   8.227  12.579
 1699SOL    HW2 6937  13.235   8.197  12.684
 1700SOL     OW 6938  10.460   9.764   5.046
 1700SOL    HW1 6939  10.451   9.685   5.098
 1700SOL    HW2 6940  10.382   9.816   5.068
 1701SOL     OW 6941   4.549  12.136  11.438
 1701SOL    HW1 6942   4.560  12.073  11.508
 1701SOL    HW2 6943   4.489  12.202  11.474
 1702SOL     OW 6944  10.586  13.675   5.435
 1702SOL    HW1 6945  10.541  13.674   5.350
 1702SOL    HW2 6946  10.520  13.644   5.497
 1703SOL     OW 6947   7.245  11.792   3.641
 1703SOL    HW1 6948   7.270  11.716   3.694
 1703SOL    HW2 6949   7.202  11.755   3.564
 1704SOL     OW 6950   2.995   5.358   1.998
 1704SOL    HW1 6951   2.982   5.289   2.063
 1704SOL    HW2 6952   2.997   5.311   1.914
 1705SOL     OW 6953  14.673   4.097   3.169
 1705SOL    HW1 6954  14.702   4.015   3.208
 1705SOL    HW2 6955  14.679   4.161   3.240
 1706SOL     OW 6956  10.481   5.634   4.682
 1706SOL    HW1 6957  10.564   5.631   4.727
 1706SOL    HW2 6958  10.489   5.707   4.621
 1707SOL     OW 6959   8.322  10.590   3.109
 1707SOL    HW1 6960   8.250  10.538   3.072
 1707SOL    HW2 6961   8.394  10.528   3.118
 1708SOL     OW 6962   4.387   3.200  12.856
 1708SOL    HW1 6963   4.366   3.293  12.850
 1708SOL    HW2 6964   4.472   3.192  12.813
 1709SOL     OW 6965   7.231   5.434   4.483
 1709SOL    HW1 6966   7.209   5.526   4.468
 1709SOL    HW2 6967   7.326   5.434   4.495
 1710SOL     OW 6968  13.917   1.164   6.904
 1710SOL    HW1 6969  13.904   1.088   6.848
 1710SOL    HW2 6970  13.903   1.239   6.847
 1711SOL     OW 6971   5.803   4.612  14.127
 1711SOL    HW1 6972   5.827   4.693  14.082
 1711SOL    HW2 6973   5.853   4.614  14.209
 1712SOL     OW 6974  14.427   5.916   9.492
 1712SOL    HW1 6975  14.358   5.900   9.557
 1712SOL    HW2 6976  14.410   5.851   9.423
 1713SOL     OW 6977   7.426   8.950   1.185
 1713SOL    HW1 6978   7.382   8.872   1.150
 1713SOL    HW2 6979   7.355   9.010   1.206
 1714SOL     OW 6980   1.930   9.170  10.826
 1714SOL    HW1 6981   1.977   9.240  10.871
 1714SOL    HW2 6982   1.926   9.099  10.890
 1715SOL     OW 6983   7.712   2.878  10.066
 1715SOL    HW1 6984   7.709   2.852  10.158
 1715SOL    HW2 6985   7.645   2.825  10.024
 1716SOL     OW 6986   4.522   7.587   8.859
 1716SOL    HW1 6987   4.500   7.520   8.794
 1716SOL    HW2 6988   4.455   7.654   8.848
 1717SOL     OW 6989   3.072   3.118   8.428
 1717SOL    HW1 6990   3.023   3.181   8.375
 1717SOL    HW2 6991   3.018   3.039   8.427
 1718SOL     OW 6992  10.825   7.336   3.585
 1718SOL    HW1 6993  10.883   7.268   3.618
 1718SOL    HW2 6994  10.751   7.289   3.546
 1719SOL     OW 6995   4.877   8.251  11.455
 1719SOL    HW1 6996   4.892   8.309  11.381
 1719SOL    HW2 6997   4.926   8.172  11.435
 1720SOL     OW 6998  12.005   2.093   3.306
 1720SOL    HW1 6999  11.923   2.053   3.335
 1720SOL    HW2 7000  12.020   2.057   3.219
 1721SOL     OW 7001   9.114   7.284   7.831
 1721SOL    HW1 7002   9.099   7.237   7.749
 1721SOL    HW2 7003   9.092   7.375   7.811
 1722SOL     OW 7004   5.422  14.354  11.821
 1722SOL    HW1 7005   5.491  14.290  11.809
 1722SOL    HW2 7006   5.366  14.317  11.889
 1723SOL     OW 7007   9.844   9.898  14.823
 1723SOL    HW1 7008   9.878   9.970   0.001
 1723SOL    HW2 7009   9.844   9.932  14.733
 1724SOL     OW 7010  11.697  12.106   2.775
 1724SOL    HW1 7011  11.685  12.200   2.769
 1724SOL    HW2 7012  11.778  12.088   2.727
 1725SOL     OW 7013   8.782  11.667  12.722
 1725SOL    HW1 7014   8.728  11.659  12.644
 1725SOL    HW2 7015   8.872  11.665  12.689
 1726SOL     OW 7016  10.235   1.864   1.089
 1726SOL    HW1 7017  10.300   1.881   1.022
 1726SOL    HW2 7018  10.255   1.927   1.159
 1727SOL     OW 7019   9.566   8.260   5.029
 1727SOL    HW1 7020   9.657   8.239   5.007
 1727SOL    HW2 7021   9.534   8.183   5.076
 1728SOL     OW 7022   2.382   0.341  12.066
 1728SOL    HW1 7023   2.365   0.435  12.058
 1728SOL    HW2 7024   2.457   0.325  12.009
 1729SOL     OW 7025   9.065   1.834  12.803
 1729SOL    HW1 7026   9.039   1.902  12.741
 1729SOL    HW2 7027   9.135   1.875  12.855
 1730SOL     OW 7028  13.543   3.075  13.542
 1730SOL    HW1 7029  13.522   3.002  13.601
 1730SOL    HW2 7030  13.498   3.150  13.581
 1731SOL     OW 7031   7.855   4.120  12.510
 1731SOL    HW1 7032   7.805   4.189  12.553
 1731SOL    HW2 7033   7.795   4.046  12.505
 1732SOL     OW 7034   0.304   8.707   5.039
 1732SOL    HW1 7035   0.356   8.630   5.018
 1732SOL    HW2 7036   0.301   8.757   4.957
 1733SOL     OW 7037   8.262   1.732   4.806
 1733SOL    HW1 7038   8.350   1.729   4.842
 1733SOL    HW2 7039   8.204   1.731   4.882
 1734SOL     OW 7040   6.097   4.502   7.657
 1734SOL    HW1 7041   6.045   4.483   7.579
 1734SOL    HW2 7042   6.102   4.418   7.703
 1735SOL     OW 7043  13.373   0.549   7.674
 1735SOL    HW1 7044  13.422   0.578   7.597
 1735SOL    HW2 7045  13.363   0.628   7.727
 1736SOL     OW 7046   0.926   1.559   2.463
 1736SOL    HW1 7047   0.908   1.644   2.422
 1736SOL    HW2 7048   1.021   1.554   2.466
 1737SOL     OW 7049   2.353   6.908   6.871
 1737SOL    HW1 7050   2.316   6.874   6.952
 1737SOL    HW2 7051   2.444   6.928   6.894
 1738SOL     OW 7052   9.674   3.220   3.036
 1738SOL    HW1 7053   9.700   3.180   2.953
 1738SOL    HW2 7054   9.725   3.174   3.102
 1739SOL     OW 7055   9.792   0.192   5.008
 1739SOL    HW1 7056   9.784   0.287   5.015
 1739SOL    HW2 7057   9.738   0.157   5.079
 1740SOL     OW 7058   2.884  10.088   4.263
 1740SOL    HW1 7059   2.934  10.017   4.222
 1740SOL    HW2 7060   2.799  10.049   4.283
 1741SOL     OW 7061  13.272   5.486  13.587
 1741SOL    HW1 7062  13.244   5.570  13.624
 1741SOL    HW2 7063  13.281   5.503  13.494
 1742SOL     OW 7064  12.871  12.011   7.807
 1742SOL    HW1 7065  12.799  12.011   7.870
 1742SOL    HW2 7066  12.926  12.085   7.833
 1743SOL     OW 7067   9.665   5.927   1.162
 1743SOL    HW1 7068   9.621   6.006   1.130
 1743SOL    HW2 7069   9.620   5.907   1.244
 1744SOL     OW 7070   0.715   5.817   8.520
 1744SOL    HW1 7071   0.625   5.792   8.541
 1744SOL    HW2 7072   0.741   5.875   8.592
 1745SOL     OW 7073  11.381   2.471   8.278
 1745SOL    HW1 7074  11.425   2.452   8.361
 1745SOL    HW2 7075  11.289   2.481   8.301
 1746SOL     OW 7076   5.138  13.354  14.292
 1746SOL    HW1 7077   5.178  13.347  14.206
 1746SOL    HW2 7078   5.199  13.308  14.351
 1747SOL     OW 7079  10.254   8.809   9.337
 1747SOL    HW1 7080  10.215   8.863   9.406
 1747SOL    HW2 7081  10.315   8.867   9.293
 1748SOL     OW 7082   6.029  11.572   1.820
 1748SOL    HW1 7083   5.993  11.519   1.749
 1748SOL    HW2 7084   5.998  11.661   1.800
 1749SOL     OW 7085   4.364   8.409   8.448
 1749SOL    HW1 7086   4.276   8.430   8.418
 1749SOL    HW2 7087   4.360   8.417   8.543
 1750SOL     OW 7088  13.458  11.547   2.978
 1750SOL    HW1 7089  13.363  11.546   2.982
 1750SOL    HW2 7090  13.477  11.574   2.888
 1751SOL     OW 7091  12.561   5.617   9.315
 1751SOL    HW1 7092  12.558   5.632   9.221
 1751SOL    HW2 7093  12.495   5.677   9.351
 1752SOL     OW 7094  12.268   3.626   7.543
 1752SOL    HW1 7095  12.250   3.652   7.453
 1752SOL    HW2 7096  12.341   3.564   7.535
 1753SOL     OW 7097   1.456   5.650   5.679
 1753SOL    HW1 7098   1.371   5.693   5.667
 1753SOL    HW2 7099   1.463   5.639   5.774
 1754SOL     OW 7100  11.754   1.431   3.098
 1754SOL    HW1 7101  11.703   1.371   3.153
 1754SOL    HW2 7102  11.844   1.397   3.103
 1755SOL     OW 7103  13.031   2.838  11.634
 1755SOL    HW1 7104  13.081   2.875  11.706
 1755SOL    HW2 7105  13.092   2.834  11.561
 1756SOL     OW 7106  10.988   9.913  11.534
 1756SOL    HW1 7107  11.027   9.996  11.506
 1756SOL    HW2 7108  10.950   9.933  11.620
 1757SOL     OW 7109  10.182   6.785   5.248
 1757SOL    HW1 7110  10.133   6.778   5.166
 1757SOL    HW2 7111  10.265   6.826   5.223
 1758SOL     OW 7112  10.997   7.054   6.736
 1758SOL    HW1 7113  10.985   7.086   6.826
 1758SOL    HW2 7114  10.941   7.110   6.683
 1759SOL     OW 7115  11.363  10.127   3.528
 1759SOL    HW1 7116  11.386  10.166   3.443
 1759SOL    HW2 7117  11.447  10.120   3.574
 1760SOL     OW 7118  10.740   8.442   2.619
 1760SOL    HW1 7119  10.771   8.352   2.607
 1760SOL    HW2 7120  10.645   8.433   2.629
 1761SOL     OW 7121  11.009   5.364  10.953
 1761SOL    HW1 7122  10.958   5.439  10.924
 1761SOL    HW2 7123  11.100   5.391  10.941
 1762SOL     OW 7124  14.715   3.014   1.463
 1762SOL    HW1 7125  14.721   3.104   1.431
 1762SOL    HW2 7126  14.784   3.007   1.529
 1763SOL     OW 7127  13.550   6.991   9.064
 1763SOL    HW1 7128  13.550   6.905   9.107
 1763SOL    HW2 7129  13.562   6.971   8.971
 1764SOL     OW 7130   7.991   7.709   5.801
 1764SOL    HW1 7131   8.045   7.778   5.763
 1764SOL    HW2 7132   7.913   7.707   5.746
 1765SOL     OW 7133   9.471   6.519   4.858
 1765SOL    HW1 7134   9.523   6.531   4.938
 1765SOL    HW2 7135   9.380   6.529   4.887
 1766SOL     OW 7136   6.259   0.283   7.456
 1766SOL    HW1 7137   6.332   0.321   7.405
 1766SOL    HW2 7138   6.255   0.337   7.535
 1767SOL     OW 7139  13.565  14.815  11.997
 1767SOL    HW1 7140  13.558   0.036  12.004
 1767SOL    HW2 7141  13.635  14.800  11.933
 1768SOL     OW 7142  10.638   1.109   9.727
 1768SOL    HW1 7143  10.683   1.072   9.802
 1768SOL    HW2 7144  10.701   1.104   9.655
 1769SOL     OW 7145   8.005   8.140   0.402
 1769SOL    HW1 7146   8.083   8.121   0.351
 1769SOL    HW2 7147   7.939   8.163   0.337
 1770SOL     OW 7148  12.595  13.214  12.690
 1770SOL    HW1 7149  12.622  13.270  12.763
 1770SOL    HW2 7150  12.529  13.265  12.644
 1771SOL     OW 7151   3.947   2.525   4.079
 1771SOL    HW1 7152   3.958   2.430   4.080
 1771SOL    HW2 7153   3.877   2.542   4.141
 1772SOL     OW 7154  11.604   6.183   3.591
 1772SOL    HW1 7155  11.609   6.278   3.592
 1772SOL    HW2 7156  11.647   6.158   3.509
 1773SOL     OW 7157   6.394   2.568   2.484
 1773SOL    HW1 7158   6.313   2.523   2.506
 1773SOL    HW2 7159   6.445   2.568   2.566
 1774SOL     OW 7160  10.029   2.553  13.401
 1774SOL    HW1 7161  10.039   2.458  13.401
 1774SOL    HW2 7162   9.936   2.567  13.421
 1775SOL     OW 7163   1.110   8.107   7.366
 1775SOL    HW1 7164   1.176   8.059   7.417
 1775SOL    HW2 7165   1.162   8.163   7.308
 1776SOL     OW 7166   4.488   6.847   3.095
 1776SOL    HW1 7167   4.584   6.855   3.089
 1776SOL    HW2 7168   4.473   6.785   3.165
 1777SOL     OW 7169   7.970  12.731   6.501
 1777SOL    HW1 7170   7.986  12.819   6.535
 1777SOL    HW2 7171   7.894  12.700   6.550
 1778SOL     OW 7172   5.022  10.005   2.198
 1778SOL    HW1 7173   5.085   9.938   2.174
 1778SOL    HW2 7174   4.990  10.039   2.114
 1779SOL     OW 7175   2.827   6.415  12.160
 1779SOL    HW1 7176   2.751   6.464  12.129
 1779SOL    HW2 7177   2.820   6.417  12.256
 1780SOL     OW 7178  12.963   6.252  11.076
 1780SOL    HW1 7179  12.915   6.332  11.094
 1780SOL    HW2 7180  12.997   6.264  10.988
 1781SOL     OW 7181  10.070  14.040  10.158
 1781SOL    HW1 7182  10.075  14.037  10.253
 1781SOL    HW2 7183  10.058  13.949  10.131
 1782SOL     OW 7184   4.910   1.495   7.400
 1782SOL    HW1 7185   4.834   1.455   7.358
 1782SOL    HW2 7186   4.881   1.582   7.427
 1783SOL     OW 7187   5.097   6.878   2.514
 1783SOL    HW1 7188   5.008   6.880   2.477
 1783SOL    HW2 7189   5.154   6.894   2.439
 1784SOL     OW 7190   5.301   6.980  10.040
 1784SOL    HW1 7191   5.374   7.018  10.089
 1784SOL    HW2 7192   5.226   7.036  10.063
 1785SOL     OW 7193   8.329   1.230   0.998
 1785SOL    HW1 7194   8.396   1.257   0.936
 1785SOL    HW2 7195   8.369   1.244   1.084
 1786SOL     OW 7196   7.377  14.336   3.155
 1786SOL    HW1 7197   7.409  14.341   3.245
 1786SOL    HW2 7198   7.282  14.343   3.162
 1787SOL     OW 7199   2.383   9.169   0.250
 1787SOL    HW1 7200   2.313   9.187   0.187
 1787SOL    HW2 7201   2.463   9.196   0.206
 1788SOL     OW 7202  14.491  11.838   0.422
 1788SOL    HW1 7203  14.537  11.805   0.345
 1788SOL    HW2 7204  14.500  11.769   0.487
 1789SOL     OW 7205   6.752   4.914   6.494
 1789SOL    HW1 7206   6.763   4.941   6.402
 1789SOL    HW2 7207   6.797   4.982   6.544
 1790SOL     OW 7208  10.172   2.171  11.565
 1790SOL    HW1 7209  10.202   2.247  11.516
 1790SOL    HW2 7210  10.155   2.104  11.499
 1791SOL     OW 7211   8.782   0.151   3.776
 1791SOL    HW1 7212   8.873   0.124   3.790
 1791SOL    HW2 7213   8.787   0.244   3.757
 1792SOL     OW 7214   8.482   3.767   7.964
 1792SOL    HW1 7215   8.499   3.837   8.027
 1792SOL    HW2 7216   8.511   3.804   7.880
 1793SOL     OW 7217  13.594  13.017   3.053
 1793SOL    HW1 7218  13.558  13.060   3.130
 1793SOL    HW2 7219  13.672  12.971   3.085
 1794SOL     OW 7220   1.505  14.218   9.485
 1794SOL    HW1 7221   1.556  14.244   9.561
 1794SOL    HW2 7222   1.570  14.182   9.424
 1795SOL     OW 7223   9.068  11.650   7.503
 1795SOL    HW1 7224   9.158  11.639   7.474
 1795SOL    HW2 7225   9.026  11.565   7.485
 1796SOL     OW 7226   9.310   7.156  13.501
 1796SOL    HW1 7227   9.245   7.088  13.482
 1796SOL    HW2 7228   9.382   7.137  13.440
 1797SOL     OW 7229  11.854   7.260  12.117
 1797SOL    HW1 7230  11.888   7.185  12.165
 1797SOL    HW2 7231  11.894   7.336  12.160
 1798SOL     OW 7232   1.131  11.482   6.560
 1798SOL    HW1 7233   1.119  11.577   6.562
 1798SOL    HW2 7234   1.205  11.468   6.502
 1799SOL     OW 7235  12.695   0.211  12.189
 1799SOL    HW1 7236  12.649   0.131  12.213
 1799SOL    HW2 7237  12.781   0.182  12.160
 1800SOL     OW 7238   1.794   4.708   6.540
 1800SOL    HW1 7239   1.706   4.734   6.512
 1800SOL    HW2 7240   1.794   4.613   6.534
 1801SOL     OW 7241  14.148   5.914   2.686
 1801SOL    HW1 7242  14.197   5.994   2.664
 1801SOL    HW2 7243  14.213   5.844   2.680
 1802SOL     OW 7244   5.315   6.710   2.927
 1802SOL    HW1 7245   5.305   6.617   2.904
 1802SOL    HW2 7246   5.410   6.722   2.935
 1803SOL     OW 7247   6.248   5.139   0.395
 1803SOL    HW1 7248   6.177   5.082   0.425
 1803SOL    HW2 7249   6.297   5.160   0.475
 1804SOL     OW 7250   4.142  10.966   9.542
 1804SOL    HW1 7251   4.232  11.001   9.538
 1804SOL    HW2 7252   4.087  11.044   9.551
 1805SOL     OW 7253   6.028   6.086   3.685
 1805SOL    HW1 7254   6.008   6.055   3.596
 1805SOL    HW2 7255   6.121   6.107   3.682
 1806SOL     OW 7256   3.715  13.911   0.460
 1806SOL    HW1 7257   3.675  13.933   0.544
 1806SOL    HW2 7258   3.652  13.941   0.394
 1807SOL     OW 7259  14.780  10.215   6.300
 1807SOL    HW1 7260  14.729  10.183   6.225
 1807SOL    HW2 7261  14.715  10.256   6.357
 1808SOL     OW 7262  13.691   0.028   0.621
 1808SOL    HW1 7263  13.698  14.833   0.688
 1808SOL    HW2 7264  13.753   0.002   0.553
 1809SOL     OW 7265   9.553   2.525   1.398
 1809SOL    HW1 7266   9.532   2.539   1.306
 1809SOL    HW2 7267   9.536   2.609   1.441
 1810SOL     OW 7268   5.221   9.306   5.049
 1810SOL    HW1 7269   5.268   9.383   5.081
 1810SOL    HW2 7270   5.236   9.239   5.116
 1811SOL     OW 7271  10.629   2.504   0.670
 1811SOL    HW1 7272  10.711   2.488   0.715
 1811SOL    HW2 7273  10.622   2.600   0.667
 1812SOL     OW 7274  11.009   1.432  10.673
 1812SOL    HW1 7275  10.976   1.393  10.754
 1812SOL    HW2 7276  11.088   1.479  10.698
 1813SOL     OW 7277  13.464   3.300   8.275
 1813SOL    HW1 7278  13.499   3.252   8.200
 1813SOL    HW2 7279  13.445   3.387   8.241
 1814SOL     OW 7280  13.985  13.432   1.863
 1814SOL    HW1 7281  13.915  13.476   1.910
 1814SOL    HW2 7282  13.940  13.383   1.794
 1815SOL     OW 7283   2.366   8.686   8.849
 1815SOL    HW1 7284   2.313   8.755   8.889
 1815SOL    HW2 7285   2.303   8.619   8.822
 1816SOL     OW 7286  10.653   2.526   7.309
 1816SOL    HW1 7287  10.662   2.459   7.377
 1816SOL    HW2 7288  10.720   2.591   7.330
 1817SOL     OW 7289  12.889   0.245   0.129
 1817SOL    HW1 7290  12.798   0.267   0.149
 1817SOL    HW2 7291  12.932   0.238   0.214
 1818SOL     OW 7292   9.766  12.837   7.873
 1818SOL    HW1 7293   9.815  12.764   7.834
 1818SOL    HW2 7294   9.693  12.851   7.814
 1819SOL     OW 7295   5.281   3.520  14.031
 1819SOL    HW1 7296   5.338   3.444  14.019
 1819SOL    HW2 7297   5.193   3.482  14.038
 1820SOL     OW 7298   6.799  14.423   8.716
 1820SOL    HW1 7299   6.789  14.508   8.673
 1820SOL    HW2 7300   6.709  14.397   8.739
 1821SOL     OW 7301   2.020   3.837  11.169
 1821SOL    HW1 7302   2.102   3.829  11.217
 1821SOL    HW2 7303   1.960   3.778  11.214
 1822SOL     OW 7304   3.779   2.084   7.023
 1822SOL    HW1 7305   3.837   2.010   7.009
 1822SOL    HW2 7306   3.822   2.157   6.979
 1823SOL     OW 7307   9.900  10.778   4.856
 1823SOL    HW1 7308   9.899  10.702   4.797
 1823SOL    HW2 7309   9.972  10.832   4.825
 1824SOL     OW 7310   8.046   1.780   4.969
 1824SOL    HW1 7311   8.069   1.822   5.052
 1824SOL    HW2 7312   7.951   1.786   4.965
 1825SOL     OW 7313   3.543   1.328  10.814
 1825SOL    HW1 7314   3.521   1.408  10.861
 1825SOL    HW2 7315   3.632   1.343  10.782
 1826SOL     OW 7316   3.130  12.359  14.566
 1826SOL    HW1 7317   3.096  12.283  14.520
 1826SOL    HW2 7318   3.113  12.433  14.508
 1827SOL     OW 7319   7.900   6.815   7.541
 1827SOL    HW1 7320   7.826   6.756   7.525
 1827SOL    HW2 7321   7.878   6.895   7.494
 1828SOL     OW 7322   3.932   3.847   6.471
 1828SOL    HW1 7323   3.856   3.846   6.530
 1828SOL    HW2 7324   4.007   3.846   6.529
 1829SOL     OW 7325  10.086   6.493   5.141
 1829SOL    HW1 7326  10.138   6.494   5.061
 1829SOL    HW2 7327  10.047   6.581   5.145
 1830SOL     OW 7328   9.003  12.570   5.586
 1830SOL    HW1 7329   9.056  12.522   5.522
 1830SOL    HW2 7330   9.065  12.626   5.632
 1831SOL     OW 7331  13.509   2.137  10.810
 1831SOL    HW1 7332  13.529   2.070  10.745
 1831SOL    HW2 7333  13.592   2.183  10.824
 1832SOL     OW 7334   9.668   5.942   3.048
 1832SOL    HW1 7335   9.631   6.030   3.043
 1832SOL    HW2 7336   9.760   5.953   3.025
 1833SOL     OW 7337   8.657   6.078  11.581
 1833SOL    HW1 7338   8.628   6.079  11.489
 1833SOL    HW2 7339   8.658   5.985  11.605
 1834SOL     OW 7340   6.652   3.295  11.237
 1834SOL    HW1 7341   6.733   3.291  11.287
 1834SOL    HW2 7342   6.608   3.374  11.269
 1835SOL     OW 7343  10.673   1.450   4.692
 1835SOL    HW1 7344  10.666   1.439   4.598
 1835SOL    HW2 7345  10.752   1.503   4.705
 1836SOL     OW 7346  10.826   7.141   7.958
 1836SOL    HW1 7347  10.741   7.184   7.960
 1836SOL    HW2 7348  10.840   7.119   7.866
 1837SOL     OW 7349   0.591   7.985  14.851
 1837SOL    HW1 7350   0.557   8.010   0.063
 1837SOL    HW2 7351   0.585   7.889  14.850
 1838SOL     OW 7352   1.435   4.504  12.349
 1838SOL    HW1 7353   1.418   4.549  12.432
 1838SOL    HW2 7354   1.455   4.414  12.373
 1839SOL     OW 7355   7.410  11.249   2.790
 1839SOL    HW1 7356   7.493  11.264   2.746
 1839SOL    HW2 7357   7.362  11.331   2.779
 1840SOL     OW 7358  14.188   0.548   1.933
 1840SOL    HW1 7359  14.227   0.464   1.910
 1840SOL    HW2 7360  14.202   0.555   2.028
 1841SOL     OW 7361   4.108  13.294   5.912
 1841SOL    HW1 7362   4.058  13.334   5.841
 1841SOL    HW2 7363   4.095  13.352   5.987
 1842SOL     OW 7364   9.221  13.782  10.105
 1842SOL    HW1 7365   9.166  13.792  10.183
 1842SOL    HW2 7366   9.289  13.848  10.115
 1843SOL     OW 7367  10.721  13.531  14.661
 1843SOL    HW1 7368  10.688  13.480  14.735
 1843SOL    HW2 7369  10.646  13.581  14.630
 1844SOL     OW 7370  14.412   5.879   6.806
 1844SOL    HW1 7371  14.341   5.838   6.857
 1844SOL    HW2 7372  14.393   5.973   6.812
 1845SOL     OW 7373   6.471   4.002   3.511
 1845SOL    HW1 7374   6.425   4.055   3.445
 1845SOL    HW2 7375   6.467   4.054   3.591
 1846SOL     OW 7376   2.803  13.954  14.244
 1846SOL    HW1 7377   2.882  13.946  14.297
 1846SOL    HW2 7378   2.783  14.048  14.246
 1847SOL     OW 7379   5.397   1.976   1.892
 1847SOL    HW1 7380   5.485   1.956   1.925
 1847SOL    HW2 7381   5.364   1.892   1.861
 1848SOL     OW 7382   1.627   5.273   4.661
 1848SOL    HW1 7383   1.635   5.186   4.699
 1848SOL    HW2 7384   1.688   5.327   4.712
 1849SOL     OW 7385  12.120  10.822   0.581
 1849SOL    HW1 7386  12.211  10.796   0.594
 1849SOL    HW2 7387  12.073  10.787   0.657
 1850SOL     OW 7388  10.577   4.940   8.474
 1850SOL    HW1 7389  10.505   4.910   8.529
 1850SOL    HW2 7390  10.656   4.907   8.517
 1851SOL     OW 7391  11.398  11.535   0.188
 1851SOL    HW1 7392  11.322  11.504   0.138
 1851SOL    HW2 7393  11.396  11.483   0.268
 1852SOL     OW 7394  10.028   3.595  13.152
 1852SOL    HW1 7395  10.032   3.557  13.064
 1852SOL    HW2 7396  10.029   3.690  13.137
 1853SOL     OW 7397   3.500  10.027   8.708
 1853SOL    HW1 7398   3.439   9.971   8.662
 1853SOL    HW2 7399   3.474  10.021   8.800
 1854SOL     OW 7400  14.474  13.763   0.290
 1854SOL    HW1 7401  14.532  13.839   0.300
 1854SOL    HW2 7402  14.439  13.771   0.202
 1855SOL     OW 7403   0.119   4.780  14.650
 1855SOL    HW1 7404   0.189   4.776  14.585
 1855SOL    HW2 7405   0.159   4.822  14.726
 1856SOL     OW 7406  10.351  11.277  11.044
 1856SOL    HW1 7407  10.412  11.319  10.983
 1856SOL    HW2 7408  10.374  11.314  11.130
 1857SOL     OW 7409  13.504   3.442   7.155
 1857SOL    HW1 7410  13.415   3.409   7.150
 1857SOL    HW2 7411  13.559   3.369   7.126
 1858SOL     OW 7412  11.982   7.864   0.794
 1858SOL    HW1 7413  12.070   7.837   0.820
 1858SOL    HW2 7414  11.945   7.786   0.751
 1859SOL     OW 7415  14.075   6.311   5.713
 1859SOL    HW1 7416  13.984   6.329   5.687
 1859SOL    HW2 7417  14.079   6.336   5.805
 1860SOL     OW 7418  12.356   9.753   1.614
 1860SOL    HW1 7419  12.403   9.729   1.534
 1860SOL    HW2 7420  12.264   9.762   1.586
 1861SOL     OW 7421   2.885   8.643  10.863
 1861SOL    HW1 7422   2.943   8.719  10.861
 1861SOL    HW2 7423   2.944   8.568  10.856
 1862SOL     OW 7424   0.218  12.945   2.263
 1862SOL    HW1 7425   0.238  13.005   2.334
 1862SOL    HW2 7426   0.275  12.870   2.278
 1863SOL     OW 7427  13.652   1.618   6.096
 1863SOL    HW1 7428  13.687   1.552   6.035
 1863SOL    HW2 7429  13.724   1.636   6.156
 1864SOL     OW 7430   1.673   6.904   9.770
 1864SOL    HW1 7431   1.702   6.978   9.717
 1864SOL    HW2 7432   1.750   6.877   9.819
 1865SOL     OW 7433  11.300   7.742  11.509
 1865SOL    HW1 7434  11.251   7.665  11.481
 1865SOL    HW2 7435  11.233   7.809  11.524
 1866SOL     OW 7436   2.028   3.954  13.868
 1866SOL    HW1 7437   1.965   3.887  13.893
 1866SOL    HW2 7438   2.036   4.010  13.945
 1867SOL     OW 7439   3.240   5.507   1.554
 1867SOL    HW1 7440   3.226   5.523   1.648
 1867SOL    HW2 7441   3.230   5.593   1.513
 1868SOL     OW 7442   0.957   6.932   3.560
 1868SOL    HW1 7443   0.945   6.844   3.525
 1868SOL    HW2 7444   0.887   6.984   3.520
 1869SOL     OW 7445  11.319   4.917   3.941
 1869SOL    HW1 7446  11.356   4.933   4.027
 1869SOL    HW2 7447  11.227   4.944   3.949
 1870SOL     OW 7448   2.368   3.787   5.842
 1870SOL    HW1 7449   2.419   3.797   5.761
 1870SOL    HW2 7450   2.297   3.727   5.818
 1871SOL     OW 7451   7.874  11.618  13.669
 1871SOL    HW1 7452   7.877  11.558  13.594
 1871SOL    HW2 7453   7.893  11.563  13.745
 1872SOL     OW 7454   5.202   0.773  14.645
 1872SOL    HW1 7455   5.290   0.739  14.632
 1872SOL    HW2 7456   5.156   0.702  14.691
 1873SOL     OW 7457  11.859   2.148  10.114
 1873SOL    HW1 7458  11.831   2.125  10.202
 1873SOL    HW2 7459  11.938   2.201  10.127
 1874SOL     OW 7460   4.547   7.324   7.981
 1874SOL    HW1 7461   4.569   7.233   7.961
 1874SOL    HW2 7462   4.492   7.319   8.059
 1875SOL     OW 7463   4.306   1.530   2.882
 1875SOL    HW1 7464   4.279   1.617   2.853
 1875SOL    HW2 7465   4.279   1.525   2.974
 1876SOL     OW 7466   8.193   2.805  11.251
 1876SOL    HW1 7467   8.182   2.722  11.297
 1876SOL    HW2 7468   8.239   2.782  11.170
 1877SOL     OW 7469   9.261  13.321   6.741
 1877SOL    HW1 7470   9.232  13.260   6.809
 1877SOL    HW2 7471   9.256  13.407   6.783
 1878SOL     OW 7472   5.314  13.877   5.549
 1878SOL    HW1 7473   5.367  13.861   5.471
 1878SOL    HW2 7474   5.273  13.792   5.567
 1879SOL     OW 7475  10.430   2.805   2.751
 1879SOL    HW1 7476  10.515   2.764   2.762
 1879SOL    HW2 7477  10.396   2.813   2.840
 1880SOL     OW 7478   1.959  13.932   2.719
 1880SOL    HW1 7479   1.879  13.946   2.769
 1880SOL    HW2 7480   1.945  13.979   2.637
 1881SOL     OW 7481   9.381   8.756   2.358
 1881SOL    HW1 7482   9.366   8.809   2.436
 1881SOL    HW2 7483   9.406   8.819   2.290
 1882SOL     OW 7484  13.573   3.000   2.701
 1882SOL    HW1 7485  13.502   2.951   2.660
 1882SOL    HW2 7486  13.580   3.080   2.648
 1883SOL     OW 7487   0.608   6.855   3.305
 1883SOL    HW1 7488   0.623   6.762   3.321
 1883SOL    HW2 7489   0.535   6.858   3.243
 1884SOL     OW 7490   8.344   0.397   2.965
 1884SOL    HW1 7491   8.422   0.399   2.910
 1884SOL    HW2 7492   8.272   0.409   2.903
 1885SOL     OW 7493   3.878   3.842   8.218
 1885SOL    HW1 7494   3.949   3.840   8.282
 1885SOL    HW2 7495   3.853   3.750   8.208
 1886SOL     OW 7496   8.704   1.684   1.033
 1886SOL    HW1 7497   8.752   1.665   1.114
 1886SOL    HW2 7498   8.735   1.770   1.006
 1887SOL     OW 7499   7.751   7.558   2.228
 1887SOL    HW1 7500   7.793   7.535   2.145
 1887SOL    HW2 7501   7.813   7.615   2.272
 1888SOL     OW 7502   0.850   0.243  10.146
 1888SOL    HW1 7503   0.821   0.304  10.213
 1888SOL    HW2 7504   0.866   0.161  10.192
 1889SOL     OW 7505  13.102  11.336   8.348
 1889SOL    HW1 7506  13.048  11.331   8.427
 1889SOL    HW2 7507  13.150  11.419   8.356
 1890SOL     OW 7508  10.339   0.768   5.879
 1890SOL    HW1 7509  10.421   0.817   5.888
 1890SOL    HW2 7510  10.279   0.828   5.835
 1891SOL     OW 7511   7.386   0.426   9.693
 1891SOL    HW1 7512   7.345   0.349   9.733
 1891SOL    HW2 7513   7.329   0.499   9.718
 1892SOL     OW 7514   6.972   1.279   7.629
 1892SOL    HW1 7515   6.934   1.329   7.700
 1892SOL    HW2 7516   6.972   1.339   7.554
 1893SOL     OW 7517   5.162  11.848   7.743
 1893SOL    HW1 7518   5.103  11.775   7.763
 1893SOL    HW2 7519   5.110  11.905   7.685
 1894SOL     OW 7520   4.340   6.320   4.346
 1894SOL    HW1 7521   4.366   6.408   4.320
 1894SOL    HW2 7522   4.416   6.285   4.393
 1895SOL     OW 7523   8.000   1.643   9.962
 1895SOL    HW1 7524   8.083   1.612   9.928
 1895SOL    HW2 7525   8.015   1.735   9.984
 1896SOL     OW 7526  14.771   4.522   7.649
 1896SOL    HW1 7527  14.817   4.603   7.627
 1896SOL    HW2 7528  14.741   4.535   7.739
 1897SOL     OW 7529  11.750   3.911   2.946
 1897SOL    HW1 7530  11.785   3.920   2.857
 1897SOL    HW2 7531  11.657   3.892   2.933
 1898SOL     OW 7532   3.076  11.850  10.715
 1898SOL    HW1 7533   3.096  11.818  10.803
 1898SOL    HW2 7534   3.161  11.862  10.673
 1899SOL     OW 7535  14.725   5.140   0.858
 1899SOL    HW1 7536  14.673   5.164   0.935
 1899SOL    HW2 7537  14.672   5.168   0.783
 1900SOL     OW 7538   7.069   0.463   7.864
 1900SOL    HW1 7539   7.095   0.547   7.901
 1900SOL    HW2 7540   7.138   0.402   7.892
 1901SOL     OW 7541   9.164   0.935   9.810
 1901SOL    HW1 7542   9.221   0.892   9.874
 1901SOL    HW2 7543   9.111   0.863   9.774
 1902SOL     OW 7544  11.633  12.493   4.801
 1902SOL    HW1 7545  11.623  12.573   4.751
 1902SOL    HW2 7546  11.694  12.515   4.872
 1903SOL     OW 7547   9.974   8.705  10.475
 1903SOL    HW1 7548   9.904   8.756  10.517
 1903SOL    HW2 7549  10.027   8.770  10.430
 1904SOL     OW 7550   2.512  13.042   8.980
 1904SOL    HW1 7551   2.452  12.984   8.932
 1904SOL    HW2 7552   2.468  13.057   9.064
 1905SOL     OW 7553   2.803   3.591   7.182
 1905SOL    HW1 7554   2.862   3.666   7.183
 1905SOL    HW2 7555   2.845   3.526   7.238
 1906SOL     OW 7556  14.313   4.560   1.554
 1906SOL    HW1 7557  14.310   4.620   1.628
 1906SOL    HW2 7558  14.358   4.608   1.485
 1907SOL     OW 7559   3.029  12.430   1.166
 1907SOL    HW1 7560   3.062  12.351   1.123
 1907SOL    HW2 7561   2.936  12.433   1.142
 1908SOL     OW 7562   9.303   1.266   0.923
 1908SOL    HW1 7563   9.359   1.200   0.882
 1908SOL    HW2 7564   9.357   1.303   0.993
 1909SOL     OW 7565  11.827   9.967  12.269
 1909SOL    HW1 7566  11.918   9.940  12.279
 1909SOL    HW2 7567  11.779   9.911  12.330
 1910SOL     OW 7568   7.141   8.584  12.951
 1910SOL    HW1 7569   7.067   8.642  12.968
 1910SOL    HW2 7570   7.138   8.566  12.857
 1911SOL     OW 7571   4.259   6.686   7.321
 1911SOL    HW1 7572   4.204   6.735   7.383
 1911SOL    HW2 7573   4.347   6.720   7.335
 1912SOL     OW 7574   7.439  12.932  12.405
 1912SOL    HW1 7575   7.484  12.854  12.372
 1912SOL    HW2 7576   7.359  12.938  12.353
 1913SOL     OW 7577   9.418   0.950   1.948
 1913SOL    HW1 7578   9.341   0.903   1.980
 1913SOL    HW2 7579   9.412   1.036   1.988
 1914SOL     OW 7580   1.454   9.311   3.019
 1914SOL    HW1 7581   1.463   9.406   3.028
 1914SOL    HW2 7582   1.527   9.276   3.069
 1915SOL     OW 7583  10.819   2.817   0.482
 1915SOL    HW1 7584  10.855   2.900   0.450
 1915SOL    HW2 7585  10.858   2.751   0.425
 1916SOL     OW 7586  11.606   4.356   7.568
 1916SOL    HW1 7587  11.656   4.293   7.517
 1916SOL    HW2 7588  11.532   4.306   7.602
 1917SOL     OW 7589   0.292  14.268   1.051
 1917SOL    HW1 7590   0.286  14.309   0.964
 1917SOL    HW2 7591   0.210  14.291   1.094
 1918SOL     OW 7592   0.744   0.157   9.668
 1918SOL    HW1 7593   0.838   0.139   9.677
 1918SOL    HW2 7594   0.724   0.217   9.740
 1919SOL     OW 7595  13.170  11.444  11.899
 1919SOL    HW1 7596  13.090  11.491  11.922
 1919SOL    HW2 7597  13.155  11.354  11.928
 1920SOL     OW 7598   6.091  14.681   6.517
 1920SOL    HW1 7599   6.104  14.624   6.592
 1920SOL    HW2 7600   6.149  14.646   6.450
 1921SOL     OW 7601   1.736   9.489  12.713
 1921SOL    HW1 7602   1.666   9.514  12.774
 1921SOL    HW2 7603   1.815   9.486  12.767
 1922SOL     OW 7604  10.436  11.409   2.410
 1922SOL    HW1 7605  10.390  11.475   2.360
 1922SOL    HW2 7606  10.370  11.342   2.430
 1923SOL     OW 7607   0.811   8.569  10.902
 1923SOL    HW1 7608   0.843   8.481  10.922
 1923SOL    HW2 7609   0.890   8.621  10.887
 1924SOL     OW 7610   9.341   3.416  10.587
 1924SOL    HW1 7611   9.333   3.448  10.677
 1924SOL    HW2 7612   9.376   3.491  10.538
 1925SOL     OW 7613   5.557   5.318  11.158
 1925SOL    HW1 7614   5.651   5.334  11.167
 1925SOL    HW2 7615   5.545   5.228  11.188
 1926SOL     OW 7616   0.800   8.351   8.771
 1926SOL    HW1 7617   0.886   8.316   8.748
 1926SOL    HW2 7618   0.819   8.423   8.831
 1927SOL     OW 7619   0.454   8.645   1.632
 1927SOL    HW1 7620   0.365   8.680   1.624
 1927SOL    HW2 7621   0.508   8.722   1.647
 1928SOL     OW 7622   8.939   3.655   5.107
 1928SOL    HW1 7623   8.864   3.710   5.130
 1928SOL    HW2 7624   9.010   3.717   5.090
 1929SOL     OW 7625  12.838   4.507  10.337
 1929SOL    HW1 7626  12.920   4.554  10.354
 1929SOL    HW2 7627  12.862   4.440  10.272
 1930SOL     OW 7628   7.640  11.980  11.047
 1930SOL    HW1 7629   7.711  12.024  11.094
 1930SOL    HW2 7630   7.685  11.917  10.990
 1931SOL     OW 7631   7.780   6.055   7.869
 1931SOL    HW1 7632   7.801   5.962   7.877
 1931SOL    HW2 7633   7.725   6.060   7.791
 1932SOL     OW 7634   3.304  10.597   3.801
 1932SOL    HW1 7635   3.392  10.633   3.791
 1932SOL    HW2 7636   3.248  10.659   3.755
 1933SOL     OW 7637   1.133   5.494  11.807
 1933SOL    HW1 7638   1.184   5.571  11.831
 1933SOL    HW2 7639   1.180   5.456  11.733
 1934SOL     OW 7640   6.659   5.539  14.337
 1934SOL    HW1 7641   6.661   5.480  14.262
 1934SOL    HW2 7642   6.631   5.483  14.410
 1935SOL     OW 7643  10.025   2.856   5.442
 1935SOL    HW1 7644  10.011   2.932   5.385
 1935SOL    HW2 7645  10.085   2.800   5.393
 1936SOL     OW 7646  14.843  10.990   1.348
 1936SOL    HW1 7647   0.003  11.016   1.263
 1936SOL    HW2 7648  14.860  10.896   1.353
 1937SOL     OW 7649   8.704   1.385  10.107
 1937SOL    HW1 7650   8.708   1.414  10.198
 1937SOL    HW2 7651   8.787   1.413  10.069
 1938SOL     OW 7652   7.042  11.342  13.671
 1938SOL    HW1 7653   7.031  11.250  13.648
 1938SOL    HW2 7654   6.972  11.359  13.735
 1939SOL     OW 7655   0.099   8.369   1.316
 1939SOL    HW1 7656   0.061   8.283   1.331
 1939SOL    HW2 7657   0.036   8.415   1.262
 1940SOL     OW 7658   8.951  13.779   8.975
 1940SOL    HW1 7659   9.043  13.784   9.001
 1940SOL    HW2 7660   8.903  13.817   9.049
 1941SOL     OW 7661   9.951   7.503   5.894
 1941SOL    HW1 7662  10.008   7.434   5.861
 1941SOL    HW2 7663   9.933   7.477   5.985
 1942SOL     OW 7664   8.496  11.693   4.129
 1942SOL    HW1 7665   8.498  11.598   4.120
 1942SOL    HW2 7666   8.562  11.724   4.067
 1943SOL     OW 7667   5.196   0.984  13.590
 1943SOL    HW1 7668   5.164   0.895  13.605
 1943SOL    HW2 7669   5.141   1.038  13.648
 1944SOL     OW 7670  10.627   8.700   3.385
 1944SOL    HW1 7671  10.714   8.675   3.354
 1944SOL    HW2 7672  10.567   8.665   3.318
 1945SOL     OW 7673   0.638   8.629   5.043
 1945SOL    HW1 7674   0.637   8.535   5.022
 1945SOL    HW2 7675   0.646   8.672   4.958
 1946SOL     OW 7676  10.965   5.359  13.980
 1946SOL    HW1 7677  10.918   5.441  13.963
 1946SOL    HW2 7678  10.996   5.331  13.894
 1947SOL     OW 7679  12.572   8.199   3.688
 1947SOL    HW1 7680  12.545   8.120   3.642
 1947SOL    HW2 7681  12.591   8.262   3.618
 1948SOL     OW 7682   4.172   6.395   3.769
 1948SOL    HW1 7683   4.232   6.321   3.772
 1948SOL    HW2 7684   4.198   6.450   3.843
 1949SOL     OW 7685   1.375   1.518  12.528
 1949SOL    HW1 7686   1.415   1.435  12.501
 1949SOL    HW2 7687   1.437   1.584  12.497
 1950SOL     OW 7688   9.529  10.450   6.801
 1950SOL    HW1 7689   9.595  10.426   6.867
 1950SOL    HW2 7690   9.532  10.379   6.737
 1951SOL     OW 7691  14.017   4.493   3.375
 1951SOL    HW1 7692  14.019   4.415   3.320
 1951SOL    HW2 7693  14.006   4.565   3.313
 1952SOL     OW 7694   8.242   6.135  10.286
 1952SOL    HW1 7695   8.237   6.211  10.228
 1952SOL    HW2 7696   8.273   6.170  10.369
 1953SOL     OW 7697  14.613   7.244   3.772
 1953SOL    HW1 7698  14.689   7.212   3.822
 1953SOL    HW2 7699  14.640   7.238   3.681
 1954SOL     OW 7700  12.224   8.927  12.992
 1954SOL    HW1 7701  12.230   8.831  12.991
 1954SOL    HW2 7702  12.312   8.956  13.017
 1955SOL     OW 7703   2.410   9.225  11.273
 1955SOL    HW1 7704   2.361   9.179  11.205
 1955SOL    HW2 7705   2.366   9.309  11.282
 1956SOL     OW 7706   5.439   9.641  14.308
 1956SOL    HW1 7707   5.357   9.600  14.335
 1956SOL    HW2 7708   5.484   9.573  14.258
 1957SOL     OW 7709   5.401   5.608  14.709
 1957SOL    HW1 7710   5.432   5.691  14.671
 1957SOL    HW2 7711   5.306   5.619  14.715
 1958SOL     OW 7712  14.546   8.989   7.451
 1958SOL    HW1 7713  14.573   9.024   7.536
 1958SOL    HW2 7714  14.588   9.046   7.387
 1959SOL     OW 7715  12.839   5.543  12.526
 1959SOL    HW1 7716  12.767   5.486  12.555
 1959SOL    HW2 7717  12.899   5.546  12.600
 1960SOL     OW 7718   5.258  10.721   7.594
 1960SOL    HW1 7719   5.314  10.794   7.569
 1960SOL    HW2 7720   5.317  10.646   7.597
 1961SOL     OW 7721  10.713   4.328  10.288
 1961SOL    HW1 7722  10.779   4.348  10.354
 1961SOL    HW2 7723  10.630   4.339  10.334
 1962SOL     OW 7724  11.784  12.762  13.276
 1962SOL    HW1 7725  11.875  12.733  13.273
 1962SOL    HW2 7726  11.738  12.691  13.322
 1963SOL     OW 7727   2.861   2.040   6.655
 1963SOL    HW1 7728   2.905   2.084   6.582
 1963SOL    HW2 7729   2.932   2.000   6.705
 1964SOL     OW 7730  12.491  12.047   6.904
 1964SOL    HW1 7731  12.551  12.086   6.840
 1964SOL    HW2 7732  12.514  11.954   6.905
 1965SOL     OW 7733   2.793  11.681   5.386
 1965SOL    HW1 7734   2.853  11.657   5.457
 1965SOL    HW2 7735   2.772  11.773   5.401
 1966SOL     OW 7736   7.706   6.250  10.040
 1966SOL    HW1 7737   7.654   6.194   9.982
 1966SOL    HW2 7738   7.657   6.332  10.045
 1967SOL     OW 7739  14.289  12.444   4.997
 1967SOL    HW1 7740  14.227  12.482   5.059
 1967SOL    HW2 7741  14.372  12.486   5.017
 1968SOL     OW 7742   7.960  13.213  14.252
 1968SOL    HW1 7743   7.898  13.213  14.324
 1968SOL    HW2 7744   8.020  13.141  14.273
 1969SOL     OW 7745  11.476  13.542   1.813
 1969SOL    HW1 7746  11.491  13.619   1.757
 1969SOL    HW2 7747  11.432  13.577   1.891
 1970SOL     OW 7748   1.756  10.555  14.329
 1970SOL    HW1 7749   1.800  10.621  14.383
 1970SOL    HW2 7750   1.795  10.565  14.242
 1971SOL     OW 7751  11.644   9.373   4.929
 1971SOL    HW1 7752  11.585   9.408   4.995
 1971SOL    HW2 7753  11.612   9.410   4.846
 1972SOL     OW 7754   8.639  13.757  10.460
 1972SOL    HW1 7755   8.673  13.783  10.545
 1972SOL    HW2 7756   8.638  13.838  10.409
 1973SOL     OW 7757   5.267  11.255  14.591
 1973SOL    HW1 7758   5.349  11.239  14.543
 1973SOL    HW2 7759   5.226  11.169  14.597
 1974SOL     OW 7760   6.130   2.943  10.509
 1974SOL    HW1 7761   6.050   2.989  10.534
 1974SOL    HW2 7762   6.118   2.922  10.416
 1975SOL     OW 7763   5.252   0.305   7.646
 1975SOL    HW1 7764   5.244   0.369   7.576
 1975SOL    HW2 7765   5.340   0.318   7.681
 1976SOL     OW 7766   3.449  14.424  11.361
 1976SOL    HW1 7767   3.503  14.373  11.301
 1976SOL    HW2 7768   3.452  14.513  11.327
 1977SOL     OW 7769   1.072   6.698   5.982
 1977SOL    HW1 7770   1.128   6.764   5.943
 1977SOL    HW2 7771   1.114   6.614   5.962
 1978SOL     OW 7772   7.464  14.542   7.910
 1978SOL    HW1 7773   7.398  14.538   7.979
 1978SOL    HW2 7774   7.425  14.494   7.837
 1979SOL     OW 7775   0.381  13.464  13.102
 1979SOL    HW1 7776   0.456  13.519  13.123
 1979SOL    HW2 7777   0.417  13.393  13.049
 1980SOL     OW 7778   1.742   3.458   7.572
 1980SOL    HW1 7779   1.753   3.363   7.573
 1980SOL    HW2 7780   1.720   3.481   7.663
 1981SOL     OW 7781  13.919  11.927   1.160
 1981SOL    HW1 7782  13.984  11.910   1.092
 1981SOL    HW2 7783  13.933  11.858   1.225
 1982SOL     OW 7784   7.861   2.516   6.295
 1982SOL    HW1 7785   7.947   2.479   6.315
 1982SOL    HW2 7786   7.877   2.577   6.223
 1983SOL     OW 7787   0.933  11.166  12.346
 1983SOL    HW1 7788   0.986  11.234  12.305
 1983SOL    HW2 7789   0.858  11.212  12.382
 1984SOL     OW 7790   8.913  13.009  14.790
 1984SOL    HW1 7791   8.904  12.916  14.770
 1984SOL    HW2 7792   8.824  13.044  14.781
 1985SOL     OW 7793  10.143   0.165   8.823
 1985SOL    HW1 7794  10.175   0.164   8.913
 1985SOL    HW2 7795  10.132   0.258   8.803
 1986SOL     OW 7796  14.487  10.800   8.599
 1986SOL    HW1 7797  14.399  10.823   8.630
 1986SOL    HW2 7798  14.477  10.788   8.505
 1987SOL     OW 7799   8.169   8.528   5.203
 1987SOL    HW1 7800   8.137   8.439   5.217
 1987SOL    HW2 7801   8.094   8.584   5.223
 1988SOL     OW 7802   8.484   5.476   5.348
 1988SOL    HW1 7803   8.407   5.501   5.297
 1988SOL    HW2 7804   8.451   5.469   5.438
 1989SOL     OW 7805  12.214   7.074   0.013
 1989SOL    HW1 7806  12.225   7.169   0.008
 1989SOL    HW2 7807  12.296   7.042   0.050
 1990SOL     OW 7808   4.105   4.536  11.441
 1990SOL    HW1 7809   4.153   4.459  11.408
 1990SOL    HW2 7810   4.109   4.599  11.369
 1991SOL     OW 7811   1.196   9.268   8.634
 1991SOL    HW1 7812   1.172   9.184   8.673
 1991SOL    HW2 7813   1.264   9.302   8.692
 1992SOL     OW 7814   0.253   2.736   8.396
 1992SOL    HW1 7815   0.292   2.757   8.311
 1992SOL    HW2 7816   0.261   2.641   8.403
 1993SOL     OW 7817   4.418   7.375  10.373
 1993SOL    HW1 7818   4.478   7.390  10.300
 1993SOL    HW2 7819   4.395   7.463  10.403
 1994SOL     OW 7820   6.434   9.806   1.654
 1994SOL    HW1 7821   6.439   9.901   1.664
 1994SOL    HW2 7822   6.412   9.773   1.741
 1995SOL     OW 7823   2.039   4.533   9.584
 1995SOL    HW1 7824   2.064   4.480   9.659
 1995SOL    HW2 7825   1.983   4.475   9.532
 1996SOL     OW 7826   5.537  10.635  13.274
 1996SOL    HW1 7827   5.476  10.617  13.202
 1996SOL    HW2 7828   5.499  10.709  13.320
 1997SOL     OW 7829  10.677   9.959   4.752
 1997SOL    HW1 7830  10.752   9.917   4.710
 1997SOL    HW2 7831  10.602   9.933   4.699
 1998SOL     OW 7832  12.965  10.323   9.146
 1998SOL    HW1 7833  12.933  10.287   9.229
 1998SOL    HW2 7834  13.060  10.306   9.147
 1999SOL     OW 7835   1.976   3.231  14.860
 1999SOL    HW1 7836   1.906   3.292   0.009
 1999SOL    HW2 7837   1.949   3.191  14.778
 2000SOL     OW 7838  11.942   4.983  10.052
 2000SOL    HW1 7839  12.019   4.927  10.060
 2000SOL    HW2 7840  11.912   4.969   9.962
 2001SOL     OW 7841   4.779   6.899   6.305
 2001SOL    HW1 7842   4.767   6.804   6.302
 2001SOL    HW2 7843   4.773   6.920   6.398
 2002SOL     OW 7844   2.714   7.020   1.780
 2002SOL    HW1 7845   2.687   7.046   1.868
 2002SOL    HW2 7846   2.761   6.938   1.793
 2003SOL     OW 7847   9.269  11.057  13.360
 2003SOL    HW1 7848   9.252  11.027  13.450
 2003SOL    HW2 7849   9.348  11.112  13.369
 2004SOL     OW 7850  10.800  13.616  14.405
 2004SOL    HW1 7851  10.783  13.560  14.481
 2004SOL    HW2 7852  10.728  13.678  14.404
 2005SOL     OW 7853  14.414   8.943   9.635
 2005SOL    HW1 7854  14.501   8.982   9.638
 2005SOL    HW2 7855  14.396   8.916   9.725
 2006SOL     OW 7856   8.178   0.173   2.304
 2006SOL    HW1 7857   8.211   0.094   2.260
 2006SOL    HW2 7858   8.107   0.204   2.247
 2007SOL     OW 7859  14.460   5.991   8.558
 2007SOL    HW1 7860  14.445   5.958   8.647
 2007SOL    HW2 7861  14.551   6.020   8.558
 2008SOL     OW 7862  13.609  10.062   9.289
 2008SOL    HW1 7863  13.674  10.001   9.324
 2008SOL    HW2 7864  13.550  10.007   9.238
 2009SOL     OW 7865  14.601  12.061   9.138
 2009SOL    HW1 7866  14.647  12.026   9.062
 2009SOL    HW2 7867  14.568  11.984   9.184
 2010SOL     OW 7868   8.889   8.272  14.206
 2010SOL    HW1 7869   8.868   8.359  14.171
 2010SOL    HW2 7870   8.943   8.289  14.283
 2011SOL     OW 7871  10.281   3.207   3.990
 2011SOL    HW1 7872  10.300   3.231   4.081
 2011SOL    HW2 7873  10.344   3.257   3.938
 2012SOL     OW 7874   5.918  14.477   4.644
 2012SOL    HW1 7875   5.979  14.546   4.616
 2012SOL    HW2 7876   5.847  14.480   4.580
 2013SOL     OW 7877   0.580  14.210  12.939
 2013SOL    HW1 7878   0.513  14.271  12.970
 2013SOL    HW2 7879   0.583  14.223  12.845
 2014SOL     OW 7880   6.762  10.984  12.403
 2014SOL    HW1 7881   6.733  11.009  12.316
 2014SOL    HW2 7882   6.706  11.034  12.462
 2015SOL     OW 7883  13.965   0.779   6.665
 2015SOL    HW1 7884  14.043   0.764   6.612
 2015SOL    HW2 7885  13.947   0.694   6.705
 2016SOL     OW 7886   7.436   3.480   7.623
 2016SOL    HW1 7887   7.393   3.550   7.673
 2016SOL    HW2 7888   7.500   3.444   7.684
 2017SOL     OW 7889  10.044   0.584   3.319
 2017SOL    HW1 7890  10.085   0.657   3.365
 2017SOL    HW2 7891  10.041   0.612   3.227
 2018SOL     OW 7892   4.528   9.207   4.079
 2018SOL    HW1 7893   4.433   9.192   4.079
 2018SOL    HW2 7894   4.539   9.294   4.040
 2019SOL     OW 7895   1.173   4.142  14.363
 2019SOL    HW1 7896   1.166   4.232  14.394
 2019SOL    HW2 7897   1.263   4.136  14.329
 2020SOL     OW 7898   6.443   5.590  12.099
 2020SOL    HW1 7899   6.387   5.666  12.116
 2020SOL    HW2 7900   6.490   5.577  12.181
 2021SOL     OW 7901   1.471   0.945  12.138
 2021SOL    HW1 7902   1.504   0.940  12.227
 2021SOL    HW2 7903   1.486   1.036  12.111
 2022SOL     OW 7904   7.365   1.273   3.118
 2022SOL    HW1 7905   7.329   1.309   3.037
 2022SOL    HW2 7906   7.318   1.319   3.188
 2023SOL     OW 7907   1.495   7.050   5.714
 2023SOL    HW1 7908   1.577   7.036   5.666
 2023SOL    HW2 7909   1.429   7.059   5.646
 2024SOL     OW 7910   5.486   2.184   0.988
 2024SOL    HW1 7911   5.454   2.196   0.899
 2024SOL    HW2 7912   5.407   2.170   1.041
 2025SOL     OW 7913   9.531   0.483   7.319
 2025SOL    HW1 7914   9.596   0.547   7.290
 2025SOL    HW2 7915   9.486   0.526   7.391
 2026SOL     OW 7916   6.244   4.209   9.907
 2026SOL    HW1 7917   6.285   4.252   9.832
 2026SOL    HW2 7918   6.212   4.281   9.961
 2027SOL     OW 7919  12.065   1.418  12.191
 2027SOL    HW1 7920  12.112   1.377  12.264
 2027SOL    HW2 7921  12.116   1.498  12.172
 2028SOL     OW 7922  12.892  10.644   8.135
 2028SOL    HW1 7923  12.865  10.730   8.104
 2028SOL    HW2 7924  12.886  10.650   8.231
 2029SOL     OW 7925  12.647  13.835  11.769
 2029SOL    HW1 7926  12.601  13.785  11.836
 2029SOL    HW2 7927  12.655  13.923  11.805
 2030SOL     OW 7928  10.362  13.677   8.131
 2030SOL    HW1 7929  10.419  13.696   8.056
 2030SOL    HW2 7930  10.409  13.609   8.179
 2031SOL     OW 7931  10.508  12.832  12.643
 2031SOL    HW1 7932  10.441  12.764  12.635
 2031SOL    HW2 7933  10.484  12.898  12.579
 2032SOL     OW 7934   4.242   5.272   5.609
 2032SOL    HW1 7935   4.149   5.286   5.625
 2032SOL    HW2 7936   4.245   5.206   5.540
 2033SOL     OW 7937  13.352  14.458   8.818
 2033SOL    HW1 7938  13.327  14.418   8.734
 2033SOL    HW2 7939  13.447  14.447   8.822
 2034SOL     OW 7940   1.128   0.341   2.795
 2034SOL    HW1 7941   1.177   0.343   2.712
 2034SOL    HW2 7942   1.077   0.422   2.794
 2035SOL     OW 7943   7.157   3.777   5.357
 2035SOL    HW1 7944   7.134   3.870   5.364
 2035SOL    HW2 7945   7.200   3.757   5.440
 2036SOL     OW 7946  13.124  13.759  14.152
 2036SOL    HW1 7947  13.207  13.723  14.120
 2036SOL    HW2 7948  13.061  13.689  14.140
 2037SOL     OW 7949   2.231  10.689   7.218
 2037SOL    HW1 7950   2.151  10.683   7.269
 2037SOL    HW2 7951   2.266  10.600   7.218
 2038SOL     OW 7952  11.705   3.607  12.874
 2038SOL    HW1 7953  11.727   3.572  12.960
 2038SOL    HW2 7954  11.773   3.575  12.816
 2039SOL     OW 7955   4.388   0.705   4.810
 2039SOL    HW1 7956   4.447   0.690   4.884
 2039SOL    HW2 7957   4.370   0.799   4.812
 2040SOL     OW 7958   0.551   0.924   9.043
 2040SOL    HW1 7959   0.599   0.965   9.115
 2040SOL    HW2 7960   0.501   0.996   9.004
 2041SOL     OW 7961  12.790   1.308  11.270
 2041SOL    HW1 7962  12.813   1.401  11.267
 2041SOL    HW2 7963  12.697   1.306  11.248
 2042SOL     OW 7964   1.215   8.385   0.644
 2042SOL    HW1 7965   1.225   8.304   0.694
 2042SOL    HW2 7966   1.271   8.448   0.688
 2043SOL     OW 7967   9.271  14.074   6.287
 2043SOL    HW1 7968   9.223  13.998   6.253
 2043SOL    HW2 7969   9.363  14.055   6.267
 2044SOL     OW 7970  11.294   1.361  12.421
 2044SOL    HW1 7971  11.281   1.385  12.513
 2044SOL    HW2 7972  11.352   1.430  12.387
 2045SOL     OW 7973   8.843  10.947   3.415
 2045SOL    HW1 7974   8.905  10.874   3.415
 2045SOL    HW2 7975   8.818  10.958   3.323
 2046SOL     OW 7976  11.885  13.341   8.432
 2046SOL    HW1 7977  11.944  13.266   8.426
 2046SOL    HW2 7978  11.831  13.336   8.353
 2047SOL     OW 7979  13.151   9.139   4.742
 2047SOL    HW1 7980  13.108   9.223   4.752
 2047SOL    HW2 7981  13.227   9.157   4.686
 2048SOL     OW 7982  10.003   4.072   3.702
 2048SOL    HW1 7983   9.959   4.016   3.766
 2048SOL    HW2 7984   9.935   4.095   3.639
 2049SOL     OW 7985  14.798   8.511  10.705
 2049SOL    HW1 7986  14.728   8.502  10.641
 2049SOL    HW2 7987   0.004   8.518  10.653
 2050SOL     OW 7988   8.627  11.527  14.251
 2050SOL    HW1 7989   8.630  11.590  14.323
 2050SOL    HW2 7990   8.656  11.575  14.174
 2051SOL     OW 7991  11.372  12.640  11.854
 2051SOL    HW1 7992  11.406  12.555  11.824
 2051SOL    HW2 7993  11.280  12.623  11.874
 2052SOL     OW 7994  10.160   2.260   6.140
 2052SOL    HW1 7995  10.130   2.345   6.107
 2052SOL    HW2 7996  10.092   2.199   6.115
 2053SOL     OW 7997   5.308   7.902   0.977
 2053SOL    HW1 7998   5.353   7.821   0.951
 2053SOL    HW2 7999   5.227   7.901   0.926
 2054SOL     OW 8000  10.930  13.556   9.395
 2054SOL    HW1 8001  10.892  13.629   9.345
 2054SOL    HW2 8002  11.022  13.580   9.406
 2055SOL     OW 8003   1.417   4.792   9.773
 2055SOL    HW1 8004   1.436   4.725   9.707
 2055SOL    HW2 8005   1.416   4.874   9.724
 2056SOL     OW 8006   5.807   1.063   4.691
 2056SOL    HW1 8007   5.783   1.066   4.784
 2056SOL    HW2 8008   5.725   1.048   4.646
 2057SOL     OW 8009   9.423   3.479   5.101
 2057SOL    HW1 8010   9.508   3.518   5.123
 2057SOL    HW2 8011   9.374   3.482   5.183
 2058SOL     OW 8012   9.190   0.094  12.295
 2058SOL    HW1 8013   9.261   0.061  12.349
 2058SOL    HW2 8014   9.160   0.173  12.340
 2059SOL     OW 8015   7.271   6.080   0.901
 2059SOL    HW1 8016   7.324   6.159   0.909
 2059SOL    HW2 8017   7.185   6.105   0.933
 2060SOL     OW 8018   1.456   7.708   4.902
 2060SOL    HW1 8019   1.501   7.633   4.941
 2060SOL    HW2 8020   1.475   7.781   4.961
 2061SOL     OW 8021   6.394   6.362  12.224
 2061SOL    HW1 8022   6.405   6.377  12.130
 2061SOL    HW2 8023   6.483   6.359  12.258
 2062SOL     OW 8024   0.668   3.066   9.225
 2062SOL    HW1 8025   0.676   3.135   9.291
 2062SOL    HW2 8026   0.662   3.114   9.142
 2063SOL     OW 8027   1.039  10.827   5.424
 2063SOL    HW1 8028   1.079  10.900   5.471
 2063SOL    HW2 8029   0.963  10.866   5.380
 2064SOL     OW 8030   3.106   2.797  13.540
 2064SOL    HW1 8031   3.016   2.824  13.525
 2064SOL    HW2 8032   3.145   2.867  13.593
 2065SOL     OW 8033  11.206  14.119   1.997
 2065SOL    HW1 8034  11.134  14.153   2.050
 2065SOL    HW2 8035  11.184  14.145   1.907
 2066SOL     OW 8036  11.448   6.837  10.924
 2066SOL    HW1 8037  11.459   6.838  10.829
 2066SOL    HW2 8038  11.413   6.749  10.943
 2067SOL     OW 8039   8.801   2.130  10.218
 2067SOL    HW1 8040   8.748   2.090  10.149
 2067SOL    HW2 8041   8.769   2.220  10.223
 2068SOL     OW 8042  10.099   2.596   7.306
 2068SOL    HW1 8043  10.182   2.643   7.300
 2068SOL    HW2 8044  10.073   2.580   7.216
 2069SOL     OW 8045   9.966  10.687   2.499
 2069SOL    HW1 8046  10.013  10.606   2.520
 2069SOL    HW2 8047   9.876  10.670   2.528
 2070SOL     OW 8048   7.685  10.574   0.803
 2070SOL    HW1 8049   7.666  10.488   0.841
 2070SOL    HW2 8050   7.602  10.621   0.807
 2071SOL     OW 8051  10.338   5.002   3.012
 2071SOL    HW1 8052  10.396   5.075   2.991
 2071SOL    HW2 8053  10.396   4.926   3.016
 2072SOL     OW 8054   7.885  13.984  14.158
 2072SOL    HW1 8055   7.976  13.956  14.169
 2072SOL    HW2 8056   7.876  13.998  14.063
 2073SOL     OW 8057   1.627   8.389   3.778
 2073SOL    HW1 8058   1.616   8.444   3.855
 2073SOL    HW2 8059   1.631   8.451   3.705
 2074SOL     OW 8060   5.146  12.568   7.293
 2074SOL    HW1 8061   5.062  12.611   7.309
 2074SOL    HW2 8062   5.195  12.630   7.239
 2075SOL     OW 8063   3.149   3.416  12.340
 2075SOL    HW1 8064   3.058   3.435  12.318
 2075SOL    HW2 8065   3.197   3.428  12.259
 2076SOL     OW 8066   5.122   7.529   2.276
 2076SOL    HW1 8067   5.164   7.556   2.194
 2076SOL    HW2 8068   5.028   7.539   2.260
 2077SOL     OW 8069  14.807   9.768   2.285
 2077SOL    HW1 8070  14.804   9.754   2.379
 2077SOL    HW2 8071  14.777   9.859   2.273
 2078SOL     OW 8072   8.610   1.891  10.569
 2078SOL    HW1 8073   8.611   1.928  10.658
 2078SOL    HW2 8074   8.610   1.968  10.512
 2079SOL     OW 8075   0.616   7.324   2.040
 2079SOL    HW1 8076   0.597   7.232   2.024
 2079SOL    HW2 8077   0.702   7.338   2.001
 2080SOL     OW 8078   8.923   2.328   0.425
 2080SOL    HW1 8079   8.845   2.340   0.371
 2080SOL    HW2 8080   8.992   2.303   0.362
 2081SOL     OW 8081   9.527   0.920  11.931
 2081SOL    HW1 8082   9.499   1.008  11.906
 2081SOL    HW2 8083   9.466   0.894  12.000
 2082SOL     OW 8084   7.038  11.972   6.307
 2082SOL    HW1 8085   7.020  11.886   6.345
 2082SOL    HW2 8086   6.990  11.972   6.224
 2083SOL     OW 8087   4.564   6.061   4.162
 2083SOL    HW1 8088   4.650   6.101   4.177
 2083SOL    HW2 8089   4.535   6.097   4.078
 2084SOL     OW 8090   7.328   7.024  10.557
 2084SOL    HW1 8091   7.302   7.107  10.597
 2084SOL    HW2 8092   7.283   7.022  10.473
 2085SOL     OW 8093   0.063  10.938  10.805
 2085SOL    HW1 8094  14.869  10.984  10.755
 2085SOL    HW2 8095   0.134  10.925  10.742
 2086SOL     OW 8096   5.804   4.031   6.557
 2086SOL    HW1 8097   5.733   4.039   6.494
 2086SOL    HW2 8098   5.764   4.047   6.642
 2087SOL     OW 8099   5.009   5.202  12.895
 2087SOL    HW1 8100   5.014   5.245  12.809
 2087SOL    HW2 8101   5.085   5.144  12.898
 2088SOL     OW 8102  11.474   5.980   0.823
 2088SOL    HW1 8103  11.434   5.984   0.910
 2088SOL    HW2 8104  11.402   5.999   0.763
 2089SOL     OW 8105  14.173  10.714   5.543
 2089SOL    HW1 8106  14.250  10.718   5.487
 2089SOL    HW2 8107  14.128  10.634   5.516
 2090SOL     OW 8108  11.693   9.341   0.020
 2090SOL    HW1 8109  11.659   9.420  14.851
 2090SOL    HW2 8110  11.644   9.337   0.103
 2091SOL     OW 8111  13.127   8.573   4.304
 2091SOL    HW1 8112  13.190   8.609   4.241
 2091SOL    HW2 8113  13.042   8.602   4.273
 2092SOL     OW 8114   7.227   9.243   8.348
 2092SOL    HW1 8115   7.195   9.231   8.259
 2092SOL    HW2 8116   7.278   9.164   8.366
 2093SOL     OW 8117   5.145  13.854   6.905
 2093SOL    HW1 8118   5.187  13.933   6.937
 2093SOL    HW2 8119   5.157  13.858   6.810
 2094SOL     OW 8120   4.248  10.964   1.662
 2094SOL    HW1 8121   4.176  10.985   1.721
 2094SOL    HW2 8122   4.247  10.869   1.654
 2095SOL     OW 8123   8.319   7.078  14.668
 2095SOL    HW1 8124   8.262   7.002  14.657
 2095SOL    HW2 8125   8.306   7.129  14.588
 2096SOL     OW 8126   0.888  11.216   8.414
 2096SOL    HW1 8127   0.952  11.240   8.481
 2096SOL    HW2 8128   0.931  11.235   8.331
 2097SOL     OW 8129   6.096   8.138   6.707
 2097SOL    HW1 8130   6.180   8.114   6.746
 2097SOL    HW2 8131   6.033   8.127   6.779
 2098SOL     OW 8132  12.097  12.724  14.050
 2098SOL    HW1 8133  12.057  12.793  13.997
 2098SOL    HW2 8134  12.116  12.654  13.988
 2099SOL     OW 8135   5.348   7.509  13.998
 2099SOL    HW1 8136   5.354   7.590  14.047
 2099SOL    HW2 8137   5.385   7.442  14.056
 2100SOL     OW 8138   7.562   3.335   2.187
 2100SOL    HW1 8139   7.580   3.334   2.093
 2100SOL    HW2 8140   7.557   3.429   2.209
 2101SOL     OW 8141   3.097   6.265  12.270
 2101SOL    HW1 8142   3.038   6.260  12.345
 2101SOL    HW2 8143   3.173   6.213  12.296
 2102SOL     OW 8144   3.695   5.644  12.849
 2102SOL    HW1 8145   3.645   5.574  12.890
 2102SOL    HW2 8146   3.777   5.648  12.899
 2103SOL     OW 8147   4.469   9.830   4.770
 2103SOL    HW1 8148   4.453   9.864   4.682
 2103SOL    HW2 8149   4.421   9.748   4.773
 2104SOL     OW 8150  13.596   2.845   4.253
 2104SOL    HW1 8151  13.589   2.753   4.276
 2104SOL    HW2 8152  13.683   2.871   4.285
 2105SOL     OW 8153  14.481  14.059   7.145
 2105SOL    HW1 8154  14.454  14.035   7.234
 2105SOL    HW2 8155  14.400  14.092   7.104
 2106SOL     OW 8156  10.446   6.515   5.272
 2106SOL    HW1 8157  10.389   6.448   5.311
 2106SOL    HW2 8158  10.501   6.545   5.344
 2107SOL     OW 8159  13.566   2.349   2.753
 2107SOL    HW1 8160  13.611   2.352   2.669
 2107SOL    HW2 8161  13.517   2.266   2.751
 2108SOL     OW 8162  11.110  10.735   6.008
 2108SOL    HW1 8163  11.090  10.643   5.990
 2108SOL    HW2 8164  11.081  10.782   5.929
 2109SOL     OW 8165  10.520  13.562   6.325
 2109SOL    HW1 8166  10.430  13.531   6.326
 2109SOL    HW2 8167  10.518  13.644   6.375
 2110SOL     OW 8168   3.646  11.772  12.395
 2110SOL    HW1 8169   3.636  11.693  12.342
 2110SOL    HW2 8170   3.592  11.838  12.353
 2111SOL     OW 8171  11.243  13.375  13.743
 2111SOL    HW1 8172  11.280  13.463  13.730
 2111SOL    HW2 8173  11.296  13.338  13.814
 2112SOL     OW 8174  11.507   4.598   4.256
 2112SOL    HW1 8175  11.412   4.586   4.255
 2112SOL    HW2 8176  11.533   4.567   4.343
 2113SOL     OW 8177   1.107   2.808  13.093
 2113SOL    HW1 8178   1.095   2.872  13.023
 2113SOL    HW2 8179   1.019   2.791  13.126
 2114SOL     OW 8180  14.873   6.726   6.060
 2114SOL    HW1 8181  14.829   6.641   6.069
 2114SOL    HW2 8182  14.803   6.785   6.030
 2115SOL     OW 8183   7.130  14.834  10.392
 2115SOL    HW1 8184   7.096  14.745  10.400
 2115SOL    HW2 8185   7.178  14.849  10.474
 2116SOL     OW 8186   3.189  13.458  14.077
 2116SOL    HW1 8187   3.121  13.523  14.065
 2116SOL    HW2 8188   3.194  13.411  13.994
 2117SOL     OW 8189  11.769   8.862   3.550
 2117SOL    HW1 8190  11.764   8.868   3.454
 2117SOL    HW2 8191  11.780   8.768   3.567
 2118SOL     OW 8192   8.386   2.919  14.356
 2118SOL    HW1 8193   8.384   2.985  14.287
 2118SOL    HW2 8194   8.393   2.969  14.437
 2119SOL     OW 8195   6.133   8.913  10.776
 2119SOL    HW1 8196   6.153   8.836  10.722
 2119SOL    HW2 8197   6.191   8.905  10.851
 2120SOL     OW 8198   2.213   9.863  12.563
 2120SOL    HW1 8199   2.277   9.934  12.557
 2120SOL    HW2 8200   2.256   9.789  12.521
 2121SOL     OW 8201   3.914   6.570   4.989
 2121SOL    HW1 8202   3.933   6.483   5.024
 2121SOL    HW2 8203   3.982   6.584   4.923
 2122SOL     OW 8204   5.305  13.427   6.083
 2122SOL    HW1 8205   5.372  13.399   6.144
 2122SOL    HW2 8206   5.241  13.356   6.084
 2123SOL     OW 8207  13.533   0.007   7.043
 2123SOL    HW1 8208  13.451  14.856   7.000
 2123SOL    HW2 8209  13.574   0.068   6.982
 2124SOL     OW 8210   0.939   2.644   2.501
 2124SOL    HW1 8211   1.005   2.713   2.492
 2124SOL    HW2 8212   0.930   2.609   2.412
 2125SOL     OW 8213   1.831   4.712   8.727
 2125SOL    HW1 8214   1.789   4.697   8.811
 2125SOL    HW2 8215   1.835   4.807   8.718
 2126SOL     OW 8216   3.602  14.170   7.340
 2126SOL    HW1 8217   3.625  14.124   7.260
 2126SOL    HW2 8218   3.609  14.104   7.409
 2127SOL     OW 8219   1.190  11.661   9.313
 2127SOL    HW1 8220   1.107  11.684   9.355
 2127SOL    HW2 8221   1.253  11.658   9.385
 2128SOL     OW 8222  12.895  12.279   5.603
 2128SOL    HW1 8223  12.915  12.248   5.515
 2128SOL    HW2 8224  12.848  12.206   5.644
 2129SOL     OW 8225  10.434   0.841   2.113
 2129SOL    HW1 8226  10.407   0.931   2.093
 2129SOL    HW2 8227  10.489   0.816   2.039
 2130SOL     OW 8228   5.646  12.190   7.241
 2130SOL    HW1 8229   5.676  12.225   7.157
 2130SOL    HW2 8230   5.566  12.239   7.260
 2131SOL     OW 8231  10.142  14.667   6.196
 2131SOL    HW1 8232  10.150  14.588   6.142
 2131SOL    HW2 8233  10.053  14.663   6.231
 2132SOL     OW 8234   7.969   3.029   5.520
 2132SOL    HW1 8235   8.000   2.942   5.498
 2132SOL    HW2 8236   7.908   3.016   5.593
 2133SOL     OW 8237   0.227  10.253   4.063
 2133SOL    HW1 8238   0.314  10.273   4.031
 2133SOL    HW2 8239   0.190  10.337   4.088
 2134SOL     OW 8240   0.595   8.460   8.622
 2134SOL    HW1 8241   0.513   8.423   8.589
 2134SOL    HW2 8242   0.646   8.383   8.650
 2135SOL     OW 8243  11.926   0.757   8.943
 2135SOL    HW1 8244  11.851   0.799   8.986
 2135SOL    HW2 8245  11.907   0.663   8.947
 2136SOL     OW 8246   8.399   7.070   9.995
 2136SOL    HW1 8247   8.359   7.139  10.048
 2136SOL    HW2 8248   8.327   7.013   9.971
 2137SOL     OW 8249   9.808   9.005   3.029
 2137SOL    HW1 8250   9.729   9.043   3.068
 2137SOL    HW2 8251   9.775   8.930   2.978
 2138SOL     OW 8252   3.858   8.595   6.459
 2138SOL    HW1 8253   3.912   8.670   6.434
 2138SOL    HW2 8254   3.900   8.560   6.538
 2139SOL     OW 8255   5.644   7.860   7.338
 2139SOL    HW1 8256   5.739   7.860   7.328
 2139SOL    HW2 8257   5.622   7.767   7.351
 2140SOL     OW 8258   7.485   1.299   6.553
 2140SOL    HW1 8259   7.402   1.332   6.518
 2140SOL    HW2 8260   7.472   1.296   6.647
 2141SOL     OW 8261   4.855  13.942  12.191
 2141SOL    HW1 8262   4.850  13.883  12.267
 2141SOL    HW2 8263   4.823  14.026  12.224
 2142SOL     OW 8264  13.767  11.821   5.174
 2142SOL    HW1 8265  13.736  11.797   5.261
 2142SOL    HW2 8266  13.862  11.825   5.182
 2143SOL     OW 8267   1.783   2.175   3.607
 2143SOL    HW1 8268   1.691   2.200   3.616
 2143SOL    HW2 8269   1.784   2.081   3.622
 2144SOL     OW 8270   4.839   4.065  11.300
 2144SOL    HW1 8271   4.745   4.083  11.307
 2144SOL    HW2 8272   4.881   4.147  11.328
 2145SOL     OW 8273   3.810   5.131   5.202
 2145SOL    HW1 8274   3.811   5.036   5.216
 2145SOL    HW2 8275   3.738   5.146   5.141
 2146SOL     OW 8276  14.407   6.336   2.720
 2146SOL    HW1 8277  14.481   6.376   2.765
 2146SOL    HW2 8278  14.340   6.326   2.788
 2147SOL     OW 8279   4.857   0.959  10.799
 2147SOL    HW1 8280   4.824   1.032  10.850
 2147SOL    HW2 8281   4.934   0.994  10.754
 2148SOL     OW 8282  13.558   1.909   3.745
 2148SOL    HW1 8283  13.592   1.998   3.739
 2148SOL    HW2 8284  13.636   1.853   3.747
 2149SOL     OW 8285   1.778   5.999   3.989
 2149SOL    HW1 8286   1.712   6.064   4.014
 2149SOL    HW2 8287   1.763   5.926   4.049
 2150SOL     OW 8288   9.901   4.597   8.339
 2150SOL    HW1 8289   9.987   4.609   8.379
 2150SOL    HW2 8290   9.919   4.572   8.249
 2151SOL     OW 8291  14.727   3.427   0.975
 2151SOL    HW1 8292  14.764   3.401   0.891
 2151SOL    HW2 8293  14.781   3.500   1.005
 2152SOL     OW 8294   0.911   8.386   5.786
 2152SOL    HW1 8295   0.936   8.395   5.878
 2152SOL    HW2 8296   0.879   8.473   5.761
 2153SOL     OW 8297  14.631   0.301   8.729
 2153SOL    HW1 8298  14.591   0.378   8.687
 2153SOL    HW2 8299  14.655   0.331   8.817
 2154SOL     OW 8300   6.444   9.470  11.633
 2154SOL    HW1 8301   6.356   9.503  11.653
 2154SOL    HW2 8302   6.430   9.403  11.566
 2155SOL     OW 8303  12.933   2.076  11.545
 2155SOL    HW1 8304  12.883   2.105  11.468
 2155SOL    HW2 8305  13.024   2.091  11.521
 2156SOL     OW 8306   3.501   4.283  14.255
 2156SOL    HW1 8307   3.574   4.325  14.301
 2156SOL    HW2 8308   3.430   4.348  14.258
 2157SOL     OW 8309   1.197   9.742   2.099
 2157SOL    HW1 8310   1.256   9.813   2.125
 2157SOL    HW2 8311   1.243   9.662   2.124
 2158SOL     OW 8312   3.773  12.138   4.677
 2158SOL    HW1 8313   3.754  12.121   4.769
 2158SOL    HW2 8314   3.770  12.052   4.636
 2159SOL     OW 8315   4.381   5.448  12.139
 2159SOL    HW1 8316   4.304   5.488  12.098
 2159SOL    HW2 8317   4.455   5.498  12.105
 2160SOL     OW 8318   6.130   5.158  14.248
 2160SOL    HW1 8319   6.219   5.124  14.259
 2160SOL    HW2 8320   6.074   5.081  14.258
 2161SOL     OW 8321   8.995   4.087   5.125
 2161SOL    HW1 8322   9.012   4.112   5.216
 2161SOL    HW2 8323   9.041   4.004   5.114
 2162SOL     OW 8324   0.534   4.109   1.610
 2162SOL    HW1 8325   0.468   4.060   1.659
 2162SOL    HW2 8326   0.484   4.175   1.562
 2163SOL     OW 8327   6.640  10.724  13.699
 2163SOL    HW1 8328   6.590  10.673  13.635
 2163SOL    HW2 8329   6.575  10.776  13.745
 2164SOL     OW 8330  12.630  10.296   0.945
 2164SOL    HW1 8331  12.581  10.213   0.946
 2164SOL    HW2 8332  12.715  10.274   0.984
 2165SOL     OW 8333  11.776   0.981   3.647
 2165SOL    HW1 8334  11.791   1.073   3.672
 2165SOL    HW2 8335  11.692   0.959   3.686
 2166SOL     OW 8336  14.120   6.702   6.117
 2166SOL    HW1 8337  14.110   6.773   6.053
 2166SOL    HW2 8338  14.032   6.691   6.154
 2167SOL     OW 8339  12.281   8.946   4.538
 2167SOL    HW1 8340  12.329   8.887   4.481
 2167SOL    HW2 8341  12.290   8.908   4.626
 2168SOL     OW 8342   7.547   5.110   3.715
 2168SOL    HW1 8343   7.462   5.073   3.738
 2168SOL    HW2 8344   7.585   5.138   3.798
 2169SOL     OW 8345   5.411  10.941   3.542
 2169SOL    HW1 8346   5.404  10.847   3.560
 2169SOL    HW2 8347   5.343  10.957   3.476
 2170SOL     OW 8348   6.191   1.392   4.910
 2170SOL    HW1 8349   6.200   1.345   4.826
 2170SOL    HW2 8350   6.101   1.376   4.937
 2171SOL     OW 8351   3.345   4.051  11.041
 2171SOL    HW1 8352   3.340   4.124  10.978
 2171SOL    HW2 8353   3.335   4.092  11.126
 2172SOL     OW 8354   2.140  10.668   1.029
 2172SOL    HW1 8355   2.220  10.715   1.055
 2172SOL    HW2 8356   2.077  10.738   1.010
 2173SOL     OW 8357   6.811   4.863  11.643
 2173SOL    HW1 8358   6.904   4.851  11.660
 2173SOL    HW2 8359   6.807   4.927  11.573
 2174SOL     OW 8360   4.637  14.806  13.043
 2174SOL    HW1 8361   4.556  14.819  12.994
 2174SOL    HW2 8362   4.665  14.718  13.019
 2175SOL     OW 8363   2.754   0.982  12.935
 2175SOL    HW1 8364   2.746   0.906  12.993
 2175SOL    HW2 8365   2.795   0.947  12.856
 2176SOL     OW 8366   8.075   1.132   1.057
 2176SOL    HW1 8367   8.158   1.178   1.042
 2176SOL    HW2 8368   8.101   1.043   1.081
 2177SOL     OW 8369  11.334  10.489  10.270
 2177SOL    HW1 8370  11.282  10.525  10.199
 2177SOL    HW2 8371  11.425  10.497  10.239
 2178SOL     OW 8372   0.635   2.049   6.707
 2178SOL    HW1 8373   0.695   2.002   6.649
 2178SOL    HW2 8374   0.564   1.987   6.723
 2179SOL     OW 8375   1.246  14.094   9.446
 2179SOL    HW1 8376   1.312  14.162   9.457
 2179SOL    HW2 8377   1.248  14.073   9.353
 2180SOL     OW 8378   1.592   5.607   3.956
 2180SOL    HW1 8379   1.664   5.616   4.017
 2180SOL    HW2 8380   1.545   5.529   3.985
 2181SOL     OW 8381   6.442   5.481   1.717
 2181SOL    HW1 8382   6.413   5.570   1.698
 2181SOL    HW2 8383   6.510   5.463   1.652
 2182SOL     OW 8384   5.903  13.774   9.085
 2182SOL    HW1 8385   5.990  13.737   9.067
 2182SOL    HW2 8386   5.842  13.710   9.049
 2183SOL     OW 8387   1.533  14.744   9.537
 2183SOL    HW1 8388   1.604  14.682   9.558
 2183SOL    HW2 8389   1.542  14.814   9.602
 2184SOL     OW 8390  12.066  10.859  11.724
 2184SOL    HW1 8391  11.980  10.890  11.755
 2184SOL    HW2 8392  12.066  10.766  11.743
 2185SOL     OW 8393  13.207   2.928  11.848
 2185SOL    HW1 8394  13.224   2.837  11.873
 2185SOL    HW2 8395  13.176   2.970  11.929
 2186SOL     OW 8396   9.702  10.078  14.335
 2186SOL    HW1 8397   9.682  10.038  14.250
 2186SOL    HW2 8398   9.759  10.152  14.313
 2187SOL     OW 8399   1.084  14.524   7.611
 2187SOL    HW1 8400   1.077  14.560   7.699
 2187SOL    HW2 8401   1.026  14.578   7.558
 2188SOL     OW 8402   0.995   0.746  11.557
 2188SOL    HW1 8403   1.087   0.719  11.548
 2188SOL    HW2 8404   0.948   0.694  11.492
 2189SOL     OW 8405   2.413   1.361   3.526
 2189SOL    HW1 8406   2.343   1.322   3.579
 2189SOL    HW2 8407   2.460   1.417   3.586
 2190SOL     OW 8408   9.027   3.475  12.558
 2190SOL    HW1 8409   9.105   3.462  12.611
 2190SOL    HW2 8410   9.056   3.461  12.468
 2191SOL     OW 8411  14.854   2.915   4.238
 2191SOL    HW1 8412  14.833   2.880   4.151
 2191SOL    HW2 8413   0.072   2.892   4.251
 2192SOL     OW 8414   7.151   7.872   3.679
 2192SOL    HW1 8415   7.226   7.928   3.698
 2192SOL    HW2 8416   7.123   7.841   3.765
 2193SOL     OW 8417  13.978   2.613   5.002
 2193SOL    HW1 8418  13.967   2.519   5.014
 2193SOL    HW2 8419  13.985   2.647   5.091
 2194SOL     OW 8420   2.249   6.281   9.085
 2194SOL    HW1 8421   2.270   6.374   9.076
 2194SOL    HW2 8422   2.324   6.244   9.132
 2195SOL     OW 8423  14.366   3.579   6.365
 2195SOL    HW1 8424  14.352   3.595   6.459
 2195SOL    HW2 8425  14.457   3.602   6.350
 2196SOL     OW 8426  12.560   6.639   5.456
 2196SOL    HW1 8427  12.656   6.635   5.466
 2196SOL    HW2 8428  12.527   6.644   5.546
 2197SOL     OW 8429   9.210   0.241   4.749
 2197SOL    HW1 8430   9.115   0.243   4.736
 2197SOL    HW2 8431   9.225   0.290   4.829
 2198SOL     OW 8432   9.407   6.893   4.656
 2198SOL    HW1 8433   9.325   6.931   4.690
 2198SOL    HW2 8434   9.381   6.806   4.625
 2199SOL     OW 8435   8.554  10.891  10.374
 2199SOL    HW1 8436   8.625  10.848  10.422
 2199SOL    HW2 8437   8.581  10.886  10.283
 2200SOL     OW 8438   7.497   0.758   6.219
 2200SOL    HW1 8439   7.451   0.783   6.299
 2200SOL    HW2 8440   7.492   0.836   6.164
 2201SOL     OW 8441   8.253   9.927   3.563
 2201SOL    HW1 8442   8.329   9.979   3.591
 2201SOL    HW2 8443   8.284   9.875   3.490
 2202SOL     OW 8444   3.125   3.890   0.884
 2202SOL    HW1 8445   3.138   3.945   0.962
 2202SOL    HW2 8446   3.193   3.823   0.891
 2203SOL     OW 8447   3.463   4.793  13.581
 2203SOL    HW1 8448   3.455   4.860  13.649
 2203SOL    HW2 8449   3.552   4.758  13.591
 2204SOL     OW 8450   5.516   7.859   9.585
 2204SOL    HW1 8451   5.458   7.786   9.610
 2204SOL    HW2 8452   5.552   7.833   9.500
 2205SOL     OW 8453  12.537  11.291   6.852
 2205SOL    HW1 8454  12.574  11.248   6.775
 2205SOL    HW2 8455  12.552  11.229   6.923
 2206SOL     OW 8456   6.374   9.110   7.217
 2206SOL    HW1 8457   6.306   9.052   7.181
 2206SOL    HW2 8458   6.456   9.065   7.197
 2207SOL     OW 8459  10.966   2.830   9.064
 2207SOL    HW1 8460  11.006   2.879   8.992
 2207SOL    HW2 8461  10.874   2.822   9.040
 2208SOL     OW 8462  10.228  14.437   3.685
 2208SOL    HW1 8463  10.144  14.390   3.692
 2208SOL    HW2 8464  10.294  14.372   3.706
 2209SOL     OW 8465   0.748   6.738   9.540
 2209SOL    HW1 8466   0.767   6.821   9.497
 2209SOL    HW2 8467   0.833   6.695   9.548
 2210SOL     OW 8468   1.143   9.251   1.493
 2210SOL    HW1 8469   1.065   9.238   1.548
 2210SOL    HW2 8470   1.132   9.189   1.421
 2211SOL     OW 8471  10.151   9.952   0.674
 2211SOL    HW1 8472  10.230   9.919   0.718
 2211SOL    HW2 8473  10.184  10.015   0.610
 2212SOL     OW 8474   8.036   3.547  10.664
 2212SOL    HW1 8475   8.011   3.459  10.693
 2212SOL    HW2 8476   7.989   3.606  10.723
 2213SOL     OW 8477  11.186   8.816  14.054
 2213SOL    HW1 8478  11.097   8.843  14.030
 2213SOL    HW2 8479  11.180   8.793  14.146
 2214SOL     OW 8480   1.084   0.035   6.270
 2214SOL    HW1 8481   1.169   0.069   6.300
 2214SOL    HW2 8482   1.021   0.069   6.334
 2215SOL     OW 8483  11.554   6.852   3.764
 2215SOL    HW1 8484  11.649   6.861   3.754
 2215SOL    HW2 8485  11.533   6.902   3.843
 2216SOL     OW 8486   6.784   0.592  10.512
 2216SOL    HW1 8487   6.831   0.543  10.580
 2216SOL    HW2 8488   6.764   0.676  10.553
 2217SOL     OW 8489  10.315  13.697  11.552
 2217SOL    HW1 8490  10.314  13.731  11.462
 2217SOL    HW2 8491  10.223  13.681  11.573
 2218SOL     OW 8492  10.939  13.398   4.819
 2218SOL    HW1 8493  10.934  13.308   4.852
 2218SOL    HW2 8494  10.849  13.422   4.801
 2219SOL     OW 8495   5.458   0.396   2.029
 2219SOL    HW1 8496   5.535   0.339   2.025
 2219SOL    HW2 8497   5.482   0.472   1.976
 2220SOL     OW 8498   1.917   9.781   2.390
 2220SOL    HW1 8499   1.944   9.811   2.303
 2220SOL    HW2 8500   1.841   9.834   2.411
 2221SOL     OW 8501   5.611   4.203   1.738
 2221SOL    HW1 8502   5.553   4.180   1.665
 2221SOL    HW2 8503   5.700   4.194   1.702
 2222SOL     OW 8504  13.466  14.349  13.006
 2222SOL    HW1 8505  13.375  14.365  13.031
 2222SOL    HW2 8506  13.475  14.392  12.921
 2223SOL     OW 8507   2.204  12.227   7.977
 2223SOL    HW1 8508   2.265  12.170   7.931
 2223SOL    HW2 8509   2.139  12.167   8.015
 2224SOL     OW 8510   2.348   3.184   9.627
 2224SOL    HW1 8511   2.366   3.140   9.544
 2224SOL    HW2 8512   2.253   3.200   9.625
 2225SOL     OW 8513   5.510   7.476   0.509
 2225SOL    HW1 8514   5.507   7.570   0.526
 2225SOL    HW2 8515   5.450   7.438   0.573
 2226SOL     OW 8516   2.315  10.440  10.857
 2226SOL    HW1 8517   2.332  10.513  10.796
 2226SOL    HW2 8518   2.230  10.406  10.829
 2227SOL     OW 8519   7.916  12.307   5.098
 2227SOL    HW1 8520   7.995  12.334   5.144
 2227SOL    HW2 8521   7.850  12.373   5.120
 2228SOL     OW 8522   8.479   4.076  14.785
 2228SOL    HW1 8523   8.458   4.049  14.874
 2228SOL    HW2 8524   8.479   3.995  14.734
 2229SOL     OW 8525   7.287  12.225   3.937
 2229SOL    HW1 8526   7.270  12.315   3.908
 2229SOL    HW2 8527   7.217  12.173   3.896
 2230SOL     OW 8528   8.543  10.457   2.293
 2230SOL    HW1 8529   8.551  10.546   2.326
 2230SOL    HW2 8530   8.449  10.438   2.296
 2231SOL     OW 8531   2.825   0.867   5.182
 2231SOL    HW1 8532   2.754   0.890   5.121
 2231SOL    HW2 8533   2.803   0.779   5.212
 2232SOL     OW 8534  14.626  11.294   7.552
 2232SOL    HW1 8535  14.548  11.331   7.511
 2232SOL    HW2 8536  14.593  11.224   7.609
 2233SOL     OW 8537   8.928   2.524  10.336
 2233SOL    HW1 8538   8.982   2.448  10.314
 2233SOL    HW2 8539   8.961   2.595  10.281
 2234SOL     OW 8540   3.067  12.812  11.641
 2234SOL    HW1 8541   2.999  12.757  11.682
 2234SOL    HW2 8542   3.118  12.750  11.589
 2235SOL     OW 8543  10.438   0.524   1.442
 2235SOL    HW1 8544  10.508   0.461   1.464
 2235SOL    HW2 8545  10.468   0.565   1.361
 2236SOL     OW 8546   8.103  14.394   1.229
 2236SOL    HW1 8547   8.048  14.333   1.278
 2236SOL    HW2 8548   8.190  14.385   1.268
 2237SOL     OW 8549  13.294  13.168   1.225
 2237SOL    HW1 8550  13.224  13.200   1.168
 2237SOL    HW2 8551  13.253  13.097   1.276
 2238SOL     OW 8552   8.759   2.946   1.360
 2238SOL    HW1 8553   8.671   2.940   1.398
 2238SOL    HW2 8554   8.745   2.981   1.272
 2239SOL     OW 8555   8.748   8.497  13.766
 2239SOL    HW1 8556   8.828   8.537  13.801
 2239SOL    HW2 8557   8.678   8.556  13.793
 2240SOL     OW 8558   9.938  14.626  10.093
 2240SOL    HW1 8559  10.003  14.568  10.053
 2240SOL    HW2 8560   9.861  14.619  10.037
 2241SOL     OW 8561   2.104   2.084   2.957
 2241SOL    HW1 8562   2.168   2.076   2.886
 2241SOL    HW2 8563   2.019   2.088   2.912
 2242SOL     OW 8564   0.838   4.695   0.749
 2242SOL    HW1 8565   0.837   4.609   0.789
 2242SOL    HW2 8566   0.828   4.756   0.822
 2243SOL     OW 8567  14.150   0.358   6.682
 2243SOL    HW1 8568  14.083   0.414   6.722
 2243SOL    HW2 8569  14.233   0.403   6.702
 2244SOL     OW 8570   0.531  10.986  10.749
 2244SOL    HW1 8571   0.612  10.951  10.784
 2244SOL    HW2 8572   0.559  11.045  10.679
 2245SOL     OW 8573   7.444   1.433   6.195
 2245SOL    HW1 8574   7.473   1.484   6.270
 2245SOL    HW2 8575   7.389   1.494   6.145
 2246SOL     OW 8576  14.408  12.453  10.501
 2246SOL    HW1 8577  14.382  12.394  10.571
 2246SOL    HW2 8578  14.328  12.500  10.478
 2247SOL     OW 8579   6.914  11.941  12.843
 2247SOL    HW1 8580   6.958  11.945  12.928
 2247SOL    HW2 8581   6.824  11.914  12.864
 2248SOL     OW 8582  12.580   8.712  12.839
 2248SOL    HW1 8583  12.592   8.795  12.884
 2248SOL    HW2 8584  12.574   8.647  12.909
 2249SOL     OW 8585  11.928   4.845  13.898
 2249SOL    HW1 8586  11.996   4.784  13.872
 2249SOL    HW2 8587  11.870   4.852  13.822
 2250SOL     OW 8588  12.527  10.750   9.103
 2250SOL    HW1 8589  12.535  10.775   9.011
 2250SOL    HW2 8590  12.551  10.657   9.105
 2251SOL     OW 8591  11.928   5.916   2.018
 2251SOL    HW1 8592  12.010   5.903   1.970
 2251SOL    HW2 8593  11.932   5.853   2.090
 2252SOL     OW 8594   2.356  10.735   3.649
 2252SOL    HW1 8595   2.261  10.743   3.647
 2252SOL    HW2 8596   2.382  10.769   3.735
 2253SOL     OW 8597   5.182  14.430  11.701
 2253SOL    HW1 8598   5.154  14.352  11.653
 2253SOL    HW2 8599   5.276  14.418  11.713
 2254SOL     OW 8600  14.454  11.850   8.054
 2254SOL    HW1 8601  14.537  11.861   8.008
 2254SOL    HW2 8602  14.467  11.773   8.110
 2255SOL     OW 8603   3.537   5.334   4.131
 2255SOL    HW1 8604   3.496   5.298   4.052
 2255SOL    HW2 8605   3.466   5.378   4.177
 2256SOL     OW 8606   0.747  13.946   4.574
 2256SOL    HW1 8607   0.744  13.933   4.479
 2256SOL    HW2 8608   0.838  13.928   4.597
 2257SOL     OW 8609   3.723   5.904  12.162
 2257SOL    HW1 8610   3.694   5.852  12.237
 2257SOL    HW2 8611   3.738   5.992  12.197
 2258SOL     OW 8612   6.475   2.101   0.175
 2258SOL    HW1 8613   6.499   2.111   0.083
 2258SOL    HW2 8614   6.418   2.024   0.177
 2259SOL     OW 8615   5.664  14.019   2.088
 2259SOL    HW1 8616   5.655  14.113   2.103
 2259SOL    HW2 8617   5.577  13.983   2.108
 2260SOL     OW 8618   3.737   8.012  13.682
 2260SOL    HW1 8619   3.808   8.060  13.724
 2260SOL    HW2 8620   3.657   8.043  13.725
 2261SOL     OW 8621   0.719   2.699   3.719
 2261SOL    HW1 8622   0.692   2.790   3.709
 2261SOL    HW2 8623   0.680   2.671   3.801
 2262SOL     OW 8624   6.404   5.942  10.834
 2262SOL    HW1 8625   6.392   5.945  10.739
 2262SOL    HW2 8626   6.445   6.026  10.855
 2263SOL     OW 8627  14.862   8.428   2.770
 2263SOL    HW1 8628   0.067   8.402   2.722
 2263SOL    HW2 8629  14.790   8.400   2.713
 2264SOL     OW 8630  12.264  14.628   0.965
 2264SOL    HW1 8631  12.240  14.697   1.026
 2264SOL    HW2 8632  12.222  14.549   0.999
 2265SOL     OW 8633   7.411   9.524   1.978
 2265SOL    HW1 8634   7.344   9.574   2.025
 2265SOL    HW2 8635   7.472   9.591   1.946
 2266SOL     OW 8636  13.299  13.879   1.686
 2266SOL    HW1 8637  13.274  13.828   1.762
 2266SOL    HW2 8638  13.233  13.948   1.680
 2267SOL     OW 8639   8.572   1.533   6.604
 2267SOL    HW1 8640   8.538   1.554   6.517
 2267SOL    HW2 8641   8.504   1.480   6.644
 2268SOL     OW 8642  11.223   8.941   9.376
 2268SOL    HW1 8643  11.181   8.910   9.296
 2268SOL    HW2 8644  11.306   8.978   9.347
 2269SOL     OW 8645   6.215  10.118  11.903
 2269SOL    HW1 8646   6.122  10.095  11.898
 2269SOL    HW2 8647   6.227  10.186  11.837
 2270SOL     OW 8648   2.837  14.195   3.318
 2270SOL    HW1 8649   2.916  14.175   3.369
 2270SOL    HW2 8650   2.870  14.213   3.230
 2271SOL     OW 8651  11.654   9.844   4.032
 2271SOL    HW1 8652  11.672   9.760   4.074
 2271SOL    HW2 8653  11.734   9.895   4.044
 2272SOL     OW 8654  13.346  11.742  11.079
 2272SOL    HW1 8655  13.290  11.714  11.152
 2272SOL    HW2 8656  13.422  11.782  11.121
 2273SOL     OW 8657   3.851   8.863  10.755
 2273SOL    HW1 8658   3.827   8.916  10.831
 2273SOL    HW2 8659   3.781   8.880  10.692
 2274SOL     OW 8660   7.078   9.775   1.928
 2274SOL    HW1 8661   6.994   9.809   1.958
 2274SOL    HW2 8662   7.061   9.684   1.904
 2275SOL     OW 8663  12.146  11.076   4.850
 2275SOL    HW1 8664  12.230  11.047   4.885
 2275SOL    HW2 8665  12.158  11.075   4.755
 2276SOL     OW 8666  10.458   8.047   0.418
 2276SOL    HW1 8667  10.383   8.104   0.436
 2276SOL    HW2 8668  10.509   8.094   0.352
 2277SOL     OW 8669   5.972   9.641   8.543
 2277SOL    HW1 8670   6.059   9.648   8.583
 2277SOL    HW2 8671   5.944   9.551   8.564
 2278SOL     OW 8672  11.347   9.730   9.424
 2278SOL    HW1 8673  11.284   9.743   9.496
 2278SOL    HW2 8674  11.296   9.744   9.345
 2279SOL     OW 8675  12.002   4.408   3.743
 2279SOL    HW1 8676  11.959   4.323   3.732
 2279SOL    HW2 8677  12.060   4.395   3.819
 2280SOL     OW 8678   9.283  12.293  14.466
 2280SOL    HW1 8679   9.356  12.232  14.455
 2280SOL    HW2 8680   9.223  12.249  14.525
 2281SOL     OW 8681   4.894  13.665   9.823
 2281SOL    HW1 8682   4.983  13.644   9.851
 2281SOL    HW2 8683   4.885  13.759   9.840
 2282SOL     OW 8684   5.621   3.278  11.275
 2282SOL    HW1 8685   5.692   3.219  11.301
 2282SOL    HW2 8686   5.666   3.353  11.236
 2283SOL     OW 8687   7.822   7.841  11.229
 2283SOL    HW1 8688   7.814   7.796  11.145
 2283SOL    HW2 8689   7.909   7.817  11.261
 2284SOL     OW 8690  12.885   2.115  10.523
 2284SOL    HW1 8691  12.885   2.021  10.539
 2284SOL    HW2 8692  12.962   2.130  10.469
 2285SOL     OW 8693   5.342   0.306  10.730
 2285SOL    HW1 8694   5.400   0.306  10.806
 2285SOL    HW2 8695   5.328   0.399  10.711
 2286SOL     OW 8696  13.827  12.441  11.763
 2286SOL    HW1 8697  13.793  12.394  11.839
 2286SOL    HW2 8698  13.918  12.412  11.756
 2287SOL     OW 8699  13.521  14.045  10.239
 2287SOL    HW1 8700  13.493  13.955  10.254
 2287SOL    HW2 8701  13.608  14.050  10.277
 2288SOL     OW 8702   9.102  12.021   0.982
 2288SOL    HW1 8703   9.155  11.971   1.044
 2288SOL    HW2 8704   9.016  12.027   1.023
 2289SOL     OW 8705   6.196   9.665   8.004
 2289SOL    HW1 8706   6.243   9.593   7.962
 2289SOL    HW2 8707   6.265   9.719   8.044
 2290SOL     OW 8708   8.365  10.710   5.107
 2290SOL    HW1 8709   8.409  10.632   5.073
 2290SOL    HW2 8710   8.295  10.727   5.043
 2291SOL     OW 8711   3.876   2.185   8.510
 2291SOL    HW1 8712   3.956   2.223   8.547
 2291SOL    HW2 8713   3.892   2.182   8.416
 2292SOL     OW 8714   3.423   2.209   6.372
 2292SOL    HW1 8715   3.453   2.240   6.457
 2292SOL    HW2 8716   3.502   2.204   6.318
 2293SOL     OW 8717  11.672   4.453  10.607
 2293SOL    HW1 8718  11.579   4.473  10.615
 2293SOL    HW2 8719  11.701   4.503  10.530
 2294SOL     OW 8720  12.644   5.419   4.991
 2294SOL    HW1 8721  12.709   5.477   4.954
 2294SOL    HW2 8722  12.574   5.415   4.925
 2295SOL     OW 8723   0.858   3.802   2.503
 2295SOL    HW1 8724   0.857   3.712   2.470
 2295SOL    HW2 8725   0.827   3.794   2.594
 2296SOL     OW 8726  10.932   5.637   8.684
 2296SOL    HW1 8727  11.027   5.653   8.681
 2296SOL    HW2 8728  10.914   5.587   8.604
 2297SOL     OW 8729   6.040   6.664   6.517
 2297SOL    HW1 8730   6.116   6.646   6.572
 2297SOL    HW2 8731   6.019   6.580   6.476
 2298SOL     OW 8732   7.829  10.917   7.983
 2298SOL    HW1 8733   7.921  10.892   7.971
 2298SOL    HW2 8734   7.825  10.951   8.072
 2299SOL     OW 8735   1.391   6.063   0.200
 2299SOL    HW1 8736   1.407   6.118   0.124
 2299SOL    HW2 8737   1.306   6.021   0.181
 2300SOL     OW 8738   5.880  14.277  13.362
 2300SOL    HW1 8739   5.915  14.357  13.323
 2300SOL    HW2 8740   5.941  14.208  13.335
 2301SOL     OW 8741  11.042  12.083   9.809
 2301SOL    HW1 8742  10.987  12.135   9.751
 2301SOL    HW2 8743  11.126  12.077   9.764
 2302SOL     OW 8744   9.926  12.813   7.431
 2302SOL    HW1 8745   9.881  12.884   7.476
 2302SOL    HW2 8746   9.968  12.855   7.356
 2303SOL     OW 8747   6.369   6.289  14.545
 2303SOL    HW1 8748   6.372   6.370  14.495
 2303SOL    HW2 8749   6.411   6.310  14.628
 2304SOL     OW 8750   2.220   3.862   0.779
 2304SOL    HW1 8751   2.236   3.955   0.767
 2304SOL    HW2 8752   2.204   3.852   0.873
 2305SOL     OW 8753   3.186   4.349   2.281
 2305SOL    HW1 8754   3.221   4.420   2.335
 2305SOL    HW2 8755   3.093   4.347   2.301
 2306SOL     OW 8756  14.745  12.275   0.242
 2306SOL    HW1 8757  14.673  12.242   0.296
 2306SOL    HW2 8758  14.805  12.315   0.305
 2307SOL     OW 8759   4.860   2.334   4.120
 2307SOL    HW1 8760   4.911   2.410   4.151
 2307SOL    HW2 8761   4.772   2.350   4.153
 2308SOL     OW 8762  12.783   4.499   5.532
 2308SOL    HW1 8763  12.777   4.408   5.559
 2308SOL    HW2 8764  12.818   4.545   5.608
 2309SOL     OW 8765   9.863   9.067   0.506
 2309SOL    HW1 8766   9.925   9.090   0.576
 2309SOL    HW2 8767   9.874   9.135   0.441
 2310SOL     OW 8768   8.112   4.074  10.058
 2310SOL    HW1 8769   8.137   3.997  10.006
 2310SOL    HW2 8770   8.122   4.045  10.149
 2311SOL     OW 8771   2.975   4.880  13.499
 2311SOL    HW1 8772   2.994   4.787  13.483
 2311SOL    HW2 8773   3.026   4.902  13.577
 2312SOL     OW 8774   8.447   8.158   7.677
 2312SOL    HW1 8775   8.378   8.101   7.710
 2312SOL    HW2 8776   8.402   8.220   7.619
 2313SOL     OW 8777   9.731  13.895   6.824
 2313SOL    HW1 8778   9.771  13.828   6.768
 2313SOL    HW2 8779   9.763  13.978   6.789
 2314SOL     OW 8780   7.886   8.869   9.545
 2314SOL    HW1 8781   7.957   8.864   9.481
 2314SOL    HW2 8782   7.852   8.958   9.536
 2315SOL     OW 8783  14.022   9.883   7.018
 2315SOL    HW1 8784  13.934   9.892   6.983
 2315SOL    HW2 8785  14.072   9.953   6.975
 2316SOL     OW 8786  11.032   7.308  12.971
 2316SOL    HW1 8787  11.068   7.301  12.882
 2316SOL    HW2 8788  10.937   7.308  12.959
 2317SOL     OW 8789   9.765   4.544  12.917
 2317SOL    HW1 8790   9.673   4.560  12.898
 2317SOL    HW2 8791   9.788   4.468  12.863
 2318SOL     OW 8792   8.134   2.817   4.997
 2318SOL    HW1 8793   8.062   2.760   5.023
 2318SOL    HW2 8794   8.205   2.795   5.057
 2319SOL     OW 8795   5.558  13.952  14.070
 2319SOL    HW1 8796   5.592  13.895  14.139
 2319SOL    HW2 8797   5.612  14.031  14.075
 2320SOL     OW 8798   6.171   0.497   6.881
 2320SOL    HW1 8799   6.248   0.441   6.889
 2320SOL    HW2 8800   6.168   0.521   6.788
 2321SOL     OW 8801   6.841   6.333  10.356
 2321SOL    HW1 8802   6.897   6.409  10.371
 2321SOL    HW2 8803   6.756   6.357  10.393
 2322SOL     OW 8804   9.625   1.895   2.573
 2322SOL    HW1 8805   9.608   1.904   2.667
 2322SOL    HW2 8806   9.651   1.804   2.562
 2323SOL     OW 8807   2.107   5.905  12.885
 2323SOL    HW1 8808   2.024   5.925  12.928
 2323SOL    HW2 8809   2.136   5.989  12.850
 2324SOL     OW 8810  12.959  11.892   3.656
 2324SOL    HW1 8811  12.888  11.829   3.668
 2324SOL    HW2 8812  13.039  11.843   3.678
 2325SOL     OW 8813   4.815   0.751  13.751
 2325SOL    HW1 8814   4.866   0.777  13.828
 2325SOL    HW2 8815   4.759   0.826  13.733
 2326SOL     OW 8816   3.676   7.522  10.706
 2326SOL    HW1 8817   3.718   7.553  10.786
 2326SOL    HW2 8818   3.718   7.571  10.636
 2327SOL     OW 8819   8.566   4.142  13.956
 2327SOL    HW1 8820   8.601   4.119  13.870
 2327SOL    HW2 8821   8.643   4.162  14.009
 2328SOL     OW 8822  11.519   7.583   9.204
 2328SOL    HW1 8823  11.512   7.546   9.116
 2328SOL    HW2 8824  11.570   7.663   9.193
 2329SOL     OW 8825   3.029   4.680  10.889
 2329SOL    HW1 8826   3.099   4.713  10.946
 2329SOL    HW2 8827   2.968   4.637  10.949
 2330SOL     OW 8828   0.551  11.104  12.206
 2330SOL    HW1 8829   0.619  11.073  12.266
 2330SOL    HW2 8830   0.498  11.026  12.188
 2331SOL     OW 8831  10.169  12.026   2.987
 2331SOL    HW1 8832  10.102  12.089   2.961
 2331SOL    HW2 8833  10.157  12.016   3.082
 2332SOL     OW 8834  14.820   4.585  12.235
 2332SOL    HW1 8835  14.785   4.598  12.146
 2332SOL    HW2 8836  14.745   4.602  12.292
 2333SOL     OW 8837   3.650   3.926   0.531
 2333SOL    HW1 8838   3.565   3.926   0.573
 2333SOL    HW2 8839   3.712   3.905   0.601
 2334SOL     OW 8840  10.856   1.606   5.299
 2334SOL    HW1 8841  10.838   1.698   5.317
 2334SOL    HW2 8842  10.952   1.601   5.296
 2335SOL     OW 8843  14.579   6.976  10.531
 2335SOL    HW1 8844  14.546   7.066  10.527
 2335SOL    HW2 8845  14.578   6.954  10.624
 2336SOL     OW 8846  11.049   9.884  12.882
 2336SOL    HW1 8847  10.999   9.932  12.816
 2336SOL    HW2 8848  11.130   9.859  12.838
 2337SOL     OW 8849   3.182  14.224  10.490
 2337SOL    HW1 8850   3.165  14.281  10.565
 2337SOL    HW2 8851   3.177  14.282  10.414
 2338SOL     OW 8852  13.332  13.815   6.451
 2338SOL    HW1 8853  13.398  13.827   6.519
 2338SOL    HW2 8854  13.249  13.810   6.498
 2339SOL     OW 8855   6.033   6.415  14.545
 2339SOL    HW1 8856   6.007   6.328  14.576
 2339SOL    HW2 8857   5.984   6.427  14.464
 2340SOL     OW 8858  12.777  12.606  12.849
 2340SOL    HW1 8859  12.764  12.695  12.880
 2340SOL    HW2 8860  12.771  12.612  12.753
 2341SOL     OW 8861  12.455   5.770   3.761
 2341SOL    HW1 8862  12.402   5.806   3.831
 2341SOL    HW2 8863  12.487   5.686   3.796
 2342SOL     OW 8864   2.287   3.926   3.513
 2342SOL    HW1 8865   2.260   3.855   3.571
 2342SOL    HW2 8866   2.273   3.892   3.425
 2343SOL     OW 8867   6.684   1.489   6.423
 2343SOL    HW1 8868   6.703   1.396   6.412
 2343SOL    HW2 8869   6.737   1.533   6.355
 2344SOL     OW 8870   6.931   9.942   4.833
 2344SOL    HW1 8871   6.854   9.999   4.836
 2344SOL    HW2 8872   6.937   9.916   4.741
 2345SOL     OW 8873   3.641   1.866  11.100
 2345SOL    HW1 8874   3.559   1.838  11.141
 2345SOL    HW2 8875   3.676   1.932  11.159
 2346SOL     OW 8876   6.682  14.034   6.664
 2346SOL    HW1 8877   6.679  13.949   6.708
 2346SOL    HW2 8878   6.600  14.037   6.613
 2347SOL     OW 8879   0.160  10.601  12.596
 2347SOL    HW1 8880   0.256  10.601  12.591
 2347SOL    HW2 8881   0.136  10.509  12.594
 2348SOL     OW 8882  14.833  10.742   9.638
 2348SOL    HW1 8883   0.041  10.715   9.597
 2348SOL    HW2 8884  14.851  10.828   9.676
 2349SOL     OW 8885   6.689   8.579  11.783
 2349SOL    HW1 8886   6.709   8.578  11.689
 2349SOL    HW2 8887   6.725   8.497  11.816
 2350SOL     OW 8888   2.690   1.117   1.272
 2350SOL    HW1 8889   2.642   1.152   1.197
 2350SOL    HW2 8890   2.777   1.156   1.265
 2351SOL     OW 8891  13.071  11.880   4.271
 2351SOL    HW1 8892  13.077  11.834   4.354
 2351SOL    HW2 8893  13.135  11.952   4.279
 2352SOL     OW 8894   5.318   3.307   2.393
 2352SOL    HW1 8895   5.333   3.252   2.469
 2352SOL    HW2 8896   5.401   3.308   2.346
 2353SOL     OW 8897   0.354   0.392   9.972
 2353SOL    HW1 8898   0.292   0.368   9.903
 2353SOL    HW2 8899   0.365   0.312  10.023
 2354SOL     OW 8900   9.675   3.219  11.452
 2354SOL    HW1 8901   9.616   3.227  11.377
 2354SOL    HW2 8902   9.726   3.300  11.451
 2355SOL     OW 8903   7.709   2.190   3.153
 2355SOL    HW1 8904   7.699   2.121   3.087
 2355SOL    HW2 8905   7.620   2.221   3.170
 2356SOL     OW 8906   6.549   3.423   1.941
 2356SOL    HW1 8907   6.556   3.358   2.011
 2356SOL    HW2 8908   6.506   3.498   1.983
 2357SOL     OW 8909   6.297  10.604  10.966
 2357SOL    HW1 8910   6.346  10.657  10.903
 2357SOL    HW2 8911   6.351  10.605  11.045
 2358SOL     OW 8912  13.201   7.734   4.938
 2358SOL    HW1 8913  13.106   7.723   4.948
 2358SOL    HW2 8914  13.224   7.806   4.995
 2359SOL     OW 8915   1.096  13.253  13.322
 2359SOL    HW1 8916   1.011  13.233  13.360
 2359SOL    HW2 8917   1.119  13.339  13.356
 2360SOL     OW 8918   9.908  13.053   4.949
 2360SOL    HW1 8919   9.931  13.000   4.873
 2360SOL    HW2 8920   9.950  13.137   4.932
 2361SOL     OW 8921   0.059   6.525  12.374
 2361SOL    HW1 8922   0.117   6.598  12.394
 2361SOL    HW2 8923  14.858   6.536  12.431
 2362SOL     OW 8924   9.154   9.908  12.921
 2362SOL    HW1 8925   9.142   9.897  13.015
 2362SOL    HW2 8926   9.095   9.844  12.881
 2363SOL     OW 8927  13.135   6.776   8.220
 2363SOL    HW1 8928  13.137   6.834   8.296
 2363SOL    HW2 8929  13.209   6.804   8.166
 2364SOL     OW 8930   4.513  10.054   9.941
 2364SOL    HW1 8931   4.590  10.045   9.998
 2364SOL    HW2 8932   4.540  10.118   9.875
 2365SOL     OW 8933   2.823   5.591   0.677
 2365SOL    HW1 8934   2.777   5.510   0.698
 2365SOL    HW2 8935   2.846   5.583   0.584
 2366SOL     OW 8936   8.753   8.151   3.895
 2366SOL    HW1 8937   8.762   8.065   3.938
 2366SOL    HW2 8938   8.661   8.154   3.867
 2367SOL     OW 8939  11.696   4.777   2.629
 2367SOL    HW1 8940  11.639   4.764   2.553
 2367SOL    HW2 8941  11.720   4.688   2.656
 2368SOL     OW 8942  13.957  10.128   8.396
 2368SOL    HW1 8943  13.979  10.105   8.486
 2368SOL    HW2 8944  14.041  10.133   8.351
 2369SOL     OW 8945   4.649  14.033  12.775
 2369SOL    HW1 8946   4.653  14.060  12.683
 2369SOL    HW2 8947   4.612  13.945  12.772
 2370SOL     OW 8948   9.463   2.960   0.142
 2370SOL    HW1 8949   9.436   2.940   0.231
 2370SOL    HW2 8950   9.387   2.937   0.088
 2371SOL     OW 8951  11.009   5.889   8.042
 2371SOL    HW1 8952  10.941   5.947   8.074
 2371SOL    HW2 8953  11.055   5.941   7.975
 2372SOL     OW 8954  10.587   2.839   6.422
 2372SOL    HW1 8955  10.605   2.925   6.459
 2372SOL    HW2 8956  10.527   2.798   6.485
 2373SOL     OW 8957  13.256  14.615  12.511
 2373SOL    HW1 8958  13.213  14.693  12.547
 2373SOL    HW2 8959  13.185  14.553  12.496
 2374SOL     OW 8960   1.105   3.825  12.799
 2374SOL    HW1 8961   1.159   3.889  12.753
 2374SOL    HW2 8962   1.028   3.813  12.743
 2375SOL     OW 8963   0.028   6.307  10.610
 2375SOL    HW1 8964  14.866   6.394  10.628
 2375SOL    HW2 8965   0.119   6.324  10.584
 2376SOL     OW 8966   2.719   2.310  10.650
 2376SOL    HW1 8967   2.781   2.253  10.695
 2376SOL    HW2 8968   2.755   2.319  10.562
 2377SOL     OW 8969   5.951   6.497  14.274
 2377SOL    HW1 8970   6.025   6.557  14.271
 2377SOL    HW2 8971   5.875   6.553  14.293
 2378SOL     OW 8972   8.992   5.519  14.830
 2378SOL    HW1 8973   8.901   5.492  14.842
 2378SOL    HW2 8974   9.035   5.498   0.038
 2379SOL     OW 8975   5.224   6.787   5.597
 2379SOL    HW1 8976   5.130   6.773   5.580
 2379SOL    HW2 8977   5.227   6.824   5.684
 2380SOL     OW 8978  12.866   7.440   7.952
 2380SOL    HW1 8979  12.886   7.383   7.878
 2380SOL    HW2 8980  12.813   7.385   8.011
 2381SOL     OW 8981   9.640  11.463   5.686
 2381SOL    HW1 8982   9.727  11.501   5.687
 2381SOL    HW2 8983   9.608  11.474   5.776
 2382SOL     OW 8984   1.992  11.259   6.750
 2382SOL    HW1 8985   1.964  11.307   6.672
 2382SOL    HW2 8986   2.013  11.172   6.718
 2383SOL     OW 8987   9.669   9.416   4.177
 2383SOL    HW1 8988   9.733   9.345   4.187
 2383SOL    HW2 8989   9.609   9.385   4.109
 2384SOL     OW 8990   8.054  11.453   2.063
 2384SOL    HW1 8991   8.121  11.519   2.046
 2384SOL    HW2 8992   8.103  11.377   2.094
 2385SOL     OW 8993   5.497   8.473  13.398
 2385SOL    HW1 8994   5.524   8.475  13.307
 2385SOL    HW2 8995   5.518   8.384  13.428
 2386SOL     OW 8996  10.631   2.270  14.320
 2386SOL    HW1 8997  10.610   2.323  14.397
 2386SOL    HW2 8998  10.704   2.315  14.278
 2387SOL     OW 8999   5.323  11.897  11.532
 2387SOL    HW1 9000   5.270  11.970  11.564
 2387SOL    HW2 9001   5.360  11.857  11.611
 2388SOL     OW 9002   8.158  11.393   1.570
 2388SOL    HW1 9003   8.247  11.359   1.578
 2388SOL    HW2 9004   8.130  11.410   1.660
 2389SOL     OW 9005  10.665   5.768  10.131
 2389SOL    HW1 9006  10.606   5.843  10.139
 2389SOL    HW2 9007  10.746   5.795  10.173
 2390SOL     OW 9008   6.894   2.302   1.960
 2390SOL    HW1 9009   6.825   2.240   1.985
 2390SOL    HW2 9010   6.918   2.345   2.041
 2391SOL     OW 9011   5.573   2.125  12.593
 2391SOL    HW1 9012   5.498   2.161  12.641
 2391SOL    HW2 9013   5.557   2.148  12.502
 2392SOL     OW 9014   5.372  13.537  13.653
 2392SOL    HW1 9015   5.290  13.563  13.612
 2392SOL    HW2 9016   5.438  13.547  13.584
 2393SOL     OW 9017  13.961  12.134  14.148
 2393SOL    HW1 9018  13.946  12.099  14.060
 2393SOL    HW2 9019  14.057  12.137  14.156
 2394SOL     OW 9020  11.213   9.562  10.656
 2394SOL    HW1 9021  11.225   9.646  10.701
 2394SOL    HW2 9022  11.210   9.585  10.563
 2395SOL     OW 9023   1.300   8.554   4.029
 2395SOL    HW1 9024   1.300   8.649   4.042
 2395SOL    HW2 9025   1.391   8.532   4.014
 2396SOL     OW 9026  13.758  10.344   0.883
 2396SOL    HW1 9027  13.822  10.333   0.813
 2396SOL    HW2 9028  13.674  10.325   0.842
 2397SOL     OW 9029   5.229   7.948   0.477
 2397SOL    HW1 9030   5.223   8.040   0.452
 2397SOL    HW2 9031   5.141   7.914   0.465
 2398SOL     OW 9032  12.827   0.551   1.615
 2398SOL    HW1 9033  12.914   0.589   1.606
 2398SOL    HW2 9034  12.827   0.475   1.558
 2399SOL     OW 9035  12.047   9.704   5.315
 2399SOL    HW1 9036  11.996   9.778   5.349
 2399SOL    HW2 9037  11.989   9.664   5.250
 2400SOL     OW 9038   9.706   7.176   7.191
 2400SOL    HW1 9039   9.663   7.259   7.208
 2400SOL    HW2 9040   9.789   7.182   7.239
 2401SOL     OW 9041  14.679   8.157   2.552
 2401SOL    HW1 9042  14.754   8.125   2.602
 2401SOL    HW2 9043  14.683   8.109   2.469
 2402SOL     OW 9044  10.292   5.138   7.114
 2402SOL    HW1 9045  10.322   5.221   7.150
 2402SOL    HW2 9046  10.371   5.097   7.078
 2403SOL     OW 9047   3.543   1.212   3.965
 2403SOL    HW1 9048   3.474   1.153   3.934
 2403SOL    HW2 9049   3.535   1.289   3.909
 2404SOL     OW 9050   7.827   0.173   2.729
 2404SOL    HW1 9051   7.808   0.247   2.670
 2404SOL    HW2 9052   7.923   0.170   2.733
 2405SOL     OW 9053  10.323  12.564   7.580
 2405SOL    HW1 9054  10.350  12.635   7.638
 2405SOL    HW2 9055  10.279  12.501   7.637
 2406SOL     OW 9056  13.963  11.066   9.993
 2406SOL    HW1 9057  13.990  11.008   9.922
 2406SOL    HW2 9058  14.001  11.027  10.072
 2407SOL     OW 9059   4.622   0.912   5.805
 2407SOL    HW1 9060   4.616   0.847   5.874
 2407SOL    HW2 9061   4.547   0.970   5.820
 2408SOL     OW 9062  13.905   0.213   0.666
 2408SOL    HW1 9063  13.929   0.305   0.679
 2408SOL    HW2 9064  13.862   0.212   0.580
 2409SOL     OW 9065   5.938   8.277   2.054
 2409SOL    HW1 9066   5.855   8.292   2.099
 2409SOL    HW2 9067   5.939   8.339   1.982
 2410SOL     OW 9068   0.758   5.992  10.405
 2410SOL    HW1 9069   0.806   5.947  10.336
 2410SOL    HW2 9070   0.763   5.933  10.481
 2411SOL     OW 9071  11.228  12.048   5.103
 2411SOL    HW1 9072  11.322  12.038   5.088
 2411SOL    HW2 9073  11.186  12.008   5.027
 2412SOL     OW 9074   1.019   8.447  11.976
 2412SOL    HW1 9075   0.997   8.491  11.895
 2412SOL    HW2 9076   1.065   8.367  11.949
 2413SOL     OW 9077   6.239  14.869  14.869
 2413SOL    HW1 9078   6.228   0.053  14.794
 2413SOL    HW2 9079   6.222  14.781  14.834
 2414SOL     OW 9080  14.792   5.087  14.633
 2414SOL    HW1 9081  14.807   5.177  14.663
 2414SOL    HW2 9082  14.777   5.037  14.713
 2415SOL     OW 9083  13.159  13.751   9.170
 2415SOL    HW1 9084  13.131  13.721   9.083
 2415SOL    HW2 9085  13.243  13.794   9.154
 2416SOL     OW 9086   9.832  12.014  10.566
 2416SOL    HW1 9087   9.903  11.979  10.511
 2416SOL    HW2 9088   9.834  11.959  10.644
 2417SOL     OW 9089  13.676   3.835  14.102
 2417SOL    HW1 9090  13.657   3.755  14.150
 2417SOL    HW2 9091  13.753   3.872  14.146
 2418SOL     OW 9092   4.517   4.298   2.738
 2418SOL    HW1 9093   4.464   4.367   2.779
 2418SOL    HW2 9094   4.455   4.228   2.719
 2419SOL     OW 9095   6.735   1.898   6.763
 2419SOL    HW1 9096   6.814   1.846   6.748
 2419SOL    HW2 9097   6.669   1.858   6.708
 2420SOL     OW 9098   8.030  13.295   2.249
 2420SOL    HW1 9099   8.058  13.309   2.339
 2420SOL    HW2 9100   8.034  13.200   2.236
 2421SOL     OW 9101   0.142   2.067   4.958
 2421SOL    HW1 9102   0.177   2.146   4.916
 2421SOL    HW2 9103   0.128   2.093   5.049
 2422SOL     OW 9104   9.040   5.173   7.465
 2422SOL    HW1 9105   9.113   5.140   7.517
 2422SOL    HW2 9106   8.963   5.128   7.500
 2423SOL     OW 9107  14.818   7.188   3.978
 2423SOL    HW1 9108  14.758   7.215   4.047
 2423SOL    HW2 9109   0.012   7.139   4.023
 2424SOL     OW 9110  13.724   6.934   3.151
 2424SOL    HW1 9111  13.777   6.856   3.132
 2424SOL    HW2 9112  13.770   6.978   3.222
 2425SOL     OW 9113  14.822   1.559  10.848
 2425SOL    HW1 9114  14.798   1.576  10.757
 2425SOL    HW2 9115  14.873   1.479  10.845
 2426SOL     OW 9116   8.805   8.219  12.478
 2426SOL    HW1 9117   8.897   8.245  12.471
 2426SOL    HW2 9118   8.800   8.171  12.561
 2427SOL     OW 9119   1.529   4.883  12.408
 2427SOL    HW1 9120   1.451   4.833  12.432
 2427SOL    HW2 9121   1.503   4.975  12.417
 2428SOL     OW 9122   4.598   8.219  13.571
 2428SOL    HW1 9123   4.663   8.262  13.516
 2428SOL    HW2 9124   4.514   8.241  13.531
 2429SOL     OW 9125  12.142   9.317   0.699
 2429SOL    HW1 9126  12.150   9.342   0.607
 2429SOL    HW2 9127  12.075   9.376   0.734
 2430SOL     OW 9128   2.310   8.551   8.111
 2430SOL    HW1 9129   2.384   8.555   8.171
 2430SOL    HW2 9130   2.330   8.615   8.043
 2431SOL     OW 9131  10.279  14.207  14.811
 2431SOL    HW1 9132  10.209  14.208  14.746
 2431SOL    HW2 9133  10.234  14.203   0.021
 2432SOL     OW 9134   3.291   9.070   8.849
 2432SOL    HW1 9135   3.312   8.982   8.881
 2432SOL    HW2 9136   3.371   9.120   8.864
 2433SOL     OW 9137   0.689   2.038  10.087
 2433SOL    HW1 9138   0.676   2.120  10.041
 2433SOL    HW2 9139   0.745   2.060  10.161
 2434SOL     OW 9140   4.563   9.285   7.882
 2434SOL    HW1 9141   4.540   9.227   7.954
 2434SOL    HW2 9142   4.655   9.267   7.865
 2435SOL     OW 9143   7.817   3.834  10.478
 2435SOL    HW1 9144   7.767   3.911  10.451
 2435SOL    HW2 9145   7.894   3.870  10.523
 2436SOL     OW 9146   7.774   5.572   2.423
 2436SOL    HW1 9147   7.844   5.629   2.455
 2436SOL    HW2 9148   7.794   5.486   2.461
 2437SOL     OW 9149   2.320  11.107  11.706
 2437SOL    HW1 9150   2.356  11.191  11.677
 2437SOL    HW2 9151   2.233  11.128  11.737
 2438SOL     OW 9152   6.598  10.287  10.151
 2438SOL    HW1 9153   6.574  10.311  10.062
 2438SOL    HW2 9154   6.658  10.213  10.141
 2439SOL     OW 9155   3.420   2.780  13.323
 2439SOL    HW1 9156   3.398   2.833  13.247
 2439SOL    HW2 9157   3.359   2.808  13.391
 2440SOL     OW 9158   6.648   4.767   2.377
 2440SOL    HW1 9159   6.600   4.796   2.299
 2440SOL    HW2 9160   6.735   4.746   2.345
 2441SOL     OW 9161   1.230   5.874   9.785
 2441SOL    HW1 9162   1.291   5.815   9.829
 2441SOL    HW2 9163   1.267   5.961   9.798
 2442SOL     OW 9164   2.552  12.658  11.805
 2442SOL    HW1 9165   2.486  12.720  11.775
 2442SOL    HW2 9166   2.633  12.710  11.812
 2443SOL     OW 9167   1.639   7.834   4.013
 2443SOL    HW1 9168   1.683   7.749   4.015
 2443SOL    HW2 9169   1.709   7.896   3.992
 2444SOL     OW 9170  10.990   7.291  11.441
 2444SOL    HW1 9171  10.996   7.205  11.481
 2444SOL    HW2 9172  11.034   7.350  11.503
 2445SOL     OW 9173   6.872  11.791   7.313
 2445SOL    HW1 9174   6.846  11.700   7.326
 2445SOL    HW2 9175   6.930  11.789   7.237
 2446SOL     OW 9176  10.141   3.182   6.445
 2446SOL    HW1 9177  10.091   3.223   6.375
 2446SOL    HW2 9178  10.121   3.235   6.523
 2447SOL     OW 9179  10.343   9.980  11.952
 2447SOL    HW1 9180  10.340   9.891  11.916
 2447SOL    HW2 9181  10.413   9.977  12.017
 2448SOL     OW 9182   6.691  12.315   3.972
 2448SOL    HW1 9183   6.724  12.374   4.039
 2448SOL    HW2 9184   6.701  12.364   3.890
 2449SOL     OW 9185   9.474  10.046  12.363
 2449SOL    HW1 9186   9.501  10.135  12.386
 2449SOL    HW2 9187   9.412  10.021  12.432
 2450SOL     OW 9188   6.029   7.563   9.755
 2450SOL    HW1 9189   6.108   7.549   9.808
 2450SOL    HW2 9190   6.050   7.525   9.670
 2451SOL     OW 9191   8.932   1.967   2.654
 2451SOL    HW1 9192   8.994   1.940   2.586
 2451SOL    HW2 9193   8.853   1.917   2.635
 2452SOL     OW 9194  10.626   9.124   4.651
 2452SOL    HW1 9195  10.575   9.051   4.615
 2452SOL    HW2 9196  10.594   9.133   4.741
 2453SOL     OW 9197   9.626   5.880  13.397
 2453SOL    HW1 9198   9.629   5.855  13.489
 2453SOL    HW2 9199   9.624   5.797  13.349
 2454SOL     OW 9200   8.988  12.193  14.724
 2454SOL    HW1 9201   9.061  12.159  14.672
 2454SOL    HW2 9202   9.004  12.161  14.812
 2455SOL     OW 9203   1.847   0.053   0.555
 2455SOL    HW1 9204   1.916   0.116   0.579
 2455SOL    HW2 9205   1.877   0.014   0.473
 2456SOL     OW 9206   3.402   7.330   2.961
 2456SOL    HW1 9207   3.359   7.397   2.908
 2456SOL    HW2 9208   3.403   7.367   3.050
 2457SOL     OW 9209  11.481   6.406   0.738
 2457SOL    HW1 9210  11.502   6.472   0.673
 2457SOL    HW2 9211  11.523   6.326   0.706
 2458SOL     OW 9212   4.163   2.823   1.267
 2458SOL    HW1 9213   4.087   2.872   1.298
 2458SOL    HW2 9214   4.130   2.734   1.252
 2459SOL     OW 9215  11.777   9.448   3.059
 2459SOL    HW1 9216  11.734   9.379   3.007
 2459SOL    HW2 9217  11.871   9.427   3.053
 2460SOL     OW 9218   0.798  11.821  10.286
 2460SOL    HW1 9219   0.853  11.885  10.332
 2460SOL    HW2 9220   0.803  11.742  10.340
 2461SOL     OW 9221  12.615   6.784   9.781
 2461SOL    HW1 9222  12.672   6.814   9.851
 2461SOL    HW2 9223  12.669   6.790   9.702
 2462SOL     OW 9224  11.125   0.819  12.563
 2462SOL    HW1 9225  11.161   0.906  12.543
 2462SOL    HW2 9226  11.032   0.826  12.541
 2463SOL     OW 9227   2.812   5.338   1.749
 2463SOL    HW1 9228   2.821   5.428   1.779
 2463SOL    HW2 9229   2.781   5.345   1.659
 2464SOL     OW 9230   5.013   1.155  11.671
 2464SOL    HW1 9231   5.019   1.250  11.660
 2464SOL    HW2 9232   4.942   1.143  11.735
 2465SOL     OW 9233   8.919   8.480   1.814
 2465SOL    HW1 9234   8.929   8.514   1.903
 2465SOL    HW2 9235   9.003   8.440   1.794
 2466SOL     OW 9236   3.759   1.981   0.763
 2466SOL    HW1 9237   3.770   1.903   0.709
 2466SOL    HW2 9238   3.735   1.946   0.850
 2467SOL     OW 9239   4.718  10.269   9.022
 2467SOL    HW1 9240   4.782  10.332   8.988
 2467SOL    HW2 9241   4.717  10.285   9.117
 2468SOL     OW 9242  12.926   1.751   3.152
 2468SOL    HW1 9243  12.960   1.807   3.222
 2468SOL    HW2 9244  12.831   1.751   3.166
 2469SOL     OW 9245   8.141   5.153   8.984
 2469SOL    HW1 9246   8.212   5.217   8.977
 2469SOL    HW2 9247   8.062   5.204   8.965
 2470SOL     OW 9248  10.578  10.075   2.670
 2470SOL    HW1 9249  10.653  10.092   2.613
 2470SOL    HW2 9250  10.510  10.134   2.639
 2471SOL     OW 9251  10.826   1.286   7.358
 2471SOL    HW1 9252  10.916   1.254   7.360
 2471SOL    HW2 9253  10.810   1.319   7.446
 2472SOL     OW 9254   2.276  12.953  11.960
 2472SOL    HW1 9255   2.227  12.963  12.042
 2472SOL    HW2 9256   2.332  13.030  11.956
 2473SOL     OW 9257  13.887  14.318   1.385
 2473SOL    HW1 9258  13.805  14.270   1.385
 2473SOL    HW2 9259  13.939  14.277   1.454
 2474SOL     OW 9260   3.027   5.847  14.779
 2474SOL    HW1 9261   3.106   5.901  14.781
 2474SOL    HW2 9262   2.967   5.894  14.721
 2475SOL     OW 9263   0.870   6.589   0.945
 2475SOL    HW1 9264   0.795   6.643   0.920
 2475SOL    HW2 9265   0.867   6.515   0.883
 2476SOL     OW 9266   9.637   4.765  10.531
 2476SOL    HW1 9267   9.668   4.699  10.468
 2476SOL    HW2 9268   9.571   4.815  10.483
 2477SOL     OW 9269   5.672   9.766   8.869
 2477SOL    HW1 9270   5.754   9.807   8.844
 2477SOL    HW2 9271   5.681   9.675   8.840
 2478SOL     OW 9272   8.668  14.041   2.658
 2478SOL    HW1 9273   8.659  13.964   2.601
 2478SOL    HW2 9274   8.746  14.023   2.711
 2479SOL     OW 9275  10.894  14.532   7.777
 2479SOL    HW1 9276  10.921  14.440   7.768
 2479SOL    HW2 9277  10.844  14.534   7.858
 2480SOL     OW 9278   2.497   8.343   9.363
 2480SOL    HW1 9279   2.491   8.437   9.379
 2480SOL    HW2 9280   2.450   8.329   9.281
 2481SOL     OW 9281   8.422  14.212   3.495
 2481SOL    HW1 9282   8.456  14.298   3.472
 2481SOL    HW2 9283   8.334  14.229   3.529
 2482SOL     OW 9284   7.048  10.012   6.608
 2482SOL    HW1 9285   7.008  10.072   6.544
 2482SOL    HW2 9286   7.075   9.937   6.555
 2483SOL     OW 9287  10.027   4.088   6.191
 2483SOL    HW1 9288   9.986   4.138   6.262
 2483SOL    HW2 9289  10.032   3.998   6.225
 2484SOL     OW 9290  14.353  13.143   2.067
 2484SOL    HW1 9291  14.262  13.158   2.091
 2484SOL    HW2 9292  14.363  13.186   1.983
 2485SOL     OW 9293  10.373   7.853   1.761
 2485SOL    HW1 9294  10.358   7.760   1.745
 2485SOL    HW2 9295  10.287   7.889   1.781
 2486SOL     OW 9296  13.548   4.944  12.239
 2486SOL    HW1 9297  13.591   4.942  12.153
 2486SOL    HW2 9298  13.612   4.908  12.299
 2487SOL     OW 9299   7.033  12.890   6.843
 2487SOL    HW1 9300   7.004  12.976   6.873
 2487SOL    HW2 9301   6.998  12.829   6.908
 2488SOL     OW 9302  12.117  11.570  12.910
 2488SOL    HW1 9303  12.100  11.541  12.820
 2488SOL    HW2 9304  12.180  11.642  12.900
 2489SOL     OW 9305   6.126   5.251  13.841
 2489SOL    HW1 9306   6.145   5.262  13.748
 2489SOL    HW2 9307   6.190   5.307  13.886
 2490SOL     OW 9308   4.021  10.716   8.524
 2490SOL    HW1 9309   3.949  10.724   8.462
 2490SOL    HW2 9310   3.985  10.663   8.596
 2491SOL     OW 9311   1.188   0.655  14.383
 2491SOL    HW1 9312   1.258   0.666  14.319
 2491SOL    HW2 9313   1.233   0.627  14.463
 2492SOL     OW 9314  12.392   8.658  10.911
 2492SOL    HW1 9315  12.439   8.584  10.874
 2492SOL    HW2 9316  12.444   8.683  10.988
 2493SOL     OW 9317   5.698   2.153  14.604
 2493SOL    HW1 9318   5.748   2.115  14.532
 2493SOL    HW2 9319   5.704   2.089  14.675
 2494SOL     OW 9320   9.704   1.243   3.108
 2494SOL    HW1 9321   9.712   1.304   3.181
 2494SOL    HW2 9322   9.747   1.287   3.035
 2495SOL     OW 9323   4.245  13.420   7.635
 2495SOL    HW1 9324   4.188  13.477   7.583
 2495SOL    HW2 9325   4.245  13.337   7.587
 2496SOL     OW 9326   3.677   1.867  14.487
 2496SOL    HW1 9327   3.702   1.867  14.580
 2496SOL    HW2 9328   3.629   1.948  14.475
 2497SOL     OW 9329  10.962   5.419  11.814
 2497SOL    HW1 9330  10.995   5.337  11.852
 2497SOL    HW2 9331  11.040   5.468  11.791
 2498SOL     OW 9332  12.407   0.995   4.822
 2498SOL    HW1 9333  12.373   0.907   4.805
 2498SOL    HW2 9334  12.497   0.982   4.852
 2499SOL     OW 9335  12.955  12.742   4.874
 2499SOL    HW1 9336  12.978  12.693   4.953
 2499SOL    HW2 9337  13.038  12.782   4.846
 2500SOL     OW 9338   4.029   0.526   0.228
 2500SOL    HW1 9339   4.040   0.601   0.286
 2500SOL    HW2 9340   4.035   0.562   0.140
 2501SOL     OW 9341   1.529  10.510   0.131
 2501SOL    HW1 9342   1.549  10.503   0.225
 2501SOL    HW2 9343   1.452  10.567   0.127
 2502SOL     OW 9344   8.799   9.372  14.084
 2502SOL    HW1 9345   8.845   9.407  14.161
 2502SOL    HW2 9346   8.786   9.449  14.028
 2503SOL     OW 9347   1.059   1.768  14.833
 2503SOL    HW1 9348   1.151   1.765  14.805
 2503SOL    HW2 9349   1.009   1.748  14.754
 2504SOL     OW 9350   8.352   6.256   6.893
 2504SOL    HW1 9351   8.348   6.299   6.808
 2504SOL    HW2 9352   8.320   6.323   6.954
 2505SOL     OW 9353  13.125   2.230   6.370
 2505SOL    HW1 9354  13.165   2.155   6.415
 2505SOL    HW2 9355  13.165   2.228   6.282
 2506SOL     OW 9356   9.428   4.953   0.138
 2506SOL    HW1 9357   9.417   4.870   0.184
 2506SOL    HW2 9358   9.516   4.949   0.100
 2507SOL     OW 9359  11.233   1.294   8.323
 2507SOL    HW1 9360  11.215   1.386   8.306
 2507SOL    HW2 9361  11.151   1.260   8.360
 2508SOL     OW 9362   8.768   6.541   6.868
 2508SOL    HW1 9363   8.795   6.615   6.923
 2508SOL    HW2 9364   8.826   6.470   6.896
 2509SOL     OW 9365   6.452   4.760   4.437
 2509SOL    HW1 9366   6.502   4.822   4.490
 2509SOL    HW2 9367   6.516   4.694   4.410
 2510SOL     OW 9368  10.288  13.798   0.629
 2510SOL    HW1 9369  10.228  13.754   0.567
 2510SOL    HW2 9370  10.375  13.774   0.599
 2511SOL     OW 9371  13.040   3.723  14.620
 2511SOL    HW1 9372  13.066   3.781  14.692
 2511SOL    HW2 9373  12.958   3.759  14.588
 2512SOL     OW 9374   1.405   6.841   4.777
 2512SOL    HW1 9375   1.332   6.859   4.836
 2512SOL    HW2 9376   1.376   6.765   4.726
 2513SOL     OW 9377  11.104   8.586   1.016
 2513SOL    HW1 9378  11.056   8.537   1.083
 2513SOL    HW2 9379  11.125   8.520   0.950
 2514SOL     OW 9380   3.068   7.434   8.334
 2514SOL    HW1 9381   3.044   7.343   8.316
 2514SOL    HW2 9382   3.083   7.473   8.248
 2515SOL     OW 9383   4.605  11.263   2.707
 2515SOL    HW1 9384   4.626  11.338   2.763
 2515SOL    HW2 9385   4.639  11.188   2.755
 2516SOL     OW 9386   3.974   4.176   3.078
 2516SOL    HW1 9387   3.992   4.224   3.159
 2516SOL    HW2 9388   3.879   4.177   3.070
 2517SOL     OW 9389   1.285   7.888  11.302
 2517SOL    HW1 9390   1.203   7.885  11.252
 2517SOL    HW2 9391   1.308   7.981  11.304
 2518SOL     OW 9392  13.023   8.379   3.346
 2518SOL    HW1 9393  12.992   8.384   3.437
 2518SOL    HW2 9394  12.945   8.355   3.296
 2519SOL     OW 9395   4.702   1.289  11.248
 2519SOL    HW1 9396   4.696   1.377  11.285
 2519SOL    HW2 9397   4.763   1.297  11.175
 2520SOL     OW 9398  11.322  14.314  14.867
 2520SOL    HW1 9399  11.307  14.364  14.787
 2520SOL    HW2 9400  11.319  14.223  14.838
 2521SOL     OW 9401   4.377  10.850   3.565
 2521SOL    HW1 9402   4.463  10.817   3.537
 2521SOL    HW2 9403   4.384  10.858   3.660
 2522SOL     OW 9404   5.125   0.096   2.496
 2522SOL    HW1 9405   5.198   0.066   2.441
 2522SOL    HW2 9406   5.059   0.027   2.487
 2523SOL     OW 9407  10.461   7.491   8.714
 2523SOL    HW1 9408  10.418   7.465   8.633
 2523SOL    HW2 9409  10.543   7.532   8.686
 2524SOL     OW 9410  14.749   6.783   7.446
 2524SOL    HW1 9411  14.687   6.799   7.375
 2524SOL    HW2 9412  14.694   6.754   7.519
 2525SOL     OW 9413   8.911   1.475   1.903
 2525SOL    HW1 9414   9.006   1.471   1.913
 2525SOL    HW2 9415   8.895   1.560   1.861
 2526SOL     OW 9416   7.899   4.869   0.340
 2526SOL    HW1 9417   7.817   4.840   0.301
 2526SOL    HW2 9418   7.929   4.940   0.283
 2527SOL     OW 9419  14.126   9.329   0.241
 2527SOL    HW1 9420  14.137   9.273   0.318
 2527SOL    HW2 9421  14.212   9.330   0.200
 2528SOL     OW 9422   0.637  14.106  14.582
 2528SOL    HW1 9423   0.575  14.144  14.644
 2528SOL    HW2 9424   0.607  14.016  14.570
 2529SOL     OW 9425   3.834   0.011   1.458
 2529SOL    HW1 9426   3.749  14.865   1.497
 2529SOL    HW2 9427   3.870   0.081   1.512
 2530SOL     OW 9428   4.587   2.408   4.109
 2530SOL    HW1 9429   4.560   2.342   4.044
 2530SOL    HW2 9430   4.560   2.491   4.071
 2531SOL     OW 9431  10.517  10.096  10.438
 2531SOL    HW1 9432  10.502  10.151  10.361
 2531SOL    HW2 9433  10.596  10.133  10.478
 2532SOL     OW 9434   7.573   4.489   3.458
 2532SOL    HW1 9435   7.580   4.549   3.384
 2532SOL    HW2 9436   7.587   4.544   3.535
 2533SOL     OW 9437   2.184  12.863   7.571
 2533SOL    HW1 9438   2.091  12.843   7.582
 2533SOL    HW2 9439   2.197  12.944   7.621
 2534SOL     OW 9440   8.907   4.603   6.119
 2534SOL    HW1 9441   8.840   4.667   6.095
 2534SOL    HW2 9442   8.970   4.653   6.172
 2535SOL     OW 9443   6.409   5.669  10.475
 2535SOL    HW1 9444   6.353   5.654  10.398
 2535SOL    HW2 9445   6.470   5.737  10.446
 2536SOL     OW 9446  12.993   8.030  11.496
 2536SOL    HW1 9447  12.958   7.941  11.510
 2536SOL    HW2 9448  12.981   8.074  11.580
 2537SOL     OW 9449   3.878   6.417  12.263
 2537SOL    HW1 9450   3.934   6.355  12.309
 2537SOL    HW2 9451   3.854   6.482  12.329
 2538SOL     OW 9452   8.675  12.307   7.849
 2538SOL    HW1 9453   8.645  12.277   7.935
 2538SOL    HW2 9454   8.746  12.248   7.826
 2539SOL     OW 9455  14.753   8.568  13.504
 2539SOL    HW1 9456  14.789   8.612  13.581
 2539SOL    HW2 9457  14.798   8.484  13.501
 2540SOL     OW 9458  10.197  10.530  12.776
 2540SOL    HW1 9459  10.142  10.490  12.709
 2540SOL    HW2 9460  10.249  10.595  12.729
 2541SOL     OW 9461   9.904   2.638   2.492
 2541SOL    HW1 9462   9.949   2.715   2.457
 2541SOL    HW2 9463   9.944   2.564   2.447
 2542SOL     OW 9464   0.358  11.727   8.579
 2542SOL    HW1 9465   0.383  11.714   8.488
 2542SOL    HW2 9466   0.374  11.643   8.622
 2543SOL     OW 9467   7.931  11.585   3.707
 2543SOL    HW1 9468   7.843  11.585   3.669
 2543SOL    HW2 9469   7.943  11.495   3.737
 2544SOL     OW 9470   9.885   9.515   1.607
 2544SOL    HW1 9471   9.910   9.424   1.619
 2544SOL    HW2 9472   9.855   9.543   1.693
 2545SOL     OW 9473   3.313   4.484   0.706
 2545SOL    HW1 9474   3.266   4.528   0.777
 2545SOL    HW2 9475   3.321   4.393   0.735
 2546SOL     OW 9476  10.005   9.093   6.468
 2546SOL    HW1 9477   9.935   9.135   6.518
 2546SOL    HW2 9478  10.059   9.166   6.437
 2547SOL     OW 9479   6.872   5.346   1.693
 2547SOL    HW1 9480   6.960   5.382   1.704
 2547SOL    HW2 9481   6.887   5.253   1.677
 2548SOL     OW 9482   6.719   6.793  14.832
 2548SOL    HW1 9483   6.668   6.712  14.822
 2548SOL    HW2 9484   6.716   6.833  14.745
 2549SOL     OW 9485   0.251   8.550  11.973
 2549SOL    HW1 9486   0.222   8.479  12.030
 2549SOL    HW2 9487   0.182   8.616  11.980
 2550SOL     OW 9488   1.132   6.159  10.195
 2550SOL    HW1 9489   1.117   6.068  10.170
 2550SOL    HW2 9490   1.100   6.165  10.285
 2551SOL     OW 9491   7.393   0.121  12.206
 2551SOL    HW1 9492   7.361   0.071  12.131
 2551SOL    HW2 9493   7.473   0.076  12.232
 2552SOL     OW 9494   2.345  11.140   4.600
 2552SOL    HW1 9495   2.305  11.205   4.543
 2552SOL    HW2 9496   2.271  11.097   4.643
 2553SOL     OW 9497  12.085  13.169   1.107
 2553SOL    HW1 9498  12.168  13.214   1.092
 2553SOL    HW2 9499  12.022  13.215   1.052
 2554SOL     OW 9500   9.932  12.005  14.481
 2554SOL    HW1 9501  10.023  12.028  14.503
 2554SOL    HW2 9502   9.920  12.043  14.393
 2555SOL     OW 9503   8.747   4.050  10.269
 2555SOL    HW1 9504   8.758   4.027  10.177
 2555SOL    HW2 9505   8.832   4.086  10.295
 2556SOL     OW 9506   5.194  14.610  11.976
 2556SOL    HW1 9507   5.263  14.624  11.911
 2556SOL    HW2 9508   5.199  14.516  11.995
 2557SOL     OW 9509  12.921   0.840  12.688
 2557SOL    HW1 9510  12.911   0.895  12.610
 2557SOL    HW2 9511  12.858   0.876  12.751
 2558SOL     OW 9512  11.043   3.057  13.550
 2558SOL    HW1 9513  11.052   2.973  13.505
 2558SOL    HW2 9514  11.092   3.046  13.632
 2559SOL     OW 9515   6.635   3.771  12.051
 2559SOL    HW1 9516   6.633   3.789  11.957
 2559SOL    HW2 9517   6.671   3.850  12.090
 2560SOL     OW 9518   6.218  13.060   8.116
 2560SOL    HW1 9519   6.172  13.132   8.159
 2560SOL    HW2 9520   6.304  13.057   8.158
 2561SOL     OW 9521  11.526   2.038   3.982
 2561SOL    HW1 9522  11.478   1.958   4.005
 2561SOL    HW2 9523  11.608   2.006   3.944
 2562SOL     OW 9524  11.459   7.690   3.305
 2562SOL    HW1 9525  11.464   7.597   3.325
 2562SOL    HW2 9526  11.543   7.726   3.336
 2563SOL     OW 9527   1.947   6.384  10.563
 2563SOL    HW1 9528   2.022   6.358  10.510
 2563SOL    HW2 9529   1.885   6.312  10.553
 2564SOL     OW 9530   7.576   7.515  13.978
 2564SOL    HW1 9531   7.585   7.433  13.929
 2564SOL    HW2 9532   7.498   7.557  13.940
 2565SOL     OW 9533   8.404   5.179   7.662
 2565SOL    HW1 9534   8.360   5.220   7.736
 2565SOL    HW2 9535   8.418   5.250   7.600
 2566SOL     OW 9536   4.134   3.997   4.598
 2566SOL    HW1 9537   4.190   4.056   4.647
 2566SOL    HW2 9538   4.121   3.921   4.655
 2567SOL     OW 9539   4.815  14.593   9.100
 2567SOL    HW1 9540   4.790  14.589   9.008
 2567SOL    HW2 9541   4.774  14.515   9.139
 2568SOL     OW 9542  12.806   6.999   2.530
 2568SOL    HW1 9543  12.869   6.996   2.458
 2568SOL    HW2 9544  12.859   7.019   2.607
 2569SOL     OW 9545   2.202   0.704  11.410
 2569SOL    HW1 9546   2.294   0.683  11.426
 2569SOL    HW2 9547   2.202   0.799  11.395
 2570SOL     OW 9548   4.452   5.515   7.683
 2570SOL    HW1 9549   4.521   5.565   7.725
 2570SOL    HW2 9550   4.479   5.508   7.592
 2571SOL     OW 9551  10.560   5.860   2.690
 2571SOL    HW1 9552  10.639   5.903   2.723
 2571SOL    HW2 9553  10.587   5.770   2.674
 2572SOL     OW 9554  11.251   2.258   4.714
 2572SOL    HW1 9555  11.209   2.216   4.790
 2572SOL    HW2 9556  11.180   2.272   4.652
 2573SOL     OW 9557   8.553   1.188   3.478
 2573SOL    HW1 9558   8.583   1.121   3.538
 2573SOL    HW2 9559   8.474   1.223   3.517
 2574SOL     OW 9560   5.380  14.066  12.386
 2574SOL    HW1 9561   5.442  14.011  12.338
 2574SOL    HW2 9562   5.378  14.028  12.474
 2575SOL     OW 9563   4.541   6.852   1.736
 2575SOL    HW1 9564   4.543   6.947   1.745
 2575SOL    HW2 9565   4.450   6.828   1.752
 2576SOL     OW 9566   8.926   0.765   3.660
 2576SOL    HW1 9567   8.893   0.810   3.737
 2576SOL    HW2 9568   8.891   0.814   3.586
 2577SOL     OW 9569   2.463   3.951   8.005
 2577SOL    HW1 9570   2.467   3.970   8.099
 2577SOL    HW2 9571   2.553   3.965   7.974
 2578SOL     OW 9572   6.221   1.030  11.208
 2578SOL    HW1 9573   6.146   1.063  11.258
 2578SOL    HW2 9574   6.282   0.999  11.275
 2579SOL     OW 9575   2.441   2.355   3.697
 2579SOL    HW1 9576   2.409   2.408   3.624
 2579SOL    HW2 9577   2.525   2.394   3.721
 2580SOL     OW 9578   8.309   0.462   5.108
 2580SOL    HW1 9579   8.320   0.552   5.076
 2580SOL    HW2 9580   8.264   0.416   5.037
 2581SOL     OW 9581   5.052  11.319   8.117
 2581SOL    HW1 9582   5.037  11.411   8.095
 2581SOL    HW2 9583   4.965  11.285   8.138
 2582SOL     OW 9584  11.197   6.229   4.402
 2582SOL    HW1 9585  11.242   6.153   4.366
 2582SOL    HW2 9586  11.211   6.223   4.496
 2583SOL     OW 9587   4.121   2.338   1.563
 2583SOL    HW1 9588   4.101   2.329   1.656
 2583SOL    HW2 9589   4.098   2.428   1.541
 2584SOL     OW 9590   9.686   1.706   8.959
 2584SOL    HW1 9591   9.761   1.750   9.000
 2584SOL    HW2 9592   9.681   1.621   9.003
 2585SOL     OW 9593   4.967   3.907  14.855
 2585SOL    HW1 9594   5.007   3.842  14.797
 2585SOL    HW2 9595   4.902   3.951  14.800
 2586SOL     OW 9596  12.888   9.104  13.596
 2586SOL    HW1 9597  12.819   9.169  13.609
 2586SOL    HW2 9598  12.966   9.144  13.637
 2587SOL     OW 9599   1.848  11.153   1.305
 2587SOL    HW1 9600   1.760  11.118   1.296
 2587SOL    HW2 9601   1.875  11.129   1.394
 2588SOL     OW 9602   5.831   9.774   6.504
 2588SOL    HW1 9603   5.857   9.838   6.439
 2588SOL    HW2 9604   5.902   9.709   6.504
 2589SOL     OW 9605  14.256   8.430  13.378
 2589SOL    HW1 9606  14.274   8.474  13.295
 2589SOL    HW2 9607  14.250   8.500  13.442
 2590SOL     OW 9608   9.436   5.083   9.355
 2590SOL    HW1 9609   9.357   5.135   9.340
 2590SOL    HW2 9610   9.450   5.036   9.273
 2591SOL     OW 9611   9.039   6.023   7.271
 2591SOL    HW1 9612   9.001   6.001   7.186
 2591SOL    HW2 9613   9.054   6.117   7.267
 2592SOL     OW 9614   5.826   3.983   1.830
 2592SOL    HW1 9615   5.889   3.917   1.801
 2592SOL    HW2 9616   5.880   4.057   1.859
 2593SOL     OW 9617  10.884   7.031   6.399
 2593SOL    HW1 9618  10.866   7.023   6.306
 2593SOL    HW2 9619  10.953   7.097   6.405
 2594SOL     OW 9620   1.260  10.577   7.114
 2594SOL    HW1 9621   1.246  10.544   7.025
 2594SOL    HW2 9622   1.240  10.670   7.108
 2595SOL     OW 9623  12.838   2.519   6.065
 2595SOL    HW1 9624  12.810   2.428   6.059
 2595SOL    HW2 9625  12.922   2.515   6.110
 2596SOL     OW 9626  14.275   1.663  14.252
 2596SOL    HW1 9627  14.229   1.744  14.231
 2596SOL    HW2 9628  14.269   1.656  14.348
 2597SOL     OW 9629  12.338   9.055   7.323
 2597SOL    HW1 9630  12.242   9.057   7.315
 2597SOL    HW2 9631  12.353   9.039   7.416
 2598SOL     OW 9632   7.540   5.167  13.160
 2598SOL    HW1 9633   7.514   5.083  13.121
 2598SOL    HW2 9634   7.631   5.154  13.185
 2599SOL     OW 9635   4.320   1.295   6.948
 2599SOL    HW1 9636   4.277   1.216   6.980
 2599SOL    HW2 9637   4.380   1.319   7.019
 2600SOL     OW 9638   3.525  11.516   5.747
 2600SOL    HW1 9639   3.507  11.543   5.837
 2600SOL    HW2 9640   3.619  11.494   5.747
 2601SOL     OW 9641   9.831   2.650   4.488
 2601SOL    HW1 9642   9.854   2.716   4.554
 2601SOL    HW2 9643   9.897   2.582   4.498
 2602SOL     OW 9644  13.168   0.911   1.345
 2602SOL    HW1 9645  13.142   0.959   1.266
 2602SOL    HW2 9646  13.263   0.901   1.337
 2603SOL     OW 9647  14.483  11.127   2.358
 2603SOL    HW1 9648  14.516  11.207   2.316
 2603SOL    HW2 9649  14.393  11.120   2.327
 2604SOL     OW 9650   5.013   4.610   4.866
 2604SOL    HW1 9651   4.951   4.539   4.849
 2604SOL    HW2 9652   5.015   4.618   4.961
 2605SOL     OW 9653  10.909  13.749   5.946
 2605SOL    HW1 9654  10.903  13.727   6.039
 2605SOL    HW2 9655  10.909  13.665   5.901
 2606SOL     OW 9656   2.120  11.441  13.142
 2606SOL    HW1 9657   2.092  11.527  13.173
 2606SOL    HW2 9658   2.059  11.379  13.183
 2607SOL     OW 9659   1.294  14.120   3.917
 2607SOL    HW1 9660   1.333  14.108   4.003
 2607SOL    HW2 9661   1.220  14.178   3.932
 2608SOL     OW 9662  11.123   1.531   2.023
 2608SOL    HW1 9663  11.198   1.483   2.058
 2608SOL    HW2 9664  11.047   1.478   2.046
 2609SOL     OW 9665   4.467   0.120   1.416
 2609SOL    HW1 9666   4.372   0.131   1.410
 2609SOL    HW2 9667   4.493   0.178   1.488
 2610SOL     OW 9668   2.601   7.874  11.803
 2610SOL    HW1 9669   2.670   7.923  11.849
 2610SOL    HW2 9670   2.630   7.872  11.712
 2611SOL     OW 9671   3.781  10.737   7.740
 2611SOL    HW1 9672   3.796  10.659   7.687
 2611SOL    HW2 9673   3.858  10.792   7.723
 2612SOL     OW 9674   7.035   4.881   9.653
 2612SOL    HW1 9675   7.061   4.912   9.566
 2612SOL    HW2 9676   7.118   4.860   9.697
 2613SOL     OW 9677  11.538   5.124  10.195
 2613SOL    HW1 9678  11.539   5.042  10.145
 2613SOL    HW2 9679  11.539   5.193  10.129
 2614SOL     OW 9680  13.034   3.127  10.792
 2614SOL    HW1 9681  13.111   3.096  10.745
 2614SOL    HW2 9682  12.961   3.115  10.730
 2615SOL     OW 9683   1.972  10.232  14.111
 2615SOL    HW1 9684   1.917  10.231  14.189
 2615SOL    HW2 9685   2.052  10.186  14.137
 2616SOL     OW 9686   8.792   6.931   8.144
 2616SOL    HW1 9687   8.739   6.883   8.207
 2616SOL    HW2 9688   8.779   6.884   8.061
 2617SOL     OW 9689   8.056   4.271  14.630
 2617SOL    HW1 9690   8.130   4.330  14.634
 2617SOL    HW2 9691   8.086   4.198  14.575
 2618SOL     OW 9692  10.817  12.436  14.580
 2618SOL    HW1 9693  10.820  12.355  14.631
 2618SOL    HW2 9694  10.776  12.500  14.638
 2619SOL     OW 9695  10.609   2.375  13.757
 2619SOL    HW1 9696  10.583   2.418  13.676
 2619SOL    HW2 9697  10.704   2.373  13.755
 2620SOL     OW 9698   5.134   9.003   4.578
 2620SOL    HW1 9699   5.115   9.039   4.665
 2620SOL    HW2 9700   5.048   8.995   4.536
 2621SOL     OW 9701  13.565   6.512   3.837
 2621SOL    HW1 9702  13.609   6.460   3.769
 2621SOL    HW2 9703  13.476   6.478   3.839
 2622SOL     OW 9704   5.174   0.047   3.373
 2622SOL    HW1 9705   5.159   0.093   3.456
 2622SOL    HW2 9706   5.206  14.835   3.400
 2623SOL     OW 9707   4.383   7.342   7.062
 2623SOL    HW1 9708   4.467   7.297   7.072
 2623SOL    HW2 9709   4.350   7.310   6.978
 2624SOL     OW 9710  10.758   3.427  12.844
 2624SOL    HW1 9711  10.770   3.436  12.939
 2624SOL    HW2 9712  10.663   3.426  12.832
 2625SOL     OW 9713  10.197   4.411  10.112
 2625SOL    HW1 9714  10.215   4.484  10.171
 2625SOL    HW2 9715  10.182   4.451  10.027
 2626SOL     OW 9716   0.074   9.175   1.272
 2626SOL    HW1 9717   0.057   9.226   1.352
 2626SOL    HW2 9718   0.141   9.225   1.225
 2627SOL     OW 9719   2.167  10.388  12.244
 2627SOL    HW1 9720   2.150  10.425  12.156
 2627SOL    HW2 9721   2.130  10.453  12.304
 2628SOL     OW 9722   1.266   0.536  12.091
 2628SOL    HW1 9723   1.295   0.626  12.076
 2628SOL    HW2 9724   1.341   0.492  12.130
 2629SOL     OW 9725  14.113   3.817   8.211
 2629SOL    HW1 9726  14.068   3.754   8.268
 2629SOL    HW2 9727  14.092   3.902   8.248
 2630SOL     OW 9728   8.459   2.888   7.289
 2630SOL    HW1 9729   8.386   2.949   7.294
 2630SOL    HW2 9730   8.421   2.802   7.308
 2631SOL     OW 9731   2.356   8.591   9.486
 2631SOL    HW1 9732   2.361   8.504   9.526
 2631SOL    HW2 9733   2.352   8.651   9.560
 2632SOL     OW 9734   0.095  10.235  13.993
 2632SOL    HW1 9735   0.107  10.161  14.052
 2632SOL    HW2 9736   0.135  10.206  13.911
 2633SOL     OW 9737  11.691   7.098   7.692
 2633SOL    HW1 9738  11.737   7.015   7.684
 2633SOL    HW2 9739  11.599   7.076   7.674
 2634SOL     OW 9740   5.311   4.393   2.473
 2634SOL    HW1 9741   5.272   4.400   2.560
 2634SOL    HW2 9742   5.249   4.338   2.424
 2635SOL     OW 9743   3.397   7.253   5.221
 2635SOL    HW1 9744   3.387   7.180   5.282
 2635SOL    HW2 9745   3.316   7.252   5.170
 2636SOL     OW 9746  11.438   1.203   8.471
 2636SOL    HW1 9747  11.481   1.260   8.535
 2636SOL    HW2 9748  11.394   1.263   8.411
 2637SOL     OW 9749  14.138   8.517   9.431
 2637SOL    HW1 9750  14.197   8.585   9.463
 2637SOL    HW2 9751  14.166   8.437   9.476
 2638SOL     OW 9752   3.424  11.370   9.572
 2638SOL    HW1 9753   3.472  11.324   9.503
 2638SOL    HW2 9754   3.490  11.389   9.638
 2639SOL     OW 9755   0.112   7.373   9.078
 2639SOL    HW1 9756   0.172   7.335   9.142
 2639SOL    HW2 9757   0.056   7.432   9.128
 2640SOL     OW 9758   8.405   4.640   7.545
 2640SOL    HW1 9759   8.394   4.566   7.605
 2640SOL    HW2 9760   8.389   4.717   7.599
 2641SOL     OW 9761   9.232  13.199  14.556
 2641SOL    HW1 9762   9.213  13.143  14.632
 2641SOL    HW2 9763   9.193  13.152  14.482
 2642SOL     OW 9764   8.852  11.311   9.149
 2642SOL    HW1 9765   8.766  11.353   9.140
 2642SOL    HW2 9766   8.833  11.218   9.158
 2643SOL     OW 9767   8.948  13.372  14.587
 2643SOL    HW1 9768   9.020  13.313  14.566
 2643SOL    HW2 9769   8.927  13.415  14.504
 2644SOL     OW 9770   6.142   2.569   7.260
 2644SOL    HW1 9771   6.103   2.489   7.294
 2644SOL    HW2 9772   6.236   2.557   7.272
 2645SOL     OW 9773   2.431   5.500   7.832
 2645SOL    HW1 9774   2.371   5.494   7.758
 2645SOL    HW2 9775   2.391   5.565   7.890
 2646SOL     OW 9776   5.157   1.249  12.205
 2646SOL    HW1 9777   5.074   1.229  12.161
 2646SOL    HW2 9778   5.225   1.221  12.143
 2647SOL     OW 9779   2.476   1.703  11.928
 2647SOL    HW1 9780   2.490   1.690  12.022
 2647SOL    HW2 9781   2.413   1.774  11.923
 2648SOL     OW 9782   2.698   3.334   9.894
 2648SOL    HW1 9783   2.774   3.325   9.951
 2648SOL    HW2 9784   2.734   3.365   9.811
 2649SOL     OW 9785   0.828   0.118   7.594
 2649SOL    HW1 9786   0.736   0.135   7.574
 2649SOL    HW2 9787   0.835   0.129   7.689
 2650SOL     OW 9788   4.823  12.672   9.315
 2650SOL    HW1 9789   4.802  12.620   9.392
 2650SOL    HW2 9790   4.787  12.759   9.334
 2651SOL     OW 9791   6.114   1.175   3.564
 2651SOL    HW1 9792   6.069   1.128   3.493
 2651SOL    HW2 9793   6.050   1.180   3.634
 2652SOL     OW 9794   1.521   6.211  11.906
 2652SOL    HW1 9795   1.541   6.164  11.987
 2652SOL    HW2 9796   1.555   6.299  11.921
 2653SOL     OW 9797   5.185   7.688   0.606
 2653SOL    HW1 9798   5.130   7.666   0.531
 2653SOL    HW2 9799   5.275   7.678   0.572
 2654SOL     OW 9800  12.419  14.648   6.136
 2654SOL    HW1 9801  12.466  14.570   6.165
 2654SOL    HW2 9802  12.487  14.710   6.110
 2655SOL     OW 9803  13.739   1.895  10.846
 2655SOL    HW1 9804  13.721   1.873  10.937
 2655SOL    HW2 9805  13.653   1.898  10.804
 2656SOL     OW 9806  14.547   0.125   4.072
 2656SOL    HW1 9807  14.527   0.218   4.059
 2656SOL    HW2 9808  14.514   0.083   3.992
 2657SOL     OW 9809   9.915   3.058   1.709
 2657SOL    HW1 9810   9.852   3.034   1.641
 2657SOL    HW2 9811   9.927   2.977   1.759
 2658SOL     OW 9812   9.556  11.132   1.176
 2658SOL    HW1 9813   9.622  11.083   1.127
 2658SOL    HW2 9814   9.494  11.163   1.110
 2659SOL     OW 9815   5.718  12.015  10.058
 2659SOL    HW1 9816   5.741  12.079   9.991
 2659SOL    HW2 9817   5.763  12.046  10.137
 2660SOL     OW 9818   7.490  11.040  11.191
 2660SOL    HW1 9819   7.479  11.124  11.236
 2660SOL    HW2 9820   7.469  11.059  11.100
 2661SOL     OW 9821  10.733   8.949  11.606
 2661SOL    HW1 9822  10.803   9.002  11.568
 2661SOL    HW2 9823  10.652   8.996  11.584
 2662SOL     OW 9824   1.384   1.061   1.979
 2662SOL    HW1 9825   1.294   1.058   1.945
 2662SOL    HW2 9826   1.401   0.971   2.008
 2663SOL     OW 9827   0.518   0.136  12.355
 2663SOL    HW1 9828   0.471   0.208  12.313
 2663SOL    HW2 9829   0.605   0.172  12.374
 2664SOL     OW 9830   6.477   9.182   1.482
 2664SOL    HW1 9831   6.530   9.241   1.536
 2664SOL    HW2 9832   6.448   9.114   1.543
 2665SOL     OW 9833   7.247   0.378   7.147
 2665SOL    HW1 9834   7.238   0.405   7.056
 2665SOL    HW2 9835   7.340   0.395   7.167
 2666SOL     OW 9836  11.599   7.150   1.515
 2666SOL    HW1 9837  11.507   7.140   1.492
 2666SOL    HW2 9838  11.646   7.095   1.452
 2667SOL     OW 9839   6.635   9.248  12.753
 2667SOL    HW1 9840   6.705   9.252  12.818
 2667SOL    HW2 9841   6.629   9.155  12.730
 2668SOL     OW 9842   6.023   7.095   0.286
 2668SOL    HW1 9843   6.061   7.123   0.203
 2668SOL    HW2 9844   6.019   6.999   0.279
 2669SOL     OW 9845  11.746   4.140  10.536
 2669SOL    HW1 9846  11.689   4.080  10.489
 2669SOL    HW2 9847  11.707   4.226  10.523
 2670SOL     OW 9848  11.152  11.459   3.786
 2670SOL    HW1 9849  11.242  11.454   3.755
 2670SOL    HW2 9850  11.099  11.433   3.710
 2671SOL     OW 9851  10.860  10.152   9.086
 2671SOL    HW1 9852  10.816  10.194   9.160
 2671SOL    HW2 9853  10.953  10.152   9.111
 2672SOL     OW 9854  14.122   5.346   9.270
 2672SOL    HW1 9855  14.135   5.379   9.181
 2672SOL    HW2 9856  14.157   5.256   9.267
 2673SOL     OW 9857   4.241  11.644   1.877
 2673SOL    HW1 9858   4.265  11.558   1.842
 2673SOL    HW2 9859   4.146  11.647   1.870
 2674SOL     OW 9860   2.181  14.647   4.962
 2674SOL    HW1 9861   2.101  14.601   4.939
 2674SOL    HW2 9862   2.251  14.595   4.922
 2675SOL     OW 9863   0.399  10.321   2.465
 2675SOL    HW1 9864   0.461  10.265   2.513
 2675SOL    HW2 9865   0.393  10.280   2.378
 2676SOL     OW 9866   6.319   4.209   1.279
 2676SOL    HW1 9867   6.321   4.125   1.324
 2676SOL    HW2 9868   6.315   4.274   1.350
 2677SOL     OW 9869   6.898   1.134   6.720
 2677SOL    HW1 9870   6.960   1.205   6.704
 2677SOL    HW2 9871   6.812   1.177   6.720
 2678SOL     OW 9872   8.495   8.695  14.334
 2678SOL    HW1 9873   8.435   8.770  14.335
 2678SOL    HW2 9874   8.458   8.635  14.399
 2679SOL     OW 9875  10.483  14.367   8.355
 2679SOL    HW1 9876  10.573  14.395   8.340
 2679SOL    HW2 9877  10.481  14.346   8.449
 2680SOL     OW 9878   8.213   3.724  12.298
 2680SOL    HW1 9879   8.152   3.793  12.324
 2680SOL    HW2 9880   8.157   3.658  12.258
 2681SOL     OW 9881   8.255  12.467  13.109
 2681SOL    HW1 9882   8.249  12.540  13.047
 2681SOL    HW2 9883   8.174  12.418  13.097
 2682SOL     OW 9884  11.012   7.270   6.395
 2682SOL    HW1 9885  11.022   7.359   6.362
 2682SOL    HW2 9886  11.057   7.271   6.480
 2683SOL     OW 9887   3.375   1.584   4.286
 2683SOL    HW1 9888   3.335   1.497   4.294
 2683SOL    HW2 9889   3.301   1.644   4.295
 2684SOL     OW 9890   6.833   4.104  14.781
 2684SOL    HW1 9891   6.920   4.088  14.743
 2684SOL    HW2 9892   6.784   4.146  14.711
 2685SOL     OW 9893   5.795   4.542   4.707
 2685SOL    HW1 9894   5.783   4.636   4.713
 2685SOL    HW2 9895   5.715   4.509   4.667
 2686SOL     OW 9896   4.805  13.925   9.892
 2686SOL    HW1 9897   4.721  13.891   9.861
 2686SOL    HW2 9898   4.790  14.018   9.906
 2687SOL     OW 9899   9.449  11.012   6.094
 2687SOL    HW1 9900   9.467  11.101   6.062
 2687SOL    HW2 9901   9.536  10.973   6.103
 2688SOL     OW 9902   1.686  13.357   3.823
 2688SOL    HW1 9903   1.770  13.378   3.781
 2688SOL    HW2 9904   1.656  13.278   3.777
 2689SOL     OW 9905   3.712  14.798   5.246
 2689SOL    HW1 9906   3.625  14.832   5.266
 2689SOL    HW2 9907   3.734  14.834   5.161
 2690SOL     OW 9908   0.546  11.326   5.846
 2690SOL    HW1 9909   0.561  11.232   5.846
 2690SOL    HW2 9910   0.594  11.357   5.769
 2691SOL     OW 9911   0.018   7.238   3.665
 2691SOL    HW1 9912   0.106   7.274   3.651
 2691SOL    HW2 9913  14.856   7.291   3.736
 2692SOL     OW 9914  11.058  11.308  13.443
 2692SOL    HW1 9915  11.138  11.280  13.399
 2692SOL    HW2 9916  11.088  11.352  13.522
 2693SOL     OW 9917   7.420   5.884   9.670
 2693SOL    HW1 9918   7.454   5.809   9.719
 2693SOL    HW2 9919   7.461   5.878   9.584
 2694SOL     OW 9920   6.547   2.776   7.468
 2694SOL    HW1 9921   6.494   2.824   7.404
 2694SOL    HW2 9922   6.618   2.836   7.490
 2695SOL     OW 9923   0.270  14.679  12.281
 2695SOL    HW1 9924   0.347  14.719  12.242
 2695SOL    HW2 9925   0.266  14.715  12.370
 2696SOL     OW 9926   3.823   6.290   7.197
 2696SOL    HW1 9927   3.770   6.241   7.260
 2696SOL    HW2 9928   3.865   6.223   7.143
 2697SOL     OW 9929   7.729   4.210   2.896
 2697SOL    HW1 9930   7.821   4.197   2.875
 2697SOL    HW2 9931   7.681   4.158   2.831
 2698SOL     OW 9932  14.677   7.063   5.859
 2698SOL    HW1 9933  14.705   7.146   5.896
 2698SOL    HW2 9934  14.758   7.017   5.838
 2699SOL     OW 9935   4.176   6.641   1.782
 2699SOL    HW1 9936   4.090   6.617   1.817
 2699SOL    HW2 9937   4.222   6.558   1.774
 2700SOL     OW 9938   9.047  14.001   9.402
 2700SOL    HW1 9939   8.970  14.056   9.386
 2700SOL    HW2 9940   9.027  13.954   9.483
 2701SOL     OW 9941   4.927   1.822   9.718
 2701SOL    HW1 9942   5.017   1.846   9.740
 2701SOL    HW2 9943   4.920   1.835   9.624
 2702SOL     OW 9944   1.126  11.082  12.521
 2702SOL    HW1 9945   1.168  11.166  12.538
 2702SOL    HW2 9946   1.052  11.104  12.463
 2703SOL     OW 9947   2.093   0.397  14.367
 2703SOL    HW1 9948   2.013   0.450  14.356
 2703SOL    HW2 9949   2.152   0.454  14.417
 2704SOL     OW 9950   3.958  11.711  10.769
 2704SOL    HW1 9951   3.930  11.742  10.855
 2704SOL    HW2 9952   4.041  11.757  10.753
 2705SOL     OW 9953   7.362   9.453   3.980
 2705SOL    HW1 9954   7.432   9.514   4.004
 2705SOL    HW2 9955   7.407   9.370   3.963
 2706SOL     OW 9956  10.220   0.162  14.289
 2706SOL    HW1 9957  10.274   0.240  14.278
 2706SOL    HW2 9958  10.278   0.089  14.264
 2707SOL     OW 9959   4.562   4.729   5.806
 2707SOL    HW1 9960   4.617   4.673   5.752
 2707SOL    HW2 9961   4.474   4.691   5.800
 2708SOL     OW 9962   0.407   9.997  14.257
 2708SOL    HW1 9963   0.429   9.977  14.348
 2708SOL    HW2 9964   0.367   9.917  14.224
 2709SOL     OW 9965   8.449   0.089   5.167
 2709SOL    HW1 9966   8.358   0.120   5.168
 2709SOL    HW2 9967   8.496   0.154   5.115
 2710SOL     OW 9968   0.785  10.628   7.184
 2710SOL    HW1 9969   0.835  10.700   7.148
 2710SOL    HW2 9970   0.699  10.634   7.142
 2711SOL     OW 9971   6.374   7.522   6.796
 2711SOL    HW1 9972   6.415   7.481   6.720
 2711SOL    HW2 9973   6.356   7.450   6.856
 2712SOL     OW 9974   4.162   8.678   3.095
 2712SOL    HW1 9975   4.169   8.723   3.179
 2712SOL    HW2 9976   4.092   8.724   3.049
 2713SOL     OW 9977  11.572   5.257   9.059
 2713SOL    HW1 9978  11.523   5.335   9.084
 2713SOL    HW2 9979  11.639   5.290   8.999
 2714SOL     OW 9980  10.710   0.469   0.245
 2714SOL    HW1 9981  10.775   0.479   0.176
 2714SOL    HW2 9982  10.702   0.374   0.257
 2715SOL     OW 9983   2.530   0.035   7.670
 2715SOL    HW1 9984   2.465   0.090   7.627
 2715SOL    HW2 9985   2.495  14.820   7.661
 2716SOL     OW 9986  11.584   4.365   6.369
 2716SOL    HW1 9987  11.648   4.368   6.440
 2716SOL    HW2 9988  11.544   4.278   6.377
 2717SOL     OW 9989   0.329   0.737   2.421
 2717SOL    HW1 9990   0.393   0.665   2.425
 2717SOL    HW2 9991   0.244   0.694   2.423
 2718SOL     OW 9992   7.494   5.122  13.620
 2718SOL    HW1 9993   7.464   5.083  13.702
 2718SOL    HW2 9994   7.584   5.151  13.640
 2719SOL     OW 9995   1.800   0.831   9.663
 2719SOL    HW1 9996   1.817   0.737   9.674
 2719SOL    HW2 9997   1.827   0.849   9.573
 2720SOL     OW 9998   5.147   6.156   4.954
 2720SOL    HW1 9999   5.204   6.144   5.031
 2720SOL    HW210000   5.181   6.093   4.890
 2721SOL     OW10001   2.743   1.211  12.476
 2721SOL    HW110002   2.650   1.195  12.495
 2721SOL    HW210003   2.775   1.128  12.442
 2722SOL     OW10004  11.435  12.989   8.189
 2722SOL    HW110005  11.399  12.932   8.122
 2722SOL    HW210006  11.459  13.070   8.143
 2723SOL     OW10007   1.948  11.221   3.162
 2723SOL    HW110008   2.006  11.294   3.181
 2723SOL    HW210009   1.935  11.224   3.067
 2724SOL     OW10010   3.385   3.264  11.637
 2724SOL    HW110011   3.452   3.201  11.611
 2724SOL    HW210012   3.402   3.281  11.730
 2725SOL     OW10013  12.735   4.619   8.319
 2725SOL    HW110014  12.756   4.706   8.286
 2725SOL    HW210015  12.737   4.628   8.415
 2726SOL     OW10016   0.381   9.414   0.669
 2726SOL    HW110017   0.467   9.376   0.649
 2726SOL    HW210018   0.345   9.439   0.584
 2727SOL     OW10019  13.321   3.985  13.251
 2727SOL    HW110020  13.356   3.999  13.339
 2727SOL    HW210021  13.394   4.001  13.192
 2728SOL     OW10022   8.731   9.395  11.710
 2728SOL    HW110023   8.774   9.461  11.765
 2728SOL    HW210024   8.725   9.318  11.767
 2729SOL     OW10025   1.585   2.480  12.149
 2729SOL    HW110026   1.678   2.458  12.156
 2729SOL    HW210027   1.570   2.497  12.056
 2730SOL     OW10028  11.149   4.122   8.835
 2730SOL    HW110029  11.122   4.056   8.771
 2730SOL    HW210030  11.119   4.087   8.919
 2731SOL     OW10031   6.193  11.589   5.677
 2731SOL    HW110032   6.214  11.633   5.759
 2731SOL    HW210033   6.277  11.567   5.638
 2732SOL     OW10034   2.801  11.202   8.111
 2732SOL    HW110035   2.868  11.134   8.100
 2732SOL    HW210036   2.736  11.161   8.169
 2733SOL     OW10037  14.155  10.000   8.879
 2733SOL    HW110038  14.064   9.997   8.910
 2733SOL    HW210039  14.205  10.033   8.954
 2734SOL     OW10040  11.261   9.978   8.435
 2734SOL    HW110041  11.265  10.072   8.448
 2734SOL    HW210042  11.216   9.967   8.351
 2735SOL     OW10043   3.389   7.699   7.829
 2735SOL    HW110044   3.396   7.643   7.906
 2735SOL    HW210045   3.325   7.655   7.772
 2736SOL     OW10046   5.305   3.088   6.515
 2736SOL    HW110047   5.212   3.066   6.517
 2736SOL    HW210048   5.349   3.006   6.540
 2737SOL     OW10049   6.662   3.391  10.940
 2737SOL    HW110050   6.617   3.373  11.023
 2737SOL    HW210051   6.636   3.319  10.883
 2738SOL     OW10052   3.178   3.754   0.340
 2738SOL    HW110053   3.114   3.782   0.405
 2738SOL    HW210054   3.131   3.689   0.287
 2739SOL     OW10055   5.806  13.591   3.521
 2739SOL    HW110056   5.819  13.686   3.522
 2739SOL    HW210057   5.731  13.577   3.463
 2740SOL     OW10058   4.439   9.906   8.434
 2740SOL    HW110059   4.518   9.854   8.449
 2740SOL    HW210060   4.472   9.994   8.412
 2741SOL     OW10061   7.308  12.043  11.284
 2741SOL    HW110062   7.338  11.955  11.309
 2741SOL    HW210063   7.338  12.053  11.194
 2742SOL     OW10064  10.617  11.743   3.156
 2742SOL    HW110065  10.552  11.806   3.125
 2742SOL    HW210066  10.689  11.750   3.093
 2743SOL     OW10067   1.706   4.686   8.962
 2743SOL    HW110068   1.612   4.699   8.948
 2743SOL    HW210069   1.711   4.627   9.038
 2744SOL     OW10070   9.979   8.562  14.274
 2744SOL    HW110071   9.931   8.599  14.349
 2744SOL    HW210072   9.933   8.595  14.197
 2745SOL     OW10073   5.895  11.904   2.621
 2745SOL    HW110074   5.988  11.911   2.639
 2745SOL    HW210075   5.882  11.814   2.591
 2746SOL     OW10076   3.167   2.173  10.027
 2746SOL    HW110077   3.225   2.098  10.012
 2746SOL    HW210078   3.221   2.236  10.075
 2747SOL     OW10079  11.164  12.708   4.849
 2747SOL    HW110080  11.150  12.736   4.758
 2747SOL    HW210081  11.167  12.789   4.899
 2748SOL     OW10082   0.773   9.309  12.041
 2748SOL    HW110083   0.844   9.250  12.065
 2748SOL    HW210084   0.807   9.396  12.059
 2749SOL     OW10085  11.779  10.730   9.765
 2749SOL    HW110086  11.705  10.713   9.706
 2749SOL    HW210087  11.741  10.779   9.838
 2750SOL     OW10088  12.912   0.018   7.731
 2750SOL    HW110089  12.820   0.041   7.736
 2750SOL    HW210090  12.913  14.799   7.709
 2751SOL     OW10091  14.592   8.651  10.561
 2751SOL    HW110092  14.537   8.654  10.640
 2751SOL    HW210093  14.656   8.721  10.574
 2752SOL     OW10094   2.736   7.260  13.387
 2752SOL    HW110095   2.711   7.351  13.376
 2752SOL    HW210096   2.792   7.241  13.312
 2753SOL     OW10097   2.428   8.568   1.370
 2753SOL    HW110098   2.412   8.530   1.456
 2753SOL    HW210099   2.432   8.663   1.386
 2754SOL     OW10100  13.530   0.216   6.647
 2754SOL    HW110101  13.580   0.181   6.720
 2754SOL    HW210102  13.438   0.203   6.672
 2755SOL     OW10103   6.667  11.182  14.747
 2755SOL    HW110104   6.678  11.232  14.828
 2755SOL    HW210105   6.751  11.189  14.703
 2756SOL     OW10106  13.138  10.453   6.705
 2756SOL    HW110107  13.084  10.393   6.654
 2756SOL    HW210108  13.174  10.514   6.640
 2757SOL     OW10109  13.764   4.891   8.123
 2757SOL    HW110110  13.775   4.929   8.210
 2757SOL    HW210111  13.847   4.909   8.078
 2758SOL     OW10112   8.108   4.412   5.509
 2758SOL    HW110113   8.069   4.333   5.474
 2758SOL    HW210114   8.050   4.438   5.581
 2759SOL     OW10115   3.787  11.581   5.865
 2759SOL    HW110116   3.823  11.501   5.905
 2759SOL    HW210117   3.760  11.635   5.939
 2760SOL     OW10118   2.843  14.361  12.125
 2760SOL    HW110119   2.756  14.401  12.120
 2760SOL    HW210120   2.832  14.275  12.084
 2761SOL     OW10121   1.182   2.654  13.531
 2761SOL    HW110122   1.263   2.700  13.555
 2761SOL    HW210123   1.182   2.576  13.587
 2762SOL     OW10124   1.440   5.899   8.465
 2762SOL    HW110125   1.527   5.885   8.428
 2762SOL    HW210126   1.448   5.874   8.557
 2763SOL     OW10127  14.293   1.554  14.612
 2763SOL    HW110128  14.336   1.484  14.562
 2763SOL    HW210129  14.365   1.614  14.635
 2764SOL     OW10130   7.632  10.293   8.585
 2764SOL    HW110131   7.635  10.270   8.492
 2764SOL    HW210132   7.609  10.386   8.586
 2765SOL     OW10133  11.982   1.527   8.303
 2765SOL    HW110134  12.057   1.534   8.361
 2765SOL    HW210135  11.908   1.560   8.354
 2766SOL     OW10136   6.969   4.066  12.833
 2766SOL    HW110137   6.965   4.085  12.739
 2766SOL    HW210138   6.879   4.077  12.864
 2767SOL     OW10139   5.483   2.033   8.359
 2767SOL    HW110140   5.429   2.000   8.287
 2767SOL    HW210141   5.421   2.064   8.424
 2768SOL     OW10142   7.803   3.982   7.999
 2768SOL    HW110143   7.763   4.016   7.919
 2768SOL    HW210144   7.731   3.943   8.048
 2769SOL     OW10145  11.751   3.914   5.310
 2769SOL    HW110146  11.802   3.863   5.374
 2769SOL    HW210147  11.695   3.970   5.364
 2770SOL     OW10148   9.619  13.777   5.072
 2770SOL    HW110149   9.577  13.849   5.025
 2770SOL    HW210150   9.577  13.698   5.038
 2771SOL     OW10151   5.804   1.651  11.155
 2771SOL    HW110152   5.858   1.730  11.143
 2771SOL    HW210153   5.735   1.660  11.089
 2772SOL     OW10154  12.472   1.845   6.632
 2772SOL    HW110155  12.426   1.922   6.665
 2772SOL    HW210156  12.410   1.802   6.573
 2773SOL     OW10157   0.116  11.144  13.030
 2773SOL    HW110158   0.050  11.102  13.086
 2773SOL    HW210159   0.191  11.157  13.087
 2774SOL     OW10160  14.103   2.892   0.048
 2774SOL    HW110161  14.011   2.871   0.065
 2774SOL    HW210162  14.105   2.987   0.042
 2775SOL     OW10163  13.963  11.487  12.076
 2775SOL    HW110164  14.054  11.489  12.105
 2775SOL    HW210165  13.913  11.463  12.153
 2776SOL     OW10166   6.017  13.003  12.840
 2776SOL    HW110167   6.022  13.042  12.928
 2776SOL    HW210168   6.060  12.918  12.849
 2777SOL     OW10169   5.429  13.581   9.951
 2777SOL    HW110170   5.405  13.639  10.023
 2777SOL    HW210171   5.477  13.637   9.890
 2778SOL     OW10172   9.305   4.657   0.790
 2778SOL    HW110173   9.250   4.578   0.785
 2778SOL    HW210174   9.297   4.685   0.881
 2779SOL     OW10175   6.427  13.895   6.887
 2779SOL    HW110176   6.414  13.989   6.896
 2779SOL    HW210177   6.407  13.859   6.974
 2780SOL     OW10178   3.421   7.078   3.153
 2780SOL    HW110179   3.441   6.986   3.137
 2780SOL    HW210180   3.380   7.107   3.072
 2781SOL     OW10181  11.672   9.094   5.373
 2781SOL    HW110182  11.761   9.102   5.340
 2781SOL    HW210183  11.620   9.067   5.297
 2782SOL     OW10184   8.413   2.249   2.665
 2782SOL    HW110185   8.347   2.192   2.627
 2782SOL    HW210186   8.478   2.190   2.702
 2783SOL     OW10187   6.030  12.424   4.287
 2783SOL    HW110188   6.068  12.441   4.201
 2783SOL    HW210189   6.037  12.329   4.298
 2784SOL     OW10190   1.330  13.870  13.499
 2784SOL    HW110191   1.251  13.824  13.528
 2784SOL    HW210192   1.321  13.958  13.536
 2785SOL     OW10193   3.933   4.279   8.196
 2785SOL    HW110194   3.843   4.312   8.190
 2785SOL    HW210195   3.978   4.319   8.122
 2786SOL     OW10196  11.802   5.102  10.445
 2786SOL    HW110197  11.779   5.095  10.538
 2786SOL    HW210198  11.802   5.196  10.428
 2787SOL     OW10199  14.057   2.074   2.168
 2787SOL    HW110200  14.138   2.047   2.123
 2787SOL    HW210201  14.006   2.118   2.101
 2788SOL     OW10202   9.551  14.055  14.792
 2788SOL    HW110203   9.550  14.095  14.705
 2788SOL    HW210204   9.471  14.003  14.796
 2789SOL     OW10205  13.021  13.547  13.973
 2789SOL    HW110206  12.942  13.578  14.017
 2789SOL    HW210207  12.990  13.509  13.891
 2790SOL     OW10208   0.679  12.101   0.862
 2790SOL    HW110209   0.749  12.152   0.903
 2790SOL    HW210210   0.722  12.021   0.832
 2791SOL     OW10211   1.180  14.150   4.478
 2791SOL    HW110212   1.274  14.136   4.481
 2791SOL    HW210213   1.167  14.240   4.506
 2792SOL     OW10214   5.888   4.174   4.398
 2792SOL    HW110215   5.834   4.238   4.352
 2792SOL    HW210216   5.974   4.216   4.405
 2793SOL     OW10217   9.745   8.735   2.962
 2793SOL    HW110218   9.806   8.665   2.987
 2793SOL    HW210219   9.713   8.709   2.876
 2794SOL     OW10220   7.417  13.825   7.772
 2794SOL    HW110221   7.368  13.783   7.702
 2794SOL    HW210222   7.472  13.890   7.727
 2795SOL     OW10223  10.127   2.971  11.757
 2795SOL    HW110224  10.098   2.981  11.666
 2795SOL    HW210225  10.222   2.960  11.752
 2796SOL     OW10226   7.692   6.627   7.464
 2796SOL    HW110227   7.659   6.636   7.553
 2796SOL    HW210228   7.614   6.631   7.409
 2797SOL     OW10229  13.897   5.898   6.249
 2797SOL    HW110230  13.871   5.824   6.194
 2797SOL    HW210231  13.865   5.975   6.202
 2798SOL     OW10232   0.919   0.965   0.865
 2798SOL    HW110233   0.987   0.933   0.805
 2798SOL    HW210234   0.866   0.888   0.886
 2799SOL     OW10235   5.515   7.899   2.608
 2799SOL    HW110236   5.577   7.960   2.648
 2799SOL    HW210237   5.429   7.929   2.638
 2800SOL     OW10238  14.288   0.947   3.642
 2800SOL    HW110239  14.197   0.964   3.618
 2800SOL    HW210240  14.283   0.885   3.714
 2801SOL     OW10241  10.259   5.735   0.774
 2801SOL    HW110242  10.329   5.678   0.806
 2801SOL    HW210243  10.258   5.808   0.836
 2802SOL     OW10244   0.183  11.945  10.591
 2802SOL    HW110245   0.224  11.870  10.548
 2802SOL    HW210246   0.216  12.021  10.543
 2803SOL     OW10247   6.159   9.609   9.522
 2803SOL    HW110248   6.131   9.698   9.546
 2803SOL    HW210249   6.206   9.578   9.600
 2804SOL     OW10250   2.623   9.612  10.339
 2804SOL    HW110251   2.647   9.530  10.382
 2804SOL    HW210252   2.620   9.591  10.246
 2805SOL     OW10253   7.687   8.374  13.329
 2805SOL    HW110254   7.613   8.373  13.390
 2805SOL    HW210255   7.727   8.287  13.338
 2806SOL     OW10256   9.224   7.212  10.386
 2806SOL    HW110257   9.205   7.304  10.366
 2806SOL    HW210258   9.174   7.194  10.465
 2807SOL     OW10259  10.098   7.566   7.557
 2807SOL    HW110260  10.173   7.511   7.580
 2807SOL    HW210261  10.032   7.504   7.525
 2808SOL     OW10262  10.894   7.006   5.554
 2808SOL    HW110263  10.910   6.988   5.647
 2808SOL    HW210264  10.966   6.963   5.508
 2809SOL     OW10265  14.608  12.100   6.244
 2809SOL    HW110266  14.523  12.056   6.245
 2809SOL    HW210267  14.590  12.186   6.205
 2810SOL     OW10268   3.907   6.655  11.023
 2810SOL    HW110269   3.949   6.639  11.108
 2810SOL    HW210270   3.890   6.749  11.021
 2811SOL     OW10271   0.180  14.411  13.210
 2811SOL    HW110272   0.240  14.347  13.249
 2811SOL    HW210273   0.185  14.394  13.116
 2812SOL     OW10274   2.752  11.417   0.983
 2812SOL    HW110275   2.661  11.394   0.969
 2812SOL    HW210276   2.799  11.375   0.911
 2813SOL     OW10277  11.982   5.293   2.812
 2813SOL    HW110278  11.904   5.315   2.862
 2813SOL    HW210279  11.986   5.197   2.815
 2814SOL     OW10280  10.020   2.291   0.902
 2814SOL    HW110281  10.069   2.218   0.864
 2814SOL    HW210282   9.963   2.250   0.968
 2815SOL     OW10283  11.610   4.012   3.797
 2815SOL    HW110284  11.557   4.086   3.827
 2815SOL    HW210285  11.561   3.976   3.723
 2816SOL     OW10286   2.299   1.102   2.476
 2816SOL    HW110287   2.268   1.024   2.522
 2816SOL    HW210288   2.230   1.120   2.412
 2817SOL     OW10289  14.656   1.276  13.586
 2817SOL    HW110290  14.628   1.355  13.540
 2817SOL    HW210291  14.668   1.211  13.516
 2818SOL     OW10292   1.517   6.347  13.309
 2818SOL    HW110293   1.452   6.282  13.283
 2818SOL    HW210294   1.595   6.323  13.259
 2819SOL     OW10295   5.335   5.235   1.515
 2819SOL    HW110296   5.305   5.280   1.437
 2819SOL    HW210297   5.426   5.212   1.496
 2820SOL     OW10298   4.666  13.653   3.283
 2820SOL    HW110299   4.659  13.566   3.244
 2820SOL    HW210300   4.726  13.641   3.357
 2821SOL     OW10301   1.863   6.170   4.752
 2821SOL    HW110302   1.891   6.080   4.742
 2821SOL    HW210303   1.930   6.210   4.807
 2822SOL     OW10304   1.595   0.257   3.289
 2822SOL    HW110305   1.503   0.246   3.314
 2822SOL    HW210306   1.596   0.242   3.194
 2823SOL     OW10307   7.886   6.871   9.865
 2823SOL    HW110308   7.820   6.930   9.828
 2823SOL    HW210309   7.938   6.843   9.790
 2824SOL     OW10310   7.644  11.022   7.518
 2824SOL    HW110311   7.591  10.950   7.485
 2824SOL    HW210312   7.636  11.091   7.452
 2825SOL     OW10313  14.587   8.527   4.319
 2825SOL    HW110314  14.544   8.460   4.372
 2825SOL    HW210315  14.520   8.593   4.304
 2826SOL     OW10316  14.606  14.665  11.950
 2826SOL    HW110317  14.670  14.594  11.950
 2826SOL    HW210318  14.610  14.702  11.862
 2827SOL     OW10319  14.143  12.133   3.102
 2827SOL    HW110320  14.074  12.111   3.165
 2827SOL    HW210321  14.144  12.229   3.100
 2828SOL     OW10322  14.294  11.391  10.993
 2828SOL    HW110323  14.311  11.441  11.073
 2828SOL    HW210324  14.229  11.326  11.019
 2829SOL     OW10325   2.683   3.345   8.205
 2829SOL    HW110326   2.673   3.440   8.194
 2829SOL    HW210327   2.672   3.310   8.116
 2830SOL     OW10328   0.102   8.638   3.968
 2830SOL    HW110329   0.176   8.584   3.995
 2830SOL    HW210330   0.025   8.589   3.997
 2831SOL     OW10331   4.434   3.443  12.576
 2831SOL    HW110332   4.520   3.477  12.552
 2831SOL    HW210333   4.424   3.466  12.669
 2832SOL     OW10334   5.311   9.903   1.773
 2832SOL    HW110335   5.374   9.832   1.761
 2832SOL    HW210336   5.226   9.858   1.777
 2833SOL     OW10337   3.144   4.898  12.692
 2833SOL    HW110338   3.088   4.843  12.637
 2833SOL    HW210339   3.091   4.975  12.712
 2834SOL     OW10340   8.709   4.833   3.048
 2834SOL    HW110341   8.801   4.851   3.026
 2834SOL    HW210342   8.661   4.909   3.015
 2835SOL     OW10343  11.641   5.433   7.012
 2835SOL    HW110344  11.595   5.455   7.093
 2835SOL    HW210345  11.572   5.408   6.951
 2836SOL     OW10346  14.820   0.892   7.379
 2836SOL    HW110347  14.802   0.828   7.310
 2836SOL    HW210348  14.736   0.902   7.424
 2837SOL     OW10349   2.724   3.247  10.816
 2837SOL    HW110350   2.777   3.310  10.864
 2837SOL    HW210351   2.788   3.187  10.776
 2838SOL     OW10352  14.316  11.184   6.135
 2838SOL    HW110353  14.244  11.209   6.077
 2838SOL    HW210354  14.395  11.207   6.087
 2839SOL     OW10355  10.334  10.303   9.179
 2839SOL    HW110356  10.250  10.273   9.213
 2839SOL    HW210357  10.391  10.225   9.183
 2840SOL     OW10358  10.428   3.014   4.760
 2840SOL    HW110359  10.396   2.991   4.847
 2840SOL    HW210360  10.478   2.937   4.732
 2841SOL     OW10361  14.383   0.531  13.281
 2841SOL    HW110362  14.426   0.558  13.200
 2841SOL    HW210363  14.330   0.606  13.307
 2842SOL     OW10364   6.220   5.277   2.038
 2842SOL    HW110365   6.141   5.280   1.984
 2842SOL    HW210366   6.291   5.297   1.978
 2843SOL     OW10367   5.087  14.277   3.855
 2843SOL    HW110368   4.992  14.274   3.860
 2843SOL    HW210369   5.114  14.321   3.936
 2844SOL     OW10370   5.690   6.605   7.201
 2844SOL    HW110371   5.641   6.653   7.268
 2844SOL    HW210372   5.765   6.568   7.248
 2845SOL     OW10373  10.427   6.086   6.891
 2845SOL    HW110374  10.428   5.993   6.869
 2845SOL    HW210375  10.417   6.131   6.807
 2846SOL     OW10376   6.024   2.714   7.679
 2846SOL    HW110377   6.103   2.760   7.652
 2846SOL    HW210378   5.990   2.675   7.599
 2847SOL     OW10379   1.745   3.398   9.669
 2847SOL    HW110380   1.829   3.444   9.673
 2847SOL    HW210381   1.759   3.318   9.720
 2848SOL     OW10382  11.558   0.424   2.518
 2848SOL    HW110383  11.555   0.407   2.613
 2848SOL    HW210384  11.470   0.401   2.488
 2849SOL     OW10385  11.948   0.087   9.777
 2849SOL    HW110386  12.040   0.105   9.756
 2849SOL    HW210387  11.898   0.139   9.714
 2850SOL     OW10388  14.574   4.473   0.109
 2850SOL    HW110389  14.548   4.491   0.200
 2850SOL    HW210390  14.546   4.551   0.061
 2851SOL     OW10391   7.905   2.858   4.211
 2851SOL    HW110392   7.980   2.899   4.253
 2851SOL    HW210393   7.940   2.777   4.174
 2852SOL     OW10394  11.446   6.378  13.446
 2852SOL    HW110395  11.493   6.419  13.519
 2852SOL    HW210396  11.399   6.305  13.485
 2853SOL     OW10397  11.153   2.899   7.275
 2853SOL    HW110398  11.138   2.862   7.188
 2853SOL    HW210399  11.125   2.990   7.268
 2854SOL     OW10400   8.020  10.818  13.946
 2854SOL    HW110401   8.038  10.901  13.901
 2854SOL    HW210402   8.090  10.811  14.011
 2855SOL     OW10403   6.301  12.039  10.080
 2855SOL    HW110404   6.348  11.956  10.069
 2855SOL    HW210405   6.231  12.019  10.142
 2856SOL     OW10406   5.385  13.819   1.858
 2856SOL    HW110407   5.465  13.861   1.890
 2856SOL    HW210408   5.385  13.835   1.764
 2857SOL     OW10409   1.730  14.637  11.612
 2857SOL    HW110410   1.721  14.583  11.533
 2857SOL    HW210411   1.665  14.601  11.673
 2858SOL     OW10412  13.875   7.823  12.995
 2858SOL    HW110413  13.896   7.910  12.961
 2858SOL    HW210414  13.781   7.813  12.980
 2859SOL     OW10415   9.386   3.796   3.206
 2859SOL    HW110416   9.373   3.706   3.234
 2859SOL    HW210417   9.304   3.840   3.227
 2860SOL     OW10418  14.794  11.703   5.350
 2860SOL    HW110419  14.757  11.789   5.370
 2860SOL    HW210420  14.724  11.641   5.370
 2861SOL     OW10421   9.467   0.649  10.672
 2861SOL    HW110422   9.545   0.600  10.647
 2861SOL    HW210423   9.447   0.621  10.761
 2862SOL     OW10424  12.410  14.448   4.451
 2862SOL    HW110425  12.322  14.475   4.477
 2862SOL    HW210426  12.419  14.359   4.485
 2863SOL     OW10427   4.746  13.195   7.494
 2863SOL    HW110428   4.789  13.266   7.542
 2863SOL    HW210429   4.806  13.121   7.501
 2864SOL     OW10430   6.362  13.060   3.771
 2864SOL    HW110431   6.301  13.096   3.706
 2864SOL    HW210432   6.375  13.131   3.834
 2865SOL     OW10433   9.495   2.125   8.726
 2865SOL    HW110434   9.486   2.037   8.764
 2865SOL    HW210435   9.526   2.179   8.799
 2866SOL     OW10436   7.629   0.319   3.154
 2866SOL    HW110437   7.678   0.239   3.172
 2866SOL    HW210438   7.643   0.374   3.231
 2867SOL     OW10439  11.158   6.876   5.118
 2867SOL    HW110440  11.144   6.964   5.083
 2867SOL    HW210441  11.232   6.842   5.067
 2868SOL     OW10442  11.468   9.024   1.210
 2868SOL    HW110443  11.472   8.955   1.276
 2868SOL    HW210444  11.376   9.046   1.203
 2869SOL     OW10445  10.977  13.810   2.161
 2869SOL    HW110446  10.897  13.795   2.211
 2869SOL    HW210447  11.028  13.870   2.214
 2870SOL     OW10448   4.529   2.079   5.116
 2870SOL    HW110449   4.531   2.172   5.091
 2870SOL    HW210450   4.613   2.044   5.085
 2871SOL     OW10451   8.271   8.125   3.211
 2871SOL    HW110452   8.360   8.160   3.215
 2871SOL    HW210453   8.241   8.146   3.123
 2872SOL     OW10454  10.778   7.935   2.191
 2872SOL    HW110455  10.687   7.953   2.166
 2872SOL    HW210456  10.777   7.941   2.286
 2873SOL     OW10457   2.570  14.015  10.037
 2873SOL    HW110458   2.623  14.046  10.110
 2873SOL    HW210459   2.632  14.009   9.964
 2874SOL     OW10460   2.363  11.883  11.190
 2874SOL    HW110461   2.430  11.950  11.205
 2874SOL    HW210462   2.396  11.805  11.234
 2875SOL     OW10463  14.629   2.313   6.079
 2875SOL    HW110464  14.713   2.323   6.034
 2875SOL    HW210465  14.621   2.219   6.095
 2876SOL     OW10466   3.485   2.507   8.784
 2876SOL    HW110467   3.528   2.542   8.862
 2876SOL    HW210468   3.557   2.473   8.730
 2877SOL     OW10469   8.557  14.793   4.678
 2877SOL    HW110470   8.526  14.813   4.766
 2877SOL    HW210471   8.638  14.744   4.691
 2878SOL     OW10472   3.229   4.545   2.462
 2878SOL    HW110473   3.305   4.603   2.458
 2878SOL    HW210474   3.155   4.603   2.474
 2879SOL     OW10475   0.155   5.468   9.263
 2879SOL    HW110476   0.238   5.439   9.226
 2879SOL    HW210477   0.151   5.427   9.350
 2880SOL     OW10478   6.553   3.594   3.342
 2880SOL    HW110479   6.585   3.635   3.422
 2880SOL    HW210480   6.497   3.660   3.302
 2881SOL     OW10481   5.616  13.958   5.683
 2881SOL    HW110482   5.569  14.017   5.623
 2881SOL    HW210483   5.610  13.872   5.641
 2882SOL     OW10484   9.223   4.346   1.574
 2882SOL    HW110485   9.233   4.252   1.555
 2882SOL    HW210486   9.132   4.365   1.549
 2883SOL     OW10487   4.160   3.507  13.944
 2883SOL    HW110488   4.237   3.460  13.914
 2883SOL    HW210489   4.140   3.569  13.873
 2884SOL     OW10490   3.490   7.969  11.596
 2884SOL    HW110491   3.548   7.897  11.621
 2884SOL    HW210492   3.546   8.028  11.546
 2885SOL     OW10493   3.457   1.159   3.652
 2885SOL    HW110494   3.387   1.203   3.604
 2885SOL    HW210495   3.414   1.122   3.729
 2886SOL     OW10496   6.447   8.599   7.924
 2886SOL    HW110497   6.493   8.515   7.918
 2886SOL    HW210498   6.490   8.655   7.860
 2887SOL     OW10499  14.372   4.183  11.991
 2887SOL    HW110500  14.367   4.208  12.083
 2887SOL    HW210501  14.310   4.241  11.947
 2888SOL     OW10502  13.176   9.598   6.448
 2888SOL    HW110503  13.138   9.683   6.470
 2888SOL    HW210504  13.103   9.546   6.417
 2889SOL     OW10505   5.284  10.921   4.678
 2889SOL    HW110506   5.260  10.954   4.591
 2889SOL    HW210507   5.245  10.984   4.739
 2890SOL     OW10508   1.487  12.798   3.219
 2890SOL    HW110509   1.551  12.793   3.147
 2890SOL    HW210510   1.422  12.732   3.197
 2891SOL     OW10511   4.424  11.756   1.403
 2891SOL    HW110512   4.335  11.745   1.435
 2891SOL    HW210513   4.423  11.717   1.315
 2892SOL     OW10514   5.622  12.282   4.417
 2892SOL    HW110515   5.595  12.217   4.482
 2892SOL    HW210516   5.573  12.260   4.339
 2893SOL     OW10517   0.361  12.614   8.658
 2893SOL    HW110518   0.291  12.665   8.699
 2893SOL    HW210519   0.426  12.680   8.631
 2894SOL     OW10520  12.784  12.877  11.491
 2894SOL    HW110521  12.809  12.792  11.455
 2894SOL    HW210522  12.730  12.856  11.567
 2895SOL     OW10523   5.882   8.540   5.889
 2895SOL    HW110524   5.787   8.550   5.894
 2895SOL    HW210525   5.912   8.620   5.846
 2896SOL     OW10526   7.926   2.061  10.588
 2896SOL    HW110527   7.847   2.012  10.565
 2896SOL    HW210528   7.931   2.056  10.684
 2897SOL     OW10529  13.572   5.558   6.025
 2897SOL    HW110530  13.498   5.601   5.983
 2897SOL    HW210531  13.532   5.497   6.088
 2898SOL     OW10532   5.587  11.485  10.455
 2898SOL    HW110533   5.551  11.401  10.482
 2898SOL    HW210534   5.609  11.472  10.362
 2899SOL     OW10535   0.724   3.755   0.556
 2899SOL    HW110536   0.761   3.739   0.642
 2899SOL    HW210537   0.698   3.847   0.558
 2900SOL     OW10538   8.306   9.375   4.578
 2900SOL    HW110539   8.226   9.396   4.625
 2900SOL    HW210540   8.375   9.378   4.645
 2901SOL     OW10541  10.449   8.997   7.619
 2901SOL    HW110542  10.457   9.092   7.605
 2901SOL    HW210543  10.415   8.964   7.536
 2902SOL     OW10544   8.669   3.675   3.216
 2902SOL    HW110545   8.599   3.737   3.238
 2902SOL    HW210546   8.675   3.619   3.293
 2903SOL     OW10547   1.419  14.295   2.196
 2903SOL    HW110548   1.418  14.371   2.253
 2903SOL    HW210549   1.443  14.222   2.253
 2904SOL     OW10550   8.370   3.109  11.549
 2904SOL    HW110551   8.424   3.169  11.601
 2904SOL    HW210552   8.280   3.136  11.566
 2905SOL     OW10553   7.671   8.497  12.069
 2905SOL    HW110554   7.733   8.567  12.088
 2905SOL    HW210555   7.724   8.426  12.034
 2906SOL     OW10556   8.216  10.042   4.757
 2906SOL    HW110557   8.150  10.109   4.740
 2906SOL    HW210558   8.217  10.033   4.852
 2907SOL     OW10559   3.697   0.862   5.801
 2907SOL    HW110560   3.716   0.939   5.747
 2907SOL    HW210561   3.617   0.825   5.762
 2908SOL     OW10562   4.282   1.342   7.520
 2908SOL    HW110563   4.291   1.418   7.462
 2908SOL    HW210564   4.221   1.285   7.474
 2909SOL     OW10565   4.716   2.516   3.061
 2909SOL    HW110566   4.696   2.452   2.992
 2909SOL    HW210567   4.809   2.502   3.081
 2910SOL     OW10568   4.248   3.013   4.289
 2910SOL    HW110569   4.191   3.077   4.246
 2910SOL    HW210570   4.224   2.929   4.249
 2911SOL     OW10571  11.810   8.356   7.930
 2911SOL    HW110572  11.903   8.333   7.936
 2911SOL    HW210573  11.772   8.287   7.876
 2912SOL     OW10574   5.533   9.381  14.732
 2912SOL    HW110575   5.478   9.320  14.684
 2912SOL    HW210576   5.577   9.432  14.664
 2913SOL     OW10577   7.666   8.765   9.931
 2913SOL    HW110578   7.597   8.779   9.866
 2913SOL    HW210579   7.674   8.670   9.938
 2914SOL     OW10580   3.666  13.272   9.038
 2914SOL    HW110581   3.576  13.296   9.019
 2914SOL    HW210582   3.713  13.355   9.044
 2915SOL     OW10583   3.197   9.456   5.315
 2915SOL    HW110584   3.200   9.548   5.289
 2915SOL    HW210585   3.137   9.415   5.254
 2916SOL     OW10586   2.413  11.569  11.207
 2916SOL    HW110587   2.449  11.494  11.158
 2916SOL    HW210588   2.330  11.588  11.165
 2917SOL     OW10589   8.737  14.861  11.081
 2917SOL    HW110590   8.684   0.066  11.096
 2917SOL    HW210591   8.705  14.798  11.146
 2918SOL     OW10592   9.140   3.178   1.778
 2918SOL    HW110593   9.168   3.095   1.738
 2918SOL    HW210594   9.048   3.164   1.800
 2919SOL     OW10595   3.098   0.564   7.830
 2919SOL    HW110596   3.028   0.543   7.892
 2919SOL    HW210597   3.144   0.637   7.870
 2920SOL     OW10598   0.330   8.051   5.936
 2920SOL    HW110599   0.291   7.974   5.978
 2920SOL    HW210600   0.301   8.125   5.989
 2921SOL     OW10601   8.584   3.303   7.715
 2921SOL    HW110602   8.531   3.382   7.715
 2921SOL    HW210603   8.539   3.244   7.776
 2922SOL     OW10604   4.003  14.130   4.917
 2922SOL    HW110605   4.023  14.169   4.832
 2922SOL    HW210606   3.917  14.090   4.905
 2923SOL     OW10607   2.886  13.800   0.985
 2923SOL    HW110608   2.814  13.761   0.937
 2923SOL    HW210609   2.863  13.893   0.992
 2924SOL     OW10610   7.268   0.886   7.872
 2924SOL    HW110611   7.267   0.823   7.800
 2924SOL    HW210612   7.348   0.865   7.921
 2925SOL     OW10613  13.638   8.319  13.957
 2925SOL    HW110614  13.584   8.390  13.992
 2925SOL    HW210615  13.726   8.337  13.990
 2926SOL     OW10616  13.327   4.687   9.741
 2926SOL    HW110617  13.279   4.715   9.819
 2926SOL    HW210618  13.284   4.605   9.715
 2927SOL     OW10619   8.550  11.326   6.955
 2927SOL    HW110620   8.515  11.278   7.031
 2927SOL    HW210621   8.595  11.259   6.903
 2928SOL     OW10622   9.114  13.597  12.553
 2928SOL    HW110623   9.066  13.680  12.561
 2928SOL    HW210624   9.135  13.573  12.644
 2929SOL     OW10625   0.173  11.241  13.419
 2929SOL    HW110626   0.218  11.322  13.397
 2929SOL    HW210627   0.082  11.256  13.391
 2930SOL     OW10628   5.513   9.545   6.240
 2930SOL    HW110629   5.580   9.513   6.179
 2930SOL    HW210630   5.521   9.640   6.236
 2931SOL     OW10631   3.100   6.177  11.957
 2931SOL    HW110632   3.077   6.147  11.869
 2931SOL    HW210633   3.193   6.157  11.966
 2932SOL     OW10634   2.248   5.340   3.484
 2932SOL    HW110635   2.232   5.370   3.573
 2932SOL    HW210636   2.167   5.295   3.459
 2933SOL     OW10637   3.329   4.363  10.023
 2933SOL    HW110638   3.423   4.350  10.007
 2933SOL    HW210639   3.289   4.357   9.936
 2934SOL     OW10640  13.284   1.236   9.536
 2934SOL    HW110641  13.262   1.165   9.476
 2934SOL    HW210642  13.275   1.198   9.623
 2935SOL     OW10643   9.729   7.446   8.518
 2935SOL    HW110644   9.762   7.366   8.559
 2935SOL    HW210645   9.655   7.416   8.465
 2936SOL     OW10646   3.820   0.609  10.370
 2936SOL    HW110647   3.774   0.530  10.398
 2936SOL    HW210648   3.830   0.660  10.451
 2937SOL     OW10649  13.368   1.544   5.160
 2937SOL    HW110650  13.448   1.593   5.142
 2937SOL    HW210651  13.352   1.494   5.080
 2938SOL     OW10652  14.785   3.064   6.235
 2938SOL    HW110653  14.841   3.084   6.310
 2938SOL    HW210654  14.696   3.066   6.270
 2939SOL     OW10655  13.721  13.592   1.998
 2939SOL    HW110656  13.645  13.534   2.006
 2939SOL    HW210657  13.697  13.653   1.929
 2940SOL     OW10658   7.428   0.566  10.109
 2940SOL    HW110659   7.434   0.595  10.018
 2940SOL    HW210660   7.507   0.603  10.150
 2941SOL     OW10661   0.807   7.664   4.298
 2941SOL    HW110662   0.788   7.690   4.388
 2941SOL    HW210663   0.752   7.720   4.244
 2942SOL     OW10664   5.178  10.296  12.863
 2942SOL    HW110665   5.231  10.269  12.788
 2942SOL    HW210666   5.218  10.378  12.892
 2943SOL     OW10667  14.052   7.138   2.352
 2943SOL    HW110668  14.034   7.217   2.404
 2943SOL    HW210669  14.142   7.151   2.321
 2944SOL     OW10670   8.066   7.549  13.546
 2944SOL    HW110671   8.035   7.625  13.497
 2944SOL    HW210672   8.038   7.566  13.636
 2945SOL     OW10673   2.644  11.355   4.833
 2945SOL    HW110674   2.664  11.372   4.741
 2945SOL    HW210675   2.628  11.261   4.837
 2946SOL     OW10676  13.175   7.127   7.959
 2946SOL    HW110677  13.177   7.222   7.951
 2946SOL    HW210678  13.235   7.107   8.031
 2947SOL     OW10679  13.229   4.325  13.264
 2947SOL    HW110680  13.138   4.341  13.288
 2947SOL    HW210681  13.250   4.241  13.305
 2948SOL     OW10682   1.835   2.764   6.455
 2948SOL    HW110683   1.917   2.765   6.504
 2948SOL    HW210684   1.815   2.671   6.443
 2949SOL     OW10685  10.887  11.777   5.445
 2949SOL    HW110686  10.969  11.790   5.397
 2949SOL    HW210687  10.830  11.849   5.416
 2950SOL     OW10688  12.376   4.376   9.260
 2950SOL    HW110689  12.448   4.329   9.217
 2950SOL    HW210690  12.420   4.441   9.316
 2951SOL     OW10691   1.410  10.307   6.801
 2951SOL    HW110692   1.474  10.281   6.734
 2951SOL    HW210693   1.457  10.300   6.884
 2952SOL     OW10694  11.625   0.078  10.335
 2952SOL    HW110695  11.541   0.051  10.297
 2952SOL    HW210696  11.645   0.008  10.398
 2953SOL     OW10697   8.881   8.523   8.165
 2953SOL    HW110698   8.863   8.438   8.123
 2953SOL    HW210699   8.827   8.522   8.244
 2954SOL     OW10700   9.541   5.145  13.606
 2954SOL    HW110701   9.529   5.223  13.553
 2954SOL    HW210702   9.452   5.112  13.621
 2955SOL     OW10703  13.997   8.626   7.296
 2955SOL    HW110704  13.981   8.598   7.386
 2955SOL    HW210705  14.075   8.578   7.270
 2956SOL     OW10706   6.099   7.900  10.232
 2956SOL    HW110707   6.163   7.958  10.191
 2956SOL    HW210708   6.128   7.812  10.208
 2957SOL     OW10709   6.104   6.260  11.183
 2957SOL    HW110710   6.106   6.289  11.274
 2957SOL    HW210711   6.033   6.309  11.143
 2958SOL     OW10712  11.604   1.122  14.604
 2958SOL    HW110713  11.609   1.047  14.545
 2958SOL    HW210714  11.613   1.199  14.546
 2959SOL     OW10715   1.536   6.217   8.269
 2959SOL    HW110716   1.502   6.199   8.356
 2959SOL    HW210717   1.507   6.306   8.249
 2960SOL     OW10718   5.975   0.235  10.312
 2960SOL    HW110719   5.919   0.237  10.390
 2960SOL    HW210720   5.922   0.192  10.245
 2961SOL     OW10721  11.843   4.249   9.355
 2961SOL    HW110722  11.859   4.269   9.262
 2961SOL    HW210723  11.839   4.335   9.397
 2962SOL     OW10724  14.724  13.391   5.024
 2962SOL    HW110725  14.725  13.332   4.948
 2962SOL    HW210726  14.660  13.458   5.001
 2963SOL     OW10727  12.576   3.475   2.648
 2963SOL    HW110728  12.506   3.434   2.700
 2963SOL    HW210729  12.584   3.419   2.571
 2964SOL     OW10730   9.349  10.778   3.394
 2964SOL    HW110731   9.338  10.840   3.322
 2964SOL    HW210732   9.441  10.783   3.416
 2965SOL     OW10733  12.662  10.680   1.758
 2965SOL    HW110734  12.725  10.696   1.829
 2965SOL    HW210735  12.624  10.766   1.740
 2966SOL     OW10736   0.505  14.365   5.334
 2966SOL    HW110737   0.520  14.459   5.327
 2966SOL    HW210738   0.593  14.326   5.332
 2967SOL     OW10739   0.696   9.401  11.546
 2967SOL    HW110740   0.662   9.437  11.627
 2967SOL    HW210741   0.757   9.332  11.573
 2968SOL     OW10742   6.275  11.570   0.853
 2968SOL    HW110743   6.215  11.599   0.784
 2968SOL    HW210744   6.263  11.475   0.857
 2969SOL     OW10745  13.785   5.215  13.142
 2969SOL    HW110746  13.815   5.304  13.126
 2969SOL    HW210747  13.805   5.168  13.062
 2970SOL     OW10748  14.265   8.936  10.761
 2970SOL    HW110749  14.196   8.920  10.697
 2970SOL    HW210750  14.307   8.851  10.773
 2971SOL     OW10751   4.225   4.296   2.029
 2971SOL    HW110752   4.227   4.271   2.122
 2971SOL    HW210753   4.161   4.237   1.990
 2972SOL     OW10754   8.785   9.603   4.528
 2972SOL    HW110755   8.788   9.510   4.504
 2972SOL    HW210756   8.703   9.634   4.491
 2973SOL     OW10757   4.572  13.030  11.805
 2973SOL    HW110758   4.564  13.068  11.892
 2973SOL    HW210759   4.526  12.946  11.811
 2974SOL     OW10760   7.226  12.641  13.926
 2974SOL    HW110761   7.308  12.689  13.940
 2974SOL    HW210762   7.160  12.694  13.971
 2975SOL     OW10763   5.917   4.889   0.317
 2975SOL    HW110764   5.823   4.889   0.299
 2975SOL    HW210765   5.955   4.938   0.244
 2976SOL     OW10766  13.919  10.218   6.230
 2976SOL    HW110767  13.961  10.223   6.144
 2976SOL    HW210768  13.828  10.194   6.211
 2977SOL     OW10769   9.907   6.059   8.767
 2977SOL    HW110770   9.998   6.081   8.783
 2977SOL    HW210771   9.859   6.099   8.840
 2978SOL     OW10772  11.115   6.467  11.944
 2978SOL    HW110773  11.134   6.556  11.914
 2978SOL    HW210774  11.021   6.457  11.929
 2979SOL     OW10775   5.338   4.011   1.582
 2979SOL    HW110776   5.429   4.002   1.554
 2979SOL    HW210777   5.290   3.947   1.530
 2980SOL     OW10778   5.338   6.610  13.430
 2980SOL    HW110779   5.320   6.640  13.340
 2980SOL    HW210780   5.423   6.567  13.424
 2981SOL     OW10781  10.202   3.874   9.514
 2981SOL    HW110782  10.129   3.927   9.482
 2981SOL    HW210783  10.162   3.814   9.578
 2982SOL     OW10784   9.451  11.637   4.215
 2982SOL    HW110785   9.502  11.613   4.137
 2982SOL    HW210786   9.483  11.725   4.237
 2983SOL     OW10787  12.220  11.735  12.331
 2983SOL    HW110788  12.205  11.767  12.241
 2983SOL    HW210789  12.148  11.674  12.346
 2984SOL     OW10790  13.624  13.146   4.172
 2984SOL    HW110791  13.529  13.134   4.165
 2984SOL    HW210792  13.660  13.058   4.160
 2985SOL     OW10793   7.372  14.378   0.594
 2985SOL    HW110794   7.306  14.433   0.637
 2985SOL    HW210795   7.347  14.289   0.618
 2986SOL     OW10796  13.429   9.582   3.645
 2986SOL    HW110797  13.522   9.601   3.648
 2986SOL    HW210798  13.397   9.602   3.733
 2987SOL     OW10799   3.769   5.481   6.212
 2987SOL    HW110800   3.737   5.457   6.125
 2987SOL    HW210801   3.691   5.512   6.258
 2988SOL     OW10802  11.625   7.794   4.875
 2988SOL    HW110803  11.644   7.843   4.955
 2988SOL    HW210804  11.547   7.742   4.897
 2989SOL     OW10805  10.075   0.691  10.448
 2989SOL    HW110806  10.170   0.685  10.461
 2989SOL    HW210807  10.040   0.708  10.536
 2990SOL     OW10808  10.354   3.753   5.719
 2990SOL    HW110809  10.441   3.782   5.693
 2990SOL    HW210810  10.293   3.811   5.673
 2991SOL     OW10811   7.859   9.894  13.350
 2991SOL    HW110812   7.835   9.885  13.258
 2991SOL    HW210813   7.955   9.889  13.351
 2992SOL     OW10814   7.261  13.949   5.383
 2992SOL    HW110815   7.292  13.874   5.434
 2992SOL    HW210816   7.251  14.019   5.447
 2993SOL     OW10817   3.272   0.981  11.763
 2993SOL    HW110818   3.357   1.025  11.760
 2993SOL    HW210819   3.290   0.896  11.802
 2994SOL     OW10820  10.843  13.972   7.464
 2994SOL    HW110821  10.765  13.965   7.519
 2994SOL    HW210822  10.916  13.970   7.526
 2995SOL     OW10823  14.298  13.577   0.617
 2995SOL    HW110824  14.281  13.592   0.710
 2995SOL    HW210825  14.385  13.536   0.615
 2996SOL     OW10826   2.462   0.929   9.748
 2996SOL    HW110827   2.515   0.886   9.815
 2996SOL    HW210828   2.470   1.022   9.768
 2997SOL     OW10829  10.062   2.033   1.757
 2997SOL    HW110830   9.993   2.094   1.784
 2997SOL    HW210831  10.064   2.039   1.662
 2998SOL     OW10832   2.149  10.058   2.321
 2998SOL    HW110833   2.175  10.113   2.395
 2998SOL    HW210834   2.074  10.105   2.283
 2999SOL     OW10835  14.714   3.069  12.850
 2999SOL    HW110836  14.643   3.014  12.881
 2999SOL    HW210837  14.721   3.139  12.915
 3000SOL     OW10838  11.075  14.527   8.597
 3000SOL    HW110839  11.097  14.469   8.525
 3000SOL    HW210840  11.133  14.602   8.586
 3001SOL     OW10841  11.035   1.382   4.918
 3001SOL    HW110842  10.958   1.376   4.861
 3001SOL    HW210843  11.056   1.475   4.920
 3002SOL     OW10844   1.767   0.180   7.087
 3002SOL    HW110845   1.776   0.094   7.129
 3002SOL    HW210846   1.673   0.192   7.077
 3003SOL     OW10847  11.899  10.767   7.686
 3003SOL    HW110848  11.881  10.682   7.727
 3003SOL    HW210849  11.830  10.824   7.718
 3004SOL     OW10850  13.916   4.223   9.402
 3004SOL    HW110851  13.897   4.226   9.496
 3004SOL    HW210852  13.868   4.146   9.371
 3005SOL     OW10853  10.190   7.935  14.678
 3005SOL    HW110854  10.128   7.965  14.743
 3005SOL    HW210855  10.180   7.995  14.605
 3006SOL     OW10856  11.322   4.048   4.068
 3006SOL    HW110857  11.230   4.042   4.042
 3006SOL    HW210858  11.355   4.126   4.023
 3007SOL     OW10859  10.929  14.396  10.603
 3007SOL    HW110860  10.833  14.396  10.604
 3007SOL    HW210861  10.954  14.410  10.694
 3008SOL     OW10862   8.970   3.533   8.411
 3008SOL    HW110863   8.936   3.524   8.322
 3008SOL    HW210864   8.990   3.444   8.439
 3009SOL     OW10865   0.692   7.156  12.539
 3009SOL    HW110866   0.699   7.211  12.461
 3009SOL    HW210867   0.611   7.106  12.525
 3010SOL     OW10868   4.294  14.759  10.808
 3010SOL    HW110869   4.237  14.799  10.742
 3010SOL    HW210870   4.364  14.718  10.758
 3011SOL     OW10871   4.730  10.638   7.265
 3011SOL    HW110872   4.751  10.640   7.358
 3011SOL    HW210873   4.796  10.693   7.224
 3012SOL     OW10874   4.512  11.698   4.835
 3012SOL    HW110875   4.532  11.790   4.817
 3012SOL    HW210876   4.570  11.675   4.908
 3013SOL     OW10877   5.938  12.379  10.565
 3013SOL    HW110878   5.974  12.352  10.481
 3013SOL    HW210879   5.922  12.297  10.611
 3014SOL     OW10880  12.801   8.426  10.250
 3014SOL    HW110881  12.730   8.385  10.200
 3014SOL    HW210882  12.782   8.520  10.245
 3015SOL     OW10883  12.004   8.591   3.629
 3015SOL    HW110884  12.065   8.650   3.585
 3015SOL    HW210885  12.032   8.592   3.721
 3016SOL     OW10886  11.772   8.965  11.005
 3016SOL    HW110887  11.788   8.933  10.916
 3016SOL    HW210888  11.786   8.889  11.061
 3017SOL     OW10889  10.470   3.520   1.612
 3017SOL    HW110890  10.473   3.477   1.526
 3017SOL    HW210891  10.423   3.602   1.596
 3018SOL     OW10892   7.861   7.272   3.259
 3018SOL    HW110893   7.923   7.228   3.317
 3018SOL    HW210894   7.856   7.362   3.293
 3019SOL     OW10895   8.529   8.041  12.764
 3019SOL    HW110896   8.598   7.974  12.761
 3019SOL    HW210897   8.452   7.997  12.728
 3020SOL     OW10898  14.548   9.338  14.303
 3020SOL    HW110899  14.589   9.254  14.325
 3020SOL    HW210900  14.469   9.341  14.357
 3021SOL     OW10901   3.953   1.823  11.845
 3021SOL    HW110902   3.927   1.894  11.903
 3021SOL    HW210903   3.922   1.744  11.889
 3022SOL     OW10904  10.787  12.719  10.737
 3022SOL    HW110905  10.830  12.694  10.819
 3022SOL    HW210906  10.693  12.711  10.756
 3023SOL     OW10907   2.106  14.302   6.080
 3023SOL    HW110908   2.187  14.252   6.085
 3023SOL    HW210909   2.102  14.348   6.164
 3024SOL     OW10910   3.762  14.228   5.256
 3024SOL    HW110911   3.698  14.281   5.208
 3024SOL    HW210912   3.838  14.286   5.265
 3025SOL     OW10913  11.575  11.292  10.286
 3025SOL    HW110914  11.500  11.236  10.306
 3025SOL    HW210915  11.616  11.252  10.209
 3026SOL     OW10916   0.716   7.267   8.211
 3026SOL    HW110917   0.672   7.185   8.236
 3026SOL    HW210918   0.672   7.293   8.130
 3027SOL     OW10919   8.287   2.558   7.920
 3027SOL    HW110920   8.343   2.505   7.862
 3027SOL    HW210921   8.226   2.495   7.958
 3028SOL     OW10922  13.366   8.032   7.772
 3028SOL    HW110923  13.421   7.958   7.748
 3028SOL    HW210924  13.421   8.109   7.758
 3029SOL     OW10925   0.899   6.036  14.610
 3029SOL    HW110926   0.842   6.078  14.674
 3029SOL    HW210927   0.981   6.084  14.615
 3030SOL     OW10928  14.650  10.338   7.283
 3030SOL    HW110929  14.601  10.420   7.272
 3030SOL    HW210930  14.633  10.312   7.373
 3031SOL     OW10931  12.904   3.827   7.716
 3031SOL    HW110932  12.839   3.758   7.702
 3031SOL    HW210933  12.953   3.830   7.634
 3032SOL     OW10934   3.507  12.035   8.083
 3032SOL    HW110935   3.482  11.944   8.068
 3032SOL    HW210936   3.511  12.042   8.179
 3033SOL     OW10937  10.124   5.952   5.012
 3033SOL    HW110938  10.130   5.866   4.969
 3033SOL    HW210939  10.125   5.931   5.106
 3034SOL     OW10940   0.894   9.735   9.634
 3034SOL    HW110941   0.971   9.713   9.583
 3034SOL    HW210942   0.823   9.684   9.594
 3035SOL     OW10943   0.560   2.254   6.900
 3035SOL    HW110944   0.557   2.196   6.824
 3035SOL    HW210945   0.471   2.289   6.906
 3036SOL     OW10946  12.364  14.690   6.567
 3036SOL    HW110947  12.294  14.731   6.619
 3036SOL    HW210948  12.440  14.746   6.581
 3037SOL     OW10949   6.552   5.661   8.993
 3037SOL    HW110950   6.575   5.599   9.062
 3037SOL    HW210951   6.626   5.657   8.932
 3038SOL     OW10952  11.158   0.748   6.075
 3038SOL    HW110953  11.150   0.715   6.165
 3038SOL    HW210954  11.071   0.735   6.037
 3039SOL     OW10955   2.271   2.292  12.752
 3039SOL    HW110956   2.346   2.309  12.695
 3039SOL    HW210957   2.201   2.264  12.693
 3040SOL     OW10958   0.335   7.539   5.340
 3040SOL    HW110959   0.326   7.454   5.298
 3040SOL    HW210960   0.366   7.519   5.428
 3041SOL     OW10961   6.956  13.677   4.905
 3041SOL    HW110962   7.041  13.695   4.866
 3041SOL    HW210963   6.972  13.604   4.965
 3042SOL     OW10964  12.252   4.723  14.100
 3042SOL    HW110965  12.231   4.698  14.010
 3042SOL    HW210966  12.200   4.802  14.116
 3043SOL     OW10967  10.559  11.104   0.907
 3043SOL    HW110968  10.511  11.184   0.928
 3043SOL    HW210969  10.532  11.041   0.974
 3044SOL     OW10970   9.549   4.210  12.073
 3044SOL    HW110971   9.634   4.247  12.095
 3044SOL    HW210972   9.487   4.282  12.086
 3045SOL     OW10973   4.222   9.718   8.006
 3045SOL    HW110974   4.306   9.686   7.972
 3045SOL    HW210975   4.240   9.738   8.098
 3046SOL     OW10976   2.556   6.538   0.350
 3046SOL    HW110977   2.572   6.453   0.391
 3046SOL    HW210978   2.643   6.574   0.334
 3047SOL     OW10979   4.314  10.094   0.218
 3047SOL    HW110980   4.229  10.136   0.209
 3047SOL    HW210981   4.370  10.161   0.258
 3048SOL     OW10982  10.803   0.685   6.253
 3048SOL    HW110983  10.755   0.682   6.335
 3048SOL    HW210984  10.894   0.697   6.278
 3049SOL     OW10985  11.047   4.143  12.653
 3049SOL    HW110986  11.066   4.196  12.730
 3049SOL    HW210987  11.039   4.054  12.686
 3050SOL     OW10988  14.727  10.815   9.210
 3050SOL    HW110989  14.650  10.787   9.260
 3050SOL    HW210990  14.703  10.900   9.174
 3051SOL     OW10991   6.248   9.815   9.905
 3051SOL    HW110992   6.305   9.887   9.878
 3051SOL    HW210993   6.273   9.741   9.850
 3052SOL     OW10994   6.802  12.010   2.403
 3052SOL    HW110995   6.786  12.085   2.347
 3052SOL    HW210996   6.898  11.999   2.402
 3053SOL     OW10997   4.739  11.284   6.750
 3053SOL    HW110998   4.753  11.372   6.783
 3053SOL    HW210999   4.755  11.290   6.656
 3054SOL     OW11000   9.212  11.319   0.694
 3054SOL    HW111001   9.193  11.369   0.614
 3054SOL    HW211002   9.197  11.228   0.670
 3055SOL     OW11003  13.582   2.257   1.556
 3055SOL    HW111004  13.558   2.180   1.609
 3055SOL    HW211005  13.582   2.224   1.466
 3056SOL     OW11006   7.780   5.207   2.860
 3056SOL    HW111007   7.832   5.182   2.784
 3056SOL    HW211008   7.811   5.152   2.931
 3057SOL     OW11009   0.073   2.243   2.330
 3057SOL    HW111010   0.128   2.271   2.403
 3057SOL    HW211011   0.134   2.199   2.270
 3058SOL     OW11012   3.068   8.918   7.669
 3058SOL    HW111013   3.053   8.934   7.762
 3058SOL    HW211014   3.074   9.006   7.631
 3059SOL     OW11015   5.022  10.813   0.942
 3059SOL    HW111016   4.965  10.881   0.906
 3059SOL    HW211017   4.964  10.737   0.952
 3060SOL     OW11018   2.692   9.740   4.570
 3060SOL    HW111019   2.597   9.738   4.576
 3060SOL    HW211020   2.714   9.833   4.558
 3061SOL     OW11021  14.756   6.439   2.078
 3061SOL    HW111022  14.681   6.401   2.123
 3061SOL    HW211023  14.737   6.533   2.074
 3062SOL     OW11024   2.658  11.744  13.505
 3062SOL    HW111025   2.727  11.731  13.440
 3062SOL    HW211026   2.645  11.657  13.543
 3063SOL     OW11027   6.351  14.817  11.429
 3063SOL    HW111028   6.322  14.726  11.430
 3063SOL    HW211029   6.422  14.821  11.493
 3064SOL     OW11030   7.377   7.500  14.264
 3064SOL    HW111031   7.401   7.564  14.198
 3064SOL    HW211032   7.346   7.552  14.338
 3065SOL     OW11033   2.906  10.610   1.337
 3065SOL    HW111034   2.938  10.631   1.249
 3065SOL    HW211035   2.985  10.605   1.391
 3066SOL     OW11036   6.366   3.731  13.824
 3066SOL    HW111037   6.273   3.751  13.821
 3066SOL    HW211038   6.394   3.761  13.911
 3067SOL     OW11039   5.266  11.803   2.245
 3067SOL    HW111040   5.220  11.846   2.317
 3067SOL    HW211041   5.203  11.802   2.174
 3068SOL     OW11042   8.597   0.994   4.991
 3068SOL    HW111043   8.613   1.053   4.917
 3068SOL    HW211044   8.683   0.961   5.015
 3069SOL     OW11045   9.365   1.177   8.970
 3069SOL    HW111046   9.271   1.178   8.987
 3069SOL    HW211047   9.381   1.094   8.926
 3070SOL     OW11048  12.095   7.113  10.061
 3070SOL    HW111049  12.059   7.053  10.126
 3070SOL    HW211050  12.099   7.197  10.107
 3071SOL     OW11051  10.553  13.859   3.008
 3071SOL    HW111052  10.641  13.895   3.000
 3071SOL    HW211053  10.514  13.907   3.081
 3072SOL     OW11054  14.651  14.595  13.133
 3072SOL    HW111055  14.718  14.587  13.200
 3072SOL    HW211056  14.628  14.505  13.110
 3073SOL     OW11057  12.146  13.386   4.170
 3073SOL    HW111058  12.084  13.314   4.178
 3073SOL    HW211059  12.229  13.349   4.200
 3074SOL     OW11060   7.218   3.181   8.173
 3074SOL    HW111061   7.269   3.250   8.132
 3074SOL    HW211062   7.149   3.227   8.220
 3075SOL     OW11063   0.318  12.359   9.153
 3075SOL    HW111064   0.251  12.383   9.089
 3075SOL    HW211065   0.390  12.419   9.137
 3076SOL     OW11066   7.064  14.849   9.973
 3076SOL    HW111067   7.068  14.816   9.883
 3076SOL    HW211068   6.973   0.002   9.985
 3077SOL     OW11069   8.495   1.222   7.045
 3077SOL    HW111070   8.585   1.193   7.057
 3077SOL    HW211071   8.503   1.311   7.009
 3078SOL     OW11072   3.910   6.782  11.659
 3078SOL    HW111073   3.963   6.767  11.738
 3078SOL    HW211074   3.831   6.730  11.672
 3079SOL     OW11075   6.497   1.189  12.065
 3079SOL    HW111076   6.548   1.110  12.051
 3079SOL    HW211077   6.562   1.255  12.091
 3080SOL     OW11078   9.519  14.313   9.240
 3080SOL    HW111079   9.448  14.334   9.179
 3080SOL    HW211080   9.552  14.228   9.211
 3081SOL     OW11081  10.438   6.737   6.458
 3081SOL    HW111082  10.364   6.677   6.462
 3081SOL    HW211083  10.514   6.683   6.478
 3082SOL     OW11084   8.458   5.900  14.558
 3082SOL    HW111085   8.433   5.808  14.545
 3082SOL    HW211086   8.399   5.931  14.627
 3083SOL     OW11087   3.739   8.461   4.705
 3083SOL    HW111088   3.725   8.494   4.617
 3083SOL    HW211089   3.743   8.365   4.695
 3084SOL     OW11090  12.192   3.366   0.005
 3084SOL    HW111091  12.125   3.392   0.069
 3084SOL    HW211092  12.191   3.435  14.813
 3085SOL     OW11093   9.992   9.782   2.463
 3085SOL    HW111094   9.901   9.767   2.489
 3085SOL    HW211095   9.996   9.875   2.441
 3086SOL     OW11096   8.017   3.129   3.328
 3086SOL    HW111097   8.008   3.102   3.420
 3086SOL    HW211098   7.940   3.094   3.285
 3087SOL     OW11099   5.736   6.755  14.000
 3087SOL    HW111100   5.784   6.798  13.930
 3087SOL    HW211101   5.661   6.813  14.017
 3088SOL     OW11102   0.980   9.732   7.520
 3088SOL    HW111103   1.055   9.790   7.524
 3088SOL    HW211104   0.947   9.728   7.610
 3089SOL     OW11105  14.777   6.820   5.455
 3089SOL    HW111106  14.726   6.874   5.394
 3089SOL    HW211107  14.715   6.752   5.483
 3090SOL     OW11108   9.210  13.842   3.848
 3090SOL    HW111109   9.277  13.786   3.886
 3090SOL    HW211110   9.210  13.819   3.755
 3091SOL     OW11111   0.079  14.799   9.466
 3091SOL    HW111112   0.113  14.854   9.396
 3091SOL    HW211113   0.035  14.727   9.421
 3092SOL     OW11114   6.723  10.449   5.395
 3092SOL    HW111115   6.740  10.437   5.302
 3092SOL    HW211116   6.806  10.426   5.438
 3093SOL     OW11117   9.341   7.309   6.339
 3093SOL    HW111118   9.303   7.270   6.261
 3093SOL    HW211119   9.336   7.403   6.324
 3094SOL     OW11120   9.014   6.090  12.006
 3094SOL    HW111121   8.918   6.098  12.008
 3094SOL    HW211122   9.034   6.025  12.073
 3095SOL     OW11123   4.973   6.574   5.389
 3095SOL    HW111124   4.942   6.637   5.324
 3095SOL    HW211125   4.916   6.498   5.378
 3096SOL     OW11126   2.903  14.657   4.049
 3096SOL    HW111127   2.995  14.642   4.068
 3096SOL    HW211128   2.900  14.670   3.954
 3097SOL     OW11129   7.989  11.939   0.932
 3097SOL    HW111130   8.081  11.929   0.908
 3097SOL    HW211131   7.987  11.923   1.027
 3098SOL     OW11132  14.701   2.893  10.157
 3098SOL    HW111133  14.753   2.973  10.149
 3098SOL    HW211134  14.733   2.836  10.086
 3099SOL     OW11135   1.068   7.748   3.084
 3099SOL    HW111136   1.118   7.761   3.165
 3099SOL    HW211137   1.020   7.666   3.100
 3100SOL     OW11138   3.627  13.902   8.318
 3100SOL    HW111139   3.716  13.877   8.294
 3100SOL    HW211140   3.581  13.910   8.234
 3101SOL     OW11141   2.659   8.980  12.743
 3101SOL    HW111142   2.665   8.889  12.772
 3101SOL    HW211143   2.565   8.997  12.737
 3102SOL     OW11144   2.719   4.311   5.999
 3102SOL    HW111145   2.751   4.361   6.075
 3102SOL    HW211146   2.799   4.280   5.956
 3103SOL     OW11147   6.727   3.622   2.999
 3103SOL    HW111148   6.648   3.658   2.959
 3103SOL    HW211149   6.695   3.549   3.052
 3104SOL     OW11150   0.069   4.101   1.812
 3104SOL    HW111151  14.855   4.076   1.842
 3104SOL    HW211152   0.078   4.059   1.726
 3105SOL     OW11153   5.800  13.643   7.656
 3105SOL    HW111154   5.743  13.637   7.733
 3105SOL    HW211155   5.740  13.662   7.584
 3106SOL     OW11156   0.856  14.346  13.668
 3106SOL    HW111157   0.837  14.286  13.740
 3106SOL    HW211158   0.785  14.333  13.606
 3107SOL     OW11159   1.205   2.277   7.172
 3107SOL    HW111160   1.245   2.363   7.186
 3107SOL    HW211161   1.278   2.219   7.153
 3108SOL     OW11162   8.601   1.322  14.499
 3108SOL    HW111163   8.648   1.320  14.416
 3108SOL    HW211164   8.670   1.318  14.566
 3109SOL     OW11165   3.036   8.837  12.761
 3109SOL    HW111166   3.104   8.860  12.824
 3109SOL    HW211167   3.072   8.865  12.676
 3110SOL     OW11168   9.890  12.704  14.159
 3110SOL    HW111169   9.927  12.758  14.089
 3110SOL    HW211170   9.938  12.731  14.237
 3111SOL     OW11171  13.434   6.436   0.549
 3111SOL    HW111172  13.462   6.405   0.463
 3111SOL    HW211173  13.399   6.524   0.533
 3112SOL     OW11174   4.330  10.540  13.041
 3112SOL    HW111175   4.238  10.514  13.035
 3112SOL    HW211176   4.341  10.567  13.132
 3113SOL     OW11177  14.784  13.790   9.411
 3113SOL    HW111178  14.726  13.827   9.344
 3113SOL    HW211179  14.854  13.854   9.419
 3114SOL     OW11180   8.171  13.454   9.872
 3114SOL    HW111181   8.101  13.519   9.863
 3114SOL    HW211182   8.240  13.483   9.813
 3115SOL     OW11183   8.342   7.511   1.849
 3115SOL    HW111184   8.402   7.567   1.799
 3115SOL    HW211185   8.313   7.567   1.922
 3116SOL     OW11186  13.903  11.039   4.355
 3116SOL    HW111187  13.808  11.048   4.364
 3116SOL    HW211188  13.921  11.072   4.266
 3117SOL     OW11189   8.611  12.005   7.179
 3117SOL    HW111190   8.607  11.909   7.179
 3117SOL    HW211191   8.524  12.033   7.208
 3118SOL     OW11192   1.226  11.959   4.760
 3118SOL    HW111193   1.248  11.867   4.747
 3118SOL    HW211194   1.219  11.995   4.672
 3119SOL     OW11195   5.117   6.865   4.791
 3119SOL    HW111196   5.175   6.921   4.740
 3119SOL    HW211197   5.087   6.920   4.863
 3120SOL     OW11198  14.859   9.024   4.709
 3120SOL    HW111199   0.040   9.076   4.651
 3120SOL    HW211200   0.033   8.941   4.719
 3121SOL     OW11201   0.378   0.099   9.753
 3121SOL    HW111202   0.317   0.160   9.793
 3121SOL    HW211203   0.403   0.140   9.670
 3122SOL     OW11204   1.770  11.434   6.164
 3122SOL    HW111205   1.846  11.476   6.205
 3122SOL    HW211206   1.807  11.361   6.115
 3123SOL     OW11207   8.995   3.066   8.718
 3123SOL    HW111208   8.907   3.033   8.736
 3123SOL    HW211209   9.046   2.988   8.697
 3124SOL     OW11210   3.193   0.973  14.292
 3124SOL    HW111211   3.182   0.921  14.212
 3124SOL    HW211212   3.189   1.064  14.263
 3125SOL     OW11213  10.381   8.725   3.927
 3125SOL    HW111214  10.296   8.760   3.953
 3125SOL    HW211215  10.366   8.631   3.918
 3126SOL     OW11216  13.288   3.044   2.351
 3126SOL    HW111217  13.211   3.010   2.397
 3126SOL    HW211218  13.347   2.969   2.344
 3127SOL     OW11219   1.447  12.511   1.263
 3127SOL    HW111220   1.409  12.433   1.304
 3127SOL    HW211221   1.530  12.525   1.308
 3128SOL     OW11222   6.613   0.242  11.433
 3128SOL    HW111223   6.554   0.220  11.361
 3128SOL    HW211224   6.688   0.284  11.391
 3129SOL     OW11225   0.673  13.517   5.278
 3129SOL    HW111226   0.614  13.590   5.294
 3129SOL    HW211227   0.697  13.524   5.186
 3130SOL     OW11228  11.832  13.312  12.576
 3130SOL    HW111229  11.751  13.314  12.526
 3130SOL    HW211230  11.822  13.382  12.640
 3131SOL     OW11231   7.689  10.815   1.978
 3131SOL    HW111232   7.725  10.866   1.906
 3131SOL    HW211233   7.597  10.800   1.954
 3132SOL     OW11234  13.902  11.810   4.819
 3132SOL    HW111235  13.993  11.794   4.795
 3132SOL    HW211236  13.873  11.727   4.857
 3133SOL     OW11237  11.963   5.549  11.555
 3133SOL    HW111238  11.901   5.617  11.529
 3133SOL    HW211239  11.998   5.580  11.639
 3134SOL     OW11240  13.743   9.508   1.363
 3134SOL    HW111241  13.809   9.568   1.329
 3134SOL    HW211242  13.785   9.423   1.363
 3135SOL     OW11243  12.373   4.068   4.066
 3135SOL    HW111244  12.381   4.052   4.160
 3135SOL    HW211245  12.284   4.040   4.044
 3136SOL     OW11246   4.399   1.867   8.850
 3136SOL    HW111247   4.367   1.950   8.885
 3136SOL    HW211248   4.447   1.827   8.923
 3137SOL     OW11249   7.652  14.020   0.487
 3137SOL    HW111250   7.631  13.965   0.562
 3137SOL    HW211251   7.592  13.991   0.419
 3138SOL     OW11252   8.451   8.569  10.377
 3138SOL    HW111253   8.449   8.565  10.282
 3138SOL    HW211254   8.439   8.479  10.406
 3139SOL     OW11255   6.500   1.673   6.788
 3139SOL    HW111256   6.409   1.701   6.798
 3139SOL    HW211257   6.543   1.701   6.869
 3140SOL     OW11258   0.657   0.871   0.656
 3140SOL    HW111259   0.586   0.826   0.611
 3140SOL    HW211260   0.664   0.956   0.614
 3141SOL     OW11261  14.349  12.162   9.092
 3141SOL    HW111262  14.439  12.148   9.121
 3141SOL    HW211263  14.304  12.196   9.170
 3142SOL     OW11264  11.713  11.459   8.200
 3142SOL    HW111265  11.723  11.423   8.288
 3142SOL    HW211266  11.621  11.445   8.178
 3143SOL     OW11267   6.686   8.938   1.628
 3143SOL    HW111268   6.709   8.913   1.717
 3143SOL    HW211269   6.593   8.960   1.633
 3144SOL     OW11270   1.780   4.801   6.138
 3144SOL    HW111271   1.762   4.718   6.093
 3144SOL    HW211272   1.715   4.805   6.208
 3145SOL     OW11273   0.175   2.467  10.867
 3145SOL    HW111274   0.247   2.520  10.900
 3145SOL    HW211275   0.159   2.501  10.779
 3146SOL     OW11276   2.256   4.738   0.969
 3146SOL    HW111277   2.163   4.738   0.993
 3146SOL    HW211278   2.286   4.826   0.990
 3147SOL     OW11279  13.085  10.456   1.694
 3147SOL    HW111280  13.152  10.406   1.646
 3147SOL    HW211281  13.042  10.509   1.627
 3148SOL     OW11282   5.737  11.238   7.413
 3148SOL    HW111283   5.686  11.301   7.464
 3148SOL    HW211284   5.808  11.289   7.374
 3149SOL     OW11285   9.719   9.833   5.007
 3149SOL    HW111286   9.713   9.928   5.015
 3149SOL    HW211287   9.789   9.809   5.069
 3150SOL     OW11288   0.949   9.997   7.408
 3150SOL    HW111289   1.032  10.044   7.399
 3150SOL    HW211290   0.955   9.926   7.344
 3151SOL     OW11291  10.579  14.455   4.428
 3151SOL    HW111292  10.593  14.404   4.508
 3151SOL    HW211293  10.638  14.415   4.364
 3152SOL     OW11294   4.010   0.921   7.821
 3152SOL    HW111295   3.968   1.007   7.829
 3152SOL    HW211296   3.940   0.864   7.789
 3153SOL     OW11297   7.417   1.063  11.406
 3153SOL    HW111298   7.505   1.062  11.367
 3153SOL    HW211299   7.414   0.985  11.461
 3154SOL     OW11300  12.354  14.171   6.118
 3154SOL    HW111301  12.299  14.246   6.143
 3154SOL    HW211302  12.338  14.160   6.025
 3155SOL     OW11303  13.416  11.919   8.610
 3155SOL    HW111304  13.453  11.849   8.664
 3155SOL    HW211305  13.322  11.904   8.612
 3156SOL     OW11306  12.392   2.392   4.403
 3156SOL    HW111307  12.439   2.331   4.460
 3156SOL    HW211308  12.334   2.337   4.350
 3157SOL     OW11309   5.952   6.489   2.198
 3157SOL    HW111310   6.000   6.569   2.176
 3157SOL    HW211311   5.860   6.514   2.191
 3158SOL     OW11312   3.792   5.461  11.648
 3158SOL    HW111313   3.760   5.386  11.598
 3158SOL    HW211314   3.875   5.432  11.685
 3159SOL     OW11315   0.502   5.649   4.588
 3159SOL    HW111316   0.462   5.652   4.501
 3159SOL    HW211317   0.431   5.667   4.649
 3160SOL     OW11318   0.105   0.464  14.382
 3160SOL    HW111319   0.173   0.524  14.413
 3160SOL    HW211320   0.138   0.431  14.298
 3161SOL     OW11321  12.402  11.394   0.488
 3161SOL    HW111322  12.381  11.318   0.543
 3161SOL    HW211323  12.484  11.371   0.446
 3162SOL     OW11324   0.132  13.745   4.915
 3162SOL    HW111325   0.143  13.668   4.860
 3162SOL    HW211326   0.055  13.790   4.878
 3163SOL     OW11327   4.289   3.732  12.790
 3163SOL    HW111328   4.226   3.799  12.763
 3163SOL    HW211329   4.363   3.782  12.825
 3164SOL     OW11330   8.217   4.975  13.937
 3164SOL    HW111331   8.304   5.011  13.918
 3164SOL    HW211332   8.185   5.027  14.011
 3165SOL     OW11333   3.504  14.077   8.471
 3165SOL    HW111334   3.527  14.004   8.412
 3165SOL    HW211335   3.585  14.094   8.520
 3166SOL     OW11336   7.018   9.479   9.804
 3166SOL    HW111337   7.090   9.510   9.749
 3166SOL    HW211338   7.006   9.549   9.869
 3167SOL     OW11339   2.725  13.424   3.222
 3167SOL    HW111340   2.660  13.456   3.284
 3167SOL    HW211341   2.674  13.396   3.146
 3168SOL     OW11342   2.648   1.467   3.913
 3168SOL    HW111343   2.610   1.435   3.831
 3168SOL    HW211344   2.720   1.524   3.885
 3169SOL     OW11345   5.286   0.559   8.828
 3169SOL    HW111346   5.272   0.611   8.908
 3169SOL    HW211347   5.200   0.524   8.807
 3170SOL     OW11348  14.022   5.863   0.932
 3170SOL    HW111349  14.016   5.800   1.004
 3170SOL    HW211350  14.115   5.885   0.926
 3171SOL     OW11351  14.481  12.829   7.136
 3171SOL    HW111352  14.563  12.817   7.184
 3171SOL    HW211353  14.488  12.770   7.061
 3172SOL     OW11354   2.188   9.355   6.738
 3172SOL    HW111355   2.207   9.359   6.832
 3172SOL    HW211356   2.191   9.262   6.716
 3173SOL     OW11357  14.143   5.949  12.114
 3173SOL    HW111358  14.072   5.950  12.178
 3173SOL    HW211359  14.159   5.857  12.097
 3174SOL     OW11360   9.999  12.322   1.700
 3174SOL    HW111361   9.999  12.366   1.615
 3174SOL    HW211362  10.081  12.273   1.702
 3175SOL     OW11363   6.334   7.475   0.174
 3175SOL    HW111364   6.375   7.395   0.208
 3175SOL    HW211365   6.283   7.445   0.099
 3176SOL     OW11366   4.126   9.612   4.496
 3176SOL    HW111367   4.054   9.647   4.443
 3176SOL    HW211368   4.205   9.636   4.447
 3177SOL     OW11369  13.831   4.510   8.175
 3177SOL    HW111370  13.750   4.523   8.126
 3177SOL    HW211371  13.807   4.523   8.267
 3178SOL     OW11372   8.147  10.043   1.021
 3178SOL    HW111373   8.101  10.126   1.007
 3178SOL    HW211374   8.131  10.022   1.113
 3179SOL     OW11375   7.428  14.316   5.413
 3179SOL    HW111376   7.506  14.297   5.465
 3179SOL    HW211377   7.453  14.293   5.323
 3180SOL     OW11378   2.659  13.757   5.433
 3180SOL    HW111379   2.713  13.754   5.353
 3180SOL    HW211380   2.672  13.846   5.466
 3181SOL     OW11381  11.186   2.520  13.495
 3181SOL    HW111382  11.146   2.465  13.428
 3181SOL    HW211383  11.268   2.475  13.517
 3182SOL     OW11384   5.296   0.878  10.096
 3182SOL    HW111385   5.280   0.810  10.030
 3182SOL    HW211386   5.354   0.940  10.052
 3183SOL     OW11387   4.938   2.716   5.195
 3183SOL    HW111388   4.889   2.641   5.162
 3183SOL    HW211389   4.878   2.790   5.187
 3184SOL     OW11390   2.689   0.577  11.449
 3184SOL    HW111391   2.727   0.560  11.363
 3184SOL    HW211392   2.738   0.521  11.509
 3185SOL     OW11393   9.102   6.432  14.072
 3185SOL    HW111394   9.064   6.344  14.068
 3185SOL    HW211395   9.160   6.430  14.148
 3186SOL     OW11396   5.914   2.512   5.523
 3186SOL    HW111397   5.830   2.520   5.568
 3186SOL    HW211398   5.979   2.527   5.593
 3187SOL     OW11399   5.573  12.699   7.839
 3187SOL    HW111400   5.641  12.670   7.900
 3187SOL    HW211401   5.540  12.780   7.878
 3188SOL     OW11402   9.997  14.715   2.658
 3188SOL    HW111403   9.974  14.780   2.724
 3188SOL    HW211404   9.971  14.755   2.575
 3189SOL     OW11405   1.124   0.280   6.535
 3189SOL    HW111406   1.029   0.278   6.522
 3189SOL    HW211407   1.139   0.358   6.588
 3190SOL     OW11408   0.834   5.461  14.595
 3190SOL    HW111409   0.742   5.480  14.610
 3190SOL    HW211410   0.880   5.517  14.657
 3191SOL     OW11411   9.314   7.624   7.580
 3191SOL    HW111412   9.295   7.629   7.486
 3191SOL    HW211413   9.230   7.605   7.620
 3192SOL     OW11414   7.616  10.076  10.956
 3192SOL    HW111415   7.656  10.106  10.875
 3192SOL    HW211416   7.670  10.114  11.025
 3193SOL     OW11417  11.311  13.942   6.703
 3193SOL    HW111418  11.302  14.026   6.749
 3193SOL    HW211419  11.323  13.967   6.612
 3194SOL     OW11420   2.205  10.201   4.766
 3194SOL    HW111421   2.203  10.183   4.861
 3194SOL    HW211422   2.189  10.295   4.759
 3195SOL     OW11423   3.169  13.851   0.961
 3195SOL    HW111424   3.182  13.835   0.868
 3195SOL    HW211425   3.077  13.830   0.976
 3196SOL     OW11426   8.032   2.499   3.386
 3196SOL    HW111427   7.998   2.423   3.338
 3196SOL    HW211428   7.975   2.507   3.462
 3197SOL     OW11429   0.045   1.001   6.120
 3197SOL    HW111430  14.825   1.000   6.138
 3197SOL    HW211431   0.082   1.053   6.192
 3198SOL     OW11432   3.815   5.430   8.590
 3198SOL    HW111433   3.731   5.476   8.600
 3198SOL    HW211434   3.879   5.500   8.575
 3199SOL     OW11435  11.045   1.859   8.748
 3199SOL    HW111436  11.002   1.916   8.811
 3199SOL    HW211437  11.138   1.864   8.770
 3200SOL     OW11438   7.332   8.684   0.495
 3200SOL    HW111439   7.300   8.606   0.541
 3200SOL    HW211440   7.259   8.746   0.500
 3201SOL     OW11441   7.605   3.696  14.236
 3201SOL    HW111442   7.547   3.716  14.309
 3201SOL    HW211443   7.546   3.663  14.167
 3202SOL     OW11444   0.805   7.054   0.923
 3202SOL    HW111445   0.747   7.119   0.885
 3202SOL    HW211446   0.878   7.105   0.958
 3203SOL     OW11447   2.336   7.577   0.698
 3203SOL    HW111448   2.245   7.570   0.726
 3203SOL    HW211449   2.351   7.498   0.645
 3204SOL     OW11450   7.122  12.866  14.047
 3204SOL    HW111451   7.157  12.933  14.105
 3204SOL    HW211452   7.037  12.843  14.084
 3205SOL     OW11453   7.244   7.527   7.462
 3205SOL    HW111454   7.317   7.495   7.409
 3205SOL    HW211455   7.278   7.530   7.551
 3206SOL     OW11456   3.000   8.409   3.306
 3206SOL    HW111457   3.044   8.328   3.280
 3206SOL    HW211458   3.009   8.412   3.401
 3207SOL     OW11459   3.440   7.558   6.617
 3207SOL    HW111460   3.468   7.624   6.554
 3207SOL    HW211461   3.444   7.602   6.702
 3208SOL     OW11462   8.954  14.859   8.116
 3208SOL    HW111463   8.878  14.814   8.079
 3208SOL    HW211464   8.971   0.057   8.056
 3209SOL     OW11465   6.515  14.067   6.231
 3209SOL    HW111466   6.589  14.121   6.258
 3209SOL    HW211467   6.475  14.038   6.314
 3210SOL     OW11468  11.422   7.250  14.604
 3210SOL    HW111469  11.429   7.218  14.694
 3210SOL    HW211470  11.360   7.190  14.562
 3211SOL     OW11471   7.567  11.461   4.579
 3211SOL    HW111472   7.554  11.375   4.541
 3211SOL    HW211473   7.662  11.474   4.578
 3212SOL     OW11474   6.417   6.286  13.781
 3212SOL    HW111475   6.333   6.324  13.809
 3212SOL    HW211476   6.445   6.341  13.709
 3213SOL     OW11477  10.193  12.621   0.798
 3213SOL    HW111478  10.276  12.669   0.803
 3213SOL    HW211479  10.202  12.551   0.863
 3214SOL     OW11480  12.134  13.475   7.018
 3214SOL    HW111481  12.054  13.423   7.029
 3214SOL    HW211482  12.200  13.411   6.990
 3215SOL     OW11483   2.192   2.085  10.520
 3215SOL    HW111484   2.100   2.099  10.542
 3215SOL    HW211485   2.191   2.062  10.427
 3216SOL     OW11486  10.060   0.492   2.598
 3216SOL    HW111487  10.125   0.555   2.629
 3216SOL    HW211488  10.057   0.506   2.503
 3217SOL     OW11489   4.719   9.070   2.509
 3217SOL    HW111490   4.684   8.989   2.473
 3217SOL    HW211491   4.669   9.139   2.466
 3218SOL     OW11492   1.935   8.775   2.871
 3218SOL    HW111493   1.901   8.788   2.960
 3218SOL    HW211494   1.860   8.792   2.814
 3219SOL     OW11495   2.193   4.024   5.608
 3219SOL    HW111496   2.269   4.011   5.551
 3219SOL    HW211497   2.155   3.936   5.617
 3220SOL     OW11498   1.843  10.268   7.659
 3220SOL    HW111499   1.828  10.181   7.696
 3220SOL    HW211500   1.859  10.324   7.735
 3221SOL     OW11501   1.147   3.553  11.919
 3221SOL    HW111502   1.128   3.465  11.951
 3221SOL    HW211503   1.076   3.607  11.954
 3222SOL     OW11504  11.818   0.149   1.019
 3222SOL    HW111505  11.874   0.226   1.018
 3222SOL    HW211506  11.868   0.082   0.972
 3223SOL     OW11507   5.894   3.182   9.548
 3223SOL    HW111508   5.948   3.182   9.470
 3223SOL    HW211509   5.899   3.271   9.582
 3224SOL     OW11510  10.165   8.314   5.313
 3224SOL    HW111511  10.073   8.291   5.325
 3224SOL    HW211512  10.213   8.232   5.321
 3225SOL     OW11513  10.679  12.415  10.777
 3225SOL    HW111514  10.696  12.403  10.684
 3225SOL    HW211515  10.620  12.490  10.782
 3226SOL     OW11516   2.682  10.684   3.692
 3226SOL    HW111517   2.628  10.748   3.739
 3226SOL    HW211518   2.738  10.645   3.759
 3227SOL     OW11519   4.843   6.819   7.436
 3227SOL    HW111520   4.769   6.808   7.376
 3227SOL    HW211521   4.916   6.773   7.393
 3228SOL     OW11522   5.082   2.409   1.130
 3228SOL    HW111523   5.019   2.391   1.060
 3228SOL    HW211524   5.063   2.499   1.157
 3229SOL     OW11525  12.572   1.089  13.820
 3229SOL    HW111526  12.657   1.132  13.812
 3229SOL    HW211527  12.508   1.159  13.807
 3230SOL     OW11528   2.732   8.625  10.634
 3230SOL    HW111529   2.744   8.536  10.600
 3230SOL    HW211530   2.805   8.638  10.694
 3231SOL     OW11531  11.193   4.960  10.961
 3231SOL    HW111532  11.259   5.029  10.952
 3231SOL    HW211533  11.111   5.007  10.975
 3232SOL     OW11534   3.242   6.488  12.060
 3232SOL    HW111535   3.303   6.538  12.006
 3232SOL    HW211536   3.167   6.546  12.072
 3233SOL     OW11537   6.412   4.478   1.719
 3233SOL    HW111538   6.393   4.569   1.696
 3233SOL    HW211539   6.500   4.481   1.757
 3234SOL     OW11540   8.698  10.995   2.867
 3234SOL    HW111541   8.650  10.988   2.949
 3234SOL    HW211542   8.729  10.906   2.850
 3235SOL     OW11543   6.791   5.654  11.437
 3235SOL    HW111544   6.734   5.728  11.458
 3235SOL    HW211545   6.732   5.589  11.399
 3236SOL     OW11546   8.970  13.061  11.675
 3236SOL    HW111547   9.050  13.016  11.648
 3236SOL    HW211548   8.906  13.038  11.608
 3237SOL     OW11549   5.801   2.171   4.044
 3237SOL    HW111550   5.864   2.108   4.078
 3237SOL    HW211551   5.716   2.138   4.073
 3238SOL     OW11552   9.590   2.375   2.053
 3238SOL    HW111553   9.594   2.448   2.114
 3238SOL    HW211554   9.622   2.300   2.103
 3239SOL     OW11555   6.083   2.881   3.760
 3239SOL    HW111556   6.135   2.961   3.757
 3239SOL    HW211557   6.050   2.877   3.850
 3240SOL     OW11558  10.979   8.895  14.737
 3240SOL    HW111559  10.947   8.851  14.816
 3240SOL    HW211560  11.065   8.857  14.721
 3241SOL     OW11561   1.664  13.012   1.537
 3241SOL    HW111562   1.677  12.935   1.483
 3241SOL    HW211563   1.726  13.002   1.610
 3242SOL     OW11564   4.508   0.602  12.254
 3242SOL    HW111565   4.539   0.560  12.173
 3242SOL    HW211566   4.554   0.685  12.257
 3243SOL     OW11567   3.478   8.917   5.288
 3243SOL    HW111568   3.547   8.977   5.316
 3243SOL    HW211569   3.396   8.963   5.308
 3244SOL     OW11570   8.856  11.065   3.150
 3244SOL    HW111571   8.824  11.129   3.087
 3244SOL    HW211572   8.902  11.000   3.097
 3245SOL     OW11573   9.608  10.864   6.458
 3245SOL    HW111574   9.540  10.894   6.518
 3245SOL    HW211575   9.575  10.780   6.426
 3246SOL     OW11576  13.820  10.452   1.816
 3246SOL    HW111577  13.741  10.502   1.833
 3246SOL    HW211578  13.864  10.448   1.901
 3247SOL     OW11579  13.245   9.962  11.367
 3247SOL    HW111580  13.307   9.957  11.441
 3247SOL    HW211581  13.244  10.055  11.343
 3248SOL     OW11582   6.435   6.203   9.712
 3248SOL    HW111583   6.399   6.271   9.770
 3248SOL    HW211584   6.440   6.246   9.626
 3249SOL     OW11585  11.775   7.806  14.134
 3249SOL    HW111586  11.833   7.880  14.154
 3249SOL    HW211587  11.688   7.837  14.159
 3250SOL     OW11588   8.516   2.287   3.988
 3250SOL    HW111589   8.533   2.340   3.910
 3250SOL    HW211590   8.456   2.340   4.040
 3251SOL     OW11591  14.615   8.281  11.878
 3251SOL    HW111592  14.594   8.324  11.796
 3251SOL    HW211593  14.606   8.349  11.945
 3252SOL     OW11594   5.095   9.175   9.362
 3252SOL    HW111595   5.138   9.089   9.363
 3252SOL    HW211596   5.085   9.195   9.269
 3253SOL     OW11597   6.622  11.787   3.785
 3253SOL    HW111598   6.531  11.784   3.814
 3253SOL    HW211599   6.669  11.732   3.848
 3254SOL     OW11600  13.457  12.281  10.162
 3254SOL    HW111601  13.363  12.265  10.148
 3254SOL    HW211602  13.500  12.212  10.112
 3255SOL     OW11603  12.393   0.314  10.088
 3255SOL    HW111604  12.306   0.275  10.078
 3255SOL    HW211605  12.424   0.324   9.998
 3256SOL     OW11606  12.199   7.782  12.692
 3256SOL    HW111607  12.256   7.849  12.728
 3256SOL    HW211608  12.119   7.828  12.669
 3257SOL     OW11609  10.466  13.904   2.059
 3257SOL    HW111610  10.399  13.891   1.993
 3257SOL    HW211611  10.542  13.938   2.011
 3258SOL     OW11612  14.798   3.295  13.036
 3258SOL    HW111613  14.827   3.343  13.113
 3258SOL    HW211614  14.874   3.294  12.978
 3259SOL     OW11615   1.861   4.076   0.234
 3259SOL    HW111616   1.939   4.025   0.213
 3259SOL    HW211617   1.799   4.012   0.269
 3260SOL     OW11618   6.008  10.437   9.444
 3260SOL    HW111619   6.041  10.395   9.365
 3260SOL    HW211620   6.004  10.367   9.509
 3261SOL     OW11621  13.945   9.185   6.714
 3261SOL    HW111622  13.979   9.272   6.691
 3261SOL    HW211623  14.013   9.124   6.688
 3262SOL     OW11624  12.386   9.855   3.935
 3262SOL    HW111625  12.407   9.792   3.866
 3262SOL    HW211626  12.347   9.929   3.888
 3263SOL     OW11627   1.888  10.840  13.586
 3263SOL    HW111628   1.875  10.921  13.635
 3263SOL    HW211629   1.813  10.836  13.527
 3264SOL     OW11630   7.649  12.464   5.213
 3264SOL    HW111631   7.605  12.403   5.154
 3264SOL    HW211632   7.661  12.543   5.160
 3265SOL     OW11633  12.812  13.807   2.287
 3265SOL    HW111634  12.762  13.872   2.336
 3265SOL    HW211635  12.860  13.858   2.222
 3266SOL     OW11636  11.718   4.194   3.080
 3266SOL    HW111637  11.645   4.142   3.114
 3266SOL    HW211638  11.789   4.131   3.067
 3267SOL     OW11639  14.766   3.769   1.942
 3267SOL    HW111640  14.760   3.738   2.032
 3267SOL    HW211641  14.740   3.694   1.889
 3268SOL     OW11642   5.591   2.455  14.825
 3268SOL    HW111643   5.613   2.510   0.026
 3268SOL    HW211644   5.535   2.511  14.770
 3269SOL     OW11645  12.442   1.689   3.865
 3269SOL    HW111646  12.533   1.712   3.848
 3269SOL    HW211647  12.432   1.601   3.830
 3270SOL     OW11648  10.332  12.166   8.409
 3270SOL    HW111649  10.303  12.075   8.405
 3270SOL    HW211650  10.395  12.168   8.481
 3271SOL     OW11651   2.916  10.070   3.771
 3271SOL    HW111652   2.861  10.090   3.695
 3271SOL    HW211653   2.854  10.061   3.843
 3272SOL     OW11654   5.224   7.839  11.786
 3272SOL    HW111655   5.238   7.777  11.714
 3272SOL    HW211656   5.163   7.793  11.844
 3273SOL     OW11657  11.592   0.557   3.674
 3273SOL    HW111658  11.519   0.607   3.638
 3273SOL    HW211659  11.570   0.466   3.654
 3274SOL     OW11660   7.433   1.713  10.167
 3274SOL    HW111661   7.413   1.708  10.074
 3274SOL    HW211662   7.356   1.676  10.211
 3275SOL     OW11663   8.053   3.982  13.282
 3275SOL    HW111664   8.024   4.043  13.215
 3275SOL    HW211665   7.978   3.972  13.340
 3276SOL     OW11666   7.684   0.790   1.374
 3276SOL    HW111667   7.642   0.845   1.309
 3276SOL    HW211668   7.719   0.851   1.439
 3277SOL     OW11669  13.616   0.746   8.216
 3277SOL    HW111670  13.605   0.724   8.124
 3277SOL    HW211671  13.703   0.785   8.221
 3278SOL     OW11672   9.817  10.327   5.550
 3278SOL    HW111673   9.767  10.350   5.472
 3278SOL    HW211674   9.843  10.412   5.588
 3279SOL     OW11675   3.569   1.466   2.226
 3279SOL    HW111676   3.635   1.422   2.171
 3279SOL    HW211677   3.505   1.499   2.163
 3280SOL     OW11678   5.637   1.485   1.259
 3280SOL    HW111679   5.640   1.518   1.169
 3280SOL    HW211680   5.715   1.429   1.267
 3281SOL     OW11681   4.170   4.580   4.483
 3281SOL    HW111682   4.085   4.622   4.472
 3281SOL    HW211683   4.224   4.645   4.526
 3282SOL     OW11684   1.451   6.117  14.293
 3282SOL    HW111685   1.463   6.120  14.198
 3282SOL    HW211686   1.452   6.024  14.315
 3283SOL     OW11687  11.743   6.884   0.829
 3283SOL    HW111688  11.773   6.856   0.742
 3283SOL    HW211689  11.700   6.968   0.814
 3284SOL     OW11690   9.269  13.400   3.892
 3284SOL    HW111691   9.190  13.359   3.927
 3284SOL    HW211692   9.239  13.447   3.814
 3285SOL     OW11693   9.526   9.352   2.143
 3285SOL    HW111694   9.480   9.275   2.110
 3285SOL    HW211695   9.459   9.420   2.147
 3286SOL     OW11696   1.425   5.632  14.537
 3286SOL    HW111697   1.424   5.638  14.633
 3286SOL    HW211698   1.342   5.589  14.516
 3287SOL     OW11699   4.285   6.691   6.365
 3287SOL    HW111700   4.215   6.668   6.426
 3287SOL    HW211701   4.241   6.702   6.281
 3288SOL     OW11702  10.354   0.687  10.483
 3288SOL    HW111703  10.445   0.703  10.458
 3288SOL    HW211704  10.358   0.614  10.544
 3289SOL     OW11705  11.301   8.591   0.318
 3289SOL    HW111706  11.261   8.576   0.232
 3289SOL    HW211707  11.394   8.573   0.305
 3290SOL     OW11708   7.972   4.581   2.828
 3290SOL    HW111709   8.054   4.535   2.811
 3290SOL    HW211710   7.975   4.602   2.921
 3291SOL     OW11711   9.152   9.812   7.669
 3291SOL    HW111712   9.139   9.725   7.706
 3291SOL    HW211713   9.068   9.857   7.682
 3292SOL     OW11714  13.554   7.771  12.362
 3292SOL    HW111715  13.480   7.713  12.345
 3292SOL    HW211716  13.524   7.825  12.436
 3293SOL     OW11717  11.750   0.594   9.139
 3293SOL    HW111718  11.758   0.690   9.135
 3293SOL    HW211719  11.735   0.576   9.232
 3294SOL     OW11720   4.371   2.790   6.631
 3294SOL    HW111721   4.415   2.869   6.662
 3294SOL    HW211722   4.377   2.795   6.536
 3295SOL     OW11723   0.670  13.881   2.206
 3295SOL    HW111724   0.620  13.931   2.270
 3295SOL    HW211725   0.693  13.800   2.251
 3296SOL     OW11726   2.222   3.788   9.542
 3296SOL    HW111727   2.237   3.722   9.475
 3296SOL    HW211728   2.300   3.785   9.597
 3297SOL     OW11729  11.418  10.152  10.604
 3297SOL    HW111730  11.335  10.166  10.559
 3297SOL    HW211731  11.464  10.236  10.597
 3298SOL     OW11732   2.578   5.023  13.245
 3298SOL    HW111733   2.551   5.046  13.156
 3298SOL    HW211734   2.498   4.994  13.288
 3299SOL     OW11735   8.587   8.457   5.644
 3299SOL    HW111736   8.558   8.534   5.692
 3299SOL    HW211737   8.515   8.394   5.654
 3300SOL     OW11738  10.957  12.626  14.428
 3300SOL    HW111739  10.914  12.576  14.496
 3300SOL    HW211740  11.031  12.572  14.401
 3301SOL     OW11741   3.013   7.848   3.667
 3301SOL    HW111742   3.013   7.897   3.749
 3301SOL    HW211743   3.028   7.915   3.600
 3302SOL     OW11744  14.305   6.265   9.183
 3302SOL    HW111745  14.239   6.304   9.126
 3302SOL    HW211746  14.255   6.231   9.257
 3303SOL     OW11747   8.362  11.309   2.927
 3303SOL    HW111748   8.288  11.359   2.961
 3303SOL    HW211749   8.334  11.217   2.934
 3304SOL     OW11750  13.579   9.691  11.103
 3304SOL    HW111751  13.530   9.765  11.138
 3304SOL    HW211752  13.530   9.663  11.026
 3305SOL     OW11753   6.862   2.419   0.727
 3305SOL    HW111754   6.768   2.406   0.716
 3305SOL    HW211755   6.902   2.356   0.666
 3306SOL     OW11756   3.580   4.786   3.725
 3306SOL    HW111757   3.636   4.850   3.769
 3306SOL    HW211758   3.598   4.798   3.632
 3307SOL     OW11759  12.084   9.179   4.818
 3307SOL    HW111760  12.081   9.238   4.893
 3307SOL    HW211761  12.082   9.237   4.742
 3308SOL     OW11762  10.162   0.154   5.146
 3308SOL    HW111763  10.098   0.125   5.211
 3308SOL    HW211764  10.121   0.229   5.104
 3309SOL     OW11765  10.781  12.014  11.968
 3309SOL    HW111766  10.865  12.026  12.011
 3309SOL    HW211767  10.773  11.919  11.956
 3310SOL     OW11768   0.020   0.220   3.935
 3310SOL    HW111769  14.810   0.261   3.955
 3310SOL    HW211770   0.052   0.268   3.858
 3311SOL     OW11771  10.203   7.175  12.790
 3311SOL    HW111772  10.117   7.163  12.751
 3311SOL    HW211773  10.214   7.270  12.795
 3312SOL     OW11774  13.454   1.286   0.786
 3312SOL    HW111775  13.464   1.318   0.876
 3312SOL    HW211776  13.378   1.333   0.752
 3313SOL     OW11777  10.994  14.815   3.579
 3313SOL    HW111778  11.033  14.749   3.635
 3313SOL    HW211779  10.922  14.852   3.631
 3314SOL     OW11780   6.235   9.048  10.294
 3314SOL    HW111781   6.308   9.005  10.337
 3314SOL    HW211782   6.255   9.042  10.201
 3315SOL     OW11783  13.071   4.355   2.972
 3315SOL    HW111784  13.142   4.419   2.971
 3315SOL    HW211785  13.089   4.299   2.897
 3316SOL     OW11786  10.808   6.766  10.379
 3316SOL    HW111787  10.738   6.769  10.314
 3316SOL    HW211788  10.777   6.703  10.444
 3317SOL     OW11789  11.307   7.924  10.359
 3317SOL    HW111790  11.392   7.880  10.360
 3317SOL    HW211791  11.315   7.993  10.425
 3318SOL     OW11792   3.550   7.503  12.320
 3318SOL    HW111793   3.553   7.534  12.230
 3318SOL    HW211794   3.544   7.583  12.373
 3319SOL     OW11795  10.732  11.240  14.808
 3319SOL    HW111796  10.706  11.238   0.026
 3319SOL    HW211797  10.697  11.323  14.775
 3320SOL     OW11798  10.159   4.333   6.651
 3320SOL    HW111799  10.213   4.273   6.600
 3320SOL    HW211800  10.147   4.289   6.735
 3321SOL     OW11801  11.779  11.784   6.802
 3321SOL    HW111802  11.724  11.740   6.737
 3321SOL    HW211803  11.849  11.721   6.821
 3322SOL     OW11804   3.113   0.703  12.230
 3322SOL    HW111805   3.135   0.614  12.202
 3322SOL    HW211806   3.032   0.693  12.279
 3323SOL     OW11807   0.622   8.516   2.812
 3323SOL    HW111808   0.562   8.590   2.825
 3323SOL    HW211809   0.683   8.546   2.744
 3324SOL     OW11810   8.718  10.988   2.009
 3324SOL    HW111811   8.754  11.024   1.928
 3324SOL    HW211812   8.725  10.893   1.999
 3325SOL     OW11813   5.758   1.768   9.730
 3325SOL    HW111814   5.851   1.787   9.746
 3325SOL    HW211815   5.758   1.712   9.653
 3326SOL     OW11816   0.775   5.792   0.640
 3326SOL    HW111817   0.699   5.734   0.642
 3326SOL    HW211818   0.817   5.774   0.556
 3327SOL     OW11819   1.060  13.458   7.838
 3327SOL    HW111820   1.004  13.535   7.848
 3327SOL    HW211821   1.126  13.485   7.774
 3328SOL     OW11822  14.846  10.965   7.142
 3328SOL    HW111823   0.014  10.880   7.154
 3328SOL    HW211824   0.045  11.027   7.134
 3329SOL     OW11825   7.226  13.639  10.937
 3329SOL    HW111826   7.165  13.678  11.000
 3329SOL    HW211827   7.312  13.670  10.966
 3330SOL     OW11828   5.256  10.999   8.668
 3330SOL    HW111829   5.178  11.054   8.663
 3330SOL    HW211830   5.304  11.018   8.587
 3331SOL     OW11831  10.045  11.930   8.137
 3331SOL    HW111832  10.052  11.975   8.053
 3331SOL    HW211833  10.014  11.997   8.198
 3332SOL     OW11834   7.182  13.057   9.554
 3332SOL    HW111835   7.162  13.005   9.476
 3332SOL    HW211836   7.162  12.999   9.627
 3333SOL     OW11837  11.799   9.782   0.426
 3333SOL    HW111838  11.810   9.696   0.465
 3333SOL    HW211839  11.883   9.800   0.383
 3334SOL     OW11840   6.454  13.633   2.571
 3334SOL    HW111841   6.477  13.586   2.651
 3334SOL    HW211842   6.537  13.668   2.539
 3335SOL     OW11843   2.578   0.222   3.118
 3335SOL    HW111844   2.523   0.296   3.093
 3335SOL    HW211845   2.564   0.212   3.212
 3336SOL     OW11846   0.256   2.703  12.805
 3336SOL    HW111847   0.183   2.762  12.824
 3336SOL    HW211848   0.221   2.616  12.826
 3337SOL     OW11849   6.631   0.468  10.945
 3337SOL    HW111850   6.593   0.390  10.986
 3337SOL    HW211851   6.575   0.485  10.869
 3338SOL     OW11852   5.370  14.612   3.103
 3338SOL    HW111853   5.448  14.600   3.156
 3338SOL    HW211854   5.301  14.566   3.151
 3339SOL     OW11855  10.728   5.893   3.774
 3339SOL    HW111856  10.782   5.946   3.833
 3339SOL    HW211857  10.727   5.942   3.692
 3340SOL     OW11858   4.569   1.320   7.543
 3340SOL    HW111859   4.478   1.294   7.548
 3340SOL    HW211860   4.617   1.254   7.593
 3341SOL     OW11861  13.653   2.449   6.395
 3341SOL    HW111862  13.605   2.471   6.315
 3341SOL    HW211863  13.585   2.421   6.456
 3342SOL     OW11864   9.780   8.057   7.993
 3342SOL    HW111865   9.755   8.024   8.079
 3342SOL    HW211866   9.711   8.119   7.970
 3343SOL     OW11867   5.719   6.271   4.640
 3343SOL    HW111868   5.625   6.285   4.639
 3343SOL    HW211869   5.743   6.273   4.733
 3344SOL     OW11870   8.095   2.489  11.343
 3344SOL    HW111871   8.181   2.529  11.359
 3344SOL    HW211872   8.107   2.396  11.365
 3345SOL     OW11873   4.465   3.627  10.380
 3345SOL    HW111874   4.557   3.603  10.386
 3345SOL    HW211875   4.432   3.621  10.470
 3346SOL     OW11876  10.127  13.829   4.569
 3346SOL    HW111877  10.180  13.899   4.532
 3346SOL    HW211878  10.126  13.846   4.663
 3347SOL     OW11879   2.493   7.635   1.225
 3347SOL    HW111880   2.576   7.589   1.215
 3347SOL    HW211881   2.492   7.700   1.154
 3348SOL     OW11882   6.611   3.379   3.189
 3348SOL    HW111883   6.585   3.435   3.262
 3348SOL    HW211884   6.545   3.309   3.187
 3349SOL     OW11885   3.854  13.849   3.993
 3349SOL    HW111886   3.886  13.779   3.936
 3349SOL    HW211887   3.921  13.917   3.987
 3350SOL     OW11888  13.070   0.444   0.396
 3350SOL    HW111889  13.050   0.474   0.307
 3350SOL    HW211890  13.055   0.521   0.451
 3351SOL     OW11891  10.898   7.394   9.994
 3351SOL    HW111892  10.983   7.429  10.019
 3351SOL    HW211893  10.847   7.471   9.968
 3352SOL     OW11894   4.718   5.769  11.922
 3352SOL    HW111895   4.782   5.832  11.889
 3352SOL    HW211896   4.728   5.773  12.017
 3353SOL     OW11897   8.768   3.418  11.182
 3353SOL    HW111898   8.726   3.410  11.268
 3353SOL    HW211899   8.849   3.466  11.200
 3354SOL     OW11900   6.158   7.928  14.410
 3354SOL    HW111901   6.093   7.995  14.431
 3354SOL    HW211902   6.218   7.928  14.485
 3355SOL     OW11903  10.550  13.038   0.220
 3355SOL    HW111904  10.602  12.958   0.217
 3355SOL    HW211905  10.603  13.099   0.273
 3356SOL     OW11906   0.395   3.872  10.236
 3356SOL    HW111907   0.383   3.831  10.321
 3356SOL    HW211908   0.398   3.966  10.254
 3357SOL     OW11909   5.578   0.879   0.707
 3357SOL    HW111910   5.504   0.921   0.751
 3357SOL    HW211911   5.648   0.879   0.772
 3358SOL     OW11912  14.681  12.621  10.336
 3358SOL    HW111913  14.750  12.562  10.364
 3358SOL    HW211914  14.633  12.643  10.416
 3359SOL     OW11915  12.478  12.735   3.054
 3359SOL    HW111916  12.388  12.708   3.074
 3359SOL    HW211917  12.523  12.732   3.138
 3360SOL     OW11918  14.263   3.783   0.319
 3360SOL    HW111919  14.335   3.748   0.266
 3360SOL    HW211920  14.275   3.878   0.315
 3361SOL     OW11921   9.252   8.335  12.826
 3361SOL    HW111922   9.318   8.395  12.862
 3361SOL    HW211923   9.202   8.389  12.765
 3362SOL     OW11924  11.966   5.796  13.033
 3362SOL    HW111925  12.044   5.755  13.071
 3362SOL    HW211926  11.983   5.796  12.939
 3363SOL     OW11927  13.907   4.298   3.744
 3363SOL    HW111928  13.857   4.250   3.678
 3363SOL    HW211929  13.998   4.284   3.720
 3364SOL     OW11930  10.492   5.047   6.951
 3364SOL    HW111931  10.483   5.050   6.855
 3364SOL    HW211932  10.534   4.963   6.968
 3365SOL     OW11933   2.630   5.404  14.003
 3365SOL    HW111934   2.617   5.497  13.987
 3365SOL    HW211935   2.640   5.398  14.098
 3366SOL     OW11936   0.793   9.707  13.072
 3366SOL    HW111937   0.804   9.770  13.142
 3366SOL    HW211938   0.838   9.628  13.103
 3367SOL     OW11939   2.353   4.776  12.306
 3367SOL    HW111940   2.384   4.865  12.288
 3367SOL    HW211941   2.418   4.740  12.366
 3368SOL     OW11942   9.993   3.016   4.970
 3368SOL    HW111943   9.932   2.944   4.956
 3368SOL    HW211944   9.974   3.078   4.899
 3369SOL     OW11945   1.697  13.977  13.574
 3369SOL    HW111946   1.772  14.015  13.528
 3369SOL    HW211947   1.672  13.901  13.522
 3370SOL     OW11948   6.377   2.984   4.418
 3370SOL    HW111949   6.366   2.923   4.345
 3370SOL    HW211950   6.366   3.071   4.378
 3371SOL     OW11951  13.284  10.170   1.298
 3371SOL    HW111952  13.335  10.110   1.352
 3371SOL    HW211953  13.332  10.173   1.214
 3372SOL     OW11954   1.781  11.247   8.830
 3372SOL    HW111955   1.712  11.274   8.890
 3372SOL    HW211956   1.739  11.243   8.744
 3373SOL     OW11957   5.167   7.609   2.030
 3373SOL    HW111958   5.187   7.525   1.989
 3373SOL    HW211959   5.112   7.655   1.966
 3374SOL     OW11960   8.187   9.684   7.433
 3374SOL    HW111961   8.188   9.611   7.495
 3374SOL    HW211962   8.261   9.667   7.375
 3375SOL     OW11963  14.419   8.442   9.079
 3375SOL    HW111964  14.323   8.440   9.084
 3375SOL    HW211965  14.447   8.360   9.120
 3376SOL     OW11966   9.149   8.093  14.640
 3376SOL    HW111967   9.079   8.075  14.702
 3376SOL    HW211968   9.197   8.166  14.678
 3377SOL     OW11969  13.040   9.893   8.825
 3377SOL    HW111970  13.051   9.931   8.738
 3377SOL    HW211971  12.949   9.861   8.825
 3378SOL     OW11972   5.197   5.961   3.122
 3378SOL    HW111973   5.172   5.986   3.210
 3378SOL    HW211974   5.218   5.868   3.128
 3379SOL     OW11975   8.395   6.966   1.734
 3379SOL    HW111976   8.324   6.921   1.781
 3379SOL    HW211977   8.416   7.040   1.790
 3380SOL     OW11978   2.275  13.565   5.227
 3380SOL    HW111979   2.322  13.580   5.145
 3380SOL    HW211980   2.188  13.536   5.199
 3381SOL     OW11981   6.240   9.568  13.840
 3381SOL    HW111982   6.202   9.497  13.892
 3381SOL    HW211983   6.166   9.606  13.794
 3382SOL     OW11984   1.300   2.351   3.016
 3382SOL    HW111985   1.345   2.435   3.004
 3382SOL    HW211986   1.296   2.313   2.929
 3383SOL     OW11987  12.410   4.855  13.033
 3383SOL    HW111988  12.438   4.946  13.041
 3383SOL    HW211989  12.328   4.859  12.983
 3384SOL     OW11990   2.294   0.272   3.104
 3384SOL    HW111991   2.217   0.296   3.155
 3384SOL    HW211992   2.289   0.177   3.095
 3385SOL     OW11993  10.270   8.217   0.815
 3385SOL    HW111994  10.293   8.167   0.894
 3385SOL    HW211995  10.264   8.150   0.746
 3386SOL     OW11996  13.035   1.731   4.545
 3386SOL    HW111997  13.061   1.809   4.594
 3386SOL    HW211998  13.116   1.700   4.505
 3387SOL     OW11999   4.389  10.565  12.772
 3387SOL    HW112000   4.483  10.573  12.762
 3387SOL    HW212001   4.374  10.572  12.867
 3388SOL     OW12002  11.806   9.527  11.893
 3388SOL    HW112003  11.849   9.537  11.979
 3388SOL    HW212004  11.778   9.436  11.891
 3389SOL     OW12005   2.792   0.710   3.907
 3389SOL    HW112006   2.775   0.774   3.838
 3389SOL    HW212007   2.871   0.741   3.951
 3390SOL     OW12008  14.506   2.297   7.944
 3390SOL    HW112009  14.587   2.338   7.913
 3390SOL    HW212010  14.463   2.265   7.865
 3391SOL     OW12011   2.054   0.449  13.018
 3391SOL    HW112012   2.002   0.487  12.947
 3391SOL    HW212013   1.993   0.392  13.064
 3392SOL     OW12014  10.943   3.771  11.373
 3392SOL    HW112015  11.025   3.725  11.390
 3392SOL    HW212016  10.892   3.711  11.319
 3393SOL     OW12017  10.089  14.628   7.568
 3393SOL    HW112018  10.038  14.547   7.564
 3393SOL    HW212019  10.178  14.601   7.543
 3394SOL     OW12020   0.628   1.642   7.095
 3394SOL    HW112021   0.675   1.691   7.027
 3394SOL    HW212022   0.694   1.585   7.134
 3395SOL     OW12023  11.542   5.215   3.859
 3395SOL    HW112024  11.455   5.254   3.851
 3395SOL    HW212025  11.598   5.286   3.889
 3396SOL     OW12026  12.294  11.033   1.084
 3396SOL    HW112027  12.331  11.121   1.084
 3396SOL    HW212028  12.220  11.038   1.145
 3397SOL     OW12029  11.429   2.979  12.923
 3397SOL    HW112030  11.368   3.021  12.863
 3397SOL    HW212031  11.471   3.051  12.970
 3398SOL     OW12032   1.357   3.041   2.308
 3398SOL    HW112033   1.443   3.072   2.279
 3398SOL    HW212034   1.336   2.970   2.247
 3399SOL     OW12035   1.195   4.156   7.477
 3399SOL    HW112036   1.191   4.115   7.563
 3399SOL    HW212037   1.270   4.215   7.481
 3400SOL     OW12038   1.676   2.198   6.661
 3400SOL    HW112039   1.584   2.211   6.637
 3400SOL    HW212040   1.717   2.283   6.646
 3401SOL     OW12041  10.651  14.143   3.280
 3401SOL    HW112042  10.643  14.236   3.302
 3401SOL    HW212043  10.684  14.142   3.190
 3402SOL     OW12044   0.419   7.699   4.956
 3402SOL    HW112045   0.492   7.735   5.005
 3402SOL    HW212046   0.353   7.768   4.955
 3403SOL     OW12047   7.232   1.181   6.193
 3403SOL    HW112048   7.230   1.267   6.236
 3403SOL    HW212049   7.142   1.164   6.168
 3404SOL     OW12050  10.569   6.863  10.707
 3404SOL    HW112051  10.592   6.955  10.712
 3404SOL    HW212052  10.474   6.862  10.698
 3405SOL     OW12053  13.157  14.626   6.616
 3405SOL    HW112054  13.063  14.629   6.600
 3405SOL    HW212055  13.196  14.652   6.532
 3406SOL     OW12056   8.315   9.282  12.871
 3406SOL    HW112057   8.344   9.304  12.960
 3406SOL    HW212058   8.232   9.235  12.884
 3407SOL     OW12059   3.602   8.356   1.612
 3407SOL    HW112060   3.648   8.406   1.678
 3407SOL    HW212061   3.601   8.413   1.535
 3408SOL     OW12062   9.152   9.625   5.001
 3408SOL    HW112063   9.224   9.687   5.014
 3408SOL    HW212064   9.127   9.598   5.089
 3409SOL     OW12065   8.118  11.144   7.922
 3409SOL    HW112066   8.026  11.170   7.915
 3409SOL    HW212067   8.148  11.137   7.831
 3410SOL     OW12068   9.888   0.875   1.917
 3410SOL    HW112069   9.866   0.943   1.980
 3410SOL    HW212070   9.838   0.798   1.945
 3411SOL     OW12071  10.442   9.895  10.804
 3411SOL    HW112072  10.406   9.968  10.853
 3411SOL    HW212073  10.529   9.925  10.777
 3412SOL     OW12074  10.561   0.644   8.782
 3412SOL    HW112075  10.534   0.712   8.843
 3412SOL    HW212076  10.533   0.562   8.823
 3413SOL     OW12077  14.492  12.090  11.788
 3413SOL    HW112078  14.560  12.073  11.853
 3413SOL    HW212079  14.453  12.004  11.770
 3414SOL     OW12080  14.776   8.525   5.407
 3414SOL    HW112081  14.846   8.590   5.403
 3414SOL    HW212082  14.821   8.440   5.406
 3415SOL     OW12083  10.147  10.123   3.991
 3415SOL    HW112084  10.058  10.101   4.015
 3415SOL    HW212085  10.196  10.041   3.999
 3416SOL     OW12086   6.992   0.251  12.901
 3416SOL    HW112087   6.936   0.299  12.961
 3416SOL    HW212088   6.970   0.159  12.916
 3417SOL     OW12089   6.652   4.680   3.951
 3417SOL    HW112090   6.686   4.753   4.002
 3417SOL    HW212091   6.625   4.719   3.868
 3418SOL     OW12092   6.265  11.848   7.359
 3418SOL    HW112093   6.178  11.882   7.382
 3418SOL    HW212094   6.314  11.852   7.441
 3419SOL     OW12095  12.072   2.898   3.127
 3419SOL    HW112096  12.124   2.894   3.047
 3419SOL    HW212097  11.997   2.953   3.104
 3420SOL     OW12098  14.524   2.185  13.418
 3420SOL    HW112099  14.573   2.259  13.382
 3420SOL    HW212100  14.552   2.181  13.510
 3421SOL     OW12101  10.151   5.231   1.046
 3421SOL    HW112102  10.239   5.206   1.018
 3421SOL    HW212103  10.097   5.222   0.968
 3422SOL     OW12104  11.963   5.558  10.970
 3422SOL    HW112105  12.027   5.585  10.904
 3422SOL    HW212106  11.904   5.500  10.923
 3423SOL     OW12107   5.062   1.275   5.592
 3423SOL    HW112108   5.107   1.202   5.635
 3423SOL    HW212109   4.970   1.265   5.618
 3424SOL     OW12110  12.212  11.248   5.540
 3424SOL    HW112111  12.144  11.218   5.480
 3424SOL    HW212112  12.167  11.310   5.597
 3425SOL     OW12113   4.425  13.599   9.524
 3425SOL    HW112114   4.423  13.508   9.496
 3425SOL    HW212115   4.406  13.596   9.618
 3426SOL     OW12116  10.665  11.256   6.182
 3426SOL    HW112117  10.759  11.249   6.196
 3426SOL    HW212118  10.650  11.348   6.161
 3427SOL     OW12119   8.567  10.096   2.002
 3427SOL    HW112120   8.502  10.128   2.064
 3427SOL    HW212121   8.521  10.028   1.952
 3428SOL     OW12122   2.149  10.954   1.331
 3428SOL    HW112123   2.212  10.916   1.270
 3428SOL    HW212124   2.066  10.911   1.310
 3429SOL     OW12125   4.543   5.224   6.679
 3429SOL    HW112126   4.489   5.258   6.750
 3429SOL    HW212127   4.483   5.219   6.604
 3430SOL     OW12128  14.840   2.276   5.881
 3430SOL    HW112129  14.815   2.349   5.825
 3430SOL    HW212130   0.062   2.279   5.883
 3431SOL     OW12131  11.024  12.661   7.805
 3431SOL    HW112132  11.011  12.584   7.750
 3431SOL    HW212133  11.076  12.720   7.751
 3432SOL     OW12134   1.906   7.048   9.621
 3432SOL    HW112135   1.887   7.071   9.530
 3432SOL    HW212136   1.967   6.975   9.615
 3433SOL     OW12137  13.057   8.268  14.540
 3433SOL    HW112138  13.078   8.175  14.554
 3433SOL    HW212139  13.128   8.301  14.486
 3434SOL     OW12140  10.261   0.928   4.751
 3434SOL    HW112141  10.354   0.908   4.766
 3434SOL    HW212142  10.240   0.992   4.820
 3435SOL     OW12143   3.211   9.500  13.193
 3435SOL    HW112144   3.121   9.511  13.163
 3435SOL    HW212145   3.258   9.575  13.156
 3436SOL     OW12146   9.627  12.429   9.594
 3436SOL    HW112147   9.668  12.362   9.649
 3436SOL    HW212148   9.669  12.418   9.508
 3437SOL     OW12149   8.938  11.293  11.416
 3437SOL    HW112150   8.992  11.372  11.412
 3437SOL    HW212151   8.904  11.282  11.327
 3438SOL     OW12152   5.224   5.621  13.459
 3438SOL    HW112153   5.191   5.542  13.417
 3438SOL    HW212154   5.157   5.645  13.523
 3439SOL     OW12155   6.085   0.021   4.112
 3439SOL    HW112156   6.112  14.863   4.026
 3439SOL    HW212157   6.084   0.116   4.102
 3440SOL     OW12158   6.883   1.311   4.854
 3440SOL    HW112159   6.923   1.331   4.939
 3440SOL    HW212160   6.842   1.226   4.867
 3441SOL     OW12161   5.837  10.622  10.822
 3441SOL    HW112162   5.889  10.702  10.813
 3441SOL    HW212163   5.746  10.651  10.815
 3442SOL     OW12164   3.333   4.429   5.141
 3442SOL    HW112165   3.407   4.423   5.080
 3442SOL    HW212166   3.373   4.426   5.227
 3443SOL     OW12167  11.989  10.313   9.851
 3443SOL    HW112168  11.904  10.351   9.828
 3443SOL    HW212169  11.989  10.227   9.809
 3444SOL     OW12170   5.265  10.112   7.114
 3444SOL    HW112171   5.280  10.203   7.090
 3444SOL    HW212172   5.348  10.083   7.152
 3445SOL     OW12173   1.091  11.053  11.773
 3445SOL    HW112174   1.135  10.968  11.765
 3445SOL    HW212175   1.042  11.063  11.692
 3446SOL     OW12176  14.152   6.154   1.650
 3446SOL    HW112177  14.247   6.149   1.664
 3446SOL    HW212178  14.115   6.170   1.737
 3447SOL     OW12179   6.253  12.935   2.326
 3447SOL    HW112180   6.340  12.947   2.363
 3447SOL    HW212181   6.224  12.850   2.360
 3448SOL     OW12182  11.511  11.334   7.179
 3448SOL    HW112183  11.464  11.283   7.245
 3448SOL    HW212184  11.525  11.272   7.107
 3449SOL     OW12185   1.067  14.522  11.532
 3449SOL    HW112186   0.994  14.581  11.550
 3449SOL    HW212187   1.026  14.440  11.505
 3450SOL     OW12188  14.473   3.676   7.234
 3450SOL    HW112189  14.434   3.590   7.224
 3450SOL    HW212190  14.560   3.667   7.195
 3451SOL     OW12191  10.634   4.622  14.826
 3451SOL    HW112192  10.565   4.602   0.015
 3451SOL    HW212193  10.667   4.708  14.853
 3452SOL     OW12194  12.198  13.163   6.545
 3452SOL    HW112195  12.130  13.230   6.543
 3452SOL    HW212196  12.213  13.147   6.638
 3453SOL     OW12197   0.496   4.704   2.540
 3453SOL    HW112198   0.478   4.763   2.467
 3453SOL    HW212199   0.418   4.650   2.547
 3454SOL     OW12200   5.271   2.415   6.840
 3454SOL    HW112201   5.205   2.352   6.811
 3454SOL    HW212202   5.221   2.483   6.885
 3455SOL     OW12203  13.231  12.235   6.408
 3455SOL    HW112204  13.273  12.294   6.471
 3455SOL    HW212205  13.237  12.281   6.324
 3456SOL     OW12206  12.559  14.360  14.734
 3456SOL    HW112207  12.578  14.267  14.747
 3456SOL    HW212208  12.619  14.387  14.665
 3457SOL     OW12209   5.170  14.365   5.706
 3457SOL    HW112210   5.098  14.373   5.768
 3457SOL    HW212211   5.176  14.271   5.689
 3458SOL     OW12212   0.913   4.559   4.787
 3458SOL    HW112213   0.835   4.536   4.738
 3458SOL    HW212214   0.886   4.557   4.879
 3459SOL     OW12215   5.984   8.764   5.776
 3459SOL    HW112216   5.910   8.803   5.730
 3459SOL    HW212217   6.057   8.769   5.715
 3460SOL     OW12218   2.475   2.719   7.537
 3460SOL    HW112219   2.404   2.775   7.507
 3460SOL    HW212220   2.554   2.773   7.529
 3461SOL     OW12221   3.651   7.967  13.175
 3461SOL    HW112222   3.662   7.923  13.260
 3461SOL    HW212223   3.680   8.057  13.191
 3462SOL     OW12224   5.240   9.265  13.079
 3462SOL    HW112225   5.160   9.250  13.028
 3462SOL    HW212226   5.237   9.359  13.100
 3463SOL     OW12227   0.061  11.256   5.140
 3463SOL    HW112228  14.857  11.257   5.084
 3463SOL    HW212229   0.078  11.163   5.156
 3464SOL     OW12230  12.611   3.457   3.176
 3464SOL    HW112231  12.638   3.433   3.088
 3464SOL    HW212232  12.665   3.402   3.233
 3465SOL     OW12233   3.030  13.669   1.301
 3465SOL    HW112234   2.938  13.647   1.292
 3465SOL    HW212235   3.032  13.765   1.308
 3466SOL     OW12236   6.819   8.279   4.280
 3466SOL    HW112237   6.729   8.250   4.263
 3466SOL    HW212238   6.856   8.290   4.192
 3467SOL     OW12239  12.388   5.046   1.233
 3467SOL    HW112240  12.470   5.063   1.187
 3467SOL    HW212241  12.381   5.116   1.298
 3468SOL     OW12242   1.345   7.713   3.900
 3468SOL    HW112243   1.283   7.662   3.848
 3468SOL    HW212244   1.418   7.652   3.916
 3469SOL     OW12245   1.424   9.797   3.142
 3469SOL    HW112246   1.396   9.793   3.234
 3469SOL    HW212247   1.348   9.770   3.092
 3470SOL     OW12248   5.710  13.166   2.744
 3470SOL    HW112249   5.680  13.085   2.704
 3470SOL    HW212250   5.805  13.166   2.730
 3471SOL     OW12251  14.132   5.531   9.492
 3471SOL    HW112252  14.118   5.477   9.415
 3471SOL    HW212253  14.223   5.513   9.517
 3472SOL     OW12254   0.256   4.851   3.766
 3472SOL    HW112255   0.256   4.757   3.785
 3472SOL    HW212256   0.302   4.858   3.683
 3473SOL     OW12257   8.785   4.057   2.840
 3473SOL    HW112258   8.797   4.149   2.817
 3473SOL    HW212259   8.784   4.056   2.936
 3474SOL     OW12260   1.256   0.871   7.654
 3474SOL    HW112261   1.302   0.788   7.663
 3474SOL    HW212262   1.270   0.915   7.738
 3475SOL     OW12263   5.694   2.701   8.063
 3475SOL    HW112264   5.668   2.639   8.132
 3475SOL    HW212265   5.729   2.645   7.994
 3476SOL     OW12266   6.795   0.893   4.337
 3476SOL    HW112267   6.780   0.814   4.285
 3476SOL    HW212268   6.871   0.934   4.296
 3477SOL     OW12269   8.778  14.398  10.809
 3477SOL    HW112270   8.812  14.314  10.776
 3477SOL    HW212271   8.717  14.427  10.741
 3478SOL     OW12272   0.979   8.114  14.544
 3478SOL    HW112273   1.072   8.126  14.525
 3478SOL    HW212274   0.973   8.115  14.639
 3479SOL     OW12275  13.228   0.336   1.452
 3479SOL    HW112276  13.154   0.397   1.449
 3479SOL    HW212277  13.306   0.392   1.446
 3480SOL     OW12278   9.939   8.004   0.695
 3480SOL    HW112279   9.882   8.080   0.684
 3480SOL    HW212280   9.926   7.952   0.615
 3481SOL     OW12281   6.372  10.688   6.227
 3481SOL    HW112282   6.416  10.663   6.308
 3481SOL    HW212283   6.391  10.782   6.217
 3482SOL     OW12284   1.848  11.024   8.437
 3482SOL    HW112285   1.922  11.075   8.471
 3482SOL    HW212286   1.799  11.087   8.385
 3483SOL     OW12287  10.047   4.097   5.230
 3483SOL    HW112288   9.959   4.067   5.207
 3483SOL    HW212289  10.106   4.037   5.185
 3484SOL     OW12290   2.749  11.838  14.013
 3484SOL    HW112291   2.711  11.913  13.967
 3484SOL    HW212292   2.773  11.777  13.943
 3485SOL     OW12293  12.592   0.668  10.576
 3485SOL    HW112294  12.565   0.657  10.485
 3485SOL    HW212295  12.510   0.675  10.625
 3486SOL     OW12296   7.483   8.921   4.687
 3486SOL    HW112297   7.549   8.894   4.624
 3486SOL    HW212298   7.517   9.003   4.724
 3487SOL     OW12299   7.638   3.445   2.876
 3487SOL    HW112300   7.601   3.532   2.857
 3487SOL    HW212301   7.578   3.408   2.941
 3488SOL     OW12302  10.935  11.131   8.577
 3488SOL    HW112303  11.017  11.174   8.603
 3488SOL    HW212304  10.948  11.039   8.599
 3489SOL     OW12305  14.613   1.130   0.529
 3489SOL    HW112306  14.541   1.182   0.564
 3489SOL    HW212307  14.585   1.106   0.441
 3490SOL     OW12308  12.341   1.182   6.319
 3490SOL    HW112309  12.419   1.129   6.302
 3490SOL    HW212310  12.270   1.118   6.327
 3491SOL     OW12311   7.884  12.022  11.207
 3491SOL    HW112312   7.858  12.090  11.269
 3491SOL    HW212313   7.979  12.015  11.216
 3492SOL     OW12314   9.034   4.787  11.240
 3492SOL    HW112315   9.050   4.846  11.166
 3492SOL    HW212316   9.121   4.757  11.267
 3493SOL     OW12317  10.390   0.212   7.805
 3493SOL    HW112318  10.391   0.118   7.786
 3493SOL    HW212319  10.479   0.232   7.835
 3494SOL     OW12320   7.548  10.808   1.374
 3494SOL    HW112321   7.503  10.891   1.362
 3494SOL    HW212322   7.618  10.808   1.308
 3495SOL     OW12323  14.236   7.346  12.615
 3495SOL    HW112324  14.257   7.299  12.695
 3495SOL    HW212325  14.164   7.296  12.576
 3496SOL     OW12326  12.845   9.875   5.790
 3496SOL    HW112327  12.881   9.889   5.878
 3496SOL    HW212328  12.757   9.840   5.805
 3497SOL     OW12329   0.282   5.462   7.224
 3497SOL    HW112330   0.328   5.545   7.220
 3497SOL    HW212331   0.254   5.455   7.315
 3498SOL     OW12332   4.552   2.238   2.224
 3498SOL    HW112333   4.486   2.170   2.241
 3498SOL    HW212334   4.519   2.283   2.146
 3499SOL     OW12335   1.755  10.290   3.340
 3499SOL    HW112336   1.745  10.336   3.256
 3499SOL    HW212337   1.780  10.359   3.401
 3500SOL     OW12338   3.984   0.093   0.342
 3500SOL    HW112339   4.059   0.033   0.341
 3500SOL    HW212340   3.909   0.038   0.318
 3501SOL     OW12341  12.173  10.060   6.383
 3501SOL    HW112342  12.244  10.118   6.356
 3501SOL    HW212343  12.213  10.001   6.447
 3502SOL     OW12344  10.630  10.442  12.090
 3502SOL    HW112345  10.686  10.394  12.150
 3502SOL    HW212346  10.688  10.470  12.019
 3503SOL     OW12347   5.420   0.272  12.584
 3503SOL    HW112348   5.401   0.301  12.674
 3503SOL    HW212349   5.334   0.266  12.543
 3504SOL     OW12350   5.197  14.194   5.094
 3504SOL    HW112351   5.287  14.169   5.111
 3504SOL    HW212352   5.144  14.125   5.134
 3505SOL     OW12353   1.152   6.962   4.553
 3505SOL    HW112354   1.113   6.900   4.614
 3505SOL    HW212355   1.077   6.999   4.506
 3506SOL     OW12356   5.407  12.367   1.378
 3506SOL    HW112357   5.403  12.432   1.309
 3506SOL    HW212358   5.443  12.413   1.454
 3507SOL     OW12359   7.244  13.181   5.308
 3507SOL    HW112360   7.245  13.226   5.393
 3507SOL    HW212361   7.244  13.088   5.330
 3508SOL     OW12362   0.517   6.047   6.639
 3508SOL    HW112363   0.464   6.115   6.596
 3508SOL    HW212364   0.480   5.965   6.606
 3509SOL     OW12365   2.304   2.850   0.308
 3509SOL    HW112366   2.313   2.785   0.238
 3509SOL    HW212367   2.289   2.932   0.262
 3510SOL     OW12368  10.525   7.856   2.827
 3510SOL    HW112369  10.541   7.767   2.858
 3510SOL    HW212370  10.433   7.855   2.800
 3511SOL     OW12371   6.842  13.419   8.756
 3511SOL    HW112372   6.907  13.396   8.689
 3511SOL    HW212373   6.766  13.363   8.735
 3512SOL     OW12374   3.339   0.414  13.286
 3512SOL    HW112375   3.323   0.498  13.330
 3512SOL    HW212376   3.385   0.438  13.206
 3513SOL     OW12377   7.485  10.300   3.486
 3513SOL    HW112378   7.411  10.344   3.527
 3513SOL    HW212379   7.542  10.275   3.560
 3514SOL     OW12380   8.222  12.553   7.992
 3514SOL    HW112381   8.291  12.578   7.930
 3514SOL    HW212382   8.269  12.518   8.068
 3515SOL     OW12383   8.851   8.773  14.611
 3515SOL    HW112384   8.805   8.846  14.571
 3515SOL    HW212385   8.784   8.725  14.659
 3516SOL     OW12386   8.615   4.830   5.653
 3516SOL    HW112387   8.615   4.867   5.565
 3516SOL    HW212388   8.697   4.781   5.659
 3517SOL     OW12389  11.281  11.829  11.415
 3517SOL    HW112390  11.314  11.755  11.466
 3517SOL    HW212391  11.275  11.796  11.326
 3518SOL     OW12392  11.329  10.622   6.857
 3518SOL    HW112393  11.237  10.648   6.856
 3518SOL    HW212394  11.376  10.701   6.831
 3519SOL     OW12395  10.207   9.357   2.091
 3519SOL    HW112396  10.227   9.414   2.166
 3519SOL    HW212397  10.114   9.337   2.101
 3520SOL     OW12398  10.827  12.506   4.124
 3520SOL    HW112399  10.878  12.464   4.194
 3520SOL    HW212400  10.737  12.480   4.142
 3521SOL     OW12401  11.195   9.826   2.638
 3521SOL    HW112402  11.241   9.815   2.721
 3521SOL    HW212403  11.262   9.856   2.576
 3522SOL     OW12404   4.335   1.091   7.366
 3522SOL    HW112405   4.430   1.084   7.359
 3522SOL    HW212406   4.310   1.022   7.427
 3523SOL     OW12407   5.477   4.525  11.252
 3523SOL    HW112408   5.421   4.468  11.306
 3523SOL    HW212409   5.528   4.575  11.315
 3524SOL     OW12410   3.518   5.700   6.878
 3524SOL    HW112411   3.518   5.622   6.933
 3524SOL    HW212412   3.425   5.716   6.859
 3525SOL     OW12413   1.933   6.799   3.263
 3525SOL    HW112414   2.006   6.760   3.215
 3525SOL    HW212415   1.962   6.888   3.283
 3526SOL     OW12416   3.841   6.860   6.162
 3526SOL    HW112417   3.834   6.806   6.084
 3526SOL    HW212418   3.801   6.807   6.231
 3527SOL     OW12419  14.008   7.037   4.853
 3527SOL    HW112420  14.033   7.073   4.768
 3527SOL    HW212421  14.067   7.079   4.916
 3528SOL     OW12422   8.737   0.110   2.557
 3528SOL    HW112423   8.643   0.120   2.545
 3528SOL    HW212424   8.747   0.084   2.648
 3529SOL     OW12425   4.942   4.336  14.121
 3529SOL    HW112426   4.883   4.342  14.196
 3529SOL    HW212427   4.949   4.425  14.089
 3530SOL     OW12428  14.362  12.323   0.473
 3530SOL    HW112429  14.421  12.273   0.418
 3530SOL    HW212430  14.276  12.284   0.459
 3531SOL     OW12431  13.161   9.433  10.337
 3531SOL    HW112432  13.146   9.441  10.431
 3531SOL    HW212433  13.122   9.349  10.314
 3532SOL     OW12434   3.060  12.063   6.501
 3532SOL    HW112435   2.971  12.048   6.470
 3532SOL    HW212436   3.059  12.035   6.593
 3533SOL     OW12437   0.895   1.797   2.193
 3533SOL    HW112438   0.944   1.873   2.163
 3533SOL    HW212439   0.894   1.738   2.117
 3534SOL     OW12440   6.949   2.374   7.372
 3534SOL    HW112441   6.884   2.443   7.354
 3534SOL    HW212442   6.896   2.296   7.389
 3535SOL     OW12443   2.668   0.635  12.560
 3535SOL    HW112444   2.630   0.708  12.608
 3535SOL    HW212445   2.628   0.557  12.599
 3536SOL     OW12446  10.557   9.529   1.075
 3536SOL    HW112447  10.643   9.497   1.103
 3536SOL    HW212448  10.535   9.596   1.140
 3537SOL     OW12449  12.921   2.385  10.637
 3537SOL    HW112450  12.833   2.407  10.668
 3537SOL    HW212451  12.915   2.294  10.610
 3538SOL     OW12452  12.201   9.514   8.985
 3538SOL    HW112453  12.274   9.565   9.020
 3538SOL    HW212454  12.123   9.566   9.004
 3539SOL     OW12455   7.197  11.920  11.570
 3539SOL    HW112456   7.223  11.835  11.606
 3539SOL    HW212457   7.259  11.937  11.499
 3540SOL     OW12458   0.518   3.758  13.381
 3540SOL    HW112459   0.450   3.825  13.382
 3540SOL    HW212460   0.485   3.690  13.323
 3541SOL     OW12461   7.396  11.476  14.578
 3541SOL    HW112462   7.445  11.544  14.626
 3541SOL    HW212463   7.344  11.525  14.515
 3542SOL     OW12464  14.866  14.583  12.405
 3542SOL    HW112465  14.819  14.648  12.459
 3542SOL    HW212466   0.078  14.575  12.446
 3543SOL     OW12467  10.592   8.220  10.919
 3543SOL    HW112468  10.677   8.203  10.879
 3543SOL    HW212469  10.611   8.228  11.013
 3544SOL     OW12470  11.836   6.025  13.121
 3544SOL    HW112471  11.862   6.077  13.045
 3544SOL    HW212472  11.885   5.943  13.111
 3545SOL     OW12473  12.711   9.521   7.216
 3545SOL    HW112474  12.676   9.496   7.302
 3545SOL    HW212475  12.784   9.461   7.201
 3546SOL     OW12476   0.869  10.402   0.411
 3546SOL    HW112477   0.911  10.471   0.461
 3546SOL    HW212478   0.918  10.323   0.433
 3547SOL     OW12479   9.185   6.772   9.191
 3547SOL    HW112480   9.158   6.850   9.142
 3547SOL    HW212481   9.140   6.699   9.147
 3548SOL     OW12482   8.551   2.610   1.869
 3548SOL    HW112483   8.551   2.534   1.809
 3548SOL    HW212484   8.537   2.572   1.955
 3549SOL     OW12485  14.483   8.077  13.757
 3549SOL    HW112486  14.516   7.988  13.770
 3549SOL    HW212487  14.502   8.097  13.666
 3550SOL     OW12488   7.225  14.329  11.651
 3550SOL    HW112489   7.273  14.322  11.733
 3550SOL    HW212490   7.281  14.286  11.586
 3551SOL     OW12491  14.857  11.800   9.186
 3551SOL    HW112492  14.873  11.888   9.150
 3551SOL    HW212493  14.765  11.783   9.167
 3552SOL     OW12494  11.008  12.490  11.524
 3552SOL    HW112495  11.039  12.562  11.471
 3552SOL    HW212496  11.067  12.487  11.599
 3553SOL     OW12497  10.639   9.659   9.940
 3553SOL    HW112498  10.718   9.608   9.956
 3553SOL    HW212499  10.647   9.687   9.849
 3554SOL     OW12500   7.227  11.380   7.315
 3554SOL    HW112501   7.217  11.290   7.346
 3554SOL    HW212502   7.261  11.371   7.226
 3555SOL     OW12503   5.364   6.443   9.518
 3555SOL    HW112504   5.381   6.428   9.611
 3555SOL    HW212505   5.408   6.527   9.499
 3556SOL     OW12506   5.176  11.419   7.630
 3556SOL    HW112507   5.238  11.357   7.592
 3556SOL    HW212508   5.114  11.365   7.678
 3557SOL     OW12509   6.673  14.329   9.821
 3557SOL    HW112510   6.618  14.256   9.848
 3557SOL    HW212511   6.702  14.305   9.733
 3558SOL     OW12512   6.798   4.728  14.739
 3558SOL    HW112513   6.716   4.744  14.785
 3558SOL    HW212514   6.829   4.644  14.774
 3559SOL     OW12515  14.165   9.034   5.062
 3559SOL    HW112516  14.092   9.095   5.050
 3559SOL    HW212517  14.243   9.084   5.038
 3560SOL     OW12518   5.074   1.282   0.683
 3560SOL    HW112519   5.017   1.312   0.613
 3560SOL    HW212520   5.050   1.190   0.697
 3561SOL     OW12521   5.469  11.272  10.619
 3561SOL    HW112522   5.499  11.320  10.696
 3561SOL    HW212523   5.486  11.180  10.640
 3562SOL     OW12524   8.226   9.700   4.202
 3562SOL    HW112525   8.143   9.654   4.188
 3562SOL    HW212526   8.282   9.673   4.130
 3563SOL     OW12527  13.839  10.717  11.783
 3563SOL    HW112528  13.845  10.689  11.691
 3563SOL    HW212529  13.794  10.644  11.826
 3564SOL     OW12530   0.918   6.124   3.709
 3564SOL    HW112531   0.848   6.086   3.656
 3564SOL    HW212532   0.989   6.142   3.647
 3565SOL     OW12533   5.207  11.258  10.575
 3565SOL    HW112534   5.172  11.346  10.559
 3565SOL    HW212535   5.298  11.263  10.545
 3566SOL     OW12536   0.985   1.210   0.119
 3566SOL    HW112537   0.897   1.236   0.147
 3566SOL    HW212538   1.009   1.276   0.054
 3567SOL     OW12539  10.125   5.753  10.204
 3567SOL    HW112540  10.116   5.658  10.215
 3567SOL    HW212541  10.035   5.786  10.209
 3568SOL     OW12542   3.500  10.589   6.991
 3568SOL    HW112543   3.553  10.634   7.057
 3568SOL    HW212544   3.562  10.532   6.945
 3569SOL     OW12545   8.288   1.959  10.780
 3569SOL    HW112546   8.329   2.036  10.818
 3569SOL    HW212547   8.312   1.887  10.838
 3570SOL     OW12548   0.940   0.797   1.452
 3570SOL    HW112549   0.933   0.704   1.432
 3570SOL    HW212550   1.032   0.818   1.439
 3571SOL     OW12551  10.356   0.569   3.023
 3571SOL    HW112552  10.263   0.548   3.034
 3571SOL    HW212553  10.361   0.610   2.937
 3572SOL     OW12554  14.658   5.934   5.954
 3572SOL    HW112555  14.727   5.994   5.923
 3572SOL    HW212556  14.696   5.893   6.032
 3573SOL     OW12557   4.480  11.656   7.507
 3573SOL    HW112558   4.448  11.614   7.427
 3573SOL    HW212559   4.402  11.692   7.549
 3574SOL     OW12560   7.568   3.170  11.841
 3574SOL    HW112561   7.586   3.123  11.922
 3574SOL    HW212562   7.485   3.134  11.810
 3575SOL     OW12563   0.742  12.910   8.207
 3575SOL    HW112564   0.753  12.988   8.151
 3575SOL    HW212565   0.817  12.855   8.185
 3576SOL     OW12566  10.451   1.360   7.698
 3576SOL    HW112567  10.390   1.432   7.717
 3576SOL    HW212568  10.426   1.291   7.759
 3577SOL     OW12569  10.453   2.253  11.963
 3577SOL    HW112570  10.378   2.199  11.940
 3577SOL    HW212571  10.431   2.290  12.049
 3578SOL     OW12572   0.947   2.952   3.879
 3578SOL    HW112573   0.872   2.965   3.821
 3578SOL    HW212574   0.958   2.857   3.884
 3579SOL     OW12575  13.473   3.337   0.778
 3579SOL    HW112576  13.408   3.406   0.786
 3579SOL    HW212577  13.513   3.352   0.692
 3580SOL     OW12578   9.405  10.217   4.947
 3580SOL    HW112579   9.384  10.174   5.030
 3580SOL    HW212580   9.324  10.214   4.897
 3581SOL     OW12581   3.352   9.867   4.876
 3581SOL    HW112582   3.405   9.835   4.950
 3581SOL    HW212583   3.294   9.794   4.855
 3582SOL     OW12584   8.194   1.733   5.715
 3582SOL    HW112585   8.186   1.748   5.621
 3582SOL    HW212586   8.104   1.730   5.747
 3583SOL     OW12587  11.077   1.787   3.294
 3583SOL    HW112588  11.009   1.848   3.322
 3583SOL    HW212589  11.130   1.837   3.232
 3584SOL     OW12590   7.065  12.723   6.188
 3584SOL    HW112591   7.074  12.792   6.122
 3584SOL    HW212592   7.020  12.766   6.262
 3585SOL     OW12593  11.332   0.156  11.069
 3585SOL    HW112594  11.325   0.061  11.079
 3585SOL    HW212595  11.394   0.183  11.136
 3586SOL     OW12596   5.332   3.853  10.284
 3586SOL    HW112597   5.306   3.836  10.375
 3586SOL    HW212598   5.249   3.870  10.239
 3587SOL     OW12599   4.469   8.405  11.631
 3587SOL    HW112600   4.477   8.325  11.579
 3587SOL    HW212601   4.493   8.379  11.720
 3588SOL     OW12602   5.746   6.786  11.296
 3588SOL    HW112603   5.779   6.851  11.359
 3588SOL    HW212604   5.656   6.768  11.324
 3589SOL     OW12605   7.649   5.892   1.370
 3589SOL    HW112606   7.625   5.944   1.293
 3589SOL    HW212607   7.565   5.870   1.411
 3590SOL     OW12608   8.814   3.245   1.703
 3590SOL    HW112609   8.742   3.241   1.765
 3590SOL    HW212610   8.858   3.327   1.723
 3591SOL     OW12611   4.314   6.211  11.287
 3591SOL    HW112612   4.373   6.214  11.363
 3591SOL    HW212613   4.369   6.239  11.214
 3592SOL     OW12614   6.410   3.137  11.923
 3592SOL    HW112615   6.350   3.065  11.906
 3592SOL    HW212616   6.356   3.216  11.917
 3593SOL     OW12617  10.817   9.972  10.211
 3593SOL    HW112618  10.845  10.040  10.272
 3593SOL    HW212619  10.734   9.940  10.246
 3594SOL     OW12620  10.316  11.134  12.159
 3594SOL    HW112621  10.312  11.165  12.250
 3594SOL    HW212622  10.305  11.039  12.166
 3595SOL     OW12623  10.760   3.288  12.119
 3595SOL    HW112624  10.796   3.367  12.160
 3595SOL    HW212625  10.836   3.240  12.088
 3596SOL     OW12626   8.853   6.038   6.413
 3596SOL    HW112627   8.759   6.043   6.394
 3596SOL    HW212628   8.872   6.120   6.459
 3597SOL     OW12629   6.170   4.347  13.293
 3597SOL    HW112630   6.228   4.407  13.338
 3597SOL    HW212631   6.162   4.383  13.204
 3598SOL     OW12632  14.025   2.400  13.433
 3598SOL    HW112633  14.119   2.394  13.447
 3598SOL    HW212634  13.989   2.418  13.519
 3599SOL     OW12635   7.739  11.560   6.264
 3599SOL    HW112636   7.816  11.573   6.208
 3599SOL    HW212637   7.737  11.638   6.320
 3600SOL     OW12638   5.937  13.597   4.424
 3600SOL    HW112639   6.007  13.543   4.389
 3600SOL    HW212640   5.931  13.571   4.516
 3601SOL     OW12641   8.678   4.232   9.347
 3601SOL    HW112642   8.638   4.280   9.420
 3601SOL    HW212643   8.614   4.164   9.326
 3602SOL     OW12644   6.392   5.170  14.579
 3602SOL    HW112645   6.427   5.186  14.667
 3602SOL    HW212646   6.468   5.179  14.521
 3603SOL     OW12647   6.217   4.296   1.763
 3603SOL    HW112648   6.168   4.345   1.830
 3603SOL    HW212649   6.302   4.341   1.758
 3604SOL     OW12650   5.056   6.371   6.835
 3604SOL    HW112651   5.007   6.428   6.776
 3604SOL    HW212652   5.124   6.428   6.871
 3605SOL     OW12653   4.155  10.310   0.471
 3605SOL    HW112654   4.249  10.329   0.474
 3605SOL    HW212655   4.124  10.327   0.559
 3606SOL     OW12656   9.035  11.676  14.713
 3606SOL    HW112657   9.099  11.611  14.685
 3606SOL    HW212658   9.044  11.680  14.808
 3607SOL     OW12659   0.856   9.554   4.480
 3607SOL    HW112660   0.849   9.542   4.575
 3607SOL    HW212661   0.877   9.468   4.446
 3608SOL     OW12662   8.452  11.576  12.417
 3608SOL    HW112663   8.440  11.633  12.493
 3608SOL    HW212664   8.365  11.538  12.402
 3609SOL     OW12665   0.591  11.566   0.557
 3609SOL    HW112666   0.526  11.505   0.521
 3609SOL    HW212667   0.543  11.648   0.569
 3610SOL     OW12668   1.545   1.611   7.434
 3610SOL    HW112669   1.536   1.617   7.530
 3610SOL    HW212670   1.463   1.572   7.405
 3611SOL     OW12671   9.929  11.991   9.881
 3611SOL    HW112672   9.892  11.904   9.896
 3611SOL    HW212673   9.854  12.048   9.868
 3612SOL     OW12674   1.276  10.516   2.344
 3612SOL    HW112675   1.360  10.561   2.353
 3612SOL    HW212676   1.270  10.462   2.423
 3613SOL     OW12677   7.677  10.106   3.949
 3613SOL    HW112678   7.682  10.189   3.997
 3613SOL    HW212679   7.615  10.053   4.000
 3614SOL     OW12680   5.648   4.943  14.440
 3614SOL    HW112681   5.727   4.898  14.470
 3614SOL    HW212682   5.680   5.022  14.397
 3615SOL     OW12683   3.165   0.347   4.013
 3615SOL    HW112684   3.157   0.421   4.073
 3615SOL    HW212685   3.108   0.280   4.050
 3616SOL     OW12686  11.444   7.578   6.978
 3616SOL    HW112687  11.474   7.610   6.893
 3616SOL    HW212688  11.413   7.489   6.961
 3617SOL     OW12689   2.276   7.174   1.652
 3617SOL    HW112690   2.218   7.098   1.664
 3617SOL    HW212691   2.243   7.239   1.714
 3618SOL     OW12692   9.409   5.100  11.216
 3618SOL    HW112693   9.474   5.063  11.156
 3618SOL    HW212694   9.414   5.044  11.293
 3619SOL     OW12695   1.856   2.282   8.816
 3619SOL    HW112696   1.820   2.286   8.904
 3619SOL    HW212697   1.820   2.360   8.772
 3620SOL     OW12698   6.783   2.068  10.834
 3620SOL    HW112699   6.801   2.116  10.754
 3620SOL    HW212700   6.756   1.981  10.804
 3621SOL     OW12701  14.223   3.063   1.782
 3621SOL    HW112702  14.167   3.130   1.823
 3621SOL    HW212703  14.169   3.027   1.712
 3622SOL     OW12704  13.598   8.464   1.021
 3622SOL    HW112705  13.502   8.458   1.022
 3622SOL    HW212706  13.627   8.389   0.971
 3623SOL     OW12707   0.175  11.536   0.323
 3623SOL    HW112708   0.109  11.487   0.274
 3623SOL    HW212709   0.126  11.605   0.367
 3624SOL     OW12710   3.206   7.113  10.273
 3624SOL    HW112711   3.263   7.038  10.255
 3624SOL    HW212712   3.189   7.109  10.367
 3625SOL     OW12713   4.251   3.101   0.902
 3625SOL    HW112714   4.252   3.195   0.920
 3625SOL    HW212715   4.318   3.065   0.960
 3626SOL     OW12716   0.411  12.400   5.535
 3626SOL    HW112717   0.424  12.494   5.528
 3626SOL    HW212718   0.321  12.386   5.506
 3627SOL     OW12719   5.150   8.379   3.484
 3627SOL    HW112720   5.176   8.288   3.472
 3627SOL    HW212721   5.061   8.384   3.450
 3628SOL     OW12722   2.490   9.294  10.884
 3628SOL    HW112723   2.471   9.309  10.791
 3628SOL    HW212724   2.422   9.342  10.930
 3629SOL     OW12725  12.390  14.672   0.199
 3629SOL    HW112726  12.393  14.699   0.107
 3629SOL    HW212727  12.306  14.628   0.208
 3630SOL     OW12728  14.089   1.105   0.505
 3630SOL    HW112729  13.999   1.132   0.489
 3630SOL    HW212730  14.094   1.016   0.470
 3631SOL     OW12731   5.039  14.789   5.442
 3631SOL    HW112732   5.068  14.858   5.382
 3631SOL    HW212733   5.102  14.718   5.429
 3632SOL     OW12734   7.000   1.617   6.540
 3632SOL    HW112735   6.971   1.656   6.622
 3632SOL    HW212736   7.083   1.661   6.519
 3633SOL     OW12737   1.282   3.388  14.581
 3633SOL    HW112738   1.237   3.461  14.540
 3633SOL    HW212739   1.217   3.348  14.639
 3634SOL     OW12740   9.352   2.222   9.631
 3634SOL    HW112741   9.274   2.275   9.616
 3634SOL    HW212742   9.414   2.251   9.564
 3635SOL     OW12743  11.720   6.194  10.533
 3635SOL    HW112744  11.643   6.169  10.483
 3635SOL    HW212745  11.691   6.196  10.624
 3636SOL     OW12746   8.283   1.844   8.211
 3636SOL    HW112747   8.255   1.818   8.123
 3636SOL    HW212748   8.274   1.940   8.212
 3637SOL     OW12749   1.165   7.571   3.761
 3637SOL    HW112750   1.118   7.591   3.680
 3637SOL    HW212751   1.099   7.579   3.830
 3638SOL     OW12752  13.106   9.453   5.135
 3638SOL    HW112753  13.039   9.416   5.193
 3638SOL    HW212754  13.171   9.383   5.126
 3639SOL     OW12755   6.038   7.950   3.808
 3639SOL    HW112756   6.116   7.902   3.836
 3639SOL    HW212757   6.054   7.971   3.716
 3640SOL     OW12758   9.875   7.756  13.112
 3640SOL    HW112759   9.783   7.764  13.137
 3640SOL    HW212760   9.874   7.704  13.031
 3641SOL     OW12761   3.784  12.740   5.417
 3641SOL    HW112762   3.729  12.729   5.340
 3641SOL    HW212763   3.751  12.820   5.459
 3642SOL     OW12764   8.577   7.558   0.700
 3642SOL    HW112765   8.519   7.590   0.631
 3642SOL    HW212766   8.596   7.467   0.675
 3643SOL     OW12767  13.813  13.365   5.457
 3643SOL    HW112768  13.856  13.295   5.407
 3643SOL    HW212769  13.879  13.393   5.520
 3644SOL     OW12770   9.882   6.912   5.061
 3644SOL    HW112771   9.842   6.944   5.142
 3644SOL    HW212772   9.929   6.987   5.025
 3645SOL     OW12773   4.232  12.677  13.694
 3645SOL    HW112774   4.219  12.667  13.599
 3645SOL    HW212775   4.172  12.747  13.719
 3646SOL     OW12776   2.932   7.524   3.363
 3646SOL    HW112777   3.023   7.549   3.383
 3646SOL    HW212778   2.880   7.599   3.392
 3647SOL     OW12779   0.552   2.728   2.607
 3647SOL    HW112780   0.577   2.747   2.516
 3647SOL    HW212781   0.619   2.772   2.660
 3648SOL     OW12782   3.727   2.445   5.510
 3648SOL    HW112783   3.689   2.432   5.597
 3648SOL    HW212784   3.714   2.361   5.466
 3649SOL     OW12785  14.719   8.629  13.987
 3649SOL    HW112786  14.656   8.700  13.982
 3649SOL    HW212787  14.721   8.605  14.080
 3650SOL     OW12788  11.831  10.785  13.035
 3650SOL    HW112789  11.740  10.762  13.015
 3650SOL    HW212790  11.882  10.747  12.963
 3651SOL     OW12791  14.322  10.375   1.567
 3651SOL    HW112792  14.321  10.295   1.619
 3651SOL    HW212793  14.236  10.414   1.582
 3652SOL     OW12794   8.264  10.189   8.537
 3652SOL    HW112795   8.270  10.098   8.508
 3652SOL    HW212796   8.352  10.211   8.567
 3653SOL     OW12797  10.236   4.296   0.718
 3653SOL    HW112798  10.166   4.244   0.680
 3653SOL    HW212799  10.315   4.266   0.673
 3654SOL     OW12800   0.129   8.528   9.008
 3654SOL    HW112801   0.138   8.497   8.918
 3654SOL    HW212802   0.041   8.566   9.011
 3655SOL     OW12803  13.463   3.379   6.091
 3655SOL    HW112804  13.554   3.375   6.063
 3655SOL    HW212805  13.462   3.338   6.177
 3656SOL     OW12806   3.842   7.733   4.920
 3656SOL    HW112807   3.783   7.808   4.917
 3656SOL    HW212808   3.898   7.743   4.843
 3657SOL     OW12809   5.015   4.536   8.430
 3657SOL    HW112810   5.014   4.516   8.337
 3657SOL    HW212811   5.027   4.631   8.434
 3658SOL     OW12812   3.436   7.756  11.871
 3658SOL    HW112813   3.437   7.840  11.916
 3658SOL    HW212814   3.366   7.706  11.914
 3659SOL     OW12815   9.348   7.171   7.919
 3659SOL    HW112816   9.346   7.114   7.996
 3659SOL    HW212817   9.261   7.211   7.916
 3660SOL     OW12818   4.386  10.791   8.868
 3660SOL    HW112819   4.361  10.817   8.779
 3660SOL    HW212820   4.474  10.828   8.880
 3661SOL     OW12821  10.416   1.596   0.914
 3661SOL    HW112822  10.473   1.662   0.951
 3661SOL    HW212823  10.444   1.587   0.823
 3662SOL     OW12824  10.952   3.788   3.911
 3662SOL    HW112825  10.901   3.729   3.965
 3662SOL    HW212826  10.998   3.732   3.849
 3663SOL     OW12827   5.965  12.583  10.737
 3663SOL    HW112828   5.891  12.637  10.710
 3663SOL    HW212829   5.952  12.500  10.691
 3664SOL     OW12830   3.994  12.611  14.197
 3664SOL    HW112831   4.010  12.571  14.111
 3664SOL    HW212832   4.073  12.593  14.247
 3665SOL     OW12833   5.062   4.450   1.912
 3665SOL    HW112834   5.136   4.508   1.931
 3665SOL    HW212835   4.995   4.477   1.974
 3666SOL     OW12836   2.629   9.268   0.495
 3666SOL    HW112837   2.582   9.184   0.492
 3666SOL    HW212838   2.596   9.311   0.573
 3667SOL     OW12839   0.601   4.841  10.363
 3667SOL    HW112840   0.642   4.849  10.449
 3667SOL    HW212841   0.659   4.783  10.314
 3668SOL     OW12842   4.697  11.101  14.514
 3668SOL    HW112843   4.743  11.165  14.460
 3668SOL    HW212844   4.630  11.151  14.560
 3669SOL     OW12845  14.150   8.545  12.747
 3669SOL    HW112846  14.118   8.615  12.690
 3669SOL    HW212847  14.082   8.535  12.814
 3670SOL     OW12848  10.646   6.087  13.758
 3670SOL    HW112849  10.561   6.116  13.790
 3670SOL    HW212850  10.655   6.128  13.672
 3671SOL     OW12851  11.982  11.557  12.314
 3671SOL    HW112852  11.911  11.580  12.375
 3671SOL    HW212853  11.974  11.462  12.303
 3672SOL     OW12854  10.007   7.647  10.744
 3672SOL    HW112855   9.979   7.576  10.684
 3672SOL    HW212856  10.097   7.625  10.766
 3673SOL     OW12857  12.727   3.313   7.766
 3673SOL    HW112858  12.685   3.282   7.846
 3673SOL    HW212859  12.784   3.241   7.739
 3674SOL     OW12860  12.953   8.942   9.776
 3674SOL    HW112861  13.024   8.887   9.809
 3674SOL    HW212862  12.993   8.991   9.703
 3675SOL     OW12863   2.106   2.504   4.298
 3675SOL    HW112864   2.089   2.556   4.376
 3675SOL    HW212865   2.043   2.431   4.303
 3676SOL     OW12866   4.736   7.030   1.085
 3676SOL    HW112867   4.739   7.015   0.991
 3676SOL    HW212868   4.677   7.104   1.096
 3677SOL     OW12869   1.201   2.504   6.332
 3677SOL    HW112870   1.166   2.493   6.420
 3677SOL    HW212871   1.128   2.483   6.274
 3678SOL     OW12872  11.067   5.586  10.010
 3678SOL    HW112873  10.971   5.581  10.006
 3678SOL    HW212874  11.085   5.679  10.025
 3679SOL     OW12875   2.931  12.326  11.832
 3679SOL    HW112876   2.953  12.310  11.740
 3679SOL    HW212877   2.839  12.352  11.830
 3680SOL     OW12878   9.442   6.498  13.408
 3680SOL    HW112879   9.450   6.489  13.313
 3680SOL    HW212880   9.379   6.568  13.420
 3681SOL     OW12881  12.069   7.910   3.217
 3681SOL    HW112882  12.035   7.995   3.244
 3681SOL    HW212883  12.029   7.894   3.131
 3682SOL     OW12884   8.079  13.753   4.719
 3682SOL    HW112885   8.093  13.707   4.802
 3682SOL    HW212886   8.116  13.840   4.733
 3683SOL     OW12887   0.389   1.352   9.427
 3683SOL    HW112888   0.451   1.293   9.469
 3683SOL    HW212889   0.397   1.435   9.475
 3684SOL     OW12890   8.689   0.130   2.201
 3684SOL    HW112891   8.627   0.067   2.237
 3684SOL    HW212892   8.640   0.212   2.195
 3685SOL     OW12893   0.702  11.781   8.633
 3685SOL    HW112894   0.687  11.867   8.674
 3685SOL    HW212895   0.743  11.729   8.702
 3686SOL     OW12896   8.633   0.250  13.480
 3686SOL    HW112897   8.540   0.262  13.501
 3686SOL    HW212898   8.679   0.272  13.561
 3687SOL     OW12899  13.157  12.480   8.716
 3687SOL    HW112900  13.217  12.551   8.693
 3687SOL    HW212901  13.174  12.462   8.808
 3688SOL     OW12902   7.107  12.919   4.580
 3688SOL    HW112903   7.060  12.993   4.618
 3688SOL    HW212904   7.125  12.945   4.490
 3689SOL     OW12905   1.448   8.141  14.594
 3689SOL    HW112906   1.503   8.062  14.599
 3689SOL    HW212907   1.497   8.207  14.642
 3690SOL     OW12908  10.493  14.006  10.005
 3690SOL    HW112909  10.465  13.914   9.997
 3690SOL    HW212910  10.587  14.004   9.987
 3691SOL     OW12911   1.296  11.617   2.669
 3691SOL    HW112912   1.201  11.612   2.671
 3691SOL    HW212913   1.315  11.707   2.642
 3692SOL     OW12914   1.651   6.173  10.973
 3692SOL    HW112915   1.623   6.226  11.047
 3692SOL    HW212916   1.731   6.131  11.004
 3693SOL     OW12917   9.469   8.848   0.765
 3693SOL    HW112918   9.431   8.760   0.767
 3693SOL    HW212919   9.506   8.855   0.677
 3694SOL     OW12920   8.179   7.420   6.797
 3694SOL    HW112921   8.269   7.420   6.763
 3694SOL    HW212922   8.188   7.396   6.889
 3695SOL     OW12923   8.551   3.670  10.030
 3695SOL    HW112924   8.526   3.585   9.994
 3695SOL    HW212925   8.512   3.733   9.969
 3696SOL     OW12926   7.494  11.228   8.166
 3696SOL    HW112927   7.499  11.152   8.108
 3696SOL    HW212928   7.521  11.195   8.252
 3697SOL     OW12929   9.295   3.747   3.911
 3697SOL    HW112930   9.277   3.654   3.926
 3697SOL    HW212931   9.276   3.789   3.994
 3698SOL     OW12932  12.569   9.612   9.275
 3698SOL    HW112933  12.534   9.665   9.204
 3698SOL    HW212934  12.633   9.554   9.233
 3699SOL     OW12935  13.054   2.018  10.841
 3699SOL    HW112936  13.112   1.987  10.771
 3699SOL    HW212937  12.971   2.036  10.798
 3700SOL     OW12938   6.972   2.274   6.844
 3700SOL    HW112939   6.916   2.205   6.809
 3700SOL    HW212940   7.030   2.230   6.905
 3701SOL     OW12941   9.804  11.161   2.345
 3701SOL    HW112942   9.713  11.137   2.332
 3701SOL    HW212943   9.814  11.170   2.440
 3702SOL     OW12944   9.105  13.815   2.012
 3702SOL    HW112945   9.143  13.729   2.033
 3702SOL    HW212946   9.155  13.845   1.937
 3703SOL     OW12947   5.550   7.534   2.533
 3703SOL    HW112948   5.615   7.586   2.581
 3703SOL    HW212949   5.565   7.557   2.441
 3704SOL     OW12950  11.600   2.101   6.497
 3704SOL    HW112951  11.591   2.191   6.529
 3704SOL    HW212952  11.518   2.085   6.451
 3705SOL     OW12953   3.945   0.794   6.362
 3705SOL    HW112954   3.958   0.825   6.452
 3705SOL    HW212955   3.949   0.874   6.309
 3706SOL     OW12956  13.208   3.895   3.265
 3706SOL    HW112957  13.256   3.830   3.214
 3706SOL    HW212958  13.276   3.943   3.313
 3707SOL     OW12959   4.766  12.073  10.732
 3707SOL    HW112960   4.726  11.988  10.744
 3707SOL    HW212961   4.779  12.081  10.637
 3708SOL     OW12962  14.173   1.280  10.983
 3708SOL    HW112963  14.238   1.213  11.004
 3708SOL    HW212964  14.181   1.294  10.889
 3709SOL     OW12965   4.413  12.303  14.001
 3709SOL    HW112966   4.421  12.394  14.029
 3709SOL    HW212967   4.411  12.307  13.905
 3710SOL     OW12968   9.555   9.391   0.999
 3710SOL    HW112969   9.478   9.337   1.015
 3710SOL    HW212970   9.568   9.440   1.081
 3711SOL     OW12971   5.640   7.122   5.795
 3711SOL    HW112972   5.726   7.150   5.825
 3711SOL    HW212973   5.635   7.029   5.818
 3712SOL     OW12974  12.064   4.080  13.336
 3712SOL    HW112975  12.091   4.104  13.425
 3712SOL    HW212976  12.064   3.985  13.336
 3713SOL     OW12977   1.595   1.400  13.743
 3713SOL    HW112978   1.588   1.305  13.733
 3713SOL    HW212979   1.676   1.414  13.792
 3714SOL     OW12980  14.174   6.166   9.405
 3714SOL    HW112981  14.110   6.095   9.410
 3714SOL    HW212982  14.125   6.244   9.433
 3715SOL     OW12983  14.771   0.244   0.717
 3715SOL    HW112984  14.738   0.169   0.767
 3715SOL    HW212985  14.865   0.244   0.734
 3716SOL     OW12986  10.538  10.171   5.064
 3716SOL    HW112987  10.560  10.194   4.974
 3716SOL    HW212988  10.461  10.115   5.057
 3717SOL     OW12989   5.272   8.864   3.199
 3717SOL    HW112990   5.228   8.859   3.284
 3717SOL    HW212991   5.292   8.773   3.177
 3718SOL     OW12992  14.089  13.828   9.729
 3718SOL    HW112993  14.141  13.747   9.733
 3718SOL    HW212994  14.019  13.808   9.666
 3719SOL     OW12995  10.393   7.292  14.737
 3719SOL    HW112996  10.419   7.379  14.707
 3719SOL    HW212997  10.349   7.252  14.662
 3720SOL     OW12998   1.690   2.795   7.839
 3720SOL    HW112999   1.625   2.732   7.871
 3720SOL    HW213000   1.645   2.879   7.840
 3721SOL     OW13001   7.979  10.186   4.333
 3721SOL    HW113002   7.988  10.123   4.404
 3721SOL    HW213003   7.969  10.270   4.377
 3722SOL     OW13004   0.198   4.392  11.804
 3722SOL    HW113005   0.184   4.312  11.854
 3722SOL    HW213006   0.195   4.364  11.713
 3723SOL     OW13007   8.433   0.947   8.270
 3723SOL    HW113008   8.462   0.927   8.181
 3723SOL    HW213009   8.433   1.043   8.274
 3724SOL     OW13010  14.576   8.160   5.779
 3724SOL    HW113011  14.656   8.186   5.824
 3724SOL    HW213012  14.525   8.115   5.846
 3725SOL     OW13013   1.159   2.161   3.192
 3725SOL    HW113014   1.193   2.245   3.163
 3725SOL    HW213015   1.209   2.140   3.271
 3726SOL     OW13016   9.487   1.388   2.874
 3726SOL    HW113017   9.479   1.343   2.790
 3726SOL    HW213018   9.572   1.359   2.908
 3727SOL     OW13019   8.288   9.826   8.778
 3727SOL    HW113020   8.378   9.798   8.766
 3727SOL    HW213021   8.245   9.752   8.822
 3728SOL     OW13022   6.289  13.725   6.541
 3728SOL    HW113023   6.343  13.724   6.620
 3728SOL    HW213024   6.204  13.757   6.570
 3729SOL     OW13025   2.973   3.150   3.786
 3729SOL    HW113026   2.949   3.163   3.878
 3729SOL    HW213027   3.052   3.096   3.790
 3730SOL     OW13028   5.622   2.139  13.046
 3730SOL    HW113029   5.605   2.219  13.096
 3730SOL    HW213030   5.677   2.086  13.104
 3731SOL     OW13031  10.013  14.277   1.907
 3731SOL    HW113032  10.029  14.183   1.915
 3731SOL    HW213033   9.938  14.293   1.964
 3732SOL     OW13034   0.146   3.646  11.521
 3732SOL    HW113035   0.124   3.601  11.440
 3732SOL    HW213036   0.062   3.673  11.558
 3733SOL     OW13037   0.924  12.649   6.092
 3733SOL    HW113038   0.847  12.592   6.090
 3733SOL    HW213039   0.973  12.621   6.169
 3734SOL     OW13040   9.261   9.847  11.381
 3734SOL    HW113041   9.209   9.885  11.453
 3734SOL    HW213042   9.203   9.783  11.340
 3735SOL     OW13043   5.466   0.533  11.289
 3735SOL    HW113044   5.479   0.439  11.279
 3735SOL    HW213045   5.382   0.550  11.247
 3736SOL     OW13046  12.925   7.404  14.630
 3736SOL    HW113047  12.842   7.444  14.606
 3736SOL    HW213048  12.970   7.389  14.547
 3737SOL     OW13049   6.064   0.200  14.470
 3737SOL    HW113050   6.011   0.262  14.519
 3737SOL    HW213051   6.126   0.254  14.421
 3738SOL     OW13052   7.313   5.053   8.351
 3738SOL    HW113053   7.322   5.014   8.438
 3738SOL    HW213054   7.265   5.134   8.366
 3739SOL     OW13055   5.888   7.482   5.588
 3739SOL    HW113056   5.811   7.490   5.644
 3739SOL    HW213057   5.919   7.393   5.602
 3740SOL     OW13058   1.592   9.031  11.948
 3740SOL    HW113059   1.546   9.114  11.939
 3740SOL    HW213060   1.602   9.000  11.858
 3741SOL     OW13061   8.250  13.166  13.218
 3741SOL    HW113062   8.182  13.110  13.254
 3741SOL    HW213063   8.208  13.252  13.209
 3742SOL     OW13064  11.413  14.081   3.353
 3742SOL    HW113065  11.441  13.990   3.339
 3742SOL    HW213066  11.482  14.133   3.311
 3743SOL     OW13067  13.505  11.531  11.471
 3743SOL    HW113068  13.547  11.503  11.552
 3743SOL    HW213069  13.571  11.584  11.427
 3744SOL     OW13070   6.291   8.248   6.995
 3744SOL    HW113071   6.320   8.196   6.920
 3744SOL    HW213072   6.282   8.185   7.066
 3745SOL     OW13073   5.287  13.751  11.992
 3745SOL    HW113074   5.239  13.832  12.007
 3745SOL    HW213075   5.256  13.692  12.061
 3746SOL     OW13076  14.217  11.726   6.280
 3746SOL    HW113077  14.210  11.693   6.190
 3746SOL    HW213078  14.258  11.654   6.329
 3747SOL     OW13079   0.254   0.488   2.573
 3747SOL    HW113080   0.327   0.439   2.534
 3747SOL    HW213081   0.220   0.431   2.641
 3748SOL     OW13082  11.551  13.147  13.337
 3748SOL    HW113083  11.484  13.163  13.404
 3748SOL    HW213084  11.511  13.176  13.255
 3749SOL     OW13085   0.619   0.581   6.246
 3749SOL    HW113086   0.589   0.668   6.222
 3749SOL    HW213087   0.703   0.596   6.290
 3750SOL     OW13088   7.525   6.254  11.667
 3750SOL    HW113089   7.534   6.187  11.734
 3750SOL    HW213090   7.438   6.238  11.629
 3751SOL     OW13091   4.730   8.638  10.308
 3751SOL    HW113092   4.667   8.709  10.318
 3751SOL    HW213093   4.717   8.583  10.385
 3752SOL     OW13094  13.286   5.703  13.139
 3752SOL    HW113095  13.369   5.727  13.180
 3752SOL    HW213096  13.233   5.782  13.146
 3753SOL     OW13097  12.590  13.501   0.957
 3753SOL    HW113098  12.599  13.586   1.000
 3753SOL    HW213099  12.579  13.521   0.865
 3754SOL     OW13100   5.879  14.830   6.763
 3754SOL    HW113101   5.955  14.819   6.820
 3754SOL    HW213102   5.915  14.867   6.682
 3755SOL     OW13103  13.382   1.191   5.697
 3755SOL    HW113104  13.426   1.127   5.640
 3755SOL    HW213105  13.350   1.139   5.770
 3756SOL     OW13106   4.631  12.962   6.580
 3756SOL    HW113107   4.593  13.007   6.504
 3756SOL    HW213108   4.724  12.954   6.560
 3757SOL     OW13109   7.310   7.177  12.296
 3757SOL    HW113110   7.231   7.197  12.247
 3757SOL    HW213111   7.343   7.096  12.256
 3758SOL     OW13112   1.242   0.279   8.638
 3758SOL    HW113113   1.163   0.329   8.622
 3758SOL    HW213114   1.231   0.199   8.588
 3759SOL     OW13115   8.384   4.789   7.891
 3759SOL    HW113116   8.338   4.860   7.935
 3759SOL    HW213117   8.398   4.821   7.802
 3760SOL     OW13118   2.625   7.731  12.426
 3760SOL    HW113119   2.647   7.642  12.399
 3760SOL    HW213120   2.669   7.742  12.510
 3761SOL     OW13121   3.323   2.582   0.509
 3761SOL    HW113122   3.285   2.593   0.596
 3761SOL    HW213123   3.319   2.669   0.469
 3762SOL     OW13124   8.754   5.573  13.807
 3762SOL    HW113125   8.764   5.482  13.835
 3762SOL    HW213126   8.789   5.574  13.718
 3763SOL     OW13127  14.822   6.934   0.625
 3763SOL    HW113128  14.858   6.856   0.666
 3763SOL    HW213129  14.732   6.910   0.603
 3764SOL     OW13130   3.982   6.574   2.378
 3764SOL    HW113131   4.046   6.631   2.420
 3764SOL    HW213132   4.033   6.499   2.347
 3765SOL     OW13133   0.070   3.173   0.998
 3765SOL    HW113134   0.020   3.208   1.071
 3765SOL    HW213135   0.129   3.109   1.037
 3766SOL     OW13136   5.949   0.559   2.945
 3766SOL    HW113137   6.027   0.614   2.946
 3766SOL    HW213138   5.948   0.519   2.859
 3767SOL     OW13139  10.553  10.145   1.374
 3767SOL    HW113140  10.591  10.223   1.333
 3767SOL    HW213141  10.504  10.178   1.449
 3768SOL     OW13142   1.927   8.826   7.968
 3768SOL    HW113143   2.020   8.845   7.982
 3768SOL    HW213144   1.908   8.862   7.881
 3769SOL     OW13145   6.535  11.325  11.390
 3769SOL    HW113146   6.518  11.351  11.481
 3769SOL    HW213147   6.557  11.232  11.396
 3770SOL     OW13148   4.496   5.463  11.663
 3770SOL    HW113149   4.414   5.417  11.681
 3770SOL    HW213150   4.489   5.544  11.713
 3771SOL     OW13151   4.601   4.414   5.954
 3771SOL    HW113152   4.538   4.482   5.978
 3771SOL    HW213153   4.550   4.350   5.904
 3772SOL     OW13154   4.455   8.988  10.837
 3772SOL    HW113155   4.510   9.032  10.901
 3772SOL    HW213156   4.516   8.938  10.783
 3773SOL     OW13157  13.077   6.710   2.637
 3773SOL    HW113158  13.158   6.665   2.616
 3773SOL    HW213159  13.081   6.725   2.732
 3774SOL     OW13160   9.888   6.685   5.198
 3774SOL    HW113161   9.894   6.774   5.162
 3774SOL    HW213162   9.868   6.699   5.291
 3775SOL     OW13163   0.914   3.495  12.744
 3775SOL    HW113164   0.834   3.547  12.755
 3775SOL    HW213165   0.949   3.486  12.833
 3776SOL     OW13166   5.290   5.595   9.469
 3776SOL    HW113167   5.238   5.537   9.414
 3776SOL    HW213168   5.236   5.673   9.478
 3777SOL     OW13169  10.883   2.474   0.751
 3777SOL    HW113170  10.954   2.476   0.815
 3777SOL    HW213171  10.876   2.382   0.725
 3778SOL     OW13172  12.551   7.693  12.784
 3778SOL    HW113173  12.462   7.660  12.792
 3778SOL    HW213174  12.546   7.759  12.715
 3779SOL     OW13175   1.562   0.013   6.830
 3779SOL    HW113176   1.491   0.060   6.787
 3779SOL    HW213177   1.556   0.038   6.922
 3780SOL     OW13178   3.089   6.439   4.113
 3780SOL    HW113179   3.111   6.362   4.166
 3780SOL    HW213180   3.080   6.406   4.024
 3781SOL     OW13181   8.793   3.280   7.069
 3781SOL    HW113182   8.707   3.321   7.069
 3781SOL    HW213183   8.784   3.207   7.007
 3782SOL     OW13184  11.568   9.500   2.046
 3782SOL    HW113185  11.583   9.586   2.006
 3782SOL    HW213186  11.651   9.454   2.033
 3783SOL     OW13187  13.917  14.321   2.984
 3783SOL    HW113188  13.995  14.311   2.928
 3783SOL    HW213189  13.950  14.365   3.062
 3784SOL     OW13190   2.740  10.016   3.984
 3784SOL    HW113191   2.731  10.105   4.018
 3784SOL    HW213192   2.653   9.977   3.994
 3785SOL     OW13193  11.726   8.871   0.884
 3785SOL    HW113194  11.671   8.813   0.938
 3785SOL    HW213195  11.668   8.943   0.860
 3786SOL     OW13196   2.055  13.501  12.024
 3786SOL    HW113197   2.014  13.428  11.978
 3786SOL    HW213198   2.064  13.570  11.957
 3787SOL     OW13199   5.608   7.818  13.922
 3787SOL    HW113200   5.612   7.781  14.010
 3787SOL    HW213201   5.573   7.747  13.867
 3788SOL     OW13202  13.871  14.542   3.733
 3788SOL    HW113203  13.896  14.454   3.707
 3788SOL    HW213204  13.793  14.562   3.680
 3789SOL     OW13205   9.208   3.290  13.876
 3789SOL    HW113206   9.285   3.313  13.824
 3789SOL    HW213207   9.240   3.286  13.966
 3790SOL     OW13208   4.245   8.904  12.238
 3790SOL    HW113209   4.292   8.826  12.268
 3790SOL    HW213210   4.296   8.935  12.163
 3791SOL     OW13211   3.912  10.416  12.764
 3791SOL    HW113212   3.922  10.430  12.670
 3791SOL    HW213213   3.997  10.439  12.801
 3792SOL     OW13214   7.411   6.195   9.683
 3792SOL    HW113215   7.354   6.215   9.758
 3792SOL    HW213216   7.446   6.108   9.703
 3793SOL     OW13217  13.733   8.245  13.576
 3793SOL    HW113218  13.715   8.336  13.597
 3793SOL    HW213219  13.785   8.248  13.496
 3794SOL     OW13220   5.510   6.802   3.159
 3794SOL    HW113221   5.474   6.866   3.099
 3794SOL    HW213222   5.602   6.792   3.133
 3795SOL     OW13223  14.389  13.090  12.902
 3795SOL    HW113224  14.440  13.148  12.845
 3795SOL    HW213225  14.454  13.034  12.943
 3796SOL     OW13226  10.577  11.901   2.559
 3796SOL    HW113227  10.583  11.956   2.637
 3796SOL    HW213228  10.642  11.832   2.574
 3797SOL     OW13229   7.953   4.452   5.738
 3797SOL    HW113230   7.872   4.481   5.696
 3797SOL    HW213231   7.974   4.522   5.801
 3798SOL     OW13232   6.752   8.033  11.589
 3798SOL    HW113233   6.711   7.947  11.579
 3798SOL    HW213234   6.752   8.071  11.501
 3799SOL     OW13235   2.735  10.593  11.633
 3799SOL    HW113236   2.708  10.517  11.685
 3799SOL    HW213237   2.707  10.668  11.685
 3800SOL     OW13238   3.886   6.130   3.828
 3800SOL    HW113239   3.896   6.155   3.921
 3800SOL    HW213240   3.932   6.047   3.821
 3801SOL     OW13241   2.619   7.543   0.032
 3801SOL    HW113242   2.645   7.592   0.110
 3801SOL    HW213243   2.523   7.539   0.037
 3802SOL     OW13244  12.097   6.616   7.114
 3802SOL    HW113245  12.106   6.702   7.074
 3802SOL    HW213246  12.009   6.587   7.089
 3803SOL     OW13247  10.262  13.532  12.436
 3803SOL    HW113248  10.238  13.604  12.494
 3803SOL    HW213249  10.310  13.471  12.492
 3804SOL     OW13250  12.899   1.107   8.663
 3804SOL    HW113251  12.844   1.103   8.741
 3804SOL    HW213252  12.848   1.159   8.600
 3805SOL     OW13253   0.095  12.055  11.107
 3805SOL    HW113254   0.172  12.065  11.051
 3805SOL    HW213255   0.129  12.019  11.189
 3806SOL     OW13256   1.966  12.555   7.196
 3806SOL    HW113257   2.037  12.511   7.242
 3806SOL    HW213258   1.904  12.578   7.266
 3807SOL     OW13259   9.721   8.225  13.523
 3807SOL    HW113260   9.794   8.200  13.466
 3807SOL    HW213261   9.687   8.142  13.556
 3808SOL     OW13262   6.045   1.400   8.506
 3808SOL    HW113263   6.013   1.485   8.477
 3808SOL    HW213264   5.968   1.343   8.502
 3809SOL     OW13265  12.272   6.989   0.860
 3809SOL    HW113266  12.278   7.085   0.861
 3809SOL    HW213267  12.354   6.960   0.901
 3810SOL     OW13268   7.272  14.697  13.548
 3810SOL    HW113269   7.237  14.780  13.516
 3810SOL    HW213270   7.342  14.721  13.609
 3811SOL     OW13271  12.835   4.159   7.516
 3811SOL    HW113272  12.887   4.206   7.451
 3811SOL    HW213273  12.794   4.088   7.467
 3812SOL     OW13274  13.199  12.201  11.384
 3812SOL    HW113275  13.105  12.217  11.381
 3812SOL    HW213276  13.238  12.288  11.382
 3813SOL     OW13277   1.129  12.917  13.171
 3813SOL    HW113278   1.130  13.013  13.166
 3813SOL    HW213279   1.119  12.889  13.080
 3814SOL     OW13280   3.037   4.708   3.069
 3814SOL    HW113281   3.015   4.794   3.032
 3814SOL    HW213282   3.076   4.728   3.155
 3815SOL     OW13283   1.052   7.158   9.324
 3815SOL    HW113284   1.092   7.078   9.359
 3815SOL    HW213285   1.068   7.224   9.391
 3816SOL     OW13286   9.783   1.329   5.670
 3816SOL    HW113287   9.769   1.360   5.760
 3816SOL    HW213288   9.710   1.270   5.654
 3817SOL     OW13289  11.199  13.648   9.480
 3817SOL    HW113290  11.168  13.735   9.504
 3817SOL    HW213291  11.259  13.624   9.551
 3818SOL     OW13292   0.326   2.897   0.147
 3818SOL    HW113293   0.238   2.928   0.127
 3818SOL    HW213294   0.315   2.802   0.161
 3819SOL     OW13295  14.056   4.761  13.597
 3819SOL    HW113296  14.040   4.776  13.690
 3819SOL    HW213297  13.998   4.689  13.573
 3820SOL     OW13298  13.697   6.873  13.929
 3820SOL    HW113299  13.659   6.952  13.892
 3820SOL    HW213300  13.747   6.904  14.005
 3821SOL     OW13301  13.831   2.806   3.099
 3821SOL    HW113302  13.815   2.877   3.038
 3821SOL    HW213303  13.842   2.728   3.044
 3822SOL     OW13304   0.360  11.793   2.842
 3822SOL    HW113305   0.283  11.835   2.802
 3822SOL    HW213306   0.433  11.852   2.822
 3823SOL     OW13307   8.776   5.857   0.208
 3823SOL    HW113308   8.794   5.951   0.213
 3823SOL    HW213309   8.861   5.817   0.190
 3824SOL     OW13310  11.188   2.712  12.268
 3824SOL    HW113311  11.170   2.781  12.204
 3824SOL    HW213312  11.156   2.632  12.228
 3825SOL     OW13313  13.940   8.991   3.930
 3825SOL    HW113314  13.892   8.913   3.961
 3825SOL    HW213315  13.884   9.027   3.862
 3826SOL     OW13316   6.145   8.544   2.348
 3826SOL    HW113317   6.131   8.453   2.321
 3826SOL    HW213318   6.071   8.564   2.405
 3827SOL     OW13319   4.699   3.781  10.047
 3827SOL    HW113320   4.704   3.692  10.082
 3827SOL    HW213321   4.665   3.834  10.119
 3828SOL     OW13322   3.587  14.644   3.902
 3828SOL    HW113323   3.622  14.621   3.987
 3828SOL    HW213324   3.582  14.740   3.903
 3829SOL     OW13325  14.416   2.691  10.175
 3829SOL    HW113326  14.343   2.753  10.169
 3829SOL    HW213327  14.482   2.736  10.228
 3830SOL     OW13328   1.045   1.308   8.956
 3830SOL    HW113329   0.971   1.281   9.010
 3830SOL    HW213330   1.064   1.232   8.901
 3831SOL     OW13331   6.273  14.475   6.844
 3831SOL    HW113332   6.342  14.490   6.779
 3831SOL    HW213333   6.203  14.433   6.795
 3832SOL     OW13334   2.058   2.715   8.608
 3832SOL    HW113335   2.105   2.740   8.529
 3832SOL    HW213336   2.112   2.748   8.680
 3833SOL     OW13337   6.849  11.559   4.754
 3833SOL    HW113338   6.925  11.616   4.760
 3833SOL    HW213339   6.844  11.517   4.840
 3834SOL     OW13340   8.551   8.086  10.805
 3834SOL    HW113341   8.482   8.027  10.836
 3834SOL    HW213342   8.628   8.030  10.793
 3835SOL     OW13343   0.816  11.688   7.856
 3835SOL    HW113344   0.815  11.784   7.865
 3835SOL    HW213345   0.764  11.657   7.929
 3836SOL     OW13346  12.322   9.095   9.226
 3836SOL    HW113347  12.261   9.027   9.195
 3836SOL    HW213348  12.272   9.176   9.219
 3837SOL     OW13349   7.402  12.759   6.023
 3837SOL    HW113350   7.378  12.747   5.931
 3837SOL    HW213351   7.420  12.671   6.055
 3838SOL     OW13352  10.476  12.768   0.423
 3838SOL    HW113353  10.534  12.704   0.382
 3838SOL    HW213354  10.533  12.819   0.481
 3839SOL     OW13355  13.211   0.824   0.730
 3839SOL    HW113356  13.223   0.818   0.635
 3839SOL    HW213357  13.221   0.918   0.749
 3840SOL     OW13358  12.738  12.701   6.746
 3840SOL    HW113359  12.743  12.625   6.689
 3840SOL    HW213360  12.690  12.766   6.695
 3841SOL     OW13361   7.095  10.731  12.087
 3841SOL    HW113362   7.001  10.747  12.089
 3841SOL    HW213363   7.128  10.791  12.020
 3842SOL     OW13364  13.791  10.043  14.865
 3842SOL    HW113365  13.759  10.030  14.776
 3842SOL    HW213366  13.799  10.138   0.000
 3843SOL     OW13367   7.920   9.901   9.771
 3843SOL    HW113368   7.877   9.985   9.784
 3843SOL    HW213369   7.894   9.849   9.847
 3844SOL     OW13370   9.906   8.122   9.965
 3844SOL    HW113371   9.950   8.180   9.902
 3844SOL    HW213372   9.970   8.054   9.984
 3845SOL     OW13373  12.466   9.839  10.123
 3845SOL    HW113374  12.436   9.802  10.039
 3845SOL    HW213375  12.537   9.781  10.151
 3846SOL     OW13376   1.995  12.263   1.752
 3846SOL    HW113377   1.909  12.237   1.784
 3846SOL    HW213378   2.051  12.262   1.829
 3847SOL     OW13379  13.319   9.667  13.605
 3847SOL    HW113380  13.308   9.654  13.510
 3847SOL    HW213381  13.363   9.587  13.635
 3848SOL     OW13382  12.887   6.875  10.665
 3848SOL    HW113383  12.957   6.887  10.729
 3848SOL    HW213384  12.832   6.805  10.702
 3849SOL     OW13385   0.152   4.655   2.194
 3849SOL    HW113386   0.121   4.716   2.127
 3849SOL    HW213387   0.219   4.603   2.150
 3850SOL     OW13388   1.348   8.981   1.919
 3850SOL    HW113389   1.270   8.970   1.865
 3850SOL    HW213390   1.318   9.031   1.995
 3851SOL     OW13391   2.272   0.811   8.855
 3851SOL    HW113392   2.240   0.721   8.869
 3851SOL    HW213393   2.361   0.810   8.889
 3852SOL     OW13394   5.071  11.797   2.647
 3852SOL    HW113395   4.996  11.743   2.672
 3852SOL    HW213396   5.114  11.818   2.730
 3853SOL     OW13397   5.521   9.210   9.053
 3853SOL    HW113398   5.577   9.263   9.110
 3853SOL    HW213399   5.575   9.134   9.032
 3854SOL     OW13400   6.085  14.161   7.398
 3854SOL    HW113401   6.090  14.158   7.303
 3854SOL    HW213402   6.170  14.128   7.428
 3855SOL     OW13403   0.919   3.837  13.111
 3855SOL    HW113404   0.916   3.763  13.171
 3855SOL    HW213405   0.939   3.912  13.166
 3856SOL     OW13406  13.304  13.360   2.550
 3856SOL    HW113407  13.229  13.353   2.491
 3856SOL    HW213408  13.269  13.330   2.635
 3857SOL     OW13409  12.368  13.295   9.206
 3857SOL    HW113410  12.301  13.342   9.256
 3857SOL    HW213411  12.430  13.364   9.180
 3858SOL     OW13412   2.157   5.777   2.841
 3858SOL    HW113413   2.091   5.761   2.908
 3858SOL    HW213414   2.131   5.860   2.801
 3859SOL     OW13415  10.798  12.417  12.848
 3859SOL    HW113416  10.750  12.487  12.805
 3859SOL    HW213417  10.890  12.436  12.829
 3860SOL     OW13418   2.525  11.518  11.448
 3860SOL    HW113419   2.467  11.555  11.382
 3860SOL    HW213420   2.599  11.484  11.399
 3861SOL     OW13421  11.516  13.491  11.980
 3861SOL    HW113422  11.471  13.511  11.898
 3861SOL    HW213423  11.549  13.402  11.969
 3862SOL     OW13424   0.815   5.287   1.406
 3862SOL    HW113425   0.758   5.361   1.385
 3862SOL    HW213426   0.755   5.215   1.422
 3863SOL     OW13427  11.850  12.894   3.333
 3863SOL    HW113428  11.921  12.912   3.271
 3863SOL    HW213429  11.862  12.802   3.358
 3864SOL     OW13430   0.453   3.647  14.063
 3864SOL    HW113431   0.515   3.649  13.990
 3864SOL    HW213432   0.498   3.696  14.133
 3865SOL     OW13433   5.932   3.170   1.069
 3865SOL    HW113434   6.016   3.135   1.038
 3865SOL    HW213435   5.952   3.260   1.095
 3866SOL     OW13436   2.256  14.706   8.119
 3866SOL    HW113437   2.210  14.634   8.162
 3866SOL    HW213438   2.292  14.758   8.191
 3867SOL     OW13439  13.162   5.272   8.313
 3867SOL    HW113440  13.146   5.366   8.306
 3867SOL    HW213441  13.127   5.236   8.232
 3868SOL     OW13442   2.732  14.212  14.294
 3868SOL    HW113443   2.809  14.212  14.351
 3868SOL    HW213444   2.660  14.185  14.350
 3869SOL     OW13445   5.470   4.899   5.284
 3869SOL    HW113446   5.469   4.946   5.368
 3869SOL    HW213447   5.545   4.839   5.291
 3870SOL     OW13448   9.971  13.584   1.243
 3870SOL    HW113449   9.886  13.582   1.286
 3870SOL    HW213450   9.950  13.592   1.150
 3871SOL     OW13451   2.471  11.372   3.485
 3871SOL    HW113452   2.393  11.370   3.541
 3871SOL    HW213453   2.536  11.321   3.534
 3872SOL     OW13454  13.000  14.056   5.815
 3872SOL    HW113455  13.012  13.976   5.867
 3872SOL    HW213456  12.926  14.100   5.857
 3873SOL     OW13457   7.679  11.652   2.339
 3873SOL    HW113458   7.739  11.689   2.403
 3873SOL    HW213459   7.610  11.611   2.392
 3874SOL     OW13460   7.820   6.496  12.436
 3874SOL    HW113461   7.728   6.482  12.414
 3874SOL    HW213462   7.868   6.459  12.362
 3875SOL     OW13463   8.940  11.610   4.203
 3875SOL    HW113464   8.898  11.577   4.123
 3875SOL    HW213465   8.870  11.609   4.268
 3876SOL     OW13466   3.781   9.961  11.208
 3876SOL    HW113467   3.689   9.974  11.185
 3876SOL    HW213468   3.829  10.007  11.139
 3877SOL     OW13469  13.569   8.872   1.272
 3877SOL    HW113470  13.575   8.777   1.263
 3877SOL    HW213471  13.650   8.905   1.232
 3878SOL     OW13472  12.455  14.535  13.726
 3878SOL    HW113473  12.438  14.446  13.695
 3878SOL    HW213474  12.549  14.538  13.742
 3879SOL     OW13475   1.324  11.665   2.018
 3879SOL    HW113476   1.279  11.613   1.951
 3879SOL    HW213477   1.370  11.601   2.071
 3880SOL     OW13478   3.595   3.659   6.873
 3880SOL    HW113479   3.670   3.716   6.889
 3880SOL    HW213480   3.549   3.698   6.799
 3881SOL     OW13481  13.624  13.193   5.752
 3881SOL    HW113482  13.709  13.202   5.708
 3881SOL    HW213483  13.561  13.225   5.688
 3882SOL     OW13484  12.728   5.358   6.262
 3882SOL    HW113485  12.632   5.353   6.261
 3882SOL    HW213486  12.747   5.442   6.304
 3883SOL     OW13487  12.642  11.146   4.809
 3883SOL    HW113488  12.732  11.132   4.837
 3883SOL    HW213489  12.599  11.187   4.884
 3884SOL     OW13490   0.440   0.072  12.809
 3884SOL    HW113491   0.371   0.044  12.869
 3884SOL    HW213492   0.440   0.167  12.816
 3885SOL     OW13493   8.549   1.444   1.695
 3885SOL    HW113494   8.482   1.507   1.720
 3885SOL    HW213495   8.524   1.363   1.739
 3886SOL     OW13496   5.660   0.644   2.003
 3886SOL    HW113497   5.745   0.606   1.982
 3886SOL    HW213498   5.658   0.647   2.099
 3887SOL     OW13499   9.318   0.271  13.613
 3887SOL    HW113500   9.361   0.186  13.615
 3887SOL    HW213501   9.280   0.277  13.525
 3888SOL     OW13502  14.076  11.219   2.570
 3888SOL    HW113503  14.121  11.174   2.641
 3888SOL    HW213504  14.048  11.302   2.607
 3889SOL     OW13505   2.307   3.721   8.480
 3889SOL    HW113506   2.292   3.815   8.479
 3889SOL    HW213507   2.288   3.692   8.391
 3890SOL     OW13508  11.548   4.756   3.113
 3890SOL    HW113509  11.638   4.746   3.082
 3890SOL    HW213510  11.496   4.704   3.051
 3891SOL     OW13511   0.460   1.866  11.956
 3891SOL    HW113512   0.377   1.819  11.965
 3891SOL    HW213513   0.511   1.812  11.895
 3892SOL     OW13514   7.844   1.543   9.684
 3892SOL    HW113515   7.860   1.633   9.657
 3892SOL    HW213516   7.926   1.516   9.726
 3893SOL     OW13517   5.974  10.524   2.400
 3893SOL    HW113518   5.929  10.540   2.317
 3893SOL    HW213519   5.957  10.602   2.453
 3894SOL     OW13520   6.614  10.278   8.050
 3894SOL    HW113521   6.540  10.234   8.009
 3894SOL    HW213522   6.651  10.333   7.981
 3895SOL     OW13523   1.209   5.533   2.364
 3895SOL    HW113524   1.254   5.504   2.444
 3895SOL    HW213525   1.116   5.530   2.386
 3896SOL     OW13526  13.890   3.977  14.211
 3896SOL    HW113527  13.875   3.996  14.304
 3896SOL    HW213528  13.923   4.059  14.175
 3897SOL     OW13529  11.940  12.249  11.421
 3897SOL    HW113530  11.886  12.171  11.409
 3897SOL    HW213531  11.884  12.311  11.468
 3898SOL     OW13532  13.695   7.803   0.936
 3898SOL    HW113533  13.675   7.851   0.855
 3898SOL    HW213534  13.651   7.854   1.004
 3899SOL     OW13535  13.574   2.475  14.148
 3899SOL    HW113536  13.489   2.493  14.187
 3899SOL    HW213537  13.555   2.450  14.058
 3900SOL     OW13538   2.283  12.961   4.133
 3900SOL    HW113539   2.298  12.880   4.084
 3900SOL    HW213540   2.237  12.933   4.212
 3901SOL     OW13541   5.349   2.230   2.802
 3901SOL    HW113542   5.388   2.174   2.870
 3901SOL    HW213543   5.264   2.190   2.785
 3902SOL     OW13544  14.367  11.617  12.427
 3902SOL    HW113545  14.317  11.699  12.421
 3902SOL    HW213546  14.328  11.561  12.360
 3903SOL     OW13547   3.511   8.614   1.754
 3903SOL    HW113548   3.513   8.562   1.834
 3903SOL    HW213549   3.454   8.565   1.695
 3904SOL     OW13550   8.363   3.179  10.900
 3904SOL    HW113551   8.296   3.110  10.905
 3904SOL    HW213552   8.441   3.139  10.938
 3905SOL     OW13553   6.581   1.063   6.531
 3905SOL    HW113554   6.501   1.010   6.529
 3905SOL    HW213555   6.644   1.011   6.580
 3906SOL     OW13556  12.666  12.902   9.114
 3906SOL    HW113557  12.636  12.974   9.169
 3906SOL    HW213558  12.739  12.940   9.064
 3907SOL     OW13559   3.376  12.545  10.123
 3907SOL    HW113560   3.421  12.561  10.040
 3907SOL    HW213561   3.326  12.465  10.107
 3908SOL     OW13562   4.378   3.590  12.056
 3908SOL    HW113563   4.321   3.661  12.025
 3908SOL    HW213564   4.432   3.568  11.981
 3909SOL     OW13565   6.528   0.174  13.190
 3909SOL    HW113566   6.519   0.269  13.189
 3909SOL    HW213567   6.443   0.142  13.220
 3910SOL     OW13568  11.031  12.112  14.552
 3910SOL    HW113569  11.062  12.133  14.464
 3910SOL    HW213570  11.008  12.019  14.548
 3911SOL     OW13571   2.190  11.006  10.621
 3911SOL    HW113572   2.101  11.008  10.656
 3911SOL    HW213573   2.204  11.094  10.585
 3912SOL     OW13574   5.647   6.627   6.576
 3912SOL    HW113575   5.722   6.636   6.635
 3912SOL    HW213576   5.570   6.635   6.633
 3913SOL     OW13577   6.116   3.923   4.178
 3913SOL    HW113578   6.168   4.002   4.192
 3913SOL    HW213579   6.176   3.851   4.198
 3914SOL     OW13580   7.820  12.562   9.554
 3914SOL    HW113581   7.892  12.624   9.539
 3914SOL    HW213582   7.855  12.477   9.528
 3915SOL     OW13583   1.129   2.468  14.778
 3915SOL    HW113584   1.106   2.415  14.701
 3915SOL    HW213585   1.225   2.464  14.782
 3916SOL     OW13586   2.458   2.752  10.735
 3916SOL    HW113587   2.394   2.780  10.801
 3916SOL    HW213588   2.464   2.658  10.747
 3917SOL     OW13589   8.554  13.727  13.865
 3917SOL    HW113590   8.502  13.788  13.813
 3917SOL    HW213591   8.578  13.657  13.804
 3918SOL     OW13592  10.332   5.942   7.885
 3918SOL    HW113593  10.301   5.884   7.815
 3918SOL    HW213594  10.257   6.000   7.903
 3919SOL     OW13595   6.735   6.014   9.872
 3919SOL    HW113596   6.788   6.015   9.792
 3919SOL    HW213597   6.745   6.102   9.909
 3920SOL     OW13598  14.508  12.917   3.238
 3920SOL    HW113599  14.418  12.894   3.260
 3920SOL    HW213600  14.546  12.837   3.202
 3921SOL     OW13601   2.646  13.307   8.609
 3921SOL    HW113602   2.680  13.394   8.589
 3921SOL    HW213603   2.551  13.316   8.603
 3922SOL     OW13604  13.365   7.888   8.269
 3922SOL    HW113605  13.398   7.872   8.358
 3922SOL    HW213606  13.441   7.925   8.223
 3923SOL     OW13607  12.045  11.948   2.949
 3923SOL    HW113608  12.125  11.906   2.916
 3923SOL    HW213609  12.049  12.037   2.915
 3924SOL     OW13610  13.181   8.379   3.760
 3924SOL    HW113611  13.145   8.293   3.740
 3924SOL    HW213612  13.107   8.429   3.794
 3925SOL     OW13613   7.095   2.507   5.697
 3925SOL    HW113614   7.075   2.422   5.735
 3925SOL    HW213615   7.009   2.547   5.681
 3926SOL     OW13616  11.727   1.244  10.453
 3926SOL    HW113617  11.745   1.151  10.461
 3926SOL    HW213618  11.733   1.262  10.359
 3927SOL     OW13619   7.806   4.789  13.571
 3927SOL    HW113620   7.750   4.865  13.589
 3927SOL    HW213621   7.886   4.805  13.621
 3928SOL     OW13622   6.484  13.518   5.530
 3928SOL    HW113623   6.512  13.596   5.579
 3928SOL    HW213624   6.451  13.458   5.597
 3929SOL     OW13625   0.822   7.828   0.573
 3929SOL    HW113626   0.817   7.786   0.487
 3929SOL    HW213627   0.877   7.769   0.625
 3930SOL     OW13628   4.278   2.410   5.128
 3930SOL    HW113629   4.199   2.376   5.085
 3930SOL    HW213630   4.249   2.435   5.215
 3931SOL     OW13631  10.583  13.888   5.993
 3931SOL    HW113632  10.596  13.880   6.087
 3931SOL    HW213633  10.499  13.845   5.976
 3932SOL     OW13634  14.081  12.630   4.096
 3932SOL    HW113635  14.168  12.654   4.062
 3932SOL    HW213636  14.089  12.538   4.120
 3933SOL     OW13637  12.805   9.369   8.428
 3933SOL    HW113638  12.737   9.403   8.486
 3933SOL    HW213639  12.882   9.362   8.484
 3934SOL     OW13640   0.801  14.399   3.312
 3934SOL    HW113641   0.763  14.312   3.323
 3934SOL    HW213642   0.739  14.446   3.256
 3935SOL     OW13643   0.503   0.451   8.258
 3935SOL    HW113644   0.466   0.516   8.199
 3935SOL    HW213645   0.532   0.501   8.335
 3936SOL     OW13646   3.451   2.167   5.496
 3936SOL    HW113647   3.494   2.210   5.569
 3936SOL    HW213648   3.366   2.140   5.531
 3937SOL     OW13649  10.271  12.905  12.927
 3937SOL    HW113650  10.186  12.869  12.949
 3937SOL    HW213651  10.333  12.835  12.947
 3938SOL     OW13652   1.288   0.959  11.648
 3938SOL    HW113653   1.257   1.022  11.583
 3938SOL    HW213654   1.323   0.887  11.597
 3939SOL     OW13655  14.694   1.223  11.113
 3939SOL    HW113656  14.645   1.163  11.168
 3939SOL    HW213657  14.670   1.200  11.023
 3940SOL     OW13658  10.814   1.423   7.111
 3940SOL    HW113659  10.788   1.394   7.199
 3940SOL    HW213660  10.836   1.515   7.122
 3941SOL     OW13661   6.100   0.191  11.129
 3941SOL    HW113662   6.191   0.176  11.154
 3941SOL    HW213663   6.055   0.203  11.213
 3942SOL     OW13664   9.833  13.130   5.191
 3942SOL    HW113665   9.882  13.082   5.257
 3942SOL    HW213666   9.865  13.096   5.107
 3943SOL     OW13667   3.593   7.602  10.115
 3943SOL    HW113668   3.498   7.614  10.109
 3943SOL    HW213669   3.604   7.529  10.176
 3944SOL     OW13670   7.017  11.818   8.016
 3944SOL    HW113671   6.970  11.737   8.035
 3944SOL    HW213672   7.086  11.822   8.082
 3945SOL     OW13673   2.459   6.233  11.387
 3945SOL    HW113674   2.450   6.165  11.320
 3945SOL    HW213675   2.513   6.193  11.455
 3946SOL     OW13676   9.220   4.407  13.671
 3946SOL    HW113677   9.142   4.358  13.644
 3946SOL    HW213678   9.191   4.459  13.746
 3947SOL     OW13679   8.733   8.858   2.069
 3947SOL    HW113680   8.660   8.870   2.008
 3947SOL    HW213681   8.785   8.938   2.059
 3948SOL     OW13682   8.782   5.057  12.001
 3948SOL    HW113683   8.787   5.107  11.920
 3948SOL    HW213684   8.728   5.111  12.059
 3949SOL     OW13685  12.909  14.628   6.566
 3949SOL    HW113686  12.851  14.562   6.603
 3949SOL    HW213687  12.851  14.685   6.516
 3950SOL     OW13688   1.539   0.107   5.923
 3950SOL    HW113689   1.464   0.158   5.952
 3950SOL    HW213690   1.550   0.039   5.990
 3951SOL     OW13691  12.928  12.656  13.615
 3951SOL    HW113692  13.009  12.692  13.650
 3951SOL    HW213693  12.916  12.699  13.531
 3952SOL     OW13694   3.685   7.175   0.319
 3952SOL    HW113695   3.774   7.203   0.298
 3952SOL    HW213696   3.657   7.124   0.243
 3953SOL     OW13697  13.889   5.932   1.838
 3953SOL    HW113698  13.974   5.887   1.831
 3953SOL    HW213699  13.905   6.019   1.802
 3954SOL     OW13700  13.768   3.591   8.546
 3954SOL    HW113701  13.690   3.535   8.545
 3954SOL    HW213702  13.820   3.558   8.619
 3955SOL     OW13703   1.214  12.188  11.870
 3955SOL    HW113704   1.266  12.169  11.791
 3955SOL    HW213705   1.132  12.140  11.856
 3956SOL     OW13706  13.981   2.188   5.876
 3956SOL    HW113707  13.948   2.109   5.919
 3956SOL    HW213708  14.030   2.233   5.945
 3957SOL     OW13709   7.366   8.891  11.184
 3957SOL    HW113710   7.403   8.889  11.096
 3957SOL    HW213711   7.280   8.851  11.175
 3958SOL     OW13712   0.204   5.216  13.353
 3958SOL    HW113713   0.186   5.257  13.437
 3958SOL    HW213714   0.182   5.282  13.288
 3959SOL     OW13715   9.186   9.371  12.727
 3959SOL    HW113716   9.201   9.279  12.709
 3959SOL    HW213717   9.091   9.382  12.718
 3960SOL     OW13718   4.824   6.117   5.064
 3960SOL    HW113719   4.803   6.036   5.017
 3960SOL    HW213720   4.853   6.177   4.996
 3961SOL     OW13721  12.040   6.050   5.920
 3961SOL    HW113722  12.037   5.991   5.996
 3961SOL    HW213723  11.974   6.015   5.861
 3962SOL     OW13724   6.172   6.132  10.668
 3962SOL    HW113725   6.089   6.095  10.696
 3962SOL    HW213726   6.202   6.074  10.598
 3963SOL     OW13727  12.817   1.706   9.302
 3963SOL    HW113728  12.739   1.740   9.346
 3963SOL    HW213729  12.815   1.612   9.320
 3964SOL     OW13730   2.212  13.126   6.252
 3964SOL    HW113731   2.243  13.111   6.163
 3964SOL    HW213732   2.185  13.040   6.283
 3965SOL     OW13733   6.040   1.314   9.304
 3965SOL    HW113734   6.078   1.279   9.384
 3965SOL    HW213735   6.038   1.240   9.244
 3966SOL     OW13736   8.452  14.839   7.570
 3966SOL    HW113737   8.538  14.846   7.529
 3966SOL    HW213738   8.459  14.765   7.629
 3967SOL     OW13739  13.466   8.863   0.167
 3967SOL    HW113740  13.544   8.917   0.172
 3967SOL    HW213741  13.431   8.861   0.256
 3968SOL     OW13742  10.180   0.372   7.798
 3968SOL    HW113743  10.134   0.321   7.865
 3968SOL    HW213744  10.266   0.331   7.791
 3969SOL     OW13745  13.201   4.475   9.616
 3969SOL    HW113746  13.251   4.438   9.544
 3969SOL    HW213747  13.205   4.408   9.685
 3970SOL     OW13748   3.908  10.877  14.272
 3970SOL    HW113749   3.881  10.942  14.337
 3970SOL    HW213750   3.827  10.830  14.251
 3971SOL     OW13751  14.030   3.803   2.447
 3971SOL    HW113752  13.990   3.814   2.361
 3971SOL    HW213753  14.089   3.878   2.456
 3972SOL     OW13754  12.466   9.576   7.650
 3972SOL    HW113755  12.382   9.618   7.631
 3972SOL    HW213756  12.445   9.507   7.712
 3973SOL     OW13757   9.354   3.604   7.368
 3973SOL    HW113758   9.295   3.680   7.363
 3973SOL    HW213759   9.359   3.585   7.462
 3974SOL     OW13760   7.643   9.512   8.975
 3974SOL    HW113761   7.582   9.466   9.032
 3974SOL    HW213762   7.587   9.568   8.921
 3975SOL     OW13763   0.521  11.019   8.861
 3975SOL    HW113764   0.481  10.939   8.828
 3975SOL    HW213765   0.537  11.002   8.953
 3976SOL     OW13766   2.366   3.085   4.947
 3976SOL    HW113767   2.391   3.126   4.864
 3976SOL    HW213768   2.274   3.060   4.934
 3977SOL     OW13769   5.631   0.760  10.051
 3977SOL    HW113770   5.586   0.755   9.967
 3977SOL    HW213771   5.634   0.670  10.083
 3978SOL     OW13772   2.252  12.995  10.680
 3978SOL    HW113773   2.328  13.003  10.738
 3978SOL    HW213774   2.249  13.078  10.633
 3979SOL     OW13775  14.832   9.826   3.662
 3979SOL    HW113776  14.764   9.773   3.703
 3979SOL    HW213777   0.003   9.868   3.735
 3980SOL     OW13778  14.137  11.469   0.071
 3980SOL    HW113779  14.179  11.416   0.004
 3980SOL    HW213780  14.171  11.436   0.154
 3981SOL     OW13781  14.406   7.703   1.877
 3981SOL    HW113782  14.465   7.741   1.942
 3981SOL    HW213783  14.326   7.685   1.925
 3982SOL     OW13784   4.347   7.130   2.659
 3982SOL    HW113785   4.411   7.114   2.728
 3982SOL    HW213786   4.279   7.183   2.701
 3983SOL     OW13787   2.683   2.396   4.863
 3983SOL    HW113788   2.736   2.472   4.841
 3983SOL    HW213789   2.621   2.427   4.928
 3984SOL     OW13790  14.289   1.490   2.197
 3984SOL    HW113791  14.327   1.576   2.178
 3984SOL    HW213792  14.213   1.508   2.252
 3985SOL     OW13793  13.422   6.553   4.824
 3985SOL    HW113794  13.330   6.532   4.835
 3985SOL    HW213795  13.439   6.621   4.889
 3986SOL     OW13796   0.821   2.118   2.719
 3986SOL    HW113797   0.854   2.201   2.684
 3986SOL    HW213798   0.882   2.052   2.686
 3987SOL     OW13799   5.969  13.009  10.534
 3987SOL    HW113800   5.920  13.018  10.452
 3987SOL    HW213801   6.009  12.922  10.529
 3988SOL     OW13802   4.405  10.035  12.436
 3988SOL    HW113803   4.312  10.045  12.413
 3988SOL    HW213804   4.404  10.012  12.529
 3989SOL     OW13805   0.991   2.128   8.197
 3989SOL    HW113806   0.933   2.179   8.254
 3989SOL    HW213807   0.984   2.170   8.111
 3990SOL     OW13808   4.746  14.245   3.117
 3990SOL    HW113809   4.786  14.321   3.074
 3990SOL    HW213810   4.744  14.268   3.210
 3991SOL     OW13811  13.033   9.256  10.998
 3991SOL    HW113812  13.076   9.316  11.059
 3991SOL    HW213813  12.939   9.266  11.015
 3992SOL     OW13814   1.966   3.109   1.921
 3992SOL    HW113815   2.033   3.164   1.962
 3992SOL    HW213816   2.001   3.089   1.834
 3993SOL     OW13817   8.595   1.349   7.575
 3993SOL    HW113818   8.532   1.280   7.596
 3993SOL    HW213819   8.579   1.417   7.640
 3994SOL     OW13820   4.523  10.829  14.733
 3994SOL    HW113821   4.591  10.858  14.794
 3994SOL    HW213822   4.441  10.843  14.780
 3995SOL     OW13823  11.065  13.591  13.520
 3995SOL    HW113824  11.021  13.669  13.554
 3995SOL    HW213825  11.000  13.522  13.526
 3996SOL     OW13826   0.686   5.903  12.800
 3996SOL    HW113827   0.713   5.814  12.780
 3996SOL    HW213828   0.735   5.957  12.739
 3997SOL     OW13829  10.010   2.453  12.625
 3997SOL    HW113830   9.961   2.370  12.624
 3997SOL    HW213831   9.943   2.521  12.613
 3998SOL     OW13832   2.984   5.751   6.299
 3998SOL    HW113833   2.909   5.703   6.333
 3998SOL    HW213834   2.994   5.825   6.360
 3999SOL     OW13835  11.023  14.135   0.059
 3999SOL    HW113836  10.955  14.072   0.035
 3999SOL    HW213837  11.091  14.123  14.866
 4000SOL     OW13838   6.293  14.350   4.896
 4000SOL    HW113839   6.382  14.384   4.883
 4000SOL    HW213840   6.305  14.256   4.910
 4001SOL     OW13841   0.159   8.090   8.000
 4001SOL    HW113842   0.219   8.165   7.998
 4001SOL    HW213843   0.076   8.126   8.029
 4002SOL     OW13844  10.491   9.604   6.067
 4002SOL    HW113845  10.541   9.574   6.143
 4002SOL    HW213846  10.558   9.625   6.002
 4003SOL     OW13847  13.346   6.796  13.343
 4003SOL    HW113848  13.325   6.861  13.276
 4003SOL    HW213849  13.441   6.784  13.335
 4004SOL     OW13850  12.604   7.995   1.811
 4004SOL    HW113851  12.545   7.985   1.736
 4004SOL    HW213852  12.667   8.062   1.783
 4005SOL     OW13853   5.575   8.982  14.662
 4005SOL    HW113854   5.522   8.904  14.643
 4005SOL    HW213855   5.633   8.991  14.586
 4006SOL     OW13856   2.062   2.726   5.351
 4006SOL    HW113857   1.974   2.749   5.319
 4006SOL    HW213858   2.065   2.630   5.345
 4007SOL     OW13859   8.183   6.174   3.171
 4007SOL    HW113860   8.216   6.092   3.208
 4007SOL    HW213861   8.091   6.155   3.150
 4008SOL     OW13862  14.696  14.788   7.148
 4008SOL    HW113863  14.682  14.696   7.171
 4008SOL    HW213864  14.626  14.808   7.085
 4009SOL     OW13865  12.415   8.210   2.316
 4009SOL    HW113866  12.337   8.264   2.303
 4009SOL    HW213867  12.421   8.199   2.411
 4010SOL     OW13868  13.258   6.315  10.450
 4010SOL    HW113869  13.256   6.377  10.377
 4010SOL    HW213870  13.191   6.250  10.429
 4011SOL     OW13871   1.025  13.572  14.319
 4011SOL    HW113872   1.010  13.502  14.383
 4011SOL    HW213873   0.984  13.649  14.358
 4012SOL     OW13874   7.926   9.558  14.828
 4012SOL    HW113875   7.831   9.563  14.843
 4012SOL    HW213876   7.937   9.484  14.769
 4013SOL     OW13877   9.501   4.510  13.779
 4013SOL    HW113878   9.588   4.549  13.768
 4013SOL    HW213879   9.444   4.562  13.722
 4014SOL     OW13880   8.958   7.092   0.782
 4014SOL    HW113881   8.903   7.169   0.796
 4014SOL    HW213882   9.019   7.119   0.713
 4015SOL     OW13883  12.653  11.171  11.496
 4015SOL    HW113884  12.567  11.204  11.521
 4015SOL    HW213885  12.714  11.221  11.551
 4016SOL     OW13886   0.813  10.890   5.277
 4016SOL    HW113887   0.735  10.937   5.308
 4016SOL    HW213888   0.827  10.923   5.188
 4017SOL     OW13889   0.917  13.932   1.539
 4017SOL    HW113890   0.936  13.977   1.457
 4017SOL    HW213891   0.919  13.839   1.517
 4018SOL     OW13892  11.230  12.327  12.055
 4018SOL    HW113893  11.197  12.368  12.135
 4018SOL    HW213894  11.282  12.254  12.085
 4019SOL     OW13895   7.477   9.400   1.146
 4019SOL    HW113896   7.567   9.397   1.114
 4019SOL    HW213897   7.484   9.436   1.234
 4020SOL     OW13898   2.390   4.124   6.116
 4020SOL    HW113899   2.478   4.088   6.122
 4020SOL    HW213900   2.403   4.216   6.093
 4021SOL     OW13901   1.420   4.146  14.162
 4021SOL    HW113902   1.491   4.125  14.224
 4021SOL    HW213903   1.461   4.138  14.076
 4022SOL     OW13904  13.478   0.482  12.373
 4022SOL    HW113905  13.466   0.558  12.430
 4022SOL    HW213906  13.396   0.432  12.383
 4023SOL     OW13907  13.398   8.769   1.978
 4023SOL    HW113908  13.335   8.705   1.943
 4023SOL    HW213909  13.453   8.718   2.037
 4024SOL     OW13910  10.248  11.938  10.909
 4024SOL    HW113911  10.202  11.890  10.978
 4024SOL    HW213912  10.327  11.972  10.951
 4025SOL     OW13913  13.245  12.954  10.561
 4025SOL    HW113914  13.338  12.941  10.581
 4025SOL    HW213915  13.225  13.041  10.595
 4026SOL     OW13916  13.099   1.152   1.497
 4026SOL    HW113917  13.165   1.123   1.434
 4026SOL    HW213918  13.140   1.227   1.541
 4027SOL     OW13919   3.603   2.166   3.539
 4027SOL    HW113920   3.572   2.093   3.592
 4027SOL    HW213921   3.574   2.244   3.587
 4028SOL     OW13922   8.642   7.503  12.185
 4028SOL    HW113923   8.585   7.568  12.143
 4028SOL    HW213924   8.726   7.512  12.141
 4029SOL     OW13925  11.804  14.393  14.278
 4029SOL    HW113926  11.830  14.444  14.201
 4029SOL    HW213927  11.887  14.371  14.321
 4030SOL     OW13928   2.761   5.190  13.321
 4030SOL    HW113929   2.694   5.127  13.295
 4030SOL    HW213930   2.735   5.272  13.280
 4031SOL     OW13931  10.532  10.942   0.395
 4031SOL    HW113932  10.502  11.031   0.413
 4031SOL    HW213933  10.576  10.915   0.475
 4032SOL     OW13934   2.688   7.462   3.922
 4032SOL    HW113935   2.644   7.388   3.880
 4032SOL    HW213936   2.652   7.465   4.010
 4033SOL     OW13937  11.592   8.321   6.411
 4033SOL    HW113938  11.640   8.401   6.389
 4033SOL    HW213939  11.603   8.264   6.335
 4034SOL     OW13940   2.464   9.573   7.718
 4034SOL    HW113941   2.486   9.656   7.676
 4034SOL    HW213942   2.510   9.507   7.666
 4035SOL     OW13943  13.373   6.339   6.691
 4035SOL    HW113944  13.431   6.403   6.650
 4035SOL    HW213945  13.290   6.385   6.701
 4036SOL     OW13946   9.158   0.388  14.495
 4036SOL    HW113947   9.144   0.482  14.480
 4036SOL    HW213948   9.231   0.385  14.558
 4037SOL     OW13949   1.600   0.312   5.005
 4037SOL    HW113950   1.568   0.285   5.091
 4037SOL    HW213951   1.640   0.398   5.021
 4038SOL     OW13952   3.723   0.826   5.444
 4038SOL    HW113953   3.715   0.758   5.378
 4038SOL    HW213954   3.767   0.898   5.399
 4039SOL     OW13955   1.252   5.451   5.181
 4039SOL    HW113956   1.211   5.497   5.254
 4039SOL    HW213957   1.322   5.510   5.152
 4040SOL     OW13958   3.709  13.819  12.009
 4040SOL    HW113959   3.723  13.724  12.004
 4040SOL    HW213960   3.615  13.829  12.019
 4041SOL     OW13961   3.478  10.019   8.210
 4041SOL    HW113962   3.533  10.076   8.155
 4041SOL    HW213963   3.530   9.939   8.220
 4042SOL     OW13964  14.317   4.900   2.011
 4042SOL    HW113965  14.411   4.911   2.025
 4042SOL    HW213966  14.282   4.989   2.010
 4043SOL     OW13967  14.373   4.031  11.617
 4043SOL    HW113968  14.339   3.958  11.565
 4043SOL    HW213969  14.378   4.104  11.555
 4044SOL     OW13970   1.111   0.252  10.858
 4044SOL    HW113971   1.062   0.173  10.837
 4044SOL    HW213972   1.056   0.324  10.826
 4045SOL     OW13973  12.118   3.759   8.815
 4045SOL    HW113974  12.202   3.798   8.789
 4045SOL    HW213975  12.137   3.711   8.895
 4046SOL     OW13976  11.597   6.347   8.951
 4046SOL    HW113977  11.620   6.289   8.878
 4046SOL    HW213978  11.504   6.366   8.938
 4047SOL     OW13979   0.814  12.758   0.688
 4047SOL    HW113980   0.745  12.823   0.668
 4047SOL    HW213981   0.766  12.681   0.718
 4048SOL     OW13982  11.658  11.462  10.459
 4048SOL    HW113983  11.604  11.436  10.535
 4048SOL    HW213984  11.635  11.398  10.391
 4049SOL     OW13985   2.224   8.753   3.830
 4049SOL    HW113986   2.135   8.719   3.820
 4049SOL    HW213987   2.223   8.797   3.916
 4050SOL     OW13988   4.482   5.250  13.403
 4050SOL    HW113989   4.512   5.176  13.350
 4050SOL    HW213990   4.561   5.298  13.426
 4051SOL     OW13991   5.519  12.380   5.767
 4051SOL    HW113992   5.545  12.340   5.684
 4051SOL    HW213993   5.466  12.313   5.811
 4052SOL     OW13994   3.566   8.954   8.522
 4052SOL    HW113995   3.602   8.910   8.445
 4052SOL    HW213996   3.528   9.035   8.487
 4053SOL     OW13997   9.077   6.559   0.037
 4053SOL    HW113998   9.083   6.630  14.847
 4053SOL    HW213999   9.016   6.497  14.871
 4054SOL     OW14000   9.185  11.411   1.954
 4054SOL    HW114001   9.256  11.372   1.905
 4054SOL    HW214002   9.228  11.468   2.018
 4055SOL     OW14003   2.254   7.900   0.164
 4055SOL    HW114004   2.177   7.867   0.209
 4055SOL    HW214005   2.315   7.923   0.235
 4056SOL     OW14006  13.719   4.277  14.437
 4056SOL    HW114007  13.785   4.323  14.384
 4056SOL    HW214008  13.644   4.336  14.440
 4057SOL     OW14009   3.731   6.128   4.556
 4057SOL    HW114010   3.652   6.114   4.504
 4057SOL    HW214011   3.771   6.206   4.517
 4058SOL     OW14012  12.834   7.011   6.387
 4058SOL    HW114013  12.911   6.970   6.349
 4058SOL    HW214014  12.835   7.100   6.353
 4059SOL     OW14015  10.003   1.030   0.186
 4059SOL    HW114016  10.005   0.970   0.111
 4059SOL    HW214017  10.054   1.106   0.157
 4060SOL     OW14018  13.204   0.667  12.305
 4060SOL    HW114019  13.208   0.760  12.283
 4060SOL    HW214020  13.194   0.624  12.220
 4061SOL     OW14021  14.677   4.354   5.360
 4061SOL    HW114022  14.734   4.398   5.296
 4061SOL    HW214023  14.734   4.337   5.435
 4062SOL     OW14024   0.151   5.770   6.701
 4062SOL    HW114025   0.125   5.699   6.759
 4062SOL    HW214026   0.194   5.726   6.627
 4063SOL     OW14027   0.121   7.541  13.247
 4063SOL    HW114028   0.115   7.481  13.173
 4063SOL    HW214029   0.039   7.589  13.246
 4064SOL     OW14030  14.504   3.544  10.365
 4064SOL    HW114031  14.567   3.505  10.425
 4064SOL    HW214032  14.558   3.597  10.306
 4065SOL     OW14033   8.968   4.391   5.296
 4065SOL    HW114034   8.928   4.397   5.209
 4065SOL    HW214035   9.047   4.339   5.282
 4066SOL     OW14036  10.314   8.467  12.253
 4066SOL    HW114037  10.369   8.422  12.317
 4066SOL    HW214038  10.368   8.469  12.173
 4067SOL     OW14039  10.390   2.316   3.247
 4067SOL    HW114040  10.463   2.278   3.297
 4067SOL    HW214041  10.382   2.405   3.282
 4068SOL     OW14042   3.544   4.640   7.548
 4068SOL    HW114043   3.547   4.590   7.630
 4068SOL    HW214044   3.633   4.634   7.513
 4069SOL     OW14045   1.787   9.785  14.171
 4069SOL    HW114046   1.842   9.721  14.126
 4069SOL    HW214047   1.713   9.734  14.203
 4070SOL     OW14048   8.384   7.012   0.907
 4070SOL    HW114049   8.424   7.000   0.993
 4070SOL    HW214050   8.422   7.093   0.874
 4071SOL     OW14051   5.621   0.883   4.036
 4071SOL    HW114052   5.691   0.948   4.027
 4071SOL    HW214053   5.586   0.873   3.947
 4072SOL     OW14054   0.173   3.123   7.188
 4072SOL    HW114055   0.154   3.046   7.134
 4072SOL    HW214056   0.265   3.143   7.170
 4073SOL     OW14057  13.329   2.130   1.218
 4073SOL    HW114058  13.262   2.064   1.200
 4073SOL    HW214059  13.408   2.094   1.178
 4074SOL     OW14060   5.438  11.746   0.361
 4074SOL    HW114061   5.392  11.673   0.318
 4074SOL    HW214062   5.523  11.749   0.318
 4075SOL     OW14063  10.906  13.173   2.332
 4075SOL    HW114064  10.832  13.179   2.393
 4075SOL    HW214065  10.897  13.087   2.292
 4076SOL     OW14066   6.906   3.951  13.177
 4076SOL    HW114067   6.857   3.901  13.242
 4076SOL    HW214068   6.931   3.887  13.111
 4077SOL     OW14069   9.982   3.561   2.372
 4077SOL    HW114070   9.892   3.540   2.397
 4077SOL    HW214071  10.032   3.484   2.399
 4078SOL     OW14072  11.498   7.604   3.789
 4078SOL    HW114073  11.587   7.592   3.759
 4078SOL    HW214074  11.443   7.583   3.713
 4079SOL     OW14075   9.779  12.543  11.048
 4079SOL    HW114076   9.819  12.501  10.972
 4079SOL    HW214077   9.820  12.630  11.051
 4080SOL     OW14078  10.287   6.298  11.517
 4080SOL    HW114079  10.234   6.218  11.518
 4080SOL    HW214080  10.292   6.322  11.425
 4081SOL     OW14081   3.076   9.373   0.617
 4081SOL    HW114082   3.159   9.345   0.655
 4081SOL    HW214083   3.017   9.384   0.692
 4082SOL     OW14084  14.053   8.851  10.605
 4082SOL    HW114085  14.034   8.831  10.696
 4082SOL    HW214086  14.032   8.770  10.558
 4083SOL     OW14087  14.487   4.861   0.413
 4083SOL    HW114088  14.471   4.906   0.331
 4083SOL    HW214089  14.582   4.846   0.414
 4084SOL     OW14090   1.077   7.200  10.394
 4084SOL    HW114091   1.058   7.135  10.327
 4084SOL    HW214092   1.167   7.180  10.422
 4085SOL     OW14093   2.078  12.718   5.657
 4085SOL    HW114094   2.033  12.641   5.692
 4085SOL    HW214095   2.129  12.752   5.730
 4086SOL     OW14096   7.015   5.349   9.917
 4086SOL    HW114097   7.029   5.284   9.986
 4086SOL    HW214098   7.016   5.299   9.836
 4087SOL     OW14099   0.498   2.797   9.216
 4087SOL    HW114100   0.543   2.879   9.195
 4087SOL    HW214101   0.559   2.750   9.272
 4088SOL     OW14102  13.274   5.044   9.364
 4088SOL    HW114103  13.328   5.021   9.440
 4088SOL    HW214104  13.205   4.977   9.363
 4089SOL     OW14105   1.463  14.711   0.580
 4089SOL    HW114106   1.508  14.708   0.496
 4089SOL    HW214107   1.409  14.632   0.582
 4090SOL     OW14108   2.559   5.912   8.821
 4090SOL    HW114109   2.465   5.911   8.804
 4090SOL    HW214110   2.575   5.995   8.865
 4091SOL     OW14111   1.229   6.190   2.015
 4091SOL    HW114112   1.235   6.282   2.041
 4091SOL    HW214113   1.139   6.180   1.984
 4092SOL     OW14114  14.603  12.089   2.928
 4092SOL    HW114115  14.687  12.131   2.947
 4092SOL    HW214116  14.575  12.129   2.845
 4093SOL     OW14117   8.932   0.802   7.777
 4093SOL    HW114118   8.943   0.738   7.706
 4093SOL    HW214119   8.996   0.776   7.842
 4094SOL     OW14120  13.720   2.997   7.402
 4094SOL    HW114121  13.657   3.034   7.339
 4094SOL    HW214122  13.761   2.925   7.354
 4095SOL     OW14123   9.852   6.181  12.276
 4095SOL    HW114124   9.914   6.254  12.273
 4095SOL    HW214125   9.836   6.167  12.370
 4096SOL     OW14126   0.702  14.682   1.554
 4096SOL    HW114127   0.764  14.712   1.620
 4096SOL    HW214128   0.753  14.627   1.495
 4097SOL     OW14129   5.175  14.082   3.454
 4097SOL    HW114130   5.138  14.169   3.471
 4097SOL    HW214131   5.208  14.054   3.540
 4098SOL     OW14132   0.891  11.562   5.530
 4098SOL    HW114133   0.831  11.635   5.549
 4098SOL    HW214134   0.912  11.525   5.615
 4099SOL     OW14135   8.002  10.086   3.371
 4099SOL    HW114136   7.993  10.006   3.319
 4099SOL    HW214137   7.916  10.129   3.363
 4100SOL     OW14138  11.052   1.998   8.294
 4100SOL    HW114139  11.046   1.916   8.343
 4100SOL    HW214140  11.059   2.066   8.361
 4101SOL     OW14141   4.793   0.999   2.645
 4101SOL    HW114142   4.858   1.068   2.656
 4101SOL    HW214143   4.759   1.012   2.556
 4102SOL     OW14144  12.775   0.634   8.319
 4102SOL    HW114145  12.790   0.726   8.294
 4102SOL    HW214146  12.763   0.636   8.414
 4103SOL     OW14147   9.315  10.650   1.576
 4103SOL    HW114148   9.385  10.671   1.637
 4103SOL    HW214149   9.235  10.680   1.620
 4104SOL     OW14150   0.774  14.037  13.363
 4104SOL    HW114151   0.837  13.969  13.339
 4104SOL    HW214152   0.721  14.049  13.284
 4105SOL     OW14153  13.131   6.455  13.509
 4105SOL    HW114154  13.085   6.456  13.593
 4105SOL    HW214155  13.204   6.394  13.523
 4106SOL     OW14156  12.273   6.582   9.614
 4106SOL    HW114157  12.207   6.575   9.545
 4106SOL    HW214158  12.354   6.548   9.574
 4107SOL     OW14159   5.296  14.507   7.952
 4107SOL    HW114160   5.210  14.542   7.977
 4107SOL    HW214161   5.279  14.453   7.875
 4108SOL     OW14162   2.525   2.725   0.743
 4108SOL    HW114163   2.615   2.743   0.718
 4108SOL    HW214164   2.524   2.633   0.766
 4109SOL     OW14165   7.290  14.274   6.001
 4109SOL    HW114166   7.366  14.297   6.054
 4109SOL    HW214167   7.252  14.198   6.046
 4110SOL     OW14168   0.192   3.945   8.810
 4110SOL    HW114169   0.135   3.983   8.877
 4110SOL    HW214170   0.240   4.020   8.774
 4111SOL     OW14171   8.702   4.638  11.519
 4111SOL    HW114172   8.759   4.620  11.444
 4111SOL    HW214173   8.670   4.552  11.547
 4112SOL     OW14174   9.374   5.978  14.580
 4112SOL    HW114175   9.334   6.037  14.517
 4112SOL    HW214176   9.362   6.021  14.665
 4113SOL     OW14177  10.165  11.870   6.308
 4113SOL    HW114178  10.174  11.881   6.214
 4113SOL    HW214179  10.072  11.889   6.326
 4114SOL     OW14180  11.425  12.041  10.879
 4114SOL    HW114181  11.429  12.080  10.966
 4114SOL    HW214182  11.515  12.013  10.862
 4115SOL     OW14183   7.189   1.565   3.286
 4115SOL    HW114184   7.142   1.482   3.295
 4115SOL    HW214185   7.207   1.571   3.192
 4116SOL     OW14186   9.838   2.405   2.312
 4116SOL    HW114187   9.881   2.456   2.243
 4116SOL    HW214188   9.909   2.354   2.352
 4117SOL     OW14189  11.645  11.834   7.910
 4117SOL    HW114190  11.681  11.920   7.889
 4117SOL    HW214191  11.577  11.851   7.976
 4118SOL     OW14192  10.274  12.011   0.130
 4118SOL    HW114193  10.237  12.057   0.206
 4118SOL    HW214194  10.362  11.986   0.158
 4119SOL     OW14195   9.926  12.847   2.107
 4119SOL    HW114196   9.894  12.803   2.185
 4119SOL    HW214197   9.859  12.912   2.086
 4120SOL     OW14198   4.919  11.863  14.185
 4120SOL    HW114199   4.986  11.929  14.169
 4120SOL    HW214200   4.956  11.806  14.252
 4121SOL     OW14201  13.604   4.708  13.669
 4121SOL    HW114202  13.508   4.700  13.661
 4121SOL    HW214203  13.623   4.795  13.634
 4122SOL     OW14204   7.630   4.663   1.251
 4122SOL    HW114205   7.674   4.697   1.172
 4122SOL    HW214206   7.655   4.571   1.254
 4123SOL     OW14207   4.477   0.176  11.603
 4123SOL    HW114208   4.515   0.099  11.647
 4123SOL    HW214209   4.390   0.147  11.575
 4124SOL     OW14210  12.078   4.642   8.554
 4124SOL    HW114211  12.091   4.736   8.542
 4124SOL    HW214212  12.166   4.608   8.570
 4125SOL     OW14213   0.344   4.663   7.366
 4125SOL    HW114214   0.303   4.726   7.306
 4125SOL    HW214215   0.354   4.583   7.314
 4126SOL     OW14216  14.797   2.510   4.096
 4126SOL    HW114217  14.744   2.431   4.082
 4126SOL    HW214218  14.872   2.479   4.147
 4127SOL     OW14219   7.531   3.049   4.599
 4127SOL    HW114220   7.588   3.064   4.523
 4127SOL    HW214221   7.588   3.064   4.675
 4128SOL     OW14222   2.212  14.085  10.212
 4128SOL    HW114223   2.140  14.105  10.153
 4128SOL    HW214224   2.226  13.991  10.202
 4129SOL     OW14225  11.036  11.094   9.680
 4129SOL    HW114226  10.999  11.181   9.690
 4129SOL    HW214227  11.100  11.103   9.609
 4130SOL     OW14228   6.651  11.995   0.113
 4130SOL    HW114229   6.579  12.025   0.058
 4130SOL    HW214230   6.613  11.925   0.166
 4131SOL     OW14231  12.128   8.030   4.890
 4131SOL    HW114232  12.129   8.090   4.964
 4131SOL    HW214233  12.147   7.944   4.927
 4132SOL     OW14234   3.713  13.588   7.567
 4132SOL    HW114235   3.746  13.625   7.485
 4132SOL    HW214236   3.677  13.502   7.542
 4133SOL     OW14237   4.293   9.356   7.867
 4133SOL    HW114238   4.243   9.275   7.854
 4133SOL    HW214239   4.385   9.328   7.865
 4134SOL     OW14240   4.843  13.862   2.819
 4134SOL    HW114241   4.786  13.830   2.750
 4134SOL    HW214242   4.784  13.896   2.886
 4135SOL     OW14243   6.352  10.596   5.307
 4135SOL    HW114244   6.386  10.614   5.394
 4135SOL    HW214245   6.268  10.642   5.304
 4136SOL     OW14246   3.177  14.088   3.172
 4136SOL    HW114247   3.201  14.086   3.264
 4136SOL    HW214248   3.168  13.996   3.147
 4137SOL     OW14249  13.107  11.316   8.763
 4137SOL    HW114250  13.199  11.305   8.740
 4137SOL    HW214251  13.106  11.316   8.859
 4138SOL     OW14252   0.158   0.576  11.919
 4138SOL    HW114253   0.140   0.526  11.999
 4138SOL    HW214254   0.248   0.553  11.897
 4139SOL     OW14255   9.787  14.762   7.589
 4139SOL    HW114256   9.730  14.834   7.617
 4139SOL    HW214257   9.875  14.799   7.590
 4140SOL     OW14258   0.449   1.522   0.010
 4140SOL    HW114259   0.517   1.484   0.066
 4140SOL    HW214260   0.408   1.589   0.066
 4141SOL     OW14261  12.028   8.120  13.332
 4141SOL    HW114262  12.104   8.177  13.322
 4141SOL    HW214263  12.001   8.100  13.242
 4142SOL     OW14264   4.212  11.299  10.107
 4142SOL    HW114265   4.252  11.375  10.064
 4142SOL    HW214266   4.258  11.224  10.071
 4143SOL     OW14267   2.563   5.272   1.921
 4143SOL    HW114268   2.623   5.279   1.996
 4143SOL    HW214269   2.585   5.347   1.866
 4144SOL     OW14270  10.349   7.480  11.146
 4144SOL    HW114271  10.286   7.527  11.199
 4144SOL    HW214272  10.369   7.401  11.197
 4145SOL     OW14273  13.258   9.665  13.323
 4145SOL    HW114274  13.285   9.605  13.254
 4145SOL    HW214275  13.169   9.693  13.298
 4146SOL     OW14276   0.837   4.417   9.327
 4146SOL    HW114277   0.801   4.496   9.287
 4146SOL    HW214278   0.931   4.422   9.310
 4147SOL     OW14279  10.393  12.723  11.708
 4147SOL    HW114280  10.414  12.652  11.769
 4147SOL    HW214281  10.372  12.679  11.626
 4148SOL     OW14282  13.688  10.873   6.793
 4148SOL    HW114283  13.709  10.788   6.832
 4148SOL    HW214284  13.773  10.911   6.771
 4149SOL     OW14285  11.510   4.921  14.473
 4149SOL    HW114286  11.601   4.951  14.475
 4149SOL    HW214287  11.473   4.960  14.394
 4150SOL     OW14288   9.848   2.643   1.117
 4150SOL    HW114289   9.837   2.729   1.079
 4150SOL    HW214290   9.831   2.582   1.046
 4151SOL     OW14291   9.008   7.825   4.693
 4151SOL    HW114292   8.944   7.889   4.663
 4151SOL    HW214293   8.957   7.765   4.748
 4152SOL     OW14294   1.804   5.623   4.163
 4152SOL    HW114295   1.740   5.692   4.181
 4152SOL    HW214296   1.875   5.638   4.225
 4153SOL     OW14297   5.403  10.623   5.543
 4153SOL    HW114298   5.346  10.568   5.489
 4153SOL    HW214299   5.414  10.572   5.624
 4154SOL     OW14300   0.581   1.255   2.562
 4154SOL    HW114301   0.572   1.202   2.641
 4154SOL    HW214302   0.660   1.307   2.577
 4155SOL     OW14303  10.059   5.410   3.265
 4155SOL    HW114304  10.020   5.436   3.182
 4155SOL    HW214305   9.985   5.402   3.326
 4156SOL     OW14306   0.658  14.431  12.099
 4156SOL    HW114307   0.709  14.358  12.136
 4156SOL    HW214308   0.610  14.466  12.174
 4157SOL     OW14309   8.036  14.761  10.549
 4157SOL    HW114310   8.012  14.851  10.525
 4157SOL    HW214311   8.031  14.712  10.467
 4158SOL     OW14312  14.561  14.334   4.672
 4158SOL    HW114313  14.497  14.270   4.702
 4158SOL    HW214314  14.593  14.377   4.751
 4159SOL     OW14315   1.536   9.417   6.406
 4159SOL    HW114316   1.487   9.479   6.460
 4159SOL    HW214317   1.580   9.360   6.470
 4160SOL     OW14318  14.801  14.529   9.883
 4160SOL    HW114319  14.722  14.558   9.838
 4160SOL    HW214320  14.872  14.552   9.823
 4161SOL     OW14321   1.872   4.157  13.278
 4161SOL    HW114322   1.953   4.167  13.229
 4161SOL    HW214323   1.804   4.149  13.211
 4162SOL     OW14324  10.603   3.501  13.270
 4162SOL    HW114325  10.612   3.523  13.362
 4162SOL    HW214326  10.518   3.458  13.263
 4163SOL     OW14327   3.428   1.843  14.767
 4163SOL    HW114328   3.384   1.807  14.690
 4163SOL    HW214329   3.480   1.770  14.801
 4164SOL     OW14330  13.142   6.988   1.277
 4164SOL    HW114331  13.066   7.026   1.321
 4164SOL    HW214332  13.150   6.901   1.316
 4165SOL     OW14333   4.597  12.193   7.868
 4165SOL    HW114334   4.606  12.231   7.781
 4165SOL    HW214335   4.682  12.152   7.885
 4166SOL     OW14336   4.014   9.518  12.124
 4166SOL    HW114337   3.957   9.561  12.188
 4166SOL    HW214338   4.038   9.587  12.063
 4167SOL     OW14339  10.820   8.671   2.130
 4167SOL    HW114340  10.840   8.650   2.221
 4167SOL    HW214341  10.792   8.589   2.091
 4168SOL     OW14342   9.806  13.489   1.974
 4168SOL    HW114343   9.791  13.461   1.883
 4168SOL    HW214344   9.890  13.535   1.971
 4169SOL     OW14345   7.484   2.370   7.112
 4169SOL    HW114346   7.531   2.381   7.029
 4169SOL    HW214347   7.526   2.294   7.153
 4170SOL     OW14348   3.446  11.399   4.380
 4170SOL    HW114349   3.483  11.367   4.462
 4170SOL    HW214350   3.522  11.414   4.323
 4171SOL     OW14351  10.481  11.896   9.414
 4171SOL    HW114352  10.574  11.879   9.428
 4171SOL    HW214353  10.468  11.881   9.320
 4172SOL     OW14354  14.157  14.716  14.338
 4172SOL    HW114355  14.180  14.801  14.302
 4172SOL    HW214356  14.074  14.731  14.384
 4173SOL     OW14357   0.452   4.831  12.235
 4173SOL    HW114358   0.511   4.791  12.299
 4173SOL    HW214359   0.365   4.802  12.262
 4174SOL     OW14360  13.798   2.517   6.817
 4174SOL    HW114361  13.754   2.587   6.865
 4174SOL    HW214362  13.879   2.556   6.785
 4175SOL     OW14363  11.669   4.693  11.141
 4175SOL    HW114364  11.699   4.763  11.199
 4175SOL    HW214365  11.631   4.627  11.199
 4176SOL     OW14366  13.091   6.951  10.844
 4176SOL    HW114367  13.148   7.002  10.788
 4176SOL    HW214368  13.134   6.866  10.852
 4177SOL     OW14369   1.767   4.174   6.634
 4177SOL    HW114370   1.829   4.114   6.592
 4177SOL    HW214371   1.821   4.235   6.683
 4178SOL     OW14372   6.487  11.704  12.594
 4178SOL    HW114373   6.416  11.765  12.576
 4178SOL    HW214374   6.565  11.759  12.603
 4179SOL     OW14375   2.523  11.268   8.436
 4179SOL    HW114376   2.583  11.234   8.503
 4179SOL    HW214377   2.532  11.208   8.363
 4180SOL     OW14378   3.783  14.660   7.547
 4180SOL    HW114379   3.776  14.586   7.607
 4180SOL    HW214380   3.802  14.620   7.462
 4181SOL     OW14381   4.274   9.162  13.809
 4181SOL    HW114382   4.267   9.115  13.892
 4181SOL    HW214383   4.326   9.105  13.754
 4182SOL     OW14384  13.524   5.712   9.153
 4182SOL    HW114385  13.612   5.750   9.160
 4182SOL    HW214386  13.519   5.649   9.225
 4183SOL     OW14387   3.368   3.810   1.259
 4183SOL    HW114388   3.290   3.824   1.312
 4183SOL    HW214389   3.441   3.813   1.322
 4184SOL     OW14390   2.202   7.686   6.330
 4184SOL    HW114391   2.264   7.718   6.265
 4184SOL    HW214392   2.241   7.709   6.414
 4185SOL     OW14393  14.003   7.283   3.957
 4185SOL    HW114394  14.034   7.307   3.870
 4185SOL    HW214395  13.952   7.203   3.944
 4186SOL     OW14396  11.756  14.771   6.324
 4186SOL    HW114397  11.777  14.791   6.233
 4186SOL    HW214398  11.800  14.839   6.375
 4187SOL     OW14399   6.440   4.469  11.292
 4187SOL    HW114400   6.396   4.553  11.281
 4187SOL    HW214401   6.390   4.424  11.360
 4188SOL     OW14402  11.412   0.243   6.990
 4188SOL    HW114403  11.448   0.305   6.926
 4188SOL    HW214404  11.370   0.299   7.056
 4189SOL     OW14405  13.624  12.539  11.016
 4189SOL    HW114406  13.701  12.492  11.049
 4189SOL    HW214407  13.656  12.628  10.999
 4190SOL     OW14408  14.228  14.307   6.202
 4190SOL    HW114409  14.212  14.317   6.108
 4190SOL    HW214410  14.185  14.383   6.241
 4191SOL     OW14411   6.863   2.648   4.674
 4191SOL    HW114412   6.860   2.554   4.659
 4191SOL    HW214413   6.937   2.678   4.620
 4192SOL     OW14414  10.606  12.275   4.940
 4192SOL    HW114415  10.517  12.279   4.974
 4192SOL    HW214416  10.598  12.303   4.849
 4193SOL     OW14417   5.833   3.900   4.306
 4193SOL    HW114418   5.865   3.988   4.325
 4193SOL    HW214419   5.909   3.853   4.271
 4194SOL     OW14420  14.720  14.253   7.363
 4194SOL    HW114421  14.718  14.299   7.446
 4194SOL    HW214422  14.729  14.161   7.387
 4195SOL     OW14423   1.518  10.865   2.134
 4195SOL    HW114424   1.493  10.875   2.042
 4195SOL    HW214425   1.526  10.771   2.147
 4196SOL     OW14426  10.924  14.010  13.217
 4196SOL    HW114427  10.934  13.948  13.289
 4196SOL    HW214428  10.952  13.962  13.140
 4197SOL     OW14429   6.170   2.426   2.294
 4197SOL    HW114430   6.251   2.387   2.327
 4197SOL    HW214431   6.146   2.489   2.361
 4198SOL     OW14432   5.627   2.905   6.198
 4198SOL    HW114433   5.601   2.884   6.109
 4198SOL    HW214434   5.583   2.838   6.252
 4199SOL     OW14435   2.189  12.896   2.190
 4199SOL    HW114436   2.150  12.932   2.270
 4199SOL    HW214437   2.240  12.821   2.221
 4200SOL     OW14438   9.164   8.622   0.798
 4200SOL    HW114439   9.126   8.710   0.789
 4200SOL    HW214440   9.187   8.615   0.890
 4201SOL     OW14441   1.448   7.726   4.396
 4201SOL    HW114442   1.445   7.657   4.330
 4201SOL    HW214443   1.541   7.747   4.404
 4202SOL     OW14444   1.303   0.480  13.446
 4202SOL    HW114445   1.373   0.438  13.396
 4202SOL    HW214446   1.296   0.567  13.408
 4203SOL     OW14447  13.222  10.858   1.962
 4203SOL    HW114448  13.273  10.778   1.980
 4203SOL    HW214449  13.209  10.857   1.867
 4204SOL     OW14450  10.241  12.929   4.809
 4204SOL    HW114451  10.324  12.972   4.788
 4204SOL    HW214452  10.193  12.927   4.726
 4205SOL     OW14453   0.508   8.664  11.537
 4205SOL    HW114454   0.576   8.682  11.472
 4205SOL    HW214455   0.510   8.740  11.596
 4206SOL     OW14456  14.450  11.120  14.679
 4206SOL    HW114457  14.536  11.095  14.648
 4206SOL    HW214458  14.391  11.099  14.607
 4207SOL     OW14459   0.337   5.022   0.808
 4207SOL    HW114460   0.250   5.058   0.825
 4207SOL    HW214461   0.397   5.086   0.845
 4208SOL     OW14462  10.308   8.328   0.283
 4208SOL    HW114463  10.266   8.271   0.219
 4208SOL    HW214464  10.281   8.416   0.258
 4209SOL     OW14465   5.621   7.098   9.352
 4209SOL    HW114466   5.576   7.162   9.406
 4209SOL    HW214467   5.699   7.075   9.402
 4210SOL     OW14468  14.045   1.681   5.165
 4210SOL    HW114469  14.048   1.599   5.214
 4210SOL    HW214470  14.114   1.736   5.203
 4211SOL     OW14471   8.725   4.366  10.777
 4211SOL    HW114472   8.774   4.284  10.789
 4211SOL    HW214473   8.748   4.394  10.688
 4212SOL     OW14474   5.088  11.499   1.126
 4212SOL    HW114475   5.130  11.471   1.045
 4212SOL    HW214476   5.001  11.460   1.123
 4213SOL     OW14477  12.477   1.776  10.868
 4213SOL    HW114478  12.439   1.701  10.823
 4213SOL    HW214479  12.485   1.748  10.959
 4214SOL     OW14480  13.747   3.697   6.150
 4214SOL    HW114481  13.654   3.720   6.140
 4214SOL    HW214482  13.754   3.659   6.237
 4215SOL     OW14483   6.906   2.839   2.189
 4215SOL    HW114484   6.887   2.832   2.095
 4215SOL    HW214485   6.970   2.910   2.194
 4216SOL     OW14486   8.928  11.308   6.508
 4216SOL    HW114487   8.936  11.393   6.552
 4216SOL    HW214488   8.999  11.308   6.443
 4217SOL     OW14489  14.471   1.145   7.169
 4217SOL    HW114490  14.520   1.163   7.089
 4217SOL    HW214491  14.410   1.219   7.177
 4218SOL     OW14492   3.107   0.834   7.499
 4218SOL    HW114493   3.145   0.761   7.451
 4218SOL    HW214494   3.160   0.909   7.475
 4219SOL     OW14495  11.425   8.115   1.078
 4219SOL    HW114496  11.506   8.065   1.090
 4219SOL    HW214497  11.394   8.089   0.992
 4220SOL     OW14498   6.257  11.451   3.722
 4220SOL    HW114499   6.196  11.378   3.714
 4220SOL    HW214500   6.324  11.434   3.656
 4221SOL     OW14501  14.754   5.238  12.873
 4221SOL    HW114502  14.760   5.241  12.968
 4221SOL    HW214503  14.803   5.159  12.848
 4222SOL     OW14504   3.892  13.693   5.769
 4222SOL    HW114505   3.857  13.765   5.820
 4222SOL    HW214506   3.976  13.725   5.736
 4223SOL     OW14507   5.953   4.881   2.044
 4223SOL    HW114508   5.967   4.844   2.131
 4223SOL    HW214509   5.887   4.950   2.057
 4224SOL     OW14510   8.704   4.778  12.582
 4224SOL    HW114511   8.630   4.730  12.619
 4224SOL    HW214512   8.766   4.787  12.655
 4225SOL     OW14513   4.550   7.588   5.645
 4225SOL    HW114514   4.584   7.675   5.668
 4225SOL    HW214515   4.461   7.588   5.682
 4226SOL     OW14516  10.534  13.450   3.445
 4226SOL    HW114517  10.502  13.536   3.418
 4226SOL    HW214518  10.569  13.411   3.365
 4227SOL     OW14519  14.122   5.433  10.338
 4227SOL    HW114520  14.059   5.437  10.266
 4227SOL    HW214521  14.084   5.371  10.400
 4228SOL     OW14522  11.460  13.623   4.733
 4228SOL    HW114523  11.537  13.678   4.722
 4228SOL    HW214524  11.461  13.599   4.826
 4229SOL     OW14525  10.639  11.545   0.523
 4229SOL    HW114526  10.643  11.547   0.619
 4229SOL    HW214527  10.604  11.631   0.499
 4230SOL     OW14528   2.102  13.458   3.471
 4230SOL    HW114529   2.163  13.503   3.412
 4230SOL    HW214530   2.133  13.479   3.559
 4231SOL     OW14531  11.317   9.310   8.046
 4231SOL    HW114532  11.231   9.343   8.071
 4231SOL    HW214533  11.318   9.313   7.950
 4232SOL     OW14534   3.977   0.664   2.516
 4232SOL    HW114535   4.041   0.626   2.456
 4232SOL    HW214536   4.027   0.727   2.567
 4233SOL     OW14537  10.040   6.174   0.309
 4233SOL    HW114538  10.056   6.093   0.260
 4233SOL    HW214539  10.021   6.144   0.398
 4234SOL     OW14540   5.607   1.815   7.664
 4234SOL    HW114541   5.611   1.736   7.610
 4234SOL    HW214542   5.516   1.819   7.694
 4235SOL     OW14543   1.585  13.680   2.130
 4235SOL    HW114544   1.582  13.696   2.224
 4235SOL    HW214545   1.594  13.767   2.091
 4236SOL     OW14546  12.534  13.918   4.371
 4236SOL    HW114547  12.501  13.869   4.296
 4236SOL    HW214548  12.596  13.858   4.414
 4237SOL     OW14549   9.834  10.174  13.164
 4237SOL    HW114550   9.844  10.123  13.084
 4237SOL    HW214551   9.872  10.259  13.144
 4238SOL     OW14552   1.900   8.698  11.833
 4238SOL    HW114553   1.962   8.766  11.805
 4238SOL    HW214554   1.821   8.716  11.781
 4239SOL     OW14555   8.741   7.481   2.743
 4239SOL    HW114556   8.699   7.406   2.785
 4239SOL    HW214557   8.717   7.473   2.651
 4240SOL     OW14558  10.198   2.322   7.118
 4240SOL    HW114559  10.289   2.343   7.102
 4240SOL    HW214560  10.149   2.396   7.082
 4241SOL     OW14561   2.490   0.285   9.881
 4241SOL    HW114562   2.438   0.205   9.871
 4241SOL    HW214563   2.478   0.332   9.798
 4242SOL     OW14564   2.759   0.566   5.220
 4242SOL    HW114565   2.854   0.576   5.227
 4242SOL    HW214566   2.741   0.483   5.264
 4243SOL     OW14567  11.793   3.925  12.196
 4243SOL    HW114568  11.724   3.858  12.201
 4243SOL    HW214569  11.805   3.939  12.103
 4244SOL     OW14570   5.465   4.241   7.594
 4244SOL    HW114571   5.437   4.305   7.529
 4244SOL    HW214572   5.492   4.295   7.669
 4245SOL     OW14573  13.739   1.384   8.512
 4245SOL    HW114574  13.716   1.472   8.542
 4245SOL    HW214575  13.658   1.334   8.520
 4246SOL     OW14576  14.129  13.738   2.055
 4246SOL    HW114577  14.193  13.795   2.011
 4246SOL    HW214578  14.063  13.720   1.988
 4247SOL     OW14579   7.677   2.253   3.928
 4247SOL    HW114580   7.750   2.234   3.986
 4247SOL    HW214581   7.599   2.233   3.980
 4248SOL     OW14582   6.097   8.755   3.992
 4248SOL    HW114583   6.161   8.712   4.049
 4248SOL    HW214584   6.039   8.802   4.052
 4249SOL     OW14585  12.186  13.810   9.130
 4249SOL    HW114586  12.163  13.718   9.123
 4249SOL    HW214587  12.216  13.835   9.042
 4250SOL     OW14588   0.376   0.624   8.038
 4250SOL    HW114589   0.361   0.597   7.947
 4250SOL    HW214590   0.299   0.677   8.060
 4251SOL     OW14591   2.354   7.153  11.964
 4251SOL    HW114592   2.302   7.167  11.885
 4251SOL    HW214593   2.403   7.234  11.975
 4252SOL     OW14594   8.172   8.766  12.714
 4252SOL    HW114595   8.255   8.813  12.726
 4252SOL    HW214596   8.148   8.784  12.623
 4253SOL     OW14597   0.812   0.173   8.637
 4253SOL    HW114598   0.843   0.096   8.589
 4253SOL    HW214599   0.765   0.225   8.572
 4254SOL     OW14600   0.143   7.909   4.621
 4254SOL    HW114601   0.132   7.995   4.660
 4254SOL    HW214602   0.058   7.867   4.629
 4255SOL     OW14603   0.548   0.935   4.277
 4255SOL    HW114604   0.521   0.845   4.261
 4255SOL    HW214605   0.549   0.944   4.373
 4256SOL     OW14606   7.489  11.421   9.966
 4256SOL    HW114607   7.478  11.326   9.973
 4256SOL    HW214608   7.535  11.446  10.046
 4257SOL     OW14609   7.389  12.455   4.237
 4257SOL    HW114610   7.450  12.518   4.276
 4257SOL    HW214611   7.420  12.445   4.147
 4258SOL     OW14612   2.874  10.369   3.581
 4258SOL    HW114613   2.924  10.399   3.505
 4258SOL    HW214614   2.928  10.392   3.657
 4259SOL     OW14615   9.738   0.107  10.944
 4259SOL    HW114616   9.651   0.069  10.928
 4259SOL    HW214617   9.768   0.136  10.858
 4260SOL     OW14618   6.735   8.989   5.909
 4260SOL    HW114619   6.718   9.067   5.856
 4260SOL    HW214620   6.814   9.011   5.959
 4261SOL     OW14621   6.762   2.809   5.448
 4261SOL    HW114622   6.781   2.809   5.542
 4261SOL    HW214623   6.847   2.821   5.406
 4262SOL     OW14624   6.416  11.039  14.415
 4262SOL    HW114625   6.343  11.063  14.358
 4262SOL    HW214626   6.493  11.077  14.374
 4263SOL     OW14627   3.478  11.042   0.262
 4263SOL    HW114628   3.426  11.003   0.192
 4263SOL    HW214629   3.414  11.068   0.328
 4264SOL     OW14630   8.494  10.173   9.220
 4264SOL    HW114631   8.421  10.115   9.200
 4264SOL    HW214632   8.454  10.259   9.231
 4265SOL     OW14633   0.967   9.888  11.222
 4265SOL    HW114634   0.964   9.931  11.136
 4265SOL    HW214635   0.919   9.947  11.280
 4266SOL     OW14636   2.127   4.132  13.496
 4266SOL    HW114637   2.199   4.194  13.484
 4266SOL    HW214638   2.138   4.068  13.425
 4267SOL     OW14639  13.887   4.120  12.394
 4267SOL    HW114640  13.829   4.180  12.441
 4267SOL    HW214641  13.974   4.139  12.428
 4268SOL     OW14642  10.228  14.321   2.094
 4268SOL    HW114643  10.160  14.315   2.027
 4268SOL    HW214644  10.184  14.358   2.171
 4269SOL     OW14645  10.661   8.930  10.875
 4269SOL    HW114646  10.747   8.896  10.850
 4269SOL    HW214647  10.652   8.907  10.967
 4270SOL     OW14648   7.206   2.775   7.296
 4270SOL    HW114649   7.207   2.869   7.282
 4270SOL    HW214650   7.252   2.739   7.220
 4271SOL     OW14651   4.786  11.575   6.017
 4271SOL    HW114652   4.828  11.498   5.979
 4271SOL    HW214653   4.724  11.539   6.081
 4272SOL     OW14654   2.764   5.054   7.101
 4272SOL    HW114655   2.741   5.147   7.108
 4272SOL    HW214656   2.732   5.015   7.182
 4273SOL     OW14657   9.604   0.726  14.653
 4273SOL    HW114658   9.593   0.641  14.611
 4273SOL    HW214659   9.694   0.726  14.684
 4274SOL     OW14660  10.863   7.963   7.909
 4274SOL    HW114661  10.922   7.902   7.952
 4274SOL    HW214662  10.826   7.912   7.836
 4275SOL     OW14663   0.922   0.878   4.840
 4275SOL    HW114664   1.006   0.922   4.834
 4275SOL    HW214665   0.887   0.903   4.925
 4276SOL     OW14666   9.063  11.182   4.729
 4276SOL    HW114667   9.119  11.207   4.655
 4276SOL    HW214668   9.090  11.240   4.800
 4277SOL     OW14669  13.988   8.068   5.666
 4277SOL    HW114670  13.949   8.138   5.615
 4277SOL    HW214671  13.931   7.992   5.652
 4278SOL     OW14672  10.019  11.121   2.092
 4278SOL    HW114673   9.969  11.197   2.060
 4278SOL    HW214674  10.003  11.120   2.186
 4279SOL     OW14675   2.292   9.999   4.577
 4279SOL    HW114676   2.281  10.074   4.635
 4279SOL    HW214677   2.378   9.964   4.599
 4280SOL     OW14678  10.601   6.354   5.933
 4280SOL    HW114679  10.630   6.274   5.890
 4280SOL    HW214680  10.646   6.424   5.887
 4281SOL     OW14681  12.236   1.900   6.741
 4281SOL    HW114682  12.166   1.908   6.675
 4281SOL    HW214683  12.236   1.808   6.764
 4282SOL     OW14684   5.757  11.330   5.318
 4282SOL    HW114685   5.722  11.278   5.245
 4282SOL    HW214686   5.742  11.421   5.292
 4283SOL     OW14687   7.055   7.652   7.317
 4283SOL    HW114688   7.032   7.691   7.401
 4283SOL    HW214689   7.137   7.606   7.333
 4284SOL     OW14690   6.604   6.476  14.519
 4284SOL    HW114691   6.678   6.430  14.558
 4284SOL    HW214692   6.631   6.491  14.428
 4285SOL     OW14693  13.754   6.121   9.827
 4285SOL    HW114694  13.844   6.114   9.858
 4285SOL    HW214695  13.734   6.036   9.789
 4286SOL     OW14696  13.943   9.717   3.003
 4286SOL    HW114697  13.956   9.638   3.055
 4286SOL    HW214698  14.030   9.755   2.993
 4287SOL     OW14699   0.098   0.792   9.735
 4287SOL    HW114700   0.070   0.762   9.822
 4287SOL    HW214701   0.081   0.886   9.736
 4288SOL     OW14702   5.072   2.081  10.812
 4288SOL    HW114703   5.017   2.095  10.889
 4288SOL    HW214704   5.051   1.992  10.783
 4289SOL     OW14705   9.896   0.045   0.586
 4289SOL    HW114706   9.953   0.119   0.564
 4289SOL    HW214707   9.810   0.085   0.601
 4290SOL     OW14708  13.879  14.231   9.670
 4290SOL    HW114709  13.946  14.176   9.710
 4290SOL    HW214710  13.801  14.217   9.724
 4291SOL     OW14711  13.994  14.787   8.757
 4291SOL    HW114712  13.913  14.806   8.711
 4291SOL    HW214713  14.047  14.866   8.746
 4292SOL     OW14714   5.681   1.995   6.843
 4292SOL    HW114715   5.680   2.084   6.809
 4292SOL    HW214716   5.767   1.985   6.882
 4293SOL     OW14717   3.418   3.776  11.838
 4293SOL    HW114718   3.327   3.804  11.827
 4293SOL    HW214719   3.459   3.849  11.885
 4294SOL     OW14720  11.111   3.247   4.743
 4294SOL    HW114721  11.054   3.195   4.687
 4294SOL    HW214722  11.082   3.229   4.832
 4295SOL     OW14723   5.301  13.205   8.617
 4295SOL    HW114724   5.388  13.236   8.643
 4295SOL    HW214725   5.285  13.247   8.532
 4296SOL     OW14726  11.242   6.998   8.539
 4296SOL    HW114727  11.245   7.093   8.530
 4296SOL    HW214728  11.203   6.967   8.457
 4297SOL     OW14729  10.140   0.222  10.568
 4297SOL    HW114730  10.158   0.259  10.482
 4297SOL    HW214731  10.206   0.154  10.580
 4298SOL     OW14732  11.764   7.430   4.459
 4298SOL    HW114733  11.684   7.457   4.504
 4298SOL    HW214734  11.734   7.386   4.379
 4299SOL     OW14735  12.663  13.845  10.496
 4299SOL    HW114736  12.629  13.759  10.470
 4299SOL    HW214737  12.700  13.881  10.415
 4300SOL     OW14738  11.694  10.834   6.520
 4300SOL    HW114739  11.648  10.793   6.447
 4300SOL    HW214740  11.772  10.872   6.482
 4301SOL     OW14741   5.948  13.436  13.345
 4301SOL    HW114742   5.886  13.428  13.273
 4301SOL    HW214743   6.030  13.399  13.312
 4302SOL     OW14744  11.734   2.985  14.499
 4302SOL    HW114745  11.720   3.074  14.467
 4302SOL    HW214746  11.726   2.930  14.421
 4303SOL     OW14747   9.527   4.342  10.523
 4303SOL    HW114748   9.483   4.411  10.572
 4303SOL    HW214749   9.459   4.276  10.508
 4304SOL     OW14750  13.796   7.402   8.283
 4304SOL    HW114751  13.820   7.353   8.204
 4304SOL    HW214752  13.796   7.494   8.254
 4305SOL     OW14753   6.261   1.325  12.747
 4305SOL    HW114754   6.322   1.369  12.807
 4305SOL    HW214755   6.308   1.248  12.716
 4306SOL     OW14756   0.011  10.699   1.411
 4306SOL    HW114757  14.797  10.663   1.397
 4306SOL    HW214758   0.036  10.669   1.498
 4307SOL     OW14759   2.072   9.945   7.032
 4307SOL    HW114760   1.993   9.905   7.068
 4307SOL    HW214761   2.058  10.039   7.042
 4308SOL     OW14762  12.740  11.072   3.370
 4308SOL    HW114763  12.692  11.017   3.432
 4308SOL    HW214764  12.729  11.028   3.285
 4309SOL     OW14765   7.469   1.821   8.397
 4309SOL    HW114766   7.437   1.740   8.435
 4309SOL    HW214767   7.502   1.796   8.311
 4310SOL     OW14768   3.590   7.228   3.281
 4310SOL    HW114769   3.523   7.174   3.237
 4310SOL    HW214770   3.575   7.213   3.374
 4311SOL     OW14771  12.553   5.856  12.341
 4311SOL    HW114772  12.636   5.895  12.312
 4311SOL    HW214773  12.559   5.856  12.437
 4312SOL     OW14774  12.092  13.350   3.851
 4312SOL    HW114775  12.026  13.383   3.790
 4312SOL    HW214776  12.083  13.405   3.929
 4313SOL     OW14777  12.113  12.631   8.575
 4313SOL    HW114778  12.145  12.710   8.620
 4313SOL    HW214779  12.192  12.582   8.553
 4314SOL     OW14780  11.545   0.154   9.340
 4314SOL    HW114781  11.471   0.215   9.327
 4314SOL    HW214782  11.513   0.071   9.307
 4315SOL     OW14783  10.741   9.208   6.406
 4315SOL    HW114784  10.782   9.284   6.365
 4315SOL    HW214785  10.735   9.143   6.336
 4316SOL     OW14786  13.057   2.849   4.908
 4316SOL    HW114787  12.989   2.915   4.893
 4316SOL    HW214788  13.088   2.826   4.821
 4317SOL     OW14789   5.909  13.147   2.325
 4317SOL    HW114790   5.905  13.081   2.256
 4317SOL    HW214791   6.001  13.148   2.352
 4318SOL     OW14792   8.500   2.777   4.627
 4318SOL    HW114793   8.480   2.754   4.718
 4318SOL    HW214794   8.549   2.859   4.633
 4319SOL     OW14795   9.907   2.728  10.409
 4319SOL    HW114796   9.824   2.775  10.399
 4319SOL    HW214797   9.944   2.762  10.491
 4320SOL     OW14798   2.001  10.803  13.216
 4320SOL    HW114799   2.035  10.785  13.128
 4320SOL    HW214800   1.979  10.717  13.252
 4321SOL     OW14801   7.210   9.108   7.423
 4321SOL    HW114802   7.142   9.068   7.370
 4321SOL    HW214803   7.290   9.058   7.402
 4322SOL     OW14804   3.454  10.935   9.568
 4322SOL    HW114805   3.387  10.974   9.625
 4322SOL    HW214806   3.420  10.847   9.549
 4323SOL     OW14807   6.232  14.542   9.540
 4323SOL    HW114808   6.142  14.515   9.559
 4323SOL    HW214809   6.281  14.519   9.619
 4324SOL     OW14810  12.876   8.628   4.241
 4324SOL    HW114811  12.858   8.534   4.242
 4324SOL    HW214812  12.810   8.664   4.183
 4325SOL     OW14813  11.843  12.618  14.147
 4325SOL    HW114814  11.928  12.655  14.124
 4325SOL    HW214815  11.786  12.694  14.157
 4326SOL     OW14816   9.857  13.205   8.355
 4326SOL    HW114817   9.813  13.227   8.274
 4326SOL    HW214818   9.897  13.120   8.338
 4327SOL     OW14819   1.045   6.890  12.198
 4327SOL    HW114820   1.112   6.954  12.176
 4327SOL    HW214821   0.999   6.928  12.273
 4328SOL     OW14822   7.260   0.268   1.947
 4328SOL    HW114823   7.250   0.263   1.852
 4328SOL    HW214824   7.242   0.359   1.969
 4329SOL     OW14825   7.515   2.008  11.634
 4329SOL    HW114826   7.502   1.933  11.692
 4329SOL    HW214827   7.610   2.018  11.629
 4330SOL     OW14828  11.868   3.771   8.383
 4330SOL    HW114829  11.895   3.727   8.464
 4330SOL    HW214830  11.779   3.739   8.368
 4331SOL     OW14831   9.846   8.713   2.411
 4331SOL    HW114832   9.845   8.808   2.403
 4331SOL    HW214833   9.774   8.683   2.356
 4332SOL     OW14834   1.552  11.049   3.190
 4332SOL    HW114835   1.535  10.992   3.265
 4332SOL    HW214836   1.598  11.124   3.226
 4333SOL     OW14837   1.717   2.151   7.763
 4333SOL    HW114838   1.742   2.214   7.695
 4333SOL    HW214839   1.624   2.166   7.777
 4334SOL     OW14840   4.255   5.742   9.432
 4334SOL    HW114841   4.218   5.812   9.487
 4334SOL    HW214842   4.274   5.785   9.349
 4335SOL     OW14843   8.403   1.041   2.164
 4335SOL    HW114844   8.399   1.084   2.250
 4335SOL    HW214845   8.435   0.953   2.182
 4336SOL     OW14846  12.098   1.127   8.546
 4336SOL    HW114847  12.153   1.109   8.470
 4336SOL    HW214848  12.063   1.041   8.571
 4337SOL     OW14849   5.056  12.225   3.900
 4337SOL    HW114850   4.979  12.259   3.855
 4337SOL    HW214851   5.096  12.166   3.837
 4338SOL     OW14852   2.006  11.738   4.725
 4338SOL    HW114853   2.083  11.736   4.669
 4338SOL    HW214854   2.010  11.823   4.769
 4339SOL     OW14855  11.928   9.002   0.989
 4339SOL    HW114856  11.907   9.085   1.033
 4339SOL    HW214857  11.842   8.963   0.972
 4340SOL     OW14858   8.877   5.843   0.590
 4340SOL    HW114859   8.913   5.759   0.561
 4340SOL    HW214860   8.928   5.908   0.541
 4341SOL     OW14861  14.001  14.475  13.104
 4341SOL    HW114862  14.006  14.549  13.164
 4341SOL    HW214863  13.951  14.408  13.151
 4342SOL     OW14864   5.295   0.628   0.871
 4342SOL    HW114865   5.263   0.565   0.807
 4342SOL    HW214866   5.390   0.622   0.866
 4343SOL     OW14867   6.613   7.849  13.805
 4343SOL    HW114868   6.565   7.906  13.865
 4343SOL    HW214869   6.591   7.760  13.835
 4344SOL     OW14870  13.690   6.677   8.385
 4344SOL    HW114871  13.709   6.766   8.354
 4344SOL    HW214872  13.692   6.623   8.306
 4345SOL     OW14873  10.172   2.651  10.880
 4345SOL    HW114874  10.101   2.600  10.841
 4345SOL    HW214875  10.154   2.741  10.853
 4346SOL     OW14876  13.014   0.549  10.984
 4346SOL    HW114877  13.010   0.468  11.035
 4346SOL    HW214878  13.031   0.519  10.894
 4347SOL     OW14879  10.082   1.868   9.457
 4347SOL    HW114880  10.094   1.929   9.383
 4347SOL    HW214881  10.013   1.909   9.510
 4348SOL     OW14882  10.548   9.238  11.898
 4348SOL    HW114883  10.466   9.217  11.854
 4348SOL    HW214884  10.569   9.326  11.868
 4349SOL     OW14885   3.246   1.483  13.654
 4349SOL    HW114886   3.248   1.406  13.596
 4349SOL    HW214887   3.174   1.536  13.620
 4350SOL     OW14888  13.955   2.404  11.468
 4350SOL    HW114889  13.922   2.315  11.485
 4350SOL    HW214890  13.877   2.460  11.477
 4351SOL     OW14891   5.133  11.501   4.888
 4351SOL    HW114892   5.053  11.486   4.837
 4351SOL    HW214893   5.201  11.512   4.822
 4352SOL     OW14894   0.532   4.158   7.331
 4352SOL    HW114895   0.567   4.075   7.298
 4352SOL    HW214896   0.442   4.138   7.358
 4353SOL     OW14897   7.233   1.785   6.515
 4353SOL    HW114898   7.277   1.776   6.600
 4353SOL    HW214899   7.229   1.879   6.500
 4354SOL     OW14900   4.422  10.841   1.958
 4354SOL    HW114901   4.466  10.890   1.889
 4354SOL    HW214902   4.474  10.859   2.037
 4355SOL     OW14903   6.370  10.913   0.088
 4355SOL    HW114904   6.279  10.941   0.088
 4355SOL    HW214905   6.378  10.859   0.009
 4356SOL     OW14906   6.729   1.468   7.700
 4356SOL    HW114907   6.669   1.417   7.645
 4356SOL    HW214908   6.676   1.540   7.732
 4357SOL     OW14909   4.873  12.486   4.776
 4357SOL    HW114910   4.893  12.426   4.848
 4357SOL    HW214911   4.862  12.429   4.700
 4358SOL     OW14912   1.204   9.252   6.630
 4358SOL    HW114913   1.140   9.320   6.650
 4358SOL    HW214914   1.264   9.294   6.568
 4359SOL     OW14915   2.853   8.349   0.343
 4359SOL    HW114916   2.832   8.421   0.402
 4359SOL    HW214917   2.851   8.271   0.398
 4360SOL     OW14918   1.183   7.087   2.493
 4360SOL    HW114919   1.261   7.136   2.465
 4360SOL    HW214920   1.115   7.154   2.500
 4361SOL     OW14921   9.490  13.346   7.601
 4361SOL    HW114922   9.532  13.380   7.522
 4361SOL    HW214923   9.476  13.253   7.582
 4362SOL     OW14924   3.197   5.852   5.564
 4362SOL    HW114925   3.251   5.914   5.515
 4362SOL    HW214926   3.116   5.845   5.513
 4363SOL     OW14927  10.231   3.251   7.006
 4363SOL    HW114928  10.188   3.255   6.921
 4363SOL    HW214929  10.173   3.299   7.065
 4364SOL     OW14930   1.576   1.347  14.823
 4364SOL    HW114931   1.578   1.415   0.016
 4364SOL    HW214932   1.635   1.378  14.755
 4365SOL     OW14933   0.008  12.774   5.817
 4365SOL    HW114934  14.820  12.746   5.750
 4365SOL    HW214935   0.051  12.692   5.845
 4366SOL     OW14936   9.797   0.322  11.997
 4366SOL    HW114937   9.886   0.326  12.030
 4366SOL    HW214938   9.805   0.290  11.907
 4367SOL     OW14939   9.268   1.068   6.454
 4367SOL    HW114940   9.293   0.991   6.505
 4367SOL    HW214941   9.322   1.139   6.490
 4368SOL     OW14942   2.071   2.790  10.844
 4368SOL    HW114943   2.015   2.757  10.914
 4368SOL    HW214944   2.021   2.860  10.803
 4369SOL     OW14945   8.884   1.807   6.120
 4369SOL    HW114946   8.819   1.784   6.187
 4369SOL    HW214947   8.944   1.733   6.119
 4370SOL     OW14948   5.829  13.964   8.149
 4370SOL    HW114949   5.903  13.910   8.121
 4370SOL    HW214950   5.801  13.925   8.232
 4371SOL     OW14951   6.477   7.049   6.050
 4371SOL    HW114952   6.408   7.080   6.109
 4371SOL    HW214953   6.554   7.099   6.075
 4372SOL     OW14954   0.673  12.383   5.684
 4372SOL    HW114955   0.589  12.391   5.639
 4372SOL    HW214956   0.726  12.455   5.650
 4373SOL     OW14957   0.660   8.664  13.390
 4373SOL    HW114958   0.616   8.581  13.374
 4373SOL    HW214959   0.724   8.671  13.320
 4374SOL     OW14960   0.317   8.495   3.127
 4374SOL    HW114961   0.313   8.399   3.120
 4374SOL    HW214962   0.227   8.521   3.143
 4375SOL     OW14963   5.481  14.613   5.790
 4375SOL    HW114964   5.469  14.590   5.698
 4375SOL    HW214965   5.429  14.549   5.838
 4376SOL     OW14966   0.150   3.294   8.507
 4376SOL    HW114967   0.111   3.269   8.424
 4376SOL    HW214968   0.075   3.302   8.567
 4377SOL     OW14969   1.955   9.328   8.103
 4377SOL    HW114970   1.993   9.411   8.131
 4377SOL    HW214971   1.873   9.322   8.152
 4378SOL     OW14972  10.472  14.371  12.396
 4378SOL    HW114973  10.532  14.305  12.363
 4378SOL    HW214974  10.403  14.320  12.441
 4379SOL     OW14975   6.623   4.980   6.902
 4379SOL    HW114976   6.613   5.074   6.914
 4379SOL    HW214977   6.637   4.946   6.990
 4380SOL     OW14978   2.499   8.865  13.975
 4380SOL    HW114979   2.499   8.775  14.007
 4380SOL    HW214980   2.471   8.918  14.050
 4381SOL     OW14981   6.193   4.973   7.546
 4381SOL    HW114982   6.097   4.972   7.552
 4381SOL    HW214983   6.218   4.880   7.548
 4382SOL     OW14984   8.525   4.014  10.834
 4382SOL    HW114985   8.592   4.049  10.892
 4382SOL    HW214986   8.475   4.090  10.806
 4383SOL     OW14987   0.492  12.234  13.063
 4383SOL    HW114988   0.443  12.304  13.019
 4383SOL    HW214989   0.584  12.261  13.054
 4384SOL     OW14990   2.855   9.962  14.455
 4384SOL    HW114991   2.824   9.957  14.545
 4384SOL    HW214992   2.849   9.872  14.422
 4385SOL     OW14993  10.277  10.134   7.791
 4385SOL    HW114994  10.229  10.215   7.806
 4385SOL    HW214995  10.212  10.065   7.799
 4386SOL     OW14996   4.404   3.128   6.052
 4386SOL    HW114997   4.321   3.175   6.043
 4386SOL    HW214998   4.467   3.196   6.076
 4387SOL     OW14999  10.695   9.997  10.715
 4387SOL    HW115000  10.695  10.070  10.652
 4387SOL    HW215001  10.787   9.973  10.723
 4388SOL     OW15002  10.089   3.206   1.948
 4388SOL    HW115003  10.051   3.186   1.862
 4388SOL    HW215004  10.164   3.262   1.929
 4389SOL     OW15005  14.818   4.107   4.797
 4389SOL    HW115006  14.871   4.055   4.857
 4389SOL    HW215007   0.004   4.131   4.726
 4390SOL     OW15008  12.635  10.754   2.636
 4390SOL    HW115009  12.706  10.693   2.619
 4390SOL    HW215010  12.560  10.718   2.589
 4391SOL     OW15011  14.734   3.343   0.683
 4391SOL    HW115012  14.703   3.254   0.701
 4391SOL    HW215013  14.818   3.330   0.638
 4392SOL     OW15014  11.707  11.592  11.629
 4392SOL    HW115015  11.646  11.663  11.649
 4392SOL    HW215016  11.657  11.512  11.642
 4393SOL     OW15017   9.985  12.867   6.829
 4393SOL    HW115018   9.928  12.943   6.816
 4393SOL    HW215019  10.064  12.886   6.779
 4394SOL     OW15020   7.025  14.335  10.709
 4394SOL    HW115021   6.962  14.299  10.771
 4394SOL    HW215022   7.024  14.274  10.635
 4395SOL     OW15023   7.411   2.186   6.059
 4395SOL    HW115024   7.347   2.123   6.093
 4395SOL    HW215025   7.413   2.170   5.965
 4396SOL     OW15026   3.282  13.205   9.701
 4396SOL    HW115027   3.361  13.248   9.734
 4396SOL    HW215028   3.261  13.253   9.620
 4397SOL     OW15029  11.099  14.381  10.846
 4397SOL    HW115030  11.104  14.466  10.890
 4397SOL    HW215031  11.085  14.317  10.916
 4398SOL     OW15032   2.727   5.890  10.898
 4398SOL    HW115033   2.722   5.797  10.919
 4398SOL    HW215034   2.815   5.916  10.926
 4399SOL     OW15035   4.747   8.032   2.387
 4399SOL    HW115036   4.718   7.943   2.408
 4399SOL    HW215037   4.709   8.087   2.455
 4400SOL     OW15038  12.255   8.342  10.852
 4400SOL    HW115039  12.174   8.320  10.805
 4400SOL    HW215040  12.322   8.347  10.783
 4401SOL     OW15041   5.788   6.123   6.445
 4401SOL    HW115042   5.760   6.205   6.484
 4401SOL    HW215043   5.830   6.148   6.363
 4402SOL     OW15044   3.460   8.369   0.360
 4402SOL    HW115045   3.546   8.343   0.328
 4402SOL    HW215046   3.470   8.461   0.384
 4403SOL     OW15047  13.296   7.382  14.325
 4403SOL    HW115048  13.299   7.288  14.341
 4403SOL    HW215049  13.355   7.396  14.250
 4404SOL     OW15050   1.852  13.592   3.164
 4404SOL    HW115051   1.880  13.658   3.227
 4404SOL    HW215052   1.925  13.529   3.162
 4405SOL     OW15053  13.469   3.227  14.163
 4405SOL    HW115054  13.458   3.141  14.205
 4405SOL    HW215055  13.382   3.266  14.164
 4406SOL     OW15056   9.054   7.496   3.687
 4406SOL    HW115057   9.074   7.437   3.760
 4406SOL    HW215058   9.071   7.584   3.722
 4407SOL     OW15059   3.500  14.874   7.245
 4407SOL    HW115060   3.520  14.837   7.332
 4407SOL    HW215061   3.516   0.094   7.255
 4408SOL     OW15062  13.539   0.366  11.279
 4408SOL    HW115063  13.620   0.332  11.241
 4408SOL    HW215064  13.518   0.305  11.350
 4409SOL     OW15065   1.518   8.659   0.207
 4409SOL    HW115066   1.569   8.739   0.218
 4409SOL    HW215067   1.524   8.640   0.113
 4410SOL     OW15068   2.281   9.357   7.839
 4410SOL    HW115069   2.205   9.415   7.834
 4410SOL    HW215070   2.351   9.405   7.794
 4411SOL     OW15071  14.024  14.046  12.419
 4411SOL    HW115072  13.935  14.059  12.451
 4411SOL    HW215073  14.070  14.004  12.492
 4412SOL     OW15074   6.861  14.425  13.218
 4412SOL    HW115075   6.829  14.335  13.214
 4412SOL    HW215076   6.932  14.428  13.153
 4413SOL     OW15077   8.375   4.262  11.487
 4413SOL    HW115078   8.308   4.195  11.503
 4413SOL    HW215079   8.368   4.321  11.562
 4414SOL     OW15080   7.042   5.742   3.902
 4414SOL    HW115081   7.059   5.818   3.957
 4414SOL    HW215082   7.042   5.668   3.963
 4415SOL     OW15083   6.254  11.905  13.026
 4415SOL    HW115084   6.326  11.842  13.025
 4415SOL    HW215085   6.213  11.895  13.112
 4416SOL     OW15086  13.537  12.810   8.573
 4416SOL    HW115087  13.613  12.824   8.629
 4416SOL    HW215088  13.555  12.862   8.495
 4417SOL     OW15089   0.882   2.047  11.331
 4417SOL    HW115090   0.853   2.126  11.285
 4417SOL    HW215091   0.885   1.980  11.263
 4418SOL     OW15092  11.729  13.079   0.174
 4418SOL    HW115093  11.744  13.152   0.114
 4418SOL    HW215094  11.808  13.075   0.228
 4419SOL     OW15095   9.596   5.104  11.947
 4419SOL    HW115096   9.604   5.175  11.884
 4419SOL    HW215097   9.502   5.094  11.961
 4420SOL     OW15098   0.985   2.808  10.879
 4420SOL    HW115099   1.056   2.817  10.944
 4420SOL    HW215100   0.948   2.721  10.897
 4421SOL     OW15101  12.230  14.673   8.751
 4421SOL    HW115102  12.223  14.582   8.724
 4421SOL    HW215103  12.176  14.721   8.687
 4422SOL     OW15104   3.120  10.320  10.693
 4422SOL    HW115105   3.088  10.408  10.714
 4422SOL    HW215106   3.207  10.317  10.733
 4423SOL     OW15107   4.299  12.588   4.170
 4423SOL    HW115108   4.295  12.684   4.165
 4423SOL    HW215109   4.243  12.566   4.245
 4424SOL     OW15110  10.005   1.801  11.599
 4424SOL    HW115111   9.996   1.707  11.584
 4424SOL    HW215112   9.918   1.831  11.624
 4425SOL     OW15113   0.943  13.833  12.954
 4425SOL    HW115114   0.966  13.925  12.953
 4425SOL    HW215115   0.882  13.822  12.881
 4426SOL     OW15116  12.082   6.152   6.360
 4426SOL    HW115117  11.996   6.114   6.377
 4426SOL    HW215118  12.136   6.120   6.433
 4427SOL     OW15119   0.314   2.436   4.605
 4427SOL    HW115120   0.224   2.452   4.633
 4427SOL    HW215121   0.368   2.484   4.668
 4428SOL     OW15122   0.879   7.059  14.571
 4428SOL    HW115123   0.968   7.053  14.537
 4428SOL    HW215124   0.872   7.147  14.606
 4429SOL     OW15125   1.620  13.950   4.896
 4429SOL    HW115126   1.617  14.015   4.967
 4429SOL    HW215127   1.644  13.868   4.940
 4430SOL     OW15128   9.263   1.678   0.584
 4430SOL    HW115129   9.331   1.628   0.537
 4430SOL    HW215130   9.216   1.612   0.635
 4431SOL     OW15131   1.283   7.841   8.543
 4431SOL    HW115132   1.306   7.890   8.464
 4431SOL    HW215133   1.230   7.768   8.511
 4432SOL     OW15134   1.385   2.735  14.579
 4432SOL    HW115135   1.472   2.733  14.540
 4432SOL    HW215136   1.392   2.796  14.652
 4433SOL     OW15137   6.497   9.485   5.519
 4433SOL    HW115138   6.473   9.481   5.612
 4433SOL    HW215139   6.565   9.552   5.515
 4434SOL     OW15140   0.328   7.038   2.061
 4434SOL    HW115141   0.365   6.970   2.005
 4434SOL    HW215142   0.330   7.117   2.007
 4435SOL     OW15143   7.019  12.589   0.402
 4435SOL    HW115144   7.051  12.506   0.367
 4435SOL    HW215145   6.948  12.565   0.462
 4436SOL     OW15146   0.113   6.932   9.727
 4436SOL    HW115147   0.029   6.914   9.685
 4436SOL    HW215148   0.171   6.863   9.695
 4437SOL     OW15149  13.129   1.673   6.341
 4437SOL    HW115150  13.185   1.624   6.281
 4437SOL    HW215151  13.102   1.750   6.291
 4438SOL     OW15152  11.508  13.211   7.555
 4438SOL    HW115153  11.547  13.197   7.469
 4438SOL    HW215154  11.427  13.160   7.554
 4439SOL     OW15155   9.946   3.925   2.206
 4439SOL    HW115156   9.856   3.895   2.195
 4439SOL    HW215157   9.974   3.887   2.289
 4440SOL     OW15158  12.603  12.575   7.062
 4440SOL    HW115159  12.589  12.480   7.071
 4440SOL    HW215160  12.596  12.592   6.968
 4441SOL     OW15161   4.326   3.727   0.527
 4441SOL    HW115162   4.309   3.635   0.546
 4441SOL    HW215163   4.267   3.749   0.455
 4442SOL     OW15164   5.958   3.512  12.356
 4442SOL    HW115165   5.964   3.423  12.323
 4442SOL    HW215166   5.872   3.516  12.399
 4443SOL     OW15167   1.622   4.763   5.816
 4443SOL    HW115168   1.527   4.752   5.820
 4443SOL    HW215169   1.657   4.693   5.871
 4444SOL     OW15170   7.251  13.963   5.003
 4444SOL    HW115171   7.166  13.991   5.038
 4444SOL    HW215172   7.255  13.869   5.021
 4445SOL     OW15173   0.945   6.446  10.408
 4445SOL    HW115174   0.877   6.515  10.407
 4445SOL    HW215175   1.023   6.489  10.373
 4446SOL     OW15176   7.119   1.010  10.142
 4446SOL    HW115177   7.139   0.919  10.164
 4446SOL    HW215178   7.052   1.005  10.074
 4447SOL     OW15179  11.275   2.127  14.593
 4447SOL    HW115180  11.291   2.152  14.684
 4447SOL    HW215181  11.180   2.134  14.582
 4448SOL     OW15182  11.071  14.491   3.526
 4448SOL    HW115183  11.128  14.515   3.454
 4448SOL    HW215184  11.115  14.525   3.604
 4449SOL     OW15185  12.293  10.597   1.386
 4449SOL    HW115186  12.317  10.575   1.477
 4449SOL    HW215187  12.231  10.669   1.394
 4450SOL     OW15188   1.858  10.105   5.971
 4450SOL    HW115189   1.770  10.072   5.954
 4450SOL    HW215190   1.895  10.123   5.885
 4451SOL     OW15191  14.718   6.318   8.837
 4451SOL    HW115192  14.623   6.310   8.833
 4451SOL    HW215193  14.749   6.232   8.867
 4452SOL     OW15194  13.256   6.685   9.722
 4452SOL    HW115195  13.305   6.672   9.803
 4452SOL    HW215196  13.307   6.751   9.673
 4453SOL     OW15197   5.406   4.752   6.581
 4453SOL    HW115198   5.391   4.812   6.508
 4453SOL    HW215199   5.335   4.770   6.642
 4454SOL     OW15200  11.060   7.576   1.516
 4454SOL    HW115201  11.113   7.587   1.437
 4454SOL    HW215202  11.011   7.657   1.525
 4455SOL     OW15203   8.840  10.289   6.683
 4455SOL    HW115204   8.836  10.211   6.626
 4455SOL    HW215205   8.897  10.263   6.755
 4456SOL     OW15206   8.598   2.753  14.285
 4456SOL    HW115207   8.569   2.664  14.268
 4456SOL    HW215208   8.517   2.803  14.295
 4457SOL     OW15209   5.514   4.909   9.097
 4457SOL    HW115210   5.453   4.845   9.060
 4457SOL    HW215211   5.506   4.899   9.192
 4458SOL     OW15212   3.899   7.150   4.204
 4458SOL    HW115213   3.933   7.206   4.273
 4458SOL    HW215214   3.809   7.130   4.230
 4459SOL     OW15215  13.460   0.899   1.660
 4459SOL    HW115216  13.469   0.807   1.685
 4459SOL    HW215217  13.505   0.947   1.730
 4460SOL     OW15218  11.140  14.794  12.928
 4460SOL    HW115219  11.223  14.778  12.974
 4460SOL    HW215220  11.150   0.007  12.890
 4461SOL     OW15221   9.939  14.205   4.604
 4461SOL    HW115222   9.916  14.276   4.543
 4461SOL    HW215223   9.890  14.129   4.572
 4462SOL     OW15224   3.544  14.642   7.050
 4462SOL    HW115225   3.544  14.728   7.093
 4462SOL    HW215226   3.496  14.586   7.110
 4463SOL     OW15227   4.799   7.449  12.013
 4463SOL    HW115228   4.818   7.372  12.068
 4463SOL    HW215229   4.711   7.474  12.038
 4464SOL     OW15230   1.770  11.137  12.628
 4464SOL    HW115231   1.796  11.223  12.661
 4464SOL    HW215232   1.688  11.118  12.673
 4465SOL     OW15233   1.521   5.673   5.333
 4465SOL    HW115234   1.563   5.594   5.367
 4465SOL    HW215235   1.506   5.655   5.241
 4466SOL     OW15236   3.457   3.638   9.885
 4466SOL    HW115237   3.408   3.569   9.840
 4466SOL    HW215238   3.416   3.720   9.856
 4467SOL     OW15239  10.707   7.486   9.539
 4467SOL    HW115240  10.758   7.541   9.480
 4467SOL    HW215241  10.624   7.531   9.549
 4468SOL     OW15242   1.009   4.884   7.746
 4468SOL    HW115243   0.940   4.818   7.734
 4468SOL    HW215244   0.961   4.963   7.773
 4469SOL     OW15245   0.133   0.705   1.827
 4469SOL    HW115246   0.194   0.652   1.878
 4469SOL    HW215247   0.160   0.692   1.736
 4470SOL     OW15248   3.330  10.791   1.641
 4470SOL    HW115249   3.363  10.810   1.729
 4470SOL    HW215250   3.303  10.876   1.606
 4471SOL     OW15251   2.755   6.702   3.264
 4471SOL    HW115252   2.779   6.629   3.207
 4471SOL    HW215253   2.673   6.735   3.227
 4472SOL     OW15254   3.476  11.970  12.644
 4472SOL    HW115255   3.543  11.902  12.650
 4472SOL    HW215256   3.489  12.024  12.722
 4473SOL     OW15257   9.949   8.033   6.434
 4473SOL    HW115258   9.969   8.010   6.343
 4473SOL    HW215259  10.023   8.088   6.460
 4474SOL     OW15260  12.887   9.108   6.895
 4474SOL    HW115261  12.929   9.045   6.954
 4474SOL    HW215262  12.909   9.076   6.807
 4475SOL     OW15263  11.986  13.545   7.353
 4475SOL    HW115264  11.941  13.628   7.337
 4475SOL    HW215265  12.065  13.570   7.401
 4476SOL     OW15266   1.917   0.140   2.662
 4476SOL    HW115267   1.847   0.188   2.619
 4476SOL    HW215268   1.878   0.055   2.682
 4477SOL     OW15269   6.990   5.056   0.883
 4477SOL    HW115270   7.000   5.115   0.958
 4477SOL    HW215271   6.910   5.007   0.902
 4478SOL     OW15272   0.246  11.478  14.608
 4478SOL    HW115273   0.302  11.411  14.646
 4478SOL    HW215274   0.255  11.466  14.514
 4479SOL     OW15275  13.559   2.220  12.699
 4479SOL    HW115276  13.630   2.282  12.715
 4479SOL    HW215277  13.604   2.139  12.674
 4480SOL     OW15278   8.364   0.651   7.417
 4480SOL    HW115279   8.415   0.614   7.345
 4480SOL    HW215280   8.385   0.744   7.417
 4481SOL     OW15281   2.910   4.789  14.386
 4481SOL    HW115282   2.897   4.767  14.479
 4481SOL    HW215283   2.839   4.745  14.340
 4482SOL     OW15284   2.404   3.422   3.804
 4482SOL    HW115285   2.389   3.476   3.882
 4482SOL    HW215286   2.330   3.362   3.801
 4483SOL     OW15287   9.378   3.219   1.935
 4483SOL    HW115288   9.285   3.217   1.911
 4483SOL    HW215289   9.382   3.173   2.019
 4484SOL     OW15290  10.568  10.741  13.824
 4484SOL    HW115291  10.571  10.731  13.729
 4484SOL    HW215292  10.658  10.760  13.849
 4485SOL     OW15293   5.309   6.882   6.885
 4485SOL    HW115294   5.357   6.882   6.968
 4485SOL    HW215295   5.316   6.973   6.854
 4486SOL     OW15296   4.219   6.168   7.874
 4486SOL    HW115297   4.314   6.168   7.885
 4486SOL    HW215298   4.203   6.232   7.805
 4487SOL     OW15299   8.581   5.418   4.627
 4487SOL    HW115300   8.571   5.456   4.540
 4487SOL    HW215301   8.629   5.484   4.677
 4488SOL     OW15302  12.223   6.390   4.260
 4488SOL    HW115303  12.288   6.378   4.330
 4488SOL    HW215304  12.265   6.351   4.183
 4489SOL     OW15305   7.610   7.152   1.398
 4489SOL    HW115306   7.606   7.124   1.489
 4489SOL    HW215307   7.681   7.100   1.360
 4490SOL     OW15308   9.350   5.955   0.539
 4490SOL    HW115309   9.366   5.972   0.632
 4490SOL    HW215310   9.420   5.894   0.514
 4491SOL     OW15311   6.680   3.430   5.930
 4491SOL    HW115312   6.749   3.454   5.992
 4491SOL    HW215313   6.656   3.341   5.954
 4492SOL     OW15314  12.547   9.073   4.267
 4492SOL    HW115315  12.502   9.144   4.312
 4492SOL    HW215316  12.598   9.116   4.198
 4493SOL     OW15317   7.070  13.998  10.204
 4493SOL    HW115318   7.062  14.030  10.114
 4493SOL    HW215319   7.162  13.972  10.212
 4494SOL     OW15320   3.907   3.083  10.356
 4494SOL    HW115321   3.965   3.069  10.281
 4494SOL    HW215322   3.848   3.153  10.327
 4495SOL     OW15323   3.325  13.721   3.425
 4495SOL    HW115324   3.364  13.807   3.406
 4495SOL    HW215325   3.332  13.673   3.343
 4496SOL     OW15326   1.754  14.577   0.714
 4496SOL    HW115327   1.777  14.545   0.802
 4496SOL    HW215328   1.659  14.589   0.717
 4497SOL     OW15329   4.119   8.053   8.075
 4497SOL    HW115330   4.174   8.103   8.136
 4497SOL    HW215331   4.072   8.120   8.026
 4498SOL     OW15332   5.876  11.943   0.586
 4498SOL    HW115333   5.859  12.033   0.613
 4498SOL    HW215334   5.931  11.906   0.655
 4499SOL     OW15335  11.419   0.395   9.767
 4499SOL    HW115336  11.413   0.300   9.775
 4499SOL    HW215337  11.511   0.411   9.746
 4500SOL     OW15338   7.558   0.839   8.325
 4500SOL    HW115339   7.616   0.763   8.330
 4500SOL    HW215340   7.615   0.914   8.336
 4501SOL     OW15341   0.273  13.534   3.892
 4501SOL    HW115342   0.365  13.534   3.867
 4501SOL    HW215343   0.232  13.472   3.831
 4502SOL     OW15344   4.233   7.849   0.911
 4502SOL    HW115345   4.178   7.912   0.958
 4502SOL    HW215346   4.237   7.884   0.821
 4503SOL     OW15347  11.973  11.714  10.964
 4503SOL    HW115348  12.069  11.718  10.963
 4503SOL    HW215349  11.945  11.804  10.980
 4504SOL     OW15350   7.931  11.525   0.458
 4504SOL    HW115351   7.952  11.568   0.541
 4504SOL    HW215352   7.868  11.457   0.481
 4505SOL     OW15353  11.675   5.968  13.788
 4505SOL    HW115354  11.764   5.937  13.773
 4505SOL    HW215355  11.644   5.995  13.702
 4506SOL     OW15356   0.373   8.981   1.117
 4506SOL    HW115357   0.348   9.068   1.147
 4506SOL    HW215358   0.412   8.938   1.193
 4507SOL     OW15359   0.648   2.719   8.672
 4507SOL    HW115360   0.582   2.730   8.740
 4507SOL    HW215361   0.725   2.764   8.706
 4508SOL     OW15362   5.211   0.692   9.927
 4508SOL    HW115363   5.177   0.605   9.908
 4508SOL    HW215364   5.144   0.752   9.894
 4509SOL     OW15365   5.833  10.914   3.884
 4509SOL    HW115366   5.751  10.929   3.932
 4509SOL    HW215367   5.806  10.878   3.800
 4510SOL     OW15368   5.213   2.621   7.400
 4510SOL    HW115369   5.124   2.637   7.368
 4510SOL    HW215370   5.254   2.568   7.332
 4511SOL     OW15371   7.237   1.355   5.135
 4511SOL    HW115372   7.198   1.392   5.214
 4511SOL    HW215373   7.217   1.419   5.067
 4512SOL     OW15374   3.001   9.607   3.583
 4512SOL    HW115375   2.931   9.605   3.518
 4512SOL    HW215376   3.062   9.674   3.552
 4513SOL     OW15377   7.754   4.730   1.022
 4513SOL    HW115378   7.799   4.814   1.028
 4513SOL    HW215379   7.787   4.692   0.940
 4514SOL     OW15380   5.374   7.520   5.559
 4514SOL    HW115381   5.317   7.542   5.633
 4514SOL    HW215382   5.437   7.592   5.554
 4515SOL     OW15383  14.161   8.889   7.273
 4515SOL    HW115384  14.138   8.797   7.287
 4515SOL    HW215385  14.251   8.886   7.241
 4516SOL     OW15386   9.418   4.882   1.427
 4516SOL    HW115387   9.482   4.896   1.357
 4516SOL    HW215388   9.411   4.967   1.470
 4517SOL     OW15389  11.181  10.277  12.829
 4517SOL    HW115390  11.145  10.238  12.909
 4517SOL    HW215391  11.227  10.205  12.786
 4518SOL     OW15392   7.977   8.226   4.436
 4518SOL    HW115393   7.932   8.252   4.516
 4518SOL    HW215394   8.061   8.192   4.465
 4519SOL     OW15395   8.417  10.081   5.978
 4519SOL    HW115396   8.474  10.038   6.042
 4519SOL    HW215397   8.401  10.168   6.014
 4520SOL     OW15398  14.688   9.071   7.170
 4520SOL    HW115399  14.608   9.114   7.139
 4520SOL    HW215400  14.698   8.995   7.113
 4521SOL     OW15401  12.225   3.027   5.589
 4521SOL    HW115402  12.215   3.008   5.495
 4521SOL    HW215403  12.306   2.983   5.613
 4522SOL     OW15404   9.856   5.550   0.046
 4522SOL    HW115405   9.942   5.564   0.085
 4522SOL    HW215406   9.797   5.603   0.100
 4523SOL     OW15407   1.733  14.075  10.790
 4523SOL    HW115408   1.765  14.015  10.722
 4523SOL    HW215409   1.729  14.160  10.746
 4524SOL     OW15410   4.718  13.106  13.536
 4524SOL    HW115411   4.681  13.151  13.460
 4524SOL    HW215412   4.807  13.139  13.542
 4525SOL     OW15413   8.634   3.460   4.041
 4525SOL    HW115414   8.663   3.545   4.006
 4525SOL    HW215415   8.619   3.476   4.134
 4526SOL     OW15416   4.907   5.104   2.390
 4526SOL    HW115417   4.939   5.096   2.300
 4526SOL    HW215418   4.825   5.153   2.382
 4527SOL     OW15419   3.265   1.711   0.791
 4527SOL    HW115420   3.335   1.775   0.785
 4527SOL    HW215421   3.249   1.701   0.885
 4528SOL     OW15422   0.056   9.232   7.870
 4528SOL    HW115423  14.870   9.157   7.861
 4528SOL    HW215424   0.105   9.213   7.951
 4529SOL     OW15425   0.292   2.151   3.750
 4529SOL    HW115426   0.278   2.057   3.764
 4529SOL    HW215427   0.204   2.189   3.758
 4530SOL     OW15428   5.656   4.614  11.782
 4530SOL    HW115429   5.611   4.565  11.851
 4530SOL    HW215430   5.661   4.704  11.815
 4531SOL     OW15431   9.242   1.283   7.766
 4531SOL    HW115432   9.311   1.302   7.829
 4531SOL    HW215433   9.231   1.188   7.768
 4532SOL     OW15434   5.950   2.256  12.412
 4532SOL    HW115435   5.908   2.245  12.498
 4532SOL    HW215436   6.044   2.256  12.431
 4533SOL     OW15437   4.356   0.146  14.203
 4533SOL    HW115438   4.382   0.058  14.175
 4533SOL    HW215439   4.273   0.134  14.248
 4534SOL     OW15440  13.565  13.421  12.445
 4534SOL    HW115441  13.643  13.474  12.432
 4534SOL    HW215442  13.552  13.420  12.540
 4535SOL     OW15443   5.417  10.971   7.623
 4535SOL    HW115444   5.398  10.986   7.716
 4535SOL    HW215445   5.494  10.914   7.624
 4536SOL     OW15446  13.597   1.216   5.353
 4536SOL    HW115447  13.505   1.222   5.378
 4536SOL    HW215448  13.601   1.256   5.266
 4537SOL     OW15449  13.895  14.128  10.738
 4537SOL    HW115450  13.877  14.180  10.660
 4537SOL    HW215451  13.980  14.088  10.720
 4538SOL     OW15452  14.793   3.645  10.283
 4538SOL    HW115453   0.005   3.618  10.315
 4538SOL    HW215454  14.811   3.685  10.197
 4539SOL     OW15455   8.359  11.405   8.102
 4539SOL    HW115456   8.381  11.403   8.196
 4539SOL    HW215457   8.272  11.446   8.099
 4540SOL     OW15458   6.856   3.259  14.829
 4540SOL    HW115459   6.765   3.275  14.803
 4540SOL    HW215460   6.849   3.202   0.032
 4541SOL     OW15461  12.371  11.391   2.045
 4541SOL    HW115462  12.408  11.388   2.133
 4541SOL    HW215463  12.398  11.477   2.011
 4542SOL     OW15464   5.596   4.603  11.519
 4542SOL    HW115465   5.669   4.632  11.464
 4542SOL    HW215466   5.624   4.623  11.608
 4543SOL     OW15467   7.925  12.836  12.601
 4543SOL    HW115468   7.887  12.771  12.542
 4543SOL    HW215469   7.983  12.888  12.545
 4544SOL     OW15470   4.717   0.171  10.971
 4544SOL    HW115471   4.634   0.127  10.958
 4544SOL    HW215472   4.783   0.105  10.950
 4545SOL     OW15473  13.008   6.242  10.789
 4545SOL    HW115474  12.956   6.163  10.779
 4545SOL    HW215475  13.099   6.211  10.794
 4546SOL     OW15476   9.494  11.033  14.828
 4546SOL    HW115477   9.517  11.040  14.735
 4546SOL    HW215478   9.444  10.952  14.834
 4547SOL     OW15479  13.004   8.818  12.172
 4547SOL    HW115480  12.915   8.846  12.150
 4547SOL    HW215481  13.055   8.839  12.094
 4548SOL     OW15482   2.406  12.083   6.023
 4548SOL    HW115483   2.320  12.114   6.050
 4548SOL    HW215484   2.456  12.075   6.104
 4549SOL     OW15485   2.285  10.144   5.306
 4549SOL    HW115486   2.213  10.143   5.370
 4549SOL    HW215487   2.360  10.174   5.357
 4550SOL     OW15488   6.269   4.090   8.514
 4550SOL    HW115489   6.191   4.132   8.550
 4550SOL    HW215490   6.236   4.015   8.465
 4551SOL     OW15491  10.720  10.760   9.391
 4551SOL    HW115492  10.735  10.666   9.380
 4551SOL    HW215493  10.758  10.800   9.313
 4552SOL     OW15494   7.418   5.498  10.685
 4552SOL    HW115495   7.503   5.470  10.654
 4552SOL    HW215496   7.437   5.550  10.763
 4553SOL     OW15497  11.144   8.917   0.289
 4553SOL    HW115498  11.134   8.851   0.358
 4553SOL    HW215499  11.094   8.992   0.321
 4554SOL     OW15500   1.467  14.183  10.111
 4554SOL    HW115501   1.521  14.173  10.190
 4554SOL    HW215502   1.406  14.254  10.132
 4555SOL     OW15503   9.099   3.927   0.022
 4555SOL    HW115504   9.154   3.955  14.823
 4555SOL    HW215505   9.067   4.008   0.061
 4556SOL     OW15506   5.644  13.023   4.384
 4556SOL    HW115507   5.725  13.056   4.345
 4556SOL    HW215508   5.668  12.941   4.427
 4557SOL     OW15509   8.224  11.113   9.817
 4557SOL    HW115510   8.208  11.019   9.832
 4557SOL    HW215511   8.306  11.130   9.865
 4558SOL     OW15512  13.772   0.940  10.982
 4558SOL    HW115513  13.774   0.860  11.036
 4558SOL    HW215514  13.751   0.908  10.894
 4559SOL     OW15515  10.312  14.016   3.905
 4559SOL    HW115516  10.296  13.971   3.988
 4559SOL    HW215517  10.383  13.968   3.864
 4560SOL     OW15518  12.174   5.149  14.434
 4560SOL    HW115519  12.203   5.224  14.382
 4560SOL    HW215520  12.233   5.149  14.510
 4561SOL     OW15521   4.128   0.960   9.153
 4561SOL    HW115522   4.111   0.897   9.223
 4561SOL    HW215523   4.224   0.965   9.149
 4562SOL     OW15524  14.184   4.239  11.768
 4562SOL    HW115525  14.266   4.218  11.722
 4562SOL    HW215526  14.115   4.212  11.707
 4563SOL     OW15527   1.902   1.527   7.156
 4563SOL    HW115528   1.985   1.564   7.125
 4563SOL    HW215529   1.925   1.440   7.187
 4564SOL     OW15530   3.762   2.540   2.701
 4564SOL    HW115531   3.694   2.477   2.722
 4564SOL    HW215532   3.763   2.600   2.775
 4565SOL     OW15533  12.204   3.152  14.708
 4565SOL    HW115534  12.198   3.230  14.762
 4565SOL    HW215535  12.147   3.088  14.752
 4566SOL     OW15536   4.233  13.580   2.481
 4566SOL    HW115537   4.267  13.624   2.403
 4566SOL    HW215538   4.144  13.612   2.490
 4567SOL     OW15539   8.728   7.255   3.907
 4567SOL    HW115540   8.783   7.196   3.959
 4567SOL    HW215541   8.675   7.301   3.972
 4568SOL     OW15542   6.733  11.229   0.227
 4568SOL    HW115543   6.718  11.267   0.314
 4568SOL    HW215544   6.646  11.204   0.197
 4569SOL     OW15545  14.414  12.915  10.427
 4569SOL    HW115546  14.363  12.899  10.507
 4569SOL    HW215547  14.490  12.858  10.435
 4570SOL     OW15548   8.632  11.981  14.820
 4570SOL    HW115549   8.536  11.979  14.823
 4570SOL    HW215550   8.659  11.898  14.857
 4571SOL     OW15551   7.823  14.446   8.839
 4571SOL    HW115552   7.832  14.375   8.902
 4571SOL    HW215553   7.906  14.447   8.792
 4572SOL     OW15554   2.106   6.101  14.688
 4572SOL    HW115555   2.096   6.196  14.678
 4572SOL    HW215556   2.143   6.090  14.775
 4573SOL     OW15557   4.502  13.055   8.409
 4573SOL    HW115558   4.409  13.036   8.393
 4573SOL    HW215559   4.509  13.061   8.504
 4574SOL     OW15560   6.796   1.207  10.876
 4574SOL    HW115561   6.824   1.155  10.800
 4574SOL    HW215562   6.757   1.285  10.837
 4575SOL     OW15563   4.520   5.167  10.911
 4575SOL    HW115564   4.517   5.181  10.816
 4575SOL    HW215565   4.499   5.075  10.923
 4576SOL     OW15566  10.606  12.215   3.827
 4576SOL    HW115567  10.667  12.182   3.894
 4576SOL    HW215568  10.569  12.136   3.788
 4577SOL     OW15569   6.298   6.425   6.406
 4577SOL    HW115570   6.323   6.512   6.438
 4577SOL    HW215571   6.344   6.364   6.463
 4578SOL     OW15572  12.988  13.689  14.822
 4578SOL    HW115573  13.033  13.765  14.785
 4578SOL    HW215574  12.917  13.726   0.000
 4579SOL     OW15575   1.679   0.211   7.633
 4579SOL    HW115576   1.717   0.295   7.606
 4579SOL    HW215577   1.696   0.152   7.559
 4580SOL     OW15578   7.279  11.443   4.979
 4580SOL    HW115579   7.211  11.380   4.957
 4580SOL    HW215580   7.323  11.460   4.896
 4581SOL     OW15581   1.024  13.514   6.014
 4581SOL    HW115582   0.932  13.526   5.991
 4581SOL    HW215583   1.030  13.423   6.042
 4582SOL     OW15584  14.491  13.105   7.373
 4582SOL    HW115585  14.554  13.105   7.301
 4582SOL    HW215586  14.492  13.015   7.405
 4583SOL     OW15587   5.872   9.101  13.033
 4583SOL    HW115588   5.864   9.184  13.080
 4583SOL    HW215589   5.933   9.050  13.085
 4584SOL     OW15590   1.961  14.152   5.931
 4584SOL    HW115591   1.875  14.178   5.898
 4584SOL    HW215592   1.983  14.219   5.995
 4585SOL     OW15593   4.030  13.022   5.047
 4585SOL    HW115594   4.102  12.975   5.088
 4585SOL    HW215595   3.955  13.008   5.105
 4586SOL     OW15596   1.049  11.554  13.871
 4586SOL    HW115597   1.057  11.521  13.961
 4586SOL    HW215598   0.995  11.489  13.826
 4587SOL     OW15599  10.123   5.968   7.267
 4587SOL    HW115600  10.133   5.880   7.303
 4587SOL    HW215601  10.212   6.001   7.257
 4588SOL     OW15602   4.315  10.361   8.637
 4588SOL    HW115603   4.285  10.448   8.611
 4588SOL    HW215604   4.361  10.327   8.560
 4589SOL     OW15605  10.698   9.009   0.474
 4589SOL    HW115606  10.605   8.994   0.461
 4589SOL    HW215607  10.728   9.046   0.391
 4590SOL     OW15608   4.172   3.703  11.710
 4590SOL    HW115609   4.204   3.757  11.782
 4590SOL    HW215610   4.090   3.667  11.742
 4591SOL     OW15611   0.807   2.176  10.292
 4591SOL    HW115612   0.760   2.230  10.356
 4591SOL    HW215613   0.872   2.235  10.255
 4592SOL     OW15614  10.731  14.381   8.780
 4592SOL    HW115615  10.771  14.466   8.762
 4592SOL    HW215616  10.696  14.389   8.869
 4593SOL     OW15617  10.142   4.572  12.572
 4593SOL    HW115618  10.100   4.657  12.554
 4593SOL    HW215619  10.209   4.563  12.505
 4594SOL     OW15620  14.572   8.512   0.795
 4594SOL    HW115621  14.571   8.522   0.700
 4594SOL    HW215622  14.559   8.419   0.810
 4595SOL     OW15623  14.142   3.854  12.301
 4595SOL    HW115624  14.076   3.907  12.256
 4595SOL    HW215625  14.091   3.797  12.359
 4596SOL     OW15626   5.964   8.383   3.841
 4596SOL    HW115627   6.050   8.380   3.800
 4596SOL    HW215628   5.902   8.373   3.769
 4597SOL     OW15629   7.546   1.022   4.554
 4597SOL    HW115630   7.505   1.000   4.638
 4597SOL    HW215631   7.512   1.109   4.533
 4598SOL     OW15632   9.670   7.614   2.490
 4598SOL    HW115633   9.630   7.555   2.554
 4598SOL    HW215634   9.607   7.618   2.419
 4599SOL     OW15635   4.653   8.268   3.200
 4599SOL    HW115636   4.715   8.260   3.272
 4599SOL    HW215637   4.589   8.199   3.215
 4600SOL     OW15638  10.322   8.352  11.809
 4600SOL    HW115639  10.315   8.438  11.768
 4600SOL    HW215640  10.318   8.291  11.735
 4601SOL     OW15641  11.124   0.759   4.803
 4601SOL    HW115642  11.043   0.794   4.765
 4601SOL    HW215643  11.116   0.664   4.794
 4602SOL     OW15644   6.865  11.094   7.905
 4602SOL    HW115645   6.776  11.111   7.935
 4602SOL    HW215646   6.877  11.000   7.918
 4603SOL     OW15647   4.621   3.726   6.910
 4603SOL    HW115648   4.626   3.681   6.995
 4603SOL    HW215649   4.712   3.743   6.887
 4604SOL     OW15650   4.432  13.984  12.537
 4604SOL    HW115651   4.459  13.911  12.482
 4604SOL    HW215652   4.509  14.039  12.543
 4605SOL     OW15653   0.292  13.603   5.708
 4605SOL    HW115654   0.251  13.541   5.647
 4605SOL    HW215655   0.299  13.684   5.658
 4606SOL     OW15656  13.590   0.794   1.431
 4606SOL    HW115657  13.680   0.778   1.459
 4606SOL    HW215658  13.550   0.842   1.503
 4607SOL     OW15659  13.100  12.826   3.911
 4607SOL    HW115660  13.020  12.801   3.864
 4607SOL    HW215661  13.169  12.776   3.868
 4608SOL     OW15662   6.706   4.501   1.107
 4608SOL    HW115663   6.644   4.564   1.144
 4608SOL    HW215664   6.666   4.416   1.123
 4609SOL     OW15665  12.692  13.754   4.504
 4609SOL    HW115666  12.700  13.658   4.505
 4609SOL    HW215667  12.744  13.783   4.579
 4610SOL     OW15668   4.748   7.387   7.393
 4610SOL    HW115669   4.827   7.434   7.366
 4610SOL    HW215670   4.712   7.440   7.465
 4611SOL     OW15671   0.676   2.630  14.789
 4611SOL    HW115672   0.599   2.596  14.834
 4611SOL    HW215673   0.713   2.694  14.849
 4612SOL     OW15674  12.046   3.865   5.199
 4612SOL    HW115675  12.120   3.926   5.200
 4612SOL    HW215676  11.970   3.921   5.181
 4613SOL     OW15677   7.651   6.221   3.053
 4613SOL    HW115678   7.726   6.272   3.083
 4613SOL    HW215679   7.604   6.198   3.134
 4614SOL     OW15680   2.504   5.195   4.649
 4614SOL    HW115681   2.599   5.200   4.653
 4614SOL    HW215682   2.483   5.210   4.557
 4615SOL     OW15683   0.431   2.984   0.532
 4615SOL    HW115684   0.429   3.029   0.616
 4615SOL    HW215685   0.358   3.022   0.483
 4616SOL     OW15686   9.932   0.684   0.228
 4616SOL    HW115687   9.982   0.689   0.147
 4616SOL    HW215688   9.851   0.732   0.209
 4617SOL     OW15689   4.932  10.102  13.440
 4617SOL    HW115690   5.018  10.131  13.412
 4617SOL    HW215691   4.915  10.149  13.521
 4618SOL     OW15692   2.621   5.934   9.905
 4618SOL    HW115693   2.667   6.013   9.936
 4618SOL    HW215694   2.652   5.922   9.816
 4619SOL     OW15695  14.766   4.765   3.632
 4619SOL    HW115696  14.700   4.713   3.586
 4619SOL    HW215697  14.759   4.738   3.723
 4620SOL     OW15698  10.155   6.691  10.129
 4620SOL    HW115699  10.136   6.735  10.212
 4620SOL    HW215700  10.241   6.651  10.142
 4621SOL     OW15701   2.302   2.853  14.039
 4621SOL    HW115702   2.285   2.926  14.097
 4621SOL    HW215703   2.244   2.868  13.964
 4622SOL     OW15704   0.661   4.394  13.307
 4622SOL    HW115705   0.695   4.346  13.232
 4622SOL    HW215706   0.647   4.327  13.374
 4623SOL     OW15707   2.245   5.035   9.438
 4623SOL    HW115708   2.319   5.008   9.491
 4623SOL    HW215709   2.283   5.092   9.371
 4624SOL     OW15710   1.619  11.883   3.421
 4624SOL    HW115711   1.635  11.939   3.497
 4624SOL    HW215712   1.706  11.863   3.387
 4625SOL     OW15713   6.256  14.405   3.616
 4625SOL    HW115714   6.224  14.387   3.528
 4625SOL    HW215715   6.321  14.336   3.633
 4626SOL     OW15716  13.112   4.837  13.352
 4626SOL    HW115717  13.110   4.795  13.266
 4626SOL    HW215718  13.186   4.796  13.397
 4627SOL     OW15719   8.173   3.747  10.192
 4627SOL    HW115720   8.252   3.761  10.244
 4627SOL    HW215721   8.147   3.657  10.211
 4628SOL     OW15722  12.834  13.716  10.692
 4628SOL    HW115723  12.785  13.782  10.643
 4628SOL    HW215724  12.770  13.677  10.750
 4629SOL     OW15725   1.594   3.442   1.866
 4629SOL    HW115726   1.592   3.348   1.886
 4629SOL    HW215727   1.606   3.484   1.950
 4630SOL     OW15728  13.757  12.896   1.765
 4630SOL    HW115729  13.788  12.806   1.755
 4630SOL    HW215730  13.666  12.887   1.793
 4631SOL     OW15731  10.908   5.410  13.611
 4631SOL    HW115732  10.868   5.354  13.544
 4631SOL    HW215733  11.002   5.404  13.594
 4632SOL     OW15734   8.701   5.285  13.860
 4632SOL    HW115735   8.675   5.249  13.944
 4632SOL    HW215736   8.620   5.288  13.809
 4633SOL     OW15737   0.038   4.557   0.784
 4633SOL    HW115738   0.112   4.496   0.783
 4633SOL    HW215739   0.079   4.643   0.786
 4634SOL     OW15740   4.046  11.216   9.605
 4634SOL    HW115741   4.042  11.260   9.690
 4634SOL    HW215742   4.049  11.287   9.541
 4635SOL     OW15743   6.550  13.415  13.496
 4635SOL    HW115744   6.607  13.442  13.568
 4635SOL    HW215745   6.533  13.322  13.512
 4636SOL     OW15746   2.170  13.803   1.631
 4636SOL    HW115747   2.252  13.798   1.581
 4636SOL    HW215748   2.174  13.888   1.675
 4637SOL     OW15749   6.082  14.537  10.987
 4637SOL    HW115750   6.067  14.577  11.073
 4637SOL    HW215751   6.009  14.476  10.976
 4638SOL     OW15752   2.497   8.926   6.990
 4638SOL    HW115753   2.478   8.864   6.920
 4638SOL    HW215754   2.567   8.981   6.955
 4639SOL     OW15755   5.668   7.566   4.963
 4639SOL    HW115756   5.705   7.562   5.051
 4639SOL    HW215757   5.625   7.651   4.958
 4640SOL     OW15758   7.918   5.214   6.011
 4640SOL    HW115759   7.925   5.202   6.106
 4640SOL    HW215760   7.910   5.309   6.000
 4641SOL     OW15761  10.649   2.142   3.948
 4641SOL    HW115762  10.729   2.099   3.919
 4641SOL    HW215763  10.637   2.112   4.038
 4642SOL     OW15764  11.441   5.856   9.216
 4642SOL    HW115765  11.400   5.873   9.131
 4642SOL    HW215766  11.529   5.892   9.208
 4643SOL     OW15767   6.506   2.435  12.076
 4643SOL    HW115768   6.601   2.429  12.083
 4643SOL    HW215769   6.483   2.373  12.006
 4644SOL     OW15770   1.073  14.027   6.292
 4644SOL    HW115771   1.092  14.106   6.242
 4644SOL    HW215772   1.029  13.969   6.230
 4645SOL     OW15773   4.202   4.736  13.477
 4645SOL    HW115774   4.274   4.720  13.416
 4645SOL    HW215775   4.134   4.674  13.451
 4646SOL     OW15776   3.917   2.641   5.416
 4646SOL    HW115777   3.850   2.576   5.438
 4646SOL    HW215778   3.912   2.706   5.486
 4647SOL     OW15779   8.916   7.669   9.574
 4647SOL    HW115780   8.949   7.638   9.490
 4647SOL    HW215781   8.995   7.685   9.626
 4648SOL     OW15782  10.598  13.754  13.009
 4648SOL    HW115783  10.587  13.819  13.078
 4648SOL    HW215784  10.660  13.691  13.046
 4649SOL     OW15785   7.031  10.928   9.266
 4649SOL    HW115786   6.946  10.965   9.240
 4649SOL    HW215787   7.044  10.959   9.355
 4650SOL     OW15788   5.216  11.404   8.397
 4650SOL    HW115789   5.201  11.408   8.302
 4650SOL    HW215790   5.308  11.380   8.405
 4651SOL     OW15791   9.473   6.883   1.687
 4651SOL    HW115792   9.401   6.915   1.633
 4651SOL    HW215793   9.525   6.828   1.628
 4652SOL     OW15794  11.832  12.082   6.312
 4652SOL    HW115795  11.760  12.137   6.343
 4652SOL    HW215796  11.863  12.127   6.233
 4653SOL     OW15797   3.492   2.925   5.502
 4653SOL    HW115798   3.528   2.888   5.421
 4653SOL    HW215799   3.471   3.016   5.479
 4654SOL     OW15800   5.301   5.198   4.671
 4654SOL    HW115801   5.340   5.133   4.614
 4654SOL    HW215802   5.375   5.242   4.712
 4655SOL     OW15803  13.252   0.393   5.550
 4655SOL    HW115804  13.235   0.311   5.504
 4655SOL    HW215805  13.200   0.388   5.630
 4656SOL     OW15806   2.085   0.590  12.289
 4656SOL    HW115807   2.013   0.599  12.227
 4656SOL    HW215808   2.132   0.673  12.285
 4657SOL     OW15809   7.787  11.505   6.533
 4657SOL    HW115810   7.756  11.476   6.448
 4657SOL    HW215811   7.767  11.431   6.592
 4658SOL     OW15812   2.917   7.953   5.595
 4658SOL    HW115813   2.870   8.023   5.641
 4658SOL    HW215814   3.010   7.975   5.606
 4659SOL     OW15815   0.968  13.370   0.016
 4659SOL    HW115816   0.940  13.282   0.043
 4659SOL    HW215817   1.027  13.354  14.816
 4660SOL     OW15818  14.520   2.187   8.199
 4660SOL    HW115819  14.461   2.117   8.169
 4660SOL    HW215820  14.514   2.254   8.131
 4661SOL     OW15821   3.862  10.709   5.348
 4661SOL    HW115822   3.894  10.628   5.308
 4661SOL    HW215823   3.812  10.752   5.278
 4662SOL     OW15824   9.220   3.715   9.110
 4662SOL    HW115825   9.235   3.805   9.138
 4662SOL    HW215826   9.288   3.699   9.045
 4663SOL     OW15827   7.309  12.546  10.592
 4663SOL    HW115828   7.354  12.464  10.611
 4663SOL    HW215829   7.361  12.587  10.523
 4664SOL     OW15830   0.208   1.555   5.424
 4664SOL    HW115831   0.261   1.580   5.348
 4664SOL    HW215832   0.129   1.608   5.417
 4665SOL     OW15833   2.881  12.291  14.103
 4665SOL    HW115834   2.956  12.318  14.051
 4665SOL    HW215835   2.907  12.207  14.141
 4666SOL     OW15836   6.696   7.987   1.569
 4666SOL    HW115837   6.668   7.938   1.491
 4666SOL    HW215838   6.665   7.934   1.643
 4667SOL     OW15839  13.820   9.574   5.778
 4667SOL    HW115840  13.897   9.541   5.730
 4667SOL    HW215841  13.797   9.502   5.837
 4668SOL     OW15842   6.774   6.296  13.574
 4668SOL    HW115843   6.783   6.295  13.669
 4668SOL    HW215844   6.685   6.330  13.559
 4669SOL     OW15845   2.702   3.911  12.561
 4669SOL    HW115846   2.727   3.843  12.498
 4669SOL    HW215847   2.693   3.990  12.508
 4670SOL     OW15848  12.591  14.870   0.009
 4670SOL    HW115849  12.542   0.064   0.057
 4670SOL    HW215850  12.680   0.002   0.043
 4671SOL     OW15851   4.580   4.189   8.624
 4671SOL    HW115852   4.532   4.106   8.631
 4671SOL    HW215853   4.559   4.221   8.536
 4672SOL     OW15854  14.424   0.557   8.907
 4672SOL    HW115855  14.366   0.543   8.982
 4672SOL    HW215856  14.472   0.637   8.929
 4673SOL     OW15857   2.284   9.720  11.176
 4673SOL    HW115858   2.303   9.692  11.265
 4673SOL    HW215859   2.319   9.810  11.171
 4674SOL     OW15860   2.538  12.969   4.335
 4674SOL    HW115861   2.539  12.934   4.424
 4674SOL    HW215862   2.588  12.907   4.283
 4675SOL     OW15863  14.721   6.814  11.184
 4675SOL    HW115864  14.638   6.770  11.167
 4675SOL    HW215865  14.773   6.748  11.231
 4676SOL     OW15866   8.997   8.889  14.007
 4676SOL    HW115867   9.069   8.888  14.071
 4676SOL    HW215868   8.979   8.982  13.993
 4677SOL     OW15869   4.520   0.544  11.026
 4677SOL    HW115870   4.472   0.475  11.073
 4677SOL    HW215871   4.556   0.500  10.950
 4678SOL     OW15872  12.672  10.671   3.254
 4678SOL    HW115873  12.613  10.689   3.327
 4678SOL    HW215874  12.716  10.590   3.278
 4679SOL     OW15875   3.188   4.148   2.875
 4679SOL    HW115876   3.237   4.074   2.911
 4679SOL    HW215877   3.179   4.127   2.782
 4680SOL     OW15878  14.380   2.159  12.198
 4680SOL    HW115879  14.350   2.103  12.269
 4680SOL    HW215880  14.347   2.117  12.119
 4681SOL     OW15881   3.004   1.856   3.822
 4681SOL    HW115882   3.024   1.855   3.728
 4681SOL    HW215883   3.063   1.921   3.859
 4682SOL     OW15884   8.405   0.929   8.627
 4682SOL    HW115885   8.342   0.923   8.556
 4682SOL    HW215886   8.467   0.857   8.611
 4683SOL     OW15887   2.980  13.071   0.451
 4683SOL    HW115888   2.912  13.005   0.461
 4683SOL    HW215889   3.055  13.036   0.499
 4684SOL     OW15890   9.356   8.412   4.250
 4684SOL    HW115891   9.415   8.343   4.278
 4684SOL    HW215892   9.307   8.435   4.329
 4685SOL     OW15893   5.483   1.457  12.856
 4685SOL    HW115894   5.488   1.366  12.885
 4685SOL    HW215895   5.561   1.468  12.801
 4686SOL     OW15896   7.649   3.506   2.575
 4686SOL    HW115897   7.698   3.588   2.572
 4686SOL    HW215898   7.713   3.441   2.605
 4687SOL     OW15899   2.377  10.868  11.575
 4687SOL    HW115900   2.412  10.907  11.495
 4687SOL    HW215901   2.350  10.942  11.629
 4688SOL     OW15902   2.498   7.243   5.393
 4688SOL    HW115903   2.546   7.191   5.458
 4688SOL    HW215904   2.410   7.253   5.431
 4689SOL     OW15905   4.069  13.316   8.120
 4689SOL    HW115906   4.079  13.352   8.032
 4689SOL    HW215907   4.093  13.389   8.178
 4690SOL     OW15908  11.392   3.240   9.858
 4690SOL    HW115909  11.321   3.273   9.803
 4690SOL    HW215910  11.400   3.148   9.835
 4691SOL     OW15911  13.188  10.205  11.277
 4691SOL    HW115912  13.252  10.275  11.291
 4691SOL    HW215913  13.114  10.228  11.332
 4692SOL     OW15914  14.125  10.742  14.849
 4692SOL    HW115915  14.118  10.821   0.029
 4692SOL    HW215916  14.038  10.731  14.811
 4693SOL     OW15917   8.213  13.149   6.376
 4693SOL    HW115918   8.303  13.136   6.407
 4693SOL    HW215919   8.160  13.094   6.434
 4694SOL     OW15920  11.628   0.216  11.691
 4694SOL    HW115921  11.564   0.281  11.661
 4694SOL    HW215922  11.689   0.206  11.619
 4695SOL     OW15923  13.915   2.923  13.221
 4695SOL    HW115924  13.832   2.971  13.229
 4695SOL    HW215925  13.899   2.859  13.152
 4696SOL     OW15926   7.695   3.916  12.316
 4696SOL    HW115927   7.737   3.830  12.320
 4696SOL    HW215928   7.736   3.958  12.240
 4697SOL     OW15929  10.654   4.175   3.992
 4697SOL    HW115930  10.598   4.146   3.920
 4697SOL    HW215931  10.672   4.095   4.041
 4698SOL     OW15932   4.059  13.020  14.029
 4698SOL    HW115933   4.078  13.112  14.009
 4698SOL    HW215934   3.968  13.021  14.058
 4699SOL     OW15935   1.021   4.780   9.749
 4699SOL    HW115936   1.006   4.689   9.722
 4699SOL    HW215937   1.065   4.773   9.834
 4700SOL     OW15938   2.477   9.951  11.839
 4700SOL    HW115939   2.471   9.857  11.825
 4700SOL    HW215940   2.557   9.962  11.891
 4701SOL     OW15941  11.002   1.155   8.022
 4701SOL    HW115942  11.010   1.164   8.117
 4701SOL    HW215943  10.925   1.099   8.010
 4702SOL     OW15944  12.771   4.382   4.530
 4702SOL    HW115945  12.694   4.432   4.504
 4702SOL    HW215946  12.799   4.338   4.450
 4703SOL     OW15947   2.940   9.936   3.335
 4703SOL    HW115948   2.963   9.939   3.242
 4703SOL    HW215949   2.851   9.971   3.338
 4704SOL     OW15950   5.837   7.402  11.026
 4704SOL    HW115951   5.911   7.352  11.061
 4704SOL    HW215952   5.861   7.493  11.042
 4705SOL     OW15953   2.393   9.390  13.874
 4705SOL    HW115954   2.483   9.358  13.881
 4705SOL    HW215955   2.338   9.312  13.882
 4706SOL     OW15956  14.624  10.658   6.621
 4706SOL    HW115957  14.618  10.575   6.669
 4706SOL    HW215958  14.715  10.660   6.591
 4707SOL     OW15959  11.820   5.251   4.882
 4707SOL    HW115960  11.858   5.265   4.795
 4707SOL    HW215961  11.758   5.322   4.892
 4708SOL     OW15962   2.981  11.879   7.412
 4708SOL    HW115963   2.982  11.950   7.347
 4708SOL    HW215964   2.889  11.866   7.432
 4709SOL     OW15965   0.869   4.978   5.565
 4709SOL    HW115966   0.882   5.009   5.476
 4709SOL    HW215967   0.919   5.038   5.619
 4710SOL     OW15968   3.150   6.966  12.100
 4710SOL    HW115969   3.154   6.923  12.186
 4710SOL    HW215970   3.159   7.059  12.119
 4711SOL     OW15971   7.570   2.035   3.550
 4711SOL    HW115972   7.652   1.986   3.538
 4711SOL    HW215973   7.598   2.126   3.561
 4712SOL     OW15974   6.716   3.513   9.769
 4712SOL    HW115975   6.689   3.439   9.715
 4712SOL    HW215976   6.636   3.564   9.781
 4713SOL     OW15977   5.073   5.053   4.785
 4713SOL    HW115978   5.051   5.019   4.698
 4713SOL    HW215979   5.161   5.091   4.774
 4714SOL     OW15980  11.216   2.072  10.251
 4714SOL    HW115981  11.181   2.161  10.256
 4714SOL    HW215982  11.154   2.024  10.197
 4715SOL     OW15983  10.018   4.309  14.677
 4715SOL    HW115984   9.970   4.359  14.611
 4715SOL    HW215985  10.059   4.238  14.628
 4716SOL     OW15986  12.920  13.810   7.696
 4716SOL    HW115987  12.864  13.886   7.679
 4716SOL    HW215988  13.000  13.847   7.734
 4717SOL     OW15989   7.400   4.898  13.465
 4717SOL    HW115990   7.351   4.882  13.384
 4717SOL    HW215991   7.436   4.986  13.454
 4718SOL     OW15992   5.972  13.049   2.945
 4718SOL    HW115993   5.981  13.080   3.035
 4718SOL    HW215994   5.969  13.129   2.892
 4719SOL     OW15995  12.444  10.357   3.409
 4719SOL    HW115996  12.490  10.276   3.430
 4719SOL    HW215997  12.383  10.370   3.481
 4720SOL     OW15998   8.208  13.190  11.445
 4720SOL    HW115999   8.175  13.236  11.368
 4720SOL    HW216000   8.194  13.250  11.517
 4721SOL     OW16001   8.400   7.887   3.233
 4721SOL    HW116002   8.335   7.823   3.263
 4721SOL    HW216003   8.350   7.966   3.216
 4722SOL     OW16004   2.656  11.876  10.825
 4722SOL    HW116005   2.714  11.930  10.773
 4722SOL    HW216006   2.573  11.877  10.778
 4723SOL     OW16007   4.375  12.985   3.459
 4723SOL    HW116008   4.291  13.009   3.500
 4723SOL    HW216009   4.441  13.010   3.524
 4724SOL     OW16010   4.603  13.904   8.945
 4724SOL    HW116011   4.656  13.911   8.866
 4724SOL    HW216012   4.551  13.825   8.932
 4725SOL     OW16013   4.728  14.222   2.724
 4725SOL    HW116014   4.806  14.266   2.758
 4725SOL    HW216015   4.761  14.162   2.657
 4726SOL     OW16016  10.473   1.878   1.364
 4726SOL    HW116017  10.567   1.885   1.382
 4726SOL    HW216018  10.457   1.784   1.354
 4727SOL     OW16019   1.247   3.340   1.840
 4727SOL    HW116020   1.210   3.425   1.816
 4727SOL    HW216021   1.322   3.329   1.781
 4728SOL     OW16022   9.755   3.576   4.872
 4728SOL    HW116023   9.660   3.589   4.870
 4728SOL    HW216024   9.782   3.580   4.780
 4729SOL     OW16025   0.028  13.751   1.517
 4729SOL    HW116026  14.843  13.814   1.475
 4729SOL    HW216027   0.114  13.771   1.480
 4730SOL     OW16028   9.735   1.524   9.143
 4730SOL    HW116029   9.710   1.481   9.225
 4730SOL    HW216030   9.822   1.489   9.123
 4731SOL     OW16031   2.779  12.976   8.128
 4731SOL    HW116032   2.806  12.915   8.197
 4731SOL    HW216033   2.759  13.057   8.175
 4732SOL     OW16034   0.874   1.000  13.376
 4732SOL    HW116035   0.919   0.924  13.339
 4732SOL    HW216036   0.908   1.075  13.327
 4733SOL     OW16037  12.862   5.849   8.909
 4733SOL    HW116038  12.936   5.862   8.969
 4733SOL    HW216039  12.785   5.875   8.961
 4734SOL     OW16040   5.282   6.260   7.658
 4734SOL    HW116041   5.348   6.228   7.719
 4734SOL    HW216042   5.307   6.222   7.573
 4735SOL     OW16043   4.140   3.320  10.080
 4735SOL    HW116044   4.220   3.353  10.120
 4735SOL    HW216045   4.118   3.242  10.131
 4736SOL     OW16046   4.035   8.737   5.936
 4736SOL    HW116047   3.988   8.674   5.990
 4736SOL    HW216048   4.124   8.738   5.970
 4737SOL     OW16049   5.315   6.222  12.123
 4737SOL    HW116050   5.383   6.155  12.115
 4737SOL    HW216051   5.364   6.301  12.146
 4738SOL     OW16052   1.267  12.183  13.835
 4738SOL    HW116053   1.218  12.220  13.909
 4738SOL    HW216054   1.354  12.222  13.842
 4739SOL     OW16055  13.842  12.661   3.995
 4739SOL    HW116056  13.931  12.664   4.031
 4739SOL    HW216057  13.854  12.648   3.901
 4740SOL     OW16058   6.383   7.587   4.774
 4740SOL    HW116059   6.473   7.556   4.762
 4740SOL    HW216060   6.340   7.517   4.824
 4741SOL     OW16061   1.732   4.822  14.745
 4741SOL    HW116062   1.643   4.814  14.780
 4741SOL    HW216063   1.720   4.863  14.659
 4742SOL     OW16064   4.461  14.231   4.309
 4742SOL    HW116065   4.518  14.182   4.369
 4742SOL    HW216066   4.397  14.273   4.366
 4743SOL     OW16067   8.727  14.245   4.733
 4743SOL    HW116068   8.698  14.291   4.811
 4743SOL    HW216069   8.649  14.241   4.677
 4744SOL     OW16070   4.571   3.577   8.036
 4744SOL    HW116071   4.636   3.508   8.053
 4744SOL    HW216072   4.621   3.658   8.038
 4745SOL     OW16073  12.289  13.635   7.183
 4745SOL    HW116074  12.295  13.711   7.124
 4745SOL    HW216075  12.233  13.573   7.136
 4746SOL     OW16076  11.469  11.188   1.683
 4746SOL    HW116077  11.463  11.249   1.610
 4746SOL    HW216078  11.402  11.121   1.664
 4747SOL     OW16079   1.540  13.895   1.039
 4747SOL    HW116080   1.457  13.850   1.026
 4747SOL    HW216081   1.603  13.846   0.987
 4748SOL     OW16082  12.390   2.047   8.771
 4748SOL    HW116083  12.404   2.112   8.840
 4748SOL    HW216084  12.434   2.085   8.694
 4749SOL     OW16085   0.155   0.963   3.750
 4749SOL    HW116086   0.150   0.977   3.844
 4749SOL    HW216087   0.123   0.873   3.738
 4750SOL     OW16088   9.654   2.095   2.121
 4750SOL    HW116089   9.572   2.077   2.168
 4750SOL    HW216090   9.723   2.072   2.184
 4751SOL     OW16091   2.251   0.798  12.351
 4751SOL    HW116092   2.238   0.870  12.289
 4751SOL    HW216093   2.343   0.804  12.376
 4752SOL     OW16094   8.612   0.671   3.039
 4752SOL    HW116095   8.687   0.612   3.032
 4752SOL    HW216096   8.630   0.740   2.976
 4753SOL     OW16097   8.811   1.601   2.705
 4753SOL    HW116098   8.862   1.560   2.635
 4753SOL    HW216099   8.875   1.615   2.775
 4754SOL     OW16100   9.327  10.652   4.419
 4754SOL    HW116101   9.330  10.586   4.351
 4754SOL    HW216102   9.402  10.709   4.401
 4755SOL     OW16103  10.728   6.833  11.147
 4755SOL    HW116104  10.824   6.830  11.142
 4755SOL    HW216105  10.710   6.877  11.230
 4756SOL     OW16106   6.055   2.817  14.805
 4756SOL    HW116107   6.077   2.904  14.774
 4756SOL    HW216108   6.134   2.788  14.851
 4757SOL     OW16109  13.041   0.059   5.033
 4757SOL    HW116110  12.996   0.027   5.111
 4757SOL    HW216111  13.071   0.146   5.057
 4758SOL     OW16112   1.352   4.818   5.892
 4758SOL    HW116113   1.331   4.846   5.981
 4758SOL    HW216114   1.299   4.739   5.879
 4759SOL     OW16115   8.498  11.072   5.535
 4759SOL    HW116116   8.461  11.089   5.449
 4759SOL    HW216117   8.424  11.044   5.589
 4760SOL     OW16118   8.428   7.906   0.791
 4760SOL    HW116119   8.387   7.937   0.711
 4760SOL    HW216120   8.355   7.886   0.849
 4761SOL     OW16121  10.112   0.885   9.764
 4761SOL    HW116122  10.191   0.922   9.801
 4761SOL    HW216123  10.086   0.816   9.825
 4762SOL     OW16124  13.127   5.111   3.909
 4762SOL    HW116125  13.067   5.095   3.836
 4762SOL    HW216126  13.073   5.156   3.974
 4763SOL     OW16127   7.926  10.442  11.262
 4763SOL    HW116128   8.015  10.411  11.246
 4763SOL    HW216129   7.938  10.526  11.306
 4764SOL     OW16130   4.473   6.052   1.600
 4764SOL    HW116131   4.487   5.982   1.537
 4764SOL    HW216132   4.478   6.009   1.685
 4765SOL     OW16133   5.966  13.851   2.765
 4765SOL    HW116134   5.969  13.776   2.705
 4765SOL    HW216135   6.031  13.831   2.832
 4766SOL     OW16136   8.926   4.099  10.763
 4766SOL    HW116137   8.919   4.165  10.832
 4766SOL    HW216138   8.999   4.128  10.709
 4767SOL     OW16139  14.553   4.731   3.214
 4767SOL    HW116140  14.572   4.676   3.138
 4767SOL    HW216141  14.576   4.677   3.290
 4768SOL     OW16142   4.502   2.516   6.558
 4768SOL    HW116143   4.589   2.477   6.556
 4768SOL    HW216144   4.507   2.583   6.626
 4769SOL     OW16145   5.095   2.123   0.362
 4769SOL    HW116146   5.128   2.039   0.329
 4769SOL    HW216147   5.045   2.100   0.440
 4770SOL     OW16148   7.479   1.592  12.859
 4770SOL    HW116149   7.477   1.501  12.889
 4770SOL    HW216150   7.569   1.605  12.829
 4771SOL     OW16151   6.618   8.432   3.837
 4771SOL    HW116152   6.603   8.501   3.771
 4771SOL    HW216153   6.628   8.352   3.786
 4772SOL     OW16154   4.041  14.150   0.211
 4772SOL    HW116155   4.051  14.068   0.259
 4772SOL    HW216156   3.978  14.200   0.263
 4773SOL     OW16157  10.093   6.000  13.900
 4773SOL    HW116158  10.078   6.030  13.810
 4773SOL    HW216159  10.022   6.040  13.950
 4774SOL     OW16160   0.007   4.526  10.382
 4774SOL    HW116161   0.098   4.554  10.395
 4774SOL    HW216162   0.009   4.432  10.398
 4775SOL     OW16163   4.734  13.074   7.810
 4775SOL    HW116164   4.644  13.098   7.832
 4775SOL    HW216165   4.784  13.154   7.823
 4776SOL     OW16166   0.844   7.186   5.258
 4776SOL    HW116167   0.847   7.122   5.187
 4776SOL    HW216168   0.868   7.269   5.216
 4777SOL     OW16169  10.699   9.634   9.090
 4777SOL    HW116170  10.694   9.582   9.171
 4777SOL    HW216171  10.765   9.701   9.108
 4778SOL     OW16172   9.013   9.119   3.510
 4778SOL    HW116173   9.079   9.121   3.441
 4778SOL    HW216174   8.930   9.106   3.464
 4779SOL     OW16175   3.726   5.704   0.855
 4779SOL    HW116176   3.635   5.705   0.826
 4779SOL    HW216177   3.740   5.791   0.894
 4780SOL     OW16178   1.106   1.487  12.578
 4780SOL    HW116179   1.189   1.500  12.533
 4780SOL    HW216180   1.040   1.489  12.508
 4781SOL     OW16181   7.156  13.807   6.648
 4781SOL    HW116182   7.121  13.825   6.561
 4781SOL    HW216183   7.098  13.739   6.683
 4782SOL     OW16184   8.357   6.147   7.556
 4782SOL    HW116185   8.301   6.097   7.616
 4782SOL    HW216186   8.409   6.204   7.613
 4783SOL     OW16187   9.417   9.086   1.497
 4783SOL    HW116188   9.506   9.086   1.464
 4783SOL    HW216189   9.385   9.175   1.481
 4784SOL     OW16190   7.990   6.596  11.025
 4784SOL    HW116191   7.993   6.640  11.110
 4784SOL    HW216192   8.007   6.666  10.962
 4785SOL     OW16193   7.253  10.360  13.551
 4785SOL    HW116194   7.221  10.271  13.566
 4785SOL    HW216195   7.291  10.357  13.463
 4786SOL     OW16196   8.638   0.092   0.911
 4786SOL    HW116197   8.721   0.070   0.869
 4786SOL    HW216198   8.645   0.055   0.999
 4787SOL     OW16199   1.503   5.198   3.078
 4787SOL    HW116200   1.539   5.126   3.026
 4787SOL    HW216201   1.566   5.269   3.066
 4788SOL     OW16202   6.573   0.333   0.036
 4788SOL    HW116203   6.488   0.373   0.057
 4788SOL    HW216204   6.567   0.244   0.072
 4789SOL     OW16205   3.638   0.704  12.977
 4789SOL    HW116206   3.708   0.675  12.919
 4789SOL    HW216207   3.662   0.794  13.001
 4790SOL     OW16208   4.603   8.573   6.668
 4790SOL    HW116209   4.527   8.523   6.641
 4790SOL    HW216210   4.677   8.513   6.658
 4791SOL     OW16211   8.780   8.642   9.146
 4791SOL    HW116212   8.741   8.620   9.062
 4791SOL    HW216213   8.776   8.560   9.196
 4792SOL     OW16214  10.654   0.595   8.090
 4792SOL    HW116215  10.717   0.527   8.111
 4792SOL    HW216216  10.574   0.548   8.066
 4793SOL     OW16217   5.762   6.797  10.114
 4793SOL    HW116218   5.679   6.839  10.136
 4793SOL    HW216219   5.820   6.818  10.187
 4794SOL     OW16220  13.047  11.744  10.303
 4794SOL    HW116221  13.057  11.657  10.342
 4794SOL    HW216222  12.983  11.788  10.360
 4795SOL     OW16223  11.524  12.212   5.935
 4795SOL    HW116224  11.540  12.238   5.845
 4795SOL    HW216225  11.530  12.116   5.934
 4796SOL     OW16226   1.224   9.572   6.003
 4796SOL    HW116227   1.291   9.506   5.984
 4796SOL    HW216228   1.152   9.551   5.944
 4797SOL     OW16229   6.494   8.161   0.654
 4797SOL    HW116230   6.549   8.208   0.591
 4797SOL    HW216231   6.538   8.076   0.665
 4798SOL     OW16232   8.150   8.192  10.109
 4798SOL    HW116233   8.116   8.167  10.195
 4798SOL    HW216234   8.099   8.269  10.085
 4799SOL     OW16235   7.319   1.169   9.391
 4799SOL    HW116236   7.299   1.077   9.408
 4799SOL    HW216237   7.234   1.208   9.369
 4800SOL     OW16238   1.185   4.196   1.750
 4800SOL    HW116239   1.091   4.203   1.730
 4800SOL    HW216240   1.209   4.285   1.777
 4801SOL     OW16241   7.941   5.134   2.623
 4801SOL    HW116242   7.979   5.050   2.650
 4801SOL    HW216243   7.860   5.109   2.578
 4802SOL     OW16244   8.773   2.259   5.825
 4802SOL    HW116245   8.691   2.308   5.838
 4802SOL    HW216246   8.824   2.314   5.765
 4803SOL     OW16247  11.420   1.516   3.788
 4803SOL    HW116248  11.417   1.427   3.824
 4803SOL    HW216249  11.330   1.536   3.766
 4804SOL     OW16250   8.377   7.848   7.285
 4804SOL    HW116251   8.297   7.866   7.335
 4804SOL    HW216252   8.361   7.762   7.246
 4805SOL     OW16253  13.105  14.435   8.526
 4805SOL    HW116254  13.032  14.472   8.576
 4805SOL    HW216255  13.083  14.453   8.435
 4806SOL     OW16256  13.232   6.963   4.836
 4806SOL    HW116257  13.204   7.052   4.857
 4806SOL    HW216258  13.164   6.929   4.779
 4807SOL     OW16259   4.599   0.065   5.612
 4807SOL    HW116260   4.538   0.071   5.538
 4807SOL    HW216261   4.651  14.861   5.594
 4808SOL     OW16262   5.562   3.102   7.275
 4808SOL    HW116263   5.547   3.171   7.210
 4808SOL    HW216264   5.476   3.060   7.285
 4809SOL     OW16265   7.705  14.801   8.613
 4809SOL    HW116266   7.799  14.785   8.628
 4809SOL    HW216267   7.702   0.011   8.568
 4810SOL     OW16268  13.682   4.309  13.123
 4810SOL    HW116269  13.682   4.312  13.219
 4810SOL    HW216270  13.773   4.289  13.099
 4811SOL     OW16271   7.156   8.691  13.886
 4811SOL    HW116272   7.115   8.731  13.809
 4811SOL    HW216273   7.183   8.766  13.940
 4812SOL     OW16274  13.673   7.841  10.461
 4812SOL    HW116275  13.610   7.792  10.409
 4812SOL    HW216276  13.752   7.788  10.460
 4813SOL     OW16277   2.689   1.348   2.993
 4813SOL    HW116278   2.673   1.405   3.069
 4813SOL    HW216279   2.783   1.355   2.978
 4814SOL     OW16280  11.470   0.770  10.156
 4814SOL    HW116281  11.490   0.687  10.114
 4814SOL    HW216282  11.489   0.755  10.249
 4815SOL     OW16283   7.261   7.209   7.913
 4815SOL    HW116284   7.317   7.240   7.842
 4815SOL    HW216285   7.237   7.289   7.961
 4816SOL     OW16286   3.195   0.198   2.696
 4816SOL    HW116287   3.162   0.251   2.623
 4816SOL    HW216288   3.273   0.245   2.726
 4817SOL     OW16289  12.035   3.876  10.143
 4817SOL    HW116290  12.126   3.874  10.113
 4817SOL    HW216291  11.989   3.925  10.075
 4818SOL     OW16292  10.534   7.252   1.420
 4818SOL    HW116293  10.528   7.273   1.513
 4818SOL    HW216294  10.544   7.156   1.418
 4819SOL     OW16295   8.480   2.783   1.244
 4819SOL    HW116296   8.491   2.852   1.179
 4819SOL    HW216297   8.541   2.806   1.314
 4820SOL     OW16298   6.036   0.254  10.751
 4820SOL    HW116299   5.972   0.217  10.812
 4820SOL    HW216300   6.101   0.184  10.739
 4821SOL     OW16301   7.465   8.313  11.083
 4821SOL    HW116302   7.489   8.224  11.056
 4821SOL    HW216303   7.454   8.308  11.177
 4822SOL     OW16304   1.894   4.634   0.439
 4822SOL    HW116305   1.800   4.649   0.431
 4822SOL    HW216306   1.933   4.718   0.415
 4823SOL     OW16307   5.432   6.260   4.672
 4823SOL    HW116308   5.379   6.181   4.669
 4823SOL    HW216309   5.416   6.302   4.587
 4824SOL     OW16310  11.673  10.281   7.779
 4824SOL    HW116311  11.736  10.277   7.707
 4824SOL    HW216312  11.609  10.213   7.758
 4825SOL     OW16313   3.812  14.730  13.806
 4825SOL    HW116314   3.867  14.799  13.843
 4825SOL    HW216315   3.802  14.754  13.714
 4826SOL     OW16316   0.260   3.902  14.827
 4826SOL    HW116317   0.333   3.950  14.867
 4826SOL    HW216318   0.297   3.864  14.748
 4827SOL     OW16319   0.854   6.116   7.773
 4827SOL    HW116320   0.843   6.199   7.726
 4827SOL    HW216321   0.769   6.100   7.814
 4828SOL     OW16322  13.149   2.248   3.466
 4828SOL    HW116323  13.165   2.330   3.418
 4828SOL    HW216324  13.144   2.275   3.558
 4829SOL     OW16325  12.512   4.031   7.707
 4829SOL    HW116326  12.519   4.123   7.680
 4829SOL    HW216327  12.588   3.988   7.667
 4830SOL     OW16328   9.101   6.984  13.491
 4830SOL    HW116329   9.106   6.930  13.570
 4830SOL    HW216330   9.061   6.927  13.425
 4831SOL     OW16331  14.345   9.798   5.039
 4831SOL    HW116332  14.308   9.857   4.974
 4831SOL    HW216333  14.278   9.791   5.106
 4832SOL     OW16334   0.552   3.086   2.790
 4832SOL    HW116335   0.558   3.018   2.723
 4832SOL    HW216336   0.460   3.110   2.792
 4833SOL     OW16337  10.198   7.086   9.703
 4833SOL    HW116338  10.182   7.163   9.758
 4833SOL    HW216339  10.182   7.012   9.762
 4834SOL     OW16340   2.346  14.502   4.801
 4834SOL    HW116341   2.323  14.410   4.791
 4834SOL    HW216342   2.346  14.537   4.712
 4835SOL     OW16343  10.168  11.062   6.621
 4835SOL    HW116344  10.222  11.042   6.696
 4835SOL    HW216345  10.227  11.056   6.546
 4836SOL     OW16346   9.010   7.332   6.035
 4836SOL    HW116347   9.048   7.410   5.994
 4836SOL    HW216348   9.086   7.280   6.062
 4837SOL     OW16349  10.283  10.654   9.193
 4837SOL    HW116350  10.256  10.745   9.180
 4837SOL    HW216351  10.288  10.618   9.105
 4838SOL     OW16352  11.908   0.390   6.360
 4838SOL    HW116353  11.950   0.466   6.401
 4838SOL    HW216354  11.833   0.428   6.313
 4839SOL     OW16355  13.177   1.020  11.327
 4839SOL    HW116356  13.137   1.023  11.414
 4839SOL    HW216357  13.266   1.053  11.341
 4840SOL     OW16358   7.015  14.429   9.613
 4840SOL    HW116359   7.059  14.346   9.596
 4840SOL    HW216360   6.981  14.420   9.702
 4841SOL     OW16361  12.961   2.133   1.041
 4841SOL    HW116362  12.931   2.220   1.016
 4841SOL    HW216363  12.979   2.089   0.958
 4842SOL     OW16364   5.729  11.351   9.819
 4842SOL    HW116365   5.657  11.408   9.846
 4842SOL    HW216366   5.796  11.411   9.786
 4843SOL     OW16367  11.794  12.549   0.680
 4843SOL    HW116368  11.772  12.494   0.755
 4843SOL    HW216369  11.890  12.555   0.683
 4844SOL     OW16370   1.434  11.389   7.923
 4844SOL    HW116371   1.346  11.418   7.947
 4844SOL    HW216372   1.427  11.362   7.832
 4845SOL     OW16373  13.502   1.257   3.406
 4845SOL    HW116374  13.546   1.217   3.331
 4845SOL    HW216375  13.442   1.320   3.367
 4846SOL     OW16376   5.186  14.542   5.473
 4846SOL    HW116377   5.188  14.474   5.540
 4846SOL    HW216378   5.103  14.527   5.427
 4847SOL     OW16379   6.045   5.810   9.871
 4847SOL    HW116380   6.017   5.824   9.780
 4847SOL    HW216381   5.985   5.743   9.904
 4848SOL     OW16382   6.646  12.723   1.366
 4848SOL    HW116383   6.644  12.652   1.431
 4848SOL    HW216384   6.579  12.698   1.302
 4849SOL     OW16385   3.695   3.428  14.014
 4849SOL    HW116386   3.745   3.434  14.095
 4849SOL    HW216387   3.643   3.508  14.012
 4850SOL     OW16388   8.620   8.964   0.736
 4850SOL    HW116389   8.649   8.983   0.647
 4850SOL    HW216390   8.600   8.870   0.736
 4851SOL     OW16391  10.835   5.561   4.268
 4851SOL    HW116392  10.911   5.618   4.271
 4851SOL    HW216393  10.780   5.596   4.198
 4852SOL     OW16394   9.560   3.683  11.384
 4852SOL    HW116395   9.616   3.760  11.373
 4852SOL    HW216396   9.481   3.704  11.334
 4853SOL     OW16397  14.807   6.201   4.182
 4853SOL    HW116398  14.814   6.114   4.219
 4853SOL    HW216399  14.712   6.217   4.174
 4854SOL     OW16400   5.929  11.402   4.992
 4854SOL    HW116401   5.937  11.425   5.084
 4854SOL    HW216402   5.867  11.329   4.991
 4855SOL     OW16403   1.548   9.545   4.901
 4855SOL    HW116404   1.482   9.553   4.832
 4855SOL    HW216405   1.632   9.549   4.854
 4856SOL     OW16406   1.996   2.166   5.052
 4856SOL    HW116407   1.951   2.248   5.072
 4856SOL    HW216408   1.944   2.099   5.095
 4857SOL     OW16409   8.687   4.137   6.160
 4857SOL    HW116410   8.753   4.202   6.137
 4857SOL    HW216411   8.732   4.078   6.221
 4858SOL     OW16412  11.103   6.994   5.850
 4858SOL    HW116413  11.011   6.971   5.834
 4858SOL    HW216414  11.149   6.910   5.845
 4859SOL     OW16415   2.762   7.510   5.343
 4859SOL    HW116416   2.849   7.475   5.325
 4859SOL    HW216417   2.770   7.555   5.427
 4860SOL     OW16418   4.512   4.143   7.472
 4860SOL    HW116419   4.429   4.186   7.494
 4860SOL    HW216420   4.561   4.209   7.423
 4861SOL     OW16421  12.453  11.275   3.626
 4861SOL    HW116422  12.477  11.318   3.544
 4861SOL    HW216423  12.359  11.287   3.633
 4862SOL     OW16424  14.512  13.542   9.298
 4862SOL    HW116425  14.531  13.460   9.343
 4862SOL    HW216426  14.422  13.563   9.323
 4863SOL     OW16427   1.757  11.276  12.071
 4863SOL    HW116428   1.794  11.351  12.117
 4863SOL    HW216429   1.798  11.199  12.112
 4864SOL     OW16430   9.249   5.585   7.482
 4864SOL    HW116431   9.218   5.662   7.530
 4864SOL    HW216432   9.301   5.621   7.410
 4865SOL     OW16433   2.244  13.495  13.119
 4865SOL    HW116434   2.198  13.563  13.168
 4865SOL    HW216435   2.336  13.519  13.125
 4866SOL     OW16436   0.078   6.011   1.051
 4866SOL    HW116437   0.119   6.097   1.063
 4866SOL    HW216438   0.012   6.026   0.984
 4867SOL     OW16439   5.752  13.790   0.434
 4867SOL    HW116440   5.752  13.834   0.349
 4867SOL    HW216441   5.824  13.728   0.429
 4868SOL     OW16442  12.252   8.417   1.133
 4868SOL    HW116443  12.263   8.343   1.193
 4868SOL    HW216444  12.193   8.476   1.179
 4869SOL     OW16445   8.361   7.307   6.452
 4869SOL    HW116446   8.438   7.365   6.447
 4869SOL    HW216447   8.288   7.362   6.424
 4870SOL     OW16448   9.445   7.563  11.746
 4870SOL    HW116449   9.479   7.483  11.707
 4870SOL    HW216450   9.502   7.580  11.821
 4871SOL     OW16451   7.395  13.689   5.026
 4871SOL    HW116452   7.357  13.647   5.103
 4871SOL    HW216453   7.470  13.634   5.003
 4872SOL     OW16454   5.473   6.141   7.924
 4872SOL    HW116455   5.480   6.048   7.946
 4872SOL    HW216456   5.391   6.169   7.964
 4873SOL     OW16457  12.854  11.689  13.369
 4873SOL    HW116458  12.850  11.690  13.274
 4873SOL    HW216459  12.847  11.781  13.395
 4874SOL     OW16460  14.806   4.989   0.464
 4874SOL    HW116461  14.826   4.896   0.451
 4874SOL    HW216462  14.772   5.019   0.380
 4875SOL     OW16463   8.613   4.371   6.952
 4875SOL    HW116464   8.540   4.309   6.945
 4875SOL    HW216465   8.656   4.349   7.035
 4876SOL     OW16466   6.148   0.683   9.353
 4876SOL    HW116467   6.167   0.725   9.269
 4876SOL    HW216468   6.057   0.655   9.346
 4877SOL     OW16469  13.798   2.317   4.248
 4877SOL    HW116470  13.808   2.273   4.163
 4877SOL    HW216471  13.802   2.247   4.312
 4878SOL     OW16472   3.929   5.688   1.799
 4878SOL    HW116473   3.849   5.675   1.749
 4878SOL    HW216474   3.930   5.616   1.862
 4879SOL     OW16475   7.748  13.675   1.526
 4879SOL    HW116476   7.655  13.687   1.507
 4879SOL    HW216477   7.753  13.678   1.622
 4880SOL     OW16478   4.971   5.876   6.559
 4880SOL    HW116479   4.925   5.871   6.643
 4880SOL    HW216480   4.901   5.884   6.494
 4881SOL     OW16481   2.808   9.265   1.226
 4881SOL    HW116482   2.875   9.198   1.240
 4881SOL    HW216483   2.825   9.331   1.293
 4882SOL     OW16484  10.749  14.163   7.813
 4882SOL    HW116485  10.680  14.124   7.759
 4882SOL    HW216486  10.800  14.216   7.753
 4883SOL     OW16487   7.329   6.755   7.950
 4883SOL    HW116488   7.367   6.835   7.986
 4883SOL    HW216489   7.289   6.783   7.867
 4884SOL     OW16490   8.043   0.152   5.465
 4884SOL    HW116491   8.002   0.195   5.390
 4884SOL    HW216492   8.122   0.204   5.482
 4885SOL     OW16493   0.809   3.905   1.227
 4885SOL    HW116494   0.721   3.899   1.265
 4885SOL    HW216495   0.828   3.817   1.195
 4886SOL     OW16496   5.000   7.082   7.135
 4886SOL    HW116497   5.052   7.162   7.122
 4886SOL    HW216498   4.962   7.093   7.223
 4887SOL     OW16499   8.077   6.717   1.971
 4887SOL    HW116500   8.037   6.800   1.998
 4887SOL    HW216501   8.108   6.678   2.053
 4888SOL     OW16502   7.444   2.219   2.018
 4888SOL    HW116503   7.484   2.303   2.044
 4888SOL    HW216504   7.409   2.237   1.931
 4889SOL     OW16505   3.609   2.551  10.282
 4889SOL    HW116506   3.520   2.554  10.319
 4889SOL    HW216507   3.612   2.625  10.222
 4890SOL     OW16508  11.725   7.533   7.855
 4890SOL    HW116509  11.717   7.601   7.788
 4890SOL    HW216510  11.791   7.473   7.820
 4891SOL     OW16511  13.560  10.271   8.660
 4891SOL    HW116512  13.652  10.280   8.687
 4891SOL    HW216513  13.542  10.178   8.665
 4892SOL     OW16514   4.986   1.111  13.786
 4892SOL    HW116515   4.906   1.128  13.836
 4892SOL    HW216516   5.050   1.084  13.852
 4893SOL     OW16517   7.009  10.701   5.948
 4893SOL    HW116518   6.972  10.687   5.861
 4893SOL    HW216519   7.101  10.719   5.933
 4894SOL     OW16520  11.343  13.222  13.524
 4894SOL    HW116521  11.381  13.163  13.589
 4894SOL    HW216522  11.285  13.278  13.575
 4895SOL     OW16523   1.397   7.372  12.743
 4895SOL    HW116524   1.378   7.283  12.772
 4895SOL    HW216525   1.365   7.376  12.653
 4896SOL     OW16526   5.703   6.927   3.665
 4896SOL    HW116527   5.658   6.856   3.619
 4896SOL    HW216528   5.698   6.903   3.758
 4897SOL     OW16529   6.692  14.444   6.014
 4897SOL    HW116530   6.609  14.408   5.983
 4897SOL    HW216531   6.675  14.537   6.026
 4898SOL     OW16532   1.351   9.925   4.039
 4898SOL    HW116533   1.275   9.910   4.097
 4898SOL    HW216534   1.426   9.893   4.089
 4899SOL     OW16535   2.599   5.602   4.191
 4899SOL    HW116536   2.612   5.694   4.167
 4899SOL    HW216537   2.505   5.593   4.204
 4900SOL     OW16538   4.299  13.502  13.005
 4900SOL    HW116539   4.296  13.526  13.098
 4900SOL    HW216540   4.210  13.514  12.974
 4901SOL     OW16541   0.064   4.169   8.204
 4901SOL    HW116542   0.056   4.132   8.292
 4901SOL    HW216543   0.028   4.102   8.147
 4902SOL     OW16544   6.516  13.743   1.526
 4902SOL    HW116545   6.501  13.781   1.612
 4902SOL    HW216546   6.610  13.725   1.523
 4903SOL     OW16547   1.373   4.259   6.267
 4903SOL    HW116548   1.332   4.200   6.330
 4903SOL    HW216549   1.359   4.346   6.304
 4904SOL     OW16550  13.789   6.876   8.019
 4904SOL    HW116551  13.793   6.960   7.973
 4904SOL    HW216552  13.737   6.820   7.962
 4905SOL     OW16553   4.109   8.231  13.545
 4905SOL    HW116554   4.058   8.290  13.600
 4905SOL    HW216555   4.044   8.172  13.506
 4906SOL     OW16556   8.171  13.406  10.726
 4906SOL    HW116557   8.198  13.492  10.694
 4906SOL    HW216558   8.250  13.370  10.766
 4907SOL     OW16559   4.966  10.934  12.154
 4907SOL    HW116560   4.945  10.863  12.215
 4907SOL    HW216561   4.908  10.919  12.079
 4908SOL     OW16562   6.153  10.685  12.045
 4908SOL    HW116563   6.232  10.731  12.016
 4908SOL    HW216564   6.145  10.612  11.984
 4909SOL     OW16565   7.478   9.427   3.063
 4909SOL    HW116566   7.400   9.417   3.118
 4909SOL    HW216567   7.508   9.337   3.047
 4910SOL     OW16568   6.505   2.475   5.137
 4910SOL    HW116569   6.542   2.503   5.221
 4910SOL    HW216570   6.490   2.381   5.148
 4911SOL     OW16571  14.829   0.802  12.200
 4911SOL    HW116572  14.792   0.747  12.132
 4911SOL    HW216573  14.778   0.883  12.196
 4912SOL     OW16574  14.561   4.378  10.585
 4912SOL    HW116575  14.633   4.440  10.587
 4912SOL    HW216576  14.499   4.411  10.650
 4913SOL     OW16577  10.166  13.274   7.034
 4913SOL    HW116578  10.233  13.209   7.010
 4913SOL    HW216579  10.086  13.223   7.045
 4914SOL     OW16580   2.743   5.286   3.142
 4914SOL    HW116581   2.796   5.353   3.185
 4914SOL    HW216582   2.797   5.256   3.069
 4915SOL     OW16583   4.455   7.874  14.440
 4915SOL    HW116584   4.549   7.888  14.428
 4915SOL    HW216585   4.426   7.834  14.358
 4916SOL     OW16586   1.446  10.329  11.187
 4916SOL    HW116587   1.500  10.398  11.225
 4916SOL    HW216588   1.422  10.273  11.261
 4917SOL     OW16589   5.820   1.455  11.337
 4917SOL    HW116590   5.800   1.530  11.282
 4917SOL    HW216591   5.742   1.400  11.332
 4918SOL     OW16592  12.581   0.405   6.827
 4918SOL    HW116593  12.508   0.374   6.881
 4918SOL    HW216594  12.655   0.351   6.855
 4919SOL     OW16595   7.741   4.355   3.636
 4919SOL    HW116596   7.667   4.395   3.590
 4919SOL    HW216597   7.706   4.274   3.672
 4920SOL     OW16598   1.886  11.944  14.466
 4920SOL    HW116599   1.953  11.952  14.397
 4920SOL    HW216600   1.917  12.001  14.536
 4921SOL     OW16601  10.204   6.020   0.010
 4921SOL    HW116602  10.113   5.991   0.002
 4921SOL    HW216603  10.211   6.092  14.821
 4922SOL     OW16604   1.584   0.846   5.028
 4922SOL    HW116605   1.558   0.754   5.025
 4922SOL    HW216606   1.539   0.882   5.104
 4923SOL     OW16607   2.858   9.776  12.464
 4923SOL    HW116608   2.840   9.689  12.429
 4923SOL    HW216609   2.835   9.836  12.394
 4924SOL     OW16610   5.308   2.351  11.456
 4924SOL    HW116611   5.337   2.404  11.530
 4924SOL    HW216612   5.214   2.339  11.470
 4925SOL     OW16613   4.688  14.061   1.484
 4925SOL    HW116614   4.719  14.004   1.554
 4925SOL    HW216615   4.615  14.014   1.444
 4926SOL     OW16616  14.772   7.286   2.392
 4926SOL    HW116617  14.815   7.217   2.442
 4926SOL    HW216618  14.842   7.346   2.369
 4927SOL     OW16619  11.304   8.114   3.495
 4927SOL    HW116620  11.398   8.103   3.484
 4927SOL    HW216621  11.277   8.042   3.553
 4928SOL     OW16622   2.645   5.253   2.191
 4928SOL    HW116623   2.578   5.190   2.163
 4928SOL    HW216624   2.628   5.266   2.284
 4929SOL     OW16625  13.706   1.970   9.630
 4929SOL    HW116626  13.625   1.924   9.652
 4929SOL    HW216627  13.742   1.997   9.715
 4930SOL     OW16628   7.372   5.850   4.133
 4930SOL    HW116629   7.316   5.928   4.134
 4930SOL    HW216630   7.312   5.778   4.112
 4931SOL     OW16631  13.729   4.841   9.219
 4931SOL    HW116632  13.741   4.935   9.231
 4931SOL    HW216633  13.780   4.820   9.141
 4932SOL     OW16634  10.531   1.158   5.316
 4932SOL    HW116635  10.565   1.238   5.354
 4932SOL    HW216636  10.601   1.127   5.258
 4933SOL     OW16637  10.900   8.696   8.654
 4933SOL    HW116638  10.947   8.695   8.738
 4933SOL    HW216639  10.958   8.744   8.595
 4934SOL     OW16640  10.396   7.701   0.844
 4934SOL    HW116641  10.485   7.671   0.863
 4934SOL    HW216642  10.341   7.626   0.863
 4935SOL     OW16643   7.197   0.174   8.427
 4935SOL    HW116644   7.245   0.225   8.492
 4935SOL    HW216645   7.194   0.085   8.463
 4936SOL     OW16646   4.507   3.524   1.968
 4936SOL    HW116647   4.454   3.592   2.009
 4936SOL    HW216648   4.586   3.519   2.022
 4937SOL     OW16649  11.661   8.312   3.259
 4937SOL    HW116650  11.633   8.331   3.169
 4937SOL    HW216651  11.697   8.395   3.291
 4938SOL     OW16652   5.014   0.438   7.826
 4938SOL    HW116653   5.068   0.503   7.870
 4938SOL    HW216654   5.072   0.396   7.763
 4939SOL     OW16655   3.461  11.606  13.964
 4939SOL    HW116656   3.490  11.543  14.029
 4939SOL    HW216657   3.528  11.604  13.896
 4940SOL     OW16658  10.016   4.379  11.132
 4940SOL    HW116659   9.984   4.374  11.042
 4940SOL    HW216660   9.937   4.394  11.184
 4941SOL     OW16661  13.321   2.918   6.464
 4941SOL    HW116662  13.336   2.873   6.381
 4941SOL    HW216663  13.343   2.854   6.531
 4942SOL     OW16664   4.633  14.176  14.348
 4942SOL    HW116665   4.701  14.132  14.398
 4942SOL    HW216666   4.581  14.105  14.310
 4943SOL     OW16667   2.598   3.602   8.215
 4943SOL    HW116668   2.572   3.634   8.128
 4943SOL    HW216669   2.522   3.620   8.271
 4944SOL     OW16670   6.140   3.643   1.236
 4944SOL    HW116671   6.180   3.729   1.224
 4944SOL    HW216672   6.073   3.657   1.303
 4945SOL     OW16673   2.027   0.624   0.865
 4945SOL    HW116674   1.971   0.563   0.913
 4945SOL    HW216675   2.094   0.568   0.825
 4946SOL     OW16676  11.782   5.384   5.308
 4946SOL    HW116677  11.796   5.477   5.290
 4946SOL    HW216678  11.689   5.377   5.330
 4947SOL     OW16679  12.762  12.134   3.754
 4947SOL    HW116680  12.790  12.216   3.794
 4947SOL    HW216681  12.838  12.077   3.761
 4948SOL     OW16682   7.874   3.111   2.028
 4948SOL    HW116683   7.942   3.149   2.083
 4948SOL    HW216684   7.881   3.017   2.041
 4949SOL     OW16685   3.827  13.853  10.848
 4949SOL    HW116686   3.865  13.835  10.934
 4949SOL    HW216687   3.900  13.845  10.786
 4950SOL     OW16688  14.812   6.141  12.971
 4950SOL    HW116689  14.866   6.212  13.004
 4950SOL    HW216690  14.855   6.061  13.002
 4951SOL     OW16691  13.253   9.699   8.483
 4951SOL    HW116692  13.244   9.793   8.471
 4951SOL    HW216693  13.303   9.670   8.406
 4952SOL     OW16694  11.716   7.888   0.306
 4952SOL    HW116695  11.720   7.843   0.221
 4952SOL    HW216696  11.637   7.941   0.301
 4953SOL     OW16697  10.915  12.493  13.344
 4953SOL    HW116698  10.992  12.469  13.292
 4953SOL    HW216699  10.911  12.589  13.337
 4954SOL     OW16700  10.294  10.225   1.539
 4954SOL    HW116701  10.263  10.293   1.598
 4954SOL    HW216702  10.347  10.168   1.593
 4955SOL     OW16703   7.556  13.407  11.535
 4955SOL    HW116704   7.506  13.352  11.474
 4955SOL    HW216705   7.539  13.368  11.621
 4956SOL     OW16706  14.237   0.091   6.156
 4956SOL    HW116707  14.291   0.048   6.222
 4956SOL    HW216708  14.148   0.084   6.188
 4957SOL     OW16709  13.105  12.020  12.318
 4957SOL    HW116710  13.009  12.017  12.322
 4957SOL    HW216711  13.132  11.931  12.342
 4958SOL     OW16712  14.759   0.461  12.415
 4958SOL    HW116713  14.796   0.543  12.383
 4958SOL    HW216714  14.829   0.397  12.404
 4959SOL     OW16715  11.333  14.520  14.649
 4959SOL    HW116716  11.247  14.558  14.631
 4959SOL    HW216717  11.351  14.466  14.572
 4960SOL     OW16718  11.018   8.623   5.612
 4960SOL    HW116719  11.061   8.580   5.538
 4960SOL    HW216720  10.937   8.573   5.625
 4961SOL     OW16721   1.665   9.497  13.142
 4961SOL    HW116722   1.722   9.572  13.128
 4961SOL    HW216723   1.620   9.485  13.058
 4962SOL     OW16724   0.111  11.637   8.265
 4962SOL    HW116725   0.187  11.692   8.283
 4962SOL    HW216726   0.148  11.552   8.243
 4963SOL     OW16727   5.734  14.780  11.341
 4963SOL    HW116728   5.794  14.818  11.406
 4963SOL    HW216729   5.679  14.720  11.391
 4964SOL     OW16730   5.667   4.096  10.924
 4964SOL    HW116731   5.651   4.150  11.002
 4964SOL    HW216732   5.630   4.147  10.852
 4965SOL     OW16733   6.317   9.382   3.948
 4965SOL    HW116734   6.279   9.468   3.933
 4965SOL    HW216735   6.396   9.399   3.999
 4966SOL     OW16736   4.327   8.114   9.763
 4966SOL    HW116737   4.266   8.041   9.766
 4966SOL    HW216738   4.311   8.162   9.844
 4967SOL     OW16739   7.839   3.633  14.151
 4967SOL    HW116740   7.753   3.668  14.173
 4967SOL    HW216741   7.873   3.597  14.233
 4968SOL     OW16742  10.254   7.711   2.859
 4968SOL    HW116743  10.229   7.689   2.949
 4968SOL    HW216744  10.278   7.628   2.819
 4969SOL     OW16745  13.137   1.158   4.044
 4969SOL    HW116746  13.111   1.163   3.953
 4969SOL    HW216747  13.062   1.192   4.093
 4970SOL     OW16748   7.507  13.316  10.603
 4970SOL    HW116749   7.448  13.305  10.529
 4970SOL    HW216750   7.592  13.284  10.570
 4971SOL     OW16751   3.985   6.403   8.198
 4971SOL    HW116752   3.893   6.418   8.218
 4971SOL    HW216753   4.009   6.476   8.141
 4972SOL     OW16754   2.520   7.626  11.085
 4972SOL    HW116755   2.548   7.536  11.073
 4972SOL    HW216756   2.428   7.620  11.110
 4973SOL     OW16757   1.276   2.486  14.290
 4973SOL    HW116758   1.218   2.527  14.353
 4973SOL    HW216759   1.258   2.530  14.207
 4974SOL     OW16760  11.377  13.145  12.374
 4974SOL    HW116761  11.344  13.091  12.303
 4974SOL    HW216762  11.445  13.200  12.334
 4975SOL     OW16763  11.503   2.387   7.213
 4975SOL    HW116764  11.540   2.423   7.132
 4975SOL    HW216765  11.567   2.410   7.281
 4976SOL     OW16766   3.186   7.364   9.431
 4976SOL    HW116767   3.279   7.387   9.427
 4976SOL    HW216768   3.185   7.274   9.465
 4977SOL     OW16769   5.177   9.096   5.304
 4977SOL    HW116770   5.222   9.028   5.254
 4977SOL    HW216771   5.127   9.048   5.370
 4978SOL     OW16772   4.533   9.930  11.987
 4978SOL    HW116773   4.549   9.851  11.936
 4978SOL    HW216774   4.520   9.898  12.076
 4979SOL     OW16775  13.060  10.594   6.180
 4979SOL    HW116776  13.082  10.579   6.088
 4979SOL    HW216777  12.970  10.628   6.177
 4980SOL     OW16778   2.889  11.623   8.961
 4980SOL    HW116779   2.916  11.679   9.034
 4980SOL    HW216780   2.833  11.557   9.001
 4981SOL     OW16781   6.295   7.260   8.689
 4981SOL    HW116782   6.358   7.264   8.761
 4981SOL    HW216783   6.342   7.292   8.613
 4982SOL     OW16784  12.855   9.565  11.652
 4982SOL    HW116785  12.762   9.555  11.630
 4982SOL    HW216786  12.870   9.660  11.646
 4983SOL     OW16787   4.893   0.048   1.627
 4983SOL    HW116788   4.957  14.867   1.672
 4983SOL    HW216789   4.844   0.091   1.697
 4984SOL     OW16790  12.676   0.547   0.390
 4984SOL    HW116791  12.742   0.608   0.423
 4984SOL    HW216792  12.709   0.460   0.412
 4985SOL     OW16793   7.368  12.050   3.062
 4985SOL    HW116794   7.417  11.991   3.120
 4985SOL    HW216795   7.408  12.039   2.976
 4986SOL     OW16796  12.323  14.376   8.726
 4986SOL    HW116797  12.298  14.297   8.678
 4986SOL    HW216798  12.406  14.403   8.687
 4987SOL     OW16799  14.192   8.077   0.837
 4987SOL    HW116800  14.193   8.118   0.750
 4987SOL    HW216801  14.102   8.091   0.868
 4988SOL     OW16802   8.272   1.172   7.423
 4988SOL    HW116803   8.194   1.215   7.458
 4988SOL    HW216804   8.326   1.154   7.500
 4989SOL     OW16805  12.300  14.349  14.784
 4989SOL    HW116806  12.262  14.432  14.812
 4989SOL    HW216807  12.392  14.369  14.769
 4990SOL     OW16808  11.282   0.609   2.318
 4990SOL    HW116809  11.292   0.523   2.359
 4990SOL    HW216810  11.245   0.591   2.232
 4991SOL     OW16811   6.667   1.244  13.839
 4991SOL    HW116812   6.660   1.338  13.857
 4991SOL    HW216813   6.597   1.204  13.891
 4992SOL     OW16814  10.135   4.953   6.442
 4992SOL    HW116815  10.222   4.920   6.419
 4992SOL    HW216816  10.150   5.009   6.518
 4993SOL     OW16817   5.108   7.592   3.108
 4993SOL    HW116818   5.084   7.683   3.094
 4993SOL    HW216819   5.070   7.545   3.033
 4994SOL     OW16820   8.354   5.279   2.960
 4994SOL    HW116821   8.444   5.247   2.969
 4994SOL    HW216822   8.355   5.329   2.878
 4995SOL     OW16823   4.864   6.492   7.318
 4995SOL    HW116824   4.879   6.474   7.411
 4995SOL    HW216825   4.822   6.412   7.285
 4996SOL     OW16826   6.051   7.563   3.381
 4996SOL    HW116827   6.119   7.497   3.399
 4996SOL    HW216828   5.969   7.516   3.393
 4997SOL     OW16829  12.873   7.925   6.222
 4997SOL    HW116830  12.861   7.842   6.268
 4997SOL    HW216831  12.797   7.978   6.248
 4998SOL     OW16832   0.148   2.714   2.792
 4998SOL    HW116833   0.140   2.686   2.701
 4998SOL    HW216834   0.079   2.779   2.803
 4999SOL     OW16835   7.743  13.473   7.769
 4999SOL    HW116836   7.699  13.389   7.782
 4999SOL    HW216837   7.699  13.533   7.830
 5000SOL     OW16838   3.409   9.244   2.748
 5000SOL    HW116839   3.461   9.172   2.783
 5000SOL    HW216840   3.374   9.210   2.666
 5001SOL     OW16841   0.604   4.349   4.213
 5001SOL    HW116842   0.577   4.297   4.289
 5001SOL    HW216843   0.555   4.430   4.220
 5002SOL     OW16844   6.433   5.622  13.912
 5002SOL    HW116845   6.421   5.685  13.841
 5002SOL    HW216846   6.526   5.628  13.934
 5003SOL     OW16847  10.448  14.603   2.846
 5003SOL    HW116848  10.378  14.591   2.782
 5003SOL    HW216849  10.428  14.542   2.916
 5004SOL     OW16850   3.793  14.429   8.372
 5004SOL    HW116851   3.860  14.484   8.333
 5004SOL    HW216852   3.832  14.396   8.453
 5005SOL     OW16853  10.110   5.052   2.573
 5005SOL    HW116854  10.093   5.046   2.479
 5005SOL    HW216855  10.029   5.020   2.614
 5006SOL     OW16856   1.143   4.978  14.510
 5006SOL    HW116857   1.081   4.924  14.461
 5006SOL    HW216858   1.213   4.918  14.536
 5007SOL     OW16859   4.179   5.311   8.986
 5007SOL    HW116860   4.201   5.280   8.898
 5007SOL    HW216861   4.086   5.290   8.996
 5008SOL     OW16862  10.794   8.451   0.897
 5008SOL    HW116863  10.789   8.356   0.909
 5008SOL    HW216864  10.730   8.486   0.959
 5009SOL     OW16865   2.694   3.574  11.861
 5009SOL    HW116866   2.774   3.586  11.913
 5009SOL    HW216867   2.641   3.514  11.914
 5010SOL     OW16868   1.738   2.519   4.849
 5010SOL    HW116869   1.772   2.509   4.760
 5010SOL    HW216870   1.691   2.437   4.866
 5011SOL     OW16871  12.570   4.952   1.016
 5011SOL    HW116872  12.485   4.915   0.995
 5011SOL    HW216873  12.591   5.008   0.942
 5012SOL     OW16874  14.014  10.083  13.435
 5012SOL    HW116875  14.016  10.013  13.369
 5012SOL    HW216876  13.929  10.125  13.424
 5013SOL     OW16877   9.407   4.637   1.982
 5013SOL    HW116878   9.495   4.600   1.977
 5013SOL    HW216879   9.418   4.729   1.955
 5014SOL     OW16880   1.844   4.671  14.323
 5014SOL    HW116881   1.775   4.639  14.382
 5014SOL    HW216882   1.898   4.727  14.379
 5015SOL     OW16883   0.522   2.217   9.283
 5015SOL    HW116884   0.444   2.271   9.298
 5015SOL    HW216885   0.496   2.129   9.309
 5016SOL     OW16886  10.405   6.615   1.029
 5016SOL    HW116887  10.424   6.705   1.056
 5016SOL    HW216888  10.452   6.604   0.946
 5017SOL     OW16889   1.165  12.720   1.116
 5017SOL    HW116890   1.071  12.700   1.117
 5017SOL    HW216891   1.172  12.798   1.061
 5018SOL     OW16892   3.593  12.647  12.907
 5018SOL    HW116893   3.647  12.724  12.893
 5018SOL    HW216894   3.587  12.639  13.002
 5019SOL     OW16895   1.404   9.832  13.469
 5019SOL    HW116896   1.442   9.768  13.409
 5019SOL    HW216897   1.377   9.781  13.545
 5020SOL     OW16898  14.843   3.445   5.884
 5020SOL    HW116899  14.842   3.365   5.936
 5020SOL    HW216900  14.755   3.481   5.895
 5021SOL     OW16901   1.852   4.388   8.915
 5021SOL    HW116902   1.765   4.363   8.948
 5021SOL    HW216903   1.842   4.478   8.885
 5022SOL     OW16904   6.243   0.572   3.661
 5022SOL    HW116905   6.150   0.581   3.681
 5022SOL    HW216906   6.270   0.660   3.634
 5023SOL     OW16907  14.768   7.983   3.328
 5023SOL    HW116908  14.805   7.896   3.343
 5023SOL    HW216909  14.674   7.973   3.343
 5024SOL     OW16910   7.653   3.640   9.498
 5024SOL    HW116911   7.707   3.700   9.550
 5024SOL    HW216912   7.653   3.679   9.410
 5025SOL     OW16913   3.047   4.072   4.593
 5025SOL    HW116914   2.987   4.136   4.554
 5025SOL    HW216915   2.994   3.993   4.602
 5026SOL     OW16916   0.018   2.559   0.895
 5026SOL    HW116917  14.806   2.534   0.862
 5026SOL    HW216918   0.080   2.502   0.849
 5027SOL     OW16919  12.683   9.043  12.473
 5027SOL    HW116920  12.595   9.073  12.453
 5027SOL    HW216921  12.680   8.948  12.460
 5028SOL     OW16922   5.205  14.678  14.777
 5028SOL    HW116923   5.146  14.645  14.710
 5028SOL    HW216924   5.263  14.738  14.730
 5029SOL     OW16925  12.256   3.681   3.975
 5029SOL    HW116926  12.246   3.719   4.062
 5029SOL    HW216927  12.345   3.646   3.974
 5030SOL     OW16928  10.527   6.059  12.132
 5030SOL    HW116929  10.572   6.047  12.048
 5030SOL    HW216930  10.598   6.069  12.196
 5031SOL     OW16931   6.659   4.665   5.194
 5031SOL    HW116932   6.658   4.752   5.155
 5031SOL    HW216933   6.613   4.610   5.130
 5032SOL     OW16934  11.768   5.113  14.780
 5032SOL    HW116935  11.762   5.095  14.686
 5032SOL    HW216936  11.777   5.026  14.820
 5033SOL     OW16937   1.030  12.763  14.032
 5033SOL    HW116938   0.996  12.674  14.034
 5033SOL    HW216939   0.961  12.815  13.991
 5034SOL     OW16940  10.678   8.362  10.059
 5034SOL    HW116941  10.615   8.308  10.108
 5034SOL    HW216942  10.753   8.370  10.118
 5035SOL     OW16943   8.513   3.404   6.971
 5035SOL    HW116944   8.478   3.376   7.056
 5035SOL    HW216945   8.488   3.334   6.911
 5036SOL     OW16946  14.417   5.876   8.808
 5036SOL    HW116947  14.361   5.889   8.884
 5036SOL    HW216948  14.503   5.855   8.845
 5037SOL     OW16949   9.581   3.450   3.114
 5037SOL    HW116950   9.487   3.437   3.126
 5037SOL    HW216951   9.609   3.372   3.066
 5038SOL     OW16952  12.436  10.198   0.515
 5038SOL    HW116953  12.454  10.162   0.602
 5038SOL    HW216954  12.520  10.229   0.484
 5039SOL     OW16955   0.865   5.235   7.418
 5039SOL    HW116956   0.921   5.172   7.464
 5039SOL    HW216957   0.800   5.181   7.373
 5040SOL     OW16958   2.814   0.467   4.441
 5040SOL    HW116959   2.856   0.545   4.476
 5040SOL    HW216960   2.832   0.469   4.348
 5041SOL     OW16961  10.521  13.949   8.110
 5041SOL    HW116962  10.524  14.042   8.090
 5041SOL    HW216963  10.459  13.912   8.047
 5042SOL     OW16964  13.017   6.037  11.931
 5042SOL    HW116965  12.930   6.006  11.909
 5042SOL    HW216966  13.023   6.124  11.891
 5043SOL     OW16967  11.653  13.796   2.068
 5043SOL    HW116968  11.641  13.710   2.108
 5043SOL    HW216969  11.566  13.835   2.068
 5044SOL     OW16970   9.746   5.184  12.633
 5044SOL    HW116971   9.789   5.118  12.579
 5044SOL    HW216972   9.812   5.251  12.646
 5045SOL     OW16973  13.506  13.125  10.345
 5045SOL    HW116974  13.591  13.157  10.312
 5045SOL    HW216975  13.463  13.204  10.378
 5046SOL     OW16976  12.458   7.414   7.847
 5046SOL    HW116977  12.468   7.328   7.889
 5046SOL    HW216978  12.505   7.405   7.764
 5047SOL     OW16979   1.293   2.300   2.294
 5047SOL    HW116980   1.334   2.386   2.300
 5047SOL    HW216981   1.225   2.301   2.362
 5048SOL     OW16982   2.781   7.485   0.426
 5048SOL    HW116983   2.774   7.420   0.356
 5048SOL    HW216984   2.736   7.445   0.501
 5049SOL     OW16985   9.505   8.315   1.881
 5049SOL    HW116986   9.571   8.335   1.947
 5049SOL    HW216987   9.553   8.315   1.798
 5050SOL     OW16988  11.886  11.949  14.454
 5050SOL    HW116989  11.910  11.860  14.482
 5050SOL    HW216990  11.801  11.965  14.495
 5051SOL     OW16991  14.638   9.608   4.236
 5051SOL    HW116992  14.640   9.515   4.210
 5051SOL    HW216993  14.574   9.648   4.177
 5052SOL     OW16994   6.727   9.051   4.174
 5052SOL    HW116995   6.791   9.061   4.245
 5052SOL    HW216996   6.666   8.985   4.207
 5053SOL     OW16997  10.032   0.920  13.605
 5053SOL    HW116998   9.995   0.887  13.523
 5053SOL    HW216999  10.102   0.858  13.627
 5054SOL     OW17000   0.703   8.320   0.054
 5054SOL    HW117001   0.791   8.333   0.019
 5054SOL    HW217002   0.715   8.270   0.134
 5055SOL     OW17003   3.263  13.707   6.573
 5055SOL    HW117004   3.255  13.615   6.598
 5055SOL    HW217005   3.173  13.740   6.572
 5056SOL     OW17006   2.568  10.189   3.727
 5056SOL    HW117007   2.587  10.282   3.715
 5056SOL    HW217008   2.626  10.144   3.666
 5057SOL     OW17009   8.253  14.565  10.557
 5057SOL    HW117010   8.233  14.607  10.474
 5057SOL    HW217011   8.191  14.603  10.619
 5058SOL     OW17012   1.167   6.073   5.878
 5058SOL    HW117013   1.087   6.097   5.923
 5058SOL    HW217014   1.235   6.075   5.946
 5059SOL     OW17015   3.510  14.862  11.916
 5059SOL    HW117016   3.604  14.846  11.925
 5059SOL    HW217017   3.493  14.852  11.822
 5060SOL     OW17018   5.700   7.006  11.895
 5060SOL    HW117019   5.617   7.052  11.884
 5060SOL    HW217020   5.757   7.071  11.937
 5061SOL     OW17021  10.047  14.011   1.434
 5061SOL    HW117022  10.113  14.060   1.385
 5061SOL    HW217023  10.084  14.004   1.523
 5062SOL     OW17024   0.293   3.056  11.894
 5062SOL    HW117025   0.225   3.074  11.829
 5062SOL    HW217026   0.317   2.964  11.878
 5063SOL     OW17027   2.230   9.734   6.255
 5063SOL    HW117028   2.290   9.660   6.240
 5063SOL    HW217029   2.261   9.773   6.337
 5064SOL     OW17030  13.175   3.428   5.465
 5064SOL    HW117031  13.210   3.360   5.407
 5064SOL    HW217032  13.142   3.379   5.541
 5065SOL     OW17033   5.707   3.163  10.319
 5065SOL    HW117034   5.700   3.231  10.252
 5065SOL    HW217035   5.616   3.134  10.333
 5066SOL     OW17036   1.199   1.750   7.455
 5066SOL    HW117037   1.156   1.820   7.407
 5066SOL    HW217038   1.253   1.706   7.390
 5067SOL     OW17039   5.391   5.896   8.260
 5067SOL    HW117040   5.435   5.910   8.176
 5067SOL    HW217041   5.434   5.819   8.297
 5068SOL     OW17042   9.977   8.206   2.757
 5068SOL    HW117043   9.982   8.181   2.849
 5068SOL    HW217044   9.884   8.216   2.740
 5069SOL     OW17045   5.791   3.028   8.109
 5069SOL    HW117046   5.787   3.050   8.016
 5069SOL    HW217047   5.707   2.988   8.129
 5070SOL     OW17048   8.888   8.602   1.438
 5070SOL    HW117049   8.858   8.644   1.519
 5070SOL    HW217050   8.916   8.675   1.383
 5071SOL     OW17051   0.451  11.939   7.138
 5071SOL    HW117052   0.379  11.898   7.186
 5071SOL    HW217053   0.408  11.987   7.067
 5072SOL     OW17054  10.134   0.582   4.500
 5072SOL    HW117055  10.225   0.609   4.514
 5072SOL    HW217056  10.085   0.628   4.569
 5073SOL     OW17057   3.456   1.564   3.359
 5073SOL    HW117058   3.397   1.508   3.308
 5073SOL    HW217059   3.481   1.634   3.299
 5074SOL     OW17060   5.242  13.051   2.396
 5074SOL    HW117061   5.202  12.980   2.345
 5074SOL    HW217062   5.274  13.113   2.330
 5075SOL     OW17063   1.254   5.972   1.658
 5075SOL    HW117064   1.334   5.934   1.620
 5075SOL    HW217065   1.220   6.028   1.589
 5076SOL     OW17066   1.995   8.268  14.691
 5076SOL    HW117067   1.910   8.229  14.676
 5076SOL    HW217068   2.056   8.194  14.695
 5077SOL     OW17069   5.147   8.010   6.637
 5077SOL    HW117070   5.121   8.049   6.720
 5077SOL    HW217071   5.240   8.033   6.628
 5078SOL     OW17072   5.961  13.445   3.748
 5078SOL    HW117073   6.015  13.508   3.796
 5078SOL    HW217074   5.972  13.469   3.656
 5079SOL     OW17075  13.059   8.268   4.213
 5079SOL    HW117076  12.977   8.221   4.232
 5079SOL    HW217077  13.046   8.355   4.250
 5080SOL     OW17078   3.691  13.789   6.403
 5080SOL    HW117079   3.708  13.875   6.364
 5080SOL    HW217080   3.596  13.781   6.405
 5081SOL     OW17081   3.337  10.891   3.025
 5081SOL    HW117082   3.367  10.890   2.934
 5081SOL    HW217083   3.405  10.941   3.071
 5082SOL     OW17084  12.710   0.791   1.481
 5082SOL    HW117085  12.739   0.707   1.515
 5082SOL    HW217086  12.623   0.804   1.519
 5083SOL     OW17087   5.336  14.741   6.353
 5083SOL    HW117088   5.242  14.746   6.333
 5083SOL    HW217089   5.373  14.694   6.278
 5084SOL     OW17090   5.479   6.506   1.094
 5084SOL    HW117091   5.493   6.423   1.049
 5084SOL    HW217092   5.486   6.485   1.187
 5085SOL     OW17093   6.074   5.584  12.958
 5085SOL    HW117094   6.053   5.538  13.039
 5085SOL    HW217095   5.991   5.622  12.930
 5086SOL     OW17096  12.650  13.355   1.184
 5086SOL    HW117097  12.649  13.413   1.108
 5086SOL    HW217098  12.742  13.331   1.195
 5087SOL     OW17099  12.474  14.570  11.764
 5087SOL    HW117100  12.444  14.530  11.845
 5087SOL    HW217101  12.506  14.497  11.711
 5088SOL     OW17102  10.357   4.838  14.534
 5088SOL    HW117103  10.363   4.860  14.627
 5088SOL    HW217104  10.399   4.752  14.526
 5089SOL     OW17105   5.779   3.405   0.226
 5089SOL    HW117106   5.801   3.474   0.288
 5089SOL    HW217107   5.770   3.326   0.280
 5090SOL     OW17108  14.552   9.649   1.250
 5090SOL    HW117109  14.535   9.588   1.322
 5090SOL    HW217110  14.564   9.733   1.293
 5091SOL     OW17111   4.005   1.922   3.000
 5091SOL    HW117112   3.935   1.889   2.943
 5091SOL    HW217113   4.080   1.866   2.981
 5092SOL     OW17114   4.289  12.983   2.904
 5092SOL    HW117115   4.207  12.957   2.863
 5092SOL    HW217116   4.357  12.944   2.849
 5093SOL     OW17117  11.523   0.488  11.344
 5093SOL    HW117118  11.457   0.490  11.413
 5093SOL    HW217119  11.473   0.488  11.263
 5094SOL     OW17120   0.393  13.924  13.952
 5094SOL    HW117121   0.470  13.894  14.001
 5094SOL    HW217122   0.351  13.987  14.010
 5095SOL     OW17123   2.638  13.047   6.216
 5095SOL    HW117124   2.730  13.033   6.241
 5095SOL    HW217125   2.642  13.079   6.126
 5096SOL     OW17126   9.181  14.054  11.575
 5096SOL    HW117127   9.222  14.046  11.489
 5096SOL    HW217128   9.229  13.992  11.630
 5097SOL     OW17129   5.074  14.006  14.166
 5097SOL    HW117130   5.093  13.942  14.234
 5097SOL    HW217131   5.059  14.088  14.213
 5098SOL     OW17132   6.029  11.235  14.860
 5098SOL    HW117133   6.032  11.167  14.793
 5098SOL    HW217134   5.942  11.227   0.025
 5099SOL     OW17135   6.973   6.128   6.018
 5099SOL    HW117136   6.930   6.210   5.995
 5099SOL    HW217137   6.928   6.098   6.097
 5100SOL     OW17138   0.124  11.220   6.189
 5100SOL    HW117139   0.109  11.183   6.276
 5100SOL    HW217140   0.098  11.151   6.129
 5101SOL     OW17141   8.996   4.159   8.340
 5101SOL    HW117142   9.061   4.172   8.409
 5101SOL    HW217143   8.924   4.111   8.383
 5102SOL     OW17144  10.471   9.285   7.534
 5102SOL    HW117145  10.498   9.363   7.487
 5102SOL    HW217146  10.502   9.299   7.624
 5103SOL     OW17147  10.423   9.144   4.257
 5103SOL    HW117148  10.502   9.156   4.204
 5103SOL    HW217149  10.444   9.184   4.341
 5104SOL     OW17150   8.283   0.752  10.584
 5104SOL    HW117151   8.210   0.794  10.630
 5104SOL    HW217152   8.346   0.822  10.570
 5105SOL     OW17153   0.170   0.966   8.035
 5105SOL    HW117154   0.238   0.992   8.097
 5105SOL    HW217155   0.208   0.988   7.949
 5106SOL     OW17156   5.407   6.251   8.404
 5106SOL    HW117157   5.385   6.259   8.497
 5106SOL    HW217158   5.325   6.272   8.358
 5107SOL     OW17159   9.056   1.763  14.294
 5107SOL    HW117160   8.991   1.738  14.359
 5107SOL    HW217161   9.048   1.698  14.225
 5108SOL     OW17162  13.927   2.046   8.451
 5108SOL    HW117163  13.992   2.116   8.450
 5108SOL    HW217164  13.977   1.967   8.430
 5109SOL     OW17165   9.337   2.939  12.688
 5109SOL    HW117166   9.306   2.870  12.631
 5109SOL    HW217167   9.345   3.016  12.631
 5110SOL     OW17168   9.867   7.083  10.257
 5110SOL    HW117169   9.808   7.008  10.261
 5110SOL    HW217170   9.817   7.155  10.295
 5111SOL     OW17171   8.861   1.882  10.302
 5111SOL    HW117172   8.924   1.897  10.372
 5111SOL    HW217173   8.844   1.969  10.266
 5112SOL     OW17174  10.095   0.252  11.315
 5112SOL    HW117175  10.044   0.316  11.365
 5112SOL    HW217176  10.055   0.252  11.228
 5113SOL     OW17177  13.055  13.411  12.775
 5113SOL    HW117178  13.020  13.465  12.704
 5113SOL    HW217179  13.130  13.366  12.736
 5114SOL     OW17180  14.834   0.016   1.876
 5114SOL    HW117181   0.015   0.085   1.915
 5114SOL    HW217182   0.021  14.819   1.857
 5115SOL     OW17183   2.669  13.757  11.170
 5115SOL    HW117184   2.742  13.816  11.192
 5115SOL    HW217185   2.676  13.686  11.234
 5116SOL     OW17186   4.634  14.683   5.158
 5116SOL    HW117187   4.549  14.639   5.152
 5116SOL    HW217188   4.676  14.643   5.234
 5117SOL     OW17189   5.364  10.998   7.887
 5117SOL    HW117190   5.374  10.945   7.966
 5117SOL    HW217191   5.397  11.084   7.912
 5118SOL     OW17192   5.827  12.411   0.480
 5118SOL    HW117193   5.917  12.403   0.512
 5118SOL    HW217194   5.836  12.443   0.390
 5119SOL     OW17195   3.588   9.728   7.972
 5119SOL    HW117196   3.678   9.695   7.967
 5119SOL    HW217197   3.583   9.768   8.059
 5120SOL     OW17198  13.181   2.131   7.504
 5120SOL    HW117199  13.233   2.192   7.451
 5120SOL    HW217200  13.226   2.047   7.496
 5121SOL     OW17201  11.089   9.608  11.615
 5121SOL    HW117202  11.145   9.620  11.538
 5121SOL    HW217203  11.109   9.519  11.645
 5122SOL     OW17204   9.598   1.091   4.017
 5122SOL    HW117205   9.622   1.079   3.925
 5122SOL    HW217206   9.507   1.061   4.022
 5123SOL     OW17207   8.395   5.136   5.070
 5123SOL    HW117208   8.406   5.112   5.162
 5123SOL    HW217209   8.466   5.092   5.025
 5124SOL     OW17210   8.936  11.524   1.563
 5124SOL    HW117211   8.948  11.558   1.652
 5124SOL    HW217212   8.959  11.432   1.570
 5125SOL     OW17213  10.549   5.581  13.068
 5125SOL    HW117214  10.627   5.528  13.052
 5125SOL    HW217215  10.550   5.597  13.162
 5126SOL     OW17216  14.365  10.339   9.358
 5126SOL    HW117217  14.384  10.246   9.345
 5126SOL    HW217218  14.327  10.343   9.446
 5127SOL     OW17219   3.614  13.452  11.492
 5127SOL    HW117220   3.699  13.491  11.515
 5127SOL    HW217221   3.554  13.527  11.488
 5128SOL     OW17222  10.414   2.589  10.230
 5128SOL    HW117223  10.471   2.614  10.303
 5128SOL    HW217224  10.363   2.668  10.211
 5129SOL     OW17225   3.812   1.656   5.100
 5129SOL    HW117226   3.814   1.562   5.078
 5129SOL    HW217227   3.719   1.677   5.108
 5130SOL     OW17228   4.704   9.872  11.551
 5130SOL    HW117229   4.682   9.917  11.470
 5130SOL    HW217230   4.704   9.941  11.618
 5131SOL     OW17231   9.728  11.382  11.719
 5131SOL    HW117232   9.769  11.321  11.780
 5131SOL    HW217233   9.720  11.332  11.637
 5132SOL     OW17234   9.901   0.538  11.608
 5132SOL    HW117235   9.926   0.533  11.516
 5132SOL    HW217236   9.979   0.508  11.656
 5133SOL     OW17237   2.654   2.146  11.627
 5133SOL    HW117238   2.561   2.159  11.612
 5133SOL    HW217239   2.677   2.206  11.697
 5134SOL     OW17240   3.605   0.033   2.392
 5134SOL    HW117241   3.564   0.015   2.477
 5134SOL    HW217242   3.614   0.129   2.390
 5135SOL     OW17243   8.689  10.246   3.564
 5135SOL    HW117244   8.659  10.317   3.621
 5135SOL    HW217245   8.623  10.178   3.573
 5136SOL     OW17246  10.457  10.633   0.836
 5136SOL    HW117247  10.463  10.650   0.742
 5136SOL    HW217248  10.390  10.565   0.844
 5137SOL     OW17249   3.938  14.829   1.235
 5137SOL    HW117250   3.905  14.869   1.316
 5137SOL    HW217251   3.891  14.746   1.228
 5138SOL     OW17252   5.572   6.854   2.050
 5138SOL    HW117253   5.584   6.935   2.000
 5138SOL    HW217254   5.481   6.831   2.037
 5139SOL     OW17255   7.429  13.124   8.848
 5139SOL    HW117256   7.340  13.153   8.828
 5139SOL    HW217257   7.448  13.057   8.782
 5140SOL     OW17258   8.021  14.331  10.421
 5140SOL    HW117259   7.999  14.339  10.514
 5140SOL    HW217260   7.962  14.393  10.377
 5141SOL     OW17261   2.381   0.710  10.438
 5141SOL    HW117262   2.351   0.790  10.394
 5141SOL    HW217263   2.381   0.732  10.531
 5142SOL     OW17264  10.208  13.742   6.709
 5142SOL    HW117265  10.150  13.705   6.776
 5142SOL    HW217266  10.216  13.672   6.644
 5143SOL     OW17267  10.615   7.118  12.084
 5143SOL    HW117268  10.594   7.197  12.133
 5143SOL    HW217269  10.635   7.053  12.151
 5144SOL     OW17270   0.707  10.038   9.866
 5144SOL    HW117271   0.690  10.050   9.772
 5144SOL    HW217272   0.778   9.973   9.870
 5145SOL     OW17273   4.631   6.843   5.891
 5145SOL    HW117274   4.613   6.754   5.920
 5145SOL    HW217275   4.718   6.863   5.927
 5146SOL     OW17276  10.438   4.933  14.821
 5146SOL    HW117277  10.520   4.982  14.816
 5146SOL    HW217278  10.444   4.885   0.029
 5147SOL     OW17279   0.094   3.913   7.237
 5147SOL    HW117280   0.099   3.859   7.158
 5147SOL    HW217281   0.096   3.850   7.309
 5148SOL     OW17282   2.352   8.269   9.122
 5148SOL    HW117283   2.399   8.275   9.039
 5148SOL    HW217284   2.343   8.176   9.139
 5149SOL     OW17285   2.697  11.325   5.873
 5149SOL    HW117286   2.619  11.357   5.918
 5149SOL    HW217287   2.690  11.361   5.784
 5150SOL     OW17288   6.003  14.438   2.530
 5150SOL    HW117289   6.030  14.419   2.441
 5150SOL    HW217290   5.907  14.432   2.528
 5151SOL     OW17291   7.266   0.412   4.923
 5151SOL    HW117292   7.309   0.493   4.895
 5151SOL    HW217293   7.278   0.409   5.017
 5152SOL     OW17294  13.873  12.174  12.406
 5152SOL    HW117295  13.823  12.127  12.340
 5152SOL    HW217296  13.961  12.181  12.370
 5153SOL     OW17297   3.194  12.935  12.785
 5153SOL    HW117298   3.259  12.865  12.788
 5153SOL    HW217299   3.124  12.905  12.843
 5154SOL     OW17300   4.130   6.941   9.641
 5154SOL    HW117301   4.109   6.855   9.606
 5154SOL    HW217302   4.196   6.923   9.708
 5155SOL     OW17303  10.263   0.944   8.416
 5155SOL    HW117304  10.236   0.868   8.363
 5155SOL    HW217305  10.304   0.905   8.493
 5156SOL     OW17306   4.087   6.896   6.483
 5156SOL    HW117307   4.148   6.867   6.415
 5156SOL    HW217308   4.045   6.817   6.514
 5157SOL     OW17309  14.655   8.758  12.810
 5157SOL    HW117310  14.749   8.738  12.811
 5157SOL    HW217311  14.615   8.683  12.767
 5158SOL     OW17312   1.281  10.759  14.720
 5158SOL    HW117313   1.236  10.710  14.651
 5158SOL    HW217314   1.320  10.834  14.674
 5159SOL     OW17315   3.651   2.276   5.305
 5159SOL    HW117316   3.649   2.229   5.221
 5159SOL    HW217317   3.586   2.230   5.359
 5160SOL     OW17318  11.369   5.436   8.769
 5160SOL    HW117319  11.432   5.488   8.719
 5160SOL    HW217320  11.292   5.430   8.713
 5161SOL     OW17321   4.298   5.553   2.740
 5161SOL    HW117322   4.238   5.521   2.807
 5161SOL    HW217323   4.257   5.633   2.708
 5162SOL     OW17324   6.299   0.761   5.243
 5162SOL    HW117325   6.324   0.764   5.151
 5162SOL    HW217326   6.209   0.796   5.245
 5163SOL     OW17327   2.784   6.907  11.893
 5163SOL    HW117328   2.786   6.908  11.988
 5163SOL    HW217329   2.773   6.814  11.871
 5164SOL     OW17330  10.055   5.531   3.760
 5164SOL    HW117331  10.087   5.509   3.672
 5164SOL    HW217332  10.106   5.607   3.786
 5165SOL     OW17333   7.204   9.630  11.066
 5165SOL    HW117334   7.206   9.571  10.991
 5165SOL    HW217335   7.115   9.665  11.067
 5166SOL     OW17336  10.903   6.338   8.750
 5166SOL    HW117337  10.819   6.312   8.789
 5166SOL    HW217338  10.947   6.388   8.819
 5167SOL     OW17339   4.232   5.031  11.900
 5167SOL    HW117340   4.310   4.991  11.862
 5167SOL    HW217341   4.178   4.957  11.928
 5168SOL     OW17342   3.991  10.413   0.903
 5168SOL    HW117343   3.978  10.337   0.847
 5168SOL    HW217344   4.063  10.388   0.961
 5169SOL     OW17345   2.310   5.903   6.483
 5169SOL    HW117346   2.404   5.887   6.496
 5169SOL    HW217347   2.272   5.891   6.570
 5170SOL     OW17348  14.782   9.272   2.116
 5170SOL    HW117349  14.706   9.307   2.069
 5170SOL    HW217350  14.821   9.349   2.159
 5171SOL     OW17351   0.710  13.182   1.924
 5171SOL    HW117352   0.748  13.126   1.857
 5171SOL    HW217353   0.635  13.132   1.957
 5172SOL     OW17354   4.036   8.787   6.327
 5172SOL    HW117355   4.020   8.827   6.241
 5172SOL    HW217356   4.050   8.862   6.386
 5173SOL     OW17357   1.990   8.517   7.581
 5173SOL    HW117358   1.990   8.577   7.507
 5173SOL    HW217359   1.929   8.557   7.643
 5174SOL     OW17360   5.258  12.990  14.171
 5174SOL    HW117361   5.329  12.926  14.181
 5174SOL    HW217362   5.188  12.955  14.225
 5175SOL     OW17363   1.000   5.541   6.233
 5175SOL    HW117364   0.958   5.616   6.276
 5175SOL    HW217365   1.080   5.577   6.196
 5176SOL     OW17366  10.304   4.642  13.206
 5176SOL    HW117367  10.341   4.554  13.201
 5176SOL    HW217368  10.274   4.661  13.117
 5177SOL     OW17369   1.065  10.912  14.561
 5177SOL    HW117370   1.153  10.927  14.527
 5177SOL    HW217371   1.063  10.819  14.583
 5178SOL     OW17372   3.013   4.543  14.365
 5178SOL    HW117373   3.011   4.638  14.378
 5178SOL    HW217374   2.990   4.531  14.273
 5179SOL     OW17375   8.224   5.659   2.230
 5179SOL    HW117376   8.196   5.569   2.249
 5179SOL    HW217377   8.295   5.675   2.292
 5180SOL     OW17378  12.971   3.316   2.500
 5180SOL    HW117379  13.063   3.320   2.528
 5180SOL    HW217380  12.973   3.340   2.407
 5181SOL     OW17381   0.931   3.647   1.566
 5181SOL    HW117382   1.016   3.644   1.612
 5181SOL    HW217383   0.951   3.617   1.478
 5182SOL     OW17384   9.497  11.068   0.442
 5182SOL    HW117385   9.431  11.003   0.419
 5182SOL    HW217386   9.486  11.137   0.377
 5183SOL     OW17387  12.458  14.080   5.365
 5183SOL    HW117388  12.381  14.039   5.404
 5183SOL    HW217389  12.531  14.052   5.420
 5184SOL     OW17390   8.647   9.506   3.124
 5184SOL    HW117391   8.689   9.529   3.041
 5184SOL    HW217392   8.611   9.419   3.109
 5185SOL     OW17393   0.163   9.187   8.108
 5185SOL    HW117394   0.145   9.194   8.202
 5185SOL    HW217395   0.228   9.118   8.101
 5186SOL     OW17396  12.793   5.453  13.046
 5186SOL    HW117397  12.860   5.387  13.066
 5186SOL    HW217398  12.787   5.505  13.126
 5187SOL     OW17399   4.474   5.622  11.925
 5187SOL    HW117400   4.527   5.701  11.931
 5187SOL    HW217401   4.385   5.654  11.914
 5188SOL     OW17402   3.066  10.860   5.274
 5188SOL    HW117403   3.147  10.854   5.224
 5188SOL    HW217404   3.037  10.769   5.284
 5189SOL     OW17405   7.644   4.981   1.802
 5189SOL    HW117406   7.590   4.955   1.727
 5189SOL    HW217407   7.678   4.898   1.836
 5190SOL     OW17408  11.873   3.958   4.264
 5190SOL    HW117409  11.882   3.931   4.355
 5190SOL    HW217410  11.801   4.022   4.265
 5191SOL     OW17411   9.879  14.573   2.914
 5191SOL    HW117412   9.848  14.658   2.883
 5191SOL    HW217413   9.916  14.532   2.836
 5192SOL     OW17414   6.132  13.700   9.479
 5192SOL    HW117415   6.099  13.785   9.449
 5192SOL    HW217416   6.138  13.709   9.574
 5193SOL     OW17417  10.498   5.700   9.808
 5193SOL    HW117418  10.481   5.744   9.724
 5193SOL    HW217419  10.437   5.741   9.869
 5194SOL     OW17420   6.787  13.053   2.416
 5194SOL    HW117421   6.762  12.978   2.471
 5194SOL    HW217422   6.796  13.126   2.477
 5195SOL     OW17423   5.819   2.587  14.175
 5195SOL    HW117424   5.796   2.502  14.213
 5195SOL    HW217425   5.837   2.568  14.083
 5196SOL     OW17426  14.824   2.063  13.041
 5196SOL    HW117427  14.741   2.100  13.073
 5196SOL    HW217428  14.798   2.007  12.967
 5197SOL     OW17429  13.324   0.619   3.348
 5197SOL    HW117430  13.325   0.663   3.433
 5197SOL    HW217431  13.413   0.586   3.337
 5198SOL     OW17432  11.783   0.834   7.529
 5198SOL    HW117433  11.847   0.884   7.478
 5198SOL    HW217434  11.736   0.782   7.464
 5199SOL     OW17435   7.340   4.182   3.994
 5199SOL    HW117436   7.432   4.195   3.975
 5199SOL    HW217437   7.337   4.152   4.085
 5200SOL     OW17438   6.267   7.938   8.527
 5200SOL    HW117439   6.205   7.883   8.479
 5200SOL    HW217440   6.353   7.906   8.500
 5201SOL     OW17441   4.500  13.181  13.322
 5201SOL    HW117442   4.497  13.274  13.346
 5201SOL    HW217443   4.408  13.155  13.315
 5202SOL     OW17444  14.317  12.368   7.414
 5202SOL    HW117445  14.394  12.402   7.368
 5202SOL    HW217446  14.298  12.285   7.370
 5203SOL     OW17447   6.531  10.896  10.970
 5203SOL    HW117448   6.464  10.962  10.953
 5203SOL    HW217449   6.521  10.833  10.898
 5204SOL     OW17450  12.173   4.510  12.992
 5204SOL    HW117451  12.215   4.559  13.063
 5204SOL    HW217452  12.158   4.423  13.028
 5205SOL     OW17453   9.476   0.883  11.292
 5205SOL    HW117454   9.469   0.978  11.306
 5205SOL    HW217455   9.559   0.859  11.333
 5206SOL     OW17456   2.373   6.416   5.928
 5206SOL    HW117457   2.365   6.356   6.002
 5206SOL    HW217458   2.421   6.366   5.862
 5207SOL     OW17459   3.888   1.620  13.547
 5207SOL    HW117460   3.822   1.657  13.607
 5207SOL    HW217461   3.925   1.697  13.503
 5208SOL     OW17462   0.640   5.062  13.122
 5208SOL    HW117463   0.711   5.123  13.099
 5208SOL    HW217464   0.595   5.046  13.039
 5209SOL     OW17465   3.590  11.580  10.263
 5209SOL    HW117466   3.613  11.532  10.183
 5209SOL    HW217467   3.671  11.584  10.313
 5210SOL     OW17468  10.334   2.175  12.472
 5210SOL    HW117469  10.326   2.223  12.554
 5210SOL    HW217470  10.429   2.164  12.460
 5211SOL     OW17471  10.745   8.519   0.385
 5211SOL    HW117472  10.810   8.588   0.403
 5211SOL    HW217473  10.782   8.441   0.425
 5212SOL     OW17474  12.234   2.224   8.036
 5212SOL    HW117475  12.255   2.301   8.088
 5212SOL    HW217476  12.164   2.252   7.977
 5213SOL     OW17477  14.087   3.453  14.307
 5213SOL    HW117478  14.071   3.546  14.289
 5213SOL    HW217479  14.177   3.438  14.277
 5214SOL     OW17480   6.648   2.452   7.121
 5214SOL    HW117481   6.652   2.490   7.033
 5214SOL    HW217482   6.714   2.501   7.171
 5215SOL     OW17483   6.651   1.929   3.761
 5215SOL    HW117484   6.606   1.955   3.680
 5215SOL    HW217485   6.709   2.003   3.780
 5216SOL     OW17486   5.373  10.659   0.445
 5216SOL    HW117487   5.282  10.689   0.454
 5216SOL    HW217488   5.388  10.659   0.350
 5217SOL     OW17489   8.888   1.561  11.458
 5217SOL    HW117490   8.982   1.548  11.473
 5217SOL    HW217491   8.880   1.653  11.433
 5218SOL     OW17492   6.156  12.184   0.054
 5218SOL    HW117493   6.093  12.126   0.098
 5218SOL    HW217494   6.195  12.235   0.124
 5219SOL     OW17495   0.856   0.651   4.500
 5219SOL    HW117496   0.858   0.744   4.523
 5219SOL    HW217497   0.929   0.639   4.441
 5220SOL     OW17498  12.979   4.442   1.938
 5220SOL    HW117499  13.049   4.379   1.921
 5220SOL    HW217500  13.024   4.526   1.947
 5221SOL     OW17501   6.468   6.578   8.889
 5221SOL    HW117502   6.453   6.598   8.982
 5221SOL    HW217503   6.561   6.596   8.876
 5222SOL     OW17504   1.586   5.293   0.927
 5222SOL    HW117505   1.498   5.309   0.960
 5222SOL    HW217506   1.618   5.220   0.979
 5223SOL     OW17507   2.243   6.610  11.443
 5223SOL    HW117508   2.218   6.520  11.465
 5223SOL    HW217509   2.263   6.651  11.527
 5224SOL     OW17510  13.650   3.651   2.173
 5224SOL    HW117511  13.594   3.700   2.233
 5224SOL    HW217512  13.734   3.645   2.218
 5225SOL     OW17513  14.066  11.044  12.751
 5225SOL    HW117514  14.020  10.979  12.698
 5225SOL    HW217515  14.088  11.114  12.690
 5226SOL     OW17516  10.786   7.626  10.773
 5226SOL    HW117517  10.724   7.665  10.711
 5226SOL    HW217518  10.832   7.559  10.723
 5227SOL     OW17519  12.822   2.930  12.479
 5227SOL    HW117520  12.826   2.891  12.566
 5227SOL    HW217521  12.890   2.997  12.480
 5228SOL     OW17522   2.917   7.706   7.837
 5228SOL    HW117523   3.012   7.715   7.837
 5228SOL    HW217524   2.901   7.615   7.861
 5229SOL     OW17525   2.853  11.275   7.432
 5229SOL    HW117526   2.773  11.264   7.483
 5229SOL    HW217527   2.825  11.322   7.354
 5230SOL     OW17528   0.955   6.839  12.823
 5230SOL    HW117529   0.977   6.928  12.848
 5230SOL    HW217530   0.906   6.848  12.741
 5231SOL     OW17531   3.323   9.539   7.478
 5231SOL    HW117532   3.231   9.512   7.478
 5231SOL    HW217533   3.368   9.472   7.530
 5232SOL     OW17534   9.344  14.004  11.030
 5232SOL    HW117535   9.391  14.086  11.018
 5232SOL    HW217536   9.269  14.011  10.971
 5233SOL     OW17537   0.255  11.468  11.503
 5233SOL    HW117538   0.202  11.456  11.424
 5233SOL    HW217539   0.308  11.546  11.484
 5234SOL     OW17540   5.524  14.811   5.385
 5234SOL    HW117541   5.592  14.823   5.451
 5234SOL    HW217542   5.469   0.016   5.392
 5235SOL     OW17543   0.265   1.209   2.288
 5235SOL    HW117544   0.270   1.170   2.375
 5235SOL    HW217545   0.198   1.277   2.296
 5236SOL     OW17546   0.311   7.217  12.656
 5236SOL    HW117547   0.390   7.271  12.654
 5236SOL    HW217548   0.282   7.212  12.565
 5237SOL     OW17549   9.062   3.984   0.622
 5237SOL    HW117550   8.998   3.914   0.636
 5237SOL    HW217551   9.011   4.065   0.630
 5238SOL     OW17552   4.504   7.265   6.416
 5238SOL    HW117553   4.411   7.285   6.406
 5238SOL    HW217554   4.525   7.210   6.340
 5239SOL     OW17555  14.812   8.938  13.749
 5239SOL    HW117556   0.018   8.929  13.800
 5239SOL    HW217557  14.763   9.007  13.794
 5240SOL     OW17558  10.584   5.075   9.163
 5240SOL    HW117559  10.509   5.073   9.223
 5240SOL    HW217560  10.627   5.158   9.182
 5241SOL     OW17561   5.379  10.466   8.718
 5241SOL    HW117562   5.445  10.534   8.703
 5241SOL    HW217563   5.350  10.481   8.808
 5242SOL     OW17564   1.730   7.323   1.604
 5242SOL    HW117565   1.723   7.382   1.679
 5242SOL    HW217566   1.671   7.250   1.625
 5243SOL     OW17567  10.304   0.001  10.625
 5243SOL    HW117568  10.244  14.814  10.669
 5243SOL    HW217569  10.370   0.022  10.691
 5244SOL     OW17570  13.249   2.186   9.772
 5244SOL    HW117571  13.338   2.219   9.760
 5244SOL    HW217572  13.239   2.121   9.702
 5245SOL     OW17573   6.824  12.217  14.407
 5245SOL    HW117574   6.796  12.296  14.453
 5245SOL    HW217575   6.915  12.205  14.433
 5246SOL     OW17576  12.957   0.833   4.654
 5246SOL    HW117577  12.944   0.927   4.667
 5246SOL    HW217578  12.969   0.824   4.560
 5247SOL     OW17579  11.687  10.518   7.608
 5247SOL    HW117580  11.749  10.491   7.541
 5247SOL    HW217581  11.611  10.462   7.594
 5248SOL     OW17582  12.567   0.042   7.704
 5248SOL    HW117583  12.599  14.870   7.781
 5248SOL    HW217584  12.472   0.033   7.708
 5249SOL     OW17585   7.230   1.082   6.968
 5249SOL    HW117586   7.142   1.076   6.930
 5249SOL    HW217587   7.269   0.996   6.954
 5250SOL     OW17588  10.951  10.288  13.422
 5250SOL    HW117589  11.043  10.311  13.436
 5250SOL    HW217590  10.920  10.350  13.357
 5251SOL     OW17591   2.718   5.893  14.862
 5251SOL    HW117592   2.704   5.842  14.782
 5251SOL    HW217593   2.630   5.913   0.019
 5252SOL     OW17594   1.882   8.391   2.877
 5252SOL    HW117595   1.937   8.355   2.808
 5252SOL    HW217596   1.944   8.438   2.934
 5253SOL     OW17597  10.146   9.549   8.459
 5253SOL    HW117598  10.124   9.627   8.408
 5253SOL    HW217599  10.212   9.580   8.522
 5254SOL     OW17600   8.232  13.267   8.370
 5254SOL    HW117601   8.315  13.229   8.342
 5254SOL    HW217602   8.166  13.200   8.351
 5255SOL     OW17603  12.443   2.715  10.483
 5255SOL    HW117604  12.463   2.621  10.480
 5255SOL    HW217605  12.401   2.727  10.569
 5256SOL     OW17606  12.133   1.309   0.388
 5256SOL    HW117607  12.206   1.337   0.333
 5256SOL    HW217608  12.107   1.225   0.352
 5257SOL     OW17609   8.275   1.478   6.870
 5257SOL    HW117610   8.227   1.561   6.861
 5257SOL    HW217611   8.355   1.501   6.917
 5258SOL     OW17612   3.149   5.720   4.013
 5258SOL    HW117613   3.209   5.647   3.996
 5258SOL    HW217614   3.064   5.678   4.029
 5259SOL     OW17615   6.284   3.404  13.818
 5259SOL    HW117616   6.334   3.481  13.842
 5259SOL    HW217617   6.194   3.424  13.843
 5260SOL     OW17618   2.260   4.082  12.001
 5260SOL    HW117619   2.173   4.066  11.964
 5260SOL    HW217620   2.291   3.995  12.026
 5261SOL     OW17621   8.030   1.734  12.681
 5261SOL    HW117622   7.995   1.823  12.688
 5261SOL    HW217623   8.089   1.726  12.756
 5262SOL     OW17624  13.631   8.282   2.161
 5262SOL    HW117625  13.625   8.201   2.211
 5262SOL    HW217626  13.671   8.345   2.221
 5263SOL     OW17627   9.469   9.614   7.435
 5263SOL    HW117628   9.383   9.583   7.407
 5263SOL    HW217629   9.530   9.576   7.372
 5264SOL     OW17630   9.791   2.518   7.989
 5264SOL    HW117631   9.803   2.469   8.070
 5264SOL    HW217632   9.707   2.488   7.955
 5265SOL     OW17633  12.561   5.366   8.554
 5265SOL    HW117634  12.641   5.417   8.541
 5265SOL    HW217635  12.519   5.364   8.468
 5266SOL     OW17636   2.188   3.201   7.749
 5266SOL    HW117637   2.256   3.253   7.706
 5266SOL    HW217638   2.236   3.141   7.807
 5267SOL     OW17639  13.057   6.112  10.379
 5267SOL    HW117640  12.974   6.108  10.331
 5267SOL    HW217641  13.122   6.074  10.318
 5268SOL     OW17642   2.933  14.520   2.578
 5268SOL    HW117643   2.935  14.615   2.566
 5268SOL    HW217644   2.856  14.491   2.530
 5269SOL     OW17645   8.384  11.397   0.109
 5269SOL    HW117646   8.475  11.425   0.117
 5269SOL    HW217647   8.355  11.434   0.026
 5270SOL     OW17648   2.527   7.511   8.989
 5270SOL    HW117649   2.560   7.492   9.077
 5270SOL    HW217650   2.597   7.484   8.931
 5271SOL     OW17651  13.708   9.802   6.331
 5271SOL    HW117652  13.624   9.774   6.369
 5271SOL    HW217653  13.731   9.733   6.270
 5272SOL     OW17654   8.805  11.491   4.027
 5272SOL    HW117655   8.811  11.410   3.975
 5272SOL    HW217656   8.711  11.509   4.031
 5273SOL     OW17657   7.116   9.949   9.498
 5273SOL    HW117658   7.061   9.885   9.451
 5273SOL    HW217659   7.123  10.023   9.437
 5274SOL     OW17660  11.960   7.993  11.028
 5274SOL    HW117661  12.027   7.982  10.961
 5274SOL    HW217662  11.877   7.989  10.980
 5275SOL     OW17663   9.559   5.102   4.001
 5275SOL    HW117664   9.601   5.125   4.084
 5275SOL    HW217665   9.631   5.098   3.938
 5276SOL     OW17666   6.701   6.032   0.041
 5276SOL    HW117667   6.612   6.040   0.077
 5276SOL    HW217668   6.691   6.048  14.821
 5277SOL     OW17669  12.765   8.305   1.120
 5277SOL    HW117670  12.834   8.326   1.183
 5277SOL    HW217671  12.708   8.243   1.166
 5278SOL     OW17672   3.652   1.981  11.529
 5278SOL    HW117673   3.728   1.935  11.565
 5278SOL    HW217674   3.601   2.007  11.606
 5279SOL     OW17675   3.257  13.356   9.437
 5279SOL    HW117676   3.185  13.330   9.380
 5279SOL    HW217677   3.332  13.362   9.377
 5280SOL     OW17678   5.992   4.524   4.370
 5280SOL    HW117679   5.932   4.566   4.309
 5280SOL    HW217680   6.004   4.588   4.440
 5281SOL     OW17681   0.019   6.595   0.359
 5281SOL    HW117682  14.873   6.637   0.276
 5281SOL    HW217683   0.112   6.573   0.354
 5282SOL     OW17684  11.704  10.075   8.814
 5282SOL    HW117685  11.641  10.021   8.863
 5282SOL    HW217686  11.654  10.107   8.739
 5283SOL     OW17687  11.053   2.383   8.370
 5283SOL    HW117688  11.000   2.325   8.315
 5283SOL    HW217689  11.001   2.463   8.377
 5284SOL     OW17690   5.428  11.328   7.750
 5284SOL    HW117691   5.487  11.265   7.793
 5284SOL    HW217692   5.355  11.338   7.811
 5285SOL     OW17693   9.675   9.444   8.239
 5285SOL    HW117694   9.741   9.445   8.308
 5285SOL    HW217695   9.601   9.396   8.277
 5286SOL     OW17696   0.111   7.883   1.566
 5286SOL    HW117697   0.091   7.976   1.565
 5286SOL    HW217698   0.031   7.841   1.598
 5287SOL     OW17699  14.707   4.550   7.044
 5287SOL    HW117700  14.676   4.476   7.096
 5287SOL    HW217701  14.627   4.593   7.013
 5288SOL     OW17702  12.426  12.670  10.547
 5288SOL    HW117703  12.344  12.621  10.540
 5288SOL    HW217704  12.405  12.758  10.515
 5289SOL     OW17705   2.998   3.789   7.161
 5289SOL    HW117706   3.023   3.784   7.253
 5289SOL    HW217707   3.050   3.862   7.127
 5290SOL     OW17708   2.856  13.691   7.750
 5290SOL    HW117709   2.837  13.695   7.843
 5290SOL    HW217710   2.865  13.783   7.724
 5291SOL     OW17711   0.919   9.533   1.233
 5291SOL    HW117712   0.935   9.571   1.320
 5291SOL    HW217713   1.004   9.501   1.205
 5292SOL     OW17714   3.359  13.670   2.978
 5292SOL    HW117715   3.297  13.737   2.947
 5292SOL    HW217716   3.439  13.718   2.996
 5293SOL     OW17717   4.660   7.027   8.008
 5293SOL    HW117718   4.686   7.029   8.100
 5293SOL    HW217719   4.667   6.934   7.984
 5294SOL     OW17720   5.894   6.604  12.322
 5294SOL    HW117721   5.813   6.646  12.293
 5294SOL    HW217722   5.964   6.660  12.289
 5295SOL     OW17723   2.879  14.577   0.960
 5295SOL    HW117724   2.954  14.599   0.904
 5295SOL    HW217725   2.882  14.643   1.030
 5296SOL     OW17726  14.288  13.889   8.752
 5296SOL    HW117727  14.329  13.957   8.805
 5296SOL    HW217728  14.209  13.930   8.717
 5297SOL     OW17729   4.897   1.891  13.142
 5297SOL    HW117730   4.872   1.859  13.229
 5297SOL    HW217731   4.832   1.960  13.123
 5298SOL     OW17732   9.301  10.815   0.939
 5298SOL    HW117733   9.251  10.878   0.886
 5298SOL    HW217734   9.291  10.732   0.893
 5299SOL     OW17735   2.610  13.054  11.729
 5299SOL    HW117736   2.640  12.971  11.764
 5299SOL    HW217737   2.563  13.031  11.649
 5300SOL     OW17738   5.421   9.373   3.618
 5300SOL    HW117739   5.457   9.462   3.617
 5300SOL    HW217740   5.441   9.337   3.532
 5301SOL     OW17741   2.062   3.606  12.509
 5301SOL    HW117742   2.042   3.677  12.570
 5301SOL    HW217743   2.157   3.609  12.498
 5302SOL     OW17744   2.702   9.967   2.137
 5302SOL    HW117745   2.760   9.904   2.179
 5302SOL    HW217746   2.657   9.917   2.070
 5303SOL     OW17747   4.122   4.455   1.357
 5303SOL    HW117748   4.084   4.519   1.418
 5303SOL    HW217749   4.143   4.506   1.279
 5304SOL     OW17750   7.329   2.188   3.700
 5304SOL    HW117751   7.385   2.264   3.683
 5304SOL    HW217752   7.389   2.114   3.700
 5305SOL     OW17753   2.486   5.583   9.332
 5305SOL    HW117754   2.566   5.537   9.359
 5305SOL    HW217755   2.512   5.675   9.328
 5306SOL     OW17756  12.411  11.249  12.450
 5306SOL    HW117757  12.444  11.328  12.493
 5306SOL    HW217758  12.440  11.177  12.507
 5307SOL     OW17759   7.817   8.027  10.658
 5307SOL    HW117760   7.793   7.963  10.725
 5307SOL    HW217761   7.763   8.005  10.582
 5308SOL     OW17762   7.057   8.849   2.367
 5308SOL    HW117763   7.089   8.823   2.281
 5308SOL    HW217764   6.964   8.830   2.365
 5309SOL     OW17765  11.156   2.953   8.426
 5309SOL    HW117766  11.149   3.047   8.437
 5309SOL    HW217767  11.240   2.940   8.382
 5310SOL     OW17768   1.052  13.995   7.030
 5310SOL    HW117769   0.966  13.965   7.058
 5310SOL    HW217770   1.046  14.090   7.028
 5311SOL     OW17771   0.761   2.625   0.359
 5311SOL    HW117772   0.803   2.691   0.304
 5311SOL    HW217773   0.686   2.671   0.397
 5312SOL     OW17774   8.794   9.679   9.915
 5312SOL    HW117775   8.870   9.632   9.948
 5312SOL    HW217776   8.825   9.768   9.901
 5313SOL     OW17777   4.085   5.379  11.366
 5313SOL    HW117778   4.074   5.447  11.432
 5313SOL    HW217779   4.179   5.361  11.367
 5314SOL     OW17780  13.865   4.819   0.781
 5314SOL    HW117781  13.826   4.738   0.816
 5314SOL    HW217782  13.931   4.843   0.846
 5315SOL     OW17783   4.706   9.479   9.549
 5315SOL    HW117784   4.727   9.568   9.521
 5315SOL    HW217785   4.781   9.426   9.520
 5316SOL     OW17786   5.310   3.812  14.820
 5316SOL    HW117787   5.326   3.865  14.742
 5316SOL    HW217788   5.237   3.755  14.796
 5317SOL     OW17789   2.270  10.317  14.640
 5317SOL    HW117790   2.283  10.229  14.676
 5317SOL    HW217791   2.350  10.336  14.592
 5318SOL     OW17792   9.793  13.927   7.444
 5318SOL    HW117793   9.729  13.857   7.452
 5318SOL    HW217794   9.846  13.921   7.524
 5319SOL     OW17795  11.812   6.834  10.694
 5319SOL    HW117796  11.803   6.784  10.775
 5319SOL    HW217797  11.751   6.907  10.703
 5320SOL     OW17798  10.173  12.482   6.393
 5320SOL    HW117799  10.242  12.453   6.454
 5320SOL    HW217800  10.197  12.442   6.310
 5321SOL     OW17801  10.884   0.410   2.160
 5321SOL    HW117802  10.790   0.426   2.170
 5321SOL    HW217803  10.891   0.362   2.078
 5322SOL     OW17804  14.860   9.597  11.260
 5322SOL    HW117805  14.790   9.602  11.325
 5322SOL    HW217806  14.832   9.655  11.189
 5323SOL     OW17807   6.226   4.053   9.624
 5323SOL    HW117808   6.256   4.010   9.545
 5323SOL    HW217809   6.252   4.145   9.613
 5324SOL     OW17810   5.639  13.466  12.522
 5324SOL    HW117811   5.613  13.420  12.602
 5324SOL    HW217812   5.571  13.533  12.510
 5325SOL     OW17813   1.915  14.076  13.448
 5325SOL    HW117814   2.002  14.061  13.484
 5325SOL    HW217815   1.931  14.106  13.358
 5326SOL     OW17816  10.445  14.173   8.942
 5326SOL    HW117817  10.455  14.153   9.035
 5326SOL    HW217818  10.530  14.208   8.915
 5327SOL     OW17819  13.189   2.525   5.655
 5327SOL    HW117820  13.204   2.592   5.721
 5327SOL    HW217821  13.095   2.528   5.639
 5328SOL     OW17822   7.975  11.998  14.592
 5328SOL    HW117823   7.940  12.049  14.665
 5328SOL    HW217824   8.011  11.919  14.633
 5329SOL     OW17825  11.339   8.467  11.982
 5329SOL    HW117826  11.416   8.518  12.006
 5329SOL    HW217827  11.375   8.382  11.956
 5330SOL     OW17828  14.740   3.527  12.032
 5330SOL    HW117829  14.764   3.557  11.945
 5330SOL    HW217830  14.656   3.482  12.019
 5331SOL     OW17831  12.382   0.966  11.382
 5331SOL    HW117832  12.417   0.952  11.294
 5331SOL    HW217833  12.409   0.888  11.431
 5332SOL     OW17834  12.905   6.837  13.836
 5332SOL    HW117835  12.831   6.879  13.879
 5332SOL    HW217836  12.961   6.808  13.908
 5333SOL     OW17837  13.061   6.343   1.507
 5333SOL    HW117838  13.065   6.411   1.439
 5333SOL    HW217839  13.151   6.337   1.540
 5334SOL     OW17840   1.986  13.107   4.252
 5334SOL    HW117841   2.047  13.036   4.273
 5334SOL    HW217842   1.914  13.097   4.314
 5335SOL     OW17843  13.084   9.050   7.475
 5335SOL    HW117844  13.158   9.099   7.438
 5335SOL    HW217845  13.123   8.973   7.515
 5336SOL     OW17846   2.846   4.893   1.329
 5336SOL    HW117847   2.824   4.816   1.276
 5336SOL    HW217848   2.939   4.883   1.349
 5337SOL     OW17849   6.446   2.389   9.840
 5337SOL    HW117850   6.493   2.307   9.845
 5337SOL    HW217851   6.443   2.411   9.747
 5338SOL     OW17852   0.759  12.240   4.440
 5338SOL    HW117853   0.730  12.214   4.527
 5338SOL    HW217854   0.702  12.193   4.380
 5339SOL     OW17855   5.771   3.615   2.114
 5339SOL    HW117856   5.820   3.692   2.145
 5339SOL    HW217857   5.728   3.645   2.034
 5340SOL     OW17858   8.989   3.671   2.659
 5340SOL    HW117859   8.954   3.697   2.744
 5340SOL    HW217860   9.002   3.753   2.612
 5341SOL     OW17861   3.225   9.391   1.768
 5341SOL    HW117862   3.273   9.350   1.696
 5341SOL    HW217863   3.293   9.434   1.820
 5342SOL     OW17864   4.918  10.009   6.134
 5342SOL    HW117865   4.909  10.088   6.081
 5342SOL    HW217866   4.839  10.007   6.188
 5343SOL     OW17867   6.505   4.244   3.395
 5343SOL    HW117868   6.589   4.235   3.440
 5343SOL    HW217869   6.525   4.228   3.303
 5344SOL     OW17870   6.287  11.068  13.867
 5344SOL    HW117871   6.203  11.113  13.861
 5344SOL    HW217872   6.313  11.076  13.959
 5345SOL     OW17873   3.115  10.237   2.234
 5345SOL    HW117874   3.078  10.148   2.234
 5345SOL    HW217875   3.072  10.281   2.161
 5346SOL     OW17876  12.473  12.625   3.689
 5346SOL    HW117877  12.532  12.588   3.624
 5346SOL    HW217878  12.393  12.573   3.681
 5347SOL     OW17879   3.834  11.268   5.117
 5347SOL    HW117880   3.915  11.217   5.122
 5347SOL    HW217881   3.834  11.306   5.030
 5348SOL     OW17882  12.145  13.455   2.630
 5348SOL    HW117883  12.127  13.438   2.722
 5348SOL    HW217884  12.161  13.550   2.626
 5349SOL     OW17885  13.695   0.739  10.135
 5349SOL    HW117886  13.616   0.792  10.125
 5349SOL    HW217887  13.730   0.766  10.220
 5350SOL     OW17888   5.404  10.346   7.952
 5350SOL    HW117889   5.484  10.372   8.000
 5350SOL    HW217890   5.333  10.370   8.011
 5351SOL     OW17891  12.241   4.840   4.793
 5351SOL    HW117892  12.263   4.833   4.886
 5351SOL    HW217893  12.283   4.763   4.753
 5352SOL     OW17894   0.988  12.465   8.438
 5352SOL    HW117895   0.943  12.490   8.519
 5352SOL    HW217896   1.076  12.503   8.447
 5353SOL     OW17897  13.661   4.023   0.824
 5353SOL    HW117898  13.736   4.005   0.767
 5353SOL    HW217899  13.599   4.069   0.768
 5354SOL     OW17900  13.248  10.525  11.902
 5354SOL    HW117901  13.309  10.518  11.976
 5354SOL    HW217902  13.162  10.529  11.943
 5355SOL     OW17903  10.868   3.331   3.938
 5355SOL    HW117904  10.876   3.237   3.923
 5355SOL    HW217905  10.958   3.363   3.940
 5356SOL     OW17906  13.723   2.671   5.530
 5356SOL    HW117907  13.811   2.701   5.552
 5356SOL    HW217908  13.690   2.737   5.469
 5357SOL     OW17909   4.131   8.631   6.922
 5357SOL    HW117910   4.197   8.664   6.982
 5357SOL    HW217911   4.168   8.550   6.887
 5358SOL     OW17912   6.142   7.118   1.855
 5358SOL    HW117913   6.104   7.180   1.918
 5358SOL    HW217914   6.235   7.118   1.876
 5359SOL     OW17915  11.403   2.842   3.125
 5359SOL    HW117916  11.491   2.816   3.152
 5359SOL    HW217917  11.372   2.768   3.073
 5360SOL     OW17918   4.648   4.456  11.285
 5360SOL    HW117919   4.613   4.375  11.249
 5360SOL    HW217920   4.572   4.514  11.292
 5361SOL     OW17921  11.403   1.607   5.238
 5361SOL    HW117922  11.481   1.663   5.240
 5361SOL    HW217923  11.437   1.520   5.219
 5362SOL     OW17924  11.085  13.760   4.707
 5362SOL    HW117925  11.132  13.832   4.664
 5362SOL    HW217926  11.011  13.803   4.751
 5363SOL     OW17927   8.468   0.302   0.915
 5363SOL    HW117928   8.514   0.358   0.978
 5363SOL    HW217929   8.533   0.237   0.889
 5364SOL     OW17930   0.453   6.145   4.048
 5364SOL    HW117931   0.460   6.106   3.961
 5364SOL    HW217932   0.542   6.143   4.083
 5365SOL     OW17933   8.618   9.110   4.094
 5365SOL    HW117934   8.523   9.117   4.086
 5365SOL    HW217935   8.632   9.036   4.153
 5366SOL     OW17936   0.333   6.461   9.815
 5366SOL    HW117937   0.367   6.536   9.865
 5366SOL    HW217938   0.368   6.384   9.860
 5367SOL     OW17939   2.020   7.804  12.363
 5367SOL    HW117940   1.948   7.864  12.342
 5367SOL    HW217941   2.088   7.826  12.299
 5368SOL     OW17942  14.383   1.588   0.541
 5368SOL    HW117943  14.429   1.596   0.458
 5368SOL    HW217944  14.448   1.551   0.601
 5369SOL     OW17945   9.683   6.227   7.398
 5369SOL    HW117946   9.770   6.211   7.434
 5369SOL    HW217947   9.652   6.140   7.371
 5370SOL     OW17948   7.452   1.115   8.219
 5370SOL    HW117949   7.507   1.137   8.143
 5370SOL    HW217950   7.365   1.101   8.183
 5371SOL     OW17951  14.233   9.532   3.004
 5371SOL    HW117952  14.300   9.488   3.057
 5371SOL    HW217953  14.256   9.624   3.007
 5372SOL     OW17954  11.943  12.159  12.414
 5372SOL    HW117955  11.885  12.093  12.453
 5372SOL    HW217956  12.031  12.129  12.437
 5373SOL     OW17957   4.551   5.255   2.511
 5373SOL    HW117958   4.620   5.226   2.571
 5373SOL    HW217959   4.598   5.283   2.432
 5374SOL     OW17960   7.368   3.439   3.049
 5374SOL    HW117961   7.287   3.467   3.008
 5374SOL    HW217962   7.347   3.435   3.142
 5375SOL     OW17963  12.700   7.817   4.198
 5375SOL    HW117964  12.721   7.875   4.124
 5375SOL    HW217965  12.658   7.874   4.262
 5376SOL     OW17966   7.655   2.458   6.917
 5376SOL    HW117967   7.743   2.421   6.913
 5376SOL    HW217968   7.664   2.545   6.879
 5377SOL     OW17969   5.872   2.513   6.094
 5377SOL    HW117970   5.835   2.552   6.173
 5377SOL    HW217971   5.830   2.560   6.022
 5378SOL     OW17972   3.067   8.407  13.000
 5378SOL    HW117973   3.008   8.344  13.041
 5378SOL    HW217974   3.141   8.355  12.969
 5379SOL     OW17975   8.021  14.733  12.649
 5379SOL    HW117976   7.990  14.819  12.623
 5379SOL    HW217977   8.026  14.737  12.745
 5380SOL     OW17978   4.246   0.271   2.740
 5380SOL    HW117979   4.235   0.366   2.739
 5380SOL    HW217980   4.164   0.237   2.775
 5381SOL     OW17981   0.957  14.521   8.804
 5381SOL    HW117982   0.869  14.547   8.777
 5381SOL    HW217983   0.944  14.439   8.852
 5382SOL     OW17984  14.437   1.101  14.394
 5382SOL    HW117985  14.385   1.062  14.323
 5382SOL    HW217986  14.405   1.191  14.400
 5383SOL     OW17987   2.777  11.768   0.109
 5383SOL    HW117988   2.787  11.735   0.019
 5383SOL    HW217989   2.727  11.849   0.099
 5384SOL     OW17990   6.393   0.562  14.226
 5384SOL    HW117991   6.346   0.608  14.156
 5384SOL    HW217992   6.437   0.631  14.275
 5385SOL     OW17993   9.712   0.464  10.201
 5385SOL    HW117994   9.698   0.551  10.237
 5385SOL    HW217995   9.807   0.452  10.204
 5386SOL     OW17996   1.438   4.519   0.314
 5386SOL    HW117997   1.347   4.520   0.341
 5386SOL    HW217998   1.476   4.597   0.357
 5387SOL     OW17999  10.153  11.120  13.678
 5387SOL    HW118000  10.231  11.100  13.626
 5387SOL    HW218001  10.080  11.090  13.623
 5388SOL     OW18002   0.178  12.115   7.849
 5388SOL    HW118003   0.181  12.065   7.767
 5388SOL    HW218004   0.269  12.140   7.865
 5389SOL     OW18005  10.899   2.401  13.771
 5389SOL    HW118006  10.951   2.325  13.744
 5389SOL    HW218007  10.938   2.429  13.854
 5390SOL     OW18008   9.794   5.939   4.531
 5390SOL    HW118009   9.820   5.858   4.574
 5390SOL    HW218010   9.877   5.984   4.512
 5391SOL     OW18011   8.626   8.624   0.141
 5391SOL    HW118012   8.712   8.594   0.171
 5391SOL    HW218013   8.641   8.653   0.051
 5392SOL     OW18014  14.667   3.214   1.668
 5392SOL    HW118015  14.654   3.290   1.612
 5392SOL    HW218016  14.755   3.183   1.648
 5393SOL     OW18017  10.889   7.380   4.859
 5393SOL    HW118018  10.911   7.460   4.811
 5393SOL    HW218019  10.920   7.309   4.802
 5394SOL     OW18020   4.424   1.147  14.654
 5394SOL    HW118021   4.393   1.142  14.563
 5394SOL    HW218022   4.397   1.064  14.693
 5395SOL     OW18023  11.310   2.468   6.480
 5395SOL    HW118024  11.305   2.509   6.393
 5395SOL    HW218025  11.294   2.375   6.464
 5396SOL     OW18026  12.850   6.395  10.290
 5396SOL    HW118027  12.845   6.381  10.385
 5396SOL    HW218028  12.935   6.436  10.276
 5397SOL     OW18029  14.472   4.594   6.437
 5397SOL    HW118030  14.461   4.665   6.374
 5397SOL    HW218031  14.423   4.621   6.514
 5398SOL     OW18032   5.900   3.054   0.389
 5398SOL    HW118033   5.862   2.977   0.347
 5398SOL    HW218034   5.825   3.107   0.416
 5399SOL     OW18035   2.136   5.526  10.041
 5399SOL    HW118036   2.146   5.604   9.987
 5399SOL    HW218037   2.166   5.552  10.127
 5400SOL     OW18038   4.499   6.385   9.219
 5400SOL    HW118039   4.502   6.454   9.153
 5400SOL    HW218040   4.445   6.317   9.180
 5401SOL     OW18041   0.064   9.750   6.994
 5401SOL    HW118042   0.044   9.739   7.087
 5401SOL    HW218043   0.016   9.828   6.968
 5402SOL     OW18044  12.095   2.451   0.518
 5402SOL    HW118045  12.035   2.426   0.448
 5402SOL    HW218046  12.095   2.546   0.516
 5403SOL     OW18047  12.249   1.495   7.353
 5403SOL    HW118048  12.262   1.472   7.261
 5403SOL    HW218049  12.218   1.413   7.393
 5404SOL     OW18050   0.953   5.612  14.782
 5404SOL    HW118051   1.047   5.598  14.796
 5404SOL    HW218052   0.948   5.689  14.726
 5405SOL     OW18053   6.067  10.304   4.753
 5405SOL    HW118054   6.111  10.221   4.736
 5405SOL    HW218055   5.981  10.280   4.787
 5406SOL     OW18056  12.715   2.338  10.310
 5406SOL    HW118057  12.698   2.283  10.386
 5406SOL    HW218058  12.791   2.298  10.267
 5407SOL     OW18059   3.727  10.660  14.604
 5407SOL    HW118060   3.746  10.572  14.572
 5407SOL    HW218061   3.677  10.701  14.533
 5408SOL     OW18062  12.085  10.116  10.819
 5408SOL    HW118063  12.063  10.026  10.841
 5408SOL    HW218064  12.164  10.135  10.869
 5409SOL     OW18065   0.339  12.587   6.585
 5409SOL    HW118066   0.308  12.573   6.675
 5409SOL    HW218067   0.404  12.518   6.572
 5410SOL     OW18068  10.220  12.694   4.954
 5410SOL    HW118069  10.271  12.721   5.030
 5410SOL    HW218070  10.229  12.766   4.892
 5411SOL     OW18071   6.722   7.651   8.287
 5411SOL    HW118072   6.800   7.701   8.264
 5411SOL    HW218073   6.734   7.629   8.379
 5412SOL     OW18074   1.701  14.677   4.696
 5412SOL    HW118075   1.640  14.715   4.632
 5412SOL    HW218076   1.696  14.736   4.771
 5413SOL     OW18077  11.838   0.418   2.029
 5413SOL    HW118078  11.798   0.443   2.112
 5413SOL    HW218079  11.789   0.342   2.000
 5414SOL     OW18080  11.213   3.460  11.862
 5414SOL    HW118081  11.129   3.467  11.817
 5414SOL    HW218082  11.276   3.501  11.803
 5415SOL     OW18083   6.816   3.509   2.536
 5415SOL    HW118084   6.770   3.572   2.591
 5415SOL    HW218085   6.825   3.431   2.591
 5416SOL     OW18086   2.744   3.435   6.107
 5416SOL    HW118087   2.746   3.499   6.178
 5416SOL    HW218088   2.651   3.422   6.089
 5417SOL     OW18089   6.401  12.981   1.229
 5417SOL    HW118090   6.379  13.021   1.313
 5417SOL    HW218091   6.404  13.054   1.167
 5418SOL     OW18092  11.280  10.371   9.437
 5418SOL    HW118093  11.240  10.334   9.358
 5418SOL    HW218094  11.269  10.466   9.428
 5419SOL     OW18095   4.754  13.596   2.174
 5419SOL    HW118096   4.661  13.617   2.172
 5419SOL    HW218097   4.758  13.509   2.215
 5420SOL     OW18098   8.719  11.185  13.006
 5420SOL    HW118099   8.643  11.238  13.029
 5420SOL    HW218100   8.794  11.237  13.035
 5421SOL     OW18101   9.925   3.343   7.502
 5421SOL    HW118102   9.830   3.339   7.511
 5421SOL    HW218103   9.950   3.254   7.477
 5422SOL     OW18104   5.681  11.855   8.729
 5422SOL    HW118105   5.743  11.782   8.738
 5422SOL    HW218106   5.665  11.862   8.635
 5423SOL     OW18107   6.719   1.236   9.507
 5423SOL    HW118108   6.628   1.249   9.479
 5423SOL    HW218109   6.718   1.151   9.551
 5424SOL     OW18110   2.831  11.918   3.341
 5424SOL    HW118111   2.749  11.910   3.388
 5424SOL    HW218112   2.875  11.834   3.352
 5425SOL     OW18113   6.927   3.760   6.119
 5425SOL    HW118114   6.940   3.665   6.112
 5425SOL    HW218115   6.955   3.795   6.035
 5426SOL     OW18116  11.146  14.220  11.075
 5426SOL    HW118117  11.224  14.198  11.125
 5426SOL    HW218118  11.074  14.180  11.124
 5427SOL     OW18119   3.378  12.562  13.322
 5427SOL    HW118120   3.394  12.527  13.235
 5427SOL    HW218121   3.419  12.499  13.382
 5428SOL     OW18122   6.260   2.781  10.013
 5428SOL    HW118123   6.272   2.795   9.919
 5428SOL    HW218124   6.283   2.689  10.026
 5429SOL     OW18125   7.338  14.438  12.598
 5429SOL    HW118126   7.309  14.481  12.679
 5429SOL    HW218127   7.259  14.394  12.566
 5430SOL     OW18128   6.857   6.060   1.261
 5430SOL    HW118129   6.818   6.147   1.250
 5430SOL    HW218130   6.934   6.075   1.316
 5431SOL     OW18131  13.241  12.881   0.514
 5431SOL    HW118132  13.305  12.904   0.581
 5431SOL    HW218133  13.240  12.785   0.514
 5432SOL     OW18134   8.346  12.830   0.090
 5432SOL    HW118135   8.282  12.897   0.067
 5432SOL    HW218136   8.396  12.868   0.163
 5433SOL     OW18137  12.544  10.947   4.670
 5433SOL    HW118138  12.584  11.019   4.718
 5433SOL    HW218139  12.602  10.872   4.686
 5434SOL     OW18140  13.949   9.996   8.055
 5434SOL    HW118141  13.964  10.090   8.058
 5434SOL    HW218142  13.855   9.986   8.041
 5435SOL     OW18143  13.749   7.488   9.891
 5435SOL    HW118144  13.745   7.581   9.871
 5435SOL    HW218145  13.828   7.457   9.849
 5436SOL     OW18146   8.280   2.790   1.520
 5436SOL    HW118147   8.205   2.797   1.462
 5436SOL    HW218148   8.249   2.822   1.604
 5437SOL     OW18149   0.809   4.674   2.094
 5437SOL    HW118150   0.790   4.628   2.012
 5437SOL    HW218151   0.843   4.606   2.153
 5438SOL     OW18152  13.365   0.489   6.532
 5438SOL    HW118153  13.396   0.461   6.618
 5438SOL    HW218154  13.278   0.448   6.523
 5439SOL     OW18155   3.543  13.216   2.114
 5439SOL    HW118156   3.543  13.256   2.200
 5439SOL    HW218157   3.450  13.205   2.092
 5440SOL     OW18158   2.146  12.374  13.390
 5440SOL    HW118159   2.080  12.443  13.380
 5440SOL    HW218160   2.196  12.400  13.467
 5441SOL     OW18161   2.293   1.043   6.723
 5441SOL    HW118162   2.238   0.984   6.774
 5441SOL    HW218163   2.235   1.077   6.655
 5442SOL     OW18164  13.325   8.249   4.054
 5442SOL    HW118165  13.236   8.275   4.078
 5442SOL    HW218166  13.363   8.328   4.016
 5443SOL     OW18167   5.318   2.438  14.345
 5443SOL    HW118168   5.322   2.466  14.253
 5443SOL    HW218169   5.387   2.372  14.353
 5444SOL     OW18170  11.308   0.001  11.467
 5444SOL    HW118171  11.335  14.815  11.537
 5444SOL    HW218172  11.362  14.850  11.393
 5445SOL     OW18173   7.194   0.575  12.682
 5445SOL    HW118174   7.163   0.625  12.606
 5445SOL    HW218175   7.141   0.606  12.755
 5446SOL     OW18176  12.520   1.677   4.418
 5446SOL    HW118177  12.477   1.638   4.342
 5446SOL    HW218178  12.578   1.608   4.450
 5447SOL     OW18179  12.850  10.177  12.933
 5447SOL    HW118180  12.790  10.216  12.870
 5447SOL    HW218181  12.834  10.083  12.926
 5448SOL     OW18182   8.206  14.214  11.138
 5448SOL    HW118183   8.147  14.219  11.063
 5448SOL    HW218184   8.165  14.270  11.205
 5449SOL     OW18185  14.234  10.262   1.203
 5449SOL    HW118186  14.166  10.234   1.141
 5449SOL    HW218187  14.187  10.295   1.279
 5450SOL     OW18188   0.770   4.119   8.406
 5450SOL    HW118189   0.789   4.170   8.485
 5450SOL    HW218190   0.682   4.083   8.421
 5451SOL     OW18191   0.976   2.507  10.615
 5451SOL    HW118192   0.927   2.425  10.623
 5451SOL    HW218193   0.955   2.556  10.695
 5452SOL     OW18194  11.110  10.719   0.596
 5452SOL    HW118195  11.057  10.705   0.517
 5452SOL    HW218196  11.049  10.703   0.668
 5453SOL     OW18197  10.254   0.119   8.063
 5453SOL    HW118198  10.343   0.131   8.096
 5453SOL    HW218199  10.263   0.056   7.991
 5454SOL     OW18200   9.104  13.380   8.887
 5454SOL    HW118201   9.146  13.466   8.892
 5454SOL    HW218202   9.176  13.319   8.873
 5455SOL     OW18203   6.987  14.342  11.477
 5455SOL    HW118204   7.042  14.323  11.552
 5455SOL    HW218205   7.049  14.373  11.410
 5456SOL     OW18206   8.475   6.060   8.896
 5456SOL    HW118207   8.473   6.023   8.984
 5456SOL    HW218208   8.540   6.130   8.901
 5457SOL     OW18209  11.644   3.202   3.878
 5457SOL    HW118210  11.672   3.242   3.960
 5457SOL    HW218211  11.613   3.276   3.825
 5458SOL     OW18212   8.636   8.441  11.273
 5458SOL    HW118213   8.604   8.530  11.258
 5458SOL    HW218214   8.707   8.430  11.210
 5459SOL     OW18215   9.300   1.142   9.655
 5459SOL    HW118216   9.258   1.076   9.710
 5459SOL    HW218217   9.229   1.175   9.600
 5460SOL     OW18218   1.325   9.365   5.487
 5460SOL    HW118219   1.295   9.325   5.568
 5460SOL    HW218220   1.245   9.383   5.438
 5461SOL     OW18221   3.338   4.155   7.346
 5461SOL    HW118222   3.251   4.192   7.358
 5461SOL    HW218223   3.338   4.122   7.256
 5462SOL     OW18224  11.644   8.759   8.875
 5462SOL    HW118225  11.677   8.811   8.801
 5462SOL    HW218226  11.552   8.744   8.854
 5463SOL     OW18227   3.011   7.203   8.155
 5463SOL    HW118228   2.923   7.240   8.158
 5463SOL    HW218229   3.018   7.165   8.068
 5464SOL     OW18230   0.874   4.968   3.676
 5464SOL    HW118231   0.926   5.013   3.743
 5464SOL    HW218232   0.909   4.879   3.674
 5465SOL     OW18233  12.489  12.491   5.970
 5465SOL    HW118234  12.542  12.526   6.042
 5465SOL    HW218235  12.512  12.545   5.895
 5466SOL     OW18236   6.482   4.049   1.903
 5466SOL    HW118237   6.459   4.005   1.822
 5466SOL    HW218238   6.524   3.982   1.957
 5467SOL     OW18239   3.036   2.416   3.451
 5467SOL    HW118240   2.966   2.384   3.506
 5467SOL    HW218241   3.105   2.350   3.459
 5468SOL     OW18242   6.831   6.497   0.118
 5468SOL    HW118243   6.913   6.480   0.164
 5468SOL    HW218244   6.844   6.582   0.076
 5469SOL     OW18245   8.407  13.217   8.676
 5469SOL    HW118246   8.313  13.220   8.693
 5469SOL    HW218247   8.443  13.287   8.731
 5470SOL     OW18248   7.648  13.775   5.370
 5470SOL    HW118249   7.741  13.787   5.390
 5470SOL    HW218250   7.641  13.795   5.276
 5471SOL     OW18251   5.838   2.279   5.653
 5471SOL    HW118252   5.812   2.246   5.740
 5471SOL    HW218253   5.826   2.374   5.659
 5472SOL     OW18254   8.945  11.414   0.567
 5472SOL    HW118255   8.895  11.492   0.540
 5472SOL    HW218256   8.942  11.415   0.662
 5473SOL     OW18257  11.572   5.422  11.726
 5473SOL    HW118258  11.644   5.425  11.664
 5473SOL    HW218259  11.600   5.478  11.799
 5474SOL     OW18260   5.262   3.563  13.350
 5474SOL    HW118261   5.186   3.601  13.394
 5474SOL    HW218262   5.297   3.633  13.296
 5475SOL     OW18263   2.685   9.376   9.785
 5475SOL    HW118264   2.676   9.423   9.868
 5475SOL    HW218265   2.697   9.444   9.719
 5476SOL     OW18266  10.735  11.918   6.670
 5476SOL    HW118267  10.670  11.905   6.739
 5476SOL    HW218268  10.792  11.842   6.677
 5477SOL     OW18269   4.488   0.732   0.463
 5477SOL    HW118270   4.435   0.673   0.517
 5477SOL    HW218271   4.486   0.692   0.376
 5478SOL     OW18272  10.901   7.120  14.718
 5478SOL    HW118273  10.821   7.141  14.767
 5478SOL    HW218274  10.879   7.042  14.668
 5479SOL     OW18275   7.533   5.256  10.411
 5479SOL    HW118276   7.549   5.263  10.505
 5479SOL    HW218277   7.619   5.266  10.371
 5480SOL     OW18278   4.039   0.712   9.989
 5480SOL    HW118279   4.104   0.698  10.058
 5480SOL    HW218280   3.960   0.738  10.037
 5481SOL     OW18281   1.184   4.502   6.646
 5481SOL    HW118282   1.264   4.505   6.593
 5481SOL    HW218283   1.206   4.445   6.719
 5482SOL     OW18284   4.732   1.709  13.294
 5482SOL    HW118285   4.706   1.691  13.203
 5482SOL    HW218286   4.722   1.626  13.339
 5483SOL     OW18287   5.514   8.071   7.252
 5483SOL    HW118288   5.552   7.985   7.272
 5483SOL    HW218289   5.500   8.112   7.337
 5484SOL     OW18290  13.028   4.373   4.893
 5484SOL    HW118291  13.074   4.382   4.810
 5484SOL    HW218292  12.949   4.324   4.871
 5485SOL     OW18293  11.917   6.226  12.918
 5485SOL    HW118294  11.997   6.194  12.876
 5485SOL    HW218295  11.846   6.198  12.860
 5486SOL     OW18296   9.662  13.617   4.691
 5486SOL    HW118297   9.753  13.633   4.717
 5486SOL    HW218298   9.666  13.535   4.642
 5487SOL     OW18299   4.403   1.985   6.844
 5487SOL    HW118300   4.380   2.060   6.788
 5487SOL    HW218301   4.485   1.953   6.808
 5488SOL     OW18302  10.433   5.508   7.040
 5488SOL    HW118303  10.447   5.420   7.075
 5488SOL    HW218304  10.339   5.522   7.045
 5489SOL     OW18305   6.345   6.526   5.312
 5489SOL    HW118306   6.311   6.575   5.237
 5489SOL    HW218307   6.379   6.445   5.274
 5490SOL     OW18308  12.893  13.742   4.045
 5490SOL    HW118309  12.817  13.698   4.007
 5490SOL    HW218310  12.910  13.815   3.986
 5491SOL     OW18311   6.298  11.610   8.594
 5491SOL    HW118312   6.246  11.640   8.668
 5491SOL    HW218313   6.373  11.566   8.633
 5492SOL     OW18314   8.152   3.771   5.811
 5492SOL    HW118315   8.233   3.738   5.774
 5492SOL    HW218316   8.092   3.696   5.808
 5493SOL     OW18317   5.628  10.910   8.078
 5493SOL    HW118318   5.549  10.857   8.090
 5493SOL    HW218319   5.696  10.847   8.055
 5494SOL     OW18320   8.312  12.594   5.771
 5494SOL    HW118321   8.252  12.527   5.803
 5494SOL    HW218322   8.255  12.658   5.727
 5495SOL     OW18323   9.251  11.227   6.503
 5495SOL    HW118324   9.304  11.148   6.513
 5495SOL    HW218325   9.211  11.240   6.589
 5496SOL     OW18326   4.207   2.939   3.889
 5496SOL    HW118327   4.119   2.949   3.926
 5496SOL    HW218328   4.252   3.019   3.913
 5497SOL     OW18329   3.717  13.242   2.677
 5497SOL    HW118330   3.810  13.240   2.654
 5497SOL    HW218331   3.705  13.324   2.724
 5498SOL     OW18332   6.576  10.156  12.287
 5498SOL    HW118333   6.515  10.082  12.286
 5498SOL    HW218334   6.574  10.190  12.198
 5499SOL     OW18335   8.711   6.286   3.052
 5499SOL    HW118336   8.667   6.214   3.098
 5499SOL    HW218337   8.657   6.301   2.975
 5500SOL     OW18338   9.063  11.462  10.314
 5500SOL    HW118339   9.053  11.424  10.400
 5500SOL    HW218340   9.155  11.491  10.311
 5501SOL     OW18341  10.153   9.850  13.475
 5501SOL    HW118342  10.143   9.774  13.533
 5501SOL    HW218343  10.104   9.827  13.396
 5502SOL     OW18344   9.183   2.607   4.286
 5502SOL    HW118345   9.211   2.517   4.273
 5502SOL    HW218346   9.151   2.635   4.200
 5503SOL     OW18347  11.528   2.801   4.902
 5503SOL    HW118348  11.536   2.747   4.981
 5503SOL    HW218349  11.510   2.889   4.935
 5504SOL     OW18350   7.792   0.932   9.295
 5504SOL    HW118351   7.729   0.998   9.323
 5504SOL    HW218352   7.845   0.915   9.372
 5505SOL     OW18353   1.564  12.649   0.733
 5505SOL    HW118354   1.486  12.615   0.690
 5505SOL    HW218355   1.549  12.632   0.826
 5506SOL     OW18356  14.085   7.349  10.422
 5506SOL    HW118357  14.145   7.394  10.481
 5506SOL    HW218358  14.135   7.274  10.391
 5507SOL     OW18359   7.935   5.488   1.886
 5507SOL    HW118360   7.909   5.492   1.978
 5507SOL    HW218361   7.858   5.519   1.838
 5508SOL     OW18362   5.750  11.789  10.596
 5508SOL    HW118363   5.674  11.844  10.578
 5508SOL    HW218364   5.792  11.829  10.673
 5509SOL     OW18365   5.442  12.235  14.460
 5509SOL    HW118366   5.509  12.171  14.483
 5509SOL    HW218367   5.431  12.288  14.539
 5510SOL     OW18368   8.417  14.837  12.248
 5510SOL    HW118369   8.341  14.867  12.299
 5510SOL    HW218370   8.492  14.851  12.307
 5511SOL     OW18371   4.238  14.328   7.212
 5511SOL    HW118372   4.191  14.392   7.159
 5511SOL    HW218373   4.227  14.245   7.165
 5512SOL     OW18374   7.847   2.293  11.095
 5512SOL    HW118375   7.844   2.200  11.120
 5512SOL    HW218376   7.827   2.340  11.175
 5513SOL     OW18377  11.423  10.121  12.104
 5513SOL    HW118378  11.409  10.189  12.170
 5513SOL    HW218379  11.477  10.164  12.037
 5514SOL     OW18380   2.033   3.146   5.174
 5514SOL    HW118381   1.988   3.206   5.116
 5514SOL    HW218382   2.022   3.060   5.134
 5515SOL     OW18383  11.822   2.999   0.729
 5515SOL    HW118384  11.798   3.044   0.810
 5515SOL    HW218385  11.910   3.031   0.709
 5516SOL     OW18386  11.653   5.328   9.395
 5516SOL    HW118387  11.700   5.409   9.375
 5516SOL    HW218388  11.587   5.355   9.459
 5517SOL     OW18389   1.998  10.905   6.225
 5517SOL    HW118390   2.033  10.900   6.136
 5517SOL    HW218391   2.076  10.900   6.282
 5518SOL     OW18392   0.106   4.024  14.388
 5518SOL    HW118393   0.043   3.956  14.413
 5518SOL    HW218394   0.189   3.977  14.376
 5519SOL     OW18395  11.390   7.951  13.350
 5519SOL    HW118396  11.472   7.981  13.389
 5519SOL    HW218397  11.416   7.887  13.284
 5520SOL     OW18398   8.842   2.196   9.886
 5520SOL    HW118399   8.766   2.156   9.928
 5520SOL    HW218400   8.837   2.288   9.911
 5521SOL     OW18401   1.797   0.343   1.893
 5521SOL    HW118402   1.774   0.251   1.879
 5521SOL    HW218403   1.893   0.343   1.897
 5522SOL     OW18404  13.549  10.865   2.611
 5522SOL    HW118405  13.573  10.814   2.534
 5522SOL    HW218406  13.541  10.955   2.579
 5523SOL     OW18407  13.436   3.449   2.187
 5523SOL    HW118408  13.504   3.515   2.178
 5523SOL    HW218409  13.370   3.474   2.121
 5524SOL     OW18410   0.945   2.705   7.654
 5524SOL    HW118411   1.036   2.676   7.652
 5524SOL    HW218412   0.903   2.658   7.582
 5525SOL     OW18413   0.417   7.038  11.720
 5525SOL    HW118414   0.489   7.100  11.712
 5525SOL    HW218415   0.348   7.087  11.764
 5526SOL     OW18416   5.298   8.021   5.891
 5526SOL    HW118417   5.374   8.032   5.948
 5526SOL    HW218418   5.330   7.968   5.818
 5527SOL     OW18419   7.317   5.445   9.362
 5527SOL    HW118420   7.302   5.389   9.438
 5527SOL    HW218421   7.283   5.531   9.387
 5528SOL     OW18422  14.444  13.059   2.572
 5528SOL    HW118423  14.431  12.974   2.615
 5528SOL    HW218424  14.537  13.059   2.548
 5529SOL     OW18425   2.368   7.431   1.522
 5529SOL    HW118426   2.461   7.412   1.521
 5529SOL    HW218427   2.326   7.348   1.544
 5530SOL     OW18428   5.917  11.962  12.387
 5530SOL    HW118429   5.950  11.884  12.342
 5530SOL    HW218430   5.965  11.963  12.470
 5531SOL     OW18431   9.020   5.497   2.137
 5531SOL    HW118432   9.070   5.474   2.059
 5531SOL    HW218433   9.070   5.458   2.209
 5532SOL     OW18434  12.634   9.433   5.838
 5532SOL    HW118435  12.616   9.476   5.922
 5532SOL    HW218436  12.692   9.361   5.860
 5533SOL     OW18437   7.526  10.959  10.603
 5533SOL    HW118438   7.563  10.969  10.691
 5533SOL    HW218439   7.514  11.049  10.572
 5534SOL     OW18440  10.074   2.161   7.344
 5534SOL    HW118441  10.103   2.207   7.265
 5534SOL    HW218442   9.997   2.211   7.373
 5535SOL     OW18443   4.918  13.829   8.677
 5535SOL    HW118444   4.877  13.912   8.702
 5535SOL    HW218445   4.917  13.830   8.581
 5536SOL     OW18446  11.082  10.152   3.227
 5536SOL    HW118447  11.069  10.088   3.297
 5536SOL    HW218448  11.002  10.148   3.175
 5537SOL     OW18449   3.849   0.760   8.634
 5537SOL    HW118450   3.767   0.713   8.652
 5537SOL    HW218451   3.826   0.822   8.565
 5538SOL     OW18452   7.893   9.964  10.885
 5538SOL    HW118453   7.822   9.917  10.928
 5538SOL    HW218454   7.871   9.961  10.792
 5539SOL     OW18455  13.536  12.393   3.286
 5539SOL    HW118456  13.481  12.360   3.357
 5539SOL    HW218457  13.570  12.314   3.244
 5540SOL     OW18458  14.475  14.472   8.417
 5540SOL    HW118459  14.563  14.482   8.382
 5540SOL    HW218460  14.421  14.531   8.365
 5541SOL     OW18461  12.337   2.323   2.676
 5541SOL    HW118462  12.410   2.281   2.632
 5541SOL    HW218463  12.309   2.392   2.616
 5542SOL     OW18464  12.501  14.305   5.544
 5542SOL    HW118465  12.428  14.357   5.578
 5542SOL    HW218466  12.462  14.254   5.472
 5543SOL     OW18467  13.858   5.589   1.854
 5543SOL    HW118468  13.876   5.510   1.906
 5543SOL    HW218469  13.896   5.660   1.906
 5544SOL     OW18470   2.094   4.623  14.159
 5544SOL    HW118471   2.013   4.627  14.210
 5544SOL    HW218472   2.115   4.529  14.156
 5545SOL     OW18473  11.533   0.937   3.794
 5545SOL    HW118474  11.560   0.867   3.854
 5545SOL    HW218475  11.442   0.954   3.818
 5546SOL     OW18476   2.579   2.333   0.207
 5546SOL    HW118477   2.640   2.259   0.199
 5546SOL    HW218478   2.633   2.404   0.242
 5547SOL     OW18479   1.686   9.871   0.103
 5547SOL    HW118480   1.681   9.869   0.008
 5547SOL    HW218481   1.596   9.857   0.132
 5548SOL     OW18482   6.415   9.605  14.828
 5548SOL    HW118483   6.429   9.690  14.870
 5548SOL    HW218484   6.321   9.604  14.808
 5549SOL     OW18485  12.706   7.689  14.803
 5549SOL    HW118486  12.726   7.601  14.833
 5549SOL    HW218487  12.765   7.746  14.852
 5550SOL     OW18488   0.266   3.386   9.849
 5550SOL    HW118489   0.246   3.405   9.757
 5550SOL    HW218490   0.315   3.305   9.847
 5551SOL     OW18491  13.879   5.763  10.086
 5551SOL    HW118492  13.865   5.856  10.103
 5551SOL    HW218493  13.862   5.720  10.170
 5552SOL     OW18494  10.547  10.150  12.621
 5552SOL    HW118495  10.592  10.075  12.659
 5552SOL    HW218496  10.614  10.197  12.572
 5553SOL     OW18497   2.399  12.950   6.142
 5553SOL    HW118498   2.400  12.968   6.048
 5553SOL    HW218499   2.474  12.998   6.177
 5554SOL     OW18500   4.788  13.118  10.533
 5554SOL    HW118501   4.862  13.148  10.585
 5554SOL    HW218502   4.815  13.134  10.442
 5555SOL     OW18503  10.493   3.688   3.624
 5555SOL    HW118504  10.446   3.605   3.631
 5555SOL    HW218505  10.585   3.664   3.617
 5556SOL     OW18506  10.544   5.444  11.082
 5556SOL    HW118507  10.605   5.516  11.067
 5556SOL    HW218508  10.599   5.367  11.091
 5557SOL     OW18509  10.941   9.339   7.675
 5557SOL    HW118510  10.852   9.305   7.661
 5557SOL    HW218511  10.980   9.338   7.588
 5558SOL     OW18512   6.243   7.186   9.453
 5558SOL    HW118513   6.198   7.271   9.463
 5558SOL    HW218514   6.174   7.121   9.469
 5559SOL     OW18515  13.038  10.830  11.073
 5559SOL    HW118516  13.126  10.794  11.083
 5559SOL    HW218517  13.049  10.906  11.015
 5560SOL     OW18518   6.425   7.900  12.818
 5560SOL    HW118519   6.368   7.955  12.764
 5560SOL    HW218520   6.498   7.878  12.760
 5561SOL     OW18521   9.901  13.493   0.738
 5561SOL    HW118522   9.848  13.493   0.658
 5561SOL    HW218523   9.938  13.405   0.742
 5562SOL     OW18524   2.539   0.872   2.684
 5562SOL    HW118525   2.602   0.885   2.754
 5562SOL    HW218526   2.461   0.835   2.727
 5563SOL     OW18527   6.012  12.247   2.515
 5563SOL    HW118528   5.933  12.282   2.475
 5563SOL    HW218529   6.066  12.324   2.533
 5564SOL     OW18530   4.923   2.774  12.103
 5564SOL    HW118531   4.887   2.821  12.028
 5564SOL    HW218532   4.981   2.838  12.145
 5565SOL     OW18533  10.380   4.084   9.865
 5565SOL    HW118534  10.432   4.123   9.795
 5565SOL    HW218535  10.430   4.007   9.892
 5566SOL     OW18536  12.659   5.776   4.497
 5566SOL    HW118537  12.663   5.705   4.434
 5566SOL    HW218538  12.567   5.801   4.501
 5567SOL     OW18539  13.381   5.949   5.104
 5567SOL    HW118540  13.432   5.913   5.177
 5567SOL    HW218541  13.431   5.927   5.026
 5568SOL     OW18542   9.378  14.835   8.097
 5568SOL    HW118543   9.437  14.835   8.172
 5568SOL    HW218544   9.435  14.825   8.021
 5569SOL     OW18545   3.850   0.525   1.092
 5569SOL    HW118546   3.830   0.468   1.018
 5569SOL    HW218547   3.938   0.501   1.119
 5570SOL     OW18548  10.692   7.166   2.543
 5570SOL    HW118549  10.638   7.187   2.467
 5570SOL    HW218550  10.773   7.132   2.506
 5571SOL     OW18551   9.339  12.858   8.201
 5571SOL    HW118552   9.307  12.791   8.261
 5571SOL    HW218553   9.396  12.811   8.141
 5572SOL     OW18554  10.903  12.943   0.837
 5572SOL    HW118555  10.918  13.020   0.781
 5572SOL    HW218556  10.960  12.957   0.912
 5573SOL     OW18557   2.328   3.733   5.153
 5573SOL    HW118558   2.320   3.801   5.086
 5573SOL    HW218559   2.421   3.733   5.175
 5574SOL     OW18560   8.848   5.160   4.989
 5574SOL    HW118561   8.926   5.205   5.024
 5574SOL    HW218562   8.808   5.224   4.931
 5575SOL     OW18563  13.699   6.076   8.368
 5575SOL    HW118564  13.766   6.126   8.321
 5575SOL    HW218565  13.623   6.076   8.309
 5576SOL     OW18566   5.471   7.135   1.044
 5576SOL    HW118567   5.447   7.094   0.960
 5576SOL    HW218568   5.420   7.215   1.047
 5577SOL     OW18569   8.354  11.186  14.266
 5577SOL    HW118570   8.336  11.201  14.173
 5577SOL    HW218571   8.360  11.274  14.304
 5578SOL     OW18572   3.763   5.320  13.872
 5578SOL    HW118573   3.750   5.325  13.966
 5578SOL    HW218574   3.825   5.390  13.852
 5579SOL     OW18575   0.804  13.017   1.555
 5579SOL    HW118576   0.850  12.952   1.502
 5579SOL    HW218577   0.871  13.083   1.574
 5580SOL     OW18578   0.305   3.869   8.033
 5580SOL    HW118579   0.230   3.906   7.985
 5580SOL    HW218580   0.274   3.861   8.123
 5581SOL     OW18581   9.803  14.198   3.110
 5581SOL    HW118582   9.794  14.255   3.186
 5581SOL    HW218583   9.874  14.237   3.058
 5582SOL     OW18584   4.706   6.228  11.695
 5582SOL    HW118585   4.711   6.252  11.603
 5582SOL    HW218586   4.621   6.263  11.724
 5583SOL     OW18587  12.480  13.068   2.809
 5583SOL    HW118588  12.556  13.010   2.817
 5583SOL    HW218589  12.510  13.151   2.846
 5584SOL     OW18590  14.718   5.832   5.255
 5584SOL    HW118591  14.670   5.784   5.188
 5584SOL    HW218592  14.704   5.782   5.336
 5585SOL     OW18593   9.015  11.290   1.657
 5585SOL    HW118594   9.045  11.206   1.621
 5585SOL    HW218595   8.995  11.270   1.749
 5586SOL     OW18596   9.797   1.474  12.441
 5586SOL    HW118597   9.827   1.401  12.388
 5586SOL    HW218598   9.877   1.516  12.472
 5587SOL     OW18599   5.118   2.019   4.697
 5587SOL    HW118600   5.089   2.019   4.788
 5587SOL    HW218601   5.117   1.927   4.671
 5588SOL     OW18602   5.105  14.648   5.067
 5588SOL    HW118603   5.054  14.568   5.075
 5588SOL    HW218604   5.130  14.670   5.157
 5589SOL     OW18605   2.062   6.644  14.723
 5589SOL    HW118606   2.126   6.705  14.686
 5589SOL    HW218607   2.003   6.624  14.650
 5590SOL     OW18608  10.539   3.823  12.671
 5590SOL    HW118609  10.565   3.824  12.579
 5590SOL    HW218610  10.623   3.821  12.718
 5591SOL     OW18611  12.647  13.807   8.885
 5591SOL    HW118612  12.581  13.753   8.842
 5591SOL    HW218613  12.684  13.750   8.952
 5592SOL     OW18614  10.884  13.863   2.947
 5592SOL    HW118615  10.941  13.816   2.886
 5592SOL    HW218616  10.831  13.795   2.989
 5593SOL     OW18617  10.389   4.250   8.607
 5593SOL    HW118618  10.314   4.309   8.612
 5593SOL    HW218619  10.464   4.304   8.632
 5594SOL     OW18620  10.581   4.478   1.649
 5594SOL    HW118621  10.604   4.515   1.564
 5594SOL    HW218622  10.571   4.384   1.632
 5595SOL     OW18623   4.062   1.921   0.603
 5595SOL    HW118624   4.080   1.922   0.509
 5595SOL    HW218625   3.967   1.922   0.610
 5596SOL     OW18626  13.775   0.468  12.509
 5596SOL    HW118627  13.704   0.432  12.457
 5596SOL    HW218628  13.781   0.411  12.585
 5597SOL     OW18629  11.104   7.796   0.552
 5597SOL    HW118630  11.140   7.718   0.509
 5597SOL    HW218631  11.009   7.780   0.553
 5598SOL     OW18632  12.605   9.260   1.187
 5598SOL    HW118633  12.659   9.186   1.213
 5598SOL    HW218634  12.632   9.331   1.246
 5599SOL     OW18635  14.807   2.820   3.464
 5599SOL    HW118636  14.771   2.791   3.380
 5599SOL    HW218637   0.028   2.812   3.453
 5600SOL     OW18638   6.876   9.195   8.121
 5600SOL    HW118639   6.967   9.179   8.097
 5600SOL    HW218640   6.840   9.246   8.048
 5601SOL     OW18641   0.932   5.128  11.713
 5601SOL    HW118642   0.917   5.079  11.632
 5601SOL    HW218643   1.016   5.095  11.746
 5602SOL     OW18644  11.082   2.655  11.873
 5602SOL    HW118645  11.018   2.715  11.912
 5602SOL    HW218646  11.160   2.708  11.860
 5603SOL     OW18647   2.260   1.988   4.251
 5603SOL    HW118648   2.256   2.072   4.206
 5603SOL    HW218649   2.299   2.008   4.337
 5604SOL     OW18650  10.653   9.472   7.978
 5604SOL    HW118651  10.635   9.566   7.977
 5604SOL    HW218652  10.607   9.440   8.056
 5605SOL     OW18653   0.660   8.816   3.098
 5605SOL    HW118654   0.614   8.867   3.031
 5605SOL    HW218655   0.751   8.845   3.091
 5606SOL     OW18656   5.516  10.831  12.916
 5606SOL    HW118657   5.430  10.842  12.956
 5606SOL    HW218658   5.558  10.917  12.923
 5607SOL     OW18659  13.387   1.881   0.287
 5607SOL    HW118660  13.342   1.950   0.240
 5607SOL    HW218661  13.323   1.810   0.294
 5608SOL     OW18662   0.413   1.907   7.282
 5608SOL    HW118663   0.358   1.934   7.355
 5608SOL    HW218664   0.459   1.829   7.313
 5609SOL     OW18665   9.154   7.274  11.967
 5609SOL    HW118666   9.149   7.354  11.915
 5609SOL    HW218667   9.066   7.261  12.000
 5610SOL     OW18668   6.945  13.925   1.855
 5610SOL    HW118669   6.884  13.988   1.816
 5610SOL    HW218670   7.026  13.975   1.868
 5611SOL     OW18671   5.393   2.808  12.433
 5611SOL    HW118672   5.363   2.794  12.343
 5611SOL    HW218673   5.408   2.902  12.439
 5612SOL     OW18674  13.586  12.504   4.858
 5612SOL    HW118675  13.593  12.425   4.911
 5612SOL    HW218676  13.657  12.496   4.793
 5613SOL     OW18677   4.983  13.800  10.142
 5613SOL    HW118678   4.929  13.725  10.167
 5613SOL    HW218679   4.933  13.843  10.073
 5614SOL     OW18680   8.333   0.234   7.885
 5614SOL    HW118681   8.378   0.227   7.801
 5614SOL    HW218682   8.242   0.254   7.862
 5615SOL     OW18683   8.010   9.236   3.381
 5615SOL    HW118684   8.084   9.264   3.435
 5615SOL    HW218685   8.005   9.141   3.394
 5616SOL     OW18686   3.935  10.361   8.458
 5616SOL    HW118687   3.852  10.327   8.492
 5616SOL    HW218688   3.983  10.388   8.536
 5617SOL     OW18689   6.840   6.928   7.669
 5617SOL    HW118690   6.757   6.964   7.700
 5617SOL    HW218691   6.821   6.836   7.652
 5618SOL     OW18692   4.927   2.059   7.539
 5618SOL    HW118693   4.970   1.995   7.482
 5618SOL    HW218694   4.997   2.118   7.565
 5619SOL     OW18695   4.902   2.027  14.348
 5619SOL    HW118696   4.843   2.065  14.283
 5619SOL    HW218697   4.959   2.099  14.375
 5620SOL     OW18698   8.549   2.253   5.197
 5620SOL    HW118699   8.606   2.329   5.194
 5620SOL    HW218700   8.535   2.237   5.290
 5621SOL     OW18701   2.987   3.076  10.847
 5621SOL    HW118702   2.992   3.129  10.927
 5621SOL    HW218703   3.011   2.988  10.875
 5622SOL     OW18704   0.170   6.330   4.259
 5622SOL    HW118705   0.185   6.310   4.167
 5622SOL    HW218706   0.076   6.315   4.273
 5623SOL     OW18707  13.510  14.124   5.590
 5623SOL    HW118708  13.591  14.171   5.613
 5623SOL    HW218709  13.486  14.077   5.670
 5624SOL     OW18710   0.930  10.702  11.399
 5624SOL    HW118711   0.950  10.620  11.354
 5624SOL    HW218712   0.905  10.763  11.329
 5625SOL     OW18713  10.669   1.810   1.009
 5625SOL    HW118714  10.743   1.869   1.021
 5625SOL    HW218715  10.709   1.723   1.000
 5626SOL     OW18716  11.229   7.016  11.282
 5626SOL    HW118717  11.223   7.031  11.187
 5626SOL    HW218718  11.185   6.932  11.295
 5627SOL     OW18719  10.416   9.584   4.591
 5627SOL    HW118720  10.506   9.566   4.616
 5627SOL    HW218721  10.363   9.538   4.657
 5628SOL     OW18722  13.528  12.368   0.173
 5628SOL    HW118723  13.561  12.393   0.259
 5628SOL    HW218724  13.449  12.318   0.191
 5629SOL     OW18725   3.256  13.104   7.915
 5629SOL    HW118726   3.310  13.181   7.901
 5629SOL    HW218727   3.298  13.035   7.864
 5630SOL     OW18728   2.492   5.872   1.530
 5630SOL    HW118729   2.519   5.794   1.578
 5630SOL    HW218730   2.556   5.939   1.555
 5631SOL     OW18731   9.601   6.520  13.676
 5631SOL    HW118732   9.588   6.477  13.592
 5631SOL    HW218733   9.652   6.457  13.728
 5632SOL     OW18734   6.002   9.028  10.999
 5632SOL    HW118735   6.047   8.992  10.922
 5632SOL    HW218736   6.073   9.052  11.059
 5633SOL     OW18737   7.385   3.006   6.232
 5633SOL    HW118738   7.452   3.062   6.271
 5633SOL    HW218739   7.319   3.067   6.199
 5634SOL     OW18740  14.081  12.060   2.412
 5634SOL    HW118741  14.143  12.105   2.354
 5634SOL    HW218742  14.046  12.129   2.468
 5635SOL     OW18743   3.011  14.643   1.851
 5635SOL    HW118744   3.081  14.708   1.859
 5635SOL    HW218745   3.029  14.579   1.920
 5636SOL     OW18746   5.240   9.744  10.502
 5636SOL    HW118747   5.212   9.745  10.593
 5636SOL    HW218748   5.204   9.663  10.466
 5637SOL     OW18749   8.207   7.240  10.143
 5637SOL    HW118750   8.189   7.286  10.061
 5637SOL    HW218751   8.170   7.296  10.211
 5638SOL     OW18752   4.899   9.015   6.667
 5638SOL    HW118753   4.864   9.088   6.616
 5638SOL    HW218754   4.859   9.023   6.753
 5639SOL     OW18755   9.537   2.974   7.421
 5639SOL    HW118756   9.580   2.889   7.423
 5639SOL    HW218757   9.502   2.984   7.510
 5640SOL     OW18758  12.511   1.280  12.251
 5640SOL    HW118759  12.488   1.330  12.173
 5640SOL    HW218760  12.455   1.316  12.320
 5641SOL     OW18761  10.443   8.338   4.704
 5641SOL    HW118762  10.462   8.335   4.798
 5641SOL    HW218763  10.524   8.372   4.665
 5642SOL     OW18764   2.605   2.691   2.619
 5642SOL    HW118765   2.671   2.760   2.616
 5642SOL    HW218766   2.521   2.738   2.617
 5643SOL     OW18767  11.275   7.362   8.827
 5643SOL    HW118768  11.184   7.391   8.833
 5643SOL    HW218769  11.283   7.327   8.738
 5644SOL     OW18770   2.428   6.984   3.721
 5644SOL    HW118771   2.345   6.991   3.768
 5644SOL    HW218772   2.481   7.056   3.755
 5645SOL     OW18773   3.877   3.685   6.014
 5645SOL    HW118774   3.926   3.754   5.969
 5645SOL    HW218775   3.942   3.618   6.034
 5646SOL     OW18776   6.511   7.511  13.356
 5646SOL    HW118777   6.458   7.590  13.351
 5646SOL    HW218778   6.521   7.483  13.265
 5647SOL     OW18779  14.680   3.088   1.976
 5647SOL    HW118780  14.600   3.099   2.028
 5647SOL    HW218781  14.649   3.060   1.890
 5648SOL     OW18782   6.805   9.409  11.898
 5648SOL    HW118783   6.754   9.337  11.935
 5648SOL    HW218784   6.800   9.479  11.963
 5649SOL     OW18785  12.294  10.862   2.959
 5649SOL    HW118786  12.385  10.854   2.930
 5649SOL    HW218787  12.273  10.954   2.945
 5650SOL     OW18788  10.360   3.952   1.738
 5650SOL    HW118789  10.304   4.020   1.700
 5650SOL    HW218790  10.394   3.991   1.819
 5651SOL     OW18791   9.575   6.995   8.582
 5651SOL    HW118792   9.536   6.917   8.542
 5651SOL    HW218793   9.500   7.047   8.612
 5652SOL     OW18794   5.466   2.091  11.365
 5652SOL    HW118795   5.523   2.125  11.296
 5652SOL    HW218796   5.424   2.168  11.403
 5653SOL     OW18797   6.673  10.279   1.930
 5653SOL    HW118798   6.620  10.260   2.008
 5653SOL    HW218799   6.756  10.235   1.946
 5654SOL     OW18800  13.317   1.248   6.746
 5654SOL    HW118801  13.278   1.163   6.725
 5654SOL    HW218802  13.320   1.295   6.662
 5655SOL     OW18803  13.069   1.922   8.369
 5655SOL    HW118804  13.086   1.948   8.278
 5655SOL    HW218805  12.991   1.972   8.393
 5656SOL     OW18806   3.884   4.404   2.814
 5656SOL    HW118807   3.803   4.439   2.851
 5656SOL    HW218808   3.862   4.314   2.791
 5657SOL     OW18809   6.465  10.223   4.028
 5657SOL    HW118810   6.372  10.245   4.041
 5657SOL    HW218811   6.497  10.291   3.968
 5658SOL     OW18812   2.919  10.140   2.567
 5658SOL    HW118813   2.919  10.189   2.650
 5658SOL    HW218814   2.903  10.207   2.500
 5659SOL     OW18815  10.341   6.164   6.379
 5659SOL    HW118816  10.329   6.075   6.413
 5659SOL    HW218817  10.263   6.212   6.409
 5660SOL     OW18818   6.363   3.069   7.330
 5660SOL    HW118819   6.423   3.100   7.398
 5660SOL    HW218820   6.420   3.025   7.266
 5661SOL     OW18821   5.063   3.127   2.989
 5661SOL    HW118822   5.131   3.094   3.047
 5661SOL    HW218823   5.075   3.222   2.989
 5662SOL     OW18824   8.060   0.003   0.799
 5662SOL    HW118825   8.125   0.050   0.851
 5662SOL    HW218826   8.059  14.789   0.836
 5663SOL     OW18827  12.884  12.536  12.264
 5663SOL    HW118828  12.860  12.456  12.217
 5663SOL    HW218829  12.884  12.511  12.356
 5664SOL     OW18830   5.996   5.968   3.425
 5664SOL    HW118831   6.010   5.873   3.428
 5664SOL    HW218832   6.061   6.000   3.363
 5665SOL     OW18833   6.617   1.517  14.683
 5665SOL    HW118834   6.534   1.487  14.720
 5665SOL    HW218835   6.684   1.465  14.727
 5666SOL     OW18836   8.431  11.162   7.210
 5666SOL    HW118837   8.418  11.251   7.242
 5666SOL    HW218838   8.468  11.115   7.285
 5667SOL     OW18839   3.087  11.962  10.052
 5667SOL    HW118840   3.152  12.018  10.093
 5667SOL    HW218841   3.041  12.020   9.990
 5668SOL     OW18842  11.176   4.942   1.771
 5668SOL    HW118843  11.157   5.016   1.715
 5668SOL    HW218844  11.177   4.866   1.712
 5669SOL     OW18845   2.224   1.088   0.240
 5669SOL    HW118846   2.243   1.153   0.173
 5669SOL    HW218847   2.308   1.046   0.258
 5670SOL     OW18848   6.894   8.541   7.892
 5670SOL    HW118849   6.926   8.629   7.874
 5670SOL    HW218850   6.866   8.543   7.983
 5671SOL     OW18851   1.657   5.129   9.719
 5671SOL    HW118852   1.653   5.223   9.737
 5671SOL    HW218853   1.709   5.123   9.639
 5672SOL     OW18854   4.540   2.836   2.028
 5672SOL    HW118855   4.570   2.899   1.962
 5672SOL    HW218856   4.620   2.807   2.071
 5673SOL     OW18857   6.499  14.086   9.594
 5673SOL    HW118858   6.572  14.145   9.610
 5673SOL    HW218859   6.540  14.002   9.571
 5674SOL     OW18860   5.144   8.172   1.472
 5674SOL    HW118861   5.118   8.264   1.469
 5674SOL    HW218862   5.113   8.136   1.389
 5675SOL     OW18863  12.516   4.766   7.337
 5675SOL    HW118864  12.493   4.738   7.426
 5675SOL    HW218865  12.474   4.702   7.280
 5676SOL     OW18866   9.453   0.457  13.771
 5676SOL    HW118867   9.381   0.488  13.826
 5676SOL    HW218868   9.412   0.394  13.711
 5677SOL     OW18869   0.740  13.955   8.584
 5677SOL    HW118870   0.728  13.895   8.511
 5677SOL    HW218871   0.666  13.938   8.642
 5678SOL     OW18872   7.906   1.683   6.589
 5678SOL    HW118873   7.941   1.594   6.598
 5678SOL    HW218874   7.811   1.672   6.601
 5679SOL     OW18875  13.060   1.991   7.850
 5679SOL    HW118876  13.127   1.924   7.864
 5679SOL    HW218877  13.017   1.966   7.768
 5680SOL     OW18878  13.445   4.996  10.825
 5680SOL    HW118879  13.411   4.976  10.913
 5680SOL    HW218880  13.409   4.928  10.769
 5681SOL     OW18881   2.287  10.752   6.101
 5681SOL    HW118882   2.288  10.666   6.143
 5681SOL    HW218883   2.322  10.812   6.168
 5682SOL     OW18884   2.619   2.726   5.238
 5682SOL    HW118885   2.553   2.773   5.186
 5682SOL    HW218886   2.626   2.777   5.318
 5683SOL     OW18887  12.166  11.247   1.904
 5683SOL    HW118888  12.072  11.259   1.916
 5683SOL    HW218889  12.206  11.307   1.967
 5684SOL     OW18890   1.663  13.477   2.463
 5684SOL    HW118891   1.660  13.390   2.505
 5684SOL    HW218892   1.581  13.518   2.490
 5685SOL     OW18893  12.538   0.612  10.306
 5685SOL    HW118894  12.590   0.535  10.281
 5685SOL    HW218895  12.568   0.681  10.247
 5686SOL     OW18896  12.428   3.498   4.290
 5686SOL    HW118897  12.413   3.448   4.209
 5686SOL    HW218898  12.433   3.589   4.261
 5687SOL     OW18899  10.642   5.594   9.254
 5687SOL    HW118900  10.715   5.550   9.298
 5687SOL    HW218901  10.656   5.687   9.273
 5688SOL     OW18902   9.441  10.714   8.102
 5688SOL    HW118903   9.391  10.721   8.183
 5688SOL    HW218904   9.452  10.620   8.089
 5689SOL     OW18905  11.931   7.423   3.435
 5689SOL    HW118906  11.952   7.384   3.350
 5689SOL    HW218907  11.838   7.406   3.447
 5690SOL     OW18908  13.880   9.990   5.280
 5690SOL    HW118909  13.869  10.050   5.206
 5690SOL    HW218910  13.817  10.021   5.346
 5691SOL     OW18911   8.999   3.054   2.008
 5691SOL    HW118912   9.059   3.002   2.060
 5691SOL    HW218913   9.026   3.144   2.022
 5692SOL     OW18914  13.030   9.410   6.942
 5692SOL    HW118915  12.961   9.406   7.008
 5692SOL    HW218916  12.999   9.355   6.871
 5693SOL     OW18917  12.389   1.158   5.741
 5693SOL    HW118918  12.473   1.113   5.741
 5693SOL    HW218919  12.338   1.114   5.673
 5694SOL     OW18920   7.847  11.742   6.812
 5694SOL    HW118921   7.899  11.725   6.891
 5694SOL    HW218922   7.757  11.743   6.843
 5695SOL     OW18923   8.252   2.801  10.976
 5695SOL    HW118924   8.181   2.864  10.964
 5695SOL    HW218925   8.326   2.838  10.928
 5696SOL     OW18926  11.627   3.249  12.390
 5696SOL    HW118927  11.682   3.172  12.374
 5696SOL    HW218928  11.650   3.310  12.321
 5697SOL     OW18929   6.006  11.186   4.745
 5697SOL    HW118930   5.930  11.152   4.793
 5697SOL    HW218931   6.069  11.114   4.747
 5698SOL     OW18932   3.479   6.545   8.116
 5698SOL    HW118933   3.416   6.581   8.178
 5698SOL    HW218934   3.449   6.575   8.031
 5699SOL     OW18935  10.082   8.665   9.763
 5699SOL    HW118936  10.152   8.725   9.787
 5699SOL    HW218937  10.094   8.649   9.670
 5700SOL     OW18938   4.712   9.943  10.098
 5700SOL    HW118939   4.725   9.987  10.182
 5700SOL    HW218940   4.734   9.852  10.115
 5701SOL     OW18941   3.240  11.225   0.079
 5701SOL    HW118942   3.327  11.240   0.041
 5701SOL    HW218943   3.234  11.130   0.086
 5702SOL     OW18944   2.659  10.042   1.282
 5702SOL    HW118945   2.688  10.087   1.361
 5702SOL    HW218946   2.593  10.101   1.244
 5703SOL     OW18947   0.316   1.800   4.267
 5703SOL    HW118948   0.274   1.732   4.319
 5703SOL    HW218949   0.386   1.756   4.220
 5704SOL     OW18950  13.175   2.392   6.041
 5704SOL    HW118951  13.151   2.466   6.096
 5704SOL    HW218952  13.244   2.426   5.984
 5705SOL     OW18953   8.344  12.872   8.088
 5705SOL    HW118954   8.438  12.871   8.070
 5705SOL    HW218955   8.337  12.860   8.183
 5706SOL     OW18956   3.639  11.388   2.808
 5706SOL    HW118957   3.657  11.459   2.746
 5706SOL    HW218958   3.684  11.312   2.772
 5707SOL     OW18959  11.926   2.696  13.073
 5707SOL    HW118960  11.908   2.756  13.001
 5707SOL    HW218961  11.887   2.737  13.150
 5708SOL     OW18962   6.383   8.481   1.365
 5708SOL    HW118963   6.359   8.519   1.450
 5708SOL    HW218964   6.408   8.391   1.386
 5709SOL     OW18965  13.258   3.934  10.636
 5709SOL    HW118966  13.278   3.874  10.707
 5709SOL    HW218967  13.167   3.960  10.651
 5710SOL     OW18968  11.473   5.022  14.004
 5710SOL    HW118969  11.535   4.950  14.011
 5710SOL    HW218970  11.421   5.002  13.926
 5711SOL     OW18971   6.276   2.674  11.246
 5711SOL    HW118972   6.306   2.604  11.303
 5711SOL    HW218973   6.286   2.754  11.298
 5712SOL     OW18974   4.180   6.927   7.460
 5712SOL    HW118975   4.270   6.957   7.457
 5712SOL    HW218976   4.135   6.978   7.393
 5713SOL     OW18977  14.108   3.550  12.882
 5713SOL    HW118978  14.157   3.468  12.895
 5713SOL    HW218979  14.148   3.589  12.804
 5714SOL     OW18980   2.751   3.789   6.515
 5714SOL    HW118981   2.720   3.868   6.472
 5714SOL    HW218982   2.674   3.755   6.560
 5715SOL     OW18983   7.237  10.408   6.885
 5715SOL    HW118984   7.322  10.393   6.844
 5715SOL    HW218985   7.187  10.328   6.867
 5716SOL     OW18986   2.061   3.546   8.173
 5716SOL    HW118987   2.113   3.618   8.208
 5716SOL    HW218988   2.034   3.497   8.251
 5717SOL     OW18989  13.102   3.750  13.772
 5717SOL    HW118990  13.014   3.784  13.788
 5717SOL    HW218991  13.131   3.719  13.858
 5718SOL     OW18992  14.211  12.659  11.441
 5718SOL    HW118993  14.245  12.718  11.508
 5718SOL    HW218994  14.219  12.572  11.480
 5719SOL     OW18995   3.929   4.657   5.628
 5719SOL    HW118996   3.856   4.609   5.665
 5719SOL    HW218997   3.895   4.694   5.546
 5720SOL     OW18998   5.816   6.025   0.747
 5720SOL    HW118999   5.818   5.990   0.836
 5720SOL    HW219000   5.726   6.010   0.717
 5721SOL     OW19001   5.194  14.175   8.762
 5721SOL    HW119002   5.236  14.098   8.724
 5721SOL    HW219003   5.200  14.242   8.694
 5722SOL     OW19004   9.702  13.871   7.787
 5722SOL    HW119005   9.717  13.912   7.872
 5722SOL    HW219006   9.664  13.786   7.808
 5723SOL     OW19007   6.116   6.389  12.563
 5723SOL    HW119008   6.161   6.470  12.587
 5723SOL    HW219009   6.057   6.371  12.636
 5724SOL     OW19010   9.096   6.182   5.870
 5724SOL    HW119011   9.044   6.155   5.945
 5724SOL    HW219012   9.116   6.101   5.823
 5725SOL     OW19013   9.247   1.796   7.097
 5725SOL    HW119014   9.313   1.808   7.028
 5725SOL    HW219015   9.163   1.804   7.052
 5726SOL     OW19016  10.656   6.659   0.184
 5726SOL    HW119017  10.705   6.657   0.267
 5726SOL    HW219018  10.584   6.597   0.198
 5727SOL     OW19019   0.267  10.405   5.066
 5727SOL    HW119020   0.178  10.410   5.100
 5727SOL    HW219021   0.270  10.320   5.022
 5728SOL     OW19022  12.250   1.888   0.895
 5728SOL    HW119023  12.331   1.874   0.944
 5728SOL    HW219024  12.187   1.915   0.961
 5729SOL     OW19025  14.471   8.760  13.277
 5729SOL    HW119026  14.483   8.804  13.361
 5729SOL    HW219027  14.554   8.773  13.232
 5730SOL     OW19028   8.758  11.420   8.164
 5730SOL    HW119029   8.779  11.375   8.245
 5730SOL    HW219030   8.843  11.452   8.132
 5731SOL     OW19031  13.445   7.356   6.276
 5731SOL    HW119032  13.405   7.327   6.195
 5731SOL    HW219033  13.378   7.342   6.343
 5732SOL     OW19034   4.968   7.008  11.290
 5732SOL    HW119035   4.973   7.103  11.300
 5732SOL    HW219036   5.041   6.975  11.343
 5733SOL     OW19037  13.812  13.925   7.839
 5733SOL    HW119038  13.892  13.974   7.859
 5733SOL    HW219039  13.836  13.869   7.766
 5734SOL     OW19040   4.249   3.227   6.319
 5734SOL    HW119041   4.232   3.219   6.412
 5734SOL    HW219042   4.219   3.315   6.296
 5735SOL     OW19043   3.201   3.029   3.815
 5735SOL    HW119044   3.294   3.046   3.800
 5735SOL    HW219045   3.180   2.955   3.758
 5736SOL     OW19046  11.920  14.713   0.609
 5736SOL    HW119047  11.950  14.743   0.695
 5736SOL    HW219048  11.945  14.782   0.549
 5737SOL     OW19049   6.300   7.219   6.194
 5737SOL    HW119050   6.378   7.271   6.213
 5737SOL    HW219051   6.234   7.251   6.255
 5738SOL     OW19052  12.392   1.937  13.727
 5738SOL    HW119053  12.459   1.897  13.783
 5738SOL    HW219054  12.408   2.031  13.734
 5739SOL     OW19055   0.392  11.847   3.995
 5739SOL    HW119056   0.297  11.856   3.991
 5739SOL    HW219057   0.407  11.754   4.011
 5740SOL     OW19058  11.855   5.352  13.752
 5740SOL    HW119059  11.893   5.318  13.833
 5740SOL    HW219060  11.891   5.296  13.683
 5741SOL     OW19061   9.719   8.046   7.254
 5741SOL    HW119062   9.635   8.058   7.297
 5741SOL    HW219063   9.766   8.129   7.268
 5742SOL     OW19064   0.690  10.962   3.333
 5742SOL    HW119065   0.600  10.959   3.365
 5742SOL    HW219066   0.734  10.889   3.377
 5743SOL     OW19067  10.159   3.877  11.737
 5743SOL    HW119068  10.191   3.962  11.767
 5743SOL    HW219069  10.221   3.851  11.669
 5744SOL     OW19070   1.337  12.224   5.674
 5744SOL    HW119071   1.289  12.306   5.661
 5744SOL    HW219072   1.298  12.186   5.753
 5745SOL     OW19073  14.219  14.442  12.913
 5745SOL    HW119074  14.195  14.511  12.852
 5745SOL    HW219075  14.147  14.441  12.976
 5746SOL     OW19076   6.436   0.620  10.802
 5746SOL    HW119077   6.385   0.631  10.883
 5746SOL    HW219078   6.376   0.578  10.741
 5747SOL     OW19079   9.408   9.041   9.475
 5747SOL    HW119080   9.377   8.951   9.487
 5747SOL    HW219081   9.480   9.049   9.538
 5748SOL     OW19082   3.599   5.065  12.996
 5748SOL    HW119083   3.517   5.092  13.038
 5748SOL    HW219084   3.599   5.112  12.913
 5749SOL     OW19085   8.978   5.691  14.238
 5749SOL    HW119086   8.990   5.784  14.220
 5749SOL    HW219087   9.027   5.675  14.319
 5750SOL     OW19088   3.006   0.604   1.614
 5750SOL    HW119089   2.922   0.559   1.619
 5750SOL    HW219090   2.984   0.690   1.578
 5751SOL     OW19091   9.464   8.850  13.004
 5751SOL    HW119092   9.393   8.904  13.038
 5751SOL    HW219093   9.535   8.912  12.988
 5752SOL     OW19094  10.560  11.452  11.237
 5752SOL    HW119095  10.619  11.505  11.183
 5752SOL    HW219096  10.485  11.508  11.254
 5753SOL     OW19097  13.034   8.388   3.024
 5753SOL    HW119098  13.076   8.466   2.989
 5753SOL    HW219099  13.103   8.321   3.024
 5754SOL     OW19100   5.428   0.940  11.082
 5754SOL    HW119101   5.341   0.942  11.122
 5754SOL    HW219102   5.417   0.987  10.999
 5755SOL     OW19103  13.910   3.793   7.960
 5755SOL    HW119104  13.882   3.783   8.051
 5755SOL    HW219105  13.974   3.723   7.947
 5756SOL     OW19106  12.295  12.286  13.231
 5756SOL    HW119107  12.343  12.345  13.290
 5756SOL    HW219108  12.305  12.199  13.270
 5757SOL     OW19109   9.443   3.069   1.544
 5757SOL    HW119110   9.438   3.062   1.449
 5757SOL    HW219111   9.366   3.023   1.577
 5758SOL     OW19112   9.176   3.571  11.016
 5758SOL    HW119113   9.086   3.597  11.032
 5758SOL    HW219114   9.182   3.482  11.052
 5759SOL     OW19115   9.143   8.016  10.976
 5759SOL    HW119116   9.096   8.095  10.950
 5759SOL    HW219117   9.185   7.985  10.895
 5760SOL     OW19118  11.156   5.426   6.643
 5760SOL    HW119119  11.100   5.458   6.572
 5760SOL    HW219120  11.240   5.408   6.601
 5761SOL     OW19121  12.036   2.143   2.661
 5761SOL    HW119122  12.020   2.135   2.756
 5761SOL    HW219123  12.111   2.087   2.644
 5762SOL     OW19124   5.302  10.754  14.076
 5762SOL    HW119125   5.271  10.664  14.079
 5762SOL    HW219126   5.222  10.807  14.073
 5763SOL     OW19127   7.109  12.646   7.521
 5763SOL    HW119128   7.167  12.575   7.548
 5763SOL    HW219129   7.021  12.611   7.533
 5764SOL     OW19130  10.284  10.555   5.337
 5764SOL    HW119131  10.211  10.519   5.387
 5764SOL    HW219132  10.344  10.481   5.327
 5765SOL     OW19133   9.619   4.920  11.124
 5765SOL    HW119134   9.566   4.846  11.096
 5765SOL    HW219135   9.641   4.966  11.042
 5766SOL     OW19136   4.000  11.098  12.354
 5766SOL    HW119137   3.919  11.087  12.304
 5766SOL    HW219138   4.066  11.120  12.288
 5767SOL     OW19139  10.132   2.533   8.073
 5767SOL    HW119140  10.126   2.462   8.009
 5767SOL    HW219141  10.042   2.563   8.084
 5768SOL     OW19142   7.971  10.328  10.150
 5768SOL    HW119143   7.959  10.417  10.117
 5768SOL    HW219144   7.891  10.282  10.123
 5769SOL     OW19145   1.372   3.433   6.725
 5769SOL    HW119146   1.401   3.342   6.733
 5769SOL    HW219147   1.427   3.481   6.787
 5770SOL     OW19148   3.021   1.007   8.527
 5770SOL    HW119149   2.990   1.053   8.449
 5770SOL    HW219150   3.094   0.953   8.495
 5771SOL     OW19151  10.138   7.992   5.840
 5771SOL    HW119152  10.122   7.911   5.791
 5771SOL    HW219153  10.227   8.017   5.816
 5772SOL     OW19154  10.239   0.116   0.653
 5772SOL    HW119155  10.151   0.150   0.636
 5772SOL    HW219156  10.244   0.107   0.748
 5773SOL     OW19157   6.589   3.311  14.780
 5773SOL    HW119158   6.553   3.356  14.704
 5773SOL    HW219159   6.524   3.323  14.849
 5774SOL     OW19160   7.456   8.435  10.524
 5774SOL    HW119161   7.502   8.518  10.538
 5774SOL    HW219162   7.480   8.409  10.435
 5775SOL     OW19163   4.886  11.283   0.357
 5775SOL    HW119164   4.928  11.243   0.433
 5775SOL    HW219165   4.819  11.340   0.394
 5776SOL     OW19166   5.839   7.771   0.410
 5776SOL    HW119167   5.902   7.734   0.347
 5776SOL    HW219168   5.888   7.776   0.492
 5777SOL     OW19169   4.673   8.815   4.836
 5777SOL    HW119170   4.638   8.868   4.908
 5777SOL    HW219171   4.600   8.805   4.776
 5778SOL     OW19172   0.392   0.600  12.994
 5778SOL    HW119173   0.366   0.530  13.054
 5778SOL    HW219174   0.444   0.660  13.048
 5779SOL     OW19175  13.782  13.567   7.038
 5779SOL    HW119176  13.720  13.593   7.106
 5779SOL    HW219177  13.810  13.479   7.063
 5780SOL     OW19178   1.795   4.101   1.849
 5780SOL    HW119179   1.854   4.045   1.900
 5780SOL    HW219180   1.772   4.048   1.772
 5781SOL     OW19181   3.906   7.596  13.131
 5781SOL    HW119182   3.950   7.523  13.087
 5781SOL    HW219183   3.860   7.642  13.061
 5782SOL     OW19184  10.999  13.545   4.119
 5782SOL    HW119185  11.074  13.487   4.106
 5782SOL    HW219186  11.023  13.599   4.194
 5783SOL     OW19187   2.912   9.706   9.141
 5783SOL    HW119188   2.838   9.763   9.163
 5783SOL    HW219189   2.953   9.748   9.066
 5784SOL     OW19190   6.337   0.046   2.184
 5784SOL    HW119191   6.337   0.103   2.106
 5784SOL    HW219192   6.429   0.034   2.204
 5785SOL     OW19193   4.651   8.363   9.392
 5785SOL    HW119194   4.651   8.456   9.412
 5785SOL    HW219195   4.734   8.330   9.427
 5786SOL     OW19196   2.917   1.727   5.011
 5786SOL    HW119197   2.963   1.653   4.970
 5786SOL    HW219198   2.936   1.802   4.955
 5787SOL     OW19199  11.371   7.913  11.211
 5787SOL    HW119200  11.380   7.837  11.269
 5787SOL    HW219201  11.330   7.980  11.266
 5788SOL     OW19202   1.830  11.626  13.524
 5788SOL    HW119203   1.750  11.651  13.478
 5788SOL    HW219204   1.846  11.536  13.495
 5789SOL     OW19205   1.466  10.399   7.762
 5789SOL    HW119206   1.515  10.346   7.825
 5789SOL    HW219207   1.520  10.477   7.750
 5790SOL     OW19208   4.681  12.144   1.292
 5790SOL    HW119209   4.760  12.160   1.240
 5790SOL    HW219210   4.714  12.120   1.379
 5791SOL     OW19211  12.309   1.454   8.171
 5791SOL    HW119212  12.234   1.504   8.141
 5791SOL    HW219213  12.378   1.519   8.184
 5792SOL     OW19214   4.812   4.170   1.074
 5792SOL    HW119215   4.766   4.231   1.131
 5792SOL    HW219216   4.811   4.087   1.122
 5793SOL     OW19217  10.088   3.286   2.383
 5793SOL    HW119218  10.141   3.210   2.360
 5793SOL    HW219219  10.012   3.281   2.324
 5794SOL     OW19220   7.102   7.628   6.345
 5794SOL    HW119221   7.030   7.669   6.297
 5794SOL    HW219222   7.158   7.591   6.277
 5795SOL     OW19223  13.916   2.854   0.355
 5795SOL    HW119224  13.825   2.824   0.348
 5795SOL    HW219225  13.968   2.777   0.330
 5796SOL     OW19226   7.399   0.413  11.741
 5796SOL    HW119227   7.440   0.391  11.825
 5796SOL    HW219228   7.427   0.344  11.682
 5797SOL     OW19229   3.746  11.102   5.748
 5797SOL    HW119230   3.754  11.030   5.811
 5797SOL    HW219231   3.653  11.127   5.752
 5798SOL     OW19232   6.514   4.082   6.749
 5798SOL    HW119233   6.533   4.033   6.669
 5798SOL    HW219234   6.506   4.172   6.720
 5799SOL     OW19235   3.162   4.179  11.865
 5799SOL    HW119236   3.255   4.202  11.864
 5799SOL    HW219237   3.123   4.232  11.796
 5800SOL     OW19238   9.170   6.236   6.302
 5800SOL    HW119239   9.185   6.323   6.266
 5800SOL    HW219240   9.211   6.177   6.239
 5801SOL     OW19241  14.680   9.102  14.197
 5801SOL    HW119242  14.738   9.029  14.220
 5801SOL    HW219243  14.598   9.060  14.171
 5802SOL     OW19244   7.446   4.073  11.659
 5802SOL    HW119245   7.364   4.023  11.656
 5802SOL    HW219246   7.433   4.145  11.597
 5803SOL     OW19247   7.887   2.837   2.137
 5803SOL    HW119248   7.876   2.871   2.226
 5803SOL    HW219249   7.982   2.826   2.128
 5804SOL     OW19250   7.197  12.255   8.917
 5804SOL    HW119251   7.177  12.162   8.910
 5804SOL    HW219252   7.136  12.288   8.983
 5805SOL     OW19253   8.624   5.619   2.011
 5805SOL    HW119254   8.532   5.643   2.018
 5805SOL    HW219255   8.666   5.696   1.974
 5806SOL     OW19256   5.780   3.400   4.970
 5806SOL    HW119257   5.732   3.436   4.895
 5806SOL    HW219258   5.826   3.475   5.007
 5807SOL     OW19259   8.836   6.608  12.184
 5807SOL    HW119260   8.861   6.700  12.193
 5807SOL    HW219261   8.741   6.609  12.175
 5808SOL     OW19262   3.107   7.654  13.899
 5808SOL    HW119263   3.144   7.664  13.812
 5808SOL    HW219264   3.033   7.595  13.887
 5809SOL     OW19265  11.838   2.015   7.612
 5809SOL    HW119266  11.782   2.078   7.658
 5809SOL    HW219267  11.779   1.973   7.550
 5810SOL     OW19268   4.562   9.284  10.175
 5810SOL    HW119269   4.644   9.304  10.221
 5810SOL    HW219270   4.495   9.285  10.244
 5811SOL     OW19271  12.091   1.742  14.079
 5811SOL    HW119272  12.097   1.836  14.063
 5811SOL    HW219273  12.160   1.703  14.025
 5812SOL     OW19274   5.471   0.120   4.249
 5812SOL    HW119275   5.434   0.144   4.333
 5812SOL    HW219276   5.545   0.064   4.270
 5813SOL     OW19277   7.659  11.747  11.340
 5813SOL    HW119278   7.737  11.738  11.285
 5813SOL    HW219279   7.615  11.825  11.306
 5814SOL     OW19280  13.970  14.237   4.584
 5814SOL    HW119281  14.006  14.205   4.502
 5814SOL    HW219282  14.022  14.314   4.605
 5815SOL     OW19283  13.781   0.011  10.785
 5815SOL    HW119284  13.752  14.812  10.838
 5815SOL    HW219285  13.865  14.857  10.749
 5816SOL     OW19286   5.215  13.608  14.043
 5816SOL    HW119287   5.267  13.635  14.119
 5816SOL    HW219288   5.198  13.688  13.994
 5817SOL     OW19289   2.338   6.810   9.000
 5817SOL    HW119290   2.358   6.863   9.077
 5817SOL    HW219291   2.407   6.833   8.937
 5818SOL     OW19292  14.447   5.531   4.851
 5818SOL    HW119293  14.481   5.517   4.762
 5818SOL    HW219294  14.429   5.442   4.883
 5819SOL     OW19295   8.513  13.526  10.411
 5819SOL    HW119296   8.544  13.617  10.408
 5819SOL    HW219297   8.432  13.531  10.462
 5820SOL     OW19298  11.191   1.762   9.112
 5820SOL    HW119299  11.143   1.771   9.194
 5820SOL    HW219300  11.197   1.851   9.078
 5821SOL     OW19301   6.767   4.838  13.816
 5821SOL    HW119302   6.823   4.908  13.850
 5821SOL    HW219303   6.693   4.834  13.876
 5822SOL     OW19304   0.146  10.737  11.313
 5822SOL    HW119305   0.056  10.766  11.302
 5822SOL    HW219306   0.199  10.814  11.289
 5823SOL     OW19307   6.804   3.947   9.307
 5823SOL    HW119308   6.783   3.944   9.400
 5823SOL    HW219309   6.837   3.859   9.287
 5824SOL     OW19310   4.322  10.183   3.450
 5824SOL    HW119311   4.281  10.184   3.363
 5824SOL    HW219312   4.277  10.253   3.498
 5825SOL     OW19313   3.253  13.558   9.626
 5825SOL    HW119314   3.231  13.510   9.546
 5825SOL    HW219315   3.307  13.498   9.676
 5826SOL     OW19316   7.344  14.455  11.111
 5826SOL    HW119317   7.301  14.524  11.061
 5826SOL    HW219318   7.276  14.421  11.169
 5827SOL     OW19319   6.886   8.566   2.556
 5827SOL    HW119320   6.880   8.517   2.474
 5827SOL    HW219321   6.823   8.523   2.614
 5828SOL     OW19322   3.045   1.546  13.099
 5828SOL    HW119323   3.140   1.553  13.099
 5828SOL    HW219324   3.024   1.498  13.019
 5829SOL     OW19325  14.263   9.789  14.576
 5829SOL    HW119326  14.299   9.754  14.494
 5829SOL    HW219327  14.338   9.829  14.620
 5830SOL     OW19328   3.117   3.087   0.662
 5830SOL    HW119329   3.078   3.005   0.691
 5830SOL    HW219330   3.061   3.155   0.699
 5831SOL     OW19331   1.118  14.406   3.157
 5831SOL    HW119332   1.143  14.421   3.248
 5831SOL    HW219333   1.092  14.314   3.154
 5832SOL     OW19334   1.495   4.694  10.362
 5832SOL    HW119335   1.515   4.698  10.456
 5832SOL    HW219336   1.491   4.600  10.343
 5833SOL     OW19337   0.534   3.508  11.923
 5833SOL    HW119338   0.455   3.507  11.978
 5833SOL    HW219339   0.512   3.566  11.850
 5834SOL     OW19340  10.498   1.152   8.836
 5834SOL    HW119341  10.405   1.152   8.856
 5834SOL    HW219342  10.508   1.219   8.768
 5835SOL     OW19343  14.367   3.462   4.221
 5835SOL    HW119344  14.369   3.407   4.299
 5835SOL    HW219345  14.348   3.401   4.149
 5836SOL     OW19346   6.161   6.208  14.338
 5836SOL    HW119347   6.207   6.137  14.383
 5836SOL    HW219348   6.204   6.288  14.369
 5837SOL     OW19349  13.450   4.126   2.778
 5837SOL    HW119350  13.471   4.047   2.727
 5837SOL    HW219351  13.355   4.136   2.768
 5838SOL     OW19352   7.543   5.407   9.666
 5838SOL    HW119353   7.522   5.476   9.729
 5838SOL    HW219354   7.511   5.327   9.706
 5839SOL     OW19355   1.550   1.917  14.864
 5839SOL    HW119356   1.562   1.858   0.064
 5839SOL    HW219357   1.576   2.003   0.023
 5840SOL     OW19358   2.370   4.229  11.783
 5840SOL    HW119359   2.392   4.172  11.857
 5840SOL    HW219360   2.377   4.318  11.819
 5841SOL     OW19361   7.190   6.358  14.529
 5841SOL    HW119362   7.107   6.376  14.484
 5841SOL    HW219363   7.247   6.322  14.461
 5842SOL     OW19364  13.892   4.279   0.553
 5842SOL    HW119365  13.855   4.261   0.639
 5842SOL    HW219366  13.967   4.336   0.570
 5843SOL     OW19367   5.573   8.565   8.509
 5843SOL    HW119368   5.565   8.657   8.482
 5843SOL    HW219369   5.660   8.539   8.481
 5844SOL     OW19370   8.491  13.670  11.019
 5844SOL    HW119371   8.425  13.739  11.017
 5844SOL    HW219372   8.475  13.623  11.100
 5845SOL     OW19373   2.448  13.698   3.898
 5845SOL    HW119374   2.414  13.609   3.897
 5845SOL    HW219375   2.443  13.725   3.990
 5846SOL     OW19376   7.111   3.738   4.157
 5846SOL    HW119377   7.083   3.647   4.168
 5846SOL    HW219378   7.143   3.742   4.067
 5847SOL     OW19379  14.721   9.450   7.267
 5847SOL    HW119380  14.797   9.417   7.220
 5847SOL    HW219381  14.719   9.400   7.349
 5848SOL     OW19382   0.495  14.206   1.767
 5848SOL    HW119383   0.568  14.156   1.802
 5848SOL    HW219384   0.481  14.170   1.679
 5849SOL     OW19385   3.615  11.863   9.978
 5849SOL    HW119386   3.536  11.810   9.980
 5849SOL    HW219387   3.620  11.897   9.889
 5850SOL     OW19388   6.288  13.235   5.041
 5850SOL    HW119389   6.294  13.281   4.957
 5850SOL    HW219390   6.291  13.142   5.018
 5851SOL     OW19391   8.792  14.800  12.661
 5851SOL    HW119392   8.764  14.754  12.740
 5851SOL    HW219393   8.886  14.814  12.673
 5852SOL     OW19394  13.414  11.303   4.432
 5852SOL    HW119395  13.377  11.227   4.476
 5852SOL    HW219396  13.446  11.269   4.349
 5853SOL     OW19397  11.618  13.194  10.462
 5853SOL    HW119398  11.579  13.188  10.550
 5853SOL    HW219399  11.543  13.193  10.402
 5854SOL     OW19400  14.318  12.839   1.810
 5854SOL    HW119401  14.259  12.911   1.830
 5854SOL    HW219402  14.366  12.867   1.732
 5855SOL     OW19403  11.654  13.749   2.719
 5855SOL    HW119404  11.576  13.804   2.726
 5855SOL    HW219405  11.624  13.668   2.679
 5856SOL     OW19406   1.176   5.377  14.228
 5856SOL    HW119407   1.263   5.354  14.260
 5856SOL    HW219408   1.117   5.347  14.298
 5857SOL     OW19409  10.479   8.013   9.900
 5857SOL    HW119410  10.446   8.039   9.986
 5857SOL    HW219411  10.456   8.085   9.842
 5858SOL     OW19412   5.958   4.274   2.457
 5858SOL    HW119413   5.937   4.313   2.542
 5858SOL    HW219414   5.876   4.282   2.407
 5859SOL     OW19415   6.837   6.850   7.375
 5859SOL    HW119416   6.913   6.792   7.366
 5859SOL    HW219417   6.866   6.919   7.435
 5860SOL     OW19418   7.224   9.138   6.711
 5860SOL    HW119419   7.181   9.092   6.783
 5860SOL    HW219420   7.155   9.155   6.647
 5861SOL     OW19421   3.438   2.655   3.045
 5861SOL    HW119422   3.448   2.562   3.064
 5861SOL    HW219423   3.527   2.685   3.023
 5862SOL     OW19424   9.859  13.626  14.126
 5862SOL    HW119425   9.788  13.573  14.163
 5862SOL    HW219426   9.819  13.672  14.053
 5863SOL     OW19427   7.979   5.073   0.047
 5863SOL    HW119428   8.005   4.996  14.870
 5863SOL    HW219429   7.895   5.049   0.086
 5864SOL     OW19430   7.626   2.097   0.300
 5864SOL    HW119431   7.707   2.148   0.297
 5864SOL    HW219432   7.654   2.006   0.294
 5865SOL     OW19433   9.842   4.338  14.127
 5865SOL    HW119434   9.831   4.422  14.082
 5865SOL    HW219435   9.762   4.328  14.179
 5866SOL     OW19436  14.186   6.713   1.104
 5866SOL    HW119437  14.183   6.804   1.074
 5866SOL    HW219438  14.274   6.683   1.082
 5867SOL     OW19439  13.928  12.394   0.263
 5867SOL    HW119440  14.007  12.340   0.259
 5867SOL    HW219441  13.959  12.482   0.280
 5868SOL     OW19442   7.697   0.434   1.618
 5868SOL    HW119443   7.654   0.362   1.664
 5868SOL    HW219444   7.791   0.415   1.626
 5869SOL     OW19445   8.602   0.813   8.463
 5869SOL    HW119446   8.557   0.836   8.382
 5869SOL    HW219447   8.684   0.772   8.435
 5870SOL     OW19448  11.755   3.927  11.668
 5870SOL    HW119449  11.787   3.994  11.728
 5870SOL    HW219450  11.810   3.935  11.590
 5871SOL     OW19451   3.382  13.302  14.516
 5871SOL    HW119452   3.332  13.220  14.521
 5871SOL    HW219453   3.383  13.323  14.422
 5872SOL     OW19454   7.758   2.235   2.134
 5872SOL    HW119455   7.755   2.328   2.153
 5872SOL    HW219456   7.820   2.199   2.197
 5873SOL     OW19457  10.699   9.610   5.911
 5873SOL    HW119458  10.693   9.538   5.848
 5873SOL    HW219459  10.753   9.576   5.982
 5874SOL     OW19460   0.507   5.418  11.102
 5874SOL    HW119461   0.527   5.327  11.079
 5874SOL    HW219462   0.541   5.427  11.191
 5875SOL     OW19463   0.339   1.461   0.518
 5875SOL    HW119464   0.257   1.489   0.558
 5875SOL    HW219465   0.349   1.370   0.543
 5876SOL     OW19466   6.590   7.639   1.957
 5876SOL    HW119467   6.499   7.612   1.946
 5876SOL    HW219468   6.641   7.570   1.915
 5877SOL     OW19469  11.167   4.842   3.089
 5877SOL    HW119470  11.181   4.763   3.036
 5877SOL    HW219471  11.100   4.891   3.041
 5878SOL     OW19472   1.097   5.223   2.406
 5878SOL    HW119473   1.107   5.156   2.339
 5878SOL    HW219474   1.093   5.305   2.357
 5879SOL     OW19475  11.867   0.788  12.583
 5879SOL    HW119476  11.957   0.769  12.612
 5879SOL    HW219477  11.847   0.718  12.521
 5880SOL     OW19478   8.671   9.095  10.097
 5880SOL    HW119479   8.609   9.029  10.067
 5880SOL    HW219480   8.639   9.177  10.060
 5881SOL     OW19481   6.473   0.608   7.006
 5881SOL    HW119482   6.491   0.516   6.990
 5881SOL    HW219483   6.554   0.642   7.044
 5882SOL     OW19484  13.081   5.476   8.635
 5882SOL    HW119485  13.091   5.479   8.540
 5882SOL    HW219486  13.054   5.565   8.659
 5883SOL     OW19487  14.508  14.719   4.558
 5883SOL    HW119488  14.584  14.698   4.504
 5883SOL    HW219489  14.439  14.660   4.526
 5884SOL     OW19490   3.310   5.942   7.529
 5884SOL    HW119491   3.377   6.006   7.505
 5884SOL    HW219492   3.339   5.908   7.614
 5885SOL     OW19493   5.331   5.334   5.044
 5885SOL    HW119494   5.402   5.380   5.089
 5885SOL    HW219495   5.366   5.247   5.026
 5886SOL     OW19496   7.420   2.197   7.463
 5886SOL    HW119497   7.500   2.236   7.500
 5886SOL    HW219498   7.383   2.265   7.407
 5887SOL     OW19499   3.655  13.363  13.667
 5887SOL    HW119500   3.651  13.291  13.730
 5887SOL    HW219501   3.568  13.364  13.626
 5888SOL     OW19502  13.905   0.210   0.100
 5888SOL    HW119503  13.843   0.178   0.035
 5888SOL    HW219504  13.924   0.300   0.074
 5889SOL     OW19505  11.057   8.256  14.750
 5889SOL    HW119506  11.118   8.323  14.719
 5889SOL    HW219507  11.008   8.299  14.820
 5890SOL     OW19508   8.033  14.576   2.758
 5890SOL    HW119509   8.010  14.631   2.683
 5890SOL    HW219510   7.955  14.524   2.774
 5891SOL     OW19511   3.511  11.899   2.633
 5891SOL    HW119512   3.516  11.977   2.578
 5891SOL    HW219513   3.429  11.908   2.681
 5892SOL     OW19514   8.051   6.845   4.776
 5892SOL    HW119515   7.986   6.783   4.743
 5892SOL    HW219516   8.024   6.929   4.740
 5893SOL     OW19517   5.987   2.490   0.813
 5893SOL    HW119518   5.961   2.570   0.766
 5893SOL    HW219519   5.942   2.496   0.897
 5894SOL     OW19520   9.093  12.137  10.276
 5894SOL    HW119521   9.144  12.059  10.295
 5894SOL    HW219522   9.158  12.202  10.249
 5895SOL     OW19523   8.606   7.101  14.540
 5895SOL    HW119524   8.592   7.016  14.499
 5895SOL    HW219525   8.680   7.139  14.492
 5896SOL     OW19526   9.611   1.008  11.594
 5896SOL    HW119527   9.600   0.981  11.685
 5896SOL    HW219528   9.560   0.944  11.544
 5897SOL     OW19529   8.415  14.311  12.520
 5897SOL    HW119530   8.400  14.403  12.497
 5897SOL    HW219531   8.433  14.269  12.436
 5898SOL     OW19532   0.723   5.112   6.070
 5898SOL    HW119533   0.647   5.086   6.121
 5898SOL    HW219534   0.746   5.199   6.102
 5899SOL     OW19535  12.023   1.357   7.834
 5899SOL    HW119536  12.101   1.405   7.861
 5899SOL    HW219537  11.960   1.371   7.905
 5900SOL     OW19538   2.152   1.220  10.756
 5900SOL    HW119539   2.124   1.311  10.742
 5900SOL    HW219540   2.182   1.191  10.669
 5901SOL     OW19541  10.587   3.481   8.284
 5901SOL    HW119542  10.595   3.482   8.379
 5901SOL    HW219543  10.497   3.453   8.267
 5902SOL     OW19544   1.488   8.028   7.244
 5902SOL    HW119545   1.569   7.981   7.264
 5902SOL    HW219546   1.421   7.984   7.298
 5903SOL     OW19547  10.942   3.304   1.508
 5903SOL    HW119548  11.017   3.339   1.555
 5903SOL    HW219549  10.875   3.292   1.575
 5904SOL     OW19550   0.047   0.592   8.226
 5904SOL    HW119551   0.103   0.559   8.296
 5904SOL    HW219552  14.832   0.585   8.261
 5905SOL     OW19553   6.559   0.313   8.732
 5905SOL    HW119554   6.528   0.319   8.641
 5905SOL    HW219555   6.617   0.389   8.742
 5906SOL     OW19556   3.801   4.036   6.153
 5906SOL    HW119557   3.771   4.069   6.068
 5906SOL    HW219558   3.744   4.079   6.217
 5907SOL     OW19559   8.462   7.878  13.010
 5907SOL    HW119560   8.425   7.965  12.997
 5907SOL    HW219561   8.440   7.830  12.931
 5908SOL     OW19562  11.472   1.649   9.180
 5908SOL    HW119563  11.410   1.686   9.117
 5908SOL    HW219564  11.512   1.576   9.133
 5909SOL     OW19565   3.616  13.302   6.102
 5909SOL    HW119566   3.653  13.366   6.162
 5909SOL    HW219567   3.679  13.298   6.030
 5910SOL     OW19568   0.987   7.516   2.342
 5910SOL    HW119569   1.015   7.473   2.261
 5910SOL    HW219570   0.913   7.571   2.316
 5911SOL     OW19571   3.535   5.509   2.555
 5911SOL    HW119572   3.552   5.427   2.602
 5911SOL    HW219573   3.617   5.528   2.509
 5912SOL     OW19574   3.353   2.508   6.683
 5912SOL    HW119575   3.339   2.565   6.758
 5912SOL    HW219576   3.427   2.452   6.709
 5913SOL     OW19577   1.563   4.695   2.752
 5913SOL    HW119578   1.606   4.747   2.819
 5913SOL    HW219579   1.588   4.604   2.771
 5914SOL     OW19580  10.711  13.191   4.977
 5914SOL    HW119581  10.682  13.276   5.010
 5914SOL    HW219582  10.641  13.131   5.003
 5915SOL     OW19583  12.250  14.591  13.543
 5915SOL    HW119584  12.209  14.538  13.611
 5915SOL    HW219585  12.340  14.604  13.573
 5916SOL     OW19586   5.997  10.314  12.295
 5916SOL    HW119587   6.070  10.273  12.249
 5916SOL    HW219588   5.932  10.331  12.227
 5917SOL     OW19589   2.819  13.413   8.002
 5917SOL    HW119590   2.886  13.352   7.972
 5917SOL    HW219591   2.737  13.373   7.972
 5918SOL     OW19592  13.818   4.968   3.985
 5918SOL    HW119593  13.781   4.946   3.899
 5918SOL    HW219594  13.908   4.933   3.981
 5919SOL     OW19595  11.732   4.712   8.199
 5919SOL    HW119596  11.666   4.730   8.266
 5919SOL    HW219597  11.702   4.631   8.157
 5920SOL     OW19598  10.152   1.543  10.744
 5920SOL    HW119599  10.151   1.619  10.802
 5920SOL    HW219600  10.178   1.577  10.659
 5921SOL     OW19601  12.148   6.217   0.324
 5921SOL    HW119602  12.063   6.192   0.287
 5921SOL    HW219603  12.202   6.138   0.314
 5922SOL     OW19604  11.218   4.607   9.359
 5922SOL    HW119605  11.124   4.621   9.370
 5922SOL    HW219606  11.249   4.687   9.317
 5923SOL     OW19607   8.971   8.170  11.398
 5923SOL    HW119608   9.031   8.223  11.450
 5923SOL    HW219609   9.028   8.111  11.349
 5924SOL     OW19610   6.149  10.557   0.994
 5924SOL    HW119611   6.136  10.462   0.995
 5924SOL    HW219612   6.060  10.593   0.987
 5925SOL     OW19613   4.508   1.212   2.186
 5925SOL    HW119614   4.556   1.151   2.242
 5925SOL    HW219615   4.546   1.198   2.099
 5926SOL     OW19616  11.714   6.814   6.087
 5926SOL    HW119617  11.670   6.855   6.013
 5926SOL    HW219618  11.645   6.767   6.133
 5927SOL     OW19619   8.163  11.939   7.186
 5927SOL    HW119620   8.225  11.877   7.224
 5927SOL    HW219621   8.113  11.887   7.123
 5928SOL     OW19622   4.006   9.411   5.154
 5928SOL    HW119623   3.982   9.489   5.105
 5928SOL    HW219624   4.093   9.387   5.121
 5929SOL     OW19625   6.957  12.530   2.937
 5929SOL    HW119626   7.048  12.509   2.916
 5929SOL    HW219627   6.906  12.475   2.876
 5930SOL     OW19628   7.272   4.201  10.617
 5930SOL    HW119629   7.196   4.170  10.666
 5930SOL    HW219630   7.250   4.182  10.525
 5931SOL     OW19631   0.286   6.729   0.003
 5931SOL    HW119632   0.230   6.714  14.801
 5931SOL    HW219633   0.246   6.803   0.048
 5932SOL     OW19634   9.400  13.087   2.586
 5932SOL    HW119635   9.319  13.088   2.637
 5932SOL    HW219636   9.415  13.179   2.563
 5933SOL     OW19637  14.376   9.510  12.389
 5933SOL    HW119638  14.389   9.605  12.383
 5933SOL    HW219639  14.459   9.473  12.358
 5934SOL     OW19640   8.958   7.496  13.341
 5934SOL    HW119641   8.871   7.476  13.305
 5934SOL    HW219642   8.979   7.422  13.397
 5935SOL     OW19643   1.490   4.661   1.183
 5935SOL    HW119644   1.412   4.649   1.238
 5935SOL    HW219645   1.469   4.736   1.127
 5936SOL     OW19646   2.365   8.306  12.934
 5936SOL    HW119647   2.364   8.388  12.885
 5936SOL    HW219648   2.458   8.285  12.944
 5937SOL     OW19649   5.471   9.802   6.137
 5937SOL    HW119650   5.393   9.856   6.133
 5937SOL    HW219651   5.460   9.737   6.068
 5938SOL     OW19652   6.906   6.100  10.517
 5938SOL    HW119653   6.875   6.179  10.474
 5938SOL    HW219654   7.001   6.103  10.509
 5939SOL     OW19655   2.986   0.522   0.357
 5939SOL    HW119656   2.980   0.618   0.363
 5939SOL    HW219657   2.974   0.504   0.264
 5940SOL     OW19658   3.302   1.302  14.797
 5940SOL    HW119659   3.292   1.213  14.765
 5940SOL    HW219660   3.213   1.339  14.794
 5941SOL     OW19661  14.548   5.876  10.582
 5941SOL    HW119662  14.488   5.936  10.538
 5941SOL    HW219663  14.613   5.932  10.623
 5942SOL     OW19664   1.909   1.020   6.679
 5942SOL    HW119665   1.934   0.988   6.766
 5942SOL    HW219666   1.925   1.114   6.683
 5943SOL     OW19667  10.437   0.875   2.402
 5943SOL    HW119668  10.461   0.890   2.310
 5943SOL    HW219669  10.467   0.786   2.419
 5944SOL     OW19670   0.304   5.185   0.050
 5944SOL    HW119671   0.370   5.255   0.053
 5944SOL    HW219672   0.354   5.108   0.024
 5945SOL     OW19673   0.358  13.174  11.036
 5945SOL    HW119674   0.422  13.230  11.080
 5945SOL    HW219675   0.357  13.204  10.945
 5946SOL     OW19676   7.427   9.617   0.613
 5946SOL    HW119677   7.346   9.594   0.659
 5946SOL    HW219678   7.494   9.615   0.682
 5947SOL     OW19679   4.448   3.568   4.985
 5947SOL    HW119680   4.476   3.533   4.900
 5947SOL    HW219681   4.438   3.491   5.041
 5948SOL     OW19682  11.340   2.021   9.821
 5948SOL    HW119683  11.316   1.980   9.904
 5948SOL    HW219684  11.264   2.007   9.764
 5949SOL     OW19685   0.402   7.913  11.756
 5949SOL    HW119686   0.477   7.863  11.789
 5949SOL    HW219687   0.410   7.998  11.800
 5950SOL     OW19688  14.800   1.110   8.785
 5950SOL    HW119689  14.782   1.111   8.691
 5950SOL    HW219690  14.834   1.022   8.801
 5951SOL     OW19691   0.998   7.937   4.414
 5951SOL    HW119692   1.076   7.901   4.372
 5951SOL    HW219693   0.964   7.865   4.467
 5952SOL     OW19694   8.148  12.691   0.204
 5952SOL    HW119695   8.084  12.650   0.147
 5952SOL    HW219696   8.215  12.725   0.145
 5953SOL     OW19697   3.123  13.307   7.652
 5953SOL    HW119698   3.086  13.238   7.597
 5953SOL    HW219699   3.159  13.371   7.591
 5954SOL     OW19700   6.215   5.688   3.245
 5954SOL    HW119701   6.189   5.777   3.219
 5954SOL    HW219702   6.310   5.689   3.240
 5955SOL     OW19703   5.530   0.092   6.244
 5955SOL    HW119704   5.485   0.013   6.216
 5955SOL    HW219705   5.464   0.143   6.290
 5956SOL     OW19706  13.652   2.312   0.856
 5956SOL    HW119707  13.722   2.298   0.792
 5956SOL    HW219708  13.692   2.294   0.940
 5957SOL     OW19709   0.822   0.037  13.899
 5957SOL    HW119710   0.913   0.032  13.929
 5957SOL    HW219711   0.771  14.870  13.970
 5958SOL     OW19712   1.607   0.048  11.277
 5958SOL    HW119713   1.629   0.052  11.184
 5958SOL    HW219714   1.512   0.059  11.280
 5959SOL     OW19715   7.425   5.423  12.195
 5959SOL    HW119716   7.459   5.350  12.247
 5959SOL    HW219717   7.348   5.454  12.242
 5960SOL     OW19718   4.699   5.066   5.366
 5960SOL    HW119719   4.608   5.083   5.340
 5960SOL    HW219720   4.694   5.053   5.461
 5961SOL     OW19721   3.348  14.851   4.929
 5961SOL    HW119722   3.349  14.803   4.847
 5961SOL    HW219723   3.294   0.054   4.912
 5962SOL     OW19724   0.414  14.512  14.703
 5962SOL    HW119725   0.440  14.541  14.791
 5962SOL    HW219726   0.347  14.575  14.676
 5963SOL     OW19727   6.710   8.780   5.727
 5963SOL    HW119728   6.724   8.860   5.777
 5963SOL    HW219729   6.618   8.759   5.740
 5964SOL     OW19730   5.060  13.671   4.270
 5964SOL    HW119731   5.084  13.622   4.191
 5964SOL    HW219732   5.064  13.606   4.340
 5965SOL     OW19733   1.421   2.367  14.007
 5965SOL    HW119734   1.361   2.393  14.076
 5965SOL    HW219735   1.438   2.274  14.024
 5966SOL     OW19736   4.694   1.239   6.062
 5966SOL    HW119737   4.710   1.145   6.061
 5966SOL    HW219738   4.684   1.263   5.970
 5967SOL     OW19739   3.826   9.698   2.001
 5967SOL    HW119740   3.790   9.784   1.981
 5967SOL    HW219741   3.749   9.642   2.014
 5968SOL     OW19742   1.966   4.890   1.576
 5968SOL    HW119743   1.877   4.914   1.602
 5968SOL    HW219744   1.996   4.965   1.524
 5969SOL     OW19745   9.990   3.836   6.303
 5969SOL    HW119746   9.949   3.853   6.387
 5969SOL    HW219747   9.931   3.776   6.258
 5970SOL     OW19748  14.153   3.928   0.690
 5970SOL    HW119749  14.187   3.839   0.690
 5970SOL    HW219750  14.223   3.980   0.650
 5971SOL     OW19751   0.905  12.879   8.938
 5971SOL    HW119752   0.817  12.911   8.919
 5971SOL    HW219753   0.912  12.882   9.034
 5972SOL     OW19754   2.142  11.299   2.235
 5972SOL    HW119755   2.053  11.290   2.268
 5972SOL    HW219756   2.134  11.284   2.140
 5973SOL     OW19757  11.806   4.520  11.726
 5973SOL    HW119758  11.734   4.582  11.714
 5973SOL    HW219759  11.764   4.434  11.721
 5974SOL     OW19760   5.442   2.790   0.564
 5974SOL    HW119761   5.377   2.849   0.525
 5974SOL    HW219762   5.468   2.733   0.493
 5975SOL     OW19763  11.046  13.989   0.490
 5975SOL    HW119764  10.965  14.018   0.449
 5975SOL    HW219765  11.114  14.006   0.425
 5976SOL     OW19766   2.981   5.563   7.273
 5976SOL    HW119767   2.893   5.578   7.241
 5976SOL    HW219768   2.978   5.475   7.311
 5977SOL     OW19769   6.936   7.687   4.247
 5977SOL    HW119770   6.987   7.720   4.321
 5977SOL    HW219771   6.962   7.595   4.239
 5978SOL     OW19772   0.848   8.240   0.679
 5978SOL    HW119773   0.917   8.192   0.633
 5978SOL    HW219774   0.775   8.177   0.684
 5979SOL     OW19775   9.047   7.012   8.243
 5979SOL    HW119776   8.986   6.950   8.202
 5979SOL    HW219777   9.037   7.092   8.192
 5980SOL     OW19778  10.575   1.653  11.002
 5980SOL    HW119779  10.604   1.596  10.931
 5980SOL    HW219780  10.652   1.664  11.057
 5981SOL     OW19781   4.686   7.388   1.684
 5981SOL    HW119782   4.608   7.385   1.629
 5981SOL    HW219783   4.652   7.395   1.773
 5982SOL     OW19784  12.693   4.400   9.503
 5982SOL    HW119785  12.709   4.428   9.593
 5982SOL    HW219786  12.598   4.401   9.493
 5983SOL     OW19787  11.065   3.332   5.714
 5983SOL    HW119788  11.012   3.280   5.653
 5983SOL    HW219789  11.058   3.421   5.682
 5984SOL     OW19790   5.418  13.172   5.309
 5984SOL    HW119791   5.478  13.132   5.246
 5984SOL    HW219792   5.338  13.121   5.301
 5985SOL     OW19793  10.980   5.389   6.118
 5985SOL    HW119794  11.038   5.320   6.086
 5985SOL    HW219795  11.003   5.466   6.065
 5986SOL     OW19796  10.228   4.339  12.298
 5986SOL    HW119797  10.295   4.374  12.357
 5986SOL    HW219798  10.252   4.372  12.212
 5987SOL     OW19799   4.594   5.566   0.453
 5987SOL    HW119800   4.654   5.553   0.526
 5987SOL    HW219801   4.507   5.556   0.492
 5988SOL     OW19802  10.637  11.164   9.103
 5988SOL    HW119803  10.612  11.072   9.094
 5988SOL    HW219804  10.554  11.211   9.110
 5989SOL     OW19805   2.926   3.719  11.614
 5989SOL    HW119806   3.001   3.665  11.639
 5989SOL    HW219807   2.910   3.774  11.691
 5990SOL     OW19808   8.797  11.021   9.181
 5990SOL    HW119809   8.779  11.006   9.274
 5990SOL    HW219810   8.864  10.956   9.158
 5991SOL     OW19811   1.076   2.251  11.648
 5991SOL    HW119812   1.083   2.247  11.552
 5991SOL    HW219813   1.040   2.338  11.666
 5992SOL     OW19814   0.392   9.362  13.098
 5992SOL    HW119815   0.418   9.448  13.065
 5992SOL    HW219816   0.473   9.310  13.095
 5993SOL     OW19817   7.058   5.027   5.650
 5993SOL    HW119818   7.100   5.112   5.665
 5993SOL    HW219819   7.116   4.982   5.588
 5994SOL     OW19820  10.466   0.488   5.072
 5994SOL    HW119821  10.393   0.529   5.119
 5994SOL    HW219822  10.543   0.508   5.125
 5995SOL     OW19823   9.285   1.981   6.527
 5995SOL    HW119824   9.244   1.956   6.445
 5995SOL    HW219825   9.258   2.072   6.540
 5996SOL     OW19826   9.591   1.956   6.869
 5996SOL    HW119827   9.507   1.945   6.824
 5996SOL    HW219828   9.635   2.026   6.821
 5997SOL     OW19829   2.816   0.027  13.861
 5997SOL    HW119830   2.855  14.815  13.845
 5997SOL    HW219831   2.759   0.014  13.937
 5998SOL     OW19832   1.711   6.133  14.458
 5998SOL    HW119833   1.643   6.170  14.402
 5998SOL    HW219834   1.789   6.130  14.401
 5999SOL     OW19835  10.434   8.424   8.112
 5999SOL    HW119836  10.402   8.496   8.057
 5999SOL    HW219837  10.452   8.466   8.197
 6000SOL     OW19838   5.480   8.286  14.360
 6000SOL    HW119839   5.421   8.213  14.342
 6000SOL    HW219840   5.448   8.356  14.303
 6001SOL     OW19841   7.145   1.257   0.566
 6001SOL    HW119842   7.160   1.352   0.572
 6001SOL    HW219843   7.225   1.219   0.603
 6002SOL     OW19844  14.647   3.735  13.970
 6002SOL    HW119845  14.582   3.791  13.928
 6002SOL    HW219846  14.620   3.730  14.061
 6003SOL     OW19847   6.199   9.941   6.038
 6003SOL    HW119848   6.171   9.881   5.969
 6003SOL    HW219849   6.292   9.923   6.049
 6004SOL     OW19850  14.733  13.900   6.372
 6004SOL    HW119851  14.827  13.884   6.373
 6004SOL    HW219852  14.724  13.992   6.347
 6005SOL     OW19853   2.689  11.692   0.876
 6005SOL    HW119854   2.726  11.615   0.920
 6005SOL    HW219855   2.729  11.691   0.789
 6006SOL     OW19856   5.379   3.207   5.061
 6006SOL    HW119857   5.447   3.270   5.084
 6006SOL    HW219858   5.397   3.131   5.116
 6007SOL     OW19859   1.270   5.066   2.812
 6007SOL    HW119860   1.210   5.009   2.860
 6007SOL    HW219861   1.212   5.127   2.766
 6008SOL     OW19862   1.525   6.965   8.581
 6008SOL    HW119863   1.490   7.041   8.534
 6008SOL    HW219864   1.465   6.894   8.561
 6009SOL     OW19865   5.045  14.642   9.363
 6009SOL    HW119866   5.010  14.564   9.406
 6009SOL    HW219867   5.082  14.694   9.434
 6010SOL     OW19868   1.395   2.921  12.650
 6010SOL    HW119869   1.378   2.833  12.682
 6010SOL    HW219870   1.476   2.948  12.693
 6011SOL     OW19871   5.885  11.721  13.402
 6011SOL    HW119872   5.889  11.752  13.311
 6011SOL    HW219873   5.807  11.764  13.438
 6012SOL     OW19874   7.058   0.888   3.392
 6012SOL    HW119875   7.086   0.797   3.377
 6012SOL    HW219876   6.963   0.881   3.406
 6013SOL     OW19877   1.013   8.344   4.441
 6013SOL    HW119878   1.105   8.318   4.442
 6013SOL    HW219879   0.981   8.315   4.355
 6014SOL     OW19880   6.306   4.836   2.300
 6014SOL    HW119881   6.285   4.928   2.287
 6014SOL    HW219882   6.310   4.800   2.211
 6015SOL     OW19883  14.253   2.138  11.912
 6015SOL    HW119884  14.297   2.211  11.868
 6015SOL    HW219885  14.181   2.115  11.853
 6016SOL     OW19886   5.818   1.311   1.559
 6016SOL    HW119887   5.774   1.226   1.557
 6016SOL    HW219888   5.746   1.374   1.564
 6017SOL     OW19889  10.229   6.625   4.095
 6017SOL    HW119890  10.309   6.658   4.054
 6017SOL    HW219891  10.177   6.591   4.022
 6018SOL     OW19892   3.563  11.072   3.131
 6018SOL    HW119893   3.564  11.025   3.215
 6018SOL    HW219894   3.643  11.044   3.086
 6019SOL     OW19895  13.336   3.245   5.870
 6019SOL    HW119896  13.377   3.301   5.936
 6019SOL    HW219897  13.407   3.221   5.811
 6020SOL     OW19898   1.343  13.516  13.154
 6020SOL    HW119899   1.311  13.505  13.064
 6020SOL    HW219900   1.331  13.609  13.173
 6021SOL     OW19901  14.514  11.611   3.172
 6021SOL    HW119902  14.557  11.540   3.221
 6021SOL    HW219903  14.582  11.646   3.115
 6022SOL     OW19904   0.374   1.302   0.888
 6022SOL    HW119905   0.461   1.287   0.925
 6022SOL    HW219906   0.366   1.238   0.817
 6023SOL     OW19907   3.893   9.358   3.549
 6023SOL    HW119908   3.833   9.283   3.545
 6023SOL    HW219909   3.961   9.337   3.484
 6024SOL     OW19910   9.949   5.499   9.963
 6024SOL    HW119911   9.868   5.449   9.952
 6024SOL    HW219912   9.974   5.525   9.875
 6025SOL     OW19913   6.266  11.576   8.909
 6025SOL    HW119914   6.266  11.664   8.872
 6025SOL    HW219915   6.294  11.589   9.000
 6026SOL     OW19916   4.318  10.938   5.251
 6026SOL    HW119917   4.390  10.938   5.189
 6026SOL    HW219918   4.297  10.845   5.264
 6027SOL     OW19919  11.988  11.379   9.840
 6027SOL    HW119920  11.933  11.458   9.847
 6027SOL    HW219921  11.935  11.310   9.881
 6028SOL     OW19922  10.831   3.857   3.354
 6028SOL    HW119923  10.851   3.776   3.308
 6028SOL    HW219924  10.736   3.859   3.361
 6029SOL     OW19925   2.340  10.230  10.426
 6029SOL    HW119926   2.348  10.234  10.521
 6029SOL    HW219927   2.308  10.141  10.409
 6030SOL     OW19928   2.837  13.069   0.845
 6030SOL    HW119929   2.786  13.148   0.831
 6030SOL    HW219930   2.801  13.005   0.784
 6031SOL     OW19931  14.047   1.516   8.187
 6031SOL    HW119932  13.972   1.457   8.179
 6031SOL    HW219933  14.030   1.586   8.124
 6032SOL     OW19934  14.826  12.867   2.005
 6032SOL    HW119935  14.831  12.962   2.020
 6032SOL    HW219936  14.777  12.834   2.080
 6033SOL     OW19937   8.550   5.513  12.118
 6033SOL    HW119938   8.518   5.424  12.130
 6033SOL    HW219939   8.562   5.523  12.024
 6034SOL     OW19940   9.993   2.074   6.087
 6034SOL    HW119941  10.061   2.044   6.027
 6034SOL    HW219942   9.924   2.009   6.080
 6035SOL     OW19943   2.334  10.369   3.773
 6035SOL    HW119944   2.256  10.341   3.724
 6035SOL    HW219945   2.397  10.393   3.705
 6036SOL     OW19946   2.120   0.567   3.664
 6036SOL    HW119947   2.203   0.538   3.701
 6036SOL    HW219948   2.143   0.607   3.581
 6037SOL     OW19949   1.600   2.261   9.804
 6037SOL    HW119950   1.640   2.319   9.869
 6037SOL    HW219951   1.666   2.254   9.735
 6038SOL     OW19952  10.998  12.197   3.358
 6038SOL    HW119953  10.967  12.128   3.300
 6038SOL    HW219954  10.928  12.263   3.356
 6039SOL     OW19955   7.342  14.346   4.452
 6039SOL    HW119956   7.330  14.359   4.546
 6039SOL    HW219957   7.436  14.329   4.442
 6040SOL     OW19958   6.062   7.882   4.072
 6040SOL    HW119959   5.987   7.839   4.113
 6040SOL    HW219960   6.028   7.918   3.990
 6041SOL     OW19961  12.114   2.073   4.703
 6041SOL    HW119962  12.113   1.977   4.701
 6041SOL    HW219963  12.066   2.098   4.624
 6042SOL     OW19964  12.077  10.391   5.067
 6042SOL    HW119965  11.988  10.364   5.090
 6042SOL    HW219966  12.077  10.485   5.081
 6043SOL     OW19967  13.628   9.152   5.519
 6043SOL    HW119968  13.608   9.107   5.437
 6043SOL    HW219969  13.562   9.222   5.524
 6044SOL     OW19970   6.704   4.276   0.200
 6044SOL    HW119971   6.736   4.360   0.231
 6044SOL    HW219972   6.782   4.220   0.195
 6045SOL     OW19973   9.350   0.383   3.191
 6045SOL    HW119974   9.371   0.429   3.272
 6045SOL    HW219975   9.339   0.292   3.217
 6046SOL     OW19976  13.708   2.447   2.980
 6046SOL    HW119977  13.652   2.412   2.911
 6046SOL    HW219978  13.743   2.369   3.024
 6047SOL     OW19979   4.704   5.141   4.327
 6047SOL    HW119980   4.640   5.129   4.257
 6047SOL    HW219981   4.781   5.178   4.282
 6048SOL     OW19982  10.978  11.100   5.663
 6048SOL    HW119983  11.052  11.137   5.613
 6048SOL    HW219984  10.917  11.174   5.672
 6049SOL     OW19985  11.388   5.830  14.867
 6049SOL    HW119986  11.349   5.910  14.831
 6049SOL    HW219987  11.464   5.861   0.043
 6050SOL     OW19988   1.586  11.344   4.989
 6050SOL    HW119989   1.615  11.417   5.043
 6050SOL    HW219990   1.629  11.357   4.904
 6051SOL     OW19991   3.247   9.678  11.687
 6051SOL    HW119992   3.270   9.771  11.697
 6051SOL    HW219993   3.331   9.633  11.683
 6052SOL     OW19994   5.821   3.924   5.720
 6052SOL    HW119995   5.736   3.887   5.742
 6052SOL    HW219996   5.802   4.015   5.696
 6053SOL     OW19997   2.431   6.857   5.687
 6053SOL    HW119998   2.514   6.867   5.733
 6053SOL    HW219999   2.442   6.907   5.607
 6054SOL     OW20000   5.076   0.409   8.463
 6054SOL    HW120001   5.159   0.429   8.420
 6054SOL    HW220002   5.014   0.473   8.427
 6055SOL     OW20003  10.510   8.997  11.312
 6055SOL    HW120004  10.467   9.060  11.254
 6055SOL    HW220005  10.438   8.958  11.361
 6056SOL     OW20006   4.433   1.876   9.713
 6056SOL    HW120007   4.444   1.908   9.624
 6056SOL    HW220008   4.347   1.836   9.715
 6057SOL     OW20009   3.443  11.010   5.356
 6057SOL    HW120010   3.442  10.935   5.296
 6057SOL    HW220011   3.390  11.076   5.312
 6058SOL     OW20012   4.369   8.470   2.932
 6058SOL    HW120013   4.319   8.537   2.885
 6058SOL    HW220014   4.391   8.405   2.866
 6059SOL     OW20015   4.913  10.280   7.002
 6059SOL    HW120016   4.864  10.289   7.083
 6059SOL    HW220017   4.968  10.202   7.015
 6060SOL     OW20018   0.370   6.481  10.146
 6060SOL    HW120019   0.428   6.492  10.221
 6060SOL    HW220020   0.356   6.387  10.140
 6061SOL     OW20021  11.036  13.931   4.330
 6061SOL    HW120022  11.041  13.858   4.392
 6061SOL    HW220023  11.085  13.901   4.253
 6062SOL     OW20024  13.459  13.187   4.909
 6062SOL    HW120025  13.550  13.182   4.878
 6062SOL    HW220026  13.434  13.095   4.921
 6063SOL     OW20027   4.235   9.704   2.827
 6063SOL    HW120028   4.266   9.728   2.740
 6063SOL    HW220029   4.157   9.759   2.841
 6064SOL     OW20030   1.072  13.183   7.795
 6064SOL    HW120031   1.015  13.170   7.720
 6064SOL    HW220032   1.081  13.278   7.803
 6065SOL     OW20033  10.484   6.483  13.781
 6065SOL    HW120034  10.546   6.555  13.777
 6065SOL    HW220035  10.402   6.519  13.747
 6066SOL     OW20036   9.246   9.369   1.946
 6066SOL    HW120037   9.309   9.394   1.878
 6066SOL    HW220038   9.250   9.441   2.009
 6067SOL     OW20039  12.490   2.187  11.071
 6067SOL    HW120040  12.438   2.264  11.046
 6067SOL    HW220041  12.425   2.116  11.076
 6068SOL     OW20042  11.638  13.491  12.769
 6068SOL    HW120043  11.594  13.442  12.838
 6068SOL    HW220044  11.720  13.521  12.808
 6069SOL     OW20045  13.024   4.126   4.674
 6069SOL    HW120046  13.091   4.193   4.683
 6069SOL    HW220047  12.942   4.171   4.696
 6070SOL     OW20048   1.740   0.409  14.150
 6070SOL    HW120049   1.790   0.439  14.227
 6070SOL    HW220050   1.762   0.316  14.143
 6071SOL     OW20051  10.625   2.422   8.625
 6071SOL    HW120052  10.646   2.379   8.542
 6071SOL    HW220053  10.561   2.489   8.601
 6072SOL     OW20054  10.779   9.647  11.328
 6072SOL    HW120055  10.793   9.591  11.404
 6072SOL    HW220056  10.863   9.691  11.315
 6073SOL     OW20057  12.377  13.686   4.245
 6073SOL    HW120058  12.343  13.599   4.263
 6073SOL    HW220059  12.303  13.745   4.261
 6074SOL     OW20060   1.663  13.680  14.039
 6074SOL    HW120061   1.691  13.622  13.969
 6074SOL    HW220062   1.704  13.644  14.118
 6075SOL     OW20063   8.189   5.675   9.741
 6075SOL    HW120064   8.101   5.702   9.767
 6075SOL    HW220065   8.190   5.685   9.646
 6076SOL     OW20066  12.896   4.969   3.874
 6076SOL    HW120067  12.878   5.011   3.959
 6076SOL    HW220068  12.907   4.877   3.895
 6077SOL     OW20069   6.537  12.270  11.423
 6077SOL    HW120070   6.615  12.229  11.459
 6077SOL    HW220071   6.478  12.198  11.404
 6078SOL     OW20072   3.234  10.769   2.490
 6078SOL    HW120073   3.281  10.804   2.415
 6078SOL    HW220074   3.242  10.674   2.482
 6079SOL     OW20075   2.190   0.882   5.926
 6079SOL    HW120076   2.271   0.914   5.885
 6079SOL    HW220077   2.141   0.844   5.853
 6080SOL     OW20078   0.419   5.845   7.817
 6080SOL    HW120079   0.507   5.810   7.803
 6080SOL    HW220080   0.388   5.799   7.896
 6081SOL     OW20081   4.558   1.484   5.308
 6081SOL    HW120082   4.599   1.444   5.232
 6081SOL    HW220083   4.480   1.431   5.325
 6082SOL     OW20084  13.051   8.084   0.631
 6082SOL    HW120085  12.977   8.023   0.626
 6082SOL    HW220086  13.039   8.142   0.555
 6083SOL     OW20087   3.925  11.873   1.976
 6083SOL    HW120088   3.918  11.910   2.064
 6083SOL    HW220089   3.973  11.939   1.926
 6084SOL     OW20090   2.266   4.987   1.583
 6084SOL    HW120091   2.222   4.947   1.657
 6084SOL    HW220092   2.329   4.921   1.553
 6085SOL     OW20093   4.127   9.463   7.236
 6085SOL    HW120094   4.167   9.377   7.245
 6085SOL    HW220095   4.172   9.518   7.300
 6086SOL     OW20096   7.366  13.900  13.082
 6086SOL    HW120097   7.382  13.875  13.173
 6086SOL    HW220098   7.362  13.818  13.034
 6087SOL     OW20099   1.185  13.167   6.032
 6087SOL    HW120100   1.094  13.169   6.062
 6087SOL    HW220101   1.225  13.097   6.083
 6088SOL     OW20102   7.715   2.708   6.001
 6088SOL    HW120103   7.644   2.694   6.065
 6088SOL    HW220104   7.679   2.677   5.918
 6089SOL     OW20105   1.918  10.716  12.794
 6089SOL    HW120106   2.010  10.739  12.810
 6089SOL    HW220107   1.880  10.707  12.882
 6090SOL     OW20108   1.035   1.837  12.733
 6090SOL    HW120109   1.013   1.929  12.751
 6090SOL    HW220110   1.088   1.841  12.653
 6091SOL     OW20111  11.437  14.090  13.180
 6091SOL    HW120112  11.359  14.142  13.202
 6091SOL    HW220113  11.431  14.078  13.085
 6092SOL     OW20114   9.853   2.167   0.634
 6092SOL    HW120115   9.802   2.207   0.704
 6092SOL    HW220116   9.940   2.206   0.643
 6093SOL     OW20117   6.914  13.483   7.993
 6093SOL    HW120118   6.911  13.410   7.932
 6093SOL    HW220119   6.911  13.442   8.080
 6094SOL     OW20120  10.959   3.839   4.890
 6094SOL    HW120121  10.957   3.868   4.798
 6094SOL    HW220122  11.001   3.753   4.887
 6095SOL     OW20123   1.691  11.889   9.886
 6095SOL    HW120124   1.749  11.894   9.809
 6095SOL    HW220125   1.751  11.882   9.960
 6096SOL     OW20126   1.002   4.073  14.048
 6096SOL    HW120127   1.089   4.040  14.070
 6096SOL    HW220128   0.997   4.068  13.953
 6097SOL     OW20129   7.223   9.771  11.573
 6097SOL    HW120130   7.219   9.794  11.480
 6097SOL    HW220131   7.135   9.791  11.606
 6098SOL     OW20132   1.179   2.104  13.495
 6098SOL    HW120133   1.136   2.120  13.411
 6098SOL    HW220134   1.242   2.175  13.504
 6099SOL     OW20135   0.941   5.696   6.676
 6099SOL    HW120136   0.928   5.626   6.740
 6099SOL    HW220137   0.892   5.770   6.712
 6100SOL     OW20138  13.189   1.353   8.554
 6100SOL    HW120139  13.222   1.426   8.606
 6100SOL    HW220140  13.248   1.348   8.478
 6101SOL     OW20141   0.292   1.586  12.249
 6101SOL    HW120142   0.274   1.612  12.159
 6101SOL    HW220143   0.289   1.667  12.299
 6102SOL     OW20144   2.472  11.271  10.800
 6102SOL    HW120145   2.429  11.354  10.779
 6102SOL    HW220146   2.488  11.230  10.715
 6103SOL     OW20147  12.747   6.444   9.512
 6103SOL    HW120148  12.820   6.493   9.474
 6103SOL    HW220149  12.780   6.355   9.519
 6104SOL     OW20150  12.055   5.279   0.645
 6104SOL    HW120151  12.055   5.374   0.649
 6104SOL    HW220152  12.146   5.254   0.661
 6105SOL     OW20153   9.445  13.724   0.482
 6105SOL    HW120154   9.492  13.700   0.403
 6105SOL    HW220155   9.391  13.799   0.456
 6106SOL     OW20156   4.486   5.474   3.985
 6106SOL    HW120157   4.419   5.412   4.014
 6106SOL    HW220158   4.436   5.548   3.949
 6107SOL     OW20159   6.060  12.626   8.099
 6107SOL    HW120160   6.090  12.710   8.067
 6107SOL    HW220161   6.136  12.589   8.145
 6108SOL     OW20162  11.756  12.301   0.091
 6108SOL    HW120163  11.847  12.331   0.086
 6108SOL    HW220164  11.705  12.377   0.064
 6109SOL     OW20165   8.999  13.230  12.054
 6109SOL    HW120166   9.018  13.276  11.972
 6109SOL    HW220167   8.905  13.211  12.050
 6110SOL     OW20168   8.612   7.009  12.745
 6110SOL    HW120169   8.553   7.083  12.734
 6110SOL    HW220170   8.581   6.964  12.823
 6111SOL     OW20171  10.533   8.787  14.657
 6111SOL    HW120172  10.502   8.698  14.675
 6111SOL    HW220173  10.589   8.808  14.732
 6112SOL     OW20174   6.867   3.588   5.616
 6112SOL    HW120175   6.831   3.594   5.527
 6112SOL    HW220176   6.841   3.669   5.658
 6113SOL     OW20177   2.940   5.480  10.365
 6113SOL    HW120178   3.022   5.498  10.412
 6113SOL    HW220179   2.955   5.513  10.276
 6114SOL     OW20180   8.604   9.312   0.753
 6114SOL    HW120181   8.521   9.270   0.777
 6114SOL    HW220182   8.669   9.274   0.811
 6115SOL     OW20183   2.327  10.805   9.001
 6115SOL    HW120184   2.398  10.771   8.947
 6115SOL    HW220185   2.340  10.764   9.087
 6116SOL     OW20186  10.480   8.641  13.642
 6116SOL    HW120187  10.504   8.703  13.572
 6116SOL    HW220188  10.534   8.564  13.625
 6117SOL     OW20189  11.907   2.877  10.814
 6117SOL    HW120190  12.000   2.888  10.834
 6117SOL    HW220191  11.888   2.947  10.751
 6118SOL     OW20192   3.563   7.026   5.798
 6118SOL    HW120193   3.633   7.057   5.855
 6118SOL    HW220194   3.568   6.930   5.804
 6119SOL     OW20195   4.790  12.987   3.094
 6119SOL    HW120196   4.848  12.961   3.166
 6119SOL    HW220197   4.703  12.989   3.133
 6120SOL     OW20198   7.200   7.765   3.956
 6120SOL    HW120199   7.106   7.748   3.949
 6120SOL    HW220200   7.209   7.813   4.039
 6121SOL     OW20201   2.510  13.766   1.109
 6121SOL    HW120202   2.484  13.764   1.201
 6121SOL    HW220203   2.504  13.858   1.084
 6122SOL     OW20204   9.368  14.037   2.072
 6122SOL    HW120205   9.286  14.060   2.116
 6122SOL    HW220206   9.365  14.086   1.990
 6123SOL     OW20207   8.973  12.074  11.111
 6123SOL    HW120208   8.960  12.041  11.200
 6123SOL    HW220209   8.978  12.169  11.121
 6124SOL     OW20210  14.172   7.365   0.810
 6124SOL    HW120211  14.179   7.410   0.725
 6124SOL    HW220212  14.251   7.311   0.814
 6125SOL     OW20213  13.465  12.826  11.217
 6125SOL    HW120214  13.554  12.794  11.205
 6125SOL    HW220215  13.460  12.849  11.310
 6126SOL     OW20216   4.246   2.796  12.551
 6126SOL    HW120217   4.216   2.886  12.537
 6126SOL    HW220218   4.194   2.744  12.489
 6127SOL     OW20219   5.365  11.646   0.009
 6127SOL    HW120220   5.314  11.577  14.840
 6127SOL    HW220221   5.328  11.728  14.850
 6128SOL     OW20222   1.078   0.344   3.098
 6128SOL    HW120223   1.042   0.270   3.146
 6128SOL    HW220224   1.116   0.304   3.019
 6129SOL     OW20225  12.512   4.569   4.099
 6129SOL    HW120226  12.566   4.637   4.058
 6129SOL    HW220227  12.422   4.594   4.077
 6130SOL     OW20228   7.264  11.716   2.363
 6130SOL    HW120229   7.255  11.708   2.268
 6130SOL    HW220230   7.258  11.626   2.395
 6131SOL     OW20231  13.851   3.947  13.342
 6131SOL    HW120232  13.824   4.039  13.334
 6131SOL    HW220233  13.785   3.907  13.399
 6132SOL     OW20234   0.173   8.617   7.607
 6132SOL    HW120235   0.202   8.694   7.655
 6132SOL    HW220236   0.252   8.587   7.561
 6133SOL     OW20237   0.389   4.152   3.325
 6133SOL    HW120238   0.409   4.237   3.285
 6133SOL    HW220239   0.410   4.088   3.257
 6134SOL     OW20240   8.298  10.411   0.358
 6134SOL    HW120241   8.377  10.389   0.309
 6134SOL    HW220242   8.234  10.434   0.291
 6135SOL     OW20243   1.229   0.827   2.562
 6135SOL    HW120244   1.156   0.848   2.504
 6135SOL    HW220245   1.291   0.899   2.549
 6136SOL     OW20246   4.832  10.634   6.542
 6136SOL    HW120247   4.741  10.624   6.514
 6136SOL    HW220248   4.868  10.700   6.483
 6137SOL     OW20249  13.413   9.540   1.932
 6137SOL    HW120250  13.320   9.535   1.953
 6137SOL    HW220251  13.444   9.450   1.938
 6138SOL     OW20252  11.490   2.416   2.509
 6138SOL    HW120253  11.475   2.379   2.597
 6138SOL    HW220254  11.465   2.346   2.449
 6139SOL     OW20255  14.531   3.930   7.039
 6139SOL    HW120256  14.610   3.979   7.065
 6139SOL    HW220257  14.470   3.997   7.010
 6140SOL     OW20258   0.961  11.363  11.652
 6140SOL    HW120259   0.942  11.455  11.669
 6140SOL    HW220260   0.996  11.330  11.735
 6141SOL     OW20261  13.580   6.591   7.370
 6141SOL    HW120262  13.566   6.514   7.425
 6141SOL    HW220263  13.493   6.614   7.337
 6142SOL     OW20264   3.921   0.834  14.122
 6142SOL    HW120265   4.003   0.784  14.114
 6142SOL    HW220266   3.875   0.793  14.195
 6143SOL     OW20267   8.492  10.456   7.870
 6143SOL    HW120268   8.512  10.375   7.824
 6143SOL    HW220269   8.506  10.525   7.805
 6144SOL     OW20270  10.000  10.461   1.225
 6144SOL    HW120271  10.038  10.391   1.277
 6144SOL    HW220272   9.910  10.433   1.208
 6145SOL     OW20273  13.593  12.221   0.635
 6145SOL    HW120274  13.499  12.236   0.625
 6145SOL    HW220275  13.632  12.261   0.557
 6146SOL     OW20276  12.843   3.314   9.104
 6146SOL    HW120277  12.775   3.363   9.058
 6146SOL    HW220278  12.800   3.279   9.182
 6147SOL     OW20279  11.597   7.772   0.831
 6147SOL    HW120280  11.540   7.767   0.907
 6147SOL    HW220281  11.541   7.749   0.757
 6148SOL     OW20282   9.668   9.524   8.704
 6148SOL    HW120283   9.721   9.592   8.744
 6148SOL    HW220284   9.696   9.443   8.748
 6149SOL     OW20285  12.008  13.337   7.746
 6149SOL    HW120286  12.092  13.310   7.710
 6149SOL    HW220287  12.028  13.414   7.799
 6150SOL     OW20288  10.279   2.161   5.472
 6150SOL    HW120289  10.312   2.247   5.499
 6150SOL    HW220290  10.327   2.099   5.527
 6151SOL     OW20291   1.337   4.625  12.548
 6151SOL    HW120292   1.253   4.661  12.519
 6151SOL    HW220293   1.326   4.613  12.643
 6152SOL     OW20294   8.645   2.158   4.728
 6152SOL    HW120295   8.671   2.214   4.656
 6152SOL    HW220296   8.710   2.088   4.730
 6153SOL     OW20297  11.419   6.610   1.774
 6153SOL    HW120298  11.328   6.580   1.768
 6153SOL    HW220299  11.454   6.563   1.849
 6154SOL     OW20300  13.688   3.661   4.608
 6154SOL    HW120301  13.701   3.572   4.575
 6154SOL    HW220302  13.601   3.687   4.575
 6155SOL     OW20303  11.790   6.904  12.089
 6155SOL    HW120304  11.809   6.985  12.136
 6155SOL    HW220305  11.706   6.874  12.125
 6156SOL     OW20306   7.772   7.180   5.135
 6156SOL    HW120307   7.825   7.103   5.112
 6156SOL    HW220308   7.702   7.145   5.189
 6157SOL     OW20309   8.201   1.754   3.272
 6157SOL    HW120310   8.284   1.710   3.290
 6157SOL    HW220311   8.224   1.846   3.260
 6158SOL     OW20312  12.542  10.175   3.972
 6158SOL    HW120313  12.458  10.176   4.017
 6158SOL    HW220314  12.538  10.249   3.911
 6159SOL     OW20315   1.320  12.106   0.701
 6159SOL    HW120316   1.320  12.200   0.718
 6159SOL    HW220317   1.239  12.074   0.742
 6160SOL     OW20318  11.239  11.200  12.678
 6160SOL    HW120319  11.304  11.247  12.731
 6160SOL    HW220320  11.212  11.126  12.734
 6161SOL     OW20321  13.264   4.309   0.720
 6161SOL    HW120322  13.171   4.298   0.740
 6161SOL    HW220323  13.276   4.404   0.712
 6162SOL     OW20324  13.956   8.861   7.971
 6162SOL    HW120325  13.971   8.955   7.967
 6162SOL    HW220326  13.969   8.839   8.064
 6163SOL     OW20327   3.012   7.389  13.212
 6163SOL    HW120328   3.041   7.469  13.257
 6163SOL    HW220329   3.068   7.383  13.136
 6164SOL     OW20330   5.216   6.395   0.874
 6164SOL    HW120331   5.176   6.348   0.948
 6164SOL    HW220332   5.162   6.473   0.863
 6165SOL     OW20333   6.787   5.171  10.624
 6165SOL    HW120334   6.753   5.235  10.687
 6165SOL    HW220335   6.779   5.215  10.539
 6166SOL     OW20336  10.646  12.304   9.787
 6166SOL    HW120337  10.735  12.286   9.759
 6166SOL    HW220338  10.595  12.229   9.756
 6167SOL     OW20339   9.149  14.389   3.571
 6167SOL    HW120340   9.133  14.448   3.644
 6167SOL    HW220341   9.244  14.374   3.573
 6168SOL     OW20342   2.293   7.511   1.034
 6168SOL    HW120343   2.210   7.559   1.028
 6168SOL    HW220344   2.337   7.548   1.110
 6169SOL     OW20345   1.614  10.147  14.167
 6169SOL    HW120346   1.574  10.215  14.113
 6169SOL    HW220347   1.691  10.190  14.206
 6170SOL     OW20348   6.342  14.803   1.685
 6170SOL    HW120349   6.261  14.754   1.703
 6170SOL    HW220350   6.320   0.020   1.707
 6171SOL     OW20351   4.390  14.621   1.159
 6171SOL    HW120352   4.464  14.621   1.220
 6171SOL    HW220353   4.392  14.709   1.120
 6172SOL     OW20354  13.318   1.500   5.430
 6172SOL    HW120355  13.409   1.479   5.453
 6172SOL    HW220356  13.321   1.521   5.337
 6173SOL     OW20357   0.701   8.519   9.072
 6173SOL    HW120358   0.777   8.552   9.024
 6173SOL    HW220359   0.693   8.576   9.148
 6174SOL     OW20360   4.939  10.874   7.502
 6174SOL    HW120361   5.004  10.933   7.463
 6174SOL    HW220362   4.957  10.789   7.463
 6175SOL     OW20363   7.003   9.323  13.498
 6175SOL    HW120364   6.996   9.367  13.413
 6175SOL    HW220365   7.041   9.389  13.556
 6176SOL     OW20366   5.083   5.633   8.698
 6176SOL    HW120367   5.036   5.557   8.733
 6176SOL    HW220368   5.161   5.641   8.752
 6177SOL     OW20369   4.406  12.200  14.819
 6177SOL    HW120370   4.380  12.252   0.022
 6177SOL    HW220371   4.419  12.266  14.750
 6178SOL     OW20372   6.187   7.502   0.778
 6178SOL    HW120373   6.161   7.531   0.691
 6178SOL    HW220374   6.183   7.406   0.774
 6179SOL     OW20375   6.395   0.689   3.988
 6179SOL    HW120376   6.393   0.698   4.083
 6179SOL    HW220377   6.303   0.686   3.962
 6180SOL     OW20378   4.207  13.842   2.053
 6180SOL    HW120379   4.188  13.790   1.976
 6180SOL    HW220380   4.140  13.910   2.053
 6181SOL     OW20381   3.884  13.344   7.480
 6181SOL    HW120382   3.790  13.328   7.487
 6181SOL    HW220383   3.924  13.265   7.516
 6182SOL     OW20384   3.262   5.196   0.840
 6182SOL    HW120385   3.295   5.165   0.924
 6182SOL    HW220386   3.254   5.117   0.786
 6183SOL     OW20387   4.479   0.600  11.399
 6183SOL    HW120388   4.526   0.544  11.461
 6183SOL    HW220389   4.460   0.543  11.325
 6184SOL     OW20390  10.386  10.620  12.580
 6184SOL    HW120391  10.464  10.584  12.621
 6184SOL    HW220392  10.388  10.587  12.490
 6185SOL     OW20393  13.563   5.911   5.310
 6185SOL    HW120394  13.605   5.825   5.309
 6185SOL    HW220395  13.630   5.972   5.280
 6186SOL     OW20396  14.320  10.667   3.123
 6186SOL    HW120397  14.344  10.582   3.157
 6186SOL    HW220398  14.295  10.651   3.032
 6187SOL     OW20399   3.987  10.007   9.673
 6187SOL    HW120400   3.933  10.054   9.737
 6187SOL    HW220401   3.971  10.052   9.590
 6188SOL     OW20402   9.316  11.266  13.627
 6188SOL    HW120403   9.252  11.318  13.675
 6188SOL    HW220404   9.380  11.330  13.596
 6189SOL     OW20405  12.892   5.157   8.380
 6189SOL    HW120406  12.890   5.207   8.299
 6189SOL    HW220407  12.979   5.173   8.417
 6190SOL     OW20408  13.494  13.161  11.548
 6190SOL    HW120409  13.543  13.201  11.477
 6190SOL    HW220410  13.421  13.220  11.564
 6191SOL     OW20411   2.665   2.995   2.848
 6191SOL    HW120412   2.625   3.069   2.803
 6191SOL    HW220413   2.592   2.939   2.873
 6192SOL     OW20414   1.972  13.522   9.416
 6192SOL    HW120415   1.933  13.481   9.493
 6192SOL    HW220416   1.898  13.537   9.357
 6193SOL     OW20417   4.598   3.111  10.471
 6193SOL    HW120418   4.545   3.056  10.529
 6193SOL    HW220419   4.533   3.155  10.416
 6194SOL     OW20420  10.101  11.674   7.432
 6194SOL    HW120421  10.136  11.628   7.356
 6194SOL    HW220422  10.111  11.767   7.412
 6195SOL     OW20423   9.272   8.872   0.515
 6195SOL    HW120424   9.330   8.943   0.543
 6195SOL    HW220425   9.255   8.891   0.422
 6196SOL     OW20426   8.755   3.138   3.271
 6196SOL    HW120427   8.667   3.157   3.304
 6196SOL    HW220428   8.810   3.206   3.309
 6197SOL     OW20429  12.773   2.227  12.108
 6197SOL    HW120430  12.759   2.295  12.174
 6197SOL    HW220431  12.746   2.267  12.026
 6198SOL     OW20432   3.404   3.742   5.990
 6198SOL    HW120433   3.370   3.654   5.998
 6198SOL    HW220434   3.384   3.767   5.899
 6199SOL     OW20435   7.531   2.781   0.013
 6199SOL    HW120436   7.562   2.869  14.866
 6199SOL    HW220437   7.442   2.794   0.045
 6200SOL     OW20438  12.815   8.711  11.685
 6200SOL    HW120439  12.861   8.738  11.606
 6200SOL    HW220440  12.814   8.789  11.740
 6201SOL     OW20441  11.716   8.085  11.261
 6201SOL    HW120442  11.715   8.161  11.319
 6201SOL    HW220443  11.802   8.087  11.220
 6202SOL     OW20444   0.698   2.979   3.729
 6202SOL    HW120445   0.699   3.051   3.666
 6202SOL    HW220446   0.608   2.975   3.760
 6203SOL     OW20447  10.906   0.043  14.692
 6203SOL    HW120448  10.891  14.856  14.763
 6203SOL    HW220449  10.999   0.032  14.670
 6204SOL     OW20450   7.886   3.629  14.437
 6204SOL    HW120451   7.899   3.722  14.421
 6204SOL    HW220452   7.968   3.599  14.475
 6205SOL     OW20453  10.027   1.900   2.388
 6205SOL    HW120454  10.040   1.904   2.483
 6205SOL    HW220455  10.083   1.969   2.353
 6206SOL     OW20456  14.358   9.194  10.779
 6206SOL    HW120457  14.444   9.163  10.806
 6206SOL    HW220458  14.313   9.115  10.747
 6207SOL     OW20459   7.204  14.063   6.177
 6207SOL    HW120460   7.286  14.024   6.209
 6207SOL    HW220461   7.165  14.104   6.255
 6208SOL     OW20462   8.833  10.668   9.872
 6208SOL    HW120463   8.812  10.678   9.779
 6208SOL    HW220464   8.928  10.654   9.873
 6209SOL     OW20465   2.354  12.137   8.344
 6209SOL    HW120466   2.441  12.118   8.379
 6209SOL    HW220467   2.337  12.066   8.282
 6210SOL     OW20468  11.096  12.387   7.427
 6210SOL    HW120469  11.168  12.448   7.413
 6210SOL    HW220470  11.138  12.306   7.457
 6211SOL     OW20471  11.125   1.088  10.013
 6211SOL    HW120472  11.084   1.090   9.927
 6211SOL    HW220473  11.200   1.029  10.003
 6212SOL     OW20474  10.536  10.106  11.300
 6212SOL    HW120475  10.582  10.155  11.232
 6212SOL    HW220476  10.548  10.014  11.275
 6213SOL     OW20477  10.931   4.716   0.558
 6213SOL    HW120478  10.840   4.745   0.569
 6213SOL    HW220479  10.928   4.621   0.571
 6214SOL     OW20480  11.198   5.002  10.196
 6214SOL    HW120481  11.119   5.051  10.174
 6214SOL    HW220482  11.251   5.005  10.116
 6215SOL     OW20483  10.510   6.581   7.796
 6215SOL    HW120484  10.599   6.583   7.831
 6215SOL    HW220485  10.470   6.505   7.839
 6216SOL     OW20486  14.689  10.522   4.259
 6216SOL    HW120487  14.747  10.504   4.333
 6216SOL    HW220488  14.678  10.436   4.217
 6217SOL     OW20489  10.043   0.741   4.095
 6217SOL    HW120490  10.064   0.829   4.065
 6217SOL    HW220491  10.090   0.683   4.036
 6218SOL     OW20492   1.192  14.381  11.740
 6218SOL    HW120493   1.161  14.438  11.670
 6218SOL    HW220494   1.114  14.335  11.770
 6219SOL     OW20495   1.774  10.279  14.335
 6219SOL    HW120496   1.771  10.374  14.319
 6219SOL    HW220497   1.837  10.269  14.406
 6220SOL     OW20498  12.231   8.924  11.418
 6220SOL    HW120499  12.217   8.926  11.513
 6220SOL    HW220500  12.242   9.016  11.393
 6221SOL     OW20501  12.188   5.655  13.158
 6221SOL    HW120502  12.264   5.704  13.188
 6221SOL    HW220503  12.140   5.633  13.238
 6222SOL     OW20504   5.958   3.372   5.260
 6222SOL    HW120505   5.887   3.309   5.275
 6222SOL    HW220506   6.037   3.318   5.253
 6223SOL     OW20507   7.417   6.092   3.606
 6223SOL    HW120508   7.353   6.042   3.555
 6223SOL    HW220509   7.380   6.180   3.611
 6224SOL     OW20510  10.607   6.819  10.211
 6224SOL    HW120511  10.544   6.769  10.160
 6224SOL    HW220512  10.561   6.899  10.235
 6225SOL     OW20513   0.055   6.001   6.827
 6225SOL    HW120514  14.844   5.990   6.782
 6225SOL    HW220515   0.108   5.928   6.794
 6226SOL     OW20516  10.203   2.456   1.043
 6226SOL    HW120517  10.137   2.402   1.000
 6226SOL    HW220518  10.199   2.540   0.996
 6227SOL     OW20519   5.233  14.088   2.198
 6227SOL    HW120520   5.305  14.147   2.174
 6227SOL    HW220521   5.271  14.001   2.194
 6228SOL     OW20522   3.400   3.767   0.985
 6228SOL    HW120523   3.414   3.800   1.074
 6228SOL    HW220524   3.470   3.704   0.972
 6229SOL     OW20525  10.442   1.288  10.079
 6229SOL    HW120526  10.436   1.298   9.984
 6229SOL    HW220527  10.478   1.371  10.110
 6230SOL     OW20528   1.043   3.119   9.791
 6230SOL    HW120529   0.972   3.056   9.774
 6230SOL    HW220530   1.030   3.187   9.725
 6231SOL     OW20531   5.887  13.870  10.055
 6231SOL    HW120532   5.981  13.861  10.070
 6231SOL    HW220533   5.864  13.953  10.098
 6232SOL     OW20534   2.945   3.010   6.721
 6232SOL    HW120535   3.040   3.003   6.718
 6232SOL    HW220536   2.914   2.938   6.666
 6233SOL     OW20537   8.526   1.945   1.438
 6233SOL    HW120538   8.607   1.908   1.402
 6233SOL    HW220539   8.534   1.930   1.532
 6234SOL     OW20540   6.542   6.245   3.278
 6234SOL    HW120541   6.519   6.155   3.303
 6234SOL    HW220542   6.632   6.257   3.310
 6235SOL     OW20543   3.652   9.507   9.546
 6235SOL    HW120544   3.579   9.510   9.608
 6235SOL    HW220545   3.714   9.572   9.577
 6236SOL     OW20546  13.237   0.629   1.715
 6236SOL    HW120547  13.327   0.620   1.683
 6236SOL    HW220548  13.240   0.594   1.803
 6237SOL     OW20549   4.068   2.950   6.888
 6237SOL    HW120550   4.084   2.894   6.964
 6237SOL    HW220551   4.073   3.039   6.922
 6238SOL     OW20552   3.590  14.412   4.290
 6238SOL    HW120553   3.674  14.458   4.284
 6238SOL    HW220554   3.587  14.379   4.380
 6239SOL     OW20555   6.629   4.789   3.701
 6239SOL    HW120556   6.694   4.803   3.632
 6239SOL    HW220557   6.601   4.698   3.689
 6240SOL     OW20558  10.010   1.581   6.268
 6240SOL    HW120559   9.963   1.498   6.271
 6240SOL    HW220560  10.064   1.581   6.348
 6241SOL     OW20561  13.740  14.508   9.093
 6241SOL    HW120562  13.735  14.574   9.162
 6241SOL    HW220563  13.755  14.557   9.013
 6242SOL     OW20564   8.227   0.426   2.399
 6242SOL    HW120565   8.134   0.447   2.403
 6242SOL    HW220566   8.230   0.333   2.375
 6243SOL     OW20567  12.925  14.456   0.756
 6243SOL    HW120568  12.900  14.439   0.847
 6243SOL    HW220569  12.913  14.372   0.712
 6244SOL     OW20570   5.455   8.703  13.536
 6244SOL    HW120571   5.470   8.640  13.466
 6244SOL    HW220572   5.361   8.720  13.533
 6245SOL     OW20573  10.271  10.202   2.308
 6245SOL    HW120574  10.232  10.123   2.271
 6245SOL    HW220575  10.365  10.183   2.312
 6246SOL     OW20576   9.715   6.723   0.291
 6246SOL    HW120577   9.693   6.812   0.318
 6246SOL    HW220578   9.807   6.713   0.314
 6247SOL     OW20579   4.675   2.073   8.349
 6247SOL    HW120580   4.764   2.088   8.317
 6247SOL    HW220581   4.676   2.107   8.439
 6248SOL     OW20582   3.660   8.813   1.675
 6248SOL    HW120583   3.707   8.834   1.756
 6248SOL    HW220584   3.605   8.739   1.698
 6249SOL     OW20585   2.829   0.631  10.386
 6249SOL    HW120586   2.892   0.699  10.363
 6249SOL    HW220587   2.873   0.549  10.362
 6250SOL     OW20588  13.463   7.728   6.757
 6250SOL    HW120589  13.529   7.761   6.696
 6250SOL    HW220590  13.451   7.636   6.731
 6251SOL     OW20591   5.313   0.712   2.174
 6251SOL    HW120592   5.336   0.721   2.082
 6251SOL    HW220593   5.277   0.624   2.182
 6252SOL     OW20594   5.892  10.733  11.401
 6252SOL    HW120595   5.831  10.805  11.390
 6252SOL    HW220596   5.947  10.735  11.323
 6253SOL     OW20597   7.145   4.046   1.578
 6253SOL    HW120598   7.124   4.026   1.669
 6253SOL    HW220599   7.092   4.123   1.558
 6254SOL     OW20600  14.712   5.305  11.078
 6254SOL    HW120601  14.638   5.350  11.037
 6254SOL    HW220602  14.764   5.375  11.117
 6255SOL     OW20603   3.452  11.822   3.603
 6255SOL    HW120604   3.436  11.844   3.512
 6255SOL    HW220605   3.544  11.846   3.618
 6256SOL     OW20606  13.157   4.182  12.682
 6256SOL    HW120607  13.176   4.172  12.776
 6256SOL    HW220608  13.229   4.235  12.648
 6257SOL     OW20609   4.405   2.499   4.719
 6257SOL    HW120610   4.477   2.507   4.782
 6257SOL    HW220611   4.426   2.419   4.670
 6258SOL     OW20612   3.704   6.690   7.016
 6258SOL    HW120613   3.766   6.678   6.945
 6258SOL    HW220614   3.733   6.629   7.084
 6259SOL     OW20615   0.288   7.021   6.333
 6259SOL    HW120616   0.331   7.014   6.248
 6259SOL    HW220617   0.302   7.113   6.359
 6260SOL     OW20618  10.632  12.866   5.970
 6260SOL    HW120619  10.556  12.883   5.914
 6260SOL    HW220620  10.692  12.816   5.915
 6261SOL     OW20621   7.460   3.798   8.349
 6261SOL    HW120622   7.404   3.743   8.404
 6261SOL    HW220623   7.448   3.886   8.385
 6262SOL     OW20624  11.607  12.388   9.089
 6262SOL    HW120625  11.679  12.328   9.070
 6262SOL    HW220626  11.647  12.474   9.091
 6263SOL     OW20627  14.812  10.565   6.952
 6263SOL    HW120628  14.726  10.545   6.914
 6263SOL    HW220629  14.793  10.629   7.021
 6264SOL     OW20630   5.856   4.654  11.415
 6264SOL    HW120631   5.841   4.562  11.439
 6264SOL    HW220632   5.937   4.652  11.364
 6265SOL     OW20633   1.096   8.188  13.914
 6265SOL    HW120634   1.083   8.119  13.849
 6265SOL    HW220635   1.128   8.263  13.864
 6266SOL     OW20636  11.848   0.259  14.588
 6266SOL    HW120637  11.833   0.165  14.577
 6266SOL    HW220638  11.767   0.300  14.555
 6267SOL     OW20639  12.671  12.281  14.350
 6267SOL    HW120640  12.699  12.363  14.311
 6267SOL    HW220641  12.744  12.221  14.334
 6268SOL     OW20642  12.000   5.731   8.176
 6268SOL    HW120643  11.994   5.682   8.259
 6268SOL    HW220644  11.909   5.749   8.152
 6269SOL     OW20645  13.556  10.706   4.390
 6269SOL    HW120646  13.473  10.753   4.400
 6269SOL    HW220647  13.586  10.728   4.302
 6270SOL     OW20648   7.766   7.486   8.225
 6270SOL    HW120649   7.801   7.514   8.140
 6270SOL    HW220650   7.751   7.392   8.215
 6271SOL     OW20651   6.471   0.636   5.420
 6271SOL    HW120652   6.539   0.702   5.421
 6271SOL    HW220653   6.407   0.667   5.356
 6272SOL     OW20654   5.116   2.364   1.404
 6272SOL    HW120655   5.082   2.277   1.422
 6272SOL    HW220656   5.101   2.378   1.310
 6273SOL     OW20657  11.382   9.849  12.109
 6273SOL    HW120658  11.442   9.924  12.106
 6273SOL    HW220659  11.343   9.845  12.022
 6274SOL     OW20660   1.586   8.950  10.770
 6274SOL    HW120661   1.568   8.860  10.742
 6274SOL    HW220662   1.680   8.961  10.757
 6275SOL     OW20663   4.650   7.984   4.738
 6275SOL    HW120664   4.722   7.942   4.785
 6275SOL    HW220665   4.593   8.019   4.806
 6276SOL     OW20666   4.377   4.295  11.200
 6276SOL    HW120667   4.336   4.256  11.123
 6276SOL    HW220668   4.304   4.314  11.259
 6277SOL     OW20669  14.418  14.746   5.477
 6277SOL    HW120670  14.433  14.725   5.384
 6277SOL    HW220671  14.489  14.701   5.523
 6278SOL     OW20672  10.715   3.778   8.352
 6278SOL    HW120673  10.767   3.856   8.334
 6278SOL    HW220674  10.726   3.764   8.446
 6279SOL     OW20675   9.072   2.366  13.955
 6279SOL    HW120676   9.019   2.437  13.921
 6279SOL    HW220677   9.130   2.342  13.883
 6280SOL     OW20678  11.017   7.963   2.795
 6280SOL    HW120679  11.104   7.962   2.834
 6280SOL    HW220680  10.966   7.904   2.850
 6281SOL     OW20681   1.013   5.903   1.833
 6281SOL    HW120682   0.990   5.843   1.761
 6281SOL    HW220683   1.093   5.946   1.803
 6282SOL     OW20684  14.217   2.229   9.998
 6282SOL    HW120685  14.255   2.146   9.970
 6282SOL    HW220686  14.268   2.255  10.075
 6283SOL     OW20687  11.983   8.371   8.956
 6283SOL    HW120688  11.920   8.410   8.896
 6283SOL    HW220689  12.037   8.445   8.986
 6284SOL     OW20690   7.892  12.618   5.051
 6284SOL    HW120691   7.929  12.665   4.976
 6284SOL    HW220692   7.831  12.555   5.012
 6285SOL     OW20693  14.857   5.512  11.155
 6285SOL    HW120694   0.046   5.530  11.085
 6285SOL    HW220695  14.816   5.597  11.172
 6286SOL     OW20696  14.044  14.506   2.347
 6286SOL    HW120697  14.081  14.456   2.275
 6286SOL    HW220698  14.050  14.448   2.423
 6287SOL     OW20699   8.344  14.568   6.112
 6287SOL    HW120700   8.379  14.496   6.164
 6287SOL    HW220701   8.420  14.605   6.068
 6288SOL     OW20702   7.587   6.575  14.835
 6288SOL    HW120703   7.537   6.544  14.760
 6288SOL    HW220704   7.536   6.650  14.868
 6289SOL     OW20705  14.311   9.306   6.430
 6289SOL    HW120706  14.394   9.258   6.431
 6289SOL    HW220707  14.244   9.238   6.432
 6290SOL     OW20708  14.382   2.340   5.216
 6290SOL    HW120709  14.293   2.304   5.221
 6290SOL    HW220710  14.371   2.434   5.231
 6291SOL     OW20711   9.700   8.386  12.170
 6291SOL    HW120712   9.726   8.469  12.130
 6291SOL    HW220713   9.604   8.386  12.168
 6292SOL     OW20714   8.713   9.238   3.697
 6292SOL    HW120715   8.759   9.243   3.781
 6292SOL    HW220716   8.695   9.145   3.685
 6293SOL     OW20717   6.330   3.418   6.672
 6293SOL    HW120718   6.334   3.418   6.768
 6293SOL    HW220719   6.410   3.462   6.644
 6294SOL     OW20720   1.100   4.056  11.782
 6294SOL    HW120721   1.189   4.091  11.787
 6294SOL    HW220722   1.105   3.988  11.715
 6295SOL     OW20723   2.721  12.894  12.324
 6295SOL    HW120724   2.731  12.945  12.404
 6295SOL    HW220725   2.633  12.916  12.292
 6296SOL     OW20726  13.573  13.679   8.625
 6296SOL    HW120727  13.660  13.648   8.600
 6296SOL    HW220728  13.589  13.755   8.682
 6297SOL     OW20729  13.223   8.824   8.785
 6297SOL    HW120730  13.253   8.804   8.696
 6297SOL    HW220731  13.270   8.904   8.809
 6298SOL     OW20732   5.261   0.690   6.531
 6298SOL    HW120733   5.265   0.746   6.609
 6298SOL    HW220734   5.349   0.653   6.524
 6299SOL     OW20735   7.474   4.977   3.084
 6299SOL    HW120736   7.388   4.946   3.113
 6299SOL    HW220737   7.492   5.053   3.140
 6300SOL     OW20738   6.704   2.758   0.016
 6300SOL    HW120739   6.636   2.746   0.083
 6300SOL    HW220740   6.668   2.718  14.811
 6301SOL     OW20741  12.064  10.887  13.680
 6301SOL    HW120742  12.023  10.808  13.715
 6301SOL    HW220743  12.019  10.903  13.597
 6302SOL     OW20744  10.247  11.176  12.893
 6302SOL    HW120745  10.311  11.163  12.823
 6302SOL    HW220746  10.168  11.131  12.863
 6303SOL     OW20747  14.398  13.830  11.601
 6303SOL    HW120748  14.478  13.881  11.612
 6303SOL    HW220749  14.399  13.801  11.510
 6304SOL     OW20750   0.031   2.909  11.431
 6304SOL    HW120751   0.002   2.831  11.478
 6304SOL    HW220752   0.047   2.880  11.342
 6305SOL     OW20753   7.015   3.306  14.056
 6305SOL    HW120754   6.970   3.269  14.133
 6305SOL    HW220755   7.042   3.229  14.006
 6306SOL     OW20756   2.264  10.572   8.214
 6306SOL    HW120757   2.242  10.634   8.284
 6306SOL    HW220758   2.275  10.628   8.136
 6307SOL     OW20759  14.604  11.468  11.728
 6307SOL    HW120760  14.695  11.461  11.700
 6307SOL    HW220761  14.604  11.438  11.819
 6308SOL     OW20762   7.463   2.809   9.344
 6308SOL    HW120763   7.400   2.869   9.386
 6308SOL    HW220764   7.524   2.786   9.415
 6309SOL     OW20765   2.047   9.329  11.002
 6309SOL    HW120766   2.139   9.335  11.027
 6309SOL    HW220767   2.033   9.404  10.944
 6310SOL     OW20768   8.059  14.487   9.269
 6310SOL    HW120769   7.998  14.426   9.310
 6310SOL    HW220770   8.003  14.550   9.223
 6311SOL     OW20771   8.805   5.399   3.515
 6311SOL    HW120772   8.818   5.311   3.479
 6311SOL    HW220773   8.892   5.425   3.545
 6312SOL     OW20774  13.585  11.396  13.624
 6312SOL    HW120775  13.620  11.436  13.544
 6312SOL    HW220776  13.663  11.365  13.670
 6313SOL     OW20777  10.875   1.110   5.559
 6313SOL    HW120778  10.849   1.192   5.518
 6313SOL    HW220779  10.966   1.097   5.531
 6314SOL     OW20780  12.770   3.257  12.554
 6314SOL    HW120781  12.739   3.332  12.605
 6314SOL    HW220782  12.699   3.237  12.494
 6315SOL     OW20783   7.609   6.159   1.137
 6315SOL    HW120784   7.552   6.087   1.109
 6315SOL    HW220785   7.693   6.116   1.156
 6316SOL     OW20786  12.445  10.333  10.644
 6316SOL    HW120787  12.390  10.387  10.587
 6316SOL    HW220788  12.532  10.336  10.604
 6317SOL     OW20789  14.392   8.023   7.478
 6317SOL    HW120790  14.362   8.113   7.466
 6317SOL    HW220791  14.438   8.002   7.396
 6318SOL     OW20792  13.750  14.380   1.797
 6318SOL    HW120793  13.809  14.309   1.774
 6318SOL    HW220794  13.698  14.395   1.718
 6319SOL     OW20795   6.794   7.709   2.188
 6319SOL    HW120796   6.884   7.728   2.213
 6319SOL    HW220797   6.801   7.671   2.100
 6320SOL     OW20798  11.142  14.624   2.681
 6320SOL    HW120799  11.179  14.537   2.694
 6320SOL    HW220800  11.050  14.608   2.659
 6321SOL     OW20801   2.696  12.461   6.149
 6321SOL    HW120802   2.664  12.372   6.133
 6321SOL    HW220803   2.654  12.488   6.231
 6322SOL     OW20804   5.509  12.585   4.414
 6322SOL    HW120805   5.562  12.510   4.386
 6322SOL    HW220806   5.419  12.555   4.404
 6323SOL     OW20807   7.185   8.470   3.555
 6323SOL    HW120808   7.139   8.551   3.574
 6323SOL    HW220809   7.219   8.482   3.466
 6324SOL     OW20810   9.799   4.648   7.126
 6324SOL    HW120811   9.720   4.702   7.130
 6324SOL    HW220812   9.792   4.589   7.201
 6325SOL     OW20813   6.873  11.737  10.102
 6325SOL    HW120814   6.953  11.741  10.154
 6325SOL    HW220815   6.821  11.811  10.133
 6326SOL     OW20816   7.447   0.968   8.923
 6326SOL    HW120817   7.463   0.903   8.855
 6326SOL    HW220818   7.532   1.010   8.938
 6327SOL     OW20819   5.457   8.575   1.109
 6327SOL    HW120820   5.549   8.570   1.135
 6327SOL    HW220821   5.409   8.547   1.187
 6328SOL     OW20822  12.470   4.976   4.224
 6328SOL    HW120823  12.490   5.070   4.223
 6328SOL    HW220824  12.471   4.953   4.317
 6329SOL     OW20825   6.470  13.611   7.981
 6329SOL    HW120826   6.520  13.624   8.062
 6329SOL    HW220827   6.480  13.518   7.961
 6330SOL     OW20828   5.922  11.628   0.018
 6330SOL    HW120829   5.876  11.703   0.055
 6330SOL    HW220830   5.993  11.610   0.079
 6331SOL     OW20831  13.731   9.211  10.865
 6331SOL    HW120832  13.826   9.195  10.868
 6331SOL    HW220833  13.715   9.244  10.777
 6332SOL     OW20834  14.824   9.490   0.945
 6332SOL    HW120835  14.824   9.395   0.929
 6332SOL    HW220836   0.042   9.516   0.934
 6333SOL     OW20837  13.889   9.946   1.899
 6333SOL    HW120838  13.794   9.957   1.892
 6333SOL    HW220839  13.902   9.898   1.981
 6334SOL     OW20840  12.543  13.436   9.576
 6334SOL    HW120841  12.577  13.373   9.513
 6334SOL    HW220842  12.467  13.476   9.532
 6335SOL     OW20843   7.472   6.869  14.232
 6335SOL    HW120844   7.398   6.929  14.238
 6335SOL    HW220845   7.515   6.874  14.318
 6336SOL     OW20846   4.139   9.887   1.227
 6336SOL    HW120847   4.171   9.902   1.138
 6336SOL    HW220848   4.045   9.872   1.216
 6337SOL     OW20849   0.404   8.100   3.633
 6337SOL    HW120850   0.338   8.169   3.639
 6337SOL    HW220851   0.394   8.051   3.715
 6338SOL     OW20852   5.699   2.414   9.315
 6338SOL    HW120853   5.619   2.458   9.342
 6338SOL    HW220854   5.766   2.482   9.317
 6339SOL     OW20855  10.524  10.982   3.926
 6339SOL    HW120856  10.440  10.955   3.890
 6339SOL    HW220857  10.535  10.928   4.004
 6340SOL     OW20858   4.724   2.771  14.732
 6340SOL    HW120859   4.674   2.722  14.668
 6340SOL    HW220860   4.665   2.780  14.807
 6341SOL     OW20861  14.112  14.373   2.746
 6341SOL    HW120862  14.064  14.297   2.714
 6341SOL    HW220863  14.145  14.416   2.667
 6342SOL     OW20864   7.944   4.724  10.994
 6342SOL    HW120865   7.852   4.708  11.015
 6342SOL    HW220866   7.943   4.753  10.902
 6343SOL     OW20867   9.629  12.287   2.205
 6343SOL    HW120868   9.686  12.358   2.178
 6343SOL    HW220869   9.601  12.245   2.123
 6344SOL     OW20870   1.363   6.181   8.512
 6344SOL    HW120871   1.398   6.265   8.541
 6344SOL    HW220872   1.414   6.116   8.561
 6345SOL     OW20873  13.354   5.192  13.148
 6345SOL    HW120874  13.295   5.262  13.176
 6345SOL    HW220875  13.374   5.144  13.229
 6346SOL     OW20876  11.058   9.267   5.614
 6346SOL    HW120877  11.140   9.217   5.609
 6346SOL    HW220878  11.020   9.260   5.527
 6347SOL     OW20879  14.798   4.881   5.015
 6347SOL    HW120880  14.865   4.950   5.014
 6347SOL    HW220881  14.805   4.840   4.929
 6348SOL     OW20882  11.315  13.147  12.083
 6348SOL    HW120883  11.392  13.199  12.061
 6348SOL    HW220884  11.316  13.076  12.018
 6349SOL     OW20885  11.536   8.331   8.834
 6349SOL    HW120886  11.468   8.360   8.895
 6349SOL    HW220887  11.618   8.362   8.872
 6350SOL     OW20888  11.761   3.858   4.037
 6350SOL    HW120889  11.698   3.913   3.991
 6350SOL    HW220890  11.797   3.914   4.105
 6351SOL     OW20891   4.194  13.964  10.081
 6351SOL    HW120892   4.257  13.962  10.154
 6351SOL    HW220893   4.126  14.025  10.109
 6352SOL     OW20894  10.554   7.714   9.564
 6352SOL    HW120895  10.528   7.788   9.509
 6352SOL    HW220896  10.593   7.754   9.642
 6353SOL     OW20897   7.874   5.695   6.905
 6353SOL    HW120898   7.858   5.775   6.855
 6353SOL    HW220899   7.888   5.725   6.995
 6354SOL     OW20900   5.878   0.608  14.398
 6354SOL    HW120901   5.791   0.647  14.390
 6354SOL    HW220902   5.931   0.654  14.334
 6355SOL     OW20903  13.820  13.593   0.942
 6355SOL    HW120904  13.822  13.555   1.030
 6355SOL    HW220905  13.730  13.577   0.913
 6356SOL     OW20906   8.966   1.414   2.545
 6356SOL    HW120907   9.036   1.478   2.553
 6356SOL    HW220908   8.924   1.435   2.462
 6357SOL     OW20909   3.457   8.912  14.368
 6357SOL    HW120910   3.491   8.947  14.450
 6357SOL    HW220911   3.444   8.819  14.386
 6358SOL     OW20912  14.499  12.155  13.876
 6358SOL    HW120913  14.436  12.089  13.902
 6358SOL    HW220914  14.462  12.237  13.909
 6359SOL     OW20915   8.920   3.410  14.186
 6359SOL    HW120916   8.895   3.472  14.118
 6359SOL    HW220917   8.875   3.329  14.162
 6360SOL     OW20918  14.390   1.946   1.170
 6360SOL    HW120919  14.408   1.865   1.218
 6360SOL    HW220920  14.346   2.002   1.235
 6361SOL     OW20921   4.141   9.757   2.160
 6361SOL    HW120922   4.207   9.768   2.091
 6361SOL    HW220923   4.068   9.812   2.132
 6362SOL     OW20924   0.484   0.782   0.204
 6362SOL    HW120925   0.554   0.847   0.194
 6362SOL    HW220926   0.411   0.831   0.240
 6363SOL     OW20927   6.389   1.211   1.089
 6363SOL    HW120928   6.331   1.282   1.061
 6363SOL    HW220929   6.377   1.143   1.022
 6364SOL     OW20930  12.454  14.121   6.800
 6364SOL    HW120931  12.369  14.126   6.843
 6364SOL    HW220932  12.518  14.143   6.869
 6365SOL     OW20933   3.846   1.824   8.416
 6365SOL    HW120934   3.941   1.815   8.407
 6365SOL    HW220935   3.817   1.736   8.441
 6366SOL     OW20936   4.420   1.738   3.649
 6366SOL    HW120937   4.417   1.832   3.667
 6366SOL    HW220938   4.445   1.698   3.732
 6367SOL     OW20939   1.510   0.240  12.185
 6367SOL    HW120940   1.569   0.204  12.250
 6367SOL    HW220941   1.490   0.167  12.126
 6368SOL     OW20942  14.222   8.206   6.444
 6368SOL    HW120943  14.162   8.159   6.386
 6368SOL    HW220944  14.306   8.161   6.434
 6369SOL     OW20945   0.989   3.286   8.849
 6369SOL    HW120946   0.980   3.381   8.850
 6369SOL    HW220947   1.049   3.266   8.920
 6370SOL     OW20948  13.271  10.656   8.953
 6370SOL    HW120949  13.305  10.579   8.907
 6370SOL    HW220950  13.235  10.621   9.034
 6371SOL     OW20951   8.560   2.159  10.521
 6371SOL    HW120952   8.588   2.211  10.596
 6371SOL    HW220953   8.607   2.199  10.447
 6372SOL     OW20954  14.032   0.453   3.187
 6372SOL    HW120955  14.012   0.533   3.138
 6372SOL    HW220956  14.030   0.480   3.279
 6373SOL     OW20957   0.292   3.926   4.151
 6373SOL    HW120958   0.364   3.939   4.090
 6373SOL    HW220959   0.242   3.853   4.114
 6374SOL     OW20960   0.347   5.255   7.651
 6374SOL    HW120961   0.340   5.252   7.747
 6374SOL    HW220962   0.441   5.256   7.634
 6375SOL     OW20963   2.204   5.765   3.322
 6375SOL    HW120964   2.144   5.714   3.377
 6375SOL    HW220965   2.264   5.807   3.383
 6376SOL     OW20966   7.534   1.109   3.659
 6376SOL    HW120967   7.559   1.193   3.699
 6376SOL    HW220968   7.617   1.061   3.651
 6377SOL     OW20969  12.024  10.190   2.506
 6377SOL    HW120970  12.076  10.154   2.434
 6377SOL    HW220971  11.975  10.262   2.467
 6378SOL     OW20972  11.310  12.107   2.923
 6378SOL    HW120973  11.326  12.197   2.953
 6378SOL    HW220974  11.386  12.058   2.954
 6379SOL     OW20975  10.486   3.838  14.016
 6379SOL    HW120976  10.413   3.848  13.954
 6379SOL    HW220977  10.512   3.747  14.008
 6380SOL     OW20978   0.977   2.924   9.139
 6380SOL    HW120979   0.913   2.904   9.207
 6380SOL    HW220980   1.044   2.855   9.147
 6381SOL     OW20981   4.582  14.389  10.790
 6381SOL    HW120982   4.594  14.399  10.695
 6381SOL    HW220983   4.522  14.315  10.798
 6382SOL     OW20984   6.898  11.350   6.678
 6382SOL    HW120985   6.866  11.265   6.707
 6382SOL    HW220986   6.819  11.400   6.659
 6383SOL     OW20987   2.252   8.614  10.598
 6383SOL    HW120988   2.315   8.653  10.658
 6383SOL    HW220989   2.256   8.669  10.520
 6384SOL     OW20990   4.164  11.956   9.767
 6384SOL    HW120991   4.211  11.873   9.764
 6384SOL    HW220992   4.199  12.001   9.843
 6385SOL     OW20993  14.666  11.418  12.687
 6385SOL    HW120994  14.608  11.425  12.611
 6385SOL    HW220995  14.658  11.504  12.730
 6386SOL     OW20996  10.716   3.062   5.052
 6386SOL    HW120997  10.674   3.076   5.137
 6386SOL    HW220998  10.767   3.141   5.037
 6387SOL     OW20999   6.684   9.581   2.914
 6387SOL    HW121000   6.676   9.503   2.969
 6387SOL    HW221001   6.699   9.546   2.826
 6388SOL     OW21002   4.973   4.866   2.527
 6388SOL    HW121003   5.066   4.878   2.544
 6388SOL    HW221004   4.942   4.951   2.498
 6389SOL     OW21005  14.244   5.347   6.316
 6389SOL    HW121006  14.330   5.371   6.283
 6389SOL    HW221007  14.184   5.410   6.276
 6390SOL     OW21008   3.044  13.134   5.384
 6390SOL    HW121009   2.984  13.206   5.403
 6390SOL    HW221010   3.125  13.176   5.356
 6391SOL     OW21011   0.031   9.181   0.863
 6391SOL    HW121012   0.037   9.085   0.869
 6391SOL    HW221013   0.119   9.212   0.883
 6392SOL     OW21014   4.428   2.854   5.339
 6392SOL    HW121015   4.441   2.917   5.410
 6392SOL    HW221016   4.484   2.884   5.268
 6393SOL     OW21017   3.679   5.939  11.286
 6393SOL    HW121018   3.690   5.850  11.254
 6393SOL    HW221019   3.762   5.982  11.265
 6394SOL     OW21020   9.024   6.137  10.230
 6394SOL    HW121021   9.030   6.179  10.316
 6394SOL    HW221022   8.932   6.115  10.220
 6395SOL     OW21023   0.864   0.603   6.384
 6395SOL    HW121024   0.950   0.616   6.345
 6395SOL    HW221025   0.836   0.691   6.410
 6396SOL     OW21026   1.629   6.538  14.588
 6396SOL    HW121027   1.644   6.601  14.658
 6396SOL    HW221028   1.670   6.457  14.618
 6397SOL     OW21029   7.081   2.422  13.012
 6397SOL    HW121030   6.991   2.412  13.042
 6397SOL    HW221031   7.111   2.503  13.054
 6398SOL     OW21032   1.293   7.397   2.509
 6398SOL    HW121033   1.301   7.480   2.461
 6398SOL    HW221034   1.241   7.419   2.586
 6399SOL     OW21035  11.528   5.035   8.689
 6399SOL    HW121036  11.467   5.066   8.757
 6399SOL    HW221037  11.576   4.964   8.731
 6400SOL     OW21038  10.004  10.376   6.656
 6400SOL    HW121039  10.070  10.330   6.604
 6400SOL    HW221040   9.970  10.309   6.716
 6401SOL     OW21041  14.155   1.901   2.597
 6401SOL    HW121042  14.187   1.831   2.655
 6401SOL    HW221043  14.063   1.881   2.585
 6402SOL     OW21044   4.378   0.313   0.480
 6402SOL    HW121045   4.366   0.225   0.514
 6402SOL    HW221046   4.471   0.318   0.458
 6403SOL     OW21047   3.023   2.817   8.118
 6403SOL    HW121048   2.960   2.766   8.067
 6403SOL    HW221049   3.088   2.753   8.148
 6404SOL     OW21050   5.971  14.825   1.864
 6404SOL    HW121051   6.013   0.013   1.924
 6404SOL    HW221052   5.882  14.857   1.855
 6405SOL     OW21053  13.911  11.068   8.649
 6405SOL    HW121054  13.816  11.074   8.663
 6405SOL    HW221055  13.921  11.002   8.580
 6406SOL     OW21056  10.874  12.928   5.215
 6406SOL    HW121057  10.789  12.885   5.202
 6406SOL    HW221058  10.854  13.004   5.268
 6407SOL     OW21059  12.087   6.896   2.464
 6407SOL    HW121060  12.103   6.907   2.370
 6407SOL    HW221061  12.149   6.829   2.491
 6408SOL     OW21062   2.491   7.388   5.775
 6408SOL    HW121063   2.567   7.391   5.717
 6408SOL    HW221064   2.477   7.479   5.800
 6409SOL     OW21065   9.993   0.534   0.456
 6409SOL    HW121066   9.963   0.555   0.368
 6409SOL    HW221067   9.914   0.505   0.502
 6410SOL     OW21068  11.186   1.546  10.994
 6410SOL    HW121069  11.234   1.570  11.074
 6410SOL    HW221070  11.131   1.623  10.975
 6411SOL     OW21071   5.958   8.585   2.566
 6411SOL    HW121072   6.003   8.669   2.558
 6411SOL    HW221073   5.869   8.608   2.591
 6412SOL     OW21074   6.999   1.622   9.686
 6412SOL    HW121075   6.932   1.614   9.618
 6412SOL    HW221076   7.030   1.533   9.700
 6413SOL     OW21077   2.421   2.775  11.379
 6413SOL    HW121078   2.331   2.746  11.367
 6413SOL    HW221079   2.445   2.814  11.295
 6414SOL     OW21080   2.576   0.022  14.568
 6414SOL    HW121081   2.520   0.086  14.610
 6414SOL    HW221082   2.618  14.849  14.641
 6415SOL     OW21083   6.829   4.138   4.767
 6415SOL    HW121084   6.805   4.046   4.779
 6415SOL    HW221085   6.837   4.172   4.856
 6416SOL     OW21086   3.767   9.815   7.527
 6416SOL    HW121087   3.684   9.855   7.503
 6416SOL    HW221088   3.755   9.786   7.617
 6417SOL     OW21089   1.474  11.923   6.268
 6417SOL    HW121090   1.544  11.905   6.332
 6417SOL    HW221091   1.497  12.008   6.231
 6418SOL     OW21092  12.420  13.253   4.232
 6418SOL    HW121093  12.489  13.250   4.298
 6418SOL    HW221094  12.463  13.222   4.152
 6419SOL     OW21095   3.480   5.428   8.866
 6419SOL    HW121096   3.504   5.345   8.826
 6419SOL    HW221097   3.459   5.406   8.956
 6420SOL     OW21098   3.264   2.854   0.757
 6420SOL    HW121099   3.301   2.834   0.672
 6420SOL    HW221100   3.270   2.950   0.764
 6421SOL     OW21101   8.219   7.387  14.781
 6421SOL    HW121102   8.252   7.303  14.747
 6421SOL    HW221103   8.229   7.448  14.708
 6422SOL     OW21104   7.960  13.621  13.698
 6422SOL    HW121105   7.965  13.527  13.683
 6422SOL    HW221106   7.999  13.634  13.785
 6423SOL     OW21107  12.850  14.750   0.704
 6423SOL    HW121108  12.870  14.665   0.665
 6423SOL    HW221109  12.869  14.814   0.635
 6424SOL     OW21110  13.175  14.711   5.610
 6424SOL    HW121111  13.266  14.733   5.589
 6424SOL    HW221112  13.181  14.662   5.692
 6425SOL     OW21113   3.298  13.740   7.076
 6425SOL    HW121114   3.343  13.682   7.138
 6425SOL    HW221115   3.229  13.685   7.038
 6426SOL     OW21116   9.134  10.396   6.542
 6426SOL    HW121117   9.228  10.385   6.556
 6426SOL    HW221118   9.097  10.309   6.553
 6427SOL     OW21119   9.956  10.108   5.814
 6427SOL    HW121120  10.052  10.114   5.806
 6427SOL    HW221121   9.932  10.184   5.867
 6428SOL     OW21122  11.082  13.902  13.439
 6428SOL    HW121123  11.121  13.825  13.399
 6428SOL    HW221124  11.157  13.958  13.462
 6429SOL     OW21125   2.396  14.225   2.573
 6429SOL    HW121126   2.399  14.158   2.641
 6429SOL    HW221127   2.484  14.262   2.572
 6430SOL     OW21128  11.450  12.078   3.940
 6430SOL    HW121129  11.387  12.046   3.876
 6430SOL    HW221130  11.535  12.063   3.899
 6431SOL     OW21131   3.705   0.675  11.947
 6431SOL    HW121132   3.791   0.634  11.956
 6431SOL    HW221133   3.708   0.750  12.006
 6432SOL     OW21134   1.290  14.318   7.854
 6432SOL    HW121135   1.279  14.405   7.817
 6432SOL    HW221136   1.375  14.320   7.898
 6433SOL     OW21137   0.403  14.785  13.377
 6433SOL    HW121138   0.341  14.849  13.343
 6433SOL    HW221139   0.458  14.763  13.302
 6434SOL     OW21140   4.186  10.832   6.673
 6434SOL    HW121141   4.161  10.757   6.618
 6434SOL    HW221142   4.191  10.905   6.612
 6435SOL     OW21143   9.908   3.110   7.136
 6435SOL    HW121144   9.837   3.147   7.189
 6435SOL    HW221145   9.896   3.016   7.143
 6436SOL     OW21146   1.919  12.735   0.496
 6436SOL    HW121147   1.936  12.785   0.576
 6436SOL    HW221148   1.824  12.737   0.486
 6437SOL     OW21149   8.316  11.997   9.263
 6437SOL    HW121150   8.367  11.919   9.286
 6437SOL    HW221151   8.354  12.027   9.180
 6438SOL     OW21152   9.254   6.426   8.978
 6438SOL    HW121153   9.201   6.505   8.983
 6438SOL    HW221154   9.344   6.458   8.972
 6439SOL     OW21155   0.925   6.103   7.147
 6439SOL    HW121156   0.930   6.198   7.132
 6439SOL    HW221157   0.972   6.065   7.073
 6440SOL     OW21158  10.274  12.918   5.486
 6440SOL    HW121159  10.259  12.824   5.478
 6440SOL    HW221160  10.364  12.931   5.455
 6441SOL     OW21161   5.701  10.594   6.236
 6441SOL    HW121162   5.675  10.505   6.212
 6441SOL    HW221163   5.740  10.629   6.156
 6442SOL     OW21164  12.084   3.417  11.693
 6442SOL    HW121165  12.050   3.328  11.685
 6442SOL    HW221166  12.106   3.427  11.785
 6443SOL     OW21167  10.362   5.826   8.192
 6443SOL    HW121168  10.405   5.908   8.214
 6443SOL    HW221169  10.326   5.840   8.105
 6444SOL     OW21170   8.768   2.032   5.189
 6444SOL    HW121171   8.710   2.064   5.120
 6444SOL    HW221172   8.856   2.059   5.161
 6445SOL     OW21173  13.778  13.359   4.969
 6445SOL    HW121174  13.817  13.433   4.923
 6445SOL    HW221175  13.739  13.396   5.048
 6446SOL     OW21176  14.166   6.895   8.585
 6446SOL    HW121177  14.248   6.847   8.596
 6446SOL    HW221178  14.186   6.984   8.613
 6447SOL     OW21179   7.668  14.346   0.103
 6447SOL    HW121180   7.670  14.301   0.187
 6447SOL    HW221181   7.582  14.386   0.099
 6448SOL     OW21182  13.719   7.688  14.084
 6448SOL    HW121183  13.806   7.669  14.050
 6448SOL    HW221184  13.667   7.713  14.008
 6449SOL     OW21185   0.998  12.563   8.951
 6449SOL    HW121186   0.952  12.633   8.999
 6449SOL    HW221187   1.054  12.522   9.016
 6450SOL     OW21188   6.417   1.809   5.445
 6450SOL    HW121189   6.451   1.845   5.363
 6450SOL    HW221190   6.378   1.725   5.420
 6451SOL     OW21191  11.437   2.285   3.856
 6451SOL    HW121192  11.479   2.214   3.904
 6451SOL    HW221193  11.406   2.346   3.923
 6452SOL     OW21194   4.753  12.379   0.210
 6452SOL    HW121195   4.711  12.433   0.277
 6452SOL    HW221196   4.684  12.320   0.180
 6453SOL     OW21197  13.820  13.997  13.264
 6453SOL    HW121198  13.742  13.954  13.227
 6453SOL    HW221199  13.805  13.996  13.358
 6454SOL     OW21200   8.695   9.527  14.534
 6454SOL    HW121201   8.780   9.524  14.578
 6454SOL    HW221202   8.642   9.585  14.588
 6455SOL     OW21203  12.457  14.543   2.798
 6455SOL    HW121204  12.421  14.454   2.794
 6455SOL    HW221205  12.494  14.558   2.711
 6456SOL     OW21206   9.844   8.515   9.830
 6456SOL    HW121207   9.891   8.597   9.812
 6456SOL    HW221208   9.826   8.518   9.923
 6457SOL     OW21209  14.534  11.647   6.109
 6457SOL    HW121210  14.576  11.570   6.070
 6457SOL    HW221211  14.440  11.630   6.101
 6458SOL     OW21212   8.547   4.488   8.902
 6458SOL    HW121213   8.578   4.433   8.974
 6458SOL    HW221214   8.453   4.498   8.917
 6459SOL     OW21215   9.828   2.368   3.604
 6459SOL    HW121216   9.808   2.277   3.581
 6459SOL    HW221217   9.901   2.362   3.665
 6460SOL     OW21218   1.083   5.625   5.785
 6460SOL    HW121219   1.086   5.538   5.825
 6460SOL    HW221220   1.012   5.670   5.830
 6461SOL     OW21221   6.025   5.464  12.274
 6461SOL    HW121222   6.053   5.391  12.220
 6461SOL    HW221223   6.014   5.426  12.362
 6462SOL     OW21224  13.076   0.513   3.343
 6462SOL    HW121225  13.008   0.579   3.354
 6462SOL    HW221226  13.158   0.562   3.346
 6463SOL     OW21227  13.146   4.135   2.737
 6463SOL    HW121228  13.174   4.044   2.735
 6463SOL    HW221229  13.051   4.131   2.734
 6464SOL     OW21230   8.754   7.065  13.699
 6464SOL    HW121231   8.828   7.076  13.758
 6464SOL    HW221232   8.681   7.109  13.743
 6465SOL     OW21233   0.978   8.216   6.265
 6465SOL    HW121234   0.954   8.297   6.309
 6465SOL    HW221235   1.074   8.218   6.261
 6466SOL     OW21236   7.618   6.558   4.048
 6466SOL    HW121237   7.693   6.560   3.989
 6466SOL    HW221238   7.639   6.491   4.113
 6467SOL     OW21239   8.121  12.977   3.365
 6467SOL    HW121240   8.163  12.892   3.376
 6467SOL    HW221241   8.087  12.976   3.275
 6468SOL     OW21242   2.685   8.128  13.409
 6468SOL    HW121243   2.734   8.141  13.490
 6468SOL    HW221244   2.655   8.215  13.385
 6469SOL     OW21245  10.379   7.264  13.653
 6469SOL    HW121246  10.413   7.175  13.661
 6469SOL    HW221247  10.286   7.253  13.633
 6470SOL     OW21248   6.834  13.119   1.425
 6470SOL    HW121249   6.892  13.122   1.501
 6470SOL    HW221250   6.881  13.067   1.360
 6471SOL     OW21251   2.356   3.701  10.055
 6471SOL    HW121252   2.375   3.608  10.063
 6471SOL    HW221253   2.302   3.721  10.132
 6472SOL     OW21254   8.705   9.992   8.312
 6472SOL    HW121255   8.793   9.974   8.344
 6472SOL    HW221256   8.655  10.014   8.391
 6473SOL     OW21257   0.829   3.950   4.316
 6473SOL    HW121258   0.752   3.990   4.276
 6473SOL    HW221259   0.904   3.991   4.272
 6474SOL     OW21260  14.358   9.353   5.492
 6474SOL    HW121261  14.339   9.434   5.540
 6474SOL    HW221262  14.314   9.364   5.408
 6475SOL     OW21263   7.101   7.624  11.249
 6475SOL    HW121264   7.017   7.593  11.282
 6475SOL    HW221265   7.092   7.719  11.245
 6476SOL     OW21266  13.966  12.660   6.049
 6476SOL    HW121267  13.896  12.620   6.100
 6476SOL    HW221268  13.922  12.699   5.974
 6477SOL     OW21269   8.091   2.189   9.605
 6477SOL    HW121270   7.996   2.185   9.598
 6477SOL    HW221271   8.123   2.146   9.526
 6478SOL     OW21272   7.628   1.625  10.931
 6478SOL    HW121273   7.713   1.634  10.888
 6478SOL    HW221274   7.649   1.601  11.021
 6479SOL     OW21275   0.450   2.385  10.844
 6479SOL    HW121276   0.371   2.413  10.798
 6479SOL    HW221277   0.427   2.389  10.936
 6480SOL     OW21278   0.944   1.426   4.123
 6480SOL    HW121279   0.894   1.359   4.170
 6480SOL    HW221280   0.877   1.478   4.078
 6481SOL     OW21281   2.463   1.941   7.623
 6481SOL    HW121282   2.553   1.962   7.648
 6481SOL    HW221283   2.463   1.942   7.527
 6482SOL     OW21284   8.109   8.092   3.410
 6482SOL    HW121285   8.019   8.083   3.378
 6482SOL    HW221286   8.163   8.091   3.330
 6483SOL     OW21287  12.386   0.338   0.894
 6483SOL    HW121288  12.451   0.382   0.949
 6483SOL    HW221289  12.438   0.276   0.842
 6484SOL     OW21290   2.542   7.072   7.865
 6484SOL    HW121291   2.473   7.134   7.887
 6484SOL    HW221292   2.589   7.114   7.792
 6485SOL     OW21293  13.267   7.927   2.482
 6485SOL    HW121294  13.217   7.876   2.547
 6485SOL    HW221295  13.345   7.956   2.529
 6486SOL     OW21296  13.324   4.062   2.327
 6486SOL    HW121297  13.415   4.043   2.348
 6486SOL    HW221298  13.281   3.977   2.322
 6487SOL     OW21299   9.885   5.288   6.199
 6487SOL    HW121300   9.901   5.243   6.115
 6487SOL    HW221301   9.838   5.224   6.251
 6488SOL     OW21302  11.207   9.163   1.749
 6488SOL    HW121303  11.137   9.173   1.814
 6488SOL    HW221304  11.269   9.232   1.771
 6489SOL     OW21305   2.765  10.602  11.320
 6489SOL    HW121306   2.745  10.637  11.407
 6489SOL    HW221307   2.700  10.643  11.262
 6490SOL     OW21308   1.399   6.680  12.992
 6490SOL    HW121309   1.433   6.645  13.075
 6490SOL    HW221310   1.428   6.618  12.926
 6491SOL     OW21311   7.763   5.176   9.300
 6491SOL    HW121312   7.725   5.263   9.311
 6491SOL    HW221313   7.858   5.191   9.303
 6492SOL     OW21314   5.018   8.567   9.888
 6492SOL    HW121315   5.068   8.541   9.965
 6492SOL    HW221316   4.969   8.488   9.863
 6493SOL     OW21317   2.552   2.723  14.708
 6493SOL    HW121318   2.524   2.665  14.637
 6493SOL    HW221319   2.639   2.753  14.681
 6494SOL     OW21320   6.265   2.992  13.552
 6494SOL    HW121321   6.215   3.043  13.488
 6494SOL    HW221322   6.211   2.994  13.631
 6495SOL     OW21323   1.074  14.628  13.435
 6495SOL    HW121324   1.022  14.688  13.488
 6495SOL    HW221325   1.068  14.544  13.481
 6496SOL     OW21326   0.004   9.366  12.614
 6496SOL    HW121327  14.783   9.376  12.609
 6496SOL    HW221328   0.038   9.424  12.547
 6497SOL     OW21329  14.388   9.332   0.538
 6497SOL    HW121330  14.354   9.393   0.472
 6497SOL    HW221331  14.430   9.389   0.603
 6498SOL     OW21332   0.316   0.197   0.737
 6498SOL    HW121333   0.260   0.272   0.719
 6498SOL    HW221334   0.355   0.175   0.652
 6499SOL     OW21335   8.608   6.193   4.466
 6499SOL    HW121336   8.598   6.286   4.445
 6499SOL    HW221337   8.672   6.191   4.537
 6500SOL     OW21338   8.450   5.017   0.700
 6500SOL    HW121339   8.506   5.081   0.743
 6500SOL    HW221340   8.493   4.933   0.717
 6501SOL     OW21341  12.153   9.784   5.716
 6501SOL    HW121342  12.173   9.866   5.761
 6501SOL    HW221343  12.059   9.789   5.698
 6502SOL     OW21344  12.480   7.020   6.349
 6502SOL    HW121345  12.531   7.091   6.388
 6502SOL    HW221346  12.457   7.053   6.262
 6503SOL     OW21347   0.150   4.742   1.506
 6503SOL    HW121348   0.091   4.710   1.573
 6503SOL    HW221349   0.153   4.672   1.440
 6504SOL     OW21350  10.999   2.950   2.484
 6504SOL    HW121351  11.084   2.947   2.527
 6504SOL    HW221352  10.965   2.860   2.491
 6505SOL     OW21353  14.246   7.106   8.292
 6505SOL    HW121354  14.295   7.094   8.210
 6505SOL    HW221355  14.254   7.022   8.337
 6506SOL     OW21356   5.928   6.447  10.740
 6506SOL    HW121357   5.875   6.527  10.749
 6506SOL    HW221358   5.918   6.422  10.648
 6507SOL     OW21359  10.523   2.239   7.436
 6507SOL    HW121360  10.463   2.310   7.413
 6507SOL    HW221361  10.484   2.161   7.397
 6508SOL     OW21362   7.616   0.735   9.248
 6508SOL    HW121363   7.661   0.651   9.250
 6508SOL    HW221364   7.686   0.800   9.260
 6509SOL     OW21365   9.687   7.588   6.203
 6509SOL    HW121366   9.655   7.628   6.122
 6509SOL    HW221367   9.608   7.560   6.249
 6510SOL     OW21368   6.659   2.359  11.450
 6510SOL    HW121369   6.729   2.294  11.443
 6510SOL    HW221370   6.612   2.353  11.367
 6511SOL     OW21371   9.687   5.064  10.897
 6511SOL    HW121372   9.775   5.099  10.907
 6511SOL    HW221373   9.691   5.013  10.815
 6512SOL     OW21374   5.147  12.537   2.949
 6512SOL    HW121375   5.054  12.528   2.972
 6512SOL    HW221376   5.173  12.620   2.988
 6513SOL     OW21377   3.190  11.090   0.409
 6513SOL    HW121378   3.183  11.119   0.500
 6513SOL    HW221379   3.137  11.011   0.405
 6514SOL     OW21380   3.167  12.000   6.060
 6514SOL    HW121381   3.248  12.003   6.111
 6514SOL    HW221382   3.132  12.089   6.065
 6515SOL     OW21383   6.679   5.382  12.541
 6515SOL    HW121384   6.602   5.416  12.496
 6515SOL    HW221385   6.724   5.459  12.575
 6516SOL     OW21386   2.351   2.977   6.128
 6516SOL    HW121387   2.323   2.980   6.036
 6516SOL    HW221388   2.432   2.925   6.126
 6517SOL     OW21389  12.748   3.672  13.073
 6517SOL    HW121390  12.843   3.661  13.077
 6517SOL    HW221391  12.715   3.587  13.044
 6518SOL     OW21392   5.711  14.256   3.383
 6518SOL    HW121393   5.754  14.342   3.384
 6518SOL    HW221394   5.741  14.216   3.301
 6519SOL     OW21395   7.694   3.349   5.144
 6519SOL    HW121396   7.678   3.369   5.051
 6519SOL    HW221397   7.608   3.326   5.179
 6520SOL     OW21398   7.878  14.851   1.420
 6520SOL    HW121399   7.922  14.815   1.343
 6520SOL    HW221400   7.946   0.029   1.463
 6521SOL     OW21401   1.309   5.667   0.289
 6521SOL    HW121402   1.283   5.584   0.329
 6521SOL    HW221403   1.332   5.723   0.363
 6522SOL     OW21404   5.919  12.590   7.740
 6522SOL    HW121405   5.909  12.516   7.680
 6522SOL    HW221406   5.934  12.665   7.682
 6523SOL     OW21407   4.944   6.593   1.195
 6523SOL    HW121408   4.879   6.628   1.256
 6523SOL    HW221409   4.989   6.526   1.245
 6524SOL     OW21410   9.402  10.253   8.590
 6524SOL    HW121411   9.377  10.319   8.526
 6524SOL    HW221412   9.344  10.179   8.571
 6525SOL     OW21413   8.945   3.793  10.889
 6525SOL    HW121414   8.918   3.885  10.888
 6525SOL    HW221415   8.926   3.762  10.800
 6526SOL     OW21416   9.852   8.285   7.313
 6526SOL    HW121417   9.792   8.334   7.257
 6526SOL    HW221418   9.929   8.342   7.322
 6527SOL     OW21419   8.836   8.716   1.685
 6527SOL    HW121420   8.845   8.647   1.750
 6527SOL    HW221421   8.904   8.780   1.707
 6528SOL     OW21422   6.231  14.591   5.814
 6528SOL    HW121423   6.225  14.515   5.757
 6528SOL    HW221424   6.325  14.612   5.816
 6529SOL     OW21425   6.261   3.366  14.726
 6529SOL    HW121426   6.306   3.383  14.809
 6529SOL    HW221427   6.209   3.445  14.711
 6530SOL     OW21428   0.568   7.597   1.128
 6530SOL    HW121429   0.597   7.530   1.190
 6530SOL    HW221430   0.634   7.666   1.133
 6531SOL     OW21431   5.492   5.048  10.804
 6531SOL    HW121432   5.541   5.069  10.724
 6531SOL    HW221433   5.517   5.117  10.866
 6532SOL     OW21434  14.676  11.426   6.022
 6532SOL    HW121435  14.662  11.345   5.974
 6532SOL    HW221436  14.766  11.451   6.000
 6533SOL     OW21437  14.428   5.190  10.975
 6533SOL    HW121438  14.434   5.285  10.969
 6533SOL    HW221439  14.483   5.166  11.049
 6534SOL     OW21440   7.557  14.679   5.679
 6534SOL    HW121441   7.576  14.743   5.748
 6534SOL    HW221442   7.629  14.616   5.684
 6535SOL     OW21443   9.505  11.212   6.751
 6535SOL    HW121444   9.504  11.207   6.656
 6535SOL    HW221445   9.487  11.122   6.780
 6536SOL     OW21446  10.059  14.750   4.779
 6536SOL    HW121447  10.142  14.730   4.823
 6536SOL    HW221448  10.063  14.844   4.762
 6537SOL     OW21449  12.422  10.878  12.879
 6537SOL    HW121450  12.467  10.950  12.921
 6537SOL    HW221451  12.446  10.801  12.931
 6538SOL     OW21452   9.315   2.588  12.692
 6538SOL    HW121453   9.327   2.652  12.623
 6538SOL    HW221454   9.369   2.620  12.765
 6539SOL     OW21455   5.137  13.476   7.512
 6539SOL    HW121456   5.230  13.491   7.527
 6539SOL    HW221457   5.094  13.558   7.538
 6540SOL     OW21458  11.865   2.583  12.789
 6540SOL    HW121459  11.851   2.658  12.847
 6540SOL    HW221460  11.811   2.600  12.712
 6541SOL     OW21461   0.832   5.235  14.146
 6541SOL    HW121462   0.833   5.297  14.218
 6541SOL    HW221463   0.887   5.162  14.176
 6542SOL     OW21464  12.174   7.493   6.853
 6542SOL    HW121465  12.171   7.513   6.946
 6542SOL    HW221466  12.152   7.400   6.847
 6543SOL     OW21467   3.090   2.186   4.719
 6543SOL    HW121468   2.996   2.175   4.708
 6543SOL    HW221469   3.105   2.280   4.709
 6544SOL     OW21470   0.617   0.960   6.126
 6544SOL    HW121471   0.584   0.999   6.045
 6544SOL    HW221472   0.556   0.889   6.146
 6545SOL     OW21473   2.385  10.886   2.679
 6545SOL    HW121474   2.453  10.893   2.746
 6545SOL    HW221475   2.408  10.954   2.615
 6546SOL     OW21476   5.909   5.389   4.256
 6546SOL    HW121477   5.959   5.359   4.181
 6546SOL    HW221478   5.922   5.483   4.258
 6547SOL     OW21479  13.777   8.339   3.926
 6547SOL    HW121480  13.711   8.379   3.870
 6547SOL    HW221481  13.744   8.251   3.942
 6548SOL     OW21482   9.888  12.185   6.981
 6548SOL    HW121483   9.812  12.129   7.001
 6548SOL    HW221484   9.909  12.167   6.890
 6549SOL     OW21485   8.423  13.564   3.465
 6549SOL    HW121486   8.348  13.506   3.454
 6549SOL    HW221487   8.481  13.518   3.526
 6550SOL     OW21488  11.970   6.319   0.093
 6550SOL    HW121489  11.908   6.391   0.103
 6550SOL    HW221490  12.054   6.362   0.077
 6551SOL     OW21491   0.986  10.803   0.719
 6551SOL    HW121492   0.923  10.847   0.661
 6551SOL    HW221493   0.980  10.711   0.695
 6552SOL     OW21494   8.631   4.885  13.771
 6552SOL    HW121495   8.659   4.944  13.701
 6552SOL    HW221496   8.553   4.926  13.808
 6553SOL     OW21497   9.101  12.613   6.736
 6553SOL    HW121498   9.195  12.597   6.743
 6553SOL    HW221499   9.092  12.708   6.745
 6554SOL     OW21500  12.086   1.830  12.223
 6554SOL    HW121501  12.127   1.898  12.170
 6554SOL    HW221502  12.152   1.760  12.226
 6555SOL     OW21503  13.672  12.634   1.508
 6555SOL    HW121504  13.755  12.668   1.541
 6555SOL    HW221505  13.693  12.601   1.420
 6556SOL     OW21506   5.533   1.395  12.082
 6556SOL    HW121507   5.586   1.416  12.006
 6556SOL    HW221508   5.597   1.372  12.150
 6557SOL     OW21509  13.739   0.710  11.098
 6557SOL    HW121510  13.773   0.625  11.070
 6557SOL    HW221511  13.731   0.703  11.193
 6558SOL     OW21512  12.180  14.548  10.029
 6558SOL    HW121513  12.160  14.601   9.951
 6558SOL    HW221514  12.177  14.611  10.101
 6559SOL     OW21515   8.183  14.622   1.485
 6559SOL    HW121516   8.155  14.531   1.496
 6559SOL    HW221517   8.265  14.628   1.533
 6560SOL     OW21518   2.432  11.371   2.822
 6560SOL    HW121519   2.353  11.317   2.815
 6560SOL    HW221520   2.450  11.375   2.916
 6561SOL     OW21521   3.950   6.206   2.136
 6561SOL    HW121522   3.956   6.130   2.195
 6561SOL    HW221523   3.866   6.195   2.092
 6562SOL     OW21524   3.547   9.162   8.975
 6562SOL    HW121525   3.606   9.237   8.981
 6562SOL    HW221526   3.475   9.182   9.035
 6563SOL     OW21527   4.373   2.272  10.409
 6563SOL    HW121528   4.370   2.368  10.409
 6563SOL    HW221529   4.454   2.250  10.455
 6564SOL     OW21530  12.629   6.109   0.601
 6564SOL    HW121531  12.608   6.174   0.534
 6564SOL    HW221532  12.722   6.123   0.620
 6565SOL     OW21533  12.427   5.482   6.032
 6565SOL    HW121534  12.459   5.430   6.105
 6565SOL    HW221535  12.394   5.418   5.969
 6566SOL     OW21536   9.608   3.743  10.208
 6566SOL    HW121537   9.587   3.738  10.115
 6566SOL    HW221538   9.704   3.738  10.211
 6567SOL     OW21539  10.998   9.813   4.969
 6567SOL    HW121540  10.986   9.870   4.893
 6567SOL    HW221541  10.922   9.829   5.024
 6568SOL     OW21542  10.335   5.999   3.466
 6568SOL    HW121543  10.330   5.996   3.561
 6568SOL    HW221544  10.291   5.920   3.436
 6569SOL     OW21545   9.826  11.403   3.342
 6569SOL    HW121546   9.835  11.429   3.250
 6569SOL    HW221547   9.739  11.362   3.347
 6570SOL     OW21548   4.781  14.594   2.198
 6570SOL    HW121549   4.753  14.628   2.113
 6570SOL    HW221550   4.700  14.572   2.243
 6571SOL     OW21551   9.394   2.303   5.212
 6571SOL    HW121552   9.470   2.329   5.264
 6571SOL    HW221553   9.391   2.208   5.219
 6572SOL     OW21554   5.916   5.398  11.593
 6572SOL    HW121555   5.964   5.456  11.534
 6572SOL    HW221556   5.927   5.438  11.680
 6573SOL     OW21557   6.217   4.870   4.335
 6573SOL    HW121558   6.255   4.955   4.315
 6573SOL    HW221559   6.291   4.814   4.355
 6574SOL     OW21560  10.656  10.786  10.219
 6574SOL    HW121561  10.692  10.786  10.130
 6574SOL    HW221562  10.566  10.754  10.208
 6575SOL     OW21563   5.775   1.246   0.946
 6575SOL    HW121564   5.816   1.207   0.869
 6575SOL    HW221565   5.848   1.286   0.994
 6576SOL     OW21566  10.341   3.077  14.863
 6576SOL    HW121567  10.281   3.116  14.800
 6576SOL    HW221568  10.322   3.122   0.071
 6577SOL     OW21569   1.269  12.185   7.578
 6577SOL    HW121570   1.305  12.107   7.535
 6577SOL    HW221571   1.344  12.225   7.621
 6578SOL     OW21572   8.008   9.712  14.577
 6578SOL    HW121573   8.049   9.640  14.527
 6578SOL    HW221574   7.961   9.668  14.648
 6579SOL     OW21575   2.221   2.688   4.958
 6579SOL    HW121576   2.182   2.651   4.879
 6579SOL    HW221577   2.214   2.618   5.023
 6580SOL     OW21578   7.073   4.470   4.149
 6580SOL    HW121579   7.156   4.512   4.126
 6580SOL    HW221580   7.007   4.537   4.131
 6581SOL     OW21581  11.153   0.378   1.015
 6581SOL    HW121582  11.194   0.465   1.012
 6581SOL    HW221583  11.219   0.319   0.979
 6582SOL     OW21584   2.211   6.257   2.144
 6582SOL    HW121585   2.175   6.267   2.056
 6582SOL    HW221586   2.203   6.343   2.184
 6583SOL     OW21587   8.115   7.806   4.603
 6583SOL    HW121588   8.035   7.762   4.574
 6583SOL    HW221589   8.163   7.739   4.652
 6584SOL     OW21590  14.031   7.337  11.158
 6584SOL    HW121591  13.985   7.381  11.230
 6584SOL    HW221592  14.044   7.406  11.092
 6585SOL     OW21593   4.649  10.808   9.365
 6585SOL    HW121594   4.585  10.756   9.317
 6585SOL    HW221595   4.708  10.743   9.404
 6586SOL     OW21596   6.147   4.073   8.243
 6586SOL    HW121597   6.146   3.999   8.302
 6586SOL    HW221598   6.056   4.102   8.238
 6587SOL     OW21599  11.580   3.603  11.114
 6587SOL    HW121600  11.566   3.520  11.160
 6587SOL    HW221601  11.604   3.577  11.025
 6588SOL     OW21602   2.465   4.031  11.117
 6588SOL    HW121603   2.528   3.959  11.122
 6588SOL    HW221604   2.395   3.999  11.060
 6589SOL     OW21605  14.450   8.067  13.106
 6589SOL    HW121606  14.365   8.089  13.144
 6589SOL    HW221607  14.437   7.983  13.063
 6590SOL     OW21608   4.262   6.870   1.904
 6590SOL    HW121609   4.235   6.783   1.873
 6590SOL    HW221610   4.199   6.930   1.864
 6591SOL     OW21611  10.129   6.548   3.661
 6591SOL    HW121612  10.053   6.560   3.604
 6591SOL    HW221613  10.184   6.485   3.615
 6592SOL     OW21614   2.433  10.744   5.885
 6592SOL    HW121615   2.397  10.681   5.823
 6592SOL    HW221616   2.385  10.729   5.966
 6593SOL     OW21617   2.367  12.629   0.510
 6593SOL    HW121618   2.368  12.662   0.420
 6593SOL    HW221619   2.283  12.584   0.518
 6594SOL     OW21620   5.516   7.184   6.773
 6594SOL    HW121621   5.562   7.247   6.718
 6594SOL    HW221622   5.527   7.217   6.862
 6595SOL     OW21623   9.387   2.949  10.682
 6595SOL    HW121624   9.336   2.898  10.745
 6595SOL    HW221625   9.420   3.024  10.731
 6596SOL     OW21626   5.843   8.127   9.119
 6596SOL    HW121627   5.865   8.153   9.030
 6596SOL    HW221628   5.914   8.162   9.173
 6597SOL     OW21629   6.792  12.489  10.862
 6597SOL    HW121630   6.880  12.483  10.824
 6597SOL    HW221631   6.739  12.531  10.793
 6598SOL     OW21632   2.181   3.798  12.023
 6598SOL    HW121633   2.128   3.770  11.949
 6598SOL    HW221634   2.159   3.735  12.093
 6599SOL     OW21635   2.225   9.142   2.044
 6599SOL    HW121636   2.141   9.121   2.004
 6599SOL    HW221637   2.282   9.163   1.970
 6600SOL     OW21638   4.941   0.579   5.178
 6600SOL    HW121639   4.968   0.666   5.208
 6600SOL    HW221640   4.961   0.521   5.251
 6601SOL     OW21641   7.185   2.457   4.818
 6601SOL    HW121642   7.118   2.502   4.870
 6601SOL    HW221643   7.137   2.388   4.771
 6602SOL     OW21644   5.364   8.937   7.967
 6602SOL    HW121645   5.279   8.914   8.005
 6602SOL    HW221646   5.391   8.859   7.918
 6603SOL     OW21647   2.825  12.437  12.555
 6603SOL    HW121648   2.868  12.409  12.636
 6603SOL    HW221649   2.891  12.424  12.487
 6604SOL     OW21650   1.517   6.975   4.231
 6604SOL    HW121651   1.571   7.055   4.229
 6604SOL    HW221652   1.439   7.000   4.280
 6605SOL     OW21653   7.186   2.692   5.250
 6605SOL    HW121654   7.266   2.676   5.200
 6605SOL    HW221655   7.156   2.605   5.276
 6606SOL     OW21656   3.211   9.829   2.359
 6606SOL    HW121657   3.187   9.920   2.377
 6606SOL    HW221658   3.248   9.797   2.441
 6607SOL     OW21659  12.005  13.948   8.789
 6607SOL    HW121660  12.024  13.990   8.872
 6607SOL    HW221661  11.958  13.868   8.812
 6608SOL     OW21662   4.246   4.921  14.610
 6608SOL    HW121663   4.213   4.835  14.584
 6608SOL    HW221664   4.331   4.928  14.568
 6609SOL     OW21665   6.632   1.791  14.050
 6609SOL    HW121666   6.576   1.714  14.062
 6609SOL    HW221667   6.575   1.857  14.012
 6610SOL     OW21668  10.289   0.587   1.866
 6610SOL    HW121669  10.241   0.668   1.880
 6610SOL    HW221670  10.221   0.522   1.847
 6611SOL     OW21671   2.190   9.322   8.313
 6611SOL    HW121672   2.155   9.400   8.269
 6611SOL    HW221673   2.183   9.343   8.406
 6612SOL     OW21674   5.698  14.181   6.180
 6612SOL    HW121675   5.760  14.253   6.167
 6612SOL    HW221676   5.674  14.153   6.091
 6613SOL     OW21677  13.476   6.569   1.402
 6613SOL    HW121678  13.540   6.523   1.348
 6613SOL    HW221679  13.528   6.615   1.468
 6614SOL     OW21680   4.090   4.587   8.876
 6614SOL    HW121681   3.998   4.604   8.853
 6614SOL    HW221682   4.084   4.517   8.942
 6615SOL     OW21683  11.049   8.412   4.447
 6615SOL    HW121684  11.143   8.423   4.436
 6615SOL    HW221685  11.040   8.341   4.511
 6616SOL     OW21686  13.084  11.596   4.308
 6616SOL    HW121687  13.041  11.513   4.287
 6616SOL    HW221688  13.053  11.656   4.240
 6617SOL     OW21689   0.729   8.301   2.285
 6617SOL    HW121690   0.649   8.256   2.313
 6617SOL    HW221691   0.789   8.290   2.359
 6618SOL     OW21692  11.530  10.071   7.715
 6618SOL    HW121693  11.439  10.062   7.686
 6618SOL    HW221694  11.542  10.001   7.780
 6619SOL     OW21695  11.988   5.848   9.542
 6619SOL    HW121696  11.970   5.833   9.635
 6619SOL    HW221697  12.076   5.885   9.540
 6620SOL     OW21698   1.514   5.027   2.724
 6620SOL    HW121699   1.436   5.053   2.773
 6620SOL    HW221700   1.497   5.058   2.635
 6621SOL     OW21701  14.835  13.404   0.308
 6621SOL    HW121702  14.743  13.392   0.331
 6621SOL    HW221703  14.838  13.487   0.262
 6622SOL     OW21704   6.191   5.271   3.108
 6622SOL    HW121705   6.281   5.259   3.076
 6622SOL    HW221706   6.157   5.183   3.117
 6623SOL     OW21707  10.397  14.387   7.359
 6623SOL    HW121708  10.466  14.325   7.386
 6623SOL    HW221709  10.445  14.467   7.336
 6624SOL     OW21710   8.856  13.232   2.719
 6624SOL    HW121711   8.922  13.301   2.723
 6624SOL    HW221712   8.857  13.193   2.807
 6625SOL     OW21713  13.951   8.926  13.411
 6625SOL    HW121714  13.925   8.910  13.321
 6625SOL    HW221715  13.908   8.857  13.461
 6626SOL     OW21716   8.067   3.188  13.134
 6626SOL    HW121717   8.130   3.164  13.065
 6626SOL    HW221718   8.103   3.149  13.214
 6627SOL     OW21719  14.743   5.844   6.212
 6627SOL    HW121720  14.824   5.880   6.249
 6627SOL    HW221721  14.678   5.857   6.280
 6628SOL     OW21722  11.740   8.775   9.162
 6628SOL    HW121723  11.707   8.788   9.073
 6628SOL    HW221724  11.662   8.779   9.217
 6629SOL     OW21725   9.463   6.102   6.863
 6629SOL    HW121726   9.429   6.183   6.901
 6629SOL    HW221727   9.421   6.032   6.914
 6630SOL     OW21728  14.213   9.824  12.212
 6630SOL    HW121729  14.247   9.912  12.227
 6630SOL    HW221730  14.155   9.833  12.136
 6631SOL     OW21731   7.896  10.947   0.862
 6631SOL    HW121732   7.895  10.855   0.889
 6631SOL    HW221733   7.988  10.970   0.859
 6632SOL     OW21734   8.950   9.133  11.027
 6632SOL    HW121735   9.007   9.110  11.100
 6632SOL    HW221736   8.993   9.207  10.985
 6633SOL     OW21737  11.114   2.096   7.861
 6633SOL    HW121738  11.123   2.074   7.954
 6633SOL    HW221739  11.043   2.160   7.857
 6634SOL     OW21740   7.176   1.394  10.487
 6634SOL    HW121741   7.151   1.331  10.420
 6634SOL    HW221742   7.267   1.418  10.466
 6635SOL     OW21743  14.008   5.688   4.444
 6635SOL    HW121744  14.080   5.689   4.381
 6635SOL    HW221745  13.938   5.640   4.400
 6636SOL     OW21746  12.329  13.842   0.585
 6636SOL    HW121747  12.359  13.931   0.566
 6636SOL    HW221748  12.269  13.821   0.514
 6637SOL     OW21749  10.500  13.341   5.117
 6637SOL    HW121750  10.448  13.413   5.154
 6637SOL    HW221751  10.440  13.297   5.057
 6638SOL     OW21752   2.196  11.020   2.893
 6638SOL    HW121753   2.289  11.001   2.901
 6638SOL    HW221754   2.163  11.018   2.982
 6639SOL     OW21755   1.091  12.054   8.080
 6639SOL    HW121756   1.001  12.037   8.107
 6639SOL    HW221757   1.098  12.149   8.075
 6640SOL     OW21758  10.092  11.566   8.143
 6640SOL    HW121759  10.094  11.499   8.075
 6640SOL    HW221760  10.050  11.523   8.217
 6641SOL     OW21761   0.274  10.920   5.875
 6641SOL    HW121762   0.221  10.888   5.802
 6641SOL    HW221763   0.311  11.002   5.843
 6642SOL     OW21764   0.139  14.210  14.526
 6642SOL    HW121765   0.060  14.248  14.488
 6642SOL    HW221766   0.210  14.241  14.469
 6643SOL     OW21767  11.930   8.625   9.052
 6643SOL    HW121768  11.998   8.610   9.118
 6643SOL    HW221769  11.868   8.685   9.094
 6644SOL     OW21770   2.488   3.659   4.406
 6644SOL    HW121771   2.548   3.589   4.380
 6644SOL    HW221772   2.527   3.739   4.372
 6645SOL     OW21773   6.438  14.846  10.879
 6645SOL    HW121774   6.485  14.838  10.796
 6645SOL    HW221775   6.452  14.762  10.923
 6646SOL     OW21776   9.675   4.670  13.564
 6646SOL    HW121777   9.698   4.762  13.549
 6646SOL    HW221778   9.725   4.621  13.498
 6647SOL     OW21779   4.520   8.299   1.966
 6647SOL    HW121780   4.537   8.215   2.008
 6647SOL    HW221781   4.457   8.279   1.897
 6648SOL     OW21782   5.804  12.243   8.811
 6648SOL    HW121783   5.884  12.192   8.811
 6648SOL    HW221784   5.752  12.206   8.740
 6649SOL     OW21785  13.297  13.465   0.982
 6649SOL    HW121786  13.305  13.521   1.059
 6649SOL    HW221787  13.203  13.464   0.962
 6650SOL     OW21788   7.789   7.079  12.578
 6650SOL    HW121789   7.772   7.006  12.638
 6650SOL    HW221790   7.712   7.081  12.521
 6651SOL     OW21791   6.617   8.616   4.299
 6651SOL    HW121792   6.532   8.624   4.343
 6651SOL    HW221793   6.604   8.546   4.235
 6652SOL     OW21794   3.058   9.753   1.965
 6652SOL    HW121795   2.980   9.721   1.919
 6652SOL    HW221796   3.071   9.690   2.036
 6653SOL     OW21797  12.778  11.352   8.042
 6653SOL    HW121798  12.722  11.311   7.976
 6653SOL    HW221799  12.737  11.329   8.126
 6654SOL     OW21800  14.061   4.301  12.888
 6654SOL    HW121801  14.040   4.323  12.797
 6654SOL    HW221802  14.156   4.310  12.894
 6655SOL     OW21803   7.841   3.651   3.298
 6655SOL    HW121804   7.771   3.659   3.233
 6655SOL    HW221805   7.851   3.557   3.310
 6656SOL     OW21806   6.446   1.927  10.937
 6656SOL    HW121807   6.435   2.022  10.937
 6656SOL    HW221808   6.487   1.908  10.853
 6657SOL     OW21809   8.981   2.056  12.630
 6657SOL    HW121810   8.896   2.099  12.640
 6657SOL    HW221811   8.986   2.036  12.537
 6658SOL     OW21812  12.984  12.331   2.141
 6658SOL    HW121813  12.982  12.245   2.099
 6658SOL    HW221814  13.030  12.317   2.223
 6659SOL     OW21815   3.004   3.874   0.548
 6659SOL    HW121816   2.914   3.854   0.520
 6659SOL    HW221817   2.994   3.950   0.605
 6660SOL     OW21818   6.990  13.446   2.564
 6660SOL    HW121819   6.963  13.504   2.493
 6660SOL    HW221820   7.085  13.439   2.555
 6661SOL     OW21821   2.583   0.681  14.757
 6661SOL    HW121822   2.576   0.769  14.721
 6661SOL    HW221823   2.637   0.634  14.694
 6662SOL     OW21824  11.413  11.645   2.125
 6662SOL    HW121825  11.319  11.653   2.109
 6662SOL    HW221826  11.442  11.577   2.064
 6663SOL     OW21827   3.483   6.122   4.035
 6663SOL    HW121828   3.546   6.078   3.977
 6663SOL    HW221829   3.400   6.117   3.988
 6664SOL     OW21830   1.672  12.253   5.119
 6664SOL    HW121831   1.649  12.209   5.200
 6664SOL    HW221832   1.660  12.187   5.051
 6665SOL     OW21833   5.435   5.897   0.013
 6665SOL    HW121834   5.361   5.858   0.060
 6665SOL    HW221835   5.464   5.969   0.070
 6666SOL     OW21836   3.408   6.518   9.702
 6666SOL    HW121837   3.425   6.571   9.624
 6666SOL    HW221838   3.320   6.483   9.688
 6667SOL     OW21839   1.755  12.107   6.882
 6667SOL    HW121840   1.760  12.194   6.842
 6667SOL    HW221841   1.753  12.125   6.976
 6668SOL     OW21842   0.149   3.674   5.378
 6668SOL    HW121843   0.129   3.586   5.345
 6668SOL    HW221844   0.084   3.688   5.447
 6669SOL     OW21845  14.799  11.813  10.610
 6669SOL    HW121846   0.004  11.868  10.614
 6669SOL    HW221847  14.767  11.824  10.521
 6670SOL     OW21848   3.716   9.856   6.201
 6670SOL    HW121849   3.724   9.763   6.180
 6670SOL    HW221850   3.634   9.882   6.159
 6671SOL     OW21851  11.918   1.285   9.736
 6671SOL    HW121852  12.012   1.284   9.753
 6671SOL    HW221853  11.880   1.237   9.809
 6672SOL     OW21854  12.235  14.707  10.765
 6672SOL    HW121855  12.306  14.649  10.795
 6672SOL    HW221856  12.273  14.795  10.770
 6673SOL     OW21857  14.842   2.688   0.332
 6673SOL    HW121858   0.038   2.640   0.376
 6673SOL    HW221859   0.007   2.773   0.312
 6674SOL     OW21860   7.876   0.312   4.643
 6674SOL    HW121861   7.782   0.301   4.631
 6674SOL    HW221862   7.906   0.358   4.565
 6675SOL     OW21863   4.762  12.108  14.287
 6675SOL    HW121864   4.704  12.134  14.216
 6675SOL    HW221865   4.712  12.043  14.337
 6676SOL     OW21866  11.542  11.852   6.318
 6676SOL    HW121867  11.482  11.913   6.359
 6676SOL    HW221868  11.624  11.862   6.365
 6677SOL     OW21869  14.658  12.318   8.945
 6677SOL    HW121870  14.672  12.233   8.902
 6677SOL    HW221871  14.584  12.357   8.899
 6678SOL     OW21872   7.670   3.680   7.257
 6678SOL    HW121873   7.645   3.709   7.345
 6678SOL    HW221874   7.675   3.585   7.264
 6679SOL     OW21875   8.730   1.450  12.482
 6679SOL    HW121876   8.779   1.435  12.401
 6679SOL    HW221877   8.790   1.426  12.552
 6680SOL     OW21878   7.947   9.433  11.619
 6680SOL    HW121879   7.909   9.519  11.603
 6680SOL    HW221880   7.872   9.374  11.628
 6681SOL     OW21881   3.799   9.549   8.150
 6681SOL    HW121882   3.764   9.460   8.141
 6681SOL    HW221883   3.884   9.546   8.106
 6682SOL     OW21884   9.355   7.385   6.959
 6682SOL    HW121885   9.440   7.355   6.927
 6682SOL    HW221886   9.294   7.316   6.932
 6683SOL     OW21887   6.210   1.528   9.330
 6683SOL    HW121888   6.167   1.443   9.338
 6683SOL    HW221889   6.232   1.534   9.237
 6684SOL     OW21890  10.415   0.599  13.944
 6684SOL    HW121891  10.319   0.602  13.950
 6684SOL    HW221892  10.432   0.546  13.866
 6685SOL     OW21893   2.739   2.241   9.225
 6685SOL    HW121894   2.722   2.163   9.277
 6685SOL    HW221895   2.782   2.302   9.285
 6686SOL     OW21896  13.224  10.028  13.824
 6686SOL    HW121897  13.204  10.066  13.910
 6686SOL    HW221898  13.298  10.080  13.792
 6687SOL     OW21899   0.730   3.588   5.331
 6687SOL    HW121900   0.768   3.629   5.409
 6687SOL    HW221901   0.687   3.660   5.284
 6688SOL     OW21902   3.838   9.328   5.327
 6688SOL    HW121903   3.899   9.371   5.267
 6688SOL    HW221904   3.808   9.398   5.385
 6689SOL     OW21905  13.000   8.305   7.164
 6689SOL    HW121906  13.087   8.344   7.161
 6689SOL    HW221907  12.941   8.379   7.175
 6690SOL     OW21908  10.628   0.114   8.395
 6690SOL    HW121909  10.657   0.205   8.388
 6690SOL    HW221910  10.708   0.062   8.392
 6691SOL     OW21911  14.503   1.636   6.310
 6691SOL    HW121912  14.562   1.680   6.372
 6691SOL    HW221913  14.520   1.543   6.323
 6692SOL     OW21914  10.981  13.403   6.233
 6692SOL    HW121915  11.075  13.388   6.245
 6692SOL    HW221916  10.950  13.324   6.189
 6693SOL     OW21917   2.347   1.187  13.347
 6693SOL    HW121918   2.291   1.201  13.423
 6693SOL    HW221919   2.404   1.114  13.372
 6694SOL     OW21920   0.912   7.836   6.761
 6694SOL    HW121921   0.823   7.809   6.735
 6694SOL    HW221922   0.941   7.894   6.692
 6695SOL     OW21923   4.430  14.415  10.449
 6695SOL    HW121924   4.427  14.320  10.462
 6695SOL    HW221925   4.341  14.445  10.468
 6696SOL     OW21926  11.272   2.695   9.162
 6696SOL    HW121927  11.354   2.646   9.162
 6696SOL    HW221928  11.289   2.769   9.103
 6697SOL     OW21929  10.174  11.813   6.881
 6697SOL    HW121930  10.138  11.821   6.793
 6697SOL    HW221931  10.180  11.719   6.897
 6698SOL     OW21932   1.085  14.642   3.971
 6698SOL    HW121933   1.069  14.666   4.062
 6698SOL    HW221934   1.064  14.721   3.921
 6699SOL     OW21935  14.207   8.466  11.798
 6699SOL    HW121936  14.240   8.494  11.713
 6699SOL    HW221937  14.114   8.490  11.798
 6700SOL     OW21938  14.438  14.175   9.822
 6700SOL    HW121939  14.525  14.194   9.787
 6700SOL    HW221940  14.440  14.209   9.912
 6701SOL     OW21941  11.797  11.819   6.408
 6701SOL    HW121942  11.825  11.907   6.383
 6701SOL    HW221943  11.858  11.793   6.477
 6702SOL     OW21944  12.356  14.157   9.509
 6702SOL    HW121945  12.366  14.100   9.586
 6702SOL    HW221946  12.335  14.097   9.438
 6703SOL     OW21947  12.948   3.820  13.421
 6703SOL    HW121948  13.008   3.749  13.441
 6703SOL    HW221949  12.970   3.845  13.331
 6704SOL     OW21950   0.216   1.138   9.412
 6704SOL    HW121951   0.278   1.067   9.399
 6704SOL    HW221952   0.269   1.214   9.435
 6705SOL     OW21953   7.567  11.320  13.485
 6705SOL    HW121954   7.566  11.247  13.423
 6705SOL    HW221955   7.647  11.368  13.464
 6706SOL     OW21956   2.901   2.747   9.470
 6706SOL    HW121957   2.857   2.725   9.387
 6706SOL    HW221958   2.974   2.803   9.444
 6707SOL     OW21959   1.180   1.558  12.278
 6707SOL    HW121960   1.154   1.646  12.306
 6707SOL    HW221961   1.274   1.566  12.259
 6708SOL     OW21962   5.460  14.374   2.529
 6708SOL    HW121963   5.431  14.285   2.545
 6708SOL    HW221964   5.422  14.426   2.600
 6709SOL     OW21965   2.470   8.609  14.102
 6709SOL    HW121966   2.474   8.553  14.179
 6709SOL    HW221967   2.527   8.566  14.038
 6710SOL     OW21968  14.283   4.873   0.147
 6710SOL    HW121969  14.349   4.826   0.097
 6710SOL    HW221970  14.248   4.807   0.208
 6711SOL     OW21971   0.945   5.336   7.712
 6711SOL    HW121972   0.908   5.324   7.625
 6711SOL    HW221973   0.884   5.394   7.757
 6712SOL     OW21974   4.312  11.660   2.773
 6712SOL    HW121975   4.262  11.596   2.722
 6712SOL    HW221976   4.255  11.682   2.846
 6713SOL     OW21977  11.778   7.912   2.035
 6713SOL    HW121978  11.846   7.890   2.099
 6713SOL    HW221979  11.700   7.866   2.066
 6714SOL     OW21980  11.352   0.688   3.635
 6714SOL    HW121981  11.293   0.685   3.709
 6714SOL    HW221982  11.295   0.688   3.558
 6715SOL     OW21983   7.645   2.360   1.783
 6715SOL    HW121984   7.737   2.375   1.806
 6715SOL    HW221985   7.596   2.391   1.859
 6716SOL     OW21986   0.583   4.734  11.503
 6716SOL    HW121987   0.614   4.661  11.450
 6716SOL    HW221988   0.618   4.717  11.591
 6717SOL     OW21989  10.698   6.589  12.076
 6717SOL    HW121990  10.632   6.655  12.096
 6717SOL    HW221991  10.776   6.618  12.124
 6718SOL     OW21992  11.753  13.387   6.973
 6718SOL    HW121993  11.838  13.377   7.017
 6718SOL    HW221994  11.771  13.366   6.882
 6719SOL     OW21995   3.241  11.786   6.653
 6719SOL    HW121996   3.247  11.692   6.671
 6719SOL    HW221997   3.183  11.819   6.721
 6720SOL     OW21998  11.288   1.258   6.089
 6720SOL    HW121999  11.376   1.229   6.067
 6720SOL    HW222000  11.262   1.314   6.016
 6721SOL     OW22001   9.899   2.353   5.577
 6721SOL    HW122002   9.860   2.439   5.562
 6721SOL    HW222003   9.906   2.314   5.489
 6722SOL     OW22004   0.685   8.199   5.871
 6722SOL    HW122005   0.631   8.229   5.798
 6722SOL    HW222006   0.770   8.241   5.856
 6723SOL     OW22007   8.313  12.761   3.449
 6723SOL    HW122008   8.404  12.781   3.429
 6723SOL    HW222009   8.292  12.685   3.394
 6724SOL     OW22010   8.113   3.626  11.794
 6724SOL    HW122011   8.115   3.576  11.875
 6724SOL    HW222012   8.093   3.716  11.820
 6725SOL     OW22013   8.569   6.525   8.376
 6725SOL    HW122014   8.567   6.430   8.363
 6725SOL    HW222015   8.513   6.560   8.307
 6726SOL     OW22016   9.312   2.090  13.613
 6726SOL    HW122017   9.265   2.108  13.531
 6726SOL    HW222018   9.405   2.090  13.588
 6727SOL     OW22019   4.099   4.324   5.038
 6727SOL    HW122020   4.066   4.252   5.092
 6727SOL    HW222021   4.032   4.392   5.044
 6728SOL     OW22022  11.458   3.917   7.549
 6728SOL    HW122023  11.398   3.844   7.534
 6728SOL    HW222024  11.528   3.880   7.604
 6729SOL     OW22025   4.353   8.240   0.807
 6729SOL    HW122026   4.342   8.329   0.841
 6729SOL    HW222027   4.318   8.244   0.718
 6730SOL     OW22028  13.966  13.505   4.734
 6730SOL    HW122029  14.034  13.488   4.800
 6730SOL    HW222030  13.924  13.420   4.722
 6731SOL     OW22031  12.478   6.460   9.485
 6731SOL    HW122032  12.462   6.417   9.401
 6731SOL    HW222033  12.566   6.433   9.510
 6732SOL     OW22034   9.338   6.042   6.116
 6732SOL    HW122035   9.326   5.975   6.049
 6732SOL    HW222036   9.325   6.125   6.070
 6733SOL     OW22037   3.697  13.500   2.744
 6733SOL    HW122038   3.640  13.490   2.820
 6733SOL    HW222039   3.761  13.566   2.771
 6734SOL     OW22040   0.175   6.813  10.800
 6734SOL    HW122041   0.165   6.774  10.887
 6734SOL    HW222042   0.154   6.906  10.813
 6735SOL     OW22043   0.760  11.754   4.133
 6735SOL    HW122044   0.673  11.793   4.139
 6735SOL    HW222045   0.794  11.783   4.048
 6736SOL     OW22046   3.372   2.531  13.232
 6736SOL    HW122047   3.432   2.564  13.300
 6736SOL    HW222048   3.330   2.609  13.197
 6737SOL     OW22049  11.301   1.309   5.328
 6737SOL    HW122050  11.380   1.320   5.275
 6737SOL    HW222051  11.327   1.249   5.398
 6738SOL     OW22052   6.899   5.706  12.128
 6738SOL    HW122053   6.935   5.625  12.090
 6738SOL    HW222054   6.857   5.750  12.054
 6739SOL     OW22055  14.617   9.599   7.022
 6739SOL    HW122056  14.681   9.574   7.089
 6739SOL    HW222057  14.533   9.594   7.067
 6740SOL     OW22058   8.748   9.323   7.849
 6740SOL    HW122059   8.671   9.268   7.861
 6740SOL    HW222060   8.786   9.332   7.936
 6741SOL     OW22061   2.623   6.434  10.519
 6741SOL    HW122062   2.663   6.518  10.544
 6741SOL    HW222063   2.672   6.406  10.442
 6742SOL     OW22064  12.831   5.804   0.516
 6742SOL    HW122065  12.822   5.888   0.561
 6742SOL    HW222066  12.914   5.811   0.468
 6743SOL     OW22067  14.150   9.137  11.739
 6743SOL    HW122068  14.172   9.124  11.647
 6743SOL    HW222069  14.139   9.048  11.774
 6744SOL     OW22070   0.436   6.400  11.751
 6744SOL    HW122071   0.481   6.353  11.821
 6744SOL    HW222072   0.353   6.427  11.790
 6745SOL     OW22073   2.561   9.680   5.661
 6745SOL    HW122074   2.522   9.715   5.581
 6745SOL    HW222075   2.515   9.597   5.675
 6746SOL     OW22076  14.597  12.944   4.907
 6746SOL    HW122077  14.670  12.930   4.846
 6746SOL    HW222078  14.556  12.858   4.915
 6747SOL     OW22079  13.213  13.858  14.694
 6747SOL    HW122080  13.234  13.881  14.784
 6747SOL    HW222081  13.255  13.773  14.680
 6748SOL     OW22082   1.331  14.611   1.210
 6748SOL    HW122083   1.341  14.548   1.282
 6748SOL    HW222084   1.420  14.642   1.193
 6749SOL     OW22085   3.044  12.221  12.071
 6749SOL    HW122086   3.133  12.255  12.066
 6749SOL    HW222087   3.000  12.258  11.994
 6750SOL     OW22088   6.933   1.682  12.520
 6750SOL    HW122089   7.010   1.641  12.559
 6750SOL    HW222090   6.873   1.695  12.594
 6751SOL     OW22091   9.027  12.331  13.604
 6751SOL    HW122092   8.985  12.412  13.634
 6751SOL    HW222093   8.957  12.285  13.557
 6752SOL     OW22094   7.778   1.072   7.805
 6752SOL    HW122095   7.697   1.033   7.772
 6752SOL    HW222096   7.796   1.024   7.886
 6753SOL     OW22097   7.807   5.279  10.310
 6753SOL    HW122098   7.799   5.219  10.236
 6753SOL    HW222099   7.900   5.300  10.314
 6754SOL     OW22100   8.260   6.835  11.099
 6754SOL    HW122101   8.229   6.925  11.095
 6754SOL    HW222102   8.252   6.803  11.009
 6755SOL     OW22103   5.415   2.514  12.845
 6755SOL    HW122104   5.404   2.583  12.779
 6755SOL    HW222105   5.400   2.559  12.929
 6756SOL     OW22106   1.975  10.546   1.247
 6756SOL    HW122107   2.035  10.572   1.177
 6756SOL    HW222108   1.936  10.628   1.277
 6757SOL     OW22109  13.376   0.520   9.588
 6757SOL    HW122110  13.355   0.543   9.497
 6757SOL    HW222111  13.424   0.596   9.621
 6758SOL     OW22112   0.938   3.755  12.440
 6758SOL    HW122113   1.024   3.765  12.399
 6758SOL    HW222114   0.931   3.662  12.461
 6759SOL     OW22115   0.841   5.318   4.450
 6759SOL    HW122116   0.776   5.263   4.494
 6759SOL    HW222117   0.871   5.379   4.518
 6760SOL     OW22118  13.798  13.306   9.779
 6760SOL    HW122119  13.725  13.265   9.824
 6760SOL    HW222120  13.844  13.356   9.846
 6761SOL     OW22121   9.731   0.437  13.810
 6761SOL    HW122122   9.642   0.453  13.780
 6761SOL    HW222123   9.774   0.523  13.804
 6762SOL     OW22124   8.274  11.842   3.923
 6762SOL    HW122125   8.350  11.900   3.914
 6762SOL    HW222126   8.198  11.900   3.916
 6763SOL     OW22127  13.144  13.826   5.036
 6763SOL    HW122128  13.121  13.743   4.994
 6763SOL    HW222129  13.175  13.801   5.123
 6764SOL     OW22130   6.683  13.421  13.760
 6764SOL    HW122131   6.720  13.364  13.692
 6764SOL    HW222132   6.759  13.466  13.798
 6765SOL     OW22133  13.991   7.765  12.172
 6765SOL    HW122134  13.961   7.856  12.174
 6765SOL    HW222135  13.930   7.719  12.231
 6766SOL     OW22136   2.688   9.160  14.653
 6766SOL    HW122137   2.670   9.100  14.724
 6766SOL    HW222138   2.606   9.165  14.604
 6767SOL     OW22139  14.531   2.914   0.036
 6767SOL    HW122140  14.618   2.880   0.015
 6767SOL    HW222141  14.544   2.966   0.115
 6768SOL     OW22142  11.923  14.297   6.558
 6768SOL    HW122143  11.964  14.343   6.631
 6768SOL    HW222144  11.954  14.206   6.567
 6769SOL     OW22145   7.989   1.987  10.843
 6769SOL    HW122146   7.947   1.944  10.918
 6769SOL    HW222147   8.080   1.958  10.847
 6770SOL     OW22148   4.260   3.763   7.208
 6770SOL    HW122149   4.291   3.783   7.296
 6770SOL    HW222150   4.317   3.813   7.150
 6771SOL     OW22151  14.253   0.063   8.732
 6771SOL    HW122152  14.276   0.039   8.822
 6771SOL    HW222153  14.248   0.159   8.733
 6772SOL     OW22154   0.006  12.176   7.603
 6772SOL    HW122155   0.082  12.171   7.545
 6772SOL    HW222156   0.034  12.235   7.673
 6773SOL     OW22157   2.005   4.346   4.481
 6773SOL    HW122158   1.977   4.306   4.563
 6773SOL    HW222159   2.099   4.362   4.493
 6774SOL     OW22160   7.269   8.173   5.040
 6774SOL    HW122161   7.321   8.092   5.041
 6774SOL    HW222162   7.289   8.215   5.124
 6775SOL     OW22163  11.074   7.685   2.590
 6775SOL    HW122164  11.063   7.676   2.495
 6775SOL    HW222165  10.987   7.708   2.622
 6776SOL     OW22166   8.222   8.294  14.749
 6776SOL    HW122167   8.263   8.343  14.820
 6776SOL    HW222168   8.137   8.337  14.737
 6777SOL     OW22169  12.574   0.660  13.270
 6777SOL    HW122170  12.569   0.609  13.351
 6777SOL    HW222171  12.665   0.651  13.241
 6778SOL     OW22172  11.421   5.688   3.871
 6778SOL    HW122173  11.395   5.614   3.816
 6778SOL    HW222174  11.496   5.727   3.825
 6779SOL     OW22175   2.344   8.337   6.128
 6779SOL    HW122176   2.394   8.364   6.051
 6779SOL    HW222177   2.294   8.261   6.098
 6780SOL     OW22178  12.374   0.761  12.246
 6780SOL    HW122179  12.315   0.687  12.231
 6780SOL    HW222180  12.450   0.744  12.191
 6781SOL     OW22181  11.711  13.139   9.660
 6781SOL    HW122182  11.752  13.054   9.677
 6781SOL    HW222183  11.626  13.135   9.704
 6782SOL     OW22184   8.966   8.775   8.050
 6782SOL    HW122185   9.014   8.743   7.974
 6782SOL    HW222186   8.937   8.695   8.095
 6783SOL     OW22187   0.566  12.948  11.986
 6783SOL    HW122188   0.486  12.896  11.974
 6783SOL    HW222189   0.545  13.033  11.949
 6784SOL     OW22190  14.143   1.891  14.238
 6784SOL    HW122191  14.189   1.929  14.313
 6784SOL    HW222192  14.096   1.965  14.199
 6785SOL     OW22193   4.723  14.752  11.920
 6785SOL    HW122194   4.760  14.793  11.998
 6785SOL    HW222195   4.716  14.660  11.942
 6786SOL     OW22196   0.607   2.328   3.754
 6786SOL    HW122197   0.566   2.247   3.725
 6786SOL    HW222198   0.653   2.305   3.835
 6787SOL     OW22199  13.635   3.271   1.827
 6787SOL    HW122200  13.712   3.233   1.869
 6787SOL    HW222201  13.565   3.208   1.845
 6788SOL     OW22202  14.806  11.927   7.653
 6788SOL    HW122203  14.731  11.909   7.596
 6788SOL    HW222204  14.824  12.020   7.639
 6789SOL     OW22205   1.191  12.888  13.770
 6789SOL    HW122206   1.157  12.811  13.724
 6789SOL    HW222207   1.175  12.868  13.863
 6790SOL     OW22208   5.679   0.666   9.162
 6790SOL    HW122209   5.747   0.637   9.223
 6790SOL    HW222210   5.603   0.612   9.182
 6791SOL     OW22211   8.624   0.416   1.127
 6791SOL    HW122212   8.589   0.395   1.213
 6791SOL    HW222213   8.631   0.511   1.126
 6792SOL     OW22214   2.490   0.192  13.893
 6792SOL    HW122215   2.397   0.172  13.882
 6792SOL    HW222216   2.524   0.120  13.946
 6793SOL     OW22217   1.206   6.520   6.315
 6793SOL    HW122218   1.164   6.605   6.332
 6793SOL    HW222219   1.152   6.457   6.362
 6794SOL     OW22220   9.701  11.690  13.508
 6794SOL    HW122221   9.689  11.769  13.561
 6794SOL    HW222222   9.728  11.623  13.570
 6795SOL     OW22223  12.233   6.708   6.324
 6795SOL    HW122224  12.215   6.614   6.333
 6795SOL    HW222225  12.263   6.718   6.233
 6796SOL     OW22226   0.870  12.524   4.528
 6796SOL    HW122227   0.776  12.533   4.544
 6796SOL    HW222228   0.886  12.430   4.536
 6797SOL     OW22229   8.626  10.616   3.636
 6797SOL    HW122230   8.576  10.550   3.685
 6797SOL    HW222231   8.718  10.592   3.651
 6798SOL     OW22232   3.118   8.824   3.794
 6798SOL    HW122233   3.172   8.892   3.835
 6798SOL    HW222234   3.029   8.860   3.795
 6799SOL     OW22235   7.400   9.875   8.258
 6799SOL    HW122236   7.329   9.812   8.242
 6799SOL    HW222237   7.384   9.946   8.197
 6800SOL     OW22238   9.875   6.131  14.161
 6800SOL    HW122239   9.826   6.152  14.240
 6800SOL    HW222240   9.819   6.070  14.113
 6801SOL     OW22241   6.560   8.502   2.271
 6801SOL    HW122242   6.511   8.438   2.219
 6801SOL    HW222243   6.614   8.449   2.329
 6802SOL     OW22244  11.287   5.799  14.123
 6802SOL    HW122245  11.284   5.704  14.128
 6802SOL    HW222246  11.358   5.818  14.061
 6803SOL     OW22247  13.760   4.515  10.985
 6803SOL    HW122248  13.816   4.462  11.042
 6803SOL    HW222249  13.686   4.541  11.040
 6804SOL     OW22250  13.112   9.009   5.138
 6804SOL    HW122251  13.174   9.016   5.066
 6804SOL    HW222252  13.118   9.093   5.184
 6805SOL     OW22253   1.741  14.669   2.451
 6805SOL    HW122254   1.692  14.746   2.424
 6805SOL    HW222255   1.764  14.687   2.543
 6806SOL     OW22256  14.008   7.638   9.006
 6806SOL    HW122257  14.093   7.669   9.036
 6806SOL    HW222258  13.989   7.563   9.063
 6807SOL     OW22259   4.307   8.753   8.417
 6807SOL    HW122260   4.215   8.774   8.404
 6807SOL    HW222261   4.313   8.725   8.508
 6808SOL     OW22262  11.381   3.180   6.076
 6808SOL    HW122263  11.371   3.219   5.989
 6808SOL    HW222264  11.302   3.128   6.088
 6809SOL     OW22265   9.832  10.571  14.071
 6809SOL    HW122266   9.883  10.574  13.990
 6809SOL    HW222267   9.897  10.578  14.140
 6810SOL     OW22268   5.646   4.615   1.928
 6810SOL    HW122269   5.705   4.671   1.877
 6810SOL    HW222270   5.558   4.638   1.897
 6811SOL     OW22271   7.185   5.347  14.421
 6811SOL    HW122272   7.104   5.382  14.458
 6811SOL    HW222273   7.165   5.335  14.328
 6812SOL     OW22274   0.300   2.286  14.609
 6812SOL    HW122275   0.205   2.292  14.608
 6812SOL    HW222276   0.319   2.228  14.683
 6813SOL     OW22277   7.505   3.211   3.545
 6813SOL    HW122278   7.420   3.168   3.558
 6813SOL    HW222279   7.504   3.237   3.453
 6814SOL     OW22280  11.871  14.723  14.793
 6814SOL    HW122281  11.849  14.774  14.715
 6814SOL    HW222282  11.915  14.645  14.759
 6815SOL     OW22283   7.797   2.392   2.849
 6815SOL    HW122284   7.855   2.329   2.806
 6815SOL    HW222285   7.722   2.400   2.791
 6816SOL     OW22286  13.405   6.632   1.766
 6816SOL    HW122287  13.373   6.718   1.738
 6816SOL    HW222288  13.334   6.597   1.820
 6817SOL     OW22289   4.194   1.611   0.155
 6817SOL    HW122290   4.284   1.585   0.135
 6817SOL    HW222291   4.149   1.528   0.173
 6818SOL     OW22292   6.294   7.762   5.014
 6818SOL    HW122293   6.259   7.797   5.095
 6818SOL    HW222294   6.282   7.833   4.950
 6819SOL     OW22295   7.761   3.073   3.267
 6819SOL    HW122296   7.700   3.138   3.302
 6819SOL    HW222297   7.708   3.019   3.209
 6820SOL     OW22298   4.239  14.294   0.589
 6820SOL    HW122299   4.285  14.222   0.547
 6820SOL    HW222300   4.249  14.277   0.683
 6821SOL     OW22301  12.011  10.805   8.081
 6821SOL    HW122302  12.041  10.857   8.007
 6821SOL    HW222303  12.092  10.776   8.124
 6822SOL     OW22304   3.678   5.208   8.139
 6822SOL    HW122305   3.630   5.231   8.219
 6822SOL    HW222306   3.645   5.270   8.074
 6823SOL     OW22307   7.503  12.782   7.256
 6823SOL    HW122308   7.497  12.727   7.178
 6823SOL    HW222309   7.442  12.742   7.318
 6824SOL     OW22310  10.855   2.027  13.573
 6824SOL    HW122311  10.884   1.950  13.525
 6824SOL    HW222312  10.800   1.993  13.643
 6825SOL     OW22313   5.917   6.745   8.892
 6825SOL    HW122314   5.828   6.748   8.927
 6825SOL    HW222315   5.906   6.749   8.797
 6826SOL     OW22316   1.690   2.751  14.701
 6826SOL    HW122317   1.723   2.712  14.620
 6826SOL    HW222318   1.722   2.694  14.771
 6827SOL     OW22319   4.309  11.231   2.330
 6827SOL    HW122320   4.300  11.238   2.426
 6827SOL    HW222321   4.267  11.310   2.297
 6828SOL     OW22322   5.467  10.947   1.921
 6828SOL    HW122323   5.372  10.954   1.920
 6828SOL    HW222324   5.492  10.936   1.829
 6829SOL     OW22325  12.620  13.172   3.692
 6829SOL    HW122326  12.554  13.182   3.622
 6829SOL    HW222327  12.640  13.262   3.719
 6830SOL     OW22328   8.336  11.254   9.109
 6830SOL    HW122329   8.400  11.276   9.042
 6830SOL    HW222330   8.308  11.165   9.089
 6831SOL     OW22331   4.119   1.546   5.031
 6831SOL    HW122332   4.191   1.538   4.969
 6831SOL    HW222333   4.089   1.636   5.022
 6832SOL     OW22334  12.360   3.362  11.346
 6832SOL    HW122335  12.381   3.271  11.325
 6832SOL    HW222336  12.421   3.413  11.293
 6833SOL     OW22337   3.658  14.333   6.517
 6833SOL    HW122338   3.731  14.391   6.496
 6833SOL    HW222339   3.607  14.329   6.436
 6834SOL     OW22340  11.831  11.683  11.881
 6834SOL    HW122341  11.910  11.634  11.904
 6834SOL    HW222342  11.791  11.631  11.811
 6835SOL     OW22343   9.579  10.829   4.907
 6835SOL    HW122344   9.598  10.821   4.813
 6835SOL    HW222345   9.664  10.845   4.947
 6836SOL     OW22346   8.698   8.801   4.192
 6836SOL    HW122347   8.658   8.814   4.107
 6836SOL    HW222348   8.636   8.839   4.254
 6837SOL     OW22349   7.626   2.104  12.410
 6837SOL    HW122350   7.573   2.145  12.478
 6837SOL    HW222351   7.716   2.114  12.440
 6838SOL     OW22352   4.845   8.603   7.417
 6838SOL    HW122353   4.832   8.508   7.414
 6838SOL    HW222354   4.809   8.629   7.502
 6839SOL     OW22355  10.769   6.519  12.506
 6839SOL    HW122356  10.688   6.494  12.463
 6839SOL    HW222357  10.778   6.456  12.578
 6840SOL     OW22358   4.250  14.095  12.066
 6840SOL    HW122359   4.296  14.117  11.985
 6840SOL    HW222360   4.164  14.064  12.037
 6841SOL     OW22361  14.445   9.404   7.624
 6841SOL    HW122362  14.440   9.400   7.529
 6841SOL    HW222363  14.471   9.494   7.644
 6842SOL     OW22364  10.109   4.476   6.355
 6842SOL    HW122365  10.114   4.564   6.318
 6842SOL    HW222366  10.194   4.463   6.397
 6843SOL     OW22367  10.967  11.803  14.220
 6843SOL    HW122368  11.055  11.804  14.180
 6843SOL    HW222369  10.909  11.779  14.148
 6844SOL     OW22370   3.655   4.554  12.086
 6844SOL    HW122371   3.646   4.620  12.155
 6844SOL    HW222372   3.679   4.474  12.133
 6845SOL     OW22373   4.317  13.229  14.137
 6845SOL    HW122374   4.305  13.226  14.232
 6845SOL    HW222375   4.229  13.241  14.102
 6846SOL     OW22376   3.575   4.788  14.238
 6846SOL    HW122377   3.486   4.811  14.263
 6846SOL    HW222378   3.588   4.831  14.153
 6847SOL     OW22379  13.773  10.108   1.319
 6847SOL    HW122380  13.750  10.024   1.280
 6847SOL    HW222381  13.824  10.085   1.396
 6848SOL     OW22382   5.387  13.194   1.670
 6848SOL    HW122383   5.434  13.117   1.703
 6848SOL    HW222384   5.365  13.172   1.580
 6849SOL     OW22385   8.398   7.608  10.048
 6849SOL    HW122386   8.315   7.646  10.076
 6849SOL    HW222387   8.423   7.659   9.971
 6850SOL     OW22388   5.287   7.298   5.443
 6850SOL    HW122389   5.331   7.278   5.360
 6850SOL    HW222390   5.334   7.373   5.478
 6851SOL     OW22391   4.367  13.309   3.678
 6851SOL    HW122392   4.381  13.402   3.697
 6851SOL    HW222393   4.453  13.278   3.647
 6852SOL     OW22394   5.965  11.626   7.407
 6852SOL    HW122395   6.047  11.583   7.386
 6852SOL    HW222396   5.991  11.705   7.454
 6853SOL     OW22397   9.899   3.653   2.851
 6853SOL    HW122398   9.922   3.702   2.772
 6853SOL    HW222399   9.808   3.627   2.836
 6854SOL     OW22400   4.346  10.303   8.202
 6854SOL    HW122401   4.385  10.318   8.116
 6854SOL    HW222402   4.318  10.211   8.200
 6855SOL     OW22403   4.093   4.872   7.928
 6855SOL    HW122404   4.059   4.802   7.872
 6855SOL    HW222405   4.112   4.830   8.011
 6856SOL     OW22406   1.780  13.642   9.267
 6856SOL    HW122407   1.743  13.720   9.308
 6856SOL    HW222408   1.765  13.654   9.174
 6857SOL     OW22409  11.451  11.566   6.066
 6857SOL    HW122410  11.470  11.478   6.033
 6857SOL    HW222411  11.410  11.550   6.152
 6858SOL     OW22412  13.211   8.292   7.731
 6858SOL    HW122413  13.253   8.341   7.660
 6858SOL    HW222414  13.230   8.200   7.711
 6859SOL     OW22415   6.552  14.460   9.232
 6859SOL    HW122416   6.485  14.431   9.170
 6859SOL    HW222417   6.507  14.521   9.290
 6860SOL     OW22418  13.485   5.707   4.144
 6860SOL    HW122419  13.512   5.653   4.070
 6860SOL    HW222420  13.460   5.791   4.106
 6861SOL     OW22421   5.304   1.881  11.625
 6861SOL    HW122422   5.247   1.840  11.689
 6861SOL    HW222423   5.390   1.885  11.668
 6862SOL     OW22424   2.386  11.230   7.731
 6862SOL    HW122425   2.455  11.283   7.772
 6862SOL    HW222426   2.318  11.224   7.798
 6863SOL     OW22427   1.559   6.358  13.026
 6863SOL    HW122428   1.556   6.429  12.961
 6863SOL    HW222429   1.649   6.360  13.058
 6864SOL     OW22430  13.686  10.209  12.412
 6864SOL    HW122431  13.760  10.158  12.445
 6864SOL    HW222432  13.629  10.220  12.488
 6865SOL     OW22433   4.053  13.411   9.274
 6865SOL    HW122434   4.100  13.481   9.228
 6865SOL    HW222435   4.046  13.340   9.210
 6866SOL     OW22436   3.830   8.897   9.990
 6866SOL    HW122437   3.804   8.826   9.931
 6866SOL    HW222438   3.814   8.862  10.077
 6867SOL     OW22439  12.585   8.045  14.793
 6867SOL    HW122440  12.574   8.119  14.733
 6867SOL    HW222441  12.530   7.976  14.756
 6868SOL     OW22442   6.866  10.469  14.018
 6868SOL    HW122443   6.852  10.406  14.089
 6868SOL    HW222444   6.859  10.416  13.938
 6869SOL     OW22445   5.454   3.185   7.788
 6869SOL    HW122446   5.436   3.194   7.694
 6869SOL    HW222447   5.375   3.220   7.830
 6870SOL     OW22448   1.688   3.763  11.841
 6870SOL    HW122449   1.642   3.681  11.826
 6870SOL    HW222450   1.757   3.741  11.903
 6871SOL     OW22451   2.196  11.110   5.821
 6871SOL    HW122452   2.229  11.189   5.865
 6871SOL    HW222453   2.149  11.143   5.745
 6872SOL     OW22454   6.545   8.745   7.326
 6872SOL    HW122455   6.534   8.653   7.351
 6872SOL    HW222456   6.636   8.765   7.349
 6873SOL     OW22457  12.585   2.333   2.104
 6873SOL    HW122458  12.664   2.294   2.068
 6873SOL    HW222459  12.513   2.282   2.067
 6874SOL     OW22460  10.827   3.712   2.799
 6874SOL    HW122461  10.863   3.791   2.838
 6874SOL    HW222462  10.882   3.695   2.723
 6875SOL     OW22463   2.566   7.074   2.710
 6875SOL    HW122464   2.489   7.082   2.766
 6875SOL    HW222465   2.611   7.158   2.719
 6876SOL     OW22466   2.796   4.602   6.882
 6876SOL    HW122467   2.701   4.597   6.878
 6876SOL    HW222468   2.823   4.620   6.792
 6877SOL     OW22469   4.047  10.097   3.015
 6877SOL    HW122470   4.090  10.067   2.935
 6877SOL    HW222471   3.957  10.065   3.008
 6878SOL     OW22472  13.071   0.182   2.236
 6878SOL    HW122473  13.014   0.140   2.172
 6878SOL    HW222474  13.019   0.256   2.268
 6879SOL     OW22475   3.502   7.213   4.727
 6879SOL    HW122476   3.528   7.245   4.813
 6879SOL    HW222477   3.503   7.117   4.736
 6880SOL     OW22478   6.152   5.255   8.815
 6880SOL    HW122479   6.106   5.281   8.895
 6880SOL    HW222480   6.089   5.201   8.767
 6881SOL     OW22481   2.023  12.803   0.238
 6881SOL    HW122482   1.936  12.781   0.204
 6881SOL    HW222483   2.019  12.778   0.330
 6882SOL     OW22484   0.896  10.886  12.125
 6882SOL    HW122485   0.818  10.834  12.106
 6882SOL    HW222486   0.968  10.834  12.089
 6883SOL     OW22487   2.608  12.133   8.438
 6883SOL    HW122488   2.687  12.181   8.464
 6883SOL    HW222489   2.556  12.126   8.518
 6884SOL     OW22490  12.023   7.151   1.201
 6884SOL    HW122491  12.007   7.167   1.109
 6884SOL    HW222492  12.093   7.085   1.203
 6885SOL     OW22493   1.174  14.757   8.075
 6885SOL    HW122494   1.239  14.689   8.062
 6885SOL    HW222495   1.150  14.749   8.168
 6886SOL     OW22496   0.593   8.256  12.820
 6886SOL    HW122497   0.688   8.250  12.815
 6886SOL    HW222498   0.567   8.176  12.866
 6887SOL     OW22499   1.008   3.204   7.386
 6887SOL    HW122500   0.969   3.131   7.338
 6887SOL    HW222501   0.949   3.220   7.459
 6888SOL     OW22502   9.589   6.194  10.754
 6888SOL    HW122503   9.570   6.227  10.667
 6888SOL    HW222504   9.602   6.272  10.807
 6889SOL     OW22505   7.174  10.651   7.313
 6889SOL    HW122506   7.270  10.658   7.312
 6889SOL    HW222507   7.146  10.693   7.232
 6890SOL     OW22508  12.372  13.347  12.619
 6890SOL    HW122509  12.294  13.362  12.673
 6890SOL    HW222510  12.403  13.435  12.598
 6891SOL     OW22511   2.185  12.493  10.489
 6891SOL    HW122512   2.145  12.531  10.412
 6891SOL    HW222513   2.222  12.568  10.537
 6892SOL     OW22514   1.112   3.948  14.716
 6892SOL    HW122515   1.196   3.992  14.729
 6892SOL    HW222516   1.102   3.944  14.621
 6893SOL     OW22517   2.890   9.369   4.746
 6893SOL    HW122518   2.956   9.300   4.748
 6893SOL    HW222519   2.836   9.347   4.670
 6894SOL     OW22520   8.614  13.451   8.007
 6894SOL    HW122521   8.566  13.369   8.012
 6894SOL    HW222522   8.681  13.443   8.075
 6895SOL     OW22523   0.387  14.849   2.754
 6895SOL    HW122524   0.335  14.772   2.776
 6895SOL    HW222525   0.363   0.041   2.819
 6896SOL     OW22526   3.417   2.472   2.199
 6896SOL    HW122527   3.444   2.559   2.228
 6896SOL    HW222528   3.333   2.487   2.155
 6897SOL     OW22529   1.465   8.105   4.404
 6897SOL    HW122530   1.486   8.079   4.314
 6897SOL    HW222531   1.433   8.024   4.445
 6898SOL     OW22532  12.183   5.660   5.921
 6898SOL    HW122533  12.194   5.751   5.897
 6898SOL    HW222534  12.205   5.610   5.842
 6899SOL     OW22535   8.896   3.988  12.940
 6899SOL    HW122536   8.873   3.896  12.929
 6899SOL    HW222537   8.862   4.031  12.862
 6900SOL     OW22538   2.911   7.701   0.540
 6900SOL    HW122539   2.880   7.620   0.500
 6900SOL    HW222540   2.970   7.672   0.610
 6901SOL     OW22541   4.973   5.067   8.628
 6901SOL    HW122542   4.936   5.126   8.562
 6901SOL    HW222543   4.951   4.979   8.597
 6902SOL     OW22544  10.616  14.172  11.169
 6902SOL    HW122545  10.617  14.111  11.243
 6902SOL    HW222546  10.558  14.132  11.105
 6903SOL     OW22547  10.165   2.193   6.407
 6903SOL    HW122548  10.174   2.203   6.312
 6903SOL    HW222549  10.112   2.268   6.434
 6904SOL     OW22550  12.820   9.738  10.800
 6904SOL    HW122551  12.791   9.736  10.892
 6904SOL    HW222552  12.850   9.649  10.783
 6905SOL     OW22553   0.272  12.155   2.798
 6905SOL    HW122554   0.255  12.239   2.756
 6905SOL    HW222555   0.331  12.176   2.870
 6906SOL     OW22556   9.611   8.155   2.407
 6906SOL    HW122557   9.686   8.196   2.451
 6906SOL    HW222558   9.628   8.169   2.314
 6907SOL     OW22559   1.535  13.079   1.808
 6907SOL    HW122560   1.501  13.094   1.720
 6907SOL    HW222561   1.576  12.993   1.804
 6908SOL     OW22562   5.131  12.104  11.687
 6908SOL    HW122563   5.194  12.174  11.708
 6908SOL    HW222564   5.065  12.148  11.633
 6909SOL     OW22565   5.206  14.605  10.683
 6909SOL    HW122566   5.133  14.652  10.723
 6909SOL    HW222567   5.281  14.624  10.740
 6910SOL     OW22568  12.074   8.523  13.276
 6910SOL    HW122569  11.981   8.520  13.297
 6910SOL    HW222570  12.118   8.513  13.360
 6911SOL     OW22571   9.419   5.992   3.243
 6911SOL    HW122572   9.326   5.998   3.222
 6911SOL    HW222573   9.463   6.043   3.176
 6912SOL     OW22574   4.326  11.928  13.268
 6912SOL    HW122575   4.367  11.992  13.209
 6912SOL    HW222576   4.374  11.847  13.252
 6913SOL     OW22577  13.274   7.576  14.524
 6913SOL    HW122578  13.188   7.601  14.491
 6913SOL    HW222579  13.304   7.508  14.464
 6914SOL     OW22580  10.586   6.980   1.405
 6914SOL    HW122581  10.665   6.986   1.351
 6914SOL    HW222582  10.618   6.956   1.491
 6915SOL     OW22583   3.966   6.139  10.560
 6915SOL    HW122584   3.982   6.046  10.577
 6915SOL    HW222585   3.890   6.160  10.613
 6916SOL     OW22586  11.398  12.220   4.170
 6916SOL    HW122587  11.453  12.157   4.217
 6916SOL    HW222588  11.406  12.194   4.078
 6917SOL     OW22589  13.289   4.231   9.729
 6917SOL    HW122590  13.374   4.243   9.686
 6917SOL    HW222591  13.249   4.157   9.682
 6918SOL     OW22592   7.468   7.395   1.118
 6918SOL    HW122593   7.562   7.377   1.115
 6918SOL    HW222594   7.462   7.482   1.160
 6919SOL     OW22595   5.519   3.039  11.820
 6919SOL    HW122596   5.457   3.053  11.891
 6919SOL    HW222597   5.564   2.957  11.843
 6920SOL     OW22598   1.761   4.150  12.427
 6920SOL    HW122599   1.817   4.079  12.397
 6920SOL    HW222600   1.802   4.229  12.391
 6921SOL     OW22601   8.187   6.296  10.775
 6921SOL    HW122602   8.273   6.272  10.810
 6921SOL    HW222603   8.135   6.318  10.852
 6922SOL     OW22604   2.701   9.286   4.526
 6922SOL    HW122605   2.732   9.228   4.456
 6922SOL    HW222606   2.730   9.373   4.499
 6923SOL     OW22607  11.614   5.484  12.849
 6923SOL    HW122608  11.702   5.501  12.882
 6923SOL    HW222609  11.621   5.397  12.808
 6924SOL     OW22610  11.040   9.949   5.379
 6924SOL    HW122611  10.974   9.915   5.318
 6924SOL    HW222612  11.019   9.908   5.463
 6925SOL     OW22613   7.709   1.695   7.839
 6925SOL    HW122614   7.793   1.697   7.884
 6925SOL    HW222615   7.705   1.607   7.800
 6926SOL     OW22616   4.630   7.986  11.898
 6926SOL    HW122617   4.540   7.954  11.903
 6926SOL    HW222618   4.623   8.081  11.906
 6927SOL     OW22619   6.062   8.896  10.079
 6927SOL    HW122620   6.037   8.931  10.165
 6927SOL    HW222621   6.136   8.838  10.098
 6928SOL     OW22622   7.076   4.685   3.800
 6928SOL    HW122623   7.156   4.648   3.836
 6928SOL    HW222624   7.011   4.614   3.806
 6929SOL     OW22625   6.820   2.581   4.068
 6929SOL    HW122626   6.741   2.619   4.106
 6929SOL    HW222627   6.892   2.616   4.121
 6930SOL     OW22628   1.228   6.673  14.314
 6930SOL    HW122629   1.301   6.612  14.302
 6930SOL    HW222630   1.160   6.641  14.255
 6931SOL     OW22631  11.180   5.400   9.744
 6931SOL    HW122632  11.188   5.490   9.711
 6931SOL    HW222633  11.086   5.387   9.755
 6932SOL     OW22634   4.856   2.950   7.117
 6932SOL    HW122635   4.922   3.001   7.165
 6932SOL    HW222636   4.772   2.978   7.154
 6933SOL     OW22637   1.426  14.815  14.354
 6933SOL    HW122638   1.469  14.736  14.321
 6933SOL    HW222639   1.465  14.829  14.441
 6934SOL     OW22640   4.905   0.217   0.955
 6934SOL    HW122641   4.866   0.172   0.880
 6934SOL    HW222642   4.910   0.309   0.928
 6935SOL     OW22643   2.163   2.522   8.814
 6935SOL    HW122644   2.143   2.545   8.905
 6935SOL    HW222645   2.097   2.568   8.762
 6936SOL     OW22646   6.468  10.255   4.750
 6936SOL    HW122647   6.421  10.207   4.682
 6936SOL    HW222648   6.512  10.326   4.703
 6937SOL     OW22649  12.321   8.761   3.842
 6937SOL    HW122650  12.232   8.739   3.869
 6937SOL    HW222651  12.354   8.819   3.911
 6938SOL     OW22652  12.709   7.497  10.243
 6938SOL    HW122653  12.745   7.423  10.291
 6938SOL    HW222654  12.737   7.574  10.292
 6939SOL     OW22655   1.513   6.184   7.770
 6939SOL    HW122656   1.488   6.173   7.862
 6939SOL    HW222657   1.601   6.147   7.764
 6940SOL     OW22658   4.480   9.138  11.414
 6940SOL    HW122659   4.420   9.209  11.437
 6940SOL    HW222660   4.430   9.084  11.353
 6941SOL     OW22661   3.946   3.565  11.536
 6941SOL    HW122662   4.008   3.637  11.526
 6941SOL    HW222663   3.861   3.608  11.546
 6942SOL     OW22664   3.064   9.620   7.829
 6942SOL    HW122665   3.038   9.530   7.810
 6942SOL    HW222666   3.152   9.612   7.867
 6943SOL     OW22667  13.233  12.420   8.359
 6943SOL    HW122668  13.242  12.512   8.337
 6943SOL    HW222669  13.297  12.406   8.429
 6944SOL     OW22670   7.772   8.602  13.928
 6944SOL    HW122671   7.710   8.594  14.001
 6944SOL    HW222672   7.730   8.661  13.866
 6945SOL     OW22673   9.053  14.138  13.820
 6945SOL    HW122674   9.083  14.176  13.737
 6945SOL    HW222675   9.012  14.211  13.867
 6946SOL     OW22676   1.169   0.347   6.264
 6946SOL    HW122677   1.179   0.320   6.355
 6946SOL    HW222678   1.155   0.442   6.268
 6947SOL     OW22679   3.478   8.259   4.549
 6947SOL    HW122680   3.489   8.243   4.643
 6947SOL    HW222681   3.420   8.188   4.520
 6948SOL     OW22682   5.709   7.371  13.993
 6948SOL    HW122683   5.630   7.319  13.981
 6948SOL    HW222684   5.704   7.439  13.926
 6949SOL     OW22685   2.147   6.424   8.166
 6949SOL    HW122686   2.059   6.454   8.145
 6949SOL    HW222687   2.202   6.462   8.098
 6950SOL     OW22688  13.419   1.279   7.152
 6950SOL    HW122689  13.356   1.268   7.081
 6950SOL    HW222690  13.370   1.322   7.222
 6951SOL     OW22691   2.958   1.985  11.486
 6951SOL    HW122692   2.950   2.016  11.576
 6951SOL    HW222693   3.039   2.025  11.454
 6952SOL     OW22694  13.878   6.946   6.585
 6952SOL    HW122695  13.888   6.934   6.680
 6952SOL    HW222696  13.914   7.033   6.568
 6953SOL     OW22697   3.578  13.063   8.360
 6953SOL    HW122698   3.561  13.027   8.447
 6953SOL    HW222699   3.499  13.112   8.338
 6954SOL     OW22700  11.724   4.402   4.736
 6954SOL    HW122701  11.815   4.390   4.764
 6954SOL    HW222702  11.718   4.494   4.712
 6955SOL     OW22703   8.076  12.979   9.644
 6955SOL    HW122704   8.126  12.920   9.587
 6955SOL    HW222705   7.992  12.991   9.598
 6956SOL     OW22706   9.853  14.196  14.788
 6956SOL    HW122707   9.854  14.117  14.842
 6956SOL    HW222708   9.847  14.268  14.850
 6957SOL     OW22709  14.028   8.606  11.029
 6957SOL    HW122710  14.106   8.662  11.032
 6957SOL    HW222711  14.037   8.548  11.105
 6958SOL     OW22712  13.771   3.531   9.512
 6958SOL    HW122713  13.852   3.549   9.465
 6958SOL    HW222714  13.782   3.575   9.597
 6959SOL     OW22715   5.420   7.594   1.287
 6959SOL    HW122716   5.345   7.570   1.232
 6959SOL    HW222717   5.442   7.514   1.334
 6960SOL     OW22718  11.272   1.303   8.975
 6960SOL    HW122719  11.221   1.237   9.022
 6960SOL    HW222720  11.237   1.386   9.007
 6961SOL     OW22721  13.257   7.582  11.982
 6961SOL    HW122722  13.324   7.581  11.913
 6961SOL    HW222723  13.248   7.674  12.007
 6962SOL     OW22724   9.023   3.634   0.986
 6962SOL    HW122725   8.934   3.670   0.993
 6962SOL    HW222726   9.035   3.619   0.893
 6963SOL     OW22727  13.196   7.916  13.272
 6963SOL    HW122728  13.149   7.866  13.338
 6963SOL    HW222729  13.230   7.992  13.319
 6964SOL     OW22730   1.937  10.695  14.526
 6964SOL    HW122731   1.947  10.790  14.531
 6964SOL    HW222732   2.026  10.661  14.520
 6965SOL     OW22733   8.751   4.849   0.152
 6965SOL    HW122734   8.839   4.815   0.133
 6965SOL    HW222735   8.751   4.861   0.247
 6966SOL     OW22736   5.314   0.212   6.358
 6966SOL    HW122737   5.244   0.200   6.422
 6966SOL    HW222738   5.270   0.245   6.280
 6967SOL     OW22739   0.201  14.725   9.822
 6967SOL    HW122740   0.260  14.787   9.780
 6967SOL    HW222741   0.157  14.681   9.750
 6968SOL     OW22742  13.746  10.640  12.529
 6968SOL    HW122743  13.670  10.678  12.484
 6968SOL    HW222744  13.708  10.578  12.591
 6969SOL     OW22745   7.106   1.276   4.692
 6969SOL    HW122746   7.051   1.277   4.770
 6969SOL    HW222747   7.044   1.286   4.619
 6970SOL     OW22748   0.262   1.645  14.727
 6970SOL    HW122749   0.316   1.587  14.781
 6970SOL    HW222750   0.259   1.602  14.642
 6971SOL     OW22751   0.443   1.345  14.225
 6971SOL    HW122752   0.491   1.411  14.275
 6971SOL    HW222753   0.498   1.267  14.227
 6972SOL     OW22754   5.380   7.003   5.968
 6972SOL    HW122755   5.342   7.077   5.922
 6972SOL    HW222756   5.334   6.927   5.932
 6973SOL     OW22757   0.717   1.615   8.207
 6973SOL    HW122758   0.640   1.653   8.248
 6973SOL    HW222759   0.758   1.687   8.160
 6974SOL     OW22760   1.165  10.284   4.210
 6974SOL    HW122761   1.210  10.257   4.289
 6974SOL    HW222762   1.235  10.309   4.150
 6975SOL     OW22763   2.424   2.023   2.250
 6975SOL    HW122764   2.432   2.108   2.292
 6975SOL    HW222765   2.343   2.028   2.200
 6976SOL     OW22766   3.914   1.264  13.732
 6976SOL    HW122767   3.862   1.343  13.743
 6976SOL    HW222768   3.980   1.269  13.802
 6977SOL     OW22769   6.937   6.160  10.166
 6977SOL    HW122770   6.902   6.197  10.247
 6977SOL    HW222771   6.879   6.192  10.098
 6978SOL     OW22772   0.112   6.139  12.440
 6978SOL    HW122773   0.050   6.093  12.497
 6978SOL    HW222774   0.058   6.202  12.393
 6979SOL     OW22775   6.224  13.365  12.920
 6979SOL    HW122776   6.294  13.420  12.884
 6979SOL    HW222777   6.163  13.354  12.848
 6980SOL     OW22778   6.125  10.488   8.794
 6980SOL    HW122779   6.155  10.488   8.703
 6980SOL    HW222780   6.177  10.420   8.837
 6981SOL     OW22781  12.249   8.076  14.090
 6981SOL    HW122782  12.215   8.164  14.105
 6981SOL    HW222783  12.331   8.090  14.043
 6982SOL     OW22784   4.703  11.670  12.554
 6982SOL    HW122785   4.639  11.604  12.527
 6982SOL    HW222786   4.712  11.657  12.648
 6983SOL     OW22787   1.178   5.481   1.707
 6983SOL    HW122788   1.245   5.422   1.741
 6983SOL    HW222789   1.136   5.431   1.637
 6984SOL     OW22790   4.553  11.070   0.309
 6984SOL    HW122791   4.460  11.093   0.299
 6984SOL    HW222792   4.570  11.081   0.403
 6985SOL     OW22793   0.813   4.243   8.661
 6985SOL    HW122794   0.824   4.338   8.670
 6985SOL    HW222795   0.735   4.223   8.713
 6986SOL     OW22796   5.190  11.272   4.526
 6986SOL    HW122797   5.196  11.242   4.436
 6986SOL    HW222798   5.103  11.244   4.555
 6987SOL     OW22799  14.269   1.270   3.689
 6987SOL    HW122800  14.240   1.251   3.600
 6987SOL    HW222801  14.310   1.189   3.719
 6988SOL     OW22802   1.201  10.532  11.518
 6988SOL    HW122803   1.189  10.442  11.545
 6988SOL    HW222804   1.287  10.556  11.552
 6989SOL     OW22805   1.925  10.100   0.453
 6989SOL    HW122806   1.924  10.064   0.542
 6989SOL    HW222807   1.965  10.186   0.463
 6990SOL     OW22808   7.740   3.600  13.208
 6990SOL    HW122809   7.691   3.596  13.290
 6990SOL    HW222810   7.789   3.517  13.206
 6991SOL     OW22811   3.722   2.141   2.172
 6991SOL    HW122812   3.660   2.188   2.115
 6991SOL    HW222813   3.795   2.202   2.182
 6992SOL     OW22814   3.395   5.080  13.661
 6992SOL    HW122815   3.443   5.135  13.723
 6992SOL    HW222816   3.458   5.067  13.589
 6993SOL     OW22817   1.709   5.143  11.669
 6993SOL    HW122818   1.697   5.202  11.594
 6993SOL    HW222819   1.631   5.155  11.722
 6994SOL     OW22820   7.621  13.374   0.927
 6994SOL    HW122821   7.678  13.392   0.852
 6994SOL    HW222822   7.551  13.320   0.891
 6995SOL     OW22823   4.540  10.688   7.557
 6995SOL    HW122824   4.488  10.610   7.538
 6995SOL    HW222825   4.614  10.656   7.609
 6996SOL     OW22826   8.788   9.609  13.969
 6996SOL    HW122827   8.764   9.651  13.886
 6996SOL    HW222828   8.874   9.644  13.990
 6997SOL     OW22829   3.087   2.747  10.639
 6997SOL    HW122830   3.004   2.793  10.654
 6997SOL    HW222831   3.135   2.804  10.579
 6998SOL     OW22832  10.305  10.299   7.153
 6998SOL    HW122833  10.352  10.224   7.116
 6998SOL    HW222834  10.330  10.373   7.098
 6999SOL     OW22835   0.371  14.860   9.184
 6999SOL    HW122836   0.446   0.046   9.192
 6999SOL    HW222837   0.407  14.775   9.210
 7000SOL     OW22838  10.899   9.047   1.549
 7000SOL    HW122839  10.929   9.136   1.530
 7000SOL    HW222840  10.919   8.998   1.470
 7001SOL     OW22841   2.912  10.270   8.457
 7001SOL    HW122842   2.927  10.342   8.518
 7001SOL    HW222843   2.911  10.192   8.513
 7002SOL     OW22844   6.907   7.198  14.806
 7002SOL    HW122845   6.935   7.114  14.842
 7002SOL    HW222846   6.979   7.258  14.827
 7003SOL     OW22847   8.723   4.588  11.003
 7003SOL    HW122848   8.699   4.506  10.960
 7003SOL    HW222849   8.659   4.652  10.971
 7004SOL     OW22850   3.172   4.635   3.573
 7004SOL    HW122851   3.193   4.684   3.493
 7004SOL    HW222852   3.223   4.554   3.566
 7005SOL     OW22853  11.935   0.405  11.002
 7005SOL    HW122854  11.891   0.405  11.087
 7005SOL    HW222855  11.865   0.386  10.939
 7006SOL     OW22856   8.793  12.941   2.006
 7006SOL    HW122857   8.789  12.941   1.910
 7006SOL    HW222858   8.796  13.034   2.029
 7007SOL     OW22859   5.716  11.826   7.040
 7007SOL    HW122860   5.659  11.752   7.057
 7007SOL    HW222861   5.756  11.846   7.124
 7008SOL     OW22862   4.014   7.804   8.059
 7008SOL    HW122863   3.989   7.889   8.097
 7008SOL    HW222864   4.110   7.808   8.054
 7009SOL     OW22865  14.486   0.356  14.328
 7009SOL    HW122866  14.506   0.436  14.377
 7009SOL    HW222867  14.548   0.355  14.256
 7010SOL     OW22868   6.360   8.711  14.065
 7010SOL    HW122869   6.366   8.761  13.983
 7010SOL    HW222870   6.329   8.624  14.038
 7011SOL     OW22871   3.687   4.084  13.351
 7011SOL    HW122872   3.765   4.136  13.370
 7011SOL    HW222873   3.625   4.146  13.313
 7012SOL     OW22874  10.745   0.881   7.229
 7012SOL    HW122875  10.718   0.790   7.218
 7012SOL    HW222876  10.828   0.888   7.181
 7013SOL     OW22877   7.489   8.012   5.848
 7013SOL    HW122878   7.525   8.063   5.776
 7013SOL    HW222879   7.472   8.077   5.917
 7014SOL     OW22880   4.821   5.050  10.488
 7014SOL    HW122881   4.757   5.106  10.443
 7014SOL    HW222882   4.884   5.112  10.525
 7015SOL     OW22883   4.686  12.931   6.050
 7015SOL    HW122884   4.714  12.866   6.114
 7015SOL    HW222885   4.603  12.898   6.016
 7016SOL     OW22886   8.246  10.545   1.036
 7016SOL    HW122887   8.250  10.623   0.981
 7016SOL    HW222888   8.325  10.496   1.013
 7017SOL     OW22889   4.636   9.827  10.537
 7017SOL    HW122890   4.694   9.870  10.600
 7017SOL    HW222891   4.694   9.782  10.476
 7018SOL     OW22892  14.661  11.068   5.203
 7018SOL    HW122893  14.626  10.983   5.178
 7018SOL    HW222894  14.690  11.108   5.121
 7019SOL     OW22895   6.915   3.045  13.127
 7019SOL    HW122896   6.923   3.135  13.094
 7019SOL    HW222897   6.821   3.029  13.131
 7020SOL     OW22898   0.018   0.026  14.844
 7020SOL    HW122899  14.843   0.107  14.832
 7020SOL    HW222900   0.008  14.854  14.760
 7021SOL     OW22901   2.298  11.170   6.837
 7021SOL    HW122902   2.312  11.228   6.913
 7021SOL    HW222903   2.343  11.214   6.765
 7022SOL     OW22904   9.312   2.760   5.038
 7022SOL    HW122905   9.312   2.838   5.093
 7022SOL    HW222906   9.394   2.716   5.059
 7023SOL     OW22907   1.091  13.131   0.267
 7023SOL    HW122908   1.105  13.089   0.182
 7023SOL    HW222909   1.178  13.139   0.304
 7024SOL     OW22910  14.789  10.740  12.628
 7024SOL    HW122911  14.743  10.680  12.570
 7024SOL    HW222912   0.006  10.712  12.624
 7025SOL     OW22913  12.684   2.429  12.599
 7025SOL    HW122914  12.619   2.478  12.550
 7025SOL    HW222915  12.732   2.380  12.532
 7026SOL     OW22916   6.827   7.347  12.527
 7026SOL    HW122917   6.914   7.330  12.490
 7026SOL    HW222918   6.825   7.296  12.607
 7027SOL     OW22919  12.011  12.341  10.576
 7027SOL    HW122920  11.939  12.374  10.630
 7027SOL    HW222921  12.046  12.267  10.627
 7028SOL     OW22922   7.627  14.544  11.647
 7028SOL    HW122923   7.659  14.460  11.614
 7028SOL    HW222924   7.706  14.597  11.658
 7029SOL     OW22925   9.122   2.246  12.092
 7029SOL    HW122926   9.076   2.211  12.016
 7029SOL    HW222927   9.134   2.339  12.072
 7030SOL     OW22928   7.090   4.922   1.919
 7030SOL    HW122929   7.160   4.857   1.916
 7030SOL    HW222930   7.135   5.004   1.938
 7031SOL     OW22931   2.205   4.264   0.316
 7031SOL    HW122932   2.119   4.306   0.317
 7031SOL    HW222933   2.251   4.306   0.243
 7032SOL     OW22934  11.254  13.771  11.778
 7032SOL    HW122935  11.293  13.810  11.856
 7032SOL    HW222936  11.257  13.677  11.794
 7033SOL     OW22937  10.576   4.105  12.277
 7033SOL    HW122938  10.661   4.065  12.261
 7033SOL    HW222939  10.592   4.199  12.268
 7034SOL     OW22940  14.514   6.184   3.019
 7034SOL    HW122941  14.515   6.258   3.079
 7034SOL    HW222942  14.502   6.107   3.075
 7035SOL     OW22943   3.019   8.514  11.592
 7035SOL    HW122944   3.057   8.436  11.552
 7035SOL    HW222945   2.953   8.543  11.529
 7036SOL     OW22946   6.136   2.069  12.243
 7036SOL    HW122947   6.140   2.058  12.338
 7036SOL    HW222948   6.077   2.000  12.213
 7037SOL     OW22949   9.482   6.673   9.850
 7037SOL    HW122950   9.556   6.646   9.904
 7037SOL    HW222951   9.420   6.600   9.856
 7038SOL     OW22952   8.415   5.244   5.948
 7038SOL    HW122953   8.326   5.267   5.920
 7038SOL    HW222954   8.442   5.176   5.887
 7039SOL     OW22955  10.499   1.144   3.129
 7039SOL    HW122956  10.443   1.070   3.107
 7039SOL    HW222957  10.586   1.120   3.096
 7040SOL     OW22958   4.124  13.201   4.654
 7040SOL    HW122959   4.068  13.262   4.703
 7040SOL    HW222960   4.075  13.119   4.653
 7041SOL     OW22961  13.601   0.805   9.036
 7041SOL    HW122962  13.590   0.711   9.023
 7041SOL    HW222963  13.654   0.811   9.116
 7042SOL     OW22964   6.912   5.589   9.411
 7042SOL    HW122965   7.005   5.584   9.389
 7042SOL    HW222966   6.895   5.510   9.462
 7043SOL     OW22967   0.067  11.625   4.423
 7043SOL    HW122968   0.065  11.530   4.435
 7043SOL    HW222969   0.136  11.640   4.358
 7044SOL     OW22970   1.014   2.841   6.430
 7044SOL    HW122971   1.066   2.815   6.506
 7044SOL    HW222972   1.005   2.936   6.438
 7045SOL     OW22973  13.331  12.906   7.885
 7045SOL    HW122974  13.387  12.983   7.877
 7045SOL    HW222975  13.360  12.863   7.965
 7046SOL     OW22976  11.256  12.012   1.778
 7046SOL    HW122977  11.261  12.084   1.840
 7046SOL    HW222978  11.304  12.044   1.701
 7047SOL     OW22979  13.942   0.917   9.545
 7047SOL    HW122980  13.855   0.939   9.512
 7047SOL    HW222981  13.948   0.963   9.628
 7048SOL     OW22982  13.828   8.790   2.542
 7048SOL    HW122983  13.741   8.750   2.538
 7048SOL    HW222984  13.887   8.723   2.505
 7049SOL     OW22985   7.531   8.578   1.268
 7049SOL    HW122986   7.454   8.599   1.320
 7049SOL    HW222987   7.498   8.565   1.179
 7050SOL     OW22988  14.716   2.892   5.094
 7050SOL    HW122989  14.733   2.892   5.000
 7050SOL    HW222990  14.655   2.820   5.108
 7051SOL     OW22991  10.202   7.503   1.036
 7051SOL    HW122992  10.189   7.429   1.095
 7051SOL    HW222993  10.227   7.575   1.093
 7052SOL     OW22994  13.331   8.767   3.279
 7052SOL    HW122995  13.323   8.856   3.244
 7052SOL    HW222996  13.246   8.727   3.262
 7053SOL     OW22997   5.182   9.267   6.410
 7053SOL    HW122998   5.102   9.233   6.369
 7053SOL    HW222999   5.219   9.325   6.344
 7054SOL     OW23000   2.963   9.957   6.787
 7054SOL    HW123001   2.919  10.001   6.860
 7054SOL    HW223002   3.029   9.902   6.829
 7055SOL     OW23003   6.460   6.470  11.562
 7055SOL    HW123004   6.528   6.429  11.508
 7055SOL    HW223005   6.508   6.510  11.634
 7056SOL     OW23006   8.342   1.888  13.782
 7056SOL    HW123007   8.291   1.936  13.717
 7056SOL    HW223008   8.277   1.836  13.829
 7057SOL     OW23009   3.654   9.549  11.971
 7057SOL    HW123010   3.733   9.544  11.918
 7057SOL    HW223011   3.653   9.468  12.021
 7058SOL     OW23012   4.047   1.324   8.551
 7058SOL    HW123013   4.030   1.241   8.596
 7058SOL    HW223014   4.016   1.391   8.612
 7059SOL     OW23015  10.271   4.543  12.854
 7059SOL    HW123016  10.320   4.623  12.871
 7059SOL    HW223017  10.222   4.561  12.774
 7060SOL     OW23018   9.498   1.394   0.147
 7060SOL    HW123019   9.557   1.429   0.213
 7060SOL    HW223020   9.426   1.355   0.197
 7061SOL     OW23021   9.694  10.700   2.919
 7061SOL    HW123022   9.699  10.789   2.954
 7061SOL    HW223023   9.648  10.709   2.836
 7062SOL     OW23024   9.043   7.381  12.287
 7062SOL    HW123025   9.002   7.427  12.359
 7062SOL    HW223026   8.979   7.384  12.216
 7063SOL     OW23027   3.214  13.385   5.945
 7063SOL    HW123028   3.179  13.307   5.989
 7063SOL    HW223029   3.276  13.350   5.880
 7064SOL     OW23030  12.969   8.835  12.439
 7064SOL    HW123031  12.988   8.830  12.345
 7064SOL    HW223032  12.874   8.829  12.445
 7065SOL     OW23033   8.594  14.124   1.233
 7065SOL    HW123034   8.611  14.145   1.141
 7065SOL    HW223035   8.564  14.033   1.231
 7066SOL     OW23036   9.235   1.166   3.106
 7066SOL    HW123037   9.171   1.236   3.116
 7066SOL    HW223038   9.309   1.193   3.160
 7067SOL     OW23039   0.958   9.674   1.489
 7067SOL    HW123040   0.966   9.764   1.520
 7067SOL    HW223041   1.044   9.635   1.506
 7068SOL     OW23042  11.124  12.398   4.457
 7068SOL    HW123043  11.029  12.410   4.460
 7068SOL    HW223044  11.144  12.388   4.364
 7069SOL     OW23045  12.803  12.354   3.929
 7069SOL    HW123046  12.887  12.326   3.894
 7069SOL    HW223047  12.812  12.345   4.024
 7070SOL     OW23048   3.275   9.650   0.960
 7070SOL    HW123049   3.345   9.586   0.958
 7070SOL    HW223050   3.196   9.598   0.977
 7071SOL     OW23051   4.368   8.701  12.380
 7071SOL    HW123052   4.317   8.689  12.460
 7071SOL    HW223053   4.415   8.618  12.370
 7072SOL     OW23054   5.861  13.589  12.835
 7072SOL    HW123055   5.942  13.593  12.886
 7072SOL    HW223056   5.884  13.536  12.759
 7073SOL     OW23057   2.863  11.052  10.632
 7073SOL    HW123058   2.940  11.108  10.621
 7073SOL    HW223059   2.822  11.084  10.712
 7074SOL     OW23060   8.209   7.738  11.090
 7074SOL    HW123061   8.149   7.664  11.080
 7074SOL    HW223062   8.170   7.807  11.037
 7075SOL     OW23063  14.520  10.556   5.851
 7075SOL    HW123064  14.542  10.646   5.826
 7075SOL    HW223065  14.452  10.529   5.790
 7076SOL     OW23066   5.743  11.610   7.662
 7076SOL    HW123067   5.821  11.631   7.714
 7076SOL    HW223068   5.735  11.683   7.601
 7077SOL     OW23069   6.897  14.374  14.489
 7077SOL    HW123070   6.857  14.315  14.553
 7077SOL    HW223071   6.888  14.461  14.527
 7078SOL     OW23072   0.927   7.199  14.214
 7078SOL    HW123073   0.947   7.276  14.160
 7078SOL    HW223074   0.989   7.203  14.286
 7079SOL     OW23075   4.679   0.729   9.668
 7079SOL    HW123076   4.629   0.737   9.750
 7079SOL    HW223077   4.709   0.818   9.650
 7080SOL     OW23078   4.942  10.943   3.932
 7080SOL    HW123079   4.906  10.865   3.973
 7080SOL    HW223080   4.931  10.928   3.838
 7081SOL     OW23081   5.409  13.073  10.630
 7081SOL    HW123082   5.413  13.111  10.718
 7081SOL    HW223083   5.332  13.113  10.591
 7082SOL     OW23084   2.933   4.956  13.947
 7082SOL    HW123085   3.024   4.976  13.971
 7082SOL    HW223086   2.933   4.863  13.928
 7083SOL     OW23087   2.292   6.784   4.398
 7083SOL    HW123088   2.202   6.815   4.387
 7083SOL    HW223089   2.327   6.838   4.470
 7084SOL     OW23090  14.146   1.029   1.671
 7084SOL    HW123091  14.122   0.969   1.742
 7084SOL    HW223092  14.132   1.117   1.707
 7085SOL     OW23093   6.241   1.976   2.777
 7085SOL    HW123094   6.225   1.899   2.830
 7085SOL    HW223095   6.212   1.952   2.689
 7086SOL     OW23096  13.252   6.284  11.638
 7086SOL    HW123097  13.220   6.275  11.548
 7086SOL    HW223098  13.296   6.202  11.657
 7087SOL     OW23099   4.218   9.235   9.922
 7087SOL    HW123100   4.196   9.142   9.919
 7087SOL    HW223101   4.301   9.241   9.874
 7088SOL     OW23102   9.679   3.155   3.604
 7088SOL    HW123103   9.735   3.197   3.539
 7088SOL    HW223104   9.708   3.192   3.688
 7089SOL     OW23105   8.993   2.783   6.551
 7089SOL    HW123106   9.083   2.770   6.520
 7089SOL    HW223107   8.941   2.721   6.499
 7090SOL     OW23108  11.272  10.340   3.836
 7090SOL    HW123109  11.239  10.253   3.857
 7090SOL    HW223110  11.367  10.331   3.841
 7091SOL     OW23111   7.905   7.065   3.046
 7091SOL    HW123112   7.887   7.123   3.120
 7091SOL    HW223113   7.861   7.107   2.972
 7092SOL     OW23114   2.851  10.339  12.291
 7092SOL    HW123115   2.914  10.410  12.304
 7092SOL    HW223116   2.791  10.348  12.365
 7093SOL     OW23117   3.276   1.607   9.116
 7093SOL    HW123118   3.285   1.696   9.149
 7093SOL    HW223119   3.276   1.617   9.021
 7094SOL     OW23120   4.750  12.620   0.932
 7094SOL    HW123121   4.844  12.630   0.918
 7094SOL    HW223122   4.710  12.692   0.884
 7095SOL     OW23123   7.570  11.163  11.992
 7095SOL    HW123124   7.532  11.138  11.908
 7095SOL    HW223125   7.608  11.082  12.027
 7096SOL     OW23126   8.611   4.526   3.439
 7096SOL    HW123127   8.687   4.583   3.426
 7096SOL    HW223128   8.634   4.471   3.514
 7097SOL     OW23129  12.448   0.684  12.528
 7097SOL    HW123130  12.363   0.716  12.558
 7097SOL    HW223131  12.449   0.704  12.434
 7098SOL     OW23132   2.087  11.018   5.569
 7098SOL    HW123133   2.037  11.089   5.528
 7098SOL    HW223134   2.027  10.980   5.632
 7099SOL     OW23135  13.426   6.827   5.573
 7099SOL    HW123136  13.416   6.762   5.503
 7099SOL    HW223137  13.501   6.880   5.545
 7100SOL     OW23138   8.712  13.216   3.852
 7100SOL    HW123139   8.677  13.134   3.818
 7100SOL    HW223140   8.750  13.193   3.937
 7101SOL     OW23141  13.383  10.497   1.170
 7101SOL    HW123142  13.471  10.494   1.133
 7101SOL    HW223143  13.377  10.416   1.222
 7102SOL     OW23144   6.613   8.003  14.172
 7102SOL    HW123145   6.541   7.957  14.215
 7102SOL    HW223146   6.673   7.934  14.145
 7103SOL     OW23147   5.899   3.091  10.512
 7103SOL    HW123148   5.863   3.128  10.592
 7103SOL    HW223149   5.833   3.110  10.445
 7104SOL     OW23150   1.496  11.400  14.543
 7104SOL    HW123151   1.523  11.476  14.491
 7104SOL    HW223152   1.418  11.367  14.498
 7105SOL     OW23153   5.977   8.417  11.969
 7105SOL    HW123154   5.889   8.380  11.965
 7105SOL    HW223155   6.026   8.357  12.026
 7106SOL     OW23156   5.294   9.749   3.041
 7106SOL    HW123157   5.301   9.704   3.126
 7106SOL    HW223158   5.316   9.840   3.061
 7107SOL     OW23159  12.011  13.544   5.856
 7107SOL    HW123160  12.043  13.483   5.789
 7107SOL    HW223161  11.950  13.491   5.908
 7108SOL     OW23162   2.501  14.021  11.260
 7108SOL    HW123163   2.407  14.018  11.277
 7108SOL    HW223164   2.514  13.960  11.187
 7109SOL     OW23165   3.722   9.060  14.680
 7109SOL    HW123166   3.768   9.121  14.622
 7109SOL    HW223167   3.668   9.117  14.735
 7110SOL     OW23168   9.283   1.825  14.823
 7110SOL    HW123169   9.203   1.874  14.804
 7110SOL    HW223170   9.265   1.736  14.792
 7111SOL     OW23171   9.483   9.151   7.889
 7111SOL    HW123172   9.518   9.162   7.978
 7111SOL    HW223173   9.527   9.073   7.855
 7112SOL     OW23174  11.524  14.863   6.727
 7112SOL    HW123175  11.453  14.809   6.760
 7112SOL    HW223176  11.604  14.824   6.764
 7113SOL     OW23177   7.103   1.047   4.320
 7113SOL    HW123178   7.143   1.133   4.329
 7113SOL    HW223179   7.061   1.049   4.233
 7114SOL     OW23180  13.554  10.072   3.575
 7114SOL    HW123181  13.501   9.995   3.595
 7114SOL    HW223182  13.623  10.072   3.641
 7115SOL     OW23183   1.847   6.638  14.229
 7115SOL    HW123184   1.761   6.606  14.200
 7115SOL    HW223185   1.851   6.728  14.198
 7116SOL     OW23186   5.213   1.037   4.724
 7116SOL    HW123187   5.164   0.999   4.651
 7116SOL    HW223188   5.146   1.067   4.785
 7117SOL     OW23189   2.461   2.844   5.051
 7117SOL    HW123190   2.392   2.783   5.022
 7117SOL    HW223191   2.444   2.924   5.002
 7118SOL     OW23192   8.536   4.975   9.797
 7118SOL    HW123193   8.525   5.038   9.726
 7118SOL    HW223194   8.592   5.020   9.861
 7119SOL     OW23195  10.482   2.772  10.674
 7119SOL    HW123196  10.502   2.852  10.723
 7119SOL    HW223197  10.500   2.795  10.583
 7120SOL     OW23198   8.978  12.024   2.887
 7120SOL    HW123199   9.027  12.033   2.969
 7120SOL    HW223200   8.949  11.933   2.887
 7121SOL     OW23201   7.275  11.883  14.144
 7121SOL    HW123202   7.325  11.952  14.188
 7121SOL    HW223203   7.206  11.859  14.205
 7122SOL     OW23204   6.839  10.039   2.864
 7122SOL    HW123205   6.797  10.017   2.781
 7122SOL    HW223206   6.932  10.041   2.844
 7123SOL     OW23207  13.899   7.613   7.239
 7123SOL    HW123208  13.876   7.546   7.304
 7123SOL    HW223209  13.960   7.671   7.285
 7124SOL     OW23210   2.587   0.821   3.080
 7124SOL    HW123211   2.630   0.771   3.011
 7124SOL    HW223212   2.653   0.883   3.110
 7125SOL     OW23213   4.777  12.104   5.417
 7125SOL    HW123214   4.792  12.020   5.460
 7125SOL    HW223215   4.691  12.094   5.375
 7126SOL     OW23216  13.603  14.142   9.068
 7126SOL    HW123217  13.667  14.191   9.121
 7126SOL    HW223218  13.550  14.095   9.132
 7127SOL     OW23219  13.805   4.041  12.952
 7127SOL    HW123220  13.782   4.116  12.898
 7127SOL    HW223221  13.837   4.079  13.034
 7128SOL     OW23222   9.795   1.147   6.517
 7128SOL    HW123223   9.808   1.222   6.460
 7128SOL    HW223224   9.700   1.144   6.531
 7129SOL     OW23225   9.861   4.742   7.603
 7129SOL    HW123226   9.909   4.780   7.529
 7129SOL    HW223227   9.866   4.809   7.672
 7130SOL     OW23228   4.531   0.677   5.199
 7130SOL    HW123229   4.578   0.753   5.166
 7130SOL    HW223230   4.468   0.713   5.262
 7131SOL     OW23231   8.851   9.849   3.378
 7131SOL    HW123232   8.859   9.851   3.474
 7131SOL    HW223233   8.833   9.757   3.358
 7132SOL     OW23234   6.083  13.832   6.670
 7132SOL    HW123235   6.049  13.911   6.629
 7132SOL    HW223236   6.039  13.828   6.755
 7133SOL     OW23237  11.218   0.258   8.538
 7133SOL    HW123238  11.276   0.334   8.537
 7133SOL    HW223239  11.189   0.249   8.447
 7134SOL     OW23240   7.339   5.710   2.237
 7134SOL    HW123241   7.267   5.728   2.298
 7134SOL    HW223242   7.339   5.785   2.177
 7135SOL     OW23243  12.490   7.444  10.897
 7135SOL    HW123244  12.538   7.475  10.973
 7135SOL    HW223245  12.439   7.369  10.929
 7136SOL     OW23246   0.885   9.078  14.409
 7136SOL    HW123247   0.946   9.033  14.351
 7136SOL    HW223248   0.937   9.099  14.486
 7137SOL     OW23249   9.547   2.815   9.148
 7137SOL    HW123250   9.551   2.838   9.055
 7137SOL    HW223251   9.530   2.898   9.192
 7138SOL     OW23252   6.086  14.210  14.754
 7138SOL    HW123253   6.006  14.222  14.804
 7138SOL    HW223254   6.075  14.124  14.713
 7139SOL     OW23255   3.527  13.446  11.114
 7139SOL    HW123256   3.432  13.437  11.117
 7139SOL    HW223257   3.550  13.428  11.023
 7140SOL     OW23258   0.885   5.815   9.844
 7140SOL    HW123259   0.892   5.744   9.908
 7140SOL    HW223260   0.973   5.852   9.840
 7141SOL     OW23261  11.231  10.404  14.306
 7141SOL    HW123262  11.320  10.375  14.327
 7141SOL    HW223263  11.181  10.390  14.387
 7142SOL     OW23264  13.483   4.969   0.797
 7142SOL    HW123265  13.486   4.875   0.812
 7142SOL    HW223266  13.392   4.988   0.775
 7143SOL     OW23267  10.850   0.688  14.535
 7143SOL    HW123268  10.892   0.690  14.449
 7143SOL    HW223269  10.757   0.705  14.517
 7144SOL     OW23270  10.442  10.343   7.882
 7144SOL    HW123271  10.506  10.373   7.818
 7144SOL    HW223272  10.451  10.247   7.882
 7145SOL     OW23273   8.408   6.604   7.364
 7145SOL    HW123274   8.316   6.580   7.353
 7145SOL    HW223275   8.456   6.527   7.335
 7146SOL     OW23276  10.152   4.578  14.168
 7146SOL    HW123277  10.247   4.573  14.169
 7146SOL    HW223278  10.128   4.613  14.254
 7147SOL     OW23279   1.157   1.727   1.913
 7147SOL    HW123280   1.107   1.696   1.837
 7147SOL    HW223281   1.134   1.819   1.921
 7148SOL     OW23282   7.949   9.988   7.832
 7148SOL    HW123283   7.872  10.045   7.841
 7148SOL    HW223284   7.943   9.954   7.743
 7149SOL     OW23285   2.897   7.642   8.403
 7149SOL    HW123286   2.971   7.583   8.415
 7149SOL    HW223287   2.937   7.729   8.399
 7150SOL     OW23288  12.001  14.194   9.003
 7150SOL    HW123289  12.035  14.282   8.986
 7150SOL    HW223290  12.049  14.164   9.080
 7151SOL     OW23291  11.903  13.403  11.846
 7151SOL    HW123292  11.941  13.332  11.898
 7151SOL    HW223293  11.903  13.479  11.905
 7152SOL     OW23294   6.874   2.001   2.288
 7152SOL    HW123295   6.957   2.046   2.301
 7152SOL    HW223296   6.852   1.966   2.374
 7153SOL     OW23297  10.252   3.209   3.685
 7153SOL    HW123298  10.283   3.185   3.772
 7153SOL    HW223299  10.232   3.125   3.642
 7154SOL     OW23300   4.520   2.478   2.631
 7154SOL    HW123301   4.507   2.406   2.569
 7154SOL    HW223302   4.577   2.539   2.585
 7155SOL     OW23303   7.505   9.263   3.586
 7155SOL    HW123304   7.597   9.236   3.579
 7155SOL    HW223305   7.505   9.331   3.654
 7156SOL     OW23306   3.560   4.125   5.228
 7156SOL    HW123307   3.632   4.183   5.254
 7156SOL    HW223308   3.525   4.164   5.148
 7157SOL     OW23309   6.184   4.034   1.450
 7157SOL    HW123310   6.222   3.966   1.506
 7157SOL    HW223311   6.090   4.031   1.467
 7158SOL     OW23312   9.780   6.443   7.996
 7158SOL    HW123313   9.823   6.358   7.988
 7158SOL    HW223314   9.691   6.422   8.025
 7159SOL     OW23315   3.248   4.551   4.293
 7159SOL    HW123316   3.241   4.537   4.198
 7159SOL    HW223317   3.174   4.608   4.314
 7160SOL     OW23318  12.824   1.783   6.249
 7160SOL    HW123319  12.827   1.709   6.188
 7160SOL    HW223320  12.747   1.833   6.223
 7161SOL     OW23321  14.690   6.464   5.225
 7161SOL    HW123322  14.670   6.422   5.309
 7161SOL    HW223323  14.648   6.550   5.231
 7162SOL     OW23324  10.641   5.876   1.908
 7162SOL    HW123325  10.706   5.851   1.972
 7162SOL    HW223326  10.660   5.967   1.888
 7163SOL     OW23327  14.433  12.946   5.757
 7163SOL    HW123328  14.462  12.927   5.667
 7163SOL    HW223329  14.468  13.033   5.775
 7164SOL     OW23330   3.439   2.846   0.104
 7164SOL    HW123331   3.385   2.769   0.122
 7164SOL    HW223332   3.495   2.856   0.181
 7165SOL     OW23333   8.072  11.201   8.904
 7165SOL    HW123334   8.020  11.140   8.852
 7165SOL    HW223335   8.115  11.145   8.969
 7166SOL     OW23336   6.562   2.009   3.225
 7166SOL    HW123337   6.603   1.957   3.293
 7166SOL    HW223338   6.522   2.082   3.271
 7167SOL     OW23339   0.238  13.985   6.888
 7167SOL    HW123340   0.279  13.910   6.931
 7167SOL    HW223341   0.147  13.957   6.873
 7168SOL     OW23342   2.293   4.902  11.961
 7168SOL    HW123343   2.328   4.886  11.873
 7168SOL    HW223344   2.368   4.936  12.010
 7169SOL     OW23345   2.909   6.929   4.868
 7169SOL    HW123346   2.896   6.861   4.934
 7169SOL    HW223347   2.831   6.984   4.873
 7170SOL     OW23348  11.622   8.156  13.008
 7170SOL    HW123349  11.527   8.169  13.004
 7170SOL    HW223350  11.638   8.128  13.098
 7171SOL     OW23351  12.567   2.497  12.043
 7171SOL    HW123352  12.574   2.438  11.967
 7171SOL    HW223353  12.638   2.560  12.031
 7172SOL     OW23354  11.530   0.207  11.293
 7172SOL    HW123355  11.494   0.268  11.357
 7172SOL    HW223356  11.562   0.133  11.345
 7173SOL     OW23357   2.189   9.447   3.307
 7173SOL    HW123358   2.156   9.533   3.333
 7173SOL    HW223359   2.250   9.465   3.236
 7174SOL     OW23360  13.886   9.608   8.538
 7174SOL    HW123361  13.953   9.558   8.490
 7174SOL    HW223362  13.935   9.670   8.590
 7175SOL     OW23363  13.602   4.358   1.305
 7175SOL    HW123364  13.570   4.410   1.379
 7175SOL    HW223365  13.524   4.342   1.251
 7176SOL     OW23366  12.327   2.715   8.759
 7176SOL    HW123367  12.347   2.807   8.738
 7176SOL    HW223368  12.365   2.702   8.846
 7177SOL     OW23369   1.563   9.401  14.558
 7177SOL    HW123370   1.529   9.389  14.647
 7177SOL    HW223371   1.629   9.333  14.549
 7178SOL     OW23372  14.209   3.193   7.641
 7178SOL    HW123373  14.304   3.187   7.640
 7178SOL    HW223374  14.185   3.195   7.734
 7179SOL     OW23375   8.987   0.685   4.583
 7179SOL    HW123376   8.913   0.706   4.639
 7179SOL    HW223377   9.064   0.695   4.640
 7180SOL     OW23378   6.182  10.049   2.275
 7180SOL    HW123379   6.241  10.036   2.350
 7180SOL    HW223380   6.189  10.142   2.255
 7181SOL     OW23381   9.961   1.702   4.238
 7181SOL    HW123382   9.926   1.663   4.158
 7181SOL    HW223383   9.991   1.628   4.289
 7182SOL     OW23384  11.012  13.394  11.342
 7182SOL    HW123385  10.929  13.423  11.303
 7182SOL    HW223386  11.061  13.476  11.355
 7183SOL     OW23387  11.206   6.863   7.964
 7183SOL    HW123388  11.277   6.858   7.899
 7183SOL    HW223389  11.250   6.854   8.048
 7184SOL     OW23390   5.493   4.386   4.280
 7184SOL    HW123391   5.474   4.399   4.187
 7184SOL    HW223392   5.581   4.348   4.281
 7185SOL     OW23393  12.159   0.379   6.127
 7185SOL    HW123394  12.111   0.358   6.207
 7185SOL    HW223395  12.152   0.300   6.074
 7186SOL     OW23396  11.447   3.826  13.369
 7186SOL    HW123397  11.361   3.854  13.402
 7186SOL    HW223398  11.462   3.742  13.411
 7187SOL     OW23399   7.672  10.757  13.234
 7187SOL    HW123400   7.645  10.698  13.305
 7187SOL    HW223401   7.691  10.699  13.161
 7188SOL     OW23402   9.537   2.502  13.315
 7188SOL    HW123403   9.578   2.470  13.235
 7188SOL    HW223404   9.610   2.533  13.369
 7189SOL     OW23405   5.315  12.529   2.555
 7189SOL    HW123406   5.360  12.488   2.629
 7189SOL    HW223407   5.256  12.593   2.596
 7190SOL     OW23408   0.993   9.967  11.965
 7190SOL    HW123409   1.082   9.934  11.958
 7190SOL    HW223410   0.945   9.924  11.895
 7191SOL     OW23411   2.912   9.738   9.742
 7191SOL    HW123412   2.851   9.703   9.677
 7191SOL    HW223413   2.965   9.802   9.694
 7192SOL     OW23414   5.437   6.096   4.341
 7192SOL    HW123415   5.356   6.132   4.378
 7192SOL    HW223416   5.444   6.008   4.379
 7193SOL     OW23417   2.464  12.387  14.106
 7193SOL    HW123418   2.518  12.309  14.094
 7193SOL    HW223419   2.519  12.458  14.072
 7194SOL     OW23420  11.587  10.912   2.123
 7194SOL    HW123421  11.501  10.927   2.162
 7194SOL    HW223422  11.599  10.817   2.126
 7195SOL     OW23423   5.161  11.602   2.460
 7195SOL    HW123424   5.116  11.679   2.492
 7195SOL    HW223425   5.117  11.580   2.378
 7196SOL     OW23426   4.493   3.739   2.721
 7196SOL    HW123427   4.511   3.717   2.630
 7196SOL    HW223428   4.503   3.656   2.768
 7197SOL     OW23429   4.740  14.118   7.334
 7197SOL    HW123430   4.742  14.037   7.282
 7197SOL    HW223431   4.647  14.133   7.351
 7198SOL     OW23432  13.346   4.555   8.923
 7198SOL    HW123433  13.380   4.535   8.835
 7198SOL    HW223434  13.258   4.519   8.923
 7199SOL     OW23435  13.153  11.844   0.665
 7199SOL    HW123436  13.059  11.826   0.664
 7199SOL    HW223437  13.179  11.826   0.756
 7200SOL     OW23438  12.518  11.811  10.641
 7200SOL    HW123439  12.430  11.776  10.657
 7200SOL    HW223440  12.504  11.879  10.575
 7201SOL     OW23441   0.518   0.379  13.599
 7201SOL    HW123442   0.562   0.303  13.638
 7201SOL    HW223443   0.534   0.450  13.661
 7202SOL     OW23444  13.288   8.205   5.975
 7202SOL    HW123445  13.375   8.216   5.936
 7202SOL    HW223446  13.286   8.269   6.047
 7203SOL     OW23447   9.404  13.717   6.002
 7203SOL    HW123448   9.408  13.636   6.053
 7203SOL    HW223449   9.396  13.687   5.911
 7204SOL     OW23450   7.209   3.388   0.353
 7204SOL    HW123451   7.207   3.301   0.312
 7204SOL    HW223452   7.253   3.444   0.289
 7205SOL     OW23453  10.167   8.578   4.777
 7205SOL    HW123454  10.141   8.506   4.836
 7205SOL    HW223455  10.181   8.535   4.692
 7206SOL     OW23456   3.279   7.897   2.051
 7206SOL    HW123457   3.212   7.850   2.001
 7206SOL    HW223458   3.334   7.828   2.087
 7207SOL     OW23459   0.949  14.523  10.635
 7207SOL    HW123460   0.968  14.447  10.690
 7207SOL    HW223461   1.034  14.560  10.614
 7208SOL     OW23462   3.794   8.794   9.285
 7208SOL    HW123463   3.742   8.765   9.210
 7208SOL    HW223464   3.835   8.714   9.318
 7209SOL     OW23465   1.918  12.113   7.639
 7209SOL    HW123466   1.853  12.177   7.610
 7209SOL    HW223467   1.886  12.082   7.724
 7210SOL     OW23468   3.503  13.162   5.352
 7210SOL    HW123469   3.486  13.069   5.339
 7210SOL    HW223470   3.416  13.200   5.363
 7211SOL     OW23471   8.646   3.930  11.666
 7211SOL    HW123472   8.682   3.999  11.722
 7211SOL    HW223473   8.707   3.857  11.677
 7212SOL     OW23474   7.019  11.491   6.960
 7212SOL    HW123475   6.965  11.460   7.033
 7212SOL    HW223476   7.030  11.414   6.904
 7213SOL     OW23477  13.434   2.810  10.963
 7213SOL    HW123478  13.376   2.868  11.012
 7213SOL    HW223479  13.380   2.734  10.942
 7214SOL     OW23480  14.800  10.383   8.670
 7214SOL    HW123481   0.013  10.420   8.679
 7214SOL    HW223482  14.742  10.459   8.665
 7215SOL     OW23483   3.990   7.440   7.406
 7215SOL    HW123484   3.919   7.417   7.466
 7215SOL    HW223485   3.965   7.401   7.323
 7216SOL     OW23486   6.365  14.069   7.500
 7216SOL    HW123487   6.460  14.068   7.493
 7216SOL    HW223488   6.346  14.127   7.573
 7217SOL     OW23489  13.598   1.802   2.569
 7217SOL    HW123490  13.637   1.868   2.627
 7217SOL    HW223491  13.664   1.734   2.561
 7218SOL     OW23492  12.284   4.923   9.469
 7218SOL    HW123493  12.307   4.940   9.378
 7218SOL    HW223494  12.323   4.995   9.518
 7219SOL     OW23495  11.940   4.949   6.013
 7219SOL    HW123496  12.011   4.909   5.964
 7219SOL    HW223497  11.978   4.968   6.099
 7220SOL     OW23498  14.531   4.825   8.759
 7220SOL    HW123499  14.589   4.753   8.734
 7220SOL    HW223500  14.453   4.783   8.793
 7221SOL     OW23501   5.642   6.721   4.345
 7221SOL    HW123502   5.590   6.755   4.272
 7221SOL    HW223503   5.640   6.790   4.411
 7222SOL     OW23504   3.734   6.733  12.631
 7222SOL    HW123505   3.677   6.657  12.646
 7222SOL    HW223506   3.724   6.751  12.537
 7223SOL     OW23507  13.642   5.539   8.617
 7223SOL    HW123508  13.626   5.471   8.551
 7223SOL    HW223509  13.584   5.516   8.690
 7224SOL     OW23510   1.923   5.016   9.784
 7224SOL    HW123511   1.916   4.943   9.723
 7224SOL    HW223512   1.881   5.089   9.738
 7225SOL     OW23513   1.238   4.100  13.196
 7225SOL    HW123514   1.292   4.055  13.260
 7225SOL    HW223515   1.188   4.164  13.247
 7226SOL     OW23516   5.241   1.336   0.041
 7226SOL    HW123517   5.271   1.414   0.088
 7226SOL    HW223518   5.314   1.313  14.858
 7227SOL     OW23519   6.838   8.796   4.671
 7227SOL    HW123520   6.821   8.773   4.580
 7227SOL    HW223521   6.885   8.721   4.707
 7228SOL     OW23522   8.015   4.002   3.422
 7228SOL    HW123523   7.923   3.999   3.393
 7228SOL    HW223524   8.019   4.078   3.480
 7229SOL     OW23525   9.052   3.843   4.837
 7229SOL    HW123526   8.991   3.913   4.813
 7229SOL    HW223527   9.016   3.764   4.796
 7230SOL     OW23528   8.394   2.451  13.459
 7230SOL    HW123529   8.314   2.409  13.488
 7230SOL    HW223530   8.374   2.545  13.459
 7231SOL     OW23531   9.705   1.970  14.209
 7231SOL    HW123532   9.610   1.958  14.208
 7231SOL    HW223533   9.718   2.062  14.233
 7232SOL     OW23534   8.194   0.179  14.184
 7232SOL    HW123535   8.167   0.134  14.264
 7232SOL    HW223536   8.260   0.242  14.213
 7233SOL     OW23537  12.843  13.253  12.535
 7233SOL    HW123538  12.866  13.333  12.488
 7233SOL    HW223539  12.747  13.251  12.534
 7234SOL     OW23540  14.789  12.688   1.818
 7234SOL    HW123541  14.871  12.686   1.768
 7234SOL    HW223542  14.803  12.757   1.883
 7235SOL     OW23543   1.996  11.426   8.877
 7235SOL    HW123544   1.928  11.358   8.870
 7235SOL    HW223545   2.055  11.410   8.804
 7236SOL     OW23546  10.642   3.596   5.195
 7236SOL    HW123547  10.655   3.641   5.111
 7236SOL    HW223548  10.615   3.666   5.255
 7237SOL     OW23549  13.959   5.156   4.650
 7237SOL    HW123550  14.039   5.205   4.667
 7237SOL    HW223551  13.927   5.190   4.567
 7238SOL     OW23552   6.732  14.463  12.184
 7238SOL    HW123553   6.677  14.386  12.169
 7238SOL    HW223554   6.727  14.512  12.102
 7239SOL     OW23555   9.992   4.270   9.780
 7239SOL    HW123556   9.909   4.293   9.739
 7239SOL    HW223557  10.018   4.349   9.828
 7240SOL     OW23558   1.266   4.109  10.864
 7240SOL    HW123559   1.259   4.037  10.927
 7240SOL    HW223560   1.224   4.183  10.907
 7241SOL     OW23561  12.893   6.278   5.628
 7241SOL    HW123562  12.911   6.325   5.709
 7241SOL    HW223563  12.800   6.294   5.611
 7242SOL     OW23564   0.988   2.514   7.944
 7242SOL    HW123565   0.911   2.561   7.978
 7242SOL    HW223566   1.061   2.574   7.959
 7243SOL     OW23567  13.836  12.121  11.695
 7243SOL    HW123568  13.815  12.132  11.602
 7243SOL    HW223569  13.929  12.100  11.697
 7244SOL     OW23570   1.110   3.448   7.422
 7244SOL    HW123571   1.090   3.355   7.407
 7244SOL    HW223572   1.047   3.475   7.489
 7245SOL     OW23573   2.388   5.693   0.418
 7245SOL    HW123574   2.343   5.667   0.498
 7245SOL    HW223575   2.320   5.729   0.362
 7246SOL     OW23576   0.934   4.967  11.495
 7246SOL    HW123577   0.850   4.980  11.452
 7246SOL    HW223578   0.964   4.881  11.465
 7247SOL     OW23579  13.609   8.202   2.788
 7247SOL    HW123580  13.578   8.292   2.798
 7247SOL    HW223581  13.638   8.176   2.875
 7248SOL     OW23582   9.200  12.277   1.081
 7248SOL    HW123583   9.219  12.260   1.173
 7248SOL    HW223584   9.192  12.191   1.041
 7249SOL     OW23585  11.806  13.608   0.309
 7249SOL    HW123586  11.783  13.638   0.397
 7249SOL    HW223587  11.866  13.535   0.324
 7250SOL     OW23588   0.059   7.773   4.189
 7250SOL    HW123589   0.084   7.809   4.104
 7250SOL    HW223590   0.129   7.712   4.212
 7251SOL     OW23591  10.150   3.474  14.755
 7251SOL    HW123592  10.167   3.506  14.667
 7251SOL    HW223593  10.056   3.456  14.757
 7252SOL     OW23594   0.120  11.474  11.281
 7252SOL    HW123595   0.142  11.483  11.188
 7252SOL    HW223596   0.057  11.544  11.298
 7253SOL     OW23597   0.667   7.117   3.015
 7253SOL    HW123598   0.695   7.100   2.925
 7253SOL    HW223599   0.749   7.123   3.064
 7254SOL     OW23600   6.296  13.660  13.173
 7254SOL    HW123601   6.313  13.644  13.080
 7254SOL    HW223602   6.345  13.592  13.218
 7255SOL     OW23603   6.801   4.486   2.336
 7255SOL    HW123604   6.886   4.458   2.370
 7255SOL    HW223605   6.816   4.574   2.304
 7256SOL     OW23606  14.820   1.797   2.188
 7256SOL    HW123607  14.837   1.833   2.275
 7256SOL    HW223608  14.767   1.719   2.204
 7257SOL     OW23609  12.025  12.383  14.431
 7257SOL    HW123610  11.940  12.364  14.390
 7257SOL    HW223611  12.087  12.331  14.381
 7258SOL     OW23612   1.027  10.647   9.060
 7258SOL    HW123613   1.010  10.584   9.130
 7258SOL    HW223614   0.948  10.701   9.056
 7259SOL     OW23615  11.791   2.298   6.692
 7259SOL    HW123616  11.731   2.335   6.627
 7259SOL    HW223617  11.737   2.287   6.770
 7260SOL     OW23618  11.412   3.541   7.763
 7260SOL    HW123619  11.418   3.633   7.788
 7260SOL    HW223620  11.334   3.536   7.707
 7261SOL     OW23621  14.749  11.923  12.854
 7261SOL    HW123622  14.688  11.863  12.812
 7261SOL    HW223623  14.700  11.961  12.926
 7262SOL     OW23624  11.090  14.854  12.233
 7262SOL    HW123625  11.051  14.837  12.147
 7262SOL    HW223626  11.015  14.867  12.291
 7263SOL     OW23627   0.693   6.865   3.920
 7263SOL    HW123628   0.736   6.790   3.880
 7263SOL    HW223629   0.601   6.856   3.897
 7264SOL     OW23630   2.657  13.255   0.705
 7264SOL    HW123631   2.586  13.191   0.710
 7264SOL    HW223632   2.676  13.263   0.611
 7265SOL     OW23633  11.168   9.034  13.023
 7265SOL    HW123634  11.157   9.014  13.115
 7265SOL    HW223635  11.120   8.965  12.977
 7266SOL     OW23636  11.250   1.861   2.917
 7266SOL    HW123637  11.314   1.792   2.933
 7266SOL    HW223638  11.166   1.821   2.940
 7267SOL     OW23639   3.807   4.023   9.059
 7267SOL    HW123640   3.811   3.942   9.109
 7267SOL    HW223641   3.872   4.012   8.990
 7268SOL     OW23642  14.628   4.329  10.951
 7268SOL    HW123643  14.686   4.364  10.884
 7268SOL    HW223644  14.684   4.319  11.028
 7269SOL     OW23645   8.512   7.016   6.289
 7269SOL    HW123646   8.554   6.935   6.259
 7269SOL    HW223647   8.577   7.059   6.344
 7270SOL     OW23648  12.608  13.871   6.765
 7270SOL    HW123649  12.659  13.862   6.846
 7270SOL    HW223650  12.567  13.957   6.772
 7271SOL     OW23651   7.720   8.534  14.725
 7271SOL    HW123652   7.771   8.584  14.789
 7271SOL    HW223653   7.758   8.446  14.728
 7272SOL     OW23654   9.875   1.394   0.353
 7272SOL    HW123655   9.880   1.388   0.449
 7272SOL    HW223656   9.911   1.480   0.333
 7273SOL     OW23657   6.686   7.466   0.214
 7273SOL    HW123658   6.736   7.494   0.137
 7273SOL    HW223659   6.596   7.461   0.183
 7274SOL     OW23660   7.910  12.944   0.275
 7274SOL    HW123661   7.875  12.940   0.364
 7274SOL    HW223662   7.933  12.854   0.254
 7275SOL     OW23663   6.080   2.632  14.452
 7275SOL    HW123664   6.016   2.702  14.444
 7275SOL    HW223665   6.093   2.623  14.546
 7276SOL     OW23666   0.202   5.278   0.321
 7276SOL    HW123667   0.213   5.248   0.231
 7276SOL    HW223668   0.290   5.277   0.358
 7277SOL     OW23669  11.097  14.148  13.705
 7277SOL    HW123670  11.062  14.066  13.741
 7277SOL    HW223671  11.165  14.121  13.644
 7278SOL     OW23672   2.829  10.217  13.273
 7278SOL    HW123673   2.832  10.164  13.193
 7278SOL    HW223674   2.888  10.172  13.334
 7279SOL     OW23675   1.199  13.459   9.539
 7279SOL    HW123676   1.239  13.519   9.603
 7279SOL    HW223677   1.272  13.406   9.508
 7280SOL     OW23678   4.753   8.621   4.240
 7280SOL    HW123679   4.734   8.715   4.248
 7280SOL    HW223680   4.671   8.578   4.261
 7281SOL     OW23681   0.562   4.088   7.624
 7281SOL    HW123682   0.476   4.057   7.652
 7281SOL    HW223683   0.550   4.115   7.533
 7282SOL     OW23684   4.560  11.842   0.061
 7282SOL    HW123685   4.551  11.751   0.089
 7282SOL    HW223686   4.493  11.889   0.109
 7283SOL     OW23687   4.735   1.429  13.680
 7283SOL    HW123688   4.682   1.350  13.667
 7283SOL    HW223689   4.762   1.455  13.592
 7284SOL     OW23690   2.125   1.783   7.577
 7284SOL    HW123691   2.064   1.711   7.563
 7284SOL    HW223692   2.070   1.856   7.606
 7285SOL     OW23693   6.388  13.274   1.669
 7285SOL    HW123694   6.351  13.362   1.677
 7285SOL    HW223695   6.451  13.269   1.741
 7286SOL     OW23696   2.119  12.303   7.676
 7286SOL    HW123697   2.072  12.220   7.680
 7286SOL    HW223698   2.106  12.342   7.763
 7287SOL     OW23699  11.401   4.024  12.907
 7287SOL    HW123700  11.465   3.991  12.970
 7287SOL    HW223701  11.316   4.001  12.945
 7288SOL     OW23702  12.238   6.494  10.301
 7288SOL    HW123703  12.191   6.554  10.358
 7288SOL    HW223704  12.229   6.408  10.343
 7289SOL     OW23705   2.514   8.139   1.279
 7289SOL    HW123706   2.543   8.129   1.188
 7289SOL    HW223707   2.594   8.150   1.329
 7290SOL     OW23708   8.731   7.650   2.340
 7290SOL    HW123709   8.771   7.679   2.422
 7290SOL    HW223710   8.679   7.724   2.310
 7291SOL     OW23711   4.468   8.680  13.486
 7291SOL    HW123712   4.511   8.704  13.567
 7291SOL    HW223713   4.534   8.694  13.418
 7292SOL     OW23714   5.956   9.863  13.465
 7292SOL    HW123715   5.970   9.902  13.379
 7292SOL    HW223716   5.966   9.935  13.527
 7293SOL     OW23717   0.428  13.499   7.925
 7293SOL    HW123718   0.409  13.456   8.008
 7293SOL    HW223719   0.461  13.586   7.950
 7294SOL     OW23720   3.463   0.961   7.096
 7294SOL    HW123721   3.413   0.952   7.014
 7294SOL    HW223722   3.554   0.975   7.067
 7295SOL     OW23723  14.809  14.055  11.059
 7295SOL    HW123724   0.012  14.031  11.110
 7295SOL    HW223725  14.796  13.982  10.999
 7296SOL     OW23726   8.243  12.537   1.732
 7296SOL    HW123727   8.276  12.621   1.763
 7296SOL    HW223728   8.170  12.518   1.790
 7297SOL     OW23729   7.314   4.360   1.540
 7297SOL    HW123730   7.338   4.304   1.614
 7297SOL    HW223731   7.322   4.303   1.463
 7298SOL     OW23732   0.801   2.108   2.979
 7298SOL    HW123733   0.810   2.118   2.884
 7298SOL    HW223734   0.708   2.093   2.993
 7299SOL     OW23735  11.918   1.759   9.921
 7299SOL    HW123736  11.842   1.707   9.895
 7299SOL    HW223737  11.989   1.726   9.867
 7300SOL     OW23738  11.884   5.192   8.171
 7300SOL    HW123739  11.972   5.220   8.147
 7300SOL    HW223740  11.894   5.100   8.196
 7301SOL     OW23741   9.831   3.435  11.413
 7301SOL    HW123742   9.922   3.449  11.437
 7301SOL    HW223743   9.786   3.516  11.438
 7302SOL     OW23744   5.803   3.944  12.423
 7302SOL    HW123745   5.772   3.876  12.363
 7302SOL    HW223746   5.724   3.991  12.449
 7303SOL     OW23747  10.871   1.638   9.856
 7303SOL    HW123748  10.918   1.593   9.926
 7303SOL    HW223749  10.937   1.691   9.813
 7304SOL     OW23750   1.012   0.512  10.754
 7304SOL    HW123751   1.072   0.534  10.683
 7304SOL    HW223752   0.926   0.511  10.714
 7305SOL     OW23753   2.381   3.427  10.025
 7305SOL    HW123754   2.400   3.427   9.931
 7305SOL    HW223755   2.330   3.347  10.039
 7306SOL     OW23756   0.156   2.678   7.866
 7306SOL    HW123757   0.170   2.667   7.960
 7306SOL    HW223758   0.140   2.771   7.854
 7307SOL     OW23759  10.874   3.475   8.108
 7307SOL    HW123760  10.856   3.385   8.133
 7307SOL    HW223761  10.924   3.468   8.026
 7308SOL     OW23762   5.793   7.992   2.901
 7308SOL    HW123763   5.735   8.057   2.941
 7308SOL    HW223764   5.774   7.910   2.948
 7309SOL     OW23765  11.654  10.666  11.691
 7309SOL    HW123766  11.575  10.638  11.739
 7309SOL    HW223767  11.622  10.690  11.604
 7310SOL     OW23768   7.363   0.313   0.652
 7310SOL    HW123769   7.303   0.253   0.607
 7310SOL    HW223770   7.370   0.277   0.741
 7311SOL     OW23771   4.645   0.974   9.198
 7311SOL    HW123772   4.555   1.005   9.186
 7311SOL    HW223773   4.637   0.879   9.200
 7312SOL     OW23774   6.114   9.771  12.076
 7312SOL    HW123775   6.044   9.831  12.102
 7312SOL    HW223776   6.110   9.771  11.980
 7313SOL     OW23777   5.144   5.917   3.400
 7313SOL    HW123778   5.214   5.895   3.461
 7313SOL    HW223779   5.098   5.990   3.442
 7314SOL     OW23780   3.813   2.457   3.848
 7314SOL    HW123781   3.855   2.510   3.916
 7314SOL    HW223782   3.746   2.408   3.895
 7315SOL     OW23783   7.865  10.374   2.609
 7315SOL    HW123784   7.871  10.310   2.679
 7315SOL    HW223785   7.796  10.340   2.551
 7316SOL     OW23786   4.116  13.036   3.587
 7316SOL    HW123787   4.096  12.948   3.619
 7316SOL    HW223788   4.034  13.084   3.596
 7317SOL     OW23789  10.910  13.564   0.319
 7317SOL    HW123790  10.935  13.595   0.405
 7317SOL    HW223791  10.931  13.470   0.320
 7318SOL     OW23792   9.527  14.030   2.823
 7318SOL    HW123793   9.501  14.118   2.795
 7318SOL    HW223794   9.447  13.978   2.817
 7319SOL     OW23795   8.859   0.994   3.808
 7319SOL    HW123796   8.905   1.005   3.892
 7319SOL    HW223797   8.839   1.083   3.780
 7320SOL     OW23798   0.479  12.296  10.565
 7320SOL    HW123799   0.455  12.383  10.535
 7320SOL    HW223800   0.404  12.241  10.544
 7321SOL     OW23801  13.814   3.264   2.126
 7321SOL    HW123802  13.778   3.288   2.212
 7321SOL    HW223803  13.819   3.346   2.078
 7322SOL     OW23804   9.706   4.809   8.364
 7322SOL    HW123805   9.793   4.768   8.359
 7322SOL    HW223806   9.724   4.903   8.357
 7323SOL     OW23807   8.969  12.905   8.376
 7323SOL    HW123808   9.057  12.868   8.381
 7323SOL    HW223809   8.921  12.865   8.448
 7324SOL     OW23810   4.657   5.385   9.589
 7324SOL    HW123811   4.702   5.464   9.560
 7324SOL    HW223812   4.571   5.416   9.618
 7325SOL     OW23813   5.995   1.668   4.979
 7325SOL    HW123814   6.007   1.640   4.888
 7325SOL    HW223815   5.949   1.594   5.020
 7326SOL     OW23816   5.427  14.517   0.550
 7326SOL    HW123817   5.512  14.528   0.593
 7326SOL    HW223818   5.431  14.573   0.473
 7327SOL     OW23819  14.683   9.525   3.209
 7327SOL    HW123820  14.754   9.571   3.253
 7327SOL    HW223821  14.633   9.484   3.280
 7328SOL     OW23822   9.877  10.359   5.868
 7328SOL    HW123823   9.880  10.425   5.937
 7328SOL    HW223824   9.862  10.409   5.788
 7329SOL     OW23825   8.698   5.611   4.748
 7329SOL    HW123826   8.686   5.597   4.842
 7329SOL    HW223827   8.674   5.703   4.734
 7330SOL     OW23828   4.267   8.664   7.225
 7330SOL    HW123829   4.349   8.639   7.182
 7330SOL    HW223830   4.289   8.667   7.318
 7331SOL     OW23831  11.368  11.297   0.335
 7331SOL    HW123832  11.322  11.216   0.355
 7331SOL    HW223833  11.416  11.279   0.255
 7332SOL     OW23834  13.119   6.385   7.017
 7332SOL    HW123835  13.057   6.325   6.975
 7332SOL    HW223836  13.180   6.328   7.064
 7333SOL     OW23837   1.130   8.954   1.731
 7333SOL    HW123838   1.068   8.907   1.676
 7333SOL    HW223839   1.105   9.046   1.724
 7334SOL     OW23840   3.593   2.370   0.098
 7334SOL    HW123841   3.677   2.389   0.056
 7334SOL    HW223842   3.599   2.412   0.184
 7335SOL     OW23843  14.433  10.224  13.635
 7335SOL    HW123844  14.388  10.160  13.581
 7335SOL    HW223845  14.461  10.293  13.574
 7336SOL     OW23846  12.762   4.412  12.421
 7336SOL    HW123847  12.766   4.477  12.491
 7336SOL    HW223848  12.825   4.442  12.355
 7337SOL     OW23849  12.822  11.300  13.497
 7337SOL    HW123850  12.881  11.355  13.446
 7337SOL    HW223851  12.868  11.216  13.504
 7338SOL     OW23852   8.479   3.115   4.361
 7338SOL    HW123853   8.551   3.168   4.395
 7338SOL    HW223854   8.491   3.117   4.266
 7339SOL     OW23855  10.709   1.736   2.979
 7339SOL    HW123856  10.643   1.706   3.042
 7339SOL    HW223857  10.723   1.828   3.000
 7340SOL     OW23858  12.058   2.318   3.815
 7340SOL    HW123859  11.990   2.368   3.860
 7340SOL    HW223860  12.012   2.277   3.741
 7341SOL     OW23861   5.844   2.550  11.610
 7341SOL    HW123862   5.938   2.571  11.604
 7341SOL    HW223863   5.811   2.566  11.522
 7342SOL     OW23864   7.992  12.838  14.441
 7342SOL    HW123865   8.052  12.875  14.376
 7342SOL    HW223866   7.907  12.833  14.395
 7343SOL     OW23867  14.103  10.244   0.883
 7343SOL    HW123868  14.053  10.223   0.962
 7343SOL    HW223869  14.038  10.243   0.812
 7344SOL     OW23870   7.853   8.839   0.731
 7344SOL    HW123871   7.849   8.808   0.641
 7344SOL    HW223872   7.767   8.879   0.747
 7345SOL     OW23873   8.140   3.174  11.229
 7345SOL    HW123874   8.207   3.108  11.208
 7345SOL    HW223875   8.060   3.123  11.243
 7346SOL     OW23876   9.844   7.479   5.480
 7346SOL    HW123877   9.877   7.551   5.427
 7346SOL    HW223878   9.818   7.518   5.563
 7347SOL     OW23879   1.441   8.581   8.196
 7347SOL    HW123880   1.366   8.629   8.159
 7347SOL    HW223881   1.514   8.602   8.138
 7348SOL     OW23882   1.889   2.259  13.452
 7348SOL    HW123883   1.885   2.305  13.536
 7348SOL    HW223884   1.842   2.317  13.392
 7349SOL     OW23885  10.106   9.212   3.800
 7349SOL    HW123886  10.061   9.137   3.762
 7349SOL    HW223887  10.150   9.254   3.726
 7350SOL     OW23888   8.407   5.423  14.709
 7350SOL    HW123889   8.497   5.392  14.704
 7350SOL    HW223890   8.370   5.376  14.783
 7351SOL     OW23891   6.581  14.830   7.659
 7351SOL    HW123892   6.674  14.830   7.637
 7351SOL    HW223893   6.542  14.763   7.604
 7352SOL     OW23894   0.191  10.719  13.054
 7352SOL    HW123895   0.105  10.677  13.060
 7352SOL    HW223896   0.201  10.741  12.961
 7353SOL     OW23897   5.691   9.548   9.474
 7353SOL    HW123898   5.768   9.538   9.529
 7353SOL    HW223899   5.645   9.464   9.482
 7354SOL     OW23900   5.148   8.755   1.968
 7354SOL    HW123901   5.156   8.848   1.990
 7354SOL    HW223902   5.232   8.733   1.927
 7355SOL     OW23903   7.309   8.345   5.251
 7355SOL    HW123904   7.235   8.405   5.259
 7355SOL    HW223905   7.382   8.391   5.294
 7356SOL     OW23906   5.525   3.411   0.532
 7356SOL    HW123907   5.562   3.485   0.482
 7356SOL    HW223908   5.431   3.425   0.529
 7357SOL     OW23909   8.242   8.722  14.623
 7357SOL    HW123910   8.200   8.641  14.593
 7357SOL    HW223911   8.170   8.782  14.641
 7358SOL     OW23912   4.629   2.242  10.527
 7358SOL    HW123913   4.671   2.210  10.448
 7358SOL    HW223914   4.640   2.171  10.591
 7359SOL     OW23915  10.750   0.529   5.826
 7359SOL    HW123916  10.680   0.555   5.886
 7359SOL    HW223917  10.831   0.545   5.875
 7360SOL     OW23918   2.689  10.759   1.359
 7360SOL    HW123919   2.776  10.727   1.382
 7360SOL    HW223920   2.637  10.680   1.343
 7361SOL     OW23921   8.843  11.006  10.174
 7361SOL    HW123922   8.827  11.029  10.265
 7361SOL    HW223923   8.865  11.089  10.132
 7362SOL     OW23924   8.766   9.675   1.375
 7362SOL    HW123925   8.779   9.735   1.301
 7362SOL    HW223926   8.745   9.591   1.334
 7363SOL     OW23927   3.149  10.602  10.240
 7363SOL    HW123928   3.179  10.641  10.322
 7363SOL    HW223929   3.081  10.541  10.266
 7364SOL     OW23930  12.679   0.229  13.750
 7364SOL    HW123931  12.590   0.193  13.751
 7364SOL    HW223932  12.732   0.164  13.797
 7365SOL     OW23933   2.641   9.898   6.703
 7365SOL    HW123934   2.581   9.965   6.734
 7365SOL    HW223935   2.690   9.872   6.782
 7366SOL     OW23936   2.862   1.312   0.315
 7366SOL    HW123937   2.810   1.392   0.316
 7366SOL    HW223938   2.945   1.337   0.357
 7367SOL     OW23939   9.460  14.598  12.990
 7367SOL    HW123940   9.365  14.604  12.977
 7367SOL    HW223941   9.496  14.664  12.931
 7368SOL     OW23942   4.857   4.855  14.427
 7368SOL    HW123943   4.839   4.762  14.436
 7368SOL    HW223944   4.814   4.895  14.503
 7369SOL     OW23945   4.753   9.956   9.188
 7369SOL    HW123946   4.759  10.022   9.257
 7369SOL    HW223947   4.690   9.891   9.222
 7370SOL     OW23948   6.150  12.292   8.357
 7370SOL    HW123949   6.191  12.372   8.390
 7370SOL    HW223950   6.223  12.242   8.319
 7371SOL     OW23951  11.395   4.173   0.445
 7371SOL    HW123952  11.453   4.248   0.456
 7371SOL    HW223953  11.347   4.167   0.528
 7372SOL     OW23954   1.887   3.707   1.293
 7372SOL    HW123955   1.948   3.637   1.267
 7372SOL    HW223956   1.836   3.725   1.214
 7373SOL     OW23957  13.114   2.678   1.425
 7373SOL    HW123958  13.173   2.717   1.361
 7373SOL    HW223959  13.073   2.605   1.378
 7374SOL     OW23960   1.485   2.120   6.341
 7374SOL    HW123961   1.575   2.095   6.361
 7374SOL    HW223962   1.465   2.190   6.403
 7375SOL     OW23963  12.072  14.071   2.501
 7375SOL    HW123964  11.995  14.069   2.558
 7375SOL    HW223965  12.056  14.002   2.436
 7376SOL     OW23966   8.606   4.191   2.537
 7376SOL    HW123967   8.684   4.243   2.557
 7376SOL    HW223968   8.537   4.230   2.590
 7377SOL     OW23969  11.414   0.096   1.685
 7377SOL    HW123970  11.362   0.050   1.620
 7377SOL    HW223971  11.503   0.093   1.651
 7378SOL     OW23972   4.989   9.013  13.703
 7378SOL    HW123973   5.063   8.955  13.723
 7378SOL    HW223974   4.973   9.000  13.609
 7379SOL     OW23975   5.181   2.058   5.335
 7379SOL    HW123976   5.090   2.085   5.327
 7379SOL    HW223977   5.224   2.128   5.384
 7380SOL     OW23978  10.343   8.928   2.019
 7380SOL    HW123979  10.276   8.876   2.064
 7380SOL    HW223980  10.356   9.004   2.076
 7381SOL     OW23981   1.260  13.612   6.612
 7381SOL    HW123982   1.274  13.667   6.688
 7381SOL    HW223983   1.328  13.639   6.550
 7382SOL     OW23984   7.242   4.735   0.219
 7382SOL    HW123985   7.210   4.801   0.281
 7382SOL    HW223986   7.196   4.755   0.137
 7383SOL     OW23987   7.744  11.974  12.254
 7383SOL    HW123988   7.813  11.912  12.280
 7383SOL    HW223989   7.687  11.923  12.197
 7384SOL     OW23990  10.776   1.565   6.119
 7384SOL    HW123991  10.772   1.528   6.207
 7384SOL    HW223992  10.692   1.542   6.079
 7385SOL     OW23993   4.138   7.936   9.803
 7385SOL    HW123994   4.121   7.842   9.796
 7385SOL    HW223995   4.054   7.977   9.783
 7386SOL     OW23996   6.600   9.161   4.890
 7386SOL    HW123997   6.629   9.138   4.978
 7386SOL    HW223998   6.603   9.078   4.842
 7387SOL     OW23999   4.449  12.709   8.193
 7387SOL    HW124000   4.508  12.676   8.125
 7387SOL    HW224001   4.485  12.676   8.275
 7388SOL     OW24002   6.739   7.139   1.216
 7388SOL    HW124003   6.650   7.105   1.227
 7388SOL    HW224004   6.745   7.210   1.279
 7389SOL     OW24005  14.426   8.861  12.568
 7389SOL    HW124006  14.345   8.820  12.537
 7389SOL    HW224007  14.430   8.838  12.661
 7390SOL     OW24008  13.708  14.460   8.269
 7390SOL    HW124009  13.622  14.500   8.258
 7390SOL    HW224010  13.742  14.451   8.180
 7391SOL     OW24011  13.282   8.011   5.649
 7391SOL    HW124012  13.326   7.949   5.591
 7391SOL    HW224013  13.272   7.965   5.732
 7392SOL     OW24014   9.912  13.586  13.229
 7392SOL    HW124015   9.842  13.521  13.234
 7392SOL    HW224016   9.992  13.535  13.240
 7393SOL     OW24017  12.895   5.953   9.352
 7393SOL    HW124018  12.877   5.950   9.258
 7393SOL    HW224019  12.959   5.884   9.366
 7394SOL     OW24020   2.999   9.560   4.905
 7394SOL    HW124021   2.941   9.633   4.883
 7394SOL    HW224022   2.957   9.483   4.866
 7395SOL     OW24023   9.657   4.750   6.078
 7395SOL    HW124024   9.673   4.672   6.025
 7395SOL    HW224025   9.666   4.823   6.017
 7396SOL     OW24026  13.335   8.123   7.417
 7396SOL    HW124027  13.418   8.168   7.398
 7396SOL    HW224028  13.338   8.043   7.365
 7397SOL     OW24029   6.156   3.253   4.447
 7397SOL    HW124030   6.153   3.343   4.482
 7397SOL    HW224031   6.242   3.247   4.406
 7398SOL     OW24032   4.557  11.323  14.560
 7398SOL    HW124033   4.468  11.299  14.584
 7398SOL    HW224034   4.584  11.387  14.626
 7399SOL     OW24035   7.933  12.183  12.285
 7399SOL    HW124036   7.857  12.124  12.289
 7399SOL    HW224037   7.946  12.212  12.375
 7400SOL     OW24038   4.124   5.673   0.766
 7400SOL    HW124039   4.096   5.687   0.857
 7400SOL    HW224040   4.064   5.606   0.733
 7401SOL     OW24041   9.517   4.453  14.576
 7401SOL    HW124042   9.501   4.487  14.488
 7401SOL    HW224043   9.508   4.529  14.633
 7402SOL     OW24044   3.339   4.384  14.753
 7402SOL    HW124045   3.389   4.460  14.784
 7402SOL    HW224046   3.289   4.417  14.679
 7403SOL     OW24047  11.823   1.782   3.629
 7403SOL    HW124048  11.783   1.696   3.637
 7403SOL    HW224049  11.915   1.768   3.654
 7404SOL     OW24050   7.831   8.135   3.065
 7404SOL    HW124051   7.801   8.220   3.098
 7404SOL    HW224052   7.769   8.113   2.995
 7405SOL     OW24053  12.187   4.760   3.204
 7405SOL    HW124054  12.205   4.806   3.286
 7405SOL    HW224055  12.108   4.708   3.222
 7406SOL     OW24056   4.500  11.033   5.867
 7406SOL    HW124057   4.443  10.983   5.809
 7406SOL    HW224058   4.512  10.977   5.944
 7407SOL     OW24059   9.660   2.942  10.348
 7407SOL    HW124060   9.656   2.848  10.330
 7407SOL    HW224061   9.574   2.975  10.324
 7408SOL     OW24062  14.557   6.050   6.330
 7408SOL    HW124063  14.614   6.095   6.393
 7408SOL    HW224064  14.484   6.017   6.383
 7409SOL     OW24065   3.735   5.084  11.141
 7409SOL    HW124066   3.801   5.150  11.163
 7409SOL    HW224067   3.670   5.090  11.211
 7410SOL     OW24068   9.291   3.847   6.956
 7410SOL    HW124069   9.375   3.854   7.001
 7410SOL    HW224070   9.235   3.912   6.999
 7411SOL     OW24071  13.850  11.379   6.505
 7411SOL    HW124072  13.929  11.399   6.557
 7411SOL    HW224073  13.857  11.286   6.486
 7412SOL     OW24074   6.816  12.105   7.157
 7412SOL    HW124075   6.795  12.048   7.084
 7412SOL    HW224076   6.803  12.051   7.235
 7413SOL     OW24077   6.944  12.831  10.771
 7413SOL    HW124078   6.904  12.817  10.685
 7413SOL    HW224079   7.022  12.777  10.770
 7414SOL     OW24080   4.962   7.760  10.987
 7414SOL    HW124081   4.984   7.820  10.915
 7414SOL    HW224082   4.994   7.804  11.066
 7415SOL     OW24083   5.760   5.396   8.179
 7415SOL    HW124084   5.825   5.342   8.224
 7415SOL    HW224085   5.795   5.406   8.090
 7416SOL     OW24086   6.844   5.378   9.557
 7416SOL    HW124087   6.840   5.331   9.640
 7416SOL    HW224088   6.753   5.388   9.529
 7417SOL     OW24089   7.615  10.593  13.721
 7417SOL    HW124090   7.593  10.623  13.809
 7417SOL    HW224091   7.676  10.521  13.734
 7418SOL     OW24092  13.501   4.034   7.429
 7418SOL    HW124093  13.489   3.941   7.449
 7418SOL    HW224094  13.592   4.041   7.401
 7419SOL     OW24095   8.481   5.462  10.189
 7419SOL    HW124096   8.452   5.467  10.280
 7419SOL    HW224097   8.435   5.535  10.146
 7420SOL     OW24098   4.077  12.072   2.330
 7420SOL    HW124099   4.129  12.133   2.279
 7420SOL    HW224100   4.139  12.005   2.358
 7421SOL     OW24101  14.680   1.198  11.657
 7421SOL    HW124102  14.723   1.132  11.713
 7421SOL    HW224103  14.622   1.246  11.717
 7422SOL     OW24104   5.985  14.053   1.615
 7422SOL    HW124105   6.029  14.051   1.530
 7422SOL    HW224106   6.036  13.992   1.669
 7423SOL     OW24107  12.673   9.290  13.610
 7423SOL    HW124108  12.615   9.250  13.675
 7423SOL    HW224109  12.614   9.340  13.553
 7424SOL     OW24110   9.451   0.465  11.854
 7424SOL    HW124111   9.410   0.464  11.940
 7424SOL    HW224112   9.501   0.547  11.851
 7425SOL     OW24113   9.633   4.964   5.121
 7425SOL    HW124114   9.634   4.899   5.051
 7425SOL    HW224115   9.594   5.042   5.080
 7426SOL     OW24116   4.470   5.985   5.909
 7426SOL    HW124117   4.466   6.005   5.816
 7426SOL    HW224118   4.379   5.978   5.936
 7427SOL     OW24119  14.491   2.812   7.358
 7427SOL    HW124120  14.508   2.754   7.284
 7427SOL    HW224121  14.446   2.756   7.422
 7428SOL     OW24122   1.617   5.295   7.291
 7428SOL    HW124123   1.586   5.230   7.228
 7428SOL    HW224124   1.691   5.337   7.248
 7429SOL     OW24125  10.399  13.784   1.233
 7429SOL    HW124126  10.378  13.724   1.305
 7429SOL    HW224127  10.429  13.726   1.162
 7430SOL     OW24128   1.236   2.367   7.570
 7430SOL    HW124129   1.144   2.355   7.546
 7430SOL    HW224130   1.246   2.462   7.582
 7431SOL     OW24131   5.418  12.065  10.845
 7431SOL    HW124132   5.442  12.116  10.767
 7431SOL    HW224133   5.367  12.125  10.898
 7432SOL     OW24134   0.387  14.353  10.291
 7432SOL    HW124135   0.453  14.385  10.229
 7432SOL    HW224136   0.412  14.392  10.375
 7433SOL     OW24137  13.291  14.392  12.047
 7433SOL    HW124138  13.310  14.484  12.027
 7433SOL    HW224139  13.195  14.388  12.051
 7434SOL     OW24140   4.633   4.287   9.607
 7434SOL    HW124141   4.578   4.237   9.668
 7434SOL    HW224142   4.694   4.222   9.571
 7435SOL     OW24143   4.350   1.274  12.930
 7435SOL    HW124144   4.379   1.200  12.985
 7435SOL    HW224145   4.359   1.242  12.840
 7436SOL     OW24146   7.236  11.784   4.449
 7436SOL    HW124147   7.251  11.691   4.431
 7436SOL    HW224148   7.224  11.823   4.363
 7437SOL     OW24149   2.155  11.734   0.893
 7437SOL    HW124150   2.081  11.764   0.945
 7437SOL    HW224151   2.175  11.806   0.834
 7438SOL     OW24152  11.657   2.328  14.194
 7438SOL    HW124153  11.721   2.365  14.134
 7438SOL    HW224154  11.651   2.236  14.169
 7439SOL     OW24155  10.609  13.481   1.368
 7439SOL    HW124156  10.519  13.505   1.389
 7439SOL    HW224157  10.662  13.540   1.420
 7440SOL     OW24158   9.406  13.886   1.522
 7440SOL    HW124159   9.350  13.817   1.558
 7440SOL    HW224160   9.362  13.912   1.441
 7441SOL     OW24161   6.247  10.795   8.050
 7441SOL    HW124162   6.313  10.816   7.985
 7441SOL    HW224163   6.228  10.879   8.093
 7442SOL     OW24164  14.704  10.983   2.332
 7442SOL    HW124165  14.629  11.037   2.360
 7442SOL    HW224166  14.768  11.046   2.299
 7443SOL     OW24167   2.235   5.901   0.263
 7443SOL    HW124168   2.268   5.944   0.341
 7443SOL    HW224169   2.141   5.922   0.262
 7444SOL     OW24170  10.326   9.973  12.557
 7444SOL    HW124171  10.284  10.021  12.628
 7444SOL    HW224172  10.415  10.007  12.555
 7445SOL     OW24173  12.134   5.672  10.757
 7445SOL    HW124174  12.200   5.640  10.696
 7445SOL    HW224175  12.062   5.700  10.700
 7446SOL     OW24176   6.027  13.334   0.724
 7446SOL    HW124177   5.997  13.424   0.739
 7446SOL    HW224178   5.982  13.307   0.644
 7447SOL     OW24179   7.809  10.228  11.468
 7447SOL    HW124180   7.814  10.177  11.549
 7447SOL    HW224181   7.893  10.275  11.464
 7448SOL     OW24182   5.015   5.859   0.980
 7448SOL    HW124183   5.106   5.835   0.959
 7448SOL    HW224184   4.964   5.818   0.911
 7449SOL     OW24185  13.189  14.603  14.448
 7449SOL    HW124186  13.193  14.509  14.465
 7449SOL    HW224187  13.265  14.620  14.393
 7450SOL     OW24188  11.287   7.717   1.378
 7450SOL    HW124189  11.254   7.805   1.360
 7450SOL    HW224190  11.372   7.731   1.420
 7451SOL     OW24191   4.025   2.507   8.123
 7451SOL    HW124192   4.019   2.601   8.142
 7451SOL    HW224193   3.976   2.495   8.042
 7452SOL     OW24194   1.464   9.815   6.333
 7452SOL    HW124195   1.540   9.803   6.390
 7452SOL    HW224196   1.462   9.909   6.315
 7453SOL     OW24197   6.065  10.672   3.346
 7453SOL    HW124198   6.090  10.618   3.271
 7453SOL    HW224199   6.031  10.610   3.411
 7454SOL     OW24200   3.403   6.504   3.141
 7454SOL    HW124201   3.389   6.418   3.101
 7454SOL    HW224202   3.408   6.487   3.235
 7455SOL     OW24203   9.570   6.656  10.191
 7455SOL    HW124204   9.631   6.623  10.126
 7455SOL    HW224205   9.490   6.606  10.176
 7456SOL     OW24206   7.727   5.471   8.554
 7456SOL    HW124207   7.744   5.495   8.463
 7456SOL    HW224208   7.633   5.485   8.565
 7457SOL     OW24209   4.079   8.776   2.714
 7457SOL    HW124210   4.161   8.728   2.700
 7457SOL    HW224211   4.088   8.816   2.800
 7458SOL     OW24212   4.980   7.969   6.932
 7458SOL    HW124213   5.015   8.054   6.906
 7458SOL    HW224214   4.903   7.989   6.985
 7459SOL     OW24215   1.427  12.931   8.341
 7459SOL    HW124216   1.415  12.868   8.270
 7459SOL    HW224217   1.349  12.921   8.396
 7460SOL     OW24218  13.070   4.250   4.256
 7460SOL    HW124219  13.066   4.170   4.309
 7460SOL    HW224220  13.123   4.227   4.180
 7461SOL     OW24221   0.906   2.594  11.911
 7461SOL    HW124222   0.817   2.571  11.884
 7461SOL    HW224223   0.919   2.547  11.994
 7462SOL     OW24224  13.030  13.698   5.778
 7462SOL    HW124225  13.067  13.610   5.766
 7462SOL    HW224226  13.069  13.750   5.708
 7463SOL     OW24227  10.941   1.006  10.195
 7463SOL    HW124228  10.982   0.938  10.248
 7463SOL    HW224229  11.008   1.030  10.131
 7464SOL     OW24230  12.749   1.072  11.462
 7464SOL    HW124231  12.680   1.138  11.457
 7464SOL    HW224232  12.786   1.082  11.549
 7465SOL     OW24233  12.596   4.599   4.403
 7465SOL    HW124234  12.583   4.568   4.313
 7465SOL    HW224235  12.680   4.644   4.401
 7466SOL     OW24236   4.585   9.030  11.732
 7466SOL    HW124237   4.621   8.996  11.650
 7466SOL    HW224238   4.503   8.982  11.744
 7467SOL     OW24239  14.535   0.585  12.494
 7467SOL    HW124240  14.605   0.528  12.464
 7467SOL    HW224241  14.574   0.673  12.495
 7468SOL     OW24242   8.538  14.529   2.430
 7468SOL    HW124243   8.453  14.507   2.466
 7468SOL    HW224244   8.596  14.532   2.506
 7469SOL     OW24245   6.789  13.093   0.344
 7469SOL    HW124246   6.696  13.098   0.322
 7469SOL    HW224247   6.834  13.106   0.261
 7470SOL     OW24248  10.630   1.874   9.937
 7470SOL    HW124249  10.631   1.969   9.940
 7470SOL    HW224250  10.556   1.848   9.992
 7471SOL     OW24251   8.980  14.348   2.203
 7471SOL    HW124252   9.019  14.410   2.265
 7471SOL    HW224253   8.885  14.360   2.213
 7472SOL     OW24254   0.038   5.674   8.517
 7472SOL    HW124255   0.023   5.767   8.536
 7472SOL    HW224256   0.125   5.656   8.552
 7473SOL     OW24257  12.520   0.966   7.049
 7473SOL    HW124258  12.504   0.980   6.955
 7473SOL    HW224259  12.440   0.996   7.092
 7474SOL     OW24260   8.157   6.127   3.688
 7474SOL    HW124261   8.153   6.092   3.778
 7474SOL    HW224262   8.207   6.208   3.696
 7475SOL     OW24263  10.948   4.141   9.328
 7475SOL    HW124264  10.882   4.207   9.348
 7475SOL    HW224265  10.996   4.129   9.410
 7476SOL     OW24266  14.570  13.665   4.519
 7476SOL    HW124267  14.598  13.722   4.590
 7476SOL    HW224268  14.480  13.691   4.500
 7477SOL     OW24269  12.584  12.315   5.642
 7477SOL    HW124270  12.650  12.271   5.695
 7477SOL    HW224271  12.634  12.366   5.578
 7478SOL     OW24272   8.767   4.513   8.423
 7478SOL    HW124273   8.750   4.547   8.335
 7478SOL    HW224274   8.681   4.507   8.464
 7479SOL     OW24275  12.879   1.436   2.767
 7479SOL    HW124276  12.962   1.484   2.764
 7479SOL    HW224277  12.815   1.495   2.727
 7480SOL     OW24278  14.338   2.866   6.687
 7480SOL    HW124279  14.433   2.872   6.695
 7480SOL    HW224280  14.304   2.901   6.770
 7481SOL     OW24281  12.210   7.882  11.687
 7481SOL    HW124282  12.121   7.854  11.706
 7481SOL    HW224283  12.204   7.977  11.678
 7482SOL     OW24284   5.841   5.559   7.448
 7482SOL    HW124285   5.836   5.573   7.353
 7482SOL    HW224286   5.905   5.623   7.479
 7483SOL     OW24287   9.597   0.726  10.227
 7483SOL    HW124288   9.508   0.692  10.237
 7483SOL    HW224289   9.610   0.733  10.132
 7484SOL     OW24290   1.812  12.122  13.277
 7484SOL    HW124291   1.790  12.177  13.352
 7484SOL    HW224292   1.897  12.084  13.300
 7485SOL     OW24293   4.488  11.114  13.833
 7485SOL    HW124294   4.489  11.058  13.755
 7485SOL    HW224295   4.570  11.162  13.829
 7486SOL     OW24296   6.361   5.038   2.807
 7486SOL    HW124297   6.271   5.069   2.794
 7486SOL    HW224298   6.390   5.013   2.720
 7487SOL     OW24299  11.680  13.927   6.513
 7487SOL    HW124300  11.775  13.924   6.501
 7487SOL    HW224301  11.653  14.009   6.472
 7488SOL     OW24302   3.666   5.585   9.535
 7488SOL    HW124303   3.666   5.490   9.547
 7488SOL    HW224304   3.731   5.600   9.466
 7489SOL     OW24305  12.638   4.858   7.970
 7489SOL    HW124306  12.594   4.873   8.054
 7489SOL    HW224307  12.615   4.768   7.947
 7490SOL     OW24308   8.729  10.943   7.010
 7490SOL    HW124309   8.784  10.890   7.068
 7490SOL    HW224310   8.661  10.883   6.980
 7491SOL     OW24311   6.539   2.559  11.051
 7491SOL    HW124312   6.487   2.533  11.127
 7491SOL    HW224313   6.479   2.610  10.997
 7492SOL     OW24314  11.569   6.131   2.190
 7492SOL    HW124315  11.591   6.207   2.137
 7492SOL    HW224316  11.653   6.097   2.220
 7493SOL     OW24317  12.061  13.284   6.269
 7493SOL    HW124318  11.992  13.347   6.250
 7493SOL    HW224319  12.015  13.207   6.303
 7494SOL     OW24320  14.280   0.433  14.115
 7494SOL    HW124321  14.348   0.451  14.050
 7494SOL    HW224322  14.327   0.417  14.197
 7495SOL     OW24323   4.973   0.510  11.237
 7495SOL    HW124324   4.924   0.522  11.319
 7495SOL    HW224325   4.938   0.429  11.200
 7496SOL     OW24326   6.240   4.003   0.404
 7496SOL    HW124327   6.219   4.085   0.360
 7496SOL    HW224328   6.313   3.966   0.355
 7497SOL     OW24329   2.181   8.859   4.065
 7497SOL    HW124330   2.197   8.814   4.148
 7497SOL    HW224331   2.228   8.942   4.074
 7498SOL     OW24332   0.417   9.581   1.026
 7498SOL    HW124333   0.505   9.555   1.051
 7498SOL    HW224334   0.391   9.645   1.092
 7499SOL     OW24335   3.953   3.258  11.227
 7499SOL    HW124336   3.877   3.281  11.280
 7499SOL    HW224337   3.915   3.227  11.144
 7500SOL     OW24338   3.437   6.549   1.548
 7500SOL    HW124339   3.467   6.498   1.623
 7500SOL    HW224340   3.458   6.640   1.572
 7501SOL     OW24341   4.134   0.061   6.092
 7501SOL    HW124342   4.144   0.042   6.185
 7501SOL    HW224343   4.174  14.860   6.047
 7502SOL     OW24344   5.385   2.932  13.651
 7502SOL    HW124345   5.408   3.025  13.660
 7502SOL    HW224346   5.347   2.909  13.736
 7503SOL     OW24347  13.489   4.840   5.312
 7503SOL    HW124348  13.425   4.831   5.383
 7503SOL    HW224349  13.497   4.752   5.276
 7504SOL     OW24350   7.640   7.309   0.705
 7504SOL    HW124351   7.705   7.317   0.774
 7504SOL    HW224352   7.621   7.216   0.700
 7505SOL     OW24353   7.521  10.745  11.087
 7505SOL    HW124354   7.432  10.738  11.121
 7505SOL    HW224355   7.562  10.813  11.140
 7506SOL     OW24356   0.085  12.239   7.149
 7506SOL    HW124357   0.058  12.173   7.085
 7506SOL    HW224358   0.088  12.321   7.100
 7507SOL     OW24359   4.396   1.568   4.107
 7507SOL    HW124360   4.445   1.649   4.115
 7507SOL    HW224361   4.402   1.544   4.015
 7508SOL     OW24362  11.751   7.158  13.121
 7508SOL    HW124363  11.700   7.189  13.196
 7508SOL    HW224364  11.840   7.152  13.154
 7509SOL     OW24365   2.464   6.259   9.588
 7509SOL    HW124366   2.548   6.214   9.581
 7509SOL    HW224367   2.485   6.350   9.566
 7510SOL     OW24368   2.172   8.493  14.446
 7510SOL    HW124369   2.081   8.506  14.422
 7510SOL    HW224370   2.191   8.403  14.421
 7511SOL     OW24371   4.555   1.292   4.718
 7511SOL    HW124372   4.588   1.299   4.628
 7511SOL    HW224373   4.593   1.211   4.751
 7512SOL     OW24374  12.772  13.745   5.013
 7512SOL    HW124375  12.751  13.754   5.106
 7512SOL    HW224376  12.795  13.653   5.001
 7513SOL     OW24377   7.951   4.633   9.534
 7513SOL    HW124378   7.919   4.721   9.554
 7513SOL    HW224379   7.876   4.576   9.550
 7514SOL     OW24380   2.884   2.320  13.390
 7514SOL    HW124381   2.947   2.374  13.437
 7514SOL    HW224382   2.921   2.231  13.393
 7515SOL     OW24383   8.941  14.771   8.501
 7515SOL    HW124384   9.005  14.712   8.542
 7515SOL    HW224385   8.938  14.743   8.410
 7516SOL     OW24386   1.515  11.718   2.375
 7516SOL    HW124387   1.595  11.673   2.402
 7516SOL    HW224388   1.541  11.771   2.300
 7517SOL     OW24389  14.021   2.447  10.451
 7517SOL    HW124390  14.004   2.359  10.484
 7517SOL    HW224391  14.114   2.461  10.467
 7518SOL     OW24392  13.165   9.213   2.790
 7518SOL    HW124393  13.121   9.298   2.792
 7518SOL    HW224394  13.252   9.232   2.755
 7519SOL     OW24395   2.350   6.939   0.182
 7519SOL    HW124396   2.430   6.991   0.194
 7519SOL    HW224397   2.329   6.949   0.089
 7520SOL     OW24398  14.115  11.980  13.611
 7520SOL    HW124399  14.177  11.974  13.539
 7520SOL    HW224400  14.142  12.058  13.660
 7521SOL     OW24401   7.025   1.603  14.679
 7521SOL    HW124402   7.030   1.508  14.688
 7521SOL    HW224403   7.018   1.618  14.585
 7522SOL     OW24404   4.241   7.407   9.400
 7522SOL    HW124405   4.212   7.345   9.467
 7522SOL    HW224406   4.324   7.372   9.369
 7523SOL     OW24407   4.233  14.834  13.704
 7523SOL    HW124408   4.216  14.836  13.610
 7523SOL    HW224409   4.309  14.777  13.714
 7524SOL     OW24410  13.659   9.705  13.753
 7524SOL    HW124411  13.672   9.728  13.845
 7524SOL    HW224412  13.743   9.725  13.711
 7525SOL     OW24413   4.370   4.135   3.765
 7525SOL    HW124414   4.313   4.058   3.766
 7525SOL    HW224415   4.449   4.105   3.719
 7526SOL     OW24416   0.912   4.316   7.074
 7526SOL    HW124417   0.911   4.373   7.151
 7526SOL    HW224418   0.995   4.336   7.031
 7527SOL     OW24419   8.534   7.120  14.846
 7527SOL    HW124420   8.458   7.101  14.792
 7527SOL    HW224421   8.534   7.215  14.857
 7528SOL     OW24422   1.493   6.146   2.043
 7528SOL    HW124423   1.530   6.118   1.960
 7528SOL    HW224424   1.401   6.167   2.023
 7529SOL     OW24425  13.434  10.149  10.501
 7529SOL    HW124426  13.345  10.126  10.473
 7529SOL    HW224427  13.486  10.070  10.485
 7530SOL     OW24428  13.057  12.275  14.721
 7530SOL    HW124429  13.093  12.319  14.643
 7530SOL    HW224430  13.044  12.346  14.784
 7531SOL     OW24431  11.025   6.220   5.595
 7531SOL    HW124432  11.090   6.291   5.595
 7531SOL    HW224433  10.949   6.258   5.550
 7532SOL     OW24434   0.045   9.949   3.891
 7532SOL    HW124435  14.867  10.029   3.895
 7532SOL    HW224436   0.067   9.929   3.982
 7533SOL     OW24437   3.353  10.171  12.988
 7533SOL    HW124438   3.320  10.206  13.071
 7533SOL    HW224439   3.275  10.141  12.942
 7534SOL     OW24440   7.158   1.805   6.227
 7534SOL    HW124441   7.153   1.883   6.172
 7534SOL    HW224442   7.152   1.838   6.316
 7535SOL     OW24443   1.886  13.515  13.138
 7535SOL    HW124444   1.976  13.490  13.115
 7535SOL    HW224445   1.837  13.508  13.056
 7536SOL     OW24446   0.974  14.263   4.770
 7536SOL    HW124447   0.956  14.323   4.697
 7536SOL    HW224448   0.991  14.179   4.727
 7537SOL     OW24449  12.487   9.689   4.602
 7537SOL    HW124450  12.439   9.609   4.577
 7537SOL    HW224451  12.574   9.678   4.563
 7538SOL     OW24452  13.388  10.859   8.568
 7538SOL    HW124453  13.375  10.833   8.476
 7538SOL    HW224454  13.405  10.777   8.614
 7539SOL     OW24455   4.746   6.272   6.493
 7539SOL    HW124456   4.684   6.200   6.488
 7539SOL    HW224457   4.811   6.243   6.557
 7540SOL     OW24458   2.215  14.509   9.202
 7540SOL    HW124459   2.150  14.453   9.245
 7540SOL    HW224460   2.173  14.535   9.120
 7541SOL     OW24461   2.483   8.370   4.655
 7541SOL    HW124462   2.415   8.384   4.721
 7541SOL    HW224463   2.456   8.290   4.609
 7542SOL     OW24464   0.157   4.606  11.359
 7542SOL    HW124465   0.095   4.647  11.299
 7542SOL    HW224466   0.220   4.675  11.380
 7543SOL     OW24467   8.182   3.209  11.911
 7543SOL    HW124468   8.127   3.142  11.871
 7543SOL    HW224469   8.266   3.203  11.864
 7544SOL     OW24470   5.789  11.059   9.619
 7544SOL    HW124471   5.754  10.983   9.573
 7544SOL    HW224472   5.778  11.040   9.712
 7545SOL     OW24473   8.597  10.460   6.626
 7545SOL    HW124474   8.687  10.430   6.624
 7545SOL    HW224475   8.545  10.380   6.630
 7546SOL     OW24476   0.268  12.469   5.086
 7546SOL    HW124477   0.271  12.423   5.001
 7546SOL    HW224478   0.270  12.399   5.151
 7547SOL     OW24479   0.856   3.717   5.530
 7547SOL    HW124480   0.917   3.779   5.488
 7547SOL    HW224481   0.911   3.642   5.553
 7548SOL     OW24482   8.170   5.673   0.110
 7548SOL    HW124483   8.202   5.725   0.036
 7548SOL    HW224484   8.236   5.686   0.178
 7549SOL     OW24485   9.402   3.832   5.186
 7549SOL    HW124486   9.474   3.774   5.210
 7549SOL    HW224487   9.439   3.920   5.194
 7550SOL     OW24488   8.475   9.033  11.356
 7550SOL    HW124489   8.507   9.120  11.380
 7550SOL    HW224490   8.507   8.976  11.426
 7551SOL     OW24491   8.312   7.928   2.739
 7551SOL    HW124492   8.257   8.004   2.759
 7551SOL    HW224493   8.295   7.866   2.809
 7552SOL     OW24494   5.710   6.070  10.290
 7552SOL    HW124495   5.664   6.003  10.238
 7552SOL    HW224496   5.731   6.139  10.226
 7553SOL     OW24497  13.866  11.953   7.819
 7553SOL    HW124498  13.916  11.872   7.831
 7553SOL    HW224499  13.778  11.923   7.796
 7554SOL     OW24500  11.105   5.645   3.531
 7554SOL    HW124501  11.078   5.644   3.623
 7554SOL    HW224502  11.137   5.734   3.516
 7555SOL     OW24503  13.197  10.467   3.910
 7555SOL    HW124504  13.208  10.524   3.833
 7555SOL    HW224505  13.200  10.378   3.875
 7556SOL     OW24506   0.008   3.827   7.696
 7556SOL    HW124507   0.010   3.731   7.692
 7556SOL    HW224508   0.057   3.856   7.619
 7557SOL     OW24509  13.246   2.646  13.441
 7557SOL    HW124510  13.336   2.669  13.463
 7557SOL    HW224511  13.232   2.561  13.484
 7558SOL     OW24512   7.333   2.585   4.530
 7558SOL    HW124513   7.367   2.669   4.560
 7558SOL    HW224514   7.410   2.528   4.525
 7559SOL     OW24515   2.988   8.625   9.508
 7559SOL    HW124516   2.966   8.715   9.530
 7559SOL    HW224517   3.017   8.587   9.591
 7560SOL     OW24518   3.601   2.662   4.076
 7560SOL    HW124519   3.572   2.576   4.107
 7560SOL    HW224520   3.663   2.692   4.142
 7561SOL     OW24521   5.944   1.722   7.927
 7561SOL    HW124522   5.933   1.646   7.870
 7561SOL    HW224523   5.912   1.796   7.876
 7562SOL     OW24524   5.380   5.884   1.014
 7562SOL    HW124525   5.330   5.826   0.956
 7562SOL    HW224526   5.456   5.832   1.039
 7563SOL     OW24527  11.154   0.018  10.021
 7563SOL    HW124528  11.247   0.026  10.003
 7563SOL    HW224529  11.119   0.107  10.013
 7564SOL     OW24530   9.265   1.377   1.587
 7564SOL    HW124531   9.254   1.282   1.591
 7564SOL    HW224532   9.177   1.411   1.601
 7565SOL     OW24533   3.486  12.142   3.793
 7565SOL    HW124534   3.443  12.056   3.801
 7565SOL    HW224535   3.414  12.205   3.796
 7566SOL     OW24536  10.363   1.992   7.386
 7566SOL    HW124537  10.396   1.947   7.464
 7566SOL    HW224538  10.272   1.964   7.379
 7567SOL     OW24539   1.161   2.203   3.782
 7567SOL    HW124540   1.108   2.280   3.764
 7567SOL    HW224541   1.098   2.130   3.782
 7568SOL     OW24542   5.702   7.212   2.143
 7568SOL    HW124543   5.775   7.256   2.187
 7568SOL    HW224544   5.737   7.128   2.115
 7569SOL     OW24545   2.246   1.468   2.617
 7569SOL    HW124546   2.173   1.417   2.580
 7569SOL    HW224547   2.306   1.481   2.543
 7570SOL     OW24548   9.156  11.701  11.282
 7570SOL    HW124549   9.079  11.736  11.237
 7570SOL    HW224550   9.228  11.719  11.222
 7571SOL     OW24551  10.021   2.508   2.734
 7571SOL    HW124552   9.925   2.508   2.734
 7571SOL    HW224553  10.044   2.598   2.711
 7572SOL     OW24554  13.126  12.302   6.834
 7572SOL    HW124555  13.156  12.372   6.892
 7572SOL    HW224556  13.030  12.309   6.836
 7573SOL     OW24557  13.431   8.920   6.189
 7573SOL    HW124558  13.392   8.902   6.104
 7573SOL    HW224559  13.356   8.934   6.247
 7574SOL     OW24560   4.512   6.504   0.426
 7574SOL    HW124561   4.544   6.475   0.511
 7574SOL    HW224562   4.462   6.583   0.445
 7575SOL     OW24563   4.992  12.947  12.696
 7575SOL    HW124564   5.042  13.002  12.756
 7575SOL    HW224565   4.983  13.000  12.616
 7576SOL     OW24566   0.513  10.556   3.338
 7576SOL    HW124567   0.497  10.520   3.250
 7576SOL    HW224568   0.539  10.480   3.390
 7577SOL     OW24569   7.261   9.379   2.183
 7577SOL    HW124570   7.324   9.342   2.245
 7577SOL    HW224571   7.268   9.474   2.196
 7578SOL     OW24572  12.988   5.351   5.224
 7578SOL    HW124573  13.016   5.280   5.167
 7578SOL    HW224574  12.936   5.308   5.292
 7579SOL     OW24575   3.208  14.383  12.323
 7579SOL    HW124576   3.233  14.350  12.409
 7579SOL    HW224577   3.180  14.473  12.338
 7580SOL     OW24578   3.118   8.535   4.223
 7580SOL    HW124579   3.132   8.529   4.318
 7580SOL    HW224580   3.037   8.486   4.208
 7581SOL     OW24581  12.544   1.480   2.096
 7581SOL    HW124582  12.536   1.574   2.112
 7581SOL    HW224583  12.549   1.442   2.184
 7582SOL     OW24584   7.944  14.053   3.497
 7582SOL    HW124585   7.973  14.032   3.408
 7582SOL    HW224586   7.897  13.974   3.525
 7583SOL     OW24587   6.606   1.226   7.192
 7583SOL    HW124588   6.576   1.164   7.126
 7583SOL    HW224589   6.670   1.176   7.243
 7584SOL     OW24590   1.042   5.414  13.505
 7584SOL    HW124591   1.072   5.505  13.500
 7584SOL    HW224592   1.087   5.378  13.581
 7585SOL     OW24593   2.625   7.799   5.165
 7585SOL    HW124594   2.568   7.810   5.240
 7585SOL    HW224595   2.713   7.819   5.198
 7586SOL     OW24596   7.089   4.045   5.042
 7586SOL    HW124597   7.128   3.965   5.008
 7586SOL    HW224598   7.161   4.089   5.088
 7587SOL     OW24599  13.003  13.394  12.163
 7587SOL    HW124600  12.976  13.325  12.102
 7587SOL    HW224601  13.049  13.458  12.107
 7588SOL     OW24602  13.785   4.549   8.465
 7588SOL    HW124603  13.701   4.592   8.452
 7588SOL    HW224604  13.844   4.619   8.494
 7589SOL     OW24605   0.486  10.893   3.652
 7589SOL    HW124606   0.560  10.921   3.705
 7589SOL    HW224607   0.493  10.798   3.649
 7590SOL     OW24608  14.372   4.877   9.652
 7590SOL    HW124609  14.333   4.947   9.599
 7590SOL    HW224610  14.359   4.905   9.743
 7591SOL     OW24611   1.740   1.621  14.043
 7591SOL    HW124612   1.751   1.531  14.011
 7591SOL    HW224613   1.647   1.629  14.061
 7592SOL     OW24614  12.492   1.461   9.966
 7592SOL    HW124615  12.489   1.438  10.059
 7592SOL    HW224616  12.539   1.388   9.925
 7593SOL     OW24617  11.140   7.607  13.976
 7593SOL    HW124618  11.102   7.592  14.063
 7593SOL    HW224619  11.224   7.561  13.978
 7594SOL     OW24620   9.330  11.893   8.371
 7594SOL    HW124621   9.397  11.942   8.420
 7594SOL    HW224622   9.336  11.804   8.404
 7595SOL     OW24623  12.339   3.245   1.102
 7595SOL    HW124624  12.312   3.258   1.193
 7595SOL    HW224625  12.421   3.294   1.095
 7596SOL     OW24626   4.674  10.645   1.549
 7596SOL    HW124627   4.683  10.614   1.459
 7596SOL    HW224628   4.708  10.735   1.546
 7597SOL     OW24629   7.018  10.649   0.318
 7597SOL    HW124630   6.940  10.594   0.328
 7597SOL    HW224631   7.030  10.689   0.404
 7598SOL     OW24632   8.558   1.219   4.234
 7598SOL    HW124633   8.588   1.308   4.218
 7598SOL    HW224634   8.503   1.225   4.312
 7599SOL     OW24635  14.611   3.906  12.192
 7599SOL    HW124636  14.604   3.944  12.104
 7599SOL    HW224637  14.527   3.925  12.233
 7600SOL     OW24638   4.577  11.956  11.632
 7600SOL    HW124639   4.490  11.915  11.636
 7600SOL    HW224640   4.633  11.898  11.682
 7601SOL     OW24641   1.094   4.410   0.888
 7601SOL    HW124642   1.062   4.393   0.977
 7601SOL    HW224643   1.014   4.413   0.835
 7602SOL     OW24644   7.278   4.051   3.302
 7602SOL    HW124645   7.349   4.114   3.314
 7602SOL    HW224646   7.220   4.093   3.238
 7603SOL     OW24647   3.658   3.171   5.666
 7603SOL    HW124648   3.687   3.259   5.689
 7603SOL    HW224649   3.718   3.143   5.596
 7604SOL     OW24650  12.385   7.897   0.124
 7604SOL    HW124651  12.371   7.988   0.101
 7604SOL    HW224652  12.299   7.866   0.154
 7605SOL     OW24653   8.580  14.108   3.680
 7605SOL    HW124654   8.520  14.129   3.608
 7605SOL    HW224655   8.655  14.165   3.667
 7606SOL     OW24656   6.912  12.149  12.110
 7606SOL    HW124657   6.899  12.105  12.026
 7606SOL    HW224658   6.938  12.079  12.170
 7607SOL     OW24659   9.825   9.026   8.954
 7607SOL    HW124660   9.745   9.069   8.925
 7607SOL    HW224661   9.895   9.088   8.933
 7608SOL     OW24662   5.549   9.740  13.723
 7608SOL    HW124663   5.476   9.763  13.781
 7608SOL    HW224664   5.507   9.711  13.642
 7609SOL     OW24665   4.185  10.799   1.125
 7609SOL    HW124666   4.210  10.716   1.084
 7609SOL    HW224667   4.255  10.860   1.100
 7610SOL     OW24668  13.337   8.902  13.611
 7610SOL    HW124669  13.250   8.862  13.615
 7610SOL    HW224670  13.348   8.941  13.698
 7611SOL     OW24671   3.094   0.270   3.264
 7611SOL    HW124672   3.117   0.273   3.172
 7611SOL    HW224673   3.178   0.272   3.310
 7612SOL     OW24674   0.152   6.111   1.908
 7612SOL    HW124675   0.087   6.091   1.975
 7612SOL    HW224676   0.187   6.197   1.933
 7613SOL     OW24677   2.300   0.880   5.149
 7613SOL    HW124678   2.284   0.865   5.242
 7613SOL    HW224679   2.297   0.792   5.109
 7614SOL     OW24680   8.535   5.860   3.849
 7614SOL    HW124681   8.451   5.904   3.854
 7614SOL    HW224682   8.550   5.825   3.936
 7615SOL     OW24683   4.640   8.096  10.319
 7615SOL    HW124684   4.558   8.068  10.279
 7615SOL    HW224685   4.665   8.175  10.271
 7616SOL     OW24686   0.064   8.891  11.385
 7616SOL    HW124687   0.009   8.869  11.310
 7616SOL    HW224688   0.069   8.809  11.435
 7617SOL     OW24689   5.857   5.678  10.115
 7617SOL    HW124690   5.819   5.722  10.191
 7617SOL    HW224691   5.925   5.621  10.150
 7618SOL     OW24692   1.489  10.309   5.762
 7618SOL    HW124693   1.567  10.363   5.773
 7618SOL    HW224694   1.431  10.362   5.707
 7619SOL     OW24695  14.207   6.462   3.275
 7619SOL    HW124696  14.115   6.436   3.266
 7619SOL    HW224697  14.249   6.387   3.318
 7620SOL     OW24698   3.240   2.807   4.007
 7620SOL    HW124699   3.251   2.868   3.934
 7620SOL    HW224700   3.289   2.729   3.981
 7621SOL     OW24701   2.783   9.544   5.559
 7621SOL    HW124702   2.717   9.585   5.615
 7621SOL    HW224703   2.750   9.557   5.470
 7622SOL     OW24704  13.902   9.497   0.623
 7622SOL    HW124705  13.968   9.561   0.649
 7622SOL    HW224706  13.830   9.512   0.685
 7623SOL     OW24707   8.758  14.705   8.033
 7623SOL    HW124708   8.667  14.730   8.022
 7623SOL    HW224709   8.774  14.639   7.965
 7624SOL     OW24710   2.155  13.629  12.879
 7624SOL    HW124711   2.206  13.597  12.953
 7624SOL    HW224712   2.116  13.551  12.841
 7625SOL     OW24713  11.082  13.075   0.288
 7625SOL    HW124714  11.118  12.989   0.267
 7625SOL    HW224715  11.142  13.137   0.247
 7626SOL     OW24716   1.436   5.294   9.110
 7626SOL    HW124717   1.463   5.278   9.020
 7626SOL    HW224718   1.439   5.390   9.119
 7627SOL     OW24719   2.483   2.927  11.625
 7627SOL    HW124720   2.476   2.880  11.542
 7627SOL    HW224721   2.480   3.019  11.602
 7628SOL     OW24722  11.881   3.429   2.383
 7628SOL    HW124723  11.804   3.380   2.411
 7628SOL    HW224724  11.917   3.378   2.311
 7629SOL     OW24725   9.377  11.654   0.158
 7629SOL    HW124726   9.345  11.634   0.246
 7629SOL    HW224727   9.439  11.584   0.139
 7630SOL     OW24728  10.825   6.127  10.443
 7630SOL    HW124729  10.834   6.174  10.526
 7630SOL    HW224730  10.732   6.103  10.440
 7631SOL     OW24731   1.022  11.616   2.664
 7631SOL    HW124732   0.931  11.643   2.652
 7631SOL    HW224733   1.032  11.610   2.759
 7632SOL     OW24734  14.366   0.060   7.467
 7632SOL    HW124735  14.395   0.140   7.423
 7632SOL    HW224736  14.447   0.023   7.504
 7633SOL     OW24737   4.742   0.313   8.708
 7633SOL    HW124738   4.740   0.401   8.670
 7633SOL    HW224739   4.663   0.270   8.673
 7634SOL     OW24740   8.163   9.708  12.542
 7634SOL    HW124741   8.110   9.777  12.503
 7634SOL    HW224742   8.100   9.642  12.570
 7635SOL     OW24743   2.656   5.895  13.587
 7635SOL    HW124744   2.697   5.881  13.672
 7635SOL    HW224745   2.725   5.936  13.534
 7636SOL     OW24746   6.262   5.999   5.665
 7636SOL    HW124747   6.314   5.972   5.589
 7636SOL    HW224748   6.209   5.922   5.686
 7637SOL     OW24749  10.999   6.958   1.766
 7637SOL    HW124750  11.000   7.047   1.731
 7637SOL    HW224751  11.011   6.902   1.690
 7638SOL     OW24752   6.472  13.723  12.036
 7638SOL    HW124753   6.433  13.636  12.049
 7638SOL    HW224754   6.534  13.711  11.964
 7639SOL     OW24755   9.635   8.863   3.345
 7639SOL    HW124756   9.615   8.952   3.319
 7639SOL    HW224757   9.726   8.849   3.316
 7640SOL     OW24758   5.634   6.312   5.410
 7640SOL    HW124759   5.569   6.336   5.344
 7640SOL    HW224760   5.589   6.318   5.493
 7641SOL     OW24761   1.985   5.420   4.511
 7641SOL    HW124762   2.023   5.486   4.568
 7641SOL    HW224763   1.954   5.351   4.570
 7642SOL     OW24764  12.232   5.430  13.465
 7642SOL    HW124765  12.170   5.502  13.477
 7642SOL    HW224766  12.179   5.351  13.476
 7643SOL     OW24767  13.972   7.817   1.010
 7643SOL    HW124768  14.037   7.747   1.019
 7643SOL    HW224769  13.892   7.772   0.982
 7644SOL     OW24770   1.156   8.908   0.360
 7644SOL    HW124771   1.144   8.962   0.439
 7644SOL    HW224772   1.196   8.968   0.297
 7645SOL     OW24773  11.123   3.198  10.567
 7645SOL    HW124774  11.155   3.276  10.521
 7645SOL    HW224775  11.186   3.130  10.545
 7646SOL     OW24776  14.738   6.599   1.835
 7646SOL    HW124777  14.734   6.504   1.842
 7646SOL    HW224778  14.831   6.620   1.842
 7647SOL     OW24779   9.528   9.528  10.366
 7647SOL    HW124780   9.477   9.609  10.355
 7647SOL    HW224781   9.569   9.538  10.452
 7648SOL     OW24782   2.122  11.345   7.168
 7648SOL    HW124783   2.082  11.258   7.180
 7648SOL    HW224784   2.214  11.326   7.149
 7649SOL     OW24785   9.043  11.041   8.700
 7649SOL    HW124786   9.048  10.968   8.761
 7649SOL    HW224787   9.017  11.001   8.617
 7650SOL     OW24788  10.824  12.781   1.750
 7650SOL    HW124789  10.798  12.692   1.727
 7650SOL    HW224790  10.741  12.826   1.769
 7651SOL     OW24791   5.539   1.372   3.519
 7651SOL    HW124792   5.575   1.354   3.432
 7651SOL    HW224793   5.614   1.366   3.578
 7652SOL     OW24794   1.725   9.137   0.359
 7652SOL    HW124795   1.776   9.147   0.439
 7652SOL    HW224796   1.635   9.127   0.390
 7653SOL     OW24797   1.428   6.089  12.663
 7653SOL    HW124798   1.346   6.138  12.672
 7653SOL    HW224799   1.400   6.000  12.641
 7654SOL     OW24800  10.784  10.678   2.174
 7654SOL    HW124801  10.750  10.647   2.259
 7654SOL    HW224802  10.713  10.659   2.112
 7655SOL     OW24803   7.997  12.771   4.558
 7655SOL    HW124804   7.975  12.692   4.609
 7655SOL    HW224805   7.913  12.815   4.546
 7656SOL     OW24806  12.266   4.879   4.053
 7656SOL    HW124807  12.267   4.801   4.109
 7656SOL    HW224808  12.321   4.942   4.099
 7657SOL     OW24809  12.184   2.925  12.149
 7657SOL    HW124810  12.189   2.871  12.228
 7657SOL    HW224811  12.273   2.922  12.112
 7658SOL     OW24812   1.688  13.502  11.802
 7658SOL    HW124813   1.640  13.467  11.727
 7658SOL    HW224814   1.716  13.588  11.774
 7659SOL     OW24815   2.074   7.007   7.085
 7659SOL    HW124816   2.113   6.919   7.082
 7659SOL    HW224817   2.039   7.021   6.997
 7660SOL     OW24818  13.723   6.557   0.057
 7660SOL    HW124819  13.655   6.540   0.122
 7660SOL    HW224820  13.677   6.560  14.848
 7661SOL     OW24821   3.898   7.559   4.243
 7661SOL    HW124822   3.961   7.526   4.179
 7661SOL    HW224823   3.922   7.515   4.325
 7662SOL     OW24824   1.204  11.369  14.054
 7662SOL    HW124825   1.260  11.344  13.981
 7662SOL    HW224826   1.169  11.286  14.087
 7663SOL     OW24827  13.595  14.207  10.511
 7663SOL    HW124828  13.508  14.190  10.474
 7663SOL    HW224829  13.655  14.154  10.458
 7664SOL     OW24830   3.546   5.476  14.267
 7664SOL    HW124831   3.480   5.459  14.334
 7664SOL    HW224832   3.522   5.561  14.231
 7665SOL     OW24833  12.917   1.241  10.101
 7665SOL    HW124834  12.989   1.218  10.160
 7665SOL    HW224835  12.959   1.251  10.015
 7666SOL     OW24836   3.222  13.559   7.493
 7666SOL    HW124837   3.248  13.651   7.487
 7666SOL    HW224838   3.208  13.532   7.402
 7667SOL     OW24839  14.431   9.674   8.473
 7667SOL    HW124840  14.339   9.689   8.450
 7667SOL    HW224841  14.479   9.743   8.428
 7668SOL     OW24842   4.527   8.131   7.220
 7668SOL    HW124843   4.535   8.114   7.314
 7668SOL    HW224844   4.462   8.068   7.189
 7669SOL     OW24845   0.814  14.737   4.666
 7669SOL    HW124846   0.723  14.736   4.638
 7669SOL    HW224847   0.810  14.760   4.759
 7670SOL     OW24848  12.775  11.734   3.922
 7670SOL    HW124849  12.684  11.755   3.945
 7670SOL    HW224850  12.779  11.745   3.827
 7671SOL     OW24851   7.473  11.743   9.941
 7671SOL    HW124852   7.539  11.799   9.981
 7671SOL    HW224853   7.509  11.655   9.945
 7672SOL     OW24854   1.934   0.385   1.504
 7672SOL    HW124855   1.876   0.460   1.514
 7672SOL    HW224856   2.004   0.416   1.446
 7673SOL     OW24857   6.396   2.773  13.295
 7673SOL    HW124858   6.427   2.861  13.273
 7673SOL    HW224859   6.337   2.750  13.223
 7674SOL     OW24860   1.899   3.722  13.936
 7674SOL    HW124861   1.818   3.675  13.953
 7674SOL    HW224862   1.964   3.653  13.921
 7675SOL     OW24863  14.596  14.566  13.602
 7675SOL    HW124864  14.584  14.522  13.518
 7675SOL    HW224865  14.605  14.659  13.580
 7676SOL     OW24866  12.978   9.635   5.727
 7676SOL    HW124867  13.010   9.630   5.636
 7676SOL    HW224868  12.955   9.727   5.739
 7677SOL     OW24869  11.840   0.833   5.532
 7677SOL    HW124870  11.922   0.841   5.483
 7677SOL    HW224871  11.775   0.809   5.466
 7678SOL     OW24872   9.568   7.088  12.420
 7678SOL    HW124873   9.533   7.168  12.381
 7678SOL    HW224874   9.516   7.017  12.381
 7679SOL     OW24875  14.492   7.185   0.141
 7679SOL    HW124876  14.517   7.095   0.119
 7679SOL    HW224877  14.564   7.238   0.107
 7680SOL     OW24878   5.011   6.677  10.619
 7680SOL    HW124879   4.951   6.742  10.583
 7680SOL    HW224880   4.984   6.668  10.711
 7681SOL     OW24881  10.201   0.762   9.305
 7681SOL    HW124882  10.214   0.851   9.338
 7681SOL    HW224883  10.177   0.773   9.213
 7682SOL     OW24884   8.778  11.024   5.615
 7682SOL    HW124885   8.827  10.954   5.573
 7682SOL    HW224886   8.686  11.001   5.601
 7683SOL     OW24887   4.302  11.672   9.764
 7683SOL    HW124888   4.306  11.605   9.833
 7683SOL    HW224889   4.355  11.635   9.693
 7684SOL     OW24890  11.131   3.551  13.827
 7684SOL    HW124891  11.080   3.607  13.887
 7684SOL    HW224892  11.222   3.575  13.844
 7685SOL     OW24893  13.045   2.672  12.611
 7685SOL    HW124894  13.062   2.578  12.615
 7685SOL    HW224895  13.123   2.712  12.648
 7686SOL     OW24896   7.928   5.751  11.284
 7686SOL    HW124897   7.857   5.753  11.219
 7686SOL    HW224898   7.917   5.833  11.333
 7687SOL     OW24899   3.106  12.638   0.284
 7687SOL    HW124900   3.161  12.586   0.225
 7687SOL    HW224901   3.123  12.729   0.258
 7688SOL     OW24902   0.427   6.894  14.404
 7688SOL    HW124903   0.503   6.839  14.421
 7688SOL    HW224904   0.444   6.974  14.454
 7689SOL     OW24905  10.282  10.787   0.603
 7689SOL    HW124906  10.254  10.764   0.515
 7689SOL    HW224907  10.218  10.852   0.633
 7690SOL     OW24908   0.206  10.728   3.637
 7690SOL    HW124909   0.155  10.745   3.716
 7690SOL    HW224910   0.195  10.807   3.584
 7691SOL     OW24911   0.357  13.061  14.560
 7691SOL    HW124912   0.318  12.993  14.506
 7691SOL    HW224913   0.426  13.098  14.505
 7692SOL     OW24914  10.738   8.613   9.960
 7692SOL    HW124915  10.781   8.620   9.874
 7692SOL    HW224916  10.730   8.519   9.975
 7693SOL     OW24917   0.534   1.116   7.018
 7693SOL    HW124918   0.492   1.167   7.087
 7693SOL    HW224919   0.506   1.160   6.937
 7694SOL     OW24920  10.343   7.601   5.065
 7694SOL    HW124921  10.335   7.513   5.027
 7694SOL    HW224922  10.409   7.644   5.010
 7695SOL     OW24923  12.380   7.582   1.283
 7695SOL    HW124924  12.309   7.634   1.246
 7695SOL    HW224925  12.366   7.493   1.250
 7696SOL     OW24926   0.619   4.715   7.142
 7696SOL    HW124927   0.596   4.691   7.052
 7696SOL    HW224928   0.667   4.797   7.133
 7697SOL     OW24929   9.826   1.106   0.377
 7697SOL    HW124930   9.895   1.058   0.332
 7697SOL    HW224931   9.830   1.195   0.341
 7698SOL     OW24932  11.799   8.254  11.627
 7698SOL    HW124933  11.846   8.305  11.693
 7698SOL    HW224934  11.865   8.192  11.594
 7699SOL     OW24935   5.909   6.852   4.466
 7699SOL    HW124936   5.879   6.762   4.457
 7699SOL    HW224937   5.897   6.890   4.379
 7700SOL     OW24938  14.165  10.339  10.973
 7700SOL    HW124939  14.103  10.302  11.036
 7700SOL    HW224940  14.151  10.289  10.893
 7701SOL     OW24941  13.029   5.856   9.690
 7701SOL    HW124942  12.985   5.796   9.630
 7701SOL    HW224943  13.066   5.923   9.633
 7702SOL     OW24944  13.542   0.573   3.873
 7702SOL    HW124945  13.615   0.531   3.828
 7702SOL    HW224946  13.470   0.572   3.810
 7703SOL     OW24947  12.307   4.672   2.266
 7703SOL    HW124948  12.244   4.612   2.307
 7703SOL    HW224949  12.262   4.757   2.266
 7704SOL     OW24950   9.017  10.926   4.516
 7704SOL    HW124951   8.923  10.935   4.502
 7704SOL    HW224952   9.027  10.919   4.611
 7705SOL     OW24953   0.926   2.254   4.580
 7705SOL    HW124954   0.999   2.273   4.639
 7705SOL    HW224955   0.952   2.175   4.533
 7706SOL     OW24956  12.670   5.167   7.507
 7706SOL    HW124957  12.616   5.088   7.515
 7706SOL    HW224958  12.630   5.229   7.568
 7707SOL     OW24959   8.011   3.121   1.317
 7707SOL    HW124960   8.031   3.030   1.297
 7707SOL    HW224961   8.039   3.133   1.408
 7708SOL     OW24962  14.273   5.718   3.918
 7708SOL    HW124963  14.276   5.716   3.823
 7708SOL    HW224964  14.206   5.783   3.939
 7709SOL     OW24965   4.140   0.873  10.567
 7709SOL    HW124966   4.115   0.900  10.656
 7709SOL    HW224967   4.145   0.955  10.518
 7710SOL     OW24968   9.309   3.337  14.456
 7710SOL    HW124969   9.398   3.313  14.432
 7710SOL    HW224970   9.279   3.394  14.385
 7711SOL     OW24971   9.326   5.730   2.005
 7711SOL    HW124972   9.361   5.806   2.052
 7711SOL    HW224973   9.234   5.750   1.991
 7712SOL     OW24974   8.028   2.697  12.403
 7712SOL    HW124975   8.097   2.712  12.469
 7712SOL    HW224976   7.971   2.632  12.444
 7713SOL     OW24977  13.345   2.932   6.843
 7713SOL    HW124978  13.307   2.937   6.931
 7713SOL    HW224979  13.333   3.019   6.806
 7714SOL     OW24980  10.242   3.997   6.685
 7714SOL    HW124981  10.311   3.973   6.622
 7714SOL    HW224982  10.169   3.938   6.664
 7715SOL     OW24983   8.316   6.829   6.720
 7715SOL    HW124984   8.408   6.803   6.725
 7715SOL    HW224985   8.311   6.886   6.643
 7716SOL     OW24986   6.411   9.501   6.739
 7716SOL    HW124987   6.391   9.419   6.695
 7716SOL    HW224988   6.325   9.540   6.757
 7717SOL     OW24989  10.901   7.959   1.734
 7717SOL    HW124990  10.933   7.972   1.824
 7717SOL    HW224991  10.808   7.940   1.745
 7718SOL     OW24992   6.177   2.345  14.487
 7718SOL    HW124993   6.089   2.306  14.484
 7718SOL    HW224994   6.161   2.438  14.502
 7719SOL     OW24995  12.417   8.847   0.654
 7719SOL    HW124996  12.474   8.771   0.654
 7719SOL    HW224997  12.411   8.873   0.747
 7720SOL     OW24998   3.601  10.775  13.566
 7720SOL    HW124999   3.568  10.862  13.588
 7720SOL    HW225000   3.547  10.715  13.617
 7721SOL     OW25001   3.227  12.509   4.291
 7721SOL    HW125002   3.238  12.580   4.229
 7721SOL    HW225003   3.183  12.548   4.366
 7722SOL     OW25004   3.509   5.252   2.177
 7722SOL    HW125005   3.593   5.255   2.223
 7722SOL    HW225006   3.532   5.238   2.085
 7723SOL     OW25007   6.924  13.842  10.850
 7723SOL    HW125008   6.851  13.905  10.851
 7723SOL    HW225009   6.983  13.873  10.918
 7724SOL     OW25010   9.316   3.368   7.123
 7724SOL    HW125011   9.295   3.282   7.159
 7724SOL    HW225012   9.295   3.430   7.193
 7725SOL     OW25013   0.975   1.414  10.719
 7725SOL    HW125014   1.020   1.498  10.724
 7725SOL    HW225015   0.918   1.412  10.795
 7726SOL     OW25016  12.467  14.006   0.825
 7726SOL    HW125017  12.441  14.091   0.861
 7726SOL    HW225018  12.470  14.019   0.731
 7727SOL     OW25019  12.371  10.722  10.628
 7727SOL    HW125020  12.381  10.748  10.719
 7727SOL    HW225021  12.447  10.667  10.610
 7728SOL     OW25022   1.606  12.099  11.740
 7728SOL    HW125023   1.522  12.144  11.734
 7728SOL    HW225024   1.671  12.165  11.717
 7729SOL     OW25025   6.007   6.453   8.863
 7729SOL    HW125026   5.998   6.546   8.881
 7729SOL    HW225027   5.990   6.444   8.769
 7730SOL     OW25028   6.888   5.375   2.640
 7730SOL    HW125029   6.977   5.402   2.665
 7730SOL    HW225030   6.837   5.456   2.646
 7731SOL     OW25031  13.600   1.785  13.218
 7731SOL    HW125032  13.692   1.764  13.206
 7731SOL    HW225033  13.599   1.879  13.237
 7732SOL     OW25034  13.381  12.615   1.879
 7732SOL    HW125035  13.344  12.620   1.791
 7732SOL    HW225036  13.319  12.560   1.927
 7733SOL     OW25037  10.002  11.449  13.494
 7733SOL    HW125038   9.989  11.397  13.573
 7733SOL    HW225039  10.055  11.523  13.523
 7734SOL     OW25040   3.517   6.769   5.591
 7734SOL    HW125041   3.573   6.772   5.668
 7734SOL    HW225042   3.432   6.739   5.623
 7735SOL     OW25043   0.083   0.708  10.039
 7735SOL    HW125044   0.158   0.720  10.097
 7735SOL    HW225045   0.015   0.766  10.074
 7736SOL     OW25046   0.938   5.956   0.823
 7736SOL    HW125047   1.000   5.900   0.870
 7736SOL    HW225048   0.887   5.895   0.769
 7737SOL     OW25049   9.523  12.792   9.869
 7737SOL    HW125050   9.594  12.794   9.805
 7737SOL    HW225051   9.443  12.798   9.817
 7738SOL     OW25052   9.050   6.670   9.938
 7738SOL    HW125053   9.037   6.692  10.030
 7738SOL    HW225054   8.969   6.625   9.913
 7739SOL     OW25055  12.408   4.906  12.559
 7739SOL    HW125056  12.325   4.866  12.584
 7739SOL    HW225057  12.385   4.974  12.497
 7740SOL     OW25058   4.757  10.433  13.099
 7740SOL    HW125059   4.734  10.391  13.181
 7740SOL    HW225060   4.685  10.410  13.039
 7741SOL     OW25061   1.458   8.056   6.382
 7741SOL    HW125062   1.512   8.067   6.461
 7741SOL    HW225063   1.516   8.080   6.310
 7742SOL     OW25064  10.036   6.654   9.683
 7742SOL    HW125065  10.005   6.565   9.666
 7742SOL    HW225066   9.958   6.708   9.679
 7743SOL     OW25067   7.710   2.996   3.614
 7743SOL    HW125068   7.679   2.927   3.556
 7743SOL    HW225069   7.650   3.069   3.599
 7744SOL     OW25070   9.728   4.428   7.925
 7744SOL    HW125071   9.645   4.387   7.902
 7744SOL    HW225072   9.722   4.444   8.019
 7745SOL     OW25073   2.074  10.885   5.938
 7745SOL    HW125074   2.160  10.854   5.965
 7745SOL    HW225075   2.091  10.964   5.888
 7746SOL     OW25076  10.619  14.689  11.520
 7746SOL    HW125077  10.559  14.662  11.590
 7746SOL    HW225078  10.704  14.654  11.547
 7747SOL     OW25079   3.753  12.373   4.972
 7747SOL    HW125080   3.736  12.375   5.067
 7747SOL    HW225081   3.759  12.280   4.951
 7748SOL     OW25082  14.496  11.542   2.076
 7748SOL    HW125083  14.484  11.451   2.051
 7748SOL    HW225084  14.434  11.591   2.022
 7749SOL     OW25085  10.633  10.765  11.075
 7749SOL    HW125086  10.663  10.716  10.998
 7749SOL    HW225087  10.680  10.849  11.069
 7750SOL     OW25088   4.938   4.981  11.838
 7750SOL    HW125089   4.921   5.045  11.908
 7750SOL    HW225090   5.001   5.025  11.781
 7751SOL     OW25091   5.941   7.585   1.414
 7751SOL    HW125092   6.003   7.604   1.344
 7751SOL    HW225093   5.919   7.492   1.403
 7752SOL     OW25094   8.072  14.700  13.654
 7752SOL    HW125095   8.102  14.630  13.596
 7752SOL    HW225096   8.140  14.706  13.721
 7753SOL     OW25097   7.197  10.205   9.981
 7753SOL    HW125098   7.186  10.299   9.993
 7753SOL    HW225099   7.290  10.190   9.997
 7754SOL     OW25100   7.703   6.467   3.302
 7754SOL    HW125101   7.668   6.425   3.380
 7754SOL    HW225102   7.629   6.517   3.267
 7755SOL     OW25103   8.962  13.302  11.077
 7755SOL    HW125104   8.893  13.290  11.142
 7755SOL    HW225105   8.918  13.342  11.002
 7756SOL     OW25106   5.383  13.729   2.544
 7756SOL    HW125107   5.418  13.641   2.528
 7756SOL    HW225108   5.294  13.726   2.508
 7757SOL     OW25109   3.143   8.556   7.391
 7757SOL    HW125110   3.233   8.556   7.425
 7757SOL    HW225111   3.138   8.633   7.336
 7758SOL     OW25112   5.843   3.055  11.357
 7758SOL    HW125113   5.876   2.967  11.339
 7758SOL    HW225114   5.748   3.050  11.341
 7759SOL     OW25115   8.427   3.703   9.381
 7759SOL    HW125116   8.484   3.769   9.421
 7759SOL    HW225117   8.375   3.670   9.453
 7760SOL     OW25118   5.921   8.814   5.460
 7760SOL    HW125119   6.013   8.834   5.444
 7760SOL    HW225120   5.905   8.735   5.408
 7761SOL     OW25121  10.374   1.038  11.125
 7761SOL    HW125122  10.459   0.997  11.106
 7761SOL    HW225123  10.395   1.109  11.186
 7762SOL     OW25124   8.254   6.406   2.505
 7762SOL    HW125125   8.248   6.311   2.508
 7762SOL    HW225126   8.177   6.436   2.553
 7763SOL     OW25127  11.630   9.773   9.403
 7763SOL    HW125128  11.631   9.830   9.326
 7763SOL    HW225129  11.538   9.748   9.414
 7764SOL     OW25130   2.492   5.229   3.461
 7764SOL    HW125131   2.492   5.177   3.381
 7764SOL    HW225132   2.402   5.261   3.469
 7765SOL     OW25133   8.321   8.670   4.176
 7765SOL    HW125134   8.282   8.583   4.167
 7765SOL    HW225135   8.414   8.654   4.194
 7766SOL     OW25136  12.797   4.403  10.602
 7766SOL    HW125137  12.713   4.360  10.586
 7766SOL    HW225138  12.825   4.435  10.517
 7767SOL     OW25139  13.509   8.531   2.694
 7767SOL    HW125140  13.478   8.613   2.732
 7767SOL    HW225141  13.430   8.489   2.660
 7768SOL     OW25142   1.418  14.320   1.388
 7768SOL    HW125143   1.403  14.226   1.389
 7768SOL    HW225144   1.512  14.329   1.406
 7769SOL     OW25145  13.816   8.501   7.026
 7769SOL    HW125146  13.745   8.565   7.027
 7769SOL    HW225147  13.776   8.422   6.989
 7770SOL     OW25148  10.024   1.751   1.320
 7770SOL    HW125149  10.092   1.787   1.376
 7770SOL    HW225150   9.959   1.821   1.313
 7771SOL     OW25151   8.806  11.585  12.978
 7771SOL    HW125152   8.814  11.617  12.888
 7771SOL    HW225153   8.819  11.663  13.032
 7772SOL     OW25154   9.009   8.776   7.245
 7772SOL    HW125155   8.945   8.759   7.314
 7772SOL    HW225156   9.077   8.709   7.260
 7773SOL     OW25157   5.268   7.426   6.978
 7773SOL    HW125158   5.357   7.423   7.015
 7773SOL    HW225159   5.213   7.386   7.045
 7774SOL     OW25160   3.417  12.477   0.983
 7774SOL    HW125161   3.365  12.470   0.903
 7774SOL    HW225162   3.353  12.496   1.051
 7775SOL     OW25163  11.949   4.039  11.484
 7775SOL    HW125164  11.962   4.133  11.494
 7775SOL    HW225165  11.877   4.031  11.422
 7776SOL     OW25166   8.934  12.406   5.125
 7776SOL    HW125167   9.019  12.390   5.084
 7776SOL    HW225168   8.928  12.342   5.195
 7777SOL     OW25169   2.185   2.443   2.125
 7777SOL    HW125170   2.261   2.440   2.183
 7777SOL    HW225171   2.111   2.462   2.183
 7778SOL     OW25172  10.217   9.466   7.626
 7778SOL    HW125173  10.222   9.431   7.537
 7778SOL    HW225174  10.130   9.441   7.657
 7779SOL     OW25175  11.498   4.706  11.425
 7779SOL    HW125176  11.573   4.761  11.403
 7779SOL    HW225177  11.530   4.616  11.415
 7780SOL     OW25178   0.297   9.844  12.524
 7780SOL    HW125179   0.336   9.929  12.504
 7780SOL    HW225180   0.369   9.792  12.561
 7781SOL     OW25181  12.444   3.823   2.993
 7781SOL    HW125182  12.536   3.830   2.969
 7781SOL    HW225183  12.441   3.754   3.060
 7782SOL     OW25184   4.004  11.069  13.337
 7782SOL    HW125185   4.071  11.100  13.276
 7782SOL    HW225186   3.931  11.129  13.324
 7783SOL     OW25187   5.715   8.430   4.620
 7783SOL    HW125188   5.730   8.353   4.675
 7783SOL    HW225189   5.782   8.425   4.552
 7784SOL     OW25190   8.144  12.505   9.974
 7784SOL    HW125191   8.222  12.540   9.932
 7784SOL    HW225192   8.140  12.550  10.059
 7785SOL     OW25193  12.185   0.661   7.595
 7785SOL    HW125194  12.107   0.669   7.648
 7785SOL    HW225195  12.197   0.748   7.556
 7786SOL     OW25196  12.507   3.010   9.457
 7786SOL    HW125197  12.421   2.976   9.430
 7786SOL    HW225198  12.506   3.007   9.552
 7787SOL     OW25199   4.356   9.723   8.769
 7787SOL    HW125200   4.274   9.770   8.781
 7787SOL    HW225201   4.393   9.759   8.689
 7788SOL     OW25202   8.346   0.723   5.795
 7788SOL    HW125203   8.379   0.796   5.743
 7788SOL    HW225204   8.290   0.674   5.736
 7789SOL     OW25205   3.401  12.439  12.603
 7789SOL    HW125206   3.367  12.486  12.679
 7789SOL    HW225207   3.495  12.432  12.619
 7790SOL     OW25208   2.771  12.088   8.199
 7790SOL    HW125209   2.725  12.098   8.115
 7790SOL    HW225210   2.711  12.126   8.264
 7791SOL     OW25211  10.727   3.548  10.441
 7791SOL    HW125212  10.803   3.495  10.467
 7791SOL    HW225213  10.762   3.636  10.428
 7792SOL     OW25214   1.893   0.913  12.377
 7792SOL    HW125215   1.949   0.950  12.446
 7792SOL    HW225216   1.805   0.945  12.398
 7793SOL     OW25217   7.641   3.714   3.117
 7793SOL    HW125218   7.636   3.750   3.029
 7793SOL    HW225219   7.554   3.728   3.153
 7794SOL     OW25220  11.765   5.609  10.265
 7794SOL    HW125221  11.670   5.603  10.274
 7794SOL    HW225222  11.783   5.702  10.257
 7795SOL     OW25223  13.512   4.063  13.073
 7795SOL    HW125224  13.546   4.142  13.031
 7795SOL    HW225225  13.585   4.001  13.070
 7796SOL     OW25226  14.152   1.807   5.892
 7796SOL    HW125227  14.097   1.885   5.900
 7796SOL    HW225228  14.182   1.790   5.981
 7797SOL     OW25229   2.797   2.304   8.526
 7797SOL    HW125230   2.806   2.209   8.531
 7797SOL    HW225231   2.737   2.319   8.453
 7798SOL     OW25232  10.364   8.777  14.085
 7798SOL    HW125233  10.315   8.697  14.100
 7798SOL    HW225234  10.392   8.771  13.993
 7799SOL     OW25235  12.412  13.129  12.946
 7799SOL    HW125236  12.501  13.166  12.949
 7799SOL    HW225237  12.424  13.040  12.913
 7800SOL     OW25238  11.618   3.700   7.086
 7800SOL    HW125239  11.550   3.690   7.019
 7800SOL    HW225240  11.699   3.714   7.036
 7801SOL     OW25241   3.072   8.683  11.803
 7801SOL    HW125242   3.071   8.629  11.723
 7801SOL    HW225243   3.007   8.752  11.785
 7802SOL     OW25244   3.402   1.364  12.851
 7802SOL    HW125245   3.489   1.378  12.888
 7802SOL    HW225246   3.388   1.269  12.860
 7803SOL     OW25247  12.906   6.173   8.044
 7803SOL    HW125248  12.932   6.198   8.132
 7803SOL    HW225249  12.858   6.248   8.010
 7804SOL     OW25250  13.157   4.233   5.114
 7804SOL    HW125251  13.214   4.310   5.111
 7804SOL    HW225252  13.100   4.243   5.038
 7805SOL     OW25253   6.319   9.808   5.760
 7805SOL    HW125254   6.391   9.754   5.727
 7805SOL    HW225255   6.362   9.887   5.794
 7806SOL     OW25256  12.715   6.154   9.825
 7806SOL    HW125257  12.650   6.187   9.887
 7806SOL    HW225258  12.700   6.204   9.745
 7807SOL     OW25259  12.147  14.854   6.689
 7807SOL    HW125260  12.161   0.074   6.677
 7807SOL    HW225261  12.053  14.846   6.706
 7808SOL     OW25262   8.255   9.028   9.581
 7808SOL    HW125263   8.241   8.960   9.516
 7808SOL    HW225264   8.182   9.088   9.568
 7809SOL     OW25265   0.739   1.575   8.953
 7809SOL    HW125266   0.774   1.664   8.949
 7809SOL    HW225267   0.644   1.586   8.949
 7810SOL     OW25268  11.079   5.100   3.357
 7810SOL    HW125269  10.985   5.086   3.357
 7810SOL    HW225270  11.090   5.191   3.385
 7811SOL     OW25271   4.432  10.210   1.727
 7811SOL    HW125272   4.510  10.155   1.734
 7811SOL    HW225273   4.461  10.288   1.680
 7812SOL     OW25274  10.644   4.144   2.669
 7812SOL    HW125275  10.611   4.090   2.598
 7812SOL    HW225276  10.634   4.090   2.747
 7813SOL     OW25277   3.444   3.838  11.499
 7813SOL    HW125278   3.487   3.924  11.501
 7813SOL    HW225279   3.421   3.821  11.591
 7814SOL     OW25280  10.894  13.397   2.924
 7814SOL    HW125281  10.960  13.368   2.861
 7814SOL    HW225282  10.908  13.342   3.001
 7815SOL     OW25283   1.181   0.916  12.086
 7815SOL    HW125284   1.260   0.888  12.131
 7815SOL    HW225285   1.213   0.961  12.007
 7816SOL     OW25286   7.227   5.105  11.600
 7816SOL    HW125287   7.226   5.199  11.619
 7816SOL    HW225288   7.239   5.100  11.505
 7817SOL     OW25289   2.255   0.508  11.818
 7817SOL    HW125290   2.179   0.455  11.796
 7817SOL    HW225291   2.239   0.539  11.907
 7818SOL     OW25292   0.193   6.850  10.195
 7818SOL    HW125293   0.234   6.851  10.109
 7818SOL    HW225294   0.115   6.795  10.184
 7819SOL     OW25295   5.850   0.560   7.532
 7819SOL    HW125296   5.867   0.616   7.456
 7819SOL    HW225297   5.755   0.548   7.532
 7820SOL     OW25298   1.995   7.257   6.490
 7820SOL    HW125299   1.998   7.350   6.465
 7820SOL    HW225300   1.983   7.211   6.407
 7821SOL     OW25301  13.398  12.426  12.009
 7821SOL    HW125302  13.394  12.455  12.100
 7821SOL    HW225303  13.319  12.461  11.969
 7822SOL     OW25304   4.557  12.483   3.709
 7822SOL    HW125305   4.501  12.417   3.671
 7822SOL    HW225306   4.531  12.487   3.801
 7823SOL     OW25307   8.184  12.766   2.721
 7823SOL    HW125308   8.190  12.690   2.662
 7823SOL    HW225309   8.248  12.747   2.790
 7824SOL     OW25310   5.554   2.390   4.572
 7824SOL    HW125311   5.510   2.475   4.567
 7824SOL    HW225312   5.630   2.406   4.628
 7825SOL     OW25313   1.819   2.902  11.519
 7825SOL    HW125314   1.826   2.979  11.462
 7825SOL    HW225315   1.892   2.845  11.492
 7826SOL     OW25316   5.460  13.916   9.416
 7826SOL    HW125317   5.367  13.910   9.395
 7826SOL    HW225318   5.504  13.877   9.340
 7827SOL     OW25319  12.537  13.057   0.438
 7827SOL    HW125320  12.500  13.145   0.442
 7827SOL    HW225321  12.478  13.004   0.492
 7828SOL     OW25322   5.183  13.311   0.401
 7828SOL    HW125323   5.199  13.252   0.327
 7828SOL    HW225324   5.267  13.353   0.417
 7829SOL     OW25325  13.532   7.296  11.615
 7829SOL    HW125326  13.478   7.297  11.536
 7829SOL    HW225327  13.541   7.204  11.637
 7830SOL     OW25328  11.876   9.947   9.159
 7830SOL    HW125329  11.782   9.945   9.140
 7830SOL    HW225330  11.883   9.911   9.248
 7831SOL     OW25331   6.758  10.231   8.581
 7831SOL    HW125332   6.689  10.296   8.587
 7831SOL    HW225333   6.828  10.265   8.637
 7832SOL     OW25334   7.655   8.830   4.982
 7832SOL    HW125335   7.650   8.922   4.957
 7832SOL    HW225336   7.659   8.832   5.078
 7833SOL     OW25337   3.175  12.248  13.360
 7833SOL    HW125338   3.202  12.236  13.269
 7833SOL    HW225339   3.149  12.160  13.388
 7834SOL     OW25340   1.729   8.433  12.675
 7834SOL    HW125341   1.757   8.426  12.766
 7834SOL    HW225342   1.664   8.363  12.665
 7835SOL     OW25343   7.127  13.931   7.836
 7835SOL    HW125344   7.221  13.914   7.840
 7835SOL    HW225345   7.094  13.871   7.770
 7836SOL     OW25346   1.393   1.737   6.834
 7836SOL    HW125347   1.414   1.763   6.744
 7836SOL    HW225348   1.317   1.680   6.825
 7837SOL     OW25349   6.598  12.491   8.388
 7837SOL    HW125350   6.650  12.511   8.310
 7837SOL    HW225351   6.663  12.478   8.458
 7838SOL     OW25352  14.808   2.256  14.267
 7838SOL    HW125353  14.851   2.327  14.314
 7838SOL    HW225354  14.715   2.271  14.280
 7839SOL     OW25355   1.544   8.810   8.954
 7839SOL    HW125356   1.506   8.759   9.026
 7839SOL    HW225357   1.546   8.900   8.987
 7840SOL     OW25358   1.218   4.266   8.893
 7840SOL    HW125359   1.180   4.195   8.841
 7840SOL    HW225360   1.312   4.252   8.889
 7841SOL     OW25361   5.632   6.355  13.027
 7841SOL    HW125362   5.597   6.315  12.948
 7841SOL    HW225363   5.684   6.428  12.996
 7842SOL     OW25364   9.510   6.208   9.146
 7842SOL    HW125365   9.458   6.279   9.183
 7842SOL    HW225366   9.522   6.147   9.218
 7843SOL     OW25367   0.620   0.843  12.894
 7843SOL    HW125368   0.575   0.919  12.857
 7843SOL    HW225369   0.658   0.799  12.818
 7844SOL     OW25370   1.781   1.304   1.792
 7844SOL    HW125371   1.728   1.374   1.829
 7844SOL    HW225372   1.742   1.286   1.706
 7845SOL     OW25373  12.103   2.392  11.208
 7845SOL    HW125374  12.033   2.335  11.240
 7845SOL    HW225375  12.143   2.428  11.287
 7846SOL     OW25376   0.576  12.315   7.547
 7846SOL    HW125377   0.668  12.328   7.570
 7846SOL    HW225378   0.578  12.278   7.459
 7847SOL     OW25379   9.748   2.280   4.663
 7847SOL    HW125380   9.830   2.287   4.615
 7847SOL    HW225381   9.745   2.189   4.692
 7848SOL     OW25382   6.168   0.315   8.859
 7848SOL    HW125383   6.193   0.230   8.822
 7848SOL    HW225384   6.251   0.360   8.872
 7849SOL     OW25385   8.727   3.056   6.896
 7849SOL    HW125386   8.792   3.028   6.831
 7849SOL    HW225387   8.700   2.976   6.940
 7850SOL     OW25388  12.189   7.213   6.716
 7850SOL    HW125389  12.264   7.157   6.737
 7850SOL    HW225390  12.124   7.192   6.782
 7851SOL     OW25391   8.182   3.845   2.052
 7851SOL    HW125392   8.252   3.910   2.044
 7851SOL    HW225393   8.224   3.771   2.096
 7852SOL     OW25394   0.258  13.401   9.883
 7852SOL    HW125395   0.255  13.434   9.973
 7852SOL    HW225396   0.166  13.401   9.855
 7853SOL     OW25397   6.366   5.723  11.267
 7853SOL    HW125398   6.293   5.693  11.213
 7853SOL    HW225399   6.347   5.690  11.354
 7854SOL     OW25400  14.796   4.024  12.663
 7854SOL    HW125401  14.768   4.102  12.615
 7854SOL    HW225402  14.783   4.047  12.755
 7855SOL     OW25403  12.823  11.640   9.601
 7855SOL    HW125404  12.739  11.609   9.566
 7855SOL    HW225405  12.882  11.565   9.591
 7856SOL     OW25406   0.991   5.355   5.986
 7856SOL    HW125407   0.954   5.302   6.056
 7856SOL    HW225408   0.984   5.445   6.017
 7857SOL     OW25409  14.597   5.897   0.558
 7857SOL    HW125410  14.602   5.993   0.562
 7857SOL    HW225411  14.506   5.879   0.532
 7858SOL     OW25412   3.452   1.053   3.101
 7858SOL    HW125413   3.425   1.095   3.183
 7858SOL    HW225414   3.469   1.126   3.041
 7859SOL     OW25415   8.838   3.905  14.638
 7859SOL    HW125416   8.845   3.842  14.710
 7859SOL    HW225417   8.788   3.978  14.676
 7860SOL     OW25418   2.651  10.319   5.724
 7860SOL    HW125419   2.590  10.247   5.706
 7860SOL    HW225420   2.678  10.350   5.637
 7861SOL     OW25421  13.225  11.728   3.688
 7861SOL    HW125422  13.293  11.787   3.655
 7861SOL    HW225423  13.238  11.726   3.783
 7862SOL     OW25424   7.996   1.421   7.799
 7862SOL    HW125425   8.012   1.328   7.785
 7862SOL    HW225426   7.901   1.427   7.813
 7863SOL     OW25427  14.315   2.150   0.688
 7863SOL    HW125428  14.361   2.226   0.721
 7863SOL    HW225429  14.320   2.085   0.759
 7864SOL     OW25430   4.404   8.656   8.176
 7864SOL    HW125431   4.378   8.697   8.258
 7864SOL    HW225432   4.453   8.578   8.202
 7865SOL     OW25433  12.395   8.940   8.072
 7865SOL    HW125434  12.338   8.899   8.137
 7865SOL    HW225435  12.449   8.868   8.039
 7866SOL     OW25436   6.442   1.810   6.173
 7866SOL    HW125437   6.530   1.825   6.208
 7866SOL    HW225438   6.399   1.896   6.177
 7867SOL     OW25439   6.494   3.992   6.269
 7867SOL    HW125440   6.586   3.990   6.242
 7867SOL    HW225441   6.492   3.950   6.355
 7868SOL     OW25442   7.612   1.685   5.224
 7868SOL    HW125443   7.544   1.642   5.172
 7868SOL    HW225444   7.583   1.672   5.315
 7869SOL     OW25445   7.029   3.872   8.554
 7869SOL    HW125446   7.028   3.946   8.494
 7869SOL    HW225447   6.972   3.899   8.626
 7870SOL     OW25448   1.549   9.575  12.897
 7870SOL    HW125449   1.467   9.560  12.850
 7870SOL    HW225450   1.542   9.664  12.931
 7871SOL     OW25451   7.937   2.806  10.631
 7871SOL    HW125452   8.015   2.767  10.592
 7871SOL    HW225453   7.958   2.899  10.638
 7872SOL     OW25454   5.507   3.375   1.078
 7872SOL    HW125455   5.504   3.427   0.998
 7872SOL    HW225456   5.415   3.365   1.104
 7873SOL     OW25457  12.055  10.351   0.318
 7873SOL    HW125458  12.120  10.281   0.321
 7873SOL    HW225459  11.996  10.325   0.246
 7874SOL     OW25460   3.660   4.826  11.961
 7874SOL    HW125461   3.613   4.871  12.031
 7874SOL    HW225462   3.655   4.733  11.985
 7875SOL     OW25463   3.291   3.434   3.689
 7875SOL    HW125464   3.296   3.526   3.663
 7875SOL    HW225465   3.279   3.386   3.607
 7876SOL     OW25466  10.170   5.501   9.100
 7876SOL    HW125467  10.093   5.557   9.112
 7876SOL    HW225468  10.231   5.556   9.050
 7877SOL     OW25469  14.198   7.762   6.857
 7877SOL    HW125470  14.194   7.707   6.778
 7877SOL    HW225471  14.111   7.752   6.897
 7878SOL     OW25472   7.368  13.409   5.852
 7878SOL    HW125473   7.377  13.404   5.947
 7878SOL    HW225474   7.398  13.323   5.821
 7879SOL     OW25475   1.824   1.753   6.353
 7879SOL    HW125476   1.896   1.726   6.296
 7879SOL    HW225477   1.747   1.752   6.296
 7880SOL     OW25478  11.654  14.505   7.738
 7880SOL    HW125479  11.732  14.480   7.787
 7880SOL    HW225480  11.662  14.600   7.726
 7881SOL     OW25481   2.127   9.319  12.615
 7881SOL    HW125482   2.109   9.228  12.639
 7881SOL    HW225483   2.211   9.339  12.656
 7882SOL     OW25484   7.883  14.332   9.403
 7882SOL    HW125485   7.879  14.364   9.493
 7882SOL    HW225486   7.799  14.358   9.365
 7883SOL     OW25487   4.247   8.531   2.489
 7883SOL    HW125488   4.248   8.498   2.400
 7883SOL    HW225489   4.260   8.625   2.480
 7884SOL     OW25490  13.874   3.439  10.607
 7884SOL    HW125491  13.792   3.480  10.581
 7884SOL    HW225492  13.864   3.347  10.584
 7885SOL     OW25493   6.950   7.131   8.933
 7885SOL    HW125494   6.910   7.208   8.973
 7885SOL    HW225495   7.019   7.166   8.876
 7886SOL     OW25496  13.951   6.404   3.244
 7886SOL    HW125497  13.953   6.485   3.194
 7886SOL    HW225498  13.878   6.354   3.206
 7887SOL     OW25499   1.914   1.184   8.227
 7887SOL    HW125500   1.940   1.181   8.319
 7887SOL    HW225501   1.942   1.270   8.197
 7888SOL     OW25502  12.462   9.668  13.508
 7888SOL    HW125503  12.471   9.728  13.583
 7888SOL    HW225504  12.453   9.581  13.548
 7889SOL     OW25505   1.900   3.826   0.073
 7889SOL    HW125506   1.806   3.831   0.091
 7889SOL    HW225507   1.909   3.751   0.014
 7890SOL     OW25508  11.507   0.160  12.361
 7890SOL    HW125509  11.591   0.134  12.399
 7890SOL    HW225510  11.474   0.081  12.319
 7891SOL     OW25511  10.965   4.819   4.921
 7891SOL    HW125512  10.894   4.777   4.872
 7891SOL    HW225513  11.037   4.755   4.918
 7892SOL     OW25514   2.383  14.255   9.827
 7892SOL    HW125515   2.375  14.350   9.836
 7892SOL    HW225516   2.340  14.234   9.744
 7893SOL     OW25517   9.981   0.710   4.688
 7893SOL    HW125518   9.921   0.744   4.622
 7893SOL    HW225519   9.925   0.693   4.764
 7894SOL     OW25520   4.886   2.601   1.464
 7894SOL    HW125521   4.874   2.680   1.518
 7894SOL    HW225522   4.981   2.595   1.452
 7895SOL     OW25523  11.375  11.600  13.811
 7895SOL    HW125524  11.397  11.637  13.896
 7895SOL    HW225525  11.449  11.623  13.755
 7896SOL     OW25526  11.208   5.694  13.249
 7896SOL    HW125527  11.247   5.737  13.324
 7896SOL    HW225528  11.119   5.671  13.277
 7897SOL     OW25529  11.606   6.221   5.683
 7897SOL    HW125530  11.664   6.163   5.634
 7897SOL    HW225531  11.621   6.307   5.645
 7898SOL     OW25532  10.640   9.618   8.351
 7898SOL    HW125533  10.621   9.548   8.288
 7898SOL    HW225534  10.705   9.580   8.410
 7899SOL     OW25535  11.845   1.928   4.187
 7899SOL    HW125536  11.849   1.895   4.277
 7899SOL    HW225537  11.863   1.852   4.132
 7900SOL     OW25538  14.272   2.060   3.017
 7900SOL    HW125539  14.325   2.053   2.937
 7900SOL    HW225540  14.192   2.012   2.998
 7901SOL     OW25541   9.861  11.622   1.792
 7901SOL    HW125542   9.892  11.701   1.836
 7901SOL    HW225543   9.896  11.628   1.703
 7902SOL     OW25544   5.376  11.350  12.091
 7902SOL    HW125545   5.368  11.280  12.026
 7902SOL    HW225546   5.461  11.390  12.072
 7903SOL     OW25547   9.016   7.610   2.673
 7903SOL    HW125548   9.051   7.577   2.756
 7903SOL    HW225549   8.926   7.578   2.671
 7904SOL     OW25550   8.162   8.633  11.372
 7904SOL    HW125551   8.248   8.673  11.377
 7904SOL    HW225552   8.152   8.611  11.279
 7905SOL     OW25553   5.519   1.444  14.659
 7905SOL    HW125554   5.547   1.438  14.750
 7905SOL    HW225555   5.424   1.453  14.663
 7906SOL     OW25556   0.200  12.611   2.394
 7906SOL    HW125557   0.129  12.645   2.448
 7906SOL    HW225558   0.280  12.627   2.444
 7907SOL     OW25559   7.677   7.580  11.710
 7907SOL    HW125560   7.662   7.674  11.702
 7907SOL    HW225561   7.646   7.544  11.627
 7908SOL     OW25562   9.758  12.165   8.624
 7908SOL    HW125563   9.726  12.241   8.574
 7908SOL    HW225564   9.822  12.201   8.685
 7909SOL     OW25565   5.157   4.689   6.168
 7909SOL    HW125566   5.071   4.730   6.173
 7909SOL    HW225567   5.138   4.595   6.163
 7910SOL     OW25568   3.662   2.452   4.514
 7910SOL    HW125569   3.694   2.417   4.597
 7910SOL    HW225570   3.570   2.472   4.531
 7911SOL     OW25571  14.839  11.084   9.124
 7911SOL    HW125572  14.836  11.016   9.056
 7911SOL    HW225573  14.838  11.166   9.075
 7912SOL     OW25574  12.678  13.712   6.306
 7912SOL    HW125575  12.648  13.726   6.396
 7912SOL    HW225576  12.646  13.788   6.258
 7913SOL     OW25577  11.797  13.079   2.169
 7913SOL    HW125578  11.716  13.079   2.120
 7913SOL    HW225579  11.779  13.023   2.245
 7914SOL     OW25580   7.439  10.903   5.323
 7914SOL    HW125581   7.415  10.823   5.371
 7914SOL    HW225582   7.416  10.974   5.382
 7915SOL     OW25583  11.946   6.873   5.012
 7915SOL    HW125584  12.024   6.869   5.068
 7915SOL    HW225585  11.941   6.786   4.972
 7916SOL     OW25586   4.436   5.802   2.482
 7916SOL    HW125587   4.474   5.714   2.478
 7916SOL    HW225588   4.342   5.788   2.469
 7917SOL     OW25589   1.189   2.831   2.176
 7917SOL    HW125590   1.188   2.740   2.205
 7917SOL    HW225591   1.121   2.835   2.108
 7918SOL     OW25592  12.254  13.335   9.475
 7918SOL    HW125593  12.160  13.338   9.493
 7918SOL    HW225594  12.290  13.283   9.547
 7919SOL     OW25595  14.841   0.965   4.416
 7919SOL    HW125596   0.014   1.014   4.483
 7919SOL    HW225597  14.757   1.009   4.407
 7920SOL     OW25598  13.025   0.554   5.625
 7920SOL    HW125599  12.960   0.567   5.694
 7920SOL    HW225600  13.101   0.604   5.653
 7921SOL     OW25601   7.681  11.102   8.712
 7921SOL    HW125602   7.757  11.089   8.768
 7921SOL    HW225603   7.715  11.145   8.633
 7922SOL     OW25604   8.159   4.120   3.057
 7922SOL    HW125605   8.130   4.179   3.127
 7922SOL    HW225606   8.166   4.035   3.100
 7923SOL     OW25607  13.023  11.610   3.998
 7923SOL    HW125608  13.036  11.560   3.918
 7923SOL    HW225609  12.931  11.637   3.994
 7924SOL     OW25610   9.048   3.866   1.640
 7924SOL    HW125611   9.141   3.849   1.658
 7924SOL    HW225612   9.036   3.837   1.549
 7925SOL     OW25613   5.014  13.542   0.161
 7925SOL    HW125614   5.068  13.466   0.185
 7925SOL    HW225615   4.988  13.525   0.071
 7926SOL     OW25616  11.379   9.959   2.502
 7926SOL    HW125617  11.339  10.024   2.559
 7926SOL    HW225618  11.440  10.008   2.447
 7927SOL     OW25619   8.176   6.160   8.810
 7927SOL    HW125620   8.219   6.190   8.890
 7927SOL    HW225621   8.246   6.162   8.744
 7928SOL     OW25622   5.038   1.095  13.055
 7928SOL    HW125623   5.052   1.187  13.035
 7928SOL    HW225624   5.036   1.091  13.151
 7929SOL     OW25625  14.256  10.199   8.521
 7929SOL    HW125626  14.270  10.144   8.443
 7929SOL    HW225627  14.320  10.270   8.511
 7930SOL     OW25628   6.121  10.210   1.472
 7930SOL    HW125629   6.139  10.145   1.405
 7930SOL    HW225630   6.205  10.224   1.515
 7931SOL     OW25631  12.165   6.505   7.625
 7931SOL    HW125632  12.078   6.541   7.603
 7931SOL    HW225633  12.226   6.570   7.591
 7932SOL     OW25634  12.667   8.060   6.298
 7932SOL    HW125635  12.653   8.151   6.273
 7932SOL    HW225636  12.695   8.064   6.390
 7933SOL     OW25637   1.827   1.290  11.614
 7933SOL    HW125638   1.874   1.300  11.532
 7933SOL    HW225639   1.762   1.360  11.614
 7934SOL     OW25640   8.920   5.587  10.964
 7934SOL    HW125641   8.850   5.541  11.012
 7934SOL    HW225642   9.001   5.557  11.005
 7935SOL     OW25643  14.050  14.489   9.644
 7935SOL    HW125644  13.966  14.448   9.667
 7935SOL    HW225645  14.025  14.566   9.592
 7936SOL     OW25646   9.612   7.566   4.905
 7936SOL    HW125647   9.619   7.476   4.874
 7936SOL    HW225648   9.518   7.583   4.908
 7937SOL     OW25649   1.205  14.411   0.079
 7937SOL    HW125650   1.256  14.480   0.036
 7937SOL    HW225651   1.127  14.401   0.025
 7938SOL     OW25652   0.427   2.435  11.093
 7938SOL    HW125653   0.460   2.518  11.060
 7938SOL    HW225654   0.376   2.458  11.170
 7939SOL     OW25655  14.165  14.396   0.688
 7939SOL    HW125656  14.212  14.447   0.754
 7939SOL    HW225657  14.219  14.404   0.609
 7940SOL     OW25658   5.018   4.190   9.286
 7940SOL    HW125659   4.942   4.164   9.337
 7940SOL    HW225660   5.006   4.147   9.201
 7941SOL     OW25661  14.814   0.910   0.576
 7941SOL    HW125662  14.813   1.003   0.552
 7941SOL    HW225663  14.762   0.868   0.507
 7942SOL     OW25664   9.675   1.420   6.663
 7942SOL    HW125665   9.769   1.404   6.671
 7942SOL    HW225666   9.655   1.484   6.731
 7943SOL     OW25667   7.182   6.674   5.632
 7943SOL    HW125668   7.165   6.595   5.682
 7943SOL    HW225669   7.173   6.745   5.696
 7944SOL     OW25670  13.228   7.708   6.411
 7944SOL    HW125671  13.192   7.779   6.358
 7944SOL    HW225672  13.160   7.688   6.475
 7945SOL     OW25673   3.470   8.955  11.514
 7945SOL    HW125674   3.443   8.986  11.428
 7945SOL    HW225675   3.508   8.869  11.498
 7946SOL     OW25676   2.927   3.650   7.508
 7946SOL    HW125677   2.861   3.717   7.524
 7946SOL    HW225678   3.007   3.699   7.488
 7947SOL     OW25679   7.924   2.365   6.802
 7947SOL    HW125680   7.978   2.304   6.853
 7947SOL    HW225681   7.987   2.415   6.750
 7948SOL     OW25682  11.568   9.268   8.676
 7948SOL    HW125683  11.645   9.283   8.622
 7948SOL    HW225684  11.585   9.318   8.756
 7949SOL     OW25685   7.229  10.272   9.492
 7949SOL    HW125686   7.268  10.222   9.564
 7949SOL    HW225687   7.283  10.250   9.416
 7950SOL     OW25688  11.998   8.670   0.267
 7950SOL    HW125689  11.953   8.740   0.315
 7950SOL    HW225690  12.081   8.660   0.312
 7951SOL     OW25691   8.883   7.720   4.334
 7951SOL    HW125692   8.851   7.650   4.391
 7951SOL    HW225693   8.808   7.741   4.278
 7952NA      NA25694   9.350   7.968   8.379
 7953NA      NA25695   7.997   7.890   6.659
 7954NA      NA25696   7.768  10.131   6.037
 7955NA      NA25697   6.253   8.514   8.067
 7956NA      NA25698   6.296   8.850  11.640
 7957NA      NA25699   8.012   9.527   7.971
 7958NA      NA25700   6.168   6.724  11.198
 7959NA      NA25701   3.036   6.369  12.057
 7960NA      NA25702   7.539   7.484  11.924
 7961NA      NA25703   8.456   0.095   4.125
 7962NA      NA25704   8.260   7.244   9.286
 7963NA      NA25705   5.296   6.703  14.395
 7964NA      NA25706  11.666   8.128   5.998
 7965NA      NA25707   8.234   9.379   8.872
 7966NA      NA25708  10.694   3.636   8.158
 7967NA      NA25709   6.306   7.276  13.087
 7968NA      NA25710   0.573   2.719  13.099
 7969NA      NA25711   8.903  11.749   6.530
 7970NA      NA25712   6.961   8.301  10.619
 7971NA      NA25713  11.778   6.178   9.662
 7972NA      NA25714   7.031   7.798   9.647
 7973NA      NA25715   5.454   6.013  13.331
 7974NA      NA25716   8.233  14.786   7.478
 7975NA      NA25717   6.622   6.722   7.402
 7976NA      NA25718   4.110   9.859  14.791
 7977NA      NA25719   8.691   9.103   9.297
 7978NA      NA25720   7.494   7.575   6.649
 7979NA      NA25721   9.160   0.994   1.172
 7980NA      NA25722   5.455   7.700   1.574
 7981NA      NA25723   7.310   7.235   8.745
 7982NA      NA25724  10.213   1.350  10.861
 7983NA      NA25725  12.997   0.630   4.768
 7984NA      NA25726   8.049   9.045   7.177
 7985NA      NA25727   3.887   6.963  10.389
 7986NA      NA25728   5.740   6.833  11.764
 7987NA      NA25729   5.114   8.036  11.869
 7988NA      NA25730   8.986   7.196  10.129
 7989NA      NA25731   6.880   4.082   0.845
 7990NA      NA25732  11.755   9.675  10.773
 7991NA      NA25733   4.931   6.801  12.727
 7992NA      NA25734   7.870   8.436  11.611
 7993NA      NA25735  13.373   6.094   6.683
 7994NA      NA25736   6.156  10.748  14.077
 7995NA      NA25737   4.925   7.747   5.696
 7996NA      NA25738   4.532   9.402   9.716
 7997NA      NA25739   0.426  11.413   6.669
 7998NA      NA25740   5.901   8.023  10.164
 7999NA      NA25741   6.277   0.355   3.595
 8000NA      NA25742   7.454   2.152   0.443
 8001NA      NA25743   8.158  10.664   6.905
 8002NA      NA25744   3.926   7.638  13.374
 8003NA      NA25745  14.397  14.854  10.168
 8004NA      NA25746   6.899   8.979   8.673
 8005NA      NA25747   5.460   8.872  13.127
 8006NA      NA25748   7.978   8.893  11.734
 8007NA      NA25749   5.973   6.330   9.048
 8008NA      NA25750   0.243   7.545   8.976
 8009NA      NA25751   6.800   7.826  13.665
 8010NA      NA25752   8.019   7.549   5.967
 8011NA      NA25753   7.306   5.843   6.516
 8012NA      NA25754   4.661  10.026   8.962
 8013NA      NA25755   6.246   9.221  10.456
  14.87405  14.87405  14.87405
